G6.5ncore-PETIM in water
235960
    1aaa     N1    1   8.578   3.937   8.382  0.4984  0.7406 -0.0641
    1aaa     C1    2   8.598   3.930   8.231 -0.1997  0.0513  0.9713
    1aaa     H1    3   8.612   4.033   8.196  4.4971 -0.0942  1.7915
    1aaa     H2    4   8.691   3.876   8.211 -1.5566 -1.5403 -1.5548
    1aaa     C2    5   8.579   3.814   8.461  0.2253 -0.0132  0.3700
    1aaa     H3    6   8.574   3.824   8.570 -0.4472 -1.5932  0.5185
    1aaa     H4    7   8.486   3.765   8.429  0.2691 -0.6102  1.1370
    1aaa     C3    8   8.461   4.018   8.421  0.1922  0.5137  0.3742
    1aaa     H5    9   8.367   3.966   8.402  1.7464 -2.9292  1.2670
    1aaa     H6   10   8.456   4.028   8.530 -1.1654 -1.1955  0.5068
    1aaa     C4   11   8.467   4.169   8.376 -0.4890 -0.3569 -0.2490
    1aaa     H7   12   8.558   4.218   8.414 -1.0047 -0.8076  1.6534
    1aaa     H8   13   8.470   4.165   8.267 -0.0988 -1.0244 -0.2208
    1aaa     C5   14   8.497   3.845   8.146 -0.1784 -0.5300 -0.4008
    1aaa     H9   15   8.551   3.838   8.051  2.4014 -0.0397  0.9361
    1aaa    H10   16   8.489   3.744   8.188  1.7845 -0.2047  0.8803
    1aaa     C6   17   8.699   3.716   8.426 -0.0414  0.1408 -0.0981
    1aaa    H11   18   8.683   3.676   8.326  1.3143 -1.7426  0.3906
    1aaa    H12   19   8.785   3.783   8.425  0.2108 -0.1753  0.1522
    1aaa     C7   20   8.700   3.603   8.532 -0.5142 -0.1745 -0.9674
    1aaa    H13   21   8.734   3.633   8.632  1.5438  1.5577 -2.1153
    1aaa    H14   22   8.595   3.575   8.547 -0.5918  0.2899 -0.6172
    1aaa     C8   23   8.336   4.252   8.400 -0.4393 -0.1079 -0.0398
    1aaa    H15   24   8.341   4.287   8.504  1.2809  1.2894 -0.5389
    1aaa    H16   25   8.343   4.333   8.327  1.3504 -1.0819 -1.0182
    1aaa     C9   26   8.361   3.917   8.111 -0.2246  0.7052 -0.0494
    1aaa    H17   27   8.286   3.837   8.118  1.4281 -0.8335  1.0313
    1aaa    H18   28   8.343   3.995   8.186  0.0070  2.2589 -1.5685
    2bbb     N1   29   9.066   3.114   8.514 -0.2796  0.5461  0.1254
    2bbb     C1   30   9.062   3.076   8.367  0.4893  0.5680  0.0188
    2bbb     H1   31   8.975   3.010   8.364 -1.3883  2.8918  0.1678
    2bbb     H2   32   9.036   3.165   8.308 -0.0587  0.5650  0.2522
    2bbb     C2   33   9.144   3.033   8.609 -0.3409  0.8624  0.1068
    2bbb     H3   34   9.175   3.089   8.698  0.9198 -1.7527  1.4640
    2bbb     H4   35   9.242   3.021   8.560  0.3828  0.4883  1.5809
    2bbb     C3   36   8.940   3.161   8.575  0.0329 -0.0318 -0.2730
    2bbb     H5   37   8.953   3.197   8.678  1.3669  2.6575 -1.2945
    2bbb     H6   38   8.867   3.079   8.573 -0.2695  0.1620  1.3757
    2bbb     C4   39   8.900   3.290   8.498  0.3337 -0.8814  0.4355
    2bbb     H7   40   8.843   3.255   8.410 -2.2021 -0.3245  1.7589
    2bbb     H8   41   8.992   3.340   8.467 -0.2159 -1.3301 -2.1515
    2bbb     C5   42   9.184   3.020   8.302 -0.0943  0.1863  0.7274
    2bbb     H9   43   9.191   2.914   8.329  1.2641 -0.1949 -0.9091
    2bbb    H10   44   9.265   3.082   8.343  0.4945 -0.0508 -0.0433
    2bbb     C6   45   9.075   2.895   8.641 -0.3850  0.0045  0.6650
    2bbb    H11   46   9.063   2.842   8.546 -2.7459  2.2790 -0.4111
    2bbb    H12   47   8.977   2.924   8.681  0.5455  1.9620  1.6550
    2bbb     C7   48   8.812   3.393   8.565 -0.6086 -0.1220 -0.3049
    2bbb    H13   49   8.860   3.433   8.656 -1.3456  0.7555 -0.2943
    2bbb    H14   50   8.718   3.345   8.596 -0.6562 -0.7686 -1.4025
    2bbb     C8   51   9.160   2.814   8.743  0.0237  0.0062  0.1951
    2bbb    H15   52   9.176   2.867   8.838 -0.4832  0.4299  0.0470
    2bbb    H16   53   9.260   2.794   8.703 -0.7802 -2.5820 -0.7025
    2bbb     C9   54   9.172   3.030   8.144  0.3477 -0.3231 -0.5193
    2bbb    H17   55   9.268   3.001   8.099  0.9259  0.8102 -0.0494
    2bbb    H18   56   9.156   3.131   8.106 -0.5596  0.0102  0.6921
    2bbb     O1   57   8.788   3.503   8.475 -0.0295  0.5614  0.0292
    3bbb     N1   58   7.897   3.937   8.202  0.0053 -0.1416  0.7946
    3bbb     C1   59   7.840   3.860   8.319 -0.4291  0.6284 -0.3790
    3bbb     H1   60   7.757   3.796   8.287  0.4173 -1.0967  0.6805
    3bbb     H2   61   7.805   3.936   8.390  0.3920  0.7912 -0.1388
    3bbb     C2   62   7.958   3.853   8.098  0.0021 -0.6949  0.2649
    3bbb     H3   63   8.044   3.795   8.133  2.2827  0.8396 -2.4000
    3bbb     H4   64   7.992   3.917   8.016 -0.1962 -1.7588 -0.6658
    3bbb     C3   65   8.004   4.035   8.234  0.4587  0.4157 -0.3710
    3bbb     H5   66   8.024   4.089   8.141 -1.4647  0.3651 -0.8547
    3bbb     H6   67   8.095   3.975   8.248  1.8303  2.2559 -1.0927
    3bbb     C4   68   7.983   4.132   8.355 -0.1071 -0.7078 -0.0890
    3bbb     H7   69   7.971   4.086   8.454 -0.9209  3.3501  1.9512
    3bbb     H8   70   7.890   4.189   8.344  1.1058  1.0204 -2.0898
    3bbb     C5   71   7.943   3.775   8.391 -0.8018  0.1347  0.4412
    3bbb     H9   72   8.030   3.841   8.396  0.2053 -1.0661 -0.5451
    3bbb    H10   73   7.951   3.684   8.329  1.3732 -1.0364  2.2991
    3bbb     C6   74   7.863   3.760   8.036  0.8470  0.2060  0.1009
    3bbb    H11   75   7.818   3.685   8.102  0.3667  0.8813  0.5533
    3bbb    H12   76   7.922   3.698   7.967  1.5231  0.6343  0.2772
    3bbb     C7   77   8.098   4.244   8.366 -0.4025 -0.0428 -0.3994
    3bbb    H13   78   8.074   4.296   8.460 -0.5084 -0.9316  0.0788
    3bbb    H14   79   8.081   4.317   8.287  0.3107 -0.4809 -0.9629
    3bbb     C8   80   7.749   3.833   7.962 -0.6989  0.2032  0.1307
    3bbb    H15   81   7.697   3.897   8.034 -0.0970  0.1393  0.6339
    3bbb    H16   82   7.672   3.763   7.926 -2.6834  2.1506  0.3952
    3bbb     C9   83   7.918   3.733   8.537  0.8548 -0.0970  0.4466
    3bbb    H17   84   7.816   3.694   8.552  0.7816  0.7150  2.2761
    3bbb    H18   85   7.927   3.821   8.602 -1.4301  1.9560 -1.7649
    3bbb     O1   86   8.222   4.174   8.373  0.3719 -0.1905 -0.4073
    4bbb     N1   87   8.257   4.299   7.640  0.3051  0.9328  0.5439
    4bbb     C1   88   8.159   4.386   7.578  1.0681 -0.6109  0.6302
    4bbb     H1   89   8.097   4.336   7.503  1.0738  0.1409  0.1123
    4bbb     H2   90   8.087   4.414   7.657  2.1116  1.1371  1.0186
    4bbb     C2   91   8.356   4.238   7.543 -0.0021 -0.0592  0.5012
    4bbb     H3   92   8.443   4.193   7.593 -0.1943  0.3740  1.2334
    4bbb     H4   93   8.397   4.323   7.489 -2.9415  1.1090 -0.0581
    4bbb     C3   94   8.194   4.204   7.740  0.3805 -0.1709  0.4362
    4bbb     H5   95   8.121   4.136   7.693  1.5535 -2.1324  1.3430
    4bbb     H6   96   8.153   4.259   7.825 -0.3563 -0.1239  0.0624
    4bbb     C4   97   8.301   4.119   7.815 -0.9340  0.1776  0.1828
    4bbb     H7   98   8.378   4.187   7.854 -1.1362 -0.0199  0.9240
    4bbb     H8   99   8.346   4.052   7.740 -1.5242 -0.2788  0.2277
    4bbb     C5  100   8.217   4.518   7.510 -0.2303  0.7247 -0.4255
    4bbb     H9  101   8.267   4.501   7.414  0.0561  1.2140 -0.3653
    4bbb    H10  102   8.295   4.563   7.572 -0.8345 -0.3560  1.1871
    4bbb     C6  103   8.295   4.126   7.453 -0.3586 -0.1674 -0.0982
    4bbb    H11  104   8.205   4.169   7.406  0.2872  1.6863  0.2709
    4bbb    H12  105   8.271   4.036   7.511  0.8374 -0.9971 -0.8509
    4bbb     C7  106   8.250   4.032   7.928  0.7228 -0.1957 -0.6813
    4bbb    H13  107   8.184   3.950   7.897  0.8647 -1.3649  1.9309
    4bbb    H14  108   8.208   4.096   8.007  3.7232 -0.9153  1.6673
    4bbb     C8  109   8.397   4.081   7.342  0.2390  0.6365  0.2983
    4bbb    H15  110   8.490   4.048   7.388  0.4361 -1.0579 -1.1850
    4bbb    H16  111   8.415   4.162   7.270  1.0674  0.9415  0.8471
    4bbb     C9  112   8.112   4.626   7.484  0.0098 -0.0784  0.0058
    4bbb    H17  113   8.164   4.708   7.433  0.0798 -1.0246 -1.5057
    4bbb    H18  114   8.078   4.666   7.580 -0.9024 -0.9615  0.0659
    4bbb     O1  115   8.372   3.979   7.984  0.9370  0.0705  0.3764
    5bbb     N1  116   8.826   2.347   8.770  0.7124 -0.0508  0.3859
    5bbb     C1  117   8.900   2.282   8.876 -0.0462  0.2822 -0.5542
    5bbb     H1  118   8.847   2.199   8.924  0.9488 -0.6304 -0.9938
    5bbb     H2  119   8.907   2.349   8.963 -0.5932 -0.0516 -0.2428
    5bbb     C2  120   8.787   2.260   8.653 -0.0825 -0.3663 -0.0843
    5bbb     H3  121   8.754   2.164   8.695 -1.1654 -0.6262 -1.4604
    5bbb     H4  122   8.878   2.239   8.595 -0.0869 -1.1577  0.1856
    5bbb     C3  123   8.878   2.483   8.737  0.6981  0.3420  0.2163
    5bbb     H5  124   8.812   2.525   8.661 -0.1484 -1.0319  0.1685
    5bbb     H6  125   8.972   2.462   8.685 -0.6577 -0.4307 -2.0211
    5bbb     C4  126   8.905   2.572   8.858 -0.2295  0.0830  0.3787
    5bbb     H7  127   8.980   2.527   8.925  0.3775  1.2022  0.4684
    5bbb     H8  128   8.812   2.582   8.915 -1.5595  1.0497 -1.8618
    5bbb     C5  129   9.046   2.241   8.844 -0.8460 -0.3519 -0.1874
    5bbb     H9  130   9.103   2.321   8.796 -0.6466 -1.6727 -2.2486
    5bbb    H10  131   9.050   2.156   8.775  0.8540 -0.7279  0.3293
    5bbb     C6  132   8.674   2.305   8.557  0.8678  0.6215 -0.5955
    5bbb    H11  133   8.643   2.219   8.496 -0.7972 -0.4260  1.5883
    5bbb    H12  134   8.712   2.384   8.492  2.9337 -0.0791 -0.2948
    5bbb     C7  135   8.958   2.707   8.817 -0.2584  0.1682 -0.4474
    5bbb    H13  136   8.957   2.781   8.898  1.8639 -0.7569  0.4978
    5bbb    H14  137   8.900   2.748   8.733  1.6913  1.3960 -1.2371
    5bbb     C8  138   8.551   2.360   8.635 -0.3998 -0.1420  0.1958
    5bbb    H15  139   8.493   2.422   8.565  0.3261  0.5590  0.2146
    5bbb    H16  140   8.582   2.418   8.722  0.7210 -0.7804  0.2332
    5bbb     C9  141   9.128   2.202   8.968 -0.1285 -0.2746 -0.1886
    5bbb    H17  142   9.170   2.102   8.948  0.3206  0.0362 -0.8180
    5bbb    H18  143   9.064   2.184   9.056  1.1489  0.2397  0.8818
    5bbb     O1  144   9.092   2.691   8.765  0.6166  0.0758  0.1127
    6bbb     N1  145   8.971   2.522   7.869 -0.5297 -0.4007 -0.1023
    6bbb     C1  146   9.061   2.435   7.953 -0.5240 -0.0112  0.3622
    6bbb     H1  147   9.086   2.487   8.046 -1.6701  0.6500  0.3183
    6bbb     H2  148   9.156   2.427   7.900 -0.8550 -0.5141 -0.1665
    6bbb     C2  149   8.829   2.519   7.892  0.4134 -0.5164 -0.3619
    6bbb     H3  150   8.808   2.548   7.995  1.4789  0.5469 -0.4200
    6bbb     H4  151   8.790   2.417   7.882  3.3508 -1.7087 -0.5978
    6bbb     C3  152   9.027   2.658   7.852  0.2889 -0.7212 -0.6326
    6bbb     H5  153   8.988   2.717   7.769  2.0010  1.8641  0.2786
    6bbb     H6  154   9.135   2.650   7.836  0.4373 -0.0900  0.0166
    6bbb     C4  155   9.003   2.752   7.974  0.1010 -0.4664 -0.1987
    6bbb     H7  156   9.001   2.703   8.073  0.2190  2.6705  1.4864
    6bbb     H8  157   8.899   2.789   7.975  0.3307  0.3480  2.3707
    6bbb     C5  158   9.011   2.291   7.983 -0.4404 -0.5393 -0.2052
    6bbb     H9  159   8.972   2.272   7.882  1.0611 -0.4641 -0.8326
    6bbb    H10  160   8.941   2.313   8.065  1.8975  1.8387  1.3346
    6bbb     C6  161   8.746   2.599   7.791  0.0351 -0.1817 -0.1476
    6bbb    H11  162   8.765   2.704   7.814  2.1397 -0.9436  2.2045
    6bbb    H12  163   8.639   2.579   7.807 -0.0141 -1.5075 -1.7913
    6bbb     C7  164   9.101   2.874   7.979  0.2278  1.2648 -0.0409
    6bbb    H13  165   9.091   2.939   7.891 -0.6428  1.2689  0.0594
    6bbb    H14  166   9.202   2.832   7.981 -0.9363 -1.8147 -0.7935
    6bbb     C8  167   8.772   2.564   7.644 -0.3760  0.1602 -0.0395
    6bbb    H15  168   8.761   2.459   7.614  0.3101  0.8423 -2.9427
    6bbb    H16  169   8.879   2.576   7.626 -0.2825  0.6546  0.7721
    6bbb     C9  170   9.116   2.188   8.037  0.3663 -0.3206  0.6439
    6bbb    H17  171   9.095   2.082   8.017  1.0952 -0.3118 -0.2739
    6bbb    H18  172   9.141   2.197   8.143  2.7035  0.0551  0.1260
    6bbb     O1  173   9.065   2.939   8.104  0.2311  0.1408  0.1068
    7bbb     N1  174   7.763   4.285   7.916  1.4145  0.0746 -0.4456
    7bbb     C1  175   7.846   4.378   7.998 -0.2304  0.2683  0.0057
    7bbb     H1  176   7.934   4.322   8.032  0.8288  2.5160  1.1771
    7bbb     H2  177   7.782   4.422   8.075 -1.1673  0.8443 -1.0573
    7bbb     C2  178   7.657   4.355   7.838  0.1214  0.5321  0.2039
    7bbb     H3  179   7.583   4.285   7.799  0.6702 -0.4450  0.8770
    7bbb     H4  180   7.696   4.412   7.753 -1.4719  0.0779 -0.8785
    7bbb     C3  181   7.845   4.215   7.828 -0.0966  0.4291  0.2882
    7bbb     H5  182   7.917   4.161   7.891  0.6970 -0.0739 -1.0142
    7bbb     H6  183   7.906   4.282   7.767 -1.2069 -1.7325 -3.5695
    7bbb     C4  184   7.775   4.118   7.730 -0.0018 -0.1491  0.3607
    7bbb     H7  185   7.850   4.088   7.656 -0.2114  0.0277  0.0786
    7bbb     H8  186   7.705   4.170   7.665  2.2085  1.1799 -1.0536
    7bbb     C5  187   7.901   4.502   7.933 -0.3463 -0.7225  0.6280
    7bbb     H9  188   7.831   4.538   7.856  0.1985 -1.2706 -0.1430
    7bbb    H10  189   7.993   4.464   7.887  1.1554  1.5655  1.5846
    7bbb     C6  190   7.565   4.456   7.919 -0.4862  0.9634 -0.1291
    7bbb    H11  191   7.499   4.504   7.846 -2.0291 -0.2398  0.4188
    7bbb    H12  192   7.627   4.530   7.970 -1.5198  0.5190  1.8629
    7bbb     C7  193   7.701   3.997   7.794  0.1591  0.1330 -0.4221
    7bbb    H13  194   7.653   3.937   7.716  2.1420 -0.1701 -1.4956
    7bbb    H14  195   7.621   4.024   7.864 -0.1151 -2.1290  0.2259
    7bbb     C8  196   7.475   4.391   8.021  0.1009 -0.0041  0.0147
    7bbb    H15  197   7.524   4.367   8.116 -1.2596 -0.8515  0.5443
    7bbb    H16  198   7.441   4.299   7.972 -1.2577 -0.1561  1.1753
    7bbb     C9  199   7.940   4.613   8.035  0.0311  0.2866  0.2795
    7bbb    H17  200   8.005   4.565   8.109  0.7960  2.4735  1.0730
    7bbb    H18  201   7.848   4.641   8.087  1.5917  2.8714  1.8629
    7bbb     O1  202   7.799   3.921   7.860 -0.4904 -0.3893 -0.1723
    8bbb     N1  203   8.389   3.458   8.695 -0.0111  0.3028  0.1362
    8bbb     C1  204   8.440   3.461   8.835 -1.0281 -0.5072 -0.3729
    8bbb     H1  205   8.528   3.394   8.840  0.1200  0.8565 -1.3903
    8bbb     H2  206   8.378   3.436   8.922  0.3155 -1.2379  0.4262
    8bbb     C2  207   8.381   3.321   8.643  0.6495  0.1813  0.2985
    8bbb     H3  208   8.287   3.273   8.671 -0.0456  1.6460  0.5971
    8bbb     H4  209   8.460   3.263   8.690 -0.3842 -0.6560  1.0437
    8bbb     C3  210   8.266   3.542   8.666 -0.4011  0.2926 -0.4830
    8bbb     H5  211   8.256   3.570   8.560  1.3384  4.1431  0.1763
    8bbb     H6  212   8.286   3.642   8.707  1.9658 -0.8796  1.3930
    8bbb     C4  213   8.137   3.491   8.721  0.1522  0.2243 -0.4461
    8bbb     H7  214   8.138   3.478   8.830 -3.0751 -1.3064 -0.4800
    8bbb     H8  215   8.117   3.393   8.677  2.5025  0.9319 -3.3868
    8bbb     C5  216   8.476   3.609   8.880  0.3643  0.2545 -0.1839
    8bbb     H9  217   8.386   3.667   8.904  0.6605  0.5401  0.2400
    8bbb    H10  218   8.521   3.652   8.790  0.1759 -1.1042 -0.9563
    8bbb     C6  219   8.402   3.321   8.490  0.2212 -0.2438 -0.1405
    8bbb    H11  220   8.495   3.378   8.472 -0.0278  0.2561  0.1515
    8bbb    H12  221   8.316   3.373   8.447 -0.1747 -0.8065 -0.0319
    8bbb     C7  222   8.013   3.583   8.705  0.0113 -0.3960  0.5678
    8bbb    H13  223   8.022   3.666   8.776  1.0755  2.0174 -2.1812
    8bbb    H14  224   7.918   3.529   8.719  0.2833 -1.1528 -0.4293
    8bbb     C8  225   8.406   3.175   8.433 -0.1957 -0.2290 -0.1280
    8bbb    H15  226   8.469   3.104   8.488  0.8795  0.9443  0.1845
    8bbb    H16  227   8.447   3.178   8.332 -0.2978 -0.4295 -0.1760
    8bbb     C9  228   8.567   3.606   9.003  0.1706 -0.4201 -0.5433
    8bbb    H17  229   8.652   3.539   8.986  1.0513  0.9665 -1.7850
    8bbb    H18  230   8.507   3.565   9.086 -0.0554 -0.0055 -0.5018
    8bbb     O1  231   8.018   3.641   8.572  0.0669  0.3678  0.0788
    9bbb     N1  232   8.149   3.667   7.040  0.3851  0.3560  0.2123
    9bbb     C1  233   8.209   3.622   6.918  0.2492  0.4197  0.2564
    9bbb     H1  234   8.137   3.560   6.863  1.4916 -0.0004 -0.9553
    9bbb     H2  235   8.291   3.554   6.943 -1.8192 -2.9445 -1.3162
    9bbb     C2  236   8.116   3.556   7.130 -0.1832 -0.0445 -0.3705
    9bbb     H3  237   8.079   3.591   7.227  0.6019  2.1503 -0.8042
    9bbb     H4  238   8.210   3.510   7.162 -1.0721 -0.6457  1.5574
    9bbb     C3  239   8.205   3.781   7.106 -0.5539 -0.4891  0.4129
    9bbb     H5  240   8.146   3.811   7.194 -0.0910 -0.0868  0.5953
    9bbb     H6  241   8.207   3.867   7.037 -2.7805 -0.7658 -0.0797
    9bbb     C4  242   8.353   3.767   7.147  0.0291  1.3048  0.0937
    9bbb     H7  243   8.409   3.707   7.075  1.2741  0.6942  1.5032
    9bbb     H8  244   8.365   3.698   7.232 -2.2859 -1.1152 -1.4104
    9bbb     C5  245   8.249   3.740   6.818  0.2093  0.2918  0.1969
    9bbb     H9  246   8.340   3.795   6.842  1.6963 -0.4838 -3.1181
    9bbb    H10  247   8.165   3.810   6.816 -1.2385 -1.3869 -0.2993
    9bbb     C6  248   8.033   3.443   7.065 -0.0510  0.5060 -0.4003
    9bbb    H11  249   8.098   3.394   6.992  0.7558  0.3025  0.4346
    9bbb    H12  250   7.940   3.484   7.025 -0.3524 -0.5457 -0.8238
    9bbb     C7  251   8.421   3.904   7.177  0.5185  0.3551  0.3376
    9bbb    H13  252   8.421   3.971   7.091 -2.8246  0.1600  0.0467
    9bbb    H14  253   8.523   3.891   7.217  0.0812  1.0054  1.7312
    9bbb     C8  254   8.000   3.334   7.171 -0.2922  0.6592  0.1026
    9bbb    H15  255   7.956   3.382   7.260 -1.1577  2.8231 -1.4097
    9bbb    H16  256   8.086   3.276   7.206 -0.6572  1.6388  2.8969
    9bbb     C9  257   8.273   3.691   6.670  0.1296  0.0625 -0.2366
    9bbb    H17  258   8.315   3.773   6.611 -1.3805  0.8594 -0.2587
    9bbb    H18  259   8.175   3.668   6.626 -0.0671 -0.4910  0.4705
    9bbb     O1  260   8.340   3.962   7.282  0.6960 -0.1102 -0.1840
   10bbb     N1  261   7.918   4.270   7.194  0.3569  0.4693  0.1105
   10bbb     C1  262   7.981   4.244   7.068  0.3240  0.0438  0.1370
   10bbb     H1  263   8.015   4.343   7.034 -1.3845  0.4529 -0.4828
   10bbb     H2  264   7.906   4.228   6.990  1.0487 -1.1643 -0.3423
   10bbb     C2  265   7.842   4.147   7.244  0.4738 -0.4916  0.8773
   10bbb     H3  266   7.787   4.179   7.334 -1.5854  0.4111 -0.6090
   10bbb     H4  267   7.917   4.069   7.262  0.9184 -0.5058 -0.9266
   10bbb     C3  268   7.829   4.391   7.203  0.4080 -0.2441  0.3462
   10bbb     H5  269   7.774   4.396   7.297  0.4316 -0.4735  0.3727
   10bbb     H6  270   7.754   4.381   7.124 -0.0333  0.7851  0.6260
   10bbb     C4  271   7.905   4.523   7.176  0.7644 -0.0756 -0.5288
   10bbb     H7  272   7.838   4.610   7.184  1.9538  0.7296  1.1771
   10bbb     H8  273   7.942   4.527   7.073 -1.5450 -1.2388 -1.4949
   10bbb     C5  274   8.099   4.134   7.074  0.3719 -0.5190 -0.5984
   10bbb     H9  275   8.053   4.036   7.064 -0.9430  0.1990 -1.9713
   10bbb    H10  276   8.161   4.131   7.165  2.7183  0.2333 -2.0940
   10bbb     C6  277   7.733   4.093   7.150  0.4923 -0.4685  0.1646
   10bbb    H11  278   7.777   4.045   7.062  0.0010 -0.0462 -0.3175
   10bbb    H12  279   7.659   4.166   7.117 -0.0421 -0.0191  2.2306
   10bbb     C7  280   8.033   4.549   7.262 -0.1676 -0.3307  0.4993
   10bbb    H13  281   8.087   4.633   7.216 -0.7829 -0.2754 -0.1424
   10bbb    H14  282   8.098   4.460   7.258  0.1474 -0.5128  5.0099
   10bbb     C8  283   7.642   3.988   7.215 -0.2679 -0.4002 -1.3065
   10bbb    H15  284   7.709   3.924   7.273  3.4862  3.0464 -1.3828
   10bbb    H16  285   7.599   3.934   7.130  0.1165 -1.4453 -0.8443
   10bbb     C9  286   8.181   4.142   6.950 -0.3550  0.7375 -0.3402
   10bbb    H17  287   8.128   4.103   6.862  0.1947 -0.1620 -0.2881
   10bbb    H18  288   8.259   4.067   6.968 -2.1764 -0.9518  1.0339
   10bbb     O1  289   8.001   4.575   7.404  0.5032  0.0122  0.4425
   11bbb     N1  290   8.031   2.104   8.816 -0.6052  0.4187 -0.2600
   11bbb     C1  291   7.896   2.150   8.861 -0.1570 -0.4133  0.0247
   11bbb     H1  292   7.901   2.163   8.970 -0.8894 -0.9249  0.1221
   11bbb     H2  293   7.820   2.072   8.851 -1.7514  0.7533  2.1907
   11bbb     C2  294   8.039   1.961   8.850  0.2270  0.3337  0.3955
   11bbb     H3  295   8.136   1.920   8.819 -0.0071  0.7263 -0.8996
   11bbb     H4  296   7.964   1.908   8.791 -0.5908  0.7657  1.0216
   11bbb     C3  297   8.143   2.190   8.864  0.2821  0.6134  0.7163
   11bbb     H5  298   8.162   2.178   8.972  2.1564  1.6260  0.5341
   11bbb     H6  299   8.122   2.297   8.860 -0.5953  0.4347  0.3410
   11bbb     C4  300   8.274   2.156   8.789 -0.3364 -0.2307 -0.3311
   11bbb     H7  301   8.256   2.088   8.705 -1.3215 -1.9987  1.2630
   11bbb     H8  302   8.347   2.116   8.860 -0.9149  1.5082  1.3355
   11bbb     C5  303   7.847   2.279   8.783  0.3001  0.4847 -0.2911
   11bbb     H9  304   7.846   2.256   8.676 -0.0973 -0.8253 -0.0174
   11bbb    H10  305   7.913   2.366   8.795 -0.9860  1.4047  0.4819
   11bbb     C6  306   8.031   1.923   9.003  1.3850 -0.5182 -0.0897
   11bbb    H11  307   7.926   1.940   9.031  0.8658  1.2849 -2.8184
   11bbb    H12  308   8.092   1.989   9.065 -1.4760  2.9079 -0.6001
   11bbb     C7  309   8.333   2.289   8.738 -0.3486  0.0227  0.1479
   11bbb    H13  310   8.349   2.346   8.830 -0.1553 -0.0220  0.1421
   11bbb    H14  311   8.250   2.333   8.681  0.5044  0.2134 -0.9648
   11bbb     C8  312   8.078   1.786   9.034  0.2164  0.9037  0.5697
   11bbb    H15  313   8.095   1.764   9.140  1.9310 -1.7370 -0.1695
   11bbb    H16  314   8.177   1.771   8.990  0.6213  0.4998  1.5842
   11bbb     C9  315   7.703   2.307   8.837 -0.2409  0.4108 -0.6349
   11bbb    H17  316   7.699   2.272   8.941  0.4474  2.6045  0.1966
   11bbb    H18  317   7.639   2.255   8.765 -1.4490  1.8798 -0.6726
   11bbb     O1  318   8.457   2.256   8.670  0.2028  0.2468 -0.7508
   12bbb     N1  319   9.629   2.184   8.884  0.1981 -0.2127  0.6112
   12bbb     C1  320   9.748   2.174   8.971 -0.1610 -1.0971  0.0051
   12bbb     H1  321   9.824   2.121   8.911 -0.1330 -1.6448  0.5125
   12bbb     H2  322   9.727   2.118   9.063 -0.1021  1.5572  1.7454
   12bbb     C2  323   9.599   2.065   8.802  0.8385  0.8178  0.0983
   12bbb     H3  324   9.500   2.076   8.757  0.7459  3.3311  0.8008
   12bbb     H4  325   9.592   1.975   8.865  1.2326  0.2214 -0.6962
   12bbb     C3  326   9.508   2.250   8.935  0.0199  0.2769 -0.5701
   12bbb     H5  327   9.430   2.252   8.858 -1.2489 -2.4086  0.5202
   12bbb     H6  328   9.531   2.346   8.983 -1.8573 -0.4584  2.0085
   12bbb     C4  329   9.430   2.173   9.041  0.0388 -0.0826 -0.5787
   12bbb     H7  330   9.505   2.147   9.116  2.1876 -0.8648 -2.8714
   12bbb     H8  331   9.382   2.078   9.014 -3.1752  0.2647  3.1645
   12bbb     C5  332   9.821   2.313   9.011  0.9853 -0.0552 -0.4007
   12bbb     H9  333   9.741   2.367   9.064  1.5455  0.3640  0.0371
   12bbb    H10  334   9.841   2.367   8.917 -0.5503 -0.3727 -0.9372
   12bbb     C6  335   9.700   2.023   8.691 -0.4003 -0.0786  0.6951
   12bbb    H11  336   9.788   1.981   8.741  0.4346 -2.7098 -2.6242
   12bbb    H12  337   9.725   2.118   8.641  0.2445 -0.0366  1.0900
   12bbb     C7  338   9.321   2.270   9.100 -0.1806 -0.2610 -0.8460
   12bbb    H13  339   9.376   2.360   9.129  0.3066 -0.4874 -1.0469
   12bbb    H14  340   9.273   2.228   9.189 -3.8733  0.7929 -2.1566
   12bbb     C8  341   9.642   1.916   8.599  0.2417  0.0601  0.5169
   12bbb    H15  342   9.542   1.952   8.572  0.1441  1.5969  2.6680
   12bbb    H16  343   9.627   1.826   8.660 -0.7010  0.1985  0.5047
   12bbb     C9  344   9.946   2.296   9.098 -0.2465  0.3018  0.5838
   12bbb    H17  345  10.023   2.237   9.046  0.1562  0.9012  0.4828
   12bbb    H18  346   9.931   2.242   9.192  1.5415 -0.1529  0.6581
   12bbb     O1  347   9.223   2.300   9.000 -0.1170 -0.1156  0.2684
   13bbb     N1  348   8.448   2.815   7.228  0.0831 -0.3589 -0.1899
   13bbb     C1  349   8.297   2.783   7.235 -0.1058  0.0310 -0.5267
   13bbb     H1  350   8.273   2.696   7.173  2.5388 -0.5405 -0.8556
   13bbb     H2  351   8.244   2.871   7.197 -2.2923 -1.2267 -0.5400
   13bbb     C2  352   8.489   2.817   7.083 -0.2106 -0.1403  0.3553
   13bbb     H3  353   8.480   2.714   7.047  0.0635 -0.2922  0.7058
   13bbb     H4  354   8.595   2.843   7.069  0.1101 -0.6965  1.5785
   13bbb     C3  355   8.523   2.713   7.316  0.3138  0.4386  0.2387
   13bbb     H5  356   8.509   2.618   7.262 -1.6709  1.9726 -2.1218
   13bbb     H6  357   8.477   2.695   7.414  0.2371  0.5235  0.2181
   13bbb     C4  358   8.674   2.754   7.337 -0.0137 -0.0358  0.1922
   13bbb     H7  359   8.684   2.853   7.383 -1.4431  1.1230 -1.8269
   13bbb     H8  360   8.711   2.764   7.234 -1.8690 -2.1319 -0.7700
   13bbb     C5  361   8.237   2.772   7.377 -0.3921 -0.0798 -0.3683
   13bbb     H9  362   8.286   2.853   7.433  2.9295 -1.1672 -1.4831
   13bbb    H10  363   8.261   2.679   7.429 -2.0058 -0.8767 -0.9912
   13bbb     C6  364   8.398   2.895   6.987 -0.7251 -0.0500  1.0930
   13bbb    H11  365   8.297   2.852   6.975 -0.8294  0.5247 -0.3428
   13bbb    H12  366   8.431   2.884   6.883 -2.3158 -0.0565  0.5568
   13bbb     C7  367   8.755   2.652   7.423 -0.1083 -0.9225  0.2521
   13bbb    H13  368   8.859   2.688   7.417  0.1860 -1.9685 -4.2305
   13bbb    H14  369   8.759   2.549   7.385 -0.6980 -1.8211  2.4964
   13bbb     C8  370   8.409   3.049   7.004  0.5666  0.5201 -0.3489
   13bbb    H15  371   8.514   3.076   7.022  0.7053 -0.0745 -0.2511
   13bbb    H16  372   8.351   3.075   7.094 -1.0706 -1.5074 -0.7412
   13bbb     C9  373   8.084   2.793   7.378  0.4730  0.1859  0.2519
   13bbb    H17  374   8.060   2.891   7.334 -0.2114  0.8548  2.0067
   13bbb    H18  375   8.060   2.797   7.485  0.9718 -0.8436  0.4086
   13bbb     O1  376   8.704   2.650   7.554  0.4181  0.4985 -0.1149
   14bbb     N1  377   9.596   2.163   7.726 -0.1131  0.8786  0.7554
   14bbb     C1  378   9.716   2.087   7.779 -0.6387  0.2596 -0.2443
   14bbb     H1  379   9.745   2.129   7.876 -1.8062 -0.2976  0.3673
   14bbb     H2  380   9.809   2.102   7.722 -0.9773  0.0842 -0.8614
   14bbb     C2  381   9.577   2.138   7.583  0.3106  0.1494 -0.2696
   14bbb     H3  382   9.525   2.042   7.569  3.7410 -1.8790 -0.4296
   14bbb     H4  383   9.670   2.138   7.523  0.6273  0.6727  0.2131
   14bbb     C3  384   9.467   2.173   7.806  0.4143  0.2796  0.1175
   14bbb     H5  385   9.402   2.085   7.793  0.9696  0.0613 -1.3575
   14bbb     H6  386   9.415   2.261   7.767  0.3675  0.2764  0.1739
   14bbb     C4  387   9.470   2.185   7.960 -0.1195  1.0029  0.4710
   14bbb     H7  388   9.515   2.283   7.983  3.2347  0.4581 -2.7990
   14bbb     H8  389   9.543   2.117   8.006 -3.8404 -2.6608  1.5755
   14bbb     C5  390   9.706   1.933   7.772 -0.6912 -0.1915 -0.1182
   14bbb     H9  391   9.797   1.883   7.807 -1.3765 -2.1268 -0.9569
   14bbb    H10  392   9.703   1.910   7.665 -0.6120  1.9711 -0.6412
   14bbb     C6  393   9.492   2.243   7.505  0.1073 -0.3060  0.5124
   14bbb    H11  394   9.541   2.341   7.513  0.8689 -0.7320  1.1912
   14bbb    H12  395   9.394   2.263   7.551  1.5421  1.9204  2.8638
   14bbb     C7  396   9.343   2.137   8.027  0.4643  0.6983  0.1628
   14bbb    H13  397   9.353   2.151   8.136  1.0793 -2.2732  0.5730
   14bbb    H14  398   9.324   2.034   7.993 -2.1718  1.5247 -1.1012
   14bbb     C8  399   9.480   2.206   7.351  0.7366 -0.4577 -0.1702
   14bbb    H15  400   9.417   2.274   7.293  0.0594 -1.3437 -0.4949
   14bbb    H16  401   9.437   2.105   7.343 -1.1026  0.1124  1.6497
   14bbb     C9  402   9.586   1.881   7.854 -0.0233  0.4272  0.2776
   14bbb    H17  403   9.497   1.910   7.797  1.0912 -0.9206 -2.3344
   14bbb    H18  404   9.574   1.926   7.953  0.7933 -0.3088  0.7283
   14bbb     O1  405   9.237   2.217   7.975  0.0365  0.5280  0.9432
   15bbb     N1  406   6.977   4.256   8.124  0.1511  0.1984  0.0326
   15bbb     C1  407   6.997   4.115   8.090  0.0572  0.2354  0.5197
   15bbb     H1  408   6.900   4.064   8.094  1.0987 -1.8129  3.4683
   15bbb     H2  409   7.057   4.064   8.166 -1.8916 -0.5733  1.5851
   15bbb     C2  410   6.914   4.257   8.264 -0.0545  0.0436  0.4947
   15bbb     H3  411   6.931   4.351   8.318 -0.9498  1.8260 -2.0891
   15bbb     H4  412   6.968   4.187   8.329  1.4399  2.3131  1.8128
   15bbb     C3  413   7.078   4.368   8.091 -0.9721  0.5723  0.0206
   15bbb     H5  414   7.042   4.469   8.110 -0.1942  0.4694  2.3138
   15bbb     H6  415   7.104   4.365   7.984  1.3920  1.7040  0.4934
   15bbb     C4  416   7.216   4.344   8.176  0.0187  0.1568 -0.0654
   15bbb     H7  417   7.261   4.248   8.150 -1.6971 -0.3672 -1.3310
   15bbb     H8  418   7.203   4.334   8.284 -0.7758  1.5506  0.0019
   15bbb     C5  419   7.060   4.082   7.954  0.1706  0.7997  0.2143
   15bbb     H9  420   7.153   4.138   7.939  0.3609  0.2600 -0.6663
   15bbb    H10  421   6.996   4.122   7.874  2.8666 -1.8586 -3.6072
   15bbb     C6  422   6.767   4.223   8.271 -0.6587  0.5244 -0.0415
   15bbb    H11  423   6.732   4.154   8.192 -0.4981  0.2565  0.1195
   15bbb    H12  424   6.713   4.313   8.240 -1.9805  0.1878  1.1910
   15bbb     C7  425   7.302   4.467   8.166 -0.4333  0.2238 -0.1114
   15bbb    H13  426   7.370   4.480   8.251 -0.2831 -0.4711 -0.1213
   15bbb    H14  427   7.237   4.554   8.179  0.5032  0.9118  0.0868
   15bbb     C8  428   6.726   4.170   8.409  0.5134  0.4596 -0.3056
   15bbb    H15  429   6.780   4.079   8.441 -1.6738 -1.4360 -1.6684
   15bbb    H16  430   6.623   4.134   8.399  0.6515  0.5871 -2.9875
   15bbb     C9  431   7.091   3.924   7.928 -0.3925 -0.7962 -0.6995
   15bbb    H17  432   6.996   3.884   7.966 -0.8312  1.9989  1.4687
   15bbb    H18  433   7.167   3.895   8.001 -2.5368  2.0171  3.0403
   15bbb     O1  434   7.367   4.483   8.043  0.0428 -0.1879  0.8194
   16bbb     N1  435   8.244   5.071   7.949 -0.6609  0.8551 -0.2072
   16bbb     C1  436   8.197   5.134   7.827  1.1381  0.3012 -0.2910
   16bbb     H1  437   8.107   5.193   7.846 -0.0900 -1.4553 -0.4578
   16bbb     H2  438   8.165   5.060   7.753 -0.9916  1.2784 -0.4100
   16bbb     C2  439   8.256   5.168   8.061  0.2589  0.5785 -0.1781
   16bbb     H3  440   8.160   5.209   8.095  1.7833  1.7010  3.2696
   16bbb     H4  441   8.318   5.248   8.018  1.5449 -0.7260 -0.8314
   16bbb     C3  442   8.171   4.944   7.985 -0.1719 -0.1987 -0.3255
   16bbb     H5  443   8.065   4.974   7.987  0.2544  1.4079  1.1935
   16bbb     H6  444   8.182   4.898   8.084 -2.0578 -0.1831 -0.0657
   16bbb     C4  445   8.196   4.825   7.886 -0.3980 -0.0968 -0.5006
   16bbb     H7  446   8.304   4.809   7.873 -0.3307 -1.6816  1.4773
   16bbb     H8  447   8.172   4.840   7.780  1.5162 -0.0769 -0.9694
   16bbb     C5  448   8.285   5.240   7.749  0.3241  0.0493 -0.2088
   16bbb     H9  449   8.374   5.199   7.700  0.5394  0.1866  0.0629
   16bbb    H10  450   8.326   5.317   7.816  2.6016 -1.0834 -0.1832
   16bbb     C6  451   8.338   5.111   8.182  0.6506 -0.8038  0.2799
   16bbb    H11  452   8.390   5.026   8.137  0.3072 -0.8870  0.0284
   16bbb    H12  453   8.277   5.069   8.263  0.6837 -1.4448 -0.0229
   16bbb     C7  454   8.146   4.694   7.946 -0.4219 -0.6663  0.1577
   16bbb    H13  455   8.202   4.666   8.036  1.4683 -0.1431 -0.8009
   16bbb    H14  456   8.152   4.621   7.865 -0.3013  1.0461 -1.4376
   16bbb     C8  457   8.446   5.202   8.249  0.5043  0.2878  0.2578
   16bbb    H15  458   8.410   5.292   8.301  0.1022  0.2074  0.1230
   16bbb    H16  459   8.512   5.243   8.171 -0.6965  3.2105  0.6283
   16bbb     C9  460   8.196   5.304   7.635  0.6930 -0.2703 -0.3607
   16bbb    H17  461   8.132   5.382   7.678 -0.1534 -0.9077 -0.4355
   16bbb    H18  462   8.118   5.238   7.595  1.5241  0.1122 -2.7974
   16bbb     O1  463   8.009   4.721   7.974 -0.7360  0.3350 -0.0105
   17bbb     N1  464   8.338   2.789   8.687  0.0263  0.8789  0.3741
   17bbb     C1  465   8.293   2.652   8.646  0.7408  1.1692  0.1769
   17bbb     H1  466   8.313   2.586   8.732  0.7320  1.4323  0.3818
   17bbb     H2  467   8.347   2.602   8.565  0.7084  2.1452 -0.4643
   17bbb     C2  468   8.488   2.798   8.706  0.2904  0.3060 -0.4299
   17bbb     H3  469   8.515   2.898   8.743 -0.0760 -0.9701  3.8120
   17bbb     H4  470   8.538   2.776   8.611  0.6995 -0.6931  0.0079
   17bbb     C3  471   8.284   2.902   8.603  0.3918 -0.3442  0.1185
   17bbb     H5  472   8.321   3.000   8.636 -0.2733  0.3281 -1.0571
   17bbb     H6  473   8.174   2.903   8.613  0.4014  0.6494  0.2788
   17bbb     C4  474   8.322   2.895   8.457  0.0163 -0.4209 -0.0041
   17bbb     H7  475   8.302   2.790   8.430 -0.2777 -0.4426  0.2972
   17bbb     H8  476   8.430   2.911   8.449 -0.1975  1.6417  0.7209
   17bbb     C5  477   8.145   2.642   8.612 -0.3826  0.2624  0.4284
   17bbb     H9  478   8.119   2.543   8.574 -3.4011  1.4779 -0.9996
   17bbb    H10  479   8.110   2.711   8.535  1.4285  0.0362 -0.6592
   17bbb     C6  480   8.545   2.696   8.805  0.4583 -0.7014 -0.0210
   17bbb    H11  481   8.653   2.710   8.817  0.1108  0.6936  2.0180
   17bbb    H12  482   8.517   2.594   8.775  1.4425 -0.4930 -1.7999
   17bbb     C7  483   8.240   2.997   8.369 -0.5279  0.1859 -0.0035
   17bbb    H13  484   8.133   2.974   8.363 -1.2292  2.0170  3.2106
   17bbb    H14  485   8.286   2.981   8.271 -1.0606 -0.1163 -0.2088
   17bbb     C8  486   8.491   2.731   8.945 -0.0786 -0.0292  0.8462
   17bbb    H15  487   8.385   2.709   8.930 -0.0294  1.5851 -2.8599
   17bbb    H16  488   8.498   2.839   8.965 -0.7248  0.0022  0.9210
   17bbb     C9  489   8.061   2.677   8.737 -0.3482 -0.0551  1.2414
   17bbb    H17  490   7.959   2.702   8.705  0.4262  0.7060 -0.8058
   17bbb    H18  491   8.094   2.774   8.777  0.7009  0.4702 -0.7813
   17bbb     O1  492   8.262   3.130   8.429  0.3011  0.2115 -0.2415
   18bbb     N1  493   8.984   3.995   9.248 -0.0850  0.2596  0.3247
   18bbb     C1  494   8.910   4.117   9.290  0.0213  0.0138  0.1641
   18bbb     H1  495   8.840   4.153   9.213  0.7549  1.3668  0.1060
   18bbb     H2  496   8.982   4.199   9.300 -1.1469  0.7200  4.5657
   18bbb     C2  497   9.109   3.970   9.322 -0.0584 -0.0277  0.4851
   18bbb     H3  498   9.155   3.872   9.303 -1.0519 -0.1463 -1.6132
   18bbb     H4  499   9.092   3.988   9.429  1.3286  0.7084  0.5951
   18bbb     C3  500   8.902   3.866   9.243  0.3554  0.4377  0.1577
   18bbb     H5  501   8.862   3.843   9.343  1.4472  0.4709  0.6166
   18bbb     H6  502   8.959   3.776   9.217 -1.2851 -0.5254 -0.2421
   18bbb     C4  503   8.779   3.877   9.152 -0.0842  0.1412  0.8314
   18bbb     H7  504   8.804   3.922   9.055 -1.0399  0.8969  0.9194
   18bbb     H8  505   8.707   3.945   9.198  0.4957  0.5994  1.0841
   18bbb     C5  506   8.847   4.119   9.428 -0.0100 -0.0136 -0.4034
   18bbb     H9  507   8.920   4.084   9.503  0.5103  0.7300 -0.5526
   18bbb    H10  508   8.776   4.036   9.420  0.3963 -0.3438 -0.6231
   18bbb     C6  509   9.224   4.067   9.287 -0.3694 -1.0558  0.3010
   18bbb    H11  510   9.191   4.163   9.245  0.1176 -1.0384 -0.0473
   18bbb    H12  511   9.283   4.016   9.211 -0.7394 -1.3937  0.2394
   18bbb     C7  512   8.734   3.732   9.120  0.5346 -0.4826  0.2737
   18bbb    H13  513   8.709   3.680   9.213 -0.0185 -0.5331  0.0978
   18bbb    H14  514   8.818   3.674   9.080  0.0972 -0.3785 -0.8411
   18bbb     C8  515   9.317   4.094   9.413  0.5412 -0.1801  0.1520
   18bbb    H15  516   9.369   4.002   9.442  2.4884  1.0030  0.5515
   18bbb    H16  517   9.245   4.103   9.496  0.7386 -1.4935  0.5016
   18bbb     C9  518   8.771   4.257   9.457 -0.1938 -0.4408  0.6780
   18bbb    H17  519   8.715   4.291   9.369  1.8530  0.0476 -0.5110
   18bbb    H18  520   8.854   4.326   9.478 -0.7205  0.2271  0.6076
   18bbb     O1  521   8.617   3.734   9.035 -0.5145 -0.4374  0.1141
   19bbb     N1  522   7.617   3.025   6.875  0.3245  0.6977 -0.2967
   19bbb     C1  523   7.567   2.882   6.886  0.0680 -0.0790 -0.3180
   19bbb     H1  524   7.461   2.881   6.858  0.1504  0.2568 -0.6621
   19bbb     H2  525   7.578   2.845   6.988 -1.0917 -1.4828 -0.6673
   19bbb     C2  526   7.622   3.070   6.730 -0.2628 -0.0843 -0.4573
   19bbb     H3  527   7.696   3.009   6.676 -0.5543 -0.9447  0.1063
   19bbb     H4  528   7.641   3.178   6.720 -0.7900  0.0912  0.3297
   19bbb     C3  529   7.748   3.051   6.939 -0.7394 -0.4162  0.5260
   19bbb     H5  530   7.776   3.153   6.912  1.2532 -0.7482  1.1925
   19bbb     H6  531   7.828   2.989   6.896 -0.9112 -0.0933 -0.2701
   19bbb     C4  532   7.742   3.051   7.092 -0.1594  0.7473 -0.2117
   19bbb     H7  533   7.707   2.959   7.142  1.1961  0.4137  0.1693
   19bbb     H8  534   7.658   3.117   7.116 -1.0332 -1.1022  2.2608
   19bbb     C5  535   7.623   2.773   6.786  0.4985  0.2096 -0.0967
   19bbb     H9  536   7.731   2.788   6.776  0.4996  2.2554  2.0912
   19bbb    H10  537   7.580   2.790   6.687  2.6657  1.6676 -0.8751
   19bbb     C6  538   7.478   3.060   6.663  0.4858 -0.0436 -0.5604
   19bbb    H11  539   7.403   3.102   6.731 -0.2461  0.9582 -1.9367
   19bbb    H12  540   7.449   2.955   6.654 -0.0336  0.0334  0.1181
   19bbb     C7  541   7.876   3.106   7.159 -0.1542 -0.1722  0.0417
   19bbb    H13  542   7.952   3.033   7.128  2.1495  2.6945 -1.5344
   19bbb    H14  543   7.860   3.113   7.267 -0.8705  1.5664 -0.1426
   19bbb     C8  544   7.475   3.126   6.525 -0.1050 -0.2304  0.8603
   19bbb    H15  545   7.490   3.234   6.529  1.3101 -0.3560 -0.2888
   19bbb    H16  546   7.381   3.115   6.471  1.2382  1.5498 -2.0752
   19bbb     C9  547   7.582   2.628   6.823 -0.0798  0.6760  0.0412
   19bbb    H17  548   7.499   2.608   6.754  0.1703  0.0153 -0.0707
   19bbb    H18  549   7.565   2.624   6.931  1.8982 -1.3321  0.3486
   19bbb     O1  550   7.907   3.240   7.106  0.7520 -0.5920 -0.0877
   20bbb     N1  551   8.418   3.499   6.223  0.1809 -0.0224  0.4353
   20bbb     C1  552   8.449   3.431   6.099  1.0274 -0.1226  1.7830
   20bbb     H1  553   8.539   3.464   6.046  0.8534 -1.2199  0.7529
   20bbb     H2  554   8.363   3.444   6.032  1.7590  2.7787  1.2538
   20bbb     C2  555   8.339   3.626   6.187 -0.0736 -0.0149 -0.3919
   20bbb     H3  556   8.304   3.666   6.283 -0.5576  0.5532 -0.7954
   20bbb     H4  557   8.241   3.614   6.138 -1.0006  1.4050  1.0022
   20bbb     C3  558   8.523   3.505   6.323  0.0492  0.9501  0.1552
   20bbb     H5  559   8.604   3.556   6.271  0.9915  0.3592  1.0086
   20bbb     H6  560   8.561   3.404   6.344  1.9070  1.2989 -1.3219
   20bbb     C4  561   8.490   3.580   6.452  0.2888  0.4725  0.1818
   20bbb     H7  562   8.446   3.676   6.423 -0.1980 -0.1672 -1.2714
   20bbb     H8  563   8.578   3.594   6.516  0.2511  0.7920  0.1626
   20bbb     C5  564   8.479   3.285   6.118  0.0502 -0.5584  0.4555
   20bbb     H9  565   8.392   3.241   6.168 -1.1069  1.3279  0.1914
   20bbb    H10  566   8.568   3.289   6.183  0.5588  0.0503 -0.2676
   20bbb     C6  567   8.427   3.726   6.120 -0.0981  0.3214  0.3730
   20bbb    H11  568   8.461   3.684   6.024 -1.1698 -0.8956  0.5117
   20bbb    H12  569   8.521   3.740   6.176  1.6876 -1.0772 -2.0952
   20bbb     C7  570   8.387   3.509   6.529 -0.1793  0.8098 -0.4544
   20bbb    H13  571   8.394   3.400   6.537  0.7906  0.8906 -0.1086
   20bbb    H14  572   8.290   3.515   6.477 -0.2172 -0.5835 -0.5726
   20bbb     C8  573   8.358   3.859   6.095 -0.2384 -0.2711 -0.0847
   20bbb    H15  574   8.345   3.916   6.188  1.7186 -0.0790  0.1035
   20bbb    H16  575   8.260   3.843   6.047  0.0803  1.0648 -1.2388
   20bbb     C9  576   8.500   3.225   5.979 -0.1090  0.4534  0.1148
   20bbb    H17  577   8.581   3.269   5.920 -0.6269  0.1392 -0.8464
   20bbb    H18  578   8.410   3.216   5.917  0.7043 -3.6700 -0.8272
   20bbb     O1  579   8.359   3.576   6.663  0.2218  0.4035 -0.5681
   21bbb     N1  580   7.326   4.237   7.570 -0.8236  0.3810 -0.7105
   21bbb     C1  581   7.196   4.308   7.606  0.9456 -0.3982 -0.0453
   21bbb     H1  582   7.120   4.248   7.656 -0.3781 -0.0147 -1.5081
   21bbb     H2  583   7.148   4.347   7.515  2.0812 -1.9199 -1.3512
   21bbb     C2  584   7.449   4.313   7.531  0.1875 -0.0500  0.4685
   21bbb     H3  585   7.539   4.250   7.534  1.3003  1.5039  1.4666
   21bbb     H4  586   7.462   4.399   7.598  0.0369  2.1695 -2.1585
   21bbb     C3  587   7.294   4.113   7.491  0.6162 -0.4845  0.7845
   21bbb     H5  588   7.277   4.132   7.385 -0.5802  0.4017  1.1194
   21bbb     H6  589   7.199   4.079   7.534  1.3902 -0.5680  2.5189
   21bbb     C4  590   7.400   4.005   7.506  0.5162  0.4108  0.3460
   21bbb     H7  591   7.365   3.918   7.563 -0.0815  0.0504 -0.5554
   21bbb     H8  592   7.478   4.042   7.574 -0.2220  3.0690 -0.1296
   21bbb     C5  593   7.227   4.437   7.688  0.1751  0.1796  0.4297
   21bbb     H9  594   7.295   4.506   7.636 -1.4360  0.5733 -1.2465
   21bbb    H10  595   7.273   4.396   7.779 -2.2448 -0.6303  1.3576
   21bbb     C6  596   7.442   4.373   7.386  0.3185  0.5343  0.4427
   21bbb    H11  597   7.410   4.289   7.324 -0.7081 -0.6676  2.5108
   21bbb    H12  598   7.544   4.398   7.351 -0.7187  1.7998 -1.9168
   21bbb     C7  599   7.468   3.949   7.378  0.0438  1.1655  0.6682
   21bbb    H13  600   7.392   3.903   7.314 -1.1256  1.0387  2.1035
   21bbb    H14  601   7.533   3.863   7.400 -1.2868 -0.5723 -1.7623
   21bbb     C8  602   7.354   4.501   7.363 -0.1163  0.7633 -0.0250
   21bbb    H15  603   7.252   4.482   7.398  0.5818  0.7505  2.1730
   21bbb    H16  604   7.356   4.532   7.258  1.6161  1.9786  0.3166
   21bbb     C9  605   7.100   4.515   7.728  0.1294 -0.0851 -0.4907
   21bbb    H17  606   7.125   4.608   7.781 -0.0344  0.4990 -1.4143
   21bbb    H18  607   7.027   4.447   7.774 -0.5397  1.0635  0.1939
   21bbb     O1  608   7.536   4.046   7.297  0.2323 -0.0142 -0.4832
   22bbb     N1  609   8.450   4.589   6.752 -0.4549  0.0201 -0.1590
   22bbb     C1  610   8.485   4.583   6.605 -0.4111  0.7596  0.0313
   22bbb     H1  611   8.546   4.495   6.581 -1.1429  0.3213 -0.2290
   22bbb     H2  612   8.550   4.666   6.575  0.2284  0.2172 -0.1267
   22bbb     C2  613   8.549   4.674   6.819 -0.0447 -0.0279 -0.2999
   22bbb     H3  614   8.651   4.632   6.811  0.0180  0.1538 -0.4531
   22bbb     H4  615   8.524   4.676   6.926  0.1847 -0.4218 -0.2340
   22bbb     C3  616   8.409   4.465   6.812  0.1612  0.0895 -1.0855
   22bbb     H5  617   8.485   4.389   6.792  0.0638  0.0206 -1.1952
   22bbb     H6  618   8.317   4.430   6.765  0.3364 -2.8440  0.5691
   22bbb     C4  619   8.371   4.465   6.962  0.2529  0.2303  0.9902
   22bbb     H7  620   8.287   4.536   6.963  0.2075  0.1719  1.6726
   22bbb     H8  621   8.453   4.502   7.025  0.4598  0.7549  0.4235
   22bbb     C5  622   8.365   4.580   6.508  0.5000 -0.9644 -0.2044
   22bbb     H9  623   8.284   4.512   6.537 -0.7325  0.5548  0.0096
   22bbb    H10  624   8.406   4.528   6.420  0.0722 -1.1018 -0.3263
   22bbb     C6  625   8.561   4.827   6.776 -0.5250  0.1238  0.0632
   22bbb    H11  626   8.468   4.884   6.786 -0.1454  0.7231  0.2285
   22bbb    H12  627   8.578   4.845   6.669 -2.0549  0.7855 -0.0864
   22bbb     C7  628   8.325   4.326   7.014 -0.6166  0.4912  1.0710
   22bbb    H13  629   8.277   4.332   7.112 -1.7640 -0.5537  0.6043
   22bbb    H14  630   8.408   4.254   7.018 -2.5838 -1.8757  1.4265
   22bbb     C8  631   8.668   4.890   6.869  0.0352 -0.0123  0.1320
   22bbb    H15  632   8.765   4.838   6.865  0.1139  0.0042  1.4577
   22bbb    H16  633   8.633   4.874   6.971  3.3825 -3.7768  0.9558
   22bbb     C9  634   8.309   4.722   6.450 -0.4041  0.2331 -0.3510
   22bbb    H17  635   8.263   4.794   6.518 -1.8723 -0.5611 -0.4692
   22bbb    H18  636   8.227   4.695   6.383 -1.0285  0.1262  0.4521
   22bbb     O1  637   8.231   4.270   6.920  0.7321 -0.1217 -0.0475
   23bbb     N1  638   7.684   1.480   8.816  0.8442  0.9358 -0.3921
   23bbb     C1  639   7.666   1.325   8.800  0.2483 -0.5464  0.0945
   23bbb     H1  640   7.568   1.286   8.831  1.0753 -0.2112  3.5489
   23bbb     H2  641   7.747   1.266   8.846  0.2867 -1.5524 -1.2230
   23bbb     C2  642   7.562   1.558   8.795  0.3106 -0.3050  0.0739
   23bbb     H3  643   7.518   1.539   8.696 -1.7063  4.1168 -0.1148
   23bbb     H4  644   7.591   1.661   8.771  0.1263 -0.5562 -1.3063
   23bbb     C3  645   7.766   1.518   8.935 -0.6623  0.1813  0.2459
   23bbb     H5  646   7.735   1.455   9.019  0.6237 -3.2132 -1.6078
   23bbb     H6  647   7.750   1.622   8.965 -0.1324  0.1664  0.5869
   23bbb     C4  648   7.915   1.480   8.912  0.5589  0.6220  0.4664
   23bbb     H7  649   7.939   1.509   8.810  2.4025 -0.5856  0.5177
   23bbb     H8  650   7.937   1.372   8.910 -0.1482  0.4699  0.3194
   23bbb     C5  651   7.674   1.303   8.644 -0.2356  0.6612  0.2259
   23bbb     H9  652   7.603   1.373   8.598  0.2949  1.6810  0.9438
   23bbb    H10  653   7.639   1.201   8.624 -0.6918  0.5959  1.3141
   23bbb     C6  654   7.452   1.556   8.904  0.6948 -0.0932  0.8812
   23bbb    H11  655   7.500   1.586   8.998 -0.8618  0.6544  1.4722
   23bbb    H12  656   7.388   1.468   8.915 -0.2939  0.4164 -0.4802
   23bbb     C7  657   8.015   1.552   8.992 -0.1343  0.1672 -1.1037
   23bbb    H13  658   8.119   1.527   8.967  0.0245 -0.4846  0.1431
   23bbb    H14  659   7.990   1.524   9.095  0.7542  2.2902 -0.2368
   23bbb     C8  660   7.356   1.666   8.861  0.2218  0.0953 -1.0611
   23bbb    H15  661   7.327   1.651   8.757 -2.7275  1.1122 -0.4833
   23bbb    H16  662   7.405   1.764   8.871  0.7309 -0.2003 -0.6183
   23bbb     C9  663   7.811   1.322   8.581  0.6052 -0.1459 -0.0587
   23bbb    H17  664   7.884   1.245   8.607 -0.2132 -2.2623 -3.3884
   23bbb    H18  665   7.856   1.418   8.610 -1.2099  0.3162  1.4041
   23bbb     O1  666   7.984   1.691   8.981  0.5033  0.1390  0.5830
   24bbb     N1  667   7.630   2.766   9.142 -0.2892  0.1249 -0.1359
   24bbb     C1  668   7.497   2.824   9.173 -0.4739 -0.2545  0.4968
   24bbb     H1  669   7.436   2.741   9.208  0.4347 -0.6632  1.1374
   24bbb     H2  670   7.459   2.869   9.080  1.2771  1.5323  0.5774
   24bbb     C2  671   7.733   2.861   9.108 -0.5454  0.2609 -0.1370
   24bbb     H3  672   7.827   2.818   9.071 -1.1598 -1.2537 -0.0453
   24bbb     H4  673   7.761   2.928   9.190 -0.3130  2.2730 -1.7768
   24bbb     C3  674   7.632   2.636   9.064 -0.2420  0.3321 -0.5471
   24bbb     H5  675   7.569   2.562   9.114 -1.8616  0.9589 -1.5719
   24bbb     H6  676   7.733   2.592   9.068  0.2579  1.2347 -2.2208
   24bbb     C4  677   7.581   2.652   8.921 -0.6151 -0.0922  0.1384
   24bbb     H7  678   7.657   2.710   8.866 -1.3155 -0.5710 -1.3974
   24bbb     H8  679   7.480   2.695   8.917  0.0246  1.8123  2.1938
   24bbb     C5  680   7.501   2.924   9.292 -0.3580 -0.2007  0.4099
   24bbb     H9  681   7.569   3.009   9.278  2.4305 -2.4164 -0.3686
   24bbb    H10  682   7.535   2.875   9.385  2.0539  0.9096  0.1992
   24bbb     C6  683   7.683   2.961   9.003  0.3833  0.0805 -0.2964
   24bbb    H11  684   7.607   3.031   9.041 -0.2771 -1.8251  2.1911
   24bbb    H12  685   7.643   2.918   8.911 -1.4222  0.5425  0.2261
   24bbb     C7  686   7.566   2.508   8.866  0.2424 -0.3988  0.2069
   24bbb    H13  687   7.514   2.515   8.770 -2.0797 -1.4212  1.3080
   24bbb    H14  688   7.500   2.451   8.932  0.7384  1.2845  2.2797
   24bbb     C8  689   7.789   3.059   8.958 -0.5176  0.4815  0.0481
   24bbb    H15  690   7.841   3.105   9.042 -1.6686  1.7485  0.1052
   24bbb    H16  691   7.732   3.131   8.898  1.6862  0.7542 -1.8452
   24bbb     C9  692   7.357   2.984   9.309  0.0335  0.1458 -0.4243
   24bbb    H17  693   7.358   3.065   9.383  0.4443 -1.2453  1.1547
   24bbb    H18  694   7.298   2.906   9.360  1.6145 -1.2551 -0.6663
   24bbb     O1  695   7.697   2.447   8.850  0.0977 -0.4615  0.3240
   25bbb     N1  696   9.985   1.704   8.175  0.0737  0.0818  0.1300
   25bbb     C1  697  10.115   1.647   8.217  0.1421 -0.2567 -0.0910
   25bbb     H1  698  10.146   1.700   8.308  2.3006 -0.2030 -0.8065
   25bbb     H2  699  10.187   1.678   8.140  0.4918  1.3209  0.8283
   25bbb     C2  700   9.924   1.647   8.053  0.2600 -0.2389 -0.6859
   25bbb     H3  701   9.829   1.696   8.028  0.5800  0.2373 -0.9954
   25bbb     H4  702   9.901   1.543   8.080  1.5002 -1.1866 -3.0143
   25bbb     C3  703   9.882   1.714   8.289 -0.2370  0.4480  1.1323
   25bbb     H5  704   9.919   1.744   8.388  0.5065  0.9279  0.7233
   25bbb     H6  705   9.835   1.616   8.298  1.0133 -0.1921  0.9991
   25bbb     C4  706   9.764   1.815   8.265  0.7099 -0.2103 -0.2407
   25bbb     H7  707   9.708   1.785   8.176 -0.1685 -1.0090  0.5545
   25bbb     H8  708   9.813   1.909   8.238 -2.1808  2.3649  2.6320
   25bbb     C5  709  10.123   1.502   8.251 -0.1646 -0.3145 -0.5397
   25bbb     H9  710  10.125   1.442   8.159 -2.9859 -0.7048 -0.4466
   25bbb    H10  711  10.033   1.469   8.305 -0.3211  0.7418 -0.1290
   25bbb     C6  712  10.013   1.626   7.930  0.0941 -0.0527 -0.1039
   25bbb    H11  713  10.098   1.565   7.960 -0.3126 -0.5284  0.1008
   25bbb    H12  714  10.040   1.726   7.892  0.7248 -0.6009 -1.1182
   25bbb     C7  715   9.659   1.836   8.379 -0.3271 -0.0374 -0.8289
   25bbb    H13  716   9.622   1.741   8.417 -1.1301  0.3092 -0.7220
   25bbb    H14  717   9.576   1.900   8.345 -0.5966 -0.6328 -1.3050
   25bbb     C8  718   9.942   1.562   7.808 -0.6563 -0.3358 -0.3503
   25bbb    H15  719   9.859   1.626   7.774 -0.1849  0.0568 -0.7929
   25bbb    H16  720   9.897   1.469   7.841 -0.7365  0.0476  0.6517
   25bbb     C9  721  10.245   1.462   8.343  0.1212 -0.1148 -1.3285
   25bbb    H17  722  10.239   1.493   8.448  1.4700 -1.0743 -0.9347
   25bbb    H18  723  10.340   1.495   8.300  0.6587 -0.6471 -0.5737
   25bbb     O1  724   9.727   1.899   8.485 -0.2966 -0.3509  0.1809
   26bbb     N1  725  10.004   2.747   9.417 -0.4612  0.1301 -0.4251
   26bbb     C1  726  10.102   2.752   9.524 -1.0473 -0.4044 -0.2707
   26bbb     H1  727  10.116   2.857   9.553  0.2291 -0.5354 -0.3625
   26bbb     H2  728  10.198   2.727   9.477 -0.5546  0.8613 -0.0058
   26bbb     C2  729   9.869   2.798   9.461  0.6199 -0.1128  0.1904
   26bbb     H3  730   9.818   2.733   9.533 -1.1391  1.3795  0.3569
   26bbb     H4  731   9.803   2.791   9.374  0.4184  0.5992  0.2826
   26bbb     C3  732   9.985   2.611   9.355 -0.0065  0.1443  0.4147
   26bbb     H5  733   9.898   2.594   9.289 -1.0684 -1.6876  2.1883
   26bbb     H6  734   9.976   2.535   9.434  1.3276  1.8537  2.3112
   26bbb     C4  735  10.107   2.572   9.265  0.6803  0.4453 -0.1384
   26bbb     H7  736  10.203   2.588   9.315  1.4757  0.2023 -1.5551
   26bbb     H8  737  10.118   2.646   9.185  1.9284  1.6102  1.0508
   26bbb     C5  738  10.083   2.657   9.655  0.2783 -0.4559  0.0614
   26bbb     H9  739  10.060   2.554   9.627 -0.4903  0.1911 -1.8570
   26bbb    H10  740   9.996   2.697   9.708 -0.6842  1.1119 -2.5271
   26bbb     C6  741   9.867   2.947   9.503  0.8589  0.4629 -0.1447
   26bbb    H11  742   9.922   2.944   9.598  0.9869 -4.3840 -0.0875
   26bbb    H12  743   9.761   2.960   9.531  0.9048 -0.3194  0.4308
   26bbb     C7  744  10.100   2.432   9.208  0.7307  0.8876  0.1069
   26bbb    H13  745  10.101   2.348   9.279 -1.4749 -1.0839 -2.0325
   26bbb    H14  746  10.184   2.414   9.140 -0.3242  3.3154 -1.9851
   26bbb     C8  747   9.911   3.055   9.410 -0.2157  0.3521 -0.0312
   26bbb    H15  748   9.859   3.048   9.314 -1.1644  0.0621  0.4929
   26bbb    H16  749  10.018   3.034   9.393 -0.0558 -0.2458  1.5242
   26bbb     C9  750  10.217   2.660   9.741 -0.1799 -0.2627  0.2264
   26bbb    H17  751  10.234   2.763   9.776 -1.7447 -0.1589  0.7608
   26bbb    H18  752  10.305   2.633   9.682  1.3595  0.6811  1.9983
   26bbb     O1  753   9.989   2.426   9.122 -0.0736 -0.1941 -0.6269
   27bbb     N1  754   8.140   3.252   6.528  0.3660 -0.8407 -0.7996
   27bbb     C1  755   8.038   3.364   6.546 -0.1228 -1.2232  0.3691
   27bbb     H1  756   8.033   3.427   6.457  0.8028  0.0943  1.2126
   27bbb     H2  757   8.061   3.430   6.631 -0.9729 -0.6146  0.1313
   27bbb     C2  758   8.137   3.170   6.403  0.4771 -0.1569  0.5156
   27bbb     H3  759   8.058   3.095   6.413  0.3373  0.0462  0.9732
   27bbb     H4  760   8.230   3.114   6.383  0.9920  1.2283 -1.3109
   27bbb     C3  761   8.158   3.169   6.646 -0.3301 -0.2768  0.0510
   27bbb     H5  762   8.253   3.113   6.637  0.4203  0.8953  0.4646
   27bbb     H6  763   8.076   3.097   6.637 -1.2744  0.6719  0.8735
   27bbb     C4  764   8.175   3.235   6.788 -0.8363 -0.2956  0.2370
   27bbb     H7  765   8.076   3.276   6.812 -0.5367  1.0219 -0.6704
   27bbb     H8  766   8.251   3.313   6.786  0.4198 -1.4808 -1.4587
   27bbb     C5  767   7.891   3.319   6.571  0.3364 -0.1052 -0.0106
   27bbb     H9  768   7.890   3.239   6.647 -1.7262 -1.6146 -1.5142
   27bbb    H10  769   7.845   3.277   6.481  0.7370  1.0429 -0.7731
   27bbb     C6  770   8.102   3.255   6.273  0.2554  0.0001 -1.0376
   27bbb    H11  771   8.178   3.334   6.271 -0.4950  0.7455 -0.5401
   27bbb    H12  772   8.011   3.314   6.289 -0.7209 -1.8394  0.6612
   27bbb     C7  773   8.211   3.132   6.897 -0.8502 -0.2663 -0.9484
   27bbb    H13  774   8.169   3.036   6.862  2.1416 -1.8143 -0.6701
   27bbb    H14  775   8.164   3.145   6.995 -0.9335 -0.3961 -0.9692
   27bbb     C8  776   8.093   3.167   6.148 -0.6039 -0.3910 -0.5800
   27bbb    H15  777   8.194   3.125   6.138  1.4418  3.5813  1.0914
   27bbb    H16  778   8.084   3.232   6.060 -0.3773 -0.6119 -0.7671
   27bbb     C9  779   7.800   3.428   6.630  0.3696 -0.5008 -0.0801
   27bbb    H17  780   7.826   3.447   6.735  0.5037 -0.1568 -0.1747
   27bbb    H18  781   7.697   3.391   6.620 -0.0267 -0.2220  2.3794
   27bbb     O1  782   8.353   3.123   6.890 -0.1445 -0.1100  0.2038
   28bbb     N1  783   8.118   2.654   6.902 -0.3694  0.4514  0.1310
   28bbb     C1  784   8.029   2.693   6.785  0.8731  1.3336 -1.2428
   28bbb     H1  785   7.957   2.762   6.830  0.5027 -0.6343  1.4060
   28bbb     H2  786   7.970   2.606   6.754 -1.1479  1.8830  0.8293
   28bbb     C2  787   8.223   2.555   6.868  0.1780 -0.3782 -0.6276
   28bbb     H3  788   8.308   2.579   6.934 -0.5603 -0.8637  0.5441
   28bbb     H4  789   8.246   2.577   6.764 -1.2184  1.8666 -0.5454
   28bbb     C3  790   8.041   2.626   7.027 -0.2524  0.6537 -0.1699
   28bbb     H5  791   8.114   2.586   7.098  0.1170 -2.1061 -1.9499
   28bbb     H6  792   7.962   2.551   7.011 -0.0168  0.6359 -1.3493
   28bbb     C4  793   7.968   2.748   7.087 -0.3476  0.5776  0.2055
   28bbb     H7  794   7.880   2.771   7.026 -0.1881  0.5215 -0.0452
   28bbb     H8  795   8.041   2.831   7.085  1.8374 -1.2551 -0.2688
   28bbb     C5  796   8.096   2.765   6.667  0.3368 -0.5177  0.6266
   28bbb     H9  797   8.160   2.691   6.618 -0.5142 -0.0779 -1.2547
   28bbb    H10  798   8.154   2.849   6.707  1.0956 -0.3619 -0.7355
   28bbb     C6  799   8.171   2.412   6.873  0.2542 -0.0097  0.0254
   28bbb    H11  800   8.081   2.414   6.811  1.2064  2.7866 -1.4327
   28bbb    H12  801   8.138   2.379   6.973  1.8970 -2.1787 -0.0612
   28bbb     C7  802   7.910   2.716   7.223  0.1236  0.5134 -0.0956
   28bbb    H13  803   7.851   2.625   7.211 -1.1630  1.3422 -0.2780
   28bbb    H14  804   7.836   2.788   7.262 -0.5993 -1.1989  1.8329
   28bbb     C8  805   8.267   2.303   6.829  0.5648 -0.2015 -0.1724
   28bbb    H15  806   8.233   2.204   6.862  0.8792 -0.7621 -1.4693
   28bbb    H16  807   8.355   2.334   6.887  1.2334 -1.4155 -0.5014
   28bbb     C9  808   7.990   2.826   6.570 -0.1569  0.7421  0.6182
   28bbb    H17  809   7.925   2.897   6.622 -1.2491  1.1897 -1.2861
   28bbb    H18  810   8.049   2.877   6.493 -1.2428  2.9108  1.1604
   28bbb     O1  811   8.028   2.685   7.307  0.0573 -0.0973  0.4153
   29bbb     N1  812   9.839   2.483   7.060  0.5725  0.0866  1.0836
   29bbb     C1  813   9.906   2.440   6.940  0.1456  0.0154 -0.3020
   29bbb     H1  814   9.945   2.338   6.947 -0.7278 -0.5331 -2.5472
   29bbb     H2  815  10.002   2.490   6.921  0.8703 -2.4000 -4.1524
   29bbb     C2  816   9.833   2.629   7.080  0.4823 -0.4661 -0.1746
   29bbb     H3  817   9.775   2.649   7.171  1.7352  0.5148  0.4354
   29bbb     H4  818   9.775   2.678   7.001  0.5562 -1.0544 -0.6018
   29bbb     C3  819   9.720   2.405   7.098 -0.8145 -0.9438 -0.2423
   29bbb     H5  820   9.631   2.446   7.048 -0.9443 -2.4325 -1.2961
   29bbb     H6  821   9.707   2.439   7.201  0.4777  1.1217 -0.6995
   29bbb     C4  822   9.728   2.248   7.084 -0.1623  0.0062 -0.7755
   29bbb     H7  823   9.812   2.208   7.143 -0.5243  0.2171 -0.1045
   29bbb     H8  824   9.744   2.217   6.980  1.0822  1.0944 -0.9297
   29bbb     C5  825   9.822   2.461   6.809 -0.2993  0.2289  0.2397
   29bbb     H9  826   9.788   2.566   6.808  1.4024  0.8093 -0.2936
   29bbb    H10  827   9.733   2.398   6.795  0.3721 -0.4935 -0.8665
   29bbb     C6  828   9.961   2.706   7.105 -0.4498 -0.2495 -1.1685
   29bbb    H11  829  10.040   2.636   7.137  0.8843  1.9280  0.5609
   29bbb    H12  830   9.950   2.762   7.198 -0.2394  1.6308 -2.2168
   29bbb     C7  831   9.601   2.183   7.146  0.7761  0.5967  0.1728
   29bbb    H13  832   9.599   2.075   7.123  0.6352  0.8199 -0.9323
   29bbb    H14  833   9.508   2.225   7.105  1.0526  0.3240 -0.7534
   29bbb     C8  834  10.014   2.787   6.983 -1.2485  0.6484  0.1979
   29bbb    H15  835   9.935   2.829   6.921  0.4795  0.7508 -2.0531
   29bbb    H16  836  10.068   2.719   6.916 -2.7454 -0.3402 -0.0508
   29bbb     C9  837   9.913   2.435   6.688  0.2102  0.5386 -0.0029
   29bbb    H17  838   9.972   2.343   6.704 -1.1907 -0.1446  1.4864
   29bbb    H18  839   9.984   2.519   6.689 -0.0809  0.7999 -0.5192
   29bbb     O1  840   9.606   2.207   7.290  0.4122 -0.0405 -0.1382
   30bbb     N1  841   9.556   1.286   7.673  0.0044 -0.7473  0.3853
   30bbb     C1  842   9.676   1.238   7.743  0.3442 -0.0979  0.5306
   30bbb     H1  843   9.672   1.288   7.840 -0.3958  0.0518  0.4331
   30bbb     H2  844   9.768   1.269   7.693 -0.6188  0.1713 -1.1708
   30bbb     C2  845   9.497   1.204   7.570  0.2753 -0.0354  0.7872
   30bbb     H3  846   9.398   1.245   7.547  1.6282  2.6521 -0.8624
   30bbb     H4  847   9.478   1.104   7.610  0.3502 -0.2444  0.3138
   30bbb     C3  848   9.557   1.432   7.640 -0.1954  0.5264  0.5210
   30bbb     H5  849   9.460   1.467   7.602  0.1707  1.5565  0.4932
   30bbb     H6  850   9.639   1.467   7.575  1.3826  0.3879  2.3461
   30bbb     C4  851   9.579   1.522   7.772 -0.7297 -0.1310 -0.4958
   30bbb     H7  852   9.677   1.490   7.809  0.7882  3.6980 -0.7757
   30bbb     H8  853   9.503   1.499   7.847  1.8879 -2.5486  1.6311
   30bbb     C5  854   9.660   1.089   7.786 -0.6879 -0.0602  0.4461
   30bbb     H9  855   9.656   1.026   7.697  0.2059 -1.2691  1.2256
   30bbb    H10  856   9.560   1.082   7.833 -1.4217 -0.7454 -1.1318
   30bbb     C6  857   9.588   1.177   7.451  0.1208  0.4967  0.1230
   30bbb    H11  858   9.689   1.153   7.486  1.1918  0.1696 -2.8886
   30bbb    H12  859   9.598   1.264   7.386 -2.5254  0.8418  0.0511
   30bbb     C7  860   9.590   1.670   7.745 -0.7399 -0.2971 -0.4919
   30bbb    H13  861   9.501   1.698   7.687 -1.3433  1.8039  1.2831
   30bbb    H14  862   9.683   1.690   7.691  1.5567 -0.9972  2.8907
   30bbb     C8  863   9.544   1.057   7.362  0.0609 -0.3863  0.2642
   30bbb    H15  864   9.606   1.045   7.272  0.0423 -0.7301  0.2969
   30bbb    H16  865   9.441   1.070   7.325  0.2043 -0.9956 -0.3903
   30bbb     C9  866   9.770   1.049   7.883 -0.0966 -0.4613  0.3301
   30bbb    H17  867   9.759   0.944   7.911  0.6403 -0.4596  0.6348
   30bbb    H18  868   9.749   1.110   7.971  0.0232  1.6928 -1.0540
   30bbb     O1  869   9.592   1.741   7.870  0.2460  0.7390  0.4991
   31bbb     N1  870   6.709   4.135   8.916  0.2500  0.5573 -0.0038
   31bbb     C1  871   6.848   4.144   8.969 -0.6091 -0.0373  0.1151
   31bbb     H1  872   6.849   4.197   9.065 -0.0893  0.8265 -0.3589
   31bbb     H2  873   6.917   4.195   8.901 -2.1520  1.0506 -0.7060
   31bbb     C2  874   6.610   4.063   9.002 -1.1519 -0.3869  0.2150
   31bbb     H3  875   6.600   4.116   9.098  0.2278 -0.5478  0.4628
   31bbb     H4  876   6.652   3.964   9.023 -1.4915 -0.3856  0.9507
   31bbb     C3  877   6.651   4.265   8.877 -0.9407  0.0920 -0.4385
   31bbb     H5  878   6.673   4.340   8.954  0.1126  0.1792 -0.8131
   31bbb     H6  879   6.544   4.257   8.854 -1.0210  0.5338 -0.2424
   31bbb     C4  880   6.723   4.317   8.747  0.4020 -0.0880 -0.3375
   31bbb     H7  881   6.832   4.300   8.748  0.7775  1.8910 -1.7533
   31bbb     H8  882   6.692   4.422   8.743  1.8885  0.4290  0.7901
   31bbb     C5  883   6.901   3.994   8.998  1.0120 -0.4538  0.3243
   31bbb     H9  884   6.870   3.932   8.913  1.8422 -0.1364 -0.2255
   31bbb    H10  885   6.849   3.960   9.088  0.3254  0.5366  0.3118
   31bbb     C6  886   6.465   4.046   8.953 -0.0714  0.6763 -0.3833
   31bbb    H11  887   6.480   4.022   8.847  0.2951  1.7080 -0.5846
   31bbb    H12  888   6.406   4.138   8.962 -0.5734  0.3366 -0.1727
   31bbb     C7  889   6.661   4.236   8.629  0.5377  0.2719 -0.2235
   31bbb    H13  890   6.556   4.261   8.612  0.5240  0.2824 -0.1221
   31bbb    H14  891   6.667   4.129   8.651  0.2392 -0.7610 -4.2480
   31bbb     C8  892   6.384   3.949   9.040  0.5609  0.4755 -0.6764
   31bbb    H15  893   6.377   3.992   9.141  0.2298 -1.1160  0.0071
   31bbb    H16  894   6.426   3.848   9.053  1.4388  0.9424  0.2740
   31bbb     C9  895   7.053   3.992   9.026  0.7026  0.2484 -0.0906
   31bbb    H17  896   7.073   4.059   9.111 -1.7826 -0.3021  1.0027
   31bbb    H18  897   7.111   4.039   8.946 -0.5353  1.4547 -0.3150
   31bbb     O1  898   6.735   4.263   8.516  0.3577  0.0411 -0.2340
   32bbb     N1  899   6.923   3.937   7.422  0.1978  0.0679  0.0297
   32bbb     C1  900   6.869   4.077   7.407 -0.2203  0.9033  0.4948
   32bbb     H1  901   6.831   4.094   7.305 -0.2816 -0.9634  0.1600
   32bbb     H2  902   6.953   4.145   7.421  0.7047 -0.2965  0.9347
   32bbb     C2  903   7.026   3.903   7.320 -0.4713 -0.1581 -0.6418
   32bbb     H3  904   7.050   3.796   7.326 -1.4994 -0.5474 -2.5766
   32bbb     H4  905   7.116   3.959   7.346  0.1752  0.1854 -3.3798
   32bbb     C3  906   6.961   3.903   7.561 -0.2540 -0.5510  0.2477
   32bbb     H5  907   6.869   3.892   7.621 -0.8601 -2.5082 -0.9299
   32bbb     H6  908   7.019   3.988   7.598  0.4956 -0.1956 -1.6561
   32bbb     C4  909   7.053   3.782   7.591  0.0655 -0.1975 -0.4262
   32bbb     H7  910   7.144   3.793   7.530 -1.4803  0.8848 -2.6845
   32bbb     H8  911   6.999   3.692   7.560 -0.5082  0.7810 -2.4245
   32bbb     C5  912   6.760   4.120   7.504  0.5281 -0.4745 -0.1902
   32bbb     H9  913   6.742   4.227   7.484  1.4198 -0.4673 -1.0628
   32bbb    H10  914   6.789   4.118   7.610 -1.1304 -1.1122  0.2773
   32bbb     C6  915   6.992   3.939   7.174 -0.2486  0.4251 -0.4154
   32bbb    H11  916   6.990   4.046   7.149 -0.2347  0.1383 -1.6958
   32bbb    H12  917   6.892   3.901   7.150  0.1018 -0.5363 -0.4088
   32bbb     C7  918   7.078   3.774   7.743 -0.5793  0.0809  0.3386
   32bbb    H13  919   7.162   3.705   7.762  0.4775  1.4891  0.9706
   32bbb    H14  920   6.985   3.743   7.792 -0.7960  1.7384  1.0458
   32bbb     C8  921   7.108   3.880   7.083  0.4852  0.2060 -0.1298
   32bbb    H15  922   7.105   3.771   7.087 -1.5335  0.2485  2.4349
   32bbb    H16  923   7.203   3.923   7.118  0.5639  0.3849 -0.5646
   32bbb     C9  924   6.619   4.052   7.477  0.0326  0.5220 -1.0346
   32bbb    H17  925   6.556   4.081   7.562  0.5443 -1.5231  0.0909
   32bbb    H18  926   6.632   3.944   7.481 -1.9708  0.2268  3.7124
   32bbb     O1  927   7.113   3.903   7.793 -0.9399  0.4685  0.4392
   33bbb     N1  928   8.321   5.069   8.733 -0.0850 -0.0132 -0.0926
   33bbb     C1  929   8.185   5.095   8.682  0.6015 -0.0041  0.4414
   33bbb     H1  930   8.172   5.202   8.662  1.4604  0.1882  0.8686
   33bbb     H2  931   8.116   5.047   8.753 -0.0187 -1.7976 -1.3003
   33bbb     C2  932   8.345   5.150   8.853  0.8911 -0.1151  0.4456
   33bbb     H3  933   8.267   5.122   8.925 -0.6413  2.4246 -0.1062
   33bbb     H4  934   8.334   5.257   8.831  2.7054  0.1924  0.8979
   33bbb     C3  935   8.430   5.059   8.634  0.7149 -0.2974 -0.1855
   33bbb     H5  936   8.400   4.996   8.549 -2.5334  0.9171 -0.0851
   33bbb     H6  937   8.525   5.022   8.675  0.4095  1.2657  2.1093
   33bbb     C4  938   8.458   5.201   8.567 -0.3892  0.1970 -0.1563
   33bbb     H7  939   8.511   5.251   8.649  0.4304 -0.5083 -0.2459
   33bbb     H8  940   8.368   5.255   8.534 -0.2648  1.0173  0.7977
   33bbb     C5  941   8.146   5.021   8.560 -1.0154  0.0952  0.4313
   33bbb     H9  942   8.175   4.916   8.565  0.8960  0.5656  0.2735
   33bbb    H10  943   8.200   5.069   8.477  0.9852 -1.3053  0.8315
   33bbb     C6  944   8.484   5.132   8.919 -0.0444  0.2258  0.6764
   33bbb    H11  945   8.561   5.158   8.845 -0.6749  0.7757  0.1965
   33bbb    H12  946   8.494   5.028   8.952 -2.7337 -0.3875 -0.1260
   33bbb     C7  947   8.562   5.180   8.457  0.6009 -0.0427 -0.4618
   33bbb    H13  948   8.642   5.118   8.499  0.2480 -0.6677 -0.6916
   33bbb    H14  949   8.589   5.285   8.440 -1.9291  1.0112  1.4114
   33bbb     C8  950   8.495   5.224   9.041  0.2516 -0.5947  0.0116
   33bbb    H15  951   8.410   5.199   9.106  0.4540  1.7731  1.2900
   33bbb    H16  952   8.479   5.328   9.009 -0.7495 -0.3400  1.2671
   33bbb     C9  953   7.994   5.040   8.523 -0.1481  0.3897 -0.1373
   33bbb    H17  954   7.974   5.147   8.525  2.6818  0.9842  1.5597
   33bbb    H18  955   7.924   4.989   8.590  1.9931 -0.7755  1.3447
   33bbb     O1  956   8.510   5.117   8.341 -0.4419  0.4946  0.3480
   34bbb     N1  957   8.495   5.451   7.150  0.5538 -0.3665 -0.5067
   34bbb     C1  958   8.454   5.541   7.039  0.1738  0.1576  0.6097
   34bbb     H1  959   8.540   5.586   6.988  1.2242  0.2258  2.3604
   34bbb     H2  960   8.402   5.627   7.081 -1.3308 -0.0094 -0.7951
   34bbb     C2  961   8.607   5.516   7.233 -0.0691  0.1170  0.4335
   34bbb     H3  962   8.572   5.607   7.283 -0.2027  0.5145 -0.3668
   34bbb     H4  963   8.687   5.538   7.161  1.0429 -1.5231  1.1191
   34bbb     C3  964   8.385   5.399   7.239  0.1875  0.2943 -0.5677
   34bbb     H5  965   8.413   5.312   7.300 -2.1535  1.5070  2.5000
   34bbb     H6  966   8.298   5.375   7.178 -0.6356  0.3138  0.5671
   34bbb     C4  967   8.319   5.493   7.338 -0.8562  0.1260  0.3896
   34bbb     H7  968   8.260   5.574   7.292 -0.5814  0.6223  0.8970
   34bbb     H8  969   8.398   5.538   7.400  0.2248 -0.2614 -0.6606
   34bbb     C5  970   8.364   5.471   6.931 -0.0243  0.4966 -0.2382
   34bbb     H9  971   8.261   5.463   6.969  0.5109  1.3385  1.5341
   34bbb    H10  972   8.412   5.374   6.913  0.7634  0.7989  0.1760
   34bbb     C6  973   8.682   5.413   7.324 -0.3020  0.8127  0.1865
   34bbb    H11  974   8.679   5.316   7.274 -0.6150  1.3629 -0.8943
   34bbb    H12  975   8.627   5.394   7.417 -0.1615 -0.3758  0.0371
   34bbb     C7  976   8.223   5.417   7.423 -0.0753  0.7721  0.0249
   34bbb    H13  977   8.178   5.344   7.355  2.0139  1.0699 -1.8068
   34bbb    H14  978   8.145   5.480   7.467 -2.5599 -1.0340 -1.5294
   34bbb     C8  979   8.832   5.462   7.360 -0.0195  0.3383  0.4135
   34bbb    H15  980   8.859   5.399   7.446 -0.5022 -0.4714 -0.0229
   34bbb    H16  981   8.827   5.568   7.387 -2.1012  0.5552 -0.5896
   34bbb     C9  982   8.355   5.547   6.802 -0.3780  0.0739  0.2048
   34bbb    H17  983   8.448   5.531   6.745 -0.0761  0.9331  0.4363
   34bbb    H18  984   8.353   5.655   6.826 -1.4786 -0.0470  0.7313
   34bbb     O1  985   8.286   5.355   7.533 -0.1912 -0.0768  0.1345
   35bbb     N1  986   8.902   2.592   9.294 -0.6721 -0.3225 -0.0630
   35bbb     C1  987   8.879   2.444   9.290 -0.5817 -0.2439  0.1976
   35bbb     H1  988   8.859   2.418   9.186 -1.7010 -0.0736  0.3580
   35bbb     H2  989   8.785   2.428   9.345 -0.2836  0.6123  1.0015
   35bbb     C2  990   9.041   2.626   9.236 -0.4495 -0.5129 -0.5361
   35bbb     H3  991   9.045   2.601   9.129  1.1349  3.4001 -1.5685
   35bbb     H4  992   9.120   2.567   9.284 -0.8993 -0.6249  0.0908
   35bbb     C3  993   8.795   2.675   9.241 -0.3461 -0.5538  0.4170
   35bbb     H5  994   8.796   2.675   9.132  1.0295 -1.6288  0.3953
   35bbb     H6  995   8.819   2.776   9.276 -1.1778 -0.0738 -0.3592
   35bbb     C4  996   8.649   2.636   9.266 -0.2309 -0.2840  0.0894
   35bbb     H7  997   8.638   2.663   9.372 -0.0158  0.5277 -0.0864
   35bbb     H8  998   8.641   2.531   9.238  0.4719 -0.2308 -0.3249
   35bbb     C5  999   9.000   2.371   9.368 -0.6325  0.2518 -0.2042
   35bbb     H9 1000   9.024   2.429   9.459  1.0213 -2.2101  1.0561
   35bbb    H10 1001   9.092   2.359   9.309 -0.6266  2.7538 -0.7934
   35bbb     C6 1002   9.082   2.773   9.246  1.2033  0.0742  0.1150
   35bbb    H11 1003   9.041   2.822   9.335  2.8548  1.9068 -0.0518
   35bbb    H12 1004   9.043   2.833   9.163  1.8160 -0.2894 -0.4498
   35bbb     C7 1005   8.536   2.695   9.177  0.0316 -0.5448  0.1800
   35bbb    H13 1006   8.541   2.805   9.180 -0.2058 -0.5493  0.9395
   35bbb    H14 1007   8.433   2.664   9.199 -0.0331 -0.5218 -0.0807
   35bbb     C8 1008   9.232   2.786   9.244  0.0003 -0.8683  0.2200
   35bbb    H15 1009   9.262   2.891   9.230 -0.5529 -0.7536 -0.1271
   35bbb    H16 1010   9.266   2.743   9.149  0.7806  0.7735 -0.2840
   35bbb     C9 1011   8.962   2.236   9.419 -0.1088  0.0376 -0.2586
   35bbb    H17 1012   8.892   2.262   9.500 -1.1581  2.0862 -1.7500
   35bbb    H18 1013   9.048   2.184   9.462 -0.3444  1.5178  2.2476
   35bbb     O1 1014   8.560   2.654   9.047  0.2544 -0.2066  0.0151
   36bbb     N1 1015   8.165   2.368   9.215 -0.3124  0.6172  0.0824
   36bbb     C1 1016   8.064   2.313   9.314  0.6221 -0.0907 -0.2776
   36bbb     H1 1017   7.998   2.393   9.351 -0.6462 -1.5514  0.7492
   36bbb     H2 1018   8.114   2.270   9.402 -0.5483  0.1068  0.5026
   36bbb     C2 1019   8.300   2.374   9.277 -0.0989  0.3138  0.5394
   36bbb     H3 1020   8.295   2.416   9.378  2.9619 -1.6384  1.6680
   36bbb     H4 1021   8.367   2.434   9.214  0.7193 -1.0603  0.0290
   36bbb     C3 1022   8.131   2.499   9.140  0.1038 -0.7269 -0.2861
   36bbb     H5 1023   8.209   2.512   9.064  0.7676  3.0469  0.8254
   36bbb     H6 1024   8.138   2.580   9.213 -0.3398 -0.7092 -0.2659
   36bbb     C4 1025   7.993   2.494   9.072  0.5410  0.1024 -0.9807
   36bbb     H7 1026   7.915   2.511   9.147  2.1566  1.1046  0.5494
   36bbb     H8 1027   7.982   2.393   9.031  2.6659  0.0079 -1.4602
   36bbb     C5 1028   7.971   2.207   9.257 -0.3776  0.6285 -0.6722
   36bbb     H9 1029   8.032   2.131   9.208 -3.1741 -1.2332 -1.4987
   36bbb    H10 1030   7.908   2.256   9.182 -2.0345  1.8211  1.3612
   36bbb     C6 1031   8.370   2.232   9.292  1.1326  0.1565 -0.0390
   36bbb    H11 1032   8.376   2.172   9.201 -0.4420 -0.4866  0.2474
   36bbb    H12 1033   8.298   2.172   9.349 -1.4265  1.5925 -1.6003
   36bbb     C7 1034   7.994   2.607   8.962 -0.2061 -1.1392 -0.3277
   36bbb    H13 1035   8.060   2.691   8.986 -1.9358  0.5984 -1.3927
   36bbb    H14 1036   7.896   2.652   8.942  0.9765  2.0044  0.4136
   36bbb     C8 1037   8.510   2.234   9.360 -0.1992  0.0965 -0.3154
   36bbb    H15 1038   8.583   2.286   9.296 -0.9202  0.1933 -1.0655
   36bbb    H16 1039   8.550   2.133   9.372  1.8196  0.8305 -0.3284
   36bbb     C9 1040   7.885   2.129   9.362 -0.2755 -0.3621  0.2613
   36bbb    H17 1041   7.795   2.190   9.378  0.5458  0.9190  0.1570
   36bbb    H18 1042   7.847   2.040   9.310  0.8768 -0.0927 -1.1223
   36bbb     O1 1043   8.060   2.568   8.836  0.5785 -0.7048  0.5826
   37bbb     N1 1044   9.608   4.450   9.714 -0.0149 -0.4982 -0.5831
   37bbb     C1 1045   9.566   4.372   9.828 -0.2268  0.0197  0.1571
   37bbb     H1 1046   9.518   4.279   9.795 -0.4977 -0.0371  0.6879
   37bbb     H2 1047   9.495   4.426   9.891 -1.4370 -0.2350 -0.9593
   37bbb     C2 1048   9.519   4.552   9.661 -0.5533  0.0116 -0.0911
   37bbb     H3 1049   9.421   4.507   9.642 -1.2221  0.9889  0.9909
   37bbb     H4 1050   9.566   4.584   9.567  0.0181 -0.8101 -0.0975
   37bbb     C3 1051   9.684   4.372   9.610  0.3490  0.1885  0.3552
   37bbb     H5 1052   9.744   4.289   9.651  1.7189  0.3984 -1.1029
   37bbb     H6 1053   9.757   4.441   9.565  0.1056  0.0011 -0.3433
   37bbb     C4 1054   9.602   4.322   9.489  0.1163  0.3215 -0.4619
   37bbb     H7 1055   9.674   4.285   9.415 -1.8924 -0.8981 -1.9098
   37bbb     H8 1056   9.550   4.408   9.445  0.8422  1.5584  1.0037
   37bbb     C5 1057   9.683   4.330   9.917  0.5950  0.2078  0.5949
   37bbb     H9 1058   9.727   4.420   9.963  0.2587  1.2206 -0.9678
   37bbb    H10 1059   9.761   4.285   9.856 -1.6133 -1.9651 -0.7985
   37bbb     C6 1060   9.493   4.675   9.745 -0.0205 -0.8544 -0.5863
   37bbb    H11 1061   9.587   4.725   9.770 -0.5900 -0.1688  0.2137
   37bbb    H12 1062   9.457   4.648   9.844  2.3123 -0.5750  0.4005
   37bbb     C7 1063   9.503   4.209   9.522  0.4746 -0.4524 -0.0790
   37bbb    H13 1064   9.442   4.226   9.611  0.8839  0.5914  0.0161
   37bbb    H14 1065   9.551   4.115   9.549 -0.8241 -0.6930  1.5355
   37bbb     C8 1066   9.386   4.764   9.673 -0.3332  0.3399  0.4519
   37bbb    H15 1067   9.351   4.841   9.743 -0.5531  0.4117  0.2649
   37bbb    H16 1068   9.298   4.702   9.654  0.6182 -0.4247 -1.7731
   37bbb     C9 1069   9.635   4.216  10.015 -0.6419 -0.3304  0.6054
   37bbb    H17 1070   9.551   4.260  10.071 -1.4750  0.5976 -1.3015
   37bbb    H18 1071   9.721   4.186  10.075  1.6268  2.0163 -1.2243
   37bbb     O1 1072   9.413   4.193   9.409  0.2070  0.2753  0.1957
   38bbb     N1 1073   8.737   4.567   9.866  0.2789 -0.0400 -0.0138
   38bbb     C1 1074   8.693   4.572  10.005 -0.7631 -0.1988  0.1119
   38bbb     H1 1075   8.675   4.676  10.036 -1.3195 -0.3085  0.1650
   38bbb     H2 1076   8.775   4.529  10.063 -1.1530  0.3669  1.1149
   38bbb     C2 1077   8.855   4.662   9.853 -0.5140  0.2323  0.6768
   38bbb     H3 1078   8.939   4.613   9.904  0.7195  1.0526 -0.4791
   38bbb     H4 1079   8.832   4.755   9.905 -1.2726 -0.9734  2.5955
   38bbb     C3 1080   8.758   4.429   9.807 -0.6888  0.4122 -0.1243
   38bbb     H5 1081   8.814   4.368   9.879  1.0584 -0.4782 -2.1476
   38bbb     H6 1082   8.821   4.435   9.718  0.5789 -1.3691  0.5950
   38bbb     C4 1083   8.626   4.355   9.759 -0.3605  0.5586  0.3234
   38bbb     H7 1084   8.540   4.415   9.794 -0.6291 -0.4777  1.5214
   38bbb     H8 1085   8.626   4.259   9.812  0.8114  0.4053  0.0639
   38bbb     C5 1086   8.566   4.497  10.036 -1.2643  0.3309  0.1369
   38bbb     H9 1087   8.593   4.391  10.029  0.5108  0.8106 -1.0874
   38bbb    H10 1088   8.486   4.516   9.964 -0.5989  1.9463 -0.2337
   38bbb     C6 1089   8.889   4.700   9.705 -0.0614  0.0307  0.5421
   38bbb    H11 1090   8.797   4.733   9.655 -1.2220 -3.4597  0.0408
   38bbb    H12 1091   8.927   4.613   9.649 -1.6910  0.4919 -1.3841
   38bbb     C7 1092   8.617   4.346   9.609  0.1844  0.4430  0.4711
   38bbb    H13 1093   8.649   4.444   9.570 -1.4739  0.7795 -0.1323
   38bbb    H14 1094   8.515   4.335   9.571  0.9480 -0.7271 -1.4005
   38bbb     C8 1095   8.996   4.806   9.705  0.1609 -0.2507  0.3422
   38bbb    H15 1096   9.018   4.819   9.598  1.0398 -0.9656  0.4238
   38bbb    H16 1097   9.087   4.772   9.757  0.3993  1.5221  1.1565
   38bbb     C9 1098   8.518   4.530  10.181 -0.7536 -0.9941  0.1071
   38bbb    H17 1099   8.480   4.632  10.178 -1.2409 -1.1816 -0.3406
   38bbb    H18 1100   8.604   4.517  10.248  0.5837 -2.2829 -1.7167
   38bbb     O1 1101   8.701   4.231   9.577  0.5587 -0.3126  0.4545
   39bbb     N1 1102   7.457   3.200   6.046 -0.3846  0.3460 -0.2323
   39bbb     C1 1103   7.319   3.232   6.095 -0.9309  0.5395 -0.2749
   39bbb     H1 1104   7.324   3.218   6.203 -0.0058 -1.0558 -0.4869
   39bbb     H2 1105   7.249   3.154   6.060 -1.1499 -0.6686  2.6072
   39bbb     C2 1106   7.488   3.228   5.906  0.6271  0.0823  0.5163
   39bbb     H3 1107   7.594   3.205   5.890  0.1695 -1.0925 -1.2140
   39bbb     H4 1108   7.462   3.330   5.874 -3.2562 -1.1201 -0.6859
   39bbb     C3 1109   7.512   3.069   6.081 -0.1125 -0.3807 -0.2685
   39bbb     H5 1110   7.614   3.062   6.042 -0.4072  0.9753 -1.3737
   39bbb     H6 1111   7.462   2.983   6.036  2.1465 -2.9027  1.7367
   39bbb     C4 1112   7.519   3.032   6.228  0.6651 -0.3434 -0.5697
   39bbb     H7 1113   7.551   2.927   6.238  0.0308 -0.4724  0.2233
   39bbb     H8 1114   7.414   3.032   6.260 -0.0919  1.1978 -2.8079
   39bbb     C5 1115   7.267   3.373   6.067  0.3824 -0.5206 -0.7593
   39bbb     H9 1116   7.242   3.398   5.964 -2.2979  3.5834  0.6224
   39bbb    H10 1117   7.330   3.452   6.110 -3.0521  1.2208  1.5360
   39bbb     C6 1118   7.417   3.144   5.795  0.4851 -0.0798  0.0603
   39bbb    H11 1119   7.437   3.036   5.801  0.6722 -0.0598 -0.2155
   39bbb    H12 1120   7.464   3.165   5.699  0.0033  0.3545 -0.0862
   39bbb     C7 1121   7.609   3.119   6.319 -0.1420 -0.9014 -0.2003
   39bbb    H13 1122   7.579   3.224   6.319  2.2680 -0.1563 -0.5859
   39bbb    H14 1123   7.717   3.105   6.304  0.3681 -3.0808  3.9964
   39bbb     C8 1124   7.262   3.166   5.780  0.2266  0.1569  0.4478
   39bbb    H15 1125   7.243   3.257   5.721  1.7719 -0.2587 -0.7737
   39bbb    H16 1126   7.198   3.172   5.869 -1.1127  2.8081 -0.5790
   39bbb     C9 1127   7.132   3.395   6.144 -0.1122  0.1994 -0.7460
   39bbb    H17 1128   7.104   3.500   6.156 -1.7367 -0.4583  1.9591
   39bbb    H18 1129   7.143   3.354   6.245  0.3989 -1.3400 -1.4001
   39bbb     O1 1130   7.590   3.070   6.453 -0.6737 -0.6625 -0.5244
   40bbb     N1 1131   7.890   2.110   6.624 -0.7341  1.2111 -0.1017
   40bbb     C1 1132   7.865   1.965   6.605 -1.0400  1.0111 -0.6650
   40bbb     H1 1133   7.821   1.953   6.505  0.9211 -0.4622 -1.4071
   40bbb     H2 1134   7.796   1.928   6.682  0.3127  0.9481  0.5563
   40bbb     C2 1135   7.993   2.182   6.544  0.6036  1.0244 -0.6485
   40bbb     H3 1136   8.087   2.125   6.550 -0.0483  0.0561  1.0674
   40bbb     H4 1137   8.027   2.270   6.599  2.5469 -0.8718  1.3916
   40bbb     C3 1138   7.768   2.188   6.662 -0.1864  0.1260  0.0259
   40bbb     H5 1139   7.726   2.149   6.756  1.3508  0.0799  0.7315
   40bbb     H6 1140   7.690   2.176   6.587 -0.2860 -1.2701  0.3158
   40bbb     C4 1141   7.789   2.343   6.680  0.4900  0.5257 -0.3249
   40bbb     H7 1142   7.777   2.399   6.586 -0.7878  0.7316 -0.0492
   40bbb     H8 1143   7.886   2.365   6.726  0.4087  0.4611 -0.1236
   40bbb     C5 1144   7.997   1.873   6.606  0.1172  0.3731 -0.2457
   40bbb     H9 1145   8.052   1.893   6.699  0.8085  2.7993 -1.1144
   40bbb    H10 1146   8.060   1.909   6.524 -1.0206  1.6163 -0.6075
   40bbb     C6 1147   7.954   2.213   6.395 -0.0858 -0.1641  0.4165
   40bbb    H11 1148   8.021   2.293   6.361 -0.0979 -0.1149  0.5052
   40bbb    H12 1149   7.855   2.259   6.390 -0.0597  0.1186  1.9133
   40bbb     C7 1150   7.679   2.409   6.774 -0.1188 -0.4702 -0.7605
   40bbb    H13 1151   7.683   2.358   6.871 -2.4711 -0.7906 -0.7807
   40bbb    H14 1152   7.579   2.380   6.741 -1.0144 -0.8888  2.0412
   40bbb     C8 1153   7.965   2.103   6.290  0.0318  0.5624  0.5040
   40bbb    H15 1154   7.921   2.139   6.196  1.8744  1.7129  0.0152
   40bbb    H16 1155   7.914   2.013   6.325  3.2264 -1.4904  0.2917
   40bbb     C9 1156   7.960   1.725   6.600 -0.5853  0.7527 -0.6703
   40bbb    H17 1157   8.051   1.665   6.606 -0.9826 -0.1325 -2.6180
   40bbb    H18 1158   7.900   1.693   6.513 -2.0359  2.6121 -0.4216
   40bbb     O1 1159   7.698   2.550   6.786 -0.7101  0.0317 -0.0721
   41bbb     N1 1160   8.737   4.162   5.786  0.0225  0.3980  0.0488
   41bbb     C1 1161   8.731   4.301   5.727  0.3198 -0.5523 -0.2694
   41bbb     H1 1162   8.682   4.373   5.794  0.9104  0.9272 -1.3761
   41bbb     H2 1163   8.659   4.310   5.644 -0.3308  3.6616  0.5715
   41bbb     C2 1164   8.842   4.140   5.896 -0.1146 -0.8701 -0.1315
   41bbb     H3 1165   8.816   4.214   5.972  0.1889  0.7661 -1.5513
   41bbb     H4 1166   8.942   4.177   5.870  0.6844 -2.5366  0.4302
   41bbb     C3 1167   8.603   4.099   5.813  0.3977  0.6328 -1.0059
   41bbb     H5 1168   8.624   3.992   5.832  0.9692  0.6590 -1.4662
   41bbb     H6 1169   8.532   4.090   5.730 -1.5199 -0.7365  0.6732
   41bbb     C4 1170   8.526   4.157   5.939  0.6434  0.0754  0.4169
   41bbb     H7 1171   8.490   4.257   5.910  1.1940 -0.4023 -2.1886
   41bbb     H8 1172   8.587   4.162   6.030  3.6205 -5.8074 -0.7449
   41bbb     C5 1173   8.866   4.363   5.676  0.0232 -0.0992 -0.4406
   41bbb     H9 1174   8.924   4.283   5.630  0.2123  0.3587 -1.0145
   41bbb    H10 1175   8.925   4.403   5.759  0.0991  0.1544 -0.6152
   41bbb     C6 1176   8.862   3.998   5.955 -0.1172  0.3385  0.3166
   41bbb    H11 1177   8.902   3.933   5.876 -0.5523 -0.8816  1.0871
   41bbb    H12 1178   8.770   3.957   5.996  0.7319 -0.3153  1.6242
   41bbb     C7 1179   8.405   4.069   5.996  0.7220 -0.1445  0.2573
   41bbb    H13 1180   8.323   4.088   5.925  1.1297  0.8056  0.0280
   41bbb    H14 1181   8.367   4.117   6.087 -0.4603  0.3206 -0.4444
   41bbb     C8 1182   8.969   3.997   6.071 -0.0334 -0.8987  0.0474
   41bbb    H15 1183   8.997   3.891   6.081  2.6692 -0.2934 -0.4320
   41bbb    H16 1184   8.917   4.024   6.164 -0.4125  1.7296 -0.8423
   41bbb     C9 1185   8.849   4.480   5.578 -0.1394  0.4336 -0.3594
   41bbb    H17 1186   8.945   4.509   5.534 -0.8845  0.9424 -1.7145
   41bbb    H18 1187   8.792   4.559   5.628 -0.4513 -0.3243  0.5222
   41bbb     O1 1188   8.440   3.932   5.998 -0.3766 -0.0387  0.0524
   42bbb     N1 1189   8.445   2.912   6.325  0.6229  0.5513 -0.3109
   42bbb     C1 1190   8.321   2.840   6.290  0.0402  0.2503 -0.3929
   42bbb     H1 1191   8.290   2.857   6.187  3.0648 -0.0775 -1.4717
   42bbb     H2 1192   8.244   2.880   6.357  0.8685 -2.5351  2.5159
   42bbb     C2 1193   8.465   2.943   6.469  0.2904 -0.5956 -0.1959
   42bbb     H3 1194   8.513   2.857   6.517  2.2198  1.6954  2.3436
   42bbb     H4 1195   8.364   2.945   6.511  0.1963  0.6035 -0.4317
   42bbb     C3 1196   8.568   2.875   6.245 -0.0451 -0.2725  0.0884
   42bbb     H5 1197   8.598   2.771   6.267 -0.1015  0.3259  3.6507
   42bbb     H6 1198   8.640   2.956   6.260 -0.8542  0.5670 -0.4788
   42bbb     C4 1199   8.548   2.865   6.088  1.1080 -0.1800  0.2194
   42bbb     H7 1200   8.498   2.767   6.082  2.3125 -0.7512 -1.5907
   42bbb     H8 1201   8.643   2.843   6.038  1.7472 -1.7090  2.0001
   42bbb     C5 1202   8.326   2.686   6.312  0.0639  0.2635  0.3163
   42bbb     H9 1203   8.330   2.660   6.418 -0.3726 -1.2505 -0.0144
   42bbb    H10 1204   8.416   2.647   6.263 -0.9325  0.1543 -1.5619
   42bbb     C6 1205   8.530   3.081   6.495  0.4038  0.0440 -0.6520
   42bbb    H11 1206   8.453   3.154   6.467 -0.4876 -0.9042 -0.7449
   42bbb    H12 1207   8.615   3.106   6.431  0.2926  4.0514  0.4992
   42bbb     C7 1208   8.459   2.982   6.018 -0.3264  0.6604 -0.4826
   42bbb    H13 1209   8.378   3.010   6.087 -0.4256  0.2301 -0.4204
   42bbb    H14 1210   8.411   2.947   5.926  0.8287 -0.3897 -0.7082
   42bbb     C8 1211   8.569   3.109   6.642  0.5833 -0.1465  0.1560
   42bbb    H15 1212   8.487   3.096   6.713  0.1914 -0.4880 -0.3564
   42bbb    H16 1213   8.609   3.211   6.646 -2.1835  1.0611 -0.9323
   42bbb     C9 1214   8.206   2.612   6.254  0.4259  0.3345  0.9052
   42bbb    H17 1215   8.123   2.684   6.248  0.0422 -0.2105 -1.5360
   42bbb    H18 1216   8.176   2.531   6.321  0.7884  1.6012  2.6630
   42bbb     O1 1217   8.550   3.089   5.994 -0.3309  0.1319  0.8499
   43bbb     N1 1218   7.449   4.868   7.799 -0.1273  0.0095 -0.0760
   43bbb     C1 1219   7.445   4.826   7.944 -0.0083  0.1132 -0.2302
   43bbb     H1 1220   7.496   4.904   8.002  3.4219 -1.9145 -0.2502
   43bbb     H2 1221   7.497   4.730   7.952 -0.6953 -0.1640  1.1839
   43bbb     C2 1222   7.574   4.937   7.766 -0.4469  0.2235 -0.4513
   43bbb     H3 1223   7.593   5.011   7.846 -1.1890  0.6384 -0.6509
   43bbb     H4 1224   7.567   5.004   7.679  0.1866  1.0578  0.1151
   43bbb     C3 1225   7.393   4.767   7.706 -0.1306  0.3059  0.4454
   43bbb     H5 1226   7.293   4.740   7.741 -1.6332  1.3722 -2.6536
   43bbb     H6 1227   7.464   4.683   7.709 -0.2925 -0.0681 -2.8399
   43bbb     C4 1228   7.386   4.823   7.559  0.7390 -0.9391 -0.1691
   43bbb     H7 1229   7.486   4.859   7.534  0.1347  1.1515  0.1974
   43bbb     H8 1230   7.309   4.901   7.554 -0.6055 -2.1607  0.7559
   43bbb     C5 1231   7.299   4.801   7.996 -0.7963  0.9768 -0.3266
   43bbb     H9 1232   7.319   4.790   8.104  2.0425  1.3094 -0.7247
   43bbb    H10 1233   7.260   4.705   7.961 -0.2687 -0.6738  3.1938
   43bbb     C6 1234   7.699   4.843   7.772  0.0046 -0.2162  0.3948
   43bbb    H11 1235   7.663   4.762   7.707 -2.0686  1.5682 -0.8039
   43bbb    H12 1236   7.718   4.806   7.873 -0.8032  1.4801  1.1975
   43bbb     C7 1237   7.328   4.720   7.461 -0.6639  0.1625 -0.0413
   43bbb    H13 1238   7.304   4.780   7.372 -0.4516  2.0484  1.1118
   43bbb    H14 1239   7.227   4.694   7.493 -0.1265 -0.0341  1.5984
   43bbb     C8 1240   7.828   4.904   7.709  0.7552  0.2169 -0.2479
   43bbb    H15 1241   7.903   4.825   7.695  1.7275  0.8620  1.1373
   43bbb    H16 1242   7.864   4.988   7.769 -2.8732  1.2319  0.7599
   43bbb     C9 1243   7.199   4.905   7.961  0.3283 -0.0009  0.5986
   43bbb    H17 1244   7.169   4.890   7.857 -0.2575  1.3783  0.5460
   43bbb    H18 1245   7.241   5.006   7.972  0.3191  0.0677  0.0171
   43bbb     O1 1246   7.412   4.601   7.444 -0.1011 -0.2290  0.1982
   44bbb     N1 1247   6.720   4.556   7.299  0.2030  0.0862 -0.4098
   44bbb     C1 1248   6.587   4.607   7.323  0.0256 -0.0491 -0.5406
   44bbb     H1 1249   6.549   4.653   7.231 -0.6988  1.8933  0.6484
   44bbb     H2 1250   6.589   4.691   7.394 -0.1669  0.3573 -1.0111
   44bbb     C2 1251   6.714   4.451   7.196 -0.1008  0.1471  0.4864
   44bbb     H3 1252   6.678   4.495   7.102  0.8655  0.7042  0.3660
   44bbb     H4 1253   6.646   4.368   7.220  1.3228 -1.5308 -1.0516
   44bbb     C3 1254   6.805   4.523   7.418  0.5148 -0.4766 -0.0235
   44bbb     H5 1255   6.904   4.490   7.385  1.2203  1.3315  0.1499
   44bbb     H6 1256   6.763   4.442   7.479 -0.0718 -1.0431 -1.1719
   44bbb     C4 1257   6.841   4.650   7.501 -0.4761  0.4922 -0.6022
   44bbb     H7 1258   6.754   4.711   7.526  0.0413  2.2080 -2.6883
   44bbb     H8 1259   6.907   4.719   7.447  1.7615 -0.7261  0.4304
   44bbb     C5 1260   6.481   4.502   7.369 -0.2193 -0.0258 -0.9501
   44bbb     H9 1261   6.536   4.451   7.449  0.9137  1.7523 -0.5516
   44bbb    H10 1262   6.468   4.430   7.287 -0.4179 -2.2731  0.9287
   44bbb     C6 1263   6.841   4.363   7.174  0.0750 -0.0434 -0.2893
   44bbb    H11 1264   6.874   4.313   7.266 -1.4485 -0.0098  0.3086
   44bbb    H12 1265   6.931   4.420   7.148  0.7135 -1.2317 -0.7426
   44bbb     C7 1266   6.910   4.621   7.630 -0.3949  0.4128  0.0359
   44bbb    H13 1267   6.858   4.544   7.688  1.3014 -0.1528  0.8634
   44bbb    H14 1268   6.928   4.715   7.684  1.1371  0.1271  0.0422
   44bbb     C8 1269   6.815   4.248   7.070  0.6457  0.0044 -0.5826
   44bbb    H15 1270   6.763   4.164   7.117 -1.9267  1.6305 -0.3573
   44bbb    H16 1271   6.911   4.210   7.033 -0.0492 -1.9551 -0.4753
   44bbb     C9 1272   6.343   4.566   7.411  0.1920 -0.0209  0.4483
   44bbb    H17 1273   6.356   4.616   7.508  1.9826  2.1911 -0.8458
   44bbb    H18 1274   6.302   4.638   7.340  0.2019  0.6123  1.0692
   44bbb     O1 1275   7.038   4.563   7.609  0.2438 -0.0856  0.2362
   45bbb     N1 1276   8.705   5.428   6.731  0.4837 -0.2138 -0.2114
   45bbb     C1 1277   8.836   5.510   6.720  0.4959  0.3391  0.2873
   45bbb     H1 1278   8.820   5.588   6.646 -1.7741  1.3195  1.6954
   45bbb     H2 1279   8.915   5.448   6.675 -0.6314  0.7139 -2.3656
   45bbb     C2 1280   8.645   5.398   6.593 -0.1758  0.8277 -0.6872
   45bbb     H3 1281   8.713   5.350   6.521  0.0687  0.4420 -0.2073
   45bbb     H4 1282   8.618   5.494   6.549  1.3476  1.1479 -0.9528
   45bbb     C3 1283   8.698   5.324   6.834  0.1636 -0.3165 -0.0997
   45bbb     H5 1284   8.597   5.282   6.838 -0.0264  0.0724 -0.6941
   45bbb     H6 1285   8.703   5.371   6.932 -3.2002 -0.7587  0.4032
   45bbb     C4 1286   8.810   5.217   6.805 -0.3837 -1.0322 -0.4713
   45bbb     H7 1287   8.910   5.255   6.827  0.1145 -2.7522  0.4167
   45bbb     H8 1288   8.804   5.190   6.699  0.3320 -0.5003 -0.6505
   45bbb     C5 1289   8.889   5.563   6.855 -0.0384 -0.4375  0.1099
   45bbb     H9 1290   8.919   5.485   6.926  2.4253  0.7443  0.4694
   45bbb    H10 1291   8.813   5.625   6.904 -2.5246 -2.3549 -1.1255
   45bbb     C6 1292   8.525   5.291   6.590 -0.0099 -0.3891 -0.1801
   45bbb    H11 1293   8.436   5.334   6.636 -0.2455 -0.1801 -0.8171
   45bbb    H12 1294   8.543   5.202   6.651 -1.8039 -1.2173 -0.8055
   45bbb     C7 1295   8.797   5.087   6.888  0.0378 -0.3623 -0.2896
   45bbb    H13 1296   8.783   5.108   6.994  1.2409  2.8641 -0.6496
   45bbb    H14 1297   8.881   5.018   6.875  0.1492 -0.1983 -0.4599
   45bbb     C8 1298   8.496   5.236   6.443 -0.3986  0.2226  0.2998
   45bbb    H15 1299   8.441   5.315   6.392 -1.6145 -0.0805  1.1021
   45bbb    H16 1300   8.433   5.147   6.460  2.0001 -1.6661 -0.0579
   45bbb     C9 1301   9.023   5.644   6.835  0.3925 -0.5781 -0.1413
   45bbb    H17 1302   9.094   5.584   6.776 -1.8086 -3.4005 -0.1440
   45bbb    H18 1303   9.064   5.664   6.935  1.2009  0.3631 -0.6484
   45bbb     O1 1304   8.680   5.027   6.833  0.2719  0.2839 -0.0593
   46bbb     N1 1305   8.293   5.094   6.052  0.0577  0.1945  0.4898
   46bbb     C1 1306   8.241   5.176   6.166 -0.5792  0.1320 -0.9201
   46bbb     H1 1307   8.318   5.253   6.175 -0.4503  0.2154 -2.4725
   46bbb     H2 1308   8.236   5.112   6.256 -2.0297  0.1889 -0.9312
   46bbb     C2 1309   8.339   5.179   5.940  0.3668  0.7268  0.4004
   46bbb     H3 1310   8.447   5.193   5.934  0.4107  0.1548 -0.3036
   46bbb     H4 1311   8.292   5.278   5.948 -2.6539 -0.5321 -0.1984
   46bbb     C3 1312   8.393   4.996   6.094  0.1957  0.3364  0.2870
   46bbb     H5 1313   8.447   5.040   6.179 -0.3129 -0.6889  1.1652
   46bbb     H6 1314   8.458   4.971   6.009 -2.3557  0.3863 -1.8083
   46bbb     C4 1315   8.340   4.856   6.141 -0.1345 -0.3822  0.0528
   46bbb     H7 1316   8.303   4.800   6.054 -1.6778  0.6144  0.0268
   46bbb     H8 1317   8.249   4.869   6.201  1.0938 -1.6587  2.3286
   46bbb     C5 1318   8.103   5.242   6.146 -0.2167  0.2077  0.2362
   46bbb     H9 1319   8.044   5.159   6.106  0.7866 -0.2038 -0.3995
   46bbb    H10 1320   8.114   5.315   6.065  0.9694  0.4779  0.6197
   46bbb     C6 1321   8.285   5.119   5.806 -0.1472 -0.6724 -0.2669
   46bbb    H11 1322   8.339   5.025   5.787 -0.2323 -1.0367  1.2383
   46bbb    H12 1323   8.311   5.182   5.719  2.4477 -2.0167 -0.5516
   46bbb     C7 1324   8.432   4.765   6.228 -0.0627  0.1408  0.5115
   46bbb    H13 1325   8.535   4.785   6.197  0.3255  0.5820  2.0198
   46bbb    H14 1326   8.404   4.662   6.206 -0.0319  0.7417 -2.9036
   46bbb     C8 1327   8.135   5.088   5.800 -0.5555  0.0937 -0.1192
   46bbb    H15 1328   8.077   5.164   5.855 -0.3908 -0.1425  0.3930
   46bbb    H16 1329   8.111   5.001   5.863 -0.7782  2.0574  2.6964
   46bbb     C9 1330   8.045   5.306   6.276  0.4060 -0.4734  0.0272
   46bbb    H17 1331   8.113   5.384   6.311 -0.7419  0.2491  0.6955
   46bbb    H18 1332   8.038   5.220   6.344 -1.2205 -0.5825 -0.2514
   46bbb     O1 1333   8.419   4.787   6.370  0.3424 -0.1408  0.1616
   47bbb     N1 1334   7.299   1.591   9.350 -0.8418  0.0988 -0.7611
   47bbb     C1 1335   7.283   1.445   9.344  0.0384 -0.2306 -0.1517
   47bbb     H1 1336   7.254   1.420   9.241  1.9616  0.0250 -0.7893
   47bbb     H2 1337   7.205   1.414   9.414  0.1021  1.9069  0.9570
   47bbb     C2 1338   7.360   1.628   9.481 -0.2512  0.0622 -0.4433
   47bbb     H3 1339   7.398   1.730   9.468 -1.4919  0.6314  0.2053
   47bbb     H4 1340   7.452   1.574   9.504 -0.7462 -1.1212 -1.1724
   47bbb     C3 1341   7.176   1.665   9.311  0.0303 -0.2695 -0.0935
   47bbb     H5 1342   7.192   1.772   9.331  4.0289 -0.1878 -2.4443
   47bbb     H6 1343   7.093   1.636   9.375  0.4838 -0.6141  0.3442
   47bbb     C4 1344   7.148   1.649   9.162 -0.0113  0.2336 -0.0931
   47bbb     H7 1345   7.051   1.697   9.145 -0.8889 -0.8406  1.5573
   47bbb     H8 1346   7.139   1.543   9.134 -1.0945 -0.0931  1.3761
   47bbb     C5 1347   7.412   1.353   9.356 -1.0007  0.0451 -1.3218
   47bbb     H9 1348   7.381   1.248   9.362  1.0850 -0.5887 -0.8336
   47bbb    H10 1349   7.467   1.380   9.448  2.4560 -0.1012 -3.1645
   47bbb     C6 1350   7.262   1.634   9.603 -0.3110 -0.5488  0.0576
   47bbb    H11 1351   7.219   1.534   9.618  0.1093 -1.3073 -3.0620
   47bbb    H12 1352   7.172   1.694   9.586 -0.7898 -1.4525 -0.7489
   47bbb     C7 1353   7.251   1.717   9.074 -0.7842  0.2388 -0.6024
   47bbb    H13 1354   7.347   1.694   9.122 -1.1055 -0.2236 -0.1682
   47bbb    H14 1355   7.248   1.827   9.068 -0.1702  0.3471  0.6894
   47bbb     C8 1356   7.345   1.689   9.725 -0.1068 -0.2654  0.4294
   47bbb    H15 1357   7.385   1.785   9.690  1.9900 -1.2458 -0.0777
   47bbb    H16 1358   7.426   1.618   9.749  0.9822 -0.1147 -2.3367
   47bbb     C9 1359   7.514   1.366   9.241  0.5922 -0.3238 -0.2912
   47bbb    H17 1360   7.534   1.474   9.235  0.0816 -0.1287  1.0567
   47bbb    H18 1361   7.462   1.352   9.146  1.8467 -0.5555 -0.9690
   47bbb     O1 1362   7.246   1.664   8.943  0.1026 -0.1867 -0.4307
   48bbb     N1 1363   7.706   1.443   8.064  0.1872 -0.5692  0.1272
   48bbb     C1 1364   7.806   1.458   7.956  0.2140 -0.1670 -1.1225
   48bbb     H1 1365   7.879   1.377   7.954 -0.9659 -1.2562 -2.0202
   48bbb     H2 1366   7.853   1.558   7.960  1.1446 -0.6413  1.6528
   48bbb     C2 1367   7.584   1.521   8.058  0.7568 -0.4985  0.4093
   48bbb     H3 1368   7.522   1.483   8.140 -0.6304 -1.4155 -0.9940
   48bbb     H4 1369   7.530   1.512   7.963  1.1102  0.0527  0.1519
   48bbb     C3 1370   7.775   1.436   8.194  0.2047  1.0207 -0.3229
   48bbb     H5 1371   7.696   1.441   8.270 -0.0947 -1.6084 -0.3844
   48bbb     H6 1372   7.825   1.532   8.211 -1.6004  1.6166  2.2806
   48bbb     C4 1373   7.865   1.320   8.218  0.4885 -0.1161 -0.5132
   48bbb     H7 1374   7.947   1.332   8.146  0.7034 -0.1439 -0.2737
   48bbb     H8 1375   7.813   1.229   8.184 -1.3894  1.5186 -2.2838
   48bbb     C5 1376   7.753   1.456   7.813  1.0374 -0.0360  0.0974
   48bbb     H9 1377   7.689   1.543   7.792  0.5737 -0.7367 -1.5209
   48bbb    H10 1378   7.685   1.370   7.815  1.4167 -0.3289  0.6443
   48bbb     C6 1379   7.597   1.668   8.091  0.8227 -0.0582 -0.9213
   48bbb    H11 1380   7.655   1.711   8.008  2.4098 -1.5215 -0.6314
   48bbb    H12 1381   7.659   1.685   8.179 -1.8203 -1.8792  1.4678
   48bbb     C7 1382   7.908   1.311   8.365  1.0134 -0.6335  0.6100
   48bbb    H13 1383   7.972   1.397   8.392 -2.2093  1.4673  2.1856
   48bbb    H14 1384   7.965   1.222   8.393  1.6545  0.0460  1.5477
   48bbb     C8 1385   7.459   1.737   8.098  0.2457  0.5006 -0.2444
   48bbb    H15 1386   7.411   1.717   8.001 -0.4652 -2.1857  0.5597
   48bbb    H16 1387   7.471   1.844   8.117  2.9935  0.0022  1.3988
   48bbb     C9 1388   7.859   1.434   7.708  0.1575 -0.0947  0.0953
   48bbb    H17 1389   7.908   1.338   7.726  0.3262 -0.6708 -2.9417
   48bbb    H18 1390   7.943   1.503   7.724  1.7076 -1.9686  0.3097
   48bbb     O1 1391   7.786   1.316   8.442 -0.2772  0.4279  0.2315
   49bbb     N1 1392   8.196   3.068   9.103 -0.3066  0.1995  0.4249
   49bbb     C1 1393   8.315   3.149   9.071  0.3412 -0.1080  0.2755
   49bbb     H1 1394   8.287   3.214   8.987  0.5684 -0.2784  0.0673
   49bbb     H2 1395   8.394   3.078   9.043 -1.2969 -2.6867  1.7581
   49bbb     C2 1396   8.211   2.972   9.220  0.1858  0.0573  0.4589
   49bbb     H3 1397   8.247   3.025   9.309 -1.3125  1.5775  0.2091
   49bbb     H4 1398   8.292   2.904   9.191  0.4331  1.0241 -1.2545
   49bbb     C3 1399   8.138   3.005   8.976 -0.5268 -0.7268 -0.7638
   49bbb     H5 1400   8.063   2.929   8.998  0.8463 -1.7942  0.3694
   49bbb     H6 1401   8.221   2.964   8.918  1.1953  3.1821 -1.3771
   49bbb     C4 1402   8.076   3.114   8.888 -0.1744 -0.0312 -0.2369
   49bbb     H7 1403   8.163   3.143   8.827  2.6041 -3.8569  1.5043
   49bbb     H8 1404   8.040   3.206   8.936 -0.2664 -0.6778  0.9844
   49bbb     C5 1405   8.360   3.254   9.173  0.3692  0.3084  0.2246
   49bbb     H9 1406   8.441   3.319   9.135 -0.8743  1.5546 -0.3830
   49bbb    H10 1407   8.408   3.199   9.255 -1.0080  0.4686  1.1580
   49bbb     C6 1408   8.077   2.897   9.258  0.6637  1.0925 -0.3151
   49bbb    H11 1409   8.049   2.817   9.189  0.0694  0.4310  0.6624
   49bbb    H12 1410   7.995   2.970   9.261 -0.4546 -0.0226 -2.2462
   49bbb     C7 1411   7.969   3.059   8.796 -0.1294 -0.8118 -0.1095
   49bbb    H13 1412   8.024   3.005   8.719  2.1839 -0.7086  1.3745
   49bbb    H14 1413   7.923   3.147   8.749  1.9333 -0.1802 -1.0855
   49bbb     C8 1414   8.101   2.830   9.394  0.7475  0.6238  0.1214
   49bbb    H15 1415   8.122   2.901   9.475  0.7042 -0.4136  1.0633
   49bbb    H16 1416   8.191   2.769   9.380  0.5174  0.7803 -2.4717
   49bbb     C9 1417   8.241   3.345   9.225  0.1224  0.4119 -0.3177
   49bbb    H17 1418   8.164   3.284   9.272  0.5603  0.2313  0.1840
   49bbb    H18 1419   8.199   3.407   9.145 -0.8186  0.8751  0.4969
   49bbb     O1 1420   7.872   2.984   8.868  0.1952 -0.4026 -0.4031
   50bbb     N1 1421   7.167   3.188   8.816 -0.3431 -0.1457  0.8562
   50bbb     C1 1422   7.187   3.063   8.736  0.6477 -0.4084 -0.5258
   50bbb     H1 1423   7.170   3.080   8.629 -0.6858 -0.9672 -0.4170
   50bbb     H2 1424   7.108   2.989   8.756  0.7417 -0.6509 -1.0280
   50bbb     C2 1425   7.031   3.243   8.787  0.6667 -0.8496 -0.0370
   50bbb     H3 1426   7.020   3.319   8.866 -1.3246 -1.6177  0.5054
   50bbb     H4 1427   6.951   3.168   8.793 -0.1646  0.0481  0.4687
   50bbb     C3 1428   7.200   3.172   8.965 -0.1028 -0.5301  0.5129
   50bbb     H5 1429   7.192   3.271   9.012 -0.0460 -0.8661  1.2550
   50bbb     H6 1430   7.300   3.131   8.984 -0.4006 -0.7095  1.7970
   50bbb     C4 1431   7.108   3.079   9.037 -0.3377 -0.4265 -0.4694
   50bbb     H7 1432   7.115   2.979   8.992  1.5874 -0.6812  0.2907
   50bbb     H8 1433   7.004   3.114   9.040 -0.0897  0.2967  0.0144
   50bbb     C5 1434   7.323   2.989   8.757  0.0584 -0.2423 -0.2919
   50bbb     H9 1435   7.320   2.947   8.858 -1.3679 -0.1332 -0.2610
   50bbb    H10 1436   7.407   3.059   8.764  0.7865 -1.2788  3.1362
   50bbb     C6 1437   7.018   3.312   8.654 -0.4027 -0.0590 -0.5874
   50bbb    H11 1438   7.033   3.237   8.575  2.0719  0.8947 -1.1315
   50bbb    H12 1439   7.090   3.391   8.627 -0.4375 -0.3215 -1.4830
   50bbb     C7 1440   7.158   3.071   9.183 -0.4021  0.3625 -0.3770
   50bbb    H13 1441   7.095   2.993   9.227  0.2237 -0.2220 -0.4905
   50bbb    H14 1442   7.155   3.163   9.242  0.6241 -0.7783  1.5622
   50bbb     C8 1443   6.880   3.389   8.648  0.0864  0.0953 -0.0903
   50bbb    H15 1444   6.894   3.452   8.559  0.7453  0.6269  0.3723
   50bbb    H16 1445   6.877   3.461   8.731  1.1324  2.3335 -1.8581
   50bbb     C9 1446   7.336   2.879   8.651  0.3207 -0.1726 -0.1891
   50bbb    H17 1447   7.442   2.856   8.635  0.5372  1.4530 -1.4467
   50bbb    H18 1448   7.308   2.918   8.551  2.9585 -1.5589 -1.5536
   50bbb     O1 1449   7.299   3.021   9.189  0.2364 -0.4131 -0.1573
   51bbb     N1 1450  10.351   1.343   7.478  0.4159 -0.2194  0.2352
   51bbb     C1 1451  10.441   1.245   7.545 -0.3257  0.3359 -0.6077
   51bbb     H1 1452  10.390   1.176   7.614 -0.3806  0.8078 -0.1707
   51bbb     H2 1453  10.518   1.296   7.604 -0.2523 -1.5364  1.0254
   51bbb     C2 1454  10.401   1.436   7.379  0.1174  0.1107 -0.4482
   51bbb     H3 1455  10.315   1.473   7.322 -0.5548  1.0678  1.1201
   51bbb     H4 1456  10.471   1.376   7.320 -1.3017 -2.6859  0.5383
   51bbb     C3 1457  10.243   1.396   7.570 -0.4194 -0.7855  0.3322
   51bbb     H5 1458  10.297   1.470   7.631  1.0850 -1.6104  0.0503
   51bbb     H6 1459  10.212   1.316   7.637 -2.0135  0.3388  0.9954
   51bbb     C4 1460  10.120   1.459   7.500 -0.3726  0.0785  0.3225
   51bbb     H7 1461  10.089   1.400   7.413 -3.3342  0.7378  0.8059
   51bbb     H8 1462  10.148   1.558   7.462 -0.7488  0.3764  0.8098
   51bbb     C5 1463  10.535   1.156   7.456 -0.4707  0.7085 -0.1974
   51bbb     H9 1464  10.611   1.223   7.414 -1.9690  1.6628 -1.4934
   51bbb    H10 1465  10.492   1.100   7.372 -0.8111 -0.6763  0.8662
   51bbb     C6 1466  10.480   1.549   7.447 -0.3788 -0.5777  0.1611
   51bbb    H11 1467  10.545   1.490   7.513  1.0007  1.7076  0.9315
   51bbb    H12 1468  10.421   1.618   7.509  0.7957  0.9706 -0.3799
   51bbb     C7 1469  10.003   1.466   7.592  0.2503  0.5860 -0.7878
   51bbb    H13 1470   9.968   1.367   7.624 -2.4540  1.2487 -1.4870
   51bbb    H14 1471   9.916   1.516   7.548 -1.3014  0.5302  1.9601
   51bbb     C8 1472  10.567   1.622   7.344 -0.6702  0.1429  0.0918
   51bbb    H15 1473  10.506   1.685   7.279 -1.7023 -0.2089  0.6993
   51bbb    H16 1474  10.617   1.545   7.285 -0.3143  1.1718 -0.9928
   51bbb     C9 1475  10.605   1.049   7.549  0.2876  0.1251 -0.1873
   51bbb    H17 1476  10.677   1.005   7.480  0.8449  1.0633 -0.2170
   51bbb    H18 1477  10.539   0.971   7.589  1.2607 -1.0068 -0.7105
   51bbb     O1 1478  10.043   1.544   7.712  0.4115  0.4269  0.0019
   52bbb     N1 1479  10.466   0.940   8.607 -0.0836 -0.2771 -0.8211
   52bbb     C1 1480  10.346   0.896   8.679  0.0176 -0.6807  0.1233
   52bbb     H1 1481  10.354   0.794   8.717  2.1299 -0.6408 -0.0987
   52bbb     H2 1482  10.258   0.898   8.613  1.4019  2.3038 -1.8579
   52bbb     C2 1483  10.515   0.855   8.495 -0.3307 -0.0480  0.5951
   52bbb     H3 1484  10.608   0.891   8.450 -1.4537  1.9473 -0.2607
   52bbb     H4 1485  10.450   0.856   8.407  1.9279 -1.0834 -1.1741
   52bbb     C3 1486  10.468   1.085   8.572 -0.5387  0.4735 -0.3524
   52bbb     H5 1487  10.568   1.114   8.538 -0.1943 -1.2965 -0.9961
   52bbb     H6 1488  10.459   1.139   8.666  1.2060 -2.8014  1.8771
   52bbb     C4 1489  10.359   1.127   8.469 -0.4896  0.1756 -0.1152
   52bbb     H7 1490  10.258   1.089   8.487 -0.7670  0.3280 -1.2928
   52bbb     H8 1491  10.375   1.080   8.371  1.1422 -0.5651  0.4600
   52bbb     C5 1492  10.300   0.983   8.803  0.3233 -0.3292  0.6313
   52bbb     H9 1493  10.246   1.070   8.766  0.7130 -0.5142 -0.4125
   52bbb    H10 1494  10.389   1.017   8.858  1.4835 -0.4539 -1.0893
   52bbb     C6 1495  10.529   0.700   8.536 -0.4566  0.7470  1.1776
   52bbb    H11 1496  10.565   0.677   8.637 -0.4472  0.9278  1.2162
   52bbb    H12 1497  10.605   0.672   8.462 -1.6815  1.0176 -0.2430
   52bbb     C7 1498  10.360   1.280   8.442  0.2581 -0.5555  0.3669
   52bbb    H13 1499  10.457   1.300   8.395 -0.1149  0.5564  0.0422
   52bbb    H14 1500  10.356   1.335   8.537  2.9847  0.2782  0.0826
   52bbb     C8 1501  10.411   0.617   8.494  0.4642  0.8692  0.5521
   52bbb    H15 1502  10.374   0.648   8.396  0.6876  2.4538  0.9299
   52bbb    H16 1503  10.331   0.637   8.567 -1.3166  1.3116 -1.4402
   52bbb     C9 1504  10.215   0.896   8.900  0.4926 -0.2706 -1.3060
   52bbb    H17 1505  10.184   0.963   8.981  0.7564 -0.1439 -1.3094
   52bbb    H18 1506  10.275   0.813   8.938 -0.1266 -0.8262 -1.5222
   52bbb     O1 1507  10.249   1.320   8.359  0.5057  0.3613  0.3030
   53bbb     N1 1508   9.753   3.569   9.642 -0.3086  0.1364  0.2101
   53bbb     C1 1509   9.831   3.694   9.620 -0.7955 -0.1161 -0.6302
   53bbb     H1 1510   9.805   3.741   9.524  0.9914 -0.0129 -1.0976
   53bbb     H2 1511   9.936   3.672   9.599 -0.3925  1.9509 -1.0596
   53bbb     C2 1512   9.605   3.593   9.659 -0.7436  0.4322  0.0193
   53bbb     H3 1513   9.597   3.666   9.740  0.5412  2.7314 -1.7813
   53bbb     H4 1514   9.550   3.501   9.679 -2.5361  1.0946 -1.5334
   53bbb     C3 1515   9.780   3.466   9.532  0.7686  0.3041 -0.0097
   53bbb     H5 1516   9.753   3.512   9.436  0.6155 -1.3040 -0.7702
   53bbb     H6 1517   9.715   3.378   9.539  1.6569 -0.3694 -0.1038
   53bbb     C4 1518   9.927   3.419   9.505 -0.4333  0.3398  0.5496
   53bbb     H7 1519   9.965   3.390   9.604  2.9100 -0.6270 -0.8787
   53bbb     H8 1520   9.981   3.505   9.464  0.8515 -0.5999  0.2195
   53bbb     C5 1521   9.827   3.802   9.736 -1.4037 -0.1972  0.1435
   53bbb     H9 1522   9.829   3.743   9.828  0.7816 -0.2053  0.1430
   53bbb    H10 1523   9.743   3.873   9.740 -0.5516  0.8114  0.5058
   53bbb     C6 1524   9.535   3.640   9.527  0.6635 -0.3047  0.4906
   53bbb    H11 1525   9.553   3.572   9.443  0.3408 -0.9305  0.9137
   53bbb    H12 1526   9.570   3.742   9.510 -1.6855  0.6383  0.8585
   53bbb     C7 1527   9.936   3.299   9.401  0.0221 -0.4332  0.0469
   53bbb    H13 1528  10.037   3.276   9.366 -0.3399 -3.6269  0.7927
   53bbb    H14 1529   9.869   3.317   9.315  0.6899 -0.0789 -0.4040
   53bbb     C8 1530   9.378   3.644   9.552  0.8088 -0.4097 -0.3128
   53bbb    H15 1531   9.343   3.552   9.600  0.7396 -0.0400  0.3547
   53bbb    H16 1532   9.334   3.647   9.452 -1.4126  0.6405  0.6234
   53bbb     C9 1533   9.956   3.894   9.750 -0.6920  0.4300  0.0036
   53bbb    H17 1534  10.042   3.834   9.784 -0.8888  1.5986  2.8219
   53bbb    H18 1535   9.934   3.964   9.831 -1.7868 -1.9593  1.8662
   53bbb     O1 1536   9.894   3.185   9.472  0.4785 -0.0463  0.1213
   54bbb     N1 1537  10.406   2.325  10.224 -0.6697  0.0848  0.1104
   54bbb     C1 1538  10.408   2.189  10.151 -0.5206  0.4492  0.3093
   54bbb     H1 1539  10.306   2.154  10.131 -1.8612  3.1248  1.7858
   54bbb     H2 1540  10.451   2.119  10.223  0.8951  0.6011 -0.3445
   54bbb     C2 1541  10.315   2.338  10.341 -0.0254  0.0548 -0.9079
   54bbb     H3 1542  10.321   2.248  10.403 -2.9641 -1.7643 -2.9992
   54bbb     H4 1543  10.212   2.352  10.304  0.0001  0.7790 -0.7256
   54bbb     C3 1544  10.414   2.444  10.140  0.0120  0.5100  0.9626
   54bbb     H5 1545  10.505   2.432  10.079 -1.0994 -1.8007 -0.3779
   54bbb     H6 1546  10.430   2.534  10.201  0.3870  0.3989  1.0320
   54bbb     C4 1547  10.285   2.463  10.049 -0.8415 -0.6674  0.6383
   54bbb     H7 1548  10.202   2.490  10.116 -0.9564 -0.4463  0.4105
   54bbb     H8 1549  10.273   2.362  10.009  1.4720 -1.3702  1.5463
   54bbb     C5 1550  10.486   2.178  10.026 -0.2656 -0.2953 -0.6523
   54bbb     H9 1551  10.469   2.265   9.960 -0.1485  1.5994  1.6775
   54bbb    H10 1552  10.453   2.091   9.968 -1.1140 -0.5221  0.1475
   54bbb     C6 1553  10.333   2.467  10.437 -0.1141  0.5635  0.3552
   54bbb    H11 1554  10.327   2.564  10.386  0.4825  0.4367  0.0364
   54bbb    H12 1555  10.437   2.464  10.471 -0.4368  0.6374  1.3675
   54bbb     C7 1556  10.311   2.569   9.941 -0.2671  0.1001 -0.8542
   54bbb    H13 1557  10.408   2.543   9.896  0.7443  0.4734  1.0316
   54bbb    H14 1558  10.325   2.670   9.981 -0.7959 -1.2338  3.0903
   54bbb     C8 1559  10.249   2.441  10.568  0.0457 -0.2477 -0.4667
   54bbb    H15 1560  10.271   2.515  10.645 -1.4524  0.2210 -0.4622
   54bbb    H16 1561  10.288   2.345  10.605 -0.2721 -0.2256 -0.0766
   54bbb     C9 1562  10.640   2.159  10.060  0.3020  0.3292  0.2099
   54bbb    H17 1563  10.653   2.086  10.141  1.5153  2.0874  1.6902
   54bbb    H18 1564  10.678   2.250  10.110 -2.1663  1.0250  1.0000
   54bbb     O1 1565  10.204   2.570   9.850  0.0964 -0.0018 -0.5409
   55bbb     N1 1566   7.893   2.881   5.748 -0.9797 -0.0387 -0.1852
   55bbb     C1 1567   8.003   2.849   5.644  1.2302 -0.1079  0.2598
   55bbb     H1 1568   7.958   2.861   5.545 -0.5133 -1.2812  0.8514
   55bbb     H2 1569   8.034   2.745   5.655  0.8700 -0.2275  0.1738
   55bbb     C2 1570   7.757   2.897   5.700 -0.7327  0.2695  0.4415
   55bbb     H3 1571   7.690   2.929   5.781 -2.3747  2.6193 -1.6956
   55bbb     H4 1572   7.715   2.807   5.654 -0.8401  1.2061 -1.3885
   55bbb     C3 1573   7.901   2.801   5.874  0.1686  0.5501  0.0009
   55bbb     H5 1574   8.001   2.754   5.877  1.2082  2.5720 -1.0441
   55bbb     H6 1575   7.820   2.727   5.876  0.6758 -0.0443 -0.8583
   55bbb     C4 1576   7.881   2.903   5.992  0.3189  0.0933 -0.4064
   55bbb     H7 1577   7.851   2.861   6.088  1.0478 -1.0594 -0.6600
   55bbb     H8 1578   7.800   2.969   5.961 -0.6723 -0.5188  0.8183
   55bbb     C5 1579   8.124   2.938   5.656 -0.0096 -0.4828 -0.0183
   55bbb     H9 1580   8.096   3.036   5.696 -0.7726 -1.2134  1.2674
   55bbb    H10 1581   8.155   2.966   5.554  1.8617  2.1367  1.1643
   55bbb     C6 1582   7.735   3.004   5.591 -0.3461  1.0320  0.5552
   55bbb    H11 1583   7.628   3.025   5.586 -0.1607  1.9168  0.0102
   55bbb    H12 1584   7.773   2.965   5.496 -0.0584 -4.3742  2.5479
   55bbb     C7 1585   8.005   2.989   6.021  0.1450 -0.7649 -0.1719
   55bbb    H13 1586   8.020   3.052   5.933  2.8546 -2.1866 -0.8623
   55bbb    H14 1587   8.094   2.924   6.028 -0.3565 -1.4944 -0.4666
   55bbb     C8 1588   7.803   3.138   5.627  0.3414 -0.3020  0.4074
   55bbb    H15 1589   7.906   3.119   5.660  0.9710  3.1227  0.8229
   55bbb    H16 1590   7.749   3.177   5.715  1.2609  0.4556  0.6506
   55bbb     C9 1591   8.242   2.884   5.744  0.2452 -0.4427 -0.7039
   55bbb    H17 1592   8.203   2.868   5.846  2.4207  0.7672  0.3886
   55bbb    H18 1593   8.316   2.964   5.747  1.3124 -1.4017 -0.2707
   55bbb     O1 1594   7.994   3.067   6.143  0.5186 -0.3265  0.2721
   56bbb     N1 1595   7.941   3.847   6.264  0.2136  0.1882  0.0775
   56bbb     C1 1596   8.073   3.903   6.304  0.3191  0.0887  0.4388
   56bbb     H1 1597   8.107   3.966   6.221 -1.6057  0.2759 -0.2730
   56bbb     H2 1598   8.153   3.828   6.304 -0.6017 -0.9347  0.2307
   56bbb     C2 1599   7.930   3.842   6.120  0.0269  0.3394  0.3261
   56bbb     H3 1600   7.850   3.770   6.098 -0.5897  0.7925  1.0427
   56bbb     H4 1601   8.024   3.807   6.076 -0.5721  0.6114 -1.2431
   56bbb     C3 1602   7.913   3.721   6.342  0.3868  0.6054  0.1709
   56bbb     H5 1603   7.948   3.741   6.443  1.1837  1.4545 -0.2596
   56bbb     H6 1604   7.987   3.650   6.304 -0.7772  0.1716 -1.3933
   56bbb     C4 1605   7.765   3.672   6.332  0.1752 -0.7300  0.1227
   56bbb     H7 1606   7.716   3.669   6.234 -1.7087 -1.0358  1.0376
   56bbb     H8 1607   7.711   3.753   6.382  0.1222 -0.3617 -0.5185
   56bbb     C5 1608   8.078   3.972   6.440 -0.6172 -0.2314  0.0294
   56bbb     H9 1609   8.081   3.908   6.529  1.6917  0.1708  0.2970
   56bbb    H10 1610   7.990   4.038   6.448 -0.3882 -0.0795  1.5644
   56bbb     C6 1611   7.882   3.979   6.052  0.1528 -0.2825  0.3794
   56bbb    H11 1612   7.888   3.973   5.942  0.9228  2.4481  0.1816
   56bbb    H12 1613   7.959   4.056   6.067 -0.0010  0.2829 -1.3978
   56bbb     C7 1614   7.749   3.541   6.414  0.1865 -0.5091 -0.1239
   56bbb    H13 1615   7.809   3.468   6.358 -0.1861  0.1201 -1.3696
   56bbb    H14 1616   7.642   3.520   6.412 -0.1294  0.8943  0.4072
   56bbb     C8 1617   7.742   4.028   6.091 -0.0075 -0.1079  0.0410
   56bbb    H15 1618   7.752   4.136   6.107  0.9068 -0.3644  1.3076
   56bbb    H16 1619   7.714   3.993   6.191 -0.8480 -3.4260 -1.2213
   56bbb     C9 1620   8.203   4.069   6.453 -0.7499 -0.0621  0.0984
   56bbb    H17 1621   8.184   4.134   6.540  0.9727 -0.5046  0.8374
   56bbb    H18 1622   8.213   4.129   6.361 -4.3072 -1.7956 -1.6368
   56bbb     O1 1623   7.806   3.548   6.550 -0.0274 -0.3425 -0.3540
   57bbb     N1 1624   8.620   2.441   6.543  0.1906  0.1565  0.3129
   57bbb     C1 1625   8.731   2.378   6.475 -0.1194 -0.2239 -0.3587
   57bbb     H1 1626   8.770   2.442   6.394 -0.3682 -0.0669 -0.3567
   57bbb     H2 1627   8.696   2.289   6.422 -0.7654  0.1408 -0.5580
   57bbb     C2 1628   8.646   2.587   6.579  0.1029 -0.4930 -0.3332
   57bbb     H3 1629   8.626   2.662   6.502 -1.7911 -0.3432  0.2482
   57bbb     H4 1630   8.755   2.593   6.593  0.2735 -2.9872 -0.1500
   57bbb     C3 1631   8.489   2.415   6.489 -0.1870 -0.5819  0.3405
   57bbb     H5 1632   8.488   2.459   6.388 -2.8529 -0.0449  0.5337
   57bbb     H6 1633   8.408   2.476   6.531  0.8424  1.2134 -0.1758
   57bbb     C4 1634   8.438   2.275   6.501 -0.9780  0.9220 -0.0341
   57bbb     H7 1635   8.506   2.197   6.464 -1.4330  1.1231 -1.3707
   57bbb     H8 1636   8.355   2.264   6.430  0.4735  1.4936 -1.9191
   57bbb     C5 1637   8.845   2.341   6.573 -0.6188  0.3404  0.0293
   57bbb     H9 1638   8.795   2.324   6.669 -2.5331 -0.6822 -1.0818
   57bbb    H10 1639   8.900   2.433   6.594 -0.9770  0.4403  0.5634
   57bbb     C6 1640   8.592   2.642   6.711  0.3671 -0.6531  0.4316
   57bbb    H11 1641   8.483   2.637   6.694  0.6618  0.4009 -2.2846
   57bbb    H12 1642   8.626   2.746   6.723 -0.1608  0.1706 -3.7248
   57bbb     C7 1643   8.395   2.236   6.645 -0.4981  0.6718 -0.0710
   57bbb    H13 1644   8.474   2.265   6.716 -0.9046 -0.2381  0.7728
   57bbb    H14 1645   8.376   2.128   6.637  3.0564 -0.0727 -0.1122
   57bbb     C8 1646   8.628   2.548   6.834 -0.2208  0.1451  0.0927
   57bbb    H15 1647   8.627   2.444   6.800  1.3573  1.0715 -3.2279
   57bbb    H16 1648   8.552   2.552   6.912 -2.4434 -1.2560 -1.8689
   57bbb     C9 1649   8.951   2.238   6.526 -0.6759 -0.4719 -0.2052
   57bbb    H17 1650   9.020   2.222   6.610  1.3652 -0.0210 -1.7259
   57bbb    H18 1651   9.011   2.286   6.449  1.3158  1.3687  2.2997
   57bbb     O1 1652   8.280   2.309   6.687  0.4138 -0.3048  0.1703
   58bbb     N1 1653   7.496   2.639   6.339  0.5112  0.4466 -0.2349
   58bbb     C1 1654   7.496   2.492   6.317  0.5283 -0.6145 -1.0420
   58bbb     H1 1655   7.588   2.470   6.261  0.4057 -2.9122 -0.4699
   58bbb     H2 1656   7.410   2.474   6.251 -0.7972 -0.2449  0.5252
   58bbb     C2 1657   7.365   2.694   6.386  0.6232 -0.3375 -0.2406
   58bbb     H3 1658   7.378   2.800   6.408 -3.2944  0.4677 -0.9622
   58bbb     H4 1659   7.349   2.645   6.483  0.8098 -1.5411 -0.7979
   58bbb     C3 1660   7.614   2.693   6.412 -0.6173  1.2125  0.1078
   58bbb     H5 1661   7.645   2.629   6.496  2.2079  2.2520 -0.0168
   58bbb     H6 1662   7.594   2.794   6.450 -2.9123  0.6386  0.5994
   58bbb     C4 1663   7.735   2.692   6.320 -0.9155  0.0112  0.2572
   58bbb     H7 1664   7.704   2.727   6.221 -0.1104 -0.6538 -0.2441
   58bbb     H8 1665   7.774   2.590   6.308  0.1408  0.2916  1.1838
   58bbb     C5 1666   7.474   2.406   6.440  0.0048  0.2500  0.2911
   58bbb     H9 1667   7.371   2.411   6.477  0.7137  0.3360  2.4131
   58bbb    H10 1668   7.539   2.445   6.520  0.9657  0.4577 -0.5574
   58bbb     C6 1669   7.251   2.689   6.285  0.3768  0.1159  0.1061
   58bbb    H11 1670   7.157   2.719   6.332  0.8233  0.6281  0.7038
   58bbb    H12 1671   7.230   2.588   6.249  0.0705  0.6479 -1.2765
   58bbb     C7 1672   7.847   2.782   6.381 -0.1503  0.4745 -0.0496
   58bbb    H13 1673   7.800   2.879   6.402  0.8213  0.5941  1.7679
   58bbb    H14 1674   7.922   2.797   6.302 -2.0955  0.6309 -1.9535
   58bbb     C8 1675   7.262   2.795   6.175 -0.2042  0.3957  0.7371
   58bbb    H15 1676   7.363   2.796   6.133 -0.9141  1.1524 -1.0460
   58bbb    H16 1677   7.249   2.896   6.215 -0.3200  1.3879 -1.6457
   58bbb     C9 1678   7.507   2.256   6.416  0.0717 -0.5353 -0.8107
   58bbb    H17 1679   7.485   2.208   6.512 -3.1110  1.1360 -0.5689
   58bbb    H18 1680   7.612   2.233   6.394  0.6832  1.1236  0.2359
   58bbb     O1 1681   7.908   2.721   6.504  0.1040 -0.5190 -0.0745
   59bbb     N1 1682  10.267   3.277   7.160  0.3130 -0.2301  0.2445
   59bbb     C1 1683  10.214   3.354   7.267 -0.0766 -0.1641 -0.0447
   59bbb     H1 1684  10.285   3.430   7.302  0.1804  0.0819 -1.0689
   59bbb     H2 1685  10.188   3.287   7.350 -1.4849  0.3396 -0.0538
   59bbb     C2 1686  10.413   3.242   7.174 -0.1008 -0.4014 -0.5595
   59bbb     H3 1687  10.466   3.334   7.202 -1.0460 -0.3197  1.0786
   59bbb     H4 1688  10.463   3.212   7.081 -3.6159 -2.3872 -2.0138
   59bbb     C3 1689  10.177   3.164   7.112 -0.3111 -0.4755 -0.3569
   59bbb     H5 1690  10.079   3.205   7.085  0.0678  1.1577  0.5734
   59bbb     H6 1691  10.166   3.093   7.194  3.7559 -0.0032  0.8180
   59bbb     C4 1692  10.239   3.076   6.998 -0.0550 -0.3135 -0.1615
   59bbb     H7 1693  10.324   3.015   7.033 -0.0070  0.6230  1.4307
   59bbb     H8 1694  10.290   3.138   6.924  0.6959 -0.3798  0.2881
   59bbb     C5 1695  10.081   3.426   7.226 -0.0934  0.2683 -0.0756
   59bbb     H9 1696   9.996   3.359   7.210 -0.1019  0.6709 -2.0061
   59bbb    H10 1697  10.103   3.482   7.134  1.2695  3.1389  1.8442
   59bbb     C6 1698  10.451   3.144   7.285 -0.0110  0.1934 -0.2040
   59bbb    H11 1699  10.401   3.048   7.265  2.6758 -1.2472 -0.3700
   59bbb    H12 1700  10.409   3.181   7.380 -0.2099  0.7128 -0.4938
   59bbb     C7 1701  10.139   2.978   6.935  0.0915 -0.3806 -0.1176
   59bbb    H13 1702  10.186   2.927   6.850 -0.9758  1.0957 -1.6746
   59bbb    H14 1703  10.052   3.036   6.899 -0.1495 -1.5262 -1.4543
   59bbb     C8 1704  10.599   3.108   7.304 -1.1938 -0.1832 -0.1150
   59bbb    H15 1705  10.656   3.199   7.324 -1.6102  0.3715 -1.3289
   59bbb    H16 1706  10.638   3.075   7.207 -0.2515  0.5859 -0.0185
   59bbb     C9 1707  10.033   3.547   7.315  0.0018  0.1296  0.3483
   59bbb    H17 1708   9.926   3.562   7.293 -0.0241 -0.6074 -0.0430
   59bbb    H18 1709  10.081   3.642   7.291 -1.0513  0.4331 -0.7013
   59bbb     O1 1710  10.094   2.888   7.032  0.6455  0.4236 -0.3211
   60bbb     N1 1711   9.596   2.481   6.227  0.1476  0.1971 -0.0991
   60bbb     C1 1712   9.510   2.383   6.297  0.0669  0.2871  0.2952
   60bbb     H1 1713   9.498   2.422   6.399  0.7884 -0.6542  0.7527
   60bbb     H2 1714   9.563   2.288   6.309 -0.1291  0.0659 -0.5577
   60bbb     C2 1715   9.612   2.461   6.082 -0.0886 -0.1745  0.4568
   60bbb     H3 1716   9.513   2.442   6.037 -0.1979  0.0266  0.6105
   60bbb     H4 1717   9.677   2.376   6.058  0.3671  1.1450 -3.7061
   60bbb     C3 1718   9.713   2.530   6.309 -0.0842  0.3028  0.1142
   60bbb     H5 1719   9.671   2.557   6.407 -1.4787  0.9326 -0.6190
   60bbb     H6 1720   9.765   2.617   6.266  0.0610  1.2042  2.0157
   60bbb     C4 1721   9.822   2.419   6.322  0.1144  0.2989  0.5211
   60bbb     H7 1722   9.884   2.420   6.231 -1.7652  1.4922 -0.8153
   60bbb     H8 1723   9.793   2.313   6.330 -0.0266  0.3665  0.9174
   60bbb     C5 1724   9.373   2.344   6.237  0.6229  0.4257 -0.1224
   60bbb     H9 1725   9.330   2.266   6.301 -0.9346  0.0024 -1.6410
   60bbb    H10 1726   9.389   2.292   6.142  0.6691  0.3459 -0.0707
   60bbb     C6 1727   9.660   2.580   5.999  0.2168 -0.6260  0.0222
   60bbb    H11 1728   9.671   2.550   5.894 -1.2925  0.1060 -0.3671
   60bbb    H12 1729   9.763   2.608   6.027  0.3173  1.1184 -1.8392
   60bbb     C7 1730   9.921   2.434   6.437 -0.4276  0.6201  0.4442
   60bbb    H13 1731   9.973   2.530   6.423  1.5243 -0.3473  0.6262
   60bbb    H14 1732   9.996   2.354   6.445  0.4688  1.4659  0.7109
   60bbb     C8 1733   9.554   2.701   6.004  0.3796 -0.9302 -0.7168
   60bbb    H15 1734   9.535   2.723   6.110  0.2682 -1.8457 -0.5341
   60bbb    H16 1735   9.454   2.674   5.968 -0.9947 -0.6049  2.4951
   60bbb     C9 1736   9.270   2.463   6.220  0.4789 -0.1027  0.3763
   60bbb    H17 1737   9.175   2.416   6.191  0.6808 -0.9521  1.0635
   60bbb    H18 1738   9.291   2.544   6.148 -0.8571 -1.0222 -1.0973
   60bbb     O1 1739   9.845   2.429   6.559  0.4202  0.0668  0.3459
   61bbb     N1 1740   9.773   0.544   7.645  0.1759 -0.1457 -0.4690
   61bbb     C1 1741   9.836   0.570   7.774 -0.1544  0.0859  0.1442
   61bbb     H1 1742   9.927   0.630   7.757  0.4678 -1.3273 -2.0382
   61bbb     H2 1743   9.867   0.474   7.818 -1.0390  0.2049  1.0636
   61bbb     C2 1744   9.648   0.458   7.666 -0.5077 -0.3802  0.1731
   61bbb     H3 1745   9.567   0.531   7.682 -1.5285 -1.2032 -1.0428
   61bbb     H4 1746   9.660   0.378   7.740  1.3783 -1.7851 -1.5558
   61bbb     C3 1747   9.776   0.656   7.545 -0.1420 -0.2662  0.2333
   61bbb     H5 1748   9.791   0.607   7.448  2.7851 -0.4453  0.7051
   61bbb     H6 1749   9.867   0.715   7.559 -0.2158 -0.0454 -0.2005
   61bbb     C4 1750   9.647   0.742   7.533 -0.1462  0.6784 -0.1871
   61bbb     H7 1751   9.621   0.780   7.633 -2.7635 -1.6060  0.1059
   61bbb     H8 1752   9.560   0.685   7.500 -0.7904  1.3175  0.3696
   61bbb     C5 1753   9.756   0.657   7.874 -0.2221 -0.8517 -0.7141
   61bbb     H9 1754   9.653   0.617   7.870 -0.2129 -0.8285 -1.3916
   61bbb    H10 1755   9.752   0.759   7.833  2.4599  0.1352  1.2364
   61bbb     C6 1756   9.607   0.385   7.541  0.2904  0.4461 -0.2575
   61bbb    H11 1757   9.699   0.349   7.493 -0.7194 -3.0375  0.1405
   61bbb    H12 1758   9.558   0.453   7.470  0.0331  0.0029 -0.5094
   61bbb     C7 1759   9.672   0.860   7.442  0.8103  0.1925 -0.2042
   61bbb    H13 1760   9.702   0.821   7.344  2.9193 -0.4380  0.6306
   61bbb    H14 1761   9.754   0.921   7.482  0.3410  0.9981 -0.4476
   61bbb     C8 1762   9.512   0.272   7.576 -0.4118 -0.5494  0.1226
   61bbb    H15 1763   9.579   0.199   7.624 -0.1477 -0.0811  0.4778
   61bbb    H16 1764   9.471   0.238   7.480  1.1146  3.0193 -1.9930
   61bbb     C9 1765   9.791   0.653   8.017  0.2721 -0.0928 -0.1210
   61bbb    H17 1766   9.792   0.552   8.060  2.3238 -0.8288 -1.7171
   61bbb    H18 1767   9.711   0.702   8.072  1.3457 -0.4849  1.9001
   61bbb     O1 1768   9.549   0.938   7.439 -0.0071 -0.0030 -0.3691
   62bbb     N1 1769  10.117   0.906   7.462 -0.5000 -0.1646  0.7498
   62bbb     C1 1770  10.146   0.762   7.421  0.2924 -0.4200  0.1026
   62bbb     H1 1771  10.071   0.722   7.352  0.3852 -1.7192  0.7230
   62bbb     H2 1772  10.141   0.698   7.510 -0.1723 -1.3431 -0.5675
   62bbb     C2 1773  10.108   1.011   7.356  0.2977  0.3733  0.0524
   62bbb     H3 1774  10.207   1.016   7.307  1.5258 -2.2845  2.0166
   62bbb     H4 1775  10.080   1.104   7.407 -0.7911 -0.1948  0.5036
   62bbb     C3 1776  10.189   0.951   7.580 -0.2091 -0.5568 -0.0774
   62bbb     H5 1777  10.281   1.000   7.544  0.6296 -0.6109  1.8638
   62bbb     H6 1778  10.219   0.869   7.645 -0.5392  1.1401  2.3511
   62bbb     C4 1779  10.092   1.039   7.668 -0.1110 -0.7203  0.1344
   62bbb     H7 1780  10.064   1.127   7.608 -2.3514  0.4008  2.5977
   62bbb     H8 1781  10.155   1.093   7.741  0.8336 -0.3640 -0.9260
   62bbb     C5 1782  10.292   0.747   7.362 -0.1711 -0.4439 -0.8310
   62bbb     H9 1783  10.369   0.781   7.433 -1.6111 -1.2814  1.2061
   62bbb    H10 1784  10.300   0.810   7.273  0.4979  2.8992  1.4126
   62bbb     C6 1785  10.007   0.987   7.242 -0.0978 -0.1371  0.3552
   62bbb    H11 1786   9.932   0.914   7.274  1.3734 -0.5739  3.0679
   62bbb    H12 1787  10.067   0.953   7.156  2.7801 -0.9822  2.5263
   62bbb     C7 1788   9.962   0.978   7.734  1.2891 -0.3191 -0.0195
   62bbb    H13 1789   9.988   0.881   7.778  2.1221  1.1245  2.9122
   62bbb    H14 1790   9.889   0.963   7.654 -0.4180  0.9107  1.2279
   62bbb     C8 1791   9.929   1.112   7.208 -0.6326  0.0919  0.5953
   62bbb    H15 1792   9.982   1.206   7.227  0.0943 -0.1540 -0.1492
   62bbb    H16 1793   9.844   1.112   7.277 -0.3025 -2.6002  1.0894
   62bbb     C9 1794  10.307   0.598   7.309 -0.0396  0.4609 -0.0036
   62bbb    H17 1795  10.251   0.535   7.378  0.3421 -0.4389 -0.5026
   62bbb    H18 1796  10.413   0.573   7.295 -0.4579  0.2233 -4.2192
   62bbb     O1 1797   9.896   1.079   7.830 -0.5157  0.0804 -0.1709
   63bbb     N1 1798   5.777   3.914   9.155  0.1280 -0.0646 -0.3396
   63bbb     C1 1799   5.681   3.894   9.270  0.1107 -0.1622 -0.0071
   63bbb     H1 1800   5.651   3.789   9.278  0.9348 -0.2545  3.1264
   63bbb     H2 1801   5.591   3.955   9.253  0.0126 -0.6443 -1.3410
   63bbb     C2 1802   5.705   3.897   9.020 -0.3392 -0.2022 -0.1020
   63bbb     H3 1803   5.750   3.951   8.935 -2.2607 -1.2437 -1.9034
   63bbb     H4 1804   5.604   3.941   9.019 -0.7307 -1.0891 -0.7588
   63bbb     C3 1805   5.911   3.846   9.170  0.1253  0.5755 -0.0178
   63bbb     H5 1806   5.895   3.738   9.168  2.3356  0.1852  0.6857
   63bbb     H6 1807   5.949   3.867   9.271  0.6722 -2.3404  0.4718
   63bbb     C4 1808   6.019   3.899   9.072  0.6374 -0.1754  0.1132
   63bbb     H7 1809   6.012   4.008   9.069 -0.1165 -0.2333 -0.3698
   63bbb     H8 1810   5.995   3.876   8.967 -2.9233  0.1849  0.7532
   63bbb     C5 1811   5.736   3.924   9.411  0.1118 -0.2225  0.0303
   63bbb     H9 1812   5.836   3.885   9.434 -0.4916 -2.1355 -0.3225
   63bbb    H10 1813   5.673   3.882   9.491  1.3695  0.6161  1.5114
   63bbb     C6 1814   5.692   3.750   8.970  0.3477  0.6809  0.0572
   63bbb    H11 1815   5.628   3.693   9.038  2.1426  0.7107  1.8740
   63bbb    H12 1816   5.782   3.689   8.989  0.1102  0.8638  1.8549
   63bbb     C7 1817   6.167   3.862   9.093 -0.0631  0.5332 -0.0473
   63bbb    H13 1818   6.181   3.754   9.081 -1.4556  0.5375 -2.3550
   63bbb    H14 1819   6.201   3.890   9.193  0.6513  1.5543 -0.5499
   63bbb     C8 1820   5.631   3.741   8.823 -0.2394 -0.2461 -0.5834
   63bbb    H15 1821   5.600   3.639   8.798 -0.6919 -0.0068 -1.0172
   63bbb    H16 1822   5.703   3.772   8.746  0.8716 -2.9529 -0.7282
   63bbb     C9 1823   5.749   4.080   9.427  0.2212  0.0922 -0.2077
   63bbb    H17 1824   5.828   4.105   9.355  2.2003 -0.5118  1.6437
   63bbb    H18 1825   5.795   4.115   9.521  2.1329  0.6610 -1.3066
   63bbb     O1 1826   6.252   3.931   8.994 -0.1135 -0.1701 -0.1528
   64bbb     N1 1827   7.307   3.497   9.179 -0.2519 -0.2437 -0.7377
   64bbb     C1 1828   7.445   3.486   9.231  0.2425  0.1783 -0.3283
   64bbb     H1 1829   7.456   3.515   9.336 -1.9425 -1.1310  0.3073
   64bbb     H2 1830   7.511   3.551   9.171 -0.8038  0.1799 -1.5195
   64bbb     C2 1831   7.196   3.414   9.251 -0.2094 -0.2085  0.3323
   64bbb     H3 1832   7.243   3.321   9.284  0.3665  0.1867  0.6580
   64bbb     H4 1833   7.112   3.392   9.185 -1.7875  3.5870  0.8143
   64bbb     C3 1834   7.271   3.635   9.142  0.5222  0.0074  0.5426
   64bbb     H5 1835   7.358   3.684   9.096  0.3816 -0.8792 -0.6853
   64bbb     H6 1836   7.237   3.691   9.231  0.2517 -1.6061  1.4850
   64bbb     C4 1837   7.162   3.640   9.033 -0.3878  0.6761 -0.0014
   64bbb     H7 1838   7.073   3.582   9.060  0.7051 -0.7391  0.7646
   64bbb     H8 1839   7.212   3.585   8.953  2.3125  0.6666  1.5381
   64bbb     C5 1840   7.496   3.349   9.215  0.8096 -0.5563 -0.0773
   64bbb     H9 1841   7.461   3.316   9.116  0.5316 -0.0609 -0.1454
   64bbb    H10 1842   7.463   3.290   9.301 -0.5053  0.3184  0.0365
   64bbb     C6 1843   7.147   3.490   9.379 -0.2923  0.1472 -0.1853
   64bbb    H11 1844   7.097   3.584   9.352 -0.0664  0.6562  1.1119
   64bbb    H12 1845   7.234   3.510   9.443 -1.1042  0.8189  0.7365
   64bbb     C7 1846   7.123   3.772   8.977  0.7403 -0.0537 -0.8315
   64bbb    H13 1847   7.036   3.765   8.911  0.1668 -1.4873  0.0414
   64bbb    H14 1848   7.206   3.820   8.924  0.9587  2.4574  1.5618
   64bbb     C8 1849   7.054   3.400   9.457  0.0133  0.4020 -0.1194
   64bbb    H15 1850   7.023   3.446   9.551 -2.8376 -1.8761  0.2190
   64bbb    H16 1851   7.101   3.304   9.483 -2.5893 -0.6766  1.0008
   64bbb     C9 1852   7.652   3.349   9.204 -0.6502  0.2598 -0.5922
   64bbb    H17 1853   7.676   3.246   9.230 -3.1222 -0.3977 -0.6189
   64bbb    H18 1854   7.680   3.416   9.286 -2.5050 -0.3713  0.6174
   64bbb     O1 1855   7.091   3.867   9.079 -0.0889 -0.5778 -0.2448
   65bbb     N1 1856   7.050   4.093   6.568  0.1876 -0.0510 -0.1044
   65bbb     C1 1857   6.943   4.015   6.479 -0.1238 -0.1342 -0.5912
   65bbb     H1 1858   6.955   3.906   6.483 -1.3587 -0.3237 -1.5082
   65bbb     H2 1859   6.953   4.045   6.374  0.5204 -3.1138 -1.4571
   65bbb     C2 1860   7.051   4.240   6.556  0.9462  0.0674 -0.5647
   65bbb     H3 1861   7.126   4.285   6.623  0.6132 -1.2711  0.7677
   65bbb     H4 1862   6.957   4.284   6.590  0.4686  0.7301 -2.6375
   65bbb     C3 1863   7.066   4.044   6.701 -0.1097  0.1682 -0.1498
   65bbb     H5 1864   6.973   4.054   6.757  2.4886 -0.7997  4.9009
   65bbb     H6 1865   7.145   4.099   6.755 -0.9097 -0.9783  2.3295
   65bbb     C4 1866   7.106   3.896   6.713  0.0108  0.2399  0.8097
   65bbb     H7 1867   7.192   3.878   6.647 -0.4317  0.1802  0.2420
   65bbb     H8 1868   7.033   3.822   6.678  1.2534 -0.4268 -0.4468
   65bbb     C5 1869   6.795   4.050   6.520  0.2770 -0.1526 -0.5527
   65bbb     H9 1870   6.762   4.149   6.489 -1.0901 -0.0405  1.1155
   65bbb    H10 1871   6.778   4.053   6.628 -0.7164 -1.2316 -0.6641
   65bbb     C6 1872   7.079   4.286   6.415  0.2218 -0.4347 -0.0304
   65bbb    H11 1873   6.996   4.257   6.349 -1.2147  1.9134  0.6231
   65bbb    H12 1874   7.167   4.228   6.387  0.4672 -0.6148  1.0760
   65bbb     C7 1875   7.165   3.870   6.853  0.9742 -0.2121  0.1200
   65bbb    H13 1876   7.257   3.928   6.866  0.3496  1.2712 -1.5349
   65bbb    H14 1877   7.184   3.763   6.864 -1.4695 -0.6021  1.2894
   65bbb     C8 1878   7.103   4.445   6.409  0.3814 -0.1195 -0.0986
   65bbb    H15 1879   7.157   4.473   6.319 -0.4562  1.0299 -0.2628
   65bbb    H16 1880   7.163   4.474   6.496  1.8516  0.1392 -1.1588
   65bbb     C9 1881   6.697   3.952   6.461 -0.3160 -0.2772  0.2611
   65bbb    H17 1882   6.696   3.861   6.521  1.8880 -0.5702 -0.0700
   65bbb    H18 1883   6.733   3.923   6.362 -0.9601 -0.2175  0.0054
   65bbb     O1 1884   7.075   3.922   6.951 -0.1149  0.2014  0.0344
   66bbb     N1 1885   6.364   3.940   6.996  0.0215  0.3308  0.0176
   66bbb     C1 1886   6.313   3.829   7.077 -0.0258 -0.0338  0.7044
   66bbb     H1 1887   6.261   3.866   7.166 -1.6727 -0.2959 -0.1128
   66bbb     H2 1888   6.396   3.769   7.117  0.0791  0.0035  0.5428
   66bbb     C2 1889   6.443   3.913   6.874 -0.1035 -0.1846 -0.0745
   66bbb     H3 1890   6.492   3.997   6.824  1.3077 -0.3718  0.9282
   66bbb     H4 1891   6.362   3.888   6.804 -1.7748  1.2722  1.2245
   66bbb     C3 1892   6.449   4.043   7.069 -0.2457 -0.2803 -0.9616
   66bbb     H5 1893   6.470   4.130   7.006  3.0147 -0.1492  0.1440
   66bbb     H6 1894   6.543   4.000   7.105 -0.6856 -0.7107 -0.2928
   66bbb     C4 1895   6.384   4.097   7.197 -0.3568  0.0843  0.8593
   66bbb     H7 1896   6.275   4.083   7.189 -0.7201  2.1277  1.5211
   66bbb     H8 1897   6.407   4.204   7.194  1.5998 -0.3117  0.8207
   66bbb     C5 1898   6.216   3.739   6.996 -0.5766  0.3495 -0.2055
   66bbb     H9 1899   6.269   3.682   6.919  0.9087  0.6996  0.5350
   66bbb    H10 1900   6.140   3.794   6.939 -1.4983 -0.7523 -0.0906
   66bbb     C6 1901   6.546   3.797   6.884  0.4270  0.3168 -0.8787
   66bbb    H11 1902   6.498   3.699   6.871 -0.6012  0.8020 -0.8643
   66bbb    H12 1903   6.589   3.795   6.984 -0.4426 -0.2141 -0.4995
   66bbb     C7 1904   6.425   4.040   7.333  0.0739  0.3294  0.6178
   66bbb    H13 1905   6.426   3.930   7.338 -3.3235  0.1921  1.1951
   66bbb    H14 1906   6.350   4.082   7.401 -1.7954  0.2686 -1.2609
   66bbb     C8 1907   6.660   3.803   6.782  0.4267 -0.3348  0.4627
   66bbb    H15 1908   6.724   3.891   6.797  0.8209 -0.1899 -1.7465
   66bbb    H16 1909   6.611   3.809   6.685  1.4353 -0.0919 -0.0415
   66bbb     C9 1910   6.141   3.640   7.091 -0.3230 -0.4794  0.3420
   66bbb    H17 1911   6.091   3.567   7.025  0.1031 -2.2834  1.9431
   66bbb    H18 1912   6.058   3.692   7.139 -0.9907 -0.6590 -0.5730
   66bbb     O1 1913   6.553   4.095   7.361 -0.1630 -0.1296  0.4565
   67bbb     N1 1914   9.048   5.212   9.217  0.2670  0.1457 -0.2505
   67bbb     C1 1915   9.167   5.298   9.183  0.0530  0.6558 -0.5123
   67bbb     H1 1916   9.159   5.354   9.089  2.0512  1.1739 -0.4047
   67bbb     H2 1917   9.252   5.232   9.165  0.2820  0.7910  0.0744
   67bbb     C2 1918   9.058   5.072   9.165  0.5344 -0.4714 -0.1847
   67bbb     H3 1919   8.996   5.009   9.231 -0.7274  1.6859  0.8088
   67bbb     H4 1920   9.160   5.033   9.168  0.2701 -1.1621  0.0928
   67bbb     C3 1921   8.915   5.270   9.221 -0.1716 -0.4185  0.1359
   67bbb     H5 1922   8.885   5.287   9.117 -2.0247 -4.1346 -0.1106
   67bbb     H6 1923   8.917   5.368   9.271 -1.6678  0.0550 -0.6744
   67bbb     C4 1924   8.798   5.189   9.280  0.0984  0.2585  0.2977
   67bbb     H7 1925   8.790   5.208   9.388 -2.9165  0.5652  0.1096
   67bbb     H8 1926   8.806   5.081   9.263 -0.0165  0.1275  1.0480
   67bbb     C5 1927   9.184   5.401   9.304 -0.3841 -0.1255  0.4784
   67bbb     H9 1928   9.095   5.460   9.329  0.6217  0.3211  3.4501
   67bbb    H10 1929   9.272   5.460   9.280 -0.0417 -0.5471  0.6788
   67bbb     C6 1930   9.017   5.047   9.015 -0.5861 -0.6252  0.1555
   67bbb    H11 1931   9.081   5.109   8.951  1.0715 -1.9314  0.4884
   67bbb    H12 1932   8.910   5.061   8.993 -0.4375 -0.4389 -0.4945
   67bbb     C7 1933   8.655   5.241   9.228  0.2384  0.2184 -0.4973
   67bbb    H13 1934   8.657   5.351   9.219  1.1354  0.3154  0.6206
   67bbb    H14 1935   8.577   5.221   9.302  0.5950  1.9857  0.4120
   67bbb     C8 1936   9.046   4.903   8.961 -0.1856  1.1798 -0.4578
   67bbb    H15 1937   9.005   4.896   8.859 -1.8566 -3.8315  0.2949
   67bbb    H16 1938   8.989   4.821   9.005  1.3329 -1.3425 -2.9009
   67bbb     C9 1939   9.216   5.333   9.438  0.0749 -0.2040  0.2403
   67bbb    H17 1940   9.313   5.283   9.423  0.8946  1.6083 -0.7224
   67bbb    H18 1941   9.138   5.256   9.442  1.7988 -1.9867  1.3125
   67bbb     O1 1942   8.622   5.186   9.097 -0.8331  0.1324  0.0038
   68bbb     N1 1943   7.721   5.194   8.126  0.0478 -0.3620  0.6817
   68bbb     C1 1944   7.838   5.268   8.086  0.3246 -0.0350  0.8931
   68bbb     H1 1945   7.932   5.232   8.131  0.8400  0.9851  0.6638
   68bbb     H2 1946   7.830   5.364   8.139  0.3778  0.1186  0.6288
   68bbb     C2 1947   7.585   5.257   8.108 -0.0336 -0.6557  0.0030
   68bbb     H3 1948   7.517   5.192   8.165 -0.4467  0.7983  1.2183
   68bbb     H4 1949   7.558   5.246   8.002 -0.0583  0.2137 -0.0836
   68bbb     C3 1950   7.721   5.048   8.115  0.4016  0.0589  0.0367
   68bbb     H5 1951   7.748   5.029   8.010  1.0010  0.4726  0.1111
   68bbb     H6 1952   7.627   4.999   8.144  0.6160 -0.7894 -0.6613
   68bbb     C4 1953   7.841   4.986   8.195  0.3930  0.4607 -0.9107
   68bbb     H7 1954   7.937   5.002   8.146  0.0091  2.9125 -0.9806
   68bbb     H8 1955   7.824   4.878   8.196  0.0121  0.5206 -0.5408
   68bbb     C5 1956   7.850   5.300   7.938  0.4409  0.2088 -0.6936
   68bbb     H9 1957   7.747   5.305   7.899  0.7407  1.4086 -1.4036
   68bbb    H10 1958   7.902   5.225   7.877  1.4997 -0.4262  0.9203
   68bbb     C6 1959   7.570   5.404   8.163  0.0448  0.2350 -0.0188
   68bbb    H11 1960   7.464   5.433   8.157 -0.4641 -1.0930  1.8181
   68bbb    H12 1961   7.628   5.480   8.109  3.5745 -0.0948  2.8900
   68bbb     C7 1962   7.836   5.038   8.341  0.0712 -0.3413 -0.0494
   68bbb    H13 1963   7.751   4.999   8.398 -0.7477 -0.1858 -1.1191
   68bbb    H14 1964   7.832   5.148   8.338  3.4688 -0.1420 -0.2818
   68bbb     C8 1965   7.624   5.428   8.305  0.7451  0.7342 -0.1197
   68bbb    H15 1966   7.732   5.445   8.298  0.6399  0.8891 -2.0570
   68bbb    H16 1967   7.617   5.341   8.372  0.0300 -1.3039 -2.6610
   68bbb     C9 1968   7.914   5.435   7.919 -0.9945 -0.3505  0.5103
   68bbb    H17 1969   7.859   5.505   7.983 -0.2624  1.0362 -0.3190
   68bbb    H18 1970   7.904   5.467   7.815 -2.6286 -0.7991  0.5076
   68bbb     O1 1971   7.965   5.000   8.389 -0.0255 -0.2079 -0.2397
   69bbb     N1 1972   9.346   5.347   7.216 -0.0618  0.3884 -0.2603
   69bbb     C1 1973   9.365   5.423   7.093  0.1956 -0.8349  0.9899
   69bbb     H1 1974   9.311   5.387   7.004  0.5939 -0.3297  0.5402
   69bbb     H2 1975   9.472   5.425   7.069  0.0158 -1.4565  0.0679
   69bbb     C2 1976   9.453   5.358   7.318 -0.3081  0.8152  0.3862
   69bbb     H3 1977   9.436   5.278   7.391  1.1626 -1.8528 -2.0287
   69bbb     H4 1978   9.440   5.452   7.374  2.5157  1.5911 -0.1065
   69bbb     C3 1979   9.204   5.346   7.268 -0.3571  0.0690  0.6441
   69bbb     H5 1980   9.174   5.447   7.301  2.2875  2.1272 -2.5333
   69bbb     H6 1981   9.191   5.282   7.356  0.8077  0.9644  1.5117
   69bbb     C4 1982   9.098   5.298   7.170  0.1533  0.1405  0.1057
   69bbb     H7 1983   9.114   5.192   7.146  0.9510 -0.3662  2.6259
   69bbb     H8 1984   9.101   5.352   7.075 -2.6834 -1.8332 -1.2688
   69bbb     C5 1985   9.323   5.572   7.103  0.1750  0.0943 -0.2356
   69bbb     H9 1986   9.338   5.614   7.203 -0.6418 -0.0400 -0.0498
   69bbb    H10 1987   9.216   5.595   7.102 -0.1752 -1.2965  1.2423
   69bbb     C6 1988   9.605   5.360   7.274  0.0112 -0.3814  0.0301
   69bbb    H11 1989   9.672   5.381   7.358 -1.9736  1.3236  1.2902
   69bbb    H12 1990   9.623   5.448   7.212 -2.8743  0.5596  0.3817
   69bbb     C7 1991   8.952   5.313   7.215  0.3889  0.1718 -0.3788
   69bbb    H13 1992   8.933   5.243   7.298 -1.1959 -0.1653 -0.9788
   69bbb    H14 1993   8.879   5.292   7.136  1.0383  0.6710 -1.1238
   69bbb     C8 1994   9.645   5.222   7.215 -0.4486  0.0718  0.8263
   69bbb    H15 1995   9.745   5.228   7.171  0.1748 -3.7088  1.3900
   69bbb    H16 1996   9.571   5.206   7.135  0.6934  0.6799 -0.3771
   69bbb     C9 1997   9.401   5.662   7.009 -0.3973  0.4567  0.3495
   69bbb    H17 1998   9.499   5.697   7.043  1.9101 -2.7665 -2.3458
   69bbb    H18 1999   9.347   5.758   7.006  0.0393  0.7196  0.8452
   69bbb     O1 2000   8.925   5.446   7.253 -0.5920 -0.3875 -0.1803
   70bbb     N1 2001   7.792   5.553   6.845  0.4407 -0.6014 -0.6780
   70bbb     C1 2002   7.695   5.657   6.862  0.8295 -0.2536  0.2292
   70bbb     H1 2003   7.615   5.636   6.789  0.4005 -3.1360  1.3922
   70bbb     H2 2004   7.746   5.753   6.844  2.7104 -1.1063  0.7663
   70bbb     C2 2005   7.743   5.420   6.894 -0.5732  0.1793  0.5065
   70bbb     H3 2006   7.723   5.409   7.001  2.6140  0.7646  1.2712
   70bbb     H4 2007   7.835   5.360   6.880 -0.8957 -0.2979  0.4093
   70bbb     C3 2008   7.859   5.559   6.712 -0.2585 -0.0520  0.5046
   70bbb     H5 2009   7.879   5.663   6.685  0.4820  0.5827  3.2175
   70bbb     H6 2010   7.794   5.528   6.629 -0.0520  0.4545  0.1498
   70bbb     C4 2011   7.997   5.482   6.706  0.1343 -0.1928  0.0069
   70bbb     H7 2012   8.014   5.447   6.603 -1.6452  0.1937 -0.4384
   70bbb     H8 2013   8.000   5.390   6.766 -1.5843 -0.5629 -0.4411
   70bbb     C5 2014   7.631   5.674   6.999  0.3267 -0.1230 -0.1874
   70bbb     H9 2015   7.707   5.705   7.072 -0.3981 -0.3846  0.6964
   70bbb    H10 2016   7.590   5.582   7.043  0.5114  0.3752  1.0977
   70bbb     C6 2017   7.622   5.358   6.812  0.0446 -0.1156 -0.4350
   70bbb    H11 2018   7.648   5.341   6.707  1.5287 -0.8886  0.0254
   70bbb    H12 2019   7.540   5.430   6.819 -0.7940 -1.0684 -0.3146
   70bbb     C7 2020   8.111   5.574   6.745  0.2449 -0.1172  0.1936
   70bbb    H13 2021   8.100   5.590   6.853 -2.4210 -0.4931  0.0328
   70bbb    H14 2022   8.108   5.673   6.699  2.0266 -0.6061 -1.0751
   70bbb     C8 2023   7.567   5.220   6.865  0.4457  0.0231  0.2816
   70bbb    H15 2024   7.651   5.149   6.868 -0.1845 -0.7521 -0.1984
   70bbb    H16 2025   7.502   5.171   6.792  0.0427  0.6428  0.2197
   70bbb     C9 2026   7.521   5.782   7.003 -0.0451 -0.1316 -0.8862
   70bbb    H17 2027   7.424   5.739   7.030 -0.5245  2.0061  1.1254
   70bbb    H18 2028   7.516   5.843   6.912  1.7842 -0.0784 -0.9935
   70bbb     O1 2029   8.232   5.511   6.720 -0.3481 -0.1580  1.1562
   71bbb     N1 2030   9.596   2.352   9.486  0.3168  0.2755 -0.5436
   71bbb     C1 2031   9.686   2.250   9.425 -0.1445  0.1526  0.4496
   71bbb     H1 2032   9.764   2.304   9.370 -0.0996 -1.4434 -1.1652
   71bbb     H2 2033   9.632   2.197   9.345  2.4033 -0.3008 -1.1003
   71bbb     C2 2034   9.479   2.291   9.567  0.7176  0.0541  0.0286
   71bbb     H3 2035   9.437   2.377   9.621  2.7199  0.1667  1.5055
   71bbb     H4 2036   9.510   2.236   9.657 -0.3685  0.7040  0.8185
   71bbb     C3 2037   9.570   2.469   9.393 -0.5529 -0.0534 -0.3043
   71bbb     H5 2038   9.548   2.430   9.293  0.3540 -0.9147 -0.1856
   71bbb     H6 2039   9.664   2.524   9.376  0.1575 -1.8208 -2.7428
   71bbb     C4 2040   9.467   2.571   9.446 -0.2257  0.3094  0.1460
   71bbb     H7 2041   9.519   2.626   9.525  0.3001 -1.6569  1.2447
   71bbb     H8 2042   9.380   2.518   9.487  1.4862 -0.2898  3.3262
   71bbb     C5 2043   9.744   2.146   9.519 -0.3980 -0.7731 -0.2345
   71bbb     H9 2044   9.663   2.097   9.575  0.4771 -0.1930  1.6057
   71bbb    H10 2045   9.811   2.190   9.594 -1.4954  0.8200 -0.1581
   71bbb     C6 2046   9.368   2.225   9.480 -0.4139 -0.2107  0.0998
   71bbb    H11 2047   9.358   2.295   9.396  1.2907  0.5541  0.4888
   71bbb    H12 2048   9.278   2.235   9.542 -0.0839 -0.6843  0.6719
   71bbb     C7 2049   9.422   2.660   9.329 -0.2623  0.5424  0.5267
   71bbb    H13 2050   9.407   2.596   9.241 -1.7444  0.9551  0.4688
   71bbb    H14 2051   9.488   2.744   9.304 -0.6299  0.7407  0.2157
   71bbb     C8 2052   9.389   2.078   9.433 -0.5732 -0.1882 -0.2319
   71bbb    H15 2053   9.411   2.017   9.521  0.5514  1.3223  0.5716
   71bbb    H16 2054   9.473   2.059   9.365 -1.2242 -3.2913 -0.3143
   71bbb     C9 2055   9.822   2.029   9.450  0.0617 -0.3354  0.0230
   71bbb    H17 2056   9.752   1.979   9.382 -1.2189  3.0632 -1.3779
   71bbb    H18 2057   9.839   1.952   9.527 -0.9921 -0.2652  0.3293
   71bbb     O1 2058   9.295   2.712   9.355  0.3447  1.0078 -0.5753
   72bbb     N1 2059   8.770   1.869   9.014 -0.3083 -0.1670  0.5754
   72bbb     C1 2060   8.853   1.806   8.912  0.1471  0.4239 -0.4615
   72bbb     H1 2061   8.791   1.733   8.858  0.6764 -0.3563 -0.0435
   72bbb     H2 2062   8.927   1.736   8.954 -1.7370 -0.4278  1.6602
   72bbb     C2 2063   8.651   1.953   8.963 -0.4706  0.9943  0.0315
   72bbb     H3 2064   8.679   2.059   8.951  0.1846  0.8307  0.0736
   72bbb     H4 2065   8.576   1.953   9.042 -1.0384  2.2132 -0.4689
   72bbb     C3 2066   8.851   1.932   9.124  1.0408  0.3385 -0.0036
   72bbb     H5 2067   8.918   2.008   9.082  1.8428  0.3494  1.2302
   72bbb     H6 2068   8.912   1.857   9.176  0.6608  0.7705  1.0888
   72bbb     C4 2069   8.757   1.980   9.248  0.0697 -0.1647  0.6481
   72bbb     H7 2070   8.695   1.894   9.276 -0.2949  0.0595  0.5293
   72bbb     H8 2071   8.694   2.063   9.214  0.4762  0.1431  0.6480
   72bbb     C5 2072   8.927   1.901   8.821 -0.3673 -0.3797 -1.0834
   72bbb     H9 2073   9.007   1.951   8.878 -1.4892  0.1384  0.1050
   72bbb    H10 2074   8.862   1.985   8.794  0.4432  0.6023 -0.1053
   72bbb     C6 2075   8.592   1.915   8.828  0.0525  0.0866  0.7344
   72bbb    H11 2076   8.668   1.914   8.749 -2.4104 -1.4644 -1.7684
   72bbb    H12 2077   8.528   2.001   8.810  1.9959  1.5227  0.3429
   72bbb     C7 2078   8.825   2.043   9.366  0.4843 -0.3773 -0.8888
   72bbb    H13 2079   8.888   1.969   9.417 -0.0292  0.8529  1.6390
   72bbb    H14 2080   8.745   2.072   9.434 -1.7664 -3.4252 -2.0217
   72bbb     C8 2081   8.511   1.780   8.851  0.1068 -0.1600  0.0499
   72bbb    H15 2082   8.480   1.778   8.956  3.2051 -1.9779  1.0509
   72bbb    H16 2083   8.575   1.691   8.844 -2.4551 -2.1386 -0.0665
   72bbb     C9 2084   8.998   1.839   8.691 -0.5687 -0.2201 -0.7175
   72bbb    H17 2085   8.916   1.813   8.624  0.4741  1.3073 -2.6850
   72bbb    H18 2086   9.062   1.750   8.698 -0.2829 -0.0995 -1.6889
   72bbb     O1 2087   8.900   2.158   9.317  0.0219  0.1545 -0.2900
   73bbb     N1 2088   8.537   2.621   9.768  0.3502  0.5750 -0.2647
   73bbb     C1 2089   8.643   2.635   9.863  0.3513  1.2044  0.3396
   73bbb     H1 2090   8.735   2.658   9.807 -0.1318  1.5078 -0.3336
   73bbb     H2 2091   8.666   2.536   9.906 -3.2264  0.8699  1.8507
   73bbb     C2 2092   8.467   2.742   9.724  0.6692 -0.2192  0.2096
   73bbb     H3 2093   8.430   2.791   9.815 -0.7977  0.0900 -0.5096
   73bbb     H4 2094   8.375   2.720   9.668  1.2485 -0.5728 -0.6350
   73bbb     C3 2095   8.559   2.529   9.659  0.1941  0.9256  0.0660
   73bbb     H5 2096   8.652   2.553   9.605  0.4464 -0.9069 -0.3635
   73bbb     H6 2097   8.471   2.533   9.594 -0.1587 -1.0170  0.3819
   73bbb     C4 2098   8.581   2.380   9.698 -0.8073  0.8910  1.2256
   73bbb     H7 2099   8.491   2.338   9.744 -1.2694  0.0973 -0.3519
   73bbb     H8 2100   8.673   2.358   9.755  2.0711  0.6871 -3.0427
   73bbb     C5 2101   8.619   2.723   9.985 -0.1254  0.6453  0.4071
   73bbb     H9 2102   8.602   2.829   9.961  1.5840  1.3190  1.9872
   73bbb    H10 2103   8.714   2.724  10.039  0.0068  1.2820  0.1679
   73bbb     C6 2104   8.554   2.842   9.648  0.1083 -0.3370  0.1148
   73bbb    H11 2105   8.633   2.796   9.588  0.0869 -0.0271 -0.1500
   73bbb    H12 2106   8.594   2.896   9.735  0.0223 -0.0317 -0.0357
   73bbb     C7 2107   8.609   2.295   9.567 -0.1878  0.0797 -0.2540
   73bbb    H13 2108   8.645   2.193   9.586 -0.8274 -0.3322 -1.1772
   73bbb    H14 2109   8.690   2.344   9.511  0.4622 -1.0675 -0.3519
   73bbb     C8 2110   8.473   2.956   9.582 -0.3600 -0.2025 -0.1203
   73bbb    H15 2111   8.399   2.989   9.656  2.1586 -0.1822  2.6096
   73bbb    H16 2112   8.441   2.917   9.485 -0.9972 -1.5818  0.6080
   73bbb     C9 2113   8.504   2.667  10.074  0.1266 -0.3886 -0.4738
   73bbb    H17 2114   8.526   2.563  10.102  0.5950 -0.3546 -0.7111
   73bbb    H18 2115   8.409   2.666  10.020  0.6261  2.4665 -1.5778
   73bbb     O1 2116   8.494   2.293   9.484 -0.0047 -0.0238 -0.3551
   74bbb     N1 2117   7.927   1.644   9.431 -0.2803 -0.5044  0.2876
   74bbb     C1 2118   7.849   1.679   9.310  0.2725  0.2492 -0.0850
   74bbb     H1 2119   7.841   1.591   9.244  0.1440 -1.1019  1.6758
   74bbb     H2 2120   7.892   1.756   9.245  2.4474 -1.4397 -0.7928
   74bbb     C2 2121   8.039   1.543   9.396 -0.4187 -0.8639 -0.0820
   74bbb     H3 2122   8.111   1.580   9.322 -1.8658 -1.5501 -1.8978
   74bbb     H4 2123   7.988   1.457   9.350 -2.1133 -0.1970  0.4751
   74bbb     C3 2124   7.967   1.761   9.510  0.4890  0.6059 -0.3872
   74bbb     H5 2125   8.003   1.728   9.608 -1.9969  0.1622  0.4317
   74bbb     H6 2126   7.880   1.821   9.538 -0.2114 -1.4760  2.3337
   74bbb     C4 2127   8.056   1.869   9.429  0.7275 -0.1919  0.1394
   74bbb     H7 2128   8.012   1.892   9.331 -1.0206  0.1207  0.9569
   74bbb     H8 2129   8.156   1.827   9.414  0.4752 -0.6385 -0.3407
   74bbb     C5 2130   7.706   1.726   9.350  0.2825  0.0559  0.3232
   74bbb     H9 2131   7.717   1.812   9.417  2.9720 -0.1022  0.1904
   74bbb    H10 2132   7.653   1.642   9.396  1.6186 -0.8994  0.1651
   74bbb     C6 2133   8.121   1.491   9.522  0.0919 -0.1522  0.3853
   74bbb    H11 2134   8.046   1.423   9.564 -0.3323 -0.6714 -1.1639
   74bbb    H12 2135   8.142   1.579   9.583 -1.7590  1.6444 -1.4205
   74bbb     C7 2136   8.077   2.004   9.494 -0.1476 -0.7584 -0.4611
   74bbb    H13 2137   8.162   2.051   9.442 -0.1956 -0.7718 -0.5516
   74bbb    H14 2138   8.108   1.995   9.599  2.0803 -0.9192 -1.0792
   74bbb     C8 2139   8.252   1.405   9.502 -0.1578  0.3231 -0.3231
   74bbb    H15 2140   8.292   1.372   9.598  2.1189  0.4696 -1.1470
   74bbb    H16 2141   8.332   1.472   9.469 -2.5792  2.4715 -2.3494
   74bbb     C9 2142   7.633   1.782   9.224 -0.1376  0.4947  0.2361
   74bbb    H17 2143   7.528   1.798   9.253 -0.8533 -0.9283 -1.3674
   74bbb    H18 2144   7.639   1.709   9.143  2.7316  1.5126 -0.5710
   74bbb     O1 2145   7.962   2.096   9.490  0.0720  0.1321  0.0711
   75bbb     N1 2146   9.607   5.040   9.199 -0.4892  0.1128 -0.3545
   75bbb     C1 2147   9.753   5.063   9.212  0.2948  0.0244 -0.3579
   75bbb     H1 2148   9.793   4.967   9.249  0.8196  0.0894 -0.7460
   75bbb     H2 2149   9.782   5.151   9.270 -0.3509  1.1638 -1.7121
   75bbb     C2 2150   9.536   5.131   9.110  0.3875 -0.1783  0.6332
   75bbb     H3 2151   9.432   5.098   9.093 -0.0546  0.2609  2.3132
   75bbb     H4 2152   9.596   5.131   9.019  1.5006  1.7073  1.3140
   75bbb     C3 2153   9.549   5.015   9.336 -0.0877  0.0079  0.2982
   75bbb     H5 2154   9.537   5.108   9.393 -1.2829  0.5893 -0.8415
   75bbb     H6 2155   9.617   4.952   9.394  1.0864  2.0574  1.2610
   75bbb     C4 2156   9.424   4.933   9.335 -0.0243  0.2179 -0.3089
   75bbb     H7 2157   9.437   4.842   9.275  1.4078  0.3187 -0.1757
   75bbb     H8 2158   9.349   4.994   9.285  0.5560  0.2956 -1.0922
   75bbb     C5 2159   9.827   5.076   9.072 -0.5006  0.3990 -0.1285
   75bbb     H9 2160   9.935   5.091   9.083 -0.4325  1.3125 -1.7189
   75bbb    H10 2161   9.800   5.161   9.008  0.4153  2.3397  1.9340
   75bbb     C6 2162   9.536   5.278   9.154  0.2968 -0.6334 -0.2347
   75bbb    H11 2163   9.639   5.307   9.180 -0.0806  0.3044  0.2693
   75bbb    H12 2164   9.477   5.274   9.246  1.5055 -1.6736  0.5284
   75bbb     C7 2165   9.367   4.903   9.474  0.0132  1.1612  0.4490
   75bbb    H13 2166   9.267   4.859   9.467  0.8441 -0.7695  0.0426
   75bbb    H14 2167   9.356   4.998   9.528  0.7377  1.3437  0.2897
   75bbb     C8 2168   9.475   5.386   9.062  0.5811  0.1571 -0.2310
   75bbb    H15 2169   9.378   5.351   9.023  0.7603  0.0968 -0.6286
   75bbb    H16 2170   9.537   5.398   8.972 -0.9029  1.1100 -1.1704
   75bbb     C9 2171   9.814   4.947   8.987  0.1396 -0.4395  0.2097
   75bbb    H17 2172   9.709   4.948   8.956 -1.3613  0.8715  4.5755
   75bbb    H18 2173   9.823   4.858   9.051  2.0908  0.9653  2.0213
   75bbb     O1 2174   9.444   4.808   9.549 -0.3555 -0.5558  0.1935
   76bbb     N1 2175   9.755   3.775  10.208  0.2764 -0.5152  0.0553
   76bbb     C1 2176   9.852   3.669  10.187 -0.3852 -0.1148  0.3028
   76bbb     H1 2177   9.890   3.639  10.285 -1.3943  1.0711  1.0716
   76bbb     H2 2178   9.930   3.711  10.121 -1.9175  1.3472 -0.6672
   76bbb     C2 2179   9.770   3.856  10.332 -0.0254  0.1114  0.1843
   76bbb     H3 2180   9.783   3.788  10.417 -0.2515  2.3793  2.1388
   76bbb     H4 2181   9.676   3.910  10.347 -0.8618 -1.3808  0.5751
   76bbb     C3 2182   9.713   3.857  10.089 -0.2328 -0.4318 -0.1695
   76bbb     H5 2183   9.697   3.778  10.015  1.6246 -0.8144 -0.2091
   76bbb     H6 2184   9.789   3.922  10.043 -2.4378  0.9777 -2.0640
   76bbb     C4 2185   9.582   3.939  10.115 -0.1928  0.3085 -0.1705
   76bbb     H7 2186   9.601   4.025  10.181 -1.7776  0.3524  0.2691
   76bbb     H8 2187   9.507   3.881  10.168 -0.2550  0.6223  0.0895
   76bbb     C5 2188   9.792   3.544  10.118 -0.7959 -0.3332  0.1904
   76bbb     H9 2189   9.730   3.571  10.032  1.0002 -0.7709 -1.3078
   76bbb    H10 2190   9.726   3.498  10.192 -1.0433 -2.1848 -1.1036
   76bbb     C6 2191   9.878   3.961  10.324  0.2642 -0.2046 -0.0762
   76bbb    H11 2192   9.867   4.016  10.229  0.1884 -1.9143 -1.1088
   76bbb    H12 2193   9.976   3.917  10.304  0.0229 -0.3292 -1.0311
   76bbb     C7 2194   9.524   3.994   9.985  0.5335  0.3309 -0.0114
   76bbb    H13 2195   9.422   4.033   9.998  0.5639  0.8435 -1.1551
   76bbb    H14 2196   9.532   3.911   9.914  4.1818 -0.3142  0.9826
   76bbb     C8 2197   9.886   4.047  10.449  0.1390  0.1590  0.5554
   76bbb    H15 2198   9.797   4.109  10.467 -0.1891 -0.3063  0.5514
   76bbb    H16 2199   9.972   4.116  10.448  0.8235 -0.6807  0.6234
   76bbb     C9 2200   9.906   3.445  10.065 -0.6593  0.4072 -0.4772
   76bbb    H17 2201   9.861   3.345  10.068  1.2369 -0.4796  1.5991
   76bbb    H18 2202   9.987   3.452  10.138 -0.5072 -0.2577 -0.5720
   76bbb     O1 2203   9.597   4.112   9.934 -0.3339 -0.3291  1.2820
   77bbb     N1 2204   8.843   5.351   9.788 -0.0530 -0.1658  0.5519
   77bbb     C1 2205   8.756   5.403   9.680  0.4070 -0.5705 -0.0656
   77bbb     H1 2206   8.686   5.468   9.733  1.3699 -1.5836  2.6147
   77bbb     H2 2207   8.696   5.321   9.638  1.0007  0.0833 -2.3944
   77bbb     C2 2208   8.890   5.444   9.896  0.1934  0.6522 -0.2542
   77bbb     H3 2209   8.939   5.529   9.846  0.1351  2.0518  1.8965
   77bbb     H4 2210   8.958   5.381   9.955 -0.8404 -1.5644 -1.3202
   77bbb     C3 2211   8.952   5.265   9.729 -0.4929  0.3214 -0.4616
   77bbb     H5 2212   9.035   5.322   9.685  0.2422 -1.1850 -1.1158
   77bbb     H6 2213   8.911   5.206   9.645 -1.0800 -0.5844  0.4365
   77bbb     C4 2214   8.993   5.159   9.839  0.3938 -0.4689 -0.3529
   77bbb     H7 2215   8.911   5.143   9.909 -0.8819  1.9945 -1.1900
   77bbb     H8 2216   9.066   5.204   9.908 -0.5405 -0.3893  0.6062
   77bbb     C5 2217   8.824   5.485   9.564  0.2088 -0.0036 -0.5316
   77bbb     H9 2218   8.892   5.421   9.506  0.5699 -1.7620  1.6786
   77bbb    H10 2219   8.888   5.568   9.595  1.6753 -0.7378 -1.5134
   77bbb     C6 2220   8.776   5.497   9.995 -0.1847  0.6190  0.2268
   77bbb    H11 2221   8.811   5.484  10.098  0.7335 -1.4850 -0.2982
   77bbb    H12 2222   8.691   5.429   9.984  0.2628 -0.0663  0.9707
   77bbb     C7 2223   9.052   5.034   9.789  0.5497  0.1961  0.3209
   77bbb    H13 2224   9.121   4.991   9.863  2.7202 -0.9694 -2.1832
   77bbb    H14 2225   9.107   5.059   9.697  2.0632 -0.2518  1.0607
   77bbb     C8 2226   8.731   5.637   9.963  0.7032  0.5017 -0.0983
   77bbb    H15 2227   8.782   5.663   9.869  0.5137 -0.7558 -0.5733
   77bbb    H16 2228   8.765   5.716  10.031 -0.3513  2.7320 -1.9994
   77bbb     C9 2229   8.711   5.537   9.478  0.5129  0.7341  0.2017
   77bbb    H17 2230   8.658   5.610   9.540 -0.6160 -0.4185  0.6629
   77bbb    H18 2231   8.639   5.457   9.455 -1.1383  2.2950 -0.2215
   77bbb     O1 2232   8.949   4.932   9.765  0.5008  0.0936  0.1238
   78bbb     N1 2233   8.364   4.156  10.493  0.0336  0.1045 -0.2438
   78bbb     C1 2234   8.455   4.037  10.477  0.1721 -0.0184  0.0594
   78bbb     H1 2235   8.391   3.950  10.457  0.0962  0.0703 -0.0828
   78bbb     H2 2236   8.494   4.026  10.579  1.2807  1.4749 -0.1621
   78bbb     C2 2237   8.289   4.147  10.620 -0.3843 -0.4329 -0.0081
   78bbb     H3 2238   8.232   4.239  10.639  3.3379  2.6299 -2.2106
   78bbb     H4 2239   8.360   4.134  10.702 -1.5521 -1.3873  0.8829
   78bbb     C3 2240   8.286   4.196  10.373 -0.3940 -0.3941  0.4929
   78bbb     H5 2241   8.189   4.144  10.368 -0.1787 -0.6841 -2.0277
   78bbb     H6 2242   8.336   4.177  10.277 -0.1576  0.2269  0.4879
   78bbb     C4 2243   8.241   4.349  10.365  0.2405  0.3018 -0.0357
   78bbb     H7 2244   8.191   4.380  10.458 -2.1695 -1.1467 -0.7406
   78bbb     H8 2245   8.154   4.353  10.298  0.8863 -0.7933 -0.9695
   78bbb     C5 2246   8.565   4.052  10.376  0.6139  0.5806 -0.7269
   78bbb     H9 2247   8.516   4.051  10.278 -1.5454 -1.2442  0.2928
   78bbb    H10 2248   8.632   3.966  10.383  0.5609  0.6214  0.5282
   78bbb     C6 2249   8.190   4.035  10.635  0.5228  0.1581 -0.0076
   78bbb    H11 2250   8.244   3.939  10.631  0.8296  0.2869  0.8409
   78bbb    H12 2251   8.124   4.027  10.548 -1.0958  2.6887  0.8866
   78bbb     C7 2252   8.344   4.458  10.333 -0.3483 -0.3485 -0.1569
   78bbb    H13 2253   8.426   4.465  10.405 -0.0050  0.2094 -0.5964
   78bbb    H14 2254   8.291   4.554  10.340  1.1212  0.4195  0.8744
   78bbb     C8 2255   8.110   4.044  10.766  0.2433 -1.4582 -0.5291
   78bbb    H15 2256   8.050   4.136  10.768 -0.1224 -1.6519 -1.6353
   78bbb    H16 2257   8.186   4.062  10.843 -0.0827 -0.7466 -0.3703
   78bbb     C9 2258   8.645   4.184  10.389  0.0005 -0.9225 -0.0156
   78bbb    H17 2259   8.669   4.204  10.494  0.5104 -0.9376 -0.1275
   78bbb    H18 2260   8.595   4.271  10.345 -1.8758 -0.8978  1.9366
   78bbb     O1 2261   8.411   4.441  10.215 -0.5070  0.4368 -0.0641
   79bbb     N1 2262   6.845   2.760   5.514  0.4265  0.2856  0.1701
   79bbb     C1 2263   6.936   2.661   5.456 -0.4541 -0.8006  0.1723
   79bbb     H1 2264   6.887   2.565   5.438  0.8141 -1.4764  0.2561
   79bbb     H2 2265   7.026   2.646   5.516 -1.0358  0.0274  1.2908
   79bbb     C2 2266   6.793   2.695   5.639  0.0501 -0.0218  0.2002
   79bbb     H3 2267   6.879   2.651   5.691  0.3909 -0.5620 -0.8034
   79bbb     H4 2268   6.736   2.604   5.615  2.1193 -1.0818 -0.9155
   79bbb     C3 2269   6.900   2.899   5.538 -0.4278 -0.0111  0.1271
   79bbb     H5 2270   6.826   2.976   5.564  0.4536  0.8173  0.2367
   79bbb     H6 2271   6.939   2.934   5.441  2.8544 -0.2435  1.2607
   79bbb     C4 2272   7.029   2.909   5.624  0.5814 -0.1928  0.2551
   79bbb     H7 2273   7.109   2.847   5.582 -0.4221 -1.7626  0.6203
   79bbb     H8 2274   7.016   2.867   5.725  2.2791 -0.3711  0.4396
   79bbb     C5 2275   6.976   2.705   5.313 -0.5501  0.3533 -0.2682
   79bbb     H9 2276   7.059   2.775   5.328  2.0024 -2.4048 -0.3757
   79bbb    H10 2277   6.900   2.762   5.259 -0.1182  0.8376 -0.3718
   79bbb     C6 2278   6.716   2.795   5.732  0.5267  0.0290  0.2949
   79bbb    H11 2279   6.634   2.837   5.673 -0.1622 -1.2557  0.2986
   79bbb    H12 2280   6.780   2.881   5.754  1.0954 -0.6344  1.3564
   79bbb     C7 2281   7.082   3.048   5.639 -0.0894 -0.2854  0.0731
   79bbb    H13 2282   7.016   3.095   5.713 -1.9187 -1.6411 -0.6402
   79bbb    H14 2283   7.070   3.108   5.548 -0.5618  0.1181  0.3951
   79bbb     C8 2284   6.656   2.727   5.859 -0.0184  0.0473  0.0782
   79bbb    H15 2285   6.572   2.666   5.823  2.6162 -0.2178 -7.2695
   79bbb    H16 2286   6.620   2.802   5.931  0.7189 -0.5482  1.1033
   79bbb     C9 2287   7.034   2.597   5.219  0.3847 -0.7788 -0.3744
   79bbb    H17 2288   6.950   2.528   5.209 -0.3778 -0.1594  1.3496
   79bbb    H18 2289   7.119   2.543   5.263 -1.1225 -1.0108  2.5480
   79bbb     O1 2290   7.217   3.047   5.697 -0.4763 -0.5208  0.0506
   80bbb     N1 2291   6.626   3.482   6.041 -0.2827  0.2458 -0.1353
   80bbb     C1 2292   6.599   3.520   5.897 -0.3836 -0.3928 -0.2903
   80bbb     H1 2293   6.500   3.479   5.875 -1.8724  1.0635  3.0025
   80bbb     H2 2294   6.669   3.471   5.827  2.2621  2.1170  0.3904
   80bbb     C2 2295   6.507   3.532   6.127 -0.2644  0.1196 -0.3032
   80bbb     H3 2296   6.417   3.475   6.100  0.1987 -0.5676 -0.4239
   80bbb     H4 2297   6.488   3.636   6.099  0.6226  0.5908  0.7714
   80bbb     C3 2298   6.655   3.337   6.046  0.1273 -0.1063  0.5414
   80bbb     H5 2299   6.595   3.267   5.986 -0.3438  0.9774 -0.2700
   80bbb     H6 2300   6.655   3.292   6.146  0.3733 -2.1535 -0.3314
   80bbb     C4 2301   6.801   3.311   6.014  0.1424 -0.2544 -0.6260
   80bbb     H7 2302   6.826   3.360   5.919 -1.6738  1.3873 -0.3177
   80bbb     H8 2303   6.814   3.206   5.986  1.4797 -0.6490  1.2515
   80bbb     C5 2304   6.609   3.672   5.868 -0.1831 -0.2791  0.5064
   80bbb     H9 2305   6.525   3.728   5.912  0.3408  1.1146 -0.2159
   80bbb    H10 2306   6.603   3.691   5.760 -0.7353  0.6784  0.6939
   80bbb     C6 2307   6.528   3.530   6.281 -0.6250 -0.4261 -0.2260
   80bbb    H11 2308   6.605   3.603   6.309 -1.3640  0.5367 -0.6487
   80bbb    H12 2309   6.571   3.433   6.309  0.8468  0.1767 -0.3129
   80bbb     C7 2310   6.897   3.361   6.125  0.3501  0.0465  0.2064
   80bbb    H13 2311   6.879   3.305   6.217 -2.8367  0.7774  0.1455
   80bbb    H14 2312   6.895   3.470   6.131 -0.0617  0.0769 -0.3947
   80bbb     C8 2313   6.396   3.571   6.361 -0.0171 -1.0309  0.0403
   80bbb    H15 2314   6.329   3.484   6.370 -0.2209 -0.7692  1.3158
   80bbb    H16 2315   6.350   3.659   6.316 -0.5961  0.5390  3.4041
   80bbb     C9 2316   6.749   3.724   5.907  0.5980  0.6686  0.6315
   80bbb    H17 2317   6.822   3.645   5.884 -0.6155 -0.3991  0.2956
   80bbb    H18 2318   6.752   3.725   6.016  0.0515 -0.0529  0.6575
   80bbb     O1 2319   7.025   3.329   6.072  0.8230 -0.1977 -0.3542
   81bbb     N1 2320   8.360   1.820   6.358  0.5153 -0.2816 -0.6405
   81bbb     C1 2321   8.410   1.693   6.295 -0.6441 -0.8410  0.7826
   81bbb     H1 2322   8.518   1.689   6.313 -0.2035  2.0519 -0.6471
   81bbb     H2 2323   8.381   1.684   6.189 -0.7249  0.8461  0.6403
   81bbb     C2 2324   8.383   1.838   6.502 -0.9325 -0.0140 -0.5446
   81bbb     H3 2325   8.350   1.744   6.549 -0.4198  0.1424  0.1314
   81bbb     H4 2326   8.320   1.920   6.537 -0.9374  1.1745 -3.1217
   81bbb     C3 2327   8.375   1.940   6.277  0.3566 -0.0097  0.3399
   81bbb     H5 2328   8.478   1.951   6.240 -0.4540 -0.9964 -2.4521
   81bbb     H6 2329   8.371   2.030   6.340  3.7178  0.0719  0.6223
   81bbb     C4 2330   8.275   1.941   6.158 -0.2434 -0.7413  0.6005
   81bbb     H7 2331   8.297   1.855   6.093  0.6432  0.4242 -0.7097
   81bbb     H8 2332   8.294   2.022   6.086 -2.6740 -1.3678 -0.8670
   81bbb     C5 2333   8.359   1.565   6.354  0.7356  0.4408 -0.3243
   81bbb     H9 2334   8.379   1.551   6.461 -0.6849 -2.2398 -0.3142
   81bbb    H10 2335   8.401   1.476   6.306 -1.4235 -2.1238  2.1468
   81bbb     C6 2336   8.529   1.863   6.546  0.5565 -0.5941  0.0432
   81bbb    H11 2337   8.544   1.971   6.533  0.1263 -0.6973 -1.5867
   81bbb    H12 2338   8.611   1.809   6.497  0.8589  0.7067 -0.9471
   81bbb     C7 2339   8.126   1.947   6.196  0.3348  0.1004  0.2783
   81bbb    H13 2340   8.100   1.864   6.263 -0.7219 -0.9572 -1.3536
   81bbb    H14 2341   8.063   1.930   6.108 -1.4666 -1.2688  1.7449
   81bbb     C8 2342   8.544   1.821   6.691 -0.0109  0.0911 -0.7061
   81bbb    H15 2343   8.549   1.713   6.706 -0.4267  0.4364  2.7069
   81bbb    H16 2344   8.453   1.844   6.747 -0.6901 -2.8710 -0.4601
   81bbb     C9 2345   8.203   1.563   6.338 -0.3216 -0.5481 -0.4211
   81bbb    H17 2346   8.185   1.608   6.240 -0.2020 -1.1463 -0.7196
   81bbb    H18 2347   8.167   1.633   6.415 -5.1260 -1.6333 -1.3740
   81bbb     O1 2348   8.098   2.068   6.266 -0.1513  0.2750  0.1452
   82bbb     N1 2349   7.645   1.305   6.797 -0.4808  0.1577 -0.3411
   82bbb     C1 2350   7.687   1.268   6.656  0.6214  0.1568  0.2310
   82bbb     H1 2351   7.789   1.233   6.639  0.5915  1.0095 -2.0318
   82bbb     H2 2352   7.666   1.359   6.599 -1.7504 -0.1322  0.5073
   82bbb     C2 2353   7.522   1.384   6.807 -0.2928  0.0967  0.1663
   82bbb     H3 2354   7.451   1.337   6.738  1.0849 -1.1173 -0.4925
   82bbb     H4 2355   7.549   1.486   6.777 -1.1652 -0.5907 -3.4297
   82bbb     C3 2356   7.756   1.362   6.885  0.4909 -0.3312  0.7057
   82bbb     H5 2357   7.853   1.316   6.862  0.5468 -0.9036  1.9901
   82bbb     H6 2358   7.737   1.344   6.992  0.9057 -0.0745  0.8280
   82bbb     C4 2359   7.787   1.510   6.858 -0.1792 -0.2992  0.5587
   82bbb     H7 2360   7.866   1.533   6.931  0.5847  0.9911 -0.6226
   82bbb     H8 2361   7.708   1.582   6.879  1.6152  2.2367 -0.7985
   82bbb     C5 2362   7.593   1.170   6.578  0.1739 -0.4144  0.3223
   82bbb     H9 2363   7.491   1.183   6.617 -1.0212 -1.6506 -2.1812
   82bbb    H10 2364   7.625   1.069   6.606  0.8235  0.2721  2.2892
   82bbb     C6 2365   7.451   1.370   6.943 -0.3622 -0.2623 -0.0006
   82bbb    H11 2366   7.515   1.409   7.023 -0.2860  0.8197 -0.5605
   82bbb    H12 2367   7.440   1.263   6.963  0.8615 -0.9001 -2.4313
   82bbb     C7 2368   7.845   1.547   6.718  0.5210 -0.2485 -0.0139
   82bbb    H13 2369   7.771   1.529   6.639  0.1650  1.2675 -0.0547
   82bbb    H14 2370   7.921   1.469   6.707  0.9005 -0.1646  1.6905
   82bbb     C8 2371   7.316   1.459   6.944  0.0551  0.2896 -0.1622
   82bbb    H15 2372   7.255   1.455   6.853 -1.4856 -0.3153  0.8614
   82bbb    H16 2373   7.334   1.567   6.953 -1.9214  0.5235  1.9356
   82bbb     C9 2374   7.586   1.190   6.428 -0.2081 -0.5980 -0.1838
   82bbb    H17 2375   7.515   1.119   6.384  0.6248 -0.9165 -1.0483
   82bbb    H18 2376   7.684   1.179   6.378  0.0862 -0.1835  0.2941
   82bbb     O1 2377   7.888   1.686   6.715  0.8765  0.2143  0.0890
   83bbb     N1 2378   9.187   4.515   6.100 -0.1449 -0.0082 -0.2498
   83bbb     C1 2379   9.093   4.622   6.116  0.1251 -0.7445  0.1497
   83bbb     H1 2380   9.065   4.622   6.223  0.3758  2.1343  0.2890
   83bbb     H2 2381   9.005   4.610   6.053  2.3915  0.0151 -3.4171
   83bbb     C2 2382   9.260   4.507   5.970 -0.3426  0.1523  0.5906
   83bbb     H3 2383   9.333   4.428   5.990 -2.1791 -1.6926  0.3180
   83bbb     H4 2384   9.324   4.595   5.949 -1.0360  1.1159  2.3044
   83bbb     C3 2385   9.125   4.387   6.142  0.1232  0.3708 -1.4424
   83bbb     H5 2386   9.043   4.365   6.073 -0.4575 -1.0390 -0.3498
   83bbb     H6 2387   9.080   4.401   6.241  0.4173  0.1951 -1.2812
   83bbb     C4 2388   9.217   4.259   6.139  0.0900  0.1184  0.4955
   83bbb     H7 2389   9.285   4.274   6.224 -2.6328  2.9806  2.3791
   83bbb     H8 2390   9.285   4.248   6.054  0.3369 -1.6560  0.8795
   83bbb     C5 2391   9.141   4.764   6.084  0.2613 -0.2227  0.4222
   83bbb     H9 2392   9.059   4.829   6.116  0.1750 -0.1964  0.1493
   83bbb    H10 2393   9.147   4.770   5.974  0.5069 -0.2916  0.4283
   83bbb     C6 2394   9.188   4.466   5.841 -0.2092 -0.7888 -0.6681
   83bbb    H11 2395   9.107   4.539   5.830  0.6652  0.2681 -0.1355
   83bbb    H12 2396   9.134   4.374   5.869 -2.7118  0.9730  0.6709
   83bbb     C7 2397   9.143   4.120   6.152  0.0197  0.1510  0.4409
   83bbb    H13 2398   9.078   4.147   6.235 -1.4980  2.4477 -1.3721
   83bbb    H14 2399   9.213   4.038   6.173  0.5126  0.1469 -1.0647
   83bbb     C8 2400   9.275   4.466   5.725 -0.0601 -0.5127 -0.0180
   83bbb    H15 2401   9.341   4.379   5.718  1.9381  0.9631 -0.3167
   83bbb    H16 2402   9.341   4.553   5.711  0.6023 -1.1187 -0.7908
   83bbb     C9 2403   9.273   4.813   6.152 -0.7132  1.1608 -0.1693
   83bbb    H17 2404   9.352   4.742   6.127 -1.1080  0.3768  0.7202
   83bbb    H18 2405   9.267   4.793   6.260  2.2901 -1.6041 -0.3764
   83bbb     O1 2406   9.070   4.095   6.031  0.4866  0.3430  0.8364
   84bbb     N1 2407   8.343   4.407   5.349 -0.0284 -0.0611 -0.1931
   84bbb     C1 2408   8.288   4.450   5.215 -0.8825 -0.3255 -0.1527
   84bbb     H1 2409   8.192   4.400   5.203 -0.9839 -0.0807 -0.3700
   84bbb     H2 2410   8.351   4.417   5.131 -0.6554  0.2418 -0.2156
   84bbb     C2 2411   8.340   4.254   5.354 -0.3530 -0.5051 -0.3535
   84bbb     H3 2412   8.400   4.210   5.273  1.0488 -0.4915  0.6319
   84bbb     H4 2413   8.239   4.216   5.335 -0.3525 -0.2632 -0.8427
   84bbb     C3 2414   8.465   4.473   5.402 -0.5558 -0.5020  0.3697
   84bbb     H5 2415   8.485   4.430   5.501 -0.4290  0.2531  0.6777
   84bbb     H6 2416   8.447   4.580   5.418 -0.9597 -0.3088 -1.2178
   84bbb     C4 2417   8.589   4.455   5.314  0.0512 -0.3580  0.0155
   84bbb     H7 2418   8.569   4.475   5.208 -1.8290 -0.2565  0.3580
   84bbb     H8 2419   8.613   4.348   5.309  0.9966 -0.1269 -0.6032
   84bbb     C5 2420   8.255   4.598   5.193 -0.7019 -0.0076 -1.1108
   84bbb     H9 2421   8.336   4.656   5.147  0.1000  1.7037  2.1219
   84bbb    H10 2422   8.247   4.644   5.292  1.6196 -0.4950 -0.6380
   84bbb     C6 2423   8.402   4.192   5.481  0.0809 -0.5955 -0.6676
   84bbb    H11 2424   8.357   4.235   5.571  0.7203  0.5586 -0.8788
   84bbb    H12 2425   8.511   4.202   5.491  0.2723 -3.2603  0.9922
   84bbb     C7 2426   8.712   4.523   5.369 -0.0659  0.0953  0.5717
   84bbb    H13 2427   8.694   4.622   5.415  0.4118  0.8110 -0.7314
   84bbb    H14 2428   8.784   4.542   5.289  0.8436 -1.9028  0.8611
   84bbb     C8 2429   8.392   4.035   5.484  0.6399 -0.2520 -0.0060
   84bbb    H15 2430   8.449   3.984   5.562  0.8599  1.0088  0.6776
   84bbb    H16 2431   8.422   4.001   5.384  0.5850 -1.4392  0.3675
   84bbb     C9 2432   8.121   4.612   5.118  0.0829 -0.1946 -0.1685
   84bbb    H17 2433   8.121   4.548   5.028  0.8921  0.0245 -0.3359
   84bbb    H18 2434   8.111   4.717   5.090 -1.4125  0.4489  2.4835
   84bbb     O1 2435   8.762   4.429   5.472 -0.6598 -0.1075  0.1144
   85bbb     N1 2436   8.921   3.006   7.037  0.3141 -0.0228  0.0026
   85bbb     C1 2437   9.060   3.032   6.995 -0.4695  0.0725  0.4031
   85bbb     H1 2438   9.098   3.113   7.059  0.6195  0.5586 -0.8327
   85bbb     H2 2439   9.059   3.067   6.891 -0.3668  1.0859  0.7332
   85bbb     C2 2440   8.903   2.985   7.184  0.2313 -0.2688  0.5706
   85bbb     H3 2441   8.963   2.903   7.225 -0.7094  0.3620  3.4245
   85bbb     H4 2442   8.800   2.957   7.207 -0.1070  1.1058  0.8135
   85bbb     C3 2443   8.830   3.114   6.991 -0.6320  0.3514 -0.6858
   85bbb     H5 2444   8.863   3.211   7.030 -1.2834  0.6307 -0.8194
   85bbb     H6 2445   8.731   3.096   7.036 -2.0492  3.7442 -2.0876
   85bbb     C4 2446   8.798   3.119   6.834 -0.1135 -0.4711 -0.4822
   85bbb     H7 2447   8.896   3.116   6.785  1.2017  3.5826  1.4207
   85bbb     H8 2448   8.761   3.215   6.794 -0.8719 -0.4951  0.1311
   85bbb     C5 2449   9.151   2.911   7.001  0.0791  0.3522  0.1984
   85bbb     H9 2450   9.114   2.848   6.918  0.8156  0.3277 -0.1204
   85bbb    H10 2451   9.146   2.858   7.097  3.4537 -1.2413 -0.3412
   85bbb     C6 2452   8.922   3.109   7.282  0.4611 -0.0695 -1.3281
   85bbb    H11 2453   8.835   3.175   7.269  0.9584  0.8804 -0.0917
   85bbb    H12 2454   9.014   3.162   7.255  0.1071  0.9485 -0.6075
   85bbb     C7 2455   8.720   2.998   6.782  0.0080 -0.1452 -1.0747
   85bbb    H13 2456   8.637   2.970   6.848 -1.2556 -1.5139 -3.1157
   85bbb    H14 2457   8.789   2.912   6.776  3.3575  2.2458  0.1770
   85bbb     C8 2458   8.922   3.065   7.430  0.2803  0.0898  0.3498
   85bbb    H15 2459   8.829   3.018   7.465 -0.7057 -0.0126 -2.2166
   85bbb    H16 2460   8.922   3.152   7.498  0.0016  0.0810  0.3600
   85bbb     C9 2461   9.294   2.948   6.959 -0.3036 -0.0392 -0.4600
   85bbb    H17 2462   9.340   3.025   7.023  1.2458 -1.1593 -0.1901
   85bbb    H18 2463   9.297   2.995   6.860 -0.1838  0.9208 -0.0168
   85bbb     O1 2464   8.677   3.021   6.654 -0.4719 -0.7671 -0.1696
   86bbb     N1 2465   7.983   2.328   5.864 -0.3189  0.2699 -0.5740
   86bbb     C1 2466   8.036   2.187   5.880  0.0710 -0.0419 -0.8393
   86bbb     H1 2467   7.950   2.120   5.897 -2.4425  2.8732 -1.1716
   86bbb     H2 2468   8.097   2.185   5.971 -0.9600  1.5694 -0.0620
   86bbb     C2 2469   7.892   2.349   5.751  0.0580  0.5658  0.3013
   86bbb     H3 2470   7.789   2.312   5.765  0.6132 -0.9145  0.6577
   86bbb     H4 2471   7.927   2.298   5.660 -2.2781 -0.5749 -0.0494
   86bbb     C3 2472   7.939   2.395   5.987 -0.0935  0.6548 -0.2235
   86bbb     H5 2473   7.861   2.349   6.048  0.9453 -1.1617 -0.1942
   86bbb     H6 2474   7.909   2.498   5.966 -1.9238 -0.3084 -2.8834
   86bbb     C4 2475   8.059   2.420   6.084 -0.0443  0.1217 -0.0866
   86bbb     H7 2476   8.113   2.325   6.097 -0.1095 -0.3238 -2.5266
   86bbb     H8 2477   8.009   2.459   6.173  1.5673 -0.0995  0.9532
   86bbb     C5 2478   8.115   2.139   5.754 -0.4366  0.5840 -0.4798
   86bbb     H9 2479   8.042   2.132   5.673 -1.1201  0.9786  0.0837
   86bbb    H10 2480   8.137   2.033   5.767 -3.2597  0.0137  0.2890
   86bbb     C6 2481   7.864   2.496   5.711  0.2861  0.3369  0.0092
   86bbb    H11 2482   7.957   2.552   5.732  0.7870 -0.7319  0.7416
   86bbb    H12 2483   7.777   2.529   5.770 -0.7507 -2.4809  0.1905
   86bbb     C7 2484   8.151   2.529   6.024  0.7228  0.3513  0.4982
   86bbb    H13 2485   8.084   2.612   6.000 -0.6719 -1.2539 -1.6138
   86bbb    H14 2486   8.192   2.492   5.929 -1.8901  1.1467 -1.0498
   86bbb     C8 2487   7.830   2.516   5.558 -0.3470  0.4015 -0.0956
   86bbb    H15 2488   7.827   2.622   5.531  1.1909  0.1941 -1.2168
   86bbb    H16 2489   7.736   2.465   5.534 -0.5192  0.7389 -0.1339
   86bbb     C9 2490   8.229   2.232   5.706 -0.7385 -0.1437 -0.2097
   86bbb    H17 2491   8.259   2.282   5.799  1.4742  2.0361 -1.9790
   86bbb    H18 2492   8.193   2.312   5.641 -0.4748  1.5362  1.6285
   86bbb     O1 2493   8.254   2.563   6.126  0.6786 -0.1371  0.8690
   87bbb     N1 2494   7.771   5.249   7.427  0.3572 -0.0178 -0.2685
   87bbb     C1 2495   7.789   5.397   7.415  0.3426 -0.3652  0.3201
   87bbb     H1 2496   7.892   5.430   7.399  0.5556 -0.6675  1.0273
   87bbb     H2 2497   7.761   5.437   7.514  0.1923 -1.3573  0.6830
   87bbb     C2 2498   7.624   5.220   7.442  0.7386 -0.3075 -1.0001
   87bbb     H3 2499   7.618   5.110   7.444 -0.3360 -0.2376  0.2055
   87bbb     H4 2500   7.575   5.249   7.348  2.2713  0.5113 -1.5922
   87bbb     C3 2501   7.838   5.172   7.321  0.0688  0.3586  1.2328
   87bbb     H5 2502   7.942   5.205   7.310  0.0490 -0.2430 -1.5320
   87bbb     H6 2503   7.793   5.195   7.223 -0.9519 -0.3382  1.5197
   87bbb     C4 2504   7.852   5.017   7.347  0.0399 -0.4047 -0.2826
   87bbb     H7 2505   7.924   4.981   7.273 -0.4632  0.9304 -1.4554
   87bbb     H8 2506   7.759   4.965   7.322  0.2595  0.5820 -3.5901
   87bbb     C5 2507   7.708   5.469   7.305 -0.2981 -0.4159  0.7289
   87bbb     H9 2508   7.693   5.406   7.216 -2.5610  0.2654  0.5867
   87bbb    H10 2509   7.757   5.560   7.269 -1.4841  0.2817  0.8673
   87bbb     C6 2510   7.564   5.270   7.575 -0.2888  0.4894 -0.2854
   87bbb    H11 2511   7.585   5.376   7.592  1.8155 -0.3062  3.1427
   87bbb    H12 2512   7.630   5.229   7.653  0.9438 -0.1459 -1.6190
   87bbb     C7 2513   7.901   4.976   7.490 -0.1181 -0.2970 -0.8220
   87bbb    H13 2514   7.978   5.046   7.524 -0.8483 -0.8898  2.3400
   87bbb    H14 2515   7.939   4.873   7.491  1.0778  0.0656  2.0663
   87bbb     C8 2516   7.417   5.232   7.603  0.5138  0.3072 -0.3526
   87bbb    H15 2517   7.422   5.126   7.630  3.2502  0.3118 -0.5594
   87bbb    H16 2518   7.345   5.256   7.523  0.5028 -2.7930 -1.3888
   87bbb     C9 2519   7.570   5.530   7.353  0.2368  0.6658  0.0320
   87bbb    H17 2520   7.495   5.452   7.374  0.9267  0.0095  0.0714
   87bbb    H18 2521   7.536   5.598   7.274 -1.5726  0.6613  0.7532
   87bbb     O1 2522   7.792   4.966   7.588 -0.1010 -0.1240  0.3842
   88bbb     N1 2523   6.881   4.708   8.403  0.4617 -0.4067 -0.0310
   88bbb     C1 2524   6.946   4.674   8.528  0.0944  0.3948 -0.0640
   88bbb     H1 2525   6.890   4.725   8.608 -0.1490  1.2890 -0.7886
   88bbb     H2 2526   7.042   4.727   8.539  0.4402 -0.2943  0.2967
   88bbb     C2 2527   6.760   4.624   8.376 -0.3731  0.1024 -0.0857
   88bbb     H3 2528   6.793   4.520   8.364  2.0646  0.8416 -0.4186
   88bbb     H4 2529   6.706   4.644   8.283 -2.4839 -0.3260  0.9763
   88bbb     C3 2530   6.972   4.713   8.282 -0.4836 -0.4698 -0.9466
   88bbb     H5 2531   7.017   4.614   8.271 -1.9889 -1.4867  1.3837
   88bbb     H6 2532   7.050   4.787   8.305 -1.5007  1.2803 -2.7890
   88bbb     C4 2533   6.909   4.746   8.143  0.4638 -0.3302 -0.2092
   88bbb     H7 2534   6.851   4.839   8.144  0.0037 -0.5943 -1.2360
   88bbb     H8 2535   6.832   4.676   8.108 -0.4627  0.9795 -0.8539
   88bbb     C5 2536   6.966   4.522   8.547 -0.3186  0.5437 -0.4834
   88bbb     H9 2537   7.011   4.482   8.456  0.0851  0.8338 -0.4155
   88bbb    H10 2538   6.872   4.466   8.556 -0.2928  0.6214  0.3279
   88bbb     C6 2539   6.647   4.631   8.483  0.0238 -0.5553  0.2503
   88bbb    H11 2540   6.623   4.737   8.494  0.0472 -0.7470  2.7555
   88bbb    H12 2541   6.680   4.597   8.582 -2.7211  0.6986  1.7024
   88bbb     C7 2542   7.020   4.769   8.040  0.3383 -0.0747 -0.2108
   88bbb    H13 2543   6.981   4.758   7.939 -0.2364 -0.3016  0.0330
   88bbb    H14 2544   7.088   4.685   8.060  0.4208  0.0764  0.1563
   88bbb     C8 2545   6.515   4.550   8.449 -0.5133  0.0178 -0.0886
   88bbb    H15 2546   6.539   4.444   8.462 -1.3284 -0.0416  1.0647
   88bbb    H16 2547   6.485   4.558   8.344  1.6644 -1.7287 -0.9035
   88bbb     C9 2548   7.056   4.496   8.675  0.4392 -0.0679 -0.6291
   88bbb    H17 2549   7.040   4.390   8.696  0.3270  0.0177 -0.2744
   88bbb    H18 2550   7.008   4.551   8.757  2.4056  3.5829 -1.7185
   88bbb     O1 2551   7.079   4.897   8.037  0.0532 -0.5827 -0.0849
   89bbb     N1 2552   6.540   4.420   6.579 -0.4065 -0.3989  0.1421
   89bbb     C1 2553   6.439   4.495   6.647 -0.2728 -0.2428 -0.1387
   89bbb     H1 2554   6.390   4.427   6.717  1.4601 -0.9757  0.4155
   89bbb     H2 2555   6.369   4.525   6.567 -0.0061 -2.6707 -1.3945
   89bbb     C2 2556   6.613   4.492   6.472  0.5113 -0.0851 -0.1158
   89bbb     H3 2557   6.671   4.421   6.413 -1.4017 -2.0168  0.2115
   89bbb     H4 2558   6.678   4.571   6.513  1.0162  0.0997 -1.2222
   89bbb     C3 2559   6.636   4.368   6.683  0.0724  1.0023 -0.6602
   89bbb     H5 2560   6.678   4.453   6.738 -1.6569  1.2354  0.3810
   89bbb     H6 2561   6.714   4.315   6.627 -1.1700 -2.1606  0.3618
   89bbb     C4 2562   6.581   4.251   6.772  0.3887  0.1580  0.1912
   89bbb     H7 2563   6.555   4.164   6.711  3.5763 -2.4406  2.2263
   89bbb     H8 2564   6.496   4.280   6.835 -0.6133  0.4162 -1.2308
   89bbb     C5 2565   6.482   4.620   6.731 -0.3439  0.2236  0.2141
   89bbb     H9 2566   6.548   4.685   6.671 -1.0926  1.8276  1.0644
   89bbb    H10 2567   6.539   4.590   6.820 -0.9497 -0.9713  0.2106
   89bbb     C6 2568   6.518   4.554   6.366  0.6076 -0.2977 -0.2169
   89bbb    H11 2569   6.448   4.628   6.407 -0.3071 -1.0989 -0.2912
   89bbb    H12 2570   6.454   4.474   6.325  1.2274 -1.2048  0.5392
   89bbb     C7 2571   6.704   4.200   6.856  0.0445 -0.4062 -0.1569
   89bbb    H13 2572   6.791   4.218   6.790  0.7358  0.3451  0.9313
   89bbb    H14 2573   6.695   4.100   6.900  2.4176  0.5764  2.8812
   89bbb     C8 2574   6.584   4.622   6.247 -0.4765  0.1703 -1.0856
   89bbb    H15 2575   6.651   4.550   6.197  2.3349  0.7001  1.5940
   89bbb    H16 2576   6.646   4.705   6.283 -1.4174  1.2852 -1.9728
   89bbb     C9 2577   6.375   4.709   6.779 -0.5646 -0.3390  0.6866
   89bbb    H17 2578   6.298   4.704   6.701 -1.8988  0.3787  1.9115
   89bbb    H18 2579   6.402   4.815   6.778 -0.1408 -0.4486  0.4895
   89bbb     O1 2580   6.727   4.297   6.968  0.2964  0.3418  0.2610
   90bbb     N1 2581   5.807   4.264   7.587  0.4295 -0.7756  0.5091
   90bbb     C1 2582   5.771   4.179   7.470  0.2185  0.4340 -0.3364
   90bbb     H1 2583   5.715   4.090   7.502  1.8450 -0.6870 -0.5261
   90bbb     H2 2584   5.860   4.149   7.413 -0.1930  1.6696 -1.7140
   90bbb     C2 2585   5.686   4.310   7.669  0.6033 -0.1463  0.7726
   90bbb     H3 2586   5.643   4.381   7.597  0.6344 -0.7855  0.1009
   90bbb     H4 2587   5.722   4.365   7.756  1.7631 -1.4047  1.1318
   90bbb     C3 2588   5.901   4.380   7.561 -0.0880 -0.5063 -0.5617
   90bbb     H5 2589   5.927   4.412   7.663 -2.5921  1.5019 -0.4570
   90bbb     H6 2590   5.848   4.462   7.511  0.2737 -0.8187 -1.4628
   90bbb     C4 2591   6.026   4.364   7.481 -0.3686  0.7599  0.5321
   90bbb     H7 2592   5.994   4.326   7.383 -2.7338 -0.8952  1.8392
   90bbb     H8 2593   6.081   4.284   7.531 -0.6034 -0.0310 -0.4299
   90bbb     C5 2594   5.700   4.255   7.351  0.4808 -0.3931  0.2186
   90bbb     H9 2595   5.766   4.325   7.299 -0.7953  1.8016  1.3927
   90bbb    H10 2596   5.622   4.313   7.402 -0.0487 -2.1915  1.5479
   90bbb     C6 2597   5.588   4.200   7.710 -0.3790  0.0049  0.0368
   90bbb    H11 2598   5.542   4.171   7.614  0.3812 -2.2104  0.2774
   90bbb    H12 2599   5.502   4.235   7.768 -0.7573 -1.4765  0.4196
   90bbb     C7 2600   6.111   4.496   7.467 -0.3473 -0.9797 -0.3068
   90bbb    H13 2601   6.110   4.546   7.565 -0.4655  0.1423 -0.8537
   90bbb    H14 2602   6.064   4.569   7.400  1.6383  0.3578 -0.3395
   90bbb     C8 2603   5.656   4.072   7.772  0.1322  0.5015 -0.1249
   90bbb    H15 2604   5.744   4.045   7.711  1.4563 -0.0394  1.9072
   90bbb    H16 2605   5.584   3.990   7.758  0.2921  0.1983  0.7864
   90bbb     C9 2606   5.631   4.170   7.242 -0.0882  0.7684 -0.1022
   90bbb    H17 2607   5.562   4.099   7.290  1.9162 -1.5586 -0.4506
   90bbb    H18 2608   5.709   4.113   7.190  0.8596  1.2770  0.7269
   90bbb     O1 2609   6.245   4.463   7.425 -0.6330  0.1031 -0.2851
   91bbb     N1 2610   8.940   4.925   6.452 -0.6970  0.1678  0.1774
   91bbb     C1 2611   9.055   5.011   6.414 -0.7361  0.3637  0.1419
   91bbb     H1 2612   9.016   5.113   6.402  0.0542  0.6596  0.0472
   91bbb     H2 2613   9.098   4.976   6.320 -0.2826 -1.5019  0.9957
   91bbb     C2 2614   8.978   4.798   6.510  0.2871  0.5153 -0.4375
   91bbb     H3 2615   9.049   4.808   6.593  0.4889 -3.1898  0.0342
   91bbb     H4 2616   9.027   4.746   6.427  0.5149  0.8139 -0.4915
   91bbb     C3 2617   8.843   4.915   6.339  0.4062 -0.1565 -0.6034
   91bbb     H5 2618   8.761   4.844   6.355  1.7695 -1.6517 -0.0078
   91bbb     H6 2619   8.901   4.884   6.251  0.1845  0.4391 -0.9655
   91bbb     C4 2620   8.767   5.042   6.302  0.8116 -0.9064 -0.4247
   91bbb     H7 2621   8.714   5.025   6.208  2.1443 -1.2969 -1.1334
   91bbb     H8 2622   8.839   5.122   6.280  2.1353 -2.0132 -0.2751
   91bbb     C5 2623   9.180   5.019   6.509  0.2505 -0.1178 -0.3261
   91bbb     H9 2624   9.263   5.074   6.462  0.0478 -0.8964 -1.6720
   91bbb    H10 2625   9.226   4.919   6.513  0.7658  0.1082 -0.5058
   91bbb     C6 2626   8.863   4.710   6.574  0.6038  0.1572 -0.2077
   91bbb    H11 2627   8.807   4.666   6.491 -0.9462 -0.0600  0.9174
   91bbb    H12 2628   8.791   4.776   6.622 -1.5002 -1.1061 -1.4708
   91bbb     C7 2629   8.675   5.088   6.418  0.2618 -0.1198 -0.7816
   91bbb    H13 2630   8.729   5.099   6.513  0.2223 -2.1693 -0.4859
   91bbb    H14 2631   8.596   5.016   6.438  2.1092 -2.5790 -1.8102
   91bbb     C8 2632   8.916   4.595   6.663 -0.5821  0.2882  0.7608
   91bbb    H15 2633   8.838   4.522   6.687 -0.3946  0.4149  1.8153
   91bbb    H16 2634   8.959   4.638   6.754  0.9110 -0.6662  0.5434
   91bbb     C9 2635   9.151   5.079   6.647  0.1285  0.3001  0.0579
   91bbb    H17 2636   9.056   5.033   6.676  0.3412 -0.5585 -0.5571
   91bbb    H18 2637   9.150   5.188   6.633 -0.6509  0.5910  2.1483
   91bbb     O1 2638   8.609   5.205   6.368 -0.8718  0.2191 -0.0941
   92bbb     N1 2639   9.051   6.157   6.524 -0.4293  0.1157 -0.4632
   92bbb     C1 2640   9.181   6.220   6.532  0.4907 -0.5774 -0.3817
   92bbb     H1 2641   9.214   6.240   6.635  0.7764 -1.1514 -0.3588
   92bbb     H2 2642   9.176   6.317   6.480  1.2016 -0.4043 -0.1405
   92bbb     C2 2643   8.946   6.247   6.590  0.3474  0.2774 -0.2651
   92bbb     H3 2644   8.941   6.347   6.544  0.7226 -0.4937 -2.0906
   92bbb     H4 2645   8.962   6.256   6.698  0.3505 -0.2242 -0.2223
   92bbb     C3 2646   9.052   6.008   6.554  0.7968 -0.2028  0.2692
   92bbb     H5 2647   9.131   5.957   6.498 -0.3821 -1.4396 -0.3249
   92bbb     H6 2648   8.956   5.961   6.527  0.4484  0.3441  0.5356
   92bbb     C4 2649   9.081   5.988   6.707  0.1789 -0.2361 -0.3212
   92bbb     H7 2650   8.992   6.014   6.766 -0.5965  0.6929 -1.8341
   92bbb     H8 2651   9.166   6.049   6.741  1.0559 -1.4722 -0.2520
   92bbb     C5 2652   9.304   6.141   6.471  0.7447  0.0125 -0.5086
   92bbb     H9 2653   9.298   6.089   6.374  2.4057 -0.6607 -0.2814
   92bbb    H10 2654   9.327   6.063   6.544 -0.4993  0.0492 -0.0420
   92bbb     C6 2655   8.802   6.185   6.585 -0.5878  0.0189  0.1393
   92bbb    H11 2656   8.737   6.253   6.641 -0.2308  1.3919 -1.0486
   92bbb    H12 2657   8.796   6.088   6.637  0.0997 -0.0947  0.0222
   92bbb     C7 2658   9.113   5.843   6.747  0.0847 -0.2891 -0.5820
   92bbb    H13 2659   9.159   5.853   6.846  1.2632  1.2230 -1.2270
   92bbb    H14 2660   9.193   5.808   6.680  0.6015  0.3731 -0.3219
   92bbb     C8 2661   8.737   6.184   6.443 -0.7379 -0.2146 -0.0520
   92bbb    H15 2662   8.789   6.117   6.374  1.4355  1.8968 -0.6184
   92bbb    H16 2663   8.739   6.282   6.393 -0.0665  0.5911  1.4707
   92bbb     C9 2664   9.433   6.224   6.451  0.3259  0.1790  0.0237
   92bbb    H17 2665   9.410   6.309   6.385  0.9959  0.9452  0.7546
   92bbb    H18 2666   9.511   6.162   6.403  0.4600  1.4648 -1.5335
   92bbb     O1 2667   8.993   5.768   6.768 -0.0217  0.1964 -0.4406
   93bbb     N1 2668   7.845   5.240   5.321  0.2548 -0.0553 -0.1348
   93bbb     C1 2669   7.866   5.131   5.214 -1.3678  0.4023 -0.5824
   93bbb     H1 2670   7.812   5.156   5.121 -0.3822  0.9688 -1.0235
   93bbb     H2 2671   7.830   5.031   5.239 -0.1034  0.2447  0.7758
   93bbb     C2 2672   7.704   5.277   5.340 -0.1348 -0.0833 -0.5847
   93bbb     H3 2673   7.696   5.369   5.399 -0.1553  0.7976 -1.9371
   93bbb     H4 2674   7.659   5.191   5.392  1.4378 -0.5313  0.1133
   93bbb     C3 2675   7.916   5.229   5.449 -0.7343 -0.0304 -0.0424
   93bbb     H5 2676   7.890   5.315   5.513 -1.4428 -0.2811  0.0228
   93bbb     H6 2677   8.024   5.236   5.433 -0.0775  1.5066  3.9887
   93bbb     C4 2678   7.892   5.095   5.518  0.3658  0.0409 -0.6310
   93bbb     H7 2679   7.949   5.018   5.465  0.4246 -1.3116  1.2748
   93bbb     H8 2680   7.787   5.063   5.514 -0.3987  2.4348 -1.3623
   93bbb     C5 2681   8.009   5.109   5.169 -0.6234 -0.1744  0.5966
   93bbb     H9 2682   8.074   5.096   5.256 -0.2201  1.3373  0.5411
   93bbb    H10 2683   8.050   5.190   5.108  0.7280 -1.1628  0.1473
   93bbb     C6 2684   7.620   5.310   5.212 -0.5073 -0.5001 -0.0085
   93bbb    H11 2685   7.607   5.219   5.153 -3.2811 -0.1403 -0.0935
   93bbb    H12 2686   7.672   5.384   5.149  2.6789 -0.2037  2.6802
   93bbb     C7 2687   7.946   5.082   5.666  0.1970 -0.0546 -0.5435
   93bbb    H13 2688   7.906   4.990   5.710 -0.7143 -0.4384 -2.0898
   93bbb    H14 2689   7.896   5.162   5.722 -0.1080  1.7959 -3.2604
   93bbb     C8 2690   7.479   5.365   5.259  1.0494 -0.0318  0.5373
   93bbb    H15 2691   7.423   5.375   5.166  2.4096  2.5537 -0.1141
   93bbb    H16 2692   7.490   5.468   5.297 -0.9412  1.5624 -2.7224
   93bbb     C9 2693   8.026   4.976   5.084  0.1954 -0.6542  0.4890
   93bbb    H17 2694   8.026   4.887   5.149  2.0718  0.0352  1.5217
   93bbb    H18 2695   8.124   4.970   5.034 -0.3021 -0.3474 -0.5429
   93bbb     O1 2696   8.091   5.087   5.671  0.0886 -0.5483  0.2140
   94bbb     N1 2697   7.498   5.595   6.366  0.0700  0.8568 -0.5040
   94bbb     C1 2698   7.519   5.685   6.261  0.3641  0.1360  0.1613
   94bbb     H1 2699   7.516   5.629   6.167 -0.1117  0.8835 -0.2801
   94bbb     H2 2700   7.613   5.736   6.286  0.4045 -0.3732  1.1044
   94bbb     C2 2701   7.391   5.499   6.343  0.7115  0.6370  0.1910
   94bbb     H3 2702   7.420   5.443   6.253 -0.6610 -0.5139  0.4125
   94bbb     H4 2703   7.304   5.552   6.303  1.2251 -0.8141 -3.2886
   94bbb     C3 2704   7.631   5.537   6.406  0.6892  0.4065  0.2003
   94bbb     H5 2705   7.623   5.471   6.494  1.9345  1.2500  0.9706
   94bbb     H6 2706   7.696   5.617   6.442  0.0373  1.9356 -1.8542
   94bbb     C4 2707   7.710   5.462   6.294  0.4963  0.3856 -0.0968
   94bbb     H7 2708   7.724   5.524   6.204 -0.2298  1.1346  0.2904
   94bbb     H8 2709   7.659   5.371   6.260 -0.5448  1.1450 -0.6438
   94bbb     C5 2710   7.404   5.786   6.246  0.1679  0.2974 -0.7784
   94bbb     H9 2711   7.387   5.830   6.345 -0.6387 -0.4615 -0.5651
   94bbb    H10 2712   7.309   5.736   6.223 -0.2846  0.6699  0.2426
   94bbb     C6 2713   7.359   5.405   6.462  0.8609 -0.4551 -0.5037
   94bbb    H11 2714   7.442   5.333   6.470 -0.6799 -2.0619  3.4606
   94bbb    H12 2715   7.267   5.349   6.443  1.4789 -1.0010 -2.1157
   94bbb     C7 2716   7.847   5.415   6.350  0.5921 -0.2506 -0.3757
   94bbb    H13 2717   7.833   5.345   6.433 -1.9616  2.4162  1.6724
   94bbb    H14 2718   7.892   5.508   6.387 -0.2310  0.1499 -0.3577
   94bbb     C8 2719   7.330   5.478   6.597  0.7278 -0.0027  0.2853
   94bbb    H15 2720   7.422   5.530   6.624  0.0232  0.3904  2.0607
   94bbb    H16 2721   7.294   5.407   6.673  1.8391 -1.5488 -0.5662
   94bbb     C9 2722   7.423   5.906   6.151  0.3119  0.0457  0.3734
   94bbb    H17 2723   7.515   5.951   6.191  1.3998 -3.2619  1.9743
   94bbb    H18 2724   7.330   5.962   6.160 -1.2186 -2.0135 -1.4463
   94bbb     O1 2725   7.926   5.364   6.244  0.5252  0.0285  0.4845
   95bbb     N1 2726   7.002   1.916  10.109 -0.4464  0.8079  0.1834
   95bbb     C1 2727   6.904   1.808  10.142  0.4170  0.2442 -0.7170
   95bbb     H1 2728   6.847   1.841  10.230  3.2699  2.5534  0.4331
   95bbb     H2 2729   6.954   1.713  10.163 -2.6973 -1.9615 -2.5346
   95bbb     C2 2730   7.058   1.985  10.229  0.2494 -0.5388  0.0530
   95bbb     H3 2731   7.134   1.923  10.278  1.4721 -0.9686 -2.2405
   95bbb     H4 2732   6.980   1.990  10.306  0.0629  1.6905 -0.2128
   95bbb     C3 2733   7.106   1.874  10.009 -1.2471  0.9476  0.1950
   95bbb     H5 2734   7.155   1.962   9.965  1.3161 -1.1490 -1.4912
   95bbb     H6 2735   7.054   1.814   9.933  0.5499 -1.1009  0.4907
   95bbb     C4 2736   7.219   1.785  10.066 -0.7094  0.2856  0.1885
   95bbb     H7 2737   7.166   1.697  10.103 -1.3101  0.0793 -1.1065
   95bbb     H8 2738   7.273   1.825  10.152  1.3414 -0.9211 -0.4680
   95bbb     C5 2739   6.814   1.781  10.025  0.2426 -0.3030 -0.4755
   95bbb     H9 2740   6.877   1.736   9.948  0.9977 -0.6730  0.3421
   95bbb    H10 2741   6.775   1.877   9.988 -2.5486 -1.9018 -1.9932
   95bbb     C6 2742   7.107   2.131  10.192 -0.0293  0.5747 -0.0363
   95bbb    H11 2743   7.044   2.170  10.110 -2.6381 -0.2940  1.4559
   95bbb    H12 2744   7.207   2.128  10.147  0.1240  1.1076  0.2542
   95bbb     C7 2745   7.323   1.748   9.957  0.2743 -0.1275 -0.1174
   95bbb    H13 2746   7.376   1.660   9.994  0.2601  0.2639  0.8841
   95bbb    H14 2747   7.390   1.834   9.939 -0.2795  0.3317 -0.0078
   95bbb     C8 2748   7.106   2.239  10.303  0.1405  0.2410  0.4631
   95bbb    H15 2749   7.139   2.328  10.248 -2.7861  2.0649  1.3989
   95bbb    H16 2750   7.177   2.213  10.382 -0.5305  0.2936  1.0884
   95bbb     C9 2751   6.700   1.678  10.059  0.0203 -0.3323  0.4541
   95bbb    H17 2752   6.633   1.713  10.138 -1.7870 -0.5875 -0.8898
   95bbb    H18 2753   6.742   1.584  10.097  0.7795 -0.2745 -0.2022
   95bbb     O1 2754   7.248   1.709   9.834 -0.3143  0.2208  0.0497
   96bbb     N1 2755   7.947   1.049   9.135  0.8641  0.4310 -0.4947
   96bbb     C1 2756   7.979   1.053   8.990 -0.1983 -0.6319  0.6823
   96bbb     H1 2757   7.895   1.110   8.949  0.0635  1.3916  2.7465
   96bbb     H2 2758   7.984   0.955   8.941  2.0354 -0.2768  0.0830
   96bbb     C2 2759   8.027   0.956   9.222  0.6058  0.2530 -0.2938
   96bbb     H3 2760   7.990   0.964   9.324  0.2220 -0.1127 -0.4014
   96bbb     H4 2761   8.133   0.985   9.228  0.2450  1.2554  2.1545
   96bbb     C3 2762   7.912   1.188   9.180 -0.6371 -0.3408 -0.7367
   96bbb     H5 2763   7.849   1.232   9.102 -0.1995 -0.5843 -1.2335
   96bbb     H6 2764   8.004   1.249   9.180  1.3705 -3.1682 -1.1023
   96bbb     C4 2765   7.846   1.198   9.319  0.1924 -0.5867  0.0506
   96bbb     H7 2766   7.925   1.207   9.396  0.7970 -0.2949 -0.5911
   96bbb     H8 2767   7.793   1.103   9.332 -0.4366  0.1552  4.6134
   96bbb     C5 2768   8.106   1.136   8.947  0.2285 -0.7948  0.8115
   96bbb     H9 2769   8.198   1.109   9.000  0.7594  1.0286  0.8992
   96bbb    H10 2770   8.090   1.242   8.972  0.4211 -0.1156 -1.6868
   96bbb     C6 2771   8.028   0.812   9.180 -0.0081 -0.0113  0.0872
   96bbb    H11 2772   7.928   0.791   9.139 -0.7004 -2.8097  2.7807
   96bbb    H12 2773   8.039   0.747   9.268  0.9654 -0.3816 -0.3004
   96bbb     C7 2774   7.751   1.315   9.323 -0.1455  0.1703  0.2282
   96bbb    H13 2775   7.786   1.405   9.271 -3.1303  1.5788  0.4190
   96bbb    H14 2776   7.733   1.338   9.429  1.6610 -3.2702  1.4087
   96bbb     C8 2777   8.146   0.780   9.085 -0.8116 -0.0259 -0.0784
   96bbb    H15 2778   8.164   0.853   9.005 -0.4200 -1.2824 -1.1566
   96bbb    H16 2779   8.117   0.686   9.036  1.0035  0.0868 -1.4761
   96bbb     C9 2780   8.135   1.126   8.791  0.2368 -0.8809 -0.5868
   96bbb    H17 2781   8.204   1.202   8.752 -0.2786 -0.2703 -0.3301
   96bbb    H18 2782   8.037   1.127   8.742 -0.3140 -2.4686  0.3909
   96bbb     O1 2783   7.629   1.271   9.258 -0.3319 -0.3659  0.3198
   97bbb     N1 2784   7.049   1.440   8.061  0.2293  0.0988 -0.4961
   97bbb     C1 2785   6.926   1.520   8.032  0.3553 -0.6756 -0.2807
   97bbb     H1 2786   6.941   1.614   7.978 -0.0390 -0.5836 -0.2357
   97bbb     H2 2787   6.877   1.553   8.125  1.4008  1.4942 -0.4319
   97bbb     C2 2788   7.133   1.395   7.947  0.5479 -0.7598 -0.0599
   97bbb     H3 2789   7.159   1.478   7.880 -2.5290  0.5476  0.1824
   97bbb     H4 2790   7.074   1.327   7.884  1.7682 -2.0533  0.1450
   97bbb     C3 2791   7.125   1.504   8.170 -0.1229  0.7284 -0.0414
   97bbb     H5 2792   7.216   1.447   8.191  0.9054  1.7332 -1.5935
   97bbb     H6 2793   7.062   1.500   8.260  0.2974 -1.2982  0.2205
   97bbb     C4 2794   7.155   1.651   8.139  0.6242 -0.2334 -0.1201
   97bbb     H7 2795   7.066   1.713   8.123  0.3971 -1.1947 -3.1774
   97bbb     H8 2796   7.196   1.636   8.038 -0.9285  3.2739 -1.4513
   97bbb     C5 2797   6.818   1.438   7.952 -0.0241  0.1976 -0.4015
   97bbb     H9 2798   6.797   1.346   8.008 -0.6788  1.4194  1.4806
   97bbb    H10 2799   6.866   1.403   7.860  1.7618  0.5325  0.3422
   97bbb     C6 2800   7.264   1.318   7.988 -0.1256  0.4529 -0.2381
   97bbb    H11 2801   7.246   1.237   8.059 -0.7568 -1.1362 -2.1145
   97bbb    H12 2802   7.321   1.392   8.046 -2.6269  2.7050 -0.4723
   97bbb     C7 2803   7.250   1.724   8.235  0.4744 -0.2792  0.1699
   97bbb    H13 2804   7.229   1.703   8.340 -2.0261  0.5728 -0.1078
   97bbb    H14 2805   7.238   1.833   8.231  3.3088  0.2493  2.4550
   97bbb     C8 2806   7.352   1.254   7.870  0.1561 -0.4720 -0.4938
   97bbb    H15 2807   7.298   1.175   7.817  0.5328 -0.2072 -1.3085
   97bbb    H16 2808   7.439   1.199   7.908 -1.5996 -1.7099  1.9560
   97bbb     C9 2809   6.688   1.515   7.924 -0.1958 -0.3276 -0.2581
   97bbb    H17 2810   6.652   1.557   8.019  0.9772  0.7985 -0.2850
   97bbb    H18 2811   6.610   1.447   7.889 -0.4217  0.9882 -2.5445
   97bbb     O1 2812   7.385   1.680   8.206  0.0085  0.1404 -0.3682
   98bbb     N1 2813   8.091   1.194   7.246  0.8483  0.7046  0.5514
   98bbb     C1 2814   8.231   1.142   7.230  0.4117 -0.0283  0.1252
   98bbb     H1 2815   8.235   1.069   7.148 -1.0924  0.6790 -0.6286
   98bbb     H2 2816   8.242   1.094   7.328 -0.5516 -3.0796 -1.1467
   98bbb     C2 2817   8.016   1.220   7.120 -0.1806 -0.4171  0.5061
   98bbb     H3 2818   8.041   1.318   7.078  0.8821  0.0724  2.1977
   98bbb     H4 2819   7.908   1.214   7.140 -0.2953 -0.6438 -0.1431
   98bbb     C3 2820   8.082   1.307   7.338  0.2810  0.3129 -0.7183
   98bbb     H5 2821   8.090   1.400   7.279  0.0861 -0.2488 -1.6501
   98bbb     H6 2822   8.160   1.298   7.414  0.6255 -0.0476 -1.1092
   98bbb     C4 2823   7.948   1.300   7.418 -0.2514  0.4666 -0.4494
   98bbb     H7 2824   7.970   1.235   7.504 -1.8201  0.3207 -0.1277
   98bbb     H8 2825   7.868   1.251   7.361 -1.9150  3.0275 -0.4496
   98bbb     C5 2826   8.347   1.242   7.206 -0.1494  0.1532 -0.4798
   98bbb     H9 2827   8.344   1.307   7.294 -3.4577 -3.6138  2.5347
   98bbb    H10 2828   8.308   1.299   7.120  0.1501  2.9214  1.1063
   98bbb     C6 2829   8.027   1.120   7.008  0.1316 -0.5721 -0.2413
   98bbb    H11 2830   7.923   1.119   6.973 -0.7781  2.0235  2.0340
   98bbb    H12 2831   8.050   1.021   7.050  2.2425  0.5221  1.3700
   98bbb     C7 2832   7.905   1.435   7.470  0.1605 -0.0274 -0.2758
   98bbb    H13 2833   7.862   1.487   7.383 -0.4062 -1.0817 -0.6364
   98bbb    H14 2834   7.991   1.493   7.507  2.0836 -3.9367  1.9988
   98bbb     C8 2835   8.130   1.164   6.898 -0.1264 -0.2187 -0.7040
   98bbb    H15 2836   8.154   1.087   6.824  0.2955 -2.1477  1.3665
   98bbb    H16 2837   8.223   1.185   6.951  0.0014 -0.4612 -0.8305
   98bbb     C9 2838   8.476   1.176   7.170 -0.1212  0.1420 -0.6902
   98bbb    H17 2839   8.554   1.253   7.169  2.1596 -2.0153 -0.3853
   98bbb    H18 2840   8.483   1.122   7.075  1.5553  2.0927 -1.7657
   98bbb     O1 2841   7.808   1.421   7.575 -0.4774 -0.1062  0.0715
   99bbb     N1 2842   7.934   2.792   9.851  0.5788 -0.0386  0.8707
   99bbb     C1 2843   8.058   2.822   9.921  0.2557 -0.2196 -0.9240
   99bbb     H1 2844   8.134   2.748   9.893  0.5961 -0.6411  0.9765
   99bbb     H2 2845   8.042   2.822  10.029 -2.5075 -1.7232 -1.2328
   99bbb     C2 2846   7.819   2.878   9.886 -0.0603 -0.2235 -0.2970
   99bbb     H3 2847   7.734   2.832   9.834  1.4940 -0.8429 -2.4144
   99bbb     H4 2848   7.836   2.973   9.834  1.1128 -1.0603 -1.4766
   99bbb     C3 2849   7.942   2.769   9.706 -0.0995  0.2789  0.2243
   99bbb     H5 2850   7.945   2.869   9.662 -1.4155  0.8211  1.3040
   99bbb     H6 2851   7.843   2.729   9.681 -0.5431  2.1273 -1.1924
   99bbb     C4 2852   8.055   2.675   9.651 -0.4639 -0.8650  0.7131
   99bbb     H7 2853   8.065   2.589   9.719  1.3734 -0.2144  1.3177
   99bbb     H8 2854   8.149   2.730   9.655 -0.6147 -0.2565 -1.9990
   99bbb     C5 2855   8.135   2.953   9.880 -0.2481  0.6771  0.5746
   99bbb     H9 2856   8.071   3.037   9.908  0.2144  0.4529  2.4161
   99bbb    H10 2857   8.163   2.949   9.774  0.2469 -2.8741  0.7158
   99bbb     C6 2858   7.796   2.895  10.040  0.1969 -0.2939 -0.3957
   99bbb    H11 2859   7.833   2.807  10.093 -0.5248 -0.0681  0.5036
   99bbb    H12 2860   7.691   2.910  10.068  0.5820 -1.0142  1.5354
   99bbb     C7 2861   8.027   2.627   9.506 -0.3278 -0.1383 -0.1266
   99bbb    H13 2862   7.944   2.556   9.498  0.0452 -0.7724  1.3414
   99bbb    H14 2863   8.112   2.573   9.463  0.3632 -1.0796  2.2439
   99bbb     C8 2864   7.857   3.022  10.102  0.3495 -0.5568  0.0321
   99bbb    H15 2865   7.967   3.017  10.097  0.4705  1.9583 -3.2840
   99bbb    H16 2866   7.824   3.028  10.207  0.3656  1.3651 -0.0314
   99bbb     C9 2867   8.262   2.989   9.967 -0.5685 -0.2561  0.0808
   99bbb    H17 2868   8.338   2.909   9.962  0.0775  0.3998 -1.7539
   99bbb    H18 2869   8.236   2.997  10.073 -0.1567  1.3541  0.0855
   99bbb     O1 2870   7.986   2.746   9.436 -0.1461  0.5315  0.6242
  100bbb     N1 2871   8.121   3.526   9.627  0.5752  0.1024 -0.0473
  100bbb     C1 2872   8.109   3.424   9.725 -0.7421 -0.2424 -0.1040
  100bbb     H1 2873   8.003   3.413   9.751 -0.6969 -0.6277 -0.0733
  100bbb     H2 2874   8.165   3.451   9.815  1.2429 -0.7627 -1.1225
  100bbb     C2 2875   8.040   3.649   9.660  0.1999 -0.1841  0.3939
  100bbb     H3 2876   8.036   3.729   9.584 -0.4096 -0.9601 -0.4185
  100bbb     H4 2877   8.068   3.705   9.750  0.2106  2.0624 -0.9346
  100bbb     C3 2878   8.263   3.544   9.595 -0.1399  0.3474 -1.1473
  100bbb     H5 2879   8.316   3.448   9.587 -2.3698 -1.1591  0.6733
  100bbb     H6 2880   8.307   3.596   9.681 -0.9548  1.2404 -1.2639
  100bbb     C4 2881   8.298   3.621   9.466 -0.1211  0.5813  0.0649
  100bbb     H7 2882   8.407   3.615   9.463 -0.1566 -4.1232  1.0163
  100bbb     H8 2883   8.270   3.727   9.475 -0.7228  0.5240 -0.9316
  100bbb     C5 2884   8.150   3.274   9.687  0.0427  0.1553  0.7801
  100bbb     H9 2885   8.114   3.209   9.767 -0.2072 -0.2274  0.3615
  100bbb    H10 2886   8.258   3.261   9.674  0.2322  1.8436  0.3502
  100bbb     C6 2887   7.885   3.619   9.682 -0.1314  0.1073  0.0652
  100bbb    H11 2888   7.830   3.714   9.689 -0.7187 -0.1527 -0.8507
  100bbb    H12 2889   7.864   3.573   9.779 -1.1406  2.2804  0.9504
  100bbb     C7 2890   8.227   3.553   9.346 -0.4793 -0.3073 -0.0501
  100bbb    H13 2891   8.238   3.608   9.252  0.5649  0.9631  0.7875
  100bbb    H14 2892   8.122   3.538   9.374  0.3392 -0.3150  3.4598
  100bbb     C8 2893   7.826   3.523   9.569 -0.3505 -0.6261  0.6085
  100bbb    H15 2894   7.871   3.424   9.585  0.4972 -0.2381  0.7301
  100bbb    H16 2895   7.863   3.543   9.467 -2.9718 -1.1484 -0.5252
  100bbb     C9 2896   8.079   3.215   9.563  0.9288  0.3858 -0.4515
  100bbb    H17 2897   8.143   3.143   9.512 -1.5435 -2.7034  0.4456
  100bbb    H18 2898   8.057   3.298   9.494 -0.9562 -0.6826 -1.2306
  100bbb     O1 2899   8.305   3.437   9.317  0.4945  0.1578  0.0507
  101bbb     N1 2900   6.299   3.164   8.620  0.1064  0.1033  0.1224
  101bbb     C1 2901   6.175   3.207   8.685  0.4284 -0.8647 -0.0591
  101bbb     H1 2902   6.096   3.133   8.670  1.4594 -2.1230  0.6054
  101bbb     H2 2903   6.138   3.304   8.647 -0.3162 -1.2748 -0.3939
  101bbb     C2 2904   6.281   3.089   8.500 -0.1373  0.8646 -0.1979
  101bbb     H3 2905   6.374   3.079   8.443 -0.0298 -0.5046  0.1684
  101bbb     H4 2906   6.204   3.133   8.434  0.2939  2.4459  0.3197
  101bbb     C3 2907   6.394   3.273   8.612 -0.1451 -0.9827 -0.0645
  101bbb     H5 2908   6.383   3.341   8.697  1.7006 -2.5786  1.5367
  101bbb     H6 2909   6.372   3.335   8.524 -1.4888 -1.1431  0.1352
  101bbb     C4 2910   6.542   3.231   8.608 -0.3660  0.6865  0.0806
  101bbb     H7 2911   6.558   3.187   8.509 -1.8375  0.1120  0.0769
  101bbb     H8 2912   6.549   3.156   8.689 -4.5462  0.3623  0.3589
  101bbb     C5 2913   6.174   3.213   8.839 -0.6450 -0.2745  0.2033
  101bbb     H9 2914   6.078   3.260   8.864 -0.6227 -0.3823  0.4908
  101bbb    H10 2915   6.240   3.296   8.868  0.1966  0.0757 -2.4587
  101bbb     C6 2916   6.245   2.943   8.533  0.0995  0.3770  0.0507
  101bbb    H11 2917   6.170   2.933   8.613  0.8863  1.3397  0.9343
  101bbb    H12 2918   6.330   2.883   8.567 -0.1788 -0.2846 -0.3883
  101bbb     C7 2919   6.641   3.352   8.635  0.5748  0.1713 -0.1189
  101bbb    H13 2920   6.619   3.402   8.730 -2.7609  1.0322 -1.2256
  101bbb    H14 2921   6.633   3.430   8.559  1.3549  0.3894  0.0059
  101bbb     C8 2922   6.191   2.876   8.404  0.6626  0.6093 -0.0172
  101bbb    H15 2923   6.102   2.925   8.362  0.7710 -0.6438 -1.8159
  101bbb    H16 2924   6.143   2.782   8.431 -0.1438  0.6183 -1.3262
  101bbb     C9 2925   6.180   3.082   8.911  0.5498  0.5118 -0.1302
  101bbb    H17 2926   6.196   3.088   9.019 -0.0276 -1.2582  0.0831
  101bbb    H18 2927   6.274   3.034   8.880  3.0884  3.6007  2.1044
  101bbb     O1 2928   6.777   3.291   8.648  0.0141 -0.5035 -0.8970
  102bbb     N1 2929   6.977   2.437   8.741  0.1817  0.1302 -0.1458
  102bbb     C1 2930   6.827   2.443   8.736  0.2299  0.0744 -0.5757
  102bbb     H1 2931   6.784   2.345   8.759 -0.6254  0.6876  0.4985
  102bbb     H2 2932   6.797   2.468   8.633  1.4322  1.9939 -0.5086
  102bbb     C2 2933   7.018   2.389   8.879  0.4759  0.2730  0.4772
  102bbb     H3 2934   6.979   2.452   8.959  0.8837 -0.1299  0.9997
  102bbb     H4 2935   7.126   2.387   8.897  0.6213 -2.3107 -0.2235
  102bbb     C3 2936   7.048   2.559   8.702 -0.4240 -0.3700 -0.7216
  102bbb     H5 2937   7.022   2.650   8.756 -0.4783 -0.7124 -0.1652
  102bbb     H6 2938   7.005   2.586   8.605 -1.3996  4.1822  0.7307
  102bbb     C4 2939   7.201   2.545   8.689 -0.0671 -0.0645  0.5808
  102bbb     H7 2940   7.227   2.446   8.648 -1.1321  0.7046 -2.1495
  102bbb     H8 2941   7.261   2.543   8.781 -2.2611  0.9015  2.1173
  102bbb     C5 2942   6.753   2.539   8.839 -0.2959  0.2148 -0.4217
  102bbb     H9 2943   6.814   2.630   8.844 -0.1711  0.2957 -2.6040
  102bbb    H10 2944   6.769   2.492   8.937  0.5470 -0.1580 -0.7264
  102bbb     C6 2945   6.970   2.241   8.902 -0.6186 -0.3403  0.0962
  102bbb    H11 2946   7.013   2.174   8.826 -3.1231 -1.3941 -0.4822
  102bbb    H12 2947   6.864   2.216   8.893 -0.5951 -0.5479  0.3860
  102bbb     C7 2948   7.257   2.652   8.601 -0.9871 -0.0552  0.3130
  102bbb    H13 2949   7.199   2.678   8.512 -0.7266  1.2988  0.5199
  102bbb    H14 2950   7.362   2.637   8.574 -1.1379 -0.5745 -0.0124
  102bbb     C8 2951   7.031   2.183   9.034  0.9236 -0.5035  0.1121
  102bbb    H15 2952   7.002   2.256   9.111  1.6756  0.1333 -0.1960
  102bbb    H16 2953   7.141   2.186   9.033  0.9225  1.7030 -0.8793
  102bbb     C9 2954   6.606   2.564   8.819  0.0441  0.6065 -0.0431
  102bbb    H17 2955   6.556   2.472   8.788 -0.2355  0.1737  1.6030
  102bbb    H18 2956   6.591   2.632   8.734 -2.1368  3.0650  2.1006
  102bbb     O1 2957   7.249   2.768   8.688 -0.1883 -0.3948 -0.2360
  103bbb     N1 2958  10.711   1.927   7.658  0.1020 -0.2081  0.5251
  103bbb     C1 2959  10.802   1.817   7.704 -0.0668  0.3934  0.7516
  103bbb     H1 2960  10.815   1.748   7.620 -1.4304  1.1879 -0.1540
  103bbb     H2 2961  10.752   1.761   7.783 -1.1329  1.8826  1.1865
  103bbb     C2 2962  10.656   2.006   7.765  0.8905 -0.3607 -0.1455
  103bbb     H3 2963  10.667   1.950   7.859 -0.2787 -0.7285 -0.2118
  103bbb     H4 2964  10.548   2.017   7.747  1.0036 -1.0012 -1.3101
  103bbb     C3 2965  10.748   1.998   7.528 -0.1024 -0.2104  0.1841
  103bbb     H5 2966  10.827   2.072   7.549  0.9396 -1.9116  2.7252
  103bbb     H6 2967  10.666   2.057   7.487  0.9101  0.4640 -0.9748
  103bbb     C4 2968  10.793   1.915   7.404  0.0442 -0.3571  0.1401
  103bbb     H7 2969  10.874   1.847   7.435  0.5612 -0.3507 -1.1654
  103bbb     H8 2970  10.836   1.996   7.345 -1.2093  1.4671  1.5870
  103bbb     C5 2971  10.937   1.858   7.763  0.9053 -0.2547  0.5289
  103bbb     H9 2972  10.897   1.901   7.856 -0.2669  1.6631 -0.7957
  103bbb    H10 2973  10.985   1.937   7.704 -0.1205  0.5042  0.6955
  103bbb     C6 2974  10.717   2.139   7.796 -0.2912  0.3555  0.4696
  103bbb    H11 2975  10.701   2.210   7.714  2.1591  1.1059  0.5872
  103bbb    H12 2976  10.826   2.129   7.802 -0.2639  0.5620  0.3068
  103bbb     C7 2977  10.670   1.831   7.344 -0.0051 -0.3625 -0.0495
  103bbb    H13 2978  10.685   1.812   7.237 -0.7169 -3.3994  0.2944
  103bbb    H14 2979  10.573   1.882   7.343 -0.4054 -1.1136 -0.3956
  103bbb     C8 2980  10.663   2.196   7.933  0.5841  0.3306 -0.2510
  103bbb    H15 2981  10.673   2.305   7.932  1.4024  0.2831  0.9342
  103bbb    H16 2982  10.728   2.158   8.013 -0.3457 -2.7434 -0.7990
  103bbb     C9 2983  11.041   1.747   7.791 -0.4717  0.3453 -0.4746
  103bbb    H17 2984  10.994   1.660   7.839  1.2099  0.6387  1.8428
  103bbb    H18 2985  11.119   1.787   7.856  0.9575  1.4559 -2.7506
  103bbb     O1 2986  10.660   1.706   7.416  0.4225 -0.3479  0.1558
  104bbb     N1 2987  10.949   1.237   7.733 -0.4965 -0.1306  0.3448
  104bbb     C1 2988  10.874   1.359   7.706  0.4736  0.2436 -0.1577
  104bbb     H1 2989  10.917   1.435   7.772 -0.7436  2.0276 -1.3271
  104bbb     H2 2990  10.773   1.352   7.746  1.0479 -0.9389  1.1541
  104bbb     C2 2991  11.102   1.258   7.715  0.1130  0.2202  0.4584
  104bbb     H3 2992  11.142   1.319   7.797  1.6018 -1.4588  1.0538
  104bbb     H4 2993  11.115   1.301   7.615 -1.3200  0.6274  0.4327
  104bbb     C3 2994  10.920   1.174   7.866 -0.4613  0.2591 -0.3945
  104bbb     H5 2995  10.941   1.241   7.950  3.1563 -2.9107  1.5915
  104bbb     H6 2996  10.985   1.090   7.894 -1.2707 -0.0301  0.6579
  104bbb     C4 2997  10.776   1.121   7.883  0.4413 -0.3858 -0.5015
  104bbb     H7 2998  10.712   1.210   7.885  1.9076  0.7050  0.6767
  104bbb     H8 2999  10.772   1.064   7.977 -0.6109 -0.9731 -0.8854
  104bbb     C5 3000  10.867   1.421   7.565 -0.5116  0.0142  0.3934
  104bbb     H9 3001  10.946   1.495   7.548 -1.1427  0.5520 -0.3024
  104bbb    H10 3002  10.772   1.475   7.559 -0.1458  0.7384  0.8984
  104bbb     C6 3003  11.187   1.125   7.717  0.4019  0.6216  0.0967
  104bbb    H11 3004  11.154   1.069   7.628 -4.3453  1.2598  1.2136
  104bbb    H12 3005  11.155   1.062   7.801 -0.7947 -0.2996 -0.9996
  104bbb     C7 3006  10.734   1.036   7.764  0.1458  0.5194  0.4688
  104bbb    H13 3007  10.664   0.961   7.802  1.1817 -0.9586 -0.4351
  104bbb    H14 3008  10.823   0.991   7.719  0.7622  1.2127  0.9740
  104bbb     C8 3009  11.338   1.141   7.718  0.1124 -0.2598 -0.1546
  104bbb    H15 3010  11.360   1.184   7.620  1.7230 -0.4992  0.0744
  104bbb    H16 3011  11.393   1.046   7.723 -0.3121 -0.4766  0.7103
  104bbb     C9 3012  10.874   1.312   7.455  0.4169  0.3219 -0.5322
  104bbb    H17 3013  10.806   1.233   7.488  1.4578  0.3478  1.8818
  104bbb    H18 3014  10.974   1.266   7.457  2.4449  4.1137 -2.8298
  104bbb     O1 3015  10.662   1.115   7.668 -0.0641  0.1464  0.9220
  105bbb     N1 3016  10.194   0.280   8.797 -0.0571  0.1230 -0.6207
  105bbb     C1 3017  10.275   0.272   8.924 -0.3009 -0.8389 -0.5816
  105bbb     H1 3018  10.326   0.176   8.914 -2.5445 -1.9558 -1.9902
  105bbb     H2 3019  10.204   0.270   9.008 -0.4430  0.5794 -0.6430
  105bbb     C2 3020  10.085   0.181   8.788 -0.2030  0.1163 -0.2976
  105bbb     H3 3021  10.134   0.089   8.754 -0.9058  0.1162 -1.3552
  105bbb     H4 3022  10.010   0.201   8.710 -1.4831  1.0049  1.0958
  105bbb     C3 3023  10.286   0.284   8.682  0.3380 -0.1924  0.1412
  105bbb     H5 3024  10.318   0.184   8.649 -1.1165 -0.4040 -0.7228
  105bbb     H6 3025  10.375   0.343   8.705 -0.9708  1.5759  0.8557
  105bbb     C4 3026  10.224   0.361   8.565 -0.7406 -0.8258 -0.2457
  105bbb     H7 3027  10.191   0.458   8.604  0.3221 -0.6409  0.2327
  105bbb     H8 3028  10.131   0.311   8.535 -0.9557 -0.7301  0.2421
  105bbb     C5 3029  10.382   0.375   8.955  0.2369 -0.6234  0.9173
  105bbb     H9 3030  10.465   0.360   8.885 -0.0140 -1.2257  0.7447
  105bbb    H10 3031  10.437   0.367   9.050 -1.2157  0.8818  1.9390
  105bbb     C6 3032  10.003   0.155   8.922 -0.3207 -0.5661  0.9205
  105bbb    H11 3033  10.056   0.114   9.009 -0.4963 -0.5840  1.0191
  105bbb    H12 3034   9.926   0.085   8.887  1.1302 -1.5549 -0.4353
  105bbb     C7 3035  10.326   0.385   8.455  0.1723  0.4556  0.4614
  105bbb    H13 3036  10.277   0.429   8.367 -1.4851 -1.9918  0.0764
  105bbb    H14 3037  10.362   0.285   8.427 -1.1665  0.6801 -2.5105
  105bbb     C8 3038   9.939   0.293   8.958 -0.4892  0.4768  0.2426
  105bbb    H15 3039   9.877   0.331   8.876 -0.9950  2.6658  1.5457
  105bbb    H16 3040  10.016   0.371   8.969 -2.2768  2.3275  0.4066
  105bbb     C9 3041  10.336   0.519   8.934 -0.4675 -0.8008  1.0340
  105bbb    H17 3042  10.231   0.549   8.944  0.3224  2.7144  0.2667
  105bbb    H18 3043  10.351   0.544   8.828  1.8096 -0.3773  1.4164
  105bbb     O1 3044  10.438   0.471   8.487  0.4594  0.3015 -0.3067
  106bbb     N1 3045   9.843   0.650   8.586 -0.6663 -0.3204  0.6040
  106bbb     C1 3046   9.884   0.532   8.505 -0.6699 -0.4262 -0.7379
  106bbb     H1 3047   9.902   0.449   8.574  0.5234 -0.9095 -1.5846
  106bbb     H2 3048   9.981   0.550   8.457 -1.0438 -2.2014 -2.3092
  106bbb     C2 3049   9.781   0.759   8.510  0.0177 -1.2049 -0.0633
  106bbb     H3 3050   9.760   0.835   8.586 -1.0384  1.8462 -3.1592
  106bbb     H4 3051   9.690   0.727   8.457  0.7671 -1.5995 -1.1651
  106bbb     C3 3052   9.952   0.683   8.683  0.1953  0.6129  0.2468
  106bbb     H5 3053  10.022   0.754   8.637  0.9728  0.7120  1.5337
  106bbb     H6 3054   9.998   0.590   8.719  0.6004  0.6625 -0.1275
  106bbb     C4 3055   9.894   0.727   8.818  0.8106 -0.3884  1.3282
  106bbb     H7 3056   9.842   0.637   8.854  0.9086 -0.6133  0.9137
  106bbb     H8 3057   9.816   0.803   8.810 -0.9457 -2.0997  1.2321
  106bbb     C5 3058   9.786   0.476   8.400 -1.0712 -0.2689 -0.7579
  106bbb     H9 3059   9.765   0.551   8.324 -1.9783 -0.1109 -0.3659
  106bbb    H10 3060   9.698   0.427   8.445 -1.4394 -0.4767 -1.6810
  106bbb     C6 3061   9.865   0.824   8.398 -0.3597  0.3415  0.2016
  106bbb    H11 3062   9.886   0.756   8.314  0.3752 -0.1294  0.7604
  106bbb    H12 3063   9.966   0.854   8.430 -0.1959 -2.5103  2.7695
  106bbb     C7 3064  10.000   0.778   8.913 -0.2890  0.2739  0.7448
  106bbb    H13 3065  10.066   0.698   8.949  2.0351  1.4386 -0.6788
  106bbb    H14 3066   9.957   0.819   9.005 -0.8535  0.1931  0.5175
  106bbb     C8 3067   9.795   0.956   8.347 -0.0423 -0.0822  0.3133
  106bbb    H15 3068   9.844   0.996   8.257 -1.7376 -2.1281 -1.6370
  106bbb    H16 3069   9.793   1.033   8.425 -0.1295  1.6506 -1.3302
  106bbb     C9 3070   9.852   0.365   8.312 -0.3586  0.6174 -0.3346
  106bbb    H17 3071   9.872   0.274   8.370  1.3280  2.1515  1.6581
  106bbb    H18 3072   9.944   0.405   8.268  0.0025 -0.7500 -0.8581
  106bbb     O1 3073  10.088   0.864   8.834  0.2172  0.3992 -0.5901
  107bbb     N1 3074   9.030   4.049   9.876  0.4293  0.0768  0.7919
  107bbb     C1 3075   9.107   4.171   9.875 -0.3592 -0.1032 -0.5119
  107bbb     H1 3076   9.214   4.154   9.891 -0.2099 -0.3848 -1.6858
  107bbb     H2 3077   9.072   4.230   9.961  0.6803 -1.6767  1.0646
  107bbb     C2 3078   8.880   4.069   9.885  0.2348 -0.8873 -0.4960
  107bbb     H3 3079   8.839   4.096   9.787  2.0874  0.8787 -0.8574
  107bbb     H4 3080   8.869   4.156   9.952 -1.0990 -0.3872 -1.3349
  107bbb     C3 3081   9.063   3.946   9.778 -0.8854  1.2217 -0.3220
  107bbb     H5 3082   9.026   3.981   9.681  0.3989  1.3591 -0.7815
  107bbb     H6 3083   8.996   3.867   9.812 -0.9440  1.4051 -0.0072
  107bbb     C4 3084   9.212   3.911   9.761 -0.7584  0.1249  0.0798
  107bbb     H7 3085   9.260   3.901   9.859  0.7534  0.3091 -0.6189
  107bbb     H8 3086   9.259   3.992   9.704  0.1648 -0.7649 -0.4623
  107bbb     C5 3087   9.095   4.257   9.747 -0.1074  0.7244  0.2012
  107bbb     H9 3088   8.992   4.291   9.729 -0.5455  0.1669  1.5144
  107bbb    H10 3089   9.105   4.197   9.655  0.5873  0.7568  0.2516
  107bbb     C6 3090   8.802   3.950   9.950  0.6564  0.5104 -0.4722
  107bbb    H11 3091   8.861   3.913  10.035 -0.6293 -0.0103  0.2201
  107bbb    H12 3092   8.795   3.862   9.885  0.5367 -0.3550  0.6689
  107bbb     C7 3093   9.224   3.782   9.676 -0.3199 -0.5432  0.3812
  107bbb    H13 3094   9.147   3.784   9.597  0.2992  0.3868 -0.2224
  107bbb    H14 3095   9.205   3.695   9.740  0.6012 -0.5488  0.6553
  107bbb     C8 3096   8.659   3.989   9.991  0.4644  0.3176  0.0040
  107bbb    H15 3097   8.621   4.065   9.921  1.4455 -0.5574 -1.5421
  107bbb    H16 3098   8.654   4.041  10.087  0.2577  0.7671 -0.2482
  107bbb     C9 3099   9.198   4.372   9.740  0.4001  0.0479 -1.0529
  107bbb    H17 3100   9.300   4.335   9.753 -0.0657 -0.9680 -0.1868
  107bbb    H18 3101   9.188   4.432   9.831  1.4754 -0.5953 -0.4994
  107bbb     O1 3102   9.358   3.765   9.627  0.0516  0.3573 -0.0461
  108bbb     N1 3103   9.873   4.048   9.215 -0.0063 -1.0626  0.5582
  108bbb     C1 3104  10.013   4.026   9.171 -0.3356  0.2388  0.4085
  108bbb     H1 3105  10.076   4.107   9.209  0.7950 -0.9995  1.2679
  108bbb     H2 3106  10.019   4.017   9.062 -1.3866  3.4951 -0.0309
  108bbb     C2 3107   9.802   4.159   9.147 -0.0762  0.7322 -0.1354
  108bbb     H3 3108   9.840   4.179   9.046 -1.8485 -2.5991 -1.6421
  108bbb     H4 3109   9.818   4.254   9.198  2.3046  0.6545 -0.6440
  108bbb     C3 3110   9.843   4.029   9.358 -0.6414 -0.2132 -0.5199
  108bbb     H5 3111   9.852   3.928   9.400  0.7187  1.2383  3.0282
  108bbb     H6 3112   9.736   4.047   9.372 -0.4320 -1.0433  3.1177
  108bbb     C4 3113   9.923   4.124   9.457 -0.1124 -0.1485 -0.1353
  108bbb     H7 3114   9.891   4.229   9.447 -1.9638 -0.4515  1.9260
  108bbb     H8 3115  10.031   4.115   9.445  0.1931  0.8246  1.5366
  108bbb     C5 3116  10.076   3.894   9.227  0.1107 -0.0110  0.2183
  108bbb     H9 3117  10.065   3.877   9.334 -1.7250 -4.4945 -0.4903
  108bbb    H10 3118  10.183   3.906   9.202  0.2243  3.5464  1.7545
  108bbb     C6 3119   9.651   4.133   9.138 -0.2055 -0.8146  0.2213
  108bbb    H11 3120   9.612   4.092   9.232 -2.2542  0.5795  0.0346
  108bbb    H12 3121   9.640   4.047   9.070  1.8908 -0.1500 -1.0723
  108bbb     C7 3122   9.906   4.087   9.608  0.4750  0.1723  0.3125
  108bbb    H13 3123   9.799   4.066   9.621 -0.1426  2.2448 -0.9368
  108bbb    H14 3124   9.932   4.170   9.675 -0.8203  1.8301 -1.1299
  108bbb     C8 3125   9.566   4.255   9.083  0.0706 -0.2551 -0.0421
  108bbb    H15 3126   9.460   4.241   9.105 -0.3579  2.1416 -0.2866
  108bbb    H16 3127   9.579   4.270   8.975  1.5480  0.9968  0.2695
  108bbb     C9 3128  10.036   3.765   9.161 -0.3128  0.0472 -0.6659
  108bbb    H17 3129  10.028   3.778   9.052  0.1611  0.5819 -0.6365
  108bbb    H18 3130   9.938   3.742   9.206  0.0482  0.6385  0.4478
  108bbb     O1 3131   9.986   3.966   9.628 -0.0746 -1.2105  0.2719
  109bbb     N1 3132   9.887   2.483  10.239 -0.2768 -0.2550  0.4453
  109bbb     C1 3133   9.819   2.525  10.113 -0.1585  0.2558 -0.3659
  109bbb     H1 3134   9.712   2.519  10.135  0.1350 -0.3427  1.0112
  109bbb     H2 3135   9.851   2.460  10.031  0.3912  3.2095 -2.6610
  109bbb     C2 3136   9.867   2.344  10.272 -0.2162 -0.6956  0.6637
  109bbb     H3 3137   9.760   2.323  10.270 -0.0939 -1.4860  1.8410
  109bbb     H4 3138   9.905   2.327  10.373  4.2270 -0.6949 -0.7786
  109bbb     C3 3139   9.853   2.583  10.345  0.9754  0.6070  0.4385
  109bbb     H5 3140   9.745   2.578  10.365  0.2996 -0.5296 -2.9124
  109bbb     H6 3141   9.885   2.686  10.322  3.7520 -0.5518 -1.3685
  109bbb     C4 3142   9.910   2.554  10.483  0.0504  0.0989  0.5360
  109bbb     H7 3143   9.870   2.457  10.517  0.9613 -0.9981 -1.3464
  109bbb     H8 3144   9.867   2.621  10.558  0.8613 -0.2387  1.3163
  109bbb     C5 3145   9.850   2.664  10.055  0.0233 -0.3878  0.3513
  109bbb     H9 3146   9.798   2.734  10.120 -3.0305 -1.5509 -0.6774
  109bbb    H10 3147   9.816   2.669   9.951 -0.2520 -0.5107  0.4351
  109bbb     C6 3148   9.952   2.255  10.178  0.2791  0.6996  0.1840
  109bbb    H11 3149  10.055   2.260  10.214 -0.0848  0.6022  1.2792
  109bbb    H12 3150   9.958   2.291  10.075  1.4505  1.4675  0.5000
  109bbb     C7 3151  10.065   2.562  10.490 -0.0241  0.2337  0.0021
  109bbb    H13 3152  10.098   2.645  10.554 -1.3854  1.3526 -0.7155
  109bbb    H14 3153  10.101   2.570  10.387  0.7605 -3.9601 -0.2556
  109bbb     C8 3154   9.909   2.106  10.180  0.1646 -0.3847 -0.0624
  109bbb    H15 3155   9.898   2.056  10.277 -0.2663  0.8536  0.5448
  109bbb    H16 3156   9.976   2.048  10.115  0.3588 -0.6864  0.4003
  109bbb     C9 3157   9.997   2.692  10.070  0.1835  0.2292  0.5389
  109bbb    H17 3158  10.048   2.664   9.977  0.5045  1.8534  0.2014
  109bbb    H18 3159  10.036   2.628  10.151 -1.0858  0.3382  1.2773
  109bbb     O1 3160  10.103   2.438  10.544 -0.0811 -0.0655  0.1093
  110bbb     N1 3161  11.158   2.119   9.706  0.2054  0.1871  0.0973
  110bbb     C1 3162  11.147   2.237   9.619 -0.1247  0.2363 -0.6107
  110bbb     H1 3163  11.168   2.328   9.677 -1.2510 -1.2117  2.3040
  110bbb     H2 3164  11.045   2.233   9.578  0.2104 -0.1214 -1.4226
  110bbb     C2 3165  11.118   1.994   9.630 -0.6810 -0.0689  0.0594
  110bbb     H3 3166  11.187   1.979   9.546  0.1554  1.4250  0.4327
  110bbb     H4 3167  11.016   1.996   9.591 -0.5747 -0.5388 -0.2461
  110bbb     C3 3168  11.081   2.139   9.832 -0.3327  0.4948 -0.2615
  110bbb     H5 3169  11.110   2.236   9.876 -0.4719  0.6527 -0.5121
  110bbb     H6 3170  11.109   2.056   9.897 -1.1485  1.7316  1.7560
  110bbb     C4 3171  10.924   2.132   9.820 -0.8278  0.2017 -0.8846
  110bbb     H7 3172  10.896   2.041   9.766  2.0778 -1.3637  0.0211
  110bbb     H8 3173  10.891   2.214   9.756 -0.9930  0.2094 -0.7898
  110bbb     C5 3174  11.245   2.250   9.500 -0.2019  0.1694 -0.1885
  110bbb     H9 3175  11.216   2.176   9.424 -1.4110 -1.2757  1.5537
  110bbb    H10 3176  11.344   2.226   9.541 -0.1029 -1.8217 -1.4653
  110bbb     C6 3177  11.144   1.861   9.701  0.2719  0.7685  0.2028
  110bbb    H11 3178  11.212   1.881   9.785 -0.5780 -0.7482  1.2948
  110bbb    H12 3179  11.200   1.787   9.642 -1.0604  0.2761 -0.4984
  110bbb     C7 3180  10.857   2.146   9.961 -0.1587  0.2775  0.9182
  110bbb    H13 3181  10.878   2.237  10.019 -0.6517 -0.6624  2.6239
  110bbb    H14 3182  10.895   2.055  10.011  0.0970 -0.7777 -1.1027
  110bbb     C8 3183  11.024   1.785   9.757 -0.1491 -0.0758  0.1332
  110bbb    H15 3184  10.986   1.842   9.843  0.1779  2.1280 -1.0858
  110bbb    H16 3185  11.073   1.691   9.782  1.1764  0.9553  1.6560
  110bbb     C9 3186  11.245   2.393   9.436  0.1534  0.5752 -0.2089
  110bbb    H17 3187  11.289   2.381   9.336  0.4904 -2.5074  0.1871
  110bbb    H18 3188  11.303   2.464   9.495 -1.7089  0.4650  1.8871
  110bbb     O1 3189  10.716   2.135   9.937  0.3023 -0.5040 -0.5032
  111bbb     N1 3190   8.208   3.297   5.366 -0.5555 -0.5063  0.4155
  111bbb     C1 3191   8.252   3.214   5.250 -0.7439 -0.7309  0.2027
  111bbb     H1 3192   8.219   3.110   5.259  1.8031 -1.6565 -0.2497
  111bbb     H2 3193   8.362   3.210   5.257 -0.8372 -0.9529  2.3953
  111bbb     C2 3194   8.278   3.428   5.364  0.1575 -0.0145 -0.3523
  111bbb     H3 3195   8.262   3.458   5.468  0.4190 -0.7933 -0.0825
  111bbb     H4 3196   8.219   3.491   5.296 -1.1125  1.2664  1.8540
  111bbb     C3 3197   8.063   3.290   5.381 -0.8724  0.2704  0.0967
  111bbb     H5 3198   8.030   3.186   5.369 -0.9310  0.1019  1.5885
  111bbb     H6 3199   8.023   3.358   5.305 -0.0357 -0.5550 -1.1147
  111bbb     C4 3200   8.016   3.347   5.518  0.2846  0.2085  0.3119
  111bbb     H7 3201   8.055   3.448   5.535 -0.5634  0.8143 -1.2031
  111bbb     H8 3202   8.053   3.277   5.594 -2.4277 -1.3904  0.2910
  111bbb     C5 3203   8.201   3.253   5.108  0.1108 -0.0248 -0.5281
  111bbb     H9 3204   8.225   3.358   5.088  1.0340 -0.3151 -0.9918
  111bbb    H10 3205   8.091   3.250   5.105  0.1080  0.0849 -0.5608
  111bbb     C6 3206   8.431   3.429   5.339 -0.2690 -0.2453 -0.7541
  111bbb    H11 3207   8.454   3.408   5.234 -0.3563 -2.2234 -0.4026
  111bbb    H12 3208   8.474   3.349   5.400 -2.2237 -0.0545  0.9676
  111bbb     C7 3209   7.861   3.355   5.529 -0.1066  0.1362  0.4853
  111bbb    H13 3210   7.824   3.418   5.446 -0.7181 -1.2860 -0.3608
  111bbb    H14 3211   7.840   3.401   5.626  1.4647  0.6322  0.6158
  111bbb     C8 3212   8.513   3.553   5.395  0.2286  1.0714 -0.2369
  111bbb    H15 3213   8.618   3.522   5.400 -0.3742 -1.4206 -1.3324
  111bbb    H16 3214   8.477   3.578   5.496  2.2760 -0.2782  0.8974
  111bbb     C9 3215   8.265   3.162   5.008 -0.4434  0.1512  0.1289
  111bbb    H17 3216   8.220   3.168   4.908  3.1280  0.2250 -1.6361
  111bbb    H18 3217   8.255   3.054   5.026 -4.0316  0.4571  0.6564
  111bbb     O1 3218   7.800   3.225   5.514  0.3156  0.6070 -0.0822
  112bbb     N1 3219   8.614   2.509   5.884 -0.4716 -1.0119  0.0384
  112bbb     C1 3220   8.539   2.380   5.921  0.2883  0.1910  0.4856
  112bbb     H1 3221   8.590   2.290   5.882 -0.4813 -0.7551  1.6041
  112bbb     H2 3222   8.438   2.369   5.881  0.4723 -1.0288  0.3077
  112bbb     C2 3223   8.760   2.499   5.908  0.0054  0.2680  0.1669
  112bbb     H3 3224   8.807   2.437   5.831  0.0887 -0.5152  0.8277
  112bbb     H4 3225   8.778   2.442   6.000  0.1635  0.3009  0.1565
  112bbb     C3 3226   8.600   2.539   5.737 -0.1238  0.4014 -0.2800
  112bbb     H5 3227   8.606   2.445   5.681 -0.1952 -0.3272  0.8920
  112bbb     H6 3228   8.675   2.607   5.696  0.6011 -0.2007  0.0306
  112bbb     C4 3229   8.469   2.599   5.683 -0.6455 -0.0638  0.4417
  112bbb     H7 3230   8.393   2.524   5.661  0.0508  0.1709 -3.5355
  112bbb     H8 3231   8.482   2.643   5.583 -0.1975  0.4715  0.7235
  112bbb     C5 3232   8.520   2.346   6.074  0.4329 -0.3396  1.7094
  112bbb     H9 3233   8.429   2.287   6.086  0.5170 -0.7628  0.4103
  112bbb    H10 3234   8.499   2.440   6.126 -1.1838 -0.7076  1.7590
  112bbb     C6 3235   8.828   2.639   5.918  0.6928  0.0702 -0.2517
  112bbb    H11 3236   8.796   2.684   6.013 -1.0813 -3.6490  1.1229
  112bbb    H12 3237   8.793   2.705   5.838  1.6350  0.3637 -0.4309
  112bbb     C7 3238   8.400   2.695   5.770 -0.2575 -0.9744 -0.5065
  112bbb    H13 3239   8.483   2.764   5.791  0.3625 -1.3633 -1.5972
  112bbb    H14 3240   8.359   2.647   5.860  0.3376 -1.2113 -0.3532
  112bbb     C8 3241   8.979   2.626   5.918 -0.3539 -0.8763  0.6449
  112bbb    H15 3242   9.021   2.591   5.822 -2.9051 -3.0012  0.2048
  112bbb    H16 3243   9.016   2.557   5.995  1.9367 -0.9271 -0.4090
  112bbb     C9 3244   8.628   2.270   6.143  0.3938 -0.6625 -0.5425
  112bbb    H17 3245   8.609   2.250   6.250 -0.6916  0.1236 -0.5717
  112bbb    H18 3246   8.719   2.330   6.149  0.8518 -1.3948  0.1593
  112bbb     O1 3247   8.296   2.768   5.687 -0.2056 -0.4265  0.0739
  113bbb     N1 3248   7.284   3.849   5.972  0.1429 -0.4535 -0.2069
  113bbb     C1 3249   7.247   3.715   5.919 -0.1722  0.4164 -1.0012
  113bbb     H1 3250   7.207   3.651   5.999  0.0331  3.1616  1.4505
  113bbb     H2 3251   7.343   3.667   5.898 -0.4956 -0.8120  0.1764
  113bbb     C2 3252   7.164   3.924   6.017 -0.5092 -0.5588 -0.0130
  113bbb     H3 3253   7.116   3.956   5.923 -0.6921 -1.6826 -0.3137
  113bbb     H4 3254   7.200   4.011   6.073  3.7100 -0.5365 -2.3323
  113bbb     C3 3255   7.375   3.921   5.883 -0.1450 -0.8826 -0.2540
  113bbb     H5 3256   7.330   3.933   5.783 -3.1534  2.0889  1.2384
  113bbb     H6 3257   7.473   3.872   5.880  1.4978  2.2437 -0.7365
  113bbb     C4 3258   7.414   4.068   5.924  0.5245  0.1268  0.7639
  113bbb     H7 3259   7.325   4.128   5.948 -1.6321 -1.7755 -1.8420
  113bbb     H8 3260   7.457   4.114   5.834 -1.2999 -0.2030 -0.3458
  113bbb     C5 3261   7.147   3.703   5.803 -0.0848  0.3970  0.4370
  113bbb     H9 3262   7.183   3.748   5.709 -0.4899  0.3955  0.2806
  113bbb    H10 3263   7.055   3.758   5.827 -1.2711 -0.4760 -1.7685
  113bbb     C6 3264   7.057   3.841   6.104  0.0122 -0.0846  0.3967
  113bbb    H11 3265   7.019   3.760   6.040 -0.6875  0.4740  0.0947
  113bbb    H12 3266   6.976   3.911   6.127  0.7822  0.8277  0.3955
  113bbb     C7 3267   7.514   4.062   6.039 -0.1697  0.4623 -0.8998
  113bbb    H13 3268   7.474   3.999   6.119  0.4428 -2.1526 -2.5402
  113bbb    H14 3269   7.538   4.159   6.084  2.2079  0.3164 -1.7130
  113bbb     C8 3270   7.110   3.777   6.234  0.8840  0.0122 -0.7401
  113bbb    H15 3271   7.143   3.857   6.302 -2.4857  0.6323  0.3737
  113bbb    H16 3272   7.185   3.700   6.216  0.5567 -0.4342 -0.2257
  113bbb     C9 3273   7.116   3.551   5.781  0.3658 -0.2175  0.2500
  113bbb    H17 3274   7.060   3.523   5.872  1.8199  0.4301  1.3791
  113bbb    H18 3275   7.211   3.496   5.775 -0.7920 -2.2872 -0.3311
  113bbb     O1 3276   7.636   4.004   5.991 -0.3480 -0.0610 -0.1571
  114bbb     N1 3277   8.710   4.156   6.556 -0.2802  0.4966 -0.0155
  114bbb     C1 3278   8.828   4.229   6.499 -0.1448 -0.1266  0.6900
  114bbb     H1 3279   8.924   4.181   6.521 -0.0734 -0.0918  0.4581
  114bbb     H2 3280   8.822   4.324   6.554 -0.6174 -0.9853  2.1863
  114bbb     C2 3281   8.700   4.172   6.702 -0.2463 -0.4492  0.1085
  114bbb     H3 3282   8.609   4.124   6.741 -1.0809  0.9997  0.0134
  114bbb     H4 3283   8.699   4.279   6.724 -0.8989 -0.3591 -0.3337
  114bbb     C3 3284   8.702   4.024   6.500 -0.2852  0.4683  0.9913
  114bbb     H5 3285   8.775   3.953   6.541  1.2311  0.4148 -1.5822
  114bbb     H6 3286   8.733   4.029   6.395 -0.2071 -0.7415  0.9367
  114bbb     C4 3287   8.561   3.962   6.512 -0.1912  0.4243 -0.8057
  114bbb     H7 3288   8.546   3.927   6.615  0.7694  2.7397  0.1878
  114bbb     H8 3289   8.559   3.868   6.457 -1.3934 -0.3510  0.4992
  114bbb     C5 3290   8.813   4.268   6.349  0.7379 -0.9283 -0.0142
  114bbb     H9 3291   8.818   4.184   6.278  1.3234  0.0841 -1.2127
  114bbb    H10 3292   8.891   4.341   6.323  0.2511  0.1090  1.3523
  114bbb     C6 3293   8.819   4.116   6.779 -0.2521  0.6242 -0.3079
  114bbb    H11 3294   8.901   4.187   6.768 -0.6501  0.9019 -1.6482
  114bbb    H12 3295   8.849   4.019   6.737 -1.5088  0.0025  0.1637
  114bbb     C7 3296   8.442   4.058   6.496  0.2647  0.2253 -0.1571
  114bbb    H13 3297   8.455   4.118   6.405  0.5424  0.2995 -0.0717
  114bbb    H14 3298   8.430   4.117   6.588 -0.8619 -0.5714  0.2225
  114bbb     C8 3299   8.785   4.092   6.925  0.2658 -0.0927 -0.8809
  114bbb    H15 3300   8.866   4.048   6.984 -0.3459 -3.1702 -2.0963
  114bbb    H16 3301   8.704   4.018   6.928  0.2529 -0.1626 -2.2981
  114bbb     C9 3302   8.671   4.331   6.309  0.1461  0.0234  0.4561
  114bbb    H17 3303   8.644   4.395   6.394  1.3475 -2.1272  2.5685
  114bbb    H18 3304   8.593   4.254   6.311 -2.8403  2.8109  0.1700
  114bbb     O1 3305   8.318   3.986   6.475  0.2544  0.6789 -0.1858
  115bbb     N1 3306   9.064   2.457   7.155  0.0797  0.0875 -0.1075
  115bbb     C1 3307   9.130   2.407   7.030  0.5632 -0.3496 -0.2543
  115bbb     H1 3308   9.061   2.393   6.946 -0.5481  2.9328 -0.0407
  115bbb     H2 3309   9.174   2.307   7.045  1.0317  0.0941  1.4942
  115bbb     C2 3310   9.143   2.439   7.276  0.4327  0.0561  0.9040
  115bbb     H3 3311   9.222   2.513   7.291  0.7349 -0.0611 -0.0278
  115bbb     H4 3312   9.194   2.342   7.265  0.5408  0.2462 -0.6028
  115bbb     C3 3313   9.007   2.597   7.152  0.0183 -0.4994  1.1138
  115bbb     H5 3314   9.093   2.665   7.148  0.4963 -1.1120 -2.4008
  115bbb     H6 3315   8.937   2.611   7.235 -2.0618  1.9164 -0.8990
  115bbb     C4 3316   8.927   2.630   7.024 -0.4911  1.5234 -0.1092
  115bbb     H7 3317   8.993   2.626   6.936 -0.3600 -0.0718  0.0243
  115bbb     H8 3318   8.880   2.728   7.031 -0.7870  1.4788 -1.2747
  115bbb     C5 3319   9.241   2.503   6.982  0.2455  0.2530  0.5040
  115bbb     H9 3320   9.283   2.548   7.073  3.1703 -1.5264  0.1698
  115bbb    H10 3321   9.203   2.581   6.915 -1.9817 -1.0331  0.1689
  115bbb     C6 3322   9.044   2.433   7.391 -0.0732 -0.5329  0.7688
  115bbb    H11 3323   8.950   2.386   7.362 -1.1680  1.2697  1.1857
  115bbb    H12 3324   9.009   2.535   7.412  2.3259  0.9916 -1.9286
  115bbb     C7 3325   8.822   2.527   6.984  0.4100 -0.5805 -0.7389
  115bbb    H13 3326   8.751   2.515   7.067 -0.7329  0.1396 -1.5829
  115bbb    H14 3327   8.860   2.429   6.952  1.7594 -0.2599 -0.1758
  115bbb     C8 3328   9.110   2.382   7.513 -0.1208 -0.3826 -0.6605
  115bbb    H15 3329   9.049   2.403   7.602  1.5320  0.3947  0.3500
  115bbb    H16 3330   9.197   2.444   7.541 -1.3741  0.4384  1.7260
  115bbb     C9 3331   9.366   2.437   6.907  0.2655  0.0974 -0.0789
  115bbb    H17 3332   9.407   2.365   6.980 -0.6281 -0.2780  0.0716
  115bbb    H18 3333   9.437   2.514   6.875 -0.0195  0.5430  0.3480
  115bbb     O1 3334   8.757   2.596   6.878  0.2153  0.4898 -0.1506
  116bbb     N1 3335   8.929   1.638   6.412 -0.3846  0.2445  0.6539
  116bbb     C1 3336   9.037   1.531   6.411 -0.6804  0.2671 -0.3433
  116bbb     H1 3337   9.094   1.529   6.318 -0.4761 -1.8040 -0.2160
  116bbb     H2 3338   8.982   1.436   6.405  0.6819 -0.5230 -0.8620
  116bbb     C2 3339   8.839   1.627   6.298  0.6325  0.7761  0.6850
  116bbb     H3 3340   8.898   1.603   6.209 -0.6604 -2.2207  0.4954
  116bbb     H4 3341   8.795   1.724   6.275 -0.2308  0.4173  0.7699
  116bbb     C3 3342   8.990   1.772   6.429  0.5279 -0.2736 -0.2349
  116bbb     H5 3343   9.055   1.796   6.344  0.6926 -0.5304 -0.1841
  116bbb     H6 3344   9.051   1.772   6.521 -0.2101  1.8688  0.3040
  116bbb     C4 3345   8.894   1.885   6.442  0.2374  0.6393 -0.4208
  116bbb     H7 3346   8.829   1.863   6.528 -1.1667  0.3460 -1.5042
  116bbb     H8 3347   8.832   1.906   6.354  1.1286  1.9294 -0.7553
  116bbb     C5 3348   9.132   1.522   6.527  0.5940 -0.6478 -1.0435
  116bbb     H9 3349   9.071   1.513   6.618 -0.6872 -1.1990 -1.9389
  116bbb    H10 3350   9.178   1.622   6.534 -0.4116 -0.1917 -0.8163
  116bbb     C6 3351   8.734   1.512   6.311  0.3560  0.1406  0.0939
  116bbb    H11 3352   8.763   1.417   6.264  0.1130 -0.4556  1.1082
  116bbb    H12 3353   8.653   1.545   6.245  0.1399  0.9832  0.7662
  116bbb     C7 3354   8.973   2.009   6.479 -0.0101  0.7519  0.1242
  116bbb    H13 3355   9.044   2.033   6.400  0.4131 -1.0377 -0.0926
  116bbb    H14 3356   9.028   1.998   6.574 -2.0718 -1.2182  1.1856
  116bbb     C8 3357   8.679   1.482   6.450  0.6330 -0.7261  0.1933
  116bbb    H15 3358   8.607   1.557   6.485  1.7734 -0.3552  1.8551
  116bbb    H16 3359   8.764   1.493   6.518 -0.5812  0.3193  1.6140
  116bbb     C9 3360   9.236   1.410   6.533 -0.2308 -0.2162 -0.4145
  116bbb    H17 3361   9.179   1.317   6.518 -0.8175  0.2324 -0.9685
  116bbb    H18 3362   9.276   1.410   6.636 -1.8818  3.1163  0.3612
  116bbb     O1 3363   8.885   2.120   6.485  0.3080 -0.9744  0.7353
  117bbb     N1 3364   7.405   2.573   5.782 -0.0937  0.0895  0.1583
  117bbb     C1 3365   7.441   2.650   5.658 -0.2626  0.9188 -0.0628
  117bbb     H1 3366   7.535   2.698   5.688 -0.6181  2.4364 -1.2356
  117bbb     H2 3367   7.378   2.737   5.636 -0.5759  0.9023  0.7327
  117bbb     C2 3368   7.507   2.479   5.830 -0.2233 -0.0758 -0.8231
  117bbb     H3 3369   7.583   2.545   5.874 -0.0679 -0.5878 -0.3114
  117bbb     H4 3370   7.567   2.417   5.761  1.6795 -0.5934  1.1723
  117bbb     C3 3371   7.349   2.660   5.893 -0.2124 -0.3221  0.3094
  117bbb     H5 3372   7.423   2.735   5.923  0.5043 -0.6832 -0.5207
  117bbb     H6 3373   7.319   2.604   5.983  1.6121 -0.0962  1.1081
  117bbb     C4 3374   7.222   2.743   5.851 -0.6059 -0.1229  0.2716
  117bbb     H7 3375   7.140   2.679   5.815  0.5175  0.3079 -3.4203
  117bbb     H8 3376   7.238   2.805   5.762 -3.3584  0.4540  0.0922
  117bbb     C5 3377   7.448   2.564   5.531 -0.3171 -0.4239 -0.0838
  117bbb     H9 3378   7.351   2.522   5.504 -0.3982 -1.1506  1.2613
  117bbb    H10 3379   7.517   2.479   5.548  2.2443  1.3173 -1.0992
  117bbb     C6 3380   7.447   2.377   5.929 -0.6241  0.0594 -0.2317
  117bbb    H11 3381   7.358   2.335   5.881  0.7563 -0.5876 -2.3863
  117bbb    H12 3382   7.407   2.421   6.021 -1.4121  0.6663 -0.8470
  117bbb     C7 3383   7.174   2.850   5.960 -0.1411  0.4543  1.2487
  117bbb    H13 3384   7.077   2.890   5.926  0.1824 -1.8092 -2.8643
  117bbb    H14 3385   7.241   2.937   5.971  0.7584 -0.2259  1.2203
  117bbb     C8 3386   7.540   2.264   5.969  0.1148  0.2892 -0.4791
  117bbb    H15 3387   7.482   2.204   6.040 -0.5109 -0.0615 -1.2661
  117bbb    H16 3388   7.621   2.294   6.036 -0.0485 -2.7271  1.2612
  117bbb     C9 3389   7.497   2.646   5.411  0.3908  0.1526  0.2997
  117bbb    H17 3390   7.503   2.577   5.326  1.2783  2.6043 -1.7781
  117bbb    H18 3391   7.597   2.679   5.442 -0.2695  0.2321  2.5326
  117bbb     O1 3392   7.152   2.773   6.083 -0.6829  0.1841 -0.1426
  118bbb     N1 3393   7.153   1.861   6.147 -0.1811 -0.4124  0.3459
  118bbb     C1 3394   7.178   1.713   6.152 -0.3412 -0.3322  0.0665
  118bbb     H1 3395   7.280   1.691   6.118 -0.3362 -0.1588 -0.0281
  118bbb     H2 3396   7.106   1.659   6.089  0.5950 -0.8501 -0.5817
  118bbb     C2 3397   7.107   1.907   6.011 -0.1710  0.2469 -0.9601
  118bbb     H3 3398   7.053   2.000   6.036 -0.8586 -0.0663 -1.2310
  118bbb     H4 3399   7.031   1.834   5.981 -0.2794  0.1879 -0.5444
  118bbb     C3 3400   7.251   1.948   6.217 -0.0776  0.5932 -0.5091
  118bbb     H5 3401   7.343   1.943   6.158 -0.2801  0.1578 -0.7897
  118bbb     H6 3402   7.258   1.905   6.318  1.0302 -1.4026 -1.3930
  118bbb     C4 3403   7.209   2.104   6.229  0.5182  0.7950 -0.0913
  118bbb     H7 3404   7.103   2.118   6.254 -0.4099 -0.2437 -3.0213
  118bbb     H8 3405   7.218   2.162   6.136  0.3439  0.6029 -0.2286
  118bbb     C5 3406   7.169   1.651   6.293  0.2322  0.7119  0.5845
  118bbb     H9 3407   7.070   1.678   6.330 -0.3760  1.3335 -1.4025
  118bbb    H10 3408   7.243   1.685   6.368 -0.9500 -0.5058  2.3846
  118bbb     C6 3409   7.215   1.925   5.906  0.5839  0.3450 -0.2347
  118bbb    H11 3410   7.271   1.831   5.911 -0.1570 -0.0509  1.3484
  118bbb    H12 3411   7.282   2.004   5.944  0.1405  0.1244  1.0613
  118bbb     C7 3412   7.288   2.184   6.339  0.7211  0.3630 -0.0927
  118bbb    H13 3413   7.291   2.123   6.430 -0.6118 -1.8001 -1.4080
  118bbb    H14 3414   7.248   2.284   6.356  0.6205  1.0315 -3.5449
  118bbb     C8 3415   7.164   1.941   5.762  1.2710  0.4714 -0.1862
  118bbb    H15 3416   7.243   1.959   5.688 -0.2602  0.6930 -1.8378
  118bbb    H16 3417   7.103   2.033   5.759 -0.7836 -0.7035  1.8679
  118bbb     C9 3418   7.186   1.495   6.280 -0.7548 -0.1538  0.5154
  118bbb    H17 3419   7.276   1.466   6.224 -0.6905 -0.2131  0.6495
  118bbb    H18 3420   7.100   1.452   6.226 -1.9014  2.0076  0.5189
  118bbb     O1 3421   7.422   2.201   6.308  0.3188 -0.3703  0.7896
  119bbb     N1 3422  10.849   3.010   7.829 -0.5334 -0.4738 -0.3101
  119bbb     C1 3423  10.730   2.973   7.914  0.2208  0.5742 -0.3004
  119bbb     H1 3424  10.673   2.896   7.862  0.3492  1.1085 -1.2557
  119bbb     H2 3425  10.662   3.059   7.927  1.9817  2.0186 -0.1381
  119bbb     C2 3426  10.930   3.116   7.893 -0.1463 -0.3019 -0.4421
  119bbb     H3 3427  10.961   3.079   7.991  1.0971 -0.8807 -1.0307
  119bbb     H4 3428  10.862   3.202   7.900  0.0816 -0.2385  1.6636
  119bbb     C3 3429  10.799   3.053   7.693 -0.4351 -0.6612  0.1954
  119bbb     H5 3430  10.887   3.099   7.646  0.0949 -2.4066 -0.6341
  119bbb     H6 3431  10.722   3.130   7.707 -2.0148 -1.9331 -1.0430
  119bbb     C4 3432  10.750   2.944   7.594  0.4640  0.3541 -0.3065
  119bbb     H7 3433  10.665   2.890   7.638  0.7758 -0.5000 -0.7337
  119bbb     H8 3434  10.826   2.866   7.592 -0.3409 -0.4591  0.0566
  119bbb     C5 3435  10.778   2.904   8.049  0.0384 -0.5215  0.3583
  119bbb     H9 3436  10.686   2.866   8.094  0.1276  0.3081  1.2847
  119bbb    H10 3437  10.798   2.986   8.119 -0.0465 -0.0192 -0.1894
  119bbb     C6 3438  11.060   3.151   7.821 -0.5534 -0.1563  0.4142
  119bbb    H11 3439  11.119   3.218   7.885 -1.2538  0.3205  0.5759
  119bbb    H12 3440  11.041   3.210   7.731  0.7759  0.0482  0.2475
  119bbb     C7 3441  10.746   2.979   7.451 -0.6470  0.3367  0.3269
  119bbb    H13 3442  10.794   2.905   7.386 -1.7198 -2.2636  2.3168
  119bbb    H14 3443  10.811   3.066   7.435  1.2347 -1.0851 -0.1260
  119bbb     C8 3444  11.143   3.020   7.801  0.0202 -0.3900 -0.6136
  119bbb    H15 3445  11.082   2.962   7.730 -1.5306 -1.2334  1.3072
  119bbb    H16 3446  11.137   2.977   7.901 -2.6780  2.6232  0.6893
  119bbb     C9 3447  10.890   2.795   8.048 -0.1933 -0.3196  0.5863
  119bbb    H17 3448  10.972   2.835   7.987 -0.8168 -1.3346 -0.9977
  119bbb    H18 3449  10.865   2.704   7.992 -1.0005  0.8060 -0.9682
  119bbb     O1 3450  10.614   3.006   7.406  0.2715 -0.1426  0.0395
  120bbb     N1 3451  10.418   3.594   7.688  0.6396 -0.0143  0.0858
  120bbb     C1 3452  10.500   3.657   7.575 -0.5297  0.1209 -0.1589
  120bbb     H1 3453  10.593   3.696   7.620  0.7732  1.4012 -3.6081
  120bbb     H2 3454  10.454   3.745   7.528  0.0252  0.6269  0.2319
  120bbb     C2 3455  10.485   3.498   7.776 -0.7290  0.5823  0.3522
  120bbb     H3 3456  10.544   3.425   7.718 -0.1473 -0.7576  2.5202
  120bbb     H4 3457  10.414   3.441   7.836 -0.1471  0.7206  1.1840
  120bbb     C3 3458  10.286   3.544   7.642  0.5225 -0.0324  0.0246
  120bbb     H5 3459  10.228   3.525   7.733 -0.0020 -1.4420 -0.5686
  120bbb     H6 3460  10.302   3.462   7.572 -0.4415  0.3154 -0.6236
  120bbb     C4 3461  10.214   3.651   7.555  0.0484 -0.5297  0.2389
  120bbb     H7 3462  10.251   3.657   7.452  0.0910 -2.3489  0.1113
  120bbb     H8 3463  10.235   3.749   7.599  2.4240 -1.0358  0.3381
  120bbb     C5 3464  10.550   3.556   7.467 -0.2665  0.3756 -0.1116
  120bbb     H9 3465  10.465   3.510   7.416  1.2992 -1.3370 -1.3238
  120bbb    H10 3466  10.614   3.481   7.516 -0.2689  1.0236  0.9177
  120bbb     C6 3467  10.578   3.568   7.875  0.6224 -0.0578 -0.0743
  120bbb    H11 3468  10.520   3.643   7.930  2.0582  0.8840  0.2363
  120bbb    H12 3469  10.647   3.627   7.813  0.4200  0.9273  0.6140
  120bbb     C7 3470  10.064   3.620   7.541 -0.0873 -0.0275  0.3217
  120bbb    H13 3471  10.004   3.705   7.505  0.7065 -0.0247 -1.0266
  120bbb    H14 3472  10.025   3.594   7.640 -1.7037 -0.9946 -0.5321
  120bbb     C8 3473  10.651   3.464   7.972 -0.1966 -0.2186  0.3261
  120bbb    H15 3474  10.744   3.425   7.926  0.2812  1.4629 -0.2203
  120bbb    H16 3475  10.595   3.373   7.995  0.4803 -0.7545 -0.0955
  120bbb     C9 3476  10.648   3.614   7.360 -0.5402  0.4691 -0.4783
  120bbb    H17 3477  10.742   3.636   7.411 -0.1914  0.3472 -1.0664
  120bbb    H18 3478  10.609   3.710   7.326  0.5306  1.3734  0.7495
  120bbb     O1 3479  10.051   3.508   7.452 -0.4942  0.2176  0.2333
  121bbb     N1 3480   9.977   2.964   6.096  0.2421 -0.0021 -0.0336
  121bbb     C1 3481  10.026   2.832   6.052 -0.8118  0.6703 -0.9969
  121bbb     H1 3482  10.120   2.856   5.999 -1.0780  0.0365 -1.7813
  121bbb     H2 3483   9.970   2.780   5.973  0.3607 -1.0682 -0.7383
  121bbb     C2 3484  10.095   3.042   6.154  0.9293 -1.2146 -0.5261
  121bbb     H3 3485  10.177   3.059   6.084 -0.0545  2.0795 -1.0608
  121bbb     H4 3486  10.141   2.986   6.237 -0.2870 -0.1291  0.9513
  121bbb     C3 3487   9.915   3.033   5.978 -0.1995 -0.3984  0.3747
  121bbb     H5 3488   9.985   3.054   5.895 -0.1797 -1.3670  0.1276
  121bbb     H6 3489   9.874   3.131   6.004 -0.7108  0.0197 -1.8307
  121bbb     C4 3490   9.800   2.958   5.906  0.2962 -0.3666 -0.5688
  121bbb     H7 3491   9.846   2.877   5.847  1.1089 -0.2908 -0.0576
  121bbb     H8 3492   9.750   3.032   5.844 -0.9674  1.1296  2.0612
  121bbb     C5 3493  10.063   2.719   6.160  0.2474 -0.1822  0.0449
  121bbb     H9 3494   9.976   2.705   6.224 -0.5326  2.2420 -0.3657
  121bbb    H10 3495  10.147   2.745   6.226 -0.3223 -0.7360  0.9949
  121bbb     C6 3496  10.063   3.188   6.199 -0.4339  0.1035 -0.5680
  121bbb    H11 3497  10.042   3.247   6.109 -1.5238  0.6045  0.0048
  121bbb    H12 3498  10.153   3.223   6.251 -1.3798  0.1316  1.1276
  121bbb     C7 3499   9.692   2.904   6.002  0.2804 -0.9390  0.6079
  121bbb    H13 3500   9.645   2.989   6.054  2.5447  1.4147 -0.9513
  121bbb    H14 3501   9.748   2.853   6.081 -0.8607 -4.9555 -0.9516
  121bbb     C8 3502   9.936   3.194   6.289 -0.4710 -0.4662 -0.3010
  121bbb    H15 3503   9.956   3.143   6.384 -1.5940 -0.2802  0.0478
  121bbb    H16 3504   9.856   3.146   6.232 -1.6900  1.2642 -0.1342
  121bbb     C9 3505  10.101   2.590   6.086  0.1507  0.5831 -0.0926
  121bbb    H17 3506  10.175   2.610   6.007  0.1758 -0.1957 -0.2755
  121bbb    H18 3507  10.012   2.559   6.032 -1.0213  1.3763  1.3021
  121bbb     O1 3508   9.600   2.816   5.938 -0.1237  0.0556 -0.4850
  122bbb     N1 3509   9.096   2.851   6.526 -0.8061 -0.2401 -0.2958
  122bbb     C1 3510   9.165   2.967   6.596 -0.9440 -0.2714 -0.8644
  122bbb     H1 3511   9.274   2.957   6.587 -0.7679 -0.3091  0.9061
  122bbb     H2 3512   9.144   2.977   6.703 -2.5820  0.1449 -1.1925
  122bbb     C2 3513   8.949   2.858   6.517  0.0695  0.2990  0.4063
  122bbb     H3 3514   8.918   2.963   6.508  1.4249  0.5986 -1.3156
  122bbb     H4 3515   8.906   2.811   6.606 -1.2217 -0.8076 -0.7428
  122bbb     C3 3516   9.140   2.714   6.576 -0.9284  0.4376  0.1822
  122bbb     H5 3517   9.082   2.635   6.527  2.1361 -1.1066 -1.2099
  122bbb     H6 3518   9.126   2.699   6.684 -0.9489  1.2101  0.2890
  122bbb     C4 3519   9.286   2.684   6.531 -0.3340 -0.0451  0.7216
  122bbb     H7 3520   9.306   2.595   6.593 -1.3371 -0.0103  1.1141
  122bbb     H8 3521   9.350   2.768   6.561  0.7205 -0.0314 -1.3831
  122bbb     C5 3522   9.133   3.102   6.535  0.3350 -0.2142  0.5420
  122bbb     H9 3523   9.025   3.122   6.528 -0.4060 -3.2679  1.8730
  122bbb    H10 3524   9.162   3.099   6.429  0.3881 -0.8729  0.5688
  122bbb     C6 3525   8.898   2.791   6.390  0.6883 -0.3552  0.4152
  122bbb    H11 3526   8.788   2.792   6.400  0.4050 -0.1175 -2.0964
  122bbb    H12 3527   8.941   2.691   6.381  0.0212 -0.5017 -1.6949
  122bbb     C7 3528   9.310   2.652   6.380 -0.1005 -0.8149  0.2840
  122bbb    H13 3529   9.415   2.645   6.349  0.4608 -1.2552  2.2048
  122bbb    H14 3530   9.266   2.734   6.322  1.4869 -0.2802 -0.2281
  122bbb     C8 3531   8.942   2.873   6.263  0.4483  0.4144  0.0623
  122bbb    H15 3532   8.911   2.818   6.174 -2.0553  1.8075 -0.0217
  122bbb    H16 3533   9.051   2.884   6.265  0.3638  1.2639  0.9536
  122bbb     C9 3534   9.208   3.219   6.599  0.4243 -0.1482 -0.2733
  122bbb    H17 3535   9.193   3.228   6.707  1.7364  0.5854 -0.1277
  122bbb    H18 3536   9.165   3.310   6.554  1.9004 -0.1086 -1.6999
  122bbb     O1 3537   9.251   2.527   6.354 -0.1959  0.0583 -0.1125
  123bbb     N1 3538   9.052   0.190   7.994 -0.1308 -0.1266 -0.4170
  123bbb     C1 3539   9.109   0.249   8.116 -0.1888  0.0735  0.1168
  123bbb     H1 3540   9.025   0.292   8.171 -0.6740  0.2604 -0.7502
  123bbb     H2 3541   9.167   0.337   8.088 -0.3546  0.7354  1.7472
  123bbb     C2 3542   8.941   0.091   8.019  0.0593  0.1610 -0.0054
  123bbb     H3 3543   8.987   0.015   8.084 -0.3883 -0.6641 -0.6447
  123bbb     H4 3544   8.908   0.059   7.920 -0.0559  1.5267 -0.4365
  123bbb     C3 3545   9.147   0.150   7.881  0.5179 -0.9747 -0.5013
  123bbb     H5 3546   9.086   0.118   7.795 -1.4400 -0.8977  0.7822
  123bbb     H6 3547   9.206   0.059   7.898  0.5535 -1.0120 -0.8153
  123bbb     C4 3548   9.240   0.260   7.843  0.1417 -0.4630  1.1099
  123bbb     H7 3549   9.308   0.291   7.924  1.2476  0.6245 -0.1983
  123bbb     H8 3550   9.191   0.353   7.814  1.3874 -0.1771 -0.2118
  123bbb     C5 3551   9.186   0.149   8.202  0.0804  0.3179  0.5283
  123bbb     H9 3552   9.266   0.098   8.146  0.9509  0.3718  1.6900
  123bbb    H10 3553   9.120   0.068   8.235 -0.6064  0.5394 -0.2805
  123bbb     C6 3554   8.820   0.157   8.092 -0.2876 -0.1886 -0.1226
  123bbb    H11 3555   8.795   0.244   8.031 -2.1565 -1.1581 -0.8348
  123bbb    H12 3556   8.843   0.180   8.197 -0.4665 -2.0872  0.3697
  123bbb     C7 3557   9.320   0.209   7.726 -0.3918  0.8133 -0.2243
  123bbb    H13 3558   9.250   0.169   7.652 -0.7806 -0.3492  0.7575
  123bbb    H14 3559   9.381   0.125   7.760 -0.4952  0.7470 -0.2035
  123bbb     C8 3560   8.698   0.053   8.097 -0.4663 -0.0045  0.1374
  123bbb    H15 3561   8.682   0.022   7.993  0.1375 -3.2483  0.9100
  123bbb    H16 3562   8.611   0.107   8.136  1.3312  3.1536  0.1385
  123bbb     C9 3563   9.244   0.215   8.325 -0.4200 -0.1911 -0.9248
  123bbb    H17 3564   9.303   0.143   8.383 -1.7697 -0.0968  0.6362
  123bbb    H18 3565   9.161   0.248   8.389  0.7984  0.4387  0.4000
  123bbb     O1 3566   9.408   0.314   7.662 -0.4973  0.1474  0.6416
  124bbb     N1 3567  10.284   0.953   8.081 -0.3504  0.1295 -0.9130
  124bbb     C1 3568  10.409   0.899   8.137  0.2108  0.2352 -0.2534
  124bbb     H1 3569  10.384   0.817   8.206  0.0116 -0.5156 -1.2098
  124bbb     H2 3570  10.456   0.973   8.203 -0.4390  0.8057 -0.4250
  124bbb     C2 3571  10.299   1.071   7.992  0.3889  0.5128 -0.0730
  124bbb     H3 3572  10.197   1.105   7.972 -0.6276 -1.3568  1.5980
  124bbb     H4 3573  10.355   1.041   7.902  0.8261  1.0480  0.0150
  124bbb     C3 3574  10.202   0.854   8.006  0.1059 -0.0509  0.0031
  124bbb     H5 3575  10.263   0.815   7.923  0.3131  1.8881 -0.7967
  124bbb     H6 3576  10.115   0.892   7.951  0.9554 -0.0286 -1.3841
  124bbb     C4 3577  10.142   0.733   8.093 -0.9879  0.0922 -0.1300
  124bbb     H7 3578  10.105   0.776   8.187  0.2445  1.4023 -0.2072
  124bbb     H8 3579  10.230   0.673   8.119 -1.6491 -0.6994  0.3389
  124bbb     C5 3580  10.522   0.856   8.041  0.4751 -0.0045  0.2972
  124bbb     H9 3581  10.555   0.946   7.987 -2.5097  0.3783 -1.0548
  124bbb    H10 3582  10.496   0.778   7.969  1.2156 -0.2697  0.3069
  124bbb     C6 3583  10.364   1.193   8.064 -0.3200 -0.0818 -0.6180
  124bbb    H11 3584  10.471   1.173   8.079 -0.2262  1.8861  2.1030
  124bbb    H12 3585  10.322   1.215   8.163 -0.2341 -1.3431 -0.2865
  124bbb     C7 3586  10.032   0.648   8.042  1.3030  0.4983  0.5403
  124bbb    H13 3587  10.027   0.558   8.105  1.2039  0.0477 -0.1044
  124bbb    H14 3588  10.046   0.614   7.939  0.5722 -1.0450  0.9124
  124bbb     C8 3589  10.344   1.323   7.975  0.2343  0.4267  0.1381
  124bbb    H15 3590  10.245   1.356   8.006  0.1126 -0.4919  0.7691
  124bbb    H16 3591  10.347   1.302   7.867  0.2509  0.7132  0.0824
  124bbb     C9 3592  10.640   0.800   8.123  0.2408 -0.1463 -0.1629
  124bbb    H17 3593  10.679   0.722   8.056 -0.7749 -0.5946 -0.2425
  124bbb    H18 3594  10.605   0.737   8.205  0.9824  0.0087  0.2810
  124bbb     O1 3595   9.912   0.727   8.048  0.3880  0.2480 -0.0253
  125bbb     N1 3596   9.786   1.096   6.659 -0.2013  0.0860 -0.4735
  125bbb     C1 3597   9.645   1.063   6.628  0.5418  0.0618  0.2938
  125bbb     H1 3598   9.622   1.070   6.521  1.7330  1.0221  0.0901
  125bbb     H2 3599   9.566   1.125   6.673 -1.4735  0.2669 -3.1587
  125bbb     C2 3600   9.887   1.049   6.563 -0.2933 -0.0492 -0.1572
  125bbb     H3 3601   9.896   0.940   6.561 -0.0209 -0.0269 -0.2109
  125bbb     H4 3602   9.989   1.080   6.588 -0.1939 -1.9623  2.2649
  125bbb     C3 3603   9.830   1.111   6.800 -0.0865  0.0386 -0.4427
  125bbb     H5 3604   9.925   1.166   6.808 -0.1075  0.2205 -1.3116
  125bbb     H6 3605   9.842   1.008   6.837 -3.1338 -0.3398 -0.3051
  125bbb     C4 3606   9.735   1.171   6.904  0.0424 -0.2405  0.0107
  125bbb     H7 3607   9.654   1.101   6.928 -0.3560  0.2491  0.1114
  125bbb     H8 3608   9.687   1.264   6.871 -1.2471 -0.8867 -0.0188
  125bbb     C5 3609   9.596   0.923   6.671  0.5637 -0.3880  0.3888
  125bbb     H9 3610   9.487   0.927   6.673  0.4520 -1.3348 -1.6333
  125bbb    H10 3611   9.640   0.903   6.770  1.1575 -0.2491  0.1556
  125bbb     C6 3612   9.864   1.102   6.420  0.0733 -0.2774 -0.4273
  125bbb    H11 3613   9.858   1.212   6.426  0.7910 -0.2673  0.2133
  125bbb    H12 3614   9.768   1.073   6.376 -1.3233 -3.5006  4.0157
  125bbb     C7 3615   9.812   1.206   7.032  0.4629  0.1416 -0.3387
  125bbb    H13 3616   9.740   1.223   7.113  3.5947  1.5157  2.4267
  125bbb    H14 3617   9.869   1.299   7.022 -0.0797  0.3053 -2.4234
  125bbb     C8 3618   9.977   1.055   6.317  0.6999  0.1395 -0.2314
  125bbb    H15 3619   9.990   0.946   6.328 -0.7033 -0.1052 -0.7656
  125bbb    H16 3620  10.068   1.104   6.353  0.9687 -1.4565  1.3848
  125bbb     C9 3621   9.643   0.809   6.580 -0.1330  0.3903 -0.4770
  125bbb    H17 3622   9.612   0.712   6.622 -0.1382 -0.3813 -2.2139
  125bbb    H18 3623   9.753   0.808   6.580 -0.0359 -0.8163  2.6098
  125bbb     O1 3624   9.884   1.090   7.072  0.7758 -0.2718 -0.3885
  126bbb     N1 3625   9.932   0.546   6.908 -0.0698 -0.2436 -0.6660
  126bbb     C1 3626   9.990   0.644   6.814 -0.6717 -0.2062 -0.4888
  126bbb     H1 3627   9.918   0.653   6.731  0.1765 -0.4283 -1.2581
  126bbb     H2 3628  10.074   0.592   6.767  0.6427 -0.5889  2.0816
  126bbb     C2 3629   9.868   0.427   6.839 -0.3183  0.3167  0.1710
  126bbb     H3 3630   9.846   0.350   6.914 -1.9240  1.1702  0.6117
  126bbb     H4 3631   9.940   0.378   6.772 -0.5557  0.9033 -0.5308
  126bbb     C3 3632  10.025   0.508   7.024 -0.1182  0.0399  0.4946
  126bbb     H5 3633   9.981   0.427   7.084  0.7550 -1.2777 -0.5795
  126bbb     H6 3634  10.029   0.593   7.093 -1.4715 -1.1710  2.1557
  126bbb     C4 3635  10.168   0.463   6.984 -0.0303  0.3984 -0.3720
  126bbb     H7 3636  10.217   0.524   6.907 -1.5557 -1.8612 -3.3561
  126bbb     H8 3637  10.172   0.360   6.947 -1.6150  0.0063  0.4670
  126bbb     C5 3638  10.017   0.789   6.857 -1.0117  0.0554 -0.2056
  126bbb     H9 3639   9.940   0.818   6.929 -0.2412  1.5439  0.0536
  126bbb    H10 3640  10.011   0.854   6.770  0.0407  1.7636  0.9387
  126bbb     C6 3641   9.746   0.450   6.755 -0.1134 -0.7871 -0.8015
  126bbb    H11 3642   9.779   0.466   6.652 -0.4554  0.6557 -0.7158
  126bbb    H12 3643   9.706   0.549   6.780  1.0877 -0.0523 -1.6595
  126bbb     C7 3644  10.257   0.467   7.112  0.1953  0.1843  0.0260
  126bbb    H13 3645  10.358   0.445   7.076  0.2138 -0.8237  0.6531
  126bbb    H14 3646  10.230   0.393   7.189 -0.1392 -2.3359 -2.3638
  126bbb     C8 3647   9.626   0.338   6.756  0.3921  0.3980  0.0054
  126bbb    H15 3648   9.566   0.355   6.847 -1.0023 -1.3467 -0.5177
  126bbb    H16 3649   9.662   0.234   6.763 -1.3235 -0.1384  2.3492
  126bbb     C9 3650  10.165   0.810   6.916  0.7694  0.3393  0.3951
  126bbb    H17 3651  10.241   0.758   6.857  0.3411 -0.4999  0.5706
  126bbb    H18 3652  10.172   0.769   7.017  2.6185 -1.3305 -0.3544
  126bbb     O1 3653  10.252   0.594   7.178  0.3392  0.5235  0.5274
  127bbb     N1 3654   5.226   4.111   8.883 -0.0825 -0.0811 -0.1443
  127bbb     C1 3655   5.250   4.124   9.026 -0.5085 -0.1241  0.4428
  127bbb     H1 3656   5.179   4.189   9.078 -2.5712 -1.9795  0.1240
  127bbb     H2 3657   5.349   4.168   9.043 -0.2834  0.1565 -1.3284
  127bbb     C2 3658   5.085   4.102   8.839 -0.2816  0.0346 -0.3064
  127bbb     H3 3659   5.028   4.168   8.906  0.7951 -0.7888  1.5174
  127bbb     H4 3660   5.053   3.999   8.860 -1.1246  0.4393  0.4629
  127bbb     C3 3661   5.333   4.041   8.806  0.0560  0.0955  0.0809
  127bbb     H5 3662   5.428   4.053   8.858  0.7999  2.5615 -1.6299
  127bbb     H6 3663   5.346   4.099   8.714 -0.5810 -0.4576 -0.3693
  127bbb     C4 3664   5.299   3.893   8.769  0.0724  0.5525  0.0200
  127bbb     H7 3665   5.219   3.883   8.695 -2.1463  1.1747  2.2417
  127bbb     H8 3666   5.265   3.838   8.857  0.6763 -4.5446 -2.5612
  127bbb     C5 3667   5.260   3.989   9.100  0.5740 -0.1147  0.6366
  127bbb     H9 3668   5.343   3.933   9.055 -0.8682 -1.0781 -0.9636
  127bbb    H10 3669   5.166   3.933   9.088  0.2647  0.2971  1.1358
  127bbb     C6 3670   5.052   4.142   8.695  0.1464 -0.1705  0.0530
  127bbb    H11 3671   4.947   4.128   8.667 -0.3329  0.1377  1.6025
  127bbb    H12 3672   5.120   4.090   8.626  1.8732 -1.3489  2.4899
  127bbb     C7 3673   5.419   3.808   8.722 -0.0967 -0.1554 -0.1643
  127bbb    H13 3674   5.452   3.842   8.623 -1.4418  2.9922  0.3400
  127bbb    H14 3675   5.393   3.702   8.720  0.3998 -0.2717 -0.6684
  127bbb     C8 3676   5.106   4.295   8.676  0.2708 -0.1121  0.1588
  127bbb    H15 3677   5.216   4.292   8.666  0.2740 -0.0495  0.1787
  127bbb    H16 3678   5.080   4.359   8.761  1.4927 -0.1767  0.6118
  127bbb     C9 3679   5.292   4.005   9.243  0.3243  0.2973  0.4044
  127bbb    H17 3680   5.219   4.071   9.293  2.3315  1.7924  1.5123
  127bbb    H18 3681   5.392   4.048   9.248  0.6668  0.1116 -2.9404
  127bbb     O1 3682   5.517   3.826   8.823 -0.2942  0.0376 -0.4932
  128bbb     N1 3683   5.705   4.360   9.000 -0.5404  0.1862  0.2696
  128bbb     C1 3684   5.621   4.267   8.927 -0.0355  0.3651 -0.9911
  128bbb     H1 3685   5.517   4.280   8.962  0.4395  1.6261  0.0257
  128bbb     H2 3686   5.646   4.163   8.951 -0.0385  0.6309  0.2202
  128bbb     C2 3687   5.683   4.502   8.969 -0.6605 -0.1170  0.0038
  128bbb     H3 3688   5.590   4.534   9.019  1.0681 -0.6633  3.9540
  128bbb     H4 3689   5.694   4.523   8.862 -0.3381 -0.7497 -0.0872
  128bbb     C3 3690   5.717   4.320   9.146 -0.6704  0.4579  0.3444
  128bbb     H5 3691   5.788   4.390   9.192  1.7247 -0.5640 -1.5721
  128bbb     H6 3692   5.763   4.221   9.153 -0.1649  0.7006  0.5635
  128bbb     C4 3693   5.595   4.328   9.240  0.2630 -0.5473  0.6271
  128bbb     H7 3694   5.515   4.262   9.204 -0.9635  0.7210  0.8944
  128bbb     H8 3695   5.550   4.428   9.250  1.7759  0.2458 -0.2308
  128bbb     C5 3696   5.630   4.289   8.775  0.1858 -0.7588 -0.2154
  128bbb     H9 3697   5.579   4.382   8.747  0.6715 -0.6941 -0.9109
  128bbb    H10 3698   5.564   4.213   8.731 -0.7294  1.3922 -2.9051
  128bbb     C6 3699   5.794   4.588   9.034 -0.8902 -0.3432  0.5169
  128bbb    H11 3700   5.892   4.554   8.999 -1.0077 -0.4010  0.2493
  128bbb    H12 3701   5.789   4.611   9.142  0.9065  3.1259  0.0125
  128bbb     C7 3702   5.625   4.286   9.384 -0.3584  0.5231 -0.2635
  128bbb    H13 3703   5.554   4.320   9.460 -2.1638 -1.1380 -1.1358
  128bbb    H14 3704   5.721   4.324   9.422  0.1174 -0.4634 -0.4385
  128bbb     C8 3705   5.778   4.731   8.968  0.3995  0.0754  0.7397
  128bbb    H15 3706   5.683   4.781   8.987  0.6395  0.6048  0.5764
  128bbb    H16 3707   5.784   4.717   8.859  2.1059  0.1822  0.7878
  128bbb     C9 3708   5.775   4.291   8.721 -0.0623 -0.6351 -0.3455
  128bbb    H17 3709   5.816   4.189   8.714 -0.2696 -0.7946  0.6468
  128bbb    H18 3710   5.850   4.341   8.783  0.3806 -0.2404 -1.1802
  128bbb     O1 3711   5.618   4.141   9.400  0.2139  0.4157 -0.1142
  129bbb     N1 3712   6.671   3.238   9.095  0.3624 -0.0255  0.2160
  129bbb     C1 3713   6.700   3.169   8.970 -0.6279  0.2130  0.1517
  129bbb     H1 3714   6.801   3.188   8.932 -1.4598  1.9105 -1.3405
  129bbb     H2 3715   6.634   3.206   8.891 -0.1931 -0.1289 -0.3716
  129bbb     C2 3716   6.646   3.382   9.063  0.6438 -0.4584  0.4701
  129bbb     H3 3717   6.605   3.436   9.149  1.2426  1.6532 -0.4862
  129bbb     H4 3718   6.570   3.384   8.984  0.5354 -0.5318  0.5719
  129bbb     C3 3719   6.773   3.224   9.196  0.0448 -0.1194  0.0330
  129bbb     H5 3720   6.872   3.259   9.165  0.3261 -0.9508 -0.0470
  129bbb     H6 3721   6.800   3.119   9.213  1.1463  0.2911  0.9628
  129bbb     C4 3722   6.731   3.299   9.328 -0.4193 -0.0534  0.8454
  129bbb     H7 3723   6.651   3.235   9.368  0.0395 -1.3195 -0.1792
  129bbb     H8 3724   6.696   3.403   9.317  0.3212  0.0992 -0.1926
  129bbb     C5 3725   6.674   3.016   8.989 -0.0208  0.6080  0.1370
  129bbb     H9 3726   6.568   2.990   8.992 -0.0005  0.5740  1.2262
  129bbb    H10 3727   6.717   2.973   9.081  1.3127 -0.0633 -0.7771
  129bbb     C6 3728   6.772   3.470   9.023  0.7829 -0.9092 -0.1142
  129bbb    H11 3729   6.830   3.416   8.946  3.0792  0.5075  0.5103
  129bbb    H12 3730   6.846   3.482   9.104  2.0565 -0.1524 -1.3403
  129bbb     C7 3731   6.842   3.299   9.436  0.7988  0.9868  0.0831
  129bbb    H13 3732   6.883   3.198   9.448  0.2882  0.8711  0.9631
  129bbb    H14 3733   6.800   3.331   9.533  0.4884  1.6908 -0.2743
  129bbb     C8 3734   6.727   3.616   8.973  0.5073  0.7813  0.3808
  129bbb    H15 3735   6.646   3.644   9.041 -1.1687  3.0651 -2.3063
  129bbb    H16 3736   6.807   3.690   8.989  1.5734  0.3548 -2.2816
  129bbb     C9 3737   6.746   2.924   8.884 -0.5258  0.8342 -0.1867
  129bbb    H17 3738   6.689   2.830   8.878  1.8386 -0.6864  0.0140
  129bbb    H18 3739   6.844   2.895   8.922  0.3269  0.2326 -2.6481
  129bbb     O1 3740   6.936   3.394   9.382 -0.5046 -0.0158  0.1250
  130bbb     N1 3741   7.915   3.787   9.161 -0.6044  0.3764  0.2378
  130bbb     C1 3742   7.918   3.850   9.298 -0.4742  0.1357  0.5292
  130bbb     H1 3743   8.000   3.814   9.360 -0.9541  0.2439  1.2396
  130bbb     H2 3744   7.823   3.823   9.345 -0.3853  0.4618  0.8996
  130bbb     C2 3745   7.996   3.845   9.045 -0.0189 -0.4617 -0.6102
  130bbb     H3 3746   7.968   3.950   9.034  0.3459 -0.0131  2.0918
  130bbb     H4 3747   7.957   3.801   8.952  0.8021  1.7454 -2.0671
  130bbb     C3 3748   7.897   3.634   9.168  0.2651  0.2748  0.2050
  130bbb     H5 3749   7.811   3.604   9.228 -0.0893 -2.1791 -1.4051
  130bbb     H6 3750   7.985   3.596   9.222  1.3772  3.7372  1.0697
  130bbb     C4 3751   7.880   3.550   9.032 -0.3277 -1.1376 -0.9477
  130bbb     H7 3752   7.975   3.550   8.976  1.5042 -0.6473  1.9545
  130bbb     H8 3753   7.819   3.606   8.960  0.7109 -0.3526 -1.2428
  130bbb     C5 3754   7.946   4.002   9.281  0.1343 -0.0065 -0.3446
  130bbb     H9 3755   7.876   4.040   9.205  1.0472  1.0578 -0.6788
  130bbb    H10 3756   8.036   4.025   9.223  0.6653 -2.1034 -0.4129
  130bbb     C6 3757   8.146   3.818   9.054 -0.2276 -0.9951  0.7570
  130bbb    H11 3758   8.154   3.709   9.063  1.2587 -0.8558  1.5970
  130bbb    H12 3759   8.169   3.856   9.155 -0.5984  1.6433 -0.0818
  130bbb     C7 3760   7.843   3.407   9.067 -0.4162  0.4375 -0.5618
  130bbb    H13 3761   7.902   3.366   9.150 -1.1244  0.0894 -0.2213
  130bbb    H14 3762   7.874   3.347   8.981  0.5020  2.0925 -1.4482
  130bbb     C8 3763   8.227   3.884   8.942  0.1403 -0.5645 -0.0049
  130bbb    H15 3764   8.334   3.862   8.948  0.2823  0.4771  3.4374
  130bbb    H16 3765   8.233   3.992   8.962  1.0613 -0.5657 -0.2229
  130bbb     C9 3766   7.937   4.081   9.416  0.0203 -1.1756 -0.7239
  130bbb    H17 3767   7.939   4.191   9.408 -0.5196 -0.7796  2.8694
  130bbb    H18 3768   8.018   4.053   9.484 -1.0944 -1.6560  0.4586
  130bbb     O1 3769   7.697   3.404   9.082 -0.5932 -0.0437  0.0604
  131bbb     N1 3770   6.912   4.758   6.774 -0.1432  0.7642 -0.3680
  131bbb     C1 3771   6.791   4.753   6.861 -0.2816 -0.0862  0.1838
  131bbb     H1 3772   6.766   4.647   6.874 -1.1185 -0.1206 -1.5031
  131bbb     H2 3773   6.705   4.798   6.810 -0.2347  0.2993  0.4356
  131bbb     C2 3774   7.029   4.698   6.842  0.0452 -0.2710 -0.3220
  131bbb     H3 3775   7.045   4.772   6.921 -2.3120 -0.1160  0.0760
  131bbb     H4 3776   7.115   4.710   6.775  0.6771  1.0264  0.6696
  131bbb     C3 3777   6.877   4.707   6.640 -0.0936  0.0264  0.0682
  131bbb     H5 3778   6.785   4.756   6.605  1.4133  1.3506 -2.3100
  131bbb     H6 3779   6.853   4.601   6.650  1.0239 -0.2496 -0.0487
  131bbb     C4 3780   6.994   4.720   6.527  0.0545 -0.4673 -0.0763
  131bbb     H7 3781   7.088   4.680   6.567  0.1847 -0.5921 -0.4959
  131bbb     H8 3782   7.010   4.827   6.509 -0.4166 -0.4190 -0.2258
  131bbb     C5 3783   6.798   4.825   7.000  0.7476  0.5908 -0.5832
  131bbb     H9 3784   6.862   4.770   7.070 -1.0417 -0.8981 -0.0548
  131bbb    H10 3785   6.698   4.812   7.043  0.3613 -2.0163 -2.0625
  131bbb     C6 3786   7.025   4.548   6.887 -0.4506 -0.3098 -0.2619
  131bbb    H11 3787   7.016   4.477   6.804 -0.7556  0.0260 -0.5191
  131bbb    H12 3788   6.925   4.540   6.933 -0.8078 -0.5003 -1.0642
  131bbb     C7 3789   6.961   4.643   6.400  0.9090 -0.2292  0.3082
  131bbb    H13 3790   7.024   4.676   6.316  1.2825  1.0064  1.0417
  131bbb    H14 3791   6.860   4.665   6.363  1.4373  0.2841 -0.8744
  131bbb     C8 3792   7.138   4.494   6.980  0.1572 -0.3335  0.2761
  131bbb    H15 3793   7.125   4.538   7.080  1.1453 -1.3920  0.9011
  131bbb    H16 3794   7.236   4.532   6.949 -0.5754  0.3932 -1.2461
  131bbb     C9 3795   6.842   4.972   7.007 -0.3998  0.2832 -0.6007
  131bbb    H17 3796   6.940   4.982   6.960 -0.5088 -0.8394 -1.0871
  131bbb    H18 3797   6.850   4.999   7.113 -2.0617  1.5696 -0.7691
  131bbb     O1 3798   6.969   4.502   6.414 -0.3350 -0.4233  0.0137
  132bbb     N1 3799   6.141   4.122   6.385 -0.2557  0.2851 -0.5628
  132bbb     C1 3800   6.093   4.247   6.439 -0.0737 -0.0934 -1.0531
  132bbb     H1 3801   6.111   4.246   6.548 -1.1724  0.6671 -0.8459
  132bbb     H2 3802   5.983   4.243   6.431 -0.2473 -2.7498  1.0649
  132bbb     C2 3803   6.125   4.107   6.236 -0.1151  0.1532 -0.5439
  132bbb     H3 3804   6.167   4.010   6.204 -1.2532 -0.9873  1.2688
  132bbb     H4 3805   6.181   4.192   6.195 -0.4016  1.0487  0.8717
  132bbb     C3 3806   6.282   4.099   6.433 -0.7141 -0.0387 -0.0497
  132bbb     H5 3807   6.307   4.135   6.534  1.0609 -2.9327  0.6709
  132bbb     H6 3808   6.348   4.162   6.372 -1.9438  1.4379  0.0970
  132bbb     C4 3809   6.329   3.958   6.434  0.2463 -0.0403 -0.0600
  132bbb     H7 3810   6.260   3.892   6.380 -0.7272 -0.2906  1.4216
  132bbb     H8 3811   6.326   3.923   6.538  1.3414  2.5600  0.9365
  132bbb     C5 3812   6.161   4.377   6.394  0.2608 -0.3808  0.1761
  132bbb     H9 3813   6.154   4.389   6.285  1.0364 -1.5373 -0.0209
  132bbb    H10 3814   6.266   4.368   6.424 -0.2040  0.2188  2.1577
  132bbb     C6 3815   5.979   4.116   6.184  0.3675  0.9287 -0.4065
  132bbb    H11 3816   5.966   4.093   6.078  0.3945 -1.3070  0.0211
  132bbb    H12 3817   5.946   4.220   6.198 -0.7818  0.9178 -2.6865
  132bbb     C7 3818   6.466   3.933   6.364 -0.5833 -0.2800  0.4264
  132bbb    H13 3819   6.458   3.964   6.259  0.8251 -0.9976  0.0858
  132bbb    H14 3820   6.487   3.826   6.374 -0.4267 -0.8101 -3.7909
  132bbb     C8 3821   5.875   4.036   6.262  0.4792  0.2886 -0.3550
  132bbb    H15 3822   5.779   4.090   6.264 -0.4768 -1.2661  2.6216
  132bbb    H16 3823   5.899   4.024   6.368 -1.6996  0.5071  0.2227
  132bbb     C9 3824   6.099   4.506   6.456  0.2020  0.7012  0.0020
  132bbb    H17 3825   6.128   4.512   6.561  0.0695 -0.5798  0.1256
  132bbb    H18 3826   5.990   4.497   6.452 -0.0086  1.6313  2.4714
  132bbb     O1 3827   6.564   4.010   6.442  0.0729  0.3210 -0.7140
  133bbb     N1 3828   6.922   3.434   7.173  0.0889  0.0448 -0.1841
  133bbb     C1 3829   6.948   3.304   7.114  0.0828 -0.4245  0.5670
  133bbb     H1 3830   6.869   3.282   7.042  0.3630  3.1352 -1.0408
  133bbb     H2 3831   6.935   3.224   7.188 -0.7451 -1.1179 -0.3112
  133bbb     C2 3832   6.807   3.432   7.267  0.3795  0.3500  0.6181
  133bbb     H3 3833   6.808   3.347   7.336  0.3473  0.1433  0.3624
  133bbb     H4 3834   6.723   3.415   7.199  1.9831  0.1994 -1.4356
  133bbb     C3 3835   6.918   3.553   7.088  0.9068 -0.3207  0.3632
  133bbb     H5 3836   7.020   3.569   7.049  0.9337 -1.0026  0.1358
  133bbb     H6 3837   6.896   3.646   7.142 -1.9350  0.5081 -1.9664
  133bbb     C4 3838   6.814   3.548   6.971 -0.0333 -0.0838  0.1099
  133bbb     H7 3839   6.713   3.560   7.012  1.1682  2.4405  2.6732
  133bbb     H8 3840   6.823   3.460   6.906  0.0278 -0.3019  0.4110
  133bbb     C5 3841   7.099   3.293   7.067  0.4903  0.7056 -0.3199
  133bbb     H9 3842   7.160   3.308   7.157  1.4420 -0.2427 -0.7859
  133bbb    H10 3843   7.144   3.362   6.995  0.5077  1.2449  0.2069
  133bbb     C6 3844   6.778   3.559   7.349  0.6630  0.0007  0.1430
  133bbb    H11 3845   6.783   3.657   7.300 -1.2751  0.2493  0.3494
  133bbb    H12 3846   6.851   3.562   7.431  1.0202  2.5069 -0.1708
  133bbb     C7 3847   6.832   3.678   6.889  0.1426  0.3552  0.0139
  133bbb    H13 3848   6.940   3.682   6.869  0.2255 -1.0361  0.1009
  133bbb    H14 3849   6.814   3.760   6.960  1.0905 -0.1997  0.9194
  133bbb     C8 3850   6.631   3.548   7.400 -0.5935  0.1618  0.0685
  133bbb    H15 3851   6.560   3.537   7.316  0.1820 -1.6457 -0.4073
  133bbb    H16 3852   6.615   3.638   7.460  2.4949  1.4377 -0.8745
  133bbb     C9 3853   7.143   3.148   7.021 -0.7566 -0.0442  0.5324
  133bbb    H17 3854   7.104   3.070   7.088  0.5294 -0.1368  1.2017
  133bbb    H18 3855   7.252   3.140   7.030 -0.5912 -2.1468 -1.8812
  133bbb     O1 3856   6.738   3.682   6.777 -0.1102  0.2942 -0.1614
  134bbb     N1 3857   6.018   3.730   7.509  0.7515  0.0338  0.0595
  134bbb     C1 3858   6.015   3.880   7.497  0.5885  0.4621 -0.0595
  134bbb     H1 3859   6.106   3.918   7.543  1.3929 -1.3541 -0.0628
  134bbb     H2 3860   5.924   3.923   7.540  0.8413  0.6365  0.2981
  134bbb     C2 3861   5.994   3.678   7.643  0.1004  0.1199 -0.6141
  134bbb     H3 3862   6.066   3.714   7.718  0.6163 -0.3200 -0.8874
  134bbb     H4 3863   6.019   3.572   7.630  0.6973  0.5417 -3.8432
  134bbb     C3 3864   6.126   3.659   7.443 -0.2500 -0.6792 -0.2387
  134bbb     H5 3865   6.197   3.627   7.519  1.8598  1.4713 -1.2001
  134bbb     H6 3866   6.190   3.724   7.383  1.6415 -1.3113  1.0314
  134bbb     C4 3867   6.070   3.539   7.360 -0.2136 -0.6255  0.2641
  134bbb     H7 3868   5.985   3.558   7.294 -0.1840  1.1570  0.6648
  134bbb     H8 3869   6.026   3.466   7.429 -0.2692 -0.3775  0.4942
  134bbb     C5 3870   6.006   3.919   7.346 -0.3127 -0.1587 -0.2428
  134bbb     H9 3871   6.088   3.876   7.288 -0.4299 -1.9644  0.8575
  134bbb    H10 3872   6.013   4.029   7.343 -1.5723 -0.0655 -0.4720
  134bbb     C6 3873   5.861   3.693   7.705  0.3330 -0.0386 -0.5269
  134bbb    H11 3874   5.844   3.801   7.718  0.7948  0.0516 -0.6836
  134bbb    H12 3875   5.855   3.652   7.807  2.0495  1.6328  0.3089
  134bbb     C7 3876   6.179   3.469   7.273 -0.0251  0.4454  0.0684
  134bbb    H13 3877   6.134   3.380   7.226 -2.0865  2.0396 -1.1445
  134bbb    H14 3878   6.255   3.418   7.333 -0.7844  0.3481  0.9881
  134bbb     C8 3879   5.753   3.635   7.607 -0.7605  0.0145 -0.1982
  134bbb    H15 3880   5.791   3.537   7.576 -0.5649 -0.5988  1.8839
  134bbb    H16 3881   5.740   3.696   7.517  3.0968  1.0620 -0.2241
  134bbb     C9 3882   5.874   3.874   7.278 -0.2939  0.0347  0.5439
  134bbb    H17 3883   5.784   3.920   7.320 -1.0157 -0.7256 -0.1286
  134bbb    H18 3884   5.858   3.766   7.293 -1.4759 -0.1498 -1.6502
  134bbb     O1 3885   6.231   3.569   7.175  0.1560  1.0489  0.5594
  135bbb     N1 3886   9.464   5.001   8.664  0.0634  0.2661  0.3622
  135bbb     C1 3887   9.382   5.041   8.547 -0.2665  0.1342 -0.9322
  135bbb     H1 3888   9.321   4.955   8.517  1.9967 -1.1114 -2.3210
  135bbb     H2 3889   9.446   5.057   8.459  2.0333  0.6005  0.7495
  135bbb     C2 3890   9.576   5.084   8.706 -1.1698 -0.0347 -0.1697
  135bbb     H3 3891   9.630   5.016   8.774 -1.3087 -1.3873 -1.3570
  135bbb     H4 3892   9.544   5.167   8.769  2.2180  0.3094  1.3472
  135bbb     C3 3893   9.389   4.960   8.784  0.3681 -0.6378  0.2197
  135bbb     H5 3894   9.326   5.038   8.828 -0.4607 -2.9488  3.4209
  135bbb     H6 3895   9.457   4.931   8.865 -0.8985  1.3712  2.0982
  135bbb     C4 3896   9.288   4.846   8.758  0.8485  0.2229 -0.5105
  135bbb     H7 3897   9.333   4.772   8.691 -0.7951 -0.6516 -0.7035
  135bbb     H8 3898   9.191   4.881   8.719  0.9717  2.4101  0.9606
  135bbb     C5 3899   9.293   5.169   8.568  0.3939  0.1272 -0.3628
  135bbb     H9 3900   9.199   5.136   8.616  0.9235 -0.1241  0.5274
  135bbb    H10 3901   9.269   5.200   8.466 -1.2701 -0.8877 -0.3273
  135bbb     C6 3902   9.679   5.135   8.600  0.0799 -0.0139 -0.1271
  135bbb    H11 3903   9.619   5.194   8.529 -1.7431  1.5164  2.5154
  135bbb    H12 3904   9.713   5.041   8.555 -2.0991 -1.7189  1.5941
  135bbb     C7 3905   9.248   4.772   8.891  0.0155 -0.2542  0.3758
  135bbb    H13 3906   9.323   4.708   8.938 -2.1430 -1.9114  1.7533
  135bbb    H14 3907   9.164   4.709   8.859 -0.3418  1.4560 -2.4495
  135bbb     C8 3908   9.802   5.220   8.660 -0.4716 -0.2506  0.0532
  135bbb    H15 3909   9.877   5.253   8.587 -1.4322  2.1251  0.0581
  135bbb    H16 3910   9.856   5.169   8.741  0.2099 -2.0550 -1.4511
  135bbb     C9 3911   9.349   5.289   8.651 -0.2739 -0.3163  0.0115
  135bbb    H17 3912   9.438   5.326   8.598  1.2429  0.3205  2.8149
  135bbb    H18 3913   9.368   5.259   8.755  0.6317 -0.2879 -0.1338
  135bbb     O1 3914   9.188   4.867   8.977 -0.0704  0.3366 -0.1130
  136bbb     N1 3915   9.390   5.733   9.792  0.9690  0.0238 -0.4451
  136bbb     C1 3916   9.487   5.715   9.906 -0.2046  0.3146 -0.3462
  136bbb     H1 3917   9.447   5.642   9.977  0.3802  2.0023  1.8232
  136bbb     H2 3918   9.502   5.798   9.975  0.7153 -0.8145  0.8484
  136bbb     C2 3919   9.262   5.811   9.806 -0.3792 -0.4198 -0.0299
  136bbb     H3 3920   9.205   5.803   9.713  0.4068 -1.4466 -0.4543
  136bbb     H4 3921   9.294   5.914   9.827 -1.5620 -0.0990  0.2440
  136bbb     C3 3922   9.378   5.619   9.694  0.4693 -0.2482 -0.2390
  136bbb     H5 3923   9.479   5.598   9.656  0.9526 -0.2374  0.9759
  136bbb     H6 3924   9.311   5.650   9.613 -0.4471 -1.2769  0.1030
  136bbb     C4 3925   9.315   5.497   9.751 -0.2585  0.0099 -0.0039
  136bbb     H7 3926   9.209   5.511   9.775 -0.5589  0.5534 -1.5581
  136bbb     H8 3927   9.358   5.466   9.847 -0.6201 -0.6779 -0.0518
  136bbb     C5 3928   9.622   5.659   9.863 -0.6898 -0.7747  0.7345
  136bbb     H9 3929   9.669   5.727   9.792 -0.8305 -1.8033 -0.3753
  136bbb    H10 3930   9.608   5.566   9.806 -1.6007 -0.6411  0.7282
  136bbb     C6 3931   9.173   5.772   9.924 -0.0415  0.1643 -0.0183
  136bbb    H11 3932   9.225   5.798  10.017 -0.8373  0.2828  0.3985
  136bbb    H12 3933   9.160   5.664   9.920 -1.4290  0.2892  0.7449
  136bbb     C7 3934   9.312   5.380   9.650 -0.4645 -0.0364 -0.0864
  136bbb    H13 3935   9.279   5.284   9.691  0.8538 -0.6380 -0.3917
  136bbb    H14 3936   9.413   5.371   9.608  0.8657  1.6703  2.5011
  136bbb     C8 3937   9.037   5.857   9.918  0.5363 -0.0020 -0.0537
  136bbb    H15 3938   9.058   5.964   9.935  0.2598  0.3320 -1.6271
  136bbb    H16 3939   8.968   5.814   9.990  0.8943  0.5597  0.6399
  136bbb     C9 3940   9.715   5.634   9.984  0.1693 -0.0255 -0.9227
  136bbb    H17 3941   9.749   5.530   9.982 -3.9378 -1.5136 -2.4762
  136bbb    H18 3942   9.666   5.642  10.082 -0.3691  0.2694 -1.2088
  136bbb     O1 3943   9.220   5.429   9.548  0.4049  0.2056 -0.6556
  137bbb     N1 3944   7.241   5.598   8.557  0.6201  0.3563  0.3284
  137bbb     C1 3945   7.172   5.725   8.580  0.2720 -0.0925 -0.5733
  137bbb     H1 3946   7.068   5.697   8.561  0.2116  0.6090 -1.3302
  137bbb     H2 3947   7.212   5.802   8.512 -0.7940  1.4302  0.4425
  137bbb     C2 3948   7.226   5.568   8.410  0.0015 -0.5761  0.8014
  137bbb     H3 3949   7.299   5.617   8.344 -2.3031 -0.8225 -2.1438
  137bbb     H4 3950   7.127   5.598   8.374  1.3703  2.9593 -0.4008
  137bbb     C3 3951   7.367   5.574   8.619 -0.0527 -0.8893 -0.0134
  137bbb     H5 3952   7.393   5.469   8.600 -0.8840 -1.2199  0.6301
  137bbb     H6 3953   7.360   5.585   8.728  1.1764  0.1374 -0.0117
  137bbb     C4 3954   7.486   5.663   8.569  0.3749 -0.1198 -0.2366
  137bbb     H7 3955   7.529   5.719   8.653  1.1782  0.3736 -0.9514
  137bbb     H8 3956   7.444   5.738   8.500 -2.9017 -2.7803 -1.3878
  137bbb     C5 3957   7.175   5.763   8.730  0.2838 -0.0956  0.9047
  137bbb     H9 3958   7.273   5.811   8.736  0.4077  0.3333 -2.5983
  137bbb    H10 3959   7.173   5.688   8.811 -1.4641  0.4257  1.3840
  137bbb     C6 3960   7.234   5.413   8.383  0.4922  0.1445  0.0588
  137bbb    H11 3961   7.192   5.354   8.465  1.2625  2.0672  1.8994
  137bbb    H12 3962   7.337   5.377   8.387  0.2377 -0.5021  1.0880
  137bbb     C7 3963   7.586   5.576   8.494 -0.0164  0.0635  0.3592
  137bbb    H13 3964   7.603   5.488   8.557 -1.2741  0.7784  1.7553
  137bbb    H14 3965   7.685   5.623   8.502  0.9264 -1.9791  1.4205
  137bbb     C8 3966   7.168   5.373   8.253 -0.6688  0.0574  0.6103
  137bbb    H15 3967   7.193   5.273   8.215  1.1486  0.6120  0.2477
  137bbb    H16 3968   7.199   5.444   8.175  0.1222 -0.0782  0.7976
  137bbb     C9 3969   7.065   5.865   8.755  0.3486 -0.7119 -0.0799
  137bbb    H17 3970   7.069   5.891   8.861 -2.0277 -2.1249  0.4285
  137bbb    H18 3971   6.967   5.820   8.735 -0.1428 -0.1714  1.0393
  137bbb     O1 3972   7.550   5.543   8.360  0.2215 -0.3571  0.4205
  138bbb     N1 3973   8.015   5.640   8.342  0.2233 -0.9414  0.3335
  138bbb     C1 3974   7.918   5.751   8.322 -0.1781  0.5967 -0.5170
  138bbb     H1 3975   7.823   5.701   8.299 -0.5126  1.1738 -0.3952
  138bbb     H2 3976   7.951   5.819   8.242  0.7544  1.6762  0.7368
  138bbb     C2 3977   7.986   5.556   8.460  0.2105 -0.0192 -0.3560
  138bbb     H3 3978   7.910   5.484   8.428 -2.7154  2.1644  1.1294
  138bbb     H4 3979   7.943   5.624   8.535  0.0696  2.1166 -2.2645
  138bbb     C3 3980   8.056   5.558   8.227 -0.4456  0.3201  0.1259
  138bbb     H5 3981   7.976   5.488   8.203  1.5520 -2.5004  1.1655
  138bbb     H6 3982   8.143   5.496   8.251 -1.6272 -1.0635  0.9901
  138bbb     C4 3983   8.081   5.636   8.097 -0.5879  0.2427  0.3926
  138bbb     H7 3984   8.153   5.716   8.118  0.4118 -0.6885  0.6141
  138bbb     H8 3985   7.988   5.688   8.071 -1.4133 -1.3122  0.0954
  138bbb     C5 3986   7.886   5.851   8.434 -0.2496  0.7694 -0.9313
  138bbb     H9 3987   7.817   5.809   8.509  0.9410  0.0833 -0.2040
  138bbb    H10 3988   7.835   5.932   8.379  1.7682  0.4507 -3.4635
  138bbb     C6 3989   8.110   5.483   8.523  0.3823 -0.2407 -0.3277
  138bbb    H11 3990   8.158   5.409   8.457 -0.5823 -1.7742  0.6214
  138bbb    H12 3991   8.082   5.427   8.613  0.3568  0.6404  0.2186
  138bbb     C7 3992   8.133   5.535   7.984 -0.1656 -0.6209  0.0105
  138bbb    H13 3993   8.233   5.496   8.007  0.2787  0.4729 -0.0143
  138bbb    H14 3994   8.143   5.593   7.891  1.7942  0.8110  1.0502
  138bbb     C8 3995   8.218   5.572   8.580  0.2993  0.0714 -0.2046
  138bbb    H15 3996   8.176   5.651   8.643 -1.4488  0.6013 -1.9216
  138bbb    H16 3997   8.267   5.622   8.495  1.3627  0.4252  0.5894
  138bbb     C9 3998   8.018   5.897   8.502  0.1750 -0.8888  0.2102
  138bbb    H17 3999   8.068   5.966   8.433  0.4039 -1.3749 -0.1138
  138bbb    H18 4000   8.084   5.810   8.513 -0.7461 -1.5380  0.7652
  138bbb     O1 4001   8.049   5.421   7.967  0.7148  0.2665 -0.2369
  139bbb     N1 4002   9.791   4.712   7.385  0.1677 -0.0908  0.7158
  139bbb     C1 4003   9.859   4.728   7.517 -0.7619 -0.5665 -0.5800
  139bbb     H1 4004   9.879   4.835   7.530 -0.3477 -0.8889  1.9589
  139bbb     H2 4005   9.965   4.699   7.519 -1.1008 -1.8840 -0.7440
  139bbb     C2 4006   9.824   4.590   7.306 -0.1731 -0.4032 -0.0942
  139bbb     H3 4007   9.784   4.593   7.204 -0.9849  1.4780  0.2376
  139bbb     H4 4008   9.771   4.510   7.359  1.8237 -1.3162  0.6380
  139bbb     C3 4009   9.647   4.743   7.378  0.4741 -0.1197  0.1286
  139bbb     H5 4010   9.591   4.698   7.460  1.2628  1.0301  1.3384
  139bbb     H6 4011   9.586   4.707   7.294 -0.4851 -2.3561  1.6878
  139bbb     C4 4012   9.628   4.893   7.397  0.0016 -0.6587  0.1336
  139bbb     H7 4013   9.698   4.939   7.467  1.3861  1.2429 -2.3622
  139bbb     H8 4014   9.524   4.906   7.429 -1.0795 -0.9641 -2.9523
  139bbb     C5 4015   9.795   4.663   7.640  0.2477  0.1734  0.4058
  139bbb     H9 4016   9.859   4.582   7.675  1.5546  0.0193 -2.0648
  139bbb    H10 4017   9.699   4.615   7.616 -1.1551  3.3444 -1.0161
  139bbb     C6 4018   9.974   4.549   7.290  0.2824  0.1217 -0.1169
  139bbb    H11 4019  10.033   4.642   7.292  0.8250 -0.2143 -0.3312
  139bbb    H12 4020   9.981   4.505   7.189 -3.5160 -2.6260  0.5936
  139bbb     C7 4021   9.638   4.979   7.266 -0.6270 -0.5135  0.6265
  139bbb    H13 4022   9.554   4.952   7.202 -0.3754 -0.9316  0.4686
  139bbb    H14 4023   9.728   4.963   7.205 -2.2458  1.6729 -2.6065
  139bbb     C8 4024  10.018   4.448   7.386 -0.5013 -0.1089  0.2739
  139bbb    H15 4025  10.041   4.489   7.484 -0.2114 -0.2018  0.2464
  139bbb    H16 4026  10.112   4.407   7.345 -0.4818  0.7339 -0.5639
  139bbb     C9 4027   9.782   4.755   7.760  0.3729  0.3691 -0.0208
  139bbb    H17 4028   9.873   4.814   7.769  1.7171 -1.2395 -2.0461
  139bbb    H18 4029   9.757   4.690   7.844  0.6158 -0.2596 -0.4243
  139bbb     O1 4030   9.646   5.119   7.315 -0.2791  0.4070  0.3052
  140bbb     N1 4031   9.834   5.741   6.752 -0.0099 -0.4250 -0.0028
  140bbb     C1 4032   9.907   5.771   6.884 -0.0918 -0.6060  0.4845
  140bbb     H1 4033   9.826   5.764   6.957 -1.1811  1.4508 -0.4401
  140bbb     H2 4034   9.933   5.877   6.876 -2.6407 -0.0119 -0.9100
  140bbb     C2 4035   9.902   5.785   6.631 -0.0896 -0.2565 -0.5449
  140bbb     H3 4036   9.996   5.729   6.628  1.5679  2.3031  0.5150
  140bbb     H4 4037   9.926   5.890   6.653 -0.0668 -0.2373 -0.6598
  140bbb     C3 4038   9.777   5.605   6.742  0.1481  0.1578 -0.4386
  140bbb     H5 4039   9.864   5.537   6.748 -0.0798 -0.3076 -1.9750
  140bbb     H6 4040   9.737   5.595   6.640 -0.5867  0.4099 -0.1784
  140bbb     C4 4041   9.659   5.570   6.843 -0.4027  0.2196 -0.2660
  140bbb     H7 4042   9.690   5.608   6.942 -2.4875  2.2054 -0.2973
  140bbb     H8 4043   9.641   5.463   6.858 -0.6437  0.5843  2.8548
  140bbb     C5 4044  10.025   5.684   6.929 -0.2639 -0.2862 -0.0338
  140bbb     H9 4045  10.105   5.701   6.856  0.3799 -2.2874  0.1671
  140bbb    H10 4046   9.988   5.581   6.918 -3.1067  0.5629  0.6045
  140bbb     C6 4047   9.826   5.787   6.493 -0.1069  0.4947 -0.5168
  140bbb    H11 4048   9.834   5.686   6.452  2.4531  0.2328  0.4228
  140bbb    H12 4049   9.885   5.852   6.426 -1.8119  2.1404 -0.5022
  140bbb     C7 4050   9.530   5.643   6.800  0.2027  0.0849  0.5194
  140bbb    H13 4051   9.514   5.609   6.697 -2.6161  0.0107  0.9235
  140bbb    H14 4052   9.549   5.751   6.791  0.8620 -0.0978 -0.4324
  140bbb     C8 4053   9.683   5.842   6.497 -0.1662  0.8420  0.6604
  140bbb    H15 4054   9.678   5.946   6.532 -2.4284  0.0940  2.8191
  140bbb    H16 4055   9.635   5.781   6.574  0.0426 -0.7620 -0.4365
  140bbb     C9 4056  10.071   5.699   7.081  0.4949  0.7007  0.3777
  140bbb    H17 4057  10.106   5.803   7.087  0.7993  0.6736 -0.7236
  140bbb    H18 4058  10.156   5.631   7.089 -0.2834 -0.0737  3.1819
  140bbb     O1 4059   9.410   5.605   6.872  0.2307 -0.0623  0.3091
  141bbb     N1 4060   7.187   5.152   7.295  0.2049  0.0700  0.3259
  141bbb     C1 4061   7.097   5.264   7.227 -0.4930  0.6172 -0.3580
  141bbb     H1 4062   6.991   5.238   7.224  0.0375 -1.7553 -2.1175
  141bbb     H2 4063   7.119   5.281   7.121  0.3596  2.0783  0.0181
  141bbb     C2 4064   7.121   5.021   7.322  0.6396  0.1877 -0.8480
  141bbb     H3 4065   7.203   4.960   7.362 -0.1858 -0.1556  0.3880
  141bbb     H4 4066   7.083   4.967   7.234  0.6810 -3.4781  1.1814
  141bbb     C3 4067   7.326   5.139   7.249  0.2416 -0.4066 -0.1520
  141bbb     H5 4068   7.384   5.081   7.322  0.4778  0.2993  0.2327
  141bbb     H6 4069   7.373   5.239   7.255  0.8695 -0.7365  0.5373
  141bbb     C4 4070   7.340   5.085   7.113 -0.2735  0.6356  0.3967
  141bbb     H7 4071   7.273   5.142   7.049  0.1046 -0.7752 -1.3514
  141bbb     H8 4072   7.322   4.977   7.101 -0.5654  0.6147  0.9895
  141bbb     C5 4073   7.091   5.398   7.300 -0.8120  0.5069  0.2429
  141bbb     H9 4074   7.194   5.412   7.335 -1.3025 -1.8810  3.0143
  141bbb    H10 4075   7.025   5.382   7.386 -1.1063 -0.1846 -0.1022
  141bbb     C6 4076   6.995   5.025   7.427  0.1525  0.5749 -0.0844
  141bbb    H11 4077   6.960   4.924   7.447 -0.0660  0.4732 -0.9415
  141bbb    H12 4078   6.909   5.070   7.375  0.3874 -0.6085 -1.5740
  141bbb     C7 4079   7.488   5.102   7.065  0.1534 -0.5211  0.4864
  141bbb    H13 4080   7.508   5.023   6.991 -1.6615  1.3253 -2.1669
  141bbb    H14 4081   7.555   5.092   7.151 -0.7459 -1.2389  1.1283
  141bbb     C8 4082   7.020   5.093   7.560 -0.2554  0.2444  0.2802
  141bbb    H15 4083   7.054   5.193   7.528 -3.3228  1.1193 -0.6092
  141bbb    H16 4084   7.106   5.052   7.614  1.1191  1.6099 -0.7621
  141bbb     C9 4085   7.037   5.506   7.205  0.5496 -0.0422 -0.1545
  141bbb    H17 4086   6.955   5.470   7.141  1.2555  1.3524 -1.9303
  141bbb    H18 4087   7.108   5.531   7.125  1.7204 -0.7454  0.6373
  141bbb     O1 4088   7.507   5.225   6.994 -0.6738 -0.5548 -0.0317
  142bbb     N1 4089   7.407   6.057   7.550  0.3124  0.2477 -0.5619
  142bbb     C1 4090   7.285   6.095   7.624 -0.5541  0.6247  0.0302
  142bbb     H1 4091   7.268   6.201   7.599  1.5218  1.2299  0.9548
  142bbb     H2 4092   7.302   6.087   7.732  1.9418  1.3771 -0.2317
  142bbb     C2 4093   7.524   6.138   7.596 -0.3985  0.5492 -0.1549
  142bbb     H3 4094   7.621   6.098   7.563 -0.1012  0.3088  0.9537
  142bbb     H4 4095   7.533   6.138   7.705 -0.5407  1.3233 -0.1362
  142bbb     C3 4096   7.396   6.046   7.402  0.5861 -0.8887 -0.3646
  142bbb     H5 4097   7.395   6.147   7.358  2.8057 -1.0817 -0.9543
  142bbb     H6 4098   7.306   5.993   7.368 -0.6302  1.1299 -0.4538
  142bbb     C4 4099   7.509   5.971   7.321 -0.2100 -0.4225  0.0348
  142bbb     H7 4100   7.525   5.875   7.371 -0.6700 -0.2893  0.4392
  142bbb     H8 4101   7.605   6.023   7.326  0.5283 -1.8480  1.3853
  142bbb     C5 4102   7.155   6.013   7.585  0.2285  1.0523  0.0862
  142bbb     H9 4103   7.166   5.904   7.588 -3.7182  0.5259  0.4701
  142bbb    H10 4104   7.127   6.049   7.485 -0.2454  1.7441  0.4554
  142bbb     C6 4105   7.516   6.292   7.565  0.0614  0.0626 -0.1931
  142bbb    H11 4106   7.433   6.345   7.615  0.5534  1.3445 -0.6985
  142bbb    H12 4107   7.497   6.304   7.458 -0.7365  0.5528 -0.0067
  142bbb     C7 4108   7.467   5.968   7.172  0.6409  0.2802  0.2446
  142bbb    H13 4109   7.480   6.067   7.126  1.0178  0.9855  1.7962
  142bbb    H14 4110   7.363   5.935   7.164 -0.2467  2.5845  1.1191
  142bbb     C8 4111   7.646   6.362   7.592 -0.4862  0.0014  0.2060
  142bbb    H15 4112   7.636   6.467   7.563 -1.4297 -0.1101  0.0981
  142bbb    H16 4113   7.730   6.315   7.540 -1.4304  0.2042 -1.5733
  142bbb     C9 4114   7.035   6.050   7.672  0.2454 -0.6773 -0.2844
  142bbb    H17 4115   7.007   6.155   7.655  1.1140 -0.3764  0.0929
  142bbb    H18 4116   7.066   6.056   7.777 -0.2092  0.2266 -0.1938
  142bbb     O1 4117   7.558   5.874   7.117 -0.4543 -0.0894  0.4247
  143bbb     N1 4118   9.282   1.708   9.064  0.3766 -0.0199 -0.8634
  143bbb     C1 4119   9.338   1.572   9.067 -0.0128 -0.1948  0.1587
  143bbb     H1 4120   9.397   1.558   8.975 -0.6330  2.1620 -0.6989
  143bbb     H2 4121   9.253   1.504   9.056  0.7003 -1.0168 -0.4257
  143bbb     C2 4122   9.235   1.744   8.928 -0.2582 -0.3036  0.2876
  143bbb     H3 4123   9.178   1.837   8.924 -0.4358 -0.4222  0.0772
  143bbb     H4 4124   9.170   1.665   8.888  0.2836  0.3178 -1.9989
  143bbb     C3 4125   9.180   1.720   9.168  0.2774  0.1487  0.1922
  143bbb     H5 4126   9.191   1.647   9.249  0.0620 -0.2126 -0.0983
  143bbb     H6 4127   9.086   1.698   9.116  1.2349  1.0069 -2.0505
  143bbb     C4 4128   9.172   1.861   9.227  0.2246  0.6006 -0.1677
  143bbb     H7 4129   9.089   1.863   9.299  0.8326 -0.0333  0.5729
  143bbb     H8 4130   9.165   1.940   9.152 -0.5321  1.3539  0.6723
  143bbb     C5 4131   9.422   1.541   9.193 -0.1110  0.7866  0.2980
  143bbb     H9 4132   9.455   1.439   9.170  0.6847  1.4904 -1.8527
  143bbb    H10 4133   9.358   1.540   9.282  2.7219  1.0513  2.4941
  143bbb     C6 4134   9.355   1.764   8.825  0.1446 -0.4066  0.6120
  143bbb    H11 4135   9.440   1.790   8.890  0.6903 -0.0998 -0.2126
  143bbb    H12 4136   9.325   1.847   8.761 -0.7058 -2.0475 -1.2315
  143bbb     C7 4137   9.293   1.899   9.311  1.0494 -0.1666 -0.2812
  143bbb    H13 4138   9.381   1.908   9.246 -0.1322 -2.3344 -2.3449
  143bbb    H14 4139   9.314   1.818   9.381  0.0985 -0.5873 -0.4656
  143bbb     C8 4140   9.380   1.641   8.736  1.1499  0.5188  0.4002
  143bbb    H15 4141   9.385   1.687   8.637  3.4569  1.3998  0.8739
  143bbb    H16 4142   9.295   1.571   8.742 -1.3408  3.2307 -0.5993
  143bbb     C9 4143   9.546   1.630   9.216 -0.0966  0.5010 -0.2992
  143bbb    H17 4144   9.595   1.579   9.300 -0.0342  0.0886 -0.5769
  143bbb    H18 4145   9.494   1.723   9.241 -1.8668 -0.7559  0.9219
  143bbb     O1 4146   9.272   2.030   9.366 -0.2446  0.0337  0.2707
  144bbb     N1 4147  10.435   2.083   9.371 -0.3276 -0.9864  0.2043
  144bbb     C1 4148  10.420   2.224   9.426 -0.5955 -0.4280  0.7960
  144bbb     H1 4149  10.331   2.276   9.388 -0.7927  0.1900  2.0385
  144bbb     H2 4150  10.500   2.278   9.374  0.8595 -3.2588 -0.1208
  144bbb     C2 4151  10.560   2.014   9.403 -0.4912 -0.5416 -0.1320
  144bbb     H3 4152  10.556   1.914   9.359  0.1954 -0.0130 -1.4286
  144bbb     H4 4153  10.572   1.995   9.511  0.7054  0.9681  0.0252
  144bbb     C3 4154  10.312   2.002   9.384 -0.3553 -0.2472 -0.1009
  144bbb     H5 4155  10.297   1.971   9.488 -1.7612 -0.0583 -0.2279
  144bbb     H6 4156  10.324   1.910   9.326 -1.1427 -0.1241 -0.4788
  144bbb     C4 4157  10.183   2.071   9.342  0.3005 -0.2587 -0.2640
  144bbb     H7 4158  10.187   2.109   9.239  2.0076  1.9860  0.5468
  144bbb     H8 4159  10.166   2.156   9.409 -0.4868 -0.7161  0.1279
  144bbb     C5 4160  10.440   2.236   9.578 -0.6232 -1.0372 -0.4902
  144bbb     H9 4161  10.546   2.211   9.592 -0.0949  1.1227 -0.2179
  144bbb    H10 4162  10.380   2.162   9.631 -0.3319 -1.6458 -0.9932
  144bbb     C6 4163  10.697   2.081   9.359  0.2898  0.1107 -0.7573
  144bbb    H11 4164  10.735   2.153   9.433 -1.6243 -0.5746  1.0092
  144bbb    H12 4165  10.683   2.141   9.269  1.1675 -0.2912 -1.1731
  144bbb     C7 4166  10.055   1.989   9.355  0.5838  0.5990  0.1424
  144bbb    H13 4167  10.067   1.923   9.442  0.0093  0.7475  0.3437
  144bbb    H14 4168  10.032   1.932   9.264 -1.5204 -0.1902  1.0913
  144bbb     C8 4169  10.796   1.970   9.331 -0.4196  0.1095 -0.4119
  144bbb    H15 4170  10.750   1.898   9.262 -4.5837  0.6246  1.5398
  144bbb    H16 4171  10.802   1.916   9.425  2.6352  2.4486  0.9287
  144bbb     C9 4172  10.420   2.377   9.643 -0.2386  0.1731 -0.0273
  144bbb    H17 4173  10.412   2.374   9.752 -1.0467 -0.6601 -0.1018
  144bbb    H18 4174  10.326   2.418   9.602 -1.2092 -0.9249  1.0274
  144bbb     O1 4175   9.945   2.081   9.390  0.2381  0.1492 -0.0163
  145bbb     N1 4176   8.068   1.758   8.481 -0.1328 -0.1732  0.0215
  145bbb     C1 4177   8.067   1.698   8.344  0.2889  0.6955  0.0042
  145bbb     H1 4178   7.973   1.646   8.321  1.2928 -1.0146 -0.3798
  145bbb     H2 4179   8.152   1.629   8.340  1.8130  2.2988  2.2356
  145bbb     C2 4180   7.981   1.681   8.579  0.0424 -0.7685  0.2741
  145bbb     H3 4181   8.010   1.705   8.682 -0.6447  0.1496  0.2773
  145bbb     H4 4182   7.998   1.574   8.561  0.4933 -0.6191 -0.1864
  145bbb     C3 4183   8.206   1.797   8.526 -0.0174 -0.2451  0.4583
  145bbb     H5 4184   8.196   1.863   8.613  0.6257  2.6987 -1.5341
  145bbb     H6 4185   8.258   1.857   8.450 -0.7533 -0.0628  0.0874
  145bbb     C4 4186   8.295   1.679   8.566 -0.1109 -0.5406 -0.3271
  145bbb     H7 4187   8.321   1.614   8.481  0.0459 -2.3996  1.0826
  145bbb     H8 4188   8.245   1.611   8.635 -1.6034  0.7958 -0.0392
  145bbb     C5 4189   8.076   1.806   8.223  0.0649  0.2241  0.1107
  145bbb     H9 4190   8.181   1.836   8.224  0.3684 -0.7587  2.0106
  145bbb    H10 4191   8.013   1.891   8.251 -1.3941 -0.1762 -1.7311
  145bbb     C6 4192   7.828   1.703   8.560  0.1818 -0.2826 -0.5587
  145bbb    H11 4193   7.783   1.616   8.608 -1.4516  0.7622 -0.0953
  145bbb    H12 4194   7.793   1.701   8.456 -1.2881 -2.6128 -0.0958
  145bbb     C7 4195   8.423   1.732   8.628 -0.1192  1.1443 -0.4250
  145bbb    H13 4196   8.463   1.818   8.573  1.0214  0.7871 -0.1961
  145bbb    H14 4197   8.490   1.644   8.628 -2.1584 -0.4886 -1.2027
  145bbb     C8 4198   7.766   1.824   8.629  0.6049 -0.0918 -0.3500
  145bbb    H15 4199   7.807   1.917   8.587 -0.8733  0.1432 -1.3498
  145bbb    H16 4200   7.787   1.823   8.736 -0.2482  1.2590 -0.1334
  145bbb     C9 4201   8.049   1.742   8.086  0.1782  0.1603 -0.4452
  145bbb    H17 4202   8.066   1.819   8.010  0.2280  0.1696 -0.4253
  145bbb    H18 4203   7.945   1.707   8.088  0.1239  0.1684  3.4089
  145bbb     O1 4204   8.398   1.770   8.764  0.7075 -0.2316 -0.2570
  146bbb     N1 4205   9.269   2.267   8.401 -0.4102  0.1984 -0.2723
  146bbb     C1 4206   9.404   2.256   8.450  0.0721 -0.1398 -1.2025
  146bbb     H1 4207   9.435   2.152   8.437  0.1864  0.1199 -3.3035
  146bbb     H2 4208   9.422   2.275   8.557  0.5566  0.2800 -1.3519
  146bbb     C2 4209   9.240   2.417   8.408 -0.1179  0.5761 -0.2387
  146bbb     H3 4210   9.318   2.474   8.356  0.6514  0.8792  1.1859
  146bbb     H4 4211   9.243   2.445   8.514  1.2325 -1.9214  0.4573
  146bbb     C3 4212   9.176   2.175   8.469 -0.0044  0.6161  0.2314
  146bbb     H5 4213   9.081   2.192   8.417  0.2028 -0.8241 -0.6907
  146bbb     H6 4214   9.170   2.200   8.576 -3.7265  0.9752  0.0869
  146bbb     C4 4215   9.225   2.030   8.453 -0.2737  0.6880  0.4508
  146bbb     H7 4216   9.309   2.011   8.520  0.4268 -3.2136 -1.2907
  146bbb     H8 4217   9.253   2.016   8.348  2.2854 -0.1631  1.1848
  146bbb     C5 4218   9.511   2.327   8.365  0.3845 -0.4164 -0.9013
  146bbb     H9 4219   9.537   2.429   8.396  2.5898 -1.2781  0.3081
  146bbb    H10 4220   9.474   2.344   8.263 -2.0192  1.3643  0.1691
  146bbb     C6 4221   9.098   2.461   8.372  0.1465 -0.0582  0.2831
  146bbb    H11 4222   9.028   2.426   8.448  0.1187 -1.7696 -0.4858
  146bbb    H12 4223   9.076   2.412   8.276  1.6823  1.1957 -0.7657
  146bbb     C7 4224   9.121   1.923   8.496 -0.1046  0.0630  0.3777
  146bbb    H13 4225   9.173   1.826   8.494 -1.2346 -0.5581  0.1849
  146bbb    H14 4226   9.040   1.919   8.422 -0.1532  1.6175  0.3117
  146bbb     C8 4227   9.095   2.612   8.369  0.4984  0.5911  0.4011
  146bbb    H15 4228   9.175   2.654   8.306  1.2947 -1.2272  0.1323
  146bbb    H16 4229   9.114   2.657   8.467  2.2874  3.2991 -1.0696
  146bbb     C9 4230   9.641   2.258   8.347  0.0743  0.7277 -0.1854
  146bbb    H17 4231   9.624   2.149   8.348 -0.6447  0.8449  0.8543
  146bbb    H18 4232   9.705   2.280   8.433 -2.2494  0.5717  1.6812
  146bbb     O1 4233   9.068   1.943   8.628 -0.0705 -0.5529 -0.1042
  147bbb     N1 4234   8.766   3.488   9.574  1.0228 -0.4068  0.5387
  147bbb     C1 4235   8.849   3.496   9.451  0.2118 -0.3036  0.2641
  147bbb     H1 4236   8.833   3.589   9.394 -2.6855 -1.1374 -0.4588
  147bbb     H2 4237   8.811   3.422   9.380 -1.2974 -0.3249  1.0423
  147bbb     C2 4238   8.670   3.603   9.602 -0.4789 -0.2043  0.1444
  147bbb     H3 4239   8.609   3.586   9.692 -0.1294 -1.3230  0.1843
  147bbb     H4 4240   8.614   3.611   9.509  0.6274 -0.7759 -0.6053
  147bbb     C3 4241   8.705   3.358   9.601  0.6039  0.1829  0.1583
  147bbb     H5 4242   8.649   3.360   9.696 -1.5431  2.1072 -1.0608
  147bbb     H6 4243   8.790   3.289   9.610  0.4742  0.1434  1.2580
  147bbb     C4 4244   8.604   3.306   9.500  0.4554  0.0266  1.0224
  147bbb     H7 4245   8.641   3.266   9.405 -1.3019 -0.2577  0.4190
  147bbb     H8 4246   8.543   3.391   9.466  1.4948  0.1013 -0.8245
  147bbb     C5 4247   8.999   3.487   9.481  0.0202 -0.2571 -0.2124
  147bbb     H9 4248   9.018   3.391   9.531  0.2908  0.7433  1.7087
  147bbb    H10 4249   9.016   3.563   9.559 -1.0768 -0.9466  0.7477
  147bbb     C6 4250   8.734   3.736   9.622  0.3209  0.6813 -0.2391
  147bbb    H11 4251   8.785   3.755   9.527  0.9879  1.0504  0.1918
  147bbb    H12 4252   8.804   3.729   9.706 -0.1234  0.9020  0.1602
  147bbb     C7 4253   8.497   3.195   9.543  0.0400 -0.0089 -0.0244
  147bbb    H13 4254   8.413   3.185   9.474 -0.9130 -0.0759  1.1088
  147bbb    H14 4255   8.459   3.224   9.642  0.4365 -1.1016  0.4681
  147bbb     C8 4256   8.644   3.858   9.634 -0.0525 -0.9937 -0.0615
  147bbb    H15 4257   8.707   3.947   9.647 -0.7350 -0.0179 -2.7681
  147bbb    H16 4258   8.582   3.855   9.725 -2.1339  0.5745 -1.3390
  147bbb     C9 4259   9.089   3.500   9.357  0.6121 -0.4956 -0.0786
  147bbb    H17 4260   9.130   3.601   9.351  1.0650 -0.4441  2.8079
  147bbb    H18 4261   9.028   3.492   9.266  0.8530 -1.3180 -0.1802
  147bbb     O1 4262   8.565   3.069   9.563  0.4706 -0.2120 -0.7006
  148bbb     N1 4263   8.191   3.046  10.435 -0.8744  0.2785  0.5629
  148bbb     C1 4264   8.208   3.149  10.324 -0.1627  1.0754  0.7264
  148bbb     H1 4265   8.165   3.112  10.229  2.1389 -3.1456  1.0689
  148bbb     H2 4266   8.313   3.159  10.295  0.1014 -2.8906 -0.3653
  148bbb     C2 4267   8.063   3.058  10.511 -0.3311  0.1241 -0.5489
  148bbb     H3 4268   7.983   3.031  10.440 -0.6416 -1.5784  0.3922
  148bbb     H4 4269   8.048   3.161  10.545 -1.5798 -0.2466  0.0866
  148bbb     C3 4270   8.214   2.909  10.378 -0.8756  0.3084  0.4163
  148bbb     H5 4271   8.142   2.890  10.298  0.4671  0.7268 -0.9279
  148bbb     H6 4272   8.211   2.830  10.454  4.9698  0.1137  0.9130
  148bbb     C4 4273   8.354   2.881  10.322 -0.1215  0.0683 -0.0391
  148bbb     H7 4274   8.433   2.886  10.398  0.5076 -1.3667 -0.5755
  148bbb     H8 4275   8.376   2.959  10.248 -0.4683  1.6372  1.4577
  148bbb     C5 4276   8.147   3.290  10.356  0.6640 -0.7907 -0.3010
  148bbb     H9 4277   8.038   3.285  10.357  0.6423 -0.3489 -0.4377
  148bbb    H10 4278   8.163   3.355  10.269  0.7483 -0.0340  0.2784
  148bbb     C6 4279   8.044   2.982  10.645  0.3114  0.1678  0.6355
  148bbb    H11 4280   8.141   2.972  10.696  0.7905  1.3610 -0.0087
  148bbb    H12 4281   8.010   2.881  10.619 -0.1774  0.3213  0.6705
  148bbb     C7 4282   8.367   2.742  10.255  0.5482 -0.0374  0.1563
  148bbb    H13 4283   8.282   2.728  10.187  1.5100 -0.9885 -0.9104
  148bbb    H14 4284   8.372   2.664  10.331  4.3382  0.5669  0.7304
  148bbb     C8 4285   7.929   3.031  10.736  0.5522  0.5433  0.0517
  148bbb    H15 4286   7.961   3.124  10.785 -0.0092  0.6251  0.2784
  148bbb    H16 4287   7.907   2.958  10.815 -0.0566  1.3831  0.6784
  148bbb     C9 4288   8.223   3.362  10.472 -0.4904  0.3454 -0.4074
  148bbb    H17 4289   8.318   3.404  10.438  1.2560 -3.1296 -0.3452
  148bbb    H18 4290   8.233   3.290  10.554  0.3236  0.2010 -0.6287
  148bbb     O1 4291   8.494   2.750  10.183 -0.2956  0.1185 -0.6622
  149bbb     N1 4292   8.460   1.414   9.061  0.1484 -0.2401  0.1987
  149bbb     C1 4293   8.567   1.333   9.001 -0.7698  0.0972  0.5512
  149bbb     H1 4294   8.540   1.228   8.982 -0.0322  0.0343 -0.2057
  149bbb     H2 4295   8.657   1.336   9.063 -1.0005  1.0579  0.8559
  149bbb     C2 4296   8.498   1.542   9.119  0.0621  0.6251 -0.1533
  149bbb     H3 4297   8.566   1.592   9.049  1.0642 -0.3667  0.0800
  149bbb     H4 4298   8.552   1.527   9.214 -0.7139  1.6342  0.4683
  149bbb     C3 4299   8.375   1.334   9.144  0.1556 -0.2465  0.0385
  149bbb     H5 4300   8.350   1.241   9.091  0.3308  0.1482 -0.7658
  149bbb     H6 4301   8.284   1.392   9.165 -0.0442 -0.7896  0.6952
  149bbb     C4 4302   8.444   1.277   9.279  0.2708  0.0886  1.0671
  149bbb     H7 4303   8.492   1.360   9.332 -0.1267  1.5078 -0.6967
  149bbb     H8 4304   8.513   1.199   9.243 -1.5198 -0.5599 -1.2662
  149bbb     C5 4305   8.595   1.382   8.863 -0.4905 -0.3083 -0.5101
  149bbb     H9 4306   8.691   1.344   8.825  0.0897  0.9053 -0.3306
  149bbb    H10 4307   8.625   1.488   8.858 -1.3646 -0.0753 -0.9520
  149bbb     C6 4308   8.374   1.631   9.147 -0.3186 -0.1126  0.2643
  149bbb    H11 4309   8.297   1.585   9.210  1.2247 -1.4947  1.2113
  149bbb    H12 4310   8.325   1.647   9.050  0.4474  0.6458 -0.0054
  149bbb     C7 4311   8.340   1.210   9.371 -0.2680 -0.7624  0.4241
  149bbb    H13 4312   8.400   1.178   9.457 -0.2488 -2.1142 -0.0667
  149bbb    H14 4313   8.290   1.128   9.317 -2.2937  0.5209  0.2387
  149bbb     C8 4314   8.388   1.774   9.216 -0.1467 -0.0719 -0.7194
  149bbb    H15 4315   8.303   1.837   9.190 -0.1869 -0.4934 -1.6540
  149bbb    H16 4316   8.479   1.821   9.175 -0.2698  1.4469  0.6624
  149bbb     C9 4317   8.481   1.351   8.762 -0.0980  0.4493  0.6158
  149bbb    H17 4318   8.388   1.400   8.794 -0.7973 -0.5633  0.1803
  149bbb    H18 4319   8.464   1.243   8.772 -0.3264  0.4802  0.5624
  149bbb     O1 4320   8.227   1.296   9.408  0.1988  0.1609  0.0170
  150bbb     N1 4321   7.424   2.178   9.335  0.7483  0.2518 -0.5148
  150bbb     C1 4322   7.420   2.323   9.298  0.3480 -0.3745 -0.0436
  150bbb     H1 4323   7.508   2.342   9.236  0.9467 -2.6202  0.0271
  150bbb     H2 4324   7.414   2.390   9.385 -1.7723 -0.2861 -0.1872
  150bbb     C2 4325   7.322   2.155   9.444  0.1340 -0.2153 -0.5494
  150bbb     H3 4326   7.224   2.152   9.396 -0.9628 -0.7358  1.5722
  150bbb     H4 4327   7.335   2.235   9.518 -0.1116 -0.0233 -0.7149
  150bbb     C3 4328   7.441   2.071   9.233 -0.2232 -0.1663 -0.3048
  150bbb     H5 4329   7.356   2.061   9.163 -0.3948 -0.7650 -0.0141
  150bbb     H6 4330   7.446   1.974   9.283  0.5202 -0.5649 -1.1365
  150bbb     C4 4331   7.562   2.101   9.137 -0.1480  0.4504 -0.5415
  150bbb     H7 4332   7.636   2.160   9.194  2.1105 -1.9800 -0.7871
  150bbb     H8 4333   7.526   2.172   9.061 -0.3143  1.9948  0.9081
  150bbb     C5 4334   7.301   2.348   9.203  0.2065 -0.0951  0.5997
  150bbb     H9 4335   7.205   2.322   9.248 -0.0708 -3.0457 -1.4102
  150bbb    H10 4336   7.302   2.282   9.115  2.7386  1.6564 -0.8304
  150bbb     C6 4337   7.339   2.026   9.523 -0.7096  0.2091  0.3481
  150bbb    H11 4338   7.444   2.008   9.550  0.2245  1.5131 -2.0823
  150bbb    H12 4339   7.320   1.950   9.446 -1.6355  0.4271  0.3524
  150bbb     C7 4340   7.621   1.975   9.072 -0.3215  0.5243  0.5995
  150bbb    H13 4341   7.693   2.008   8.996  0.3755 -0.6191  0.7356
  150bbb    H14 4342   7.545   1.909   9.030  0.6535 -1.3114  1.6164
  150bbb     C8 4343   7.228   2.020   9.626  0.6581 -0.2211  0.6448
  150bbb    H15 4344   7.207   2.122   9.662 -1.0243 -1.2049  2.6963
  150bbb    H16 4345   7.249   1.956   9.712  0.5651 -1.9434 -0.5661
  150bbb     C9 4346   7.302   2.500   9.167  0.7608  0.2672 -0.3167
  150bbb    H17 4347   7.371   2.520   9.083  0.1564 -2.3085 -1.5285
  150bbb    H18 4348   7.328   2.552   9.260 -0.4096  4.1026 -1.9553
  150bbb     O1 4349   7.692   1.910   9.181 -0.3921  0.3420  0.5319
  151bbb     N1 4350   9.780   5.730   9.296  0.3051 -0.1367  0.2707
  151bbb     C1 4351   9.887   5.690   9.393  0.6659  0.6996  0.2927
  151bbb     H1 4352   9.866   5.754   9.479  0.6936  2.1797 -0.7554
  151bbb     H2 4353   9.988   5.714   9.356 -0.0501 -0.0030 -2.3346
  151bbb     C2 4354   9.811   5.865   9.243 -0.4203 -0.2352 -0.4995
  151bbb     H3 4355   9.855   5.928   9.322 -1.6928  1.5079 -1.1392
  151bbb     H4 4356   9.722   5.916   9.205 -1.0386 -0.5437  0.5014
  151bbb     C3 4357   9.642   5.732   9.360  0.3193  0.1013  0.6546
  151bbb     H5 4358   9.615   5.827   9.408 -4.5267  0.5704 -2.3938
  151bbb     H6 4359   9.637   5.646   9.427  0.1905 -0.7005 -0.3745
  151bbb     C4 4360   9.531   5.699   9.256 -0.1606 -0.8051 -0.2726
  151bbb     H7 4361   9.524   5.786   9.190  0.0501  0.0698  0.8254
  151bbb     H8 4362   9.432   5.691   9.303 -1.4087  1.9351 -2.1637
  151bbb     C5 4363   9.887   5.539   9.445  0.0298 -0.3550  0.4609
  151bbb     H9 4364   9.789   5.512   9.486 -0.3862 -1.2481 -1.0447
  151bbb    H10 4365   9.966   5.531   9.521 -0.8729 -1.4899  1.3036
  151bbb     C6 4366   9.910   5.856   9.122  0.0346 -0.0096  0.2484
  151bbb    H11 4367   9.855   5.809   9.039 -1.2399  0.8299  0.5939
  151bbb    H12 4368   9.990   5.786   9.148  0.5261  1.0413  1.6368
  151bbb     C7 4369   9.571   5.574   9.182 -0.3773  0.2409  0.5645
  151bbb    H13 4370   9.602   5.498   9.255  0.0712 -1.5962 -1.4400
  151bbb    H14 4371   9.653   5.598   9.113 -0.1496 -0.7697  0.4761
  151bbb     C8 4372   9.978   5.990   9.088 -0.3062  0.8405  1.1136
  151bbb    H15 4373  10.031   5.969   8.995 -0.2247 -1.6909  1.6579
  151bbb    H16 4374  10.040   6.018   9.174 -0.7979  1.5546  1.2456
  151bbb     C9 4375   9.914   5.444   9.323 -0.2817  0.3355  0.5737
  151bbb    H17 4376   9.839   5.466   9.246 -0.5750  0.5278  0.9111
  151bbb    H18 4377   9.910   5.340   9.357  0.7196  0.6518  1.7314
  151bbb     O1 4378   9.457   5.518   9.124  0.5263 -0.3802  0.2525
  152bbb     N1 4379  10.166   4.953   8.570 -0.1925 -0.5657 -0.0591
  152bbb     C1 4380  10.186   4.864   8.450 -0.7036  0.4970 -0.0771
  152bbb     H1 4381  10.231   4.926   8.373  2.6268 -0.9361  0.5468
  152bbb     H2 4382  10.087   4.826   8.419 -0.4463  1.3345 -2.0321
  152bbb     C2 4383  10.265   5.064   8.588 -0.5698 -0.5644 -0.3311
  152bbb     H3 4384  10.268   5.109   8.488 -1.2220  0.1502 -0.0369
  152bbb     H4 4385  10.364   5.016   8.587 -0.7919 -1.0265 -0.6459
  152bbb     C3 4386  10.120   4.876   8.691  0.0376 -0.4348  0.6620
  152bbb     H5 4387  10.124   4.936   8.782 -0.8615 -0.6767  0.8678
  152bbb     H6 4388  10.179   4.783   8.695  0.3556 -0.3440 -1.0969
  152bbb     C4 4389   9.969   4.852   8.665  0.3518  0.1034 -0.5427
  152bbb     H7 4390   9.951   4.770   8.595 -1.9474  2.5494 -3.0528
  152bbb     H8 4391   9.912   4.935   8.622 -0.7424  0.4469  1.4086
  152bbb     C5 4392  10.279   4.735   8.451  0.9581 -0.2543 -0.5146
  152bbb     H9 4393  10.303   4.703   8.349 -0.8023  1.8882 -1.6567
  152bbb    H10 4394  10.221   4.657   8.502  0.7383  0.3922  0.2501
  152bbb     C6 4395  10.253   5.162   8.711  0.6535  0.4631  0.1718
  152bbb    H11 4396  10.261   5.094   8.797 -0.4560 -0.4518 -0.4182
  152bbb    H12 4397  10.151   5.197   8.729  0.3439  0.0664 -0.7311
  152bbb     C7 4398   9.891   4.838   8.795 -0.5814  0.2143  0.0793
  152bbb    H13 4399   9.923   4.751   8.853 -0.2185 -0.4539 -1.0828
  152bbb    H14 4400   9.790   4.818   8.757 -0.5989 -3.8788  1.7710
  152bbb     C8 4401  10.351   5.285   8.720  0.2572  0.6339  0.0100
  152bbb    H15 4402  10.309   5.358   8.791  1.8303  0.7832  0.8284
  152bbb    H16 4403  10.348   5.335   8.623  0.9561 -1.1529 -0.9723
  152bbb     C9 4404  10.416   4.742   8.531 -0.3600  0.2156 -0.0329
  152bbb    H17 4405  10.409   4.719   8.638 -0.4466 -1.1042 -0.3066
  152bbb    H18 4406  10.456   4.843   8.518 -2.2730  0.9297 -0.7135
  152bbb     O1 4407   9.908   4.958   8.872  0.2984 -0.0476  0.4718
  153bbb     N1 4408   9.845   3.792  10.977 -0.3834  0.2110 -0.4321
  153bbb     C1 4409   9.727   3.739  11.048 -0.1179 -0.0201 -0.1958
  153bbb     H1 4410   9.671   3.660  10.996 -0.9030  1.0224 -0.9896
  153bbb     H2 4411   9.664   3.829  11.049 -0.6905 -0.3755 -1.4295
  153bbb     C2 4412   9.952   3.682  10.954  0.2185  0.2578  0.2646
  153bbb     H3 4413   9.985   3.647  11.053  0.3584  0.2362  0.2105
  153bbb     H4 4414  10.042   3.725  10.909 -0.0588 -0.7293 -1.2939
  153bbb     C3 4415   9.800   3.860  10.861 -0.4116  0.6583  0.3731
  153bbb     H5 4416   9.714   3.927  10.878  0.4980  1.9695 -0.0199
  153bbb     H6 4417   9.768   3.787  10.787 -3.5464  0.7117  1.5323
  153bbb     C4 4418   9.919   3.941  10.805 -1.0327 -0.6193 -0.5468
  153bbb     H7 4419  10.003   3.882  10.767 -1.1917  0.6951 -3.2052
  153bbb     H8 4420   9.965   3.996  10.889 -2.0836 -0.5383 -0.0078
  153bbb     C5 4421   9.747   3.678  11.190 -0.5719 -0.4500 -0.4555
  153bbb     H9 4422   9.807   3.740  11.259 -2.1222 -0.4703  0.9754
  153bbb    H10 4423   9.808   3.588  11.179  0.5641  0.1761  0.4967
  153bbb     C6 4424   9.913   3.553  10.882 -0.0261  0.6813 -0.5424
  153bbb    H11 4425   9.817   3.512  10.915  0.3397  1.1989  1.2329
  153bbb    H12 4426   9.993   3.484  10.912 -0.8353  0.8316  2.1479
  153bbb     C7 4427   9.879   4.041  10.691  0.2575 -0.0025  0.2459
  153bbb    H13 4428   9.946   4.126  10.675 -1.3885  0.8592 -2.8413
  153bbb    H14 4429   9.779   4.084  10.709  0.9482  1.3899  0.8845
  153bbb     C8 4430   9.913   3.567  10.734 -0.3888  0.2407 -0.4421
  153bbb    H15 4431   9.995   3.627  10.693 -0.1976 -0.3799 -0.9791
  153bbb    H16 4432   9.820   3.618  10.706 -0.5282  0.5780  0.5714
  153bbb     C9 4433   9.608   3.648  11.249  0.6149 -0.6356  0.2818
  153bbb    H17 4434   9.537   3.731  11.246 -0.3996 -1.4853  0.4246
  153bbb    H18 4435   9.608   3.628  11.357 -1.1953  2.3110  0.9488
  153bbb     O1 4436   9.884   3.962  10.562 -0.0888 -0.4004 -0.4514
  154bbb     N1 4437  10.318   3.726   9.996 -1.2907  0.6575 -0.2176
  154bbb     C1 4438  10.289   3.873  10.000  0.6602  1.1692 -0.3503
  154bbb     H1 4439  10.277   3.911   9.898  0.8920 -1.2501 -1.3341
  154bbb     H2 4440  10.378   3.924  10.040  1.6444 -1.5373  1.1343
  154bbb     C2 4441  10.464   3.687   9.994  0.3202  0.5070 -0.4388
  154bbb     H3 4442  10.477   3.579   9.993  2.6084  0.7397 -0.6867
  154bbb     H4 4443  10.516   3.732  10.079 -1.8820  1.8716  0.2695
  154bbb     C3 4444  10.229   3.647   9.904  0.5378  0.3790  1.1963
  154bbb     H5 4445  10.281   3.637   9.808  0.2383 -1.5281  1.1968
  154bbb     H6 4446  10.135   3.703   9.898 -0.1063 -0.8054 -0.6294
  154bbb     C4 4447  10.198   3.505   9.964 -0.2367 -0.4331 -0.4128
  154bbb     H7 4448  10.168   3.518  10.069  2.6082  0.7871  0.3372
  154bbb     H8 4449  10.282   3.437   9.982 -0.0826  0.2073  1.5240
  154bbb     C5 4450  10.163   3.897  10.084  0.4948 -0.6368  0.3102
  154bbb     H9 4451  10.167   3.844  10.180  0.3105  0.7852  1.1249
  154bbb    H10 4452  10.080   3.863  10.021  2.3739 -2.7745 -1.2112
  154bbb     C6 4453  10.547   3.739   9.868 -0.1625  0.3356  0.1181
  154bbb    H11 4454  10.521   3.843   9.846  0.6143  1.2671  3.0968
  154bbb    H12 4455  10.513   3.676   9.785 -0.3372  1.3261 -0.5734
  154bbb     C7 4456  10.083   3.424   9.905  0.4238  0.1500  0.3062
  154bbb    H13 4457  10.084   3.320   9.939 -2.5432 -0.8876 -2.3665
  154bbb    H14 4458  10.090   3.413   9.796 -0.2360 -1.0073  0.3727
  154bbb     C8 4459  10.700   3.722   9.882  0.0145  0.8387  0.1973
  154bbb    H15 4460  10.712   3.621   9.922 -2.6308 -0.4608 -1.9782
  154bbb    H16 4461  10.743   3.768   9.972  0.7099 -0.2658  0.4428
  154bbb     C9 4462  10.147   4.048  10.112  0.4728 -0.4301 -0.5593
  154bbb    H17 4463  10.241   4.093  10.144  0.6509 -1.2149  0.0171
  154bbb    H18 4464  10.076   4.068  10.193  0.7937 -0.5826 -0.2392
  154bbb     O1 4465   9.960   3.484   9.934 -0.2783 -0.3065  0.3822
  155bbb     N1 4466   8.405   5.898   9.664 -0.0915 -0.4438  0.4766
  155bbb     C1 4467   8.419   5.777   9.584 -0.6169 -0.1508 -0.5312
  155bbb     H1 4468   8.495   5.710   9.625  0.4711  0.6885 -1.1183
  155bbb     H2 4469   8.465   5.813   9.491  1.8753 -3.1712 -0.5918
  155bbb     C2 4470   8.349   6.010   9.584  0.2588  0.2647 -0.1377
  155bbb     H3 4471   8.243   6.005   9.557  0.1411 -0.3933  0.4125
  155bbb     H4 4472   8.393   6.006   9.484 -1.3168 -1.6397 -0.8153
  155bbb     C3 4473   8.335   5.882   9.792 -0.1586  0.5016 -0.7907
  155bbb     H5 4474   8.231   5.856   9.771  0.0022 -1.9030  0.8881
  155bbb     H6 4475   8.326   5.968   9.858  4.0470  0.5396  0.0630
  155bbb     C4 4476   8.388   5.761   9.886 -0.6435 -0.3726 -0.1307
  155bbb     H7 4477   8.354   5.668   9.839  0.8949 -1.1579  0.2631
  155bbb     H8 4478   8.347   5.763   9.987 -1.1257 -1.9976 -0.2598
  155bbb     C5 4479   8.292   5.694   9.549  0.6096  0.7543 -0.6787
  155bbb     H9 4480   8.226   5.758   9.489 -2.7253 -1.6243  0.2084
  155bbb    H10 4481   8.232   5.676   9.639  0.5258 -0.1350 -0.9074
  155bbb     C6 4482   8.378   6.144   9.652  0.2813  0.1917  0.0560
  155bbb    H11 4483   8.313   6.169   9.736  0.5161  0.4580  0.1558
  155bbb    H12 4484   8.357   6.227   9.584  0.9443  0.2941 -0.0358
  155bbb     C7 4485   8.539   5.768   9.907 -0.3979  0.1848  0.1949
  155bbb    H13 4486   8.556   5.847   9.982 -0.2108 -0.4455  0.8274
  155bbb    H14 4487   8.600   5.784   9.817  2.1235  1.1846  1.9584
  155bbb     C8 4488   8.523   6.155   9.689  0.4203 -0.2277  0.1117
  155bbb    H15 4489   8.589   6.156   9.601 -0.3621 -0.7007 -0.4962
  155bbb    H16 4490   8.546   6.071   9.757 -0.3618 -1.8754 -1.5711
  155bbb     C9 4491   8.319   5.569   9.471  0.1288  0.7703 -0.3710
  155bbb    H17 4492   8.383   5.584   9.384  0.3244 -2.7490 -0.9871
  155bbb    H18 4493   8.217   5.538   9.444  1.1250 -1.8985 -1.4231
  155bbb     O1 4494   8.587   5.641   9.946 -0.0248  0.1920 -0.2466
  156bbb     N1 4495   8.766   5.611   8.903  0.0653 -0.2725 -0.5265
  156bbb     C1 4496   8.785   5.489   8.817  0.3648 -0.9429 -0.3831
  156bbb     H1 4497   8.742   5.517   8.720 -1.6030 -3.7015 -0.4130
  156bbb     H2 4498   8.713   5.421   8.864  0.0093  0.4331  1.1771
  156bbb     C2 4499   8.867   5.724   8.887  0.3362  0.8382  0.3266
  156bbb     H3 4500   8.957   5.694   8.942  0.1203  2.4761  1.6709
  156bbb     H4 4501   8.826   5.811   8.939 -1.3098  1.4344 -1.8518
  156bbb     C3 4502   8.762   5.584   9.051  0.4264 -0.2639  0.0650
  156bbb     H5 4503   8.857   5.545   9.089 -0.3894 -0.7647  1.6919
  156bbb     H6 4504   8.681   5.511   9.057 -0.7030  0.9809  0.3990
  156bbb     C4 4505   8.716   5.698   9.141  0.3064  0.1197  0.3603
  156bbb     H7 4506   8.639   5.752   9.085  0.7596  0.2841 -0.1168
  156bbb     H8 4507   8.806   5.758   9.161  0.5956 -0.4510  0.8321
  156bbb     C5 4508   8.926   5.421   8.815  0.2716 -0.2070 -0.7927
  156bbb     H9 4509   8.966   5.396   8.915 -1.0802 -2.2139 -0.6965
  156bbb    H10 4510   8.997   5.485   8.761  0.5047  0.3062  0.0999
  156bbb     C6 4511   8.891   5.759   8.741  0.3354 -0.2438  0.4948
  156bbb    H11 4512   8.929   5.673   8.684 -2.1697 -1.3081  0.2702
  156bbb    H12 4513   8.973   5.830   8.752  2.3512 -2.2332 -0.7628
  156bbb     C7 4514   8.658   5.649   9.277  0.3457  0.5071  0.1314
  156bbb    H13 4515   8.588   5.568   9.255  1.6160 -0.2497 -1.3482
  156bbb    H14 4516   8.602   5.728   9.329 -1.8244 -1.4517  0.9709
  156bbb     C8 4517   8.770   5.824   8.671  0.0723 -0.3104 -0.0860
  156bbb    H15 4518   8.716   5.891   8.737  3.4592  0.8464  1.7678
  156bbb    H16 4519   8.696   5.752   8.634  1.1280 -1.2898 -0.3898
  156bbb     C9 4520   8.929   5.282   8.737  0.3964  0.1816  0.3652
  156bbb    H17 4521   8.871   5.217   8.804  0.2013  1.0782  1.0835
  156bbb    H18 4522   9.034   5.252   8.738  0.1206 -0.8385  0.3833
  156bbb     O1 4523   8.766   5.600   9.353  0.2112 -0.1945 -0.5443
  157bbb     N1 4524   7.715   3.691  10.956 -0.4150  0.0934  0.1698
  157bbb     C1 4525   7.753   3.543  10.946 -0.3619 -0.4211 -0.1925
  157bbb     H1 4526   7.753   3.509  10.842  1.0919  0.3986 -0.4764
  157bbb     H2 4527   7.677   3.484  10.998 -1.4018  1.0854  0.0827
  157bbb     C2 4528   7.574   3.714  10.910 -0.3232  0.9102  0.6773
  157bbb     H3 4529   7.524   3.623  10.876 -2.6451  1.9851  1.0159
  157bbb     H4 4530   7.574   3.779  10.822 -0.3932 -1.3786 -1.0831
  157bbb     C3 4531   7.817   3.788  10.914 -0.1022 -0.6875  0.3824
  157bbb     H5 4532   7.912   3.780  10.969  0.8556  1.5152 -0.8076
  157bbb     H6 4533   7.783   3.889  10.941  0.5819 -0.9710  2.4801
  157bbb     C4 4534   7.855   3.779  10.763 -0.1997  0.6658  0.3117
  157bbb     H7 4535   7.767   3.776  10.699 -0.5040 -0.7844  0.7715
  157bbb     H8 4536   7.923   3.695  10.743 -0.7609  0.3997 -0.4935
  157bbb     C5 4537   7.888   3.509  11.010 -0.1738 -0.2446  0.5269
  157bbb     H9 4538   7.896   3.550  11.111 -0.6266 -0.4281  0.6443
  157bbb    H10 4539   7.964   3.555  10.945 -0.3796  0.3363  0.6946
  157bbb     C6 4540   7.482   3.774  11.022  0.3785  0.3364  0.4997
  157bbb    H11 4541   7.485   3.707  11.109  0.1775  1.1869  1.1862
  157bbb    H12 4542   7.383   3.769  10.975  1.6549  0.7865 -2.4694
  157bbb     C7 4543   7.920   3.913  10.729 -0.4302 -0.2828  0.2824
  157bbb    H13 4544   7.853   3.988  10.773 -0.1513  0.2659 -0.2272
  157bbb    H14 4545   7.933   3.926  10.621 -0.1634  1.6806  0.5163
  157bbb     C8 4546   7.506   3.924  11.064 -0.1584  0.5438 -0.1045
  157bbb    H15 4547   7.611   3.930  11.097 -0.8463 -0.3702  2.4880
  157bbb    H16 4548   7.446   3.947  11.153 -1.1700 -0.0528 -0.6182
  157bbb     C9 4549   7.902   3.358  11.033  0.4049  0.2107  0.6498
  157bbb    H17 4550   7.897   3.310  10.934  1.0199  0.9810  0.2383
  157bbb    H18 4551   7.818   3.321  11.093 -0.5411  1.2131 -0.0273
  157bbb     O1 4552   8.042   3.928  10.797 -0.1450 -0.3960  0.1063
  158bbb     N1 4553   9.205   4.140  10.324 -0.4946  0.0549 -0.7461
  158bbb     C1 4554   9.281   4.123  10.450  0.0019 -0.4585  0.1169
  158bbb     H1 4555   9.231   4.046  10.510 -1.7098  0.5890  0.0804
  158bbb     H2 4556   9.294   4.218  10.502  0.1359  0.0605 -0.8344
  158bbb     C2 4557   9.197   4.023  10.234 -0.3255 -0.1763 -0.2156
  158bbb     H3 4558   9.297   3.989  10.201 -0.4908 -0.5667 -0.3165
  158bbb     H4 4559   9.152   4.062  10.141  0.0808  0.6331 -0.0817
  158bbb     C3 4560   9.085   4.219  10.365 -0.6982 -0.0192 -0.3970
  158bbb     H5 4561   9.124   4.309  10.415  1.3535 -1.1403  0.1578
  158bbb     H6 4562   9.032   4.169  10.448 -3.1444  0.9285 -1.2953
  158bbb     C4 4563   8.987   4.251  10.256 -0.0142 -0.7159 -0.1061
  158bbb     H7 4564   8.972   4.170  10.184  0.3659 -3.0907  2.3289
  158bbb     H8 4565   9.024   4.338  10.200 -0.3399 -0.3113  0.2943
  158bbb     C5 4566   9.420   4.060  10.428  0.7047 -1.4514  0.1549
  158bbb     H9 4567   9.472   4.132  10.364  1.9240 -0.2194  2.4003
  158bbb    H10 4568   9.417   3.967  10.371  0.3379  0.0585 -2.4770
  158bbb     C6 4569   9.127   3.898  10.282  0.2070 -0.1484 -0.0575
  158bbb    H11 4570   9.027   3.931  10.313  1.6879  1.8563  3.3031
  158bbb    H12 4571   9.169   3.859  10.376  0.8564  0.0151 -0.2712
  158bbb     C7 4572   8.844   4.283  10.306 -0.1782 -0.4064 -0.1473
  158bbb    H13 4573   8.797   4.353  10.235  1.0354 -0.3643 -0.9342
  158bbb    H14 4574   8.859   4.329  10.404  0.3803 -1.5645  0.3173
  158bbb     C8 4575   9.117   3.781  10.185 -0.1118 -0.3178 -0.2075
  158bbb    H15 4576   9.070   3.816  10.092 -0.9943  2.7043  1.2313
  158bbb    H16 4577   9.063   3.702  10.237  0.4079 -1.1692 -0.9415
  158bbb     C9 4578   9.494   4.042  10.566 -0.4323 -0.0856 -0.5708
  158bbb    H17 4579   9.502   4.144  10.608 -1.5898  0.2656 -1.1435
  158bbb    H18 4580   9.598   4.012  10.551 -0.4044 -0.3130  0.0849
  158bbb     O1 4581   8.767   4.164  10.322 -0.4414  0.8754  0.0883
  159bbb     N1 4582   6.895   2.337   5.900 -0.6210  0.7521 -0.0828
  159bbb     C1 4583   6.987   2.278   5.803 -0.3391  0.1871 -0.1725
  159bbb     H1 4584   6.924   2.205   5.753 -3.7621  0.5457  3.1603
  159bbb     H2 4585   7.076   2.230   5.848  0.3573  0.6560 -1.0237
  159bbb     C2 4586   6.839   2.244   5.998 -1.0166  1.0240  0.1412
  159bbb     H3 4587   6.761   2.293   6.057 -2.4518 -0.3595 -0.5476
  159bbb     H4 4588   6.920   2.217   6.067 -0.4058  1.1720 -0.5072
  159bbb     C3 4589   6.957   2.453   5.973  0.0420 -0.7292  0.3990
  159bbb     H5 4590   6.966   2.543   5.911  0.3329  1.6076  3.5278
  159bbb     H6 4591   7.056   2.441   6.021 -0.5277 -1.6040  1.4018
  159bbb     C4 4592   6.865   2.521   6.085 -0.3311 -0.0296  0.1563
  159bbb     H7 4593   6.918   2.606   6.130  0.7510  0.7223 -2.3727
  159bbb     H8 4594   6.845   2.463   6.177 -0.3841  1.4005  1.0821
  159bbb     C5 4595   7.050   2.376   5.702 -0.0914  0.6010  0.4399
  159bbb     H9 4596   7.119   2.439   5.761 -0.2449 -0.4391  1.7742
  159bbb    H10 4597   6.979   2.448   5.660 -0.4614 -0.7651 -1.3814
  159bbb     C6 4598   6.777   2.114   5.948 -0.2063 -0.4025 -0.3251
  159bbb    H11 4599   6.837   2.056   5.878 -0.1033 -0.6516 -0.0328
  159bbb    H12 4600   6.693   2.150   5.889 -0.3431  3.2003  1.7586
  159bbb     C7 4601   6.736   2.582   6.030  0.0404  0.1390  0.3765
  159bbb    H13 4602   6.700   2.648   6.110 -2.2733  0.2471 -0.6803
  159bbb    H14 4603   6.655   2.511   6.010  1.0975 -0.7563 -0.9122
  159bbb     C8 4604   6.727   2.024   6.061  0.0171  0.3013 -0.6429
  159bbb    H15 4605   6.690   1.927   6.026  0.1466  0.2146 -0.5354
  159bbb    H16 4606   6.645   2.073   6.115 -0.0407  0.0916 -0.5415
  159bbb     C9 4607   7.126   2.299   5.587 -0.4746  0.1341 -0.6428
  159bbb    H17 4608   7.198   2.236   5.641 -1.3893 -0.2637  0.1448
  159bbb    H18 4609   7.165   2.373   5.516 -1.5352 -0.0253 -1.4173
  159bbb     O1 4610   6.773   2.662   5.914 -0.1697 -0.5567 -0.2356
  160bbb     N1 4611   7.107   2.686   4.649  0.2565 -0.4903  0.3310
  160bbb     C1 4612   7.004   2.690   4.551  0.0027 -0.4488  0.4936
  160bbb     H1 4613   6.921   2.750   4.590  0.1651 -0.4306  0.8134
  160bbb     H2 4614   6.982   2.588   4.517  0.9480 -1.0872  1.7055
  160bbb     C2 4615   7.239   2.634   4.604 -0.4523  0.7343  0.1704
  160bbb     H3 4616   7.265   2.672   4.504  0.3351 -3.4901 -1.4596
  160bbb     H4 4617   7.233   2.525   4.592  1.6779  0.7933 -2.3946
  160bbb     C3 4618   7.054   2.633   4.770  0.8240  0.2370 -0.6474
  160bbb     H5 4619   7.123   2.562   4.818  1.3393  1.3744  0.3372
  160bbb     H6 4620   6.961   2.580   4.746  2.1019 -1.6103 -1.7663
  160bbb     C4 4621   7.028   2.744   4.866  0.3015  0.3335 -0.3278
  160bbb     H7 4622   6.962   2.817   4.818  1.4637  0.4052 -1.8975
  160bbb     H8 4623   7.115   2.809   4.880 -0.5797  1.5262 -0.2520
  160bbb     C5 4624   7.046   2.761   4.423  0.1078 -0.0196  0.7274
  160bbb     H9 4625   6.966   2.746   4.348  2.4807 -1.3819 -1.7071
  160bbb    H10 4626   7.124   2.704   4.371 -2.5327 -3.5573  0.2633
  160bbb     C6 4627   7.359   2.664   4.700  0.1110  1.0201 -0.3184
  160bbb    H11 4628   7.439   2.597   4.666  0.2493  0.6629  0.6954
  160bbb    H12 4629   7.335   2.627   4.800  2.4940  0.0311 -0.0445
  160bbb     C7 4630   6.961   2.697   5.000  0.1008  0.0217 -0.4084
  160bbb    H13 4631   6.883   2.622   4.981  0.7725 -0.2397 -2.4371
  160bbb    H14 4632   6.915   2.786   5.045  2.5038  1.3090 -0.3726
  160bbb     C8 4633   7.412   2.809   4.700 -0.2497  0.1958  0.3405
  160bbb    H15 4634   7.335   2.869   4.650 -0.3991  0.4944  0.9227
  160bbb    H16 4635   7.494   2.822   4.628  0.1798 -0.8018  0.6240
  160bbb     C9 4636   7.078   2.917   4.437  0.0278  0.1590 -0.1571
  160bbb    H17 4637   7.130   2.929   4.533  0.6317 -1.2174 -0.2752
  160bbb    H18 4638   6.984   2.970   4.453  0.3468  0.6014  0.2817
  160bbb     O1 4639   7.068   2.647   5.086 -0.0158 -0.3322 -0.5922
  161bbb     N1 4640   6.313   3.310   6.790  0.6030  0.7236 -0.7427
  161bbb     C1 4641   6.169   3.313   6.840  0.3549  0.6400  0.1216
  161bbb     H1 4642   6.095   3.345   6.766 -0.6867  0.0408  0.8797
  161bbb     H2 4643   6.160   3.372   6.932 -2.3952  0.1249  0.2650
  161bbb     C2 4644   6.416   3.245   6.870 -0.1894  0.3088 -0.0048
  161bbb     H3 4645   6.511   3.259   6.817 -0.1670  0.9831  0.2065
  161bbb     H4 4646   6.398   3.137   6.879  0.3938  0.2271  0.2003
  161bbb     C3 4647   6.354   3.438   6.733 -0.1493 -0.2108  0.3317
  161bbb     H5 4648   6.445   3.421   6.674 -2.0743 -3.7379 -2.0271
  161bbb     H6 4649   6.394   3.504   6.810  1.3873  0.9067 -1.3434
  161bbb     C4 4650   6.253   3.516   6.642  0.3513 -0.2492 -0.5271
  161bbb     H7 4651   6.158   3.529   6.694  0.3546 -1.2937 -0.2282
  161bbb     H8 4652   6.225   3.445   6.564  2.2724 -1.8723  0.1435
  161bbb     C5 4653   6.123   3.171   6.871 -0.8120 -0.4317  0.1658
  161bbb     H9 4654   6.180   3.141   6.959  1.8318  0.5243 -1.1009
  161bbb    H10 4655   6.151   3.097   6.795  1.3901  1.9703 -1.5231
  161bbb     C6 4656   6.423   3.310   7.005  0.9489 -0.5488  0.0569
  161bbb    H11 4657   6.325   3.324   7.052  1.1600 -1.5151  0.8334
  161bbb    H12 4658   6.463   3.410   6.986  2.0475 -0.7804  1.0055
  161bbb     C7 4659   6.312   3.646   6.577 -0.3458  0.0856  0.3182
  161bbb    H13 4660   6.334   3.721   6.655 -1.5533 -0.3817  1.1309
  161bbb    H14 4661   6.230   3.681   6.514  0.9315 -0.6946 -1.8860
  161bbb     C8 4662   6.500   3.236   7.110  0.2205  0.4747  0.2001
  161bbb    H15 4663   6.544   3.309   7.180  0.9620  0.2266  0.0087
  161bbb    H16 4664   6.439   3.156   7.153 -0.1507  0.2549 -0.7371
  161bbb     C9 4665   5.969   3.174   6.895  0.2049  0.6770  0.5654
  161bbb    H17 4666   5.937   3.069   6.905  0.5635  0.2237 -2.0857
  161bbb    H18 4667   5.913   3.219   6.812  0.8274  1.1054  0.3697
  161bbb     O1 4668   6.429   3.608   6.496 -0.2785 -0.1317 -0.1191
  162bbb     N1 4669   6.932   4.260   5.814  0.5346  0.4800  0.3062
  162bbb     C1 4670   6.895   4.371   5.916  0.0076  0.0982  0.5568
  162bbb     H1 4671   6.791   4.403   5.902  0.2056  1.0080  1.0679
  162bbb     H2 4672   6.952   4.463   5.894  1.2424 -0.8616 -0.4215
  162bbb     C2 4673   7.080   4.266   5.786  0.0985  0.1695  0.1953
  162bbb     H3 4674   7.106   4.170   5.740 -2.5234 -3.4707  5.2714
  162bbb     H4 4675   7.131   4.270   5.883 -0.9177  3.1147  0.7088
  162bbb     C3 4676   6.890   4.122   5.854 -0.0998  0.2820  0.0284
  162bbb     H5 4677   6.897   4.100   5.961  0.1629 -1.8121 -0.3618
  162bbb     H6 4678   6.956   4.042   5.816 -0.3630 -1.2241  2.5214
  162bbb     C4 4679   6.739   4.095   5.813  0.5041  0.2782  0.1302
  162bbb     H7 4680   6.750   4.072   5.707  1.8047 -1.7353  0.6465
  162bbb     H8 4681   6.674   4.184   5.812  0.9141  0.6500  1.9819
  162bbb     C5 4682   6.934   4.357   6.065  0.6720  0.2131  0.5499
  162bbb     H9 4683   6.973   4.448   6.112  0.7861 -0.3830  1.6406
  162bbb    H10 4684   7.021   4.290   6.068 -0.3405 -1.1870  0.0214
  162bbb     C6 4685   7.140   4.392   5.707 -0.5211  0.2170 -0.1536
  162bbb    H11 4686   7.126   4.483   5.766 -0.1979 -1.0566  1.9873
  162bbb    H12 4687   7.102   4.407   5.605 -0.3301  0.0010 -0.2590
  162bbb     C7 4688   6.680   3.963   5.872 -0.7109  0.2387 -0.5650
  162bbb    H13 4689   6.586   3.939   5.821 -0.9313  2.2957 -1.2449
  162bbb    H14 4690   6.645   3.970   5.975 -2.0870 -1.6260 -0.8566
  162bbb     C8 4691   7.294   4.384   5.689 -0.1543 -0.7960 -0.3918
  162bbb    H15 4692   7.330   4.466   5.627  1.9062  0.3751  2.1471
  162bbb    H16 4693   7.316   4.287   5.642  1.8939 -0.1228 -0.9367
  162bbb     C9 4694   6.829   4.284   6.158  0.2166  0.2102  0.4585
  162bbb    H17 4695   6.833   4.318   6.262  0.1605  0.9150  0.2339
  162bbb    H18 4696   6.858   4.178   6.153  1.0078  0.4251  0.4692
  162bbb     O1 4697   6.773   3.855   5.849  0.4241 -0.4145 -0.0024
  163bbb     N1 4698   8.849   2.046   7.113 -0.2879 -0.1491 -0.1342
  163bbb     C1 4699   8.978   1.995   7.072  0.1122 -0.1069  0.1833
  163bbb     H1 4700   9.025   2.066   7.003 -0.9522  0.1571 -0.2819
  163bbb     H2 4701   8.970   1.896   7.025  2.5850 -0.0207 -0.5532
  163bbb     C2 4702   8.846   2.189   7.158  0.3956  0.2773  0.2954
  163bbb     H3 4703   8.880   2.249   7.072  0.6358  0.3436  0.4329
  163bbb     H4 4704   8.914   2.198   7.244  1.5019  3.7138 -0.7795
  163bbb     C3 4705   8.750   2.013   7.011  0.0969  0.1842 -0.2515
  163bbb     H5 4706   8.652   2.043   7.052 -0.2821 -0.2265 -0.8340
  163bbb     H6 4707   8.752   1.903   7.003 -1.3071  0.1745 -0.7517
  163bbb     C4 4708   8.767   2.068   6.870  0.4829 -0.0044  0.0352
  163bbb     H7 4709   8.866   2.035   6.837  0.2173  0.9247 -1.8506
  163bbb     H8 4710   8.760   2.178   6.874  0.2610 -0.0488  1.4311
  163bbb     C5 4711   9.066   1.980   7.204  0.1356 -0.4006 -0.2200
  163bbb     H9 4712   9.021   1.909   7.275  1.4478 -0.0351  1.0140
  163bbb    H10 4713   9.079   2.075   7.257 -0.1298  0.1886 -1.1866
  163bbb     C6 4714   8.716   2.256   7.203  0.0310 -0.1855  0.3801
  163bbb    H11 4715   8.647   2.256   7.118  1.9134 -1.1268 -1.2307
  163bbb    H12 4716   8.732   2.357   7.243  0.3862  0.0881 -0.4367
  163bbb     C7 4717   8.648   2.024   6.782 -0.0864 -0.1823 -0.4780
  163bbb    H13 4718   8.641   2.085   6.691  0.0393  1.1750  0.3874
  163bbb    H14 4719   8.560   2.061   6.836 -0.5869  0.5857 -1.7594
  163bbb     C8 4720   8.635   2.173   7.314 -0.2052 -0.1296  0.1529
  163bbb    H15 4721   8.651   2.068   7.287  0.6743 -0.2790  1.1880
  163bbb    H16 4722   8.529   2.202   7.315 -0.6033 -1.5379  1.2074
  163bbb     C9 4723   9.202   1.924   7.159  0.1456 -0.5325 -0.4595
  163bbb    H17 4724   9.266   2.007   7.126  0.5908 -1.1749 -1.2520
  163bbb    H18 4725   9.189   1.859   7.072  0.1776  1.8693 -2.3608
  163bbb     O1 4726   8.653   1.883   6.762  0.3505  0.1624  0.3835
  164bbb     N1 4727   8.042   1.179   6.184 -0.1718 -0.0786  0.7889
  164bbb     C1 4728   8.030   1.112   6.054 -0.8226  0.2222  0.2509
  164bbb     H1 4729   7.988   1.011   6.061  2.6252 -1.3966 -0.4351
  164bbb     H2 4730   8.124   1.082   6.007 -0.5892  1.0500  0.1787
  164bbb     C2 4731   8.151   1.116   6.267  0.1195 -0.2769 -0.4454
  164bbb     H3 4732   8.142   1.170   6.362 -1.5596 -0.1415 -0.6632
  164bbb     H4 4733   8.251   1.145   6.233  1.0357 -2.2640  0.3693
  164bbb     C3 4734   7.917   1.199   6.255  0.1072 -0.3078 -0.1210
  164bbb     H5 4735   7.872   1.105   6.288  0.4150 -0.4668 -0.1512
  164bbb     H6 4736   7.836   1.232   6.188  0.0397  0.8790  0.5159
  164bbb     C4 4737   7.927   1.306   6.374  0.3120  0.4072 -0.1969
  164bbb     H7 4738   7.975   1.260   6.461 -0.9818  0.1857  0.4287
  164bbb     H8 4739   7.824   1.332   6.402 -0.5124 -1.9336 -0.8797
  164bbb     C5 4740   7.968   1.208   5.948 -0.7834  0.7146  0.5531
  164bbb     H9 4741   7.864   1.234   5.970 -1.6824 -0.5832 -1.7538
  164bbb    H10 4742   7.969   1.160   5.849 -2.2296 -0.3403  1.0075
  164bbb     C6 4743   8.146   0.968   6.304  0.6982 -0.1831  0.0489
  164bbb    H11 4744   8.148   0.910   6.211 -0.5731 -1.5754  0.8413
  164bbb    H12 4745   8.049   0.946   6.350  0.6860 -2.3575 -0.8689
  164bbb     C7 4746   8.004   1.433   6.325  0.4474  0.0521 -0.3834
  164bbb    H13 4747   7.961   1.519   6.377 -2.2297 -2.6871  2.4535
  164bbb    H14 4748   7.984   1.448   6.219  0.9152 -2.0700 -0.8301
  164bbb     C8 4749   8.267   0.915   6.384 -0.2972  0.8702 -0.2223
  164bbb    H15 4750   8.360   0.940   6.332  0.1873  0.5326  0.4575
  164bbb    H16 4751   8.266   0.806   6.376 -0.6666  0.9239 -0.8984
  164bbb     C9 4752   8.042   1.339   5.938 -0.6082  0.2024  0.4839
  164bbb    H17 4753   8.014   1.405   6.021  1.3146 -0.6809  1.9348
  164bbb    H18 4754   8.004   1.402   5.857 -1.6662  1.9363  2.2498
  164bbb     O1 4755   8.144   1.437   6.357 -0.7558  0.7241 -0.5946
  165bbb     N1 4756   7.035   1.541   7.441 -0.4558  0.6881  0.2877
  165bbb     C1 4757   7.105   1.615   7.552  0.0163  0.0727  0.9568
  165bbb     H1 4758   7.155   1.700   7.503 -1.6987  0.8149  0.4504
  165bbb     H2 4759   7.191   1.560   7.592  0.3320  0.0522  0.2730
  165bbb     C2 4760   6.973   1.414   7.487  0.4174 -0.1056  0.6350
  165bbb     H3 4761   6.934   1.363   7.399 -0.7309  0.3074  0.8885
  165bbb     H4 4762   6.885   1.438   7.547  2.2499  2.9761  2.4058
  165bbb     C3 4763   7.113   1.522   7.312 -0.5687 -0.5300  0.6473
  165bbb     H5 4764   7.210   1.471   7.317  0.9534  2.0445 -0.2190
  165bbb     H6 4765   7.143   1.622   7.277  1.0762 -0.8517  1.0777
  165bbb     C4 4766   7.038   1.443   7.198 -0.5833  0.7381  0.0107
  165bbb     H7 4767   6.932   1.472   7.195 -1.6184 -2.6396 -1.1452
  165bbb     H8 4768   7.040   1.334   7.208 -0.3519  0.5565 -1.6941
  165bbb     C5 4769   7.011   1.670   7.665 -0.4061  0.4167 -0.1433
  165bbb     H9 4770   6.958   1.591   7.719  1.8888 -1.5075 -0.5343
  165bbb    H10 4771   6.945   1.735   7.606 -0.9236 -0.4277 -0.5088
  165bbb     C6 4772   7.067   1.325   7.566  0.1404  0.2046  0.2379
  165bbb    H11 4773   7.101   1.367   7.661  1.2803 -0.2195  0.0419
  165bbb    H12 4774   7.161   1.321   7.509  0.6032  3.4613  0.6063
  165bbb     C7 4775   7.101   1.469   7.061  0.0967 -0.5064 -0.0303
  165bbb    H13 4776   7.105   1.575   7.033  0.7559 -0.2662  0.9177
  165bbb    H14 4777   7.041   1.421   6.983 -1.2022  3.7662 -1.9743
  165bbb     C8 4778   7.024   1.175   7.590 -0.6316  0.1423 -0.4808
  165bbb    H15 4779   7.010   1.114   7.500  1.8105 -3.3521  1.3126
  165bbb    H16 4780   6.926   1.176   7.640 -0.3422 -0.8875  0.1220
  165bbb     C9 4781   7.084   1.752   7.771 -0.0523 -0.2521  0.3363
  165bbb    H17 4782   7.187   1.715   7.784 -0.6564 -1.6869  1.2513
  165bbb    H18 4783   7.042   1.754   7.872  1.0656 -1.0888  0.8458
  165bbb     O1 4784   7.236   1.416   7.056  0.3776 -0.1348 -0.2077
  166bbb     N1 4785   7.639   1.741   6.362  0.4661 -0.0630  0.5382
  166bbb     C1 4786   7.662   1.808   6.222 -0.0931  0.2723 -0.8360
  166bbb     H1 4787   7.656   1.917   6.228 -0.1549  0.2569 -0.6047
  166bbb     H2 4788   7.580   1.787   6.153 -0.4644 -0.2534 -0.2497
  166bbb     C2 4789   7.526   1.801   6.445 -0.3077 -0.2707 -0.4095
  166bbb     H3 4790   7.429   1.774   6.403 -0.5387 -0.0013 -0.0590
  166bbb     H4 4791   7.525   1.911   6.443 -1.3311 -0.2190  1.2722
  166bbb     C3 4792   7.656   1.598   6.367  0.4946 -0.4315 -0.7545
  166bbb     H5 4793   7.663   1.557   6.469 -1.5663 -1.1648 -0.8747
  166bbb     H6 4794   7.748   1.580   6.310  1.0123  0.0061 -0.0738
  166bbb     C4 4795   7.538   1.526   6.305  0.0076  0.0728  0.2189
  166bbb     H7 4796   7.498   1.574   6.215 -0.6274  4.9128  2.7678
  166bbb     H8 4797   7.440   1.540   6.353 -0.7907 -1.4303 -0.8918
  166bbb     C5 4798   7.796   1.772   6.155  0.2468 -0.1315 -0.0140
  166bbb     H9 4799   7.871   1.758   6.234 -0.4776 -4.0248  0.1971
  166bbb    H10 4800   7.815   1.863   6.097 -2.4984 -0.2738 -1.3183
  166bbb     C6 4801   7.524   1.763   6.597 -0.4918  0.4399  0.2797
  166bbb    H11 4802   7.627   1.767   6.632 -0.5499 -0.8438  0.6404
  166bbb    H12 4803   7.497   1.657   6.602  1.4501 -0.0725  0.6345
  166bbb     C7 4804   7.565   1.377   6.286 -0.0597 -0.3310 -0.1218
  166bbb    H13 4805   7.664   1.365   6.240 -0.8721  0.0035 -2.0672
  166bbb    H14 4806   7.502   1.324   6.214 -1.2926  1.4548 -0.4439
  166bbb     C8 4807   7.426   1.853   6.683  0.4787  0.5059 -1.0367
  166bbb    H15 4808   7.449   1.957   6.657  0.5205  0.3989 -1.4318
  166bbb    H16 4809   7.430   1.838   6.792 -0.8277 -2.4253 -1.2932
  166bbb     C9 4810   7.793   1.657   6.047  0.0133  0.2041  0.2735
  166bbb    H17 4811   7.770   1.559   6.091  0.0576 -0.1753 -0.5220
  166bbb    H18 4812   7.886   1.648   5.989  0.1256 -0.1406  0.5056
  166bbb     O1 4813   7.546   1.323   6.413 -0.4766  0.3021 -0.0942
  167bbb     N1 4814   9.105   4.382   5.127  0.1977  0.7982  0.0516
  167bbb     C1 4815   9.164   4.336   5.000  0.0494 -0.0680  0.1953
  167bbb     H1 4816   9.181   4.228   5.010 -4.3032 -0.8400  1.0065
  167bbb     H2 4817   9.262   4.385   4.988  1.1632 -1.8612  1.4781
  167bbb     C2 4818   8.974   4.328   5.166 -0.4037 -0.1463 -0.1935
  167bbb     H3 4819   8.897   4.329   5.088 -0.4500 -1.3002 -0.1903
  167bbb     H4 4820   8.933   4.388   5.248 -0.1688 -0.9759  0.5442
  167bbb     C3 4821   9.202   4.397   5.238  0.1595  0.2184  0.3431
  167bbb     H5 4822   9.284   4.460   5.200 -0.0459 -1.0814 -2.4952
  167bbb     H6 4823   9.238   4.298   5.266  0.8488  0.3884  0.0864
  167bbb     C4 4824   9.147   4.452   5.369 -0.5313  0.7000 -0.3278
  167bbb     H7 4825   9.077   4.374   5.402 -0.8158  1.5033  1.0811
  167bbb     H8 4826   9.089   4.543   5.350  2.3258  2.6128 -0.6452
  167bbb     C5 4827   9.074   4.341   4.880 -0.4205  0.9644 -0.8492
  167bbb     H9 4828   9.012   4.431   4.890  0.7955  2.0008 -2.2178
  167bbb    H10 4829   9.002   4.260   4.891 -0.1689  0.9627  1.4111
  167bbb     C6 4830   8.979   4.180   5.208 -0.3085  0.4229  0.2894
  167bbb    H11 4831   9.061   4.148   5.273 -0.0692 -1.6180 -0.9182
  167bbb    H12 4832   8.998   4.118   5.120  0.0547 -1.4430  1.6202
  167bbb     C7 4833   9.251   4.468   5.480 -0.9510  0.4733 -0.3027
  167bbb    H13 4834   9.307   4.559   5.458 -0.1679  0.1803  0.4270
  167bbb    H14 4835   9.319   4.382   5.471 -0.2718  0.9091  0.5168
  167bbb     C8 4836   8.846   4.142   5.269  0.2373  0.2485 -0.1850
  167bbb    H15 4837   8.851   4.204   5.359  0.6509 -1.7265  1.2265
  167bbb    H16 4838   8.843   4.038   5.304 -0.2395 -0.0795 -1.1596
  167bbb     C9 4839   9.159   4.342   4.750  0.3649  0.5723 -0.1031
  167bbb    H17 4840   9.265   4.357   4.772  1.1039 -0.6937 -2.4398
  167bbb    H18 4841   9.112   4.426   4.697  0.4073  0.7522  0.1409
  167bbb     O1 4842   9.184   4.466   5.607 -0.3568 -0.1992 -0.2722
  168bbb     N1 4843   9.616   5.323   6.272 -0.0790 -0.7097  0.3401
  168bbb     C1 4844   9.659   5.392   6.147  0.4242  0.6324  0.4148
  168bbb     H1 4845   9.585   5.374   6.068  1.4816  0.0935 -0.4944
  168bbb     H2 4846   9.761   5.366   6.117  1.4328  3.3116  1.2325
  168bbb     C2 4847   9.708   5.349   6.388 -0.4117 -0.8768 -0.0721
  168bbb     H3 4848   9.726   5.457   6.398 -1.7141 -0.7524  1.1086
  168bbb     H4 4849   9.803   5.296   6.375 -0.6636 -1.8108  1.6688
  168bbb     C3 4850   9.583   5.177   6.252 -0.4872  0.0723 -0.7159
  168bbb     H5 4851   9.588   5.126   6.349 -0.6579 -0.9532 -1.2355
  168bbb     H6 4852   9.660   5.126   6.194 -0.6805 -1.5146  0.3782
  168bbb     C4 4853   9.452   5.145   6.188  0.2224  1.5382  0.0033
  168bbb     H7 4854   9.447   5.186   6.086  0.7277  1.4737 -0.0466
  168bbb     H8 4855   9.383   5.202   6.252  1.8719  1.0015  2.3824
  168bbb     C5 4856   9.654   5.544   6.165 -0.5765 -0.5881  0.3004
  168bbb     H9 4857   9.728   5.574   6.240 -1.2385  0.2191  0.6510
  168bbb    H10 4858   9.558   5.580   6.205  0.3444  2.7509 -0.1897
  168bbb     C6 4859   9.653   5.299   6.528 -0.0296 -0.5210 -0.2432
  168bbb    H11 4860   9.703   5.355   6.609 -0.0608 -1.6743  0.5982
  168bbb    H12 4861   9.666   5.192   6.550  1.1585  0.1587  3.0117
  168bbb     C7 4862   9.426   4.992   6.199 -0.2248  0.0781 -0.1399
  168bbb    H13 4863   9.396   4.965   6.301 -2.4279 -3.2210 -1.5179
  168bbb    H14 4864   9.505   4.930   6.154  0.2529  0.4018  0.2409
  168bbb     C8 4865   9.500   5.321   6.553 -0.1843 -0.7390 -0.6989
  168bbb    H15 4866   9.481   5.322   6.661  2.5905 -0.4391 -0.1399
  168bbb    H16 4867   9.451   5.243   6.494  0.5341 -0.1276 -2.1680
  168bbb     C9 4868   9.699   5.622   6.034  0.1974  0.0415 -0.1215
  168bbb    H17 4869   9.782   5.574   5.980 -0.2195 -1.0842  0.2062
  168bbb    H18 4870   9.734   5.714   6.082 -2.9427  0.5170  1.4832
  168bbb     O1 4871   9.304   4.953   6.133  0.1653 -0.0290 -0.1488
  169bbb     N1 4872   7.984   3.858   5.277 -0.1106 -0.0683 -0.1149
  169bbb     C1 4873   7.900   3.941   5.195 -0.0777  0.3130  0.5522
  169bbb     H1 4874   7.792   3.936   5.209 -0.4330  1.5086 -1.3330
  169bbb     H2 4875   7.915   3.919   5.088  0.7582 -1.1824  0.9462
  169bbb     C2 4876   7.980   3.712   5.248  0.3320  0.1938 -0.4673
  169bbb     H3 4877   7.879   3.672   5.245  0.5473 -0.4801  0.6472
  169bbb     H4 4878   8.033   3.666   5.333  2.6317  0.0353 -1.9112
  169bbb     C3 4879   7.959   3.893   5.419 -0.4473  0.0090 -0.5263
  169bbb     H5 4880   7.859   3.853   5.439 -1.4839  2.1814 -1.1174
  169bbb     H6 4881   7.958   4.000   5.442  1.1778  1.1473 -4.8987
  169bbb     C4 4882   8.065   3.839   5.522 -0.0804 -0.1599 -0.4676
  169bbb     H7 4883   8.050   3.730   5.528 -0.7758  0.0088  1.3120
  169bbb     H8 4884   8.044   3.876   5.623  1.9078 -0.3911  0.0854
  169bbb     C5 4885   7.928   4.095   5.192  0.0646  0.0845 -0.6181
  169bbb     H9 4886   7.910   4.144   5.288 -2.1140 -0.7310 -0.5495
  169bbb    H10 4887   7.858   4.141   5.120  1.6432  0.9404 -1.6675
  169bbb     C6 4888   8.050   3.671   5.120 -0.4436 -0.5010 -0.6194
  169bbb    H11 4889   7.994   3.699   5.029  0.3596 -0.0731 -0.9955
  169bbb    H12 4890   8.050   3.561   5.118 -1.0708 -0.5074 -2.5067
  169bbb     C7 4891   8.209   3.865   5.490 -0.4973 -0.4176 -0.0367
  169bbb    H13 4892   8.235   3.846   5.385  0.5369  4.6950 -0.9789
  169bbb    H14 4893   8.268   3.796   5.551  1.9334  2.2949  0.9172
  169bbb     C8 4894   8.197   3.725   5.106  0.4954 -0.1713 -0.4193
  169bbb    H15 4895   8.253   3.716   5.200 -0.1204  1.7740  0.1805
  169bbb    H16 4896   8.188   3.833   5.087  0.0136  0.1100  1.2942
  169bbb     C9 4897   8.067   4.128   5.148 -0.3598 -0.1562  0.8665
  169bbb    H17 4898   8.148   4.077   5.201 -0.3236  1.6467  2.6862
  169bbb    H18 4899   8.092   4.234   5.162 -0.6434  0.1882 -0.9475
  169bbb     O1 4900   8.250   4.007   5.514  0.3401 -0.0178  0.7590
  170bbb     N1 4901   7.564   4.508   5.133  0.0988  0.3592  0.4606
  170bbb     C1 4902   7.613   4.490   4.991 -0.4835 -0.3751 -0.0354
  170bbb     H1 4903   7.696   4.560   4.981 -0.4213  0.2687  3.7979
  170bbb     H2 4904   7.533   4.514   4.920 -1.5132 -1.9487  0.5340
  170bbb     C2 4905   7.519   4.643   5.173 -0.4274  0.0153 -0.1300
  170bbb     H3 4906   7.608   4.702   5.149  1.7880 -2.5553  1.2209
  170bbb     H4 4907   7.505   4.644   5.282  1.5732  1.3096  0.1600
  170bbb     C3 4908   7.656   4.447   5.236  0.1542 -0.2145  0.0236
  170bbb     H5 4909   7.679   4.342   5.212  1.1484 -0.4004  1.6599
  170bbb     H6 4910   7.607   4.440   5.333  1.5279 -0.5633  0.7186
  170bbb     C4 4911   7.787   4.526   5.276  0.1513 -0.0228 -0.0119
  170bbb     H7 4912   7.845   4.459   5.340  1.8881  0.5357 -0.9652
  170bbb     H8 4913   7.770   4.610   5.345 -0.6083  0.5800 -0.9047
  170bbb     C5 4914   7.660   4.345   4.949  0.1382 -1.0197 -0.4998
  170bbb     H9 4915   7.577   4.277   4.970 -0.9710 -0.5181 -2.9160
  170bbb    H10 4916   7.747   4.313   5.009 -1.6455  0.4136  3.1876
  170bbb     C6 4917   7.401   4.691   5.101 -0.1245 -0.5152  0.3015
  170bbb    H11 4918   7.317   4.638   5.148 -0.7592 -1.8393 -2.1375
  170bbb    H12 4919   7.417   4.669   4.995 -1.1351 -2.1029  0.4442
  170bbb     C7 4920   7.889   4.559   5.162 -0.1862  0.3603 -0.0215
  170bbb    H13 4921   7.849   4.657   5.130  0.0949  0.3936 -0.2795
  170bbb    H14 4922   7.885   4.490   5.077  1.6400  0.9819 -0.6721
  170bbb     C8 4923   7.368   4.841   5.123  0.6840 -0.5320 -0.3689
  170bbb    H15 4924   7.440   4.908   5.074  2.1370  0.4673  2.8828
  170bbb    H16 4925   7.379   4.856   5.231  3.3759 -0.4828 -0.5705
  170bbb     C9 4926   7.687   4.337   4.793 -0.1212  0.0732 -0.0086
  170bbb    H17 4927   7.599   4.357   4.730  1.2979 -0.4950 -2.3106
  170bbb    H18 4928   7.727   4.239   4.765 -0.3645 -0.2391  0.7200
  170bbb     O1 4929   8.020   4.568   5.210 -0.0324  0.8145 -0.6967
  171bbb     N1 4930   9.427   2.781   7.543 -0.0147  0.5595  0.1069
  171bbb     C1 4931   9.467   2.728   7.675  0.7959  0.4257 -0.2239
  171bbb     H1 4932   9.425   2.799   7.748 -0.5159 -1.5431  1.0350
  171bbb     H2 4933   9.576   2.723   7.681  0.7596 -0.1304  4.9133
  171bbb     C2 4934   9.504   2.718   7.429  0.0836  0.3898  0.6602
  171bbb     H3 4935   9.458   2.618   7.420 -0.6868  0.8685 -1.1670
  171bbb     H4 4936   9.613   2.715   7.442 -0.0576 -0.4708  1.8176
  171bbb     C3 4937   9.281   2.811   7.522  0.3328 -0.0634  0.0481
  171bbb     H5 4938   9.225   2.717   7.511 -0.1264  0.3036 -0.8799
  171bbb     H6 4939   9.275   2.868   7.428  2.5407 -1.1394 -0.8022
  171bbb     C4 4940   9.210   2.903   7.622  0.3439  0.1461 -0.4050
  171bbb     H7 4941   9.252   3.003   7.609 -2.8904  1.5874 -0.7855
  171bbb     H8 4942   9.223   2.861   7.723  3.2477 -1.3341 -1.2676
  171bbb     C5 4943   9.405   2.589   7.696  0.4154  0.5400  0.7895
  171bbb     H9 4944   9.445   2.517   7.624 -2.7919 -0.1273 -0.5029
  171bbb    H10 4945   9.297   2.601   7.679  0.4453  1.5823  1.2643
  171bbb     C6 4946   9.473   2.781   7.289  0.3513  0.7125 -0.3777
  171bbb    H11 4947   9.372   2.759   7.251  0.6113 -0.7976 -0.2693
  171bbb    H12 4948   9.536   2.715   7.228  2.2469  0.7132  1.4853
  171bbb     C7 4949   9.063   2.932   7.588  0.1481 -0.8728 -0.0887
  171bbb    H13 4950   9.036   3.011   7.659  1.3257 -2.5835  2.4168
  171bbb    H14 4951   8.994   2.849   7.609  1.4616 -1.7992  0.7304
  171bbb     C8 4952   9.519   2.925   7.282  0.9543 -0.4701  0.0252
  171bbb    H15 4953   9.481   2.986   7.365  3.1915 -1.9566  2.2829
  171bbb    H16 4954   9.475   2.969   7.192  1.0104  2.6286  1.3897
  171bbb     C9 4955   9.424   2.532   7.837 -0.6500 -0.2544 -0.8460
  171bbb    H17 4956   9.530   2.506   7.844 -0.5043  0.5748  0.4532
  171bbb    H18 4957   9.359   2.446   7.857 -0.2716 -0.2686  0.4536
  171bbb     O1 4958   9.045   2.988   7.456  0.0635 -0.7999  0.4812
  172bbb     N1 4959   9.684   2.909   6.570  0.1135 -0.3365  0.1108
  172bbb     C1 4960   9.824   2.895   6.530 -0.3403 -1.0397  0.4510
  172bbb     H1 4961   9.873   2.988   6.562 -0.9429 -0.2373 -0.8421
  172bbb     H2 4962   9.821   2.891   6.421 -1.0364 -0.8135  0.4526
  172bbb     C2 4963   9.597   2.995   6.478  0.1023  0.1362  0.1941
  172bbb     H3 4964   9.623   3.100   6.466  2.0497 -0.5441 -2.4071
  172bbb     H4 4965   9.491   2.989   6.505  0.1505 -0.2388  0.3113
  172bbb     C3 4966   9.666   2.911   6.721 -0.2373 -0.7602 -0.1586
  172bbb     H5 4967   9.686   3.016   6.745 -3.1381  0.0594 -0.8715
  172bbb     H6 4968   9.736   2.849   6.778 -1.9887  0.0597  3.1380
  172bbb     C4 4969   9.528   2.869   6.766  0.8141  0.5044 -0.3533
  172bbb     H7 4970   9.504   2.773   6.718  0.5769 -0.3776  1.4318
  172bbb     H8 4971   9.448   2.935   6.732  0.1816 -0.5539 -0.9562
  172bbb     C5 4972   9.900   2.776   6.586  0.1701 -0.0454  0.6568
  172bbb     H9 4973   9.856   2.687   6.537  0.3587 -0.2520  0.8607
  172bbb    H10 4974   9.888   2.752   6.693  0.7690 -2.4655  0.2449
  172bbb     C6 4975   9.589   2.939   6.332 -0.1804 -0.3741  0.9554
  172bbb    H11 4976   9.602   2.830   6.337 -0.9619 -0.4804  0.7431
  172bbb    H12 4977   9.677   2.977   6.278 -0.6872  0.1996  0.5230
  172bbb     C7 4978   9.520   2.859   6.923 -0.0601  0.3611 -0.3046
  172bbb    H13 4979   9.545   2.955   6.970  0.8417  0.0170 -0.0685
  172bbb    H14 4980   9.588   2.783   6.963 -0.4686  0.1698  0.0320
  172bbb     C8 4981   9.463   2.991   6.259  0.4614  0.3277 -0.0492
  172bbb    H15 4982   9.380   2.992   6.332 -0.3567 -1.7148 -0.8766
  172bbb    H16 4983   9.442   2.926   6.174  1.9213 -1.1243  0.6465
  172bbb     C9 4984  10.053   2.783   6.549 -0.2240 -0.6230 -0.8279
  172bbb    H17 4985  10.093   2.884   6.558 -1.2680 -0.0488 -2.3220
  172bbb    H18 4986  10.065   2.760   6.443  0.0419 -0.6779 -0.7881
  172bbb     O1 4987   9.386   2.834   6.966 -0.0903 -0.3296  0.7566
  173bbb     N1 4988   8.321   2.556   5.277  1.0715  0.4708  0.2800
  173bbb     C1 4989   8.439   2.541   5.192 -0.1287  0.1971 -0.0665
  173bbb     H1 4990   8.427   2.606   5.104  0.5534 -1.6667 -1.6222
  173bbb     H2 4991   8.461   2.441   5.152  0.0385  1.6297 -4.1072
  173bbb     C2 4992   8.293   2.691   5.329  0.3189 -0.0696 -0.2656
  173bbb     H3 4993   8.385   2.718   5.381 -0.0791  0.2778  0.2656
  173bbb     H4 4994   8.209   2.698   5.399 -1.1339  1.0564 -2.0407
  173bbb     C3 4995   8.300   2.452   5.379  0.2960 -0.3015 -0.4488
  173bbb     H5 4996   8.339   2.475   5.479 -0.7576 -0.7269  0.0702
  173bbb     H6 4997   8.364   2.369   5.348 -0.6776 -1.3497  0.2840
  173bbb     C4 4998   8.152   2.404   5.383 -0.2442 -0.1404 -0.2515
  173bbb     H7 4999   8.153   2.306   5.433 -2.7970  1.2139  2.7637
  173bbb     H8 5000   8.118   2.396   5.279 -2.5859  2.1482  0.2419
  173bbb     C5 5001   8.573   2.597   5.255  0.1548  0.1524 -0.0619
  173bbb     H9 5002   8.657   2.545   5.206  0.7536  2.0102 -1.0984
  173bbb    H10 5003   8.574   2.556   5.357  1.0867 -1.2781 -0.6051
  173bbb     C6 5004   8.259   2.796   5.220 -0.7518 -0.9382  0.0057
  173bbb    H11 5005   8.342   2.790   5.148 -0.1288  0.0519  0.6120
  173bbb    H12 5006   8.266   2.898   5.259 -2.3385 -0.7278 -0.1869
  173bbb     C7 5007   8.051   2.504   5.449 -0.2648 -0.6516 -0.2381
  173bbb    H13 5008   8.037   2.593   5.386  2.9856 -1.0501 -1.7504
  173bbb    H14 5009   8.100   2.540   5.540  1.1505 -1.9750 -0.4215
  173bbb     C8 5010   8.118   2.777   5.175  0.4018  0.2752 -0.4041
  173bbb    H15 5011   8.096   2.673   5.148  0.4603  0.8914 -3.1366
  173bbb    H16 5012   8.106   2.840   5.086  0.5107 -0.0993 -0.6885
  173bbb     C9 5013   8.616   2.748   5.240  0.0541  1.0517 -0.4690
  173bbb    H17 5014   8.718   2.761   5.277  0.2796 -0.6950 -0.3861
  173bbb    H18 5015   8.552   2.815   5.299 -0.6057  0.8309 -0.9213
  173bbb     O1 5016   7.926   2.447   5.476  0.3092 -0.7001 -0.3892
  174bbb     N1 5017   8.739   2.119   5.502 -0.6538 -0.3345  0.2239
  174bbb     C1 5018   8.727   2.013   5.396  0.4677 -0.0506  0.2195
  174bbb     H1 5019   8.699   1.917   5.441 -1.6339  0.2437 -0.3753
  174bbb     H2 5020   8.825   2.008   5.347  1.0595  1.3862  1.1899
  174bbb     C2 5021   8.848   2.086   5.600  0.0182 -0.8579 -0.4179
  174bbb     H3 5022   8.938   2.053   5.547  0.7297  1.0008 -0.4246
  174bbb     H4 5023   8.826   1.997   5.661  0.3421 -1.0996 -0.6497
  174bbb     C3 5024   8.609   2.154   5.564 -0.5948 -0.2900 -0.5491
  174bbb     H5 5025   8.547   2.205   5.489  3.3794  3.2478 -1.8314
  174bbb     H6 5026   8.618   2.235   5.637 -2.0921  0.1748 -0.8223
  174bbb     C4 5027   8.542   2.039   5.631  0.5938  0.1538  0.2830
  174bbb     H7 5028   8.616   1.996   5.699  0.9704  0.9429  0.3836
  174bbb     H8 5029   8.508   1.964   5.558 -0.7619  0.5495  0.4744
  174bbb     C5 5030   8.627   2.032   5.285  0.7181  0.0699  0.0582
  174bbb     H9 5031   8.636   2.127   5.230  2.8614 -0.7546 -1.1540
  174bbb    H10 5032   8.519   2.032   5.304 -0.0002 -1.2879 -3.2297
  174bbb     C6 5033   8.887   2.204   5.693  0.3775  0.0113  0.2144
  174bbb    H11 5034   8.817   2.232   5.773 -0.8406 -0.4589 -0.6499
  174bbb    H12 5035   8.899   2.297   5.635 -1.1639 -0.4743 -0.9650
  174bbb     C7 5036   8.425   2.081   5.715  0.4007  0.0050 -0.1917
  174bbb    H13 5037   8.462   2.118   5.811 -1.0711  1.9807 -0.3141
  174bbb    H14 5038   8.368   1.990   5.738 -1.5047  0.8551 -1.3377
  174bbb     C8 5039   9.020   2.178   5.766  0.0870 -0.5330 -0.4298
  174bbb    H15 5040   9.090   2.150   5.687 -1.1159 -0.5722 -1.5064
  174bbb    H16 5041   9.002   2.092   5.832 -0.4929  0.3608  0.6122
  174bbb     C9 5042   8.642   1.920   5.174  0.1243 -0.8967 -0.2145
  174bbb    H17 5043   8.737   1.933   5.122 -0.0044  1.1423 -0.0085
  174bbb    H18 5044   8.568   1.939   5.095 -2.8468 -2.5290  1.9683
  174bbb     O1 5045   8.339   2.172   5.640 -0.3870  0.2114 -0.0826
  175bbb     N1 5046   7.127   5.583   7.862  0.7475 -0.7736  0.1864
  175bbb     C1 5047   7.051   5.557   7.730 -0.0388  0.5122 -0.0901
  175bbb     H1 5048   7.059   5.452   7.699 -0.2071  0.3872  0.2859
  175bbb     H2 5049   7.095   5.618   7.650 -0.2261 -0.2137 -0.7635
  175bbb     C2 5050   7.150   5.729   7.875 -1.1443 -0.6674  0.1170
  175bbb     H3 5051   7.069   5.789   7.832 -0.7580 -0.1091  0.1544
  175bbb     H4 5052   7.242   5.759   7.824 -1.5386  1.1565  0.4197
  175bbb     C3 5053   7.252   5.506   7.877  0.6385 -0.3548  0.2569
  175bbb     H5 5054   7.299   5.543   7.969  1.5682 -0.7843 -0.0229
  175bbb     H6 5055   7.325   5.520   7.796  1.5101 -0.3729  1.0270
  175bbb     C4 5056   7.240   5.356   7.898  0.5875 -0.8073 -0.5253
  175bbb     H7 5057   7.137   5.342   7.932  0.2608 -0.3075 -1.2883
  175bbb     H8 5058   7.308   5.329   7.980  0.8813 -1.0662 -0.8519
  175bbb     C5 5059   6.905   5.598   7.740 -0.5342  0.1317  0.2742
  175bbb     H9 5060   6.903   5.707   7.729  2.4546  0.2181 -0.3570
  175bbb    H10 5061   6.856   5.582   7.836 -2.8270 -1.1785 -1.0022
  175bbb     C6 5062   7.160   5.782   8.026  0.6059  0.0847  0.3832
  175bbb    H11 5063   7.187   5.888   8.018  1.1106  0.2189  2.8464
  175bbb    H12 5064   7.246   5.737   8.077 -0.9568 -2.2708  1.0952
  175bbb     C7 5065   7.264   5.258   7.777 -0.3337  0.4524 -0.2708
  175bbb    H13 5066   7.193   5.264   7.694 -0.5755 -1.4986 -0.2375
  175bbb    H14 5067   7.268   5.153   7.809  2.4270 -0.2667 -2.6143
  175bbb     C8 5068   7.038   5.754   8.123 -0.7129  0.0760  0.2922
  175bbb    H15 5069   7.026   5.645   8.125 -0.3856  0.0486  1.4798
  175bbb    H16 5070   6.948   5.792   8.073  1.5232  1.5531 -2.9813
  175bbb     C9 5071   6.811   5.530   7.635 -0.3934  1.0004  1.3153
  175bbb    H17 5072   6.864   5.457   7.571 -1.0989  2.9172 -1.6221
  175bbb    H18 5073   6.782   5.603   7.559  1.1598  1.6812  1.3207
  175bbb     O1 5074   7.393   5.294   7.723  0.4961 -0.0902  0.1118
  176bbb     N1 5075   7.659   5.742   7.859  0.7871  0.3817  0.2273
  176bbb     C1 5076   7.762   5.838   7.803  1.1219  0.1523 -0.4060
  176bbb     H1 5077   7.783   5.916   7.876 -1.1341  0.2777  0.1937
  176bbb     H2 5078   7.724   5.885   7.712  1.4421  0.6575 -0.2829
  176bbb     C2 5079   7.567   5.803   7.952 -0.5990 -0.0422 -1.0931
  176bbb     H3 5080   7.491   5.724   7.961 -0.7190  0.1873  0.0108
  176bbb     H4 5081   7.532   5.899   7.912  1.4096  0.6185 -1.3681
  176bbb     C3 5082   7.595   5.647   7.760  0.5988  0.6063  0.0508
  176bbb     H5 5083   7.528   5.574   7.807  0.8829 -0.4827 -1.1724
  176bbb     H6 5084   7.675   5.600   7.701  0.7677  1.1033 -0.1181
  176bbb     C4 5085   7.499   5.723   7.662 -0.6728  0.8424 -0.0914
  176bbb     H7 5086   7.548   5.811   7.620 -1.1111  0.5978 -1.1426
  176bbb     H8 5087   7.419   5.762   7.726  0.1974  0.7002  1.1159
  176bbb     C5 5088   7.896   5.765   7.756  0.4398 -0.5426 -0.4402
  176bbb     H9 5089   7.906   5.669   7.809  1.7986  0.1997  0.7179
  176bbb    H10 5090   7.982   5.828   7.779 -0.7530  1.5497 -1.4209
  176bbb     C6 5091   7.630   5.835   8.086 -0.8321  0.0344 -0.3323
  176bbb    H11 5092   7.699   5.920   8.083  0.5067 -1.0451 -2.0719
  176bbb    H12 5093   7.691   5.753   8.126  1.4805  1.5324 -0.6118
  176bbb     C7 5094   7.459   5.632   7.549 -0.3176 -0.0147 -0.1242
  176bbb    H13 5095   7.397   5.696   7.484 -0.0888 -0.5098 -0.8367
  176bbb    H14 5096   7.413   5.538   7.582  0.6510  0.3511  2.5038
  176bbb     C8 5097   7.530   5.866   8.197  0.6119 -0.3893 -0.0437
  176bbb    H15 5098   7.580   5.865   8.295 -2.2909 -0.8126  1.5517
  176bbb    H16 5099   7.459   5.783   8.199  0.5409 -0.3316 -0.2068
  176bbb     C9 5100   7.899   5.735   7.602  0.1609  0.1324 -0.2856
  176bbb    H17 5101   7.803   5.694   7.570  0.3686  0.2455 -1.0801
  176bbb    H18 5102   7.979   5.663   7.582 -0.2877 -0.2048 -0.9260
  176bbb     O1 5103   7.580   5.605   7.475 -0.1495  0.7341  0.6579
  177bbb     N1 5104   6.284   4.406   8.954  0.1179  0.3050 -0.4824
  177bbb     C1 5105   6.157   4.329   8.962  0.0410  0.1045  0.2331
  177bbb     H1 5106   6.179   4.230   8.921  0.7201  0.5064 -0.3960
  177bbb     H2 5107   6.071   4.364   8.902  0.6886 -0.8613 -1.3189
  177bbb     C2 5108   6.286   4.541   9.026  0.6566 -0.4385  0.8004
  177bbb     H3 5109   6.260   4.528   9.132  1.1747  1.9587  1.2815
  177bbb     H4 5110   6.203   4.600   8.984  1.0516 -0.9532 -0.7841
  177bbb     C3 5111   6.340   4.402   8.822 -0.3356 -0.4192 -0.0417
  177bbb     H5 5112   6.355   4.298   8.791  2.4440 -0.6964  1.9156
  177bbb     H6 5113   6.436   4.455   8.827  1.2331 -3.0198 -0.9331
  177bbb     C4 5114   6.257   4.479   8.721  0.2114 -0.5430  0.4973
  177bbb     H7 5115   6.251   4.581   8.762 -0.4428 -0.9169  1.3622
  177bbb     H8 5116   6.159   4.431   8.713  0.7604 -1.3179 -2.7193
  177bbb     C5 5117   6.106   4.313   9.107  0.2041 -0.1006  0.0089
  177bbb     H9 5118   6.012   4.259   9.092 -0.3969  1.2922 -1.4977
  177bbb    H10 5119   6.064   4.411   9.132  0.3562 -0.1882  0.6279
  177bbb     C6 5120   6.404   4.643   9.003 -0.0203 -0.0568  0.2741
  177bbb    H11 5121   6.379   4.742   9.043  0.9648 -0.3910  1.8209
  177bbb    H12 5122   6.423   4.661   8.897  1.2962 -3.4280 -0.1781
  177bbb     C7 5123   6.318   4.480   8.575 -0.1437 -0.4674  0.3149
  177bbb    H13 5124   6.232   4.500   8.509  0.2765  0.1789 -0.0417
  177bbb    H14 5125   6.360   4.383   8.546 -0.0965 -0.4685  0.3848
  177bbb     C8 5126   6.539   4.590   9.058 -0.1593 -0.0084  0.4702
  177bbb    H15 5127   6.552   4.483   9.038 -2.5328 -0.8527  2.8689
  177bbb    H16 5128   6.539   4.606   9.167  1.7339 -0.0915  0.5052
  177bbb     C9 5129   6.208   4.251   9.209 -0.6345  0.6374 -0.5107
  177bbb    H17 5130   6.267   4.324   9.266 -1.3641 -0.4990  1.8500
  177bbb    H18 5131   6.279   4.196   9.145 -0.3765  1.8735 -1.3133
  177bbb     O1 5132   6.427   4.574   8.559 -0.3464 -0.2034 -0.1477
  178bbb     N1 5133   7.530   4.594   8.488 -0.2697 -0.1578 -0.4375
  178bbb     C1 5134   7.557   4.744   8.486 -0.1696  0.2103 -0.4746
  178bbb     H1 5135   7.629   4.769   8.407  1.6716 -0.9555  0.7539
  178bbb     H2 5136   7.612   4.773   8.576 -0.5822 -2.0437  0.5558
  178bbb     C2 5137   7.604   4.512   8.385 -0.0229 -0.5181  0.4231
  178bbb     H3 5138   7.595   4.565   8.290 -1.4426  0.0417  0.8325
  178bbb     H4 5139   7.554   4.416   8.368  0.1854 -0.3402 -1.3031
  178bbb     C3 5140   7.509   4.541   8.622 -0.4193  0.2421  0.3396
  178bbb     H5 5141   7.474   4.621   8.689  1.9978 -0.7113  2.9473
  178bbb     H6 5142   7.599   4.500   8.670 -0.7662  0.4258  1.1524
  178bbb     C4 5143   7.409   4.422   8.624 -0.6437  0.1947 -0.4362
  178bbb     H7 5144   7.401   4.384   8.727 -0.3131 -2.0919 -1.1903
  178bbb     H8 5145   7.455   4.337   8.571  0.1539  0.3425  0.0038
  178bbb     C5 5146   7.433   4.825   8.470 -0.0808  0.6840  0.1813
  178bbb     H9 5147   7.355   4.799   8.543 -0.7083  1.9971  0.0167
  178bbb    H10 5148   7.388   4.793   8.375  0.4836  0.9313 -0.1750
  178bbb     C6 5149   7.749   4.484   8.419 -0.0007 -0.4076 -0.7281
  178bbb    H11 5150   7.785   4.403   8.354  4.5506  2.2913 -2.0377
  178bbb    H12 5151   7.745   4.453   8.524  0.9058 -0.2728 -0.6455
  178bbb     C7 5152   7.270   4.448   8.562 -0.2078  0.4845 -0.2737
  178bbb    H13 5153   7.220   4.352   8.544 -0.0665  0.2634  0.5039
  178bbb    H14 5154   7.280   4.494   8.462 -1.5665 -0.2417 -0.7655
  178bbb     C8 5155   7.840   4.602   8.390 -0.1406  0.8514  0.7534
  178bbb    H15 5156   7.809   4.681   8.460 -2.0079  1.2981 -0.4998
  178bbb    H16 5157   7.824   4.641   8.289 -2.0307  0.1878  0.7584
  178bbb     C9 5158   7.453   4.980   8.467  0.2931 -0.5602  0.2865
  178bbb    H17 5159   7.359   5.035   8.456  0.0603 -1.0641 -0.2539
  178bbb    H18 5160   7.516   5.009   8.382 -0.9601  0.2052 -0.4130
  178bbb     O1 5161   7.192   4.527   8.660 -0.0297  0.4019 -0.2014
  179bbb     N1 5162   6.726   4.702   5.720  0.2227 -0.0743  0.0599
  179bbb     C1 5163   6.873   4.712   5.747  0.4253 -0.4679  0.1051
  179bbb     H1 5164   6.923   4.725   5.650  0.2922  0.3418  0.1299
  179bbb     H2 5165   6.911   4.622   5.794  0.7384 -1.0612 -1.2290
  179bbb     C2 5166   6.691   4.575   5.654 -0.3181 -0.8475 -0.5040
  179bbb     H3 5167   6.591   4.590   5.611  0.1515  0.4546 -1.1995
  179bbb     H4 5168   6.679   4.502   5.735  1.8370 -0.9437 -0.2314
  179bbb     C3 5169   6.630   4.753   5.820  0.3792 -0.0893  0.2447
  179bbb     H5 5170   6.532   4.740   5.772  0.0312 -0.8380  1.1132
  179bbb     H6 5171   6.647   4.858   5.846 -0.1663  0.1652 -0.3900
  179bbb     C4 5172   6.622   4.674   5.950 -0.6081  0.4523 -0.7249
  179bbb     H7 5173   6.722   4.654   5.989  0.7957  1.4592 -3.5081
  179bbb     H8 5174   6.573   4.577   5.937  0.2674 -0.0391 -0.3687
  179bbb     C5 5175   6.905   4.842   5.826  0.2483 -0.2887  0.3756
  179bbb     H9 5176   7.014   4.829   5.840 -0.2722 -4.3464  2.1267
  179bbb    H10 5177   6.858   4.833   5.924  0.5816 -0.3548  0.5314
  179bbb     C6 5178   6.784   4.511   5.547  0.0268  0.2586  0.0488
  179bbb    H11 5179   6.886   4.516   5.586  0.1292  2.3941 -0.3390
  179bbb    H12 5180   6.775   4.577   5.460  1.3839  0.2659 -0.1040
  179bbb     C7 5181   6.533   4.748   6.053 -0.0421 -0.4569 -0.3248
  179bbb    H13 5182   6.444   4.785   6.001 -0.0530  1.1328  0.7551
  179bbb    H14 5183   6.577   4.839   6.095 -0.7570  0.0954 -0.7579
  179bbb     C8 5184   6.730   4.365   5.524 -0.7438 -0.6963 -0.0438
  179bbb    H15 5185   6.723   4.318   5.623  1.3419 -0.3402  0.3296
  179bbb    H16 5186   6.802   4.303   5.468  0.4834  1.0501 -0.5005
  179bbb     C9 5187   6.879   4.975   5.750  0.3295  0.0129  0.1159
  179bbb    H17 5188   6.800   4.961   5.675 -0.1970  0.3989  0.5932
  179bbb    H18 5189   6.964   4.991   5.682  0.6034 -0.5151  0.3218
  179bbb     O1 5190   6.484   4.665   6.158 -0.2536  0.1336 -0.3262
  180bbb     N1 5191   6.025   4.362   7.035  0.5806 -0.6549  0.3086
  180bbb     C1 5192   5.915   4.459   7.036  0.0456  0.5994  0.4550
  180bbb     H1 5193   5.946   4.564   7.042 -0.2174  0.6273  1.7380
  180bbb     H2 5194   5.863   4.446   7.132 -0.6561  0.0578  0.0142
  180bbb     C2 5195   5.985   4.223   7.055  0.0896  0.2168  0.1799
  180bbb     H3 5196   5.878   4.199   7.047  0.1917 -0.7399  1.3438
  180bbb     H4 5197   6.010   4.190   7.157  1.1821  2.5996  0.7709
  180bbb     C3 5198   6.145   4.401   7.111 -0.5819 -0.0461 -0.0206
  180bbb     H5 5199   6.215   4.319   7.090 -0.7239 -0.4231  0.8982
  180bbb     H6 5200   6.122   4.398   7.218 -0.7092  0.8511 -0.0154
  180bbb     C4 5201   6.213   4.534   7.077 -0.5999 -0.7015  0.3928
  180bbb     H7 5202   6.305   4.546   7.135  1.4617  2.2502 -3.1002
  180bbb     H8 5203   6.155   4.622   7.106 -1.3241  0.1170 -3.0473
  180bbb     C5 5204   5.817   4.452   6.914  0.4832 -0.1666 -0.0313
  180bbb     H9 5205   5.733   4.521   6.929 -0.1816 -1.2893  1.7242
  180bbb    H10 5206   5.775   4.351   6.905  2.3725 -1.2768  2.5358
  180bbb     C6 5207   6.056   4.131   6.961 -0.6209  0.7714 -0.4381
  180bbb    H11 5208   6.026   4.033   6.999  0.3988  1.1655  1.5138
  180bbb    H12 5209   6.165   4.135   6.972 -0.4364 -1.5426 -0.9114
  180bbb     C7 5210   6.262   4.545   6.928  0.3765 -0.1691 -0.2314
  180bbb    H13 5211   6.180   4.545   6.855  1.2410  0.7260 -1.2462
  180bbb    H14 5212   6.324   4.457   6.906 -2.6611 -2.3389 -0.8623
  180bbb     C8 5213   6.016   4.142   6.810  0.1024 -0.3129  0.6774
  180bbb    H15 5214   6.078   4.085   6.740  0.6754  0.7351  0.3194
  180bbb    H16 5215   6.027   4.247   6.782  0.8526 -0.7384 -0.7431
  180bbb     C9 5216   5.894   4.501   6.784 -0.3111  0.3049 -0.1114
  180bbb    H17 5217   5.982   4.436   6.779 -0.7867 -0.4645  1.0810
  180bbb    H18 5218   5.935   4.603   6.786 -0.8195  0.5466 -1.3018
  180bbb     O1 5219   6.333   4.667   6.910  0.0978  0.4105  0.6038
  181bbb     N1 5220   5.691   3.917   8.383  0.2832 -0.8106 -0.0527
  181bbb     C1 5221   5.824   3.961   8.429  0.8281  0.5316 -0.2170
  181bbb     H1 5222   5.833   4.070   8.426 -0.2647  0.6412  0.2929
  181bbb     H2 5223   5.907   3.916   8.372  0.9728 -0.4260  0.7264
  181bbb     C2 5224   5.579   4.010   8.414 -0.2911 -0.9886  0.2336
  181bbb     H3 5225   5.602   4.114   8.389 -0.8899 -0.6346  1.1331
  181bbb     H4 5226   5.559   4.009   8.522 -0.5951 -0.2193  0.1931
  181bbb     C3 5227   5.691   3.886   8.238 -0.1228 -0.6538 -0.7432
  181bbb     H5 5228   5.597   3.838   8.207 -2.8921  3.4592  0.4294
  181bbb     H6 5229   5.767   3.810   8.217 -0.1097 -0.8411 -0.0411
  181bbb     C4 5230   5.704   4.009   8.141  0.3898 -0.1091 -0.0065
  181bbb     H7 5231   5.796   4.060   8.174  0.6132 -0.6514  0.2269
  181bbb     H8 5232   5.615   4.073   8.142  1.6322  1.7925 -2.5335
  181bbb     C5 5233   5.844   3.920   8.572 -0.4440 -1.0517 -0.2597
  181bbb     H9 5234   5.828   3.813   8.593 -1.1030 -1.3907 -2.2734
  181bbb    H10 5235   5.768   3.973   8.630 -1.0187  0.7857 -2.5204
  181bbb     C6 5236   5.443   3.980   8.351  0.7884  0.5532 -0.3267
  181bbb    H11 5237   5.395   3.883   8.365 -0.4908  1.2451  0.3391
  181bbb    H12 5238   5.441   4.004   8.244  0.8655  1.2887 -0.1684
  181bbb     C7 5239   5.718   3.976   7.989  0.1211 -0.1182  0.4767
  181bbb    H13 5240   5.641   3.900   7.972  0.7199 -0.5098 -0.6172
  181bbb    H14 5241   5.816   3.937   7.958  0.9384  2.1309  0.0341
  181bbb     C8 5242   5.337   4.082   8.404  0.4815 -0.4986 -0.2642
  181bbb    H15 5243   5.322   4.085   8.513 -0.3669  2.2974 -0.3889
  181bbb    H16 5244   5.240   4.047   8.368 -0.7320  3.0384 -0.8034
  181bbb     C9 5245   5.994   3.947   8.615  0.6056  0.3998  0.4278
  181bbb    H17 5246   6.050   3.888   8.541 -1.6300 -0.6017 -0.5545
  181bbb    H18 5247   6.006   3.901   8.714 -0.4699 -0.9148 -0.0315
  181bbb     O1 5248   5.683   4.093   7.912 -0.2082  0.1209 -0.5327
  182bbb     N1 5249   5.295   4.305   6.747  0.0364  0.2846 -0.4696
  182bbb     C1 5250   5.199   4.236   6.657  0.5533 -0.6017  0.4645
  182bbb     H1 5251   5.239   4.140   6.623 -0.0486 -1.1348  1.2262
  182bbb     H2 5252   5.169   4.302   6.575  1.5699 -0.0018  0.5464
  182bbb     C2 5253   5.392   4.386   6.668 -0.9607  0.2598  0.0891
  182bbb     H3 5254   5.455   4.322   6.605 -1.3341  0.2233 -0.2498
  182bbb     H4 5255   5.463   4.435   6.735 -0.6029 -0.0738 -0.0455
  182bbb     C3 5256   5.362   4.202   6.830 -0.3911  0.7223 -0.2853
  182bbb     H5 5257   5.428   4.141   6.767  0.8990  1.2482  0.5110
  182bbb     H6 5258   5.288   4.135   6.875  0.4307 -0.0817 -0.0968
  182bbb     C4 5259   5.436   4.269   6.950  0.3257 -0.1605 -0.1237
  182bbb     H7 5260   5.370   4.345   6.995  1.7434  0.5830  0.7706
  182bbb     H8 5261   5.523   4.326   6.915  0.7986 -1.5256 -1.2349
  182bbb     C5 5262   5.061   4.228   6.734 -0.4253  0.3901  0.4346
  182bbb     H9 5263   5.018   4.318   6.780 -1.3968  1.4110 -2.2144
  182bbb    H10 5264   5.080   4.165   6.821 -1.8359  0.1409  0.5844
  182bbb     C6 5265   5.334   4.496   6.574  0.2076  0.2792 -0.6045
  182bbb    H11 5266   5.260   4.445   6.512 -1.0094  1.7263 -0.4081
  182bbb    H12 5267   5.414   4.526   6.506 -0.4977 -0.6264 -1.8863
  182bbb     C7 5268   5.482   4.171   7.055 -0.6386 -0.1120 -0.7226
  182bbb    H13 5269   5.552   4.096   7.016  1.1963  0.6221  1.0053
  182bbb    H14 5270   5.392   4.131   7.105 -0.7817 -0.0191 -0.9046
  182bbb     C8 5271   5.264   4.621   6.640  0.1885  0.2763  0.6794
  182bbb    H15 5272   5.169   4.586   6.681 -0.6333 -2.1072 -2.8642
  182bbb    H16 5273   5.241   4.700   6.567 -0.0448 -2.1135 -1.9964
  182bbb     C9 5274   4.951   4.154   6.659  0.5079  0.5279  0.5381
  182bbb    H17 5275   4.933   4.209   6.566  1.3578  1.8457  1.1213
  182bbb    H18 5276   4.856   4.156   6.713 -1.6151 -0.3553 -2.8551
  182bbb     O1 5277   5.558   4.251   7.148 -0.2881  0.2517 -0.0219
  183bbb     N1 5278   9.437   4.538   6.569  0.1599  0.1844  0.3395
  183bbb     C1 5279   9.430   4.509   6.420  0.0179  0.3356  0.1568
  183bbb     H1 5280   9.361   4.578   6.370 -0.1901 -0.2967 -0.4488
  183bbb     H2 5281   9.391   4.408   6.402 -3.7792  1.4691  1.1344
  183bbb     C2 5282   9.523   4.655   6.605 -0.2806 -0.1182 -0.3980
  183bbb     H3 5283   9.628   4.630   6.591  0.2218  0.1184  2.3366
  183bbb     H4 5284   9.510   4.667   6.714 -0.9667 -2.8842 -0.0825
  183bbb     C3 5285   9.310   4.540   6.633  0.8273  0.1407 -0.0978
  183bbb     H5 5286   9.253   4.629   6.604  0.7699 -0.2032 -1.0904
  183bbb     H6 5287   9.327   4.547   6.741 -0.5701 -2.2413  0.3354
  183bbb     C4 5288   9.226   4.407   6.608 -0.3964 -0.1138 -0.5135
  183bbb     H7 5289   9.266   4.322   6.666 -1.3720  1.1210  2.1565
  183bbb     H8 5290   9.216   4.378   6.503 -0.2937 -0.5306 -0.4094
  183bbb     C5 5291   9.573   4.517   6.352 -0.0115 -0.1915 -0.1053
  183bbb     H9 5292   9.645   4.458   6.409  0.0473  1.7098  1.9400
  183bbb    H10 5293   9.610   4.620   6.358 -0.0038 -0.2634  1.6377
  183bbb     C6 5294   9.481   4.793   6.544  0.1895 -0.1179 -0.2845
  183bbb    H11 5295   9.407   4.842   6.609  0.7184  1.0673 -0.5514
  183bbb    H12 5296   9.435   4.777   6.446  0.3387 -1.9707 -0.0802
  183bbb     C7 5297   9.094   4.431   6.675  0.3979  0.0873  0.0799
  183bbb    H13 5298   9.107   4.463   6.779  1.4128 -2.2780  0.7542
  183bbb    H14 5299   9.029   4.342   6.677  0.0668  0.3215 -0.2057
  183bbb     C8 5300   9.592   4.897   6.526  0.2722  0.2627 -0.2590
  183bbb    H15 5301   9.651   4.928   6.613  2.2621  0.5736 -1.6305
  183bbb    H16 5302   9.540   4.987   6.490 -1.3265 -0.1414  0.9760
  183bbb     C9 5303   9.573   4.474   6.201  0.0176 -0.0572 -0.2902
  183bbb    H17 5304   9.471   4.488   6.162 -0.7898 -0.7810  1.4368
  183bbb    H18 5305   9.598   4.371   6.175 -0.9479  0.3393 -3.1314
  183bbb     O1 5306   9.028   4.533   6.599  0.3705  0.5817  0.5943
  184bbb     N1 5307   9.632   4.993   6.923 -0.2860  0.3442  0.2693
  184bbb     C1 5308   9.627   4.848   6.894 -0.5582 -0.3087  0.6079
  184bbb     H1 5309   9.670   4.838   6.794 -0.5869 -1.0485  0.6607
  184bbb     H2 5310   9.530   4.799   6.909 -1.0782  0.4611 -0.1590
  184bbb     C2 5311   9.761   5.067   6.925  0.5730 -0.5347 -0.2957
  184bbb     H3 5312   9.819   5.025   7.008 -1.2486 -2.6732 -0.0142
  184bbb     H4 5313   9.745   5.171   6.957  1.7142 -0.3933 -0.1461
  184bbb     C3 5314   9.514   5.063   6.866 -0.1110 -0.9747  0.1750
  184bbb     H5 5315   9.524   5.036   6.760 -1.5030  0.0402 -0.2442
  184bbb     H6 5316   9.528   5.171   6.877 -1.8149 -0.7518  0.3880
  184bbb     C4 5317   9.379   5.014   6.937  0.3752  0.1462  0.6334
  184bbb     H7 5318   9.386   5.053   7.040  1.5292 -0.2706  0.7247
  184bbb     H8 5319   9.360   4.907   6.927 -1.7574  0.5886 -0.7024
  184bbb     C5 5320   9.724   4.758   6.964  0.9020 -0.7207 -0.7729
  184bbb     H9 5321   9.732   4.785   7.070 -0.8409  0.1592 -0.8256
  184bbb    H10 5322   9.823   4.769   6.919  1.2506  0.5596  0.2308
  184bbb     C6 5323   9.843   5.072   6.793 -0.0958  0.0242 -0.2111
  184bbb    H11 5324   9.775   5.095   6.710  1.4301  0.0579 -1.5109
  184bbb    H12 5325   9.883   4.972   6.771 -0.3024 -0.3621  1.0854
  184bbb     C7 5326   9.255   5.084   6.872  0.2378  0.1235  0.5666
  184bbb    H13 5327   9.259   5.193   6.880  1.9483 -0.0033  2.0516
  184bbb    H14 5328   9.160   5.042   6.907  0.0551 -0.3084 -0.3996
  184bbb     C8 5329   9.963   5.175   6.792 -0.2783 -0.5509 -0.5169
  184bbb    H15 5330  10.061   5.130   6.814  0.7232  1.0742 -1.4030
  184bbb    H16 5331   9.943   5.244   6.875 -0.7210 -1.7821  0.4370
  184bbb     C9 5332   9.691   4.606   6.938 -0.4266 -0.3393 -0.4877
  184bbb    H17 5333   9.775   4.545   6.972 -0.3594  0.2097  0.3392
  184bbb    H18 5334   9.694   4.591   6.829 -2.0618 -0.1963 -0.5838
  184bbb     O1 5335   9.258   5.046   6.741 -0.3840 -0.6199 -0.3784
  185bbb     N1 5336   8.429   5.775   6.388  0.2100 -0.1453  0.3897
  185bbb     C1 5337   8.287   5.745   6.350 -0.5104 -0.2844 -0.8240
  185bbb     H1 5338   8.227   5.837   6.353  0.0473  0.0638 -0.1613
  185bbb     H2 5339   8.257   5.675   6.428 -0.2615 -1.0503 -1.4016
  185bbb     C2 5340   8.459   5.751   6.536  0.2847 -0.7819  0.2386
  185bbb     H3 5341   8.442   5.646   6.564  2.9467 -1.3484  0.0350
  185bbb     H4 5342   8.379   5.804   6.589  0.0054 -0.9940  0.0338
  185bbb     C3 5343   8.487   5.900   6.330  0.4716 -0.1751 -0.3136
  185bbb     H5 5344   8.477   5.897   6.221  1.0461 -0.1358 -0.3722
  185bbb     H6 5345   8.596   5.893   6.346  0.4700  1.1734  0.3866
  185bbb     C4 5346   8.421   6.029   6.375 -0.0617 -0.0136 -0.0023
  185bbb     H7 5347   8.389   6.024   6.480 -3.0363  0.4430 -0.7838
  185bbb     H8 5348   8.324   6.038   6.324 -0.2013 -0.9184  0.0826
  185bbb     C5 5349   8.280   5.672   6.212  0.1178 -0.4466 -0.3812
  185bbb     H9 5350   8.337   5.579   6.201  1.8377  0.5047  0.2578
  185bbb    H10 5351   8.321   5.748   6.145  3.4134  0.8787  2.7841
  185bbb     C6 5352   8.604   5.789   6.581  0.3772 -0.0710 -0.5477
  185bbb    H11 5353   8.622   5.896   6.565  1.1507 -0.0453  0.4194
  185bbb    H12 5354   8.678   5.732   6.524 -0.6826 -0.3993 -1.6284
  185bbb     C7 5355   8.519   6.146   6.356  0.6427 -0.4169 -0.3562
  185bbb    H13 5356   8.459   6.235   6.336 -0.5193 -1.7007 -3.1147
  185bbb    H14 5357   8.580   6.117   6.269  1.2184 -0.5550  0.0860
  185bbb     C8 5358   8.631   5.771   6.725  0.0436  0.4846 -0.8450
  185bbb    H15 5359   8.733   5.804   6.747  0.4925 -0.9455 -0.7016
  185bbb    H16 5360   8.630   5.666   6.757 -0.5664  1.6364  3.4614
  185bbb     C9 5361   8.131   5.649   6.176  0.5747  0.3138 -0.4095
  185bbb    H17 5362   8.093   5.569   6.241 -0.0593 -1.5165 -2.8938
  185bbb    H18 5363   8.124   5.607   6.075  2.6137 -0.4098 -0.2949
  185bbb     O1 5364   8.605   6.146   6.471 -0.2801 -0.1041  0.2069
  186bbb     N1 5365   9.595   6.139   7.044 -0.4533 -0.1433  0.2131
  186bbb     C1 5366   9.684   6.044   7.125  0.0748 -0.2720  1.0595
  186bbb     H1 5367   9.678   5.941   7.089  0.1652  0.8297 -2.4485
  186bbb     H2 5368   9.656   6.051   7.231 -0.6640 -1.2531  0.9379
  186bbb     C2 5369   9.458   6.135   7.092  0.5189 -0.1923  0.2410
  186bbb     H3 5370   9.400   6.221   7.056  1.4475  1.5932  2.7292
  186bbb     H4 5371   9.452   6.166   7.197 -1.1611  0.4166 -0.0009
  186bbb     C3 5372   9.619   6.123   6.896  0.4073  0.3167  0.0561
  186bbb     H5 5373   9.587   6.019   6.881 -1.6482  1.0967 -1.6191
  186bbb     H6 5374   9.724   6.141   6.870  0.3293  0.8337  0.0999
  186bbb     C4 5375   9.537   6.212   6.799 -0.2407  0.5959 -0.0449
  186bbb     H7 5376   9.559   6.315   6.829  1.5884  0.2720 -0.1767
  186bbb     H8 5377   9.432   6.191   6.821  0.2573 -0.2006  1.6941
  186bbb     C5 5378   9.832   6.075   7.120 -1.2903 -0.1767  0.3778
  186bbb     H9 5379   9.871   6.062   7.019 -0.5635 -1.6336  0.8206
  186bbb    H10 5380   9.888   6.002   7.178  0.7971  0.2433 -1.0192
  186bbb     C6 5381   9.374   6.013   7.072 -0.2094  0.3014  0.0606
  186bbb    H11 5382   9.420   5.934   7.132  0.6156  0.6064 -0.1500
  186bbb    H12 5383   9.367   5.980   6.968  0.4829  0.7473 -0.1397
  186bbb     C7 5384   9.562   6.185   6.653 -0.0349  0.1559  0.5477
  186bbb    H13 5385   9.546   6.077   6.642 -0.6179  0.1166  1.6370
  186bbb    H14 5386   9.669   6.193   6.632 -0.0398 -1.8276 -0.4937
  186bbb     C8 5387   9.230   6.035   7.129  0.1932 -0.1553  1.0881
  186bbb    H15 5388   9.190   6.119   7.070  1.2015 -0.4558 -0.0621
  186bbb    H16 5389   9.240   6.064   7.234  0.5564 -0.3731  1.1131
  186bbb     C9 5390   9.884   6.217   7.171  0.2144 -0.1920  0.5564
  186bbb    H17 5391   9.824   6.285   7.108 -1.0469 -2.5521 -0.9200
  186bbb    H18 5392   9.991   6.236   7.161  0.5399 -1.8566  0.6407
  186bbb     O1 5393   9.473   6.271   6.576 -0.5530 -0.3334  0.3436
  187bbb     N1 5394   7.232   4.956   5.606  0.0068  0.0978 -0.1743
  187bbb     C1 5395   7.293   4.981   5.736 -0.7534 -0.3534  0.1165
  187bbb     H1 5396   7.255   4.903   5.803 -0.3579 -2.1388 -1.6557
  187bbb     H2 5397   7.256   5.081   5.761  0.8056  1.1393 -2.9250
  187bbb     C2 5398   7.230   4.817   5.560 -0.1267 -0.0380  0.5569
  187bbb     H3 5399   7.196   4.755   5.644  0.2161  0.4240  1.0351
  187bbb     H4 5400   7.328   4.781   5.526 -0.1717 -1.8727  2.1826
  187bbb     C3 5401   7.263   5.055   5.495 -0.3670  0.2433  0.0015
  187bbb     H5 5402   7.185   5.041   5.419 -0.9878  0.5240  0.5751
  187bbb     H6 5403   7.362   5.037   5.452 -1.0335 -0.8166 -1.1506
  187bbb     C4 5404   7.255   5.204   5.528  0.1792 -0.5504 -0.5790
  187bbb     H7 5405   7.325   5.219   5.611 -0.1201  2.2515 -0.7401
  187bbb     H8 5406   7.154   5.224   5.566  0.4828 -1.1703  0.5794
  187bbb     C5 5407   7.449   4.977   5.729 -0.0287 -0.3485 -0.0718
  187bbb     H9 5408   7.488   5.033   5.643 -0.2883 -0.5547 -0.3277
  187bbb    H10 5409   7.478   4.872   5.729 -0.3634 -0.4608 -1.4171
  187bbb     C6 5410   7.133   4.795   5.444  0.4451 -0.3632  0.1154
  187bbb    H11 5411   7.171   4.847   5.355 -1.9842  1.8081  0.2302
  187bbb    H12 5412   7.041   4.848   5.471  1.5588  1.9704 -0.4451
  187bbb     C7 5413   7.290   5.310   5.416  0.3902 -0.1171  0.2071
  187bbb    H13 5414   7.301   5.405   5.470  2.9513 -0.2421  0.0234
  187bbb    H14 5415   7.218   5.309   5.333 -0.3497 -1.9565  0.8212
  187bbb     C8 5416   7.116   4.644   5.412 -0.2999 -0.0358  0.4001
  187bbb    H15 5417   7.096   4.583   5.501 -2.2361 -0.9346 -0.5936
  187bbb    H16 5418   7.206   4.606   5.361 -0.6542 -0.1891 -0.1103
  187bbb     C9 5419   7.503   5.046   5.854  0.3629 -0.3291  0.0865
  187bbb    H17 5420   7.452   5.015   5.946 -1.8894 -0.0550 -0.9855
  187bbb    H18 5421   7.490   5.154   5.839 -2.3073 -0.1353  2.7743
  187bbb     O1 5422   7.416   5.272   5.355 -0.2166 -0.0667 -0.3669
  188bbb     N1 5423   7.601   4.842   4.710  0.4370  0.0158 -0.2402
  188bbb     C1 5424   7.475   4.797   4.762 -0.1916  0.2040  0.3952
  188bbb     H1 5425   7.437   4.868   4.837 -1.3716  0.1753 -0.1700
  188bbb     H2 5426   7.488   4.703   4.817 -1.2007 -1.1934 -1.6389
  188bbb     C2 5427   7.585   4.964   4.615 -0.3847 -0.7913 -0.0208
  188bbb     H3 5428   7.534   4.927   4.526 -0.3158 -0.1861 -0.3193
  188bbb     H4 5429   7.686   4.997   4.588 -0.0374 -0.7404  1.2785
  188bbb     C3 5430   7.697   4.847   4.824  0.0035 -0.8675  0.1969
  188bbb     H5 5431   7.694   4.756   4.886  0.4805 -0.5779  0.6561
  188bbb     H6 5432   7.665   4.927   4.892  1.9902  2.5707 -2.5577
  188bbb     C4 5433   7.840   4.871   4.772 -0.8856 -0.3023 -0.3784
  188bbb     H7 5434   7.846   4.964   4.714 -0.9844 -0.1890 -0.2081
  188bbb     H8 5435   7.859   4.791   4.700 -0.3971  0.5239 -1.1784
  188bbb     C5 5436   7.374   4.765   4.657  0.4134  0.1749  0.3895
  188bbb     H9 5437   7.425   4.701   4.583  0.0598  0.6096 -0.2425
  188bbb    H10 5438   7.339   4.853   4.602 -2.3832 -0.1365  1.5307
  188bbb     C6 5439   7.517   5.100   4.665  0.1271 -0.2459  0.0233
  188bbb    H11 5440   7.423   5.076   4.717  1.7518  2.4796  4.7611
  188bbb    H12 5441   7.491   5.167   4.582 -2.4003 -0.7391  0.3328
  188bbb     C7 5442   7.941   4.862   4.886 -0.9653  0.0477 -0.0647
  188bbb    H13 5443   8.046   4.861   4.854 -0.5223 -2.0640  1.2189
  188bbb    H14 5444   7.925   4.766   4.936  1.6970 -0.3205  0.2227
  188bbb     C8 5445   7.588   5.186   4.764  0.3023 -0.2498 -0.4286
  188bbb    H15 5446   7.578   5.138   4.862 -1.0414  0.1260 -0.3545
  188bbb    H16 5447   7.545   5.287   4.771  1.1389  0.1863 -1.3181
  188bbb     C9 5448   7.248   4.698   4.724  1.1610 -0.1116  0.0309
  188bbb    H17 5449   7.168   4.699   4.650  0.2173  1.8299  0.9903
  188bbb    H18 5450   7.224   4.747   4.819  2.4721  1.8897 -0.6028
  188bbb     O1 5451   7.925   4.969   4.981  0.1900 -0.4181  0.1013
  189bbb     N1 5452   6.923   5.856   6.442 -0.0878  0.2109  0.0337
  189bbb     C1 5453   6.801   5.797   6.374  0.5310 -0.0845 -0.5948
  189bbb     H1 5454   6.760   5.707   6.420 -0.8710  0.1277 -1.3588
  189bbb     H2 5455   6.819   5.773   6.268  0.0985  0.4520 -0.7992
  189bbb     C2 5456   6.973   5.976   6.374 -0.1914  0.1854  0.3666
  189bbb     H3 5457   7.069   6.006   6.419 -1.1269  0.0645  2.5838
  189bbb     H4 5458   6.903   6.056   6.401  1.4246  1.6876  0.2966
  189bbb     C3 5459   7.032   5.754   6.452 -0.4590 -0.3740 -0.4206
  189bbb     H5 5460   7.125   5.798   6.491 -0.6646 -0.5485  0.2721
  189bbb     H6 5461   7.047   5.701   6.357  0.4710 -1.5489  0.3454
  189bbb     C4 5462   6.999   5.639   6.554 -0.7537  0.3413  0.7140
  189bbb     H7 5463   6.904   5.590   6.530  0.8701 -2.7930  0.2079
  189bbb     H8 5464   6.993   5.680   6.655  1.1933 -1.1799  1.5026
  189bbb     C5 5465   6.684   5.904   6.388  0.0018  0.6093  0.0281
  189bbb     H9 5466   6.698   5.999   6.336  0.7188  0.8146  0.5820
  189bbb    H10 5467   6.681   5.938   6.492  0.8802 -1.0503  0.6338
  189bbb     C6 5468   6.992   5.980   6.225  0.2991 -0.2230  0.6246
  189bbb    H11 5469   6.896   5.956   6.178 -0.4179 -1.9446  2.8170
  189bbb    H12 5470   7.071   5.910   6.195  0.1635 -0.1456  0.0818
  189bbb     C7 5471   7.096   5.528   6.541 -0.1107  0.4547  0.3480
  189bbb    H13 5472   7.101   5.488   6.439 -3.3876  0.1979  0.1921
  189bbb    H14 5473   7.062   5.447   6.607 -2.1101 -0.6220 -1.8915
  189bbb     C8 5474   7.044   6.115   6.168  0.0021 -0.2341  0.6169
  189bbb    H15 5475   6.967   6.192   6.158  0.0049 -0.2507  0.4795
  189bbb    H16 5476   7.061   6.097   6.062 -0.6313  1.3468  0.2196
  189bbb     C9 5477   6.547   5.841   6.355  0.5169 -0.5072 -0.9717
  189bbb    H17 5478   6.509   5.791   6.444  2.3369 -2.2635 -1.1190
  189bbb    H18 5479   6.553   5.758   6.284 -2.3926 -1.7004  0.0318
  189bbb     O1 5480   7.225   5.577   6.590  0.3227  0.2453  0.0395
  190bbb     N1 5481   7.731   5.779   5.681  0.0790  0.1254  0.3815
  190bbb     C1 5482   7.647   5.692   5.605 -0.1078  0.3830 -0.0901
  190bbb     H1 5483   7.701   5.660   5.515 -2.1218 -0.9437 -0.9179
  190bbb     H2 5484   7.557   5.746   5.572 -1.3533 -1.0505  0.8658
  190bbb     C2 5485   7.786   5.885   5.602  0.2504 -0.4491  0.0295
  190bbb     H3 5486   7.701   5.944   5.567 -0.0781 -1.5931 -1.1955
  190bbb     H4 5487   7.833   5.849   5.510 -0.6438 -0.3660 -0.4738
  190bbb     C3 5488   7.669   5.817   5.810  0.6237 -0.1929 -0.3964
  190bbb     H5 5489   7.743   5.873   5.868 -0.5065  0.8775  0.0633
  190bbb     H6 5490   7.647   5.727   5.869 -0.5130  0.7283  0.6312
  190bbb     C4 5491   7.546   5.906   5.793 -0.1256  0.2667  0.2166
  190bbb     H7 5492   7.484   5.846   5.724  1.4251 -0.0030 -1.0032
  190bbb     H8 5493   7.573   5.992   5.730  1.3460 -0.3599 -0.0398
  190bbb     C5 5494   7.620   5.548   5.669  0.2436  0.3484 -0.3450
  190bbb     H9 5495   7.574   5.481   5.597 -1.0400  0.8570 -0.0181
  190bbb    H10 5496   7.552   5.552   5.755  0.6101 -0.3540 -0.0104
  190bbb     C6 5497   7.890   5.985   5.673 -0.1727 -0.0809  0.0410
  190bbb    H11 5498   7.834   6.035   5.753  0.3811  0.7287 -0.0622
  190bbb    H12 5499   7.926   6.062   5.603 -0.6737  0.3288  0.2267
  190bbb     C7 5500   7.484   5.955   5.922 -0.9019 -0.2816 -0.0689
  190bbb    H13 5501   7.393   6.008   5.889  0.0219  0.8095 -0.9140
  190bbb    H14 5502   7.559   6.020   5.968 -1.5348  0.1773  0.3441
  190bbb     C8 5503   8.017   5.925   5.736 -0.0426  0.0851 -0.5486
  190bbb    H15 5504   8.084   5.873   5.666  0.4309  0.6298 -0.5096
  190bbb    H16 5505   7.974   5.848   5.801 -1.4414 -0.9341 -2.5766
  190bbb     C9 5506   7.740   5.466   5.717 -0.4287  0.4062  0.3834
  190bbb    H17 5507   7.814   5.486   5.638 -2.5033 -0.6385 -1.9969
  190bbb    H18 5508   7.728   5.358   5.700  1.5889  0.3238 -0.7736
  190bbb     O1 5509   7.452   5.857   6.017  0.6647  0.8645  0.6181
  191ccc     C3 5510   6.960   2.351  10.452 -0.2963  1.0964  0.0106
  191ccc     H5 5511   6.873   2.337  10.517 -0.6596 -0.2430 -0.7271
  191ccc     H6 5512   7.055   2.355  10.506 -0.6000  2.3344  0.4783
  191ccc     C2 5513   6.957   2.493  10.381 -0.2895  0.2730 -0.1109
  191ccc     H3 5514   7.052   2.523  10.335 -1.6530  4.9056 -0.4888
  191ccc     H4 5515   6.940   2.572  10.456 -0.4384  1.6786 -1.5768
  191ccc     C1 5516   6.844   2.491  10.272 -0.6371 -0.4827 -0.0754
  191ccc     H1 5517   6.761   2.437  10.320  0.1371 -1.5416  0.1010
  191ccc     H2 5518   6.882   2.448  10.178  3.6052  1.2163  0.6475
  191ccc     N1 5519   6.796   2.626  10.250 -0.7694  0.1663  0.2675
  191ccc     C4 5520   6.900   2.716  10.199  0.0692  1.1147  0.1766
  191ccc     H7 5521   6.990   2.701  10.261  1.3206 -0.8111 -1.9532
  191ccc     H8 5522   6.867   2.821  10.194  0.0859  1.1277  0.3494
  191ccc     C5 5523   6.944   2.677  10.058 -0.2100 -0.5837  0.2886
  191ccc     H9 5524   6.992   2.578  10.052 -0.4044 -0.5979 -1.7738
  191ccc    H10 5525   6.861   2.676   9.986  1.2796 -2.6497 -1.5369
  191ccc     C6 5526   7.051   2.776  10.003  0.0819 -0.1419  0.2838
  191ccc     O2 5527   7.028   2.871   9.923  0.4281  0.1266  0.0978
  191ccc     O3 5528   7.169   2.766  10.035  0.2830 -0.3954  0.7042
  191ccc     C7 5529   6.676   2.621  10.168 -0.4871  0.4111  0.2303
  191ccc    H11 5530   6.701   2.557  10.083 -1.4676 -2.5625  2.0184
  191ccc    H12 5531   6.601   2.572  10.232  0.5101  1.4906  2.3504
  191ccc     C8 5532   6.596   2.745  10.132  0.7403 -0.2703  0.8247
  191ccc    H13 5533   6.550   2.793  10.219 -1.5002 -1.3827  0.3225
  191ccc    H14 5534   6.653   2.813  10.066  0.6542 -3.0169 -2.3790
  191ccc     C9 5535   6.485   2.703  10.047  0.6656  0.1408  0.1118
  191ccc     O4 5536   6.385   2.663  10.099  0.3734  0.2341 -0.1069
  191ccc     O5 5537   6.493   2.689   9.929 -0.2690  0.7856  0.3025
  191ccc     O1 5538   6.972   2.246  10.352  0.3570 -0.2424 -0.4169
  192ccc     C3 5539   6.521   1.559   9.953  1.0268  0.3452 -0.1471
  192ccc     H5 5540   6.564   1.459   9.965  0.9164  0.5262  2.3952
  192ccc     H6 5541   6.463   1.583  10.043  0.9858  0.9512 -0.3325
  192ccc     C2 5542   6.427   1.553   9.835  0.7568 -0.4828 -0.1611
  192ccc     H3 5543   6.350   1.476   9.850  1.2935 -0.8595  0.6808
  192ccc     H4 5544   6.480   1.522   9.744  2.2427  2.5134 -0.4332
  192ccc     C1 5545   6.357   1.688   9.811 -0.4300 -0.6315 -0.3055
  192ccc     H1 5546   6.423   1.764   9.767 -1.0382  0.7495  1.0799
  192ccc     H2 5547   6.342   1.725   9.913 -2.0290  2.7578 -1.6174
  192ccc     N1 5548   6.223   1.686   9.748 -0.2213 -0.3104  0.0711
  192ccc     C4 5549   6.228   1.616   9.620  0.4008 -0.4364  0.0120
  192ccc     H7 5550   6.128   1.616   9.575 -0.3552  2.3988  1.4800
  192ccc     H8 5551   6.251   1.511   9.639  0.8271 -0.5484 -1.0257
  192ccc     C5 5552   6.317   1.671   9.511 -0.9429 -0.0921 -0.0360
  192ccc     H9 5553   6.262   1.742   9.449 -0.3775 -0.9996 -1.6211
  192ccc    H10 5554   6.408   1.720   9.550  0.4103 -0.6916 -2.2761
  192ccc     C6 5555   6.382   1.566   9.434  0.7430  0.2076 -0.6416
  192ccc     O2 5556   6.502   1.546   9.453  0.2055  1.3196  0.1622
  192ccc     O3 5557   6.336   1.548   9.328  1.0854 -0.2973  0.0407
  192ccc     C7 5558   6.166   1.822   9.740 -0.0142  0.2606 -0.2168
  192ccc    H11 5559   6.228   1.896   9.689 -0.9050  0.3352 -1.2122
  192ccc    H12 5560   6.074   1.815   9.680 -1.4397 -0.3922  1.9245
  192ccc     C8 5561   6.125   1.871   9.880  0.0540 -0.7663  0.9340
  192ccc    H13 5562   6.032   1.819   9.904 -0.8413 -1.3927 -3.1060
  192ccc    H14 5563   6.200   1.849   9.956  0.8006  0.0906  0.4716
  192ccc     C9 5564   6.104   2.021   9.880 -0.3748  0.5106  0.3476
  192ccc     O4 5565   6.202   2.086   9.922  0.5082  0.4704 -0.1125
  192ccc     O5 5566   6.014   2.070   9.817 -0.3371  0.4307 -0.4231
  192ccc     O1 5567   6.628   1.655   9.938 -0.0471 -0.4312  0.1522
  193ccc     C3 5568   8.368   0.693   9.103 -0.0159 -0.1511 -0.1862
  193ccc     H5 5569   8.440   0.641   9.167  0.3677  0.1124 -0.3960
  193ccc     H6 5570   8.325   0.613   9.043  0.4738 -2.8888  2.8423
  193ccc     C2 5571   8.459   0.798   9.024  0.4172 -0.2831 -0.7115
  193ccc     H3 5572   8.406   0.816   8.929  1.0186  1.9355 -0.6880
  193ccc     H4 5573   8.548   0.743   8.992  0.1670 -0.7740 -0.5718
  193ccc     C1 5574   8.498   0.935   9.093 -0.1719 -0.9638  0.0450
  193ccc     H1 5575   8.411   0.966   9.152  0.4439 -2.1069  1.6122
  193ccc     H2 5576   8.521   1.014   9.020 -0.4059 -0.6297  0.3304
  193ccc     N1 5577   8.611   0.942   9.188 -0.0792  0.2956  1.3264
  193ccc     C4 5578   8.728   0.919   9.097  0.5304  0.3633 -0.1282
  193ccc     H7 5579   8.720   0.977   9.004  1.0613  0.5088 -0.0876
  193ccc     H8 5580   8.752   0.815   9.075  0.7313  0.5815 -0.9755
  193ccc     C5 5581   8.854   0.968   9.161 -0.1059  0.4409  0.1362
  193ccc     H9 5582   8.831   1.069   9.196 -0.5036  1.1815 -2.1108
  193ccc    H10 5583   8.880   0.904   9.246  2.2110 -0.8130 -1.3958
  193ccc     C6 5584   8.969   0.975   9.066  0.3275  0.1432  0.0159
  193ccc     O2 5585   8.982   1.074   8.994  0.4600 -0.7210  0.5786
  193ccc     O3 5586   9.055   0.890   9.062  0.1485  0.2129 -0.4442
  193ccc     C7 5587   8.605   0.848   9.297  0.3081 -0.6938 -0.4033
  193ccc    H11 5588   8.598   0.741   9.273  0.4132 -0.9233  0.5294
  193ccc    H12 5589   8.695   0.855   9.360  0.2905  1.3549 -0.5309
  193ccc     C8 5590   8.497   0.894   9.394  0.6065 -0.4533 -0.3508
  193ccc    H13 5591   8.521   1.000   9.413  2.6604 -0.8440 -0.5310
  193ccc    H14 5592   8.393   0.876   9.365  0.1273 -0.4084  1.2442
  193ccc     C9 5593   8.518   0.820   9.529 -0.6968 -0.6285  0.3922
  193ccc     O4 5594   8.581   0.865   9.625  0.9093 -0.8393  0.7804
  193ccc     O5 5595   8.468   0.713   9.546  0.1091 -0.0709 -0.5049
  193ccc     O1 5596   8.266   0.769   9.168  0.3416  0.2277  0.7271
  194ccc     C3 5597   8.221   0.975   8.632 -0.2349 -0.2907  0.6349
  194ccc     H5 5598   8.133   0.967   8.567  2.2002  1.0572 -3.1806
  194ccc     H6 5599   8.270   1.063   8.588 -0.3711 -0.2409  0.5793
  194ccc     C2 5600   8.302   0.853   8.621 -0.9475  0.4841  0.0478
  194ccc     H3 5601   8.402   0.863   8.665  0.0071  2.2565 -2.3005
  194ccc     H4 5602   8.326   0.836   8.515 -0.7281 -0.9609  0.3090
  194ccc     C1 5603   8.239   0.726   8.689 -0.4794  0.6265 -0.0162
  194ccc     H1 5604   8.237   0.743   8.797  0.3765  1.6605 -0.1512
  194ccc     H2 5605   8.303   0.639   8.672 -0.3489  0.4599  1.2624
  194ccc     N1 5606   8.100   0.694   8.642 -0.8562  0.3104 -0.3772
  194ccc     C4 5607   8.045   0.578   8.719 -0.6132 -0.3032  0.7394
  194ccc     H7 5608   7.938   0.581   8.700 -0.2777 -2.9971 -2.4855
  194ccc     H8 5609   8.064   0.586   8.827  0.4067  0.4846  0.5230
  194ccc     C5 5610   8.096   0.443   8.667 -0.9874 -0.0211 -0.0302
  194ccc     H9 5611   8.040   0.414   8.577 -1.4070 -1.1792  0.5937
  194ccc    H10 5612   8.202   0.425   8.645 -1.6133 -2.3330 -1.5101
  194ccc     C6 5613   8.061   0.335   8.760 -0.1604 -0.0704  0.0783
  194ccc     O2 5614   7.944   0.293   8.769  0.7053 -0.2890 -0.3882
  194ccc     O3 5615   8.154   0.295   8.832  0.6513  0.4349  0.5239
  194ccc     C7 5616   8.087   0.694   8.499 -0.2133  0.0555 -0.3610
  194ccc    H11 5617   8.111   0.793   8.458  2.0014 -0.1163  0.3449
  194ccc    H12 5618   8.153   0.612   8.467  0.5770  0.3064  0.5712
  194ccc     C8 5619   7.944   0.668   8.460  0.0067  0.1183 -0.6821
  194ccc    H13 5620   7.916   0.564   8.483  0.1237  0.4026  0.8354
  194ccc    H14 5621   7.877   0.746   8.497  1.7929  1.2264  0.3794
  194ccc     C9 5622   7.933   0.677   8.314  0.0475 -0.5628 -1.3449
  194ccc     O4 5623   7.854   0.752   8.259 -0.0172  0.2193 -0.6002
  194ccc     O5 5624   7.991   0.593   8.251  0.3844  0.0474  0.1577
  194ccc     O1 5625   8.186   1.002   8.767 -0.5629  0.0309 -0.0829
  195ccc     C3 5626   7.437   1.277   7.650  0.3953 -0.4049  0.6996
  195ccc     H5 5627   7.528   1.220   7.673  0.4896 -0.1070  1.0819
  195ccc     H6 5628   7.354   1.212   7.620  1.6965 -2.4956  1.4514
  195ccc     C2 5629   7.460   1.382   7.538 -0.1894 -0.5495 -0.0943
  195ccc     H3 5630   7.527   1.463   7.570 -1.1632  0.6153 -0.9135
  195ccc     H4 5631   7.362   1.428   7.522 -0.3735 -1.2422 -1.0543
  195ccc     C1 5632   7.515   1.311   7.413  0.4880 -0.2785 -0.0741
  195ccc     H1 5633   7.622   1.307   7.435  0.0128  0.7935  2.8512
  195ccc     H2 5634   7.511   1.373   7.323  1.9692 -0.9906 -0.6626
  195ccc     N1 5635   7.467   1.178   7.376 -0.1420  0.6037 -0.5361
  195ccc     C4 5636   7.582   1.092   7.344  0.1410 -0.0908 -0.2365
  195ccc     H7 5637   7.546   0.989   7.349  0.7689 -0.3121 -0.1463
  195ccc     H8 5638   7.656   1.091   7.425 -0.4383 -2.9813  0.3634
  195ccc     C5 5639   7.636   1.113   7.204  0.0553  0.2503 -0.9502
  195ccc     H9 5640   7.550   1.110   7.136 -1.9774 -1.1116  1.5035
  195ccc    H10 5641   7.682   1.212   7.190  0.1202  0.6609  1.7474
  195ccc     C6 5642   7.734   1.001   7.191  0.2271  0.1931 -0.4055
  195ccc     O2 5643   7.713   0.896   7.130 -0.0256 -0.2790  0.3262
  195ccc     O3 5644   7.843   1.002   7.243  0.2065 -0.1680 -0.0279
  195ccc     C7 5645   7.340   1.174   7.306  0.1660  0.0026 -0.3621
  195ccc    H11 5646   7.265   1.241   7.350  0.4367 -0.4269  0.7847
  195ccc    H12 5647   7.351   1.193   7.198  0.1943  2.8534  0.0784
  195ccc     C8 5648   7.276   1.035   7.336  0.4232  0.2762  0.0565
  195ccc    H13 5649   7.342   0.949   7.320 -0.4370 -0.4424  0.3369
  195ccc    H14 5650   7.231   1.037   7.435 -1.6884 -1.6149 -0.7865
  195ccc     C9 5651   7.170   1.008   7.232 -0.1729 -0.3963 -0.3965
  195ccc     O4 5652   7.049   0.996   7.262 -0.3412 -0.5286  0.3073
  195ccc     O5 5653   7.198   0.984   7.117 -0.8081 -0.5612 -0.1061
  195ccc     O1 5654   7.394   1.344   7.773  0.1678  0.4277 -0.0713
  196ccc     C3 5655   6.580   1.695   7.796  0.1498 -0.1640  0.1607
  196ccc     H5 5656   6.506   1.624   7.756  1.0197 -1.6064  1.0065
  196ccc     H6 5657   6.530   1.745   7.880 -1.7526  1.2536 -1.7237
  196ccc     C2 5658   6.606   1.804   7.689 -0.0050 -0.1751 -0.2450
  196ccc     H3 5659   6.515   1.849   7.645 -0.8052 -1.5463 -0.0467
  196ccc     H4 5660   6.651   1.757   7.600 -1.9421 -1.1905 -0.7441
  196ccc     C1 5661   6.701   1.920   7.723 -0.7732  0.4421 -0.0827
  196ccc     H1 5662   6.800   1.873   7.734 -0.7763  0.3484 -0.4510
  196ccc     H2 5663   6.662   1.964   7.816 -3.9183 -1.2607 -0.4718
  196ccc     N1 5664   6.707   2.031   7.631  1.0617  0.1555  0.1883
  196ccc     C4 5665   6.723   1.998   7.488  0.1908  0.0036 -0.1452
  196ccc     H7 5666   6.666   1.911   7.454  1.3688 -0.8270 -0.0730
  196ccc     H8 5667   6.828   1.976   7.464 -0.7356 -2.1582 -2.8092
  196ccc     C5 5668   6.680   2.103   7.382  0.7976  0.1178  0.1844
  196ccc     H9 5669   6.583   2.151   7.404 -0.3036 -1.1693 -1.6447
  196ccc    H10 5670   6.746   2.190   7.385 -0.0150  0.7305  0.9463
  196ccc     C6 5671   6.673   2.051   7.246  0.4203  0.1386 -0.8513
  196ccc     O2 5672   6.566   2.009   7.208 -0.4774 -0.6205 -0.5164
  196ccc     O3 5673   6.745   2.089   7.160 -0.0180 -0.5676 -0.2344
  196ccc     C7 5674   6.786   2.136   7.681 -0.5369  1.3066  0.5862
  196ccc    H11 5675   6.881   2.089   7.711 -0.6010 -1.4739 -2.9480
  196ccc    H12 5676   6.810   2.200   7.595  0.0994  0.3758  0.0552
  196ccc     C8 5677   6.713   2.212   7.788 -0.8451 -1.2356 -0.4788
  196ccc    H13 5678   6.620   2.248   7.741  0.4183  0.1865 -2.0121
  196ccc    H14 5679   6.692   2.153   7.878  2.8017 -1.8607  0.1191
  196ccc     C9 5680   6.802   2.331   7.835  1.0150  0.2441 -0.0877
  196ccc     O4 5681   6.774   2.439   7.786  0.0527  0.0662 -0.4380
  196ccc     O5 5682   6.855   2.336   7.948 -0.3073  0.2879  0.7049
  196ccc     O1 5683   6.707   1.621   7.831  0.6639 -0.0124 -0.2243
  197ccc     C3 5684   8.162   1.339   6.730  0.3488  0.1435  0.6524
  197ccc     H5 5685   8.240   1.271   6.693 -0.1404  0.4582 -1.0713
  197ccc     H6 5686   8.101   1.353   6.640  2.1823  1.9416 -0.3849
  197ccc     C2 5687   8.222   1.476   6.762  0.7043  0.4154  0.0717
  197ccc     H3 5688   8.143   1.546   6.792  1.2553  1.2202 -0.3580
  197ccc     H4 5689   8.263   1.517   6.670  1.0679 -0.1540 -0.0277
  197ccc     C1 5690   8.325   1.454   6.878  0.1271 -0.6891 -0.6215
  197ccc     H1 5691   8.398   1.385   6.834  0.1337 -0.2945 -1.2471
  197ccc     H2 5692   8.271   1.403   6.959  2.1810  0.2346  1.4488
  197ccc     N1 5693   8.396   1.577   6.915 -0.5299  0.0257 -0.7227
  197ccc     C4 5694   8.502   1.527   7.002 -0.6493 -0.4086 -0.6719
  197ccc     H7 5695   8.557   1.444   6.956  1.8594  1.2698 -0.8511
  197ccc     H8 5696   8.473   1.500   7.104  1.4647  1.3683  0.4597
  197ccc     C5 5697   8.610   1.638   7.030 -0.6040  0.1775 -0.5396
  197ccc     H9 5698   8.657   1.660   6.933  0.4396 -0.2238 -0.1373
  197ccc    H10 5699   8.580   1.732   7.078  1.4400 -0.0557  1.3588
  197ccc     C6 5700   8.724   1.566   7.102  0.6673 -0.0729  0.8013
  197ccc     O2 5701   8.832   1.579   7.042 -0.8814  0.2646 -0.6727
  197ccc     O3 5702   8.713   1.509   7.210 -0.2795  0.3975  0.3213
  197ccc     C7 5703   8.307   1.680   6.973 -0.2852  0.1279  0.1208
  197ccc    H11 5704   8.355   1.774   7.004  0.8687  0.1744 -1.6433
  197ccc    H12 5705   8.233   1.704   6.896  1.1135 -0.1907 -1.3924
  197ccc     C8 5706   8.225   1.625   7.092 -0.4394 -0.2640 -0.3124
  197ccc    H13 5707   8.160   1.541   7.068  1.1035 -2.2687  1.9359
  197ccc    H14 5708   8.291   1.587   7.172 -0.9931  0.5796  0.5806
  197ccc     C9 5709   8.151   1.743   7.148  0.5272 -0.1688  0.3249
  197ccc     O4 5710   8.196   1.807   7.244  0.4556 -0.1756  0.2193
  197ccc     O5 5711   8.031   1.757   7.127  0.3134 -0.0093  0.0855
  197ccc     O1 5712   8.083   1.284   6.834  0.3451 -0.2727  0.0374
  198ccc     C3 5713   8.617   0.995   7.230 -0.5871 -0.5418 -0.2336
  198ccc     H5 5714   8.563   0.938   7.152 -1.1424  0.2173 -0.4173
  198ccc     H6 5715   8.701   1.043   7.178 -2.8617 -0.0615 -3.8721
  198ccc     C2 5716   8.657   0.917   7.352 -0.7146 -0.8573 -0.6653
  198ccc     H3 5717   8.710   0.989   7.416 -2.0581  0.3108 -0.8089
  198ccc     H4 5718   8.720   0.832   7.328 -2.3770 -2.6047  0.8227
  198ccc     C1 5719   8.534   0.862   7.429 -0.1522 -0.2469  0.5281
  198ccc     H1 5720   8.456   0.828   7.360  1.2642 -0.9159 -0.7963
  198ccc     H2 5721   8.489   0.950   7.478  0.4666  0.1598  0.3821
  198ccc     N1 5722   8.575   0.760   7.521 -0.1603 -0.4703 -0.5340
  198ccc     C4 5723   8.572   0.632   7.450  0.0040  0.2232 -0.4188
  198ccc     H7 5724   8.620   0.633   7.352 -1.3409  2.8879 -1.1731
  198ccc     H8 5725   8.466   0.611   7.428  0.2451 -0.6793 -0.7150
  198ccc     C5 5726   8.637   0.523   7.535  0.9628  0.1768 -0.3798
  198ccc     H9 5727   8.606   0.517   7.640  1.5805  2.3657 -0.0260
  198ccc    H10 5728   8.627   0.422   7.494  0.1510 -0.6679  1.7402
  198ccc     C6 5729   8.780   0.544   7.531 -0.0110  0.0199  0.2187
  198ccc     O2 5730   8.834   0.514   7.422  0.0962 -0.0544 -0.9004
  198ccc     O3 5731   8.835   0.608   7.623  0.7863  0.5128  0.0741
  198ccc     C7 5732   8.502   0.778   7.648  0.1541  0.6619 -0.2300
  198ccc    H11 5733   8.403   0.818   7.625 -0.5689 -0.0510  1.4811
  198ccc    H12 5734   8.485   0.679   7.693 -1.1856 -0.1307 -2.3456
  198ccc     C8 5735   8.566   0.883   7.735  0.4988 -0.1751 -0.7496
  198ccc    H13 5736   8.588   0.977   7.683 -0.9203  0.0268 -1.0141
  198ccc    H14 5737   8.504   0.911   7.821  1.3061  0.6333 -0.4120
  198ccc     C9 5738   8.690   0.834   7.794 -0.3748  0.3517 -0.4277
  198ccc     O4 5739   8.794   0.901   7.781 -0.0133 -0.3735  0.5466
  198ccc     O5 5740   8.687   0.743   7.875 -0.0061  0.3198  0.5225
  198ccc     O1 5741   8.519   1.091   7.273  0.4598  0.0561 -0.5524
  199ccc     C3 5742   7.852   3.265  10.101  0.0079  0.1409 -0.1517
  199ccc     H5 5743   7.831   3.275  10.208  1.0587  2.4649 -0.1018
  199ccc     H6 5744   7.961   3.266  10.083 -0.1283  0.5911 -1.0092
  199ccc     C2 5745   7.788   3.375  10.030  0.2905  0.1100 -0.1919
  199ccc     H3 5746   7.679   3.372  10.030  0.2431 -0.3208 -2.5906
  199ccc     H4 5747   7.821   3.373   9.926  0.1485  0.4725 -0.2423
  199ccc     C1 5748   7.843   3.518  10.065  0.2785 -0.0155 -0.3925
  199ccc     H1 5749   7.949   3.519  10.038  0.6835 -0.1154  1.1116
  199ccc     H2 5750   7.849   3.531  10.173  4.1925 -3.4998  0.0491
  199ccc     N1 5751   7.770   3.636  10.015  0.1686  0.1168  0.0305
  199ccc     C4 5752   7.627   3.647  10.067 -0.2222 -0.0048  0.2397
  199ccc     H7 5753   7.570   3.562  10.028 -0.5488  1.1276 -1.8617
  199ccc     H8 5754   7.572   3.736  10.033  1.2819  0.9582  0.2493
  199ccc     C5 5755   7.612   3.622  10.221  0.1791 -0.1764 -0.0523
  199ccc     H9 5756   7.630   3.517  10.246 -1.4264 -0.6588 -0.8040
  199ccc    H10 5757   7.684   3.692  10.266 -1.1171  1.1596  0.0274
  199ccc     C6 5758   7.475   3.646  10.273 -0.2905 -0.2816 -0.0866
  199ccc     O2 5759   7.397   3.557  10.271  0.7616  0.0104  0.6343
  199ccc     O3 5760   7.442   3.745  10.329  0.2096 -0.0247  0.1459
  199ccc     C7 5761   7.858   3.751  10.053  0.0681  0.0512  0.6886
  199ccc    H11 5762   7.848   3.769  10.160  0.8394 -3.0551  1.3794
  199ccc    H12 5763   7.964   3.727  10.036  0.6522  3.5119 -1.6764
  199ccc     C8 5764   7.822   3.869   9.960 -0.2806  0.8581  0.6938
  199ccc    H13 5765   7.873   3.845   9.866  0.5458  1.4650  0.9716
  199ccc    H14 5766   7.715   3.864   9.935  0.4901 -3.3860 -2.8252
  199ccc     C9 5767   7.864   4.004  10.010 -0.3012 -0.3961  0.1451
  199ccc     O4 5768   7.930   4.079   9.941 -0.6506  0.2971  0.4032
  199ccc     O5 5769   7.807   4.043  10.106  0.2419 -0.0385  0.3133
  199ccc     O1 5770   7.799   3.143  10.048  0.4695 -0.1551  0.0440
  200ccc     C3 5771   8.453   3.129   9.997  0.1792 -0.2638  0.2112
  200ccc     H5 5772   8.424   3.162  10.097 -0.7726  0.2318 -0.2157
  200ccc     H6 5773   8.513   3.038  10.010 -2.0009 -2.0707 -1.4544
  200ccc     C2 5774   8.532   3.247   9.935  0.1020 -0.1384  0.5194
  200ccc     H3 5775   8.469   3.336   9.923  0.1585  0.0866  1.7365
  200ccc     H4 5776   8.570   3.219   9.836  1.2989  1.6107  0.4304
  200ccc     C1 5777   8.667   3.284  10.003 -0.8440 -0.0771  0.3596
  200ccc     H1 5778   8.654   3.316  10.107  0.2726  1.7525 -0.0323
  200ccc     H2 5779   8.711   3.362   9.940 -0.3708 -1.5750 -1.2416
  200ccc     N1 5780   8.751   3.155   9.991 -0.8876 -0.2087 -0.0785
  200ccc     C4 5781   8.835   3.147   9.871  0.1180  0.1516 -0.3279
  200ccc     H7 5782   8.915   3.223   9.874  0.0639  0.1898  0.2734
  200ccc     H8 5783   8.769   3.188   9.793 -0.3087  3.2822  1.4934
  200ccc     C5 5784   8.878   3.010   9.828 -0.0056 -0.1467 -0.4143
  200ccc     H9 5785   8.826   2.928   9.879  3.7124 -2.2026  0.5089
  200ccc    H10 5786   8.862   2.995   9.721 -0.4653 -0.8029 -0.2566
  200ccc     C6 5787   9.026   3.003   9.858 -0.0263  0.0288  0.0893
  200ccc     O2 5788   9.110   3.066   9.800 -0.2071 -0.1300  0.5445
  200ccc     O3 5789   9.067   2.901   9.907  0.8291 -0.2045  0.6040
  200ccc     C7 5790   8.837   3.140  10.110  0.0989  0.5936 -0.6818
  200ccc    H11 5791   8.915   3.064  10.099 -0.6301  0.1436 -3.4590
  200ccc    H12 5792   8.876   3.242  10.122 -0.1169  1.3084 -4.6582
  200ccc     C8 5793   8.756   3.091  10.229 -0.4090 -0.7831  0.4192
  200ccc    H13 5794   8.660   3.143  10.242  0.3227  0.6713  0.1091
  200ccc    H14 5795   8.726   2.989  10.200  1.5520 -1.0543 -0.8937
  200ccc     C9 5796   8.838   3.093  10.348 -0.0257 -0.6265 -0.0136
  200ccc     O4 5797   8.913   3.004  10.383  0.5164 -0.2878 -0.3381
  200ccc     O5 5798   8.807   3.180  10.431  0.7270  0.0857 -0.3820
  200ccc     O1 5799   8.334   3.102   9.918 -0.3724  0.3588  0.6056
  201ccc     C3 5800   7.620   3.648   9.529 -0.3403  0.0800  0.3027
  201ccc     H5 5801   7.665   3.744   9.554 -1.8974  1.2982 -1.2804
  201ccc     H6 5802   7.617   3.650   9.420  0.0620 -0.3802  0.2812
  201ccc     C2 5803   7.473   3.646   9.565  0.1645  0.1314 -0.0969
  201ccc     H3 5804   7.429   3.545   9.568 -1.0614  0.6721  2.5972
  201ccc     H4 5805   7.415   3.685   9.481 -0.6024 -2.6243 -0.9833
  201ccc     C1 5806   7.446   3.707   9.709 -1.0203 -0.2603  0.3920
  201ccc     H1 5807   7.473   3.813   9.697 -1.1536 -0.3671 -0.9752
  201ccc     H2 5808   7.505   3.655   9.786  2.4530  1.3642 -0.9807
  201ccc     N1 5809   7.306   3.709   9.756  0.2994 -0.0804 -0.0293
  201ccc     C4 5810   7.295   3.747   9.900 -0.0825 -0.1348 -0.2635
  201ccc     H7 5811   7.356   3.836   9.921 -0.4604  0.2637 -0.8313
  201ccc     H8 5812   7.346   3.663   9.949 -0.7291 -1.2149 -1.3936
  201ccc     C5 5813   7.159   3.760   9.968  0.1841 -0.2212 -0.5038
  201ccc     H9 5814   7.111   3.855   9.942 -0.7037  0.0063  1.7626
  201ccc    H10 5815   7.093   3.679   9.936  0.6885 -1.1639  0.7637
  201ccc     C6 5816   7.172   3.761  10.119  0.4331 -0.1960  0.1295
  201ccc     O2 5817   7.164   3.657  10.177  0.0394 -0.7294 -0.4983
  201ccc     O3 5818   7.222   3.857  10.175  0.0466 -0.1173 -0.0315
  201ccc     C7 5819   7.217   3.772   9.665  0.2297  0.1211  0.2352
  201ccc    H11 5820   7.227   3.721   9.568 -0.2434  0.0575  0.2158
  201ccc    H12 5821   7.111   3.768   9.694 -0.4197  2.0220 -1.6634
  201ccc     C8 5822   7.243   3.918   9.645 -0.4847 -0.4279  0.7810
  201ccc    H13 5823   7.269   3.966   9.740 -4.2149  0.9049  1.2905
  201ccc    H14 5824   7.320   3.943   9.571 -0.3013  1.2590  1.5200
  201ccc     C9 5825   7.118   3.983   9.587 -0.0426  0.2690 -0.3248
  201ccc     O4 5826   7.094   3.990   9.466  0.0373 -0.4826 -0.8042
  201ccc     O5 5827   7.045   4.050   9.655 -0.2272  0.2205 -0.1475
  201ccc     O1 5828   7.686   3.528   9.580  0.3596 -0.4388  0.3904
  202ccc     C3 5829   7.865   3.128   9.511  0.0937  0.8646 -0.0282
  202ccc     H5 5830   7.861   3.213   9.443  1.1924 -0.0810 -1.3200
  202ccc     H6 5831   7.906   3.041   9.459 -0.2000  0.0073  1.1130
  202ccc     C2 5832   7.728   3.092   9.572  0.8940  0.2626 -0.4528
  202ccc     H3 5833   7.758   3.003   9.629  2.3679 -1.0819 -3.1292
  202ccc     H4 5834   7.651   3.058   9.502 -0.9447 -1.2889  2.1577
  202ccc     C1 5835   7.662   3.207   9.649  0.0463 -0.2554  0.2934
  202ccc     H1 5836   7.668   3.295   9.584  1.0191 -0.8622 -0.4649
  202ccc     H2 5837   7.712   3.221   9.745  1.0387 -1.9662  0.0720
  202ccc     N1 5838   7.521   3.180   9.678 -0.5458  0.6188 -0.1636
  202ccc     C4 5839   7.466   3.291   9.756 -0.0388  0.3709 -0.6843
  202ccc     H7 5840   7.484   3.378   9.691 -1.1380  1.0854 -0.0738
  202ccc     H8 5841   7.505   3.300   9.858 -2.2710 -3.1690  0.6682
  202ccc     C5 5842   7.310   3.288   9.771 -0.6766 -0.6112  0.0460
  202ccc     H9 5843   7.274   3.390   9.751  0.9488  0.0125  0.1711
  202ccc    H10 5844   7.266   3.211   9.705  0.3351 -2.0637  1.0013
  202ccc     C6 5845   7.275   3.254   9.908 -0.2843  0.1551  0.4099
  202ccc     O2 5846   7.285   3.324  10.003  0.3615  0.3708 -0.2668
  202ccc     O3 5847   7.192   3.156   9.919  0.0608 -0.5219  0.3191
  202ccc     C7 5848   7.509   3.055   9.750 -0.2545 -1.0991 -0.1624
  202ccc    H11 5849   7.604   3.012   9.782 -0.1983 -1.3833 -0.7012
  202ccc    H12 5850   7.449   3.088   9.836  0.9149 -1.0918  0.6766
  202ccc     C8 5851   7.442   2.951   9.663 -0.1427  0.0712 -0.1842
  202ccc    H13 5852   7.361   2.998   9.605  1.1357  1.9514 -0.5521
  202ccc    H14 5853   7.515   2.906   9.595 -2.3567  0.5629 -3.0920
  202ccc     C9 5854   7.393   2.847   9.751  0.4764  0.4046 -0.7142
  202ccc     O4 5855   7.284   2.866   9.806 -0.0300 -0.7997  0.3086
  202ccc     O5 5856   7.429   2.730   9.747 -0.2186 -0.6904 -0.1560
  202ccc     O1 5857   7.953   3.161   9.617 -0.3054  0.3083  0.2114
  203ccc     C3 5858   6.261   2.848   8.163  0.5145  0.1010  0.2193
  203ccc     H5 5859   6.236   2.746   8.133  2.8124 -0.4702  0.0924
  203ccc     H6 5860   6.171   2.908   8.143 -0.1926 -1.5461 -1.8561
  203ccc     C2 5861   6.387   2.898   8.082  0.0673  0.2866  0.6412
  203ccc     H3 5862   6.353   2.943   7.988  2.2690  0.7117  0.0073
  203ccc     H4 5863   6.445   2.808   8.061  1.1771  0.7338  1.7019
  203ccc     C1 5864   6.474   2.997   8.153 -0.1233 -0.4541 -0.2512
  203ccc     H1 5865   6.516   2.948   8.242  0.6165  1.6639  0.6407
  203ccc     H2 5866   6.418   3.085   8.188  1.2461 -0.1621  1.3609
  203ccc     N1 5867   6.579   3.027   8.060  0.1921 -0.4630 -0.4051
  203ccc     C4 5868   6.629   3.165   8.072 -0.1503 -0.5351 -0.4970
  203ccc     H7 5869   6.735   3.184   8.054 -0.6206  2.6159 -0.5410
  203ccc     H8 5870   6.610   3.194   8.176 -0.0688 -0.7229 -0.4298
  203ccc     C5 5871   6.562   3.260   7.975  1.0479  0.1844 -0.2372
  203ccc     H9 5872   6.582   3.240   7.869 -0.4741  2.9904 -1.1530
  203ccc    H10 5873   6.453   3.268   7.986  0.8843 -2.4855  0.8309
  203ccc     C6 5874   6.620   3.395   8.001  0.2476  0.6153  0.5394
  203ccc     O2 5875   6.715   3.438   7.943 -0.1992  0.4759  0.2789
  203ccc     O3 5876   6.566   3.477   8.074  0.3142 -0.5947  0.2278
  203ccc     C7 5877   6.683   2.927   8.073 -0.7245 -1.0107  0.2589
  203ccc    H11 5878   6.755   2.948   8.154 -1.4466  0.4484  0.5503
  203ccc    H12 5879   6.630   2.832   8.085  0.2289 -1.4172  1.5166
  203ccc     C8 5880   6.757   2.911   7.937  0.2618  0.8458  0.4679
  203ccc    H13 5881   6.673   2.927   7.868  0.0279 -0.5246  0.4026
  203ccc    H14 5882   6.824   2.995   7.920 -0.1804  1.0446 -0.3364
  203ccc     C9 5883   6.829   2.784   7.919 -0.3740  0.4136 -0.3451
  203ccc     O4 5884   6.932   2.780   7.846 -0.1679  0.1481 -0.2196
  203ccc     O5 5885   6.776   2.674   7.934  0.7096  0.7357  0.1984
  203ccc     O1 5886   6.299   2.855   8.307 -0.2953 -0.1888 -0.1643
  204ccc     C3 5887   6.072   2.869   8.933 -0.8079 -0.1149 -0.3653
  204ccc     H5 5888   6.150   2.810   8.886 -0.9940 -0.8972  0.2872
  204ccc     H6 5889   6.099   2.869   9.040  0.4200 -0.1407 -0.6690
  204ccc     C2 5890   5.939   2.793   8.914  0.0129 -0.4258  0.4182
  204ccc     H3 5891   5.921   2.770   8.809 -0.3529  0.5553  0.2541
  204ccc     H4 5892   5.854   2.857   8.945  0.0860 -0.5144  0.8083
  204ccc     C1 5893   5.915   2.664   8.993  0.5863 -0.3355  0.3812
  204ccc     H1 5894   5.977   2.587   8.945  0.5529 -2.1324  3.0006
  204ccc     H2 5895   5.812   2.638   8.968  0.3234  1.3959 -0.4275
  204ccc     N1 5896   5.937   2.667   9.140  0.2073  0.0825  0.0344
  204ccc     C4 5897   5.928   2.534   9.205 -0.8650  0.2412  0.6358
  204ccc     H7 5898   5.829   2.490   9.189 -0.1703 -1.3532  0.5645
  204ccc     H8 5899   5.942   2.552   9.312 -1.3908 -1.2234  0.9705
  204ccc     C5 5900   6.034   2.435   9.154  0.6614 -0.4335  0.5688
  204ccc     H9 5901   6.008   2.392   9.056 -1.8704 -0.1500  1.0436
  204ccc    H10 5902   6.134   2.479   9.151 -0.4186  2.2669 -2.8560
  204ccc     C6 5903   6.053   2.319   9.251 -0.1114  0.1435  0.4548
  204ccc     O2 5904   6.098   2.345   9.362  0.3137 -0.0795  0.2501
  204ccc     O3 5905   6.012   2.208   9.223  0.7554  0.3728 -0.3066
  204ccc     C7 5906   5.864   2.780   9.215  0.0809 -0.7027  0.1630
  204ccc    H11 5907   5.857   2.865   9.146 -1.4616 -1.2659 -0.4276
  204ccc    H12 5908   5.761   2.743   9.225 -0.5860  0.6857 -1.0687
  204ccc     C8 5909   5.935   2.832   9.344  0.8302 -0.0056  0.0482
  204ccc    H13 5910   5.921   2.754   9.420 -0.0084  0.0449 -0.0418
  204ccc    H14 5911   6.040   2.851   9.316  0.9601  1.0758  1.2000
  204ccc     C9 5912   5.874   2.959   9.398  0.1937 -0.1807 -0.5311
  204ccc     O4 5913   5.885   3.065   9.335  0.3116  0.3001  0.7905
  204ccc     O5 5914   5.855   2.961   9.516 -0.2052 -0.1021 -0.3547
  204ccc     O1 5915   6.063   2.999   8.888  0.0206  0.1153  0.5515
  205ccc     C3 5916   7.010   2.016   9.202 -0.7110 -0.2474 -0.1261
  205ccc     H5 5917   7.100   1.954   9.202 -0.8011 -0.4023  1.4280
  205ccc     H6 5918   7.029   2.101   9.268 -2.7652 -0.4469  0.7866
  205ccc     C2 5919   6.893   1.934   9.267 -0.2839 -0.2070 -0.0526
  205ccc     H3 5920   6.936   1.872   9.346 -0.9663  0.0209  0.5095
  205ccc     H4 5921   6.855   1.869   9.187 -0.1365 -2.1099  1.3369
  205ccc     C1 5922   6.783   2.034   9.319 -0.9977  0.1369  0.2465
  205ccc     H1 5923   6.736   2.076   9.229  0.6950  0.1219 -0.6787
  205ccc     H2 5924   6.821   2.125   9.366  1.1264  0.7945 -2.4345
  205ccc     N1 5925   6.675   1.967   9.398 -0.0539 -0.5014  0.3092
  205ccc     C4 5926   6.609   1.855   9.317 -0.8114 -0.4112  0.4233
  205ccc     H7 5927   6.524   1.820   9.377 -1.5198 -1.5286 -1.1527
  205ccc     H8 5928   6.683   1.776   9.299 -1.6198 -0.5002 -3.2589
  205ccc     C5 5929   6.538   1.903   9.186  0.0257  0.1172  0.4601
  205ccc     H9 5930   6.457   1.974   9.209 -1.2004 -1.0496 -0.1163
  205ccc    H10 5931   6.606   1.957   9.118  0.8571  0.4185  1.5110
  205ccc     C6 5932   6.482   1.796   9.107  0.2177 -0.4345  0.9407
  205ccc     O2 5933   6.374   1.819   9.054  0.2072 -0.6165  0.0006
  205ccc     O3 5934   6.520   1.678   9.119  0.2750 -0.4220  0.5245
  205ccc     C7 5935   6.589   2.067   9.452  0.0241  0.0772  0.0093
  205ccc    H11 5936   6.633   2.134   9.526 -1.6622  0.1636  1.0017
  205ccc    H12 5937   6.549   2.126   9.369 -0.0257  1.0049  0.6778
  205ccc     C8 5938   6.459   2.018   9.519 -0.1106  0.3943  0.5792
  205ccc    H13 5939   6.390   1.963   9.452  1.7189  0.6617 -1.6591
  205ccc    H14 5940   6.479   1.947   9.600  0.1794 -0.5578 -0.2975
  205ccc     C9 5941   6.365   2.132   9.555  0.1773  0.2439  0.0916
  205ccc     O4 5942   6.389   2.201   9.653  0.3891 -0.2057  0.0786
  205ccc     O5 5943   6.267   2.157   9.481  0.2002 -0.2911 -0.3298
  205ccc     O1 5944   6.981   2.055   9.066  0.7733 -0.0016  0.0238
  206ccc     C3 5945   6.399   2.630   8.912  0.4819 -0.4692 -0.3862
  206ccc     H5 5946   6.367   2.714   8.848  0.8119 -0.3956 -0.4542
  206ccc     H6 5947   6.355   2.539   8.869  0.3537  0.6749 -2.8778
  206ccc     C2 5948   6.338   2.641   9.050 -0.4718  0.2382 -0.0084
  206ccc     H3 5949   6.365   2.546   9.099  2.3613  0.1148 -1.6550
  206ccc     H4 5950   6.229   2.646   9.040 -0.3795 -0.2178 -1.3973
  206ccc     C1 5951   6.383   2.767   9.135 -1.0105  0.3698  0.0866
  206ccc     H1 5952   6.366   2.853   9.069 -1.0835  0.1615 -0.1672
  206ccc     H2 5953   6.491   2.772   9.156 -0.9886  1.2090 -0.2023
  206ccc     N1 5954   6.315   2.791   9.266 -0.2779  0.3838  0.5518
  206ccc     C4 5955   6.301   2.932   9.301 -0.3803 -0.8054  0.9088
  206ccc     H7 5956   6.231   2.952   9.383 -0.6634  0.5743  0.3566
  206ccc     H8 5957   6.265   2.986   9.212  1.0396 -2.2672 -0.6313
  206ccc     C5 5958   6.435   3.002   9.344 -0.1421  0.0598 -0.3895
  206ccc     H9 5959   6.518   2.940   9.382  0.8607  1.4087 -0.2789
  206ccc    H10 5960   6.481   3.044   9.254  2.6955 -4.0372 -1.1417
  206ccc     C6 5961   6.416   3.109   9.450 -0.0971 -0.0621 -0.4351
  206ccc     O2 5962   6.409   3.087   9.570 -0.4065  0.2386 -0.1127
  206ccc     O3 5963   6.363   3.215   9.415 -0.3230  0.2147 -0.0983
  206ccc     C7 5964   6.358   2.698   9.372 -0.1751 -0.7471 -0.2132
  206ccc    H11 5965   6.360   2.592   9.344 -0.6000 -1.2091  1.4051
  206ccc    H12 5966   6.462   2.716   9.403 -0.4589  1.2627 -0.3378
  206ccc     C8 5967   6.272   2.710   9.496 -0.3785 -0.7048 -0.8886
  206ccc    H13 5968   6.287   2.801   9.555  0.3368 -0.8068 -0.9130
  206ccc    H14 5969   6.165   2.710   9.473 -0.7219 -1.9799  0.5071
  206ccc     C9 5970   6.287   2.592   9.587 -0.5156  0.7994 -0.0784
  206ccc     O4 5971   6.254   2.478   9.550  0.1117 -0.1681  0.1651
  206ccc     O5 5972   6.349   2.601   9.693  0.3552  0.0852  0.0359
  206ccc     O1 5973   6.540   2.636   8.921 -0.0475 -0.2116 -0.8278
  207ccc     C3 5974  10.417   2.236   7.939 -0.1888  0.3861  0.5937
  207ccc     H5 5975  10.444   2.341   7.918  0.6562  0.8049  3.3760
  207ccc     H6 5976  10.355   2.210   7.852  0.7118 -0.1900  0.1026
  207ccc     C2 5977  10.340   2.228   8.073 -0.3802 -0.6003 -0.2521
  207ccc     H3 5978  10.337   2.126   8.113 -2.1391 -0.5665 -0.2099
  207ccc     H4 5979  10.234   2.256   8.067 -0.1507  0.2912 -0.2801
  207ccc     C1 5980  10.411   2.318   8.171  0.5687  0.1723 -0.8709
  207ccc     H1 5981  10.425   2.414   8.121 -0.7655 -0.0806 -1.7786
  207ccc     H2 5982  10.505   2.273   8.207 -0.5755 -1.7441 -0.0975
  207ccc     N1 5983  10.309   2.345   8.284 -0.4119 -0.3244 -0.2118
  207ccc     C4 5984  10.333   2.479   8.340 -0.0055  0.5845 -0.3100
  207ccc     H7 5985  10.337   2.554   8.260  2.0904 -0.4690 -1.2662
  207ccc     H8 5986  10.429   2.473   8.392 -0.5074  2.4260  0.9492
  207ccc     C5 5987  10.212   2.521   8.436  0.6904  0.0766  0.3445
  207ccc     H9 5988  10.117   2.536   8.383  0.4236 -1.3980  0.3634
  207ccc    H10 5989  10.197   2.442   8.511  0.2147 -0.2435 -0.0819
  207ccc     C6 5990  10.245   2.642   8.515  0.7126  0.3145  0.0992
  207ccc     O2 5991  10.291   2.622   8.621 -0.1530  0.2617 -1.1032
  207ccc     O3 5992  10.241   2.758   8.474  0.1790  0.0235 -0.0998
  207ccc     C7 5993  10.312   2.234   8.384  0.3024  0.5185  0.2257
  207ccc    H11 5994  10.232   2.243   8.459  0.3672  0.2137  0.3282
  207ccc    H12 5995  10.297   2.141   8.328 -0.7714  1.6117 -1.4096
  207ccc     C8 5996  10.448   2.225   8.461  0.1445 -0.0239 -0.0319
  207ccc    H13 5997  10.478   2.125   8.427  0.3071 -0.4786  1.3752
  207ccc    H14 5998  10.521   2.301   8.429  0.4798  0.1168  1.0071
  207ccc     C9 5999  10.423   2.231   8.607 -0.2227  0.3187  0.1384
  207ccc     O4 6000  10.468   2.327   8.669 -0.3361  0.4565  0.3499
  207ccc     O5 6001  10.380   2.133   8.671  0.6095 -0.5781  0.3569
  207ccc     O1 6002  10.528   2.155   7.960 -0.1215  0.1599 -0.6804
  208ccc     C3 6003  11.194   1.635   7.636 -0.5929 -0.6959 -0.0104
  208ccc     H5 6004  11.278   1.670   7.697  0.0652 -0.1486 -1.1987
  208ccc     H6 6005  11.188   1.529   7.664 -1.7426 -0.6709 -0.1500
  208ccc     C2 6006  11.241   1.647   7.484  0.1355  0.1400 -0.3568
  208ccc     H3 6007  11.247   1.753   7.457  1.4540 -0.4003 -2.4832
  208ccc     H4 6008  11.173   1.609   7.407  1.2110  1.0634 -1.8209
  208ccc     C1 6009  11.378   1.582   7.454 -0.0363 -0.2062  0.4091
  208ccc     H1 6010  11.403   1.599   7.349 -0.9083 -1.7753 -0.0898
  208ccc     H2 6011  11.366   1.473   7.458  1.5396 -0.4065  0.4917
  208ccc     N1 6012  11.496   1.611   7.540 -0.4572  0.0692 -0.1322
  208ccc     C4 6013  11.512   1.759   7.558 -0.3891  0.3756 -0.1621
  208ccc     H7 6014  11.593   1.779   7.629  0.6000  1.3137 -1.5041
  208ccc     H8 6015  11.425   1.795   7.615 -0.3769  0.8279 -0.4222
  208ccc     C5 6016  11.537   1.843   7.433 -0.4975 -0.3455 -1.0441
  208ccc     H9 6017  11.639   1.818   7.399 -0.0031  1.2004 -0.7928
  208ccc    H10 6018  11.480   1.827   7.341 -0.0055 -2.0402 -1.0909
  208ccc     C6 6019  11.531   1.987   7.466 -0.4325 -0.0896 -0.1313
  208ccc     O2 6020  11.556   2.031   7.578 -0.3799  0.3410 -0.1860
  208ccc     O3 6021  11.517   2.062   7.372 -0.6544 -0.1442  0.3441
  208ccc     C7 6022  11.608   1.530   7.491 -1.6254  0.8286  0.2553
  208ccc    H11 6023  11.584   1.424   7.477  1.9457 -0.0867  0.2082
  208ccc    H12 6024  11.631   1.562   7.388 -0.7038 -1.4679 -0.3063
  208ccc     C8 6025  11.734   1.539   7.583  0.7633  0.3548 -0.2125
  208ccc    H13 6026  11.769   1.643   7.582  2.9512 -0.3112 -0.3367
  208ccc    H14 6027  11.699   1.507   7.682 -0.5442 -2.6798 -1.5316
  208ccc     C9 6028  11.836   1.442   7.536  0.0191  0.3088  0.4140
  208ccc     O4 6029  11.920   1.489   7.461 -0.9885 -0.4020  0.9245
  208ccc     O5 6030  11.857   1.339   7.595  0.4343 -1.2293 -0.5380
  208ccc     O1 6031  11.080   1.714   7.655  0.1885 -0.1523 -0.4466
  209ccc     C3 6032  11.499   1.277   7.826 -0.1223 -0.6181 -0.1458
  209ccc     H5 6033  11.562   1.191   7.850  0.8287  0.8546  3.3152
  209ccc     H6 6034  11.534   1.332   7.738  1.7621  0.7996  1.4129
  209ccc     C2 6035  11.523   1.368   7.946  0.0803 -0.4031 -0.7829
  209ccc     H3 6036  11.630   1.389   7.959 -0.5945  1.4270  4.4926
  209ccc     H4 6037  11.497   1.326   8.044 -0.5831  2.0930  0.1953
  209ccc     C1 6038  11.453   1.503   7.935 -0.3502 -0.6087  0.4787
  209ccc     H1 6039  11.352   1.483   7.897 -0.5226 -0.2154  0.7209
  209ccc     H2 6040  11.502   1.542   7.845  1.5719 -1.8589  0.9249
  209ccc     N1 6041  11.461   1.593   8.052 -0.0912 -0.3224 -0.0291
  209ccc     C4 6042  11.369   1.545   8.160 -0.3925  0.5589 -0.0114
  209ccc     H7 6043  11.369   1.436   8.167 -3.9771  0.4728  0.4560
  209ccc     H8 6044  11.265   1.563   8.130 -1.0379 -2.5702  0.0412
  209ccc     C5 6045  11.405   1.612   8.298 -0.3388  0.3600 -0.0320
  209ccc     H9 6046  11.491   1.561   8.343 -1.4701 -1.2250  0.4205
  209ccc    H10 6047  11.423   1.720   8.294  1.5097  0.3605  3.7996
  209ccc     C6 6048  11.293   1.605   8.392  0.4243 -0.4862 -1.6114
  209ccc     O2 6049  11.295   1.511   8.475 -0.1481 -0.0699  0.5874
  209ccc     O3 6050  11.193   1.666   8.367  0.7065  0.4435  0.1319
  209ccc     C7 6051  11.431   1.741   8.020 -1.0508 -0.0172  1.0530
  209ccc    H11 6052  11.363   1.739   7.933 -1.9645 -0.0441  1.7484
  209ccc    H12 6053  11.390   1.808   8.096  2.3936  1.7803  1.4754
  209ccc     C8 6054  11.558   1.811   7.969 -0.4578  0.5835 -0.2416
  209ccc    H13 6055  11.638   1.782   8.038 -0.0495 -0.9134 -1.3192
  209ccc    H14 6056  11.590   1.776   7.871 -0.3399 -1.2631  0.4271
  209ccc     C9 6057  11.526   1.958   7.959 -0.1510  0.8579 -0.7999
  209ccc     O4 6058  11.546   2.023   8.057  0.0924 -0.2032  0.1139
  209ccc     O5 6059  11.504   2.015   7.851  0.3317  0.5339  0.2287
  209ccc     O1 6060  11.369   1.241   7.811  0.3189  0.3976 -0.0570
  210ccc     C3 6061  10.921   1.302   7.221 -1.0625 -0.4025 -0.1748
  210ccc     H5 6062  11.018   1.270   7.261 -0.1106 -0.5110 -2.4616
  210ccc     H6 6063  10.870   1.212   7.186  1.3890 -2.4126  1.0750
  210ccc     C2 6064  10.959   1.400   7.111 -0.1224  0.0231  0.3263
  210ccc     H3 6065  10.863   1.435   7.071  0.0123 -0.2084 -0.2068
  210ccc     H4 6066  11.016   1.351   7.031  0.1171  0.0614  0.4728
  210ccc     C1 6067  11.033   1.528   7.160 -0.0020 -0.2818 -0.5690
  210ccc     H1 6068  11.130   1.495   7.198 -0.6755 -0.4093  1.1495
  210ccc     H2 6069  10.982   1.561   7.251 -2.4122 -0.5824 -1.7259
  210ccc     N1 6070  11.031   1.630   7.058 -0.2539  0.2319  0.6780
  210ccc     C4 6071  10.896   1.682   7.015 -0.2941 -0.1312  0.4774
  210ccc     H7 6072  10.845   1.732   7.099  1.5285  0.6439  1.1820
  210ccc     H8 6073  10.833   1.605   6.970 -0.2775  0.6212 -0.8924
  210ccc     C5 6074  10.889   1.781   6.904 -0.3613  1.6281  0.0839
  210ccc     H9 6075  10.930   1.879   6.930 -0.4147  1.3283  1.3493
  210ccc    H10 6076  10.948   1.730   6.827 -2.3695 -0.1926 -0.3397
  210ccc     C6 6077  10.753   1.786   6.841 -0.4558 -0.4756 -0.6171
  210ccc     O2 6078  10.720   1.710   6.751  0.3944 -0.5608 -0.1636
  210ccc     O3 6079  10.676   1.881   6.880 -0.7315 -0.3316 -0.0983
  210ccc     C7 6080  11.127   1.735   7.080 -0.0199  0.5220  0.4770
  210ccc    H11 6081  11.226   1.696   7.107  0.1924  0.9233  0.2787
  210ccc    H12 6082  11.136   1.803   6.994 -1.5094 -0.3659 -0.4238
  210ccc     C8 6083  11.085   1.834   7.192 -0.4712  0.1275 -0.3685
  210ccc    H13 6084  10.991   1.888   7.175 -1.4469 -0.8782  1.4574
  210ccc    H14 6085  11.085   1.777   7.286 -0.4901 -0.1230 -0.5211
  210ccc     C9 6086  11.187   1.943   7.211 -0.2589  0.5142 -0.0842
  210ccc     O4 6087  11.261   1.972   7.113 -0.6887 -0.4835  0.0509
  210ccc     O5 6088  11.222   1.983   7.321  0.0324  0.4092 -0.9539
  210ccc     O1 6089  10.847   1.371   7.329 -0.4977 -0.2354 -0.5386
  211ccc     C3 6090   9.820   0.413   9.136  0.2765  0.1952  0.0725
  211ccc     H5 6091   9.909   0.478   9.138 -0.1978  0.8500  0.9626
  211ccc     H6 6092   9.746   0.462   9.071 -0.6409  1.7804  2.1763
  211ccc     C2 6093   9.756   0.384   9.278 -0.5528  0.4539  0.0392
  211ccc     H3 6094   9.728   0.482   9.320  0.7962  1.1233 -0.5833
  211ccc     H4 6095   9.828   0.333   9.343 -0.7647  0.2778  0.1395
  211ccc     C1 6096   9.639   0.282   9.281  0.2356  0.1161 -0.2796
  211ccc     H1 6097   9.603   0.277   9.385 -0.6497 -3.6795 -0.6030
  211ccc     H2 6098   9.679   0.183   9.256  0.6212  0.4835 -1.1425
  211ccc     N1 6099   9.536   0.318   9.181 -0.3633  0.4817 -0.0082
  211ccc     C4 6100   9.455   0.429   9.224  0.0472  0.0236 -0.1900
  211ccc     H7 6101   9.514   0.520   9.240  1.9363 -0.1806 -4.6622
  211ccc     H8 6102   9.412   0.404   9.322  0.7256  0.7156  0.2879
  211ccc     C5 6103   9.339   0.467   9.136  0.0274 -0.2237  0.3020
  211ccc     H9 6104   9.362   0.451   9.029 -1.7070  0.3196 -0.1748
  211ccc    H10 6105   9.258   0.401   9.169 -1.0472  1.7405  1.7425
  211ccc     C6 6106   9.296   0.606   9.151  0.3675  0.0939  1.0810
  211ccc     O2 6107   9.295   0.667   9.256  0.1468  0.3287  0.1354
  211ccc     O3 6108   9.270   0.676   9.057  0.0402  0.4751 -0.3602
  211ccc     C7 6109   9.472   0.186   9.149 -0.2336  0.0009 -0.0069
  211ccc    H11 6110   9.480   0.117   9.234  3.5009 -1.0613 -1.0329
  211ccc    H12 6111   9.368   0.204   9.118 -0.4302 -0.6001  0.2891
  211ccc     C8 6112   9.543   0.122   9.030  0.6135  0.3832  0.1899
  211ccc    H13 6113   9.553   0.184   8.940  0.4616 -1.6483 -1.3136
  211ccc    H14 6114   9.640   0.085   9.066 -0.2867 -1.3625  0.9931
  211ccc     C9 6115   9.467   0.005   8.973 -0.2671  0.2862  0.2172
  211ccc     O4 6116   9.534  -0.086   8.921  0.4164 -0.1964 -0.2062
  211ccc     O5 6117   9.350   0.013   8.940 -0.0223  0.9415  0.1656
  211ccc     O1 6118   9.860   0.290   9.078 -0.5913  0.4806  0.0551
  212ccc     C3 6119  10.348   0.618   9.159  0.0587 -0.4759 -0.6511
  212ccc     H5 6120  10.243   0.649   9.158  0.4905  1.1429  0.6357
  212ccc     H6 6121  10.345   0.523   9.213  0.0951 -0.0083  0.1904
  212ccc     C2 6122  10.443   0.708   9.236 -0.1336 -0.2005 -0.4167
  212ccc     H3 6123  10.542   0.668   9.210 -0.3723  0.0445 -1.8077
  212ccc     H4 6124  10.414   0.688   9.340 -0.2696 -0.9827 -0.5944
  212ccc     C1 6125  10.437   0.856   9.185 -0.7405  0.3469 -0.2170
  212ccc     H1 6126  10.336   0.898   9.185 -1.5788 -1.5364  0.6598
  212ccc     H2 6127  10.468   0.860   9.080  0.7008 -2.7991 -0.0160
  212ccc     N1 6128  10.524   0.950   9.261  0.4204 -0.5435 -0.1406
  212ccc     C4 6129  10.434   1.038   9.340 -0.0264  1.2041 -0.1267
  212ccc     H7 6130  10.353   1.082   9.280  0.2600  0.6203 -0.9445
  212ccc     H8 6131  10.500   1.117   9.379  2.6935 -0.8572 -0.2568
  212ccc     C5 6132  10.368   0.973   9.460  0.3598 -1.0499 -0.4670
  212ccc     H9 6133  10.313   0.880   9.436  0.2545 -1.4073  1.0702
  212ccc    H10 6134  10.450   0.963   9.533  0.5132  2.1452 -0.0783
  212ccc     C6 6135  10.273   1.073   9.521 -0.3010  0.7322  0.1929
  212ccc     O2 6136  10.297   1.113   9.631 -1.0532 -0.2778  0.1035
  212ccc     O3 6137  10.182   1.123   9.456  0.2566  0.1455 -0.0537
  212ccc     C7 6138  10.609   1.044   9.174  0.1000  0.2835 -0.0852
  212ccc    H11 6139  10.541   1.103   9.111 -1.9244 -1.3702  0.4396
  212ccc    H12 6140  10.659   1.109   9.246 -0.9133 -0.2627  1.1514
  212ccc     C8 6141  10.699   0.967   9.075 -0.3707  0.4474 -0.1192
  212ccc    H13 6142  10.712   0.864   9.111 -2.4093  0.1906  0.0280
  212ccc    H14 6143  10.665   0.956   8.972  0.4215 -1.8919 -0.1737
  212ccc     C9 6144  10.828   1.036   9.067  0.3598  0.2220 -0.5183
  212ccc     O4 6145  10.933   0.985   9.097 -0.2983  0.6246 -0.3884
  212ccc     O5 6146  10.821   1.153   9.037 -0.2338  0.3140 -0.1192
  212ccc     O1 6147  10.408   0.606   9.028  0.2705 -0.0660  0.4043
  213ccc     C3 6148   9.594   1.037   8.255 -0.5824 -0.4565 -0.0831
  213ccc     H5 6149   9.585   1.101   8.343 -2.6625 -1.8723  0.8303
  213ccc     H6 6150   9.651   1.095   8.181  1.6293 -0.1707  1.7334
  213ccc     C2 6151   9.455   0.998   8.196  1.2099 -0.0369  0.6895
  213ccc     H3 6152   9.400   1.091   8.177  0.9432 -0.5510 -1.2791
  213ccc     H4 6153   9.395   0.947   8.272  0.3237  2.7953  2.0280
  213ccc     C1 6154   9.455   0.915   8.065  0.5761  0.1169  0.2166
  213ccc     H1 6155   9.539   0.846   8.077 -0.0361 -0.8863 -1.0180
  213ccc     H2 6156   9.472   0.982   7.981  2.8083 -0.6023  0.0437
  213ccc     N1 6157   9.331   0.839   8.037 -0.3214 -0.1132  0.2359
  213ccc     C4 6158   9.341   0.770   7.907  0.0160  0.0843 -0.4503
  213ccc     H7 6159   9.423   0.697   7.913 -0.0145  0.0548 -0.4090
  213ccc     H8 6160   9.363   0.833   7.820  0.7090 -0.8811 -1.0091
  213ccc     C5 6161   9.229   0.673   7.865 -0.7605 -0.0864 -0.2894
  213ccc     H9 6162   9.280   0.593   7.808  2.7713  0.6202  1.5470
  213ccc    H10 6163   9.178   0.626   7.950  0.9698  1.3205  1.6277
  213ccc     C6 6164   9.127   0.736   7.777  0.0165 -0.3053  0.0444
  213ccc     O2 6165   9.147   0.747   7.654 -0.1336 -0.0927 -0.4961
  213ccc     O3 6166   9.014   0.762   7.819  0.0173 -0.0627  0.4232
  213ccc     C7 6167   9.213   0.923   8.056  0.0196 -0.6379 -0.1834
  213ccc    H11 6168   9.128   0.857   8.037 -1.0070  1.3138 -3.0269
  213ccc    H12 6169   9.200   0.964   8.157 -1.6484 -1.0662 -0.2022
  213ccc     C8 6170   9.205   1.048   7.970 -0.4474  0.4367  0.1081
  213ccc    H13 6171   9.277   1.129   7.983 -0.3054  0.1639  1.0497
  213ccc    H14 6172   9.213   1.013   7.866  0.5684  1.2808 -0.1210
  213ccc     C9 6173   9.074   1.103   7.988 -0.2098 -0.0308 -0.0853
  213ccc     O4 6174   9.050   1.190   8.070 -0.1881  0.5531  0.0536
  213ccc     O5 6175   8.976   1.050   7.934 -0.0904 -0.0456  0.3475
  213ccc     O1 6176   9.664   0.918   8.291  0.1750 -0.1816  0.0161
  214ccc     C3 6177   9.814   0.254   8.102  0.4216 -0.2061 -0.2057
  214ccc     H5 6178   9.894   0.313   8.055 -0.6458  0.9383 -0.6593
  214ccc     H6 6179   9.855   0.160   8.141  2.0612 -0.2635 -1.9236
  214ccc     C2 6180   9.696   0.229   7.998 -0.6674  0.3763  0.0004
  214ccc     H3 6181   9.731   0.166   7.915 -1.9437 -1.3420  0.6979
  214ccc     H4 6182   9.673   0.327   7.955 -0.3854 -0.0769 -1.2207
  214ccc     C1 6183   9.574   0.160   8.077 -0.3389  0.3198  1.3982
  214ccc     H1 6184   9.486   0.153   8.011 -0.8494 -1.1539  2.1958
  214ccc     H2 6185   9.546   0.231   8.156  1.8976  0.3898  2.1985
  214ccc     N1 6186   9.616   0.028   8.132  0.7869 -0.3472 -0.2315
  214ccc     C4 6187   9.588  -0.079   8.042  0.0218  0.2728  0.2440
  214ccc     H7 6188   9.607  -0.034   7.944 -0.1549  1.3480  0.6918
  214ccc     H8 6189   9.487  -0.122   8.045 -0.6088  1.5807 -0.8773
  214ccc     C5 6190   9.683  -0.192   8.064  0.0753  0.0348  0.2756
  214ccc     H9 6191   9.786  -0.164   8.039 -0.3969  1.6144 -0.0393
  214ccc    H10 6192   9.685  -0.226   8.168  0.3865  0.4068  0.3918
  214ccc     C6 6193   9.648  -0.307   7.973 -0.7371  0.2335  0.8558
  214ccc     O2 6194   9.596  -0.288   7.866 -0.0210 -0.2935 -0.0510
  214ccc     O3 6195   9.665  -0.419   8.014  0.2800 -0.0493  0.2126
  214ccc     C7 6196   9.539  -0.007   8.255 -0.5167 -0.0195 -0.5937
  214ccc    H11 6197   9.432   0.019   8.253 -1.0007 -1.8368  0.2462
  214ccc    H12 6198   9.551  -0.114   8.273 -0.2886 -0.1904 -1.6739
  214ccc     C8 6199   9.599   0.055   8.384 -0.0409 -0.0331  0.3061
  214ccc    H13 6200   9.706   0.034   8.396 -0.4262 -1.2632  2.0574
  214ccc    H14 6201   9.595   0.163   8.369 -3.1947 -0.3600 -2.4734
  214ccc     C9 6202   9.536   0.017   8.511  0.4685 -0.6624  0.1360
  214ccc     O4 6203   9.483  -0.093   8.516 -0.3156  0.4890  0.4291
  214ccc     O5 6204   9.524   0.090   8.606  0.1729 -0.0187  0.6212
  214ccc     O1 6205   9.759   0.338   8.207 -0.5602 -0.2466  0.7729
  215ccc     C3 6206   8.424   3.901   9.980  0.1360 -0.4396 -0.2818
  215ccc     H5 6207   8.387   3.898  10.084 -0.5349 -0.9322 -0.5302
  215ccc     H6 6208   8.408   4.001   9.938  2.1199 -0.5282 -1.3856
  215ccc     C2 6209   8.345   3.794   9.906 -0.5426  0.4603  0.2470
  215ccc     H3 6210   8.371   3.812   9.801  0.5489 -0.8170  0.2753
  215ccc     H4 6211   8.237   3.811   9.905 -0.7738 -0.6876 -2.1070
  215ccc     C1 6212   8.374   3.650   9.959  1.0553  0.0644  0.3899
  215ccc     H1 6213   8.478   3.631   9.929  0.4758 -0.7405 -1.2191
  215ccc     H2 6214   8.309   3.578   9.906 -0.2299  1.1146  0.4820
  215ccc     N1 6215   8.356   3.645  10.103  0.8029 -0.3298  0.4246
  215ccc     C4 6216   8.212   3.668  10.152 -1.0832 -0.0985 -0.8126
  215ccc     H7 6217   8.156   3.575  10.160  0.0493 -0.7330 -0.0336
  215ccc     H8 6218   8.168   3.740  10.081  0.2796  0.2603 -1.3465
  215ccc     C5 6219   8.203   3.739  10.288 -0.1951 -0.2915  0.1234
  215ccc     H9 6220   8.179   3.661  10.361 -0.3565 -1.6094 -1.2740
  215ccc    H10 6221   8.294   3.797  10.312 -2.1063  2.8755  0.3325
  215ccc     C6 6222   8.086   3.831  10.297 -0.4726 -0.0371  0.4612
  215ccc     O2 6223   8.000   3.812  10.383  0.5797  0.0148  0.6166
  215ccc     O3 6224   8.080   3.926  10.220  0.2639  0.5012  0.1527
  215ccc     C7 6225   8.440   3.544  10.163  0.4774  0.7246 -0.1482
  215ccc    H11 6226   8.391   3.447  10.182  1.9935 -0.1866 -0.7297
  215ccc    H12 6227   8.517   3.518  10.089  0.4238  2.7569 -0.9760
  215ccc     C8 6228   8.494   3.577  10.304  0.1500 -0.1682 -0.1103
  215ccc    H13 6229   8.535   3.679  10.293  0.2306 -0.4257 -3.1022
  215ccc    H14 6230   8.418   3.575  10.382  0.1317  1.1485 -0.0701
  215ccc     C9 6231   8.610   3.492  10.340  0.0426  0.0751 -0.2268
  215ccc     O4 6232   8.594   3.387  10.403  0.7837 -0.3078 -0.1086
  215ccc     O5 6233   8.728   3.525  10.310  0.1245  0.4146 -0.2275
  215ccc     O1 6234   8.569   3.872   9.976  0.2637 -0.5879  0.3701
  216ccc     C3 6235   9.195   4.425   9.506 -0.3660  0.1335  0.2731
  216ccc     H5 6236   9.288   4.367   9.511 -0.4380  0.0426  0.5920
  216ccc     H6 6237   9.110   4.361   9.479  0.4248 -1.2538  0.9222
  216ccc     C2 6238   9.198   4.554   9.416  0.0953  0.0998  0.6175
  216ccc     H3 6239   9.289   4.607   9.445 -0.2306  0.6921  0.5834
  216ccc     H4 6240   9.114   4.622   9.437  0.4998  0.2944  1.6728
  216ccc     C1 6241   9.219   4.519   9.268  0.7285  0.0757  0.4210
  216ccc     H1 6242   9.310   4.459   9.253 -1.3508 -2.6894 -2.9241
  216ccc     H2 6243   9.235   4.617   9.223 -0.3158  0.9367  1.8676
  216ccc     N1 6244   9.107   4.443   9.204 -0.2434  0.0867 -0.5453
  216ccc     C4 6245   9.122   4.399   9.069  0.4221  0.8423 -0.1115
  216ccc     H7 6246   9.228   4.380   9.046  0.1876  1.6719 -2.0664
  216ccc     H8 6247   9.104   4.486   9.005  1.5368  1.6214  0.5876
  216ccc     C5 6248   9.039   4.285   9.021  0.5674  0.3044  0.2947
  216ccc     H9 6249   9.065   4.191   9.073  0.0308  0.3439  0.6431
  216ccc    H10 6250   8.935   4.302   9.051  0.6150 -0.0654  0.6804
  216ccc     C6 6251   9.049   4.262   8.873  0.5462 -0.1029 -0.1698
  216ccc     O2 6252   8.968   4.322   8.802 -0.5979 -0.3849  0.2184
  216ccc     O3 6253   9.156   4.235   8.822  0.3778 -0.2968  0.8367
  216ccc     C7 6254   8.968   4.479   9.253 -0.3741  0.2758  0.1655
  216ccc    H11 6255   8.896   4.406   9.214  0.5314 -0.0043 -1.0112
  216ccc    H12 6256   8.966   4.477   9.363  0.4983  2.0740  0.2611
  216ccc     C8 6257   8.917   4.609   9.207 -0.5909 -0.0041  0.1117
  216ccc    H13 6258   8.875   4.672   9.286 -1.4481 -0.8987  0.3863
  216ccc    H14 6259   8.995   4.668   9.157 -1.0837 -0.2336 -0.9453
  216ccc     C9 6260   8.802   4.589   9.109 -0.6837  0.5666 -0.3350
  216ccc     O4 6261   8.684   4.585   9.150 -0.1851  0.0431 -0.2009
  216ccc     O5 6262   8.817   4.562   8.992  0.3349 -0.3929 -0.0050
  216ccc     O1 6263   9.168   4.470   9.638  0.3236 -0.1310  0.3580
  217ccc     C3 6264   9.563   4.493   9.102  0.2500  0.2897  0.1123
  217ccc     H5 6265   9.585   4.511   8.996 -1.0089 -0.2191 -0.2436
  217ccc     H6 6266   9.454   4.489   9.111  0.1552  1.4046 -0.4233
  217ccc     C2 6267   9.622   4.616   9.183  0.6109 -0.4242  0.2572
  217ccc     H3 6268   9.570   4.630   9.278 -0.9757  2.0075 -0.8786
  217ccc     H4 6269   9.594   4.708   9.132  0.6231 -1.7482 -2.3049
  217ccc     C1 6270   9.777   4.599   9.195  0.3960 -1.2551 -0.7095
  217ccc     H1 6271   9.822   4.625   9.099  1.2315 -2.0510 -0.5499
  217ccc     H2 6272   9.812   4.501   9.231  0.9492 -0.5793  0.6853
  217ccc     N1 6273   9.844   4.695   9.281 -0.5987 -0.2436 -1.0771
  217ccc     C4 6274   9.992   4.694   9.250  0.2493  0.1121 -0.2114
  217ccc     H7 6275  10.048   4.774   9.300  1.1265 -0.8255  0.3476
  217ccc     H8 6276  10.008   4.708   9.142  0.0040  0.6412 -0.1814
  217ccc     C5 6277  10.055   4.558   9.288 -0.8185  0.4815 -0.8943
  217ccc     H9 6278  10.066   4.535   9.395 -1.3261 -0.3338 -1.0100
  217ccc    H10 6279  10.017   4.476   9.227 -0.0953 -0.4306 -0.1488
  217ccc     C6 6280  10.199   4.577   9.251 -0.2522 -0.0736 -0.0970
  217ccc     O2 6281  10.267   4.666   9.293 -0.1026 -0.1262  0.1759
  217ccc     O3 6282  10.231   4.550   9.136 -0.1230  0.1771 -0.2806
  217ccc     C7 6283   9.807   4.688   9.420  0.3678 -0.0520 -0.3100
  217ccc    H11 6284   9.698   4.686   9.433  0.4894  1.7505  1.4491
  217ccc    H12 6285   9.845   4.588   9.448  0.5525  0.5474  1.6986
  217ccc     C8 6286   9.864   4.800   9.508  0.0101  0.1719  0.1469
  217ccc    H13 6287   9.877   4.888   9.444 -2.2781  0.8830  0.5666
  217ccc    H14 6288   9.792   4.829   9.585 -0.5573  0.2287 -0.3941
  217ccc     C9 6289   9.997   4.761   9.564  0.1287 -0.5650 -0.6857
  217ccc     O4 6290  10.097   4.818   9.517 -0.0006 -0.1711 -0.0439
  217ccc     O5 6291  10.006   4.731   9.681  0.4733  0.0891 -0.4122
  217ccc     O1 6292   9.620   4.373   9.143  0.1006 -0.4222  0.4850
  218ccc     C3 6293  10.083   3.541   9.144 -0.0543  0.4156 -0.4558
  218ccc     H5 6294  10.030   3.488   9.225 -1.0353 -0.3169 -1.5377
  218ccc     H6 6295  10.017   3.554   9.057  0.1467  2.8730 -0.3124
  218ccc     C2 6296  10.201   3.453   9.096  0.5783 -0.2475  0.2504
  218ccc     H3 6297  10.162   3.354   9.067 -2.0167 -0.1189  2.8682
  218ccc     H4 6298  10.268   3.439   9.182 -2.3530 -0.9656  2.5983
  218ccc     C1 6299  10.271   3.519   8.977 -0.0682  0.4283 -0.2767
  218ccc     H1 6300  10.200   3.587   8.929 -0.2082  1.1260  0.8813
  218ccc     H2 6301  10.296   3.438   8.908  1.3356 -0.1082  0.8085
  218ccc     N1 6302  10.410   3.573   9.012 -0.1097  0.1925 -0.5830
  218ccc     C4 6303  10.455   3.688   8.941  0.3728 -0.6684  0.0054
  218ccc     H7 6304  10.444   3.665   8.835 -1.9858 -0.7902  0.2370
  218ccc     H8 6305  10.562   3.710   8.952  0.3170  0.0268 -0.7029
  218ccc     C5 6306  10.376   3.816   8.973 -0.2194  0.1134  0.0634
  218ccc     H9 6307  10.292   3.811   8.904  1.4272 -2.4926 -1.9405
  218ccc    H10 6308  10.347   3.820   9.079 -1.8697  0.5254 -0.3810
  218ccc     C6 6309  10.455   3.942   8.955 -0.0658 -0.3162  0.8632
  218ccc     O2 6310  10.480   4.009   9.053  0.7887  0.4916 -0.2149
  218ccc     O3 6311  10.515   3.964   8.851  0.1516 -0.3631 -0.0063
  218ccc     C7 6312  10.502   3.455   9.015  0.1560  0.2057 -0.7897
  218ccc    H11 6313  10.458   3.379   9.081 -0.0489  1.1344  0.1899
  218ccc    H12 6314  10.509   3.406   8.918 -0.3954 -1.9116  0.1734
  218ccc     C8 6315  10.637   3.484   9.070  0.0222 -0.4833  0.3354
  218ccc    H13 6316  10.684   3.563   9.011  1.5016 -0.2358  1.7852
  218ccc    H14 6317  10.639   3.515   9.176  1.2772  0.5900  0.0133
  218ccc     C9 6318  10.717   3.363   9.063 -0.3891  0.3963  0.6063
  218ccc     O4 6319  10.686   3.257   9.119  0.5679  0.3265 -0.3173
  218ccc     O5 6320  10.804   3.354   8.980 -0.0500  0.3691  0.4943
  218ccc     O1 6321  10.131   3.662   9.189  0.0239 -0.0252 -0.2512
  219ccc     C3 6322   9.761   2.072   9.982  0.4461 -0.2212  0.3121
  219ccc     H5 6323   9.820   2.140   9.919  1.1700 -0.8317  0.3165
  219ccc     H6 6324   9.781   1.967   9.956  0.6548 -0.7286  2.3467
  219ccc     C2 6325   9.613   2.112   9.951 -0.1359 -0.1869 -0.2558
  219ccc     H3 6326   9.599   2.093   9.844 -1.3310 -0.8235 -0.0038
  219ccc     H4 6327   9.549   2.046  10.011 -0.6947 -0.5071 -1.1992
  219ccc     C1 6328   9.586   2.261   9.985  0.6202 -0.1879  0.6044
  219ccc     H1 6329   9.672   2.318   9.949  0.4278 -1.2485 -1.7853
  219ccc     H2 6330   9.576   2.265  10.094  1.1965 -2.3523  0.7861
  219ccc     N1 6331   9.465   2.320   9.926 -0.4121 -0.3498  1.0464
  219ccc     C4 6332   9.446   2.455   9.974  0.0411 -0.1516  0.1018
  219ccc     H7 6333   9.542   2.505   9.960 -1.1756  2.2299 -0.2295
  219ccc     H8 6334   9.421   2.469  10.080 -0.3926  1.1845 -0.1580
  219ccc     C5 6335   9.349   2.541   9.896 -0.1374  0.5612 -0.6580
  219ccc     H9 6336   9.372   2.541   9.789 -1.1156 -0.8614 -0.8980
  219ccc    H10 6337   9.246   2.516   9.924  0.0623  0.8980  0.4711
  219ccc     C6 6338   9.360   2.679   9.958  0.0780  0.1414 -0.3274
  219ccc     O2 6339   9.388   2.772   9.882 -1.0483  0.2985 -0.5367
  219ccc     O3 6340   9.320   2.704  10.071  0.7700  0.0878  0.1888
  219ccc     C7 6341   9.342   2.224   9.923 -0.9367 -0.0038  0.0973
  219ccc    H11 6342   9.261   2.264   9.861 -1.8743 -1.7192  0.1455
  219ccc    H12 6343   9.379   2.127   9.887 -0.0589  0.2799  0.2067
  219ccc     C8 6344   9.295   2.201  10.066  0.1121  0.0563 -0.5104
  219ccc    H13 6345   9.377   2.140  10.104 -0.1847  0.4141  0.7409
  219ccc    H14 6346   9.284   2.288  10.131  0.8525  1.6357 -2.4035
  219ccc     C9 6347   9.162   2.125  10.064 -0.1351 -0.1503 -0.4800
  219ccc     O4 6348   9.160   2.008  10.031 -0.0481 -0.8257 -0.0724
  219ccc     O5 6349   9.050   2.172  10.092  0.7717 -0.0226  0.3987
  219ccc     O1 6350   9.780   2.101  10.125 -0.0763 -0.3623  0.1628
  220ccc     C3 6351  10.162   2.854  10.111 -0.2396 -0.9408  0.1461
  220ccc     H5 6352  10.208   2.774  10.171  2.6144  0.9731  0.6593
  220ccc     H6 6353  10.208   2.859  10.012 -0.8638  0.3858 -0.0908
  220ccc     C2 6354  10.193   2.991  10.176 -0.1101  0.0009 -0.1210
  220ccc     H3 6355  10.142   3.067  10.117 -0.1254 -0.1880 -0.3533
  220ccc     H4 6356  10.301   3.007  10.163 -0.1075  1.1684  1.1621
  220ccc     C1 6357  10.157   2.996  10.329 -0.2259  0.0482 -0.2053
  220ccc     H1 6358  10.056   2.959  10.349 -0.7272 -0.0066 -2.5715
  220ccc     H2 6359  10.156   3.103  10.353  0.0386 -0.2360  1.1823
  220ccc     N1 6360  10.246   2.923  10.421  0.1786  0.4672 -0.1029
  220ccc     C4 6361  10.196   2.948  10.560 -0.2177 -0.7203 -0.0316
  220ccc     H7 6362  10.088   2.928  10.567 -0.3689  0.0375 -0.1512
  220ccc     H8 6363  10.208   3.054  10.583  0.8813 -0.8830  0.1988
  220ccc     C5 6364  10.264   2.878  10.679  0.1746  0.6645  0.3520
  220ccc     H9 6365  10.266   2.769  10.668 -0.5825  0.6361  0.4699
  220ccc    H10 6366  10.370   2.896  10.701  0.2084 -0.9629  1.7512
  220ccc     C6 6367  10.184   2.923  10.798  1.3721 -0.1967 -0.8944
  220ccc     O2 6368  10.084   2.863  10.839 -0.2364 -1.0227 -0.1414
  220ccc     O3 6369  10.236   2.994  10.887  0.1774 -0.1289 -0.2394
  220ccc     C7 6370  10.390   2.937  10.403  0.7459 -0.6780 -0.0294
  220ccc    H11 6371  10.445   2.879  10.478 -2.2818 -1.6723  1.6041
  220ccc    H12 6372  10.419   2.895  10.306  0.4349  0.6591 -0.7241
  220ccc     C8 6373  10.444   3.080  10.401 -0.0925 -0.5165  0.4062
  220ccc    H13 6374  10.396   3.142  10.325  1.9751  0.1168 -0.4655
  220ccc    H14 6375  10.425   3.136  10.494  0.2883  0.9550 -0.3767
  220ccc     C9 6376  10.591   3.088  10.387  0.4063 -1.2883  0.4269
  220ccc     O4 6377  10.664   3.066  10.481  0.4303 -1.2788 -0.0600
  220ccc     O5 6378  10.641   3.120  10.277  0.2790  0.2719  0.4433
  220ccc     O1 6379  10.022   2.828  10.101  0.2192  0.4273 -0.2488
  221ccc     C3 6380  10.820   1.687   9.687  0.4387  0.0587  0.0529
  221ccc     H5 6381  10.857   1.585   9.701 -0.4199 -0.6885 -2.5638
  221ccc     H6 6382  10.773   1.721   9.780 -0.1061  0.8431 -0.4933
  221ccc     C2 6383  10.717   1.684   9.570 -0.2086  0.1601 -0.0660
  221ccc     H3 6384  10.694   1.790   9.553  1.4655  1.0071  2.4341
  221ccc     H4 6385  10.618   1.647   9.598 -0.0109 -1.4150 -1.3184
  221ccc     C1 6386  10.763   1.616   9.441  0.4529 -0.6106 -0.2307
  221ccc     H1 6387  10.781   1.508   9.452  1.0237 -0.7676 -2.1643
  221ccc     H2 6388  10.862   1.653   9.413  0.5291 -0.5174  0.1664
  221ccc     N1 6389  10.673   1.626   9.327  0.2952 -0.2602  0.5299
  221ccc     C4 6390  10.532   1.584   9.348  0.0897 -0.2873 -0.0877
  221ccc     H7 6391  10.461   1.615   9.270  0.5451 -0.0588 -0.4135
  221ccc     H8 6392  10.493   1.632   9.439  0.6664 -1.5179  0.8275
  221ccc     C5 6393  10.529   1.433   9.371 -0.5951  0.4869  0.4411
  221ccc     H9 6394  10.555   1.377   9.281 -2.5111 -0.6340  0.5196
  221ccc    H10 6395  10.601   1.407   9.450  0.8118  2.7031 -0.0327
  221ccc     C6 6396  10.390   1.387   9.408  0.0541  0.3063 -0.0203
  221ccc     O2 6397  10.351   1.407   9.524 -0.9166  0.1956 -0.1219
  221ccc     O3 6398  10.332   1.315   9.331 -0.2257 -0.0484  0.1120
  221ccc     C7 6399  10.734   1.578   9.200  0.2426 -0.7448  0.0269
  221ccc    H11 6400  10.836   1.619   9.196 -0.3715  1.4903  3.5590
  221ccc    H12 6401  10.732   1.468   9.195  0.3755 -0.6836 -2.3897
  221ccc     C8 6402  10.650   1.627   9.081  0.0331 -0.3529  0.2630
  221ccc    H13 6403  10.552   1.577   9.090 -0.5954  0.9917  1.2945
  221ccc    H14 6404  10.627   1.734   9.083 -1.8557 -0.5878 -2.8580
  221ccc     C9 6405  10.705   1.597   8.952 -0.1590  0.7830  0.2669
  221ccc     O4 6406  10.669   1.654   8.852 -0.3532  0.0879  0.6737
  221ccc     O5 6407  10.798   1.518   8.936 -0.1347  0.0680 -0.7537
  221ccc     O1 6408  10.929   1.774   9.652 -0.1297 -0.3514 -0.2747
  222ccc     C3 6409  11.024   2.398   9.334  0.2753  0.5336  0.1309
  222ccc     H5 6410  11.070   2.372   9.238  0.6889 -0.7015  0.6397
  222ccc     H6 6411  10.986   2.302   9.372  0.0795  1.1513  1.5538
  222ccc     C2 6412  10.897   2.494   9.308 -0.3387 -0.1391  0.1662
  222ccc     H3 6413  10.934   2.594   9.335  0.0588 -0.2297 -0.0334
  222ccc     H4 6414  10.815   2.469   9.376 -0.2856  2.7007  1.4416
  222ccc     C1 6415  10.843   2.489   9.160 -0.4353  0.5236  0.3013
  222ccc     H1 6416  10.821   2.386   9.130  1.4920 -0.3992  1.8289
  222ccc     H2 6417  10.923   2.517   9.089 -0.2072 -0.9608 -0.0726
  222ccc     N1 6418  10.715   2.562   9.150 -0.0712 -0.7596  0.4386
  222ccc     C4 6419  10.722   2.708   9.182  0.0648  0.8473 -0.1810
  222ccc     H7 6420  10.731   2.718   9.291  0.0413  1.1309 -0.2058
  222ccc     H8 6421  10.631   2.751   9.138 -1.0554  1.3246  2.4126
  222ccc     C5 6422  10.837   2.777   9.107 -0.0510 -0.6257  0.2988
  222ccc     H9 6423  10.929   2.776   9.167  0.1663  0.3795 -0.0049
  222ccc    H10 6424  10.853   2.730   9.010  0.0355 -0.2756  0.1415
  222ccc     C6 6425  10.800   2.921   9.083 -0.4408 -0.0334  0.4673
  222ccc     O2 6426  10.724   2.947   8.991  0.4457  0.1172 -0.5181
  222ccc     O3 6427  10.860   3.014   9.134 -0.1087  0.0928  0.3998
  222ccc     C7 6428  10.589   2.487   9.183 -0.1022 -0.0158 -0.7778
  222ccc    H11 6429  10.610   2.381   9.167  0.4427  0.1337 -1.0589
  222ccc    H12 6430  10.586   2.488   9.293 -0.0691 -1.3074 -0.7513
  222ccc     C8 6431  10.452   2.538   9.135 -0.0017  0.1024  0.1690
  222ccc    H13 6432  10.377   2.483   9.194 -1.5542  2.3817  0.4592
  222ccc    H14 6433  10.439   2.642   9.169  0.1040 -0.3972  1.8341
  222ccc     C9 6434  10.434   2.521   8.987  0.2703 -0.5964  0.1001
  222ccc     O4 6435  10.369   2.603   8.928  0.2953  0.3102 -0.3597
  222ccc     O5 6436  10.491   2.444   8.916  0.5711  0.9566  0.3082
  222ccc     O1 6437  11.113   2.454   9.428 -0.2050 -0.5775  0.1488
  223ccc     C3 6438   8.582   3.775   5.335 -0.3690  1.4833 -0.4354
  223ccc     H5 6439   8.554   3.857   5.269 -0.8885 -0.0625 -2.2318
  223ccc     H6 6440   8.574   3.811   5.438  1.1145  0.7429 -0.0294
  223ccc     C2 6441   8.727   3.737   5.283 -0.0054 -0.0063 -0.3402
  223ccc     H3 6442   8.785   3.693   5.364 -0.8749  0.7524  0.7230
  223ccc     H4 6443   8.778   3.832   5.260 -0.6409  0.6559  0.9292
  223ccc     C1 6444   8.744   3.658   5.151 -0.0518 -0.2983 -0.2044
  223ccc     H1 6445   8.688   3.717   5.077  0.0831  0.9954  0.6966
  223ccc     H2 6446   8.693   3.562   5.164  0.1623 -0.9943 -3.4778
  223ccc     N1 6447   8.886   3.638   5.109  0.0280 -0.4918 -0.4043
  223ccc     C4 6448   8.942   3.527   5.180 -0.6596 -0.1620  0.6088
  223ccc     H7 6449   8.909   3.435   5.129  0.0211 -0.9770  1.5756
  223ccc     H8 6450   8.915   3.524   5.286  0.8568 -1.6546  1.0213
  223ccc     C5 6451   9.093   3.544   5.178 -0.3648 -0.6528 -0.4960
  223ccc     H9 6452   9.135   3.494   5.091  0.2942  0.0505 -0.5904
  223ccc    H10 6453   9.122   3.649   5.163  1.0863 -1.2264 -1.7951
  223ccc     C6 6454   9.152   3.494   5.308  0.1833  0.1811 -0.2359
  223ccc     O2 6455   9.186   3.577   5.384  0.1426 -0.1679 -0.6927
  223ccc     O3 6456   9.130   3.379   5.341  0.4644 -0.2764  0.0076
  223ccc     C7 6457   8.903   3.626   4.959 -0.4180 -0.4211 -0.0846
  223ccc    H11 6458   9.007   3.594   4.942  0.2733  1.7201 -0.1339
  223ccc    H12 6459   8.833   3.549   4.924  0.1759 -0.7467 -0.5780
  223ccc     C8 6460   8.887   3.760   4.890  0.3342  0.1585  0.0702
  223ccc    H13 6461   8.791   3.807   4.915  1.0989  1.9419 -0.1632
  223ccc    H14 6462   8.963   3.832   4.922  0.4798 -0.4153  1.0598
  223ccc     C9 6463   8.912   3.747   4.740 -0.5499 -0.2387 -0.1273
  223ccc     O4 6464   8.846   3.805   4.661  0.4934 -0.0438  0.2129
  223ccc     O5 6465   8.988   3.673   4.684 -0.6695  0.4903 -0.8507
  223ccc     O1 6466   8.490   3.672   5.317  0.9056 -0.1081 -0.6821
  224ccc     C3 6467   8.459   3.131   4.884 -0.5195 -0.5984 -0.9343
  224ccc     H5 6468   8.468   3.029   4.924  0.3576  0.4244  1.6462
  224ccc     H6 6469   8.404   3.118   4.790  0.0329 -0.5036 -1.2692
  224ccc     C2 6470   8.598   3.189   4.858 -0.2982 -0.2516  1.2372
  224ccc     H3 6471   8.598   3.293   4.823  0.9625 -0.8513 -0.7432
  224ccc     H4 6472   8.643   3.133   4.774 -1.1134  2.7536 -1.4045
  224ccc     C1 6473   8.698   3.180   4.974  0.3550  0.9536 -0.7550
  224ccc     H1 6474   8.656   3.108   5.045 -0.0225  1.5320 -0.3845
  224ccc     H2 6475   8.694   3.272   5.033 -0.1368 -0.1842  1.0695
  224ccc     N1 6476   8.838   3.152   4.945 -0.0024  0.6628  0.4303
  224ccc     C4 6477   8.919   3.157   5.067 -0.0235 -0.0930  0.0830
  224ccc     H7 6478   8.873   3.222   5.142 -1.2620 -0.1886 -0.5629
  224ccc     H8 6479   9.012   3.211   5.046  2.3556 -4.1802 -1.0547
  224ccc     C5 6480   8.957   3.014   5.110 -0.2501 -0.3284  0.2101
  224ccc     H9 6481   8.876   2.961   5.160 -1.0295  0.0964 -0.5663
  224ccc    H10 6482   8.999   2.959   5.025 -0.8079 -0.5196  0.0563
  224ccc     C6 6483   9.068   3.043   5.212 -0.3117  0.5098  0.4794
  224ccc     O2 6484   9.183   3.053   5.172 -0.3852 -0.4902 -0.5318
  224ccc     O3 6485   9.045   3.098   5.312 -0.3202  0.9241  0.3635
  224ccc     C7 6486   8.889   3.225   4.831  0.6577 -0.6769 -0.1612
  224ccc    H11 6487   8.823   3.215   4.744 -0.6914  1.6532  0.5156
  224ccc    H12 6488   8.894   3.334   4.845 -0.8629 -0.3602 -1.7344
  224ccc     C8 6489   9.022   3.179   4.782  0.0164 -0.5336  0.2312
  224ccc    H13 6490   9.106   3.201   4.848  0.6369  0.0374 -0.7345
  224ccc    H14 6491   9.000   3.071   4.777 -0.3717 -0.4099 -0.9245
  224ccc     C9 6492   9.052   3.236   4.647 -0.9393  0.2948 -0.2757
  224ccc     O4 6493   9.092   3.351   4.631 -0.0589 -0.0910  0.4364
  224ccc     O5 6494   9.025   3.174   4.546  0.0283 -0.4105 -0.5240
  224ccc     O1 6495   8.392   3.210   4.980 -0.0465 -0.6265  0.1179
  225ccc     C3 6496   9.173   2.742   5.966  0.2600 -0.9061  0.3622
  225ccc     H5 6497   9.206   2.703   6.063  0.6150  1.1601  1.1169
  225ccc     H6 6498   9.206   2.672   5.888 -0.1882  0.4926 -1.1382
  225ccc     C2 6499   9.221   2.885   5.935  1.0635  0.0761  0.5798
  225ccc     H3 6500   9.327   2.905   5.957  1.0561  0.4324  0.2938
  225ccc     H4 6501   9.160   2.945   6.004 -1.2389 -2.2888  0.7621
  225ccc     C1 6502   9.179   2.947   5.795 -0.0102  0.1629 -0.5971
  225ccc     H1 6503   9.072   2.973   5.796 -0.2945 -0.9258  0.6098
  225ccc     H2 6504   9.190   2.870   5.718  0.9830 -1.1851  0.8324
  225ccc     N1 6505   9.262   3.064   5.746  0.0297 -0.1313 -0.5132
  225ccc     C4 6506   9.396   3.016   5.711 -0.1584 -0.9789 -0.1935
  225ccc     H7 6507   9.397   2.919   5.661  1.2604 -1.4649  0.7227
  225ccc     H8 6508   9.458   3.000   5.800 -0.2436  2.6989  0.6972
  225ccc     C5 6509   9.477   3.103   5.615 -0.3911  0.4211  0.0265
  225ccc     H9 6510   9.511   3.195   5.665  2.2243 -0.0085 -0.8003
  225ccc    H10 6511   9.564   3.046   5.578 -1.3948 -0.5966 -0.8407
  225ccc     C6 6512   9.381   3.144   5.502 -0.1190  0.8075  0.1707
  225ccc     O2 6513   9.376   3.259   5.464  0.2496  0.0498 -0.1779
  225ccc     O3 6514   9.308   3.061   5.440  0.4188 -0.2932 -0.0592
  225ccc     C7 6515   9.241   3.188   5.820  0.9550 -0.3091 -0.2570
  225ccc    H11 6516   9.267   3.181   5.927 -0.1146  1.7939  0.1936
  225ccc    H12 6517   9.300   3.266   5.771  0.4730 -0.5992 -1.3189
  225ccc     C8 6518   9.099   3.241   5.819  0.1803  0.2865  0.3242
  225ccc    H13 6519   9.021   3.176   5.862  1.5575 -0.8987  1.1167
  225ccc    H14 6520   9.099   3.335   5.875  0.7463  0.5433 -0.1034
  225ccc     C9 6521   9.063   3.277   5.677 -0.0891  0.1101  0.3775
  225ccc     O4 6522   9.088   3.391   5.639 -0.1512  0.1490  0.2552
  225ccc     O5 6523   9.028   3.190   5.597  0.5131 -0.1724 -0.1440
  225ccc     O1 6524   9.036   2.751   5.960  0.3101 -0.9951  0.0908
  226ccc     C3 6525   8.748   2.065   6.130 -1.3830  1.2019 -0.1767
  226ccc     H5 6526   8.831   2.130   6.161 -1.3827  2.8073 -3.1748
  226ccc     H6 6527   8.711   2.014   6.220  0.1949  0.5401  0.1394
  226ccc     C2 6528   8.791   1.953   6.040 -0.2514 -0.0236  0.0689
  226ccc     H3 6529   8.871   1.902   6.095  0.9724 -0.6664 -2.2084
  226ccc     H4 6530   8.842   2.006   5.959  0.1245  0.6625  0.7371
  226ccc     C1 6531   8.679   1.858   5.986  0.3248  0.1033  0.3240
  226ccc     H1 6532   8.594   1.919   5.954  1.1724  0.7549 -0.7171
  226ccc     H2 6533   8.656   1.799   6.076  1.3869  0.5582  0.9033
  226ccc     N1 6534   8.718   1.759   5.886  0.3347 -0.0519 -0.5311
  226ccc     C4 6535   8.852   1.701   5.899  0.2304  0.2554  0.6776
  226ccc     H7 6536   8.848   1.602   5.854  0.6664  0.1922  0.7687
  226ccc     H8 6537   8.887   1.695   6.003  0.5188  0.8843  0.6259
  226ccc     C5 6538   8.952   1.772   5.812 -0.0529 -0.1758 -0.1049
  226ccc     H9 6539   8.929   1.776   5.705 -0.2374 -0.4915 -0.0777
  226ccc    H10 6540   8.964   1.879   5.830 -2.4521 -0.1056  1.4698
  226ccc     C6 6541   9.086   1.713   5.838 -0.2270 -0.7148  0.2780
  226ccc     O2 6542   9.163   1.760   5.915  0.5626  0.0391 -0.1200
  226ccc     O3 6543   9.098   1.607   5.788 -0.0125  0.6557 -0.1386
  226ccc     C7 6544   8.615   1.663   5.845  0.2669 -0.6580 -0.0270
  226ccc    H11 6545   8.623   1.560   5.882  2.1282 -1.0630 -1.4403
  226ccc    H12 6546   8.518   1.706   5.871 -0.0696 -1.3906 -0.0541
  226ccc     C8 6547   8.604   1.656   5.693 -0.2332 -0.0142 -0.2078
  226ccc    H13 6548   8.604   1.757   5.650 -1.9014 -0.3005 -0.9999
  226ccc    H14 6549   8.694   1.600   5.668 -0.9475 -1.6277  0.6174
  226ccc     C9 6550   8.480   1.582   5.637 -0.2656 -0.1275  0.7703
  226ccc     O4 6551   8.385   1.648   5.602 -0.1656  0.2162  0.0433
  226ccc     O5 6552   8.498   1.463   5.610  0.4315 -0.6589  0.2142
  226ccc     O1 6553   8.647   2.145   6.076 -0.3695  0.1938 -0.0459
  227ccc     C3 6554   7.020   3.639   6.402  0.0776  0.1136  0.2210
  227ccc     H5 6555   7.104   3.571   6.380 -0.7748 -0.6549 -0.7785
  227ccc     H6 6556   7.063   3.694   6.486 -2.6525  1.1325  1.0341
  227ccc     C2 6557   6.900   3.567   6.453  0.4395  0.5112 -0.3306
  227ccc     H3 6558   6.863   3.494   6.380 -3.6763  0.1698  1.7976
  227ccc     H4 6559   6.814   3.635   6.458 -1.2799 -1.5179 -0.6730
  227ccc     C1 6560   6.919   3.513   6.599 -0.5011 -0.0596 -0.0193
  227ccc     H1 6561   6.820   3.491   6.641 -0.0424 -1.5995  0.2912
  227ccc     H2 6562   6.961   3.601   6.648  0.1986  0.7210 -1.9284
  227ccc     N1 6563   7.013   3.399   6.626 -0.0858  0.0382  0.2412
  227ccc     C4 6564   7.158   3.450   6.608  0.4657 -0.6347 -0.1310
  227ccc     H7 6565   7.168   3.551   6.651 -0.8275  0.9786 -3.2894
  227ccc     H8 6566   7.192   3.465   6.505  0.6146  1.4767  0.1695
  227ccc     C5 6567   7.264   3.368   6.678  0.1387  0.3232 -0.7477
  227ccc     H9 6568   7.214   3.345   6.774 -0.9880 -0.2173 -1.4418
  227ccc    H10 6569   7.282   3.272   6.628 -1.3418 -0.9273  0.9797
  227ccc     C6 6570   7.389   3.427   6.713 -0.3834 -0.0788 -0.8355
  227ccc     O2 6571   7.452   3.483   6.628  0.0704  0.1893 -0.3135
  227ccc     O3 6572   7.428   3.440   6.831 -0.0940  0.5418 -0.0245
  227ccc     C7 6573   6.982   3.280   6.547  0.5078 -0.6712 -0.5155
  227ccc    H11 6574   6.968   3.310   6.443 -1.9812  0.6195  0.1274
  227ccc    H12 6575   7.060   3.203   6.559 -0.6544 -1.8133  0.0929
  227ccc     C8 6576   6.851   3.216   6.594  0.5804 -0.5653 -0.2647
  227ccc    H13 6577   6.879   3.167   6.688  1.6970  0.7595  0.1307
  227ccc    H14 6578   6.774   3.293   6.598  1.0469 -0.1165  0.2032
  227ccc     C9 6579   6.807   3.106   6.499  0.4941  0.6316 -0.3157
  227ccc     O4 6580   6.694   3.089   6.454 -0.2131 -0.2519  0.4518
  227ccc     O5 6581   6.897   3.045   6.450  0.2452 -0.0037 -0.5292
  227ccc     O1 6582   6.986   3.731   6.298 -0.4343 -0.2312 -0.1788
  228ccc     C3 6583   7.006   3.411   5.597  0.1385  0.4002 -0.2420
  228ccc     H5 6584   7.099   3.365   5.562  0.7113  2.6406 -1.9306
  228ccc     H6 6585   6.956   3.344   5.668  0.0126 -1.0579 -1.6626
  228ccc     C2 6586   6.894   3.423   5.487 -0.4441 -0.5010  0.1117
  228ccc     H3 6587   6.844   3.328   5.463  1.1527 -1.7458  1.4145
  228ccc     H4 6588   6.942   3.454   5.393  0.9708  2.2179  1.6015
  228ccc     C1 6589   6.787   3.517   5.534 -0.2438 -0.3624  0.3953
  228ccc     H1 6590   6.818   3.619   5.556 -1.3558 -0.3138  1.8813
  228ccc     H2 6591   6.751   3.499   5.636 -2.1306  2.2905  0.2674
  228ccc     N1 6592   6.669   3.529   5.439 -0.2765  0.4040 -0.4346
  228ccc     C4 6593   6.547   3.561   5.513 -0.6775 -0.6872 -0.0493
  228ccc     H7 6594   6.528   3.664   5.547 -1.2531 -1.0263  0.7199
  228ccc     H8 6595   6.543   3.514   5.612 -0.9170  1.7225  1.1688
  228ccc     C5 6596   6.428   3.500   5.447  0.5316 -0.2689 -0.6027
  228ccc     H9 6597   6.408   3.546   5.349  1.3553 -0.8540 -1.0517
  228ccc    H10 6598   6.443   3.392   5.441 -0.6976 -0.5536  0.8523
  228ccc     C6 6599   6.307   3.544   5.526 -0.3532  0.5564  0.2086
  228ccc     O2 6600   6.273   3.477   5.622  0.2126  0.1448 -0.1869
  228ccc     O3 6601   6.220   3.627   5.486  0.3456  0.4305 -0.0949
  228ccc     C7 6602   6.684   3.626   5.334  0.7633 -0.3303 -0.7229
  228ccc    H11 6603   6.609   3.705   5.348  2.0361  0.7122  0.5134
  228ccc    H12 6604   6.783   3.673   5.334  0.0698  1.1889 -0.9938
  228ccc     C8 6605   6.670   3.550   5.202 -0.4534  0.2824 -0.1431
  228ccc    H13 6606   6.727   3.457   5.212  1.8674  1.7939  2.0209
  228ccc    H14 6607   6.563   3.532   5.188 -1.2608  2.2594  2.5917
  228ccc     C9 6608   6.711   3.631   5.089  1.1450 -0.3697  0.2134
  228ccc     O4 6609   6.673   3.747   5.080  0.1334  0.0385  0.1710
  228ccc     O5 6610   6.806   3.596   5.023 -1.2128  0.1008  0.1309
  228ccc     O1 6611   7.044   3.538   5.655 -0.2290  0.0922  0.1581
  229ccc     C3 6612   8.830   4.310   7.011 -0.0981  0.2409 -0.8229
  229ccc     H5 6613   8.929   4.273   7.041 -1.2003 -0.3931  2.3664
  229ccc     H6 6614   8.846   4.342   6.907 -0.5009  2.8023 -0.1668
  229ccc     C2 6615   8.770   4.421   7.105  0.8108  0.4295 -0.0536
  229ccc     H3 6616   8.683   4.466   7.054 -1.8588 -2.7338  1.3031
  229ccc     H4 6617   8.830   4.512   7.112 -0.7578  1.4207  1.4679
  229ccc     C1 6618   8.732   4.357   7.236 -0.9351 -0.2717 -0.4253
  229ccc     H1 6619   8.823   4.310   7.273 -0.0492  1.9358  0.3841
  229ccc     H2 6620   8.648   4.289   7.218  0.0983 -1.2020 -1.9839
  229ccc     N1 6621   8.694   4.450   7.350  0.1599 -0.3112 -0.4084
  229ccc     C4 6622   8.577   4.524   7.306  0.0136  0.2095  0.5147
  229ccc     H7 6623   8.500   4.529   7.384 -0.8008 -0.6785 -0.1989
  229ccc     H8 6624   8.520   4.466   7.232  0.6642 -0.7574  0.7557
  229ccc     C5 6625   8.605   4.668   7.267  0.1627  0.2821  0.1694
  229ccc     H9 6626   8.670   4.678   7.179  1.3164  2.2557  1.1830
  229ccc    H10 6627   8.514   4.720   7.234 -0.4817  0.2793  1.8352
  229ccc     C6 6628   8.659   4.750   7.378  0.1848  0.0157  0.4057
  229ccc     O2 6629   8.776   4.786   7.382 -0.2339  0.5485 -0.5573
  229ccc     O3 6630   8.582   4.777   7.468 -0.3045 -0.5367  0.0982
  229ccc     C7 6631   8.680   4.378   7.480  0.1638 -0.1155 -0.5113
  229ccc    H11 6632   8.609   4.435   7.542  0.6486 -0.2605  0.1927
  229ccc    H12 6633   8.633   4.279   7.465 -0.6974  0.3715 -1.1181
  229ccc     C8 6634   8.814   4.370   7.559  0.0573  0.4346  0.8231
  229ccc    H13 6635   8.799   4.293   7.636 -0.5198 -1.0965 -0.7338
  229ccc    H14 6636   8.900   4.349   7.494 -0.6150  0.2549 -0.0348
  229ccc     C9 6637   8.850   4.497   7.632 -0.3812 -0.0149 -0.1120
  229ccc     O4 6638   8.942   4.565   7.583 -0.4477 -0.6492  0.4134
  229ccc     O5 6639   8.794   4.526   7.738  0.3541 -0.0836 -0.4256
  229ccc     O1 6640   8.731   4.213   6.991 -0.3293 -0.1463  0.5173
  230ccc     C3 6641   8.732   4.532   6.155 -0.0073 -0.3257 -0.1910
  230ccc     H5 6642   8.671   4.599   6.216 -0.1347 -1.4803  0.9957
  230ccc     H6 6643   8.836   4.538   6.188 -1.2336  1.1523  4.0762
  230ccc     C2 6644   8.730   4.570   6.001 -0.3623  0.6003 -0.1717
  230ccc     H3 6645   8.637   4.534   5.955  0.3134 -2.2827  0.4641
  230ccc     H4 6646   8.808   4.515   5.947 -0.3571 -1.4614  1.7511
  230ccc     C1 6647   8.750   4.724   5.983  0.1168 -0.0199 -0.1295
  230ccc     H1 6648   8.851   4.739   6.022  0.9014  0.2994 -2.1740
  230ccc     H2 6649   8.681   4.779   6.049 -0.5023  0.5745 -1.2368
  230ccc     N1 6650   8.735   4.768   5.848 -0.2062  0.2458 -0.0930
  230ccc     C4 6651   8.596   4.797   5.822 -0.1921  0.0727 -0.9210
  230ccc     H7 6652   8.579   4.900   5.788 -0.2833  0.6942  0.8953
  230ccc     H8 6653   8.534   4.794   5.913 -0.6336  0.2985 -1.2064
  230ccc     C5 6654   8.539   4.708   5.716 -0.2519 -0.1355  0.2878
  230ccc     H9 6655   8.588   4.718   5.619 -0.4944  0.1502  0.1908
  230ccc    H10 6656   8.534   4.606   5.755  0.6980 -0.8828 -1.4693
  230ccc     C6 6657   8.396   4.745   5.683 -0.5906 -0.4115 -0.3647
  230ccc     O2 6658   8.303   4.705   5.748 -0.1393  0.0645  0.1954
  230ccc     O3 6659   8.377   4.839   5.604  0.9484 -0.2387  0.1346
  230ccc     C7 6660   8.810   4.888   5.813  0.0830 -0.0185  0.3949
  230ccc    H11 6661   8.914   4.855   5.820  0.4546  0.7470 -1.0967
  230ccc    H12 6662   8.796   4.915   5.708  0.5035 -3.4121 -0.6472
  230ccc     C8 6663   8.810   4.998   5.918  0.9300  0.3225  0.1145
  230ccc    H13 6664   8.706   5.008   5.954  0.6789 -1.6620  0.0322
  230ccc    H14 6665   8.873   4.982   6.006 -0.4074 -1.4618  0.8037
  230ccc     C9 6666   8.843   5.131   5.850  0.3397  0.1717  0.8182
  230ccc     O4 6667   8.936   5.135   5.765 -0.5866  0.2611  0.1061
  230ccc     O5 6668   8.754   5.210   5.831  0.6428  0.0811 -0.3556
  230ccc     O1 6669   8.676   4.398   6.181 -0.1287  0.0494 -0.2167
  231ccc     C3 6670   9.131   2.164   7.628 -0.8748  0.1698 -0.3265
  231ccc     H5 6671   9.199   2.216   7.698 -0.9802  1.7341 -1.3262
  231ccc     H6 6672   9.030   2.176   7.669  0.6168  1.8177  3.2897
  231ccc     C2 6673   9.163   2.014   7.599  0.1251  0.4035 -0.4931
  231ccc     H3 6674   9.269   2.007   7.571 -0.2445 -1.2740 -1.6352
  231ccc     H4 6675   9.116   1.989   7.503 -0.7807  0.2551 -0.0241
  231ccc     C1 6676   9.126   1.914   7.714 -0.0168  0.1199  0.2656
  231ccc     H1 6677   9.020   1.936   7.733 -0.0460  0.0520  0.1825
  231ccc     H2 6678   9.176   1.948   7.805  0.1127 -1.9720  1.0141
  231ccc     N1 6679   9.162   1.777   7.694  0.0032  0.5589 -0.7031
  231ccc     C4 6680   9.070   1.714   7.598 -0.5654 -0.2358  0.3659
  231ccc     H7 6681   9.044   1.778   7.513 -0.7176 -0.2528  0.3995
  231ccc     H8 6682   8.971   1.700   7.641  0.2751 -2.3865  1.7576
  231ccc     C5 6683   9.117   1.574   7.546 -0.2692  0.2815  0.7116
  231ccc     H9 6684   9.210   1.586   7.488  0.6165  0.5067  2.1349
  231ccc    H10 6685   9.130   1.503   7.628 -1.8049 -1.6752 -0.6506
  231ccc     C6 6686   9.012   1.512   7.472 -0.7425  0.0726 -0.2740
  231ccc     O2 6687   8.971   1.555   7.364  0.3121 -0.6104  0.1581
  231ccc     O3 6688   8.955   1.416   7.513 -0.4823 -0.0908  0.6843
  231ccc     C7 6689   9.188   1.707   7.826  0.1544  0.1220 -0.0618
  231ccc    H11 6690   9.221   1.606   7.798 -1.3990 -0.1127 -1.1774
  231ccc    H12 6691   9.269   1.757   7.880  1.0571  0.4097 -1.6048
  231ccc     C8 6692   9.056   1.695   7.907 -0.8826 -0.9216 -0.1460
  231ccc    H13 6693   9.058   1.778   7.979 -0.9516 -0.9636 -0.0954
  231ccc    H14 6694   8.966   1.712   7.847 -0.3435  0.8195 -0.5193
  231ccc     C9 6695   9.061   1.583   7.997 -0.1074 -0.4066 -0.0524
  231ccc     O4 6696   8.987   1.482   7.986  0.1934 -0.5824  0.3084
  231ccc     O5 6697   9.111   1.592   8.107 -0.2082  0.0231 -0.1516
  231ccc     O1 6698   9.139   2.238   7.503 -0.1349  0.4611  0.2258
  232ccc     C3 6699   9.408   2.321   6.701 -0.2974 -0.0237 -1.1196
  232ccc     H5 6700   9.441   2.412   6.650 -0.9877  0.4233 -0.7693
  232ccc     H6 6701   9.486   2.279   6.766 -1.6109  2.1679  2.1331
  232ccc     C2 6702   9.349   2.222   6.597  0.1120  0.3247  0.0080
  232ccc     H3 6703   9.423   2.203   6.519 -0.7243  0.6117 -0.8749
  232ccc     H4 6704   9.257   2.260   6.550 -0.1414 -0.9696 -0.5905
  232ccc     C1 6705   9.301   2.083   6.655 -0.1131 -0.1588  0.0015
  232ccc     H1 6706   9.267   2.020   6.572  0.0484  0.5498 -0.6149
  232ccc     H2 6707   9.211   2.112   6.711 -0.0485 -0.3230  0.1888
  232ccc     N1 6708   9.398   2.019   6.744 -0.3007  0.3218  0.0347
  232ccc     C4 6709   9.326   1.927   6.830  0.3827 -0.6445  1.1043
  232ccc     H7 6710   9.234   1.970   6.872  0.9481 -0.4835  2.2259
  232ccc     H8 6711   9.388   1.896   6.916  1.5890 -1.2729  0.0524
  232ccc     C5 6712   9.280   1.806   6.750  0.0234 -0.3098 -0.2054
  232ccc     H9 6713   9.212   1.834   6.670 -0.3006 -0.0968  0.1420
  232ccc    H10 6714   9.365   1.751   6.706 -1.2505 -2.2674 -0.3194
  232ccc     C6 6715   9.217   1.710   6.843  0.6780 -0.0235  0.2822
  232ccc     O2 6716   9.102   1.726   6.886  0.0825  0.3211 -0.1265
  232ccc     O3 6717   9.275   1.604   6.860 -0.2214 -0.1728 -0.4530
  232ccc     C7 6718   9.518   1.974   6.672  0.3828 -0.1691 -0.8310
  232ccc    H11 6719   9.479   1.905   6.596 -3.7914 -2.1089  2.6189
  232ccc    H12 6720   9.583   2.057   6.640  2.1396 -0.0849  2.5268
  232ccc     C8 6721   9.620   1.891   6.761 -0.6609  0.3867 -0.1797
  232ccc    H13 6722   9.651   1.956   6.844 -1.4679  0.1452  0.3255
  232ccc    H14 6723   9.578   1.808   6.820 -3.1487  2.2694  0.8873
  232ccc     C9 6724   9.734   1.836   6.682 -0.0919 -0.3828  0.1020
  232ccc     O4 6725   9.749   1.858   6.561 -0.3067  0.0355  0.4275
  232ccc     O5 6726   9.826   1.798   6.747 -0.1127  0.5220 -0.4338
  232ccc     O1 6727   9.309   2.363   6.800  0.3049 -0.6261  0.7916
  233ccc     C3 6728   8.552   1.318   6.565 -0.1025  0.2321  0.4266
  233ccc     H5 6729   8.483   1.399   6.591  0.3229  0.3682  1.1677
  233ccc     H6 6730   8.495   1.229   6.537 -0.5983  1.4470 -2.9770
  233ccc     C2 6731   8.640   1.282   6.684  0.6080 -0.0778 -0.1786
  233ccc     H3 6732   8.589   1.213   6.751  1.2986 -2.1850 -1.7288
  233ccc     H4 6733   8.677   1.374   6.731 -1.9539  0.9502 -0.0511
  233ccc     C1 6734   8.763   1.205   6.635 -0.1114  0.0997 -0.2673
  233ccc     H1 6735   8.828   1.269   6.574  1.1521  1.3367  2.2543
  233ccc     H2 6736   8.738   1.122   6.568 -4.9235  1.1032 -0.0941
  233ccc     N1 6737   8.857   1.163   6.738  0.3797  0.4948 -0.0888
  233ccc     C4 6738   8.958   1.255   6.772  0.0531  0.2667 -0.1788
  233ccc     H7 6739   8.925   1.359   6.762 -0.0200  0.2393 -0.2221
  233ccc     H8 6740   9.037   1.248   6.696  0.4317 -0.5708  0.2658
  233ccc     C5 6741   9.000   1.216   6.914  0.2157 -0.4486  0.0381
  233ccc     H9 6742   8.916   1.213   6.983 -0.0587  0.3630 -0.2524
  233ccc    H10 6743   9.059   1.124   6.927 -0.1664 -0.3828  2.7645
  233ccc     C6 6744   9.094   1.319   6.955  0.3925 -0.3472  0.0225
  233ccc     O2 6745   9.211   1.298   6.956  0.1560  0.3991 -0.6300
  233ccc     O3 6746   9.049   1.432   6.981 -1.1522  0.0896 -0.5655
  233ccc     C7 6747   8.898   1.028   6.707 -0.5156  0.6571 -0.0009
  233ccc    H11 6748   8.930   1.008   6.604  0.0970 -2.4936  0.7113
  233ccc    H12 6749   8.987   1.006   6.768 -0.7031 -0.1946 -0.0203
  233ccc     C8 6750   8.779   0.942   6.743 -0.0437  0.0395  1.1206
  233ccc    H13 6751   8.741   0.947   6.846 -1.5755 -0.5647  0.6174
  233ccc    H14 6752   8.687   0.962   6.686  0.1205  0.2762  0.9351
  233ccc     C9 6753   8.814   0.799   6.705 -0.3076 -0.6022 -0.4228
  233ccc     O4 6754   8.905   0.742   6.764  0.3153 -0.0527 -0.2005
  233ccc     O5 6755   8.775   0.737   6.611  0.1482 -0.4350  0.3689
  233ccc     O1 6756   8.627   1.351   6.446 -0.3522 -0.0663  0.1006
  234ccc     C3 6757   9.453   1.336   6.462 -0.2303  0.6401  0.2633
  234ccc     H5 6758   9.542   1.400   6.470 -2.2352  3.7105 -0.4868
  234ccc     H6 6759   9.448   1.277   6.554  3.0439  1.3135  0.9990
  234ccc     C2 6760   9.482   1.254   6.332  0.1521 -0.4055 -0.2445
  234ccc     H3 6761   9.588   1.223   6.327 -0.3307 -1.9932 -1.7785
  234ccc     H4 6762   9.471   1.321   6.246 -1.1498 -0.0964  0.1440
  234ccc     C1 6763   9.395   1.123   6.326  0.1707  0.5361  0.3883
  234ccc     H1 6764   9.410   1.073   6.423 -0.0460  2.3568  1.4069
  234ccc     H2 6765   9.437   1.050   6.256 -2.2356  0.0931 -0.6668
  234ccc     N1 6766   9.252   1.145   6.309 -0.2742 -0.0086  0.1694
  234ccc     C4 6767   9.169   1.026   6.321  0.0740  0.0175  0.1817
  234ccc     H7 6768   9.183   0.960   6.234  2.6380 -2.2971  2.1879
  234ccc     H8 6769   9.068   1.068   6.329  0.9626  2.4209 -0.4327
  234ccc     C5 6770   9.186   0.951   6.454  0.0748  0.0851  0.0459
  234ccc     H9 6771   9.282   0.899   6.453 -0.3518 -0.9373 -3.7145
  234ccc    H10 6772   9.170   1.022   6.537 -1.6910  0.5482 -0.6440
  234ccc     C6 6773   9.084   0.845   6.462 -0.1059  0.4623 -0.0188
  234ccc     O2 6774   8.986   0.848   6.387  1.1195 -0.6971  0.1466
  234ccc     O3 6775   9.097   0.751   6.537 -0.6737  0.0605 -0.0344
  234ccc     C7 6776   9.225   1.216   6.178 -0.0244 -0.3344  0.0066
  234ccc    H11 6777   9.288   1.304   6.159  0.4226 -0.7741 -0.5766
  234ccc    H12 6778   9.255   1.151   6.095 -0.1175  0.3715 -0.6011
  234ccc     C8 6779   9.078   1.263   6.161 -0.8115 -0.3311 -0.0996
  234ccc    H13 6780   9.007   1.183   6.186 -0.1434 -0.9098 -0.0066
  234ccc    H14 6781   9.069   1.350   6.226  0.2616 -0.7789  0.6872
  234ccc     C9 6782   9.061   1.308   6.024 -0.3474 -0.4097 -0.1278
  234ccc     O4 6783   9.008   1.242   5.935 -0.4055  1.0004 -0.2377
  234ccc     O5 6784   9.077   1.427   5.999 -0.4264  0.3228  0.3775
  234ccc     O1 6785   9.344   1.425   6.441 -0.0288 -0.1946 -0.6149
  235ccc     C3 6786   7.621   2.047   5.891  0.2672  0.1267  0.6834
  235ccc     H5 6787   7.681   2.044   5.983 -2.2531  1.1022  2.4818
  235ccc     H6 6788   7.537   1.981   5.914  0.9772  0.0337  3.3654
  235ccc     C2 6789   7.695   1.986   5.772  0.4890  0.1914  0.2980
  235ccc     H3 6790   7.757   1.899   5.799  1.3372  1.0902  1.3645
  235ccc     H4 6791   7.768   2.053   5.725  1.7978 -3.3483 -3.3103
  235ccc     C1 6792   7.595   1.954   5.658 -0.1248 -0.5704  0.2714
  235ccc     H1 6793   7.525   2.037   5.643 -0.8988 -0.8507  2.0056
  235ccc     H2 6794   7.532   1.868   5.684  0.4824 -1.0887  0.0389
  235ccc     N1 6795   7.657   1.920   5.527  0.1581 -0.6368  0.1363
  235ccc     C4 6796   7.736   1.794   5.543 -0.1607  0.3355  0.1406
  235ccc     H7 6797   7.688   1.706   5.499  2.2414 -1.1491  0.3364
  235ccc     H8 6798   7.760   1.772   5.647  1.2643 -0.2695 -0.2931
  235ccc     C5 6799   7.866   1.788   5.470 -0.2509 -0.5156 -0.0175
  235ccc     H9 6800   7.847   1.796   5.362 -0.0236  0.7356  0.0191
  235ccc    H10 6801   7.931   1.870   5.503 -2.1134  0.1653  2.2093
  235ccc     C6 6802   7.940   1.666   5.505 -0.4314  0.2852  0.5980
  235ccc     O2 6803   7.882   1.557   5.503 -0.3656 -0.5348 -0.2232
  235ccc     O3 6804   8.066   1.656   5.513 -0.6037 -0.6765  0.0313
  235ccc     C7 6805   7.555   1.909   5.420  0.3053  0.2821 -0.1465
  235ccc    H11 6806   7.491   1.825   5.449  0.3344  0.1676 -0.4095
  235ccc    H12 6807   7.496   2.001   5.410  0.5284  0.3385 -1.0260
  235ccc     C8 6808   7.609   1.867   5.284 -0.3789 -0.1595  0.6326
  235ccc    H13 6809   7.695   1.934   5.267 -1.2384  0.9472  0.5352
  235ccc    H14 6810   7.637   1.762   5.295 -0.7484 -0.3112  0.1455
  235ccc     C9 6811   7.509   1.891   5.183  0.0586  0.2748  0.2522
  235ccc     O4 6812   7.457   2.002   5.158  0.2840 -0.2384 -0.0983
  235ccc     O5 6813   7.471   1.794   5.119  0.0159 -0.6666 -0.0692
  235ccc     O1 6814   7.573   2.183   5.857  0.2192 -0.4440 -0.8892
  236ccc     C3 6815   7.466   2.878   5.333 -0.0995  0.1039  0.4117
  236ccc     H5 6816   7.562   2.893   5.384 -0.3183 -2.0562  1.5733
  236ccc     H6 6817   7.476   2.863   5.225  0.1223  0.5114  0.3738
  236ccc     C2 6818   7.369   2.997   5.342  1.0992  0.9864 -0.3766
  236ccc     H3 6819   7.423   3.088   5.315  1.7667  1.8802  3.5055
  236ccc     H4 6820   7.339   3.007   5.447  0.1913  0.2781 -0.5517
  236ccc     C1 6821   7.242   2.985   5.243 -0.3334  0.0908  0.0308
  236ccc     H1 6822   7.201   2.883   5.235 -0.9849  0.4688 -2.4108
  236ccc     H2 6823   7.284   3.006   5.144  1.1101 -0.8994  0.4148
  236ccc     N1 6824   7.130   3.082   5.263  0.4853  0.5315 -0.0433
  236ccc     C4 6825   7.173   3.223   5.270  0.3051  0.0743 -0.8361
  236ccc     H7 6826   7.233   3.241   5.360 -0.5298  1.3846 -0.5076
  236ccc     H8 6827   7.079   3.277   5.290 -1.1431 -1.9348 -1.8925
  236ccc     C5 6828   7.249   3.279   5.150  0.5046 -0.7312 -0.1187
  236ccc     H9 6829   7.355   3.253   5.164 -0.0406 -1.8845  2.6222
  236ccc    H10 6830   7.212   3.246   5.053  0.8255 -1.6569  0.0641
  236ccc     C6 6831   7.234   3.429   5.148 -0.2142 -0.0013  0.1152
  236ccc     O2 6832   7.132   3.476   5.095 -0.3009 -0.1051 -0.0780
  236ccc     O3 6833   7.340   3.493   5.164  0.4042  0.1266  0.2803
  236ccc     C7 6834   7.018   3.071   5.165  0.1562  0.3326  0.8727
  236ccc    H11 6835   7.046   3.111   5.067  0.1492  1.7323  1.4203
  236ccc    H12 6836   7.003   2.965   5.138 -2.0958  1.2928 -2.0408
  236ccc     C8 6837   6.880   3.123   5.219 -0.3910  0.6209  0.1563
  236ccc    H13 6838   6.827   3.047   5.277 -1.5343  1.0516 -0.3121
  236ccc    H14 6839   6.889   3.208   5.287  1.1201  2.0278 -1.6750
  236ccc     C9 6840   6.799   3.166   5.102 -0.2629  0.0266  0.2198
  236ccc     O4 6841   6.694   3.108   5.080 -0.3911  0.1199 -0.6229
  236ccc     O5 6842   6.835   3.258   5.029  0.0749  0.0537 -0.5078
  236ccc     O1 6843   7.408   2.755   5.389 -0.3865 -0.2867  0.3261
  237ccc     C3 6844   7.004   1.863   5.614  0.6678  0.4244  0.5129
  237ccc     H5 6845   6.933   1.948   5.616  0.0448 -0.0263  3.7167
  237ccc     H6 6846   7.076   1.881   5.534 -2.5883  0.2194 -2.7422
  237ccc     C2 6847   6.920   1.741   5.575 -0.5567  0.0106 -0.3509
  237ccc     H3 6848   6.986   1.656   5.556 -2.7067 -1.8228 -0.0024
  237ccc     H4 6849   6.866   1.769   5.484 -1.7793  0.7348  0.5670
  237ccc     C1 6850   6.816   1.680   5.680 -0.2578  0.4529  0.3327
  237ccc     H1 6851   6.873   1.652   5.769 -0.5010 -2.2821 -0.2935
  237ccc     H2 6852   6.767   1.587   5.647  1.2500 -0.2983  0.1361
  237ccc     N1 6853   6.712   1.776   5.718  0.2141 -0.5926  0.4112
  237ccc     C4 6854   6.615   1.814   5.612 -0.2139  0.3709 -0.2020
  237ccc     H7 6855   6.551   1.733   5.576  1.1015 -0.8312  0.0563
  237ccc     H8 6856   6.679   1.850   5.529  1.0572 -0.2814  0.4661
  237ccc     C5 6857   6.550   1.944   5.645  0.8781 -0.5528 -0.0551
  237ccc     H9 6858   6.485   1.936   5.733 -0.8347  0.5775 -1.1621
  237ccc    H10 6859   6.619   2.027   5.668  0.2156 -0.2882  1.0612
  237ccc     C6 6860   6.459   1.981   5.534 -0.4204 -0.7376 -0.5831
  237ccc     O2 6861   6.464   2.087   5.485  0.0202  0.3128  0.1331
  237ccc     O3 6862   6.373   1.913   5.487  0.0728  0.0195  0.6157
  237ccc     C7 6863   6.656   1.737   5.852 -0.4036 -0.0107 -0.0497
  237ccc    H11 6864   6.737   1.718   5.922 -1.4090 -1.4153  0.7758
  237ccc    H12 6865   6.595   1.819   5.893 -0.0400 -0.0536  0.5749
  237ccc     C8 6866   6.569   1.614   5.846 -0.0445  0.0417 -0.3683
  237ccc    H13 6867   6.479   1.640   5.789 -0.2432  0.1629 -0.0036
  237ccc    H14 6868   6.624   1.528   5.806 -0.6659 -0.4163 -0.2521
  237ccc     C9 6869   6.525   1.582   5.982 -0.5382 -0.3364 -0.2896
  237ccc     O4 6870   6.589   1.491   6.032  0.2707  0.0230  0.4101
  237ccc     O5 6871   6.410   1.602   6.025  0.1063 -0.4537 -0.3151
  237ccc     O1 6872   7.074   1.838   5.734 -0.6037 -0.0760 -0.3000
  238ccc     C3 6873   7.212   1.312   6.418  1.2419  0.1906 -0.3644
  238ccc     H5 6874   7.143   1.253   6.357  1.3718  1.8443 -2.2002
  238ccc     H6 6875   7.315   1.286   6.389  2.2147  0.7149  2.2936
  238ccc     C2 6876   7.193   1.279   6.564 -0.3018 -0.2419 -0.5095
  238ccc     H3 6877   7.253   1.347   6.625  0.6661 -0.4300 -1.2202
  238ccc     H4 6878   7.242   1.184   6.588  2.1900  1.1784  0.3993
  238ccc     C1 6879   7.044   1.279   6.614 -0.2681  0.5479  0.0876
  238ccc     H1 6880   6.999   1.379   6.605  0.1866  0.6613 -1.0326
  238ccc     H2 6881   7.051   1.262   6.723  1.7014 -2.3652 -0.3766
  238ccc     N1 6882   6.962   1.180   6.541 -0.7179 -0.1990  0.0533
  238ccc     C4 6883   6.905   1.079   6.625 -0.5207  0.1209  0.5440
  238ccc     H7 6884   6.813   1.034   6.585  0.1069 -1.3426  0.7042
  238ccc     H8 6885   6.876   1.114   6.725 -3.1719 -2.6878  0.8960
  238ccc     C5 6886   7.008   0.967   6.651 -0.3153 -0.3721 -0.3820
  238ccc     H9 6887   7.036   0.914   6.559  1.1836  0.9858 -0.7652
  238ccc    H10 6888   7.105   1.011   6.679  0.1866  0.3897 -3.0565
  238ccc     C6 6889   6.939   0.877   6.744  0.4463  0.7928 -0.1977
  238ccc     O2 6890   6.906   0.760   6.713  0.1336  0.4383 -0.4761
  238ccc     O3 6891   6.949   0.903   6.861  0.4028  0.9468 -0.5001
  238ccc     C7 6892   6.880   1.242   6.449  0.9737 -0.1007  0.2384
  238ccc    H11 6893   6.797   1.279   6.511  1.4998 -0.9265  1.4681
  238ccc    H12 6894   6.932   1.325   6.399  0.6902 -0.9762 -1.6151
  238ccc     C8 6895   6.832   1.159   6.334 -0.4939  1.0861 -0.5129
  238ccc    H13 6896   6.921   1.130   6.276 -0.9595 -1.1251 -0.2038
  238ccc    H14 6897   6.790   1.069   6.380 -1.6275  2.5702  1.5137
  238ccc     C9 6898   6.740   1.238   6.248 -0.2400 -0.2734 -0.2069
  238ccc     O4 6899   6.777   1.266   6.135 -0.2188 -0.0412  0.0885
  238ccc     O5 6900   6.623   1.267   6.283  0.2778 -0.5616  0.2336
  238ccc     O1 6901   7.181   1.447   6.414 -0.2635  0.0784  0.3449
  239ccc     C3 6902  11.368   2.925   7.742 -0.1525 -0.1287  0.1221
  239ccc     H5 6903  11.460   2.971   7.703 -0.8543  1.4751  0.3011
  239ccc     H6 6904  11.380   2.873   7.838  2.3443  1.3892  0.7409
  239ccc     C2 6905  11.305   2.831   7.641 -0.3859  0.2288 -0.4405
  239ccc     H3 6906  11.279   2.889   7.552  0.1722  0.4231 -0.4776
  239ccc     H4 6907  11.214   2.778   7.673 -0.5999  0.4651 -0.6533
  239ccc     C1 6908  11.399   2.718   7.595  0.2531 -1.0348 -0.2964
  239ccc     H1 6909  11.474   2.768   7.532  0.2857 -1.2394 -0.4229
  239ccc     H2 6910  11.357   2.652   7.519  3.2866 -1.4626 -1.7688
  239ccc     N1 6911  11.454   2.630   7.698 -0.9142  0.6691  0.1219
  239ccc     C4 6912  11.367   2.546   7.784  0.1406  0.5474 -0.1131
  239ccc     H7 6913  11.303   2.622   7.833  0.3141  0.2716  0.5514
  239ccc     H8 6914  11.425   2.504   7.867 -1.0923 -0.7212  0.1529
  239ccc     C5 6915  11.277   2.454   7.705  0.1359 -0.3398 -0.1432
  239ccc     H9 6916  11.183   2.468   7.759  1.3517  2.4149  1.4988
  239ccc    H10 6917  11.277   2.485   7.599 -0.3328 -0.1103 -0.0778
  239ccc     C6 6918  11.327   2.318   7.720 -0.8956  0.6559 -0.0824
  239ccc     O2 6919  11.336   2.260   7.828  0.0257 -0.1085 -0.2648
  239ccc     O3 6920  11.383   2.264   7.623  0.4783  0.4001  0.4144
  239ccc     C7 6921  11.575   2.561   7.646  0.6098  0.2051 -0.9107
  239ccc    H11 6922  11.545   2.475   7.584 -1.9104 -0.4772  1.0835
  239ccc    H12 6923  11.644   2.632   7.599  0.4219  1.0573  0.0646
  239ccc     C8 6924  11.663   2.501   7.763 -0.2852  0.6272  0.0942
  239ccc    H13 6925  11.768   2.515   7.735  0.1702 -0.0689  1.4095
  239ccc    H14 6926  11.654   2.545   7.863 -1.1391  0.2155  0.2019
  239ccc     C9 6927  11.645   2.351   7.770  0.1276 -0.9010 -0.2141
  239ccc     O4 6928  11.674   2.281   7.672 -0.2185  0.8383 -0.0386
  239ccc     O5 6929  11.638   2.295   7.877  0.0168  0.0676  0.1617
  239ccc     O1 6930  11.281   3.040   7.756  0.1762  0.1652 -0.0582
  240ccc     C3 6931  11.064   2.829   8.215  0.4269  0.5793  0.3194
  240ccc     H5 6932  11.152   2.775   8.180 -0.1306 -0.2537  0.1926
  240ccc     H6 6933  11.083   2.922   8.160  0.9502 -0.8000 -1.9603
  240ccc     C2 6934  11.070   2.846   8.362  0.8265  0.2751  0.0407
  240ccc     H3 6935  11.168   2.871   8.405  1.4253 -2.7732  0.6756
  240ccc     H4 6936  11.052   2.750   8.413 -2.1106  0.7436  0.0696
  240ccc     C1 6937  10.969   2.947   8.421 -0.0708  0.4162  0.0158
  240ccc     H1 6938  10.880   2.951   8.357  0.2163  2.0048 -0.3392
  240ccc     H2 6939  11.008   3.050   8.418 -0.1973  0.4371 -1.5568
  240ccc     N1 6940  10.935   2.912   8.558 -0.1227  0.2274 -0.1136
  240ccc     C4 6941  10.814   2.828   8.572  0.3984  0.2318  0.9437
  240ccc     H7 6942  10.802   2.754   8.491 -0.4867  0.5836  0.7401
  240ccc     H8 6943  10.728   2.893   8.549  1.6778  0.8143 -2.9997
  240ccc     C5 6944  10.794   2.740   8.697  0.2259 -0.5978 -0.0312
  240ccc     H9 6945  10.865   2.656   8.697  1.4243  0.3772  1.0162
  240ccc    H10 6946  10.801   2.798   8.789  0.2485  1.2233 -1.1204
  240ccc     C6 6947  10.657   2.695   8.702  0.0679  0.5128  0.3040
  240ccc     O2 6948  10.565   2.771   8.719 -0.5788 -0.0875 -0.0511
  240ccc     O3 6949  10.633   2.574   8.706 -0.4168  0.3587  0.5116
  240ccc     C7 6950  10.920   3.037   8.638 -0.2370 -0.3559 -0.3693
  240ccc    H11 6951  10.888   3.123   8.578  1.4963  0.8443  0.3291
  240ccc    H12 6952  10.853   3.009   8.719 -1.2918 -1.1726 -1.4887
  240ccc     C8 6953  11.050   3.060   8.714 -0.1834 -0.0830  0.5572
  240ccc    H13 6954  11.079   2.965   8.760  0.1945 -0.8058 -1.1046
  240ccc    H14 6955  11.130   3.085   8.643 -0.2029  2.3862  1.3002
  240ccc     C9 6956  11.029   3.165   8.816  0.3617  0.4418 -0.1915
  240ccc     O4 6957  10.991   3.140   8.927  0.1599 -0.2326 -0.2645
  240ccc     O5 6958  11.031   3.281   8.792  0.2912 -0.5675  0.3671
  240ccc     O1 6959  10.935   2.773   8.180 -0.2069  0.2725  0.4050
  241ccc     C3 6960  10.755   3.430   8.176  0.5128  0.0105  0.2448
  241ccc     H5 6961  10.706   3.332   8.171 -0.6852  0.6023 -0.0468
  241ccc     H6 6962  10.862   3.421   8.154  0.1610  0.0194 -1.6429
  241ccc     C2 6963  10.740   3.474   8.327 -0.4555 -0.5851 -0.0120
  241ccc     H3 6964  10.770   3.579   8.336  1.2814 -0.8306 -2.0647
  241ccc     H4 6965  10.812   3.412   8.381  0.9897  1.1541  0.1301
  241ccc     C1 6966  10.605   3.454   8.392 -0.2096  0.0600 -0.3394
  241ccc     H1 6967  10.536   3.520   8.338  1.6740  1.0211 -1.6564
  241ccc     H2 6968  10.607   3.484   8.498  1.3827  1.5405 -0.7425
  241ccc     N1 6969  10.563   3.308   8.386  0.1885  0.0110 -0.2654
  241ccc     C4 6970  10.415   3.296   8.364 -0.0241  0.3491 -0.3478
  241ccc     H7 6971  10.370   3.362   8.439  0.0213 -0.9759  0.8964
  241ccc     H8 6972  10.382   3.196   8.395  0.9767  1.1602  4.0415
  241ccc     C5 6973  10.369   3.321   8.216 -0.4206  0.4797 -1.0232
  241ccc     H9 6974  10.359   3.428   8.191 -1.1929  0.0389 -2.7389
  241ccc    H10 6975  10.437   3.271   8.146  0.1587 -0.2192  0.0262
  241ccc     C6 6976  10.229   3.263   8.201 -0.5992  0.3453 -0.1644
  241ccc     O2 6977  10.214   3.142   8.165 -0.0644 -0.0702 -0.1564
  241ccc     O3 6978  10.134   3.336   8.208 -0.1568 -0.1612  0.1626
  241ccc     C7 6979  10.606   3.220   8.500  0.5150 -0.4958 -0.2285
  241ccc    H11 6980  10.588   3.113   8.484 -0.4998 -0.6116  1.4340
  241ccc    H12 6981  10.712   3.242   8.515  0.0969  1.6521 -0.1770
  241ccc     C8 6982  10.543   3.250   8.632  0.4369 -0.7523 -0.1860
  241ccc    H13 6983  10.568   3.355   8.650 -0.7025 -0.1913 -1.6296
  241ccc    H14 6984  10.436   3.236   8.654  0.5087  0.4249  1.0039
  241ccc     C9 6985  10.613   3.169   8.735 -0.6465 -0.4226 -0.0623
  241ccc     O4 6986  10.546   3.084   8.789  0.1107  0.2051 -0.1352
  241ccc     O5 6987  10.725   3.196   8.775 -0.1779 -0.1905 -0.5979
  241ccc     O1 6988  10.675   3.526   8.096 -0.1328  0.1232  0.0636
  242ccc     C3 6989  10.745   3.587   7.139  0.1514 -0.6328  0.0690
  242ccc     H5 6990  10.757   3.695   7.150  1.2061 -0.5061 -1.9165
  242ccc     H6 6991  10.848   3.551   7.155  0.4572  0.1696 -0.0672
  242ccc     C2 6992  10.705   3.541   6.998 -0.4689  0.2851  0.1108
  242ccc     H3 6993  10.710   3.432   6.998 -2.1686  0.1143 -2.7266
  242ccc     H4 6994  10.766   3.588   6.920 -1.3745  0.1837 -0.6725
  242ccc     C1 6995  10.558   3.575   6.960 -0.1620  0.8454 -0.2877
  242ccc     H1 6996  10.498   3.513   7.028 -1.8978  2.7297  0.0180
  242ccc     H2 6997  10.535   3.542   6.857 -0.8502 -0.2823  0.2111
  242ccc     N1 6998  10.519   3.714   6.960  0.0832  0.8074  0.2739
  242ccc     C4 6999  10.449   3.770   7.082  0.2622 -0.2535  0.4652
  242ccc     H7 7000  10.441   3.879   7.068 -2.3337 -0.4579 -0.0105
  242ccc     H8 7001  10.508   3.750   7.173  0.1155 -2.7297  0.0627
  242ccc     C5 7002  10.307   3.705   7.111  0.0739 -0.6086  0.1055
  242ccc     H9 7003  10.309   3.596   7.126  0.1178 -0.6273 -0.0424
  242ccc    H10 7004  10.285   3.733   7.215  0.1467 -1.0765  0.2508
  242ccc     C6 7005  10.201   3.750   7.015 -0.0308 -0.2340  0.0753
  242ccc     O2 7006  10.157   3.856   7.041  0.2345 -0.1123  0.4333
  242ccc     O3 7007  10.191   3.710   6.905 -0.1185  0.5073  0.4657
  242ccc     C7 7008  10.615   3.809   6.894 -0.3955  0.7318 -0.4833
  242ccc    H11 7009  10.695   3.831   6.965  0.1373  1.3456 -1.2525
  242ccc    H12 7010  10.666   3.758   6.810  0.3852 -1.0604  0.9956
  242ccc     C8 7011  10.557   3.937   6.840 -0.4962  0.2358 -0.0541
  242ccc    H13 7012  10.541   4.004   6.926  1.5833  1.3440 -0.4576
  242ccc    H14 7013  10.642   3.982   6.788 -1.1941 -0.7556 -2.1481
  242ccc     C9 7014  10.438   3.921   6.762  0.0236 -0.3066 -0.2595
  242ccc     O4 7015  10.329   3.948   6.813  0.0729 -0.1995  0.5036
  242ccc     O5 7016  10.444   3.846   6.664 -0.3306 -0.5058 -0.4739
  242ccc     O1 7017  10.661   3.531   7.241  0.0388 -0.0121  0.3269
  243ccc     C3 7018   9.802   3.346   6.419 -0.6261  0.3240 -0.6292
  243ccc     H5 7019   9.708   3.305   6.380 -2.3875 -0.5387  3.8543
  243ccc     H6 7020   9.820   3.282   6.506 -0.6239  1.5376  0.2935
  243ccc     C2 7021   9.807   3.487   6.486 -0.0610 -0.3072 -0.0327
  243ccc     H3 7022   9.910   3.521   6.504  0.6206 -1.2931 -1.8364
  243ccc     H4 7023   9.771   3.481   6.589 -1.5474  0.8557 -0.4431
  243ccc     C1 7024   9.746   3.598   6.396 -0.2334 -0.3794  0.0156
  243ccc     H1 7025   9.663   3.567   6.330  0.1756 -1.6276  0.0656
  243ccc     H2 7026   9.823   3.617   6.320  0.1427  0.1741  0.5284
  243ccc     N1 7027   9.712   3.723   6.469 -0.1255 -0.1161 -0.5739
  243ccc     C4 7028   9.594   3.693   6.554 -0.0752  0.3694  0.1037
  243ccc     H7 7029   9.638   3.642   6.641  2.3998  0.9269 -0.7553
  243ccc     H8 7030   9.528   3.614   6.517  0.7913  0.1049 -0.8905
  243ccc     C5 7031   9.519   3.820   6.589  1.3767  0.4255  0.5838
  243ccc     H9 7032   9.572   3.895   6.649  0.5343  1.0655  0.5396
  243ccc    H10 7033   9.477   3.881   6.508  1.0827  0.1052  0.4916
  243ccc     C6 7034   9.402   3.786   6.672  0.9131  0.5070  0.0932
  243ccc     O2 7035   9.289   3.791   6.628  0.1806  0.7892 -0.4284
  243ccc     O3 7036   9.423   3.727   6.776 -0.3052 -0.1243 -0.7730
  243ccc     C7 7037   9.814   3.784   6.553  0.0938 -0.2333  0.1892
  243ccc    H11 7038   9.770   3.877   6.592 -0.3202 -0.3172 -0.0706
  243ccc    H12 7039   9.839   3.720   6.638  0.7650  1.6925  1.5085
  243ccc     C8 7040   9.938   3.818   6.474  0.3084 -0.0569 -0.0432
  243ccc    H13 7041   9.979   3.718   6.453  1.8520  0.3805  0.7099
  243ccc    H14 7042   9.915   3.875   6.383 -0.5829  1.2722  0.9639
  243ccc     C9 7043  10.040   3.895   6.552 -0.3126  0.3169 -0.3827
  243ccc     O4 7044  10.071   3.860   6.666 -0.5852 -0.0239  0.1654
  243ccc     O5 7045  10.078   4.007   6.515  0.4403 -0.1368  0.5453
  243ccc     O1 7046   9.894   3.330   6.314 -0.1469  0.4599  0.4963
  244ccc     C3 7047  10.201   2.373   6.105  0.6380  0.1089  0.0564
  244ccc     H5 7048  10.125   2.350   6.029 -1.0338  1.8787  1.0869
  244ccc     H6 7049  10.290   2.411   6.052  1.4220 -2.2656 -0.4431
  244ccc     C2 7050  10.232   2.261   6.200 -0.3447  0.2148 -0.2213
  244ccc     H3 7051  10.274   2.183   6.135 -2.0678 -1.1083  0.1901
  244ccc     H4 7052  10.138   2.213   6.228  0.9329 -2.0834  0.3713
  244ccc     C1 7053  10.315   2.295   6.328 -0.1211  0.9247 -0.2557
  244ccc     H1 7054  10.261   2.367   6.390 -0.8866  0.2990 -0.1797
  244ccc     H2 7055  10.406   2.344   6.293 -1.2295  1.2853 -2.8457
  244ccc     N1 7056  10.345   2.171   6.411  0.2118 -0.4667 -0.0213
  244ccc     C4 7057  10.447   2.195   6.512 -0.4491  0.1676 -0.4679
  244ccc     H7 7058  10.437   2.130   6.600 -2.3026  0.2799 -0.5530
  244ccc     H8 7059  10.426   2.295   6.552 -2.5091 -0.6623  0.6851
  244ccc     C5 7060  10.589   2.200   6.455 -0.1399  0.2832  0.2201
  244ccc     H9 7061  10.609   2.118   6.386  0.2587 -0.0068  0.6717
  244ccc    H10 7062  10.603   2.298   6.408 -0.1245  1.0571  1.7537
  244ccc     C6 7063  10.700   2.219   6.548  0.2655 -0.5942  0.4082
  244ccc     O2 7064  10.691   2.181   6.664 -0.2403  0.2832  0.3748
  244ccc     O3 7065  10.806   2.260   6.501 -0.2619  0.0119 -0.5785
  244ccc     C7 7066  10.224   2.128   6.481  0.0560 -0.1735  0.0186
  244ccc    H11 7067  10.203   2.190   6.569 -0.9662 -0.2947 -0.1280
  244ccc    H12 7068  10.140   2.151   6.415  0.3957 -3.1468 -1.6244
  244ccc     C8 7069  10.230   1.975   6.518 -0.6001  0.1921  0.3031
  244ccc    H13 7070  10.260   1.922   6.428 -0.4770 -1.8875  1.5073
  244ccc    H14 7071  10.315   1.950   6.584  1.6307  0.4774 -2.3051
  244ccc     C9 7072  10.105   1.922   6.572 -0.0784  0.0981 -0.0924
  244ccc     O4 7073  10.026   1.868   6.496  0.2095 -0.5962  0.5771
  244ccc     O5 7074  10.102   1.879   6.690  0.4827 -0.0030 -0.5830
  244ccc     O1 7075  10.135   2.484   6.178  0.0567 -0.1172  0.7975
  245ccc     C3 7076   8.921   3.078   6.148  0.1741  0.7167  0.0479
  245ccc     H5 7077   9.029   3.084   6.133  0.4721 -1.1092  1.1137
  245ccc     H6 7078   8.892   3.021   6.059 -1.3354 -1.2207  1.6965
  245ccc     C2 7079   8.855   3.211   6.159  0.1466 -0.4509 -0.4301
  245ccc     H3 7080   8.745   3.210   6.165  0.2149 -0.2571  1.3941
  245ccc     H4 7081   8.880   3.256   6.062  1.8616  0.0101  0.2032
  245ccc     C1 7082   8.916   3.294   6.279  0.1474 -0.1775 -0.0688
  245ccc     H1 7083   9.013   3.250   6.303  0.4397 -0.0201 -0.9168
  245ccc     H2 7084   8.850   3.281   6.366 -1.3972  1.3560 -0.9322
  245ccc     N1 7085   8.943   3.442   6.256  0.0807 -0.2466 -0.3161
  245ccc     C4 7086   9.013   3.506   6.370 -0.4006  0.8298  0.7873
  245ccc     H7 7087   9.028   3.611   6.339  0.6177  0.0746 -1.5247
  245ccc     H8 7088   9.113   3.461   6.380  0.0843  0.9363 -2.5277
  245ccc     C5 7089   8.939   3.492   6.510  0.5994 -0.1590  0.0730
  245ccc     H9 7090   8.837   3.530   6.507  1.3125  1.8805 -0.5326
  245ccc    H10 7091   8.935   3.389   6.548  1.1767  0.2670  1.3317
  245ccc     C6 7092   8.998   3.577   6.613  0.3110 -0.6843  0.4047
  245ccc     O2 7093   8.978   3.694   6.602 -0.5632 -0.6372  0.3989
  245ccc     O3 7094   9.068   3.545   6.709 -0.0807 -0.3058  0.0253
  245ccc     C7 7095   8.992   3.478   6.121 -0.4614  0.0856 -0.2794
  245ccc    H11 7096   9.062   3.561   6.134 -1.4191  1.2206 -2.0211
  245ccc    H12 7097   9.054   3.403   6.071  1.2726  3.0723 -2.9908
  245ccc     C8 7098   8.873   3.521   6.036 -0.6014 -0.4820 -0.2606
  245ccc    H13 7099   8.797   3.444   6.018  0.9071 -1.4725 -2.9354
  245ccc    H14 7100   8.823   3.606   6.084 -2.5687 -1.2677 -0.8445
  245ccc     C9 7101   8.910   3.569   5.901  0.0171 -0.1079  0.0137
  245ccc     O4 7102   8.875   3.503   5.803 -0.5568 -0.1323 -0.2108
  245ccc     O5 7103   9.008   3.640   5.885  0.4912 -0.4434  0.1161
  245ccc     O1 7104   8.889   3.007   6.267 -0.4951  0.4867 -0.0868
  246ccc     C3 7105   9.424   3.336   6.578 -0.4186 -0.6634 -0.1284
  246ccc     H5 7106   9.529   3.324   6.549 -1.0029 -0.1053 -2.7227
  246ccc     H6 7107   9.381   3.402   6.502 -0.0529 -0.4946 -0.1890
  246ccc     C2 7108   9.417   3.395   6.725 -0.1268 -0.1599 -0.3504
  246ccc     H3 7109   9.318   3.432   6.753  0.6616  0.8940  1.1845
  246ccc     H4 7110   9.490   3.478   6.725  1.9779 -1.8756 -2.5093
  246ccc     C1 7111   9.460   3.289   6.832  0.1590  0.0173  0.1372
  246ccc     H1 7112   9.529   3.224   6.777 -0.4846 -0.8547  0.3440
  246ccc     H2 7113   9.366   3.236   6.850  0.6628 -2.1463 -2.8327
  246ccc     N1 7114   9.514   3.346   6.960  0.0252 -0.5109 -0.4644
  246ccc     C4 7115   9.427   3.319   7.088 -0.4341  0.6003  0.3695
  246ccc     H7 7116   9.468   3.363   7.180 -0.0868  0.9261  0.0640
  246ccc     H8 7117   9.424   3.210   7.101  1.7090  0.2874 -1.1291
  246ccc     C5 7118   9.288   3.382   7.078  0.3211 -0.2712 -0.3559
  246ccc     H9 7119   9.232   3.359   6.987  0.4426  1.4632 -0.9117
  246ccc    H10 7120   9.232   3.353   7.168 -2.2135  1.0566 -1.4017
  246ccc     C6 7121   9.293   3.533   7.079 -0.1046 -0.8082 -0.4728
  246ccc     O2 7122   9.351   3.593   7.169 -1.0408  0.3900 -0.5328
  246ccc     O3 7123   9.291   3.595   6.975  0.3079  0.5336 -0.1319
  246ccc     C7 7124   9.657   3.367   6.962 -0.0770 -0.2111 -0.2095
  246ccc    H11 7125   9.705   3.270   6.940 -1.7001 -0.8448 -1.0600
  246ccc    H12 7126   9.696   3.435   6.886  1.7800 -0.3802  0.5285
  246ccc     C8 7127   9.741   3.409   7.081 -0.0498  0.6112 -0.0475
  246ccc    H13 7128   9.730   3.344   7.168  0.9038  1.9384  1.1045
  246ccc    H14 7129   9.842   3.415   7.038  0.1806 -1.2883  0.1621
  246ccc     C9 7130   9.700   3.548   7.117  0.2865  0.0326  0.8065
  246ccc     O4 7131   9.666   3.562   7.233 -0.3831  0.3569  0.5595
  246ccc     O5 7132   9.666   3.624   7.033  0.3433  0.2590 -0.7215
  246ccc     O1 7133   9.349   3.211   6.567  0.4398 -0.0262 -0.4673
  247ccc     C3 7134   8.771  -0.049   8.315  0.5408 -0.1772 -0.3481
  247ccc     H5 7135   8.863   0.010   8.324  1.3669 -1.3470 -0.9464
  247ccc     H6 7136   8.689   0.002   8.368 -1.2077 -1.5618 -1.5808
  247ccc     C2 7137   8.784  -0.181   8.382  0.5242  0.5325  0.2439
  247ccc     H3 7138   8.695  -0.240   8.358  1.1106  0.6924 -2.7144
  247ccc     H4 7139   8.787  -0.174   8.491  2.9127 -0.2737  0.2921
  247ccc     C1 7140   8.900  -0.272   8.324  0.0130  0.4728 -0.3220
  247ccc     H1 7141   8.890  -0.285   8.215  1.1855  1.8772 -0.6284
  247ccc     H2 7142   8.904  -0.364   8.382  1.5639  0.6037 -0.1896
  247ccc     N1 7143   9.036  -0.217   8.350  0.3068  0.2151 -0.3916
  247ccc     C4 7144   9.136  -0.291   8.282 -1.0470 -0.0749  0.1935
  247ccc     H7 7145   9.105  -0.325   8.182  1.2058  0.5756 -0.7899
  247ccc     H8 7146   9.161  -0.382   8.338 -0.3880  0.0743  0.1394
  247ccc     C5 7147   9.263  -0.213   8.262  0.4422 -0.2092  0.0925
  247ccc     H9 7148   9.241  -0.149   8.175  0.9317  0.2077  0.2745
  247ccc    H10 7149   9.302  -0.157   8.348 -1.4300 -0.5114  1.1901
  247ccc     C6 7150   9.375  -0.303   8.230 -0.0293 -0.5215  0.0382
  247ccc     O2 7151   9.395  -0.345   8.116  0.0065 -0.0489 -0.0234
  247ccc     O3 7152   9.437  -0.357   8.321 -0.4543  0.5889 -0.5242
  247ccc     C7 7153   9.064  -0.188   8.488  0.3433  0.9075 -0.1213
  247ccc    H11 7154   8.998  -0.238   8.560  0.7209  2.5672  1.4468
  247ccc    H12 7155   9.154  -0.241   8.521 -1.4770 -0.4422  3.2384
  247ccc     C8 7156   9.059  -0.037   8.527  0.1169 -0.1891  0.1931
  247ccc    H13 7157   9.122   0.015   8.453  0.4149 -1.8002 -0.7473
  247ccc    H14 7158   8.956  -0.005   8.511  0.9802  1.9207 -1.7760
  247ccc     C9 7159   9.101  -0.014   8.671 -0.1511 -0.1498 -0.2595
  247ccc     O4 7160   9.020  -0.017   8.764  0.2292 -0.1707  0.2951
  247ccc     O5 7161   9.205   0.040   8.696  0.1769 -0.2590  0.1083
  247ccc     O1 7162   8.734  -0.063   8.175  0.3309 -0.1043  0.2450
  248ccc     C3 7163   9.366   0.401   8.400 -0.1987  0.1006 -0.2546
  248ccc     H5 7164   9.291   0.401   8.480  1.7092  0.0651  1.6199
  248ccc     H6 7165   9.449   0.349   8.450 -1.5018 -1.1286  0.7055
  248ccc     C2 7166   9.410   0.544   8.372  0.0382  0.4708 -0.2652
  248ccc     H3 7167   9.498   0.536   8.306 -0.8159 -0.4705 -1.3238
  248ccc     H4 7168   9.451   0.586   8.464  0.9520  0.8429 -0.8258
  248ccc     C1 7169   9.307   0.632   8.308  0.1869 -0.4967  0.5631
  248ccc     H1 7170   9.274   0.584   8.216  1.0517  2.0320 -1.1640
  248ccc     H2 7171   9.349   0.730   8.282 -1.1527  0.2685  1.1829
  248ccc     N1 7172   9.181   0.653   8.385 -0.5391 -0.4611 -0.0015
  248ccc     C4 7173   9.206   0.753   8.495 -0.0485 -0.3121  0.3794
  248ccc     H7 7174   9.208   0.858   8.463  0.4502 -0.5906 -0.5050
  248ccc     H8 7175   9.302   0.735   8.545  2.0106  2.3080 -2.3077
  248ccc     C5 7176   9.096   0.742   8.605 -0.4038 -0.0818 -0.5080
  248ccc     H9 7177   9.004   0.782   8.562 -0.3985  1.3990  0.7908
  248ccc    H10 7178   9.088   0.642   8.649  1.4190  0.1265  0.3911
  248ccc     C6 7179   9.132   0.838   8.716 -0.4470 -0.2151  0.1127
  248ccc     O2 7180   9.189   0.805   8.816 -0.0778 -0.0335  0.2077
  248ccc     O3 7181   9.092   0.956   8.712  0.2267 -0.1417  0.2453
  248ccc     C7 7182   9.063   0.687   8.299  0.6296  0.3759  0.5344
  248ccc    H11 7183   8.982   0.720   8.365  0.2406  3.7395 -1.3654
  248ccc    H12 7184   9.077   0.770   8.229 -0.9489 -0.8252 -1.3429
  248ccc     C8 7185   9.007   0.572   8.225 -0.6349 -0.0261 -0.3910
  248ccc    H13 7186   9.083   0.531   8.158 -1.3503 -1.1789 -0.5302
  248ccc    H14 7187   8.973   0.503   8.304  0.6449  0.8962  1.0161
  248ccc     C9 7188   8.877   0.619   8.159 -0.3717 -0.4834 -0.1217
  248ccc     O4 7189   8.766   0.608   8.209 -0.3093 -0.0726  0.0400
  248ccc     O5 7190   8.875   0.655   8.042  0.3802  0.2490 -0.8514
  248ccc     O1 7191   9.322   0.332   8.283  0.1319 -0.4240  0.1140
  249ccc     C3 7192  10.447   1.534   7.917 -0.1846 -0.0405  0.5584
  249ccc     H5 7193  10.474   1.495   7.818 -2.3433 -1.0951  0.3184
  249ccc     H6 7194  10.345   1.574   7.909 -0.0833 -0.1593 -2.2040
  249ccc     C2 7195  10.541   1.647   7.961  0.3890  0.6344  0.0287
  249ccc     H3 7196  10.546   1.733   7.893  0.6200  1.6065  1.2402
  249ccc     H4 7197  10.643   1.607   7.957  0.6276  1.2982 -0.8580
  249ccc     C1 7198  10.507   1.694   8.104 -0.2960 -0.3986 -0.0464
  249ccc     H1 7199  10.524   1.607   8.169 -1.7171 -0.0021  0.8879
  249ccc     H2 7200  10.399   1.712   8.109 -0.1839  0.0202  1.1008
  249ccc     N1 7201  10.587   1.802   8.165 -0.2764 -0.3641  0.1515
  249ccc     C4 7202  10.529   1.848   8.295 -0.1151 -0.9637  0.4047
  249ccc     H7 7203  10.424   1.871   8.272 -0.2654 -2.5923 -0.7038
  249ccc     H8 7204  10.584   1.936   8.331 -0.0583 -1.2740  1.0923
  249ccc     C5 7205  10.534   1.743   8.409 -0.4023  0.6518  0.1648
  249ccc     H9 7206  10.431   1.708   8.418 -0.4218  1.2343  3.3971
  249ccc    H10 7207  10.604   1.662   8.386  0.5450  1.1745  1.0849
  249ccc     C6 7208  10.579   1.813   8.539  0.2476  0.5470 -0.5950
  249ccc     O2 7209  10.693   1.852   8.545  0.2322  0.1231 -0.4433
  249ccc     O3 7210  10.521   1.805   8.649 -0.1065 -0.3926  1.2985
  249ccc     C7 7211  10.735   1.786   8.159  0.4858  0.4845  0.0385
  249ccc    H11 7212  10.754   1.707   8.232  0.1881  0.0003 -0.4084
  249ccc    H12 7213  10.769   1.751   8.061  2.2767  0.7596  0.5292
  249ccc     C8 7214  10.806   1.920   8.187  0.4751  0.1054 -0.4690
  249ccc    H13 7215  10.822   1.985   8.100  2.7346 -1.6894 -1.5072
  249ccc    H14 7216  10.768   1.990   8.262  1.6480 -1.2975  1.5406
  249ccc     C9 7217  10.940   1.881   8.235  0.5956 -0.1798  0.1859
  249ccc     O4 7218  11.014   1.830   8.155 -0.6110 -0.3065 -0.4968
  249ccc     O5 7219  10.948   1.841   8.345  0.1614  0.0515  0.0108
  249ccc     O1 7220  10.436   1.428   8.012 -0.3670  0.0239 -0.0678
  250ccc     C3 7221  10.852   0.868   8.224  0.1167 -0.0428  0.4830
  250ccc     H5 7222  10.833   0.813   8.317 -0.2703 -2.1759 -0.7902
  250ccc     H6 7223  10.918   0.813   8.157 -0.9444  1.8082 -2.2363
  250ccc     C2 7224  10.920   0.991   8.270  0.3657 -0.3930  0.3670
  250ccc     H3 7225  10.923   1.060   8.186 -0.0635 -0.5788  0.1959
  250ccc     H4 7226  11.023   0.974   8.304  0.6497  0.4678 -0.0343
  250ccc     C1 7227  10.836   1.064   8.375  0.6613  0.0552 -0.5461
  250ccc     H1 7228  10.839   1.009   8.469 -0.2499  0.8586 -0.0231
  250ccc     H2 7229  10.731   1.069   8.343  0.5538 -2.8870 -0.8771
  250ccc     N1 7230  10.872   1.201   8.402  0.4071  0.3428  0.0954
  250ccc     C4 7231  10.845   1.294   8.292  0.2968 -0.3386  0.7225
  250ccc     H7 7232  10.770   1.252   8.224 -0.5787  1.4826  0.4880
  250ccc     H8 7233  10.936   1.318   8.237  0.9887 -2.7484  0.6924
  250ccc     C5 7234  10.761   1.419   8.341 -0.0221  0.1429  0.5315
  250ccc     H9 7235  10.732   1.481   8.256 -1.9323  0.2078  1.1788
  250ccc    H10 7236  10.670   1.393   8.396  0.8864  0.7678  2.4489
  250ccc     C6 7237  10.829   1.510   8.435 -0.3821  0.2563  0.4622
  250ccc     O2 7238  10.784   1.554   8.541  0.1976 -0.2115 -0.3532
  250ccc     O3 7239  10.933   1.559   8.402 -0.5961  0.4094 -0.6732
  250ccc     C7 7240  11.007   1.230   8.459  0.1135 -0.3685  0.4797
  250ccc    H11 7241  11.078   1.157   8.417 -0.0991  0.1822 -0.8670
  250ccc    H12 7242  11.043   1.330   8.435 -1.1494 -0.3615 -1.6641
  250ccc     C8 7243  11.001   1.214   8.613  0.4324 -0.7364 -0.1871
  250ccc    H13 7244  10.937   1.127   8.634 -0.0615  0.1848  2.6075
  250ccc    H14 7245  11.101   1.203   8.656 -0.3563  1.0297  2.3542
  250ccc     C9 7246  10.943   1.336   8.682 -0.7578 -0.0876  0.1075
  250ccc     O4 7247  11.005   1.442   8.681 -0.3107  0.1507 -0.0770
  250ccc     O5 7248  10.840   1.330   8.740  0.6643 -0.1016  0.6650
  250ccc     O1 7249  10.726   0.910   8.167  0.4054  0.1686 -0.2388
  251ccc     C3 7250   9.983   1.058   6.067 -0.6978 -0.0170 -0.5553
  251ccc     H5 7251  10.091   1.078   6.063 -0.8938  1.2627  0.0317
  251ccc     H6 7252   9.976   0.949   6.065 -1.0074  0.0050 -1.2003
  251ccc     C2 7253   9.920   1.123   5.947 -0.8313 -0.3363 -0.7165
  251ccc     H3 7254   9.968   1.084   5.857  1.4018  0.9396 -0.1577
  251ccc     H4 7255   9.938   1.231   5.943 -2.5383  0.0940  1.2616
  251ccc     C1 7256   9.776   1.107   5.954 -0.6775 -0.2060  0.4089
  251ccc     H1 7257   9.746   1.183   6.027 -0.4193 -0.5262  0.8594
  251ccc     H2 7258   9.743   1.015   6.005  0.5212 -1.1436 -0.4403
  251ccc     N1 7259   9.700   1.141   5.824  0.0984 -0.1120 -0.4185
  251ccc     C4 7260   9.559   1.175   5.850  0.3305  0.2130  0.3113
  251ccc     H7 7261   9.513   1.100   5.915 -1.5178  1.0298  0.0091
  251ccc     H8 7262   9.507   1.169   5.753 -0.6065 -0.9335  0.8505
  251ccc     C5 7263   9.530   1.322   5.899 -0.7161 -0.4367 -0.3428
  251ccc     H9 7264   9.545   1.327   6.007 -1.3259  0.7282 -0.2905
  251ccc    H10 7265   9.600   1.393   5.853 -0.6472 -0.1427  0.2161
  251ccc     C6 7266   9.395   1.374   5.883  0.7279 -0.3820  0.0312
  251ccc     O2 7267   9.302   1.313   5.836 -0.2766 -0.5241  0.1835
  251ccc     O3 7268   9.375   1.497   5.880 -0.3264 -0.2247 -0.2846
  251ccc     C7 7269   9.722   1.030   5.724  0.0669 -0.2486 -0.2884
  251ccc    H11 7270   9.707   1.071   5.623  0.9086 -0.9840 -0.7297
  251ccc    H12 7271   9.829   1.004   5.720 -0.2291 -2.3770  2.5434
  251ccc     C8 7272   9.637   0.908   5.750 -0.4484 -1.1019 -0.0570
  251ccc    H13 7273   9.650   0.876   5.854  0.5382  1.1084  0.5733
  251ccc    H14 7274   9.529   0.927   5.746 -0.2972  1.1184  2.7655
  251ccc     C9 7275   9.663   0.797   5.659 -0.6382  0.5255  0.3673
  251ccc     O4 7276   9.771   0.740   5.664 -0.0142 -0.3204 -0.1733
  251ccc     O5 7277   9.584   0.759   5.575  0.2600  0.4832  0.2446
  251ccc     O1 7278   9.932   1.109   6.187 -0.5515 -0.2864  0.0994
  252ccc     C3 7279   9.621   0.725   6.349  0.4512  0.2870 -0.1005
  252ccc     H5 7280   9.721   0.741   6.307  0.0734 -0.1034 -1.1830
  252ccc     H6 7281   9.604   0.621   6.383 -0.8425 -0.4795 -2.8554
  252ccc     C2 7282   9.520   0.749   6.237  0.4086  0.0411  0.1462
  252ccc     H3 7283   9.555   0.845   6.197 -0.2980  0.9842  1.7209
  252ccc     H4 7284   9.423   0.749   6.288  0.4536 -1.9080  0.3201
  252ccc     C1 7285   9.519   0.643   6.120  0.4237  0.0655 -1.0342
  252ccc     H1 7286   9.466   0.554   6.155 -1.7104  0.7667 -2.3364
  252ccc     H2 7287   9.625   0.625   6.097  0.2047 -2.1334 -0.4868
  252ccc     N1 7288   9.459   0.699   6.002 -0.7005  0.0881  0.5355
  252ccc     C4 7289   9.486   0.617   5.883  0.0594  0.3509 -0.0357
  252ccc     H7 7290   9.592   0.591   5.877 -0.3410 -1.1004 -1.4466
  252ccc     H8 7291   9.472   0.683   5.796  0.4943 -1.3107 -1.4090
  252ccc     C5 7292   9.402   0.503   5.846 -0.0187 -0.0804  0.6012
  252ccc     H9 7293   9.389   0.435   5.931  0.3469  0.7183  1.3160
  252ccc    H10 7294   9.307   0.539   5.806  1.2557  0.8183 -1.8317
  252ccc     C6 7295   9.470   0.426   5.737 -0.4162 -0.0837 -0.6032
  252ccc     O2 7296   9.534   0.484   5.651 -0.8405  0.2959 -0.0866
  252ccc     O3 7297   9.414   0.328   5.705 -0.2942  0.0288  0.4696
  252ccc     C7 7298   9.324   0.754   6.017 -0.0671  0.0995 -0.5350
  252ccc    H11 7299   9.256   0.675   6.050 -0.2548 -0.9825 -3.2916
  252ccc    H12 7300   9.334   0.835   6.090  1.7352 -0.4150 -0.1539
  252ccc     C8 7301   9.258   0.807   5.884 -0.6813  0.0532 -0.2943
  252ccc    H13 7302   9.330   0.877   5.841 -2.3478  2.5389  0.7264
  252ccc    H14 7303   9.233   0.732   5.808 -0.4052  0.4323 -0.7687
  252ccc     C9 7304   9.137   0.891   5.913  0.3928 -0.4109  0.2572
  252ccc     O4 7305   9.124   0.989   5.836  0.3028  0.3070 -0.2807
  252ccc     O5 7306   9.074   0.890   6.016  0.5770  0.6520 -0.1154
  252ccc     O1 7307   9.588   0.820   6.449  0.9121  0.1959 -0.0061
  253ccc     C3 7308   9.427   0.261   6.646 -0.2414  0.2370 -0.0478
  253ccc     H5 7309   9.462   0.161   6.616 -2.1306  0.1160 -2.0876
  253ccc     H6 7310   9.389   0.244   6.747  0.5758 -0.0190  0.2315
  253ccc     C2 7311   9.318   0.310   6.549  0.3040 -1.3048 -0.5612
  253ccc     H3 7312   9.265   0.390   6.603  1.0071 -0.8943 -0.4687
  253ccc     H4 7313   9.245   0.228   6.545  1.2184 -2.2017  0.5747
  253ccc     C1 7314   9.358   0.344   6.403 -0.0899 -0.2907 -0.9785
  253ccc     H1 7315   9.425   0.263   6.373 -1.0865 -1.4601 -0.1404
  253ccc     H2 7316   9.408   0.441   6.389 -3.4449  1.6397 -0.7999
  253ccc     N1 7317   9.240   0.349   6.310  0.4392  0.0326  0.0193
  253ccc     C4 7318   9.275   0.315   6.178  0.7651 -0.2431 -0.2802
  253ccc     H7 7319   9.360   0.378   6.147  0.1591  0.9930  0.5001
  253ccc     H8 7320   9.197   0.343   6.106  0.3699 -1.3485 -0.2954
  253ccc     C5 7321   9.300   0.167   6.145  0.0924  0.2921 -0.0053
  253ccc     H9 7322   9.393   0.135   6.193  1.0574 -0.0757 -2.0295
  253ccc    H10 7323   9.225   0.095   6.182  1.0895  0.2513  2.0650
  253ccc     C6 7324   9.317   0.157   5.994  0.1098 -0.1683 -1.4601
  253ccc     O2 7325   9.221   0.171   5.918  0.0845  0.3676  0.4388
  253ccc     O3 7326   9.427   0.157   5.949 -0.0939 -0.0562  0.0099
  253ccc     C7 7327   9.165   0.467   6.324  0.5197 -0.5840  0.3469
  253ccc    H11 7328   9.158   0.501   6.428  0.6540 -1.4965  0.6615
  253ccc    H12 7329   9.206   0.550   6.265  0.0154  0.3641  1.3011
  253ccc     C8 7330   9.022   0.445   6.270 -0.6328  0.3021 -0.2189
  253ccc    H13 7331   9.020   0.439   6.160  1.1703 -0.5382 -0.2414
  253ccc    H14 7332   8.991   0.350   6.315  0.6245  0.6603  1.5129
  253ccc     C9 7333   8.939   0.564   6.311  0.3690  0.6909 -0.4477
  253ccc     O4 7334   8.884   0.566   6.418 -0.0370  0.4858 -0.4460
  253ccc     O5 7335   8.904   0.647   6.227  0.7684 -0.3495  0.1514
  253ccc     O1 7336   9.542   0.351   6.646 -0.4521 -0.2125 -0.2134
  254ccc     C3 7337  10.304   0.993   6.987  0.9523  0.2526 -0.0847
  254ccc     H5 7338  10.294   0.955   7.090  0.1533  0.9874  0.1219
  254ccc     H6 7339  10.387   0.946   6.933  1.3664  1.2151 -0.3016
  254ccc     C2 7340  10.312   1.145   6.973 -0.9379  0.1044  0.1284
  254ccc     H3 7341  10.310   1.172   6.867 -1.0300 -0.0989  0.0783
  254ccc     H4 7342  10.405   1.174   7.023  1.0970 -1.8816 -2.2462
  254ccc     C1 7343  10.196   1.228   7.027  0.5195  0.4259  0.4518
  254ccc     H1 7344  10.193   1.210   7.135 -1.1740 -0.7333  0.2627
  254ccc     H2 7345  10.100   1.189   6.990  0.5836  0.1824  0.5407
  254ccc     N1 7346  10.205   1.377   7.011 -0.1116  0.6028 -0.6431
  254ccc     C4 7347  10.214   1.421   6.870 -0.0720  0.4173  0.7342
  254ccc     H7 7348  10.300   1.372   6.823 -1.6018 -2.2170  0.4432
  254ccc     H8 7349  10.241   1.527   6.864  2.2382 -0.1572 -0.3450
  254ccc     C5 7350  10.086   1.383   6.786  0.3310 -0.1549 -0.1878
  254ccc     H9 7351  10.104   1.299   6.718 -4.2073 -1.1722 -0.4334
  254ccc    H10 7352  10.006   1.352   6.855  1.4537  1.9046  2.2105
  254ccc     C6 7353  10.042   1.510   6.721  1.4830 -0.8183  0.5179
  254ccc     O2 7354   9.931   1.551   6.717  0.1126  0.0497 -0.2968
  254ccc     O3 7355  10.118   1.556   6.637  0.6192 -0.2248 -0.0755
  254ccc     C7 7356  10.110   1.441   7.101  0.0448  0.8495  0.3728
  254ccc    H11 7357  10.006   1.420   7.072  0.8500 -0.9304 -1.4780
  254ccc    H12 7358  10.121   1.396   7.200  0.3882  0.1628  0.0267
  254ccc     C8 7359  10.140   1.593   7.118  0.4460  0.4775  0.6329
  254ccc    H13 7360  10.099   1.623   7.215  0.9046 -0.1700  1.0323
  254ccc    H14 7361  10.248   1.612   7.111  0.3425  0.5013 -2.3460
  254ccc     C9 7362  10.084   1.681   7.011  0.3955 -0.2948  0.8812
  254ccc     O4 7363  10.146   1.778   6.967  0.1362  0.0091  0.7295
  254ccc     O5 7364   9.964   1.669   6.979  0.3917  0.2209  0.6485
  254ccc     O1 7365  10.192   0.952   6.910  0.0173  0.1041 -0.0530
  255ccc     C3 7366   5.060   4.492   8.536 -0.0625  0.2861 -0.4017
  255ccc     H5 7367   5.019   4.543   8.623 -2.7435 -2.3896  0.0757
  255ccc     H6 7368   5.167   4.512   8.523 -0.8020  3.3660 -2.9887
  255ccc     C2 7369   4.981   4.541   8.415  0.3939 -0.0386  0.6795
  255ccc     H3 7370   4.970   4.650   8.411 -0.2661 -0.0783  1.1626
  255ccc     H4 7371   4.882   4.496   8.428 -0.5949  1.4868 -1.0956
  255ccc     C1 7372   5.051   4.516   8.278 -0.0529  0.5541 -0.0947
  255ccc     H1 7373   5.027   4.410   8.259  1.9931 -0.3697  1.9938
  255ccc     H2 7374   5.160   4.516   8.291  0.0302  2.5983 -0.5330
  255ccc     N1 7375   5.007   4.605   8.166 -0.3939 -0.1602  0.4209
  255ccc     C4 7376   5.045   4.545   8.038 -0.2583 -0.1154 -0.0352
  255ccc     H7 7377   4.998   4.445   8.034 -0.9824  0.2009  0.3209
  255ccc     H8 7378   5.154   4.535   8.047 -0.2228  1.5398  2.5195
  255ccc     C5 7379   5.001   4.625   7.921 -0.1085  0.4113 -0.0042
  255ccc     H9 7380   4.892   4.630   7.934 -0.3687  1.3021 -2.0484
  255ccc    H10 7381   5.041   4.727   7.917  0.8627  0.1132  1.4113
  255ccc     C6 7382   5.041   4.549   7.795 -0.3953  0.2734 -1.1100
  255ccc     O2 7383   5.105   4.602   7.698  0.3451 -0.3889  0.0975
  255ccc     O3 7384   5.020   4.434   7.783 -0.1499  0.3533  0.0430
  255ccc     C7 7385   5.066   4.741   8.174 -0.0696  0.0029  0.1281
  255ccc    H11 7386   5.010   4.802   8.102  1.0185  0.5609 -0.2856
  255ccc    H12 7387   5.032   4.785   8.268  2.6215  1.5061  0.5078
  255ccc     C8 7388   5.220   4.749   8.156 -0.6955  0.3102  0.6801
  255ccc    H13 7389   5.278   4.696   8.233  0.0038 -1.1426 -0.8083
  255ccc    H14 7390   5.264   4.711   8.063  2.2395 -0.1627  2.1296
  255ccc     C9 7391   5.259   4.898   8.152  0.1577 -0.0971 -0.1183
  255ccc     O4 7392   5.285   4.946   8.259  0.9177 -0.0867  0.3196
  255ccc     O5 7393   5.296   4.957   8.053  0.3787  0.0797  0.0488
  255ccc     O1 7394   5.039   4.348   8.559 -0.7723 -0.3147  0.3062
  256ccc     C3 7395   5.319   3.874   9.445  0.1620  0.6826 -0.3906
  256ccc     H5 7396   5.409   3.933   9.463 -0.3050  1.2904 -0.0052
  256ccc     H6 7397   5.235   3.927   9.492  0.4821 -0.7160  1.9168
  256ccc     C2 7398   5.338   3.731   9.501 -0.4029  0.7759  0.1411
  256ccc     H3 7399   5.248   3.668   9.492  0.4126 -0.3467 -0.3792
  256ccc     H4 7400   5.353   3.737   9.609 -0.2373 -0.7117  0.2130
  256ccc     C1 7401   5.449   3.651   9.436  0.1749  0.5238  0.3916
  256ccc     H1 7402   5.528   3.720   9.404  2.4363 -2.2667 -0.5480
  256ccc     H2 7403   5.405   3.609   9.345 -0.9681 -0.3474  1.3068
  256ccc     N1 7404   5.499   3.542   9.531 -0.7114  0.2879  0.7626
  256ccc     C4 7405   5.571   3.428   9.474 -0.2172 -0.1225  0.9914
  256ccc     H7 7406   5.605   3.361   9.554  1.8284 -1.6908 -1.0469
  256ccc     H8 7407   5.660   3.464   9.420 -0.5144  0.0753  0.6236
  256ccc     C5 7408   5.482   3.341   9.381 -0.4900  0.4568  0.2374
  256ccc     H9 7409   5.402   3.299   9.444 -0.5798 -0.8945 -0.7209
  256ccc    H10 7410   5.428   3.395   9.301 -0.6884 -1.5791 -1.0696
  256ccc     C6 7411   5.567   3.233   9.320  0.0421  0.4027 -0.0024
  256ccc     O2 7412   5.612   3.257   9.209  0.4485  0.3321  0.0869
  256ccc     O3 7413   5.626   3.150   9.398  0.2395 -0.0617  0.1948
  256ccc     C7 7414   5.582   3.593   9.641  0.0162 -0.3817 -0.7411
  256ccc    H11 7415   5.685   3.602   9.604 -0.8289  0.2737 -3.1644
  256ccc    H12 7416   5.547   3.695   9.663 -1.4360 -0.7766 -1.0667
  256ccc     C8 7417   5.568   3.514   9.775 -0.4165  0.6173  0.8413
  256ccc    H13 7418   5.463   3.518   9.808 -1.0728  1.3600 -1.1936
  256ccc    H14 7419   5.603   3.411   9.758  1.2890  1.3203 -0.1761
  256ccc     C9 7420   5.654   3.577   9.889 -0.5939 -0.6956 -0.1753
  256ccc     O4 7421   5.739   3.520   9.946 -0.3342  0.9576 -0.2915
  256ccc     O5 7422   5.640   3.695   9.917  0.3049 -0.4794 -0.0887
  256ccc     O1 7423   5.288   3.870   9.304 -0.2391  0.1939 -0.2322
  257ccc     C3 7424   5.905   4.930   8.939  0.0968 -0.6473  0.3047
  257ccc     H5 7425   5.908   4.914   8.831 -0.4523  2.0803 -0.1991
  257ccc     H6 7426   5.820   4.998   8.953  0.0946 -0.5745 -0.0427
  257ccc     C2 7427   6.020   5.013   8.987 -0.1938  0.6187  0.0424
  257ccc     H3 7428   6.001   5.047   9.089  1.0493 -0.2983  0.6067
  257ccc     H4 7429   6.035   5.108   8.934 -0.4680  1.0466  0.7173
  257ccc     C1 7430   6.152   4.927   8.986 -0.4992  0.3278  0.6857
  257ccc     H1 7431   6.175   4.886   8.887 -2.7176 -0.2637  0.3739
  257ccc     H2 7432   6.140   4.838   9.049 -1.9580 -0.5629 -0.7814
  257ccc     N1 7433   6.273   4.997   9.026  0.7561 -0.6640  0.0214
  257ccc     C4 7434   6.266   5.056   9.162  0.0705  0.3945 -0.0132
  257ccc     H7 7435   6.218   4.981   9.226  2.0614  0.2603  1.4509
  257ccc     H8 7436   6.200   5.143   9.160 -0.6868 -0.1337  1.0309
  257ccc     C5 7437   6.394   5.075   9.235 -0.2839 -0.2708 -0.1204
  257ccc     H9 7438   6.450   4.981   9.246  0.4800  0.4272  3.2036
  257ccc    H10 7439   6.454   5.149   9.181 -0.5523 -0.2363 -0.3696
  257ccc     C6 7440   6.360   5.129   9.372 -0.5944 -0.5641 -0.1782
  257ccc     O2 7441   6.378   5.246   9.394  0.0020 -0.0570 -0.6861
  257ccc     O3 7442   6.352   5.059   9.470  0.0138  0.4564 -0.0189
  257ccc     C7 7443   6.316   5.095   8.929 -0.7935 -0.7306  0.4621
  257ccc    H11 7444   6.247   5.170   8.889 -1.2075 -0.5339  1.5143
  257ccc    H12 7445   6.386   5.156   8.987 -0.1485 -2.9772  2.1770
  257ccc     C8 7446   6.398   5.025   8.819  0.3131 -0.3803 -0.7636
  257ccc    H13 7447   6.475   4.955   8.855 -2.1745 -2.9688 -0.1276
  257ccc    H14 7448   6.325   4.972   8.757  0.2858 -0.0365 -1.0293
  257ccc     C9 7449   6.447   5.124   8.722  0.3577 -0.1040 -0.3388
  257ccc     O4 7450   6.516   5.221   8.751  0.4647  0.7863 -0.3506
  257ccc     O5 7451   6.395   5.137   8.611 -0.0260 -0.5505 -0.4474
  257ccc     O1 7452   5.891   4.813   9.012 -0.4684 -0.2334  0.4532
  258ccc     C3 7453   5.890   4.373   8.520 -0.2719  0.2804  0.5275
  258ccc     H5 7454   5.966   4.306   8.562  0.0603 -1.0353 -2.0374
  258ccc     H6 7455   5.874   4.352   8.414  1.7094  1.8382 -0.1370
  258ccc     C2 7456   5.917   4.522   8.550 -0.0545  0.7735  0.9478
  258ccc     H3 7457   6.003   4.543   8.485 -1.5645  0.3571 -1.3137
  258ccc     H4 7458   5.949   4.532   8.654 -1.7924  0.1841  1.5749
  258ccc     C1 7459   5.795   4.613   8.525  0.4013  0.1323 -0.3822
  258ccc     H1 7460   5.708   4.598   8.590 -0.8260  0.8796 -1.8080
  258ccc     H2 7461   5.760   4.602   8.422  2.4113 -1.3359 -0.9662
  258ccc     N1 7462   5.829   4.758   8.537 -0.6843  0.4502 -0.2327
  258ccc     C4 7463   5.709   4.834   8.549  0.1476  0.5494 -0.3145
  258ccc     H7 7464   5.736   4.939   8.564 -1.5691  0.7716  1.6747
  258ccc     H8 7465   5.657   4.821   8.645 -0.3042  0.0367 -0.6239
  258ccc     C5 7466   5.612   4.818   8.433 -0.3122 -0.2956 -0.4632
  258ccc     H9 7467   5.645   4.762   8.345 -0.9316 -1.4844  0.0428
  258ccc    H10 7468   5.520   4.767   8.465  0.1910 -0.5213  0.6778
  258ccc     C6 7469   5.567   4.960   8.396  0.2422 -0.1715  0.0257
  258ccc     O2 7470   5.484   5.019   8.462  0.5243  0.0337 -0.7834
  258ccc     O3 7471   5.597   4.998   8.287  0.4282  0.0205  0.5425
  258ccc     C7 7472   5.923   4.799   8.431 -0.0192 -0.1790 -0.9215
  258ccc    H11 7473   5.968   4.716   8.375 -2.1942 -1.4547 -0.9037
  258ccc    H12 7474   5.869   4.862   8.360  0.9351  0.8917 -0.7353
  258ccc     C8 7475   6.028   4.888   8.494  0.2296 -0.4871  0.4341
  258ccc    H13 7476   5.982   4.967   8.555  0.5989 -1.7376  2.4143
  258ccc    H14 7477   6.095   4.824   8.553  1.3279 -0.5429 -0.8133
  258ccc     C9 7478   6.098   4.967   8.391 -0.2249 -0.3556  0.0645
  258ccc     O4 7479   6.185   5.051   8.433  0.2503 -0.4249  0.3545
  258ccc     O5 7480   6.069   4.967   8.271 -0.1456  0.4090 -0.2726
  258ccc     O1 7481   5.765   4.343   8.586 -0.2929  0.1678  0.2414
  259ccc     C3 7482   6.628   3.735   8.800 -0.0247  0.2247  0.6058
  259ccc     H5 7483   6.519   3.729   8.805 -0.1590  0.4546 -1.2716
  259ccc     H6 7484   6.663   3.814   8.868 -1.1914  2.1435 -0.8967
  259ccc     C2 7485   6.676   3.780   8.657  0.0087  0.5018 -0.2527
  259ccc     H3 7486   6.631   3.876   8.627  0.1294  0.4226 -0.6923
  259ccc     H4 7487   6.638   3.707   8.585 -2.0579  1.6164 -0.3893
  259ccc     C1 7488   6.820   3.781   8.648 -0.8577 -1.6852 -1.3121
  259ccc     H1 7489   6.857   3.681   8.674 -1.4185 -1.3063  1.2479
  259ccc     H2 7490   6.857   3.841   8.732 -2.2391 -0.9838 -1.1810
  259ccc     N1 7491   6.873   3.835   8.520  0.7821  0.5423  0.1582
  259ccc     C4 7492   7.018   3.866   8.534 -0.1965  0.7210  0.3796
  259ccc     H7 7493   7.072   3.864   8.438 -0.5197 -0.6665  0.2109
  259ccc     H8 7494   7.061   3.788   8.597 -0.4082  0.9257  0.7788
  259ccc     C5 7495   7.037   4.012   8.580 -0.5454 -0.0281  0.2782
  259ccc     H9 7496   7.002   4.086   8.506  3.4353  0.8045 -0.9740
  259ccc    H10 7497   6.975   4.031   8.669 -1.0392 -0.8225  0.1107
  259ccc     C6 7498   7.183   4.047   8.596 -0.7515 -0.0010 -0.5979
  259ccc     O2 7499   7.229   4.054   8.710 -0.3106 -0.5516  0.2044
  259ccc     O3 7500   7.264   4.007   8.509 -0.3503 -0.6746 -0.3712
  259ccc     C7 7501   6.858   3.738   8.409 -0.0434 -0.0160  0.9781
  259ccc    H11 7502   6.939   3.664   8.418  0.9289  1.1795  2.5191
  259ccc    H12 7503   6.759   3.691   8.411 -0.0107 -0.3617 -1.5642
  259ccc     C8 7504   6.876   3.804   8.266 -0.0646  0.1159  0.6028
  259ccc    H13 7505   6.791   3.873   8.254 -1.3415 -1.5971 -0.8009
  259ccc    H14 7506   6.969   3.862   8.263 -0.2574  0.3887 -0.8075
  259ccc     C9 7507   6.883   3.702   8.156 -0.0719  0.1530 -0.6985
  259ccc     O4 7508   6.785   3.640   8.125  0.6559  0.1828  0.0416
  259ccc     O5 7509   6.987   3.644   8.133 -0.0871  0.3311  0.1315
  259ccc     O1 7510   6.678   3.615   8.838 -0.8048  0.2640 -0.4035
  260ccc     C3 7511   6.833   2.894   8.671 -0.3176  0.1628 -0.2589
  260ccc     H5 7512   6.935   2.886   8.709 -0.1293  1.8256 -0.3752
  260ccc     H6 7513   6.788   2.794   8.664 -1.6765  0.6439  0.9489
  260ccc     C2 7514   6.845   2.950   8.530 -1.1816  0.3114  0.0494
  260ccc     H3 7515   6.891   3.048   8.551  0.8082 -0.5604  0.0226
  260ccc     H4 7516   6.750   2.972   8.481 -1.5959  0.9813  1.1100
  260ccc     C1 7517   6.949   2.871   8.436  1.1289  0.1813 -0.1933
  260ccc     H1 7518   6.912   2.769   8.422 -0.4183  0.7470 -0.4544
  260ccc     H2 7519   7.047   2.868   8.486  0.6207 -0.3598  0.8119
  260ccc     N1 7520   6.976   2.931   8.306 -0.1766 -0.2909  0.4433
  260ccc     C4 7521   7.039   3.075   8.302  0.1275 -0.1072 -0.2696
  260ccc     H7 7522   7.143   3.077   8.337  0.0176  2.0192  0.1114
  260ccc     H8 7523   6.981   3.128   8.380 -1.9887 -4.4437  1.4639
  260ccc     C5 7524   7.038   3.147   8.165 -0.4489  0.5346  0.3608
  260ccc     H9 7525   7.112   3.092   8.106  0.1986  2.1016 -0.3406
  260ccc    H10 7526   6.949   3.130   8.103 -0.2951 -3.0880  0.9052
  260ccc     C6 7527   7.073   3.290   8.167 -0.1497 -0.6132  0.0421
  260ccc     O2 7528   7.181   3.323   8.206  0.2582  0.2074 -0.3127
  260ccc     O3 7529   6.986   3.373   8.172  0.4855 -0.0015 -0.6195
  260ccc     C7 7530   7.051   2.839   8.211 -0.1503 -0.6103 -0.0051
  260ccc    H11 7531   7.027   2.857   8.105  1.1160 -0.0972 -0.2151
  260ccc    H12 7532   7.159   2.851   8.226  0.0605 -0.7365 -1.2553
  260ccc     C8 7533   7.020   2.683   8.222  0.0718 -0.6900  0.7910
  260ccc    H13 7534   7.049   2.638   8.318 -1.0792  0.2366  1.6045
  260ccc    H14 7535   6.911   2.672   8.217 -0.0092  0.1860  0.5154
  260ccc     C9 7536   7.092   2.615   8.112  1.2423  0.4527  0.8041
  260ccc     O4 7537   7.038   2.518   8.061 -0.5840  0.3400  0.2305
  260ccc     O5 7538   7.209   2.633   8.082  0.0142 -0.1275 -0.3549
  260ccc     O1 7539   6.753   2.982   8.754  0.3011  0.6200 -0.6419
  261ccc     C3 7540   8.228   3.943   8.708  0.0657  0.2247  0.0451
  261ccc     H5 7541   8.336   3.950   8.725  0.0773 -1.3829  0.7666
  261ccc     H6 7542   8.207   3.897   8.611 -0.8315  1.2194 -0.2549
  261ccc     C2 7543   8.172   4.091   8.706 -0.0527  0.8916  0.2576
  261ccc     H3 7544   8.200   4.134   8.609  2.1906  1.6227  1.1404
  261ccc     H4 7545   8.231   4.145   8.782  0.2510  0.2176  0.5060
  261ccc     C1 7546   8.022   4.091   8.727 -1.7652  0.9994 -0.1992
  261ccc     H1 7547   7.997   4.044   8.823 -1.2747  0.0690 -0.5191
  261ccc     H2 7548   7.985   4.015   8.657  1.6520 -0.9643 -0.1085
  261ccc     N1 7549   7.962   4.222   8.712 -0.0774 -0.5277 -1.0856
  261ccc     C4 7550   8.005   4.330   8.813 -0.7952  0.7062  0.5495
  261ccc     H7 7551   8.100   4.290   8.850 -1.6243 -0.1838  1.7981
  261ccc     H8 7552   7.946   4.331   8.905 -3.5445 -1.0339 -1.0265
  261ccc     C5 7553   8.015   4.465   8.737  0.6466  0.3544 -0.4989
  261ccc     H9 7554   8.056   4.456   8.636 -0.5076  2.2352 -1.1954
  261ccc    H10 7555   7.910   4.498   8.733  0.9115  1.2178 -0.4883
  261ccc     C6 7556   8.096   4.561   8.823 -0.5027 -0.6961 -0.8143
  261ccc     O2 7557   8.213   4.535   8.838  0.0809 -0.2619  0.3288
  261ccc     O3 7558   8.045   4.637   8.905 -0.1635  0.3372 -0.2455
  261ccc     C7 7559   7.814   4.226   8.693  0.1079 -0.5381  1.0440
  261ccc    H11 7560   7.772   4.326   8.705 -1.2469 -0.9454 -0.1055
  261ccc    H12 7561   7.794   4.211   8.587  0.9399  1.1622  0.6171
  261ccc     C8 7562   7.742   4.127   8.779  0.6429 -0.0182  0.0473
  261ccc    H13 7563   7.744   4.025   8.739  1.5204 -0.3526  0.9029
  261ccc    H14 7564   7.794   4.128   8.876 -0.2297 -1.5564  0.5707
  261ccc     C9 7565   7.597   4.167   8.806 -0.2742 -0.1542 -0.1907
  261ccc     O4 7566   7.509   4.113   8.742 -0.0857 -0.2829  0.2343
  261ccc     O5 7567   7.568   4.215   8.913 -0.9858 -0.4511 -0.4081
  261ccc     O1 7568   8.175   3.862   8.812  0.6751  0.2928 -0.1505
  262ccc     C3 7569   7.808   4.033   9.619  0.4428  0.5158  0.2266
  262ccc     H5 7570   7.838   3.936   9.660 -3.0410 -0.4184  0.8916
  262ccc     H6 7571   7.866   4.113   9.667  2.1293 -0.0968 -0.7265
  262ccc     C2 7572   7.660   4.052   9.670  0.5912  0.0870  0.3921
  262ccc     H3 7573   7.658   4.035   9.779 -1.2708 -0.8381  0.2660
  262ccc     H4 7574   7.593   3.980   9.621 -1.1309  1.6574  0.3278
  262ccc     C1 7575   7.603   4.191   9.644  0.7405  0.4199 -0.6392
  262ccc     H1 7576   7.614   4.199   9.535  1.9254 -1.2523 -0.6779
  262ccc     H2 7577   7.662   4.274   9.687 -0.9245  2.3847 -1.9739
  262ccc     N1 7578   7.463   4.213   9.691  0.2580  0.1647  0.3578
  262ccc     C4 7579   7.449   4.226   9.832 -0.2944  0.2661  0.3673
  262ccc     H7 7580   7.492   4.137   9.878 -0.2407 -0.5741 -1.2506
  262ccc     H8 7581   7.345   4.225   9.867 -0.3993  0.8054  0.0939
  262ccc     C5 7582   7.512   4.353   9.887 -0.4683  0.4696 -0.4172
  262ccc     H9 7583   7.613   4.370   9.849 -1.6322  1.5100 -3.3327
  262ccc    H10 7584   7.457   4.445   9.865 -1.2635 -0.5076 -2.8359
  262ccc     C6 7585   7.503   4.347  10.038  0.1630  0.3256  0.0958
  262ccc     O2 7586   7.434   4.429  10.099  0.2348 -0.0563  0.9089
  262ccc     O3 7587   7.572   4.272  10.099  0.4144 -0.4699  0.3903
  262ccc     C7 7588   7.378   4.314   9.626  0.1286 -0.0155  0.6950
  262ccc    H11 7589   7.292   4.333   9.691  0.2811 -0.0976  0.9220
  262ccc    H12 7590   7.437   4.407   9.626  0.3066 -0.1261  0.4094
  262ccc     C8 7591   7.332   4.264   9.490  0.1714 -0.2657  0.8575
  262ccc    H13 7592   7.419   4.255   9.424  0.4255 -2.6627  1.4251
  262ccc    H14 7593   7.294   4.161   9.495  0.8282 -0.6116 -0.7413
  262ccc     C9 7594   7.228   4.351   9.435 -0.2755 -0.5349  0.0560
  262ccc     O4 7595   7.106   4.330   9.450  0.1699  0.8024  0.4439
  262ccc     O5 7596   7.255   4.464   9.386  0.2100  0.0631  0.0739
  262ccc     O1 7597   7.810   4.051   9.479 -0.4346 -0.4321  0.4501
  263ccc     C3 7598   7.211   4.297   7.106  0.0028 -0.0817 -0.3869
  263ccc     H5 7599   7.194   4.356   7.197 -0.9268 -0.1336 -0.5203
  263ccc     H6 7600   7.179   4.196   7.135  3.0165 -0.6684  1.4185
  263ccc     C2 7601   7.349   4.294   7.042 -0.8260 -0.7032 -0.5584
  263ccc     H3 7602   7.424   4.245   7.106  2.3922  0.2214 -3.3506
  263ccc     H4 7603   7.386   4.395   7.018  2.5229 -1.2304  1.6982
  263ccc     C1 7604   7.350   4.214   6.912 -0.4056  0.1611  0.1542
  263ccc     H1 7605   7.284   4.261   6.838  0.8703  0.5172 -0.7966
  263ccc     H2 7606   7.312   4.111   6.920 -1.2310  0.0559 -3.4449
  263ccc     N1 7607   7.484   4.205   6.840  0.0019  0.3226  0.4922
  263ccc     C4 7608   7.532   4.336   6.777 -0.4282 -0.1737  0.1587
  263ccc     H7 7609   7.446   4.404   6.783 -1.0788 -0.4771 -3.4130
  263ccc     H8 7610   7.563   4.335   6.672 -0.2680 -1.4008  0.2068
  263ccc     C5 7611   7.643   4.396   6.870 -0.6905 -0.3951  0.0833
  263ccc     H9 7612   7.618   4.400   6.977 -0.5374 -0.4950  0.1217
  263ccc    H10 7613   7.735   4.337   6.871 -1.7278 -2.0640  0.7489
  263ccc     C6 7614   7.669   4.530   6.817 -0.4776 -0.2638  0.8313
  263ccc     O2 7615   7.763   4.537   6.738  0.1544  0.1310  0.3834
  263ccc     O3 7616   7.587   4.629   6.805  0.2956  0.2346 -0.2689
  263ccc     C7 7617   7.498   4.094   6.747 -0.2688  0.3256  0.3517
  263ccc    H11 7618   7.399   4.063   6.711  0.5726 -1.2249 -0.7907
  263ccc    H12 7619   7.564   4.119   6.663 -0.0269  2.3811  1.1060
  263ccc     C8 7620   7.559   3.975   6.826  0.2811  0.2668  0.9496
  263ccc    H13 7621   7.661   3.998   6.856  0.1328  2.2518  0.1013
  263ccc    H14 7622   7.508   3.956   6.921 -0.4762  1.2537  0.7590
  263ccc     C9 7623   7.557   3.850   6.747 -0.9009  0.4685 -0.6481
  263ccc     O4 7624   7.634   3.842   6.653 -0.2303 -0.2037 -0.1429
  263ccc     O5 7625   7.499   3.750   6.786 -0.0450 -0.2553  0.3750
  263ccc     O1 7626   7.130   4.353   6.994 -0.6497 -0.1463  0.2061
  264ccc     C3 7627   6.790   5.207   6.960 -0.1220  0.3194  0.1781
  264ccc     H5 7628   6.783   5.229   7.068 -0.2250  1.6599 -0.0874
  264ccc     H6 7629   6.895   5.222   6.931  0.1169  0.0341  0.8631
  264ccc     C2 7630   6.697   5.289   6.865  0.2945 -0.2648  0.3294
  264ccc     H3 7631   6.719   5.270   6.759 -1.8002  0.1200 -0.2046
  264ccc     H4 7632   6.723   5.393   6.888  0.1706 -0.2816  0.5500
  264ccc     C1 7633   6.542   5.261   6.889 -0.3752  0.9083  0.6483
  264ccc     H1 7634   6.540   5.238   6.996  1.5262 -1.3840  0.2677
  264ccc     H2 7635   6.517   5.163   6.846  3.4135  0.1219 -0.1068
  264ccc     N1 7636   6.445   5.366   6.842  0.0936  0.1987  0.0309
  264ccc     C4 7637   6.468   5.487   6.920 -0.5822  0.6302  1.2192
  264ccc     H7 7638   6.556   5.539   6.880 -0.4854 -1.2386 -1.2255
  264ccc     H8 7639   6.492   5.475   7.026  1.5032 -1.6299  0.5734
  264ccc     C5 7640   6.367   5.598   6.891 -0.3930 -0.7417  0.6423
  264ccc     H9 7641   6.382   5.621   6.785  1.0838 -2.0742  0.5256
  264ccc    H10 7642   6.260   5.577   6.907 -0.8371 -1.1346 -2.2866
  264ccc     C6 7643   6.388   5.722   6.980 -0.4523  0.0094 -0.2567
  264ccc     O2 7644   6.330   5.724   7.084  0.3348 -0.6711 -0.0757
  264ccc     O3 7645   6.487   5.790   6.966  0.7145 -0.0858 -0.0962
  264ccc     C7 7646   6.306   5.315   6.845 -0.4572 -0.2362  0.6879
  264ccc    H11 7647   6.245   5.385   6.786  0.7776  0.3924  0.1197
  264ccc    H12 7648   6.311   5.221   6.788  1.6615  0.7929 -0.9314
  264ccc     C8 7649   6.246   5.303   6.980  0.0219  0.2011 -0.2109
  264ccc    H13 7650   6.300   5.222   7.030  0.9471 -0.6344 -2.4718
  264ccc    H14 7651   6.237   5.400   7.031  3.2025  0.5166 -0.0833
  264ccc     C9 7652   6.105   5.254   6.963 -0.0131  0.3805  0.2721
  264ccc     O4 7653   6.080   5.137   6.965  0.1040  0.2905  0.0502
  264ccc     O5 7654   6.013   5.329   6.945  0.0246  0.2385 -0.3424
  264ccc     O1 7655   6.760   5.069   6.940  0.8667 -0.9553 -0.2983
  265ccc     C3 7656   5.766   3.811   6.270 -0.5374 -0.2622  0.8225
  265ccc     H5 7657   5.802   3.764   6.362 -0.7943 -1.9608  0.1020
  265ccc     H6 7658   5.669   3.861   6.281 -0.3314  0.6094 -0.9712
  265ccc     C2 7659   5.768   3.702   6.158  0.2682  0.2745 -0.1099
  265ccc     H3 7660   5.726   3.618   6.215  0.9854 -1.4387 -1.9767
  265ccc     H4 7661   5.870   3.665   6.137  0.0491 -0.9801  0.9208
  265ccc     C1 7662   5.667   3.736   6.044  0.4277 -0.1606 -0.4361
  265ccc     H1 7663   5.690   3.831   5.995 -1.3301  0.8613  0.6134
  265ccc     H2 7664   5.567   3.744   6.089  0.9610  1.5863  0.5508
  265ccc     N1 7665   5.662   3.630   5.940 -0.5192 -0.5190  0.0374
  265ccc     C4 7666   5.607   3.502   5.985  0.2858  0.5468 -0.3683
  265ccc     H7 7667   5.676   3.448   6.051 -1.5057 -0.9319  0.3850
  265ccc     H8 7668   5.611   3.435   5.898 -0.6865 -1.9427  1.4081
  265ccc     C5 7669   5.470   3.499   6.044  0.3592 -0.5100 -0.1798
  265ccc     H9 7670   5.409   3.569   5.985  0.5961 -0.1921 -0.0515
  265ccc    H10 7671   5.426   3.399   6.039 -0.3462 -0.3722  2.0498
  265ccc     C6 7672   5.468   3.517   6.192 -1.1930 -0.3964  0.0660
  265ccc     O2 7673   5.424   3.618   6.249  0.5236  0.0907  0.2740
  265ccc     O3 7674   5.531   3.439   6.263 -0.1510 -0.3207 -0.2165
  265ccc     C7 7675   5.798   3.611   5.879  1.3498 -0.3211  0.2586
  265ccc    H11 7676   5.833   3.709   5.843 -1.8541  1.7179  2.2080
  265ccc    H12 7677   5.880   3.580   5.945  1.6175  0.9434  0.5535
  265ccc     C8 7678   5.793   3.528   5.756  0.3319  0.7609 -0.1519
  265ccc    H13 7679   5.786   3.422   5.787 -1.6641  1.9063  4.0893
  265ccc    H14 7680   5.718   3.564   5.686 -0.9620  0.2544  0.9254
  265ccc     C9 7681   5.924   3.550   5.683  0.4675 -0.3110  0.3632
  265ccc     O4 7682   6.007   3.471   5.706 -0.5977  0.5192 -0.0890
  265ccc     O5 7683   5.955   3.655   5.636 -0.7411  0.3382 -0.2827
  265ccc     O1 7684   5.854   3.906   6.203  0.6139  0.2821  0.2135
  266ccc     C3 7685   6.105   4.743   6.426 -0.6960  0.2253  0.5336
  266ccc     H5 7686   5.999   4.758   6.405 -1.5844 -1.2062  3.4604
  266ccc     H6 7687   6.113   4.747   6.535  0.3962  1.0141  0.4416
  266ccc     C2 7688   6.191   4.850   6.352  0.1174 -0.4484  0.2815
  266ccc     H3 7689   6.294   4.831   6.383 -0.2353  0.6561  2.2471
  266ccc     H4 7690   6.175   4.950   6.393 -1.1885 -0.1009 -0.9949
  266ccc     C1 7691   6.177   4.847   6.194  0.5389  0.5301 -0.0105
  266ccc     H1 7692   6.182   4.741   6.167 -3.0293  0.7505 -2.1645
  266ccc     H2 7693   6.257   4.910   6.154  0.0759  0.7531 -0.5968
  266ccc     N1 7694   6.062   4.908   6.140  0.1536 -0.1704  0.0955
  266ccc     C4 7695   6.054   4.860   6.000  0.1706  0.9178 -0.4191
  266ccc     H7 7696   6.065   4.751   6.005  2.3757  1.0863 -0.6395
  266ccc     H8 7697   6.135   4.896   5.935  1.3133 -2.2629 -0.9531
  266ccc     C5 7698   5.919   4.914   5.948 -0.4519  0.9049 -0.0017
  266ccc     H9 7699   5.842   4.908   6.026 -0.2765  1.6174  0.2384
  266ccc    H10 7700   5.934   5.017   5.913  0.1731  1.0923  0.7735
  266ccc     C6 7701   5.879   4.824   5.833  0.6757 -0.7267  0.9576
  266ccc     O2 7702   5.803   4.727   5.844 -0.3596  0.0276  0.0825
  266ccc     O3 7703   5.943   4.826   5.732 -0.4416 -0.4559  0.4350
  266ccc     C7 7704   6.059   5.052   6.167 -0.3885 -0.5388 -0.6504
  266ccc    H11 7705   6.155   5.073   6.215 -1.1852 -0.7280  1.0702
  266ccc    H12 7706   6.058   5.115   6.076  0.3359  1.1458  0.4588
  266ccc     C8 7707   5.948   5.091   6.268  0.8239 -0.2665  0.2005
  266ccc    H13 7708   5.859   5.091   6.204  1.4074  0.8127 -0.6610
  266ccc    H14 7709   5.937   5.020   6.351  3.6187 -0.1452  0.7866
  266ccc     C9 7710   5.960   5.225   6.323 -1.1086 -0.7726  0.0688
  266ccc     O4 7711   6.037   5.245   6.414  0.1294  0.1970 -0.3619
  266ccc     O5 7712   5.896   5.320   6.288 -0.4585 -0.4419  0.4831
  266ccc     O1 7713   6.145   4.608   6.375  0.4285 -0.2213 -0.3075
  267ccc     C3 7714   6.509   3.419   7.568  0.1230  0.0172  0.8722
  267ccc     H5 7715   6.524   3.480   7.658 -0.1054  0.0858  0.8629
  267ccc     H6 7716   6.424   3.452   7.508 -0.4418 -1.4082  0.8707
  267ccc     C2 7717   6.489   3.272   7.592 -0.1137 -1.4561  0.0927
  267ccc     H3 7718   6.390   3.268   7.640 -0.3721 -0.2418 -0.3223
  267ccc     H4 7719   6.562   3.229   7.662  1.1760  0.7605  0.2015
  267ccc     C1 7720   6.491   3.197   7.462  0.3934  0.1858  0.2749
  267ccc     H1 7721   6.591   3.210   7.419  0.8722 -4.3548 -0.5070
  267ccc     H2 7722   6.419   3.239   7.391 -0.5061 -3.3561 -1.1335
  267ccc     N1 7723   6.463   3.051   7.462  1.2928  0.3702  0.8184
  267ccc     C4 7724   6.561   2.977   7.539 -0.0263 -0.1730  0.1160
  267ccc     H7 7725   6.528   2.972   7.644 -0.1620  1.9319  0.2069
  267ccc     H8 7726   6.653   3.036   7.544 -0.6392  0.7580  0.9703
  267ccc     C5 7727   6.596   2.839   7.486  0.2709 -0.2684 -1.0046
  267ccc     H9 7728   6.519   2.766   7.515 -1.0110  1.9311  1.6110
  267ccc    H10 7729   6.617   2.830   7.379  2.1098 -0.8948 -0.6279
  267ccc     C6 7730   6.727   2.807   7.549  0.2476 -0.0344  0.3411
  267ccc     O2 7731   6.833   2.865   7.524  0.8014 -0.2714  0.0563
  267ccc     O3 7732   6.727   2.714   7.628  0.0940  0.6160 -0.1574
  267ccc     C7 7733   6.328   3.012   7.510 -0.0850  0.3520  0.1262
  267ccc    H11 7734   6.327   2.903   7.522  2.8997  0.0844 -1.1419
  267ccc    H12 7735   6.319   3.048   7.613  1.7833  0.7151  0.2086
  267ccc     C8 7736   6.214   3.074   7.427 -0.5564 -0.1820 -0.6081
  267ccc    H13 7737   6.217   3.182   7.408  1.2132 -0.3309 -1.4540
  267ccc    H14 7738   6.216   3.039   7.323 -2.4212  1.2124 -1.1463
  267ccc     C9 7739   6.074   3.035   7.473 -0.0182  0.4401  0.7535
  267ccc     O4 7740   6.023   2.947   7.404 -0.0281  0.0252 -0.4838
  267ccc     O5 7741   6.031   3.067   7.579 -0.3787  0.1887 -0.4287
  267ccc     O1 7742   6.623   3.436   7.482  0.2122 -0.1489  0.7353
  268ccc     C3 7743   7.138   2.974   6.868  0.7486 -0.1796 -0.6200
  268ccc     H5 7744   7.237   2.944   6.904  0.4198  0.3242  0.8130
  268ccc     H6 7745   7.063   2.905   6.909  0.9001  0.0968  0.1466
  268ccc     C2 7746   7.127   2.958   6.712 -0.5076 -0.6589  0.0800
  268ccc     H3 7747   7.176   3.048   6.673 -0.9580  0.6256  2.2738
  268ccc     H4 7748   7.023   2.976   6.682 -0.3772  2.5380  1.1086
  268ccc     C1 7749   7.187   2.830   6.646  1.0139  0.6269  0.7471
  268ccc     H1 7750   7.291   2.809   6.674  1.2409  1.7534  0.8145
  268ccc     H2 7751   7.210   2.864   6.544  1.0971  0.2301  0.6355
  268ccc     N1 7752   7.096   2.715   6.624  0.4927  0.1020 -0.4691
  268ccc     C4 7753   7.075   2.632   6.747 -0.1163  0.7079 -0.1371
  268ccc     H7 7754   7.002   2.557   6.717 -0.7349  0.8392  0.9879
  268ccc     H8 7755   7.030   2.682   6.834 -0.6481 -0.2151  0.1229
  268ccc     C5 7756   7.202   2.562   6.794  0.1173 -0.3883 -0.3791
  268ccc     H9 7757   7.262   2.530   6.708  2.0810  0.1582  0.7171
  268ccc    H10 7758   7.272   2.632   6.841 -1.1037  1.6148 -1.3973
  268ccc     C6 7759   7.159   2.442   6.873 -0.0649  1.0123 -0.1665
  268ccc     O2 7760   7.164   2.333   6.819 -0.2357  0.4126 -0.0479
  268ccc     O3 7761   7.089   2.454   6.971  0.2408 -0.6796  0.3255
  268ccc     C7 7762   6.967   2.741   6.558  0.0649 -0.0489 -0.3669
  268ccc    H11 7763   6.895   2.778   6.631  0.5966 -0.4291  0.3647
  268ccc    H12 7764   6.977   2.818   6.480 -0.7247  0.5879  0.1452
  268ccc     C8 7765   6.901   2.622   6.486 -0.1544  0.2635  0.4102
  268ccc    H13 7766   6.958   2.601   6.395 -0.6160 -0.1036  0.1961
  268ccc    H14 7767   6.898   2.535   6.553  2.9999  1.3355  2.1218
  268ccc     C9 7768   6.763   2.668   6.464  0.8217 -0.8175 -0.1301
  268ccc     O4 7769   6.666   2.623   6.523  0.0963  0.0785  0.1507
  268ccc     O5 7770   6.734   2.755   6.384 -0.5448  0.0380 -0.1871
  268ccc     O1 7771   7.113   3.116   6.888 -0.1302 -0.3279 -0.4769
  269ccc     C3 7772   5.522   3.564   7.619  0.1721 -0.5074  0.4063
  269ccc     H5 7773   5.552   3.500   7.535  0.4869  0.0185  0.1124
  269ccc     H6 7774   5.480   3.496   7.695 -1.8814  0.0851 -0.1351
  269ccc     C2 7775   5.410   3.660   7.572  0.5090 -0.6087  0.0301
  269ccc     H3 7776   5.372   3.709   7.663 -1.3867 -0.6988 -0.6765
  269ccc     H4 7777   5.332   3.600   7.524 -1.1512  0.9610  0.6830
  269ccc     C1 7778   5.460   3.771   7.483  0.4615 -0.2222 -0.1900
  269ccc     H1 7779   5.509   3.732   7.392 -0.5083  1.7551 -1.6279
  269ccc     H2 7780   5.539   3.818   7.543 -1.2559 -1.6072  3.3967
  269ccc     N1 7781   5.371   3.878   7.429  0.2341 -0.3320 -0.5909
  269ccc     C4 7782   5.283   3.835   7.320 -0.2454 -0.5853  0.6726
  269ccc     H7 7783   5.264   3.920   7.254 -1.4320 -1.0406  0.4121
  269ccc     H8 7784   5.191   3.795   7.364  0.2102 -1.9398  0.4528
  269ccc     C5 7785   5.331   3.724   7.233  0.2198 -0.4126  0.3186
  269ccc     H9 7786   5.423   3.759   7.184  0.6174  3.0478  3.0872
  269ccc    H10 7787   5.343   3.634   7.294 -2.1375  0.2707  1.8938
  269ccc     C6 7788   5.229   3.678   7.133  0.0082  0.0412  0.4147
  269ccc     O2 7789   5.253   3.681   7.014 -0.6952  0.0149 -0.0005
  269ccc     O3 7790   5.115   3.664   7.159  0.5686  0.2613 -0.3362
  269ccc     C7 7791   5.327   3.971   7.537  0.5488  0.0195 -0.5273
  269ccc    H11 7792   5.236   3.938   7.587  0.8883 -1.1424 -0.6399
  269ccc    H12 7793   5.409   3.987   7.609  0.2181 -0.5847 -0.0077
  269ccc     C8 7794   5.293   4.110   7.487 -0.4220  0.2840  0.5014
  269ccc    H13 7795   5.383   4.159   7.447  0.3401  0.3823  2.2718
  269ccc    H14 7796   5.212   4.096   7.414 -1.1023 -0.7820  1.4166
  269ccc     C9 7797   5.238   4.178   7.612  0.4461  0.1801 -0.2300
  269ccc     O4 7798   5.222   4.134   7.721  0.3510  0.0196 -0.1842
  269ccc     O5 7799   5.205   4.294   7.603  0.3118 -0.4266  0.1847
  269ccc     O1 7800   5.636   3.625   7.679  0.4643  0.4943 -0.0577
  270ccc     C3 7801   5.766   3.842   7.067 -0.1091  0.0624 -0.2018
  270ccc     H5 7802   5.692   3.806   7.139 -0.1122 -0.0412 -0.2570
  270ccc     H6 7803   5.733   3.930   7.009  0.2693 -0.5189 -1.3149
  270ccc     C2 7804   5.809   3.728   6.973  0.4334 -0.1073 -0.0540
  270ccc     H3 7805   5.849   3.641   7.025 -1.2795 -2.1674 -1.9758
  270ccc     H4 7806   5.889   3.741   6.899  0.8881 -0.6014  0.3539
  270ccc     C1 7807   5.679   3.680   6.904  0.5940 -0.3280  0.4672
  270ccc     H1 7808   5.656   3.760   6.832 -0.3559 -0.0191  1.0872
  270ccc     H2 7809   5.603   3.682   6.983  2.2952 -0.5201  2.1849
  270ccc     N1 7810   5.690   3.553   6.833 -0.3511 -0.6188  0.6554
  270ccc     C4 7811   5.818   3.526   6.759 -0.3845 -0.7768 -0.6563
  270ccc     H7 7812   5.828   3.423   6.724  0.4814 -1.2647  0.9068
  270ccc     H8 7813   5.903   3.535   6.827 -1.7532 -0.7394  1.1241
  270ccc     C5 7814   5.840   3.621   6.635 -0.1051  0.2519 -0.1991
  270ccc     H9 7815   5.790   3.718   6.641  1.6396  1.1062  1.5717
  270ccc    H10 7816   5.946   3.651   6.631 -0.1527  0.5643  0.8110
  270ccc     C6 7817   5.807   3.550   6.510  0.5553  0.0062 -0.0204
  270ccc     O2 7818   5.890   3.481   6.452  0.2585 -0.6807 -0.6521
  270ccc     O3 7819   5.698   3.565   6.458 -0.2008  0.6415 -0.6068
  270ccc     C7 7820   5.567   3.546   6.752  0.1125  0.0493  0.7446
  270ccc    H11 7821   5.487   3.593   6.811  2.1626  2.6203  1.6493
  270ccc    H12 7822   5.590   3.599   6.658 -0.4542  0.2409  0.7080
  270ccc     C8 7823   5.530   3.396   6.718  0.4810 -0.2915 -0.4046
  270ccc    H13 7824   5.614   3.353   6.661  0.4034 -0.3715 -0.4580
  270ccc    H14 7825   5.518   3.340   6.811 -0.8189 -0.5006 -0.6901
  270ccc     C9 7826   5.411   3.387   6.635 -0.8540  0.5936  0.2992
  270ccc     O4 7827   5.421   3.384   6.513  0.3788 -0.2167  0.3947
  270ccc     O5 7828   5.305   3.413   6.690  0.1660  0.2984  0.0838
  270ccc     O1 7829   5.876   3.890   7.142  0.6680  0.6422  0.3553
  271ccc     C3 7830   9.838   5.400   8.814  0.3988 -0.0309 -0.6901
  271ccc     H5 7831   9.801   5.371   8.914 -0.5601  0.5610 -0.8532
  271ccc     H6 7832   9.939   5.366   8.791 -0.0753 -0.7787 -1.7829
  271ccc     C2 7833   9.831   5.556   8.801 -0.4649  0.0744 -0.0149
  271ccc     H3 7834   9.897   5.575   8.715 -0.9112 -0.6073 -0.5158
  271ccc     H4 7835   9.885   5.600   8.886  1.2360 -0.4223 -0.7805
  271ccc     C1 7836   9.690   5.621   8.795 -0.1353 -0.3652 -0.1687
  271ccc     H1 7837   9.620   5.579   8.869  1.1451  0.7336  1.7682
  271ccc     H2 7838   9.637   5.609   8.700 -0.8987  2.4826 -0.1921
  271ccc     N1 7839   9.706   5.767   8.812  0.0170  0.0861  0.2368
  271ccc     C4 7840   9.802   5.837   8.725  0.1180  0.1057 -0.3214
  271ccc     H7 7841   9.899   5.786   8.716  0.2490 -0.4535  2.9217
  271ccc     H8 7842   9.837   5.928   8.776 -2.2014  0.4588  0.7906
  271ccc     C5 7843   9.740   5.855   8.581 -0.1483  0.1193 -0.6046
  271ccc     H9 7844   9.696   5.764   8.537  0.4983 -0.9040  0.7914
  271ccc    H10 7845   9.651   5.918   8.576 -0.9134 -0.9664 -0.9518
  271ccc     C6 7846   9.817   5.907   8.471 -1.1217 -0.5838  0.1878
  271ccc     O2 7847   9.759   5.918   8.365 -0.5410 -0.4139  0.2094
  271ccc     O3 7848   9.910   5.986   8.481 -0.2285  0.2206  0.0772
  271ccc     C7 7849   9.574   5.826   8.823 -0.2093 -0.1444 -0.2664
  271ccc    H11 7850   9.519   5.809   8.730 -0.3051  0.0560 -0.2486
  271ccc    H12 7851   9.508   5.777   8.896 -0.5344  1.4539  0.5585
  271ccc     C8 7852   9.570   5.980   8.860  0.5655  0.3798 -0.0443
  271ccc    H13 7853   9.606   5.988   8.964 -0.6933 -2.9473  0.7700
  271ccc    H14 7854   9.637   6.037   8.794 -0.0218 -1.2471 -2.1500
  271ccc     C9 7855   9.433   6.034   8.858  0.8017 -0.5402  0.6512
  271ccc     O4 7856   9.353   5.990   8.928  0.0417  0.5970  0.0867
  271ccc     O5 7857   9.405   6.129   8.784 -0.1857  0.8464  0.0848
  271ccc     O1 7858   9.755   5.343   8.709 -0.0128 -0.3029 -0.2624
  272ccc     C3 7859   9.312   5.498   8.749  0.3475  0.4521  0.6144
  272ccc     H5 7860   9.262   5.480   8.844  0.0513  0.8606  0.5382
  272ccc     H6 7861   9.421   5.488   8.762  0.1422 -0.3908  1.7860
  272ccc     C2 7862   9.262   5.632   8.690 -0.1137 -0.4565  0.2426
  272ccc     H3 7863   9.290   5.711   8.761 -0.6175  1.2170 -1.3434
  272ccc     H4 7864   9.153   5.638   8.683 -0.0166 -0.9780 -2.6788
  272ccc     C1 7865   9.328   5.670   8.554  1.2393  0.0419 -0.4772
  272ccc     H1 7866   9.307   5.585   8.489  0.7402 -0.7700  0.7135
  272ccc     H2 7867   9.435   5.681   8.574  0.9830 -0.1586  1.1556
  272ccc     N1 7868   9.284   5.793   8.484  0.5310  0.4894 -0.0048
  272ccc     C4 7869   9.272   5.908   8.575  0.4611  0.3968 -0.4976
  272ccc     H7 7870   9.367   5.946   8.614 -0.1851  0.6382  0.9282
  272ccc     H8 7871   9.221   5.881   8.668 -3.1801  1.3810 -2.0261
  272ccc     C5 7872   9.174   6.016   8.519 -0.3856 -0.2604  0.3759
  272ccc     H9 7873   9.210   6.055   8.423 -0.5982 -1.5831 -0.2513
  272ccc    H10 7874   9.077   5.972   8.495  1.2942 -2.0381 -4.2753
  272ccc     C6 7875   9.174   6.139   8.603 -0.1722  0.2354 -0.2195
  272ccc     O2 7876   9.236   6.243   8.571 -0.5523  0.0235  0.2750
  272ccc     O3 7877   9.103   6.157   8.695 -0.4927  0.1372 -0.6001
  272ccc     C7 7878   9.368   5.831   8.377  0.9481 -0.2053 -0.4578
  272ccc    H11 7879   9.323   5.917   8.326 -0.7503 -1.8930 -1.9613
  272ccc    H12 7880   9.468   5.853   8.415  0.8882 -0.1410 -0.3412
  272ccc     C8 7881   9.394   5.727   8.267  0.7226  0.0151 -0.1481
  272ccc    H13 7882   9.453   5.645   8.312  0.3471 -0.1198  0.1023
  272ccc    H14 7883   9.300   5.688   8.226 -0.2140 -0.1764  2.0528
  272ccc     C9 7884   9.492   5.771   8.163 -0.0972 -0.0441 -0.4093
  272ccc     O4 7885   9.530   5.698   8.071  0.4920 -0.0347  0.5455
  272ccc     O5 7886   9.534   5.887   8.153  0.7084  0.2204 -0.1829
  272ccc     O1 7887   9.260   5.399   8.655 -0.2214 -0.4350  0.2414
  273ccc     C3 7888   8.851   5.917   9.763 -0.5500 -0.2895 -0.2719
  273ccc     H5 7889   8.781   5.879   9.839 -0.8175  0.3912 -0.1631
  273ccc     H6 7890   8.863   6.024   9.783 -0.5314 -0.0923 -1.2959
  273ccc     C2 7891   8.816   5.895   9.617  0.4446  0.0975  0.4020
  273ccc     H3 7892   8.725   5.952   9.595  1.3766  0.7462 -2.2031
  273ccc     H4 7893   8.792   5.791   9.592 -0.5328  0.1853  0.9442
  273ccc     C1 7894   8.931   5.950   9.524 -0.2018 -0.0901  0.5428
  273ccc     H1 7895   8.908   5.914   9.423  0.2224  0.1241  0.3646
  273ccc     H2 7896   9.033   5.913   9.543  1.3765  3.6726  0.2687
  273ccc     N1 7897   8.936   6.105   9.519  0.3226  0.3476  0.5585
  273ccc     C4 7898   8.922   6.161   9.387  0.9074  0.0746 -0.4185
  273ccc     H7 7899   9.010   6.131   9.330  0.3558 -0.7511 -0.8659
  273ccc     H8 7900   8.925   6.271   9.390 -2.3607  0.2528  1.4067
  273ccc     C5 7901   8.801   6.116   9.309 -0.3927  0.2963  0.3116
  273ccc     H9 7902   8.799   6.012   9.272  0.7247  0.1713  0.5538
  273ccc    H10 7903   8.718   6.147   9.372 -0.0085 -0.3890  1.1752
  273ccc     C6 7904   8.800   6.204   9.192  0.7445 -0.3248  0.3516
  273ccc     O2 7905   8.701   6.271   9.172  0.0216 -0.3486  0.2299
  273ccc     O3 7906   8.876   6.180   9.098  0.1924 -0.5621 -0.5073
  273ccc     C7 7907   9.034   6.177   9.604 -0.3405 -0.1279 -0.4888
  273ccc    H11 7908   9.013   6.284   9.594 -1.5274  0.0931  2.9938
  273ccc    H12 7909   9.029   6.161   9.712  2.3818  1.4121 -0.0439
  273ccc     C8 7910   9.179   6.145   9.554 -0.4133  0.6659 -0.4142
  273ccc    H13 7911   9.209   6.042   9.580  1.0215  1.5888  1.9178
  273ccc    H14 7912   9.198   6.164   9.448  0.2616  0.9956 -0.2337
  273ccc     C9 7913   9.275   6.238   9.629 -0.7488 -0.0474  0.7645
  273ccc     O4 7914   9.362   6.188   9.690  0.4693  0.3570 -0.1809
  273ccc     O5 7915   9.303   6.346   9.578 -0.2016 -0.3871 -0.1449
  273ccc     O1 7916   8.979   5.850   9.783 -0.2439 -0.0016  0.4420
  274ccc     C3 7917   9.930   5.662   9.884  0.0318  0.1677  0.3748
  274ccc     H5 7918   9.958   5.560   9.910 -2.3386 -0.0888  2.3490
  274ccc     H6 7919   9.889   5.657   9.782  0.5506 -2.7762  0.2277
  274ccc     C2 7920  10.056   5.753   9.884  0.0405 -0.1414  0.3110
  274ccc     H3 7921  10.133   5.707   9.821 -0.6306 -1.6861  0.5725
  274ccc     H4 7922  10.094   5.759   9.987 -1.1979  2.3584  0.6948
  274ccc     C1 7923  10.023   5.903   9.842 -0.5085 -0.0975  0.9155
  274ccc     H1 7924  10.110   5.965   9.867 -1.5524  1.4466  0.8561
  274ccc     H2 7925   9.939   5.938   9.904 -1.2059 -1.2822  0.6566
  274ccc     N1 7926   9.988   5.924   9.697 -0.4688 -0.1536 -0.4404
  274ccc     C4 7927   9.946   6.068   9.686  0.7947  0.2313  0.3964
  274ccc     H7 7928  10.020   6.144   9.713 -0.6662  2.0868 -0.5660
  274ccc     H8 7929   9.863   6.075   9.758 -0.2490  1.7641 -0.8782
  274ccc     C5 7930   9.890   6.108   9.545  0.4951  0.4522 -0.0355
  274ccc     H9 7931   9.967   6.115   9.467 -1.4722 -0.0386 -2.1344
  274ccc    H10 7932   9.822   6.037   9.497  2.3530 -1.4204 -0.0417
  274ccc     C6 7933   9.825   6.242   9.561  1.2290 -0.4815 -0.7147
  274ccc     O2 7934   9.709   6.258   9.608 -0.0353 -0.2881 -0.6625
  274ccc     O3 7935   9.880   6.346   9.545 -0.1080  0.1950 -0.6046
  274ccc     C7 7936  10.101   5.890   9.607 -0.2378  0.5990  1.0632
  274ccc    H11 7937  10.129   5.784   9.607 -0.7219  0.4120 -1.4904
  274ccc    H12 7938  10.065   5.891   9.503 -0.8274 -0.8959  1.2234
  274ccc     C8 7939  10.228   5.976   9.613 -0.0921 -0.7571  0.4122
  274ccc    H13 7940  10.209   6.084   9.601 -0.6002 -0.7880  0.8954
  274ccc    H14 7941  10.273   5.968   9.713  0.0537  2.5349  0.7342
  274ccc     C9 7942  10.330   5.925   9.520 -0.7195 -0.8445  0.6460
  274ccc     O4 7943  10.399   5.830   9.557  0.8298 -0.0453  0.0296
  274ccc     O5 7944  10.336   5.969   9.398  0.2038  0.1114  0.5445
  274ccc     O1 7945   9.833   5.714   9.979  0.0117 -0.5346  0.2966
  275ccc     C3 7946   6.949   5.345   8.150 -0.4578 -0.1472  0.0239
  275ccc     H5 7947   6.974   5.401   8.058 -0.1743 -1.4528 -0.7168
  275ccc     H6 7948   6.959   5.240   8.121 -2.0673 -0.3593  0.1350
  275ccc     C2 7949   6.804   5.376   8.176  0.2220  0.2006  0.2444
  275ccc     H3 7950   6.778   5.314   8.263 -0.8152  1.1096  0.6069
  275ccc     H4 7951   6.747   5.337   8.090  1.0342 -1.0792  0.2725
  275ccc     C1 7952   6.760   5.521   8.199  0.3623  0.1900 -0.2251
  275ccc     H1 7953   6.817   5.588   8.132  1.6930 -0.1486  0.5358
  275ccc     H2 7954   6.790   5.556   8.298 -1.9678  1.2950  0.1650
  275ccc     N1 7955   6.611   5.547   8.181 -0.4804 -0.5643 -0.4962
  275ccc     C4 7956   6.589   5.686   8.208  0.0419 -0.0727  0.3597
  275ccc     H7 7957   6.674   5.736   8.255  0.8189 -0.5780 -0.4897
  275ccc     H8 7958   6.503   5.698   8.275 -0.0518  0.5834  0.1308
  275ccc     C5 7959   6.550   5.754   8.076 -0.2470 -0.2008  0.4391
  275ccc     H9 7960   6.626   5.751   7.997 -2.2830  0.2502 -1.6389
  275ccc    H10 7961   6.463   5.705   8.030 -1.7022  0.6203  2.2034
  275ccc     C6 7962   6.522   5.891   8.111  0.0060 -0.5395 -0.4406
  275ccc     O2 7963   6.407   5.935   8.125 -0.9111 -0.0110  0.0697
  275ccc     O3 7964   6.613   5.977   8.104  0.9368 -0.2788  0.2382
  275ccc     C7 7965   6.529   5.456   8.265  0.3212 -0.1024 -0.2210
  275ccc    H11 7966   6.563   5.353   8.249 -1.5630 -0.9343  0.8943
  275ccc    H12 7967   6.543   5.478   8.371 -2.6419  0.5628  0.1121
  275ccc     C8 7968   6.380   5.459   8.227 -0.0476 -0.0965 -0.0615
  275ccc    H13 7969   6.356   5.565   8.213  2.5343  0.5003 -0.5495
  275ccc    H14 7970   6.358   5.395   8.140  0.7533  1.3788 -1.4040
  275ccc     C9 7971   6.299   5.402   8.336 -0.8682 -0.9594 -0.9609
  275ccc     O4 7972   6.209   5.329   8.302  0.4499  0.1327 -0.1732
  275ccc     O5 7973   6.344   5.370   8.445  0.0065 -0.0708 -0.2106
  275ccc     O1 7974   7.023   5.381   8.267 -0.4593  0.0315  0.0149
  276ccc     C3 7975   6.997   6.091   8.699  0.3226  0.2771 -0.4557
  276ccc     H5 7976   6.893   6.060   8.681 -1.0219  2.3060  2.8378
  276ccc     H6 7977   7.006   6.130   8.801  1.1625 -1.9368  0.3657
  276ccc     C2 7978   7.030   6.198   8.596 -0.1171 -0.0830  0.8466
  276ccc     H3 7979   7.010   6.155   8.497 -0.6653 -0.4749  1.1232
  276ccc     H4 7980   7.136   6.219   8.609 -0.3641  0.0487  3.0439
  276ccc     C1 7981   6.952   6.331   8.611  0.1735 -0.1916  0.3549
  276ccc     H1 7982   6.996   6.380   8.698  1.9754  2.8422 -2.0681
  276ccc     H2 7983   6.846   6.304   8.626  0.0574 -0.9151 -1.4996
  276ccc     N1 7984   6.965   6.422   8.495 -0.3693 -0.0485 -0.5387
  276ccc     C4 7985   7.106   6.455   8.459 -0.0565  0.6218 -0.3268
  276ccc     H7 7986   7.103   6.518   8.369  0.9250 -0.5133 -1.1991
  276ccc     H8 7987   7.154   6.360   8.433 -1.5380 -0.2268 -0.0668
  276ccc     C5 7988   7.183   6.533   8.571 -0.6063 -0.0373 -0.2302
  276ccc     H9 7989   7.131   6.621   8.610  0.6325  0.4817  0.2767
  276ccc    H10 7990   7.197   6.463   8.654 -2.0706 -0.6794 -0.4786
  276ccc     C6 7991   7.313   6.570   8.510  0.3634 -0.1186  0.4099
  276ccc     O2 7992   7.415   6.502   8.527  0.0456  0.1977  0.0027
  276ccc     O3 7993   7.319   6.659   8.423 -0.1462 -0.3770 -0.7381
  276ccc     C7 7994   6.895   6.380   8.370  0.3404 -0.2109  0.0063
  276ccc    H11 7995   6.917   6.449   8.288  1.1219  0.6169  0.8949
  276ccc    H12 7996   6.933   6.282   8.340  1.1904  0.1950 -0.2654
  276ccc     C8 7997   6.744   6.370   8.388  0.5911 -0.2916  0.5525
  276ccc    H13 7998   6.726   6.281   8.449  1.8334  0.0083  1.3973
  276ccc    H14 7999   6.694   6.457   8.432 -0.6510 -1.7840  2.2391
  276ccc     C9 8000   6.679   6.349   8.253 -0.7082 -0.5842 -0.2859
  276ccc     O4 8001   6.630   6.448   8.196 -0.5073 -0.0093 -0.1424
  276ccc     O5 8002   6.658   6.238   8.207 -0.4769 -0.1246 -0.3949
  276ccc     O1 8003   7.094   5.984   8.675 -0.2968  0.1086 -0.4879
  277ccc     C3 8004   8.422   5.546   8.702  0.0418  0.4023  0.1028
  277ccc     H5 8005   8.497   5.471   8.728 -0.3630 -0.3152 -0.7703
  277ccc     H6 8006   8.461   5.619   8.630 -1.6103  2.2486  0.9620
  277ccc     C2 8007   8.377   5.637   8.824 -0.5606 -0.3422  0.0257
  277ccc     H3 8008   8.336   5.736   8.800  1.0469  0.7948  1.7123
  277ccc     H4 8009   8.461   5.669   8.886 -1.2450 -0.3871  0.9947
  277ccc     C1 8010   8.270   5.567   8.917 -0.4569 -0.4954  0.7144
  277ccc     H1 8011   8.298   5.462   8.928 -0.3104 -0.5869 -0.4004
  277ccc     H2 8012   8.175   5.576   8.864  0.2649 -0.7531 -0.6788
  277ccc     N1 8013   8.260   5.629   9.052 -0.4522  0.7514 -0.5396
  277ccc     C4 8014   8.248   5.779   9.048 -0.0450  0.2579 -0.4077
  277ccc     H7 8015   8.145   5.797   9.013 -0.3601 -2.0357 -0.7974
  277ccc     H8 8016   8.315   5.830   8.978 -2.1989  0.0448 -2.8127
  277ccc     C5 8017   8.293   5.842   9.187  0.5375  0.3513  0.4316
  277ccc     H9 8018   8.210   5.833   9.259 -0.2675  0.3088 -0.4870
  277ccc    H10 8019   8.376   5.794   9.240 -1.2954 -1.3898  1.8499
  277ccc     C6 8020   8.321   5.987   9.161 -0.1228  0.0637 -0.6732
  277ccc     O2 8021   8.428   6.034   9.159 -0.0766 -0.1184  0.0689
  277ccc     O3 8022   8.224   6.062   9.165 -0.0682 -0.0476 -0.2733
  277ccc     C7 8023   8.149   5.565   9.137  0.0109 -0.7681  0.0973
  277ccc    H11 8024   8.155   5.612   9.235  1.5489 -0.7165 -0.0042
  277ccc    H12 8025   8.053   5.572   9.084 -0.0156 -1.5922  0.0178
  277ccc     C8 8026   8.181   5.421   9.160  0.6365  0.2894 -0.3830
  277ccc    H13 8027   8.198   5.355   9.074  0.2508  0.0730 -0.2941
  277ccc    H14 8028   8.269   5.424   9.225  1.9167 -1.8014 -1.8947
  277ccc     C9 8029   8.064   5.356   9.234 -0.3418  0.1773  0.5856
  277ccc     O4 8030   8.007   5.416   9.323 -0.1612 -0.3717 -0.0620
  277ccc     O5 8031   7.994   5.269   9.192  0.5686 -0.2796  0.0322
  277ccc     O1 8032   8.306   5.485   8.650 -0.2222 -0.2726  0.3735
  278ccc     C3 8033   8.093   5.941   8.729 -0.5836 -0.1091  0.8760
  278ccc     H5 8034   8.048   5.939   8.829  0.7878 -1.3021  1.5040
  278ccc     H6 8035   8.155   5.850   8.734 -0.0767  0.2050  0.4365
  278ccc     C2 8036   8.189   6.061   8.720 -0.1354 -0.2982  0.6554
  278ccc     H3 8037   8.262   6.046   8.801  0.5242 -0.8877 -0.0290
  278ccc     H4 8038   8.126   6.150   8.735  0.5383  0.2379  0.3567
  278ccc     C1 8039   8.284   6.075   8.593 -0.2969  0.1917 -0.2196
  278ccc     H1 8040   8.214   6.075   8.509 -0.3920  1.9127 -0.1717
  278ccc     H2 8041   8.355   5.992   8.582  1.1447  1.1437  1.3857
  278ccc     N1 8042   8.366   6.199   8.575 -0.3043 -0.4508  0.0739
  278ccc     C4 8043   8.434   6.210   8.450  0.1569  0.1054 -0.0771
  278ccc     H7 8044   8.497   6.120   8.443 -1.7916 -1.2517 -0.8161
  278ccc     H8 8045   8.503   6.294   8.438  1.5931 -0.9679  0.3288
  278ccc     C5 8046   8.344   6.226   8.330  0.1675  0.2155  0.5890
  278ccc     H9 8047   8.294   6.132   8.305  0.6984  0.3772 -1.1884
  278ccc    H10 8048   8.267   6.305   8.333 -1.5963 -1.4439  1.3301
  278ccc     C6 8049   8.426   6.241   8.207  0.3516 -0.3816 -0.1217
  278ccc     O2 8050   8.436   6.158   8.122  0.5880  0.2579  0.3586
  278ccc     O3 8051   8.450   6.354   8.170  0.0875  0.1568  0.1250
  278ccc     C7 8052   8.462   6.203   8.685 -0.4519 -0.2242  0.2307
  278ccc    H11 8053   8.452   6.117   8.751 -1.2686  0.0004  0.4162
  278ccc    H12 8054   8.564   6.221   8.649  0.5525 -1.9004  2.0890
  278ccc     C8 8055   8.440   6.324   8.771  0.4277 -0.0134  0.2188
  278ccc    H13 8056   8.469   6.414   8.715  0.1057 -1.6922 -2.7955
  278ccc    H14 8057   8.331   6.316   8.788  0.4037 -0.5558 -0.1677
  278ccc     C9 8058   8.512   6.324   8.897  0.1327 -0.2377  0.6013
  278ccc     O4 8059   8.628   6.335   8.893  0.1860  0.2331 -0.3421
  278ccc     O5 8060   8.461   6.348   9.004 -0.1755  0.1988  0.0957
  278ccc     O1 8061   7.990   5.951   8.628 -0.5154  0.3030  0.2557
  279ccc     C3 8062   9.961   4.248   7.500 -0.2445 -0.3392  0.1002
  279ccc     H5 8063  10.059   4.199   7.500 -0.0461  0.0521  0.5791
  279ccc     H6 8064   9.955   4.309   7.591  1.4288 -0.3025  0.2190
  279ccc     C2 8065   9.842   4.152   7.504  0.2102 -1.1549 -0.4348
  279ccc     H3 8066   9.854   4.065   7.571  0.5192 -0.3860  0.5391
  279ccc     H4 8067   9.821   4.129   7.399  0.8559 -0.7462 -0.6607
  279ccc     C1 8068   9.717   4.226   7.559 -0.2332 -0.0168  0.0142
  279ccc     H1 8069   9.699   4.321   7.507  1.1342  0.5086  0.4698
  279ccc     H2 8070   9.741   4.255   7.662  1.6451 -1.2750 -0.0337
  279ccc     N1 8071   9.592   4.145   7.573 -0.0010  0.8661  0.0205
  279ccc     C4 8072   9.559   4.058   7.457 -0.6877  0.6952  0.0297
  279ccc     H7 8073   9.645   4.015   7.405 -0.6608  3.3546 -2.3918
  279ccc     H8 8074   9.513   4.114   7.375  0.6426 -2.8849 -3.5005
  279ccc     C5 8075   9.468   3.944   7.509  0.1992 -0.0895 -0.5887
  279ccc     H9 8076   9.498   3.884   7.597 -0.9460  0.2017  0.0244
  279ccc    H10 8077   9.375   3.991   7.542  0.1004 -0.8483  0.2618
  279ccc     C6 8078   9.443   3.849   7.395  0.3136  0.4449 -0.2801
  279ccc     O2 8079   9.531   3.775   7.355  0.3742  0.4279 -0.2272
  279ccc     O3 8080   9.331   3.844   7.339  0.2247 -0.1813 -0.4669
  279ccc     C7 8081   9.480   4.226   7.622 -0.1712 -0.2201 -0.7333
  279ccc    H11 8082   9.395   4.162   7.652 -0.2976  1.0705  2.0126
  279ccc    H12 8083   9.502   4.285   7.712 -1.7784  1.0445 -1.1250
  279ccc     C8 8084   9.420   4.325   7.521 -0.3415  0.0164  0.6351
  279ccc    H13 8085   9.496   4.385   7.470 -1.2922  1.0736  0.4345
  279ccc    H14 8086   9.368   4.266   7.444 -0.8622  1.5253 -0.2060
  279ccc     C9 8087   9.310   4.408   7.583  0.3389  0.5089 -0.1243
  279ccc     O4 8088   9.339   4.511   7.637 -0.2515 -0.2650  0.3004
  279ccc     O5 8089   9.194   4.379   7.564  0.2361 -0.2441  0.0259
  279ccc     O1 8090   9.935   4.337   7.392  0.0192 -0.3415  0.0979
  280ccc     C3 8091   9.663   4.956   7.828 -0.0003 -0.0761  0.1018
  280ccc     H5 8092   9.666   4.921   7.931  0.9158 -2.1621 -0.5768
  280ccc     H6 8093   9.749   5.020   7.802 -0.6077  0.5054 -0.5370
  280ccc     C2 8094   9.526   5.012   7.802  0.6713 -0.2138  0.4032
  280ccc     H3 8095   9.507   5.084   7.883 -2.3985 -1.4838  0.9594
  280ccc     H4 8096   9.456   4.930   7.819  0.9776 -0.5662 -0.0257
  280ccc     C1 8097   9.514   5.088   7.669  0.5259 -0.1107 -0.2302
  280ccc     H1 8098   9.548   5.029   7.583 -0.2360  1.0071 -1.3342
  280ccc     H2 8099   9.578   5.176   7.660  2.0713 -1.4022 -3.8341
  280ccc     N1 8100   9.376   5.124   7.636 -0.6729  0.6273 -0.0465
  280ccc     C4 8101   9.298   5.001   7.604 -0.5392 -0.9000 -0.0129
  280ccc     H7 8102   9.329   4.909   7.656  0.3165 -0.5577  0.0883
  280ccc     H8 8103   9.327   4.981   7.500  0.4404 -1.1445  0.2980
  280ccc     C5 8104   9.147   5.011   7.621 -0.6445 -0.1585  0.5801
  280ccc     H9 8105   9.119   5.036   7.724 -1.5308 -0.5267  0.4328
  280ccc    H10 8106   9.112   5.090   7.553  1.0654  0.2359  0.1025
  280ccc     C6 8107   9.077   4.891   7.580  0.1937 -0.1098 -0.4856
  280ccc     O2 8108   9.131   4.779   7.572  0.2568 -1.0784  0.8082
  280ccc     O3 8109   8.968   4.906   7.528  0.5286  0.4422 -0.0792
  280ccc     C7 8110   9.317   5.228   7.723 -0.4595 -0.3137 -0.2983
  280ccc    H11 8111   9.209   5.242   7.708 -0.1334 -0.0203 -2.6451
  280ccc    H12 8112   9.335   5.214   7.830 -1.9731 -1.3575 -0.1346
  280ccc     C8 8113   9.392   5.361   7.689 -0.0627  0.2866 -0.3701
  280ccc    H13 8114   9.501   5.357   7.700  0.1883 -1.3240 -2.7232
  280ccc    H14 8115   9.371   5.402   7.590  3.6363  1.6310 -0.7300
  280ccc     C9 8116   9.335   5.474   7.776 -0.1336  0.9608 -0.1987
  280ccc     O4 8117   9.396   5.519   7.870 -0.2868 -0.2563 -0.8184
  280ccc     O5 8118   9.216   5.495   7.776 -0.7672 -0.5210 -0.5251
  280ccc     O1 8119   9.672   4.844   7.735 -0.1809  0.1466 -0.6940
  281ccc     C3 8120   9.490   5.851   6.363 -0.4663 -0.0309  0.2034
  281ccc     H5 8121   9.421   5.778   6.408  0.6509 -0.7153  0.8630
  281ccc     H6 8122   9.467   5.951   6.401 -2.1991 -0.5421  0.6143
  281ccc     C2 8123   9.451   5.855   6.211 -0.3825  0.4936 -0.2644
  281ccc     H3 8124   9.344   5.877   6.210 -0.0420  2.2806  0.0605
  281ccc     H4 8125   9.449   5.752   6.172 -0.4732 -0.1352  1.3257
  281ccc     C1 8126   9.535   5.943   6.118  0.2062 -0.2548 -0.2426
  281ccc     H1 8127   9.492   5.936   6.017  0.5468 -2.5015 -0.2855
  281ccc     H2 8128   9.639   5.908   6.120  0.0827 -0.5786  0.8094
  281ccc     N1 8129   9.530   6.088   6.150 -0.1273 -0.6205 -0.4964
  281ccc     C4 8130   9.658   6.156   6.149 -0.3249 -1.0799  0.3213
  281ccc     H7 8131   9.637   6.254   6.194 -2.3702 -1.6047  0.5965
  281ccc     H8 8132   9.695   6.161   6.046 -0.0738 -1.4895  0.3875
  281ccc     C5 8133   9.765   6.093   6.233  0.1887  0.1572  0.7781
  281ccc     H9 8134   9.730   6.058   6.330  0.9822 -1.2884  0.5628
  281ccc    H10 8135   9.811   6.000   6.198  0.3352 -0.0164  1.4262
  281ccc     C6 8136   9.882   6.187   6.251 -0.7853  0.4142  0.2560
  281ccc     O2 8137   9.881   6.274   6.337 -0.7395  0.2829 -0.2774
  281ccc     O3 8138   9.990   6.166   6.190 -0.2151  0.0639  0.2038
  281ccc     C7 8139   9.403   6.163   6.116 -0.2216 -0.5598  0.6942
  281ccc    H11 8140   9.311   6.106   6.132 -1.9425  2.2274  1.2468
  281ccc    H12 8141   9.400   6.260   6.167  0.3564  0.3027 -0.8581
  281ccc     C8 8142   9.385   6.191   5.972  0.1119  0.5106  0.7026
  281ccc    H13 8143   9.468   6.250   5.930 -0.9162  2.8857  1.8055
  281ccc    H14 8144   9.379   6.096   5.917  3.2578 -0.6377  2.1080
  281ccc     C9 8145   9.251   6.268   5.950 -0.7248 -0.4262 -0.3856
  281ccc     O4 8146   9.141   6.227   5.989 -0.5049  0.0777 -0.2512
  281ccc     O5 8147   9.240   6.331   5.849  0.2984 -0.3074  0.4741
  281ccc     O1 8148   9.632   5.813   6.364 -0.5575 -0.1496 -0.0714
  282ccc     C3 8149   9.999   5.672   7.313 -0.3171 -0.4750 -0.6920
  282ccc     H5 8150  10.071   5.593   7.338 -1.1165 -2.0756 -3.1235
  282ccc     H6 8151  10.048   5.769   7.330  0.7994 -0.9492 -1.1550
  282ccc     C2 8152   9.875   5.651   7.392 -0.6020  0.2729 -0.5734
  282ccc     H3 8153   9.912   5.652   7.495  2.2332 -0.0971 -1.5258
  282ccc     H4 8154   9.848   5.549   7.363  0.4777 -0.4560  0.8903
  282ccc     C1 8155   9.758   5.755   7.367  0.7763 -0.5146  0.1770
  282ccc     H1 8156   9.725   5.750   7.263  0.3042  2.9952  0.0329
  282ccc     H2 8157   9.798   5.856   7.382  1.0753 -0.1938 -2.4418
  282ccc     N1 8158   9.636   5.712   7.442  0.0552 -0.2445 -0.6092
  282ccc     C4 8159   9.657   5.697   7.581 -0.1661 -0.4706  0.1506
  282ccc     H7 8160   9.745   5.637   7.607 -1.1774 -1.7702  0.7190
  282ccc     H8 8161   9.573   5.646   7.631 -2.4504  2.8846  0.0499
  282ccc     C5 8162   9.689   5.829   7.646 -0.5711  0.6280  0.2542
  282ccc     H9 8163   9.790   5.856   7.612 -0.2903  0.4288  0.9104
  282ccc    H10 8164   9.614   5.904   7.621 -1.3967 -0.3934 -0.4367
  282ccc     C6 8165   9.690   5.812   7.790  0.0152  0.2748 -0.4316
  282ccc     O2 8166   9.590   5.839   7.855  0.3224  0.4661 -0.1101
  282ccc     O3 8167   9.792   5.800   7.849 -0.0859 -0.0066 -0.6130
  282ccc     C7 8168   9.514   5.780   7.392  0.3275 -0.2164  0.0167
  282ccc    H11 8169   9.530   5.888   7.393  3.8303 -0.5129 -3.1799
  282ccc    H12 8170   9.496   5.761   7.286 -1.7162  2.7582 -0.2825
  282ccc     C8 8171   9.375   5.757   7.464  0.8945  0.3278  0.1656
  282ccc    H13 8172   9.288   5.795   7.409  1.0330  0.9624  0.3717
  282ccc    H14 8173   9.357   5.650   7.481  0.5618  0.4248  0.4402
  282ccc     C9 8174   9.367   5.830   7.592 -0.5147  0.4359 -0.9164
  282ccc     O4 8175   9.342   5.954   7.588 -0.1948  0.7679  0.2010
  282ccc     O5 8176   9.328   5.778   7.697  0.5949  0.3661 -0.4047
  282ccc     O1 8177   9.963   5.663   7.177 -0.0182  0.5533  0.0164
  283ccc     C3 8178   6.922   5.164   7.752 -0.4093  0.0058 -0.2902
  283ccc     H5 8179   7.009   5.121   7.803  0.3292 -0.2726 -1.7452
  283ccc     H6 8180   6.947   5.269   7.730  0.6037 -0.0124  0.6571
  283ccc     C2 8181   6.795   5.165   7.829  0.9097  0.0932 -0.0665
  283ccc     H3 8182   6.717   5.203   7.762  2.1925  0.5732 -1.3311
  283ccc     H4 8183   6.810   5.228   7.917  0.8818 -2.6531  2.0562
  283ccc     C1 8184   6.755   5.019   7.863 -0.8095  0.4199  0.0182
  283ccc     H1 8185   6.801   4.986   7.957 -1.1694  0.2223  0.1271
  283ccc     H2 8186   6.778   4.951   7.780 -0.5037 -0.3890  0.7523
  283ccc     N1 8187   6.606   5.010   7.887 -0.2425 -0.2173 -0.1741
  283ccc     C4 8188   6.553   4.868   7.875 -0.4083  0.0674 -0.1968
  283ccc     H7 8189   6.578   4.796   7.953  2.0189  1.4208  0.3665
  283ccc     H8 8190   6.600   4.828   7.784 -1.4573 -0.9102 -0.3362
  283ccc     C5 8191   6.406   4.865   7.834 -0.1927 -0.1242  0.4046
  283ccc     H9 8192   6.337   4.901   7.911 -1.0183  1.0805 -0.8561
  283ccc    H10 8193   6.380   4.921   7.744  2.0719 -0.0950 -0.3038
  283ccc     C6 8194   6.368   4.722   7.821 -0.8470 -0.0040 -0.1010
  283ccc     O2 8195   6.260   4.687   7.861  0.2520 -0.1529 -0.0718
  283ccc     O3 8196   6.447   4.639   7.798 -0.4554  0.2155 -0.1256
  283ccc     C7 8197   6.555   5.094   7.994  0.5244  0.0912  0.7508
  283ccc    H11 8198   6.590   5.198   7.983 -1.3080  0.5689 -1.1339
  283ccc    H12 8199   6.447   5.095   7.975  0.5818 -1.3933  0.2880
  283ccc     C8 8200   6.589   5.033   8.131  0.2030 -0.0471 -0.2891
  283ccc    H13 8201   6.582   4.925   8.145  2.2084 -0.0395  1.2056
  283ccc    H14 8202   6.691   5.063   8.157  0.5039 -0.9583 -0.3860
  283ccc     C9 8203   6.501   5.081   8.243 -0.1849 -0.0187 -0.3160
  283ccc     O4 8204   6.384   5.046   8.247 -0.6059  0.4825  0.4138
  283ccc     O5 8205   6.552   5.090   8.352 -0.1579  0.2181 -0.0601
  283ccc     O1 8206   6.899   5.098   7.633  0.4809 -0.7564 -0.2765
  284ccc     C3 8207   7.087   5.751   7.245  0.8267 -0.1799  0.0575
  284ccc     H5 8208   7.093   5.815   7.334 -0.9810 -0.0801  0.1578
  284ccc     H6 8209   7.188   5.718   7.219  0.1092 -3.5078  0.9819
  284ccc     C2 8210   7.004   5.826   7.144  0.3567 -0.0661  0.2107
  284ccc     H3 8211   6.902   5.827   7.184  0.1426  2.0321 -0.2381
  284ccc     H4 8212   7.013   5.783   7.044  0.2859  1.4546 -0.4894
  284ccc     C1 8213   7.055   5.966   7.111  0.4640 -0.3281  0.0504
  284ccc     H1 8214   7.001   5.981   7.017 -0.3523 -1.1655  0.3768
  284ccc     H2 8215   7.164   5.974   7.100  0.4341  1.0319  0.6099
  284ccc     N1 8216   7.020   6.084   7.185 -0.4460  0.0296 -0.3993
  284ccc     C4 8217   7.113   6.193   7.181 -0.8601 -0.3112 -0.6280
  284ccc     H7 8218   7.213   6.151   7.199 -1.0938 -1.3893 -1.6996
  284ccc     H8 8219   7.091   6.261   7.264  2.1278 -0.1566  0.1638
  284ccc     C5 8220   7.111   6.266   7.045 -0.7888  0.1687 -0.0432
  284ccc     H9 8221   7.115   6.189   6.967 -0.7382 -0.1527  0.2706
  284ccc    H10 8222   7.016   6.321   7.035 -1.9144 -1.7684 -0.6471
  284ccc     C6 8223   7.228   6.354   7.022  0.0414 -0.5911  0.4896
  284ccc     O2 8224   7.251   6.441   7.099 -0.0659  0.0152 -0.4422
  284ccc     O3 8225   7.294   6.344   6.918  0.4917  0.3283 -0.2415
  284ccc     C7 8226   6.882   6.114   7.212 -0.3401  0.1380  0.5535
  284ccc    H11 8227   6.837   6.027   7.260 -1.0703  0.0263 -0.3036
  284ccc    H12 8228   6.878   6.201   7.279  2.3388  0.3204  0.5946
  284ccc     C8 8229   6.801   6.151   7.087  0.1909 -0.4770  0.0353
  284ccc    H13 8230   6.807   6.258   7.064 -0.1556 -0.5319 -0.3067
  284ccc    H14 8231   6.835   6.090   7.002  0.0766 -0.9084  0.2946
  284ccc     C9 8232   6.669   6.107   7.122 -0.3094  0.4639 -1.0556
  284ccc     O4 8233   6.583   6.184   7.159 -0.0815  0.2681 -0.0811
  284ccc     O5 8234   6.628   5.995   7.093  0.0123 -1.0690  0.4828
  284ccc     O1 8235   7.012   5.627   7.283 -0.6020  0.3984  0.1385
  285ccc     C3 8236   7.783   6.418   7.792 -1.1389  0.7168  0.8863
  285ccc     H5 8237   7.867   6.359   7.753 -0.9321  0.4445  1.7163
  285ccc     H6 8238   7.799   6.523   7.765 -0.1550 -0.0647 -1.9300
  285ccc     C2 8239   7.789   6.390   7.938 -0.1002 -0.1429 -0.5090
  285ccc     H3 8240   7.708   6.442   7.990 -0.9211 -1.3602 -0.5296
  285ccc     H4 8241   7.880   6.432   7.983  0.7012 -1.8558 -0.4370
  285ccc     C1 8242   7.786   6.235   7.966  0.1456  0.0673 -0.6435
  285ccc     H1 8243   7.812   6.173   7.879 -1.0913 -1.6746  0.1634
  285ccc     H2 8244   7.679   6.216   7.979 -0.2618  2.5541  0.2072
  285ccc     N1 8245   7.861   6.181   8.089 -0.5666  0.3919 -0.3491
  285ccc     C4 8246   8.007   6.198   8.078 -0.8857 -0.0588  0.7287
  285ccc     H7 8247   8.060   6.136   8.151 -1.0913 -0.7408  0.3159
  285ccc     H8 8248   8.041   6.302   8.081  0.4081 -0.4409  0.2261
  285ccc     C5 8249   8.055   6.155   7.936 -0.3365 -0.3888 -0.0866
  285ccc     H9 8250   8.006   6.061   7.908  0.7205 -1.5980  1.8652
  285ccc    H10 8251   8.021   6.233   7.867  1.8780  0.2264 -0.5375
  285ccc     C6 8252   8.204   6.144   7.919  0.4240  0.0277 -0.1798
  285ccc     O2 8253   8.252   6.032   7.902 -0.2185 -0.2915  0.1057
  285ccc     O3 8254   8.274   6.236   7.877  0.5851  0.0844  0.6326
  285ccc     C7 8255   7.821   6.240   8.214  0.2019  0.3597 -0.4816
  285ccc    H11 8256   7.894   6.222   8.294  1.4813  1.9115 -1.2401
  285ccc    H12 8257   7.825   6.349   8.200  1.9297  0.0600 -2.8459
  285ccc     C8 8258   7.685   6.203   8.268  0.4829 -0.3130  0.2165
  285ccc    H13 8259   7.619   6.221   8.182  1.6433 -0.0656 -0.6569
  285ccc    H14 8260   7.685   6.097   8.295  1.2660 -0.2903  0.3362
  285ccc     C9 8261   7.658   6.290   8.389  0.0923 -1.4054  0.5598
  285ccc     O4 8262   7.669   6.243   8.494  0.3824 -0.7325  0.2774
  285ccc     O5 8263   7.620   6.402   8.370 -0.3661  0.5821  0.2646
  285ccc     O1 8264   7.657   6.371   7.739 -0.5550  0.1153  0.0970
  286ccc     C3 8265   6.862   5.987   7.526 -0.0314  0.4050  0.2028
  286ccc     H5 8266   6.826   6.091   7.532  1.2231  0.7921  2.7114
  286ccc     H6 8267   6.942   5.973   7.452  0.4347  1.4145  0.4955
  286ccc     C2 8268   6.743   5.892   7.507 -0.2354 -0.5674  0.8179
  286ccc     H3 8269   6.780   5.790   7.493 -0.5622 -0.4328 -1.2470
  286ccc     H4 8270   6.697   5.918   7.411 -0.3191  2.3108  1.5492
  286ccc     C1 8271   6.643   5.904   7.618  0.4965 -0.1715 -0.1892
  286ccc     H1 8272   6.704   5.890   7.708  0.5519  0.4891 -0.1160
  286ccc     H2 8273   6.580   5.814   7.620 -1.0488  0.8558 -0.6103
  286ccc     N1 8274   6.571   6.029   7.623  0.1463  0.5333 -0.2756
  286ccc     C4 8275   6.470   6.039   7.505  0.0653  1.1048 -0.5092
  286ccc     H7 8276   6.531   6.051   7.414 -0.2137 -0.8542 -1.0050
  286ccc     H8 8277   6.403   6.125   7.517 -4.0752 -2.0201  0.9246
  286ccc     C5 8278   6.384   5.912   7.478  0.1471  0.6010 -0.1737
  286ccc     H9 8279   6.453   5.831   7.453 -0.1966  0.7183 -1.6237
  286ccc    H10 8280   6.324   5.888   7.567  0.4005 -0.4493 -0.2742
  286ccc     C6 8281   6.303   5.944   7.354 -0.1143 -0.0888 -0.6136
  286ccc     O2 8282   6.188   5.922   7.354  0.7161 -0.1835  0.3840
  286ccc     O3 8283   6.367   5.938   7.254  0.5636 -0.3019 -0.1780
  286ccc     C7 8284   6.519   6.045   7.762 -0.1253 -0.7265 -0.3895
  286ccc    H11 8285   6.475   5.951   7.798 -2.3032  0.6433  0.6545
  286ccc    H12 8286   6.606   6.053   7.829 -0.7526  1.4244  0.2452
  286ccc     C8 8287   6.437   6.175   7.778 -0.4087 -0.4300  0.1952
  286ccc    H13 8288   6.508   6.252   7.748 -0.5871  0.1575  1.2326
  286ccc    H14 8289   6.351   6.176   7.711  0.4136 -2.9745 -1.0357
  286ccc     C9 8290   6.405   6.180   7.924 -0.0478  0.1793  0.0861
  286ccc     O4 8291   6.496   6.224   7.988  0.3043 -0.1180  0.0982
  286ccc     O5 8292   6.291   6.173   7.969  0.0010  0.2975  0.0783
  286ccc     O1 8293   6.923   5.961   7.648 -0.4092  0.1501  0.7778
  287ccc     C3 8294   9.576   1.495   8.684  0.1869 -0.0105  0.3341
  287ccc     H5 8295   9.514   1.479   8.595  1.7102 -2.6076 -0.3551
  287ccc     H6 8296   9.672   1.535   8.647  0.4574 -2.0360 -1.3464
  287ccc     C2 8297   9.588   1.363   8.750 -0.3873 -0.0075  0.2083
  287ccc     H3 8298   9.654   1.299   8.690 -0.3847 -0.1489  0.3603
  287ccc     H4 8299   9.484   1.330   8.756 -0.7595  1.2016  0.8811
  287ccc     C1 8300   9.660   1.377   8.886 -0.0320  0.4804  0.2663
  287ccc     H1 8301   9.605   1.442   8.955  1.4670  1.8956  0.2086
  287ccc     H2 8302   9.754   1.427   8.857  0.9850 -1.9365 -0.8744
  287ccc     N1 8303   9.681   1.239   8.943  0.5055 -0.0040 -0.0207
  287ccc     C4 8304   9.562   1.191   9.017  0.3399 -0.1874 -0.5743
  287ccc     H7 8305   9.475   1.250   8.987  0.8539  1.3215  0.7418
  287ccc     H8 8306   9.563   1.198   9.127 -2.5440  1.5003 -0.5613
  287ccc     C5 8307   9.545   1.049   8.993 -0.3346  1.1761  0.2274
  287ccc     H9 8308   9.526   1.018   8.890  1.9002  1.6571 -0.3643
  287ccc    H10 8309   9.627   0.990   9.035 -0.7927  0.9935  0.8885
  287ccc     C6 8310   9.422   1.003   9.065 -0.2303 -0.8993  0.5948
  287ccc     O2 8311   9.334   0.963   9.002 -0.1033  0.2419  0.4393
  287ccc     O3 8312   9.421   0.961   9.179 -0.4851 -0.0388  0.4148
  287ccc     C7 8313   9.802   1.245   9.030 -0.3189 -0.7830  0.1632
  287ccc    H11 8314   9.869   1.323   8.991 -1.9676  1.2568  1.2099
  287ccc    H12 8315   9.782   1.279   9.132 -0.4202 -1.2340  0.2976
  287ccc     C8 8316   9.878   1.114   9.030  0.5279 -0.7487 -0.2825
  287ccc    H13 8317   9.826   1.035   9.086  0.4898  0.1521  0.9860
  287ccc    H14 8318   9.896   1.086   8.925 -0.3596  0.7240 -0.8562
  287ccc     C9 8319  10.013   1.123   9.103 -0.0597 -0.1257 -0.2361
  287ccc     O4 8320  10.102   1.184   9.055 -0.4408 -0.3953  0.0658
  287ccc     O5 8321  10.019   1.072   9.218 -0.3929  0.3390  0.2154
  287ccc     O1 8322   9.509   1.589   8.770 -0.6055  0.2499 -0.1672
  288ccc     C3 8323   9.704   1.769   9.099 -0.0640  0.2212  0.5427
  288ccc     H5 8324   9.634   1.853   9.095  1.0067  1.1400  0.7320
  288ccc     H6 8325   9.761   1.771   9.193 -2.6990 -1.9536  2.3322
  288ccc     C2 8326   9.807   1.772   8.986  1.0084 -0.1493  0.0276
  288ccc     H3 8327   9.871   1.861   8.993  2.9209 -1.4495 -0.1925
  288ccc     H4 8328   9.754   1.767   8.891  1.6520 -1.3022 -0.2839
  288ccc     C1 8329   9.903   1.646   8.992 -0.4109  0.1235  0.0407
  288ccc     H1 8330   9.936   1.619   8.890  2.0941 -0.2577  0.8697
  288ccc     H2 8331   9.846   1.557   9.022 -0.4683 -0.0303 -0.5146
  288ccc     N1 8332  10.024   1.680   9.073 -0.0807  0.0520 -0.4865
  288ccc     C4 8333  10.134   1.739   8.991  0.3150  0.2933  0.1920
  288ccc     H7 8334  10.079   1.815   8.934 -3.2967 -1.1033  1.4756
  288ccc     H8 8335  10.161   1.652   8.930 -1.0477  0.8386 -1.2730
  288ccc     C5 8336  10.246   1.797   9.069 -0.7316 -0.3841  0.1841
  288ccc     H9 8337  10.210   1.870   9.143  3.7969  0.9294  1.4079
  288ccc    H10 8338  10.309   1.725   9.123  0.6567  0.6537  0.0118
  288ccc     C6 8339  10.331   1.877   8.975  0.2069  0.1176  0.3978
  288ccc     O2 8340  10.288   1.984   8.935 -0.3622  0.7419  0.1979
  288ccc     O3 8341  10.414   1.816   8.913  0.0184  0.4955 -0.3557
  288ccc     C7 8342  10.056   1.565   9.158 -0.4085  0.6613 -0.0362
  288ccc    H11 8343  10.065   1.473   9.099  1.7892  1.2662 -0.7285
  288ccc    H12 8344  10.147   1.589   9.214 -0.2306 -2.5433  1.2421
  288ccc     C8 8345   9.948   1.539   9.262 -0.6050 -0.6392  0.8138
  288ccc    H13 8346   9.943   1.640   9.304  0.3560  0.0911 -0.7353
  288ccc    H14 8347   9.850   1.512   9.222 -0.7110  1.9728 -0.9222
  288ccc     C9 8348  10.005   1.440   9.361 -0.4945 -0.0202  0.0631
  288ccc     O4 8349  10.045   1.477   9.472  0.5367  0.1520  0.5039
  288ccc     O5 8350  10.026   1.324   9.327 -0.0111  0.2324 -0.8554
  288ccc     O1 8351   9.628   1.645   9.099 -0.2067  0.4186 -0.0680
  289ccc     C3 8352  11.025   1.926   9.267  0.1999  0.0361  0.0947
  289ccc     H5 8353  11.068   1.870   9.351 -0.4385 -0.6999 -0.0645
  289ccc     H6 8354  10.982   1.846   9.206  0.4724  0.0818 -0.1573
  289ccc     C2 8355  11.127   1.995   9.183 -0.4884 -0.6752 -0.0232
  289ccc     H3 8356  11.209   1.927   9.155  0.0823 -0.0576  0.1212
  289ccc     H4 8357  11.191   2.065   9.237  2.0029 -1.7030 -1.4647
  289ccc     C1 8358  11.076   2.076   9.059 -0.4739 -0.3170 -0.1200
  289ccc     H1 8359  11.160   2.122   9.005 -1.1957  0.2676 -0.7779
  289ccc     H2 8360  11.003   2.152   9.091  0.2193  0.3554 -0.1236
  289ccc     N1 8361  11.015   1.984   8.960  0.6857 -0.5785 -0.3388
  289ccc     C4 8362  10.919   2.059   8.885  0.4706  0.4245 -0.8214
  289ccc     H7 8363  10.882   1.999   8.802 -3.1657  0.2861  0.6969
  289ccc     H8 8364  10.966   2.153   8.853  2.1578 -0.3227 -0.6547
  289ccc     C5 8365  10.793   2.078   8.976 -0.0225 -0.0760  0.7421
  289ccc     H9 8366  10.792   1.992   9.045  2.6138 -1.0602 -0.3229
  289ccc    H10 8367  10.805   2.161   9.046  0.0456 -0.7353  1.5307
  289ccc     C6 8368  10.663   2.090   8.890 -0.0723 -0.2818 -0.0147
  289ccc     O2 8369  10.630   2.005   8.806  0.0800  0.1017  0.1336
  289ccc     O3 8370  10.611   2.201   8.885 -0.0994 -0.0021 -0.2944
  289ccc     C7 8371  11.127   1.932   8.882  0.4143  0.0370 -0.3359
  289ccc    H11 8372  11.135   1.999   8.796 -0.9019 -0.3337 -0.7581
  289ccc    H12 8373  11.223   1.936   8.935 -0.4959  0.5524  1.3758
  289ccc     C8 8374  11.112   1.788   8.836  0.1469  0.5836 -0.4547
  289ccc    H13 8375  11.214   1.756   8.809  0.2386  1.4246 -1.1335
  289ccc    H14 8376  11.069   1.728   8.917 -2.0050  0.1974 -1.8087
  289ccc     C9 8377  11.030   1.779   8.720  0.0960  0.3686 -0.1066
  289ccc     O4 8378  11.071   1.753   8.608  0.6008  0.4430  0.3587
  289ccc     O5 8379  10.910   1.764   8.727 -0.4884  0.2070  0.3700
  289ccc     O1 8380  10.928   2.026   9.313  0.4000 -0.8234 -0.5361
  290ccc     C3 8381  10.654   2.461   9.669 -0.2271  0.6341 -0.1317
  290ccc     H5 8382  10.642   2.463   9.778  1.4770 -0.1969  0.0973
  290ccc     H6 8383  10.707   2.367   9.651 -3.4203 -1.2960 -0.2453
  290ccc     C2 8384  10.729   2.586   9.628  0.2167  0.6415  0.5156
  290ccc     H3 8385  10.717   2.600   9.520 -0.9777 -0.2120  0.5220
  290ccc     H4 8386  10.836   2.570   9.651  0.9987  2.1329 -1.7474
  290ccc     C1 8387  10.678   2.711   9.704 -0.4834  0.4885 -0.5032
  290ccc     H1 8388  10.676   2.684   9.810 -0.3197 -0.6815 -0.7837
  290ccc     H2 8389  10.570   2.716   9.682 -1.0110 -1.3565  1.3311
  290ccc     N1 8390  10.738   2.842   9.682 -0.2242  0.0939 -0.1289
  290ccc     C4 8391  10.721   2.899   9.546 -0.2056  0.1651 -0.5303
  290ccc     H7 8392  10.770   2.839   9.469 -1.4924 -0.1775 -1.1189
  290ccc     H8 8393  10.766   2.998   9.544  0.3988 -0.1197 -1.9960
  290ccc     C5 8394  10.570   2.906   9.510  0.3143 -0.1077  0.4818
  290ccc     H9 8395  10.531   2.805   9.494  0.4482 -0.2231  0.8679
  290ccc    H10 8396  10.506   2.944   9.590 -2.0427 -1.1804 -0.7864
  290ccc     C6 8397  10.541   2.981   9.383  0.3093 -0.3638 -0.4837
  290ccc     O2 8398  10.630   3.042   9.331 -0.6060 -0.1399 -0.1284
  290ccc     O3 8399  10.430   3.005   9.350  0.4387  0.1552  0.7693
  290ccc     C7 8400  10.877   2.859   9.733  0.8379 -0.3194  0.1853
  290ccc    H11 8401  10.892   2.779   9.807 -2.2296  0.1623  1.5039
  290ccc    H12 8402  10.946   2.833   9.652 -0.4477 -2.4158 -0.3167
  290ccc     C8 8403  10.903   2.995   9.791 -0.3627 -0.7271 -0.4240
  290ccc    H13 8404  11.002   3.001   9.837 -0.0747  2.0726 -1.2283
  290ccc    H14 8405  10.909   3.076   9.717  2.5764  0.1704  0.6587
  290ccc     C9 8406  10.807   3.033   9.898  0.5162 -0.1145  0.4981
  290ccc     O4 8407  10.728   3.125   9.885 -1.0595  0.6495 -0.1753
  290ccc     O5 8408  10.811   2.988  10.012 -0.2742  0.2757  0.0465
  290ccc     O1 8409  10.523   2.465   9.601 -0.7521 -0.2818  0.1841
  291ccc     C3 8410   7.555   1.938   8.625 -0.5147  0.4671  0.2256
  291ccc     H5 8411   7.450   1.916   8.649 -0.1091 -0.9400  0.7940
  291ccc     H6 8412   7.589   1.988   8.717 -2.5422 -0.4106  1.5176
  291ccc     C2 8413   7.576   2.035   8.511 -0.3551 -0.7180 -0.4423
  291ccc     H3 8414   7.675   2.080   8.511  0.0824 -1.6510 -0.8783
  291ccc     H4 8415   7.521   2.129   8.522  2.6584  1.5489 -3.1071
  291ccc     C1 8416   7.541   1.970   8.375 -0.6485  0.0831  0.1521
  291ccc     H1 8417   7.444   1.918   8.383 -0.6330 -0.0078 -0.2450
  291ccc     H2 8418   7.609   1.888   8.351  0.1974  0.7553  0.2273
  291ccc     N1 8419   7.528   2.066   8.262  0.0731  0.1940  0.0037
  291ccc     C4 8420   7.651   2.137   8.221  0.3568 -0.7697 -0.1183
  291ccc     H7 8421   7.674   2.205   8.304  1.5888 -2.3157  0.8546
  291ccc     H8 8422   7.629   2.184   8.124  0.7596 -2.3892 -1.0356
  291ccc     C5 8423   7.768   2.039   8.196  0.0905 -0.5889  0.4472
  291ccc     H9 8424   7.803   2.001   8.293  2.9947 -0.1678 -0.3401
  291ccc    H10 8425   7.743   1.958   8.127  0.4484 -0.9299  0.7118
  291ccc     C6 8426   7.891   2.113   8.144 -0.0991  0.1809 -0.3860
  291ccc     O2 8427   7.978   2.164   8.211 -0.4888 -0.5124 -0.8883
  291ccc     O3 8428   7.910   2.129   8.025  0.1794  0.5201 -0.0315
  291ccc     C7 8429   7.398   2.143   8.260  0.2276  0.1253  0.1932
  291ccc    H11 8430   7.334   2.127   8.348 -1.9176  0.5901 -1.2165
  291ccc    H12 8431   7.407   2.252   8.252 -0.3346  0.3694  2.2392
  291ccc     C8 8432   7.322   2.113   8.131  0.2531  0.3624 -0.1025
  291ccc    H13 8433   7.389   2.133   8.046 -1.7738 -1.5310 -2.2795
  291ccc    H14 8434   7.288   2.009   8.132 -0.3418  0.5246  2.5589
  291ccc     C9 8435   7.198   2.187   8.119 -0.8619 -0.9347 -0.7835
  291ccc     O4 8436   7.188   2.284   8.047  0.1574  0.0162 -0.6929
  291ccc     O5 8437   7.100   2.153   8.175  0.4696  0.0713  0.2772
  291ccc     O1 8438   7.625   1.817   8.603  0.4727 -0.6009  0.1888
  292ccc     C3 8439   8.156   1.601   7.926 -0.2286 -0.0204 -0.3221
  292ccc     H5 8440   8.061   1.591   7.873 -0.7014 -0.1576  0.5376
  292ccc     H6 8441   8.219   1.677   7.878 -0.9233  0.3745 -0.6326
  292ccc     C2 8442   8.238   1.468   7.916  0.7160  0.4761  0.9095
  292ccc     H3 8443   8.170   1.387   7.945  0.6608 -0.0939 -0.6948
  292ccc     H4 8444   8.330   1.454   7.974  1.6715 -2.8308 -1.0930
  292ccc     C1 8445   8.257   1.428   7.765 -0.4023  0.1682 -0.4125
  292ccc     H1 8446   8.344   1.487   7.732 -0.5267  1.0264  0.7368
  292ccc     H2 8447   8.167   1.465   7.714 -1.2556  1.0073  1.6129
  292ccc     N1 8448   8.293   1.287   7.735  0.6701 -0.4596 -1.3390
  292ccc     C4 8449   8.409   1.238   7.813 -0.2437 -0.1378  0.3031
  292ccc     H7 8450   8.425   1.131   7.795  0.9466  0.0266  0.3299
  292ccc     H8 8451   8.394   1.244   7.921  0.0413 -2.0305  0.4820
  292ccc     C5 8452   8.539   1.309   7.770 -0.5097  0.1439  0.3388
  292ccc     H9 8453   8.525   1.317   7.661 -1.5874  0.3306  0.4831
  292ccc    H10 8454   8.534   1.409   7.814 -2.6701  0.8667 -1.3325
  292ccc     C6 8455   8.665   1.231   7.804  0.5359 -0.0797 -0.4904
  292ccc     O2 8456   8.722   1.260   7.908  0.1777 -0.7502 -0.1965
  292ccc     O3 8457   8.738   1.204   7.712  0.0765  0.1522 -0.4099
  292ccc     C7 8458   8.171   1.205   7.748  0.0860  1.0181 -0.4677
  292ccc    H11 8459   8.129   1.190   7.848  0.8688 -0.8763 -0.3712
  292ccc    H12 8460   8.096   1.240   7.677  0.3816  0.3908 -1.1128
  292ccc     C8 8461   8.201   1.071   7.692  0.6431 -0.1777 -0.1634
  292ccc    H13 8462   8.270   1.070   7.606  0.3424  0.5239 -0.4219
  292ccc    H14 8463   8.240   1.006   7.771 -0.6469 -0.0744  0.5761
  292ccc     C9 8464   8.076   0.996   7.666 -0.0653 -0.3261 -0.7309
  292ccc     O4 8465   8.049   0.903   7.738  0.0294  0.0567 -0.3055
  292ccc     O5 8466   8.024   0.996   7.555 -0.3648 -0.4691 -0.5318
  292ccc     O1 8467   8.146   1.637   8.066 -0.4933  0.6794  0.2508
  293ccc     C3 8468   8.853   2.656   8.416  0.2919  0.4046  0.0253
  293ccc     H5 8469   8.828   2.564   8.470 -0.0289  1.1269  1.1238
  293ccc     H6 8470   8.886   2.721   8.498  0.1826 -1.3703  1.5542
  293ccc     C2 8471   8.736   2.715   8.347  0.4064 -0.2734  0.2665
  293ccc     H3 8472   8.780   2.788   8.277 -1.7333  3.0192  2.0891
  293ccc     H4 8473   8.668   2.769   8.414 -0.2178  1.0071 -1.3178
  293ccc     C1 8474   8.649   2.615   8.262 -0.4469  0.2143 -0.3312
  293ccc     H1 8475   8.628   2.534   8.333  2.2288 -0.2383  0.0571
  293ccc     H2 8476   8.709   2.558   8.190  0.3012 -0.9492  1.1619
  293ccc     N1 8477   8.529   2.671   8.206 -0.0556  0.2777 -0.4192
  293ccc     C4 8478   8.568   2.755   8.095 -0.2090  0.4113  0.3667
  293ccc     H7 8479   8.601   2.689   8.014 -1.6513 -1.1075  0.9618
  293ccc     H8 8480   8.649   2.822   8.127  0.6933 -0.6847  0.4568
  293ccc     C5 8481   8.454   2.851   8.057 -0.2730 -0.5987  0.3244
  293ccc     H9 8482   8.358   2.799   8.048 -0.5236  0.1800 -2.0076
  293ccc    H10 8483   8.433   2.922   8.139  0.0627  0.4792 -0.4979
  293ccc     C6 8484   8.469   2.929   7.935 -0.1601  1.2054  0.2371
  293ccc     O2 8485   8.556   3.015   7.924 -0.2756 -0.1900  0.3515
  293ccc     O3 8486   8.422   2.878   7.831 -0.2484  0.3454 -0.7284
  293ccc     C7 8487   8.447   2.558   8.160  0.3051  0.0422  0.0723
  293ccc    H11 8488   8.361   2.587   8.099 -0.1845 -1.9440 -0.2436
  293ccc    H12 8489   8.503   2.489   8.096 -1.6116 -2.3985  0.8791
  293ccc     C8 8490   8.391   2.476   8.274  0.1983  0.0685 -0.1728
  293ccc    H13 8491   8.469   2.405   8.302  0.0742  0.7293  2.0027
  293ccc    H14 8492   8.374   2.537   8.363 -1.9792 -0.7657  0.0501
  293ccc     C9 8493   8.261   2.403   8.237 -0.3424 -0.3289 -0.1079
  293ccc     O4 8494   8.161   2.405   8.307  0.4492 -0.1962  0.1845
  293ccc     O5 8495   8.267   2.311   8.159  0.0396  0.7115 -0.0352
  293ccc     O1 8496   8.962   2.645   8.321  0.0232  0.8359  0.1567
  294ccc     C3 8497   9.819   2.231   8.193  0.5882 -0.2172  0.1626
  294ccc     H5 8498   9.889   2.255   8.274  1.5209  0.1542 -0.7355
  294ccc     H6 8499   9.803   2.125   8.171  1.1937 -0.1799 -0.4742
  294ccc     C2 8500   9.884   2.305   8.075  0.0829  0.3874  0.1704
  294ccc     H3 8501   9.798   2.326   8.010 -2.0867 -1.7620  2.1332
  294ccc     H4 8502   9.950   2.238   8.019  1.0571  1.4928 -0.0238
  294ccc     C1 8503   9.964   2.433   8.114  0.5107 -0.5168 -0.1685
  294ccc     H1 8504  10.045   2.409   8.183 -0.2884 -1.1110  0.5924
  294ccc     H2 8505   9.888   2.486   8.173 -0.8201 -0.8390 -1.5027
  294ccc     N1 8506  10.000   2.527   8.001 -0.7022  0.1546  0.0830
  294ccc     C4 8507  10.052   2.654   8.059 -0.1468 -0.4556  0.7251
  294ccc     H7 8508  10.093   2.721   7.982 -0.2447  1.7517  2.4962
  294ccc     H8 8509  10.129   2.628   8.132  2.2264  0.3126 -1.3615
  294ccc     C5 8510   9.946   2.739   8.123 -0.4087  0.4411 -0.2618
  294ccc     H9 8511   9.863   2.754   8.052 -1.0867 -1.3486  0.1043
  294ccc    H10 8512   9.913   2.689   8.214  0.3363 -0.6330 -0.5672
  294ccc     C6 8513  10.001   2.882   8.152  0.0765  0.3156 -0.0760
  294ccc     O2 8514  10.020   2.968   8.067  0.1082  0.0433 -0.3616
  294ccc     O3 8515  10.051   2.904   8.261  0.1674 -0.3831  0.8175
  294ccc     C7 8516  10.091   2.465   7.907  0.0618  0.2963  0.2641
  294ccc    H11 8517  10.179   2.415   7.951 -0.4025  0.2668  1.1808
  294ccc    H12 8518  10.036   2.379   7.868 -0.5106 -0.0740  1.8128
  294ccc     C8 8519  10.149   2.548   7.786  0.2548 -0.2397 -0.1858
  294ccc    H13 8520  10.071   2.606   7.736 -0.2954  0.2500  1.1943
  294ccc    H14 8521  10.224   2.620   7.823  0.5918 -0.9526  0.5677
  294ccc     C9 8522  10.215   2.465   7.683  0.2482  0.2782  0.0091
  294ccc     O4 8523  10.331   2.490   7.661 -0.2278  0.1218  0.1511
  294ccc     O5 8524  10.150   2.422   7.590 -0.0268  0.4739  0.1089
  294ccc     O1 8525   9.696   2.297   8.224  1.0658  0.6299  0.5327
  295ccc     C3 8526   8.444   3.946   9.546 -0.1784  0.3793 -0.8978
  295ccc     H5 8527   8.368   3.878   9.586 -1.1222  1.2261 -1.2135
  295ccc     H6 8528   8.466   4.028   9.616  0.0979 -0.1817 -0.3131
  295ccc     C2 8529   8.389   3.992   9.409 -0.2997  0.5914  0.2716
  295ccc     H3 8530   8.284   4.020   9.426 -0.7662 -0.9533  0.0412
  295ccc     H4 8531   8.375   3.905   9.344  2.5480 -0.5631  1.0451
  295ccc     C1 8532   8.479   4.094   9.336 -0.3215 -0.1479  0.3431
  295ccc     H1 8533   8.576   4.046   9.319 -0.5268 -0.1546 -0.8853
  295ccc     H2 8534   8.501   4.175   9.406  2.9680  1.1604 -1.9617
  295ccc     N1 8535   8.418   4.145   9.213 -0.0124  0.0610 -0.1574
  295ccc     C4 8536   8.305   4.235   9.246 -0.5227 -0.5798  0.1593
  295ccc     H7 8537   8.348   4.323   9.296  0.8452 -2.2960  2.1537
  295ccc     H8 8538   8.238   4.175   9.308 -0.1222 -0.6818  0.5020
  295ccc     C5 8539   8.222   4.276   9.122  0.4907  0.3023 -0.3834
  295ccc     H9 8540   8.273   4.282   9.025 -2.0066 -2.2842 -2.0109
  295ccc    H10 8541   8.146   4.201   9.099  1.8507 -1.2481 -0.0295
  295ccc     C6 8542   8.159   4.409   9.153  0.1659 -0.1010  0.1384
  295ccc     O2 8543   8.037   4.420   9.167 -0.1844 -0.1642 -0.3600
  295ccc     O3 8544   8.233   4.507   9.146  0.3519 -0.4692  0.0778
  295ccc     C7 8545   8.519   4.217   9.137 -0.0875  0.4891  0.1908
  295ccc    H11 8546   8.491   4.321   9.116  2.7796  1.2694 -0.1286
  295ccc    H12 8547   8.612   4.236   9.192 -0.5241 -1.0562  1.5569
  295ccc     C8 8548   8.553   4.141   9.009  0.3799 -0.0659 -0.0109
  295ccc    H13 8549   8.566   4.034   9.030  1.1552 -0.3078 -1.5783
  295ccc    H14 8550   8.477   4.157   8.932 -0.6132  2.8675  1.4355
  295ccc     C9 8551   8.676   4.201   8.948  0.4833 -0.0873 -0.8967
  295ccc     O4 8552   8.748   4.130   8.880 -0.1271  0.6698  0.4286
  295ccc     O5 8553   8.663   4.321   8.910  0.1707  0.2329  0.0669
  295ccc     O1 8554   8.566   3.870   9.521  0.4556 -0.1383 -0.2372
  296ccc     C3 8555   9.275   3.417   9.235  0.1700  0.0127 -0.2375
  296ccc     H5 8556   9.231   3.365   9.148  0.6141 -1.0251  0.1428
  296ccc     H6 8557   9.303   3.522   9.218 -1.0877  0.4230  0.1586
  296ccc     C2 8558   9.405   3.331   9.250  0.3673 -0.2483  0.8306
  296ccc     H3 8559   9.459   3.375   9.335  0.7725  0.7562  0.0835
  296ccc     H4 8560   9.467   3.342   9.161 -0.9314 -1.6633 -0.2949
  296ccc     C1 8561   9.374   3.176   9.272  0.0848  0.7449  0.0430
  296ccc     H1 8562   9.318   3.136   9.186  1.3947 -2.1382  0.4195
  296ccc     H2 8563   9.309   3.172   9.360 -0.8628  0.5032 -0.6491
  296ccc     N1 8564   9.490   3.099   9.303  0.1892 -0.3059  0.3438
  296ccc     C4 8565   9.480   3.025   9.433  1.0442 -0.1274 -0.0599
  296ccc     H7 8566   9.564   2.955   9.429 -0.7146 -2.4095  0.6444
  296ccc     H8 8567   9.383   2.975   9.446  1.4463 -0.5269  1.5672
  296ccc     C5 8568   9.491   3.129   9.546 -0.0673  0.3725  0.4331
  296ccc     H9 8569   9.580   3.192   9.531  0.6628 -0.7215  0.0781
  296ccc    H10 8570   9.403   3.194   9.556 -1.5777 -0.8578 -3.1326
  296ccc     C6 8571   9.500   3.046   9.671  0.0591 -0.9785  0.7680
  296ccc     O2 8572   9.399   3.029   9.735  0.3000  0.3180 -0.1719
  296ccc     O3 8573   9.605   3.017   9.715 -0.1340  0.1056  0.1600
  296ccc     C7 8574   9.555   3.036   9.192  0.0079  0.9459 -0.2975
  296ccc    H11 8575   9.630   2.965   9.231 -0.3570 -0.3298 -1.8013
  296ccc    H12 8576   9.476   2.980   9.142 -1.8097  3.2145 -0.1167
  296ccc     C8 8577   9.623   3.134   9.099 -0.3010 -0.4093 -0.2493
  296ccc    H13 8578   9.556   3.194   9.036  2.2212  1.7546 -1.0751
  296ccc    H14 8579   9.695   3.195   9.155 -1.5040 -1.1284  2.1910
  296ccc     C9 8580   9.718   3.067   9.004 -0.1078 -0.3055  0.3502
  296ccc     O4 8581   9.680   2.975   8.938  0.4307  0.6059 -0.5289
  296ccc     O5 8582   9.804   3.134   8.946  0.6313  0.6164 -0.1945
  296ccc     O1 8583   9.193   3.402   9.348  0.1055  0.0039 -0.2065
  297ccc     C3 8584   7.714   3.141  10.728 -0.1663 -0.7446 -0.7256
  297ccc     H5 8585   7.707   3.090  10.826 -0.1110  2.8655  1.3216
  297ccc     H6 8586   7.750   3.240  10.755 -0.9219 -0.8328  0.7269
  297ccc     C2 8587   7.578   3.131  10.650 -0.3831  0.3014 -0.3395
  297ccc     H3 8588   7.510   3.176  10.723  0.5915  3.4219 -1.1715
  297ccc     H4 8589   7.546   3.026  10.647  1.3612 -0.2586 -0.5773
  297ccc     C1 8590   7.570   3.196  10.515  0.0479  0.3767 -0.0464
  297ccc     H1 8591   7.653   3.165  10.450 -0.1052  0.4786 -0.2941
  297ccc     H2 8592   7.600   3.299  10.541  0.8628  0.0287  0.4506
  297ccc     N1 8593   7.440   3.190  10.448  0.0362 -0.2576 -0.3053
  297ccc     C4 8594   7.349   3.283  10.521 -0.0691 -0.8183 -0.0305
  297ccc     H7 8595   7.382   3.386  10.501 -0.5078 -0.8141 -0.7673
  297ccc     H8 8596   7.343   3.275  10.630 -3.2387  0.1843 -0.0348
  297ccc     C5 8597   7.215   3.274  10.474  0.7682 -0.4617  0.0626
  297ccc     H9 8598   7.187   3.178  10.428  0.4118 -0.6378  0.6393
  297ccc    H10 8599   7.147   3.288  10.559  0.6592  1.7932 -0.3527
  297ccc     C6 8600   7.170   3.379  10.375 -0.3632  0.3044 -0.0500
  297ccc     O2 8601   7.160   3.347  10.257  0.0052  0.0649  0.4435
  297ccc     O3 8602   7.123   3.489  10.409  0.1407  0.6302  0.5306
  297ccc     C7 8603   7.460   3.219  10.304 -0.9838  0.0287 -0.1423
  297ccc    H11 8604   7.363   3.239  10.256 -0.7983 -0.6841 -0.8498
  297ccc    H12 8605   7.537   3.296  10.295  1.2301 -1.9781  0.5473
  297ccc     C8 8606   7.520   3.095  10.231  0.4726 -0.5078  0.3288
  297ccc    H13 8607   7.542   3.142  10.134 -0.7759  1.3718  0.9019
  297ccc    H14 8608   7.600   3.045  10.286  1.8734  1.0658 -0.1784
  297ccc     C9 8609   7.416   2.994  10.201  0.0932 -0.0827 -0.2065
  297ccc     O4 8610   7.444   2.877  10.211 -0.0797 -0.2154 -0.0193
  297ccc     O5 8611   7.320   3.024  10.136  0.6465  0.1564  0.9484
  297ccc     O1 8612   7.812   3.066  10.658 -0.6396 -0.2010  0.2001
  298ccc     C3 8613   8.179   3.557  10.618 -0.9113  0.2918  0.6758
  298ccc     H5 8614   8.261   3.602  10.562 -1.2880 -0.2187 -0.3121
  298ccc     H6 8615   8.101   3.631  10.641 -0.1813  0.5346  2.5064
  298ccc     C2 8616   8.234   3.490  10.747  0.5306 -0.4891 -0.3067
  298ccc     H3 8617   8.305   3.407  10.731 -1.6127 -2.8363  1.4628
  298ccc     H4 8618   8.150   3.428  10.780 -0.2994  0.7429 -0.0374
  298ccc     C1 8619   8.263   3.606  10.854 -0.0898  0.2779 -0.0341
  298ccc     H1 8620   8.269   3.563  10.955  0.5940  0.9448  0.2205
  298ccc     H2 8621   8.177   3.674  10.848  1.5871  2.4177 -2.0199
  298ccc     N1 8622   8.390   3.676  10.832 -0.2787 -0.0115  0.9935
  298ccc     C4 8623   8.394   3.794  10.909  0.0893 -0.3227 -0.1899
  298ccc     H7 8624   8.398   3.764  11.014  2.8983  1.7721  0.4288
  298ccc     H8 8625   8.303   3.854  10.899  0.6958  0.9171  1.2818
  298ccc     C5 8626   8.515   3.880  10.876  0.5723  0.1993 -0.2155
  298ccc     H9 8627   8.611   3.839  10.909 -0.3045 -1.8774 -0.0907
  298ccc    H10 8628   8.511   3.902  10.769 -1.2468 -0.2821 -0.2850
  298ccc     C6 8629   8.511   4.013  10.942  0.8208  0.2081 -0.4152
  298ccc     O2 8630   8.506   4.016  11.061 -0.4069 -0.4430 -0.6538
  298ccc     O3 8631   8.520   4.118  10.876  0.2215  0.0246  0.2471
  298ccc     C7 8632   8.503   3.592  10.855 -0.5195 -0.4563 -0.8836
  298ccc    H11 8633   8.572   3.627  10.933 -0.8998 -0.4183 -0.5625
  298ccc    H12 8634   8.463   3.496  10.890 -2.1469  1.1698  2.0745
  298ccc     C8 8635   8.584   3.562  10.725  0.1205 -0.0803 -0.4799
  298ccc    H13 8636   8.512   3.530  10.648 -2.4394  2.5852  0.5842
  298ccc    H14 8637   8.639   3.650  10.689 -0.2190 -0.8332 -3.0977
  298ccc     C9 8638   8.687   3.457  10.753 -0.6858 -0.3472  0.1844
  298ccc     O4 8639   8.768   3.483  10.839  0.4950  0.8218 -0.4370
  298ccc     O5 8640   8.724   3.383  10.661 -0.2643  0.3611  0.2063
  298ccc     O1 8641   8.128   3.458  10.522 -0.4656 -0.2756  0.1720
  299ccc     C3 8642   8.500   1.706   9.437  0.8437 -0.2687  0.3738
  299ccc     H5 8643   8.494   1.597   9.427  1.6796 -0.1665 -2.0024
  299ccc     H6 8644   8.598   1.730   9.392  0.9025  0.6461  0.9739
  299ccc     C2 8645   8.489   1.753   9.583  0.5807 -0.1199  0.3287
  299ccc     H3 8646   8.382   1.768   9.606  0.2476 -2.0747  0.1886
  299ccc     H4 8647   8.541   1.847   9.606 -0.7536  1.3446 -2.2125
  299ccc     C1 8648   8.553   1.645   9.676 -0.3081  0.2640 -0.5340
  299ccc     H1 8649   8.487   1.561   9.652 -1.0035  0.0605  1.8304
  299ccc     H2 8650   8.540   1.671   9.782 -0.7936 -0.0837 -0.5042
  299ccc     N1 8651   8.683   1.604   9.635  0.5302 -0.6467  0.2108
  299ccc     C4 8652   8.722   1.472   9.688  0.6236 -0.2986 -0.3720
  299ccc     H7 8653   8.698   1.470   9.794  0.2190 -0.0775 -0.4570
  299ccc     H8 8654   8.830   1.455   9.679  1.5425  3.1768  2.0255
  299ccc     C5 8655   8.644   1.361   9.621  0.5405 -0.2221  0.2918
  299ccc     H9 8656   8.668   1.374   9.514 -0.0156 -0.0180  0.1927
  299ccc    H10 8657   8.537   1.374   9.640 -0.0141  1.3903 -3.1614
  299ccc     C6 8658   8.707   1.234   9.654 -0.0141 -0.4592  0.2883
  299ccc     O2 8659   8.658   1.175   9.748  0.3525 -0.4530  0.1415
  299ccc     O3 8660   8.815   1.198   9.609 -0.4549 -0.2253 -0.0684
  299ccc     C7 8661   8.790   1.703   9.659 -0.5251  0.1924  0.3017
  299ccc    H11 8662   8.883   1.655   9.628 -0.3056 -1.2191  2.8588
  299ccc    H12 8663   8.778   1.792   9.597  1.5348 -0.8606 -1.7710
  299ccc     C8 8664   8.820   1.745   9.805 -0.4838  0.9327  0.5515
  299ccc    H13 8665   8.744   1.813   9.846 -0.8639  0.4775  0.6064
  299ccc    H14 8666   8.828   1.665   9.879  0.5676 -0.2538 -0.7879
  299ccc     C9 8667   8.950   1.809   9.801 -0.2839  0.1448  0.2606
  299ccc     O4 8668   9.047   1.747   9.771 -0.4713  0.7372 -0.3503
  299ccc     O5 8669   8.961   1.920   9.849 -0.3200  0.3406 -0.2692
  299ccc     O1 8670   8.392   1.771   9.362 -0.4746 -0.6895 -0.0667
  300ccc     C3 8671   8.425   1.350   8.530 -0.2293 -0.3403 -0.5732
  300ccc     H5 8672   8.374   1.255   8.554 -0.9040  0.9075  3.8323
  300ccc     H6 8673   8.334   1.411   8.534  0.5233  0.8219 -0.9178
  300ccc     C2 8674   8.483   1.347   8.389 -0.4027 -0.1749 -0.3773
  300ccc     H3 8675   8.575   1.286   8.394 -1.9020 -2.4605  0.8549
  300ccc     H4 8676   8.510   1.446   8.350 -0.2162 -0.4375 -0.9267
  300ccc     C1 8677   8.370   1.303   8.283 -0.2122 -0.5974  0.1640
  300ccc     H1 8678   8.412   1.311   8.182 -0.0550  0.4517  0.3092
  300ccc     H2 8679   8.274   1.355   8.292 -0.1312 -0.3679 -0.2739
  300ccc     N1 8680   8.339   1.157   8.286 -0.1887 -0.3252 -0.7514
  300ccc     C4 8681   8.218   1.128   8.208 -0.1490  0.2663  0.0594
  300ccc     H7 8682   8.250   1.105   8.106  0.0489  2.9159 -0.5506
  300ccc     H8 8683   8.150   1.214   8.205  1.9274  2.0486  1.0009
  300ccc     C5 8684   8.148   1.003   8.251 -0.2112  0.1881  0.1468
  300ccc     H9 8685   8.206   0.918   8.287 -1.0411  0.5640  2.5735
  300ccc    H10 8686   8.090   1.028   8.341 -1.6426  1.2441 -1.0039
  300ccc     C6 8687   8.068   0.945   8.145  0.8772  0.0590 -0.7565
  300ccc     O2 8688   7.965   1.005   8.109 -0.7224 -0.1555  0.2132
  300ccc     O3 8689   8.101   0.848   8.079  0.1067 -0.4163  0.1777
  300ccc     C7 8690   8.449   1.062   8.253  0.6503 -0.0465  0.1577
  300ccc    H11 8691   8.536   1.079   8.319 -0.3977 -0.4569  1.6938
  300ccc    H12 8692   8.413   0.965   8.288 -0.5361  0.5146  0.5170
  300ccc     C8 8693   8.508   1.063   8.114 -0.2214  0.5175 -0.2257
  300ccc    H13 8694   8.433   1.020   8.046  1.0733  1.8554 -2.6413
  300ccc    H14 8695   8.551   1.160   8.086  1.2664  0.2199  0.9189
  300ccc     C9 8696   8.624   0.962   8.111 -0.1563  0.6810 -0.1414
  300ccc     O4 8697   8.607   0.850   8.162 -0.4137 -0.3442  0.5992
  300ccc     O5 8698   8.739   0.991   8.071  0.3496  0.2048 -0.6302
  300ccc     O1 8699   8.520   1.385   8.627 -0.0432 -0.6338  0.1566
  301ccc     C3 8700   7.008   1.917   9.658  0.1633  0.6828 -0.1171
  301ccc     H5 8701   6.926   1.857   9.616  0.7124 -0.0612 -0.1464
  301ccc     H6 8702   7.059   1.848   9.726 -1.3449 -0.0347  0.3345
  301ccc     C2 8703   6.951   2.034   9.747 -0.4051  0.1871 -0.3865
  301ccc     H3 8704   7.040   2.076   9.795 -0.0477 -0.8507 -0.1192
  301ccc     H4 8705   6.882   2.004   9.827  0.6696  1.7366  1.1939
  301ccc     C1 8706   6.893   2.156   9.670 -0.5493  0.6068 -0.4307
  301ccc     H1 8707   6.812   2.121   9.605 -1.8735  0.5181  1.1933
  301ccc     H2 8708   6.980   2.182   9.608  1.9067 -2.0487  1.6376
  301ccc     N1 8709   6.844   2.267   9.757  0.5388 -0.5087  0.0672
  301ccc     C4 8710   6.951   2.332   9.831 -0.1911  0.5772 -0.0382
  301ccc     H7 8711   6.974   2.269   9.917  0.2388 -0.5202 -0.9257
  301ccc     H8 8712   6.897   2.417   9.874 -2.1747 -0.4973 -0.3108
  301ccc     C5 8713   7.072   2.382   9.756 -0.1829 -0.1927 -0.0586
  301ccc     H9 8714   7.150   2.305   9.755 -0.2247 -0.2955 -2.6909
  301ccc    H10 8715   7.055   2.402   9.649  2.1074  2.0268 -0.0955
  301ccc     C6 8716   7.147   2.499   9.813  0.4293  0.0650 -0.1269
  301ccc     O2 8717   7.245   2.477   9.886  0.2328 -0.0195  0.6294
  301ccc     O3 8718   7.137   2.613   9.760  0.0359  0.1644  0.0293
  301ccc     C7 8719   6.721   2.245   9.834  0.0352 -0.1404  0.6227
  301ccc    H11 8720   6.640   2.226   9.761 -1.8155  3.6483  1.4556
  301ccc    H12 8721   6.728   2.158   9.900  0.1023  0.4734  1.4408
  301ccc     C8 8722   6.676   2.354   9.934 -0.2941  0.8832 -0.2562
  301ccc    H13 8723   6.726   2.334  10.029 -1.2817 -0.8189 -0.0541
  301ccc    H14 8724   6.697   2.456   9.901 -0.8633  1.2985  0.6162
  301ccc     C9 8725   6.527   2.334   9.954 -0.0518 -0.1851  0.5132
  301ccc     O4 8726   6.494   2.227   9.993  0.4301 -0.3307 -0.1408
  301ccc     O5 8727   6.456   2.390   9.870  0.1475  0.3546  0.5834
  301ccc     O1 8728   7.105   1.966   9.558 -0.5523  0.6608 -0.0796
  302ccc     C3 8729   7.141   2.673   9.113 -0.4876  0.0843  0.2647
  302ccc     H5 8730   7.205   2.741   9.170 -0.9510 -0.6287  1.6640
  302ccc     H6 8731   7.178   2.707   9.015  0.5673  1.3787  1.0715
  302ccc     C2 8732   6.995   2.704   9.137 -0.4114 -0.4199  0.5302
  302ccc     H3 8733   6.940   2.664   9.051 -0.4154  0.7645 -0.0463
  302ccc     H4 8734   6.981   2.813   9.139  1.7559 -0.0455 -1.2077
  302ccc     C1 8735   6.946   2.646   9.272  0.5076 -0.3366  0.1456
  302ccc     H1 8736   7.015   2.681   9.349 -0.6477  1.1539  0.5445
  302ccc     H2 8737   6.966   2.538   9.262  0.3560 -0.2027 -2.2668
  302ccc     N1 8738   6.813   2.684   9.305  0.2122  0.4358  0.7359
  302ccc     C4 8739   6.806   2.755   9.433 -0.7077 -0.6489 -0.0509
  302ccc     H7 8740   6.859   2.683   9.497  0.9028 -1.5567 -2.2553
  302ccc     H8 8741   6.702   2.768   9.465  0.0117  0.2273  2.0755
  302ccc     C5 8742   6.860   2.893   9.426  0.3242 -0.6379  0.6876
  302ccc     H9 8743   6.956   2.901   9.374 -0.0910 -0.6192 -0.0982
  302ccc    H10 8744   6.790   2.958   9.371  1.4901 -1.3192 -1.7503
  302ccc     C6 8745   6.873   2.943   9.567  0.6961 -0.0883  0.2518
  302ccc     O2 8746   6.971   2.916   9.631 -0.4643  0.7978 -0.0382
  302ccc     O3 8747   6.772   2.981   9.631  0.0831 -0.3670 -0.3028
  302ccc     C7 8748   6.720   2.573   9.292 -0.0598 -0.0766 -0.2484
  302ccc    H11 8749   6.620   2.618   9.298 -0.2282 -0.5434  0.7212
  302ccc    H12 8750   6.726   2.523   9.195 -0.3524 -0.4156 -0.0936
  302ccc     C8 8751   6.728   2.471   9.405  0.2823  0.6634  0.3080
  302ccc    H13 8752   6.723   2.372   9.360  2.0939  0.0088  1.4204
  302ccc    H14 8753   6.814   2.482   9.473 -1.7901  0.6362  3.1475
  302ccc     C9 8754   6.606   2.469   9.488  0.1473  0.0833 -0.3815
  302ccc     O4 8755   6.608   2.539   9.591 -0.3168  0.4054 -0.2684
  302ccc     O5 8756   6.508   2.398   9.469 -0.4905  0.0297 -0.4345
  302ccc     O1 8757   7.170   2.535   9.123  0.7471  0.4934  0.2195
  303ccc     C3 8758   9.921   6.221   9.084  0.2516 -0.5825 -0.2216
  303ccc     H5 8759   9.973   6.237   9.179 -0.2636 -3.4620  0.6439
  303ccc     H6 8760   9.998   6.224   9.006  0.1046 -1.7705 -0.4364
  303ccc     C2 8761   9.813   6.326   9.048  0.0527  0.0040  0.4237
  303ccc     H3 8762   9.780   6.301   8.946 -0.1244 -0.9897  0.7140
  303ccc     H4 8763   9.862   6.425   9.050  2.5363 -1.1410  0.1844
  303ccc     C1 8764   9.701   6.333   9.154  0.1696 -0.4361  0.2450
  303ccc     H1 8765   9.757   6.353   9.246  3.3377 -1.0949 -1.3890
  303ccc     H2 8766   9.660   6.231   9.158  0.1172 -0.3827  1.3425
  303ccc     N1 8767   9.588   6.427   9.127  0.1740 -0.1164 -0.2312
  303ccc     C4 8768   9.518   6.448   9.249 -0.0665  0.3412 -0.1249
  303ccc     H7 8769   9.503   6.352   9.300 -0.4226  1.3673  1.8079
  303ccc     H8 8770   9.420   6.494   9.229 -1.2876 -2.9181 -2.4231
  303ccc     C5 8771   9.595   6.546   9.335 -0.2422  0.7778  0.5085
  303ccc     H9 8772   9.697   6.510   9.356 -0.7097 -0.3214  0.9983
  303ccc    H10 8773   9.600   6.642   9.283 -0.1486  0.6698  0.3139
  303ccc     C6 8774   9.528   6.566   9.468 -0.3169  0.4579 -0.0201
  303ccc     O2 8775   9.550   6.483   9.552  0.0821 -0.1400  0.1036
  303ccc     O3 8776   9.438   6.646   9.474  0.1564  0.3574 -0.1657
  303ccc     C7 8777   9.497   6.370   9.024 -0.6465  0.1022  0.3135
  303ccc    H11 8778   9.557   6.334   8.940  1.7765  0.1632  1.9318
  303ccc    H12 8779   9.448   6.284   9.072  0.7628 -1.7911 -1.4838
  303ccc     C8 8780   9.396   6.475   8.970 -0.0231 -0.1767 -0.1823
  303ccc    H13 8781   9.348   6.534   9.049  1.4721  0.9713 -0.0778
  303ccc    H14 8782   9.451   6.554   8.918  0.6752  0.4629  1.4654
  303ccc     C9 8783   9.296   6.417   8.885  0.4438 -0.1143  0.5272
  303ccc     O4 8784   9.215   6.334   8.918 -0.6990 -0.3199  0.0004
  303ccc     O5 8785   9.311   6.423   8.767 -0.7008 -0.5692 -0.6119
  303ccc     O1 8786   9.871   6.083   9.081  0.0406 -0.6614 -0.1083
  304ccc     C3 8787  10.086   5.352   9.190  0.5648  0.1361 -0.2256
  304ccc     H5 8788  10.109   5.265   9.252 -0.6460  0.7211  1.1099
  304ccc     H6 8789   9.996   5.337   9.129 -0.4413  1.2016  0.9278
  304ccc     C2 8790  10.191   5.393   9.088 -0.1841 -0.6519  0.3812
  304ccc     H3 8791  10.195   5.317   9.008 -2.1848  1.2058 -1.6146
  304ccc     H4 8792  10.291   5.397   9.132  1.1827  4.1879 -2.4864
  304ccc     C1 8793  10.147   5.524   9.014  0.0773 -0.0970  0.1292
  304ccc     H1 8794  10.123   5.605   9.083 -2.2824 -1.1690  0.6701
  304ccc     H2 8795  10.051   5.501   8.965  0.7029 -1.0214 -0.6922
  304ccc     N1 8796  10.246   5.565   8.919 -0.1879 -0.6653  0.4617
  304ccc     C4 8797  10.181   5.622   8.803  0.3761  0.0900  0.3315
  304ccc     H7 8798  10.143   5.715   8.847  2.1507  1.0048  0.0209
  304ccc     H8 8799  10.097   5.559   8.774 -1.8060  2.1864  1.7085
  304ccc     C5 8800  10.274   5.657   8.698  0.9729 -0.0463 -0.3874
  304ccc     H9 8801  10.357   5.726   8.718  1.9730 -0.8209 -1.6771
  304ccc    H10 8802  10.319   5.565   8.657  0.2744 -0.7348  0.3746
  304ccc     C6 8803  10.199   5.706   8.576  0.4341  0.2332  0.3259
  304ccc     O2 8804  10.146   5.626   8.500  0.0883 -0.1325 -0.2471
  304ccc     O3 8805  10.198   5.822   8.547  0.2768 -0.1663 -0.0565
  304ccc     C7 8806  10.357   5.641   8.986 -0.4344  0.1698  0.1613
  304ccc    H11 8807  10.399   5.591   9.074 -1.9640  1.1649  1.5289
  304ccc    H12 8808  10.442   5.640   8.917 -0.4542  0.1244  0.1373
  304ccc     C8 8809  10.329   5.789   9.016  0.1492  0.3055 -0.2197
  304ccc    H13 8810  10.287   5.846   8.932 -0.7680  0.6691  0.4719
  304ccc    H14 8811  10.256   5.796   9.097  1.1461 -0.5752  0.7984
  304ccc     C9 8812  10.458   5.849   9.061 -0.5680 -0.0515 -1.1344
  304ccc     O4 8813  10.537   5.893   8.982 -0.5077 -0.8472 -0.4067
  304ccc     O5 8814  10.462   5.875   9.182 -0.0259  0.5080  0.5662
  304ccc     O1 8815  10.048   5.466   9.272  0.6575 -0.4409  0.3212
  305ccc     C3 8816  10.526   5.293   8.883 -0.8768 -0.3353  0.4988
  305ccc     H5 8817  10.559   5.396   8.864  1.7022 -1.1890 -0.0863
  305ccc     H6 8818  10.456   5.290   8.968 -0.0998  0.0680  1.1652
  305ccc     C2 8819  10.655   5.220   8.937  0.3311  0.0948  0.3280
  305ccc     H3 8820  10.735   5.227   8.862  2.1527 -2.5561  1.8283
  305ccc     H4 8821  10.635   5.113   8.951 -2.6323  0.4465 -0.6913
  305ccc     C1 8822  10.710   5.277   9.065 -0.3069 -0.1741 -0.0945
  305ccc     H1 8823  10.734   5.379   9.033 -0.5614 -0.7752 -2.4025
  305ccc     H2 8824  10.797   5.213   9.086 -0.5763 -0.2050  0.9346
  305ccc     N1 8825  10.625   5.278   9.184  0.4129 -0.2462 -0.2823
  305ccc     C4 8826  10.608   5.147   9.251 -0.3357  0.1632  0.2371
  305ccc     H7 8827  10.604   5.159   9.360 -0.9354  0.9645  0.1383
  305ccc     H8 8828  10.692   5.080   9.229 -0.7487  0.2444 -1.8496
  305ccc     C5 8829  10.473   5.087   9.224  0.2163 -0.4858 -0.3139
  305ccc     H9 8830  10.402   5.162   9.260  1.0726 -0.3906  1.2598
  305ccc    H10 8831  10.447   5.077   9.118 -1.1989 -1.2909  0.0827
  305ccc     C6 8832  10.448   4.966   9.298 -0.9890  0.6468 -0.4757
  305ccc     O2 8833  10.458   4.864   9.233 -0.3616 -0.0792  0.4900
  305ccc     O3 8834  10.373   4.965   9.393  0.1743 -0.1817 -0.1286
  305ccc     C7 8835  10.672   5.388   9.274 -0.5456  0.4505  0.3007
  305ccc    H11 8836  10.761   5.344   9.321 -0.1864  0.1932 -0.6019
  305ccc    H12 8837  10.699   5.481   9.223  0.0624  0.1636  0.0938
  305ccc     C8 8838  10.561   5.422   9.375 -0.7122 -0.4685 -0.0195
  305ccc    H13 8839  10.470   5.421   9.315 -0.6447 -1.0132 -0.1178
  305ccc    H14 8840  10.548   5.343   9.451  2.2694  0.4137  1.6137
  305ccc     C9 8841  10.590   5.553   9.446 -0.3450  1.1275 -0.0572
  305ccc     O4 8842  10.549   5.656   9.400 -0.2948 -0.5087 -0.0836
  305ccc     O5 8843  10.658   5.548   9.553 -0.4858  0.2893  0.2668
  305ccc     O1 8844  10.485   5.234   8.766 -0.3066  0.2174 -0.0682
  306ccc     C3 8845  10.632   4.668   8.527 -0.2985  0.2936  0.0196
  306ccc     H5 8846  10.674   4.763   8.493 -1.6343  1.8071  2.2795
  306ccc     H6 8847  10.626   4.680   8.636  2.7023  1.5118  0.1413
  306ccc     C2 8848  10.715   4.539   8.488  0.3053 -0.3475  0.3821
  306ccc     H3 8849  10.719   4.541   8.378  0.9003 -2.4231  0.3090
  306ccc     H4 8850  10.649   4.451   8.493  1.9615 -1.6846 -0.0888
  306ccc     C1 8851  10.857   4.518   8.554  0.2042  0.0229 -0.0345
  306ccc     H1 8852  10.928   4.591   8.515  1.1175 -0.5902  0.4616
  306ccc     H2 8853  10.905   4.427   8.515  2.1750  1.5354 -1.2818
  306ccc     N1 8854  10.856   4.534   8.704  0.1069  0.0072  0.3552
  306ccc     C4 8855  10.761   4.441   8.769 -0.0157 -0.6703  0.7853
  306ccc     H7 8856  10.798   4.345   8.732  0.8450 -0.1946  0.3948
  306ccc     H8 8857  10.657   4.452   8.734  0.5191  0.7456 -0.4514
  306ccc     C5 8858  10.771   4.424   8.921  0.3909 -0.6052 -0.2152
  306ccc     H9 8859  10.869   4.385   8.950  0.4900  0.2561  0.6492
  306ccc    H10 8860  10.748   4.521   8.966 -0.1591 -0.3828 -0.9636
  306ccc     C6 8861  10.667   4.336   8.977 -0.4047  0.3327  0.4484
  306ccc     O2 8862  10.552   4.376   8.980  0.9722  0.2935 -0.2631
  306ccc     O3 8863  10.694   4.237   9.044  0.1821 -0.1931  0.5013
  306ccc     C7 8864  11.001   4.528   8.758 -0.4171 -0.3728  0.1057
  306ccc    H11 8865  11.003   4.517   8.867  0.3374 -3.2198 -0.1222
  306ccc    H12 8866  11.049   4.442   8.710  1.1192  1.6391 -2.1801
  306ccc     C8 8867  11.085   4.657   8.733 -0.3817 -0.6736  0.7743
  306ccc    H13 8868  11.033   4.753   8.724 -0.6954 -0.8015  1.1821
  306ccc    H14 8869  11.159   4.684   8.809 -0.5189 -0.7146  0.9239
  306ccc     C9 8870  11.170   4.637   8.607 -0.2461 -0.4286 -0.6611
  306ccc     O4 8871  11.189   4.718   8.523 -0.0570 -0.9960  0.4300
  306ccc     O5 8872  11.245   4.543   8.613  0.2234  0.0011  0.2932
  306ccc     O1 8873  10.504   4.653   8.468  0.4209  0.0533 -0.4101
  307ccc     C3 8874   9.988   3.441  10.539 -0.1613  0.7631  0.5600
  307ccc     H5 8875   9.934   3.515  10.479  0.2525  0.7622  0.1810
  307ccc     H6 8876  10.094   3.470  10.534 -0.1042  0.5002  0.2200
  307ccc     C2 8877   9.974   3.310  10.466 -0.3855  0.0201  0.4470
  307ccc     H3 8878  10.008   3.230  10.533  2.6611  0.7582 -0.0347
  307ccc     H4 8879  10.041   3.302  10.380  1.0839  0.7695  1.4690
  307ccc     C1 8880   9.828   3.293  10.416 -0.2953  0.9803 -0.1688
  307ccc     H1 8881   9.816   3.349  10.322 -1.1293 -0.4335 -0.9454
  307ccc     H2 8882   9.754   3.330  10.487 -2.0114  1.5392 -2.1490
  307ccc     N1 8883   9.806   3.151  10.395  0.1823  0.2022 -0.2325
  307ccc     C4 8884   9.762   3.095  10.520  0.4250  0.1524 -0.0822
  307ccc     H7 8885   9.655   3.113  10.539  0.5386  1.3966 -0.5102
  307ccc     H8 8886   9.818   3.138  10.604 -0.5062  0.1561  0.5524
  307ccc     C5 8887   9.799   2.950  10.524 -0.1268  0.5776 -0.3897
  307ccc     H9 8888   9.757   2.896  10.438 -0.6367  0.4852 -0.0883
  307ccc    H10 8889   9.907   2.929  10.530 -0.3753 -0.9710 -0.8688
  307ccc     C6 8890   9.736   2.888  10.646 -0.1248 -0.0676  0.2483
  307ccc     O2 8891   9.788   2.918  10.750  0.2764  0.1354  0.1882
  307ccc     O3 8892   9.627   2.835  10.641 -0.4213 -0.1811 -0.4615
  307ccc     C7 8893   9.706   3.120  10.292  0.8097  0.3118  0.0860
  307ccc    H11 8894   9.613   3.080  10.335  0.3892 -0.3622 -1.3918
  307ccc    H12 8895   9.686   3.210  10.232 -1.2388  0.7310  1.2732
  307ccc     C8 8896   9.757   3.021  10.195 -0.3628  0.2639 -0.7965
  307ccc    H13 8897   9.839   3.068  10.139  0.6278 -1.2255 -0.6407
  307ccc    H14 8898   9.791   2.925  10.234 -1.0105 -0.0970 -1.0914
  307ccc     C9 8899   9.648   3.000  10.095  0.4440 -0.3054  0.2145
  307ccc     O4 8900   9.644   3.069   9.992 -0.7623 -0.9238  0.4086
  307ccc     O5 8901   9.574   2.900  10.097  0.2025 -0.4158  0.5965
  307ccc     O1 8902   9.927   3.441  10.671 -0.6338  0.2099  0.7680
  308ccc     C3 8903   9.573   3.405  11.250 -0.7800 -0.2769  0.4118
  308ccc     H5 8904   9.681   3.393  11.266 -0.2331  2.1139 -0.9072
  308ccc     H6 8905   9.521   3.405  11.347 -3.4686  0.1142 -0.9466
  308ccc     C2 8906   9.510   3.287  11.184  0.0153 -0.5371  0.4530
  308ccc     H3 8907   9.569   3.247  11.101  1.1996  2.0901 -0.0693
  308ccc     H4 8908   9.416   3.320  11.138 -0.6190  0.0130  2.0602
  308ccc     C1 8909   9.486   3.175  11.295 -0.3999  0.1911  0.1787
  308ccc     H1 8910   9.416   3.220  11.367  1.4275 -0.3091  2.3968
  308ccc     H2 8911   9.583   3.165  11.345  1.0358 -1.4314 -2.6724
  308ccc     N1 8912   9.426   3.051  11.237  0.8928 -0.3479 -0.2740
  308ccc     C4 8913   9.517   2.991  11.144  0.1562 -0.1791  0.9485
  308ccc     H7 8914   9.529   3.054  11.055  1.5527 -1.2300  0.3545
  308ccc     H8 8915   9.483   2.891  11.114 -0.9578  0.6105 -0.5592
  308ccc     C5 8916   9.651   2.957  11.212 -0.8489 -0.2879 -0.3952
  308ccc     H9 8917   9.715   3.046  11.224 -2.1645  0.8328 -1.4372
  308ccc    H10 8918   9.636   2.914  11.312  1.9704  2.5562  1.4316
  308ccc     C6 8919   9.725   2.863  11.122  0.2190  0.5018 -0.0479
  308ccc     O2 8920   9.772   2.758  11.172  0.1860 -0.0070  0.0653
  308ccc     O3 8921   9.777   2.908  11.021 -0.1221  0.2200  0.0610
  308ccc     C7 8922   9.302   3.090  11.166  0.4349 -0.3863 -0.4403
  308ccc    H11 8923   9.237   3.145  11.236 -1.1573 -1.9125 -0.6295
  308ccc    H12 8924   9.311   3.124  11.063  0.6622  2.0093  0.3091
  308ccc     C8 8925   9.216   2.973  11.136 -0.6203 -0.1022  0.0967
  308ccc    H13 8926   9.271   2.916  11.059 -0.0675 -0.3102  0.6299
  308ccc    H14 8927   9.200   2.906  11.221  0.1996  1.9442  1.9693
  308ccc     C9 8928   9.094   3.015  11.074  0.5755 -0.5505 -0.7157
  308ccc     O4 8929   9.011   3.067  11.144  0.0704 -0.0602  0.6133
  308ccc     O5 8930   9.085   3.063  10.962 -0.5783  0.5753 -0.2812
  308ccc     O1 8931   9.546   3.530  11.184 -0.1870  0.3699  0.3736
  309ccc     C3 8932  10.912   3.738   9.760 -0.3014  0.1719 -0.2854
  309ccc     H5 8933  10.959   3.811   9.828 -2.1904 -0.2432  1.5566
  309ccc     H6 8934  10.935   3.642   9.807  1.7873  2.0793  3.0860
  309ccc     C2 8935  10.970   3.745   9.621 -0.3783  0.4805  0.4292
  309ccc     H3 8936  11.079   3.755   9.613 -0.3043 -1.2328 -1.3708
  309ccc     H4 8937  10.933   3.837   9.573 -1.7613 -0.1897  0.1644
  309ccc     C1 8938  10.937   3.624   9.527  0.3138  0.3313  0.1781
  309ccc     H1 8939  10.828   3.609   9.536  0.1721 -1.7233 -3.0712
  309ccc     H2 8940  10.987   3.534   9.565 -1.0207 -0.2137  0.7373
  309ccc     N1 8941  10.958   3.633   9.382 -0.1762 -0.5610  0.6614
  309ccc     C4 8942  10.939   3.505   9.312 -0.3464 -0.8340  0.3603
  309ccc     H7 8943  10.931   3.512   9.203  1.9217 -1.3772  0.1232
  309ccc     H8 8944  10.849   3.460   9.356 -1.5846  0.2387 -0.9415
  309ccc     C5 8945  11.051   3.409   9.336  0.1447 -0.9542 -0.5039
  309ccc     H9 8946  11.142   3.431   9.279 -0.8737 -1.8787 -2.5962
  309ccc    H10 8947  11.082   3.390   9.440 -0.5380  0.0945 -0.0878
  309ccc     C6 8948  11.003   3.274   9.299  0.2611  0.8263 -0.0325
  309ccc     O2 8949  10.936   3.219   9.382 -0.4494 -0.0569  0.5273
  309ccc     O3 8950  10.991   3.242   9.182 -0.6621 -0.0477  0.2454
  309ccc     C7 8951  10.876   3.738   9.326 -0.6595 -0.0764  0.7424
  309ccc    H11 8952  10.777   3.693   9.325 -0.6854 -0.0524 -0.9436
  309ccc    H12 8953  10.870   3.825   9.393 -0.8008  0.4394  0.0675
  309ccc     C8 8954  10.911   3.786   9.183 -0.3042 -0.3897 -0.4013
  309ccc    H13 8955  11.018   3.809   9.179 -0.7116  1.6015 -0.7622
  309ccc    H14 8956  10.904   3.701   9.113  0.4053 -0.1888 -0.7293
  309ccc     C9 8957  10.835   3.906   9.135  0.4698  0.4584  0.0173
  309ccc     O4 8958  10.820   3.907   9.014  0.0016 -0.2092  0.0150
  309ccc     O5 8959  10.757   3.972   9.206 -0.0785 -0.1259  0.2052
  309ccc     O1 8960  10.773   3.759   9.755  0.4424 -0.1491 -0.9694
  310ccc     C3 8961  10.113   4.260  10.001 -0.5297 -0.3925 -0.2861
  310ccc     H5 8962  10.035   4.308  10.062  0.8807  1.4061  0.2127
  310ccc     H6 8963  10.207   4.297  10.044 -0.1673 -1.0278 -0.5167
  310ccc     C2 8964  10.127   4.323   9.857 -0.3949  0.0005 -0.0493
  310ccc     H3 8965  10.134   4.432   9.867 -1.0116 -0.0179  0.6577
  310ccc     H4 8966  10.034   4.303   9.802 -1.5201 -3.3666  2.6830
  310ccc     C1 8967  10.249   4.266   9.777 -0.1804  0.1398  0.3907
  310ccc     H1 8968  10.235   4.157   9.773  1.5094 -0.1927  1.9390
  310ccc     H2 8969  10.337   4.289   9.838 -0.0419 -2.2199  1.1842
  310ccc     N1 8970  10.267   4.304   9.636  0.4713  0.4290  0.0018
  310ccc     C4 8971  10.375   4.233   9.569 -0.0470 -0.1336  0.5398
  310ccc     H7 8972  10.364   4.129   9.603  2.5632 -0.1983  1.3854
  310ccc     H8 8973  10.475   4.271   9.593  1.5769 -3.3511 -0.5396
  310ccc     C5 8974  10.359   4.229   9.419  0.0713  0.3806  0.0839
  310ccc     H9 8975  10.257   4.198   9.393  0.0321 -2.4119  2.9910
  310ccc    H10 8976  10.385   4.326   9.374  1.6522 -0.8092 -1.7117
  310ccc     C6 8977  10.462   4.130   9.366 -0.0300 -0.9486  0.6069
  310ccc     O2 8978  10.529   4.160   9.269  0.5121  0.8996  0.0398
  310ccc     O3 8979  10.456   4.012   9.390 -0.3981 -0.4698  0.0725
  310ccc     C7 8980  10.273   4.446   9.605  0.5477 -0.3367 -0.8914
  310ccc    H11 8981  10.277   4.469   9.498  1.2068  1.7728 -0.4584
  310ccc    H12 8982  10.180   4.496   9.636 -0.4988 -0.6452 -3.3323
  310ccc     C8 8983  10.385   4.515   9.686 -1.3652  0.0826 -0.0745
  310ccc    H13 8984  10.364   4.517   9.794 -3.4616 -0.7154 -0.4184
  310ccc    H14 8985  10.479   4.464   9.662 -1.0466  1.3964 -1.7734
  310ccc     C9 8986  10.400   4.656   9.627 -0.1552  0.8492 -0.4875
  310ccc     O4 8987  10.343   4.749   9.675 -0.4365 -0.3918 -0.0517
  310ccc     O5 8988  10.437   4.664   9.512  0.2978  0.2619 -0.1193
  310ccc     O1 8989  10.109   4.117   9.999  0.3981  0.6657  0.4249
  311ccc     C3 8990   8.667   6.293   9.818  0.4904  0.2887 -0.0785
  311ccc     H5 8991   8.661   6.347   9.913  1.2987  0.8884 -0.3576
  311ccc     H6 8992   8.708   6.197   9.853  0.1936 -0.4135 -1.5425
  311ccc     C2 8993   8.758   6.365   9.723  0.4573  0.1383  0.7039
  311ccc     H3 8994   8.757   6.306   9.630 -1.4778  0.3137  0.5701
  311ccc     H4 8995   8.864   6.354   9.745  0.7924 -0.9564 -1.1987
  311ccc     C1 8996   8.731   6.518   9.695  0.3152  0.1995 -0.0142
  311ccc     H1 8997   8.783   6.567   9.778 -0.3836  1.3389 -0.2295
  311ccc     H2 8998   8.624   6.539   9.695  0.2935  0.4368 -2.9476
  311ccc     N1 8999   8.775   6.572   9.568 -0.2621 -0.6914  0.1199
  311ccc     C4 9000   8.717   6.520   9.442  0.7916 -0.5310 -0.6903
  311ccc     H7 9001   8.760   6.423   9.412  0.0369 -1.9188  2.2892
  311ccc     H8 9002   8.741   6.588   9.360 -0.3136  0.7981  0.0456
  311ccc     C5 9003   8.566   6.500   9.445  0.3320 -0.0449 -0.6559
  311ccc     H9 9004   8.540   6.421   9.517  2.8662 -0.8017 -0.4809
  311ccc    H10 9005   8.520   6.596   9.472 -0.0845 -0.6535  0.8803
  311ccc     C6 9006   8.501   6.464   9.321 -0.3717  0.7188 -0.3346
  311ccc     O2 9007   8.428   6.366   9.313  0.3511  0.1598 -0.2336
  311ccc     O3 9008   8.516   6.528   9.220  0.4697 -0.5152 -0.4677
  311ccc     C7 9009   8.923   6.585   9.549 -0.0208  0.1953 -0.7280
  311ccc    H11 9010   8.976   6.499   9.593  0.3316  0.6275 -0.2851
  311ccc    H12 9011   8.952   6.601   9.445 -2.5807  0.8884 -1.3925
  311ccc     C8 9012   8.956   6.721   9.620  0.0049 -0.1557  0.6159
  311ccc    H13 9013   8.901   6.803   9.572 -1.7866 -1.7587 -0.2081
  311ccc    H14 9014   8.940   6.719   9.728 -0.5689 -2.7729  0.5605
  311ccc     C9 9015   9.099   6.745   9.581  0.5406 -0.5943  0.0989
  311ccc     O4 9016   9.192   6.686   9.637 -0.4361 -0.2269  0.2975
  311ccc     O5 9017   9.124   6.804   9.477 -0.5359 -0.6705  0.2560
  311ccc     O1 9018   8.534   6.276   9.767 -0.0649  0.1989  0.0083
  312ccc     C3 9019   8.360   5.335   9.497 -0.6317  0.1929 -0.0842
  312ccc     H5 9020   8.251   5.328   9.486 -0.5096 -0.7861 -0.7505
  312ccc     H6 9021   8.408   5.309   9.402  2.5571 -6.5296  2.6849
  312ccc     C2 9022   8.405   5.230   9.598 -0.1445  0.4122 -0.5845
  312ccc     H3 9023   8.346   5.230   9.690 -1.0643 -1.4717 -1.1148
  312ccc     H4 9024   8.508   5.251   9.629  0.5205 -0.4648 -2.0486
  312ccc     C1 9025   8.405   5.094   9.538 -0.1410 -0.0981 -0.3733
  312ccc     H1 9026   8.436   5.021   9.614 -0.3455  1.0496  0.8442
  312ccc     H2 9027   8.488   5.087   9.465  1.6164 -1.2052  1.6206
  312ccc     N1 9028   8.271   5.047   9.488  0.2602 -0.6342  0.6353
  312ccc     C4 9029   8.183   5.016   9.606 -0.1456 -0.2033  0.4240
  312ccc     H7 9030   8.167   5.107   9.666 -1.4976  0.0382 -0.2629
  312ccc     H8 9031   8.245   4.959   9.677  2.2818  0.9431 -0.6710
  312ccc     C5 9032   8.040   4.963   9.575 -0.1949 -0.6769 -0.2277
  312ccc     H9 9033   8.035   4.860   9.538 -2.7254 -0.7661  0.2006
  312ccc    H10 9034   7.991   4.960   9.672  1.1909  0.4649  0.5528
  312ccc     C6 9035   7.982   5.055   9.480  0.0927  0.0544 -0.3010
  312ccc     O2 9036   7.954   4.999   9.378  0.4432 -0.2508  0.6772
  312ccc     O3 9037   7.919   5.155   9.511  0.2758 -0.0898 -0.4286
  312ccc     C7 9038   8.274   4.932   9.398 -0.4461 -0.0754 -0.2401
  312ccc    H11 9039   8.347   4.856   9.429 -1.2523 -0.5109  0.6340
  312ccc    H12 9040   8.182   4.874   9.385 -1.6217  1.3742  1.2073
  312ccc     C8 9041   8.316   4.976   9.259 -0.5910  0.2324  0.1062
  312ccc    H13 9042   8.252   5.056   9.220 -0.0132  0.3325 -0.6586
  312ccc    H14 9043   8.414   5.020   9.279 -1.5311  2.0994  0.8323
  312ccc     C9 9044   8.322   4.857   9.168 -0.2729 -0.5146 -0.1108
  312ccc     O4 9045   8.228   4.830   9.098  0.3304 -0.2636  0.1485
  312ccc     O5 9046   8.429   4.799   9.153  0.0475 -0.2705 -0.0436
  312ccc     O1 9047   8.373   5.468   9.554  0.1795  0.1557  0.3076
  313ccc     C3 9048   8.727   5.977   8.484  0.2620  0.5349  0.6047
  313ccc     H5 9049   8.633   5.927   8.459 -0.2662  1.8766 -0.1985
  313ccc     H6 9050   8.686   6.045   8.560 -1.9633 -0.2435  0.1757
  313ccc     C2 9051   8.787   6.044   8.356  0.2024  0.1751 -0.0930
  313ccc     H3 9052   8.849   6.131   8.379 -1.1366  1.1753 -0.1302
  313ccc     H4 9053   8.702   6.095   8.309 -0.2473 -0.7905 -0.3607
  313ccc     C1 9054   8.863   5.944   8.265 -0.1539 -0.2410 -0.3126
  313ccc     H1 9055   8.814   5.846   8.258 -0.6246 -0.2392  2.1866
  313ccc     H2 9056   8.960   5.929   8.315 -1.8028 -0.3285  3.0938
  313ccc     N1 9057   8.888   5.995   8.130  0.4836  0.9136 -0.2089
  313ccc     C4 9058   8.985   5.923   8.043  0.0267  0.1754  0.6423
  313ccc     H7 9059   9.005   5.986   7.955 -1.3008 -0.8059 -0.4032
  313ccc     H8 9060   8.939   5.826   8.022 -2.4112  0.4125  4.1241
  313ccc     C5 9061   9.116   5.884   8.101  0.4199  0.4411  0.2174
  313ccc     H9 9062   9.168   5.968   8.148  1.2019 -1.1952  2.4599
  313ccc    H10 9063   9.100   5.809   8.180 -0.0083  2.8505  2.5767
  313ccc     C6 9064   9.206   5.830   7.996  0.1041 -0.2095 -0.4814
  313ccc     O2 9065   9.194   5.717   7.956  0.2830 -0.0647 -0.4321
  313ccc     O3 9066   9.295   5.892   7.955 -0.7622  0.1801  0.2980
  313ccc     C7 9067   8.763   6.001   8.058  0.2789 -0.4377 -0.0615
  313ccc    H11 9068   8.747   5.902   8.012 -0.8905 -1.1690  1.8021
  313ccc    H12 9069   8.683   6.032   8.126  0.6620  0.6563 -0.0909
  313ccc     C8 9070   8.761   6.104   7.949  0.3060 -0.2311  0.1811
  313ccc    H13 9071   8.771   6.207   7.984 -1.9913 -0.1143  0.6718
  313ccc    H14 9072   8.827   6.079   7.864 -0.6508 -1.3135 -0.2707
  313ccc     C9 9073   8.622   6.108   7.883 -0.2443  0.3247  0.0572
  313ccc     O4 9074   8.569   6.208   7.838 -0.5947 -0.3572  0.0382
  313ccc     O5 9075   8.550   6.016   7.874  0.3526 -0.2110  0.3387
  313ccc     O1 9076   8.824   5.896   8.559  0.1330 -0.4907 -0.2090
  314ccc     C3 9077   8.943   5.372   8.511  0.5333  0.7122 -0.2853
  314ccc     H5 9078   8.965   5.477   8.537  0.5229  0.2250  1.9136
  314ccc     H6 9079   9.037   5.318   8.493  0.0572 -0.9766  1.8187
  314ccc     C2 9080   8.858   5.369   8.376 -0.1036 -0.2977  0.5910
  314ccc     H3 9081   8.805   5.274   8.363  1.4813 -1.1091 -0.1115
  314ccc     H4 9082   8.938   5.365   8.302  0.1690 -0.4140  0.8922
  314ccc     C1 9083   8.767   5.493   8.358 -0.8817  0.1650 -0.0937
  314ccc     H1 9084   8.835   5.579   8.346  0.6248 -0.9755 -0.0484
  314ccc     H2 9085   8.709   5.509   8.450  1.9676  0.8429  1.7289
  314ccc     N1 9086   8.667   5.481   8.246 -0.6874  0.3807 -0.6961
  314ccc     C4 9087   8.735   5.443   8.120 -0.4783  0.1350  0.0913
  314ccc     H7 9088   8.656   5.426   8.046  0.2590  0.6446 -0.8225
  314ccc     H8 9089   8.792   5.350   8.128 -0.0712  0.4020  0.3140
  314ccc     C5 9090   8.825   5.552   8.065  0.3528  0.0799 -0.3177
  314ccc     H9 9091   8.765   5.643   8.049  0.3381  0.2352  0.5624
  314ccc    H10 9092   8.903   5.575   8.139 -0.5579 -0.7256  0.9181
  314ccc     C6 9093   8.887   5.512   7.940  0.2635 -0.4751  0.0906
  314ccc     O2 9094   8.815   5.510   7.846 -0.0880 -0.1355 -0.4616
  314ccc     O3 9095   8.994   5.454   7.942 -0.1385 -0.4278  0.0010
  314ccc     C7 9096   8.585   5.601   8.249 -0.0079  0.2265  0.9106
  314ccc    H11 9097   8.543   5.623   8.348 -1.0256 -0.6111  0.6729
  314ccc    H12 9098   8.648   5.686   8.219 -1.0549  0.0800 -1.9737
  314ccc     C8 9099   8.466   5.589   8.151 -0.7375  1.0854  0.3433
  314ccc    H13 9100   8.440   5.488   8.118 -1.4701  1.0543  0.9946
  314ccc    H14 9101   8.375   5.625   8.200 -2.6499  0.0425 -2.2427
  314ccc     C9 9102   8.500   5.676   8.035  0.0215  0.5457  0.0743
  314ccc     O4 9103   8.547   5.628   7.930 -0.3058 -0.5636  0.1141
  314ccc     O5 9104   8.470   5.789   8.038  0.2573 -0.9426 -0.2873
  314ccc     O1 9105   8.870   5.309   8.614  0.6053  0.0653  0.3170
  315ccc     C3 9106   7.501   4.161  10.995 -0.2389 -0.3151 -0.7003
  315ccc     H5 9107   7.417   4.201  11.055  0.8296 -0.6280  1.0914
  315ccc     H6 9108   7.597   4.161  11.048 -0.1466 -3.1783 -0.7375
  315ccc     C2 9109   7.509   4.244  10.869  0.3119 -0.2551 -0.3972
  315ccc     H3 9110   7.502   4.351  10.889  1.3583 -0.4178  0.9746
  315ccc     H4 9111   7.420   4.226  10.808  0.2911  1.2957 -0.8625
  315ccc     C1 9112   7.637   4.206  10.787 -0.1396 -0.9765 -0.4388
  315ccc     H1 9113   7.640   4.100  10.759  0.9236 -0.6441 -1.6642
  315ccc     H2 9114   7.718   4.217  10.861 -0.4908  0.0675 -0.1890
  315ccc     N1 9115   7.665   4.291  10.669 -0.3651  0.3379 -0.3041
  315ccc     C4 9116   7.558   4.300  10.572  0.8458 -0.6127 -0.7608
  315ccc     H7 9117   7.576   4.380  10.499 -0.4408 -1.1960 -1.7408
  315ccc     H8 9118   7.470   4.334  10.628  2.2527  0.8348  0.6847
  315ccc     C5 9119   7.526   4.182  10.496 -0.0306  0.2670 -0.1762
  315ccc     H9 9120   7.607   4.158  10.425 -0.5830  1.5794 -1.2868
  315ccc    H10 9121   7.508   4.103  10.570 -2.6175  1.7869  0.9198
  315ccc     C6 9122   7.401   4.191  10.415  0.4543  0.0453  0.6455
  315ccc     O2 9123   7.377   4.301  10.370  0.0595  0.1558  0.1009
  315ccc     O3 9124   7.346   4.096  10.358  0.3613 -0.0066 -0.0893
  315ccc     C7 9125   7.799   4.269  10.623  0.6494  0.0353  0.1888
  315ccc    H11 9126   7.871   4.283  10.704  0.4027  0.7230  0.2976
  315ccc    H12 9127   7.810   4.167  10.584 -0.1891 -0.1723  0.4800
  315ccc     C8 9128   7.845   4.361  10.505 -0.2065 -0.6085 -0.1537
  315ccc    H13 9129   7.810   4.465  10.509  1.3954 -0.0106 -0.9119
  315ccc    H14 9130   7.954   4.371  10.510 -0.0668 -1.9800  0.0475
  315ccc     C9 9131   7.821   4.316  10.367  0.0718 -0.3373 -0.2694
  315ccc     O4 9132   7.728   4.366  10.308 -0.0506  0.4864  0.0258
  315ccc     O5 9133   7.875   4.222  10.314  0.0478 -0.5636 -0.2244
  315ccc     O1 9134   7.481   4.022  10.961 -0.0269 -0.0570  0.1953
  316ccc     C3 9135   8.067   3.186  11.093  0.0794 -0.8161 -0.1675
  316ccc     H5 9136   8.004   3.136  11.167 -0.3706 -0.8915 -0.5966
  316ccc     H6 9137   8.043   3.137  10.999 -1.0744 -1.2045  0.3188
  316ccc     C2 9138   8.213   3.172  11.130 -0.6969  0.6109  0.4592
  316ccc     H3 9139   8.233   3.065  11.145 -1.2854  0.5723  1.0360
  316ccc     H4 9140   8.238   3.222  11.224 -0.4737  0.2032  0.6207
  316ccc     C1 9141   8.308   3.232  11.021  0.1864  1.0447 -0.8313
  316ccc     H1 9142   8.325   3.340  11.030  1.1913  0.9148 -0.9923
  316ccc     H2 9143   8.270   3.222  10.919  0.4213 -2.8776 -0.6717
  316ccc     N1 9144   8.436   3.151  11.027  0.5125  0.5276 -0.5193
  316ccc     C4 9145   8.504   3.150  11.158  0.3140  0.0454  0.5098
  316ccc     H7 9146   8.566   3.060  11.160 -1.9135 -1.6028  3.1638
  316ccc     H8 9147   8.431   3.132  11.238 -0.9745 -0.1001 -0.6635
  316ccc     C5 9148   8.580   3.275  11.203  0.2882 -0.8624  0.1944
  316ccc     H9 9149   8.587   3.359  11.134  0.6987 -1.7491 -0.8816
  316ccc    H10 9150   8.542   3.313  11.299  1.2519 -0.0791  0.2763
  316ccc     C6 9151   8.718   3.239  11.226 -0.2222 -0.4030  0.4742
  316ccc     O2 9152   8.763   3.206  11.330 -0.3563  0.0668 -0.2027
  316ccc     O3 9153   8.790   3.245  11.124  0.2238 -0.2350  0.4893
  316ccc     C7 9154   8.523   3.181  10.911  0.0994  0.1009  0.1253
  316ccc    H11 9155   8.468   3.202  10.818  2.2463 -1.5865 -1.6206
  316ccc    H12 9156   8.581   3.274  10.918 -0.3945  0.3457  1.0936
  316ccc     C8 9157   8.615   3.064  10.881 -0.1490  0.3972 -0.1091
  316ccc    H13 9158   8.679   3.045  10.968 -1.4436  2.2480  1.3207
  316ccc    H14 9159   8.567   2.978  10.833  1.8876  0.3167 -2.1481
  316ccc     C9 9160   8.706   3.116  10.775 -0.4833  0.2317  0.4550
  316ccc     O4 9161   8.682   3.108  10.656  0.1388 -0.3540  0.0389
  316ccc     O5 9162   8.821   3.144  10.804 -0.0063  0.5512  0.2922
  316ccc     O1 9163   8.029   3.327  11.092 -0.1927 -0.0239  0.2642
  317ccc     C3 9164   9.265   3.636  10.070 -0.1213  0.0240 -0.1860
  317ccc     H5 9165   9.182   3.564  10.070 -1.2280  1.2188  1.3471
  317ccc     H6 9166   9.289   3.670   9.969 -1.3967 -2.7617 -1.5470
  317ccc     C2 9167   9.389   3.557  10.105 -0.3969 -0.3509  0.1832
  317ccc     H3 9168   9.467   3.633  10.108  0.4682 -1.0896 -1.9085
  317ccc     H4 9169   9.415   3.491  10.021  1.4936 -1.0979  1.2881
  317ccc     C1 9170   9.369   3.486  10.245  0.1371 -0.4462  0.2137
  317ccc     H1 9171   9.368   3.563  10.324  2.0366 -0.6951  0.5173
  317ccc     H2 9172   9.456   3.420  10.252  0.9174 -0.2472 -4.3405
  317ccc     N1 9173   9.253   3.398  10.256 -0.3222  0.3747 -0.2504
  317ccc     C4 9174   9.242   3.292  10.159 -0.1016  0.4857  0.1375
  317ccc     H7 9175   9.252   3.335  10.058  0.1252  0.1468  0.0128
  317ccc     H8 9176   9.142   3.246  10.162 -0.5439  1.4687  1.0239
  317ccc     C5 9177   9.348   3.185  10.180  0.0986 -0.4042 -0.4149
  317ccc     H9 9178   9.448   3.218  10.147 -0.5877  2.2353 -0.1118
  317ccc    H10 9179   9.356   3.155  10.285  3.9130 -2.4851 -1.0970
  317ccc     C6 9180   9.319   3.057  10.115 -0.3729  0.1843  0.3361
  317ccc     O2 9181   9.290   2.957  10.176 -0.2574  0.0326  0.1761
  317ccc     O3 9182   9.326   3.050   9.995 -0.2705 -0.3166  0.4150
  317ccc     C7 9183   9.240   3.359  10.399  0.5233  0.1849 -0.1645
  317ccc    H11 9184   9.328   3.308  10.439 -0.0621 -0.4035  0.4080
  317ccc    H12 9185   9.223   3.449  10.460  0.5960 -0.5804  1.0216
  317ccc     C8 9186   9.115   3.277  10.415  0.3576  0.7482 -0.2023
  317ccc    H13 9187   9.031   3.309  10.352 -1.7471  0.8587  2.4713
  317ccc    H14 9188   9.135   3.173  10.389 -1.9173 -0.0126  0.8358
  317ccc     C9 9189   9.061   3.291  10.553  0.2377 -0.2031  0.5836
  317ccc     O4 9190   9.044   3.193  10.624  0.2999  0.4014  0.2866
  317ccc     O5 9191   8.984   3.386  10.567 -0.7374  0.0704 -0.0204
  317ccc     O1 9192   9.251   3.742  10.166 -0.3699 -0.4124 -0.1564
  318ccc     C3 9193   9.460   3.803  10.602 -0.2766 -0.0137  0.8334
  318ccc     H5 9194   9.402   3.794  10.510  0.3542  1.0733  0.3063
  318ccc     H6 9195   9.565   3.791  10.572 -0.7765 -1.1835 -0.5931
  318ccc     C2 9196   9.421   3.706  10.711  0.1422  0.6911 -0.3018
  318ccc     H3 9197   9.314   3.724  10.729 -0.0939 -1.1365  0.2695
  318ccc     H4 9198   9.476   3.742  10.799 -0.2334  0.1942  0.1424
  318ccc     C1 9199   9.444   3.560  10.682 -0.1699  0.0206 -0.3044
  318ccc     H1 9200   9.551   3.552  10.661  0.2342 -0.0751  1.6332
  318ccc     H2 9201   9.385   3.532  10.593  0.4929  1.0473 -1.0921
  318ccc     N1 9202   9.409   3.482  10.801  0.0087  0.3717  0.6484
  318ccc     C4 9203   9.263   3.478  10.819  0.9802 -0.6053 -0.1321
  318ccc     H7 9204   9.217   3.429  10.732  0.5424  0.4673 -0.5197
  318ccc     H8 9205   9.224   3.580  10.833 -0.5091 -0.9725 -1.3310
  318ccc     C5 9206   9.213   3.395  10.937 -0.2867  0.2598  0.2507
  318ccc     H9 9207   9.237   3.288  10.934 -2.1256 -0.1535 -1.1146
  318ccc    H10 9208   9.255   3.443  11.026  2.6167 -1.2058 -0.1978
  318ccc     C6 9209   9.061   3.415  10.952 -0.4169 -0.2049 -0.6335
  318ccc     O2 9210   8.983   3.333  10.908  0.1724  0.0482 -0.2291
  318ccc     O3 9211   9.011   3.486  11.038 -0.2597  0.5169 -0.3133
  318ccc     C7 9212   9.480   3.350  10.799 -0.6711 -0.6257  0.0627
  318ccc    H11 9213   9.588   3.365  10.791 -0.8911  1.6131  0.5064
  318ccc    H12 9214   9.450   3.314  10.898  1.8332 -2.4119  0.2572
  318ccc     C8 9215   9.431   3.265  10.684 -0.5021 -0.0059 -0.3983
  318ccc    H13 9216   9.329   3.285  10.647 -0.0855 -0.3101 -1.7872
  318ccc    H14 9217   9.486   3.261  10.589 -0.7260 -1.6461 -0.4812
  318ccc     C9 9218   9.436   3.127  10.742 -1.0185  0.1399  0.1782
  318ccc     O4 9219   9.537   3.072  10.777 -0.5996 -0.2785  0.1959
  318ccc     O5 9220   9.339   3.053  10.744 -0.3877  0.5980 -0.1851
  318ccc     O1 9221   9.431   3.941  10.646  0.0502  0.5808 -0.8935
  319ccc     C3 9222   6.789   1.944   6.283 -0.1308 -0.3436  0.7060
  319ccc     H5 9223   6.683   1.963   6.305  0.2002  3.1499 -0.1140
  319ccc     H6 9224   6.819   1.839   6.275  1.3550  0.1115 -0.0085
  319ccc     C2 9225   6.863   2.001   6.401 -0.0954  0.2077 -0.5835
  319ccc     H3 9226   6.968   1.970   6.402 -0.0586  0.3444  0.2187
  319ccc     H4 9227   6.829   1.951   6.493 -1.1440  0.0199 -1.0569
  319ccc     C1 9228   6.844   2.150   6.418  0.1604  0.3502  0.6384
  319ccc     H1 9229   6.870   2.200   6.324 -0.4505  0.8364  0.7219
  319ccc     H2 9230   6.917   2.188   6.491 -0.1318 -1.5771  2.0189
  319ccc     N1 9231   6.714   2.186   6.457  0.4774  0.3914 -0.3524
  319ccc     C4 9232   6.699   2.237   6.595 -0.8348  0.3617 -0.3006
  319ccc     H7 9233   6.600   2.276   6.623 -1.4462 -0.2743 -1.5055
  319ccc     H8 9234   6.769   2.316   6.624  1.4554 -2.1349  1.3432
  319ccc     C5 9235   6.722   2.136   6.704 -0.0528 -0.3989  0.1896
  319ccc     H9 9236   6.649   2.054   6.700  0.1491 -0.5407 -1.0807
  319ccc    H10 9237   6.817   2.083   6.687  0.3920  1.1767 -2.8004
  319ccc     C6 9238   6.726   2.202   6.843  0.8346 -0.0693  0.2376
  319ccc     O2 9239   6.832   2.216   6.907  0.3669 -0.5710 -0.3107
  319ccc     O3 9240   6.622   2.193   6.902  0.2710 -0.3740 -0.0661
  319ccc     C7 9241   6.659   2.287   6.361  0.1430 -0.5954  0.1790
  319ccc    H11 9242   6.706   2.386   6.373  1.3272 -1.1437  0.2031
  319ccc    H12 9243   6.698   2.261   6.262  0.0167 -0.5821  0.1254
  319ccc     C8 9244   6.511   2.292   6.357 -0.0688 -0.0542  0.1090
  319ccc    H13 9245   6.475   2.277   6.255 -2.1581  1.0895  0.6163
  319ccc    H14 9246   6.471   2.212   6.420 -0.8161  0.4581  0.2909
  319ccc     C9 9247   6.468   2.428   6.405  0.0896 -0.1695 -0.1465
  319ccc     O4 9248   6.418   2.439   6.519  0.1093  0.2625  0.0470
  319ccc     O5 9249   6.457   2.523   6.327  0.4188  0.0790 -0.6629
  319ccc     O1 9250   6.827   2.013   6.165  0.2544 -0.2705 -0.0799
  320ccc     C3 9251   6.962   2.271   5.407  0.5524 -0.1285 -0.5207
  320ccc     H5 9252   6.898   2.353   5.441  0.7420 -0.1815 -0.0354
  320ccc     H6 9253   7.027   2.322   5.334  0.6070  1.7037  0.7268
  320ccc     C2 9254   6.863   2.168   5.348 -0.9903  0.1936 -0.3410
  320ccc     H3 9255   6.800   2.215   5.272  0.0215  1.4822 -0.4183
  320ccc     H4 9256   6.800   2.130   5.430 -0.0119 -1.2408 -0.2027
  320ccc     C1 9257   6.943   2.052   5.271  0.1141  0.0777 -0.3655
  320ccc     H1 9258   6.974   1.985   5.353 -1.4305  0.0497  0.2341
  320ccc     H2 9259   7.031   2.092   5.219  0.3292 -1.2852 -1.0950
  320ccc     N1 9260   6.858   1.980   5.175 -0.0868 -0.3023 -0.3415
  320ccc     C4 9261   6.735   1.917   5.236  0.3626  0.0333  0.7264
  320ccc     H7 9262   6.677   1.989   5.296 -0.2894 -0.4416  0.6770
  320ccc     H8 9263   6.765   1.828   5.292  2.3708 -0.1076 -0.4680
  320ccc     C5 9264   6.636   1.876   5.128  0.0536 -0.5439 -0.2851
  320ccc     H9 9265   6.607   1.956   5.059 -0.6683  0.1832  0.8384
  320ccc    H10 9266   6.687   1.801   5.067  1.7480 -0.1519  0.5866
  320ccc     C6 9267   6.509   1.822   5.184  0.3352 -0.2146  0.2805
  320ccc     O2 9268   6.508   1.719   5.248  0.7005  0.3990 -0.0825
  320ccc     O3 9269   6.414   1.893   5.202  0.1287 -0.5851  0.4880
  320ccc     C7 9270   6.936   1.892   5.087 -0.3005  0.1276 -0.1748
  320ccc    H11 9271   6.879   1.848   5.005  0.7304  2.4706 -2.3093
  320ccc    H12 9272   7.015   1.959   5.050  0.4720 -0.2397  0.7855
  320ccc     C8 9273   6.986   1.775   5.169 -1.0352 -0.0829  0.1003
  320ccc    H13 9274   7.010   1.797   5.273  1.2029 -1.3301 -0.1029
  320ccc    H14 9275   6.915   1.692   5.178  0.9108 -1.7708  0.6699
  320ccc     C9 9276   7.103   1.716   5.105 -0.1690  0.6606  1.2395
  320ccc     O4 9277   7.208   1.780   5.114  0.1501  0.4350 -0.0978
  320ccc     O5 9278   7.116   1.594   5.109 -0.2040  0.3399 -0.1217
  320ccc     O1 9279   7.033   2.210   5.519  0.1183 -0.2681  0.2288
  321ccc     C3 9280   7.489   2.975   4.863  0.1668 -0.1093 -0.3110
  321ccc     H5 9281   7.532   2.975   4.963 -0.6239  2.5302  0.1105
  321ccc     H6 9282   7.568   3.005   4.793  0.9904 -0.2406  0.5461
  321ccc     C2 9283   7.361   3.069   4.860 -0.1456  0.1822 -0.7818
  321ccc     H3 9284   7.388   3.152   4.927 -0.9841  0.3220 -0.6058
  321ccc     H4 9285   7.278   3.009   4.899 -0.2116  1.5294  1.3623
  321ccc     C1 9286   7.332   3.112   4.715 -0.7498 -0.6478  0.5626
  321ccc     H1 9287   7.262   3.041   4.670 -0.1221 -0.8430 -0.1096
  321ccc     H2 9288   7.418   3.110   4.648 -2.8434 -2.0962 -2.3136
  321ccc     N1 9289   7.271   3.246   4.699  0.6533 -0.4850 -0.5661
  321ccc     C4 9290   7.355   3.352   4.752 -0.9633 -0.6126  0.4899
  321ccc     H7 9291   7.371   3.341   4.860  1.3671  1.2004  0.4136
  321ccc     H8 9292   7.288   3.439   4.751  0.5811  0.6453  1.8107
  321ccc     C5 9293   7.489   3.381   4.675  0.1805 -0.3123 -0.2548
  321ccc     H9 9294   7.557   3.295   4.678  3.9418  2.3201 -1.9398
  321ccc    H10 9295   7.473   3.387   4.566  2.2145 -1.3815 -0.6419
  321ccc     C6 9296   7.565   3.498   4.723  0.1705  0.1957  0.5832
  321ccc     O2 9297   7.558   3.552   4.834 -0.1224  0.3459 -0.0500
  321ccc     O3 9298   7.634   3.550   4.635  0.4130  0.0970 -0.1698
  321ccc     C7 9299   7.133   3.238   4.749 -0.0612 -0.0842 -0.0231
  321ccc    H11 9300   7.096   3.135   4.756 -1.8757  0.4413 -1.2286
  321ccc    H12 9301   7.136   3.282   4.850 -0.8427  3.3863 -1.3671
  321ccc     C8 9302   7.038   3.316   4.661  0.0466 -0.2644 -0.3696
  321ccc    H13 9303   7.079   3.413   4.629  0.2506 -0.4721 -0.7452
  321ccc    H14 9304   7.019   3.251   4.575 -1.2699 -1.5517  0.8448
  321ccc     C9 9305   6.907   3.343   4.723  0.3344 -0.2358 -0.0538
  321ccc     O4 9306   6.908   3.431   4.811 -0.2605  0.0888 -0.1614
  321ccc     O5 9307   6.812   3.269   4.710  0.4024 -0.2935 -0.3292
  321ccc     O1 9308   7.445   2.843   4.836 -0.4464  0.9785  0.2584
  322ccc     C3 9309   7.194   3.095   4.340 -0.4588 -0.5062  0.1211
  322ccc     H5 9310   7.111   3.166   4.347  0.1654  0.1541  1.0630
  322ccc     H6 9311   7.258   3.108   4.428  2.7116  0.2219 -2.0963
  322ccc     C2 9312   7.283   3.135   4.217 -0.4717 -0.1258  0.4357
  322ccc     H3 9313   7.323   3.235   4.239  0.0795 -0.6835  2.1850
  322ccc     H4 9314   7.221   3.148   4.128  1.5400  0.4239 -0.9713
  322ccc     C1 9315   7.406   3.049   4.183 -0.9961 -0.5232 -0.2570
  322ccc     H1 9316   7.471   3.093   4.107  0.6949  0.7135  1.7809
  322ccc     H2 9317   7.378   2.948   4.149 -0.3314 -0.8423  0.1304
  322ccc     N1 9318   7.494   3.025   4.296 -0.0214  0.4489  0.4852
  322ccc     C4 9319   7.543   3.149   4.362 -0.4941 -0.2549 -0.5412
  322ccc     H7 9320   7.606   3.134   4.451 -0.0603  2.3771 -0.2951
  322ccc     H8 9321   7.458   3.200   4.408  0.4284  1.2745 -0.4415
  322ccc     C5 9322   7.625   3.248   4.282  0.2110  0.9766  0.1317
  322ccc     H9 9323   7.717   3.194   4.258  0.6789  2.2257 -1.0771
  322ccc    H10 9324   7.564   3.274   4.194 -0.3637  1.9049  0.7783
  322ccc     C6 9325   7.667   3.366   4.359  0.2567  0.7893  0.6216
  322ccc     O2 9326   7.613   3.475   4.343 -0.2106  0.6427 -0.5322
  322ccc     O3 9327   7.773   3.368   4.412  0.2554  0.5458  0.1993
  322ccc     C7 9328   7.595   2.923   4.265 -0.4382  0.0368 -0.3393
  322ccc    H11 9329   7.557   2.842   4.202  0.6502  0.7186 -1.9222
  322ccc    H12 9330   7.687   2.964   4.223 -0.4304  0.8674  0.4549
  322ccc     C8 9331   7.646   2.859   4.389 -0.3492 -0.0543 -0.3461
  322ccc    H13 9332   7.675   2.930   4.467  0.2085  0.5311 -1.0796
  322ccc    H14 9333   7.575   2.788   4.434  1.4841 -1.1346  1.0145
  322ccc     C9 9334   7.764   2.773   4.382  0.4683  0.5287  0.3342
  322ccc     O4 9335   7.871   2.810   4.433 -0.4402  0.3756  0.0219
  322ccc     O5 9336   7.751   2.659   4.357  0.0265 -0.3724  0.2528
  322ccc     O1 9337   7.156   2.958   4.329  0.1634 -0.0361  0.1126
  323ccc     C3 9338   6.653   3.054   7.115 -0.1997 -0.3879  0.8923
  323ccc     H5 9339   6.667   3.070   7.223  0.6967 -0.0050  0.7283
  323ccc     H6 9340   6.582   2.971   7.108  1.0074 -1.5354  1.5931
  323ccc     C2 9341   6.772   2.996   7.038 -1.0898  0.1609 -0.2995
  323ccc     H3 9342   6.798   2.897   7.079 -0.2963  0.4196 -0.1588
  323ccc     H4 9343   6.867   3.047   7.056 -1.6210  0.7323  0.9591
  323ccc     C1 9344   6.742   2.983   6.887  0.1468 -0.0804 -0.0477
  323ccc     H1 9345   6.832   2.945   6.839  0.6813 -0.3280  1.1182
  323ccc     H2 9346   6.731   3.084   6.844 -1.1084 -1.0593 -2.1588
  323ccc     N1 9347   6.618   2.908   6.862 -0.5415  0.0416  0.3217
  323ccc     C4 9348   6.569   2.932   6.723 -0.2058  0.0469  0.2212
  323ccc     H7 9349   6.641   2.883   6.656  0.0529  1.2263 -0.3856
  323ccc     H8 9350   6.574   3.040   6.701  0.4327 -0.2558 -1.3182
  323ccc     C5 9351   6.426   2.904   6.699  1.1543  0.0371 -0.1654
  323ccc     H9 9352   6.387   2.847   6.784 -0.7318  0.0954 -0.9325
  323ccc    H10 9353   6.367   2.996   6.694  1.0002  0.0026  0.8524
  323ccc     C6 9354   6.412   2.820   6.576  0.0344  0.4803 -0.2258
  323ccc     O2 9355   6.439   2.868   6.469  0.2821  0.4575 -0.1349
  323ccc     O3 9356   6.398   2.703   6.575 -0.1045  0.1579 -0.0729
  323ccc     C7 9357   6.620   2.769   6.911  1.0078  0.0156  0.7667
  323ccc    H11 9358   6.625   2.776   7.020  0.0130  0.2764  0.8103
  323ccc    H12 9359   6.522   2.728   6.882 -0.0432  3.5372 -1.3149
  323ccc     C8 9360   6.725   2.682   6.858 -0.0155 -0.7995  0.1585
  323ccc    H13 9361   6.743   2.709   6.753  0.4595  0.7704  0.6078
  323ccc    H14 9362   6.823   2.705   6.902 -0.8372 -0.3008  1.8095
  323ccc     C9 9363   6.694   2.542   6.883  0.8105 -0.3652 -0.3910
  323ccc     O4 9364   6.744   2.490   6.981  0.5107 -0.5305  0.1940
  323ccc     O5 9365   6.607   2.485   6.818 -0.5646 -0.3206  0.4816
  323ccc     O1 9366   6.610   3.169   7.047  0.2108  0.1689  0.2947
  324ccc     C3 9367   5.805   3.232   7.068  0.4571 -0.1290  0.0707
  324ccc     H5 9368   5.720   3.255   7.003 -1.1249 -0.6115  1.8715
  324ccc     H6 9369   5.794   3.129   7.104 -1.2622  0.9231  2.8739
  324ccc     C2 9370   5.805   3.328   7.195  0.5823 -0.1992  0.2382
  324ccc     H3 9371   5.864   3.420   7.178 -0.2304  0.2933  0.0179
  324ccc     H4 9372   5.849   3.266   7.274 -1.0546 -1.4730  0.1945
  324ccc     C1 9373   5.659   3.381   7.224  0.1400  0.7817 -0.0662
  324ccc     H1 9374   5.619   3.439   7.140 -2.3703  0.0153  0.5057
  324ccc     H2 9375   5.662   3.447   7.312  0.8728  0.6619  0.0017
  324ccc     N1 9376   5.566   3.269   7.244 -0.5926 -0.2353  0.2698
  324ccc     C4 9377   5.425   3.311   7.222  0.2000  0.0506  0.4592
  324ccc     H7 9378   5.413   3.415   7.254  0.4056 -0.0078  0.7299
  324ccc     H8 9379   5.351   3.252   7.278  0.9406 -1.1916  0.1534
  324ccc     C5 9380   5.391   3.307   7.071 -0.9714  0.2162  0.3003
  324ccc     H9 9381   5.447   3.388   7.022  0.1821 -0.2949  0.7525
  324ccc    H10 9382   5.414   3.216   7.015  1.3476  2.1021 -2.0898
  324ccc     C6 9383   5.243   3.342   7.050 -0.3152  0.2580  0.6151
  324ccc     O2 9384   5.202   3.395   6.952 -0.2979 -0.4143  0.5423
  324ccc     O3 9385   5.164   3.345   7.145 -0.2315  0.0580 -0.4096
  324ccc     C7 9386   5.575   3.220   7.374 -0.3342  0.5850 -1.3965
  324ccc    H11 9387   5.679   3.202   7.404 -1.1625 -1.1367  0.7039
  324ccc    H12 9388   5.531   3.278   7.456  2.4589 -0.9718  1.4430
  324ccc     C8 9389   5.522   3.079   7.385 -0.1375 -0.5871  0.7872
  324ccc    H13 9390   5.413   3.075   7.396 -0.1084  1.4970  2.6688
  324ccc    H14 9391   5.562   3.020   7.302  0.5634  2.6489 -1.3079
  324ccc     C9 9392   5.569   3.017   7.515 -0.2768  0.4253  0.0810
  324ccc     O4 9393   5.516   3.052   7.621  0.2339 -0.7092 -0.6612
  324ccc     O5 9394   5.663   2.937   7.506  0.2645  0.5010  0.0720
  324ccc     O1 9395   5.937   3.249   7.012 -0.4259 -0.2009 -0.2315
  325ccc     C3 9396   7.486   4.421   5.840  0.8921  0.2251 -0.1085
  325ccc     H5 9397   7.522   4.374   5.933  0.0571 -0.5043 -0.1433
  325ccc     H6 9398   7.550   4.382   5.760  1.0803 -0.1476  0.2134
  325ccc     C2 9399   7.501   4.575   5.853 -0.4020 -0.2787  0.8710
  325ccc     H3 9400   7.506   4.626   5.756  2.0469  0.9882  1.5783
  325ccc     H4 9401   7.601   4.585   5.897 -0.2234  0.2728  0.3619
  325ccc     C1 9402   7.399   4.654   5.937  0.7293 -0.3822  0.6277
  325ccc     H1 9403   7.304   4.662   5.883  2.0045  1.0984 -1.5376
  325ccc     H2 9404   7.425   4.760   5.939  0.6442 -0.3638  0.7372
  325ccc     N1 9405   7.372   4.612   6.075  0.4099  0.0079  0.0081
  325ccc     C4 9406   7.493   4.618   6.160 -0.1658 -0.3474  0.0333
  325ccc     H7 9407   7.526   4.723   6.162 -3.8536  0.9243  1.1551
  325ccc     H8 9408   7.575   4.557   6.120  1.4868  2.6351 -1.4716
  325ccc     C5 9409   7.461   4.562   6.303 -0.5780  0.1670  0.0913
  325ccc     H9 9410   7.397   4.630   6.359 -0.1730  0.5466  0.0952
  325ccc    H10 9411   7.416   4.462   6.295 -0.8077  0.2142  0.7317
  325ccc     C6 9412   7.574   4.545   6.391  0.2529 -0.2823 -0.0069
  325ccc     O2 9413   7.652   4.458   6.373 -0.2847 -0.0053 -0.1080
  325ccc     O3 9414   7.578   4.601   6.501  0.0428  0.2925  0.0302
  325ccc     C7 9415   7.249   4.685   6.129 -0.5701  0.0729  0.1513
  325ccc    H11 9416   7.158   4.664   6.071 -0.3287 -0.9956  0.1395
  325ccc    H12 9417   7.227   4.646   6.229 -1.6866  0.5450  0.1122
  325ccc     C8 9418   7.274   4.841   6.142  0.0247 -0.7883  0.4834
  325ccc    H13 9419   7.376   4.869   6.169  0.1515 -1.3825  0.6357
  325ccc    H14 9420   7.241   4.899   6.055 -0.0294  0.1465  1.1137
  325ccc     C9 9421   7.184   4.886   6.247  0.1059 -0.2602 -0.7199
  325ccc     O4 9422   7.222   4.908   6.361 -0.3245  0.1780 -0.9033
  325ccc     O5 9423   7.084   4.949   6.219  0.2585 -0.2727  0.0727
  325ccc     O1 9424   7.350   4.395   5.824  0.8517  0.5430 -0.9640
  326ccc     C3 9425   6.598   4.231   6.184  0.1684  0.4756 -0.0193
  326ccc     H5 9426   6.587   4.123   6.169  0.0897  0.4061  0.5184
  326ccc     H6 9427   6.587   4.251   6.292 -0.7849 -0.0637 -0.0025
  326ccc     C2 9428   6.466   4.282   6.123 -0.0319 -0.5661  0.7730
  326ccc     H3 9429   6.472   4.390   6.108 -1.3690 -0.9235 -4.1224
  326ccc     H4 9430   6.384   4.276   6.196 -0.3987  1.4794  0.5823
  326ccc     C1 9431   6.435   4.218   5.982 -1.1413 -0.0952  0.2581
  326ccc     H1 9432   6.459   4.113   6.001 -3.2740 -0.8686 -1.0225
  326ccc     H2 9433   6.505   4.257   5.907 -0.1226 -1.9267  0.2146
  326ccc     N1 9434   6.292   4.214   5.942  0.0363 -0.1623 -0.2181
  326ccc     C4 9435   6.270   4.118   5.831 -0.0747  0.5505 -0.4081
  326ccc     H7 9436   6.329   4.138   5.740 -2.0838 -2.9724 -2.6886
  326ccc     H8 9437   6.167   4.126   5.796 -0.8315  1.1495  1.8025
  326ccc     C5 9438   6.290   3.968   5.862  0.3730 -0.5963 -0.8789
  326ccc     H9 9439   6.389   3.941   5.901 -1.2999 -2.1967  2.7581
  326ccc    H10 9440   6.229   3.938   5.948  0.9645 -0.1638 -0.2944
  326ccc     C6 9441   6.271   3.890   5.736  0.9629  1.1375  0.2761
  326ccc     O2 9442   6.177   3.813   5.714  0.1739 -0.4306 -0.5384
  326ccc     O3 9443   6.350   3.895   5.644  0.4825 -0.1797  0.2377
  326ccc     C7 9444   6.241   4.342   5.903  0.5231 -0.2693  0.0971
  326ccc    H11 9445   6.268   4.417   5.979  0.5265 -0.6084  0.4333
  326ccc    H12 9446   6.284   4.360   5.804 -0.1448 -0.9299 -0.3242
  326ccc     C8 9447   6.091   4.343   5.906  0.7552  0.1320  0.6128
  326ccc    H13 9448   6.043   4.258   5.856 -0.4848  0.0844  1.8287
  326ccc    H14 9449   6.057   4.341   6.011 -0.8674 -2.1745  0.1198
  326ccc     C9 9450   6.030   4.469   5.846  0.1887 -0.0034  0.2403
  326ccc     O4 9451   6.086   4.563   5.796  0.3547  0.1025  0.0895
  326ccc     O5 9452   5.906   4.460   5.823 -0.1875 -0.2046 -0.2878
  326ccc     O1 9453   6.700   4.298   6.116 -0.2287 -0.3831 -0.0955
  327ccc     C3 9454   8.651   2.135   7.552  0.0244  0.0450 -0.0815
  327ccc     H5 9455   8.561   2.189   7.585  1.9876  1.7495  3.0493
  327ccc     H6 9456   8.617   2.033   7.530 -1.4026  0.5802 -0.4325
  327ccc     C2 9457   8.755   2.145   7.667  0.1120  0.7463  0.1427
  327ccc     H3 9458   8.790   2.248   7.681 -0.9230  1.0054  0.9818
  327ccc     H4 9459   8.840   2.079   7.646 -0.7331 -0.1845 -0.4475
  327ccc     C1 9460   8.690   2.098   7.802  0.3945  0.1095 -0.3624
  327ccc     H1 9461   8.621   2.178   7.833 -0.8742  0.0129 -2.6758
  327ccc     H2 9462   8.764   2.083   7.882 -1.1562 -1.1064  0.9324
  327ccc     N1 9463   8.615   1.971   7.791 -0.1480  0.1614 -0.1731
  327ccc     C4 9464   8.700   1.854   7.759  0.2281 -0.0443 -0.2217
  327ccc     H7 9465   8.766   1.840   7.845  0.2069 -2.2262 -0.5062
  327ccc     H8 9466   8.771   1.878   7.680 -1.4573  2.5500 -1.0723
  327ccc     C5 9467   8.613   1.730   7.728  0.1162 -0.3725  0.1885
  327ccc     H9 9468   8.555   1.684   7.810 -1.1585 -0.4655 -0.7298
  327ccc    H10 9469   8.532   1.758   7.660  0.2456  0.1091  0.2256
  327ccc     C6 9470   8.698   1.619   7.664 -0.4819 -0.9565  0.0488
  327ccc     O2 9471   8.740   1.528   7.730  0.1182 -0.0716 -0.4771
  327ccc     O3 9472   8.712   1.619   7.541 -0.1706  0.2521 -0.4120
  327ccc     C7 9473   8.494   1.963   7.872 -0.5116  0.3327  1.0120
  327ccc    H11 9474   8.498   1.871   7.931  2.2020 -0.0301  0.3882
  327ccc    H12 9475   8.501   2.036   7.953 -0.1136  0.3020  1.0062
  327ccc     C8 9476   8.369   1.970   7.788  0.1248  0.0273 -0.2003
  327ccc    H13 9477   8.364   2.056   7.721  2.1051  0.7747  0.5505
  327ccc    H14 9478   8.362   1.885   7.719 -1.0899  0.2766 -0.4105
  327ccc     C9 9479   8.237   1.981   7.870  0.4416  0.5272  0.3374
  327ccc     O4 9480   8.231   2.048   7.968 -0.1642 -0.0716  0.6394
  327ccc     O5 9481   8.135   1.953   7.811  0.2319  0.2246  0.1534
  327ccc     O1 9482   8.704   2.192   7.433 -0.3287 -0.2034  0.0345
  328ccc     C3 9483   9.398   1.816   7.255 -0.1202  0.1591 -0.0848
  328ccc     H5 9484   9.422   1.735   7.184 -0.6309  2.1698 -2.7390
  328ccc     H6 9485   9.456   1.904   7.223 -1.3202  0.4436 -1.6034
  328ccc     C2 9486   9.452   1.770   7.393 -0.0182  0.4818  0.1072
  328ccc     H3 9487   9.413   1.670   7.415 -2.3525  1.6650  1.6704
  328ccc     H4 9488   9.426   1.840   7.472 -0.5538  1.7698 -1.1647
  328ccc     C1 9489   9.607   1.766   7.406  0.6379 -0.4417 -0.7175
  328ccc     H1 9490   9.635   1.715   7.499 -0.8379  1.6417  0.9676
  328ccc     H2 9491   9.638   1.871   7.417 -1.6313  0.1514  0.6205
  328ccc     N1 9492   9.673   1.703   7.296 -0.0379  0.2388 -0.5163
  328ccc     C4 9493   9.654   1.555   7.301 -0.0692 -0.2053 -0.0309
  328ccc     H7 9494   9.551   1.526   7.328 -0.1659 -0.9834 -1.1799
  328ccc     H8 9495   9.713   1.500   7.375 -0.1767 -1.0598 -0.5692
  328ccc     C5 9496   9.674   1.486   7.165 -0.1471  0.1990 -0.5264
  328ccc     H9 9497   9.780   1.484   7.139  0.6239 -1.2708  2.3032
  328ccc    H10 9498   9.635   1.385   7.181 -0.6933  0.3885 -0.6259
  328ccc     C6 9499   9.589   1.541   7.058  0.0455  0.9904 -0.1194
  328ccc     O2 9500   9.637   1.573   6.953 -1.0689 -0.0084  0.0404
  328ccc     O3 9501   9.466   1.520   7.056 -0.6541 -0.3847 -0.7824
  328ccc     C7 9502   9.807   1.754   7.276  0.5783 -0.1197 -0.2482
  328ccc    H11 9503   9.842   1.774   7.378 -1.9923 -3.3340  1.4715
  328ccc    H12 9504   9.869   1.673   7.235  1.7976  0.1970  0.8834
  328ccc     C8 9505   9.808   1.873   7.186  0.1538 -0.2201  0.0644
  328ccc    H13 9506   9.767   1.837   7.091 -0.5737  0.7898 -0.0246
  328ccc    H14 9507   9.750   1.963   7.210  0.2572  0.4449 -1.9647
  328ccc     C9 9508   9.945   1.926   7.149 -0.1210  0.1470 -0.5079
  328ccc     O4 9509  10.043   1.895   7.214 -0.1375  0.3707 -0.3635
  328ccc     O5 9510   9.956   1.980   7.042  0.2115  0.3492 -0.2138
  328ccc     O1 9511   9.263   1.864   7.274 -0.1012 -0.1475 -0.3527
  329ccc     C3 9512   8.369   0.928   6.599 -0.2820 -0.0949 -0.5533
  329ccc     H5 9513   8.405   0.827   6.575 -0.4086 -0.2509 -0.1091
  329ccc     H6 9514   8.439   1.004   6.565  0.5717 -1.4797 -2.0294
  329ccc     C2 9515   8.330   0.921   6.750 -0.3469 -0.5234  0.2256
  329ccc     H3 9516   8.223   0.904   6.763 -0.3457 -0.6125  0.1239
  329ccc     H4 9517   8.361   1.015   6.795 -2.3200  0.2010  0.1348
  329ccc     C1 9518   8.403   0.799   6.813  0.0980  0.2595  0.3887
  329ccc     H1 9519   8.507   0.798   6.778 -0.7733 -1.2713 -2.5342
  329ccc     H2 9520   8.359   0.708   6.769  1.7503 -1.4592  2.1021
  329ccc     N1 9521   8.401   0.775   6.960 -0.1834  0.1172 -0.2555
  329ccc     C4 9522   8.482   0.651   6.991 -0.2291  0.2137  0.5036
  329ccc     H7 9523   8.432   0.566   6.943 -0.2544 -0.6129  1.9325
  329ccc     H8 9524   8.478   0.636   7.100  1.7983 -1.2486  0.4263
  329ccc     C5 9525   8.633   0.661   6.962  0.0938  0.0268 -0.1198
  329ccc     H9 9526   8.640   0.638   6.855 -1.2888  1.3864 -0.5456
  329ccc    H10 9527   8.663   0.763   6.986 -0.7818 -0.0374  1.3901
  329ccc     C6 9528   8.714   0.563   7.048  0.9821  0.2899 -0.6040
  329ccc     O2 9529   8.824   0.597   7.088 -0.3906 -0.1236 -0.2854
  329ccc     O3 9530   8.667   0.458   7.088 -0.1136 -0.1085 -0.2514
  329ccc     C7 9531   8.264   0.761   7.003  0.0024 -0.3571 -0.0180
  329ccc    H11 9532   8.214   0.853   6.970  1.5890  0.9626  1.1237
  329ccc    H12 9533   8.232   0.675   6.944  0.0176  0.6647 -1.5843
  329ccc     C8 9534   8.237   0.758   7.157 -0.3553  0.2753  0.2569
  329ccc    H13 9535   8.285   0.676   7.210  0.7682  0.8021  0.0762
  329ccc    H14 9536   8.289   0.847   7.193  2.1332 -0.7363 -0.6212
  329ccc     C9 9537   8.088   0.779   7.182 -0.4557 -0.5714 -0.7100
  329ccc     O4 9538   8.009   0.729   7.107  0.0153 -0.8536 -0.0205
  329ccc     O5 9539   8.058   0.822   7.293  0.2748 -0.0966  0.6168
  329ccc     O1 9540   8.253   0.960   6.518 -0.5050  0.0631  0.2483
  330ccc     C3 9541   8.263   1.435   5.945 -0.3840  0.1371 -0.2836
  330ccc     H5 9542   8.255   1.505   5.861  0.6838 -0.4551 -0.9074
  330ccc     H6 9543   8.234   1.498   6.030  1.6004 -0.4483  0.8902
  330ccc     C2 9544   8.411   1.389   5.964  0.5051 -0.2395  0.2377
  330ccc     H3 9545   8.449   1.481   6.011  0.4484 -0.4948  0.7893
  330ccc     H4 9546   8.457   1.374   5.866 -2.2515 -0.3696 -1.0977
  330ccc     C1 9547   8.425   1.261   6.058 -0.0559  0.2397 -0.1738
  330ccc     H1 9548   8.372   1.179   6.009 -3.1158  1.1216  1.4353
  330ccc     H2 9549   8.368   1.289   6.147  1.8672 -0.1687  1.2463
  330ccc     N1 9550   8.565   1.232   6.093  0.5444 -0.1118  0.4809
  330ccc     C4 9551   8.650   1.205   5.980  0.0088  0.7421 -0.5941
  330ccc     H7 9552   8.751   1.192   6.021 -0.2192 -1.9905 -0.7551
  330ccc     H8 9553   8.649   1.293   5.913  0.5720  1.8622  0.8290
  330ccc     C5 9554   8.624   1.086   5.892 -0.4035  0.3621  0.2550
  330ccc     H9 9555   8.609   0.989   5.942 -0.3542 -1.2747 -2.6893
  330ccc    H10 9556   8.537   1.108   5.829  0.6524  4.0857 -0.1142
  330ccc     C6 9557   8.730   1.071   5.798 -0.4434 -0.0615 -0.6152
  330ccc     O2 9558   8.824   0.996   5.828  0.4891 -0.2504  0.0929
  330ccc     O3 9559   8.721   1.112   5.690 -0.3236  0.1801 -0.2728
  330ccc     C7 9560   8.556   1.128   6.195  0.4065 -0.4043  0.2298
  330ccc    H11 9561   8.478   1.166   6.262  0.9294  1.5917 -0.2374
  330ccc    H12 9562   8.511   1.040   6.148  0.7980 -1.0925  1.0911
  330ccc     C8 9563   8.683   1.091   6.273 -0.4564  1.1093  0.6465
  330ccc    H13 9564   8.748   1.178   6.292  0.5591  1.1439 -2.3400
  330ccc    H14 9565   8.652   1.062   6.374 -0.1780 -2.0718 -0.0734
  330ccc     C9 9566   8.759   0.982   6.206 -0.3045 -0.2835  0.0108
  330ccc     O4 9567   8.853   1.005   6.143 -0.3976 -0.3603 -0.0475
  330ccc     O5 9568   8.736   0.868   6.243 -0.5439 -0.0623  0.4676
  330ccc     O1 9569   8.185   1.316   5.929  0.0965 -0.4708 -0.1767
  331ccc     C3 9570   7.097   0.967   7.702 -0.4372 -0.8841 -0.1783
  331ccc     H5 9571   7.025   0.970   7.784 -1.4853  0.2716 -1.1058
  331ccc     H6 9572   7.060   0.918   7.611 -1.2615 -1.6617  0.5581
  331ccc     C2 9573   7.214   0.883   7.752 -0.5057 -0.3810  0.3030
  331ccc     H3 9574   7.187   0.777   7.743  1.1781 -0.6842 -2.3548
  331ccc     H4 9575   7.240   0.909   7.855  0.8184 -0.3149 -0.0367
  331ccc     C1 9576   7.344   0.897   7.668 -0.1012 -0.6639  0.7890
  331ccc     H1 9577   7.396   0.994   7.674  0.9077 -1.1992  1.0103
  331ccc     H2 9578   7.303   0.896   7.566 -0.2165  0.0937  0.8208
  331ccc     N1 9579   7.447   0.787   7.673  0.6912 -0.2066 -0.3395
  331ccc     C4 9580   7.528   0.800   7.556  0.4882  0.4127 -0.0287
  331ccc     H7 9581   7.592   0.890   7.558 -2.6045  2.8367 -1.3273
  331ccc     H8 9582   7.463   0.817   7.470  1.0082  2.7997 -0.0283
  331ccc     C5 9583   7.606   0.673   7.534 -0.1056  0.6832  0.2816
  331ccc     H9 9584   7.658   0.641   7.625  0.2116 -0.3130 -0.2349
  331ccc    H10 9585   7.536   0.598   7.495 -0.0339  0.0067  1.4101
  331ccc     C6 9586   7.708   0.704   7.421  0.4840  0.1098  0.0595
  331ccc     O2 9587   7.819   0.757   7.447  0.3971  0.3380  0.4385
  331ccc     O3 9588   7.678   0.674   7.303  0.6285  0.8327  0.6755
  331ccc     C7 9589   7.511   0.778   7.806  0.0575  0.7019 -0.0310
  331ccc    H11 9590   7.439   0.778   7.889  1.8342  0.9559  1.5729
  331ccc    H12 9591   7.578   0.693   7.823  0.3379  1.3082  2.1510
  331ccc     C8 9592   7.607   0.893   7.828 -0.0954  0.1688  0.6850
  331ccc    H13 9593   7.684   0.886   7.750 -2.0379  0.7039 -1.3938
  331ccc    H14 9594   7.557   0.990   7.823 -0.9310 -0.3318 -1.6744
  331ccc     C9 9595   7.669   0.895   7.957  0.0170  0.0620 -1.4866
  331ccc     O4 9596   7.780   0.837   7.972  0.3671 -0.3540  0.1313
  331ccc     O5 9597   7.653   0.987   8.037  0.2426 -0.5967 -0.3036
  331ccc     O1 9598   7.133   1.101   7.661 -0.5645 -0.7743  0.6762
  332ccc     C3 9599   7.190   1.965   7.774 -0.5541  0.1719 -0.0624
  332ccc     H5 9600   7.190   1.957   7.884 -0.7073  0.0767 -0.0669
  332ccc     H6 9601   7.278   1.910   7.737 -0.3765  0.5400 -0.1834
  332ccc     C2 9602   7.197   2.114   7.734 -0.4238 -0.0524  0.8213
  332ccc     H3 9603   7.288   2.156   7.778 -0.2202 -0.1223  0.4732
  332ccc     H4 9604   7.116   2.168   7.784 -0.2372  0.8575  0.1654
  332ccc     C1 9605   7.184   2.133   7.581 -0.0789 -0.6714 -0.1190
  332ccc     H1 9606   7.101   2.069   7.549 -0.1752 -0.2074 -0.8244
  332ccc     H2 9607   7.275   2.097   7.532 -0.6907  1.8219 -3.4606
  332ccc     N1 9608   7.165   2.273   7.535 -0.4398  0.2685 -0.3805
  332ccc     C4 9609   7.271   2.368   7.576 -0.2557 -0.6561  0.7108
  332ccc     H7 9610   7.354   2.374   7.504 -1.0451 -1.9455 -0.3644
  332ccc     H8 9611   7.319   2.333   7.668  1.0494  1.0850  0.7316
  332ccc     C5 9612   7.215   2.515   7.586 -0.4783 -0.1119 -0.2097
  332ccc     H9 9613   7.281   2.584   7.639 -0.4583 -0.7008  0.5494
  332ccc    H10 9614   7.196   2.551   7.484 -1.5255  0.9116  0.3263
  332ccc     C6 9615   7.088   2.509   7.661 -1.3137 -0.3688  0.4908
  332ccc     O2 9616   6.992   2.561   7.610  0.3922  0.2660 -0.2260
  332ccc     O3 9617   7.095   2.509   7.785 -0.5078 -0.0280 -0.3989
  332ccc     C7 9618   7.127   2.282   7.398  0.9266 -1.1977  1.1993
  332ccc    H11 9619   7.103   2.387   7.380 -1.9846 -1.8358  0.8727
  332ccc    H12 9620   7.216   2.263   7.336  1.2560 -0.3131  1.3864
  332ccc     C8 9621   7.006   2.211   7.350  0.6398  0.4457  0.0125
  332ccc    H13 9622   7.025   2.103   7.364  1.3022  0.6470  0.7382
  332ccc    H14 9623   6.921   2.244   7.410 -0.8514 -3.3386  0.2841
  332ccc     C9 9624   6.978   2.242   7.203 -0.1892  0.1218 -0.0235
  332ccc     O4 9625   6.909   2.339   7.180 -0.0876 -0.1723  0.2233
  332ccc     O5 9626   7.027   2.176   7.113 -1.0431 -0.5254  0.1684
  332ccc     O1 9627   7.074   1.888   7.726  0.3404  0.3045 -0.2757
  333ccc     C3 9628   7.222   1.717   6.691  1.1252  0.3341  0.0057
  333ccc     H5 9629   7.258   1.632   6.631  0.8710  1.3406 -1.6266
  333ccc     H6 9630   7.243   1.693   6.796  0.0046 -0.4916  0.0632
  333ccc     C2 9631   7.061   1.730   6.671 -0.6740 -0.1103  0.2571
  333ccc     H3 9632   7.024   1.742   6.569  0.3863 -0.6579 -0.1969
  333ccc     H4 9633   7.033   1.827   6.714  0.2826 -0.2372  1.2242
  333ccc     C1 9634   6.971   1.631   6.748  0.9303  0.4288 -1.4392
  333ccc     H1 9635   6.983   1.658   6.854  1.4015  0.8532 -1.5949
  333ccc     H2 9636   7.008   1.529   6.732 -1.4468 -0.2302 -3.3635
  333ccc     N1 9637   6.822   1.635   6.726  1.1126 -0.6880 -0.1949
  333ccc     C4 9638   6.784   1.573   6.596  0.6060 -1.2263 -0.2869
  333ccc     H7 9639   6.762   1.467   6.610  0.2430 -1.3919 -1.9685
  333ccc     H8 9640   6.864   1.583   6.521  1.4968 -2.7076  0.4235
  333ccc     C5 9641   6.669   1.642   6.536 -0.4578 -0.6610 -0.1521
  333ccc     H9 9642   6.586   1.650   6.607  0.1241 -1.5715  0.6625
  333ccc    H10 9643   6.690   1.746   6.507 -1.7013 -0.3055  0.1843
  333ccc     C6 9644   6.636   1.558   6.417 -0.7750  0.0845  0.9263
  333ccc     O2 9645   6.542   1.482   6.422 -0.4048  0.2552  0.0319
  333ccc     O3 9646   6.666   1.592   6.301  0.0649 -0.9299  0.0526
  333ccc     C7 9647   6.727   1.589   6.834 -0.7237  0.7673  0.0780
  333ccc    H11 9648   6.622   1.578   6.805 -0.8354  1.0847  0.3570
  333ccc    H12 9649   6.778   1.496   6.863  2.0334  1.8858 -0.8098
  333ccc     C8 9650   6.737   1.677   6.952 -0.0153  0.0611 -0.2241
  333ccc    H13 9651   6.666   1.634   7.025 -2.1210  0.4515 -1.9579
  333ccc    H14 9652   6.839   1.681   6.993 -0.6257  1.9222  1.2802
  333ccc     C9 9653   6.694   1.809   6.911 -0.5810 -0.5285  0.5694
  333ccc     O4 9654   6.762   1.907   6.937 -0.0067  0.5832  0.3018
  333ccc     O5 9655   6.581   1.837   6.904  0.6262 -0.9576 -0.2088
  333ccc     O1 9656   7.288   1.837   6.646 -0.1915 -0.0770  0.2206
  334ccc     C3 9657   7.622   1.614   5.864 -0.4707  0.5835 -0.4339
  334ccc     H5 9658   7.558   1.670   5.795  0.1565  1.0608 -0.6368
  334ccc     H6 9659   7.707   1.579   5.803  1.3439  2.5676  0.8284
  334ccc     C2 9660   7.546   1.497   5.932 -0.7088  0.4231  0.1532
  334ccc     H3 9661   7.458   1.521   5.992 -1.1445 -1.5279  0.3600
  334ccc     H4 9662   7.614   1.441   5.998 -1.3841 -2.5174 -1.4684
  334ccc     C1 9663   7.496   1.392   5.823 -0.0215  0.6105  0.2615
  334ccc     H1 9664   7.489   1.290   5.862  0.3629  0.5642  0.2182
  334ccc     H2 9665   7.573   1.401   5.745 -0.0749  1.4654  0.2981
  334ccc     N1 9666   7.370   1.436   5.768 -0.4715  0.1729  0.3465
  334ccc     C4 9667   7.360   1.409   5.622  0.9834 -0.3772 -0.3914
  334ccc     H7 9668   7.259   1.424   5.584  0.7227  1.1311  0.7938
  334ccc     H8 9669   7.387   1.302   5.619  0.1255 -0.6788  1.2050
  334ccc     C5 9670   7.447   1.505   5.547  0.8957 -0.3486 -0.5797
  334ccc     H9 9671   7.429   1.602   5.595  0.9351 -0.5849 -0.0836
  334ccc    H10 9672   7.550   1.472   5.565  0.9470  0.1401  0.0479
  334ccc     C6 9673   7.419   1.514   5.396  0.0424 -0.2006  0.3585
  334ccc     O2 9674   7.497   1.495   5.301 -0.4194 -0.5131  0.2169
  334ccc     O3 9675   7.310   1.547   5.352 -0.1103  0.6555 -0.3732
  334ccc     C7 9676   7.260   1.384   5.847 -0.3067  0.1616 -0.2545
  334ccc    H11 9677   7.277   1.276   5.840 -1.1229  0.1040 -1.8460
  334ccc    H12 9678   7.267   1.421   5.950  1.9146 -1.0876  0.1029
  334ccc     C8 9679   7.125   1.414   5.786 -0.5106  0.2694  0.0325
  334ccc    H13 9680   7.109   1.522   5.778 -1.9424 -0.0105 -1.1409
  334ccc    H14 9681   7.118   1.353   5.695 -0.0407 -0.3495  0.4037
  334ccc     C9 9682   7.026   1.357   5.885  0.2189  0.1735 -0.4290
  334ccc     O4 9683   7.046   1.250   5.935 -0.5359  0.6562 -0.2944
  334ccc     O5 9684   6.913   1.399   5.885  0.3875 -0.2384 -0.0676
  334ccc     O1 9685   7.680   1.699   5.962 -0.1424  0.2218 -0.4291
  335ccc     C3 9686   8.719   4.087   5.073 -0.5973 -0.2355  0.4287
  335ccc     H5 9687   8.801   4.100   5.001 -1.2468  0.8541 -0.1513
  335ccc     H6 9688   8.713   3.982   5.104 -0.2999 -0.3471  0.1068
  335ccc     C2 9689   8.586   4.111   4.998  0.3386 -0.5524  0.3367
  335ccc     H3 9690   8.510   4.080   5.071  0.1811 -3.0371 -0.7686
  335ccc     H4 9691   8.568   4.047   4.911 -1.5657  0.1335  0.1865
  335ccc     C1 9692   8.559   4.261   4.961 -0.7832  0.6462  0.3097
  335ccc     H1 9693   8.562   4.327   5.049 -2.5518  0.4501  0.5611
  335ccc     H2 9694   8.456   4.277   4.927 -1.0129 -3.4241 -1.3926
  335ccc     N1 9695   8.664   4.306   4.869 -0.2930  0.1064 -0.1043
  335ccc     C4 9696   8.641   4.252   4.735 -0.6095 -0.3817 -0.4802
  335ccc     H7 9697   8.602   4.330   4.669 -1.2296 -0.6749 -0.4634
  335ccc     H8 9698   8.571   4.167   4.734  0.8197 -1.6099 -1.8332
  335ccc     C5 9699   8.775   4.213   4.669 -0.1134  0.7505  0.5130
  335ccc     H9 9700   8.846   4.296   4.669  1.1201 -0.2792  0.2487
  335ccc    H10 9701   8.826   4.128   4.715 -0.8007 -0.1354 -0.3137
  335ccc     C6 9702   8.745   4.180   4.529 -0.4177 -0.4346  0.3881
  335ccc     O2 9703   8.680   4.082   4.495 -0.2303 -0.2361 -0.1076
  335ccc     O3 9704   8.767   4.262   4.440  0.5476 -0.2089  0.0113
  335ccc     C7 9705   8.694   4.449   4.887  0.0508  0.4432 -0.5915
  335ccc    H11 9706   8.718   4.463   4.993  2.4430 -0.6956 -0.9211
  335ccc    H12 9707   8.773   4.479   4.818 -1.1839  1.8240 -1.4485
  335ccc     C8 9708   8.574   4.545   4.862 -0.1631  0.1216  0.4920
  335ccc    H13 9709   8.511   4.495   4.788 -0.6482  0.7804  0.4498
  335ccc    H14 9710   8.508   4.575   4.944 -1.5525  2.8115 -1.4816
  335ccc     C9 9711   8.631   4.672   4.803 -0.4097  0.5227  0.3374
  335ccc     O4 9712   8.666   4.764   4.873 -0.0116  0.5906  0.1058
  335ccc     O5 9713   8.659   4.680   4.682  0.6546  0.3802  0.3359
  335ccc     O1 9714   8.737   4.167   5.184  0.5942 -0.5218 -0.0511
  336ccc     C3 9715   9.202   4.108   4.719 -0.7192 -0.0477 -1.0904
  336ccc     H5 9716   9.310   4.124   4.728 -0.7804 -0.9037  2.1767
  336ccc     H6 9717   9.169   4.081   4.820  1.8184 -0.5752 -0.3190
  336ccc     C2 9718   9.152   4.001   4.617  0.0327 -0.0663 -0.2626
  336ccc     H3 9719   9.045   3.980   4.632  0.4606 -1.7921  0.6560
  336ccc     H4 9720   9.204   3.908   4.643 -0.1982  0.1458  1.0441
  336ccc     C1 9721   9.182   4.033   4.464  0.9332 -0.1087 -0.4549
  336ccc     H1 9722   9.279   4.079   4.440  0.9762  1.3320  2.1644
  336ccc     H2 9723   9.110   4.115   4.448  0.2370  0.0999  3.0375
  336ccc     N1 9724   9.152   3.920   4.378  0.1098  0.0743  0.6251
  336ccc     C4 9725   9.109   3.959   4.243  0.3066 -0.6191  0.0739
  336ccc     H7 9726   9.120   3.877   4.170 -1.3888 -1.3169  0.5453
  336ccc     H8 9727   9.163   4.050   4.215  0.9166 -0.8741  0.4261
  336ccc     C5 9728   8.960   3.982   4.242  0.1001  0.1159  0.5153
  336ccc     H9 9729   8.929   4.054   4.319 -3.0996  0.8345 -1.2662
  336ccc    H10 9730   8.930   4.013   4.141 -0.7413 -1.0164  0.4030
  336ccc     C6 9731   8.890   3.855   4.274  1.0987  0.3361 -0.0044
  336ccc     O2 9732   8.847   3.832   4.381 -0.2442 -0.0035 -0.3520
  336ccc     O3 9733   8.839   3.794   4.178  0.0307  0.1066 -0.7804
  336ccc     C7 9734   9.281   3.835   4.373 -0.3593 -0.1071 -0.1266
  336ccc    H11 9735   9.364   3.879   4.317  0.6332 -1.5620  0.1457
  336ccc    H12 9736   9.329   3.824   4.471  2.4327 -0.7823 -1.4687
  336ccc     C8 9737   9.264   3.691   4.320 -0.0385  0.3797  0.2979
  336ccc    H13 9738   9.199   3.689   4.232  1.0120 -1.3241 -0.4683
  336ccc    H14 9739   9.359   3.644   4.293 -0.8806 -1.5290  0.5182
  336ccc     C9 9740   9.206   3.615   4.430 -0.3644 -0.1906  0.0308
  336ccc     O4 9741   9.092   3.579   4.438  0.1338 -0.2830  0.0018
  336ccc     O5 9742   9.286   3.574   4.510 -0.2894 -0.0392  0.2981
  336ccc     O1 9743   9.142   4.225   4.673 -0.3765 -0.2203 -0.2728
  337ccc     C3 9744   9.349   5.515   6.538 -0.1068 -0.0511 -0.4810
  337ccc     H5 9745   9.326   5.497   6.644 -0.8849  2.8845 -0.0839
  337ccc     H6 9746   9.359   5.624   6.537 -1.1152  0.0865  1.3258
  337ccc     C2 9747   9.228   5.480   6.459  0.0226 -0.0912  0.0587
  337ccc     H3 9748   9.138   5.506   6.517  0.1709  2.5999 -0.7822
  337ccc     H4 9749   9.233   5.371   6.449 -0.4693 -0.3025  1.7264
  337ccc     C1 9750   9.228   5.552   6.323  0.0770  0.4037 -0.1517
  337ccc     H1 9751   9.314   5.529   6.259 -0.6652 -1.8209 -0.4383
  337ccc     H2 9752   9.238   5.659   6.347  0.5796 -0.1762  2.5933
  337ccc     N1 9753   9.098   5.532   6.258 -0.0964 -0.4270  0.0092
  337ccc     C4 9754   9.046   5.657   6.191  0.8099 -0.2642 -0.0753
  337ccc     H7 9755   9.000   5.637   6.094  0.0297  1.0563  0.0089
  337ccc     H8 9756   9.135   5.718   6.171  2.5114 -2.4761  0.3763
  337ccc     C5 9757   8.955   5.736   6.291  0.2776  0.6248 -0.1437
  337ccc     H9 9758   8.877   5.671   6.333 -0.7058  1.7239 -0.2455
  337ccc    H10 9759   9.015   5.790   6.365  2.4517  0.3478 -1.5982
  337ccc     C6 9760   8.893   5.830   6.192  0.0244 -0.2277 -0.6957
  337ccc     O2 9761   8.791   5.802   6.131  0.2007 -0.1584 -0.5605
  337ccc     O3 9762   8.950   5.932   6.150  0.5947 -0.2159 -0.4695
  337ccc     C7 9763   9.118   5.426   6.156  0.2929  0.0775 -0.1175
  337ccc    H11 9764   9.176   5.461   6.071 -1.7895  1.2884 -1.0974
  337ccc    H12 9765   9.183   5.346   6.195  1.1674  0.6891 -0.3095
  337ccc     C8 9766   8.994   5.360   6.117 -0.7843 -0.3159 -0.4965
  337ccc    H13 9767   9.009   5.252   6.105 -0.6778 -0.4828  1.0176
  337ccc    H14 9768   8.909   5.360   6.186 -0.6331  0.2086 -0.3033
  337ccc     C9 9769   8.958   5.417   5.985  0.0201  0.7196  0.4905
  337ccc     O4 9770   8.839   5.448   5.971  0.2624  0.6660 -0.4453
  337ccc     O5 9771   9.021   5.384   5.888  0.1012 -0.5064 -0.0950
  337ccc     O1 9772   9.465   5.449   6.498 -0.4742 -0.4198 -0.2916
  338ccc     C3 9773   9.622   5.738   5.844  0.4382 -0.3954  0.5801
  338ccc     H5 9774   9.637   5.840   5.882 -0.6085 -0.2784  0.6993
  338ccc     H6 9775   9.716   5.710   5.796 -0.6874 -3.1025 -0.2375
  338ccc     C2 9776   9.515   5.727   5.734  0.3426 -0.5951 -0.3071
  338ccc     H3 9777   9.519   5.628   5.686 -0.1236 -0.4327 -0.6906
  338ccc     H4 9778   9.541   5.795   5.652  1.9834 -2.1399 -1.1195
  338ccc     C1 9779   9.374   5.757   5.799  0.3120  0.3491  0.8663
  338ccc     H1 9780   9.365   5.860   5.836 -1.2397  0.9286 -0.9496
  338ccc     H2 9781   9.369   5.705   5.895 -0.3212  1.7608  1.6249
  338ccc     N1 9782   9.263   5.726   5.702 -0.3528  0.1460 -0.0688
  338ccc     C4 9783   9.250   5.582   5.674  0.3433 -0.2398  0.1241
  338ccc     H7 9784   9.206   5.532   5.761  1.4267  1.1486  1.5323
  338ccc     H8 9785   9.341   5.530   5.643 -0.1639 -0.4338 -1.1297
  338ccc     C5 9786   9.152   5.559   5.552  0.0640  0.2613  0.4657
  338ccc     H9 9787   9.052   5.603   5.565  0.4670  0.9879  1.3104
  338ccc    H10 9788   9.192   5.605   5.461 -1.0827  0.9229  0.2737
  338ccc     C6 9789   9.141   5.411   5.541  0.0118 -0.5999  0.4823
  338ccc     O2 9790   9.207   5.351   5.458 -0.2431 -0.3465 -1.2028
  338ccc     O3 9791   9.076   5.339   5.612 -0.7159 -0.2762  0.1768
  338ccc     C7 9792   9.146   5.810   5.731  0.0491  0.3989  0.1046
  338ccc    H11 9793   9.173   5.915   5.749  0.0567  0.1287  1.8666
  338ccc    H12 9794   9.072   5.807   5.650 -0.6011 -0.5140  0.7167
  338ccc     C8 9795   9.056   5.759   5.840  0.4774 -0.2426 -0.1547
  338ccc    H13 9796   9.031   5.654   5.820 -1.7564  0.2795 -0.3285
  338ccc    H14 9797   9.096   5.775   5.941 -0.8817  1.1192  0.1940
  338ccc     C9 9798   8.927   5.828   5.835  0.2339  0.0575  0.3972
  338ccc     O4 9799   8.832   5.751   5.833  0.1842  0.1794 -0.0367
  338ccc     O5 9800   8.920   5.944   5.874 -0.2631 -0.4032  0.3125
  338ccc     O1 9801   9.584   5.644   5.948  0.1240  0.3556 -0.9797
  339ccc     C3 9802   8.407   3.706   4.996  0.4238  0.0161  0.0084
  339ccc     H5 9803   8.403   3.807   4.955  2.6224 -0.6974 -2.2348
  339ccc     H6 9804   8.457   3.712   5.093  1.5912  1.7411 -0.6655
  339ccc     C2 9805   8.487   3.623   4.891 -0.0491  0.6012 -0.1257
  339ccc     H3 9806   8.503   3.522   4.929 -0.0222  0.1677 -1.2579
  339ccc     H4 9807   8.590   3.655   4.869  1.7287 -4.0768  0.3218
  339ccc     C1 9808   8.414   3.623   4.754 -0.2797 -0.4598 -0.4777
  339ccc     H1 9809   8.430   3.721   4.707  1.6876 -0.3695  0.2780
  339ccc     H2 9810   8.306   3.631   4.774  0.0873  2.0088  0.9781
  339ccc     N1 9811   8.457   3.510   4.669  0.5065  0.5284  0.2216
  339ccc     C4 9812   8.573   3.544   4.596 -0.2596 -0.3581  0.8225
  339ccc     H7 9813   8.614   3.639   4.631  1.0198  0.7934 -3.2446
  339ccc     H8 9814   8.551   3.573   4.492  1.0954  0.3701  0.7137
  339ccc     C5 9815   8.682   3.431   4.594  0.3899 -0.3990  0.3402
  339ccc     H9 9816   8.738   3.425   4.689 -0.1301 -1.2906  0.6015
  339ccc    H10 9817   8.636   3.331   4.595 -1.1017  0.2439  2.2349
  339ccc     C6 9818   8.780   3.446   4.483 -0.6000 -0.4581 -0.3452
  339ccc     O2 9819   8.824   3.349   4.419  0.0638  0.4366 -0.0691
  339ccc     O3 9820   8.790   3.551   4.426 -0.0369 -0.0847  0.0834
  339ccc     C7 9821   8.350   3.461   4.579  0.4788 -0.1817 -0.3227
  339ccc    H11 9822   8.323   3.541   4.509 -0.3100  0.0481  0.2295
  339ccc    H12 9823   8.399   3.382   4.520  2.4769  0.2512  0.6747
  339ccc     C8 9824   8.216   3.419   4.648  0.4957  0.6006  0.3145
  339ccc    H13 9825   8.221   3.360   4.740 -3.0516  0.7347  0.7264
  339ccc    H14 9826   8.169   3.510   4.687  0.3536  0.5719  0.2121
  339ccc     C9 9827   8.119   3.362   4.547  0.3373  0.1588 -0.4658
  339ccc     O4 9828   8.014   3.415   4.524  0.2386  0.0007  0.2094
  339ccc     O5 9829   8.139   3.251   4.516 -0.0090  0.9153 -0.2145
  339ccc     O1 9830   8.271   3.650   5.012  0.5361 -0.3225 -0.3311
  340ccc     C3 9831   8.197   4.142   4.943  0.4601 -0.0995  0.1999
  340ccc     H5 9832   8.211   4.251   4.945  0.8265 -0.1511  0.7942
  340ccc     H6 9833   8.283   4.098   4.995  0.7779 -0.4962 -0.6403
  340ccc     C2 9834   8.208   4.093   4.801  0.2067 -0.9231 -0.5938
  340ccc     H3 9835   8.303   4.134   4.762  0.6838 -1.7610 -0.3371
  340ccc     H4 9836   8.125   4.137   4.745  0.4193  1.1639  0.5990
  340ccc     C1 9837   8.206   3.940   4.768  0.0339  0.7043 -0.5381
  340ccc     H1 9838   8.121   3.896   4.822  1.9874 -0.1617  2.0763
  340ccc     H2 9839   8.294   3.898   4.819 -1.5542 -1.6498  0.4407
  340ccc     N1 9840   8.208   3.905   4.627  0.0280  0.1950 -0.2822
  340ccc     C4 9841   8.323   3.952   4.554 -0.8607 -0.4704 -0.3595
  340ccc     H7 9842   8.412   3.935   4.615  0.4630 -0.9773 -2.3675
  340ccc     H8 9843   8.312   4.060   4.536  1.0089  0.1182  1.6532
  340ccc     C5 9844   8.333   3.876   4.419 -0.7462 -0.3781 -0.2235
  340ccc     H9 9845   8.303   3.771   4.426 -0.7134 -0.2676  2.6319
  340ccc    H10 9846   8.268   3.929   4.348  2.5617  3.7990 -0.5442
  340ccc     C6 9847   8.469   3.878   4.354  0.4724 -0.0797 -0.5601
  340ccc     O2 9848   8.488   3.963   4.269 -0.3363 -0.7401 -0.5548
  340ccc     O3 9849   8.571   3.830   4.399 -0.0388  0.1772  0.3891
  340ccc     C7 9850   8.074   3.902   4.576  0.7173  0.8454  0.6303
  340ccc    H11 9851   8.013   3.976   4.628 -0.3156  0.0621  0.5836
  340ccc    H12 9852   8.074   3.927   4.469 -0.4272 -1.2845  0.0669
  340ccc     C8 9853   8.013   3.759   4.600  0.7931 -0.4963  0.3966
  340ccc    H13 9854   8.072   3.683   4.547 -0.5368 -1.5881  0.4434
  340ccc    H14 9855   8.023   3.733   4.706  2.4897 -0.7208  0.2106
  340ccc     C9 9856   7.878   3.746   4.542  0.2202 -0.6631  0.4978
  340ccc     O4 9857   7.791   3.803   4.600  0.0513 -0.2688  0.4946
  340ccc     O5 9858   7.853   3.647   4.476  0.0422  0.2224 -0.4341
  340ccc     O1 9859   8.066   4.111   5.003 -0.2054  0.3727  0.7643
  341ccc     C3 9860   7.186   4.999   5.079 -0.4665 -0.8489  0.0509
  341ccc     H5 9861   7.194   5.032   5.183  2.0955  0.0566 -0.3554
  341ccc     H6 9862   7.247   5.076   5.030 -2.3708 -0.9651 -2.7528
  341ccc     C2 9863   7.046   5.007   5.012 -0.3315  0.5861 -0.5474
  341ccc     H3 9864   6.982   4.922   5.038 -1.9974  1.6526 -1.0006
  341ccc     H4 9865   7.054   5.010   4.903 -2.8760 -2.4670 -0.9917
  341ccc     C1 9866   6.973   5.131   5.072  0.2592  0.8738 -0.2235
  341ccc     H1 9867   6.912   5.179   4.994 -0.9101 -0.1028  0.0559
  341ccc     H2 9868   7.050   5.209   5.085  0.3105  0.6133  1.2298
  341ccc     N1 9869   6.894   5.103   5.192  0.0146 -0.7428  0.0989
  341ccc     C4 9870   6.906   5.215   5.284 -0.8369  0.1568 -0.2436
  341ccc     H7 9871   6.864   5.311   5.251  0.5219  1.3903  1.4125
  341ccc     H8 9872   7.012   5.237   5.299 -0.3701 -2.9375  1.6704
  341ccc     C5 9873   6.847   5.173   5.424  0.1424 -0.2179  0.1608
  341ccc     H9 9874   6.847   5.064   5.429  0.6226 -0.3756 -2.1122
  341ccc    H10 9875   6.918   5.208   5.501  0.8714  0.0837 -0.6359
  341ccc     C6 9876   6.709   5.239   5.447 -0.1325  0.4504  0.2223
  341ccc     O2 9877   6.693   5.358   5.476  0.3287 -0.4644  0.2659
  341ccc     O3 9878   6.614   5.167   5.435 -0.1957  0.5760 -0.9377
  341ccc     C7 9879   6.762   5.039   5.157 -1.0513 -0.7722  0.5246
  341ccc    H11 9880   6.783   4.956   5.089 -1.0175 -0.2699 -0.0820
  341ccc    H12 9881   6.710   5.000   5.245  0.9131  0.0194  2.1471
  341ccc     C8 9882   6.655   5.131   5.098 -0.1027  0.3363 -0.6039
  341ccc    H13 9883   6.629   5.211   5.169  0.1145 -0.5489  0.5036
  341ccc    H14 9884   6.679   5.174   5.000 -0.0729 -0.4420 -0.9409
  341ccc     C9 9885   6.539   5.040   5.082 -0.2571 -0.6429 -0.3343
  341ccc     O4 9886   6.502   5.010   4.971 -0.1096  0.2242  0.0179
  341ccc     O5 9887   6.477   4.999   5.181 -0.1992  0.0575  0.5807
  341ccc     O1 9888   7.237   4.864   5.070  0.4573  0.1411 -0.6764
  342ccc     C3 9889   7.923   4.376   4.785 -0.1548  0.8978 -0.3232
  342ccc     H5 9890   7.933   4.371   4.894 -1.3836  2.4186 -0.1077
  342ccc     H6 9891   7.935   4.279   4.734  0.3465 -0.5950  2.4289
  342ccc     C2 9892   8.021   4.483   4.737 -0.8919 -0.8116 -0.2869
  342ccc     H3 9893   8.122   4.471   4.778  0.8859  4.0878 -2.4528
  342ccc     H4 9894   7.994   4.583   4.772 -0.1732 -0.5317 -0.5081
  342ccc     C1 9895   8.028   4.504   4.588 -0.2580 -0.5957  0.1375
  342ccc     H1 9896   8.105   4.583   4.582 -1.2562  0.3455 -0.6879
  342ccc     H2 9897   7.939   4.559   4.554 -2.3358 -2.7371  1.8220
  342ccc     N1 9898   8.066   4.385   4.505  0.2134 -0.4104 -1.1854
  342ccc     C4 9899   7.943   4.356   4.431  0.2902  0.3940  0.2115
  342ccc     H7 9900   7.915   4.433   4.358 -0.0253 -1.2879 -1.5381
  342ccc     H8 9901   7.865   4.340   4.506  0.9442 -0.2392  0.7689
  342ccc     C5 9902   7.957   4.224   4.352 -0.8878 -0.5260 -0.5483
  342ccc     H9 9903   7.969   4.245   4.245 -0.0416  1.0168 -0.1684
  342ccc    H10 9904   8.044   4.172   4.393 -0.3920  1.1389  0.6137
  342ccc     C6 9905   7.830   4.153   4.372  0.5087 -0.4937 -0.8037
  342ccc     O2 9906   7.804   4.094   4.473  0.4617  0.0501 -0.1898
  342ccc     O3 9907   7.740   4.164   4.290  0.1313  0.4342 -0.4726
  342ccc     C7 9908   8.190   4.397   4.434 -0.2969  0.4643  0.3341
  342ccc    H11 9909   8.200   4.303   4.377  0.7694 -0.9871  2.7848
  342ccc    H12 9910   8.189   4.478   4.360 -1.9030  0.3746  0.2167
  342ccc     C8 9911   8.315   4.396   4.519  0.3590  0.2601 -0.1360
  342ccc    H13 9912   8.318   4.467   4.602  1.2494  1.5332 -1.2087
  342ccc    H14 9913   8.309   4.291   4.550 -3.3366 -0.3876 -2.4746
  342ccc     C9 9914   8.432   4.415   4.430 -0.5078 -0.2727  0.0904
  342ccc     O4 9915   8.492   4.523   4.427 -0.1933 -0.0667 -1.3062
  342ccc     O5 9916   8.484   4.317   4.368  0.2093 -0.4663  0.6314
  342ccc     O1 9917   7.792   4.426   4.753 -0.0520  0.4090 -0.1251
  343ccc     C3 9918   9.717   3.070   7.254  1.0343 -0.3407  0.5765
  343ccc     H5 9919   9.713   3.086   7.146 -2.1212  0.7242  0.7457
  343ccc     H6 9920   9.652   3.139   7.310 -0.2384 -0.5752 -0.5551
  343ccc     C2 9921   9.862   3.068   7.305 -0.2558  0.0083  0.8641
  343ccc     H3 9922   9.920   3.143   7.252 -0.9159  1.1718  1.7312
  343ccc     H4 9923   9.915   2.976   7.279 -0.5870  0.0435  0.0277
  343ccc     C1 9924   9.864   3.095   7.459  0.5996 -0.2616  0.5906
  343ccc     H1 9925   9.827   3.012   7.519 -1.7215  2.0061  2.5006
  343ccc     H2 9926   9.798   3.179   7.483 -1.6788 -2.0244  0.7692
  343ccc     N1 9927   9.993   3.139   7.512 -0.3566 -0.5909 -0.1361
  343ccc     C4 9928   9.966   3.174   7.646  0.2100  0.4671  0.3101
  343ccc     H7 9929   9.963   3.092   7.719 -0.2028  0.9426  0.8389
  343ccc     H8 9930   9.874   3.233   7.658 -1.2644 -1.7159  0.3174
  343ccc     C5 9931  10.080   3.263   7.704  0.1918 -0.0898 -0.2129
  343ccc     H9 9932  10.177   3.212   7.705 -0.3891 -1.2516 -1.1985
  343ccc    H10 9933  10.079   3.361   7.654 -0.5154  0.5444  0.9967
  343ccc     C6 9934  10.051   3.284   7.846 -0.3229  0.5590 -0.6159
  343ccc     O2 9935  10.051   3.197   7.933  0.0942 -0.4272  0.1942
  343ccc     O3 9936  10.012   3.397   7.888  0.2297  0.3507 -0.0942
  343ccc     C7 9937  10.103   3.042   7.483  0.3501 -0.6389 -0.4340
  343ccc    H11 9938  10.108   3.015   7.377  1.6393  0.5198 -0.6895
  343ccc    H12 9939  10.197   3.078   7.526  0.3365 -2.3006  1.1058
  343ccc     C8 9940  10.079   2.908   7.562  0.0597 -0.3488 -0.1405
  343ccc    H13 9941  10.068   2.927   7.670 -1.5874  1.3836 -0.5613
  343ccc    H14 9942   9.992   2.859   7.518  1.6436 -0.7811 -3.0181
  343ccc     C9 9943  10.192   2.822   7.544  0.0459  0.2213  0.4886
  343ccc     O4 9944  10.281   2.828   7.625 -0.4150  0.2062  0.1801
  343ccc     O5 9945  10.182   2.731   7.460  0.2831  0.3670  0.1503
  343ccc     O1 9946   9.660   2.942   7.293 -0.0293 -0.2147 -0.5381
  344ccc     C3 9947   9.399   2.583   8.063 -0.8322  1.2844 -0.2858
  344ccc     H5 9948   9.301   2.537   8.078  0.4807 -1.8338 -0.5285
  344ccc     H6 9949   9.478   2.507   8.074 -2.4430 -0.1030  2.9344
  344ccc     C2 9950   9.412   2.697   8.162  0.2363 -0.5101 -0.3689
  344ccc     H3 9951   9.405   2.648   8.260 -1.6988  1.0075  0.3284
  344ccc     H4 9952   9.325   2.762   8.152  0.3990  0.1628  2.0997
  344ccc     C1 9953   9.540   2.779   8.154  0.0297 -0.6846  0.5817
  344ccc     H1 9954   9.555   2.824   8.055  1.2950 -0.6319  0.7832
  344ccc     H2 9955   9.629   2.715   8.148  0.5188  0.0836 -0.9347
  344ccc     N1 9956   9.550   2.889   8.252 -0.5725 -0.7617 -0.2257
  344ccc     C4 9957   9.682   2.960   8.228  0.2752 -0.5769  0.5413
  344ccc     H7 9958   9.710   2.954   8.123  0.1856 -2.5765  0.5910
  344ccc     H8 9959   9.769   2.918   8.281  0.4414 -0.9198  0.0001
  344ccc     C5 9960   9.664   3.108   8.269 -0.0575 -0.6956  0.7015
  344ccc     H9 9961   9.625   3.130   8.370  1.1340  0.4667  0.9241
  344ccc    H10 9962   9.592   3.159   8.205 -0.8836 -0.5649  1.7066
  344ccc     C6 9963   9.800   3.173   8.253  0.4623 -0.7257  0.1574
  344ccc     O2 9964   9.875   3.168   8.350  0.2977  0.2522  0.0109
  344ccc     O3 9965   9.860   3.188   8.146 -0.0766 -0.2780 -0.1734
  344ccc     C7 9966   9.508   2.869   8.393  0.0687  0.1609 -0.3170
  344ccc    H11 9967   9.510   2.959   8.457 -3.9996  1.1079 -1.2540
  344ccc    H12 9968   9.408   2.824   8.393 -0.3156  0.9912 -0.0038
  344ccc     C8 9969   9.596   2.768   8.467 -0.0408 -0.2275 -1.2228
  344ccc    H13 9970   9.561   2.664   8.460 -0.9321 -0.2093  1.7254
  344ccc    H14 9971   9.697   2.776   8.424  0.1052  1.0021 -0.6819
  344ccc     C9 9972   9.604   2.818   8.614 -0.5433  0.4261  0.4043
  344ccc     O4 9973   9.517   2.790   8.694 -0.8118  0.0952 -0.4534
  344ccc     O5 9974   9.709   2.856   8.660 -0.4046 -0.1711 -0.7489
  344ccc     O1 9975   9.407   2.639   7.934  0.0083  0.2726 -0.4449
  345ccc     C3 9976   9.369   3.203   6.184 -0.4427  0.9420 -0.0881
  345ccc     H5 9977   9.326   3.133   6.111  1.2346 -0.9946  0.6805
  345ccc     H6 9978   9.315   3.214   6.279  1.5623 -0.5543  1.3258
  345ccc     C2 9979   9.428   3.335   6.128  0.3329  0.1266 -0.3971
  345ccc     H3 9980   9.476   3.381   6.215  0.0006 -0.3291  0.0351
  345ccc     H4 9981   9.346   3.399   6.093  1.0650  0.7709 -0.9433
  345ccc     C1 9982   9.535   3.308   6.024  0.0415 -0.2211 -0.5721
  345ccc     H1 9983   9.496   3.234   5.953 -1.3806  0.2266 -0.2808
  345ccc     H2 9984   9.624   3.270   6.075 -0.6279  0.3225  1.0616
  345ccc     N1 9985   9.571   3.432   5.948  0.2516  0.4434 -0.2075
  345ccc     C4 9986   9.715   3.436   5.890 -0.8571  0.1040 -0.9521
  345ccc     H7 9987   9.715   3.522   5.822  2.7313 -0.4405 -1.8234
  345ccc     H8 9988   9.740   3.359   5.816  0.3787 -0.4296 -0.0039
  345ccc     C5 9989   9.830   3.442   5.993  0.4239  0.0259 -0.3100
  345ccc     H9 9990   9.805   3.508   6.077  4.0251  0.3489  0.6780
  345ccc    H10 9991   9.848   3.341   6.032 -1.0468  0.5491  1.9109
  345ccc     C6 9992   9.951   3.498   5.935 -0.5939  0.5031 -0.3452
  345ccc     O2 9993  10.031   3.419   5.896 -0.4937 -0.3322 -0.2809
  345ccc     O3 9994   9.948   3.610   5.897 -0.6687 -0.3052  0.1508
  345ccc     C7 9995   9.473   3.458   5.846  0.0843 -0.5862 -0.3777
  345ccc    H11 9996   9.483   3.387   5.763 -0.5928 -1.7775  0.5125
  345ccc    H12 9997   9.378   3.436   5.897 -0.0414  0.5723 -0.0884
  345ccc     C8 9998   9.471   3.606   5.798  0.1372 -0.1895 -0.3162
  345ccc    H13 9999   9.455   3.669   5.886  0.1685 -0.3709 -0.1799
  345ccc    H1410000   9.563   3.636   5.745 -0.3993 -0.9246 -1.7147
  345ccc     C910001   9.355   3.616   5.706 -0.1669 -0.2205  0.1506
  345ccc     O410002   9.374   3.586   5.592 -0.0887 -0.4007 -0.0952
  345ccc     O510003   9.243   3.628   5.751 -0.2729  0.7478  0.2799
  345ccc     O110004   9.484   3.125   6.224 -0.0944 -0.4940 -0.2198
  346ccc     C310005  10.265   2.703   6.622 -0.4332 -0.6012 -0.6692
  346ccc     H510006  10.294   2.698   6.516  0.4355  0.1166 -0.4769
  346ccc     H610007  10.307   2.792   6.671 -0.3392 -1.4422  0.8127
  346ccc     C210008  10.322   2.574   6.678 -0.5248  0.1797 -0.0029
  346ccc     H310009  10.426   2.564   6.644 -0.3156  1.1871  0.2928
  346ccc     H410010  10.283   2.484   6.630  1.5028 -1.3507  1.0334
  346ccc     C110011  10.302   2.580   6.828  0.1553  0.4240  0.1010
  346ccc     H110012  10.194   2.581   6.850  0.1952 -2.4617  0.7467
  346ccc     H210013  10.346   2.669   6.875  0.9021 -0.5162  1.2262
  346ccc     N110014  10.359   2.466   6.909  0.8265  0.1712 -0.4352
  346ccc     C410015  10.299   2.474   7.040 -0.5882 -0.0713  0.2883
  346ccc     H710016  10.219   2.401   7.061  1.1763 -1.4699  2.5842
  346ccc     H810017  10.261   2.574   7.064  0.6333  0.1464  1.4467
  346ccc     C510018  10.412   2.472   7.147  0.7941  0.9651 -1.0233
  346ccc     H910019  10.488   2.398   7.118  1.6170  1.7216 -0.8442
  346ccc    H1010020  10.449   2.572   7.175 -2.6830  1.8481  0.9562
  346ccc     C610021  10.347   2.425   7.275 -0.0802  0.1091  0.0429
  346ccc     O210022  10.355   2.306   7.301 -0.1848  0.0814  0.0525
  346ccc     O310023  10.313   2.498   7.365  0.9478  0.6465 -0.0557
  346ccc     C710024  10.335   2.332   6.850 -0.2640 -0.0002 -0.6504
  346ccc    H1110025  10.227   2.320   6.830 -0.6393  1.0089  0.6902
  346ccc    H1210026  10.389   2.339   6.755  1.6701  0.2809  0.4372
  346ccc     C810027  10.398   2.207   6.917 -0.2125 -0.2780  0.1653
  346ccc    H1310028  10.507   2.213   6.909 -0.1625  2.2094  1.6889
  346ccc    H1410029  10.376   2.201   7.025  1.5575  3.1731  0.8601
  346ccc     C910030  10.343   2.080   6.863 -0.5122 -0.0346  0.1530
  346ccc     O410031  10.232   2.044   6.891  0.0961 -0.7122  0.3649
  346ccc     O510032  10.413   1.995   6.809 -0.1750 -0.2846 -0.1985
  346ccc     O110033  10.126   2.698   6.636 -0.7302 -0.3398  0.4031
  347ccc     C310034   7.891   2.806   5.244 -0.3927 -0.5122  0.3667
  347ccc     H510035   7.884   2.707   5.197 -0.0477  0.1469 -1.1356
  347ccc     H610036   7.836   2.801   5.339  0.8230  2.4110  1.3754
  347ccc     C210037   7.815   2.916   5.156 -0.0246 -0.3251 -0.4301
  347ccc     H310038   7.708   2.897   5.174 -0.0234  0.6365  0.7613
  347ccc     H410039   7.826   2.902   5.048 -0.1794 -1.3542 -0.3200
  347ccc     C110040   7.845   3.063   5.189  0.7990 -0.1692  0.0569
  347ccc     H110041   7.952   3.087   5.183  1.1795 -1.1899  2.0400
  347ccc     H210042   7.801   3.081   5.287  1.0970  2.6930 -0.2560
  347ccc     N110043   7.773   3.159   5.097 -0.2477  0.6031  0.2760
  347ccc     C410044   7.775   3.140   4.951  0.1287  0.1968  0.1842
  347ccc     H710045   7.701   3.214   4.915  2.9873  2.3444 -1.7004
  347ccc     H810046   7.743   3.041   4.915  0.6295  0.3694 -0.7838
  347ccc     C510047   7.911   3.163   4.883  0.4596  0.7418  0.3182
  347ccc     H910048   7.950   3.260   4.919 -1.3838  1.0793  1.5467
  347ccc    H1010049   7.981   3.082   4.904 -0.9839 -0.5845  0.1701
  347ccc     C610050   7.890   3.167   4.732 -0.3597 -0.3635  0.1835
  347ccc     O210051   7.934   3.081   4.657  0.2465 -0.2645  0.9195
  347ccc     O310052   7.837   3.265   4.684  0.1211  0.2151 -0.4591
  347ccc     C710053   7.782   3.292   5.142  0.6521 -0.3184  0.0564
  347ccc    H1110054   7.829   3.294   5.241 -2.6855 -2.1506  1.8061
  347ccc    H1210055   7.837   3.351   5.067  0.8124 -0.6846 -0.1181
  347ccc     C810056   7.642   3.353   5.144 -0.3086  0.7802  0.3031
  347ccc    H1310057   7.601   3.364   5.043 -1.2027 -1.1516  0.4043
  347ccc    H1410058   7.580   3.286   5.204 -0.0880  0.6737  0.4160
  347ccc     C910059   7.652   3.488   5.212  0.5140 -0.3352  0.2431
  347ccc     O410060   7.617   3.585   5.144 -0.5629  0.0474  0.0976
  347ccc     O510061   7.628   3.501   5.330 -0.5764 -0.7683 -0.0483
  347ccc     O110062   8.029   2.839   5.271  0.7472  0.7049  0.3466
  348ccc     C310063   8.734   2.741   5.022 -0.1089 -0.3693  0.3518
  348ccc     H510064   8.824   2.762   5.081 -1.5767  1.4769  2.0993
  348ccc     H610065   8.731   2.632   5.011  2.7581 -0.5164  0.1672
  348ccc     C210066   8.721   2.800   4.881 -0.5145 -0.0514  0.5324
  348ccc     H310067   8.812   2.761   4.834 -0.4885 -0.0495  0.5794
  348ccc     H410068   8.722   2.909   4.885  0.8651 -0.0247 -0.2390
  348ccc     C110069   8.588   2.755   4.818 -0.0247 -0.3891 -0.7536
  348ccc     H110070   8.514   2.792   4.890 -1.1616 -0.7549 -1.7015
  348ccc     H210071   8.587   2.646   4.809  0.3163 -0.4935  0.2795
  348ccc     N110072   8.561   2.793   4.681 -0.1813 -1.0573  0.3887
  348ccc     C410073   8.425   2.749   4.641  0.2887  0.2970 -0.2273
  348ccc     H710074   8.408   2.644   4.666 -2.0381  0.8973  1.0479
  348ccc     H810075   8.410   2.761   4.533 -0.5089 -2.2834 -0.4629
  348ccc     C510076   8.320   2.814   4.730  0.1672 -0.3360 -0.5445
  348ccc     H910077   8.311   2.769   4.830  1.5029 -1.0850 -0.7354
  348ccc    H1010078   8.361   2.915   4.741  2.9869 -1.6013  2.0702
  348ccc     C610079   8.181   2.815   4.674  0.0167  0.4087 -0.0231
  348ccc     O210080   8.163   2.886   4.573  0.7552  0.3949  0.2491
  348ccc     O310081   8.082   2.764   4.721  0.2339 -0.4573 -0.3547
  348ccc     C710082   8.666   2.739   4.592  0.0088  0.1848 -0.0498
  348ccc    H1110083   8.764   2.737   4.642  0.6998 -2.6592 -1.3331
  348ccc    H1210084   8.638   2.637   4.564  0.9444 -0.2087  0.4076
  348ccc     C810085   8.667   2.823   4.458  0.0202 -0.1955 -0.3695
  348ccc    H1310086   8.731   2.779   4.380  2.3578  0.1299  1.2395
  348ccc    H1410087   8.565   2.837   4.421 -1.1684 -0.9631  2.3344
  348ccc     C910088   8.726   2.955   4.490 -0.5018  0.4048  0.1357
  348ccc     O410089   8.839   2.975   4.527  0.3003  0.7190 -0.1913
  348ccc     O510090   8.673   3.050   4.435  0.4757  0.3952  0.0367
  348ccc     O110091   8.620   2.795   5.103 -0.2114  0.0767 -0.0034
  349ccc     C310092   9.191   2.287   5.899 -0.1119  0.0349  0.1580
  349ccc     H510093   9.200   2.370   5.970 -1.9940  0.0814  0.4013
  349ccc     H610094   9.192   2.194   5.957 -1.2089  1.4248  2.5467
  349ccc     C210095   9.302   2.306   5.793  0.0940  0.6584 -0.4269
  349ccc     H310096   9.329   2.205   5.759 -3.6775 -0.0686 -1.6978
  349ccc     H410097   9.396   2.333   5.844 -0.9650 -0.4546  2.3076
  349ccc     C110098   9.252   2.404   5.684 -0.4153 -0.2459  0.1073
  349ccc     H110099   9.240   2.502   5.732 -1.3934  0.2850 -1.1744
  349ccc     H210100   9.155   2.373   5.644  0.4620  1.3246 -3.7039
  349ccc     N110101   9.344   2.424   5.573 -0.1149 -0.3175  0.6194
  349ccc     C410102   9.331   2.561   5.512 -0.7423 -0.4178  0.5464
  349ccc     H710103   9.408   2.564   5.433  0.4401 -1.3081  1.6241
  349ccc     H810104   9.360   2.635   5.587  0.1306 -0.3915  0.2007
  349ccc     C510105   9.189   2.594   5.464 -0.1581  0.2488 -0.1419
  349ccc     H910106   9.158   2.532   5.379 -0.7443  0.9029 -0.4141
  349ccc    H1010107   9.113   2.589   5.543 -1.3980 -0.6269 -1.3218
  349ccc     C610108   9.203   2.740   5.414  0.2062 -0.0766  0.7234
  349ccc     O210109   9.280   2.766   5.322  0.5938  0.2094 -0.2269
  349ccc     O310110   9.137   2.830   5.462 -0.2599  0.2196 -0.3586
  349ccc     C710111   9.319   2.298   5.491 -0.2011  0.4194 -0.7813
  349ccc    H1110112   9.304   2.211   5.556 -0.8294  0.1904 -1.2226
  349ccc    H1210113   9.224   2.313   5.438  0.4869  2.4984 -1.5326
  349ccc     C810114   9.435   2.276   5.391  0.1405 -0.1174 -0.7568
  349ccc    H1310115   9.422   2.364   5.327 -0.3079  0.8473  0.6034
  349ccc    H1410116   9.529   2.281   5.447  0.5014 -1.8627 -1.1392
  349ccc     C910117   9.418   2.150   5.308  0.0562  0.5237 -0.3521
  349ccc     O410118   9.456   2.043   5.350  0.6555 -0.3468  0.1245
  349ccc     O510119   9.331   2.146   5.225 -0.0902 -0.0203  0.4788
  349ccc     O110120   9.061   2.291   5.844  0.4488  0.2021  0.1095
  350ccc     C310121   8.663   1.677   5.155  0.5930  0.4362  0.4032
  350ccc     H510122   8.573   1.654   5.096 -0.6406  2.6538  1.2928
  350ccc     H610123   8.753   1.680   5.092  0.0320 -1.3561 -0.5698
  350ccc     C210124   8.674   1.547   5.249 -0.1583 -0.4986  0.7082
  350ccc     H310125   8.679   1.453   5.192 -0.4967 -0.3594  0.4456
  350ccc     H410126   8.579   1.544   5.304  0.4772  0.5784  1.9015
  350ccc     C110127   8.777   1.558   5.370 -0.1329 -0.2213 -0.3381
  350ccc     H110128   8.744   1.499   5.457  0.0126  2.4179  1.6406
  350ccc     H210129   8.772   1.660   5.412 -2.6529 -1.0053  1.5462
  350ccc     N110130   8.912   1.529   5.340 -0.5243 -0.1238  0.2544
  350ccc     C410131   8.994   1.477   5.450  0.2029 -0.2833 -0.1715
  350ccc     H710132   8.994   1.550   5.532  1.2800  0.9388 -1.2138
  350ccc     H810133   9.099   1.475   5.416  0.5008  4.7551 -0.2783
  350ccc     C510134   8.958   1.327   5.471  0.4692 -0.4610  0.4893
  350ccc     H910135   8.855   1.299   5.494 -0.2066  0.9612 -0.6402
  350ccc    H1010136   8.985   1.277   5.377 -0.1556  2.3055 -1.2548
  350ccc     C610137   9.044   1.272   5.580  0.0468 -0.6438 -0.0618
  350ccc     O210138   9.088   1.343   5.674  0.0870 -0.2047 -0.0272
  350ccc     O310139   9.054   1.154   5.595 -0.1098 -0.1742 -0.6882
  350ccc     C710140   8.990   1.620   5.254 -0.3224 -0.1712  0.5707
  350ccc    H1110141   9.083   1.571   5.222  1.5812  3.5907 -0.2930
  350ccc    H1210142   8.930   1.647   5.166  0.6920  0.6632  0.1134
  350ccc     C810143   9.034   1.751   5.327 -0.0741 -0.1261  0.6546
  350ccc    H1310144   8.946   1.801   5.370 -0.5125  0.3294 -0.7181
  350ccc    H1410145   9.110   1.728   5.403  0.2523  0.6488  0.5800
  350ccc     C910146   9.107   1.841   5.231 -0.2617 -0.3471  0.1727
  350ccc     O410147   9.231   1.832   5.232  0.1906 -0.0101  0.4179
  350ccc     O510148   9.049   1.922   5.163 -0.2285 -0.2011 -0.8075
  350ccc     O110149   8.643   1.793   5.236  0.8126  0.6995  0.0453
  351ccc     C310150   7.009   5.940   8.276 -0.1075  0.2263  0.1294
  351ccc     H510151   7.072   5.980   8.356 -1.1119 -0.0187  1.0735
  351ccc     H610152   7.016   5.999   8.183  0.7518 -1.1236 -0.7055
  351ccc     C210153   6.860   5.947   8.330  0.6407 -0.7548  0.3635
  351ccc     H310154   6.796   5.917   8.246  2.1487  0.7185 -1.4086
  351ccc     H410155   6.848   6.056   8.341  0.6729 -0.5840 -1.0968
  351ccc     C110156   6.838   5.869   8.456 -0.6048 -0.0759  0.4802
  351ccc     H110157   6.893   5.917   8.538  0.8552 -0.7951 -0.0450
  351ccc     H210158   6.892   5.773   8.446  0.2478  0.4140  0.2860
  351ccc     N110159   6.691   5.852   8.489  0.0002  0.4568  0.2011
  351ccc     C410160   6.619   5.977   8.503 -0.2454  0.5152  0.4310
  351ccc     H710161   6.650   6.051   8.428  0.7408  0.0891  0.4052
  351ccc     H810162   6.649   6.026   8.596  0.2110  2.4203 -0.6564
  351ccc     C510163   6.474   5.960   8.488 -0.2916  0.0044  0.2877
  351ccc     H910164   6.464   5.900   8.397 -1.6295 -0.3238  0.6288
  351ccc    H1010165   6.432   5.908   8.575  0.7723 -1.1329  0.1402
  351ccc     C610166   6.409   6.094   8.461 -0.4020 -0.6303 -0.4575
  351ccc     O210167   6.402   6.176   8.556 -0.1499  1.1403 -0.3790
  351ccc     O310168   6.391   6.136   8.349  1.0088  0.0819  0.3614
  351ccc     C710169   6.667   5.761   8.603 -0.2096 -0.2777  0.2796
  351ccc    H1110170   6.710   5.810   8.691 -0.0758  0.8289 -0.3686
  351ccc    H1210171   6.561   5.756   8.630 -0.8739  2.4986 -1.3322
  351ccc     C810172   6.732   5.622   8.579  0.2896 -0.1248  0.0525
  351ccc    H1310173   6.698   5.568   8.490  1.9772 -0.2226 -0.5652
  351ccc    H1410174   6.841   5.628   8.584  0.4738  0.5039 -2.9526
  351ccc     C910175   6.684   5.535   8.692 -0.2938 -0.1379  0.0858
  351ccc     O410176   6.764   5.488   8.770  0.1394  0.2961 -0.3944
  351ccc     O510177   6.567   5.501   8.699 -0.9949 -0.0802  0.2144
  351ccc     O110178   7.049   5.805   8.251 -0.7578 -0.0208  0.3285
  352ccc     C310179   6.581   5.547   7.723 -0.3598  0.1851  0.4589
  352ccc     H510180   6.609   5.621   7.799  4.0174 -2.4103  1.7726
  352ccc     H610181   6.556   5.598   7.629  2.1581 -2.2394 -1.7155
  352ccc     C210182   6.462   5.456   7.757 -0.1359  0.8294  0.0673
  352ccc     H310183   6.372   5.508   7.791 -0.6479  0.9039 -1.3608
  352ccc     H410184   6.493   5.401   7.848  1.5937 -0.9638 -1.5093
  352ccc     C110185   6.428   5.347   7.657  0.3050  0.3831 -0.5765
  352ccc     H110186   6.499   5.265   7.670  0.4220  0.4772 -0.6176
  352ccc     H210187   6.438   5.389   7.556 -2.0551 -0.8715 -1.4282
  352ccc     N110188   6.291   5.294   7.662 -0.0099  0.2524 -0.8674
  352ccc     C410189   6.258   5.233   7.798 -0.6723  0.1119  0.1089
  352ccc     H710190   6.289   5.300   7.878 -0.2048 -0.4233  0.3815
  352ccc     H810191   6.314   5.139   7.803 -1.9675 -0.7613 -0.9138
  352ccc     C510192   6.111   5.195   7.817 -0.2853 -0.3820  0.5142
  352ccc     H910193   6.055   5.290   7.819  1.5321  0.8376 -1.5521
  352ccc    H1010194   6.068   5.127   7.742  1.2186 -0.8271  0.0324
  352ccc     C610195   6.091   5.117   7.941  0.3603  0.2680 -0.6025
  352ccc     O210196   6.070   5.162   8.057  0.0259  0.3854  0.2279
  352ccc     O310197   6.092   5.000   7.922  0.1045 -0.0928 -0.4196
  352ccc     C710198   6.260   5.205   7.552  0.3433 -0.6791  0.7974
  352ccc    H1110199   6.340   5.130   7.545  1.3019  0.3964 -0.2746
  352ccc    H1210200   6.167   5.152   7.576 -0.2572  0.8407  2.0810
  352ccc     C810201   6.252   5.269   7.416  0.3765  0.3527  0.5644
  352ccc    H1310202   6.204   5.367   7.422  1.4785  0.9488 -0.0381
  352ccc    H1410203   6.357   5.287   7.392  0.3760  1.0346  1.0529
  352ccc     C910204   6.179   5.179   7.311  0.4219 -0.4414  0.3508
  352ccc     O410205   6.056   5.184   7.302 -0.2316  0.6219  0.1612
  352ccc     O510206   6.233   5.090   7.250  0.2085 -0.0990  0.8719
  352ccc     O110207   6.696   5.469   7.695  0.2033  0.5583 -0.5268
  353ccc     C310208   7.352   6.012   8.239  0.3935  0.2996 -0.3677
  353ccc     H510209   7.281   5.934   8.207  1.2292 -0.2581 -0.8729
  353ccc     H610210   7.359   6.005   8.348 -1.1718  0.1327 -0.2490
  353ccc     C210211   7.285   6.148   8.197 -0.2154  0.0377 -0.4374
  353ccc     H310212   7.354   6.219   8.245  1.2693 -1.1841 -0.7258
  353ccc     H410213   7.184   6.151   8.242  0.8605 -0.3666  2.1967
  353ccc     C110214   7.271   6.162   8.046 -0.1158  0.3232  0.0992
  353ccc     H110215   7.205   6.083   8.010 -2.3559  2.2150 -0.2128
  353ccc     H210216   7.370   6.144   8.004  0.0784 -1.5453  1.2478
  353ccc     N110217   7.220   6.296   8.000  0.1115  0.3989  0.1725
  353ccc     C410218   7.077   6.295   8.016 -0.0378 -0.2288  0.6208
  353ccc     H710219   7.059   6.316   8.123  0.6145 -2.4200  1.2060
  353ccc     H810220   7.042   6.196   7.985 -0.1753  0.1646 -0.5006
  353ccc     C510221   7.008   6.394   7.922  0.1473 -0.0055  0.3539
  353ccc     H910222   7.034   6.498   7.943  3.0443 -0.2587 -1.4244
  353ccc    H1010223   7.031   6.384   7.815 -0.0554  0.0976  0.3001
  353ccc     C610224   6.853   6.392   7.925  0.2652 -0.1745 -0.9368
  353ccc     O210225   6.790   6.289   7.941 -0.8025  0.0062 -0.0613
  353ccc     O310226   6.792   6.494   7.935 -0.3840 -0.5234  0.5620
  353ccc     C710227   7.278   6.413   8.070  0.0491  0.3906  0.5264
  353ccc    H1110228   7.237   6.508   8.034 -0.9190  0.0714  0.7575
  353ccc    H1210229   7.241   6.412   8.173 -1.8741  1.2099 -0.1061
  353ccc     C810230   7.426   6.415   8.049 -0.0439  0.1738 -0.5027
  353ccc    H1310231   7.475   6.358   8.128 -1.2860  0.9554  0.8949
  353ccc    H1410232   7.456   6.378   7.950 -2.7234  0.2136 -1.4232
  353ccc     C910233   7.474   6.552   8.055 -0.0891  0.0034  0.2509
  353ccc     O410234   7.538   6.600   8.151  0.2538  0.1312  0.1960
  353ccc     O510235   7.469   6.616   7.949  0.6851 -0.5393  0.4837
  353ccc     O110236   7.473   5.994   8.172 -0.3322  0.5824  0.1030
  354ccc     C310237   7.920   5.855   7.399  0.1330 -0.0485 -0.1319
  354ccc     H510238   7.988   5.777   7.361 -0.9842 -0.9926 -0.2566
  354ccc     H610239   7.820   5.825   7.366  0.5124 -0.8363 -0.5978
  354ccc     C210240   7.961   5.987   7.337 -0.9151  0.7414 -0.0966
  354ccc     H310241   7.937   5.989   7.230 -1.6427  0.0406  0.0511
  354ccc     H410242   8.070   5.997   7.349 -0.4753 -2.0305 -1.1015
  354ccc     C110243   7.899   6.108   7.411  0.1307  0.4331  0.3292
  354ccc     H110244   7.925   6.097   7.517 -1.0464  1.6224  0.7711
  354ccc     H210245   7.791   6.091   7.408  0.5387 -2.7642  0.5195
  354ccc     N110246   7.951   6.237   7.365  0.5226 -0.7877  0.1980
  354ccc     C410247   7.901   6.266   7.232  0.2944 -0.0405 -0.4441
  354ccc     H710248   7.928   6.189   7.159  2.1914 -1.3321  1.5116
  354ccc     H810249   7.943   6.362   7.201  3.1630 -0.7845  0.8052
  354ccc     C510250   7.751   6.283   7.232 -0.2422  0.1974 -0.3079
  354ccc     H910251   7.710   6.182   7.232  0.8828 -0.3657 -3.0959
  354ccc    H1010252   7.705   6.340   7.314 -1.8033 -0.6999 -0.5337
  354ccc     C610253   7.699   6.358   7.114 -0.0359  0.5216  0.1810
  354ccc     O210254   7.749   6.333   7.001 -0.2461  0.0296  0.0099
  354ccc     O310255   7.580   6.373   7.102  0.1893 -0.7699  0.0683
  354ccc     C710256   8.088   6.264   7.388  0.0447  1.0289  0.5767
  354ccc    H1110257   8.154   6.183   7.353  1.2478  0.7193  3.2571
  354ccc    H1210258   8.109   6.345   7.317 -1.3418 -0.3121 -1.4720
  354ccc     C810259   8.110   6.287   7.540 -0.2448 -0.1674  0.2151
  354ccc    H1310260   8.040   6.364   7.575 -0.5033  0.4355 -1.5095
  354ccc    H1410261   8.083   6.202   7.603 -0.4254  0.4758  1.0266
  354ccc     C910262   8.247   6.342   7.560 -1.0135 -0.2118  0.2861
  354ccc     O410263   8.340   6.267   7.546  0.3667  0.2002  0.4587
  354ccc     O510264   8.264   6.457   7.526 -0.0679 -0.5584 -0.4074
  354ccc     O110265   7.924   5.858   7.538  1.1337 -0.8245 -0.9876
  355ccc     C310266   6.777   4.627   9.062 -0.6681 -0.0636 -0.9811
  355ccc     H510267   6.777   4.661   9.167  0.1686 -0.8087 -0.7315
  355ccc     H610268   6.794   4.519   9.050 -0.3236  0.0912 -1.9598
  355ccc     C210269   6.888   4.702   8.982  0.7434  0.3321 -0.6683
  355ccc     H310270   6.886   4.692   8.873  2.6365  3.4873 -1.1110
  355ccc     H410271   6.981   4.655   9.015  0.3375  0.8499  1.3384
  355ccc     C110272   6.894   4.855   9.000 -0.0288  0.2356 -0.0054
  355ccc     H110273   6.806   4.890   8.944 -0.7258  0.2492  1.0676
  355ccc     H210274   6.986   4.889   8.951 -0.4075 -1.2574 -1.8780
  355ccc     N110275   6.880   4.911   9.139  0.5546 -0.1887 -0.1551
  355ccc     C410276   6.989   4.873   9.226 -0.5562  0.3089  0.8656
  355ccc     H710277   6.980   4.764   9.231 -0.1556  0.0727 -2.0957
  355ccc     H810278   6.971   4.900   9.331 -3.2543 -0.8036  0.7871
  355ccc     C510279   7.133   4.903   9.184 -0.1108  0.2010 -0.1500
  355ccc     H910280   7.153   4.881   9.078  0.4930 -0.9999  0.2000
  355ccc    H1010281   7.154   5.010   9.201 -1.5456  0.5890 -0.6367
  355ccc     C610282   7.230   4.820   9.255 -0.7597  0.0685  0.9102
  355ccc     O210283   7.285   4.854   9.357  0.2949  0.2511  0.4703
  355ccc     O310284   7.239   4.703   9.232 -0.4890  0.6334 -0.2201
  355ccc     C710285   6.857   5.062   9.146  0.0944 -0.5775 -0.0396
  355ccc    H1110286   6.866   5.098   9.249 -0.9748 -0.9066  0.1776
  355ccc    H1210287   6.933   5.106   9.080  0.3745 -0.9460  0.0311
  355ccc     C810288   6.716   5.106   9.103 -0.0356 -0.1518 -0.2466
  355ccc    H1310289   6.676   5.063   9.010 -1.2062 -3.4203  1.5907
  355ccc    H1410290   6.653   5.075   9.188  1.1649  0.8340  1.0455
  355ccc     C910291   6.715   5.255   9.090 -0.1106 -0.8830 -0.4090
  355ccc     O410292   6.720   5.320   9.194 -0.4339  0.0909 -0.3521
  355ccc     O510293   6.735   5.306   8.983  0.0301  0.6817  0.7915
  355ccc     O110294   6.654   4.660   9.000  0.4559  0.9401 -0.5047
  356ccc     C310295   6.206   4.124   9.416  0.2774  0.0937 -0.4484
  356ccc     H510296   6.296   4.069   9.385  0.8950  1.2443 -0.7423
  356ccc     H610297   6.237   4.217   9.465 -2.1526  1.3672 -1.1756
  356ccc     C210298   6.116   4.030   9.498 -0.4692  0.2419 -0.0497
  356ccc     H310299   6.056   3.977   9.423  2.7137  0.1522 -2.7411
  356ccc     H410300   6.049   4.098   9.553  1.8278  0.5260  2.5862
  356ccc     C110301   6.188   3.932   9.595 -0.1627  0.3560 -0.7360
  356ccc     H110302   6.212   3.973   9.694  1.5221 -1.0274 -0.5267
  356ccc     H210303   6.282   3.896   9.552  0.7489  1.3907  0.3293
  356ccc     N110304   6.113   3.810   9.631 -0.2504 -0.2716 -0.3859
  356ccc     C410305   6.103   3.721   9.516  0.0080 -0.1538  0.2183
  356ccc     H710306   6.199   3.723   9.464 -0.0864 -0.3880  0.0305
  356ccc     H810307   6.024   3.760   9.451 -0.3532  0.3275  0.9239
  356ccc     C510308   6.076   3.573   9.557 -0.0288 -0.2836  0.2765
  356ccc     H910309   6.142   3.547   9.641 -0.8577 -1.6379  0.5345
  356ccc    H1010310   5.974   3.546   9.587 -0.0462 -3.7463 -2.2600
  356ccc     C610311   6.098   3.467   9.447 -0.2000 -0.8723 -0.4474
  356ccc     O210312   6.137   3.496   9.336  0.4613  0.4776 -0.4584
  356ccc     O310313   6.119   3.355   9.487  0.2032  0.1123 -0.1042
  356ccc     C710314   5.984   3.849   9.695  0.2954  0.2379  0.3039
  356ccc    H1110315   5.914   3.904   9.630 -0.2529 -1.3148 -0.4914
  356ccc    H1210316   5.937   3.754   9.725 -2.2421  1.2781 -0.0894
  356ccc     C810317   6.005   3.921   9.827  0.4640  0.2302  0.2579
  356ccc    H1310318   6.083   3.868   9.881  0.9856  1.4441  0.7324
  356ccc    H1410319   6.045   4.021   9.808 -0.1741  0.3241 -0.7246
  356ccc     C910320   5.878   3.939   9.910 -0.5402 -0.6403  0.3450
  356ccc     O410321   5.858   3.878  10.016 -0.1155 -0.3974 -0.2072
  356ccc     O510322   5.781   3.996   9.865  0.7158  0.0327  0.0770
  356ccc     O110323   6.138   4.162   9.298 -0.1269 -0.1205  0.1042
  357ccc     C310324   8.070   4.672   8.399 -0.4120  0.3991  0.4753
  357ccc     H510325   8.054   4.736   8.311  0.6882  1.2706  0.8779
  357ccc     H610326   8.069   4.736   8.488  0.4971 -0.0175  0.8006
  357ccc     C210327   8.208   4.611   8.400  0.0507 -0.1655  0.3763
  357ccc     H310328   8.200   4.523   8.334  0.5504  0.2586 -0.2573
  357ccc     H410329   8.224   4.575   8.502  1.3065  0.5707  0.4525
  357ccc     C110330   8.313   4.716   8.351  0.1361  0.1866  0.2534
  357ccc     H110331   8.304   4.813   8.402 -1.3747  0.9248 -1.2858
  357ccc     H210332   8.302   4.730   8.243 -0.3771 -1.4480  0.0648
  357ccc     N110333   8.446   4.662   8.367  0.2389  0.2961 -0.5056
  357ccc     C410334   8.539   4.725   8.263  0.5211 -0.2034  0.5040
  357ccc     H710335   8.644   4.704   8.283  0.6917 -0.1267 -0.2689
  357ccc     H810336   8.529   4.834   8.259  1.0739 -0.1237  1.1395
  357ccc     C510337   8.516   4.668   8.119 -0.3483 -0.5124  0.0165
  357ccc     H910338   8.517   4.558   8.125 -2.0446 -0.6387 -1.1131
  357ccc    H1010339   8.423   4.704   8.073  1.0957  0.8787 -1.9650
  357ccc     C610340   8.629   4.701   8.032 -0.7378  0.4083 -0.6662
  357ccc     O210341   8.698   4.611   7.983 -0.6722 -0.7287 -0.3393
  357ccc     O310342   8.641   4.813   8.000  0.2280 -0.3016  0.6733
  357ccc     C710343   8.491   4.664   8.511  0.7147 -0.7275 -0.4579
  357ccc    H1110344   8.519   4.764   8.546 -1.0988 -1.0613  2.2815
  357ccc    H1210345   8.405   4.644   8.576  0.3803  1.9600  0.0325
  357ccc     C810346   8.605   4.566   8.532 -0.2535  0.1829  0.4694
  357ccc    H1310347   8.569   4.476   8.482  0.7843 -0.6124  1.1238
  357ccc    H1410348   8.700   4.598   8.487  0.5939 -0.6182  1.6528
  357ccc     C910349   8.652   4.545   8.672  0.3932  0.1389  0.1093
  357ccc     O410350   8.741   4.462   8.685 -0.0339 -0.6232 -0.3471
  357ccc     O510351   8.590   4.594   8.766 -0.4356  0.8474  0.6534
  357ccc     O110352   7.976   4.564   8.400 -0.8567 -0.4077 -0.2176
  358ccc     C310353   7.552   5.165   8.589  0.6799  0.1755 -0.5813
  358ccc     H510354   7.652   5.192   8.552  1.8150 -1.2242  1.3435
  358ccc     H610355   7.483   5.219   8.523 -0.8205 -0.2286  0.6006
  358ccc     C210356   7.546   5.218   8.732 -0.0304 -0.1276 -0.4621
  358ccc     H310357   7.560   5.326   8.721 -1.2001  0.0855 -0.0754
  358ccc     H410358   7.632   5.175   8.784  1.2445  0.8574 -1.6708
  358ccc     C110359   7.420   5.190   8.818 -0.5907 -0.0914 -0.3181
  358ccc     H110360   7.404   5.082   8.828  0.6047 -0.1325  2.0574
  358ccc     H210361   7.338   5.237   8.763  0.8289  0.7648 -1.7940
  358ccc     N110362   7.429   5.237   8.958 -0.0075  0.2107 -0.4008
  358ccc     C410363   7.504   5.147   9.049  0.0167 -0.3013  0.0130
  358ccc     H710364   7.608   5.135   9.018  0.4585 -0.2842  1.4386
  358ccc     H810365   7.453   5.052   9.073  1.0038 -0.3359  2.1424
  358ccc     C510366   7.524   5.209   9.186 -0.3064  0.0226 -0.4240
  358ccc     H910367   7.558   5.312   9.171 -0.3052  0.6435  3.0406
  358ccc    H1010368   7.437   5.221   9.251  0.0169 -0.9872  0.2264
  358ccc     C610369   7.624   5.115   9.251  0.0390 -0.8478 -0.1059
  358ccc     O210370   7.741   5.137   9.250  0.5549  0.3154  0.1301
  358ccc     O310371   7.582   5.042   9.345 -0.1811  0.1858 -0.1504
  358ccc     C710372   7.288   5.250   9.003 -0.1422  0.4198 -0.1262
  358ccc    H1110373   7.207   5.193   8.954  0.9367 -2.1947  0.9435
  358ccc    H1210374   7.276   5.206   9.102 -0.8959  0.5613 -0.1466
  358ccc     C810375   7.247   5.394   9.024  0.1030  0.6246 -0.5704
  358ccc    H1310376   7.301   5.436   9.110  0.5340 -1.3920  0.2136
  358ccc    H1410377   7.277   5.466   8.947 -0.3738  2.3814  0.8252
  358ccc     C910378   7.100   5.406   9.063  0.2281  0.3591 -0.1798
  358ccc     O410379   7.075   5.411   9.184  0.0946 -0.1217  0.6791
  358ccc     O510380   7.014   5.431   8.978  0.1582  0.4945  0.1405
  358ccc     O110381   7.519   5.025   8.585  0.4465  0.4552 -0.2367
  359ccc     C310382   6.563   4.235   5.436  0.0074  0.4013 -1.1552
  359ccc     H510383   6.631   4.180   5.369 -0.4308 -1.8897  0.1834
  359ccc     H610384   6.572   4.178   5.529  0.1009 -0.6278 -1.7898
  359ccc     C210385   6.419   4.227   5.380  0.0802 -0.0455 -0.3263
  359ccc     H310386   6.406   4.118   5.377  1.6555 -0.2391 -1.5167
  359ccc     H410387   6.413   4.254   5.274 -0.2742 -0.6808 -0.4762
  359ccc     C110388   6.321   4.310   5.461 -0.2845  0.3139  0.9690
  359ccc     H110389   6.350   4.415   5.454  4.1726 -0.8003 -0.1911
  359ccc     H210390   6.328   4.283   5.566  0.0312 -0.4852  0.7478
  359ccc     N110391   6.181   4.289   5.419  0.2661  0.6123  0.4685
  359ccc     C410392   6.135   4.160   5.463  0.5392 -0.0678 -0.2179
  359ccc     H710393   6.112   4.180   5.568 -1.0299 -0.6572 -0.4208
  359ccc     H810394   6.212   4.082   5.459  0.5755  0.0132 -1.1541
  359ccc     C510395   6.008   4.112   5.398  0.1571  0.3351  0.7388
  359ccc     H910396   5.922   4.180   5.404 -1.0642 -0.9402 -1.2458
  359ccc    H1010397   6.032   4.097   5.292  0.7246  0.0393  0.9051
  359ccc     C610398   5.970   3.975   5.454  0.0771 -0.0756 -0.0190
  359ccc     O210399   5.877   3.974   5.535  0.1518  0.8551  0.1714
  359ccc     O310400   6.042   3.880   5.470  0.1087 -0.0766  0.3395
  359ccc     C710401   6.088   4.400   5.459 -1.2232  0.2199  0.0383
  359ccc    H1110402   5.982   4.374   5.448 -0.7966 -0.6664 -2.8782
  359ccc    H1210403   6.125   4.423   5.560  2.4401  0.1344 -1.1065
  359ccc     C810404   6.105   4.522   5.366 -0.2017  0.2036  0.1856
  359ccc    H1310405   6.207   4.563   5.370  0.6924 -1.8344 -0.2740
  359ccc    H1410406   6.082   4.490   5.264 -0.8517 -1.3477  0.7798
  359ccc     C910407   6.021   4.640   5.406  0.1622  0.8155 -0.6604
  359ccc     O410408   5.989   4.730   5.335 -0.4036 -0.1589  0.2230
  359ccc     O510409   5.997   4.656   5.525 -0.0518 -0.3472  0.3186
  359ccc     O110410   6.608   4.371   5.461 -0.6081 -0.4287  0.6513
  360ccc     C310411   6.794   5.202   5.803  1.0606  0.1955 -0.1969
  360ccc     H510412   6.782   5.280   5.879 -0.6855  0.7782 -0.9989
  360ccc     H610413   6.847   5.245   5.717  1.4066  1.3010  0.5411
  360ccc     C210414   6.649   5.176   5.753 -0.5625  0.6022 -0.2946
  360ccc     H310415   6.650   5.101   5.673 -1.4568  2.1261 -1.7843
  360ccc     H410416   6.605   5.267   5.710 -0.2908  1.0343  0.3259
  360ccc     C110417   6.563   5.138   5.878  0.6555  0.7892  0.5160
  360ccc     H110418   6.582   5.203   5.964  0.2670  1.4310  0.1236
  360ccc     H210419   6.575   5.034   5.911 -1.7372  0.8313  1.7304
  360ccc     N110420   6.420   5.149   5.837 -0.0641  0.5534 -0.1937
  360ccc     C410421   6.379   5.028   5.760 -0.2326  0.4809 -0.8314
  360ccc     H710422   6.360   4.942   5.826  0.5424  1.6788  1.0529
  360ccc     H810423   6.461   4.995   5.695 -0.1239 -1.4764  0.1885
  360ccc     C510424   6.260   5.063   5.678  0.0287  0.1372  0.1942
  360ccc     H910425   6.164   5.060   5.731  0.2955 -0.6659  0.6530
  360ccc    H1010426   6.276   5.164   5.640  2.0695  0.3629  1.5131
  360ccc     C610427   6.248   4.976   5.559 -0.6154  0.1101 -0.3195
  360ccc     O210428   6.307   4.997   5.455 -0.0129  0.5983  0.0860
  360ccc     O310429   6.164   4.883   5.554 -0.2322 -0.3225  0.3410
  360ccc     C710430   6.329   5.182   5.948  0.3109  0.6974  0.0629
  360ccc    H1110431   6.225   5.154   5.925  0.4184  1.4397 -1.4870
  360ccc    H1210432   6.348   5.124   6.038 -2.7005 -0.7886 -0.1216
  360ccc     C810433   6.327   5.328   5.971 -0.7177 -0.2011  0.0363
  360ccc    H1310434   6.427   5.365   5.998 -1.7280  4.4972 -1.6776
  360ccc    H1410435   6.294   5.371   5.876  0.6772 -3.2109 -1.9726
  360ccc     C910436   6.230   5.350   6.082 -0.0737 -0.5783  0.1824
  360ccc     O410437   6.266   5.337   6.200  0.2426  0.0254  0.0231
  360ccc     O510438   6.129   5.414   6.063  0.9405 -0.3038 -0.9464
  360ccc     O110439   6.855   5.081   5.846 -0.3863 -0.1987  0.5639
  361ccc     C310440   5.850   4.075   6.655  0.4568  0.5342  0.7518
  361ccc     H510441   5.878   4.153   6.584 -1.8385  0.6094 -0.1710
  361ccc     H610442   5.912   3.987   6.635  1.2703  0.4801  3.2160
  361ccc     C210443   5.697   4.055   6.647  0.4360  0.1321  0.4975
  361ccc     H310444   5.648   4.133   6.706  1.2159  0.9691  0.0633
  361ccc     H410445   5.661   3.963   6.696 -0.4194  1.4466  2.4326
  361ccc     C110446   5.657   4.054   6.501  0.0257  0.5273  0.0002
  361ccc     H110447   5.709   3.973   6.449 -2.4240 -2.1449  1.4378
  361ccc     H210448   5.694   4.151   6.467  1.1944  0.6260  1.4551
  361ccc     N110449   5.514   4.031   6.469 -0.9015 -0.2474  0.6100
  361ccc     C410450   5.482   3.891   6.486  0.2809  0.1181 -0.3617
  361ccc     H710451   5.567   3.844   6.537  0.9644  0.8534 -0.7971
  361ccc     H810452   5.464   3.848   6.387  0.0882  3.4110 -1.8647
  361ccc     C510453   5.367   3.874   6.578  0.0783  0.2408  0.0924
  361ccc     H910454   5.379   3.925   6.675  0.8492  0.5244 -0.1437
  361ccc    H1010455   5.281   3.909   6.520  0.0336 -1.8265 -1.1744
  361ccc     C610456   5.336   3.732   6.596  0.2575  0.1007 -0.4862
  361ccc     O210457   5.273   3.701   6.693  0.2573 -0.1208 -0.5206
  361ccc     O310458   5.342   3.655   6.501 -0.2129  0.1903  0.2707
  361ccc     C710459   5.475   4.107   6.345 -1.1539 -0.1238 -0.1021
  361ccc    H1110460   5.506   4.211   6.362  0.0023 -0.6960  1.4562
  361ccc    H1210461   5.529   4.062   6.261  0.7704 -0.0462  1.0458
  361ccc     C810462   5.327   4.114   6.314  0.0076 -0.1436 -0.2139
  361ccc    H1310463   5.270   4.126   6.407  1.7289  2.2213  0.6589
  361ccc    H1410464   5.306   4.201   6.251  1.0425 -1.6672 -2.8292
  361ccc     C910465   5.283   4.000   6.229 -0.1784 -0.0502  0.3278
  361ccc     O410466   5.239   3.902   6.281  0.1392  0.6070  0.3599
  361ccc     O510467   5.263   4.019   6.108 -0.0817 -0.4028 -0.2859
  361ccc     O110468   5.880   4.110   6.790 -0.1227  0.2915  0.2571
  362ccc     C310469   5.698   4.556   6.642 -0.5190  0.1967 -0.3924
  362ccc     H510470   5.618   4.506   6.585 -1.0036 -0.1475  0.5638
  362ccc     H610471   5.649   4.574   6.738  0.0995 -1.3314  0.2356
  362ccc     C210472   5.740   4.691   6.581  0.5745 -0.2701 -0.5176
  362ccc     H310473   5.794   4.677   6.487 -0.1495  1.1621 -1.1850
  362ccc     H410474   5.812   4.749   6.640 -1.9561  0.3912  2.1348
  362ccc     C110475   5.613   4.780   6.545 -0.1748  0.0837 -0.7262
  362ccc     H110476   5.571   4.815   6.640  0.2007 -0.8687 -0.1987
  362ccc     H210477   5.528   4.724   6.503 -0.1851 -0.1425 -0.4121
  362ccc     N110478   5.633   4.897   6.465 -0.3156  0.3109  0.3758
  362ccc     C410479   5.736   4.992   6.513  0.0897 -0.4006  0.2685
  362ccc     H710480   5.742   5.071   6.437 -2.0290  0.9041  1.3740
  362ccc     H810481   5.832   4.948   6.543  0.0811 -1.7683 -1.5527
  362ccc     C510482   5.699   5.073   6.634 -0.2428 -0.4535  0.8995
  362ccc     H910483   5.605   5.128   6.621  0.3034  0.8374  2.1350
  362ccc    H1010484   5.682   5.016   6.726  0.7286  2.5420  3.0862
  362ccc     C610485   5.800   5.185   6.660  0.3734 -0.6774 -0.2323
  362ccc     O210486   5.794   5.296   6.603  1.1263  0.6125 -0.4055
  362ccc     O310487   5.870   5.183   6.760  0.1103  0.0553  0.1851
  362ccc     C710488   5.664   4.867   6.321 -0.3571 -0.1819 -0.9042
  362ccc    H1110489   5.634   4.954   6.261 -0.5990  0.6216  0.3325
  362ccc    H1210490   5.771   4.846   6.313 -0.1026  0.4610  0.3924
  362ccc     C810491   5.572   4.758   6.261 -0.5330  0.1123 -0.3401
  362ccc    H1310492   5.602   4.661   6.303 -3.2809  0.0781  1.8793
  362ccc    H1410493   5.466   4.780   6.274 -0.5517  2.0803 -3.0213
  362ccc     C910494   5.594   4.749   6.112  0.1324  1.0202 -0.2282
  362ccc     O410495   5.552   4.840   6.036 -0.6151  0.6687 -0.1161
  362ccc     O510496   5.636   4.648   6.056 -0.1598 -0.0113  0.0927
  362ccc     O110497   5.809   4.477   6.669 -0.3882 -0.3570 -0.1346
  363ccc     C310498   5.393   4.324   8.424  0.0919 -0.1316 -0.1849
  363ccc     H510499   5.312   4.357   8.490 -1.0537  0.0266 -1.6307
  363ccc     H610500   5.484   4.290   8.476 -0.3260 -0.2132  0.5093
  363ccc     C210501   5.438   4.442   8.340  0.0552  0.2235  0.0005
  363ccc     H310502   5.448   4.535   8.399 -1.3251  0.7498 -0.5645
  363ccc     H410503   5.356   4.471   8.274  1.1032  2.5576 -0.3812
  363ccc     C110504   5.566   4.404   8.263  0.0787  0.6326  0.1523
  363ccc     H110505   5.542   4.321   8.196  2.1139 -1.0427  1.3773
  363ccc     H210506   5.636   4.368   8.340 -0.3291  0.6263  0.5247
  363ccc     N110507   5.623   4.520   8.195 -0.3370  0.2894 -0.1159
  363ccc     C410508   5.538   4.562   8.080  0.8182 -0.6396 -0.6112
  363ccc     H710509   5.564   4.664   8.051 -2.4652  0.6721  0.6187
  363ccc     H810510   5.436   4.571   8.119  0.9423  0.2656 -0.4857
  363ccc     C510511   5.533   4.472   7.953  0.2149  0.6408 -0.0708
  363ccc     H910512   5.629   4.474   7.901  0.3946  0.6113  0.2575
  363ccc    H1010513   5.505   4.369   7.978  0.4256  0.7248  0.5351
  363ccc     C610514   5.432   4.533   7.861  0.3204 -0.0746  0.1960
  363ccc     O210515   5.336   4.464   7.824  0.2752  0.1763  0.0592
  363ccc     O310516   5.455   4.629   7.794  0.9495  0.3603  0.5223
  363ccc     C710517   5.769   4.515   8.171  0.1897  0.4844  1.1145
  363ccc    H1110518   5.818   4.502   8.269 -0.2455  1.2133  1.4412
  363ccc    H1210519   5.781   4.427   8.107  1.0343  2.7758 -2.0919
  363ccc     C810520   5.819   4.647   8.108  0.3000  0.6312 -0.6491
  363ccc    H1310521   5.779   4.680   8.012  1.4173 -0.3931 -1.4933
  363ccc    H1410522   5.799   4.726   8.181  1.9349  0.3396  0.1787
  363ccc     C910523   5.961   4.656   8.080  0.1635 -0.8555 -0.0367
  363ccc     O410524   6.035   4.559   8.082  0.2772 -0.0615 -0.6471
  363ccc     O510525   6.010   4.768   8.053  0.3145  0.1426  0.4120
  363ccc     O110526   5.354   4.214   8.343 -0.5445 -0.3265 -0.3391
  364ccc     C310527   6.161   4.112   8.668  0.1001  0.0817 -0.3249
  364ccc     H510528   6.164   4.220   8.687 -0.0137  0.3960 -1.9650
  364ccc     H610529   6.180   4.063   8.765  1.9610  0.3680 -0.5016
  364ccc     C210530   6.269   4.076   8.559 -0.6798  0.2182 -0.3299
  364ccc     H310531   6.270   3.967   8.547  2.1995  0.1589 -0.2471
  364ccc     H410532   6.367   4.107   8.597 -0.3096 -1.3476  0.0574
  364ccc     C110533   6.247   4.135   8.422  0.1173 -0.5363  0.6214
  364ccc     H110534   6.256   4.243   8.440  0.2571 -0.5845  0.8496
  364ccc     H210535   6.151   4.115   8.373 -0.1499 -0.7833  1.2323
  364ccc     N110536   6.352   4.097   8.326  0.0032  0.5331  0.3440
  364ccc     C410537   6.355   3.959   8.291 -0.0352  0.1281  0.5284
  364ccc     H710538   6.306   3.934   8.196  1.4419 -3.4459  0.5370
  364ccc     H810539   6.313   3.894   8.368  1.4288 -0.5683  0.7766
  364ccc     C510540   6.503   3.921   8.263 -0.3220  0.2950 -0.6560
  364ccc     H910541   6.555   3.990   8.196 -3.2226  2.3118 -1.0346
  364ccc    H1010542   6.556   3.928   8.359 -0.2644  0.2985 -0.6880
  364ccc     C610543   6.517   3.784   8.199  0.5244 -0.4373  0.4801
  364ccc     O210544   6.483   3.757   8.081  0.4757  0.4200  0.1235
  364ccc     O310545   6.510   3.694   8.276 -0.1798 -0.0381  0.5374
  364ccc     C710546   6.345   4.171   8.201 -0.0304  0.2224  0.3134
  364ccc    H1110547   6.414   4.133   8.125 -0.4606 -0.5104  0.2833
  364ccc    H1210548   6.250   4.161   8.148 -0.2585 -1.0540  0.9263
  364ccc     C810549   6.382   4.320   8.217  0.4302 -0.4286  0.5697
  364ccc    H1310550   6.321   4.375   8.291 -1.3916 -3.2614  1.3547
  364ccc    H1410551   6.489   4.329   8.238  0.6894 -2.5588  0.3830
  364ccc     C910552   6.357   4.380   8.083 -0.3361  0.2888 -0.0433
  364ccc     O410553   6.416   4.340   7.983  0.1741  0.1649  0.3799
  364ccc     O510554   6.332   4.498   8.079  0.3317  0.1194  0.3138
  364ccc     O110555   6.034   4.083   8.615  0.5685  0.0574  0.1380
  365ccc     C310556   5.303   4.793   6.806 -0.2852 -0.2046 -0.5993
  365ccc     H510557   5.293   4.860   6.720 -0.6671 -2.1536 -2.1451
  365ccc     H610558   5.207   4.754   6.843 -0.3594 -1.1851 -1.7423
  365ccc     C210559   5.409   4.836   6.906 -0.3024 -0.0552  0.9715
  365ccc     H310560   5.374   4.924   6.961  0.3447  0.2200  0.9502
  365ccc     H410561   5.499   4.862   6.850 -0.0822 -0.0736  1.3152
  365ccc     C110562   5.457   4.727   7.003  0.5252 -0.7541  0.2859
  365ccc     H110563   5.529   4.659   6.955 -0.2905 -0.6776 -1.1163
  365ccc     H210564   5.367   4.669   7.028 -0.5434  1.1177  0.9380
  365ccc     N110565   5.514   4.777   7.127 -0.2216  0.0649  0.1095
  365ccc     C410566   5.413   4.824   7.223 -0.0255  0.5322 -0.1115
  365ccc     H710567   5.327   4.878   7.181 -0.1144  0.6006  0.1532
  365ccc     H810568   5.454   4.902   7.288  1.3545  1.9371 -2.5424
  365ccc     C510569   5.364   4.710   7.308 -0.1988 -0.3746  0.0167
  365ccc     H910570   5.318   4.632   7.245  0.5424 -0.8085  0.0035
  365ccc    H1010571   5.449   4.663   7.360  1.0172 -0.0631 -1.6222
  365ccc     C610572   5.254   4.750   7.406  0.1873  0.0029 -0.5517
  365ccc     O210573   5.274   4.753   7.530 -0.0074 -0.5598  0.5385
  365ccc     O310574   5.138   4.760   7.375 -0.0054  0.1320 -0.0019
  365ccc     C710575   5.624   4.880   7.100  0.0614  0.0532 -0.0805
  365ccc    H1110576   5.601   4.964   7.034 -1.1470  1.1515  1.6650
  365ccc    H1210577   5.670   4.913   7.194 -0.3897  1.5149 -0.3458
  365ccc     C810578   5.742   4.801   7.035  0.1499 -0.2752 -0.5643
  365ccc    H1310579   5.763   4.712   7.095  2.0830  0.1190 -0.6032
  365ccc    H1410580   5.726   4.770   6.931  1.5917 -0.2137 -0.8202
  365ccc     C910581   5.862   4.890   7.021 -0.5406 -0.0332 -0.5855
  365ccc     O410582   5.962   4.870   7.089  0.3177  0.3560 -0.4236
  365ccc     O510583   5.855   4.969   6.936  0.4714  0.0335 -0.1199
  365ccc     O110584   5.350   4.676   6.741  0.0745  0.0158  0.2598
  366ccc     C310585   4.972   3.973   6.494 -0.4469 -0.6539 -0.8277
  366ccc     H510586   4.996   4.056   6.427 -0.5640 -0.5164 -0.7016
  366ccc     H610587   5.025   3.883   6.462  0.2012 -0.1774 -1.1077
  366ccc     C210588   4.821   3.945   6.495 -0.1816  0.5322  0.9085
  366ccc     H310589   4.795   3.948   6.388  0.7270 -0.5598  0.6270
  366ccc     H410590   4.769   4.032   6.536 -0.3546  0.7328  0.2818
  366ccc     C110591   4.773   3.811   6.557 -0.7980  0.6125 -0.0640
  366ccc     H110592   4.668   3.804   6.526 -0.7283  3.9400 -1.4367
  366ccc     H210593   4.786   3.819   6.665  0.7221 -1.7901  0.0172
  366ccc     N110594   4.839   3.691   6.511 -0.3537  0.0840 -0.0048
  366ccc     C410595   4.801   3.661   6.373 -0.3650  0.0751  0.4757
  366ccc     H710596   4.810   3.750   6.309  3.7977 -0.4561  0.0132
  366ccc     H810597   4.695   3.637   6.364 -0.7784  2.4020 -2.2327
  366ccc     C510598   4.890   3.565   6.301  0.2422  0.4512 -0.4976
  366ccc     H910599   4.876   3.466   6.345 -1.8314  0.6475 -0.6236
  366ccc    H1010600   4.857   3.549   6.197  0.0368 -2.6629 -0.0435
  366ccc     C610601   5.031   3.599   6.306  0.3732 -0.1047  0.2279
  366ccc     O210602   5.106   3.536   6.381 -0.2214 -0.2542  0.4385
  366ccc     O310603   5.087   3.677   6.232 -0.5847 -0.1190 -0.4350
  366ccc     C710604   4.806   3.572   6.590  0.4264  0.0789  0.6875
  366ccc    H1110605   4.700   3.548   6.575  0.4209  0.9147 -0.8398
  366ccc    H1210606   4.859   3.482   6.555  0.4450  0.3027  0.1240
  366ccc     C810607   4.828   3.567   6.741  0.5152 -0.2772 -0.5028
  366ccc    H1310608   4.772   3.650   6.788  0.0451  0.5273 -2.3892
  366ccc    H1410609   4.780   3.479   6.785  1.1541 -0.2487  0.2728
  366ccc     C910610   4.972   3.566   6.769 -0.2545 -0.7591 -0.2123
  366ccc     O410611   5.041   3.488   6.704 -0.2126  0.0875 -0.2779
  366ccc     O510612   5.007   3.608   6.875 -0.9421 -0.1799 -0.6107
  366ccc     O110613   5.009   4.022   6.625  0.1861 -0.1256 -0.1814
  367ccc     C310614   9.794   4.940   6.404  0.4516 -0.3203 -0.1329
  367ccc     H510615   9.773   5.047   6.391  2.8909  0.3673  1.0619
  367ccc     H610616   9.864   4.938   6.488 -0.7684 -1.1054  0.9067
  367ccc     C210617   9.858   4.882   6.279  0.7784  0.0491 -0.1625
  367ccc     H310618   9.939   4.950   6.250  0.4263  0.9220  0.8836
  367ccc     H410619   9.783   4.878   6.199 -1.3713  0.7880  1.7241
  367ccc     C110620   9.914   4.734   6.302 -0.2814 -0.2093  0.8401
  367ccc     H110621   9.828   4.668   6.319 -1.6480  1.4255  0.4794
  367ccc     H210622   9.984   4.737   6.387 -0.4649 -0.4050  1.0005
  367ccc     N110623   9.994   4.685   6.186  0.4382 -0.1400 -0.0742
  367ccc     C410624  10.112   4.764   6.153  0.3171  0.0111  0.1887
  367ccc     H710625  10.182   4.752   6.237  0.6578 -1.6383 -0.3051
  367ccc     H810626  10.090   4.870   6.139  0.3384  0.0027  0.0891
  367ccc     C510627  10.176   4.726   6.021  0.5855 -0.6689  0.0364
  367ccc     H910628  10.240   4.637   6.029  1.0599 -0.5484 -1.8307
  367ccc    H1010629  10.102   4.716   5.941  2.8589 -1.6023 -2.1120
  367ccc     C610630  10.272   4.828   5.975 -0.5774  0.4593  0.4139
  367ccc     O210631  10.242   4.897   5.879 -0.6622  0.0422  0.1912
  367ccc     O310632  10.370   4.848   6.047  0.3191 -0.4051 -0.4085
  367ccc     C710633  10.014   4.541   6.184 -0.5272  0.5190 -0.0617
  367ccc    H1110634   9.918   4.488   6.186 -0.9921  1.2021 -1.8452
  367ccc    H1210635  10.058   4.508   6.089  1.3632  1.0873  0.5762
  367ccc     C810636  10.109   4.491   6.290  0.0321  0.1531 -0.5174
  367ccc    H1310637  10.209   4.530   6.270 -0.0718  0.7869  0.1783
  367ccc    H1410638  10.078   4.519   6.391  2.0707 -0.2963  0.2636
  367ccc     C910639  10.115   4.340   6.279  0.1764  0.0829  0.3010
  367ccc     O410640  10.076   4.272   6.370  0.2197  0.1047  0.3573
  367ccc     O510641  10.184   4.287   6.196 -0.1366 -0.7733 -0.1133
  367ccc     O110642   9.685   4.852   6.431 -0.0326  0.5219  0.0642
  368ccc     C310643   9.679   4.537   5.988  0.6276 -0.1482  0.0443
  368ccc     H510644   9.751   4.455   5.992  0.7974  0.0328  2.3708
  368ccc     H610645   9.589   4.501   5.936  2.0423 -0.7922 -2.0894
  368ccc     C210646   9.715   4.674   5.921 -0.1232  0.0333  0.0306
  368ccc     H310647   9.766   4.656   5.826  0.9801 -3.0101  1.0915
  368ccc     H410648   9.796   4.719   5.979 -0.4037  1.6416 -0.7492
  368ccc     C110649   9.593   4.770   5.905 -0.1725  0.2859  0.1429
  368ccc     H110650   9.555   4.783   6.007 -1.4673  1.7896 -0.4861
  368ccc     H210651   9.517   4.711   5.852 -0.3014  0.0022  0.6369
  368ccc     N110652   9.608   4.902   5.838 -0.5217 -0.0530 -0.2132
  368ccc     C410653   9.477   4.956   5.785 -0.1367  0.4302 -0.7207
  368ccc     H710654   9.408   4.971   5.868 -0.2825  1.2398 -0.9817
  368ccc     H810655   9.432   4.870   5.734  1.1707  0.1506 -1.4701
  368ccc     C510656   9.503   5.073   5.695  0.1585 -0.5651  0.3939
  368ccc     H910657   9.556   5.156   5.743  0.5384 -0.5238 -0.0879
  368ccc    H1010658   9.571   5.036   5.617  0.3011 -3.5719  1.7906
  368ccc     C610659   9.375   5.135   5.633  0.2512 -0.1388  0.2739
  368ccc     O210660   9.279   5.168   5.702  0.4781 -0.1899 -0.0459
  368ccc     O310661   9.348   5.118   5.515 -0.3954 -0.0309  0.1936
  368ccc     C710662   9.698   4.990   5.923  0.0846 -0.1381 -0.1043
  368ccc    H1110663   9.669   5.095   5.908 -0.2357 -0.3736 -1.2256
  368ccc    H1210664   9.668   4.969   6.027 -2.9201 -0.7697 -0.9814
  368ccc     C810665   9.851   4.994   5.907 -0.2863  0.3607  0.3661
  368ccc    H1310666   9.892   5.062   5.982 -0.2573  1.0087 -0.2259
  368ccc    H1410667   9.904   4.899   5.925 -0.1526  0.1015 -1.2510
  368ccc     C910668   9.886   5.043   5.775  0.2741 -0.1706 -0.7033
  368ccc     O410669   9.853   5.153   5.733  0.5192 -0.3141 -0.1953
  368ccc     O510670   9.991   4.992   5.735  0.1406 -0.2636  0.4283
  368ccc     O110671   9.642   4.572   6.126 -0.4888 -0.1008 -0.2699
  369ccc     C310672  10.060   5.351   6.677 -0.2430  0.3355  0.6106
  369ccc     H510673  10.041   5.413   6.766 -3.2194  1.0275 -0.3994
  369ccc     H610674  10.162   5.309   6.674 -1.0102 -1.5728 -2.0274
  369ccc     C210675  10.045   5.445   6.559  0.0337  0.1050  0.0679
  369ccc     H310676  10.114   5.528   6.579  1.2291 -1.1042  1.1493
  369ccc     H410677   9.940   5.474   6.546 -0.1776 -1.1451 -1.2109
  369ccc     C110678  10.090   5.382   6.424 -0.5486 -0.2720 -0.4292
  369ccc     H110679  10.054   5.279   6.424 -0.0170 -0.4615 -0.2511
  369ccc     H210680  10.199   5.377   6.419 -0.4097  0.4914  1.1412
  369ccc     N110681  10.047   5.459   6.308  0.2047  0.8170 -0.4622
  369ccc     C410682  10.046   5.372   6.190 -0.1827 -0.5258 -0.4614
  369ccc     H710683   9.976   5.416   6.119 -1.3541 -0.6316  0.5849
  369ccc     H810684  10.007   5.276   6.226 -1.1308  0.1497  0.3632
  369ccc     C510685  10.179   5.350   6.122 -0.1797  0.2010 -0.2626
  369ccc     H910686  10.212   5.429   6.053  0.7323 -0.1900 -0.2901
  369ccc    H1010687  10.257   5.330   6.196  0.4972  0.4817 -0.8825
  369ccc     C610688  10.150   5.236   6.034  0.3600 -0.3720 -0.0099
  369ccc     O210689  10.084   5.247   5.932  0.1066  0.0398  0.3164
  369ccc     O310690  10.212   5.136   6.044  0.2262  0.0630 -0.6848
  369ccc     C710691  10.106   5.593   6.297 -0.1832  0.4502  0.1289
  369ccc    H1110692  10.089   5.644   6.393 -0.1665 -1.3663  1.1535
  369ccc    H1210693  10.212   5.583   6.272 -0.0306  0.1676  0.8568
  369ccc     C810694  10.040   5.682   6.193  0.2004 -0.7309 -0.0587
  369ccc    H1310695  10.025   5.634   6.096  1.1658 -1.7131  0.2596
  369ccc    H1410696   9.943   5.711   6.235  0.4959  1.8024 -0.9082
  369ccc     C910697  10.118   5.808   6.183  0.3041  0.0444  0.0651
  369ccc     O410698  10.153   5.869   6.282 -0.4904 -0.5429  0.5073
  369ccc     O510699  10.110   5.874   6.083 -0.7268  0.7859 -0.2639
  369ccc     O110700   9.964   5.240   6.666  0.2533 -0.1129 -0.4566
  370ccc     C310701   9.550   4.433   7.019  0.2800 -0.7056  0.4136
  370ccc     H510702   9.442   4.426   7.004  0.4094  1.1909 -2.0594
  370ccc     H610703   9.594   4.387   6.930 -0.8447  2.9849 -2.2879
  370ccc     C210704   9.589   4.374   7.154 -0.2478  0.0178  0.0371
  370ccc     H310705   9.504   4.311   7.186 -0.0647  0.8239  2.3366
  370ccc     H410706   9.590   4.456   7.226  0.4784  0.2905 -0.2776
  370ccc     C110707   9.712   4.279   7.156  0.4384 -0.0159  0.6751
  370ccc     H110708   9.716   4.218   7.248  0.6286 -1.3975 -0.2186
  370ccc     H210709   9.801   4.339   7.137 -1.0619  1.7828 -1.0666
  370ccc     N110710   9.698   4.176   7.051 -0.6668 -0.0780 -0.3509
  370ccc     C410711   9.614   4.063   7.091 -0.0524  0.0043  0.7178
  370ccc     H710712   9.580   4.070   7.195  2.3326  1.1599  1.5046
  370ccc     H810713   9.664   3.967   7.078  0.0680  0.1886 -0.3197
  370ccc     C510714   9.495   4.055   6.991  0.4650  0.3679  0.4592
  370ccc     H910715   9.433   4.145   6.998 -0.8051 -0.2317 -1.9985
  370ccc    H1010716   9.523   4.059   6.885  0.1432 -1.4588  0.2776
  370ccc     C610717   9.412   3.937   7.018 -0.4672  0.9043  0.3869
  370ccc     O210718   9.468   3.832   7.055 -0.5499 -0.0799  0.0754
  370ccc     O310719   9.293   3.944   7.019 -0.2946 -0.0339  0.3364
  370ccc     C710720   9.832   4.128   7.008  0.4049  0.1241 -0.2339
  370ccc    H1110721   9.901   4.126   7.093  2.4589 -0.8461 -1.8381
  370ccc    H1210722   9.832   4.030   6.960  0.3564 -1.1498  2.1801
  370ccc     C810723   9.876   4.219   6.895  0.2186 -0.0056  0.2600
  370ccc    H1310724   9.797   4.225   6.820 -1.4764  0.8963  2.0122
  370ccc    H1410725   9.894   4.314   6.947 -1.6545 -0.0533  1.0723
  370ccc     C910726   9.996   4.171   6.820  0.0652  0.7688  0.9832
  370ccc     O410727  10.043   4.224   6.723  0.0779 -0.0392  0.1366
  370ccc     O510728  10.051   4.069   6.852 -0.1392 -0.1906  0.6837
  370ccc     O110729   9.578   4.575   7.012  0.3930  0.6474  0.3086
  371ccc     C310730   8.561   5.878   6.938  0.6275 -0.3291 -0.1451
  371ccc     H510731   8.559   5.789   7.001 -2.8546 -0.2640 -0.0173
  371ccc     H610732   8.659   5.928   6.935  0.1400  0.6091 -0.9235
  371ccc     C210733   8.450   5.976   6.983  0.5105  1.2048  0.4191
  371ccc     H310734   8.459   5.994   7.090 -0.0169 -0.8280  0.8589
  371ccc     H410735   8.350   5.934   6.966  2.1361 -3.3933  0.6097
  371ccc     C110736   8.463   6.112   6.916 -0.1905 -0.1574  0.3967
  371ccc     H110737   8.459   6.101   6.807 -0.6402  2.4198  0.0964
  371ccc     H210738   8.562   6.155   6.935 -0.5700  1.0172 -0.1626
  371ccc     N110739   8.361   6.209   6.945 -0.3538 -0.3173  0.4315
  371ccc     C410740   8.225   6.171   6.910  1.1805 -0.2931  0.0045
  371ccc     H710741   8.187   6.110   6.993  0.0599  1.0877  0.5366
  371ccc     H810742   8.220   6.106   6.822  0.1354 -1.5644  0.9467
  371ccc     C510743   8.132   6.293   6.895  0.3112  0.3914 -0.1915
  371ccc     H910744   8.118   6.344   6.991  1.0188  0.7373 -0.2637
  371ccc    H1010745   8.185   6.361   6.828  0.5946  0.8293  0.4681
  371ccc     C610746   8.003   6.258   6.834  0.1384  0.1761  1.0194
  371ccc     O210747   7.963   6.140   6.826 -0.1840 -0.3043  0.4284
  371ccc     O310748   7.927   6.341   6.785  0.1833 -0.6491 -0.5805
  371ccc     C710749   8.367   6.249   7.092  0.0394 -0.1831  0.4137
  371ccc    H1110750   8.283   6.315   7.117  0.8212  0.9213  0.2052
  371ccc    H1210751   8.366   6.160   7.155 -0.3762 -1.5927 -1.4828
  371ccc     C810752   8.492   6.334   7.116  0.3660 -0.3972  0.1777
  371ccc    H1310753   8.587   6.285   7.090  0.2375 -0.0358 -1.0279
  371ccc    H1410754   8.483   6.422   7.051 -1.3925 -0.8938 -0.2994
  371ccc     C910755   8.492   6.364   7.265  0.0171 -0.1815  0.1639
  371ccc     O410756   8.532   6.289   7.352 -0.6992 -0.5039  0.3314
  371ccc     O510757   8.445   6.466   7.304  0.4504  0.2874 -0.2502
  371ccc     O110758   8.532   5.849   6.796 -0.5952 -0.5515 -0.4940
  372ccc     C310759   7.911   5.756   6.153  0.4115 -0.6614  0.1552
  372ccc     H510760   7.903   5.702   6.058  0.2970 -0.5962  0.1278
  372ccc     H610761   7.866   5.684   6.222  0.0228 -0.7368 -0.1735
  372ccc     C210762   7.841   5.893   6.152  0.2267 -0.2591 -0.2119
  372ccc     H310763   7.817   5.919   6.256  0.2685 -0.3516 -0.1792
  372ccc     H410764   7.740   5.885   6.111 -0.4476 -0.0831  1.3498
  372ccc     C110765   7.908   6.007   6.065  1.3174  0.4715  0.4270
  372ccc     H110766   7.904   5.966   5.964 -1.3358 -2.6373  1.6225
  372ccc     H210767   8.013   6.012   6.098  1.8922 -0.9723 -1.0856
  372ccc     N110768   7.836   6.130   6.088 -0.1472  0.8477  0.1265
  372ccc     C410769   7.834   6.176   6.226 -0.5142 -0.0954  0.4033
  372ccc     H710770   7.788   6.098   6.288  1.4180 -1.7348 -0.1279
  372ccc     H810771   7.774   6.268   6.229 -0.0797  0.2677 -1.0957
  372ccc     C510772   7.975   6.222   6.271 -0.3427  0.0618 -0.4537
  372ccc     H910773   8.049   6.142   6.290 -0.4437 -0.2983 -1.5179
  372ccc    H1010774   8.028   6.285   6.199 -0.0558 -1.0310 -1.2344
  372ccc     C610775   7.951   6.311   6.396  0.0943  0.0890 -0.3734
  372ccc     O210776   7.959   6.266   6.509  0.2319 -0.0481 -0.3932
  372ccc     O310777   7.921   6.430   6.391  0.2815  0.4755  0.4854
  372ccc     C710778   7.872   6.231   5.987 -0.4267 -0.1933 -0.3262
  372ccc    H1110779   7.977   6.259   6.002 -0.3232 -0.7354 -0.0362
  372ccc    H1210780   7.866   6.194   5.884 -2.6726 -0.7445 -0.0627
  372ccc     C810781   7.789   6.362   5.988  0.2505 -0.4591  0.5912
  372ccc    H1310782   7.689   6.332   5.952 -0.0829  2.1483 -0.8935
  372ccc    H1410783   7.787   6.404   6.088 -0.1401 -3.7053  2.0925
  372ccc     C910784   7.851   6.459   5.896 -0.2423 -0.4412  0.1956
  372ccc     O410785   7.839   6.447   5.773 -0.0913  0.9362 -0.2535
  372ccc     O510786   7.909   6.550   5.947  0.3935 -0.7318 -0.7470
  372ccc     O110787   8.048   5.769   6.183  0.1470 -0.0090 -0.0237
  373ccc     C310788   9.013   5.943   7.129  0.3141  0.4354 -0.4049
  373ccc     H510789   8.995   6.025   7.200  2.5061  1.5660 -1.0686
  373ccc     H610790   8.982   5.979   7.030 -1.8891 -1.5389 -0.5220
  373ccc     C210791   8.943   5.812   7.189  0.0413 -0.6698  0.0538
  373ccc     H310792   9.005   5.768   7.268 -1.1165  3.3212  3.5370
  373ccc     H410793   8.928   5.735   7.111 -0.6459 -2.1719  1.6053
  373ccc     C110794   8.808   5.855   7.240  0.2667  0.0502 -1.4790
  373ccc     H110795   8.738   5.779   7.277 -0.4851  1.2891 -0.2491
  373ccc     H210796   8.753   5.893   7.153 -0.3148 -0.1811 -1.2180
  373ccc     N110797   8.815   5.954   7.359  0.1923  0.1616 -0.4859
  373ccc     C410798   8.908   5.911   7.464  0.0418 -0.2196 -0.2673
  373ccc     H710799   9.005   5.935   7.419  1.0696  1.7972  2.7368
  373ccc     H810800   8.901   5.804   7.487  1.2719 -0.0190  1.2260
  373ccc     C510801   8.911   6.000   7.593  0.3157 -0.7795  1.1907
  373ccc     H910802   8.902   6.107   7.572 -0.3324 -0.8584  1.0621
  373ccc    H1010803   8.824   5.977   7.655  0.6347 -0.2819  1.8318
  373ccc     C610804   9.025   5.965   7.676 -0.1602  0.0956  0.4618
  373ccc     O210805   9.029   5.860   7.737 -0.1409  0.1993 -0.1586
  373ccc     O310806   9.095   6.055   7.712 -0.1072 -0.3931  0.2088
  373ccc     C710807   8.677   5.987   7.415 -0.7158  0.0471 -0.7799
  373ccc    H1110808   8.680   6.061   7.496  2.9292 -2.7671  2.0560
  373ccc    H1210809   8.613   6.018   7.332 -3.5012 -0.5991  0.9769
  373ccc     C810810   8.603   5.868   7.481  0.7245  0.4819 -0.5529
  373ccc    H1310811   8.539   5.812   7.411 -0.2170  0.0692  0.6110
  373ccc    H1410812   8.674   5.790   7.511 -0.6770 -0.0362  1.5901
  373ccc     C910813   8.525   5.900   7.602  0.4745 -0.4092  0.6816
  373ccc     O410814   8.459   6.002   7.606 -0.0836  0.5818  0.7147
  373ccc     O510815   8.486   5.809   7.675  0.3035  0.4964 -0.0667
  373ccc     O110816   9.150   5.916   7.122  0.3631  0.5740 -0.3156
  374ccc     C310817   9.922   6.347   7.376 -0.4956 -0.1959 -0.0527
  374ccc     H510818  10.026   6.318   7.393 -0.2215  1.2381  0.8463
  374ccc     H610819   9.932   6.443   7.324  1.5639  0.6681  1.7844
  374ccc     C210820   9.857   6.363   7.515 -0.3728  0.3937 -0.1956
  374ccc     H310821   9.749   6.380   7.517 -0.4962 -0.4537  1.6598
  374ccc     H410822   9.921   6.432   7.572 -1.1284  2.1131 -1.3483
  374ccc     C110823   9.870   6.227   7.588 -0.0997  0.1942  0.0662
  374ccc     H110824   9.977   6.213   7.610 -0.0996  0.4758  0.2407
  374ccc     H210825   9.839   6.148   7.518 -0.0177  0.4674 -0.2787
  374ccc     N110826   9.801   6.219   7.723  0.1886 -0.5941 -0.6589
  374ccc     C410827   9.660   6.172   7.721 -0.5722  0.6078 -0.2984
  374ccc     H710828   9.650   6.091   7.794 -1.2061  1.2289  0.3268
  374ccc     H810829   9.654   6.124   7.623  3.2042  0.3517 -0.5671
  374ccc     C510830   9.557   6.279   7.752  1.5269 -0.7327 -0.4228
  374ccc     H910831   9.572   6.328   7.849  0.2809 -0.4240 -0.3717
  374ccc    H1010832   9.549   6.360   7.678 -0.0589  0.1617  0.6618
  374ccc     C610833   9.423   6.210   7.774 -0.2355  0.1870  0.7206
  374ccc     O210834   9.330   6.255   7.709 -0.0449 -0.4270  0.2615
  374ccc     O310835   9.416   6.117   7.850 -0.0526 -0.0127  0.1014
  374ccc     C710836   9.889   6.150   7.820  0.4296  0.4740 -0.6432
  374ccc    H1110837   9.880   6.042   7.803 -1.0265  0.3226  0.8526
  374ccc    H1210838   9.994   6.178   7.805  0.1945  0.2303 -3.0441
  374ccc     C810839   9.864   6.196   7.964  0.3706 -0.0938 -1.3241
  374ccc    H1310840   9.959   6.192   8.018 -0.1200  0.3763 -0.4060
  374ccc    H1410841   9.816   6.294   7.968  1.1771  0.2600  0.6270
  374ccc     C910842   9.763   6.099   8.029 -1.1281  0.2797  0.6521
  374ccc     O410843   9.809   6.000   8.090 -0.2585 -0.5360  0.6523
  374ccc     O510844   9.652   6.134   8.059 -0.1927  0.0086 -0.4113
  374ccc     O110845   9.850   6.236   7.310  0.1436 -0.7404  0.2463
  375ccc     C310846   7.006   4.669   5.198 -0.2565 -0.3788  0.3929
  375ccc     H510847   7.063   4.763   5.188  0.2525 -0.8371 -1.3838
  375ccc     H610848   7.074   4.598   5.150 -0.3486 -0.3724  0.2505
  375ccc     C210849   6.870   4.671   5.137  0.8750  0.0485  0.0856
  375ccc     H310850   6.877   4.715   5.037  2.3001 -1.1283 -0.3609
  375ccc     H410851   6.809   4.740   5.197  0.8605 -1.6804  2.1728
  375ccc     C110852   6.805   4.529   5.143 -0.2734  0.8281 -0.4998
  375ccc     H110853   6.789   4.500   5.247  1.2939 -2.3751 -1.0094
  375ccc     H210854   6.881   4.460   5.105  0.4782  1.9818 -1.1669
  375ccc     N110855   6.683   4.508   5.061 -0.0970  0.6548 -0.1020
  375ccc     C410856   6.630   4.374   5.061 -0.1236 -0.1488 -0.4775
  375ccc     H710857   6.526   4.366   5.029 -1.0373 -1.8625  2.4631
  375ccc     H810858   6.649   4.341   5.164  1.4277 -2.3242 -1.3873
  375ccc     C510859   6.713   4.278   4.982 -0.4752  0.2323 -0.1584
  375ccc     H910860   6.774   4.324   4.903 -0.2543  0.9806  0.4346
  375ccc    H1010861   6.780   4.228   5.053  0.7985  1.2078 -0.6351
  375ccc     C610862   6.628   4.185   4.902  0.5860  0.8359 -1.0545
  375ccc     O210863   6.594   4.211   4.787  0.3790 -0.4760  0.6495
  375ccc     O310864   6.610   4.072   4.954  0.4380  0.0273  0.2279
  375ccc     C710865   6.578   4.608   5.099 -0.9911 -0.1712  0.9062
  375ccc    H1110866   6.617   4.708   5.076 -1.2457 -0.2056  0.3071
  375ccc    H1210867   6.492   4.596   5.031 -0.3603  0.7274 -0.0908
  375ccc     C810868   6.514   4.594   5.235 -0.5978  0.0442  0.1509
  375ccc    H1310869   6.461   4.498   5.238 -0.6675  0.0996  1.9585
  375ccc    H1410870   6.582   4.586   5.321 -0.0358 -0.4339 -0.3215
  375ccc     C910871   6.411   4.696   5.265 -0.5811 -0.4560 -0.5525
  375ccc     O410872   6.328   4.741   5.182  0.2940 -0.6789 -0.2964
  375ccc     O510873   6.390   4.740   5.380 -0.5999  0.1012  0.7855
  375ccc     O110874   6.996   4.634   5.334 -0.4060  0.4811 -0.6859
  376ccc     C310875   7.733   5.107   5.933  0.3209  0.0183  0.9645
  376ccc     H510876   7.837   5.082   5.908 -0.5833 -2.1793 -0.9677
  376ccc     H610877   7.714   5.213   5.912  1.3184  0.7219  3.3203
  376ccc     C210878   7.707   5.082   6.081  0.8504  0.7606  0.0799
  376ccc     H310879   7.607   5.122   6.101 -0.4308 -2.6297  1.1547
  376ccc     H410880   7.780   5.133   6.145 -0.7278  1.8373  1.1042
  376ccc     C110881   7.704   4.932   6.118  0.3216 -0.1140 -0.6036
  376ccc     H110882   7.659   4.866   6.043 -0.2739 -0.0212 -0.3309
  376ccc     H210883   7.642   4.923   6.208 -1.0204 -0.1175 -1.5102
  376ccc     N110884   7.838   4.889   6.158  0.4249  0.4423  0.5477
  376ccc     C410885   7.931   4.849   6.050 -0.2284 -0.6336  0.6252
  376ccc     H710886   8.029   4.817   6.088  1.3439  0.2879 -2.2743
  376ccc     H810887   7.953   4.942   5.995 -1.6482 -1.1651 -0.9153
  376ccc     C510888   7.867   4.750   5.963 -0.6035  0.1363  0.4612
  376ccc     H910889   7.834   4.664   6.022 -1.4079 -0.4987 -0.8682
  376ccc    H1010890   7.788   4.783   5.895  0.5629  2.4635  0.1297
  376ccc     C610891   7.967   4.676   5.876 -0.3273 -0.0001  0.1151
  376ccc     O210892   8.024   4.575   5.918  0.1687 -0.1401  0.0773
  376ccc     O310893   8.011   4.724   5.774  0.1825 -0.0618  0.2079
  376ccc     C710894   7.822   4.787   6.259 -0.3276 -0.9364  0.0817
  376ccc    H1110895   7.749   4.828   6.330  0.2267  1.5157 -0.6483
  376ccc    H1210896   7.787   4.690   6.222 -1.3926 -0.2237 -0.8369
  376ccc     C810897   7.944   4.767   6.345 -0.2488  0.6027 -0.6580
  376ccc    H1310898   8.021   4.704   6.297 -0.6560  0.7726 -1.5655
  376ccc    H1410899   7.986   4.864   6.374 -0.2261  0.2764  0.4184
  376ccc     C910900   7.902   4.694   6.471 -0.6344  0.4995 -0.6289
  376ccc     O410901   7.933   4.579   6.487 -0.1741  0.3336 -0.2251
  376ccc     O510902   7.850   4.757   6.563 -0.2106  0.3750  0.1534
  376ccc     O110903   7.644   5.024   5.858  0.6689  0.0365  0.1942
  377ccc     C310904   7.792   5.289   4.817  0.0873  0.3833 -0.1030
  377ccc     H510905   7.738   5.382   4.840 -0.0870 -0.0165  1.1767
  377ccc     H610906   7.804   5.240   4.915  1.3365  0.6769 -0.0966
  377ccc     C210907   7.936   5.318   4.759  0.6236 -0.0334 -0.2483
  377ccc     H310908   7.987   5.388   4.827 -0.4178 -0.6809  1.2514
  377ccc     H410909   7.934   5.369   4.663 -0.3337  0.7086  0.1461
  377ccc     C110910   8.024   5.191   4.747 -0.3149  0.3283 -0.0424
  377ccc     H110911   7.974   5.133   4.670  1.5799 -1.4104 -0.0482
  377ccc     H210912   8.035   5.143   4.845  0.0667 -0.5662 -0.5174
  377ccc     N110913   8.157   5.214   4.698  0.5865  0.8931  0.1697
  377ccc     C410914   8.232   5.082   4.694  0.3581  0.1388  0.2090
  377ccc     H710915   8.151   5.011   4.672  1.6921 -1.1458 -0.7390
  377ccc     H810916   8.272   5.048   4.790  0.6787 -0.0130  0.0254
  377ccc     C510917   8.341   5.071   4.581 -0.2816  0.6958 -0.1596
  377ccc     H910918   8.302   5.070   4.478 -1.2061  3.0192  0.1092
  377ccc    H1010919   8.406   5.157   4.598  1.0027 -0.4919  1.1605
  377ccc     C610920   8.427   4.956   4.606  0.2096  1.1533  0.2566
  377ccc     O210921   8.388   4.838   4.593  0.0452  0.3837  0.0899
  377ccc     O310922   8.531   4.974   4.655 -0.0444 -0.5160 -0.5521
  377ccc     C710923   8.233   5.327   4.762 -0.9499 -0.8749  0.1019
  377ccc    H1110924   8.335   5.334   4.722 -1.6077 -0.7515 -1.6148
  377ccc    H1210925   8.180   5.420   4.738 -1.0889 -0.1515  2.8838
  377ccc     C810926   8.245   5.322   4.909 -0.4307 -0.7451 -0.0992
  377ccc    H1310927   8.148   5.334   4.958 -0.5826  0.7960 -0.7170
  377ccc    H1410928   8.274   5.223   4.945 -0.1856 -1.3001 -1.7251
  377ccc     C910929   8.334   5.439   4.951 -0.3425  0.6635 -0.4869
  377ccc     O410930   8.440   5.422   5.013 -0.1300  0.0215 -0.5849
  377ccc     O510931   8.274   5.545   4.958  0.3892  0.6692  0.3272
  377ccc     O110932   7.720   5.212   4.723 -0.3814 -0.1479  0.0085
  378ccc     C310933   7.187   4.524   4.867 -1.1809  0.3694  0.0149
  378ccc     H510934   7.211   4.571   4.964  1.7260  0.0976 -0.4704
  378ccc     H610935   7.086   4.557   4.840 -1.4360 -0.5491 -0.1777
  378ccc     C210936   7.205   4.367   4.886 -1.2636 -0.5458  0.0804
  378ccc     H310937   7.161   4.348   4.985 -2.1188 -0.3977 -0.2576
  378ccc     H410938   7.311   4.339   4.892 -1.4323 -1.4141 -0.7492
  378ccc     C110939   7.129   4.284   4.779 -0.4443 -0.2949  0.2601
  378ccc     H110940   7.158   4.323   4.681  1.5608 -0.9923  0.5442
  378ccc     H210941   7.022   4.309   4.768 -0.7782 -1.6075  0.3661
  378ccc     N110942   7.165   4.143   4.770  0.1536 -0.1712  0.0049
  378ccc     C410943   7.299   4.123   4.702 -0.1353 -0.9517  0.1326
  378ccc     H710944   7.359   4.205   4.742  1.4410 -2.0295  0.0489
  378ccc     H810945   7.305   4.150   4.595 -0.6349  0.8013  0.5159
  378ccc     C510946   7.361   3.989   4.737  0.0842  0.0498  0.0820
  378ccc     H910947   7.331   3.967   4.840  0.5921 -1.8508 -0.1329
  378ccc    H1010948   7.329   3.901   4.679  1.4409  0.2934 -1.1067
  378ccc     C610949   7.510   3.993   4.723  0.5150  0.0256  0.2390
  378ccc     O210950   7.573   3.906   4.786  0.1948 -0.6041 -0.3620
  378ccc     O310951   7.562   4.043   4.626 -0.4204  0.2376 -0.1763
  378ccc     C710952   7.062   4.061   4.698 -0.0416  0.6108 -0.1109
  378ccc    H1110953   7.032   4.107   4.603  0.1602 -1.3075 -1.1722
  378ccc    H1210954   7.102   3.962   4.670 -2.6708 -0.1284 -1.5892
  378ccc     C810955   6.930   4.050   4.781 -0.6963  0.0401 -0.1459
  378ccc    H1310956   6.945   4.045   4.889 -1.4102  1.7311  0.0589
  378ccc    H1410957   6.868   4.141   4.781  0.3919  0.8056  0.3279
  378ccc     C910958   6.848   3.930   4.718  0.6074  0.2073 -0.3040
  378ccc     O410959   6.847   3.902   4.597 -0.0431 -0.2172 -0.0373
  378ccc     O510960   6.796   3.849   4.791 -0.5946 -0.0582 -0.1822
  378ccc     O110961   7.284   4.565   4.764  0.8787  0.2432 -0.2019
  379ccc     C310962   7.236   6.251   6.154  0.5894 -0.2025 -0.2816
  379ccc     H510963   7.272   6.206   6.061  0.0607  1.3831 -1.2748
  379ccc     H610964   7.172   6.336   6.128  0.7629 -0.7789 -2.8350
  379ccc     C210965   7.365   6.282   6.233 -0.8226  0.2194 -0.9443
  379ccc     H310966   7.427   6.353   6.176 -1.4884  0.6766 -1.1076
  379ccc     H410967   7.419   6.187   6.243 -3.7870 -1.6018 -1.1356
  379ccc     C110968   7.341   6.354   6.368 -0.4297 -0.0938  0.9742
  379ccc     H110969   7.283   6.284   6.430  1.2542 -0.9742  1.6343
  379ccc     H210970   7.284   6.444   6.345  0.5936  0.1888 -0.6113
  379ccc     N110971   7.465   6.402   6.440  0.4131  1.0177  0.5363
  379ccc     C410972   7.430   6.492   6.551 -0.4142 -0.1234  0.0616
  379ccc     H710973   7.409   6.443   6.646  1.8891 -1.5528 -0.0976
  379ccc     H810974   7.338   6.548   6.525  0.3210  0.2197 -2.0185
  379ccc     C510975   7.538   6.592   6.585  0.3962 -0.6278  0.4065
  379ccc     H910976   7.586   6.632   6.495 -1.1508 -0.9934 -0.6347
  379ccc    H1010977   7.497   6.681   6.634  1.7028  0.5598 -0.5821
  379ccc     C610978   7.636   6.524   6.679 -0.0024  0.5079 -0.1160
  379ccc     O210979   7.602   6.495   6.790 -1.4237 -0.0431  0.2772
  379ccc     O310980   7.758   6.532   6.655 -0.1849 -0.6066  0.2798
  379ccc     C710981   7.564   6.297   6.467  0.6338  0.4148 -0.6280
  379ccc    H1110982   7.591   6.244   6.374  0.0596 -1.4892  0.2362
  379ccc    H1210983   7.657   6.339   6.507  0.4367 -0.0098  0.3061
  379ccc     C810984   7.514   6.186   6.562  0.4656 -0.5921  0.5750
  379ccc    H1310985   7.409   6.203   6.589 -0.6208 -1.4778 -2.6510
  379ccc    H1410986   7.512   6.089   6.511  1.5607  0.5569 -1.8144
  379ccc     C910987   7.604   6.168   6.682 -0.2044  0.2173 -0.0800
  379ccc     O410988   7.722   6.147   6.660  0.8390  0.2560  0.3332
  379ccc     O510989   7.568   6.191   6.795 -0.1423 -0.4605 -0.2366
  379ccc     O110990   7.163   6.151   6.229  0.1655 -0.1939 -0.9559
  380ccc     C310991   6.324   5.886   6.268 -0.8541 -0.1694  0.0551
  380ccc     H510992   6.308   5.890   6.159 -2.5288 -1.5482  0.2115
  380ccc     H610993   6.305   5.784   6.302 -0.3568 -0.1655  0.3621
  380ccc     C210994   6.224   5.990   6.323  0.2242  0.2969 -0.5577
  380ccc     H310995   6.120   5.960   6.305 -0.2214 -0.4269  2.6683
  380ccc     H410996   6.241   6.087   6.274 -1.5049 -0.5214 -3.0319
  380ccc     C110997   6.240   6.022   6.473  0.4366 -0.7182 -0.0214
  380ccc     H110998   6.145   6.066   6.508 -1.1563 -0.2593 -4.3343
  380ccc     H210999   6.328   6.085   6.490 -0.4792  0.8172 -0.7405
  380ccc     N111000   6.265   5.903   6.561 -0.6970  0.3481  0.4707
  380ccc     C411001   6.161   5.808   6.544 -0.1759  0.0016  0.8973
  380ccc     H711002   6.147   5.780   6.439 -3.0860 -0.3321  1.2670
  380ccc     H811003   6.065   5.847   6.581 -0.1815  0.4023  0.4713
  380ccc     C511004   6.188   5.680   6.620 -0.1589  0.5828 -0.4202
  380ccc     H911005   6.294   5.654   6.608 -0.1926 -0.5913  1.4381
  380ccc    H1011006   6.165   5.694   6.727  1.4658  0.5843 -0.0400
  380ccc     C611007   6.111   5.564   6.563 -0.2574  0.3890 -0.0981
  380ccc     O211008   6.109   5.536   6.445  0.2455 -0.1983  0.1593
  380ccc     O311009   6.032   5.504   6.634 -0.2802 -0.3707  0.0147
  380ccc     C711010   6.320   5.928   6.691  0.1671 -0.2117  0.1387
  380ccc    H1111011   6.359   5.837   6.739  0.6063 -0.3418 -0.4516
  380ccc    H1211012   6.398   6.004   6.680 -2.0975  2.0400 -1.7252
  380ccc     C811013   6.215   5.996   6.782  0.6978  0.5209  0.3839
  380ccc    H1311014   6.183   6.095   6.748  0.6322  0.7841  1.1976
  380ccc    H1411015   6.130   5.932   6.808 -0.6322  2.1179  0.1740
  380ccc     C911016   6.275   6.025   6.913 -0.1928  0.2024 -0.2287
  380ccc     O411017   6.392   6.061   6.923  0.2714 -0.3262  0.0935
  380ccc     O511018   6.214   6.000   7.017  0.2308 -0.2442 -0.6152
  380ccc     O111019   6.455   5.939   6.310  0.1719  0.2193  0.1224
  381ccc     C311020   8.218   5.975   5.850 -0.1091 -0.0933 -0.3020
  381ccc     H511021   8.190   5.896   5.922  1.1519  0.2721  0.6193
  381ccc     H611022   8.282   5.940   5.769  1.6037  1.5998  0.2435
  381ccc     C211023   8.287   6.075   5.940 -0.0223 -0.1796 -0.3393
  381ccc     H311024   8.367   6.036   6.003  0.3400  2.6024  1.0885
  381ccc     H411025   8.209   6.110   6.009  0.6844  1.8063 -0.4726
  381ccc     C111026   8.353   6.197   5.865  0.0031 -0.3185 -0.0138
  381ccc     H111027   8.273   6.257   5.820 -1.1898 -2.0741 -0.3708
  381ccc     H211028   8.415   6.161   5.782  1.3836  0.0729  0.8290
  381ccc     N111029   8.434   6.287   5.955  0.2363 -0.2151 -0.5171
  381ccc     C411030   8.571   6.228   5.980 -0.0158  0.3587 -0.8366
  381ccc     H711031   8.612   6.177   5.892 -0.1952 -1.2300 -0.0328
  381ccc     H811032   8.562   6.155   6.061 -0.5384  2.5544  1.2214
  381ccc     C511033   8.662   6.330   6.031 -0.4641 -0.0631  0.3120
  381ccc     H911034   8.653   6.412   5.958 -1.2283 -1.5786 -1.3741
  381ccc    H1011035   8.643   6.356   6.136 -1.3235 -0.2704  0.2186
  381ccc     C611036   8.804   6.279   6.021 -0.2689  0.1751  0.2639
  381ccc     O211037   8.829   6.162   6.023  0.0591 -0.0913 -0.0889
  381ccc     O311038   8.897   6.357   6.010  0.1896  0.4767 -0.4400
  381ccc     C711039   8.350   6.330   6.073 -0.0312  0.5461 -0.5278
  381ccc    H1111040   8.257   6.363   6.025 -1.7176 -0.1805  2.0374
  381ccc    H1211041   8.332   6.243   6.138 -2.0818  0.1641 -1.5307
  381ccc     C811042   8.385   6.452   6.152 -0.8696 -0.1516 -0.3157
  381ccc    H1311043   8.459   6.425   6.228 -0.9252  0.4645 -0.0430
  381ccc    H1411044   8.413   6.541   6.094  0.4156  0.7723  1.6386
  381ccc     C911045   8.256   6.487   6.225  0.1963 -0.3341  0.0409
  381ccc     O411046   8.247   6.472   6.344 -0.5618 -0.5020 -0.7769
  381ccc     O511047   8.163   6.529   6.159  0.1693  0.2397 -0.1016
  381ccc     O111048   8.089   6.026   5.805 -0.2199  0.2754  0.0891
  382ccc     C311049   7.907   5.431   5.900 -1.1102  0.5890 -0.0934
  382ccc     H511050   7.935   5.476   5.996 -0.2999  0.3334 -0.2041
  382ccc     H611051   7.885   5.326   5.924  0.7272  0.3274  0.5657
  382ccc     C211052   8.026   5.444   5.803  0.4581 -0.1782 -0.5780
  382ccc     H311053   7.997   5.384   5.716  0.9331 -0.3338 -0.6303
  382ccc     H411054   8.109   5.393   5.852  0.0649  0.0099  0.3153
  382ccc     C111055   8.056   5.597   5.761 -0.0578 -0.4027  0.6309
  382ccc     H111056   8.078   5.659   5.848  0.1660  1.0333 -0.4122
  382ccc     H211057   7.966   5.647   5.724  0.9967  0.7330 -0.4695
  382ccc     N111058   8.170   5.616   5.675 -0.5032  0.0037  0.3644
  382ccc     C411059   8.300   5.563   5.724  0.4460 -0.0963  0.3195
  382ccc     H711060   8.380   5.576   5.650  0.0893  0.2783 -0.0106
  382ccc     H811061   8.283   5.458   5.751 -1.8627 -0.1506 -1.0610
  382ccc     C511062   8.337   5.624   5.856 -0.0269 -0.5639 -0.2346
  382ccc     H911063   8.325   5.733   5.864 -1.3398 -0.6401 -0.8350
  382ccc    H1011064   8.271   5.573   5.927 -1.4760  1.2240 -0.2113
  382ccc     C611065   8.478   5.585   5.884 -0.8274 -0.2344  0.0504
  382ccc     O211066   8.548   5.667   5.946  0.4309  0.3466  0.1501
  382ccc     O311067   8.516   5.471   5.875 -0.2560 -0.4451  0.3287
  382ccc     C711068   8.151   5.587   5.534  0.6428  0.8029  0.4690
  382ccc    H1111069   8.179   5.487   5.499 -0.9942  0.7672 -0.8917
  382ccc    H1211070   8.044   5.587   5.511  0.5364 -0.8473  0.8198
  382ccc     C811071   8.219   5.684   5.444  0.6807  0.1217 -0.2395
  382ccc    H1311072   8.193   5.788   5.467  0.5532  0.2404 -0.9038
  382ccc    H1411073   8.328   5.674   5.443  0.6504 -0.5363  1.0396
  382ccc     C911074   8.179   5.646   5.302 -0.0382 -0.1349  1.2262
  382ccc     O411075   8.137   5.730   5.225 -0.5326 -0.3888  0.4604
  382ccc     O511076   8.218   5.538   5.255  0.6582 -0.0827 -0.0539
  382ccc     O111077   7.787   5.501   5.854 -0.2759  0.4185 -0.2255
  383SOL     OW11078   5.693   0.803   3.745 -0.3395 -0.0993 -0.7096
  383SOL    HW111079   5.775   0.794   3.696  1.6648 -1.2882  2.5368
  383SOL    HW211080   5.643   0.724   3.723  0.4657 -0.5555 -0.9280
  384SOL     OW11081   1.813   2.766   9.064  0.1516 -0.3940 -0.1120
  384SOL    HW111082   1.727   2.736   9.094  0.3390  0.3074  1.1781
  384SOL    HW211083   1.794   2.829   8.995 -0.3253 -1.0099 -0.5575
  385SOL     OW11084  11.313   4.395   8.848 -0.2010 -0.2520  0.3866
  385SOL    HW111085  11.392   4.447   8.862 -0.9844  0.4521  2.6735
  385SOL    HW211086  11.271   4.435   8.772  0.2483  1.2129  0.8767
  386SOL     OW11087   6.383  13.287  10.753  0.1678 -0.2460  0.2086
  386SOL    HW111088   6.296  13.311  10.721  0.2205 -0.4243 -0.0732
  386SOL    HW211089   6.390  13.193  10.736  0.0969 -0.3943  0.9978
  387SOL     OW11090  11.015   5.991   5.389  0.1870 -0.0963  0.1466
  387SOL    HW111091  11.061   5.925   5.337  0.8932  0.2029  0.3746
  387SOL    HW211092  11.084   6.050   5.420 -0.4012  0.6221  0.1358
  388SOL     OW11093   0.308   7.671  11.351  0.3146  0.1696 -0.7875
  388SOL    HW111094   0.366   7.732  11.305 -2.4585  2.5825 -1.3680
  388SOL    HW211095   0.268   7.723  11.420  0.2527 -1.9505  0.8936
  389SOL     OW11096   4.283   8.128   0.855 -0.3258 -0.0609  0.1522
  389SOL    HW111097   4.270   8.040   0.821  3.3415 -0.6923 -0.0026
  389SOL    HW211098   4.274   8.118   0.950 -1.6309 -0.1631  0.0466
  390SOL     OW11099   8.293   8.428   9.487 -0.4896 -0.0968  0.1353
  390SOL    HW111100   8.261   8.401   9.400  0.4076 -1.1170  0.1004
  390SOL    HW211101   8.388   8.427   9.479 -0.3133  3.6167  0.0280
  391SOL     OW11102  11.559   4.139   2.337 -0.3118  0.2087  0.3900
  391SOL    HW111103  11.600   4.187   2.265 -0.2532 -0.9773 -0.3860
  391SOL    HW211104  11.466   4.136   2.314 -0.6497  1.5685  1.3959
  392SOL     OW11105  11.160  11.773  11.902 -0.0269  0.3631 -0.1767
  392SOL    HW111106  11.194  11.781  11.991 -0.4087 -0.5402  0.0638
  392SOL    HW211107  11.144  11.863  11.874  1.4843  0.7503  0.1054
  393SOL     OW11108   7.408   8.473  11.005 -1.1844 -0.1673  0.1940
  393SOL    HW111109   7.373   8.459  10.917 -0.5887 -0.6239  0.0195
  393SOL    HW211110   7.374   8.558  11.032 -1.1882  0.0791 -0.5711
  394SOL     OW11111   9.432   0.712   0.366 -0.0539  0.0661 -0.3060
  394SOL    HW111112   9.382   0.641   0.407 -1.6248  1.4481  0.3020
  394SOL    HW211113   9.488   0.745   0.436 -1.7886  1.5662  0.4822
  395SOL     OW11114   1.018   6.044   7.937 -0.3675  0.1391 -0.0893
  395SOL    HW111115   0.959   6.038   7.863  0.5686  0.8015 -0.9071
  395SOL    HW211116   1.105   6.026   7.900  0.0874  0.2669  0.8827
  396SOL     OW11117   6.150   6.783  12.406  0.7067 -0.4091 -0.5053
  396SOL    HW111118   6.195   6.860  12.440 -0.3099  0.1824 -0.4679
  396SOL    HW211119   6.074   6.772  12.464 -0.4421 -0.0527 -1.8801
  397SOL     OW11120   8.932   0.565   2.343  0.1826 -0.1415 -0.3154
  397SOL    HW111121   8.970   0.525   2.264 -1.0130 -0.2660 -0.8465
  397SOL    HW211122   8.842   0.584   2.319 -0.4130 -0.8053  1.2449
  398SOL     OW11123  12.504   8.119   4.815 -0.0683 -0.5663  0.2487
  398SOL    HW111124  12.508   8.044   4.874  2.2177 -0.7364 -0.0200
  398SOL    HW211125  12.593   8.126   4.779 -0.7649  0.9947 -1.3340
  399SOL     OW11126   4.640   0.277   0.370 -0.0809  0.1612 -0.1538
  399SOL    HW111127   4.566   0.219   0.352 -0.4891  0.4727  0.4782
  399SOL    HW211128   4.706   0.221   0.410 -0.4508  0.1147  0.3997
  400SOL     OW11129   1.157   2.843   0.045  0.6813  0.1186  0.8001
  400SOL    HW111130   1.084   2.859  -0.015  1.3296  0.4000  0.0727
  400SOL    HW211131   1.129   2.883   0.128 -0.3858 -0.6251  0.8083
  401SOL     OW11132   7.512   8.654   8.718  0.7174  0.6211  0.2251
  401SOL    HW111133   7.477   8.583   8.771  0.7311  0.8364  0.5302
  401SOL    HW211134   7.440   8.679   8.660  0.8468  0.0885 -0.1682
  402SOL     OW11135   0.423   9.607   1.099  0.9048 -0.4918 -0.6912
  402SOL    HW111136   0.329   9.618   1.082  0.4029  3.2178  2.9760
  402SOL    HW211137   0.465   9.667   1.037  0.5694  0.0820 -0.3737
  403SOL     OW11138   0.218  12.229   5.099  0.0939  0.7052 -0.5570
  403SOL    HW111139   0.182  12.312   5.071  0.1902  1.3866  1.2134
  403SOL    HW211140   0.270  12.198   5.024  1.0164  2.7937 -0.8289
  404SOL     OW11141   0.597   0.368   9.029  0.0457 -0.3692  0.2473
  404SOL    HW111142   0.675   0.380   9.083  1.3114 -0.6166 -1.4704
  404SOL    HW211143   0.527   0.409   9.080  1.4503  0.6841  1.4201
  405SOL     OW11144  11.284   0.845  12.471 -0.0189  0.2024 -0.6626
  405SOL    HW111145  11.284   0.848  12.567 -1.6464 -0.2078 -0.6380
  405SOL    HW211146  11.256   0.933  12.445 -1.5107 -0.2634 -0.7075
  406SOL     OW11147   4.259  10.139   3.945 -0.6446 -0.2670  0.0681
  406SOL    HW111148   4.248  10.168   4.035 -0.6489 -0.1572  0.0331
  406SOL    HW211149   4.191  10.187   3.897 -1.2808 -1.0491  0.1624
  407SOL     OW11150   0.771   7.180   8.605  0.4639  0.4263  0.8960
  407SOL    HW111151   0.855   7.226   8.601  0.4099  0.4635 -1.1950
  407SOL    HW211152   0.709   7.241   8.564 -0.1704 -0.3996  0.6095
  408SOL     OW11153   4.580   0.344   1.229 -0.2731  0.2218 -0.0295
  408SOL    HW111154   4.618   0.312   1.147  0.6156  0.8282  0.1370
  408SOL    HW211155   4.588   0.270   1.290 -0.7680 -0.1659 -0.4289
  409SOL     OW11156   5.877   2.471  10.327  0.2798  0.4170 -0.0626
  409SOL    HW111157   5.816   2.480  10.400  0.0127  1.1995 -0.3719
  409SOL    HW211158   5.938   2.544  10.338  0.5996  0.1851 -0.2836
  410SOL     OW11159   2.861  13.029   7.454  0.5399 -0.3630 -0.0067
  410SOL    HW111160   2.886  13.080   7.531 -0.0352 -1.2629  0.8050
  410SOL    HW211161   2.804  13.088   7.404 -2.2710 -0.9368  2.2092
  411SOL     OW11162  10.090   2.404   2.107 -0.2748 -0.1753 -0.3253
  411SOL    HW111163  10.010   2.356   2.129 -1.0113  0.2979 -1.7814
  411SOL    HW211164  10.158   2.337   2.103 -1.0439 -0.9429 -1.1106
  412SOL     OW11165   2.010   4.348   3.837  0.2473  0.0661  0.2555
  412SOL    HW111166   2.090   4.394   3.813  1.9103 -2.0024  1.4589
  412SOL    HW211167   2.006   4.275   3.775  0.0512 -0.5928  1.0271
  413SOL     OW11168  12.371  11.626  12.016 -0.1664 -0.7148  0.1103
  413SOL    HW111169  12.418  11.684  11.956  0.8500 -0.0223  1.4883
  413SOL    HW211170  12.406  11.539  11.999 -0.6645 -0.7125 -1.0028
  414SOL     OW11171   4.530  12.028   4.984 -0.3664  0.4777 -0.2243
  414SOL    HW111172   4.492  11.983   5.059 -0.2394 -0.9932 -1.0039
  414SOL    HW211173   4.455  12.045   4.926 -0.0845 -1.3568 -1.2190
  415SOL     OW11174   1.318  12.560   9.639 -0.2300  0.0626 -0.2211
  415SOL    HW111175   1.346  12.475   9.604 -0.3160 -0.1683  0.2675
  415SOL    HW211176   1.348  12.623   9.574  0.6727 -0.2559 -0.1326
  416SOL     OW11177   5.543   6.949   5.998  0.3278 -0.6151 -0.2376
  416SOL    HW111178   5.578   6.951   6.087  0.1457 -1.3706 -0.1372
  416SOL    HW211179   5.472   6.884   6.002  0.2087 -0.5339 -0.8933
  417SOL     OW11180   6.211   6.088  12.893  0.6361 -0.3825  0.6943
  417SOL    HW111181   6.187   6.180  12.879 -0.5354 -0.6242  1.0759
  417SOL    HW211182   6.135   6.038  12.866  1.5419 -1.3084 -0.2433
  418SOL     OW11183   2.396  12.397   9.297  0.0054 -0.0820  0.4512
  418SOL    HW111184   2.451  12.409   9.374  0.4877 -0.8061  0.2289
  418SOL    HW211185   2.421  12.311   9.263 -0.0494  0.3217 -0.6390
  419SOL     OW11186   8.944   2.342  12.163  0.3178  0.3327 -0.5018
  419SOL    HW111187   8.883   2.396  12.114  0.1425  0.0615 -0.5836
  419SOL    HW211188   8.889   2.290  12.222  0.5352  0.7654  0.0955
  420SOL     OW11189  12.135   4.325   1.946  0.2611  0.6054 -0.1626
  420SOL    HW111190  12.170   4.338   2.034  2.4314 -0.5589 -0.7810
  420SOL    HW211191  12.211   4.300   1.893 -1.2770 -0.5226 -1.9733
  421SOL     OW11192  11.217   2.186   2.031  0.3719  0.3480 -0.0008
  421SOL    HW111193  11.156   2.234   2.087  0.2576  0.6617 -0.3887
  421SOL    HW211194  11.168   2.168   1.951  0.6262  0.1628 -0.1184
  422SOL     OW11195   3.696  11.290  10.083  0.2809  0.3422  0.4285
  422SOL    HW111196   3.775  11.256  10.125  0.6166  0.0850 -0.3839
  422SOL    HW211197   3.625  11.234  10.117  0.0279  2.0114  2.9598
  423SOL     OW11198   9.025   1.225   7.685  0.1888 -0.2664  0.3866
  423SOL    HW111199   9.007   1.310   7.644 -2.1277 -0.7002  0.4134
  423SOL    HW211200   9.116   1.233   7.715  0.7975  1.3630 -1.6114
  424SOL     OW11201   3.242   0.939   3.577 -0.8475 -0.3388  0.5129
  424SOL    HW111202   3.252   0.883   3.654 -0.7740 -0.2713  0.5528
  424SOL    HW211203   3.256   0.880   3.503  0.8536 -0.0724  0.5744
  425SOL     OW11204   4.019  11.872   1.660  0.4743 -0.4521  0.2833
  425SOL    HW111205   3.949  11.858   1.597  0.1845  1.0797  0.2386
  425SOL    HW211206   4.091  11.908   1.609  0.5676 -0.0926  0.6612
  426SOL     OW11207   9.576   3.035   0.684 -0.1055 -0.0383  0.2153
  426SOL    HW111208   9.599   2.949   0.650 -2.3777 -0.6680  0.0910
  426SOL    HW211209   9.573   3.092   0.606 -2.7186 -0.8777 -0.4026
  427SOL     OW11210   7.696   3.396   7.157 -0.0015 -0.1994 -0.5354
  427SOL    HW111211   7.783   3.356   7.160 -0.0463 -0.4046 -1.5694
  427SOL    HW211212   7.641   3.332   7.112 -0.8813 -0.3845  0.7459
  428SOL     OW11213   0.533   0.492   7.348 -0.3110 -0.0365 -0.7982
  428SOL    HW111214   0.449   0.503   7.303 -0.6216  2.1847  0.1487
  428SOL    HW211215   0.578   0.576   7.335  0.5288 -0.1498  1.0655
  429SOL     OW11216  12.461   0.098   0.983  0.6272  0.1152 -0.3304
  429SOL    HW111217  12.438   0.010   1.011  0.2068  0.3710  0.1381
  429SOL    HW211218  12.503   0.138   1.059  0.4760  0.4411 -0.4158
  430SOL     OW11219   5.635   3.658   3.575  0.1524  0.1182 -0.5352
  430SOL    HW111220   5.569   3.727   3.583  0.0036 -0.0763 -0.0684
  430SOL    HW211221   5.702   3.681   3.640  0.1619 -0.1082 -0.4637
  431SOL     OW11222   6.763  12.479   9.950 -0.7416  0.4724 -0.3008
  431SOL    HW111223   6.710  12.525  10.015  0.4064  0.7449  0.4709
  431SOL    HW211224   6.838  12.537   9.935 -1.2618  0.6809 -2.3066
  432SOL     OW11225  10.251   1.259   5.243 -0.2238  0.2426 -0.3201
  432SOL    HW111226  10.166   1.239   5.205  1.2525  0.5750 -4.2825
  432SOL    HW211227  10.309   1.271   5.167  3.2132  0.7182  2.1453
  433SOL     OW11228  12.440   8.126   4.417 -0.4546  0.2121  0.3387
  433SOL    HW111229  12.535   8.135   4.406 -0.4983 -0.5001 -0.7022
  433SOL    HW211230  12.422   8.170   4.501  0.9328 -0.5636  1.0777
  434SOL     OW11231  12.822  10.231   7.247  0.3987  0.4333  0.1558
  434SOL    HW111232  12.789  10.314   7.211 -2.0603 -0.2376  0.6584
  434SOL    HW211233  12.845  10.179   7.170 -1.8797  0.1514 -0.4174
  435SOL     OW11234   3.958   2.924   9.196 -0.1662 -0.5818 -0.2178
  435SOL    HW111235   3.904   2.852   9.164 -1.2489  1.7412 -4.2737
  435SOL    HW211236   3.898   2.999   9.200  2.0001  1.4144 -2.0099
  436SOL     OW11237   8.691   6.085   4.636  0.0451 -0.0067  0.4181
  436SOL    HW111238   8.744   6.026   4.581  2.6000  0.7005  1.9343
  436SOL    HW211239   8.602   6.077   4.601  0.7090 -2.9124 -0.9583
  437SOL     OW11240   2.120   7.751  11.047  0.4389  0.2244 -0.0761
  437SOL    HW111241   2.211   7.769  11.073  0.0418 -0.2226  1.8017
  437SOL    HW211242   2.113   7.656  11.052 -0.0961  0.2523 -0.3530
  438SOL     OW11243  10.231   9.825  11.523 -0.7252 -0.2779 -0.0909
  438SOL    HW111244  10.152   9.770  11.528 -1.0461  0.0608 -1.0934
  438SOL    HW211245  10.198   9.914  11.510 -0.1929  0.0601  0.8134
  439SOL     OW11246   9.925   2.281   7.543  0.0455 -0.5314  0.5590
  439SOL    HW111247   9.998   2.322   7.589  0.2039 -0.7599  0.5123
  439SOL    HW211248   9.966   2.216   7.486 -0.3228 -2.2024  2.1024
  440SOL     OW11249   1.745   5.332  10.006  0.4265 -0.3270 -0.4738
  440SOL    HW111250   1.678   5.346  10.073  0.7734 -1.6483  0.1664
  440SOL    HW211251   1.806   5.406  10.018 -0.0857  0.0339 -0.0490
  441SOL     OW11252   7.541   1.398   3.926  0.3680  0.4539  0.2755
  441SOL    HW111253   7.553   1.486   3.889 -2.6161  0.8559  0.0725
  441SOL    HW211254   7.522   1.342   3.851  0.1592  0.0586  0.6187
  442SOL     OW11255   7.446   6.849   2.965 -0.8426 -0.3760 -0.1771
  442SOL    HW111256   7.416   6.772   3.014 -0.5569 -1.4034 -1.5308
  442SOL    HW211257   7.368   6.884   2.923 -0.6901 -1.1700 -1.1762
  443SOL     OW11258   0.836  11.832  10.982  0.1751  0.5265  0.6904
  443SOL    HW111259   0.914  11.814  11.036 -0.0953 -2.3752  0.2496
  443SOL    HW211260   0.818  11.750  10.937 -1.9821  1.7192 -0.8067
  444SOL     OW11261   6.516   8.366   8.266  0.6087 -0.2157 -0.2145
  444SOL    HW111262   6.422   8.353   8.278  1.0185 -1.4018  2.1386
  444SOL    HW211263   6.527   8.375   8.171 -1.7752 -0.6914 -0.5894
  445SOL     OW11264   7.939  10.986   5.772 -0.1584 -0.4038  0.1666
  445SOL    HW111265   7.918  10.949   5.857  1.8891 -0.4716  0.7075
  445SOL    HW211266   8.032  10.965   5.759 -0.5895 -1.1280 -2.4538
  446SOL     OW11267   3.725   7.369  10.158  0.8112  0.3857  0.0232
  446SOL    HW111268   3.690   7.331  10.078  1.7409 -0.8880  0.1896
  446SOL    HW211269   3.684   7.320  10.228  1.3494  0.2677  0.2654
  447SOL     OW11270   5.205   7.892   9.766  0.0078 -0.4550 -0.1884
  447SOL    HW111271   5.254   7.926   9.841  0.2473  0.4346 -0.7423
  447SOL    HW211272   5.224   7.798   9.767  0.7200 -0.3163  0.3437
  448SOL     OW11273   5.248  12.303   1.290  0.4327 -0.3986 -0.3150
  448SOL    HW111274   5.217  12.391   1.313 -0.0839 -0.4495 -0.7959
  448SOL    HW211275   5.194  12.244   1.342 -0.7129 -0.5130 -1.5868
  449SOL     OW11276  10.692   6.757   6.425 -0.1490  0.2908 -0.3018
  449SOL    HW111277  10.725   6.781   6.512  2.1099  0.8412 -1.2363
  449SOL    HW211278  10.598   6.773   6.430 -0.2249 -0.4638  2.2778
  450SOL     OW11279   6.196   6.484   4.870 -0.0119 -0.0363 -0.2392
  450SOL    HW111280   6.282   6.473   4.909 -0.6779 -1.2854  0.9257
  450SOL    HW211281   6.210   6.548   4.800  2.0565 -0.9499 -0.7400
  451SOL     OW11282  10.970   7.047   5.446  0.3814 -0.4234 -0.6346
  451SOL    HW111283  10.894   7.105   5.450 -0.1935 -1.2061  0.2114
  451SOL    HW211284  11.000   7.041   5.537  0.1032 -1.8579 -0.6232
  452SOL     OW11285  12.906   9.399  11.531  0.3814 -0.2595 -0.3553
  452SOL    HW111286  12.929   9.354  11.449  0.5579  1.8649 -1.5519
  452SOL    HW211287  12.991   9.424  11.568  0.2640  0.0917 -0.3221
  453SOL     OW11288   5.466  12.892  11.831 -0.0734 -0.1750 -0.7067
  453SOL    HW111289   5.465  12.824  11.764  0.7494  0.9967 -1.9662
  453SOL    HW211290   5.377  12.895  11.864  0.2055 -2.9467  0.5690
  454SOL     OW11291  10.388   3.368   1.043  0.0235 -0.6105 -0.0934
  454SOL    HW111292  10.451   3.313   0.996  0.2858 -1.5441  1.2949
  454SOL    HW211293  10.417   3.457   1.026  1.4286 -1.0105  0.0878
  455SOL     OW11294   5.256   3.052   7.946  0.4876  0.1178 -0.3656
  455SOL    HW111295   5.244   3.019   8.034  0.9533 -0.5455 -0.5478
  455SOL    HW211296   5.177   3.104   7.929 -0.0481 -0.5346  0.0821
  456SOL     OW11297   3.403   5.527   8.141  0.0383  0.5267 -0.3658
  456SOL    HW111298   3.394   5.622   8.137 -0.2732  0.4840 -0.7464
  456SOL    HW211299   3.323   5.497   8.185  0.1839  0.4494 -0.1537
  457SOL     OW11300  12.603  12.829   8.028 -0.4329  0.2535 -0.5185
  457SOL    HW111301  12.573  12.797   8.113 -0.3191 -1.4615 -1.0844
  457SOL    HW211302  12.545  12.903   8.009 -0.3021  0.8292  1.1362
  458SOL     OW11303  10.305  10.479   7.645  0.3367  0.1328  0.3258
  458SOL    HW111304  10.350  10.485   7.730  0.3106  0.1715  0.3366
  458SOL    HW211305  10.217  10.449   7.666  0.4519 -0.2509  0.2757
  459SOL     OW11306   5.885  11.597   4.826 -0.2104 -0.5733  0.4231
  459SOL    HW111307   5.970  11.605   4.868 -0.4498  1.5425  0.6209
  459SOL    HW211308   5.828  11.656   4.875 -0.8219  1.0166 -2.0192
  460SOL     OW11309   5.567   8.630  12.388 -0.1621  0.3506  0.0920
  460SOL    HW111310   5.480   8.601  12.415 -0.3465  0.6241 -0.1986
  460SOL    HW211311   5.611   8.551  12.359 -0.3504  0.2271  0.1410
  461SOL     OW11312   3.454   5.071   7.965 -0.3882  0.2735 -0.3253
  461SOL    HW111313   3.368   5.074   8.008 -0.7379  3.5835 -0.9901
  461SOL    HW211314   3.475   5.163   7.947  2.6384 -0.5427 -1.5407
  462SOL     OW11315   5.108   7.062  10.079  0.2179  0.3802 -0.1526
  462SOL    HW111316   5.166   7.135  10.056  1.3184 -0.8408 -1.4849
  462SOL    HW211317   5.123   6.997  10.010 -3.4388  0.3424 -1.1354
  463SOL     OW11318   3.680  11.807   9.075 -0.0352  0.2133 -0.2955
  463SOL    HW111319   3.595  11.762   9.083 -0.2840  0.4564 -1.3903
  463SOL    HW211320   3.704  11.796   8.983  1.1486  0.1192  0.0207
  464SOL     OW11321  10.137   0.387   2.280 -0.4816  0.1034 -0.1120
  464SOL    HW111322  10.049   0.421   2.291 -0.0762  0.7662  1.2768
  464SOL    HW211323  10.176   0.443   2.212 -0.5005  1.1049  0.6774
  465SOL     OW11324   1.093   8.862   4.295 -0.3856  0.3060  0.0837
  465SOL    HW111325   1.168   8.855   4.355  1.2968  2.5747 -1.5689
  465SOL    HW211326   1.069   8.955   4.298 -0.8018  0.3121 -2.0712
  466SOL     OW11327   3.436  11.901   7.758  0.2746  0.5624 -0.4257
  466SOL    HW111328   3.517  11.907   7.809  0.1105 -0.7155  0.0221
  466SOL    HW211329   3.428  11.809   7.735 -2.0071  0.2593  1.1790
  467SOL     OW11330  11.111   0.424   6.354 -0.0068  0.2482 -0.3279
  467SOL    HW111331  11.086   0.427   6.446 -1.0377 -1.1888 -0.5351
  467SOL    HW211332  11.082   0.338   6.324  1.6318  0.1203 -1.6352
  468SOL     OW11333   7.901   8.327   6.677 -0.4395  0.4547  0.0787
  468SOL    HW111334   7.880   8.341   6.585 -0.1420  0.9635  0.0893
  468SOL    HW211335   7.847   8.390   6.724  0.5768  1.2965  0.1501
  469SOL     OW11336   7.095  11.587  10.660  0.6261  0.0034  0.2921
  469SOL    HW111337   7.169  11.530  10.681  0.7602 -0.3600 -1.0627
  469SOL    HW211338   7.020  11.545  10.700  0.9793 -0.2435  0.7031
  470SOL     OW11339   3.103  12.791   2.372 -0.0754  0.0858  0.1328
  470SOL    HW111340   3.082  12.733   2.445  1.4629 -0.7815 -0.0790
  470SOL    HW211341   3.156  12.861   2.411 -0.7913  0.6268  0.1515
  471SOL     OW11342  13.144   1.392   0.772  0.0416 -0.1263 -0.9176
  471SOL    HW111343  13.174   1.308   0.808  0.5447 -0.3675 -1.8486
  471SOL    HW211344  13.131   1.448   0.848 -0.6598 -1.1630 -0.2567
  472SOL     OW11345   4.792   5.450  10.238 -0.6085 -0.3489  0.5168
  472SOL    HW111346   4.773   5.362  10.271 -2.1181  0.0461  0.7723
  472SOL    HW211347   4.747   5.509  10.298  0.8284  0.6460  0.6564
  473SOL     OW11348   6.869   8.168  12.675  0.0308  0.1875 -0.2096
  473SOL    HW111349   6.895   8.259  12.660 -1.4248  0.2859 -2.5463
  473SOL    HW211350   6.778   8.174  12.705 -0.7990 -0.4965 -2.3706
  474SOL     OW11351  10.488   6.363   1.245 -0.6479 -0.2762  0.3818
  474SOL    HW111352  10.466   6.307   1.171 -1.0832 -1.1984  1.1721
  474SOL    HW211353  10.521   6.302   1.311 -2.1687  0.2297  1.6865
  475SOL     OW11354   3.661   7.380   8.398 -0.1034  0.1993 -0.2668
  475SOL    HW111355   3.596   7.415   8.337 -0.5757 -1.1722 -0.5883
  475SOL    HW211356   3.719   7.327   8.343  0.1242 -0.1607  0.3076
  476SOL     OW11357   4.452  11.962   1.689 -0.0250 -0.9145 -0.0488
  476SOL    HW111358   4.496  12.032   1.639 -1.7756  0.9760  0.9175
  476SOL    HW211359   4.498  11.961   1.773 -1.4266  0.7757  0.8064
  477SOL     OW11360   1.981  10.221   8.253  0.6737 -0.1178  0.5274
  477SOL    HW111361   1.964  10.234   8.346 -0.5220  1.4721  0.1188
  477SOL    HW211362   1.951  10.131   8.236 -1.1564  0.3053  1.2628
  478SOL     OW11363   8.188  11.459  13.055  0.1561  0.1952 -0.0304
  478SOL    HW111364   8.213  11.539  13.007 -0.8714  0.6952  0.2459
  478SOL    HW211365   8.272  11.421  13.082  0.7053  0.5840 -1.1144
  479SOL     OW11366   9.225  10.207   5.485 -0.0784 -0.2118 -0.1517
  479SOL    HW111367   9.133  10.224   5.466  0.0087  1.2423  0.5682
  479SOL    HW211368   9.247  10.129   5.433 -1.0214  0.9204 -2.4013
  480SOL     OW11369  12.489   5.525   4.437 -0.3224  0.0864 -0.3838
  480SOL    HW111370  12.516   5.592   4.375  4.3625 -0.6320  0.5391
  480SOL    HW211371  12.513   5.560   4.522 -0.1282 -1.7277  0.3467
  481SOL     OW11372   0.044   3.053  12.841 -0.1525 -0.2359 -0.1234
  481SOL    HW111373  -0.038   3.059  12.792  0.3220 -0.8578 -1.0199
  481SOL    HW211374   0.078   2.966  12.820  1.5358  0.6124 -1.0777
  482SOL     OW11375   8.746   8.057   7.952 -0.0800 -0.7311  0.0302
  482SOL    HW111376   8.742   7.965   7.925 -0.4098 -1.6623  2.9707
  482SOL    HW211377   8.699   8.060   8.035 -0.9577  2.3352 -0.4566
  483SOL     OW11378   2.370   3.217  13.229  0.1702 -0.4408 -0.0010
  483SOL    HW111379   2.431   3.147  13.248  0.4786 -0.1765 -0.0057
  483SOL    HW211380   2.417   3.297  13.253 -0.4338 -0.2769  0.6733
  484SOL     OW11381  10.565  11.760   3.238  0.2612 -0.7365 -0.1774
  484SOL    HW111382  10.622  11.757   3.161 -0.8972  0.5107 -1.1334
  484SOL    HW211383  10.530  11.672   3.245 -0.6860 -0.5563 -1.9614
  485SOL     OW11384   9.583  12.639  12.412 -0.0155  0.3966 -0.6635
  485SOL    HW111385   9.536  12.575  12.466  1.4469 -0.9635 -0.9281
  485SOL    HW211386   9.552  12.724  12.443 -1.8368 -0.4127 -0.1249
  486SOL     OW11387   6.935   7.219   8.254  0.0581  0.0100 -0.1566
  486SOL    HW111388   6.945   7.158   8.181  0.7596 -0.2241  0.1260
  486SOL    HW211389   6.966   7.170   8.330 -0.9636  0.1362  0.3598
  487SOL     OW11390   8.814   4.792   2.315  0.8884  0.0835 -0.1437
  487SOL    HW111391   8.806   4.882   2.347  0.5850  0.4660 -1.2435
  487SOL    HW211392   8.897   4.791   2.266  1.6200 -0.6360  1.0717
  488SOL     OW11393   6.685   9.085   9.362  0.3970 -0.4758  0.2608
  488SOL    HW111394   6.642   9.168   9.342 -0.0386 -0.8089 -0.2092
  488SOL    HW211395   6.777   9.099   9.337  0.8598  0.6069  2.3147
  489SOL     OW11396  10.621   0.038   0.967 -0.3145  0.2986 -0.1616
  489SOL    HW111397  10.598   0.122   1.006 -1.0611  0.0874 -0.1333
  489SOL    HW211398  10.704   0.054   0.923  0.4688  0.5779  1.3730
  490SOL     OW11399   5.820   7.790   1.682 -0.1180 -0.2341 -0.1644
  490SOL    HW111400   5.870   7.868   1.657 -1.2600  0.6584  0.2454
  490SOL    HW211401   5.730   7.820   1.688 -0.7013 -1.7791 -0.7361
  491SOL     OW11402   8.672   0.441  12.326 -0.3554  0.1178 -0.6987
  491SOL    HW111403   8.743   0.384  12.355 -1.2271 -1.8641 -2.2476
  491SOL    HW211404   8.592   0.397  12.353 -1.0627  0.5030 -2.0376
  492SOL     OW11405   7.409   2.886  12.367 -0.5943 -0.6071  0.4611
  492SOL    HW111406   7.349   2.811  12.368 -0.3442 -0.8317  2.3970
  492SOL    HW211407   7.460   2.877  12.448  1.8143 -0.2020 -0.9377
  493SOL     OW11408   6.382   1.850  12.333 -0.0296  0.0063  0.4981
  493SOL    HW111409   6.399   1.890  12.248  0.4608  0.3618  0.7544
  493SOL    HW211410   6.386   1.756  12.317  0.4027  0.0728  0.1893
  494SOL     OW11411   4.189   8.475   3.940 -0.0308  0.6180  0.0669
  494SOL    HW111412   4.232   8.547   3.892  0.5062  1.9021  2.3345
  494SOL    HW211413   4.259   8.438   3.994 -0.4100 -1.3891 -0.7409
  495SOL     OW11414   7.074  10.407  10.152 -0.1839  0.0877 -0.5971
  495SOL    HW111415   6.996  10.462  10.156 -0.8236 -0.7473 -1.2755
  495SOL    HW211416   7.070  10.353  10.231 -0.6209 -0.3582 -0.9128
  496SOL     OW11417   0.669   8.395  11.770 -0.4917  0.4723  0.2685
  496SOL    HW111418   0.658   8.419  11.862 -0.4510  0.2757  0.3249
  496SOL    HW211419   0.590   8.426  11.727 -0.2967  1.0040  0.2806
  497SOL     OW11420  12.951   5.774   8.802 -0.4789  0.2858 -0.0341
  497SOL    HW111421  12.902   5.855   8.789  0.7415  0.9016 -1.0216
  497SOL    HW211422  12.885   5.705   8.805 -1.4576  1.2016 -0.2925
  498SOL     OW11423  11.342   9.717  13.137 -0.3367 -0.1608 -0.0955
  498SOL    HW111424  11.389   9.765  13.205  0.2046 -0.7634 -0.0436
  498SOL    HW211425  11.250   9.743  13.149 -0.2936 -0.5469  1.0958
  499SOL     OW11426   4.275  12.788  12.304 -0.6883 -0.1690  0.1354
  499SOL    HW111427   4.262  12.723  12.236  0.4798  1.1617 -1.4530
  499SOL    HW211428   4.332  12.745  12.368 -0.5569 -0.9500 -0.4935
  500SOL     OW11429   6.874   3.430   0.256  0.4967 -0.4748 -0.0937
  500SOL    HW111430   6.937   3.501   0.241  0.6683 -0.7282 -0.5822
  500SOL    HW211431   6.842   3.445   0.345  1.3531 -0.4249  0.2197
  501SOL     OW11432   9.884   3.632  12.329 -0.2309 -0.3282  0.0672
  501SOL    HW111433   9.803   3.683  12.338  0.3521  0.8107 -0.8231
  501SOL    HW211434   9.857   3.555  12.278 -0.9599 -0.5073  0.7014
  502SOL     OW11435   1.753   7.691   4.602  0.3140 -0.0883 -0.3473
  502SOL    HW111436   1.847   7.692   4.621  0.3701 -0.0638 -0.6183
  502SOL    HW211437   1.746   7.727   4.514 -0.0404  0.8046  0.0400
  503SOL     OW11438   2.803   0.051  11.196  0.6416 -0.7556 -0.0148
  503SOL    HW111439   2.818   0.072  11.103 -0.0942 -0.3691 -0.0574
  503SOL    HW211440   2.811  -0.044  11.201  0.2218 -0.8244 -0.5656
  504SOL     OW11441   9.236   4.899  12.967  0.0357  0.0814 -0.6881
  504SOL    HW111442   9.307   4.837  12.953 -0.6445 -0.8341 -0.1756
  504SOL    HW211443   9.188   4.864  13.042 -0.5395  1.0656 -0.5793
  505SOL     OW11444   9.398   6.665  12.958 -0.6478 -0.4547  0.2372
  505SOL    HW111445   9.310   6.702  12.951 -0.6169 -0.5883 -1.3054
  505SOL    HW211446   9.384   6.570  12.956 -0.4741 -0.4745 -0.1515
  506SOL     OW11447  12.290   4.013  11.465 -0.9030 -0.1469  0.0683
  506SOL    HW111448  12.377   4.020  11.425 -0.8184 -0.3676  0.2067
  506SOL    HW211449  12.302   3.951  11.537 -1.1086  0.0596  0.2814
  507SOL     OW11450   6.371   6.974   1.133 -0.2747 -0.7433 -1.3976
  507SOL    HW111451   6.286   6.978   1.089 -0.5087  0.5686 -0.8779
  507SOL    HW211452   6.419   7.050   1.101  1.0003 -1.8551 -2.2203
  508SOL     OW11453   3.936  12.411  12.725  0.0323  0.7096 -0.1725
  508SOL    HW111454   3.942  12.320  12.754 -3.3504  0.4429  0.1125
  508SOL    HW211455   3.956  12.462  12.803 -0.8859  0.1247  0.4720
  509SOL     OW11456   7.415   8.016   4.313 -0.2621 -0.4828 -0.2119
  509SOL    HW111457   7.345   8.043   4.373  0.0320 -1.9329  0.8481
  509SOL    HW211458   7.382   8.036   4.226 -1.4056  0.1284  0.3447
  510SOL     OW11459   8.773   4.404  12.070  0.4974  0.2007  0.4007
  510SOL    HW111460   8.709   4.432  12.005  0.3740 -1.0391 -0.0483
  510SOL    HW211461   8.766   4.308  12.071  2.1945  0.0380  0.4826
  511SOL     OW11462   6.427   9.758   9.135 -0.2936  0.2111 -0.0973
  511SOL    HW111463   6.480   9.683   9.161 -1.2849 -0.5299 -0.1537
  511SOL    HW211464   6.433   9.760   9.040 -1.2570 -0.5722 -0.1911
  512SOL     OW11465  10.526   2.294   6.074 -0.4757  0.2959 -0.0305
  512SOL    HW111466  10.512   2.383   6.107  1.9073  0.3986  0.9021
  512SOL    HW211467  10.621   2.284   6.070 -0.6754 -1.9684 -0.8222
  513SOL     OW11468  10.897  12.950   0.311 -0.4456 -0.0061  0.4715
  513SOL    HW111469  10.903  12.859   0.284  2.1735 -0.0452  0.9457
  513SOL    HW211470  10.924  13.000   0.234 -0.6657  0.3276  0.6042
  514SOL     OW11471   1.183   9.154  11.218 -0.6430  0.3975 -0.1020
  514SOL    HW111472   1.247   9.214  11.256 -1.0771  0.5706  0.3601
  514SOL    HW211473   1.218   9.134  11.131 -0.5583  1.4248 -0.3180
  515SOL     OW11474  12.826   3.420   8.138 -0.1807 -0.4110 -0.0373
  515SOL    HW111475  12.737   3.446   8.114 -0.1680 -1.2722 -1.1097
  515SOL    HW211476  12.835   3.446   8.229 -1.6387 -0.5488  0.1676
  516SOL     OW11477   2.933   9.465   5.568  0.8145  0.1435  0.1477
  516SOL    HW111478   2.958   9.556   5.557  0.9159 -0.0779 -1.8660
  516SOL    HW211479   2.844   9.467   5.602  1.5004  0.9479  2.0205
  517SOL     OW11480  11.930  12.029  11.030 -0.2944  0.0733  0.2114
  517SOL    HW111481  12.017  12.022  11.070  0.5705  1.2931 -1.3157
  517SOL    HW211482  11.876  12.072  11.096  0.2112 -0.7652  1.2096
  518SOL     OW11483   2.707   1.408   1.848 -0.0267  0.2280 -0.2944
  518SOL    HW111484   2.694   1.324   1.804 -0.0255 -0.1312  0.3738
  518SOL    HW211485   2.802   1.419   1.852  0.2637 -2.0179  3.7067
  519SOL     OW11486   0.445   5.332   2.855 -0.0070 -0.2566 -0.1549
  519SOL    HW111487   0.453   5.271   2.928 -1.4680  1.6604  1.7390
  519SOL    HW211488   0.523   5.316   2.801  1.6405 -1.1213  2.3292
  520SOL     OW11489   7.479   0.482   9.851  0.6390 -0.6066  0.6692
  520SOL    HW111490   7.543   0.412   9.837  1.1849 -0.1488  0.8025
  520SOL    HW211491   7.429   0.454   9.927 -2.2009 -3.0138 -1.8281
  521SOL     OW11492  11.257  10.746   8.268 -0.1164 -0.5000  0.2260
  521SOL    HW111493  11.239  10.769   8.360 -0.9255 -1.3915  0.3140
  521SOL    HW211494  11.349  10.766   8.256 -0.5596  2.1191  0.4694
  522SOL     OW11495  10.690   7.345   8.769 -0.3641 -0.1103  0.4274
  522SOL    HW111496  10.684   7.251   8.786 -0.2567 -0.6074 -1.9445
  522SOL    HW211497  10.642   7.357   8.687  0.3573  1.7722  0.2430
  523SOL     OW11498   5.377  13.205  11.124  0.6621  0.2686  0.0503
  523SOL    HW111499   5.342  13.205  11.213  0.8377  1.0586  0.1235
  523SOL    HW211500   5.412  13.117  11.112 -0.3462 -0.1974  0.3712
  524SOL     OW11501   0.263   4.223   1.629  0.4295 -0.4846 -0.0991
  524SOL    HW111502   0.214   4.250   1.706  0.9112 -0.0803  0.0665
  524SOL    HW211503   0.240   4.288   1.562 -0.6128 -1.2793 -0.5538
  525SOL     OW11504   7.905   7.890   0.979 -0.4144  0.0213  0.1254
  525SOL    HW111505   7.886   7.880   1.072 -1.8538  0.6189 -0.0796
  525SOL    HW211506   7.997   7.917   0.976 -0.3943  0.1530  1.3747
  526SOL     OW11507   6.059   8.829   9.116  0.5003  0.8967 -0.4493
  526SOL    HW111508   6.070   8.923   9.107 -0.9959  1.1919  0.5489
  526SOL    HW211509   6.067   8.812   9.209 -0.4293  0.2145 -0.4776
  527SOL     OW11510   0.247   6.395   3.594 -0.2121 -0.1468  0.1201
  527SOL    HW111511   0.190   6.413   3.669 -2.4931 -0.7149 -1.4041
  527SOL    HW211512   0.241   6.300   3.582 -0.4541  0.0267 -1.1998
  528SOL     OW11513  10.151   7.554  10.486 -0.9976  0.0566 -0.1827
  528SOL    HW111514  10.201   7.513  10.556 -1.3195  2.1837  1.4004
  528SOL    HW211515  10.184   7.643  10.482 -3.1871  0.9288 -0.5011
  529SOL     OW11516   1.517   7.397   7.597  0.5828 -0.0322  0.5748
  529SOL    HW111517   1.544   7.395   7.689 -1.6866 -0.9494  1.2936
  529SOL    HW211518   1.528   7.488   7.571  0.2742  0.4630  2.0844
  530SOL     OW11519  10.811   5.609  12.844  0.2582  0.1630 -0.1326
  530SOL    HW111520  10.779   5.535  12.895  1.4213 -0.3356 -0.1031
  530SOL    HW211521  10.887   5.575  12.797  1.0535  1.4262  0.1941
  531SOL     OW11522   8.001   8.595   5.618  0.3062 -0.2506 -0.2656
  531SOL    HW111523   8.091   8.618   5.640  0.5045 -0.9786 -0.2717
  531SOL    HW211524   7.949   8.630   5.690  0.5095  0.7477 -0.5843
  532SOL     OW11525  12.300  10.197   8.363  0.6409 -1.0280 -0.0542
  532SOL    HW111526  12.290  10.228   8.273  0.2165 -0.3143  0.2335
  532SOL    HW211527  12.261  10.109   8.363  2.0407 -1.6869 -0.9281
  533SOL     OW11528   5.238   6.101   8.328 -0.5643  0.1890 -0.1272
  533SOL    HW111529   5.171   6.137   8.270 -2.7227 -0.6824  1.6711
  533SOL    HW211530   5.282   6.034   8.275 -1.5450  0.3239 -1.1594
  534SOL     OW11531   0.696   4.901   7.447 -0.4093 -0.6819  0.4937
  534SOL    HW111532   0.702   4.806   7.451  0.1705 -0.6180  2.1506
  534SOL    HW211533   0.609   4.921   7.482 -0.3881 -0.5975  0.4985
  535SOL     OW11534  10.116   9.051   6.663 -0.3142 -0.2086  0.1679
  535SOL    HW111535  10.031   9.095   6.665  0.5597  1.5416  1.7189
  535SOL    HW211536  10.143   9.045   6.754  0.8046 -1.6705 -0.2049
  536SOL     OW11537   0.129   9.385   8.837  0.2325  0.6832 -0.0763
  536SOL    HW111538   0.066   9.375   8.765  0.3856 -3.9480  0.1202
  536SOL    HW211539   0.086   9.345   8.912  2.0643  0.6224  1.0057
  537SOL     OW11540   6.349   2.214   2.511  0.3673 -0.4186 -0.2163
  537SOL    HW111541   6.395   2.160   2.576  0.6046 -0.5959 -0.5302
  537SOL    HW211542   6.354   2.303   2.546  0.9822 -0.4306 -0.2661
  538SOL     OW11543   8.955   9.967   6.663  0.3054  0.0323  0.0979
  538SOL    HW111544   9.047   9.995   6.668 -0.1545  1.6696 -0.0802
  538SOL    HW211545   8.940   9.919   6.744  1.3183 -0.2410  0.1367
  539SOL     OW11546   5.763  10.430   1.722 -0.4775 -0.1855  0.0010
  539SOL    HW111547   5.782  10.346   1.765 -0.9551  0.2009  0.9960
  539SOL    HW211548   5.751  10.407   1.630 -0.6038 -1.2102  0.2564
  540SOL     OW11549  12.779   7.203   6.426  0.0331  0.0299 -0.0035
  540SOL    HW111550  12.799   7.185   6.334  1.3214 -0.3337  0.3346
  540SOL    HW211551  12.703   7.147   6.445 -0.6627  0.6005 -1.0114
  541SOL     OW11552   9.752  13.001   1.573  0.1443 -0.4213  0.5632
  541SOL    HW111553   9.799  12.926   1.611  0.5869  0.1684  1.2189
  541SOL    HW211554   9.675  13.010   1.629 -1.3337 -2.0025 -1.1062
  542SOL     OW11555   1.566   0.800   0.651 -0.0384  0.4282  0.0498
  542SOL    HW111556   1.630   0.743   0.693 -1.5335 -0.9204  0.6028
  542SOL    HW211557   1.614   0.882   0.635  1.4494 -0.0714  1.5762
  543SOL     OW11558  10.803   1.449  11.691  0.1483 -0.2449  0.4030
  543SOL    HW111559  10.757   1.410  11.617 -0.8815 -1.0852  1.4577
  543SOL    HW211560  10.734   1.469  11.754  0.9771  0.7172  1.0377
  544SOL     OW11561  11.487   0.355   9.038  0.2916 -0.0230  0.8852
  544SOL    HW111562  11.395   0.354   9.011 -0.2323  1.3442  2.4391
  544SOL    HW211563  11.501   0.444   9.073  2.4525  0.1053 -0.1070
  545SOL     OW11564   5.279   4.940   2.896  0.6725  0.0029  0.3011
  545SOL    HW111565   5.296   4.901   2.982  0.2261  1.7402  1.2320
  545SOL    HW211566   5.365   4.967   2.864  0.6426  1.1622  1.1464
  546SOL     OW11567   1.065   5.346   2.427  0.2760 -0.2318 -0.2549
  546SOL    HW111568   1.086   5.400   2.503 -0.7882 -0.7998  0.4643
  546SOL    HW211569   1.145   5.295   2.410 -0.1940 -1.8506  1.9834
  547SOL     OW11570   3.048   3.997  13.066  0.0861 -0.0335  0.4651
  547SOL    HW111571   3.006   4.011  12.981  1.0347 -1.1724 -0.2241
  547SOL    HW211572   3.079   3.906  13.062  1.9347  0.5244  1.2323
  548SOL     OW11573   9.162  10.781   9.599  0.6381 -0.1035  0.0001
  548SOL    HW111574   9.098  10.846   9.629  0.3678 -0.6763  0.6913
  548SOL    HW211575   9.187  10.812   9.512 -0.1062  0.4750 -0.0303
  549SOL     OW11576   4.184  12.024   2.462 -0.2352 -0.6378  0.2685
  549SOL    HW111577   4.227  11.972   2.530  0.4400 -1.6178 -0.8795
  549SOL    HW211578   4.093  11.994   2.463 -0.0263 -1.2955  0.1462
  550SOL     OW11579   1.790   9.505   9.318 -0.2295  0.0614 -0.1020
  550SOL    HW111580   1.762   9.566   9.251 -1.1059 -0.1961  0.0130
  550SOL    HW211581   1.855   9.449   9.275  0.4573  0.9502 -0.2490
  551SOL     OW11582   9.602   3.240  12.758 -0.1893  0.3223  0.3508
  551SOL    HW111583   9.695   3.236  12.734 -0.3217 -0.7914  0.0017
  551SOL    HW211584   9.601   3.230  12.853 -0.0612 -1.8336  0.1727
  552SOL     OW11585   2.506   2.553   0.446  0.4094 -0.1535 -0.4223
  552SOL    HW111586   2.442   2.499   0.401  0.1538 -0.0292 -0.2119
  552SOL    HW211587   2.460   2.586   0.523  1.2932 -1.5846  0.7605
  553SOL     OW11588   5.033   1.767   3.549  0.0043  0.5605  0.0132
  553SOL    HW111589   4.941   1.765   3.575 -0.2466  0.5364 -0.8298
  553SOL    HW211590   5.076   1.820   3.615 -0.6163  0.5632  0.4212
  554SOL     OW11591  10.587   9.200  11.699  0.0008 -0.2642 -0.3116
  554SOL    HW111592  10.629   9.255  11.633 -2.5004 -1.3602 -3.0909
  554SOL    HW211593  10.524   9.258  11.742  1.3994  0.3747  0.9239
  555SOL     OW11594   8.907   4.958   2.542  0.2863  0.5187  0.2043
  555SOL    HW111595   8.899   4.963   2.637 -0.1289  2.3450  0.1270
  555SOL    HW211596   8.922   5.049   2.515 -0.7566  0.2203 -1.5584
  556SOL     OW11597   7.721  11.319   3.310  0.2454  0.1791 -0.4016
  556SOL    HW111598   7.647  11.339   3.253 -0.4986 -2.6078 -0.5241
  556SOL    HW211599   7.682  11.280   3.388  1.5517 -3.0024 -1.2014
  557SOL     OW11600  12.493   3.785  11.379  0.9969 -0.6159  0.2436
  557SOL    HW111601  12.574   3.818  11.342  0.9028 -1.0044 -0.3245
  557SOL    HW211602  12.430   3.788  11.306  0.5767 -0.5759  0.6026
  558SOL     OW11603  12.520  10.563  12.852  0.2861 -0.7620 -0.6743
  558SOL    HW111604  12.537  10.536  12.762  0.8415 -0.5916 -0.6235
  558SOL    HW211605  12.604  10.598  12.883 -0.3063  0.7060 -0.6287
  559SOL     OW11606   7.353  11.951   3.480  0.0950  0.2794  0.5149
  559SOL    HW111607   7.395  12.013   3.420 -0.4078 -1.6619 -1.9922
  559SOL    HW211608   7.425  11.917   3.533  1.0692 -0.0692 -0.9810
  560SOL     OW11609   3.728   4.820   3.731  0.0284  0.1101 -0.0448
  560SOL    HW111610   3.720   4.766   3.652 -0.6807  1.1514 -0.7222
  560SOL    HW211611   3.822   4.827   3.746  0.1882  0.1325 -0.9847
  561SOL     OW11612   1.851  10.455   4.358  0.4450 -0.1166  0.4576
  561SOL    HW111613   1.839  10.361   4.342  1.8464 -0.1961 -0.3477
  561SOL    HW211614   1.885  10.460   4.447  0.4034 -0.3732  0.4898
  562SOL     OW11615   9.629  12.315   5.543 -0.2370  0.2676 -0.2021
  562SOL    HW111616   9.661  12.226   5.560 -0.2394  0.1489 -0.8127
  562SOL    HW211617   9.563  12.329   5.611  0.3037  0.0960  0.3771
  563SOL     OW11618   2.928   0.201  12.362  0.5268  0.2398 -0.2415
  563SOL    HW111619   2.917   0.185  12.455  0.1829  0.0184 -0.3185
  563SOL    HW211620   2.887   0.286  12.347  0.7449  0.3596 -0.1583
  564SOL     OW11621   0.920   5.334  11.397 -0.2625  0.1038 -0.7912
  564SOL    HW111622   0.976   5.296  11.329 -0.4887 -1.1138 -0.3376
  564SOL    HW211623   0.950   5.293  11.478 -0.8761  0.5138 -0.3487
  565SOL     OW11624   9.138  11.728  11.417  0.4682  0.0369  0.3553
  565SOL    HW111625   9.229  11.755  11.427  0.9448 -1.0064 -0.8832
  565SOL    HW211626   9.111  11.764  11.333  0.3472 -1.1777 -0.1595
  566SOL     OW11627  13.119   6.668  12.031  0.3107 -0.3034 -0.0910
  566SOL    HW111628  13.048   6.728  12.055  1.1411  0.4882  0.4457
  566SOL    HW211629  13.122   6.605  12.103 -0.4773 -0.9306 -0.5909
  567SOL     OW11630   2.386   9.666   9.673  0.5592  0.1310 -0.1710
  567SOL    HW111631   2.444   9.594   9.649  0.5679 -0.3950  1.2951
  567SOL    HW211632   2.424   9.702   9.753 -1.1049 -0.2578  0.8661
  568SOL     OW11633  12.097   4.366   3.729 -0.0166 -0.5339  0.1988
  568SOL    HW111634  12.099   4.405   3.817 -0.8378 -0.5481  0.2315
  568SOL    HW211635  12.004   4.361   3.707  0.1990  0.0940 -0.9542
  569SOL     OW11636   4.058   2.346   6.845 -0.3857  0.1953  0.2091
  569SOL    HW111637   4.150   2.326   6.829 -0.4713  0.6223 -0.8931
  569SOL    HW211638   4.057   2.388   6.930  0.2370 -1.2059  0.9461
  570SOL     OW11639   1.630   1.801  11.153 -0.2456 -0.1712 -0.2218
  570SOL    HW111640   1.689   1.766  11.220  1.6334  2.3539 -0.3888
  570SOL    HW211641   1.679   1.794  11.071 -1.2733 -0.4239 -0.8285
  571SOL     OW11642   5.124   6.680   6.273 -0.1166 -0.2278  0.3096
  571SOL    HW111643   5.034   6.698   6.245 -0.1965  0.8499  1.1905
  571SOL    HW211644   5.129   6.584   6.275 -1.2096 -0.3068  0.1438
  572SOL     OW11645   0.612   2.356   0.662  0.0064 -0.4724  0.1911
  572SOL    HW111646   0.643   2.432   0.612 -0.7509 -0.2146  0.1036
  572SOL    HW211647   0.619   2.383   0.754 -1.7116  0.3096  0.1331
  573SOL     OW11648   5.915  12.941   5.193  0.4786 -0.1254  0.4788
  573SOL    HW111649   5.904  12.910   5.283  1.2834  0.4384  0.7789
  573SOL    HW211650   6.007  12.926   5.174 -0.0251 -1.9023 -0.9012
  574SOL     OW11651  12.178   8.427   7.592  0.0909 -0.1807 -0.2440
  574SOL    HW111652  12.238   8.390   7.656  1.8899  0.0460 -1.7090
  574SOL    HW211653  12.109   8.362   7.583  0.8287 -1.0817  0.5038
  575SOL     OW11654   7.614   6.454   8.995  0.0157  0.1387  0.3384
  575SOL    HW111655   7.572   6.503   9.065 -0.5985 -0.2593  0.2622
  575SOL    HW211656   7.586   6.363   9.009 -0.4301  0.1119 -0.6419
  576SOL     OW11657  12.815   6.561  12.108 -0.1003  0.1051 -0.0921
  576SOL    HW111658  12.811   6.627  12.039  0.5633 -0.4342 -0.6646
  576SOL    HW211659  12.861   6.604  12.180 -1.4048  0.8947  0.2798
  577SOL     OW11660   0.901   7.179   7.318 -0.2577  0.4748 -0.0413
  577SOL    HW111661   0.863   7.192   7.405  0.7434  0.5447  0.3879
  577SOL    HW211662   0.829   7.141   7.267 -1.1925  1.4676  0.5023
  578SOL     OW11663   9.931   5.057  11.361  0.2307 -0.0229  0.1416
  578SOL    HW111664   9.869   5.108  11.412  0.6500  1.9022 -1.1854
  578SOL    HW211665  10.017   5.078  11.398  0.5634  1.5563 -1.3637
  579SOL     OW11666   1.738   2.383   4.026 -0.2406 -0.4545 -0.0929
  579SOL    HW111667   1.696   2.360   4.109 -0.4877 -0.2444 -0.1556
  579SOL    HW211668   1.815   2.327   4.021 -1.3425 -1.9874 -0.6998
  580SOL     OW11669   3.036   1.094   3.667  0.2053 -0.7782  0.0197
  580SOL    HW111670   3.017   1.014   3.715  0.0195  0.2858  1.8354
  580SOL    HW211671   3.131   1.091   3.652  0.0391 -1.8338 -0.9494
  581SOL     OW11672   1.649   6.306   1.190  0.2776  0.0444  0.1047
  581SOL    HW111673   1.589   6.232   1.195  1.3934 -0.9982 -1.1130
  581SOL    HW211674   1.720   6.283   1.250 -0.6083  1.4230  1.8004
  582SOL     OW11675   0.517  12.533   1.810 -0.3621 -0.3223 -0.2622
  582SOL    HW111676   0.479  12.610   1.851  1.7732  1.1201 -0.7813
  582SOL    HW211677   0.530  12.559   1.718 -0.4766 -1.6535 -0.6797
  583SOL     OW11678   3.639   8.538   7.066  0.3076 -0.0264  0.4508
  583SOL    HW111679   3.680   8.486   7.136 -0.1658  0.3255  1.0018
  583SOL    HW211680   3.570   8.482   7.031 -0.0395  0.1286  0.8764
  584SOL     OW11681  10.474   5.941  12.762  0.2371 -0.2763  0.2503
  584SOL    HW111682  10.517   5.923  12.845  1.5094  1.5143  0.0245
  584SOL    HW211683  10.380   5.934  12.782  0.5065  0.4357  1.9196
  585SOL     OW11684   2.836   7.592  10.915 -0.3543  0.0930  0.1817
  585SOL    HW111685   2.788   7.510  10.914 -0.0776 -0.1368 -2.4287
  585SOL    HW211686   2.774   7.657  10.882  0.7158 -0.0312 -2.3150
  586SOL     OW11687  11.972  11.056  10.427  0.3841  0.5743  0.4060
  586SOL    HW111688  12.063  11.028  10.441  0.1854  0.3597  1.3154
  586SOL    HW211689  11.928  10.977  10.394  0.6914  0.8919 -0.8388
  587SOL     OW11690  12.202   7.163   2.668 -0.3855  0.4127 -0.1953
  587SOL    HW111691  12.248   7.233   2.714 -0.0274 -0.6302  1.1195
  587SOL    HW211692  12.270   7.122   2.614  0.4370 -1.3017  1.9522
  588SOL     OW11693   5.484  10.455   5.353 -0.8542  0.0057  0.3102
  588SOL    HW111694   5.542  10.416   5.419 -0.7963  1.9174  1.4581
  588SOL    HW211695   5.511  10.547   5.349 -0.4500 -0.1365 -2.8682
  589SOL     OW11696   7.371   3.407   3.414 -0.7170  0.2874  0.4069
  589SOL    HW111697   7.461   3.414   3.446 -0.8077  0.3008  0.6628
  589SOL    HW211698   7.376   3.345   3.341 -0.3438  1.0105 -0.1926
  590SOL     OW11699   8.033  11.451   9.291 -0.0512 -0.0056  0.5427
  590SOL    HW111700   8.037  11.539   9.254  0.1727 -0.4787 -0.6047
  590SOL    HW211701   8.015  11.465   9.384  0.0014  1.2454  0.3848
  591SOL     OW11702   5.626   1.123   1.233 -0.9460  0.3259 -0.2078
  591SOL    HW111703   5.642   1.085   1.146  0.1606 -1.8223  0.8502
  591SOL    HW211704   5.666   1.210   1.229 -0.4096  0.0414 -1.6759
  592SOL     OW11705  12.743   1.807  11.511 -0.0610  0.0577  0.2457
  592SOL    HW111706  12.807   1.778  11.446  0.1511  1.3989 -0.1757
  592SOL    HW211707  12.667   1.751  11.496  0.6352 -0.8799  0.0829
  593SOL     OW11708   2.241   3.745   2.651  0.0330  0.0140 -0.2145
  593SOL    HW111709   2.307   3.746   2.581 -2.2713  2.3074 -2.5936
  593SOL    HW211710   2.254   3.829   2.696 -0.5335 -0.0107 -0.0091
  594SOL     OW11711  10.921   2.098  10.953 -0.0806 -0.2363 -0.2244
  594SOL    HW111712  10.941   2.101  10.859  1.2160 -0.1589  0.0395
  594SOL    HW211713  10.986   2.038  10.990 -0.1614  0.2396  0.7170
  595SOL     OW11714   7.739   7.341   7.187  0.1168 -0.0261  0.0315
  595SOL    HW111715   7.826   7.361   7.220  0.7555  0.3917 -1.7904
  595SOL    HW211716   7.741   7.369   7.095 -1.2109 -2.0464 -0.6922
  596SOL     OW11717  10.517  11.853   1.210 -0.3080 -0.0972  0.6498
  596SOL    HW111718  10.540  11.793   1.281 -0.5564  0.3953  1.1557
  596SOL    HW211719  10.551  11.938   1.239 -0.9392  0.2229  0.4515
  597SOL     OW11720   0.729   7.776   7.072  0.2779 -0.4838  0.0917
  597SOL    HW111721   0.641   7.814   7.065 -0.1437 -1.2957  0.8152
  597SOL    HW211722   0.755   7.792   7.163  0.0745 -1.9203  0.4255
  598SOL     OW11723   7.962   4.373   9.707  1.0443 -0.4470  0.2529
  598SOL    HW111724   7.985   4.286   9.737  1.9663  0.5054  2.5293
  598SOL    HW211725   8.004   4.381   9.621  0.3529 -2.4481 -0.3147
  599SOL     OW11726   1.752   3.358   0.926  0.1570 -0.6606  0.6214
  599SOL    HW111727   1.706   3.376   1.008 -1.4106  1.3526 -0.5694
  599SOL    HW211728   1.718   3.424   0.866  2.0734 -1.3620 -1.3556
  600SOL     OW11729   4.409  11.252   1.756 -0.6752  0.2460 -0.1757
  600SOL    HW111730   4.426  11.190   1.827  4.2688  0.3399 -0.9562
  600SOL    HW211731   4.386  11.334   1.801 -2.1821 -0.7787  1.0289
  601SOL     OW11732   5.348   0.822   1.484 -0.3477  0.5104 -0.0488
  601SOL    HW111733   5.413   0.861   1.426  0.3398  0.1985  0.4873
  601SOL    HW211734   5.346   0.730   1.459  0.4625  0.2276  0.8576
  602SOL     OW11735   0.517  10.996   4.285  0.0084  0.1353 -0.3745
  602SOL    HW111736   0.424  10.972   4.288 -0.1268  0.4939 -1.3946
  602SOL    HW211737   0.539  10.997   4.192  0.6024  1.6555 -0.2523
  603SOL     OW11738   2.172   9.832   1.945  0.3659 -0.1213  0.3214
  603SOL    HW111739   2.266   9.833   1.964  0.2689  1.5661  0.9095
  603SOL    HW211740   2.164   9.878   1.861  0.0316  0.0887  0.4683
  604SOL     OW11741   7.139   8.935   8.876 -0.3886  0.7526 -0.6303
  604SOL    HW111742   7.213   8.899   8.925 -0.5432  2.8595  1.3491
  604SOL    HW211743   7.167   8.933   8.785  1.9383  1.0187  0.0143
  605SOL     OW11744  13.272   9.442  10.409 -0.2537  0.0152 -0.2446
  605SOL    HW111745  13.259   9.399  10.324  0.6084 -0.6111 -0.0839
  605SOL    HW211746  13.309   9.528  10.387 -1.2729  0.3831 -0.5453
  606SOL     OW11747  12.029  11.183  11.533  0.6628  0.5320 -0.3710
  606SOL    HW111748  12.009  11.101  11.489  0.6946  0.1409  0.3264
  606SOL    HW211749  11.983  11.177  11.617  1.6484  0.7055  0.1936
  607SOL     OW11750  11.937   9.618   4.808 -1.1025  0.5155  0.2849
  607SOL    HW111751  11.864   9.675   4.788 -1.2378 -0.0041 -0.8314
  607SOL    HW211752  11.936   9.608   4.903 -1.5330  1.7305  0.4237
  608SOL     OW11753   9.809   6.586  12.768  0.4176 -0.5535 -0.2356
  608SOL    HW111754   9.785   6.577  12.860 -2.2199 -1.5002 -0.9099
  608SOL    HW211755   9.872   6.658  12.766 -1.3787  1.2453  2.0325
  609SOL     OW11756  10.990  11.296  10.433  0.2357 -0.3307  0.5344
  609SOL    HW111757  10.900  11.312  10.402  0.0665  0.1181  1.2326
  609SOL    HW211758  10.987  11.318  10.526  1.7784  2.7626 -0.0056
  610SOL     OW11759   1.519   0.853   5.950 -0.3656 -0.2375  0.1476
  610SOL    HW111760   1.585   0.922   5.949 -1.0652  0.4315 -0.7818
  610SOL    HW211761   1.555   0.787   6.010  0.5092  0.7231  0.7146
  611SOL     OW11762   1.845   6.274   7.136  0.2862 -0.4189 -0.7923
  611SOL    HW111763   1.890   6.356   7.155  1.7500 -0.9824 -1.6446
  611SOL    HW211764   1.886   6.209   7.194 -2.5674 -0.1822  1.7464
  612SOL     OW11765   9.002   0.870   4.529 -0.0443  0.0700  0.7314
  612SOL    HW111766   9.003   0.835   4.618  0.1199  0.2600  0.8057
  612SOL    HW211767   9.081   0.924   4.524  0.6872 -1.0467  0.0248
  613SOL     OW11768   1.418   8.755   4.465 -0.1492  0.5277 -0.5257
  613SOL    HW111769   1.350   8.707   4.513  1.4167 -1.9217 -0.5753
  613SOL    HW211770   1.455   8.690   4.404  1.7023  1.9750 -1.0474
  614SOL     OW11771   5.491   6.754   4.116 -0.2441  0.4013 -0.3288
  614SOL    HW111772   5.557   6.805   4.068 -0.3943 -1.1302 -2.2759
  614SOL    HW211773   5.540   6.680   4.151 -0.3817  0.8749  0.9376
  615SOL     OW11774   9.777   0.043   4.929 -0.1025  0.3865  0.0098
  615SOL    HW111775   9.811   0.004   5.009 -0.3430  0.0835 -0.0336
  615SOL    HW211776   9.809   0.134   4.931 -1.3261  0.8166  1.1841
  616SOL     OW11777   2.594   1.728  12.806 -0.2945 -0.7811 -0.5347
  616SOL    HW111778   2.507   1.711  12.844 -0.4382  0.1810 -0.4068
  616SOL    HW211779   2.579   1.801  12.745  0.8708  1.1711  1.3769
  617SOL     OW11780   7.953   9.217   5.978 -0.2146 -0.1007 -0.3048
  617SOL    HW111781   8.047   9.213   5.961  0.0672  1.1256  0.7994
  617SOL    HW211782   7.947   9.245   6.070 -1.6523 -0.3780 -0.3012
  618SOL     OW11783  12.552   5.189   6.771  0.4928  0.1914 -0.0016
  618SOL    HW111784  12.514   5.273   6.796 -2.4666 -0.9886 -0.2269
  618SOL    HW211785  12.541   5.185   6.676  1.0916 -0.2741 -0.0611
  619SOL     OW11786  10.212   8.527  12.309 -0.3035  0.1841 -0.1053
  619SOL    HW111787  10.295   8.569  12.329 -0.6043  0.2295  1.1308
  619SOL    HW211788  10.185   8.487  12.392 -0.4244 -1.7616 -1.0208
  620SOL     OW11789  12.153  12.626  12.434  0.0038 -0.4599  0.3343
  620SOL    HW111790  12.150  12.575  12.354 -0.9094 -0.6464  0.4753
  620SOL    HW211791  12.238  12.671  12.431  0.4376 -1.2884 -0.2106
  621SOL     OW11792   4.255   3.625  12.168  0.1575 -0.3071 -0.0292
  621SOL    HW111793   4.268   3.655  12.258 -2.5867  2.0352 -0.2701
  621SOL    HW211794   4.218   3.537  12.177 -2.7171  0.8878  1.4249
  622SOL     OW11795   8.663  10.401  12.572 -0.6228 -0.0317 -0.8745
  622SOL    HW111796   8.742  10.361  12.536 -0.9367 -1.0879 -0.4179
  622SOL    HW211797   8.599  10.398  12.501 -0.9922 -1.3823 -0.5018
  623SOL     OW11798  11.780   8.745   2.168  0.6024 -0.5774  0.3383
  623SOL    HW111799  11.791   8.810   2.099 -0.3955 -1.3153 -0.5494
  623SOL    HW211800  11.796   8.661   2.125  0.5352 -1.0123  1.1386
  624SOL     OW11801   9.067   7.978   3.913  0.4601 -0.2834  0.0517
  624SOL    HW111802   9.096   7.947   3.827  0.6692 -0.8082  0.3053
  624SOL    HW211803   9.022   7.902   3.951 -3.3213  1.0609 -1.2153
  625SOL     OW11804  12.499   1.976   9.651 -0.1642 -0.0543  0.5698
  625SOL    HW111805  12.564   1.969   9.582 -1.0661  0.8963 -0.4260
  625SOL    HW211806  12.469   1.886   9.665  0.7226 -0.3808  0.4203
  626SOL     OW11807   6.682   6.809   9.034 -0.1946  0.3258 -0.5015
  626SOL    HW111808   6.736   6.883   9.006 -0.1868  0.5395  0.0635
  626SOL    HW211809   6.693   6.806   9.129 -0.2516 -0.3601 -0.5126
  627SOL     OW11810   4.796   8.446  10.097  1.1145  0.6281 -0.5160
  627SOL    HW111811   4.812   8.418  10.007  0.7570  1.6719 -0.9138
  627SOL    HW211812   4.840   8.380  10.151  1.2188 -0.0779 -1.4460
  628SOL     OW11813   4.671   9.822   5.658 -0.0002  0.0330  0.2656
  628SOL    HW111814   4.643   9.778   5.578 -0.3592 -1.2014  1.0337
  628SOL    HW211815   4.763   9.844   5.642 -0.4102  0.9994 -0.9615
  629SOL     OW11816  12.030   4.259   7.987 -0.0508  0.1124 -0.0428
  629SOL    HW111817  12.074   4.223   7.909  0.1293  0.4773 -0.1148
  629SOL    HW211818  11.937   4.251   7.967 -0.0642 -1.7534  0.6047
  630SOL     OW11819  12.912   6.289  10.073  0.0278 -0.3686 -0.4649
  630SOL    HW111820  12.944   6.202  10.051 -1.0348 -1.2937  1.3694
  630SOL    HW211821  12.989   6.345  10.070  1.0965 -1.7442  0.0854
  631SOL     OW11822   0.975  10.075   2.984 -0.2036  0.3263  0.1580
  631SOL    HW111823   1.020  10.133   3.046 -0.8147  0.2242  0.7017
  631SOL    HW211824   0.936  10.006   3.038 -1.4883  0.7123 -0.2327
  632SOL     OW11825   3.074   3.005   5.896 -0.7209 -0.3994 -0.7330
  632SOL    HW111826   3.136   2.945   5.936 -0.4286 -0.0005 -0.5788
  632SOL    HW211827   3.023   2.951   5.836  1.4719 -0.3077 -2.8624
  633SOL     OW11828   4.418   0.050   4.811 -0.0767 -0.7121  0.2588
  633SOL    HW111829   4.387  -0.032   4.773 -1.6251  0.7482 -1.8403
  633SOL    HW211830   4.512   0.051   4.792 -0.3214 -1.3251 -1.1022
  634SOL     OW11831   3.534  10.746   7.086 -0.2605 -0.1583  0.6279
  634SOL    HW111832   3.564  10.706   7.004  0.7714  0.0796  0.8691
  634SOL    HW211833   3.521  10.671   7.145  1.4404 -0.2146  1.0039
  635SOL     OW11834   0.147  10.994  12.186 -0.1826  0.5532  0.5075
  635SOL    HW111835   0.215  11.001  12.120 -0.9993 -0.9597 -0.5493
  635SOL    HW211836   0.073  10.955  12.140 -2.6647  4.2328  0.9762
  636SOL     OW11837   4.755  10.451   4.206  0.3841 -0.2858  0.2145
  636SOL    HW111838   4.741  10.359   4.225  2.0329 -1.5277 -3.6239
  636SOL    HW211839   4.668  10.485   4.184  0.1090 -1.6939 -0.9862
  637SOL     OW11840   8.057  10.994   3.544 -0.1277  0.0324 -0.5958
  637SOL    HW111841   8.083  10.933   3.613 -0.5838 -1.7640 -1.9342
  637SOL    HW211842   8.088  11.079   3.574 -0.2362 -0.6950  1.7696
  638SOL     OW11843  12.984   8.031   7.238 -0.0155 -0.2994  0.3536
  638SOL    HW111844  13.067   7.997   7.270 -1.0583 -1.9112  1.5114
  638SOL    HW211845  12.935   8.054   7.317 -1.3383 -1.0687 -0.2120
  639SOL     OW11846   3.864   7.857   3.113  0.0201 -0.5755 -0.5956
  639SOL    HW111847   3.769   7.863   3.123  0.2750 -0.7260  3.2222
  639SOL    HW211848   3.880   7.765   3.091 -0.6610 -0.8913  0.1730
  640SOL     OW11849   9.377   5.736   4.104 -0.1778  0.2231 -0.0745
  640SOL    HW111850   9.458   5.777   4.137  1.0810  0.4136 -3.1079
  640SOL    HW211851   9.329   5.807   4.063  0.1663 -0.5633 -1.9492
  641SOL     OW11852   3.680   5.285   7.314 -0.2495  0.3132  0.5106
  641SOL    HW111853   3.588   5.307   7.303 -0.4790 -1.0357 -0.4374
  641SOL    HW211854   3.699   5.306   7.406 -0.8309  2.8790  0.1100
  642SOL     OW11855  12.271   7.734   8.284  0.0598  0.1502 -0.1442
  642SOL    HW111856  12.254   7.825   8.311  0.3311  0.7631 -1.9414
  642SOL    HW211857  12.202   7.684   8.328 -0.0073  1.1840  1.0096
  643SOL     OW11858  10.964   9.857   0.792 -0.1151  0.3793  0.1776
  643SOL    HW111859  10.971   9.946   0.827  1.2467 -0.1670  1.3809
  643SOL    HW211860  10.885   9.822   0.833 -0.7327  1.0661 -0.4063
  644SOL     OW11861   0.511   5.859   6.594  0.1815 -0.1470 -0.0266
  644SOL    HW111862   0.487   5.945   6.560  0.4376  0.3460  1.0168
  644SOL    HW211863   0.463   5.851   6.676  0.3170 -0.9232 -0.0122
  645SOL     OW11864   5.807   4.975   0.762  0.3376  0.0587  0.3236
  645SOL    HW111865   5.900   4.991   0.780  0.5798  0.2255 -0.9818
  645SOL    HW211866   5.784   4.903   0.821  1.2638  0.0859  0.7437
  646SOL     OW11867  13.140  11.979  10.284 -0.6002  0.1221  0.3961
  646SOL    HW111868  13.157  11.946  10.196  1.3104 -1.4912  1.3067
  646SOL    HW211869  13.045  11.968  10.295 -0.7962 -0.1025 -1.2456
  647SOL     OW11870   1.935  11.606   4.441 -0.4102 -0.8544  0.1258
  647SOL    HW111871   2.019  11.637   4.407 -0.1618 -2.0136 -0.3926
  647SOL    HW211872   1.930  11.515   4.411 -2.4393 -0.4301 -0.9794
  648SOL     OW11873   8.550   7.441   3.464 -0.6370  0.1191 -0.2934
  648SOL    HW111874   8.580   7.517   3.415 -0.0345 -0.1657 -0.3792
  648SOL    HW211875   8.465   7.420   3.427 -1.2517  1.3320  0.3856
  649SOL     OW11876  11.933  13.186  10.719 -0.0752  0.2365 -0.2751
  649SOL    HW111877  12.002  13.138  10.765  0.1486  1.7072  0.9892
  649SOL    HW211878  11.892  13.240  10.787 -2.7014 -0.8097 -0.9268
  650SOL     OW11879   5.296   4.276  11.366  0.1860 -0.1282 -0.3615
  650SOL    HW111880   5.328   4.198  11.320  1.2349 -0.9046  1.5692
  650SOL    HW211881   5.303   4.254  11.459 -2.1654  1.2380  0.2316
  651SOL     OW11882   2.910  12.113   8.117 -0.0480  0.0715  0.8833
  651SOL    HW111883   2.903  12.099   8.023  0.7995 -2.0683  1.0792
  651SOL    HW211884   2.841  12.059   8.154  1.8721 -2.0128  1.6126
  652SOL     OW11885   2.306   7.149  10.288  0.2946 -0.1889 -0.3961
  652SOL    HW111886   2.364   7.208  10.336 -0.6062  1.2168 -0.9997
  652SOL    HW211887   2.248   7.113  10.355  1.2758 -0.9702  0.0798
  653SOL     OW11888   3.445  10.523   0.113  0.0038  0.2675 -0.1931
  653SOL    HW111889   3.503  10.573   0.056  0.1939  0.0810 -0.1649
  653SOL    HW211890   3.439  10.437   0.072 -0.9070  0.5301 -0.6395
  654SOL     OW11891   7.777   5.695  10.444  0.1521  0.0733  0.4825
  654SOL    HW111892   7.838   5.621  10.456 -0.1289 -0.2529 -0.0510
  654SOL    HW211893   7.703   5.674  10.501 -0.0742 -0.2247  0.0822
  655SOL     OW11894   7.732  12.559   4.887  0.1176  0.1683 -0.2641
  655SOL    HW111895   7.788  12.619   4.936  0.3455  0.0651 -0.4026
  655SOL    HW211896   7.660  12.540   4.947 -0.4832  1.3681 -0.5631
  656SOL     OW11897   5.101   8.318   0.524 -0.7419 -0.3569 -0.2098
  656SOL    HW111898   5.179   8.268   0.550 -0.4547 -0.7898 -1.8227
  656SOL    HW211899   5.049   8.324   0.604 -0.7727 -3.2183  0.0819
  657SOL     OW11900  10.216   8.811   5.439 -0.8326  0.3075 -0.0334
  657SOL    HW111901  10.264   8.893   5.451 -0.6433  0.3697 -1.0539
  657SOL    HW211902  10.149   8.832   5.374 -1.8239  0.0482  0.8837
  658SOL     OW11903   8.999   7.144   0.360  0.1642 -0.6447  0.1041
  658SOL    HW111904   8.972   7.109   0.445 -1.2145 -1.0324 -0.4664
  658SOL    HW211905   9.049   7.073   0.320  0.1720 -0.7403  0.2828
  659SOL     OW11906   7.490  10.710   1.425 -0.2401  0.2957 -0.1069
  659SOL    HW111907   7.460  10.642   1.485 -1.2315  0.0399 -0.8665
  659SOL    HW211908   7.478  10.792   1.473  2.0062 -0.0822  1.2393
  660SOL     OW11909   6.157   9.179   2.687 -0.0168  0.4612  0.3122
  660SOL    HW111910   6.190   9.127   2.613  3.2151  0.7545  1.3993
  660SOL    HW211911   6.149   9.116   2.759 -3.4433  0.1140 -0.2045
  661SOL     OW11912  11.782   4.530   9.213 -0.3308  0.3540  0.3397
  661SOL    HW111913  11.719   4.473   9.256 -0.9333  0.5028 -0.3189
  661SOL    HW211914  11.861   4.477   9.204 -0.9898 -0.5029 -0.5690
  662SOL     OW11915   5.790   2.343   5.167  0.1813  0.1729  0.2247
  662SOL    HW111916   5.718   2.392   5.126 -0.8809 -1.9015 -0.5460
  662SOL    HW211917   5.773   2.349   5.261 -0.4751  0.4655  0.0907
  663SOL     OW11918   8.399  11.997   7.324 -0.0345 -0.0898  0.3722
  663SOL    HW111919   8.393  11.902   7.317  0.5815 -0.0187 -1.7303
  663SOL    HW211920   8.489  12.017   7.301 -0.9334  1.1851 -2.4206
  664SOL     OW11921   7.886   7.740  10.346  0.6210 -0.0986 -0.3592
  664SOL    HW111922   7.809   7.736  10.402  0.2116 -0.2939 -0.9251
  664SOL    HW211923   7.866   7.681  10.273  1.3642 -0.2630 -0.4444
  665SOL     OW11924   4.994  13.151  10.886 -0.2122  0.0341 -0.1067
  665SOL    HW111925   4.984  13.221  10.822 -1.8081 -0.9382 -0.9892
  665SOL    HW211926   5.089  13.145  10.901  0.3337 -0.4016 -3.2042
  666SOL     OW11927   8.243   2.333  13.250 -0.1911 -0.6755  0.5037
  666SOL    HW111928   8.162   2.294  13.283  0.0605 -1.8860 -0.2713
  666SOL    HW211929   8.273   2.389  13.321 -2.1527  0.4861  0.5036
  667SOL     OW11930   8.563   6.272   4.345 -0.0844  0.0496 -0.5041
  667SOL    HW111931   8.472   6.283   4.373  0.0900 -1.4484  0.7384
  667SOL    HW211932   8.614   6.283   4.425  0.7207 -0.4996 -0.9371
  668SOL     OW11933   6.817   1.711   1.124 -0.4099  0.2848  0.1793
  668SOL    HW111934   6.883   1.690   1.059  0.3838 -0.4999  1.1994
  668SOL    HW211935   6.830   1.805   1.141 -0.1850  0.3458 -0.3122
  669SOL     OW11936   4.256   4.901   4.402  0.0924 -0.0568  0.0135
  669SOL    HW111937   4.264   4.813   4.365 -2.3860 -1.1571  1.7754
  669SOL    HW211938   4.333   4.947   4.371  1.6036 -2.8980 -0.8442
  670SOL     OW11939   1.343   4.621   2.661  0.7309  1.1124 -0.0953
  670SOL    HW111940   1.394   4.701   2.674  0.4481  0.9887  2.1874
  670SOL    HW211941   1.403   4.550   2.685  1.2219  0.5027 -2.7991
  671SOL     OW11942   6.952   6.351   2.647 -0.0390  0.5533  0.0004
  671SOL    HW111943   6.868   6.395   2.646 -0.0321  0.5669  0.0121
  671SOL    HW211944   7.015   6.418   2.620 -0.0888  0.4218 -0.4512
  672SOL     OW11945   9.345   0.650   6.599  0.0465  1.0504  0.2720
  672SOL    HW111946   9.261   0.674   6.560  0.1709 -0.5434 -1.1193
  672SOL    HW211947   9.410   0.676   6.534  0.2098 -2.3895 -1.1709
  673SOL     OW11948  12.447  11.540  10.782  1.0027  0.4086  0.1004
  673SOL    HW111949  12.452  11.446  10.800 -2.2156  0.1424  0.1730
  673SOL    HW211950  12.408  11.546  10.695  2.3279  1.7118 -0.4429
  674SOL     OW11951   0.999   6.915   4.920 -0.0215 -0.0259  0.0087
  674SOL    HW111952   0.993   6.862   4.999  0.7211 -0.4626 -0.2123
  674SOL    HW211953   0.964   6.860   4.851  0.6055 -0.1764 -0.1951
  675SOL     OW11954   5.134  10.038   7.808  0.4783 -0.2007  0.5132
  675SOL    HW111955   5.178   9.974   7.752 -0.9632 -0.0911 -0.8334
  675SOL    HW211956   5.053   9.993   7.835  0.0876  0.5776  0.6476
  676SOL     OW11957  10.171  12.091   0.977  0.1439 -0.0109  0.2267
  676SOL    HW111958  10.209  12.178   0.993  1.5535 -0.5577 -0.0309
  676SOL    HW211959  10.210  12.035   1.044 -2.1172 -0.1399  1.5608
  677SOL     OW11960   3.395   4.998  11.707 -0.0926 -0.2970 -0.3227
  677SOL    HW111961   3.393   5.038  11.620 -0.7850  0.8727  0.1985
  677SOL    HW211962   3.488   4.977  11.722 -0.2531 -2.8376 -2.3056
  678SOL     OW11963  10.773  10.187   2.566  0.1528  0.3730 -0.6782
  678SOL    HW111964  10.802  10.269   2.605  1.8712 -0.7927  0.6846
  678SOL    HW211965  10.854  10.137   2.552 -0.8067 -0.9676 -1.7633
  679SOL     OW11966  10.522   2.317  11.396 -0.2623  0.0454 -0.1183
  679SOL    HW111967  10.454   2.380  11.420  0.9377  1.5188 -0.4162
  679SOL    HW211968  10.554   2.283  11.480 -0.2477  0.5910  0.1014
  680SOL     OW11969   5.818   0.262   0.460  0.1388  0.1692 -0.5739
  680SOL    HW111970   5.878   0.196   0.496  0.1133 -0.3051 -1.3633
  680SOL    HW211971   5.870   0.342   0.456  0.0167  0.3351  0.8680
  681SOL     OW11972   1.489  10.506   3.935 -0.0937  0.4430 -0.0091
  681SOL    HW111973   1.524  10.584   3.978  1.2687 -1.0277  1.7584
  681SOL    HW211974   1.435  10.464   4.002  0.0636 -0.6706 -0.5569
  682SOL     OW11975  12.757   2.716   7.238 -0.0180  0.2371 -0.7947
  682SOL    HW111976  12.794   2.801   7.262 -0.0803 -0.3024  1.4076
  682SOL    HW211977  12.692   2.736   7.170  0.5364  1.8277 -0.8985
  683SOL     OW11978  10.458   7.784   8.926  0.1473  0.0143  0.2728
  683SOL    HW111979  10.425   7.748   9.009 -1.0875  1.2596  0.3650
  683SOL    HW211980  10.480   7.875   8.946 -0.8435  0.5525 -0.8911
  684SOL     OW11981   1.820  11.039   2.201  0.4924 -0.0006 -0.2657
  684SOL    HW111982   1.846  11.087   2.122 -0.8716 -0.7285 -1.1941
  684SOL    HW211983   1.778  10.960   2.168  0.2100 -0.4967  1.2124
  685SOL     OW11984   1.316  12.839   6.412 -0.1685 -0.2763 -0.2845
  685SOL    HW111985   1.351  12.902   6.475  0.3569 -0.2700 -0.5787
  685SOL    HW211986   1.239  12.802   6.455  0.0994 -0.1643  0.2967
  686SOL     OW11987  13.294   8.121  11.289 -0.3950  0.4348 -1.1289
  686SOL    HW111988  13.346   8.048  11.256 -0.5587  0.6007 -1.7740
  686SOL    HW211989  13.304   8.117  11.384  1.2014  0.7664 -1.2612
  687SOL     OW11990   8.731   8.076   7.473  0.5311 -0.2878  0.3846
  687SOL    HW111991   8.737   7.981   7.465  0.3664 -0.1727 -1.3383
  687SOL    HW211992   8.779   8.110   7.398 -0.7392  0.9679  0.0988
  688SOL     OW11993   0.437   8.508   9.478  0.1300 -0.6573  0.0591
  688SOL    HW111994   0.407   8.475   9.562  1.0771 -0.8742  0.3139
  688SOL    HW211995   0.504   8.447   9.450  0.4834 -0.0645 -0.4161
  689SOL     OW11996   7.260  11.223   4.378  0.0754 -0.3119 -0.6117
  689SOL    HW111997   7.301  11.141   4.350  1.6743  1.1949 -3.1465
  689SOL    HW211998   7.215  11.256   4.300  0.5400  1.7943 -0.0749
  690SOL     OW11999  10.982   5.006  12.603 -0.0086 -0.3844 -0.5777
  690SOL    HW112000  11.048   4.959  12.552  1.2286 -0.1417  0.7415
  690SOL    HW212001  11.001   5.098  12.588  0.4793 -0.3058  0.4018
  691SOL     OW12002   2.706   0.705   6.393  0.4640  0.1244 -0.0637
  691SOL    HW112003   2.647   0.776   6.368  2.3628  1.6340 -0.4875
  691SOL    HW212004   2.702   0.703   6.489  0.6839  1.0844 -0.0263
  692SOL     OW12005   0.593   9.352   1.047  0.3783  0.2300  0.4603
  692SOL    HW112006   0.542   9.417   1.000 -0.0943 -0.5390 -0.1123
  692SOL    HW212007   0.622   9.290   0.979  0.7104 -0.2282  1.0052
  693SOL     OW12008   5.866   4.244   4.764 -0.1119  0.2248 -0.1470
  693SOL    HW112009   5.961   4.246   4.752 -0.2143 -0.2747 -1.0712
  693SOL    HW212010   5.852   4.289   4.848  1.0665 -1.1781  0.8569
  694SOL     OW12011   9.882   0.075   2.693 -0.0122 -0.5414  0.2520
  694SOL    HW112012   9.967   0.073   2.737  0.8282  1.7175 -1.1101
  694SOL    HW212013   9.856   0.167   2.695 -0.1975 -0.3818 -3.3335
  695SOL     OW12014   3.760   7.687   1.583 -0.7083  0.1042 -0.3561
  695SOL    HW112015   3.777   7.680   1.677 -0.6805 -0.2271 -0.3848
  695SOL    HW212016   3.691   7.622   1.566 -0.9871  0.4285 -0.4970
  696SOL     OW12017   6.561  11.977   6.257 -0.4495  0.0729 -0.1980
  696SOL    HW112018   6.565  11.989   6.352 -2.0224 -0.6725  0.0051
  696SOL    HW212019   6.526  12.060   6.224  0.3217  0.4165 -0.1586
  697SOL     OW12020   7.408   5.535  12.020  0.0417 -0.3065 -0.5025
  697SOL    HW112021   7.364   5.508  12.100 -1.1093 -0.0498 -1.0270
  697SOL    HW212022   7.351   5.603  11.983  2.4470  2.4231  0.4044
  698SOL     OW12023  10.373   8.396  13.125  0.3397  0.1794 -0.3983
  698SOL    HW112024  10.443   8.426  13.067 -0.1406  0.4630 -0.8379
  698SOL    HW212025  10.297   8.449  13.101 -0.5760 -1.4560 -1.2590
  699SOL     OW12026  10.787  10.537   0.731 -0.0423  0.0235 -0.0831
  699SOL    HW112027  10.859  10.487   0.768  0.5499  2.1740  1.9283
  699SOL    HW212028  10.830  10.608   0.682 -0.7380  1.0487  0.7387
  700SOL     OW12029   0.197   7.911  10.165  0.2661  0.6297  0.2775
  700SOL    HW112030   0.199   7.960  10.247  0.4950  1.7028 -0.3416
  700SOL    HW212031   0.142   7.835  10.183 -1.3563  1.8815  0.8808
  701SOL     OW12032   3.684   6.418   2.054  0.2859 -0.5648 -0.3814
  701SOL    HW112033   3.648   6.419   1.966 -0.8572  2.1036  0.0265
  701SOL    HW212034   3.714   6.508   2.069 -1.8463 -0.2007  2.7573
  702SOL     OW12035   7.963   1.761   0.888  0.0417  0.6214  0.5112
  702SOL    HW112036   7.872   1.777   0.914  0.0113 -0.5498  1.1749
  702SOL    HW212037   7.962   1.672   0.852  1.0804  0.2423  1.3587
  703SOL     OW12038   2.243  11.421   9.350  0.2451  0.3745  0.4499
  703SOL    HW112039   2.306  11.354   9.378  0.7907  0.8853  0.4534
  703SOL    HW212040   2.221  11.397   9.260  1.2870  0.8219  0.0683
  704SOL     OW12041   4.656   5.136   7.634 -0.1064 -0.4170  0.2057
  704SOL    HW112042   4.580   5.163   7.583 -0.6118  1.7614  1.9768
  704SOL    HW212043   4.624   5.128   7.723  1.3464 -1.4012  0.6814
  705SOL     OW12044   7.972   2.132   6.896 -0.5906  0.2706 -0.0093
  705SOL    HW112045   7.954   2.143   6.803 -0.8850  0.5768  0.0781
  705SOL    HW212046   7.953   2.040   6.914 -0.7839  0.2724 -0.1989
  706SOL     OW12047   0.516   4.155  10.241 -0.5055 -0.3791 -0.2449
  706SOL    HW112048   0.497   4.204  10.321  1.1481  0.0314 -0.0462
  706SOL    HW212049   0.536   4.222  10.176  1.0808 -0.7117 -0.1634
  707SOL     OW12050  12.806   7.225  10.853  0.3944 -1.1773 -0.7432
  707SOL    HW112051  12.871   7.250  10.787  0.4720  0.1656 -0.1911
  707SOL    HW212052  12.790   7.132  10.837  1.2113 -1.1320 -1.9544
  708SOL     OW12053   5.794   9.174   3.785  0.5114 -0.2031 -0.4972
  708SOL    HW112054   5.797   9.135   3.698  0.4206  2.7585 -1.9349
  708SOL    HW212055   5.857   9.246   3.782 -2.3738  2.6022  0.4132
  709SOL     OW12056  11.909   5.095   4.850 -0.3719  0.4800  0.3867
  709SOL    HW112057  11.943   5.031   4.912 -0.2344  0.2414  0.0650
  709SOL    HW212058  11.970   5.093   4.777 -0.3076  1.0587  0.4215
  710SOL     OW12059   3.546  12.258   5.556  0.5143 -0.2302 -0.1788
  710SOL    HW112060   3.513  12.241   5.644  1.3974  0.3767  0.2885
  710SOL    HW212061   3.601  12.336   5.565  0.2070  0.1531 -1.3742
  711SOL     OW12062   6.256   7.819   0.613 -0.1915  0.0594 -0.4982
  711SOL    HW112063   6.344   7.792   0.586  0.1180  0.7346 -0.2049
  711SOL    HW212064   6.198   7.755   0.573  0.5313 -1.2864  0.5511
  712SOL     OW12065   5.738   8.630   3.994 -0.7556  0.3671 -0.2609
  712SOL    HW112066   5.799   8.616   4.066 -0.4381 -1.2057 -0.8076
  712SOL    HW212067   5.659   8.665   4.036  0.1685  1.5643  0.5575
  713SOL     OW12068  11.448   0.515   5.179 -0.2762  0.2634  0.1249
  713SOL    HW112069  11.359   0.483   5.163 -0.2024  0.3969 -0.5864
  713SOL    HW212070  11.495   0.439   5.213 -0.6084  0.1402  0.3147
  714SOL     OW12071   5.551   6.923   7.572  0.5035  0.4101 -0.8099
  714SOL    HW112072   5.531   6.830   7.560 -0.3086  0.2145  1.5750
  714SOL    HW212073   5.512   6.966   7.495 -1.6533 -0.9157 -0.5464
  715SOL     OW12074  12.403   4.823   5.240  0.0772  0.2175 -0.4143
  715SOL    HW112075  12.340   4.878   5.193  0.1536  0.3756 -0.3311
  715SOL    HW212076  12.407   4.861   5.328 -1.7712 -1.3966  0.4572
  716SOL     OW12077  11.293   8.638   5.648 -0.4068  0.2341  0.1067
  716SOL    HW112078  11.361   8.684   5.599  0.6536 -0.9125  0.4706
  716SOL    HW212079  11.334   8.613   5.730 -1.2605 -0.4785  0.3377
  717SOL     OW12080   0.204   9.645   8.720 -0.8074  0.2363  0.3389
  717SOL    HW112081   0.194   9.653   8.815  0.9262  0.8737  0.5116
  717SOL    HW212082   0.224   9.552   8.706 -1.1758  0.1184  0.5896
  718SOL     OW12083   4.660   3.797   0.436  0.0581 -0.7155  0.3043
  718SOL    HW112084   4.597   3.848   0.385  1.1189  1.4472  1.0646
  718SOL    HW212085   4.744   3.814   0.393  0.9411  0.9596  2.5092
  719SOL     OW12086   5.202   0.212   2.087 -0.3496  0.3413 -0.1246
  719SOL    HW112087   5.134   0.262   2.133  1.4330  0.9327  2.0379
  719SOL    HW212088   5.210   0.131   2.138  0.8686  0.4880 -0.0550
  720SOL     OW12089  10.126   6.365   9.637 -0.5012  0.2324  0.0127
  720SOL    HW112090  10.122   6.299   9.707  0.2445  0.1413 -0.0182
  720SOL    HW212091  10.038   6.367   9.601 -0.5297 -0.7984 -0.0168
  721SOL     OW12092   4.185   8.438   2.089 -0.5388 -0.8052  0.3934
  721SOL    HW112093   4.272   8.471   2.064 -0.9028 -0.5328 -0.5868
  721SOL    HW212094   4.138   8.516   2.118 -1.2565 -0.4594 -1.5073
  722SOL     OW12095  11.582   3.932  13.174 -0.2479  0.3085 -0.9229
  722SOL    HW112096  11.550   4.018  13.201 -0.8242 -0.1927  0.0766
  722SOL    HW212097  11.568   3.928  13.080 -2.9377  0.2189 -0.5872
  723SOL     OW12098   6.263  12.559   8.620 -0.0480 -0.2876 -0.5122
  723SOL    HW112099   6.227  12.563   8.709 -0.7821  0.9644 -0.8521
  723SOL    HW212100   6.335  12.622   8.620 -0.1530 -0.1686 -0.8616
  724SOL     OW12101   2.712  11.085   1.754 -0.3171 -0.1205 -0.1358
  724SOL    HW112102   2.753  11.136   1.824  1.9717 -0.6681 -0.9840
  724SOL    HW212103   2.672  11.010   1.799  0.7846 -0.2603  0.6528
  725SOL     OW12104   3.240  12.978  11.780  0.4275 -0.3079  0.4155
  725SOL    HW112105   3.297  12.927  11.837  0.0470 -0.2276  0.8705
  725SOL    HW212106   3.154  12.976  11.822  0.3733  0.6021  0.3831
  726SOL     OW12107   8.947   4.219   1.856  0.0476  0.2315 -0.3688
  726SOL    HW112108   8.934   4.263   1.772  0.7095  1.0014 -0.0835
  726SOL    HW212109   8.973   4.289   1.916  1.3945 -0.5713  0.0411
  727SOL     OW12110   7.134  11.620   2.431 -0.3334  0.1655 -0.6533
  727SOL    HW112111   7.144  11.708   2.395  0.0436  0.7790  0.9008
  727SOL    HW212112   7.054  11.587   2.391  0.4730  0.4903 -2.6547
  728SOL     OW12113   5.587  10.211   9.438 -0.4524  0.3929  0.3170
  728SOL    HW112114   5.620  10.124   9.415  1.3841  0.9093  0.8056
  728SOL    HW212115   5.666  10.263   9.452 -1.4842  1.5340  2.3416
  729SOL     OW12116  11.437  12.337   0.773 -0.5554 -0.0771 -0.4048
  729SOL    HW112117  11.377  12.314   0.843  0.1325 -3.2565 -0.7119
  729SOL    HW212118  11.492  12.406   0.810 -0.5796 -1.2525  1.9988
  730SOL     OW12119   7.504   0.732   1.057 -0.0668  0.1038 -0.2564
  730SOL    HW112120   7.458   0.793   1.114  0.7248  0.3829  0.0918
  730SOL    HW212121   7.477   0.645   1.089 -1.1765  0.2555 -0.7426
  731SOL     OW12122   8.015   3.709   2.300  0.0910  0.4964  0.3663
  731SOL    HW112123   8.028   3.791   2.348  0.3270  1.1018 -0.7089
  731SOL    HW212124   7.931   3.676   2.332  0.9980  0.0236  2.3978
  732SOL     OW12125   8.202   4.834  11.413 -0.2624  0.1500 -0.1240
  732SOL    HW112126   8.220   4.770  11.482 -1.0656 -0.7495 -0.7198
  732SOL    HW212127   8.256   4.805  11.339 -1.8248 -0.8617 -0.9477
  733SOL     OW12128   0.356   5.826   2.481  0.5637  0.3265  0.4312
  733SOL    HW112129   0.423   5.759   2.470  1.1464  0.9769 -0.0929
  733SOL    HW212130   0.273   5.778   2.480  0.8240 -0.1983 -2.2709
  734SOL     OW12131  12.842   4.020   3.534  0.3153  0.5582 -0.3481
  734SOL    HW112132  12.826   3.986   3.446  1.6707  0.0614 -0.4207
  734SOL    HW212133  12.864   4.112   3.521  0.3736  0.5201 -0.5231
  735SOL     OW12134   6.495   6.377  13.029 -0.0596  0.5164  0.2162
  735SOL    HW112135   6.467   6.384  12.938 -0.6396 -2.4787  0.0584
  735SOL    HW212136   6.590   6.372  13.024  0.0376  2.1821 -0.0209
  736SOL     OW12137   4.338   4.960   5.537  0.0214 -0.2343 -0.4257
  736SOL    HW112138   4.428   4.949   5.567  0.1881  0.1715 -0.7623
  736SOL    HW212139   4.289   4.891   5.582  0.3590  0.0183  0.3534
  737SOL     OW12140   1.595  10.579   2.513 -0.0398 -0.2194 -0.3758
  737SOL    HW112141   1.543  10.640   2.566  3.0569  1.5567  0.8738
  737SOL    HW212142   1.561  10.591   2.424 -1.8971  0.6441  0.3837
  738SOL     OW12143   2.105  12.148   5.493 -0.3176  0.0527  0.3442
  738SOL    HW112144   2.126  12.076   5.434 -1.2953 -1.0322  1.2363
  738SOL    HW212145   2.124  12.227   5.444  2.1782 -0.7857 -0.1780
  739SOL     OW12146  11.217   0.376   5.489  0.3786 -0.4919 -0.3374
  739SOL    HW112147  11.157   0.391   5.561 -0.2413 -1.9096 -0.5124
  739SOL    HW212148  11.302   0.363   5.531  0.5458  1.2868 -0.0731
  740SOL     OW12149   6.018   6.984   8.141 -0.0636 -0.3619 -0.3176
  740SOL    HW112150   5.979   6.896   8.143 -0.0745 -0.3438  0.4392
  740SOL    HW212151   6.051   6.993   8.052 -0.6654 -0.8711 -0.6029
  741SOL     OW12152   9.246   9.732   5.143 -0.1293 -0.1771 -0.4441
  741SOL    HW112153   9.167   9.698   5.101  0.7935  0.5962 -3.0202
  741SOL    HW212154   9.318   9.686   5.100  0.8976 -0.0406  1.0368
  742SOL     OW12155   1.225   8.172  12.019  0.1661  0.0522 -0.2818
  742SOL    HW112156   1.197   8.149  11.931 -0.0084 -0.8069 -0.0088
  742SOL    HW212157   1.145   8.176  12.071  0.3919 -0.9743  0.1752
  743SOL     OW12158   9.636  12.014   6.365 -0.0169  0.0087 -0.8234
  743SOL    HW112159   9.618  12.108   6.364  1.5336  0.3302 -0.6950
  743SOL    HW212160   9.616  11.987   6.454 -0.6156  0.1802 -0.9030
  744SOL     OW12161  12.451  13.035   7.278 -0.5223 -0.1785  0.1846
  744SOL    HW112162  12.543  13.030   7.250 -0.2632  0.2332  0.9411
  744SOL    HW212163  12.402  12.993   7.207  0.1686  0.3581 -0.6368
  745SOL     OW12164   4.459   7.830   0.678  0.2423  0.0396  0.4915
  745SOL    HW112165   4.514   7.801   0.751  0.6004 -1.2517 -0.2580
  745SOL    HW212166   4.501   7.792   0.601  0.0441  1.6269 -0.4352
  746SOL     OW12167  10.859   0.127   6.936 -0.2160 -0.1227 -0.5158
  746SOL    HW112168  10.861   0.064   6.863 -3.8749 -2.4169  1.0938
  746SOL    HW212169  10.929   0.098   6.994  1.0578  0.1440 -1.8564
  747SOL     OW12170  12.627  10.306   8.945  0.1972  0.0641  0.1603
  747SOL    HW112171  12.638  10.394   8.908 -0.8122  1.0775  2.0815
  747SOL    HW212172  12.539  10.281   8.919  0.4549 -0.3534 -0.3156
  748SOL     OW12173   4.441  10.171   1.889 -0.0253 -0.0487 -0.1304
  748SOL    HW112174   4.481  10.215   1.814  1.3478 -0.1906  0.5009
  748SOL    HW212175   4.347  10.186   1.878  0.1704  0.1660 -1.7236
  749SOL     OW12176   1.486  11.683   1.240  0.3308  0.1948 -0.2104
  749SOL    HW112177   1.551  11.717   1.301  0.7893 -1.4183  0.2556
  749SOL    HW212178   1.403  11.720   1.269  0.4422 -0.9934  1.8121
  750SOL     OW12179   3.537   6.076   5.086  0.5894  0.0862  0.4409
  750SOL    HW112180   3.592   6.097   5.162  1.8837  0.4759 -0.5523
  750SOL    HW212181   3.564   6.140   5.019 -2.6075  1.7278  0.5229
  751SOL     OW12182   6.441   1.476  10.312  0.1507 -0.4309 -0.4267
  751SOL    HW112183   6.530   1.478  10.348 -0.4644 -1.5059  1.2992
  751SOL    HW212184   6.420   1.567  10.294  1.3022 -0.0778 -0.0782
  752SOL     OW12185   0.594   5.563   6.701 -0.1419 -0.3382 -0.0111
  752SOL    HW112186   0.517   5.618   6.714 -0.5055  0.0466 -3.0827
  752SOL    HW212187   0.565   5.494   6.642  1.4658 -1.1618  0.0980
  753SOL     OW12188   2.667   1.836   5.360 -0.1560  0.0939  0.2710
  753SOL    HW112189   2.677   1.786   5.279  1.6727  1.3095 -0.3121
  753SOL    HW212190   2.583   1.881   5.351 -0.0369  0.1039 -0.9111
  754SOL     OW12191   6.442   1.894  10.778  0.1828 -0.7529 -0.5875
  754SOL    HW112192   6.475   1.925  10.861  1.6367 -0.7549 -1.1403
  754SOL    HW212193   6.437   1.799  10.787 -3.0814 -0.6036  0.6713
  755SOL     OW12194   3.995   7.410  11.640 -0.0226  0.3193 -0.2269
  755SOL    HW112195   4.034   7.372  11.719  2.1244  1.4906 -0.6515
  755SOL    HW212196   3.953   7.337  11.596  0.4719 -0.7433  1.0035
  756SOL     OW12197  11.157  13.197   6.477  0.3654 -0.4983  0.3659
  756SOL    HW112198  11.069  13.200   6.440  0.4657  0.7812  0.1618
  756SOL    HW212199  11.171  13.285   6.512  0.7829 -1.2730  2.2796
  757SOL     OW12200   4.282   2.097   9.676 -0.0854  0.3444 -0.4732
  757SOL    HW112201   4.353   2.089   9.739 -1.2834 -0.9113  0.8024
  757SOL    HW212202   4.204   2.112   9.730 -1.0559 -0.1696 -1.6930
  758SOL     OW12203  12.144   4.680   2.096  0.5443  0.4521 -0.1378
  758SOL    HW112204  12.082   4.655   2.165 -0.8488  0.3140 -1.3802
  758SOL    HW212205  12.123   4.772   2.078  1.7817  0.8762  0.4901
  759SOL     OW12206  13.003   0.069   5.736  0.5298 -0.4171 -0.0618
  759SOL    HW112207  12.934   0.082   5.800  1.4279  0.0865  0.8421
  759SOL    HW212208  13.076   0.033   5.786  0.7430 -1.5069 -1.0988
  760SOL     OW12209   5.652   4.999   4.309 -0.3280  0.3686 -0.4718
  760SOL    HW112210   5.697   4.921   4.341 -0.9194 -0.4025 -1.4531
  760SOL    HW212211   5.716   5.070   4.318  1.1706 -0.7298 -2.0007
  761SOL     OW12212  11.906   4.699   7.360 -0.2014 -0.2309  0.7836
  761SOL    HW112213  11.949   4.749   7.291 -1.9096  1.0218  0.5407
  761SOL    HW212214  11.967   4.703   7.434  1.0464 -0.4217 -0.2089
  762SOL     OW12215  10.411   5.798   5.468 -0.2321 -0.4525  0.3509
  762SOL    HW112216  10.413   5.888   5.500  0.5156 -0.5164  0.5068
  762SOL    HW212217  10.501   5.766   5.480 -0.3622 -1.0481 -0.1865
  763SOL     OW12218   6.749   2.931   1.317  0.2013 -0.3640 -0.0956
  763SOL    HW112219   6.843   2.948   1.314 -0.1283  1.9618  0.7171
  763SOL    HW212220   6.709   3.017   1.332 -2.0248 -1.3889  0.3298
  764SOL     OW12221  10.553   1.279   0.349 -0.1790  0.2140  0.2554
  764SOL    HW112222  10.480   1.308   0.403  0.4388  0.1439  1.1485
  764SOL    HW212223  10.579   1.356   0.299  0.0405  0.6180  0.9822
  765SOL     OW12224   9.702  12.701  13.217 -0.1522 -0.1596  0.0249
  765SOL    HW112225   9.703  12.764  13.288  1.2216 -2.1092  1.8824
  765SOL    HW212226   9.772  12.639  13.239 -0.1780 -1.2896 -2.6429
  766SOL     OW12227   8.209  11.526   2.343  0.2312 -0.2840  0.1150
  766SOL    HW112228   8.265  11.603   2.339  1.9284 -1.4989 -0.8814
  766SOL    HW212229   8.199  11.507   2.436  0.6638  0.5152  0.3286
  767SOL     OW12230   0.507   0.893   9.629 -0.0082 -0.4106  0.8706
  767SOL    HW112231   0.546   0.805   9.635 -0.4108 -0.7770 -1.1862
  767SOL    HW212232   0.415   0.880   9.653 -0.2488 -0.7406 -0.1477
  768SOL     OW12233  11.374   7.030   4.520 -0.0146 -0.4023  0.2048
  768SOL    HW112234  11.444   6.966   4.530 -1.4483 -2.1718 -0.4659
  768SOL    HW212235  11.294   6.980   4.539 -1.3015  0.8020 -1.7126
  769SOL     OW12236   4.624   8.688   1.067  0.2331 -0.6150  0.3099
  769SOL    HW112237   4.615   8.694   1.162 -0.1149 -1.7905  0.3662
  769SOL    HW212238   4.595   8.600   1.045 -1.8672  0.3569 -1.1523
  770SOL     OW12239   8.043   6.506   3.850  0.1532  0.4033 -0.2640
  770SOL    HW112240   8.028   6.520   3.757  2.4200  0.0127 -0.7572
  770SOL    HW212241   7.959   6.525   3.892 -1.0035  0.2328 -2.4006
  771SOL     OW12242   8.209   5.947   5.107 -0.3244 -0.4642 -0.2341
  771SOL    HW112243   8.276   5.974   5.169 -0.5528  0.0787 -0.2212
  771SOL    HW212244   8.169   5.870   5.148  0.2279 -0.7379 -0.2038
  772SOL     OW12245   7.977   7.848  11.914 -0.3985  0.0115  0.1471
  772SOL    HW112246   8.032   7.769  11.914  0.0131  0.2403  2.1041
  772SOL    HW212247   7.981   7.879  11.824  2.0852 -0.4312  0.0150
  773SOL     OW12248  12.068   8.247  10.555 -0.0230  0.0510 -0.1763
  773SOL    HW112249  11.985   8.259  10.510 -0.2827  0.4136  0.3808
  773SOL    HW212250  12.045   8.246  10.648  0.7296  1.4876  0.0596
  774SOL     OW12251   1.804   0.310   8.263 -0.2472  0.7369  0.5149
  774SOL    HW112252   1.714   0.285   8.281  0.0121 -1.1163 -0.5236
  774SOL    HW212253   1.797   0.398   8.226 -1.7404  0.2864 -0.3837
  775SOL     OW12254  11.804  11.186   4.521 -0.3187 -0.0498  0.3149
  775SOL    HW112255  11.734  11.241   4.484 -1.0596 -0.8025  0.5754
  775SOL    HW212256  11.868  11.179   4.450 -0.2749  1.0187  0.2263
  776SOL     OW12257   5.972   3.018  12.035 -0.0077 -0.4395  0.6971
  776SOL    HW112258   5.889   2.976  12.057 -0.0200 -0.1769  1.1698
  776SOL    HW212259   5.992   3.073  12.111 -0.3444  0.9497 -0.1845
  777SOL     OW12260  10.957  10.020   7.812 -0.0090 -0.2593 -0.5146
  777SOL    HW112261  11.032  10.050   7.760  1.3424  0.8413  1.8873
  777SOL    HW212262  10.897  10.093   7.812  1.3451  0.9466  1.8090
  778SOL     OW12263  12.301   3.417   0.670  0.4310  0.2197 -0.0235
  778SOL    HW112264  12.227   3.419   0.730  1.2688  2.0246  1.0319
  778SOL    HW212265  12.355   3.345   0.701  1.9496  2.3891  2.9367
  779SOL     OW12266   3.463   5.507   0.421 -0.3983  0.4591  0.2652
  779SOL    HW112267   3.510   5.565   0.363 -1.0445  0.5287 -0.2033
  779SOL    HW212268   3.528   5.479   0.486  1.1069 -1.8034 -2.0454
  780SOL     OW12269   7.426   8.647   6.055  0.0649  0.4487  0.0897
  780SOL    HW112270   7.505   8.600   6.082  0.3700  0.9870  0.1461
  780SOL    HW212271   7.361   8.626   6.123 -0.1163 -0.6831 -0.4051
  781SOL     OW12272  12.650  11.534   1.268 -0.2598 -0.0335  0.0572
  781SOL    HW112273  12.713  11.509   1.336  0.0016 -1.2808 -0.6051
  781SOL    HW212274  12.574  11.565   1.317 -0.0801 -0.9033  0.9363
  782SOL     OW12275   2.275   6.061   6.451 -0.3631  0.6061  0.1018
  782SOL    HW112276   2.262   5.976   6.493 -0.0175  0.3471 -0.3086
  782SOL    HW212277   2.248   6.125   6.517 -0.5731  0.1810  0.4318
  783SOL     OW12278  12.653  12.187   4.158  0.2450  0.2671 -0.0357
  783SOL    HW112279  12.575  12.158   4.204  1.3137 -0.2549  1.5165
  783SOL    HW212280  12.663  12.280   4.181  1.0262 -0.1048  1.2039
  784SOL     OW12281   9.912   6.839   8.005  0.1158  0.9941  0.0625
  784SOL    HW112282  10.006   6.849   7.993  0.0197  0.0240 -1.7956
  784SOL    HW212283   9.889   6.758   7.959 -1.1649 -0.6269  3.2479
  785SOL     OW12284   4.761   2.336   5.075  0.2286  0.5990  0.0113
  785SOL    HW112285   4.759   2.391   5.153  1.7911  1.4679 -0.5259
  785SOL    HW212286   4.775   2.247   5.108  0.1194  0.8562  0.7532
  786SOL     OW12287   1.405   6.572   5.218  0.4351 -0.9935  0.0089
  786SOL    HW112288   1.446   6.582   5.132  2.0451 -1.6895  0.6504
  786SOL    HW212289   1.422   6.656   5.261  1.4059 -1.3481  0.3430
  787SOL     OW12290   7.106   1.141   4.543 -0.0170  0.1370 -0.3956
  787SOL    HW112291   7.110   1.232   4.517 -2.5535  0.0581 -1.2657
  787SOL    HW212292   7.097   1.092   4.461 -1.7581 -0.6265  0.2152
  788SOL     OW12293   2.434   9.309   0.193  0.4853  0.5155  0.3761
  788SOL    HW112294   2.351   9.327   0.237  0.0368 -0.1453 -0.1777
  788SOL    HW212295   2.418   9.333   0.102  0.5442 -0.6483  0.0493
  789SOL     OW12296   4.801   5.175   6.441 -0.1805  0.1883 -0.1589
  789SOL    HW112297   4.828   5.231   6.368  1.0143  0.0458  0.1459
  789SOL    HW212298   4.755   5.102   6.400  0.4934  0.1001 -0.7942
  790SOL     OW12299   9.400   2.581  10.336  0.4175  0.2302  0.0319
  790SOL    HW112300   9.456   2.504  10.342  0.3932  0.1965 -0.1696
  790SOL    HW212301   9.312   2.546  10.318  0.2355  0.2530  0.8553
  791SOL     OW12302   1.647  12.129   0.062  1.1621 -0.4529  0.0731
  791SOL    HW112303   1.668  12.066  -0.007  1.6529 -0.3416  0.1236
  791SOL    HW212304   1.634  12.075   0.140  0.4087 -0.5999 -0.1359
  792SOL     OW12305  11.432  10.117   8.430 -0.5471  0.0046 -0.2293
  792SOL    HW112306  11.469  10.085   8.348 -0.8215  0.6821 -0.6277
  792SOL    HW212307  11.506  10.151   8.479 -0.5227  0.5393 -0.6393
  793SOL     OW12308   6.471  11.547  11.121  0.4721 -0.1129 -0.2092
  793SOL    HW112309   6.485  11.565  11.214  0.4899  0.3970 -0.3091
  793SOL    HW212310   6.477  11.452  11.114 -1.8392 -0.3919  0.7163
  794SOL     OW12311   2.546  10.704  10.264 -0.0982  1.0814 -0.1241
  794SOL    HW112312   2.558  10.624  10.213 -1.0354  0.0306  1.2507
  794SOL    HW212313   2.627  10.712  10.315 -1.3616 -1.0846  2.4722
  795SOL     OW12314   0.447  10.844  10.129 -0.4526 -0.3279 -0.1492
  795SOL    HW112315   0.473  10.929  10.165 -2.0053  0.3923 -0.6061
  795SOL    HW212316   0.466  10.850  10.036 -1.3623 -0.1227 -0.3356
  796SOL     OW12317   0.318   9.406   2.081 -0.4628 -0.1306  0.2035
  796SOL    HW112318   0.320   9.430   1.988 -2.1641  0.7025  0.3370
  796SOL    HW212319   0.390   9.455   2.120  1.3117 -1.7261 -0.8979
  797SOL     OW12320   7.966   4.686   2.286 -0.0601  0.2545  0.1377
  797SOL    HW112321   7.932   4.605   2.248 -1.6776  0.6413  0.6614
  797SOL    HW212322   8.008   4.731   2.213 -0.3140 -0.4534 -0.4588
  798SOL     OW12323   0.878   2.231   7.127 -0.1777  0.0171 -0.0664
  798SOL    HW112324   0.787   2.238   7.155  0.2042 -0.1268  1.2477
  798SOL    HW212325   0.905   2.143   7.154  0.4972  0.2361 -0.0123
  799SOL     OW12326   9.333   9.208   7.589 -0.4720  0.1469 -0.0294
  799SOL    HW112327   9.377   9.124   7.596 -0.3389  0.3333  1.8179
  799SOL    HW212328   9.358   9.241   7.503 -0.1591 -1.4803 -0.5968
  800SOL     OW12329   9.041  12.757   2.428 -0.3235 -0.0811  0.2686
  800SOL    HW112330   9.075  12.729   2.513  1.3003 -0.9855 -0.6375
  800SOL    HW212331   8.946  12.758   2.440 -0.2891 -2.6728  1.4023
  801SOL     OW12332   9.719   8.907  11.621  0.1879  0.3361  0.1566
  801SOL    HW112333   9.668   8.909  11.540  0.7000 -0.7451 -0.2024
  801SOL    HW212334   9.710   8.995  11.657 -2.5917 -0.0096  0.5162
  802SOL     OW12335   4.130   1.182   3.471 -0.0205  0.2937  0.0035
  802SOL    HW112336   4.061   1.194   3.406 -1.2724 -2.6593  0.6024
  802SOL    HW212337   4.206   1.153   3.420 -1.4928 -3.7680 -0.2385
  803SOL     OW12338  10.651   6.070   0.315  0.4427  1.1749 -0.7342
  803SOL    HW112339  10.653   6.103   0.225  0.9754 -0.5636 -1.3852
  803SOL    HW212340  10.704   6.133   0.364  2.4109  0.7028 -2.1565
  804SOL     OW12341   2.637   0.960  10.360  0.4338 -0.1678  0.3522
  804SOL    HW112342   2.702   1.005  10.305  1.2299 -0.1003  1.3370
  804SOL    HW212343   2.649   0.998  10.447 -0.7281 -0.3802  0.6155
  805SOL     OW12344   8.211   2.073   2.817  0.3058  0.4456 -0.0014
  805SOL    HW112345   8.159   2.153   2.818 -1.1936 -0.4924  1.0858
  805SOL    HW212346   8.241   2.062   2.907 -2.7814 -2.1700  0.8782
  806SOL     OW12347   3.278   1.401   6.789 -0.5679 -0.5005  0.3262
  806SOL    HW112348   3.270   1.492   6.817 -1.9658 -0.6623  0.5582
  806SOL    HW212349   3.251   1.402   6.697 -0.6290 -0.6766  0.3410
  807SOL     OW12350   7.215  10.753   8.624  0.1472 -0.3282  0.1285
  807SOL    HW112351   7.272  10.819   8.587  0.0376 -0.9672 -1.2470
  807SOL    HW212352   7.252  10.734   8.710 -0.0969  1.8223  0.7514
  808SOL     OW12353   7.207  12.424   4.172 -0.0501  0.3393  0.0256
  808SOL    HW112354   7.238  12.375   4.096  0.6120  1.0644 -0.1820
  808SOL    HW212355   7.238  12.374   4.248  1.3038  0.8495 -0.1812
  809SOL     OW12356   9.999   6.844   5.399  0.3980 -0.4705  0.7144
  809SOL    HW112357  10.024   6.937   5.401  0.6969 -0.5202 -0.3263
  809SOL    HW212358   9.926   6.840   5.338 -0.8270 -0.6569  2.1440
  810SOL     OW12359   0.279   6.683   4.545  0.0161 -0.1422  0.3947
  810SOL    HW112360   0.203   6.631   4.519 -1.4529  3.3103 -3.1765
  810SOL    HW212361   0.354   6.628   4.520 -1.3609 -1.6282 -0.7367
  811SOL     OW12362   4.449   3.665   3.000  0.2148  0.0395 -0.0923
  811SOL    HW112363   4.506   3.628   3.067 -0.3665  0.5331  0.6987
  811SOL    HW212364   4.448   3.759   3.018 -0.4323  0.1024 -0.4124
  812SOL     OW12365   3.416   2.389  11.504 -0.4113  0.1917  0.4390
  812SOL    HW112366   3.480   2.365  11.437 -1.1051  1.4634 -0.7258
  812SOL    HW212367   3.345   2.324  11.493 -0.5390  0.4148 -0.1015
  813SOL     OW12368   3.961  13.207   1.518 -0.2236  0.9803  0.1035
  813SOL    HW112369   3.931  13.277   1.461  1.2908 -0.4746 -2.7005
  813SOL    HW212370   3.880  13.166   1.550 -1.1760  1.4594 -1.5505
  814SOL     OW12371  12.955   8.143   8.577 -0.1612 -0.0468 -0.0962
  814SOL    HW112372  13.045   8.168   8.598 -0.7796  1.1777  1.2735
  814SOL    HW212373  12.963   8.059   8.532  1.5136 -1.2222  2.2246
  815SOL     OW12374   7.548   2.543   7.179 -0.2756 -0.5701  0.3163
  815SOL    HW112375   7.463   2.531   7.137  0.7441  1.0978 -2.4515
  815SOL    HW212376   7.602   2.471   7.145 -0.2633 -1.0762  1.3437
  816SOL     OW12377   4.624   6.449  12.177 -0.0807  0.0773 -0.1562
  816SOL    HW112378   4.617   6.507  12.252  0.8239 -0.5514  0.4288
  816SOL    HW212379   4.605   6.362  12.212 -1.0423 -0.0487 -0.9426
  817SOL     OW12380   2.727   8.982   0.857  0.0430 -0.0587  0.0585
  817SOL    HW112381   2.673   8.905   0.840  2.4080 -1.9325  0.5140
  817SOL    HW212382   2.817   8.952   0.844  1.0191  3.4478 -2.7970
  818SOL     OW12383   1.341  11.204   8.515  0.4196  0.3728  0.1843
  818SOL    HW112384   1.283  11.181   8.443 -2.1576  2.0274  1.6006
  818SOL    HW212385   1.383  11.285   8.488  0.8774  0.0172 -0.1868
  819SOL     OW12386  11.542   9.487   2.454 -0.7375  0.2679 -0.2416
  819SOL    HW112387  11.506   9.399   2.463 -0.3790 -0.0129 -1.3791
  819SOL    HW212388  11.598   9.483   2.376  0.9344  0.9606  0.8673
  820SOL     OW12389  11.722  11.647   8.685 -0.0815  0.4933 -0.1788
  820SOL    HW112390  11.753  11.669   8.597  0.9812  1.4582  0.4196
  820SOL    HW212391  11.731  11.552   8.689 -0.8834  0.3370 -1.3737
  821SOL     OW12392   1.847   4.298  11.737 -0.0562  0.5361 -1.0088
  821SOL    HW112393   1.896   4.291  11.819  0.6557  1.8450 -1.2916
  821SOL    HW212394   1.912   4.281  11.669 -0.8436 -1.5175 -1.3206
  822SOL     OW12395   7.167  11.203   9.286  0.4316  0.6946 -0.2459
  822SOL    HW112396   7.094  11.173   9.231  0.7951  1.2053 -1.0329
  822SOL    HW212397   7.138  11.288   9.319  0.8027  1.0676 -0.8558
  823SOL     OW12398  11.952  11.879   0.971  0.2258 -0.0842  0.0439
  823SOL    HW112399  11.966  11.869   1.065 -0.2312  1.3265  0.2887
  823SOL    HW212400  11.927  11.971   0.960  0.2960 -0.2148 -1.4615
  824SOL     OW12401   5.439   2.397   5.297 -0.6415  0.0846 -0.3553
  824SOL    HW112402   5.350   2.433   5.289 -0.3024  0.6982 -1.5974
  824SOL    HW212403   5.439   2.321   5.238 -0.8868 -1.1075  1.0963
  825SOL     OW12404   1.833   3.023  11.218  0.3530 -0.8619 -0.2811
  825SOL    HW112405   1.908   2.966  11.235  1.5014  0.8581  0.7146
  825SOL    HW212406   1.783   3.021  11.300  1.3375  0.8539  0.4038
  826SOL     OW12407   7.279   7.744   3.375 -0.1123 -0.1514 -0.0959
  826SOL    HW112408   7.308   7.674   3.433  0.5281  2.0737  2.4792
  826SOL    HW212409   7.192   7.767   3.406 -0.7997 -0.4903 -1.6519
  827SOL     OW12410   9.169   6.965  12.061 -0.3014 -0.4648 -0.0077
  827SOL    HW112411   9.150   6.895  12.124  1.5719 -0.2472  0.8818
  827SOL    HW212412   9.198   6.918  11.983  0.0669 -0.7084  0.2708
  828SOL     OW12413   3.476  13.043   6.966  0.2716  0.2929  0.0725
  828SOL    HW112414   3.441  12.985   6.899  0.9399 -4.0823  3.0713
  828SOL    HW212415   3.570  13.047   6.948  0.0465  1.7253 -0.9219
  829SOL     OW12416   6.275  13.237   0.848 -0.1069 -0.5694  0.7088
  829SOL    HW112417   6.215  13.244   0.923 -0.5106 -2.1856  0.5872
  829SOL    HW212418   6.222  13.263   0.773 -0.4421 -1.2310  0.7041
  830SOL     OW12419  12.163   6.858  11.304 -0.4389 -0.1052  0.4821
  830SOL    HW112420  12.206   6.918  11.243 -0.1859 -0.3912  0.3786
  830SOL    HW212421  12.118   6.795  11.247 -1.9206  0.8138  0.5590
  831SOL     OW12422   8.861  10.816   5.319  0.2017 -0.5976 -0.6298
  831SOL    HW112423   8.941  10.765   5.314  0.2085 -0.6763  0.1406
  831SOL    HW212424   8.852  10.838   5.412  1.3324  2.6434 -1.1752
  832SOL     OW12425  11.411   1.957  12.470  0.7495 -0.6423 -0.0123
  832SOL    HW112426  11.390   2.018  12.400  0.8871 -0.8378 -0.2270
  832SOL    HW212427  11.328   1.940  12.514  0.8641  0.4224  0.6435
  833SOL     OW12428   2.391   6.678   5.283  0.1372 -0.1204 -0.4545
  833SOL    HW112429   2.433   6.742   5.225 -2.9873  0.8911 -1.8291
  833SOL    HW212430   2.308   6.719   5.307 -1.1039 -2.8359  0.2959
  834SOL     OW12431   3.001   4.481  13.069  0.0276 -0.2846  0.3182
  834SOL    HW112432   2.925   4.518  13.024 -1.1013 -2.4930  0.3089
  834SOL    HW212433   3.040   4.555  13.115 -3.2662  0.5742  1.9392
  835SOL     OW12434   8.871   6.095   8.788 -0.1246  0.3718 -0.0913
  835SOL    HW112435   8.844   6.040   8.714  0.6250  0.0469 -0.1349
  835SOL    HW212436   8.957   6.127   8.763 -1.0579  2.6140 -0.6236
  836SOL     OW12437   1.778   8.382   6.972 -0.3343  0.0266  0.0760
  836SOL    HW112438   1.804   8.313   6.911 -1.7459  0.2897 -0.8869
  836SOL    HW212439   1.682   8.374   6.976 -0.5595  2.0575 -0.2468
  837SOL     OW12440   2.890  13.010   4.967  0.3434 -0.0301  0.1662
  837SOL    HW112441   2.796  13.023   4.979  0.0717 -1.9103  0.4243
  837SOL    HW212442   2.899  12.916   4.953  2.0104  0.3478 -1.7302
  838SOL     OW12443  11.951  12.681   9.814  0.1530  0.0180  0.6318
  838SOL    HW112444  11.955  12.773   9.787 -1.1530  0.1045  0.6889
  838SOL    HW212445  12.003  12.677   9.894 -1.1821  1.0864  1.6030
  839SOL     OW12446  11.983  11.060   6.981 -0.1376  0.6882  0.3323
  839SOL    HW112447  11.905  11.060   7.037 -0.3181 -0.7236  0.1257
  839SOL    HW212448  11.950  11.087   6.895 -0.4115  0.0873  0.2438
  840SOL     OW12449   9.047   1.967  11.296  0.4127  0.4400  0.3144
  840SOL    HW112450   9.057   2.059  11.321  0.5186  0.4026  0.4159
  840SOL    HW212451   8.980   1.967  11.228  0.4608  0.5996  0.2670
  841SOL     OW12452   5.529   1.301   5.764  0.1662  0.6058 -0.1551
  841SOL    HW112453   5.537   1.236   5.695 -0.3383 -1.1329  1.3318
  841SOL    HW212454   5.443   1.285   5.803  0.2127  1.8793  0.5324
  842SOL     OW12455  10.667   7.944  11.995  1.0428  0.1537  0.2095
  842SOL    HW112456  10.597   7.894  11.953  1.6278 -0.7722  0.3227
  842SOL    HW212457  10.734   7.879  12.017  2.4643  1.1572 -0.9326
  843SOL     OW12458   6.966  10.984   3.557  0.2894 -0.2264  0.1602
  843SOL    HW112459   6.979  10.988   3.462  0.9667  0.8336  0.2742
  843SOL    HW212460   7.038  11.037   3.592 -0.5395  0.2275  1.2084
  844SOL     OW12461   7.561   6.344   3.444  0.3618 -0.1748 -0.6704
  844SOL    HW112462   7.565   6.375   3.534  1.8804 -1.0559 -0.3980
  844SOL    HW212463   7.577   6.250   3.450  2.0743 -0.0187 -1.9413
  845SOL     OW12464  12.556   5.944   8.675  0.0864  0.1019  0.4619
  845SOL    HW112465  12.569   5.992   8.593 -0.7092  0.4307  0.5127
  845SOL    HW212466  12.608   5.864   8.665  0.7075  0.5530  0.0038
  846SOL     OW12467   1.606   2.488   8.373  0.1302  0.0132  0.2505
  846SOL    HW112468   1.667   2.470   8.444 -0.8595 -1.7602  0.7136
  846SOL    HW212469   1.660   2.489   8.294  1.0844  0.9658  0.8985
  847SOL     OW12470   4.306   9.900   2.746  0.5365  0.9651  0.5519
  847SOL    HW112471   4.356   9.903   2.828  0.8549 -1.6120  0.5241
  847SOL    HW212472   4.371   9.916   2.678  0.9041 -0.0754  0.6451
  848SOL     OW12473   9.835   3.135   4.728  0.4206  0.0050 -0.0666
  848SOL    HW112474   9.920   3.147   4.771  0.0764  0.0778  0.6003
  848SOL    HW212475   9.805   3.048   4.756  1.0609 -0.7813 -1.6916
  849SOL     OW12476   0.342   2.533  12.868 -0.9040 -0.5253 -0.6912
  849SOL    HW112477   0.429   2.519  12.906 -0.0961  0.5711 -2.0483
  849SOL    HW212478   0.281   2.522  12.942  0.1426 -3.5839 -0.1315
  850SOL     OW12479  11.414  12.703   0.240 -0.1057  0.0488 -0.0675
  850SOL    HW112480  11.426  12.788   0.282 -0.8543  0.4128 -0.5810
  850SOL    HW212481  11.500  12.660   0.249  0.6551  1.3440 -0.9008
  851SOL     OW12482   0.609   1.758   9.844  0.1347 -0.2169 -0.3433
  851SOL    HW112483   0.660   1.837   9.866 -0.4827 -0.2125  1.2091
  851SOL    HW212484   0.557   1.741   9.922  1.0586 -2.8351 -0.1925
  852SOL     OW12485   8.009   6.260   3.038 -0.6554  0.3090 -0.1276
  852SOL    HW112486   8.018   6.165   3.026 -0.7058  0.1694  0.8361
  852SOL    HW212487   8.037   6.275   3.128  0.3809  1.3693 -0.6119
  853SOL     OW12488  11.242   5.597   1.700 -0.1092 -0.7074  0.2906
  853SOL    HW112489  11.319   5.618   1.646 -0.8092  0.1645 -0.3964
  853SOL    HW212490  11.242   5.665   1.768  0.5172 -1.5429  1.1517
  854SOL     OW12491   4.999  11.566   5.824 -0.6545  0.1263  0.3399
  854SOL    HW112492   5.082  11.558   5.871  0.0070 -3.4020 -1.1809
  854SOL    HW212493   5.019  11.626   5.752 -0.5583  2.2531  2.0145
  855SOL     OW12494   5.506  13.020   7.429 -0.3638  0.2465 -0.0380
  855SOL    HW112495   5.498  13.114   7.413  0.0571  0.6261  1.8004
  855SOL    HW212496   5.439  13.000   7.494  1.4420 -0.0899  1.8407
  856SOL     OW12497   9.170  12.902  10.982 -0.5844 -0.1017 -0.4961
  856SOL    HW112498   9.192  12.883  10.891 -0.6921 -1.2149 -0.3106
  856SOL    HW212499   9.253  12.899  11.029 -0.2908  2.0955 -0.7847
  857SOL     OW12500  10.931   5.603   5.963  0.4548  0.1464 -0.1850
  857SOL    HW112501  10.935   5.699   5.968  1.6346  0.0426  1.9557
  857SOL    HW212502  11.022   5.575   5.952  0.0915 -0.7404 -1.0996
  858SOL     OW12503   0.732   7.496   1.099  0.0422 -0.0901 -0.5349
  858SOL    HW112504   0.703   7.413   1.060  0.4987 -0.4528 -0.1163
  858SOL    HW212505   0.701   7.493   1.189  0.0326  0.2073 -0.5277
  859SOL     OW12506   2.060   7.557  11.256 -0.1694 -0.3277  0.8104
  859SOL    HW112507   2.114   7.484  11.287 -1.6135 -1.0786  1.6740
  859SOL    HW212508   2.080   7.629  11.316 -0.8462 -0.9134  1.7655
  860SOL     OW12509   3.372   9.738   5.329  0.0359  0.6321  0.3087
  860SOL    HW112510   3.413   9.699   5.406  2.6410  3.3859  0.5241
  860SOL    HW212511   3.413   9.692   5.255 -1.5314 -1.1372  0.4650
  861SOL     OW12512   0.756  12.979   1.236  0.6149 -0.4370 -0.0041
  861SOL    HW112513   0.798  13.005   1.154 -0.2203 -0.7333 -0.5408
  861SOL    HW212514   0.669  13.019   1.232  0.2483 -1.1792  0.3222
  862SOL     OW12515   6.126   9.394   0.310  0.1960  0.3785  0.0036
  862SOL    HW112516   6.075   9.470   0.337  0.1405  0.5360 -0.5288
  862SOL    HW212517   6.123   9.334   0.385  0.8165  1.1828  0.6923
  863SOL     OW12518  12.530  10.975   4.986 -0.2768  0.1518  0.2040
  863SOL    HW112519  12.581  11.018   5.055  0.9186 -0.1195 -0.4956
  863SOL    HW212520  12.560  11.016   4.905 -1.3403  0.1432 -0.2109
  864SOL     OW12521   8.553   4.813  11.601  0.0812 -0.3378  0.0804
  864SOL    HW112522   8.492   4.816  11.675  0.7294  1.3036  0.5860
  864SOL    HW212523   8.545   4.899  11.559  1.3883 -0.4124 -0.3780
  865SOL     OW12524  10.756  11.055   4.658  0.2031  0.5657 -0.4341
  865SOL    HW112525  10.682  11.003   4.628 -0.6030  2.4622 -1.9238
  865SOL    HW212526  10.830  11.024   4.606  0.6360 -1.5367  1.2594
  866SOL     OW12527   7.255   9.477   2.179  0.2137 -0.1787  0.1919
  866SOL    HW112528   7.332   9.425   2.201  1.4380 -0.4790 -3.9549
  866SOL    HW212529   7.199   9.417   2.129 -0.4143  1.2617 -0.9081
  867SOL     OW12530   5.849   6.609  12.349 -0.1202 -0.0826  0.5578
  867SOL    HW112531   5.801   6.650  12.277  0.1018 -0.9277 -0.0920
  867SOL    HW212532   5.793   6.623  12.426  0.5438  2.5329  0.6638
  868SOL     OW12533   3.261   4.018   7.162 -0.1516 -0.3295 -0.5706
  868SOL    HW112534   3.191   4.021   7.227  0.6237 -0.6016  0.2987
  868SOL    HW212535   3.326   4.081   7.194 -0.2299  0.3331 -1.6594
  869SOL     OW12536   2.349   2.901   4.943  0.0187 -0.0466 -0.3148
  869SOL    HW112537   2.276   2.960   4.926  0.4383  0.3705 -0.7214
  869SOL    HW212538   2.411   2.918   4.871  0.3569 -0.6413 -0.1731
  870SOL     OW12539   2.722   6.607  10.671 -0.2223  0.0814  0.2464
  870SOL    HW112540   2.751   6.519  10.651 -0.6430  0.0815 -0.3861
  870SOL    HW212541   2.774   6.633  10.747 -0.4292 -0.8829  0.7336
  871SOL     OW12542   9.235  12.334  12.993 -0.1427 -0.0588  0.5234
  871SOL    HW112543   9.144  12.359  12.982  0.3098  2.2613  1.4938
  871SOL    HW212544   9.281  12.381  12.923  0.2713 -1.8255 -0.4573
  872SOL     OW12545  11.402   0.937   4.350 -0.2641  0.5975 -0.4433
  872SOL    HW112546  11.413   0.971   4.261  0.5540  1.1087 -0.1624
  872SOL    HW212547  11.400   1.015   4.406 -1.6693  0.3319 -0.0802
  873SOL     OW12548   1.173   4.706  11.041  0.3052 -0.2808 -0.3033
  873SOL    HW112549   1.142   4.685  11.129 -3.2099 -2.8867 -1.9287
  873SOL    HW212550   1.237   4.638  11.021  0.5934 -0.0896 -0.0476
  874SOL     OW12551   0.011   7.933   6.914  0.6307  0.2772 -0.6210
  874SOL    HW112552  -0.075   7.895   6.928 -0.4082  2.5043 -0.4980
  874SOL    HW212553  -0.003   8.003   6.850  2.4301  0.4285 -0.9174
  875SOL     OW12554   0.758   5.294  10.553  0.0434  0.1588  0.1704
  875SOL    HW112555   0.690   5.340  10.602  0.0528 -0.2429  0.5737
  875SOL    HW212556   0.796   5.233  10.617 -0.4258 -0.8829 -0.5204
  876SOL     OW12557   2.826   7.412   9.422  0.1114 -0.8184 -0.4518
  876SOL    HW112558   2.877   7.394   9.343  0.2326  0.2912 -0.6498
  876SOL    HW212559   2.890   7.406   9.494 -0.4006 -3.9864 -0.1127
  877SOL     OW12560   9.013   6.803   3.837 -0.2904  0.4045  0.3931
  877SOL    HW112561   9.060   6.722   3.857  0.1329  0.6182  0.2724
  877SOL    HW212562   8.953   6.779   3.766 -0.7711 -0.0062  0.9245
  878SOL     OW12563  13.185   9.308   9.688 -0.5367  0.2152 -0.0397
  878SOL    HW112564  13.092   9.295   9.707 -0.9597 -0.7745 -2.3656
  878SOL    HW212565  13.204   9.397   9.717 -2.0612  0.2595  0.9210
  879SOL     OW12566  12.899   2.992  12.353 -0.0057  0.7250  0.4299
  879SOL    HW112567  12.853   2.921  12.309 -1.1675  1.6781  0.0495
  879SOL    HW212568  12.835   3.027  12.416  0.7630  1.0245  1.0603
  880SOL     OW12569   0.811   0.738  11.597  0.0691  0.1112  0.2771
  880SOL    HW112570   0.834   0.698  11.513  1.0938 -1.3744  1.2058
  880SOL    HW212571   0.722   0.707  11.615 -1.0031  2.1364 -1.1831
  881SOL     OW12572   1.371   3.046   8.420 -0.0994 -0.2207 -0.4549
  881SOL    HW112573   1.304   2.978   8.411 -0.8320  0.5670 -1.0974
  881SOL    HW212574   1.342   3.116   8.361  0.5341  0.7317  0.3397
  882SOL     OW12575   4.791  12.932   1.388  0.2312  0.2470  0.5186
  882SOL    HW112576   4.802  13.021   1.423  0.0596  0.0480  1.0902
  882SOL    HW212577   4.872  12.887   1.412  1.0771  0.7194 -1.2731
  883SOL     OW12578   3.965  12.825   7.076  0.3530 -0.3483 -0.0031
  883SOL    HW112579   3.892  12.886   7.066  0.2420 -0.0538  2.1403
  883SOL    HW212580   3.926  12.739   7.062  0.1314 -0.0792 -1.2182
  884SOL     OW12581  11.779   5.706   9.188 -1.0156  0.3679 -0.6863
  884SOL    HW112582  11.696   5.709   9.141 -1.1546 -2.9674 -0.8897
  884SOL    HW212583  11.755   5.708   9.280 -0.9262  3.7820 -0.6098
  885SOL     OW12584   4.746  12.636   7.694 -0.1873  0.8337  0.6500
  885SOL    HW112585   4.654  12.614   7.708  0.2492 -1.6660  0.0215
  885SOL    HW212586   4.795  12.564   7.734  1.4496  1.1119 -0.7370
  886SOL     OW12587  12.133   6.708  13.315 -0.1891  0.3113 -0.0337
  886SOL    HW112588  12.225   6.736  13.306  0.7033 -1.4382  2.4000
  886SOL    HW212589  12.088   6.748  13.240  2.5178  1.3334 -1.2572
  887SOL     OW12590   5.239  10.864   7.872 -0.2785 -0.2851 -0.1434
  887SOL    HW112591   5.277  10.949   7.848  2.3084 -0.9282  1.2738
  887SOL    HW212592   5.247  10.811   7.792 -0.3416  0.2938 -0.5394
  888SOL     OW12593  11.757   1.401   0.480  0.0470 -0.0007  0.1245
  888SOL    HW112594  11.762   1.481   0.427  0.1809 -0.8717 -1.2238
  888SOL    HW212595  11.722   1.431   0.564  2.1361  1.8239  0.4353
  889SOL     OW12596   9.998  10.859   1.564  0.1743 -0.0394  0.1388
  889SOL    HW112597   9.983  10.870   1.658 -1.3946 -0.6228 -0.0111
  889SOL    HW212598   9.957  10.936   1.524 -2.1746 -1.3871 -0.2432
  890SOL     OW12599   6.585   0.427   4.852 -0.7572 -0.1232  0.2319
  890SOL    HW112600   6.573   0.380   4.935  0.2492 -0.0155  0.4475
  890SOL    HW212601   6.501   0.417   4.807 -0.9152 -1.2312  0.7323
  891SOL     OW12602  10.620   2.441  12.173 -0.1922 -0.2686  0.1773
  891SOL    HW112603  10.589   2.529  12.152  1.3225  0.2820  0.1235
  891SOL    HW212604  10.622   2.395  12.089  2.0375  0.6828 -0.3713
  892SOL     OW12605  11.573   9.326  10.449 -0.7087 -0.1540  0.2979
  892SOL    HW112606  11.584   9.364  10.362  0.1669  1.6401  1.1406
  892SOL    HW212607  11.655   9.346  10.494 -0.9189 -1.5635  1.3800
  893SOL     OW12608   5.085   5.221  12.935  0.1276  0.0107  0.9072
  893SOL    HW112609   5.049   5.310  12.944  0.4423  0.0216  2.3738
  893SOL    HW212610   5.145   5.227  12.860 -0.6123  0.7740  0.3633
  894SOL     OW12611   3.266   6.656   0.488 -0.1099  0.3447  0.3398
  894SOL    HW112612   3.189   6.614   0.451  0.9620 -0.2724 -1.3066
  894SOL    HW212613   3.297   6.595   0.555  0.4104 -0.6933 -0.8032
  895SOL     OW12614   4.833   9.238  11.569 -0.2854 -0.3926  0.0458
  895SOL    HW112615   4.765   9.231  11.503  0.4454  0.6121 -0.8383
  895SOL    HW212616   4.868   9.326  11.559  2.1499 -1.3499 -0.5491
  896SOL     OW12617   9.724   4.380   0.619 -0.0833  0.3316 -0.6435
  896SOL    HW112618   9.730   4.470   0.653 -0.4224 -0.2422  1.0330
  896SOL    HW212619   9.810   4.343   0.637 -0.7272 -0.4460  1.1116
  897SOL     OW12620   5.853   5.827   2.989  0.3665  0.2658  0.0802
  897SOL    HW112621   5.920   5.888   3.019  1.2523 -1.0108  0.8374
  897SOL    HW212622   5.867   5.748   3.042 -2.1024  0.1271  0.6395
  898SOL     OW12623   7.648  12.328   2.819 -0.2006 -0.4412 -0.1299
  898SOL    HW112624   7.570  12.375   2.850 -0.9958 -1.7717 -0.0180
  898SOL    HW212625   7.635  12.238   2.849  1.1526 -0.7974 -0.5468
  899SOL     OW12626   9.367   7.737   6.119  0.3745  0.6636  0.4160
  899SOL    HW112627   9.373   7.703   6.208 -3.2426  1.4292  1.1180
  899SOL    HW212628   9.434   7.806   6.115  0.9594  0.2707  2.3536
  900SOL     OW12629   0.733  12.277   0.714 -0.1569  0.2914  0.1885
  900SOL    HW112630   0.730  12.187   0.747 -0.4560 -0.0571 -0.7554
  900SOL    HW212631   0.693  12.329   0.784  0.1642 -0.2815  0.8142
  901SOL     OW12632   9.541   3.387   8.495  0.2992  0.1986 -0.1819
  901SOL    HW112633   9.448   3.370   8.482 -0.6176  2.6815  2.1481
  901SOL    HW212634   9.570   3.425   8.412 -0.5044 -1.3233 -1.2099
  902SOL     OW12635   6.345  10.174   0.085  0.0176 -0.5211 -0.5023
  902SOL    HW112636   6.316  10.174  -0.006  0.2265  0.5623 -0.5854
  902SOL    HW212637   6.439  10.190   0.080  0.1442 -1.1298 -0.1222
  903SOL     OW12638   6.714   4.270  10.551 -0.7724  0.0290  0.2808
  903SOL    HW112639   6.752   4.344  10.504 -1.5667  1.0970  1.2659
  903SOL    HW212640   6.790   4.219  10.581 -0.2336  0.0509 -0.9792
  904SOL     OW12641   0.171  11.391   4.562  0.3436  0.2203  0.5066
  904SOL    HW112642   0.237  11.454   4.591  1.0660 -0.7947  1.1238
  904SOL    HW212643   0.110  11.443   4.510  0.7699  1.4804  1.2134
  905SOL     OW12644   1.521  11.770  10.205  0.0726  0.1143 -0.0483
  905SOL    HW112645   1.504  11.780  10.111 -2.0631  0.2283  0.3142
  905SOL    HW212646   1.601  11.717  10.209 -0.2168 -0.5282 -1.9256
  906SOL     OW12647   1.346   5.604   6.136  0.5518  0.4653  0.4855
  906SOL    HW112648   1.353   5.516   6.101  0.1752  0.7680 -0.3817
  906SOL    HW212649   1.322   5.659   6.061 -0.5649  1.0868  1.2444
  907SOL     OW12650   0.721   1.947   8.726  0.3131  0.2359 -0.1720
  907SOL    HW112651   0.746   1.868   8.678 -0.4864  0.0373 -0.2676
  907SOL    HW212652   0.626   1.951   8.719  0.4219  1.9668 -1.3433
  908SOL     OW12653   5.569  11.831  12.214 -0.2820 -0.0493 -0.2322
  908SOL    HW112654   5.550  11.847  12.307 -0.8547  0.2381 -0.3911
  908SOL    HW212655   5.484  11.840  12.171  0.2269  1.3599 -1.0016
  909SOL     OW12656   1.721   0.607   5.640 -0.0325 -0.7154  0.2769
  909SOL    HW112657   1.756   0.578   5.724 -0.7073  1.4785  1.3800
  909SOL    HW212658   1.798   0.641   5.593 -0.0167  0.4989  1.1245
  910SOL     OW12659   0.802   2.365   2.881  0.3688 -0.7079 -0.1254
  910SOL    HW112660   0.831   2.413   2.804 -0.6580  0.0708 -0.0468
  910SOL    HW212661   0.857   2.398   2.952 -1.4363  1.7019  0.2775
  911SOL     OW12662   9.916   6.203   6.595  0.2547 -0.3779  0.6147
  911SOL    HW112663   9.897   6.247   6.512 -0.7299 -0.8544  0.5829
  911SOL    HW212664   9.960   6.122   6.569  0.1111 -0.4417  0.5717
  912SOL     OW12665   0.883   4.371   7.452  0.1094  0.0773 -0.3446
  912SOL    HW112666   0.825   4.406   7.520 -1.2216  1.5985 -2.1790
  912SOL    HW212667   0.967   4.359   7.497 -0.9531  0.1289  1.7805
  913SOL     OW12668   7.910   3.146  11.641 -0.0772  0.3662 -0.1327
  913SOL    HW112669   7.860   3.209  11.692 -0.9644 -1.8345  1.9132
  913SOL    HW212670   7.995   3.140  11.685  0.7078  1.4117 -1.4230
  914SOL     OW12671  10.391   5.531   2.239 -0.2290  0.0217 -0.3004
  914SOL    HW112672  10.337   5.517   2.162 -0.6630 -1.0665  0.1832
  914SOL    HW212673  10.340   5.589   2.294 -0.7495 -0.6865 -0.0208
  915SOL     OW12674   1.286   7.651   3.057  0.2892  0.1401 -0.2117
  915SOL    HW112675   1.317   7.563   3.036 -0.2788  0.1098 -0.9853
  915SOL    HW212676   1.286   7.655   3.152  1.0895 -0.4174 -0.1850
  916SOL     OW12677  11.670   7.656   4.682 -0.1115 -0.3323  0.4594
  916SOL    HW112678  11.738   7.615   4.629  0.4235  0.2493  0.6883
  916SOL    HW212679  11.644   7.733   4.632 -0.6055 -0.5552  0.3723
  917SOL     OW12680   5.592  13.106   6.076  0.0003 -0.5371 -0.1126
  917SOL    HW112681   5.505  13.137   6.101  0.2595 -1.2682  1.8224
  917SOL    HW212682   5.576  13.027   6.024 -0.4950 -0.3732 -0.2143
  918SOL     OW12683   4.926   7.862   9.645 -0.1235 -0.2299  0.2896
  918SOL    HW112684   4.998   7.926   9.649 -0.8918  0.7790 -1.1080
  918SOL    HW212685   4.919   7.829   9.734  0.5949  1.3266  0.9747
  919SOL     OW12686   2.137   2.704  13.245  0.3116 -0.2964 -0.0308
  919SOL    HW112687   2.206   2.735  13.303  0.0837 -1.4446  0.8812
  919SOL    HW212688   2.056   2.733  13.286  0.1763 -0.4613 -0.1777
  920SOL     OW12689   1.986  10.397  13.250 -0.0682  0.3356  0.3796
  920SOL    HW112690   1.899  10.401  13.289 -0.4333 -2.1475 -0.0486
  920SOL    HW212691   2.045  10.418  13.323 -0.9194 -0.5053  1.3493
  921SOL     OW12692   2.874   9.850   3.456 -0.1059 -0.1653 -0.3183
  921SOL    HW112693   2.917   9.775   3.415 -0.4783 -0.4653 -0.1639
  921SOL    HW212694   2.857   9.821   3.546 -3.4121 -1.2358 -1.1626
  922SOL     OW12695   8.317   2.040   0.960 -0.2125  0.0978 -0.1957
  922SOL    HW112696   8.282   2.025   1.048 -0.9317 -1.6975 -0.7506
  922SOL    HW212697   8.301   2.133   0.944 -3.1572 -0.2336  0.2931
  923SOL     OW12698   6.167   2.113   5.270 -0.4059 -0.9744  0.4226
  923SOL    HW112699   6.088   2.089   5.222 -0.7493  0.0654  0.4311
  923SOL    HW212700   6.140   2.187   5.325  0.3393 -1.2121  1.1250
  924SOL     OW12701   6.810   6.884   5.353  0.3067  0.0365  0.5157
  924SOL    HW112702   6.744   6.920   5.412 -1.2535 -0.2084 -1.0186
  924SOL    HW212703   6.857   6.960   5.320 -0.2793  0.3461  0.3878
  925SOL     OW12704   7.295  12.213  13.100  0.1710  0.4190  0.4852
  925SOL    HW112705   7.201  12.203  13.081  0.4070 -0.6370 -0.2080
  925SOL    HW212706   7.339  12.189  13.018  1.2181 -3.7518  2.0462
  926SOL     OW12707   3.489   4.126   2.988 -0.0442 -0.1953  0.1142
  926SOL    HW112708   3.461   4.126   3.080 -0.4782  2.0166  0.0452
  926SOL    HW212709   3.496   4.219   2.966  1.6034 -0.6865 -1.6442
  927SOL     OW12710  11.770   7.784   6.672 -0.1046 -0.0612 -0.1153
  927SOL    HW112711  11.764   7.715   6.738 -1.4677  1.4492  1.4189
  927SOL    HW212712  11.739   7.862   6.716  0.7941  1.4374 -1.9969
  928SOL     OW12713  12.372  12.461   4.782 -0.1822  0.1640 -0.1065
  928SOL    HW112714  12.278  12.460   4.765 -0.1115 -0.2526 -0.5006
  928SOL    HW212715  12.382  12.411   4.863 -0.2395 -0.3500 -0.4133
  929SOL     OW12716  10.441   7.484   4.142 -0.4130  0.2693  0.1475
  929SOL    HW112717  10.456   7.449   4.230  0.9745  1.0354  0.2422
  929SOL    HW212718  10.387   7.562   4.155  1.1691  1.3324  0.5118
  930SOL     OW12719  10.629   8.093   0.437  0.2990 -0.2214  0.0418
  930SOL    HW112720  10.660   8.006   0.410 -1.1112 -1.3162  1.7642
  930SOL    HW212721  10.689   8.118   0.507 -0.1080 -0.4257  0.4671
  931SOL     OW12722   9.608   7.934   8.570  0.0614  0.1376  0.1270
  931SOL    HW112723   9.578   7.874   8.638  0.2485 -0.5382 -0.3785
  931SOL    HW212724   9.667   7.995   8.615  2.0521 -1.7236  0.1568
  932SOL     OW12725   6.837   5.281  10.475  0.1152  0.1738  0.5022
  932SOL    HW112726   6.851   5.271  10.381 -1.7620  0.5456  0.1423
  932SOL    HW212727   6.887   5.210  10.515 -1.0836 -1.5474 -0.9582
  933SOL     OW12728   7.713  11.692  11.583  0.6765 -0.1068 -0.8520
  933SOL    HW112729   7.635  11.719  11.631  1.8568  1.9078  0.1094
  933SOL    HW212730   7.749  11.620  11.634  0.3433  0.0854 -0.3380
  934SOL     OW12731   4.417   1.712   3.279  0.3343  0.4369 -0.7711
  934SOL    HW112732   4.498   1.697   3.327 -0.0875 -1.3377 -0.5298
  934SOL    HW212733   4.436   1.684   3.189  0.4349  1.5442 -1.1150
  935SOL     OW12734   0.702  12.713   4.747  0.4120  0.2152 -0.1538
  935SOL    HW112735   0.659  12.667   4.676 -1.9215  0.1297  1.1974
  935SOL    HW212736   0.773  12.654   4.775 -2.0744 -2.4352  1.1165
  936SOL     OW12737   2.145   7.450   0.228  0.6341 -0.1229  0.5647
  936SOL    HW112738   2.173   7.418   0.142  2.5820  0.3520  0.9653
  936SOL    HW212739   2.057   7.483   0.213  1.0074  0.1626 -1.3274
  937SOL     OW12740   2.278   2.046  12.989 -0.0979  0.0592  0.5608
  937SOL    HW112741   2.190   2.013  13.010  0.1616 -1.0678 -0.0313
  937SOL    HW212742   2.290   2.024  12.896  0.2584  1.5093  0.2347
  938SOL     OW12743   4.509  10.080   4.226 -0.1128  0.2062  0.4776
  938SOL    HW112744   4.532   9.987   4.229 -1.6877 -0.1867  1.4192
  938SOL    HW212745   4.588  10.123   4.191  0.4648 -1.5135 -0.4457
  939SOL     OW12746   1.914   0.428  11.126  0.9217  0.0265  0.2075
  939SOL    HW112747   1.883   0.374  11.052  1.6495  0.0356 -0.1159
  939SOL    HW212748   1.930   0.365  11.196  0.7077 -0.0445  0.1935
  940SOL     OW12749   9.475   0.944   1.397 -0.3919  0.8571  0.3658
  940SOL    HW112750   9.571   0.943   1.406 -0.4566  0.2997  1.1148
  940SOL    HW212751   9.459   0.988   1.314  0.5435  0.5347 -0.0020
  941SOL     OW12752  11.029   0.950   5.353  0.0635  0.3534 -0.0350
  941SOL    HW112753  11.117   0.987   5.362  0.5988 -1.2828  2.4864
  941SOL    HW212754  10.973   1.009   5.404 -0.0640  0.6120 -0.4678
  942SOL     OW12755   5.031   1.733   4.487 -0.1293  0.0300  0.0255
  942SOL    HW112756   4.986   1.816   4.469  1.1636  0.4854 -1.2507
  942SOL    HW212757   5.043   1.693   4.401  1.0265 -0.5511  0.4371
  943SOL     OW12758  11.460   9.581  12.305 -0.4579 -0.3534 -0.1610
  943SOL    HW112759  11.420   9.582  12.392  2.3113  1.8311  1.2574
  943SOL    HW212760  11.439   9.666  12.267  2.1820  0.6452  0.4180
  944SOL     OW12761   5.501   8.442  10.846  0.1365 -0.2752  0.0584
  944SOL    HW112762   5.587   8.410  10.817 -0.4810 -0.1258 -2.0785
  944SOL    HW212763   5.519   8.529  10.882  0.7765  0.1595 -1.2499
  945SOL     OW12764  11.058  10.372   5.507 -0.5073 -0.2537 -0.7489
  945SOL    HW112765  11.145  10.349   5.473 -0.5637  0.6462 -1.5292
  945SOL    HW212766  11.000  10.364   5.432 -0.9633 -0.0528 -0.4163
  946SOL     OW12767   7.007   0.912   9.946  0.1602  0.2473 -0.5433
  946SOL    HW112768   7.020   1.004   9.969  0.6038  0.4981 -1.6888
  946SOL    HW212769   6.931   0.885   9.996 -1.3820  1.9054 -1.8656
  947SOL     OW12770   3.468   8.838   6.256  1.1326  0.5654  0.1340
  947SOL    HW112771   3.375   8.817   6.248  0.9598  0.8120  1.3561
  947SOL    HW212772   3.486   8.893   6.179  0.6026 -0.5570 -0.8307
  948SOL     OW12773  11.461  12.857  10.985 -0.9168  0.5917 -0.1061
  948SOL    HW112774  11.378  12.903  11.002 -0.7537  1.0378 -0.4930
  948SOL    HW212775  11.526  12.927  10.978 -0.3650  0.1959  0.9559
  949SOL     OW12776  10.619   7.266   1.313  0.0779 -0.0559  0.4912
  949SOL    HW112777  10.633   7.192   1.371 -1.1839  1.2963  2.6513
  949SOL    HW212778  10.698   7.320   1.323 -0.7410  0.9079  2.2048
  950SOL     OW12779   0.807   1.940   5.858 -0.3826 -0.7402  0.2028
  950SOL    HW112780   0.797   1.893   5.775  1.9275  1.1476 -1.2910
  950SOL    HW212781   0.885   1.902   5.898  0.2682  0.3169 -0.0062
  951SOL     OW12782   5.790   1.501  12.406 -0.2471 -0.2446  0.1719
  951SOL    HW112783   5.847   1.561  12.456  0.6425 -0.0302 -1.0519
  951SOL    HW212784   5.761   1.553  12.331 -1.8761 -0.4425  0.6371
  952SOL     OW12785  12.462  13.298  11.019  0.2337 -0.2409  0.0923
  952SOL    HW112786  12.516  13.233  11.063  1.0838 -0.1293 -0.7496
  952SOL    HW212787  12.468  13.275  10.926  1.0377  1.3503 -0.2965
  953SOL     OW12788  12.223  13.118   4.016  0.0091 -0.1933 -0.1685
  953SOL    HW112789  12.132  13.148   4.025 -0.3348 -0.6738 -1.7483
  953SOL    HW212790  12.268  13.158   4.091 -0.9487  2.1887 -0.7560
  954SOL     OW12791  11.578   2.323   6.493  0.3021  0.0700 -0.0461
  954SOL    HW112792  11.497   2.313   6.544  1.5602 -1.8956  1.6963
  954SOL    HW212793  11.558   2.394   6.431 -1.9571  1.2409  1.8525
  955SOL     OW12794   4.725   9.485  13.291 -0.3213  0.2047 -0.1957
  955SOL    HW112795   4.743   9.391  13.288 -1.0449  0.0681 -2.7521
  955SOL    HW212796   4.630   9.492  13.277 -0.4015  1.3159  0.7024
  956SOL     OW12797  12.762   0.451   4.062 -0.3863 -0.6836 -0.0047
  956SOL    HW112798  12.805   0.503   4.130  0.5234  0.7754 -1.6003
  956SOL    HW212799  12.834   0.406   4.018 -0.6243  0.3953 -1.5855
  957SOL     OW12800  11.137  11.927   2.094 -0.3788  0.2419  0.1257
  957SOL    HW112801  11.129  11.860   2.162 -0.1315  0.9171  0.8372
  957SOL    HW212802  11.230  11.950   2.093 -0.0483 -0.9097 -1.6051
  958SOL     OW12803  11.558   0.692   0.826 -0.2125 -0.1572  0.1085
  958SOL    HW112804  11.493   0.670   0.893 -1.5962  1.3446 -0.6914
  958SOL    HW212805  11.625   0.742   0.873  0.8096 -2.2981  1.0775
  959SOL     OW12806   1.721  12.367  11.664  0.2439 -0.4695  0.1525
  959SOL    HW112807   1.709  12.392  11.572  1.9884  2.2472  0.5509
  959SOL    HW212808   1.757  12.445  11.706 -2.3327 -0.9135  3.6600
  960SOL     OW12809   8.159  13.071   2.951 -0.3750  0.0908  0.0406
  960SOL    HW112810   8.184  13.046   3.040  1.8207  0.4481 -0.4250
  960SOL    HW212811   8.099  13.144   2.963 -1.9643 -1.3391  1.2528
  961SOL     OW12812   3.596   0.058   8.022 -0.5425  0.6728 -0.4733
  961SOL    HW112813   3.639   0.122   7.964  0.2188  1.0088  0.4328
  961SOL    HW212814   3.665  -0.006   8.042 -0.9687  0.2265 -0.4180
  962SOL     OW12815   1.465   7.605  10.838  0.7819  0.3130  0.0194
  962SOL    HW112816   1.511   7.639  10.914  0.5515 -1.3460  0.9609
  962SOL    HW212817   1.387   7.561  10.874 -1.8874  3.3517 -1.5134
  963SOL     OW12818   9.548   6.471   2.631 -0.4067 -0.3397  0.0292
  963SOL    HW112819   9.538   6.427   2.547  1.2379 -0.0596 -0.3433
  963SOL    HW212820   9.621   6.532   2.619 -1.5359  1.2925  1.0410
  964SOL     OW12821  10.456   2.893  12.107  0.4225  0.2669 -0.2301
  964SOL    HW112822  10.482   2.907  12.016 -2.1923  0.3672 -1.0494
  964SOL    HW212823  10.530   2.925  12.158  1.7261  0.7783 -2.3002
  965SOL     OW12824   7.047   2.671   3.949  0.1856  0.1471 -0.0690
  965SOL    HW112825   7.047   2.589   3.998 -0.1022  1.2144  1.8204
  965SOL    HW212826   7.112   2.726   3.993 -1.6363  1.9192  0.5802
  966SOL     OW12827   8.570   8.466   0.027 -0.0744  0.1182  0.0959
  966SOL    HW112828   8.526   8.458   0.112  0.4988  0.8841  0.4796
  966SOL    HW212829   8.532   8.397  -0.026 -1.8697  0.8826  0.3465
  967SOL     OW12830   5.234   9.528   6.996  0.0851  0.3730  0.3087
  967SOL    HW112831   5.293   9.558   6.927  0.5855 -0.7310  0.2314
  967SOL    HW212832   5.293   9.501   7.067 -0.4165  1.3869  1.1347
  968SOL     OW12833   3.343  10.391   0.553 -0.0132 -0.1195  0.6430
  968SOL    HW112834   3.410  10.333   0.515 -1.8678 -1.4379 -0.8429
  968SOL    HW212835   3.383  10.477   0.552  1.7515 -0.8896  0.0170
  969SOL     OW12836  11.932   5.733   4.054  0.2749 -0.0762  0.3853
  969SOL    HW112837  11.940   5.660   4.114 -1.3510 -1.0465 -0.5212
  969SOL    HW212838  11.981   5.706   3.976  0.6306  0.2991  0.4736
  970SOL     OW12839   7.371   9.543  12.264 -0.6835 -0.2504  0.2452
  970SOL    HW112840   7.347   9.598  12.189 -2.4505 -1.5690 -0.2375
  970SOL    HW212841   7.287   9.524  12.306  0.2416  0.2584  2.4582
  971SOL     OW12842   3.195   2.575   9.970 -0.1322 -0.6800  0.3790
  971SOL    HW112843   3.222   2.538   9.886  0.3868 -0.4853  0.4548
  971SOL    HW212844   3.126   2.637   9.949  0.0597 -0.5670  0.0865
  972SOL     OW12845   2.019   3.361   2.111 -0.2940  0.7262  0.0626
  972SOL    HW112846   1.924   3.371   2.121 -0.2649  1.0969 -0.0310
  972SOL    HW212847   2.032   3.267   2.096 -0.6257  0.6416  0.2964
  973SOL     OW12848   9.707  10.060   4.052 -0.6588  0.2348  0.2963
  973SOL    HW112849   9.683  10.026   3.966  0.6357 -0.8098  0.3284
  973SOL    HW212850   9.737   9.984   4.101  0.4184  1.1026  1.0377
  974SOL     OW12851   3.791   1.529   4.249  0.1767  0.5727  0.0810
  974SOL    HW112852   3.760   1.593   4.312  0.3366 -0.4400  1.2382
  974SOL    HW212853   3.880   1.557   4.227 -0.1903  1.4006 -0.3514
  975SOL     OW12854  11.514   9.717   8.861  0.1360  0.3418  0.1714
  975SOL    HW112855  11.560   9.686   8.939 -0.7834 -3.5390 -0.5897
  975SOL    HW212856  11.583   9.759   8.808  2.1171 -1.9848  0.6883
  976SOL     OW12857   2.925   9.301   3.509  0.4038 -0.1057  0.8064
  976SOL    HW112858   2.928   9.385   3.555  1.5357 -0.2235  0.9999
  976SOL    HW212859   2.837   9.268   3.525  0.2776  0.5646  1.6156
  977SOL     OW12860  11.768   5.183   2.388 -0.3256  1.0197 -0.2903
  977SOL    HW112861  11.804   5.130   2.316 -1.3192  0.4368 -0.3789
  977SOL    HW212862  11.785   5.131   2.466  1.4721  2.0138  0.0443
  978SOL     OW12863   6.202  12.802   4.112 -0.6712  0.5657 -0.1981
  978SOL    HW112864   6.258  12.769   4.041 -3.3224 -0.1673 -2.1202
  978SOL    HW212865   6.198  12.730   4.174  1.9766  1.3450  1.0329
  979SOL     OW12866   3.309   1.278   2.048 -0.9274 -0.2190  0.3273
  979SOL    HW112867   3.304   1.372   2.033 -0.8695 -0.0396  1.3565
  979SOL    HW212868   3.231   1.242   2.006 -1.3799  0.3835  0.6478
  980SOL     OW12869   6.129   8.253   7.536  0.4155 -0.4416 -0.1778
  980SOL    HW112870   6.105   8.345   7.532  1.9251 -0.0575 -0.9588
  980SOL    HW212871   6.145   8.237   7.629 -1.4784 -0.3927  0.2019
  981SOL     OW12872   7.006   8.118   2.308 -0.7021  0.2691 -0.5369
  981SOL    HW112873   7.002   8.207   2.345 -0.7170  0.9393 -2.0926
  981SOL    HW212874   7.080   8.121   2.247 -0.2731 -1.0058 -0.1158
  982SOL     OW12875   9.427   0.159   3.248 -0.4739  0.3719 -0.7247
  982SOL    HW112876   9.356   0.201   3.296 -0.8480 -1.7135  0.6770
  982SOL    HW212877   9.507   0.194   3.286 -0.7577  0.9132 -0.6250
  983SOL     OW12878  11.513   9.554   0.667 -0.0454  0.1913  0.2025
  983SOL    HW112879  11.508   9.465   0.634 -0.3554 -1.2730  3.7767
  983SOL    HW212880  11.599   9.560   0.708 -0.7551  0.8387  1.6788
  984SOL     OW12881   2.275   2.974  13.115 -0.4463 -0.4171  0.5723
  984SOL    HW112882   2.271   3.059  13.158 -0.2483 -1.4252  2.6740
  984SOL    HW212883   2.327   2.919  13.173 -1.0978 -2.1747 -0.4149
  985SOL     OW12884  10.316   2.688   0.195  0.0558 -0.1658 -0.3335
  985SOL    HW112885  10.387   2.634   0.229 -0.5370 -0.0286  1.2361
  985SOL    HW212886  10.328   2.773   0.238 -1.0000 -0.1241 -0.0847
  986SOL     OW12887   3.588  12.853   0.964 -0.3803  0.2100  0.3559
  986SOL    HW112888   3.518  12.875   0.903 -0.8332 -0.3732  0.6648
  986SOL    HW212889   3.570  12.763   0.991  0.7083 -0.0932  0.1324
  987SOL     OW12890  12.520   4.141   8.605 -0.2755  0.1810 -0.8571
  987SOL    HW112891  12.597   4.192   8.578 -0.5034  0.9166 -0.1611
  987SOL    HW212892  12.476   4.197   8.669 -0.5593 -0.8903 -0.0928
  988SOL     OW12893   7.794  12.301   3.537 -0.3137 -0.0168  0.1578
  988SOL    HW112894   7.721  12.337   3.487 -1.5271 -1.6040  0.6939
  988SOL    HW212895   7.826  12.228   3.484  0.0308 -0.1386  0.5213
  989SOL     OW12896   4.846   5.708   0.116 -0.5410  0.4340  0.0387
  989SOL    HW112897   4.889   5.649   0.055 -0.4307  0.1203  0.4144
  989SOL    HW212898   4.866   5.796   0.084  1.8025  0.3600  1.1454
  990SOL     OW12899  10.511   8.275   8.423  0.6799  0.3098  0.4581
  990SOL    HW112900  10.544   8.365   8.417 -1.6838  1.1652 -0.6022
  990SOL    HW212901  10.439   8.280   8.485 -0.3801 -0.5568 -0.6611
  991SOL     OW12902   4.350   6.833   7.564 -0.4563  0.1806 -0.1673
  991SOL    HW112903   4.441   6.831   7.593 -0.7052  0.6541  0.6583
  991SOL    HW212904   4.330   6.926   7.551 -1.5765  0.3409  2.1653
  992SOL     OW12905   6.839  12.989  11.024  0.2266 -0.0019 -0.0507
  992SOL    HW112906   6.776  12.979  11.096  0.2496 -0.0613 -0.0382
  992SOL    HW212907   6.871  12.900  11.009  2.1512  0.3459  1.6118
  993SOL     OW12908   4.077   8.543  12.037  0.0789 -0.1960  0.2272
  993SOL    HW112909   4.070   8.556  12.132  0.1788  0.6546  0.1268
  993SOL    HW212910   4.036   8.621  11.999 -0.9476 -1.0329 -0.4472
  994SOL     OW12911   0.570  12.605   9.087 -0.1693 -0.8930  0.2246
  994SOL    HW112912   0.571  12.689   9.133 -0.5984 -1.9887  2.3718
  994SOL    HW212913   0.652  12.603   9.039  0.9318 -0.1876  1.9886
  995SOL     OW12914   9.566   6.686   0.373 -0.2051  0.3587  0.2709
  995SOL    HW112915   9.578   6.661   0.465 -1.8935  1.0541  0.7174
  995SOL    HW212916   9.561   6.782   0.375  1.3477  0.4969 -0.7885
  996SOL     OW12917   5.216  12.440  10.770 -0.6673  0.1866  0.4387
  996SOL    HW112918   5.272  12.501  10.818  0.2340 -0.3840  0.1322
  996SOL    HW212919   5.232  12.460  10.678  1.5252 -2.0911  0.2411
  997SOL     OW12920   2.922   2.631   4.177 -0.0975 -0.6421  0.3216
  997SOL    HW112921   2.945   2.724   4.179 -0.6223 -0.4857 -0.4193
  997SOL    HW212922   3.006   2.586   4.172  0.1249 -0.1262 -1.2567
  998SOL     OW12923   5.518   6.889   5.198 -0.1797 -0.1289 -0.5151
  998SOL    HW112924   5.515   6.794   5.198  1.2024 -0.2045 -1.9873
  998SOL    HW212925   5.610   6.911   5.186 -0.0127  1.4590  2.5190
  999SOL     OW12926   9.584  10.812  12.433  0.8070  0.4814  0.6577
  999SOL    HW112927   9.626  10.879  12.488  4.1329 -1.0427  0.2542
  999SOL    HW212928   9.616  10.830  12.345  1.0466 -1.0730  0.3988
 1000SOL     OW12929   9.775  10.301  10.513  0.0079 -0.0988 -0.1072
 1000SOL    HW112930   9.762  10.385  10.469 -3.9375 -1.4520 -2.0439
 1000SOL    HW212931   9.838  10.255  10.458 -2.6075 -0.6234 -2.9933
 1001SOL     OW12932   7.457   6.522   1.909 -0.2705  0.0784 -0.2208
 1001SOL    HW112933   7.451   6.595   1.971 -1.1017  0.1233 -0.3368
 1001SOL    HW212934   7.398   6.547   1.837  1.4779  0.5346 -1.5741
 1002SOL     OW12935   3.682   2.359   0.832 -0.1942  0.1766 -0.8118
 1002SOL    HW112936   3.764   2.319   0.805 -0.2276 -0.3839 -0.1000
 1002SOL    HW212937   3.708   2.434   0.885 -0.1406  0.5249 -1.3242
 1003SOL     OW12938   6.649   2.144   3.580 -0.0516 -0.3245 -0.6842
 1003SOL    HW112939   6.565   2.183   3.557 -0.5067  0.1889  1.5888
 1003SOL    HW212940   6.695   2.134   3.496 -1.9141  0.4187 -1.8528
 1004SOL     OW12941   8.751   1.835   2.292 -0.2493 -0.2416 -0.2781
 1004SOL    HW112942   8.831   1.819   2.243 -0.4696 -1.0967 -0.3807
 1004SOL    HW212943   8.779   1.884   2.369  0.2920 -0.0861 -0.5715
 1005SOL     OW12944   4.826   1.049   1.976  0.0191  0.2842  0.2347
 1005SOL    HW112945   4.796   1.032   2.066 -1.9499 -1.4821 -0.6603
 1005SOL    HW212946   4.916   1.015   1.974 -0.1638 -0.3315  1.3598
 1006SOL     OW12947   4.054   1.703   2.356  0.1693  0.2537  0.2815
 1006SOL    HW112948   4.011   1.631   2.402 -0.1476  0.5942  0.5344
 1006SOL    HW212949   3.989   1.735   2.294 -0.1241  1.0617  0.9771
 1007SOL     OW12950   9.463   5.447   0.758  0.4191 -0.0484  0.2541
 1007SOL    HW112951   9.509   5.363   0.749 -1.6430 -1.5399  2.2227
 1007SOL    HW212952   9.519   5.510   0.714  2.8513 -2.1912  0.0197
 1008SOL     OW12953   9.599   9.056   0.223  0.0356  0.0144  0.5200
 1008SOL    HW112954   9.506   9.072   0.240 -0.2254  0.3275 -1.0790
 1008SOL    HW212955   9.623   8.987   0.285 -1.5393 -0.8267  0.2440
 1009SOL     OW12956   6.339   1.355   4.672 -0.5259  0.0804  0.0603
 1009SOL    HW112957   6.433   1.356   4.686 -0.6809  1.1533  1.1431
 1009SOL    HW212958   6.302   1.320   4.753 -1.0669 -0.5686 -0.4429
 1010SOL     OW12959  11.688   3.670   8.396  0.2137  0.2820  0.2643
 1010SOL    HW112960  11.700   3.762   8.419 -1.0758  0.0737  1.9826
 1010SOL    HW212961  11.748   3.623   8.452  0.5890  0.0324 -0.3350
 1011SOL     OW12962   6.682  10.749   6.896 -0.7860 -1.0036  0.8256
 1011SOL    HW112963   6.594  10.733   6.861 -0.7720 -0.5499  0.5842
 1011SOL    HW212964   6.692  10.684   6.966 -1.4749 -0.7694  1.1381
 1012SOL     OW12965   3.654  12.706   2.241 -0.3281  0.5461 -0.1853
 1012SOL    HW112966   3.578  12.649   2.231 -0.8834  1.4276 -1.1972
 1012SOL    HW212967   3.618  12.794   2.251  0.5448  0.9277 -0.2692
 1013SOL     OW12968  11.253   4.701   9.265 -0.3457  0.2368 -0.2249
 1013SOL    HW112969  11.342   4.727   9.239 -0.3078  0.7193  0.3576
 1013SOL    HW212970  11.250   4.717   9.359 -1.3424  1.1088 -0.3878
 1014SOL     OW12971   1.636   4.597   0.478  0.4381 -0.2271  0.1268
 1014SOL    HW112972   1.674   4.570   0.561 -1.1732 -1.6142  0.4703
 1014SOL    HW212973   1.710   4.626   0.425  1.9523 -2.6068  0.8169
 1015SOL     OW12974   4.692   8.937   2.317  0.3497  0.5351  0.8827
 1015SOL    HW112975   4.782   8.947   2.348 -0.1540 -0.2204  2.6953
 1015SOL    HW212976   4.646   9.015   2.350 -0.4550 -0.8232  3.2110
 1016SOL     OW12977   6.724   4.210  12.566 -0.3082 -0.6181 -0.1661
 1016SOL    HW112978   6.636   4.203  12.602  0.2674 -1.0728  1.2182
 1016SOL    HW212979   6.741   4.125  12.526 -0.1023 -0.9320  0.5609
 1017SOL     OW12980   6.802   1.139   7.248  0.7701  0.0739  0.1005
 1017SOL    HW112981   6.892   1.111   7.267  0.8439 -1.6101 -2.2787
 1017SOL    HW212982   6.747   1.082   7.301  1.0610  0.8555  1.2780
 1018SOL     OW12983   8.054  12.409   0.190  0.0694  0.3287 -0.5801
 1018SOL    HW112984   8.027  12.499   0.174 -0.5507  0.1299 -0.6450
 1018SOL    HW212985   8.034  12.394   0.282 -2.4681 -0.6405 -1.2211
 1019SOL     OW12986  11.751   8.569  10.228 -0.3001 -0.1061  0.3325
 1019SOL    HW112987  11.715   8.655  10.249  1.1809  0.9287 -1.1738
 1019SOL    HW212988  11.845   8.577  10.244 -0.1463 -1.4877  0.2532
 1020SOL     OW12989   9.981   8.866   0.729 -0.0954  0.1339  0.0182
 1020SOL    HW112990   9.955   8.791   0.675  1.8346  0.6715 -1.8145
 1020SOL    HW212991   9.927   8.938   0.697  0.6957  0.3379 -0.9078
 1021SOL     OW12992  10.147   2.076  12.170  0.2290  0.4643 -0.1397
 1021SOL    HW112993  10.072   2.066  12.112 -1.3705  1.0810  1.6914
 1021SOL    HW212994  10.214   2.120  12.117 -0.4238 -0.6806 -2.0106
 1022SOL     OW12995   7.392   4.206  11.307 -0.9287  0.3907  0.1788
 1022SOL    HW112996   7.314   4.229  11.256 -2.3739  2.1556  2.9238
 1022SOL    HW212997   7.463   4.256  11.266 -1.5706  0.1305 -1.3210
 1023SOL     OW12998   4.100   5.590   1.295  0.2427  0.1190 -0.3949
 1023SOL    HW112999   4.085   5.545   1.212  1.3016 -0.8813 -0.0685
 1023SOL    HW213000   4.195   5.593   1.304  0.2136  2.1837 -0.2453
 1024SOL     OW13001  12.874   9.422  11.802  0.7402  0.1832 -0.0675
 1024SOL    HW113002  12.961   9.459  11.818  0.4723  0.9477 -0.3403
 1024SOL    HW213003  12.874   9.401  11.708  0.8161 -0.3292  0.0420
 1025SOL     OW13004   8.409   5.085   5.326 -0.1574 -0.2205  0.1725
 1025SOL    HW113005   8.434   5.072   5.235 -1.3988 -1.8917  0.0311
 1025SOL    HW213006   8.338   5.150   5.322 -0.3238 -0.4182 -0.0619
 1026SOL     OW13007   8.859   8.051  12.677 -0.2223 -0.2141 -0.5866
 1026SOL    HW113008   8.903   8.136  12.682 -0.3812 -0.2068  1.1924
 1026SOL    HW213009   8.881   8.007  12.759 -0.9256 -1.5196 -1.0636
 1027SOL     OW13010   1.100   7.893   0.378 -0.1322  0.4465 -0.0552
 1027SOL    HW113011   1.007   7.905   0.362 -0.0425  0.3370 -0.6573
 1027SOL    HW213012   1.106   7.878   0.473 -1.1256 -3.3291 -0.4540
 1028SOL     OW13013   8.001   9.709   2.287 -0.4101 -0.1372 -0.1875
 1028SOL    HW113014   7.964   9.757   2.213 -1.4521 -0.8496 -0.1444
 1028SOL    HW213015   7.928   9.657   2.320  0.7843 -2.0502 -0.4678
 1029SOL     OW13016  10.800   1.746   6.035 -0.0657 -0.2741  0.9132
 1029SOL    HW113017  10.866   1.799   6.080 -0.1454 -0.3600  1.1307
 1029SOL    HW213018  10.846   1.666   6.010  0.0629 -0.0910  0.5587
 1030SOL     OW13019  11.426   4.522   5.162  0.5976  0.0619 -0.2207
 1030SOL    HW113020  11.434   4.482   5.075  0.7757 -0.1050 -0.1281
 1030SOL    HW213021  11.333   4.514   5.183  0.7027 -0.7120 -0.0116
 1031SOL     OW13022  10.028   1.619   1.762  0.7424  0.2007  0.3093
 1031SOL    HW113023  10.102   1.652   1.711  0.1243  0.8465 -0.1860
 1031SOL    HW213024  10.050   1.527   1.778  0.8605 -0.0832 -1.3190
 1032SOL     OW13025   3.510   1.654  12.459  0.3540  0.4146 -0.8979
 1032SOL    HW113026   3.546   1.577  12.415  0.3971  0.3975 -0.8321
 1032SOL    HW213027   3.525   1.637  12.552  1.5027  1.0791 -0.9454
 1033SOL     OW13028  11.732   8.173   8.826 -0.3959  0.0810 -0.5907
 1033SOL    HW113029  11.671   8.104   8.801  0.4644 -0.5820 -0.9000
 1033SOL    HW213030  11.802   8.128   8.874  0.3717  0.6708 -1.1209
 1034SOL     OW13031   5.352   0.583  11.524 -0.0494 -0.6308  0.1550
 1034SOL    HW113032   5.442   0.560  11.504 -0.1787 -3.7929  2.4912
 1034SOL    HW213033   5.300   0.533  11.461 -0.2790  0.8418 -0.8943
 1035SOL     OW13034  12.277  12.346  11.146  0.2919  0.4439 -0.1743
 1035SOL    HW113035  12.316  12.285  11.083  0.6870 -1.3782  1.6950
 1035SOL    HW213036  12.338  12.419  11.149  1.2428 -0.3070 -0.5681
 1036SOL     OW13037   1.230   3.126  10.166  0.6480  0.1408 -0.0531
 1036SOL    HW113038   1.308   3.154  10.118  0.4101  0.0367 -0.5007
 1036SOL    HW213039   1.261   3.112  10.255  1.4288 -1.1605 -0.5097
 1037SOL     OW13040  11.624  12.929  12.883 -0.6221 -0.5534 -0.5624
 1037SOL    HW113041  11.560  12.999  12.898  0.1631  0.2488 -0.8343
 1037SOL    HW213042  11.704  12.961  12.925 -0.6910 -2.0759  0.8308
 1038SOL     OW13043   4.019   9.855  11.305 -0.0053 -0.4918 -0.1431
 1038SOL    HW113044   4.066   9.938  11.299  0.3798 -0.7512 -0.7195
 1038SOL    HW213045   4.046   9.819  11.390  2.1254 -1.4046 -1.1487
 1039SOL     OW13046   1.343   9.267  13.219  0.1597  0.2909  0.4283
 1039SOL    HW113047   1.411   9.218  13.267  0.1886  0.4311  0.5302
 1039SOL    HW213048   1.390   9.310  13.148  0.2509  0.7489  0.7642
 1040SOL     OW13049  11.390   4.577   3.764  0.4518 -0.0094  0.1010
 1040SOL    HW113050  11.388   4.500   3.820 -0.6549 -0.3853 -0.4245
 1040SOL    HW213051  11.422   4.544   3.680 -1.0348 -0.1360 -0.4385
 1041SOL     OW13052  12.251   8.813   3.122 -0.2730  0.4071  0.5641
 1041SOL    HW113053  12.313   8.782   3.188  0.0444  0.7038  0.4069
 1041SOL    HW213054  12.305   8.856   3.056 -0.5406 -0.2448 -0.1030
 1042SOL     OW13055   3.317   2.454   9.031  0.1712 -0.2994 -0.3092
 1042SOL    HW113056   3.240   2.400   9.016 -0.5683 -0.6793  3.7112
 1042SOL    HW213057   3.388   2.392   9.044 -0.4111 -0.4798  2.9515
 1043SOL     OW13058   8.628   7.490   7.002  0.4066  0.0661 -0.5555
 1043SOL    HW113059   8.646   7.397   7.013 -0.7112 -0.4158 -2.3578
 1043SOL    HW213060   8.714   7.529   6.988  0.8452 -0.7745 -0.2904
 1044SOL     OW13061  11.474   1.127   8.941 -0.0463 -0.1851  0.2681
 1044SOL    HW113062  11.532   1.172   8.880 -2.6321  1.2861 -1.2490
 1044SOL    HW213063  11.430   1.060   8.888 -0.1097 -0.9761  1.2775
 1045SOL     OW13064   3.510   4.516   8.154  0.4361  0.1743 -0.6825
 1045SOL    HW113065   3.570   4.576   8.198  2.0414 -1.3169 -0.7383
 1045SOL    HW213066   3.470   4.465   8.224 -0.9151  1.2658 -0.6350
 1046SOL     OW13067   0.073  12.064  11.824 -0.3580 -0.2053  0.1558
 1046SOL    HW113068   0.092  12.135  11.884  0.3270 -0.4150  0.2025
 1046SOL    HW213069  -0.023  12.059  11.821 -0.5828  2.7999 -2.2971
 1047SOL     OW13070   5.603  11.189   4.864  0.1958  0.1753  0.8741
 1047SOL    HW113071   5.552  11.108   4.855 -0.6213  0.8214 -0.9057
 1047SOL    HW213072   5.564  11.235   4.938 -0.1490 -0.4838  1.1072
 1048SOL     OW13073   7.624   1.647   3.227 -0.2900  0.1089  0.1568
 1048SOL    HW113074   7.688   1.719   3.231  0.8103 -0.6456 -1.9733
 1048SOL    HW213075   7.539   1.691   3.216  0.2625  1.1187 -0.1972
 1049SOL     OW13076   6.651  11.528   8.339 -0.4091 -0.1124 -0.3576
 1049SOL    HW113077   6.670  11.604   8.394  2.2381 -0.5094 -0.6188
 1049SOL    HW213078   6.575  11.555   8.287  0.0068  2.0809  0.0757
 1050SOL     OW13079  12.848  12.371   8.774 -0.0271 -0.0862  0.1530
 1050SOL    HW113080  12.909  12.355   8.847 -2.0008 -1.3897  1.6103
 1050SOL    HW213081  12.762  12.347   8.808 -1.3378  1.1649 -2.0070
 1051SOL     OW13082   0.599   3.793   4.447  0.3128  0.1335  0.2508
 1051SOL    HW113083   0.611   3.868   4.389  0.7722  0.4383  0.7327
 1051SOL    HW213084   0.613   3.828   4.535  1.3034 -0.6621  0.4376
 1052SOL     OW13085   9.346   9.407   6.037  0.0896 -0.0706 -0.0793
 1052SOL    HW113086   9.265   9.370   6.071  0.2109 -1.0462 -0.7944
 1052SOL    HW213087   9.344   9.499   6.062 -1.1997 -0.1017 -0.0333
 1053SOL     OW13088   7.301   4.936  10.947  0.5527  0.0559  0.2245
 1053SOL    HW113089   7.367   4.875  10.981 -0.4031 -1.0491  0.1509
 1053SOL    HW213090   7.341   5.022  10.958  2.7962 -0.6518 -1.5100
 1054SOL     OW13091   9.016   6.671   3.104 -0.0617 -0.4988 -0.1728
 1054SOL    HW113092   9.024   6.685   3.009  0.7419  0.6924  0.0512
 1054SOL    HW213093   8.922   6.659   3.118 -0.1403 -1.2955 -1.1827
 1055SOL     OW13094  11.839   1.364   5.847 -0.2478  0.0061  0.4541
 1055SOL    HW113095  11.799   1.394   5.766  1.5941  0.0103 -0.5038
 1055SOL    HW213096  11.771   1.310   5.889 -1.7215  1.1512 -0.3608
 1056SOL     OW13097   9.597   6.594   3.824 -0.0370 -0.0545  0.5252
 1056SOL    HW113098   9.630   6.505   3.827  2.6362  0.7265 -1.8688
 1056SOL    HW213099   9.553   6.601   3.739 -0.0809  0.9239  0.6092
 1057SOL     OW13100   4.147   5.790  10.177  0.2892  0.4875  0.0415
 1057SOL    HW113101   4.090   5.863  10.199  0.0506 -0.0420  1.3196
 1057SOL    HW213102   4.232   5.814  10.213  0.1883  0.1249  0.5483
 1058SOL     OW13103   9.555   6.045   1.618  0.1165  0.7760 -0.2432
 1058SOL    HW113104   9.613   5.970   1.632 -1.7213 -0.8128 -0.6721
 1058SOL    HW213105   9.589   6.113   1.676  1.5411 -0.5732  0.5766
 1059SOL     OW13106   2.358   4.692  13.304  0.2561 -0.1120 -0.3807
 1059SOL    HW113107   2.320   4.611  13.336  0.2266 -0.4311 -1.1861
 1059SOL    HW213108   2.422   4.717  13.370 -0.8656  0.0797  0.6644
 1060SOL     OW13109   0.229  10.480   0.052  0.0083 -0.1953  0.2274
 1060SOL    HW113110   0.140  10.515   0.059 -0.0951 -0.5086  0.4849
 1060SOL    HW213111   0.229  10.429  -0.029  0.1256  0.2978 -0.0874
 1061SOL     OW13112   8.537  12.398   9.070 -0.5970  0.7955 -0.4416
 1061SOL    HW113113   8.477  12.468   9.043 -2.3903 -0.9775 -1.3608
 1061SOL    HW213114   8.489  12.350   9.137 -1.1256 -1.8070 -2.5394
 1062SOL     OW13115   9.387   9.090   5.205 -0.1676  0.4930  0.7045
 1062SOL    HW113116   9.439   9.086   5.125  0.0791  0.5586  0.8574
 1062SOL    HW213117   9.453   9.094   5.275 -0.3452 -1.1607  1.0131
 1063SOL     OW13118   8.656  13.174  12.588  0.4062  0.5301 -0.1554
 1063SOL    HW113119   8.654  13.110  12.516  1.7597  1.5504 -1.1430
 1063SOL    HW213120   8.706  13.130  12.656  2.2969  0.8971 -1.2456
 1064SOL     OW13121   2.426   3.538   4.034  0.0749 -0.1303  0.3864
 1064SOL    HW113122   2.337   3.537   3.997  0.3768  0.8311 -0.4236
 1064SOL    HW213123   2.436   3.628   4.067  0.6358 -0.3330  0.7763
 1065SOL     OW13124   2.632  12.180   2.239  0.1791 -0.2824  0.5126
 1065SOL    HW113125   2.605  12.272   2.250 -1.3855 -0.3933 -1.7408
 1065SOL    HW213126   2.550  12.133   2.228  1.0711 -1.5279 -1.1193
 1066SOL     OW13127   0.085   9.764   2.548 -0.5199  0.3609 -0.4303
 1066SOL    HW113128   0.056   9.705   2.479 -1.3047  1.6137 -1.2162
 1066SOL    HW213129   0.155   9.816   2.507  0.0018  0.1488  0.1724
 1067SOL     OW13130   1.781  11.755   0.574 -0.0112  0.2967 -0.3932
 1067SOL    HW113131   1.759  11.730   0.484 -0.6423 -1.0253  0.1145
 1067SOL    HW213132   1.845  11.690   0.602  1.6092  1.7848 -0.4860
 1068SOL     OW13133   7.397   4.718   6.964  0.5231 -0.1876  0.3192
 1068SOL    HW113134   7.341   4.752   6.894  1.0810 -1.3231 -0.7110
 1068SOL    HW213135   7.468   4.673   6.918  0.9341 -0.9119  1.6164
 1069SOL     OW13136   1.783   9.515   2.776 -0.0568  0.8292 -0.0433
 1069SOL    HW113137   1.813   9.511   2.685 -0.2496 -0.0688 -0.0710
 1069SOL    HW213138   1.692   9.544   2.770  0.2849  1.9451 -0.0551
 1070SOL     OW13139   5.089   8.993   1.089 -0.3304 -0.7114 -0.3468
 1070SOL    HW113140   5.149   8.970   1.160 -0.2686 -0.6708 -0.3858
 1070SOL    HW213141   5.009   8.943   1.108  0.1158 -1.6743 -0.9162
 1071SOL     OW13142   0.139   4.129   2.520 -0.6683  0.3338  0.0558
 1071SOL    HW113143   0.108   4.040   2.540 -1.1308  0.6412  0.7516
 1071SOL    HW213144   0.073   4.186   2.559  0.6262  1.0026  1.3685
 1072SOL     OW13145   5.999   7.584   4.394 -0.0845  0.4659 -0.2480
 1072SOL    HW113146   6.027   7.553   4.308 -0.1641 -0.1285 -0.0630
 1072SOL    HW213147   5.989   7.678   4.384 -1.7417  0.2131 -1.3500
 1073SOL     OW13148   1.801   9.996   8.247 -0.3945  0.1084 -0.4252
 1073SOL    HW113149   1.768  10.011   8.159  0.9514  1.3744 -0.7571
 1073SOL    HW213150   1.724  10.006   8.303 -0.9197  1.3125 -1.3034
 1074SOL     OW13151   3.369   9.032  11.743  0.2791  0.1585  0.4115
 1074SOL    HW113152   3.451   9.002  11.784 -0.2474 -0.3222  1.1501
 1074SOL    HW213153   3.334   9.096  11.805  0.6432  1.1890 -0.4382
 1075SOL     OW13154   7.238   4.532   8.977 -0.4772 -0.0760 -0.0081
 1075SOL    HW113155   7.320   4.519   8.930  0.3697  0.5046  1.2504
 1075SOL    HW213156   7.195   4.604   8.930 -0.0090 -0.0190 -0.3564
 1076SOL     OW13157  13.252   3.402   3.939 -0.1677 -0.2714  0.0005
 1076SOL    HW113158  13.254   3.423   3.845  1.9020  0.8164  0.2406
 1076SOL    HW213159  13.163   3.370   3.954 -0.1506 -1.7961 -2.5933
 1077SOL     OW13160   4.012   6.257   1.024  0.3317 -0.0773  0.4627
 1077SOL    HW113161   3.935   6.311   1.006 -1.6867 -2.5258  1.1728
 1077SOL    HW213162   4.073   6.278   0.954 -1.4776  1.0887 -0.8560
 1078SOL     OW13163   9.253   8.881   4.010 -0.0568  0.2483 -0.4665
 1078SOL    HW113164   9.187   8.895   4.078 -0.3414 -2.4198 -0.0748
 1078SOL    HW213165   9.205   8.888   3.928 -1.0291 -2.0728 -0.1793
 1079SOL     OW13166   3.726  12.951   6.039 -0.0998 -0.2067  0.3365
 1079SOL    HW113167   3.678  12.987   5.964  1.0116  0.0662 -0.2569
 1079SOL    HW213168   3.810  12.997   6.038  1.0756 -2.2412  0.0187
 1080SOL     OW13169  11.735  12.455   5.238 -0.0578 -1.1613  0.1760
 1080SOL    HW113170  11.712  12.420   5.324 -1.4455  1.0599  0.8083
 1080SOL    HW213171  11.826  12.429   5.224  0.8909  0.0864  3.2447
 1081SOL     OW13172   4.876   0.439  10.523  0.5215 -0.2347  0.0294
 1081SOL    HW113173   4.943   0.458  10.588 -1.1576  1.9183  1.2535
 1081SOL    HW213174   4.894   0.499  10.451 -0.3392  0.7068  0.5791
 1082SOL     OW13175   1.989   1.157  10.527  0.2889 -0.2121 -0.4407
 1082SOL    HW113176   1.956   1.086  10.581 -0.3649  1.4268  1.4382
 1082SOL    HW213177   2.080   1.132  10.508 -0.0738 -1.7649 -0.2700
 1083SOL     OW13178   8.373  13.124   5.965 -0.7358  0.2003  0.3773
 1083SOL    HW113179   8.380  13.029   5.950 -0.4757  0.3226 -0.3128
 1083SOL    HW213180   8.441  13.162   5.909 -2.9111  1.0276 -1.8438
 1084SOL     OW13181   1.316  13.286   4.451 -0.2611 -0.2940  0.0666
 1084SOL    HW113182   1.242  13.232   4.478  0.7091 -1.1325  1.1765
 1084SOL    HW213183   1.384  13.223   4.425  0.7189  0.3837  0.8845
 1085SOL     OW13184  13.257   3.502  12.577 -0.0651 -0.7635 -0.1812
 1085SOL    HW113185  13.164   3.520  12.564  0.4069  2.3513  0.1156
 1085SOL    HW213186  13.299   3.534  12.497  0.8586 -1.3771  0.0396
 1086SOL     OW13187   8.757   0.378  11.149 -0.7618  0.0216 -0.2008
 1086SOL    HW113188   8.794   0.412  11.231  0.0018  0.1013 -0.5636
 1086SOL    HW213189   8.680   0.329  11.176 -1.3454  1.2285  0.4321
 1087SOL     OW13190   6.404  13.245  11.979 -0.2077 -0.5198  0.0458
 1087SOL    HW113191   6.462  13.237  12.055  0.6372  2.1621 -0.1968
 1087SOL    HW213192   6.408  13.160  11.936  3.5582 -0.5005  0.0713
 1088SOL     OW13193   0.612   9.142   5.746  0.0851 -0.4338  0.0390
 1088SOL    HW113194   0.542   9.081   5.769 -0.6861  0.6002  0.4935
 1088SOL    HW213195   0.587   9.175   5.659  0.6515 -0.9657 -0.3343
 1089SOL     OW13196   9.739  11.757   7.114  0.0560  0.1958  0.0960
 1089SOL    HW113197   9.695  11.715   7.188 -0.2798  3.1819  1.7313
 1089SOL    HW213198   9.827  11.718   7.114 -0.1210 -0.2889  1.7002
 1090SOL     OW13199   3.624   5.986   3.846 -0.3678 -0.5191 -0.2964
 1090SOL    HW113200   3.640   6.028   3.762  3.0603 -0.5667  0.2235
 1090SOL    HW213201   3.572   5.908   3.824  0.9875 -0.8702 -2.4889
 1091SOL     OW13202  10.736  10.267   6.797 -0.0085 -0.0207 -0.1981
 1091SOL    HW113203  10.733  10.353   6.756 -1.0573  0.3408  0.5973
 1091SOL    HW213204  10.645  10.242   6.809  0.2374 -0.0337  2.0274
 1092SOL     OW13205   6.163   0.979   3.757 -0.1774  0.1484  0.0043
 1092SOL    HW113206   6.194   1.037   3.688 -1.7285 -0.8867 -1.6729
 1092SOL    HW213207   6.228   0.909   3.761 -0.3382 -0.0596 -0.8132
 1093SOL     OW13208   8.759   7.794   7.933 -0.3466  0.2567  0.1650
 1093SOL    HW113209   8.830   7.751   7.980 -0.8576  0.5289  1.2098
 1093SOL    HW213210   8.679   7.754   7.968 -0.7376  0.3747 -0.5689
 1094SOL     OW13211   9.659  11.631  13.130  0.8198 -0.1945  0.7137
 1094SOL    HW113212   9.663  11.720  13.096  1.1677  0.0100  1.2757
 1094SOL    HW213213   9.566  11.609  13.129  0.4806  0.9764  2.5947
 1095SOL     OW13214  11.710   5.510   2.998  0.1065  0.3718  0.0370
 1095SOL    HW113215  11.800   5.499   3.028 -0.3620 -0.7326  1.1065
 1095SOL    HW213216  11.717   5.516   2.902  1.3365  0.7809  0.1352
 1096SOL     OW13217   7.060   3.535   1.244 -0.0962 -0.2315  0.8465
 1096SOL    HW113218   7.015   3.528   1.159 -0.3211 -1.4504  1.0454
 1096SOL    HW213219   7.008   3.481   1.303  1.1122 -0.9631  1.2911
 1097SOL     OW13220   3.993   9.518  11.410 -0.3020  0.1930 -0.1178
 1097SOL    HW113221   4.075   9.563  11.432 -1.1447  1.3085  0.8267
 1097SOL    HW213222   4.021   9.447  11.352  1.2658  0.8840 -0.2810
 1098SOL     OW13223   8.677   1.643  10.110 -0.1211 -0.0825  0.1485
 1098SOL    HW113224   8.618   1.584  10.064 -1.7128  0.3333  1.5546
 1098SOL    HW213225   8.747   1.586  10.143 -0.2131 -0.7326 -0.7644
 1099SOL     OW13226   8.365  11.813  11.859  0.2180 -0.0510 -0.3713
 1099SOL    HW113227   8.459  11.803  11.846 -0.0289  0.4363 -3.2076
 1099SOL    HW213228   8.355  11.896  11.906  1.1735  0.0409 -0.3170
 1100SOL     OW13229   8.328  10.174   9.624  0.3871  0.0706 -0.7125
 1100SOL    HW113230   8.359  10.084   9.632  0.9474  0.0497 -2.6275
 1100SOL    HW213231   8.238  10.172   9.656  0.9763 -0.7558  1.0102
 1101SOL     OW13232   4.760  10.029  11.777  0.4856 -0.3905  0.2359
 1101SOL    HW113233   4.680  10.052  11.824  0.2607 -0.7789  0.0483
 1101SOL    HW213234   4.826  10.017  11.845  0.4418  0.1594  0.3750
 1102SOL     OW13235  11.169   2.228  10.255 -0.2231 -0.0036 -0.6590
 1102SOL    HW113236  11.077   2.221  10.284  0.0685  1.3168  0.7053
 1102SOL    HW213237  11.168   2.293  10.186 -0.0757  1.5612  0.7521
 1103SOL     OW13238   0.759   1.582  10.901 -0.0119 -0.2225  0.2161
 1103SOL    HW113239   0.733   1.569  10.810 -0.9460  0.7177  0.3281
 1103SOL    HW213240   0.832   1.521  10.914  2.0002  1.5235 -1.9505
 1104SOL     OW13241   2.864   5.275   9.490 -0.5294 -0.6385 -0.7365
 1104SOL    HW113242   2.802   5.309   9.426  1.9437  1.6361 -2.1057
 1104SOL    HW213243   2.834   5.312   9.574 -2.0964 -1.2187 -1.0101
 1105SOL     OW13244   9.948  11.666   7.366 -0.1943  0.4768  0.0628
 1105SOL    HW113245   9.886  11.617   7.419  0.0498  0.4426  0.3179
 1105SOL    HW213246   9.929  11.758   7.385  0.1950  0.4571  0.5603
 1106SOL     OW13247   8.037   4.635   2.647 -0.2814 -0.0138  0.0223
 1106SOL    HW113248   8.073   4.698   2.585 -0.1925  0.0645  0.1520
 1106SOL    HW213249   8.098   4.561   2.643 -0.2501  0.0102  0.0497
 1107SOL     OW13250   6.171  11.372   4.538  0.0905 -0.2197  0.5006
 1107SOL    HW113251   6.252  11.347   4.494 -0.4192 -0.0420 -0.5627
 1107SOL    HW213252   6.176  11.330   4.624  1.2092 -0.3707  0.3726
 1108SOL     OW13253   8.993  12.436  12.897  0.1082 -0.0585 -0.1633
 1108SOL    HW113254   9.005  12.467  12.808  1.9607 -0.3579 -0.0580
 1108SOL    HW213255   8.898  12.438  12.911 -0.0550  2.9524 -1.0649
 1109SOL     OW13256   4.906   1.437  11.458 -0.2356  0.1088 -0.0182
 1109SOL    HW113257   4.873   1.500  11.394  0.5533  2.0274  1.3563
 1109SOL    HW213258   4.828   1.401  11.500 -0.7166 -0.3918 -1.2843
 1110SOL     OW13259   4.936  12.277   9.624  0.2959  0.2049 -0.0054
 1110SOL    HW113260   4.994  12.201   9.631  0.9159  0.5048 -1.4967
 1110SOL    HW213261   4.985  12.348   9.666  0.6221  0.2416 -0.4402
 1111SOL     OW13262  10.119   2.861   2.208  0.0730 -0.4565  0.2324
 1111SOL    HW113263  10.092   2.909   2.129 -0.4716 -1.9880 -0.5497
 1111SOL    HW213264  10.209   2.891   2.224 -0.0942  0.4846 -0.4847
 1112SOL     OW13265  10.251  11.528  10.624 -0.0402  0.2325  0.0688
 1112SOL    HW113266  10.198  11.605  10.644 -1.0542 -0.5145  0.3811
 1112SOL    HW213267  10.336  11.545  10.665 -0.5510  0.7896  0.9245
 1113SOL     OW13268   6.900  10.936   9.891 -0.3486 -0.2910  0.1130
 1113SOL    HW113269   6.834  10.882   9.848 -0.6101 -0.2686  0.4799
 1113SOL    HW213270   6.931  10.882   9.964  0.4062 -0.5062 -0.3510
 1114SOL     OW13271  10.267   0.339  10.381 -0.0559 -0.1214 -0.2082
 1114SOL    HW113272  10.246   0.415  10.327  3.6903  1.1485 -0.1175
 1114SOL    HW213273  10.290   0.376  10.466  1.3647 -1.3771 -0.0124
 1115SOL     OW13274  11.301   3.855  12.973 -0.9352  0.3048  0.2270
 1115SOL    HW113275  11.212   3.889  12.978 -0.8550  0.5081  0.2886
 1115SOL    HW213276  11.357   3.933  12.978 -0.6711  0.0313  2.5640
 1116SOL     OW13277   5.994   1.282  12.501 -0.0899  0.4163 -0.8299
 1116SOL    HW113278   5.942   1.362  12.493 -1.4791  0.0040  2.5820
 1116SOL    HW213279   5.941   1.215  12.458 -1.9634  0.2301  1.6086
 1117SOL     OW13280   9.989   3.397   2.874 -0.1348 -0.1971  0.4204
 1117SOL    HW113281   9.898   3.375   2.897 -0.7002  2.9811  1.6924
 1117SOL    HW213282  10.023   3.441   2.952  2.8608 -1.9888  0.2829
 1118SOL     OW13283   6.130  11.996  12.374  0.0922 -0.0334  0.1752
 1118SOL    HW113284   6.127  12.071  12.433  0.2223 -0.1220  0.2946
 1118SOL    HW213285   6.076  11.929  12.417  0.0677 -0.0478  0.1228
 1119SOL     OW13286   0.499   4.660   1.145 -0.0496  0.5834  0.4722
 1119SOL    HW113287   0.562   4.602   1.188  1.5897  1.6266 -0.4095
 1119SOL    HW213288   0.415   4.615   1.155  0.9241 -1.2521  1.0213
 1120SOL     OW13289   3.783   3.139   9.246 -0.3079  0.3837 -0.0829
 1120SOL    HW113290   3.839   3.205   9.204 -0.5514 -0.1638 -1.3116
 1120SOL    HW213291   3.700   3.185   9.262 -1.2773 -0.1512 -2.9989
 1121SOL     OW13292   5.774   6.401   3.324 -0.0415 -0.8648 -0.3034
 1121SOL    HW113293   5.715   6.419   3.250 -0.8493  0.0394  0.5232
 1121SOL    HW213294   5.716   6.395   3.399  0.8217 -1.2224  0.3431
 1122SOL     OW13295  10.139   1.356   9.725  0.0556 -0.4279  0.5773
 1122SOL    HW113296  10.076   1.314   9.785  0.4121 -0.1810  1.1322
 1122SOL    HW213297  10.137   1.448   9.749  0.8130 -0.4559  0.7690
 1123SOL     OW13298  11.053   9.131   1.438 -0.7425  0.1418  0.0136
 1123SOL    HW113299  11.087   9.048   1.405 -0.4311  0.7492 -1.2731
 1123SOL    HW213300  10.993   9.107   1.508  0.9022 -1.0669  1.0711
 1124SOL     OW13301  11.724   5.000   4.425  0.1250 -0.2455 -0.4215
 1124SOL    HW113302  11.706   5.094   4.430 -0.7178 -0.2053 -2.7774
 1124SOL    HW213303  11.638   4.958   4.427  0.4499 -0.9212 -0.1895
 1125SOL     OW13304   2.342  12.623   4.917  0.2692 -0.0334  0.3839
 1125SOL    HW113305   2.284  12.636   4.842  1.3784  1.4121 -0.2579
 1125SOL    HW213306   2.391  12.544   4.896  1.3336  0.9434 -0.9569
 1126SOL     OW13307   8.689   0.776  11.375  0.8584 -0.2259  0.0831
 1126SOL    HW113308   8.746   0.837  11.421 -0.4563  0.4244  0.9057
 1126SOL    HW213309   8.728   0.690  11.389  0.4930 -0.0635  2.5006
 1127SOL     OW13310  12.321   3.243   4.840  0.2146 -0.6088 -0.4487
 1127SOL    HW113311  12.342   3.153   4.868  1.6336 -0.9645 -2.4702
 1127SOL    HW213312  12.310   3.236   4.745 -1.4561  1.0610 -0.4084
 1128SOL     OW13313   4.905   1.756  10.431  0.2464  0.0338  0.3889
 1128SOL    HW113314   5.000   1.769  10.421  0.3018  0.1427  1.0397
 1128SOL    HW213315   4.898   1.678  10.486 -0.0400  0.2058  0.5951
 1129SOL     OW13316  12.756   5.497  12.560 -0.1668  0.1085  0.7638
 1129SOL    HW113317  12.672   5.466  12.593 -0.8973  0.6563 -0.4841
 1129SOL    HW213318  12.783   5.430  12.497 -0.7742  0.9874 -0.4688
 1130SOL     OW13319   2.249   1.894   9.741 -0.3173  0.2655  0.1000
 1130SOL    HW113320   2.335   1.936   9.747 -0.6626  0.7779  2.6334
 1130SOL    HW213321   2.252   1.825   9.806 -1.9047  0.4642  0.4195
 1131SOL     OW13322  11.135   4.312  10.764  0.5386  0.4770  0.1357
 1131SOL    HW113323  11.088   4.229  10.778 -0.7203  1.3061  1.0648
 1131SOL    HW213324  11.148   4.316  10.669 -0.0879 -0.4324 -0.0032
 1132SOL     OW13325   9.866   8.198  10.728  0.8310  0.2113  0.3462
 1132SOL    HW113326   9.856   8.253  10.806  1.0225  0.9156 -0.1191
 1132SOL    HW213327   9.788   8.141  10.729  0.7105  0.3766  0.9164
 1133SOL     OW13328   2.918   3.942  13.301 -0.1383 -0.2808 -0.0527
 1133SOL    HW113329   2.969   3.942  13.220 -1.5311 -3.2902 -1.0858
 1133SOL    HW213330   2.873   3.858  13.301 -1.7486  0.4304  2.9234
 1134SOL     OW13331   5.119   6.535   9.157  0.5763 -0.2668 -0.5225
 1134SOL    HW113332   5.123   6.452   9.205  3.1531 -0.0774 -0.2782
 1134SOL    HW213333   5.160   6.599   9.215  1.2508  0.5592 -1.8505
 1135SOL     OW13334   9.930   2.318  13.287  0.0082  0.1673 -0.1279
 1135SOL    HW113335   9.929   2.376  13.363 -0.5865  1.4398 -1.0729
 1135SOL    HW213336  10.023   2.307  13.267  0.1811 -0.2981  0.8378
 1136SOL     OW13337   3.446  12.215   5.841  0.2001  0.2797 -0.0118
 1136SOL    HW113338   3.484  12.256   5.918 -0.8697  0.0331  0.6720
 1136SOL    HW213339   3.495  12.133   5.830  1.8399  1.3115 -0.9434
 1137SOL     OW13340   0.573   4.357  10.500  0.1777 -0.0709  0.1522
 1137SOL    HW113341   0.491   4.406  10.499 -0.2658 -0.7262 -2.2212
 1137SOL    HW213342   0.638   4.418  10.535 -0.5767  1.8456 -1.6593
 1138SOL     OW13343   8.868   6.283   0.170 -0.1327  0.3034 -0.3990
 1138SOL    HW113344   8.863   6.188   0.181 -0.0656  0.2837 -0.5405
 1138SOL    HW213345   8.952   6.308   0.209 -1.2068  0.6160  1.8572
 1139SOL     OW13346   6.823   6.290   0.204  0.2528 -0.3666 -1.0161
 1139SOL    HW113347   6.824   6.220   0.268  1.6932 -0.2180 -0.8499
 1139SOL    HW213348   6.762   6.260   0.136 -0.8913 -0.7469  0.1363
 1140SOL     OW13349   7.832  11.949   6.311  0.1132 -0.2225 -0.4424
 1140SOL    HW113350   7.752  11.907   6.278 -1.8043  1.8451  1.2262
 1140SOL    HW213351   7.833  11.926   6.404  1.5683 -0.3028 -0.4624
 1141SOL     OW13352   3.527   8.808   1.166  0.3447 -0.1455 -0.3850
 1141SOL    HW113353   3.534   8.845   1.254 -0.9766 -0.1047 -0.2717
 1141SOL    HW213354   3.557   8.878   1.108 -0.6607  0.5650 -0.0755
 1142SOL     OW13355   5.409   0.936  11.797 -0.1821 -0.2197 -0.1700
 1142SOL    HW113356   5.369   0.991  11.729  0.2299 -0.6127 -0.7327
 1142SOL    HW213357   5.492   0.908  11.759 -1.4300 -3.2459 -0.9134
 1143SOL     OW13358   1.775   7.837   8.783 -0.1988 -0.6759  0.5630
 1143SOL    HW113359   1.827   7.777   8.838  1.6107 -0.1828 -0.5115
 1143SOL    HW213360   1.818   7.922   8.794 -1.2402 -0.0891  0.1706
 1144SOL     OW13361   1.952   1.579   5.987 -0.4953 -0.5771  0.1872
 1144SOL    HW113362   1.967   1.579   5.893 -2.4596 -2.7134 -0.2039
 1144SOL    HW213363   1.966   1.489   6.014 -2.1973 -0.5021  1.5029
 1145SOL     OW13364   5.247   8.270   5.398  0.1346  0.8397  0.3629
 1145SOL    HW113365   5.292   8.354   5.413 -1.0569  2.1915 -2.7409
 1145SOL    HW213366   5.300   8.226   5.331 -0.7194  0.3815 -0.0279
 1146SOL     OW13367  10.820   1.559   4.238 -0.0100 -0.6007  0.2249
 1146SOL    HW113368  10.755   1.501   4.198 -1.1905  0.4617  0.5595
 1146SOL    HW213369  10.837   1.626   4.173 -2.3368  1.4458  1.5597
 1147SOL     OW13370   0.747   0.042  11.486  0.4386 -0.0842 -0.4641
 1147SOL    HW113371   0.837   0.071  11.501  0.2791 -0.2997  0.9954
 1147SOL    HW213372   0.742  -0.044  11.526 -0.6163  0.2307  0.1198
 1148SOL     OW13373   2.728   9.661   4.291 -0.7427  0.4321 -0.1389
 1148SOL    HW113374   2.689   9.574   4.296 -0.3464  0.2778  0.3638
 1148SOL    HW213375   2.698   9.706   4.370  2.2499 -0.6193  1.7721
 1149SOL     OW13376   5.984   8.861   8.518 -0.7370 -0.4009 -0.6295
 1149SOL    HW113377   5.900   8.906   8.518 -0.2650  0.6448  1.8551
 1149SOL    HW213378   5.963   8.770   8.498 -2.3861 -0.0856 -0.4571
 1150SOL     OW13379  13.015   9.065  12.399  0.4488  0.0122 -0.2690
 1150SOL    HW113380  13.076   9.117  12.347 -0.8635  0.8616 -1.0310
 1150SOL    HW213381  12.999   8.987  12.346 -1.2121  1.0687 -1.4376
 1151SOL     OW13382  12.719   5.509   6.283  0.2921  0.2898 -0.5289
 1151SOL    HW113383  12.723   5.595   6.240  0.4795  0.5899  0.0805
 1151SOL    HW213384  12.707   5.447   6.211 -1.7796  0.9794 -0.8569
 1152SOL     OW13385  12.016  11.313   6.129  0.2355 -0.5024  0.3000
 1152SOL    HW113386  11.994  11.220   6.136 -1.2584 -0.3662 -1.8644
 1152SOL    HW213387  11.961  11.346   6.058 -0.4143  2.4089  2.0043
 1153SOL     OW13388   4.088   3.044  11.530 -0.1747  0.3336 -0.1546
 1153SOL    HW113389   4.103   2.950  11.534  0.1700  0.4223  1.6561
 1153SOL    HW213390   4.003   3.056  11.573 -0.1741  0.8596 -0.2914
 1154SOL     OW13391   2.437   6.106   3.362 -0.0893  0.1979  0.2881
 1154SOL    HW113392   2.405   6.097   3.272 -0.2598  2.2954  0.0942
 1154SOL    HW213393   2.532   6.096   3.354 -0.0707  0.7121 -0.1731
 1155SOL     OW13394  12.055  12.215   9.399  0.5704 -0.1682 -0.0899
 1155SOL    HW113395  12.150  12.217   9.392  0.6746  0.0486  1.1861
 1155SOL    HW213396  12.027  12.304   9.380  0.4975 -0.5079 -1.7262
 1156SOL     OW13397   1.145   8.832   9.170  0.4670  0.2423 -0.2366
 1156SOL    HW113398   1.210   8.763   9.166 -0.8979 -1.0403 -1.2174
 1156SOL    HW213399   1.150   8.875   9.085  1.3817  1.4651  0.4043
 1157SOL     OW13400   7.971  10.856   7.867  0.0696 -0.8879  0.2947
 1157SOL    HW113401   7.947  10.837   7.776 -0.8518 -0.8520  0.5196
 1157SOL    HW213402   7.945  10.778   7.915  0.8534 -1.0394  0.4920
 1158SOL     OW13403  11.686   0.247   8.908 -0.3521  0.1362 -0.1180
 1158SOL    HW113404  11.617   0.294   8.957  0.0231  0.0121  0.5446
 1158SOL    HW213405  11.642   0.168   8.877 -0.1467 -0.7187  1.6261
 1159SOL     OW13406   2.794   3.827  11.814 -0.0410  0.2913  0.5037
 1159SOL    HW113407   2.823   3.914  11.787  0.1972 -0.2555 -1.1048
 1159SOL    HW213408   2.875   3.783  11.841  0.2950 -0.3265 -1.3686
 1160SOL     OW13409  11.139  12.193   9.201 -0.5037 -0.1814  0.6056
 1160SOL    HW113410  11.064  12.138   9.224 -1.2590  0.0599 -1.1306
 1160SOL    HW213411  11.102  12.282   9.195  0.2684  0.1993  1.3090
 1161SOL     OW13412   0.429   5.382   0.426 -0.5687 -0.6392 -0.1746
 1161SOL    HW113413   0.380   5.303   0.450 -0.2575 -0.8799 -0.3117
 1161SOL    HW213414   0.369   5.454   0.442 -0.5336 -0.8304  0.8345
 1162SOL     OW13415   8.339  11.438   9.484 -0.5642  0.4289  0.5179
 1162SOL    HW113416   8.314  11.457   9.394 -0.6662  0.8890  0.6395
 1162SOL    HW213417   8.430  11.412   9.479 -0.4741  0.7722  0.3183
 1163SOL     OW13418  12.374  10.874  11.015 -0.1431  0.2001 -0.1167
 1163SOL    HW113419  12.362  10.900  11.106  2.1302  1.3191 -0.0767
 1163SOL    HW213420  12.468  10.880  11.000 -0.4915  0.4250 -2.6567
 1164SOL     OW13421   9.636   8.948   7.408 -0.6220  0.2183 -0.2378
 1164SOL    HW113422   9.728   8.974   7.413 -0.1678 -1.4915  1.9493
 1164SOL    HW213423   9.597   8.979   7.489 -1.2766 -1.4228  0.1146
 1165SOL     OW13424   0.763   0.986   4.993  0.0361 -0.1044 -0.4732
 1165SOL    HW113425   0.806   0.927   4.931  0.3089 -1.1145  0.6363
 1165SOL    HW213426   0.823   0.990   5.069 -0.5796  0.5935 -0.0046
 1166SOL     OW13427   7.428  13.197   4.858 -0.0168  0.4562  0.4963
 1166SOL    HW113428   7.481  13.169   4.784  0.4799  0.1123  0.9768
 1166SOL    HW213429   7.490  13.244   4.915 -0.5551  1.4051  0.3276
 1167SOL     OW13430   6.254   8.085   4.229  1.2441 -0.1581  0.1304
 1167SOL    HW113431   6.217   8.015   4.284 -1.7178  1.3396  0.2706
 1167SOL    HW213432   6.316   8.129   4.287 -1.3085  0.9701  2.2483
 1168SOL     OW13433   2.242   5.002  11.598 -0.3993 -0.3110  0.1762
 1168SOL    HW113434   2.286   4.917  11.598 -1.0398 -0.6615 -0.7042
 1168SOL    HW213435   2.204   5.010  11.685  0.8611 -0.2776  0.7417
 1169SOL     OW13436  10.291  10.121   7.662  0.2487  0.2577 -0.0290
 1169SOL    HW113437  10.288  10.127   7.566 -1.8559 -1.7945 -0.1795
 1169SOL    HW213438  10.307  10.028   7.680  0.4178  0.5744  1.6190
 1170SOL     OW13439   4.636   2.252  11.124  0.0447  0.1280  0.2252
 1170SOL    HW113440   4.655   2.264  11.217  0.5272  1.3522 -0.0050
 1170SOL    HW213441   4.655   2.338  11.085 -1.3920  0.0182 -0.7964
 1171SOL     OW13442  11.792  11.103  12.776 -0.1168 -0.0823 -0.6314
 1171SOL    HW113443  11.847  11.035  12.813 -0.3764 -0.4831 -0.9767
 1171SOL    HW213444  11.732  11.126  12.847 -1.0665 -1.3359 -0.9932
 1172SOL     OW13445   2.938   1.761   5.487 -0.2510 -0.1293 -0.0901
 1172SOL    HW113446   2.856   1.806   5.470  0.2465  1.0787  0.5496
 1172SOL    HW213447   2.917   1.700   5.558 -0.1858  1.6851  1.6018
 1173SOL     OW13448   9.531   1.042  13.127  0.1168  0.0985 -0.1142
 1173SOL    HW113449   9.615   1.052  13.171 -0.4368  1.7962  0.6509
 1173SOL    HW213450   9.537   1.099  13.050 -0.6344  0.9147  0.4231
 1174SOL     OW13451   7.742   1.453  11.534 -0.0586 -0.1969 -0.5296
 1174SOL    HW113452   7.741   1.377  11.476 -2.8896  0.8789 -2.1031
 1174SOL    HW213453   7.792   1.520  11.487  0.1922 -0.2476 -0.3396
 1175SOL     OW13454   6.305   1.131   5.250 -0.3280 -0.0692 -0.0095
 1175SOL    HW113455   6.358   1.106   5.174 -0.5867 -0.7411  0.0232
 1175SOL    HW213456   6.215   1.133   5.216 -0.6582 -1.9986  0.6310
 1176SOL     OW13457   2.833  13.128  12.334 -0.3237  0.1171 -0.7039
 1176SOL    HW113458   2.774  13.094  12.267 -1.2954 -0.4267  0.3832
 1176SOL    HW213459   2.913  13.149  12.287 -0.3830 -1.8012 -1.7799
 1177SOL     OW13460   4.809   7.100   7.735 -0.7159 -0.3902 -0.2603
 1177SOL    HW113461   4.724   7.118   7.776  0.0907  0.7027  1.0117
 1177SOL    HW213462   4.847   7.186   7.719  0.1489 -0.8659 -0.8434
 1178SOL     OW13463   0.478  10.643  11.761 -0.2925 -0.3950  0.6559
 1178SOL    HW113464   0.521  10.608  11.839 -0.5015  1.9167  1.9119
 1178SOL    HW213465   0.544  10.637  11.692  0.0831 -1.9865  1.1120
 1179SOL     OW13466   1.394  11.501  10.517  0.0588 -0.0775 -0.0353
 1179SOL    HW113467   1.299  11.505  10.512 -0.0429  1.2469  1.8733
 1179SOL    HW213468   1.422  11.592  10.515  1.3133 -0.4509 -0.7412
 1180SOL     OW13469   6.535  11.183   6.088  0.2536  0.0372  0.7803
 1180SOL    HW113470   6.521  11.277   6.076  0.1970 -0.0695 -0.0268
 1180SOL    HW213471   6.569  11.175   6.177  4.6969  1.3195 -0.5425
 1181SOL     OW13472   5.425   6.045   8.579 -0.3643  0.0249 -0.9463
 1181SOL    HW113473   5.521   6.046   8.587 -0.4295 -0.7833  0.0113
 1181SOL    HW213474   5.409   6.051   8.485  0.6829 -2.3719 -1.3285
 1182SOL     OW13475   0.142   7.825  13.068 -0.3062  0.8316  0.2590
 1182SOL    HW113476   0.048   7.830  13.090 -0.6424  0.2222 -0.9841
 1182SOL    HW213477   0.163   7.732  13.077 -0.2429  0.7027 -1.1033
 1183SOL     OW13478   1.820  13.243   9.844 -0.8425 -0.0076 -0.4714
 1183SOL    HW113479   1.850  13.161   9.882 -0.5083  1.5249  2.8786
 1183SOL    HW213480   1.747  13.270   9.900  0.4296  3.0029 -0.0788
 1184SOL     OW13481   5.601   7.593   3.486 -0.5531 -0.0511  0.2744
 1184SOL    HW113482   5.508   7.603   3.466 -0.3660  0.4323 -0.3721
 1184SOL    HW213483   5.625   7.675   3.529 -0.5801 -0.4503  1.0704
 1185SOL     OW13484  12.435   7.597  12.781  0.3860  0.2471  0.1489
 1185SOL    HW113485  12.367   7.554  12.730 -0.6765 -1.5780  2.8711
 1185SOL    HW213486  12.517   7.573  12.737 -0.4716 -1.1585 -0.7483
 1186SOL     OW13487   8.615  10.643   4.179  0.7580  0.3487  0.5124
 1186SOL    HW113488   8.549  10.712   4.185 -0.8296 -1.0700  0.0322
 1186SOL    HW213489   8.622  10.608   4.268  0.1457 -0.1156  0.3861
 1187SOL     OW13490  12.658   3.825   1.811 -0.6741  0.0931 -0.8500
 1187SOL    HW113491  12.659   3.731   1.826  0.7118  0.1236 -0.5371
 1187SOL    HW213492  12.569   3.845   1.783 -0.6132 -1.5292 -2.3398
 1188SOL     OW13493   0.086   9.474  12.224 -0.1780  0.4050  0.1319
 1188SOL    HW113494   0.024   9.480  12.296 -0.7085  0.5385 -0.3349
 1188SOL    HW213495   0.067   9.390  12.182 -0.3967  0.6771 -0.3281
 1189SOL     OW13496  12.222   1.142   4.480  0.2191 -0.1857  0.2575
 1189SOL    HW113497  12.244   1.150   4.573  0.4316  1.3867  0.0929
 1189SOL    HW213498  12.182   1.055   4.472  0.9842 -0.6903  1.6509
 1190SOL     OW13499   1.387  12.153   5.005  0.7474  0.1956 -0.1333
 1190SOL    HW113500   1.440  12.208   5.062  1.5554  0.4137 -1.0558
 1190SOL    HW213501   1.434  12.070   5.002  0.0491 -0.2287  0.4875
 1191SOL     OW13502   7.039   5.624  10.010  0.3481 -0.3762  0.3496
 1191SOL    HW113503   7.107   5.591   9.951  1.3507 -0.4229  1.4921
 1191SOL    HW213504   7.082   5.695  10.058 -0.2715 -0.7139  1.4222
 1192SOL     OW13505  13.010   3.563   7.974  0.5045  0.5840 -0.0019
 1192SOL    HW113506  13.046   3.504   7.908  0.6930  1.8143 -1.0248
 1192SOL    HW213507  12.937   3.514   8.013  1.5461 -0.8690  0.1912
 1193SOL     OW13508  11.380   5.143   0.012 -0.1531 -0.1869 -0.1283
 1193SOL    HW113509  11.475   5.158   0.016 -0.1102 -0.1330 -1.2411
 1193SOL    HW213510  11.372   5.047   0.016 -0.0106 -0.2269 -0.7765
 1194SOL     OW13511  10.207   6.284   2.342  0.0830 -0.6055  0.5961
 1194SOL    HW113512  10.132   6.235   2.375 -0.3509 -0.7601 -0.5880
 1194SOL    HW213513  10.265   6.218   2.304  0.9737 -0.5200  1.7525
 1195SOL     OW13514   7.853   7.876   9.166 -0.2241 -0.0617  0.3651
 1195SOL    HW113515   7.795   7.925   9.108  0.1509 -0.4609 -0.3643
 1195SOL    HW213516   7.797   7.846   9.237 -0.8608 -0.2281 -0.1925
 1196SOL     OW13517  10.768   4.224  10.927  0.4083 -0.1590 -0.7334
 1196SOL    HW113518  10.830   4.157  10.956 -0.5438 -1.0076 -0.5985
 1196SOL    HW213519  10.682   4.190  10.951 -0.1696  0.6860 -1.5072
 1197SOL     OW13520  10.636   1.719   3.341  0.4208  0.0040  0.3028
 1197SOL    HW113521  10.579   1.643   3.328 -2.0625  2.0993 -2.4783
 1197SOL    HW213522  10.592   1.771   3.408  1.5819 -0.4911  1.4768
 1198SOL     OW13523   2.711   2.665   8.403  0.4454  0.0750 -0.2413
 1198SOL    HW113524   2.803   2.646   8.425  1.0353  1.2911 -1.4712
 1198SOL    HW213525   2.716   2.709   8.318 -1.0780  1.9422  0.5514
 1199SOL     OW13526   2.476   5.795  10.391 -0.5923  0.5077  0.1620
 1199SOL    HW113527   2.485   5.890  10.380 -2.2008  0.7935  1.1199
 1199SOL    HW213528   2.397   5.773  10.342  0.1335 -0.4762 -0.6113
 1200SOL     OW13529   5.979   5.659   2.240 -0.1663  0.4126  0.7253
 1200SOL    HW113530   6.012   5.570   2.252 -0.9203  0.0692  0.3353
 1200SOL    HW213531   6.035   5.714   2.296  2.0662  0.0946 -1.0698
 1201SOL     OW13532   2.210   9.314   8.593  0.3545  0.3537  0.2062
 1201SOL    HW113533   2.285   9.337   8.647  0.8419  0.9578 -0.7088
 1201SOL    HW213534   2.219   9.220   8.578  0.6790  0.3437  0.4483
 1202SOL     OW13535   6.230   0.874   8.036  0.5055 -0.3270 -0.3791
 1202SOL    HW113536   6.228   0.919   8.120 -0.4758  1.6509 -1.4111
 1202SOL    HW213537   6.323   0.865   8.016  0.7322 -0.1605  0.5490
 1203SOL     OW13538   3.663   2.704   8.284 -0.4724  0.4084  0.2369
 1203SOL    HW113539   3.634   2.637   8.223 -0.4962  1.1060 -0.5360
 1203SOL    HW213540   3.595   2.772   8.279 -0.0317  0.8644  0.3838
 1204SOL     OW13541   5.157   1.050   7.297  0.0943 -0.1877  0.2613
 1204SOL    HW113542   5.129   0.964   7.267 -0.5476  0.4417 -1.0167
 1204SOL    HW213543   5.195   1.092   7.219 -1.7115  1.5429  0.2245
 1205SOL     OW13544  10.753   8.946   2.114  0.0467 -0.0678  0.4543
 1205SOL    HW113545  10.769   8.868   2.167  1.1172 -0.7308 -0.7953
 1205SOL    HW213546  10.820   9.008   2.143  1.0329 -0.6539 -0.5362
 1206SOL     OW13547  10.769   8.140  12.865 -0.1666 -0.0408  0.7351
 1206SOL    HW113548  10.820   8.200  12.919  0.7874 -1.0130  0.9539
 1206SOL    HW213549  10.754   8.064  12.922 -1.0447 -0.1743  0.3455
 1207SOL     OW13550   9.625   7.366   3.400 -0.0167 -0.0431  0.2306
 1207SOL    HW113551   9.678   7.358   3.321  0.2308 -0.4436  0.4351
 1207SOL    HW213552   9.546   7.316   3.381 -0.9728  1.6764 -0.6026
 1208SOL     OW13553  13.279   6.451   4.985 -0.1472  0.5483  0.1258
 1208SOL    HW113554  13.343   6.419   5.048  1.1443 -1.7993 -2.1861
 1208SOL    HW213555  13.322   6.526   4.943  0.2075  0.2879  0.0236
 1209SOL     OW13556   8.885   1.188   4.428 -0.0761  0.6703  0.2138
 1209SOL    HW113557   8.842   1.109   4.395  1.7726  0.3136 -1.5552
 1209SOL    HW213558   8.850   1.199   4.516 -1.8506 -0.9910 -0.2172
 1210SOL     OW13559  12.895   4.482   9.272 -0.2371  0.6032  0.3321
 1210SOL    HW113560  12.901   4.491   9.177  0.5172  0.1615  0.3331
 1210SOL    HW213561  12.850   4.562   9.301 -2.1899 -0.1076 -0.5709
 1211SOL     OW13562   9.944  13.110   6.346  0.1424  0.2215 -0.6313
 1211SOL    HW113563   9.951  13.085   6.254  0.7460  2.3036 -1.2078
 1211SOL    HW213564   9.850  13.119   6.362  0.0638  0.4483 -1.2261
 1212SOL     OW13565   3.296   8.273  12.817  0.1565 -0.1063 -0.2807
 1212SOL    HW113566   3.321   8.185  12.844 -1.1363 -1.5775 -3.4211
 1212SOL    HW213567   3.231   8.301  12.882 -0.0939 -1.8285  0.2655
 1213SOL     OW13568  12.710   8.129  13.138 -1.1686  0.2824  0.1304
 1213SOL    HW113569  12.734   8.193  13.071  0.1157 -1.6030 -1.3126
 1213SOL    HW213570  12.651   8.068  13.093  0.3778 -1.4995  0.3981
 1214SOL     OW13571  12.513   3.186   2.198 -0.0282  0.1324 -0.2033
 1214SOL    HW113572  12.426   3.152   2.174 -0.4020 -0.6965  2.0819
 1214SOL    HW213573  12.495   3.271   2.238  0.0106 -0.6405  1.5407
 1215SOL     OW13574  10.522   1.067   0.187 -0.1273 -0.0851 -0.0336
 1215SOL    HW113575  10.594   1.006   0.201  1.4865  1.1676 -2.3349
 1215SOL    HW213576  10.536   1.136   0.252  1.0829  0.4221 -0.8219
 1216SOL     OW13577   5.615   0.284  10.776  0.2577  0.0696  0.2327
 1216SOL    HW113578   5.548   0.289  10.707 -0.3039  0.3186  0.7919
 1216SOL    HW213579   5.638   0.192  10.780 -0.1427 -0.0400  0.1178
 1217SOL     OW13580   9.343   1.565   5.559 -0.1483 -0.0758 -0.5943
 1217SOL    HW113581   9.332   1.542   5.467 -2.5806 -1.3849 -0.0698
 1217SOL    HW213582   9.366   1.657   5.559  0.0611 -0.0991 -2.5057
 1218SOL     OW13583   9.144  11.017   0.742 -0.1258  0.0240  0.4064
 1218SOL    HW113584   9.121  10.961   0.816 -0.3629 -0.8431 -0.3092
 1218SOL    HW213585   9.168  10.957   0.672 -1.7609  0.7275 -0.8405
 1219SOL     OW13586   2.566   6.325   6.224  0.6908  0.3347  0.0742
 1219SOL    HW113587   2.646   6.345   6.274 -0.9586  1.9955  2.2740
 1219SOL    HW213588   2.590   6.250   6.170  3.6169  0.5362  0.8949
 1220SOL     OW13589  12.759  12.901   4.972 -0.3726  0.1706 -0.6403
 1220SOL    HW113590  12.810  12.853   4.907 -1.2552  0.1342 -1.3224
 1220SOL    HW213591  12.806  12.887   5.054  1.5336  1.3403 -1.4626
 1221SOL     OW13592   9.880  11.540   9.883  0.0862  0.5565  0.6729
 1221SOL    HW113593   9.914  11.495   9.806 -0.5831  0.4148  0.4496
 1221SOL    HW213594   9.785  11.540   9.870 -0.0960 -0.1265  1.8571
 1222SOL     OW13595   7.842   0.459   6.144 -0.1591 -0.0665  0.8425
 1222SOL    HW113596   7.915   0.398   6.151  0.6246  0.6380 -0.7118
 1222SOL    HW213597   7.883   0.543   6.124 -1.4458  0.0149 -1.8382
 1223SOL     OW13598   1.453   5.831   0.983  0.2957  0.8727 -0.2044
 1223SOL    HW113599   1.392   5.814   0.912  0.4646 -3.1537  0.3825
 1223SOL    HW213600   1.539   5.838   0.940  0.2274 -0.1324 -0.5157
 1224SOL     OW13601   7.478   4.970   3.090 -0.0885  0.4744  0.9137
 1224SOL    HW113602   7.406   4.973   3.027 -0.2306  1.3544  1.1112
 1224SOL    HW213603   7.540   4.908   3.052  0.6663  2.2999 -0.9866
 1225SOL     OW13604   2.854   8.719  12.883  0.1606  0.0121 -0.0269
 1225SOL    HW113605   2.907   8.639  12.882  1.1924  0.6196  1.6765
 1225SOL    HW213606   2.788   8.702  12.951 -1.5771 -0.5248 -1.7554
 1226SOL     OW13607   9.377   4.401   8.819  0.4235  0.4611 -0.7480
 1226SOL    HW113608   9.294   4.354   8.820  0.7613 -0.1499 -1.1316
 1226SOL    HW213609   9.417   4.383   8.905  0.8539 -0.5102 -1.1390
 1227SOL     OW13610  10.352   5.181   9.559 -0.3919 -0.2853  0.2003
 1227SOL    HW113611  10.342   5.123   9.483 -0.0456 -0.1938  0.0812
 1227SOL    HW213612  10.446   5.178   9.578 -0.1792  1.1604 -0.5366
 1228SOL     OW13613   1.325   7.190   1.037  0.4773 -0.4037 -0.3979
 1228SOL    HW113614   1.258   7.180   1.105 -0.8332 -0.1794 -1.5989
 1228SOL    HW213615   1.387   7.253   1.074 -1.7652  2.0501 -0.4534
 1229SOL     OW13616   2.570   7.346   5.219  0.0153 -0.2738  0.5236
 1229SOL    HW113617   2.483   7.365   5.254  0.0818  0.3643  0.3505
 1229SOL    HW213618   2.597   7.427   5.176 -0.6441 -1.4513 -2.2961
 1230SOL     OW13619   2.990   6.855  12.150 -0.1669 -0.0961  0.3201
 1230SOL    HW113620   3.067   6.820  12.105  0.5296  1.3751  0.3036
 1230SOL    HW213621   3.025   6.924  12.207 -1.3396 -0.2287  1.2389
 1231SOL     OW13622  10.425   4.052   8.248  0.4118  0.1695  0.1266
 1231SOL    HW113623  10.382   4.004   8.177  1.4327 -1.6492  0.6765
 1231SOL    HW213624  10.353   4.082   8.303 -0.2958 -0.3643 -0.4794
 1232SOL     OW13625   1.941  10.018   7.043  0.1279  0.3078 -0.2486
 1232SOL    HW113626   1.899   9.986   7.122 -0.2933  1.0398 -0.1657
 1232SOL    HW213627   2.035  10.008   7.060  0.0381  0.3600  0.3004
 1233SOL     OW13628  12.989  11.068   7.889  0.1276 -0.0389  0.7182
 1233SOL    HW113629  12.961  11.066   7.980  0.7410 -0.4970  0.9016
 1233SOL    HW213630  13.059  11.003   7.883  1.2470  1.1387  0.3156
 1234SOL     OW13631   6.097   8.748   1.564  0.3847 -0.2646 -0.0133
 1234SOL    HW113632   6.193   8.752   1.561  0.3884  0.6041  0.7603
 1234SOL    HW213633   6.077   8.713   1.651 -0.0117  0.3985  0.1661
 1235SOL     OW13634   7.472   8.665   9.355  0.1393 -0.1247 -0.8457
 1235SOL    HW113635   7.441   8.621   9.434 -1.5664  1.2195 -0.7125
 1235SOL    HW213636   7.558   8.700   9.380  0.3868 -1.1812 -0.1562
 1236SOL     OW13637  11.559   0.438   7.150 -0.3158  0.0090  0.2419
 1236SOL    HW113638  11.603   0.511   7.193 -1.0190  0.9910 -0.6692
 1236SOL    HW213639  11.512   0.477   7.077 -1.5552 -1.2064  0.3468
 1237SOL     OW13640   1.753   3.990   2.527  0.3654  0.3475 -0.2690
 1237SOL    HW113641   1.724   3.943   2.449  0.5652 -1.6010  0.7668
 1237SOL    HW213642   1.847   3.973   2.531  0.6760  1.8919 -0.5247
 1238SOL     OW13643   9.103   6.346   3.371  0.1157  0.7163  0.4994
 1238SOL    HW113644   9.067   6.319   3.286  0.2334 -1.0412  0.9697
 1238SOL    HW213645   9.135   6.435   3.356  0.7937  0.1916 -1.5099
 1239SOL     OW13646  13.207  12.884   0.837 -0.0314  0.6385  0.2251
 1239SOL    HW113647  13.165  12.924   0.913 -1.0224  1.4923 -0.7513
 1239SOL    HW213648  13.275  12.947   0.812  1.3240 -0.3423  1.2821
 1240SOL     OW13649  12.357   9.493   6.231 -0.2630  0.2547  0.4026
 1240SOL    HW113650  12.322   9.513   6.318  0.8167  1.1671  0.6433
 1240SOL    HW213651  12.281   9.498   6.174 -1.0800 -0.8038  1.3434
 1241SOL     OW13652  11.728  11.703  10.350 -0.5139 -0.3962 -0.1309
 1241SOL    HW113653  11.639  11.736  10.336 -0.3695 -0.2880 -0.8775
 1241SOL    HW213654  11.741  11.707  10.445 -0.7955  0.9660 -0.1176
 1242SOL     OW13655   1.694   2.322   9.709 -0.2826 -0.3502 -0.3081
 1242SOL    HW113656   1.707   2.318   9.804 -0.1849  0.1280 -0.3003
 1242SOL    HW213657   1.609   2.364   9.699  0.8195  2.0089 -0.4671
 1243SOL     OW13658   7.969   9.543   2.693 -0.3979  0.8654  0.1840
 1243SOL    HW113659   7.959   9.519   2.786 -0.3730  0.5678  0.1106
 1243SOL    HW213660   8.032   9.615   2.694 -0.1643  0.6580  0.3695
 1244SOL     OW13661  10.465   6.774   0.618  0.7719  0.1325  0.0017
 1244SOL    HW113662  10.505   6.700   0.664  0.1461  0.7292  1.5772
 1244SOL    HW213663  10.524   6.847   0.633  0.1553  0.5250  0.5732
 1245SOL     OW13664   3.556   8.170   8.891  0.1060 -0.3078  0.0981
 1245SOL    HW113665   3.500   8.097   8.916 -1.9115  0.5625 -1.5893
 1245SOL    HW213666   3.638   8.129   8.864  0.1592 -1.6649  2.0920
 1246SOL     OW13667   3.246   0.884   6.802  0.3608 -0.2155 -0.0828
 1246SOL    HW113668   3.285   0.957   6.850  1.6905 -0.8270 -0.1824
 1246SOL    HW213669   3.165   0.864   6.850  0.5034  0.6384  0.5491
 1247SOL     OW13670   9.737  13.082   8.444  0.2312 -0.0307 -0.0220
 1247SOL    HW113671   9.779  13.070   8.359  1.2762 -1.5997  0.6552
 1247SOL    HW213672   9.810  13.103   8.503 -0.2326 -0.6499  0.7835
 1248SOL     OW13673  10.440   4.364   6.269  0.2897  0.3112  0.3207
 1248SOL    HW113674  10.366   4.316   6.232  0.3833  0.4952 -0.1142
 1248SOL    HW213675  10.402   4.444   6.304  0.1857  0.0886  0.7259
 1249SOL     OW13676   8.705  12.383  12.885 -0.3312 -0.3753  0.3749
 1249SOL    HW113677   8.699  12.478  12.877  0.2296 -0.4582 -1.5981
 1249SOL    HW213678   8.635  12.350  12.829 -0.1615 -1.1332  0.5943
 1250SOL     OW13679   3.304   7.433   9.791  0.7839  0.1820 -0.1154
 1250SOL    HW113680   3.213   7.413   9.814  1.4231 -1.8059  0.9463
 1250SOL    HW213681   3.301   7.523   9.758 -1.4372  0.4480  0.6056
 1251SOL     OW13682   0.057   3.625  12.297  0.2258 -0.9978 -0.0455
 1251SOL    HW113683   0.130   3.669  12.342 -2.0347  1.7583  1.2091
 1251SOL    HW213684   0.095   3.542  12.267  3.5571 -0.2243  1.4902
 1252SOL     OW13685  11.569   6.733  11.855 -0.2445 -0.3564 -0.5148
 1252SOL    HW113686  11.613   6.681  11.922  2.1897  1.4090 -0.5906
 1252SOL    HW213687  11.576   6.682  11.775 -0.9297 -1.3683  0.0559
 1253SOL     OW13688   9.125   8.161  10.262 -0.0001  0.0862 -0.2157
 1253SOL    HW113689   9.195   8.096  10.262  1.4294  1.4813  1.9570
 1253SOL    HW213690   9.044   8.109  10.263  1.0545 -1.6449  0.3527
 1254SOL     OW13691   5.610   8.864   8.843  0.0423 -0.0586 -0.1765
 1254SOL    HW113692   5.673   8.840   8.910  1.3342  0.1401 -1.2628
 1254SOL    HW213693   5.564   8.783   8.822  1.1848 -0.6237 -0.6001
 1255SOL     OW13694  12.538   9.913   1.045 -0.3033  0.2602 -0.0817
 1255SOL    HW113695  12.475   9.965   0.994  1.0139  0.4042 -1.6298
 1255SOL    HW213696  12.548   9.832   0.995  2.7912  1.3408 -1.4960
 1256SOL     OW13697   6.387   1.572  10.777 -0.5594  0.2337  0.0116
 1256SOL    HW113698   6.379   1.483  10.743  1.0680  0.2182 -0.4012
 1256SOL    HW213699   6.416   1.560  10.868 -0.8953  0.3313  0.1309
 1257SOL     OW13700  12.144   2.334   9.753 -0.0579  0.2494  0.2713
 1257SOL    HW113701  12.186   2.386   9.685  0.0614  1.8554  1.5069
 1257SOL    HW213702  12.206   2.263   9.771 -0.2225 -0.3809 -1.4428
 1258SOL     OW13703   4.896   9.231   4.925  0.2199 -0.0342  0.0394
 1258SOL    HW113704   4.869   9.180   4.849  0.1014 -0.3343  0.2795
 1258SOL    HW213705   4.916   9.318   4.890 -1.9162  0.4834 -0.0165
 1259SOL     OW13706   3.043  10.130   9.051  0.2486 -0.5011 -0.1971
 1259SOL    HW113707   2.984  10.086   9.112  0.3774 -0.7953 -0.2837
 1259SOL    HW213708   3.015  10.221   9.052 -1.6262 -0.9866 -1.8769
 1260SOL     OW13709  11.601  12.559   8.765 -0.4509  0.5119  0.2895
 1260SOL    HW113710  11.675  12.499   8.776  0.6717  1.4908 -1.3554
 1260SOL    HW213711  11.561  12.564   8.851  2.2545  0.9585  1.6533
 1261SOL     OW13712   2.362   3.018   8.864 -0.4113  0.2640  0.1815
 1261SOL    HW113713   2.273   3.019   8.828 -0.0337  0.1119 -0.7573
 1261SOL    HW213714   2.351   3.051   8.953 -1.1694  2.0096 -0.5087
 1262SOL     OW13715   6.183   5.236   3.856 -0.4424  0.7616 -0.2826
 1262SOL    HW113716   6.237   5.274   3.787 -1.2447  0.8258 -0.8938
 1262SOL    HW213717   6.154   5.152   3.821  1.1285 -0.3543  0.9690
 1263SOL     OW13718  11.476   8.601   8.466  0.6217 -0.0161 -0.0457
 1263SOL    HW113719  11.493   8.511   8.492 -0.5257 -0.0997  0.4403
 1263SOL    HW213720  11.444   8.644   8.545 -0.4481  0.3740 -0.6675
 1264SOL     OW13721   1.757   1.453   7.884 -0.0906  0.1684  0.0865
 1264SOL    HW113722   1.829   1.491   7.834  0.3291  0.6213  1.0134
 1264SOL    HW213723   1.679   1.494   7.848  0.1894  0.3276 -0.3419
 1265SOL     OW13724   9.088   9.762   9.409 -0.2501  0.4845  0.3965
 1265SOL    HW113725   9.033   9.723   9.340  0.1071 -0.4698  0.6415
 1265SOL    HW213726   9.150   9.693   9.432 -0.5292  0.7035  1.8659
 1266SOL     OW13727   2.386   6.122   2.448 -0.7410 -0.1298 -0.1667
 1266SOL    HW113728   2.443   6.129   2.525  0.6204 -0.6334 -1.1026
 1266SOL    HW213729   2.309   6.174   2.472 -0.3971 -0.3398  1.5684
 1267SOL     OW13730   8.650  13.188   9.313 -0.1603 -0.1098 -0.2300
 1267SOL    HW113731   8.731  13.153   9.350 -0.4384 -0.4339  0.0748
 1267SOL    HW213732   8.604  13.226   9.388 -0.0353  0.5888 -0.4940
 1268SOL     OW13733  12.374  12.135   9.871 -0.0187 -0.0336  0.3018
 1268SOL    HW113734  12.386  12.229   9.856  4.0942 -0.4585 -0.3320
 1268SOL    HW213735  12.298  12.112   9.818 -1.4268  2.9279  0.7904
 1269SOL     OW13736  12.287   2.560   6.363 -0.1577  0.1615 -0.0673
 1269SOL    HW113737  12.312   2.544   6.454  1.5124 -0.3398 -0.5825
 1269SOL    HW213738  12.284   2.473   6.324 -0.6985  0.3936 -0.5609
 1270SOL     OW13739  10.311   9.366   1.792  0.9137  0.0928  0.2303
 1270SOL    HW113740  10.305   9.354   1.887  1.3291 -0.1620  0.2260
 1270SOL    HW213741  10.321   9.460   1.780 -0.6334  0.3062  0.3593
 1271SOL     OW13742   2.442   3.458   2.643  0.0910 -0.0540 -0.0857
 1271SOL    HW113743   2.347   3.458   2.656 -0.4191  2.9711 -2.4094
 1271SOL    HW213744   2.479   3.463   2.731 -2.0118  0.6562  0.8206
 1272SOL     OW13745  12.610   0.997  10.049 -0.3903 -0.4662  0.0629
 1272SOL    HW113746  12.561   0.995   9.967  1.8036  0.1300 -1.3510
 1272SOL    HW213747  12.638   0.906  10.063 -0.4218 -0.4957 -0.0725
 1273SOL     OW13748   3.710   1.714   7.011 -0.0270 -0.4496  0.3036
 1273SOL    HW113749   3.676   1.785   6.956  0.4027  0.0009  0.6054
 1273SOL    HW213750   3.643   1.646   7.008  0.6697 -1.1105 -2.0591
 1274SOL     OW13751  10.652   8.704   1.769  0.9000 -0.2068  0.2377
 1274SOL    HW113752  10.599   8.782   1.785  2.1526  0.7459 -0.0892
 1274SOL    HW213753  10.607   8.659   1.697 -0.3004 -0.2461  1.0028
 1275SOL     OW13754   9.458   3.357   2.481 -0.1141 -0.0320  0.1243
 1275SOL    HW113755   9.441   3.389   2.392 -1.0184 -0.1706  0.2351
 1275SOL    HW213756   9.552   3.366   2.492  0.0808 -0.4968 -1.0336
 1276SOL     OW13757   0.610   0.670  11.741 -0.3934  0.5224  0.0893
 1276SOL    HW113758   0.646   0.619  11.814  2.6400 -0.1681 -1.7158
 1276SOL    HW213759   0.544   0.613  11.703 -1.3507  0.5029  1.6835
 1277SOL     OW13760   8.130  11.954   5.600 -0.1399 -0.3805 -0.1961
 1277SOL    HW113761   8.109  11.862   5.584  1.4363 -0.8450  0.1757
 1277SOL    HW213762   8.209  11.970   5.548 -0.4217  0.7867 -0.2935
 1278SOL     OW13763   8.889  10.762   4.589 -0.3232  0.4122  0.2500
 1278SOL    HW113764   8.869  10.671   4.568 -2.5315  0.5362  1.5066
 1278SOL    HW213765   8.876  10.809   4.506  0.2119 -0.3019 -0.2527
 1279SOL     OW13766   1.287  10.290  11.598 -0.1248  0.1776  0.2737
 1279SOL    HW113767   1.324  10.207  11.567  0.5992  0.7227 -0.3642
 1279SOL    HW213768   1.193  10.275  11.599  0.0574 -1.1274  1.5686
 1280SOL     OW13769   1.111   4.668   7.783  0.2604  0.0538  0.2791
 1280SOL    HW113770   1.201   4.663   7.816  0.6016 -1.0834 -0.7276
 1280SOL    HW213771   1.114   4.738   7.718 -0.2075  1.7047  1.9627
 1281SOL     OW13772   0.937  10.443  12.677  0.7425 -0.5278 -0.0590
 1281SOL    HW113773   0.962  10.436  12.769 -0.9779 -0.1387  0.4779
 1281SOL    HW213774   0.869  10.510  12.677  0.8865 -0.3604 -1.6669
 1282SOL     OW13775   6.935   6.028   5.217  0.1645 -0.2186 -0.2320
 1282SOL    HW113776   6.883   5.980   5.152  0.3620  0.3123 -0.7977
 1282SOL    HW213777   7.020   6.042   5.174  0.7339 -0.9432  0.6193
 1283SOL     OW13778   6.442  12.067  12.334  0.1745  0.6446  0.2239
 1283SOL    HW113779   6.459  12.132  12.402  0.6128 -0.5642  1.3016
 1283SOL    HW213780   6.528  12.048  12.296  0.1019  0.4264  0.1646
 1284SOL     OW13781  10.154  10.353  10.470  0.0510 -0.2118  0.6444
 1284SOL    HW113782  10.089  10.418  10.443  0.7332  0.9933  1.8386
 1284SOL    HW213783  10.122  10.271  10.431  0.5414  1.1943 -3.1906
 1285SOL     OW13784   5.499  13.036   2.816  0.0373  0.6627  0.2246
 1285SOL    HW113785   5.477  13.104   2.880  0.5204  1.7019 -0.6704
 1285SOL    HW213786   5.475  12.954   2.859 -0.7247  1.4029  1.2756
 1286SOL     OW13787  10.253  12.941   0.762 -0.1841  0.0888  0.0021
 1286SOL    HW113788  10.161  12.960   0.782 -0.8543 -2.9577  0.4229
 1286SOL    HW213789  10.292  12.921   0.847  0.5789  0.2484 -0.3047
 1287SOL     OW13790   4.989   8.194   6.279 -0.1608  0.1829 -0.3632
 1287SOL    HW113791   4.950   8.155   6.201  0.7904 -2.2005  0.2639
 1287SOL    HW213792   5.079   8.212   6.254  0.0615 -0.3042  0.0600
 1288SOL     OW13793  10.326  12.848   9.753 -0.3514  0.7023  0.3316
 1288SOL    HW113794  10.295  12.846   9.843 -0.9087 -0.3646  0.1315
 1288SOL    HW213795  10.267  12.908   9.708 -0.0326  1.2880  0.6810
 1289SOL     OW13796   5.989   8.169  12.099  0.0187 -0.3186 -0.4459
 1289SOL    HW113797   5.966   8.200  12.012  0.5538  0.2121 -0.4049
 1289SOL    HW213798   5.905   8.148  12.140 -0.2658 -0.0796 -0.9041
 1290SOL     OW13799   8.180  10.600   6.991 -0.3267 -0.5214 -0.3094
 1290SOL    HW113800   8.229  10.593   7.073 -2.0892 -0.8098  0.7823
 1290SOL    HW213801   8.115  10.529   6.996 -0.2303 -0.7742 -2.1327
 1291SOL     OW13802   8.055   5.711   1.427 -0.3711  0.0729 -0.0950
 1291SOL    HW113803   8.033   5.713   1.334  1.6081  0.0682 -0.6127
 1291SOL    HW213804   8.100   5.794   1.443 -0.3338 -0.1052  0.7601
 1292SOL     OW13805  12.505   0.864  10.729 -0.3065 -0.0480 -0.5307
 1292SOL    HW113806  12.584   0.811  10.739 -0.6341 -0.7645 -1.5238
 1292SOL    HW213807  12.437   0.814  10.774 -0.1837  0.6260  0.4268
 1293SOL     OW13808   7.749   9.270  12.524  0.1274  0.5043 -0.1073
 1293SOL    HW113809   7.755   9.355  12.481 -1.4328  0.4068 -0.5624
 1293SOL    HW213810   7.677   9.281  12.587  1.3111  0.1551  1.3761
 1294SOL     OW13811   8.801  10.172   2.562  0.1835 -0.3314  0.3142
 1294SOL    HW113812   8.806  10.078   2.542 -3.1706 -0.6424  0.3284
 1294SOL    HW213813   8.744  10.178   2.638  0.5075  1.7502  0.4680
 1295SOL     OW13814   6.654   0.144   7.838  0.3944 -0.2640  0.1083
 1295SOL    HW113815   6.571   0.192   7.839 -0.0244 -0.9753  0.5406
 1295SOL    HW213816   6.650   0.087   7.915  0.9183 -0.9135 -0.3323
 1296SOL     OW13817   3.551   8.704   5.048 -0.0039 -0.0095  0.8896
 1296SOL    HW113818   3.645   8.696   5.066  0.0469 -0.2008  0.5521
 1296SOL    HW213819   3.541   8.794   5.015  0.0328  0.0682  1.0899
 1297SOL     OW13820   0.778   6.757   2.960  0.6751 -0.2140 -0.0129
 1297SOL    HW113821   0.732   6.728   2.882  1.9453  0.9164 -1.2205
 1297SOL    HW213822   0.790   6.677   3.012  1.3195 -1.3140 -1.7743
 1298SOL     OW13823  13.251   3.419  12.839  0.0408  0.1869 -0.1810
 1298SOL    HW113824  13.157   3.440  12.840 -0.6231 -2.4109  0.3506
 1298SOL    HW213825  13.278   3.436  12.749 -1.7521 -1.9216 -1.2244
 1299SOL     OW13826   1.685   4.669   6.114  0.1237 -0.6190  0.1847
 1299SOL    HW113827   1.616   4.610   6.143 -0.3662 -0.4351 -0.6027
 1299SOL    HW213828   1.700   4.726   6.189  0.0141 -1.1949  0.6549
 1300SOL     OW13829  12.965   7.802   6.234 -0.7104  0.7022  0.3948
 1300SOL    HW113830  12.975   7.716   6.275 -0.1457  0.0744 -1.0216
 1300SOL    HW213831  13.046   7.815   6.185 -2.1656  0.5037 -2.2050
 1301SOL     OW13832   9.022   2.430   9.755  0.2030  0.1415  0.1141
 1301SOL    HW113833   9.111   2.424   9.721  1.1159 -0.0807  2.3138
 1301SOL    HW213834   8.986   2.342   9.744 -0.5534  0.6898 -2.5797
 1302SOL     OW13835  12.741   9.412   4.922  0.1203  0.6317  0.1399
 1302SOL    HW113836  12.677   9.350   4.958 -0.5126 -0.8412 -3.1159
 1302SOL    HW213837  12.814   9.357   4.894  1.0866  1.8173  0.2611
 1303SOL     OW13838   0.443  12.401  11.210  0.3149  0.3415 -0.2860
 1303SOL    HW113839   0.408  12.368  11.293 -0.3733  0.7840 -0.3991
 1303SOL    HW213840   0.416  12.492  11.207  2.9970  1.2615  0.4834
 1304SOL     OW13841   7.706  12.108   5.263 -0.1729  0.2282  0.1885
 1304SOL    HW113842   7.711  12.188   5.315  1.5808  0.1671  0.1489
 1304SOL    HW213843   7.632  12.060   5.300 -0.6347  1.4104  0.8479
 1305SOL     OW13844   2.712  12.683   1.039 -0.0947  0.0607 -0.5134
 1305SOL    HW113845   2.670  12.712   0.958 -0.3057 -2.1010 -1.2593
 1305SOL    HW213846   2.774  12.752   1.060 -1.6377  1.7569 -1.2305
 1306SOL     OW13847   1.839   9.131   1.725 -0.3400 -0.6829 -0.5372
 1306SOL    HW113848   1.905   9.073   1.687  0.3673  0.9784 -1.9414
 1306SOL    HW213849   1.774   9.071   1.763  0.5890 -2.3812 -1.5150
 1307SOL     OW13850   0.011   6.273   9.335 -0.4639  0.0270  0.2126
 1307SOL    HW113851  -0.033   6.221   9.267  0.3695  0.6034 -0.7967
 1307SOL    HW213852   0.083   6.217   9.364 -1.9199 -1.0109  2.0245
 1308SOL     OW13853   4.921  11.547  10.792 -0.2242 -0.6403  0.3254
 1308SOL    HW113854   4.904  11.633  10.753  0.9134  0.9575  3.0451
 1308SOL    HW213855   4.844  11.495  10.770 -1.1672  1.2036 -1.0261
 1309SOL     OW13856   6.441  11.455   7.930 -0.3000 -0.5575  0.3374
 1309SOL    HW113857   6.407  11.423   8.014  0.1189 -2.0719 -0.0355
 1309SOL    HW213858   6.507  11.390   7.905  1.0843  0.9696 -0.1704
 1310SOL     OW13859   6.711   9.930   0.679 -0.5430 -0.6029 -0.0850
 1310SOL    HW113860   6.739   9.853   0.630 -1.7722 -2.4883  2.0280
 1310SOL    HW213861   6.619   9.915   0.698 -0.3144  0.4196  2.1069
 1311SOL     OW13862  11.523   1.990   1.144  0.4118  0.0622 -0.8590
 1311SOL    HW113863  11.475   1.909   1.127  2.0288 -1.0269 -0.3945
 1311SOL    HW213864  11.460   2.046   1.190 -1.1474 -0.3789 -2.3635
 1312SOL     OW13865   5.244  11.851   1.499  0.3211  0.5902  0.3922
 1312SOL    HW113866   5.316  11.888   1.550  0.2571  0.1786  0.7854
 1312SOL    HW213867   5.178  11.829   1.563 -0.1593  0.9529  0.0309
 1313SOL     OW13868   5.535   6.026   6.589  0.2158 -0.5456  0.9331
 1313SOL    HW113869   5.484   5.991   6.662 -3.1767  0.9133 -0.4953
 1313SOL    HW213870   5.572   6.108   6.622 -0.4085 -0.4200  1.3304
 1314SOL     OW13871  11.960   0.785   3.450 -0.1480 -0.4757 -0.4024
 1314SOL    HW113872  11.885   0.761   3.396 -2.0982 -0.5729  2.1424
 1314SOL    HW213873  11.928   0.777   3.540  2.9146 -0.3904  0.8127
 1315SOL     OW13874  10.116   5.126   1.308  0.5323 -0.1465 -0.5728
 1315SOL    HW113875  10.140   5.187   1.238 -0.4528  0.2760 -0.5573
 1315SOL    HW213876  10.155   5.043   1.281 -0.4613 -0.1764 -2.0167
 1316SOL     OW13877   6.695   6.500  10.623 -0.0247  0.4862 -0.5694
 1316SOL    HW113878   6.611   6.530  10.655  1.0868  1.5464  1.5538
 1316SOL    HW213879   6.674   6.435  10.556 -2.4955  0.4874  0.1360
 1317SOL     OW13880   1.757   8.530   1.889 -0.4821 -0.1714  0.4940
 1317SOL    HW113881   1.707   8.457   1.927  0.9949 -1.8176 -0.5848
 1317SOL    HW213882   1.760   8.511   1.795  4.1087 -1.5853  0.6695
 1318SOL     OW13883   4.451  12.239   6.710  0.5306  0.4355  0.3425
 1318SOL    HW113884   4.512  12.301   6.668 -0.5633  1.5407  0.3453
 1318SOL    HW213885   4.481  12.234   6.801  0.8321  0.6839  0.2606
 1319SOL     OW13886   7.666   0.631  12.386 -0.3986 -0.0096  0.4770
 1319SOL    HW113887   7.680   0.537  12.399 -0.0590 -0.3058 -1.6333
 1319SOL    HW213888   7.639   0.639  12.294 -1.1780  1.8975  0.8161
 1320SOL     OW13889   2.751   3.500   5.809  0.2030 -0.0125  0.2266
 1320SOL    HW113890   2.828   3.458   5.772  1.7112 -0.2101  3.2881
 1320SOL    HW213891   2.688   3.429   5.822 -0.4457  0.0951 -1.9663
 1321SOL     OW13892  10.678   7.174  11.984 -0.7463 -0.6759 -0.3578
 1321SOL    HW113893  10.645   7.135  12.064  0.5712 -0.9659  0.0605
 1321SOL    HW213894  10.644   7.264  11.985  0.3591 -0.2341  1.2243
 1322SOL     OW13895  11.400   6.184   3.074  0.1693 -0.8382 -0.5237
 1322SOL    HW113896  11.354   6.260   3.038 -0.7567 -0.4682  1.2957
 1322SOL    HW213897  11.484   6.218   3.103  0.1212 -0.6994 -0.5477
 1323SOL     OW13898   0.076   5.293  11.857  0.1490 -0.3302 -0.1292
 1323SOL    HW113899   0.115   5.287  11.944 -1.2833  2.3542  0.8070
 1323SOL    HW213900   0.040   5.206  11.841  1.3803 -1.1871  1.4461
 1324SOL     OW13901   2.594  10.814   3.075 -0.4222 -0.1427 -0.5070
 1324SOL    HW113902   2.552  10.753   3.014 -0.5310  0.6800 -1.2824
 1324SOL    HW213903   2.530  10.824   3.146 -0.1902 -1.3048 -0.1066
 1325SOL     OW13904   9.086   6.057   9.041 -0.0002  0.0181 -0.2247
 1325SOL    HW113905   9.110   5.993   9.108 -1.1142 -2.3148 -1.9459
 1325SOL    HW213906   8.997   6.084   9.065 -0.6678 -1.3353 -1.0845
 1326SOL     OW13907   1.048  12.062   4.013 -0.0994 -0.2723 -0.2690
 1326SOL    HW113908   1.025  12.026   3.928 -0.2976 -0.0783 -0.2980
 1326SOL    HW213909   1.142  12.045   4.022 -0.3476 -1.5304  0.0700
 1327SOL     OW13910   0.044   6.915   3.646  0.7002 -0.7878  0.4244
 1327SOL    HW113911   0.068   6.897   3.555  1.8733 -1.8305  0.9061
 1327SOL    HW213912   0.084   6.844   3.695 -0.2708 -0.4676  1.7238
 1328SOL     OW13913   1.892   8.161   5.449  0.3298 -0.0839 -0.0502
 1328SOL    HW113914   1.797   8.168   5.454  0.4637  0.8515  2.6458
 1328SOL    HW213915   1.921   8.247   5.418  0.3005 -1.0358 -3.0865
 1329SOL     OW13916   1.891   8.572  12.659 -0.5522  0.0441  0.1844
 1329SOL    HW113917   1.919   8.593  12.570  0.1332  0.7201  0.5464
 1329SOL    HW213918   1.795   8.567  12.653 -0.5847  1.0036 -0.4165
 1330SOL     OW13919   1.623   1.868  10.495  0.0128 -0.1231 -0.4074
 1330SOL    HW113920   1.621   1.903  10.406 -0.6348 -1.5212 -0.9763
 1330SOL    HW213921   1.715   1.872  10.521  0.3487 -0.5347 -1.4896
 1331SOL     OW13922   3.578  11.598  13.229  0.3204  0.4578 -0.1448
 1331SOL    HW113923   3.602  11.650  13.306  1.2715 -1.2880  0.8056
 1331SOL    HW213924   3.529  11.523  13.265 -0.0735  0.1138 -1.3428
 1332SOL     OW13925   0.266   1.485  10.986  0.0232  0.1804 -0.1279
 1332SOL    HW113926   0.277   1.423  11.058 -0.1212  0.7537  0.4017
 1332SOL    HW213927   0.233   1.565  11.028 -0.4566  0.3952 -0.8883
 1333SOL     OW13928   2.454   8.250   8.491  0.3931 -0.5606  0.2762
 1333SOL    HW113929   2.440   8.155   8.489  1.2899 -0.7198  0.8896
 1333SOL    HW213930   2.387   8.285   8.432 -0.7841 -1.4577  1.0279
 1334SOL     OW13931  10.954   4.182   1.221  0.6950  0.0708 -0.0557
 1334SOL    HW113932  10.986   4.270   1.242 -0.7561  0.9285 -1.2342
 1334SOL    HW213933  10.934   4.142   1.306 -1.1706  1.8910  0.4320
 1335SOL     OW13934  11.383  10.907  12.489 -0.1964  0.1626  0.0603
 1335SOL    HW113935  11.400  10.915  12.582 -0.0656  0.5044  0.0108
 1335SOL    HW213936  11.433  10.979  12.449 -0.0796 -0.1062 -0.2912
 1336SOL     OW13937   5.585   4.787   4.489 -0.4792  0.4175 -0.5174
 1336SOL    HW113938   5.567   4.707   4.440  0.0389  0.6070 -1.0287
 1336SOL    HW213939   5.519   4.849   4.458  0.2226  0.7236 -1.4460
 1337SOL     OW13940   4.829  12.093   1.863 -0.6216  0.3278 -0.2634
 1337SOL    HW113941   4.897  12.156   1.889  0.6759 -0.9386 -0.4311
 1337SOL    HW213942   4.788  12.133   1.786  2.0602 -0.1695 -2.1169
 1338SOL     OW13943   0.085   5.070   1.269 -0.5191  0.7875  0.4534
 1338SOL    HW113944   0.120   5.032   1.189 -0.9682  1.3736 -0.0332
 1338SOL    HW213945  -0.010   5.063   1.259 -0.5743  0.3404  1.1972
 1339SOL     OW13946   6.094  11.776   7.298  0.6681  0.3255 -0.4138
 1339SOL    HW113947   6.103  11.684   7.321  0.1702  0.5069  0.5693
 1339SOL    HW213948   6.129  11.823   7.374 -0.5580  0.9458 -0.2113
 1340SOL     OW13949   8.463   6.636   8.521 -0.2234 -0.3195 -0.1244
 1340SOL    HW113950   8.384   6.583   8.535 -2.0625  1.6404 -2.2313
 1340SOL    HW213951   8.454   6.710   8.581  0.0624 -0.1375 -0.3042
 1341SOL     OW13952   4.362   5.970   7.473  0.2293  0.0530  0.1398
 1341SOL    HW113953   4.324   5.983   7.560 -0.7367 -0.1554 -0.2369
 1341SOL    HW213954   4.397   5.881   7.475  0.6883  0.2443  0.4930
 1342SOL     OW13955   6.013   5.905  12.788 -0.0326  0.0255 -0.0005
 1342SOL    HW113956   5.965   5.876  12.866  0.3129 -0.7623 -0.0651
 1342SOL    HW213957   5.951   5.892  12.716 -0.4724  1.0773  0.1739
 1343SOL     OW13958   6.765  11.345   1.414 -0.6721  0.2659 -0.1898
 1343SOL    HW113959   6.700  11.316   1.478 -0.0120 -2.6888 -0.7112
 1343SOL    HW213960   6.737  11.304   1.332  1.1084  0.0035 -0.7071
 1344SOL     OW13961   2.747  12.702  12.615  0.0345  1.1647 -0.1306
 1344SOL    HW113962   2.800  12.778  12.593 -0.3465  1.4513 -0.0688
 1344SOL    HW213963   2.780  12.675  12.702  0.6792  0.7928 -0.4805
 1345SOL     OW13964   4.777   0.493   7.325  0.6103 -0.4257  0.4737
 1345SOL    HW113965   4.863   0.481   7.286 -0.0867 -1.9090 -0.7276
 1345SOL    HW213966   4.727   0.416   7.298 -0.5332 -0.5803  2.7375
 1346SOL     OW13967   6.340  11.022   5.985 -0.0384  0.0560 -0.1109
 1346SOL    HW113968   6.416  11.072   6.017 -1.0075  0.7060  1.2503
 1346SOL    HW213969   6.297  10.991   6.064 -0.4803 -1.4279 -0.9100
 1347SOL     OW13970   9.903   3.746   0.847 -0.1592  0.5099 -0.1182
 1347SOL    HW113971   9.869   3.835   0.841 -0.7327  0.3190  0.2268
 1347SOL    HW213972   9.837   3.691   0.806 -0.9026 -0.0091  1.6551
 1348SOL     OW13973   9.795   8.088   1.691 -0.7178 -0.2402 -1.1998
 1348SOL    HW113974   9.763   8.118   1.776  0.5007 -1.3553 -0.3179
 1348SOL    HW213975   9.722   8.038   1.654 -1.1112 -0.1051 -0.6204
 1349SOL     OW13976  11.523  10.737   7.668 -0.2693  0.1097 -0.2749
 1349SOL    HW113977  11.582  10.672   7.629  0.7483  0.5495  0.4636
 1349SOL    HW213978  11.582  10.797   7.715 -1.4021 -0.5104  2.1278
 1350SOL     OW13979  12.402   1.272   9.819  0.2408  0.5476  0.3482
 1350SOL    HW113980  12.416   1.180   9.838 -1.9430 -0.7802 -3.4091
 1350SOL    HW213981  12.321   1.294   9.866  1.1773  0.8889  1.8852
 1351SOL     OW13982   8.638   4.852   0.091  0.2746  0.0428  0.3012
 1351SOL    HW113983   8.576   4.780   0.087  0.5154 -0.1093 -1.1082
 1351SOL    HW213984   8.719   4.812   0.123 -0.0601  0.0468  1.1786
 1352SOL     OW13985   0.847   1.933   3.678  0.5727 -0.1390 -0.2310
 1352SOL    HW113986   0.936   1.903   3.657  1.5632  1.9908  0.6406
 1352SOL    HW213987   0.853   2.029   3.678 -1.8292  0.0700 -0.4952
 1353SOL     OW13988   8.292   7.408   7.163  0.1137  0.4114  0.5230
 1353SOL    HW113989   8.289   7.327   7.111 -1.2857  1.9198 -1.9146
 1353SOL    HW213990   8.381   7.439   7.153  0.3972 -0.3198  0.6835
 1354SOL     OW13991   6.698   7.567   7.270  0.1571 -0.0733  0.1515
 1354SOL    HW113992   6.717   7.652   7.309 -2.0998  1.1256 -1.1286
 1354SOL    HW213993   6.726   7.503   7.336 -2.0707  1.7601  3.1342
 1355SOL     OW13994   0.289   3.762   9.263  0.1644  0.6060  0.0680
 1355SOL    HW113995   0.379   3.738   9.241 -0.1510 -0.1077 -0.4783
 1355SOL    HW213996   0.292   3.857   9.276  1.0517  0.5530  0.3629
 1356SOL     OW13997   5.102  13.076   2.704 -0.3053 -0.3337 -0.1069
 1356SOL    HW113998   5.082  13.158   2.750  2.1725 -0.0787  0.6289
 1356SOL    HW213999   5.105  13.100   2.611  1.4916  0.7131  0.1792
 1357SOL     OW14000   0.820   2.270   3.965  0.1315  0.2947  0.4157
 1357SOL    HW114001   0.857   2.191   3.926 -0.8293 -1.1639  2.2948
 1357SOL    HW214002   0.725   2.255   3.966 -0.1088  1.6407  0.4828
 1358SOL     OW14003   9.685  10.360   3.991 -0.4392  0.3453 -0.0228
 1358SOL    HW114004   9.625  10.372   4.065 -0.7560  1.6598 -0.4591
 1358SOL    HW214005   9.733  10.279   4.011 -2.7352 -1.0676  0.0530
 1359SOL     OW14006  10.736   2.907   2.823 -0.0253  0.5046 -0.1611
 1359SOL    HW114007  10.722   2.876   2.734 -2.6776 -1.4430  0.8123
 1359SOL    HW214008  10.820   2.868   2.849 -0.1603 -0.4970 -1.1647
 1360SOL     OW14009   7.688   0.509   1.412 -0.3602  0.7310 -0.1042
 1360SOL    HW114010   7.626   0.512   1.486 -0.3381  2.0893 -0.1234
 1360SOL    HW214011   7.723   0.420   1.415 -1.8742  0.1118  0.2665
 1361SOL     OW14012  11.864   5.205  10.831  0.3543 -0.5468 -0.0077
 1361SOL    HW114013  11.800   5.238  10.894 -0.4370  1.3877 -1.7303
 1361SOL    HW214014  11.947   5.207  10.879 -0.3782 -0.1794  1.3074
 1362SOL     OW14015  12.873  13.251  12.972  0.2958 -0.3754  0.0117
 1362SOL    HW114016  12.864  13.159  12.946  3.0350 -1.1300  1.4062
 1362SOL    HW214017  12.862  13.251  13.067  1.5764  0.5086  0.1922
 1363SOL     OW14018   8.772  12.364   0.360 -0.0216  0.2860 -0.1218
 1363SOL    HW114019   8.678  12.355   0.344 -0.4420  1.8503  1.1419
 1363SOL    HW214020   8.802  12.428   0.296  0.4077 -0.8567 -1.1076
 1364SOL     OW14021   6.771   7.346  13.263 -0.0634 -0.0052 -0.3335
 1364SOL    HW114022   6.744   7.386  13.180 -4.1447 -0.8968  0.3638
 1364SOL    HW214023   6.742   7.408  13.330  3.5043  0.8883  0.6070
 1365SOL     OW14024  11.497  11.798   9.520  0.0460  0.4243 -0.0026
 1365SOL    HW114025  11.530  11.708   9.508 -0.7547  0.1207  0.0003
 1365SOL    HW214026  11.469  11.824   9.433 -3.1022 -0.7111  0.5371
 1366SOL     OW14027   5.823   0.131  12.455  0.0234  0.0138 -0.0145
 1366SOL    HW114028   5.814   0.115  12.361  4.3464  0.0135 -0.6078
 1366SOL    HW214029   5.883   0.204  12.462  0.5581 -0.5554  2.7617
 1367SOL     OW14030  10.709  11.726  12.000  0.3440 -0.1317  0.2817
 1367SOL    HW114031  10.783  11.775  11.964 -1.2139  2.1228 -0.0378
 1367SOL    HW214032  10.637  11.744  11.941 -0.6124 -1.9207  0.8288
 1368SOL     OW14033  13.242   7.451   2.493 -0.1156 -0.8723 -0.4164
 1368SOL    HW114034  13.157   7.439   2.534  0.0370  0.2531  0.2659
 1368SOL    HW214035  13.304   7.413   2.554 -0.0023 -0.3324 -0.1887
 1369SOL     OW14036  11.822   8.364   7.954 -0.1722  0.1737  0.2208
 1369SOL    HW114037  11.745   8.324   7.994  0.4379  0.5272  1.8356
 1369SOL    HW214038  11.853   8.299   7.891 -2.3064  0.4198 -1.1827
 1370SOL     OW14039  11.371   3.742   6.682 -0.5806  0.3251  0.5184
 1370SOL    HW114040  11.392   3.652   6.706  0.0131  0.8838  2.2815
 1370SOL    HW214041  11.318   3.735   6.602  0.8069 -1.4847 -0.3014
 1371SOL     OW14042  12.352   2.970   8.107 -0.0085  0.6420 -0.5817
 1371SOL    HW114043  12.269   2.946   8.067  0.2466  1.4559 -1.6662
 1371SOL    HW214044  12.338   2.961   8.201 -0.7539 -0.9631 -0.8259
 1372SOL     OW14045  12.362   7.547   1.959 -0.6104 -0.2717  0.4845
 1372SOL    HW114046  12.443   7.527   1.912 -0.6937  0.9611 -0.2074
 1372SOL    HW214047  12.293   7.522   1.898 -0.9213 -3.9644  2.0747
 1373SOL     OW14048   3.943   5.361   6.968  0.2518  0.0307  0.8278
 1373SOL    HW114049   4.007   5.432   6.965  0.2857  0.0045  0.9420
 1373SOL    HW214050   3.862   5.400   6.934  0.8339 -0.4606 -1.2627
 1374SOL     OW14051   4.777  11.598   5.216 -0.0407 -0.0930 -0.5172
 1374SOL    HW114052   4.761  11.632   5.128 -2.5792  0.7372  0.1847
 1374SOL    HW214053   4.723  11.519   5.222 -1.7013  1.0769  0.9704
 1375SOL     OW14054   9.381  11.040   7.482  0.1442 -0.2575 -0.4178
 1375SOL    HW114055   9.416  11.045   7.394  0.4324 -1.4571 -0.3861
 1375SOL    HW214056   9.456  11.058   7.540 -0.1348  0.9650 -0.4023
 1376SOL     OW14057   5.038   9.816   4.042 -0.0614  0.1623  0.3365
 1376SOL    HW114058   5.010   9.902   4.075 -0.2386  0.4120 -0.4353
 1376SOL    HW214059   4.985   9.753   4.090 -0.5756  0.5364  0.2664
 1377SOL     OW14060   2.617   2.585   2.786  0.0341 -0.1438 -0.1146
 1377SOL    HW114061   2.632   2.518   2.719  0.7263  1.0210 -1.1796
 1377SOL    HW214062   2.571   2.655   2.739 -1.6752 -0.2834  1.2273
 1378SOL     OW14063   3.311   1.586   9.353  0.5694 -0.5492 -0.1537
 1378SOL    HW114064   3.296   1.583   9.259  1.0771 -0.3239 -0.2481
 1378SOL    HW214065   3.234   1.631   9.389 -0.1702 -1.6452 -0.3236
 1379SOL     OW14066   0.705  12.272   8.594  0.7149 -0.1726  0.5417
 1379SOL    HW114067   0.747  12.218   8.526 -0.4556 -2.1121  1.2798
 1379SOL    HW214068   0.649  12.332   8.545  0.7806 -0.7360 -0.2507
 1380SOL     OW14069   3.826   2.887   7.733 -0.1482  0.1921 -0.3735
 1380SOL    HW114070   3.802   2.802   7.696 -2.3804  0.8935 -0.6828
 1380SOL    HW214071   3.770   2.896   7.810 -0.2938  1.5805 -0.6139
 1381SOL     OW14072   4.540  13.046   8.881 -0.2569 -0.2092  0.0465
 1381SOL    HW114073   4.557  12.998   8.800 -1.0114 -1.4808  0.6183
 1381SOL    HW214074   4.468  13.106   8.858 -0.5980 -0.6963 -0.1753
 1382SOL     OW14075   0.802  13.128  12.062  0.1528  0.1880 -0.1968
 1382SOL    HW114076   0.772  13.051  12.112  3.2201 -2.5332 -2.1603
 1382SOL    HW214077   0.870  13.167  12.117 -1.2437  1.5103  0.6926
 1383SOL     OW14078   4.761  13.109   9.080  0.5280 -0.7072 -0.4000
 1383SOL    HW114079   4.714  13.040   9.126  0.3018  0.0897  0.6024
 1383SOL    HW214080   4.714  13.118   8.997  0.1923 -1.3394 -0.2859
 1384SOL     OW14081   9.352  11.939  12.619  0.0454 -0.0416  0.4377
 1384SOL    HW114082   9.404  12.014  12.649 -1.4325  0.8300  0.8962
 1384SOL    HW214083   9.313  11.902  12.698  0.9309 -1.4715  0.2450
 1385SOL     OW14084  10.484   1.958   4.951  0.2462  0.1262  0.7044
 1385SOL    HW114085  10.541   1.997   5.017 -0.2781  1.3950  0.4326
 1385SOL    HW214086  10.471   2.027   4.886 -0.4125 -0.6239  0.0157
 1386SOL     OW14087  12.699   0.396   8.571  0.6557  0.1007  0.3193
 1386SOL    HW114088  12.690   0.492   8.567  0.6823  0.0824 -0.3573
 1386SOL    HW214089  12.791   0.381   8.592  0.2859  0.2344  2.1673
 1387SOL     OW14090   1.854   9.894   2.055  0.1117  0.2418 -0.5775
 1387SOL    HW114091   1.860   9.806   2.019  0.6248  0.3393 -0.7320
 1387SOL    HW214092   1.790   9.886   2.126  0.1486 -0.2529 -0.5957
 1388SOL     OW14093   3.021  12.921   7.814  0.2577 -0.2900 -0.2209
 1388SOL    HW114094   3.108  12.936   7.851 -0.0828  2.0004 -0.2491
 1388SOL    HW214095   2.982  13.008   7.806 -2.0375 -1.2475 -0.2639
 1389SOL     OW14096   0.109   0.470   2.040 -0.2062 -0.2148 -0.5025
 1389SOL    HW114097   0.170   0.495   2.109  0.4706 -1.2292 -0.7170
 1389SOL    HW214098   0.146   0.508   1.960 -1.2251  1.3448 -0.2800
 1390SOL     OW14099   9.382   7.803   8.252  0.4006 -0.1892  0.2883
 1390SOL    HW114100   9.391   7.731   8.315  0.6827 -2.2673 -1.9391
 1390SOL    HW214101   9.416   7.880   8.297 -0.0165 -1.4124  2.8464
 1391SOL     OW14102   4.714  12.249   1.675  0.0489 -0.0374  0.0798
 1391SOL    HW114103   4.630  12.232   1.632  0.1257 -0.2434  0.0096
 1391SOL    HW214104   4.748  12.326   1.630  0.8445 -1.1296 -1.3077
 1392SOL     OW14105   8.441  11.498   5.203  0.2143 -0.1504  0.3716
 1392SOL    HW114106   8.467  11.588   5.218  1.9984 -0.9257  2.4620
 1392SOL    HW214107   8.349  11.495   5.230 -0.0361  1.1319 -0.2651
 1393SOL     OW14108   1.324   9.947   0.347  0.6728 -0.5752 -0.4850
 1393SOL    HW114109   1.336  10.037   0.375 -1.4902  0.0344 -1.3229
 1393SOL    HW214110   1.321   9.896   0.429  1.0425  0.2363  0.0381
 1394SOL     OW14111   5.907   5.015  10.990 -0.1657 -0.3482  0.0899
 1394SOL    HW114112   5.991   5.044  10.956  1.3201 -4.1424 -0.0359
 1394SOL    HW214113   5.845   5.028  10.918  0.8536  0.2769 -0.6864
 1395SOL     OW14114   6.388   6.976   8.447 -0.4403  0.2821  0.0027
 1395SOL    HW114115   6.358   6.985   8.537 -0.3113 -1.1925  0.2261
 1395SOL    HW214116   6.355   7.054   8.402 -2.1813  0.1004  0.8833
 1396SOL     OW14117   6.875  10.592  12.685 -0.4931 -0.3800 -0.0530
 1396SOL    HW114118   6.920  10.526  12.739 -2.2233  0.4847  2.6780
 1396SOL    HW214119   6.944  10.628  12.629  1.4840 -1.3857  1.5827
 1397SOL     OW14120  10.034   0.696  11.412  0.3571 -0.0268  0.6160
 1397SOL    HW114121   9.967   0.722  11.349 -0.3414 -0.5267  1.1358
 1397SOL    HW214122  10.009   0.741  11.493  1.6918  1.2540  0.3590
 1398SOL     OW14123  11.757  12.857   3.908 -0.2003 -0.1445  0.1759
 1398SOL    HW114124  11.811  12.814   3.841  0.2675  1.1951 -0.3436
 1398SOL    HW214125  11.724  12.785   3.962  3.1069 -0.9784  1.2913
 1399SOL     OW14126   8.399   2.666   2.208  0.4065  0.3028  0.3627
 1399SOL    HW114127   8.321   2.709   2.172 -0.7099 -0.4921  1.7277
 1399SOL    HW214128   8.460   2.662   2.135 -1.0006  0.5383 -0.8751
 1400SOL     OW14129   7.726  13.035   4.823 -0.0194 -0.3354 -0.7830
 1400SOL    HW114130   7.798  13.003   4.769  1.1737 -0.1852  0.6520
 1400SOL    HW214131   7.673  12.957   4.842  1.4442 -1.0617  0.5764
 1401SOL     OW14132   5.753   2.886  12.111 -0.0639 -0.1258  0.2580
 1401SOL    HW114133   5.667   2.923  12.089 -0.0326 -0.7417 -1.0030
 1401SOL    HW214134   5.756   2.803  12.065  2.9128  1.7724 -3.5774
 1402SOL     OW14135  10.559   1.314   5.332  0.3871  0.2746 -0.7764
 1402SOL    HW114136  10.649   1.324   5.364  0.5968  1.0347 -1.5753
 1402SOL    HW214137  10.541   1.396   5.286  0.1795 -0.8431 -2.7784
 1403SOL     OW14138  10.014   9.795   4.424  0.2396  0.0377 -0.2909
 1403SOL    HW114139   9.986   9.875   4.468  0.0955  0.2955 -0.8451
 1403SOL    HW214140   9.946   9.778   4.358 -0.5373 -1.3805  0.8177
 1404SOL     OW14141  11.000   4.098  10.628 -0.3216  0.8982  0.0164
 1404SOL    HW114142  10.928   4.106  10.566 -0.2782 -2.1144 -0.5516
 1404SOL    HW214143  11.078   4.088  10.574  0.0594  0.7536  0.5733
 1405SOL     OW14144   8.546  12.167   5.906 -0.1739 -0.7543 -0.2084
 1405SOL    HW114145   8.458  12.139   5.930 -0.4386 -1.1630 -1.5788
 1405SOL    HW214146   8.534  12.247   5.856  0.1964 -0.9535 -0.6308
 1406SOL     OW14147   9.724   4.777  10.566 -0.1947  0.2957  0.5217
 1406SOL    HW114148   9.772   4.701  10.600  1.4432  1.7296  1.5853
 1406SOL    HW214149   9.792   4.837  10.537 -1.4543  1.3460 -0.3593
 1407SOL     OW14150   6.087   9.153  10.320 -0.8392 -0.8086  0.1507
 1407SOL    HW114151   6.111   9.217  10.387 -0.5415 -0.0248 -0.6921
 1407SOL    HW214152   6.157   9.158  10.256  0.4027 -3.6338  1.1643
 1408SOL     OW14153  11.835   4.367   8.347 -0.0376  0.4349 -0.5381
 1408SOL    HW114154  11.894   4.294   8.365 -2.3986 -0.9745  2.4516
 1408SOL    HW214155  11.798   4.346   8.261 -0.4640 -1.8373  0.1210
 1409SOL     OW14156   0.945   6.526   3.001 -0.6621 -0.2848  0.2337
 1409SOL    HW114157   1.030   6.540   3.043 -0.5954 -0.3649  0.1255
 1409SOL    HW214158   0.961   6.544   2.908 -0.6509 -0.7530  0.1405
 1410SOL     OW14159  12.500   2.883   7.887 -0.0417 -0.3312  0.6848
 1410SOL    HW114160  12.469   2.913   7.973 -0.0153  0.7420  0.3428
 1410SOL    HW214161  12.425   2.898   7.829  0.6649  1.1177  0.0966
 1411SOL     OW14162   2.405   2.826   3.845 -0.2671 -0.0234  0.0263
 1411SOL    HW114163   2.354   2.822   3.926  0.4135 -2.7530  0.4266
 1411SOL    HW214164   2.353   2.775   3.782 -1.2244  2.7912 -1.6104
 1412SOL     OW14165   3.683  11.701   0.159  0.0735 -0.1491 -0.4998
 1412SOL    HW114166   3.740  11.750   0.218 -0.2600 -0.5588  0.1802
 1412SOL    HW214167   3.600  11.693   0.206  0.1834 -1.5465 -0.4932
 1413SOL     OW14168   3.059   0.582  11.991  0.7626 -0.1175  0.2678
 1413SOL    HW114169   3.066   0.537  11.907 -0.1988 -0.1859  0.2143
 1413SOL    HW214170   3.118   0.534  12.049  3.0119  1.1482 -0.8426
 1414SOL     OW14171   7.136  12.003   2.514 -0.8078  0.2909 -0.4181
 1414SOL    HW114172   7.196  12.074   2.489  0.7110 -0.3358  1.2386
 1414SOL    HW214173   7.051  12.046   2.523  0.2276  2.1439  1.4035
 1415SOL     OW14174   6.857   1.677   2.097 -0.2988 -0.3302  0.1111
 1415SOL    HW114175   6.873   1.692   2.190 -0.0370 -0.1887  0.0423
 1415SOL    HW214176   6.913   1.740   2.052 -2.4704  1.5585 -0.1107
 1416SOL     OW14177   2.279   4.009   2.392 -1.2285 -0.0039  0.6890
 1416SOL    HW114178   2.367   3.990   2.360 -0.9005 -0.8367  2.0189
 1416SOL    HW214179   2.225   4.009   2.314 -0.2887 -0.9315  0.0154
 1417SOL     OW14180   3.954   3.723   8.042 -0.2646  0.1994  0.4572
 1417SOL    HW114181   3.860   3.726   8.060 -0.3000  0.3462  0.2530
 1417SOL    HW214182   3.984   3.641   8.081 -0.1664  0.9334  2.0069
 1418SOL     OW14183   0.456   2.082   2.273  0.3001 -0.1900  0.1143
 1418SOL    HW114184   0.404   2.003   2.289  0.8107 -0.5553  0.0173
 1418SOL    HW214185   0.547   2.053   2.282  0.4744  0.7713  1.7648
 1419SOL     OW14186  12.322  10.880   8.341 -0.6060  0.5547  0.1751
 1419SOL    HW114187  12.255  10.948   8.332  2.6108  3.8656 -1.9020
 1419SOL    HW214188  12.344  10.879   8.434 -1.4224  1.7190  0.4045
 1420SOL     OW14189   4.073   2.640   2.727  0.1123  0.5359 -0.6745
 1420SOL    HW114190   4.162   2.649   2.762  0.9562  1.2916 -2.8216
 1420SOL    HW214191   4.037   2.729   2.732  0.3934  0.7479 -1.9655
 1421SOL     OW14192  10.255   6.937  12.013 -0.4394  0.7431 -0.0404
 1421SOL    HW114193  10.199   6.949  11.936 -1.5010  0.6599  0.6897
 1421SOL    HW214194  10.321   6.874  11.986 -1.2614  0.1209 -0.6532
 1422SOL     OW14195   3.447   4.833   2.423  0.2853  0.3015 -0.0529
 1422SOL    HW114196   3.447   4.756   2.367 -0.1162  0.8206 -0.7887
 1422SOL    HW214197   3.536   4.868   2.417  0.6766 -0.4926  0.8563
 1423SOL     OW14198   8.147   4.748   0.955  0.7535  0.4929 -0.3804
 1423SOL    HW114199   8.242   4.745   0.939  0.6567 -1.1564 -0.7734
 1423SOL    HW214200   8.119   4.657   0.952 -0.3640  0.6084  2.8820
 1424SOL     OW14201   8.200   4.544  11.109 -0.3198  0.0329 -0.5476
 1424SOL    HW114202   8.146   4.465  11.101  1.6495 -1.4965  0.1409
 1424SOL    HW214203   8.231   4.543  11.199 -0.5521  1.8623 -0.4076
 1425SOL     OW14204  12.454   7.276  11.217  1.0573  0.3108  0.1183
 1425SOL    HW114205  12.528   7.312  11.265 -0.1087  0.5348  1.8395
 1425SOL    HW214206  12.377   7.301  11.269 -0.0445 -1.9918 -0.2783
 1426SOL     OW14207   6.376   2.186  11.929 -0.3425 -0.7441  0.0570
 1426SOL    HW114208   6.332   2.150  11.852  0.1184  0.2289 -0.6796
 1426SOL    HW214209   6.375   2.281  11.916  3.7248 -0.6586 -1.0646
 1427SOL     OW14210   2.604   1.303   8.925 -0.2985  0.0650 -0.1756
 1427SOL    HW114211   2.509   1.311   8.927 -0.3303 -0.0736 -1.0080
 1427SOL    HW214212   2.621   1.218   8.885  0.1836  1.4762 -3.2266
 1428SOL     OW14213   6.458   1.189  10.276  0.3671  0.5022 -0.0081
 1428SOL    HW114214   6.453   1.179  10.181 -1.7002  1.8808 -0.1091
 1428SOL    HW214215   6.449   1.283  10.291  1.1036  0.3655  1.5576
 1429SOL     OW14216   5.974  11.021   0.791  0.5153 -0.0014  0.7053
 1429SOL    HW114217   5.962  10.969   0.712  1.5130 -0.3506  0.7708
 1429SOL    HW214218   5.933  11.105   0.771 -1.6270 -0.9410  0.7889
 1430SOL     OW14219   3.012   5.878   2.769  0.3584 -0.1548 -0.2752
 1430SOL    HW114220   3.052   5.818   2.832  0.9514 -0.1623 -0.6593
 1430SOL    HW214221   3.018   5.833   2.685  0.1535  0.1313 -0.4462
 1431SOL     OW14222   8.443   7.581   4.778  0.3609  0.0614 -0.2883
 1431SOL    HW114223   8.372   7.645   4.776 -0.5563 -0.9660 -1.3678
 1431SOL    HW214224   8.519   7.632   4.806 -0.9273  1.0302  1.7599
 1432SOL     OW14225  12.583   3.592   7.334  0.2228 -0.9292 -0.0811
 1432SOL    HW114226  12.593   3.639   7.251  0.0327  1.2403  1.0330
 1432SOL    HW214227  12.670   3.596   7.374  0.1065 -1.2020  0.1983
 1433SOL     OW14228   0.915   3.315   1.211  0.1446  0.4685 -0.3215
 1433SOL    HW114229   0.844   3.286   1.268 -0.0700  0.4622 -0.5926
 1433SOL    HW214230   0.981   3.245   1.217 -0.2011  0.1089 -0.6697
 1434SOL     OW14231   6.379   3.565   1.840  0.1028  0.1734  0.2840
 1434SOL    HW114232   6.329   3.638   1.879  0.3836 -0.2070  1.3835
 1434SOL    HW214233   6.325   3.536   1.767  0.5996  2.3368 -1.0317
 1435SOL     OW14234   9.221   7.997   6.277 -0.1539 -0.2916  0.2019
 1435SOL    HW114235   9.216   7.903   6.259 -0.6351 -0.8625  2.8314
 1435SOL    HW214236   9.130   8.024   6.288  0.0526  0.0603  1.1806
 1436SOL     OW14237  12.593   7.364   3.905 -0.2016 -0.1006  0.1761
 1436SOL    HW114238  12.662   7.430   3.900 -0.3055 -0.0833 -1.7431
 1436SOL    HW214239  12.629   7.297   3.964  0.2521  1.2204  1.4784
 1437SOL     OW14240   3.694   0.487   8.183  0.5778  0.0595  0.1718
 1437SOL    HW114241   3.686   0.416   8.247  2.2563 -0.1641  0.1583
 1437SOL    HW214242   3.650   0.561   8.225 -1.7575 -1.0783 -0.0556
 1438SOL     OW14243  12.358  12.435  11.534 -0.2447  0.3915  0.0049
 1438SOL    HW114244  12.322  12.501  11.475 -0.4554  0.4016  0.1420
 1438SOL    HW214245  12.412  12.379  11.478 -0.9793 -0.0070 -0.3293
 1439SOL     OW14246   2.725   1.453   2.536 -0.3211  0.2083 -0.3178
 1439SOL    HW114247   2.684   1.432   2.620 -1.6138  0.9980 -0.7350
 1439SOL    HW214248   2.691   1.387   2.476 -0.1119  0.2012 -0.4283
 1440SOL     OW14249   0.418   9.030  11.961 -0.0439  0.0932  0.5076
 1440SOL    HW114250   0.346   9.087  11.990 -0.3340  0.2886 -0.5702
 1440SOL    HW214251   0.487   9.091  11.935  0.2959 -0.0871  0.9794
 1441SOL     OW14252   3.137  10.602   7.011  0.0764  0.0695 -0.7775
 1441SOL    HW114253   3.211  10.604   6.951  0.4125  1.4612 -0.3432
 1441SOL    HW214254   3.177  10.608   7.098 -0.5668  2.7269 -0.5783
 1442SOL     OW14255  10.680   4.827  12.469 -0.0009 -0.1786  0.8049
 1442SOL    HW114256  10.727   4.907  12.445  2.0290 -0.7540  2.5287
 1442SOL    HW214257  10.591   4.856  12.489  0.5972  1.6066  1.0367
 1443SOL     OW14258   0.024   8.969   9.322  0.1606  0.0905 -0.1245
 1443SOL    HW114259   0.007   8.948   9.414  0.4230  1.9493  0.3875
 1443SOL    HW214260   0.118   8.954   9.311  0.4570  1.3873  0.3919
 1444SOL     OW14261   6.949   4.165   1.071 -0.0158 -0.5313  0.4279
 1444SOL    HW114262   7.011   4.092   1.077  0.0600 -0.4662  0.4382
 1444SOL    HW214263   6.943   4.184   0.978 -1.0521 -1.4172  0.2899
 1445SOL     OW14264   5.524   1.570   4.411  0.0313  0.4487  0.1357
 1445SOL    HW114265   5.471   1.494   4.437 -0.3205  1.1370  1.5277
 1445SOL    HW214266   5.614   1.543   4.424  0.0817 -0.6268 -1.9528
 1446SOL     OW14267  12.112   2.829   2.190 -0.1356  0.1731  0.1778
 1446SOL    HW114268  12.193   2.828   2.240 -0.8102 -1.5232  1.3260
 1446SOL    HW214269  12.139   2.848   2.100  1.8244 -2.4728  0.1054
 1447SOL     OW14270  13.090   1.988   6.946  0.1186  0.5275 -0.0296
 1447SOL    HW114271  13.049   2.005   6.862 -1.8478 -2.2954  0.2310
 1447SOL    HW214272  13.156   1.921   6.928  0.2841  0.5256  0.5588
 1448SOL     OW14273   1.273   6.388   9.851 -0.1205  0.1491  0.9459
 1448SOL    HW114274   1.287   6.339   9.770 -0.4682  0.5417  0.6461
 1448SOL    HW214275   1.212   6.458   9.827  0.6039  0.9223  1.2988
 1449SOL     OW14276   1.022  10.163   0.425 -0.3240  0.1842 -0.3382
 1449SOL    HW114277   0.986  10.139   0.511 -0.3241 -0.1855 -0.4427
 1449SOL    HW214278   1.112  10.189   0.444 -0.6897  1.3249 -0.0436
 1450SOL     OW14279   5.988  10.982   8.738 -0.3320  0.5057 -0.2396
 1450SOL    HW114280   5.894  10.985   8.755 -0.5290 -1.4217 -0.7663
 1450SOL    HW214281   6.025  10.943   8.817 -0.4502 -2.0740 -1.3623
 1451SOL     OW14282   2.324   9.718   2.803  0.0398  0.4483 -0.4598
 1451SOL    HW114283   2.248   9.771   2.827  0.6513  1.7426 -1.2515
 1451SOL    HW214284   2.374   9.710   2.884 -0.1900  0.8816 -0.2678
 1452SOL     OW14285   7.465  12.359   0.437 -0.4014  0.2289 -0.5188
 1452SOL    HW114286   7.472  12.452   0.461  0.0793  0.0893 -0.0938
 1452SOL    HW214287   7.449  12.314   0.520 -0.6124 -0.0725 -0.7199
 1453SOL     OW14288  13.055  10.537   3.625 -0.1095 -0.2777  0.3284
 1453SOL    HW114289  13.006  10.504   3.550 -0.4634 -2.0884  1.3098
 1453SOL    HW214290  13.038  10.631   3.625 -5.5101 -0.9256  1.8246
 1454SOL     OW14291   5.786  12.980  11.564  0.0529 -0.1295  0.3831
 1454SOL    HW114292   5.706  13.027  11.541 -0.1090  0.5847  2.2370
 1454SOL    HW214293   5.855  13.021  11.511 -0.2192  1.7367  1.3803
 1455SOL     OW14294   3.557   4.744  12.323  0.0360  0.7350  0.1851
 1455SOL    HW114295   3.553   4.780  12.235 -1.4958 -2.0224 -0.9961
 1455SOL    HW214296   3.627   4.679  12.319 -0.1309  0.4999  0.9572
 1456SOL     OW14297   9.936  13.241  11.159  0.3337 -0.3895 -0.5899
 1456SOL    HW114298  10.030  13.257  11.173  0.5320 -1.7551 -0.1425
 1456SOL    HW214299   9.925  13.148  11.179 -1.1613 -0.2103 -0.4880
 1457SOL     OW14300   0.625  11.323   5.448 -0.0870  0.0525  0.3840
 1457SOL    HW114301   0.636  11.286   5.536 -1.6742 -0.8190  0.2356
 1457SOL    HW214302   0.566  11.263   5.403 -1.0196  1.6214 -0.5854
 1458SOL     OW14303   6.183  12.229   8.043  0.1800 -0.0907  0.0569
 1458SOL    HW114304   6.278  12.222   8.051  0.0987 -0.5730  0.6490
 1458SOL    HW214305   6.148  12.167   8.107 -0.5287 -0.7636 -0.9548
 1459SOL     OW14306   1.906   7.931   4.407 -0.1633  0.6327 -0.3334
 1459SOL    HW114307   1.828   7.880   4.386 -0.2112  1.3027 -1.8972
 1459SOL    HW214308   1.882   8.022   4.387  0.4809  1.0803  0.7861
 1460SOL     OW14309  11.756   4.691   6.340  0.6714  0.4546 -0.2633
 1460SOL    HW114310  11.680   4.749   6.334  0.3174 -0.1247 -1.9103
 1460SOL    HW214311  11.725   4.616   6.391  0.4691  0.7346  0.0251
 1461SOL     OW14312   3.557  11.326  11.010  0.5177  0.3192  0.2374
 1461SOL    HW114313   3.605  11.307  11.090  0.4904 -0.9022 -0.0160
 1461SOL    HW214314   3.475  11.365  11.041  0.9118  0.7740  0.7439
 1462SOL     OW14315   8.504   4.892   9.937  0.5906 -0.3189 -0.0592
 1462SOL    HW114316   8.531   4.958   9.874 -0.4313  0.8988  0.7118
 1462SOL    HW214317   8.469   4.820   9.884 -1.8315  1.3657 -0.9365
 1463SOL     OW14318   6.865  12.916   7.465  0.3023 -0.1099 -0.5968
 1463SOL    HW114319   6.799  12.850   7.446 -0.0249 -0.1864  0.7169
 1463SOL    HW214320   6.816  12.991   7.499  0.8772 -0.3854  0.9672
 1464SOL     OW14321   9.232   4.296   8.480 -0.3441  0.0918  0.0883
 1464SOL    HW114322   9.311   4.349   8.466  0.7021 -1.1075  1.1642
 1464SOL    HW214323   9.216   4.255   8.395  0.2647  0.2486 -0.1124
 1465SOL     OW14324  11.267  10.950   2.064  0.7505  0.4689  0.0077
 1465SOL    HW114325  11.226  10.907   1.989  0.7200  1.0815 -0.3384
 1465SOL    HW214326  11.231  10.905   2.141  1.1990 -0.5273 -0.3525
 1466SOL     OW14327   6.037   4.000   3.668  0.2705 -0.2223 -0.0129
 1466SOL    HW114328   6.018   3.906   3.663 -0.2138 -0.1343  0.1539
 1466SOL    HW214329   6.012   4.025   3.757 -0.7810  0.3179 -0.4413
 1467SOL     OW14330   9.978   3.150   9.769  0.0832  0.3650  0.0727
 1467SOL    HW114331  10.063   3.116   9.799 -0.8256 -0.6241  1.6849
 1467SOL    HW214332   9.999   3.201   9.691  2.4655  1.8086  1.5042
 1468SOL     OW14333   4.374   1.595  11.520 -0.3569  0.2805  0.0872
 1468SOL    HW114334   4.427   1.524  11.484 -2.3042 -0.7976 -0.7687
 1468SOL    HW214335   4.433   1.640  11.581  1.2655 -1.3565 -0.1946
 1469SOL     OW14336   6.737   2.758   1.870  0.0208  0.4278 -0.1899
 1469SOL    HW114337   6.738   2.722   1.782  2.4007 -2.3756  0.8300
 1469SOL    HW214338   6.665   2.713   1.914  1.1953 -1.0606  0.2809
 1470SOL     OW14339   6.860   7.920   1.247 -0.2039  0.0071  0.0287
 1470SOL    HW114340   6.863   7.831   1.282  1.1195  0.1384  0.3002
 1470SOL    HW214341   6.791   7.963   1.296  0.6255 -0.2448  1.4697
 1471SOL     OW14342   8.959   7.161  12.011 -1.2265 -0.1802  0.1810
 1471SOL    HW114343   9.028   7.095  12.012 -0.6608  0.2777 -2.4044
 1471SOL    HW214344   8.882   7.116  11.977 -1.3136  0.1029  0.0010
 1472SOL     OW14345   7.627  12.985  12.618 -0.4991 -0.2000 -0.0558
 1472SOL    HW114346   7.631  13.042  12.541  0.0152  0.6461  0.5699
 1472SOL    HW214347   7.709  12.936  12.616 -0.6186 -0.3916 -0.2103
 1473SOL     OW14348   0.010   1.336   0.062 -0.3527  0.0607  0.1587
 1473SOL    HW114349   0.020   1.252   0.017 -0.4043 -0.1688  0.5643
 1473SOL    HW214350  -0.084   1.348   0.071 -0.3909  0.7941 -1.0436
 1474SOL     OW14351   3.457   4.705   1.144 -0.2389 -0.5141 -0.1938
 1474SOL    HW114352   3.381   4.648   1.157 -1.6576  0.8546 -1.7919
 1474SOL    HW214353   3.486   4.728   1.232 -1.3812 -1.4647  0.4559
 1475SOL     OW14354   7.357   5.493   0.912  0.2157 -0.5193 -0.2267
 1475SOL    HW114355   7.356   5.560   0.980  1.4649  0.7840 -1.4311
 1475SOL    HW214356   7.388   5.538   0.834 -0.9598 -2.0241 -1.6325
 1476SOL     OW14357  10.055   6.825   9.866 -0.5087  0.4969  0.7202
 1476SOL    HW114358  10.022   6.890   9.805 -1.7734  0.4978  1.3754
 1476SOL    HW214359  10.083   6.752   9.811  0.0759  1.2174  0.0447
 1477SOL     OW14360   3.704   0.415   9.979 -0.3405 -0.1661  0.4832
 1477SOL    HW114361   3.797   0.405  10.000 -0.1637  0.2414 -0.0677
 1477SOL    HW214362   3.690   0.509   9.978 -0.3797 -0.1609 -0.9695
 1478SOL     OW14363  11.731   6.427  12.266  0.3363  0.3573  0.4219
 1478SOL    HW114364  11.716   6.419  12.360 -0.9424  3.7584  0.6390
 1478SOL    HW214365  11.650   6.393  12.226  0.8130 -0.9336  0.5223
 1479SOL     OW14366   8.013   6.280  12.345  0.2351 -0.1150 -0.7045
 1479SOL    HW114367   8.092   6.247  12.387  0.8116  0.9377 -0.9132
 1479SOL    HW214368   7.958   6.310  12.417  1.0269  1.2652 -0.6268
 1480SOL     OW14369  11.541   4.433  12.846  0.3227  0.1011 -0.0270
 1480SOL    HW114370  11.520   4.456  12.756  1.7583 -0.1746 -0.4415
 1480SOL    HW214371  11.458   4.445  12.893 -0.2312  1.0894 -1.1996
 1481SOL     OW14372  10.292   8.008   5.251  0.2424  0.1657 -0.5870
 1481SOL    HW114373  10.280   8.046   5.338 -2.4627 -0.5196 -0.5756
 1481SOL    HW214374  10.325   8.081   5.198 -2.5689  2.0154 -0.0299
 1482SOL     OW14375   3.165  13.021   9.880 -0.0034  0.6122 -0.4868
 1482SOL    HW114376   3.209  13.015   9.795  0.1837 -0.0638 -0.3454
 1482SOL    HW214377   3.197  13.103   9.918  2.4652 -0.6430  0.3518
 1483SOL     OW14378   0.371   3.151  10.811  0.4186 -0.3457 -0.1707
 1483SOL    HW114379   0.388   3.241  10.785  0.1471 -0.1793  0.2211
 1483SOL    HW214380   0.281   3.151  10.843  0.2774 -0.8413 -0.5443
 1484SOL     OW14381   9.357   4.428   2.380  0.2762 -0.3037  0.5705
 1484SOL    HW114382   9.275   4.471   2.403  1.6079  1.3303  2.7010
 1484SOL    HW214383   9.365   4.356   2.443  0.1436 -0.9160 -0.1048
 1485SOL     OW14384   1.847   6.554   8.170  0.1366 -0.0842  0.3741
 1485SOL    HW114385   1.847   6.569   8.265 -0.3793 -0.9095  0.5230
 1485SOL    HW214386   1.927   6.595   8.139 -0.0047  0.7602  1.0719
 1486SOL     OW14387   2.546   9.766  12.162  0.2572 -0.4186  0.1605
 1486SOL    HW114388   2.627   9.730  12.124 -0.2464  0.6972 -2.1714
 1486SOL    HW214389   2.477   9.708  12.129 -0.0420 -0.4857  0.9013
 1487SOL     OW14390   4.212  10.783   0.439 -0.3008  0.5432  0.6101
 1487SOL    HW114391   4.283  10.846   0.455  0.1637 -0.1928  1.5964
 1487SOL    HW214392   4.214  10.768   0.345  1.8180 -0.4913  0.7470
 1488SOL     OW14393   8.860   2.572   0.567 -0.3560  0.1685 -0.2400
 1488SOL    HW114394   8.844   2.536   0.654  0.4620  0.8928  0.2331
 1488SOL    HW214395   8.777   2.560   0.520 -0.9707  0.2158  0.7991
 1489SOL     OW14396   3.738   3.281  10.368 -0.0616 -0.0893 -0.1491
 1489SOL    HW114397   3.723   3.312  10.279 -2.1721  1.2030  0.5950
 1489SOL    HW214398   3.676   3.208  10.378  1.5319 -1.5316 -0.3177
 1490SOL     OW14399  12.607   1.602   5.887 -0.2112  0.2416 -0.4039
 1490SOL    HW114400  12.620   1.693   5.860  1.0071 -0.0332 -0.7642
 1490SOL    HW214401  12.552   1.564   5.818 -3.4263  1.4686  1.2563
 1491SOL     OW14402   5.828   9.006  11.796 -0.5751  0.1638  0.5405
 1491SOL    HW114403   5.839   9.101  11.789 -0.0947  0.0711 -0.0991
 1491SOL    HW214404   5.860   8.984  11.884  0.0196  0.5000  0.4101
 1492SOL     OW14405   4.998   1.856   0.928  0.3288 -0.4120  0.1152
 1492SOL    HW114406   4.928   1.921   0.931  0.5852 -0.1365  0.2503
 1492SOL    HW214407   4.954   1.772   0.942  0.4413  0.0212  5.1354
 1493SOL     OW14408  11.347   4.649   8.247 -0.2872 -0.3617  0.4642
 1493SOL    HW114409  11.387   4.686   8.169 -0.7309  2.3206  1.3970
 1493SOL    HW214410  11.253   4.658   8.232 -0.4176 -1.2684  0.6807
 1494SOL     OW14411   4.454   1.590   3.019  0.1242  0.9725 -0.0994
 1494SOL    HW114412   4.548   1.577   3.028 -0.0336  0.7570  1.4927
 1494SOL    HW214413   4.421   1.507   2.985  0.5353  1.1884 -1.0733
 1495SOL     OW14414   9.860   2.828   0.867  0.5079  0.3580  0.5234
 1495SOL    HW114415   9.876   2.766   0.938 -1.5221 -0.2995  0.4796
 1495SOL    HW214416   9.786   2.880   0.897 -0.3870  0.0824 -1.0777
 1496SOL     OW14417   1.450  12.554   7.909  0.0059 -0.1267 -0.6384
 1496SOL    HW114418   1.395  12.475   7.914  1.7857 -1.3694  0.4298
 1496SOL    HW214419   1.463  12.580   8.000  0.8923  0.3527 -0.8915
 1497SOL     OW14420   8.911   6.122  11.613  0.2012  1.1686 -0.0379
 1497SOL    HW114421   8.836   6.175  11.640 -0.1839  0.4212  0.3922
 1497SOL    HW214422   8.948   6.090  11.695 -0.5253 -0.5107 -0.3173
 1498SOL     OW14423  11.974  10.786   7.633  0.0491 -0.0621  0.6604
 1498SOL    HW114424  12.046  10.846   7.612 -1.0708  1.9222  2.1420
 1498SOL    HW214425  11.900  10.819   7.583 -1.3148  1.6567  3.5411
 1499SOL     OW14426  13.311   7.075   7.909 -0.0100  0.4285  0.3465
 1499SOL    HW114427  13.399   7.080   7.872 -0.1234  0.0413  0.0027
 1499SOL    HW214428  13.321   7.020   7.987 -0.0879 -0.3779 -0.1901
 1500SOL     OW14429  10.472  10.792  10.630 -0.0929 -0.1241  0.2648
 1500SOL    HW114430  10.439  10.713  10.672  0.8524 -0.3504  0.6246
 1500SOL    HW214431  10.533  10.760  10.563 -1.3579  0.2385 -1.1075
 1501SOL     OW14432   6.097   9.275   0.572 -0.2618 -0.4627  0.4637
 1501SOL    HW114433   6.016   9.287   0.621 -0.7833  0.7971 -0.6640
 1501SOL    HW214434   6.166   9.291   0.636 -0.8972 -0.7916  1.2536
 1502SOL     OW14435   8.781   6.479   7.073  0.1146  0.5218 -0.1284
 1502SOL    HW114436   8.720   6.536   7.121 -0.7068  0.0457 -0.5844
 1502SOL    HW214437   8.743   6.472   6.985  0.7280  0.0642 -0.3626
 1503SOL     OW14438   1.811   3.595  13.245 -1.1870  0.2686 -0.5101
 1503SOL    HW114439   1.855   3.680  13.245  0.4345 -0.5295 -0.3449
 1503SOL    HW214440   1.750   3.599  13.318 -1.1799  1.3141 -0.5474
 1504SOL     OW14441   3.991   4.862   3.722 -0.1333 -0.3207 -0.0866
 1504SOL    HW114442   4.043   4.783   3.705 -0.8739 -1.1442  1.2395
 1504SOL    HW214443   4.049   4.918   3.774  0.0221 -0.4862 -0.0790
 1505SOL     OW14444  12.401   4.960  10.540 -0.3243  0.0702 -0.0755
 1505SOL    HW114445  12.339   4.892  10.566 -0.3853  0.3904  0.6404
 1505SOL    HW214446  12.425   4.937  10.450  1.2999 -2.1020  0.8405
 1506SOL     OW14447  12.812   4.111   8.766 -0.0201  0.6087 -0.3857
 1506SOL    HW114448  12.810   4.041   8.700  0.4409  0.0289  0.2047
 1506SOL    HW214449  12.770   4.073   8.843  0.9208  0.7084  0.1904
 1507SOL     OW14450   7.473   8.583   9.963 -0.4091 -0.0581  0.4694
 1507SOL    HW114451   7.529   8.660   9.974 -1.1319  0.5682 -0.1714
 1507SOL    HW214452   7.399   8.599  10.021  0.8927 -1.7633  2.8174
 1508SOL     OW14453   4.041   8.779   5.363  0.6648  0.2150 -0.1526
 1508SOL    HW114454   4.067   8.767   5.272  3.7774  2.1193  0.3494
 1508SOL    HW214455   4.028   8.873   5.372 -2.8044 -0.1964  0.7362
 1509SOL     OW14456  11.018  11.815  10.112 -0.3353  0.0147 -0.7117
 1509SOL    HW114457  10.963  11.825  10.034 -1.5373 -1.1604 -0.0526
 1509SOL    HW214458  11.071  11.737  10.094 -1.0132 -0.5879 -0.1455
 1510SOL     OW14459  12.551  12.304   7.661 -0.0404  0.5039  0.4407
 1510SOL    HW114460  12.521  12.339   7.577 -1.7912 -0.6812  0.5210
 1510SOL    HW214461  12.634  12.348   7.677  0.5136  0.5362 -2.0812
 1511SOL     OW14462  11.061  12.305   4.061 -0.0228  0.0995 -0.3739
 1511SOL    HW114463  10.985  12.276   4.010 -0.2373  0.4943 -0.2838
 1511SOL    HW214464  11.024  12.335   4.144  0.3150 -0.4472 -0.0196
 1512SOL     OW14465  11.002   0.666   3.381 -0.6562 -0.7051  0.1537
 1512SOL    HW114466  10.962   0.585   3.413  0.3993 -1.2579  0.1418
 1512SOL    HW214467  11.059   0.638   3.310  1.1186 -0.2303  1.3009
 1513SOL     OW14468  10.768   6.346   6.930 -0.1702  0.1843  0.3245
 1513SOL    HW114469  10.855   6.362   6.893 -0.6485 -1.4287 -1.6150
 1513SOL    HW214470  10.727   6.433   6.933  0.5217  0.5995 -1.3689
 1514SOL     OW14471  12.818  11.443   3.527 -0.4328 -0.6655  0.4168
 1514SOL    HW114472  12.822  11.419   3.434  2.7018 -0.6809  0.4460
 1514SOL    HW214473  12.805  11.538   3.526 -1.1274 -0.7628 -0.0164
 1515SOL     OW14474   9.180  10.538   0.278 -0.8363  0.2150 -0.4821
 1515SOL    HW114475   9.229  10.510   0.200  2.6806  2.4591  0.6925
 1515SOL    HW214476   9.141  10.621   0.252  1.4400  1.6499  0.3520
 1516SOL     OW14477  12.657  11.525   4.202  0.1275  0.3894 -0.0302
 1516SOL    HW114478  12.613  11.443   4.182  0.0372  0.1327  1.1178
 1516SOL    HW214479  12.617  11.589   4.144 -1.3163  0.0380  0.5412
 1517SOL     OW14480  11.154   0.810   5.652  0.0330  0.0171  0.4824
 1517SOL    HW114481  11.107   0.876   5.601  0.1668  0.8392  1.3899
 1517SOL    HW214482  11.087   0.748   5.681 -0.2234  0.2117  0.3069
 1518SOL     OW14483   1.748   8.579  10.363  1.0069 -0.1997  0.6398
 1518SOL    HW114484   1.721   8.628  10.441  1.2275 -1.6496  1.6561
 1518SOL    HW214485   1.840   8.559  10.378  1.2292  0.0687 -0.3120
 1519SOL     OW14486  11.997   8.023   4.758 -0.4040  0.2474  0.1142
 1519SOL    HW114487  11.902   8.017   4.761 -0.3508 -2.9839 -0.8668
 1519SOL    HW214488  12.016   8.055   4.670 -0.5734  0.5142  0.1739
 1520SOL     OW14489   3.614   3.642   9.875  0.1340 -0.1389 -0.0210
 1520SOL    HW114490   3.552   3.573   9.899  0.2379  0.2827  1.5419
 1520SOL    HW214491   3.561   3.722   9.872  0.2427 -0.0815 -0.6577
 1521SOL     OW14492   0.757   3.955   2.646  0.5263  0.0502 -0.4124
 1521SOL    HW114493   0.749   3.860   2.646 -1.3331  0.1582 -0.8100
 1521SOL    HW214494   0.704   3.984   2.721  1.8135  0.7374  0.2558
 1522SOL     OW14495  11.509  12.389   0.511 -0.0224 -0.5246  0.3536
 1522SOL    HW114496  11.490  12.371   0.603  0.5551 -2.6042  0.1206
 1522SOL    HW214497  11.443  12.452   0.485 -0.1518  0.1714  2.2047
 1523SOL     OW14498   6.162  11.153  10.525 -0.2717  0.3360 -0.2545
 1523SOL    HW114499   6.211  11.211  10.583 -2.2180  0.9738  0.8646
 1523SOL    HW214500   6.122  11.089  10.584 -0.1918 -0.6155 -1.2084
 1524SOL     OW14501   2.284   3.098  12.807 -0.6084 -0.1569 -0.6759
 1524SOL    HW114502   2.282   3.065  12.897  0.7906 -1.3734 -1.0464
 1524SOL    HW214503   2.203   3.065  12.768 -1.4683  0.7977  0.2572
 1525SOL     OW14504   2.652  12.376  10.365 -0.2369  0.5809  0.1892
 1525SOL    HW114505   2.641  12.459  10.319 -0.0090  1.2501  1.3174
 1525SOL    HW214506   2.738  12.382  10.406  0.4048 -0.8005 -0.8655
 1526SOL     OW14507   5.556  11.527  12.008 -0.1365 -0.1513  0.4100
 1526SOL    HW114508   5.638  11.563  12.043  0.0136  0.1317 -0.2274
 1526SOL    HW214509   5.517  11.599  11.959  0.2550 -0.8922 -1.0495
 1527SOL     OW14510   5.001   0.843  12.789  0.0995 -0.0394  0.3542
 1527SOL    HW114511   5.024   0.812  12.702  0.3903  2.1141 -0.3986
 1527SOL    HW214512   4.961   0.929  12.774 -0.0295  0.2924  2.3194
 1528SOL     OW14513  13.154   2.510   2.026  0.0479 -0.2650  0.3514
 1528SOL    HW114514  13.095   2.440   2.051 -0.3157  0.2911  1.0967
 1528SOL    HW214515  13.097   2.585   2.010  0.5208  0.2259  0.8870
 1529SOL     OW14516   8.985   7.949   9.265  0.1561  0.1198  0.5518
 1529SOL    HW114517   8.994   7.881   9.332 -1.1101  0.1927  0.8224
 1529SOL    HW214518   8.974   7.901   9.183 -0.0364 -0.0002  0.6459
 1530SOL     OW14519   5.297  12.297   6.021  0.0734 -0.1624 -0.2304
 1530SOL    HW114520   5.384  12.277   5.986  0.3813  1.9561 -0.7823
 1530SOL    HW214521   5.312  12.368   6.083 -0.9755 -1.4155  1.5492
 1531SOL     OW14522   5.775  11.502   8.378  0.1102 -0.3077 -0.6861
 1531SOL    HW114523   5.786  11.431   8.315  0.1707 -0.6350 -0.3118
 1531SOL    HW214524   5.826  11.475   8.454 -0.9881 -0.5254  0.0013
 1532SOL     OW14525  11.312   4.670   7.115  0.3394 -0.4310 -0.3574
 1532SOL    HW114526  11.285   4.605   7.050 -1.3300  0.0710 -0.2159
 1532SOL    HW214527  11.303   4.625   7.199  0.8241 -0.5283 -0.3510
 1533SOL     OW14528   5.664   5.113  10.092  0.4767 -0.0630  0.4717
 1533SOL    HW114529   5.664   5.153  10.179  1.2147 -0.4037  0.6359
 1533SOL    HW214530   5.750   5.072  10.084  0.0842 -0.8156 -0.0574
 1534SOL     OW14531  12.881   1.193  12.975 -0.1827  0.5859  0.3039
 1534SOL    HW114532  12.814   1.191  13.044  0.8840 -0.0322  1.3637
 1534SOL    HW214533  12.860   1.119  12.919  0.2629 -0.3158  1.2949
 1535SOL     OW14534   4.273   6.825   7.974 -0.0786  0.2834  0.0682
 1535SOL    HW114535   4.293   6.897   8.034  1.1004  0.7818 -0.8861
 1535SOL    HW214536   4.177   6.824   7.969 -0.1928  0.3968  1.7375
 1536SOL     OW14537   5.095   6.283  12.777 -0.1880 -0.4042  0.6226
 1536SOL    HW114538   5.105   6.214  12.842 -1.4256  0.1107  1.4009
 1536SOL    HW214539   5.023   6.253  12.721 -0.3183 -0.0376  0.5883
 1537SOL     OW14540   7.965   0.143   8.094  0.4191 -0.3995 -0.0649
 1537SOL    HW114541   8.040   0.203   8.096 -1.4997  2.4050 -2.7785
 1537SOL    HW214542   7.998   0.065   8.049  1.9427  0.4370 -0.4789
 1538SOL     OW14543   2.201   4.068   0.828  0.1115  0.4946  0.0610
 1538SOL    HW114544   2.227   4.149   0.871 -1.0734  0.2341  1.3366
 1538SOL    HW214545   2.120   4.042   0.872 -0.3722 -0.5654 -1.3769
 1539SOL     OW14546   0.791   0.469   0.311 -0.4653  0.1141 -0.6540
 1539SOL    HW114547   0.813   0.536   0.246  0.6337 -0.1945 -0.6195
 1539SOL    HW214548   0.797   0.386   0.263  0.8743 -0.1581 -0.0582
 1540SOL     OW14549   6.258   2.721   0.665 -0.2609  0.2087 -0.0302
 1540SOL    HW114550   6.166   2.702   0.649 -0.4572  0.8758  0.2653
 1540SOL    HW214551   6.299   2.719   0.578 -0.5071 -0.3112 -0.1363
 1541SOL     OW14552   6.921  12.257   7.940  0.2014 -0.5093  0.6989
 1541SOL    HW114553   6.859  12.307   7.993  1.7580  0.0801  2.0515
 1541SOL    HW214554   6.867  12.216   7.872 -1.3747  1.7587  0.4510
 1542SOL     OW14555   9.161   5.896   3.916 -0.0168  0.0952  0.0796
 1542SOL    HW114556   9.098   5.907   3.988  0.0953  0.0725  0.1811
 1542SOL    HW214557   9.137   5.812   3.877 -2.3013  1.6142 -2.0999
 1543SOL     OW14558   4.936  12.475   0.604 -0.8097  0.2730 -0.1153
 1543SOL    HW114559   4.975  12.561   0.621 -0.4127  0.3362 -1.2794
 1543SOL    HW214560   5.011  12.414   0.606 -0.8434  0.1906 -0.8760
 1544SOL     OW14561  11.120   0.258  12.119  0.3785  0.2662  0.0939
 1544SOL    HW114562  11.029   0.230  12.131  0.7733 -2.4334 -2.1000
 1544SOL    HW214563  11.169   0.207  12.184  0.5585 -0.1010 -0.3274
 1545SOL     OW14564   9.959  10.564  10.518  0.8893  0.2629  0.8200
 1545SOL    HW114565   9.976  10.530  10.605  2.5458  0.3979  0.5827
 1545SOL    HW214566   9.979  10.658  10.524  0.5534  0.3674  0.4113
 1546SOL     OW14567   5.143   0.743   1.675  0.1247  0.1130 -0.0008
 1546SOL    HW114568   5.196   0.728   1.597 -0.6846  1.7947 -0.9327
 1546SOL    HW214569   5.147   0.837   1.689 -2.0699  0.2386  0.2545
 1547SOL     OW14570   6.819   7.917  12.906  0.3416  0.4941  0.3656
 1547SOL    HW114571   6.786   7.834  12.872  0.1952  0.7682 -0.1760
 1547SOL    HW214572   6.780   7.983  12.849 -0.4130  1.0244  1.4456
 1548SOL     OW14573   8.985   6.492  10.498 -0.0019 -0.0089 -0.3982
 1548SOL    HW114574   8.918   6.442  10.544  0.4317  0.7490  1.1200
 1548SOL    HW214575   9.068   6.463  10.536  0.7602 -1.8724 -3.1231
 1549SOL     OW14576  10.203   8.727   8.566 -0.3746 -0.0554  0.3242
 1549SOL    HW114577  10.145   8.798   8.537 -0.8396 -0.8209 -0.6784
 1549SOL    HW214578  10.144   8.653   8.579  0.2692 -0.6000  0.1607
 1550SOL     OW14579   7.280   4.562  13.121 -0.1453 -0.5101  0.5345
 1550SOL    HW114580   7.244   4.480  13.087  1.3859 -0.6133 -1.0116
 1550SOL    HW214581   7.362   4.537  13.162  0.9626  0.3411 -1.0554
 1551SOL     OW14582  10.825  10.028   0.038 -0.2177  0.3955 -0.3137
 1551SOL    HW114583  10.839  10.116   0.002 -1.0598  0.5867 -0.1933
 1551SOL    HW214584  10.862  10.033   0.127  1.7154 -0.0309 -1.0437
 1552SOL     OW14585   6.085   2.326  12.959  0.2198 -0.3761  0.4482
 1552SOL    HW114586   6.027   2.250  12.951 -0.4983 -0.0655  2.1832
 1552SOL    HW214587   6.035   2.397  12.918  0.1338 -0.4688  0.3888
 1553SOL     OW14588   5.224   6.155   4.314  0.1713  0.6794 -0.1381
 1553SOL    HW114589   5.151   6.093   4.317 -0.1783  0.9878 -1.6058
 1553SOL    HW214590   5.214   6.208   4.393 -0.3472 -0.2155  0.4134
 1554SOL     OW14591   3.646   9.769   1.482  0.0051  0.4089  0.4740
 1554SOL    HW114592   3.612   9.680   1.492  0.2667  0.2725  0.1682
 1554SOL    HW214593   3.618   9.814   1.562  0.5422 -0.1628  1.0006
 1555SOL     OW14594   1.913   9.682  11.750  0.2192  0.5940  0.2560
 1555SOL    HW114595   1.976   9.666  11.820 -0.6547 -0.9813  0.7166
 1555SOL    HW214596   1.964   9.728  11.683  1.5324  0.4927  1.1382
 1556SOL     OW14597   5.572   5.075   4.624 -0.1503 -0.3154 -0.3166
 1556SOL    HW114598   5.542   5.124   4.547 -0.4206 -0.8306 -0.5431
 1556SOL    HW214599   5.492   5.061   4.675 -0.1064 -0.6981 -0.3548
 1557SOL     OW14600   6.216   6.409  10.561  0.2919 -0.6673 -0.1597
 1557SOL    HW114601   6.247   6.498  10.576 -1.7320  0.1291 -0.4686
 1557SOL    HW214602   6.240   6.361  10.641  0.5950  0.3764  0.3887
 1558SOL     OW14603   4.246   1.852   5.643  0.2512 -0.0453  0.5662
 1558SOL    HW114604   4.166   1.800   5.650 -1.4145  2.4518  1.1925
 1558SOL    HW214605   4.277   1.861   5.733  1.4761 -1.2342  0.3040
 1559SOL     OW14606   8.731   1.348  13.172  0.5197 -0.1062 -0.3955
 1559SOL    HW114607   8.646   1.350  13.128 -0.1909 -0.0862  0.9248
 1559SOL    HW214608   8.793   1.317  13.106 -0.4843  0.0360 -1.4169
 1560SOL     OW14609   6.589   0.177   5.002  0.0059  0.5694  0.3794
 1560SOL    HW114610   6.614   0.146   4.915  1.6823  2.0887  0.2496
 1560SOL    HW214611   6.670   0.171   5.053 -1.0645 -0.7806  2.0244
 1561SOL     OW14612   3.919   9.244   3.922  0.2347  0.5103  0.2581
 1561SOL    HW114613   4.010   9.273   3.931  1.1434 -2.0872  0.2396
 1561SOL    HW214614   3.873   9.290   3.991  1.1698  3.1649 -0.7622
 1562SOL     OW14615   2.829   4.728   8.947  0.3031  0.3940  0.0402
 1562SOL    HW114616   2.783   4.679   8.878  1.3584  0.2000 -0.5398
 1562SOL    HW214617   2.897   4.777   8.900 -0.1814  1.7775  0.7121
 1563SOL     OW14618   4.093   1.936   9.811 -0.6954 -0.6861 -0.1021
 1563SOL    HW114619   4.178   1.899   9.788 -0.6034 -0.5275 -0.0241
 1563SOL    HW214620   4.101   1.956   9.905 -0.1443  1.0633 -0.4663
 1564SOL     OW14621   6.716   4.584   4.755  0.6725  0.2482 -0.2332
 1564SOL    HW114622   6.701   4.678   4.769  2.9549  0.5748  0.5050
 1564SOL    HW214623   6.689   4.543   4.837  1.7647  0.5826  0.3222
 1565SOL     OW14624   0.033   9.982   3.504  0.0804 -0.2061  0.2035
 1565SOL    HW114625   0.064  10.070   3.522  0.0172 -0.1299 -0.0515
 1565SOL    HW214626   0.008   9.946   3.589  0.9682 -0.3084  0.4308
 1566SOL     OW14627   5.252  10.200  12.461  0.5818  0.3484  0.1778
 1566SOL    HW114628   5.322  10.220  12.399  0.9495 -1.4966 -0.0540
 1566SOL    HW214629   5.258  10.269  12.527  2.0083  0.7542 -0.3408
 1567SOL     OW14630   2.717   4.353   3.980 -0.1948 -0.6728  0.0667
 1567SOL    HW114631   2.711   4.266   3.941  0.0350 -0.5549 -0.2282
 1567SOL    HW214632   2.807   4.381   3.966 -0.2092 -0.4699  0.3442
 1568SOL     OW14633   5.722   2.914   0.569  0.0005 -0.0628  0.2197
 1568SOL    HW114634   5.652   2.879   0.625  0.1628  1.2803  1.3397
 1568SOL    HW214635   5.715   2.865   0.488 -2.6192  0.3927  0.0819
 1569SOL     OW14636   1.369  10.632  13.273  0.3195 -0.1647 -0.2886
 1569SOL    HW114637   1.310  10.557  13.274  0.8946 -0.7208 -2.6630
 1569SOL    HW214638   1.311  10.708  13.267 -0.2739 -0.3242  2.2543
 1570SOL     OW14639   2.774  12.841   2.433  0.6147 -0.0120 -0.0136
 1570SOL    HW114640   2.707  12.820   2.368  0.1565  0.6002  0.2521
 1570SOL    HW214641   2.816  12.757   2.452  0.2776 -0.3097 -0.5772
 1571SOL     OW14642   2.523   5.943   7.663 -0.3260 -0.3101  0.7037
 1571SOL    HW114643   2.537   5.926   7.570 -0.6623 -0.2848  0.6455
 1571SOL    HW214644   2.544   5.861   7.707 -0.2691 -0.3531  0.5956
 1572SOL     OW14645   5.622  12.928   7.192 -0.1216 -0.0529 -0.0408
 1572SOL    HW114646   5.540  12.947   7.146 -0.1637  0.3102  0.1824
 1572SOL    HW214647   5.606  12.955   7.282 -0.5971 -2.2686  0.5827
 1573SOL     OW14648   3.096   0.437   6.225  0.4992  0.1649 -0.0443
 1573SOL    HW114649   3.158   0.505   6.199 -0.4292  0.5078 -1.5021
 1573SOL    HW214650   3.010   0.477   6.211 -0.0634 -1.0910 -0.3022
 1574SOL     OW14651   6.120   2.680   5.279 -0.0843 -0.1239  0.0962
 1574SOL    HW114652   6.184   2.682   5.349  0.4890  0.7368 -0.4409
 1574SOL    HW214653   6.047   2.733   5.310  0.1324  0.1862  0.0705
 1575SOL     OW14654  10.012   3.078   4.206  0.0211  0.8619 -0.1684
 1575SOL    HW114655  10.013   3.084   4.110 -1.0008  2.2235 -0.1236
 1575SOL    HW214656  10.083   3.135   4.234  0.9172 -0.2476 -0.1118
 1576SOL     OW14657   4.600   1.154   7.988  0.0923 -0.1191  0.3991
 1576SOL    HW114658   4.639   1.242   7.982 -0.2408  0.0249  0.2804
 1576SOL    HW214659   4.613   1.128   8.079 -1.1021  0.6793  0.8388
 1577SOL     OW14660   5.570   7.247   0.805 -0.0968 -0.3546  0.2626
 1577SOL    HW114661   5.647   7.200   0.837 -0.8471 -0.9083  1.3272
 1577SOL    HW214662   5.605   7.324   0.761  1.0436 -0.2178  1.3621
 1578SOL     OW14663   2.822   7.217   4.455  0.6337  0.6741  0.4748
 1578SOL    HW114664   2.879   7.192   4.527  1.0246  1.1230  0.3276
 1578SOL    HW214665   2.836   7.149   4.389  0.4408  0.3838  0.7280
 1579SOL     OW14666  10.672  11.022   5.977 -0.3278  0.4508 -0.9762
 1579SOL    HW114667  10.750  11.023   5.921  0.3925  1.4221  0.0122
 1579SOL    HW214668  10.603  11.060   5.921  0.1735  0.6173 -1.4976
 1580SOL     OW14669   4.950  11.649   1.401 -0.0366  0.0829  0.5089
 1580SOL    HW114670   5.014  11.679   1.465  1.1649  0.8779 -1.0069
 1580SOL    HW214671   4.956  11.553   1.404  0.5406  0.1311  1.0298
 1581SOL     OW14672   2.184   4.809   6.527 -0.0114 -0.5991  0.2788
 1581SOL    HW114673   2.271   4.768   6.523 -0.2246 -0.9765 -0.7187
 1581SOL    HW214674   2.145   4.775   6.608  0.8420 -0.2674  0.8398
 1582SOL     OW14675   1.285   4.783   9.899  0.0797  0.0207 -0.1889
 1582SOL    HW114676   1.248   4.698   9.924  2.8512 -1.7224 -1.5057
 1582SOL    HW214677   1.320   4.769   9.811  0.2591  2.7072 -0.6427
 1583SOL     OW14678   0.428  10.797   2.266  0.5543 -0.2284  0.0958
 1583SOL    HW114679   0.408  10.776   2.357 -0.0805  1.3170  0.3334
 1583SOL    HW214680   0.429  10.711   2.222 -0.2943 -0.8977  1.3167
 1584SOL     OW14681   9.138  12.874   8.872  0.3219  0.2284 -0.0503
 1584SOL    HW114682   9.084  12.944   8.908  0.4189 -0.6534  1.9396
 1584SOL    HW214683   9.075  12.816   8.829  0.0327  0.6418 -0.1930
 1585SOL     OW14684  12.843   5.699   5.957  0.1594 -0.1390  0.2031
 1585SOL    HW114685  12.882   5.786   5.955 -0.1327 -0.0254 -0.6467
 1585SOL    HW214686  12.914   5.642   5.988  0.3920  0.3677  0.6311
 1586SOL     OW14687   3.968  12.658   1.802 -0.1144  0.1060  0.1563
 1586SOL    HW114688   3.876  12.635   1.817  0.5534 -1.8293  1.8644
 1586SOL    HW214689   3.995  12.604   1.728 -1.2117  3.4887 -3.0188
 1587SOL     OW14690  11.972   2.608   7.993 -0.5597 -0.1405 -0.0124
 1587SOL    HW114691  11.899   2.556   8.025 -1.2650  0.4381 -0.6357
 1587SOL    HW214692  11.996   2.568   7.909  1.3088 -1.6792  1.1702
 1588SOL     OW14693   8.157   8.012  13.216 -0.0207 -0.0050 -0.5559
 1588SOL    HW114694   8.161   8.102  13.183  1.8157  1.0590  2.1918
 1588SOL    HW214695   8.233   7.969  13.176 -0.4758 -0.1443 -1.2918
 1589SOL     OW14696   5.488   6.345  10.251  0.1656  0.3450  0.2305
 1589SOL    HW114697   5.483   6.257  10.289  1.9062  0.4697  0.8439
 1589SOL    HW214698   5.537   6.396  10.315  0.1545  1.4794 -0.6278
 1590SOL     OW14699   7.991   7.912   4.715  0.6973 -0.5870  0.3108
 1590SOL    HW114700   7.909   7.867   4.697 -0.1296  1.2106 -0.7438
 1590SOL    HW214701   8.031   7.925   4.630 -0.2439  2.5892  0.2167
 1591SOL     OW14702  13.103  12.615   9.149 -0.3763  0.1851  0.2855
 1591SOL    HW114703  13.037  12.638   9.216  0.9451  1.6006  1.1653
 1591SOL    HW214704  13.123  12.523   9.167 -1.8691 -0.1884  0.1952
 1592SOL     OW14705  11.268  13.286   0.334  0.8495  0.2524  0.0581
 1592SOL    HW114706  11.357  13.300   0.367  1.2882 -2.5808  0.3741
 1592SOL    HW214707  11.274  13.204   0.284 -1.0539  1.3913 -2.2226
 1593SOL     OW14708   1.330   4.211   7.521  0.3374  0.1887 -0.5650
 1593SOL    HW114709   1.285   4.284   7.563 -0.7196 -1.4559  1.3226
 1593SOL    HW214710   1.273   4.186   7.448  0.0224  0.4003 -0.3939
 1594SOL     OW14711   9.881  13.252  10.330  0.7654 -0.3492  0.7864
 1594SOL    HW114712   9.956  13.196  10.350  0.6326 -0.2039  1.7585
 1594SOL    HW214713   9.812  13.220  10.389  0.6379  0.7127  1.2391
 1595SOL     OW14714   3.588   9.960   1.702  0.3399  0.1060  0.1581
 1595SOL    HW114715   3.534   9.958   1.781 -0.7895  1.5477 -0.5492
 1595SOL    HW214716   3.677   9.974   1.735 -0.2654  1.9199  1.1467
 1596SOL     OW14717  11.990   0.704  11.873  0.1500 -0.1807 -0.1261
 1596SOL    HW114718  11.976   0.649  11.796 -0.1332  0.0627 -0.2510
 1596SOL    HW214719  12.048   0.652  11.929  0.1991 -0.4417 -0.4141
 1597SOL     OW14720   6.136   2.049  12.120 -0.1436 -0.0108  0.0715
 1597SOL    HW114721   6.172   1.976  12.069 -2.5390 -1.0757 -0.1971
 1597SOL    HW214722   6.187   2.125  12.092  1.0176 -1.1992 -1.2068
 1598SOL     OW14723  12.455   6.651   0.656  0.3758  0.3121  0.0968
 1598SOL    HW114724  12.365   6.652   0.624  0.1848  1.5046  0.5994
 1598SOL    HW214725  12.468   6.739   0.692  1.9584  0.3726 -0.5708
 1599SOL     OW14726   7.044  11.880   9.801  0.0666 -0.1244 -0.4119
 1599SOL    HW114727   7.073  11.952   9.857  0.6113  0.9290 -1.9863
 1599SOL    HW214728   6.960  11.909   9.765 -1.9830 -2.1631  2.2574
 1600SOL     OW14729   9.206  11.179   6.347  0.1335 -0.1279 -0.4753
 1600SOL    HW114730   9.145  11.109   6.371  0.0506  0.2887  0.5823
 1600SOL    HW214731   9.185  11.250   6.408 -0.0030  0.9437 -1.7380
 1601SOL     OW14732  13.253  10.853   9.160  0.2591 -0.3444 -0.4828
 1601SOL    HW114733  13.166  10.891   9.147  0.2241 -0.5059 -0.7232
 1601SOL    HW214734  13.298  10.915   9.218 -0.7942 -1.3956  1.5491
 1602SOL     OW14735   1.048  10.281  10.033  0.1359  0.0136  0.1695
 1602SOL    HW114736   1.092  10.228  10.099 -1.0806 -1.1473  0.0699
 1602SOL    HW214737   1.029  10.221   9.962  2.7410  1.5308 -1.9843
 1603SOL     OW14738   5.537  11.042   6.743  0.6457  0.1861 -0.1598
 1603SOL    HW114739   5.464  10.992   6.778 -0.0422  0.0243 -1.7238
 1603SOL    HW214740   5.565  10.992   6.665  1.9919  0.5936  0.0355
 1604SOL     OW14741   9.010   8.513   9.238  0.2069  0.2566  0.6878
 1604SOL    HW114742   8.963   8.514   9.155 -0.0495 -0.3925  0.8204
 1604SOL    HW214743   9.098   8.484   9.215 -0.3847 -1.8674  0.8821
 1605SOL     OW14744   8.227  11.528  10.812  0.2975 -0.4433 -0.6392
 1605SOL    HW114745   8.157  11.547  10.874 -0.6978 -2.7244 -0.9432
 1605SOL    HW214746   8.241  11.610  10.766 -0.8927  0.5620  0.6847
 1606SOL     OW14747   8.154   9.385  11.157  0.5851  0.3923  0.2135
 1606SOL    HW114748   8.122   9.299  11.130 -1.5611  0.7083  1.5252
 1606SOL    HW214749   8.109   9.447  11.100  3.3125  0.7017 -1.8204
 1607SOL     OW14750   9.221   0.073  13.164  0.4970 -0.2938  0.3384
 1607SOL    HW114751   9.247   0.086  13.072  3.7437  0.5040  1.2210
 1607SOL    HW214752   9.182   0.156  13.190 -0.5104 -0.5506 -0.3062
 1608SOL     OW14753   2.933   8.920   8.491 -0.0567 -0.1724 -0.4629
 1608SOL    HW114754   2.931   8.968   8.574 -0.4148 -1.3042  0.2072
 1608SOL    HW214755   2.985   8.975   8.432  1.2682  0.0766  0.8812
 1609SOL     OW14756   1.842   8.607  11.461  0.3683 -0.1302  0.0635
 1609SOL    HW114757   1.882   8.694  11.452 -0.2739  0.2199  0.5613
 1609SOL    HW214758   1.809   8.587  11.373  0.1439  0.3142  0.0428
 1610SOL     OW14759   0.167   3.376  10.357  0.9891 -0.3002  0.5671
 1610SOL    HW114760   0.092   3.388  10.415  1.2108  3.2189  0.3020
 1610SOL    HW214761   0.129   3.359  10.271  0.5216  0.2415  0.6672
 1611SOL     OW14762   9.752   7.353   0.062 -0.5784 -0.5396  0.0089
 1611SOL    HW114763   9.683   7.290   0.042 -1.4307  0.0772  0.8703
 1611SOL    HW214764   9.705   7.436   0.073  0.3912  0.0276 -0.0439
 1612SOL     OW14765  10.524  13.071   1.602 -0.3750 -0.0348  0.3211
 1612SOL    HW114766  10.611  13.037   1.625 -0.3553 -0.5333 -0.4733
 1612SOL    HW214767  10.537  13.116   1.519 -0.8673 -0.0756  0.2181
 1613SOL     OW14768   7.416  12.868   0.585  0.2276 -0.3363 -0.0173
 1613SOL    HW114769   7.361  12.834   0.655 -0.6361  1.2451  0.1207
 1613SOL    HW214770   7.401  12.963   0.586  2.5344  0.1021 -0.3404
 1614SOL     OW14771   5.588  12.606   9.026  0.2916  0.3687 -0.3856
 1614SOL    HW114772   5.604  12.687   8.976  0.8723  0.5843  0.1425
 1614SOL    HW214773   5.506  12.622   9.072  0.5947  0.7996  0.0042
 1615SOL     OW14774   1.392   1.916   6.178 -0.6826  0.2779  0.1471
 1615SOL    HW114775   1.313   1.971   6.176 -0.6725  0.4073  2.0861
 1615SOL    HW214776   1.461   1.974   6.210  0.2522  0.1532 -1.5018
 1616SOL     OW14777   4.535   9.302  10.405  0.1469  0.2007 -0.0021
 1616SOL    HW114778   4.597   9.363  10.445 -2.9059  2.9770  0.8717
 1616SOL    HW214779   4.450   9.344  10.415 -1.9736 -3.4546 -1.0141
 1617SOL     OW14780   4.207   4.900   7.600  0.0616  0.2459  0.2867
 1617SOL    HW114781   4.185   4.982   7.555 -0.3858  0.6135  1.1517
 1617SOL    HW214782   4.215   4.836   7.529 -0.3582  0.8687 -0.3441
 1618SOL     OW14783  11.443  11.503   0.449 -0.0188 -0.0834 -0.1601
 1618SOL    HW114784  11.510  11.437   0.431 -0.3317 -0.3022 -0.5284
 1618SOL    HW214785  11.469  11.541   0.533  0.4722 -0.2847 -0.2175
 1619SOL     OW14786  12.877   5.175  13.000 -0.4587  0.5264 -0.0149
 1619SOL    HW114787  12.910   5.096  12.956 -1.8139 -0.5667  0.8381
 1619SOL    HW214788  12.907   5.165  13.091 -1.3367  0.5633  0.2868
 1620SOL     OW14789  12.424   4.839   6.355 -0.2235 -0.2497  0.8461
 1620SOL    HW114790  12.428   4.815   6.447  0.0643  0.0524  0.9130
 1620SOL    HW214791  12.386   4.762   6.312 -1.2970 -0.0103  1.3427
 1621SOL     OW14792   3.120  10.689  10.790  0.5886 -0.1229 -0.2759
 1621SOL    HW114793   3.088  10.676  10.701 -1.2802  0.9341  0.1980
 1621SOL    HW214794   3.212  10.715  10.778 -0.5238  3.6651 -2.2211
 1622SOL     OW14795   3.046   5.439  11.395  0.4341 -0.2401 -0.0035
 1622SOL    HW114796   3.128   5.471  11.431  0.2168  2.7547 -1.8118
 1622SOL    HW214797   3.069   5.405  11.309 -0.0908 -0.2695 -0.1358
 1623SOL     OW14798  10.071   9.189   3.726 -0.2532  0.0310 -0.1463
 1623SOL    HW114799  10.012   9.239   3.783 -0.4695 -0.7386  0.3258
 1623SOL    HW214800  10.050   9.097   3.745  0.2809 -0.2398 -0.8394
 1624SOL     OW14801   7.921   7.971   3.897  0.1600 -0.0202  0.3290
 1624SOL    HW114802   7.968   8.019   3.829 -1.3209 -0.6017 -1.1815
 1624SOL    HW214803   7.977   7.978   3.974  1.2860  1.7897 -0.5694
 1625SOL     OW14804   0.846   1.787  12.414 -0.3929 -0.1145  0.2646
 1625SOL    HW114805   0.797   1.754  12.338  1.0438 -0.9929 -0.3349
 1625SOL    HW214806   0.930   1.814  12.378  0.4722 -0.9264  1.6017
 1626SOL     OW14807   4.695   6.034   2.933  0.4174 -0.5633 -0.2986
 1626SOL    HW114808   4.789   6.052   2.934  0.3617 -0.2721 -0.2715
 1626SOL    HW214809   4.689   5.940   2.915  0.6926 -0.4289 -1.1184
 1627SOL     OW14810   1.660   1.973   6.980  0.3406 -0.2439  0.4599
 1627SOL    HW114811   1.572   2.011   6.975  0.6157  0.3485 -0.0077
 1627SOL    HW214812   1.652   1.902   7.044 -0.8441 -1.1833 -0.6836
 1628SOL     OW14813  12.756   5.155   7.415 -0.0646  0.0879  0.2582
 1628SOL    HW114814  12.797   5.113   7.340 -0.0192  0.3050  0.1624
 1628SOL    HW214815  12.807   5.125   7.491  0.2564  0.3388  0.1422
 1629SOL     OW14816   4.070   0.405   0.193 -0.6391 -0.1460  0.7099
 1629SOL    HW114817   4.003   0.458   0.236 -0.7271 -0.1519  0.5809
 1629SOL    HW214818   4.147   0.415   0.248  0.1645  2.3269 -0.6884
 1630SOL     OW14819   8.847  12.567   7.059  0.6710  0.6428 -0.3119
 1630SOL    HW114820   8.774  12.589   7.001 -0.6129 -0.1720  0.9362
 1630SOL    HW214821   8.890  12.493   7.017 -0.8730 -0.6083  0.2422
 1631SOL     OW14822   2.373  10.175   5.041  0.0634 -0.1925  0.2464
 1631SOL    HW114823   2.433  10.215   5.105  0.6822 -0.4001 -0.1915
 1631SOL    HW214824   2.395  10.218   4.958  1.7095 -2.3657 -0.5271
 1632SOL     OW14825   9.313   9.395   5.754 -0.2462  0.1238  0.6017
 1632SOL    HW114826   9.272   9.310   5.739 -1.3590  0.8120 -0.3518
 1632SOL    HW214827   9.323   9.399   5.849 -0.5945 -0.8751  0.7006
 1633SOL     OW14828   1.302   1.819   2.360  0.2711  0.1058  0.3075
 1633SOL    HW114829   1.311   1.877   2.435 -0.4390  1.1388 -0.3747
 1633SOL    HW214830   1.211   1.789   2.364 -0.5180  2.0613 -1.4192
 1634SOL     OW14831   0.443   9.013  12.375  0.5699  0.1913 -0.3705
 1634SOL    HW114832   0.439   8.953  12.301 -0.6950 -0.4167  0.1541
 1634SOL    HW214833   0.404   8.964  12.447 -0.3627  1.5605  0.1028
 1635SOL     OW14834   3.461   7.734   1.117 -0.4199  0.1318  0.2107
 1635SOL    HW114835   3.480   7.820   1.155 -1.5818  0.9581 -1.0189
 1635SOL    HW214836   3.371   7.740   1.087 -0.7535 -1.7594  0.6969
 1636SOL     OW14837   9.143  12.327  10.555  0.0261  0.0615  0.3428
 1636SOL    HW114838   9.137  12.239  10.593  0.1135  0.9243  2.4746
 1636SOL    HW214839   9.059  12.368  10.576 -0.1840  0.3710 -1.0195
 1637SOL     OW14840   6.708   1.829   8.044  0.2495 -0.5206  0.2757
 1637SOL    HW114841   6.743   1.749   8.006  0.4564 -0.3412  0.0941
 1637SOL    HW214842   6.784   1.877   8.075  0.3276  0.6582 -1.6248
 1638SOL     OW14843   4.761  12.245   7.294 -0.7560 -0.5486  0.0166
 1638SOL    HW114844   4.712  12.326   7.312  1.5626  0.9611 -0.0085
 1638SOL    HW214845   4.756  12.234   7.199 -2.1045 -1.1726  0.1369
 1639SOL     OW14846   9.696   9.083  11.862  0.0940  0.1267 -0.3228
 1639SOL    HW114847   9.757   9.114  11.929 -0.9810 -1.0640  1.2820
 1639SOL    HW214848   9.717   9.135  11.785  1.5653  1.3651  0.8452
 1640SOL     OW14849   6.711   5.553   3.184 -0.1990  0.3055 -0.6099
 1640SOL    HW114850   6.689   5.571   3.275  0.2181  2.3055 -0.8507
 1640SOL    HW214851   6.747   5.464   3.185  0.8704  0.7026  1.3731
 1641SOL     OW14852   8.479   5.529   7.656 -0.3432 -0.2269 -0.2817
 1641SOL    HW114853   8.457   5.623   7.655 -0.1026 -0.1515  0.7155
 1641SOL    HW214854   8.394   5.485   7.662 -0.4826 -0.0956 -1.1630
 1642SOL     OW14855   0.011  11.514   8.237 -0.4943 -0.1201 -0.2237
 1642SOL    HW114856  -0.037  11.546   8.313  0.4580  1.8357 -0.3640
 1642SOL    HW214857  -0.026  11.428   8.218 -1.3611 -0.2557  1.8847
 1643SOL     OW14858   8.410   5.877   2.188 -0.5382  0.2738 -0.5653
 1643SOL    HW114859   8.419   5.821   2.111  0.6735 -1.3194  0.6613
 1643SOL    HW214860   8.331   5.844   2.232 -0.5927  0.4454 -0.5336
 1644SOL     OW14861   7.686  12.430   1.417 -0.2017  0.2785 -0.0327
 1644SOL    HW114862   7.778  12.405   1.420 -0.2970 -0.1670 -0.6420
 1644SOL    HW214863   7.645  12.381   1.489 -0.1416 -0.3038 -0.3892
 1645SOL     OW14864   6.335  10.832   7.407 -0.4735 -0.5564 -0.1266
 1645SOL    HW114865   6.266  10.814   7.344 -0.6110  0.0780 -0.1689
 1645SOL    HW214866   6.293  10.886   7.474 -0.3739 -1.3788  0.6054
 1646SOL     OW14867  10.409   2.299   1.863 -0.0355 -0.4687  0.1831
 1646SOL    HW114868  10.498   2.268   1.881  0.1883 -0.5671 -1.0358
 1646SOL    HW214869  10.405   2.386   1.902  0.5188 -0.5577  0.4426
 1647SOL     OW14870  10.036   6.109  10.356  0.0315  0.2564 -0.4684
 1647SOL    HW114871  10.036   6.149  10.269  1.0712  2.6321  0.5582
 1647SOL    HW214872   9.953   6.061  10.360 -0.9145  1.6562 -2.0811
 1648SOL     OW14873   5.524   5.641   6.633 -0.0022  0.0530  0.4477
 1648SOL    HW114874   5.525   5.546   6.645  0.9736  0.2477  2.3764
 1648SOL    HW214875   5.457   5.656   6.567  0.9027 -2.0830 -1.1020
 1649SOL     OW14876  11.791   6.550   4.569 -0.0935 -0.3963  0.7178
 1649SOL    HW114877  11.731   6.549   4.494  1.2589 -0.8769 -0.4058
 1649SOL    HW214878  11.743   6.506   4.639 -0.3096 -2.7221 -0.7783
 1650SOL     OW14879   1.002   0.440  11.502 -0.2368  0.0816 -0.4838
 1650SOL    HW114880   1.001   0.451  11.407 -1.9985  3.6049 -0.2163
 1650SOL    HW214881   1.069   0.500  11.534  0.7050 -1.4332  0.5487
 1651SOL     OW14882  12.035   6.864   4.948  0.3529 -0.2649 -0.1491
 1651SOL    HW114883  12.091   6.924   4.997  0.2185 -1.4322  1.4873
 1651SOL    HW214884  11.965   6.841   5.008 -1.0649 -0.0535 -1.6467
 1652SOL     OW14885   7.402   9.411  10.903 -0.3550  0.0977  0.1208
 1652SOL    HW114886   7.318   9.367  10.918  0.3256 -1.6138 -0.7316
 1652SOL    HW214887   7.425   9.448  10.988 -2.2479  1.1633  0.2165
 1653SOL     OW14888   8.297   3.833   3.857 -0.0467 -0.6475 -0.9366
 1653SOL    HW114889   8.381   3.856   3.816 -0.3541 -0.2795 -1.3663
 1653SOL    HW214890   8.286   3.740   3.837  0.4769 -0.8173 -0.4813
 1654SOL     OW14891   0.021  12.852   6.230 -0.0995 -0.1424  0.0617
 1654SOL    HW114892   0.018  12.819   6.320  0.3268 -1.0056 -0.2271
 1654SOL    HW214893  -0.065  12.891   6.215 -0.7357 -1.4224  0.3182
 1655SOL     OW14894   2.027   1.707   3.888 -0.0479 -0.0208 -0.0073
 1655SOL    HW114895   2.118   1.694   3.912  0.0091  0.3453 -0.0172
 1655SOL    HW214896   1.986   1.740   3.968 -0.3671 -1.0338  0.2566
 1656SOL     OW14897   6.757   7.745   3.742  0.2455  0.1989  0.3461
 1656SOL    HW114898   6.704   7.805   3.793 -0.4243  0.0745 -0.1962
 1656SOL    HW214899   6.730   7.759   3.651 -0.1464 -1.1241  0.2367
 1657SOL     OW14900   2.575   8.379   0.231  0.3525 -0.9956 -0.0730
 1657SOL    HW114901   2.572   8.298   0.283  0.3955 -1.0924 -0.2211
 1657SOL    HW214902   2.506   8.434   0.268  0.1431 -1.2063 -0.1485
 1658SOL     OW14903   2.177   9.344   6.611 -0.2526  0.1356 -0.0813
 1658SOL    HW114904   2.264   9.331   6.572 -0.6418 -0.1713 -0.8834
 1658SOL    HW214905   2.173   9.437   6.631  1.0755 -0.2035  2.0056
 1659SOL     OW14906  12.842   2.110   5.616  0.3169 -0.2346  0.0163
 1659SOL    HW114907  12.802   2.122   5.530  1.2576  0.5093 -0.3449
 1659SOL    HW214908  12.932   2.084   5.596  1.0080  1.4592  0.7209
 1660SOL     OW14909   3.667  12.513  12.609 -0.2403 -0.6651 -0.1974
 1660SOL    HW114910   3.753  12.511  12.651  0.7067 -0.2204 -1.9907
 1660SOL    HW214911   3.622  12.435  12.643 -0.1502  0.4270  2.7033
 1661SOL     OW14912   7.041  11.275   2.222  0.0415 -0.2687 -0.0946
 1661SOL    HW114913   7.117  11.324   2.193 -1.5611  3.0052  0.7084
 1661SOL    HW214914   6.999  11.245   2.141  0.5433  0.5663 -0.6700
 1662SOL     OW14915   8.217  13.175  12.752  0.4474  0.1417 -0.4860
 1662SOL    HW114916   8.149  13.107  12.755 -1.0654  1.3419 -3.5653
 1662SOL    HW214917   8.299  13.127  12.765 -0.7882 -1.5759  1.8176
 1663SOL     OW14918   5.461   7.894   0.057 -0.1723 -0.3438 -0.1674
 1663SOL    HW114919   5.484   7.910  -0.035  0.1569 -1.8144 -0.3593
 1663SOL    HW214920   5.425   7.806   0.058  0.3599 -0.5752  1.2088
 1664SOL     OW14921   5.042   2.423   3.659 -0.3237 -0.0795  0.2199
 1664SOL    HW114922   5.135   2.405   3.673 -0.5030 -0.4106  1.0547
 1664SOL    HW214923   5.009   2.449   3.745 -0.8799  0.6032 -0.1906
 1665SOL     OW14924   6.227   8.410  12.058  0.6305  0.3075  0.2608
 1665SOL    HW114925   6.255   8.337  12.113  1.6150  0.8006  0.4370
 1665SOL    HW214926   6.132   8.417  12.073  0.7799  0.0472  1.4140
 1666SOL     OW14927   0.894  12.799   6.276 -0.3798 -0.9217  0.5349
 1666SOL    HW114928   0.947  12.807   6.356 -0.6066  0.9966  0.5503
 1666SOL    HW214929   0.808  12.833   6.301 -0.1084  0.9140 -0.7907
 1667SOL     OW14930  11.380   3.567   8.401 -0.0782  0.1835 -0.6019
 1667SOL    HW114931  11.291   3.589   8.376 -0.4205  1.4681  1.4806
 1667SOL    HW214932  11.388   3.597   8.492  1.8754 -1.6397 -0.0741
 1668SOL     OW14933   7.757  11.439   4.630 -0.1968  0.1670 -0.1081
 1668SOL    HW114934   7.704  11.499   4.577 -1.1430 -2.1941 -1.9980
 1668SOL    HW214935   7.698  11.366   4.651  0.4178  0.5194  3.5331
 1669SOL     OW14936  11.523   3.065   9.404 -0.2158  0.5334  0.4521
 1669SOL    HW114937  11.462   3.130   9.370 -0.3164  0.6000  0.7645
 1669SOL    HW214938  11.478   3.024   9.477 -0.6823 -0.7977 -0.5205
 1670SOL     OW14939   2.129   3.670   7.316  0.0345  0.1137 -0.2942
 1670SOL    HW114940   2.129   3.713   7.402 -1.1442  0.4619 -0.4493
 1670SOL    HW214941   2.220   3.674   7.287  0.6492 -0.8624  1.3520
 1671SOL     OW14942   0.444  12.037   9.463 -0.0198  0.0650 -0.3008
 1671SOL    HW114943   0.537  12.042   9.439 -0.1494  0.3097 -0.7716
 1671SOL    HW214944   0.443  12.045   9.558  0.4496 -0.0336 -0.2843
 1672SOL     OW14945   3.623   0.798  13.168  0.2267  0.0927  0.0565
 1672SOL    HW114946   3.550   0.770  13.113  1.4070  2.6993 -3.1381
 1672SOL    HW214947   3.701   0.759  13.127  0.8959 -1.8227  2.8123
 1673SOL     OW14948   4.933   8.045  12.416 -0.1638 -0.6030  0.3612
 1673SOL    HW114949   4.999   8.067  12.349 -1.9126  0.2734 -1.1680
 1673SOL    HW214950   4.960   7.960  12.449  2.3518  0.2104  0.6145
 1674SOL     OW14951   8.111  12.529   1.612 -0.7629  0.3237  0.1470
 1674SOL    HW114952   8.074  12.613   1.639 -0.7132  0.3728  0.0655
 1674SOL    HW214953   8.162  12.499   1.687 -2.2872 -0.5300  0.8991
 1675SOL     OW14954   8.261   7.935   6.477 -0.2167 -0.4256 -0.1255
 1675SOL    HW114955   8.292   7.871   6.412 -2.6858 -1.4807 -0.3805
 1675SOL    HW214956   8.182   7.971   6.438  0.3032  1.7545  0.7022
 1676SOL     OW14957  11.685  10.726   4.914  0.5112 -0.6647  0.0121
 1676SOL    HW114958  11.777  10.722   4.890  0.3328 -1.8544 -0.5455
 1676SOL    HW214959  11.641  10.758   4.836  0.3259 -1.2819 -0.1478
 1677SOL     OW14960   7.965  11.493  10.238  0.3963  0.0049  0.0171
 1677SOL    HW114961   7.948  11.586  10.245  2.0752  0.2359  1.6804
 1677SOL    HW214962   7.884  11.451  10.267 -0.4232  0.9085 -0.9002
 1678SOL     OW14963   2.384  12.405   2.720 -0.2657 -0.0545 -0.0204
 1678SOL    HW114964   2.439  12.426   2.796  1.5916 -0.8505 -1.0542
 1678SOL    HW214965   2.386  12.484   2.667  2.4288 -0.9457 -1.4426
 1679SOL     OW14966   2.823   3.155   1.267 -0.6033  0.0536  0.4463
 1679SOL    HW114967   2.904   3.106   1.276 -0.4058  0.6623  2.5004
 1679SOL    HW214968   2.805   3.188   1.355 -3.3346 -0.4761  0.1954
 1680SOL     OW14969   0.899   2.340   0.437 -0.5944 -0.0958 -0.3502
 1680SOL    HW114970   0.821   2.326   0.383 -1.3055 -1.2092  0.8943
 1680SOL    HW214971   0.876   2.412   0.496 -0.8600 -0.6845  0.2856
 1681SOL     OW14972   9.314   3.085  12.729  0.2065 -0.4085 -0.0932
 1681SOL    HW114973   9.384   3.142  12.760  0.4447 -0.6156 -0.2379
 1681SOL    HW214974   9.360   3.018  12.677  0.0280 -1.2384  0.7980
 1682SOL     OW14975  12.572   1.864   1.507 -0.2557 -0.3115  0.1768
 1682SOL    HW114976  12.594   1.942   1.457 -1.0767 -0.0401  0.2240
 1682SOL    HW214977  12.625   1.870   1.586  0.0092 -0.0269 -0.0237
 1683SOL     OW14978  11.984   9.982   2.323 -0.4807  0.0538 -0.0222
 1683SOL    HW114979  12.080   9.981   2.316 -0.5056  0.9206 -0.5763
 1683SOL    HW214980  11.962  10.075   2.329 -1.5397  0.2121 -3.8131
 1684SOL     OW14981   0.292   9.237  10.516  0.5967 -0.5360 -0.0883
 1684SOL    HW114982   0.266   9.302  10.451  0.2448 -0.5184  0.0696
 1684SOL    HW214983   0.231   9.249  10.589  1.0408 -0.5046  0.2770
 1685SOL     OW14984   8.455  13.201   6.516  0.3438 -0.3139  0.0999
 1685SOL    HW114985   8.423  13.211   6.606  0.4236  0.8146  0.0224
 1685SOL    HW214986   8.533  13.257   6.512  0.6420 -0.7602 -0.5280
 1686SOL     OW14987   0.947   9.270   5.291  0.3214 -0.2272 -0.7214
 1686SOL    HW114988   0.867   9.221   5.308  0.5675 -0.2433  0.4774
 1686SOL    HW214989   1.017   9.211   5.319  0.5862  1.1401  1.7537
 1687SOL     OW14990   9.039   9.507   7.520 -0.1025 -0.0286  0.0659
 1687SOL    HW114991   8.945   9.511   7.501 -0.2412  0.3378  0.7848
 1687SOL    HW214992   9.063   9.598   7.539  0.3698 -0.1377 -0.0017
 1688SOL     OW14993   5.691  11.490  13.186  0.1653  1.0560  0.3261
 1688SOL    HW114994   5.730  11.542  13.256  1.0771  0.3295  0.3808
 1688SOL    HW214995   5.766  11.461  13.134 -0.4224  0.7384 -0.3632
 1689SOL     OW14996  12.994   7.217   6.775  0.2728  0.3156 -0.0746
 1689SOL    HW114997  13.041   7.154   6.829 -1.2126 -2.7182 -2.0637
 1689SOL    HW214998  13.040   7.215   6.691  0.2410  2.0063 -0.1643
 1690SOL     OW14999   5.181   7.637  11.329 -0.3361  0.4132 -0.0024
 1690SOL    HW115000   5.096   7.656  11.367 -0.1862 -0.5426  0.8416
 1690SOL    HW215001   5.164   7.628  11.235 -1.2162 -0.0897  0.2021
 1691SOL     OW15002   6.678   8.968  11.005  0.1305 -0.3423  0.4593
 1691SOL    HW115003   6.674   9.060  10.978  0.5467 -0.7330 -1.0079
 1691SOL    HW215004   6.631   8.966  11.088 -2.8010  0.6291 -1.0371
 1692SOL     OW15005   1.084   8.556   2.789  0.2102  0.5258 -0.3875
 1692SOL    HW115006   1.107   8.647   2.807 -0.0272  0.6897 -0.8853
 1692SOL    HW215007   0.991   8.550   2.811  0.4502  0.1461  0.5823
 1693SOL     OW15008   8.628   2.021  12.453 -0.3567 -0.7471 -0.2766
 1693SOL    HW115009   8.584   2.082  12.511 -1.9108 -0.3316 -1.7926
 1693SOL    HW215010   8.666   1.955  12.511 -0.1761  0.6722  1.2816
 1694SOL     OW15011   7.254   6.710   6.863 -0.7163 -0.5011 -0.4756
 1694SOL    HW115012   7.224   6.739   6.776  1.3292 -0.6982 -1.2908
 1694SOL    HW215013   7.221   6.621   6.870 -0.2818 -0.7477 -1.3847
 1695SOL     OW15014   0.610   1.121   3.586  0.6350 -0.2488 -0.5081
 1695SOL    HW115015   0.668   1.081   3.650  1.1310 -0.6761 -1.2082
 1695SOL    HW215016   0.653   1.203   3.562 -0.3973  0.7683  0.9518
 1696SOL     OW15017   7.659  11.191   3.015  0.4498 -0.0794 -0.0237
 1696SOL    HW115018   7.597  11.159   2.949 -1.0282 -1.3803  1.8867
 1696SOL    HW215019   7.607  11.251   3.069  1.3003  0.0211  0.6902
 1697SOL     OW15020   0.837   6.752  10.913 -0.3199 -0.0806  0.2189
 1697SOL    HW115021   0.743   6.736  10.928  0.2116 -2.3808  1.5592
 1697SOL    HW215022   0.839   6.810  10.837 -2.8622  1.3532  1.0843
 1698SOL     OW15023  12.067   3.824  12.093 -0.5715  0.2922 -0.3493
 1698SOL    HW115024  12.094   3.897  12.038  0.1234 -0.5152 -1.0978
 1698SOL    HW215025  12.131   3.756  12.077 -0.7822 -0.2406  0.9040
 1699SOL     OW15026   7.613  13.171   3.970  0.3624  0.4283  0.4374
 1699SOL    HW115027   7.635  13.080   3.994 -0.1207  0.6791  1.9496
 1699SOL    HW215028   7.693  13.220   3.989  0.0103  0.6115  1.5086
 1700SOL     OW15029   0.624   4.575   6.904 -0.6874  0.1337  0.2007
 1700SOL    HW115030   0.664   4.491   6.927 -0.3957  0.6933  1.8674
 1700SOL    HW215031   0.683   4.641   6.941 -2.1132  1.0178  0.9978
 1701SOL     OW15032   5.652  11.091   1.335  0.4625 -0.1834 -0.0776
 1701SOL    HW115033   5.706  11.159   1.294  1.9113 -1.6017 -0.6338
 1701SOL    HW215034   5.714  11.039   1.387 -0.8742 -0.1547  1.6448
 1702SOL     OW15035   1.188   5.945   2.494  0.4123 -0.4622  0.0444
 1702SOL    HW115036   1.193   5.900   2.578  1.7355  0.7022  0.6285
 1702SOL    HW215037   1.203   5.878   2.428  0.8055 -1.1281  0.8084
 1703SOL     OW15038   6.216   3.227   0.322 -0.3488 -0.0105  0.3342
 1703SOL    HW115039   6.211   3.189   0.234 -0.5715  0.2373  0.2380
 1703SOL    HW215040   6.290   3.183   0.363  0.2866  0.4723 -0.2687
 1704SOL     OW15041  10.932   9.172   2.963 -0.8477 -0.4416 -0.1400
 1704SOL    HW115042  10.860   9.200   3.019 -1.1460  0.3402 -0.8994
 1704SOL    HW215043  10.902   9.090   2.924 -0.3925 -1.3195  1.2824
 1705SOL     OW15044   2.927   1.913   7.730 -0.0555  0.4469 -0.6764
 1705SOL    HW115045   2.953   1.890   7.641  0.8895  1.0148 -0.5551
 1705SOL    HW215046   2.875   1.838   7.760 -1.3055  0.7139 -2.0671
 1706SOL     OW15047   0.154   3.962  12.005 -0.4758 -0.2271 -0.0358
 1706SOL    HW115048   0.080   3.921  12.050 -0.4061  1.1552  1.4142
 1706SOL    HW215049   0.209   3.889  11.977 -1.0987 -1.1743  1.1531
 1707SOL     OW15050   2.218   6.204  12.920  0.6021 -0.1640  0.2732
 1707SOL    HW115051   2.193   6.269  12.854 -0.2664 -1.0045 -0.2494
 1707SOL    HW215052   2.166   6.227  12.997 -0.0648 -0.5035 -0.0629
 1708SOL     OW15053   0.155   2.509  11.001 -0.6542  0.0509  0.5936
 1708SOL    HW115054   0.107   2.434  10.965 -1.3186  0.6028  0.2860
 1708SOL    HW215055   0.225   2.471  11.053 -1.0332 -0.7809  0.5082
 1709SOL     OW15056   8.485   1.580  11.216  0.5730 -0.0903 -0.6341
 1709SOL    HW115057   8.531   1.617  11.141 -0.7704  0.8409 -1.0467
 1709SOL    HW215058   8.397   1.559  11.182  0.2583 -0.5780  0.4318
 1710SOL     OW15059   0.258   4.246  10.706 -0.7637  0.1735 -0.5706
 1710SOL    HW115060   0.278   4.169  10.760 -1.6205 -0.0376 -0.5383
 1710SOL    HW215061   0.172   4.275  10.738 -1.5660 -0.2871 -2.1767
 1711SOL     OW15062   0.611   9.969   3.078 -0.1924 -0.2228  0.0212
 1711SOL    HW115063   0.525   9.964   3.035 -0.3643  3.0689 -0.2858
 1711SOL    HW215064   0.591   9.980   3.171 -0.1594  1.0010 -0.1036
 1712SOL     OW15065  12.247   1.365   1.287 -0.0002  0.3930 -0.4579
 1712SOL    HW115066  12.269   1.433   1.349  1.5966 -0.6509  0.1963
 1712SOL    HW215067  12.329   1.316   1.275 -0.8889 -0.9291 -1.4809
 1713SOL     OW15068   4.329  11.699   8.203  0.2880 -0.6139 -0.1379
 1713SOL    HW115069   4.338  11.604   8.206  1.6774 -0.5913 -1.7195
 1713SOL    HW215070   4.418  11.732   8.216 -0.2398  0.5028  0.7958
 1714SOL     OW15071  12.104  11.243   3.549  0.4944  0.4799 -0.1733
 1714SOL    HW115072  12.040  11.176   3.526  0.2001 -0.0484  1.9211
 1714SOL    HW215073  12.055  11.309   3.596  1.4237  0.0648  1.4733
 1715SOL     OW15074   1.300  10.762  10.483  0.4588 -0.5333  0.0133
 1715SOL    HW115075   1.331  10.687  10.433 -2.9773 -0.8536 -1.9789
 1715SOL    HW215076   1.295  10.730  10.573  1.4319 -1.8728 -0.3775
 1716SOL     OW15077  11.532   8.484  11.276 -0.2183  0.1791 -0.4750
 1716SOL    HW115078  11.607   8.477  11.334  0.2283 -0.4490 -1.1082
 1716SOL    HW215079  11.461   8.518  11.331  0.2518 -0.1942  0.3715
 1717SOL     OW15080   2.857  12.024   9.312 -0.0776 -0.5191  0.5063
 1717SOL    HW115081   2.785  12.071   9.269  1.4924  0.3198 -1.3721
 1717SOL    HW215082   2.838  11.931   9.296 -0.7966 -0.3151  0.1309
 1718SOL     OW15083   3.057   7.142   5.281 -0.1211 -0.5070  0.1760
 1718SOL    HW115084   2.970   7.167   5.314  0.5381  2.3562 -0.0731
 1718SOL    HW215085   3.053   7.159   5.187  1.3103  1.8231  0.4608
 1719SOL     OW15086  11.065   5.812  11.512 -0.1106 -0.6632 -0.0200
 1719SOL    HW115087  11.013   5.881  11.552  1.6705 -0.3256  1.9148
 1719SOL    HW215088  11.057   5.738  11.572 -0.8792 -1.7001 -1.3575
 1720SOL     OW15089   6.346   1.643   1.973 -0.4377  0.5962  0.0744
 1720SOL    HW115090   6.312   1.661   1.886 -1.0489 -1.3428 -0.1455
 1720SOL    HW215091   6.434   1.681   1.973 -1.8043  4.1246  0.0377
 1721SOL     OW15092  10.998   3.333   3.581 -0.0613  0.4935  0.4332
 1721SOL    HW115093  11.018   3.366   3.669 -1.0300  0.0584  0.8360
 1721SOL    HW215094  10.937   3.260   3.596 -0.7552  0.8292 -0.6290
 1722SOL     OW15095   0.616   2.115   7.447  0.1718 -0.1382  0.5506
 1722SOL    HW115096   0.597   2.024   7.467  0.8632 -0.4637 -0.2090
 1722SOL    HW215097   0.582   2.128   7.358  0.6440  0.1609  0.4081
 1723SOL     OW15098  11.946   0.458   5.031  0.3323 -0.3029 -1.0032
 1723SOL    HW115099  12.035   0.434   5.058 -0.0765 -0.8575 -0.0869
 1723SOL    HW215100  11.939   0.426   4.941  1.2569  0.2881 -1.2925
 1724SOL     OW15101   4.936   9.378   8.154  0.0399 -0.4146 -0.8559
 1724SOL    HW115102   4.955   9.360   8.246  0.1659  0.3536 -0.7259
 1724SOL    HW215103   4.908   9.294   8.118 -0.7626 -0.5610  0.0712
 1725SOL     OW15104   1.303   6.940  11.336  0.7043  0.2355  0.2522
 1725SOL    HW115105   1.312   6.882  11.411  0.8412  0.1951  0.2044
 1725SOL    HW215106   1.276   7.024  11.373  1.0678  0.2991  0.3755
 1726SOL     OW15107   4.733   2.408   3.615  0.0451  0.5403  0.1858
 1726SOL    HW115108   4.686   2.484   3.580  0.7580  0.0227 -2.0561
 1726SOL    HW215109   4.824   2.437   3.617  0.0577  0.4356  1.3588
 1727SOL     OW15110   3.683   0.183   4.685  0.4528 -0.1417 -0.1099
 1727SOL    HW115111   3.686   0.268   4.640 -0.1562 -0.0509  0.0202
 1727SOL    HW215112   3.592   0.172   4.709  0.4228 -1.1044 -0.6367
 1728SOL     OW15113   8.197   6.429   4.461 -0.6166 -0.0809 -0.1994
 1728SOL    HW115114   8.267   6.444   4.525 -1.0172 -1.3478  0.5782
 1728SOL    HW215115   8.150   6.512   4.457  0.0744  0.3464  0.3501
 1729SOL     OW15116   2.345  13.290   3.222 -0.0147  0.1093 -0.4439
 1729SOL    HW115117   2.389  13.283   3.307 -1.6601 -2.8595  0.2870
 1729SOL    HW215118   2.257  13.320   3.243 -0.8144 -1.8036 -0.9012
 1730SOL     OW15119   3.169  13.211   0.454 -0.4259 -0.5099 -0.0579
 1730SOL    HW115120   3.112  13.154   0.402 -2.2259 -0.1627  1.4388
 1730SOL    HW215121   3.219  13.261   0.389 -1.4528 -1.2153 -1.4315
 1731SOL     OW15122   9.251   5.492  13.310 -0.1908  0.0300  0.3450
 1731SOL    HW115123   9.332   5.492  13.257 -0.8889  1.3103 -0.8061
 1731SOL    HW215124   9.270   5.434  13.383  0.8186 -1.8931 -1.3378
 1732SOL     OW15125  11.670   8.179  10.839 -0.3859 -0.1582  0.0256
 1732SOL    HW115126  11.636   8.166  10.928  1.1559 -1.0256  0.5181
 1732SOL    HW215127  11.623   8.256  10.807 -2.4550 -0.9962  0.8184
 1733SOL     OW15128   3.864   8.501  12.746 -0.0637 -0.1304  0.0786
 1733SOL    HW115129   3.814   8.577  12.776 -1.2251 -0.3955 -1.1431
 1733SOL    HW215130   3.804   8.427  12.755  0.6062 -0.7035 -0.0439
 1734SOL     OW15131   3.649  12.715   8.298 -0.7835  0.5584  0.0398
 1734SOL    HW115132   3.656  12.664   8.378  0.8449  1.3427  0.4252
 1734SOL    HW215133   3.670  12.653   8.228 -1.4808  0.0621  0.2538
 1735SOL     OW15134  10.091   5.082   4.647 -0.1028  0.0391  0.6362
 1735SOL    HW115135  10.084   5.097   4.553  0.7547  1.0670  0.7183
 1735SOL    HW215136  10.016   5.127   4.685  0.1766  0.5993  0.5315
 1736SOL     OW15137   8.866   1.991  11.090  0.5301 -0.0749 -0.2600
 1736SOL    HW115138   8.820   1.911  11.064 -0.8790  0.6087  0.0710
 1736SOL    HW215139   8.905   2.024  11.009  1.1584 -1.0892 -0.3989
 1737SOL     OW15140   2.286   6.066  10.933  0.5397  0.2004 -0.2405
 1737SOL    HW115141   2.275   6.123  11.008  2.2589  0.1034  0.1257
 1737SOL    HW215142   2.369   6.021  10.948 -0.3081 -1.7427 -0.9511
 1738SOL     OW15143   5.862   6.740   6.168  0.3550  0.6035  0.4332
 1738SOL    HW115144   5.813   6.659   6.173 -0.4465  1.1013  1.0145
 1738SOL    HW215145   5.869   6.759   6.075  0.1624  0.1023  0.3144
 1739SOL     OW15146   7.952   7.849  10.747 -0.4309  0.0489 -0.4020
 1739SOL    HW115147   7.952   7.914  10.817  0.8763 -0.2545 -0.0937
 1739SOL    HW215148   7.961   7.901  10.667  1.5473  0.2569 -0.1067
 1740SOL     OW15149  11.269   3.921   9.075  0.4823  0.5652 -0.1334
 1740SOL    HW115150  11.195   3.962   9.031  1.0634  1.9307  0.1036
 1740SOL    HW215151  11.277   3.967   9.158  0.8540 -0.3925  0.3830
 1741SOL     OW15152   8.842   0.032  10.267 -0.8007  0.0231  0.0821
 1741SOL    HW115153   8.901  -0.038  10.295 -0.6419  0.0606 -0.1569
 1741SOL    HW215154   8.783   0.045  10.342  0.3641  0.9341  0.8678
 1742SOL     OW15155   5.704   1.521   4.911  0.4292 -0.3693  0.4048
 1742SOL    HW115156   5.687   1.434   4.875 -1.8276 -0.7521  2.1299
 1742SOL    HW215157   5.761   1.564   4.847  0.6285 -2.6881 -1.0595
 1743SOL     OW15158   6.418   1.697   1.083 -0.1113  0.3378 -0.6630
 1743SOL    HW115159   6.424   1.776   1.137  0.1305 -0.1147  0.0021
 1743SOL    HW215160   6.330   1.664   1.099 -0.0819  0.2718 -0.6354
 1744SOL     OW15161   4.981   6.285   7.026  0.2601  0.2460 -0.0620
 1744SOL    HW115162   4.951   6.195   7.020 -1.0104  0.6981 -1.2056
 1744SOL    HW215163   4.989   6.302   7.119 -1.3649 -0.4812  0.2484
 1745SOL     OW15164   4.036   4.625  11.922  0.0271 -0.6305  0.5514
 1745SOL    HW115165   3.946   4.653  11.938 -0.0494 -1.2925  1.2759
 1745SOL    HW215166   4.047   4.637  11.827 -0.3100  0.9241  0.6771
 1746SOL     OW15167   0.259   2.989  12.234 -0.1884  0.0660  0.8668
 1746SOL    HW115168   0.228   3.038  12.158 -0.1866  0.2259  0.9707
 1746SOL    HW215169   0.338   3.034  12.261 -0.0957 -0.0919  0.8611
 1747SOL     OW15170   6.354  11.115   2.624 -0.5910 -0.1479  0.3352
 1747SOL    HW115171   6.406  11.195   2.629 -1.4897  0.4392  0.5708
 1747SOL    HW215172   6.417  11.047   2.600  0.5477  0.2835  1.8960
 1748SOL     OW15173   7.458   2.418  10.973  0.9404  0.0169 -0.3823
 1748SOL    HW115174   7.539   2.434  10.925  1.9886 -0.3379  1.1877
 1748SOL    HW215175   7.485   2.369  11.051 -0.5154  1.4486  1.1074
 1749SOL     OW15176   9.820   8.057   7.193  0.3988 -0.4059 -0.3249
 1749SOL    HW115177   9.729   8.056   7.223 -0.1408  0.6198 -1.7843
 1749SOL    HW215178   9.822   8.127   7.128  2.4811  0.2642  0.3947
 1750SOL     OW15179   3.262  11.228   0.125  0.7767  0.0578  0.5205
 1750SOL    HW115180   3.220  11.184   0.199 -0.4513  1.7734  0.8999
 1750SOL    HW215181   3.202  11.214   0.052 -0.6450  2.6052  1.0890
 1751SOL     OW15182   7.271  10.133   9.825  0.8146 -0.8091 -0.0431
 1751SOL    HW115183   7.364  10.140   9.801  0.3281  1.9197 -1.6036
 1751SOL    HW215184   7.241  10.224   9.829 -2.0254 -1.6330 -0.5900
 1752SOL     OW15185  12.323   3.390   6.141  0.0486 -0.9980 -0.3721
 1752SOL    HW115186  12.411   3.404   6.107  0.2480 -1.6326 -0.1321
 1752SOL    HW215187  12.267   3.449   6.090  0.8907  0.9540  0.8698
 1753SOL     OW15188   7.078   0.229   6.026 -0.4117 -0.5231 -0.0424
 1753SOL    HW115189   7.036   0.290   5.966  0.8009  0.1954 -0.1823
 1753SOL    HW215190   7.148   0.190   5.975 -0.7813 -1.5957  0.2396
 1754SOL     OW15191   6.088   0.191   3.830 -0.4150 -0.0607 -0.2150
 1754SOL    HW115192   6.078   0.108   3.877 -0.9275  1.3751  2.4195
 1754SOL    HW215193   6.004   0.236   3.842  0.6103  1.8013  0.5196
 1755SOL     OW15194   2.902   1.583   5.262 -0.2033  0.4383 -0.4915
 1755SOL    HW115195   2.956   1.650   5.304  1.8072 -0.3030 -1.7472
 1755SOL    HW215196   2.874   1.527   5.334 -0.0242  1.3457  0.3066
 1756SOL     OW15197   0.419   0.180   0.129 -0.3138  0.2992 -0.0573
 1756SOL    HW115198   0.418   0.208   0.037  0.4386  1.0815  0.1586
 1756SOL    HW215199   0.503   0.134   0.139  0.2370  1.3961  0.5555
 1757SOL     OW15200   3.269   2.555   5.301  0.2629  0.0319 -0.0831
 1757SOL    HW115201   3.286   2.472   5.255  0.9898 -0.3127  0.7839
 1757SOL    HW215202   3.323   2.551   5.379  0.3192  1.3392 -0.0261
 1758SOL     OW15203   2.722  10.200   0.167  0.3052  0.0070 -0.3307
 1758SOL    HW115204   2.723  10.219   0.261  0.5503  0.1892 -0.3713
 1758SOL    HW215205   2.658  10.130   0.158  0.9144 -0.6113  0.0865
 1759SOL     OW15206  11.476  11.027   7.970  0.4097  0.5158 -0.3250
 1759SOL    HW115207  11.425  11.088   8.023 -1.5987 -1.4996  0.2038
 1759SOL    HW215208  11.515  11.082   7.901  2.7631  3.1797  2.7799
 1760SOL     OW15209   6.885  12.840   3.128  1.0154  0.3067  0.6005
 1760SOL    HW115210   6.920  12.818   3.214  1.2283  1.0955  0.7223
 1760SOL    HW215211   6.864  12.934   3.134 -2.1201 -0.2971  0.8982
 1761SOL     OW15212   1.660   1.402  11.593 -0.2886 -0.2181 -0.4292
 1761SOL    HW115213   1.663   1.347  11.671 -0.9279  0.6969  0.2596
 1761SOL    HW215214   1.600   1.357  11.534  1.0791 -1.5149 -0.8934
 1762SOL     OW15215   6.823   8.234   4.699  0.2841 -0.1825 -0.4173
 1762SOL    HW115216   6.772   8.280   4.766 -0.8815  1.2930 -2.2451
 1762SOL    HW215217   6.810   8.141   4.719 -1.6210  0.1818  0.2647
 1763SOL     OW15218  12.618   5.562   3.154 -0.2473 -0.0055 -0.0945
 1763SOL    HW115219  12.654   5.642   3.117  1.4211 -0.3804  0.6337
 1763SOL    HW215220  12.531   5.555   3.115  0.0260  1.5274 -1.0753
 1764SOL     OW15221   5.705  12.076   5.985 -0.3970 -0.6773 -0.4613
 1764SOL    HW115222   5.706  11.981   5.974 -2.5915 -0.9148  0.8955
 1764SOL    HW215223   5.798  12.101   5.984  0.3957 -3.1273  1.3642
 1765SOL     OW15224   1.592   6.679   9.523 -0.8980  0.3580 -0.5812
 1765SOL    HW115225   1.589   6.759   9.576 -1.2947  0.1056 -0.2207
 1765SOL    HW215226   1.671   6.633   9.552 -0.9248  0.3902 -0.4598
 1766SOL     OW15227   9.442   0.828   2.244 -0.1410 -0.2979 -0.2246
 1766SOL    HW115228   9.416   0.919   2.238 -0.9393 -0.4434  0.7931
 1766SOL    HW215229   9.371   0.785   2.292  1.4299 -0.9266  1.6605
 1767SOL     OW15230   9.336  10.878   5.406 -0.3011  0.0375 -0.3121
 1767SOL    HW115231   9.247  10.910   5.419 -0.5567  0.0589 -1.8753
 1767SOL    HW215232   9.342  10.799   5.459 -1.2659  0.0310 -0.2014
 1768SOL     OW15233  12.248   1.965   7.425  0.1538  0.0309  0.0758
 1768SOL    HW115234  12.342   1.960   7.409  0.0128  0.9645 -1.1397
 1768SOL    HW215235  12.228   1.886   7.475  1.2588 -1.1646 -1.2954
 1769SOL     OW15236   6.773   0.786   8.849 -0.2579 -0.2057  0.6128
 1769SOL    HW115237   6.742   0.810   8.936  0.5765  1.5779  0.4723
 1769SOL    HW215238   6.866   0.766   8.861 -0.0838  0.2776  0.1086
 1770SOL     OW15239   7.982   5.512   4.382 -0.4303 -0.1612  0.4254
 1770SOL    HW115240   7.979   5.572   4.308  1.3138 -1.5555 -0.8784
 1770SOL    HW215241   7.891   5.494   4.403 -0.9641  1.2183 -0.5842
 1771SOL     OW15242   3.148  10.329  11.339 -0.6142 -0.3563  0.2462
 1771SOL    HW115243   3.151  10.334  11.244 -1.6272 -1.3190  0.1341
 1771SOL    HW215244   3.099  10.406  11.366  1.2946  0.9500  0.1629
 1772SOL     OW15245   9.491   2.559  11.328  0.0051  0.2157  0.8874
 1772SOL    HW115246   9.574   2.555  11.280  0.3188 -1.3238  1.4784
 1772SOL    HW215247   9.424   2.539  11.262  0.3845 -1.3358  0.9214
 1773SOL     OW15248   5.905  12.683   6.050 -0.3597 -0.2796  0.1554
 1773SOL    HW115249   5.909  12.640   5.965  0.2340 -1.8692  0.9406
 1773SOL    HW215250   5.812  12.700   6.064 -0.5388 -0.7408 -0.4550
 1774SOL     OW15251   2.032   2.483   7.709 -0.0515 -0.2701 -0.1403
 1774SOL    HW115252   2.037   2.578   7.719  0.5851 -0.5018  2.1212
 1774SOL    HW215253   2.123   2.454   7.700 -0.2668 -0.6657 -1.3797
 1775SOL     OW15254   3.600   7.042   8.610  0.0513 -0.6239 -0.4546
 1775SOL    HW115255   3.521   7.059   8.559  0.1395  0.8368 -0.1670
 1775SOL    HW215256   3.662   7.110   8.581  1.0258 -1.4181 -0.3047
 1776SOL     OW15257   4.389   2.996   6.057 -0.2096  0.4373 -0.1716
 1776SOL    HW115258   4.372   3.036   6.143  0.6599  1.1972 -0.3363
 1776SOL    HW215259   4.473   2.953   6.067 -0.0981  0.5423 -0.6513
 1777SOL     OW15260   6.481   7.109  11.752 -0.5673  0.0755  0.0920
 1777SOL    HW115261   6.452   7.098  11.661 -0.0230  1.4112 -0.2802
 1777SOL    HW215262   6.536   7.187  11.749 -3.3685  2.3273  2.2016
 1778SOL     OW15263   4.860  12.246   4.016 -0.3682 -0.1500 -0.1183
 1778SOL    HW115264   4.776  12.291   4.015  0.0200  0.6473  0.9136
 1778SOL    HW215265   4.872  12.213   3.927 -0.4560  2.2212 -1.0641
 1779SOL     OW15266   0.728   9.829   9.382 -0.6129 -0.4580 -0.0849
 1779SOL    HW115267   0.687   9.829   9.469  0.6780 -0.7412  0.5407
 1779SOL    HW215268   0.769   9.743   9.375 -1.6044 -0.8707 -1.4420
 1780SOL     OW15269  11.584  11.130  11.048  0.0997  0.3681  0.3657
 1780SOL    HW115270  11.532  11.149  10.970 -1.2247 -1.1634  0.8053
 1780SOL    HW215271  11.529  11.158  11.121  0.4533 -0.0683  0.8058
 1781SOL     OW15272   5.315  10.793   2.063  0.5124  0.5243 -0.2670
 1781SOL    HW115273   5.226  10.789   2.028  0.1415  1.0331  0.5951
 1781SOL    HW215274   5.349  10.876   2.029  0.3479  0.7477  0.1058
 1782SOL     OW15275  13.187   9.093  11.232 -0.5602  0.2761 -0.6059
 1782SOL    HW115276  13.129   9.074  11.305 -0.8612 -0.0070 -0.9181
 1782SOL    HW215277  13.205   9.008  11.193  2.6407 -0.1426  1.4006
 1783SOL     OW15278   3.405  10.364  10.386 -0.0716 -0.4026  0.6350
 1783SOL    HW115279   3.419  10.426  10.457 -0.3624  2.5279 -1.6778
 1783SOL    HW215280   3.493  10.349  10.349  0.0331 -1.6453  1.3293
 1784SOL     OW15281   8.239   7.637   8.580 -0.5959 -0.0597  0.5839
 1784SOL    HW115282   8.297   7.620   8.505 -1.0979 -1.6574  0.5205
 1784SOL    HW215283   8.161   7.676   8.541 -0.3588  0.2558  0.4223
 1785SOL     OW15284  12.476   2.179  12.394  0.2160 -0.6587  0.7492
 1785SOL    HW115285  12.397   2.125  12.385  1.2228 -1.9670 -0.5200
 1785SOL    HW215286  12.451   2.263  12.356 -0.8635 -0.7286  1.2573
 1786SOL     OW15287   9.454   3.348   4.543 -0.1606 -0.0393 -0.2113
 1786SOL    HW115288   9.451   3.294   4.464 -0.0080  3.0784 -2.5265
 1786SOL    HW215289   9.394   3.420   4.525 -0.7663  0.3871  2.9299
 1787SOL     OW15290   5.458   5.449   4.650 -0.0617  0.3092 -0.0378
 1787SOL    HW115291   5.470   5.449   4.555  0.0662  1.3490 -0.0350
 1787SOL    HW215292   5.394   5.519   4.665 -1.8554 -1.3538  0.4521
 1788SOL     OW15293   8.596   7.553  10.271  0.6827  0.1077 -0.5046
 1788SOL    HW115294   8.572   7.634  10.226  0.0848 -0.7732 -1.8483
 1788SOL    HW215295   8.573   7.568  10.363  2.3116  2.1124 -0.3553
 1789SOL     OW15296   2.254  12.272   1.231  0.3922  0.4418 -0.1319
 1789SOL    HW115297   2.279  12.348   1.179 -0.0529  0.2874 -0.5847
 1789SOL    HW215298   2.164  12.253   1.203 -1.1180  2.2763  2.8969
 1790SOL     OW15299  12.355   1.657   9.350 -0.3447  0.3085 -0.0118
 1790SOL    HW115300  12.422   1.589   9.346 -1.5532 -0.8852 -0.3324
 1790SOL    HW215301  12.317   1.647   9.438  0.4079  1.5208  0.4853
 1791SOL     OW15302  13.057  10.854   2.896  0.2264 -0.2155 -0.4614
 1791SOL    HW115303  13.019  10.917   2.958 -1.6184  1.0078 -2.6976
 1791SOL    HW215304  13.006  10.774   2.910  0.1272 -0.0949 -0.1004
 1792SOL     OW15305   1.602   4.225   7.815  0.0983  0.1119  0.2794
 1792SOL    HW115306   1.557   4.143   7.795  0.0028  0.0626  0.6972
 1792SOL    HW215307   1.683   4.220   7.765 -0.3715  0.2190 -0.5200
 1793SOL     OW15308   1.891   0.621   0.096 -0.4029  0.1853 -0.0289
 1793SOL    HW115309   1.946   0.549   0.065 -0.4636 -0.1547  0.6322
 1793SOL    HW215310   1.861   0.593   0.182 -2.5943 -0.1750 -0.8500
 1794SOL     OW15311   4.557  12.624   4.804  0.1476  0.0270 -0.4047
 1794SOL    HW115312   4.631  12.659   4.855  0.1206  0.5641 -0.7230
 1794SOL    HW215313   4.558  12.530   4.821 -0.6025  0.3302  1.5638
 1795SOL     OW15314   7.489   0.864  11.742 -0.1650 -0.3397 -0.0962
 1795SOL    HW115315   7.513   0.805  11.670 -0.5577 -0.0392 -0.4778
 1795SOL    HW215316   7.540   0.833  11.817 -1.5593 -2.1687  0.1620
 1796SOL     OW15317   5.366  11.217  12.341  0.2775  0.1653  0.0108
 1796SOL    HW115318   5.349  11.163  12.419  3.0441 -0.8076  0.0591
 1796SOL    HW215319   5.460  11.234  12.344  0.0675  2.0613 -1.9355
 1797SOL     OW15320   7.359  12.303   4.361  0.0024 -0.5711 -0.1354
 1797SOL    HW115321   7.414  12.381   4.367 -2.3310  1.0727  1.8942
 1797SOL    HW215322   7.418  12.231   4.385  2.5124  0.2629 -3.0915
 1798SOL     OW15323   9.126  11.071  10.584  0.4256  0.0337 -0.0255
 1798SOL    HW115324   9.203  11.126  10.575  0.4079 -0.1453 -1.4162
 1798SOL    HW215325   9.147  11.013  10.658  1.3916  0.3442 -0.0422
 1799SOL     OW15326   4.715   2.021   0.808 -0.1911  0.3300  0.0829
 1799SOL    HW115327   4.678   1.971   0.735 -1.0945  1.2029 -0.0728
 1799SOL    HW215328   4.749   2.100   0.769 -0.5817  0.7545  0.5818
 1800SOL     OW15329  10.684   6.624   7.988  0.0932  0.4519 -0.4855
 1800SOL    HW115330  10.667   6.535   8.017 -0.4029  0.8984  0.6832
 1800SOL    HW215331  10.671   6.622   7.893 -0.9172 -0.4884 -0.3512
 1801SOL     OW15332   2.012  10.303   2.232  0.6759 -0.0919  0.3026
 1801SOL    HW115333   2.022  10.211   2.257  1.3107 -0.0813  0.1002
 1801SOL    HW215334   1.938  10.334   2.285  0.6183 -0.6494  0.5570
 1802SOL     OW15335   3.030   8.238   8.290  0.2334  0.4095  0.5511
 1802SOL    HW115336   3.077   8.250   8.373 -0.9592  2.4781  1.0181
 1802SOL    HW215337   2.941   8.213   8.317  0.1561 -0.0696 -0.1466
 1803SOL     OW15338  12.365   8.632  13.138  0.0514  0.3349  0.2302
 1803SOL    HW115339  12.449   8.596  13.107 -0.5046 -0.6276 -0.2038
 1803SOL    HW215340  12.299   8.592  13.081 -0.6131  2.2009 -0.4067
 1804SOL     OW15341   7.159   3.972   5.177 -0.2638  0.1655  0.2515
 1804SOL    HW115342   7.105   4.043   5.211  1.1428  0.9271  0.9943
 1804SOL    HW215343   7.111   3.892   5.199 -1.8217  0.8537 -0.5038
 1805SOL     OW15344   5.350   1.341  10.540 -0.4581  0.0212  0.3223
 1805SOL    HW115345   5.378   1.366  10.452 -0.4706 -0.4468  0.1836
 1805SOL    HW215346   5.406   1.393  10.599  1.1490 -1.3297  0.0605
 1806SOL     OW15347   0.870  12.085  10.322  0.5054  0.6184  0.0351
 1806SOL    HW115348   0.857  12.180  10.327 -2.6282  0.2660  0.2589
 1806SOL    HW215349   0.894  12.059  10.411 -1.4593  0.9115  0.6949
 1807SOL     OW15350   5.511   5.821   4.205 -0.4044 -0.1527 -0.0173
 1807SOL    HW115351   5.434   5.811   4.149 -0.3611 -0.7622  0.0294
 1807SOL    HW215352   5.558   5.738   4.198 -1.3530 -0.9705  2.3244
 1808SOL     OW15353   5.244   8.795   6.728  0.0552 -0.0615  0.0471
 1808SOL    HW115354   5.313   8.860   6.737 -0.1854  0.3926 -1.2866
 1808SOL    HW215355   5.221   8.773   6.818 -0.2849  2.1501  0.5583
 1809SOL     OW15356   8.772   5.677   4.324 -0.6700  0.3390 -0.3728
 1809SOL    HW115357   8.792   5.703   4.234 -0.2107  3.1814  0.4547
 1809SOL    HW215358   8.835   5.607   4.344  0.7000  1.1714 -1.5872
 1810SOL     OW15359   4.989   5.200   6.697 -0.4355 -0.2343 -0.1664
 1810SOL    HW115360   5.069   5.216   6.647  0.6366 -1.6704  0.9999
 1810SOL    HW215361   5.010   5.228   6.786 -0.3760 -2.7168  0.6743
 1811SOL     OW15362   1.175   5.144   0.373  0.2487  0.2146 -0.2274
 1811SOL    HW115363   1.233   5.196   0.428 -1.7032 -0.0555  2.2159
 1811SOL    HW215364   1.114   5.207   0.335 -1.7806 -0.0664  2.3129
 1812SOL     OW15365   1.351  11.577   8.151  0.0501 -0.2035 -0.2266
 1812SOL    HW115366   1.424  11.639   8.144 -0.1915  0.1694  0.4746
 1812SOL    HW215367   1.303  11.605   8.229 -1.2520 -0.0087 -1.0644
 1813SOL     OW15368   3.850  11.649   4.238 -0.1080 -0.3140 -0.0921
 1813SOL    HW115369   3.885  11.683   4.155  0.8163  0.2610  0.5193
 1813SOL    HW215370   3.866  11.719   4.301 -1.8760 -0.2710  0.3420
 1814SOL     OW15371   0.421   1.905   6.634  0.0922  0.4227  0.3706
 1814SOL    HW115372   0.424   1.821   6.589 -0.7689  1.0701 -0.9305
 1814SOL    HW215373   0.328   1.923   6.645  0.2780  0.9283  1.2158
 1815SOL     OW15374   5.668   6.105   1.721 -0.4376  0.4793  0.5780
 1815SOL    HW115375   5.672   6.199   1.702 -0.3657  0.3439 -0.0980
 1815SOL    HW215376   5.736   6.092   1.787 -2.1840  1.3464  2.6864
 1816SOL     OW15377   3.613  10.678   9.288 -0.0452 -0.1282  0.1592
 1816SOL    HW115378   3.536  10.664   9.232  0.1125  0.4592 -0.2186
 1816SOL    HW215379   3.640  10.590   9.314 -0.1368 -0.4131 -0.6800
 1817SOL     OW15380   1.832   2.425   7.874 -0.1559  0.2932  0.1798
 1817SOL    HW115381   1.854   2.506   7.828 -0.6556  0.8523  0.8942
 1817SOL    HW215382   1.890   2.359   7.836  1.1007  1.2302  0.4053
 1818SOL     OW15383   9.009   3.554   9.874 -0.7902  0.4516  0.2718
 1818SOL    HW115384   9.013   3.565   9.969 -0.8915  1.7886  0.1458
 1818SOL    HW215385   8.917   3.565   9.852 -0.7243  0.4619 -0.0082
 1819SOL     OW15386   7.322   5.137   0.139  0.0301  0.4050  0.3962
 1819SOL    HW115387   7.358   5.091   0.215  0.7444 -0.5390 -0.4848
 1819SOL    HW215388   7.388   5.203   0.118  0.7572 -0.6095 -0.5616
 1820SOL     OW15389   3.202   2.962   4.028  0.2973  0.1688  0.0030
 1820SOL    HW115390   3.189   2.946   4.122  0.6410  2.0371  0.4152
 1820SOL    HW215391   3.114   2.973   3.993  0.1936  0.0708  0.2331
 1821SOL     OW15392   1.718  12.407   8.863  0.5434  0.2083 -0.4557
 1821SOL    HW115393   1.747  12.496   8.843  0.5397  0.6922  1.4340
 1821SOL    HW215394   1.780  12.350   8.817  1.3340  1.2064 -0.6681
 1822SOL     OW15395   2.971   7.606   7.507  0.1538  0.1555 -0.0894
 1822SOL    HW115396   3.024   7.527   7.502 -2.2366 -1.6655  0.9901
 1822SOL    HW215397   2.894   7.580   7.558 -1.0814  3.0109 -0.2867
 1823SOL     OW15398  10.398   8.494   6.873 -0.4604 -0.2155  0.1234
 1823SOL    HW115399  10.348   8.576   6.872  1.2290  0.8734  0.8352
 1823SOL    HW215400  10.460   8.503   6.801  0.2817 -0.5128  0.7147
 1824SOL     OW15401  10.096   7.037   0.550 -0.4164  0.2731  0.3963
 1824SOL    HW115402  10.109   7.109   0.613 -1.6363 -1.4060  2.7127
 1824SOL    HW215403  10.134   6.961   0.592 -0.7741 -0.8318 -1.1837
 1825SOL     OW15404   3.355   1.021   7.366  0.3876  0.6357 -0.7282
 1825SOL    HW115405   3.424   1.037   7.301  1.2026 -0.3621 -0.1278
 1825SOL    HW215406   3.287   0.974   7.317  1.3596 -0.8491 -0.6872
 1826SOL     OW15407  11.125   8.134  11.414  0.2967  0.2998 -0.2708
 1826SOL    HW115408  11.081   8.107  11.333  0.8242 -0.2438 -0.3766
 1826SOL    HW215409  11.058   8.123  11.481 -0.1269  0.6981 -0.6183
 1827SOL     OW15410   6.096  11.594   4.994 -0.2566  0.0477  0.0072
 1827SOL    HW115411   6.062  11.597   5.083  0.4330 -2.0584  0.3750
 1827SOL    HW215412   6.183  11.633   5.000 -0.6554  0.9672  0.0032
 1828SOL     OW15413   5.227  11.700  12.505 -0.3240 -0.3943  0.4192
 1828SOL    HW115414   5.167  11.765  12.467  0.0464  1.4304  2.7018
 1828SOL    HW215415   5.221  11.625  12.446 -1.5441  1.3150 -1.8238
 1829SOL     OW15416   3.489   1.091   8.514 -0.2959 -0.0818  0.0741
 1829SOL    HW115417   3.486   1.174   8.468 -0.4406  0.6026  1.2841
 1829SOL    HW215418   3.406   1.086   8.561 -0.7531 -1.4152 -0.7974
 1830SOL     OW15419   7.296  13.302  10.713 -0.2118  0.6575 -0.2888
 1830SOL    HW115420   7.205  13.301  10.743 -0.0444  1.1298  0.2702
 1830SOL    HW215421   7.305  13.225  10.658 -0.4993 -0.3813  1.0705
 1831SOL     OW15422   5.959   7.061   9.899 -0.5174 -0.0387 -0.4823
 1831SOL    HW115423   6.054   7.055   9.893 -0.5082  0.3529 -0.7733
 1831SOL    HW215424   5.935   6.996   9.965 -0.1061 -0.5525 -0.8282
 1832SOL     OW15425   2.553   7.090  12.726  0.1455 -0.3669  0.4742
 1832SOL    HW115426   2.611   7.113  12.799 -0.4213 -1.5177  1.3230
 1832SOL    HW215427   2.521   7.174  12.693  0.5637  0.1835  1.4288
 1833SOL     OW15428   5.169  11.352  13.273  0.6725 -0.1536 -0.7731
 1833SOL    HW115429   5.077  11.327  13.279 -0.2078  2.4888 -1.4286
 1833SOL    HW215430   5.197  11.318  13.188 -0.2539  0.4659 -1.3516
 1834SOL     OW15431  11.889   6.604   0.933 -0.0088  0.8770  0.1186
 1834SOL    HW115432  11.961   6.557   0.974 -1.4850 -2.7462 -1.0306
 1834SOL    HW215433  11.816   6.596   0.995  0.2046  3.7444  0.8806
 1835SOL     OW15434   8.870  13.191   9.495 -0.4181 -0.4279 -0.6441
 1835SOL    HW115435   8.894  13.182   9.587 -2.8561 -0.9876  0.0011
 1835SOL    HW215436   8.932  13.256   9.461 -0.2124  0.7288  1.6895
 1836SOL     OW15437   5.348   7.334   8.637  0.3170 -0.6486  0.1651
 1836SOL    HW115438   5.369   7.326   8.544  1.8012  2.5120  0.0912
 1836SOL    HW215439   5.400   7.266   8.679  1.4518 -0.6625 -1.1718
 1837SOL     OW15440   7.952   8.794   7.739 -0.3230 -0.3029  0.7216
 1837SOL    HW115441   8.008   8.829   7.670 -1.6035  0.8387  0.2415
 1837SOL    HW215442   8.012   8.780   7.813  0.8849 -0.6615 -0.2934
 1838SOL     OW15443  12.112   5.227   6.114 -0.9289  0.2396  0.3317
 1838SOL    HW115444  12.116   5.233   6.019  1.5086 -2.3310  0.1518
 1838SOL    HW215445  12.169   5.298   6.144 -0.9220  0.4510 -0.1686
 1839SOL     OW15446   6.536   8.306   3.437 -0.9080  0.1424 -0.0601
 1839SOL    HW115447   6.614   8.276   3.484 -0.7372  1.8422  0.8139
 1839SOL    HW215448   6.476   8.334   3.505 -1.5210  0.6422 -0.7879
 1840SOL     OW15449   1.034  12.880  12.551  0.5616  0.1385 -0.1706
 1840SOL    HW115450   1.080  12.893  12.633  1.1115  1.2122 -0.6346
 1840SOL    HW215451   1.046  12.788  12.530  1.5966  0.1726  0.2563
 1841SOL     OW15452   7.304   1.833   7.011  0.6628  0.4306 -0.3925
 1841SOL    HW115453   7.274   1.791   7.092  1.0564  0.2113 -0.3594
 1841SOL    HW215454   7.399   1.832   7.017  0.6869  0.6840 -0.7231
 1842SOL     OW15455  12.451   2.202   7.226  0.0009  0.5510  0.3976
 1842SOL    HW115456  12.470   2.123   7.277 -1.0738  0.8518  1.2893
 1842SOL    HW215457  12.386   2.174   7.162  0.7409  0.3705 -0.2915
 1843SOL     OW15458   6.150   2.407   6.428 -0.4031  0.2313  0.3761
 1843SOL    HW115459   6.149   2.329   6.484 -1.3433 -1.0706 -1.3404
 1843SOL    HW215460   6.141   2.372   6.339 -0.8517  2.3213 -0.4546
 1844SOL     OW15461   2.775  11.775   5.995  0.0977  0.3798  0.6399
 1844SOL    HW115462   2.776  11.767   6.090  1.0676  0.3519  0.6352
 1844SOL    HW215463   2.761  11.869   5.980  1.2581  0.5972  0.8354
 1845SOL     OW15464   0.750  12.274   2.521 -0.5803 -0.1538 -0.5796
 1845SOL    HW115465   0.744  12.235   2.434  1.4647  1.7265 -1.6306
 1845SOL    HW215466   0.782  12.363   2.507 -0.7342  0.4153  2.0597
 1846SOL     OW15467  12.047   7.725   5.380 -0.4822 -0.6995 -0.1373
 1846SOL    HW115468  12.051   7.795   5.445  2.0943 -1.8694  1.0938
 1846SOL    HW215469  11.953   7.711   5.366 -1.0885  2.2901  0.2705
 1847SOL     OW15470  10.019   7.068   7.264 -0.5406 -0.3921 -0.4253
 1847SOL    HW115471   9.966   7.027   7.196  0.6175 -0.4143 -1.3481
 1847SOL    HW215472  10.105   7.026   7.256 -0.5573 -0.8971  1.5230
 1848SOL     OW15473   5.469   2.087   1.477  0.5041  0.1835  0.1142
 1848SOL    HW115474   5.384   2.115   1.511  0.9031  1.6810 -0.0568
 1848SOL    HW215475   5.460   1.993   1.465 -0.6210  0.0743  1.5457
 1849SOL     OW15476   5.195   1.278   4.739  0.1751  0.2550  0.4830
 1849SOL    HW115477   5.212   1.372   4.727  0.1797  0.1316 -0.6101
 1849SOL    HW215478   5.264   1.248   4.797 -0.1750  1.0476  1.3250
 1850SOL     OW15479  12.074  10.407   3.906  0.1733 -0.6046  0.1320
 1850SOL    HW115480  12.071  10.427   3.812 -1.6065  0.8766  0.4507
 1850SOL    HW215481  12.083  10.492   3.949 -4.6041 -0.4477  1.4270
 1851SOL     OW15482   0.194   1.245  11.144  0.9283 -0.1375 -0.1613
 1851SOL    HW115483   0.119   1.276  11.195  1.4427  2.4441 -0.8456
 1851SOL    HW215484   0.156   1.194  11.073 -0.0502 -0.2567  0.4283
 1852SOL     OW15485   0.181  12.652  11.679  0.5237  0.2786  0.7060
 1852SOL    HW115486   0.262  12.668  11.726  0.6797 -0.6595  0.7753
 1852SOL    HW215487   0.122  12.722  11.707  0.3778 -0.6278  2.8399
 1853SOL     OW15488   8.483   6.051  10.172 -0.0970 -0.0180 -0.0298
 1853SOL    HW115489   8.579   6.055  10.170 -0.0659  0.3444  1.2139
 1853SOL    HW215490   8.455   6.136  10.138  0.1080  0.9960  2.1422
 1854SOL     OW15491   4.684  12.562  12.681 -0.2390  0.4732  0.1527
 1854SOL    HW115492   4.692  12.648  12.639 -0.2020  1.1438  1.4773
 1854SOL    HW215493   4.755  12.561  12.745 -2.4069  1.0266  2.7524
 1855SOL     OW15494   1.459   9.459   6.179 -0.2364 -0.2098 -0.1837
 1855SOL    HW115495   1.487   9.371   6.151 -1.2583 -0.5488 -0.1710
 1855SOL    HW215496   1.418   9.444   6.264 -0.4589  0.2828 -0.2058
 1856SOL     OW15497   1.697  11.506   3.907 -0.8815 -0.0047 -0.1835
 1856SOL    HW115498   1.644  11.461   3.973  0.8614 -1.4445  0.2975
 1856SOL    HW215499   1.764  11.551   3.957 -0.4376  0.1247 -0.8875
 1857SOL     OW15500   7.730   7.652   1.795  0.1901  0.1404 -0.4288
 1857SOL    HW115501   7.671   7.622   1.865 -0.1230 -0.0285 -0.7637
 1857SOL    HW215502   7.672   7.685   1.727  0.5298  2.5591  0.3547
 1858SOL     OW15503   1.237   1.265   4.667 -0.0708 -0.3795 -0.2840
 1858SOL    HW115504   1.189   1.216   4.734  0.3420 -1.3568 -0.6850
 1858SOL    HW215505   1.288   1.198   4.620  0.5588  0.4431 -0.8023
 1859SOL     OW15506   7.156   6.288   5.445  0.2863  0.4603 -0.1909
 1859SOL    HW115507   7.089   6.304   5.378  0.3979 -0.6489 -0.5872
 1859SOL    HW215508   7.185   6.198   5.428  1.0370  0.5253  0.7195
 1860SOL     OW15509   1.004   1.086   9.155  0.2294  0.0362  0.1565
 1860SOL    HW115510   0.975   1.029   9.083  1.3626  0.2869 -0.5317
 1860SOL    HW215511   0.923   1.119   9.193 -0.5200 -2.6036  1.0794
 1861SOL     OW15512   6.361   5.653   9.472 -0.4899  0.1723 -0.0432
 1861SOL    HW115513   6.385   5.721   9.535 -2.0081  1.0969 -0.3860
 1861SOL    HW215514   6.358   5.699   9.388  1.1125 -0.9516 -0.7706
 1862SOL     OW15515  11.631   7.922   1.884 -0.1659 -0.8471  0.0532
 1862SOL    HW115516  11.705   7.876   1.923 -1.0531 -0.9033  1.7787
 1862SOL    HW215517  11.576   7.853   1.847 -0.3505 -0.9872  0.5809
 1863SOL     OW15518  12.086   7.907   2.852 -0.2562  0.2410 -0.3052
 1863SOL    HW115519  12.104   7.893   2.759 -2.3114 -3.2185 -0.3431
 1863SOL    HW215520  11.991   7.903   2.859 -0.1811  1.0986  1.9027
 1864SOL     OW15521  13.237   5.032  12.242  0.0548  0.4814  0.7898
 1864SOL    HW115522  13.164   4.985  12.201  0.6829 -1.3944  1.6883
 1864SOL    HW215523  13.215   5.124  12.232 -0.6362  0.1009 -2.2411
 1865SOL     OW15524   0.293   0.298   8.421 -0.2091  0.2623 -0.4029
 1865SOL    HW115525   0.383   0.300   8.389 -0.7894  1.4922 -2.0583
 1865SOL    HW215526   0.281   0.208   8.451  1.5976  0.1129  0.0152
 1866SOL     OW15527   8.118  13.274  11.993  0.3937 -0.3211 -0.0100
 1866SOL    HW115528   8.026  13.289  11.974  0.3884 -0.7833 -0.3435
 1866SOL    HW215529   8.164  13.298  11.913  0.6993  1.2534  0.5941
 1867SOL     OW15530   5.657   2.125   2.645 -0.3198  0.1777 -0.0608
 1867SOL    HW115531   5.641   2.094   2.734 -0.6137  0.7461  0.0888
 1867SOL    HW215532   5.675   2.219   2.655  1.6626 -0.1120 -0.3684
 1868SOL     OW15533   2.619   8.071   1.073 -0.2987  0.1056  0.5393
 1868SOL    HW115534   2.608   7.998   1.134 -1.3657  0.3377  0.6378
 1868SOL    HW215535   2.633   8.028   0.988 -3.1603 -0.3089  0.1675
 1869SOL     OW15536   9.293   4.964   3.804  0.4247 -0.3533  0.3452
 1869SOL    HW115537   9.311   5.017   3.727 -0.5987 -0.3056  0.1324
 1869SOL    HW215538   9.380   4.935   3.834  0.8322 -0.4112 -0.8415
 1870SOL     OW15539   9.552  10.022  11.960  0.1969 -0.5359  0.4158
 1870SOL    HW115540   9.617   9.957  11.934  0.9093  0.8430 -1.4564
 1870SOL    HW215541   9.600  10.084  12.015  0.5959  0.6135 -1.1583
 1871SOL     OW15542   5.940   0.240   4.253  0.1512  0.2761  0.1556
 1871SOL    HW115543   6.019   0.186   4.259  0.6466  0.9535 -0.2085
 1871SOL    HW215544   5.955   0.297   4.177 -1.1317 -0.3023 -0.5666
 1872SOL     OW15545  13.128   1.561   6.562  0.1678  0.2089 -0.1669
 1872SOL    HW115546  13.116   1.615   6.483 -0.6092 -0.2107 -0.3531
 1872SOL    HW215547  13.199   1.500   6.539  0.4569  0.5844 -0.2690
 1873SOL     OW15548   7.718   2.515   8.579  0.4201  0.2488 -0.1184
 1873SOL    HW115549   7.747   2.466   8.656  0.1628 -1.1788 -0.9053
 1873SOL    HW215550   7.737   2.606   8.601 -0.4941 -0.0168  2.0031
 1874SOL     OW15551   5.743   0.620   9.748  0.4283  0.4436  0.2073
 1874SOL    HW115552   5.652   0.592   9.741  0.6070  0.2141 -3.0014
 1874SOL    HW215553   5.743   0.685   9.818 -2.6824  2.0018 -1.0309
 1875SOL     OW15554   1.070   9.687  11.625  0.4232  0.2862  0.4566
 1875SOL    HW115555   1.148   9.702  11.570 -0.4834 -1.0039 -1.2872
 1875SOL    HW215556   1.014   9.762  11.607  1.2425  1.2732  1.7956
 1876SOL     OW15557   1.737  12.322   0.743  0.2927  0.5184  0.1975
 1876SOL    HW115558   1.676  12.373   0.797  0.0920 -0.0097  0.4750
 1876SOL    HW215559   1.792  12.277   0.807 -0.4402 -0.7175 -0.0093
 1877SOL     OW15560   4.835  12.176   2.395  0.1798  0.1859 -0.4064
 1877SOL    HW115561   4.753  12.175   2.445  0.8155 -1.6425  0.7098
 1877SOL    HW215562   4.891  12.236   2.443  0.0141  0.2333 -0.2703
 1878SOL     OW15563  10.977  12.096  12.780 -0.0468 -0.0280  0.1596
 1878SOL    HW115564  10.994  12.003  12.766 -0.4229  0.0926 -1.2289
 1878SOL    HW215565  11.034  12.120  12.853  0.6292 -1.1719  0.0267
 1879SOL     OW15566  11.685   2.213  12.969 -0.2366  0.0361  0.1377
 1879SOL    HW115567  11.663   2.188  13.059 -0.8914 -0.1371 -0.0670
 1879SOL    HW215568  11.619   2.277  12.945  0.9455  1.3801  0.3627
 1880SOL     OW15569   7.666   8.687   4.444  0.6536 -0.5174 -0.1550
 1880SOL    HW115570   7.748   8.734   4.459  0.3777 -0.5865  1.9226
 1880SOL    HW215571   7.599   8.743   4.482  0.0039 -1.3842  0.0207
 1881SOL     OW15572   1.577  12.022   8.911  0.0391  0.1077 -0.2138
 1881SOL    HW115573   1.634  12.064   8.975 -0.2354  0.8921 -0.4799
 1881SOL    HW215574   1.630  11.949   8.877  0.4738  0.1609  0.3235
 1882SOL     OW15575   7.219   5.499   0.248 -0.5006 -0.2125  0.1087
 1882SOL    HW115576   7.224   5.592   0.270  1.4431 -0.2381 -0.0043
 1882SOL    HW215577   7.148   5.493   0.184 -0.5583  1.2309  0.0049
 1883SOL     OW15578   1.342  13.297   8.315 -0.3388 -0.1464 -0.0440
 1883SOL    HW115579   1.293  13.327   8.238 -1.1291 -0.0292  0.4968
 1883SOL    HW215580   1.316  13.357   8.385  0.5529 -0.1016  0.2691
 1884SOL     OW15581   6.834  10.592   2.669  0.4547 -0.0956  0.3495
 1884SOL    HW115582   6.925  10.564   2.679  0.1634 -0.3078  3.0792
 1884SOL    HW215583   6.783  10.512   2.679 -0.0848  0.0037 -1.2864
 1885SOL     OW15584  11.491   4.649   1.476 -0.4683  0.3553 -0.4821
 1885SOL    HW115585  11.486   4.741   1.503 -0.1371  0.3418 -0.3735
 1885SOL    HW215586  11.481   4.652   1.381 -0.9617  0.4599 -0.4328
 1886SOL     OW15587   2.995   8.679   8.803  0.2799  0.0727 -0.2242
 1886SOL    HW115588   2.948   8.616   8.750 -0.5863  1.1689 -0.8043
 1886SOL    HW215589   3.051   8.726   8.741  1.1240 -0.2899  0.2443
 1887SOL     OW15590   1.924   3.862   5.930 -0.0176  0.8125  0.2779
 1887SOL    HW115591   1.833   3.894   5.926 -0.0594  0.5890 -0.6838
 1887SOL    HW215592   1.967   3.902   5.855 -0.0658 -1.3664 -0.9821
 1888SOL     OW15593   9.012   3.633  10.551 -0.2296 -0.1562  0.4926
 1888SOL    HW115594   9.009   3.537  10.545 -0.9831 -0.2490  1.8688
 1888SOL    HW215595   8.988   3.652  10.642  0.6562  1.3207  0.4523
 1889SOL     OW15596   4.686   1.439   1.435  0.8687 -0.2247  0.3568
 1889SOL    HW115597   4.678   1.347   1.410  2.1845  0.2774 -2.3352
 1889SOL    HW215598   4.751   1.440   1.505  0.6367 -1.3404  0.6074
 1890SOL     OW15599   0.192   5.777   1.323  0.3682  0.2553  0.9576
 1890SOL    HW115600   0.212   5.684   1.313  1.1477  0.3042  1.9200
 1890SOL    HW215601   0.245   5.820   1.256 -0.7140 -0.0580 -0.1203
 1891SOL     OW15602   7.546   4.580   2.024  0.2812  0.3922  0.6208
 1891SOL    HW115603   7.492   4.507   2.056  1.0525 -0.2438  0.5033
 1891SOL    HW215604   7.628   4.539   1.997 -0.2398  0.9156 -2.0189
 1892SOL     OW15605   0.426   3.493   3.974 -0.0317 -0.4262  0.5700
 1892SOL    HW115606   0.494   3.488   3.907 -1.6874 -0.6297 -1.1895
 1892SOL    HW215607   0.378   3.411   3.966 -0.9141  0.0003  1.2939
 1893SOL     OW15608  12.252   0.178  10.809 -0.5639 -0.0055  0.3012
 1893SOL    HW115609  12.215   0.166  10.897  3.9113  0.1520  2.4913
 1893SOL    HW215610  12.292   0.094  10.788  0.4254  0.6504 -0.5202
 1894SOL     OW15611  11.483   0.861  12.036  0.1783  0.5439 -0.5392
 1894SOL    HW115612  11.577   0.850  12.026  0.2493 -1.1062  1.4057
 1894SOL    HW215613  11.471   0.886  12.128 -1.2246  1.7250 -1.0058
 1895SOL     OW15614   5.002   6.593  10.462 -0.3242  0.3505 -0.0058
 1895SOL    HW115615   4.950   6.573  10.385  0.9047  1.0657 -1.0738
 1895SOL    HW215616   5.064   6.660  10.432  0.5050  0.2936  1.4727
 1896SOL     OW15617  10.732   7.040   2.349  0.3343  0.4263  0.4884
 1896SOL    HW115618  10.756   6.997   2.266 -0.4922  0.6450  0.1300
 1896SOL    HW215619  10.790   7.000   2.414 -0.6575 -1.5342  0.2376
 1897SOL     OW15620  10.381   1.317  11.647 -0.7165  0.6491 -0.1125
 1897SOL    HW115621  10.468   1.280  11.664 -0.2931  1.4265 -0.5055
 1897SOL    HW215622  10.333   1.303  11.729 -0.0690  0.6049  0.2704
 1898SOL     OW15623   4.149   9.893   7.116 -0.5140  0.4619 -0.0354
 1898SOL    HW115624   4.098   9.874   7.037  1.5866 -0.0162 -1.3534
 1898SOL    HW215625   4.194   9.975   7.096  2.3215 -1.1352 -0.6028
 1899SOL     OW15626   5.220   0.066   6.607  0.2292  0.0245 -0.9803
 1899SOL    HW115627   5.259   0.012   6.676  0.8558  1.4548 -0.1962
 1899SOL    HW215628   5.248   0.155   6.626 -1.6931  0.8175 -1.6225
 1900SOL     OW15629   6.294   7.896   6.686 -0.3781  0.5915 -0.1258
 1900SOL    HW115630   6.307   7.881   6.592  0.3927 -0.4284  0.1199
 1900SOL    HW215631   6.383   7.895   6.723 -0.7361 -0.4463  0.7925
 1901SOL     OW15632   6.565  10.438   3.707  0.2861  0.0107 -0.0506
 1901SOL    HW115633   6.612  10.464   3.787 -0.2600 -1.0201  0.6197
 1901SOL    HW215634   6.511  10.364   3.734 -1.6094  1.0295 -0.8301
 1902SOL     OW15635   1.190  11.921   0.559  0.2978  0.5598  0.1707
 1902SOL    HW115636   1.115  11.968   0.521  0.3606  0.1602 -0.4608
 1902SOL    HW215637   1.208  11.967   0.641 -1.5402 -0.1890  1.0637
 1903SOL     OW15638   8.566   5.384   0.848 -0.1094 -0.2205  0.1558
 1903SOL    HW115639   8.636   5.318   0.848 -0.5943 -0.7662 -0.9255
 1903SOL    HW215640   8.576   5.430   0.931  0.3988 -1.5005  0.8289
 1904SOL     OW15641   3.476   9.878  10.403  0.5583  0.1247  0.2292
 1904SOL    HW115642   3.466   9.941  10.474  1.4268 -0.7223  1.1503
 1904SOL    HW215643   3.559   9.900  10.362  1.8343 -1.4836  1.7599
 1905SOL     OW15644  13.081  12.266   8.225  0.2753  0.4425  0.5070
 1905SOL    HW115645  13.159  12.246   8.174  0.1840  0.4808  0.3510
 1905SOL    HW215646  13.065  12.187   8.276 -0.7814 -0.3593 -0.9925
 1906SOL     OW15647  10.189   9.705   1.947  0.5860 -0.2341 -0.8516
 1906SOL    HW115648  10.217   9.720   1.856 -0.7396  0.1235 -1.2141
 1906SOL    HW215649  10.132   9.628   1.942  0.8630 -0.4925 -0.2341
 1907SOL     OW15650   1.143   5.113   9.968 -0.3221 -0.1243 -0.5922
 1907SOL    HW115651   1.066   5.166   9.987 -0.7345 -0.7852 -0.3910
 1907SOL    HW215652   1.110   5.037   9.922  0.4171  0.3776 -2.0267
 1908SOL     OW15653  11.676   2.950  12.481  0.5448 -0.6647 -0.5525
 1908SOL    HW115654  11.661   2.957  12.386 -0.3844  2.2838 -0.2899
 1908SOL    HW215655  11.731   3.026  12.502  1.3022 -1.6513  1.2076
 1909SOL     OW15656  11.156   2.409   6.280 -0.0286 -0.3108  0.1042
 1909SOL    HW115657  11.091   2.450   6.338 -0.1173 -0.6067  0.2188
 1909SOL    HW215658  11.238   2.413   6.330  0.0630  0.1592 -0.0848
 1910SOL     OW15659  10.396  10.483   7.400 -0.0582 -0.0828  0.6059
 1910SOL    HW115660  10.376  10.565   7.355 -1.4334 -0.4305  0.5321
 1910SOL    HW215661  10.367  10.497   7.490  0.1252 -0.3315  0.7046
 1911SOL     OW15662   1.010   6.214   9.801  0.3187 -0.5884  0.4772
 1911SOL    HW115663   1.038   6.130   9.838  0.6959 -0.9064 -0.4981
 1911SOL    HW215664   1.087   6.248   9.757  0.3804  0.6432  1.4869
 1912SOL     OW15665   0.410   8.909   7.802  0.0855 -0.0702 -0.1454
 1912SOL    HW115666   0.373   8.873   7.721 -1.5846 -0.3417  0.6835
 1912SOL    HW215667   0.498   8.937   7.778 -1.2824  2.4592 -2.7986
 1913SOL     OW15668   5.177   0.556   8.489  0.3485 -0.0148 -0.0361
 1913SOL    HW115669   5.159   0.578   8.398  0.0180  0.5966  0.1734
 1913SOL    HW215670   5.090   0.542   8.527  0.4537  0.3794  0.3472
 1914SOL     OW15671  10.008   2.192   4.692  0.6529  0.9064  0.2442
 1914SOL    HW115672  10.054   2.113   4.664  1.6774  0.0818  3.7185
 1914SOL    HW215673   9.921   2.185   4.653  1.6567 -0.3781 -1.9119
 1915SOL     OW15674   1.543   4.602   4.997  0.0855  0.3697  0.1229
 1915SOL    HW115675   1.502   4.515   4.988 -1.4378  1.0655 -0.0080
 1915SOL    HW215676   1.632   4.583   5.025 -0.7097 -1.2016  1.8634
 1916SOL     OW15677   4.727  12.298   2.971  0.3281  0.4576 -0.5831
 1916SOL    HW115678   4.734  12.202   2.969  1.2781  0.4657  0.7593
 1916SOL    HW215679   4.639  12.316   2.940  0.0976 -0.8666 -0.7684
 1917SOL     OW15680   0.912   1.884  10.537 -0.3130  0.3370 -0.0024
 1917SOL    HW115681   0.938   1.823  10.467 -0.1139  1.1524 -0.6580
 1917SOL    HW215682   0.855   1.947  10.493  0.1301  1.0845  0.4790
 1918SOL     OW15683   1.875   2.044   7.345 -0.5833  0.1841 -0.2175
 1918SOL    HW115684   1.942   2.078   7.404 -1.0226 -0.5834  0.7534
 1918SOL    HW215685   1.921   2.030   7.262  0.3944 -0.0702  0.3493
 1919SOL     OW15686  10.454   8.633   4.115 -0.2808 -0.2018 -0.3811
 1919SOL    HW115687  10.358   8.631   4.114 -0.3264 -0.3553 -3.3843
 1919SOL    HW215688  10.480   8.541   4.111  0.0084 -0.1495  0.2048
 1920SOL     OW15689   1.026  10.454   7.275 -0.1731  0.1305  0.2953
 1920SOL    HW115690   1.051  10.418   7.360 -0.1680  0.3518  0.3884
 1920SOL    HW215691   1.034  10.380   7.214 -0.0235  0.0119  0.4581
 1921SOL     OW15692   2.397   6.736   2.983  0.1730  0.0555  0.3703
 1921SOL    HW115693   2.361   6.759   2.898  1.0732  0.2522  0.0365
 1921SOL    HW215694   2.490   6.757   2.977  0.4949 -1.0828  0.9856
 1922SOL     OW15695   6.766   0.434   5.089 -0.2655  0.6518 -0.0631
 1922SOL    HW115696   6.767   0.422   4.994 -0.7754 -0.1404  0.0295
 1922SOL    HW215697   6.855   0.409   5.116  0.3604  2.2696 -0.4744
 1923SOL     OW15698  11.186   2.910   4.622  0.2840  0.4603 -0.1948
 1923SOL    HW115699  11.212   2.997   4.653 -0.5370  0.8098 -0.4428
 1923SOL    HW215700  11.162   2.925   4.530 -0.3139  0.0676 -0.1048
 1924SOL     OW15701   4.774   1.577   8.254 -0.0523  0.1945  0.2308
 1924SOL    HW115702   4.686   1.577   8.292 -0.6922 -0.6279 -1.1858
 1924SOL    HW215703   4.797   1.670   8.249 -0.3597  0.3802  1.6051
 1925SOL     OW15704   3.255   5.133   5.902 -0.4558  0.2857 -0.1712
 1925SOL    HW115705   3.297   5.134   5.988 -0.6676 -0.4278 -0.0533
 1925SOL    HW215706   3.260   5.224   5.872  0.6167  0.3287  0.0995
 1926SOL     OW15707  11.014  13.036   8.554  0.2937 -0.2078 -0.1032
 1926SOL    HW115708  10.954  13.076   8.617  1.1515 -1.5168  1.6222
 1926SOL    HW215709  11.021  12.945   8.581  3.2239 -0.0731 -0.0700
 1927SOL     OW15710  11.880   2.558   0.677 -0.3279 -0.7066 -0.1956
 1927SOL    HW115711  11.920   2.644   0.692  0.5800 -1.1214 -0.1492
 1927SOL    HW215712  11.833   2.539   0.758  1.0810 -1.0946  0.5608
 1928SOL     OW15713   7.508   3.721   4.020  0.4685 -0.2303 -0.4475
 1928SOL    HW115714   7.554   3.710   4.104  1.7004  0.1545 -1.0434
 1928SOL    HW215715   7.443   3.790   4.038  0.0663 -0.8220  0.4295
 1929SOL     OW15716  13.267   9.654   3.752  0.6777 -0.6315  0.5328
 1929SOL    HW115717  13.307   9.738   3.775  2.0727 -0.7462 -1.2172
 1929SOL    HW215718  13.310   9.590   3.810  0.6210 -0.3200  0.9218
 1930SOL     OW15719   8.841  11.619  10.418  0.6454  0.1137 -0.2932
 1930SOL    HW115720   8.814  11.529  10.436 -2.2521  1.0039  0.2061
 1930SOL    HW215721   8.880  11.614  10.330 -1.4184 -1.3009 -1.2111
 1931SOL     OW15722   3.326   7.022   7.354  0.3601  0.2229  0.9020
 1931SOL    HW115723   3.368   6.956   7.408 -0.9210 -0.3120  1.2909
 1931SOL    HW215724   3.307   6.977   7.271  1.5341  0.7867  0.3063
 1932SOL     OW15725   1.090   3.390   7.754 -0.2387 -0.1194 -0.3043
 1932SOL    HW115726   1.128   3.471   7.788 -0.4231  0.5768 -1.6624
 1932SOL    HW215727   1.000   3.390   7.788  0.4566 -1.0177  1.6848
 1933SOL     OW15728   0.029  12.626   8.014  0.2418 -0.1604  0.1699
 1933SOL    HW115729   0.006  12.711   7.978 -0.3402  0.0690  1.0397
 1933SOL    HW215730  -0.020  12.563   7.962  1.2635 -0.0415 -0.9764
 1934SOL     OW15731   3.972   1.156  13.095 -0.4275 -0.3614 -0.0236
 1934SOL    HW115732   4.044   1.219  13.084 -0.0777 -0.6977  0.3121
 1934SOL    HW215733   3.964   1.146  13.189  0.0011 -1.3679 -0.0863
 1935SOL     OW15734  12.429   3.344   0.355  0.1316  0.6379  0.4104
 1935SOL    HW115735  12.394   3.395   0.428  0.1147 -0.2702  1.0442
 1935SOL    HW215736  12.366   3.356   0.284 -0.7181  0.1760  1.0820
 1936SOL     OW15737   1.565   9.297  11.825  0.3902 -0.6237  0.3682
 1936SOL    HW115738   1.636   9.345  11.782  1.6552 -1.7169  1.1749
 1936SOL    HW215739   1.499   9.286  11.756  0.3798  1.5430 -0.0565
 1937SOL     OW15740   4.231  10.294   9.623 -0.4512 -0.6113  0.2800
 1937SOL    HW115741   4.161  10.359   9.627  0.9779  0.9382  0.9297
 1937SOL    HW215742   4.240  10.262   9.712  0.0298 -0.4077  0.3065
 1938SOL     OW15743   7.467  11.940   0.979  0.2873 -0.2356  0.0930
 1938SOL    HW115744   7.550  11.978   0.950 -0.2707  0.4669 -0.6068
 1938SOL    HW215745   7.413  12.015   1.006 -0.0066 -0.7101  0.8806
 1939SOL     OW15746   0.226   6.353   9.952  0.2488 -0.1369  0.1501
 1939SOL    HW115747   0.140   6.395   9.954  0.2388 -0.0723 -1.0163
 1939SOL    HW215748   0.286   6.421   9.983  0.0429  0.2569 -0.2979
 1940SOL     OW15749   3.537   5.676   4.101  0.0723 -0.1429  0.2342
 1940SOL    HW115750   3.593   5.679   4.024 -0.2967  0.6549 -0.0154
 1940SOL    HW215751   3.580   5.614   4.160 -0.4870 -2.0482 -1.2683
 1941SOL     OW15752   9.591  12.884   5.436 -0.2818  0.6203 -0.0766
 1941SOL    HW115753   9.585  12.899   5.342  3.7424  1.3313 -0.3858
 1941SOL    HW215754   9.607  12.790   5.444  1.4412  0.8496 -0.3646
 1942SOL     OW15755   2.433   4.670   2.000 -0.2121 -0.4993  0.4996
 1942SOL    HW115756   2.438   4.717   2.083 -0.2829 -0.7390  0.6407
 1942SOL    HW215757   2.351   4.621   2.004 -0.8151  0.4248 -0.2139
 1943SOL     OW15758   8.110   4.285   2.378  0.0875 -0.1985 -0.0658
 1943SOL    HW115759   8.049   4.217   2.405  0.4205 -0.3225  0.3832
 1943SOL    HW215760   8.196   4.243   2.381  0.4448  0.5550  1.3838
 1944SOL     OW15761   4.131   0.129  12.440  0.1133 -0.5605 -0.2251
 1944SOL    HW115762   4.111   0.043  12.477 -3.1420 -0.1336 -0.7277
 1944SOL    HW215763   4.128   0.115  12.345  1.3404 -0.2168 -0.3285
 1945SOL     OW15764   2.147   5.744  12.318  0.4443  0.4375 -0.1285
 1945SOL    HW115765   2.195   5.723  12.399 -0.2274 -0.0775  0.1444
 1945SOL    HW215766   2.137   5.839  12.320 -1.1486  0.2790  1.3224
 1946SOL     OW15767   9.726   9.528   1.357 -0.1405  0.2644  0.3739
 1946SOL    HW115768   9.816   9.545   1.382 -0.5880  1.4458  1.2413
 1946SOL    HW215769   9.730   9.446   1.307  1.6312  1.1495 -1.0677
 1947SOL     OW15770  11.635   7.544   1.381 -0.4657 -0.8324 -0.1498
 1947SOL    HW115771  11.615   7.555   1.288 -1.6529  1.4964  0.3009
 1947SOL    HW215772  11.646   7.450   1.393 -1.1417 -1.2618 -2.4722
 1948SOL     OW15773   0.361  10.831   0.358  0.5884  0.0784 -0.2224
 1948SOL    HW115774   0.401  10.817   0.272  1.6157 -1.0192  0.3982
 1948SOL    HW215775   0.282  10.778   0.357  1.4796 -1.3111  0.0737
 1949SOL     OW15776   5.629  11.642   1.365  0.0512  0.3757  0.2207
 1949SOL    HW115777   5.666  11.655   1.452  0.6761  1.7958 -0.2354
 1949SOL    HW215778   5.537  11.621   1.381 -0.1080  1.7074  1.1806
 1950SOL     OW15779  11.737   6.364   1.494  0.1961  0.2882 -0.2044
 1950SOL    HW115780  11.648   6.329   1.484  0.5796 -0.6141 -0.6204
 1950SOL    HW215781  11.778   6.305   1.557  0.2274  1.2510  0.6911
 1951SOL     OW15782   7.370  10.364  11.169  0.1394  0.2793  0.1976
 1951SOL    HW115783   7.399  10.437  11.115 -0.6951  0.5955  0.1662
 1951SOL    HW215784   7.275  10.362  11.158 -0.2106  1.0572  2.5126
 1952SOL     OW15785  10.269  11.884   2.710  0.1819  0.4296 -0.2362
 1952SOL    HW115786  10.174  11.894   2.714 -0.8933 -5.3790 -1.5512
 1952SOL    HW215787  10.293  11.850   2.796  1.0305  1.3110 -0.1081
 1953SOL     OW15788  11.584   4.300   3.901 -0.1719  0.1883 -0.3882
 1953SOL    HW115789  11.502   4.346   3.921 -0.3878  0.5514 -1.9954
 1953SOL    HW215790  11.595   4.238   3.973 -0.8901  1.4096  0.8187
 1954SOL     OW15791   7.981   9.232   2.517  0.4824  0.9148  0.1229
 1954SOL    HW115792   7.920   9.302   2.540  1.3925  1.6750  0.2777
 1954SOL    HW215793   7.965   9.164   2.582  0.4474  1.4977  0.7331
 1955SOL     OW15794  11.330  11.361   4.308  0.4695 -0.6443  0.3067
 1955SOL    HW115795  11.284  11.440   4.281  1.0261  0.1871  1.6966
 1955SOL    HW215796  11.261  11.300   4.333  0.0731  0.0236  0.8580
 1956SOL     OW15797   2.993   3.317   8.689 -0.3029  0.1023 -0.1856
 1956SOL    HW115798   3.029   3.285   8.606 -0.9150 -0.8185 -0.1090
 1956SOL    HW215799   2.898   3.306   8.680 -0.3077 -1.1698  1.0959
 1957SOL     OW15800  10.939   9.982   4.476 -0.8043  0.0240  0.2319
 1957SOL    HW115801  11.010  10.026   4.428 -0.5314 -0.9820 -0.3161
 1957SOL    HW215802  10.886  10.053   4.511 -0.4084  0.7916 -0.6817
 1958SOL     OW15803   7.627   3.732   3.410  0.0283 -0.8412 -0.1811
 1958SOL    HW115804   7.665   3.726   3.498  2.3545  0.8666 -0.9737
 1958SOL    HW215805   7.621   3.826   3.393  1.3337 -1.1116 -2.5022
 1959SOL     OW15806   5.166   1.872  11.989 -0.1312  0.4028  0.1893
 1959SOL    HW115807   5.090   1.914  11.949 -0.0552 -0.2703 -0.6952
 1959SOL    HW215808   5.222   1.848  11.915  0.5105  0.0848  0.7713
 1960SOL     OW15809   1.770   9.547  10.999 -0.2335 -0.2557 -0.2639
 1960SOL    HW115810   1.865   9.541  10.989 -0.1182  0.7571  0.0830
 1960SOL    HW215811   1.745   9.467  11.046  0.4309 -0.5924 -0.4840
 1961SOL     OW15812   5.237  11.031   2.641  0.2832 -0.4085  0.1765
 1961SOL    HW115813   5.219  11.103   2.702  1.0717  0.2498 -0.3523
 1961SOL    HW215814   5.151  10.994   2.622 -0.4647  1.9049 -1.3605
 1962SOL     OW15815   6.788   4.180  10.133  0.2044  0.3159  0.7777
 1962SOL    HW115816   6.777   4.198  10.040 -0.3467  0.7843  0.9265
 1962SOL    HW215817   6.717   4.229  10.175  0.3075 -0.0802  1.4218
 1963SOL     OW15818   7.282   9.280   4.813  0.0524 -0.1015 -0.0254
 1963SOL    HW115819   7.258   9.325   4.732 -0.2578 -1.5148 -0.7339
 1963SOL    HW215820   7.201   9.281   4.865 -0.1279 -0.4082 -0.3020
 1964SOL     OW15821   2.799   2.880   0.867  0.0193 -0.1018 -0.3462
 1964SOL    HW115822   2.831   2.849   0.782  0.1174  1.2659 -0.8396
 1964SOL    HW215823   2.705   2.862   0.865 -0.1064  0.5426 -1.0565
 1965SOL     OW15824   6.007   3.067   1.552 -0.2805 -0.5743 -0.3204
 1965SOL    HW115825   6.067   3.032   1.487  0.8140 -0.6136  0.6794
 1965SOL    HW215826   6.063   3.100   1.622 -1.3943  0.2505  0.2218
 1966SOL     OW15827   9.910   9.857   4.830 -0.0171  0.1657  0.5326
 1966SOL    HW115828   9.888   9.907   4.908 -1.4667 -0.1677  0.3650
 1966SOL    HW215829   9.959   9.782   4.863 -2.4886 -1.1824  1.4688
 1967SOL     OW15830   0.170   6.982   3.398 -0.0529 -0.3161  0.1534
 1967SOL    HW115831   0.132   6.937   3.322 -0.4876 -1.4228  0.9930
 1967SOL    HW215832   0.218   7.056   3.360 -0.0445 -0.9752 -1.2208
 1968SOL     OW15833   0.942   9.341   2.030 -0.5187  0.0005 -0.0482
 1968SOL    HW115834   0.899   9.368   1.949 -0.2456 -0.5688 -0.3864
 1968SOL    HW215835   0.871   9.304   2.083 -0.4124 -1.2134 -0.7240
 1969SOL     OW15836  11.447  12.541   1.655 -0.1700 -0.1481  0.5251
 1969SOL    HW115837  11.498  12.471   1.696 -1.4720 -1.1738  0.4565
 1969SOL    HW215838  11.397  12.497   1.587  0.2890  1.1646 -0.7199
 1970SOL     OW15839   2.353   5.638   0.122 -0.3919  0.7001 -0.3587
 1970SOL    HW115840   2.435   5.613   0.078  0.7727  1.1103  1.4690
 1970SOL    HW215841   2.285   5.621   0.057  0.8794 -1.9388 -1.1763
 1971SOL     OW15842   2.922  10.643   4.300  0.9364 -0.0919  0.0741
 1971SOL    HW115843   2.832  10.622   4.325  0.6619  0.5281 -0.3778
 1971SOL    HW215844   2.959  10.685   4.377  0.7958 -0.2282  0.2170
 1972SOL     OW15845   5.715  12.401  10.122  0.4336  0.2253 -0.5825
 1972SOL    HW115846   5.762  12.482  10.145 -0.3940  0.0999  1.7900
 1972SOL    HW215847   5.727  12.393  10.027  1.7813  2.3301 -0.6628
 1973SOL     OW15848   5.072   7.756   9.205 -0.1586 -0.1828  0.2436
 1973SOL    HW115849   5.122   7.684   9.166  0.7444  0.3702  0.3519
 1973SOL    HW215850   5.021   7.715   9.275  0.9249 -0.6031  0.8095
 1974SOL     OW15851   5.856   6.161   5.352 -0.4233  0.0618 -0.0454
 1974SOL    HW115852   5.810   6.212   5.419 -0.5981 -0.0971 -0.0417
 1974SOL    HW215853   5.831   6.070   5.371  1.0273 -0.1850  0.8591
 1975SOL     OW15854   2.925   1.308   9.937  0.1812  0.5408  0.4969
 1975SOL    HW115855   2.868   1.289  10.011 -0.5567 -2.1039 -0.6416
 1975SOL    HW215856   2.876   1.372   9.885 -0.7626 -0.0197  0.6698
 1976SOL     OW15857   8.767   3.311  12.316 -0.5392  0.1937 -0.1493
 1976SOL    HW115858   8.838   3.352  12.266 -0.6946  2.1266  1.1055
 1976SOL    HW215859   8.807   3.289  12.400 -0.9775 -0.4332 -0.0995
 1977SOL     OW15860   0.016   1.368   1.728 -0.1579 -0.1458 -0.7275
 1977SOL    HW115861   0.018   1.325   1.813  1.5934 -0.9593 -1.1335
 1977SOL    HW215862  -0.041   1.312   1.674 -2.3179  1.0530  0.1888
 1978SOL     OW15863   4.455   6.561   6.776 -0.2459 -0.1736 -0.3957
 1978SOL    HW115864   4.422   6.590   6.861 -1.0829  0.3969 -0.8897
 1978SOL    HW215865   4.405   6.482   6.757 -2.0244  1.1126 -1.4976
 1979SOL     OW15866   6.752   5.287  10.743 -0.1652 -0.2386  0.3524
 1979SOL    HW115867   6.677   5.229  10.756 -2.1977  2.5789  2.7066
 1979SOL    HW215868   6.741   5.320  10.654 -0.7559 -1.1212  0.0842
 1980SOL     OW15869   6.313   8.309   9.076  1.0050 -0.2073 -0.5391
 1980SOL    HW115870   6.379   8.378   9.072  1.7276 -0.8368  0.1297
 1980SOL    HW215871   6.239   8.349   9.123  0.3274  0.9331 -2.4580
 1981SOL     OW15872   0.027   2.959   7.493 -0.0969  0.0713  0.0924
 1981SOL    HW115873  -0.004   2.925   7.576  1.4450 -0.5172  0.4548
 1981SOL    HW215874   0.077   2.887   7.454  2.1639  1.4200  0.2985
 1982SOL     OW15875   3.513   7.304  10.808 -0.4447 -0.2233 -0.0922
 1982SOL    HW115876   3.598   7.262  10.819 -0.3281  0.1062  0.2796
 1982SOL    HW215877   3.473   7.300  10.895 -1.2749 -1.3614 -0.5014
 1983SOL     OW15878   1.836   4.511  10.440 -0.2047 -0.2846 -0.5730
 1983SOL    HW115879   1.769   4.499  10.372  0.6743  0.6851 -1.6435
 1983SOL    HW215880   1.882   4.591  10.415  1.4084 -0.9591  0.0980
 1984SOL     OW15881   1.800  12.170   9.509 -0.1706 -0.3912  0.2822
 1984SOL    HW115882   1.885  12.180   9.553 -0.5430 -0.1039  0.9556
 1984SOL    HW215883   1.801  12.238   9.441 -0.0713 -0.0405  0.6303
 1985SOL     OW15884  10.820  12.681   0.537  0.4013  0.0488  0.3588
 1985SOL    HW115885  10.807  12.622   0.611  1.2910 -0.0514  0.4539
 1985SOL    HW215886  10.882  12.747   0.569 -0.4349  0.9308  0.1934
 1986SOL     OW15887   9.642   4.587   2.071 -0.5198 -0.2606 -0.4312
 1986SOL    HW115888   9.694   4.608   1.993 -2.0281 -0.7853 -1.6304
 1986SOL    HW215889   9.673   4.500   2.097  0.1297  0.0015 -0.2936
 1987SOL     OW15890   6.248   1.038   2.251  0.2973  0.2274  0.0284
 1987SOL    HW115891   6.159   1.062   2.278  0.3949 -0.2218  0.7953
 1987SOL    HW215892   6.300   1.116   2.268 -0.3151  1.2715 -2.5017
 1988SOL     OW15893   7.723   3.487   2.795  0.5476  0.9518  0.1196
 1988SOL    HW115894   7.734   3.563   2.739 -1.2255  0.2989 -1.2239
 1988SOL    HW215895   7.628   3.478   2.805  0.5415 -2.2130 -1.4677
 1989SOL     OW15896   4.170   0.027  10.135 -0.1527 -0.1898  0.1747
 1989SOL    HW115897   4.209   0.073  10.061  0.2175 -1.2357 -0.3047
 1989SOL    HW215898   4.104   0.087  10.169 -0.3967  0.2829 -1.0663
 1990SOL     OW15899   3.766  11.566   8.406 -0.1082 -0.1952  0.2596
 1990SOL    HW115900   3.760  11.659   8.382 -0.2695 -0.7191 -1.9514
 1990SOL    HW215901   3.795  11.567   8.497  2.1909  2.0223 -0.3741
 1991SOL     OW15902   3.935   5.636   0.540  0.0593  0.9442  0.3914
 1991SOL    HW115903   3.854   5.658   0.584  0.5386  1.4149  1.0616
 1991SOL    HW215904   3.997   5.616   0.611  0.3654 -0.0145 -0.1185
 1992SOL     OW15905   6.071  13.162  10.175 -0.5758  0.0530  0.5011
 1992SOL    HW115906   6.023  13.127  10.100 -0.1650  0.1293  0.1938
 1992SOL    HW215907   6.139  13.218  10.136  2.2441 -2.9349  0.6509
 1993SOL     OW15908   2.191   3.245   5.274 -0.0588  0.5166  0.0517
 1993SOL    HW115909   2.285   3.225   5.274 -0.5015 -1.8259  1.1391
 1993SOL    HW215910   2.174   3.279   5.362 -0.1156  1.7943 -0.4260
 1994SOL     OW15911   3.721   9.952  12.771  0.0147  0.2088  0.3447
 1994SOL    HW115912   3.717  10.047  12.782  1.1421  0.1056  2.0926
 1994SOL    HW215913   3.805   9.935  12.730 -1.0981  0.0560 -2.0231
 1995SOL     OW15914   7.723   9.177   7.112  0.3028 -0.6592 -0.0167
 1995SOL    HW115915   7.668   9.101   7.094 -1.4009  0.7776 -1.2054
 1995SOL    HW215916   7.670   9.252   7.084  2.1286  0.9345  0.6049
 1996SOL     OW15917  11.505  10.249  13.185 -0.6943  0.2115 -0.3802
 1996SOL    HW115918  11.563  10.190  13.233 -1.0785 -0.3073 -0.5310
 1996SOL    HW215919  11.519  10.335  13.224 -2.4516 -0.5074  2.0355
 1997SOL     OW15920   0.125   3.340   5.962  0.1077 -0.2334 -0.2519
 1997SOL    HW115921   0.134   3.350   5.867 -1.3099 -2.4066 -0.6902
 1997SOL    HW215922   0.080   3.256   5.973  1.4017 -0.6707  2.4174
 1998SOL     OW15923  11.608   3.695   5.761 -0.8183  0.5198 -0.1790
 1998SOL    HW115924  11.529   3.650   5.732 -1.9021  2.1841  0.0497
 1998SOL    HW215925  11.576   3.772   5.808  0.9356  0.6883  0.8442
 1999SOL     OW15926   0.293   7.164  10.819  0.3248 -0.1977 -0.2752
 1999SOL    HW115927   0.266   7.073  10.812 -0.3212 -0.0585  0.2442
 1999SOL    HW215928   0.375   7.169  10.770  0.5260 -1.1192 -0.0474
 2000SOL     OW15929  10.846   3.324  11.012  0.2638 -0.8517  0.2417
 2000SOL    HW115930  10.823   3.302  10.921 -3.5230 -0.8410  1.0145
 2000SOL    HW215931  10.878   3.241  11.049 -0.8083 -1.5918 -0.4191
 2001SOL     OW15932  11.336   0.082   5.652  0.0079 -0.4446  0.0293
 2001SOL    HW115933  11.349   0.170   5.685  0.3930 -0.3966 -0.2484
 2001SOL    HW215934  11.281   0.093   5.574  0.3518 -0.4110 -0.2128
 2002SOL     OW15935   1.991   4.702   5.470  0.9255  0.2199  0.4280
 2002SOL    HW115936   1.945   4.679   5.550  0.0127  0.6424  0.0342
 2002SOL    HW215937   1.982   4.797   5.462  0.9194  0.1742 -0.2266
 2003SOL     OW15938   6.508   9.300   4.173  0.1547 -0.1602  0.2281
 2003SOL    HW115939   6.514   9.341   4.087  0.1367  3.0991  1.6368
 2003SOL    HW215940   6.597   9.306   4.209  0.4622 -2.6451  0.0330
 2004SOL     OW15941   1.859   0.960   1.539  0.0089  0.2847  0.1289
 2004SOL    HW115942   1.798   0.922   1.601  0.6766 -1.4396 -0.2062
 2004SOL    HW215943   1.808   1.027   1.493 -1.0199  0.2896  1.2412
 2005SOL     OW15944   2.025  11.883   6.580 -0.0922  0.5679 -0.2091
 2005SOL    HW115945   1.949  11.852   6.629 -0.5002 -1.5272 -2.0460
 2005SOL    HW215946   2.009  11.857   6.490  2.3810  0.9019 -0.8269
 2006SOL     OW15947  11.357   2.764   4.779 -0.1272 -0.3080  0.5548
 2006SOL    HW115948  11.311   2.825   4.722 -1.0256 -2.2185 -0.8736
 2006SOL    HW215949  11.439   2.746   4.734  1.0078  1.2158  1.9010
 2007SOL     OW15950  12.310  12.238   9.406  0.0309  0.5153  0.0956
 2007SOL    HW115951  12.322  12.148   9.435 -0.0392  0.1815 -0.8681
 2007SOL    HW215952  12.319  12.291   9.486  4.4671  0.0787  0.1655
 2008SOL     OW15953  11.207   0.147  10.678 -0.0342  0.2535 -0.0462
 2008SOL    HW115954  11.183   0.125  10.768 -0.9044 -1.6412 -0.6789
 2008SOL    HW215955  11.158   0.227  10.658 -1.3223 -0.3460  0.5882
 2009SOL     OW15956   1.282   3.263   5.889  0.3404 -0.5177 -0.0807
 2009SOL    HW115957   1.188   3.262   5.910  0.4725  1.3141  0.8491
 2009SOL    HW215958   1.310   3.352   5.912  2.1076 -0.7158 -1.2841
 2010SOL     OW15959   7.252   5.053   9.999  0.3501 -0.1443  0.5251
 2010SOL    HW115960   7.192   5.024   9.930 -1.4130  0.7298  1.6128
 2010SOL    HW215961   7.318   4.984  10.004 -0.2492 -0.8865 -1.1051
 2011SOL     OW15962   0.318   7.140   5.797 -0.2353  0.1085  0.1429
 2011SOL    HW115963   0.305   7.118   5.889  0.7686  0.7402  0.4575
 2011SOL    HW215964   0.361   7.063   5.760  0.1265  0.1805  0.4101
 2012SOL     OW15965   3.548   7.476  12.398  0.8319 -0.3524 -0.2725
 2012SOL    HW115966   3.639   7.493  12.373  0.6819  0.6923 -0.1668
 2012SOL    HW215967   3.551   7.456  12.491  1.1804 -2.4539 -0.6838
 2013SOL     OW15968  12.121   6.816  10.485 -0.3085 -0.0100  0.1019
 2013SOL    HW115969  12.210   6.845  10.504 -0.4781  0.5012  0.1373
 2013SOL    HW215970  12.090   6.876  10.417 -0.3488 -0.6760 -0.4761
 2014SOL     OW15971   8.422  10.599  10.376 -0.8690 -0.4266 -0.5583
 2014SOL    HW115972   8.426  10.695  10.377 -0.5127 -0.4407 -0.0080
 2014SOL    HW215973   8.514  10.572  10.384 -1.0187 -0.8148 -0.1629
 2015SOL     OW15974   3.773   4.600  11.028 -0.2533 -0.1893  0.3209
 2015SOL    HW115975   3.781   4.674  11.089  0.6827 -0.7306  0.8778
 2015SOL    HW215976   3.683   4.569  11.041 -2.0968  3.1696 -2.7186
 2016SOL     OW15977   3.822   1.421  11.926 -0.0867  0.6726 -0.0461
 2016SOL    HW115978   3.826   1.408  11.832  3.7313 -1.4632  0.2277
 2016SOL    HW215979   3.802   1.335  11.962 -1.0710  1.3679  1.1577
 2017SOL     OW15980   4.411  13.192   2.355  0.1264  1.0050 -0.4791
 2017SOL    HW115981   4.345  13.170   2.290  1.0192  1.3914 -1.5585
 2017SOL    HW215982   4.375  13.269   2.400 -0.3395  0.9673 -0.7763
 2018SOL     OW15983   9.118   2.824   1.424 -0.5478  0.5726  0.3803
 2018SOL    HW115984   9.083   2.875   1.497 -1.4105  1.5712 -0.7020
 2018SOL    HW215985   9.081   2.865   1.346 -0.5011 -1.1228 -0.5782
 2019SOL     OW15986   4.172  12.681   3.351  0.1851 -0.0749  0.2147
 2019SOL    HW115987   4.257  12.643   3.376 -0.0104 -0.6491  0.0150
 2019SOL    HW215988   4.189  12.775   3.348  0.3539 -0.0152  1.9552
 2020SOL     OW15989   3.745   7.395  12.645 -0.3614 -0.0042  0.7358
 2020SOL    HW115990   3.828   7.431  12.677 -1.0058 -0.2199  2.7615
 2020SOL    HW215991   3.681   7.420  12.712 -1.6844 -1.0051 -0.1197
 2021SOL     OW15992   6.280   4.800   4.124  0.6199 -0.3411 -0.5413
 2021SOL    HW115993   6.359   4.815   4.176  0.7455 -1.4062 -0.4007
 2021SOL    HW215994   6.294   4.849   4.043  0.9837  0.2858 -0.1082
 2022SOL     OW15995  10.378   1.122   2.182 -0.0976  0.7553  0.1431
 2022SOL    HW115996  10.290   1.116   2.145  0.4708 -0.6431 -1.1185
 2022SOL    HW215997  10.382   1.052   2.247  0.4097  0.0803 -0.5960
 2023SOL     OW15998   2.536   6.133   1.129 -0.0344 -0.4405  0.3968
 2023SOL    HW115999   2.505   6.043   1.141  1.0108 -0.6606  1.6773
 2023SOL    HW216000   2.587   6.151   1.208  0.8090  0.8460 -0.4094
 2024SOL     OW16001   4.641  13.054   7.603 -0.0761  0.7869 -0.1714
 2024SOL    HW116002   4.574  13.014   7.546 -0.0657 -0.3307  0.5665
 2024SOL    HW216003   4.601  13.054   7.690 -0.5524  3.5457 -0.3110
 2025SOL     OW16004   7.612  11.260   1.366  0.3582  0.2045 -0.3382
 2025SOL    HW116005   7.643  11.176   1.398 -1.5061 -0.3693  0.1058
 2025SOL    HW216006   7.644  11.324   1.429 -0.3495 -0.5023  0.7758
 2026SOL     OW16007   8.109  12.830  12.428  0.3610 -0.3535  0.3470
 2026SOL    HW116008   8.133  12.922  12.417  0.9288 -0.5737 -0.3019
 2026SOL    HW216009   8.135  12.788  12.347 -2.2520 -0.6307 -0.4541
 2027SOL     OW16010   2.476   6.152  10.664  0.0855  0.0427 -0.0895
 2027SOL    HW116011   2.564   6.125  10.636 -0.5541 -1.7958 -0.4740
 2027SOL    HW216012   2.475   6.137  10.758 -1.1968 -4.5197 -0.6306
 2028SOL     OW16013  12.472   7.379   1.036 -0.3305 -0.1649 -0.1604
 2028SOL    HW116014  12.388   7.359   0.993  0.0456 -0.1669 -0.9035
 2028SOL    HW216015  12.537   7.374   0.966  0.4464 -1.2142  0.6072
 2029SOL     OW16016   6.792   1.851  12.274 -0.0116  0.2336  0.2499
 2029SOL    HW116017   6.874   1.849  12.223 -1.1239 -0.7691 -1.6294
 2029SOL    HW216018   6.820   1.859  12.365  2.2474 -1.1885 -0.2354
 2030SOL     OW16019   3.643  10.606   3.501  0.5691 -0.3625  0.5114
 2030SOL    HW116020   3.561  10.571   3.467  1.2449 -0.8203 -0.7124
 2030SOL    HW216021   3.618  10.686   3.547 -0.6031 -0.7039  0.5070
 2031SOL     OW16022  12.711   8.228  11.007 -0.5118  0.3531 -0.5838
 2031SOL    HW116023  12.736   8.233  10.914 -1.2698  2.5319 -0.7420
 2031SOL    HW216024  12.616   8.229  11.005 -0.5338 -0.0361  0.2257
 2032SOL     OW16025   7.886   1.524   0.798 -0.2187  0.3217 -0.4250
 2032SOL    HW116026   7.882   1.432   0.824  1.6121 -0.1155 -1.5376
 2032SOL    HW216027   7.849   1.527   0.710 -1.2558  0.8578  0.0101
 2033SOL     OW16028   9.482   4.740  12.979 -0.6213 -0.2928 -0.3956
 2033SOL    HW116029   9.535   4.660  12.988  0.4450  0.2806 -1.3796
 2033SOL    HW216030   9.433   4.745  13.061 -0.1762 -1.5799 -0.0224
 2034SOL     OW16031   0.737   3.401   4.392 -0.1540 -0.5661  0.4519
 2034SOL    HW116032   0.806   3.408   4.458  0.5125 -1.1662 -0.1673
 2034SOL    HW216033   0.667   3.458   4.425  0.8699  0.5556  0.7979
 2035SOL     OW16034   1.147   7.884   9.722 -0.1050 -0.2028 -0.1469
 2035SOL    HW116035   1.107   7.836   9.794 -1.9644  2.4863  0.7517
 2035SOL    HW216036   1.116   7.839   9.643 -0.2334 -1.5741  0.6509
 2036SOL     OW16037  10.700  10.509   6.674 -0.2256  0.1962  0.0347
 2036SOL    HW116038  10.650  10.566   6.733 -1.5294 -1.2859  0.4404
 2036SOL    HW216039  10.773  10.563   6.644 -1.5454  2.1696  0.1750
 2037SOL     OW16040   7.211  10.607   0.156  0.4149  0.5494 -0.3708
 2037SOL    HW116041   7.210  10.645   0.244 -1.0124  1.0273 -0.5684
 2037SOL    HW216042   7.303  10.608   0.130  0.8489  0.4425  1.0930
 2038SOL     OW16043   5.581   7.851   1.956  0.0730 -0.0366  0.4456
 2038SOL    HW116044   5.664   7.896   1.970 -0.0507  0.1018  0.7287
 2038SOL    HW216045   5.606   7.760   1.939  0.2366 -0.1656  1.3451
 2039SOL     OW16046   8.326   3.438  12.906  0.0729 -0.6650 -0.0626
 2039SOL    HW116047   8.389   3.472  12.842  0.0122  0.2314  0.3418
 2039SOL    HW216048   8.302   3.351  12.872  1.1822 -0.8304 -0.4507
 2040SOL     OW16049   7.691   8.541   5.396  0.3930  0.6044  0.3689
 2040SOL    HW116050   7.781   8.543   5.361 -0.5219  0.5551 -2.2438
 2040SOL    HW216051   7.637   8.573   5.323 -1.9811 -1.9605  0.8538
 2041SOL     OW16052  11.092  12.681   5.988 -0.0971  0.4667 -0.4639
 2041SOL    HW116053  11.074  12.609   5.928 -2.2992  0.7530 -0.2465
 2041SOL    HW216054  11.168  12.653   6.038  1.0073 -0.3148 -2.4939
 2042SOL     OW16055   7.074   7.283   1.900 -0.6073 -0.3146 -0.4324
 2042SOL    HW116056   7.120   7.232   1.967  0.0543 -0.6954 -1.1509
 2042SOL    HW216057   7.001   7.324   1.946  0.2231 -0.0178  0.6619
 2043SOL     OW16058  12.467  10.151  12.974  0.4421 -0.4410 -0.3305
 2043SOL    HW116059  12.456  10.225  13.034 -1.5976  0.1456 -1.3376
 2043SOL    HW216060  12.557  10.122  12.988  0.5695  0.7699  1.7423
 2044SOL     OW16061   3.678   3.765  11.785 -0.3715  0.5453 -0.4831
 2044SOL    HW116062   3.750   3.723  11.739 -0.8163 -0.0301 -0.6609
 2044SOL    HW216063   3.698   3.754  11.878 -1.6335 -2.1948 -0.4346
 2045SOL     OW16064   7.013  11.531   6.684 -0.0196  0.2680 -0.2042
 2045SOL    HW116065   7.084  11.557   6.626 -0.6807 -0.0772 -1.1979
 2045SOL    HW216066   6.934  11.558   6.639 -0.5487  0.3200  0.7189
 2046SOL     OW16067   0.218   6.195   6.254  0.3445 -0.1902 -0.1593
 2046SOL    HW116068   0.230   6.289   6.243 -0.0169 -0.3045 -1.7428
 2046SOL    HW216069   0.147   6.187   6.318  0.9719  0.5816  0.6644
 2047SOL     OW16070   8.840  11.657   8.948  0.1024 -0.1150  0.1432
 2047SOL    HW116071   8.922  11.706   8.940  0.1059 -0.0202  0.7534
 2047SOL    HW216072   8.772  11.724   8.947 -0.0210 -0.2383 -1.0944
 2048SOL     OW16073  11.081  11.005  10.620  0.3414 -0.4496  0.2554
 2048SOL    HW116074  11.015  11.070  10.646  0.5307 -1.1626  2.7937
 2048SOL    HW216075  11.139  11.053  10.561 -1.3159  0.7506 -0.5107
 2049SOL     OW16076   3.099   5.194   3.784 -0.4860 -0.2553 -0.3686
 2049SOL    HW116077   3.066   5.143   3.858 -0.4407  0.3046  0.0413
 2049SOL    HW216078   3.035   5.178   3.714 -0.6414 -0.6195 -0.1459
 2050SOL     OW16079  11.488   9.886   6.710  0.4653 -0.0459 -0.3721
 2050SOL    HW116080  11.408   9.833   6.720  0.8263 -0.5598 -0.1799
 2050SOL    HW216081  11.463   9.971   6.745  0.2335 -0.4338  0.4346
 2051SOL     OW16082   8.692   3.724   5.697 -0.0966  0.7662  0.3110
 2051SOL    HW116083   8.599   3.719   5.721 -0.3686  0.1379 -0.7876
 2051SOL    HW216084   8.728   3.639   5.721 -0.0713  0.6120 -0.2412
 2052SOL     OW16085   5.432  10.697  13.312 -0.0847  0.5774  0.5250
 2052SOL    HW116086   5.342  10.682  13.284  0.6174 -0.8648 -1.1839
 2052SOL    HW216087   5.443  10.791  13.307 -1.0680  0.6603 -0.7884
 2053SOL     OW16088   2.430   7.970   1.711 -0.0705 -0.2709 -0.5304
 2053SOL    HW116089   2.463   7.882   1.729  2.9033  0.5928 -1.2293
 2053SOL    HW216090   2.505   8.027   1.726 -1.0156  1.8165 -3.0371
 2054SOL     OW16091   5.722   8.144   4.047 -0.3787  0.3238 -0.3444
 2054SOL    HW116092   5.667   8.120   4.121  2.0302 -2.0609  0.8468
 2054SOL    HW216093   5.791   8.198   4.085  1.3092 -1.5363 -0.5917
 2055SOL     OW16094  13.193   1.691   5.644 -0.5911 -0.0006 -0.2158
 2055SOL    HW116095  13.198   1.781   5.678 -1.2104 -0.2078  0.4554
 2055SOL    HW216096  13.269   1.683   5.587 -1.0990  1.3049 -1.1321
 2056SOL     OW16097   7.277   1.918   0.038 -0.0261  0.3577 -0.0731
 2056SOL    HW116098   7.205   1.860   0.061  0.6303 -0.4693 -0.0658
 2056SOL    HW216099   7.337   1.914   0.113 -1.0288  2.8482  0.9867
 2057SOL     OW16100   1.407   4.725   4.335 -0.1477  0.2444  0.3410
 2057SOL    HW116101   1.433   4.760   4.250 -1.1024 -0.1588 -0.1313
 2057SOL    HW216102   1.490   4.708   4.381  0.4501 -1.0888 -1.1416
 2058SOL     OW16103   3.901   7.047   1.829 -0.0009  0.3969  0.2310
 2058SOL    HW116104   3.818   7.096   1.833  0.5253  1.2960  0.3681
 2058SOL    HW216105   3.899   6.992   1.907 -1.3968 -1.1371 -0.8383
 2059SOL     OW16106  11.254   6.659   9.710 -0.1870  0.4766  0.9275
 2059SOL    HW116107  11.261   6.724   9.640  0.6283  0.4701  0.9836
 2059SOL    HW216108  11.334   6.607   9.701 -0.1404  0.3880  1.7817
 2060SOL     OW16109  10.296  10.597  10.488  0.1411 -0.1663  0.3533
 2060SOL    HW116110  10.233  10.659  10.523  0.3811  1.1606 -1.3769
 2060SOL    HW216111  10.258  10.511  10.504 -1.5732  0.5492  0.3538
 2061SOL     OW16112  12.956   4.456   9.577 -0.4287  0.0569  0.0098
 2061SOL    HW116113  12.939   4.362   9.570 -0.3508 -0.0006  0.5035
 2061SOL    HW216114  13.032   4.471   9.520  1.4386 -0.7320  2.1288
 2062SOL     OW16115   3.302   4.694  12.367 -0.3526  0.4985  0.3958
 2062SOL    HW116116   3.387   4.726  12.396 -0.6135  1.4585  0.1423
 2062SOL    HW216117   3.303   4.706  12.272 -0.2432 -0.8083  0.2133
 2063SOL     OW16118  11.164  11.999   0.133  0.0327 -0.0018 -0.0554
 2063SOL    HW116119  11.192  12.090   0.129 -0.6143  0.3110  1.5540
 2063SOL    HW216120  11.201  11.966   0.215  0.1028 -1.1365 -0.5279
 2064SOL     OW16121   8.422   7.575   0.671 -0.1439  0.1934  0.2946
 2064SOL    HW116122   8.454   7.540   0.587  1.0825 -0.7470  1.1219
 2064SOL    HW216123   8.333   7.539   0.679  0.0836 -0.4923 -0.1562
 2065SOL     OW16124   3.875   7.297   1.092 -0.5514  0.2603  0.6044
 2065SOL    HW116125   3.924   7.328   1.016  1.0877 -0.4745  1.3034
 2065SOL    HW216126   3.786   7.329   1.078 -0.4292 -0.2780 -1.8550
 2066SOL     OW16127  12.284   5.365   8.712  0.4835 -0.0027  0.0466
 2066SOL    HW116128  12.221   5.334   8.777 -1.0207  1.0289 -0.8525
 2066SOL    HW216129  12.288   5.294   8.647 -1.8141  0.9350 -1.2376
 2067SOL     OW16130   0.604   2.048   9.476 -0.0527  0.0827  0.7560
 2067SOL    HW116131   0.691   2.068   9.510  0.8190  0.5185 -1.5530
 2067SOL    HW216132   0.593   2.107   9.401 -1.8012 -0.8624  0.2067
 2068SOL     OW16133   7.075   1.264   9.657 -0.3173 -0.0135 -0.2956
 2068SOL    HW116134   7.167   1.250   9.676 -0.7490 -0.2754  1.9390
 2068SOL    HW216135   7.051   1.191   9.599  1.2212  1.0718 -2.4441
 2069SOL     OW16136  10.124   9.608   7.849  0.1326 -0.1806 -0.1337
 2069SOL    HW116137  10.206   9.620   7.897  0.3490 -0.5665 -0.4001
 2069SOL    HW216138  10.099   9.517   7.868 -0.1572 -0.1066 -0.1690
 2070SOL     OW16139   9.126   9.818   2.701 -0.5983  0.6596 -0.6874
 2070SOL    HW116140   9.075   9.745   2.735  0.5299 -0.0066 -0.3721
 2070SOL    HW216141   9.158   9.788   2.615  1.4295 -0.0101  0.2393
 2071SOL     OW16142  12.873   7.623   3.204 -0.1791  0.3166 -0.6253
 2071SOL    HW116143  12.812   7.598   3.134 -2.5292  3.1330  0.2000
 2071SOL    HW216144  12.939   7.677   3.160 -1.2298  1.4587 -0.8821
 2072SOL     OW16145   8.699   7.886  11.011 -0.9840 -0.0627 -0.0429
 2072SOL    HW116146   8.706   7.853  11.100 -2.0911 -0.0899  0.0439
 2072SOL    HW216147   8.718   7.980  11.019 -1.9378  0.1020  0.3654
 2073SOL     OW16148   3.202   1.662  11.078  0.8424  0.3230 -0.2228
 2073SOL    HW116149   3.179   1.600  11.009 -0.4700  1.5057 -0.8749
 2073SOL    HW216150   3.129   1.723  11.081  2.1920  1.9706  0.2753
 2074SOL     OW16151  10.009   7.375  11.450  0.4350 -0.5519  0.5319
 2074SOL    HW116152  10.093   7.400  11.488 -0.5011  1.2402  1.5504
 2074SOL    HW216153   9.950   7.368  11.525 -0.2482 -2.3066 -0.1120
 2075SOL     OW16154   3.046  10.700   2.052 -0.2561  0.3642 -0.3835
 2075SOL    HW116155   3.008  10.727   1.968 -1.1481  0.1888 -0.0504
 2075SOL    HW216156   3.023  10.607   2.059 -0.7454  0.5358  0.3430
 2076SOL     OW16157   3.629  12.293   1.754 -0.1405 -0.2231 -0.2165
 2076SOL    HW116158   3.708  12.327   1.712 -0.4577 -0.3153 -0.9154
 2076SOL    HW216159   3.633  12.198   1.740  0.4330 -0.4301  1.1888
 2077SOL     OW16160   5.589   6.785  12.830 -0.5921  0.4724  0.1209
 2077SOL    HW116161   5.513   6.743  12.869  1.1496 -1.4958  1.6747
 2077SOL    HW216162   5.618   6.848  12.896 -0.0884  0.1833  0.1878
 2078SOL     OW16163  12.296   2.543  10.765 -0.4229  0.2181  0.0684
 2078SOL    HW116164  12.391   2.547  10.750 -0.4338  0.0527 -0.0525
 2078SOL    HW216165  12.268   2.634  10.765 -0.2737  0.2651  0.0357
 2079SOL     OW16166   4.369   1.074  10.307 -0.0562 -0.2947  0.2086
 2079SOL    HW116167   4.396   1.165  10.304  2.0369 -0.8769  0.0047
 2079SOL    HW216168   4.322   1.066  10.390  1.7826  0.4706  1.3870
 2080SOL     OW16169  11.147   6.819   6.904 -0.1085 -0.0302 -0.0529
 2080SOL    HW116170  11.119   6.787   6.989 -1.3007 -0.1328 -0.4713
 2080SOL    HW216171  11.212   6.755   6.874 -0.2510 -0.4046  0.4321
 2081SOL     OW16172  10.479  10.200   6.872  0.1108 -0.0383  0.1083
 2081SOL    HW116173  10.460  10.245   6.955 -0.5664  0.3437 -0.2433
 2081SOL    HW216174  10.497  10.109   6.897  2.4942  0.5815  0.9464
 2082SOL     OW16175  11.649   3.303   7.247  0.1127 -0.9163  0.7084
 2082SOL    HW116176  11.566   3.281   7.290  0.3079 -1.3660  0.8597
 2082SOL    HW216177  11.710   3.317   7.319 -0.5143  2.4485  0.7752
 2083SOL     OW16178   9.017   4.648   5.057  0.1603  0.3269 -0.2758
 2083SOL    HW116179   9.008   4.553   5.066  1.0604  0.1686 -0.9783
 2083SOL    HW216180   8.930   4.682   5.078  0.2027 -0.5314  1.4300
 2084SOL     OW16181   8.625   0.500   4.351  0.3080 -0.0892 -1.1275
 2084SOL    HW116182   8.570   0.423   4.360  0.9103 -0.5229 -1.0796
 2084SOL    HW216183   8.702   0.481   4.404  0.4843  0.5261 -1.1545
 2085SOL     OW16184   4.445   9.276   9.365  0.1097 -0.9783  0.2036
 2085SOL    HW116185   4.399   9.359   9.370  0.0725 -0.8546 -1.7732
 2085SOL    HW216186   4.467   9.256   9.456  0.8328  1.5805  0.6646
 2086SOL     OW16187   6.351   7.573   8.277  0.5648  0.1835 -0.2536
 2086SOL    HW116188   6.282   7.523   8.233  0.5502  0.1121 -0.1521
 2086SOL    HW216189   6.396   7.508   8.332 -1.0488  0.7297  1.8432
 2087SOL     OW16190   5.777   1.446   7.670 -0.1847  0.1128 -0.1309
 2087SOL    HW116191   5.836   1.445   7.745 -0.4997 -1.9283  0.1608
 2087SOL    HW216192   5.742   1.535   7.667  0.6611  0.5333  1.4619
 2088SOL     OW16193   3.660   9.328   6.572  0.3963  0.5896  0.1812
 2088SOL    HW116194   3.581   9.363   6.530 -0.2087  0.5185  1.2259
 2088SOL    HW216195   3.705   9.406   6.606  0.9879  0.6660 -0.7360
 2089SOL     OW16196   2.248   6.954  12.421 -0.3161 -0.5401  0.3581
 2089SOL    HW116197   2.203   6.962  12.506 -0.1389 -1.6038  0.5672
 2089SOL    HW216198   2.339   6.977  12.440 -0.5148  0.4142  0.1922
 2090SOL     OW16199   9.006   2.065  10.350  0.4995  0.1586  0.4226
 2090SOL    HW116200   9.008   2.107  10.263  0.3459 -1.1607 -0.2423
 2090SOL    HW216201   9.098   2.051  10.372  0.5259  0.0374  0.2398
 2091SOL     OW16202   6.981   9.344  11.521 -0.0629  0.8736 -0.3498
 2091SOL    HW116203   7.036   9.423  11.524  1.8983 -0.4490  0.9706
 2091SOL    HW216204   7.016   9.288  11.590 -0.2666 -1.9091 -2.3560
 2092SOL     OW16205   6.763  10.698   8.242 -0.2134  0.4933  0.1498
 2092SOL    HW116206   6.741  10.776   8.190 -0.1775  0.6307  0.3404
 2092SOL    HW216207   6.714  10.709   8.323  0.1094  0.5189  0.3444
 2093SOL     OW16208   3.223   8.585   5.110 -0.3414  0.3274  0.0275
 2093SOL    HW116209   3.216   8.492   5.131  0.2271  0.3387  0.2731
 2093SOL    HW216210   3.247   8.627   5.193  0.3919  0.5632 -0.2943
 2094SOL     OW16211   1.910   7.648   7.042  0.6601  0.2201  0.2001
 2094SOL    HW116212   1.935   7.698   7.119  2.1389 -0.0783 -0.0664
 2094SOL    HW216213   1.951   7.695   6.969 -0.2503  0.1753 -0.3546
 2095SOL     OW16214   3.392   0.413  11.853 -0.6968  0.1446  0.1204
 2095SOL    HW116215   3.449   0.483  11.886 -0.2624 -0.7491  1.3386
 2095SOL    HW216216   3.425   0.395  11.765 -2.3048  3.0511 -1.2083
 2096SOL     OW16217   1.335   8.717   3.110  0.2448 -0.1963 -0.0569
 2096SOL    HW116218   1.253   8.731   3.157 -0.0052 -0.6630 -0.3482
 2096SOL    HW216219   1.347   8.622   3.110  0.0854 -0.2316 -1.1832
 2097SOL     OW16220  11.215   8.902   9.295  0.0684  0.1771  0.1528
 2097SOL    HW116221  11.223   8.901   9.200 -0.6345  0.5923  0.0874
 2097SOL    HW216222  11.218   8.994   9.319  2.3521  0.0137  0.7360
 2098SOL     OW16223   3.709  11.435   3.469 -0.3300 -0.3680  0.1954
 2098SOL    HW116224   3.695  11.528   3.451  1.0921 -0.3381 -0.9811
 2098SOL    HW216225   3.622  11.395   3.461 -0.4574  0.2858 -3.1904
 2099SOL     OW16226   7.739  11.432   2.809 -0.0761 -0.3553 -0.4860
 2099SOL    HW116227   7.697  11.372   2.747 -2.1455 -0.2199  0.6807
 2099SOL    HW216228   7.796  11.376   2.862 -1.6432 -1.2705  0.3026
 2100SOL     OW16229   3.278   1.527   4.978  0.5909 -0.3721 -0.6236
 2100SOL    HW116230   3.298   1.503   5.068  0.1899  0.7863 -0.2049
 2100SOL    HW216231   3.307   1.453   4.926 -1.6751 -2.3104  0.6744
 2101SOL     OW16232   4.185  12.714   8.172  0.1792  0.0136  0.3980
 2101SOL    HW116233   4.206  12.748   8.085  0.3939  0.8963  0.7841
 2101SOL    HW216234   4.112  12.655   8.157  0.7267 -0.4774 -0.4955
 2102SOL     OW16235  12.546   0.576   1.566 -0.4738  0.0020  0.1760
 2102SOL    HW116236  12.472   0.535   1.610 -1.6304  3.1050  1.3697
 2102SOL    HW216237  12.621   0.560   1.624 -1.2620  1.0118  1.5194
 2103SOL     OW16238  12.206   8.617   1.075  0.2466 -0.3683 -0.1499
 2103SOL    HW116239  12.263   8.685   1.040  1.3905 -1.1111  0.2177
 2103SOL    HW216240  12.169   8.655   1.155  0.3498  0.0548 -0.3043
 2104SOL     OW16241   7.044   6.978  13.311 -0.5030 -0.3606 -0.1414
 2104SOL    HW116242   7.081   6.918  13.247 -1.5746  0.5150 -1.6487
 2104SOL    HW216243   6.998   7.043  13.259 -0.2407  1.1970  1.4868
 2105SOL     OW16244  13.176   5.971   2.426  0.5539 -0.1346  0.2769
 2105SOL    HW116245  13.217   5.955   2.511  1.2936  1.7693  0.3385
 2105SOL    HW216246  13.246   5.956   2.363  0.6689  0.6522  0.1991
 2106SOL     OW16247   5.488   8.484   1.398 -0.4593 -0.0634  0.2504
 2106SOL    HW116248   5.403   8.470   1.355 -0.9758 -0.8016  1.4435
 2106SOL    HW216249   5.541   8.530   1.333 -1.6054 -0.0517 -0.7091
 2107SOL     OW16250   0.451   6.599   6.012 -0.0418  0.0404  0.9681
 2107SOL    HW116251   0.450   6.539   5.938  2.2689  1.0807 -0.0157
 2107SOL    HW216252   0.529   6.573   6.062  1.1998  2.3222  0.3452
 2108SOL     OW16253   8.470  11.110   8.760 -0.1480  0.7264  0.3875
 2108SOL    HW116254   8.469  11.189   8.706 -0.2789 -0.3745 -1.2997
 2108SOL    HW216255   8.383  11.073   8.751  0.4658 -0.6018 -0.4311
 2109SOL     OW16256  10.206   8.984  10.579 -0.1382 -0.1356 -0.0143
 2109SOL    HW116257  10.276   8.965  10.517 -0.5456 -0.9129 -0.2473
 2109SOL    HW216258  10.163   9.062  10.543  0.1876 -0.0552 -0.2275
 2110SOL     OW16259   8.910   7.751  11.729 -0.4478 -0.0418  0.9783
 2110SOL    HW116260   8.957   7.680  11.685 -1.4497  0.0602 -0.3408
 2110SOL    HW216261   8.971   7.783  11.796  1.1519 -0.2707 -0.2956
 2111SOL     OW16262   1.379   3.816  10.630 -0.5241 -0.3560  0.1885
 2111SOL    HW116263   1.321   3.882  10.668 -0.1669  1.2575 -1.8648
 2111SOL    HW216264   1.450   3.807  10.693 -0.7363  1.0178  0.6530
 2112SOL     OW16265   8.682   9.617  11.002 -0.0953  0.4047  0.1117
 2112SOL    HW116266   8.642   9.704  10.996  0.2789  0.5851  0.1893
 2112SOL    HW216267   8.740   9.622  11.078 -1.7700 -0.6142  1.5434
 2113SOL     OW16268  12.041   7.325   6.391  0.2604 -0.0255 -0.2328
 2113SOL    HW116269  12.051   7.410   6.434 -1.8028  0.3128 -0.3113
 2113SOL    HW216270  11.976   7.341   6.322  2.6450 -0.7823 -2.8729
 2114SOL     OW16271   0.927   9.699   3.924  0.3407  0.0526  0.2105
 2114SOL    HW116272   0.996   9.742   3.875 -1.2565  1.9038 -0.5214
 2114SOL    HW216273   0.951   9.712   4.016  1.1955  0.2335 -0.0319
 2115SOL     OW16274   4.964   4.878   3.539 -0.7163  0.1408  0.0014
 2115SOL    HW116275   5.008   4.850   3.619 -0.1996 -0.0109 -0.3350
 2115SOL    HW216276   4.893   4.815   3.527  0.2908 -0.9052 -0.6219
 2116SOL     OW16277   0.696  12.511   5.851 -0.1291 -0.5749 -0.0171
 2116SOL    HW116278   0.724  12.451   5.782  1.0644 -0.1088  0.0234
 2116SOL    HW216279   0.763  12.580   5.851 -0.4829 -0.2010  1.1353
 2117SOL     OW16280   9.370   6.426   1.886  0.1028  0.3284  0.1085
 2117SOL    HW116281   9.317   6.346   1.894  0.7415 -0.1086  0.0508
 2117SOL    HW216282   9.454   6.395   1.851 -0.6547  1.3980 -2.9944
 2118SOL     OW16283   9.748  11.773   2.546  0.7881 -0.0305  0.2091
 2118SOL    HW116284   9.667  11.725   2.534  0.9749 -0.4737  0.7039
 2118SOL    HW216285   9.724  11.865   2.533  0.3471 -0.2153 -0.2936
 2119SOL     OW16286   5.171   5.038   0.680 -0.2324 -0.2603  0.0394
 2119SOL    HW116287   5.128   4.961   0.718 -1.1196 -0.1789 -0.7497
 2119SOL    HW216288   5.099   5.089   0.642  0.1984  1.5587  1.5366
 2120SOL     OW16289  11.996   3.931   4.688  0.1842  0.2201  0.4752
 2120SOL    HW116290  11.938   4.007   4.690  2.0628  1.7406  0.6042
 2120SOL    HW216291  11.970   3.878   4.764  0.1222  1.7711  1.5719
 2121SOL     OW16292   4.379   8.673   2.267  0.1864  0.0229  0.4394
 2121SOL    HW116293   4.390   8.632   2.181  1.3463 -0.1656  0.6630
 2121SOL    HW216294   4.315   8.618   2.312 -1.4042  0.8304 -0.7242
 2122SOL     OW16295   3.220  12.667   1.539 -0.2207  0.0428  0.0116
 2122SOL    HW116296   3.178  12.600   1.593  0.4699 -0.1205  0.3596
 2122SOL    HW216297   3.184  12.750   1.571 -1.5686 -0.1729 -0.8507
 2123SOL     OW16298   2.464   3.910   6.140  0.3845  0.3933  0.7108
 2123SOL    HW116299   2.390   3.870   6.094  0.3072  0.6141  0.6415
 2123SOL    HW216300   2.435   3.915   6.231  0.3199  0.4660  0.6862
 2124SOL     OW16301   8.697  11.492   3.824  0.4012  0.6357  0.3272
 2124SOL    HW116302   8.667  11.471   3.736  0.9829  0.1981  0.2308
 2124SOL    HW216303   8.792  11.485   3.820  0.4470  0.7937  0.9446
 2125SOL     OW16304   5.105   8.558  11.352  0.3231 -0.1530 -0.4293
 2125SOL    HW116305   5.133   8.634  11.403 -2.0338 -0.1330  0.9885
 2125SOL    HW216306   5.062   8.596  11.275 -0.8465  0.0055  0.2745
 2126SOL     OW16307   5.176  11.089   6.222 -0.0929 -0.2160 -0.3532
 2126SOL    HW116308   5.212  11.106   6.309 -0.1503  0.1313 -0.3960
 2126SOL    HW216309   5.106  11.025   6.236  0.4229 -0.7715 -0.2457
 2127SOL     OW16310  12.937   9.476   4.572  0.0252  0.2791 -0.4886
 2127SOL    HW116311  12.961   9.568   4.583 -1.4397  0.4115  2.6406
 2127SOL    HW216312  12.941   9.439   4.660 -1.0935 -2.2448 -1.3999
 2128SOL     OW16313  11.375   2.277   2.386 -0.0938 -0.5211  0.4966
 2128SOL    HW116314  11.415   2.363   2.371 -2.1439  0.4698  0.3632
 2128SOL    HW216315  11.378   2.234   2.301  1.5629 -0.9049  0.7148
 2129SOL     OW16316  10.034   2.422   7.260 -0.4579 -0.1355  0.4464
 2129SOL    HW116317   9.962   2.449   7.203 -1.5479 -3.0299  0.2997
 2129SOL    HW216318  10.059   2.335   7.228  2.0716  0.1124  1.4951
 2130SOL     OW16319  11.881   1.525   6.102  0.2694 -0.5467  0.2754
 2130SOL    HW116320  11.964   1.515   6.148  0.4784  2.0062  0.5429
 2130SOL    HW216321  11.899   1.490   6.014  2.3893  1.9262 -0.4077
 2131SOL     OW16322  12.158   1.866   8.666  0.0975  0.1494 -0.9089
 2131SOL    HW116323  12.190   1.861   8.577  0.3682  1.5607 -0.9191
 2131SOL    HW216324  12.214   1.807   8.716  0.5710  0.0887 -1.5036
 2132SOL     OW16325   4.768   9.012   8.683  0.5222 -0.1400 -0.0971
 2132SOL    HW116326   4.844   9.022   8.626  1.7827  2.3668  1.8299
 2132SOL    HW216327   4.704   9.074   8.647  2.0553  3.0007  2.1097
 2133SOL     OW16328   0.954  10.545   9.869 -0.4459  0.5866  0.0623
 2133SOL    HW116329   0.870  10.501   9.866  0.7199 -1.9793  1.4754
 2133SOL    HW216330   0.994  10.516   9.951  2.2002  0.8855 -1.0001
 2134SOL     OW16331  12.047   3.674   0.071 -0.1173  0.0854 -0.0605
 2134SOL    HW116332  12.001   3.756   0.055  1.5825  0.7820 -1.6230
 2134SOL    HW216333  12.096   3.657  -0.009  2.8116 -0.3144  1.6741
 2135SOL     OW16334  12.904   0.933   8.087  0.1733 -0.5942 -0.2994
 2135SOL    HW116335  12.974   0.891   8.038  1.2837  3.1903 -2.3348
 2135SOL    HW216336  12.948   0.999   8.141 -1.6266 -0.0362  0.5795
 2136SOL     OW16337  12.677   2.044  12.980  0.2048  0.3943 -0.5269
 2136SOL    HW116338  12.761   2.007  12.952  0.8301  1.9095 -0.7301
 2136SOL    HW216339  12.687   2.138  12.969 -1.5273  0.6098 -0.5248
 2137SOL     OW16340   7.207   6.001   2.588 -0.5817  0.3764 -0.0512
 2137SOL    HW116341   7.252   6.080   2.619 -0.8806  1.6499 -2.6119
 2137SOL    HW216342   7.114   6.024   2.590 -0.5524  1.2819 -3.5053
 2138SOL     OW16343  10.000  11.668   6.425  0.3758  0.0703 -0.7648
 2138SOL    HW116344  10.060  11.622   6.484  1.0921  1.3037 -0.4971
 2138SOL    HW216345   9.923  11.611   6.420  0.5579 -0.3618  0.8620
 2139SOL     OW16346   8.538  12.566   8.401 -0.2466 -0.0377 -0.5052
 2139SOL    HW116347   8.581  12.586   8.318 -1.7369  1.6961 -0.9311
 2139SOL    HW216348   8.491  12.484   8.384  2.2681 -1.6551 -0.1955
 2140SOL     OW16349   6.662   2.564   2.927  0.5438  0.2055  0.0097
 2140SOL    HW116350   6.698   2.626   2.863  0.9235 -1.3984 -1.4009
 2140SOL    HW216351   6.726   2.565   2.998  1.7587 -0.2367 -1.0356
 2141SOL     OW16352   1.734   9.799   4.597  0.2392  0.0457 -0.3201
 2141SOL    HW116353   1.739   9.739   4.671  1.8646  1.5073  0.8450
 2141SOL    HW216354   1.818   9.788   4.552 -0.1997  0.1299 -1.1842
 2142SOL     OW16355   0.749   7.554   8.396  0.0970  0.0171 -0.0993
 2142SOL    HW116356   0.672   7.501   8.374  0.5731 -0.3002 -1.0581
 2142SOL    HW216357   0.821   7.491   8.399  0.2131  0.1900  1.5650
 2143SOL     OW16358   1.497   9.547  11.606  0.8332  0.0164  0.5611
 2143SOL    HW116359   1.446   9.466  11.597 -0.0690  0.7580 -2.5300
 2143SOL    HW216360   1.431   9.617  11.602  1.7845  0.9338  0.5424
 2144SOL     OW16361  12.490   4.707   9.639  0.3506  0.7515 -0.3766
 2144SOL    HW116362  12.435   4.742   9.569 -1.0188  1.6638  1.0694
 2144SOL    HW216363  12.513   4.619   9.609 -0.5119  0.9740 -1.8015
 2145SOL     OW16364   2.426  10.164   2.002  0.0263  0.1642  0.0021
 2145SOL    HW116365   2.470  10.162   2.087 -0.6906  1.0756  0.4072
 2145SOL    HW216366   2.352  10.223   2.014  0.0011  0.4338 -1.3083
 2146SOL     OW16367   7.492  12.919   5.003 -0.5511 -0.4742 -0.0453
 2146SOL    HW116368   7.416  12.872   5.038 -2.0886  0.9001 -1.3900
 2146SOL    HW216369   7.472  12.932   4.911  1.1421  0.3292 -0.3445
 2147SOL     OW16370   6.487   5.393   9.647  0.0221  0.3315  0.6903
 2147SOL    HW116371   6.553   5.421   9.710  1.1174 -0.2140 -0.1739
 2147SOL    HW216372   6.422   5.463   9.648  0.5268  0.8096  1.6802
 2148SOL     OW16373   5.687   5.919   8.601 -0.6227  0.0578 -0.8814
 2148SOL    HW116374   5.688   5.906   8.696  1.6765  1.3767 -0.6459
 2148SOL    HW216375   5.687   5.830   8.565 -1.3131 -0.4598  0.3435
 2149SOL     OW16376   1.865   7.169   8.318 -0.0403 -0.2847  0.5856
 2149SOL    HW116377   1.800   7.214   8.265 -1.0992  0.2157  2.2074
 2149SOL    HW216378   1.826   7.085   8.338 -0.0895 -0.0891  1.3516
 2150SOL     OW16379   1.632   7.146   1.199 -0.6762  0.4365  0.0892
 2150SOL    HW116380   1.577   7.209   1.246 -0.6242 -0.1162  0.9148
 2150SOL    HW216381   1.582   7.064   1.202 -0.2014  0.1442  0.0836
 2151SOL     OW16382  12.114  12.845   4.741 -0.4464  0.6431 -0.1052
 2151SOL    HW116383  12.196  12.824   4.696 -2.5889 -3.8302 -2.6981
 2151SOL    HW216384  12.111  12.782   4.814  0.2652  3.8729  2.9831
 2152SOL     OW16385  10.603  11.478   5.574 -0.1056  0.3303 -0.0857
 2152SOL    HW116386  10.508  11.481   5.561 -0.2006 -0.1830  0.4767
 2152SOL    HW216387  10.625  11.563   5.611 -0.1870  0.8617 -1.2209
 2153SOL     OW16388   2.442   9.319   3.134 -0.1566  0.4561  0.1294
 2153SOL    HW116389   2.509   9.290   3.195 -0.0818 -0.1435 -0.2274
 2153SOL    HW216390   2.359   9.291   3.175 -0.0806 -0.3599 -0.2519
 2154SOL     OW16391   4.623  10.698   6.824  0.4627 -0.8227 -0.5048
 2154SOL    HW116392   4.560  10.633   6.858  1.9686 -2.4711 -0.7136
 2154SOL    HW216393   4.595  10.713   6.734  0.9291 -2.3377 -0.9304
 2155SOL     OW16394  12.878   8.620   4.562 -0.2779  0.1467  0.0848
 2155SOL    HW116395  12.806   8.633   4.500 -1.9168 -0.6248  1.7289
 2155SOL    HW216396  12.866   8.688   4.627 -1.3968 -1.7456  1.9811
 2156SOL     OW16397  10.296   5.920  13.281  0.1451  0.2787 -0.5475
 2156SOL    HW116398  10.206   5.892  13.303 -0.7687  2.7492 -0.8399
 2156SOL    HW216399  10.289   6.014  13.267  3.4224  1.2311  2.7188
 2157SOL     OW16400   2.837   4.422   5.033 -0.4807 -0.3133  0.2140
 2157SOL    HW116401   2.778   4.378   5.094 -0.3018  1.4999  1.7867
 2157SOL    HW216402   2.779   4.478   4.980 -0.2457  1.8330  2.0779
 2158SOL     OW16403  12.766   3.305   3.331  0.5873  0.1734 -0.0035
 2158SOL    HW116404  12.855   3.320   3.300  0.8019 -0.4699  0.2905
 2158SOL    HW216405  12.777   3.251   3.410 -0.1789 -2.2321 -1.4504
 2159SOL     OW16406  11.361   0.351  12.742 -0.2365 -0.6089  0.5518
 2159SOL    HW116407  11.293   0.352  12.674 -0.5157  0.0000  0.8213
 2159SOL    HW216408  11.410   0.271  12.727 -0.6408 -0.7528 -0.0293
 2160SOL     OW16409  10.046   5.882   0.110  0.0985 -0.2467 -0.4607
 2160SOL    HW116410  10.011   5.824   0.177  0.0455  1.1779  0.8082
 2160SOL    HW216411   9.970   5.908   0.058 -0.0664 -0.3653 -0.2765
 2161SOL     OW16412   6.224  11.713   3.952  0.3740  0.1171  0.4980
 2161SOL    HW116413   6.224  11.622   3.981  0.2402  0.4993  1.7313
 2161SOL    HW216414   6.265  11.710   3.865  1.6759 -0.9462  1.1086
 2162SOL     OW16415   3.215  11.869  11.451 -0.4687  1.3208  0.1908
 2162SOL    HW116416   3.205  11.958  11.485 -0.4140  0.9666  1.1856
 2162SOL    HW216417   3.175  11.814  11.518 -0.2495  0.5797 -0.2799
 2163SOL     OW16418   7.325   0.095  11.533 -0.2804  0.5545 -0.6536
 2163SOL    HW116419   7.323   0.145  11.615  0.1516 -0.8088  0.2252
 2163SOL    HW216420   7.382   0.145  11.475  1.4317  0.3019  0.7410
 2164SOL     OW16421  12.559   5.624   5.600  0.6329 -0.3172  0.3530
 2164SOL    HW116422  12.582   5.717   5.591  0.7421 -0.5155 -2.1520
 2164SOL    HW216423  12.472   5.617   5.561  0.7133 -1.3129  0.3209
 2165SOL     OW16424   4.908   1.136  11.462 -0.2025  0.0273  0.2363
 2165SOL    HW116425   4.882   1.090  11.541 -0.6233  0.1758  0.1880
 2165SOL    HW216426   4.937   1.222  11.492 -0.9953  0.3258  0.1726
 2166SOL     OW16427   2.518   3.217   9.257  0.7930  0.3187  0.5667
 2166SOL    HW116428   2.469   3.175   9.187 -0.7118  2.5984  0.1169
 2166SOL    HW216429   2.496   3.166   9.335  0.0343 -0.4497 -0.1222
 2167SOL     OW16430   2.836   2.030   2.036 -0.2282  0.2560  0.1491
 2167SOL    HW116431   2.779   2.095   2.077  1.6773  1.8653  0.3913
 2167SOL    HW216432   2.823   1.951   2.088 -1.8003  0.7328  0.5294
 2168SOL     OW16433   0.969  12.012  10.580 -0.3600 -0.5040  0.5641
 2168SOL    HW116434   0.982  12.035  10.672 -0.5017 -1.9365  0.9657
 2168SOL    HW216435   1.003  11.923  10.572 -1.4614 -0.8638 -0.4787
 2169SOL     OW16436   4.771   2.222  10.523  0.0874 -0.5325 -0.3582
 2169SOL    HW116437   4.812   2.144  10.561  0.0496 -0.4118 -0.0641
 2169SOL    HW216438   4.694   2.189  10.476 -0.2758 -0.6085  0.2791
 2170SOL     OW16439  13.149   5.771  12.869 -0.1568 -0.3890 -0.1468
 2170SOL    HW116440  13.197   5.702  12.915 -1.0181 -0.8893  0.0287
 2170SOL    HW216441  13.060   5.736  12.859 -0.9035  1.1201  0.8977
 2171SOL     OW16442   1.279   2.115   4.846 -0.4018 -0.4097 -0.0210
 2171SOL    HW116443   1.207   2.178   4.847  0.2252  0.3467 -0.7498
 2171SOL    HW216444   1.236   2.031   4.832 -1.4870 -0.5366  3.2461
 2172SOL     OW16445   5.114  12.808   1.029 -0.0778  0.1099 -0.7410
 2172SOL    HW116446   5.137  12.879   0.968 -0.8577 -1.2923 -2.7946
 2172SOL    HW216447   5.030  12.834   1.066 -0.0380  0.5814 -0.9731
 2173SOL     OW16448   4.692   0.319   2.036  0.1666 -0.4963 -0.1011
 2173SOL    HW116449   4.654   0.231   2.044  0.2049 -0.5135 -0.1044
 2173SOL    HW216450   4.630   0.376   2.080  0.4053 -0.5989  0.3789
 2174SOL     OW16451   5.986   7.865  11.708 -0.3762  0.0622 -0.1971
 2174SOL    HW116452   5.999   7.959  11.707 -3.0344  0.5183 -0.8128
 2174SOL    HW216453   5.892   7.854  11.722  0.0965 -2.5563  1.5743
 2175SOL     OW16454   6.320  12.667   2.042 -0.1111 -0.2572  0.3791
 2175SOL    HW116455   6.337  12.682   2.135  1.6032  0.8694 -0.0844
 2175SOL    HW216456   6.266  12.741   2.015  0.6416  0.2141  0.1523
 2176SOL     OW16457   6.983   6.948   7.671  0.0489  0.4868  0.2770
 2176SOL    HW116458   7.048   6.979   7.608 -0.7452 -0.5959 -1.1311
 2176SOL    HW216459   7.020   6.868   7.707 -0.8188 -0.6399 -1.2005
 2177SOL     OW16460  10.700   0.896   5.646 -0.4548  0.1613  0.4617
 2177SOL    HW116461  10.756   0.920   5.720  0.4793  0.9588 -0.4676
 2177SOL    HW216462  10.739   0.815   5.612 -0.6486  0.0059  0.6129
 2178SOL     OW16463   0.605   2.438  12.983  0.7015 -0.1357  0.0874
 2178SOL    HW116464   0.582   2.391  13.063  1.6410  0.2240  0.5928
 2178SOL    HW216465   0.630   2.526  13.013 -0.9254  0.6834 -0.8281
 2179SOL     OW16466  11.092   8.557   4.028 -0.1574 -0.3428  0.2276
 2179SOL    HW116467  11.040   8.477   4.035 -2.4637  0.7689 -2.2530
 2179SOL    HW216468  11.154   8.540   3.957 -0.4659 -0.0537 -0.1181
 2180SOL     OW16469   5.690   8.062   5.790  0.1231 -0.5807 -0.0414
 2180SOL    HW116470   5.606   8.073   5.835  0.6769 -1.8743  1.4043
 2180SOL    HW216471   5.680   7.980   5.741 -0.0395  0.1658 -1.2742
 2181SOL     OW16472   1.490   0.946  12.602 -0.8810  0.1197  0.2555
 2181SOL    HW116473   1.502   0.854  12.626 -1.7995  0.1682  0.9603
 2181SOL    HW216474   1.395   0.957  12.596 -0.7820  1.0391  0.2289
 2182SOL     OW16475  11.163   5.347   6.966  0.3958 -0.5146 -0.5171
 2182SOL    HW116476  11.131   5.378   6.882 -1.0958 -1.0577 -0.1717
 2182SOL    HW216477  11.133   5.413   7.029  1.2386 -0.2699 -0.3578
 2183SOL     OW16478   9.330  12.466   2.916 -0.2624 -0.0017  0.1029
 2183SOL    HW116479   9.259  12.415   2.957 -0.4105 -0.8218 -1.1082
 2183SOL    HW216480   9.398  12.401   2.899 -0.1434  0.3525 -0.7931
 2184SOL     OW16481   0.474   0.462   1.236  0.2636 -0.2300  0.2178
 2184SOL    HW116482   0.382   0.440   1.253 -0.6198  1.2785 -2.1585
 2184SOL    HW216483   0.471   0.548   1.195  2.7177 -0.3932 -0.4477
 2185SOL     OW16484   1.318  10.582   9.146 -0.4196 -0.1851 -0.6739
 2185SOL    HW116485   1.318  10.565   9.052 -0.6061 -1.1881 -0.5005
 2185SOL    HW216486   1.401  10.626   9.162 -0.6565  0.5721 -1.3983
 2186SOL     OW16487   1.246   4.832   6.963 -0.4506  0.8095 -0.1879
 2186SOL    HW116488   1.318   4.827   7.026 -1.2005  0.8003  0.6850
 2186SOL    HW216489   1.235   4.925   6.946 -0.1824  0.8067 -0.4014
 2187SOL     OW16490  12.382   1.274   7.538 -0.3469  0.5428  0.3950
 2187SOL    HW116491  12.289   1.277   7.515 -0.5165 -1.1907  0.7287
 2187SOL    HW216492  12.427   1.308   7.461 -1.1217 -1.2185 -0.9002
 2188SOL     OW16493   4.283   6.267   6.855 -0.3376 -0.4856  0.6379
 2188SOL    HW116494   4.211   6.234   6.802 -0.6767 -0.0924  0.8461
 2188SOL    HW216495   4.242   6.330   6.915  0.0490 -0.8772  1.3214
 2189SOL     OW16496   2.871   1.420   0.111 -0.0155 -0.6315  0.1379
 2189SOL    HW116497   2.844   1.340   0.067  1.7223 -0.9136 -0.5184
 2189SOL    HW216498   2.830   1.416   0.197 -0.3954 -1.9665 -0.0882
 2190SOL     OW16499   4.808   1.240   3.139 -0.4183  0.1308 -0.2294
 2190SOL    HW116500   4.884   1.205   3.187 -0.9759 -0.4696  0.2379
 2190SOL    HW216501   4.778   1.168   3.085 -0.9100  0.2335 -0.0997
 2191SOL     OW16502  12.917   9.043  10.361  0.1072  0.5320  0.4911
 2191SOL    HW116503  12.957   9.058  10.447  3.2681  1.9616 -1.0723
 2191SOL    HW216504  12.860   9.118  10.348  0.1128  0.6478  1.0796
 2192SOL     OW16505   3.252   5.105   9.202 -0.5923 -0.2150  0.1707
 2192SOL    HW116506   3.168   5.078   9.165 -0.5538 -0.0828 -0.0163
 2192SOL    HW216507   3.316   5.044   9.166 -0.1704  1.3558 -1.9579
 2193SOL     OW16508   4.055   2.612   7.365  0.1905  0.0831 -0.9308
 2193SOL    HW116509   4.144   2.584   7.387  0.2065  1.1297  0.4776
 2193SOL    HW216510   4.010   2.619   7.449 -0.3841  2.2581 -1.3470
 2194SOL     OW16511   2.624  13.210  11.836 -0.3762  0.0193 -0.2983
 2194SOL    HW116512   2.713  13.201  11.868 -0.6184 -1.6836 -0.0029
 2194SOL    HW216513   2.573  13.234  11.914 -0.1236  1.5470 -0.5730
 2195SOL     OW16514   1.726   0.254   9.516 -0.1261 -0.3428  0.1914
 2195SOL    HW116515   1.766   0.303   9.445  1.0257 -1.8532 -0.2467
 2195SOL    HW216516   1.648   0.305   9.540  1.2847  1.9676  0.1485
 2196SOL     OW16517   5.059   1.592   0.690 -0.6253  0.2340  0.0336
 2196SOL    HW116518   4.984   1.614   0.744 -0.7343  0.7449 -0.3233
 2196SOL    HW216519   5.078   1.500   0.711  0.2232  0.8108  1.9929
 2197SOL     OW16520   4.213   1.680   1.614  0.4082 -0.4068  0.4075
 2197SOL    HW116521   4.258   1.743   1.671  0.8829  0.1025 -0.5129
 2197SOL    HW216522   4.275   1.608   1.603  0.3573 -0.4569  0.4455
 2198SOL     OW16523   4.542   9.568   0.393  0.4968 -0.1305  0.3287
 2198SOL    HW116524   4.532   9.517   0.313  0.5436  3.2724 -2.0488
 2198SOL    HW216525   4.627   9.540   0.429  0.3705 -1.8830 -0.6491
 2199SOL     OW16526   0.226  13.032  11.606  0.0219 -0.0178 -0.7716
 2199SOL    HW116527   0.278  12.997  11.678  0.3215  1.5647 -0.1814
 2199SOL    HW216528   0.290  13.073  11.547 -0.3926  0.3751 -0.9579
 2200SOL     OW16529   1.624   8.624  12.951 -0.0410 -0.0696  0.0784
 2200SOL    HW116530   1.549   8.650  12.897 -0.2094  1.9548  1.2014
 2200SOL    HW216531   1.639   8.532  12.928 -2.8159 -0.5269 -0.2462
 2201SOL     OW16532   0.309   7.470  11.715 -0.3711  1.3007 -0.1910
 2201SOL    HW116533   0.254   7.416  11.771  1.5256  1.1692  1.6537
 2201SOL    HW216534   0.273   7.559  11.723 -0.3141  1.2217  1.0135
 2202SOL     OW16535   5.588  10.985   1.657  0.4095  0.3398  0.4352
 2202SOL    HW116536   5.625  11.009   1.742 -1.0992  2.1434  0.6454
 2202SOL    HW216537   5.517  11.048   1.643 -0.2096 -0.7225 -1.5854
 2203SOL     OW16538   4.830   3.421   1.173  0.3027 -0.1053  0.2574
 2203SOL    HW116539   4.882   3.496   1.145 -2.7286  1.5120 -1.5170
 2203SOL    HW216540   4.783   3.452   1.251 -0.2143 -0.4890  0.1029
 2204SOL     OW16541   7.240   4.732  10.296 -0.1840 -0.0867  0.1736
 2204SOL    HW116542   7.289   4.785  10.359  0.9467 -1.1644  0.2232
 2204SOL    HW216543   7.149   4.762  10.306  0.2438  1.0011  1.0331
 2205SOL     OW16544   5.584   4.821  11.387  0.5703 -0.8664 -0.0747
 2205SOL    HW116545   5.584   4.891  11.453  0.1821 -0.7988 -0.1459
 2205SOL    HW216546   5.513   4.763  11.413 -1.7629  0.8337 -2.1778
 2206SOL     OW16547   4.608   0.519  12.610 -0.9680  0.0094  0.2394
 2206SOL    HW116548   4.676   0.561  12.557 -0.0135  0.7578  1.9424
 2206SOL    HW216549   4.557   0.467  12.548  0.4449  0.3572 -1.2857
 2207SOL     OW16550   5.350   6.351  11.269  0.5768 -0.5838 -0.2814
 2207SOL    HW116551   5.308   6.363  11.355 -0.7340 -2.4537 -0.6065
 2207SOL    HW216552   5.425   6.295  11.287  0.2178 -1.0987 -0.3427
 2208SOL     OW16553   0.590  12.569  13.040 -0.0105 -0.2132  0.1687
 2208SOL    HW116554   0.589  12.494  13.100 -1.5270  1.1818  1.9721
 2208SOL    HW216555   0.511  12.558  12.987 -1.3171  1.0814  1.7704
 2209SOL     OW16556   5.066   8.850   0.271  0.5979 -0.6968 -0.0856
 2209SOL    HW116557   5.115   8.895   0.340 -0.5954  1.2026 -0.3927
 2209SOL    HW216558   4.989   8.905   0.257 -0.6969 -2.6083 -0.8929
 2210SOL     OW16559  12.776   1.561   7.919  0.3992 -0.0656  0.3866
 2210SOL    HW116560  12.854   1.515   7.950  0.6061  1.2553  2.0046
 2210SOL    HW216561  12.808   1.645   7.889 -0.0745 -0.6045 -1.8009
 2211SOL     OW16562   3.159   9.917   2.666 -0.4602  0.4480 -0.3847
 2211SOL    HW116563   3.097   9.846   2.680  0.0233 -0.1453 -1.1871
 2211SOL    HW216564   3.159   9.966   2.748  0.1951 -1.2561  0.6722
 2212SOL     OW16565   2.237   9.671   1.093  0.4107  0.0941  0.1550
 2212SOL    HW116566   2.273   9.677   1.004 -0.5033 -0.2809 -0.2516
 2212SOL    HW216567   2.150   9.633   1.081 -0.3502  1.4903  1.0622
 2213SOL     OW16568   4.790  10.333  10.991 -0.1800 -0.6403  0.3069
 2213SOL    HW116569   4.744  10.342  10.908  1.8971 -1.0212 -0.9746
 2213SOL    HW216570   4.806  10.239  11.000  0.4090 -0.5145  0.6644
 2214SOL     OW16571   1.789   5.912   2.879 -0.0071 -0.6118  0.9422
 2214SOL    HW116572   1.759   5.969   2.809  2.1383 -0.6539 -0.0952
 2214SOL    HW216573   1.750   5.948   2.959 -2.0803 -0.2568 -0.1676
 2215SOL     OW16574   9.342   9.906  11.822 -0.0133 -0.1768 -0.4438
 2215SOL    HW116575   9.276   9.901  11.891 -0.5920  1.0326 -0.8873
 2215SOL    HW216576   9.419   9.944  11.865 -0.1173 -0.1357 -0.2924
 2216SOL     OW16577   2.809   9.245   4.792  0.2937 -0.3887  0.4794
 2216SOL    HW116578   2.807   9.319   4.732  3.0954 -0.8816 -0.3617
 2216SOL    HW216579   2.766   9.174   4.745  1.2190 -0.3741 -0.4361
 2217SOL     OW16580  10.745   5.370   0.691  0.4688  0.0119 -0.4572
 2217SOL    HW116581  10.705   5.370   0.777  2.9613 -0.8497  0.7881
 2217SOL    HW216582  10.775   5.280   0.677  0.9182  0.3369 -1.8267
 2218SOL     OW16583   4.615   4.044   7.285 -0.2812  0.2975 -0.4578
 2218SOL    HW116584   4.704   4.074   7.266  0.1302 -0.3469  0.4136
 2218SOL    HW216585   4.604   4.058   7.379 -0.1377 -2.0418 -0.0310
 2219SOL     OW16586   2.270   0.276   7.527  0.1629  0.3461  0.2492
 2219SOL    HW116587   2.249   0.205   7.587 -2.1086  1.4669  0.8640
 2219SOL    HW216588   2.316   0.233   7.454 -1.7319 -1.8705  0.2610
 2220SOL     OW16589  12.042  13.193   8.540 -0.5335 -0.1092  0.3911
 2220SOL    HW116590  11.959  13.231   8.567  0.0491  1.3435  0.2627
 2220SOL    HW216591  12.079  13.257   8.479 -0.7106 -2.1502 -2.0360
 2221SOL     OW16592   4.448   6.413   5.522 -0.2302  0.5887 -0.2328
 2221SOL    HW116593   4.542   6.418   5.507  0.1243  0.8979  1.7392
 2221SOL    HW216594   4.413   6.493   5.483  0.5000  1.0292 -0.0160
 2222SOL     OW16595  12.022  11.562   1.519  0.4035  0.4942 -0.3986
 2222SOL    HW116596  12.102  11.534   1.474  1.1395 -1.2472  1.7680
 2222SOL    HW216597  12.031  11.526   1.608 -2.4639  0.8633  0.1405
 2223SOL     OW16598   3.134  12.815   6.346 -0.3084 -0.2128 -0.0283
 2223SOL    HW116599   3.131  12.720   6.357 -0.6943 -0.1091  0.8264
 2223SOL    HW216600   3.225  12.834   6.323 -0.1497 -0.7526  0.1363
 2224SOL     OW16601   1.514  12.790   8.328 -0.0953 -0.0905  0.3129
 2224SOL    HW116602   1.424  12.807   8.356  0.0201  0.0766  0.5893
 2224SOL    HW216603   1.553  12.877   8.320 -0.1586 -0.1324 -0.4823
 2225SOL     OW16604  10.564   5.039   1.365  0.1170  0.2124  0.0538
 2225SOL    HW116605  10.573   5.016   1.272 -1.7939  2.0679 -0.6853
 2225SOL    HW216606  10.647   5.081   1.387  0.7310 -0.5648 -0.7200
 2226SOL     OW16607  12.093   9.268   6.259  0.1129 -0.1806 -0.3935
 2226SOL    HW116608  12.168   9.225   6.217 -1.2468 -1.1189 -2.0295
 2226SOL    HW216609  12.048   9.197   6.305  0.0874  0.3290  0.3785
 2227SOL     OW16610   3.469   7.502   8.245 -0.1761 -0.0300 -0.3142
 2227SOL    HW116611   3.487   7.490   8.151 -2.5866  0.3947 -0.8993
 2227SOL    HW216612   3.514   7.583   8.268  0.6541 -0.2729 -1.0307
 2228SOL     OW16613   8.016   9.189   9.818 -0.4257 -0.1269 -0.1416
 2228SOL    HW116614   7.957   9.136   9.764  0.3257 -1.0177 -0.1081
 2228SOL    HW216615   8.034   9.135   9.894  0.7880 -0.0549 -0.3628
 2229SOL     OW16616  11.510   5.387   3.162 -0.2168 -0.1178 -0.4787
 2229SOL    HW116617  11.430   5.436   3.141 -0.8899 -0.5699  0.8638
 2229SOL    HW216618  11.572   5.411   3.094 -0.8400  1.8282 -0.4188
 2230SOL     OW16619   8.101   8.699   1.197 -0.4009 -0.0106 -0.4697
 2230SOL    HW116620   8.014   8.687   1.160 -0.0814 -1.3806 -0.8578
 2230SOL    HW216621   8.155   8.634   1.152  0.7522  0.5909 -0.0006
 2231SOL     OW16622   4.140   3.006   4.177 -0.3285 -0.8741 -0.2811
 2231SOL    HW116623   4.193   2.930   4.153  0.0594 -0.5363 -0.5063
 2231SOL    HW216624   4.090   2.977   4.253  1.3970 -0.6872  0.9839
 2232SOL     OW16625   5.627   7.262  11.445  0.7742  0.1270  0.2411
 2232SOL    HW116626   5.558   7.328  11.439  0.4547 -0.2917 -0.9686
 2232SOL    HW216627   5.607   7.215  11.526 -0.4990 -0.1111 -0.1816
 2233SOL     OW16628  12.750   8.952  12.504 -0.0331  0.2266  0.3219
 2233SOL    HW116629  12.698   9.032  12.494  1.4735  1.5274  2.0668
 2233SOL    HW216630  12.831   8.982  12.547  1.7434 -1.8324 -1.3612
 2234SOL     OW16631   7.141  10.448   3.884  0.1787  0.0879  0.6010
 2234SOL    HW116632   7.223  10.417   3.923  0.2004 -0.2772  0.2597
 2234SOL    HW216633   7.081  10.374   3.893  0.5793 -0.5054 -1.2995
 2235SOL     OW16634   1.260  10.706   4.705 -0.3139 -0.0421 -0.2286
 2235SOL    HW116635   1.264  10.739   4.615 -1.2181 -0.1154 -0.3083
 2235SOL    HW216636   1.287  10.780   4.759 -1.5343  0.6041 -0.4606
 2236SOL     OW16637  10.527   5.914  13.032 -0.3047  0.0333 -0.5897
 2236SOL    HW116638  10.595   5.963  13.078 -1.4789  0.8921  0.2745
 2236SOL    HW216639  10.554   5.822  13.039  0.8249  0.3735 -0.3868
 2237SOL     OW16640   2.304   0.515   2.636  0.2369 -0.2684 -0.5100
 2237SOL    HW116641   2.332   0.511   2.727  0.3949 -0.2737 -0.5583
 2237SOL    HW216642   2.367   0.459   2.589  1.1109  0.9708 -0.8550
 2238SOL     OW16643   2.747   5.810   0.105  0.2091 -0.0591 -1.2114
 2238SOL    HW116644   2.658   5.843   0.116  0.6500  0.7739  0.0334
 2238SOL    HW216645   2.793   5.877   0.055  0.8370  0.7870  0.4567
 2239SOL     OW16646   0.321   9.777  11.032  0.2639  0.0414  0.1011
 2239SOL    HW116647   0.400   9.814  10.992  1.1244 -1.0877  0.6880
 2239SOL    HW216648   0.315   9.818  11.118  0.1634  0.1979  0.0189
 2240SOL     OW16649   9.544  11.334  13.063  0.1980 -0.2574 -0.0383
 2240SOL    HW116650   9.478  11.271  13.033 -0.7528  1.6081 -2.0617
 2240SOL    HW216651   9.550  11.399  12.993 -0.0235  2.8102  2.5623
 2241SOL     OW16652   6.380  10.607  12.493  0.5374 -0.1100  0.9657
 2241SOL    HW116653   6.347  10.521  12.469 -1.5921 -0.0610  3.2979
 2241SOL    HW216654   6.391  10.653  12.410 -0.2891 -1.9422 -0.2156
 2242SOL     OW16655   7.782   0.043   2.044 -0.1349 -0.0494 -0.2632
 2242SOL    HW116656   7.850   0.048   2.111  0.5668  1.6473 -1.0592
 2242SOL    HW216657   7.700   0.053   2.093  0.3342  0.6666  0.4009
 2243SOL     OW16658   0.756  10.663  12.748  0.4875 -0.9336  0.9608
 2243SOL    HW116659   0.762  10.757  12.732 -0.1062 -1.1736 -0.9833
 2243SOL    HW216660   0.668  10.639  12.717  0.0206 -1.8966  2.8669
 2244SOL     OW16661   9.078   8.923   3.777 -0.5670 -0.4047 -0.9323
 2244SOL    HW116662   9.118   8.975   3.707  1.1170 -0.8487 -0.3600
 2244SOL    HW216663   9.023   8.860   3.732 -0.0352 -0.2457 -1.8248
 2245SOL     OW16664   1.282   9.712   1.289  0.1747  0.1049 -0.1276
 2245SOL    HW116665   1.344   9.770   1.335  0.6212  0.2797 -0.9240
 2245SOL    HW216666   1.197   9.731   1.329 -0.0477  2.6984 -1.5685
 2246SOL     OW16667   1.975   1.720   3.061  0.0242 -0.4412  0.5074
 2246SOL    HW116668   1.946   1.723   3.152  0.8672 -1.4649  0.8454
 2246SOL    HW216669   1.922   1.651   3.021 -0.6730  0.3268  0.0806
 2247SOL     OW16670   0.194   6.525  10.177 -0.0875  0.3744  0.2193
 2247SOL    HW116671   0.154   6.611  10.172  2.1579  1.5930  1.7670
 2247SOL    HW216672   0.170   6.492  10.264  0.6219  0.2640  0.3746
 2248SOL     OW16673   8.780  10.166  12.108  0.1291 -0.0641 -0.0428
 2248SOL    HW116674   8.839  10.182  12.182  0.0323 -0.4403  0.1153
 2248SOL    HW216675   8.770  10.252  12.067  1.7804 -0.2028 -0.8234
 2249SOL     OW16676   9.358  11.778   9.041  0.4231 -0.3396 -0.6112
 2249SOL    HW116677   9.365  11.868   9.010 -2.2504 -0.2877 -1.3223
 2249SOL    HW216678   9.396  11.780   9.128 -1.0952  1.9260  0.1015
 2250SOL     OW16679   3.093   6.085  11.202  0.0218  0.3603 -0.0134
 2250SOL    HW116680   3.112   6.059  11.292 -1.2773  1.1439  0.5146
 2250SOL    HW216681   3.153   6.033  11.149  2.0070  1.0942  1.3859
 2251SOL     OW16682   2.651   2.947   1.442 -0.4469 -0.4693  0.1173
 2251SOL    HW116683   2.719   2.949   1.375  0.8152  0.3250  1.3638
 2251SOL    HW216684   2.580   2.897   1.402  0.7023 -1.0005 -1.3784
 2252SOL     OW16685  12.071   3.338   2.525  0.5620 -0.1228  0.3581
 2252SOL    HW116686  12.070   3.429   2.553  2.6016  0.3294 -0.8634
 2252SOL    HW216687  12.027   3.338   2.440 -1.2479 -0.6795  1.2307
 2253SOL     OW16688   4.525  11.494   4.131 -0.6955  0.2116 -0.0429
 2253SOL    HW116689   4.573  11.502   4.049  1.1222 -3.8326  0.3753
 2253SOL    HW216690   4.455  11.432   4.112 -2.6473  2.0453  0.6902
 2254SOL     OW16691   1.438   8.968   5.533 -0.8290  0.5115  0.0382
 2254SOL    HW116692   1.456   8.883   5.574  1.6370  1.4579  1.1387
 2254SOL    HW216693   1.521   8.991   5.490 -2.2611  1.1906 -2.5641
 2255SOL     OW16694   6.883   4.004   9.850 -0.7601  0.1380  0.4255
 2255SOL    HW116695   6.847   4.092   9.862  0.3029  0.3841  2.1455
 2255SOL    HW216696   6.956   4.016   9.789  0.3188  0.7611  1.7775
 2256SOL     OW16697   3.569   6.066  11.003 -0.2782 -0.1923 -0.2197
 2256SOL    HW116698   3.540   6.058  11.094  1.6971  0.0315  0.4788
 2256SOL    HW216699   3.571   6.160  10.987  0.0585 -0.2025 -0.2453
 2257SOL     OW16700  12.624  12.062  12.112 -0.3241  0.0057  0.4200
 2257SOL    HW116701  12.617  12.142  12.061  0.0613  0.0995  0.5110
 2257SOL    HW216702  12.718  12.049  12.124 -0.3437 -0.9137 -0.3057
 2258SOL     OW16703   3.653  11.546   2.943  0.4567  0.4553  0.4225
 2258SOL    HW116704   3.718  11.607   2.979 -0.8371  0.9650  2.0128
 2258SOL    HW216705   3.607  11.596   2.876  1.5813  0.1210 -0.6488
 2259SOL     OW16706   8.507   7.124   3.158  0.1415 -0.2343 -0.8528
 2259SOL    HW116707   8.412   7.136   3.162  0.3188  1.2444 -0.5849
 2259SOL    HW216708   8.542   7.211   3.140  1.4619 -0.7396 -0.8636
 2260SOL     OW16709   0.781   5.300   9.793 -0.0134 -0.0100  0.5585
 2260SOL    HW116710   0.797   5.220   9.743  0.3925  1.0047 -1.0049
 2260SOL    HW216711   0.807   5.278   9.882  0.2763 -1.5525  0.1225
 2261SOL     OW16712   0.136   0.929   6.701  0.2130  0.0031  0.3857
 2261SOL    HW116713   0.062   0.868   6.697 -0.1934  0.5593 -1.3343
 2261SOL    HW216714   0.202   0.882   6.753 -0.5733 -1.3699  0.2093
 2262SOL     OW16715  10.706   1.537   5.759  0.6609 -0.3498  0.4962
 2262SOL    HW116716  10.636   1.497   5.706  0.7144  0.4139 -0.1708
 2262SOL    HW216717  10.659   1.595   5.819  0.7322  0.5062 -0.2543
 2263SOL     OW16718   6.635   8.568  10.143 -0.2852  0.0006 -0.4214
 2263SOL    HW116719   6.621   8.481  10.182 -0.0999 -0.0924 -0.5597
 2263SOL    HW216720   6.599   8.561  10.055 -1.9482  0.6208  0.1669
 2264SOL     OW16721   2.354  10.827   9.377  0.3601 -0.4928  0.7788
 2264SOL    HW116722   2.277  10.868   9.417  0.1854  0.2367 -0.2604
 2264SOL    HW216723   2.385  10.892   9.315  0.1592 -1.8868 -0.8436
 2265SOL     OW16724   6.393   0.558   0.986 -0.5095  0.4316 -0.2541
 2265SOL    HW116725   6.374   0.532   1.076  0.8063  0.0389 -0.0563
 2265SOL    HW216726   6.320   0.614   0.960 -1.3324 -0.1417  0.7561
 2266SOL     OW16727   8.591   9.567   4.866 -0.0039 -0.0687  0.0915
 2266SOL    HW116728   8.613   9.647   4.818  1.9525 -0.0902  0.8522
 2266SOL    HW216729   8.674   9.537   4.902 -0.3264 -3.3621 -1.4687
 2267SOL     OW16730   6.483   5.523  11.567 -1.0133 -0.7622  0.5900
 2267SOL    HW116731   6.550   5.461  11.594  1.2598  1.1871 -0.1855
 2267SOL    HW216732   6.473   5.583  11.641 -1.6698 -0.8277  0.5661
 2268SOL     OW16733   0.259  12.893   7.072  0.5061 -0.7056 -0.2079
 2268SOL    HW116734   0.192  12.940   7.122  1.6862 -0.5830  1.3298
 2268SOL    HW216735   0.222  12.885   6.984 -0.3296  1.8551 -0.1553
 2269SOL     OW16736   4.447  11.350   0.345 -0.2557  0.7014  0.0417
 2269SOL    HW116737   4.536  11.319   0.362  0.3128  1.9032 -0.6569
 2269SOL    HW216738   4.400  11.334   0.428  0.7031  0.4367  0.5475
 2270SOL     OW16739   3.977   5.935   7.843  0.0519  0.0203 -0.1982
 2270SOL    HW116740   4.044   5.890   7.895 -0.2414 -0.4032 -0.1899
 2270SOL    HW216741   4.014   6.023   7.828  0.4368 -0.0820  0.1384
 2271SOL     OW16742   9.573   6.870   3.400  0.0457 -0.0146 -0.4921
 2271SOL    HW116743   9.642   6.808   3.423 -0.2755  0.1773  1.1240
 2271SOL    HW216744   9.502   6.816   3.366 -1.2041 -0.9169  3.1899
 2272SOL     OW16745  11.629   7.778   0.816 -0.4826  0.3224  0.1877
 2272SOL    HW116746  11.605   7.785   0.909 -0.6358 -0.8861  0.2478
 2272SOL    HW216747  11.708   7.725   0.816 -1.0127 -0.4863 -0.4328
 2273SOL     OW16748   9.839   9.230   3.871  0.1586 -0.0414 -0.3938
 2273SOL    HW116749   9.750   9.261   3.852  0.1301  0.0977 -0.0408
 2273SOL    HW216750   9.860   9.267   3.957  1.2066  1.3054 -1.1921
 2274SOL     OW16751   0.901  12.002   6.054  0.4969  0.3389  0.7926
 2274SOL    HW116752   0.831  11.971   5.996  0.5854 -0.5141  1.1350
 2274SOL    HW216753   0.965  11.931   6.055  1.2705  1.0155  0.6639
 2275SOL     OW16754   6.044   4.503   9.384  0.7914  0.0188 -0.3058
 2275SOL    HW116755   5.972   4.522   9.445  1.3050  1.2450 -0.0309
 2275SOL    HW216756   6.028   4.414   9.354 -1.6210  0.7348 -1.3332
 2276SOL     OW16757   5.339   9.393  10.827 -0.4315 -0.3075  0.0200
 2276SOL    HW116758   5.407   9.429  10.770  0.2632 -1.0054  0.3923
 2276SOL    HW216759   5.325   9.304  10.795  0.8583 -1.1597  1.6694
 2277SOL     OW16760   8.789  12.484   2.207 -0.6911 -0.0281  0.6933
 2277SOL    HW116761   8.706  12.470   2.253 -1.6166  0.2790 -0.8418
 2277SOL    HW216762   8.855  12.475   2.276 -2.1005  2.5113  2.5966
 2278SOL     OW16763   0.753   1.528   8.493 -0.0470  0.3163  0.2086
 2278SOL    HW116764   0.847   1.547   8.490  0.2310 -1.0652 -0.6659
 2278SOL    HW216765   0.722   1.576   8.570  1.5055  0.2118  0.9540
 2279SOL     OW16766   5.538  12.122  11.963  0.4828 -0.1434  0.5750
 2279SOL    HW116767   5.539  12.189  11.894  1.0042 -0.0484  0.6737
 2279SOL    HW216768   5.498  12.166  12.038 -3.0767 -1.1343 -0.5299
 2280SOL     OW16769   1.053  10.621   1.852  0.0792  0.4786  0.0158
 2280SOL    HW116770   1.076  10.570   1.930 -1.9635  0.4971  0.6903
 2280SOL    HW216771   0.967  10.658   1.872  0.6123  2.5779 -1.2642
 2281SOL     OW16772  10.826  11.731   8.220  0.5721  0.8069 -0.8265
 2281SOL    HW116773  10.836  11.822   8.249  0.7843  0.9142 -1.2387
 2281SOL    HW216774  10.807  11.737   8.127  1.1036  0.4076 -0.9658
 2282SOL     OW16775   5.674   9.034   8.118  0.2905 -0.3331 -0.2812
 2282SOL    HW116776   5.644   8.970   8.182  1.9174 -0.0446  0.8137
 2282SOL    HW216777   5.755   9.069   8.155  0.2337  1.2644 -1.5757
 2283SOL     OW16778  12.069  10.350   0.183 -0.9011  0.1986 -0.2153
 2283SOL    HW116779  12.071  10.255   0.172 -1.6488  0.1044  0.3430
 2283SOL    HW216780  12.147  10.370   0.235 -0.3451 -0.0106 -0.9516
 2284SOL     OW16781  12.559   1.681   9.661 -0.0939 -0.6101 -0.1574
 2284SOL    HW116782  12.507   1.605   9.634 -0.3707 -0.4249 -0.1490
 2284SOL    HW216783  12.597   1.655   9.745  0.5685 -1.0936 -0.5935
 2285SOL     OW16784  11.739  12.815   8.672 -0.0132  0.0101 -1.1013
 2285SOL    HW116785  11.661  12.849   8.629  0.3220  1.0823 -0.9031
 2285SOL    HW216786  11.710  12.790   8.759 -0.1183  0.5257 -0.9845
 2286SOL     OW16787   3.739   4.917   2.265  0.2767  0.3488 -0.2331
 2286SOL    HW116788   3.691   4.911   2.182  2.2516 -1.2054 -1.3638
 2286SOL    HW216789   3.743   5.011   2.283  0.3621  0.8052 -2.2995
 2287SOL     OW16790   9.380   7.183  12.419  0.0175  0.2722  0.0239
 2287SOL    HW116791   9.453   7.128  12.391  0.2885 -0.5489  2.1846
 2287SOL    HW216792   9.328   7.196  12.340  0.0170 -2.9824 -0.6305
 2288SOL     OW16793  11.715  10.492  11.758  0.1768  0.3673  0.2880
 2288SOL    HW116794  11.628  10.528  11.779  0.5049  0.7704  0.9992
 2288SOL    HW216795  11.763  10.567  11.723 -0.2251 -0.2025 -1.5511
 2289SOL     OW16796  12.989   5.447   2.703  0.3558 -0.1880 -0.0576
 2289SOL    HW116797  12.945   5.529   2.725 -0.4203 -0.2882 -1.1544
 2289SOL    HW216798  13.081   5.470   2.695  0.4127  0.2010  1.4189
 2290SOL     OW16799   7.570   6.053   0.338 -0.6011  0.0340 -0.5071
 2290SOL    HW116800   7.496   5.994   0.357 -1.3805  0.4608 -2.0153
 2290SOL    HW216801   7.627   6.001   0.282  0.6191 -0.5077  1.1490
 2291SOL     OW16802   0.038   2.956   5.077  0.6291  0.3711 -0.4505
 2291SOL    HW116803   0.058   2.866   5.105  3.5000  0.3888 -2.0576
 2291SOL    HW216804  -0.023   2.944   5.004 -0.1594 -0.1315  0.2591
 2292SOL     OW16805   5.225   6.635   3.944 -0.2386  0.8466  0.5724
 2292SOL    HW116806   5.156   6.700   3.940 -2.7631 -1.6352  0.5996
 2292SOL    HW216807   5.237   6.606   3.854 -0.2683  0.3113  0.7314
 2293SOL     OW16808   8.480  10.165   8.690 -0.4321  0.1517  0.1410
 2293SOL    HW116809   8.513  10.244   8.732  1.0369  0.0539 -0.7244
 2293SOL    HW216810   8.385  10.173   8.693 -0.3110  1.6458  0.6219
 2294SOL     OW16811   7.818  10.696   4.862 -0.1140  0.2215  0.5593
 2294SOL    HW116812   7.732  10.737   4.879 -0.7409 -1.6916  2.4632
 2294SOL    HW216813   7.815  10.673   4.770 -1.2114  1.1753  0.3222
 2295SOL     OW16814   1.826   0.073   6.860 -0.0218 -0.4044 -0.1280
 2295SOL    HW116815   1.776   0.017   6.920  1.3085 -0.0622  1.3400
 2295SOL    HW216816   1.768   0.147   6.843 -0.1152 -0.0912  1.4193
 2296SOL     OW16817   4.408   3.877   2.299 -0.8454 -0.1937 -0.3506
 2296SOL    HW116818   4.366   3.904   2.381 -2.8597 -1.8949 -0.7125
 2296SOL    HW216819   4.432   3.959   2.256 -2.6512  0.8843  0.5429
 2297SOL     OW16820  12.440   5.374  12.574  0.3957  0.0885  0.7774
 2297SOL    HW116821  12.394   5.318  12.636 -1.2702  0.6337  0.0864
 2297SOL    HW216822  12.411   5.463  12.595  0.6996  0.3904 -0.0428
 2298SOL     OW16823   3.178   1.247  12.230 -0.0344 -0.6757 -0.6810
 2298SOL    HW116824   3.136   1.288  12.154  1.2015  1.2080 -0.4170
 2298SOL    HW216825   3.268   1.280  12.228  0.5524 -2.0977  0.5419
 2299SOL     OW16826   0.186   2.836   0.129  0.1100  0.1013  0.5526
 2299SOL    HW116827   0.269   2.883   0.124  0.2590 -0.1972  0.0404
 2299SOL    HW216828   0.190   2.787   0.211 -0.1758  1.2003  1.2391
 2300SOL     OW16829   2.034   9.425  10.166  0.2226 -0.0805  0.4286
 2300SOL    HW116830   2.082   9.422  10.249  0.4393  0.8780  0.3538
 2300SOL    HW216831   2.027   9.333  10.139  0.0102 -0.4160  1.5746
 2301SOL     OW16832   5.029   7.787   1.005  0.1272  0.3187 -0.2093
 2301SOL    HW116833   4.943   7.829   1.006  0.8546  1.9247  1.9376
 2301SOL    HW216834   5.071   7.820   0.926 -0.5605  0.9415 -0.3250
 2302SOL     OW16835  13.033   3.344   9.167  0.0387 -0.7151  0.0247
 2302SOL    HW116836  12.951   3.381   9.201 -0.3239 -1.4135 -0.0936
 2302SOL    HW216837  13.026   3.250   9.183  0.1706 -0.9767 -1.3418
 2303SOL     OW16838   3.431   7.922   6.621  0.4820 -0.1452 -0.1469
 2303SOL    HW116839   3.412   7.937   6.528 -1.3979 -0.9318  0.0595
 2303SOL    HW216840   3.406   7.831   6.636  0.5894  0.0214  1.1638
 2304SOL     OW16841  12.804  10.346   6.025  0.2437 -0.0587 -0.8032
 2304SOL    HW116842  12.827  10.428   5.982  0.8333 -0.3947 -1.1434
 2304SOL    HW216843  12.802  10.367   6.119 -0.7155  0.5964 -0.9538
 2305SOL     OW16844   9.687   4.910   9.919 -0.5824 -0.2960 -0.4668
 2305SOL    HW116845   9.731   4.827   9.902 -0.2978 -0.0626 -0.8774
 2305SOL    HW216846   9.744   4.976   9.879 -0.2355  0.2109  0.7877
 2306SOL     OW16847   7.830   0.845   5.699  0.0965 -0.1414  0.2988
 2306SOL    HW116848   7.798   0.756   5.711  0.3630 -0.1894  0.6716
 2306SOL    HW216849   7.893   0.839   5.627 -1.9015  0.2394 -1.5906
 2307SOL     OW16850   2.573  10.600   4.083 -0.0615  0.0551  0.2441
 2307SOL    HW116851   2.520  10.589   4.162 -1.1681  1.4542 -0.2479
 2307SOL    HW216852   2.588  10.511   4.050 -0.8362 -0.4463  1.2232
 2308SOL     OW16853   8.624   4.059   7.747  0.2542  0.0446 -0.1076
 2308SOL    HW116854   8.635   4.044   7.653  0.1694 -0.9420  0.0343
 2308SOL    HW216855   8.678   3.991   7.788  0.8260  0.8898  0.5599
 2309SOL     OW16856   0.099  10.226  11.734 -0.9373  0.2345  0.2973
 2309SOL    HW116857   0.123  10.227  11.641  0.4675  0.0286  0.6346
 2309SOL    HW216858   0.004  10.241  11.735 -0.8392  1.0696 -1.1169
 2310SOL     OW16859   3.114   4.242  12.525 -0.4065 -0.8296  0.4617
 2310SOL    HW116860   3.186   4.304  12.533  0.7251 -1.8770 -1.0075
 2310SOL    HW216861   3.147   4.161  12.564 -0.1619 -1.7637 -1.5715
 2311SOL     OW16862  13.233   9.806   6.958  0.2358  0.0261  0.2341
 2311SOL    HW116863  13.147   9.821   6.998  0.4449 -0.9135  1.0923
 2311SOL    HW216864  13.217   9.814   6.864 -1.0805 -1.3633  0.2932
 2312SOL     OW16865   6.132   8.167   5.889 -0.0610 -0.6618 -0.0397
 2312SOL    HW116866   6.112   8.253   5.850  0.8122 -0.7230 -0.6558
 2312SOL    HW216867   6.223   8.150   5.864  0.6936 -0.5346  2.3843
 2313SOL     OW16868   8.949   6.062   3.739 -0.4465 -0.1109 -0.2466
 2313SOL    HW116869   9.011   6.020   3.799 -1.1250  0.5132  0.9182
 2313SOL    HW216870   8.873   6.081   3.793  0.5128  4.4370 -0.1514
 2314SOL     OW16871   6.958   8.232   4.962  0.1513  0.3314  0.1968
 2314SOL    HW116872   7.037   8.240   4.909 -0.9269  0.7282 -1.4394
 2314SOL    HW216873   6.919   8.149   4.935  0.7395 -0.5826  2.0673
 2315SOL     OW16874   8.749   0.240   3.456  0.0590  0.3127  0.1418
 2315SOL    HW116875   8.714   0.327   3.474  0.3142  0.7512 -1.3806
 2315SOL    HW216876   8.828   0.234   3.509  0.5107  1.3543 -0.3949
 2316SOL     OW16877   7.987   8.554  11.200 -0.1596 -0.3567  0.6394
 2316SOL    HW116878   8.009   8.498  11.125  0.3183  0.2457  0.3191
 2316SOL    HW216879   7.897   8.530  11.223 -0.1138 -0.9335  0.2196
 2317SOL     OW16880  12.625   0.151   8.113 -0.1147 -0.4565  0.1722
 2317SOL    HW116881  12.603   0.216   8.179  0.6307 -1.0822  1.0595
 2317SOL    HW216882  12.703   0.106   8.148  1.1499  0.1139 -1.7387
 2318SOL     OW16883   5.458   5.087  12.493 -0.5209 -0.2961 -0.1524
 2318SOL    HW116884   5.387   5.141  12.461  0.3973  0.9441 -0.1682
 2318SOL    HW216885   5.497   5.049  12.413 -1.6046 -1.5941 -0.0961
 2319SOL     OW16886   2.463   0.938   6.775 -0.3352  0.4575  0.4678
 2319SOL    HW116887   2.519   0.961   6.850 -0.4388  0.3181  0.5888
 2319SOL    HW216888   2.512   0.870   6.729 -0.0920  0.8207  0.1873
 2320SOL     OW16889   1.587   8.247   5.115 -0.2788 -0.2590  0.0760
 2320SOL    HW116890   1.668   8.216   5.075 -0.4454 -0.7038  0.0721
 2320SOL    HW216891   1.560   8.322   5.062 -1.5599 -2.0177 -1.9361
 2321SOL     OW16892   2.554   4.294   5.659 -0.1576  0.3714 -0.4028
 2321SOL    HW116893   2.533   4.379   5.620 -0.7562  1.5175  2.2449
 2321SOL    HW216894   2.477   4.240   5.641 -0.1882  0.6822 -1.2522
 2322SOL     OW16895  13.027   3.941   0.269 -0.2920  0.3648 -0.4285
 2322SOL    HW116896  13.060   3.907   0.186  0.9029  1.8974 -0.6316
 2322SOL    HW216897  13.087   4.012   0.291 -1.1218  0.5792  1.3004
 2323SOL     OW16898  10.587   9.975  11.127 -0.2618  0.0036 -0.2148
 2323SOL    HW116899  10.582   9.880  11.113  0.1249  0.1729 -1.5941
 2323SOL    HW216900  10.502  10.008  11.098 -1.1769 -0.0915  2.1158
 2324SOL     OW16901  12.920  11.252   2.447  0.1906  0.5537 -0.2511
 2324SOL    HW116902  12.900  11.340   2.415  1.2002 -0.0380 -2.7092
 2324SOL    HW216903  12.837  11.205   2.440  0.0477  0.8476 -0.5736
 2325SOL     OW16904   3.693   0.644  10.745  0.3670 -0.3157  0.0600
 2325SOL    HW116905   3.680   0.616  10.835  1.3882 -0.1972  0.2553
 2325SOL    HW216906   3.744   0.574  10.705 -1.0015 -0.8987 -0.7581
 2326SOL     OW16907   9.264   7.724   7.245 -0.0349  0.4635 -0.6235
 2326SOL    HW116908   9.355   7.695   7.238 -0.1781  0.2173 -1.5718
 2326SOL    HW216909   9.212   7.646   7.224 -0.5521 -0.0972  2.2150
 2327SOL     OW16910  11.318  12.166  12.893 -0.0306 -0.1605  0.3086
 2327SOL    HW116911  11.367  12.111  12.953  0.4084  0.0716  0.1631
 2327SOL    HW216912  11.366  12.248  12.889 -0.3468  0.0186  0.0530
 2328SOL     OW16913   0.676   5.770   7.596  0.4877  0.1355  0.3013
 2328SOL    HW116914   0.680   5.724   7.512  0.1411 -0.0394  0.3777
 2328SOL    HW216915   0.633   5.708   7.655 -1.5554  1.1572 -0.0011
 2329SOL     OW16916   4.085   3.241   6.659 -0.0721 -0.5291  0.2973
 2329SOL    HW116917   4.068   3.217   6.568 -2.4458 -0.2618  0.6254
 2329SOL    HW216918   4.032   3.319   6.674  0.1538 -0.6539  1.9541
 2330SOL     OW16919   8.944   6.457   6.298  0.3071 -0.3740 -0.2853
 2330SOL    HW116920   8.855   6.491   6.310  0.0520 -1.0369 -0.2858
 2330SOL    HW216921   8.992   6.486   6.375  0.5686  1.4822 -1.0824
 2331SOL     OW16922   7.217   6.052  11.355 -0.1038 -0.1965  0.2386
 2331SOL    HW116923   7.155   5.980  11.367 -0.2653  0.0577  0.9820
 2331SOL    HW216924   7.249   6.042  11.265 -0.5530 -0.8551  0.1484
 2332SOL     OW16925   4.025   7.368   6.532 -0.5772  0.1960  0.5031
 2332SOL    HW116926   4.027   7.436   6.465  0.4089  0.2361  0.5469
 2332SOL    HW216927   4.102   7.386   6.587 -0.5731 -0.6559  0.8008
 2333SOL     OW16928   8.100  13.032   3.680 -0.3646  0.1357  0.0581
 2333SOL    HW116929   8.017  13.041   3.633 -0.9973  0.3860  1.1845
 2333SOL    HW216930   8.147  12.964   3.631 -1.4184 -0.3372 -0.3517
 2334SOL     OW16931   9.123   2.476   3.421 -0.5542  0.0526 -0.7800
 2334SOL    HW116932   9.124   2.380   3.423  0.8853  0.0376 -1.3964
 2334SOL    HW216933   9.141   2.499   3.330 -0.8523  0.9222 -0.6282
 2335SOL     OW16934  13.157   9.805   6.019  0.3547  0.0290 -0.3040
 2335SOL    HW116935  13.185   9.795   6.110 -0.7293 -1.8053 -0.1208
 2335SOL    HW216936  13.068   9.841   6.025  0.4836  0.4155 -0.6621
 2336SOL     OW16937   6.886  10.795   4.441  0.8469 -0.1654 -0.4316
 2336SOL    HW116938   6.937  10.715   4.451 -0.2978 -0.7876  0.6318
 2336SOL    HW216939   6.810  10.783   4.498 -0.5193  0.7250 -1.9706
 2337SOL     OW16940   8.720   8.211   6.610  0.2784 -0.1669  0.3251
 2337SOL    HW116941   8.649   8.258   6.654  0.4764  0.3081  0.1426
 2337SOL    HW216942   8.795   8.269   6.616  1.2806 -1.5513  2.4196
 2338SOL     OW16943   9.334   6.599   8.303 -0.3528  0.3464 -0.5022
 2338SOL    HW116944   9.346   6.506   8.284  0.2238 -0.2209  2.1487
 2338SOL    HW216945   9.371   6.645   8.228  0.1879 -1.5549 -1.4572
 2339SOL     OW16946   4.523  11.513   1.280 -0.0456 -0.0811  0.0883
 2339SOL    HW116947   4.449  11.456   1.301  0.2104  0.0826  1.5117
 2339SOL    HW216948   4.569  11.467   1.209 -1.9268  0.2050 -1.4142
 2340SOL     OW16949   3.105   8.851   3.626 -0.2686  0.1266 -0.5676
 2340SOL    HW116950   3.080   8.917   3.562 -0.2379 -0.6299 -1.3822
 2340SOL    HW216951   3.083   8.889   3.711  0.0234  1.2918 -1.0026
 2341SOL     OW16952   5.733   4.647   7.424 -0.1009  0.5625  0.6557
 2341SOL    HW116953   5.751   4.740   7.412 -2.0889  0.8807 -0.2173
 2341SOL    HW216954   5.705   4.616   7.338  2.3966 -1.3843  0.3945
 2342SOL     OW16955   0.732   9.204   2.851  0.3028  0.8342 -0.2122
 2342SOL    HW116956   0.698   9.293   2.842 -1.6946  0.3177  1.5132
 2342SOL    HW216957   0.805   9.212   2.912  0.0327  1.2774  0.0565
 2343SOL     OW16958   1.388   9.194  12.673 -0.1863  0.0384  0.1170
 2343SOL    HW116959   1.405   9.196  12.767  0.9668 -0.7963 -0.0447
 2343SOL    HW216960   1.332   9.118  12.660  0.5957 -0.5375  0.0173
 2344SOL     OW16961   4.874   4.770   6.279  0.2296  0.0028  0.1527
 2344SOL    HW116962   4.858   4.771   6.184 -0.1733 -0.6007  0.2094
 2344SOL    HW216963   4.969   4.772   6.287  0.2967 -0.8938 -0.2935
 2345SOL     OW16964  11.023  11.544  11.850 -0.0416  0.2746  0.0609
 2345SOL    HW116965  10.984  11.547  11.763  0.8170 -0.1652 -0.3558
 2345SOL    HW216966  11.080  11.621  11.853 -1.9993  1.7562  1.2164
 2346SOL     OW16967   8.595  10.845   0.714 -0.1538 -0.2634 -0.1693
 2346SOL    HW116968   8.572  10.870   0.803 -1.5594 -0.3965 -0.4807
 2346SOL    HW216969   8.690  10.861   0.709  0.3323 -1.9676  1.9085
 2347SOL     OW16970   5.739  10.357   1.416  0.1583  0.1898 -0.1557
 2347SOL    HW116971   5.835  10.352   1.422  0.4095  1.8573 -1.7346
 2347SOL    HW216972   5.722  10.379   1.325 -1.8277 -1.0500 -0.1376
 2348SOL     OW16973   8.573   1.909  10.679 -1.0046 -0.0430 -0.2680
 2348SOL    HW116974   8.640   1.894  10.746 -0.0331  2.2042 -0.6566
 2348SOL    HW216975   8.491   1.887  10.722 -0.0963 -4.5978 -0.2720
 2349SOL     OW16976   5.929  11.472  10.465  0.1000  0.0441 -0.2607
 2349SOL    HW116977   5.936  11.442  10.556  2.2469 -0.3273 -0.5005
 2349SOL    HW216978   5.942  11.567  10.469 -3.0473  0.5866  0.0903
 2350SOL     OW16979   3.664   1.664   0.576 -0.2262  0.6439 -0.4741
 2350SOL    HW116980   3.680   1.758   0.577 -0.1001  0.6181 -0.1250
 2350SOL    HW216981   3.665   1.638   0.668  2.2258 -0.1347 -0.6606
 2351SOL     OW16982   7.656  10.885   0.260  0.5253  0.3460 -0.2539
 2351SOL    HW116983   7.643  10.850   0.348  2.8700  3.0939  1.3761
 2351SOL    HW216984   7.658  10.808   0.204  0.1865 -1.6490  2.2594
 2352SOL     OW16985  11.765   4.069  11.298 -0.4068  0.2453  0.0206
 2352SOL    HW116986  11.791   4.062  11.390 -4.2534 -0.9718  1.2557
 2352SOL    HW216987  11.745   4.161  11.285 -0.4627  0.3262  0.6458
 2353SOL     OW16988   0.447  12.751   8.899 -0.1257 -0.0817 -0.4732
 2353SOL    HW116989   0.457  12.700   8.818  0.3740  0.4129 -0.7307
 2353SOL    HW216990   0.482  12.694   8.967 -0.5480 -0.5011 -0.6052
 2354SOL     OW16991   1.899   8.066   9.081  0.6191 -0.4665 -0.5268
 2354SOL    HW116992   1.860   7.978   9.086  0.6115 -0.4200  0.7485
 2354SOL    HW216993   1.865   8.103   9.000 -0.6748 -1.0530 -0.2818
 2355SOL     OW16994   3.798  10.601  12.344  0.2587  0.0585 -0.0771
 2355SOL    HW116995   3.850  10.675  12.312  1.1202 -0.5297 -0.0635
 2355SOL    HW216996   3.863  10.535  12.369 -0.4832 -0.4978  0.4214
 2356SOL     OW16997   2.974   9.033  11.568  0.1974 -0.2821  0.0916
 2356SOL    HW116998   2.957   9.103  11.504  0.0949  1.3990  1.8471
 2356SOL    HW216999   2.887   9.003  11.594  0.1712  0.4523  0.8863
 2357SOL     OW17000   7.111   8.115   8.481 -0.4099  0.2444  0.3330
 2357SOL    HW117001   7.193   8.071   8.458 -0.6551 -0.1756  0.2476
 2357SOL    HW217002   7.073   8.061   8.550  0.0607  1.2166  1.3734
 2358SOL     OW17003   1.795   4.929   9.043  0.1857 -0.2251 -0.1151
 2358SOL    HW117004   1.724   4.975   9.088  0.1162  1.2693 -1.6211
 2358SOL    HW217005   1.847   5.000   9.004  2.5277 -1.2658  0.9197
 2359SOL     OW17006   7.341   2.779   2.983 -0.1841 -0.2192 -0.5097
 2359SOL    HW117007   7.257   2.737   3.006 -0.5406  0.8051  0.1028
 2359SOL    HW217008   7.330   2.806   2.892 -0.3938 -0.3683 -0.5309
 2360SOL     OW17009   1.851   0.586  10.223 -0.2763 -0.1517 -0.5903
 2360SOL    HW117010   1.870   0.504  10.270 -1.4149  0.2273  0.5681
 2360SOL    HW217011   1.756   0.587  10.214 -0.1508  0.2435 -2.1288
 2361SOL     OW17012  13.215  12.609   1.222  0.2790 -0.2232  0.2513
 2361SOL    HW117013  13.190  12.636   1.134  0.6658  3.6219  1.1559
 2361SOL    HW217014  13.305  12.576   1.212  0.3276  0.1921 -0.7901
 2362SOL     OW17015   1.456   7.856   0.517  0.0002 -0.4528  0.0375
 2362SOL    HW117016   1.509   7.819   0.447  1.7070 -0.4856  1.2964
 2362SOL    HW217017   1.497   7.825   0.598 -1.1853  0.5671  1.0766
 2363SOL     OW17018  11.268   9.941  12.368 -0.2955 -0.1186 -0.1425
 2363SOL    HW117019  11.218  10.023  12.374  0.6729  0.4449  0.4902
 2363SOL    HW217020  11.217   9.878  12.419 -0.5060  0.3713  0.2576
 2364SOL     OW17021   4.963  13.198   3.362  0.3910 -0.0047 -0.1180
 2364SOL    HW117022   4.897  13.133   3.387 -0.0022 -0.2776 -1.7438
 2364SOL    HW217023   4.977  13.249   3.441 -3.2121  1.3274 -0.1591
 2365SOL     OW17024   0.410   2.913   0.246 -0.2387  0.3964  0.1935
 2365SOL    HW117025   0.392   3.007   0.245 -0.0479  0.4299 -0.1280
 2365SOL    HW217026   0.438   2.895   0.336  2.6976  1.2202 -0.4409
 2366SOL     OW17027   3.533   6.208   5.558  0.4506  0.1746 -0.4318
 2366SOL    HW117028   3.504   6.286   5.511 -1.0727 -1.3646 -2.2075
 2366SOL    HW217029   3.467   6.195   5.627  0.2726  0.0248 -0.6302
 2367SOL     OW17030   5.707  12.273   6.583 -0.2187 -0.4416 -0.2190
 2367SOL    HW117031   5.650  12.301   6.511 -1.3403 -4.2157 -1.0403
 2367SOL    HW217032   5.652  12.280   6.661  0.0086  0.8980 -0.1680
 2368SOL     OW17033   4.481   1.859   8.223 -0.0802 -0.6327 -0.0734
 2368SOL    HW117034   4.477   1.811   8.306 -2.1409 -1.7846 -0.7851
 2368SOL    HW217035   4.398   1.905   8.219  1.6574  2.9243  0.4263
 2369SOL     OW17036  11.684   3.873   6.258 -0.0356  0.0434  0.0689
 2369SOL    HW117037  11.713   3.835   6.175  0.6649 -0.2131  0.4217
 2369SOL    HW217038  11.765   3.884   6.308 -0.5097 -0.2911  0.9162
 2370SOL     OW17039  13.138   1.890   1.978 -0.2598  0.0051 -0.2387
 2370SOL    HW117040  13.062   1.941   1.952  1.4440  1.5168 -2.6537
 2370SOL    HW217041  13.130   1.808   1.930 -0.5727 -0.0374 -0.1184
 2371SOL     OW17042   3.277   6.120   3.165  0.3192  0.1458  0.2800
 2371SOL    HW117043   3.226   6.056   3.214 -2.4491  3.2880  1.9009
 2371SOL    HW217044   3.306   6.183   3.231  1.0864  1.7124 -1.4604
 2372SOL     OW17045   1.523   3.185  11.206  0.0389 -0.5773  0.3591
 2372SOL    HW117046   1.467   3.259  11.183  2.6090  0.8566 -1.8501
 2372SOL    HW217047   1.510   3.122  11.136  0.4354 -0.6831  0.3787
 2373SOL     OW17048   1.087   1.408   7.595 -0.0453 -0.0733  0.2196
 2373SOL    HW117049   1.095   1.473   7.525 -0.2633 -0.6023 -0.3058
 2373SOL    HW217050   1.114   1.325   7.555 -1.0086 -0.5452  0.4940
 2374SOL     OW17051   4.419   9.646   4.732  0.3071  0.6800 -0.4954
 2374SOL    HW117052   4.437   9.660   4.825 -0.1442  0.0155 -0.3003
 2374SOL    HW217053   4.357   9.574   4.730  2.6274 -1.4427 -1.4291
 2375SOL     OW17054   8.632   8.216   5.822  0.0326  0.2283 -0.1298
 2375SOL    HW117055   8.560   8.217   5.759 -0.5944  0.7224  0.5674
 2375SOL    HW217056   8.711   8.221   5.769 -0.3746 -1.7545 -1.0034
 2376SOL     OW17057   6.450  10.328   1.017 -0.0167  0.2583  0.1904
 2376SOL    HW117058   6.408  10.276   1.086  1.9295 -0.6335  0.7894
 2376SOL    HW217059   6.524  10.274   0.989 -0.7992  0.5489 -2.7239
 2377SOL     OW17060   5.702  12.621   9.702  0.0506  0.1916 -0.1085
 2377SOL    HW117061   5.637  12.683   9.735 -1.5912 -0.1997 -2.3393
 2377SOL    HW217062   5.670  12.535   9.731  0.6420  0.1210  0.3701
 2378SOL     OW17063   4.749   6.883   9.467 -0.1274  0.2685  0.4150
 2378SOL    HW117064   4.712   6.971   9.463  0.3678  0.6269  2.6641
 2378SOL    HW217065   4.842   6.895   9.448 -0.4179 -0.1139 -1.4403
 2379SOL     OW17066   5.973   2.870   0.680  1.3301 -0.2725  0.0743
 2379SOL    HW117067   6.020   2.865   0.597  2.1326  1.5329  0.3567
 2379SOL    HW217068   5.881   2.880   0.656  1.1654 -2.7206 -0.5050
 2380SOL     OW17069  10.871   7.250   2.035  0.0096 -0.7822  0.2893
 2380SOL    HW117070  10.797   7.239   2.093  0.2770 -2.5270  0.3469
 2380SOL    HW217071  10.860   7.183   1.968  0.6241  0.0621 -0.6971
 2381SOL     OW17072   4.361   5.881   8.896 -0.1061 -0.3353 -0.3451
 2381SOL    HW117073   4.298   5.844   8.958 -0.4165 -1.1882 -1.1472
 2381SOL    HW217074   4.309   5.905   8.820  0.5471 -1.2445 -1.1002
 2382SOL     OW17075   7.234   6.364   2.872 -0.1819  0.6919  0.4634
 2382SOL    HW117076   7.142   6.388   2.875 -0.4012 -0.1942  1.4406
 2382SOL    HW217077   7.247   6.306   2.948  0.7628 -0.5763 -0.5982
 2383SOL     OW17078   3.573   1.381   5.663  0.1010 -0.1194  0.4359
 2383SOL    HW117079   3.541   1.437   5.734  1.2291  1.1963 -0.0515
 2383SOL    HW217080   3.510   1.394   5.592 -0.4065 -0.5752  0.7882
 2384SOL     OW17081   7.450   1.281  10.750 -0.1393  0.2684 -0.5894
 2384SOL    HW117082   7.415   1.356  10.701  2.5375  0.7125 -2.0351
 2384SOL    HW217083   7.472   1.316  10.836  1.0383  1.1497 -1.2360
 2385SOL     OW17084   1.983   3.448  12.788 -0.1549 -0.1955 -0.0312
 2385SOL    HW117085   1.922   3.493  12.730  0.0202 -0.0204 -0.0828
 2385SOL    HW217086   2.066   3.448  12.740  0.7861  2.6068  1.4019
 2386SOL     OW17087   2.539  10.850   4.743 -0.0746  0.3887  0.9321
 2386SOL    HW117088   2.454  10.842   4.699 -0.4384  2.6631  1.1405
 2386SOL    HW217089   2.518  10.868   4.834  0.6835 -0.6346  1.3403
 2387SOL     OW17090   8.411   8.715   1.975 -0.3051  0.2062  0.2983
 2387SOL    HW117091   8.477   8.776   1.943 -0.3170 -0.8130 -1.8899
 2387SOL    HW217092   8.453   8.671   2.049  1.5339 -0.4032 -1.0294
 2388SOL     OW17093   5.161  12.565   0.954 -0.6494  0.3312  0.1892
 2388SOL    HW117094   5.252  12.577   0.927 -0.4328  0.0509  0.7707
 2388SOL    HW217095   5.138  12.648   0.997 -1.1111  0.9142 -1.1422
 2389SOL     OW17096  10.526   8.627   3.640 -0.5690  0.7290  0.6986
 2389SOL    HW117097  10.525   8.691   3.711 -1.0918  1.1558  0.3092
 2389SOL    HW217098  10.453   8.569   3.658  1.2638 -1.2161  2.3440
 2390SOL     OW17099  11.762  13.244  13.235  0.8270 -0.0358 -0.3565
 2390SOL    HW117100  11.766  13.292  13.152 -0.1055 -0.7289 -0.8271
 2390SOL    HW217101  11.849  13.207  13.245  0.7094 -0.6683 -1.4909
 2391SOL     OW17102  10.975   1.990   3.056 -0.1114 -0.2035  0.0670
 2391SOL    HW117103  10.988   2.053   2.985 -1.1767 -0.1572 -0.1104
 2391SOL    HW217104  10.986   1.905   3.015  0.0609 -0.1579  0.0199
 2392SOL     OW17105   5.894   6.067   3.657  0.3360 -0.3653  0.0255
 2392SOL    HW117106   5.810   6.069   3.702 -0.1869  1.1343 -0.9452
 2392SOL    HW217107   5.895   5.983   3.611 -0.5325 -0.4917  0.2319
 2393SOL     OW17108   0.436  10.444   5.114 -0.3526  0.0899 -0.7376
 2393SOL    HW117109   0.409  10.409   5.029 -1.5245 -1.5687  0.2645
 2393SOL    HW217110   0.381  10.399   5.178  1.5822  0.0820  1.0496
 2394SOL     OW17111   0.236  12.242   5.995  0.4922  0.2593 -0.4228
 2394SOL    HW117112   0.183  12.321   5.989  1.1718  0.9144  1.4064
 2394SOL    HW217113   0.326  12.274   6.007  1.3270 -0.8179 -3.1964
 2395SOL     OW17114   2.535   6.354  10.002 -0.6970 -0.5097 -0.0547
 2395SOL    HW117115   2.485   6.426   9.963 -1.2453  0.0042  1.5115
 2395SOL    HW217116   2.492   6.339  10.086 -0.0328 -2.0872  0.0217
 2396SOL     OW17117  12.122   2.741   6.522 -0.0494 -0.1170  0.0501
 2396SOL    HW117118  12.187   2.809   6.501 -1.8313  1.5260 -0.3816
 2396SOL    HW217119  12.117   2.688   6.443 -0.1534  0.5329 -0.3861
 2397SOL     OW17120   7.925  11.774   8.276  0.3882  0.3376 -0.8921
 2397SOL    HW117121   7.931  11.860   8.235  1.3427  0.3845 -0.6788
 2397SOL    HW217122   7.855  11.729   8.228  2.1395  0.0022 -3.3108
 2398SOL     OW17123   2.267  12.410   4.052 -0.5513  0.4023 -0.3305
 2398SOL    HW117124   2.231  12.481   3.999 -1.5667 -0.4702 -0.8557
 2398SOL    HW217125   2.357  12.401   4.022  1.2744  4.5646  3.0045
 2399SOL     OW17126  10.481  10.135   8.847  0.0182 -0.0456 -0.4736
 2399SOL    HW117127  10.434  10.074   8.791 -0.9790  0.5255 -0.2869
 2399SOL    HW217128  10.537  10.185   8.788  1.5557 -1.7049 -0.5361
 2400SOL     OW17129   9.926   1.851   3.780  0.2987 -0.1459 -0.0067
 2400SOL    HW117130   9.942   1.786   3.711  1.0015 -0.6548  0.6179
 2400SOL    HW217131  10.006   1.903   3.783  0.5937 -0.6397  0.9624
 2401SOL     OW17132  12.532  11.404   7.342 -0.1787 -0.2832  0.0639
 2401SOL    HW117133  12.534  11.382   7.248  2.1419 -2.1111  0.4359
 2401SOL    HW217134  12.558  11.323   7.386  1.7129  1.3103  2.1014
 2402SOL     OW17135   1.017  10.790   7.397 -0.3587  0.2216  0.7053
 2402SOL    HW117136   0.977  10.731   7.461  2.8743  0.2624  2.9662
 2402SOL    HW217137   1.079  10.734   7.350 -3.0882  0.0032 -3.1591
 2403SOL     OW17138   5.096  11.959  12.509 -0.0862  0.0540 -0.4792
 2403SOL    HW117139   5.124  12.001  12.428  1.8637 -1.3611 -0.6080
 2403SOL    HW217140   5.156  11.993  12.575 -1.8473  1.4286  0.5056
 2404SOL     OW17141   9.746   8.380  11.371  0.2305  0.5263  0.1057
 2404SOL    HW117142   9.823   8.356  11.423  1.1060  1.1507 -0.8474
 2404SOL    HW217143   9.675   8.328  11.408  1.4143 -1.2494  0.0633
 2405SOL     OW17144   6.144   6.111  10.737 -0.5729 -0.3066  0.2754
 2405SOL    HW117145   6.060   6.094  10.693 -0.8216  0.5061  0.4298
 2405SOL    HW217146   6.186   6.025  10.741 -1.3032 -0.6868 -0.0006
 2406SOL     OW17147   5.198   8.727  12.253 -0.7074 -0.2782 -0.4375
 2406SOL    HW117148   5.206   8.697  12.162 -1.4746 -0.1039 -0.5675
 2406SOL    HW217149   5.110   8.763  12.258 -0.4724  0.2053  0.2359
 2407SOL     OW17150  10.091  13.278   0.782  0.1601 -0.5057 -0.3421
 2407SOL    HW117151  10.068  13.219   0.710 -2.8635  0.3256 -0.1915
 2407SOL    HW217152  10.025  13.261   0.849 -0.3383  2.3545  0.0512
 2408SOL     OW17153  12.282   2.494   3.548  0.5592 -0.5513  0.3177
 2408SOL    HW117154  12.316   2.539   3.625  0.5215 -0.5870  0.3553
 2408SOL    HW217155  12.346   2.512   3.479  0.6503 -0.6100  0.3859
 2409SOL     OW17156  12.785  13.208  11.989 -0.2877  0.2027 -0.1515
 2409SOL    HW117157  12.690  13.222  11.997 -0.5604 -1.2727 -0.4929
 2409SOL    HW217158  12.807  13.149  12.061 -0.0656 -1.2766 -1.3832
 2410SOL     OW17159  10.033  12.865   4.633  0.1273 -0.1789 -0.1612
 2410SOL    HW117160   9.960  12.855   4.573  0.6899 -0.2242 -0.8538
 2410SOL    HW217161  10.094  12.795   4.608 -0.2440 -1.0899  1.3799
 2411SOL     OW17162   0.310   7.146   8.627 -0.2856 -0.2778  0.1925
 2411SOL    HW117163   0.310   7.145   8.531  1.3217 -2.5032  0.1492
 2411SOL    HW217164   0.286   7.057   8.652  0.5578 -0.0794  1.8482
 2412SOL     OW17165   0.410   5.554   0.760 -0.4672  0.1983 -0.2780
 2412SOL    HW117166   0.420   5.635   0.811 -0.5465 -0.7906  1.3850
 2412SOL    HW217167   0.381   5.584   0.674 -0.4019  1.9475  0.2591
 2413SOL     OW17168   7.224   6.709  12.875  0.5639  0.0397 -0.1110
 2413SOL    HW117169   7.293   6.666  12.824 -0.5697  0.2386 -1.8961
 2413SOL    HW217170   7.201   6.787  12.823 -2.0556 -0.8392 -0.4024
 2414SOL     OW17171   8.585   2.202   1.659  0.1725 -0.3675  0.2957
 2414SOL    HW117172   8.617   2.286   1.692  2.4675 -0.2560 -1.9229
 2414SOL    HW217173   8.509   2.224   1.606  0.2267  0.2089  0.4540
 2415SOL     OW17174  10.900   6.822   3.179  0.1902  0.1350 -0.1834
 2415SOL    HW117175  10.883   6.870   3.260  1.4462  0.5707 -0.1714
 2415SOL    HW217176  10.962   6.754   3.204  1.6721  1.1342 -1.0458
 2416SOL     OW17177  10.689   6.318   3.030 -0.2606  0.0364 -0.1637
 2416SOL    HW117178  10.644   6.352   3.108  1.3002  0.8317  0.4360
 2416SOL    HW217179  10.781   6.315   3.055  0.1519 -0.6638 -1.6546
 2417SOL     OW17180   9.594   6.042   2.468  0.9241  0.2436 -0.0593
 2417SOL    HW117181   9.558   5.954   2.473  1.5649 -0.0710 -0.7280
 2417SOL    HW217182   9.541   6.094   2.528  0.0156 -0.4161 -0.2793
 2418SOL     OW17183   9.266  11.276   5.839 -0.7627 -0.3876  0.4141
 2418SOL    HW117184   9.257  11.370   5.858 -0.9017 -0.4841  0.8498
 2418SOL    HW217185   9.289  11.237   5.923 -0.0127 -0.6593  0.0952
 2419SOL     OW17186   3.024   0.098   5.695  0.0979  0.0743 -0.6722
 2419SOL    HW117187   3.083   0.084   5.621  2.2475 -0.1802  0.9611
 2419SOL    HW217188   3.065   0.170   5.744 -0.7557 -0.3544  0.7224
 2420SOL     OW17189  11.518   4.829  12.184  0.2428  0.0639  0.0389
 2420SOL    HW117190  11.430   4.866  12.191  0.7137  1.1255  0.5689
 2420SOL    HW217191  11.576   4.898  12.214  1.2603 -0.6835 -0.1290
 2421SOL     OW17192   7.167   5.207   1.537  0.2434 -0.2730 -0.0926
 2421SOL    HW117193   7.104   5.138   1.521  1.2293 -1.4442  0.8950
 2421SOL    HW217194   7.243   5.183   1.483  0.3421  0.4186 -0.2724
 2422SOL     OW17195   3.172   7.980  10.991  0.2131  0.1245  0.1106
 2422SOL    HW117196   3.121   8.053  11.025 -0.5230 -0.6685  0.7695
 2422SOL    HW217197   3.113   7.937  10.929  1.1422  0.8955 -1.3496
 2423SOL     OW17198   5.813  12.488   3.314  0.0095  0.1771 -0.8183
 2423SOL    HW117199   5.774  12.418   3.366 -0.8923  0.8559 -0.5649
 2423SOL    HW217200   5.876  12.530   3.373 -1.4915  1.3800  0.0074
 2424SOL     OW17201   9.323  13.073   8.753  0.0576  0.4018  0.1179
 2424SOL    HW117202   9.300  12.996   8.701 -0.7022  0.7860 -0.1296
 2424SOL    HW217203   9.279  13.060   8.837 -0.3702  0.7349 -0.0533
 2425SOL     OW17204   6.346   2.391   0.762  0.4503 -0.1881 -0.7898
 2425SOL    HW117205   6.280   2.415   0.697  0.3898  0.6903 -0.4229
 2425SOL    HW217206   6.384   2.310   0.729 -2.0396 -1.7289 -0.1142
 2426SOL     OW17207   2.670   0.625   8.434  0.5395  0.3767 -0.1241
 2426SOL    HW117208   2.731   0.697   8.421  0.4373  0.2611 -1.3765
 2426SOL    HW217209   2.710   0.572   8.503  0.4376  1.7886  1.0798
 2427SOL     OW17210   4.043  11.715   3.643  0.5937 -0.6569  0.2378
 2427SOL    HW117211   4.066  11.691   3.553 -0.6256 -0.4408 -0.1412
 2427SOL    HW217212   4.003  11.635   3.679 -1.7465  0.1398 -0.4258
 2428SOL     OW17213  11.003  12.870   0.941  0.5827 -0.2649 -0.0092
 2428SOL    HW117214  10.965  12.801   0.886 -0.0851 -0.3658  0.5570
 2428SOL    HW217215  11.033  12.824   1.019 -0.0410  0.1001  0.4559
 2429SOL     OW17216  11.737  11.723   4.257  0.4624 -0.0434 -0.5135
 2429SOL    HW117217  11.794  11.770   4.318 -0.2211  0.4961 -0.2824
 2429SOL    HW217218  11.668  11.686   4.312  0.1943 -0.0958 -0.8773
 2430SOL     OW17219  12.376   7.549  13.049 -0.1608  0.4011 -0.0817
 2430SOL    HW117220  12.365   7.578  12.959 -0.5649 -1.3373 -0.6343
 2430SOL    HW217221  12.456   7.497  13.048 -1.6941 -2.1325 -0.1735
 2431SOL     OW17222   6.050  12.900   9.733 -0.3086 -0.3908  0.4691
 2431SOL    HW117223   6.059  12.821   9.680 -0.1811 -0.4885  0.6388
 2431SOL    HW217224   6.139  12.932   9.745 -0.3339 -0.3876  0.6543
 2432SOL     OW17225   8.514  12.816   5.085  0.4685  0.1163 -0.5820
 2432SOL    HW117226   8.597  12.862   5.069  0.6631 -0.2719 -0.7008
 2432SOL    HW217227   8.504  12.818   5.180  1.6420 -1.5876 -0.3857
 2433SOL     OW17228   6.841  11.727   7.595  0.2587  0.1801  0.1994
 2433SOL    HW117229   6.766  11.693   7.547 -1.8322  1.0869  2.5711
 2433SOL    HW217230   6.862  11.810   7.552 -2.2536  1.5046  1.2969
 2434SOL     OW17231   2.958  11.190   9.345  0.2495 -0.1822 -0.1360
 2434SOL    HW117232   3.042  11.194   9.300  1.9861 -1.1712  2.7420
 2434SOL    HW217233   2.909  11.264   9.310  1.9072 -0.1354 -2.6139
 2435SOL     OW17234   1.548   2.465   5.889 -0.6602 -0.3947  0.1857
 2435SOL    HW117235   1.616   2.480   5.823  0.3643 -2.0152  0.8014
 2435SOL    HW217236   1.472   2.512   5.857 -0.2299 -1.2297 -2.2207
 2436SOL     OW17237   4.165   9.190   1.518  0.2264  0.5052  0.1725
 2436SOL    HW117238   4.261   9.185   1.509  0.1468 -0.5822 -0.1789
 2436SOL    HW217239   4.150   9.272   1.565  1.5093 -0.5859  2.6610
 2437SOL     OW17240   0.283   2.164   8.326  0.0077  0.1389 -0.4347
 2437SOL    HW117241   0.346   2.147   8.255 -1.7156 -0.7220 -1.8566
 2437SOL    HW217242   0.264   2.258   8.319  1.2662  0.4538  0.1559
 2438SOL     OW17243  10.225   4.430   7.011  0.5917 -0.1153  0.0864
 2438SOL    HW117244  10.279   4.481   7.071 -2.8172  1.9047  1.6660
 2438SOL    HW217245  10.202   4.351   7.061 -1.7544  1.2889  1.3714
 2439SOL     OW17246   9.160   6.368   2.337 -0.0005  0.9788  0.4416
 2439SOL    HW117247   9.133   6.318   2.414  0.4374  1.3972  0.8734
 2439SOL    HW217248   9.165   6.304   2.266  0.5908  0.4058  0.9931
 2440SOL     OW17249   7.606   9.242   4.260  0.6314  0.1869 -0.3627
 2440SOL    HW117250   7.537   9.253   4.326 -0.8189 -2.0907 -1.4064
 2440SOL    HW217251   7.684   9.278   4.302 -0.9124  1.8222  1.3014
 2441SOL     OW17252   6.529   6.302   6.358 -0.2059  1.1509  0.1824
 2441SOL    HW117253   6.446   6.298   6.310  0.0138  1.1898 -0.2063
 2441SOL    HW217254   6.509   6.264   6.444 -0.6571  1.2811  0.1389
 2442SOL     OW17255   8.696  10.518   3.376  0.4438  0.2995 -0.0925
 2442SOL    HW117256   8.622  10.557   3.421  1.3083  1.1226  0.6760
 2442SOL    HW217257   8.723  10.445   3.432  0.7244  0.5267  0.0722
 2443SOL     OW17258   2.327   0.439   5.264 -0.2088 -0.6069  0.1716
 2443SOL    HW117259   2.341   0.375   5.334 -0.4752  0.4381  1.2017
 2443SOL    HW217260   2.237   0.469   5.276 -0.1053 -0.0713 -0.3469
 2444SOL     OW17261   4.990   3.687  11.667  0.6055 -0.4209  0.7845
 2444SOL    HW117262   4.942   3.690  11.749 -0.5519  2.9718  0.1266
 2444SOL    HW217263   4.925   3.659  11.602  0.2842  1.1360  0.3938
 2445SOL     OW17264   7.545   9.460   4.953 -0.1912 -0.1895  0.2302
 2445SOL    HW117265   7.502   9.436   4.870 -1.3126  0.1814  0.6792
 2445SOL    HW217266   7.531   9.384   5.010  0.3805 -0.3535  0.1537
 2446SOL     OW17267   6.696   8.289   0.603  0.0783 -0.0425 -0.1104
 2446SOL    HW117268   6.683   8.369   0.553 -0.2722  1.4537  2.2162
 2446SOL    HW217269   6.791   8.282   0.613  0.1158  0.0233 -0.4196
 2447SOL     OW17270   1.724   9.442  12.690 -0.6111  0.4154  0.1238
 2447SOL    HW117271   1.640   9.438  12.644  0.1582 -0.4397 -1.2975
 2447SOL    HW217272   1.703   9.418  12.780 -1.8408 -0.2540 -0.3142
 2448SOL     OW17273   7.451   7.123   7.392  0.0930 -0.7597 -0.4482
 2448SOL    HW117274   7.536   7.096   7.357  2.0870  3.4244  0.4765
 2448SOL    HW217275   7.398   7.141   7.314  0.7531 -1.5250 -1.0855
 2449SOL     OW17276   0.578   0.341   6.463  0.3530 -0.4352 -0.3160
 2449SOL    HW117277   0.488   0.308   6.451 -0.1550  0.9193 -0.3447
 2449SOL    HW217278   0.607   0.364   6.375  0.6198 -0.5662 -0.2630
 2450SOL     OW17279   2.265   1.962  12.554 -0.9264  0.5251  0.0085
 2450SOL    HW117280   2.200   1.892  12.541 -1.2380  0.7091  0.5132
 2450SOL    HW217281   2.216   2.031  12.599  0.3046 -0.5952  3.4058
 2451SOL     OW17282   2.086   8.354   3.900  0.7864 -0.0616  0.3156
 2451SOL    HW117283   2.176   8.378   3.923  1.1842 -0.7809 -0.4347
 2451SOL    HW217284   2.095   8.273   3.849 -0.2681 -0.0251  0.0507
 2452SOL     OW17285  10.094   9.245   6.085  0.4933  0.0766 -0.2678
 2452SOL    HW117286  10.078   9.170   6.028 -0.1774 -0.8029  1.0028
 2452SOL    HW217287  10.153   9.210   6.153  1.9257  1.3022 -0.8346
 2453SOL     OW17288   5.815   3.455   8.279  0.2024 -0.3691  0.1262
 2453SOL    HW117289   5.753   3.487   8.213  1.2562  1.4716 -0.0382
 2453SOL    HW217290   5.885   3.413   8.228  0.6243  0.3416  0.1178
 2454SOL     OW17291   5.407   7.187  13.279  0.0248 -0.2736 -0.4856
 2454SOL    HW117292   5.399   7.094  13.258  0.2486 -0.3381 -0.2949
 2454SOL    HW217293   5.431   7.188  13.371  1.3508 -0.0799 -0.8151
 2455SOL     OW17294   8.318   1.692  10.031 -0.5396  0.7042  0.4807
 2455SOL    HW117295   8.225   1.715  10.035 -0.8550 -0.0815 -1.4618
 2455SOL    HW217296   8.355   1.751   9.966  0.0285  0.0772  0.2284
 2456SOL     OW17297   4.831  10.651   2.601  0.3540 -0.2613  0.1420
 2456SOL    HW117298   4.817  10.693   2.685  2.2095  0.2239  0.2652
 2456SOL    HW217299   4.925  10.633   2.599  0.3135 -0.4813 -1.7189
 2457SOL     OW17300   7.343   7.137   6.059  0.7742  0.0435  0.2526
 2457SOL    HW117301   7.415   7.154   5.998  0.2812 -1.2746 -0.7513
 2457SOL    HW217302   7.307   7.053   6.031  0.0575 -0.2559  1.9346
 2458SOL     OW17303  12.035  10.128   3.933 -0.6005 -0.1210 -0.0037
 2458SOL    HW117304  12.038  10.224   3.927  0.5632 -0.1699 -0.4166
 2458SOL    HW217305  12.056  10.110   4.025  5.6185 -0.0936 -0.9943
 2459SOL     OW17306  11.614   6.507   7.390 -0.2775 -0.0882 -0.0509
 2459SOL    HW117307  11.695   6.540   7.429  0.1251  0.2459 -1.1531
 2459SOL    HW217308  11.557   6.490   7.465  0.4487  0.6257  0.6802
 2460SOL     OW17309  11.100  11.646   0.681 -0.1318  0.4897  0.1199
 2460SOL    HW117310  11.155  11.587   0.732 -0.0884  0.1750 -0.2797
 2460SOL    HW217311  11.010  11.624   0.705 -0.0939  0.8586  0.6151
 2461SOL     OW17312   8.392   4.598  12.524 -0.1946  0.5732 -0.2686
 2461SOL    HW117313   8.459   4.555  12.577 -1.0611 -0.0493  0.3408
 2461SOL    HW217314   8.388   4.687  12.557  1.5973  1.1874 -1.5181
 2462SOL     OW17315   8.177   8.865   5.783  0.0391 -0.4885  0.3093
 2462SOL    HW117316   8.262   8.884   5.744 -0.2660  1.4969  0.5205
 2462SOL    HW217317   8.197   8.837   5.872  0.4593  2.1325  1.1428
 2463SOL     OW17318   9.539   3.102  11.957 -0.0071  0.0986  0.3716
 2463SOL    HW117319   9.627   3.131  11.934  0.0703 -0.6448 -0.2966
 2463SOL    HW217320   9.501   3.177  12.004  0.3164  1.1337 -0.9595
 2464SOL     OW17321   5.578   2.066   5.958 -0.1806 -0.2469 -0.3045
 2464SOL    HW117322   5.562   2.133   6.024  1.8018 -0.5285  0.5293
 2464SOL    HW217323   5.569   2.111   5.874  0.9898  1.0295  0.2430
 2465SOL     OW17324   2.392  10.634  11.952 -0.2781  0.1346  0.0951
 2465SOL    HW117325   2.459  10.640  12.020 -0.7884  1.1216  0.5316
 2465SOL    HW217326   2.315  10.599  11.997 -0.4388  0.2137 -0.1179
 2466SOL     OW17327   2.542  11.972   6.021 -0.3067  0.4692  0.3640
 2466SOL    HW117328   2.544  11.995   6.114 -1.2543 -0.6498  0.6837
 2466SOL    HW217329   2.590  12.043   5.978  2.1863 -0.1305  1.9167
 2467SOL     OW17330   4.072   4.641   9.355  0.3444 -0.2075 -0.5911
 2467SOL    HW117331   4.134   4.714   9.362  0.6264 -0.4968  0.0007
 2467SOL    HW217332   4.108   4.573   9.412  1.5040 -1.8644 -3.1629
 2468SOL     OW17333  12.429  11.170   6.325 -0.1417 -0.0221  0.0640
 2468SOL    HW117334  12.504  11.127   6.285  0.8524  0.1603  1.6267
 2468SOL    HW217335  12.357  11.109   6.314  0.0282  0.0664 -2.0329
 2469SOL     OW17336   3.216  10.397   9.438  0.3112 -0.2673 -0.5514
 2469SOL    HW117337   3.273  10.470   9.463  1.2451 -1.0019 -0.5142
 2469SOL    HW217338   3.246  10.371   9.351  0.1721 -0.7947 -0.4460
 2470SOL     OW17339   3.502   6.430   5.128 -0.2932 -0.3871  0.0502
 2470SOL    HW117340   3.461   6.478   5.201  2.7165  0.8915  1.0502
 2470SOL    HW217341   3.596   6.434   5.147  0.6626  0.1481 -3.9999
 2471SOL     OW17342   0.990   1.779   1.249 -0.4626  0.8740  0.2893
 2471SOL    HW117343   0.922   1.822   1.301 -0.6021 -1.5754  2.3755
 2471SOL    HW217344   1.063   1.841   1.247 -0.5158  1.1722  3.3886
 2472SOL     OW17345  10.596   8.145  12.405  0.3009 -0.1725 -0.0283
 2472SOL    HW117346  10.663   8.157  12.473  0.9503  2.3395 -1.0079
 2472SOL    HW217347  10.630   8.074  12.351  0.5638 -1.1147  1.3074
 2473SOL     OW17348   1.939   8.558   9.051 -0.3886  0.0959 -0.0804
 2473SOL    HW117349   1.996   8.509   8.991 -0.8199  0.1299 -0.5212
 2473SOL    HW217350   1.999   8.614   9.099 -0.0771  0.3673 -0.7712
 2474SOL     OW17351   0.224   8.557   0.621 -0.1445  0.2014 -0.5119
 2474SOL    HW117352   0.157   8.502   0.662  0.4908 -0.0642  0.1913
 2474SOL    HW217353   0.179   8.639   0.600 -0.9041 -0.2870 -0.8496
 2475SOL     OW17354  12.481   5.271   4.011 -0.2300  0.6247 -0.5521
 2475SOL    HW117355  12.557   5.313   4.051  1.4025 -1.0198 -1.7618
 2475SOL    HW217356  12.501   5.267   3.918 -1.2878 -0.8360 -0.7565
 2476SOL     OW17357   1.389   1.257   6.145  0.2965 -0.3087  0.5006
 2476SOL    HW117358   1.466   1.242   6.198 -0.7541  1.0687  2.5525
 2476SOL    HW217359   1.369   1.172   6.105  2.0419 -0.9944  1.0300
 2477SOL     OW17360   4.866   2.804   3.078 -0.1725 -0.2731 -0.0288
 2477SOL    HW117361   4.927   2.747   3.124  0.2990  0.3954  0.1847
 2477SOL    HW217362   4.788   2.806   3.133  0.1972  0.1036  0.4862
 2478SOL     OW17363  13.064   6.061  10.034 -0.3015  0.1695 -0.6758
 2478SOL    HW117364  13.143   6.023  10.071 -1.1104 -0.5631  0.3622
 2478SOL    HW217365  13.029   5.994   9.977 -0.6560  0.1205 -0.4096
 2479SOL     OW17366   3.797  10.129   5.682  0.6536  0.5773 -0.2859
 2479SOL    HW117367   3.848  10.174   5.749 -0.9819  0.9850  0.7538
 2479SOL    HW217368   3.800  10.187   5.606  0.8794  1.0916  0.1117
 2480SOL     OW17369   1.123  12.327   0.503 -0.1795  0.3665  0.0897
 2480SOL    HW117370   1.067  12.295   0.433  0.3656 -0.3874 -0.0068
 2480SOL    HW217371   1.086  12.289   0.583 -0.2383  0.4642  0.1096
 2481SOL     OW17372   3.323   2.348   2.299  0.1188 -0.0195 -0.3916
 2481SOL    HW117373   3.349   2.256   2.309  0.9276  0.1855 -0.4624
 2481SOL    HW217374   3.393   2.397   2.342 -0.6879  0.5443  0.3052
 2482SOL     OW17375   9.457   1.103   8.596 -0.3620 -0.0379 -0.0710
 2482SOL    HW117376   9.453   1.092   8.501  1.3249  0.3036 -0.2124
 2482SOL    HW217377   9.370   1.134   8.620 -0.4430  1.0798 -1.6625
 2483SOL     OW17378  11.407  10.193   9.134 -0.9670  0.2494 -0.1716
 2483SOL    HW117379  11.375  10.276   9.171 -0.2036 -0.6988  2.8570
 2483SOL    HW217380  11.356  10.126   9.179  2.3567 -1.1275  1.8964
 2484SOL     OW17381   1.390  10.201   6.839 -0.2272  0.0482 -0.2913
 2484SOL    HW117382   1.366  10.293   6.827 -0.4109 -0.1086 -1.1506
 2484SOL    HW217383   1.475  10.192   6.795 -0.8604 -0.5067 -1.4497
 2485SOL     OW17384   6.748   7.350   7.790 -0.2188 -0.2930  0.0600
 2485SOL    HW117385   6.693   7.276   7.819 -0.8468 -0.8522 -2.3443
 2485SOL    HW217386   6.833   7.311   7.773  0.2212  0.0833  1.2588
 2486SOL     OW17387   3.211   2.559   1.267  0.1971  0.5141 -0.1702
 2486SOL    HW117388   3.135   2.513   1.233  0.2318  0.1652  0.2111
 2486SOL    HW217389   3.253   2.597   1.190 -0.0287  0.2035 -0.4488
 2487SOL     OW17390   1.891   9.356   5.931 -0.2343  0.0466 -0.1875
 2487SOL    HW117391   1.928   9.437   5.898 -0.8111  0.5353  0.3387
 2487SOL    HW217392   1.858   9.311   5.854 -0.9312  0.8414 -0.3658
 2488SOL     OW17393   3.979   9.193   8.526 -0.4853  0.0635  0.2606
 2488SOL    HW117394   3.988   9.105   8.492 -0.5625  0.4260 -0.7344
 2488SOL    HW217395   4.065   9.232   8.514 -0.1699 -0.1844  1.6252
 2489SOL     OW17396   4.132  13.139   2.926  0.2726  0.3899  0.8047
 2489SOL    HW117397   4.153  13.091   3.007  2.6338 -0.3452 -0.1479
 2489SOL    HW217398   4.102  13.072   2.865  0.4264  0.6327  0.4594
 2490SOL     OW17399   9.895  12.477   9.017 -0.1571 -0.2310  0.0371
 2490SOL    HW117400   9.820  12.488   9.076  1.0232  1.0248  1.3919
 2490SOL    HW217401   9.957  12.423   9.065 -0.0777 -1.0733 -0.9794
 2491SOL     OW17402   1.754  11.230   4.702  0.1746 -0.1472  0.2105
 2491SOL    HW117403   1.766  11.197   4.791 -0.6635  0.7898  0.6831
 2491SOL    HW217404   1.662  11.253   4.696 -0.0997 -1.4316 -1.3591
 2492SOL     OW17405   2.560  10.295  11.089  0.3068  0.2167  0.0712
 2492SOL    HW117406   2.506  10.368  11.060 -0.0839  0.4737  1.3553
 2492SOL    HW217407   2.639  10.300  11.035 -1.0877 -0.4180 -2.1132
 2493SOL     OW17408   0.675   2.617   5.176  0.4846  0.4849  0.5268
 2493SOL    HW117409   0.770   2.620   5.174  0.6260 -0.5211  2.6768
 2493SOL    HW217410   0.651   2.654   5.261 -1.1143  1.3842 -0.2528
 2494SOL     OW17411   8.931  11.957  10.440 -0.2034 -0.0834 -0.3608
 2494SOL    HW117412   8.864  12.024  10.445  0.8823  1.0914 -0.9258
 2494SOL    HW217413   8.984  11.981  10.364  1.9024  0.0640  1.0557
 2495SOL     OW17414   5.660   0.797  11.737 -0.0826 -0.5076  0.3982
 2495SOL    HW117415   5.652   0.744  11.657 -0.3949  1.0250 -0.6267
 2495SOL    HW217416   5.753   0.795  11.757  0.0136 -0.8626 -0.0501
 2496SOL     OW17417   4.168  11.170   8.807 -0.1530  0.1141  0.0080
 2496SOL    HW117418   4.174  11.244   8.747 -0.7214  0.2001  0.0474
 2496SOL    HW217419   4.114  11.203   8.879 -1.1404 -0.6049 -0.3905
 2497SOL     OW17420   0.363   7.257   4.586 -0.4032  0.1468 -0.1541
 2497SOL    HW117421   0.400   7.189   4.643 -1.2547 -0.5290 -0.3927
 2497SOL    HW217422   0.292   7.296   4.637 -2.7713 -2.0573 -1.5115
 2498SOL     OW17423  12.831   7.438   2.297 -0.1341  0.7124 -0.2787
 2498SOL    HW117424  12.884   7.439   2.217 -1.2699  0.7090 -1.0685
 2498SOL    HW217425  12.894   7.434   2.368  0.9062 -1.5403 -1.2276
 2499SOL     OW17426  13.204   4.101   0.799  0.1278  0.2095 -0.0528
 2499SOL    HW117427  13.286   4.059   0.826 -0.5374 -0.6974  0.6394
 2499SOL    HW217428  13.230   4.163   0.731  1.2204 -1.0126 -0.8081
 2500SOL     OW17429   2.792   9.696   7.804  0.2393  0.3015 -0.2729
 2500SOL    HW117430   2.867   9.658   7.759 -0.4815 -0.0631 -1.2155
 2500SOL    HW217431   2.721   9.633   7.790 -0.2586  0.6673  0.5407
 2501SOL     OW17432   6.526   3.733   2.859  0.9982 -0.2702  0.3422
 2501SOL    HW117433   6.545   3.682   2.780  0.4730 -1.8551  1.2044
 2501SOL    HW217434   6.446   3.781   2.837  0.6210 -1.0179  0.0423
 2502SOL     OW17435  12.259  10.148   8.767 -0.0814  0.4566  0.4490
 2502SOL    HW117436  12.186  10.150   8.829 -2.2903  1.6837 -1.9778
 2502SOL    HW217437  12.273  10.240   8.743  0.9537  0.0564 -0.6046
 2503SOL     OW17438  11.538   6.771   9.169 -0.6918  0.1085  0.2982
 2503SOL    HW117439  11.517   6.733   9.254 -1.0224  1.2883  0.7694
 2503SOL    HW217440  11.588   6.850   9.190 -1.0873  0.6076 -0.5804
 2504SOL     OW17441  11.969  11.137  12.275 -0.0223  0.2454  0.9783
 2504SOL    HW117442  12.047  11.187  12.251  1.0152 -0.5424  2.5431
 2504SOL    HW217443  11.938  11.179  12.355 -0.3510 -0.3322  1.1594
 2505SOL     OW17444  11.090   8.285   5.870  0.0957 -0.1434  0.1679
 2505SOL    HW117445  11.102   8.194   5.845 -1.2053 -0.4794  0.6600
 2505SOL    HW217446  11.008   8.285   5.919 -0.4255  1.4401 -0.6343
 2506SOL     OW17447  11.654   2.677   4.763  0.3954  0.0671  0.3380
 2506SOL    HW117448  11.671   2.584   4.773  1.8545  0.4180  1.6837
 2506SOL    HW217449  11.742   2.717   4.761 -0.1922  1.4019 -0.3022
 2507SOL     OW17450  12.835   6.660  13.195 -0.2927 -0.0452  0.0990
 2507SOL    HW117451  12.777   6.607  13.141 -0.6451 -0.0936  0.5226
 2507SOL    HW217452  12.877   6.720  13.134 -1.8189  0.9331 -0.0350
 2508SOL     OW17453   3.654   1.376  12.307  0.0405  0.4821 -0.1573
 2508SOL    HW117454   3.628   1.416  12.224  0.7855 -0.8562 -1.0652
 2508SOL    HW217455   3.707   1.444  12.350 -3.9389  2.9942  1.3966
 2509SOL     OW17456   3.182   6.670   9.683 -0.2677  0.4332  0.1670
 2509SOL    HW117457   3.128   6.598   9.715  1.8026 -1.4444 -0.2329
 2509SOL    HW217458   3.169   6.669   9.588  0.5443 -0.1522  0.0481
 2510SOL     OW17459   7.691  11.489   9.971  0.1269  0.2769  0.1676
 2510SOL    HW117460   7.690  11.407  10.022  2.0271 -0.9593 -1.6145
 2510SOL    HW217461   7.601  11.521   9.976 -0.1148 -0.5516  3.0162
 2511SOL     OW17462   4.936   3.480  13.189 -0.0408  0.2529  0.9225
 2511SOL    HW117463   4.867   3.532  13.230 -0.1370  1.6329 -0.8540
 2511SOL    HW217464   4.978   3.541  13.128  0.5099 -1.5009 -0.5213
 2512SOL     OW17465   6.026  10.677  11.348  0.5661 -0.2398 -0.4499
 2512SOL    HW117466   6.116  10.710  11.356  0.6984 -0.8561  0.8783
 2512SOL    HW217467   5.990  10.723  11.272  1.4665  1.2331 -0.0245
 2513SOL     OW17468   0.654   1.708   1.959  0.4584  0.4609  0.3014
 2513SOL    HW117469   0.728   1.671   2.007  2.1375  1.3753 -1.4104
 2513SOL    HW217470   0.664   1.674   1.870 -0.8088  1.1576 -0.1342
 2514SOL     OW17471   2.888   3.946   9.888 -0.3235  0.0069 -0.4212
 2514SOL    HW117472   2.915   3.860   9.856  0.7626 -0.0052  0.4931
 2514SOL    HW217473   2.969   3.997   9.890 -0.5746  0.3697  1.1345
 2515SOL     OW17474   1.484   4.459   7.730 -0.3953  0.3242 -0.0280
 2515SOL    HW117475   1.532   4.381   7.757 -0.2263  0.8828  1.3404
 2515SOL    HW217476   1.486   4.456   7.634  1.1133 -0.4396 -0.0064
 2516SOL     OW17477   3.965   9.761   7.293  0.6642 -0.4887  0.1347
 2516SOL    HW117478   3.991   9.772   7.384 -1.8611  0.3895  0.8380
 2516SOL    HW217479   4.028   9.813   7.243  0.9684  0.5618  1.5606
 2517SOL     OW17480   1.173   8.037  12.301 -0.0314  0.3651 -0.1896
 2517SOL    HW117481   1.194   8.020  12.209 -0.0427 -0.0040 -0.1246
 2517SOL    HW217482   1.099   8.098  12.297  0.0809  0.4876 -0.4245
 2518SOL     OW17483   0.919   7.707   1.135  0.3632  0.2629 -0.1917
 2518SOL    HW117484   0.855   7.776   1.151  0.0678 -0.5039  2.5058
 2518SOL    HW217485   0.867   7.627   1.132  0.8594 -0.0249 -1.6773
 2519SOL     OW17486  12.189   9.625  11.133  0.3986  0.1264  0.2462
 2519SOL    HW117487  12.118   9.564  11.111  0.6257  0.2228 -0.8257
 2519SOL    HW217488  12.213   9.603  11.223 -1.2218  0.3169  0.7487
 2520SOL     OW17489  12.170   6.998   0.822 -0.0005 -0.5461 -0.1416
 2520SOL    HW117490  12.125   7.057   0.761 -0.5733 -1.0992 -0.2664
 2520SOL    HW217491  12.125   6.914   0.811 -0.6925 -0.4544  1.6696
 2521SOL     OW17492   5.448   9.230   7.154 -0.1017  0.4794  0.0601
 2521SOL    HW117493   5.408   9.185   7.228 -1.5091  1.7670  0.1564
 2521SOL    HW217494   5.395   9.204   7.078 -1.1975  2.1605  0.1768
 2522SOL     OW17495  11.559   8.168   2.625  0.1651 -0.1831 -0.7697
 2522SOL    HW117496  11.535   8.084   2.587 -1.0041 -1.0420  1.6323
 2522SOL    HW217497  11.487   8.189   2.685  1.2977  1.6201  0.0669
 2523SOL     OW17498   4.585  11.983   1.924 -0.4930 -0.1803  0.5260
 2523SOL    HW117499   4.577  11.981   2.020 -1.6596 -0.0515  0.4432
 2523SOL    HW217500   4.665  12.033   1.908 -0.8280  0.6774  1.4243
 2524SOL     OW17501   1.347   3.607   2.168  0.1673 -0.2026 -0.0876
 2524SOL    HW117502   1.411   3.610   2.097  0.1371 -0.7355 -0.1463
 2524SOL    HW217503   1.345   3.696   2.204  0.0833  0.1025 -0.8417
 2525SOL     OW17504   5.404   9.673   3.185  0.0755  0.0704  0.2165
 2525SOL    HW117505   5.391   9.587   3.226  1.8633  0.3849  1.5974
 2525SOL    HW217506   5.375   9.735   3.252 -2.2318  0.6251 -1.1657
 2526SOL     OW17507   4.097   3.060   7.529  0.6161 -0.2824 -0.1783
 2526SOL    HW117508   4.054   3.023   7.605  0.1242 -1.8073 -1.1667
 2526SOL    HW217509   4.124   3.148   7.557 -1.0107 -0.1816  1.2110
 2527SOL     OW17510   5.190   4.820  11.592  0.2048  0.7417  0.0485
 2527SOL    HW117511   5.112   4.791  11.547  0.6482 -0.6405  0.1374
 2527SOL    HW217512   5.163   4.829  11.684  0.3392 -0.5681  0.2332
 2528SOL     OW17513   2.505   7.508  10.015  0.3403 -0.0909 -0.9167
 2528SOL    HW117514   2.566   7.581  10.005  0.6858 -0.1629  0.4138
 2528SOL    HW217515   2.438   7.540  10.076  0.3587 -0.7921 -0.5110
 2529SOL     OW17516  11.620  12.633   9.714 -0.2802 -0.6379  0.1376
 2529SOL    HW117517  11.612  12.695   9.787 -0.5088 -0.5418  0.0328
 2529SOL    HW217518  11.530  12.618   9.686 -0.1782 -0.4962 -0.2736
 2530SOL     OW17519  10.327   6.076   2.719 -0.5408  0.3741  0.4179
 2530SOL    HW117520  10.256   6.094   2.658 -1.0328 -0.5339  0.7100
 2530SOL    HW217521  10.299   5.998   2.766  0.3825  0.3581  0.9600
 2531SOL     OW17522   7.385   8.009   3.476 -0.6387 -0.5636 -0.2893
 2531SOL    HW117523   7.313   7.954   3.447  0.0974 -1.2506 -0.8433
 2531SOL    HW217524   7.423   8.044   3.396 -1.7494  1.6580  0.0755
 2532SOL     OW17525   0.705   9.865   1.155 -0.0146  0.3431 -0.4825
 2532SOL    HW117526   0.755   9.936   1.114  0.4725  0.1599 -0.2066
 2532SOL    HW217527   0.733   9.864   1.246 -0.6221  0.3241 -0.2900
 2533SOL     OW17528   2.793  11.814  11.616 -0.3326  0.0584 -0.3086
 2533SOL    HW117529   2.729  11.743  11.627 -1.3867  0.7150 -1.8059
 2533SOL    HW217530   2.786  11.838  11.524 -0.1029  2.2024  0.1777
 2534SOL     OW17531   8.368   5.558  12.683 -0.0023 -0.1794  0.7287
 2534SOL    HW117532   8.429   5.569  12.610  0.6072  0.6642  1.3440
 2534SOL    HW217533   8.408   5.490  12.737  0.7402  0.8366  1.4715
 2535SOL     OW17534  12.573  12.732  11.525 -0.2031 -0.0430  0.0371
 2535SOL    HW117535  12.491  12.729  11.476 -0.0469 -0.4864 -0.2158
 2535SOL    HW217536  12.632  12.675  11.474 -0.1471 -0.8171  0.9425
 2536SOL     OW17537   4.297   9.333  10.879 -0.0781 -0.1239  0.4377
 2536SOL    HW117538   4.223   9.300  10.829  0.9005 -2.1763  0.2282
 2536SOL    HW217539   4.321   9.415  10.836 -0.7214 -0.6602 -1.0076
 2537SOL     OW17540   9.664   6.143   3.686 -0.6358  0.2253  0.5936
 2537SOL    HW117541   9.623   6.056   3.684 -1.4504  0.6085 -0.1972
 2537SOL    HW217542   9.724   6.142   3.612  0.8196 -0.3199  1.7271
 2538SOL     OW17543   8.411   9.345  11.242 -0.2490  0.3100  0.3065
 2538SOL    HW117544   8.318   9.364  11.233  0.1842  2.1837 -0.6308
 2538SOL    HW217545   8.445   9.345  11.152  0.7818  0.3287  0.6807
 2539SOL     OW17546   3.832   7.498  12.923  0.5682 -0.0431 -0.0195
 2539SOL    HW117547   3.816   7.528  13.012  0.9664  0.7825 -0.2148
 2539SOL    HW217548   3.922   7.526  12.904  0.6427 -0.6009 -0.5208
 2540SOL     OW17549   6.657   6.390   3.049  0.5026  0.0271  0.2057
 2540SOL    HW117550   6.603   6.465   3.074  0.1959 -0.5143  1.2395
 2540SOL    HW217551   6.623   6.362   2.964  0.4098  0.8527 -0.0351
 2541SOL     OW17552   7.393   2.461   2.997  0.1459 -0.4831  0.4682
 2541SOL    HW117553   7.448   2.388   2.968 -0.3024 -1.0523  1.0174
 2541SOL    HW217554   7.450   2.538   2.992  1.2322 -1.1665  1.6930
 2542SOL     OW17555   5.991   3.972   4.612  0.0401  0.9375 -0.5020
 2542SOL    HW117556   5.953   4.038   4.554  1.6469  0.4552 -2.1852
 2542SOL    HW217557   6.037   4.022   4.678 -1.5738  1.4954  0.2569
 2543SOL     OW17558   2.268   7.402  10.781 -0.5745 -0.3434  0.2312
 2543SOL    HW117559   2.299   7.315  10.754  0.9229  0.6982 -1.6530
 2543SOL    HW217560   2.348   7.449  10.804 -1.2698  0.8608  0.2332
 2544SOL     OW17561   5.980  10.110   9.809 -0.5518  0.0216 -0.7384
 2544SOL    HW117562   5.932  10.128   9.890 -2.9370 -1.6387 -1.6666
 2544SOL    HW217563   6.023  10.193   9.788 -0.4078  0.6925  1.8252
 2545SOL     OW17564  10.291  10.431   9.698  0.1784 -0.1299 -0.0882
 2545SOL    HW117565  10.244  10.348   9.689 -0.5881  0.4766 -2.0327
 2545SOL    HW217566  10.230  10.497   9.666  0.6076  1.2904  1.8622
 2546SOL     OW17567   5.122   2.771   7.306 -0.0718 -0.3280  0.2328
 2546SOL    HW117568   5.168   2.764   7.390 -1.3199  0.3665  0.9922
 2546SOL    HW217569   5.193   2.782   7.242  0.8492  3.5728  1.6446
 2547SOL     OW17570   2.744   1.976  10.278 -0.3919 -0.2258  0.0495
 2547SOL    HW117571   2.712   2.044  10.337  1.0578  1.7366 -1.3191
 2547SOL    HW217572   2.675   1.968  10.212 -1.1072 -1.0140  0.8505
 2548SOL     OW17573   7.287   9.626  12.654 -0.5761 -0.0372  0.2474
 2548SOL    HW117574   7.296   9.654  12.745 -2.9518  1.7825  0.0130
 2548SOL    HW217575   7.253   9.536  12.660  0.9991 -0.6085  1.0939
 2549SOL     OW17576  11.703  11.653   5.818 -0.4286 -0.0829 -0.0830
 2549SOL    HW117577  11.675  11.570   5.780 -1.3995  0.9322 -1.7006
 2549SOL    HW217578  11.622  11.696   5.845  0.1640 -0.3501  2.4002
 2550SOL     OW17579   2.943   5.435   2.885 -0.4903 -0.4552 -0.0429
 2550SOL    HW117580   3.025   5.433   2.836 -0.2169  1.9825  0.1946
 2550SOL    HW217581   2.876   5.447   2.817 -0.3594  0.3257 -0.0449
 2551SOL     OW17582   6.708   6.668  10.130  0.0912 -0.3273 -0.2476
 2551SOL    HW117583   6.746   6.596  10.182 -2.6491 -0.9083  1.0980
 2551SOL    HW217584   6.664   6.624  10.057  0.0338  0.1640 -0.5145
 2552SOL     OW17585   9.680  10.827   2.495  0.0012  0.2007  0.3797
 2552SOL    HW117586   9.625  10.782   2.559 -1.3520  0.4088 -0.6028
 2552SOL    HW217587   9.680  10.919   2.522 -1.5764  0.5083 -0.5668
 2553SOL     OW17588   5.776   1.353   3.309  0.2678  0.0245 -0.7476
 2553SOL    HW117589   5.684   1.336   3.291  0.1500 -0.1012 -0.0454
 2553SOL    HW217590   5.777   1.390   3.397  0.7822  1.0507 -1.1637
 2554SOL     OW17591  12.988   9.653   2.660  0.4223  0.1613 -0.6734
 2554SOL    HW117592  12.991   9.733   2.607 -1.6421  0.9907  0.3392
 2554SOL    HW217593  12.980   9.684   2.750 -0.2041 -1.1828 -0.2341
 2555SOL     OW17594   3.599   2.989   1.539 -0.5591 -0.4617 -0.5178
 2555SOL    HW117595   3.646   3.035   1.470  0.2987  0.8913  0.9115
 2555SOL    HW217596   3.531   3.050   1.567 -0.1746 -0.5142  0.5853
 2556SOL     OW17597  10.482   0.476   5.019 -0.1973 -0.7926  0.5887
 2556SOL    HW117598  10.440   0.406   5.070  0.0907 -0.9995  0.5461
 2556SOL    HW217599  10.495   0.437   4.932 -1.5834 -0.1134  0.0469
 2557SOL     OW17600   5.344   0.628   8.179  0.8731 -0.3221  0.2825
 2557SOL    HW117601   5.253   0.605   8.199  0.6657 -0.8032 -1.1090
 2557SOL    HW217602   5.344   0.724   8.176 -0.0948 -0.3356 -1.7506
 2558SOL     OW17603  10.201   7.639   6.860 -0.3429 -0.3892 -0.3026
 2558SOL    HW117604  10.106   7.646   6.849 -0.4725  0.4431  1.1061
 2558SOL    HW217605  10.222   7.702   6.929  1.0252 -1.7253  0.5644
 2559SOL     OW17606   6.619   8.686   7.642  0.8450 -0.4845  0.4100
 2559SOL    HW117607   6.574   8.713   7.562  0.0412 -1.5460  0.4866
 2559SOL    HW217608   6.668   8.764   7.669  1.2240 -0.1422 -1.1656
 2560SOL     OW17609  10.793   7.007   9.874 -0.1852 -0.0003  0.0209
 2560SOL    HW117610  10.873   7.037   9.916  0.4426 -0.4336 -0.8380
 2560SOL    HW217611  10.802   6.912   9.871 -0.5830 -0.0255 -0.3890
 2561SOL     OW17612  11.756   0.788  12.057  0.1494 -0.2759  0.3893
 2561SOL    HW117613  11.717   0.703  12.077 -0.2515 -0.0356  0.6408
 2561SOL    HW217614  11.829   0.768  11.999 -0.8901 -0.6518 -0.8187
 2562SOL     OW17615   1.390   9.381   1.199  0.1544  0.1319 -1.0455
 2562SOL    HW117616   1.425   9.328   1.127  2.5826  1.2632 -0.8224
 2562SOL    HW217617   1.307   9.415   1.165  1.0480  0.3540 -3.2084
 2563SOL     OW17618  13.167   6.051  10.941  0.0158  0.1865 -0.5077
 2563SOL    HW117619  13.108   5.982  10.970 -0.7712  0.8420 -0.5104
 2563SOL    HW217620  13.158   6.051  10.846 -0.8121  0.9892 -0.4442
 2564SOL     OW17621   7.794   5.841   4.587  0.2225  0.7641  0.4149
 2564SOL    HW117622   7.887   5.822   4.596  0.1565 -0.3777 -0.9455
 2564SOL    HW217623   7.787   5.892   4.506 -0.4444 -0.3067 -0.2262
 2565SOL     OW17624   0.790   7.308  10.644  0.3674 -0.1860 -0.1826
 2565SOL    HW117625   0.827   7.299  10.556  0.7886  0.0074 -0.0304
 2565SOL    HW217626   0.862   7.346  10.696 -0.4558  1.4680 -0.1786
 2566SOL     OW17627   9.749  11.869   5.918  0.7978 -0.1027 -0.4732
 2566SOL    HW117628   9.657  11.843   5.922  0.9885 -0.9786 -1.2653
 2566SOL    HW217629   9.791  11.799   5.868  2.0307 -0.0788  0.4766
 2567SOL     OW17630   2.613  10.876   5.464 -0.0929  0.4505  0.2968
 2567SOL    HW117631   2.640  10.788   5.492 -0.2170  0.3310  0.0420
 2567SOL    HW217632   2.694  10.920   5.441  0.0083  0.5382  0.8123
 2568SOL     OW17633  11.746  10.861   9.859  0.1144  0.0611 -0.5302
 2568SOL    HW117634  11.687  10.876   9.933  0.6143 -0.1182 -0.0887
 2568SOL    HW217635  11.777  10.949   9.835 -0.7973  0.2208 -1.1652
 2569SOL     OW17636   4.577   9.840   7.628 -0.3230 -0.0931  0.2342
 2569SOL    HW117637   4.533   9.925   7.616 -1.5943 -0.8561 -0.8381
 2569SOL    HW217638   4.670   9.861   7.628 -0.6306  1.4033  0.8862
 2570SOL     OW17639   1.420  12.091   6.155 -0.1344  0.1985 -0.4994
 2570SOL    HW117640   1.365  12.082   6.077 -0.0392  3.4701 -1.1250
 2570SOL    HW217641   1.435  12.186   6.162  2.8740 -0.2766  1.4179
 2571SOL     OW17642   5.843   9.562   9.438  0.3094  0.3489 -0.0142
 2571SOL    HW117643   5.836   9.590   9.529  0.8672 -0.2480  0.2177
 2571SOL    HW217644   5.752   9.563   9.407 -0.3013 -2.1093  1.3885
 2572SOL     OW17645   1.257   2.263  12.479  0.3707 -0.3383  0.4925
 2572SOL    HW117646   1.185   2.200  12.491  1.1188 -1.5197 -0.7999
 2572SOL    HW217647   1.284   2.286  12.567 -0.8420 -0.7726  0.9982
 2573SOL     OW17648   8.267  12.188  10.637  0.8332  0.3237  0.0097
 2573SOL    HW117649   8.360  12.164  10.637  0.9367  0.6911  0.7377
 2573SOL    HW217650   8.257  12.248  10.563  1.6001  1.8262  1.0757
 2574SOL     OW17651  12.379   8.838  12.177 -0.3188  0.6648 -0.6713
 2574SOL    HW117652  12.433   8.878  12.109  2.1360  0.2278  0.8964
 2574SOL    HW217653  12.402   8.746  12.175 -1.5498  0.3285 -0.3744
 2575SOL     OW17654  12.336   3.052   7.574  0.1567 -0.1146 -0.4713
 2575SOL    HW117655  12.426   3.082   7.571 -0.2921  1.3917  0.2079
 2575SOL    HW217656  12.286   3.119   7.527 -0.5596 -1.1722 -1.2770
 2576SOL     OW17657   1.900   0.548   6.914  0.3049  0.4845 -0.5396
 2576SOL    HW117658   1.971   0.578   6.970 -1.1001  0.0554  1.5800
 2576SOL    HW217659   1.847   0.626   6.898 -0.9481  0.0978  1.3479
 2577SOL     OW17660   1.056   1.569   9.947 -0.1062  0.1264  0.3069
 2577SOL    HW117661   1.079   1.572  10.040  0.8513  1.2495  0.0519
 2577SOL    HW217662   0.975   1.518   9.944  0.0755 -0.2765  1.7058
 2578SOL     OW17663  13.047  13.143   8.243  0.9262 -0.6911  0.2141
 2578SOL    HW117664  13.008  13.060   8.272 -0.1736  0.1464  1.2637
 2578SOL    HW217665  13.004  13.209   8.298 -0.7615  0.9702 -2.8591
 2579SOL     OW17666  11.431   2.068   9.878 -0.2985 -0.3307 -0.1910
 2579SOL    HW117667  11.439   2.057   9.783 -0.8239 -1.3112 -0.1398
 2579SOL    HW217668  11.501   2.013   9.914 -0.3951 -0.3315 -0.0066
 2580SOL     OW17669   3.358  12.268   3.162 -0.0903  0.5994  0.2848
 2580SOL    HW117670   3.449  12.285   3.136 -0.7590  1.1739 -1.8309
 2580SOL    HW217671   3.324  12.354   3.186 -0.5536  0.6628 -0.5742
 2581SOL     OW17672   4.551   0.762   2.692  0.2780  0.1865  0.2841
 2581SOL    HW117673   4.487   0.831   2.675  0.0334 -0.0630  0.1732
 2581SOL    HW217674   4.636   0.806   2.686  0.0873  0.9680  2.4344
 2582SOL     OW17675   6.478   3.010  11.347 -0.2092 -0.1494  0.1304
 2582SOL    HW117676   6.446   3.072  11.411  1.5616  0.7638  0.1992
 2582SOL    HW217677   6.442   2.925  11.374  0.3156  0.2478  2.2097
 2583SOL     OW17678  13.084   6.426  12.469  0.2270 -0.1094 -0.0246
 2583SOL    HW117679  13.086   6.341  12.425  0.3783 -0.2158  0.1826
 2583SOL    HW217680  13.147   6.417  12.541 -1.3023 -0.5274  1.3150
 2584SOL     OW17681   4.780   3.442  12.589 -0.1642  0.0140 -0.1126
 2584SOL    HW117682   4.795   3.348  12.585 -1.2314 -0.2887  1.7540
 2584SOL    HW217683   4.785   3.463  12.683 -0.6726  1.6789 -0.4281
 2585SOL     OW17684   7.885   9.130   3.849 -0.0523 -0.1949 -0.4101
 2585SOL    HW117685   7.895   9.210   3.901 -2.0102 -0.3065  0.2482
 2585SOL    HW217686   7.893   9.059   3.912 -3.2568 -0.3116  0.0291
 2586SOL     OW17687   3.103   1.237  12.774 -0.8244 -0.0963 -0.2309
 2586SOL    HW117688   3.014   1.201  12.775 -1.3034  1.0616  0.8080
 2586SOL    HW217689   3.100   1.310  12.836  0.7331  0.2579 -0.5421
 2587SOL     OW17690   8.534   7.664  12.093 -0.3048 -0.6826 -0.1911
 2587SOL    HW117691   8.609   7.682  12.037 -0.4034 -1.4975 -0.5935
 2587SOL    HW217692   8.465   7.636  12.034 -0.1216 -2.4832  0.3873
 2588SOL     OW17693  11.947   1.475   9.420  0.1068 -0.1772 -0.3100
 2588SOL    HW117694  11.923   1.382   9.416 -1.1455  0.1531 -0.8535
 2588SOL    HW217695  11.924   1.502   9.509  0.9683 -0.4924  0.0272
 2589SOL     OW17696   3.709   8.532   2.934  0.0821  0.2925  0.2826
 2589SOL    HW117697   3.730   8.569   2.848 -2.5758  1.2459 -0.0775
 2589SOL    HW217698   3.659   8.602   2.978  1.4029 -0.1478  2.6588
 2590SOL     OW17699   7.040   4.387   9.192  0.5072 -0.5257  0.1497
 2590SOL    HW117700   6.947   4.407   9.186  0.5993 -0.3191 -0.7285
 2590SOL    HW217701   7.054   4.366   9.284  0.3175  3.0891  1.1580
 2591SOL     OW17702  10.423   2.118  11.170  0.1127 -0.0373  0.0741
 2591SOL    HW117703  10.473   2.181  11.223  0.9895 -0.0432 -0.7178
 2591SOL    HW217704  10.486   2.086  11.106 -0.9496  0.0533 -1.0525
 2592SOL     OW17705  11.852   3.937   9.141 -0.4523  0.1229 -0.9327
 2592SOL    HW117706  11.779   3.891   9.184  0.4862 -0.8634 -0.3601
 2592SOL    HW217707  11.828   3.938   9.048 -1.0038 -0.5484 -0.8058
 2593SOL     OW17708   9.180  11.130   1.157  0.4730 -0.1156 -0.2806
 2593SOL    HW117709   9.235  11.066   1.202  0.2220 -0.2588 -0.1789
 2593SOL    HW217710   9.090  11.107   1.182  0.3401 -0.1132 -0.7516
 2594SOL     OW17711   8.773   9.321   9.819 -0.2881  0.5038 -0.2586
 2594SOL    HW117712   8.820   9.265   9.881 -0.1273  0.1439 -0.6982
 2594SOL    HW217713   8.743   9.395   9.871 -0.0218  0.2812  0.2168
 2595SOL     OW17714   7.704   9.189   7.912 -0.0979 -0.8480  0.0634
 2595SOL    HW117715   7.647   9.193   7.989 -2.4209 -0.1665 -1.5785
 2595SOL    HW217716   7.683   9.105   7.872 -1.0027 -0.0192 -1.2742
 2596SOL     OW17717   7.678   6.853   9.004 -0.6061 -0.0605 -0.3525
 2596SOL    HW117718   7.601   6.842   8.949  0.2462  1.3326 -1.9122
 2596SOL    HW217719   7.752   6.832   8.947  0.2321 -0.3803  0.8109
 2597SOL     OW17720   4.870   9.638   6.160 -0.0846 -0.7416 -0.0067
 2597SOL    HW117721   4.919   9.632   6.242 -0.4190 -0.8000  0.1891
 2597SOL    HW217722   4.857   9.732   6.147  1.2622 -0.6372 -0.7682
 2598SOL     OW17723   3.764   0.199   5.797 -0.5986 -0.5682 -0.0412
 2598SOL    HW117724   3.716   0.166   5.873 -0.1266  0.2833  0.6532
 2598SOL    HW217725   3.849   0.157   5.802  0.7286  1.9973  1.9540
 2599SOL     OW17726   4.387  10.339   4.992 -0.0599  0.6865 -0.0211
 2599SOL    HW117727   4.386  10.433   5.005  0.7917  0.5667  0.9884
 2599SOL    HW217728   4.468  10.321   4.944 -0.4729  0.5088 -0.6788
 2600SOL     OW17729  13.204   6.803   2.818 -0.1318 -0.3594  0.3711
 2600SOL    HW117730  13.138   6.756   2.870  0.6272 -0.9773  0.7937
 2600SOL    HW217731  13.237   6.871   2.876 -3.3009  2.7845 -1.1346
 2601SOL     OW17732   5.599   0.630   8.523 -0.1856  0.4544 -0.6192
 2601SOL    HW117733   5.522   0.675   8.558 -0.5843 -0.4359 -0.2960
 2601SOL    HW217734   5.665   0.639   8.591 -0.9089 -1.1349  0.3513
 2602SOL     OW17735  11.269   6.841   9.452 -0.2386  0.0064 -0.0120
 2602SOL    HW117736  11.348   6.793   9.427  0.6997  1.5549 -0.1378
 2602SOL    HW217737  11.256   6.905   9.382 -0.0898  1.5010  1.2810
 2603SOL     OW17738   4.785  13.084  13.285  0.3347  0.6227 -0.0707
 2603SOL    HW117739   4.741  13.002  13.308  0.8395  0.5991  0.8661
 2603SOL    HW217740   4.745  13.110  13.203 -2.9369  1.6925  1.6990
 2604SOL     OW17741  13.198  10.805   7.137 -0.5044 -0.0437 -0.5137
 2604SOL    HW117742  13.253  10.778   7.064 -0.6024  0.8733 -0.9393
 2604SOL    HW217743  13.222  10.896   7.153 -0.0303 -0.4129  1.0294
 2605SOL     OW17744   4.107  11.650   7.610 -0.5615 -0.7151 -0.7173
 2605SOL    HW117745   4.056  11.713   7.661 -1.4783 -1.8956 -0.1349
 2605SOL    HW217746   4.127  11.696   7.529 -2.1369 -0.0263 -0.7614
 2606SOL     OW17747   3.103   4.278   1.116  0.2949 -0.1748  0.9113
 2606SOL    HW117748   3.090   4.341   1.186  1.1046  0.3601  0.5988
 2606SOL    HW217749   3.067   4.196   1.149  0.1410  0.2141  1.7137
 2607SOL     OW17750  11.401   8.621   2.712  0.0008  0.7070  0.0620
 2607SOL    HW117751  11.437   8.582   2.791  1.7643  1.9502 -0.0633
 2607SOL    HW217752  11.371   8.708   2.740  0.6008  1.1426 -0.6230
 2608SOL     OW17753  11.091  12.163  10.276  0.1173  0.5675  0.1174
 2608SOL    HW117754  11.151  12.126  10.211 -2.5717 -0.0488 -2.2147
 2608SOL    HW217755  11.067  12.089  10.332  1.2901  0.7818  0.9557
 2609SOL     OW17756  10.156  10.694   8.824 -0.3509 -0.2374  0.1517
 2609SOL    HW117757  10.120  10.651   8.901 -0.2729  0.7008  0.7206
 2609SOL    HW217758  10.251  10.689   8.836 -0.2681  2.8099  1.8463
 2610SOL     OW17759   2.659  12.228   7.135  0.4992 -0.6061  0.4135
 2610SOL    HW117760   2.705  12.257   7.056  0.4569  0.0866  0.6411
 2610SOL    HW217761   2.712  12.260   7.208 -0.8486  1.1261  0.6981
 2611SOL     OW17762  12.152   7.071  10.861 -0.0383 -0.1776  0.3469
 2611SOL    HW117763  12.085   7.121  10.909 -0.4655 -1.7459  1.4721
 2611SOL    HW217764  12.112   7.053  10.776 -0.5251 -0.0025  0.5339
 2612SOL     OW17765  10.357   1.566   1.570  0.4320  0.0332 -0.3624
 2612SOL    HW117766  10.365   1.597   1.660 -0.0339  3.5497 -1.3954
 2612SOL    HW217767  10.440   1.591   1.529 -0.9668  2.5697 -1.9008
 2613SOL     OW17768   8.033   7.702   6.552  0.0816  0.3392 -0.4537
 2613SOL    HW117769   7.994   7.787   6.532  0.5707  0.5956 -0.3264
 2613SOL    HW217770   7.964   7.656   6.601  0.0722  0.9408  0.1199
 2614SOL     OW17771   8.883  12.204   5.239  0.4832  0.1905  0.2132
 2614SOL    HW117772   8.843  12.290   5.233 -0.0644 -0.0551  0.3004
 2614SOL    HW217773   8.927  12.192   5.155 -1.1581 -0.2768 -0.6354
 2615SOL     OW17774   8.728  11.665  11.594  0.3914 -0.1265 -0.4852
 2615SOL    HW117775   8.818  11.633  11.585  0.5541  0.5280 -1.3715
 2615SOL    HW217776   8.728  11.750  11.550 -0.9211 -0.6351 -1.5686
 2616SOL     OW17777  13.057   7.700   3.745 -0.4174 -0.2390 -0.1585
 2616SOL    HW117778  13.042   7.718   3.652 -1.0450  0.4581  0.0758
 2616SOL    HW217779  13.153   7.692   3.753 -0.2873  0.7035 -0.6807
 2617SOL     OW17780   2.645   7.145   2.572  0.0913  0.0289 -0.2702
 2617SOL    HW117781   2.668   7.076   2.511 -0.6913  0.2455 -0.8138
 2617SOL    HW217782   2.686   7.224   2.536  0.3118  0.0102 -0.0711
 2618SOL     OW17783   9.450  11.874   4.122 -0.2742  0.6129 -0.0165
 2618SOL    HW117784   9.468  11.899   4.031 -0.8278  0.6981 -0.1037
 2618SOL    HW217785   9.355  11.880   4.130 -0.3037 -0.2236  0.3294
 2619SOL     OW17786   3.551   4.116   1.250  0.0019 -0.0537 -0.7713
 2619SOL    HW117787   3.496   4.185   1.214 -1.7769 -1.1818 -0.3376
 2619SOL    HW217788   3.501   4.082   1.325  1.9540 -0.1645  0.5625
 2620SOL     OW17789   7.502  10.628   1.153 -0.0962 -0.2278  0.5344
 2620SOL    HW117790   7.477  10.717   1.128  1.5146  0.0814 -0.1394
 2620SOL    HW217791   7.518  10.634   1.248 -2.4907 -0.4631  0.9972
 2621SOL     OW17792   6.508   4.846   4.222 -0.2400  0.2945 -0.1377
 2621SOL    HW117793   6.560   4.788   4.277 -0.1384 -0.5613 -1.1072
 2621SOL    HW217794   6.551   4.843   4.136 -1.8246 -0.3616 -0.9391
 2622SOL     OW17795   2.121   3.149   0.206 -0.2747  0.7092  0.3217
 2622SOL    HW117796   2.164   3.065   0.221 -0.8811  0.1049 -1.0521
 2622SOL    HW217797   2.187   3.215   0.226  0.1232 -0.0817  1.6872
 2623SOL     OW17798  11.501   2.738   8.492 -0.1688 -0.4355 -0.0515
 2623SOL    HW117799  11.497   2.689   8.410 -0.5667 -0.9616  0.2685
 2623SOL    HW217800  11.525   2.827   8.467 -2.5243  0.0160 -0.9964
 2624SOL     OW17801  10.556   3.205   0.577 -0.0184  0.0873  0.1340
 2624SOL    HW117802  10.557   3.202   0.481 -0.1501 -0.0125  0.1355
 2624SOL    HW217803  10.463   3.199   0.600 -0.1281  1.5988  0.2204
 2625SOL     OW17804  11.391   3.806   6.257 -0.1217 -0.3442 -0.1343
 2625SOL    HW117805  11.392   3.711   6.246  2.0043 -0.1540 -2.4482
 2625SOL    HW217806  11.477   3.835   6.226 -2.0737  2.6548 -3.5187
 2626SOL     OW17807   2.621   4.293   0.630 -0.0896 -0.2028 -0.6010
 2626SOL    HW117808   2.588   4.274   0.718 -0.4820 -3.4917 -1.3407
 2626SOL    HW217809   2.670   4.375   0.641 -2.0509  0.8001  2.1388
 2627SOL     OW17810   7.751  12.266   2.547 -0.3609  0.4725 -0.0387
 2627SOL    HW117811   7.716  12.335   2.491 -0.7000  0.5125  0.2202
 2627SOL    HW217812   7.710  12.280   2.632 -1.2011 -0.6346 -0.2375
 2628SOL     OW17813  12.341   9.817   8.814  0.0031  0.9851  0.2367
 2628SOL    HW117814  12.371   9.891   8.762  1.1560  0.6840  0.4549
 2628SOL    HW217815  12.347   9.742   8.756 -1.6207  1.1010 -0.1374
 2629SOL     OW17816   9.525   7.576   9.286  0.3622  0.4424  0.2722
 2629SOL    HW117817   9.503   7.647   9.227  2.2726  0.5730 -0.3439
 2629SOL    HW217818   9.440   7.542   9.315 -0.6384  3.3696  1.1374
 2630SOL     OW17819   2.761   3.751   7.945 -0.1477 -0.2391  0.6562
 2630SOL    HW117820   2.733   3.710   8.026  0.5920 -0.3879  0.8471
 2630SOL    HW217821   2.839   3.701   7.919 -0.3278 -0.1431 -0.0986
 2631SOL     OW17822  11.837   6.527   4.117  0.0238 -0.2642  0.1462
 2631SOL    HW117823  11.785   6.555   4.192  1.3808  1.6388  0.4606
 2631SOL    HW217824  11.928   6.533   4.147  0.7516  2.3720 -2.1095
 2632SOL     OW17825  13.238   8.766   6.759  0.1945 -0.4257 -0.5765
 2632SOL    HW117826  13.172   8.699   6.742 -1.7907  1.5114 -0.8002
 2632SOL    HW217827  13.302   8.754   6.689  0.3391 -2.5532 -0.1692
 2633SOL     OW17828  12.307   4.543   1.897 -0.1859 -0.0902  0.4644
 2633SOL    HW117829  12.280   4.524   1.807 -0.3002  0.5064  0.3722
 2633SOL    HW217830  12.224   4.553   1.945 -0.1313 -0.8212  0.7331
 2634SOL     OW17831   8.275   5.628  10.226 -0.0148 -0.3522 -0.3229
 2634SOL    HW117832   8.370   5.627  10.227  0.0524  1.7999  0.1743
 2634SOL    HW217833   8.249   5.606  10.315  0.1467  1.7837  0.3015
 2635SOL     OW17834   0.182   1.387  13.089  0.3365  0.1948  0.8958
 2635SOL    HW117835   0.183   1.373  13.183  0.2736 -0.0668  0.8570
 2635SOL    HW217836   0.128   1.466  13.077 -2.7485 -1.7678  0.8162
 2636SOL     OW17837  12.039  11.724  10.261 -0.2338  0.6450  0.3569
 2636SOL    HW117838  12.003  11.811  10.283  0.5627  1.0578  0.0591
 2636SOL    HW217839  12.117  11.743  10.209 -0.5045 -0.2739 -0.3987
 2637SOL     OW17840   3.219  10.849   6.130 -0.4667  0.0362 -0.1146
 2637SOL    HW117841   3.183  10.936   6.144 -0.4185  0.4169 -2.0492
 2637SOL    HW217842   3.268  10.857   6.048  0.4429 -1.5428  0.2395
 2638SOL     OW17843   3.038   8.722   7.948 -0.3190  0.2540 -0.1375
 2638SOL    HW117844   2.959   8.685   7.988 -0.1732  0.3527  0.2450
 2638SOL    HW217845   3.030   8.701   7.855 -1.1534  0.8927 -0.2237
 2639SOL     OW17846  12.850  11.655   9.590  0.1290  0.1479  0.2661
 2639SOL    HW117847  12.825  11.664   9.499  2.1237  1.6431 -0.2004
 2639SOL    HW217848  12.856  11.744   9.623  1.9243 -0.2173  1.0920
 2640SOL     OW17849   9.249   9.839  10.194 -0.4075  0.0050  0.3125
 2640SOL    HW117850   9.324   9.881  10.235 -0.1465 -0.6674  0.5473
 2640SOL    HW217851   9.229   9.892  10.117  0.0576  0.4087  0.4725
 2641SOL     OW17852   8.359  13.274   0.616 -0.5348 -0.0382 -0.1141
 2641SOL    HW117853   8.402  13.210   0.673 -1.0699  0.4137  0.8108
 2641SOL    HW217854   8.420  13.286   0.543  0.2009 -0.5601  0.4007
 2642SOL     OW17855  10.951   4.031   3.909  0.0226  0.6827 -0.3599
 2642SOL    HW117856  10.956   4.115   3.955 -1.1734  1.2811 -1.2587
 2642SOL    HW217857  10.870   4.036   3.859  1.0067 -0.1281 -2.1416
 2643SOL     OW17858  11.596  12.719   1.160 -0.2004 -0.2148 -0.7494
 2643SOL    HW117859  11.651  12.797   1.152 -0.0654 -0.4115 -1.8173
 2643SOL    HW217860  11.513  12.751   1.195  0.0808  0.2992 -0.5436
 2644SOL     OW17861   9.322   6.565   7.986 -0.2090 -0.5426 -0.0960
 2644SOL    HW117862   9.295   6.532   7.900 -1.6308 -0.7968  0.4306
 2644SOL    HW217863   9.393   6.506   8.013  1.7817  0.8157 -1.9926
 2645SOL     OW17864   3.412   5.117  13.148 -0.0165 -0.1613  0.2860
 2645SOL    HW117865   3.350   5.064  13.097  0.0119 -1.6110  1.6732
 2645SOL    HW217866   3.492   5.065  13.151 -0.1664 -0.3807  2.1562
 2646SOL     OW17867   7.326   8.178   0.981 -0.2742 -0.2548  0.2177
 2646SOL    HW117868   7.260   8.168   0.912 -1.5135  0.6087  1.1986
 2646SOL    HW217869   7.342   8.090   1.013 -0.6563 -0.5213 -0.3153
 2647SOL     OW17870  10.386  12.485  13.144  0.3528  0.1274  0.5175
 2647SOL    HW117871  10.447  12.558  13.150 -0.0620  0.5801 -0.5017
 2647SOL    HW217872  10.438  12.408  13.166  1.5068  0.4112 -1.0277
 2648SOL     OW17873   4.808  10.289  10.515  0.0093 -0.1795 -0.1479
 2648SOL    HW117874   4.807  10.384  10.526 -1.2500 -0.1579 -0.3614
 2648SOL    HW217875   4.882  10.272  10.456  2.2793  0.3471  2.3687
 2649SOL     OW17876  11.394   5.350   0.990 -0.4228 -0.0022 -0.0429
 2649SOL    HW117877  11.350   5.432   1.014  0.1164 -0.4238  2.6472
 2649SOL    HW217878  11.477   5.353   1.038  0.3944 -1.3714 -1.2970
 2650SOL     OW17879   0.100   1.482  10.064 -0.4808  0.3984 -0.3701
 2650SOL    HW117880   0.089   1.398  10.108  0.1950 -0.0100 -0.9736
 2650SOL    HW217881   0.129   1.460   9.976 -0.3711  1.2620 -0.5577
 2651SOL     OW17882  10.430   6.743   7.014 -0.4919  0.0331  0.4320
 2651SOL    HW117883  10.466   6.824   6.979 -0.1908  0.6471  2.0685
 2651SOL    HW217884  10.370   6.712   6.945 -1.0507  1.9285 -0.0152
 2652SOL     OW17885   7.871   4.171  12.830 -0.3465  0.9888  0.1106
 2652SOL    HW117886   7.775   4.173  12.829 -0.3938 -0.2979 -0.9720
 2652SOL    HW217887   7.894   4.137  12.916 -0.8157  2.2183  0.7389
 2653SOL     OW17888   3.032  11.172  11.238 -0.0673  0.1115 -0.0597
 2653SOL    HW117889   2.968  11.156  11.308  0.0472 -0.8611 -0.1632
 2653SOL    HW217890   3.022  11.264  11.217 -1.5012 -0.0407 -0.1306
 2654SOL     OW17891   5.540  11.701   6.964 -0.2669  0.0957 -0.2694
 2654SOL    HW117892   5.515  11.726   6.875  0.0262  0.9861 -0.1142
 2654SOL    HW217893   5.581  11.779   6.999  1.9514 -1.0342 -0.2111
 2655SOL     OW17894   7.053   9.627   4.195 -0.2954 -0.3152  0.1566
 2655SOL    HW117895   7.131   9.640   4.250 -0.6959  0.8781  0.4567
 2655SOL    HW217896   7.018   9.542   4.224  0.7411 -0.7508  0.1887
 2656SOL     OW17897   8.295   4.734   0.421 -0.2209  0.8474  0.1115
 2656SOL    HW117898   8.219   4.791   0.412  0.0841  1.1738 -0.4796
 2656SOL    HW217899   8.369   4.788   0.391  0.2557  0.5639  0.7378
 2657SOL     OW17900   8.934   5.896   1.088 -0.0414 -0.6053 -0.2071
 2657SOL    HW117901   9.000   5.877   1.021  0.7410  2.7508 -0.5724
 2657SOL    HW217902   8.854   5.915   1.038  0.2638  0.8632 -0.1758
 2658SOL     OW17903   0.473   7.421  11.492 -0.1743 -0.4415  0.2152
 2658SOL    HW117904   0.441   7.493  11.437 -0.4528  0.2050  1.1846
 2658SOL    HW217905   0.421   7.429  11.573  1.4646 -0.2241  1.2886
 2659SOL     OW17906   3.527  10.170   7.254 -0.0526 -0.5232 -0.0014
 2659SOL    HW117907   3.496  10.246   7.205  2.0076 -0.0268 -0.6601
 2659SOL    HW217908   3.527  10.197   7.345 -1.1655 -0.4365 -0.0152
 2660SOL     OW17909   3.677  10.924   3.167 -0.1941 -0.3525 -0.0804
 2660SOL    HW117910   3.602  10.870   3.143 -0.6505  0.9430 -1.7607
 2660SOL    HW217911   3.729  10.929   3.087  1.2525 -0.5031  0.8128
 2661SOL     OW17912   1.503   4.861   4.777  0.2362 -0.3958  0.1088
 2661SOL    HW117913   1.552   4.939   4.804 -1.2904  0.7792 -0.3598
 2661SOL    HW217914   1.535   4.792   4.835  1.7729  0.5113  0.4188
 2662SOL     OW17915   9.269   2.563   8.933 -0.6996  0.4767  0.4051
 2662SOL    HW117916   9.238   2.473   8.929 -1.4437  0.6760  1.3672
 2662SOL    HW217917   9.197   2.615   8.896 -1.0022  0.8177  1.4344
 2663SOL     OW17918   5.513  12.448   9.824 -0.2462 -0.0096 -0.3425
 2663SOL    HW117919   5.431  12.475   9.784 -1.3999 -0.4282  1.6321
 2663SOL    HW217920   5.502  12.465   9.918  1.8491 -0.2553  0.0134
 2664SOL     OW17921   0.518   5.560   2.476  0.4905 -0.7034  0.2506
 2664SOL    HW117922   0.604   5.528   2.451  0.0244 -1.1882 -0.8031
 2664SOL    HW217923   0.462   5.542   2.400 -0.5127 -0.2934  0.8613
 2665SOL     OW17924   6.044   0.783   0.260 -0.1862 -0.3270 -0.4461
 2665SOL    HW117925   6.071   0.758   0.172  0.7366  2.9636 -1.2377
 2665SOL    HW217926   5.979   0.852   0.247 -0.8467 -0.5227  1.4598
 2666SOL     OW17927   3.066  12.163   4.622 -0.1404 -0.1277 -0.5809
 2666SOL    HW117928   3.002  12.190   4.556  0.2087 -0.3491 -1.0167
 2666SOL    HW217929   3.145  12.212   4.600 -0.1782  0.1956 -0.0056
 2667SOL     OW17930   7.425   6.332  10.956 -0.0188  0.0189  0.5324
 2667SOL    HW117931   7.349   6.293  10.915 -0.3320 -0.5679  1.6257
 2667SOL    HW217932   7.483   6.355  10.883  0.6418 -3.4137 -0.1937
 2668SOL     OW17933   0.011   0.278   9.594 -0.0644 -0.0093  0.2422
 2668SOL    HW117934  -0.078   0.264   9.562 -0.1686 -2.5258  1.3846
 2668SOL    HW217935   0.002   0.274   9.689  1.2546 -0.3927  0.3670
 2669SOL     OW17936   4.013  11.012   0.077  0.2483  0.1934  0.0937
 2669SOL    HW117937   3.971  11.098   0.085  1.8826  1.0563 -0.2452
 2669SOL    HW217938   4.095  11.021   0.126 -0.0916 -1.5649  1.0661
 2670SOL     OW17939  13.238  11.838   0.308  0.1325  0.1544  0.0880
 2670SOL    HW117940  13.267  11.777   0.375 -0.5529 -0.3301 -0.0448
 2670SOL    HW217941  13.152  11.805   0.281  0.1414  0.6730 -0.6116
 2671SOL     OW17942   8.427  12.434   1.228 -0.3704  0.2174 -0.1072
 2671SOL    HW117943   8.386  12.476   1.304 -1.2400  1.1305 -1.0496
 2671SOL    HW217944   8.363  12.370   1.198 -0.5362  0.6804 -0.7620
 2672SOL     OW17945   8.696  11.364   8.858  0.2167 -0.3430  0.8825
 2672SOL    HW117946   8.694  11.282   8.907 -0.8422 -0.2447  1.0179
 2672SOL    HW217947   8.788  11.375   8.834  0.5452 -1.0169  1.7883
 2673SOL     OW17948   6.026   3.560   8.822 -0.3493 -0.2066  0.2546
 2673SOL    HW117949   6.086   3.624   8.785  1.3765 -1.2321  1.1572
 2673SOL    HW217950   6.015   3.586   8.914 -0.6515 -0.4749  0.3004
 2674SOL     OW17951   7.833  12.778   7.760 -0.2072 -0.5948  0.3493
 2674SOL    HW117952   7.751  12.825   7.741 -0.1148 -0.8238 -0.6692
 2674SOL    HW217953   7.812  12.686   7.742  0.5717 -0.5321 -1.0344
 2675SOL     OW17954   1.198   9.722   8.696  0.3618 -0.1314  0.3178
 2675SOL    HW117955   1.193   9.668   8.617  0.4608  0.9759 -0.4806
 2675SOL    HW217956   1.123   9.695   8.749  0.2444 -0.8302 -0.1858
 2676SOL     OW17957   1.177   6.608   1.321  0.1344 -0.2724  0.0994
 2676SOL    HW117958   1.229   6.529   1.338 -1.1953 -1.3133 -0.4005
 2676SOL    HW217959   1.136   6.591   1.236  0.4781  1.3535 -0.4267
 2677SOL     OW17960  12.967  11.529   6.803  0.6340  0.0061  0.9405
 2677SOL    HW117961  12.905  11.594   6.836  2.7463  2.3495  0.5799
 2677SOL    HW217962  12.919  11.484   6.734 -0.5852  2.0167  0.3714
 2678SOL     OW17963   8.605   2.352   4.711 -0.0328  0.5419  0.0055
 2678SOL    HW117964   8.522   2.376   4.668  0.3479  0.4369 -0.8095
 2678SOL    HW217965   8.618   2.261   4.687 -0.1947  0.2471  0.9988
 2679SOL     OW17966   9.147  12.993   3.510 -0.2387 -0.0607 -0.4750
 2679SOL    HW117967   9.235  13.017   3.540 -0.0622 -1.0743 -0.1121
 2679SOL    HW217968   9.107  13.075   3.483 -0.4939  0.9848  2.7418
 2680SOL     OW17969   9.976   1.771   8.666  0.4363 -0.4221 -0.7034
 2680SOL    HW117970   9.964   1.678   8.645 -2.6310 -0.1627 -0.5050
 2680SOL    HW217971   9.916   1.817   8.608 -1.7017  0.9873  2.3622
 2681SOL     OW17972  11.128   4.529   5.677  1.3168 -0.1209 -0.2475
 2681SOL    HW117973  11.121   4.451   5.732  1.4698  0.1630  0.1840
 2681SOL    HW217974  11.138   4.601   5.739 -0.1521  0.4084 -0.5632
 2682SOL     OW17975   1.308  11.662  11.232  0.0244 -0.0212  0.6176
 2682SOL    HW117976   1.304  11.693  11.323  0.3051  0.7344  0.3841
 2682SOL    HW217977   1.390  11.612  11.228  0.4464  0.6613  0.5726
 2683SOL     OW17978   2.729   7.445  11.424 -0.2946 -0.0524  0.6550
 2683SOL    HW117979   2.774   7.523  11.392 -1.1872  0.6646  1.1246
 2683SOL    HW217980   2.655   7.478  11.474 -1.2312 -1.2023  0.0915
 2684SOL     OW17981   5.227  12.934  10.377 -0.8527 -0.2980  0.4181
 2684SOL    HW117982   5.187  12.921  10.463 -1.7591 -0.5473 -0.0399
 2684SOL    HW217983   5.174  12.883  10.317 -0.8585  0.7074 -0.4632
 2685SOL     OW17984   7.839  12.507   6.326 -0.3157 -0.7006 -0.2653
 2685SOL    HW117985   7.923  12.470   6.351  0.1421 -1.1615 -2.3437
 2685SOL    HW217986   7.845  12.520   6.232 -2.3615 -0.1879 -0.3735
 2686SOL     OW17987   4.728   7.449  13.228 -0.2636  0.1869 -0.7761
 2686SOL    HW117988   4.789   7.503  13.178 -0.3205  1.1377  0.1502
 2686SOL    HW217989   4.723   7.491  13.314  0.8128 -2.0965  0.4850
 2687SOL     OW17990   4.360   6.598   7.292 -0.5749 -0.0547 -0.2792
 2687SOL    HW117991   4.388   6.529   7.352 -0.3770 -1.9446 -2.3924
 2687SOL    HW217992   4.265   6.588   7.286 -0.3744 -1.6209 -2.1082
 2688SOL     OW17993   1.520   3.591  12.247  0.0536  0.5934  0.1136
 2688SOL    HW117994   1.526   3.617  12.340  0.0189 -2.6228  1.1276
 2688SOL    HW217995   1.493   3.499  12.250  2.2064 -0.2693 -3.0482
 2689SOL     OW17996   6.053   8.081  12.698 -0.1081  0.1934  0.0329
 2689SOL    HW117997   6.006   8.080  12.614 -1.4680  1.2225  0.7251
 2689SOL    HW217998   6.101   7.999  12.700  0.2127  0.2764 -1.8864
 2690SOL     OW17999  11.738  11.976  11.387 -0.0547  0.3935  0.0260
 2690SOL    HW118000  11.645  11.957  11.387  0.0457 -0.5741 -2.5543
 2690SOL    HW218001  11.747  12.052  11.329  0.7205  0.8040  0.6629
 2691SOL     OW18002  12.553   0.788   3.370 -0.2126  0.1365 -0.4258
 2691SOL    HW118003  12.564   0.734   3.448 -1.0241 -0.8424 -0.9748
 2691SOL    HW218004  12.567   0.878   3.402  0.6736 -0.3391  0.5852
 2692SOL     OW18005  10.143   7.913   7.514  0.0735 -0.5800  0.0808
 2692SOL    HW118006  10.190   7.984   7.559 -1.3349 -0.1681  0.9623
 2692SOL    HW218007  10.139   7.941   7.422  1.3666 -0.5415  0.0252
 2693SOL     OW18008  10.786   3.383  12.589 -0.5812  0.5483 -0.2832
 2693SOL    HW118009  10.866   3.335  12.569 -0.2877 -0.1767  2.2499
 2693SOL    HW218010  10.811   3.476  12.586  0.4940  0.3149  0.8740
 2694SOL     OW18011   1.178   4.912   2.843 -0.1880 -0.2782 -0.0612
 2694SOL    HW118012   1.274   4.914   2.835 -0.0441 -1.6455  1.0168
 2694SOL    HW218013   1.161   4.844   2.908 -1.9769 -0.9895 -1.2109
 2695SOL     OW18014   4.154   5.680   1.558 -0.0182  0.3758  0.5666
 2695SOL    HW118015   4.147   5.612   1.491 -0.4353  0.6354  0.3476
 2695SOL    HW218016   4.115   5.641   1.636 -1.6307  0.8910  0.0465
 2696SOL     OW18017   2.064   9.353   2.169  0.6351  0.1794 -0.0122
 2696SOL    HW118018   2.042   9.440   2.201  0.2237 -0.5292  1.7682
 2696SOL    HW218019   2.047   9.356   2.075  1.4907  2.2576 -0.1530
 2697SOL     OW18020   1.909   6.762  11.954  0.0559 -0.3718 -0.0274
 2697SOL    HW118021   1.953   6.749  12.038 -1.6741 -0.4644  0.9145
 2697SOL    HW218022   1.889   6.674  11.923  0.2352 -0.3237 -0.2810
 2698SOL     OW18023  12.936  10.048  10.103 -0.7348  0.0397  0.2665
 2698SOL    HW118024  12.941  10.143  10.098 -0.3262 -0.0115 -0.5311
 2698SOL    HW218025  12.856  10.027  10.054 -0.1525 -0.0888 -0.6653
 2699SOL     OW18026   6.571   7.161   7.279  0.1568  0.2983  0.2977
 2699SOL    HW118027   6.612   7.215   7.212  0.2550  0.8582  0.7887
 2699SOL    HW218028   6.490   7.208   7.300 -0.2755 -0.3039 -0.0051
 2700SOL     OW18029   2.924   8.467   8.669 -0.1696 -0.6079 -0.3016
 2700SOL    HW118030   2.854   8.402   8.662 -0.5836 -0.2775  0.5644
 2700SOL    HW218031   2.977   8.455   8.590  0.4359 -2.7878  0.3546
 2701SOL     OW18032  11.446   4.979   7.947  1.1842  0.6605  0.3432
 2701SOL    HW118033  11.511   5.036   7.989  0.6803  1.6408 -0.1701
 2701SOL    HW218034  11.370   5.035   7.934  0.5273 -0.2501  0.1722
 2702SOL     OW18035   4.353   7.269   8.271 -0.0221  0.4644  0.1832
 2702SOL    HW118036   4.391   7.188   8.304 -0.7215 -0.1399 -0.4533
 2702SOL    HW218037   4.428   7.327   8.257  0.5935 -0.4379 -0.3404
 2703SOL     OW18038   4.023   9.855   0.662 -0.4394  0.6749  0.1817
 2703SOL    HW118039   4.050   9.932   0.712 -0.3613 -0.6151  2.2388
 2703SOL    HW218040   4.105   9.808   0.644 -0.6944 -0.2862  1.3648
 2704SOL     OW18041  11.433   6.122   9.032  0.1821  0.0338  0.3200
 2704SOL    HW118042  11.437   6.217   9.017  0.1805 -0.0850 -0.4890
 2704SOL    HW218043  11.414   6.085   8.945  2.1106 -0.8496  0.2165
 2705SOL     OW18044   3.030  11.273  13.265 -0.3625  0.0230  0.0588
 2705SOL    HW118045   3.055  11.350  13.215 -1.6701 -0.9113 -2.1514
 2705SOL    HW218046   2.983  11.217  13.203  0.2944 -2.4561  1.6312
 2706SOL     OW18047   2.853  10.375   2.989 -0.4266 -0.2014 -0.0375
 2706SOL    HW118048   2.876  10.468   2.991 -0.1036 -0.2705 -0.3911
 2706SOL    HW218049   2.930  10.330   3.022 -0.9209 -0.2930  1.0191
 2707SOL     OW18050  10.079   0.387   0.044 -0.1591  0.1462 -0.4966
 2707SOL    HW118051  10.148   0.453   0.043  0.0205 -0.0406 -0.5790
 2707SOL    HW218052  10.040   0.395   0.132 -0.1051  0.3248 -0.4884
 2708SOL     OW18053   8.239   3.825  12.345 -0.8763 -0.5302 -0.4922
 2708SOL    HW118054   8.239   3.819  12.440 -0.8721  2.5249 -0.2238
 2708SOL    HW218055   8.331   3.812  12.320 -0.6773 -0.1382  0.0245
 2709SOL     OW18056   3.597   8.097  12.564  0.3051  0.2227  0.5337
 2709SOL    HW118057   3.653   8.072  12.637  0.7806  2.2638  0.9327
 2709SOL    HW218058   3.649   8.078  12.486 -0.3196 -2.2492  0.6406
 2710SOL     OW18059   9.378   4.380  12.647  0.3077  0.1336 -0.3437
 2710SOL    HW118060   9.294   4.342  12.671 -0.8275  1.4977 -1.9032
 2710SOL    HW218061   9.401   4.437  12.721 -1.0029  1.0301 -0.5888
 2711SOL     OW18062   1.988   7.776   9.169  0.2702 -0.2530  0.1357
 2711SOL    HW118063   1.950   7.811   9.250  0.3394  0.2158 -0.0324
 2711SOL    HW218064   2.082   7.787   9.180  0.2712 -0.0297 -0.0775
 2712SOL     OW18065   4.258   4.787   8.318 -0.1430 -0.3724 -0.2274
 2712SOL    HW118066   4.259   4.695   8.344  1.4069 -0.3021  0.0467
 2712SOL    HW218067   4.174   4.820   8.349  0.6538 -0.8539  2.7544
 2713SOL     OW18068   5.085   2.370   2.598  0.1244  0.3306 -0.1569
 2713SOL    HW118069   5.062   2.361   2.690 -1.1571  0.1203 -0.4795
 2713SOL    HW218070   5.149   2.301   2.583 -0.5588 -0.4151  0.2943
 2714SOL     OW18071  10.601   8.991   9.383  0.0902  0.1328  0.5708
 2714SOL    HW118072  10.567   8.989   9.472  0.5599  0.7828  0.7728
 2714SOL    HW218073  10.656   8.913   9.376 -0.7064 -0.4324  0.5342
 2715SOL     OW18074  10.975   9.329   5.527 -0.2392  0.5549 -0.1592
 2715SOL    HW118075  10.884   9.305   5.514 -0.0294  0.2878 -1.2373
 2715SOL    HW218076  10.996   9.386   5.453  0.2502  1.2586  0.5039
 2716SOL     OW18077   7.174   6.760   4.078  0.3095 -0.3207 -0.0026
 2716SOL    HW118078   7.262   6.798   4.086 -0.8341  2.7343 -0.5813
 2716SOL    HW218079   7.157   6.759   3.984 -0.4993 -0.3413  0.1415
 2717SOL     OW18080   2.111   9.035   0.908  0.0902 -0.1518  0.3270
 2717SOL    HW118081   2.141   9.018   0.818  1.0335 -2.1511  0.9673
 2717SOL    HW218082   2.191   9.030   0.961 -0.4074  1.2926  1.2781
 2718SOL     OW18083   8.954   8.728   6.423 -0.1369 -0.4946  0.3020
 2718SOL    HW118084   8.914   8.644   6.445 -1.1333  0.2165  1.2850
 2718SOL    HW218085   9.036   8.704   6.378 -0.6117 -1.9759  0.1692
 2719SOL     OW18086   9.128   1.810  12.150  0.0444 -0.7518 -0.0646
 2719SOL    HW118087   9.122   1.904  12.166 -1.7113 -0.8796  0.2675
 2719SOL    HW218088   9.131   1.802  12.055 -0.7867 -0.3792 -0.1299
 2720SOL     OW18089   6.339  11.314  10.655  0.2311  0.4172 -0.2513
 2720SOL    HW118090   6.402  11.266  10.709  0.7045  3.8003  2.5688
 2720SOL    HW218091   6.393  11.357  10.589  0.5861  1.3391  0.6199
 2721SOL     OW18092  12.384   8.999  10.860  0.2078  0.2473  0.9098
 2721SOL    HW118093  12.344   8.940  10.924 -0.0006 -0.7258 -0.0792
 2721SOL    HW218094  12.445   8.944  10.812  0.1812  0.8984  0.1097
 2722SOL     OW18095   5.264  10.947  11.254  0.1328  0.0137  0.1052
 2722SOL    HW118096   5.332  10.959  11.187 -0.3315  1.3695 -0.1589
 2722SOL    HW218097   5.304  10.975  11.335  0.8635 -2.1127  0.5367
 2723SOL     OW18098  12.416   1.167   8.140 -0.6645  0.2798  0.1866
 2723SOL    HW118099  12.490   1.107   8.152 -0.5504  0.0672 -1.4244
 2723SOL    HW218100  12.389   1.189   8.229  1.4527  0.5204  0.8299
 2724SOL     OW18101  10.190   2.174   5.137 -0.4055 -0.4936  0.8801
 2724SOL    HW118102  10.186   2.081   5.115 -1.4814 -0.3543  0.4208
 2724SOL    HW218103  10.169   2.177   5.231  1.5383 -0.8597  1.3574
 2725SOL     OW18104  10.647  11.406   0.447  0.7475  0.1004  0.4110
 2725SOL    HW118105  10.602  11.476   0.494 -0.9514 -1.4928  1.2720
 2725SOL    HW218106  10.724  11.387   0.501  0.5916  0.5215  0.7875
 2726SOL     OW18107   7.161   1.024   1.842  0.3719 -0.0595 -0.3057
 2726SOL    HW118108   7.100   1.016   1.915  1.1106 -0.7265  0.2492
 2726SOL    HW218109   7.247   1.002   1.879  0.8816  0.3779 -1.1875
 2727SOL     OW18110   2.300   3.152  12.502  0.1675  0.5406  0.1235
 2727SOL    HW118111   2.238   3.222  12.480 -0.3831 -0.0670 -0.2888
 2727SOL    HW218112   2.302   3.151  12.598 -1.9273 -0.6692  0.2104
 2728SOL     OW18113   7.364   3.623  12.490 -0.3527  0.2167 -0.1870
 2728SOL    HW118114   7.298   3.689  12.508 -1.2004 -1.1052  1.8710
 2728SOL    HW218115   7.336   3.547  12.540  3.0811 -0.2039  1.3494
 2729SOL     OW18116   4.201   3.535   1.727 -0.0227  0.2331 -0.1458
 2729SOL    HW118117   4.214   3.586   1.647  2.2398 -0.0735 -0.0324
 2729SOL    HW218118   4.106   3.536   1.741 -0.2468  2.4867 -1.3819
 2730SOL     OW18119   0.805   8.894  11.138 -0.0210 -0.3795  0.1111
 2730SOL    HW118120   0.785   8.933  11.053  2.2566 -0.6119 -0.5989
 2730SOL    HW218121   0.829   8.968  11.193  0.9257 -0.4446 -0.2037
 2731SOL     OW18122  10.707   1.111   1.655 -0.1475 -0.7838 -0.4773
 2731SOL    HW118123  10.692   1.129   1.747 -0.1279  1.0866 -0.8158
 2731SOL    HW218124  10.682   1.191   1.609  0.2982 -1.4970 -2.0694
 2732SOL     OW18125   4.009   2.155   9.389 -0.4393 -0.2291  0.3077
 2732SOL    HW118126   3.975   2.133   9.302 -2.1590 -1.0912  1.1611
 2732SOL    HW218127   4.022   2.071   9.432  2.1619  0.0948  0.3115
 2733SOL     OW18128   3.424   7.346   1.913 -0.3380  0.1461 -0.3829
 2733SOL    HW118129   3.353   7.380   1.858 -0.9313 -0.6551 -0.1302
 2733SOL    HW218130   3.472   7.424   1.941 -0.8259  0.6640 -0.9453
 2734SOL     OW18131  10.485  13.273  12.143 -0.7819  0.0565  0.3737
 2734SOL    HW118132  10.559  13.282  12.204 -0.2291 -1.1637 -0.0944
 2734SOL    HW218133  10.411  13.251  12.199  0.2422 -3.7606  0.5005
 2735SOL     OW18134   1.161   4.521   6.099 -0.4564 -0.6385  0.2248
 2735SOL    HW118135   1.146   4.582   6.171 -3.0915  0.3950 -1.0501
 2735SOL    HW218136   1.235   4.559   6.051  1.1502 -1.1993  2.1261
 2736SOL     OW18137   9.369   9.082   5.892 -0.1383  0.0779  0.4110
 2736SOL    HW118138   9.395   8.990   5.892 -2.2113 -0.5455 -0.2246
 2736SOL    HW218139   9.341   9.100   5.982  0.4654  0.1723  0.5873
 2737SOL     OW18140   4.347   9.068  10.476 -0.1057 -0.1820 -0.5280
 2737SOL    HW118141   4.416   9.132  10.459 -1.0650  1.1433  0.3175
 2737SOL    HW218142   4.335   9.021  10.393 -0.3529  1.7260 -1.6205
 2738SOL     OW18143  10.251  10.695   3.299 -0.1790  0.1956  0.6704
 2738SOL    HW118144  10.273  10.655   3.383 -0.0053 -2.7861 -0.6957
 2738SOL    HW218145  10.156  10.703   3.300 -0.1284  0.7917  1.3851
 2739SOL     OW18146  11.693  11.050   5.282 -0.2198 -0.2882 -0.6300
 2739SOL    HW118147  11.727  11.139   5.292 -0.8895 -0.0821 -0.1498
 2739SOL    HW218148  11.691  11.035   5.187 -2.0346  0.9724 -0.8325
 2740SOL     OW18149   4.841  12.726   3.314 -0.1388 -0.2317  0.1779
 2740SOL    HW118150   4.838  12.668   3.238 -0.5333 -2.0383  1.5056
 2740SOL    HW218151   4.894  12.800   3.285  1.9650 -2.0927 -1.0468
 2741SOL     OW18152   5.074  11.962   3.376 -0.9728  0.5146  0.4251
 2741SOL    HW118153   5.068  12.044   3.425 -0.6767  1.0441 -0.3832
 2741SOL    HW218154   5.168  11.949   3.364 -1.0427  0.4151 -0.0260
 2742SOL     OW18155  11.362   4.464  10.841 -0.2309 -0.6930  0.4345
 2742SOL    HW118156  11.277   4.425  10.824 -0.3290 -0.5049  0.4860
 2742SOL    HW218157  11.366   4.539  10.780 -0.9429  0.5136  1.8111
 2743SOL     OW18158   7.118   4.687   9.858 -0.1660  0.0815  0.2879
 2743SOL    HW118159   7.055   4.620   9.886 -0.8645  0.1228 -1.1071
 2743SOL    HW218160   7.196   4.671   9.911 -0.3139 -1.8541 -0.0331
 2744SOL     OW18161   3.187   4.380   2.805  0.4531  0.1772 -0.7065
 2744SOL    HW118162   3.109   4.432   2.827 -0.1840 -0.4481 -1.4336
 2744SOL    HW218163   3.258   4.444   2.802  0.1198  0.6553  0.6824
 2745SOL     OW18164   0.698   6.542   4.701  0.2646  0.2239  0.0981
 2745SOL    HW118165   0.790   6.561   4.715  0.3028 -0.5658  1.0678
 2745SOL    HW218166   0.675   6.590   4.622  0.7702  2.7763  1.3970
 2746SOL     OW18167   8.877   2.960  12.201  0.3955  0.3939 -0.5127
 2746SOL    HW118168   8.875   2.994  12.290  0.3892  0.7455 -0.6475
 2746SOL    HW218169   8.899   3.035  12.146  1.7171 -0.0879 -0.6785
 2747SOL     OW18170  12.157   0.542   3.553 -0.3912  0.0096 -0.3441
 2747SOL    HW118171  12.168   0.590   3.635  0.1377 -2.2702  1.0297
 2747SOL    HW218172  12.202   0.595   3.487  0.7785  1.0422  1.2114
 2748SOL     OW18173   5.597   7.930   3.007 -0.0020  0.3868 -0.2340
 2748SOL    HW118174   5.601   8.012   3.055 -0.4437  0.7428 -0.7873
 2748SOL    HW218175   5.613   7.955   2.915  0.6634 -0.2530 -0.3031
 2749SOL     OW18176   8.869   4.454   2.684 -0.2875  0.6394  0.0621
 2749SOL    HW118177   8.792   4.428   2.735  0.4245  0.5520  1.1298
 2749SOL    HW218178   8.841   4.533   2.638 -0.6431  1.3466  1.4257
 2750SOL     OW18179   8.141  12.954  10.966 -0.6047  0.1119 -0.1808
 2750SOL    HW118180   8.157  12.868  11.004  0.6928  0.0606 -0.7698
 2750SOL    HW218181   8.145  13.014  11.040 -0.5140 -0.2329  0.0948
 2751SOL     OW18182  11.503   0.632   4.895 -0.0475  0.0182  0.2619
 2751SOL    HW118183  11.431   0.674   4.942 -0.5447  0.6365 -1.0146
 2751SOL    HW218184  11.551   0.585   4.963 -0.6054  1.0635  1.4185
 2752SOL     OW18185  12.635   2.971   7.363 -0.3410  0.1802  0.1733
 2752SOL    HW118186  12.728   2.948   7.352 -0.6079 -0.8384  0.0057
 2752SOL    HW218187  12.610   2.931   7.446 -1.0212 -0.8243 -0.5019
 2753SOL     OW18188   5.363   8.598   0.853 -0.9846 -0.3088  0.2650
 2753SOL    HW118189   5.372   8.526   0.916 -1.4317  0.4703  1.2476
 2753SOL    HW218190   5.453   8.618   0.827 -0.5972  0.6511  2.1765
 2754SOL     OW18191   3.199   8.843  11.971 -0.3794  0.1673 -0.1497
 2754SOL    HW118192   3.183   8.914  11.909  0.2977 -0.5093 -1.1206
 2754SOL    HW218193   3.112   8.820  12.003 -0.6963  0.8018 -0.5282
 2755SOL     OW18194  12.193   3.695   1.574  0.0780 -0.0251  0.4256
 2755SOL    HW118195  12.248   3.721   1.500  0.1969  0.4340  0.6728
 2755SOL    HW218196  12.209   3.761   1.641 -0.0350 -0.4286  0.8632
 2756SOL     OW18197  11.265   5.987   9.826 -0.2110 -0.3385  0.3078
 2756SOL    HW118198  11.300   5.911   9.874 -0.4096  0.0378  1.0620
 2756SOL    HW218199  11.170   5.973   9.826 -0.1372 -0.9986 -1.1276
 2757SOL     OW18200   4.222   9.616   8.428  0.0694 -0.1723 -0.2586
 2757SOL    HW118201   4.134   9.644   8.403 -0.6673 -0.5982  1.6454
 2757SOL    HW218202   4.267   9.697   8.453 -0.5971 -0.1708  1.0258
 2758SOL     OW18203  11.307   4.473   6.932 -0.1860  0.2839  0.0956
 2758SOL    HW118204  11.288   4.380   6.941 -0.4529  0.3446  0.1595
 2758SOL    HW218205  11.301   4.490   6.838  1.0369 -0.0142 -0.0460
 2759SOL     OW18206   0.737  11.166   0.926  0.1550  0.0668  0.1500
 2759SOL    HW118207   0.824  11.139   0.956  0.1659 -1.8111 -1.3475
 2759SOL    HW218208   0.677  11.126   0.989  0.2967 -0.9209 -0.3248
 2760SOL     OW18209  12.109  10.890   1.538 -0.4208 -0.2532 -0.0314
 2760SOL    HW118210  12.155  10.919   1.460 -1.3820 -0.7620 -0.8136
 2760SOL    HW218211  12.178  10.873   1.602  0.4229 -0.3140 -0.9388
 2761SOL     OW18212   5.710  12.272   9.027 -0.1381  0.3067  0.2378
 2761SOL    HW118213   5.780  12.213   8.998 -1.0114  0.2278 -1.8504
 2761SOL    HW218214   5.693  12.327   8.951 -2.9960 -0.3030  0.3500
 2762SOL     OW18215   5.675  12.236   3.032 -0.2000  0.2615  0.4876
 2762SOL    HW118216   5.595  12.272   3.069 -0.7864  0.2784 -0.7579
 2762SOL    HW218217   5.646  12.165   2.976  0.8233 -1.1814  1.6831
 2763SOL     OW18218   8.243   7.551  12.412  0.0062 -0.1255  0.1910
 2763SOL    HW118219   8.195   7.566  12.494 -0.2587 -2.0720  0.4529
 2763SOL    HW218220   8.334   7.542  12.440  0.0064 -0.1460  0.1827
 2764SOL     OW18221   0.737   7.042   5.340 -0.0435  0.7640 -0.7360
 2764SOL    HW118222   0.675   7.115   5.332 -0.7942  0.1578 -0.5523
 2764SOL    HW218223   0.769   7.048   5.430 -0.1824  0.8035 -0.6896
 2765SOL     OW18224   4.194  11.604  12.291 -0.2058  0.8276 -0.1426
 2765SOL    HW118225   4.245  11.534  12.248 -2.3321 -1.8170  1.2990
 2765SOL    HW218226   4.206  11.587  12.385 -0.6055  2.5864  0.2484
 2766SOL     OW18227   9.967   7.338  11.997 -0.4461 -0.1170 -0.4232
 2766SOL    HW118228   9.947   7.259  12.048  0.5411  0.2850  0.6236
 2766SOL    HW218229  10.062   7.344  11.998 -0.4676  0.5693 -1.3126
 2767SOL     OW18230   1.620   5.166   8.991 -0.7393  0.1045 -0.7099
 2767SOL    HW118231   1.621   5.120   8.907 -0.0463  0.7840 -1.0876
 2767SOL    HW218232   1.711   5.163   9.022 -0.2251  2.7602 -1.6431
 2768SOL     OW18233  12.893   7.972  11.026 -0.4863 -0.0099  0.3853
 2768SOL    HW118234  12.974   8.022  11.024  0.0637 -0.8725  0.8390
 2768SOL    HW218235  12.903   7.905  10.959 -0.6562 -0.3682  0.7109
 2769SOL     OW18236   3.906  12.999  11.569  0.1207  0.2104  0.0695
 2769SOL    HW118237   3.860  13.017  11.651 -1.4841  0.9822 -0.9300
 2769SOL    HW218238   3.917  12.904  11.568  2.7275  0.3818  2.4079
 2770SOL     OW18239   2.263   2.098   3.803  0.8209  0.2690  0.3166
 2770SOL    HW118240   2.180   2.061   3.835  0.9387  1.8068  2.5826
 2770SOL    HW218241   2.295   2.151   3.875  3.2405  0.6469 -0.9477
 2771SOL     OW18242   3.831   9.629   5.876  0.1633  0.5030  0.1746
 2771SOL    HW118243   3.898   9.633   5.944 -2.7607  0.6750  3.3252
 2771SOL    HW218244   3.829   9.717   5.838  0.6296  0.9742  1.2184
 2772SOL     OW18245  12.090   5.104   3.503  0.0186 -0.0863 -0.1736
 2772SOL    HW118246  12.019   5.065   3.554  0.2666 -0.8088 -0.3842
 2772SOL    HW218247  12.167   5.051   3.525  0.3382  0.2306 -0.5269
 2773SOL     OW18248   2.153  11.108   9.126 -0.4963  0.6203 -0.1295
 2773SOL    HW118249   2.239  11.070   9.142 -0.7287  0.6913  1.3803
 2773SOL    HW218250   2.171  11.198   9.098 -0.0884  0.8976  0.9815
 2774SOL     OW18251   4.343   2.679   5.822 -0.1476  0.1822 -0.0478
 2774SOL    HW118252   4.423   2.729   5.807  0.6334 -0.5906  1.2552
 2774SOL    HW218253   4.289   2.736   5.877  0.5758 -0.2186  1.1160
 2775SOL     OW18254  10.453  10.941   5.290 -0.5660  0.3596 -0.1803
 2775SOL    HW118255  10.408  10.856   5.286 -2.9626  1.5796 -1.1129
 2775SOL    HW218256  10.442  10.969   5.381 -0.8900  0.2430 -0.1811
 2776SOL     OW18257   0.667  10.649   2.671  0.1493 -0.5351 -0.4529
 2776SOL    HW118258   0.665  10.743   2.652  0.0660 -0.3169  0.6064
 2776SOL    HW218259   0.716  10.642   2.753 -0.2377 -1.3795 -0.2852
 2777SOL     OW18260   6.329   7.467   3.110  0.2019 -0.0872 -0.0078
 2777SOL    HW118261   6.423   7.479   3.125 -0.0879  0.6277  1.3839
 2777SOL    HW218262   6.305   7.538   3.051  0.7219 -0.9567 -1.3294
 2778SOL     OW18263   6.304   9.453   8.981  0.4022 -0.8150 -0.0350
 2778SOL    HW118264   6.396   9.428   8.987  0.3617 -1.0108 -0.2430
 2778SOL    HW218265   6.305   9.540   8.941  0.5440 -0.4586  0.7225
 2779SOL     OW18266   1.746   8.945   1.374 -0.0753  0.0678  0.1903
 2779SOL    HW118267   1.825   8.892   1.384 -0.2332  0.0375  1.5498
 2779SOL    HW218268   1.720   8.934   1.283  1.1462 -0.3989 -0.1181
 2780SOL     OW18269  10.621   5.843   5.752 -0.3606 -0.1049  0.3551
 2780SOL    HW118270  10.698   5.888   5.719  0.6654 -0.9894  1.4912
 2780SOL    HW218271  10.610   5.768   5.693  0.0189 -0.3319  0.5766
 2781SOL     OW18272  10.839  10.000  11.154 -0.1608  0.0412 -0.0279
 2781SOL    HW118273  10.748   9.971  11.141  0.2019 -0.3370 -2.1037
 2781SOL    HW218274  10.875  10.004  11.066  1.5194  1.3317  0.6705
 2782SOL     OW18275  12.516   3.019   5.200 -0.3649 -0.1525  0.3853
 2782SOL    HW118276  12.461   3.087   5.240 -0.2167  0.5523 -0.5758
 2782SOL    HW218277  12.594   3.015   5.254  0.0334  1.1101 -0.0742
 2783SOL     OW18278   3.998   5.155   3.082 -0.2521  0.0464 -0.0671
 2783SOL    HW118279   3.962   5.236   3.118 -1.2353  0.3460 -1.6390
 2783SOL    HW218280   4.071   5.134   3.140  0.0092  2.0292  0.4181
 2784SOL     OW18281  12.949   2.097   4.885 -0.4955  0.2556 -0.2924
 2784SOL    HW118282  12.966   2.131   4.973  0.5335 -1.2794  0.1455
 2784SOL    HW218283  12.892   2.022   4.899  0.2414 -0.4190 -0.8703
 2785SOL     OW18284   1.564   0.714   6.614 -0.6917  0.5163 -0.2252
 2785SOL    HW118285   1.546   0.638   6.560 -1.6245  0.8894 -0.4560
 2785SOL    HW218286   1.493   0.715   6.679 -0.4900  0.9871 -0.0081
 2786SOL     OW18287   1.146   8.570  11.349  0.1022 -0.0827  0.0747
 2786SOL    HW118288   1.170   8.663  11.346  1.4325 -0.4067  0.0007
 2786SOL    HW218289   1.201   8.529  11.283  0.7616 -1.1783  1.2458
 2787SOL     OW18290   5.718   0.875   0.795 -0.4287  0.0314  0.1889
 2787SOL    HW118291   5.680   0.803   0.846  0.8990 -0.0231  1.1564
 2787SOL    HW218292   5.791   0.836   0.749  0.4802  0.7898  0.9475
 2788SOL     OW18293   6.976  12.921  13.307 -0.2715 -0.2998 -0.6664
 2788SOL    HW118294   6.952  12.897  13.396 -3.0344 -0.7386 -1.4535
 2788SOL    HW218295   6.963  12.841  13.256  0.8353  0.0738 -1.5862
 2789SOL     OW18296   2.116   9.777   0.796  0.4552  0.7423 -0.0847
 2789SOL    HW118297   2.201   9.746   0.827  0.3127 -0.5335 -0.8754
 2789SOL    HW218298   2.126   9.871   0.788  1.3942  0.7636  1.0277
 2790SOL     OW18299   7.674   6.852   5.156  0.1532 -0.4707  0.1752
 2790SOL    HW118300   7.661   6.813   5.069  0.8072 -0.1521 -0.0763
 2790SOL    HW218301   7.670   6.947   5.140  0.4752 -0.4096  0.4591
 2791SOL     OW18302   7.600  11.200   4.662  0.0277  0.1155  0.3970
 2791SOL    HW118303   7.603  11.124   4.604 -0.8831  0.4363 -0.0780
 2791SOL    HW218304   7.513  11.197   4.702  0.3279  0.3910  1.0928
 2792SOL     OW18305  11.286   5.649   5.857  0.0722  0.0489 -0.2077
 2792SOL    HW118306  11.365   5.611   5.819  0.3179 -0.3465  0.6683
 2792SOL    HW218307  11.214   5.614   5.804  0.4385 -0.1223 -0.5906
 2793SOL     OW18308   5.687   9.876  12.555  0.3525  0.4295 -0.4655
 2793SOL    HW118309   5.658   9.832  12.635  0.9467 -0.1989 -0.5813
 2793SOL    HW218310   5.765   9.925  12.582  2.1973 -1.9377 -1.1756
 2794SOL     OW18311   8.150   6.084   9.996  0.1843  0.3242 -0.1028
 2794SOL    HW118312   8.182   6.162  10.042  0.6943  0.7427 -1.1468
 2794SOL    HW218313   8.198   6.011  10.035  2.0025  0.8706 -1.2076
 2795SOL     OW18314   8.796   6.955  11.559 -0.0346 -0.0975  0.5087
 2795SOL    HW118315   8.760   7.000  11.482  2.0448  1.1217  0.1756
 2795SOL    HW218316   8.723   6.902  11.592 -1.3621  0.3266 -1.5420
 2796SOL     OW18317  10.984   8.203   1.250  0.2265 -1.1091  0.0978
 2796SOL    HW118318  10.938   8.173   1.171  0.1820 -0.1453 -0.2630
 2796SOL    HW218319  10.917   8.203   1.318 -0.1622 -0.3745 -0.2652
 2797SOL     OW18320   2.172  11.118  11.847 -0.4140 -0.2063  0.2664
 2797SOL    HW118321   2.258  11.120  11.888  0.0598  0.8621 -0.7261
 2797SOL    HW218322   2.119  11.178  11.900 -0.2486 -0.0611  0.2682
 2798SOL     OW18323  12.111   3.756  11.488 -0.4639  0.0975 -0.0429
 2798SOL    HW118324  12.164   3.834  11.467 -1.8415  1.1601  0.2818
 2798SOL    HW218325  12.097   3.762  11.583 -1.4248  0.0062 -0.1750
 2799SOL     OW18326   0.097   2.419   9.453 -0.6186  0.3415  0.5969
 2799SOL    HW118327   0.037   2.355   9.413 -0.4039 -0.5958  1.7118
 2799SOL    HW218328   0.064   2.504   9.424 -1.7207 -0.2099  0.1556
 2800SOL     OW18329   6.015  12.675   8.573 -0.4961 -0.0384  0.3589
 2800SOL    HW118330   5.985  12.671   8.482  0.0358 -0.9734  0.2064
 2800SOL    HW218331   6.106  12.644   8.570 -0.2488  0.5651  1.1200
 2801SOL     OW18332  12.174  11.078  12.827 -0.1882  0.1871  0.1651
 2801SOL    HW118333  12.155  11.049  12.738 -0.1189  1.6780 -0.3753
 2801SOL    HW218334  12.144  11.169  12.829 -1.0075 -0.0738  1.9526
 2802SOL     OW18335   1.290   6.445   9.185  0.0784 -0.7691  0.0980
 2802SOL    HW118336   1.293   6.471   9.277 -1.4050 -0.0107 -0.0305
 2802SOL    HW218337   1.369   6.392   9.172  1.3356  0.6849  1.3225
 2803SOL     OW18338   9.041   3.994   0.916 -0.1519 -0.2222  0.5128
 2803SOL    HW118339   9.089   4.075   0.935  1.1413 -1.0238  0.7722
 2803SOL    HW218340   8.964   4.023   0.866 -1.4181  1.5284  3.2169
 2804SOL     OW18341  10.739   6.516  12.375 -0.1908 -0.0936  0.4337
 2804SOL    HW118342  10.659   6.563  12.353  0.1801  0.1493 -0.4271
 2804SOL    HW218343  10.772   6.559  12.453  0.2321  1.1940 -0.4352
 2805SOL     OW18344   8.174   0.102   2.060 -0.4861  0.0374 -0.2160
 2805SOL    HW118345   8.201   0.031   2.002 -0.2569  0.1308 -0.2275
 2805SOL    HW218346   8.255   0.150   2.078 -0.4417 -0.3830  0.7176
 2806SOL     OW18347   7.849  12.010  12.527 -0.1848 -0.4231  0.4876
 2806SOL    HW118348   7.871  11.918  12.512 -0.1433 -0.2821 -0.3879
 2806SOL    HW218349   7.771  12.025  12.473  1.8793  0.9561 -2.4041
 2807SOL     OW18350   3.134   0.319  10.059 -0.4757 -0.1406 -0.2915
 2807SOL    HW118351   3.173   0.400  10.093 -1.2781  0.3740 -0.5708
 2807SOL    HW218352   3.107   0.340   9.970 -0.1938 -0.8865 -0.5641
 2808SOL     OW18353   2.255   5.497   2.371 -0.0553  0.7835  0.7934
 2808SOL    HW118354   2.203   5.429   2.415 -0.4345  1.3283  1.2010
 2808SOL    HW218355   2.329   5.450   2.333 -0.3083  0.1432  1.0841
 2809SOL     OW18356  12.579   2.473  11.744  0.0419 -0.3070 -0.1985
 2809SOL    HW118357  12.488   2.447  11.758 -0.4152 -0.8527 -3.3896
 2809SOL    HW218358  12.579   2.567  11.759 -1.3237 -0.1300 -1.0879
 2810SOL     OW18359   1.577  10.394   2.008 -0.5319  0.0106  0.1295
 2810SOL    HW118360   1.662  10.438   2.015 -1.0584  1.0942 -0.0417
 2810SOL    HW218361   1.514  10.466   2.000 -1.3308 -0.7970 -1.1887
 2811SOL     OW18362  11.578   4.054  10.034  0.5979 -0.4619 -0.5002
 2811SOL    HW118363  11.642   4.027   9.967  2.5936  0.9596  0.7163
 2811SOL    HW218364  11.585   3.987  10.102 -0.1113 -0.9518 -0.9051
 2812SOL     OW18365   3.473   6.558   0.256  0.7837 -0.7006  1.0555
 2812SOL    HW118366   3.396   6.611   0.237  0.2599 -1.8693 -0.2038
 2812SOL    HW218367   3.542   6.622   0.276  0.2746  0.4747 -0.7698
 2813SOL     OW18368  11.561   6.238   3.597 -0.7183  0.5317 -0.0534
 2813SOL    HW118369  11.513   6.197   3.525 -0.1149  0.9986 -0.7355
 2813SOL    HW218370  11.597   6.164   3.647 -0.1792  0.2143 -0.9020
 2814SOL     OW18371  13.280   7.284   3.954  0.5745 -0.1982  0.1374
 2814SOL    HW118372  13.184   7.283   3.951  0.4955 -0.2312  1.7167
 2814SOL    HW218373  13.307   7.299   3.863 -0.8992 -1.4676 -0.5648
 2815SOL     OW18374  12.301   4.406   4.488  0.5932 -0.2419  0.2175
 2815SOL    HW118375  12.334   4.495   4.479  0.3771 -0.2912 -1.3328
 2815SOL    HW218376  12.209   4.417   4.511  0.7544 -0.0708  0.7800
 2816SOL     OW18377  12.741  12.844   9.110  0.0673  0.2367 -0.1772
 2816SOL    HW118378  12.685  12.904   9.061 -0.2320 -0.0229 -0.1510
 2816SOL    HW218379  12.751  12.768   9.052 -0.1345  0.0089  0.0886
 2817SOL     OW18380  12.467   9.318   7.055 -0.5294 -0.0175  0.5913
 2817SOL    HW118381  12.551   9.303   7.100  0.3116  1.7932 -0.2624
 2817SOL    HW218382  12.401   9.297   7.121  0.5928 -1.1528  1.4049
 2818SOL     OW18383   1.140   0.526   9.335  0.2381  0.5014  0.0606
 2818SOL    HW118384   1.130   0.529   9.239  1.8235  2.6877 -0.1060
 2818SOL    HW218385   1.074   0.588   9.367  0.2590  0.3910  0.3131
 2819SOL     OW18386   8.854  10.101   4.024  0.1671 -0.3296  0.2745
 2819SOL    HW118387   8.781  10.147   4.065  0.3318  1.9001 -1.7365
 2819SOL    HW218388   8.933  10.144   4.057  0.3421  0.6224 -1.2925
 2820SOL     OW18389  12.114  10.859   6.162 -0.0072  0.6590  0.2450
 2820SOL    HW118390  12.165  10.780   6.176 -0.5276  0.1976 -0.3776
 2820SOL    HW218391  12.174  10.920   6.120  0.6017  0.8684  1.3766
 2821SOL     OW18392   4.799  13.004   4.110 -0.8731 -0.3031 -0.6023
 2821SOL    HW118393   4.713  12.962   4.117 -1.2777  0.8132  2.3467
 2821SOL    HW218394   4.783  13.081   4.056 -1.6447 -0.2931 -0.3721
 2822SOL     OW18395   8.472   8.922   7.328 -0.0883 -0.2462  0.3366
 2822SOL    HW118396   8.398   8.874   7.366 -2.2239  0.9392 -1.9821
 2822SOL    HW218397   8.494   8.873   7.248  0.3998  0.4113  0.0547
 2823SOL     OW18398  10.129   7.270   1.161  0.6691  0.0944  0.0482
 2823SOL    HW118399  10.121   7.357   1.121  1.8407  0.3236  0.2754
 2823SOL    HW218400  10.044   7.254   1.202 -0.0619  0.4959 -1.2492
 2824SOL     OW18401   1.237   9.249   9.659  0.0230  0.1736 -0.2180
 2824SOL    HW118402   1.159   9.281   9.614 -1.1342 -1.1741  0.7203
 2824SOL    HW218403   1.283   9.328   9.687 -1.0068  1.0023 -0.7778
 2825SOL     OW18404  10.809   0.116   9.133  0.5274 -0.2372 -0.7154
 2825SOL    HW118405  10.821   0.083   9.222 -1.1846  1.3155  0.1496
 2825SOL    HW218406  10.753   0.051   9.091 -0.4339  0.0903  0.0387
 2826SOL     OW18407   4.437   5.016   8.301  0.4087 -0.1447  0.2241
 2826SOL    HW118408   4.376   4.942   8.306 -0.5081  0.6150  0.6010
 2826SOL    HW218409   4.481   5.018   8.385 -0.1610  0.2221  0.5203
 2827SOL     OW18410   3.662   2.884   5.017  0.0538 -0.1203  0.2179
 2827SOL    HW118411   3.674   2.901   4.923 -0.2464  1.5629  0.4535
 2827SOL    HW218412   3.745   2.911   5.057  0.4894 -1.6170  0.3731
 2828SOL     OW18413   8.512  12.178   2.019  0.0695  0.5575 -0.3911
 2828SOL    HW118414   8.593  12.210   2.058 -0.0365 -0.6181  0.8673
 2828SOL    HW218415   8.443  12.233   2.058 -0.5227 -2.9706  4.4604
 2829SOL     OW18416  13.308   0.388   1.359  0.6273 -0.6063 -0.4808
 2829SOL    HW118417  13.345   0.457   1.414  0.5396 -1.3676  0.5787
 2829SOL    HW218418  13.214   0.402   1.362  0.6826  0.0365 -1.4003
 2830SOL     OW18419  13.153   3.325  11.138  0.3966 -0.0243  0.3543
 2830SOL    HW118420  13.059   3.336  11.129  0.5466  0.9167 -0.1543
 2830SOL    HW218421  13.163   3.239  11.178 -0.6490 -0.5485 -0.4473
 2831SOL     OW18422   5.698  13.194   8.930  0.2531  0.3994 -0.5382
 2831SOL    HW118423   5.657  13.233   8.853  0.8026  1.0120 -0.5290
 2831SOL    HW218424   5.778  13.153   8.897 -0.1711 -0.4891 -0.5012
 2832SOL     OW18425  10.793   3.180   1.812  0.0551  0.3680 -0.0526
 2832SOL    HW118426  10.706   3.217   1.822 -1.0450 -2.1431  0.4344
 2832SOL    HW218427  10.791   3.135   1.727  0.8222  0.1234  0.0428
 2833SOL     OW18428   8.968   0.942  12.323 -0.3097 -0.3619 -0.2981
 2833SOL    HW118429   8.924   0.904  12.399  0.3679 -0.5575  0.0029
 2833SOL    HW218430   8.926   0.901  12.248  0.6588 -2.0332  0.0290
 2834SOL     OW18431  12.764  10.841  11.015 -0.3765  0.5916  0.1350
 2834SOL    HW118432  12.710  10.852  10.937  0.0407  1.4320 -0.0493
 2834SOL    HW218433  12.703  10.815  11.084 -0.7973  0.1772 -0.3897
 2835SOL     OW18434  12.258   8.506  10.628 -0.2355  0.2784 -0.6068
 2835SOL    HW118435  12.343   8.460  10.635 -0.0986  0.4310 -1.1784
 2835SOL    HW218436  12.198   8.453  10.681  0.2829  0.3348  0.0488
 2836SOL     OW18437   6.235   8.997   2.481  0.0592 -0.1650  0.3569
 2836SOL    HW118438   6.180   8.981   2.405 -0.8849 -0.5042  1.0906
 2836SOL    HW218439   6.325   8.990   2.448 -0.3353 -0.3691 -0.7032
 2837SOL     OW18440  10.240   6.621   7.576  0.0794  0.3390  0.1834
 2837SOL    HW118441  10.214   6.553   7.638 -0.9165  1.2764  0.8205
 2837SOL    HW218442  10.298   6.679   7.626  0.7978  0.0706 -0.3139
 2838SOL     OW18443   0.500   7.863   7.979 -0.3935 -0.0439 -0.0146
 2838SOL    HW118444   0.583   7.876   8.025  0.1556 -1.2643 -0.6181
 2838SOL    HW218445   0.524   7.861   7.886 -0.9773 -1.1336 -0.1622
 2839SOL     OW18446   3.728  10.113   3.666  0.0563 -0.1561 -0.4140
 2839SOL    HW118447   3.641  10.085   3.694 -0.6621  0.6517 -1.7572
 2839SOL    HW218448   3.785  10.089   3.740 -1.3738 -0.1739  0.7439
 2840SOL     OW18449   3.578   2.373  12.473  0.4133 -0.0654  0.0320
 2840SOL    HW118450   3.570   2.290  12.426  1.4187  1.2618 -2.6805
 2840SOL    HW218451   3.670   2.375  12.501 -0.0670 -0.6402  1.7533
 2841SOL     OW18452   8.958  12.163   8.155 -0.2302  0.0133  0.0204
 2841SOL    HW118453   8.908  12.163   8.237  1.6649  0.0191  1.2355
 2841SOL    HW218454   8.991  12.074   8.147 -1.9186 -0.5193 -1.7816
 2842SOL     OW18455   4.481   7.763   3.819  0.1839 -0.3998 -0.4571
 2842SOL    HW118456   4.432   7.718   3.751 -1.1739  0.5606 -0.1651
 2842SOL    HW218457   4.420   7.830   3.852  1.4140  0.2987  0.4931
 2843SOL     OW18458   0.548   6.855  10.704  0.2822 -0.3752 -0.8305
 2843SOL    HW118459   0.527   6.808  10.785  0.4579 -2.5913 -1.9788
 2843SOL    HW218460   0.481   6.827  10.642  0.8841  0.2691 -1.7903
 2844SOL     OW18461  11.778   8.657   4.907 -0.0126 -0.4805 -0.0341
 2844SOL    HW118462  11.871   8.654   4.929 -0.1367  1.0585  0.8072
 2844SOL    HW218463  11.734   8.623   4.985 -0.1524 -2.1011 -0.7741
 2845SOL     OW18464   1.314   2.712   6.848 -0.1771 -0.2320  0.1632
 2845SOL    HW118465   1.282   2.800   6.869  0.2820 -0.1396  0.4972
 2845SOL    HW218466   1.368   2.688   6.923  0.3418 -0.4787 -0.2873
 2846SOL     OW18467   5.678   5.657  10.486 -0.0568 -0.0770  0.5158
 2846SOL    HW118468   5.739   5.585  10.502  0.2226  0.3289  1.3595
 2846SOL    HW218469   5.610   5.646  10.552  0.8427  1.3425  1.7480
 2847SOL     OW18470  12.267   2.432   2.223  0.1193 -0.1673  0.1261
 2847SOL    HW118471  12.309   2.347   2.209 -0.7410 -0.9564  1.9624
 2847SOL    HW218472  12.333   2.496   2.198  0.9797 -1.3514 -0.7847
 2848SOL     OW18473   4.038  11.001   0.512 -0.3945 -0.6876 -0.2539
 2848SOL    HW118474   4.065  11.076   0.459  0.9675 -0.9059  0.0943
 2848SOL    HW218475   4.102  10.933   0.491 -0.8556 -1.3266  0.3968
 2849SOL     OW18476  10.248   8.196   5.494 -0.0747 -0.0589  0.2698
 2849SOL    HW118477  10.182   8.265   5.482 -0.3304 -0.0563  1.6312
 2849SOL    HW218478  10.208   8.134   5.554  0.5822 -0.8520 -0.0928
 2850SOL     OW18479   0.797   9.956   7.405 -0.3876 -0.8320 -0.7552
 2850SOL    HW118480   0.783   9.931   7.313 -0.7091  0.2396 -1.0199
 2850SOL    HW218481   0.709   9.960   7.442 -0.3338 -0.3796 -0.6613
 2851SOL     OW18482   6.990  12.692   9.830 -0.2274  0.4221  0.4136
 2851SOL    HW118483   7.056  12.628   9.806  0.4846  1.0786  0.5832
 2851SOL    HW218484   7.026  12.737   9.907 -1.1195  0.4131  0.8515
 2852SOL     OW18485   5.331   0.011  12.016 -0.0294 -0.2599 -0.0299
 2852SOL    HW118486   5.369  -0.072  12.044 -0.5834 -0.0753  1.3757
 2852SOL    HW218487   5.275   0.037  12.089 -0.8923  0.7020 -1.0029
 2853SOL     OW18488   1.803   5.820   4.299 -0.7374  0.0830  0.3864
 2853SOL    HW118489   1.710   5.830   4.319 -0.7595 -0.5403  0.6332
 2853SOL    HW218490   1.831   5.746   4.353 -0.0955  0.2686  0.3202
 2854SOL     OW18491   7.351   3.230  12.242 -0.2631 -0.0587  0.1380
 2854SOL    HW118492   7.404   3.295  12.196 -1.3748  0.9636  0.2763
 2854SOL    HW218493   7.389   3.146  12.215  0.4772  0.5895 -0.9405
 2855SOL     OW18494   4.841  12.626  11.995 -0.0503 -0.2814 -0.6190
 2855SOL    HW118495   4.899  12.552  12.012 -0.1412 -0.3488 -0.6057
 2855SOL    HW218496   4.862  12.652  11.905  0.7078  0.3246 -0.2781
 2856SOL     OW18497   4.403   8.899   9.700 -0.6761  0.3731  0.0867
 2856SOL    HW118498   4.438   8.923   9.786 -1.4146 -0.0813  0.5312
 2856SOL    HW218499   4.392   8.982   9.654  1.8922  0.4783 -0.4591
 2857SOL     OW18500   8.077  12.177   7.664  0.2853 -0.3845 -0.5229
 2857SOL    HW118501   8.099  12.119   7.737  1.2083  0.8366  0.1969
 2857SOL    HW218502   8.155  12.178   7.610 -0.0950 -0.6139 -1.0803
 2858SOL     OW18503   6.059  13.086   2.498  1.1759  0.3860 -0.2335
 2858SOL    HW118504   6.154  13.095   2.493  1.0806  2.0140  0.3421
 2858SOL    HW218505   6.035  13.130   2.580  0.0481 -1.2153  0.3446
 2859SOL     OW18506   4.618   1.172   1.572  0.2322  0.2658 -0.2752
 2859SOL    HW118507   4.613   1.089   1.524  0.1907  0.3795 -0.4694
 2859SOL    HW218508   4.530   1.209   1.566 -0.5562 -0.9986  2.2234
 2860SOL     OW18509  11.087   2.349   3.556 -0.2913 -0.8515  0.0961
 2860SOL    HW118510  11.059   2.267   3.515 -2.2254 -0.4407  0.5060
 2860SOL    HW218511  11.043   2.417   3.506 -2.1410 -0.3023  2.2704
 2861SOL     OW18512   1.645   0.095   3.957 -0.2414 -0.2931 -0.1957
 2861SOL    HW118513   1.649   0.018   3.901  2.3670 -0.5262  0.1831
 2861SOL    HW218514   1.735   0.108   3.988 -1.1582  1.0477  2.2795
 2862SOL     OW18515   4.502   9.795   0.542 -0.0975 -0.6428 -0.3383
 2862SOL    HW118516   4.415   9.773   0.574 -0.5394 -0.9331 -1.6638
 2862SOL    HW218517   4.521   9.728   0.476  1.0581 -0.4815 -0.1980
 2863SOL     OW18518   9.744  12.469   8.314  0.0752 -0.0495 -0.1390
 2863SOL    HW118519   9.763  12.380   8.343 -0.8424 -0.3671 -0.4659
 2863SOL    HW218520   9.824  12.518   8.333  0.2685 -0.7258  0.9130
 2864SOL     OW18521  11.051   7.069   6.815 -0.4313  1.1919  0.2992
 2864SOL    HW118522  11.074   7.000   6.877  0.0958  1.4875  0.4405
 2864SOL    HW218523  11.053   7.026   6.730 -1.2252  0.7661  0.4857
 2865SOL     OW18524   9.948  10.999  10.275 -0.0635  0.6935 -0.1211
 2865SOL    HW118525  10.016  11.023  10.338 -1.0755 -1.2473  1.8412
 2865SOL    HW218526   9.996  10.964  10.200  1.1599 -0.1421  1.0041
 2866SOL     OW18527   5.589  12.611   9.417  0.5211  0.0295  0.2688
 2866SOL    HW118528   5.621  12.615   9.508  1.4293 -2.4367  0.1298
 2866SOL    HW218529   5.663  12.577   9.368 -1.4686 -3.7663 -0.4701
 2867SOL     OW18530  11.875   3.253   4.717 -0.4473  0.3133  0.0107
 2867SOL    HW118531  11.939   3.286   4.653  0.4609 -0.1303  0.6633
 2867SOL    HW218532  11.790   3.267   4.676  0.1624 -1.5579 -2.1045
 2868SOL     OW18533  10.926   8.735   5.899 -0.4191  0.2418  0.2433
 2868SOL    HW118534  10.855   8.752   5.960  0.2930  0.2565  1.0800
 2868SOL    HW218535  10.975   8.663   5.938  0.2737  0.5170 -0.1019
 2869SOL     OW18536  11.302   5.292   7.684 -0.7413  0.2531  0.1277
 2869SOL    HW118537  11.231   5.284   7.619 -0.3411 -1.3992 -0.1519
 2869SOL    HW218538  11.347   5.208   7.681  0.2872  0.7181  1.4294
 2870SOL     OW18539  10.716   2.690   4.889  0.2023  0.1142 -0.7848
 2870SOL    HW118540  10.663   2.752   4.939 -1.5654 -1.6586 -0.3033
 2870SOL    HW218541  10.806   2.712   4.910 -0.4326  1.1678  1.0114
 2871SOL     OW18542  11.462   0.822   2.862  0.0242  0.3269 -0.0294
 2871SOL    HW118543  11.437   0.759   2.929 -1.3868  1.8159  0.9164
 2871SOL    HW218544  11.379   0.849   2.823  0.6818  0.9407 -1.0491
 2872SOL     OW18545   0.706   5.785  12.509 -0.0494 -0.0703  0.0158
 2872SOL    HW118546   0.760   5.854  12.547  0.6082 -0.7661  0.3605
 2872SOL    HW218547   0.641   5.767  12.577  2.1841 -2.5534  1.6826
 2873SOL     OW18548   7.630  12.524   6.760 -0.3352 -0.2272 -0.0250
 2873SOL    HW118549   7.607  12.587   6.692 -1.0841 -1.4740 -0.9729
 2873SOL    HW218550   7.652  12.444   6.712  0.8804 -0.6176  1.1249
 2874SOL     OW18551  10.967   1.615   3.129 -0.1220  0.0752 -0.2208
 2874SOL    HW118552  11.048   1.667   3.126 -1.0611  1.5818 -0.2082
 2874SOL    HW218553  10.949   1.604   3.222  0.0546 -0.2737 -0.2235
 2875SOL     OW18554   5.948   9.009   6.295  0.0117 -0.3969 -0.0921
 2875SOL    HW118555   5.915   9.098   6.305 -0.4419 -0.6597  1.0361
 2875SOL    HW218556   5.869   8.954   6.294  0.2076 -0.6983 -2.1983
 2876SOL     OW18557   3.419   3.761   2.704  0.1054  0.6111  0.1887
 2876SOL    HW118558   3.379   3.848   2.712 -0.2755  0.5113 -0.5978
 2876SOL    HW218559   3.359   3.703   2.753  0.6629  0.8696  1.2079
 2877SOL     OW18560   3.553   6.326   8.853 -0.5813  0.8070  0.0223
 2877SOL    HW118561   3.494   6.400   8.848  0.6016  1.7904  0.0933
 2877SOL    HW218562   3.637   6.360   8.823 -0.0662 -0.5779 -0.2192
 2878SOL     OW18563   2.022   9.567   3.828 -0.3430 -0.0073  0.7239
 2878SOL    HW118564   2.023   9.499   3.760  1.1393  0.1062  0.5920
 2878SOL    HW218565   1.959   9.632   3.797  0.1397 -0.0724 -0.4493
 2879SOL     OW18566   8.608  13.077   7.970 -0.4707  1.0339 -0.1141
 2879SOL    HW118567   8.652  13.137   8.030 -2.0769  2.2286 -0.0717
 2879SOL    HW218568   8.537  13.039   8.021 -1.0746  1.1041 -0.8750
 2880SOL     OW18569   4.175  12.269   9.052  0.0854 -0.4939  0.1635
 2880SOL    HW118570   4.095  12.244   9.006 -0.7489  0.5621  0.9779
 2880SOL    HW218571   4.158  12.250   9.144  0.1243  1.2000  0.5676
 2881SOL     OW18572   4.748   7.863   8.017 -0.5399  0.7156  0.0287
 2881SOL    HW118573   4.663   7.821   8.004 -0.4604  1.1785 -2.5282
 2881SOL    HW218574   4.771   7.843   8.107 -3.5654  0.9741  0.9838
 2882SOL     OW18575  10.201  12.351  10.647 -0.2398 -0.6710 -0.0041
 2882SOL    HW118576  10.111  12.374  10.626  0.0879 -0.8814 -1.8016
 2882SOL    HW218577  10.207  12.361  10.742 -1.6947  0.9130 -0.0391
 2883SOL     OW18578   3.328   3.061   4.565  0.0024 -0.0977  0.3001
 2883SOL    HW118579   3.347   3.148   4.532 -1.8356  0.0873 -0.4091
 2883SOL    HW218580   3.314   3.073   4.659 -0.0524  0.3331  0.2391
 2884SOL     OW18581   0.163  12.083  12.193 -0.3723 -0.5336  0.1948
 2884SOL    HW118582   0.215  12.114  12.266  1.2451  0.0774 -1.1569
 2884SOL    HW218583   0.172  11.988  12.195  0.0940 -0.4831  0.4614
 2885SOL     OW18584   1.523   1.105  11.054 -0.4450  0.4101 -0.5915
 2885SOL    HW118585   1.503   1.012  11.052  0.9726  0.0731 -0.1690
 2885SOL    HW218586   1.509   1.135  10.964  1.6390 -0.8140 -1.4009
 2886SOL     OW18587   9.739   1.050   8.687  0.4780  0.3457 -0.3140
 2886SOL    HW118588   9.716   1.090   8.771  0.0619 -0.0167 -0.2513
 2886SOL    HW218589   9.665   1.071   8.630  0.5297  0.1604 -0.4476
 2887SOL     OW18590  11.439  11.014   1.045  0.4513  0.0636  0.4831
 2887SOL    HW118591  11.484  11.087   1.088  3.3365 -0.9881 -0.5330
 2887SOL    HW218592  11.471  11.016   0.954 -0.4671 -1.6483  0.0709
 2888SOL     OW18593   1.013   8.326   0.251 -0.1407 -0.2852  0.4761
 2888SOL    HW118594   0.997   8.256   0.188 -2.5945  0.4111  0.2216
 2888SOL    HW218595   1.003   8.284   0.336  0.9798 -0.7502  0.4000
 2889SOL     OW18596  10.551  10.412  10.605 -0.2656 -0.3803 -0.2867
 2889SOL    HW118597  10.505  10.388  10.525 -2.1587  0.9944  0.3157
 2889SOL    HW218598  10.636  10.445  10.575 -0.5291 -0.8590 -1.6288
 2890SOL     OW18599  10.148   1.200  12.359 -0.6308 -0.3330 -0.2626
 2890SOL    HW118600  10.153   1.293  12.382  1.6474 -0.7905  1.4808
 2890SOL    HW218601  10.095   1.162  12.429 -0.6768 -0.4995 -0.3885
 2891SOL     OW18602   1.491   9.169   1.042  0.5709  0.3707 -0.1596
 2891SOL    HW118603   1.453   9.154   0.955 -1.6979 -0.7063  0.9324
 2891SOL    HW218604   1.576   9.125   1.039 -0.5162 -1.8309 -1.1299
 2892SOL     OW18605   1.657   6.744   2.571  0.0402 -0.1283  0.4313
 2892SOL    HW118606   1.596   6.789   2.513 -1.2946 -1.6669  0.5906
 2892SOL    HW218607   1.605   6.675   2.612  1.3260 -0.0677  2.2908
 2893SOL     OW18608   6.234   2.300  10.283 -0.0148  0.3454 -0.1146
 2893SOL    HW118609   6.261   2.388  10.310  0.0021  0.5057 -0.6456
 2893SOL    HW218610   6.161   2.314  10.224 -0.3079 -0.0218  0.1570
 2894SOL     OW18611   8.042  10.197   9.711 -0.4754  0.5749  0.1687
 2894SOL    HW118612   8.049  10.221   9.803  0.2567 -0.4192  0.3908
 2894SOL    HW218613   7.971  10.133   9.708  0.8672 -1.0072  0.4255
 2895SOL     OW18614   5.018   6.573   0.708  0.2154  0.6906 -0.3159
 2895SOL    HW118615   5.012   6.541   0.618 -2.0119 -0.9454  0.3288
 2895SOL    HW218616   5.087   6.520   0.748  0.7876  1.0038 -0.8760
 2896SOL     OW18617  11.101   0.008  10.931 -0.1226 -0.2048 -0.2562
 2896SOL    HW118618  11.039   0.038  10.998  0.4037 -1.3351  0.7780
 2896SOL    HW218619  11.049  -0.050  10.875 -0.5942  0.8335 -0.9140
 2897SOL     OW18620   5.504  12.869   8.386 -0.6976 -0.4911  0.0221
 2897SOL    HW118621   5.483  12.890   8.477 -0.8574 -1.0507  0.1192
 2897SOL    HW218622   5.577  12.807   8.392  0.0434  0.3306 -0.2712
 2898SOL     OW18623  12.433   5.263   3.471  0.0161 -0.2724 -0.0441
 2898SOL    HW118624  12.411   5.257   3.378 -0.3931 -0.2418  0.0447
 2898SOL    HW218625  12.469   5.177   3.493 -0.4809 -0.5007 -0.0900
 2899SOL     OW18626   8.649   5.784  10.880  0.5117  0.5464 -0.2631
 2899SOL    HW118627   8.599   5.726  10.937  0.1250  0.2327 -0.9127
 2899SOL    HW218628   8.650   5.740  10.795  0.0302  1.5711 -0.8235
 2900SOL     OW18629   2.602  12.358   3.466 -0.4091 -0.2099 -0.4634
 2900SOL    HW118630   2.575  12.274   3.504 -0.2983  0.8592  2.1837
 2900SOL    HW218631   2.584  12.349   3.372 -2.9563 -2.2077  0.1145
 2901SOL     OW18632   1.987   8.426  11.587 -0.3990  0.2007 -0.0355
 2901SOL    HW118633   1.955   8.502  11.540 -1.7568  0.9672  1.9635
 2901SOL    HW218634   1.908   8.375  11.608  0.0573  0.1070  1.6619
 2902SOL     OW18635   3.857   2.874   8.645  0.3460 -0.0311  0.2295
 2902SOL    HW118636   3.906   2.899   8.567  1.7487 -2.0347  0.3903
 2902SOL    HW218637   3.808   2.797   8.619 -1.3523  0.8817  0.5978
 2903SOL     OW18638   7.866  10.115   7.194 -0.0181  0.2886 -0.0058
 2903SOL    HW118639   7.782  10.078   7.169  0.6407 -1.1200 -0.2024
 2903SOL    HW218640   7.844  10.186   7.254 -1.3788  0.5007 -0.7220
 2904SOL     OW18641   2.977  13.019   9.158 -0.2793  0.2087  0.2008
 2904SOL    HW118642   3.059  13.037   9.111  0.5436 -1.0562  1.0857
 2904SOL    HW218643   3.001  13.029   9.251 -1.5822  1.5358  0.4245
 2905SOL     OW18644   0.825   7.346   2.327  0.9597  0.0590  0.5109
 2905SOL    HW118645   0.917   7.365   2.342  1.5768 -0.9085 -1.5596
 2905SOL    HW218646   0.792   7.422   2.278  1.1372 -0.3183 -0.2172
 2906SOL     OW18647   0.402   8.755   2.600 -0.3867 -0.9672 -0.0225
 2906SOL    HW118648   0.439   8.729   2.516 -0.5166 -1.7196  0.1468
 2906SOL    HW218649   0.348   8.832   2.580  0.5778 -0.3773 -0.4083
 2907SOL     OW18650  12.434   6.897   6.838 -0.4576 -0.4014 -0.2883
 2907SOL    HW118651  12.528   6.906   6.857 -0.8344  0.1022  1.6089
 2907SOL    HW218652  12.426   6.812   6.796  0.8747 -0.3757 -0.6388
 2908SOL     OW18653  10.688  10.910  10.864  0.0355 -0.6322 -0.5469
 2908SOL    HW118654  10.635  10.870  10.795 -0.5367 -0.6972 -0.0704
 2908SOL    HW218655  10.723  10.835  10.913 -1.0216 -0.5690  0.3338
 2909SOL     OW18656  11.917   9.339   4.974 -0.1756 -0.3413  0.7817
 2909SOL    HW118657  11.868   9.415   4.944  0.5298 -0.2039 -0.0264
 2909SOL    HW218658  11.851   9.270   4.980 -0.5725 -0.0202  0.2077
 2910SOL     OW18659   9.314   4.078   2.130  0.3731  0.2332  0.5009
 2910SOL    HW118660   9.292   4.165   2.095 -0.4444 -0.1932 -0.0991
 2910SOL    HW218661   9.244   4.021   2.097  1.0807 -0.7193  0.6052
 2911SOL     OW18662  10.815   5.259   7.043  0.0813 -0.1513  0.3751
 2911SOL    HW118663  10.828   5.200   6.969  1.4935 -1.1465  1.3503
 2911SOL    HW218664  10.823   5.347   7.006  0.9943 -0.6363 -0.6149
 2912SOL     OW18665   3.928   3.648   0.025  0.3385  0.1516  0.5295
 2912SOL    HW118666   3.959   3.688   0.107  0.9912  0.1490  0.2938
 2912SOL    HW218667   3.992   3.676  -0.041 -2.5693  4.0276 -1.0225
 2913SOL     OW18668  10.885   0.863   6.240 -0.2485 -0.0674 -0.3819
 2913SOL    HW118669  10.820   0.832   6.303  0.9395  0.2708  1.0759
 2913SOL    HW218670  10.960   0.804   6.252  0.7439  1.2090 -0.0151
 2914SOL     OW18671   2.272   6.169   8.272  0.6603 -0.1254  0.0767
 2914SOL    HW118672   2.190   6.122   8.253  1.1335 -1.1743  0.5899
 2914SOL    HW218673   2.279   6.233   8.201 -1.2693  0.8876  0.7174
 2915SOL     OW18674   5.829   8.616   7.664  0.3293  0.0559  0.0310
 2915SOL    HW118675   5.744   8.583   7.693  0.0956  0.3622 -0.3012
 2915SOL    HW218676   5.845   8.692   7.719 -0.5670  1.2247 -1.2604
 2916SOL     OW18677   4.298   1.579   4.207 -0.2796 -0.1650  0.0018
 2916SOL    HW118678   4.358   1.585   4.281 -2.3130  1.2612  1.6505
 2916SOL    HW218679   4.335   1.635   4.140  0.0343  1.0390  1.1556
 2917SOL     OW18680   6.885   7.065  11.856  0.0446  0.0498 -0.1754
 2917SOL    HW118681   6.820   7.002  11.885 -0.3773  0.0413 -1.0928
 2917SOL    HW218682   6.953   7.063  11.924 -0.1208 -1.1354 -0.0207
 2918SOL     OW18683   1.130   4.670   9.657 -0.0075 -0.2687 -0.4249
 2918SOL    HW118684   1.116   4.577   9.638 -0.4661 -0.0064 -1.4520
 2918SOL    HW218685   1.220   4.686   9.628 -0.7946  0.2002 -2.9047
 2919SOL     OW18686  12.536   1.562   4.930 -0.3440  0.2072  0.3297
 2919SOL    HW118687  12.506   1.627   4.866  0.6749 -1.6706 -2.2695
 2919SOL    HW218688  12.620   1.532   4.895  0.2135 -1.0408  2.5607
 2920SOL     OW18689  11.483   6.473  12.474  0.1842  0.1709 -0.0928
 2920SOL    HW118690  11.550   6.451  12.539 -0.8793 -0.9594  0.6685
 2920SOL    HW218691  11.474   6.568  12.481  0.5257  0.1406  0.9796
 2921SOL     OW18692   3.701  12.087  12.673  0.1723 -0.5314 -0.0544
 2921SOL    HW118693   3.723  12.002  12.634 -0.1138 -0.6167 -0.0344
 2921SOL    HW218694   3.779  12.111  12.723 -0.0058 -1.1350  0.5445
 2922SOL     OW18695  12.014   5.965   9.343 -0.0833 -0.3137  0.1963
 2922SOL    HW118696  12.031   5.906   9.269  0.3713  0.9614 -0.7411
 2922SOL    HW218697  11.934   6.011   9.319  1.9861  2.8524 -1.4034
 2923SOL     OW18698   3.952   0.588   6.246 -0.2956  0.1244 -0.4257
 2923SOL    HW118699   3.879   0.529   6.228 -0.0652 -0.3229  0.0851
 2923SOL    HW218700   3.927   0.671   6.204 -0.4567 -0.4298 -1.4679
 2924SOL     OW18701  12.566   6.629   2.440  0.2235 -0.0038 -0.1075
 2924SOL    HW118702  12.631   6.574   2.396  0.3293  0.6107 -0.7319
 2924SOL    HW218703  12.616   6.678   2.505  0.4313  0.6267 -0.7333
 2925SOL     OW18704   6.798   5.715   2.125  0.4978  0.2973 -0.2011
 2925SOL    HW118705   6.802   5.688   2.034  1.6702  3.1128 -1.0602
 2925SOL    HW218706   6.722   5.773   2.130  0.7538  0.5823  0.5017
 2926SOL     OW18707   3.827   7.557  12.349  0.1141 -0.0011  0.4367
 2926SOL    HW118708   3.818   7.643  12.390  0.1064 -0.5143  1.5516
 2926SOL    HW218709   3.885   7.508  12.408  1.9871 -0.0514 -1.3687
 2927SOL     OW18710   4.884  12.334  12.549 -0.2558  0.2439 -0.0087
 2927SOL    HW118711   4.928  12.388  12.615  0.0838  0.6169 -0.5330
 2927SOL    HW218712   4.889  12.245  12.584 -1.0628  0.5795  0.9929
 2928SOL     OW18713   4.103   1.215   6.629 -0.3661 -0.1785 -0.6152
 2928SOL    HW118714   4.085   1.174   6.544  0.5946 -1.3341 -0.2869
 2928SOL    HW218715   4.018   1.250   6.657 -0.8602 -0.4749 -1.6856
 2929SOL     OW18716   5.116  12.067   4.847  0.1166 -0.9186 -0.1235
 2929SOL    HW118717   5.179  11.997   4.832 -1.7961 -2.6076 -0.8260
 2929SOL    HW218718   5.039  12.041   4.795 -1.7305  0.1565  1.9045
 2930SOL     OW18719   6.520   4.333   0.682  0.5043 -0.0613 -0.3997
 2930SOL    HW118720   6.464   4.381   0.742  1.0055 -1.2904  1.1184
 2930SOL    HW218721   6.506   4.375   0.597 -2.3133  0.0179 -0.0004
 2931SOL     OW18722  11.377   2.552   1.751  0.2441 -0.1914  0.0763
 2931SOL    HW118723  11.422   2.623   1.705 -0.8294 -0.4145 -1.4132
 2931SOL    HW218724  11.336   2.594   1.826 -0.5298  0.8362 -0.8840
 2932SOL     OW18725   2.783   8.324  10.444 -0.0118 -0.5225 -0.3645
 2932SOL    HW118726   2.688   8.323  10.459  0.2023 -0.6773  1.1170
 2932SOL    HW218727   2.817   8.384  10.510  1.0955 -1.8781  0.3437
 2933SOL     OW18728   6.393   0.417   1.218 -0.4046  0.1813  0.2109
 2933SOL    HW118729   6.312   0.413   1.269 -0.1905  0.6499  0.5991
 2933SOL    HW218730   6.404   0.329   1.183 -2.1758  0.5813 -1.5632
 2934SOL     OW18731   5.172  10.327  13.272  0.2008 -0.7133 -0.5369
 2934SOL    HW118732   5.141  10.263  13.335 -0.2525  1.8475  2.0575
 2934SOL    HW218733   5.113  10.402  13.283  1.8040  0.8789 -2.0517
 2935SOL     OW18734   8.560   8.611  11.547  0.3610 -0.0824  0.8697
 2935SOL    HW118735   8.563   8.694  11.594  1.2931  0.6739 -0.4832
 2935SOL    HW218736   8.469   8.581  11.558 -0.6064  2.1338 -0.3237
 2936SOL     OW18737   4.490   4.834   7.863 -0.1866 -0.2435 -0.1830
 2936SOL    HW118738   4.422   4.899   7.846  0.8109  0.7031 -0.6758
 2936SOL    HW218739   4.463   4.790   7.943 -0.0162  1.9881  1.1666
 2937SOL     OW18740   2.078   7.546   6.535 -0.3863 -0.3002 -0.7395
 2937SOL    HW118741   2.168   7.514   6.521 -0.6514 -1.7797  0.6521
 2937SOL    HW218742   2.089   7.634   6.572  0.5886 -1.2385  1.3423
 2938SOL     OW18743   1.958   6.608  12.672  0.0912  0.1797 -0.1846
 2938SOL    HW118744   1.909   6.528  12.691 -0.8585  0.6750 -0.5269
 2938SOL    HW218745   1.952   6.659  12.753 -0.6200  0.5723 -0.4767
 2939SOL     OW18746   4.997   2.466  10.639  0.0923 -0.4051  0.3092
 2939SOL    HW118747   4.915   2.430  10.604  0.2663 -0.3284 -0.1930
 2939SOL    HW218748   4.997   2.557  10.609  1.4859 -1.0287 -1.7705
 2940SOL     OW18749   5.393   2.792   5.266 -0.1788 -0.0000  0.1941
 2940SOL    HW118750   5.386   2.886   5.284 -0.5223 -0.0364  0.2542
 2940SOL    HW218751   5.313   2.755   5.303  0.3973 -0.4470  1.0319
 2941SOL     OW18752   1.715  11.779   0.839 -0.1779  0.3992 -0.0295
 2941SOL    HW118753   1.711  11.765   0.745 -0.4402 -2.2144  0.2982
 2941SOL    HW218754   1.631  11.747   0.871  0.5547 -0.2956  1.2544
 2942SOL     OW18755   9.795   9.698   0.108 -0.0522 -0.4998  0.1723
 2942SOL    HW118756   9.839   9.780   0.129  0.6508 -0.8388  0.0593
 2942SOL    HW218757   9.705   9.711   0.138  0.0913  0.2475  0.3026
 2943SOL     OW18758  11.339   2.117   4.665 -0.2333  0.4831 -0.1447
 2943SOL    HW118759  11.321   2.061   4.741 -1.3204  0.2239 -0.5858
 2943SOL    HW218760  11.337   2.206   4.701 -0.3179  0.3401  0.2115
 2944SOL     OW18761   4.508   6.191  12.281 -0.3227 -0.0807  0.7359
 2944SOL    HW118762   4.427   6.219  12.323  0.2554  1.0604  1.1550
 2944SOL    HW218763   4.566   6.168  12.354 -0.5779 -1.8583  0.4144
 2945SOL     OW18764   2.197  10.294   0.782  0.6588 -0.6237  0.1001
 2945SOL    HW118765   2.279  10.336   0.809 -0.6971  0.9259  2.0764
 2945SOL    HW218766   2.144  10.293   0.861 -0.8660 -2.5621 -0.8838
 2946SOL     OW18767   1.953  10.110  11.370  0.0060  0.2344  0.4135
 2946SOL    HW118768   2.007  10.091  11.446  0.9746 -0.3046 -0.3879
 2946SOL    HW218769   1.986  10.194  11.337 -1.7417  1.5245  1.7138
 2947SOL     OW18770  10.630   4.240  12.680 -0.0836  0.0353  0.4568
 2947SOL    HW118771  10.552   4.290  12.657  1.7645  3.1153  0.2442
 2947SOL    HW218772  10.695   4.307  12.703  2.5932 -2.3217  0.3149
 2948SOL     OW18773   7.271  11.576   6.947 -0.1031 -0.5805  0.0271
 2948SOL    HW118774   7.221  11.499   6.920  4.0719 -3.1798 -1.2282
 2948SOL    HW218775   7.296  11.557   7.038 -2.2021  1.3100  1.1047
 2949SOL     OW18776  12.962   1.145  11.421 -0.0192  0.0279 -0.4032
 2949SOL    HW118777  12.986   1.136  11.329 -0.5457 -0.9712 -0.4569
 2949SOL    HW218778  13.006   1.225  11.449  0.4970  0.1187 -1.4075
 2950SOL     OW18779   9.515   6.563   3.561 -0.2507  0.1486 -0.2057
 2950SOL    HW118780   9.542   6.566   3.469 -1.4604  1.6603 -0.5479
 2950SOL    HW218781   9.469   6.479   3.570 -0.1264 -0.0074 -0.9691
 2951SOL     OW18782   4.558  13.198   1.143  0.1395  0.3714 -0.8830
 2951SOL    HW118783   4.595  13.277   1.103  1.3660 -0.4154 -1.3140
 2951SOL    HW218784   4.537  13.141   1.070 -2.7251  1.0565 -0.7473
 2952SOL     OW18785  10.567   8.716   1.313  0.0527 -0.0494 -0.4145
 2952SOL    HW118786  10.571   8.655   1.239  0.7449  0.3929 -0.7566
 2952SOL    HW218787  10.553   8.802   1.272 -0.3369  0.0987  0.0202
 2953SOL     OW18788  12.042   9.197   4.276 -0.1157  0.3474  0.1003
 2953SOL    HW118789  12.067   9.110   4.244 -0.7515 -0.0871  0.7330
 2953SOL    HW218790  12.124   9.236   4.307  0.4182  0.5560 -1.4653
 2954SOL     OW18791  11.122  10.464   2.890 -0.0570 -0.4839  0.1256
 2954SOL    HW118792  11.124  10.381   2.842 -0.5449  0.1402 -1.0091
 2954SOL    HW218793  11.189  10.518   2.847 -1.3789  0.5329 -0.7153
 2955SOL     OW18794   3.441   5.311   6.318 -0.3493  0.6229 -0.1807
 2955SOL    HW118795   3.348   5.302   6.336  0.1406 -2.4808  1.3840
 2955SOL    HW218796   3.459   5.248   6.249  0.4854  1.9036 -1.2009
 2956SOL     OW18797  12.156   3.033   1.924 -0.5426 -0.5435  0.3752
 2956SOL    HW118798  12.120   3.066   1.841 -0.4708 -1.0494  0.1385
 2956SOL    HW218799  12.103   3.075   1.991 -1.1010 -0.7123  0.0478
 2957SOL     OW18800   0.589   9.640   7.872  0.0428  0.0511  0.4748
 2957SOL    HW118801   0.626   9.552   7.876 -0.7974 -0.4259 -1.2278
 2957SOL    HW218802   0.500   9.627   7.840 -0.0375  1.5308  0.0199
 2958SOL     OW18803   4.898   0.201  12.437  0.3602  0.3423  0.0113
 2958SOL    HW118804   4.962   0.272  12.441  0.2893  0.4777 -0.9353
 2958SOL    HW218805   4.939   0.128  12.484  0.1462  1.2059  1.6106
 2959SOL     OW18806  12.953   7.490   1.597 -0.4245  0.3391 -0.8008
 2959SOL    HW118807  12.989   7.412   1.554 -1.7570 -0.0454 -1.2539
 2959SOL    HW218808  12.990   7.563   1.548  2.7045  0.1885  1.0172
 2960SOL     OW18809   3.320   9.965   3.354  0.2103 -0.0245 -0.0536
 2960SOL    HW118810   3.307   9.914   3.274 -0.1742  0.8505 -0.5535
 2960SOL    HW218811   3.232   9.978   3.389  0.0999  1.9168 -0.9545
 2961SOL     OW18812   2.463  12.180   2.943 -0.2810  0.0297  0.0747
 2961SOL    HW118813   2.547  12.134   2.936  0.7285  1.9956 -1.6683
 2961SOL    HW218814   2.472  12.256   2.886 -3.4529  0.0723 -0.5419
 2962SOL     OW18815  11.542   8.279  11.077  0.6006 -0.5441  0.2038
 2962SOL    HW118816  11.565   8.355  11.131  1.2237 -0.5003 -0.1157
 2962SOL    HW218817  11.450   8.292  11.056  1.3113  1.5553 -2.0885
 2963SOL     OW18818  12.400  12.318  12.882  0.4886  0.5178  0.1763
 2963SOL    HW118819  12.476  12.333  12.938  0.2528  0.3434  0.5509
 2963SOL    HW218820  12.401  12.224  12.864 -1.6361 -0.2566  3.2016
 2964SOL     OW18821  11.799   8.615   0.189  0.3642  0.0222 -0.3215
 2964SOL    HW118822  11.854   8.545   0.153 -0.9945 -0.0624 -2.4296
 2964SOL    HW218823  11.858   8.667   0.242  1.7186 -1.9330  0.2198
 2965SOL     OW18824   6.497  13.262   8.751 -0.0054 -0.4179 -0.1348
 2965SOL    HW118825   6.578  13.216   8.771 -0.2330 -0.1486  1.5382
 2965SOL    HW218826   6.502  13.344   8.801 -0.4012  0.5839 -1.6381
 2966SOL     OW18827   9.332  13.237   0.093  0.1733  0.5184  0.2046
 2966SOL    HW118828   9.309  13.244   0.000  1.2278 -1.0859 -0.2288
 2966SOL    HW218829   9.248  13.241   0.139 -0.3177  1.9533 -0.7538
 2967SOL     OW18830  12.153   3.566   3.981  0.1950  0.8380 -0.0562
 2967SOL    HW118831  12.080   3.579   4.042  0.2477  0.3577  0.1096
 2967SOL    HW218832  12.163   3.651   3.938 -0.6543  0.8251 -0.2933
 2968SOL     OW18833  10.603   0.383  12.372 -0.2738 -0.3031 -0.6261
 2968SOL    HW118834  10.607   0.477  12.351 -0.5523 -0.4953 -1.5527
 2968SOL    HW218835  10.511   0.360  12.360  0.4228 -1.6516 -4.7708
 2969SOL     OW18836  10.403   4.846   8.119 -0.1235  0.2257  0.2194
 2969SOL    HW118837  10.319   4.803   8.111  0.5159 -0.9250 -0.6128
 2969SOL    HW218838  10.460   4.781   8.159  0.4411  0.9074  0.5611
 2970SOL     OW18839   1.098   5.757  11.162  0.0962  0.1723  0.1091
 2970SOL    HW118840   1.165   5.822  11.185  0.2925 -0.1013  0.3147
 2970SOL    HW218841   1.051   5.741  11.244 -0.5713  0.7570 -0.1491
 2971SOL     OW18842   4.709   4.198   3.039 -0.0209 -0.6648 -0.9056
 2971SOL    HW118843   4.749   4.280   3.008 -1.7060 -0.0843 -1.7183
 2971SOL    HW218844   4.657   4.224   3.115  1.1564 -1.4125  0.1848
 2972SOL     OW18845  13.164   5.571   7.007  0.0815  0.4096 -0.1583
 2972SOL    HW118846  13.257   5.593   7.010  0.9171 -1.8392 -3.4300
 2972SOL    HW218847  13.119   5.655   7.000  1.9194  1.5143  0.6789
 2973SOL     OW18848   2.541   1.546   3.382 -0.1662  0.0234 -0.0591
 2973SOL    HW118849   2.506   1.577   3.298  0.5582  0.0433 -0.3588
 2973SOL    HW218850   2.611   1.486   3.357  1.0236  1.1269  0.5287
 2974SOL     OW18851   5.240  11.259   2.797 -0.3256 -0.0747 -0.0215
 2974SOL    HW118852   5.329  11.287   2.819 -0.1478 -1.1244  0.6378
 2974SOL    HW218853   5.184  11.319   2.846  0.0091  0.4876 -0.3093
 2975SOL     OW18854   8.875  11.514  10.816  0.2499  0.1122 -0.1920
 2975SOL    HW118855   8.897  11.520  10.909 -0.3253  1.9478 -0.1467
 2975SOL    HW218856   8.953  11.546  10.771  0.5066 -0.7227 -0.3580
 2976SOL     OW18857   7.036   5.679   1.675 -0.1461  0.1147 -0.8822
 2976SOL    HW118858   7.078   5.651   1.756 -0.2517  0.9357 -0.5255
 2976SOL    HW218859   7.035   5.602   1.619  1.1955 -0.1064 -0.6272
 2977SOL     OW18860   2.043   7.216  11.264 -0.2144  0.0849 -0.5713
 2977SOL    HW118861   2.046   7.207  11.359 -1.0737  0.3692 -0.5120
 2977SOL    HW218862   1.970   7.276  11.247 -0.0585  0.0554 -1.4091
 2978SOL     OW18863   3.951   6.578  12.376  0.0603  0.3009  0.0848
 2978SOL    HW118864   4.017   6.637  12.340  0.3536  0.0338  0.1839
 2978SOL    HW218865   3.895   6.634  12.429  0.4051  0.4708  0.2705
 2979SOL     OW18866   6.258   6.654   9.601  0.3218  0.5089 -0.0516
 2979SOL    HW118867   6.353   6.666   9.609  0.5379 -0.4397 -1.0559
 2979SOL    HW218868   6.235   6.698   9.519 -0.3929  2.1366  0.9695
 2980SOL     OW18869  11.888   9.682   2.622 -0.0535 -0.5685 -0.0417
 2980SOL    HW118870  11.793   9.684   2.625 -0.1617 -0.9254 -1.9133
 2980SOL    HW218871  11.913   9.613   2.684 -0.9235  0.2143  1.2265
 2981SOL     OW18872  11.350  11.058   7.024  0.7756  0.1035  0.0057
 2981SOL    HW118873  11.431  11.037   6.977  0.6670  0.5537 -0.3843
 2981SOL    HW218874  11.379  11.098   7.105  0.9509  1.8163 -0.8482
 2982SOL     OW18875   0.106  10.687   6.640  0.1780  0.1344  0.0241
 2982SOL    HW118876   0.048  10.735   6.581 -2.5116 -1.6689  0.9900
 2982SOL    HW218877   0.122  10.603   6.596  0.4233 -0.1505  0.6387
 2983SOL     OW18878   8.032   7.752   8.436 -0.5248  0.4202  0.6383
 2983SOL    HW118879   8.015   7.846   8.442 -2.2405  0.1015  1.4702
 2983SOL    HW218880   7.955   7.712   8.475  1.0276 -1.3113  2.0880
 2984SOL     OW18881   1.672   0.795  10.418 -0.4068  0.3326  0.0025
 2984SOL    HW118882   1.641   0.738  10.348 -1.1362 -0.1948  0.7401
 2984SOL    HW218883   1.687   0.736  10.492  0.1846  0.9081  0.3533
 2985SOL     OW18884  11.890  12.558  10.105  0.4745  0.2983  0.0814
 2985SOL    HW118885  11.917  12.511  10.184 -0.0141  1.3832  0.9159
 2985SOL    HW218886  11.885  12.649  10.132  0.3234  0.6949 -1.2218
 2986SOL     OW18887  11.120   6.450   5.771 -0.1164  0.1393 -0.7317
 2986SOL    HW118888  11.172   6.445   5.852  1.8500  0.7960 -1.8785
 2986SOL    HW218889  11.186   6.452   5.701 -1.7664 -1.3878 -2.4375
 2987SOL     OW18890   8.084   1.841  10.348 -0.4466 -0.2455  0.1266
 2987SOL    HW118891   8.069   1.886  10.431 -0.7836 -1.4839  0.7485
 2987SOL    HW218892   8.160   1.885  10.310 -0.0478  0.0654  1.2660
 2988SOL     OW18893   1.270   9.701   6.609 -0.0819  0.2964  0.1812
 2988SOL    HW118894   1.342   9.642   6.631 -0.6867 -0.6608 -0.3475
 2988SOL    HW218895   1.271   9.706   6.514 -1.2752 -0.4753  0.1022
 2989SOL     OW18896   4.966   4.430  11.132 -0.1306  0.3491  0.1547
 2989SOL    HW118897   4.929   4.518  11.132 -0.4744  0.2100  0.8116
 2989SOL    HW218898   4.901   4.376  11.087  0.4937  0.5806 -1.0902
 2990SOL     OW18899  11.375   5.316  10.611 -0.0761  0.0863 -0.0360
 2990SOL    HW118900  11.304   5.274  10.563  1.0173  0.0609 -1.7327
 2990SOL    HW218901  11.421   5.368  10.545  1.6723 -0.1720  0.9056
 2991SOL     OW18902   7.511   5.316   1.361 -0.9838  0.7506 -0.2170
 2991SOL    HW118903   7.601   5.347   1.350 -0.0934 -1.7247 -0.6481
 2991SOL    HW218904   7.457   5.381   1.317  0.7805  1.3805 -1.5642
 2992SOL     OW18905   0.672   1.849  11.002  0.0672 -0.2136  0.0132
 2992SOL    HW118906   0.675   1.912  10.930  0.9298  1.7792  1.6723
 2992SOL    HW218907   0.736   1.782  10.978  2.4499  1.8784  0.0902
 2993SOL     OW18908  10.861   3.098  11.875  0.0466 -0.0504  0.1931
 2993SOL    HW118909  10.896   3.181  11.841  1.7962 -0.9747 -0.3768
 2993SOL    HW218910  10.803   3.124  11.946  2.0113  1.6234  1.2970
 2994SOL     OW18911   4.230  12.024   1.555  0.2556  0.1127  0.5106
 2994SOL    HW118912   4.230  12.115   1.582 -1.4194  0.4538 -0.5027
 2994SOL    HW218913   4.278  11.978   1.625  2.3588  1.9128  0.3417
 2995SOL     OW18914  11.615   1.915  10.296  0.3667  0.1499  0.5270
 2995SOL    HW118915  11.685   1.973  10.267  0.6818 -1.0462 -1.2975
 2995SOL    HW218916  11.660   1.839  10.333  0.1994 -1.2898 -1.9612
 2996SOL     OW18917   0.471  11.303  12.897 -0.0050 -0.7313 -0.0536
 2996SOL    HW118918   0.552  11.341  12.861 -0.0257 -0.0387  0.5848
 2996SOL    HW218919   0.463  11.344  12.984 -0.2416 -1.9296  0.5125
 2997SOL     OW18920  11.139   4.999   3.243  0.2659  0.6372 -0.0281
 2997SOL    HW118921  11.132   5.094   3.252  1.6303  0.9449 -1.6142
 2997SOL    HW218922  11.143   4.985   3.149  3.1914 -0.6778  0.1868
 2998SOL     OW18923   7.092   9.556   0.866  0.3721 -0.1798 -0.0343
 2998SOL    HW118924   7.007   9.594   0.890  0.4146 -0.0075 -0.1493
 2998SOL    HW218925   7.087   9.545   0.771  0.0531 -1.2361  0.0980
 2999SOL     OW18926  13.087   1.682   7.080  0.2519  1.0415  0.2073
 2999SOL    HW118927  13.106   1.633   7.000  0.6126  0.4356  0.6542
 2999SOL    HW218928  13.026   1.626   7.128 -1.4076  2.1936 -0.4335
 3000SOL     OW18929   6.258  10.092  10.061 -0.1893  0.0676 -0.2955
 3000SOL    HW118930   6.249  10.117  10.153 -1.0965 -0.0776 -0.3368
 3000SOL    HW218931   6.291  10.170  10.017 -0.9872  0.5347 -0.0668
 3001SOL     OW18932   5.438  10.718   8.523  0.2095  0.2813  0.4028
 3001SOL    HW118933   5.350  10.698   8.557 -0.0880  0.3393 -0.3067
 3001SOL    HW218934   5.476  10.633   8.504 -0.2786  0.2850 -0.6965
 3002SOL     OW18935   5.184   5.860   5.849 -0.3109 -0.2467  0.0708
 3002SOL    HW118936   5.157   5.770   5.827  2.2170 -0.8031 -1.0888
 3002SOL    HW218937   5.145   5.913   5.779 -0.3268 -0.7056 -0.2810
 3003SOL     OW18938   6.664   9.136   4.460  0.2068 -0.3961  0.6488
 3003SOL    HW118939   6.706   9.152   4.375 -1.6257  1.9863  0.0744
 3003SOL    HW218940   6.678   9.043   4.476  1.6299 -0.6813 -1.6908
 3004SOL     OW18941   0.337   5.051   7.788 -0.0921 -0.6694  0.8582
 3004SOL    HW118942   0.360   5.034   7.879 -0.4822 -0.0545  1.0846
 3004SOL    HW218943   0.287   4.974   7.761  0.1397 -0.9146  1.1225
 3005SOL     OW18944   5.147  10.147   5.552  0.4586 -0.6507  0.1014
 3005SOL    HW118945   5.206  10.084   5.510  1.7748  0.7691 -0.2551
 3005SOL    HW218946   5.065  10.138   5.503  1.4500 -0.2152 -1.7553
 3006SOL     OW18947   1.135   1.844   1.768  0.3550 -0.2555 -0.5188
 3006SOL    HW118948   1.059   1.795   1.737  1.1529 -1.8655 -0.0641
 3006SOL    HW218949   1.162   1.798   1.848  0.4260  1.6899  0.6333
 3007SOL     OW18950   0.194   2.689   0.347 -0.1649  0.8211  0.0592
 3007SOL    HW118951   0.249   2.612   0.357 -2.0464 -0.3825  1.8771
 3007SOL    HW218952   0.221   2.747   0.418 -0.1430  0.9482 -0.0515
 3008SOL     OW18953   4.906   8.528   4.414  0.4773  0.2644  0.4656
 3008SOL    HW118954   4.863   8.609   4.387  2.0772  1.2645  0.7760
 3008SOL    HW218955   4.918   8.536   4.508  0.4201 -0.4564  0.5451
 3009SOL     OW18956  10.264   1.475   1.245  0.2984 -0.0680 -0.1268
 3009SOL    HW118957  10.236   1.417   1.315 -0.5894 -0.7937 -1.0356
 3009SOL    HW218958  10.187   1.480   1.187  1.5668 -0.9993 -2.0037
 3010SOL     OW18959  11.042  12.226   3.014 -0.7636 -0.0687  0.3476
 3010SOL    HW118960  11.043  12.205   2.921 -2.9230  0.9885  0.0145
 3010SOL    HW218961  10.949  12.241   3.034 -0.1118  2.2869  2.0671
 3011SOL     OW18962   5.635  12.133   5.346  0.1290 -0.0007  0.2227
 3011SOL    HW118963   5.572  12.203   5.332  0.4727 -0.1472 -2.5442
 3011SOL    HW218964   5.662  12.143   5.438 -0.3559  3.0225  0.1300
 3012SOL     OW18965   8.511   2.104   2.569  0.2387  0.0206  0.0188
 3012SOL    HW118966   8.484   2.082   2.480  1.1743 -1.0590 -0.0103
 3012SOL    HW218967   8.568   2.180   2.559  2.1508 -1.4368 -0.5647
 3013SOL     OW18968   2.281   4.798   7.070  0.4535 -0.2477  0.4340
 3013SOL    HW118969   2.310   4.880   7.031 -0.6943 -0.0842 -0.1237
 3013SOL    HW218970   2.186   4.808   7.080 -0.1432 -2.4120 -1.9540
 3014SOL     OW18971   7.732  12.770   3.344  0.1423 -0.0503  0.0804
 3014SOL    HW118972   7.800  12.797   3.283 -1.3320  2.5635 -0.5641
 3014SOL    HW218973   7.772  12.700   3.395  2.2934 -0.5880 -2.1539
 3015SOL     OW18974  10.810   2.454   0.431 -0.0843  0.0297 -0.3814
 3015SOL    HW118975  10.770   2.374   0.398  1.2264 -0.7710 -0.1095
 3015SOL    HW218976  10.739   2.501   0.475 -1.1720 -0.3235 -1.6994
 3016SOL     OW18977   0.629   2.830   1.609 -0.0153  0.7621 -0.0032
 3016SOL    HW118978   0.639   2.914   1.653  3.0275  0.1750  0.6661
 3016SOL    HW218979   0.619   2.852   1.516  1.3859  1.8913  0.0785
 3017SOL     OW18980  10.061  12.327   1.163 -0.1503  0.3306 -0.3766
 3017SOL    HW118981  10.074  12.413   1.202 -1.9220  0.2375  0.5200
 3017SOL    HW218982  10.068  12.266   1.237  2.9803 -0.5800 -1.2557
 3018SOL     OW18983  11.759   2.884   4.234 -0.2964  0.8075  0.0852
 3018SOL    HW118984  11.712   2.942   4.294 -1.6805  0.2774 -0.4514
 3018SOL    HW218985  11.835   2.853   4.284 -0.1209  2.2237  0.7340
 3019SOL     OW18986   1.473   0.773   5.672 -0.1672  0.3080 -0.4725
 3019SOL    HW118987   1.465   0.845   5.734 -0.3546  0.8932 -1.1616
 3019SOL    HW218988   1.567   0.751   5.673 -0.2637 -0.1101  0.4659
 3020SOL     OW18989   0.000   4.256   7.410  0.1405 -0.1610  0.5868
 3020SOL    HW118990  -0.056   4.305   7.470 -0.4253  0.3221 -0.3142
 3020SOL    HW218991   0.015   4.172   7.454 -0.2085  0.2048  1.4222
 3021SOL     OW18992   3.720   0.145  10.814 -0.0211  0.7994  0.3509
 3021SOL    HW118993   3.726   0.056  10.848  0.5529  0.3108 -0.9610
 3021SOL    HW218994   3.804   0.185  10.838 -0.1620  0.9103  0.6781
 3022SOL     OW18995   8.840  11.723   4.013  0.4770  0.0044  0.5650
 3022SOL    HW118996   8.914  11.662   4.016  0.7357  0.2952  0.1222
 3022SOL    HW218997   8.766  11.668   3.987  0.8445 -0.0090 -0.5328
 3023SOL     OW18998   6.805   3.570   2.923  0.0282  0.8246  0.3726
 3023SOL    HW118999   6.892   3.538   2.902 -0.0343  0.2435  0.9542
 3023SOL    HW219000   6.811   3.665   2.913  0.4225  0.7047 -0.6380
 3024SOL     OW19001   2.613   4.196   8.260  0.1486 -0.3116  0.1860
 3024SOL    HW119002   2.632   4.242   8.341 -0.1998  0.6845 -0.2886
 3024SOL    HW219003   2.529   4.231   8.231 -0.8403 -2.2515  0.5344
 3025SOL     OW19004   8.550   9.113   7.512 -0.4668  0.1913 -0.1020
 3025SOL    HW119005   8.635   9.157   7.524 -0.1059 -0.5855  0.2680
 3025SOL    HW219006   8.561   9.063   7.431 -1.0214  1.0780 -0.7523
 3026SOL     OW19007   8.949  12.327   9.533 -0.1854 -0.0934 -0.3427
 3026SOL    HW119008   9.017  12.388   9.507  1.7221 -0.7087  2.7045
 3026SOL    HW219009   8.975  12.244   9.493  0.6314 -0.2188  0.4253
 3027SOL     OW19010   1.122  10.465   1.610  0.2241  0.1531 -0.4768
 3027SOL    HW119011   1.170  10.548   1.606 -0.0027  0.2734 -0.7120
 3027SOL    HW219012   1.135  10.434   1.700  2.4114 -0.8174 -1.0786
 3028SOL     OW19013   6.339   0.828   1.508  0.0355 -0.8755  0.4405
 3028SOL    HW119014   6.423   0.791   1.537  0.1768  1.0947  2.9430
 3028SOL    HW219015   6.362   0.881   1.432  0.8386 -1.3832  0.3204
 3029SOL     OW19016   5.752   1.848   1.990  0.9192  0.2859  0.3318
 3029SOL    HW119017   5.732   1.860   1.898 -1.4782  1.1990  0.8896
 3029SOL    HW219018   5.679   1.890   2.036  2.2568  0.2481  2.6515
 3030SOL     OW19019  11.084  10.952   9.950  0.3399 -0.0435  0.0092
 3030SOL    HW119020  11.036  10.892  10.008  2.9580 -0.1092  2.2810
 3030SOL    HW219021  11.167  10.908   9.932  1.2263  1.7340 -0.5223
 3031SOL     OW19022   8.539   2.364  12.145 -0.6826 -0.9013 -0.1907
 3031SOL    HW119023   8.478   2.291  12.137 -1.1073 -0.5752  0.0071
 3031SOL    HW219024   8.483   2.440  12.164 -0.4410 -0.2061 -1.9520
 3032SOL     OW19025   4.172   3.194   0.138 -0.0715 -0.1951  0.0151
 3032SOL    HW119026   4.261   3.158   0.138  0.1565  0.3488  0.3175
 3032SOL    HW219027   4.115   3.119   0.125  0.5081 -0.3778 -1.8672
 3033SOL     OW19028   2.538   9.342   2.164 -0.2713  0.3557  0.4210
 3033SOL    HW119029   2.515   9.424   2.208  1.0749  0.6751  0.6005
 3033SOL    HW219030   2.514   9.357   2.072  0.3198  1.1254  0.3737
 3034SOL     OW19031   9.866   7.899   9.009  0.4548 -0.3786  0.0470
 3034SOL    HW119032   9.883   7.889   9.102 -3.1496  1.1496  1.0443
 3034SOL    HW219033   9.884   7.991   8.990  0.1822 -0.4363 -0.5169
 3035SOL     OW19034   7.607   2.227  10.637  0.0708 -0.3606  0.0784
 3035SOL    HW119035   7.592   2.321  10.647 -0.4157 -0.6230  2.2817
 3035SOL    HW219036   7.699   2.220  10.614 -0.0672  0.6763 -0.8887
 3036SOL     OW19037   5.991   9.130  12.271 -0.4938 -0.0975 -0.4283
 3036SOL    HW119038   5.921   9.158  12.330 -0.9184 -1.3646 -0.3127
 3036SOL    HW219039   6.071   9.144  12.321 -0.4164  3.2715 -1.2713
 3037SOL     OW19040   4.831   3.254   3.553  0.4091 -0.2728 -0.0975
 3037SOL    HW119041   4.792   3.311   3.488  0.2861 -1.6238 -1.2504
 3037SOL    HW219042   4.796   3.167   3.534 -0.1760 -0.6231  2.1965
 3038SOL     OW19043  12.969  11.341   3.727  0.6281 -0.3025 -0.1983
 3038SOL    HW119044  13.017  11.416   3.760  1.3494 -1.2217  0.9414
 3038SOL    HW219045  12.921  11.374   3.652  0.8786  1.2979  0.3110
 3039SOL     OW19046  10.979  10.398   0.845 -0.4400  0.5736 -0.2398
 3039SOL    HW119047  10.983  10.419   0.939 -1.0869 -1.0855  0.1897
 3039SOL    HW219048  11.070  10.382   0.821 -0.4661 -1.7711  0.8489
 3040SOL     OW19049  10.348   6.556   9.435 -0.4512 -0.0917 -0.4085
 3040SOL    HW119050  10.383   6.612   9.504 -1.3337  0.2817 -0.2507
 3040SOL    HW219051  10.374   6.598   9.353  0.6017 -0.5365 -0.3244
 3041SOL     OW19052   3.657   8.091   3.084 -1.2008 -0.8739  0.3852
 3041SOL    HW119053   3.723   8.067   3.020 -0.3453  0.0519  0.8866
 3041SOL    HW219054   3.613   8.009   3.105 -1.6329 -1.1655 -1.4929
 3042SOL     OW19055   8.586   2.255   1.226  0.0691  0.2425  0.2812
 3042SOL    HW119056   8.663   2.256   1.284  1.6643 -0.5721 -1.6869
 3042SOL    HW219057   8.600   2.179   1.169 -1.6454  0.7461 -0.8938
 3043SOL     OW19058  11.034   7.183   4.582 -0.5089 -0.8047  0.2002
 3043SOL    HW119059  10.957   7.228   4.617 -0.7951 -2.8750  2.4645
 3043SOL    HW219060  11.088   7.253   4.544 -2.1304  1.0656  1.2076
 3044SOL     OW19061   2.387  11.010   2.355 -0.2091  0.3429  0.4136
 3044SOL    HW119062   2.393  10.988   2.448 -2.1991  0.5680  0.6316
 3044SOL    HW219063   2.364  11.102   2.353 -5.0489 -0.6287 -0.0308
 3045SOL     OW19064  10.930  12.059  11.817 -0.7390 -0.6627 -0.0701
 3045SOL    HW119065  10.963  12.077  11.905  1.1572  1.5512 -1.1576
 3045SOL    HW219066  10.836  12.078  11.823 -0.5907 -0.2555  1.3765
 3046SOL     OW19067   0.015   3.420  10.931  0.2329  0.1017  0.0024
 3046SOL    HW119068  -0.040   3.379  10.997 -0.2364 -2.7255 -2.0110
 3046SOL    HW219069  -0.046   3.453  10.865  0.7479  2.1043  0.4367
 3047SOL     OW19070   4.296  10.101  11.561  0.0824  0.1476 -0.1384
 3047SOL    HW119071   4.367  10.140  11.612  1.7949 -0.9140 -1.6042
 3047SOL    HW219072   4.277  10.167  11.494 -0.5248  0.5480  0.4191
 3048SOL     OW19073   1.518   3.886  10.018 -0.4236  0.2486  0.2085
 3048SOL    HW119074   1.493   3.860  10.106 -2.8474 -0.4133 -0.5820
 3048SOL    HW219075   1.440   3.929   9.983  0.2072 -0.1658 -1.8492
 3049SOL     OW19076  11.628   0.231   9.657 -0.2184 -0.2819 -0.0372
 3049SOL    HW119077  11.644   0.325   9.660  0.0548 -0.3143 -0.3256
 3049SOL    HW219078  11.690   0.194   9.720  1.4939 -0.4769 -1.7192
 3050SOL     OW19079   1.131   8.189   3.507  0.4739 -0.0612  0.3685
 3050SOL    HW119080   1.126   8.284   3.497  0.5422 -0.1241 -0.3034
 3050SOL    HW219081   1.167   8.158   3.424 -0.6217 -0.7653  0.1278
 3051SOL     OW19082   3.886   5.539   6.267 -0.4734 -0.1146  0.0164
 3051SOL    HW119083   3.830   5.471   6.228 -0.8693  0.7525 -0.9647
 3051SOL    HW219084   3.898   5.603   6.198  1.8219 -0.2913  0.1781
 3052SOL     OW19085   2.345   1.306   8.370 -0.3355  0.2860  0.2817
 3052SOL    HW119086   2.283   1.370   8.335 -0.6878 -0.8033 -1.1900
 3052SOL    HW219087   2.302   1.271   8.448 -0.5542  1.1428  0.5574
 3053SOL     OW19088  11.592   4.114   2.612  0.2698  0.6352  0.0131
 3053SOL    HW119089  11.599   4.160   2.528 -1.1136  0.0676 -0.4381
 3053SOL    HW219090  11.507   4.071   2.609  0.2951  0.4149  1.6280
 3054SOL     OW19091   9.942   0.733   1.285 -0.1901 -0.1218 -0.0815
 3054SOL    HW119092   9.924   0.698   1.373  2.3493 -1.0125  0.1680
 3054SOL    HW219093  10.030   0.771   1.293 -0.7605  1.6490 -1.7358
 3055SOL     OW19094  11.742   5.478   0.203  0.3979  0.2749  0.2270
 3055SOL    HW119095  11.779   5.533   0.133 -2.2799 -0.1346 -1.6694
 3055SOL    HW219096  11.680   5.536   0.248  0.7190 -0.0149  1.0502
 3056SOL     OW19097  11.544   2.673   5.751  0.0281 -0.4774  0.3833
 3056SOL    HW119098  11.485   2.744   5.725  0.5894  0.0702  0.5642
 3056SOL    HW219099  11.627   2.695   5.709  0.2169 -1.0122  0.4715
 3057SOL     OW19100  12.581   6.954   7.674 -0.2119  0.0693  0.3323
 3057SOL    HW119101  12.550   7.044   7.664 -0.8608 -0.2714 -1.0559
 3057SOL    HW219102  12.516   6.912   7.730  0.7141  0.7338  1.9595
 3058SOL     OW19103  10.584   9.038   0.317  0.2104 -0.5738 -0.0518
 3058SOL    HW119104  10.507   9.046   0.374  0.3515 -2.0622  0.4062
 3058SOL    HW219105  10.656   9.023   0.378  0.7572  0.1622 -0.5136
 3059SOL     OW19106   3.058   3.694  11.877 -0.1899  0.1594  0.2958
 3059SOL    HW119107   3.095   3.640  11.947 -0.3869 -0.9599 -0.4336
 3059SOL    HW219108   3.108   3.776  11.880  0.0443 -0.0114  1.4970
 3060SOL     OW19109   5.545  12.042   0.929 -0.2084  0.3399 -0.2868
 3060SOL    HW119110   5.566  12.081   0.844 -0.3032  0.1413 -0.4010
 3060SOL    HW219111   5.450  12.051   0.937 -0.2640 -0.1093 -0.4325
 3061SOL     OW19112   5.895  11.990   6.311 -0.6076 -0.7141 -0.9520
 3061SOL    HW119113   5.833  11.981   6.239 -1.6282 -0.3551 -0.1371
 3061SOL    HW219114   5.896  12.083   6.331  0.3964 -0.6735 -1.1044
 3062SOL     OW19115  12.932  12.439   8.031 -0.1315 -0.1230  0.0959
 3062SOL    HW119116  12.839  12.429   8.049 -0.7267  0.5757 -2.1907
 3062SOL    HW219117  12.975  12.373   8.085 -1.9601 -0.5569  1.0856
 3063SOL     OW19118   3.629   2.885   3.300  0.0398  0.3707 -0.4343
 3063SOL    HW119119   3.688   2.847   3.365  1.5554  0.0332 -1.9273
 3063SOL    HW219120   3.551   2.830   3.303  0.1094  0.3099  0.9962
 3064SOL     OW19121   0.785   5.932   0.226 -0.0924  0.1157  0.3236
 3064SOL    HW119122   0.834   5.893   0.154 -0.2162  0.1833  0.2007
 3064SOL    HW219123   0.831   6.014   0.244 -1.9300  1.7850 -1.9104
 3065SOL     OW19124   0.214   7.457   6.394 -0.6479  0.2469 -0.0025
 3065SOL    HW119125   0.276   7.420   6.458  0.7503  0.7016 -1.0375
 3065SOL    HW219126   0.170   7.380   6.357  1.6417 -0.4397 -1.5432
 3066SOL     OW19127   8.995   0.281  12.187 -0.5647  0.2329 -0.2673
 3066SOL    HW119128   8.966   0.336  12.260 -0.1118  0.0338  0.0666
 3066SOL    HW219129   9.050   0.338  12.134  0.0783  0.0443  0.1942
 3067SOL     OW19130  12.816   6.849   1.703  0.1548  0.1646  0.2266
 3067SOL    HW119131  12.851   6.934   1.676 -0.1143  0.8484  1.9005
 3067SOL    HW219132  12.757   6.869   1.775  0.8762 -1.5254  1.3710
 3068SOL     OW19133   9.045   3.054   3.803 -0.1880 -0.1784 -0.2442
 3068SOL    HW119134   9.115   3.023   3.861 -0.0280  0.8613  0.1418
 3068SOL    HW219135   9.089   3.116   3.744 -0.6489 -0.0516 -0.4539
 3069SOL     OW19136   0.013   2.051   5.470  0.0842  0.0674  0.4213
 3069SOL    HW119137   0.054   1.980   5.421  0.8789  1.3199 -0.7913
 3069SOL    HW219138   0.086   2.098   5.510 -0.1459  1.7599 -0.9995
 3070SOL     OW19139  11.412   9.196   1.836  0.1655  0.5565 -0.3922
 3070SOL    HW119140  11.363   9.174   1.756 -0.3149  0.3627 -0.0498
 3070SOL    HW219141  11.465   9.119   1.854 -1.3735 -0.2920  0.6985
 3071SOL     OW19142   7.619   6.655  11.198  0.0125 -0.2377 -0.2636
 3071SOL    HW119143   7.707   6.617  11.204 -0.0731 -0.2606  1.4428
 3071SOL    HW219144   7.573   6.598  11.136  1.1068 -0.3855 -0.9710
 3072SOL     OW19145   6.823   4.311  13.264 -0.6036 -0.0650  0.5594
 3072SOL    HW119146   6.821   4.346  13.353 -2.0688 -2.2527  1.4897
 3072SOL    HW219147   6.826   4.388  13.208 -0.0914  1.4045  2.4866
 3073SOL     OW19148  11.456  10.189   9.417 -0.4002  0.1023 -0.5982
 3073SOL    HW119149  11.545  10.194   9.385 -0.5000  0.4296 -0.8308
 3073SOL    HW219150  11.448  10.101   9.455  0.7801  0.8839  1.6575
 3074SOL     OW19151   3.293  12.990   2.791  0.6292  0.3727 -0.5324
 3074SOL    HW119152   3.261  12.913   2.837  2.2471 -0.2174 -0.3121
 3074SOL    HW219153   3.226  13.009   2.725  0.0126 -0.9633 -0.3203
 3075SOL     OW19154   5.228   3.084  12.528  0.9248  0.0085 -0.0866
 3075SOL    HW119155   5.264   3.070  12.441 -1.5211  1.5691 -1.4538
 3075SOL    HW219156   5.276   3.161  12.561 -0.2766  1.4060 -1.4400
 3076SOL     OW19157  11.945  10.834  12.825  0.2142 -0.0910 -0.1209
 3076SOL    HW119158  12.008  10.761  12.834  1.0562  0.3893 -1.7228
 3076SOL    HW219159  11.924  10.835  12.732 -0.7887  0.9158  0.1086
 3077SOL     OW19160   7.838  10.517   5.886 -0.1036 -0.2997  0.4828
 3077SOL    HW119161   7.884  10.435   5.901  0.1077  0.1083  2.2256
 3077SOL    HW219162   7.795  10.537   5.969  0.9824  2.0479  0.5720
 3078SOL     OW19163   8.425   1.650   8.171  0.8732  0.5396  0.0989
 3078SOL    HW119164   8.449   1.721   8.230 -0.2650 -0.3072  1.6520
 3078SOL    HW219165   8.332   1.663   8.153  1.0525  0.4001 -0.9811
 3079SOL     OW19166   0.561   0.696  11.045  0.8701 -0.2722  0.1582
 3079SOL    HW119167   0.603   0.613  11.022 -1.0268 -1.0994 -0.4982
 3079SOL    HW219168   0.471   0.673  11.066  0.2175  1.6501 -0.2826
 3080SOL     OW19169   8.295   4.878   1.595 -0.3275 -0.0186  0.2083
 3080SOL    HW119170   8.331   4.798   1.633  0.0903 -0.1139 -0.3646
 3080SOL    HW219171   8.288   4.858   1.501  0.1890  0.7584 -0.0040
 3081SOL     OW19172  13.216  12.093   0.426 -0.2020 -0.1232 -0.1700
 3081SOL    HW119173  13.207  12.013   0.375  0.4435  0.1263 -0.7000
 3081SOL    HW219174  13.194  12.068   0.515 -1.0673 -0.6388 -0.5186
 3082SOL     OW19175  12.383   1.007  12.183  0.0130  0.5543 -0.2331
 3082SOL    HW119176  12.458   0.986  12.128 -1.3269 -1.2964 -1.4826
 3082SOL    HW219177  12.310   1.014  12.121 -1.5152 -1.3713  1.2105
 3083SOL     OW19178   7.561  12.909   7.715 -0.3046  0.4484 -0.1481
 3083SOL    HW119179   7.546  12.997   7.750  0.4174  0.0093  1.3704
 3083SOL    HW219180   7.601  12.923   7.629 -1.0649  1.5895 -0.3376
 3084SOL     OW19181   7.536   5.807   0.899  0.0202  0.7844  0.0523
 3084SOL    HW119182   7.511   5.881   0.954  1.0128  1.2987 -0.1518
 3084SOL    HW219183   7.493   5.823   0.815  1.4074  1.9699 -0.4888
 3085SOL     OW19184   5.864  11.600   0.752  0.3329  0.5177  0.7245
 3085SOL    HW119185   5.849  11.675   0.809  0.0472  0.9948  0.0392
 3085SOL    HW219186   5.782  11.588   0.705  0.1661 -0.6193  1.2570
 3086SOL     OW19187   2.887   8.530   0.568  0.2544  0.2623  0.1426
 3086SOL    HW119188   2.848   8.607   0.609  0.3603  0.6702 -0.5053
 3086SOL    HW219189   2.857   8.534   0.477  2.7363  1.2681 -0.7247
 3087SOL     OW19190   3.677   7.240   0.514 -0.0902  0.2648  0.5797
 3087SOL    HW119191   3.657   7.151   0.488  1.3344  0.2386 -0.5501
 3087SOL    HW219192   3.759   7.233   0.564  1.2221  1.1000 -1.3043
 3088SOL     OW19193   4.256   3.363  11.643  0.0933  0.0265 -0.0752
 3088SOL    HW119194   4.344   3.394  11.624 -0.1589  0.7476 -0.1003
 3088SOL    HW219195   4.217   3.350  11.556 -0.2749  1.0382 -0.0721
 3089SOL     OW19196   3.726   0.155   3.862 -0.0996  0.2382  0.0583
 3089SOL    HW119197   3.639   0.128   3.831  0.3395 -1.3242  0.0971
 3089SOL    HW219198   3.787   0.107   3.805  0.7435  1.1614  0.1621
 3090SOL     OW19199  11.537   3.761   9.447 -0.1158 -0.6760 -0.1011
 3090SOL    HW119200  11.449   3.743   9.413 -1.5256  0.3152  2.7082
 3090SOL    HW219201  11.596   3.737   9.375 -2.6893 -0.6319 -2.4006
 3091SOL     OW19202   5.285   1.715   2.931 -0.8091 -0.2529 -0.5502
 3091SOL    HW119203   5.305   1.658   2.856  0.7586  1.3386 -1.4138
 3091SOL    HW219204   5.204   1.679   2.967 -0.7136 -2.0743 -1.9884
 3092SOL     OW19205  10.012   1.732   4.484  0.1898 -0.3147  0.1862
 3092SOL    HW119206  10.084   1.705   4.427  1.2850  0.3432  1.2244
 3092SOL    HW219207  10.053   1.784   4.553 -1.1815 -0.5805  1.2557
 3093SOL     OW19208   8.029  10.086  10.750  0.0818  0.0558  0.6718
 3093SOL    HW119209   8.056  10.018  10.811 -1.0187 -1.1716 -0.1678
 3093SOL    HW219210   7.937  10.102  10.771 -0.0367  0.3219 -0.0139
 3094SOL     OW19211   7.237   0.545   7.707  0.0184 -0.0611  0.4980
 3094SOL    HW119212   7.198   0.582   7.628 -0.6637  1.6865  1.5867
 3094SOL    HW219213   7.311   0.603   7.727  2.3705 -2.4416 -0.6762
 3095SOL     OW19214  10.080  13.069   0.046 -0.0968 -0.2932 -0.3878
 3095SOL    HW119215  10.052  13.111  -0.035 -0.8047 -1.1769 -0.6164
 3095SOL    HW219216  10.020  13.102   0.113 -2.2310 -2.6402 -0.9807
 3096SOL     OW19217   1.834   8.429   3.505  0.6736 -0.2789  0.0888
 3096SOL    HW119218   1.780   8.365   3.461 -0.1768 -0.1255  0.8807
 3096SOL    HW219219   1.781   8.460   3.578  0.8478  1.7072 -0.5681
 3097SOL     OW19220  13.096  12.966  11.396 -0.7341  0.0084  0.4090
 3097SOL    HW119221  13.016  13.002  11.434 -0.7550  0.1613  0.2257
 3097SOL    HW219222  13.139  12.920  11.468 -0.3677  0.9808  0.8262
 3098SOL     OW19223   3.683   2.891   7.217 -0.3574  0.3494 -0.4420
 3098SOL    HW119224   3.766   2.843   7.227 -0.0455  1.0558  0.4796
 3098SOL    HW219225   3.709   2.983   7.210 -1.0146  0.4904 -1.1948
 3099SOL     OW19226   4.547  12.351   4.801 -0.3368  0.1951 -0.1611
 3099SOL    HW119227   4.584  12.310   4.880 -1.7654  0.3767  0.6408
 3099SOL    HW219228   4.591  12.307   4.728  0.0633 -0.9163  0.7179
 3100SOL     OW19229  11.741   6.343   6.332 -0.1000  0.1148  0.1416
 3100SOL    HW119230  11.706   6.398   6.401 -0.7767  0.1527 -0.2229
 3100SOL    HW219231  11.665   6.296   6.297  0.0143  0.9742 -1.3568
 3101SOL     OW19232  12.036   6.188  10.563 -0.1190 -0.1242  0.5806
 3101SOL    HW119233  12.041   6.223  10.474  0.7758 -1.0968  0.2377
 3101SOL    HW219234  12.061   6.262  10.619  1.0675  0.0014 -0.0873
 3102SOL     OW19235   2.629   9.933   7.864  0.1502 -0.1533 -0.4256
 3102SOL    HW119236   2.685  10.010   7.873 -0.1963  0.1531 -0.8701
 3102SOL    HW219237   2.688   9.865   7.830  0.1568  0.3120 -1.3873
 3103SOL     OW19238  12.118   0.772   6.246  0.2243 -0.2742  0.1869
 3103SOL    HW119239  12.057   0.837   6.281 -0.3002 -0.0728 -1.0709
 3103SOL    HW219240  12.204   0.800   6.280  0.1151  1.5032 -0.8878
 3104SOL     OW19241   7.228   1.550   0.313 -0.0276 -0.0036  0.5551
 3104SOL    HW119242   7.153   1.508   0.272 -0.8844  0.7418  1.3253
 3104SOL    HW219243   7.292   1.559   0.242 -0.9586  0.0805 -0.2966
 3105SOL     OW19244  11.902   6.080   6.875  0.3993  0.4335  0.3406
 3105SOL    HW119245  11.969   6.148   6.882  1.2833 -0.2956 -0.7434
 3105SOL    HW219246  11.950   6.000   6.856 -0.6542 -0.4483  1.2172
 3106SOL     OW19247   6.434  13.018   4.951 -0.1318  0.1436 -0.4304
 3106SOL    HW119248   6.378  12.968   4.891  0.4005 -0.3367 -0.5314
 3106SOL    HW219249   6.490  12.952   4.992 -0.4715  0.4726  0.5836
 3107SOL     OW19250   7.401   9.027   3.172 -0.2170 -0.1567  0.6067
 3107SOL    HW119251   7.490   9.017   3.139 -0.4846  0.6863 -0.4289
 3107SOL    HW219252   7.393   9.120   3.192  0.1628 -0.6839  3.8596
 3108SOL     OW19253   5.798   8.147   9.643  0.5738 -0.4215  0.1416
 3108SOL    HW119254   5.860   8.120   9.575  1.9087  0.5555  0.9114
 3108SOL    HW219255   5.820   8.090   9.717 -0.5321 -1.1405 -0.0702
 3109SOL     OW19256   8.523   7.570   2.643  0.4178 -0.1366 -0.9832
 3109SOL    HW119257   8.484   7.539   2.561 -1.2933 -0.0746 -0.2241
 3109SOL    HW219258   8.460   7.634   2.677  1.2680  0.0917  0.2186
 3110SOL     OW19259   2.537   1.640   4.935  0.0917 -0.2381  0.0931
 3110SOL    HW119260   2.514   1.686   4.854 -0.3071  0.5338  0.6342
 3110SOL    HW219261   2.477   1.675   5.000 -0.5906 -1.9168  0.4142
 3111SOL     OW19262   7.120   4.521  10.961 -0.7907  0.2617 -0.3618
 3111SOL    HW119263   7.104   4.596  10.905 -0.6929  0.6625  0.1445
 3111SOL    HW219264   7.077   4.542  11.044 -0.2532  0.0264 -0.0122
 3112SOL     OW19265   6.204  12.943   7.128 -0.2019  0.4871 -0.8586
 3112SOL    HW119266   6.144  12.890   7.075  0.2818 -1.0447  0.0453
 3112SOL    HW219267   6.287  12.896   7.123  0.1214  0.8819  0.3806
 3113SOL     OW19268   3.681   0.248  11.393 -0.0457  0.4460  0.4285
 3113SOL    HW119269   3.739   0.190  11.442  0.4653 -1.0615 -1.8040
 3113SOL    HW219270   3.731   0.271  11.315 -2.1073 -0.2595 -1.1839
 3114SOL     OW19271   0.689  10.518   4.375  0.3424  0.2468 -0.2410
 3114SOL    HW119272   0.719  10.471   4.453 -1.0842  2.1513  1.5845
 3114SOL    HW219273   0.605  10.477   4.353 -0.2908  1.0509  0.5845
 3115SOL     OW19274   0.463   9.882   7.246  0.4821 -0.2830  0.5902
 3115SOL    HW119275   0.523   9.923   7.185  1.5608 -0.8253  1.2573
 3115SOL    HW219276   0.439   9.952   7.307 -0.6934  0.2912 -0.4811
 3116SOL     OW19277   2.586   7.402   9.109 -0.3869  0.2194  0.1922
 3116SOL    HW119278   2.598   7.309   9.125 -0.5538  0.2477  0.4937
 3116SOL    HW219279   2.671   7.433   9.078 -0.9558 -0.5168 -2.3000
 3117SOL     OW19280  12.511   2.361  10.597  0.6962  0.1278 -0.3861
 3117SOL    HW119281  12.541   2.450  10.575  0.5251  0.5526  0.9785
 3117SOL    HW219282  12.574   2.331  10.663  0.0013 -0.2631  0.0990
 3118SOL     OW19283  10.886   0.368   6.057 -0.6460 -0.4883 -0.8096
 3118SOL    HW119284  10.940   0.322   5.993 -2.1822 -1.7367 -1.2782
 3118SOL    HW219285  10.908   0.460   6.045  2.1110 -0.9739 -0.2361
 3119SOL     OW19286   0.856  12.031   9.748  0.0581  0.4666 -0.5148
 3119SOL    HW119287   0.842  12.112   9.698 -2.2389  1.3599  1.4009
 3119SOL    HW219288   0.900  12.060   9.828  0.8450 -0.4742 -0.5942
 3120SOL     OW19289   5.774   3.485  11.257 -0.7349  0.4413 -0.2553
 3120SOL    HW119290   5.830   3.415  11.292 -0.7610  1.3447  1.7393
 3120SOL    HW219291   5.703   3.493  11.321 -2.2968  0.3887 -1.9354
 3121SOL     OW19292  10.768   3.715  11.020  0.4584 -0.1628  0.5747
 3121SOL    HW119293  10.816   3.788  11.058 -0.2326  1.4477 -1.4616
 3121SOL    HW219294  10.786   3.720  10.926 -2.3238 -0.4728 -0.0688
 3122SOL     OW19295  13.135   6.060  10.329 -0.2048  0.2759  0.1773
 3122SOL    HW119296  13.074   5.988  10.347 -0.7230  0.1397 -1.8532
 3122SOL    HW219297  13.153   6.053  10.236  3.2376  0.1252  0.7334
 3123SOL     OW19298   5.982   9.642   8.118  0.0355 -0.1826 -0.2245
 3123SOL    HW119299   6.077   9.639   8.117  0.0653  0.4867 -0.8592
 3123SOL    HW219300   5.958   9.635   8.210  0.7281  0.2002 -0.0094
 3124SOL     OW19301   2.062   2.122   4.806 -0.1864  0.1842  0.5884
 3124SOL    HW119302   1.977   2.122   4.761 -1.1908  1.6807  2.3657
 3124SOL    HW219303   2.060   2.200   4.861  2.1244 -0.0809  1.1331
 3125SOL     OW19304  10.799  11.717   0.451  0.1209 -0.2056  0.2923
 3125SOL    HW119305  10.785  11.695   0.543 -1.4167  0.5080  0.2541
 3125SOL    HW219306  10.726  11.775   0.429  0.1123 -0.8701 -1.5465
 3126SOL     OW19307   8.261  10.813   2.920  0.4551  0.0323 -0.1270
 3126SOL    HW119308   8.270  10.773   3.006 -0.6330  0.0048 -0.0087
 3126SOL    HW219309   8.202  10.755   2.873  1.3481 -0.1595 -1.0287
 3127SOL     OW19310   7.704   2.022   0.750  0.2081  0.2289  0.2674
 3127SOL    HW119311   7.686   2.007   0.843 -0.9470 -1.7759 -0.2035
 3127SOL    HW219312   7.794   1.992   0.738 -0.6441 -2.6362  0.2230
 3128SOL     OW19313   6.425   5.390   0.395  0.4568  0.5223  0.3444
 3128SOL    HW119314   6.375   5.391   0.477  1.0193  0.4067  0.6941
 3128SOL    HW219315   6.515   5.376   0.423  1.0426  2.9892 -0.0947
 3129SOL     OW19316  11.956   8.029  11.572 -0.0635 -0.4052 -0.2773
 3129SOL    HW119317  12.022   8.097  11.587 -0.7864  0.3019 -0.2360
 3129SOL    HW219318  12.007   7.949  11.556  0.8281  0.3388 -1.3223
 3130SOL     OW19319   8.641  11.165   2.181  1.0150 -0.3239 -0.3045
 3130SOL    HW119320   8.676  11.144   2.094  0.7142  2.1588 -1.1129
 3130SOL    HW219321   8.644  11.082   2.229 -0.6875 -2.3376 -3.3016
 3131SOL     OW19322   3.972   9.732  10.328  0.0391  0.1505  0.0020
 3131SOL    HW119323   3.935   9.670  10.266  1.4127  0.3807 -1.0940
 3131SOL    HW219324   3.940   9.703  10.414 -2.1995  0.0513 -0.8136
 3132SOL     OW19325  11.438   0.775   1.112 -0.1112  0.3609  0.6552
 3132SOL    HW119326  11.524   0.811   1.090  0.0257 -0.3075  0.0629
 3132SOL    HW219327  11.378   0.848   1.097 -0.0958 -0.1384 -2.4753
 3133SOL     OW19328   1.873   7.489   0.739  0.4620 -0.2486  0.1992
 3133SOL    HW119329   1.914   7.490   0.825 -0.5322  0.1331  0.6859
 3133SOL    HW219330   1.850   7.580   0.722 -2.0192 -0.6557  0.8873
 3134SOL     OW19331   2.010   1.388   3.559  0.4173  0.8191 -0.4099
 3134SOL    HW119332   1.959   1.336   3.498 -0.6568  1.2414  0.0979
 3134SOL    HW219333   2.048   1.458   3.506  1.0551  0.0989 -0.9164
 3135SOL     OW19334   9.200  10.642  11.180  0.0156  0.5002 -0.3820
 3135SOL    HW119335   9.270  10.591  11.139  0.2519  0.3528  0.1915
 3135SOL    HW219336   9.150  10.677  11.107 -1.6605 -2.5429 -0.8673
 3136SOL     OW19337  11.024   1.644   0.827 -0.0481 -0.5917  0.1590
 3136SOL    HW119338  11.051   1.664   0.738  1.0084 -0.0677  0.5822
 3136SOL    HW219339  10.929   1.660   0.828 -0.2741 -1.6356 -1.1267
 3137SOL     OW19340   3.822  11.678   9.704  0.0311  0.0868 -0.3488
 3137SOL    HW119341   3.887  11.749   9.711 -1.5764  1.4706  1.5559
 3137SOL    HW219342   3.779  11.695   9.620  1.9794 -0.8073 -1.6114
 3138SOL     OW19343   9.881   1.696   3.516  0.2151  0.0022  0.3349
 3138SOL    HW119344   9.938   1.734   3.449 -1.0949  0.8566 -0.3473
 3138SOL    HW219345   9.830   1.630   3.468  1.3477 -1.5309  1.1668
 3139SOL     OW19346   4.139   5.916   8.723 -0.2467  0.2369 -0.3206
 3139SOL    HW119347   4.069   5.919   8.657 -0.4747  0.5407 -0.0702
 3139SOL    HW219348   4.094   5.893   8.804  0.1721 -1.0650 -0.4425
 3140SOL     OW19349   1.211  12.987   7.403  0.0380 -0.2805 -0.9015
 3140SOL    HW119350   1.260  13.065   7.427 -0.4762  0.1765 -1.3272
 3140SOL    HW219351   1.248  12.918   7.458 -0.4887  0.5496  0.5305
 3141SOL     OW19352   9.329   3.701  11.053 -0.5206  0.1966  0.1796
 3141SOL    HW119353   9.407   3.659  11.091 -0.4328 -0.8968 -1.1169
 3141SOL    HW219354   9.256   3.665  11.103 -0.2114  1.4864  1.6327
 3142SOL     OW19355   1.090   2.667   0.396  0.5584  0.0706 -0.6354
 3142SOL    HW119356   1.064   2.743   0.344 -0.1542 -1.2139 -2.2908
 3142SOL    HW219357   1.107   2.599   0.330 -0.5340 -1.7006  0.8166
 3143SOL     OW19358   7.147   2.726   3.455  0.2757 -0.2209 -0.4393
 3143SOL    HW119359   7.112   2.649   3.411 -1.2034  0.2822 -0.1801
 3143SOL    HW219360   7.071   2.781   3.474  0.9308  0.0223  1.8775
 3144SOL     OW19361   0.294  10.937   9.285  0.3483 -0.2362  0.0329
 3144SOL    HW119362   0.281  10.842   9.287  2.5398 -0.5732  1.3453
 3144SOL    HW219363   0.364  10.950   9.222  0.8853  0.3599  0.7342
 3145SOL     OW19364   5.774   6.493   0.604  0.1617  0.3472  0.2585
 3145SOL    HW119365   5.690   6.454   0.578  0.9798 -0.5691 -1.1420
 3145SOL    HW219366   5.774   6.579   0.562  0.1686  0.1094 -0.2350
 3146SOL     OW19367   2.000   5.544   6.939 -0.0433 -0.0708 -0.6006
 3146SOL    HW119368   2.057   5.620   6.926  0.2402  0.1345  1.5347
 3146SOL    HW219369   1.945   5.567   7.014 -0.2755 -1.7814 -0.1948
 3147SOL     OW19370   5.061  10.542  10.302 -0.5011 -0.3651  0.3109
 3147SOL    HW119371   4.978  10.589  10.295 -1.0469 -1.1733  1.0969
 3147SOL    HW219372   5.128  10.609  10.291 -1.2310  0.1065 -1.6025
 3148SOL     OW19373  10.868  13.056   5.352 -0.3434 -0.1559  0.2594
 3148SOL    HW119374  10.868  13.151   5.366 -0.2021 -0.2023  0.5935
 3148SOL    HW219375  10.949  13.026   5.392 -0.9487 -0.5693  1.2214
 3149SOL     OW19376   8.152  10.643   0.070  0.0026 -0.5078  0.6661
 3149SOL    HW119377   8.081  10.608   0.125  0.9805 -1.8351  1.1124
 3149SOL    HW219378   8.189  10.714   0.123 -0.8673  0.0958  0.4970
 3150SOL     OW19379   1.039  11.731   2.461 -0.1843  0.0726  0.1101
 3150SOL    HW119380   0.957  11.764   2.423  0.3757  0.4735 -0.7990
 3150SOL    HW219381   1.022  11.639   2.479 -0.6297 -0.0113 -0.6925
 3151SOL     OW19382   4.048   7.759  12.752 -0.1568 -0.7840  0.4313
 3151SOL    HW119383   3.997   7.739  12.673  0.1396 -1.0411  0.3008
 3151SOL    HW219384   4.139   7.738  12.727  0.1642  0.6471  0.3105
 3152SOL     OW19385  12.048   2.225   4.661 -0.5078  0.2467 -0.1971
 3152SOL    HW119386  12.010   2.197   4.744  0.1229  0.0487  0.0225
 3152SOL    HW219387  12.028   2.154   4.600 -0.0123 -0.1048  0.0509
 3153SOL     OW19388   0.634   1.726   6.099 -0.6520  0.2160  0.0041
 3153SOL    HW119389   0.623   1.797   6.035 -0.5976 -0.8141 -1.1806
 3153SOL    HW219390   0.633   1.646   6.046  1.7077 -0.5679  1.0076
 3154SOL     OW19391   9.905   7.429   2.620  0.2728 -0.0387  0.4856
 3154SOL    HW119392   9.969   7.359   2.635  0.9325  0.0730 -1.5192
 3154SOL    HW219393   9.955   7.498   2.577 -0.8703  0.7492  0.3767
 3155SOL     OW19394  12.836   3.189   5.640 -0.3184 -0.2118  0.1756
 3155SOL    HW119395  12.900   3.218   5.705 -0.4420  0.3922  0.0319
 3155SOL    HW219396  12.768   3.146   5.691  0.4904 -1.4007  0.2801
 3156SOL     OW19397  12.475   6.585   2.961  0.3793 -0.0106 -0.1087
 3156SOL    HW119398  12.415   6.529   2.912  2.6815 -1.6413 -1.2003
 3156SOL    HW219399  12.457   6.674   2.929 -0.5670 -0.6055 -1.3010
 3157SOL     OW19400  12.365  12.034  12.901 -0.3385  0.3718 -0.2892
 3157SOL    HW119401  12.326  11.960  12.855  2.1109  0.0907 -2.1074
 3157SOL    HW219402  12.454  12.005  12.921  0.1482  2.2425  0.4434
 3158SOL     OW19403   7.333  12.451   2.591 -0.3393  0.0945 -0.0777
 3158SOL    HW119404   7.410  12.503   2.616 -0.8797  0.2204  1.4126
 3158SOL    HW219405   7.259  12.507   2.614 -0.9014 -0.6442 -0.0756
 3159SOL     OW19406  10.371  11.133   3.285 -0.2973  0.1484  0.2238
 3159SOL    HW119407  10.322  11.207   3.252  0.8717  0.0689 -1.8899
 3159SOL    HW219408  10.323  11.104   3.363 -1.4249  2.3499  0.4079
 3160SOL     OW19409  10.919   2.844   1.455  0.3030 -0.5488  0.2768
 3160SOL    HW119410  10.911   2.931   1.416  1.4067 -0.5025  0.1104
 3160SOL    HW219411  10.836   2.830   1.501 -1.5799 -1.0563 -2.9736
 3161SOL     OW19412  10.746   8.238  12.610  0.7199  1.2086  0.3672
 3161SOL    HW119413  10.702   8.322  12.598 -2.2323 -0.2458  0.2060
 3161SOL    HW219414  10.760   8.230  12.704 -1.1026  0.9523  0.6490
 3162SOL     OW19415  12.411  10.953  11.327  0.5243  0.2572 -0.3319
 3162SOL    HW119416  12.459  11.025  11.368  0.0876  0.0849  0.5005
 3162SOL    HW219417  12.326  10.990  11.303 -0.1036 -0.2099  1.0399
 3163SOL     OW19418   8.634   5.710   4.054 -0.5752 -0.2052  0.2947
 3163SOL    HW119419   8.557   5.724   3.999 -0.9980  1.2521  1.2086
 3163SOL    HW219420   8.637   5.615   4.067 -0.8923 -0.5003 -1.6011
 3164SOL     OW19421   5.680   5.107   5.758  0.5824 -0.2396  0.0081
 3164SOL    HW119422   5.751   5.083   5.698  0.5094 -0.1220 -0.1265
 3164SOL    HW219423   5.626   5.028   5.763  0.3814 -0.1333 -0.3807
 3165SOL     OW19424   5.065   0.891   1.980  0.6086 -0.4080 -0.0615
 3165SOL    HW119425   5.122   0.955   1.938 -1.9121  2.3658  0.3809
 3165SOL    HW219426   5.117   0.854   2.051  1.1924  4.0550  2.1826
 3166SOL     OW19427  11.760   3.832  11.990 -0.2321 -0.0521 -0.0890
 3166SOL    HW119428  11.844   3.807  12.027  1.3462  0.1360 -3.1989
 3166SOL    HW219429  11.780   3.855  11.899 -3.1958  2.7937 -0.2091
 3167SOL     OW19430   1.734   7.898  12.348 -0.0416  0.1804 -0.0699
 3167SOL    HW119431   1.816   7.891  12.396  1.7453  2.3520 -2.5238
 3167SOL    HW219432   1.752   7.856  12.264 -2.0654 -0.8596 -0.0478
 3168SOL     OW19433  11.704  13.116   2.217 -0.1424 -0.5688  0.3927
 3168SOL    HW119434  11.647  13.100   2.292 -0.6263  0.1483  0.1839
 3168SOL    HW219435  11.754  13.194   2.241 -1.3072  0.5273 -0.5842
 3169SOL     OW19436  11.453   0.990   6.724  0.0918 -0.0382 -0.1724
 3169SOL    HW119437  11.535   0.942   6.709 -0.2690 -0.0391 -2.5781
 3169SOL    HW219438  11.400   0.972   6.646 -1.3402  1.7080  0.3189
 3170SOL     OW19439   2.365   7.027   0.394  0.1445  0.6895 -0.6564
 3170SOL    HW119440   2.299   7.052   0.330  1.1098  2.1467 -1.1507
 3170SOL    HW219441   2.329   6.950   0.437 -1.1010  0.4331 -2.0665
 3171SOL     OW19442   5.318  11.400  12.134  0.5021 -0.6355  0.0335
 3171SOL    HW119443   5.341  11.347  12.210  0.1487  0.5631  1.0031
 3171SOL    HW219444   5.401  11.433  12.101  0.5466 -0.0457  0.7320
 3172SOL     OW19445   5.261  12.621   3.323  0.2248  0.2414  0.1825
 3172SOL    HW119446   5.246  12.714   3.336  1.1421  0.4832 -0.4145
 3172SOL    HW219447   5.355  12.610   3.334 -0.0092 -0.8089  1.3477
 3173SOL     OW19448   4.354   9.298   9.037 -0.6683  0.2717 -0.3271
 3173SOL    HW119449   4.307   9.215   9.043  0.7670 -0.4693  1.7436
 3173SOL    HW219450   4.310   9.355   9.100 -1.0163  0.7681 -1.0084
 3174SOL     OW19451   8.954   9.205   5.780  0.3574  0.2006  0.1158
 3174SOL    HW119452   8.944   9.118   5.819 -1.1696  0.1678 -0.2693
 3174SOL    HW219453   9.048   9.216   5.769  0.6523 -0.9116  1.2650
 3175SOL     OW19454   0.701   4.994   0.658  0.3575  0.1893 -0.4100
 3175SOL    HW119455   0.739   4.942   0.588 -0.2064 -0.0463 -0.5399
 3175SOL    HW219456   0.614   4.958   0.671  0.9161 -0.6613  1.3312
 3176SOL     OW19457   4.634  11.812   3.419  0.1174  0.0125 -0.4711
 3176SOL    HW119458   4.719  11.795   3.459 -0.8930 -4.8439  0.2223
 3176SOL    HW219459   4.626  11.747   3.349 -2.5282  1.1853 -1.4167
 3177SOL     OW19460   0.511  12.087  12.046 -0.5809  0.6049  0.1142
 3177SOL    HW119461   0.558  12.098  12.129  0.2121  0.4890 -0.3152
 3177SOL    HW219462   0.493  11.993  12.041  2.2143  0.0155 -1.3188
 3178SOL     OW19463   6.056   0.150   6.465  0.0224 -0.1302  0.4402
 3178SOL    HW119464   6.061   0.081   6.398  1.9027  1.2366 -0.9343
 3178SOL    HW219465   6.098   0.111   6.542  1.5607 -0.3923 -0.4846
 3179SOL     OW19466  10.623   8.597   8.375  0.6138  0.6271 -0.6111
 3179SOL    HW119467  10.534   8.567   8.357 -0.3484  1.4019  2.2730
 3179SOL    HW219468  10.636   8.671   8.315 -1.2643  1.4175 -0.1107
 3180SOL     OW19469   4.623  11.284   3.947 -0.0343  0.0878  0.7042
 3180SOL    HW119470   4.679  11.207   3.961  0.9775  0.7218  0.2867
 3180SOL    HW219471   4.683  11.358   3.954 -0.9794  0.8487  1.0175
 3181SOL     OW19472  11.060   8.812  12.317  0.1829  0.0837 -0.2730
 3181SOL    HW119473  11.029   8.722  12.323 -0.7376  0.4323  0.4483
 3181SOL    HW219474  11.155   8.805  12.323  0.1004 -0.8115  0.1730
 3182SOL     OW19475   2.193  11.203   3.181  0.2297  0.0798 -0.0511
 3182SOL    HW119476   2.160  11.146   3.112  0.9383 -1.5819  0.9301
 3182SOL    HW219477   2.271  11.158   3.214  1.0242  1.8095  0.5299
 3183SOL     OW19478   5.605   5.117   6.020  0.4305 -0.8157  0.5598
 3183SOL    HW119479   5.640   5.119   5.931 -2.8735 -0.7649 -0.9090
 3183SOL    HW219480   5.587   5.024   6.036 -0.5261 -0.6705  0.4276
 3184SOL     OW19481  10.425   5.781   3.723 -0.0727 -0.0038 -0.5018
 3184SOL    HW119482  10.519   5.769   3.733 -0.1118 -0.0955 -0.2466
 3184SOL    HW219483  10.412   5.794   3.629  0.4542  2.2754 -0.3254
 3185SOL     OW19484   7.484   0.111  12.107 -0.2655  0.2155  0.3508
 3185SOL    HW119485   7.538   0.057  12.165  0.3400  0.3147 -0.1131
 3185SOL    HW219486   7.507   0.082  12.019 -1.5120 -0.2453  0.1635
 3186SOL     OW19487   3.322  12.745   8.863  0.4136 -0.5207 -0.1913
 3186SOL    HW119488   3.278  12.668   8.825 -0.3855 -0.4303  0.5161
 3186SOL    HW219489   3.385  12.708   8.925 -1.5794 -0.6510  1.9239
 3187SOL     OW19490   2.814  11.755   7.171  0.5228  0.6280 -0.4926
 3187SOL    HW119491   2.811  11.719   7.083  2.2645 -0.6397 -0.0832
 3187SOL    HW219492   2.737  11.812   7.176  1.4236  2.3510 -3.4908
 3188SOL     OW19493   0.339   7.610   9.432  0.9074  0.7377  0.0489
 3188SOL    HW119494   0.327   7.521   9.399 -0.2089  0.4179  1.2355
 3188SOL    HW219495   0.423   7.606   9.479  0.2984 -0.0412  1.1253
 3189SOL     OW19496  13.092  11.399   2.151 -0.4620 -0.4525  0.0625
 3189SOL    HW119497  13.178  11.374   2.186 -0.3220 -1.9759 -1.2103
 3189SOL    HW219498  13.077  11.488   2.182  1.4318 -0.2846  0.5839
 3190SOL     OW19499   8.053   2.788  12.672 -0.3307  0.0867 -0.1640
 3190SOL    HW119500   8.124   2.799  12.736  0.0747  0.3217 -0.6420
 3190SOL    HW219501   8.093   2.739  12.600 -1.2036 -1.5575  0.4286
 3191SOL     OW19502   6.817  13.287  12.354  0.0553 -0.1611 -0.4056
 3191SOL    HW119503   6.909  13.304  12.331  0.2456  1.8538  1.4791
 3191SOL    HW219504   6.820  13.259  12.445 -1.1347 -1.3086 -0.7060
 3192SOL     OW19505   2.403   3.641   0.662  0.4165 -0.3224  0.2962
 3192SOL    HW119506   2.377   3.660   0.572 -2.3774 -1.0035  0.8424
 3192SOL    HW219507   2.404   3.726   0.705 -1.5221 -0.2534  0.3139
 3193SOL     OW19508   7.043  13.213   9.644 -0.1838 -0.5323  0.0630
 3193SOL    HW119509   7.037  13.178   9.732 -0.9528 -2.6895 -0.7641
 3193SOL    HW219510   7.072  13.303   9.655 -1.2375 -0.4298  2.5599
 3194SOL     OW19511   9.367   7.484   2.146 -0.4727  0.8772 -0.1487
 3194SOL    HW119512   9.406   7.423   2.208 -2.7150 -1.1042 -0.5245
 3194SOL    HW219513   9.313   7.543   2.199  0.3133  1.4185  0.0588
 3195SOL     OW19514   3.011   3.329   5.804  0.0406 -0.1334  0.0390
 3195SOL    HW119515   2.977   3.258   5.750  0.5586 -0.6301  0.3533
 3195SOL    HW219516   3.026   3.288   5.890  3.0150 -0.4266 -0.4897
 3196SOL     OW19517   7.416   7.547   4.939  0.3358  0.3413 -0.4902
 3196SOL    HW119518   7.429   7.623   4.883  0.6538 -1.0973 -2.4431
 3196SOL    HW219519   7.373   7.582   5.017 -0.8248  2.2957 -1.9243
 3197SOL     OW19520   2.876  11.831  13.065  0.3207 -0.6140 -0.3247
 3197SOL    HW119521   2.949  11.889  13.044  0.0910  0.2001  0.9902
 3197SOL    HW219522   2.845  11.800  12.980  0.8509  0.6984 -1.0315
 3198SOL     OW19523  13.303  10.004   5.791 -0.0935  0.5771  0.6559
 3198SOL    HW119524  13.260  10.084   5.821 -0.4640  0.3192  0.8297
 3198SOL    HW219525  13.337   9.964   5.871  1.3133  1.2444  0.4282
 3199SOL     OW19526   4.264   6.233   9.565  0.0618 -0.1172  0.1056
 3199SOL    HW119527   4.202   6.221   9.493  0.0694 -1.2489  0.2672
 3199SOL    HW219528   4.263   6.150   9.611  0.0097  0.6100  1.4625
 3200SOL     OW19529  10.816   4.489  11.648 -0.7694 -0.0646  0.3433
 3200SOL    HW119530  10.761   4.542  11.592 -2.0724 -0.7708  0.9144
 3200SOL    HW219531  10.859   4.551  11.707 -0.3801  0.5533 -0.5702
 3201SOL     OW19532   0.839   2.881   5.540 -0.6127  0.3293 -0.0814
 3201SOL    HW119533   0.795   2.845   5.617  0.1682 -0.3483  0.0573
 3201SOL    HW219534   0.910   2.820   5.522  0.8525  1.8501  0.2507
 3202SOL     OW19535   8.296  10.315   2.945  0.6238  0.3115  0.7131
 3202SOL    HW119536   8.282  10.268   2.863  0.3530 -0.5370  1.2334
 3202SOL    HW219537   8.363  10.380   2.924  0.2037  0.4335 -0.3006
 3203SOL     OW19538   9.136  11.255   7.506 -0.4058 -0.3190  0.0146
 3203SOL    HW119539   9.109  11.285   7.592 -1.8726 -1.0044 -0.1649
 3203SOL    HW219540   9.161  11.163   7.519  0.0729 -0.2175 -0.1633
 3204SOL     OW19541  10.096   8.822  12.938 -0.2498  0.3878  0.0620
 3204SOL    HW119542  10.184   8.789  12.922  0.9197  3.3497 -0.2427
 3204SOL    HW219543  10.088   8.824  13.034  0.2435  0.6535  0.0994
 3205SOL     OW19544   5.774   2.991  10.681 -0.6712 -0.0798 -0.2291
 3205SOL    HW119545   5.723   3.048  10.739  0.5150  0.0347  0.7562
 3205SOL    HW219546   5.865   3.008  10.705 -0.2282 -1.3516 -0.9068
 3206SOL     OW19547   7.858  12.758   2.679  0.1528  0.1523  0.6541
 3206SOL    HW119548   7.820  12.763   2.767 -1.0546  2.0425  0.0905
 3206SOL    HW219549   7.915  12.834   2.673 -0.6238  0.6729 -0.5396
 3207SOL     OW19550   3.827  11.800   3.794 -0.7734  0.1334  0.0723
 3207SOL    HW119551   3.908  11.785   3.746 -1.6270  0.3077 -1.4682
 3207SOL    HW219552   3.759  11.759   3.741 -1.6684 -0.3561  1.5284
 3208SOL     OW19553   4.115   5.486   8.329 -0.1159 -0.3158  0.2276
 3208SOL    HW119554   4.055   5.414   8.310 -1.1903  0.2569  1.2756
 3208SOL    HW219555   4.076   5.529   8.405  1.3493  0.4179  0.5870
 3209SOL     OW19556   4.960   5.521   6.641  0.3102  0.5246  0.1558
 3209SOL    HW119557   4.939   5.583   6.711  0.2343 -0.5148  1.0901
 3209SOL    HW219558   4.876   5.505   6.598 -0.0730 -0.4378  1.2092
 3210SOL     OW19559   6.519  10.612   5.926 -0.8267  0.0353 -0.3337
 3210SOL    HW119560   6.585  10.560   5.879 -0.8706 -0.4959  0.1755
 3210SOL    HW219561   6.444  10.614   5.867  0.1256  1.9238 -1.5909
 3211SOL     OW19562   1.556   7.514   8.548 -0.7851 -0.2143 -0.1850
 3211SOL    HW119563   1.542   7.497   8.454  0.0356  0.4336 -0.4329
 3211SOL    HW219564   1.643   7.552   8.553 -0.4802 -1.0045  0.9449
 3212SOL     OW19565   7.723   4.213   3.171 -0.2086 -0.3379  0.2625
 3212SOL    HW119566   7.745   4.280   3.236  0.9247  0.8013 -1.2038
 3212SOL    HW219567   7.678   4.145   3.220  1.5449 -0.0401  2.4278
 3213SOL     OW19568   5.795   3.658   5.386 -1.1006  0.1649  0.5146
 3213SOL    HW119569   5.714   3.651   5.437 -2.3274 -0.9791 -1.4427
 3213SOL    HW219570   5.766   3.686   5.299  0.5029 -1.0678 -0.4710
 3214SOL     OW19571   9.702   4.019  13.133 -0.1517 -0.0237 -0.1421
 3214SOL    HW119572   9.677   3.951  13.196 -0.0345 -1.1762 -1.3004
 3214SOL    HW219573   9.796   4.009  13.123 -0.2590 -0.2541 -0.9583
 3215SOL     OW19574   3.953   8.024   6.909  0.7008  0.1987  0.1121
 3215SOL    HW119575   3.913   7.967   6.974  2.0208 -0.3229  0.4976
 3215SOL    HW219576   3.886   8.090   6.890 -0.3586 -0.7081  0.6334
 3216SOL     OW19577   7.182   0.718  10.460 -0.1033 -0.2761  0.2839
 3216SOL    HW119578   7.269   0.749  10.436  0.4421 -0.5953  1.8008
 3216SOL    HW219579   7.185   0.706  10.554 -1.4905 -1.2800  0.2327
 3217SOL     OW19580   4.371   1.001   4.247  0.5812 -0.4430 -0.7785
 3217SOL    HW119581   4.307   1.068   4.221  2.4624  1.5162 -0.6671
 3217SOL    HW219582   4.324   0.919   4.239 -1.9961  0.9006 -0.5512
 3218SOL     OW19583   3.753   5.019   5.718  0.4230 -0.2913 -0.7431
 3218SOL    HW119584   3.688   5.001   5.650  0.7208 -1.5161 -0.7316
 3218SOL    HW219585   3.771   4.933   5.757 -0.2667  0.4655  1.3891
 3219SOL     OW19586   6.959  10.132  12.972 -0.5019 -0.5351 -0.3723
 3219SOL    HW119587   6.919  10.052  13.006 -2.4274  0.6182  0.2965
 3219SOL    HW219588   7.029  10.152  13.034 -1.1277 -0.8066  0.4451
 3220SOL     OW19589   7.962  10.392  10.424  0.3180  0.1964 -0.4854
 3220SOL    HW119590   8.050  10.382  10.461  0.4956 -1.6510 -1.2746
 3220SOL    HW219591   7.971  10.464  10.362  0.3738  2.3230  1.8377
 3221SOL     OW19592   5.892   7.734  12.755  0.1230  0.5478 -0.4308
 3221SOL    HW119593   5.868   7.826  12.743 -0.4967  0.3187 -1.0199
 3221SOL    HW219594   5.977   7.736  12.798 -0.8665  1.4149  1.6688
 3222SOL     OW19595  12.319   5.715   9.318 -0.4024  0.6924  0.1051
 3222SOL    HW119596  12.225   5.698   9.311 -0.7625  2.4935  0.2294
 3222SOL    HW219597  12.326   5.809   9.330  1.3609  0.4280  1.5769
 3223SOL     OW19598   2.717   8.968   5.471 -0.4216 -0.4065  0.3589
 3223SOL    HW119599   2.734   9.050   5.425  4.7596 -0.2857  1.8373
 3223SOL    HW219600   2.724   8.900   5.404  0.7807  0.1188 -0.0788
 3224SOL     OW19601   6.835   9.187   2.330 -0.1624  0.0143  0.0743
 3224SOL    HW119602   6.915   9.154   2.288  0.0958  0.1393  0.4646
 3224SOL    HW219603   6.778   9.110   2.336 -1.3145  0.4752 -2.9395
 3225SOL     OW19604   2.855   7.116   6.507 -0.5498  0.5411  0.2213
 3225SOL    HW119605   2.783   7.097   6.568  0.7173 -0.3344  1.5102
 3225SOL    HW219606   2.914   7.041   6.517  0.3367  1.0316 -1.1358
 3226SOL     OW19607   2.194   2.270  10.740 -0.2052 -0.0265  0.3695
 3226SOL    HW119608   2.107   2.309  10.740 -0.7183 -1.1213 -0.0823
 3226SOL    HW219609   2.187   2.196  10.800 -0.7101 -2.3811 -2.3320
 3227SOL     OW19610  11.675  13.183   9.454 -0.2233 -0.5634 -0.1877
 3227SOL    HW119611  11.633  13.108   9.412 -0.9623 -0.6461  0.6498
 3227SOL    HW219612  11.602  13.236   9.486  0.3005  0.2107 -0.2365
 3228SOL     OW19613   2.125  11.003   7.149 -0.2073 -0.1878  0.5023
 3228SOL    HW119614   2.043  10.967   7.183  0.7199 -1.6990  1.2226
 3228SOL    HW219615   2.191  10.938   7.172  0.9294  0.1164 -1.6963
 3229SOL     OW19616  10.340   9.950   8.708 -0.1069  0.2070  0.2294
 3229SOL    HW119617  10.398   9.875   8.717 -0.1629 -0.1731 -1.9881
 3229SOL    HW219618  10.259   9.914   8.672 -0.7835  1.0933  0.8239
 3230SOL     OW19619   2.101  10.805   0.689  0.2609  0.6605  0.1108
 3230SOL    HW119620   2.022  10.843   0.727  0.0203  0.3038 -0.0332
 3230SOL    HW219621   2.070  10.734   0.634  0.7280  0.0319  0.6321
 3231SOL     OW19622   0.375   4.822   1.442  0.0243 -0.3228 -0.4184
 3231SOL    HW119623   0.460   4.852   1.474  0.3114 -0.3144 -1.1811
 3231SOL    HW219624   0.386   4.813   1.348 -0.5097 -1.3614 -0.3975
 3232SOL     OW19625   7.976   5.700  11.864 -0.1344 -0.0644 -0.1861
 3232SOL    HW119626   7.958   5.766  11.931 -0.7574  0.6823 -1.0687
 3232SOL    HW219627   8.069   5.711  11.845 -0.2389  0.5778 -0.3464
 3233SOL     OW19628  12.776   6.160  11.605  0.1950  0.2774  0.1562
 3233SOL    HW119629  12.802   6.245  11.568  0.4777 -0.3058 -1.0534
 3233SOL    HW219630  12.683   6.171  11.626 -0.4774  0.1458 -2.3989
 3234SOL     OW19631   0.232   1.760   9.412 -0.3608  0.1741  0.0792
 3234SOL    HW119632   0.324   1.758   9.387  0.1145  0.5801  1.6862
 3234SOL    HW219633   0.224   1.696   9.482 -1.4691 -0.3696 -0.5111
 3235SOL     OW19634   7.604   6.168   0.576  0.7711  0.7627 -0.0265
 3235SOL    HW119635   7.518   6.159   0.618  1.0941 -0.4982  0.4137
 3235SOL    HW219636   7.594   6.124   0.492  0.7774  1.2952 -0.3105
 3236SOL     OW19637  12.016   2.419  13.027 -0.3187 -0.4909 -0.0834
 3236SOL    HW119638  12.091   2.467  13.063 -0.5348  1.4805 -2.0475
 3236SOL    HW219639  11.953   2.415  13.099  0.8357 -0.3317  0.9722
 3237SOL     OW19640   7.186   0.147   2.066 -0.2448  0.3412 -0.3514
 3237SOL    HW119641   7.104   0.119   2.025 -0.1652  0.3133 -0.4913
 3237SOL    HW219642   7.237   0.066   2.075 -0.5791  0.2171  0.5288
 3238SOL     OW19643  13.000   0.074   0.131 -0.2893 -0.0367 -0.2398
 3238SOL    HW119644  12.935   0.071   0.060 -0.8547 -0.3400  0.2816
 3238SOL    HW219645  13.058  -0.001   0.114  0.7401  0.9894 -1.4512
 3239SOL     OW19646   5.407   3.211  10.681  0.0673 -0.2478  0.1469
 3239SOL    HW119647   5.464   3.248  10.613  0.6583 -1.6165 -0.1260
 3239SOL    HW219648   5.376   3.128  10.645 -1.4013  0.0461  0.6711
 3240SOL     OW19649  10.365  11.220  11.700  0.1093  1.0625 -0.3380
 3240SOL    HW119650  10.319  11.299  11.672 -0.9598  0.3140 -0.7100
 3240SOL    HW219651  10.314  11.187  11.774  0.3725  0.5490 -0.3787
 3241SOL     OW19652  11.756   7.694   9.607 -0.5427  0.0308  0.5008
 3241SOL    HW119653  11.837   7.669   9.562 -0.8662  1.1235 -0.7412
 3241SOL    HW219654  11.780   7.772   9.658 -0.9121  0.6847 -0.2968
 3242SOL     OW19655  10.113   6.667   0.538 -0.6232 -0.1517  0.0110
 3242SOL    HW119656  10.139   6.723   0.611 -0.5768  0.1671 -0.2502
 3242SOL    HW219657  10.141   6.579   0.565  0.4990  0.1318 -0.1413
 3243SOL     OW19658   4.265   7.090   2.905 -0.5002  0.0681  0.1092
 3243SOL    HW119659   4.310   7.119   2.826  3.2649  0.8045  2.2609
 3243SOL    HW219660   4.203   7.160   2.925 -0.7485  0.3583 -1.5734
 3244SOL     OW19661   2.506   6.394   8.498 -0.0247 -0.6985 -0.5542
 3244SOL    HW119662   2.488   6.410   8.591  0.2808  0.0078 -0.6069
 3244SOL    HW219663   2.502   6.299   8.489  0.6153 -0.8320  0.3317
 3245SOL     OW19664  10.104  11.936   6.431 -0.1050 -0.6775 -0.0672
 3245SOL    HW119665  10.062  11.965   6.350 -2.8460  0.3517  1.6060
 3245SOL    HW219666  10.070  11.848   6.445 -2.0164  0.2189  1.3731
 3246SOL     OW19667   5.767   3.126   2.379 -0.0707 -0.0239  0.0347
 3246SOL    HW119668   5.677   3.097   2.385 -0.0526  0.0816  0.9689
 3246SOL    HW219669   5.770   3.181   2.301 -0.6433 -0.5946 -0.3949
 3247SOL     OW19670   3.282   0.609  12.735 -0.3398 -0.1328  0.2722
 3247SOL    HW119671   3.348   0.626  12.801 -0.5085  0.7899  0.2181
 3247SOL    HW219672   3.329   0.614  12.652 -0.1108 -1.3754  0.3173
 3248SOL     OW19673   4.863  11.829  12.558 -0.0859 -0.5491 -0.2368
 3248SOL    HW119674   4.956  11.848  12.542  0.0803 -0.5840  0.6387
 3248SOL    HW219675   4.821  11.846  12.474  0.7386 -0.6957 -0.6970
 3249SOL     OW19676   1.798   8.447  12.268  0.4513 -0.6780  0.0642
 3249SOL    HW119677   1.808   8.370  12.324  1.1702 -1.6321 -1.2940
 3249SOL    HW219678   1.718   8.489  12.299  1.1150 -0.8296  2.1391
 3250SOL     OW19679   6.107   4.817   6.813  0.1279  0.2728  0.2731
 3250SOL    HW119680   6.090   4.811   6.907  1.0304 -1.2969  0.3900
 3250SOL    HW219681   6.201   4.800   6.806 -0.5219 -3.8040 -1.1327
 3251SOL     OW19682   1.282   6.038   6.409  0.2333 -0.4978  0.0976
 3251SOL    HW119683   1.211   6.087   6.451  0.1486  1.0795 -1.7478
 3251SOL    HW219684   1.265   6.047   6.315  2.2113 -1.1152 -0.3682
 3252SOL     OW19685   3.625   6.564  11.671  0.5172  0.7727  0.1641
 3252SOL    HW119686   3.596   6.494  11.729 -1.3949  0.0219 -1.5619
 3252SOL    HW219687   3.649   6.636  11.730  1.3426 -0.8623  1.9354
 3253SOL     OW19688   1.329   6.318   1.016  0.1025 -0.1444 -0.2135
 3253SOL    HW119689   1.246   6.281   0.987  0.7575 -2.2676  0.4323
 3253SOL    HW219690   1.356   6.376   0.945 -1.2625 -0.4936 -1.0506
 3254SOL     OW19691   0.844  10.787  12.393  0.1970 -0.3402 -0.3786
 3254SOL    HW119692   0.869  10.695  12.399 -0.5830 -0.5360  0.0112
 3254SOL    HW219693   0.751  10.786  12.370  0.4992  0.3710 -1.7627
 3255SOL     OW19694  11.213   1.225  10.987 -0.7843 -0.9366 -0.5217
 3255SOL    HW119695  11.234   1.211  11.080  0.3662 -0.7077 -0.7354
 3255SOL    HW219696  11.223   1.319  10.974  0.4978 -1.1458 -1.2015
 3256SOL     OW19697  12.784   1.793   9.065  0.2147  0.4016 -0.7425
 3256SOL    HW119698  12.848   1.751   9.122  0.2550  0.3271 -0.8434
 3256SOL    HW219699  12.703   1.792   9.115  0.1129 -0.1776 -0.9125
 3257SOL     OW19700   6.541   2.429   4.299 -0.0575 -0.2718 -0.0098
 3257SOL    HW119701   6.624   2.384   4.282  0.7554  1.3950 -0.5994
 3257SOL    HW219702   6.499   2.434   4.213 -0.9600 -1.4222  0.3431
 3258SOL     OW19703  13.227   3.187   4.871  0.1298 -0.0874  0.1810
 3258SOL    HW119704  13.165   3.234   4.816  0.0019  0.6974  0.9591
 3258SOL    HW219705  13.206   3.215   4.960  0.7810 -0.7823  0.5701
 3259SOL     OW19706   3.664   2.294   6.357  0.5307  0.3300 -0.5624
 3259SOL    HW119707   3.707   2.366   6.311  0.1657  2.3108  1.9775
 3259SOL    HW219708   3.695   2.302   6.447 -2.5357 -0.2404  0.6605
 3260SOL     OW19709   8.969   5.682  12.047  0.3471  0.6811  0.0819
 3260SOL    HW119710   8.983   5.694  12.140  1.1249  2.2136 -0.2016
 3260SOL    HW219711   9.056   5.686  12.008  0.3231 -2.3068 -0.5481
 3261SOL     OW19712  10.081   9.041   4.112  0.6764  0.9312 -0.2309
 3261SOL    HW119713  10.041   9.111   4.060 -0.6792  0.6046  0.3155
 3261SOL    HW219714  10.069   9.069   4.203 -0.6678 -0.3679  0.0362
 3262SOL     OW19715  12.455   3.301   2.818  0.4426  0.0026 -0.0867
 3262SOL    HW119716  12.525   3.269   2.875  0.2896 -1.0453 -0.4710
 3262SOL    HW219717  12.475   3.265   2.732  0.6077  1.4892 -0.6972
 3263SOL     OW19718   4.235   8.477   3.197  0.2932  0.5194  0.3655
 3263SOL    HW119719   4.318   8.519   3.219  0.1699  1.2303 -0.5023
 3263SOL    HW219720   4.254   8.426   3.118 -0.2251  1.1776 -0.2034
 3264SOL     OW19721   9.143   4.129   6.903  0.0256  0.2520 -0.0589
 3264SOL    HW119722   9.212   4.076   6.943  0.8196  0.7125 -0.7870
 3264SOL    HW219723   9.150   4.214   6.946 -1.1731 -0.1613  1.0241
 3265SOL     OW19724   0.669   7.750  10.476 -0.6174  0.1201 -0.1732
 3265SOL    HW119725   0.647   7.804  10.400  0.2083  1.7829  0.7224
 3265SOL    HW219726   0.725   7.806  10.530 -2.1291 -0.5807  2.2428
 3266SOL     OW19727   4.804   4.423   5.727  0.6234 -0.1324  0.5452
 3266SOL    HW119728   4.839   4.381   5.806 -1.9989  0.4514  2.1284
 3266SOL    HW219729   4.723   4.465   5.756  0.3104  1.3609 -2.1756
 3267SOL     OW19730   9.861  11.979   9.428  0.8444 -0.2233  0.9600
 3267SOL    HW119731   9.801  12.026   9.371  1.0419  1.4749  2.0958
 3267SOL    HW219732   9.947  11.988   9.386  0.9466  0.8044  1.3626
 3268SOL     OW19733   6.022   8.828  10.243 -0.1644 -0.0264 -0.3613
 3268SOL    HW119734   5.985   8.742  10.223 -0.7000  0.0692  0.1745
 3268SOL    HW219735   6.116   8.811  10.255 -0.4924 -0.8427  1.3597
 3269SOL     OW19736   7.813   6.224   9.163  0.1001  0.1449 -0.9479
 3269SOL    HW119737   7.720   6.205   9.175  0.1336  0.9132  1.0526
 3269SOL    HW219738   7.858   6.151   9.205  0.3751  0.3377 -0.9036
 3270SOL     OW19739   1.237   7.934   4.320  0.2121  0.6380 -0.7115
 3270SOL    HW119740   1.285   7.863   4.276  1.7294 -1.4041  3.6902
 3270SOL    HW219741   1.304   7.996   4.346 -0.5130  1.3309 -0.4613
 3271SOL     OW19742   1.124   4.698   0.194  0.5907  0.0261 -0.1771
 3271SOL    HW119743   1.094   4.728   0.280  0.8076  0.0417 -0.1061
 3271SOL    HW219744   1.044   4.673   0.148  0.3291  1.5319 -0.5606
 3272SOL     OW19745   1.709   1.598   6.652  0.8902  0.0057 -0.1249
 3272SOL    HW119746   1.649   1.536   6.612  2.0304 -1.9795  1.0859
 3272SOL    HW219747   1.786   1.546   6.675  2.9668  2.3521 -1.2399
 3273SOL     OW19748   9.854   1.941   1.889  0.2375  0.4652 -0.5216
 3273SOL    HW119749   9.789   1.878   1.856 -1.1697  0.8392  1.3359
 3273SOL    HW219750   9.830   1.953   1.981  1.5694  2.3948 -0.3777
 3274SOL     OW19751  13.223  12.282   0.004 -0.2179  0.0939  0.2625
 3274SOL    HW119752  13.317  12.294  -0.004 -0.2935 -0.4731 -2.3495
 3274SOL    HW219753  13.207  12.283   0.098  1.8817  3.6898  0.7656
 3275SOL     OW19754   4.826  10.089  13.017 -0.1441  0.3783  0.0571
 3275SOL    HW119755   4.826  10.008  12.967  0.6901  0.4917 -0.1423
 3275SOL    HW219756   4.769  10.148  12.967  0.0369  0.2304 -0.3225
 3276SOL     OW19757   3.361   0.965   4.546 -0.4203  0.0003 -0.2104
 3276SOL    HW119758   3.314   0.989   4.626  0.9098 -2.1907  1.3019
 3276SOL    HW219759   3.369   0.870   4.550  1.6169  0.0382 -1.8325
 3277SOL     OW19760   8.206   6.781   2.750  0.6949  0.2324  0.0559
 3277SOL    HW119761   8.127   6.751   2.704  1.0034 -0.3649 -0.0939
 3277SOL    HW219762   8.269   6.709   2.740  1.4450  0.9266 -0.2854
 3278SOL     OW19763  11.650   6.555   4.331  0.2530 -0.4225  0.4939
 3278SOL    HW119764  11.674   6.463   4.324  1.0713 -0.0908 -3.3393
 3278SOL    HW219765  11.554   6.556   4.322  0.3556 -0.8519 -0.7498
 3279SOL     OW19766   9.921   2.527  12.878 -0.1052 -0.3237  0.0266
 3279SOL    HW119767   9.879   2.490  12.956  0.5389  0.3906  0.7219
 3279SOL    HW219768   9.932   2.452  12.819  1.4926 -1.3585  1.5533
 3280SOL     OW19769   4.248   3.558   7.812  0.4492  0.6646 -0.0356
 3280SOL    HW119770   4.211   3.640   7.843  1.4081  0.4860  1.7108
 3280SOL    HW219771   4.302   3.583   7.736 -0.8694  1.3185 -0.7824
 3281SOL     OW19772   3.649  10.501  12.617  0.1262 -0.0880  0.1981
 3281SOL    HW119773   3.594  10.560  12.668  1.2550  0.4781  0.7927
 3281SOL    HW219774   3.696  10.559  12.557 -0.6769 -0.6747 -1.0415
 3282SOL     OW19775   7.528   2.112  12.516 -0.3645 -0.4648 -0.3603
 3282SOL    HW119776   7.476   2.182  12.477 -0.4710 -0.5344 -0.3449
 3282SOL    HW219777   7.484   2.093  12.599  0.8311  0.8436  0.6164
 3283SOL     OW19778   5.645  11.774   5.455 -0.0771 -0.1031 -0.4293
 3283SOL    HW119779   5.566  11.720   5.454 -1.1345  1.3583  0.5147
 3283SOL    HW219780   5.643  11.819   5.540  1.0459  0.9944 -0.9477
 3284SOL     OW19781   6.354   2.034   4.771  0.0109  0.2824  0.5916
 3284SOL    HW119782   6.275   2.086   4.787  0.5498  1.3402 -0.0475
 3284SOL    HW219783   6.413   2.057   4.843  0.6618  1.4375 -0.2718
 3285SOL     OW19784   8.333   3.641   2.369  0.3691 -0.2842  0.2229
 3285SOL    HW119785   8.238   3.651   2.357  0.5274  1.2159  0.0459
 3285SOL    HW219786   8.341   3.585   2.447 -0.6531 -0.8972 -0.0897
 3286SOL     OW19787   8.267   8.101   8.390 -0.0151  0.1092 -0.4993
 3286SOL    HW119788   8.318   8.052   8.326 -0.3859  0.2366 -0.8980
 3286SOL    HW219789   8.246   8.184   8.346 -1.1695 -0.2302 -0.6275
 3287SOL     OW19790   2.097   5.950  12.840  0.2995 -0.1055 -0.0947
 3287SOL    HW119791   2.012   5.946  12.884  0.5475 -0.9488  0.3279
 3287SOL    HW219792   2.129   6.039  12.857 -0.0999 -0.0722  0.5143
 3288SOL     OW19793  13.237  10.378  12.351 -0.6761  0.3834 -0.0705
 3288SOL    HW119794  13.236  10.408  12.442 -1.1986  1.9612 -0.5557
 3288SOL    HW219795  13.200  10.451  12.301 -3.2627 -1.5638 -1.2560
 3289SOL     OW19796  11.442   2.644   8.213  0.7962  0.1021 -0.2275
 3289SOL    HW119797  11.377   2.588   8.172  1.5830 -1.3113  0.3820
 3289SOL    HW219798  11.423   2.732   8.180 -1.1146 -0.3474 -0.3892
 3290SOL     OW19799   0.281   9.601   7.602  0.1599 -0.1780  0.0103
 3290SOL    HW119800   0.267   9.529   7.664 -1.4538  0.6188  0.6601
 3290SOL    HW219801   0.375   9.606   7.591  0.3588 -1.6990  0.7863
 3291SOL     OW19802   6.889  11.218  10.163 -0.0442  0.8309  0.2299
 3291SOL    HW119803   6.968  11.271  10.161  0.7799 -0.2688  1.8888
 3291SOL    HW219804   6.911  11.139  10.113  0.0270  0.4089  0.9083
 3292SOL     OW19805   1.096   2.811   2.487 -0.2528  0.2159 -0.1227
 3292SOL    HW119806   1.185   2.778   2.500 -0.5270 -1.1645 -1.5000
 3292SOL    HW219807   1.057   2.808   2.575  0.4744 -0.9703  0.1879
 3293SOL     OW19808  10.923   3.134   6.851  0.5354 -0.1314  0.2210
 3293SOL    HW119809  10.997   3.195   6.853  0.2441  0.2431 -0.1787
 3293SOL    HW219810  10.963   3.048   6.847  0.9699 -0.0198  1.6578
 3294SOL     OW19811   7.268   3.958   9.275 -0.1468  0.0383  0.2893
 3294SOL    HW119812   7.198   3.916   9.224  0.6479 -1.6716  0.5296
 3294SOL    HW219813   7.227   3.980   9.359 -0.2681 -1.5765  0.6884
 3295SOL     OW19814   5.354   1.720   0.781  0.2584  0.7048  0.5527
 3295SOL    HW119815   5.364   1.626   0.762 -0.1909  0.5504  1.0465
 3295SOL    HW219816   5.295   1.752   0.713  3.9902  1.6776 -2.5454
 3296SOL     OW19817   9.239  11.339   1.774 -0.1693  0.1053  0.0751
 3296SOL    HW119818   9.333  11.359   1.766 -0.3991  1.2097 -0.0902
 3296SOL    HW219819   9.211  11.324   1.684 -0.0775 -0.5939  0.1622
 3297SOL     OW19820   9.072   4.016  12.556  0.1877 -0.1407  0.7192
 3297SOL    HW119821   9.077   4.098  12.508  0.5459  0.1457  1.2315
 3297SOL    HW219822   9.137   3.960  12.514 -1.0702 -0.6840 -0.5771
 3298SOL     OW19823   5.971   7.659   5.947  0.1579 -0.4922 -0.5015
 3298SOL    HW119824   5.892   7.714   5.945 -1.2868 -2.4594 -0.6394
 3298SOL    HW219825   5.971   7.621   6.035  1.9121  0.7367  0.0733
 3299SOL     OW19826   7.469   9.727   5.246 -0.1905 -0.1458  0.0971
 3299SOL    HW119827   7.557   9.704   5.276 -0.5809  0.0979  1.4856
 3299SOL    HW219828   7.428   9.772   5.320 -1.2040  0.5091 -0.8139
 3300SOL     OW19829   3.105  12.446  12.789  0.3112 -0.0335  0.5256
 3300SOL    HW119830   3.130  12.374  12.846 -0.9506 -0.2726  0.8212
 3300SOL    HW219831   3.132  12.419  12.702  2.8468  0.6143  1.0468
 3301SOL     OW19832   4.054   7.052   1.613 -0.1552  0.1079  0.2801
 3301SOL    HW119833   4.013   7.107   1.547  0.3453 -0.3915 -0.4596
 3301SOL    HW219834   3.996   7.058   1.689 -0.5832  0.9144 -0.0995
 3302SOL     OW19835   0.576   4.286   2.107 -0.2165  0.7436 -0.2311
 3302SOL    HW119836   0.482   4.270   2.113 -0.4241  2.0806  0.3907
 3302SOL    HW219837   0.585   4.351   2.037  0.3602 -0.1127 -0.9841
 3303SOL     OW19838  12.749   4.437   6.492 -0.3627 -0.0577 -0.4811
 3303SOL    HW119839  12.791   4.352   6.479 -1.9994 -0.6973 -1.9641
 3303SOL    HW219840  12.735   4.442   6.587 -0.0915 -1.3823 -0.3535
 3304SOL     OW19841   3.572   4.998   0.672 -0.0738 -0.2748 -0.1600
 3304SOL    HW119842   3.531   4.964   0.593 -0.3120 -0.0573 -0.1305
 3304SOL    HW219843   3.515   5.069   0.700 -0.1153 -0.4994  0.3358
 3305SOL     OW19844   0.553   2.522  10.593  0.2499  0.2072 -0.0795
 3305SOL    HW119845   0.512   2.599  10.632  3.0091  1.2225  1.0565
 3305SOL    HW219846   0.537   2.530  10.499 -1.8108  0.6657  0.2640
 3306SOL     OW19847   3.386   5.315  10.687 -0.0856 -0.2722  0.0336
 3306SOL    HW119848   3.363   5.325  10.779 -0.0048  0.0680  0.0157
 3306SOL    HW219849   3.301   5.303  10.643 -0.0606 -1.5787  0.2866
 3307SOL     OW19850   2.637   8.341   4.369 -0.2289 -0.4009 -0.2559
 3307SOL    HW119851   2.633   8.263   4.425 -1.4141 -0.4017 -0.3212
 3307SOL    HW219852   2.552   8.344   4.326 -0.7722  1.7650  0.8431
 3308SOL     OW19853  11.186   2.122  11.496  0.7629 -0.0791  0.1496
 3308SOL    HW119854  11.248   2.135  11.424  2.1935 -1.2800  1.1024
 3308SOL    HW219855  11.144   2.039  11.476 -0.9540  0.9422 -0.7265
 3309SOL     OW19856   5.038  13.161   7.609  0.2338  0.1142  0.7438
 3309SOL    HW119857   5.030  13.087   7.670  1.0284 -0.0939  0.6025
 3309SOL    HW219858   5.125  13.197   7.627 -0.2669  1.2027  1.0193
 3310SOL     OW19859   6.660   5.436  10.996 -0.2700  0.0893  0.3651
 3310SOL    HW119860   6.632   5.345  10.988 -1.2022  0.3551  0.4188
 3310SOL    HW219861   6.753   5.435  10.976 -0.7182 -0.5394 -1.9095
 3311SOL     OW19862   7.138   0.351   7.136  0.1324 -0.4283  0.0717
 3311SOL    HW119863   7.161   0.373   7.226  0.1750  0.0724 -0.0580
 3311SOL    HW219864   7.154   0.257   7.129 -0.5066 -0.6003  0.7788
 3312SOL     OW19865   8.943   9.666   7.117 -0.2142 -0.2916  0.0772
 3312SOL    HW119866   9.036   9.652   7.100  0.0030 -0.4133  1.2982
 3312SOL    HW219867   8.908   9.579   7.133 -0.4425 -0.2002  0.0814
 3313SOL     OW19868   4.570  10.439  11.379 -0.2683  0.4686  0.1279
 3313SOL    HW119869   4.650  10.408  11.336 -0.4420  0.2827 -0.0662
 3313SOL    HW219870   4.597  10.458  11.469 -0.2251 -0.5759  0.3549
 3314SOL     OW19871   6.105   8.923  12.861 -0.0611  0.4567 -0.0186
 3314SOL    HW119872   6.012   8.941  12.849 -0.1515  0.0731  0.1101
 3314SOL    HW219873   6.149   8.999  12.821 -0.4133  0.3675 -0.5858
 3315SOL     OW19874   7.255  10.485   2.212  0.1006  0.0273  0.0672
 3315SOL    HW119875   7.282  10.572   2.183  2.1668 -1.2297 -2.1826
 3315SOL    HW219876   7.196  10.454   2.144  1.7541 -1.4115 -0.7826
 3316SOL     OW19877   4.377  12.322   5.887  0.1317 -0.4285 -0.2457
 3316SOL    HW119878   4.420  12.285   5.964  3.0953  0.7498 -1.1906
 3316SOL    HW219879   4.360  12.414   5.911  0.0549 -0.3445 -0.6138
 3317SOL     OW19880   1.538   7.251   9.783  0.5421 -0.1515  0.1013
 3317SOL    HW119881   1.560   7.214   9.697  0.3387 -2.5438  0.9996
 3317SOL    HW219882   1.596   7.205   9.843  0.9549  1.7640  1.2625
 3318SOL     OW19883   4.034  10.489   9.663 -0.2922  0.4690  0.8193
 3318SOL    HW119884   3.978  10.411   9.659 -0.1366  0.3781  0.3589
 3318SOL    HW219885   3.972  10.562   9.664 -0.4478  0.4388 -1.1816
 3319SOL     OW19886   9.262   4.835  12.058  0.8795 -0.6860 -0.0945
 3319SOL    HW119887   9.212   4.763  12.019  0.8743  0.7912 -3.0797
 3319SOL    HW219888   9.289   4.889  11.984  0.7366  2.5354  1.9791
 3320SOL     OW19889   9.612   3.003   1.427 -0.6224 -0.1072 -0.5472
 3320SOL    HW119890   9.701   3.003   1.463 -0.6245  0.0340 -0.5409
 3320SOL    HW219891   9.559   2.957   1.492 -1.1660  2.4990  0.9696
 3321SOL     OW19892  11.765  10.759   2.705  1.4532  0.6112  0.6264
 3321SOL    HW119893  11.836  10.758   2.768  1.3263 -1.2203  0.7769
 3321SOL    HW219894  11.690  10.722   2.752  0.5298  1.9838  0.2990
 3322SOL     OW19895   8.567   9.897   6.814 -0.1712  0.4496 -0.3183
 3322SOL    HW119896   8.656   9.933   6.817  1.2917 -2.8676  1.1376
 3322SOL    HW219897   8.523   9.935   6.891  1.0644 -0.1857  0.7462
 3323SOL     OW19898   2.881   7.572   3.535 -0.7270  0.3062  0.4124
 3323SOL    HW119899   2.971   7.602   3.525  0.6072 -2.8699  1.7968
 3323SOL    HW219900   2.850   7.558   3.446  1.1617 -1.1516 -0.0823
 3324SOL     OW19901  12.088  11.553   6.744  0.0488  0.3239 -0.2280
 3324SOL    HW119902  12.132  11.510   6.671 -0.1763 -0.8120  0.2797
 3324SOL    HW219903  12.031  11.617   6.703 -0.5529 -0.7338 -1.0990
 3325SOL     OW19904   0.383  12.291   4.828 -0.1241  0.3105 -0.1525
 3325SOL    HW119905   0.417  12.284   4.738 -0.3439 -0.2495 -0.1988
 3325SOL    HW219906   0.448  12.343   4.874  0.3450  0.0119 -0.4666
 3326SOL     OW19907   3.370  10.092  11.973  0.4542 -0.3193  0.3546
 3326SOL    HW119908   3.445  10.147  11.950  2.5570 -2.8078  0.7804
 3326SOL    HW219909   3.377  10.082  12.068 -0.8280 -0.0669  0.4847
 3327SOL     OW19910   1.636   6.544   6.989  0.3518  0.0392 -0.2169
 3327SOL    HW119911   1.723   6.552   7.028  0.5861  2.0428 -1.0682
 3327SOL    HW219912   1.631   6.614   6.924 -1.5735 -0.6022 -0.8479
 3328SOL     OW19913   7.759   8.944   2.488 -0.0638 -0.1293 -0.4618
 3328SOL    HW119914   7.820   8.969   2.557  0.0731  0.3199 -0.7422
 3328SOL    HW219915   7.724   8.860   2.516 -0.2094  0.1764  0.2889
 3329SOL     OW19916   6.038   0.964   0.621 -0.0790  0.5585  0.2299
 3329SOL    HW119917   6.101   0.951   0.550 -0.4466  0.7362 -0.1289
 3329SOL    HW219918   6.022   0.876   0.656 -0.9572  0.2851 -0.8224
 3330SOL     OW19919   6.626   3.929   4.494  0.4774 -0.0474  0.3663
 3330SOL    HW119920   6.711   3.920   4.536  0.0559 -0.8156  1.0822
 3330SOL    HW219921   6.611   3.844   4.451  1.0294  0.7990 -1.6498
 3331SOL     OW19922   2.195  10.387  10.286 -0.0701  0.3837  0.1937
 3331SOL    HW119923   2.234  10.403  10.372 -0.7644  1.2704  0.3617
 3331SOL    HW219924   2.268  10.356  10.231  0.2999 -0.5752  1.1880
 3332SOL     OW19925   7.761   4.532   2.515 -0.2931 -0.6276  0.2300
 3332SOL    HW119926   7.797   4.592   2.450 -1.4536  3.4853  3.0105
 3332SOL    HW219927   7.834   4.474   2.538  0.9195 -0.3408 -2.5589
 3333SOL     OW19928   8.407  11.251   9.157  0.2554 -0.4006  0.2515
 3333SOL    HW119929   8.472  11.206   9.104  1.0277  0.7264  0.2205
 3333SOL    HW219930   8.447  11.256   9.244 -0.4174 -0.9950  0.6107
 3334SOL     OW19931  10.777   4.054   8.746  0.2218 -0.7264  0.2701
 3334SOL    HW119932  10.717   4.040   8.673  0.3787 -0.8542  0.1652
 3334SOL    HW219933  10.857   4.086   8.705 -0.3823  1.3073  0.5619
 3335SOL     OW19934  13.117  11.740   4.199  0.0132 -0.3867 -0.4860
 3335SOL    HW119935  13.089  11.663   4.249  1.5380 -2.4432 -2.5806
 3335SOL    HW219936  13.040  11.764   4.148 -0.3100 -0.8921 -0.2517
 3336SOL     OW19937   2.246   5.476  12.660 -0.1210 -0.6428  0.0477
 3336SOL    HW119938   2.208   5.388  12.661 -1.0336 -0.2952 -1.2925
 3336SOL    HW219939   2.272   5.491  12.751  0.7870 -2.5886  0.1742
 3337SOL     OW19940  13.164   2.331   7.476  0.1421 -0.5565 -0.0409
 3337SOL    HW119941  13.197   2.398   7.536 -0.0316  0.2654 -0.8296
 3337SOL    HW219942  13.126   2.264   7.532  2.5329 -1.2139  0.8761
 3338SOL     OW19943   3.083   3.711   8.596 -0.2837 -0.2824 -0.3568
 3338SOL    HW119944   3.038   3.733   8.514  0.5870 -1.6873 -1.2722
 3338SOL    HW219945   3.141   3.638   8.572 -0.2234 -0.9299  1.5965
 3339SOL     OW19946   7.806   5.568   0.766 -0.1635 -0.0234  0.5472
 3339SOL    HW119947   7.752   5.556   0.844  0.2710 -0.8918  0.7196
 3339SOL    HW219948   7.896   5.563   0.799  0.0373  1.1598  0.2257
 3340SOL     OW19949   1.118   0.180  11.778 -0.4362  0.0136 -0.9152
 3340SOL    HW119950   1.130   0.266  11.736  0.9414  0.0669 -0.4768
 3340SOL    HW219951   1.084   0.201  11.865  0.7653  0.2032 -0.4705
 3341SOL     OW19952   2.268   6.014  10.480  0.3343  0.5396 -0.6464
 3341SOL    HW119953   2.341   6.029  10.540 -0.2108  0.1264  0.1482
 3341SOL    HW219954   2.220   5.941  10.520  0.1778 -0.0054 -1.8050
 3342SOL     OW19955   4.519  12.340   0.724 -0.4025  0.4161 -0.6388
 3342SOL    HW119956   4.449  12.405   0.714  0.0095  0.9015 -0.4374
 3342SOL    HW219957   4.557  12.333   0.636 -2.5308 -2.0050 -1.4673
 3343SOL     OW19958   9.838   9.957  10.542  0.0284  0.4309 -0.1508
 3343SOL    HW119959   9.751   9.918  10.550  0.1723  0.0632 -0.3511
 3343SOL    HW219960   9.899   9.885  10.555  0.3887  1.1608  2.8652
 3344SOL     OW19961   9.246  10.079   9.376 -0.0625  0.2042 -0.1166
 3344SOL    HW119962   9.242   9.994   9.421 -0.2944  0.0754 -0.3798
 3344SOL    HW219963   9.340  10.098   9.371 -0.0275  0.1448  0.2825
 3345SOL     OW19964  12.641   4.858  12.947  0.5608  0.4046 -0.5808
 3345SOL    HW119965  12.645   4.785  12.886 -0.8304 -0.2204  0.0212
 3345SOL    HW219966  12.618   4.817  13.031 -0.7375  1.5641 -0.3357
 3346SOL     OW19967   1.067  11.057  13.166  0.2840  0.3133  0.2820
 3346SOL    HW119968   1.123  11.134  13.178  0.0291  0.5122  0.1832
 3346SOL    HW219969   0.987  11.077  13.213  0.1802  0.1443  0.1792
 3347SOL     OW19970  11.824   9.596   7.691  0.1569 -0.5405  0.3285
 3347SOL    HW119971  11.843   9.560   7.778 -1.0932  0.4489  1.0377
 3347SOL    HW219972  11.897   9.655   7.674 -0.4719  0.6410  1.5333
 3348SOL     OW19973   8.790   8.780  11.073 -0.1325 -0.0736  0.5302
 3348SOL    HW119974   8.824   8.794  10.985  1.8783 -1.1023  1.0959
 3348SOL    HW219975   8.851   8.825  11.130  1.8063 -3.7915  1.7461
 3349SOL     OW19976   5.091   4.513   5.171  0.5186 -0.7921  0.2079
 3349SOL    HW119977   5.042   4.548   5.246  0.7388 -0.0721  0.0281
 3349SOL    HW219978   5.025   4.496   5.104  0.3131 -1.4853  0.5696
 3350SOL     OW19979   0.004   4.465   7.899 -0.2398 -0.1246 -0.5263
 3350SOL    HW119980  -0.082   4.477   7.938  0.6983  0.7440  1.4443
 3350SOL    HW219981   0.065   4.488   7.969  1.5886  0.9620 -2.3790
 3351SOL     OW19982   7.218   5.923   1.734  0.3326  0.3151  0.8466
 3351SOL    HW119983   7.158   5.851   1.712  3.1984 -2.6303  1.8149
 3351SOL    HW219984   7.181   5.961   1.813 -0.1082 -1.7029  1.6837
 3352SOL     OW19985   1.119  11.241   2.766 -0.1922  0.2126 -0.0301
 3352SOL    HW119986   1.167  11.166   2.801 -0.8353  0.1145  0.6812
 3352SOL    HW219987   1.138  11.313   2.827  0.0461  0.5042 -0.4432
 3353SOL     OW19988   1.232   6.804  11.839 -0.3022  0.8776  0.0159
 3353SOL    HW119989   1.175   6.759  11.902 -0.9215 -0.8287 -1.6564
 3353SOL    HW219990   1.287   6.861  11.893 -0.4241 -0.8823  2.1570
 3354SOL     OW19991   6.369  10.200   5.070 -0.4518  0.2167 -0.0630
 3354SOL    HW119992   6.274  10.194   5.059 -0.2163 -0.6276 -2.0438
 3354SOL    HW219993   6.386  10.156   5.153 -1.7377 -0.3893 -0.0905
 3355SOL     OW19994   6.030   6.680  10.917 -0.2297 -0.3260 -0.4416
 3355SOL    HW119995   5.995   6.766  10.941 -2.4211 -0.9021 -1.3920
 3355SOL    HW219996   6.042   6.685  10.822  3.5558  0.2315 -0.1022
 3356SOL     OW19997   6.672  11.595   6.935  0.3825 -0.5833 -0.3292
 3356SOL    HW119998   6.737  11.529   6.910  0.7925  0.1027 -1.1175
 3356SOL    HW219999   6.588  11.549   6.935  1.0742 -2.1686  3.2126
 3357SOL     OW20000   1.666  12.302   7.786  0.8439 -0.0288  0.5718
 3357SOL    HW120001   1.636  12.321   7.875  0.4355 -0.1285  0.4564
 3357SOL    HW220002   1.586  12.305   7.732  1.2117  0.9211  0.0630
 3358SOL     OW20003  11.281   2.740   9.184 -0.1211 -0.0512  0.0804
 3358SOL    HW120004  11.353   2.802   9.186  0.9259 -1.2088 -0.2756
 3358SOL    HW220005  11.323   2.654   9.196 -1.4538 -0.7371  0.0242
 3359SOL     OW20006   1.661   7.160   7.612  0.5726 -0.5266 -0.4568
 3359SOL    HW120007   1.594   7.099   7.643  0.3845 -1.0885 -1.8725
 3359SOL    HW220008   1.611   7.235   7.578  0.7154 -0.4299 -0.4572
 3360SOL     OW20009  12.661   3.519   3.204  0.0907  0.5245 -0.0537
 3360SOL    HW120010  12.678   3.431   3.238 -0.3713  0.6576  0.5364
 3360SOL    HW220011  12.691   3.516   3.113  1.0559  0.0660  0.2612
 3361SOL     OW20012   2.541   6.012  11.556  0.1393  0.7051  0.5127
 3361SOL    HW120013   2.473   5.951  11.584  1.2521 -0.3587  0.9833
 3361SOL    HW220014   2.498   6.067  11.491 -0.6862 -1.1576 -0.5955
 3362SOL     OW20015  10.286   8.293   3.899  0.4573  0.0231 -0.4904
 3362SOL    HW120016  10.267   8.202   3.919 -1.5663  0.1629 -1.4740
 3362SOL    HW220017  10.212   8.342   3.937  0.6771  1.0622 -1.3280
 3363SOL     OW20018   9.194  10.181  11.663  0.1693 -0.3104 -0.8304
 3363SOL    HW120019   9.141  10.134  11.727 -0.1165 -0.6780 -1.3308
 3363SOL    HW220020   9.192  10.273  11.692 -1.2962 -0.2073 -1.2243
 3364SOL     OW20021   9.116  11.413   9.346  0.0321  0.3043 -0.2132
 3364SOL    HW120022   9.076  11.447   9.266  0.5778 -0.4258 -0.8037
 3364SOL    HW220023   9.190  11.471   9.363 -1.2738  1.7377  0.9490
 3365SOL     OW20024  12.757   9.416   8.856 -0.5094 -0.0594  0.3532
 3365SOL    HW120025  12.723   9.463   8.780  0.5441 -0.9905 -0.7383
 3365SOL    HW220026  12.741   9.475   8.929 -0.0783  1.6060 -0.8281
 3366SOL     OW20027   2.955   8.571   9.052  0.4312  0.2539 -0.1511
 3366SOL    HW120028   2.974   8.591   8.960 -0.4025  2.4275  0.1089
 3366SOL    HW220029   2.886   8.505   9.048  1.6689 -1.0526 -1.0500
 3367SOL     OW20030   4.667   8.099  11.588  0.0571  0.4201  0.3757
 3367SOL    HW120031   4.727   8.102  11.514 -0.7679  0.0259 -0.3329
 3367SOL    HW220032   4.587   8.059  11.553 -0.8847  1.5776  1.0942
 3368SOL     OW20033   9.526   3.281   0.033  0.1561  0.1522  0.4856
 3368SOL    HW120034   9.490   3.370   0.024 -1.5073 -0.6618 -2.2253
 3368SOL    HW220035   9.461   3.235   0.087  1.4575  0.7132  2.6430
 3369SOL     OW20036  10.416   8.759  11.623  0.0779 -0.3647 -0.3053
 3369SOL    HW120037  10.420   8.800  11.536 -0.5554  2.0935  0.7290
 3369SOL    HW220038  10.322   8.748  11.639  0.1581 -0.1064  0.3612
 3370SOL     OW20039   2.189  10.151  11.678  0.0503 -0.3279  0.2923
 3370SOL    HW120040   2.220  10.155  11.768 -0.4844  0.4437  0.4560
 3370SOL    HW220041   2.140  10.233  11.666  0.5217 -0.1870 -0.8445
 3371SOL     OW20042   6.047   0.374   9.392 -0.5118  0.3912 -0.6725
 3371SOL    HW120043   6.051   0.398   9.484 -0.9154  0.3423 -0.6404
 3371SOL    HW220044   6.128   0.326   9.376 -0.2258  0.7983 -0.4584
 3372SOL     OW20045   1.857   3.864   8.261  0.0544  0.4267  0.7504
 3372SOL    HW120046   1.929   3.917   8.227  1.5342 -1.4718  0.6900
 3372SOL    HW220047   1.778   3.915   8.245  1.1461  1.5233 -1.4902
 3373SOL     OW20048  12.716   5.596  12.166  0.8132  0.4302 -0.4156
 3373SOL    HW120049  12.683   5.677  12.127  1.1651  1.0933  0.6298
 3373SOL    HW220050  12.800   5.620  12.204  1.6772 -0.8144 -1.4556
 3374SOL     OW20051   8.795  11.178   4.359 -0.2323 -0.3701 -0.0898
 3374SOL    HW120052   8.708  11.216   4.361  0.9507  2.7362 -1.2312
 3374SOL    HW220053   8.848  11.234   4.415  1.3496 -1.2665 -0.6022
 3375SOL     OW20054   1.884   3.417   4.940 -0.5072  0.2141 -0.4018
 3375SOL    HW120055   1.922   3.329   4.934 -0.7086  0.1907 -1.6159
 3375SOL    HW220056   1.846   3.421   5.027  0.0479 -0.6843 -0.1061
 3376SOL     OW20057   3.337   5.982  10.416  0.3520  0.4371 -0.0503
 3376SOL    HW120058   3.415   5.984  10.471  0.6586 -2.0084 -0.2772
 3376SOL    HW220059   3.271   6.029  10.466  1.6791  1.6633  0.6130
 3377SOL     OW20060   8.538   0.013  11.412  0.2762 -0.0174 -0.0281
 3377SOL    HW120061   8.514   0.027  11.503 -0.7481 -1.1922 -0.0984
 3377SOL    HW220062   8.596  -0.063  11.413 -0.7025 -0.7933 -0.4565
 3378SOL     OW20063  10.905   2.225  10.358 -0.2292  0.4239 -0.4440
 3378SOL    HW120064  10.838   2.286  10.328 -0.8582  0.3195  0.6749
 3378SOL    HW220065  10.884   2.210  10.450  2.6912  2.2455  0.6934
 3379SOL     OW20066   6.133   7.293  10.191 -0.3791 -0.0311 -0.1170
 3379SOL    HW120067   6.068   7.363  10.187  0.0113  0.4328  1.0293
 3379SOL    HW220068   6.209   7.329  10.145  0.6398  1.2993  2.3709
 3380SOL     OW20069   4.934   6.836  10.244  0.6061  0.2867 -0.4045
 3380SOL    HW120070   4.974   6.863  10.327  0.4669  0.5727 -0.4300
 3380SOL    HW220071   4.991   6.875  10.177  1.3853 -0.8919 -0.4627
 3381SOL     OW20072   3.313   5.032   7.382  0.1972 -0.1566  0.0989
 3381SOL    HW120073   3.271   4.948   7.366  0.0460 -0.1979  0.6790
 3381SOL    HW220074   3.316   5.040   7.477  0.4544  0.3734  0.0541
 3382SOL     OW20075   5.158   5.148   0.072  0.1856 -0.0406  0.5128
 3382SOL    HW120076   5.068   5.126   0.098  0.7699 -0.3595  2.3920
 3382SOL    HW220077   5.178   5.228   0.121  1.7916 -1.3936  2.2344
 3383SOL     OW20078  12.203   9.859   7.827  0.6321 -0.1855  0.3296
 3383SOL    HW120079  12.180   9.951   7.831 -0.0871 -0.3980  2.3451
 3383SOL    HW220080  12.291   9.857   7.788  1.0285  1.4123  1.0818
 3384SOL     OW20081   1.940  10.160   4.295 -0.2894 -0.2564 -0.0400
 3384SOL    HW120082   1.943  10.161   4.199 -0.4792 -0.8151 -0.0532
 3384SOL    HW220083   1.850  10.137   4.316 -0.2041 -0.3117  0.2727
 3385SOL     OW20084   6.362   1.813   8.228 -0.8679 -0.2734 -0.1716
 3385SOL    HW120085   6.357   1.854   8.315  1.8643 -0.2721  0.0712
 3385SOL    HW220086   6.398   1.882   8.172  1.0864 -1.3938 -0.3863
 3386SOL     OW20087  12.132   9.214   4.849  0.4141  0.0010  0.1962
 3386SOL    HW120088  12.197   9.273   4.812  1.9397  0.0324  2.7418
 3386SOL    HW220089  12.074   9.271   4.899  0.3773 -0.3921  0.6028
 3387SOL     OW20090   8.266  12.069  11.150  0.0729 -0.2724  0.1962
 3387SOL    HW120091   8.225  12.022  11.223  1.0927 -1.1496  0.2386
 3387SOL    HW220092   8.275  12.003  11.081 -1.5297  0.7260 -1.0173
 3388SOL     OW20093   4.542  13.105   3.066 -0.2991 -0.0295  0.0329
 3388SOL    HW120094   4.634  13.111   3.039 -0.5931 -0.0368 -0.9960
 3388SOL    HW220095   4.533  13.173   3.134  0.3247  0.3483 -0.2482
 3389SOL     OW20096   4.013   0.887   2.186 -0.6687  0.0337 -0.8137
 3389SOL    HW120097   3.934   0.891   2.241  0.3177 -1.2521  0.7853
 3389SOL    HW220098   4.075   0.945   2.230 -0.2421 -0.0953 -1.2439
 3390SOL     OW20099   9.829   6.438  10.088 -0.2573 -0.1183  0.3352
 3390SOL    HW120100   9.914   6.481  10.095 -0.3503  0.5028 -1.7250
 3390SOL    HW220101   9.848   6.345  10.085  0.3498  0.0119  0.0561
 3391SOL     OW20102   7.566   0.998   5.680  0.3448  0.8917  1.3742
 3391SOL    HW120103   7.606   1.045   5.606 -1.8640  0.7620  0.0158
 3391SOL    HW220104   7.637   0.944   5.714  1.4471  0.9373 -0.6676
 3392SOL     OW20105   3.056   4.982  13.312  0.1552 -0.3474 -0.7183
 3392SOL    HW120106   3.030   5.068  13.277 -1.6477 -0.1573  0.9573
 3392SOL    HW220107   3.140   4.998  13.355 -0.6390  0.8434  0.4503
 3393SOL     OW20108   7.466   7.416  13.145 -0.6471 -0.1043  0.3310
 3393SOL    HW120109   7.390   7.444  13.194  0.2296  0.5325  1.3768
 3393SOL    HW220110   7.536   7.408  13.211 -0.3235 -2.8236 -0.2006
 3394SOL     OW20111  12.004   3.146   2.106  0.8998 -0.7194 -0.1262
 3394SOL    HW120112  12.003   3.240   2.094 -0.0023 -0.3507  2.1929
 3394SOL    HW220113  11.912   3.122   2.120  1.1559 -1.8836 -0.2709
 3395SOL     OW20114   5.797   6.426  11.541  0.2007 -0.0296  0.0895
 3395SOL    HW120115   5.819   6.333  11.553  1.0527  0.2410  0.6526
 3395SOL    HW220116   5.866   6.473  11.586 -0.6866  0.8771  0.5334
 3396SOL     OW20117   6.634   7.774   1.866 -0.0908  0.4838  0.0674
 3396SOL    HW120118   6.669   7.685   1.863 -0.8585  0.0839  1.7240
 3396SOL    HW220119   6.709   7.830   1.848  0.4246 -0.4758 -0.9047
 3397SOL     OW20120   3.407   4.040  12.898  0.1256 -0.1254 -0.3554
 3397SOL    HW120121   3.360   4.093  12.963  2.1898  0.8010  0.4509
 3397SOL    HW220122   3.426   3.958  12.943  0.7838  0.1770 -0.0699
 3398SOL     OW20123   3.337   5.923   6.645 -0.0963  0.1238 -0.0818
 3398SOL    HW120124   3.343   5.837   6.687 -0.0035  0.6941  1.0852
 3398SOL    HW220125   3.295   5.905   6.561 -0.1591 -1.0487  0.1824
 3399SOL     OW20126   8.692  11.649   1.683  0.2473 -0.6736 -0.0909
 3399SOL    HW120127   8.763  11.679   1.741  0.2860  0.8259 -0.8403
 3399SOL    HW220128   8.700  11.554   1.682  1.0941 -0.6472  1.2854
 3400SOL     OW20129  10.471  11.641   8.869  0.0513  0.4307  0.1098
 3400SOL    HW120130  10.501  11.680   8.787 -1.1397 -1.3885 -1.2815
 3400SOL    HW220131  10.425  11.561   8.842 -1.6879  0.5390  2.4361
 3401SOL     OW20132   8.510   9.033  11.202  0.3623  0.1952 -0.2632
 3401SOL    HW120133   8.421   9.057  11.173 -0.7913 -1.0734  1.9306
 3401SOL    HW220134   8.510   8.937  11.200  1.5846  0.1770  0.0406
 3402SOL     OW20135   0.335   7.345   9.355 -0.0134 -0.1835  0.0521
 3402SOL    HW120136   0.324   7.312   9.266 -0.5230 -0.0530  0.0646
 3402SOL    HW220137   0.273   7.293   9.407 -0.7714  0.7231  0.0859
 3403SOL     OW20138   4.674   8.465   9.274 -0.9155  0.3735  0.4896
 3403SOL    HW120139   4.739   8.497   9.336 -0.3120 -0.7561  0.4758
 3403SOL    HW220140   4.722   8.454   9.192 -1.2347  0.0088  0.3453
 3404SOL     OW20141   9.805   4.469  12.682 -0.5146 -0.9293 -0.1841
 3404SOL    HW120142   9.715   4.442  12.668 -0.1878 -2.0960 -0.1112
 3404SOL    HW220143   9.830   4.512  12.600 -0.8578 -1.3874 -0.5341
 3405SOL     OW20144   9.106   2.737   2.043 -0.2823 -0.3403 -0.2779
 3405SOL    HW120145   9.037   2.803   2.042 -0.4693 -0.5334 -0.2243
 3405SOL    HW220146   9.106   2.700   1.955 -1.0087 -1.1170  0.0274
 3406SOL     OW20147   3.116   6.268   3.474  0.5301  0.5206  0.2473
 3406SOL    HW120148   3.172   6.305   3.406  0.7126  0.0833  0.1540
 3406SOL    HW220149   3.081   6.344   3.521  0.4733  0.8236 -0.2759
 3407SOL     OW20150   3.664   2.226   8.290 -0.3366 -0.0740 -0.0567
 3407SOL    HW120151   3.738   2.167   8.302  0.5467  0.9558 -0.2803
 3407SOL    HW220152   3.604   2.178   8.232 -0.1740 -1.1872  0.6757
 3408SOL     OW20153   8.932   2.334  11.076  0.3341  0.0479 -0.3414
 3408SOL    HW120154   8.958   2.258  11.024  2.2091  0.2578  0.2201
 3408SOL    HW220155   8.861   2.302  11.131 -0.0519 -0.8245 -1.3266
 3409SOL     OW20156   6.966   6.507   1.978  0.2171 -0.1525  0.1503
 3409SOL    HW120157   7.000   6.417   1.975 -1.3234 -0.7661  0.3159
 3409SOL    HW220158   6.886   6.501   2.029 -1.2603  0.8469 -1.8990
 3410SOL     OW20159   3.834   1.298  11.670  0.7104  0.5074 -0.1507
 3410SOL    HW120160   3.785   1.259  11.597  0.9955 -0.1478 -0.0039
 3410SOL    HW220161   3.916   1.248  11.672  0.3421 -0.0894  1.1709
 3411SOL     OW20162   2.484  11.288   5.704 -0.0504  0.5767  0.3719
 3411SOL    HW120163   2.388  11.295   5.709 -0.2711 -1.3370 -0.4316
 3411SOL    HW220164   2.508  11.342   5.629 -0.6119  0.3693  0.0372
 3412SOL     OW20165   7.400   2.018  12.736  0.8338 -0.2311  0.2017
 3412SOL    HW120166   7.420   2.039  12.827 -2.9235  1.9603  0.7418
 3412SOL    HW220167   7.340   1.943  12.742  1.1623 -0.5573 -0.5382
 3413SOL     OW20168  12.187  10.296  12.821  0.1955 -0.4609  0.3025
 3413SOL    HW120169  12.192  10.388  12.845 -0.5371 -0.6659  1.3437
 3413SOL    HW220170  12.273  10.275  12.785  0.1403  0.7955 -0.5996
 3414SOL     OW20171  10.686   1.578   1.559  0.1344  0.2905  0.3225
 3414SOL    HW120172  10.750   1.606   1.625  0.4298  1.6487 -0.4876
 3414SOL    HW220173  10.673   1.485   1.576  2.5873 -0.1320  0.3138
 3415SOL     OW20174  11.832   6.858   3.298 -0.4775  0.0404  0.0928
 3415SOL    HW120175  11.857   6.912   3.224  2.2586 -0.9338  0.2008
 3415SOL    HW220176  11.787   6.783   3.259 -0.0004  0.0465 -0.4716
 3416SOL     OW20177   7.165  11.138   0.838 -0.4965  0.5684 -0.0133
 3416SOL    HW120178   7.154  11.215   0.782 -2.0056  0.8380  0.6226
 3416SOL    HW220179   7.092  11.081   0.815  0.4958 -0.6029 -0.3286
 3417SOL     OW20180   3.075   7.381  12.646 -0.3003 -0.4691 -0.1391
 3417SOL    HW120181   3.027   7.303  12.674 -1.2744 -0.1200 -0.7810
 3417SOL    HW220182   3.018   7.454  12.670 -0.3085 -0.0663 -1.3092
 3418SOL     OW20183   2.646   8.906   1.219 -0.0411  1.0224 -0.3775
 3418SOL    HW120184   2.622   8.986   1.173  0.9632  0.9122 -1.1200
 3418SOL    HW220185   2.724   8.929   1.269  0.5279  0.3956 -0.9603
 3419SOL     OW20186  11.077   0.630   2.563  0.2909  0.0055  0.6005
 3419SOL    HW120187  11.136   0.627   2.488 -0.8129  3.2954 -0.5650
 3419SOL    HW220188  10.997   0.589   2.532  0.2476  0.2528  0.3763
 3420SOL     OW20189   3.172   2.553   0.268 -0.1486 -0.1369 -0.0128
 3420SOL    HW120190   3.205   2.631   0.223 -0.4446  1.6228  2.5769
 3420SOL    HW220191   3.250   2.508   0.299  0.0006  0.2910  0.2475
 3421SOL     OW20192   5.678   0.133  12.679 -0.4375  0.3368  0.3603
 3421SOL    HW120193   5.604   0.109  12.624 -0.1135 -0.0904  0.1073
 3421SOL    HW220194   5.749   0.152  12.617 -0.4864  1.2635  0.5812
 3422SOL     OW20195   2.004   3.452  10.361 -0.6239 -0.2092 -0.0273
 3422SOL    HW120196   1.967   3.482  10.444 -0.5463 -1.3315  0.4339
 3422SOL    HW220197   1.928   3.422  10.311 -0.8041  1.4976 -0.8369
 3423SOL     OW20198   3.733   8.205   5.258  0.2386  0.1732  0.1393
 3423SOL    HW120199   3.714   8.215   5.165 -0.0670  1.4271  0.3176
 3423SOL    HW220200   3.753   8.294   5.289 -0.2290 -0.1239  1.3832
 3424SOL     OW20201  11.227   4.134  12.724 -0.1438  0.1468  0.6081
 3424SOL    HW120202  11.169   4.209  12.709  0.8341  0.6054 -1.1816
 3424SOL    HW220203  11.184   4.061  12.681  0.3538  0.3934 -0.3448
 3425SOL     OW20204  10.120  10.814   7.511 -0.5559  0.6029 -0.1472
 3425SOL    HW120205  10.128  10.817   7.606 -0.0672  2.9345 -0.1856
 3425SOL    HW220206  10.087  10.726   7.492 -1.6665  0.4138  2.2421
 3426SOL     OW20207  10.726   6.468  12.735  0.0538  0.3949  0.0468
 3426SOL    HW120208  10.700   6.544  12.683 -1.4271 -0.4236 -0.4877
 3426SOL    HW220209  10.813   6.445  12.703 -0.3864  0.5625 -1.3327
 3427SOL     OW20210   4.634   5.278   9.423  0.0355  0.1925 -0.1495
 3427SOL    HW120211   4.723   5.288   9.458  0.0673 -0.0204 -0.1693
 3427SOL    HW220212   4.596   5.208   9.475 -0.2826  0.5994  0.1744
 3428SOL     OW20213   8.136   1.390   4.669 -0.0129 -0.6141  0.3959
 3428SOL    HW120214   8.080   1.466   4.683 -1.2375 -1.1752 -1.1804
 3428SOL    HW220215   8.079   1.325   4.626  1.4689 -1.7377  0.0242
 3429SOL     OW20216   3.237   9.326   9.280  0.1707 -0.5967  0.4809
 3429SOL    HW120217   3.170   9.338   9.213 -0.7084 -1.3115  1.2081
 3429SOL    HW220218   3.258   9.415   9.310  2.1782 -0.0138 -2.1927
 3430SOL     OW20219  12.856  12.910   8.275 -0.5931  0.7236  0.3204
 3430SOL    HW120220  12.901  12.864   8.204  0.0828  1.0660  0.5222
 3430SOL    HW220221  12.763  12.894   8.258 -0.3875 -0.2574  0.0858
 3431SOL     OW20222   5.196  10.760  10.066 -0.2120  0.7534 -0.0266
 3431SOL    HW120223   5.104  10.778  10.049 -0.4835  0.2999  0.9052
 3431SOL    HW220224   5.221  10.697   9.999 -0.4772  1.1375 -0.4973
 3432SOL     OW20225   0.280  11.116   2.226 -0.3938 -0.7534  0.1616
 3432SOL    HW120226   0.201  11.152   2.185 -0.2328  1.8562  1.9095
 3432SOL    HW220227   0.248  11.056   2.293 -0.7956 -1.3822 -0.5821
 3433SOL     OW20228  10.853   5.125  12.813  0.3643  0.1380 -0.0696
 3433SOL    HW120229  10.766   5.137  12.775  0.4574  0.9698 -0.0568
 3433SOL    HW220230  10.902   5.076  12.747 -0.1597 -0.4877  0.0001
 3434SOL     OW20231   5.253  12.548   5.176 -0.0640  0.3447 -0.3471
 3434SOL    HW120232   5.197  12.564   5.253  0.3460  1.2065 -0.2169
 3434SOL    HW220233   5.307  12.626   5.169  1.1047 -0.4484 -0.5090
 3435SOL     OW20234   9.717   5.555  12.014  0.4214  0.2315 -0.0398
 3435SOL    HW120235   9.700   5.541  11.921  1.8494  0.5563 -0.3771
 3435SOL    HW220236   9.733   5.468  12.050  0.4836  0.1620 -0.2363
 3436SOL     OW20237  11.300   8.068   9.784  0.1301 -0.7168  0.4195
 3436SOL    HW120238  11.348   8.138   9.829  0.5162 -1.2917  0.9051
 3436SOL    HW220239  11.363   7.997   9.776 -0.9419 -1.9193  2.0563
 3437SOL     OW20240   6.955   7.133   2.918 -0.0386 -0.1902  0.0995
 3437SOL    HW120241   7.027   7.077   2.888 -1.7454 -1.2988 -2.2206
 3437SOL    HW220242   6.892   7.133   2.846 -2.0950  1.2621  1.7545
 3438SOL     OW20243  10.014  12.848   8.331 -0.2067  0.1955  0.3794
 3438SOL    HW120244  10.096  12.810   8.297 -0.4532 -0.2029  0.2298
 3438SOL    HW220245  10.042  12.899   8.407  0.3037  0.7663 -0.1665
 3439SOL     OW20246  12.986   3.523  12.557 -0.2821 -0.1577  0.2934
 3439SOL    HW120247  12.927   3.556  12.488 -0.9883  0.8029  1.3180
 3439SOL    HW220248  12.948   3.439  12.582 -1.7205  0.8082  1.4885
 3440SOL     OW20249   0.843   3.908   4.569  0.2880 -0.3548 -0.0508
 3440SOL    HW120250   0.754   3.908   4.606  0.6226 -1.8210  0.8143
 3440SOL    HW220251   0.833   3.865   4.484 -0.4416  2.8254 -1.7473
 3441SOL     OW20252   2.326   3.983   4.825 -0.0592  0.0706 -0.1733
 3441SOL    HW120253   2.331   3.991   4.921 -0.2091  0.3658 -0.1890
 3441SOL    HW220254   2.406   3.937   4.801  0.7076  1.2907 -0.0403
 3442SOL     OW20255  11.942   5.088   3.039  0.3081  0.5155 -0.1052
 3442SOL    HW120256  11.963   5.182   3.044  2.0297  0.1681 -0.3142
 3442SOL    HW220257  11.852   5.086   3.006  0.5008  2.0941 -0.8443
 3443SOL     OW20258   1.908   5.652   2.178  0.1077  0.1590 -0.0852
 3443SOL    HW120259   1.903   5.585   2.246 -2.8277 -0.6116 -0.9276
 3443SOL    HW220260   1.911   5.603   2.096 -2.2956  0.9374 -0.7244
 3444SOL     OW20261   5.724   7.384   4.394 -0.2048  0.7713 -0.5584
 3444SOL    HW120262   5.763   7.304   4.360 -1.2541 -0.4162  0.9064
 3444SOL    HW220263   5.797   7.435   4.428  0.3604 -0.1006 -0.4579
 3445SOL     OW20264   6.354   2.835  10.429  0.1440  0.0808  0.5810
 3445SOL    HW120265   6.428   2.894  10.445  0.1317 -0.2801  2.1076
 3445SOL    HW220266   6.394   2.749  10.415  0.0879  0.1970 -0.4146
 3446SOL     OW20267   9.330   9.831  10.886  0.1222 -0.3730  0.4536
 3446SOL    HW120268   9.236   9.815  10.897  0.0512 -1.4080 -1.3938
 3446SOL    HW220269   9.364   9.750  10.847  1.1848  1.1299 -1.9174
 3447SOL     OW20270   2.816   6.109   5.498  0.2220  0.9451  0.0654
 3447SOL    HW120271   2.906   6.084   5.477 -0.6155 -2.2878 -0.1124
 3447SOL    HW220272   2.762   6.038   5.465 -2.1351  1.0474  3.1801
 3448SOL     OW20273   3.835   7.126  11.789  0.0466  0.9339  0.3316
 3448SOL    HW120274   3.802   7.084  11.710  0.7523  0.3599  0.3277
 3448SOL    HW220275   3.757   7.148  11.839 -0.3753 -1.9287  1.1099
 3449SOL     OW20276   7.716   2.763  10.680 -0.0932  0.1130 -0.0839
 3449SOL    HW120277   7.778   2.821  10.636  1.0037 -1.2204 -0.3678
 3449SOL    HW220278   7.772   2.703  10.731 -1.2577  0.6083  1.8919
 3450SOL     OW20279   0.274   3.304   2.379  0.2147 -0.0746  0.6450
 3450SOL    HW120280   0.246   3.258   2.459  0.7834  1.0532  1.5116
 3450SOL    HW220281   0.340   3.366   2.408  0.4298  0.3763 -0.7154
 3451SOL     OW20282   6.706   7.839   0.486  0.0133  0.0568  0.9471
 3451SOL    HW120283   6.699   7.743   0.478  1.3653  0.0850 -1.7425
 3451SOL    HW220284   6.618   7.871   0.472 -0.2422 -0.7639  0.5901
 3452SOL     OW20285   1.314   5.809   6.800  0.2446 -0.3183  0.2994
 3452SOL    HW120286   1.298   5.755   6.877  2.7952  1.2409  2.0806
 3452SOL    HW220287   1.290   5.898   6.826  2.2672  0.4443 -0.1921
 3453SOL     OW20288  11.617  10.360   3.928  0.0706  0.5035 -0.0616
 3453SOL    HW120289  11.528  10.333   3.949  0.6074  1.0479  3.4622
 3453SOL    HW220290  11.608  10.451   3.899 -0.6204 -0.0046 -1.5921
 3454SOL     OW20291   4.168   8.240   7.491 -0.7187 -0.9674  0.8210
 3454SOL    HW120292   4.231   8.270   7.556 -0.1729 -1.3027  0.4505
 3454SOL    HW220293   4.082   8.256   7.532 -0.3825 -1.5881  1.8010
 3455SOL     OW20294  10.131   6.650   4.253 -0.2295 -0.2646  0.1638
 3455SOL    HW120295  10.147   6.618   4.342 -1.5567  0.7497  0.8028
 3455SOL    HW220296  10.184   6.593   4.197  1.2054 -0.4469  1.6561
 3456SOL     OW20297  12.920   2.904   3.700  0.1452 -0.2679  0.7022
 3456SOL    HW120298  13.014   2.908   3.719  0.2681  0.2057  0.0110
 3456SOL    HW220299  12.889   2.828   3.749  1.6289 -2.8581 -2.0481
 3457SOL     OW20300  10.683  11.620   4.986  0.2484 -0.1328  0.3331
 3457SOL    HW120301  10.769  11.584   5.011  1.2224  1.6612 -0.2670
 3457SOL    HW220302  10.653  11.666   5.065 -0.8768 -1.9142  1.0133
 3458SOL     OW20303   6.006   2.752   3.963  0.0017 -0.2194  0.0368
 3458SOL    HW120304   5.993   2.818   4.031  1.9299 -0.9131  1.1499
 3458SOL    HW220305   6.082   2.783   3.914  0.7945 -1.4657  0.4334
 3459SOL     OW20306   4.192   4.169   7.650  0.0981 -0.4318  0.7778
 3459SOL    HW120307   4.243   4.180   7.730  0.6985 -2.0014  0.6502
 3459SOL    HW220308   4.101   4.176   7.678  0.2850 -1.4807  1.7080
 3460SOL     OW20309   1.046   9.944   4.823 -0.5976 -0.0271  0.1439
 3460SOL    HW120310   0.957   9.908   4.832 -1.0805  0.4766 -2.0760
 3460SOL    HW220311   1.032  10.034   4.792  0.6996  0.4819  0.9405
 3461SOL     OW20312   0.296   5.850   8.756  0.1992  0.2125 -0.0993
 3461SOL    HW120313   0.320   5.839   8.664  0.1799  1.2129 -0.2286
 3461SOL    HW220314   0.347   5.925   8.785 -0.2204  0.2430  0.5601
 3462SOL     OW20315  12.283   5.859   5.544 -0.5870  0.4864  0.0258
 3462SOL    HW120316  12.206   5.892   5.498 -0.9946  0.7695  0.8939
 3462SOL    HW220317  12.280   5.901   5.630 -1.2610 -1.9323  1.2737
 3463SOL     OW20318   2.278   9.861   5.687  0.3162 -0.0390  0.3980
 3463SOL    HW120319   2.277   9.955   5.671  2.6056  0.2949  1.7589
 3463SOL    HW220320   2.204   9.845   5.745 -2.4034  0.2084 -2.7276
 3464SOL     OW20321   4.417   2.629   0.510  0.5402  0.5762  0.0930
 3464SOL    HW120322   4.404   2.555   0.450  0.4529 -0.0413  0.8526
 3464SOL    HW220323   4.402   2.707   0.456  1.8432  0.0891 -1.0277
 3465SOL     OW20324   9.342   9.725   7.760 -0.1169 -0.5153  0.7628
 3465SOL    HW120325   9.298   9.641   7.744 -0.0417 -0.6936  1.4552
 3465SOL    HW220326   9.327   9.743   7.852 -0.5054  0.4605  0.5246
 3466SOL     OW20327   6.888   4.151   0.514 -0.5082 -0.3107  0.2880
 3466SOL    HW120328   6.915   4.196   0.434 -1.3549  1.4698  0.9219
 3466SOL    HW220329   6.967   4.110   0.547  0.2868  0.5688 -0.4641
 3467SOL     OW20330   4.820   7.910  12.723  0.3146 -0.0609 -0.2440
 3467SOL    HW120331   4.841   7.837  12.666  1.2208 -0.8921  1.1016
 3467SOL    HW220332   4.730   7.935  12.699  0.6869 -0.3417 -2.0227
 3468SOL     OW20333   5.218   5.104   8.613 -0.0321 -0.7088  0.2914
 3468SOL    HW120334   5.147   5.100   8.676 -0.3016  1.2998  0.1775
 3468SOL    HW220335   5.234   5.198   8.601  2.0002 -1.0907 -0.3923
 3469SOL     OW20336   6.360  12.314   6.342 -0.1077 -0.2069  0.7144
 3469SOL    HW120337   6.327  12.311   6.432 -0.1527  0.5581  0.7296
 3469SOL    HW220338   6.281  12.324   6.288 -0.0433 -0.1856  0.6250
 3470SOL     OW20339   5.775  12.915   9.648  0.1565  0.1898  0.0117
 3470SOL    HW120340   5.750  12.895   9.558 -0.3059  1.2221 -0.1039
 3470SOL    HW220341   5.870  12.925   9.645  0.2366 -0.5584 -0.1955
 3471SOL     OW20342  12.896  11.945   7.184  0.2890  0.1972 -0.2397
 3471SOL    HW120343  12.831  11.981   7.245 -0.4432  0.6017 -1.2347
 3471SOL    HW220344  12.913  11.857   7.218 -0.3741  0.2785  0.3533
 3472SOL     OW20345  13.154   2.610   4.801  0.2300  0.5471 -0.1493
 3472SOL    HW120346  13.138   2.611   4.706 -0.8345  1.7665  0.0192
 3472SOL    HW220347  13.183   2.699   4.821  0.6686  0.2314  0.6427
 3473SOL     OW20348   1.284   2.810  11.189 -0.2921 -0.0948 -0.1961
 3473SOL    HW120349   1.291   2.738  11.125  1.2528  0.5901 -0.8300
 3473SOL    HW220350   1.220   2.869  11.150 -0.1699 -0.2125 -0.5845
 3474SOL     OW20351   9.528   1.113   5.134  0.1587 -0.5580  0.0479
 3474SOL    HW120352   9.466   1.176   5.172 -0.5821 -1.0452 -0.3396
 3474SOL    HW220353   9.607   1.122   5.188 -0.4689 -0.3928  0.9662
 3475SOL     OW20354   3.381   7.865  13.259 -0.1084  0.2723  0.8977
 3475SOL    HW120355   3.422   7.851  13.174 -1.3710  0.4004  0.2405
 3475SOL    HW220356   3.448   7.907  13.312 -0.3120  3.3795 -1.0764
 3476SOL     OW20357   1.631   8.680   8.803  0.7649  0.5447 -0.3980
 3476SOL    HW120358   1.643   8.668   8.897 -2.3256  2.4741  0.3974
 3476SOL    HW220359   1.661   8.598   8.764  0.3301 -1.1010  2.4534
 3477SOL     OW20360   7.276   8.998  11.979  0.2809 -0.2191 -0.1960
 3477SOL    HW120361   7.353   9.040  11.941  0.4766 -1.3036 -1.0574
 3477SOL    HW220362   7.312   8.935  12.042  0.1257 -0.8627 -0.7358
 3478SOL     OW20363   3.444   6.189   0.157  0.2284 -0.2594  0.4735
 3478SOL    HW120364   3.384   6.175   0.083 -0.6687  0.6080  1.0229
 3478SOL    HW220365   3.531   6.186   0.117 -0.2070 -0.5930 -0.4922
 3479SOL     OW20366   0.435   9.569  10.921 -0.7094  0.0079 -0.4969
 3479SOL    HW120367   0.387   9.635  10.971  0.0473  1.7576 -1.9284
 3479SOL    HW220368   0.448   9.497  10.982  0.3953  2.0945  1.9330
 3480SOL     OW20369   5.457  12.536   8.399  0.0993  0.4534  0.5650
 3480SOL    HW120370   5.392  12.467   8.385  0.6399 -0.1894  1.1731
 3480SOL    HW220371   5.541  12.495   8.381  0.4386  0.9203  1.0339
 3481SOL     OW20372   1.591  10.971   7.951  0.4826 -0.4992  0.2675
 3481SOL    HW120373   1.556  10.967   7.861  0.3717  0.1625  0.2789
 3481SOL    HW220374   1.557  10.892   7.993 -0.7108 -0.0652  0.1622
 3482SOL     OW20375   1.703   0.680   8.671  0.8798  0.2379 -0.1352
 3482SOL    HW120376   1.767   0.727   8.618  1.2485 -0.6387 -0.4959
 3482SOL    HW220377   1.672   0.609   8.614  1.8333 -1.1824  1.0484
 3483SOL     OW20378   3.180   2.635   8.257 -0.4921 -0.2632 -0.2804
 3483SOL    HW120379   3.130   2.693   8.315 -1.5174  0.5451 -1.8968
 3483SOL    HW220380   3.268   2.673   8.256 -0.6267  0.0762  0.2514
 3484SOL     OW20381   0.448   8.650   2.312  0.3791 -0.2221  0.5421
 3484SOL    HW120382   0.392   8.691   2.246  2.6850  1.6284 -0.4129
 3484SOL    HW220383   0.396   8.578   2.346 -3.0796  2.0681  0.6313
 3485SOL     OW20384   8.235   9.689   7.785 -0.0542  0.3849 -0.4998
 3485SOL    HW120385   8.318   9.643   7.773  0.8348  0.5949  3.3338
 3485SOL    HW220386   8.168   9.628   7.756  1.2014 -2.5495  2.1823
 3486SOL     OW20387  11.740  11.605   9.406 -0.2751  0.2106  0.0195
 3486SOL    HW120388  11.804  11.674   9.389  0.5436 -0.5261  0.0779
 3486SOL    HW220389  11.739  11.553   9.326  0.2528 -0.6092  0.5282
 3487SOL     OW20390  11.817   0.604   8.451  0.4827  0.3617 -0.7360
 3487SOL    HW120391  11.788   0.667   8.517  0.4549  0.6275 -0.9972
 3487SOL    HW220392  11.773   0.523   8.474 -0.7356  0.8351 -1.3103
 3488SOL     OW20393   3.773  13.239   5.171  0.4091 -0.2499 -0.6471
 3488SOL    HW120394   3.845  13.292   5.204  0.3220 -1.4866  1.6906
 3488SOL    HW220395   3.712  13.303   5.133  0.8137  1.2462  1.0675
 3489SOL     OW20396   7.366   8.198   4.898 -0.0264  0.0412 -0.1348
 3489SOL    HW120397   7.426   8.272   4.908 -1.5844  1.6077 -1.7457
 3489SOL    HW220398   7.395   8.154   4.817  2.4098 -2.7216  2.0283
 3490SOL     OW20399   3.707  12.472   2.653 -0.1031  0.0420  1.1609
 3490SOL    HW120400   3.780  12.478   2.715  3.1109 -2.5250 -1.9990
 3490SOL    HW220401   3.729  12.533   2.583 -0.9506 -0.7955  0.1244
 3491SOL     OW20402   4.359  11.372   2.292 -0.0750  0.4119 -0.1008
 3491SOL    HW120403   4.365  11.301   2.356  1.5545  1.2392  0.7274
 3491SOL    HW220404   4.440  11.365   2.240 -1.2781 -0.1362 -1.9948
 3492SOL     OW20405   3.819  10.922  11.761 -0.2960 -0.2686 -0.3146
 3492SOL    HW120406   3.817  11.012  11.728  0.3003 -0.7601 -1.8279
 3492SOL    HW220407   3.729  10.904  11.788 -1.0285 -0.0138 -2.3908
 3493SOL     OW20408   2.828   8.369   4.942 -0.1979  0.1880  0.2058
 3493SOL    HW120409   2.813   8.420   5.022  0.4806 -0.4716  0.7709
 3493SOL    HW220410   2.848   8.281   4.974 -0.4816 -0.2183 -0.7226
 3494SOL     OW20411   7.282  11.517   1.512  0.0071  0.3852 -0.3572
 3494SOL    HW120412   7.348  11.546   1.449  1.1455 -1.4323 -0.0834
 3494SOL    HW220413   7.236  11.446   1.466 -1.3954  1.2428 -0.3279
 3495SOL     OW20414   2.089   4.396   9.647  1.0590  0.4504 -0.2222
 3495SOL    HW120415   2.095   4.378   9.741 -0.1821  0.2546 -0.1587
 3495SOL    HW220416   1.996   4.384   9.626  0.7851  3.2534 -0.9272
 3496SOL     OW20417   6.013   0.113  11.195  0.1037  0.1292 -0.4014
 3496SOL    HW120418   6.065   0.090  11.118  0.6983 -0.2912  0.1128
 3496SOL    HW220419   6.077   0.134  11.262 -0.4134  1.9376 -0.4140
 3497SOL     OW20420   5.222  13.117   2.460 -0.0892 -0.8560  0.0209
 3497SOL    HW120421   5.240  13.183   2.392 -1.1224 -0.6089 -0.0251
 3497SOL    HW220422   5.280  13.141   2.532  1.7779 -1.7139 -1.1085
 3498SOL     OW20423   6.646   8.004   4.840 -0.1495  0.1138  0.2345
 3498SOL    HW120424   6.601   7.954   4.772  0.1125  0.6367 -0.3350
 3498SOL    HW220425   6.578   8.025   4.903 -0.3687 -0.5022  0.2096
 3499SOL     OW20426  13.067   8.791   6.469 -0.4578  0.0076 -0.1506
 3499SOL    HW120427  13.011   8.724   6.507  0.6850 -0.1091  1.4434
 3499SOL    HW220428  13.132   8.743   6.418 -1.0215  0.0680 -0.9436
 3500SOL     OW20429   7.131   7.593   2.082 -0.3634 -0.1617 -0.7100
 3500SOL    HW120430   7.154   7.539   2.158  0.0309  0.5406 -0.3213
 3500SOL    HW220431   7.045   7.561   2.056 -0.5943 -0.2887  0.1511
 3501SOL     OW20432  11.747   1.038   0.708 -0.1256  0.0732  0.0729
 3501SOL    HW120433  11.803   1.114   0.724  2.1654 -1.3157 -0.7409
 3501SOL    HW220434  11.688   1.035   0.783  1.5418  1.1037  1.5199
 3502SOL     OW20435   2.226   7.387  13.281 -0.4886  0.1408  0.1722
 3502SOL    HW120436   2.200   7.327  13.211  2.2742 -0.3683 -0.5311
 3502SOL    HW220437   2.198   7.473  13.251 -0.0756 -0.1786 -1.1766
 3503SOL     OW20438  12.309   5.628   8.324 -0.2835 -0.2703 -0.3958
 3503SOL    HW120439  12.336   5.553   8.271  0.7940 -1.1906  1.3629
 3503SOL    HW220440  12.391   5.669   8.352 -0.8515  1.0197 -0.5377
 3504SOL     OW20441   2.199   0.102  11.182  0.0812  0.3006  0.0516
 3504SOL    HW120442   2.191   0.013  11.215  2.5264  0.5768  1.7019
 3504SOL    HW220443   2.187   0.094  11.088  0.7308 -1.8642  0.0938
 3505SOL     OW20444   1.175   7.690   5.096 -0.4952  0.0987  0.3054
 3505SOL    HW120445   1.251   7.639   5.070  0.0471  1.3367 -0.5907
 3505SOL    HW220446   1.171   7.680   5.192  0.1190 -0.8659  0.2425
 3506SOL     OW20447   6.238   2.280   3.037  0.1640  0.2800 -0.0204
 3506SOL    HW120448   6.307   2.329   2.992  0.6612 -0.0846  0.3259
 3506SOL    HW220449   6.184   2.244   2.967 -0.7313  2.0124 -0.2773
 3507SOL     OW20450  11.865   0.881  12.808  0.3119 -0.5441 -0.0918
 3507SOL    HW120451  11.846   0.862  12.716 -2.2510 -0.4135  0.3490
 3507SOL    HW220452  11.961   0.874  12.815  0.9980  2.5129 -3.4545
 3508SOL     OW20453  11.825   5.259   1.407  0.0621  0.1476  0.3627
 3508SOL    HW120454  11.784   5.318   1.470 -1.7956  0.3009 -0.8892
 3508SOL    HW220455  11.873   5.315   1.347 -1.1592  0.3831 -0.4374
 3509SOL     OW20456   4.782   6.486   7.364  0.0482  0.6751 -0.0784
 3509SOL    HW120457   4.710   6.489   7.427 -1.1091 -1.0491 -1.2268
 3509SOL    HW220458   4.787   6.574   7.328 -0.5190  1.1801  1.0520
 3510SOL     OW20459   7.920   8.788  12.514  0.1629  0.4688  0.2085
 3510SOL    HW120460   7.981   8.846  12.559  1.4880 -0.5258 -0.2217
 3510SOL    HW220461   7.975   8.719  12.477 -0.8945  0.8577 -2.3640
 3511SOL     OW20462   8.198   7.845   1.864  0.2894  0.0726 -0.1600
 3511SOL    HW120463   8.140   7.770   1.852  0.5073 -0.3780  1.4133
 3511SOL    HW220464   8.169   7.908   1.798 -1.6281 -0.3542  0.2105
 3512SOL     OW20465   1.258   6.429   6.225 -0.3229 -0.1948  0.1660
 3512SOL    HW120466   1.276   6.506   6.171  1.4884  0.3046  1.4028
 3512SOL    HW220467   1.168   6.443   6.256 -0.1621  1.2317  0.0515
 3513SOL     OW20468   6.780   2.191   1.624 -0.5010 -0.3897 -0.1390
 3513SOL    HW120469   6.758   2.116   1.568 -1.3752  0.1676 -0.5666
 3513SOL    HW220470   6.744   2.168   1.710 -0.1384 -0.7626 -0.0823
 3514SOL     OW20471   0.490   7.424   9.774  0.0374 -0.5717 -0.3375
 3514SOL    HW120472   0.555   7.424   9.843 -1.2252  1.0717  0.9308
 3514SOL    HW220473   0.520   7.490   9.711  0.2926 -0.8316 -0.4940
 3515SOL     OW20474  13.089   1.669  10.801  0.4276  0.2426  0.0439
 3515SOL    HW120475  13.173   1.693  10.840 -0.1136  0.1083  1.3455
 3515SOL    HW220476  13.097   1.693  10.708  1.3083  1.7641  0.4911
 3516SOL     OW20477   2.611   1.097  10.771 -0.1577 -0.2900 -0.3675
 3516SOL    HW120478   2.615   1.165  10.703  1.8506 -0.9632 -1.0032
 3516SOL    HW220479   2.664   1.132  10.843 -0.0316 -0.7023 -0.2566
 3517SOL     OW20480   8.865   1.456  10.088 -0.4203  0.0467 -0.7670
 3517SOL    HW120481   8.830   1.371  10.063  1.2687 -1.2355  0.9204
 3517SOL    HW220482   8.916   1.484  10.012 -0.1204 -0.9798 -0.9646
 3518SOL     OW20483   8.285   6.181   1.124  0.0792 -0.1089 -0.0341
 3518SOL    HW120484   8.326   6.260   1.158  1.6292 -0.9573  0.1465
 3518SOL    HW220485   8.358   6.129   1.090 -1.0248 -0.9707 -1.1909
 3519SOL     OW20486   6.311   8.432   3.277 -0.2274 -0.7966 -0.3754
 3519SOL    HW120487   6.353   8.392   3.352  0.8687  0.2858 -0.3805
 3519SOL    HW220488   6.321   8.527   3.290 -1.8488 -0.5139 -0.8543
 3520SOL     OW20489   9.722  11.556   9.580  0.0747 -0.6050 -0.0919
 3520SOL    HW120490   9.778  11.520   9.511  0.0282 -1.5252  0.3336
 3520SOL    HW220491   9.693  11.479   9.630 -2.6900 -0.3573 -1.1244
 3521SOL     OW20492  10.803   4.919  11.953 -0.3719  0.5512 -0.1891
 3521SOL    HW120493  10.745   4.995  11.960 -1.4771 -0.1874 -0.9337
 3521SOL    HW220494  10.868   4.931  12.022 -1.6195  1.2430  0.8993
 3522SOL     OW20495   2.634  12.203   2.642 -0.1811  0.3036  0.2335
 3522SOL    HW120496   2.654  12.162   2.726 -0.1487  1.9494  1.0678
 3522SOL    HW220497   2.653  12.296   2.655  1.6178  0.3752 -2.1435
 3523SOL     OW20498   3.351   6.014  12.918  0.4057 -0.0156 -0.4079
 3523SOL    HW120499   3.334   6.046  12.829  2.8338  1.0843 -0.5501
 3523SOL    HW220500   3.446   6.004  12.922  0.2763 -0.8560  1.8249
 3524SOL     OW20501   1.314  10.161  10.623 -0.1341  0.1478  0.3953
 3524SOL    HW120502   1.252  10.205  10.681 -0.9542 -0.5931  0.1124
 3524SOL    HW220503   1.363  10.102  10.680  0.9145  1.3360  0.7629
 3525SOL     OW20504   8.754  13.226   7.770 -0.2409 -0.5864 -0.2127
 3525SOL    HW120505   8.687  13.179   7.819 -1.5806  0.3091 -1.1157
 3525SOL    HW220506   8.762  13.178   7.688  2.2383 -2.2799  0.9162
 3526SOL     OW20507   6.375  12.978   9.022  0.0914 -0.0928 -0.3060
 3526SOL    HW120508   6.470  12.980   9.011  0.3946  0.3647  1.8587
 3526SOL    HW220509   6.340  12.981   8.933  2.0913  0.2644 -1.1346
 3527SOL     OW20510   6.301   2.321   4.397 -0.1269 -0.0783 -0.0632
 3527SOL    HW120511   6.378   2.376   4.385  0.0071 -0.3445 -0.4426
 3527SOL    HW220512   6.311   2.251   4.332  0.8877 -1.9148  1.9494
 3528SOL     OW20513   3.782  10.569   2.292  0.3956  0.4437  0.2061
 3528SOL    HW120514   3.804  10.572   2.199 -1.2228  1.2326 -0.1891
 3528SOL    HW220515   3.763  10.477   2.308  0.3133  0.3578 -0.3401
 3529SOL     OW20516   1.809   2.571   0.080  0.0772  0.8310  0.0281
 3529SOL    HW120517   1.757   2.491   0.092  0.7729  0.6302  2.1538
 3529SOL    HW220518   1.863   2.553   0.003 -0.7538 -0.2083 -0.3392
 3530SOL     OW20519   3.430  10.246  11.446 -0.4465  0.4367  0.6104
 3530SOL    HW120520   3.358  10.302  11.417 -1.3631 -1.2827 -0.5854
 3530SOL    HW220521   3.497  10.308  11.476 -0.8750  2.2588 -1.8544
 3531SOL     OW20522   5.084   4.049   0.773 -0.3093  0.0501 -0.3671
 3531SOL    HW120523   5.051   3.960   0.759 -0.0096  0.2488 -2.5899
 3531SOL    HW220524   5.006   4.099   0.797 -0.6744 -0.5629 -0.2394
 3532SOL     OW20525  12.989   8.265   2.871  0.5036  0.1275 -0.4246
 3532SOL    HW120526  12.982   8.331   2.802  2.4626 -0.1768 -0.9807
 3532SOL    HW220527  12.953   8.186   2.831 -0.1827  0.4170 -0.3915
 3533SOL     OW20528   2.366   1.359   7.991  0.2229 -0.1645 -0.4283
 3533SOL    HW120529   2.373   1.373   8.085  1.0586 -1.2587 -0.3075
 3533SOL    HW220530   2.414   1.432   7.952 -0.7792  0.7270 -0.0576
 3534SOL     OW20531  11.501   3.676   1.329  0.2816 -0.4900 -0.0361
 3534SOL    HW120532  11.477   3.665   1.237 -0.8038  0.4865  0.1021
 3534SOL    HW220533  11.595   3.663   1.331  0.3663 -0.2073 -1.3470
 3535SOL     OW20534   9.733   6.154   0.811 -0.2031 -0.2850 -0.2725
 3535SOL    HW120535   9.819   6.190   0.787 -0.2445 -0.0216 -0.0271
 3535SOL    HW220536   9.728   6.166   0.906 -0.7814  0.2850 -0.3671
 3536SOL     OW20537   8.700  10.941  10.974 -0.2756 -0.5936 -0.3491
 3536SOL    HW120538   8.780  10.993  10.974 -1.5063  1.4823  1.5650
 3536SOL    HW220539   8.671  10.940  11.066 -2.6150 -0.9753 -1.0170
 3537SOL     OW20540   9.673   6.028  10.011 -0.3439  0.1498  0.4322
 3537SOL    HW120541   9.663   5.957   9.947  2.3750  0.6085 -0.6233
 3537SOL    HW220542   9.623   6.101   9.974  1.3751  0.4913 -1.4395
 3538SOL     OW20543   6.243   7.896   0.919  0.6811 -0.7300  0.0610
 3538SOL    HW120544   6.318   7.847   0.951  0.2348 -0.4597  1.6165
 3538SOL    HW220545   6.234   7.870   0.828  0.5529 -3.4351  0.7528
 3539SOL     OW20546  12.559   2.614  10.998  0.7927  0.5926 -0.0013
 3539SOL    HW120547  12.539   2.685  10.938 -2.3099 -0.1109  0.0495
 3539SOL    HW220548  12.503   2.630  11.074 -0.1612 -1.9581 -0.0634
 3540SOL     OW20549   1.708   2.184   8.107 -0.0453  0.2010  0.5483
 3540SOL    HW120550   1.720   2.089   8.101  0.5530  0.3333 -0.6495
 3540SOL    HW220551   1.795   2.219   8.124 -0.1552  0.5656  0.3889
 3541SOL     OW20552   4.020   4.623  10.116 -0.1282 -0.6539 -0.6331
 3541SOL    HW120553   4.070   4.541  10.124  2.1101  0.4709 -2.1123
 3541SOL    HW220554   4.016   4.657  10.205  1.0872 -1.1954 -0.3463
 3542SOL     OW20555   0.787  12.600   9.740  0.1533  0.1843  0.2300
 3542SOL    HW120556   0.812  12.666   9.804  0.5831 -1.0767  1.4003
 3542SOL    HW220557   0.848  12.614   9.667 -0.1223  1.4167  0.2248
 3543SOL     OW20558   0.948   0.207  10.366 -0.6494 -0.4230  0.5017
 3543SOL    HW120559   0.915   0.169  10.284  2.5625 -0.9080 -0.7203
 3543SOL    HW220560   0.951   0.134  10.427  0.7957 -1.0412 -0.2778
 3544SOL     OW20561   8.149   9.901   9.439  0.4294  0.8168  0.5433
 3544SOL    HW120562   8.055   9.897   9.423  0.7225  1.3447 -1.6266
 3544SOL    HW220563   8.168   9.824   9.493 -1.3027  1.0359  1.5489
 3545SOL     OW20564  12.327   1.644   5.328 -0.4872  0.1065  0.4457
 3545SOL    HW120565  12.411   1.599   5.341 -0.4201  0.3544  0.9212
 3545SOL    HW220566  12.297   1.615   5.242 -0.7398 -1.3108  0.9824
 3546SOL     OW20567  11.434   8.676  10.403 -0.0569  0.5588 -0.1292
 3546SOL    HW120568  11.520   8.712  10.384  0.0362  1.0397  1.1168
 3546SOL    HW220569  11.378   8.753  10.417 -0.0575  0.2682  1.7038
 3547SOL     OW20570  10.995   5.509   1.009  0.2674  0.2071  0.0242
 3547SOL    HW120571  11.005   5.439   1.073  2.4018  0.1518 -0.2933
 3547SOL    HW220572  10.985   5.464   0.925  2.3044  0.2350 -0.2672
 3548SOL     OW20573  11.126   1.727  10.871 -0.4225  0.1000  0.5469
 3548SOL    HW120574  11.094   1.732  10.962  0.0662 -1.4658  0.8277
 3548SOL    HW220575  11.047   1.709  10.820 -0.5314 -0.1933  0.8110
 3549SOL     OW20576  10.980   7.003   1.887  0.3916  0.2860 -0.1338
 3549SOL    HW120577  10.954   7.059   1.815  2.8509 -1.1418 -2.3109
 3549SOL    HW220578  11.074   6.987   1.873  0.3415 -2.3594  1.7177
 3550SOL     OW20579   2.876   0.866   2.032 -0.1613  0.3269 -0.1619
 3550SOL    HW120580   2.944   0.872   1.966  0.4701 -0.1850  0.4195
 3550SOL    HW220581   2.815   0.936   2.011 -0.3215 -0.2340 -1.6620
 3551SOL     OW20582  12.244  12.811  12.126  0.2258 -0.5378 -0.3786
 3551SOL    HW120583  12.203  12.753  12.062 -1.2112  0.0189  0.0029
 3551SOL    HW220584  12.336  12.816  12.099  0.0576 -1.8100 -1.2698
 3552SOL     OW20585   0.234   0.220   7.207  0.0818  0.2203  0.3874
 3552SOL    HW120586   0.212   0.268   7.287  1.3328  1.1874  0.1869
 3552SOL    HW220587   0.204   0.276   7.136 -1.5358 -0.8899  0.1302
 3553SOL     OW20588   4.960  12.146  11.995  0.7457 -0.5639 -0.2244
 3553SOL    HW120589   4.871  12.130  11.963  0.8560 -1.4318 -0.1244
 3553SOL    HW220590   5.014  12.082  11.947  1.3541  0.1206 -0.4685
 3554SOL     OW20591  10.101  11.985   0.500  0.1337  0.3253 -0.4032
 3554SOL    HW120592  10.007  11.975   0.484  0.2417 -0.4504 -0.6133
 3554SOL    HW220593  10.106  12.026   0.587 -0.3931 -1.2436  0.4151
 3555SOL     OW20594  12.991   7.085   0.076 -0.2608  0.4464  0.3729
 3555SOL    HW120595  13.023   7.008   0.123 -1.0260 -0.7649 -1.0119
 3555SOL    HW220596  13.045   7.157   0.109  1.6373 -0.9461  0.4998
 3556SOL     OW20597   5.210  12.088   4.133 -0.0865  0.0577  0.1458
 3556SOL    HW120598   5.286  12.037   4.104  0.6693  0.4017  1.4364
 3556SOL    HW220599   5.230  12.112   4.223 -0.5946  2.2776 -0.2557
 3557SOL     OW20600   0.956   9.814   9.758  0.3482  0.1157  0.4512
 3557SOL    HW120601   0.975   9.721   9.746  0.7516 -0.0565  2.1639
 3557SOL    HW220602   0.974   9.831   9.851  0.8639  2.0387  0.0557
 3558SOL     OW20603   9.691   7.815   2.475 -0.6184 -0.0223 -0.5589
 3558SOL    HW120604   9.776   7.859   2.472 -1.2922  1.3165 -1.1489
 3558SOL    HW220605   9.666   7.805   2.383 -1.3278  0.0989 -0.3890
 3559SOL     OW20606   9.049   0.060   2.305  0.1048 -0.1941 -0.1063
 3559SOL    HW120607   8.986   0.125   2.274  1.0504  0.8957  0.1970
 3559SOL    HW220608   9.059   0.079   2.398 -1.0646 -2.0445  0.4586
 3560SOL     OW20609   3.050   4.795   0.969  0.0376  0.0082  0.5972
 3560SOL    HW120610   3.012   4.863   1.025 -2.0180 -1.1627  0.7459
 3560SOL    HW220611   3.143   4.796   0.989 -0.1008  2.0212  1.3841
 3561SOL     OW20612   2.825   5.826   7.658  0.1128 -0.1577  0.0545
 3561SOL    HW120613   2.825   5.765   7.584 -0.7401 -0.6995  0.4780
 3561SOL    HW220614   2.842   5.770   7.735  3.6793  0.7298  0.0758
 3562SOL     OW20615   3.881  12.855   8.707 -0.2851 -0.0308 -0.0482
 3562SOL    HW120616   3.834  12.903   8.775  0.7601  1.1290 -0.1039
 3562SOL    HW220617   3.845  12.767   8.710  0.8153 -0.4865  3.1191
 3563SOL     OW20618   5.154   7.298   5.253 -0.4835 -0.0992  0.1207
 3563SOL    HW120619   5.141   7.299   5.348 -0.9142  0.0270  0.0625
 3563SOL    HW220620   5.143   7.206   5.229 -3.9305  0.2705 -0.2604
 3564SOL     OW20621   3.789   4.962   8.681 -0.9162  0.3101  0.0559
 3564SOL    HW120622   3.875   4.942   8.643 -0.7441  1.1042 -0.0010
 3564SOL    HW220623   3.784   5.058   8.679 -1.6659  0.2844  0.3688
 3565SOL     OW20624  11.911   6.333   9.318  0.1029  0.1238  0.0072
 3565SOL    HW120625  11.902   6.253   9.267  0.2414 -0.7833  1.3549
 3565SOL    HW220626  12.004   6.354   9.312 -0.3078  1.6381 -2.3947
 3566SOL     OW20627  11.126   6.352   1.227  0.2188  0.0638 -0.1816
 3566SOL    HW120628  11.111   6.403   1.147  0.7942 -0.5531 -0.6984
 3566SOL    HW220629  11.100   6.263   1.204 -2.3075  0.3372  1.1976
 3567SOL     OW20630  10.707   8.202  11.728  0.1520 -0.2908 -0.2258
 3567SOL    HW120631  10.682   8.288  11.695 -1.5495 -0.8442 -0.4787
 3567SOL    HW220632  10.700   8.210  11.823  0.7665  0.0676 -0.2104
 3568SOL     OW20633   2.035  10.510   9.197 -0.2405 -0.0948  0.3034
 3568SOL    HW120634   2.036  10.452   9.273 -1.0952  0.2898  0.6255
 3568SOL    HW220635   1.942  10.519   9.175 -0.3106  2.2580  1.1674
 3569SOL     OW20636  10.227  10.378   7.100  0.4092  0.1976  0.0745
 3569SOL    HW120637  10.198  10.333   7.020  2.3650 -0.3477 -0.3745
 3569SOL    HW220638  10.315  10.345   7.115  0.0841  0.2637  2.5041
 3570SOL     OW20639  12.479   9.445  12.930 -0.5209  0.0539 -0.3326
 3570SOL    HW120640  12.561   9.436  12.978 -1.3526 -2.2516  0.7793
 3570SOL    HW220641  12.413   9.457  12.997 -1.3137  0.1609 -1.1134
 3571SOL     OW20642  12.570   5.120   9.114 -0.2947 -0.4391 -0.3044
 3571SOL    HW120643  12.616   5.068   9.179 -1.3457  0.1768  0.9823
 3571SOL    HW220644  12.515   5.180   9.165 -0.4369  0.7273 -1.7503
 3572SOL     OW20645   5.304   8.638   4.962  0.3572 -0.1531  0.2748
 3572SOL    HW120646   5.232   8.679   5.011 -0.0447 -0.1203 -0.3342
 3572SOL    HW220647   5.377   8.638   5.024 -0.4617 -1.1701  1.2951
 3573SOL     OW20648   3.921   7.087  10.204 -0.1686 -0.4386 -0.5433
 3573SOL    HW120649   3.828   7.094  10.227  0.3079  3.0393  0.9413
 3573SOL    HW220650   3.936   7.158  10.142  1.2938 -1.8052 -1.8566
 3574SOL     OW20651   1.547   2.668   6.101 -0.0928  0.0485 -0.1969
 3574SOL    HW120652   1.484   2.604   6.135 -0.0392 -0.2373 -0.6218
 3574SOL    HW220653   1.501   2.712   6.030  0.2352 -0.2792 -0.6223
 3575SOL     OW20654   8.611  10.576   9.219 -0.0256 -0.0223 -0.2849
 3575SOL    HW120655   8.523  10.598   9.249 -0.4752 -2.1215  0.1146
 3575SOL    HW220656   8.667  10.597   9.293 -0.3184  0.4246 -0.1853
 3576SOL     OW20657   3.418   9.901   6.353  0.2355  0.1066  0.1079
 3576SOL    HW120658   3.465   9.968   6.304  0.7997 -0.5931 -0.3321
 3576SOL    HW220659   3.397   9.834   6.288 -0.6782  0.0359  0.4594
 3577SOL     OW20660   1.639   0.382   2.717 -0.1421  0.1614  0.1467
 3577SOL    HW120661   1.702   0.312   2.733  1.8373  1.5965 -0.9932
 3577SOL    HW220662   1.654   0.407   2.626 -2.3609  0.6144 -0.1641
 3578SOL     OW20663   0.800   3.588   6.499 -0.5393  0.5055 -0.0814
 3578SOL    HW120664   0.739   3.519   6.472 -1.5397  1.0547  0.6950
 3578SOL    HW220665   0.870   3.585   6.433  0.4785 -2.5032  0.9457
 3579SOL     OW20666   0.045  12.876   8.321 -0.1609 -0.1001  0.3403
 3579SOL    HW120667   0.103  12.804   8.347  0.8204 -0.6992 -3.0527
 3579SOL    HW220668  -0.043  12.844   8.338  0.2634 -2.1262 -1.0551
 3580SOL     OW20669   2.789  13.101   6.778 -0.0677 -0.5543 -0.3145
 3580SOL    HW120670   2.843  13.061   6.846 -0.9813 -0.9860  0.1837
 3580SOL    HW220671   2.699  13.082   6.805 -0.4941  0.6494 -0.8078
 3581SOL     OW20672   8.414   7.438   5.104  0.8345  0.1737 -0.1066
 3581SOL    HW120673   8.345   7.373   5.116  0.9275 -0.0687 -0.8196
 3581SOL    HW220674   8.474   7.398   5.041  1.7267  0.3087  0.6376
 3582SOL     OW20675  10.534   2.778   8.395  0.2172  0.6699 -0.6422
 3582SOL    HW120676  10.482   2.814   8.323 -0.3574  0.5264 -0.3030
 3582SOL    HW220677  10.609   2.736   8.352  0.0448  0.8622 -1.1357
 3583SOL     OW20678  11.149   4.236   9.704 -0.0938 -0.2253 -0.0663
 3583SOL    HW120679  11.187   4.174   9.642 -1.0256 -1.1348  0.2447
 3583SOL    HW220680  11.121   4.310   9.650  3.2741  1.1227 -0.1698
 3584SOL     OW20681   4.624  12.721   1.415  0.2014  0.0178 -0.1099
 3584SOL    HW120682   4.680  12.793   1.386  0.3570 -0.2402 -0.4645
 3584SOL    HW220683   4.570  12.700   1.339  2.5734 -2.5577 -1.2434
 3585SOL     OW20684   7.096   5.585   4.514 -0.4905  0.0494  0.3741
 3585SOL    HW120685   7.094   5.664   4.567 -0.0522  0.2744  0.0634
 3585SOL    HW220686   7.006   5.575   4.482 -0.2028  1.3559 -0.9255
 3586SOL     OW20687   0.839   8.582   3.489 -0.8642 -0.1234 -0.4687
 3586SOL    HW120688   0.772   8.520   3.518 -2.2137  1.4070 -0.1993
 3586SOL    HW220689   0.832   8.583   3.394 -0.2904 -0.9504 -0.5307
 3587SOL     OW20690  10.441  13.171  11.620  0.2756  0.2053  0.0399
 3587SOL    HW120691  10.495  13.098  11.649  1.3564  0.9141 -0.1285
 3587SOL    HW220692  10.437  13.229  11.696 -2.5580 -1.0808  0.9914
 3588SOL     OW20693   9.705   8.912   3.963  0.4976 -0.5230 -0.0002
 3588SOL    HW120694   9.693   8.987   4.021 -3.6957 -0.3384 -0.7566
 3588SOL    HW220695   9.651   8.933   3.886  1.7835 -2.9541 -1.6900
 3589SOL     OW20696   8.136  13.133   0.745 -0.6529 -0.1670 -0.2654
 3589SOL    HW120697   8.051  13.155   0.707 -0.4484  1.4468  0.1451
 3589SOL    HW220698   8.189  13.212   0.733 -0.0159 -0.2438  1.7069
 3590SOL     OW20699   9.989  10.025  12.294  0.0087 -0.0133  0.1141
 3590SOL    HW120700  10.002   9.932  12.279  0.5874 -0.0410  0.7252
 3590SOL    HW220701  10.066  10.052  12.344 -0.8110  0.4956  1.1600
 3591SOL     OW20702   4.236  11.287   0.038  0.1479 -0.1848  0.5253
 3591SOL    HW120703   4.141  11.290   0.029  0.1160  0.2614  1.0060
 3591SOL    HW220704   4.267  11.366  -0.005  0.1860  0.4840  1.7455
 3592SOL     OW20705   1.041   8.389   3.121 -0.5422 -0.5380  0.6486
 3592SOL    HW120706   1.134   8.400   3.141 -0.3742  0.4424 -0.5140
 3592SOL    HW220707   1.039   8.333   3.043 -0.6308  2.3357 -1.6070
 3593SOL     OW20708  12.722  10.456   5.654 -0.1121  0.2047  0.0947
 3593SOL    HW120709  12.630  10.454   5.681 -0.3137  1.1979 -0.4868
 3593SOL    HW220710  12.753  10.366   5.668 -1.2892 -0.2523 -0.1267
 3594SOL     OW20711   4.416  12.279   9.690 -0.2119 -0.0050  0.1679
 3594SOL    HW120712   4.426  12.366   9.727 -1.2362 -0.1729  0.8877
 3594SOL    HW220713   4.505  12.246   9.679  0.3711  2.0951 -2.5557
 3595SOL     OW20714   5.924  11.283   9.432  0.3233  0.0415  0.1127
 3595SOL    HW120715   5.961  11.261   9.518 -0.4768 -0.1307  0.4143
 3595SOL    HW220716   5.920  11.378   9.431 -0.0684  0.0289  0.4364
 3596SOL     OW20717   2.992   9.485   1.794 -0.3826 -0.0458  0.7168
 3596SOL    HW120718   2.940   9.412   1.761 -2.3387  1.0831  1.1034
 3596SOL    HW220719   2.944   9.515   1.872  1.0247  0.8969  1.2761
 3597SOL     OW20720   2.200   4.520   7.084 -0.1432 -0.4278 -0.0315
 3597SOL    HW120721   2.241   4.604   7.105 -1.1059 -0.2571  1.2795
 3597SOL    HW220722   2.222   4.463   7.159  1.0867 -1.5847 -1.2160
 3598SOL     OW20723   3.978   1.284   0.677  0.4820  0.9007 -0.6418
 3598SOL    HW120724   3.977   1.235   0.595 -1.3605 -1.1362  0.4835
 3598SOL    HW220725   4.003   1.219   0.743 -2.4851  1.2124  0.9785
 3599SOL     OW20726   2.717  12.108   6.581  0.0796  0.2351  0.1927
 3599SOL    HW120727   2.808  12.107   6.611  1.2724  0.3508 -3.0331
 3599SOL    HW220728   2.701  12.199   6.557  0.0425 -0.2135 -1.6258
 3600SOL     OW20729   9.547   0.892   3.725 -0.0217 -0.2466  0.0741
 3600SOL    HW120730   9.564   0.819   3.785 -1.1061  0.2957  1.1006
 3600SOL    HW220731   9.624   0.947   3.731  0.9224 -1.4198 -0.9091
 3601SOL     OW20732   6.356   8.219  12.976  0.3443 -0.1383 -0.3443
 3601SOL    HW120733   6.376   8.208  12.883  1.1260 -1.0894 -0.0818
 3601SOL    HW220734   6.401   8.299  13.001 -0.7284  0.6962 -1.0068
 3602SOL     OW20735   1.719   8.920  12.231  0.2955  0.8436  0.5091
 3602SOL    HW120736   1.785   8.876  12.178 -0.0435 -1.4824  1.8985
 3602SOL    HW220737   1.656   8.954  12.168  0.4848 -0.8494 -0.6336
 3603SOL     OW20738   0.946   5.067   8.354 -0.0343  0.3212 -0.2464
 3603SOL    HW120739   1.003   5.109   8.289  0.4157 -0.9446 -0.6906
 3603SOL    HW220740   0.969   5.110   8.436 -0.0384  1.3815 -0.7711
 3604SOL     OW20741   2.458  10.393   2.850 -0.8194 -0.2712 -0.1082
 3604SOL    HW120742   2.404  10.400   2.771 -0.1917  3.7806 -0.4302
 3604SOL    HW220743   2.532  10.338   2.824 -0.6264  0.9503 -2.4366
 3605SOL     OW20744   8.519  12.534   6.093 -0.5086 -0.4884 -0.0473
 3605SOL    HW120745   8.491  12.442   6.092 -0.5024 -0.5818  2.2718
 3605SOL    HW220746   8.582  12.539   6.165  0.1592  1.1768 -0.6977
 3606SOL     OW20747  12.216  12.124   7.190  0.5537 -0.5488  0.2068
 3606SOL    HW120748  12.168  12.192   7.236 -3.1210 -2.6959 -0.0477
 3606SOL    HW220749  12.202  12.142   7.097  1.2212 -0.5965  0.0914
 3607SOL     OW20750   6.090   5.595   2.854  0.3304  0.0424  0.7277
 3607SOL    HW120751   6.054   5.606   2.942 -1.1685 -1.7799  0.3834
 3607SOL    HW220752   6.174   5.550   2.868  0.7487  0.9675  1.2841
 3608SOL     OW20753   1.517  13.219   0.533 -0.2481  0.0255 -0.4767
 3608SOL    HW120754   1.542  13.312   0.527  1.6079 -0.4708 -1.1276
 3608SOL    HW220755   1.424  13.221   0.555  0.0428  2.0480  0.8951
 3609SOL     OW20756   7.358   4.048   2.928 -0.7712  0.2053  0.6674
 3609SOL    HW120757   7.361   4.064   3.022  1.7194  2.4479  0.3132
 3609SOL    HW220758   7.273   4.084   2.900  0.1322  3.3109  1.5527
 3610SOL     OW20759   5.268   8.957   4.892 -0.1276  0.0070 -0.3141
 3610SOL    HW120760   5.205   9.022   4.924 -0.3883 -0.3179 -0.1645
 3610SOL    HW220761   5.285   8.900   4.967  3.1900  2.2087  0.8410
 3611SOL     OW20762   1.992   7.374   9.817  0.0899  0.4169  0.1906
 3611SOL    HW120763   1.970   7.317   9.890  0.3739 -1.2645 -0.9601
 3611SOL    HW220764   2.051   7.439   9.854  0.6988 -0.7438  1.3601
 3612SOL     OW20765  12.679   8.587   6.880 -0.1700 -0.2193 -0.2866
 3612SOL    HW120766  12.738   8.528   6.927 -0.4260  0.3806  0.8244
 3612SOL    HW220767  12.737   8.636   6.822  0.3490 -0.0794  0.3342
 3613SOL     OW20768  10.670   3.401   3.774  0.5186  0.5838 -0.5362
 3613SOL    HW120769  10.675   3.423   3.681 -0.5544  0.9473 -0.5167
 3613SOL    HW220770  10.669   3.305   3.776  1.8486  0.5428 -0.8102
 3614SOL     OW20771   4.738   6.961  11.207  0.4246  0.3384 -0.1025
 3614SOL    HW120772   4.736   7.021  11.132 -1.6904  1.0515  0.4541
 3614SOL    HW220773   4.783   7.009  11.275 -1.5781  1.5335  0.4566
 3615SOL     OW20774  10.711   9.329   0.223 -0.0249 -0.5703 -0.0527
 3615SOL    HW120775  10.686   9.294   0.308  0.3010  0.3485  0.4352
 3615SOL    HW220776  10.676   9.266   0.160 -0.7778 -0.9570  0.7310
 3616SOL     OW20777   1.118  13.014  12.021  0.1921  0.2879  0.0093
 3616SOL    HW120778   1.146  13.037  12.110 -0.2236  1.9081 -0.2338
 3616SOL    HW220779   1.115  13.098  11.975 -2.0754 -0.1707 -0.8165
 3617SOL     OW20780   8.457  13.285   1.008  0.4942 -0.5741 -0.1634
 3617SOL    HW120781   8.369  13.248   1.022  0.4630 -0.2251  0.6104
 3617SOL    HW220782   8.486  13.245   0.926 -0.2569 -0.9448 -0.2653
 3618SOL     OW20783   9.873   9.829  11.859 -0.3638  0.1445 -0.1058
 3618SOL    HW120784   9.850   9.853  11.769 -3.1792  2.4262  1.0365
 3618SOL    HW220785   9.834   9.742  11.870 -0.8971  0.2733 -0.8240
 3619SOL     OW20786   3.176   8.599   9.470 -0.3735 -0.3075 -0.3004
 3619SOL    HW120787   3.170   8.586   9.376  1.2589 -0.1243 -0.4494
 3619SOL    HW220788   3.253   8.548   9.497  0.4584  1.3320  0.5904
 3620SOL     OW20789  13.149   3.108   6.693  0.1901  0.7581  0.0246
 3620SOL    HW120790  13.085   3.179   6.689  0.5496  1.0999  0.2885
 3620SOL    HW220791  13.188   3.105   6.606  0.3498  1.0456  0.0881
 3621SOL     OW20792   0.045   7.016   8.662  0.0222 -0.6513  0.1242
 3621SOL    HW120793   0.068   7.022   8.754 -1.4106 -1.7290  0.5957
 3621SOL    HW220794  -0.051   7.011   8.662 -0.0030 -0.7152 -1.4240
 3622SOL     OW20795   2.703   2.237   7.563  0.3698 -0.7311  0.1633
 3622SOL    HW120796   2.798   2.240   7.575  0.4920  0.4065 -0.8847
 3622SOL    HW220797   2.688   2.286   7.482 -0.9672 -2.3006 -0.6039
 3623SOL     OW20798   0.520   5.687   2.000  0.0168 -0.1848  0.2068
 3623SOL    HW120799   0.529   5.666   1.907  0.4444  2.8546 -0.5668
 3623SOL    HW220800   0.472   5.770   2.001  0.0910 -0.0998  2.6947
 3624SOL     OW20801  12.595  12.120   6.833  0.7363 -0.7909  0.1102
 3624SOL    HW120802  12.685  12.135   6.861  0.3799 -0.1713  0.9615
 3624SOL    HW220803  12.541  12.151   6.906 -0.2651  1.9859 -1.6136
 3625SOL     OW20804   6.890   0.684   9.481  0.5265 -0.4226 -0.0049
 3625SOL    HW120805   6.908   0.760   9.536 -1.1322  0.1497 -0.1827
 3625SOL    HW220806   6.905   0.716   9.391  0.5583 -0.5294 -0.0378
 3626SOL     OW20807   3.964   7.830   0.090  0.4110  0.5599  0.3656
 3626SOL    HW120808   3.937   7.774   0.163 -1.6709 -0.4713 -1.0824
 3626SOL    HW220809   3.991   7.912   0.131  0.7591 -0.5075  2.3657
 3627SOL     OW20810   0.167   1.318   4.546  0.4568 -0.0530  0.0352
 3627SOL    HW120811   0.078   1.347   4.528  0.2929 -0.6954 -0.2100
 3627SOL    HW220812   0.167   1.295   4.639  0.6183  0.8178  0.2604
 3628SOL     OW20813   3.061   2.855  11.645  0.3335 -0.1307  0.4674
 3628SOL    HW120814   3.015   2.902  11.714  1.3360 -0.1648  1.1822
 3628SOL    HW220815   3.100   2.924  11.591  0.5667 -0.1200  0.6495
 3629SOL     OW20816   4.947   9.757  11.001 -0.5780  0.0895 -0.4330
 3629SOL    HW120817   4.924   9.677  10.954 -0.4203  0.2002 -0.7011
 3629SOL    HW220818   4.956   9.730  11.092 -1.3401 -0.0421 -0.3858
 3630SOL     OW20819  10.945   8.478   7.004  0.4300  0.2620 -0.2855
 3630SOL    HW120820  10.876   8.542   6.988 -0.6403 -1.1084 -1.4537
 3630SOL    HW220821  10.951   8.471   7.099 -1.5106 -0.0253 -0.1458
 3631SOL     OW20822  11.074   1.824   6.566  0.0076  0.6410  0.1063
 3631SOL    HW120823  11.016   1.755   6.535  0.1967 -1.7385  4.3098
 3631SOL    HW220824  11.022   1.873   6.630  1.2580  1.4001  0.5896
 3632SOL     OW20825  12.983   7.405   9.615 -0.2289  0.3026  0.3331
 3632SOL    HW120826  13.036   7.477   9.651 -2.8688  1.8086  1.5194
 3632SOL    HW220827  12.983   7.420   9.520  0.4224  0.9875  0.4302
 3633SOL     OW20828  13.261   6.235   4.424 -0.4239  0.0045  0.0031
 3633SOL    HW120829  13.236   6.144   4.436  0.3674 -0.1176  0.8475
 3633SOL    HW220830  13.232   6.279   4.505  0.6530  0.1621  0.3201
 3634SOL     OW20831   5.712   4.334  11.409  0.2966  0.3774  0.1372
 3634SOL    HW120832   5.645   4.361  11.346  0.1772  1.3679  0.6656
 3634SOL    HW220833   5.683   4.372  11.492  0.3673 -1.0405  0.8381
 3635SOL     OW20834   5.257   0.248  10.371  0.5932  0.2019  0.3139
 3635SOL    HW120835   5.271   0.227  10.279  1.5495 -0.7705  0.6556
 3635SOL    HW220836   5.175   0.203  10.393  0.8115 -0.2849  0.1484
 3636SOL     OW20837   9.521  12.510   5.999 -0.2582 -0.0034  0.3303
 3636SOL    HW120838   9.481  12.423   6.006 -1.8069  0.6971  0.6829
 3636SOL    HW220839   9.591  12.499   5.935 -1.4942 -1.1651 -0.8887
 3637SOL     OW20840  12.949   6.844   6.909  0.2357  0.6252 -0.0105
 3637SOL    HW120841  13.002   6.923   6.923  1.1002  0.1063 -0.2920
 3637SOL    HW220842  12.968   6.819   6.818  0.8100 -0.5096  0.4092
 3638SOL     OW20843  10.343  11.037   2.405  0.1038 -0.1731  0.3804
 3638SOL    HW120844  10.345  11.120   2.453 -0.4619 -0.4349  0.8688
 3638SOL    HW220845  10.388  11.056   2.323  0.1106  0.5799  0.5490
 3639SOL     OW20846   9.488   8.587   4.947 -0.3612  0.3995 -0.7630
 3639SOL    HW120847   9.573   8.627   4.929 -0.3593  0.4934 -0.5462
 3639SOL    HW220848   9.461   8.550   4.863 -0.6354  1.3650 -1.1092
 3640SOL     OW20849   7.105   5.865  10.368 -0.0958  0.6344  0.4249
 3640SOL    HW120850   7.054   5.931  10.322  0.5211  1.6229  1.1422
 3640SOL    HW220851   7.196   5.894  10.360  0.4013 -1.0607 -0.7791
 3641SOL     OW20852   1.767   3.753   2.773  0.2055  0.0100 -0.2249
 3641SOL    HW120853   1.802   3.674   2.731 -0.7011  0.0370 -1.0482
 3641SOL    HW220854   1.724   3.801   2.703 -0.0836  0.7741  0.4607
 3642SOL     OW20855   1.832  12.485   1.624 -0.5105 -0.0499  0.5093
 3642SOL    HW120856   1.890  12.555   1.652  0.0584 -0.0978 -0.4771
 3642SOL    HW220857   1.889  12.408   1.615 -0.9103 -0.3497  0.4962
 3643SOL     OW20858   4.402   1.695   7.358 -0.4114  0.0487 -0.0303
 3643SOL    HW120859   4.312   1.712   7.329 -0.8888 -1.7357  0.2908
 3643SOL    HW220860   4.451   1.772   7.330 -1.9009  0.7516 -0.8222
 3644SOL     OW20861  12.340   1.230   1.685 -0.1270  0.1080 -0.7719
 3644SOL    HW120862  12.300   1.296   1.742 -1.5748 -1.3227 -0.0356
 3644SOL    HW220863  12.273   1.162   1.677  1.6001 -1.6609 -0.8347
 3645SOL     OW20864  11.779   4.404   7.937 -0.0437  0.4517 -0.6901
 3645SOL    HW120865  11.834   4.477   7.909  0.2197  0.6893  0.4123
 3645SOL    HW220866  11.716   4.444   7.998 -0.1145 -0.1887 -0.3432
 3646SOL     OW20867   9.896   2.515   8.651 -0.1133 -0.1242  0.8023
 3646SOL    HW120868   9.814   2.466   8.649 -0.2619 -0.0146  2.5917
 3646SOL    HW220869   9.964   2.448   8.648 -0.3088 -0.3865  1.7221
 3647SOL     OW20870  12.218   0.986   4.768  0.6594 -0.2923 -0.3579
 3647SOL    HW120871  12.127   0.990   4.738  0.6027  0.4089 -0.1098
 3647SOL    HW220872  12.226   0.900   4.809 -0.1385 -0.0383  0.3668
 3648SOL     OW20873   4.372   7.680   3.200  0.6590  0.4838  0.3616
 3648SOL    HW120874   4.327   7.604   3.163  1.4230  0.5546 -0.7618
 3648SOL    HW220875   4.311   7.753   3.185  0.5165  0.3309  0.1834
 3649SOL     OW20876   6.759  10.626   1.542  0.0327  0.0870  0.1495
 3649SOL    HW120877   6.679  10.578   1.521 -0.2067 -0.7478  2.7277
 3649SOL    HW220878   6.764  10.625   1.637  1.0948  3.4861  0.2593
 3650SOL     OW20879   4.305   8.581   8.204  0.4479  0.1807  0.2639
 3650SOL    HW120880   4.300   8.606   8.112 -0.3034 -0.3640  0.1492
 3650SOL    HW220881   4.233   8.519   8.216  0.7224  0.0210  1.1471
 3651SOL     OW20882  10.016   0.639   4.943  0.3843  0.2191  0.4912
 3651SOL    HW120883  10.010   0.574   5.013  1.6323 -1.4347 -0.8678
 3651SOL    HW220884   9.980   0.595   4.866 -1.5398  2.2118  0.1454
 3652SOL     OW20885  13.033   9.769  10.469 -0.0726 -0.1055  0.0887
 3652SOL    HW120886  13.048   9.705  10.539  1.1831 -0.5666 -0.5724
 3652SOL    HW220887  13.090   9.740  10.398 -0.1703  1.2425 -0.5568
 3653SOL     OW20888   3.534   4.255   2.160  0.0948 -0.3864  0.2057
 3653SOL    HW120889   3.597   4.325   2.177  0.3300 -0.4681 -0.2937
 3653SOL    HW220890   3.469   4.263   2.229 -0.7415  1.3329 -0.7097
 3654SOL     OW20891   6.574   8.295   2.537 -0.5555  0.0081 -0.0281
 3654SOL    HW120892   6.668   8.288   2.518 -0.6765  0.1132 -0.6962
 3654SOL    HW220893   6.568   8.364   2.603 -0.1848  0.2123 -0.2033
 3655SOL     OW20894  12.949   0.650   7.278 -0.1492 -0.0079  0.7007
 3655SOL    HW120895  12.870   0.599   7.300  0.5594 -0.4928  2.2960
 3655SOL    HW220896  12.928   0.739   7.307 -0.8152  0.3212 -0.6920
 3656SOL     OW20897   9.931   6.644   7.132  0.4371  0.3858  0.3913
 3656SOL    HW120898  10.023   6.623   7.148  0.3642 -0.0876  0.2061
 3656SOL    HW220899   9.904   6.584   7.062 -0.2789 -0.1440  1.0998
 3657SOL     OW20900  11.332   7.525   2.605 -0.1786  0.3019 -0.2584
 3657SOL    HW120901  11.358   7.581   2.532 -0.8132  2.7882  1.2886
 3657SOL    HW220902  11.242   7.500   2.585  0.3672 -0.9115 -1.3454
 3658SOL     OW20903   6.752   2.102  10.179  0.1361 -0.5343 -0.5051
 3658SOL    HW120904   6.805   2.152  10.241 -1.4422  0.4367  0.1462
 3658SOL    HW220905   6.815   2.063  10.119  1.5148  1.7875 -0.6938
 3659SOL     OW20906   6.964  10.626   8.922 -0.0470  0.5204 -0.1251
 3659SOL    HW120907   7.026  10.682   8.968 -0.4759  1.4392 -0.6239
 3659SOL    HW220908   6.929  10.682   8.852 -1.2911 -0.0261  0.0317
 3660SOL     OW20909   2.828   9.553   6.909 -0.3171  0.3124 -0.8095
 3660SOL    HW120910   2.799   9.534   6.998  3.1063 -1.7507  0.0513
 3660SOL    HW220911   2.756   9.522   6.853 -1.2329 -1.3378  1.1591
 3661SOL     OW20912   9.121   8.150   1.723  0.1637  0.9196  0.6204
 3661SOL    HW120913   9.122   8.170   1.629  0.3852  0.8267  0.6003
 3661SOL    HW220914   9.073   8.067   1.729  0.4865  0.7206  0.5410
 3662SOL     OW20915   5.171   0.316   3.015 -0.1167 -0.3847  0.4047
 3662SOL    HW120916   5.077   0.326   3.029  0.1558  1.6723  1.2697
 3662SOL    HW220917   5.189   0.366   2.936  0.4503  0.6967  1.1878
 3663SOL     OW20918   5.874   9.807   3.359  0.5178 -0.2750 -0.4145
 3663SOL    HW120919   5.963   9.832   3.337  0.4324  0.9345  0.5244
 3663SOL    HW220920   5.826   9.889   3.364 -1.2236 -1.0029 -3.0719
 3664SOL     OW20921   4.591   8.904   9.939 -0.5722 -0.9995 -0.4789
 3664SOL    HW120922   4.579   8.998   9.952  0.3110 -0.6463 -1.9025
 3664SOL    HW220923   4.686   8.891   9.942 -0.7134 -1.9655  0.3408
 3665SOL     OW20924   2.077   0.546   6.144 -0.7898 -0.4527  0.1689
 3665SOL    HW120925   2.122   0.461   6.144  1.5183  0.6769  0.3875
 3665SOL    HW220926   2.056   0.562   6.052 -3.5960 -2.3178  0.3631
 3666SOL     OW20927  12.543   6.838   2.149  0.5664  0.3685 -0.2993
 3666SOL    HW120928  12.482   6.844   2.075 -0.5629  1.8582  0.7029
 3666SOL    HW220929  12.535   6.748   2.180  1.0324 -0.2705 -1.9271
 3667SOL     OW20930   4.147  10.210  12.319  0.0005 -0.7572  0.1395
 3667SOL    HW120931   4.169  10.132  12.269  1.0583 -1.4682  1.6414
 3667SOL    HW220932   4.232  10.252  12.336 -0.5958  1.3612 -1.5436
 3668SOL     OW20933   0.793   6.547   3.553  0.0232  0.3287 -0.4646
 3668SOL    HW120934   0.792   6.470   3.496 -0.2586  0.3642 -0.5112
 3668SOL    HW220935   0.862   6.529   3.616 -1.8518 -1.2713  1.2807
 3669SOL     OW20936   5.466   3.709   7.931 -0.0597 -0.7376 -0.0221
 3669SOL    HW120937   5.432   3.797   7.913  0.1710 -0.5223  0.5458
 3669SOL    HW220938   5.510   3.683   7.850  0.4404 -0.0537  0.0142
 3670SOL     OW20939   8.967   5.504   2.762 -0.6475 -0.6430  0.3103
 3670SOL    HW120940   8.931   5.470   2.845 -1.7007  0.2056  0.2156
 3670SOL    HW220941   8.925   5.590   2.751  0.3059 -0.2757 -0.5637
 3671SOL     OW20942   8.953   8.761   0.150  0.0203 -0.9216 -0.2529
 3671SOL    HW120943   9.015   8.692   0.174  0.8269  0.5063  2.1676
 3671SOL    HW220944   9.004   8.820   0.095 -0.1006 -1.2637 -0.7374
 3672SOL     OW20945  13.216   9.383   7.483 -0.5792 -0.1158 -0.2176
 3672SOL    HW120946  13.163   9.341   7.416  0.5269 -1.4749 -0.2707
 3672SOL    HW220947  13.227   9.473   7.452  0.9533 -1.0183 -2.5615
 3673SOL     OW20948  11.875  13.246   1.952  0.0593 -0.1920  0.2489
 3673SOL    HW120949  11.785  13.276   1.964 -0.6979 -0.4197 -3.5856
 3673SOL    HW220950  11.874  13.198   1.870  3.6713 -0.3890  0.1377
 3674SOL     OW20951   4.552   0.621   3.666 -0.3884  0.0396 -0.1170
 3674SOL    HW120952   4.636   0.665   3.656 -0.3355  0.0446  0.3593
 3674SOL    HW220953   4.574   0.530   3.687 -0.4896  0.2786  1.1046
 3675SOL     OW20954  11.044   4.090   8.613 -0.1577  0.0910 -0.0079
 3675SOL    HW120955  11.081   4.030   8.548 -0.3203  0.5411 -0.5290
 3675SOL    HW220956  11.105   4.164   8.614  0.5801 -0.4976  1.3544
 3676SOL     OW20957   9.562   0.752  12.070 -0.3459 -0.4259  0.0034
 3676SOL    HW120958   9.644   0.714  12.039 -0.3046  0.5859 -1.1621
 3676SOL    HW220959   9.506   0.758  11.992 -0.8727  0.5631  0.4336
 3677SOL     OW20960   0.203  10.122   4.174 -0.1429 -0.7354 -0.9011
 3677SOL    HW120961   0.203  10.216   4.155  0.0425  0.1401  2.7459
 3677SOL    HW220962   0.111  10.101   4.190 -0.2293 -1.3072 -2.0529
 3678SOL     OW20963  10.192   0.603   9.532  0.1138 -0.0713  0.1712
 3678SOL    HW120964  10.284   0.605   9.559 -0.0255 -0.8080  0.7220
 3678SOL    HW220965  10.151   0.674   9.582  0.0272 -0.8940  1.2925
 3679SOL     OW20966   1.463   3.359   8.764 -0.3563 -0.2551 -0.3772
 3679SOL    HW120967   1.406   3.349   8.688 -0.4821 -0.5904 -0.2411
 3679SOL    HW220968   1.513   3.439   8.746  0.1689 -0.7461 -1.1825
 3680SOL     OW20969   6.380   8.837   3.188  0.5799 -0.0370  0.6647
 3680SOL    HW120970   6.372   8.901   3.117 -1.8957 -1.0222 -0.0434
 3680SOL    HW220971   6.327   8.874   3.259 -0.8832 -1.2675  0.2416
 3681SOL     OW20972  12.086  11.622  12.889  0.0551  0.3797  0.1883
 3681SOL    HW120973  12.172  11.623  12.932  0.5046  0.5174 -0.6916
 3681SOL    HW220974  12.099  11.569  12.811 -0.4767  0.9924 -0.3278
 3682SOL     OW20975   6.884   4.546   2.970  0.1510 -0.2006 -0.0061
 3682SOL    HW120976   6.848   4.499   2.895 -1.1740  0.9896 -0.1718
 3682SOL    HW220977   6.967   4.502   2.989 -0.3732 -1.6844 -0.9939
 3683SOL     OW20978   3.882   1.897   9.347  0.1768  0.4345  0.0792
 3683SOL    HW120979   3.945   1.872   9.415  1.3781 -0.9626 -1.4681
 3683SOL    HW220980   3.810   1.835   9.356  0.5356 -0.0226 -0.1915
 3684SOL     OW20981  11.765   7.577  13.310 -0.0420 -0.5808  0.5918
 3684SOL    HW120982  11.710   7.585  13.387  0.3426 -2.4677  1.1016
 3684SOL    HW220983  11.799   7.488  13.313  2.0417  0.1119 -0.3766
 3685SOL     OW20984   2.853   3.216   0.302 -0.6577 -0.2495  0.4604
 3685SOL    HW120985   2.913   3.184   0.235 -2.0819 -1.1636 -0.4401
 3685SOL    HW220986   2.867   3.159   0.377 -2.3380 -2.3843 -0.7231
 3686SOL     OW20987   2.800   3.573   8.158  0.0795 -0.2262 -0.1589
 3686SOL    HW120988   2.792   3.485   8.123 -0.7880  0.0478 -0.6891
 3686SOL    HW220989   2.751   3.571   8.240  0.3767 -0.3351  0.0162
 3687SOL     OW20990   5.769   9.213   3.160  0.3113  0.3252  0.1061
 3687SOL    HW120991   5.727   9.287   3.117 -1.6818 -0.6294  0.3024
 3687SOL    HW220992   5.703   9.179   3.220  1.9710 -0.2250  1.7313
 3688SOL     OW20993   1.249   9.151   2.026 -0.0637  0.4603  0.3795
 3688SOL    HW120994   1.169   9.121   1.984 -0.3345  0.7081  0.7148
 3688SOL    HW220995   1.219   9.206   2.099  0.3674 -1.0421  1.7384
 3689SOL     OW20996   8.030   3.347   4.225  0.0342  0.2745  0.0043
 3689SOL    HW120997   8.046   3.318   4.136  0.7512  0.3748  0.0957
 3689SOL    HW220998   8.106   3.317   4.275 -0.7727 -0.5513  0.7668
 3690SOL     OW20999   1.048  10.392  12.207 -0.0092 -0.2772  0.3913
 3690SOL    HW121000   1.040  10.439  12.289 -0.0300 -0.5770  0.5626
 3690SOL    HW221001   1.067  10.460  12.142 -0.8642  0.0711  0.4924
 3691SOL     OW21002   4.133   9.106   3.208 -0.1021  0.3595  0.3852
 3691SOL    HW121003   4.200   9.137   3.269  1.2994  2.2737 -1.9100
 3691SOL    HW221004   4.052   9.147   3.238  0.0016 -0.7861  2.3595
 3692SOL     OW21005   3.902   6.751   8.643 -0.3048 -0.3366  0.1036
 3692SOL    HW121006   3.886   6.826   8.701  0.0779  0.2959 -0.5831
 3692SOL    HW221007   3.959   6.694   8.693  1.1112  0.8258 -0.1003
 3693SOL     OW21008  11.227   0.080   8.403 -0.1036  0.3702 -0.2355
 3693SOL    HW121009  11.323   0.081   8.392  0.1437 -1.3590  1.3633
 3693SOL    HW221010  11.196   0.150   8.346  2.1531  1.2570 -0.4713
 3694SOL     OW21011   6.607   1.764   2.471 -0.2844 -0.2138  0.3033
 3694SOL    HW121012   6.701   1.748   2.463  0.1937  2.9122 -2.4954
 3694SOL    HW221013   6.567   1.705   2.406 -0.3784 -1.5798  1.5289
 3695SOL     OW21014  11.270  12.265   6.539  0.2423 -0.2916  0.0522
 3695SOL    HW121015  11.310  12.335   6.487 -0.9421  0.7381  0.4758
 3695SOL    HW221016  11.264  12.191   6.478  1.0864  0.1177 -0.5458
 3696SOL     OW21017   1.939   3.595   2.455 -0.3797  0.1623  0.4670
 3696SOL    HW121018   2.005   3.642   2.402 -0.5246 -2.3523 -2.1666
 3696SOL    HW221019   1.862   3.592   2.399 -1.6803  0.1861  2.2005
 3697SOL     OW21020   4.385  12.389  13.191 -0.5569 -0.2191  0.4033
 3697SOL    HW121021   4.441  12.355  13.261  1.4921  0.9989 -0.5346
 3697SOL    HW221022   4.390  12.323  13.122  1.7659  0.9241 -0.6171
 3698SOL     OW21023   9.113   1.629  10.345  0.5588 -0.0574  0.4033
 3698SOL    HW121024   9.199   1.633  10.387  1.1912  0.1712 -0.8747
 3698SOL    HW221025   9.118   1.693  10.274  0.1617 -1.6443 -1.1335
 3699SOL     OW21026  11.491   9.058   0.558 -0.6444  0.0259 -0.5330
 3699SOL    HW121027  11.489   8.998   0.484 -0.7683  2.1568 -2.3857
 3699SOL    HW221028  11.559   9.122   0.535 -0.5419  0.6236  1.3019
 3700SOL     OW21029   8.309   2.517   1.808  0.1765  0.4917 -0.6535
 3700SOL    HW121030   8.369   2.459   1.854  0.9016  1.6470 -0.0835
 3700SOL    HW221031   8.232   2.463   1.790 -0.0594 -0.1111  1.7435
 3701SOL     OW21032   4.270   8.126   9.756  0.0274 -0.0486 -0.3128
 3701SOL    HW121033   4.339   8.076   9.800  2.5833  2.4401 -1.2309
 3701SOL    HW221034   4.295   8.126   9.664 -2.2350 -0.5337 -0.9957
 3702SOL     OW21035   3.064   5.217   5.072 -0.1564 -0.3716  0.5903
 3702SOL    HW121036   3.153   5.209   5.106 -0.0148 -1.2670  0.0182
 3702SOL    HW221037   3.043   5.310   5.084  0.8619 -0.1408  0.6921
 3703SOL     OW21038   7.120   7.651   8.320 -0.6745 -0.6163 -0.0810
 3703SOL    HW121039   7.146   7.635   8.229  1.1638 -1.9296  0.6104
 3703SOL    HW221040   7.118   7.565   8.360 -2.1926 -0.1199  0.9792
 3704SOL     OW21041   4.835   7.684   2.946  0.7192  0.4480  0.3790
 3704SOL    HW121042   4.803   7.599   2.917  0.7494  0.4484  0.3433
 3704SOL    HW221043   4.852   7.674   3.040  0.7422  0.4090  0.3705
 3705SOL     OW21044   9.178   6.918   2.006 -0.3193 -0.2890 -0.4917
 3705SOL    HW121045   9.251   6.968   1.970 -0.2420 -1.0061 -1.3646
 3705SOL    HW221046   9.213   6.883   2.088 -0.1788  0.5741 -0.1727
 3706SOL     OW21047   1.359  12.861  12.772  0.3113 -0.0031  0.1577
 3706SOL    HW121048   1.397  12.782  12.810  0.8441 -1.1508 -2.5470
 3706SOL    HW221049   1.269  12.862  12.805 -0.0077 -2.3072 -0.4884
 3707SOL     OW21050   6.315   6.159   2.397  0.2890  0.3004  0.6928
 3707SOL    HW121051   6.296   6.238   2.449 -0.8304  0.0787  0.6637
 3707SOL    HW221052   6.371   6.106   2.453 -2.0484 -0.6006  2.3841
 3708SOL     OW21053  12.386   3.080   2.654  0.6683  0.5374 -0.3757
 3708SOL    HW121054  12.446   3.071   2.728  0.9257 -0.3345 -0.6754
 3708SOL    HW221055  12.303   3.106   2.693  1.1817  1.5740  0.0688
 3709SOL     OW21056   7.376   7.111  13.315  0.0002 -0.0078 -0.5572
 3709SOL    HW121057   7.429   7.153  13.382  0.4794 -1.3485 -0.0522
 3709SOL    HW221058   7.424   7.031  13.293 -0.6291 -0.0740 -1.8201
 3710SOL     OW21059   7.794   5.615  10.174  0.7214 -0.2650 -0.0426
 3710SOL    HW121060   7.826   5.672  10.103  0.3242 -0.4899 -0.4087
 3710SOL    HW221061   7.809   5.666  10.254  1.9880 -0.3682 -0.1982
 3711SOL     OW21062  10.558   8.340   1.602  0.4538 -0.0128  0.1883
 3711SOL    HW121063  10.542   8.428   1.637  0.1942  0.7735 -1.8043
 3711SOL    HW221064  10.563   8.284   1.680 -0.2605  1.6103  1.4597
 3712SOL     OW21065  11.781   1.643  11.033 -0.0325 -0.2414 -0.3450
 3712SOL    HW121066  11.819   1.718  11.078 -1.1539  0.1465 -0.0108
 3712SOL    HW221067  11.855   1.586  11.015  0.7496  0.6544 -0.0421
 3713SOL     OW21068  10.124   9.996  10.807  0.0955  0.1930  0.2424
 3713SOL    HW121069  10.122  10.085  10.772 -0.2058 -0.4081 -1.3557
 3713SOL    HW221070  10.191   9.952  10.756  0.6763 -0.3634  1.4389
 3714SOL     OW21071   0.611   9.523   9.150  0.6975 -0.5285 -0.1793
 3714SOL    HW121072   0.594   9.564   9.065 -1.4021  2.9146  1.6391
 3714SOL    HW221073   0.533   9.470   9.167 -0.4162  1.2981  0.7860
 3715SOL     OW21074   4.599   4.578   2.971  0.5551 -0.3522 -0.0903
 3715SOL    HW121075   4.572   4.659   3.014  0.3945 -0.5283  0.1398
 3715SOL    HW221076   4.643   4.608   2.891 -0.7141 -0.0719 -0.7183
 3716SOL     OW21077   9.004   9.961   8.535  0.4142  0.2390  0.3058
 3716SOL    HW121078   8.918   9.979   8.574  0.3536 -1.1877  0.9091
 3716SOL    HW221079   9.064  10.019   8.582 -0.2718  1.6557 -0.5015
 3717SOL     OW21080   1.354   6.482   0.005 -0.1619  0.5013 -0.1354
 3717SOL    HW121081   1.265   6.459   0.032 -0.1437  0.6084  0.0170
 3717SOL    HW221082   1.357   6.461  -0.088  0.0150 -0.5882  0.1073
 3718SOL     OW21083   6.983   9.950   9.694 -0.7769  0.6412 -0.5477
 3718SOL    HW121084   6.960   9.993   9.776 -0.7944 -1.0720  0.3854
 3718SOL    HW221085   7.022  10.019   9.640  2.4372  1.1727  2.1624
 3719SOL     OW21086   2.557   6.613  11.838  0.4630  0.3067 -0.2896
 3719SOL    HW121087   2.553   6.664  11.758 -0.9373 -1.4537 -1.4126
 3719SOL    HW221088   2.646   6.626  11.871  1.1631  0.8288 -2.2804
 3720SOL     OW21089   1.171   5.384   3.047  0.0976  0.0554 -0.1424
 3720SOL    HW121090   1.140   5.473   3.067 -1.6143 -0.1897 -1.3962
 3720SOL    HW221091   1.118   5.358   2.971  1.3383 -1.6328 -0.4676
 3721SOL     OW21092   1.573   6.219  13.071 -0.4408 -0.3172  0.1120
 3721SOL    HW121093   1.580   6.196  13.164  2.8271  0.7629  0.2573
 3721SOL    HW221094   1.572   6.135  13.026  0.8328 -0.8441  1.0173
 3722SOL     OW21095   0.161   1.160   4.025  0.1546  0.5361  0.5356
 3722SOL    HW121096   0.131   1.135   3.938  0.5986  0.6183  0.3563
 3722SOL    HW221097   0.190   1.078   4.065 -0.9681  0.3333  0.9852
 3723SOL     OW21098   9.596   8.555   8.398  0.1534 -0.5248  0.0265
 3723SOL    HW121099   9.556   8.481   8.352  2.5495 -1.2112 -1.1521
 3723SOL    HW221100   9.602   8.624   8.331 -0.8537  0.2752  0.7458
 3724SOL     OW21101   1.393   8.235  10.640 -0.2478  0.2336 -0.0624
 3724SOL    HW121102   1.431   8.158  10.598  1.8434  1.2731 -0.2104
 3724SOL    HW221103   1.462   8.265  10.700 -1.3235  1.5421  0.5545
 3725SOL     OW21104   2.888  12.623  12.841  0.0594  0.1358 -0.0338
 3725SOL    HW121105   2.956  12.559  12.820 -1.1522 -0.6467 -1.9364
 3725SOL    HW221106   2.851  12.593  12.924  0.9957 -0.3284  0.2210
 3726SOL     OW21107  10.025  10.891   5.199  0.5628 -0.0709  0.1302
 3726SOL    HW121108  10.094  10.948   5.233  0.2758  1.0684 -1.1193
 3726SOL    HW221109   9.947  10.947   5.198 -0.0554 -0.9180  0.1921
 3727SOL     OW21110   1.087   2.457   2.136 -0.2636 -0.3501  0.0502
 3727SOL    HW121111   1.075   2.364   2.158 -3.1503 -0.5661 -1.9000
 3727SOL    HW221112   1.009   2.500   2.171  0.4039  1.1297 -0.2195
 3728SOL     OW21113   3.577   7.086   2.412 -0.1357 -0.0373  0.1348
 3728SOL    HW121114   3.634   7.147   2.365 -0.4362  1.2608  1.3617
 3728SOL    HW221115   3.530   7.141   2.475 -0.5347 -1.5352  1.2099
 3729SOL     OW21116   4.469   7.457  11.650  0.0643 -0.1995  0.0706
 3729SOL    HW121117   4.432   7.474  11.737  1.1630  2.2084  0.1690
 3729SOL    HW221118   4.407   7.499  11.590 -0.8309 -2.0868 -0.3894
 3730SOL     OW21119  13.169  12.220  12.800 -0.1007 -0.0948 -0.3065
 3730SOL    HW121120  13.079  12.251  12.807 -0.2433 -0.7712  1.2793
 3730SOL    HW221121  13.223  12.298  12.809 -0.4968  0.4518 -2.1993
 3731SOL     OW21122  11.310   4.344  10.516  0.2092  0.0835 -0.1187
 3731SOL    HW121123  11.296   4.285  10.442  2.8848  0.0188 -0.6672
 3731SOL    HW221124  11.327   4.429  10.477 -0.0080  0.4191  0.5034
 3732SOL     OW21125   7.793   9.791  10.395 -0.1469  0.7523  0.1629
 3732SOL    HW121126   7.735   9.784  10.471 -0.4930 -0.0011 -0.1558
 3732SOL    HW221127   7.839   9.874  10.408  0.7298  0.0601  1.8449
 3733SOL     OW21128   0.971  12.098  10.831 -0.4064 -0.2142 -0.3951
 3733SOL    HW121129   1.000  12.013  10.865 -0.6301 -0.6746 -1.3031
 3733SOL    HW221130   1.019  12.162  10.883  0.7785 -0.9224 -0.5556
 3734SOL     OW21131  10.380   6.531   5.093 -0.0046  0.0845  0.5313
 3734SOL    HW121132  10.455   6.589   5.108  0.1116 -0.0402  0.4296
 3734SOL    HW221133  10.379   6.516   4.999  0.2668 -0.4821  0.6156
 3735SOL     OW21134   4.598  11.675   8.177  0.1757  0.2888  0.0481
 3735SOL    HW121135   4.595  11.580   8.172 -0.4524  0.3560 -1.3090
 3735SOL    HW221136   4.677  11.694   8.227 -0.1088 -0.9540  1.0007
 3736SOL     OW21137   2.944  13.303   2.728  0.6393  0.2354 -0.5105
 3736SOL    HW121138   3.034  13.273   2.742  0.0436 -2.4687 -1.8820
 3736SOL    HW221139   2.945  13.338   2.638 -0.0124 -1.4153 -1.1889
 3737SOL     OW21140  12.354  11.641   6.669  0.1520 -0.1955  0.1392
 3737SOL    HW121141  12.318  11.688   6.745  0.8138  0.6450 -0.0593
 3737SOL    HW221142  12.277  11.613   6.620 -0.3155 -1.2203  1.3782
 3738SOL     OW21143  12.572   2.275   8.989 -0.0995 -0.0232 -0.5776
 3738SOL    HW121144  12.590   2.322   8.908  1.0900 -0.6745 -0.7009
 3738SOL    HW221145  12.653   2.281   9.040 -0.2239 -1.1420 -0.2078
 3739SOL     OW21146   6.261  11.384   8.145 -0.5179 -0.0381  0.6711
 3739SOL    HW121147   6.210  11.311   8.180 -1.6847 -0.3883 -1.6005
 3739SOL    HW221148   6.207  11.462   8.160 -1.0853 -0.2076 -0.3890
 3740SOL     OW21149   5.051   2.721  10.576  0.0799 -0.8437  0.5602
 3740SOL    HW121150   5.128   2.772  10.551 -0.4857  0.8888  2.1563
 3740SOL    HW221151   4.978   2.764  10.532 -0.6008  0.7709  3.0792
 3741SOL     OW21152  11.181   6.059  10.524 -0.0818  0.5878  0.4066
 3741SOL    HW121153  11.220   6.134  10.479  0.5368  1.6318  2.5693
 3741SOL    HW221154  11.111   6.097  10.577  0.7021 -0.2314  2.0966
 3742SOL     OW21155   9.098  11.022   7.082  0.0387  0.0051 -0.0839
 3742SOL    HW121156   9.052  11.096   7.121  1.2432  1.5706 -1.4739
 3742SOL    HW221157   9.029  10.961   7.056 -1.0572  1.0819  0.2383
 3743SOL     OW21158   0.201   7.225   1.187 -0.4189  0.3255 -0.6595
 3743SOL    HW121159   0.148   7.183   1.255  0.6083  0.7484  0.4347
 3743SOL    HW221160   0.192   7.167   1.111 -2.4522  0.4088 -0.5311
 3744SOL     OW21161   3.715  10.490  11.770  0.0801  0.2414 -0.0639
 3744SOL    HW121162   3.802  10.454  11.751 -0.0021  0.6756 -1.2857
 3744SOL    HW221163   3.723  10.524  11.860  1.5944  1.5079 -0.6371
 3745SOL     OW21164   0.904   1.014   9.434  0.1211 -0.6043  0.1553
 3745SOL    HW121165   0.921   1.089   9.491  2.2307  0.2310 -1.4057
 3745SOL    HW221166   0.810   1.016   9.419 -0.0748  0.8715  1.2970
 3746SOL     OW21167   2.447  11.590  12.807  0.0323  0.3823 -0.1727
 3746SOL    HW121168   2.437  11.621  12.897  1.6802  1.2358 -0.2343
 3746SOL    HW221169   2.530  11.543  12.807 -0.2291 -0.0925 -1.1234
 3747SOL     OW21170   3.642   4.463  11.808  0.3729  0.7723 -0.2993
 3747SOL    HW121171   3.692   4.415  11.874 -0.5760 -0.0473 -0.1360
 3747SOL    HW221172   3.610   4.395  11.748  0.1663  1.3645 -0.8780
 3748SOL     OW21173   5.491   2.357   1.300  0.3579  0.1868  0.1471
 3748SOL    HW121174   5.432   2.328   1.230  0.0984 -0.3450  0.5809
 3748SOL    HW221175   5.470   2.450   1.310  0.5389  0.3175 -0.6138
 3749SOL     OW21176   5.789   1.189   8.640  0.2432 -0.1719 -0.3478
 3749SOL    HW121177   5.750   1.273   8.666  0.1734 -0.5652  0.9100
 3749SOL    HW221178   5.854   1.171   8.708  0.8371 -0.7450 -1.0565
 3750SOL     OW21179  12.287   2.490   4.167 -0.4017 -0.1642 -0.7835
 3750SOL    HW121180  12.341   2.556   4.210 -0.1366 -0.2750 -0.9467
 3750SOL    HW221181  12.344   2.414   4.158  0.1276  0.4132 -2.9132
 3751SOL     OW21182   6.364   3.914  12.554  0.1836  0.4044  0.5633
 3751SOL    HW121183   6.391   3.847  12.492 -0.4574  0.8493 -0.2104
 3751SOL    HW221184   6.417   3.897  12.632  0.9218 -0.2209 -0.0622
 3752SOL     OW21185   7.816   2.620  10.354  0.2615  0.0853 -0.4175
 3752SOL    HW121186   7.744   2.677  10.381 -0.4577 -0.7977 -0.4320
 3752SOL    HW221187   7.779   2.567  10.284  0.7881 -0.7041 -0.1043
 3753SOL     OW21188   1.988   6.226   3.191 -0.2391  0.4783 -0.2349
 3753SOL    HW121189   2.077   6.191   3.183 -0.5047 -0.0505 -0.8742
 3753SOL    HW221190   2.002   6.318   3.216  0.4849  0.3654 -0.1822
 3754SOL     OW21191   5.919   7.387   3.104  0.4621  0.0791 -0.5246
 3754SOL    HW121192   5.908   7.424   3.017 -1.1339 -0.1382 -0.4510
 3754SOL    HW221193   5.846   7.422   3.154  0.8343 -0.5304  0.4712
 3755SOL     OW21194   7.713   5.302   2.926 -0.4480  0.4515 -0.5993
 3755SOL    HW121195   7.699   5.361   3.000  1.8403 -0.1438  0.3931
 3755SOL    HW221196   7.767   5.231   2.961  1.4653  0.5870 -2.9763
 3756SOL     OW21197  12.811  12.695   9.625  0.4219 -0.0565 -0.5670
 3756SOL    HW121198  12.836  12.611   9.665  1.0371  0.3040 -0.1833
 3756SOL    HW221199  12.754  12.670   9.552 -0.6017 -0.7384  0.4219
 3757SOL     OW21200  11.344   4.785   0.304 -0.1159  0.0423  0.1318
 3757SOL    HW121201  11.350   4.706   0.356 -0.6413 -0.7739 -1.0058
 3757SOL    HW221202  11.393   4.766   0.224 -2.3828 -0.1663 -1.3194
 3758SOL     OW21203   8.434   9.992   1.140 -0.2227 -0.3353  0.2623
 3758SOL    HW121204   8.421   9.964   1.231  0.9764 -1.2432  0.1815
 3758SOL    HW221205   8.444   9.910   1.091  0.4713  0.1743 -0.4657
 3759SOL     OW21206   2.911   7.092  10.015 -0.4075  0.4102 -0.0199
 3759SOL    HW121207   2.948   7.014  10.056 -0.1311  0.6605  0.2212
 3759SOL    HW221208   2.820   7.094  10.043  0.1082  1.3098  1.7264
 3760SOL     OW21209   9.770   1.015   3.282  0.3210 -0.5804 -0.5468
 3760SOL    HW121210   9.701   1.080   3.265 -0.4114 -1.2976 -0.3845
 3760SOL    HW221211   9.779   0.967   3.199  0.0445 -1.0233 -0.3228
 3761SOL     OW21212   7.424  12.554   1.737 -0.1294  0.1731 -0.0764
 3761SOL    HW121213   7.410  12.476   1.683  0.4573 -0.6972  1.0103
 3761SOL    HW221214   7.438  12.521   1.825 -0.2977  1.5393  0.4954
 3762SOL     OW21215  12.193   7.652  10.190  0.5101  0.1099 -0.0915
 3762SOL    HW121216  12.263   7.626  10.129  0.9400 -0.1709  0.5120
 3762SOL    HW221217  12.195   7.585  10.258  0.1228  0.4992  0.3048
 3763SOL     OW21218  10.780   6.690   3.913 -0.2198 -0.1225  0.5474
 3763SOL    HW121219  10.832   6.769   3.900  0.1374 -0.4728 -0.2598
 3763SOL    HW221220  10.697   6.721   3.949  0.3405  0.4967  1.3266
 3764SOL     OW21221   1.224   5.099   6.250 -0.3151 -0.0634 -0.0404
 3764SOL    HW121222   1.179   5.124   6.331 -0.4997 -0.1771 -0.1068
 3764SOL    HW221223   1.267   5.179   6.221 -0.3152 -0.0013  0.1266
 3765SOL     OW21224  11.860   6.538   2.918  0.1489 -0.1503  0.1442
 3765SOL    HW121225  11.943   6.492   2.921  0.1999 -0.0449  0.3886
 3765SOL    HW221226  11.795   6.469   2.904  0.1923 -0.3422  0.8405
 3766SOL     OW21227  12.480   3.933   6.389  0.0935  0.5111 -0.9948
 3766SOL    HW121228  12.415   4.003   6.376 -0.2546  0.2463 -0.6759
 3766SOL    HW221229  12.450   3.862   6.333 -1.3459 -0.5944  1.0363
 3767SOL     OW21230  12.393   1.203   4.744 -0.4298 -0.1631  0.8927
 3767SOL    HW121231  12.328   1.136   4.763 -0.2694 -0.1561  1.5119
 3767SOL    HW221232  12.348   1.286   4.763 -0.1719 -0.1695  1.5723
 3768SOL     OW21233  11.842   9.850   6.334 -0.1090  0.0571 -0.2978
 3768SOL    HW121234  11.922   9.897   6.311  1.6823 -2.2594  0.8295
 3768SOL    HW221235  11.846   9.841   6.429 -2.2179  0.6571 -0.1045
 3769SOL     OW21236   2.005   8.810  11.828  0.4355  0.0630 -0.6301
 3769SOL    HW121237   1.988   8.723  11.865  0.7091 -0.4487 -1.6826
 3769SOL    HW221238   2.018   8.795  11.735  1.3868  1.1146 -0.6929
 3770SOL     OW21239   2.815  11.910   4.991 -0.3638  0.4227 -0.2891
 3770SOL    HW121240   2.845  12.000   4.976 -0.1143  0.3564 -0.1979
 3770SOL    HW221241   2.824  11.867   4.906  1.4335 -0.0612  0.1078
 3771SOL     OW21242  10.342  10.225   9.070 -0.5853  0.1466  0.5093
 3771SOL    HW121243  10.423  10.212   9.020 -0.1997  2.7705  0.2869
 3771SOL    HW221244  10.351  10.313   9.107 -2.7359 -0.0660  1.6823
 3772SOL     OW21245   9.676   8.242  10.992 -0.2336 -0.3077 -0.3797
 3772SOL    HW121246   9.708   8.223  11.080  2.9081 -0.0253 -1.3510
 3772SOL    HW221247   9.634   8.161  10.963  2.3806 -1.8897 -0.0703
 3773SOL     OW21248   2.847   4.906   8.409 -0.4796  0.3119 -0.0575
 3773SOL    HW121249   2.831   4.988   8.362  0.9291  1.1289  0.8256
 3773SOL    HW221250   2.777   4.901   8.474  0.1333  1.4590  0.7083
 3774SOL     OW21251  12.521   1.644  11.966  0.1947  0.0753 -0.0269
 3774SOL    HW121252  12.467   1.721  11.948 -1.7659 -0.9957  1.0053
 3774SOL    HW221253  12.464   1.570  11.948  2.2442 -1.2099 -1.6276
 3775SOL     OW21254   2.504   6.998  12.473 -0.0299 -0.0323 -0.2062
 3775SOL    HW121255   2.581   6.951  12.442 -1.1427 -1.7756 -0.4660
 3775SOL    HW221256   2.530   7.032  12.559  1.6778  1.2332 -1.1556
 3776SOL     OW21257   3.287   1.965   4.967  0.3140  0.1365 -0.5581
 3776SOL    HW121258   3.301   1.877   4.933  0.4085  0.8287 -2.4350
 3776SOL    HW221259   3.253   2.015   4.892  0.7630  1.8342  0.3070
 3777SOL     OW21260   2.420   9.527   1.886 -0.1005 -0.1140  0.1746
 3777SOL    HW121261   2.418   9.566   1.974  2.6641  5.7705 -1.8355
 3777SOL    HW221262   2.366   9.586   1.833  3.3427  0.4893 -3.0495
 3778SOL     OW21263   6.213   7.889   8.503  0.2835 -0.6743 -0.0759
 3778SOL    HW121264   6.262   7.853   8.429 -3.4764  0.0148 -3.2002
 3778SOL    HW221265   6.229   7.983   8.500  0.3496 -0.6756  0.1913
 3779SOL     OW21266   0.413   0.685  11.438 -0.5613  0.1148 -0.4537
 3779SOL    HW121267   0.433   0.629  11.513 -0.8744  0.8042  0.1645
 3779SOL    HW221268   0.325   0.657  11.411  0.3904 -1.5837 -1.9346
 3780SOL     OW21269  12.754   9.373   2.859 -0.0576 -0.4451 -0.1897
 3780SOL    HW121270  12.758   9.410   2.771  1.8961  0.2204  0.1379
 3780SOL    HW221271  12.758   9.278   2.845 -1.0022 -0.4058 -0.8465
 3781SOL     OW21272   9.894  11.824   8.268  0.1965 -0.2864  0.5033
 3781SOL    HW121273   9.839  11.830   8.190  1.5506  0.1576 -0.4584
 3781SOL    HW221274   9.833  11.831   8.341 -1.0398 -0.0200 -0.5200
 3782SOL     OW21275   1.210   4.337  11.798  0.3113  0.2714 -0.0678
 3782SOL    HW121276   1.274   4.276  11.762 -1.4789 -2.7408  1.4345
 3782SOL    HW221277   1.176   4.293  11.876 -3.6272  1.6019 -0.7910
 3783SOL     OW21278  12.450   8.233   1.337 -0.4785  0.5048 -0.5484
 3783SOL    HW121279  12.386   8.219   1.406 -0.0821 -1.5494 -0.5266
 3783SOL    HW221280  12.400   8.271   1.265 -1.2011  1.2101  0.3027
 3784SOL     OW21281   6.860  12.784   6.064  0.0538  0.0621 -0.5658
 3784SOL    HW121282   6.925  12.744   6.121 -1.7148 -2.1932  0.0096
 3784SOL    HW221283   6.792  12.717   6.055 -1.5325  1.7938 -2.2454
 3785SOL     OW21284   0.686   3.357  11.221  0.0369 -1.0606  0.2426
 3785SOL    HW121285   0.766   3.346  11.272 -0.2615  2.2754  1.7133
 3785SOL    HW221286   0.621   3.304  11.268  0.4530 -0.3646  1.6758
 3786SOL     OW21287   8.980   1.112  12.567  0.0505 -0.4407  0.6226
 3786SOL    HW121288   8.966   1.065  12.485 -0.9010  0.9989 -0.0879
 3786SOL    HW221289   8.930   1.063  12.632  0.5397 -1.4023  0.2985
 3787SOL     OW21290   5.097   7.680   0.231 -0.0517 -0.1762  0.1246
 3787SOL    HW121291   5.043   7.603   0.213 -1.8473  1.3488 -1.3885
 3787SOL    HW221292   5.055   7.722   0.306 -1.0338  1.0118 -1.0509
 3788SOL     OW21293  10.644   0.396   8.676 -0.1231 -0.3159 -0.1088
 3788SOL    HW121294  10.580   0.428   8.612 -0.4349 -2.1610 -0.7688
 3788SOL    HW221295  10.641   0.301   8.668  2.0337 -0.4929  0.5134
 3789SOL     OW21296   5.497   4.255   5.695 -0.2491 -0.5282  0.5638
 3789SOL    HW121297   5.426   4.250   5.759  0.1814  0.3809  1.1378
 3789SOL    HW221298   5.577   4.252   5.748  0.1137  0.4095  0.0997
 3790SOL     OW21299   2.082   3.176   6.812 -0.0239 -0.4208 -0.3577
 3790SOL    HW121300   2.034   3.256   6.833 -0.1357  0.4517 -3.4618
 3790SOL    HW221301   2.024   3.128   6.753  0.6530 -2.1469  0.3103
 3791SOL     OW21302  12.642   2.894   2.572  0.2181  0.1385 -0.9192
 3791SOL    HW121303  12.602   2.919   2.656  0.2441 -0.3178 -0.7716
 3791SOL    HW221304  12.603   2.810   2.550 -0.1567  0.4869 -1.6199
 3792SOL     OW21305  13.232   1.982   3.413  0.4237 -0.2317  0.5523
 3792SOL    HW121306  13.315   2.028   3.416 -0.2327  1.0792 -0.4258
 3792SOL    HW221307  13.247   1.910   3.351  0.9188 -0.2269  0.6596
 3793SOL     OW21308   2.009  11.520   4.017 -0.0992  0.0028 -0.0129
 3793SOL    HW121309   2.093  11.477   4.001  0.0794  0.7960 -1.3227
 3793SOL    HW221310   1.974  11.475   4.094  1.2543 -0.7263  0.2126
 3794SOL     OW21311   4.912   4.517  12.950  0.6260 -0.4001  0.0340
 3794SOL    HW121312   4.832   4.468  12.928  0.6937 -0.8424  0.7586
 3794SOL    HW221313   4.894   4.606  12.921  0.6557 -0.9173 -1.7000
 3795SOL     OW21314   0.215   1.637   7.112  0.0257 -0.5541  0.1142
 3795SOL    HW121315   0.216   1.556   7.163 -1.3746 -2.2932 -2.3749
 3795SOL    HW221316   0.125   1.669   7.121  0.4607  0.5299  0.7418
 3796SOL     OW21317   1.170   6.317   5.507 -0.5454 -0.5236 -0.0160
 3796SOL    HW121318   1.137   6.265   5.434  2.4333 -0.9962 -1.1777
 3796SOL    HW221319   1.234   6.260   5.550  2.1873  1.7245 -0.7815
 3797SOL     OW21320   8.984   7.543   0.828 -0.4204 -0.1359  0.0404
 3797SOL    HW121321   9.041   7.480   0.872  0.1834 -0.5648 -1.2765
 3797SOL    HW221322   9.004   7.627   0.869  2.2638 -0.0094 -1.2957
 3798SOL     OW21323   7.701   5.766  11.326 -0.6981  0.4917 -0.2299
 3798SOL    HW121324   7.781   5.719  11.350 -1.1472  0.9394  2.4721
 3798SOL    HW221325   7.649   5.702  11.276  0.1964 -0.7012  0.3207
 3799SOL     OW21326   8.525  11.941   1.148 -0.2328 -0.0213  0.9243
 3799SOL    HW121327   8.569  11.856   1.142  0.4835  0.3323  1.0380
 3799SOL    HW221328   8.456  11.929   1.213 -0.6465 -0.7297  0.3628
 3800SOL     OW21329   3.592   6.722   3.821  0.0754 -0.1845 -0.6715
 3800SOL    HW121330   3.645   6.799   3.842  0.6905 -0.7277 -0.2121
 3800SOL    HW221331   3.528   6.754   3.757  2.6355 -0.0760 -3.4001
 3801SOL     OW21332  12.596   4.729   2.953 -0.7942  0.2806 -0.2437
 3801SOL    HW121333  12.533   4.661   2.976  0.0099  0.5433  3.2476
 3801SOL    HW221334  12.681   4.686   2.959 -0.3655  1.1839  0.2843
 3802SOL     OW21335   7.245   3.369   0.889  0.2404  0.2449 -0.4125
 3802SOL    HW121336   7.307   3.325   0.946  0.2092  1.0564  0.2582
 3802SOL    HW221337   7.178   3.302   0.872  0.7113 -0.2847 -0.2424
 3803SOL     OW21338   8.837   6.001   0.238  0.1832  0.2572 -0.1220
 3803SOL    HW121339   8.903   5.947   0.281  0.1964  1.3553  1.3070
 3803SOL    HW221340   8.766   6.008   0.303 -0.7793  0.1337 -1.1410
 3804SOL     OW21341   3.822   0.184   6.853  0.1756  0.7170  0.1554
 3804SOL    HW121342   3.898   0.144   6.812  0.9246  1.2349  1.0057
 3804SOL    HW221343   3.756   0.114   6.856  0.6369  0.2485 -0.5238
 3805SOL     OW21344   0.737   4.423   4.697  0.4952  0.2015 -0.0910
 3805SOL    HW121345   0.660   4.480   4.691 -0.7206 -1.4593 -1.3569
 3805SOL    HW221346   0.798   4.458   4.633  0.0077  0.4314 -0.4387
 3806SOL     OW21347  12.674  11.797  11.974  0.2649 -0.1927  0.0047
 3806SOL    HW121348  12.708  11.854  11.906  0.7496 -0.5187 -0.0341
 3806SOL    HW221349  12.728  11.718  11.968  0.5541 -0.0909  0.9940
 3807SOL     OW21350  11.953   4.537   5.246 -0.1701 -0.0242 -0.2279
 3807SOL    HW121351  11.957   4.532   5.150 -0.3922  3.1344 -0.5233
 3807SOL    HW221352  11.860   4.547   5.266 -0.2472 -1.7768  0.4753
 3808SOL     OW21353   2.375   6.888   5.949  0.3760 -0.4039 -0.1583
 3808SOL    HW121354   2.469   6.901   5.958  0.1954  1.0231 -0.1065
 3808SOL    HW221355   2.345   6.865   6.037  0.7828 -1.7863 -0.3549
 3809SOL     OW21356   6.141  13.259   3.981  0.2173 -0.0172 -0.3174
 3809SOL    HW121357   6.107  13.178   4.019 -1.0303  0.0364 -1.2674
 3809SOL    HW221358   6.212  13.230   3.923 -1.1005 -0.6279 -1.7165
 3810SOL     OW21359   6.887   6.731   8.082 -0.2965  0.6851 -0.0469
 3810SOL    HW121360   6.833   6.666   8.128  1.3536 -2.0463 -1.7371
 3810SOL    HW221361   6.969   6.733   8.131  0.2990  0.1483 -1.0044
 3811SOL     OW21362   1.960   8.006   6.517  0.1341  0.1552  0.0747
 3811SOL    HW121363   1.901   7.997   6.442  0.1781 -1.1003  0.1600
 3811SOL    HW221364   1.958   8.099   6.539 -1.9476  0.1195  0.1881
 3812SOL     OW21365  10.722   3.389   6.728 -0.1249  0.3958  0.4677
 3812SOL    HW121366  10.684   3.466   6.685 -0.4261 -0.2204 -0.3694
 3812SOL    HW221367  10.816   3.394   6.709 -0.4067 -0.5188 -1.3101
 3813SOL     OW21368   1.525  13.219   5.289  0.4527 -0.4171 -0.0815
 3813SOL    HW121369   1.585  13.262   5.350 -1.3917  2.1552  0.0594
 3813SOL    HW221370   1.559  13.240   5.202  0.8361 -0.7064 -0.0093
 3814SOL     OW21371   6.639   8.598   2.920  0.1249 -0.1866  0.2626
 3814SOL    HW121372   6.633   8.503   2.929  1.8206 -0.5663 -1.7487
 3814SOL    HW221373   6.559   8.631   2.961 -0.2178 -2.4154  1.5455
 3815SOL     OW21374  12.306   7.871   5.273 -0.3953 -0.5464  0.1120
 3815SOL    HW121375  12.330   7.914   5.355 -0.4893  0.0938 -0.1928
 3815SOL    HW221376  12.223   7.827   5.293  0.5688 -2.0909  0.9302
 3816SOL     OW21377   5.960   2.047   9.560 -0.2087 -0.3105 -0.8681
 3816SOL    HW121378   5.979   2.058   9.653  2.3574  0.4225 -1.4270
 3816SOL    HW221379   5.896   1.975   9.558 -1.6818  0.7927  1.5230
 3817SOL     OW21380   7.855   6.404   2.439  0.0711  0.8693 -0.1230
 3817SOL    HW121381   7.877   6.317   2.473  0.0765  0.2847 -1.5293
 3817SOL    HW221382   7.854   6.461   2.515  1.5832 -0.0638  0.6211
 3818SOL     OW21383   8.434   9.344   5.337 -0.5128 -0.2485 -0.0534
 3818SOL    HW121384   8.404   9.399   5.409 -0.4370 -0.7191  0.3402
 3818SOL    HW221385   8.507   9.294   5.373 -0.3671 -0.3664 -0.5041
 3819SOL     OW21386   1.114   9.372   9.964 -0.3093 -0.0868 -0.4366
 3819SOL    HW121387   1.117   9.428  10.041  0.2365 -0.6717 -0.0227
 3819SOL    HW221388   1.138   9.429   9.891  1.0689  0.0501  0.0867
 3820SOL     OW21389   7.421   7.886   6.513  0.3608  0.2784 -0.1271
 3820SOL    HW121390   7.442   7.895   6.607  2.1374 -1.4178 -0.2927
 3820SOL    HW221391   7.376   7.802   6.506  0.2757  0.3749 -0.7938
 3821SOL     OW21392  12.395  10.050   1.427  0.4327  0.1587  0.0913
 3821SOL    HW121393  12.400  10.118   1.360 -0.2987  0.5415  0.4171
 3821SOL    HW221394  12.477  10.059   1.475  0.8179  0.0970 -0.5390
 3822SOL     OW21395  11.352   8.854   9.632 -0.4343 -0.0703  0.4193
 3822SOL    HW121396  11.426   8.839   9.573 -1.0460 -1.0951 -0.1023
 3822SOL    HW221397  11.393   8.869   9.718  0.4108  0.2845 -0.0363
 3823SOL     OW21398   0.127   5.386   1.329 -0.2151 -0.2948  0.1016
 3823SOL    HW121399   0.159   5.306   1.370  1.7144 -0.8281 -2.2609
 3823SOL    HW221400   0.193   5.452   1.351  1.0194 -0.6576 -2.2243
 3824SOL     OW21401  13.070   2.277  10.102  0.3091 -0.4481  0.0533
 3824SOL    HW121402  13.022   2.357  10.121  1.8489  0.0429  2.2954
 3824SOL    HW221403  13.058   2.263  10.008 -1.9884  1.0419  0.0614
 3825SOL     OW21404   2.475   4.890   2.186  0.7081  0.1290  0.0698
 3825SOL    HW121405   2.438   4.942   2.257 -0.0793  2.6707 -2.0398
 3825SOL    HW221406   2.568   4.883   2.207  0.9578  2.8804  0.2829
 3826SOL     OW21407   0.476   3.628  12.423 -0.4157  0.7406  0.4132
 3826SOL    HW121408   0.567   3.605  12.442 -0.5351  0.1414  0.2949
 3826SOL    HW221409   0.424   3.569  12.478 -0.7297  0.9270  0.3171
 3827SOL     OW21410   3.084   4.850   9.167 -0.0867  0.2106 -0.0204
 3827SOL    HW121411   2.997   4.877   9.196 -0.6293 -0.1267 -1.2260
 3827SOL    HW221412   3.079   4.754   9.165 -0.6085  0.2168 -2.5654
 3828SOL     OW21413   9.009   2.627   9.958 -0.0387  0.2115  0.3892
 3828SOL    HW121414   9.006   2.717   9.927  2.3156  0.3512  0.3596
 3828SOL    HW221415   9.006   2.574   9.878  0.4351  0.3409  0.2861
 3829SOL     OW21416   3.683  12.748  10.897 -0.1954 -0.0621  0.3765
 3829SOL    HW121417   3.643  12.673  10.853 -1.0705  1.0279 -0.7853
 3829SOL    HW221418   3.739  12.787  10.830 -0.5663  0.9035  0.6105
 3830SOL     OW21419   7.999   4.655  13.032 -0.2325 -0.1680  0.2320
 3830SOL    HW121420   7.956   4.730  13.073  1.6011  0.4452  1.1271
 3830SOL    HW221421   7.932   4.617  12.975 -1.7654  1.0323  1.1752
 3831SOL     OW21422  10.070   4.228   1.053 -0.6449  0.1001 -0.0575
 3831SOL    HW121423  10.078   4.313   1.010 -1.7203  1.0174  1.4616
 3831SOL    HW221424  10.136   4.230   1.123  0.7607 -1.1856 -1.2609
 3832SOL     OW21425   5.499   2.210   5.100  0.5588 -0.2396  0.0053
 3832SOL    HW121426   5.551   2.170   5.030 -0.8877  0.1429 -1.3428
 3832SOL    HW221427   5.414   2.167   5.094 -0.0730  0.9054  0.5059
 3833SOL     OW21428   3.168   5.968  11.432  0.1131 -0.2702  0.2464
 3833SOL    HW121429   3.171   5.900  11.499  1.0041 -1.2644 -0.7534
 3833SOL    HW221430   3.236   6.030  11.458  0.5266 -0.7051  0.2332
 3834SOL     OW21431  11.275   4.623  12.201  0.4196  0.4490 -0.3466
 3834SOL    HW121432  11.339   4.668  12.256 -0.7090  0.8164  0.7226
 3834SOL    HW221433  11.322   4.547  12.167  1.7798  1.3603 -0.6034
 3835SOL     OW21434   7.968   0.464   7.051 -0.2125  0.0790  0.1971
 3835SOL    HW121435   7.984   0.556   7.068 -0.5652  0.0690  0.6235
 3835SOL    HW221436   8.054   0.422   7.058 -0.2262  0.1908  1.2837
 3836SOL     OW21437   7.698   6.156   2.381  0.0492  0.1824  0.2313
 3836SOL    HW121438   7.711   6.250   2.366  1.4274  0.1186  0.8822
 3836SOL    HW221439   7.616   6.151   2.430 -0.6951  0.9319 -0.8602
 3837SOL     OW21440   3.152   1.143   2.819 -0.5364 -0.2566 -0.3949
 3837SOL    HW121441   3.153   1.238   2.813  0.9618 -0.2070  0.1083
 3837SOL    HW221442   3.233   1.116   2.776  0.6532 -1.0661  2.1664
 3838SOL     OW21443  10.453   8.369   8.715 -0.2972 -0.2654 -0.5891
 3838SOL    HW121444  10.415   8.454   8.737 -3.3828 -2.2685  2.9500
 3838SOL    HW221445  10.541   8.371   8.752 -0.9806  0.8153  1.0956
 3839SOL     OW21446   4.784   4.581   8.863 -0.0250  0.0772  0.8554
 3839SOL    HW121447   4.873   4.615   8.852 -0.6624  1.6534  0.2685
 3839SOL    HW221448   4.788   4.492   8.828  1.4294 -0.0775  1.3371
 3840SOL     OW21449   7.379   9.776   0.240  0.1325 -0.8399  0.1509
 3840SOL    HW121450   7.411   9.858   0.280  0.1092 -1.3616  1.2641
 3840SOL    HW221451   7.426   9.771   0.156 -0.0256  0.4144 -0.0387
 3841SOL     OW21452  12.780   1.412  10.236 -0.0526 -0.1519 -0.2128
 3841SOL    HW121453  12.802   1.463  10.159  0.7473  2.3699  1.5352
 3841SOL    HW221454  12.707   1.459  10.276 -1.0242 -1.8902  0.1467
 3842SOL     OW21455   3.041   8.424   3.324 -0.1299 -0.1135  0.3032
 3842SOL    HW121456   3.131   8.405   3.353  0.0861  0.1502 -0.1715
 3842SOL    HW221457   3.015   8.499   3.378  0.0221 -0.0416  0.2791
 3843SOL     OW21458  13.094   7.431   8.149  0.4722 -0.2113 -0.0771
 3843SOL    HW121459  13.043   7.351   8.137  1.5567 -0.5642 -3.1181
 3843SOL    HW221460  13.149   7.437   8.071  2.1111  2.3150  1.1294
 3844SOL     OW21461  10.944  11.422  11.618  0.4115 -0.1821  0.0719
 3844SOL    HW121462  10.981  11.451  11.535  0.0060 -0.0771 -0.0730
 3844SOL    HW221463  10.896  11.342  11.596 -1.4562  0.9547 -0.2094
 3845SOL     OW21464  11.053   7.232   5.698 -0.2451 -0.8741 -0.1411
 3845SOL    HW121465  11.060   7.307   5.639 -1.4771 -0.2000  0.5156
 3845SOL    HW221466  11.125   7.175   5.674  0.4340  0.3055 -0.9847
 3846SOL     OW21467   6.269   8.665   3.436 -0.1173  0.0913  0.1226
 3846SOL    HW121468   6.196   8.718   3.404  0.0458 -0.8136 -1.8915
 3846SOL    HW221469   6.335   8.729   3.463 -0.3819  0.9507 -1.1555
 3847SOL     OW21470   3.527   6.117   9.906 -0.3516  0.2950  0.1092
 3847SOL    HW121471   3.466   6.154   9.970 -0.2930 -1.9835  1.5894
 3847SOL    HW221472   3.588   6.066   9.958  1.2956  0.4428 -1.5761
 3848SOL     OW21473  11.858  11.964   1.319 -0.3553 -0.0532  0.2444
 3848SOL    HW121474  11.834  12.056   1.329  1.8180  0.6025 -0.1394
 3848SOL    HW221475  11.810  11.934   1.242 -2.7856  0.0832  1.6130
 3849SOL     OW21476   2.898  11.139   7.137  0.1623  0.1667  0.1709
 3849SOL    HW121477   2.855  11.162   7.054  1.2515  1.1040 -0.1720
 3849SOL    HW221478   2.831  11.093   7.187 -0.3003 -1.1450 -1.5433
 3850SOL     OW21479   2.616   0.672   2.667  0.0315 -0.0412 -0.1209
 3850SOL    HW121480   2.630   0.717   2.750 -1.9658 -0.5366  0.5593
 3850SOL    HW221481   2.628   0.579   2.688 -2.9182 -0.4328  0.3490
 3851SOL     OW21482   8.963  10.708   7.326  0.3141 -0.7568  0.7435
 3851SOL    HW121483   8.931  10.620   7.344  0.7900 -1.2114 -0.5364
 3851SOL    HW221484   9.058  10.703   7.342  0.6197 -0.9597 -0.9478
 3852SOL     OW21485   8.366   6.927   1.595 -0.2528  0.0091  0.2351
 3852SOL    HW121486   8.444   6.964   1.637 -0.8961  0.9954  0.5965
 3852SOL    HW221487   8.328   6.869   1.661 -0.6226  0.6671  0.6168
 3853SOL     OW21488   6.929   0.219   7.817 -0.5507 -0.2752  0.1177
 3853SOL    HW121489   6.954   0.127   7.831 -1.0077 -0.9417 -2.7916
 3853SOL    HW221490   6.833   0.218   7.822 -0.5196  0.2631  1.0216
 3854SOL     OW21491  12.675  11.093   9.894 -0.3195 -0.6168  0.0227
 3854SOL    HW121492  12.720  11.101   9.979 -0.1410  2.8761 -0.2527
 3854SOL    HW221493  12.590  11.135   9.908 -0.6627 -0.8343 -1.2975
 3855SOL     OW21494   5.168   9.369   2.026  0.0512  0.2263  0.0223
 3855SOL    HW121495   5.205   9.426   1.958 -0.7633  1.1751  0.3509
 3855SOL    HW221496   5.206   9.401   2.108 -1.8708  1.5934  0.4306
 3856SOL     OW21497   2.885   3.311   3.292 -0.0452  0.0299  0.0337
 3856SOL    HW121498   2.963   3.257   3.279  1.5101  1.8043  1.3928
 3856SOL    HW221499   2.869   3.308   3.386  1.0595  3.0521  0.4328
 3857SOL     OW21500   3.423   4.174   4.744 -0.0099  0.0978  0.2302
 3857SOL    HW121501   3.465   4.256   4.718 -0.3916  0.3122  0.2727
 3857SOL    HW221502   3.339   4.174   4.698  1.6028 -2.2133 -3.0802
 3858SOL     OW21503   5.414   5.874  10.692 -0.5050  0.3652 -0.1888
 3858SOL    HW121504   5.344   5.903  10.750 -0.0791  1.1472 -0.0409
 3858SOL    HW221505   5.472   5.950  10.685  0.0684 -0.1051 -0.6973
 3859SOL     OW21506   3.292   2.389   1.866  0.3973 -0.0503  0.3610
 3859SOL    HW121507   3.255   2.308   1.900  2.0582 -0.3836  1.4610
 3859SOL    HW221508   3.253   2.458   1.919  1.5026 -0.4199  1.7062
 3860SOL     OW21509  12.061   3.344  12.142  0.3640 -0.6401 -0.7140
 3860SOL    HW121510  12.014   3.426  12.127  3.1325  0.6623 -3.3062
 3860SOL    HW221511  12.107   3.358  12.225 -0.9171 -0.5135  0.0025
 3861SOL     OW21512   0.117  12.367   7.591  0.2754  1.1624  0.3639
 3861SOL    HW121513   0.097  12.330   7.504 -1.1961 -0.0272  1.1449
 3861SOL    HW221514   0.127  12.461   7.576 -0.7333  1.0834 -0.9895
 3862SOL     OW21515  12.384   2.877  11.701 -0.2475 -0.1936  0.1302
 3862SOL    HW121516  12.290   2.861  11.712 -0.1736 -0.7529 -0.0263
 3862SOL    HW221517  12.408   2.830  11.622 -0.2867  1.8651 -1.1799
 3863SOL     OW21518   6.113   0.683   9.863  0.0423  0.1195  0.4103
 3863SOL    HW121519   6.081   0.674   9.953 -1.6019 -0.7121 -0.2085
 3863SOL    HW221520   6.110   0.778   9.847  0.4540  0.2878  1.2543
 3864SOL     OW21521  10.307   9.698  11.117  0.1304 -0.3583  0.7502
 3864SOL    HW121522  10.294   9.788  11.148  1.3612  0.2813 -0.4793
 3864SOL    HW221523  10.398   9.695  11.089  0.6003 -2.4754  2.1871
 3865SOL     OW21524   2.329   1.916  10.425 -1.0199 -0.0101 -0.0315
 3865SOL    HW121525   2.333   2.011  10.424  0.2549 -0.0220  1.1469
 3865SOL    HW221526   2.381   1.890  10.500  0.5247 -1.7230 -1.5832
 3866SOL     OW21527  11.294  12.751   8.454  0.1151 -0.6816  0.0277
 3866SOL    HW121528  11.203  12.753   8.423  0.2728 -1.0834 -0.4748
 3866SOL    HW221529  11.288  12.716   8.543 -0.2563 -0.3898  0.1172
 3867SOL     OW21530   1.251   0.836   6.346 -0.3293 -0.0702 -0.5411
 3867SOL    HW121531   1.256   0.780   6.268 -0.6332  0.3254 -0.8518
 3867SOL    HW221532   1.197   0.787   6.408  1.4349 -1.2188  0.1488
 3868SOL     OW21533   4.223   3.959   2.846  0.1136 -0.5304 -0.4476
 3868SOL    HW121534   4.180   3.892   2.900  0.7927 -0.6033  0.0184
 3868SOL    HW221535   4.315   3.956   2.874  0.2348  0.2849 -0.7498
 3869SOL     OW21536   2.763   7.982   3.236  0.1171  0.5659 -0.3030
 3869SOL    HW121537   2.787   7.956   3.325  0.4040 -1.5375 -0.9406
 3869SOL    HW221538   2.776   8.076   3.234  1.8545  0.4202  1.3670
 3870SOL     OW21539   8.545   5.613  11.081  0.2710 -0.1217  0.5758
 3870SOL    HW121540   8.587   5.623  11.166  1.1391 -1.0660  0.2774
 3870SOL    HW221541   8.499   5.529  11.086  0.7705 -0.4458 -0.0472
 3871SOL     OW21542   5.523   1.617   7.958  0.4590  0.5375 -0.0827
 3871SOL    HW121543   5.536   1.540   8.013 -0.8790 -0.1285 -0.6506
 3871SOL    HW221544   5.545   1.691   8.014 -0.7476 -0.1239  1.3238
 3872SOL     OW21545   0.566   2.802   7.570  0.0720 -0.7364 -0.2580
 3872SOL    HW121546   0.647   2.848   7.591  0.5108 -1.2529 -0.7626
 3872SOL    HW221547   0.567   2.795   7.474  0.2419 -2.1569 -0.1768
 3873SOL     OW21548   8.221   9.506  11.566  0.4555 -0.1224  0.4406
 3873SOL    HW121549   8.282   9.468  11.629  0.2802  0.4402  0.9616
 3873SOL    HW221550   8.177   9.430  11.527  2.5731 -0.6283 -1.1092
 3874SOL     OW21551   9.595   8.232   4.879  0.2682 -0.0932  0.1236
 3874SOL    HW121552   9.504   8.212   4.857  0.3942 -1.0728  0.4482
 3874SOL    HW221553   9.635   8.257   4.796 -0.0472 -0.6579 -0.2025
 3875SOL     OW21554   2.628  11.380   1.067 -0.3935 -0.3892 -0.2447
 3875SOL    HW121555   2.722  11.384   1.051 -0.5071  1.9414 -0.5505
 3875SOL    HW221556   2.591  11.348   0.984  0.0409 -0.2817 -0.4823
 3876SOL     OW21557   7.615   7.138   4.497  0.1899 -0.0628  0.3283
 3876SOL    HW121558   7.553   7.069   4.519  0.5495 -0.1528  1.0947
 3876SOL    HW221559   7.690   7.122   4.554  1.2234 -0.3778 -1.0762
 3877SOL     OW21560  10.079   5.355   2.214  0.0253 -0.9266 -0.1339
 3877SOL    HW121561  10.049   5.431   2.264  2.9428 -0.7682  1.6117
 3877SOL    HW221562  10.127   5.392   2.140  4.1363 -0.6920  2.3202
 3878SOL     OW21563  12.980  10.648  12.737 -1.0547 -0.3411  0.7394
 3878SOL    HW121564  13.024  10.693  12.809  0.6422 -0.3775 -0.2304
 3878SOL    HW221565  12.979  10.556  12.763  0.6526 -0.5374  0.2318
 3879SOL     OW21566   5.417   9.663   7.485  0.0714  0.1435  0.1477
 3879SOL    HW121567   5.492   9.680   7.542 -0.2964  0.6244  0.4996
 3879SOL    HW221568   5.429   9.573   7.456  0.8890  0.2769  0.0360
 3880SOL     OW21569  12.084   2.869   6.843  0.4837  0.7369 -0.0046
 3880SOL    HW121570  12.085   2.943   6.904  2.3046 -0.0891  1.0540
 3880SOL    HW221571  12.084   2.909   6.756 -4.0996  2.0081  0.2869
 3881SOL     OW21572   3.284   5.453  13.150  0.5963 -0.3688 -0.3789
 3881SOL    HW121573   3.302   5.396  13.225 -0.5982  0.3678  0.4991
 3881SOL    HW221574   3.236   5.397  13.089  1.7343 -1.0265 -0.7080
 3882SOL     OW21575   7.789  12.207   6.199 -0.0100  0.0348  0.0461
 3882SOL    HW121576   7.817  12.149   6.270  1.6246 -0.5018 -0.9784
 3882SOL    HW221577   7.862  12.206   6.137 -0.1662  2.7089 -0.3171
 3883SOL     OW21578   3.063  11.774  11.656  0.2898  0.0624  0.0653
 3883SOL    HW121579   2.980  11.773  11.704 -1.4804  1.6624 -2.6703
 3883SOL    HW221580   3.130  11.779  11.724 -1.8991  0.1011  2.3756
 3884SOL     OW21581  11.001   1.912   2.268  0.2181  0.5453  0.5361
 3884SOL    HW121582  11.062   1.839   2.259  0.0381  0.3719  0.7420
 3884SOL    HW221583  10.920   1.873   2.300  0.2521  0.8882  1.0576
 3885SOL     OW21584  11.659   3.155   6.635 -0.2951 -0.0559  0.2698
 3885SOL    HW121585  11.621   3.190   6.554  1.5219 -0.7434 -0.9535
 3885SOL    HW221586  11.753   3.174   6.628  0.8091 -4.4448 -0.2720
 3886SOL     OW21587   1.668   8.117   4.577 -0.1427 -0.0497  0.5223
 3886SOL    HW121588   1.657   8.050   4.643  0.2050  0.0069  0.6371
 3886SOL    HW221589   1.715   8.187   4.621  1.9701 -0.8576 -0.3230
 3887SOL     OW21590  11.809   1.395  12.259  0.5548 -0.2681  0.4486
 3887SOL    HW121591  11.724   1.437  12.248  1.4372  1.7750  1.0166
 3887SOL    HW221592  11.829   1.358  12.173 -1.5463 -2.1647  0.6870
 3888SOL     OW21593  12.009  10.793   2.056  0.0994  0.1909  0.2652
 3888SOL    HW121594  11.948  10.805   1.983 -0.2110 -2.9718 -0.1505
 3888SOL    HW221595  11.965  10.730   2.114  1.3928  0.7495  1.9522
 3889SOL     OW21596   8.850   8.071  11.602 -0.1568  0.3194 -0.8243
 3889SOL    HW121597   8.877   8.162  11.612 -0.3477  0.3956 -0.9809
 3889SOL    HW221598   8.929   8.020  11.620 -0.1783  0.4946 -0.2322
 3890SOL     OW21599   6.834   0.630   7.560 -0.5251  0.6612  1.0264
 3890SOL    HW121600   6.861   0.700   7.500  0.8954  0.1161  0.9828
 3890SOL    HW221601   6.916   0.594   7.593 -1.1565 -1.4613  0.4910
 3891SOL     OW21602   1.442  11.716   5.154 -0.2942 -0.5365  0.0787
 3891SOL    HW121603   1.507  11.774   5.113  1.4185 -0.6991  2.3883
 3891SOL    HW221604   1.491  11.636   5.175 -0.8400 -0.2336  2.9316
 3892SOL     OW21605   5.134   0.979   3.418  0.0550 -0.4513  0.0044
 3892SOL    HW121606   5.190   0.909   3.385 -1.5967 -0.6080 -2.7856
 3892SOL    HW221607   5.083   1.006   3.342 -1.1261  2.1047  1.5928
 3893SOL     OW21608   2.903  12.974   4.638  0.5953  0.1987  0.4278
 3893SOL    HW121609   2.860  12.942   4.717  1.5828  0.4722  1.0922
 3893SOL    HW221610   2.866  12.921   4.568 -0.0573 -0.2734  1.1132
 3894SOL     OW21611  11.169   8.822   8.932  1.1441  0.0728 -0.2360
 3894SOL    HW121612  11.111   8.874   8.878  0.9794 -1.2879 -1.4184
 3894SOL    HW221613  11.112   8.786   9.000  0.6088 -1.0618 -1.2480
 3895SOL     OW21614  10.772   3.541   8.710  0.4182 -0.0891  0.1663
 3895SOL    HW121615  10.810   3.624   8.740 -2.3098  0.7717  1.5580
 3895SOL    HW221616  10.683   3.564   8.684  0.3735 -2.1969 -1.8541
 3896SOL     OW21617   0.997   7.520  11.957 -0.0196  0.4472 -0.2127
 3896SOL    HW121618   1.083   7.480  11.943 -0.4442 -0.5005 -0.2129
 3896SOL    HW221619   0.949   7.455  12.007 -0.7388  0.9748 -0.2109
 3897SOL     OW21620   4.567   0.625  11.649 -0.1141  0.2687 -0.1065
 3897SOL    HW121621   4.603   0.714  11.648  1.5782 -0.3712  0.1273
 3897SOL    HW221622   4.541   0.611  11.740 -0.0787  0.4240 -0.0715
 3898SOL     OW21623   8.362   5.148  12.247  0.2244  0.6444 -0.8509
 3898SOL    HW121624   8.415   5.113  12.318  0.4730  1.3738 -0.6673
 3898SOL    HW221625   8.271   5.133  12.274  0.3194  0.8783 -0.3939
 3899SOL     OW21626   2.920   5.836   0.596  0.1371 -0.3524 -0.1003
 3899SOL    HW121627   2.956   5.816   0.682 -1.3336  1.7687  1.1073
 3899SOL    HW221628   2.855   5.767   0.581 -1.4392  0.6479  1.7313
 3900SOL     OW21629  13.244   4.403   2.248 -0.1362  0.1505 -0.3127
 3900SOL    HW121630  13.210   4.490   2.225 -1.7824 -0.7227 -1.3284
 3900SOL    HW221631  13.217   4.391   2.339  2.5057  1.7660  0.8132
 3901SOL     OW21632   0.882   9.018   9.775  0.3273 -0.1203 -0.1312
 3901SOL    HW121633   0.931   8.995   9.854  0.4483  1.1941  0.2054
 3901SOL    HW221634   0.814   9.078   9.805  0.4063  0.4380 -1.0265
 3902SOL     OW21635   8.646   0.476   0.252 -0.0659 -0.6128 -0.8382
 3902SOL    HW121636   8.690   0.516   0.327  0.1813 -1.4892 -0.5115
 3902SOL    HW221637   8.641   0.547   0.187 -0.7855  0.3180  0.2021
 3903SOL     OW21638  13.292   3.058   1.032  0.3538  0.4864 -0.2115
 3903SOL    HW121639  13.211   3.105   1.055  0.5904  1.3893 -1.1662
 3903SOL    HW221640  13.360   3.102   1.083  0.3492  0.1941  0.0452
 3904SOL     OW21641   0.481   4.386   0.844  0.6103  0.0294 -0.2177
 3904SOL    HW121642   0.528   4.339   0.775  2.2374 -0.9412  1.4523
 3904SOL    HW221643   0.465   4.473   0.807  1.9319 -0.2874 -1.6233
 3905SOL     OW21644   4.506  11.412   8.152 -0.6870 -0.1066 -0.4243
 3905SOL    HW121645   4.444  11.339   8.154  0.9004 -1.5074  0.4496
 3905SOL    HW221646   4.592  11.371   8.161  0.3795  1.7848 -1.3588
 3906SOL     OW21647   9.818   1.712   0.458 -0.0138 -0.0730  0.2355
 3906SOL    HW121648   9.834   1.704   0.364  3.3415  1.2070  0.5490
 3906SOL    HW221649   9.790   1.803   0.470  0.1769 -0.0507  0.5208
 3907SOL     OW21650   0.663   0.114   3.155 -0.2885 -0.0127  0.6129
 3907SOL    HW121651   0.638   0.062   3.078  0.6714  0.1849  0.1570
 3907SOL    HW221652   0.632   0.202   3.136  0.4822  0.1677  0.1802
 3908SOL     OW21653  10.934   8.905  12.688  0.8431 -0.4388 -0.0521
 3908SOL    HW121654  10.989   8.983  12.684 -0.9003  0.8420 -0.5614
 3908SOL    HW221655  10.994   8.835  12.713  2.5838  0.9449 -0.0919
 3909SOL     OW21656   4.387   8.643   0.005  0.2566  0.1538  0.1296
 3909SOL    HW121657   4.336   8.565  -0.018 -0.3361  0.9337 -1.3481
 3909SOL    HW221658   4.327   8.695   0.060 -0.0052  0.3833 -0.3682
 3910SOL     OW21659   7.722   3.046   1.500 -0.4660 -0.1099 -0.1669
 3910SOL    HW121660   7.692   3.124   1.452  0.6698 -0.3291 -1.2896
 3910SOL    HW221661   7.744   3.079   1.587 -2.9748  0.2300  0.4110
 3911SOL     OW21662   7.264   6.406   7.379  0.2001  0.3107 -0.4552
 3911SOL    HW121663   7.217   6.393   7.297 -0.5149 -2.3802  0.3024
 3911SOL    HW221664   7.196   6.404   7.446  1.1259 -1.4240  0.4792
 3912SOL     OW21665   9.109  12.706  11.704 -0.2815  0.5261 -0.2179
 3912SOL    HW121666   9.102  12.796  11.673 -1.8679  0.5995  0.2548
 3912SOL    HW221667   9.048  12.701  11.778 -1.0588 -1.1968 -0.8954
 3913SOL     OW21668   3.353  10.247   6.850 -0.3257  0.1195  0.1051
 3913SOL    HW121669   3.419  10.179   6.863  0.3486  0.5831 -0.8066
 3913SOL    HW221670   3.274  10.213   6.893 -0.0533 -1.3036 -0.4865
 3914SOL     OW21671   7.480   8.969   1.974 -0.3501  0.5063 -0.7317
 3914SOL    HW121672   7.399   9.017   1.954 -0.6478 -0.1476 -1.1204
 3914SOL    HW221673   7.493   8.982   2.068 -1.3011  0.0082 -0.5216
 3915SOL     OW21674   2.886   5.661   1.839 -0.8656  0.7743 -0.6736
 3915SOL    HW121675   2.835   5.737   1.812 -1.4234  0.5842 -0.1793
 3915SOL    HW221676   2.829   5.586   1.822 -1.2555  0.6538  1.0587
 3916SOL     OW21677   8.735   9.745  13.275 -0.0571  0.5536  0.7673
 3916SOL    HW121678   8.664   9.685  13.254  0.6147  0.6428 -2.1887
 3916SOL    HW221679   8.815   9.693  13.264  0.4723  1.5272 -0.3259
 3917SOL     OW21680  12.553  10.270   6.549 -0.9215 -0.7324  0.0942
 3917SOL    HW121681  12.490  10.215   6.595 -1.3749  0.3068  0.7549
 3917SOL    HW221682  12.587  10.214   6.479 -0.1635 -2.3982  1.6971
 3918SOL     OW21683   3.504   6.315  10.449 -0.0029  0.0150 -0.4430
 3918SOL    HW121684   3.537   6.264  10.375  2.7307  1.8748 -0.6595
 3918SOL    HW221685   3.426   6.359  10.416  0.8874  0.4286 -2.0685
 3919SOL     OW21686   7.596   1.154   0.134 -0.6749  0.1146 -0.2287
 3919SOL    HW121687   7.576   1.097   0.059 -2.8330  0.1059  0.2980
 3919SOL    HW221688   7.630   1.094   0.201 -0.8590 -0.2190 -0.4296
 3920SOL     OW21689  12.380   5.916   1.531  0.5783  0.4292 -0.3887
 3920SOL    HW121690  12.329   5.862   1.592  0.5024  0.2160 -0.6392
 3920SOL    HW221691  12.449   5.857   1.499  0.3271  0.3955 -0.8732
 3921SOL     OW21692   4.966   7.334   7.805 -0.3615 -0.1963  0.2346
 3921SOL    HW121693   5.056   7.315   7.835 -1.1001 -1.1412  2.0170
 3921SOL    HW221694   4.941   7.412   7.854 -1.1396 -1.0162  1.1908
 3922SOL     OW21695  10.304  11.392   1.425 -0.2694  0.2218 -0.3944
 3922SOL    HW121696  10.217  11.428   1.407 -1.2835 -1.7528  0.2767
 3922SOL    HW221697  10.330  11.350   1.343  0.2655  1.1688 -0.7249
 3923SOL     OW21698  12.247   7.701  11.892 -0.5219  0.7046 -0.5209
 3923SOL    HW121699  12.337   7.685  11.921 -0.2253  0.2335 -1.6667
 3923SOL    HW221700  12.255   7.771  11.826 -0.9865  0.6059 -0.6841
 3924SOL     OW21701   9.040  12.952  11.379 -0.0148 -0.1138  0.3128
 3924SOL    HW121702   8.952  12.991  11.382 -0.4065 -0.8644 -0.8016
 3924SOL    HW221703   9.097  13.019  11.416 -0.7783  1.2029 -0.8131
 3925SOL     OW21704   1.068   3.117   9.918  0.2320 -0.3553 -0.4252
 3925SOL    HW121705   1.049   3.203   9.879 -1.4254 -0.0371  0.9706
 3925SOL    HW221706   1.126   3.136   9.991 -2.4102  0.0774  1.7348
 3926SOL     OW21707   8.664  11.180   1.555 -0.5667 -0.7904 -0.0953
 3926SOL    HW121708   8.702  11.257   1.512 -0.3316 -1.2291 -0.7022
 3926SOL    HW221709   8.629  11.213   1.637  1.7575 -0.4689  0.8475
 3927SOL     OW21710   4.918  11.428   6.744  0.0028  0.0860  0.1040
 3927SOL    HW121711   4.900  11.511   6.789  0.2578 -0.0281  0.4252
 3927SOL    HW221712   4.951  11.370   6.813  2.1856  0.4586 -0.5199
 3928SOL     OW21713   1.685   4.737   6.684 -0.1913  0.5949 -0.5206
 3928SOL    HW121714   1.623   4.671   6.717 -2.2774  2.4240 -0.5695
 3928SOL    HW221715   1.719   4.779   6.763  0.2410  0.2674 -0.5276
 3929SOL     OW21716   8.423   0.600   8.024  0.3768  0.0175  0.1737
 3929SOL    HW121717   8.366   0.616   7.949  1.3877  2.3108 -0.2069
 3929SOL    HW221718   8.364   0.601   8.100 -0.5765 -1.7564 -0.4944
 3930SOL     OW21719   6.044  11.706   4.188  0.0497 -0.8996  0.3050
 3930SOL    HW121720   6.092  11.626   4.212  1.8222  0.2548  0.8489
 3930SOL    HW221721   6.095  11.742   4.115  1.7064  1.7398  2.5587
 3931SOL     OW21722   4.927   7.070   9.125  0.5585 -0.5289 -0.1413
 3931SOL    HW121723   4.888   7.030   9.203 -3.2828  1.8476 -0.5931
 3931SOL    HW221724   4.957   7.156   9.154 -0.3224  0.1226 -1.0837
 3932SOL     OW21725   1.253   0.628   6.183 -0.1026 -0.3149 -0.7436
 3932SOL    HW121726   1.301   0.582   6.114 -0.1079  0.8114 -1.5312
 3932SOL    HW221727   1.179   0.571   6.203  1.7281 -2.3480  0.8546
 3933SOL     OW21728   4.959   0.855   3.216  0.9094  0.2637  0.0643
 3933SOL    HW121729   4.975   0.786   3.280  1.6726  0.0600 -0.3361
 3933SOL    HW221730   4.925   0.810   3.139  0.1843  0.4864  0.2444
 3934SOL     OW21731   4.814   7.711   4.118  0.2074 -0.2189 -0.3538
 3934SOL    HW121732   4.827   7.713   4.212  0.8959 -3.0028 -0.3111
 3934SOL    HW221733   4.722   7.688   4.107  0.1658 -0.0505 -0.3598
 3935SOL     OW21734   1.644   3.505   4.810  1.0762  0.2679  0.4965
 3935SOL    HW121735   1.717   3.492   4.871 -0.5298 -0.3710  2.3733
 3935SOL    HW221736   1.566   3.483   4.861 -0.4807  1.2911 -1.3310
 3936SOL     OW21737   8.703   7.943   6.528  0.2007  0.2364 -0.1364
 3936SOL    HW121738   8.721   8.028   6.569  1.6755  0.5867 -1.4326
 3936SOL    HW221739   8.608   7.932   6.539  0.1212  1.5848  0.9002
 3937SOL     OW21740  11.029   5.736   8.170  0.0554  0.3253 -0.0235
 3937SOL    HW121741  11.115   5.764   8.139  0.5631  1.0175  1.8522
 3937SOL    HW221742  11.037   5.642   8.182  0.4550  0.3382 -0.1761
 3938SOL     OW21743  13.118   6.990   2.320  0.1032 -0.0301  0.2564
 3938SOL    HW121744  13.077   7.034   2.394 -1.5751 -0.5582 -0.3117
 3938SOL    HW221745  13.047   6.979   2.256  1.0586 -1.2733 -0.6450
 3939SOL     OW21746   7.594   7.171   2.466  0.3024 -0.1100 -0.0750
 3939SOL    HW121747   7.603   7.078   2.489 -0.9322 -0.3328 -0.4231
 3939SOL    HW221748   7.554   7.170   2.379 -1.3187  0.7367  0.6267
 3940SOL     OW21749   8.930   4.923   2.815  0.1746  0.2721 -0.5010
 3940SOL    HW121750   9.001   4.868   2.847  0.1315 -0.8085 -2.1374
 3940SOL    HW221751   8.863   4.917   2.883 -0.4583 -2.9975 -1.2143
 3941SOL     OW21752   5.928  12.811   6.788  0.6561  0.2726  0.2291
 3941SOL    HW121753   5.917  12.849   6.875  2.2241  0.3344  0.4431
 3941SOL    HW221754   5.936  12.886   6.730 -2.6249  0.2862 -0.3977
 3942SOL     OW21755   0.464   1.866   7.944  0.0205 -0.6848  0.5215
 3942SOL    HW121756   0.541   1.909   7.981 -0.1575 -0.3717  0.5313
 3942SOL    HW221757   0.446   1.792   8.002  1.1450 -1.5981 -0.2419
 3943SOL     OW21758   4.087   2.458   7.139  0.0373 -0.1767 -0.8147
 3943SOL    HW121759   4.087   2.529   7.204 -1.9324 -0.0387 -0.9049
 3943SOL    HW221760   4.044   2.385   7.183 -0.9964 -0.1989 -1.8022
 3944SOL     OW21761   3.519   8.992   3.886  0.0017 -0.2399  0.0556
 3944SOL    HW121762   3.467   9.062   3.847 -0.3156 -0.4759  0.0454
 3944SOL    HW221763   3.559   8.947   3.811  0.4096  0.0891  0.0783
 3945SOL     OW21764   2.852   9.236   3.184  0.3045  0.0097 -0.3923
 3945SOL    HW121765   2.936   9.249   3.228  0.4207 -0.4816 -0.4604
 3945SOL    HW221766   2.787   9.270   3.246  0.6678  2.1474 -1.1340
 3946SOL     OW21767  13.039   1.164   4.838  0.0915 -0.3805 -0.1378
 3946SOL    HW121768  13.134   1.156   4.826  0.3369  3.1306 -1.8296
 3946SOL    HW221769  13.004   1.154   4.749 -1.2351 -1.9945  0.5186
 3947SOL     OW21770   8.064   5.628   0.850 -0.0050 -0.0204 -0.7207
 3947SOL    HW121771   8.122   5.689   0.895  1.5936 -0.4060 -2.1523
 3947SOL    HW221772   8.105   5.614   0.765 -1.2106 -1.8173 -1.0682
 3948SOL     OW21773   9.640   8.169   7.737  0.5146  0.2950  0.2249
 3948SOL    HW121774   9.676   8.257   7.746  1.0111 -0.0166  1.3999
 3948SOL    HW221775   9.657   8.127   7.821 -2.1845 -0.0414  0.6900
 3949SOL     OW21776  10.190  10.813  12.536  0.6066  0.1255  0.1000
 3949SOL    HW121777  10.216  10.875  12.468 -0.7804 -0.1875 -0.7800
 3949SOL    HW221778  10.253  10.825  12.606  0.1842  2.8056  0.1367
 3950SOL     OW21779   3.178   2.389   2.552  0.4547 -0.1046 -0.2268
 3950SOL    HW121780   3.220   2.424   2.630 -0.1793 -0.8906  0.4888
 3950SOL    HW221781   3.091   2.361   2.582  0.0990 -0.1710 -1.2702
 3951SOL     OW21782   1.596   5.496   1.191 -0.1448  0.4131  0.4550
 3951SOL    HW121783   1.589   5.588   1.215 -0.2032 -0.0739  2.4559
 3951SOL    HW221784   1.505   5.469   1.173 -0.2807  0.4297  1.1153
 3952SOL     OW21785   0.121  10.283   7.845  0.2960  0.1701  0.2388
 3952SOL    HW121786   0.106  10.230   7.766  2.2826 -0.6854  0.3853
 3952SOL    HW221787   0.123  10.373   7.813 -1.4099  0.0613 -0.2773
 3953SOL     OW21788   4.010   7.056   6.922  0.1607  0.1713  0.3307
 3953SOL    HW121789   3.937   7.000   6.946  1.1717 -1.1770  0.3905
 3953SOL    HW221790   3.997   7.137   6.972 -0.9740 -0.2613  0.7468
 3954SOL     OW21791  10.744   9.374  13.034 -0.3143 -0.0391  0.2573
 3954SOL    HW121792  10.721   9.466  13.030  1.3257  0.3889 -0.2645
 3954SOL    HW221793  10.737   9.350  13.126  1.2795  1.1987  0.7376
 3955SOL     OW21794  12.935   6.719  12.712  0.2879  0.6254  0.5389
 3955SOL    HW121795  13.017   6.764  12.729  0.3450  0.5240  0.5289
 3955SOL    HW221796  12.947   6.632  12.748 -1.0021  1.5787  3.6210
 3956SOL     OW21797   2.976   8.474  12.759 -0.2004  0.2217 -0.4532
 3956SOL    HW121798   2.980   8.409  12.689 -0.4357  0.1415 -0.3949
 3956SOL    HW221799   2.998   8.425  12.839 -1.1402  0.0334 -0.2978
 3957SOL     OW21800   2.368   3.081  10.287  0.3095 -0.3605 -0.3576
 3957SOL    HW121801   2.291   3.066  10.232 -0.4351 -0.4060  0.6550
 3957SOL    HW221802   2.337   3.140  10.356  0.5309 -2.1549  1.3748
 3958SOL     OW21803   7.390  11.426  12.557  0.0598  0.0310  0.1000
 3958SOL    HW121804   7.423  11.455  12.472  1.4362  0.6468  0.8196
 3958SOL    HW221805   7.372  11.333  12.544  2.6756 -0.5246 -0.2307
 3959SOL     OW21806   7.503   3.268   7.015  0.1038 -0.2757  0.0503
 3959SOL    HW121807   7.472   3.322   6.942 -3.8102 -0.4551  1.3148
 3959SOL    HW221808   7.525   3.184   6.974 -1.2952 -0.1379 -1.0726
 3960SOL     OW21809   1.053  13.080   1.344 -0.5255  0.4398  0.6511
 3960SOL    HW121810   1.002  13.148   1.299  0.0057  0.4762  0.0918
 3960SOL    HW221811   1.053  13.006   1.284  1.2277  0.9120  0.0061
 3961SOL     OW21812  13.173  11.151   2.479  0.5838 -0.5436  0.2826
 3961SOL    HW121813  13.190  11.117   2.567  0.5972 -1.7862 -0.1841
 3961SOL    HW221814  13.082  11.180   2.482  0.4012 -1.1278  0.5529
 3962SOL     OW21815   1.650   2.050   3.280  0.4251 -0.2725 -0.4679
 3962SOL    HW121816   1.651   1.988   3.207  2.5059 -0.5743 -0.2354
 3962SOL    HW221817   1.595   2.009   3.347  0.2601 -0.9797 -1.0263
 3963SOL     OW21818   8.787   3.284   8.166 -0.0870 -0.2033 -0.0367
 3963SOL    HW121819   8.694   3.278   8.185 -0.0381 -0.8217  0.0472
 3963SOL    HW221820   8.805   3.209   8.110  0.4723 -0.4514  0.4548
 3964SOL     OW21821   7.376   1.523   0.988 -0.4018  0.0561 -0.3399
 3964SOL    HW121822   7.352   1.534   1.080 -0.3455  0.2951 -0.3551
 3964SOL    HW221823   7.357   1.607   0.948 -1.9253 -0.5115 -0.8831
 3965SOL     OW21824   3.053  11.788  12.435  0.4719  0.4157 -0.2746
 3965SOL    HW121825   3.122  11.722  12.426  0.0145  0.0535 -1.4006
 3965SOL    HW221826   3.063  11.844  12.358 -1.2044 -0.3755 -1.1404
 3966SOL     OW21827  12.140  10.685   4.638  0.0372 -0.3652  0.0310
 3966SOL    HW121828  12.121  10.593   4.657 -1.5526 -0.3091 -1.0992
 3966SOL    HW221829  12.233  10.685   4.614 -0.4151 -2.1120 -2.1012
 3967SOL     OW21830   3.457   0.980   5.329 -0.0528  0.0617  0.6086
 3967SOL    HW121831   3.438   1.020   5.414  3.2691  1.7792  0.6807
 3967SOL    HW221832   3.411   1.036   5.265 -0.4613  0.2989  1.1044
 3968SOL     OW21833   2.410   6.752   9.263  0.2633  0.0881  0.2562
 3968SOL    HW121834   2.393   6.683   9.327  1.1066  1.7182  2.3557
 3968SOL    HW221835   2.504   6.768   9.269  0.1477  1.1493 -0.4411
 3969SOL     OW21836   6.448   6.181  10.233  0.3104 -0.2334  0.1978
 3969SOL    HW121837   6.517   6.154  10.173 -0.4675  1.9825 -1.8441
 3969SOL    HW221838   6.379   6.116  10.221  0.8549 -0.7825 -0.0014
 3970SOL     OW21839   8.212   9.199   5.941 -0.1993 -0.0541 -0.5635
 3970SOL    HW121840   8.235   9.117   5.897 -0.3402 -0.6227  0.3935
 3970SOL    HW221841   8.295   9.245   5.951 -0.3961  1.0997 -3.3161
 3971SOL     OW21842  13.059   6.602   2.992  0.0812  0.0213 -0.7065
 3971SOL    HW121843  12.989   6.553   2.948  1.1051 -1.0466 -1.1940
 3971SOL    HW221844  13.140   6.565   2.956  0.9108  0.5348  0.5957
 3972SOL     OW21845   0.665   1.506   0.709  0.4836 -0.0723 -0.1616
 3972SOL    HW121846   0.583   1.494   0.758  1.4593  1.1175  1.8891
 3972SOL    HW221847   0.724   1.440   0.746  0.7332 -0.3379 -1.0183
 3973SOL     OW21848  10.423   4.050   7.942 -0.2381 -0.7807 -0.3562
 3973SOL    HW121849  10.365   3.975   7.925 -0.0923 -1.2761  1.1780
 3973SOL    HW221850  10.511   4.012   7.945 -0.1033 -0.4461 -0.1115
 3974SOL     OW21851   8.143  11.669  11.795  0.1365 -0.5412  0.8421
 3974SOL    HW121852   8.230  11.709  11.802  0.1222 -0.5095  0.8395
 3974SOL    HW221853   8.126  11.635  11.882 -0.0381 -0.1552  0.9595
 3975SOL     OW21854   7.669  12.568  11.280 -0.0041  0.5249 -0.5090
 3975SOL    HW121855   7.620  12.491  11.253  0.0042 -0.2707  1.5567
 3975SOL    HW221856   7.689  12.553  11.373  2.5106  1.6889 -0.7745
 3976SOL     OW21857   4.338   5.056   6.173 -0.5301  0.8650 -0.1220
 3976SOL    HW121858   4.338   5.141   6.130 -0.4881  1.4325  0.9672
 3976SOL    HW221859   4.301   5.073   6.260 -0.0052 -0.1136  0.3130
 3977SOL     OW21860   5.227   2.881  12.741 -0.2137 -0.0982  0.4905
 3977SOL    HW121861   5.254   2.966  12.707 -1.9404 -0.4780 -2.1156
 3977SOL    HW221862   5.137   2.870  12.711 -0.4101 -2.4137  1.6572
 3978SOL     OW21863   4.163   0.681   1.365  0.3916  0.0202 -0.4293
 3978SOL    HW121864   4.084   0.714   1.321  0.8324  0.4223 -0.9494
 3978SOL    HW221865   4.231   0.690   1.298  1.0071  0.3044  0.2304
 3979SOL     OW21866   2.603   1.666   9.768  0.5473  0.5683  0.7247
 3979SOL    HW121867   2.619   1.749   9.723  0.9877 -0.0688 -0.3284
 3979SOL    HW221868   2.519   1.636   9.734  0.2297  0.7270  1.3478
 3980SOL     OW21869   6.833  11.998   5.045 -0.7156  0.0178 -0.1562
 3980SOL    HW121870   6.777  11.921   5.037 -0.4598 -0.4408  1.8545
 3980SOL    HW221871   6.911  11.977   4.993 -1.5190 -0.1692 -1.3229
 3981SOL     OW21872   2.037   5.861   3.431 -0.0283  0.3235 -0.2488
 3981SOL    HW121873   1.964   5.919   3.453  1.1021  2.0404 -0.8687
 3981SOL    HW221874   2.102   5.878   3.500  0.4098 -0.0418 -0.5704
 3982SOL     OW21875   2.314   0.369   1.798 -0.4498 -0.4220 -0.5728
 3982SOL    HW121876   2.283   0.389   1.710 -0.0701  0.6497 -0.4699
 3982SOL    HW221877   2.382   0.434   1.816 -2.1519  0.9295  1.4407
 3983SOL     OW21878   5.744   6.216   5.956 -0.2328 -1.0921  0.0971
 3983SOL    HW121879   5.685   6.291   5.952  1.0724  0.0059  0.5244
 3983SOL    HW221880   5.697   6.151   6.008 -1.5683 -0.7486 -0.6446
 3984SOL     OW21881   2.210  12.459   8.240  1.3869  0.0237 -0.0299
 3984SOL    HW121882   2.198  12.395   8.310  1.0054  0.6721  0.5226
 3984SOL    HW221883   2.223  12.542   8.287 -1.3977  0.9426 -0.6830
 3985SOL     OW21884   8.031   0.455  11.575 -0.6214  0.1874 -0.7044
 3985SOL    HW121885   7.984   0.462  11.658 -0.8501 -0.6668 -0.7605
 3985SOL    HW221886   8.010   0.536  11.529 -1.8193 -0.0585 -0.6196
 3986SOL     OW21887  10.216   7.820   2.760  0.0108 -0.3510  0.6167
 3986SOL    HW121888  10.262   7.904   2.748  0.9765 -0.9497 -0.0606
 3986SOL    HW221889  10.250   7.787   2.843  0.9317 -0.8465  0.0618
 3987SOL     OW21890   9.021   5.429  13.243  0.1916 -0.2147 -0.0755
 3987SOL    HW121891   9.018   5.524  13.239 -0.4209 -0.2298 -0.1466
 3987SOL    HW221892   9.113   5.408  13.260  0.0893  0.4531  1.5236
 3988SOL     OW21893  11.628  11.848  12.564 -0.5668  0.1961  0.3844
 3988SOL    HW121894  11.596  11.924  12.614 -1.9452 -0.1536  0.0766
 3988SOL    HW221895  11.682  11.886  12.495 -0.5294  0.8335  0.7536
 3989SOL     OW21896   6.204  11.387   4.838 -0.2287  0.2166 -0.5484
 3989SOL    HW121897   6.232  11.338   4.915 -1.3873  0.8280  0.2931
 3989SOL    HW221898   6.159  11.464   4.873 -0.1249  0.9016 -1.8406
 3990SOL     OW21899   5.851   8.265  11.873  0.0463  0.3188 -0.9172
 3990SOL    HW121900   5.793   8.229  11.941 -0.6835  1.1811 -1.0771
 3990SOL    HW221901   5.804   8.340  11.838  1.6051  1.5575 -0.4907
 3991SOL     OW21902  13.104  11.131  12.785 -0.2701 -0.5637  0.2503
 3991SOL    HW121903  13.035  11.070  12.758  0.8043 -1.4268 -0.5830
 3991SOL    HW221904  13.094  11.206  12.726 -0.8323 -0.4307  0.5014
 3992SOL     OW21905   7.819   4.307   9.109  0.1247  0.2191 -0.2429
 3992SOL    HW121906   7.901   4.345   9.139  0.1404  1.0268 -1.2216
 3992SOL    HW221907   7.843   4.260   9.029 -0.0209 -1.3166  0.5817
 3993SOL     OW21908   6.818   8.460  11.590 -0.6452 -0.1381  0.5791
 3993SOL    HW121909   6.749   8.511  11.631  0.1421 -0.0197  1.7867
 3993SOL    HW221910   6.843   8.395  11.656  0.0864 -0.4762 -0.0133
 3994SOL     OW21911   6.836  10.728   7.836  0.2245  0.2451  0.2489
 3994SOL    HW121912   6.746  10.737   7.868 -0.2914 -1.9454 -0.4109
 3994SOL    HW221913   6.878  10.668   7.898  1.0349  0.6849  0.1434
 3995SOL     OW21914   8.108  10.320   0.762  0.1590  0.0824 -0.1885
 3995SOL    HW121915   8.029  10.291   0.808 -0.5859  2.4599  0.1369
 3995SOL    HW221916   8.152  10.379   0.823  0.9764  0.6034 -1.2416
 3996SOL     OW21917  12.053   3.140   6.939 -0.1245 -0.2160 -0.2647
 3996SOL    HW121918  11.999   3.214   6.910  1.0966  0.0816 -1.9250
 3996SOL    HW221919  12.108   3.176   7.008 -0.2402  0.1628 -0.3664
 3997SOL     OW21920   4.172   4.402   7.495  0.1720 -0.3970 -0.2601
 3997SOL    HW121921   4.144   4.467   7.559 -0.6151  1.1214 -2.0258
 3997SOL    HW221922   4.195   4.325   7.546  2.5148  1.6826  2.0648
 3998SOL     OW21923   1.738   4.089  10.762  0.2373  0.7493 -0.6562
 3998SOL    HW121924   1.644   4.110  10.768  0.3868  1.9218 -1.9570
 3998SOL    HW221925   1.777   4.168  10.725  1.6368 -0.0244 -0.8679
 3999SOL     OW21926   1.016   4.438   2.186 -0.0217  0.3353 -0.4154
 3999SOL    HW121927   0.954   4.365   2.181  0.5941 -0.1702 -0.8723
 3999SOL    HW221928   1.081   4.410   2.251  0.3023  0.4030 -0.7049
 4000SOL     OW21929   3.913   8.469   4.624  0.0953 -0.5723 -0.2178
 4000SOL    HW121930   4.001   8.482   4.661  0.1206 -2.4795  0.4957
 4000SOL    HW221931   3.927   8.417   4.546 -0.3593 -0.3326 -0.4630
 4001SOL     OW21932   3.190   4.439   3.780 -0.2970  0.0209  0.5791
 4001SOL    HW121933   3.117   4.425   3.840 -0.9559  0.2303 -0.1443
 4001SOL    HW221934   3.148   4.461   3.696  0.5442 -1.4109 -0.2670
 4002SOL     OW21935  12.783  10.374   6.301 -0.0041  0.3078  0.7119
 4002SOL    HW121936  12.838  10.424   6.363 -0.4011 -1.7009  2.8018
 4002SOL    HW221937  12.698  10.419   6.303  0.7288  1.8930 -0.5855
 4003SOL     OW21938   2.698   4.826  10.358  0.3789 -0.4378 -0.6179
 4003SOL    HW121939   2.657   4.903  10.319 -0.5614 -0.3984  0.3896
 4003SOL    HW221940   2.626   4.765  10.372  1.3630 -2.3671 -3.2085
 4004SOL     OW21941   1.920   8.730   1.484  0.1837 -0.0514 -0.0838
 4004SOL    HW121942   1.830   8.713   1.511 -0.0687  0.7441 -0.4027
 4004SOL    HW221943   1.967   8.649   1.503 -1.0213 -1.2023 -1.7575
 4005SOL     OW21944   4.078   4.239   9.724  0.3584 -0.1130  0.3606
 4005SOL    HW121945   4.102   4.293   9.799  0.1433  1.1523 -0.4505
 4005SOL    HW221946   3.994   4.275   9.695  0.0023 -1.1629  0.0564
 4006SOL     OW21947   1.387   3.219   4.728 -0.9522 -0.0270 -0.2142
 4006SOL    HW121948   1.461   3.171   4.766 -1.2597 -0.6942 -0.4366
 4006SOL    HW221949   1.426   3.271   4.658 -0.6155  0.0208  0.0081
 4007SOL     OW21950   4.089   2.342   2.314 -0.0259 -0.2601  0.1179
 4007SOL    HW121951   4.137   2.304   2.388  0.0755 -0.4176 -0.0275
 4007SOL    HW221952   4.051   2.423   2.349  0.4779 -0.0545  0.1935
 4008SOL     OW21953   9.051  12.268   6.118 -0.1047 -0.1046 -0.2921
 4008SOL    HW121954   8.996  12.347   6.121 -1.0853 -0.7928  0.2153
 4008SOL    HW221955   8.996  12.199   6.156  0.8004 -1.0042 -0.5904
 4009SOL     OW21956   2.899  13.179  11.971  0.1612  0.6421 -0.1674
 4009SOL    HW121957   2.904  13.085  11.953 -2.4656  0.4275 -0.0784
 4009SOL    HW221958   2.939  13.189  12.058  0.5464 -0.3567 -0.2189
 4010SOL     OW21959   1.455  12.649   8.922 -0.1423 -0.2663 -0.0044
 4010SOL    HW121960   1.363  12.644   8.950 -0.1992  0.4997 -0.0451
 4010SOL    HW221961   1.471  12.564   8.880 -0.6446 -0.6458  0.5503
 4011SOL     OW21962   3.046   0.110  11.911 -0.1432  0.1810 -0.5628
 4011SOL    HW121963   2.969   0.057  11.933  0.1412  0.0473  0.1204
 4011SOL    HW221964   3.117   0.047  11.903  0.2690  0.4774  0.5839
 4012SOL     OW21965   0.686   9.017   2.551  0.1470  0.0622  0.0955
 4012SOL    HW121966   0.770   9.059   2.570 -0.3653  1.3336 -0.4056
 4012SOL    HW221967   0.685   8.940   2.608  2.3395 -0.8713 -1.0137
 4013SOL     OW21968  10.128   4.996   6.580 -0.5488  0.5139  0.2841
 4013SOL    HW121969  10.116   4.908   6.615 -0.9335  0.2630 -0.4628
 4013SOL    HW221970  10.069   5.051   6.632 -0.7388  0.2310  0.3678
 4014SOL     OW21971   1.758   8.871  11.028  0.5072 -0.2777 -0.0853
 4014SOL    HW121972   1.719   8.784  11.017 -0.9559  0.3446 -0.0520
 4014SOL    HW221973   1.714   8.926  10.963  0.9406  0.5886  0.3310
 4015SOL     OW21974  11.761   0.846   6.090 -0.2480 -0.3022  0.6470
 4015SOL    HW121975  11.666   0.854   6.095 -0.4140 -1.4007 -0.3259
 4015SOL    HW221976  11.777   0.752   6.093  0.8075 -0.1225  0.8466
 4016SOL     OW21977  12.831   8.320   3.169  0.0964  0.5507 -0.2182
 4016SOL    HW121978  12.753   8.316   3.113 -0.3291 -2.3517  0.4276
 4016SOL    HW221979  12.801   8.285   3.253  1.6388  1.3794  0.7243
 4017SOL     OW21980   3.958  13.128   5.986 -0.3943 -0.1753 -0.0284
 4017SOL    HW121981   3.977  13.166   6.072  0.1404  1.2037 -0.7226
 4017SOL    HW221982   3.901  13.191   5.943 -0.2853 -0.6162 -0.8526
 4018SOL     OW21983  11.123   7.390   2.066 -0.2690 -0.0130  0.2872
 4018SOL    HW121984  11.171   7.413   1.986  0.8888  0.5193  1.1052
 4018SOL    HW221985  11.064   7.319   2.039 -1.6003  1.6916 -1.5728
 4019SOL     OW21986   1.848   9.477  12.436 -0.3178  0.0562 -0.6093
 4019SOL    HW121987   1.825   9.569  12.450  0.2760  0.1285 -0.0533
 4019SOL    HW221988   1.871   9.445  12.524 -1.4032 -0.8738 -0.6411
 4020SOL     OW21989   6.889   8.761  13.019 -0.2109  0.0594  0.0457
 4020SOL    HW121990   6.816   8.815  12.990 -0.9967 -2.3484 -2.9927
 4020SOL    HW221991   6.848   8.692  13.071 -0.1384 -1.1031 -1.3827
 4021SOL     OW21992  12.652   8.328  10.256  0.2451 -0.5194  0.3219
 4021SOL    HW121993  12.664   8.240  10.291 -1.8551 -0.5430  1.0703
 4021SOL    HW221994  12.679   8.320  10.164 -0.7789 -2.1977  0.1161
 4022SOL     OW21995   4.881   4.706   7.549  0.3577  0.4911 -0.1426
 4022SOL    HW121996   4.804   4.691   7.603  0.5944 -1.4263 -0.2634
 4022SOL    HW221997   4.848   4.701   7.459  0.8080 -1.9596 -0.2363
 4023SOL     OW21998   3.552   6.552  10.753  0.0495 -0.2777  0.6068
 4023SOL    HW121999   3.595   6.632  10.781 -2.6330  0.9233  1.6505
 4023SOL    HW222000   3.530   6.567  10.661  0.2750 -0.1773  0.5693
 4024SOL     OW22001   4.873   5.543   6.147  0.1465 -0.0696 -0.5459
 4024SOL    HW122002   4.861   5.596   6.226  1.2026 -0.4324 -0.1158
 4024SOL    HW222003   4.870   5.605   6.075 -0.7081  0.2897 -0.2161
 4025SOL     OW22004   9.243   2.224   3.353 -0.2401  0.2592 -0.1416
 4025SOL    HW122005   9.316   2.247   3.410 -0.2695  1.3201 -0.5188
 4025SOL    HW222006   9.282   2.218   3.266 -0.1281 -1.6812  0.0005
 4026SOL     OW22007   2.364  11.984   5.335  0.4129 -0.2259 -0.4536
 4026SOL    HW122008   2.458  11.970   5.345  0.6998  1.3403 -0.5922
 4026SOL    HW222009   2.326  11.963   5.420  1.2073  1.2829  0.3036
 4027SOL     OW22010  11.421   4.068   1.124  0.2361  1.1543  0.3857
 4027SOL    HW122011  11.474   3.995   1.092 -1.2394  0.4422 -0.5973
 4027SOL    HW222012  11.382   4.036   1.205 -1.9945 -0.0331 -1.0327
 4028SOL     OW22013   3.104   8.012   2.739 -0.3165 -0.4572 -0.2564
 4028SOL    HW122014   3.025   7.959   2.744 -1.9299  1.8286 -0.0825
 4028SOL    HW222015   3.099   8.071   2.815  1.0385  0.4205 -0.7991
 4029SOL     OW22016  12.123  12.697   9.404 -0.3668  0.3785 -0.1362
 4029SOL    HW122017  12.194  12.755   9.430  1.0353 -1.1263 -0.4526
 4029SOL    HW222018  12.102  12.647   9.483  0.4801 -0.7103 -0.5695
 4030SOL     OW22019   7.600   1.127   0.742 -0.1743 -0.0207 -0.7211
 4030SOL    HW122020   7.533   1.071   0.703  0.3464  0.9556 -3.2252
 4030SOL    HW222021   7.617   1.089   0.828 -2.6507 -1.3221 -0.7248
 4031SOL     OW22022   8.457   7.575   3.977 -0.2274 -0.2967 -0.0856
 4031SOL    HW122023   8.518   7.572   3.904  0.0024  0.4912  0.0653
 4031SOL    HW222024   8.490   7.644   4.034 -1.2053  0.0806  0.0503
 4032SOL     OW22025  11.500   7.649  12.201  0.3424  0.1316 -0.0943
 4032SOL    HW122026  11.529   7.590  12.131 -0.0806  0.1021 -0.2478
 4032SOL    HW222027  11.525   7.736  12.169  1.5796 -0.0085  0.4391
 4033SOL     OW22028   4.850   2.124   5.239  0.0367 -0.2051 -0.2905
 4033SOL    HW122029   4.915   2.180   5.280 -0.4975  0.5811 -0.5008
 4033SOL    HW222030   4.812   2.074   5.311  0.2415 -0.0090 -0.0449
 4034SOL     OW22031   2.157  10.854  12.454 -0.3950  0.0882 -0.4761
 4034SOL    HW122032   2.061  10.856  12.458 -0.4975  1.2241 -2.4785
 4034SOL    HW222033   2.185  10.905  12.530 -1.4675  2.1251 -1.3671
 4035SOL     OW22034   8.027  12.172   1.396 -0.0316  0.0965 -0.1036
 4035SOL    HW122035   8.016  12.264   1.372  1.0148  0.1364 -0.5094
 4035SOL    HW222036   8.095  12.173   1.463  2.2064 -0.5652 -2.1913
 4036SOL     OW22037   8.904  11.453   0.871 -0.3525 -0.3455  0.1539
 4036SOL    HW122038   8.855  11.513   0.815  1.1902  0.1495 -0.7200
 4036SOL    HW222039   8.870  11.366   0.848  0.6630 -0.2190 -2.0564
 4037SOL     OW22040   5.543  11.302   7.776 -0.0590  0.1988  0.0991
 4037SOL    HW122041   5.577  11.356   7.704  0.8552  0.9365  1.0503
 4037SOL    HW222042   5.620  11.259   7.813 -0.8473 -2.5124 -1.1480
 4038SOL     OW22043   1.635   8.410   5.818  0.4122 -0.1735  0.1819
 4038SOL    HW122044   1.626   8.318   5.843 -1.5375  0.6726  3.0805
 4038SOL    HW222045   1.551   8.449   5.839  1.1816  2.3164 -0.9653
 4039SOL     OW22046   5.627  11.291   3.556  0.1272 -0.0009  0.1159
 4039SOL    HW122047   5.645  11.347   3.632  2.5246  0.4760 -0.7407
 4039SOL    HW222048   5.665  11.337   3.482 -0.0419 -1.5943 -1.0201
 4040SOL     OW22049   1.374  12.040   8.148  0.1464  0.4258 -0.0793
 4040SOL    HW122050   1.280  12.049   8.130  0.5812  0.3921 -2.7861
 4040SOL    HW222051   1.406  11.984   8.078  2.0709 -0.3552  1.3474
 4041SOL     OW22052   9.086   7.526   8.938 -0.0882 -0.1128  0.0835
 4041SOL    HW122053   9.026   7.523   8.864  1.8819 -0.1445 -1.6091
 4041SOL    HW222054   9.030   7.544   9.014 -1.9274  2.8185 -1.7502
 4042SOL     OW22055   5.940   0.697   2.326  0.1136  0.4075  0.1494
 4042SOL    HW122056   5.894   0.624   2.285  1.7503 -1.3322  1.1924
 4042SOL    HW222057   5.873   0.764   2.339 -1.5575 -1.0552 -0.5246
 4043SOL     OW22058   4.714   2.213   2.942 -0.0675  0.5715 -0.1512
 4043SOL    HW122059   4.688   2.141   2.885 -0.2994 -0.6684  1.4286
 4043SOL    HW222060   4.645   2.278   2.932 -1.3005 -0.6077  0.3868
 4044SOL     OW22061  12.723  11.964   0.843  0.6368 -0.1452  0.0924
 4044SOL    HW122062  12.815  11.991   0.835  0.2675  1.2819  0.3745
 4044SOL    HW222063  12.727  11.868   0.849  2.0256 -0.1799 -0.8810
 4045SOL     OW22064  11.438   8.726   5.870 -0.3452  0.8475  0.2042
 4045SOL    HW122065  11.358   8.771   5.897 -1.0282 -0.6919  0.9089
 4045SOL    HW222066  11.481   8.703   5.952 -1.6940 -2.5893  0.1349
 4046SOL     OW22067   7.240  10.733  10.671  0.6138 -0.4502 -0.1278
 4046SOL    HW122068   7.223  10.724  10.764 -0.9178 -0.7538 -0.4116
 4046SOL    HW222069   7.154  10.743  10.631  1.3207  1.0836 -1.3863
 4047SOL     OW22070  10.955   9.441   3.333 -0.5079  0.5443  0.1865
 4047SOL    HW122071  10.994   9.436   3.420 -0.2379 -0.3792  0.0195
 4047SOL    HW222072  10.860   9.445   3.350 -0.5262 -0.7420  0.5091
 4048SOL     OW22073   7.578   4.844   4.223  0.2492  0.3363  1.0294
 4048SOL    HW122074   7.673   4.845   4.220  0.2461  0.2309  0.9164
 4048SOL    HW222075   7.553   4.936   4.209  0.3664  0.5585  2.1384
 4049SOL     OW22076   4.909  12.480  11.342 -0.5159 -0.3533  0.5175
 4049SOL    HW122077   4.892  12.401  11.392 -0.7363 -0.2635  0.5879
 4049SOL    HW222078   4.922  12.449  11.252  1.4051 -0.6627  0.8797
 4050SOL     OW22079   2.733   4.869   2.275  0.1157 -0.0029  0.2463
 4050SOL    HW122080   2.794   4.900   2.208  0.3358  1.8317  1.2420
 4050SOL    HW222081   2.790   4.833   2.344 -0.0462 -0.4984  0.1249
 4051SOL     OW22082   4.063   1.905   1.245 -0.6351  0.7678 -0.0785
 4051SOL    HW122083   4.153   1.875   1.249  0.4196  3.6914  0.2419
 4051SOL    HW222084   4.028   1.866   1.164  0.6786 -0.8186  0.0654
 4052SOL     OW22085   9.969   1.587  11.920 -0.0382  0.0318  0.1457
 4052SOL    HW122086   9.998   1.671  11.956  1.1045 -0.8806  1.4334
 4052SOL    HW222087   9.937   1.538  11.996  1.4220 -1.5371 -0.2150
 4053SOL     OW22088   4.521   4.598   3.644 -0.4439  0.4007  0.0708
 4053SOL    HW122089   4.583   4.637   3.705  1.4356 -1.1061 -0.7868
 4053SOL    HW222090   4.508   4.509   3.677 -1.5489  0.4386 -0.2246
 4054SOL     OW22091   5.454  12.443  10.140 -0.5947 -0.3151  0.3181
 4054SOL    HW122092   5.541  12.433  10.179 -0.6991  0.5969  0.8055
 4054SOL    HW222093   5.412  12.359  10.153  0.6264 -1.1794 -0.9629
 4055SOL     OW22094   6.509   5.667  12.555 -0.0556 -0.2923 -0.0085
 4055SOL    HW122095   6.416   5.661  12.533 -0.6059  1.6998  1.4255
 4055SOL    HW222096   6.513   5.649  12.649  0.9726 -0.1679 -0.0156
 4056SOL     OW22097   5.498   2.565  12.887 -0.2926 -0.5507 -0.3980
 4056SOL    HW122098   5.517   2.574  12.794  1.0626 -0.1595 -0.0958
 4056SOL    HW222099   5.574   2.521  12.924 -0.6726 -0.4310  0.5823
 4057SOL     OW22100  13.177   9.466   0.283 -0.3783 -0.1564  0.2342
 4057SOL    HW122101  13.098   9.447   0.334 -0.3830  0.0851  0.3192
 4057SOL    HW222102  13.207   9.381   0.251 -0.6718 -0.2497  0.2049
 4058SOL     OW22103   8.932   0.675   3.695  0.2759 -0.5299  0.1979
 4058SOL    HW122104   8.933   0.629   3.612 -0.1638 -0.0739 -0.0597
 4058SOL    HW222105   8.866   0.743   3.685  1.6124  0.8291  0.2111
 4059SOL     OW22106   3.903   6.722   6.387  0.0378  0.6826  0.2018
 4059SOL    HW122107   3.978   6.764   6.431  0.8071 -1.8909  1.5750
 4059SOL    HW222108   3.852   6.684   6.459 -0.8027 -0.3953 -0.9346
 4060SOL     OW22109   8.878   2.443   1.751  0.2471  0.1955 -0.4854
 4060SOL    HW122110   8.931   2.434   1.830 -0.1177  0.2245 -0.2380
 4060SOL    HW222111   8.913   2.376   1.692  0.5593  0.2156 -0.3252
 4061SOL     OW22112   4.881   5.234   8.623 -0.4245 -0.5049 -0.1828
 4061SOL    HW122113   4.924   5.297   8.565 -1.8884  1.7923  1.0604
 4061SOL    HW222114   4.930   5.241   8.705  0.0988 -1.8850 -0.3560
 4062SOL     OW22115   8.804  13.216   1.099 -0.7279  0.2147  0.0990
 4062SOL    HW122116   8.738  13.146   1.103 -0.6095  0.1177  0.3470
 4062SOL    HW222117   8.820  13.228   1.005  0.5560 -1.3133  0.0750
 4063SOL     OW22118   8.429   0.317   4.366  0.0368 -0.1874 -0.2027
 4063SOL    HW122119   8.391   0.266   4.294  0.2660  1.1736 -1.3287
 4063SOL    HW222120   8.354   0.358   4.409 -0.0053 -0.0296 -0.4272
 4064SOL     OW22121   0.434   3.551   7.669  0.5385  0.4545 -0.9267
 4064SOL    HW122122   0.516   3.502   7.666  0.6943  0.6635 -0.2246
 4064SOL    HW222123   0.414   3.559   7.762 -0.6952 -0.2785 -1.1051
 4065SOL     OW22124   2.983   1.892  12.349  0.3054 -0.1769 -0.1956
 4065SOL    HW122125   2.909   1.886  12.289  0.2654 -0.4329 -0.1223
 4065SOL    HW222126   3.049   1.834  12.310  0.7393  0.6160 -0.6493
 4066SOL     OW22127   6.940   9.831   3.459 -0.3361 -1.0980  0.0752
 4066SOL    HW122128   6.907   9.852   3.546  0.1221 -0.7257  0.1616
 4066SOL    HW222129   6.881   9.762   3.427 -1.2775 -0.3723  0.1764
 4067SOL     OW22130   5.287   7.212   7.198  0.3860 -0.3897  0.7480
 4067SOL    HW122131   5.359   7.274   7.212  0.3602 -0.5790  1.8486
 4067SOL    HW222132   5.282   7.201   7.103 -0.5923  2.4285  0.3865
 4068SOL     OW22133   6.053   2.217   2.852 -0.4754  0.2518  0.4037
 4068SOL    HW122134   6.051   2.213   2.757  0.9533 -2.8022  0.4093
 4068SOL    HW222135   5.964   2.244   2.876 -1.6515 -1.3555 -1.7532
 4069SOL     OW22136   9.339   9.753   5.399 -0.2298  0.1728 -0.0974
 4069SOL    HW122137   9.304   9.736   5.312  0.1637  0.2284 -0.2693
 4069SOL    HW222138   9.296   9.690   5.456 -1.3286  0.8633 -0.1296
 4070SOL     OW22139  10.661  11.375   5.998 -0.1747  0.9211  0.2708
 4070SOL    HW122140  10.652  11.327   5.915  0.9396 -1.1261  1.2605
 4070SOL    HW222141  10.578  11.421   6.008 -1.6675 -1.4412 -0.4129
 4071SOL     OW22142   4.158   8.917   6.491  0.2819  0.6909 -0.0724
 4071SOL    HW122143   4.244   8.892   6.525 -0.3492 -1.7885 -0.1629
 4071SOL    HW222144   4.110   8.835   6.482 -2.0042  1.9628 -0.3643
 4072SOL     OW22145   1.443   4.156   9.055 -0.5954 -0.6104  0.3004
 4072SOL    HW122146   1.512   4.107   9.010 -0.6920 -1.8316  1.3988
 4072SOL    HW222147   1.464   4.248   9.039  0.2754 -0.9856 -0.8471
 4073SOL     OW22148   4.774   3.891  13.267 -0.0938 -0.1467  0.5735
 4073SOL    HW122149   4.678   3.889  13.267 -0.2097  1.3670  2.9127
 4073SOL    HW222150   4.796   3.981  13.246  0.9942 -1.0424 -2.6173
 4074SOL     OW22151   3.163  13.192  12.485 -0.1927  0.7382  0.6432
 4074SOL    HW122152   3.177  13.098  12.480 -0.9161  0.6239  0.6414
 4074SOL    HW222153   3.238  13.231  12.440 -0.4556  0.1334 -0.3284
 4075SOL     OW22154  10.277   8.517   0.282 -0.3020  0.4810  0.2041
 4075SOL    HW122155  10.275   8.449   0.215  2.2045  0.5960 -0.0958
 4075SOL    HW222156  10.232   8.591   0.242 -0.1136  0.0702 -0.8091
 4076SOL     OW22157   0.867   2.248   7.530  0.0059 -0.4285  0.3972
 4076SOL    HW122158   0.794   2.186   7.522 -0.5016 -0.1977  2.6774
 4076SOL    HW222159   0.834   2.328   7.490 -0.0875 -0.9884 -0.7077
 4077SOL     OW22160   1.234  11.051   7.734 -0.0291  0.0017  0.0877
 4077SOL    HW122161   1.260  10.959   7.732 -2.6750 -0.8264 -0.3257
 4077SOL    HW222162   1.235  11.074   7.827 -0.5664 -0.8527  0.3170
 4078SOL     OW22163   9.575   9.264  11.241 -0.0657  0.0358 -0.0702
 4078SOL    HW122164   9.549   9.350  11.208 -2.3523 -0.6957 -0.3865
 4078SOL    HW222165   9.611   9.219  11.164  1.4763  0.8110  0.1823
 4079SOL     OW22166  10.757   7.032   4.936 -0.9507 -0.0111 -0.2964
 4079SOL    HW122167  10.741   7.062   5.025 -1.1310  1.0534 -0.6699
 4079SOL    HW222168  10.730   6.940   4.936 -1.3537  0.0989  0.6255
 4080SOL     OW22169   5.290   8.072   0.170 -0.2891  0.3603 -0.1828
 4080SOL    HW122170   5.350   8.030   0.109 -0.3344  0.2862 -0.1757
 4080SOL    HW222171   5.344   8.139   0.214  0.0026 -0.2552  0.4175
 4081SOL     OW22172   9.133  11.605   5.334  0.0398  0.0100 -0.2538
 4081SOL    HW122173   9.209  11.635   5.284  0.0438 -0.3377 -0.4609
 4081SOL    HW222174   9.061  11.661   5.305  0.3022  0.6020  0.2313
 4082SOL     OW22175   2.223   3.690  12.656 -0.4183  0.1232  0.1068
 4082SOL    HW122176   2.307   3.648  12.675 -0.4832  0.6912  1.7579
 4082SOL    HW222177   2.189   3.640  12.581 -0.6781 -3.1413  2.1815
 4083SOL     OW22178   4.569   8.809   7.607  0.3297  0.2888 -0.3240
 4083SOL    HW122179   4.588   8.886   7.660 -0.7447 -0.3312  1.0194
 4083SOL    HW222180   4.473   8.804   7.605  0.3735 -1.2217 -0.0522
 4084SOL     OW22181   9.764   6.605  11.483 -0.1689 -0.2484  0.2778
 4084SOL    HW122182   9.786   6.575  11.395 -0.3307 -1.0095  0.4924
 4084SOL    HW222183   9.846   6.594  11.533  0.0332  0.5436  0.1367
 4085SOL     OW22184   5.642   2.157   2.027  0.2085 -0.3073  0.3382
 4085SOL    HW122185   5.554   2.175   2.060  0.4134  0.3235  0.5573
 4085SOL    HW222186   5.700   2.186   2.098  0.5565 -2.6457  1.0888
 4086SOL     OW22187   8.621   3.078   5.714  0.2476  0.4944 -0.3911
 4086SOL    HW122188   8.646   3.166   5.688 -1.0338  0.3024 -2.5210
 4086SOL    HW222189   8.588   3.088   5.804  2.0715  1.7499  0.2021
 4087SOL     OW22190   5.575   1.486   9.472 -0.6385  0.0228 -0.3455
 4087SOL    HW122191   5.603   1.565   9.518 -0.4654 -0.0479 -0.3278
 4087SOL    HW222192   5.590   1.415   9.534 -0.8546 -0.0168 -0.3371
 4088SOL     OW22193   0.276   6.767   5.623  0.4305 -0.1064 -0.7826
 4088SOL    HW122194   0.349   6.706   5.624 -0.6933 -1.4817 -0.3223
 4088SOL    HW222195   0.316   6.851   5.600  2.1623 -0.7944 -0.4511
 4089SOL     OW22196   0.881   7.333   3.812 -0.1919  0.4982 -0.0755
 4089SOL    HW122197   0.806   7.391   3.826 -1.3745 -1.0372  0.2585
 4089SOL    HW222198   0.913   7.315   3.900 -0.6528 -0.3491 -0.0664
 4090SOL     OW22199   4.764   7.323   1.641  0.3287 -0.0351  0.0238
 4090SOL    HW122200   4.770   7.372   1.559  1.4788 -0.6690 -0.3013
 4090SOL    HW222201   4.775   7.231   1.614  1.8062 -0.1773  0.9658
 4091SOL     OW22202  10.968  11.302   7.747  0.3929  0.2750  0.3570
 4091SOL    HW122203  10.940  11.386   7.783  0.7590 -0.3780  2.3158
 4091SOL    HW222204  10.952  11.239   7.817 -1.2317 -1.5874 -1.5510
 4092SOL     OW22205   2.047   5.047   6.561 -0.3817  0.0715  0.0207
 4092SOL    HW122206   1.968   5.015   6.516 -0.5182 -1.0076  0.9707
 4092SOL    HW222207   2.112   4.979   6.545  1.0548  1.8931 -2.4786
 4093SOL     OW22208   6.183   3.654  12.681  0.0295  0.1812 -0.2057
 4093SOL    HW122209   6.190   3.737  12.634  0.6895  1.0506  1.3654
 4093SOL    HW222210   6.151   3.592  12.615 -0.6172  1.6990 -1.3739
 4094SOL     OW22211  11.081   0.153   8.615  0.2211  0.1330 -0.4921
 4094SOL    HW122212  11.102   0.246   8.604  1.7924 -0.1336  0.0349
 4094SOL    HW222213  11.141   0.108   8.555 -0.7512 -0.5346 -0.9805
 4095SOL     OW22214   4.235   6.914   6.888  0.4260  0.1363  0.2338
 4095SOL    HW122215   4.288   6.968   6.830 -0.3550  0.1115 -0.5161
 4095SOL    HW222216   4.149   6.955   6.887 -0.0710 -0.9040 -0.0410
 4096SOL     OW22217  10.957   0.970  10.651 -0.0419  0.0582 -0.1461
 4096SOL    HW122218  10.998   1.015  10.724  2.0083 -3.0195  0.8183
 4096SOL    HW222219  11.010   0.994  10.575  0.7251 -0.3046  0.2650
 4097SOL     OW22220   5.768   8.215  10.601 -0.5809 -0.2726 -0.0645
 4097SOL    HW122221   5.770   8.293  10.657  0.8446 -0.3689  0.0550
 4097SOL    HW222222   5.708   8.155  10.646  2.0971 -1.2063  2.6348
 4098SOL     OW22223  11.004   4.712  12.188  0.5753  0.5494  0.0936
 4098SOL    HW122224  11.094   4.680  12.176  0.1322  0.1664 -3.2392
 4098SOL    HW222225  11.013   4.807  12.188  1.1809  0.5404  2.5190
 4099SOL     OW22226  11.653   8.564   9.411 -0.4553  0.5152 -0.6945
 4099SOL    HW122227  11.559   8.549   9.409 -0.4159  0.3072 -2.7017
 4099SOL    HW222228  11.690   8.481   9.440 -0.8203  0.1443 -1.2769
 4100SOL     OW22229   4.939  12.268   8.055 -0.1492  0.2070  0.2140
 4100SOL    HW122230   4.940  12.306   7.967  0.7567 -0.0682  0.0914
 4100SOL    HW222231   4.856  12.221   8.060 -1.3876  2.3189  0.4379
 4101SOL     OW22232   5.270   8.153  11.225 -0.6184  0.4720  0.6184
 4101SOL    HW122233   5.301   8.240  11.202 -0.5768  0.5754  1.0679
 4101SOL    HW222234   5.310   8.095  11.160  1.1095  0.5037  1.6064
 4102SOL     OW22235   3.386  12.805  11.959 -0.3777 -0.2980  0.0145
 4102SOL    HW122236   3.436  12.857  12.022 -0.6615  0.2977 -0.2458
 4102SOL    HW222237   3.450  12.743  11.923 -0.3166 -0.9448  1.2007
 4103SOL     OW22238   5.390   1.474   0.044  0.0454  0.2311  0.0224
 4103SOL    HW122239   5.407   1.535   0.115  1.2529  0.8010 -0.7100
 4103SOL    HW222240   5.355   1.396   0.087  2.6122 -0.2176  1.5297
 4104SOL     OW22241   8.201   3.571  11.850 -0.2599 -0.4009  0.0041
 4104SOL    HW122242   8.276   3.611  11.806  0.2297 -1.9845 -0.6761
 4104SOL    HW222243   8.168   3.507  11.788 -2.2620  0.3165  0.2665
 4105SOL     OW22244   0.495   7.685   6.433 -0.1495 -0.0174 -0.5189
 4105SOL    HW122245   0.588   7.701   6.450  0.2170 -0.8143 -1.6685
 4105SOL    HW222246   0.465   7.636   6.509  0.5075 -0.2186 -0.3835
 4106SOL     OW22247  12.801   1.631   0.795 -0.0217 -0.0641 -0.2034
 4106SOL    HW122248  12.886   1.639   0.837 -0.4339  0.7257  0.5115
 4106SOL    HW222249  12.782   1.719   0.762 -1.1553  0.1286  0.8630
 4107SOL     OW22250  11.756   6.307   3.438 -0.0548 -0.3402 -0.1049
 4107SOL    HW122251  11.834   6.334   3.487 -0.4259  0.4864  0.0537
 4107SOL    HW222252  11.686   6.308   3.503 -0.4159  0.0572 -0.5005
 4108SOL     OW22253  12.828  11.445   7.333 -0.3037 -0.0999  0.6891
 4108SOL    HW122254  12.740  11.443   7.295  0.0295  1.2514 -0.2032
 4108SOL    HW222255  12.821  11.507   7.406 -0.8141 -2.2942  2.6486
 4109SOL     OW22256   7.916  10.830   8.431  0.1993  0.0726 -0.7140
 4109SOL    HW122257   8.001  10.857   8.396  0.0064  2.0016  0.1640
 4109SOL    HW222258   7.853  10.862   8.366  0.0158  1.0814 -0.0620
 4110SOL     OW22259   7.166  11.153   3.640 -0.1348 -0.6718  0.6024
 4110SOL    HW122260   7.258  11.151   3.614 -0.4374  0.3051 -0.6035
 4110SOL    HW222261   7.153  11.240   3.678 -0.4866 -0.9240  1.0795
 4111SOL     OW22262  10.478   8.083   2.473  0.3289 -0.2544 -0.0252
 4111SOL    HW122263  10.566   8.121   2.479  0.4062 -0.4666  0.2328
 4111SOL    HW222264  10.453   8.068   2.564 -0.4805  0.9360 -0.0332
 4112SOL     OW22265   8.877   5.406  11.054 -0.3824  0.0621 -0.0392
 4112SOL    HW122266   8.829   5.484  11.084 -0.9827  0.2377 -1.3442
 4112SOL    HW222267   8.883   5.418  10.959  2.0201 -0.1143  0.0410
 4113SOL     OW22268   2.975   3.946   3.220  0.3342 -0.8336  0.7151
 4113SOL    HW122269   2.910   3.924   3.286 -0.6020 -1.0378 -0.2556
 4113SOL    HW222270   3.055   3.903   3.250 -0.1334 -1.1208  1.5847
 4114SOL     OW22271  12.340  10.028  10.702 -0.1626 -0.0266 -0.1739
 4114SOL    HW122272  12.391   9.958  10.744  0.0538  0.7671  0.9159
 4114SOL    HW222273  12.391  10.050  10.624  0.8974  0.3799  0.6080
 4115SOL     OW22274   7.733  13.294  12.230 -0.0103  0.5131  0.5887
 4115SOL    HW122275   7.754  13.253  12.147 -2.1180  2.7991 -1.2389
 4115SOL    HW222276   7.815  13.336  12.257  0.6279  0.0260 -0.5173
 4116SOL     OW22277  12.646  10.742  13.188  0.0387 -0.2814 -0.0527
 4116SOL    HW122278  12.568  10.743  13.132  0.1419 -0.9931 -0.2155
 4116SOL    HW222279  12.614  10.715  13.274  0.2059 -1.3055 -0.2954
 4117SOL     OW22280  10.816   4.815   7.364  0.4298  0.2088  0.1821
 4117SOL    HW122281  10.860   4.772   7.437  0.1428 -0.9684 -0.3182
 4117SOL    HW222282  10.857   4.777   7.286 -0.5553  0.0596 -0.2765
 4118SOL     OW22283   2.783   7.876   9.768  0.0925 -0.1159 -1.4451
 4118SOL    HW122284   2.836   7.805   9.805  1.0100  0.8075 -0.9309
 4118SOL    HW222285   2.828   7.956   9.795 -1.1637  0.6825 -1.6390
 4119SOL     OW22286   3.382   1.914   8.731 -0.0969 -0.0461  0.2966
 4119SOL    HW122287   3.318   1.936   8.663 -1.0869  0.2207  1.2906
 4119SOL    HW222288   3.421   1.998   8.755  0.3729 -0.1620 -0.0524
 4120SOL     OW22289   7.606   2.402   7.436 -0.2682  0.3447 -0.5196
 4120SOL    HW122290   7.538   2.349   7.396  0.6293  1.1530 -3.3173
 4120SOL    HW222291   7.577   2.492   7.424 -0.6592  0.6585  2.0975
 4121SOL     OW22292   7.713   3.109   0.376  0.5599 -0.1926  0.2108
 4121SOL    HW122293   7.714   3.013   0.386  1.3027 -0.1719  0.3940
 4121SOL    HW222294   7.690   3.123   0.285 -0.0534 -0.5368  0.3083
 4122SOL     OW22295   6.145   8.061   2.517 -0.5516 -0.1187 -0.0085
 4122SOL    HW122296   6.191   8.120   2.458  0.0594  0.1302  0.6884
 4122SOL    HW222297   6.213   8.002   2.550 -1.4651 -2.6230 -2.2709
 4123SOL     OW22298   6.819   7.446   8.207 -0.4100 -0.1763 -0.6692
 4123SOL    HW122299   6.868   7.364   8.208 -0.7138 -0.3575  0.1441
 4123SOL    HW222300   6.837   7.487   8.292  1.4803  1.6777 -1.8468
 4124SOL     OW22301   3.206   5.920  10.191  0.5559 -0.2454  0.2230
 4124SOL    HW122302   3.234   5.836  10.156  0.3664  0.2364 -1.1414
 4124SOL    HW222303   3.258   5.932  10.270  0.1763 -1.8887  0.7598
 4125SOL     OW22304   9.345   4.693   1.458  0.1411 -0.4688  0.3806
 4125SOL    HW122305   9.323   4.615   1.508 -2.7234  0.2079  0.4036
 4125SOL    HW222306   9.386   4.661   1.378  0.0255 -1.9187  0.8828
 4126SOL     OW22307   4.867   4.589   1.254  0.3002 -0.5522 -0.0729
 4126SOL    HW122308   4.781   4.549   1.244 -0.3429  0.9941 -1.1039
 4126SOL    HW222309   4.851   4.669   1.305  0.9124  0.3386 -1.2331
 4127SOL     OW22310   2.428   9.620   5.706  0.2785 -0.4682 -0.7974
 4127SOL    HW122311   2.344   9.574   5.702 -0.6933  0.7658  2.1723
 4127SOL    HW222312   2.404   9.713   5.707  1.5965 -0.0961  0.3905
 4128SOL     OW22313   6.644  12.337  12.182 -0.3108  0.4248  0.5330
 4128SOL    HW122314   6.642  12.253  12.135  1.3079  0.1670  0.8763
 4128SOL    HW222315   6.634  12.312  12.274 -0.9957  0.7190  0.5419
 4129SOL     OW22316   6.539   7.560   6.729 -0.4772  0.2167  0.1765
 4129SOL    HW122317   6.579   7.560   6.816  0.3298 -0.7437 -0.1891
 4129SOL    HW222318   6.458   7.509   6.740  0.3563 -1.1789  0.0561
 4130SOL     OW22319  10.220   1.442  12.914 -0.2920  0.2494  0.5762
 4130SOL    HW122320  10.286   1.386  12.872 -0.9366  0.3378 -0.5861
 4130SOL    HW222321  10.139   1.391  12.910 -1.0745  1.5478 -1.2289
 4131SOL     OW22322   2.426   1.632   8.993  0.3365 -0.0984 -0.7504
 4131SOL    HW122323   2.413   1.538   8.988 -0.0787  0.0182 -3.2952
 4131SOL    HW222324   2.451   1.649   9.084  0.7891 -2.6869 -0.3374
 4132SOL     OW22325  12.400   0.482  10.590  0.4026 -0.6354 -0.3537
 4132SOL    HW122326  12.386   0.426  10.513  2.3297 -1.4719 -0.1388
 4132SOL    HW222327  12.466   0.546  10.562 -0.9660  0.9113 -0.2471
 4133SOL     OW22328   4.977   7.476   8.458  0.4643 -0.1213  0.4285
 4133SOL    HW122329   5.057   7.517   8.426 -0.1659  0.1032 -0.9221
 4133SOL    HW222330   4.983   7.385   8.430  1.4060 -0.7740  2.5721
 4134SOL     OW22331  10.196   4.085   8.835  0.3309  0.2814  0.0082
 4134SOL    HW122332  10.120   4.068   8.778  0.0191  1.6330 -0.0116
 4134SOL    HW222333  10.270   4.094   8.775  0.4806 -0.7859  0.0103
 4135SOL     OW22334   1.788   2.408   5.028  0.9021 -0.0864  0.4273
 4135SOL    HW122335   1.759   2.447   5.110  0.2526 -0.5848  0.4400
 4135SOL    HW222336   1.779   2.314   5.041  1.5192 -0.2079  0.0471
 4136SOL     OW22337   5.331   5.004  10.900  0.5170  0.1505 -0.0355
 4136SOL    HW122338   5.363   5.027  10.987 -0.2543 -1.1554  0.6275
 4136SOL    HW222339   5.336   5.085  10.850  1.3342  0.8287  1.1123
 4137SOL     OW22340   5.522   6.592   3.891  0.0450  0.0550 -0.1114
 4137SOL    HW122341   5.491   6.506   3.918 -1.6919  0.8796  0.7354
 4137SOL    HW222342   5.463   6.653   3.935  1.0043  1.6726 -0.9678
 4138SOL     OW22343   6.801   2.446  10.825 -0.2780  0.9549 -0.1120
 4138SOL    HW122344   6.779   2.502  10.900 -0.3977  0.0851  0.5301
 4138SOL    HW222345   6.752   2.365  10.841  0.3892  0.4253 -0.6797
 4139SOL     OW22346   4.202   6.419   6.363 -0.2776  0.2983 -0.1360
 4139SOL    HW122347   4.297   6.419   6.365 -0.2572 -1.2556  1.1769
 4139SOL    HW222348   4.176   6.498   6.410  0.3834  0.0480  0.6598
 4140SOL     OW22349   7.020  10.053   5.932 -0.1421 -0.2698 -0.4338
 4140SOL    HW122350   7.025  10.024   6.024 -0.8101  1.3685  0.1496
 4140SOL    HW222351   7.037   9.974   5.882 -0.6635 -1.4121  1.0972
 4141SOL     OW22352   9.724  10.403   2.943  0.5800 -0.0901 -0.1241
 4141SOL    HW122353   9.636  10.365   2.938  0.7403 -0.4663 -0.0544
 4141SOL    HW222354   9.719  10.463   3.018 -0.2265  1.4747 -1.3567
 4142SOL     OW22355   7.192  10.395   8.572  0.1348 -0.2338 -0.0973
 4142SOL    HW122356   7.240  10.313   8.583  1.8969  0.6229 -0.9430
 4142SOL    HW222357   7.252  10.452   8.523 -0.6625  1.8885  1.2375
 4143SOL     OW22358   3.496   6.846   5.745 -0.5840  0.0908  0.4275
 4143SOL    HW122359   3.414   6.857   5.793  0.4970  0.5352  2.2608
 4143SOL    HW222360   3.513   6.752   5.746 -1.0529 -0.0010  0.0463
 4144SOL     OW22361   5.328  12.644  11.630 -0.0877 -0.2416 -0.0179
 4144SOL    HW122362   5.368  12.572  11.582 -0.7882 -0.6665  0.0319
 4144SOL    HW222363   5.269  12.686  11.568  0.1325  0.1435  0.0261
 4145SOL     OW22364   9.025   5.335  11.414 -0.0578  0.2959  0.3749
 4145SOL    HW122365   9.050   5.311  11.325 -0.8839 -0.4892  0.3541
 4145SOL    HW222366   8.975   5.416  11.404 -0.4094  0.0444  0.0983
 4146SOL     OW22367   8.555   1.496   3.888  0.0560  0.0116 -0.3195
 4146SOL    HW122368   8.582   1.478   3.798 -0.0482 -0.7845 -0.1989
 4146SOL    HW222369   8.614   1.445   3.942  0.2385  0.6317  0.0831
 4147SOL     OW22370  10.368   9.168   7.593  0.3394  0.0035  0.1151
 4147SOL    HW122371  10.349   9.081   7.557  0.9892 -0.1159  0.0538
 4147SOL    HW222372  10.350   9.159   7.687  0.6893 -0.2766  0.1544
 4148SOL     OW22373   9.858   8.686   3.996  0.3224 -0.3202 -0.2456
 4148SOL    HW122374   9.774   8.639   3.994 -0.0428  0.2748  0.6203
 4148SOL    HW222375   9.834   8.778   3.985  0.9394 -0.2231 -0.8070
 4149SOL     OW22376   6.261   4.816   8.181  0.0221  0.0122  0.1613
 4149SOL    HW122377   6.336   4.876   8.177  0.0439 -0.0444 -0.5031
 4149SOL    HW222378   6.190   4.868   8.218  0.0689  0.4265 -0.3114
 4150SOL     OW22379   1.545   5.973   4.324  0.3697  0.1146 -0.0572
 4150SOL    HW122380   1.464   6.014   4.352  0.3424 -0.1808  0.2861
 4150SOL    HW222381   1.591   5.951   4.405  0.8605  0.4178 -0.2497
 4151SOL     OW22382   5.620   2.326  10.555  0.5759  0.2529 -1.0363
 4151SOL    HW122383   5.645   2.279  10.635 -0.5247  1.4913  0.0682
 4151SOL    HW222384   5.534   2.291  10.533  0.1097  1.1565 -0.6706
 4152SOL     OW22385  11.195   2.547  11.122 -0.0584  0.7315  1.2554
 4152SOL    HW122386  11.277   2.593  11.103  0.2079  0.6828  2.2486
 4152SOL    HW222387  11.132   2.617  11.138 -0.0233  0.7660  1.2413
 4153SOL     OW22388   0.703  12.746   8.606 -0.2528  0.0457  0.7830
 4153SOL    HW122389   0.752  12.777   8.530  1.7305  0.2878  2.0673
 4153SOL    HW222390   0.611  12.750   8.580  0.3764 -0.0408 -1.6218
 4154SOL     OW22391   8.926   3.970  10.927  0.1472  0.1456  0.1262
 4154SOL    HW122392   8.936   4.037  10.995  3.8785 -0.1634  0.0855
 4154SOL    HW222393   8.918   3.888  10.975 -0.6791  0.2219  0.1439
 4155SOL     OW22394  13.013   2.383   8.146  0.2822 -0.1315  0.0542
 4155SOL    HW122395  12.991   2.297   8.183  0.6936 -0.3913 -0.2852
 4155SOL    HW222396  12.933   2.411   8.102 -0.7619  0.9364  2.4803
 4156SOL     OW22397   8.480   4.525   3.307  0.2515 -0.2575  0.4517
 4156SOL    HW122398   8.424   4.457   3.345  1.0726 -0.2098  1.8282
 4156SOL    HW222399   8.565   4.512   3.349  1.4190 -0.5606 -1.8610
 4157SOL     OW22400   1.795  10.398  12.995 -0.4633  0.2220  0.6065
 4157SOL    HW122401   1.714  10.443  12.972  0.4433  0.7989 -1.6866
 4157SOL    HW222402   1.842  10.460  13.052 -0.3419  1.1732 -0.4941
 4158SOL     OW22403   1.774   7.510   9.673  0.1590  0.5170  0.2602
 4158SOL    HW122404   1.867   7.487   9.680  0.1514 -0.5691 -2.2910
 4158SOL    HW222405   1.731   7.450   9.734  0.8444 -1.5593 -1.1625
 4159SOL     OW22406   7.206   0.367   8.990  0.1764 -0.4624  0.3102
 4159SOL    HW122407   7.269   0.305   8.953  0.5352 -0.2500  0.5588
 4159SOL    HW222408   7.124   0.319   8.993  0.3974 -0.8460  0.2741
 4160SOL     OW22409   7.514   1.642   4.313 -0.0580 -0.1037  0.4150
 4160SOL    HW122410   7.588   1.679   4.264  0.9990  1.0667  2.7078
 4160SOL    HW222411   7.537   1.551   4.327  0.0154 -0.2370 -0.5225
 4161SOL     OW22412   0.893   9.953   7.803 -0.5454  0.1903 -0.3420
 4161SOL    HW122413   0.847   9.874   7.832 -1.1837 -0.4127 -2.7949
 4161SOL    HW222414   0.839   9.987   7.732  1.9081  0.3953 -2.2189
 4162SOL     OW22415   4.547   3.070  10.306 -0.1524 -0.4185  0.4391
 4162SOL    HW122416   4.515   3.117  10.229  0.3882  1.1959  1.1491
 4162SOL    HW222417   4.638   3.050  10.286  1.3069  3.5995  2.0918
 4163SOL     OW22418   3.970   1.735   6.023  0.4530  0.5959 -0.0047
 4163SOL    HW122419   3.937   1.760   6.109 -0.5239 -0.7465  0.0307
 4163SOL    HW222420   4.055   1.696   6.040  0.0930 -0.0195  0.4041
 4164SOL     OW22421  13.030   5.263   8.817  0.3257  0.1917 -0.0706
 4164SOL    HW122422  12.968   5.262   8.743  0.1902  0.3348  0.0398
 4164SOL    HW222423  13.012   5.182   8.864 -0.3527  0.6228  0.4336
 4165SOL     OW22424   9.526  13.227   7.709 -0.3783 -0.3471  0.3392
 4165SOL    HW122425   9.550  13.148   7.757 -0.7405 -0.2864  0.6233
 4165SOL    HW222426   9.609  13.257   7.670 -0.1085 -0.4786  0.8002
 4166SOL     OW22427   1.709   0.602   1.571  0.4538 -0.4386 -0.1493
 4166SOL    HW122428   1.623   0.571   1.598  0.1777 -0.3690 -0.9338
 4166SOL    HW222429   1.721   0.684   1.619 -0.8899  0.7285 -1.7050
 4167SOL     OW22430   4.408   7.118  12.470 -0.8181  0.0047  0.5817
 4167SOL    HW122431   4.395   7.065  12.548 -0.2785  0.2330  0.8297
 4167SOL    HW222432   4.503   7.118  12.457 -0.9687 -1.0282 -0.7651
 4168SOL     OW22433   4.671   0.717   1.259 -0.3821  0.3681  0.2264
 4168SOL    HW122434   4.629   0.660   1.323 -1.3646 -0.6717 -1.2730
 4168SOL    HW222435   4.749   0.667   1.231  0.2326  0.9681  0.8407
 4169SOL     OW22436   3.094   5.659   0.267 -0.5662 -0.0416 -0.3022
 4169SOL    HW122437   3.118   5.608   0.344 -1.8816  0.0661  0.2132
 4169SOL    HW222438   3.085   5.594   0.197 -0.4643 -0.2872 -0.0885
 4170SOL     OW22439   5.241   5.105   0.936  0.5379 -0.0312  0.4286
 4170SOL    HW122440   5.225   5.086   0.843  0.1036  0.7239  0.3466
 4170SOL    HW222441   5.315   5.165   0.936 -0.5127  1.3045  0.4605
 4171SOL     OW22442   5.202   2.191   0.190  0.0177  0.1378  0.5650
 4171SOL    HW122443   5.111   2.162   0.202 -0.6817  1.2347 -1.5268
 4171SOL    HW222444   5.205   2.277   0.231 -0.1330  0.4518 -0.0728
 4172SOL     OW22445   9.573   1.622  11.685  0.3725 -0.4579 -0.2520
 4172SOL    HW122446   9.637   1.627  11.756  0.3760 -0.9602 -0.2131
 4172SOL    HW222447   9.494   1.587  11.727  0.1121  0.0339 -0.3267
 4173SOL     OW22448   3.275  12.285   4.990 -0.0637 -0.4712  0.0076
 4173SOL    HW122449   3.223  12.225   4.937  1.2705 -1.2518 -0.4725
 4173SOL    HW222450   3.363  12.247   4.990  0.1979  0.0218  2.0015
 4174SOL     OW22451   4.487   1.457   3.636  0.8165  0.1195  0.3409
 4174SOL    HW122452   4.526   1.456   3.549 -0.1505  1.1186 -0.1376
 4174SOL    HW222453   4.553   1.419   3.693  1.3955 -0.7202 -0.8548
 4175SOL     OW22454   4.574   5.103   4.720  0.6695  0.1782 -0.1910
 4175SOL    HW122455   4.557   5.031   4.781  1.8346  1.7707  2.1638
 4175SOL    HW222456   4.569   5.062   4.634  1.4728 -2.7849  1.0144
 4176SOL     OW22457  10.061  10.399   7.685  0.4856  0.2134 -0.2225
 4176SOL    HW122458  10.077  10.333   7.753  0.8817  0.0321 -0.4867
 4176SOL    HW222459   9.967  10.394   7.669  0.1731  1.0930  1.1590
 4177SOL     OW22460   2.964   3.594   2.960 -0.6673  0.4813 -0.9333
 4177SOL    HW122461   3.051   3.605   2.923  0.1824  2.2234  1.3658
 4177SOL    HW222462   2.919   3.677   2.943 -2.2492 -0.6289 -2.7299
 4178SOL     OW22463   5.758  10.983   9.098 -0.0956 -0.0592  0.0348
 4178SOL    HW122464   5.676  10.935   9.106  0.4366 -1.1169 -0.6374
 4178SOL    HW222465   5.767  11.029   9.181  0.0596 -2.2132  1.2707
 4179SOL     OW22466  10.765  11.426   6.854  0.1060  0.0134  0.2270
 4179SOL    HW122467  10.820  11.386   6.921 -1.1358 -0.9397  0.7263
 4179SOL    HW222468  10.687  11.370   6.851 -1.0578  1.5826 -0.1055
 4180SOL     OW22469   1.936   9.642   6.224 -0.9219  0.5371 -0.4896
 4180SOL    HW122470   1.846   9.616   6.209 -0.5568 -2.7379  1.8943
 4180SOL    HW222471   1.967   9.584   6.293  2.4957  2.7382  0.1022
 4181SOL     OW22472   8.605   0.180   8.636 -0.2290  0.3547  0.8554
 4181SOL    HW122473   8.584   0.094   8.601 -1.1518  0.3922  1.2896
 4181SOL    HW222474   8.677   0.165   8.698  1.3423  0.2721 -0.8987
 4182SOL     OW22475   0.447   7.629   5.119  0.1663 -0.3632  0.4377
 4182SOL    HW122476   0.371   7.605   5.171 -0.9579 -0.6714 -1.2406
 4182SOL    HW222477   0.414   7.634   5.029  1.6446  1.6344 -0.0945
 4183SOL     OW22478  10.881   5.238   7.759  0.0848 -0.4814  0.7791
 4183SOL    HW122479  10.957   5.280   7.719 -0.6170 -0.4408 -0.6044
 4183SOL    HW222480  10.838   5.194   7.686  0.3984 -3.0375  2.0448
 4184SOL     OW22481   7.428   1.136   8.369 -0.0727 -0.2802 -0.0432
 4184SOL    HW122482   7.448   1.052   8.412  0.4060 -0.4423 -0.5670
 4184SOL    HW222483   7.482   1.135   8.290  0.0801  0.6121  0.0445
 4185SOL     OW22484   5.286   8.289   9.797  0.1475  0.1739 -0.3163
 4185SOL    HW122485   5.369   8.330   9.774 -0.0199 -0.3493 -1.9789
 4185SOL    HW222486   5.271   8.224   9.728 -0.7942 -0.9638  0.9026
 4186SOL     OW22487   4.686  12.949  10.533  0.4354 -0.3002  0.0875
 4186SOL    HW122488   4.711  12.875  10.477  1.0598 -0.0845  0.0758
 4186SOL    HW222489   4.702  13.026  10.480  0.2236 -0.1306  0.2674
 4187SOL     OW22490  11.571   5.445  13.183  0.3364  0.7353 -0.1283
 4187SOL    HW122491  11.551   5.461  13.091 -0.5930  1.0380  0.1184
 4187SOL    HW222492  11.499   5.487  13.231 -1.3933 -2.7376  0.6091
 4188SOL     OW22493  10.117  10.394   1.682 -0.3433  0.5083 -0.5773
 4188SOL    HW122494  10.204  10.367   1.651  0.2303  1.9592 -0.2962
 4188SOL    HW222495  10.130  10.412   1.775 -1.5282 -1.5700  0.0600
 4189SOL     OW22496  12.309   7.522   4.777 -0.1595  0.4523 -0.4740
 4189SOL    HW122497  12.226   7.525   4.729 -0.4669 -1.8670 -0.2182
 4189SOL    HW222498  12.311   7.603   4.828 -2.4429  0.4121 -0.2171
 4190SOL     OW22499   3.033   5.509   0.048 -0.0926  0.4011  0.1481
 4190SOL    HW122500   3.063   5.547  -0.034  0.0793 -1.2562 -0.6092
 4190SOL    HW222501   2.941   5.485   0.031  0.1497 -0.5953  0.1649
 4191SOL     OW22502   9.844  10.478   9.534 -0.1659 -0.2293  0.3388
 4191SOL    HW122503   9.838  10.462   9.440  1.9440  2.0738 -0.2828
 4191SOL    HW222504   9.884  10.399   9.570 -0.2280 -0.8038 -0.8286
 4192SOL     OW22505   0.014   8.894   2.742  0.2305 -0.6234  0.6685
 4192SOL    HW122506   0.071   8.824   2.709  0.1990  0.1880 -1.2076
 4192SOL    HW222507  -0.069   8.850   2.761  0.4524 -1.2279  0.2674
 4193SOL     OW22508   0.713  10.502   5.133  0.2935  0.2872 -0.3855
 4193SOL    HW122509   0.741  10.534   5.219  1.7246  1.7590 -1.3659
 4193SOL    HW222510   0.640  10.443   5.153  2.3032 -1.6007  2.0757
 4194SOL     OW22511  10.179   6.519  10.578 -0.1223 -0.3780 -0.2575
 4194SOL    HW122512  10.182   6.607  10.540 -1.6083 -0.8091 -1.4565
 4194SOL    HW222513  10.269   6.501  10.604  0.5097  0.8901 -1.4516
 4195SOL     OW22514   9.550   2.622   3.841  0.4301  0.1586 -0.0107
 4195SOL    HW122515   9.547   2.657   3.931  1.8372  2.5309 -0.7892
 4195SOL    HW222516   9.536   2.699   3.786 -1.6604 -1.4323 -1.8858
 4196SOL     OW22517   0.940   6.131   0.756 -0.5525 -0.7734  0.4026
 4196SOL    HW122518   0.866   6.116   0.815 -1.0607 -2.0551 -0.5172
 4196SOL    HW222519   0.902   6.178   0.682 -0.3586 -1.0648  0.1188
 4197SOL     OW22520  10.487  10.243  12.884 -0.1656 -0.2015 -0.5884
 4197SOL    HW122521  10.524  10.286  12.961  1.2174 -0.7123 -0.9517
 4197SOL    HW222522  10.449  10.315  12.833  2.1021  0.6474 -1.1763
 4198SOL     OW22523   1.651  10.445  11.638 -0.0100 -0.2434  0.2333
 4198SOL    HW122524   1.618  10.356  11.628 -1.7954  0.2211  1.4397
 4198SOL    HW222525   1.693  10.465  11.555 -0.1350 -1.9782 -0.2865
 4199SOL     OW22526   2.256   8.345   9.777 -0.4257  0.0933  0.1492
 4199SOL    HW122527   2.303   8.298   9.708 -1.4248 -0.0778 -0.4306
 4199SOL    HW222528   2.223   8.424   9.734 -0.2573  0.4504  0.6727
 4200SOL     OW22529  11.395   8.592   4.939 -0.1591 -0.5451  0.3042
 4200SOL    HW122530  11.360   8.681   4.939  0.6251 -0.2238 -0.5192
 4200SOL    HW222531  11.477   8.598   4.988  0.0790 -0.7237 -0.0597
 4201SOL     OW22532  12.284   3.132   5.327 -0.0380  0.4130  0.6298
 4201SOL    HW122533  12.207   3.181   5.299  0.3208  1.1864  0.9746
 4201SOL    HW222534  12.320   3.183   5.399  0.4071 -0.3080  0.9290
 4202SOL     OW22535   4.551   5.078   3.136  0.5841 -0.0062  0.7102
 4202SOL    HW122536   4.628   5.074   3.192  1.2099  0.8539 -0.0474
 4202SOL    HW222537   4.526   5.170   3.136 -0.2452 -0.2277  0.6876
 4203SOL     OW22538   7.785  13.086   6.070  0.1149 -0.0344 -0.0746
 4203SOL    HW122539   7.754  13.146   6.138  2.2427 -0.1465  1.0607
 4203SOL    HW222540   7.799  13.141   5.993 -1.7456  0.1952 -0.2989
 4204SOL     OW22541  10.120   0.009   7.708  0.0816  0.3920 -0.2326
 4204SOL    HW122542  10.179  -0.063   7.689  0.2313 -0.2209  2.2368
 4204SOL    HW222543  10.169   0.088   7.684  0.9916 -0.2043 -0.3515
 4205SOL     OW22544   4.087   2.429  11.283 -0.0529  0.0499 -0.1387
 4205SOL    HW122545   4.040   2.509  11.259  0.9639  1.2223  1.5539
 4205SOL    HW222546   4.141   2.409  11.206  0.6111  1.7419 -0.1638
 4206SOL     OW22547   0.675   7.133   7.841 -0.0019  0.4730  0.0701
 4206SOL    HW122548   0.679   7.046   7.801 -1.9867  0.2938  0.1794
 4206SOL    HW222549   0.609   7.180   7.789  2.2199  2.5461 -1.0978
 4207SOL     OW22550   2.886  10.773   5.913  0.0846 -0.3229  0.0853
 4207SOL    HW122551   2.816  10.785   5.849 -0.4472 -1.6942  0.3959
 4207SOL    HW222552   2.929  10.691   5.887  2.6213  1.2382 -1.0618
 4208SOL     OW22553   5.173   5.850  10.864  0.7183 -0.9344  0.2042
 4208SOL    HW122554   5.153   5.758  10.881  2.1921 -1.3016  0.1424
 4208SOL    HW222555   5.132   5.869  10.780  0.0946 -1.4326  0.3914
 4209SOL     OW22556   3.054   5.073   1.628 -0.0641 -0.4742 -0.0153
 4209SOL    HW122557   3.073   4.979   1.630 -0.6568 -0.6597 -1.5037
 4209SOL    HW222558   3.136   5.114   1.600  0.8915 -0.2663  2.7856
 4210SOL     OW22559   3.698   0.750   8.290 -0.0117  0.2996 -0.5095
 4210SOL    HW122560   3.604   0.758   8.308 -0.2353 -0.7722 -1.1523
 4210SOL    HW222561   3.726   0.840   8.269 -0.7990  0.6898  0.0591
 4211SOL     OW22562   7.729   8.334   9.372  0.0165 -0.1119  0.1488
 4211SOL    HW122563   7.723   8.239   9.387 -1.6604  0.1451  1.3077
 4211SOL    HW222564   7.822   8.354   9.383  0.1303 -1.3523  1.6633
 4212SOL     OW22565   2.594   0.522   4.579  0.5116 -0.4057  0.6655
 4212SOL    HW122566   2.508   0.563   4.572  0.4418 -0.7791 -1.6333
 4212SOL    HW222567   2.655   0.596   4.582  0.1675 -0.1443  1.6889
 4213SOL     OW22568   9.403   0.240  11.880 -0.4811 -0.1517  1.1236
 4213SOL    HW122569   9.484   0.253  11.830 -0.0467 -0.5247  1.7164
 4213SOL    HW222570   9.424   0.170  11.942 -1.9142 -1.8168 -0.1522
 4214SOL     OW22571  13.245   1.993   5.045  0.3441 -0.4033  0.6356
 4214SOL    HW122572  13.304   2.069   5.045  0.7018 -0.6733  0.0879
 4214SOL    HW222573  13.214   1.987   4.954  0.2010 -0.8287  0.7103
 4215SOL     OW22574  12.055   2.224   2.899 -0.1571  0.1300  0.2352
 4215SOL    HW122575  12.081   2.313   2.878 -0.1182  0.3108  1.0195
 4215SOL    HW222576  12.129   2.187   2.947 -0.4998 -0.0498  0.6375
 4216SOL     OW22577   8.156  11.079   6.300 -0.2056  0.5615 -0.1470
 4216SOL    HW122578   8.134  10.986   6.306 -1.0407  0.5960 -1.9909
 4216SOL    HW222579   8.072  11.124   6.307  0.3866  1.4009  3.1210
 4217SOL     OW22580  11.927   5.586  11.613 -0.1893 -0.6677 -0.2461
 4217SOL    HW122581  11.879   5.667  11.627  1.6661  0.5465 -0.5805
 4217SOL    HW222582  11.882   5.521  11.668 -1.2090  0.7600  0.6639
 4218SOL     OW22583   7.173  11.514   0.801 -0.2029  0.3196  0.1139
 4218SOL    HW122584   7.231  11.476   0.867 -1.3501  1.3323  1.7879
 4218SOL    HW222585   7.159  11.444   0.738  3.1270  0.1519 -0.6328
 4219SOL     OW22586  12.563   0.225   0.258 -0.5725  0.2042 -0.3063
 4219SOL    HW122587  12.478   0.268   0.267  0.0034  2.0543 -2.7687
 4219SOL    HW222588  12.547   0.135   0.287 -2.2735  1.4733  3.3162
 4220SOL     OW22589  11.296   6.687  10.173  0.5567  0.1956  0.0780
 4220SOL    HW122590  11.245   6.661  10.096 -0.4719 -1.1334  1.1530
 4220SOL    HW222591  11.363   6.746  10.138  0.2137 -0.4678 -1.8532
 4221SOL     OW22592   3.122   8.013   6.223 -0.0401 -0.3048 -0.4422
 4221SOL    HW122593   3.102   8.107   6.228 -1.1684 -0.5644  3.3300
 4221SOL    HW222594   3.037   7.970   6.220  0.2533 -1.1807  1.6611
 4222SOL     OW22595   7.451  10.011   3.286  0.4022  0.1327  0.2874
 4222SOL    HW122596   7.449   9.980   3.377  2.4425 -1.7453 -0.2183
 4222SOL    HW222597   7.415  10.100   3.290  0.7119  0.2272  2.9897
 4223SOL     OW22598   9.819   0.378  13.230  0.0734 -0.6599  0.5354
 4223SOL    HW122599   9.909   0.377  13.264  0.7363 -0.6146 -1.1183
 4223SOL    HW222600   9.824   0.434  13.152 -1.9638  1.4643  1.8008
 4224SOL     OW22601   4.394  11.020  10.669 -0.2925  0.0246  0.4816
 4224SOL    HW122602   4.319  10.964  10.689 -0.5463 -0.4754 -1.5705
 4224SOL    HW222603   4.358  11.108  10.661 -0.5216 -0.0801  0.3501
 4225SOL     OW22604   7.310  11.805   2.611  0.0067 -0.5812 -0.3927
 4225SOL    HW122605   7.251  11.740   2.573 -1.1695  0.3312 -0.2172
 4225SOL    HW222606   7.273  11.889   2.584  1.2498  0.0273 -0.2642
 4226SOL     OW22607  11.456  11.391   7.621  0.4350 -0.0593  0.4665
 4226SOL    HW122608  11.403  11.315   7.642  0.6253 -0.3663 -0.1317
 4226SOL    HW222609  11.400  11.466   7.642 -1.1012 -0.3486 -2.0806
 4227SOL     OW22610   5.283   2.053   7.404 -0.5295 -0.1306 -0.4911
 4227SOL    HW122611   5.259   2.133   7.357 -2.1221  0.1091  0.6660
 4227SOL    HW222612   5.335   2.083   7.478 -2.7216  0.1209  1.0565
 4228SOL     OW22613   6.849   8.506   0.906 -0.1464  0.7704  0.2094
 4228SOL    HW122614   6.850   8.415   0.937 -1.5057  0.9169  0.7626
 4228SOL    HW222615   6.870   8.558   0.984 -0.4691  0.9859  0.1515
 4229SOL     OW22616   0.062   6.204   2.325 -0.3764 -0.5690  0.4901
 4229SOL    HW122617  -0.016   6.212   2.270  0.6288  1.5420 -0.7171
 4229SOL    HW222618   0.127   6.162   2.269 -0.3833 -1.6206  1.2453
 4230SOL     OW22619   9.943  11.541   5.106 -0.3269  0.2146  0.3427
 4230SOL    HW122620   9.918  11.479   5.174 -1.0840  0.7649  0.5794
 4230SOL    HW222621   9.986  11.488   5.039 -1.0313 -0.5718  0.5062
 4231SOL     OW22622   6.485   8.296   9.863 -0.2171  0.0267 -0.3611
 4231SOL    HW122623   6.404   8.279   9.815 -1.3436  0.2978  1.3212
 4231SOL    HW222624   6.485   8.229   9.932  1.2023 -0.2094 -0.5775
 4232SOL     OW22625   5.479   7.644   8.826  0.2263  0.5968 -0.2799
 4232SOL    HW122626   5.544   7.590   8.781 -0.3865 -1.0129  0.7176
 4232SOL    HW222627   5.526   7.679   8.902  0.0015 -0.3946  0.3251
 4233SOL     OW22628  12.763   4.209   2.525  0.0669  0.4815  0.1846
 4233SOL    HW122629  12.731   4.298   2.515  0.3751  0.5114 -0.5588
 4233SOL    HW222630  12.724   4.160   2.453 -0.6048 -0.1404  0.9393
 4234SOL     OW22631   7.826  13.235  11.965  0.2853  0.1545 -0.1801
 4234SOL    HW122632   7.734  13.237  11.936  0.0770 -0.2598  0.4307
 4234SOL    HW222633   7.860  13.153  11.930  0.6474  0.6598 -1.0441
 4235SOL     OW22634   9.251   1.538   3.920 -0.1913  0.3024  0.3974
 4235SOL    HW122635   9.232   1.589   3.842  0.8752  1.3614  0.8051
 4235SOL    HW222636   9.228   1.448   3.896 -0.0987  0.6422 -1.0467
 4236SOL     OW22637  10.561   8.063  10.642 -0.6782 -0.3032  0.5432
 4236SOL    HW122638  10.499   8.091  10.575 -0.1839 -0.8822 -0.1747
 4236SOL    HW222639  10.508   8.051  10.720 -1.2799  0.3090  0.2420
 4237SOL     OW22640   7.258   9.141   4.123  0.4593  0.1581  0.1445
 4237SOL    HW122641   7.281   9.072   4.185  1.0140 -0.5440 -0.8253
 4237SOL    HW222642   7.341   9.178   4.095  0.2715 -0.1371 -0.8494
 4238SOL     OW22643   4.377   2.171   3.552 -0.0527 -0.0378 -0.0247
 4238SOL    HW122644   4.343   2.137   3.469 -3.6717  0.3938  1.0935
 4238SOL    HW222645   4.377   2.266   3.541 -0.3722  0.0129  0.3779
 4239SOL     OW22646  12.492   1.972   8.563  0.0544  0.1034  0.2456
 4239SOL    HW122647  12.435   2.049   8.567  1.7759  1.7282 -2.6535
 4239SOL    HW222648  12.510   1.950   8.655 -3.2992  0.8876  1.2217
 4240SOL     OW22649   0.487   2.325   7.575  0.0844 -0.0214 -0.1958
 4240SOL    HW122650   0.526   2.249   7.531  0.7878  0.7347 -0.9038
 4240SOL    HW222651   0.533   2.400   7.538 -2.6466  1.0069 -1.8116
 4241SOL     OW22652   6.355   0.718  10.243 -0.0132 -1.2887 -0.5822
 4241SOL    HW122653   6.302   0.717  10.163  0.0366 -0.6179 -0.6269
 4241SOL    HW222654   6.325   0.641  10.291 -1.7680 -0.3973 -0.1485
 4242SOL     OW22655   7.887   1.321  12.496  0.0787  0.5464  0.1815
 4242SOL    HW122656   7.921   1.236  12.469 -0.4716  0.0361  1.0435
 4242SOL    HW222657   7.797   1.302  12.523  0.3926  1.1366  1.7302
 4243SOL     OW22658  10.664   9.335   6.049 -0.2656 -0.0798  0.1587
 4243SOL    HW122659  10.609   9.401   6.006 -1.0818 -0.0426  1.2011
 4243SOL    HW222660  10.612   9.255   6.045  1.2985 -1.0660 -2.3349
 4244SOL     OW22661  11.547  11.618   9.118 -0.1368  0.4928  0.7904
 4244SOL    HW122662  11.640  11.597   9.118 -0.2975 -0.2528  1.7138
 4244SOL    HW222663  11.544  11.713   9.127  0.5481  0.6431 -0.4261
 4245SOL     OW22664   9.403   0.592  12.742  0.4173  0.1542 -0.7688
 4245SOL    HW122665   9.319   0.565  12.708  0.3385  0.1292 -0.5569
 4245SOL    HW222666   9.384   0.669  12.795  0.3040 -0.7051  0.4858
 4246SOL     OW22667  11.578  10.320   8.620 -0.1991  0.1843  0.5417
 4246SOL    HW122668  11.518  10.299   8.690 -1.4563  0.0484 -0.5411
 4246SOL    HW222669  11.653  10.263   8.634 -1.9229 -2.4351 -0.2012
 4247SOL     OW22670   5.681   5.691   6.179 -0.2848  0.4753  0.0488
 4247SOL    HW122671   5.719   5.657   6.259 -0.5663  1.2848  0.5354
 4247SOL    HW222672   5.592   5.717   6.203 -1.2699 -1.5836 -1.1213
 4248SOL     OW22673   3.526   6.884   2.215  0.2798  0.5707 -0.6074
 4248SOL    HW122674   3.515   6.958   2.275  1.8635  1.2651 -1.1455
 4248SOL    HW222675   3.518   6.807   2.271 -0.8763  1.1341  0.0466
 4249SOL     OW22676  10.533  11.487  12.832 -0.4542  0.0265  0.2914
 4249SOL    HW122677  10.487  11.513  12.752  0.1732  2.0680  0.5198
 4249SOL    HW222678  10.476  11.423  12.874 -0.8027 -1.0734 -1.7676
 4250SOL     OW22679   8.394   2.266   1.491 -0.1303  0.0744  0.0235
 4250SOL    HW122680   8.339   2.344   1.494 -0.0351  0.1229  0.6248
 4250SOL    HW222681   8.403   2.246   1.397 -0.1169  0.8028 -0.1323
 4251SOL     OW22682  12.898  10.232   1.243 -0.4372  0.4252  0.4193
 4251SOL    HW122683  12.909  10.323   1.217 -0.7467  0.0867 -0.9445
 4251SOL    HW222684  12.982  10.207   1.281 -0.4866  1.3906  1.2106
 4252SOL     OW22685   9.644   5.238  13.304 -0.1778 -0.1571  0.0610
 4252SOL    HW122686   9.719   5.288  13.338 -0.7840 -0.4438  1.9376
 4252SOL    HW222687   9.658   5.150  13.338 -0.3308 -0.7139 -1.2858
 4253SOL     OW22688   5.281   0.859   9.685  0.3211 -0.0007 -0.4892
 4253SOL    HW122689   5.325   0.840   9.602  1.5469 -1.8687  0.5269
 4253SOL    HW222690   5.243   0.776   9.712 -1.9585  1.0630 -0.1919
 4254SOL     OW22691   2.457  13.146   9.092  0.1282  0.1617  0.0456
 4254SOL    HW122692   2.546  13.158   9.061  0.1199 -2.7022 -1.4755
 4254SOL    HW222693   2.464  13.078   9.160 -0.8374  0.2679  0.2723
 4255SOL     OW22694   2.555   0.807   1.734 -0.0330 -0.7362 -0.0032
 4255SOL    HW122695   2.647   0.828   1.717 -0.0584 -0.3923  0.2688
 4255SOL    HW222696   2.519   0.887   1.771 -0.8771 -0.2628 -1.7335
 4256SOL     OW22697   3.847   2.980  13.217 -1.1261  0.8431  0.5557
 4256SOL    HW122698   3.805   3.048  13.270 -1.9173  0.7781  0.0335
 4256SOL    HW222699   3.937   2.978  13.248 -1.4491  1.1327  1.5665
 4257SOL     OW22700   4.389   3.782   8.140  0.8829 -0.0799 -0.2902
 4257SOL    HW122701   4.367   3.803   8.049 -1.1659 -1.2728 -0.1489
 4257SOL    HW222702   4.423   3.693   8.137  3.2391  0.7414 -0.1243
 4258SOL     OW22703   7.737   8.972   7.788 -0.8168  0.8109 -0.0623
 4258SOL    HW122704   7.793   8.902   7.757 -0.2124  1.1213  0.3127
 4258SOL    HW222705   7.657   8.964   7.736 -1.4021 -1.1146  1.0100
 4259SOL     OW22706   2.525   0.828   2.470  0.0302  0.0950 -0.1985
 4259SOL    HW122707   2.571   0.760   2.520  2.8098  0.8834 -1.4926
 4259SOL    HW222708   2.535   0.801   2.379 -0.9264  1.0342 -0.5968
 4260SOL     OW22709   5.265  12.757  10.715  0.4646  0.0017  0.2735
 4260SOL    HW122710   5.325  12.697  10.671 -0.8223 -0.0557 -1.5013
 4260SOL    HW222711   5.322  12.823  10.754  1.7186 -0.3516 -0.8751
 4261SOL     OW22712   0.530   1.591   2.541 -0.4094 -0.2874 -0.1620
 4261SOL    HW122713   0.569   1.597   2.628 -0.1513 -1.8867 -0.1437
 4261SOL    HW222714   0.466   1.521   2.548 -0.4711 -0.3611 -1.2416
 4262SOL     OW22715   3.520   1.270   1.464  0.8065 -0.6807 -0.4593
 4262SOL    HW122716   3.515   1.292   1.372 -0.7583  1.4799  0.0772
 4262SOL    HW222717   3.430   1.251   1.490  0.6512  1.9840  1.2995
 4263SOL     OW22718   8.835   2.373   5.049  0.3877  0.4648 -0.1413
 4263SOL    HW122719   8.841   2.466   5.075 -2.2871  0.3180  1.3918
 4263SOL    HW222720   8.829   2.326   5.133 -0.2928 -0.9073 -0.9376
 4264SOL     OW22721  11.487  12.047  10.484  0.0116  1.5155  0.1192
 4264SOL    HW122722  11.506  11.982  10.416 -0.2144  0.4492  1.0353
 4264SOL    HW222723  11.397  12.029  10.511  0.0655  1.9811  0.6353
 4265SOL     OW22724   2.171   0.185  10.182  0.2355 -0.4131  0.3014
 4265SOL    HW122725   2.202   0.256  10.126 -0.3195 -0.8107 -0.5153
 4265SOL    HW222726   2.161   0.110  10.124  0.7494 -1.1592  1.1397
 4266SOL     OW22727   7.594  11.330   4.378 -0.2809 -0.4775 -0.6666
 4266SOL    HW122728   7.562  11.241   4.373  0.7276 -0.9021 -0.0073
 4266SOL    HW222729   7.563  11.362   4.463  0.1032 -0.5238 -0.5036
 4267SOL     OW22730   8.394   8.940   3.675 -0.5534 -0.4355  0.1428
 4267SOL    HW122731   8.354   8.993   3.744 -2.1958 -1.1460 -0.2284
 4267SOL    HW222732   8.395   8.997   3.598 -0.2300 -0.2025  0.3148
 4268SOL     OW22733   5.222   3.555   9.937 -0.3151  0.1671  0.6002
 4268SOL    HW122734   5.281   3.598  10.000  0.3161  0.4588 -0.1765
 4268SOL    HW222735   5.177   3.488   9.989 -1.2812  1.6873  1.8395
 4269SOL     OW22736   7.959   6.332  12.900 -0.7273  0.0879 -0.4858
 4269SOL    HW122737   7.878   6.298  12.937  0.8663 -0.3211  3.0299
 4269SOL    HW222738   7.961   6.424  12.925 -0.6634  0.4399 -1.7085
 4270SOL     OW22739   8.081   1.150   1.244 -0.0142  0.0873  0.2806
 4270SOL    HW122740   8.045   1.111   1.324  1.0662 -1.1197  0.2178
 4270SOL    HW222741   8.114   1.235   1.271  1.2501 -0.7084  1.3897
 4271SOL     OW22742   6.299   6.065   9.124  0.0601  0.4711  0.1318
 4271SOL    HW122743   6.218   6.105   9.156  0.4286  0.7093  0.7823
 4271SOL    HW222744   6.277   5.974   9.109 -0.5056  0.6775 -0.3393
 4272SOL     OW22745   2.620  13.205   3.743  0.6555 -0.2198  0.0774
 4272SOL    HW122746   2.568  13.154   3.680  0.8497  0.9164 -1.0395
 4272SOL    HW222747   2.619  13.294   3.708 -0.3392  0.7515  2.3972
 4273SOL     OW22748   9.355  11.465   9.646  0.4121 -0.2125  0.7912
 4273SOL    HW122749   9.324  11.386   9.691 -1.4175 -0.0972 -0.1452
 4273SOL    HW222750   9.451  11.459   9.649  0.3829 -0.6162  3.8638
 4274SOL     OW22751  11.140   2.927   6.864 -0.0214  0.0514  0.4479
 4274SOL    HW122752  11.171   2.935   6.774  1.0950  0.0627  0.8087
 4274SOL    HW222753  11.219   2.904   6.914 -0.5460  0.4250  1.4776
 4275SOL     OW22754   1.449   4.134   4.693 -0.9489  0.1641 -0.4949
 4275SOL    HW122755   1.392   4.168   4.761 -1.8519 -1.7511 -0.2222
 4275SOL    HW222756   1.412   4.049   4.670  0.1332  0.1244 -2.3981
 4276SOL     OW22757  10.109   3.638   7.919 -0.1440  0.2069 -0.2822
 4276SOL    HW122758  10.085   3.550   7.890  1.6940 -0.6871  0.7162
 4276SOL    HW222759  10.042   3.663   7.982  0.7097 -1.6301  1.4304
 4277SOL     OW22760   6.233   8.973   1.843  0.7946  0.5968  0.1792
 4277SOL    HW122761   6.232   9.066   1.866 -0.7493  0.5452  0.4408
 4277SOL    HW222762   6.302   8.966   1.777  0.0906  2.1739 -0.7882
 4278SOL     OW22763   0.620   2.393   1.131  0.0343 -0.4159  0.4713
 4278SOL    HW122764   0.715   2.382   1.135  0.0977  0.0154  0.2237
 4278SOL    HW222765   0.602   2.408   1.038 -0.3136 -0.8109  0.4728
 4279SOL     OW22766   1.369   3.004  12.431 -0.1647  0.2154  0.4918
 4279SOL    HW122767   1.419   2.979  12.354  0.5132  0.5654  0.8037
 4279SOL    HW222768   1.414   2.961  12.504 -0.2963  0.5628  0.7844
 4280SOL     OW22769   6.036   9.994   7.222 -0.4951  0.5075  0.6561
 4280SOL    HW122770   5.979   9.917   7.224  0.3263 -0.1034  1.4032
 4280SOL    HW222771   5.978  10.068   7.238 -1.2085 -0.0120  0.5070
 4281SOL     OW22772  10.336   8.903   7.211  0.0795  0.2792 -0.6765
 4281SOL    HW122773  10.385   8.983   7.225  0.3318 -0.1500  1.3082
 4281SOL    HW222774  10.244   8.930   7.210  0.0702  0.5028  1.4349
 4282SOL     OW22775   6.324   9.256   2.302 -0.3235  0.4712 -0.1032
 4282SOL    HW122776   6.375   9.274   2.381 -0.0280  0.3664 -0.2679
 4282SOL    HW222777   6.233   9.259   2.331 -0.2045  0.0577  0.3197
 4283SOL     OW22778   5.860  13.309   9.291 -0.0303 -0.2299  0.9453
 4283SOL    HW122779   5.906  13.246   9.235 -0.1369  0.3322  0.2072
 4283SOL    HW222780   5.772  13.272   9.301  0.0241 -0.3907  0.8369
 4284SOL     OW22781   1.771   1.854  12.088 -0.2327 -0.6100 -0.4560
 4284SOL    HW122782   1.718   1.807  12.153 -0.3720  0.7529  0.4531
 4284SOL    HW222783   1.775   1.944  12.121 -0.8785  0.3008 -2.6805
 4285SOL     OW22784   3.667   9.971   0.524 -0.0236  0.3335 -0.2041
 4285SOL    HW122785   3.758   9.992   0.501  0.1082 -1.3672 -1.4289
 4285SOL    HW222786   3.672   9.933   0.611 -0.0329  3.2889  1.2005
 4286SOL     OW22787   5.441   1.648   1.958 -0.1313  0.0208  0.1405
 4286SOL    HW122788   5.492   1.625   1.880 -0.2564 -1.0091  0.3519
 4286SOL    HW222789   5.378   1.713   1.927 -0.5850 -0.8206 -0.7544
 4287SOL     OW22790   9.783   8.888   4.788 -0.5356 -0.5150 -0.1266
 4287SOL    HW122791   9.735   8.864   4.709  2.1098  0.1568 -2.0867
 4287SOL    HW222792   9.808   8.804   4.827 -2.4381 -0.8572  0.4178
 4288SOL     OW22793   9.944   1.668   3.063 -0.0055  0.1494  0.9134
 4288SOL    HW122794   9.937   1.573   3.069  0.3132  0.0970  0.4999
 4288SOL    HW222795   9.897   1.691   2.983  1.3997  0.1561  0.0653
 4289SOL     OW22796   5.202   7.399   0.743  0.1815 -0.0479  0.5742
 4289SOL    HW122797   5.180   7.425   0.833 -0.1372  0.7299  0.2877
 4289SOL    HW222798   5.272   7.459   0.718 -0.0164  0.0164  0.1690
 4290SOL     OW22799   3.128   3.769  10.977 -0.1528  0.2321  0.3334
 4290SOL    HW122800   3.043   3.728  10.992  0.1305 -0.3703  0.3198
 4290SOL    HW222801   3.175   3.759  11.059  0.2643 -0.3131  0.0353
 4291SOL     OW22802   5.435   0.219   9.826 -0.5441  0.1152 -0.0874
 4291SOL    HW122803   5.456   0.312   9.818 -0.1067 -0.0516 -0.9473
 4291SOL    HW222804   5.517   0.174   9.807  0.0966 -0.4216  3.2674
 4292SOL     OW22805   7.401   0.505   3.396  1.1417  0.0792  0.1124
 4292SOL    HW122806   7.460   0.532   3.466  1.3676 -0.4470  0.1270
 4292SOL    HW222807   7.391   0.583   3.341 -0.6234  1.1352  1.8022
 4293SOL     OW22808   5.663   0.110   2.748 -0.0338 -0.3758  0.6913
 4293SOL    HW122809   5.720   0.035   2.767 -0.2005 -0.4344  0.9686
 4293SOL    HW222810   5.713   0.164   2.688  0.7046  0.0709  1.6961
 4294SOL     OW22811   3.078  11.271   4.249  0.4818  0.0088 -0.0485
 4294SOL    HW122812   3.135  11.346   4.230 -0.6981  0.9194 -0.1323
 4294SOL    HW222813   3.117  11.232   4.327  1.8111 -0.0380 -0.6930
 4295SOL     OW22814   6.644   9.043   0.835 -0.0501  0.0037  0.1567
 4295SOL    HW122815   6.577   9.020   0.771  0.7914 -2.0129 -0.0703
 4295SOL    HW222816   6.595   9.069   0.913 -1.1001 -0.4086 -0.3458
 4296SOL     OW22817   7.961   9.055   2.297  0.1701 -0.0903  1.0748
 4296SOL    HW122818   7.894   9.016   2.353 -1.9526  2.4715  0.4843
 4296SOL    HW222819   7.998   9.126   2.349  1.1807 -0.3326  0.7168
 4297SOL     OW22820   3.225   0.275   5.493 -0.3181  0.6434  0.1351
 4297SOL    HW122821   3.175   0.340   5.541 -0.4339  0.4223  0.3150
 4297SOL    HW222822   3.207   0.294   5.401 -0.4020  0.8236  0.1886
 4298SOL     OW22823   2.399   0.081   0.798 -0.4141 -0.6730  0.5697
 4298SOL    HW122824   2.371   0.166   0.765  1.1990 -0.0828  0.6120
 4298SOL    HW222825   2.353   0.072   0.882  1.4719  1.5323  2.0001
 4299SOL     OW22826   7.176   9.299  10.981  0.6093  1.1006 -0.4005
 4299SOL    HW122827   7.197   9.241  11.054  2.0464  2.6908  0.5415
 4299SOL    HW222828   7.131   9.244  10.918 -0.7173 -0.3399  1.6953
 4300SOL     OW22829   2.271  11.999   3.019 -0.0334 -0.6679 -0.1795
 4300SOL    HW122830   2.228  12.039   3.094 -1.0003 -1.1347 -0.4705
 4300SOL    HW222831   2.340  12.061   2.995  0.6287 -0.7430  1.3996
 4301SOL     OW22832   3.235   1.195   7.544  0.2064 -0.9794 -0.2897
 4301SOL    HW122833   3.259   1.155   7.461 -0.7427  1.1208 -1.6674
 4301SOL    HW222834   3.317   1.234   7.576  0.1725  0.0397 -1.3639
 4302SOL     OW22835   3.581   3.650   5.363  0.0777 -0.1531 -0.2471
 4302SOL    HW122836   3.593   3.558   5.387  1.5358  0.1732  0.3809
 4302SOL    HW222837   3.486   3.664   5.366 -0.1531 -1.5954 -0.2526
 4303SOL     OW22838   4.584   5.772   4.800 -0.0388  0.0656  0.6767
 4303SOL    HW122839   4.511   5.833   4.812 -0.6660 -0.9270  2.2910
 4303SOL    HW222840   4.543   5.686   4.798  0.9162 -0.3859 -0.6510
 4304SOL     OW22841   4.086   2.374   5.220  0.2177 -0.3506  0.0743
 4304SOL    HW122842   4.072   2.364   5.314 -1.3804  0.7924 -0.0027
 4304SOL    HW222843   4.018   2.320   5.179  0.8031 -0.7172 -0.4419
 4305SOL     OW22844   1.172   4.101   1.114  0.3060 -0.3425 -0.0006
 4305SOL    HW122845   1.240   4.169   1.113  0.4632 -0.4677  1.2180
 4305SOL    HW222846   1.095   4.144   1.075  0.5957  0.3199  0.1489
 4306SOL     OW22847   9.116   5.789  10.989  0.1478  0.3365 -0.3249
 4306SOL    HW122848   9.035   5.793  11.040  0.2587 -1.6397  0.0644
 4306SOL    HW222849   9.186   5.798  11.055  0.2710  1.7180 -0.6225
 4307SOL     OW22850   5.670  11.885  10.463 -0.5506  0.1356 -0.4484
 4307SOL    HW122851   5.609  11.811  10.465  1.2387 -1.4229  1.3826
 4307SOL    HW222852   5.687  11.903  10.556  2.3624 -0.0940 -0.8397
 4308SOL     OW22853  11.220  13.260   2.073  0.1231 -0.2610 -0.3506
 4308SOL    HW122854  11.204  13.346   2.035  2.4906  0.7869  0.8491
 4308SOL    HW222855  11.236  13.277   2.166  2.2246 -1.7645 -0.3642
 4309SOL     OW22856   6.844  12.967  12.525 -0.6243  0.0162 -0.3249
 4309SOL    HW122857   6.880  12.973  12.436 -1.6838 -0.0628 -0.7680
 4309SOL    HW222858   6.749  12.966  12.513 -0.8638  1.9765  0.9109
 4310SOL     OW22859  11.366   9.191   5.711 -0.0298 -0.3737 -0.0485
 4310SOL    HW122860  11.301   9.199   5.781  1.1535  1.2055  0.9210
 4310SOL    HW222861  11.450   9.189   5.756  0.7148 -0.3403 -1.3799
 4311SOL     OW22862   5.647   6.141   5.016 -0.0884 -0.7097 -0.0477
 4311SOL    HW122863   5.655   6.114   4.924 -1.1556  0.3821 -0.4960
 4311SOL    HW222864   5.731   6.182   5.037  0.4592 -1.6969 -0.2702
 4312SOL     OW22865   5.873   2.484   7.515 -0.3936  0.3001 -0.2968
 4312SOL    HW122866   5.784   2.467   7.482 -0.0963  0.4978 -1.2217
 4312SOL    HW222867   5.931   2.448   7.448  0.2426  2.2581 -0.8514
 4313SOL     OW22868   3.497   4.544   6.524  0.1428 -0.1851 -0.4387
 4313SOL    HW122869   3.500   4.590   6.441 -0.5939  1.6023  0.4680
 4313SOL    HW222870   3.424   4.583   6.571  2.9579  1.9300  2.7118
 4314SOL     OW22871   8.677  10.318   0.598 -0.6808 -0.3112 -0.3288
 4314SOL    HW122872   8.657  10.330   0.691 -4.3245 -0.1919 -1.0001
 4314SOL    HW222873   8.724  10.235   0.594  1.2541  0.5755  1.7284
 4315SOL     OW22874   2.450   2.704   7.948  0.1202  0.6713 -0.0538
 4315SOL    HW122875   2.355   2.699   7.960  0.0410  2.3262  0.2920
 4315SOL    HW222876   2.481   2.615   7.962 -1.5057 -0.1434 -1.4019
 4316SOL     OW22877   3.997   8.616   3.218 -0.2568  0.0663 -0.1629
 4316SOL    HW122878   4.085   8.582   3.207  0.1842  0.1839  2.3516
 4316SOL    HW222879   4.008   8.711   3.222 -0.1736  0.0231  1.9102
 4317SOL     OW22880   9.045   5.000   5.589  0.9676 -0.1131  0.4750
 4317SOL    HW122881   9.003   5.030   5.670  0.5398  0.2755  0.1167
 4317SOL    HW222882   9.059   4.906   5.603  0.8482 -0.0609  0.9770
 4318SOL     OW22883   2.391   7.772   0.888  0.2246 -0.6053 -0.0850
 4318SOL    HW122884   2.457   7.710   0.857  0.6345 -0.7057  0.9344
 4318SOL    HW222885   2.314   7.754   0.834  1.6075  0.9301 -2.7492
 4319SOL     OW22886   9.510  11.999   7.959  0.3255  0.3563  0.1164
 4319SOL    HW122887   9.558  12.047   8.027 -1.3112  0.0352  1.5679
 4319SOL    HW222888   9.475  12.067   7.902  0.2193  0.7382  0.6283
 4320SOL     OW22889   7.618  10.678   6.423 -0.0271  0.1446 -0.1594
 4320SOL    HW122890   7.649  10.760   6.384 -0.3332 -0.6856 -2.2641
 4320SOL    HW222891   7.653  10.680   6.512  0.9266  2.0322 -0.5131
 4321SOL     OW22892   7.199   7.666   7.472 -0.1135  0.0411 -0.4478
 4321SOL    HW122893   7.118   7.702   7.435 -0.2431  1.9977  1.5044
 4321SOL    HW222894   7.171   7.626   7.554  1.0296  2.2577  1.1285
 4322SOL     OW22895   0.664   3.709  12.188  0.3578  0.9438  0.0488
 4322SOL    HW122896   0.675   3.681  12.097 -1.3962 -0.6252  0.2706
 4322SOL    HW222897   0.752   3.703  12.226  0.7207 -0.5542 -0.9687
 4323SOL     OW22898  12.103   5.165   8.802  0.0990  0.1622 -0.2720
 4323SOL    HW122899  12.015   5.162   8.764  0.2475 -1.3793 -0.5818
 4323SOL    HW222900  12.137   5.075   8.791  1.1512  0.3497  1.1558
 4324SOL     OW22901   7.080   2.778   0.446  0.7034  0.4379  0.3516
 4324SOL    HW122902   7.161   2.797   0.399  0.6252  1.5305  0.6165
 4324SOL    HW222903   7.012   2.824   0.396  0.2900 -0.1941  0.3183
 4325SOL     OW22904   0.213   6.700  10.981 -0.1948  0.5635  0.1173
 4325SOL    HW122905   0.246   6.620  10.940 -0.6271  0.9215 -0.9539
 4325SOL    HW222906   0.256   6.703  11.067 -1.7709 -1.9548  1.1141
 4326SOL     OW22907   7.410   1.396   3.226 -0.4695  0.1355  0.4068
 4326SOL    HW122908   7.465   1.466   3.190  1.1781 -1.9961 -1.4674
 4326SOL    HW222909   7.436   1.391   3.318 -0.3240  1.6830  0.4784
 4327SOL     OW22910   3.055   7.318   4.247 -0.0944 -0.0136 -0.2051
 4327SOL    HW122911   3.042   7.384   4.315 -2.3250  1.6345 -2.0673
 4327SOL    HW222912   3.108   7.363   4.181  0.1984 -0.8481 -0.5525
 4328SOL     OW22913   7.722   1.184  10.794 -0.0816  0.1296 -0.0616
 4328SOL    HW122914   7.636   1.202  10.755 -0.4797 -0.0532  0.7137
 4328SOL    HW222915   7.741   1.094  10.771 -0.7605 -0.2911  0.9581
 4329SOL     OW22916   6.314   7.733   1.498  0.5629  0.6249  0.5003
 4329SOL    HW122917   6.304   7.826   1.478 -3.1006  0.3955  0.5830
 4329SOL    HW222918   6.355   7.732   1.585  0.1868  2.1770  0.7338
 4330SOL     OW22919   9.633   5.254   3.006  0.5490  0.1407  0.1563
 4330SOL    HW122920   9.718   5.211   3.007  1.5119  1.9644  0.2001
 4330SOL    HW222921   9.570   5.184   3.025  2.2211 -0.7845  2.7167
 4331SOL     OW22922  12.799   7.563  10.525 -0.1842 -0.1003 -0.2908
 4331SOL    HW122923  12.779   7.476  10.488 -0.2491 -0.6569  1.0077
 4331SOL    HW222924  12.714   7.606  10.531 -0.5224 -0.9406  1.4569
 4332SOL     OW22925   6.907   0.605   1.459  0.1798  0.8301 -0.3306
 4332SOL    HW122926   6.943   0.615   1.547  1.9225  0.9788 -1.0285
 4332SOL    HW222927   6.975   0.559   1.410 -1.1851 -0.2119 -1.3534
 4333SOL     OW22928   1.438  12.718  10.587  0.2170 -0.0482 -0.0262
 4333SOL    HW122929   1.533  12.714  10.579  0.5011  1.1109  1.9752
 4333SOL    HW222930   1.406  12.652  10.525  2.1821  0.9377 -2.2446
 4334SOL     OW22931   9.684   8.742  13.079 -0.5904 -0.6782  0.0671
 4334SOL    HW122932   9.644   8.811  13.132 -0.4159 -0.8234  0.3931
 4334SOL    HW222933   9.714   8.677  13.143  1.6795  0.1945 -0.0263
 4335SOL     OW22934   2.970  10.223  12.258  0.0580 -0.4888 -0.5012
 4335SOL    HW122935   3.025  10.297  12.230 -1.7267  1.0871 -0.0242
 4335SOL    HW222936   3.019  10.184  12.330  0.5279  0.9366 -0.0045
 4336SOL     OW22937   1.334   9.888  10.567  0.3098 -0.2346  0.0254
 4336SOL    HW122938   1.427   9.892  10.547  0.2341  0.5556 -0.1977
 4336SOL    HW222939   1.308   9.979  10.581 -0.6297 -0.3384 -0.8842
 4337SOL     OW22940  12.342   1.493   1.540 -0.3492 -0.4773 -0.3163
 4337SOL    HW122941  12.251   1.506   1.565 -0.0817 -0.7184  0.8299
 4337SOL    HW222942  12.377   1.434   1.606  1.1852  1.2684  0.5370
 4338SOL     OW22943  12.376   8.806   0.977 -0.5478 -0.1195 -0.2860
 4338SOL    HW122944  12.430   8.850   1.042 -1.0072  0.8619 -0.5559
 4338SOL    HW222945  12.437   8.783   0.906 -0.1436 -0.7395  0.2482
 4339SOL     OW22946   1.008   1.466   1.794 -0.5320  0.5408 -0.3138
 4339SOL    HW122947   0.940   1.429   1.738  0.0249  1.6913 -1.8220
 4339SOL    HW222948   1.078   1.400   1.792 -1.1792 -0.1838  0.4178
 4340SOL     OW22949   5.549   3.487   2.922 -0.3962  0.3031 -0.2014
 4340SOL    HW122950   5.455   3.501   2.921 -0.1750  2.1017 -1.0621
 4340SOL    HW222951   5.560   3.392   2.929 -2.2437  0.0874  0.2768
 4341SOL     OW22952  10.142   6.726   1.881 -1.0267 -0.2116 -0.4581
 4341SOL    HW122953  10.067   6.760   1.832 -1.4509 -0.4941 -0.0191
 4341SOL    HW222954  10.145   6.633   1.859 -0.2040 -0.0089 -1.2302
 4342SOL     OW22955  10.011   2.957   1.449  0.0240  0.4035  0.2181
 4342SOL    HW122956   9.973   2.892   1.507  1.0541  0.5194  1.0619
 4342SOL    HW222957   9.951   3.032   1.453 -0.3062  0.1214  0.5297
 4343SOL     OW22958   5.270   0.894  10.955 -0.0315 -0.0322 -0.6884
 4343SOL    HW122959   5.257   0.831  10.884 -0.4173  1.1623 -1.7158
 4343SOL    HW222960   5.331   0.850  11.015  0.3653 -1.0472 -1.7827
 4344SOL     OW22961   3.938   1.379   0.266  0.5733 -0.0895 -0.2936
 4344SOL    HW122962   3.906   1.428   0.342  0.7515 -1.3061  0.5941
 4344SOL    HW222963   3.930   1.441   0.193  1.9305  1.6849  0.9641
 4345SOL     OW22964  10.258  10.699  12.112  0.1195 -0.3068 -0.3134
 4345SOL    HW122965  10.182  10.650  12.079  0.3655 -0.0930 -1.2459
 4345SOL    HW222966  10.315  10.633  12.150 -0.0566 -0.6034 -0.5562
 4346SOL     OW22967  12.613   3.810  10.926 -0.3697  0.6793 -0.2579
 4346SOL    HW122968  12.552   3.883  10.926  1.3015  2.2157  1.9162
 4346SOL    HW222969  12.700   3.851  10.923  0.7660 -0.8381  4.0864
 4347SOL     OW22970   0.207   4.496   8.787 -0.5446  0.4684  0.1800
 4347SOL    HW122971   0.243   4.415   8.823 -2.1526 -1.2398 -1.7699
 4347SOL    HW222972   0.132   4.516   8.844  1.5518  2.3729  2.4603
 4348SOL     OW22973   6.386   9.257  10.786 -0.2886  0.2195  0.4936
 4348SOL    HW122974   6.479   9.242  10.803 -0.3596 -2.5121 -0.9181
 4348SOL    HW222975   6.353   9.297  10.867  2.0687  1.2987  1.0101
 4349SOL     OW22976   4.930   2.987  11.753  0.3573 -0.1187  0.0837
 4349SOL    HW122977   4.905   2.919  11.815  1.0756 -2.3654 -1.9403
 4349SOL    HW222978   4.848   3.011  11.709  0.0478  0.6397  1.0309
 4350SOL     OW22979   5.664   8.022   8.332  0.3967  0.0840  0.1598
 4350SOL    HW122980   5.639   7.970   8.409  0.9731 -0.6422 -0.1275
 4350SOL    HW222981   5.679   7.956   8.264  0.7897  0.6660 -0.3195
 4351SOL     OW22982   4.528  11.347   2.930 -0.3666 -0.1772 -0.5235
 4351SOL    HW122983   4.520  11.306   2.844 -1.8735  2.5761 -1.8185
 4351SOL    HW222984   4.445  11.330   2.973  0.3821 -1.5446  0.4898
 4352SOL     OW22985   3.406   8.803   9.814  0.0872  0.0934 -0.0384
 4352SOL    HW122986   3.439   8.765   9.732  0.5720  0.6702 -0.1195
 4352SOL    HW222987   3.356   8.879   9.786 -0.5744 -0.2670  0.1456
 4353SOL     OW22988   1.287   0.945   8.577 -0.4015  0.1203 -0.0664
 4353SOL    HW122989   1.353   1.009   8.604 -1.8517  0.9270  1.7997
 4353SOL    HW222990   1.258   0.905   8.659  1.0179 -3.6599 -1.1868
 4354SOL     OW22991   6.100  10.465   2.225 -0.6604 -0.2194  0.0568
 4354SOL    HW122992   6.074  10.556   2.209  0.8784  0.1115 -0.8528
 4354SOL    HW222993   6.099  10.424   2.138  0.7234 -0.4507  0.1154
 4355SOL     OW22994  12.066  10.684  10.872  0.0819 -0.0775 -0.5389
 4355SOL    HW122995  12.136  10.629  10.907 -0.4839 -0.4609  0.0193
 4355SOL    HW222996  12.097  10.710  10.786  1.2198  0.3367 -0.0247
 4356SOL     OW22997   9.601   8.448   4.191  0.0807 -0.2953  0.2446
 4356SOL    HW122998   9.558   8.406   4.116 -0.1381  0.6882 -0.1855
 4356SOL    HW222999   9.690   8.412   4.191  0.4474  0.5592 -1.1874
 4357SOL     OW23000  12.509   3.354  10.415  0.6973  0.3090 -0.8199
 4357SOL    HW123001  12.562   3.399  10.480  0.2627  0.5789 -0.6516
 4357SOL    HW223002  12.511   3.262  10.443 -0.0406  0.5186 -0.0331
 4358SOL     OW23003   0.685   8.038   1.854  0.4146 -0.5738 -0.2254
 4358SOL    HW123004   0.649   8.046   1.766  0.0765 -0.9028 -0.1160
 4358SOL    HW223005   0.676   8.126   1.892 -0.4464 -0.6911 -0.1326
 4359SOL     OW23006   4.400   6.076   8.323  0.2576 -0.3587  0.1392
 4359SOL    HW123007   4.370   6.155   8.278 -0.5568 -1.9471 -2.3275
 4359SOL    HW223008   4.494   6.091   8.337  0.6667  0.1234 -2.5428
 4360SOL     OW23009  12.354   6.005  12.897  0.2195 -0.2764  0.4547
 4360SOL    HW123010  12.286   5.967  12.841  0.4102 -0.6333  0.4617
 4360SOL    HW223011  12.375   5.936  12.960 -0.6414  0.4303  1.5641
 4361SOL     OW23012   4.577   5.415  11.709 -0.1702 -0.0520  0.0835
 4361SOL    HW123013   4.663   5.373  11.706 -0.5453 -0.8311  0.1326
 4361SOL    HW223014   4.579   5.478  11.637  0.8537  0.7658  0.7793
 4362SOL     OW23015   3.766   5.071   4.771  0.1865 -0.0942  0.2246
 4362SOL    HW123016   3.856   5.064   4.802  0.4245  1.7630  0.0725
 4362SOL    HW223017   3.712   5.051   4.848  0.7401  0.2564  0.7113
 4363SOL     OW23018   2.402   7.299   3.208 -0.6116  0.0335  0.6795
 4363SOL    HW123019   2.402   7.236   3.136 -1.8929 -0.0283  0.7029
 4363SOL    HW223020   2.428   7.382   3.167  0.2323 -0.3261  0.4784
 4364SOL     OW23021  12.066  10.468   9.096  0.7957 -0.2420  0.3269
 4364SOL    HW123022  12.085  10.501   9.008 -0.2727 -1.3472 -0.3615
 4364SOL    HW223023  12.137  10.501   9.151  0.8255  1.5074 -0.6925
 4365SOL     OW23024  12.424  13.104   6.305 -0.4523 -0.3799 -0.3821
 4365SOL    HW123025  12.355  13.169   6.321  0.2182  0.5990 -1.3289
 4365SOL    HW223026  12.492  13.128   6.368 -0.8284 -1.1669  0.3497
 4366SOL     OW23027   0.897   9.260   9.298 -0.4991  0.3059  0.0196
 4366SOL    HW123028   0.934   9.209   9.370 -2.2927 -0.5475  0.3817
 4366SOL    HW223029   0.904   9.351   9.328  0.7666  0.1297  0.3011
 4367SOL     OW23030   4.524   6.037   1.673  0.2154 -0.6821 -0.2793
 4367SOL    HW123031   4.599   5.986   1.644  0.0836  0.1680 -2.2954
 4367SOL    HW223032   4.451   6.003   1.621 -0.2774  0.1772 -0.1675
 4368SOL     OW23033   7.520   7.518   7.243  0.8117  0.2797 -0.1963
 4368SOL    HW123034   7.443   7.507   7.187  1.0221 -0.4666 -0.3567
 4368SOL    HW223035   7.583   7.454   7.209  1.3077  0.5144  0.2678
 4369SOL     OW23036   2.794   5.729   7.014 -0.2624  0.2393  0.7115
 4369SOL    HW123037   2.733   5.760   6.948 -1.0489 -1.5563  0.5439
 4369SOL    HW223038   2.845   5.661   6.970  0.5358  0.3666  1.4110
 4370SOL     OW23039   9.415   6.083  12.004  0.0085  0.5247  0.1531
 4370SOL    HW123040   9.407   6.175  11.980  0.4257  0.1580 -1.5298
 4370SOL    HW223041   9.466   6.083  12.084  1.1257  1.6989 -0.5250
 4371SOL     OW23042   3.881  12.597   6.790  0.0204 -0.3848  0.3819
 4371SOL    HW123043   3.946  12.640   6.735 -0.3528 -0.9872 -0.5603
 4371SOL    HW223044   3.931  12.558   6.861  0.6945 -0.8831 -0.3578
 4372SOL     OW23045   2.491   3.174   1.440 -0.5437  0.7730  0.0573
 4372SOL    HW123046   2.550   3.102   1.461 -2.0434  0.3188  3.3122
 4372SOL    HW223047   2.428   3.136   1.378 -0.1653 -0.1162  0.2082
 4373SOL     OW23048   2.039   6.050   0.706 -0.0366 -0.3068  0.1469
 4373SOL    HW123049   1.960   6.100   0.686  0.7822  0.7807 -0.4099
 4373SOL    HW223050   2.050   6.061   0.800  2.9343  5.0030 -0.4570
 4374SOL     OW23051  11.447   4.144   3.041  0.2402  0.1441  0.0924
 4374SOL    HW123052  11.511   4.123   3.109  0.1030 -1.8136 -0.3388
 4374SOL    HW223053  11.384   4.072   3.044 -1.7533  1.7835  0.2103
 4375SOL     OW23054   5.116   3.922  12.355  0.1366  0.1452 -0.1898
 4375SOL    HW123055   5.127   4.017  12.361 -0.2628  0.1976 -0.2471
 4375SOL    HW223056   5.025   3.907  12.378  0.4115 -0.3101  0.6452
 4376SOL     OW23057  13.249  10.033   2.259  0.4741 -0.2944 -0.0767
 4376SOL    HW123058  13.283  10.091   2.326 -0.3114  0.6468 -0.4611
 4376SOL    HW223059  13.313  10.039   2.187 -0.5021  1.5865 -0.8614
 4377SOL     OW23060   1.538  11.316   4.302 -0.1734 -0.4641 -0.0705
 4377SOL    HW123061   1.555  11.240   4.357 -0.1787  0.8148  1.7676
 4377SOL    HW223062   1.466  11.362   4.344  1.9348  2.3107  0.8328
 4378SOL     OW23063  11.755   1.340   8.566  0.1037 -1.0857  0.1071
 4378SOL    HW123064  11.723   1.426   8.595 -0.2853 -1.0458 -0.4365
 4378SOL    HW223065  11.684   1.280   8.588  0.5377 -1.3412  0.8539
 4379SOL     OW23066   3.638   5.209   2.047  0.1404  0.2592  0.0560
 4379SOL    HW123067   3.690   5.268   1.993 -1.2337  2.5414  1.0609
 4379SOL    HW223068   3.627   5.131   1.993  1.2543  1.2625 -1.7496
 4380SOL     OW23069  12.585   4.133  10.006 -0.3882 -0.1802 -0.0127
 4380SOL    HW123070  12.562   4.214  10.053  0.9727 -0.4451  1.1879
 4380SOL    HW223071  12.511   4.118   9.947 -0.5057  2.1685 -0.5869
 4381SOL     OW23072  11.370   0.050   2.456  0.5459  0.2770  0.2094
 4381SOL    HW123073  11.448   0.031   2.507  1.2818  0.8218 -0.6853
 4381SOL    HW223074  11.301   0.064   2.521  1.3357  0.4213  1.0252
 4382SOL     OW23075   6.870  10.330  13.158 -0.1391 -0.4419  0.2864
 4382SOL    HW123076   6.958  10.321  13.194  0.3692  0.5861 -0.6494
 4382SOL    HW223077   6.851  10.423  13.164  0.2226 -0.0859 -2.6039
 4383SOL     OW23078  11.278   7.314   1.063  0.0265 -0.0885  0.1966
 4383SOL    HW123079  11.195   7.362   1.062  0.6855  1.0672  0.1425
 4383SOL    HW223080  11.308   7.316   0.972  0.1389 -0.4671  0.2236
 4384SOL     OW23081   4.092   2.700   0.401 -0.4227  0.2528 -0.0442
 4384SOL    HW123082   4.167   2.758   0.416 -0.2189  0.2340 -0.8980
 4384SOL    HW223083   4.019   2.745   0.443  0.2230 -0.1930  1.6278
 4385SOL     OW23084   2.399   3.740   7.251  0.4470  0.0048  0.7920
 4385SOL    HW123085   2.480   3.727   7.299  1.0522 -0.1284 -0.2290
 4385SOL    HW223086   2.403   3.830   7.219 -0.5148  0.5081  1.9658
 4386SOL     OW23087   2.659   1.253   0.551 -0.0910  0.0451  0.1710
 4386SOL    HW123088   2.745   1.295   0.540 -0.9639  2.0376  0.4981
 4386SOL    HW223089   2.616   1.264   0.467 -1.2223  2.0616  0.9420
 4387SOL     OW23090  12.536   0.304  11.676  0.3383  0.3084 -0.2239
 4387SOL    HW123091  12.611   0.344  11.631  0.8483  1.8561  1.8193
 4387SOL    HW223092  12.489   0.378  11.713 -2.6535 -0.5770 -1.9709
 4388SOL     OW23093   4.482   9.033   4.568  0.1386 -0.3650 -0.2365
 4388SOL    HW123094   4.490   9.127   4.586  1.6873 -0.0093 -2.3743
 4388SOL    HW223095   4.510   9.024   4.477 -0.5196 -2.8462 -0.2529
 4389SOL     OW23096   5.930   8.283   0.109 -0.1059  0.2042 -0.0042
 4389SOL    HW123097   5.865   8.284   0.039 -0.7558  1.4425  0.5798
 4389SOL    HW223098   6.012   8.311   0.067 -0.4396  0.7238 -0.3132
 4390SOL     OW23099   8.887   9.033   7.644 -0.2545 -0.0384  0.0475
 4390SOL    HW123100   8.970   9.059   7.684 -0.7519  2.0904 -0.1392
 4390SOL    HW223101   8.849   8.970   7.706  1.6845 -1.4710 -0.1232
 4391SOL     OW23102   0.534  12.010  13.255  0.3229 -0.3842  0.0786
 4391SOL    HW123103   0.610  11.980  13.306  0.2258  0.7519  0.9275
 4391SOL    HW223104   0.478  12.053  13.319  0.2077  1.1270 -0.9854
 4392SOL     OW23105   0.040   8.121   4.474  0.4434 -0.0023  0.8688
 4392SOL    HW123106   0.062   8.193   4.415 -0.5280  0.5389  1.1388
 4392SOL    HW223107   0.078   8.043   4.433  0.2805  0.4448 -0.1574
 4393SOL     OW23108   5.443   4.894   2.051 -0.2672 -0.3523  0.5990
 4393SOL    HW123109   5.418   4.888   2.143  0.8377 -0.5437  0.9015
 4393SOL    HW223110   5.449   4.988   2.034  1.2424 -0.3139  1.2247
 4394SOL     OW23111   4.704   3.987   1.849 -0.0629  0.2721  0.5531
 4394SOL    HW123112   4.736   3.959   1.935 -1.7557  0.0189  1.1432
 4394SOL    HW223113   4.663   4.071   1.864 -1.7061 -0.4549  0.3221
 4395SOL     OW23114   5.892   1.567  11.385  0.1617  0.1657  0.4008
 4395SOL    HW123115   5.866   1.556  11.293 -0.9956  1.6980  0.4990
 4395SOL    HW223116   5.858   1.490  11.429 -1.1021  0.3883 -0.1323
 4396SOL     OW23117  10.551  10.664   6.831  0.5760  0.1726 -0.1435
 4396SOL    HW123118  10.585  10.609   6.901  1.6858 -0.1175 -0.8841
 4396SOL    HW223119  10.498  10.730   6.876  1.2495 -0.0105  0.9603
 4397SOL     OW23120   6.534   5.457   9.306 -0.7705 -0.1370  0.4930
 4397SOL    HW123121   6.603   5.403   9.269  1.0117  1.1151  1.8052
 4397SOL    HW223122   6.476   5.396   9.351  0.5993 -1.0659  1.0478
 4398SOL     OW23123   7.910  11.272   2.089  0.0751 -0.2107  0.4974
 4398SOL    HW123124   7.991  11.322   2.097  0.4828 -0.6270 -0.7658
 4398SOL    HW223125   7.938  11.181   2.080 -0.5892 -0.4853  1.0324
 4399SOL     OW23126  11.241   3.416  11.712  0.6613 -0.2579 -0.3247
 4399SOL    HW123127  11.155   3.390  11.745  0.1169  1.8044  0.0534
 4399SOL    HW223128  11.222   3.479  11.643  1.8709 -0.2456 -0.6733
 4400SOL     OW23129  12.609   8.996  12.809 -0.3281 -0.2829  0.7887
 4400SOL    HW123130  12.541   8.937  12.778  0.8651 -0.2112 -2.3405
 4400SOL    HW223131  12.573   9.084  12.795  0.1530 -0.2531 -0.4098
 4401SOL     OW23132   9.934   1.165   9.592 -0.0849 -0.2247  0.4678
 4401SOL    HW123133   9.943   1.120   9.676  0.6837  1.4516  1.3387
 4401SOL    HW223134   9.876   1.239   9.611  1.0792  0.8841 -0.1490
 4402SOL     OW23135   6.588  12.056   5.907  0.3386  0.3422  0.1869
 4402SOL    HW123136   6.678  12.081   5.930  1.2577 -0.4064 -2.2408
 4402SOL    HW223137   6.596  11.966   5.875 -1.3340  0.1814  0.1408
 4403SOL     OW23138   2.072   9.379  10.737 -0.2880  0.1712 -1.0318
 4403SOL    HW123139   2.083   9.335  10.653  0.9927  0.7731 -1.2171
 4403SOL    HW223140   1.994   9.341  10.775  0.2465 -1.5681 -1.5975
 4404SOL     OW23141   6.498  13.010  13.119 -0.0740 -0.2436  0.3535
 4404SOL    HW123142   6.476  12.922  13.148  0.5155 -0.3833  0.3870
 4404SOL    HW223143   6.528  12.998  13.029  0.5749 -0.1630  0.5525
 4405SOL     OW23144  13.130   5.111   0.293 -0.6003  0.0189 -0.3756
 4405SOL    HW123145  13.065   5.041   0.293 -0.9336  0.3186 -0.7788
 4405SOL    HW223146  13.176   5.101   0.210  0.1437 -0.4365  0.0849
 4406SOL     OW23147   2.587  11.265  11.619  0.2903 -0.0486  0.7746
 4406SOL    HW123148   2.598  11.199  11.687  0.7003 -0.5046  0.2675
 4406SOL    HW223149   2.499  11.250  11.584  0.2825 -0.1473  0.8379
 4407SOL     OW23150   6.520   5.580   4.030 -0.1442 -0.7253 -0.0756
 4407SOL    HW123151   6.517   5.570   4.125 -0.8171  0.0777 -0.0015
 4407SOL    HW223152   6.613   5.590   4.010 -0.1633  2.3445  0.8932
 4408SOL     OW23153  10.912   3.621  10.361  0.5393  0.0832 -0.0658
 4408SOL    HW123154  10.845   3.663  10.415  1.4138  2.7061 -0.8853
 4408SOL    HW223155  10.968   3.576  10.424 -0.4361  0.1592  0.8785
 4409SOL     OW23156  12.794   6.353   2.046  0.3508  0.4570 -0.5231
 4409SOL    HW123157  12.841   6.341   1.963  0.1322  0.7645 -0.6907
 4409SOL    HW223158  12.794   6.266   2.085 -1.4599 -0.2045 -1.8548
 4410SOL     OW23159   7.477  10.112   6.052 -0.1458 -0.5064 -0.1736
 4410SOL    HW123160   7.572  10.119   6.041 -0.2233  0.7864 -0.1294
 4410SOL    HW223161   7.443  10.106   5.963 -0.1318  0.8551 -0.2907
 4411SOL     OW23162  10.688   7.881   6.798  0.5763 -0.4864  0.0834
 4411SOL    HW123163  10.762   7.931   6.763  0.8787 -2.1384 -1.7697
 4411SOL    HW223164  10.721   7.791   6.804 -0.2152 -0.6964  2.5506
 4412SOL     OW23165  12.290   6.512   6.247  0.0331 -0.4146 -0.3231
 4412SOL    HW123166  12.242   6.443   6.201  0.2085  1.0807 -2.9470
 4412SOL    HW223167  12.236   6.590   6.237  1.8903  0.8293 -1.4934
 4413SOL     OW23168   2.891   5.987   7.392 -0.7617 -0.0537 -0.3644
 4413SOL    HW123169   2.860   5.921   7.453  0.8298  0.2407  0.8405
 4413SOL    HW223170   2.913   5.938   7.313 -0.3904 -0.8590  0.2222
 4414SOL     OW23171   7.960   3.042   4.361  0.3625 -0.7811  0.1428
 4414SOL    HW123172   7.906   3.053   4.282  0.1742 -0.3260  0.3286
 4414SOL    HW223173   7.946   2.951   4.387 -0.4826 -0.6205  0.2999
 4415SOL     OW23174   3.432   5.022   6.956  0.3646  0.1412  0.1937
 4415SOL    HW123175   3.340   5.049   6.959 -0.0066 -1.1243  0.6944
 4415SOL    HW223176   3.473   5.086   6.898 -0.4678  1.7504  1.2762
 4416SOL     OW23177   6.684   6.206  13.283 -0.3161 -0.6114 -0.0921
 4416SOL    HW123178   6.651   6.190  13.194 -0.7419 -0.7606  0.0879
 4416SOL    HW223179   6.702   6.119  13.317 -3.5753 -0.9258  1.2464
 4417SOL     OW23180   3.990   9.104   8.153  0.9267 -0.0918  0.3776
 4417SOL    HW123181   3.934   9.182   8.155  1.7937  0.5673 -0.5336
 4417SOL    HW223182   3.942   9.040   8.206 -0.8027  0.3721 -0.5494
 4418SOL     OW23183   8.989   8.101   5.550 -0.0204  0.0965  0.2203
 4418SOL    HW123184   8.999   8.156   5.627  1.2539  0.6902 -0.3420
 4418SOL    HW223185   8.900   8.067   5.556 -0.0689  0.4315  1.7466
 4419SOL     OW23186   1.095   8.957   6.924  0.4663  0.2093  0.2105
 4419SOL    HW123187   1.169   9.018   6.932  0.7614 -0.0809 -0.2910
 4419SOL    HW223188   1.094   8.911   7.008  1.0816 -0.0406  0.0868
 4420SOL     OW23189   8.386  13.183  10.167  0.5378  0.0976  0.6452
 4420SOL    HW123190   8.422  13.129  10.097 -1.2510  0.5636 -0.7226
 4420SOL    HW223191   8.364  13.266  10.124  0.2309  0.7306  1.9703
 4421SOL     OW23192   8.037   6.427   2.205 -0.0381 -0.2054  0.4963
 4421SOL    HW123193   8.069   6.438   2.295 -0.7262  3.1562  0.4846
 4421SOL    HW223194   7.943   6.413   2.215  0.0006 -0.5723  0.3313
 4422SOL     OW23195   6.668   5.863   5.749 -0.3804 -0.3356  0.2291
 4422SOL    HW123196   6.653   5.958   5.749 -1.2123 -0.4576 -0.0196
 4422SOL    HW223197   6.604   5.829   5.687  2.8579 -0.6572 -3.2776
 4423SOL     OW23198   8.285  13.123   6.936 -0.1681 -0.0772  0.2327
 4423SOL    HW123199   8.337  13.195   6.901 -2.1426  0.5682 -1.5387
 4423SOL    HW223200   8.329  13.100   7.018  1.3416  2.1660  0.1443
 4424SOL     OW23201  13.226   1.707   9.466 -0.1756 -0.6040  0.1697
 4424SOL    HW123202  13.194   1.618   9.452 -0.7801 -0.1930 -1.2517
 4424SOL    HW223203  13.318   1.696   9.488 -0.3107 -1.5925  0.2797
 4425SOL     OW23204   1.252   8.692   0.209 -0.1364 -0.2708 -0.6739
 4425SOL    HW123205   1.193   8.766   0.220  0.1731 -0.0419 -0.5109
 4425SOL    HW223206   1.254   8.649   0.294 -1.4711 -1.3636 -1.1562
 4426SOL     OW23207   2.633   5.712  10.618  0.3599  0.2029 -0.3102
 4426SOL    HW123208   2.698   5.780  10.638  1.9865 -0.6853 -2.2009
 4426SOL    HW223209   2.603   5.734  10.529 -0.3659 -0.6012 -0.2703
 4427SOL     OW23210   3.532   2.111   1.718  0.1561  0.4387 -0.1330
 4427SOL    HW123211   3.508   2.149   1.803 -1.2124  0.2199 -0.4007
 4427SOL    HW223212   3.530   2.185   1.657  0.7432  0.5240 -0.0497
 4428SOL     OW23213   4.827  12.432   0.125 -1.0236 -0.4360 -0.5070
 4428SOL    HW123214   4.819  12.527   0.112  0.6011 -0.1300  0.5333
 4428SOL    HW223215   4.900  12.422   0.185 -0.3958 -2.4338 -1.5350
 4429SOL     OW23216  12.489   3.944   0.228  0.5614 -0.4991  0.1099
 4429SOL    HW123217  12.516   3.867   0.177  1.9027 -0.4638  0.7262
 4429SOL    HW223218  12.428   3.910   0.293  1.1159 -1.0445  0.3531
 4430SOL     OW23219   5.479   8.271   9.256 -0.4440 -0.5871 -0.2270
 4430SOL    HW123220   5.472   8.256   9.350  0.0409 -1.8300 -0.3737
 4430SOL    HW223221   5.460   8.364   9.245  2.0473  0.1983  1.3799
 4431SOL     OW23222   4.229   0.962  11.980 -0.2644  0.1198  0.3984
 4431SOL    HW123223   4.303   0.943  12.038 -0.5899 -0.7267  0.5430
 4431SOL    HW223224   4.261   0.940  11.893  0.2350  1.4210  0.2357
 4432SOL     OW23225   0.186   1.072   9.163  0.2810 -0.0645 -0.2840
 4432SOL    HW123226   0.111   1.051   9.107 -1.0288  0.0570  1.3363
 4432SOL    HW223227   0.249   1.112   9.104 -0.3699 -1.3715 -1.9619
 4433SOL     OW23228   5.654   1.756   2.410  0.2286 -0.4178  0.2584
 4433SOL    HW123229   5.613   1.778   2.494  0.5692  1.3865 -0.0027
 4433SOL    HW223230   5.651   1.838   2.360  0.7870 -1.2372 -1.1860
 4434SOL     OW23231   2.280   8.996   3.158  0.0493 -0.1547 -0.2836
 4434SOL    HW123232   2.207   8.939   3.136 -0.9335  1.1853 -0.6337
 4434SOL    HW223233   2.255   9.082   3.122 -0.3757  1.5379  3.5384
 4435SOL     OW23234   9.195   8.475  12.699 -0.4148 -0.2537  0.3087
 4435SOL    HW123235   9.230   8.411  12.762 -0.8720  0.0370  0.8665
 4435SOL    HW223236   9.113   8.505  12.739 -0.0412  0.9312  0.2082
 4436SOL     OW23237   5.256  12.979   7.929 -0.1600  0.2850 -0.4368
 4436SOL    HW123238   5.343  12.962   7.965  0.0431  1.2418 -0.4609
 4436SOL    HW223239   5.210  13.026   7.999 -1.3150 -1.7991  0.3243
 4437SOL     OW23240   8.120   7.618  11.875  0.3498 -0.0167 -0.2786
 4437SOL    HW123241   8.192   7.577  11.923 -0.9364 -2.4250 -0.2453
 4437SOL    HW223242   8.161   7.657  11.798  2.0199  1.1622  1.1320
 4438SOL     OW23243  12.146  12.452   2.168 -0.0389 -0.4124  0.1818
 4438SOL    HW123244  12.156  12.418   2.079  0.8399  0.2610  0.0101
 4438SOL    HW223245  12.225  12.503   2.183 -1.9786  3.0266 -0.2154
 4439SOL     OW23246   1.969   6.238   5.408  0.3927 -0.1042 -0.0691
 4439SOL    HW123247   1.896   6.294   5.381  0.4665  0.1800  0.3134
 4439SOL    HW223248   1.985   6.262   5.499  0.3403 -0.8475  0.1418
 4440SOL     OW23249  11.175   7.261  10.895 -0.1329 -0.2874  0.1849
 4440SOL    HW123250  11.143   7.352  10.898 -0.3762 -0.3825  0.6440
 4440SOL    HW223251  11.256   7.263  10.947  0.7585  0.0036 -1.1785
 4441SOL     OW23252  11.237  11.229  10.883  0.8971  0.0449  0.1095
 4441SOL    HW123253  11.294  11.152  10.888 -0.8712 -1.2822  1.6930
 4441SOL    HW223254  11.217  11.238  10.790  2.0358 -0.7222 -0.2306
 4442SOL     OW23255   3.831   5.432   2.943 -0.1463  0.8184  0.5468
 4442SOL    HW123256   3.831   5.487   2.865  0.3030  2.3955  1.5944
 4442SOL    HW223257   3.739   5.411   2.958 -0.3239  1.2360  0.0739
 4443SOL     OW23258   8.191   8.823   0.245  0.3979 -0.1842  0.4275
 4443SOL    HW123259   8.273   8.778   0.261  0.0600 -1.1525 -0.4185
 4443SOL    HW223260   8.207   8.913   0.270  1.7282 -0.3567  0.2527
 4444SOL     OW23261  10.437   0.372  11.755 -0.0623  0.2173 -0.0816
 4444SOL    HW123262  10.485   0.297  11.791 -0.0348 -0.6666 -1.8306
 4444SOL    HW223263  10.352   0.336  11.730 -0.0240  0.7482 -1.0140
 4445SOL     OW23264  11.405   4.459   0.097  0.0198  0.3079 -0.4370
 4445SOL    HW123265  11.392   4.551   0.074 -1.3519  0.2353 -0.0226
 4445SOL    HW223266  11.500   4.449   0.099  0.2108  1.8296 -0.0410
 4446SOL     OW23267   4.145   5.777  10.641  0.2626  0.3260  0.1318
 4446SOL    HW123268   4.077   5.716  10.669  1.3280 -0.1556  1.8163
 4446SOL    HW223269   4.145   5.845  10.708  1.5580  0.1970  0.2996
 4447SOL     OW23270   5.114   5.626   8.653  0.0775 -0.1669  0.1807
 4447SOL    HW123271   5.157   5.591   8.575  0.8558 -1.2391  1.0655
 4447SOL    HW223272   5.152   5.713   8.665  1.8988 -1.0020  0.8168
 4448SOL     OW23273   3.032   4.744   4.850  1.1256 -0.5465 -0.2251
 4448SOL    HW123274   2.991   4.670   4.894  0.8471 -1.0678 -1.3234
 4448SOL    HW223275   3.024   4.817   4.912 -2.3932 -0.3449 -0.7459
 4449SOL     OW23276  10.286  12.799   6.629 -0.1328 -0.0126  0.3973
 4449SOL    HW123277  10.215  12.821   6.569 -0.8729 -0.2691  1.1572
 4449SOL    HW223278  10.272  12.707   6.650 -0.2579  0.2248  1.4277
 4450SOL     OW23279   6.435   1.825  11.483  0.1434 -0.8444 -0.3565
 4450SOL    HW123280   6.366   1.888  11.501 -0.2653 -1.0406 -1.2020
 4450SOL    HW223281   6.515   1.876  11.479 -0.1273 -0.4396 -0.6122
 4451SOL     OW23282   2.578   2.116   5.512  0.7014 -0.8966 -0.3527
 4451SOL    HW123283   2.495   2.163   5.517  1.6490  0.7628  0.9258
 4451SOL    HW223284   2.574   2.067   5.430 -1.4452 -0.7155 -0.3968
 4452SOL     OW23285  10.388   5.114   4.005 -0.3941 -0.0040 -0.2236
 4452SOL    HW123286  10.479   5.090   3.990  0.0940  1.3311  0.4443
 4452SOL    HW223287  10.346   5.107   3.919  0.6811  0.7675 -0.8320
 4453SOL     OW23288   9.826   9.722   6.667  0.0115  0.3153 -0.4126
 4453SOL    HW123289   9.843   9.808   6.629 -0.9098  1.2450  1.1507
 4453SOL    HW223290   9.774   9.676   6.601 -0.8830  1.5876 -0.6332
 4454SOL     OW23291   4.036   7.727   9.047 -0.1457 -0.4253 -0.8034
 4454SOL    HW123292   4.057   7.818   9.068 -1.0126  0.1472 -2.2808
 4454SOL    HW223293   4.035   7.724   8.951  0.9271 -2.2566 -0.7893
 4455SOL     OW23294   3.807   8.227   6.890 -0.3567 -0.0586 -0.4182
 4455SOL    HW123295   3.821   8.248   6.983  0.0300 -1.8648 -0.0260
 4455SOL    HW223296   3.717   8.255   6.872 -1.5481 -2.3723  1.3825
 4456SOL     OW23297   0.134   1.861   5.340  0.6031  0.4192  0.1437
 4456SOL    HW123298   0.083   1.825   5.268  0.3032 -0.8664  0.9717
 4456SOL    HW223299   0.222   1.872   5.305  0.4290 -0.0781 -0.4503
 4457SOL     OW23300   6.191   9.653   3.537 -0.2657  0.0817 -0.6292
 4457SOL    HW123301   6.269   9.626   3.587 -0.5968 -1.7300 -1.0118
 4457SOL    HW223302   6.197   9.603   3.456 -1.4230  0.5415 -1.0090
 4458SOL     OW23303   1.754   9.516   2.105  0.6702  0.4827 -0.2133
 4458SOL    HW123304   1.694   9.588   2.085 -0.1103 -0.2180 -0.4654
 4458SOL    HW223305   1.839   9.545   2.071  0.9177  2.2640  1.7709
 4459SOL     OW23306   4.789  10.510   6.042 -0.1308 -0.0296  0.0404
 4459SOL    HW123307   4.757  10.427   6.005 -0.0634  0.0635 -0.2318
 4459SOL    HW223308   4.750  10.514   6.129  1.0590 -1.0661  0.6529
 4460SOL     OW23309  11.654   8.426   2.627  0.5581  0.2589  0.0516
 4460SOL    HW123310  11.589   8.363   2.597  0.9446 -0.2297  0.2187
 4460SOL    HW223311  11.719   8.429   2.556  0.1342  1.0742 -0.3092
 4461SOL     OW23312   3.278   6.853   7.140 -0.1737 -0.1374  0.1233
 4461SOL    HW123313   3.191   6.821   7.162 -0.7809  0.6590 -1.0678
 4461SOL    HW223314   3.305   6.802   7.064  0.1364  0.0618  0.0955
 4462SOL     OW23315  12.095   9.199  10.498 -0.7688 -0.7077 -0.8168
 4462SOL    HW123316  12.136   9.271  10.545  0.5849 -1.4412 -0.8220
 4462SOL    HW223317  12.110   9.123  10.554 -1.8912 -1.0590 -0.9632
 4463SOL     OW23318  12.398   4.929   7.725  0.0199 -0.2198  0.1658
 4463SOL    HW123319  12.402   5.024   7.714  1.3606 -0.2119  0.5142
 4463SOL    HW223320  12.489   4.899   7.713 -0.0999 -1.2730  1.5518
 4464SOL     OW23321   5.043  10.929  11.107  0.3751  0.1052 -0.8866
 4464SOL    HW123322   5.068  10.841  11.079  0.3074 -0.8898  1.8880
 4464SOL    HW223323   5.117  10.959  11.160 -0.5004  0.8223 -0.0402
 4465SOL     OW23324  11.608   0.477   7.674  0.0891 -0.2295 -0.1146
 4465SOL    HW123325  11.689   0.427   7.684 -0.0558 -0.4370  0.0052
 4465SOL    HW223326  11.609   0.506   7.583  1.2887  1.4597  0.3845
 4466SOL     OW23327   0.404   1.960  10.453 -0.2170  0.2957  0.2819
 4466SOL    HW123328   0.473   1.930  10.513  0.3805 -2.7762 -1.7121
 4466SOL    HW223329   0.330   1.903  10.471 -0.8777  0.9698 -0.2524
 4467SOL     OW23330   6.236  12.044   9.737  0.1457  0.4866  0.4424
 4467SOL    HW123331   6.181  12.116   9.769 -1.7859  0.0916 -1.6917
 4467SOL    HW223332   6.202  12.026   9.649  3.4244 -0.1520 -0.8273
 4468SOL     OW23333  11.504   8.980   4.536 -0.1002 -0.1614 -0.2537
 4468SOL    HW123334  11.486   9.074   4.538 -0.0207 -0.0878 -1.8262
 4468SOL    HW223335  11.577   8.969   4.597  0.0242  0.8248 -0.1996
 4469SOL     OW23336  12.446   6.288   6.049  0.3003  0.7034  0.0276
 4469SOL    HW123337  12.493   6.353   6.101  0.6676  1.7844 -1.6084
 4469SOL    HW223338  12.478   6.300   5.960  0.3270 -1.6942 -0.3549
 4470SOL     OW23339   0.133  11.800   1.688  0.7017  0.1423 -0.1469
 4470SOL    HW123340   0.137  11.786   1.593  2.6053 -1.8641  0.1552
 4470SOL    HW223341   0.170  11.720   1.725 -0.3523  0.7322  2.3304
 4471SOL     OW23342   0.930  12.953   7.371 -0.4310 -0.3485  0.4104
 4471SOL    HW123343   1.021  12.973   7.350 -0.7012  0.0032 -0.4700
 4471SOL    HW223344   0.933  12.865   7.408  0.1641 -0.7098 -0.4570
 4472SOL     OW23345   0.566  10.257   5.482  0.4064 -0.4603 -0.0031
 4472SOL    HW123346   0.578  10.169   5.446 -0.2427 -0.6182  0.1612
 4472SOL    HW223347   0.477  10.257   5.516  0.4791  0.1947  0.1936
 4473SOL     OW23348   5.639  10.637   3.727  0.6418  0.4209  0.2822
 4473SOL    HW123349   5.573  10.610   3.663  0.3608  0.6145  0.4865
 4473SOL    HW223350   5.590  10.645   3.809  0.9271  0.5311  0.4430
 4474SOL     OW23351   9.436   1.451   1.966  0.2382  0.0657 -0.0966
 4474SOL    HW123352   9.373   1.434   1.896 -2.3930 -0.8836  2.3645
 4474SOL    HW223353   9.416   1.540   1.994  0.4855  0.0120  0.2511
 4475SOL     OW23354   7.411   7.095  11.819 -0.5735  0.1507  0.5358
 4475SOL    HW123355   7.359   7.018  11.793  1.3577 -1.5098  1.2689
 4475SOL    HW223356   7.473   7.060  11.883 -0.0288  2.5002  1.3740
 4476SOL     OW23357  12.890   1.792   6.566  0.0847 -0.1347 -0.0892
 4476SOL    HW123358  12.825   1.841   6.515  0.0693 -1.2937 -1.2313
 4476SOL    HW223359  12.956   1.766   6.503 -0.6883 -2.8990  0.1008
 4477SOL     OW23360   1.615   7.551  11.447 -0.2162  0.4973  0.3852
 4477SOL    HW123361   1.569   7.634  11.438  0.1663  0.6283 -0.4857
 4477SOL    HW223362   1.554   7.494  11.495 -0.2384  1.4571  1.5328
 4478SOL     OW23363   4.513  10.315  11.044 -0.3979  0.2693 -0.3203
 4478SOL    HW123364   4.482  10.357  10.963  0.2945  1.1566 -0.1329
 4478SOL    HW223365   4.606  10.303  11.030 -0.3929 -0.1746  0.0928
 4479SOL     OW23366   6.596   6.705  12.379 -0.0699  0.0380 -0.2933
 4479SOL    HW123367   6.509   6.720  12.342  0.1503 -0.5921 -1.0974
 4479SOL    HW223368   6.595   6.753  12.462 -1.3484 -0.3861 -0.0424
 4480SOL     OW23369   1.671  12.994   6.198 -0.0810  0.7143 -0.3800
 4480SOL    HW123370   1.661  12.946   6.116  0.4591  0.3185 -0.2131
 4480SOL    HW223371   1.582  13.023   6.219 -0.4373 -0.3140 -0.4216
 4481SOL     OW23372   6.305   6.118   9.947 -0.4193  0.1356  0.3758
 4481SOL    HW123373   6.338   6.029   9.952 -0.9936 -0.1055  0.0665
 4481SOL    HW223374   6.258   6.121   9.863  1.3067  1.3267 -0.6099
 4482SOL     OW23375   9.848   3.292  13.063  0.2519 -0.5247 -0.0048
 4482SOL    HW123376   9.808   3.206  13.051  0.3092 -0.2954 -2.2593
 4482SOL    HW223377   9.912   3.299  12.992  1.3608  0.7752  1.0622
 4483SOL     OW23378  12.661   0.070   6.267  0.4176  0.4488  0.4193
 4483SOL    HW123379  12.615   0.024   6.337  0.4612  0.6380  0.5728
 4483SOL    HW223380  12.672   0.159   6.300  0.8364  0.4234  0.3559
 4484SOL     OW23381   1.859   3.715  10.760  0.3940  0.0652  0.2538
 4484SOL    HW123382   1.854   3.776  10.834  0.1253  0.4898 -0.1103
 4484SOL    HW223383   1.870   3.629  10.801  0.9649  0.3702  0.7726
 4485SOL     OW23384   2.721   1.653   6.734  0.3176  0.0300  0.5320
 4485SOL    HW123385   2.774   1.664   6.813 -0.2502  0.8078  0.8167
 4485SOL    HW223386   2.668   1.576   6.751  0.7147 -0.2259  0.6149
 4486SOL     OW23387   7.163  10.294  10.981  0.0690 -0.0389  0.8685
 4486SOL    HW123388   7.244  10.315  10.934  0.3504 -0.4351  1.1759
 4486SOL    HW223389   7.106  10.369  10.963 -1.2653 -1.7727 -3.2521
 4487SOL     OW23390   1.536   2.831  11.266  0.5689  0.2042 -0.2075
 4487SOL    HW123391   1.449   2.856  11.235  0.8846  2.3723  0.5075
 4487SOL    HW223392   1.596   2.865  11.200  1.1229  3.2406  1.6469
 4488SOL     OW23393   2.596   1.269   4.997  0.1633 -0.2399  0.2386
 4488SOL    HW123394   2.559   1.320   4.925 -0.7858  1.2694  1.7104
 4488SOL    HW223395   2.590   1.178   4.967  0.4029  0.3607 -1.8199
 4489SOL     OW23396   6.651  10.918   8.135  0.2752  0.4857 -0.4752
 4489SOL    HW123397   6.577  10.977   8.123  0.2808  0.5259 -0.3077
 4489SOL    HW223398   6.701  10.955   8.207 -0.6067 -0.5917  0.7377
 4490SOL     OW23399   5.110   9.437   4.176 -0.7266  0.2698  0.4975
 4490SOL    HW123400   5.128   9.531   4.186 -1.4529  0.5651 -0.7333
 4490SOL    HW223401   5.088   9.407   4.264  0.8946  0.9326  1.1700
 4491SOL     OW23402  11.616  11.371  12.550  0.2568 -0.2404 -0.1828
 4491SOL    HW123403  11.661  11.444  12.592  0.3465 -0.4383  0.0676
 4491SOL    HW223404  11.524  11.398  12.546  0.3435  0.0234 -0.3919
 4492SOL     OW23405  13.232   0.558   9.258 -0.3652 -0.3819  0.5037
 4492SOL    HW123406  13.215   0.518   9.173 -0.7545 -2.5428  1.5430
 4492SOL    HW223407  13.150   0.601   9.281 -0.8835 -1.4015  0.6055
 4493SOL     OW23408   0.341   2.178   9.198  0.1301  0.0580  0.1258
 4493SOL    HW123409   0.319   2.270   9.213 -0.6620 -0.0327 -0.4503
 4493SOL    HW223410   0.436   2.178   9.188  0.1834  0.7526  0.5694
 4494SOL     OW23411   3.516   5.280   3.748 -0.0876 -0.0917 -0.6400
 4494SOL    HW123412   3.555   5.343   3.687  0.7326 -0.5651 -0.6230
 4494SOL    HW223413   3.519   5.324   3.833  0.6262 -0.2030 -0.6010
 4495SOL     OW23414   2.748   0.201   8.515  0.4617 -0.0192 -0.3795
 4495SOL    HW123415   2.657   0.227   8.509 -0.0738 -1.8365 -0.6800
 4495SOL    HW223416   2.755   0.159   8.601  0.7289 -0.8615 -0.8030
 4496SOL     OW23417   8.711   3.646   2.582  0.1986 -0.5340 -0.0885
 4496SOL    HW123418   8.769   3.675   2.512 -0.3107  0.2614 -0.1931
 4496SOL    HW223419   8.644   3.714   2.588  0.8074 -0.0281  1.8691
 4497SOL     OW23420   3.494   8.108   8.435 -0.6664 -0.0346  0.3986
 4497SOL    HW123421   3.584   8.133   8.411 -0.4072 -1.4150 -0.1643
 4497SOL    HW223422   3.443   8.188   8.421 -0.1192 -0.0752 -2.6843
 4498SOL     OW23423  11.048   3.794  11.696 -0.4931  0.0327  0.1888
 4498SOL    HW123424  11.038   3.726  11.629 -1.1420  0.5218 -0.2178
 4498SOL    HW223425  10.971   3.784  11.752 -0.4504  0.2653  0.2881
 4499SOL     OW23426  11.813   4.415   6.018 -0.2628 -0.1723 -0.1816
 4499SOL    HW123427  11.859   4.481   6.069  0.3618  1.4692 -2.6590
 4499SOL    HW223428  11.878   4.383   5.956 -1.7560  0.4344 -2.1803
 4500SOL     OW23429   2.624   9.383   1.034 -0.3162 -0.0389  0.2069
 4500SOL    HW123430   2.678   9.403   0.957 -1.5510  1.6058 -0.3070
 4500SOL    HW223431   2.645   9.452   1.097  0.8827 -1.5296  1.5066
 4501SOL     OW23432   8.116   4.878   2.164 -0.1646 -0.0169  0.3232
 4501SOL    HW123433   8.184   4.848   2.103 -0.1507 -0.8778  0.7508
 4501SOL    HW223434   8.160   4.941   2.220 -0.6707  2.4317 -1.8602
 4502SOL     OW23435  10.833  10.727   1.068 -0.5902  0.3686 -0.3460
 4502SOL    HW123436  10.907  10.719   1.008  1.1111  0.4735  1.6287
 4502SOL    HW223437  10.796  10.814   1.050  1.7527  1.6591  0.6979
 4503SOL     OW23438  12.491  11.068   4.269 -0.1031 -0.3722  0.1807
 4503SOL    HW123439  12.435  11.129   4.317  1.2705 -0.4974  1.9975
 4503SOL    HW223440  12.557  11.123   4.228 -0.7556 -0.3617 -0.9213
 4504SOL     OW23441   2.557   4.096   5.939  0.2042 -0.1114 -0.1169
 4504SOL    HW123442   2.634   4.040   5.950 -0.7279 -1.7215 -1.3862
 4504SOL    HW223443   2.491   4.058   5.997 -0.6076 -0.6836 -1.3883
 4505SOL     OW23444   9.238  12.193   1.093  0.1314  0.3368 -0.2200
 4505SOL    HW123445   9.222  12.135   1.019 -1.2690 -0.1478  0.4137
 4505SOL    HW223446   9.253  12.279   1.055 -2.7226  0.5768 -1.0728
 4506SOL     OW23447   9.780   9.750   2.537 -0.5366 -0.4873  0.2782
 4506SOL    HW123448   9.771   9.701   2.455 -0.8853 -0.0695  0.0648
 4506SOL    HW223449   9.690   9.770   2.563 -0.4020 -0.0952  0.4464
 4507SOL     OW23450  12.709   4.682   6.432  0.2242  0.3655  0.1821
 4507SOL    HW123451  12.722   4.588   6.444 -0.0777  0.3362  0.2833
 4507SOL    HW223452  12.744   4.701   6.345  0.2548  0.1547  0.1498
 4508SOL     OW23453  12.641   1.106   6.674 -0.1482 -0.3213 -0.7810
 4508SOL    HW123454  12.572   1.054   6.715 -0.4035  1.4208  1.1585
 4508SOL    HW223455  12.596   1.159   6.609 -0.8079  1.2226  0.8691
 4509SOL     OW23456   0.280  13.071   1.498  0.2087  0.0125  0.1500
 4509SOL    HW123457   0.215  13.019   1.545 -0.5807 -1.7833 -2.6726
 4509SOL    HW223458   0.230  13.118   1.431  1.4457  1.1227 -0.0412
 4510SOL     OW23459  12.026   8.306   9.035 -0.5249  0.2625 -0.7331
 4510SOL    HW123460  11.945   8.295   8.986 -1.8553 -0.5215  1.5001
 4510SOL    HW223461  12.012   8.257   9.116  2.4055 -0.3502 -0.4871
 4511SOL     OW23462  11.555  12.076  11.881  0.4665 -0.1556 -0.7807
 4511SOL    HW123463  11.490  12.131  11.926  0.3136  0.3606 -1.6063
 4511SOL    HW223464  11.502  12.013  11.832  0.6273 -2.6138  1.9207
 4512SOL     OW23465  12.823   7.845   5.283 -0.5770  0.0933  0.1984
 4512SOL    HW123466  12.826   7.789   5.361  0.3649  0.9980  0.8494
 4512SOL    HW223467  12.805   7.932   5.318 -1.9880  0.2183 -0.7925
 4513SOL     OW23468   3.790   3.871   1.717 -0.6598 -0.2340  0.2337
 4513SOL    HW123469   3.709   3.819   1.714 -0.8484  0.1046 -2.1363
 4513SOL    HW223470   3.767   3.954   1.676  0.4821  0.5102  1.0440
 4514SOL     OW23471   9.432   8.339  13.186 -0.2040 -0.3607  0.3598
 4514SOL    HW123472   9.410   8.416  13.134 -0.8555 -0.7303  0.0808
 4514SOL    HW223473   9.355   8.325  13.242 -0.4093 -1.2621 -0.1321
 4515SOL     OW23474  11.895   9.873   5.007  0.5852  0.3771  0.3867
 4515SOL    HW123475  11.880   9.908   4.919 -0.8094  0.7035  0.7171
 4515SOL    HW223476  11.978   9.912   5.034  0.7839  0.6744 -0.5881
 4516SOL     OW23477   5.073   5.152   8.295 -0.1615  0.6063  0.0718
 4516SOL    HW123478   5.034   5.144   8.208 -0.7585 -1.5380  0.4754
 4516SOL    HW223479   5.125   5.072   8.306  0.1429  0.9739  1.5699
 4517SOL     OW23480  12.082  13.062   4.297  0.5913 -0.0556  0.6770
 4517SOL    HW123481  12.158  13.120   4.300 -0.2906  1.0886  1.9642
 4517SOL    HW223482  12.069  13.033   4.387  0.1135 -1.0808  0.3044
 4518SOL     OW23483  10.764   3.560   3.990 -0.2163  0.2780 -0.3723
 4518SOL    HW123484  10.812   3.625   3.939  0.4778 -0.6862 -0.9808
 4518SOL    HW223485  10.726   3.501   3.924 -1.5251  0.5094  0.1319
 4519SOL     OW23486   4.709  11.300  12.842  0.2624  0.1496 -0.5441
 4519SOL    HW123487   4.724  11.221  12.791  0.7462  1.0762 -1.8872
 4519SOL    HW223488   4.794  11.318  12.884 -0.5359 -1.5382  2.0767
 4520SOL     OW23489  12.078   6.517   3.812 -0.0416  0.0209  0.2510
 4520SOL    HW123490  12.126   6.457   3.755 -1.0357 -0.3287 -0.2433
 4520SOL    HW223491  12.142   6.584   3.836  0.9672 -0.9923  0.4675
 4521SOL     OW23492   3.912  12.868   1.960  0.1266  0.1564  0.3032
 4521SOL    HW123493   3.925  12.780   1.925  1.8004 -0.3088  1.8822
 4521SOL    HW223494   3.818  12.884   1.952 -0.0348 -1.2553 -1.1586
 4522SOL     OW23495  12.057  12.854   8.015  0.2022 -0.3762  0.1269
 4522SOL    HW123496  12.083  12.931   8.065  0.6788  0.4407 -1.3126
 4522SOL    HW223497  12.090  12.871   7.926  1.1279 -2.6397 -0.0328
 4523SOL     OW23498  13.161   0.935  12.633 -0.2068 -0.0360 -0.2125
 4523SOL    HW123499  13.139   0.848  12.665  0.8744  0.0572  0.8358
 4523SOL    HW223500  13.213   0.920  12.554  1.1911 -0.3788  0.7644
 4524SOL     OW23501   0.201   2.719   8.244 -0.9262 -0.4421  0.7141
 4524SOL    HW123502   0.224   2.720   8.151  0.2464 -2.5368  0.8983
 4524SOL    HW223503   0.228   2.805   8.276 -0.2463 -0.1071 -0.6494
 4525SOL     OW23504   7.004  10.159   2.923  0.6904 -0.0596 -0.6659
 4525SOL    HW123505   6.972  10.122   3.005  0.6969  1.7714  0.2151
 4525SOL    HW223506   6.952  10.239   2.911  1.3062  0.1689 -1.9799
 4526SOL     OW23507  11.282   0.731   4.460 -0.2379 -0.1335 -0.2219
 4526SOL    HW123508  11.326   0.798   4.408  0.8094  0.5220  1.4224
 4526SOL    HW223509  11.192   0.763   4.469 -0.0963  0.3769 -0.5530
 4527SOL     OW23510   7.507   9.020   4.598 -0.2441 -0.2984  0.0404
 4527SOL    HW123511   7.568   9.025   4.672 -1.8545  0.5882  1.3588
 4527SOL    HW223512   7.477   8.929   4.599  0.7665 -0.6557 -0.4123
 4528SOL     OW23513  11.003  13.283   2.755 -0.9596  0.0232 -0.2262
 4528SOL    HW123514  11.064  13.241   2.815 -0.0792  0.0462 -1.0799
 4528SOL    HW223515  10.957  13.348   2.808  0.5783  0.8072  0.1868
 4529SOL     OW23516  11.452   5.100   3.220 -0.2794 -0.4158  0.0458
 4529SOL    HW123517  11.398   5.073   3.146 -0.1057 -0.6509  0.0082
 4529SOL    HW223518  11.495   5.180   3.190 -1.2962  0.2853  0.3847
 4530SOL     OW23519  11.014   2.293   3.815  0.1804  0.5775  0.1097
 4530SOL    HW123520  11.080   2.300   3.746  0.7509  1.1804  0.6943
 4530SOL    HW223521  11.020   2.202   3.844  1.3889  0.8307  0.7393
 4531SOL     OW23522   5.862   0.957   7.131  0.4580 -0.4694 -0.0767
 4531SOL    HW123523   5.874   1.051   7.145 -0.3002 -0.2845 -0.5847
 4531SOL    HW223524   5.770   0.948   7.106  0.6320 -1.2904 -0.4639
 4532SOL     OW23525  10.508   4.323  13.234 -0.1553 -0.2441 -0.0211
 4532SOL    HW123526  10.453   4.390  13.193 -0.3831 -0.5076 -0.1466
 4532SOL    HW223527  10.575   4.373  13.280  0.7870  0.0547 -1.6311
 4533SOL     OW23528   2.923  10.407  11.456  0.4873  0.6540  0.3481
 4533SOL    HW123529   2.856  10.353  11.499  1.5565  0.7239  2.2335
 4533SOL    HW223530   2.877  10.449  11.384 -1.3619  0.2463  1.2174
 4534SOL     OW23531  12.062   4.733   4.348  0.4485 -0.4878  0.2409
 4534SOL    HW123532  12.118   4.734   4.426 -0.6856  0.9974  1.1118
 4534SOL    HW223533  11.984   4.685   4.375 -0.2170  0.5630  0.2716
 4535SOL     OW23534   6.142   2.369   1.867  0.0140 -0.1547 -0.0651
 4535SOL    HW123535   6.053   2.341   1.843 -0.2370  0.2646  0.3506
 4535SOL    HW223536   6.138   2.380   1.962  1.0299 -1.9511  0.2155
 4536SOL     OW23537   6.707  12.749   8.789  0.0992 -0.4796  0.4052
 4536SOL    HW123538   6.710  12.675   8.849  1.3571 -1.4451 -0.7982
 4536SOL    HW223539   6.785  12.740   8.735 -0.6445  0.7171 -0.9454
 4537SOL     OW23540   6.239   9.174  12.377 -0.2758 -0.3722 -0.2321
 4537SOL    HW123541   6.288   9.230  12.437 -1.5479 -0.1927  0.6593
 4537SOL    HW223542   6.307   9.135  12.321  1.1514 -1.7882  2.2905
 4538SOL     OW23543   8.948   2.970   2.086 -0.1867 -0.1634 -0.4313
 4538SOL    HW123544   8.860   2.955   2.120 -0.4998  0.6282 -0.8458
 4538SOL    HW223545   8.987   3.034   2.146 -0.4989  0.7286 -1.1616
 4539SOL     OW23546   5.748   8.587   2.413  0.5212  0.0819  0.3869
 4539SOL    HW123547   5.717   8.672   2.443  1.7622  1.0789 -1.0477
 4539SOL    HW223548   5.668   8.536   2.399 -0.2137  0.8279  1.6980
 4540SOL     OW23549   1.231   2.151   4.470 -0.8186  0.2812  0.1732
 4540SOL    HW123550   1.288   2.131   4.396 -0.8902  0.1538  0.1530
 4540SOL    HW223551   1.183   2.070   4.487 -0.5278  0.1919  0.6000
 4541SOL     OW23552   4.992   3.468   1.539  0.0629 -0.3060  0.2140
 4541SOL    HW123553   5.076   3.467   1.585  0.9462 -0.2583 -1.3291
 4541SOL    HW223554   4.999   3.541   1.478 -0.5146 -1.2118 -0.9756
 4542SOL     OW23555   9.940  10.482   5.499  0.3007  0.0414  0.3913
 4542SOL    HW123556   9.894  10.473   5.415  2.0216 -2.1301 -0.3878
 4542SOL    HW223557   9.873  10.463   5.565 -0.4220 -1.0107 -0.6162
 4543SOL     OW23558   6.236   0.665   5.525  0.3626  0.0759 -0.1518
 4543SOL    HW123559   6.286   0.643   5.446 -0.8558 -1.6778 -0.4882
 4543SOL    HW223560   6.285   0.737   5.565  3.3247 -1.7239 -0.2846
 4544SOL     OW23561   0.223   9.690  12.023  0.1120  0.8504 -0.1590
 4544SOL    HW123562   0.243   9.614  11.967  2.1798  2.1928 -1.3490
 4544SOL    HW223563   0.157   9.739  11.973 -0.7428  0.2269  0.3158
 4545SOL     OW23564   3.749   9.521  11.525  0.1217 -0.7792 -0.0476
 4545SOL    HW123565   3.830   9.510  11.475  0.5002 -2.2513  0.8180
 4545SOL    HW223566   3.736   9.436  11.567 -1.6968 -0.4472  0.1120
 4546SOL     OW23567   9.985   9.370  12.246  0.4096  0.0092 -0.2686
 4546SOL    HW123568   9.992   9.394  12.153  1.5845 -1.2055 -0.5271
 4546SOL    HW223569   9.941   9.445  12.286  0.8844  1.0668 -1.6060
 4547SOL     OW23570   2.748   1.231   4.049 -0.7619  0.2097 -0.3662
 4547SOL    HW123571   2.761   1.142   4.081 -1.3688  0.5563  0.9448
 4547SOL    HW223572   2.776   1.229   3.957 -1.2587 -1.4406 -0.5037
 4548SOL     OW23573   4.384   8.715   6.586 -0.2348 -0.1636  0.0704
 4548SOL    HW123574   4.329   8.646   6.623  1.2198 -1.0619  0.6436
 4548SOL    HW223575   4.416   8.764   6.662 -0.9079  0.9248 -0.3084
 4549SOL     OW23576   4.090   1.074   4.255  0.2204 -0.2860 -0.9139
 4549SOL    HW123577   4.136   1.111   4.331  0.5721 -0.8708 -0.8345
 4549SOL    HW223578   4.021   1.138   4.235 -0.3805 -0.4769  0.3841
 4550SOL     OW23579   9.266  11.085   2.633 -0.3342  0.3987 -0.3627
 4550SOL    HW123580   9.183  11.038   2.625 -0.2724  0.2940 -0.3847
 4550SOL    HW223581   9.270  11.110   2.725  0.2964 -0.8676 -0.0199
 4551SOL     OW23582   1.522   1.793   4.494  0.2413  0.2044  0.4055
 4551SOL    HW123583   1.527   1.723   4.560  0.8777  0.3939  0.5618
 4551SOL    HW223584   1.541   1.749   4.411 -1.0960 -0.1427  0.2537
 4552SOL     OW23585   6.401   1.563   5.059  0.0863 -0.0632 -0.2532
 4552SOL    HW123586   6.427   1.614   4.982 -0.0128  2.0744  1.0588
 4552SOL    HW223587   6.448   1.604   5.132 -0.0521 -1.8457  0.8831
 4553SOL     OW23588  11.792   4.903   0.628  0.2258 -0.0254  0.4374
 4553SOL    HW123589  11.721   4.870   0.572  0.3453  1.7452 -0.8400
 4553SOL    HW223590  11.854   4.830   0.634 -1.1137 -1.1992  0.6066
 4554SOL     OW23591   0.016   2.256  10.200  0.3341 -0.9590 -0.5355
 4554SOL    HW123592   0.049   2.223  10.116 -0.2890  0.4597 -1.3819
 4554SOL    HW223593  -0.068   2.296  10.179  0.2059 -0.5002  0.7543
 4555SOL     OW23594   5.237  12.319   2.994 -0.5844 -0.4526 -0.2222
 4555SOL    HW123595   5.188  12.358   2.921 -1.6580 -0.4542  0.4755
 4555SOL    HW223596   5.243  12.226   2.971 -0.9655 -0.4635 -0.2930
 4556SOL     OW23597   1.036   7.767   9.462 -0.1928  0.5765  0.0125
 4556SOL    HW123598   1.014   7.847   9.413  1.3725  0.9724 -0.1013
 4556SOL    HW223599   0.953   7.720   9.469 -0.7281  1.1703 -1.8158
 4557SOL     OW23600   4.076   0.484   7.953  0.0267 -0.2423  0.0006
 4557SOL    HW123601   4.041   0.545   8.017  0.3146  0.5009 -0.5394
 4557SOL    HW223602   4.171   0.483   7.970  0.5193  2.0666 -2.1285
 4558SOL     OW23603   8.636   2.053   0.246  0.7534 -0.3877  0.1852
 4558SOL    HW123604   8.608   1.992   0.314  1.2236 -0.2228  0.5325
 4558SOL    HW223605   8.565   2.117   0.239  0.1118 -1.1430 -0.4003
 4559SOL     OW23606   9.191   4.384   4.163 -0.0061  0.9531 -0.0881
 4559SOL    HW123607   9.144   4.440   4.102 -0.9773  1.9482  1.4919
 4559SOL    HW223608   9.129   4.369   4.234  0.9998 -0.3565  0.5550
 4560SOL     OW23609   9.394   5.826   2.397 -0.0574  0.1970  0.1637
 4560SOL    HW123610   9.398   5.756   2.332 -0.0239 -0.2720  0.6570
 4560SOL    HW223611   9.300   5.838   2.413 -0.1576  1.4815 -1.1819
 4561SOL     OW23612   8.713  12.773   0.314  0.6554  0.0326  0.0974
 4561SOL    HW123613   8.783  12.814   0.366  0.6502  0.0398  0.0987
 4561SOL    HW223614   8.647  12.841   0.305 -0.1964 -0.5444  1.6676
 4562SOL     OW23615   1.223   9.298   7.088  0.1580  0.6521  0.4309
 4562SOL    HW123616   1.251   9.220   7.042  0.6220 -0.9366  3.1854
 4562SOL    HW223617   1.128   9.299   7.080  0.2284  0.4445 -0.5191
 4563SOL     OW23618   6.198  13.071   9.479  0.7023  0.1504 -0.6668
 4563SOL    HW123619   6.279  13.045   9.435 -0.0124 -1.8219 -0.8893
 4563SOL    HW223620   6.222  13.081   9.571  1.7806  2.4343 -1.1121
 4564SOL     OW23621   7.157   4.755  12.964 -0.4515 -0.0492  0.3124
 4564SOL    HW123622   7.225   4.725  13.024 -0.0112  0.3876  0.0420
 4564SOL    HW223623   7.127   4.676  12.920 -0.4532 -0.3088  0.7766
 4565SOL     OW23624   7.600   0.047   5.002 -0.1701  0.3839  0.0984
 4565SOL    HW123625   7.639   0.119   4.952  0.8464 -1.4342 -1.8913
 4565SOL    HW223626   7.674  -0.003   5.035 -0.7611 -1.1583 -0.7643
 4566SOL     OW23627   8.474  11.106   4.468 -0.7403 -0.3571  0.2125
 4566SOL    HW123628   8.477  11.196   4.436  1.4833  0.6644  2.7897
 4566SOL    HW223629   8.397  11.068   4.427 -1.8628  2.7578 -0.8998
 4567SOL     OW23630   5.812   9.503   1.750  0.1330 -0.5765 -0.4979
 4567SOL    HW123631   5.802   9.589   1.792  0.1599 -1.1124  0.6299
 4567SOL    HW223632   5.905   9.497   1.730 -0.1046  0.2927 -2.0136
 4568SOL     OW23633   9.760   6.259   5.492 -0.4828 -0.2407 -0.3465
 4568SOL    HW123634   9.823   6.269   5.421 -0.4155 -0.0614 -0.2625
 4568SOL    HW223635   9.810   6.218   5.563 -0.2966  0.4628 -0.0602
 4569SOL     OW23636   7.039   7.951   9.853  0.1514  0.0268 -0.2472
 4569SOL    HW123637   7.101   8.010   9.812  1.8219 -0.3161  1.6496
 4569SOL    HW223638   7.092   7.893   9.907 -1.4108 -3.0051 -1.6431
 4570SOL     OW23639   7.701   6.471   8.731 -0.3478 -0.2434 -0.0148
 4570SOL    HW123640   7.657   6.432   8.806  0.2293 -1.4288 -0.2692
 4570SOL    HW223641   7.740   6.552   8.765 -0.7184 -0.3880  0.7740
 4571SOL     OW23642   5.089  11.740   2.293 -0.1910 -0.6814 -0.3918
 4571SOL    HW123643   5.085  11.673   2.361  0.9876  0.0375  0.4151
 4571SOL    HW223644   5.111  11.820   2.339 -1.2969  0.2398 -1.3808
 4572SOL     OW23645   6.908   0.591   0.333  0.0162  0.2811 -0.2835
 4572SOL    HW123646   6.891   0.635   0.250 -1.7346  0.7170  0.2591
 4572SOL    HW223647   6.824   0.552   0.357  0.7954 -0.8727  0.6941
 4573SOL     OW23648  12.510   0.638   6.209 -0.1279  0.2851 -0.0723
 4573SOL    HW123649  12.436   0.578   6.198  0.1881 -0.0507 -0.4257
 4573SOL    HW223650  12.476   0.724   6.185 -0.1540 -0.0192 -1.1926
 4574SOL     OW23651   8.478  11.415  10.877  0.1420 -0.0827 -0.4958
 4574SOL    HW123652   8.499  11.343  10.818  1.3691  0.2351 -0.4802
 4574SOL    HW223653   8.384  11.429  10.866 -0.5129 -2.8101  0.7579
 4575SOL     OW23654   2.221   2.818   9.887  0.3694  0.2457 -1.0297
 4575SOL    HW123655   2.270   2.807   9.806  2.0275 -1.0463  0.0800
 4575SOL    HW223656   2.136   2.776   9.869  1.4192 -1.7920 -1.5063
 4576SOL     OW23657   9.437   9.285  10.916  0.3826 -0.2569  0.4630
 4576SOL    HW123658   9.403   9.347  10.981 -1.3101 -2.1827  1.5183
 4576SOL    HW223659   9.372   9.287  10.845  0.9953  0.0870 -0.0995
 4577SOL     OW23660   4.283   3.888  11.307  0.0993 -0.3828  0.0020
 4577SOL    HW123661   4.200   3.935  11.309 -0.4822 -1.3863 -0.3973
 4577SOL    HW223662   4.301   3.866  11.399  0.4627  0.7269  0.2201
 4578SOL     OW23663   3.476   4.627   2.909  0.0167 -0.3024  0.4964
 4578SOL    HW123664   3.491   4.542   2.950 -0.0575 -0.6035 -0.0979
 4578SOL    HW223665   3.544   4.684   2.946 -0.1022 -0.5444  1.0991
 4579SOL     OW23666   1.414   1.929   5.556  0.1370 -0.4517 -0.1151
 4579SOL    HW123667   1.498   1.975   5.553 -0.7556  1.4547  1.3811
 4579SOL    HW223668   1.427   1.859   5.619  0.6749 -0.3162 -0.0691
 4580SOL     OW23669  12.613   5.653   9.988 -0.0874  0.2308 -0.2206
 4580SOL    HW123670  12.559   5.711   9.935  0.1764  1.3388  0.6743
 4580SOL    HW223671  12.665   5.712  10.043 -0.6760 -0.8447  1.5818
 4581SOL     OW23672  12.144  11.724   2.175  0.1830  0.2543  0.5450
 4581SOL    HW123673  12.201  11.689   2.245 -1.4674 -1.1441  1.2795
 4581SOL    HW223674  12.196  11.715   2.095  0.7912 -1.6389  1.0914
 4582SOL     OW23675   0.418   6.895   0.942 -0.4880 -0.1382  0.3206
 4582SOL    HW123676   0.497   6.862   0.899 -1.0645 -0.0905 -0.8396
 4582SOL    HW223677   0.449   6.955   1.009  0.4465  1.4991 -1.4717
 4583SOL     OW23678   2.101  10.759   0.295  0.0617 -0.1525 -0.0533
 4583SOL    HW123679   2.009  10.735   0.295  0.1670 -0.5669  0.0675
 4583SOL    HW223680   2.102  10.853   0.316 -0.4363  0.2762 -1.8141
 4584SOL     OW23681   2.419   2.072   4.639 -0.0143 -0.8827 -0.3795
 4584SOL    HW123682   2.349   2.009   4.652  1.3766 -2.6241 -0.8900
 4584SOL    HW223683   2.463   2.077   4.724 -0.2518 -0.4221 -0.2814
 4585SOL     OW23684   7.308   6.787   2.564  0.2037 -0.0907 -0.3450
 4585SOL    HW123685   7.253   6.817   2.636 -1.3240 -0.5503 -1.2723
 4585SOL    HW223686   7.381   6.848   2.563  0.1071  0.1183  1.3789
 4586SOL     OW23687   9.431   4.337  12.384  0.2557 -0.1100 -0.0315
 4586SOL    HW123688   9.393   4.359  12.469  0.5235 -1.1469  0.3713
 4586SOL    HW223689   9.451   4.421  12.344  1.7781  0.4199  1.6976
 4587SOL     OW23690   3.867   4.338   1.044 -0.2172 -0.0719 -1.0818
 4587SOL    HW123691   3.857   4.296   1.130 -2.1793 -0.2714 -1.3447
 4587SOL    HW223692   3.777   4.362   1.020  0.3844  0.5541 -2.7954
 4588SOL     OW23693   5.325   1.566  11.098 -0.0657  0.0664  0.0638
 4588SOL    HW123694   5.312   1.653  11.134  2.0867 -0.1790  1.6427
 4588SOL    HW223695   5.419   1.562  11.078  0.0687 -2.1672  0.8589
 4589SOL     OW23696   2.059  10.275   7.258 -0.2984 -0.5587  0.1782
 4589SOL    HW123697   2.077  10.182   7.242 -1.1496 -0.5432 -1.0641
 4589SOL    HW223698   1.970  10.275   7.295  0.3682 -0.3345  1.8755
 4590SOL     OW23699   9.381   6.397  12.987 -0.4945 -0.4405 -0.2576
 4590SOL    HW123700   9.298   6.392  13.036 -1.1595  1.0747 -1.1381
 4590SOL    HW223701   9.357   6.376  12.897 -0.0068  0.4002 -0.5932
 4591SOL     OW23702  10.632   6.286   2.536  0.1051  0.1825  0.0366
 4591SOL    HW123703  10.655   6.218   2.473  1.4712  0.9043 -0.2651
 4591SOL    HW223704  10.654   6.249   2.621  2.4431  0.8359 -0.2380
 4592SOL     OW23705  12.519  10.250   4.762 -0.7678 -0.2500 -0.0120
 4592SOL    HW123706  12.447  10.187   4.764  0.1959 -1.4417 -0.9215
 4592SOL    HW223707  12.498  10.312   4.832 -1.7979 -1.5415  0.8971
 4593SOL     OW23708   6.661  13.021   6.077 -0.5624 -0.2611 -0.1315
 4593SOL    HW123709   6.620  13.084   6.136  0.0283 -1.5224  1.7128
 4593SOL    HW223710   6.719  12.968   6.133  1.3005 -0.4933 -2.1052
 4594SOL     OW23711   2.477   0.079   2.996  0.2394  0.1595  0.1051
 4594SOL    HW123712   2.415   0.064   3.067 -0.5068  0.1875 -0.5331
 4594SOL    HW223713   2.545   0.134   3.035  0.1924 -0.3830  0.9795
 4595SOL     OW23714  11.736   4.279   9.701  0.1750 -0.3571  0.7312
 4595SOL    HW123715  11.711   4.190   9.675 -1.9825  0.2469  0.5164
 4595SOL    HW223716  11.655   4.317   9.737  1.4745  0.9572  2.4587
 4596SOL     OW23717   3.143   7.047   5.792  0.1400  0.2442 -0.4062
 4596SOL    HW123718   3.095   7.004   5.721  0.4548  1.0556 -1.1237
 4596SOL    HW223719   3.082   7.045   5.866 -0.3696 -0.2107 -0.8296
 4597SOL     OW23720   3.512   4.939   2.047 -0.5130  0.7891  0.1320
 4597SOL    HW123721   3.583   4.934   1.984  0.4524 -0.6570  1.2800
 4597SOL    HW223722   3.440   4.978   1.999 -0.0057 -0.7939 -2.0516
 4598SOL     OW23723   5.705   9.553   7.803 -0.4210 -0.4321  0.1780
 4598SOL    HW123724   5.623   9.516   7.836 -0.8378 -0.2524 -0.6085
 4598SOL    HW223725   5.679   9.636   7.762 -0.1033 -1.0749 -1.4116
 4599SOL     OW23726   4.384   1.073   0.378  0.0713  0.0917 -0.6502
 4599SOL    HW123727   4.359   1.016   0.451 -1.2883 -0.0751 -1.2119
 4599SOL    HW223728   4.303   1.115   0.351  0.7468  0.9695 -1.3842
 4600SOL     OW23729   8.543   3.409  12.212  0.3141  0.0425 -0.8926
 4600SOL    HW123730   8.470   3.372  12.261  0.2438  2.3648  0.9649
 4600SOL    HW223731   8.621   3.376  12.258  0.3329 -0.0790 -1.0126
 4601SOL     OW23732   9.717   8.734   6.643  0.1031  0.3137 -0.0957
 4601SOL    HW123733   9.697   8.801   6.709 -1.7089 -0.8333  0.5785
 4601SOL    HW223734   9.736   8.655   6.693  1.8974  0.1669 -0.9025
 4602SOL     OW23735   0.018   6.109   6.437 -0.0870  0.2386  0.0782
 4602SOL    HW123736  -0.001   6.180   6.499 -1.3677 -0.1895  0.2194
 4602SOL    HW223737   0.037   6.033   6.493  1.8949  0.5859 -0.0664
 4603SOL     OW23738   9.131   6.342   0.590 -0.1109  0.5017  0.9104
 4603SOL    HW123739   9.154   6.252   0.615 -0.9809  0.4044  1.3878
 4603SOL    HW223740   9.215   6.387   0.584  0.4104 -0.5431 -0.1738
 4604SOL     OW23741  11.967   1.257   4.360 -0.2231  0.1867 -0.2332
 4604SOL    HW123742  11.976   1.167   4.327  0.3539 -0.0499  0.5401
 4604SOL    HW223743  12.044   1.303   4.328 -0.0738  0.1701  0.0944
 4605SOL     OW23744   3.240   1.416  13.042 -0.2677  0.1576 -0.4023
 4605SOL    HW123745   3.159   1.436  12.996 -0.3082 -0.3899 -0.5837
 4605SOL    HW223746   3.213   1.367  13.119 -0.0778 -0.5411 -0.7694
 4606SOL     OW23747   7.439   9.829   0.644 -0.0886  0.1747  0.0411
 4606SOL    HW123748   7.395   9.762   0.591  0.2866  0.0111 -0.0708
 4606SOL    HW223749   7.412   9.912   0.605 -3.2590  0.3113  2.2227
 4607SOL     OW23750   5.831   4.837   9.607  0.2242  0.1610  0.0540
 4607SOL    HW123751   5.767   4.888   9.656  1.1468  1.1561  0.2598
 4607SOL    HW223752   5.864   4.897   9.540  0.5630 -0.4966 -0.3843
 4608SOL     OW23753   3.214   2.335  12.578  0.0916 -0.7246  0.3892
 4608SOL    HW123754   3.171   2.258  12.539  1.2404 -0.9942 -0.4297
 4608SOL    HW223755   3.266   2.371  12.506  0.4737  0.1451  1.0893
 4609SOL     OW23756   6.704  12.236   1.159  0.1347 -0.1553 -0.7005
 4609SOL    HW123757   6.692  12.240   1.254  2.3789 -0.2753 -0.3546
 4609SOL    HW223758   6.635  12.178   1.129  0.7185 -1.9303  1.1645
 4610SOL     OW23759  13.030   1.245   9.617  0.3498 -0.1890  0.3200
 4610SOL    HW123760  13.011   1.153   9.639  2.5531 -0.6757  0.3559
 4610SOL    HW223761  13.010   1.294   9.696  0.7560 -0.8697  0.8494
 4611SOL     OW23762  12.482  12.711   9.228  0.9301  0.1241 -0.4576
 4611SOL    HW123763  12.420  12.693   9.157  0.5292 -0.8081  0.1205
 4611SOL    HW223764  12.537  12.782   9.194 -0.9097  1.4926 -0.6973
 4612SOL     OW23765   8.522   4.389   0.935 -0.1966  0.6067  0.1000
 4612SOL    HW123766   8.478   4.312   0.972  1.0276 -0.3284 -0.3171
 4612SOL    HW223767   8.452   4.440   0.895 -1.0436 -0.2756  0.4112
 4613SOL     OW23768   8.978   4.636  10.550 -0.4167  0.2666  0.2725
 4613SOL    HW123769   9.064   4.593  10.551 -0.5161  0.0625  1.5439
 4613SOL    HW223770   8.981   4.693  10.473  1.3985  1.3274  1.0582
 4614SOL     OW23771  10.847   4.038   8.211  0.1703  0.4899 -0.4485
 4614SOL    HW123772  10.815   4.126   8.230 -0.7748  0.3634 -1.3278
 4614SOL    HW223773  10.776   3.980   8.239  0.5017  0.0528 -0.4976
 4615SOL     OW23774   6.074   1.284  11.305 -0.4732  0.0031 -0.1882
 4615SOL    HW123775   6.064   1.356  11.242  2.6823  0.4812 -0.3392
 4615SOL    HW223776   6.107   1.211  11.252  0.1536 -0.2585  0.5438
 4616SOL     OW23777  10.125  13.245   8.035  0.2690  0.1804 -0.6773
 4616SOL    HW123778  10.083  13.180   7.978 -0.9763  0.7211 -0.4048
 4616SOL    HW223779  10.172  13.303   7.974  1.6165 -1.0950 -0.9064
 4617SOL     OW23780   4.036   8.859   3.328  0.0447  0.1899 -0.1927
 4617SOL    HW123781   4.021   8.851   3.422 -3.1106  0.8333 -0.5429
 4617SOL    HW223782   4.057   8.951   3.314 -0.9548  0.4101 -0.2683
 4618SOL     OW23783   7.325   9.338   5.567  0.5445  0.0578  0.2312
 4618SOL    HW123784   7.409   9.370   5.601  0.6335 -0.1914  0.2457
 4618SOL    HW223785   7.302   9.266   5.626  0.0769  0.4453  0.5322
 4619SOL     OW23786   0.388   3.981   4.272  0.2186  0.3549  0.6963
 4619SOL    HW123787   0.478   3.985   4.241  0.4213 -0.2013  1.1911
 4619SOL    HW223788   0.346   4.058   4.233  0.7515  0.3039 -0.0064
 4620SOL     OW23789  11.435   5.324   9.124  0.2575 -0.0384 -0.1712
 4620SOL    HW123790  11.527   5.350   9.128  0.6834  0.5597 -6.0926
 4620SOL    HW223791  11.438   5.229   9.114  0.0869 -0.1207  0.4728
 4621SOL     OW23792   3.221   3.551  12.601 -0.3441  0.1662  0.3125
 4621SOL    HW123793   3.198   3.590  12.686 -0.6435  1.6099 -0.3976
 4621SOL    HW223794   3.193   3.459  12.609  0.4992  0.0183  2.0918
 4622SOL     OW23795  13.281   8.724   7.069 -0.6167  0.1307  0.3750
 4622SOL    HW123796  13.303   8.794   7.008  0.2627  1.6178  2.2699
 4622SOL    HW223797  13.361   8.707   7.118 -1.0934 -1.5029  0.6687
 4623SOL     OW23798  11.510   5.848  11.945 -0.0782  0.0256 -0.5123
 4623SOL    HW123799  11.425   5.880  11.977  0.0644 -0.6959  0.6289
 4623SOL    HW223800  11.500   5.848  11.850 -1.4052 -0.1519 -0.4004
 4624SOL     OW23801  11.832   7.553  10.201  0.1804  0.1840  0.0715
 4624SOL    HW123802  11.907   7.506  10.167  1.2800  1.0551  1.2005
 4624SOL    HW223803  11.811   7.510  10.284  0.3182  0.7764  0.4255
 4625SOL     OW23804   0.088   6.541   4.455 -0.1512  0.3084 -0.5393
 4625SOL    HW123805   0.032   6.575   4.385  0.1241  1.3693 -0.2503
 4625SOL    HW223806   0.064   6.448   4.461  0.3599  0.0062 -2.5499
 4626SOL     OW23807   3.497  12.864   8.138  0.1607 -0.2297 -0.1447
 4626SOL    HW123808   3.546  12.814   8.203  0.8135 -1.8392 -1.7665
 4626SOL    HW223809   3.563  12.891   8.074 -0.5594  0.5998 -0.5543
 4627SOL     OW23810   4.859   6.165  13.206  0.1594  0.2680 -0.4529
 4627SOL    HW123811   4.819   6.225  13.143 -2.9927  1.4299  2.3604
 4627SOL    HW223812   4.928   6.217  13.247 -0.5695  0.9976 -0.1114
 4628SOL     OW23813   2.503  13.213   8.812 -0.4246  0.4554  0.7538
 4628SOL    HW123814   2.498  13.143   8.746 -0.4644  1.0061  0.1619
 4628SOL    HW223815   2.434  13.192   8.874  1.4208 -1.6933  2.2600
 4629SOL     OW23816   9.296   4.982  11.845 -0.4620 -0.0974  0.1448
 4629SOL    HW123817   9.349   5.051  11.805 -0.0647  1.9796  3.8487
 4629SOL    HW223818   9.208   4.998  11.810 -0.1174  1.4164 -0.1396
 4630SOL     OW23819   9.575  13.117   5.619 -0.3425 -0.0187 -0.4534
 4630SOL    HW123820   9.574  13.060   5.542  1.1069 -0.9947  0.2000
 4630SOL    HW223821   9.657  13.095   5.663  0.2250  2.5204 -0.1129
 4631SOL     OW23822  10.098   6.664  13.007 -0.2106  0.1843  0.4615
 4631SOL    HW123823  10.096   6.700  13.096  1.8681  1.8041 -0.0832
 4631SOL    HW223824  10.085   6.570  13.020 -0.0796  0.3973  2.4840
 4632SOL     OW23825   4.749   9.730  11.837 -0.0035  0.2599  0.2256
 4632SOL    HW123826   4.810   9.673  11.884  0.4153 -0.3999 -1.0939
 4632SOL    HW223827   4.804   9.802  11.805 -0.0893  0.1399 -0.1885
 4633SOL     OW23828   6.618   0.960   0.128 -0.3931  0.3120  0.0772
 4633SOL    HW123829   6.596   0.940   0.219 -0.8154 -0.2874 -0.1536
 4633SOL    HW223830   6.697   1.014   0.134 -1.8153  2.4462  0.9363
 4634SOL     OW23831   1.648   1.190   2.204 -0.3331  0.0817 -0.1394
 4634SOL    HW123832   1.677   1.110   2.160  0.2795  0.7623 -1.0190
 4634SOL    HW223833   1.635   1.253   2.133  4.5417  2.5044  0.6943
 4635SOL     OW23834   4.856   2.437   0.926  0.3193 -0.1348 -0.8441
 4635SOL    HW123835   4.919   2.404   0.862  2.3253  0.1976  0.8614
 4635SOL    HW223836   4.795   2.364   0.939  1.0965 -0.9448 -1.6223
 4636SOL     OW23837   1.538   1.600   2.781  0.2957  0.5691  0.0991
 4636SOL    HW123838   1.530   1.510   2.812 -0.5164  0.3889 -0.5986
 4636SOL    HW223839   1.615   1.599   2.724  0.5386  0.4204  0.4241
 4637SOL     OW23840  12.914   8.991  11.783 -0.0179  0.0509 -0.0058
 4637SOL    HW123841  12.880   9.063  11.835 -1.0587  0.8066 -1.6641
 4637SOL    HW223842  13.009   9.005  11.781 -0.2144  1.4793 -0.4159
 4638SOL     OW23843   7.403  10.753   2.641  0.4078 -0.1376  0.0693
 4638SOL    HW123844   7.361  10.724   2.722  1.9396 -1.0447  0.6009
 4638SOL    HW223845   7.439  10.672   2.603  0.7545  0.4504 -0.8773
 4639SOL     OW23846  13.109   6.708  10.233  0.4922 -0.4346  0.1330
 4639SOL    HW123847  13.018   6.680  10.235 -0.5093  2.1157 -2.4625
 4639SOL    HW223848  13.134   6.715  10.326 -2.3079 -0.1174  0.9595
 4640SOL     OW23849   8.348   1.032   4.154  0.2908  0.1157  0.2736
 4640SOL    HW123850   8.363   1.074   4.239  0.6881 -0.7435  0.6350
 4640SOL    HW223851   8.407   0.957   4.153  1.8359  1.2490 -1.6180
 4641SOL     OW23852   0.837   4.562   5.493  0.6113  0.5138 -0.0350
 4641SOL    HW123853   0.788   4.638   5.525 -0.0235 -0.6965  2.0279
 4641SOL    HW223854   0.895   4.538   5.565  1.2216 -0.6168 -0.8619
 4642SOL     OW23855   5.877   1.960  12.531  0.1940 -0.1297 -0.1947
 4642SOL    HW123856   5.786   1.933  12.519 -0.5545  2.0480  0.1248
 4642SOL    HW223857   5.885   1.976  12.625  0.3009  1.5968 -0.4767
 4643SOL     OW23858  10.260   1.906  11.508  0.0282  0.2037  0.0529
 4643SOL    HW123859  10.237   1.999  11.502  1.6955  0.9913  3.3167
 4643SOL    HW223860  10.209   1.864  11.439 -4.3607  2.8440  1.3104
 4644SOL     OW23861   0.002   9.961  11.530  0.3064 -0.3919  0.4480
 4644SOL    HW123862   0.016  10.005  11.446 -0.0704  0.7154  0.9540
 4644SOL    HW223863  -0.061  10.016  11.576 -0.5271 -1.7031  0.9360
 4645SOL     OW23864   7.386   6.618  10.089  0.3560  0.1085 -0.1814
 4645SOL    HW123865   7.346   6.629  10.002  2.6305 -1.0806 -1.4590
 4645SOL    HW223866   7.418   6.705  10.111  0.8060  0.1861 -1.0937
 4646SOL     OW23867   8.405   8.825   5.195  0.4674  0.1316 -0.3872
 4646SOL    HW123868   8.336   8.759   5.196  0.4502  0.1592  0.0954
 4646SOL    HW223869   8.460   8.805   5.271  0.3739  0.7591 -0.1495
 4647SOL     OW23870   5.259   2.731   7.553  0.2376 -0.6702  0.2446
 4647SOL    HW123871   5.232   2.817   7.584  0.3776 -1.0412  1.4448
 4647SOL    HW223872   5.281   2.683   7.632  2.1738 -1.1394 -0.5337
 4648SOL     OW23873   5.520   9.683   9.955  0.7551 -0.3464  0.4135
 4648SOL    HW123874   5.588   9.636  10.002  2.5147  0.8656 -0.8020
 4648SOL    HW223875   5.512   9.636   9.872  0.6841  0.0088  0.2197
 4649SOL     OW23876   1.319  10.248   8.423  0.5173 -0.2056 -0.1731
 4649SOL    HW123877   1.357  10.296   8.349  0.1499  1.6847  0.8073
 4649SOL    HW223878   1.237  10.293   8.442  0.3616 -0.9607  1.0906
 4650SOL     OW23879   5.773   6.981  10.334  0.0814  0.4150  0.0682
 4650SOL    HW123880   5.766   6.904  10.389 -0.6248  0.4232  0.0117
 4650SOL    HW223881   5.723   7.049  10.380  0.2119  0.6683 -0.1550
 4651SOL     OW23882   0.088   9.076   0.026 -0.3628  0.2866  0.1386
 4651SOL    HW123883   0.043   9.110  -0.051  0.0031  0.3198 -0.0623
 4651SOL    HW223884   0.057   9.130   0.098 -0.4860  0.4425 -0.0323
 4652SOL     OW23885   0.632  10.525  11.251  0.3885  0.2639  0.2526
 4652SOL    HW123886   0.567  10.583  11.210 -1.1777 -0.2884  1.8297
 4652SOL    HW223887   0.704  10.583  11.275  0.0406  1.0797 -0.5774
 4653SOL     OW23888   9.317   1.406   8.043  0.1820 -0.3061  0.2590
 4653SOL    HW123889   9.287   1.492   8.070 -0.2011 -0.4706  0.3564
 4653SOL    HW223890   9.396   1.390   8.096  1.8963  1.1481 -1.6808
 4654SOL     OW23891  12.289   3.875  13.081  1.0219  0.3317  0.1052
 4654SOL    HW123892  12.245   3.951  13.042 -0.4430  0.1357  1.2618
 4654SOL    HW223893  12.296   3.897  13.174 -0.2733 -1.2772  0.6345
 4655SOL     OW23894   0.556   3.327  12.796 -0.2304 -0.2582  0.2314
 4655SOL    HW123895   0.646   3.357  12.786  0.2637 -1.7793 -0.2462
 4655SOL    HW223896   0.503   3.407  12.796  1.1290  0.6718  0.7850
 4656SOL     OW23897   2.901  13.043   1.662  0.4376  0.0018  0.0435
 4656SOL    HW123898   2.900  13.081   1.575 -1.3135  0.4799  0.2484
 4656SOL    HW223899   2.810  13.019   1.680  0.7126  0.1746  1.8468
 4657SOL     OW23900   9.116   9.448   1.046  0.7205  0.3858  0.2418
 4657SOL    HW123901   9.057   9.507   1.092  0.0763 -0.3399  0.3665
 4657SOL    HW223902   9.193   9.501   1.027  0.9105  0.7803  1.9486
 4658SOL     OW23903   7.677   0.541   8.071 -0.5526 -0.3380 -0.1745
 4658SOL    HW123904   7.597   0.525   8.121 -1.4804 -0.0167 -1.4772
 4658SOL    HW223905   7.703   0.455   8.038  0.0101 -0.5360  0.7469
 4659SOL     OW23906   9.288   7.641   7.790 -0.3569  0.1933 -0.1131
 4659SOL    HW123907   9.265   7.647   7.697 -0.2364  0.7112 -0.1100
 4659SOL    HW223908   9.295   7.731   7.819 -2.3581  0.0919  0.8968
 4660SOL     OW23909   7.733   0.546   0.429  0.4933 -0.5375  0.6126
 4660SOL    HW123910   7.696   0.459   0.441  0.3472 -0.4929  0.4747
 4660SOL    HW223911   7.708   0.571   0.341 -1.9622  0.8501  1.5974
 4661SOL     OW23912   5.449   2.249   8.582 -0.1920  0.0232  0.5408
 4661SOL    HW123913   5.372   2.306   8.582 -1.2423 -1.3360 -0.4067
 4661SOL    HW223914   5.463   2.228   8.674 -1.2178 -0.0481  0.6953
 4662SOL     OW23915   8.859   2.876   3.290  0.5337 -0.6126  0.1881
 4662SOL    HW123916   8.942   2.906   3.328 -0.8794  1.0423  2.2370
 4662SOL    HW223917   8.796   2.944   3.314 -1.1760 -1.0678 -2.5644
 4663SOL     OW23918   7.577   7.592  11.937 -1.0040 -0.2534  0.2654
 4663SOL    HW123919   7.656   7.632  11.973 -1.1861  0.6414 -0.3011
 4663SOL    HW223920   7.598   7.499  11.931  0.2464  0.0578 -0.4702
 4664SOL     OW23921   7.350  10.231   8.332  0.3366 -0.4855  0.0409
 4664SOL    HW123922   7.276  10.197   8.283 -0.2041 -0.4225  0.7951
 4664SOL    HW223923   7.342  10.191   8.418  0.5883  0.3163  0.4539
 4665SOL     OW23924   9.554  10.375   4.924  0.2346  0.1524  0.2754
 4665SOL    HW123925   9.637  10.398   4.882  0.4352 -2.4645 -0.9551
 4665SOL    HW223926   9.580  10.330   5.004  0.1964 -2.5891 -1.1352
 4666SOL     OW23927   1.940   7.805   9.996 -0.1158  0.0176  0.1311
 4666SOL    HW123928   2.019   7.819  10.048 -0.3657  0.4554  0.4058
 4666SOL    HW223929   1.967   7.823   9.906  0.4103 -1.1081  0.0500
 4667SOL     OW23930   7.763  10.337   0.638  0.0563 -0.8469  0.0834
 4667SOL    HW123931   7.687  10.391   0.617  0.7452 -0.3779 -1.2949
 4667SOL    HW223932   7.736  10.287   0.716 -0.7220  1.2095  1.1983
 4668SOL     OW23933   4.588  11.126   2.200  0.4710 -0.0598  0.0199
 4668SOL    HW123934   4.571  11.177   2.279 -0.2224  0.4372 -0.4330
 4668SOL    HW223935   4.576  11.035   2.227 -1.1869  0.1794  0.1675
 4669SOL     OW23936   8.580   1.635   3.438 -0.1274  0.2218  0.3008
 4669SOL    HW123937   8.526   1.662   3.513  0.4666  1.1963  0.3952
 4669SOL    HW223938   8.560   1.699   3.369  2.0949  1.6629  0.8716
 4670SOL     OW23939   8.835  12.828  10.746  0.2152 -0.5373  0.0080
 4670SOL    HW123940   8.745  12.808  10.719 -0.4058 -0.4994  1.9232
 4670SOL    HW223941   8.848  12.919  10.719 -1.3197  0.3738  2.0432
 4671SOL     OW23942   8.485   2.208  12.827 -0.0710 -0.1340  0.0404
 4671SOL    HW123943   8.482   2.182  12.919  1.0492 -2.2663 -0.4783
 4671SOL    HW223944   8.569   2.252  12.817  0.4155 -1.1082 -0.2379
 4672SOL     OW23945   6.889   6.189   1.186  0.5562 -0.2748  0.0173
 4672SOL    HW123946   6.813   6.244   1.164 -0.2271 -1.0899  0.6396
 4672SOL    HW223947   6.855   6.100   1.187  1.6367 -0.7047 -0.1663
 4673SOL     OW23948   9.499   3.476   2.201  0.9386  0.3210  0.2243
 4673SOL    HW123949   9.507   3.386   2.167  0.3215  0.4360 -0.2576
 4673SOL    HW223950   9.520   3.531   2.126 -1.2600  0.5930 -0.2743
 4674SOL     OW23951   9.287   7.676   2.338  0.3486 -0.7514 -0.4443
 4674SOL    HW123952   9.216   7.740   2.339  0.0154 -1.1081  1.0807
 4674SOL    HW223953   9.271   7.620   2.414  2.4090 -0.6570  0.1376
 4675SOL     OW23954   9.847   7.548   4.159  0.0504  0.2055  0.4198
 4675SOL    HW123955   9.773   7.501   4.198 -1.0554 -0.2444 -1.9961
 4675SOL    HW223956   9.921   7.530   4.217 -1.6836  0.6491  2.9238
 4676SOL     OW23957   1.201   7.899   7.659 -0.1290 -0.0879  0.4624
 4676SOL    HW123958   1.210   7.808   7.632  1.2453  0.7036 -2.0900
 4676SOL    HW223959   1.108   7.909   7.680 -0.3053 -2.0550  0.8039
 4677SOL     OW23960   8.147   7.519   2.615  0.2652 -0.3105 -0.2294
 4677SOL    HW123961   8.100   7.437   2.632  0.1283 -0.0377  0.7335
 4677SOL    HW223962   8.200   7.500   2.537 -0.5474 -0.9874 -0.6352
 4678SOL     OW23963   3.860   5.673   8.223 -0.5248  0.2338  0.4469
 4678SOL    HW123964   3.792   5.612   8.195 -0.3659  0.7289 -1.1375
 4678SOL    HW223965   3.926   5.668   8.154  0.3421  0.8683  1.2064
 4679SOL     OW23966   2.635   0.065   8.200 -0.2142  0.2699  0.1210
 4679SOL    HW123967   2.560   0.049   8.143  0.0167  0.0599 -0.1282
 4679SOL    HW223968   2.706   0.090   8.140 -0.7457  3.1170  0.5342
 4680SOL     OW23969   2.380   2.639   0.693  0.2840  0.0965 -0.1187
 4680SOL    HW123970   2.286   2.645   0.708  0.4201  1.0137  0.4524
 4680SOL    HW223971   2.416   2.721   0.730  1.2921 -0.2147 -0.3682
 4681SOL     OW23972   5.128   2.233   8.436  0.2570  0.0468 -0.3476
 4681SOL    HW123973   5.198   2.247   8.372 -0.3393  0.4942 -0.9102
 4681SOL    HW223974   5.068   2.306   8.424 -0.1633 -0.1659  0.3389
 4682SOL     OW23975   4.775   5.503   8.443  0.3758 -0.1015 -0.0173
 4682SOL    HW123976   4.844   5.436   8.448  2.3224  1.8780  1.2674
 4682SOL    HW223977   4.768   5.523   8.350  0.3219 -1.4793 -0.3430
 4683SOL     OW23978   6.327  12.054   3.062 -0.2330  0.0453 -0.0403
 4683SOL    HW123979   6.338  12.147   3.080 -2.6441  0.5320 -0.7552
 4683SOL    HW223980   6.313  12.015   3.149  1.2722  0.2281  0.3103
 4684SOL     OW23981  12.422  11.377   8.501 -0.0457 -0.4717  0.0206
 4684SOL    HW123982  12.494  11.338   8.452  2.4508  1.8373  1.5341
 4684SOL    HW223983  12.407  11.462   8.459  0.5837  0.5620  1.7412
 4685SOL     OW23984   8.386   1.704   4.531 -0.4007  0.2324 -0.0635
 4685SOL    HW123985   8.450   1.747   4.475 -0.0378  0.0320  0.1896
 4685SOL    HW223986   8.336   1.775   4.571  0.3867  0.4358  0.5799
 4686SOL     OW23987   7.045  10.657   3.438 -0.1941  0.1803 -0.1173
 4686SOL    HW123988   7.132  10.664   3.476 -0.5294  1.6141  0.4460
 4686SOL    HW223989   6.989  10.711   3.494 -1.8356 -2.0484  0.5704
 4687SOL     OW23990   7.987  12.473   2.510 -0.0970  0.3977  0.2092
 4687SOL    HW123991   8.032  12.550   2.546  0.4108 -0.1365  0.7424
 4687SOL    HW223992   7.899  12.478   2.545 -0.5874  1.6267 -1.0934
 4688SOL     OW23993   6.875  12.832   1.221  0.5038  0.4162 -0.4694
 4688SOL    HW123994   6.868  12.871   1.133  1.0381 -0.9781 -1.1661
 4688SOL    HW223995   6.893  12.740   1.204  0.7027  0.1428  1.1268
 4689SOL     OW23996   6.146   7.744  10.991  0.5183 -0.0698 -0.1285
 4689SOL    HW123997   6.152   7.774  10.901 -0.2683 -1.8013 -0.8066
 4689SOL    HW223998   6.117   7.821  11.040  0.6644  0.8176 -1.3856
 4690SOL     OW23999   2.994  10.033  10.381  0.5173 -0.2726  0.0565
 4690SOL    HW124000   3.067  10.095  10.375 -0.6088  1.4003  2.3371
 4690SOL    HW224001   3.022   9.970  10.447  0.0796  0.1420  0.6454
 4691SOL     OW24002   0.171  12.681   5.777  0.6565  0.0966  0.2072
 4691SOL    HW124003   0.171  12.772   5.747  0.2438 -0.1288 -0.5266
 4691SOL    HW224004   0.263  12.657   5.782  0.7524  0.0547 -1.2433
 4692SOL     OW24005   0.798   1.039   2.547  0.6216 -0.5075  1.1955
 4692SOL    HW124006   0.860   1.112   2.538  1.3106 -1.0211  1.6800
 4692SOL    HW224007   0.823   0.977   2.480  0.6027 -0.6984  1.3640
 4693SOL     OW24008  11.671   1.550  11.271 -0.0196  0.0479  0.3863
 4693SOL    HW124009  11.594   1.499  11.247 -0.4497  0.5179  0.7796
 4693SOL    HW224010  11.702   1.586  11.188  0.5995 -1.2544  0.0096
 4694SOL     OW24011   6.871   3.422   1.050  0.0219  0.2110 -0.4212
 4694SOL    HW124012   6.775   3.418   1.044  0.0121  0.4651 -0.4512
 4694SOL    HW224013   6.900   3.445   0.962 -0.0712  2.9921  0.1648
 4695SOL     OW24014   0.469   3.510   0.898  0.5761 -0.0185 -1.0006
 4695SOL    HW124015   0.556   3.533   0.932 -0.0637  1.1961 -0.1005
 4695SOL    HW224016   0.462   3.560   0.816  0.0628  1.3411 -0.1690
 4696SOL     OW24017   3.746   5.659   1.421 -0.4738  0.0777 -0.2479
 4696SOL    HW124018   3.673   5.659   1.360 -1.8389 -0.5977  1.3345
 4696SOL    HW224019   3.792   5.742   1.403 -1.5732  0.4858 -1.2942
 4697SOL     OW24020  13.056   3.888   8.075 -0.4568  0.1208 -0.4302
 4697SOL    HW124021  13.111   3.964   8.055  0.4034 -0.9748 -2.5973
 4697SOL    HW224022  13.072   3.870   8.168  0.1689  1.9041 -0.1605
 4698SOL     OW24023   2.523  11.344   6.884 -0.2664 -0.7452  0.4627
 4698SOL    HW124024   2.473  11.403   6.940 -1.5365  1.0133 -2.2954
 4698SOL    HW224025   2.468  11.333   6.806  1.9934 -1.8093 -1.0967
 4699SOL     OW24026  11.764  10.688  11.476  0.1238 -0.4305 -0.1584
 4699SOL    HW124027  11.814  10.606  11.476 -0.5511 -0.8466  0.2767
 4699SOL    HW224028  11.773  10.721  11.565 -1.3193 -1.1027  0.2663
 4700SOL     OW24029   9.846  11.858   5.291 -0.2959  0.1140  0.1913
 4700SOL    HW124030   9.779  11.819   5.347  0.5324 -0.4191  0.8294
 4700SOL    HW224031   9.929  11.828   5.327  0.3281  1.3571 -0.1328
 4701SOL     OW24032   9.266   9.913  10.562  0.2040 -0.0154  0.7878
 4701SOL    HW124033   9.359   9.937  10.562  0.0932  0.6568  2.8524
 4701SOL    HW224034   9.227   9.973  10.626 -1.2976 -1.5277  1.3609
 4702SOL     OW24035  12.140  11.483  12.019  0.4038  0.1859 -0.2139
 4702SOL    HW124036  12.119  11.453  11.931 -0.0118 -0.6989  0.1748
 4702SOL    HW224037  12.193  11.562  12.005  1.4475 -0.6525 -1.2752
 4703SOL     OW24038   0.748   2.046   6.614  0.4928 -0.0805  0.1511
 4703SOL    HW124039   0.791   2.113   6.667 -0.5999  0.1966  0.7185
 4703SOL    HW224040   0.728   1.976   6.677 -0.9581  0.3139  0.1419
 4704SOL     OW24041   1.945   8.203  10.477  0.0789 -0.5163  0.4051
 4704SOL    HW124042   1.986   8.136  10.531 -2.1684 -1.2326  1.3078
 4704SOL    HW224043   1.939   8.164  10.390  1.4644 -0.3036  0.1901
 4705SOL     OW24044   2.361   5.162  12.401 -0.2814  0.3204  0.5048
 4705SOL    HW124045   2.280   5.133  12.359  0.4659 -2.2239  0.6837
 4705SOL    HW224046   2.363   5.117  12.485  1.1292  0.6093  0.6627
 4706SOL     OW24047   3.277   9.643  12.417 -0.3547 -0.1305 -0.0906
 4706SOL    HW124048   3.227   9.564  12.435 -0.4034  0.3669  2.2096
 4706SOL    HW224049   3.368   9.614  12.415 -0.5182 -0.6856 -2.2511
 4707SOL     OW24050   5.674   0.138   3.159  0.3169 -0.0420 -0.1179
 4707SOL    HW124051   5.601   0.086   3.192  0.8715 -0.5888  0.2734
 4707SOL    HW224052   5.735   0.074   3.122  1.4214  0.2348  1.1652
 4708SOL     OW24053   5.057   9.635   1.323  0.1562 -0.3988  0.1260
 4708SOL    HW124054   5.034   9.595   1.407 -1.6534 -1.0230 -0.6115
 4708SOL    HW224055   5.030   9.726   1.333  0.0040 -0.4551  0.2552
 4709SOL     OW24056   3.752  12.607   0.331 -0.3647 -0.2213 -0.3197
 4709SOL    HW124057   3.788  12.691   0.361 -0.1694 -1.1447  2.2805
 4709SOL    HW224058   3.676  12.632   0.278 -0.4560  1.6287  0.5659
 4710SOL     OW24059   3.011   2.602   6.442 -0.3327  0.1041 -0.2712
 4710SOL    HW124060   2.999   2.510   6.466  0.6060 -0.3049 -1.2794
 4710SOL    HW224061   3.053   2.599   6.356 -0.1665  1.4762 -0.2614
 4711SOL     OW24062   5.267   2.823   1.525  0.0001  0.5498  0.6633
 4711SOL    HW124063   5.214   2.829   1.604  0.1088 -0.6776  0.8595
 4711SOL    HW224064   5.211   2.778   1.462  0.9337 -1.2337  1.0375
 4712SOL     OW24065   5.547   2.333   6.695  0.3862  0.4418 -0.2506
 4712SOL    HW124066   5.555   2.282   6.614  0.2625  0.6171 -0.3739
 4712SOL    HW224067   5.506   2.273   6.757  2.2314 -0.3590  0.2802
 4713SOL     OW24068   5.522  13.122   0.057 -0.0318 -0.6583 -0.9237
 4713SOL    HW124069   5.551  13.076   0.136 -0.0188 -1.3952 -1.3560
 4713SOL    HW224070   5.457  13.065   0.018 -0.5422  0.0245 -1.0869
 4714SOL     OW24071   4.420   5.517   6.525  0.5199  0.0775  0.6039
 4714SOL    HW124072   4.361   5.549   6.456  1.1293 -0.6200 -0.2710
 4714SOL    HW224073   4.389   5.429   6.545  0.2170  0.3536  1.3913
 4715SOL     OW24074   8.048   9.669   6.449  0.9607  0.1912 -0.0679
 4715SOL    HW124075   8.047   9.596   6.510  0.6401 -0.1788 -0.5083
 4715SOL    HW224076   8.067   9.630   6.364  1.1619  0.6677 -0.2505
 4716SOL     OW24077   0.757   1.316  12.226  0.3670  0.0757  0.2959
 4716SOL    HW124078   0.707   1.278  12.298  3.4165 -2.2743  1.4408
 4716SOL    HW224079   0.815   1.380  12.267  1.5317 -0.6584 -0.1267
 4717SOL     OW24080   4.280   0.416   7.689  0.1131 -0.2705  0.6557
 4717SOL    HW124081   4.189   0.394   7.673  0.6745 -1.0985 -1.9398
 4717SOL    HW224082   4.312   0.347   7.747 -0.4805 -1.0273  0.1020
 4718SOL     OW24083   6.095   8.116   6.621 -0.0732 -0.2207 -0.5138
 4718SOL    HW124084   6.144   8.034   6.621 -0.5433 -0.5212  0.6862
 4718SOL    HW224085   6.059   8.123   6.709  0.8898  1.8530 -0.2267
 4719SOL     OW24086   5.291   1.294   2.471  0.3276  0.1105 -0.0793
 4719SOL    HW124087   5.252   1.307   2.557 -1.6087 -3.1845 -0.2805
 4719SOL    HW224088   5.222   1.255   2.419  1.7949  0.9297 -2.8355
 4720SOL     OW24089   9.070   5.260   0.465  0.0869  0.2655  0.2755
 4720SOL    HW124090   8.983   5.291   0.442 -0.5387 -2.3708 -1.4013
 4720SOL    HW224091   9.067   5.246   0.559 -0.9264  1.1946  0.4064
 4721SOL     OW24092   2.899   4.540   0.370  0.2033  0.2228 -0.5029
 4721SOL    HW124093   2.870   4.481   0.440 -1.2720 -1.8568 -2.7406
 4721SOL    HW224094   2.967   4.490   0.324  0.6252  1.2685 -1.0493
 4722SOL     OW24095   3.304   9.637  11.624  0.5149  0.4360  0.3357
 4722SOL    HW124096   3.225   9.664  11.672 -0.2238  0.5737 -0.9255
 4722SOL    HW224097   3.325   9.711  11.568  0.9934  0.0352 -0.0195
 4723SOL     OW24098   2.732   4.238   4.789  0.1821  0.5316 -0.2401
 4723SOL    HW124099   2.777   4.186   4.856 -0.4024  1.3704  0.8368
 4723SOL    HW224100   2.640   4.238   4.816  0.0001  1.2125 -0.8210
 4724SOL     OW24101   6.709   8.000  10.598 -0.3277 -0.0261 -0.1343
 4724SOL    HW124102   6.734   7.979  10.687 -1.4251 -1.3053 -0.0915
 4724SOL    HW224103   6.638   7.939  10.578 -1.2164  1.3163 -1.3105
 4725SOL     OW24104   3.399   9.360   0.334 -0.0958 -0.2126 -0.2347
 4725SOL    HW124105   3.340   9.344   0.261 -0.8062  0.2773  0.2126
 4725SOL    HW224106   3.350   9.419   0.392  1.2878  1.1808 -0.4161
 4726SOL     OW24107  11.440   0.049   3.128  0.1952 -0.0104  0.2333
 4726SOL    HW124108  11.468  -0.016   3.192  1.4510 -1.2903 -1.5209
 4726SOL    HW224109  11.493   0.127   3.148  0.8164 -0.5050  0.5491
 4727SOL     OW24110  11.048   1.937   2.659 -0.3716  0.1911  0.1921
 4727SOL    HW124111  11.022   1.911   2.748 -0.6443  0.0836  0.0824
 4727SOL    HW224112  11.061   1.854   2.613 -1.8844  0.2222 -0.3447
 4728SOL     OW24113   3.514   7.275   9.632 -0.1753 -0.0849 -0.2744
 4728SOL    HW124114   3.507   7.220   9.554  0.2274 -2.1854  1.0836
 4728SOL    HW224115   3.424   7.304   9.650 -0.9482 -2.7157  0.5550
 4729SOL     OW24116   5.538   1.233  11.464  0.0415 -0.4438  0.0189
 4729SOL    HW124117   5.511   1.141  11.466  0.2351 -0.4933  0.8525
 4729SOL    HW224118   5.485   1.272  11.394 -0.1882 -1.1414 -0.2085
 4730SOL     OW24119   9.507  10.255   8.857  0.2662 -0.2998 -0.3984
 4730SOL    HW124120   9.526  10.346   8.878 -1.7420  0.1703 -0.3939
 4730SOL    HW224121   9.454  10.223   8.930 -0.3468 -0.9819 -1.1148
 4731SOL     OW24122  10.093   7.445  12.677  0.7096  0.4937  0.3697
 4731SOL    HW124123  10.098   7.380  12.747  1.8607  1.1682  0.9586
 4731SOL    HW224124  10.106   7.394  12.597  0.8168 -0.1150  0.7593
 4732SOL     OW24125  10.570   2.704   7.495  0.1754  0.2308 -0.1515
 4732SOL    HW124126  10.649   2.715   7.443  0.7272  3.5492  1.1080
 4732SOL    HW224127  10.602   2.676   7.581  0.2402  2.7848  0.7355
 4733SOL     OW24128   5.228   2.141   4.774 -0.4086  0.0599  0.1633
 4733SOL    HW124129   5.189   2.141   4.861  0.4185  0.0719  0.5384
 4733SOL    HW224130   5.160   2.103   4.717 -1.9073  2.2547  0.3597
 4734SOL     OW24131   9.861   5.812   5.259  0.1063 -0.3685 -0.1782
 4734SOL    HW124132   9.806   5.861   5.320 -0.0505  0.1995 -0.7710
 4734SOL    HW224133   9.913   5.754   5.316  0.3596  0.5358  0.5425
 4735SOL     OW24134  10.540   5.290   3.761  0.0183 -0.0378 -0.6279
 4735SOL    HW124135  10.514   5.369   3.713  0.7457  0.9832  0.5795
 4735SOL    HW224136  10.552   5.224   3.693  0.7435  1.2652 -1.8304
 4736SOL     OW24137   5.481   7.166   0.248 -0.7364 -0.7595  0.1385
 4736SOL    HW124138   5.571   7.163   0.218 -1.5855 -0.3334 -2.7198
 4736SOL    HW224139   5.449   7.076   0.237 -1.1978 -0.4933 -0.8017
 4737SOL     OW24140   5.169   9.717   2.911 -0.1246 -0.2985  0.2161
 4737SOL    HW124141   5.139   9.806   2.932  0.6781  0.2408 -0.8601
 4737SOL    HW224142   5.100   9.682   2.854  0.2391  0.1636 -0.5208
 4738SOL     OW24143   4.582   8.951   3.005 -0.4177 -0.1152  0.8973
 4738SOL    HW124144   4.653   8.944   3.069 -0.1838  0.2445  0.6840
 4738SOL    HW224145   4.502   8.947   3.057 -0.2385 -0.4556  1.1454
 4739SOL     OW24146   0.135   6.779   8.864  0.3564  0.1476  0.1275
 4739SOL    HW124147   0.187   6.842   8.815  0.3372  0.2229  0.2033
 4739SOL    HW224148   0.105   6.716   8.798 -0.5610  0.8428 -0.1408
 4740SOL     OW24149   9.967   7.784  12.910  0.1215 -0.3682 -0.6025
 4740SOL    HW124150  10.011   7.811  12.830  0.9741 -1.6696 -0.6062
 4740SOL    HW224151   9.878   7.762  12.882 -0.2040  1.1006 -0.8111
 4741SOL     OW24152   9.536   4.924   0.358 -0.1668  0.5456 -0.3789
 4741SOL    HW124153   9.553   4.889   0.445  0.9658  0.3933 -0.6464
 4741SOL    HW224154   9.475   4.997   0.372  0.8038  1.1734  0.6611
 4742SOL     OW24155   7.819   3.266   8.152 -0.1683 -0.3023  0.2861
 4742SOL    HW124156   7.860   3.221   8.078  1.7374 -0.6170  1.4411
 4742SOL    HW224157   7.893   3.287   8.210 -1.2259  2.5062  0.7654
 4743SOL     OW24158   1.849   9.909   1.772 -0.0884  0.4658 -0.8579
 4743SOL    HW124159   1.882   9.893   1.861 -0.0307  2.3907 -0.4970
 4743SOL    HW224160   1.784   9.840   1.759  1.4917 -1.2453 -0.2253
 4744SOL     OW24161   0.621   2.751   8.976  0.2171 -0.1338 -0.2884
 4744SOL    HW124162   0.533   2.713   8.985  0.8672 -2.0381 -1.2798
 4744SOL    HW224163   0.670   2.713   9.048  0.4057  0.3486 -0.1649
 4745SOL     OW24164  11.707   2.553   8.238 -0.5192 -0.2353  0.4668
 4745SOL    HW124165  11.629   2.592   8.200 -1.2999 -1.5705  0.6257
 4745SOL    HW224166  11.741   2.495   8.169  0.2797  0.2651  0.4318
 4746SOL     OW24167   1.783   5.164   9.383 -0.2370  0.1207  0.3014
 4746SOL    HW124168   1.817   5.119   9.460 -0.8001  1.2223  1.2221
 4746SOL    HW224169   1.852   5.153   9.317  0.7830  0.1483  1.3258
 4747SOL     OW24170   4.925   9.041   6.689  0.3692  0.0679  0.2640
 4747SOL    HW124171   4.930   8.946   6.684  1.1995  0.1316 -0.5484
 4747SOL    HW224172   4.982   9.065   6.763  1.0121 -0.0221 -0.1884
 4748SOL     OW24173   8.903  10.424   7.361 -0.1307  0.3166 -0.0394
 4748SOL    HW124174   8.940  10.382   7.284  0.0660  1.4968 -0.6082
 4748SOL    HW224175   8.965  10.404   7.432  0.2121  0.0867 -0.4024
 4749SOL     OW24176   2.922  10.972   1.310 -0.2700 -0.8430 -0.1552
 4749SOL    HW124177   2.875  11.049   1.278  0.5062 -0.2760  0.0536
 4749SOL    HW224178   2.906  10.973   1.405 -0.0882 -0.8280 -0.1260
 4750SOL     OW24179   0.848   7.907   5.432 -0.1054  0.0090 -0.0842
 4750SOL    HW124180   0.755   7.924   5.441  0.3052  2.1965  0.7668
 4750SOL    HW224181   0.855   7.812   5.426 -2.4051 -0.1743 -0.7507
 4751SOL     OW24182  11.488   4.298   6.706 -0.0346 -0.9480 -0.1642
 4751SOL    HW124183  11.436   4.378   6.710  0.9729 -0.3375  2.3621
 4751SOL    HW224184  11.435   4.238   6.653 -1.1309  1.1227 -1.5106
 4752SOL     OW24185   6.248   9.894   3.966  0.1146 -0.4107  0.3261
 4752SOL    HW124186   6.340   9.918   3.957 -0.0332  1.2811  2.3765
 4752SOL    HW224187   6.249   9.800   3.980  1.2473 -0.8864 -2.3782
 4753SOL     OW24188   4.663   1.127   6.653  0.5280  0.0632  0.3115
 4753SOL    HW124189   4.588   1.152   6.599  0.4781 -0.9199 -0.0968
 4753SOL    HW224190   4.688   1.040   6.620  2.5532  0.8368 -0.3327
 4754SOL     OW24191   1.103  10.834  12.830  0.2084  0.1194  0.0014
 4754SOL    HW124192   1.167  10.844  12.901  0.8539  0.5753 -0.6367
 4754SOL    HW224193   1.026  10.796  12.873  0.5705  0.4334  0.9546
 4755SOL     OW24194   4.898   0.981  11.731 -1.2204  0.4074  0.5132
 4755SOL    HW124195   4.804   0.969  11.721 -0.8609 -1.0496 -1.6994
 4755SOL    HW224196   4.926   0.904  11.781 -0.7114 -1.4892 -2.4641
 4756SOL     OW24197   2.751   8.040   4.374  0.1358  0.3549  0.1202
 4756SOL    HW124198   2.714   8.052   4.461 -1.1000 -0.3640 -0.2774
 4756SOL    HW224199   2.676   8.012   4.320  1.2829 -1.3731 -0.6729
 4757SOL     OW24200   0.281   2.245   5.277 -0.1374  0.7586 -0.5379
 4757SOL    HW124201   0.278   2.217   5.369  0.4942  1.3001 -0.3439
 4757SOL    HW224202   0.370   2.227   5.249  0.6252  3.3589 -0.1134
 4758SOL     OW24203   8.135   4.866  12.424  0.2657  0.1616  0.2947
 4758SOL    HW124204   8.229   4.861  12.407  0.1571  1.2635 -0.7472
 4758SOL    HW224205   8.116   4.787  12.475  1.6914 -0.2374  0.2565
 4759SOL     OW24206   7.849  10.404   8.063 -0.1440 -0.3632  0.4079
 4759SOL    HW124207   7.888  10.491   8.059  0.3305 -0.5378  1.0913
 4759SOL    HW224208   7.922  10.345   8.084 -0.1857 -1.1361 -1.4642
 4760SOL     OW24209   3.971  10.332   3.470  0.3725 -0.1109  0.1071
 4760SOL    HW124210   3.933  10.383   3.541 -0.2077  0.7758 -0.8049
 4760SOL    HW224211   3.911  10.258   3.458 -0.7930  0.9386 -0.9025
 4761SOL     OW24212  10.730   6.769   2.542  0.6367 -0.3143  0.5308
 4761SOL    HW124213  10.680   6.707   2.595  1.7815 -0.4283  1.5199
 4761SOL    HW224214  10.755   6.719   2.464  1.3907 -1.0769  1.2322
 4762SOL     OW24215   2.154  11.095   3.631  0.2879  0.0546 -0.0483
 4762SOL    HW124216   2.074  11.116   3.582  0.8596 -0.2370 -1.1373
 4762SOL    HW224217   2.225  11.133   3.579  0.9680 -0.8457  0.1974
 4763SOL     OW24218  12.844   6.212  11.128 -0.2416 -0.9070 -0.3526
 4763SOL    HW124219  12.908   6.244  11.192 -0.9173 -0.9248  0.3385
 4763SOL    HW224220  12.769   6.185  11.180 -1.2346  0.0792 -1.2268
 4764SOL     OW24221   3.539   5.858   5.685 -0.0825 -0.0557  0.0168
 4764SOL    HW124222   3.549   5.789   5.620  0.2117 -1.1745  1.1882
 4764SOL    HW224223   3.620   5.909   5.679 -0.5310  0.5548 -1.2247
 4765SOL     OW24224  10.278   7.057  11.031  0.5700  0.1797 -0.0846
 4765SOL    HW124225  10.348   7.040  10.968 -1.2414 -1.0558 -1.8846
 4765SOL    HW224226  10.323   7.067  11.115  2.8273 -2.3903 -0.8306
 4766SOL     OW24227   2.430   2.841   0.004  0.4512  0.2491 -0.1797
 4766SOL    HW124228   2.443   2.910   0.070 -0.4629  0.9648 -0.7248
 4766SOL    HW224229   2.392   2.768   0.053 -1.0685  1.0947 -0.0448
 4767SOL     OW24230   9.396   7.596   0.713 -0.1507  0.5126  0.0328
 4767SOL    HW124231   9.449   7.518   0.699 -0.8079 -0.2281  1.4163
 4767SOL    HW224232   9.455   7.670   0.699  0.8693 -0.2697  0.1638
 4768SOL     OW24233   3.594  10.386   6.005  0.3406  0.2316  0.0572
 4768SOL    HW124234   3.663  10.424   6.060 -1.2673  0.6186  1.9096
 4768SOL    HW224235   3.583  10.449   5.933  2.0991 -0.0117 -0.4889
 4769SOL     OW24236   4.763   6.164  12.798  0.2188  0.5147 -0.1371
 4769SOL    HW124237   4.689   6.111  12.829  0.4477 -0.3129 -0.9662
 4769SOL    HW224238   4.820   6.101  12.754  1.2280  1.2175  0.1474
 4770SOL     OW24239   1.969   3.158   5.834 -0.4056  0.5191 -0.0480
 4770SOL    HW124240   1.875   3.166   5.822 -0.3006  0.4016 -1.0276
 4770SOL    HW224241   1.990   3.219   5.904 -1.4275 -0.5561  1.2661
 4771SOL     OW24242   0.056  12.941   2.406 -0.0692  0.0865  0.8744
 4771SOL    HW124243   0.015  12.969   2.488  1.2711 -1.9628  2.3434
 4771SOL    HW224244   0.056  12.846   2.411  1.6450 -0.0475 -0.6944
 4772SOL     OW24245   2.350  10.461   1.384  0.0509 -0.3183 -0.3940
 4772SOL    HW124246   2.392  10.386   1.343  0.5739  0.6034 -1.5845
 4772SOL    HW224247   2.383  10.537   1.337 -0.9795  0.6270  0.3396
 4773SOL     OW24248  13.033   5.961  11.469  0.3438 -0.2278  0.5411
 4773SOL    HW124249  13.056   5.870  11.452  0.3543  0.0010 -0.8366
 4773SOL    HW224250  13.088   6.011  11.408  1.6060  0.8330  2.4739
 4774SOL     OW24251   6.860   6.438   0.457  0.0770  0.0382  0.1936
 4774SOL    HW124252   6.775   6.401   0.480 -0.7215  1.4410 -0.3917
 4774SOL    HW224253   6.868   6.423   0.363  0.0939  0.6736  0.0933
 4775SOL     OW24254   3.664   1.052   1.543  0.5974 -0.0603 -0.4494
 4775SOL    HW124255   3.645   1.140   1.511 -0.2003  0.2019  0.6509
 4775SOL    HW224256   3.578   1.014   1.559  0.9357 -1.1072 -1.0617
 4776SOL     OW24257   7.807   8.813   3.896  0.1976 -0.0915  0.6582
 4776SOL    HW124258   7.765   8.818   3.982 -1.4195 -2.3857  0.1212
 4776SOL    HW224259   7.833   8.721   3.888  0.9355  0.2286 -1.0396
 4777SOL     OW24260   1.203  13.133   1.593 -0.1911 -0.7955  0.2506
 4777SOL    HW124261   1.176  13.123   1.502  1.0982 -1.4078 -0.0868
 4777SOL    HW224262   1.240  13.048   1.616 -1.7179 -1.1042  1.7873
 4778SOL     OW24263  11.070   9.316   3.821  0.2431  0.1584 -0.5235
 4778SOL    HW124264  11.100   9.225   3.819  0.1229  0.0863  0.4847
 4778SOL    HW224265  11.144   9.366   3.786  0.6239 -0.2513 -0.3175
 4779SOL     OW24266  11.818   0.303   7.627 -0.2695 -0.6829  0.2825
 4779SOL    HW124267  11.790   0.247   7.555  2.4456 -2.3815  0.3906
 4779SOL    HW224268  11.886   0.252   7.672  2.9376  2.8472  0.0038
 4780SOL     OW24269   1.635   9.805  12.978 -0.7403  0.1448  0.3791
 4780SOL    HW124270   1.594   9.778  12.896 -0.9052 -0.0383  0.5203
 4780SOL    HW224271   1.726   9.824  12.955 -0.8325  0.2733  0.1192
 4781SOL     OW24272   5.297   8.748  12.821  0.2155 -0.4000  0.1077
 4781SOL    HW124273   5.322   8.674  12.765  1.3707  0.1389 -0.1247
 4781SOL    HW224274   5.205   8.733  12.842  0.5101 -2.0703  0.3267
 4782SOL     OW24275  11.925   4.882   0.037 -0.4183  0.1459 -0.0529
 4782SOL    HW124276  11.881   4.960   0.071  2.1926  1.5175  0.4868
 4782SOL    HW224277  11.959   4.838   0.115 -0.1581 -0.4094 -0.4692
 4783SOL     OW24278   9.158   9.805   4.130 -0.2092 -0.3572  0.5227
 4783SOL    HW124279   9.230   9.765   4.179  0.5500 -1.8456 -1.6061
 4783SOL    HW224280   9.081   9.754   4.154 -0.1251 -0.1874  1.1659
 4784SOL     OW24281   3.472   6.291  12.734  0.0411  0.1212 -0.6027
 4784SOL    HW124282   3.469   6.387  12.736 -0.3489  0.1478 -1.7793
 4784SOL    HW224283   3.559   6.271  12.700  0.4325  0.0280  0.4198
 4785SOL     OW24284   3.668   4.710   4.252 -0.0760  0.0293 -0.6851
 4785SOL    HW124285   3.645   4.638   4.310  0.2276  0.2823 -0.2432
 4785SOL    HW224286   3.637   4.683   4.166  0.5830 -0.8981 -0.6403
 4786SOL     OW24287   7.527  11.923   6.659  0.0314 -0.2739 -0.3139
 4786SOL    HW124288   7.489  12.008   6.635  0.4031 -0.1901 -0.6088
 4786SOL    HW224289   7.455  11.875   6.699 -0.7118 -0.5709 -1.9327
 4787SOL     OW24290  12.742   0.754   0.314 -0.1946  0.1286  0.1008
 4787SOL    HW124291  12.819   0.801   0.345 -0.0813 -0.9815  1.6288
 4787SOL    HW224292  12.774   0.701   0.241  0.1726  0.7130 -0.1643
 4788SOL     OW24293   0.691   8.220  12.202  0.1819 -0.9951  0.1265
 4788SOL    HW124294   0.612   8.205  12.254 -0.8979  0.2885 -1.0433
 4788SOL    HW224295   0.673   8.175  12.119 -0.1341  0.7370 -0.8030
 4789SOL     OW24296   4.651  11.010   9.717 -0.1413 -0.2255 -0.2138
 4789SOL    HW124297   4.605  11.003   9.633  1.3543  0.9994 -1.1998
 4789SOL    HW224298   4.669  10.920   9.742 -1.0895 -0.6339 -0.9293
 4790SOL     OW24299   9.246  10.186   4.586  0.4059  0.2801 -0.5583
 4790SOL    HW124300   9.244  10.260   4.527 -1.5051  0.1398 -0.7199
 4790SOL    HW224301   9.203  10.115   4.538 -1.5463  0.2733  1.0693
 4791SOL     OW24302   1.279   7.710   3.864 -0.2494  0.0713  0.4318
 4791SOL    HW124303   1.318   7.794   3.843 -1.9815  0.7239 -0.3710
 4791SOL    HW224304   1.222   7.727   3.939  0.6568 -0.7793  1.3492
 4792SOL     OW24305  12.139   4.948   8.647  0.4022  0.2923 -0.3828
 4792SOL    HW124306  12.072   4.921   8.583 -0.3152  1.5414 -0.1843
 4792SOL    HW224307  12.182   5.023   8.606  1.8543 -0.6260 -0.5968
 4793SOL     OW24308   5.248   0.773   7.505  0.3045  0.1244 -0.2811
 4793SOL    HW124309   5.300   0.704   7.463  0.0502  2.0180 -4.1094
 4793SOL    HW224310   5.163   0.768   7.461  0.3256  2.8997 -0.7992
 4794SOL     OW24311  12.259   9.104   5.117  0.0595  0.4182  0.3926
 4794SOL    HW124312  12.245   9.144   5.031  0.8303  1.3115  0.6767
 4794SOL    HW224313  12.171   9.092   5.152 -0.3680 -1.1105 -1.0105
 4795SOL     OW24314   1.038   1.544   2.051 -0.1499  0.3291 -0.0886
 4795SOL    HW124315   0.947   1.559   2.075 -0.7537 -2.6383 -0.1163
 4795SOL    HW224316   1.035   1.525   1.958  0.5725  0.6113 -0.1738
 4796SOL     OW24317   0.139   8.673   2.664  0.2134  0.6154 -0.1685
 4796SOL    HW124318   0.162   8.649   2.753 -0.3520  0.7293  0.0083
 4796SOL    HW224319   0.218   8.715   2.630  1.6090 -2.2860 -0.8324
 4797SOL     OW24320   4.829   5.741   7.438  0.4573 -0.2166  0.7997
 4797SOL    HW124321   4.902   5.799   7.420 -0.1106  0.9517  2.1056
 4797SOL    HW224322   4.869   5.659   7.467  1.2671 -0.5731 -1.1907
 4798SOL     OW24323  12.780   9.221   6.740 -0.4179 -0.7570 -0.2528
 4798SOL    HW124324  12.814   9.310   6.744  0.2591 -0.9563 -1.2102
 4798SOL    HW224325  12.791   9.195   6.649 -0.7808 -1.7565 -0.0264
 4799SOL     OW24326   4.389   8.991   0.081  0.4846  0.3043 -0.5163
 4799SOL    HW124327   4.316   8.936   0.055  1.2535 -0.0955 -1.9638
 4799SOL    HW224328   4.349   9.075   0.104 -0.4578 -0.0549 -0.8032
 4800SOL     OW24329   1.197  12.978  12.279 -0.0041 -0.3613 -0.1388
 4800SOL    HW124330   1.245  12.989  12.361 -0.4847 -0.1152  0.1113
 4800SOL    HW224331   1.124  12.920  12.301 -0.4614  0.1607 -0.2591
 4801SOL     OW24332   9.937   0.424  12.515  0.4135 -0.0051 -0.7846
 4801SOL    HW124333   9.995   0.349  12.503  0.2897 -0.3785  0.8187
 4801SOL    HW224334   9.981   0.479  12.579 -0.7590 -0.0508  0.0827
 4802SOL     OW24335  12.671   0.147   1.749  0.5655 -0.2209 -0.1434
 4802SOL    HW124336  12.712   0.228   1.718  1.8015 -1.2677 -1.4156
 4802SOL    HW224337  12.743   0.084   1.753 -0.4171 -1.3492  0.5034
 4803SOL     OW24338   7.706   0.367   8.691 -0.3854  0.2074 -0.5533
 4803SOL    HW124339   7.794   0.340   8.720 -0.4672 -0.1957 -0.6767
 4803SOL    HW224340   7.713   0.461   8.679 -0.6702  0.6378  2.0409
 4804SOL     OW24341   8.031   8.929   3.734 -0.4985 -0.2060  0.4564
 4804SOL    HW124342   8.030   9.024   3.745  0.4574 -0.4223  3.2070
 4804SOL    HW224343   7.954   8.898   3.782  0.4557 -0.9346  1.5733
 4805SOL     OW24344   7.306   4.885   6.605  0.5603  0.5184  0.2217
 4805SOL    HW124345   7.286   4.891   6.511  2.2773  2.6407 -0.0661
 4805SOL    HW224346   7.311   4.790   6.621 -0.6413  0.0772 -1.5899
 4806SOL     OW24347  12.559   5.058  12.773 -0.1990 -0.4352 -0.5024
 4806SOL    HW124348  12.613   5.019  12.842  0.3827 -1.3962 -1.4754
 4806SOL    HW224349  12.478   5.008  12.774  0.3363 -1.3469 -1.3919
 4807SOL     OW24350  10.282   2.446   2.903  0.1861 -0.0504 -0.3024
 4807SOL    HW124351  10.269   2.535   2.937 -1.0423 -0.3159 -0.0434
 4807SOL    HW224352  10.208   2.396   2.937 -0.1136 -0.7591 -1.9122
 4808SOL     OW24353  12.057  12.435   5.148  0.4950  0.1618 -0.0270
 4808SOL    HW124354  12.046  12.381   5.071 -1.8394 -0.7351  0.8642
 4808SOL    HW224355  12.109  12.382   5.208  0.5680  0.0291 -0.2086
 4809SOL     OW24356   5.505   2.226   7.879 -0.1066  0.7015  0.6404
 4809SOL    HW124357   5.429   2.267   7.920 -0.1466 -0.2126  1.5113
 4809SOL    HW224358   5.566   2.211   7.951  0.8970  1.3857 -0.0385
 4810SOL     OW24359  11.596   6.390   1.986 -0.3083 -0.2528 -0.2382
 4810SOL    HW124360  11.626   6.449   2.055  0.1852 -1.3878  0.5339
 4810SOL    HW224361  11.588   6.447   1.909  0.1416  0.8294  0.4835
 4811SOL     OW24362  12.560   2.616   2.628  0.3345 -0.9450  0.2716
 4811SOL    HW124363  12.632   2.612   2.691  0.0984  0.2274  0.6416
 4811SOL    HW224364  12.481   2.614   2.682  0.1269 -0.1085  0.0034
 4812SOL     OW24365   7.925  12.733   8.714  0.2251 -0.7200 -0.2878
 4812SOL    HW124366   7.970  12.667   8.662  1.0977 -0.3284 -0.0603
 4812SOL    HW224367   7.882  12.790   8.650  1.7706  0.0999 -0.6495
 4813SOL     OW24368  11.029   4.623   4.729  0.5116 -0.9289  0.7314
 4813SOL    HW124369  11.048   4.717   4.734  1.9343 -1.1865  0.4026
 4813SOL    HW224370  11.055   4.589   4.815  0.5123 -1.1098  0.6599
 4814SOL     OW24371  12.064   6.091   0.174 -0.3640  0.0223  0.1507
 4814SOL    HW124372  12.045   6.018   0.234 -0.0592  0.4378  0.7572
 4814SOL    HW224373  12.077   6.166   0.231 -1.7887  0.8197 -0.5266
 4815SOL     OW24374  12.418   9.299   2.170 -0.1918  0.0403 -0.0692
 4815SOL    HW124375  12.356   9.266   2.235 -1.1588  0.8261 -0.5714
 4815SOL    HW224376  12.491   9.334   2.221 -0.4055 -0.3938  0.5455
 4816SOL     OW24377   0.303  12.787   6.299  0.3545 -0.4211 -0.1596
 4816SOL    HW124378   0.323  12.697   6.273 -1.5179 -1.2000  0.8748
 4816SOL    HW224379   0.221  12.808   6.254 -0.2760  0.0222  1.1433
 4817SOL     OW24380   3.861   0.090  12.084 -0.0502  0.0762  0.2014
 4817SOL    HW124381   3.781   0.120  12.041 -0.3726 -1.3118 -0.2136
 4817SOL    HW224382   3.905   0.170  12.110 -1.1717  0.8900 -0.3063
 4818SOL     OW24383   5.618   1.712   6.261 -0.0878 -0.3409 -0.1790
 4818SOL    HW124384   5.604   1.641   6.323  0.8081 -0.6567 -0.3295
 4818SOL    HW224385   5.536   1.717   6.211 -0.4471 -0.7240  0.3726
 4819SOL     OW24386  13.037   9.036   8.803  0.0868  0.0575  0.6549
 4819SOL    HW124387  13.114   8.981   8.821  0.6467  0.0364 -1.5296
 4819SOL    HW224388  13.052   9.115   8.855  0.6063 -0.7103  1.7304
 4820SOL     OW24389   3.977  12.036  13.080 -0.1474  0.3457 -0.6316
 4820SOL    HW124390   4.032  12.058  13.155 -0.3375  1.9641 -0.9277
 4820SOL    HW224391   3.975  11.940  13.079  2.3093  0.2325 -0.3723
 4821SOL     OW24392   8.951   3.130   9.052  0.0647  0.0518  0.0200
 4821SOL    HW124393   8.965   3.148   9.145 -0.3016 -0.1868  0.1247
 4821SOL    HW224394   9.038   3.131   9.014  0.4537 -1.9785  0.7502
 4822SOL     OW24395  12.356  12.057   6.634  0.1293 -0.3949 -0.0136
 4822SOL    HW124396  12.407  12.135   6.654  0.6400 -0.8941  0.6657
 4822SOL    HW224397  12.420  11.986   6.632 -0.2222 -0.6966 -1.3663
 4823SOL     OW24398   1.652   4.587   3.792 -0.0101 -0.3162 -0.2095
 4823SOL    HW124399   1.715   4.614   3.859 -0.3418  1.3212 -0.5095
 4823SOL    HW224400   1.571   4.632   3.817 -0.4138 -0.5069 -1.1460
 4824SOL     OW24401   4.565  12.174   7.007  0.1073 -0.1754  0.3001
 4824SOL    HW124402   4.588  12.082   6.996  0.5589 -0.2033  1.3760
 4824SOL    HW224403   4.517  12.177   7.089 -0.4294  0.4663 -0.0260
 4825SOL     OW24404   2.135   0.055  10.581  0.8428 -0.3116  0.1926
 4825SOL    HW124405   2.202   0.022  10.522  1.3140  0.6651  0.1721
 4825SOL    HW224406   2.093   0.126  10.534  1.2108  0.4678  1.0061
 4826SOL     OW24407  10.461   7.553   5.864  0.0810  0.2940  0.1819
 4826SOL    HW124408  10.533   7.616   5.859 -0.6279  1.2024  1.1148
 4826SOL    HW224409  10.398   7.593   5.923 -0.4762 -1.2157  0.6514
 4827SOL     OW24410   6.306   0.812   7.072  0.1790 -0.0660 -0.1552
 4827SOL    HW124411   6.238   0.860   7.025 -1.5159 -0.6516  1.5904
 4827SOL    HW224412   6.292   0.721   7.048  1.4236 -0.0632 -1.0280
 4828SOL     OW24413  12.060   5.932   0.767  0.4655 -0.0662  0.1667
 4828SOL    HW124414  12.110   5.913   0.846  1.2407  1.2818  0.0344
 4828SOL    HW224415  12.091   6.019   0.740 -1.9190  0.8060  0.0417
 4829SOL     OW24416   3.012   9.447  12.067  0.2226 -0.6883  0.5086
 4829SOL    HW124417   3.022   9.542  12.067 -1.8593 -0.4112  1.3126
 4829SOL    HW224418   2.962   9.428  11.987 -0.5265 -0.9254  1.0205
 4830SOL     OW24419   3.934   7.507  10.849  0.2536 -0.0301  0.2952
 4830SOL    HW124420   3.919   7.436  10.911 -0.4069  1.4949  1.9826
 4830SOL    HW224421   4.016   7.547  10.878 -0.7778  1.5871  1.1749
 4831SOL     OW24422   6.599   9.473  11.361  0.1927  0.2294  0.2039
 4831SOL    HW124423   6.619   9.567  11.359 -1.3698  0.6259  1.2546
 4831SOL    HW224424   6.514   9.468  11.405  0.0255 -1.6515 -0.2586
 4832SOL     OW24425   8.400  10.830   4.159  0.3254  0.2333  0.4595
 4832SOL    HW124426   8.403  10.925   4.162 -1.5256  0.3469 -0.4509
 4832SOL    HW224427   8.380  10.803   4.248 -3.3822  0.9708 -0.0151
 4833SOL     OW24428   7.274   3.574  11.730 -0.9203  0.3442 -0.3428
 4833SOL    HW124429   7.364   3.574  11.762 -0.8880  0.0360 -0.4293
 4833SOL    HW224430   7.224   3.531  11.800 -0.6542 -1.4841 -1.2242
 4834SOL     OW24431  12.086   8.000  13.015 -0.2550 -0.2358 -0.9043
 4834SOL    HW124432  12.006   7.961  13.050  0.7278 -0.3907  1.3311
 4834SOL    HW224433  12.135   7.925  12.981  0.1771 -0.5489  0.3599
 4835SOL     OW24434  12.141  10.754   0.780  0.1392 -0.2348 -0.6717
 4835SOL    HW124435  12.202  10.685   0.756  0.4727 -0.2775  0.2709
 4835SOL    HW224436  12.142  10.814   0.705 -0.1387 -1.2236 -1.4854
 4836SOL     OW24437   3.336  13.226   8.743  0.0596 -0.2071 -0.6408
 4836SOL    HW124438   3.374  13.213   8.655  1.8199 -1.0272  0.1780
 4836SOL    HW224439   3.261  13.166   8.745 -0.5274  0.4386 -1.8576
 4837SOL     OW24440   8.362   4.210  12.525 -0.1792 -0.5538  0.1690
 4837SOL    HW124441   8.399   4.137  12.574 -1.1101 -0.0179  1.7383
 4837SOL    HW224442   8.393   4.197  12.435  2.2331 -1.1257  1.0283
 4838SOL     OW24443   5.158   1.094  11.662  0.4029  0.0749 -0.2424
 4838SOL    HW124444   5.179   1.042  11.584 -0.7199 -0.3845 -0.2593
 4838SOL    HW224445   5.069   1.067  11.685  0.7151  0.2040  1.2019
 4839SOL     OW24446   3.514   0.489   6.436  0.2911  0.1381 -1.0124
 4839SOL    HW124447   3.516   0.476   6.531  1.9156  0.9459 -0.9011
 4839SOL    HW224448   3.422   0.509   6.417 -0.3627 -1.5185  0.1391
 4840SOL     OW24449   8.269   0.766   1.083  0.1374  0.3370 -0.1488
 4840SOL    HW124450   8.278   0.709   1.159  1.6284 -0.3085 -0.7757
 4840SOL    HW224451   8.230   0.711   1.015  0.6078  0.3489 -0.4354
 4841SOL     OW24452   4.447   6.863   0.613  0.3741  0.5169  0.3014
 4841SOL    HW124453   4.430   6.953   0.584  2.3231  2.1212  3.5267
 4841SOL    HW224454   4.533   6.842   0.578 -0.3579 -0.4718 -1.0203
 4842SOL     OW24455  10.387   7.991   8.266 -0.3603 -0.0731 -0.0543
 4842SOL    HW124456  10.322   7.920   8.262 -0.7393  0.1323  1.6463
 4842SOL    HW224457  10.341   8.067   8.230 -0.4379 -0.3551 -0.5579
 4843SOL     OW24458  12.257   2.716   2.484  0.1450  0.0931 -0.1745
 4843SOL    HW124459  12.287   2.686   2.570 -0.2487  2.2006  0.7569
 4843SOL    HW224460  12.274   2.810   2.484 -1.2968  0.4110 -1.8063
 4844SOL     OW24461  10.282   9.966   3.946 -0.2379 -0.6115 -0.6823
 4844SOL    HW124462  10.237   9.894   3.990  0.7039  0.1313  1.6573
 4844SOL    HW224463  10.221  10.040   3.951 -0.2249 -0.5922 -0.8129
 4845SOL     OW24464   7.688   8.723  12.623  0.1374 -0.1674  0.2003
 4845SOL    HW124465   7.636   8.688  12.551 -2.7121  0.2310  1.8939
 4845SOL    HW224466   7.767   8.757  12.582 -1.7873  1.0305 -2.8883
 4846SOL     OW24467   4.490   9.452   6.168  0.2210 -0.5461 -0.1111
 4846SOL    HW124468   4.583   9.434   6.175  0.2122 -0.8257 -0.6582
 4846SOL    HW224469   4.453   9.374   6.126 -0.0905 -0.0101 -0.8595
 4847SOL     OW24470   7.861  12.091   2.890 -0.0124 -0.2284 -0.0862
 4847SOL    HW124471   7.862  12.074   2.796 -0.4322 -1.0971  0.0602
 4847SOL    HW224472   7.918  12.024   2.927 -1.6879 -1.3845  0.4991
 4848SOL     OW24473   4.400   5.301  12.317  0.1235 -0.4405  0.2642
 4848SOL    HW124474   4.458   5.318  12.391  1.3519 -1.0649 -0.5180
 4848SOL    HW224475   4.448   5.238  12.263 -1.7472 -1.8106  0.1132
 4849SOL     OW24476  11.777   9.561   0.794 -0.0372 -0.6566 -0.4664
 4849SOL    HW124477  11.866   9.552   0.759  0.4458  0.3128  0.4771
 4849SOL    HW224478  11.778   9.511   0.875  0.2312  0.8967  0.5234
 4850SOL     OW24479  11.654   4.418  11.750 -0.6119 -0.1330 -0.3915
 4850SOL    HW124480  11.588   4.400  11.816 -1.1685 -0.0138 -0.9065
 4850SOL    HW224481  11.705   4.491  11.785 -2.0985  1.1991 -0.9237
 4851SOL     OW24482  12.217   6.424  12.711 -0.3433 -0.4078 -0.5885
 4851SOL    HW124483  12.310   6.406  12.695 -0.2415  1.1786 -1.8857
 4851SOL    HW224484  12.184   6.342  12.750  1.6942 -0.8169  0.3956
 4852SOL     OW24485   1.982  12.414  10.290  0.1669 -0.3165 -0.1022
 4852SOL    HW124486   2.044  12.477  10.328 -0.2806  0.0219  0.0742
 4852SOL    HW224487   2.014  12.400  10.201  1.6148 -1.6254  0.5672
 4853SOL     OW24488   2.865  10.618  10.085  0.3304  0.0185 -0.5839
 4853SOL    HW124489   2.887  10.693  10.030  1.9668 -1.5159 -2.1484
 4853SOL    HW224490   2.771  10.607  10.073 -0.2051  2.4883  0.6554
 4854SOL     OW24491   0.004   2.598   5.041  0.2538  0.4898 -0.1832
 4854SOL    HW124492  -0.064   2.544   5.081 -0.0009  0.8533 -0.1218
 4854SOL    HW224493  -0.004   2.581   4.947  0.3376  0.2310 -0.1426
 4855SOL     OW24494   1.812  13.104  13.025 -0.2047  0.2927  0.1688
 4855SOL    HW124495   1.741  13.110  12.961 -0.3513  2.6415  0.4497
 4855SOL    HW224496   1.886  13.146  12.981  1.1907 -2.3955 -0.2401
 4856SOL     OW24497  13.057   5.850   9.154  0.0854 -0.4594  0.0978
 4856SOL    HW124498  12.995   5.832   9.084  1.5505  0.6385 -1.5444
 4856SOL    HW224499  13.076   5.763   9.191 -0.8531 -1.0369 -0.7150
 4857SOL     OW24500  12.185   6.564   0.626 -0.1232  0.1457  0.1865
 4857SOL    HW124501  12.164   6.474   0.652 -0.8292 -0.2979 -1.7444
 4857SOL    HW224502  12.114   6.588   0.566  0.1075  1.9724  0.5931
 4858SOL     OW24503   7.381   8.097   5.150  0.1595 -0.3287  0.3520
 4858SOL    HW124504   7.388   8.178   5.201  0.6454  0.3792 -0.7749
 4858SOL    HW224505   7.366   8.128   5.060 -4.1460 -1.5407  0.4598
 4859SOL     OW24506   6.956   9.963   0.099 -0.2600 -0.5542  0.0345
 4859SOL    HW124507   7.036   9.917   0.073  0.7500  1.5511 -0.8709
 4859SOL    HW224508   6.889   9.930   0.039  0.4870 -0.7047 -0.7411
 4860SOL     OW24509   3.582  12.312  11.444  0.0710  0.6808 -0.2552
 4860SOL    HW124510   3.605  12.401  11.470  0.1672  0.3099  1.0153
 4860SOL    HW224511   3.627  12.257  11.508 -1.5655 -0.2072  0.1744
 4861SOL     OW24512   6.086   3.161   0.706  0.3241  0.6521 -0.0303
 4861SOL    HW124513   6.025   3.141   0.635  1.5108  2.2766 -1.6132
 4861SOL    HW224514   6.171   3.134   0.673  0.8330  0.8906  1.0324
 4862SOL     OW24515   4.860  11.418   2.456  0.3544 -0.4050  0.1624
 4862SOL    HW124516   4.799  11.423   2.529 -0.5858  0.7383 -0.6654
 4862SOL    HW224517   4.893  11.328   2.458  2.0326  0.1168  3.2911
 4863SOL     OW24518  10.295  10.979   4.270  0.1893 -0.1659 -0.3052
 4863SOL    HW124519  10.218  10.990   4.215  0.3780 -1.8987 -0.9819
 4863SOL    HW224520  10.268  10.917   4.338  0.7861 -0.2472 -0.1327
 4864SOL     OW24521   7.626   8.775  10.937 -0.0512  0.4532 -0.2234
 4864SOL    HW124522   7.555   8.778  11.001 -0.2755  0.2367 -0.4619
 4864SOL    HW224523   7.584   8.796  10.854  0.0008 -0.4964 -0.5041
 4865SOL     OW24524   1.768   4.086  12.939 -1.1866  0.0730  0.1430
 4865SOL    HW124525   1.713   4.009  12.956 -0.9921 -0.1976 -0.4116
 4865SOL    HW224526   1.771   4.092  12.843 -0.9516  0.5913  0.1832
 4866SOL     OW24527   6.214  11.074   2.842  0.4515 -0.1566  0.1378
 4866SOL    HW124528   6.148  11.138   2.817  0.9499  0.2316 -0.2273
 4866SOL    HW224529   6.281  11.081   2.773 -0.4556 -2.5648 -1.0875
 4867SOL     OW24530   2.164   1.552   2.095 -0.4420  0.5949 -0.2936
 4867SOL    HW124531   2.191   1.624   2.038 -1.2678  1.4851  0.3972
 4867SOL    HW224532   2.079   1.580   2.130 -0.9719 -0.9114 -0.3323
 4868SOL     OW24533   2.769  10.233   1.830  0.1124  0.4038 -0.0732
 4868SOL    HW124534   2.702  10.301   1.817  0.1482  0.5203  0.3237
 4868SOL    HW224535   2.759  10.175   1.755  0.8794  1.5041 -1.0577
 4869SOL     OW24536   3.417  11.047   3.578 -0.1304 -0.1475  0.4520
 4869SOL    HW124537   3.482  11.098   3.626  0.2798 -0.4632  0.2383
 4869SOL    HW224538   3.444  10.956   3.589 -1.2771 -0.3964  1.4501
 4870SOL     OW24539  12.012   7.723   4.317  0.4266  0.0860 -0.2133
 4870SOL    HW124540  11.964   7.806   4.325  0.2545 -0.1744  2.0813
 4870SOL    HW224541  12.104   7.749   4.317  0.4461  0.4947 -3.4891
 4871SOL     OW24542   1.607   4.953   8.392  0.6715 -0.2385 -0.2950
 4871SOL    HW124543   1.518   4.924   8.406  0.5716  0.1722 -0.0501
 4871SOL    HW224544   1.644   4.961   8.480  0.6660  0.4409 -0.3466
 4872SOL     OW24545   3.130   5.925  12.256 -0.2142 -1.0156  0.2965
 4872SOL    HW124546   3.154   5.838  12.223  0.4120 -1.7916  2.6195
 4872SOL    HW224547   3.198   5.945  12.320 -1.7947  0.0230  1.6947
 4873SOL     OW24548  12.861  11.403   8.986  0.1353  0.1458  0.0366
 4873SOL    HW124549  12.790  11.467   8.983  0.4811  0.5032 -0.8092
 4873SOL    HW224550  12.912  11.427   9.064 -1.4957 -1.0572  1.5733
 4874SOL     OW24551  12.276   9.200   1.114 -0.1333  0.7621  0.2883
 4874SOL    HW124552  12.188   9.196   1.153  0.0859  0.6505  0.7750
 4874SOL    HW224553  12.289   9.293   1.095 -0.0647  0.8844  0.9036
 4875SOL     OW24554  12.873  10.842   9.613 -0.2800  0.2639 -0.1492
 4875SOL    HW124555  12.900  10.926   9.650 -4.4400  2.1135 -0.7998
 4875SOL    HW224556  12.829  10.797   9.685 -2.2620  0.8105 -0.9702
 4876SOL     OW24557  10.935   7.959  10.457  0.4599  0.3802  0.0397
 4876SOL    HW124558  10.959   7.992  10.370 -1.9127  1.2223 -0.3711
 4876SOL    HW224559  11.009   7.904  10.482  1.6086  0.7880 -2.1338
 4877SOL     OW24560   1.267   3.643   6.134 -0.0650 -0.3101  0.2274
 4877SOL    HW124561   1.232   3.635   6.046  0.3174  0.4902 -0.0106
 4877SOL    HW224562   1.191   3.666   6.188 -0.3767 -1.2279  0.1937
 4878SOL     OW24563   4.809   6.253   0.302 -0.1064  0.0494  0.0008
 4878SOL    HW124564   4.892   6.214   0.277 -0.3841 -0.5518  0.0019
 4878SOL    HW224565   4.810   6.340   0.262 -0.4119 -0.7626 -1.8721
 4879SOL     OW24566   8.341   4.243  13.183  0.3213 -0.7636  0.0134
 4879SOL    HW124567   8.261   4.294  13.181  0.7482 -0.0638 -2.2465
 4879SOL    HW224568   8.411   4.309  13.186  0.8424 -1.2513 -1.0256
 4880SOL     OW24569   4.834   6.726   5.447 -0.0069  0.0195 -0.7721
 4880SOL    HW124570   4.913   6.723   5.502 -0.6196 -0.9554  0.1009
 4880SOL    HW224571   4.780   6.794   5.486 -0.7522 -1.1545  0.3215
 4881SOL     OW24572   5.775   7.254   9.077  0.2482  0.3066 -0.7897
 4881SOL    HW124573   5.869   7.271   9.072  0.4519 -0.8971 -1.3079
 4881SOL    HW224574   5.767   7.173   9.127 -0.5235  0.4363 -0.6837
 4882SOL     OW24575   9.915   2.695  12.345 -0.3234 -0.3570 -0.1993
 4882SOL    HW124576   9.939   2.738  12.427  1.0695 -0.7768 -0.3562
 4882SOL    HW224577   9.990   2.710  12.288 -2.5209  2.7742 -2.6146
 4883SOL     OW24578   5.087   7.204   8.399 -0.1885 -0.7899 -0.3118
 4883SOL    HW124579   5.090   7.145   8.323  0.7729 -1.2020  0.0203
 4883SOL    HW224580   5.171   7.250   8.396 -1.9945  2.7232 -2.1774
 4884SOL     OW24581  12.570   7.209   5.720  0.6360  0.6905  0.6267
 4884SOL    HW124582  12.613   7.179   5.640  1.7047  1.0040  1.0665
 4884SOL    HW224583  12.479   7.180   5.711  0.8367  0.3705 -0.5119
 4885SOL     OW24584   9.402   1.207  10.470  0.3219 -0.5584  0.1494
 4885SOL    HW124585   9.306   1.210  10.467  0.2243 -2.8173 -0.3505
 4885SOL    HW224586   9.427   1.157  10.393  1.6188 -3.5405  2.3365
 4886SOL     OW24587   1.111   1.701   8.460  0.1070 -0.2596  0.4231
 4886SOL    HW124588   1.076   1.644   8.529  0.4680  1.7257  2.3374
 4886SOL    HW224589   1.205   1.686   8.463 -0.0520 -2.8395 -2.2285
 4887SOL     OW24590  13.217   1.760   4.514 -0.4072 -0.2684  0.0387
 4887SOL    HW124591  13.267   1.706   4.453  2.9028  3.0204 -0.5614
 4887SOL    HW224592  13.153   1.805   4.459 -1.1513 -1.3204  0.0241
 4888SOL     OW24593   4.016   3.953  11.323 -0.5413 -0.0437  0.5454
 4888SOL    HW124594   3.968   3.998  11.253 -2.4018 -0.2690  1.6299
 4888SOL    HW224595   4.029   3.864  11.290 -2.1237 -0.3847  0.7800
 4889SOL     OW24596  11.799  10.821   1.363 -0.2796  0.0528 -0.6110
 4889SOL    HW124597  11.814  10.728   1.381 -0.1465 -0.1653 -1.7609
 4889SOL    HW224598  11.704  10.830   1.365 -0.2984 -0.1313 -0.6176
 4890SOL     OW24599  12.403  11.029   2.350 -0.0862 -0.2508  0.2089
 4890SOL    HW124600  12.434  10.974   2.279 -0.2883 -0.5441  0.3442
 4890SOL    HW224601  12.308  11.037   2.335  0.0511  0.6905 -0.2403
 4891SOL     OW24602   7.417   8.012   9.917  0.2634  0.6522  0.2623
 4891SOL    HW124603   7.476   8.037   9.846 -0.2701  2.2658  0.3562
 4891SOL    HW224604   7.342   7.973   9.873  0.0751  1.3569 -0.0432
 4892SOL     OW24605   6.465   9.673   9.466 -0.1279  0.1613  0.0033
 4892SOL    HW124606   6.540   9.664   9.407  0.9363  1.5863  1.0431
 4892SOL    HW224607   6.392   9.698   9.409  0.5039  0.0586 -0.8734
 4893SOL     OW24608   8.872  12.287   1.192 -0.1699 -0.1437  0.2067
 4893SOL    HW124609   8.835  12.329   1.270 -0.2495 -0.9261  0.6081
 4893SOL    HW224610   8.797  12.274   1.134  0.2186  2.5053 -1.0365
 4894SOL     OW24611   1.237   1.105  10.969 -0.1168  0.1839  0.4186
 4894SOL    HW124612   1.244   1.155  11.051  0.1659 -1.9445  1.7663
 4894SOL    HW224613   1.172   1.037  10.989  0.7499 -1.0241 -0.7710
 4895SOL     OW24614   6.876  12.500   6.236  0.7506 -0.5377 -0.3138
 4895SOL    HW124615   6.864  12.438   6.308 -0.9485 -1.0076 -0.9582
 4895SOL    HW224616   6.853  12.585   6.274  2.4800 -0.3461  0.3996
 4896SOL     OW24617   9.285   8.682   4.452  0.5274 -0.5858 -0.3260
 4896SOL    HW124618   9.374   8.680   4.418  1.3273 -0.2464  1.5884
 4896SOL    HW224619   9.237   8.739   4.392  1.2658 -1.6984 -2.0479
 4897SOL     OW24620   8.845   6.115  12.539  0.6273 -0.2307  0.0665
 4897SOL    HW124621   8.865   6.031  12.580  2.6200  0.6948  1.1261
 4897SOL    HW224622   8.821   6.093  12.450 -2.3682 -2.1893  1.2144
 4898SOL     OW24623   1.658   2.860   5.130 -0.3364  0.0560  0.1866
 4898SOL    HW124624   1.579   2.898   5.092  0.3355  0.7282 -0.5670
 4898SOL    HW224625   1.656   2.887   5.221  0.1279  1.9536 -0.3314
 4899SOL     OW24626  12.279   2.245  11.330  0.1136 -0.2838 -0.2504
 4899SOL    HW124627  12.348   2.250  11.264  0.8049  1.1204  0.5635
 4899SOL    HW224628  12.204   2.209  11.282  1.0727 -0.8119 -1.4013
 4900SOL     OW24629   3.992  10.550   9.196  0.4836  0.4792 -0.4504
 4900SOL    HW124630   3.944  10.502   9.265 -0.9578  1.0833 -1.0026
 4900SOL    HW224631   4.029  10.481   9.142  0.0451 -0.0177 -0.1363
 4901SOL     OW24632   8.860  10.776  10.815 -0.0235 -0.1830  0.3534
 4901SOL    HW124633   8.819  10.821  10.888 -3.2119 -0.0857 -1.3323
 4901SOL    HW224634   8.844  10.832  10.739  1.7662 -1.0435 -0.7434
 4902SOL     OW24635   0.169   0.388   7.423  0.2823 -0.4258  0.1573
 4902SOL    HW124636   0.146   0.473   7.460 -0.7411 -0.2566 -0.7877
 4902SOL    HW224637   0.223   0.346   7.490  0.8169  0.9608  0.6332
 4903SOL     OW24638   2.033   3.818   0.957 -0.0188 -0.3609  1.0980
 4903SOL    HW124639   2.059   3.822   0.865  0.3826  0.4378  1.2470
 4903SOL    HW224640   2.017   3.724   0.973 -0.2223 -0.4892  0.1877
 4904SOL     OW24641   9.374  11.770   1.602  0.3071  0.1959  0.0579
 4904SOL    HW124642   9.402  11.736   1.517  1.9746  0.8527  0.2950
 4904SOL    HW224643   9.302  11.713   1.628  2.4840 -2.7694  0.1018
 4905SOL     OW24644  10.668   5.776   6.019 -0.3087  0.2423 -0.0037
 4905SOL    HW124645  10.749   5.816   6.050  0.1294 -0.3774 -0.3174
 4905SOL    HW224646  10.682   5.762   5.926 -1.7556  2.4227 -0.6075
 4906SOL     OW24647   3.710  10.541   6.378 -0.2112  0.2360 -0.1118
 4906SOL    HW124648   3.742  10.479   6.443 -1.5872 -3.1721 -2.3929
 4906SOL    HW224649   3.643  10.592   6.424 -0.7734 -1.6836  1.2873
 4907SOL     OW24650   1.960   4.404   8.438 -0.2891 -0.1938 -0.2238
 4907SOL    HW124651   1.923   4.338   8.380 -1.0080  0.5206 -0.5892
 4907SOL    HW224652   1.948   4.368   8.526  0.0782 -0.9145 -0.4613
 4908SOL     OW24653  11.559   8.634   3.498  0.0050 -0.0967  0.0126
 4908SOL    HW124654  11.528   8.664   3.413  0.3278  0.5973  0.1283
 4908SOL    HW224655  11.582   8.715   3.545 -0.3921 -0.4508  0.8420
 4909SOL     OW24656   0.072   9.373  10.652  0.2207 -0.7498 -0.5800
 4909SOL    HW124657   0.006   9.362  10.720  2.1123  1.6267  1.8518
 4909SOL    HW224658   0.022   9.394  10.573 -1.9772  0.4402  1.0129
 4910SOL     OW24659  11.955   4.602   6.167 -0.0487  0.0727 -0.0920
 4910SOL    HW124660  12.014   4.674   6.144  1.2515 -0.7059  0.6965
 4910SOL    HW224661  11.873   4.645   6.192  0.2246  1.1857 -1.0222
 4911SOL     OW24662  12.036   0.858   1.860  0.0300 -0.0636  0.2917
 4911SOL    HW124663  11.941   0.872   1.860 -0.0723 -0.6111  1.9358
 4911SOL    HW224664  12.047   0.766   1.835  0.1510  0.0985 -0.2581
 4912SOL     OW24665   8.214   1.071   1.926 -0.5557 -0.0406 -0.0616
 4912SOL    HW124666   8.217   1.158   1.966 -1.4587 -1.1941  2.7026
 4912SOL    HW224667   8.121   1.057   1.906 -0.3386 -0.1856 -1.0301
 4913SOL     OW24668   8.251  11.852   6.497  0.0169 -0.1212 -0.1412
 4913SOL    HW124669   8.177  11.794   6.516  1.7307 -2.6865 -0.7746
 4913SOL    HW224670   8.247  11.865   6.402  0.5174 -0.5448 -0.2288
 4914SOL     OW24671  13.025  11.491   9.762  0.0358 -0.3275 -0.4423
 4914SOL    HW124672  12.989  11.412   9.801  1.5410 -0.5092  0.6898
 4914SOL    HW224673  12.958  11.521   9.701 -0.8724 -2.0551 -0.3472
 4915SOL     OW24674   6.642   2.424   5.217 -0.5323 -0.1852  0.5294
 4915SOL    HW124675   6.632   2.396   5.308 -2.6072 -0.5230  0.2376
 4915SOL    HW224676   6.585   2.501   5.209 -0.6232 -0.3472 -0.5495
 4916SOL     OW24677   3.583   4.919   8.228 -0.2097  0.3344 -0.1825
 4916SOL    HW124678   3.487   4.920   8.223 -0.2811 -1.7918  0.0281
 4916SOL    HW224679   3.606   4.828   8.246  1.7786  1.1795  2.0819
 4917SOL     OW24680   8.615  11.433   3.167 -0.8761  0.6037  0.5235
 4917SOL    HW124681   8.577  11.398   3.087 -0.8528  0.8656  0.3973
 4917SOL    HW224682   8.607  11.362   3.230  0.3013 -0.0923 -0.0742
 4918SOL     OW24683   1.858  10.858   0.846 -0.1776  0.7626  0.7123
 4918SOL    HW124684   1.764  10.863   0.831 -0.3648 -1.7011  0.6247
 4918SOL    HW224685   1.868  10.853   0.941 -0.3350 -0.8430  0.6795
 4919SOL     OW24686   5.519   2.471   9.929  0.3558 -0.2476  0.1871
 4919SOL    HW124687   5.509   2.400   9.992 -0.9316 -0.4346 -0.1907
 4919SOL    HW224688   5.546   2.428   9.848 -0.0658 -0.2724  0.0563
 4920SOL     OW24689   3.647   9.199   7.175 -0.3139 -0.2641  0.0420
 4920SOL    HW124690   3.710   9.137   7.141 -0.8075 -0.7117 -0.0693
 4920SOL    HW224691   3.570   9.189   7.119 -0.5805  0.0898  0.3323
 4921SOL     OW24692   0.939  10.111   5.062  0.0844 -0.2942  0.6878
 4921SOL    HW124693   1.015  10.059   5.034  0.8791  1.5926 -0.9308
 4921SOL    HW224694   0.954  10.197   5.023 -2.2538  0.5290  1.4589
 4922SOL     OW24695   6.733   7.256   1.214 -0.0499 -0.2118  0.5620
 4922SOL    HW124696   6.735   7.351   1.207  1.5128 -0.2984 -0.6437
 4922SOL    HW224697   6.649   7.231   1.173 -0.7056  0.6528  1.3457
 4923SOL     OW24698   3.047  10.084   3.479 -0.1003 -0.2094  0.1477
 4923SOL    HW124699   3.078  10.115   3.565  0.9189  0.2253 -0.3596
 4923SOL    HW224700   2.981  10.018   3.500  0.7721 -0.7539  1.2689
 4924SOL     OW24701   9.168  13.222   4.326 -0.4526  0.2102  0.1969
 4924SOL    HW124702   9.217  13.192   4.403 -0.6633 -3.9742 -1.0617
 4924SOL    HW224703   9.081  13.243   4.360  0.5013  2.3041  1.5812
 4925SOL     OW24704   6.092   2.288   9.681  0.1815 -0.1979  0.0051
 4925SOL    HW124705   6.163   2.243   9.636 -0.8871 -1.2321 -0.6881
 4925SOL    HW224706   6.064   2.227   9.749 -1.2608 -0.6209 -0.9289
 4926SOL     OW24707   6.249  12.988   4.352  0.8504 -0.1602 -0.0629
 4926SOL    HW124708   6.248  12.922   4.282  1.5874 -0.8309  0.5488
 4926SOL    HW224709   6.334  13.031   4.344  0.4528  0.6015 -0.3323
 4927SOL     OW24710   8.340  12.522   2.738  0.4367  0.6470 -0.2028
 4927SOL    HW124711   8.364  12.607   2.776  0.8665  0.2775  0.3688
 4927SOL    HW224712   8.256  12.539   2.694  0.5607  1.3881 -0.1752
 4928SOL     OW24713   3.587  12.100   0.409  0.2994 -0.3302 -0.2238
 4928SOL    HW124714   3.646  12.035   0.372  1.2880 -0.0878  0.8981
 4928SOL    HW224715   3.504  12.053   0.421  0.1649 -0.6200 -1.9808
 4929SOL     OW24716  11.319   1.284   8.377  0.0413  0.7420 -0.1687
 4929SOL    HW124717  11.315   1.374   8.408  1.9077  1.0453 -0.7044
 4929SOL    HW224718  11.326   1.231   8.457 -1.2501  1.0216  0.1538
 4930SOL     OW24719   1.141   5.528   2.628 -0.4951 -0.3813 -0.7149
 4930SOL    HW124720   1.208   5.595   2.640  1.3888 -2.5688  2.6348
 4930SOL    HW224721   1.186   5.446   2.646 -3.6736 -2.1954 -0.2292
 4931SOL     OW24722   7.282   8.615   4.402  0.3215 -0.2597  0.5356
 4931SOL    HW124723   7.205   8.559   4.397  0.9087 -1.1391  1.0785
 4931SOL    HW224724   7.318   8.614   4.313  0.3666 -0.8060  0.5560
 4932SOL     OW24725   3.306   2.209  11.787 -0.4342  0.0278 -0.3250
 4932SOL    HW124726   3.234   2.167  11.739  0.5675  0.0726 -1.9092
 4932SOL    HW224727   3.368   2.138  11.803  0.7166  0.6261 -1.9656
 4933SOL     OW24728  11.524   4.383   4.606  0.2976  0.1396 -0.3185
 4933SOL    HW124729  11.479   4.366   4.524 -0.1974  1.7945 -0.4306
 4933SOL    HW224730  11.484   4.322   4.668  1.4893 -1.9595 -1.5054
 4934SOL     OW24731   4.480  13.257  12.342 -0.0252  0.8437  0.1736
 4934SOL    HW124732   4.515  13.177  12.303  0.1515  1.6337 -1.3569
 4934SOL    HW224733   4.434  13.228  12.421  0.6257 -0.6705  0.0176
 4935SOL     OW24734   6.213   5.903   1.497 -0.1365  0.0489 -0.1590
 4935SOL    HW124735   6.141   5.919   1.436 -0.8982  0.4816  0.8229
 4935SOL    HW224736   6.181   5.936   1.581  0.9215 -0.4466  0.4595
 4936SOL     OW24737   2.471   4.040   9.102  0.2114  0.1371  0.2655
 4936SOL    HW124738   2.473   3.956   9.149 -0.0186 -1.2294 -2.0029
 4936SOL    HW224739   2.541   4.091   9.141 -0.3315 -0.6529  2.4541
 4937SOL     OW24740   7.893   8.110   4.875 -0.3647 -0.0014  0.4912
 4937SOL    HW124741   7.910   8.037   4.815 -3.0588  0.6736 -1.2377
 4937SOL    HW224742   7.875   8.067   4.959  2.1656 -1.0338  0.5952
 4938SOL     OW24743   0.025  13.210   6.731  0.0037 -0.0155 -0.2008
 4938SOL    HW124744   0.068  13.295   6.729 -0.7099  0.3480 -1.5036
 4938SOL    HW224745   0.039  13.174   6.644 -1.2649 -0.4100 -0.2599
 4939SOL     OW24746   5.408   6.417   4.650 -0.3485 -0.2181  0.1792
 4939SOL    HW124747   5.417   6.399   4.743 -0.0979 -0.1689  0.1646
 4939SOL    HW224748   5.497   6.434   4.620 -0.3750 -0.6604 -0.1595
 4940SOL     OW24749  11.150   9.508   0.758 -0.2320 -0.4755  0.1513
 4940SOL    HW124750  11.198   9.573   0.809  0.9811 -0.7927 -0.5624
 4940SOL    HW224751  11.184   9.423   0.787 -2.9809 -1.0098  2.3274
 4941SOL     OW24752  13.231   9.940   7.385 -0.1118 -0.2836 -0.3072
 4941SOL    HW124753  13.160   9.892   7.428 -0.0041  0.4058  0.6776
 4941SOL    HW224754  13.311   9.897   7.415 -0.0717 -0.5610 -0.7926
 4942SOL     OW24755   8.082   3.674   1.830 -0.1042  0.3972  0.6165
 4942SOL    HW124756   8.173   3.673   1.801 -0.7753  1.1450 -1.7452
 4942SOL    HW224757   8.071   3.592   1.878  1.3314 -0.6617 -0.7645
 4943SOL     OW24758   4.760  11.837  10.154 -0.1434  0.5956  0.0233
 4943SOL    HW124759   4.758  11.930  10.134 -0.6525  1.2364  2.6901
 4943SOL    HW224760   4.852  11.819  10.176  0.0313  0.3472 -0.8655
 4944SOL     OW24761  12.623   0.348   3.552 -0.2697  0.1369 -0.1979
 4944SOL    HW124762  12.552   0.332   3.615  0.5598 -1.1465  0.4588
 4944SOL    HW224763  12.615   0.278   3.488  0.6060 -0.2215  0.0764
 4945SOL     OW24764   6.211   3.397  10.113  0.2460 -0.9541 -1.0134
 4945SOL    HW124765   6.281   3.372  10.174  1.5897  0.1097 -2.0575
 4945SOL    HW224766   6.167   3.315  10.093  1.1558 -1.6481 -0.2805
 4946SOL     OW24767   1.477  11.354   0.828 -0.1184  0.1153  0.1198
 4946SOL    HW124768   1.517  11.365   0.742 -0.7783 -0.3691 -0.2618
 4946SOL    HW224769   1.542  11.387   0.890  1.8878 -2.7987 -0.2694
 4947SOL     OW24770   4.735   7.980   7.314  0.2564  0.3036 -0.3160
 4947SOL    HW124771   4.657   7.952   7.363  0.9195  1.1330  1.2957
 4947SOL    HW224772   4.788   7.901   7.308 -0.0283  0.0888 -0.0723
 4948SOL     OW24773   4.376   8.011   0.060  0.5188  0.4019  0.5715
 4948SOL    HW124774   4.429   8.038   0.135  1.7828 -1.5795  0.4777
 4948SOL    HW224775   4.289   7.993   0.098  1.1347 -0.5650  1.6045
 4949SOL     OW24776   0.669   9.525   5.262 -0.1106  0.3833  0.4805
 4949SOL    HW124777   0.764   9.532   5.257 -0.0110 -0.3676  1.1525
 4949SOL    HW224778   0.644   9.481   5.181  0.2164 -0.2626  0.7216
 4950SOL     OW24779   2.446   9.504  12.401  0.0960 -0.3610  0.7180
 4950SOL    HW124780   2.463   9.420  12.358 -1.4361 -0.5190  0.3737
 4950SOL    HW224781   2.366   9.489  12.452  0.5643  0.5110  1.7421
 4951SOL     OW24782   5.558   1.130   4.487 -0.1976  0.1050 -0.1199
 4951SOL    HW124783   5.550   1.072   4.563  0.3303  0.5197  0.2632
 4951SOL    HW224784   5.639   1.178   4.503  0.4066 -0.4516 -1.4040
 4952SOL     OW24785  10.466   8.487   2.629  0.0516 -0.2341 -0.2399
 4952SOL    HW124786  10.429   8.449   2.549 -0.3519  0.5071 -0.4158
 4952SOL    HW224787  10.519   8.560   2.598  1.0279 -0.7910  0.0759
 4953SOL     OW24788   8.554   3.221   7.767 -0.0415 -0.1618 -0.7346
 4953SOL    HW124789   8.637   3.270   7.768  0.3110 -0.7578 -0.3651
 4953SOL    HW224790   8.569   3.147   7.825 -0.0986 -1.4891 -2.3445
 4954SOL     OW24791   6.851   5.757   2.983  0.6296  0.1531 -0.5137
 4954SOL    HW124792   6.800   5.682   3.012 -0.0221  0.0032 -1.9986
 4954SOL    HW224793   6.919   5.767   3.050  1.5021 -2.5302 -0.9012
 4955SOL     OW24794   2.382   9.538   5.370  0.1350  0.8146  0.2442
 4955SOL    HW124795   2.460   9.517   5.319  0.0602  1.1520 -0.0106
 4955SOL    HW224796   2.380   9.471   5.439 -0.0679  0.0247 -0.5130
 4956SOL     OW24797   1.197   0.738   3.839 -0.0500 -0.6004  0.0258
 4956SOL    HW124798   1.122   0.689   3.806 -0.2007  0.6678 -1.6576
 4956SOL    HW224799   1.193   0.822   3.793  2.0633 -0.2726  0.3336
 4957SOL     OW24800   3.273   9.396   6.715  0.2547 -0.7885 -0.2131
 4957SOL    HW124801   3.282   9.479   6.762  0.8824 -0.0406 -1.5926
 4957SOL    HW224802   3.342   9.340   6.750  1.1898  0.0143 -0.7219
 4958SOL     OW24803   5.611   9.241   0.977 -0.4465  0.1950 -0.0749
 4958SOL    HW124804   5.584   9.256   1.068 -1.1769 -1.4870  0.0281
 4958SOL    HW224805   5.614   9.328   0.938  0.1201  0.9787  1.6172
 4959SOL     OW24806   3.168  11.577   1.080  0.2649  0.7620  0.4482
 4959SOL    HW124807   3.140  11.488   1.060 -0.3115  1.4837 -2.4435
 4959SOL    HW224808   3.262  11.570   1.096  0.5696 -0.1916 -1.4991
 4960SOL     OW24809   5.562   6.061   3.939  0.3658  0.4391  0.1380
 4960SOL    HW124810   5.523   6.134   3.987 -1.3509 -0.6477  0.4728
 4960SOL    HW224811   5.573   5.993   4.005  0.8743 -0.0027 -0.4022
 4961SOL     OW24812   1.623   4.204   1.405 -0.1025 -0.4536 -0.4730
 4961SOL    HW124813   1.606   4.134   1.342 -0.8396  0.5795 -1.4445
 4961SOL    HW224814   1.592   4.169   1.489 -0.4226 -1.3011 -0.9351
 4962SOL     OW24815   0.164   7.998   7.457  0.1979 -0.0844  0.3290
 4962SOL    HW124816   0.139   8.086   7.486  1.5850  0.9882 -1.4696
 4962SOL    HW224817   0.213   7.962   7.531 -0.6006  0.5510  1.1857
 4963SOL     OW24818   8.627  11.739   4.773 -0.3701  0.1136 -0.1517
 4963SOL    HW124819   8.591  11.676   4.835 -0.4248 -0.5795 -0.8800
 4963SOL    HW224820   8.718  11.751   4.801 -0.2521 -0.5737 -0.2390
 4964SOL     OW24821   2.876  13.193  13.222  0.0147 -0.5737 -0.1050
 4964SOL    HW124822   2.851  13.210  13.131 -0.8448  0.2056  0.2613
 4964SOL    HW224823   2.818  13.249  13.273  2.6683  1.5426  0.8084
 4965SOL     OW24824   4.844   9.197   0.664 -0.0122  0.1034  0.3763
 4965SOL    HW124825   4.892   9.140   0.724  0.1387  0.7716  0.8985
 4965SOL    HW224826   4.901   9.273   0.653 -0.5199  0.4649  0.2316
 4966SOL     OW24827   0.940   4.699   5.897  0.0510  0.3464  0.1447
 4966SOL    HW124828   0.928   4.793   5.886 -0.6740  0.3617  0.9624
 4966SOL    HW224829   0.999   4.674   5.826 -0.8917  1.1734 -0.9703
 4967SOL     OW24830   4.671   5.338   2.134  0.2784  0.2657 -0.0068
 4967SOL    HW124831   4.673   5.295   2.220  1.8539  0.4454  0.0783
 4967SOL    HW224832   4.763   5.345   2.109  0.0763  2.9829 -0.2949
 4968SOL     OW24833   7.443   0.698  11.178  0.0449  0.0889  0.1247
 4968SOL    HW124834   7.352   0.726  11.169  0.7898  2.0301 -3.1930
 4968SOL    HW224835   7.485   0.766  11.230  0.4846  1.9374 -2.4501
 4969SOL     OW24836  11.270   6.443   2.018  0.3598 -0.6792  0.8299
 4969SOL    HW124837  11.226   6.389   1.953  0.6096  1.1103 -0.9018
 4969SOL    HW224838  11.359   6.406   2.024  0.2567 -1.0045  0.3499
 4970SOL     OW24839  13.248   4.495   6.027  0.3336 -0.3050 -0.1115
 4970SOL    HW124840  13.244   4.405   6.061 -2.0800 -0.1769  0.1302
 4970SOL    HW224841  13.252   4.483   5.932 -0.4729 -0.6952 -0.1079
 4971SOL     OW24842  12.614   6.208   3.004 -0.3513  0.0356  0.1201
 4971SOL    HW124843  12.649   6.297   2.998  0.5709 -0.3263  0.0599
 4971SOL    HW224844  12.653   6.171   3.083 -0.2169 -0.5416 -0.2113
 4972SOL     OW24845  11.080  12.202   8.036  0.5749 -0.0639 -0.2266
 4972SOL    HW124846  11.112  12.133   8.094  2.9795  0.7264 -0.4842
 4972SOL    HW224847  11.083  12.281   8.090  0.6924  0.3173 -0.7830
 4973SOL     OW24848   2.953  13.233   4.565 -0.0822  0.2197 -0.3619
 4973SOL    HW124849   2.946  13.143   4.597  1.3571  0.6445  1.3349
 4973SOL    HW224850   3.044  13.258   4.584 -0.0653  1.6021 -2.0245
 4974SOL     OW24851   8.321  10.652  12.308  0.6445  0.0878  0.3622
 4974SOL    HW124852   8.232  10.654  12.342  1.3313 -1.8980  2.5244
 4974SOL    HW224853   8.313  10.608  12.223 -0.4953  0.6769  0.1341
 4975SOL     OW24854   1.433   4.767   1.149  0.3659  0.0094 -0.0927
 4975SOL    HW124855   1.352   4.753   1.197 -0.4314  0.5699 -1.2351
 4975SOL    HW224856   1.467   4.679   1.133  0.4164 -0.1942  1.1011
 4976SOL     OW24857   4.339   6.781   2.026  0.6541 -0.1158 -0.0047
 4976SOL    HW124858   4.246   6.766   2.007  0.9992 -2.0574 -0.3652
 4976SOL    HW224859   4.368   6.841   1.957 -0.0972 -0.2972 -0.4902
 4977SOL     OW24860   2.829   9.756   7.331 -0.1531 -0.0437  0.0633
 4977SOL    HW124861   2.843   9.795   7.245 -1.1704  0.8355  0.2830
 4977SOL    HW224862   2.876   9.812   7.392 -0.1084 -0.2020  0.1773
 4978SOL     OW24863   3.640   4.858  12.656  0.6380 -0.0320  0.5295
 4978SOL    HW124864   3.728   4.894  12.653  0.5893  0.0681  0.2219
 4978SOL    HW224865   3.601   4.896  12.734  0.8442 -0.0214  0.6273
 4979SOL     OW24866  12.668   9.308   0.016 -0.0809  0.3719  0.5558
 4979SOL    HW124867  12.713   9.269  -0.059  0.6069  0.1634  1.0610
 4979SOL    HW224868  12.611   9.239   0.048 -2.2829  1.2363 -1.2452
 4980SOL     OW24869   3.659   3.964  10.160 -0.6236 -0.2722  0.1813
 4980SOL    HW124870   3.693   3.879  10.133 -1.3080 -0.1495 -1.1014
 4980SOL    HW224871   3.578   3.945  10.207 -0.8090 -0.3297 -0.1607
 4981SOL     OW24872   0.568   6.103   2.579  0.0973 -0.3869  0.3399
 4981SOL    HW124873   0.610   6.120   2.663  0.3103  0.0978  0.1346
 4981SOL    HW224874   0.637   6.067   2.524  0.4408  1.0710 -0.2218
 4982SOL     OW24875   7.490  10.313   4.562 -0.6183  0.3058  0.3816
 4982SOL    HW124876   7.421  10.264   4.518 -0.1879  0.9750 -1.1334
 4982SOL    HW224877   7.565  10.253   4.563 -0.8771 -0.0039  0.9444
 4983SOL     OW24878   7.630   5.569  11.797 -0.0700  0.4143  0.6272
 4983SOL    HW124879   7.715   5.584  11.840  0.8965 -0.5517 -0.8515
 4983SOL    HW224880   7.576   5.531  11.866  1.7708 -2.1086  0.8162
 4984SOL     OW24881   4.303   8.684   0.325  0.0238 -0.3636 -0.2426
 4984SOL    HW124882   4.304   8.604   0.272 -0.9224 -1.0864  0.7738
 4984SOL    HW224883   4.321   8.654   0.414 -0.3326  0.5530  0.1514
 4985SOL     OW24884  12.585   7.844   3.164 -0.1202 -0.7024 -0.2902
 4985SOL    HW124885  12.521   7.809   3.101  0.7496  0.3786 -1.8530
 4985SOL    HW224886  12.660   7.868   3.110  0.9813 -0.4379  1.2969
 4986SOL     OW24887   7.279  12.304  10.546  0.2711  0.2883  0.3581
 4986SOL    HW124888   7.367  12.341  10.544  0.0322  0.9063  0.8448
 4986SOL    HW224889   7.222  12.380  10.561 -0.1764 -0.3385  2.1420
 4987SOL     OW24890   8.858  11.535   1.158 -0.4222 -0.0368  0.1338
 4987SOL    HW124891   8.908  11.484   1.095  0.5778  1.4349 -0.3049
 4987SOL    HW224892   8.862  11.484   1.239 -0.1233 -1.0199 -0.4898
 4988SOL     OW24893   0.811  10.785  11.078  0.1059  0.2919  0.3482
 4988SOL    HW124894   0.838  10.722  11.145  1.8338  2.6089  1.9565
 4988SOL    HW224895   0.747  10.841  11.121  0.1028  0.8945 -0.4146
 4989SOL     OW24896   8.392   7.254   6.099  0.1551  0.3113 -0.1656
 4989SOL    HW124897   8.331   7.272   6.027  0.4075  1.2182 -0.1646
 4989SOL    HW224898   8.345   7.282   6.177  0.2186  0.1468 -0.0693
 4990SOL     OW24899   9.173   9.539   8.336  0.4810  0.5016 -0.0824
 4990SOL    HW124900   9.232   9.486   8.283 -0.3497  0.1399 -0.6519
 4990SOL    HW224901   9.190   9.510   8.426  0.3921 -0.3751 -0.3408
 4991SOL     OW24902   2.332   2.114  11.504  0.3369  0.4546 -0.4119
 4991SOL    HW124903   2.369   2.201  11.520  0.5675  0.2280  0.3246
 4991SOL    HW224904   2.254   2.109  11.560 -0.6801  0.8260 -1.7538
 4992SOL     OW24905   9.633  12.103   6.087 -0.2172  0.3527  0.6850
 4992SOL    HW124906   9.692  12.046   6.038 -1.8012 -0.0399 -0.8667
 4992SOL    HW224907   9.660  12.092   6.178  1.1303 -0.9378  0.1778
 4993SOL     OW24908   3.315   9.658   3.124  0.0146  0.1137 -0.0390
 4993SOL    HW124909   3.330   9.591   3.058  0.0108  1.4735 -1.4639
 4993SOL    HW224910   3.358   9.736   3.090  0.3220  0.7744  1.7401
 4994SOL     OW24911   8.278   1.104   1.476 -0.2598 -0.4658 -0.3261
 4994SOL    HW124912   8.219   1.158   1.528  1.4557 -0.3706  1.6733
 4994SOL    HW224913   8.322   1.165   1.418 -0.4558 -0.1690 -0.1632
 4995SOL     OW24914  11.449   5.235   5.926 -0.4870  0.1844 -0.4940
 4995SOL    HW124915  11.387   5.166   5.904 -0.1758 -0.0035 -0.7991
 4995SOL    HW224916  11.532   5.207   5.886  0.4934 -0.8480  2.0539
 4996SOL     OW24917   9.308  12.361  12.168 -0.0753  0.4325 -0.6517
 4996SOL    HW124918   9.370  12.375  12.097  0.2495 -0.5152 -0.5741
 4996SOL    HW224919   9.356  12.308  12.231 -0.0115  2.1072  0.7791
 4997SOL     OW24920   5.058   1.326   9.346 -0.3022  0.0751 -0.2059
 4997SOL    HW124921   5.080   1.279   9.266  0.3105  0.7461 -0.4417
 4997SOL    HW224922   4.966   1.306   9.361 -0.5505  0.2923 -1.3269
 4998SOL     OW24923  10.813   3.433   6.357  0.2605  0.8922  0.2491
 4998SOL    HW124924  10.757   3.358   6.335 -0.8105  1.6139  0.4387
 4998SOL    HW224925  10.758   3.509   6.341  1.3814  1.6581 -0.0671
 4999SOL     OW24926  12.255  11.974  11.849 -0.7508  0.3848 -0.2302
 4999SOL    HW124927  12.294  12.052  11.810 -1.2155  0.5758 -0.3183
 4999SOL    HW224928  12.320  11.945  11.913  0.7102 -0.7809 -2.1288
 5000SOL     OW24929   2.813   3.212   4.464 -0.3317 -0.2904 -0.4497
 5000SOL    HW124930   2.779   3.278   4.403 -0.6587 -0.4808 -0.4786
 5000SOL    HW224931   2.776   3.237   4.549 -0.6332 -0.5578 -0.4996
 5001SOL     OW24932   9.473   7.975   3.922  0.0982 -0.5541 -0.8505
 5001SOL    HW124933   9.394   8.029   3.929  0.3576  0.0460 -2.2137
 5001SOL    HW224934   9.503   7.988   3.832  0.9082 -1.9652 -0.8216
 5002SOL     OW24935  10.992   8.612   1.293 -0.1135  0.4189 -0.5237
 5002SOL    HW124936  10.930   8.652   1.354  0.9946  1.1616  0.1650
 5002SOL    HW224937  10.949   8.618   1.208 -0.7873  1.3348 -0.1394
 5003SOL     OW24938   8.076   8.084   3.699 -0.5128  0.4114  0.1268
 5003SOL    HW124939   8.159   8.093   3.745 -0.8580 -2.0468  1.4098
 5003SOL    HW224940   8.099   8.044   3.615 -0.3364  0.2187  0.2652
 5004SOL     OW24941  12.150   4.371   0.806  0.0129 -0.4694  0.0202
 5004SOL    HW124942  12.218   4.394   0.742 -0.8139  0.4739 -0.5467
 5004SOL    HW224943  12.091   4.313   0.757  1.4525 -2.9935  1.0974
 5005SOL     OW24944  10.682   3.323   2.335  0.5936  0.2940 -0.0837
 5005SOL    HW124945  10.603   3.275   2.312 -0.1080  1.2386  0.3149
 5005SOL    HW224946  10.652   3.393   2.393  1.6143  1.1077 -0.5056
 5006SOL     OW24947   7.952  12.311   8.093 -0.5877 -0.0164  0.5119
 5006SOL    HW124948   7.932  12.398   8.127  1.1405  0.3718  0.6429
 5006SOL    HW224949   7.949  12.254   8.169 -3.5278 -0.4849  0.1600
 5007SOL     OW24950   0.983   4.116  10.270  0.4510  0.0644  0.1833
 5007SOL    HW124951   0.943   4.185  10.217  0.8689 -0.9552 -1.5154
 5007SOL    HW224952   1.015   4.161  10.348 -1.2765  1.4069  0.1701
 5008SOL     OW24953   1.529   8.529   2.517 -0.3681 -0.0731 -0.0597
 5008SOL    HW124954   1.480   8.505   2.438  0.7107 -0.3634 -0.6659
 5008SOL    HW224955   1.462   8.551   2.581 -1.2582  0.7815 -1.2451
 5009SOL     OW24956   8.401   3.893   0.870  0.1135  0.0666  0.2816
 5009SOL    HW124957   8.371   3.885   0.960 -0.7560 -0.9518 -0.0764
 5009SOL    HW224958   8.326   3.869   0.817 -0.0080  2.5371 -0.8113
 5010SOL     OW24959   1.054  10.938   8.654  0.3393 -0.5109  0.4256
 5010SOL    HW124960   1.006  10.900   8.728 -0.8389  1.7540  0.8897
 5010SOL    HW224961   1.053  11.032   8.670  1.1987 -0.0580 -1.8392
 5011SOL     OW24962  11.422   4.749   1.931  0.0332  0.8614 -0.0775
 5011SOL    HW124963  11.427   4.684   2.001  1.2363  2.4536  1.4212
 5011SOL    HW224964  11.486   4.720   1.867 -2.0585 -1.3692 -1.2901
 5012SOL     OW24965  11.476   8.116   0.619 -0.2202  0.1109 -0.2499
 5012SOL    HW124966  11.500   8.205   0.593  0.5658 -0.2225 -0.7088
 5012SOL    HW224967  11.439   8.125   0.706  2.0974  0.6017  0.7426
 5013SOL     OW24968   1.709  12.166   1.809 -0.2012  0.4640 -0.0398
 5013SOL    HW124969   1.691  12.247   1.858 -1.1312 -0.4486  1.1816
 5013SOL    HW224970   1.803  12.153   1.820 -0.2381  0.7647  0.7738
 5014SOL     OW24971   0.438  10.703  11.173  0.3401  0.4745  0.5527
 5014SOL    HW124972   0.484  10.786  11.181  0.1005  0.8340 -1.3152
 5014SOL    HW224973   0.351  10.720  11.211  0.1500  1.2215 -0.1796
 5015SOL     OW24974  11.052   5.384   1.987  0.1818 -0.4964 -0.2862
 5015SOL    HW124975  11.020   5.299   1.957  0.3579 -0.9936  0.8685
 5015SOL    HW224976  11.132   5.398   1.937 -0.0948 -0.7775 -0.8237
 5016SOL     OW24977   2.652  10.663   6.546 -0.2954  0.0781 -0.4727
 5016SOL    HW124978   2.597  10.706   6.481  0.0507  0.1759 -0.7057
 5016SOL    HW224979   2.712  10.731   6.575 -0.7200  0.1454  0.2618
 5017SOL     OW24980   8.002   4.764   0.305 -0.0900  0.0919 -0.0624
 5017SOL    HW124981   7.942   4.829   0.340 -1.2690 -0.2269 -1.3730
 5017SOL    HW224982   7.946   4.690   0.282  0.9667 -0.6554 -0.2862
 5018SOL     OW24983  12.949   3.922   2.855  0.5175  0.2296 -0.2527
 5018SOL    HW124984  12.960   3.846   2.797 -0.5357  0.1165 -0.3214
 5018SOL    HW224985  12.892   3.981   2.806  2.2187  1.6071 -0.6870
 5019SOL     OW24986   9.476   4.022   7.858 -0.4893 -0.6167  0.9515
 5019SOL    HW124987   9.381   4.013   7.856 -0.5393 -0.0558 -0.0788
 5019SOL    HW224988   9.503   4.012   7.766  0.1596  1.8561  0.7810
 5020SOL     OW24989   9.512   9.352   6.813 -0.7715 -0.0781  0.3034
 5020SOL    HW124990   9.499   9.293   6.739 -1.4512  1.0210 -0.4841
 5020SOL    HW224991   9.604   9.341   6.838 -0.9729 -1.7156  0.4184
 5021SOL     OW24992   4.156   8.917   2.338  0.1563 -0.0554 -0.2520
 5021SOL    HW124993   4.125   8.864   2.412  0.1950 -0.2901 -0.4028
 5021SOL    HW224994   4.088   8.908   2.272 -0.2012  0.6990  0.0024
 5022SOL     OW24995  13.119   2.771   8.176  0.3099  0.4443 -0.3298
 5022SOL    HW124996  13.124   2.680   8.146  0.2644 -0.6743  2.7430
 5022SOL    HW224997  13.026   2.788   8.185  0.3536  0.3529  0.3084
 5023SOL     OW24998   2.537   7.370   0.631 -0.1530  0.4317 -0.2161
 5023SOL    HW124999   2.454   7.327   0.653  0.5649 -1.9768 -1.7772
 5023SOL    HW225000   2.565   7.326   0.551  3.1509  0.3836  0.8367
 5024SOL     OW25001  12.129   9.833   0.587  0.1816 -0.9863 -0.5121
 5024SOL    HW125002  12.222   9.814   0.572  0.3630 -1.5310  1.0765
 5024SOL    HW225003  12.128   9.916   0.635 -0.2112 -0.5295 -1.2978
 5025SOL     OW25004   2.150   5.477   7.903 -0.2154 -0.0591 -0.2189
 5025SOL    HW125005   2.156   5.528   7.983 -0.2999 -0.4003  0.0044
 5025SOL    HW225006   2.210   5.521   7.842 -0.9419  0.8190 -0.3109
 5026SOL     OW25007   1.844  13.006   9.404  0.1341  0.1191  0.0695
 5026SOL    HW125008   1.884  13.079   9.450  0.7303  0.2370 -0.6235
 5026SOL    HW225009   1.907  12.934   9.414  1.3560  0.7494 -2.3860
 5027SOL     OW25010   6.172  12.891  13.190 -0.6144  0.2194  0.1171
 5027SOL    HW125011   6.153  12.912  13.282  0.3870  1.1310  0.1283
 5027SOL    HW225012   6.178  12.976  13.147  1.4689 -0.0642 -0.2585
 5028SOL     OW25013   8.327   5.365   3.400 -0.1269 -0.1673  0.2458
 5028SOL    HW125014   8.382   5.309   3.346  0.7004 -0.7096  1.5915
 5028SOL    HW225015   8.341   5.333   3.490 -1.4298  0.7033  0.7926
 5029SOL     OW25016   3.580   4.728   3.984  0.6066 -0.2032  0.0828
 5029SOL    HW125017   3.556   4.638   3.964  3.3714 -0.8326 -0.7861
 5029SOL    HW225018   3.586   4.771   3.899 -0.7204  0.8472  0.4939
 5030SOL     OW25019  12.136   6.703  10.737  0.1327 -0.2611  0.0718
 5030SOL    HW125020  12.126   6.734  10.647  1.3521  0.4142  0.1421
 5030SOL    HW225021  12.126   6.608  10.732 -2.0748 -0.0547 -0.4023
 5031SOL     OW25022   8.663   1.810  10.991  0.3402 -0.2735 -0.0734
 5031SOL    HW125023   8.640   1.717  10.992 -1.5215  0.1360  0.5525
 5031SOL    HW225024   8.580   1.855  11.010  1.7974  1.3673  3.3448
 5032SOL     OW25025   2.513   4.529   0.475 -0.2372 -0.0198  0.0840
 5032SOL    HW125026   2.583   4.498   0.532 -0.5043  0.1811  0.5347
 5032SOL    HW225027   2.432   4.508   0.523 -0.5594 -1.4977 -1.0530
 5033SOL     OW25028   4.952   6.134   2.931 -0.6962  0.3829  0.5661
 5033SOL    HW125029   5.013   6.106   2.863 -0.4143  0.7805  0.6507
 5033SOL    HW225030   5.006   6.138   3.010 -1.2398 -1.1031  1.0550
 5034SOL     OW25031  10.396  10.892   0.765 -0.3118  0.2047 -0.3194
 5034SOL    HW125032  10.379  10.921   0.855 -1.3565 -0.1174 -0.4002
 5034SOL    HW225033  10.393  10.797   0.769  0.4415  0.1610 -0.5597
 5035SOL     OW25034   2.302   8.084  13.287 -0.1270  0.2018 -0.3267
 5035SOL    HW125035   2.235   8.029  13.328  0.4494  0.4538  0.9861
 5035SOL    HW225036   2.385   8.050  13.320  0.3194  0.7772 -0.8429
 5036SOL     OW25037  11.240   1.676   9.376 -0.2356 -0.1147  0.4611
 5036SOL    HW125038  11.304   1.715   9.437  0.0722  1.0360 -0.5677
 5036SOL    HW225039  11.238   1.583   9.401 -0.6218  0.4261  2.6586
 5037SOL     OW25040   8.561   4.444  12.680 -0.5170  0.1423  0.5882
 5037SOL    HW125041   8.632   4.434  12.616 -0.8969  1.6363 -0.1163
 5037SOL    HW225042   8.561   4.362  12.729  1.9819  0.2490  0.9157
 5038SOL     OW25043   4.286   0.832   1.088 -0.5714  0.3965 -0.1910
 5038SOL    HW125044   4.269   0.845   0.995 -1.6618 -1.4757 -0.3098
 5038SOL    HW225045   4.329   0.746   1.093 -2.2523 -0.4205  1.1529
 5039SOL     OW25046   9.295  10.727   9.123  0.6448  0.5332 -0.0703
 5039SOL    HW125047   9.324  10.736   9.214  3.9420 -2.0499 -0.6862
 5039SOL    HW225048   9.349  10.789   9.075  2.1720 -1.2214 -0.7155
 5040SOL     OW25049   9.738   8.746   4.552 -0.5693  0.0428 -0.6584
 5040SOL    HW125050   9.681   8.753   4.475 -1.0955  1.0317 -0.1968
 5040SOL    HW225051   9.812   8.804   4.532  0.4678 -1.4805 -1.3939
 5041SOL     OW25052  12.825   7.373   5.471  0.1063 -0.0328  0.0288
 5041SOL    HW125053  12.801   7.295   5.520 -0.0472  0.2406  0.3891
 5041SOL    HW225054  12.920   7.367   5.461 -0.1392 -1.4908 -2.0277
 5042SOL     OW25055   9.709   8.618   1.089  0.4596 -0.1253  0.0413
 5042SOL    HW125056   9.672   8.539   1.052 -1.3698 -0.9204  3.2312
 5042SOL    HW225057   9.692   8.686   1.023 -0.4590 -1.7993 -1.5319
 5043SOL     OW25058  12.790   2.802  12.037  0.0624 -0.3275  0.0151
 5043SOL    HW125059  12.722   2.838  12.094 -0.8181 -0.6863 -0.7827
 5043SOL    HW225060  12.804   2.713  12.070 -1.2444 -0.9359 -0.9615
 5044SOL     OW25061   8.239  12.586   3.098  0.5286  0.5065 -0.7399
 5044SOL    HW125062   8.268  12.677   3.104  1.0880  0.2476  1.3085
 5044SOL    HW225063   8.307  12.543   3.045  1.5865  0.8106  0.3245
 5045SOL     OW25064   0.191  12.882   8.833 -0.5961 -0.6164  0.3017
 5045SOL    HW125065   0.269  12.842   8.871 -0.2799 -0.6966 -0.4132
 5045SOL    HW225066   0.210  12.976   8.832 -0.6262 -0.6086  0.3808
 5046SOL     OW25067   4.464  12.856  10.759  0.4676 -0.1350 -0.0889
 5046SOL    HW125068   4.409  12.934  10.753 -0.2178 -0.4460  1.7147
 5046SOL    HW225069   4.490  12.838  10.668  1.6421  2.8628 -0.4815
 5047SOL     OW25070  11.426   4.577   2.905 -0.3018  0.3576  0.4214
 5047SOL    HW125071  11.490   4.562   2.836 -1.1434  2.6921 -1.0151
 5047SOL    HW225072  11.472   4.632   2.969 -0.5163  1.1233 -0.0679
 5048SOL     OW25073   9.782  10.484   0.050  0.3540 -0.5529  0.4524
 5048SOL    HW125074   9.849  10.454  -0.011 -0.3008 -1.0496 -0.0510
 5048SOL    HW225075   9.712  10.419   0.041  0.0787 -0.4059  1.4408
 5049SOL     OW25076   2.888   4.385  10.694 -0.4629 -0.6284  0.6796
 5049SOL    HW125077   2.983   4.386  10.702 -0.2079  1.9645 -1.3715
 5049SOL    HW225078   2.857   4.426  10.775  0.4976  2.2917 -0.3128
 5050SOL     OW25079  11.777   6.165   2.446 -0.1862  0.0706 -0.5442
 5050SOL    HW125080  11.744   6.250   2.419  0.3637  0.2468 -0.6777
 5050SOL    HW225081  11.699   6.113   2.463 -0.5409  0.9474  0.6501
 5051SOL     OW25082   7.878  10.874   3.099 -0.1754 -0.4510  0.3261
 5051SOL    HW125083   7.903  10.961   3.069  1.3445 -1.1552 -0.5822
 5051SOL    HW225084   7.933  10.859   3.176  0.7320 -1.1800 -0.4325
 5052SOL     OW25085   7.594   8.994   9.586 -0.5392 -0.3478 -0.1205
 5052SOL    HW125086   7.515   9.018   9.538 -1.0534  1.0825  1.3489
 5052SOL    HW225087   7.567   8.993   9.678  1.4122  1.3982  0.5410
 5053SOL     OW25088   4.135   7.909  11.784  0.1620 -0.0068 -0.5324
 5053SOL    HW125089   4.046   7.943  11.792  0.7224  1.2145  0.9492
 5053SOL    HW225090   4.190   7.977  11.822  1.6464 -1.1767 -0.5019
 5054SOL     OW25091   7.025   0.018   1.161  0.2147 -0.0009  0.1349
 5054SOL    HW125092   6.963   0.022   1.234  0.4546 -0.4669  0.3714
 5054SOL    HW225093   6.970   0.014   1.083 -0.0449  0.5097  0.2865
 5055SOL     OW25094   3.808   5.893   1.282  0.1066 -0.3602 -0.3270
 5055SOL    HW125095   3.729   5.937   1.250  1.3265  1.9538 -0.3672
 5055SOL    HW225096   3.871   5.901   1.211  0.4881 -2.0481 -0.2381
 5056SOL     OW25097   2.177   7.626   0.419 -0.1036  0.7117  0.1858
 5056SOL    HW125098   2.187   7.551   0.360 -0.0362  1.0349 -0.2228
 5056SOL    HW225099   2.127   7.690   0.368 -1.4561  0.3735  1.0619
 5057SOL     OW25100   4.961   1.033   4.097  0.2919  0.5112  0.0328
 5057SOL    HW125101   4.913   0.966   4.048  1.2885  0.2621 -0.6297
 5057SOL    HW225102   5.053   1.012   4.083  0.6136  0.5137  1.9358
 5058SOL     OW25103  13.233  11.985   9.495  0.1740 -0.1001 -0.8240
 5058SOL    HW125104  13.322  11.951   9.506  0.4621  0.9592  0.3118
 5058SOL    HW225105  13.245  12.075   9.465 -0.5327 -0.1221 -1.1872
 5059SOL     OW25106   5.355   0.473  11.783  0.1541 -0.1729 -0.3666
 5059SOL    HW125107   5.281   0.412  11.788  0.4292 -0.5029 -0.2800
 5059SOL    HW225108   5.358   0.499  11.691 -0.9097  0.8998 -0.1130
 5060SOL     OW25109  11.938  10.561   0.930 -0.1067 -0.2173  0.0438
 5060SOL    HW125110  12.006  10.607   0.980  0.1839 -0.4382 -0.1432
 5060SOL    HW225111  11.976  10.550   0.843 -1.0619  1.2126 -0.5910
 5061SOL     OW25112   8.691   7.391   2.192 -0.5095  0.2063 -0.2214
 5061SOL    HW125113   8.741   7.397   2.273 -0.1498  1.0176 -0.4933
 5061SOL    HW225114   8.687   7.481   2.159 -0.0575 -0.1914 -1.4523
 5062SOL     OW25115   9.332  10.290  12.116 -0.3244 -0.2316 -0.6532
 5062SOL    HW125116   9.421  10.315  12.092 -0.4969  0.8377 -0.2418
 5062SOL    HW225117   9.342  10.208  12.164  0.4437 -0.1359 -0.6387
 5063SOL     OW25118   3.766   1.316   0.975 -0.1247  0.2502 -0.7213
 5063SOL    HW125119   3.827   1.342   1.044  1.3127  2.9924 -2.8200
 5063SOL    HW225120   3.800   1.233   0.942  0.7082  0.2479  0.1130
 5064SOL     OW25121   0.018  10.882   9.525  0.1537 -0.3614  0.1522
 5064SOL    HW125122   0.061  10.797   9.535 -0.2844 -0.2806  4.6302
 5064SOL    HW225123  -0.068  10.862   9.489  0.4595 -1.6563  0.0978
 5065SOL     OW25124   2.938   5.657  10.371  0.1457  0.2997  0.4449
 5065SOL    HW125125   2.858   5.636  10.323 -0.9864  1.3958  1.7340
 5065SOL    HW225126   2.951   5.751  10.355  0.5605  0.3642  1.1171
 5066SOL     OW25127   4.012   4.410   8.638 -0.0122 -0.7343 -0.1722
 5066SOL    HW125128   3.929   4.378   8.673  0.1107 -0.5922  0.2594
 5066SOL    HW225129   3.994   4.500   8.611  0.2214 -0.3938  0.7614
 5067SOL     OW25130  11.987   7.279  10.213 -0.0955  0.2021  0.9305
 5067SOL    HW125131  12.048   7.206  10.225 -0.1830  0.0381  0.3822
 5067SOL    HW225132  12.031   7.353  10.254 -0.1292 -0.2154  1.7483
 5068SOL     OW25133   2.262   8.394   0.365  0.3233  0.2462 -0.2897
 5068SOL    HW125134   2.202   8.329   0.328  1.3296 -0.6946 -0.3086
 5068SOL    HW225135   2.296   8.354   0.445  1.5833  0.3856 -0.7279
 5069SOL     OW25136   4.060   0.828   6.797  0.8659  0.1052 -0.1934
 5069SOL    HW125137   4.068   0.918   6.826  2.1404  0.2084 -0.7710
 5069SOL    HW225138   4.039   0.834   6.704 -0.5338 -0.2104  0.0864
 5070SOL     OW25139   2.785   3.447   4.991  0.0728 -0.3271  0.4024
 5070SOL    HW125140   2.716   3.508   4.967  0.3519 -0.5336 -1.0097
 5070SOL    HW225141   2.743   3.361   4.991 -0.4615 -0.1488  2.9598
 5071SOL     OW25142   1.677   6.513   1.654  0.0064  0.0725  0.3410
 5071SOL    HW125143   1.685   6.572   1.729  1.0721  1.7910 -1.0211
 5071SOL    HW225144   1.729   6.436   1.678  0.1635  0.5050  1.4297
 5072SOL     OW25145   4.762  11.934   1.432  0.5149  0.4293  0.2814
 5072SOL    HW125146   4.694  11.867   1.441  1.4369 -0.5407  0.3534
 5072SOL    HW225147   4.778  11.964   1.521  1.8356 -1.0970  0.6088
 5073SOL     OW25148   0.634  12.065   8.961 -0.5459  0.2305  0.3579
 5073SOL    HW125149   0.539  12.073   8.957 -0.6688 -0.1418  2.0012
 5073SOL    HW225150   0.661  12.131   9.024  0.3882  0.8304 -0.6162
 5074SOL     OW25151   4.349   2.757   5.211  0.3889 -0.1413 -0.3389
 5074SOL    HW125152   4.255   2.761   5.191  0.6119  1.4339 -1.2347
 5074SOL    HW225153   4.356   2.692   5.281 -1.2818 -0.7859 -0.7180
 5075SOL     OW25154   4.622   2.440   0.651 -0.4102 -0.2752 -0.6627
 5075SOL    HW125155   4.644   2.533   0.661  1.0740 -0.4106 -2.1886
 5075SOL    HW225156   4.569   2.437   0.571 -0.4353 -0.7262 -0.6290
 5076SOL     OW25157   5.736   9.947   4.340 -0.4108  0.1739 -0.7547
 5076SOL    HW125158   5.700   9.945   4.252  0.3037  0.2944 -1.0529
 5076SOL    HW225159   5.820   9.902   4.333 -0.7444 -0.6212  0.0493
 5077SOL     OW25160   8.703   5.530  12.225  0.4998 -0.4253  0.3155
 5077SOL    HW125161   8.674   5.467  12.158 -0.4618 -3.8162  3.5661
 5077SOL    HW225162   8.799   5.526  12.221  0.5005  0.4609 -1.6317
 5078SOL     OW25163   7.273  12.119   7.258  0.2716  0.1193 -0.1870
 5078SOL    HW125164   7.365  12.092   7.261  0.4458  0.7503  1.1438
 5078SOL    HW225165   7.276  12.215   7.262 -0.4394  0.1535 -0.3203
 5079SOL     OW25166   2.217   5.898   0.241 -0.3198  0.3191  0.1902
 5079SOL    HW125167   2.148   5.958   0.269 -0.2454  1.1375 -1.3052
 5079SOL    HW225168   2.201   5.885   0.148  1.0979 -0.0760 -0.0138
 5080SOL     OW25169   5.971   6.953  10.987 -0.3079 -0.1719 -0.1416
 5080SOL    HW125170   6.030   6.992  11.051 -1.7677 -1.0330  1.8576
 5080SOL    HW225171   5.950   7.025  10.927  0.7889  0.7970  0.5884
 5081SOL     OW25172   1.228   5.599   8.821 -0.2482 -0.3303 -0.1115
 5081SOL    HW125173   1.183   5.572   8.740 -1.8435  0.5322  0.4506
 5081SOL    HW225174   1.238   5.693   8.813  1.5369 -0.4993 -0.2166
 5082SOL     OW25175  12.995   9.978  12.034 -0.5377 -0.7433 -0.3531
 5082SOL    HW125176  12.951   9.929  11.965 -2.2081  1.1642 -0.7468
 5082SOL    HW225177  13.002   9.916  12.107  0.9504 -2.6892 -2.0247
 5083SOL     OW25178  12.661   0.912   9.342 -0.3372 -0.1885 -0.3764
 5083SOL    HW125179  12.752   0.887   9.357 -0.5195 -0.0981  1.1043
 5083SOL    HW225180  12.638   0.964   9.419 -0.7645  2.3369 -2.1126
 5084SOL     OW25181   2.527   8.793   0.747  0.1987 -0.1413  0.3080
 5084SOL    HW125182   2.493   8.704   0.743 -1.0577  0.3279 -0.0876
 5084SOL    HW225183   2.476   8.836   0.816  0.0931  0.5435 -0.1791
 5085SOL     OW25184   1.816   7.223  10.366 -0.2733  0.4878  0.2985
 5085SOL    HW125185   1.794   7.137  10.330  1.4307  0.0165  0.2847
 5085SOL    HW225186   1.746   7.242  10.428  0.0683 -1.5937  1.3956
 5086SOL     OW25187  10.105   7.824   7.053 -0.1520  0.3225  0.3542
 5086SOL    HW125188  10.075   7.887   7.120 -2.7686 -1.2972  0.8688
 5086SOL    HW225189  10.085   7.867   6.970 -0.8719  0.6449  0.6811
 5087SOL     OW25190  12.918  12.781   0.040  0.4159 -0.3477  0.0997
 5087SOL    HW125191  12.862  12.780  -0.038  0.5371 -1.0489  0.0150
 5087SOL    HW225192  13.001  12.743   0.010  0.4214 -0.7324  0.6008
 5088SOL     OW25193   0.201   1.336   2.078  0.5617  0.0280 -0.3213
 5088SOL    HW125194   0.111   1.326   2.048  0.9323  0.1402 -1.5271
 5088SOL    HW225195   0.201   1.419   2.127 -0.2965 -0.7181  0.9960
 5089SOL     OW25196   9.701  11.747   8.867  0.6181 -0.0617 -0.5102
 5089SOL    HW125197   9.699  11.715   8.957 -1.9650  1.3112  0.0377
 5089SOL    HW225198   9.749  11.829   8.872  1.2163 -0.4034 -0.5666
 5090SOL     OW25199   8.970   1.568   4.891  0.0301  0.2406  0.0285
 5090SOL    HW125200   8.981   1.656   4.926 -0.0061 -0.2458  1.3065
 5090SOL    HW225201   9.048   1.554   4.837 -0.5019  1.4492 -1.1089
 5091SOL     OW25202   2.565   5.236   6.655  0.1864  0.1435 -0.5523
 5091SOL    HW125203   2.639   5.203   6.604 -0.1368  0.9250 -1.5769
 5091SOL    HW225204   2.535   5.313   6.605 -1.6165 -0.4546 -0.4385
 5092SOL     OW25205   4.141  10.180   9.838 -0.6268 -0.1447 -0.5730
 5092SOL    HW125206   4.211  10.192   9.903  0.1069  1.1296 -1.5591
 5092SOL    HW225207   4.070  10.235   9.870 -0.1866  0.6541 -0.9395
 5093SOL     OW25208   7.485  10.632   5.179 -0.3780 -0.1097  0.0680
 5093SOL    HW125209   7.420  10.696   5.209  0.8815  1.1112  0.2796
 5093SOL    HW225210   7.487  10.566   5.248 -0.7262  0.3168  0.4964
 5094SOL     OW25211   2.621   4.469   6.454  0.2210  0.0694  0.3992
 5094SOL    HW125212   2.648   4.377   6.466 -0.9321 -0.2493  0.6411
 5094SOL    HW225213   2.639   4.487   6.362 -1.4401 -1.0678 -0.1983
 5095SOL     OW25214   6.662   0.843   9.115 -0.7270  0.1458  0.1613
 5095SOL    HW125215   6.639   0.936   9.108 -0.9146  0.0633 -0.3788
 5095SOL    HW225216   6.586   0.797   9.081 -1.0827 -0.2535  1.4626
 5096SOL     OW25217  12.884   3.347   6.651 -0.4290  0.0559  0.6758
 5096SOL    HW125218  12.858   3.295   6.727  0.6684 -2.7533 -0.7406
 5096SOL    HW225219  12.976   3.370   6.668  0.3876 -2.0655 -0.4274
 5097SOL     OW25220   1.929   7.314   7.347 -0.0378 -0.1143 -0.6351
 5097SOL    HW125221   1.905   7.364   7.424 -0.7313 -1.5978  0.1683
 5097SOL    HW225222   1.901   7.368   7.273  0.8859  1.4557  0.1163
 5098SOL     OW25223   9.749  10.351  12.388  0.5316  0.0623  0.2863
 5098SOL    HW125224   9.764  10.443  12.367  0.6600 -0.0674 -0.2002
 5098SOL    HW225225   9.749  10.306  12.303  2.7249 -0.7247  0.6524
 5099SOL     OW25226   1.884   7.384   5.357  0.1478  0.0496  0.1195
 5099SOL    HW125227   1.949   7.450   5.379  0.1298  0.6918 -1.6181
 5099SOL    HW225228   1.811   7.433   5.320  0.9506 -0.9758 -3.1445
 5100SOL     OW25229   5.140   3.894  13.004  0.5550  0.1677  0.3852
 5100SOL    HW125230   5.217   3.859  12.958  1.0925 -0.1781  1.5165
 5100SOL    HW225231   5.132   3.839  13.082 -1.4614 -0.4541 -0.2028
 5101SOL     OW25232   9.914   5.081   0.978  0.0333 -0.8057 -0.0239
 5101SOL    HW125233  10.001   5.082   0.938 -0.1195  0.1429 -0.3468
 5101SOL    HW225234   9.889   4.988   0.978  0.5606 -0.9594 -0.9842
 5102SOL     OW25235   1.254   6.212   8.398 -0.0209  0.0029 -0.9048
 5102SOL    HW125236   1.174   6.198   8.347 -1.3711 -0.9596  1.3507
 5102SOL    HW225237   1.252   6.305   8.421 -1.0089 -0.2336 -0.0339
 5103SOL     OW25238  12.769   1.925   0.845  0.1428  0.0526  0.0558
 5103SOL    HW125239  12.769   1.910   0.750  0.2239  0.4024 -0.0041
 5103SOL    HW225240  12.806   2.013   0.854  0.7391 -0.2408  0.4590
 5104SOL     OW25241   2.148  10.024   7.944  0.5993 -0.4844 -0.0441
 5104SOL    HW125242   2.071  10.021   7.888  0.7718 -0.5994 -0.2790
 5104SOL    HW225243   2.131   9.959   8.012  0.9065 -1.2236 -0.6513
 5105SOL     OW25244   8.414   5.032  11.454 -0.6380 -0.1434  0.2829
 5105SOL    HW125245   8.453   4.981  11.383  0.5013  1.3823 -0.2351
 5105SOL    HW225246   8.321   5.010  11.450 -0.1553 -2.4394  0.3399
 5106SOL     OW25247  11.597   5.610   3.946 -0.1364  0.3049 -0.0554
 5106SOL    HW125248  11.676   5.656   3.916 -0.1174 -0.1248 -0.6847
 5106SOL    HW225249  11.527   5.673   3.936  0.2722  1.1000  1.5972
 5107SOL     OW25250  11.192   7.668  12.140  0.1932  0.0644  0.4391
 5107SOL    HW125251  11.244   7.735  12.184  2.4507 -0.7320 -0.8408
 5107SOL    HW225252  11.179   7.600  12.206  3.0268 -0.8554  0.1651
 5108SOL     OW25253   1.484   5.801   1.263  0.1127 -0.4255 -0.5232
 5108SOL    HW125254   1.407   5.748   1.245 -0.5479 -0.2109  1.4647
 5108SOL    HW225255   1.486   5.866   1.193 -0.3557 -1.6539 -1.7088
 5109SOL     OW25256   5.540   7.087   2.234  0.3722  0.5364 -0.4355
 5109SOL    HW125257   5.575   7.018   2.177  2.1335  1.6830 -0.8249
 5109SOL    HW225258   5.591   7.079   2.315 -0.7695  0.1651  0.2697
 5110SOL     OW25259  10.233  11.697  13.256 -0.2761  0.3721  0.1790
 5110SOL    HW125260  10.162  11.717  13.317 -2.5689  1.2451 -2.5964
 5110SOL    HW225261  10.300  11.763  13.275 -2.1123  2.3913  0.0084
 5111SOL     OW25262   3.438   9.598   8.874 -0.2307 -0.2042  0.4614
 5111SOL    HW125263   3.519   9.555   8.844 -0.5820 -0.7023  0.2119
 5111SOL    HW225264   3.405   9.540   8.942 -1.1124 -0.7529 -0.4033
 5112SOL     OW25265   5.432   9.327   0.577  0.1740  0.0362 -1.1621
 5112SOL    HW125266   5.513   9.338   0.627  0.6657 -0.5523 -1.8018
 5112SOL    HW225267   5.457   9.345   0.487 -0.8639  1.7665 -1.1364
 5113SOL     OW25268   5.545   0.675  12.156  0.4008 -0.5786 -0.5293
 5113SOL    HW125269   5.493   0.664  12.076  0.6615 -1.9877 -0.5319
 5113SOL    HW225270   5.541   0.590  12.199 -0.1228  0.2998  1.2224
 5114SOL     OW25271   6.277  11.347  11.708 -0.8102 -0.3255  0.1624
 5114SOL    HW125272   6.364  11.378  11.683 -0.4390 -1.0823  0.4752
 5114SOL    HW225273   6.238  11.420  11.756 -0.3627  0.0393 -0.0282
 5115SOL     OW25274   0.714   3.459   9.694  0.1880 -0.1832  0.0221
 5115SOL    HW125275   0.680   3.436   9.780  0.9005  0.7726  0.5862
 5115SOL    HW225276   0.778   3.528   9.712 -0.3248  0.6883 -1.3601
 5116SOL     OW25277   1.078   6.560   9.746  0.5295 -0.2189  0.1015
 5116SOL    HW125278   1.111   6.646   9.722  0.2010 -0.5278 -1.5875
 5116SOL    HW225279   0.989   6.575   9.777 -0.4404 -0.1524 -2.5130
 5117SOL     OW25280   7.642  11.664   6.745 -0.2167  0.1464  0.3054
 5117SOL    HW125281   7.723  11.664   6.796 -0.5577 -0.6531  0.8687
 5117SOL    HW225282   7.622  11.756   6.731  1.8670  0.3923 -1.5878
 5118SOL     OW25283  11.752   1.281   5.433 -0.3526 -0.3756  0.1946
 5118SOL    HW125284  11.686   1.334   5.478 -0.9228 -1.1412  0.2687
 5118SOL    HW225285  11.704   1.235   5.365 -0.3126 -2.5612  1.5719
 5119SOL     OW25286   9.712   7.666   0.034 -0.1414 -0.0126 -0.8031
 5119SOL    HW125287   9.659   7.688  -0.043  0.9088 -0.1088 -1.5745
 5119SOL    HW225288   9.799   7.697   0.012  0.4299 -1.1073 -0.1366
 5120SOL     OW25289  12.475   9.237   1.325  0.6227  0.3784  0.0140
 5120SOL    HW125290  12.437   9.243   1.413  2.5318 -3.6407  1.3859
 5120SOL    HW225291  12.418   9.176   1.278 -0.8162  3.0685 -1.9629
 5121SOL     OW25292  10.821   4.971   4.688  0.7932 -0.1366  0.3012
 5121SOL    HW125293  10.741   5.013   4.656  0.7173  0.8815  1.7174
 5121SOL    HW225294  10.791   4.900   4.744  0.9152 -1.0613 -0.7789
 5122SOL     OW25295   6.321  12.641   6.118 -0.2698  0.4067 -0.1533
 5122SOL    HW125296   6.243  12.615   6.167  0.0529 -2.7526 -1.1203
 5122SOL    HW225297   6.289  12.659   6.030 -0.2153  1.7669  0.0745
 5123SOL     OW25298   6.303   2.429   5.283 -0.0238 -0.0388 -0.1172
 5123SOL    HW125299   6.380   2.486   5.295 -0.2584  0.0141  1.3953
 5123SOL    HW225300   6.261   2.463   5.204 -0.6358  2.5152  1.1912
 5124SOL     OW25301  10.944   4.754   7.957  0.1923  0.6206 -0.1065
 5124SOL    HW125302  10.882   4.683   7.972  1.3621 -0.1864  1.1775
 5124SOL    HW225303  10.896   4.833   7.982 -0.6418  0.1276 -0.1105
 5125SOL     OW25304   7.566   8.332   5.047  0.4070  0.6631  0.4051
 5125SOL    HW125305   7.646   8.381   5.026  1.1270 -0.5086  0.3161
 5125SOL    HW225306   7.595   8.265   5.109 -0.1363 -0.9026 -0.9596
 5126SOL     OW25307   1.534   0.427   5.013 -0.3293 -0.3788 -0.6527
 5126SOL    HW125308   1.526   0.344   5.061 -1.6350 -0.1116 -0.3558
 5126SOL    HW225309   1.571   0.402   4.928  0.3901 -1.0971 -0.1418
 5127SOL     OW25310  10.308   6.052   7.160 -0.1494  0.5079  0.2661
 5127SOL    HW125311  10.368   6.010   7.221  1.2674 -0.7715 -1.8868
 5127SOL    HW225312  10.359   6.122   7.120 -0.6612  0.5391 -0.3473
 5128SOL     OW25313   0.343   4.297   3.760  0.2620 -0.1840  0.5562
 5128SOL    HW125314   0.254   4.297   3.726 -0.4705  0.7603  2.3820
 5128SOL    HW225315   0.347   4.219   3.817  0.0081  0.7285  1.8660
 5129SOL     OW25316   3.882   5.938   4.317  0.1032 -0.2479  0.5536
 5129SOL    HW125317   3.788   5.921   4.330  0.4143 -0.8714  2.1443
 5129SOL    HW225318   3.885   6.001   4.245 -1.5171 -0.5453  0.1861
 5130SOL     OW25319  11.300   4.664   6.316  0.2700 -0.0265 -0.4299
 5130SOL    HW125320  11.302   4.577   6.356  0.6911 -0.1447 -0.7070
 5130SOL    HW225321  11.354   4.717   6.374 -0.9948  0.3604  0.4404
 5131SOL     OW25322   7.106   6.471   1.081 -0.4761  0.1241 -0.0767
 5131SOL    HW125323   7.094   6.565   1.063 -2.1689 -0.2907 -1.3191
 5131SOL    HW225324   7.198   6.464   1.107 -0.2854  2.1206 -0.0314
 5132SOL     OW25325   1.847  11.150   9.049 -0.5582 -0.0732  0.1298
 5132SOL    HW125326   1.928  11.123   9.093 -0.1992  0.0552 -0.4417
 5132SOL    HW225327   1.817  11.071   9.003  0.5410  0.4787 -1.6179
 5133SOL     OW25328   3.559  10.066   5.261  0.3808  0.4348  0.1496
 5133SOL    HW125329   3.464  10.070   5.271  0.4564 -0.7515  1.7750
 5133SOL    HW225330   3.575  10.102   5.174 -1.9351 -2.9689 -1.9440
 5134SOL     OW25331   7.988  11.439   8.494  0.1634  0.5118  0.2222
 5134SOL    HW125332   8.019  11.519   8.537  0.2437 -0.1775  1.5023
 5134SOL    HW225333   7.938  11.393   8.562 -0.8088 -0.0112 -0.8184
 5135SOL     OW25334   2.374   3.595   2.088 -0.0381 -0.7034 -0.3824
 5135SOL    HW125335   2.347   3.686   2.078  0.6423 -0.2643  1.4503
 5135SOL    HW225336   2.436   3.580   2.017 -0.0587  0.2900 -0.6162
 5136SOL     OW25337   7.909   8.970   5.701  0.7917  0.9365  0.1555
 5136SOL    HW125338   7.993   8.947   5.741  0.8282 -0.5440 -0.6827
 5136SOL    HW225339   7.848   8.976   5.776  1.2453  0.0421  0.6200
 5137SOL     OW25340  10.422   6.724   6.413  0.2619 -0.4317  0.4643
 5137SOL    HW125341  10.339   6.731   6.366  1.4682 -1.0073 -1.9551
 5137SOL    HW225342  10.445   6.631   6.407  1.3516 -0.1822  0.5564
 5138SOL     OW25343   2.019   0.376  12.387  0.4779 -0.1328 -0.0280
 5138SOL    HW125344   2.087   0.315  12.358 -0.0864 -0.6160 -0.3543
 5138SOL    HW225345   1.987   0.340  12.469  2.6011  1.6328  1.7358
 5139SOL     OW25346   5.718   9.455   6.527 -0.0594  0.4625 -0.4077
 5139SOL    HW125347   5.707   9.531   6.470  0.2469  0.8096 -0.0092
 5139SOL    HW225348   5.631   9.417   6.533 -0.9506  2.5429  1.8298
 5140SOL     OW25349   0.909   9.502   5.485  0.3612 -0.0108  0.3688
 5140SOL    HW125350   0.903   9.412   5.452  2.1083  0.3181 -1.0336
 5140SOL    HW225351   0.921   9.555   5.406  1.3177  1.2186  1.3019
 5141SOL     OW25352   1.490   2.543  10.074  0.0810  0.4911 -0.1009
 5141SOL    HW125353   1.493   2.625  10.025 -2.1090  0.5789 -0.1883
 5141SOL    HW225354   1.412   2.498  10.042 -0.1313 -0.5125  1.6591
 5142SOL     OW25355   6.932  11.692   0.048  0.0033 -0.3624 -0.0931
 5142SOL    HW125356   6.952  11.769  -0.005  0.0775 -1.2384 -1.3827
 5142SOL    HW225357   6.925  11.620  -0.016  0.7948 -1.5842  1.1593
 5143SOL     OW25358   9.786   1.519   1.355 -0.2472 -0.0805 -0.3472
 5143SOL    HW125359   9.849   1.448   1.342 -1.4751 -0.9842 -1.8074
 5143SOL    HW225360   9.812   1.559   1.438  1.8774 -0.7566 -0.6082
 5144SOL     OW25361   0.797  11.549   5.548  0.3939 -0.7003 -0.4430
 5144SOL    HW125362   0.871  11.495   5.575  1.6575  1.3418  0.4107
 5144SOL    HW225363   0.742  11.490   5.497  1.3923 -2.9079  0.8806
 5145SOL     OW25364   8.294   8.008   5.483 -0.3002  0.2798 -0.2429
 5145SOL    HW125365   8.241   8.011   5.403  0.6440  1.3546 -0.8517
 5145SOL    HW225366   8.242   8.057   5.547  0.1506  1.8326 -0.9978
 5146SOL     OW25367   8.085   0.722  10.586  0.1735  0.3119 -0.1923
 5146SOL    HW125368   8.116   0.642  10.628 -0.7741  0.0461  0.0154
 5146SOL    HW225369   8.164   0.776  10.576  0.4993  0.2319  1.5789
 5147SOL     OW25370   7.134   8.880  13.098  0.6526 -0.2293 -0.1755
 5147SOL    HW125371   7.050   8.836  13.090  1.1792 -1.4133  0.5290
 5147SOL    HW225372   7.182   8.854  13.019  0.7167 -0.3609 -0.0932
 5148SOL     OW25373  11.395   4.357   1.955  0.2371 -0.0975 -0.8156
 5148SOL    HW125374  11.380   4.448   1.979 -0.5107  0.0294 -1.7116
 5148SOL    HW225375  11.481   4.336   1.992 -0.1461  0.5682  0.5245
 5149SOL     OW25376   3.899   6.762   1.753 -0.2110 -0.4476  0.2831
 5149SOL    HW125377   3.895   6.830   1.687 -1.3734  1.4189  2.1488
 5149SOL    HW225378   3.846   6.691   1.718 -1.1588  0.6663 -0.6046
 5150SOL     OW25379   3.673  13.271  11.191 -0.3144 -0.4571  0.1970
 5150SOL    HW125380   3.588  13.269  11.234 -0.9293 -0.6231 -0.9921
 5150SOL    HW225381   3.724  13.202  11.234 -0.7841 -0.3581  0.9126
 5151SOL     OW25382   9.814   7.014   0.230  0.4137  0.1235  0.1347
 5151SOL    HW125383   9.841   6.935   0.181 -0.4008 -0.1004  0.0415
 5151SOL    HW225384   9.834   6.993   0.321 -0.7432 -0.6103  0.2365
 5152SOL     OW25385   4.337  12.129   0.148  0.1641  0.0357  0.1779
 5152SOL    HW125386   4.292  12.203   0.189 -0.4163  0.0840 -0.5362
 5152SOL    HW225387   4.267  12.079   0.106  0.4722 -1.2411  1.1272
 5153SOL     OW25388   9.767   8.659   4.933  0.2591  0.0078  0.5370
 5153SOL    HW125389   9.804   8.581   4.891 -0.4462  0.5895 -1.2905
 5153SOL    HW225390   9.827   8.678   5.005  2.4472 -0.2395 -1.0826
 5154SOL     OW25391  11.645   6.432   2.341  0.0259 -0.3887  0.0536
 5154SOL    HW125392  11.689   6.468   2.264  0.0213  1.0162  0.6849
 5154SOL    HW225393  11.557   6.409   2.310  0.0483  0.0895 -0.3780
 5155SOL     OW25394   0.668  10.411   0.074  0.0042 -0.0921  0.9827
 5155SOL    HW125395   0.686  10.454   0.158 -1.2970  2.2283  0.1885
 5155SOL    HW225396   0.649  10.484   0.014  2.2355 -1.5712 -1.7236
 5156SOL     OW25397   0.154   7.853  12.554 -0.0270  0.6522  0.6783
 5156SOL    HW125398   0.121   7.913  12.621  1.1253  0.8040  1.1280
 5156SOL    HW225399   0.209   7.791  12.602 -0.0695  0.1013  0.0216
 5157SOL     OW25400   6.471   5.148  11.319  0.4741  0.3806  0.2674
 5157SOL    HW125401   6.376   5.136  11.325  0.4344 -0.1496 -1.0875
 5157SOL    HW225402   6.482   5.234  11.279  0.6623  1.9333  3.3623
 5158SOL     OW25403  12.115  10.096  12.185 -0.0482 -0.0037 -0.2888
 5158SOL    HW125404  12.021  10.088  12.205 -0.6447  2.0131 -1.9170
 5158SOL    HW225405  12.127  10.188  12.164  2.4375 -0.1194  0.2908
 5159SOL     OW25406  12.645  13.069   3.277 -0.3950  0.5234 -0.2538
 5159SOL    HW125407  12.627  13.114   3.194 -0.9403  0.2043 -0.3072
 5159SOL    HW225408  12.573  13.007   3.287  0.7224 -0.8736 -0.5460
 5160SOL     OW25409   2.459   5.460   6.538  0.6360 -0.1639 -0.7581
 5160SOL    HW125410   2.426   5.425   6.455 -1.5881  3.0676 -1.4329
 5160SOL    HW225411   2.510   5.537   6.514 -0.5425  1.2029  0.8080
 5161SOL     OW25412   3.289   1.594   0.653 -0.3427  0.3583  0.2360
 5161SOL    HW125413   3.220   1.530   0.636  0.4445 -0.6447  0.7321
 5161SOL    HW225414   3.369   1.542   0.659  0.0479  1.1437  2.6412
 5162SOL     OW25415  11.197   8.871   0.711  0.3015  0.4206 -0.2786
 5162SOL    HW125416  11.288   8.861   0.736 -0.0471 -0.5030  0.6636
 5162SOL    HW225417  11.188   8.820   0.631  0.5151  0.1666 -0.1403
 5163SOL     OW25418   3.101  10.895   4.815  0.3242 -0.5696 -0.6533
 5163SOL    HW125419   3.033  10.963   4.815  0.3411 -0.5265  0.8832
 5163SOL    HW225420   3.053  10.813   4.803  0.1405 -0.4212 -0.9433
 5164SOL     OW25421   8.291   8.681   4.360  0.3563 -0.3263 -0.0131
 5164SOL    HW125422   8.280   8.696   4.454  0.3400 -1.4830  0.1824
 5164SOL    HW225423   8.285   8.768   4.321  1.8545  0.3659  1.1955
 5165SOL     OW25424   1.300   7.634   6.024 -0.4114  0.5316  0.4159
 5165SOL    HW125425   1.376   7.689   6.047  0.3018 -0.8310  1.4912
 5165SOL    HW225426   1.306   7.623   5.929 -0.6415  2.3738  0.1497
 5166SOL     OW25427   5.761  12.863  11.217  0.0620 -0.0958  0.2696
 5166SOL    HW125428   5.668  12.876  11.238 -0.6123  0.0230 -2.3905
 5166SOL    HW225429   5.769  12.769  11.201 -0.1741  0.1384 -1.5385
 5167SOL     OW25430   8.492  12.377   4.833  0.1919  0.1239 -0.0508
 5167SOL    HW125431   8.442  12.318   4.890  0.8979  1.4478  2.0466
 5167SOL    HW225432   8.582  12.346   4.840  0.1701 -0.2277 -1.1880
 5168SOL     OW25433   5.896   6.702  10.340  0.0050  0.5280  0.0947
 5168SOL    HW125434   5.930   6.613  10.333  0.5233  0.6661  0.7812
 5168SOL    HW225435   5.965   6.757  10.305  0.0262  0.7210  0.4329
 5169SOL     OW25436   8.124   8.160  12.598  0.0696  0.7579 -0.9186
 5169SOL    HW125437   8.190   8.168  12.668  0.1093  2.9768 -1.1337
 5169SOL    HW225438   8.163   8.207  12.524 -0.4240 -0.6578 -2.1033
 5170SOL     OW25439   2.562   1.245  11.449 -0.5885  0.2191  0.0210
 5170SOL    HW125440   2.560   1.338  11.471  0.9389  0.2587  0.1531
 5170SOL    HW225441   2.650   1.216  11.477  0.1201 -0.5687 -2.7152
 5171SOL     OW25442   1.908  13.263   0.457  0.2902  0.9837  0.3356
 5171SOL    HW125443   1.944  13.234   0.541 -0.1615 -2.0113 -0.4063
 5171SOL    HW225444   1.980  13.309   0.415  0.3432  3.1201  2.5434
 5172SOL     OW25445   9.847   7.166   6.269  0.2086 -0.3202  0.4122
 5172SOL    HW125446   9.847   7.084   6.221 -1.1473 -1.7555  2.6956
 5172SOL    HW225447   9.767   7.210   6.241  0.6183 -0.0464 -0.3494
 5173SOL     OW25448   4.626   1.217  11.069 -0.0076  0.0023 -0.1447
 5173SOL    HW125449   4.685   1.206  11.144  0.8968 -0.7115 -0.9434
 5173SOL    HW225450   4.544   1.175  11.096  0.8460 -1.7421 -0.1538
 5174SOL     OW25451  11.997   5.519  10.010 -0.1942 -0.5861  0.0258
 5174SOL    HW125452  11.922   5.467  10.040 -0.1976  0.0214  1.1358
 5174SOL    HW225453  12.073   5.472  10.043 -0.2373  0.9757  2.6619
 5175SOL     OW25454   9.462   9.212   6.598 -0.3015  0.0206 -0.5344
 5175SOL    HW125455   9.506   9.163   6.529  0.1600 -0.8818  0.3831
 5175SOL    HW225456   9.393   9.154   6.629 -1.5874  1.0609 -1.3289
 5176SOL     OW25457   5.804   1.276   5.868  0.2955 -0.0297  0.5101
 5176SOL    HW125458   5.842   1.280   5.780  1.3793  0.6110  0.9812
 5176SOL    HW225459   5.733   1.340   5.867  0.7825  0.5228  0.2993
 5177SOL     OW25460  12.427   2.800  10.872  0.0758  0.2338  0.1939
 5177SOL    HW125461  12.355   2.828  10.929  0.6668  0.1989  0.9605
 5177SOL    HW225462  12.481   2.878  10.862  0.3485  0.0525  0.2539
 5178SOL     OW25463   1.377   0.436   2.140 -0.1352 -0.4209 -0.0459
 5178SOL    HW125464   1.332   0.463   2.060 -0.4992 -0.8533  0.0066
 5178SOL    HW225465   1.463   0.407   2.109  1.0547  2.5879  0.1116
 5179SOL     OW25466   7.775   7.908   8.282  0.3224  0.2473 -0.5500
 5179SOL    HW125467   7.777   7.874   8.192 -0.2665 -1.8496  0.1677
 5179SOL    HW225468   7.741   7.835   8.334  1.2817  1.1808  1.4872
 5180SOL     OW25469   6.872   5.507  13.058 -0.1369  0.4314  0.4677
 5180SOL    HW125470   6.794   5.548  13.096 -1.2404 -1.3355  0.1915
 5180SOL    HW225471   6.851   5.495  12.966  0.8449  0.7624  0.1863
 5181SOL     OW25472  12.692  12.344  11.654 -0.0460  1.1052  0.0241
 5181SOL    HW125473  12.642  12.337  11.572  0.3843  2.7807 -0.4249
 5181SOL    HW225474  12.746  12.264  11.656  0.6700  1.4894 -1.8561
 5182SOL     OW25475  10.238   4.557   4.851 -0.0786 -0.7827  0.0950
 5182SOL    HW125476  10.146   4.576   4.871 -0.2969 -0.2557 -1.3241
 5182SOL    HW225477  10.284   4.573   4.933 -0.9369  1.1740  0.2535
 5183SOL     OW25478   2.790   4.373   5.367 -0.4376 -0.1745 -0.3778
 5183SOL    HW125479   2.798   4.310   5.295 -0.8725 -2.0918  1.1891
 5183SOL    HW225480   2.781   4.320   5.445  1.6247  1.8289  1.3675
 5184SOL     OW25481   5.752  11.179   6.190 -0.3924  0.2585  0.3136
 5184SOL    HW125482   5.773  11.173   6.096  0.3030 -1.5641  0.5521
 5184SOL    HW225483   5.709  11.264   6.199  1.2018  1.3168 -1.3410
 5185SOL     OW25484   6.495   5.168  11.598 -0.6948 -0.0758  0.2437
 5185SOL    HW125485   6.524   5.138  11.511 -0.9131  0.6760 -0.0985
 5185SOL    HW225486   6.464   5.089  11.641  2.4541 -1.1248  0.9036
 5186SOL     OW25487   6.766   3.273   0.057  0.0924  0.5960 -0.0267
 5186SOL    HW125488   6.791   3.323   0.135  0.8279 -0.5431  0.4927
 5186SOL    HW225489   6.816   3.192   0.064 -0.7804 -0.0512 -1.0465
 5187SOL     OW25490  10.332   5.150  10.182 -0.3057 -0.3191  0.3504
 5187SOL    HW125491  10.260   5.112  10.132  0.5738 -0.7103 -0.6803
 5187SOL    HW225492  10.411   5.123  10.134  0.4877  0.7223  1.0121
 5188SOL     OW25493   3.418   3.370   3.179 -0.6022  0.1647 -0.0537
 5188SOL    HW125494   3.491   3.404   3.128 -0.3594 -0.6405 -0.2537
 5188SOL    HW225495   3.459   3.322   3.251 -0.9383  0.2737  0.2139
 5189SOL     OW25496   4.334   3.515   9.513 -0.0891  0.1624  0.1136
 5189SOL    HW125497   4.243   3.494   9.534  0.6103 -0.7815  2.4584
 5189SOL    HW225498   4.332   3.608   9.490 -1.7349 -0.0342 -0.6858
 5190SOL     OW25499   3.509   9.393  11.399  0.0140  0.6821  0.3119
 5190SOL    HW125500   3.518   9.312  11.349 -1.4164  0.3189  0.5854
 5190SOL    HW225501   3.573   9.453  11.360  0.5716 -0.3359 -0.3809
 5191SOL     OW25502   9.821   7.172   7.651 -0.0368 -0.4756 -0.0379
 5191SOL    HW125503   9.846   7.107   7.716 -1.5070 -0.8373  0.2187
 5191SOL    HW225504   9.770   7.237   7.700 -1.3091 -0.8369 -0.8265
 5192SOL     OW25505   0.758   9.933  12.019 -0.2953  0.0987 -0.7600
 5192SOL    HW125506   0.718   9.846  12.013  1.2127 -0.9832  2.4596
 5192SOL    HW225507   0.834   9.928  11.961 -0.5777 -0.5374 -1.0849
 5193SOL     OW25508   2.352   5.676   9.588  0.5972  0.2748  0.2424
 5193SOL    HW125509   2.351   5.581   9.604 -0.8661  0.0015 -1.2425
 5193SOL    HW225510   2.283   5.710   9.643  0.2571  0.2928 -0.1910
 5194SOL     OW25511   0.494  12.458   5.264 -0.2514  0.0722 -0.3781
 5194SOL    HW125512   0.569  12.399   5.265  0.0170  0.3825 -1.2852
 5194SOL    HW225513   0.490  12.491   5.174 -1.1262  0.5033 -0.1961
 5195SOL     OW25514   0.482   3.113  12.314  0.2781  0.0806 -0.0004
 5195SOL    HW125515   0.483   3.205  12.290  2.4972 -0.3738 -2.0386
 5195SOL    HW225516   0.541   3.106  12.389  1.9386  0.0529 -1.2683
 5196SOL     OW25517   6.089   1.031   4.216  0.3706  0.2448  0.4711
 5196SOL    HW125518   6.110   0.944   4.182 -1.5507  0.2346 -0.8241
 5196SOL    HW225519   6.109   1.090   4.144 -0.4150  0.6190  0.5531
 5197SOL     OW25520   4.426   9.788   3.843  0.3494  0.1507 -0.8003
 5197SOL    HW125521   4.461   9.872   3.872  1.0360 -0.2129 -0.5382
 5197SOL    HW225522   4.493   9.724   3.869 -0.9914 -0.7315  0.7378
 5198SOL     OW25523   9.759   0.247   6.455 -0.0158 -0.2402 -0.0255
 5198SOL    HW125524   9.794   0.196   6.528 -1.2584  0.6525  1.2365
 5198SOL    HW225525   9.681   0.290   6.490 -0.5480  0.3710 -1.8292
 5199SOL     OW25526   1.637  12.831   5.572  0.5711 -0.2636  0.0303
 5199SOL    HW125527   1.577  12.853   5.501  1.5154 -1.7823 -1.3215
 5199SOL    HW225528   1.581  12.819   5.648 -0.5354  0.8799 -0.5649
 5200SOL     OW25529  12.087   5.293   7.806 -0.4213 -0.0380 -0.0152
 5200SOL    HW125530  12.027   5.279   7.732 -0.5315 -0.5298  0.1668
 5200SOL    HW225531  12.034   5.274   7.884 -0.7283  1.8178  0.2892
 5201SOL     OW25532   2.231   3.265   1.356  0.0791 -0.1371  0.3157
 5201SOL    HW125533   2.285   3.299   1.427  1.2319 -0.4342 -0.4097
 5201SOL    HW225534   2.152   3.319   1.359  0.1348 -0.0909  1.7590
 5202SOL     OW25535   7.203  13.308   7.478  0.0182 -0.5129  0.1618
 5202SOL    HW125536   7.125  13.273   7.523 -0.0994 -0.3918  0.0501
 5202SOL    HW225537   7.225  13.387   7.527 -1.7585  1.2137 -1.6240
 5203SOL     OW25538   6.452  11.555   9.297 -0.1278  0.1626 -0.1461
 5203SOL    HW125539   6.468  11.573   9.390  0.2295 -3.1862  0.5576
 5203SOL    HW225540   6.357  11.554   9.289 -0.1614  0.8165  0.0742
 5204SOL     OW25541  11.990  12.769   2.260  0.0257  0.1360  0.3003
 5204SOL    HW125542  11.924  12.795   2.196  0.7407  1.3530  0.0070
 5204SOL    HW225543  12.023  12.685   2.229 -1.7777 -0.8148  0.7908
 5205SOL     OW25544   3.607   8.757   8.464  0.0287 -0.0030  0.7396
 5205SOL    HW125545   3.669   8.763   8.537  0.0313 -1.9366  0.9585
 5205SOL    HW225546   3.539   8.697   8.496  0.7428 -2.0442 -1.2555
 5206SOL     OW25547  13.059   3.299   9.616 -0.1509  0.2582 -0.4506
 5206SOL    HW125548  13.040   3.388   9.589  0.2128  0.0438 -1.4865
 5206SOL    HW225549  12.977   3.251   9.605 -0.5312  0.6092  0.7836
 5207SOL     OW25550   3.603   9.541  10.801  0.3244 -0.5832 -0.0988
 5207SOL    HW125551   3.565   9.628  10.783 -0.1792 -0.6008  0.8347
 5207SOL    HW225552   3.695   9.559  10.817 -0.0664  0.0052  1.6365
 5208SOL     OW25553  10.643  11.668   9.732 -0.2812  0.0443  0.2261
 5208SOL    HW125554  10.682  11.593   9.777 -0.7656 -1.0877 -1.1715
 5208SOL    HW225555  10.550  11.663   9.753 -0.0077  1.8892  2.3437
 5209SOL     OW25556   4.158   2.753  13.103 -0.1423 -0.2247  0.3816
 5209SOL    HW125557   4.067   2.738  13.081  0.3036  0.2612 -2.0296
 5209SOL    HW225558   4.207   2.703  13.038  1.3135  1.5081  0.0775
 5210SOL     OW25559   7.361   4.273  12.759 -0.2742 -0.0020 -0.2211
 5210SOL    HW125560   7.269   4.263  12.735  0.1268  0.4201 -2.1423
 5210SOL    HW225561   7.385   4.360  12.725  0.9827 -0.3652 -0.3017
 5211SOL     OW25562  12.518   7.509   6.018 -0.2798  0.0588 -0.5093
 5211SOL    HW125563  12.569   7.578   6.061  0.1471 -0.4290 -0.2121
 5211SOL    HW225564  12.435   7.508   6.065  0.3906 -0.8609  0.7461
 5212SOL     OW25565  12.619   4.464   0.257  0.0617 -0.0022 -0.5625
 5212SOL    HW125566  12.643   4.556   0.273  1.3295 -0.3450 -0.3344
 5212SOL    HW225567  12.629   4.422   0.342 -1.6403 -0.1508 -0.4060
 5213SOL     OW25568   5.383   5.347   4.205  0.1550  0.7087 -0.4289
 5213SOL    HW125569   5.412   5.438   4.216  0.9346  0.4710 -0.4941
 5213SOL    HW225570   5.452   5.305   4.155 -0.0874  0.0133 -0.1989
 5214SOL     OW25571  12.578   0.229   6.027  0.3934 -0.3162 -0.2893
 5214SOL    HW125572  12.555   0.164   5.960  0.7822  0.1904 -0.9283
 5214SOL    HW225573  12.562   0.185   6.110 -2.7482 -0.0881 -0.6479
 5215SOL     OW25574  12.283   2.891  11.311 -0.8018  0.2545  0.4237
 5215SOL    HW125575  12.201   2.903  11.358  0.1945  0.7290  2.1287
 5215SOL    HW225576  12.349   2.928  11.369  0.4997  0.8997 -1.3976
 5216SOL     OW25577   7.594   6.952   4.900  0.1128  0.5346  0.0818
 5216SOL    HW125578   7.544   7.023   4.940 -1.1175 -0.3398  0.1134
 5216SOL    HW225579   7.681   6.990   4.887 -0.3356  1.8415  0.6890
 5217SOL     OW25580   8.801   8.859   4.923  0.3254  0.2976  0.1484
 5217SOL    HW125581   8.746   8.792   4.883 -0.6306  0.8044  0.5855
 5217SOL    HW225582   8.872   8.809   4.964  0.4404 -0.3307 -0.7823
 5218SOL     OW25583   9.413   9.355   3.389 -0.0163  0.0537 -0.3427
 5218SOL    HW125584   9.448   9.332   3.303 -1.2439  0.7491 -1.0571
 5218SOL    HW225585   9.342   9.292   3.404  0.1320 -0.0074  0.1260
 5219SOL     OW25586  11.804   1.138  13.160 -0.1786  0.4242  0.2523
 5219SOL    HW125587  11.842   1.051  13.154 -0.7358  0.1862  0.0460
 5219SOL    HW225588  11.858   1.192  13.103 -0.0061  0.1490  0.1519
 5220SOL     OW25589   0.345   0.611   1.480 -0.0118 -0.2986 -0.0905
 5220SOL    HW125590   0.434   0.596   1.512  0.6180 -1.0083 -2.0475
 5220SOL    HW225591   0.345   0.701   1.449 -0.0244 -0.2601  0.0195
 5221SOL     OW25592   7.469   3.973  13.045 -0.1987 -0.1536  0.8696
 5221SOL    HW125593   7.513   4.024  12.977 -0.2813  0.1614  1.0499
 5221SOL    HW225594   7.449   4.037  13.114 -2.8175  0.1866 -0.0624
 5222SOL     OW25595   8.826   6.905  13.085 -0.0019 -0.6837 -0.4333
 5222SOL    HW125596   8.874   6.850  13.024 -1.3929 -0.1897 -2.0425
 5222SOL    HW225597   8.753   6.851  13.114 -0.2444 -0.3684 -0.4517
 5223SOL     OW25598   5.568   8.947  11.402 -0.5544  0.4632  0.0240
 5223SOL    HW125599   5.596   8.893  11.475 -0.8722  0.9051  0.4842
 5223SOL    HW225600   5.519   9.019  11.443 -0.3048  0.9912 -0.5835
 5224SOL     OW25601   8.917  12.416   4.527  0.2789  0.3296 -0.0792
 5224SOL    HW125602   8.921  12.445   4.618  0.6922 -0.9204  0.3251
 5224SOL    HW225603   8.824  12.416   4.506  0.2947  2.3636 -0.2631
 5225SOL     OW25604  11.345   9.548   5.642  0.0820 -0.0441 -0.0730
 5225SOL    HW125605  11.354   9.574   5.733  1.2000  1.1775 -0.4898
 5225SOL    HW225606  11.367   9.454   5.641  1.0028  0.1460  0.7863
 5226SOL     OW25607   8.086  11.373   0.998 -0.3786 -0.1769 -1.1204
 5226SOL    HW125608   8.125  11.294   0.960 -0.9444 -1.4465  0.8088
 5226SOL    HW225609   8.160  11.426   1.025  0.0339 -1.0073 -0.5787
 5227SOL     OW25610   8.721   7.495   5.945 -0.6601 -0.0609  0.0213
 5227SOL    HW125611   8.798   7.550   5.959  0.0576 -1.0675  0.1388
 5227SOL    HW225612   8.689   7.475   6.032  0.8127 -2.1610  0.1864
 5228SOL     OW25613  12.477  11.754  10.028 -0.7122 -0.2214  0.3414
 5228SOL    HW125614  12.393  11.781  10.066  0.3348  4.6049 -0.1861
 5228SOL    HW225615  12.455  11.730   9.938 -1.5886  1.0596  0.1818
 5229SOL     OW25616  12.326   4.860   3.230 -0.4860  0.4484 -0.3553
 5229SOL    HW125617  12.349   4.939   3.180  0.3118 -0.3934 -1.3600
 5229SOL    HW225618  12.303   4.795   3.163 -0.1227 -0.4904  0.4071
 5230SOL     OW25619  12.707   5.129   3.561  0.0506 -0.7559 -0.0175
 5230SOL    HW125620  12.774   5.178   3.514 -0.9433  0.7933  0.1277
 5230SOL    HW225621  12.733   5.037   3.550  1.3866 -0.2785 -1.1772
 5231SOL     OW25622   5.999   3.544   1.006 -0.4654  0.0010  0.2129
 5231SOL    HW125623   6.074   3.486   0.996 -0.9182 -0.4807 -0.5091
 5231SOL    HW225624   5.929   3.501   0.958 -0.7989  1.1617 -0.3920
 5232SOL     OW25625   5.489   5.693   9.082  0.6133  0.0729  0.0998
 5232SOL    HW125626   5.564   5.665   9.135  1.0840  0.9658 -0.0889
 5232SOL    HW225627   5.444   5.611   9.061  1.7330 -0.5179 -0.0980
 5233SOL     OW25628   0.870  11.801   9.547  0.2974  0.4198 -0.6389
 5233SOL    HW125629   0.881  11.889   9.584 -1.3991  0.5312 -0.3397
 5233SOL    HW225630   0.806  11.812   9.477 -1.2597 -0.8234  0.5067
 5234SOL     OW25631  12.874   0.231   2.220 -0.3127  0.3244 -0.0732
 5234SOL    HW125632  12.886   0.315   2.176  1.9658  0.8608  1.3647
 5234SOL    HW225633  12.805   0.248   2.284 -0.3920  0.8798 -0.2932
 5235SOL     OW25634   0.057   1.073  10.596  0.5274  0.0376 -0.4367
 5235SOL    HW125635   0.036   0.996  10.649 -1.7341  1.7883  1.4754
 5235SOL    HW225636  -0.027   1.117  10.584  1.2388  0.6541 -4.1884
 5236SOL     OW25637   5.151   4.756   1.148  0.7794  0.5524 -0.5570
 5236SOL    HW125638   5.235   4.728   1.112  0.1821  0.1578 -1.6981
 5236SOL    HW225639   5.096   4.678   1.142  0.1307  0.9971 -0.4581
 5237SOL     OW25640   6.529   4.623   3.283 -0.3048  0.5815 -0.2016
 5237SOL    HW125641   6.551   4.542   3.237  1.7989  0.3865  1.0151
 5237SOL    HW225642   6.493   4.594   3.367  2.3836  0.7717  1.1262
 5238SOL     OW25643   9.703   3.758   5.525  0.6569 -0.3002 -0.1250
 5238SOL    HW125644   9.678   3.678   5.479  0.3108  1.3318 -3.0855
 5238SOL    HW225645   9.790   3.779   5.490  0.5232  0.8467  0.1947
 5239SOL     OW25646   7.565   4.847   2.109 -0.3057 -0.0951 -0.6337
 5239SOL    HW125647   7.512   4.882   2.038  0.0114  0.0240 -0.8141
 5239SOL    HW225648   7.559   4.752   2.099  0.4422 -0.0759 -1.3560
 5240SOL     OW25649   6.893   5.220   2.071  0.0027 -0.5968  0.0865
 5240SOL    HW125650   6.956   5.251   2.006 -0.1645  0.0644  0.2306
 5240SOL    HW225651   6.917   5.266   2.151  0.5244 -1.7795  0.6431
 5241SOL     OW25652   7.734  10.028  13.117  0.1044 -0.6529  0.1709
 5241SOL    HW125653   7.801  10.081  13.160 -0.5143  1.4154 -1.2660
 5241SOL    HW225654   7.779   9.946  13.095  2.0290  0.4508 -0.2467
 5242SOL     OW25655  11.700  12.420  12.617  0.3944  1.3030  0.4859
 5242SOL    HW125656  11.722  12.504  12.657 -1.3313  1.3111  1.4976
 5242SOL    HW225657  11.657  12.444  12.534 -0.4831  1.4648  0.9710
 5243SOL     OW25658  11.956  10.977   5.619  0.0825 -0.1344 -0.2687
 5243SOL    HW125659  11.875  10.935   5.592 -0.0612 -0.1442  0.1732
 5243SOL    HW225660  11.990  10.920   5.689 -0.2525  0.6252  0.5227
 5244SOL     OW25661  11.547   7.567   8.539  0.2134 -0.0568  0.1758
 5244SOL    HW125662  11.606   7.572   8.614 -0.4074 -1.3424  0.7789
 5244SOL    HW225663  11.485   7.498   8.562 -1.9025  1.6023 -0.1657
 5245SOL     OW25664   4.421   5.350   4.733 -0.1956 -0.1429  0.2136
 5245SOL    HW125665   4.459   5.263   4.723  1.1825  0.4168  0.4529
 5245SOL    HW225666   4.443   5.377   4.822 -0.4479  0.5254  0.0819
 5246SOL     OW25667   0.825  13.066  10.620  0.2449 -0.5548  0.1077
 5246SOL    HW125668   0.767  13.026  10.684  0.0809  0.3258  0.5320
 5246SOL    HW225669   0.862  13.142  10.666  3.3458 -2.1961  0.5891
 5247SOL     OW25670  10.214   4.191   1.934  0.0384 -0.0035 -0.1288
 5247SOL    HW125671  10.240   4.145   2.014 -0.5964  1.6667  1.0824
 5247SOL    HW225672  10.226   4.126   1.865  0.4181 -1.5673  1.3312
 5248SOL     OW25673  12.717   3.114  11.334  0.6406  0.0026  0.1960
 5248SOL    HW125674  12.642   3.121  11.275  0.5590 -0.6234  0.2267
 5248SOL    HW225675  12.695   3.043  11.394  0.6135  0.7946  1.1611
 5249SOL     OW25676   4.061  11.687   1.887  0.0546  0.6286 -0.8375
 5249SOL    HW125677   4.068  11.633   1.808 -0.6630 -0.4951 -0.1586
 5249SOL    HW225678   4.066  11.625   1.959  1.5533  1.7203  0.0508
 5250SOL     OW25679   7.922   9.018   2.684 -0.4956  0.2315  0.2487
 5250SOL    HW125680   7.886   9.061   2.761 -1.1630 -2.6627  1.7272
 5250SOL    HW225681   8.012   8.995   2.710 -0.4931 -0.1542 -0.0864
 5251SOL     OW25682   0.895   5.553   4.951 -0.2698 -0.0159  0.2547
 5251SOL    HW125683   0.927   5.581   5.037  1.4610  0.7430 -0.5941
 5251SOL    HW225684   0.806   5.587   4.946 -0.4448 -0.1756  1.7800
 5252SOL     OW25685   2.454  12.063   8.332  0.2900 -0.4279  0.4589
 5252SOL    HW125686   2.402  12.028   8.405  0.2385  0.5419  0.8955
 5252SOL    HW225687   2.476  12.152   8.359  0.0536  0.0348 -0.8266
 5253SOL     OW25688   0.103   2.686   6.838  0.4683 -0.3446  0.5501
 5253SOL    HW125689   0.012   2.660   6.850  0.2174 -0.0594 -0.6672
 5253SOL    HW225690   0.154   2.612   6.872 -0.2224 -1.4422 -0.7006
 5254SOL     OW25691   5.583   6.771  10.903 -0.1922  0.4076  0.3858
 5254SOL    HW125692   5.594   6.825  10.825  0.9303  0.6645  0.7070
 5254SOL    HW225693   5.594   6.681  10.871  0.3214  0.5133  0.2558
 5255SOL     OW25694   2.694   6.871   2.460  0.1014  0.0931  0.0753
 5255SOL    HW125695   2.735   6.807   2.402 -0.4261 -0.0273 -0.1700
 5255SOL    HW225696   2.710   6.838   2.548  0.6717  0.1357 -0.0098
 5256SOL     OW25697   0.629  10.653   8.765  0.5372 -0.5354 -0.1619
 5256SOL    HW125698   0.604  10.691   8.849 -0.1609 -1.7914  0.2109
 5256SOL    HW225699   0.637  10.559   8.781  2.2505 -0.6046 -1.0614
 5257SOL     OW25700  13.115   1.094   8.230  0.5238 -0.5032  0.6065
 5257SOL    HW125701  13.108   1.188   8.216 -1.2636 -0.4086  1.7626
 5257SOL    HW225702  13.099   1.083   8.324  1.2549 -1.9239  0.5917
 5258SOL     OW25703  11.135   4.499   4.955 -0.0672  0.5607 -0.7398
 5258SOL    HW125704  11.212   4.547   4.925  1.1875  0.0895  1.5234
 5258SOL    HW225705  11.108   4.545   5.035 -0.3826 -0.9748  0.0590
 5259SOL     OW25706  10.074   6.103   4.879  0.0220  0.5403 -0.0376
 5259SOL    HW125707  10.038   6.192   4.880  0.6180  0.7916 -0.3887
 5259SOL    HW225708  10.036   6.060   4.956 -1.1755  0.7339 -0.5045
 5260SOL     OW25709  12.063   7.765  11.548  0.1587  0.2782  0.2571
 5260SOL    HW125710  12.129   7.775  11.616 -0.1327 -0.4928  0.6676
 5260SOL    HW225711  12.041   7.672  11.549 -0.9472  0.5214  0.1465
 5261SOL     OW25712  13.276   3.758  10.177 -0.4296  0.3408 -0.0023
 5261SOL    HW125713  13.294   3.842  10.135 -0.2355 -0.6265 -1.9297
 5261SOL    HW225714  13.344   3.751  10.245 -0.4096  1.6885  0.1490
 5262SOL     OW25715  12.085   9.960  10.027  0.3408  0.6621  0.1212
 5262SOL    HW125716  12.007   9.930  10.073  0.3871  2.4869  1.4747
 5262SOL    HW225717  12.071  10.053  10.012  1.2193  0.5358 -1.8247
 5263SOL     OW25718   1.841   2.539   8.564  0.1021 -0.2602  0.2375
 5263SOL    HW125719   1.903   2.507   8.629 -1.9626  0.7431  2.8689
 5263SOL    HW225720   1.865   2.631   8.551  0.1007 -0.2813  0.0781
 5264SOL     OW25721   4.312   5.186  10.779 -0.0409 -0.0060  0.4631
 5264SOL    HW125722   4.333   5.176  10.686  1.3656 -0.5538  0.8210
 5264SOL    HW225723   4.216   5.184  10.782 -0.0908 -0.8595 -0.8898
 5265SOL     OW25724   8.609   0.668   9.892  0.1137  0.2138 -0.5242
 5265SOL    HW125725   8.690   0.695   9.935  0.5161 -2.4707  0.6375
 5265SOL    HW225726   8.543   0.673   9.961  0.2591 -1.7750 -0.1738
 5266SOL     OW25727   2.444   1.148   9.353  0.1488  0.0952  0.4073
 5266SOL    HW125728   2.461   1.162   9.260  0.0393 -0.7761  0.2474
 5266SOL    HW225729   2.515   1.193   9.398  0.0949  0.6820 -0.0906
 5267SOL     OW25730   4.662   1.882  12.200 -0.0734 -0.5326 -0.5353
 5267SOL    HW125731   4.582   1.835  12.223  0.3533 -0.3622  1.4929
 5267SOL    HW225732   4.724   1.814  12.173  0.4055 -1.1829  1.9669
 5268SOL     OW25733   9.750   8.892   8.623 -0.2379 -0.4606  0.0729
 5268SOL    HW125734   9.696   8.937   8.559  1.8399 -0.1788 -1.6118
 5268SOL    HW225735   9.724   8.800   8.617  1.6514 -0.9178 -3.2276
 5269SOL     OW25736   6.002   8.039  10.610  0.2031  0.2874  0.1968
 5269SOL    HW125737   5.940   8.111  10.617 -0.6678 -0.3836 -0.4668
 5269SOL    HW225738   5.956   7.972  10.561  1.2904 -0.4140  0.1010
 5270SOL     OW25739   5.928   8.146   9.266  0.1704  0.2121  0.2997
 5270SOL    HW125740   6.011   8.099   9.269  0.4349  0.6967  0.6618
 5270SOL    HW225741   5.862   8.079   9.287  0.2811 -0.5536 -1.5600
 5271SOL     OW25742  10.247   6.754  11.012 -0.1719 -0.0264  0.1267
 5271SOL    HW125743  10.304   6.698  11.065 -0.1814  0.3508  0.5447
 5271SOL    HW225744  10.282   6.843  11.025  0.9321 -0.0980 -1.9181
 5272SOL     OW25745  12.831  10.677   2.107 -0.2250  0.8077  0.9383
 5272SOL    HW125746  12.759  10.614   2.115 -1.4817  2.0702  0.1721
 5272SOL    HW225747  12.810  10.746   2.170  1.1732  0.4418  1.8304
 5273SOL     OW25748  10.591   1.782   6.221  0.6825  0.2160  0.1676
 5273SOL    HW125749  10.645   1.731   6.161 -0.6430  0.3662 -1.2131
 5273SOL    HW225750  10.583   1.868   6.180  0.4705  0.6034  0.9995
 5274SOL     OW25751   0.525   9.222   4.748  0.4492 -0.0299 -0.0445
 5274SOL    HW125752   0.504   9.130   4.764  1.6474 -0.4703 -0.8266
 5274SOL    HW225753   0.559   9.224   4.659  0.1890  1.2253 -0.1414
 5275SOL     OW25754   5.489  12.396   7.789  0.2160 -0.5192 -0.3407
 5275SOL    HW125755   5.473  12.469   7.730  0.1234  0.7205  1.1708
 5275SOL    HW225756   5.445  12.420   7.870 -0.4797 -2.6126 -0.0416
 5276SOL     OW25757   4.779  11.548  12.330 -0.2494  0.3932  0.1129
 5276SOL    HW125758   4.771  11.460  12.293  1.5173  0.2903 -0.1193
 5276SOL    HW225759   4.863  11.581  12.297  0.6510  0.9548  2.6837
 5277SOL     OW25760  11.032   7.739   7.031  0.2828  0.2577 -0.3551
 5277SOL    HW125761  10.983   7.666   6.993  0.8074  0.3140 -1.1556
 5277SOL    HW225762  10.964   7.803   7.056 -0.2312 -0.7685  0.9816
 5278SOL     OW25763   8.676   3.062   0.302 -0.0540  0.1266  0.3604
 5278SOL    HW125764   8.654   3.112   0.380 -0.4493  0.2719  0.1586
 5278SOL    HW225765   8.602   3.002   0.291  0.2458 -0.2556  0.3958
 5279SOL     OW25766  10.866   1.770  10.804 -0.5653 -0.2783  0.4869
 5279SOL    HW125767  10.783   1.725  10.821 -1.0836  0.9687  1.3914
 5279SOL    HW225768  10.842   1.844  10.749  0.4429 -1.6420 -1.9715
 5280SOL     OW25769  12.000   0.776   7.943  0.0518  0.4157 -0.2675
 5280SOL    HW125770  11.911   0.803   7.967  0.3600  0.5381  0.7982
 5280SOL    HW225771  12.056   0.841   7.985  0.6844 -0.2607 -0.0414
 5281SOL     OW25772   4.878   6.807  11.519  0.4667 -0.2772  0.4639
 5281SOL    HW125773   4.805   6.789  11.460 -0.0892 -0.7953  1.2922
 5281SOL    HW225774   4.857   6.759  11.599  2.7304 -2.2606  0.0080
 5282SOL     OW25775   7.143   6.019   9.252 -0.2737  0.1106 -0.2985
 5282SOL    HW125776   7.068   6.017   9.192 -2.1762 -0.5187  1.9340
 5282SOL    HW225777   7.216   5.987   9.200 -1.5790  0.5377 -2.5297
 5283SOL     OW25778  10.366   2.868   1.196 -0.1329  0.2832 -0.3723
 5283SOL    HW125779  10.276   2.838   1.198 -0.6492  1.7157  2.2400
 5283SOL    HW225780  10.362   2.952   1.150  0.0070  0.0168 -0.8782
 5284SOL     OW25781  10.587   8.967   1.889  0.0086 -0.1513 -0.3401
 5284SOL    HW125782  10.630   8.954   1.973 -0.8317 -0.7394  0.0189
 5284SOL    HW225783  10.586   9.061   1.876 -1.8275  0.1416  1.3996
 5285SOL     OW25784   0.612   2.823   6.908  0.4435 -0.1666 -0.4250
 5285SOL    HW125785   0.630   2.900   6.962 -1.0454  0.4331 -0.7327
 5285SOL    HW225786   0.651   2.843   6.823 -0.2495  0.4279 -0.6141
 5286SOL     OW25787   2.001   1.698  11.797  0.0943 -0.3307 -0.3532
 5286SOL    HW125788   1.940   1.758  11.840  0.5676 -0.9068  1.1656
 5286SOL    HW225789   2.008   1.623  11.857 -0.1439 -1.7335 -1.9813
 5287SOL     OW25790  13.288   6.715   7.449 -0.5024  0.6723 -0.3567
 5287SOL    HW125791  13.260   6.716   7.541 -3.2672 -1.7482 -1.0167
 5287SOL    HW225792  13.372   6.668   7.451 -0.8452  0.0496  0.8900
 5288SOL     OW25793  10.224   6.863   3.037  0.5771 -0.5340  0.2863
 5288SOL    HW125794  10.189   6.900   3.119  0.7277  4.0931 -1.4486
 5288SOL    HW225795  10.318   6.855   3.054  0.9070  2.1013  0.2015
 5289SOL     OW25796   2.257   7.956   6.928  0.1459  0.3374  0.0425
 5289SOL    HW125797   2.268   8.041   6.884  0.4951  0.2931  0.0485
 5289SOL    HW225798   2.190   7.973   6.995 -0.8134  0.2710 -0.8737
 5290SOL     OW25799   8.596  11.748   8.589 -0.3723  0.3250  0.3514
 5290SOL    HW125800   8.583  11.673   8.646  1.8011 -1.7028 -1.5745
 5290SOL    HW225801   8.525  11.742   8.525 -0.9255  0.6870  0.9191
 5291SOL     OW25802   2.668  12.368   0.046 -0.2611 -0.2420  0.3912
 5291SOL    HW125803   2.604  12.358  -0.025 -0.4640  1.2061  0.3312
 5291SOL    HW225804   2.651  12.456   0.081  1.2265 -0.1065  0.8422
 5292SOL     OW25805   5.454   6.345   1.808  0.1651 -0.4825  0.3724
 5292SOL    HW125806   5.532   6.381   1.765 -0.1693 -0.6527 -0.3936
 5292SOL    HW225807   5.461   6.375   1.899 -0.3702  2.0042 -0.3275
 5293SOL     OW25808   6.794  11.179   4.519  0.0425 -0.3445  0.2030
 5293SOL    HW125809   6.749  11.178   4.603  1.2121  0.6771  0.8836
 5293SOL    HW225810   6.802  11.272   4.497  1.0036 -0.5325 -0.3211
 5294SOL     OW25811  12.550   1.799   9.235 -0.0234 -0.3403  0.3316
 5294SOL    HW125812  12.575   1.870   9.294 -0.8591  1.1420 -0.9952
 5294SOL    HW225813  12.467   1.767   9.270  0.3904 -0.7251  0.9781
 5295SOL     OW25814  10.481   9.770   2.554  0.1074  0.0514  0.2752
 5295SOL    HW125815  10.481   9.820   2.472  2.9093 -0.1035  0.0877
 5295SOL    HW225816  10.456   9.834   2.620 -0.0029  0.7604 -0.4294
 5296SOL     OW25817   2.100   6.665   3.474  0.2558  0.1914 -0.2059
 5296SOL    HW125818   2.070   6.750   3.506  0.4352 -0.5528  2.1459
 5296SOL    HW225819   2.090   6.606   3.549  0.1132 -1.8900 -1.7676
 5297SOL     OW25820   8.436   6.879   8.144 -0.2111 -0.4468  0.1365
 5297SOL    HW125821   8.455   6.789   8.170 -0.0200 -1.0686 -1.9741
 5297SOL    HW225822   8.522   6.916   8.124 -0.1551  0.6530  2.1625
 5298SOL     OW25823   4.865  11.124   2.406  0.0161 -0.3218 -0.0214
 5298SOL    HW125824   4.940  11.100   2.350  0.4338  2.0906 -0.6090
 5298SOL    HW225825   4.790  11.122   2.347  0.0908  0.0261 -0.1303
 5299SOL     OW25826   4.928   9.415   8.465 -0.1072 -0.6541 -0.0408
 5299SOL    HW125827   4.928   9.510   8.466 -1.6851 -0.6255  0.7691
 5299SOL    HW225828   5.021   9.391   8.460  0.3666  0.9058  0.6740
 5300SOL     OW25829   1.879   0.380  10.669  0.0216 -0.1889 -0.1841
 5300SOL    HW125830   1.961   0.357  10.714 -0.8487  0.1166  1.6754
 5300SOL    HW225831   1.865   0.472  10.691 -2.3321 -0.9789  2.1863
 5301SOL     OW25832   6.753  11.941   8.628  0.2442  0.3629 -0.1086
 5301SOL    HW125833   6.808  11.867   8.652 -0.0983  0.2643  0.3881
 5301SOL    HW225834   6.705  11.911   8.551 -1.5022 -0.7693  1.3281
 5302SOL     OW25835   1.495  11.677   7.725 -0.2632  0.4974 -0.2612
 5302SOL    HW125836   1.477  11.583   7.713  0.3105  0.3641 -0.0696
 5302SOL    HW225837   1.550  11.700   7.650 -1.7028  1.0490 -1.1896
 5303SOL     OW25838   4.316   8.345   4.149 -0.4276 -0.4952 -0.1404
 5303SOL    HW125839   4.335   8.272   4.208 -0.8055 -0.6869 -0.2503
 5303SOL    HW225840   4.342   8.423   4.198  3.3954 -0.8341 -1.3373
 5304SOL     OW25841   8.622   0.245   9.922  0.1495  0.0612  0.0439
 5304SOL    HW125842   8.554   0.292   9.970 -0.0176 -0.5528  0.4164
 5304SOL    HW225843   8.573   0.190   9.860  0.2913 -0.4725  0.3959
 5305SOL     OW25844  11.698   4.797   9.225  0.8029 -0.7455  0.2391
 5305SOL    HW125845  11.647   4.812   9.146  0.1670 -0.3876  0.7000
 5305SOL    HW225846  11.722   4.705   9.222  0.2932 -0.8702 -0.0907
 5306SOL     OW25847   0.338   6.822   1.544  0.3716 -0.5955  0.3735
 5306SOL    HW125848   0.383   6.776   1.615  0.3399 -0.4941  0.4601
 5306SOL    HW225849   0.350   6.915   1.564 -0.7348 -0.5644  0.9525
 5307SOL     OW25850  12.334   1.703   0.307  0.5150 -0.4337 -0.3885
 5307SOL    HW125851  12.412   1.697   0.361 -0.6150  3.8757  2.1817
 5307SOL    HW225852  12.278   1.631   0.336  2.3599 -1.9046 -0.3342
 5308SOL     OW25853  12.920   6.455   9.292 -0.2927  0.0757  0.7972
 5308SOL    HW125854  12.840   6.472   9.341  0.5221  1.1843  1.7771
 5308SOL    HW225855  12.921   6.522   9.224 -0.5748 -0.4342  0.2724
 5309SOL     OW25856   6.887  12.514   3.177  0.0986  0.3450  0.0937
 5309SOL    HW125857   6.828  12.538   3.248 -0.4120  0.1411 -0.2542
 5309SOL    HW225858   6.961  12.471   3.220  0.2500  1.0709  0.5815
 5310SOL     OW25859   3.661  13.115   3.636 -0.4134 -0.1679  0.2689
 5310SOL    HW125860   3.661  13.110   3.540  1.5137 -1.8263  0.2852
 5310SOL    HW225861   3.574  13.084   3.662 -0.9236  0.2146 -0.9228
 5311SOL     OW25862   7.708   8.084   2.972 -0.1724  0.0734 -0.1424
 5311SOL    HW125863   7.779   8.020   2.980  0.4556  0.8707  0.9397
 5311SOL    HW225864   7.709   8.109   2.879 -1.2354 -2.3200 -0.8884
 5312SOL     OW25865   6.147  12.042   1.174  0.3756 -0.3432 -0.4609
 5312SOL    HW125866   6.150  12.028   1.079 -0.0789 -1.4574 -0.3204
 5312SOL    HW225867   6.054  12.053   1.194  0.1895 -2.4967  0.1478
 5313SOL     OW25868   0.932   0.117  13.229 -0.5914 -0.0776  0.3237
 5313SOL    HW125869   1.020   0.154  13.222 -1.4318  1.9356 -0.5806
 5313SOL    HW225870   0.945   0.023  13.228  1.4658  0.1463 -1.4563
 5314SOL     OW25871   0.975   5.160   5.328  0.1375 -0.1959 -0.0151
 5314SOL    HW125872   0.981   5.169   5.233 -1.6815 -1.5870 -0.3153
 5314SOL    HW225873   0.986   5.066   5.344  1.1890  0.1151  1.2497
 5315SOL     OW25874   7.427   9.254   3.753 -0.5530 -0.2046 -0.5193
 5315SOL    HW125875   7.412   9.167   3.717  2.0133 -0.0625 -2.1968
 5315SOL    HW225876   7.477   9.238   3.833 -1.0120 -0.2962 -0.2472
 5316SOL     OW25877   0.342   9.549   4.367  0.2098 -0.5687 -0.2122
 5316SOL    HW125878   0.322   9.491   4.294  3.3669 -0.4078 -1.3726
 5316SOL    HW225879   0.290   9.516   4.440 -2.5203 -1.1897 -2.2729
 5317SOL     OW25880   0.723   5.443   6.297 -0.5810  0.3045 -0.9353
 5317SOL    HW125881   0.708   5.514   6.359 -0.4100 -0.2166 -0.2792
 5317SOL    HW225882   0.716   5.364   6.350  0.9708 -0.1020 -1.2975
 5318SOL     OW25883   0.078   0.213  11.465  0.1414 -0.2339 -0.1062
 5318SOL    HW125884   0.025   0.133  11.469 -0.9354  0.4999  1.7622
 5318SOL    HW225885   0.168   0.182  11.467 -0.1293 -1.4866 -2.6399
 5319SOL     OW25886   2.992   3.284   1.024  0.1781 -0.3131 -0.4375
 5319SOL    HW125887   2.902   3.308   1.048  0.5439  1.0863 -0.3756
 5319SOL    HW225888   2.986   3.192   0.999 -1.4890  0.0435 -1.5131
 5320SOL     OW25889   3.144   0.704   6.401 -0.7051 -0.0379  0.5516
 5320SOL    HW125890   3.223   0.683   6.351 -1.4682 -1.2569 -0.2106
 5320SOL    HW225891   3.162   0.790   6.440  0.9179 -0.2197  0.2754
 5321SOL     OW25892   5.908   4.885   2.211  0.2640  0.0530  0.1169
 5321SOL    HW125893   5.848   4.927   2.149 -0.7603 -1.0091  0.3681
 5321SOL    HW225894   5.991   4.881   2.163  0.0150  1.0582 -0.4381
 5322SOL     OW25895  10.590   9.955   4.784  0.4730  0.3721 -0.3833
 5322SOL    HW125896  10.639  10.012   4.724  0.0830 -0.6737 -1.7314
 5322SOL    HW225897  10.620   9.867   4.763 -3.7395 -0.6797 -3.1735
 5323SOL     OW25898   2.632   4.927  12.292  0.1916  0.1602 -0.0399
 5323SOL    HW125899   2.628   4.893  12.202  2.3283 -0.4174  0.0422
 5323SOL    HW225900   2.584   5.010  12.287 -2.6882 -1.4043 -0.8844
 5324SOL     OW25901   2.690   0.316   5.379  0.2898 -0.1590  0.4171
 5324SOL    HW125902   2.609   0.368   5.385  0.1866 -0.2070 -0.4214
 5324SOL    HW225903   2.747   0.354   5.446  0.0511  0.7548  0.1279
 5325SOL     OW25904   4.720  12.092   8.019 -0.3969 -0.0889  0.1056
 5325SOL    HW125905   4.676  12.112   7.936 -2.5318  0.5621  1.3158
 5325SOL    HW225906   4.652  12.052   8.073  1.2162 -1.4847  1.2379
 5326SOL     OW25907   2.888  11.525   1.254 -0.2188 -0.1280 -0.2149
 5326SOL    HW125908   2.863  11.510   1.163 -0.6093  0.5173 -0.2213
 5326SOL    HW225909   2.949  11.454   1.274  2.9785  1.8360 -2.1695
 5327SOL     OW25910   2.062   5.226   7.923  0.2261 -0.0206  0.0938
 5327SOL    HW125911   2.105   5.309   7.942 -0.2824  0.2059  0.2698
 5327SOL    HW225912   1.977   5.251   7.887  0.9024 -0.4276 -1.9153
 5328SOL     OW25913   1.052   6.990   5.740 -0.0701  0.1444 -1.0854
 5328SOL    HW125914   1.145   7.008   5.759 -0.2737  0.0552  0.0665
 5328SOL    HW225915   1.047   6.988   5.644  1.6631 -2.6438 -1.2219
 5329SOL     OW25916   4.301   9.214   8.507  0.5472  0.4329 -0.2230
 5329SOL    HW125917   4.306   9.213   8.411 -0.1987  1.3320 -0.2838
 5329SOL    HW225918   4.347   9.134   8.534  0.9870  0.2934 -1.3143
 5330SOL     OW25919   9.810   1.484   2.098  0.1127 -0.2942  0.2217
 5330SOL    HW125920   9.838   1.471   2.189 -0.7420 -0.1371  0.5151
 5330SOL    HW225921   9.816   1.397   2.059  0.9520 -0.2767  0.2774
 5331SOL     OW25922   7.684   3.404  12.369 -0.3184  0.3152  0.6327
 5331SOL    HW125923   7.608   3.355  12.399 -0.4890 -0.2500 -0.6596
 5331SOL    HW225924   7.653   3.453  12.293  0.6684 -0.2194 -0.1506
 5332SOL     OW25925   5.722   4.362   5.366  0.2973 -0.0383  0.3128
 5332SOL    HW125926   5.752   4.315   5.444  0.3035 -1.2981 -0.4135
 5332SOL    HW225927   5.709   4.293   5.300  1.1511  1.0795 -1.0788
 5333SOL     OW25928   3.037   2.108   0.959  0.7194  0.1774  0.1082
 5333SOL    HW125929   3.000   2.041   0.902 -0.8317  0.9588  0.1688
 5333SOL    HW225930   3.043   2.186   0.903  0.4551  0.5797  0.6396
 5334SOL     OW25931   0.370  10.375   4.874 -0.0764  0.4797  0.4571
 5334SOL    HW125932   0.286  10.349   4.912  0.4482 -1.7233  0.2611
 5334SOL    HW225933   0.399  10.297   4.827  1.3415  1.7228 -0.8125
 5335SOL     OW25934  12.889   4.956   0.204  0.2838 -0.3250  0.0050
 5335SOL    HW125935  12.865   4.979   0.114  1.5222 -1.5642 -0.6764
 5335SOL    HW225936  12.814   4.984   0.257  0.5927  2.8532 -1.0258
 5336SOL     OW25937   0.693   6.488   3.852  0.0417  0.2627 -0.0083
 5336SOL    HW125938   0.642   6.486   3.771 -2.6173  0.3223  1.5303
 5336SOL    HW225939   0.718   6.580   3.862  0.4509  0.2426 -0.7805
 5337SOL     OW25940   5.255   2.485   4.306  0.2538 -0.0413 -0.3513
 5337SOL    HW125941   5.295   2.554   4.254  1.5214 -1.2006 -0.9783
 5337SOL    HW225942   5.161   2.495   4.290  0.3873  1.6018 -0.3060
 5338SOL     OW25943   4.091   0.099   9.251  0.1254 -0.8155  0.0759
 5338SOL    HW125944   4.147   0.177   9.248 -0.7277 -0.1951 -0.3902
 5338SOL    HW225945   4.033   0.114   9.325 -0.2129 -0.8817 -0.1721
 5339SOL     OW25946  13.160   9.762   6.695  0.0851 -0.6753  0.0011
 5339SOL    HW125947  13.229   9.716   6.648 -0.6893 -2.2560  0.3533
 5339SOL    HW225948  13.079   9.728   6.658 -0.5317  0.4637  0.2450
 5340SOL     OW25949   8.262   3.251   2.995  0.4120  0.2623  0.0892
 5340SOL    HW125950   8.199   3.290   3.056  1.3281 -0.0265  1.2496
 5340SOL    HW225951   8.279   3.320   2.931  0.8362  1.2515  1.2310
 5341SOL     OW25952   1.806   8.422   5.177  1.1335  0.1224 -0.4152
 5341SOL    HW125953   1.792   8.327   5.169 -0.3652  0.2080  0.8008
 5341SOL    HW225954   1.895   8.435   5.144  1.8490 -1.8869  0.5497
 5342SOL     OW25955   5.278   4.468   3.492 -0.6271 -0.4811  0.2131
 5342SOL    HW125956   5.364   4.429   3.475 -1.2070 -0.9907 -1.8896
 5342SOL    HW225957   5.227   4.446   3.414 -1.6847  2.6368 -0.1061
 5343SOL     OW25958  13.009   2.133  11.179 -0.3487 -1.1471  0.7171
 5343SOL    HW125959  13.051   2.177  11.105  0.2294 -0.7433  1.2726
 5343SOL    HW225960  12.957   2.202  11.221 -1.3329 -1.5692  0.2160
 5344SOL     OW25961   9.064  12.240   0.716  1.1152 -0.4609  0.6302
 5344SOL    HW125962   9.147  12.217   0.674 -0.2767 -0.1840 -2.5882
 5344SOL    HW225963   9.064  12.335   0.720  1.3198 -0.4873  1.5662
 5345SOL     OW25964  10.719  11.765   7.263  0.4240  0.1043  0.8037
 5345SOL    HW125965  10.633  11.768   7.303  0.6843 -0.0302  1.3759
 5345SOL    HW225966  10.737  11.671   7.251 -0.4551  0.1560 -1.3882
 5346SOL     OW25967   8.349  11.019   1.862 -0.0534  0.3221 -0.1042
 5346SOL    HW125968   8.335  11.106   1.898 -2.6603 -0.0265 -0.0868
 5346SOL    HW225969   8.351  11.031   1.767 -0.8457  0.3541 -0.1180
 5347SOL     OW25970   9.842   0.974  10.062  0.6958 -0.4896 -0.2146
 5347SOL    HW125971   9.763   0.930  10.030  0.4464  0.6941 -1.2809
 5347SOL    HW225972   9.877   0.914  10.128 -0.1558 -1.8270 -0.9267
 5348SOL     OW25973   7.929  11.703   4.173 -0.0552 -0.1265 -0.2993
 5348SOL    HW125974   7.921  11.711   4.078  1.2047  2.4029 -0.2869
 5348SOL    HW225975   7.839  11.692   4.204 -0.3377 -3.0111 -1.8409
 5349SOL     OW25976  10.529  10.627   3.709  0.6100  0.4703  0.0557
 5349SOL    HW125977  10.601  10.645   3.770  1.5437 -1.8288 -0.2561
 5349SOL    HW225978  10.570  10.574   3.640 -0.8865  1.1877 -1.4449
 5350SOL     OW25979  12.826  12.391   7.750 -0.4728 -0.1477  0.2730
 5350SOL    HW125980  12.914  12.353   7.751 -0.4304 -0.0408  0.5968
 5350SOL    HW225981  12.839  12.480   7.717 -0.4967 -0.2214  0.0641
 5351SOL     OW25982   2.094  11.122  10.428  0.4161  0.0433 -0.5477
 5351SOL    HW125983   2.061  11.037  10.398 -1.3119 -0.5637  2.5877
 5351SOL    HW225984   2.175  11.100  10.476  0.4397  0.2824 -0.4764
 5352SOL     OW25985  10.647  11.640   0.964 -0.7418 -0.0980  0.5908
 5352SOL    HW125986  10.610  11.554   0.943  0.0762  0.3624 -3.5607
 5352SOL    HW225987  10.571  11.697   0.976 -1.3601 -0.5435 -1.0330
 5353SOL     OW25988  11.170  11.972   3.464 -0.8018 -0.0641 -0.5335
 5353SOL    HW125989  11.176  12.050   3.519 -0.8408  0.6501 -1.5167
 5353SOL    HW225990  11.119  11.910   3.515  0.7569 -0.1204  1.0268
 5354SOL     OW25991   1.835  10.422   3.149  0.5366  0.0052 -0.2141
 5354SOL    HW125992   1.834  10.504   3.100  0.3307 -0.6421 -1.3273
 5354SOL    HW225993   1.768  10.368   3.107  0.5228 -0.6595  0.6349
 5355SOL     OW25994   8.643   0.062   0.584  0.0366  0.3010  0.4832
 5355SOL    HW125995   8.630   0.055   0.489  1.0394 -0.0137  0.3500
 5355SOL    HW225996   8.738   0.075   0.594 -0.1394  1.0169  1.4135
 5356SOL     OW25997   9.926   7.759   4.531 -0.2075  0.5630 -0.0462
 5356SOL    HW125998  10.020   7.739   4.524  0.4803  2.3913  2.5098
 5356SOL    HW225999   9.885   7.674   4.547  0.9503 -0.3047 -1.3912
 5357SOL     OW26000  10.751   4.739   6.587  0.9796  0.4696  0.0751
 5357SOL    HW126001  10.802   4.682   6.528 -2.1255 -1.5830 -0.8607
 5357SOL    HW226002  10.770   4.706   6.675  0.9326 -0.5716 -0.2926
 5358SOL     OW26003   5.585   0.943  10.853  0.3854 -0.0474 -0.1739
 5358SOL    HW126004   5.569   1.021  10.801 -0.4791 -0.5073 -0.6224
 5358SOL    HW226005   5.514   0.883  10.828 -0.8635  0.1906  2.4749
 5359SOL     OW26006   7.514  10.383  11.909 -0.2197  0.3395  0.4445
 5359SOL    HW126007   7.429  10.427  11.917 -0.6811 -0.2071 -0.9589
 5359SOL    HW226008   7.561  10.405  11.989 -1.3016  1.4936  0.7920
 5360SOL     OW26009   4.665   6.122   8.431 -0.0554  0.6052 -0.0832
 5360SOL    HW126010   4.700   6.141   8.518  0.0654 -0.0982  0.0277
 5360SOL    HW226011   4.702   6.191   8.375 -0.1289  1.0559  0.4132
 5361SOL     OW26012   8.418   0.617   6.163  0.2152 -0.2330  0.1228
 5361SOL    HW126013   8.337   0.566   6.175  0.1193 -0.0255  0.3726
 5361SOL    HW226014   8.408   0.657   6.077  0.8053 -1.5607 -0.5979
 5362SOL     OW26015   0.109   0.324  12.504 -0.1815  0.8640 -0.0233
 5362SOL    HW126016   0.077   0.255  12.446  0.2771  0.8622 -0.2749
 5362SOL    HW226017   0.189   0.288  12.543 -0.0137  1.2050 -0.0530
 5363SOL     OW26018   8.901   7.551   9.938 -0.7229  0.5596 -0.5899
 5363SOL    HW126019   8.877   7.550  10.031  1.1412  1.0607 -0.0601
 5363SOL    HW226020   8.817   7.560   9.892 -1.6450  0.8523  1.0507
 5364SOL     OW26021   5.937  13.042   1.124  0.1217  0.0984 -0.4914
 5364SOL    HW126022   5.889  13.043   1.207  0.1518  2.8296 -0.4248
 5364SOL    HW226023   5.990  12.963   1.129  2.2227  1.4329  3.4262
 5365SOL     OW26024  11.438  10.924   8.987  0.5306  0.0720  0.0928
 5365SOL    HW126025  11.446  10.868   9.065  0.3759  0.1642  0.1755
 5365SOL    HW226026  11.528  10.950   8.967  0.3800  2.2973  1.8962
 5366SOL     OW26027  10.750   9.182   9.058  0.1994 -0.1224  0.4329
 5366SOL    HW126028  10.790   9.178   8.971  0.0215 -2.2508  0.3765
 5366SOL    HW226029  10.818   9.152   9.118 -0.4925 -1.3484  0.6441
 5367SOL     OW26030   0.072   1.328   7.726  0.2796 -0.9331 -0.5959
 5367SOL    HW126031   0.062   1.347   7.633 -2.6775  0.8533 -0.0388
 5367SOL    HW226032   0.118   1.403   7.762  0.0879 -0.9016 -0.4080
 5368SOL     OW26033   8.559  12.032   0.002 -0.1008 -0.3914  0.3089
 5368SOL    HW126034   8.576  12.081  -0.079 -1.2510  0.9313  0.8138
 5368SOL    HW226035   8.510  12.094   0.056 -0.1014 -1.5567  1.6768
 5369SOL     OW26036   6.078   3.175   5.692 -0.3531 -0.0841  0.4618
 5369SOL    HW126037   6.114   3.090   5.666 -1.5318 -0.1399 -1.2423
 5369SOL    HW226038   6.002   3.153   5.746 -0.9404 -0.1803 -0.3671
 5370SOL     OW26039   3.321   6.811   6.211  0.5223  0.0295  0.1789
 5370SOL    HW126040   3.327   6.897   6.253 -2.5023  0.5703 -0.2581
 5370SOL    HW226041   3.337   6.828   6.118  0.3059  0.0811  0.1491
 5371SOL     OW26042   4.572   8.356   9.579 -0.4270  0.4611 -0.3072
 5371SOL    HW126043   4.529   8.357   9.494 -3.3131 -1.7007  0.9631
 5371SOL    HW226044   4.604   8.266   9.589  1.4406  1.1380  0.2320
 5372SOL     OW26045   6.886   4.439  10.442  0.5114 -0.6393 -0.3015
 5372SOL    HW126046   6.967   4.391  10.427 -0.1535 -2.0829  0.4535
 5372SOL    HW226047   6.908   4.504  10.509  1.1609 -0.7109 -0.4454
 5373SOL     OW26048   5.621   0.898   9.810  0.5273 -0.3027  0.0620
 5373SOL    HW126049   5.595   0.924   9.722 -0.5691 -0.3968  0.3408
 5373SOL    HW226050   5.696   0.954   9.830 -0.3138  1.0137 -0.2647
 5374SOL     OW26051  12.057   6.053   4.626  0.6487 -1.2650  0.4718
 5374SOL    HW126052  12.150   6.036   4.641  1.4463 -0.2975 -2.5213
 5374SOL    HW226053  12.054   6.147   4.607 -1.0851 -1.1552  1.1752
 5375SOL     OW26054   7.742   0.607   2.093  0.0504  0.0497 -0.3075
 5375SOL    HW126055   7.746   0.649   2.179 -0.4997  0.4170 -0.4536
 5375SOL    HW226056   7.833   0.595   2.067  0.2141  0.7799 -0.0767
 5376SOL     OW26057   4.201  10.405   2.700 -0.4600 -0.1276  0.1707
 5376SOL    HW126058   4.164  10.484   2.740 -0.6330 -0.5904  0.9677
 5376SOL    HW226059   4.269  10.437   2.641  0.8858  0.5463  1.9823
 5377SOL     OW26060   2.265   2.809   1.632 -0.1561  0.0589  0.0279
 5377SOL    HW126061   2.348   2.828   1.677  0.0513 -0.3670 -0.1672
 5377SOL    HW226062   2.269   2.715   1.614 -0.6996  0.0318  0.0497
 5378SOL     OW26063   5.214  12.708   4.555  0.6995 -0.0172 -0.5874
 5378SOL    HW126064   5.145  12.672   4.500  1.4174 -1.0041 -0.8637
 5378SOL    HW226065   5.195  12.673   4.643  0.6608 -0.0154 -0.5956
 5379SOL     OW26066   1.048  10.553   3.881  0.5134  0.5109 -0.6409
 5379SOL    HW126067   1.084  10.469   3.908  0.7492  0.5533 -0.8162
 5379SOL    HW226068   1.114  10.588   3.821  0.6431  1.0381 -0.1953
 5380SOL     OW26069   3.021   9.445   4.527 -0.2956 -0.3660 -0.0693
 5380SOL    HW126070   2.943   9.473   4.575 -0.8254  0.1663 -1.2120
 5380SOL    HW226071   3.012   9.484   4.440  1.9516  0.9192  0.1852
 5381SOL     OW26072   4.250   3.802   9.578 -0.4092 -0.5242 -0.1655
 5381SOL    HW126073   4.155   3.788   9.580 -0.4542 -0.1784  1.6305
 5381SOL    HW226074   4.261   3.896   9.568 -0.2653 -0.5063  0.1495
 5382SOL     OW26075   3.360   8.706   3.614 -0.2587  0.4822 -0.0857
 5382SOL    HW126076   3.280   8.756   3.601  0.3665  1.1899 -1.4874
 5382SOL    HW226077   3.358   8.639   3.545  0.0892  0.1476  0.2225
 5383SOL     OW26078   5.379   7.157   8.314  0.2853  0.3319 -0.2331
 5383SOL    HW126079   5.410   7.239   8.276 -0.7648  0.2735 -1.2680
 5383SOL    HW226080   5.398   7.091   8.248 -0.2372 -0.0127 -0.0491
 5384SOL     OW26081   7.381   6.105  10.538  0.2342 -0.2107 -0.5245
 5384SOL    HW126082   7.443   6.167  10.499 -0.1963  0.2914 -0.4237
 5384SOL    HW226083   7.326   6.078  10.464 -1.0333  1.2739 -0.1923
 5385SOL     OW26084  10.710   9.766   6.852  0.1060  0.2842  0.4026
 5385SOL    HW126085  10.721   9.836   6.917  0.6332 -0.3937  1.0638
 5385SOL    HW226086  10.792   9.717   6.857  0.2494  0.3533 -0.9529
 5386SOL     OW26087   0.110   3.542   1.692 -0.3498  0.7462  0.4171
 5386SOL    HW126088   0.057   3.465   1.669  0.0387  0.6321 -0.1161
 5386SOL    HW226089   0.074   3.572   1.775 -0.7816  0.2370  0.4186
 5387SOL     OW26090   9.905  11.643   3.731 -0.3313 -0.1094  0.6599
 5387SOL    HW126091   9.927  11.577   3.665  0.3501 -0.0001  0.7657
 5387SOL    HW226092   9.859  11.711   3.683 -1.3842 -0.8321  0.6179
 5388SOL     OW26093   6.405   0.899   5.916  0.2365 -0.6333 -0.4017
 5388SOL    HW126094   6.375   0.873   6.003 -0.3252 -2.8349 -1.1822
 5388SOL    HW226095   6.339   0.960   5.884 -1.0324 -1.9056 -0.3054
 5389SOL     OW26096   4.726   5.824   6.782 -0.3921  0.3719  0.1812
 5389SOL    HW126097   4.719   5.729   6.793 -0.0722  0.4197  0.8651
 5389SOL    HW226098   4.692   5.860   6.863 -1.1740  0.8781 -0.3556
 5390SOL     OW26099   8.281  12.103   8.608 -0.2868  0.3417  0.1528
 5390SOL    HW126100   8.371  12.097   8.642 -0.2628 -0.2245  0.0036
 5390SOL    HW226101   8.233  12.037   8.658 -0.5284  0.3643 -0.0522
 5391SOL     OW26102   4.118   7.955  10.828  0.2131 -0.2471  0.3925
 5391SOL    HW126103   4.103   7.898  10.753 -0.9768  0.7635 -0.1715
 5391SOL    HW226104   4.210   7.980  10.820  0.3287 -0.8312 -0.2359
 5392SOL     OW26105   2.369  13.009   7.112  0.4878 -0.3667  0.0283
 5392SOL    HW126106   2.354  12.915   7.123 -0.3307 -0.5094 -1.9012
 5392SOL    HW226107   2.287  13.043   7.076  1.1261  0.8976 -0.2915
 5393SOL     OW26108   6.264   7.620   3.878 -0.0390  0.0321  0.2565
 5393SOL    HW126109   6.229   7.618   3.967  0.8682 -2.8898  0.6482
 5393SOL    HW226110   6.192   7.656   3.825 -1.0554  0.6491  1.9587
 5394SOL     OW26111  10.565   9.568  11.653 -0.7257  0.1059 -0.0120
 5394SOL    HW126112  10.513   9.491  11.677 -0.5144  0.3520  1.2888
 5394SOL    HW226113  10.639   9.532  11.603 -1.2232 -0.4080 -0.3930
 5395SOL     OW26114   3.028   9.807  10.544 -0.4274 -0.0267 -0.1156
 5395SOL    HW126115   3.084   9.731  10.534  1.6572  1.4991 -0.5939
 5395SOL    HW226116   3.032   9.829  10.637  0.2030  0.3913 -0.2395
 5396SOL     OW26117   6.766   8.422   7.370  0.5440 -0.0955  0.9847
 5396SOL    HW126118   6.806   8.390   7.289  0.3355  2.6885 -0.3391
 5396SOL    HW226119   6.671   8.417   7.353  0.5036  0.6917  0.9329
 5397SOL     OW26120   9.524   0.557   3.218 -0.1909  0.3348  0.2580
 5397SOL    HW126121   9.564   0.631   3.174  0.5251  0.0457  0.4188
 5397SOL    HW226122   9.588   0.530   3.284  1.4378 -2.9076 -2.3470
 5398SOL     OW26123   7.956   6.056   4.118 -0.4146 -0.1296 -0.6737
 5398SOL    HW126124   7.891   6.115   4.081 -0.3786  0.3326 -0.0082
 5398SOL    HW226125   8.003   6.109   4.183 -2.2623 -1.6066  2.0647
 5399SOL     OW26126   6.768  10.453   8.935 -0.4472  0.0385 -0.1390
 5399SOL    HW126127   6.851  10.501   8.929  0.3641 -1.3157 -0.3827
 5399SOL    HW226128   6.775  10.405   9.018  0.1289 -1.9626 -1.2714
 5400SOL     OW26129  10.620   7.248   2.190 -0.0320  0.1988 -0.2533
 5400SOL    HW126130  10.542   7.193   2.178 -1.2061  1.7984 -0.2657
 5400SOL    HW226131  10.665   7.209   2.266 -0.9649 -0.6196 -0.0936
 5401SOL     OW26132  12.224  10.674   2.871  0.1758  0.4769 -0.5526
 5401SOL    HW126133  12.153  10.737   2.856 -0.0428  0.9264  1.9690
 5401SOL    HW226134  12.178  10.592   2.891  0.4402  0.0850 -1.4809
 5402SOL     OW26135   3.500   6.809  12.198 -0.1766 -0.4354  0.4595
 5402SOL    HW126136   3.593   6.792  12.213 -0.0076  0.8099  0.9446
 5402SOL    HW226137   3.483   6.892  12.244 -1.1126  0.2629 -1.0755
 5403SOL     OW26138   3.719   6.951  11.584 -0.1452 -0.1713 -0.0153
 5403SOL    HW126139   3.766   6.874  11.551 -0.0137 -0.1394  0.0976
 5403SOL    HW226140   3.640   6.955  11.530 -0.5371 -0.8424  0.4900
 5404SOL     OW26141   2.835   8.749   5.709  0.1084  0.0909  0.5639
 5404SOL    HW126142   2.810   8.707   5.791  0.1609 -2.2806 -0.5625
 5404SOL    HW226143   2.752   8.781   5.673  0.0518  0.9019  1.3642
 5405SOL     OW26144   4.795   2.397   2.732 -0.3739  0.6374 -0.3781
 5405SOL    HW126145   4.776   2.475   2.785  0.2931  0.3938  0.2313
 5405SOL    HW226146   4.864   2.352   2.780 -0.2356  0.0537 -1.1175
 5406SOL     OW26147  11.840   0.236   9.824  0.3036 -0.2216  1.1797
 5406SOL    HW126148  11.883   0.308   9.870 -0.8184  1.1104  0.2427
 5406SOL    HW226149  11.907   0.169   9.817  1.8802  1.3050  0.7941
 5407SOL     OW26150   3.824   1.351   4.755  0.4235  0.2626  0.3643
 5407SOL    HW126151   3.737   1.340   4.716 -0.4842  1.6393  1.9190
 5407SOL    HW226152   3.884   1.319   4.688 -1.2562 -0.5109 -0.8369
 5408SOL     OW26153   2.342   2.555   6.660 -0.7745 -0.2351 -0.4448
 5408SOL    HW126154   2.285   2.632   6.656 -1.2029 -0.5548 -4.2410
 5408SOL    HW226155   2.360   2.543   6.753 -2.7242  2.9299  0.4868
 5409SOL     OW26156   1.641   8.422  13.285  0.0740 -0.2975  0.0309
 5409SOL    HW126157   1.655   8.445  13.377  1.4101 -1.3970  0.1243
 5409SOL    HW226158   1.722   8.448  13.241 -0.3727 -0.2129 -0.7701
 5410SOL     OW26159   4.656  11.592   3.044  0.3242  0.1339 -0.0591
 5410SOL    HW126160   4.672  11.641   2.964  0.6824 -0.7949 -0.5735
 5410SOL    HW226161   4.644  11.501   3.015  0.7911 -0.2763  0.9551
 5411SOL     OW26162   3.727   5.854   0.211 -0.2614 -0.0255 -0.1723
 5411SOL    HW126163   3.807   5.802   0.210  0.0215  0.3978 -0.0520
 5411SOL    HW226164   3.757   5.944   0.198 -0.8356  0.0029 -1.5549
 5412SOL     OW26165   6.616   8.543   4.573 -0.1480 -0.1740 -0.1781
 5412SOL    HW126166   6.580   8.494   4.647  2.2501  0.3527  1.4423
 5412SOL    HW226167   6.555   8.526   4.501 -1.6491 -2.1023  1.4411
 5413SOL     OW26168   0.537   3.666  12.922  0.1448  0.2132 -0.5380
 5413SOL    HW126169   0.544   3.741  12.864  0.8834  0.3434 -0.2881
 5413SOL    HW226170   0.568   3.698  13.007  2.4350 -0.8883 -0.8966
 5414SOL     OW26171   1.838   1.611   5.574  0.4038 -0.6870 -0.0446
 5414SOL    HW126172   1.794   1.527   5.563 -1.0089  0.1298 -0.9586
 5414SOL    HW226173   1.804   1.645   5.657  1.0122 -1.0226  0.3499
 5415SOL     OW26174   0.658   4.194   4.526  0.5209  0.5666 -0.0710
 5415SOL    HW126175   0.703   4.243   4.595 -1.5364  1.7743  0.5054
 5415SOL    HW226176   0.570   4.231   4.524 -0.2959 -1.2776 -1.5398
 5416SOL     OW26177   9.722  12.813   8.295  0.2201 -0.2487  0.0080
 5416SOL    HW126178   9.810  12.850   8.304  0.1259  0.2191 -0.8532
 5416SOL    HW226179   9.702  12.778   8.381  1.2969 -0.4593  0.1886
 5417SOL     OW26180   6.974   3.550  10.634 -0.2789  0.7314  0.8052
 5417SOL    HW126181   6.885   3.547  10.599 -0.3327  0.6937  0.9433
 5417SOL    HW226182   7.029   3.528  10.560 -0.4400 -0.0262  0.9016
 5418SOL     OW26183  11.775   5.342   9.103 -0.4833 -0.3827 -0.1963
 5418SOL    HW126184  11.786   5.251   9.129 -1.0620 -0.3725  0.1150
 5418SOL    HW226185  11.821   5.393   9.170  0.6107 -0.4709 -0.8570
 5419SOL     OW26186   4.675  10.112   5.692  0.2790  0.1697  1.2059
 5419SOL    HW126187   4.675  10.167   5.614 -1.5750  0.0751  1.0930
 5419SOL    HW226188   4.704  10.027   5.661 -1.7633 -0.2450  0.2746
 5420SOL     OW26189  10.740   4.902   0.287  0.4293  0.0070  0.0479
 5420SOL    HW126190  10.666   4.851   0.253  0.7461 -0.6897  0.3769
 5420SOL    HW226191  10.751   4.871   0.377  0.8798  0.3802  0.1239
 5421SOL     OW26192   8.681  13.256   0.343  0.1592  0.6817 -1.0312
 5421SOL    HW126193   8.664  13.300   0.260  1.3499  1.1364 -1.0590
 5421SOL    HW226194   8.695  13.164   0.319 -0.9023  0.5436 -1.1495
 5422SOL     OW26195  10.671   7.759   8.085 -0.2369  0.3200 -0.1586
 5422SOL    HW126196  10.630   7.714   8.012 -1.5434 -2.2255  1.9576
 5422SOL    HW226197  10.734   7.819   8.045 -0.6961 -1.1208 -3.2837
 5423SOL     OW26198   2.419   9.628   6.026  0.2866  0.5694  0.2611
 5423SOL    HW126199   2.405   9.533   6.035  1.2242  0.3506 -0.3586
 5423SOL    HW226200   2.334   9.667   6.045 -0.1206 -0.4038  0.5002
 5424SOL     OW26201   0.993  13.159   8.751  0.6040 -0.7624 -0.0637
 5424SOL    HW126202   1.071  13.186   8.800 -0.8219 -1.5050  2.7859
 5424SOL    HW226203   0.927  13.225   8.773 -0.5446 -2.0104  0.3055
 5425SOL     OW26204  12.804   9.157   4.157 -0.1142 -0.4717  0.0055
 5425SOL    HW126205  12.800   9.201   4.072 -2.3166  0.0330  0.3138
 5425SOL    HW226206  12.798   9.064   4.135 -0.8083 -0.3405 -0.4096
 5426SOL     OW26207   7.230   9.531   1.205 -0.4349 -0.2362 -0.0602
 5426SOL    HW126208   7.185   9.481   1.274 -0.5473 -1.5002 -1.0051
 5426SOL    HW226209   7.182   9.613   1.199 -1.5722 -0.8627  0.1311
 5427SOL     OW26210   2.246   6.093   1.172 -0.1247  0.0530  0.1262
 5427SOL    HW126211   2.317   6.155   1.189  0.7458 -1.3659  2.0644
 5427SOL    HW226212   2.191   6.097   1.251  0.1844 -1.8943  0.4843
 5428SOL     OW26213   8.791   1.357   4.914  0.7273 -0.1262 -0.3302
 5428SOL    HW126214   8.839   1.439   4.927  0.0527  0.3011 -0.4624
 5428SOL    HW226215   8.814   1.303   4.990 -0.7585  1.1531  1.1116
 5429SOL     OW26216   4.758   7.197   0.250  0.0017  0.0552 -0.1622
 5429SOL    HW126217   4.699   7.122   0.247  0.8714 -0.6889  1.0498
 5429SOL    HW226218   4.715   7.259   0.310 -1.2857  1.0916 -2.0142
 5430SOL     OW26219   1.183   4.475   0.724 -0.6899 -0.1858  0.2101
 5430SOL    HW126220   1.242   4.454   0.796 -0.9390  1.3040  0.8749
 5430SOL    HW226221   1.100   4.434   0.749 -0.9730  0.8943  1.1488
 5431SOL     OW26222  10.624  10.341  12.330  0.2795 -0.1663 -0.5681
 5431SOL    HW126223  10.717  10.345  12.310  0.2227  0.8615 -0.6937
 5431SOL    HW226224  10.618  10.287  12.409  0.8807 -1.0350 -1.1122
 5432SOL     OW26225  10.657   5.497   2.929  0.8896 -0.0426 -0.3407
 5432SOL    HW126226  10.637   5.572   2.874 -0.2155 -0.2041 -0.1814
 5432SOL    HW226227  10.653   5.421   2.870 -0.8121 -0.2740  0.0356
 5433SOL     OW26228   9.684   1.260  11.378 -0.2443  0.0604 -0.4955
 5433SOL    HW126229   9.767   1.266  11.425  1.6433  0.3187 -3.6189
 5433SOL    HW226230   9.617   1.265  11.447  2.2587 -2.4024  2.3978
 5434SOL     OW26231   1.469   5.728  10.191  0.1454  0.1436  0.1353
 5434SOL    HW126232   1.381   5.748  10.225 -0.4161 -2.2113  0.2652
 5434SOL    HW226233   1.455   5.714  10.097  0.4199  0.0724  0.1053
 5435SOL     OW26234   0.108  11.721   7.081  0.1346 -0.0087  0.2675
 5435SOL    HW126235   0.108  11.636   7.127 -1.1492 -0.0083  0.3028
 5435SOL    HW226236   0.034  11.715   7.021  0.1925  1.0080  0.0897
 5436SOL     OW26237   9.604   4.430  10.357 -0.0186 -0.1190  0.3647
 5436SOL    HW126238   9.620   4.400  10.447  3.2678 -2.7285 -0.8760
 5436SOL    HW226239   9.524   4.384  10.331 -0.5908  0.0867  1.6712
 5437SOL     OW26240   5.644   8.839   0.592 -0.3803 -0.1643 -0.8013
 5437SOL    HW126241   5.721   8.895   0.578 -1.8750  1.9001 -1.2506
 5437SOL    HW226242   5.628   8.842   0.686  0.4026 -1.1021 -0.6192
 5438SOL     OW26243  11.301   8.076   2.963 -0.1221  0.6305  0.3303
 5438SOL    HW126244  11.330   8.002   2.910  0.8290  1.3669 -0.2298
 5438SOL    HW226245  11.369   8.085   3.030 -1.6031 -0.6465  2.0660
 5439SOL     OW26246   0.572   7.510  10.578  0.2552  1.0559 -0.3935
 5439SOL    HW126247   0.605   7.595  10.549  1.4633  0.5619 -0.5008
 5439SOL    HW226248   0.642   7.475  10.634  0.7235 -0.7881 -2.0469
 5440SOL     OW26249   7.516  10.892   1.044  0.3323 -0.4854 -0.3658
 5440SOL    HW126250   7.583  10.881   0.977  0.4003  0.6926 -0.5071
 5440SOL    HW226251   7.541  10.972   1.091 -0.7285 -0.2592 -0.1520
 5441SOL     OW26252   5.494   5.596   1.560  0.1438 -0.2081 -0.6893
 5441SOL    HW126253   5.540   5.513   1.554 -1.4202 -1.2612  0.9612
 5441SOL    HW226254   5.546   5.648   1.621 -0.2093 -0.9440  0.2531
 5442SOL     OW26255   8.503  11.565   0.470  0.1399 -0.0942  0.1106
 5442SOL    HW126256   8.473  11.643   0.423 -0.1478 -0.0340  0.3976
 5442SOL    HW226257   8.444  11.557   0.544  1.8259  1.0190  1.6694
 5443SOL     OW26258  11.041   2.954   3.331 -0.0117 -0.0918  0.0035
 5443SOL    HW126259  11.018   3.042   3.302  3.4529  0.9861  0.0624
 5443SOL    HW226260  11.076   2.966   3.419 -1.5522 -1.9411  0.9544
 5444SOL     OW26261  12.536   0.111   1.254 -0.3364  0.3059 -0.3051
 5444SOL    HW126262  12.530   0.016   1.268 -1.3903  0.2098 -1.2893
 5444SOL    HW226263  12.616   0.136   1.300 -0.5359 -0.8993  0.7796
 5445SOL     OW26264   5.592  12.456  12.573  0.4495 -0.0236  0.2550
 5445SOL    HW126265   5.567  12.469  12.481  2.6066  0.4016 -0.3304
 5445SOL    HW226266   5.600  12.361  12.583  1.4984 -0.0241 -0.4089
 5446SOL     OW26267   8.773  10.547   0.497 -0.2001  0.3750  0.1335
 5446SOL    HW126268   8.763  10.555   0.402  3.1272  0.8315 -0.3006
 5446SOL    HW226269   8.755  10.455   0.515  2.2951 -0.5694 -1.5710
 5447SOL     OW26270   6.427   9.326   3.705 -0.1268  0.1614 -0.1475
 5447SOL    HW126271   6.350   9.270   3.704 -0.7227  0.8086  2.3692
 5447SOL    HW226272   6.404   9.399   3.646 -0.3970 -0.8541 -1.3423
 5448SOL     OW26273   9.499  11.851  10.592  0.3366 -0.3577  0.5169
 5448SOL    HW126274   9.545  11.874  10.673 -0.9987  0.4436  1.0884
 5448SOL    HW226275   9.451  11.931  10.569  1.6790 -0.1362 -1.8002
 5449SOL     OW26276  10.882   5.097   8.206 -0.0401 -0.0841  0.0585
 5449SOL    HW126277  10.964   5.106   8.254 -0.1460 -3.2760  1.0763
 5449SOL    HW226278  10.908   5.078   8.116  0.2721  0.6003 -0.0024
 5450SOL     OW26279   0.671   6.468  10.713  0.1894 -0.7999  0.5544
 5450SOL    HW126280   0.687   6.474  10.619  2.8335 -1.1566  0.8935
 5450SOL    HW226281   0.578   6.488  10.723 -0.1784 -0.7909 -2.1172
 5451SOL     OW26282   3.357   1.623   5.279 -0.0751  0.1475  0.4911
 5451SOL    HW126283   3.307   1.541   5.277  1.3356 -0.7651  1.3285
 5451SOL    HW226284   3.329   1.666   5.360 -0.0483 -0.0052  0.5813
 5452SOL     OW26285   7.936   3.344  11.339  0.4402 -0.3060  0.0863
 5452SOL    HW126286   7.965   3.351  11.248 -0.6170  0.4587 -0.2024
 5452SOL    HW226287   7.909   3.252  11.348  0.8224 -0.4595 -0.2759
 5453SOL     OW26288   0.997   9.089   9.538  0.3269  0.5064 -0.0422
 5453SOL    HW126289   0.960   9.045   9.615 -0.7059 -1.8989 -1.8155
 5453SOL    HW226290   1.074   9.037   9.516  0.1663  0.6999 -1.0921
 5454SOL     OW26291   1.405   4.172   1.645  0.2344  0.3954 -0.4245
 5454SOL    HW126292   1.442   4.150   1.730 -1.6288 -0.4330  0.2361
 5454SOL    HW226293   1.401   4.088   1.598 -0.0193  0.6157 -0.8048
 5455SOL     OW26294   3.645   6.193   2.241 -0.5361  0.5661 -0.0214
 5455SOL    HW126295   3.565   6.246   2.241 -0.8295  0.1348 -0.3352
 5455SOL    HW226296   3.630   6.128   2.172  0.2536  0.7332 -0.3563
 5456SOL     OW26297   5.490  10.504   2.628 -0.2570  0.1023  0.5197
 5456SOL    HW126298   5.558  10.505   2.560  0.7474  0.7981  1.4876
 5456SOL    HW226299   5.408  10.498   2.580  0.4876 -0.8132 -0.6927
 5457SOL     OW26300  13.004  12.145  13.231 -0.9748 -0.1671 -0.0438
 5457SOL    HW126301  13.085  12.196  13.238 -1.3815  0.4863  0.0209
 5457SOL    HW226302  12.994  12.103  13.316 -0.6549 -0.3312 -0.0852
 5458SOL     OW26303   8.234   7.804   4.486  0.2406 -0.1240 -0.5549
 5458SOL    HW126304   8.293   7.876   4.509  1.2934 -0.3574 -2.3217
 5458SOL    HW226305   8.290   7.726   4.491 -0.6579 -0.7286  0.4442
 5459SOL     OW26306   0.827   0.382   5.694  0.1047  0.2347 -0.6423
 5459SOL    HW126307   0.912   0.389   5.652  1.8295 -1.4066  2.2930
 5459SOL    HW226308   0.804   0.289   5.688 -1.4759  0.6160 -1.2436
 5460SOL     OW26309   4.691   6.662   0.260 -0.0855  0.5649  0.5232
 5460SOL    HW126310   4.719   6.596   0.197  0.2912 -0.0891  1.3546
 5460SOL    HW226311   4.596   6.652   0.264 -0.4964  2.4852 -1.9704
 5461SOL     OW26312   3.315   6.624   9.928  0.0293 -0.1258 -0.1449
 5461SOL    HW126313   3.295   6.712   9.958  0.0961 -0.8254  2.1232
 5461SOL    HW226314   3.264   6.613   9.847  0.3488  2.0926 -0.7018
 5462SOL     OW26315   8.583  11.939   5.751 -0.0060  0.1084 -0.0076
 5462SOL    HW126316   8.500  11.892   5.741 -0.9871  1.3488  1.7628
 5462SOL    HW226317   8.573  11.988   5.832  2.5010  0.2775  0.2639
 5463SOL     OW26318   9.204   0.626   7.286  0.5238  0.1779 -0.2095
 5463SOL    HW126319   9.288   0.637   7.243  0.5776 -0.4594 -0.2736
 5463SOL    HW226320   9.226   0.595   7.374  0.3635  0.1900 -0.1647
 5464SOL     OW26321   9.671   1.370  10.011 -0.0220  0.3248 -0.1605
 5464SOL    HW126322   9.613   1.327  10.074  0.6252  1.0235  0.9753
 5464SOL    HW226323   9.615   1.430   9.963 -0.1071  1.9703  1.8258
 5465SOL     OW26324   0.072   2.397  11.300  0.7138  0.0685 -0.0305
 5465SOL    HW126325   0.111   2.355  11.223 -0.1019 -1.2321  0.2411
 5465SOL    HW226326   0.121   2.363  11.374 -0.9637 -1.7538  0.3365
 5466SOL     OW26327  12.291   9.445   0.140  0.1060 -0.0999  0.9636
 5466SOL    HW126328  12.328   9.398   0.065  2.1282  0.3974  1.5601
 5466SOL    HW226329  12.319   9.393   0.216 -0.3339  0.3757  1.4563
 5467SOL     OW26330   9.212   8.763   5.484  0.1009  0.2002 -0.1501
 5467SOL    HW126331   9.238   8.692   5.543 -2.0412 -1.3303 -0.9261
 5467SOL    HW226332   9.287   8.823   5.485  1.6834 -1.6490  1.1572
 5468SOL     OW26333  11.624   4.046  11.723  0.5771 -0.8273 -0.5119
 5468SOL    HW126334  11.695   4.059  11.660 -1.2301 -0.8401 -2.6860
 5468SOL    HW226335  11.615   3.950  11.729 -0.5176 -0.8399 -1.8406
 5469SOL     OW26336   7.285  12.323   4.771  0.0806 -0.2302 -0.3238
 5469SOL    HW126337   7.208  12.317   4.715  0.0722  0.5967 -0.4120
 5469SOL    HW226338   7.285  12.413   4.803  0.6590 -0.4005  0.1869
 5470SOL     OW26339   1.755   3.147   6.846 -0.4166  0.1428 -0.2338
 5470SOL    HW126340   1.808   3.098   6.784  0.5797  0.0253  0.6797
 5470SOL    HW226341   1.733   3.082   6.914 -0.7203  0.4879 -0.0012
 5471SOL     OW26342   0.855   4.931   1.563  0.1260  0.3593 -0.1895
 5471SOL    HW126343   0.862   4.844   1.523  1.0060 -0.0953  0.9125
 5471SOL    HW226344   0.914   4.928   1.638  1.7255  2.5630 -1.2493
 5472SOL     OW26345   7.051  12.638   3.413 -0.8202  0.2266 -0.0315
 5472SOL    HW126346   7.098  12.721   3.404 -0.0794 -0.2603 -0.8882
 5472SOL    HW226347   6.961  12.658   3.387 -0.3652  0.5014 -1.4686
 5473SOL     OW26348   8.632   0.021   9.030  0.3216  0.1545 -0.1075
 5473SOL    HW126349   8.674  -0.042   9.088  1.0706 -0.3827 -1.1864
 5473SOL    HW226350   8.702   0.051   8.973 -0.1513  1.5538  0.0146
 5474SOL     OW26351   6.676  11.508   9.608  0.4991 -0.3103  0.1120
 5474SOL    HW126352   6.644  11.434   9.557 -0.2327  0.3714 -0.4445
 5474SOL    HW226353   6.601  11.566   9.616  1.1024  0.4552  0.3845
 5475SOL     OW26354   7.611   5.924   4.396  0.2407  0.2367 -0.1126
 5475SOL    HW126355   7.517   5.905   4.387  0.5233 -1.2175 -0.2021
 5475SOL    HW226356   7.618   6.017   4.371 -1.1340  0.3197 -0.3245
 5476SOL     OW26357   5.629   0.769  11.391  0.1359  0.0151 -0.4841
 5476SOL    HW126358   5.578   0.729  11.320  0.6624 -0.0455 -0.8366
 5476SOL    HW226359   5.700   0.707  11.407 -0.1873 -0.1535  0.3595
 5477SOL     OW26360  11.027   0.051  11.489 -0.5313 -0.5375  0.4774
 5477SOL    HW126361  11.049  -0.015  11.424  1.2063  0.7866 -0.3462
 5477SOL    HW226362  10.952   0.098  11.451  0.5704  0.3338 -0.7096
 5478SOL     OW26363   9.138  11.864   3.489  0.0678 -0.3115  0.3164
 5478SOL    HW126364   9.181  11.949   3.488  0.1226 -0.3351  0.5000
 5478SOL    HW226365   9.162  11.823   3.406  1.1282 -0.6783  0.7769
 5479SOL     OW26366  11.353  13.096   8.183 -0.3138  0.5231 -0.0638
 5479SOL    HW126367  11.447  13.094   8.169 -0.5255 -0.5854 -1.6605
 5479SOL    HW226368  11.317  13.040   8.113 -2.0540 -0.1055  1.2459
 5480SOL     OW26369   3.589   7.804   0.196 -0.1442 -0.2095  0.7113
 5480SOL    HW126370   3.661   7.789   0.257 -0.0567  1.7521  1.1594
 5480SOL    HW226371   3.520   7.844   0.249 -0.7183 -0.0433 -0.1403
 5481SOL     OW26372   1.812   9.439   0.880  0.1942  0.4397 -0.1521
 5481SOL    HW126373   1.817   9.535   0.879  0.2298  0.4826  1.3727
 5481SOL    HW226374   1.860   9.412   0.802 -1.5950  1.6983 -1.8108
 5482SOL     OW26375   5.217   3.322   6.290  0.0770 -0.6731 -0.0588
 5482SOL    HW126376   5.214   3.339   6.196  0.2826  1.0266  0.2043
 5482SOL    HW226377   5.186   3.404   6.330  1.3383 -0.8474  1.3745
 5483SOL     OW26378  12.472   9.085   0.026  0.0976  0.1204  0.1293
 5483SOL    HW126379  12.388   9.124   0.001 -0.3858 -0.1250  1.3082
 5483SOL    HW226380  12.457   8.991   0.019  0.0633  0.0583  0.9473
 5484SOL     OW26381   3.492   7.917   1.853 -0.6402 -0.1366 -0.3555
 5484SOL    HW126382   3.584   7.907   1.829  0.0355 -0.2474  1.9949
 5484SOL    HW226383   3.453   7.832   1.834  0.5466 -1.1796  1.5768
 5485SOL     OW26384   5.329   3.939   7.861 -0.3680 -0.5939  0.1591
 5485SOL    HW126385   5.250   3.890   7.840 -1.4005  0.4815  1.3247
 5485SOL    HW226386   5.314   4.026   7.824 -0.4299  0.0758  1.6792
 5486SOL     OW26387   6.688  12.476  11.817 -0.2807 -0.2681  0.5383
 5486SOL    HW126388   6.694  12.450  11.725 -1.3210  0.6404  0.1832
 5486SOL    HW226389   6.759  12.429  11.860  2.2802  1.7168 -1.2560
 5487SOL     OW26390   5.939   0.562   9.176 -0.0292  0.1668  0.7786
 5487SOL    HW126391   5.846   0.573   9.192 -0.4092 -1.8386  0.2669
 5487SOL    HW226392   5.963   0.484   9.226  1.8591  1.7090  2.4680
 5488SOL     OW26393   7.995  13.011   9.917  0.0029  0.1397 -0.2307
 5488SOL    HW126394   8.063  13.042   9.856  0.3256 -0.7139 -0.3183
 5488SOL    HW226395   8.043  12.991   9.997 -0.1791 -0.2819 -0.2292
 5489SOL     OW26396   4.476   9.206  11.022 -0.0830  0.4645  0.9466
 5489SOL    HW126397   4.411   9.214  10.953 -0.9114 -0.0025  1.6519
 5489SOL    HW226398   4.426   9.214  11.103  0.8541  0.9013  1.4969
 5490SOL     OW26399   7.321  12.621   3.105  0.0358 -0.7615  0.0309
 5490SOL    HW126400   7.312  12.695   3.046 -0.6883 -0.3947  0.5850
 5490SOL    HW226401   7.231  12.597   3.129  0.2550 -1.8137 -0.1329
 5491SOL     OW26402   9.978  11.077   7.200  0.1563  0.1152  0.3467
 5491SOL    HW126403   9.900  11.129   7.220 -0.6662 -1.4362  1.3635
 5491SOL    HW226404   9.958  11.033   7.118 -0.0253 -0.2425  0.5811
 5492SOL     OW26405   0.889  12.126   4.949 -0.4055 -0.3802 -0.3557
 5492SOL    HW126406   0.815  12.068   4.928 -1.9269  0.4543  2.2607
 5492SOL    HW226407   0.951  12.069   4.995 -0.0872 -0.7386 -1.2007
 5493SOL     OW26408   9.846   2.243   5.473  0.4216  0.0911 -0.7257
 5493SOL    HW126409   9.810   2.277   5.555 -0.1509 -0.0313 -0.9168
 5493SOL    HW226410   9.806   2.156   5.464  1.6302 -0.5237 -0.3955
 5494SOL     OW26411  11.049   6.875   4.218 -0.3302 -0.3305 -0.7152
 5494SOL    HW126412  11.141   6.902   4.214 -0.6086  0.8024  0.0071
 5494SOL    HW226413  11.045   6.797   4.163  1.0237 -0.2946 -0.9119
 5495SOL     OW26414   5.098  10.398   6.183  0.2572  0.5286 -0.0264
 5495SOL    HW126415   5.077  10.323   6.128  0.2233  1.8801 -1.9190
 5495SOL    HW226416   5.094  10.474   6.125 -2.5281  2.4385  2.3843
 5496SOL     OW26417   2.483   3.651  10.178  0.2003  0.5365 -0.4654
 5496SOL    HW126418   2.535   3.578  10.214 -0.2338  0.0856 -0.7378
 5496SOL    HW226419   2.442   3.691  10.255 -0.8069 -0.4880 -0.4484
 5497SOL     OW26420   5.909   1.648   1.326  0.2335 -0.2447  0.1647
 5497SOL    HW126421   5.989   1.611   1.288  0.3236 -0.1857  0.2985
 5497SOL    HW226422   5.839   1.616   1.269  0.3524 -0.2950  0.0463
 5498SOL     OW26423   4.595  13.048   6.835  0.1337  0.0370  0.1962
 5498SOL    HW126424   4.599  13.118   6.900  1.3608 -0.1467  0.3443
 5498SOL    HW226425   4.641  13.084   6.759  1.2690 -0.7785  0.4697
 5499SOL     OW26426   0.689  11.142   8.175 -0.0028 -0.7561 -0.2505
 5499SOL    HW126427   0.707  11.111   8.086 -0.8827  0.2398 -0.8079
 5499SOL    HW226428   0.685  11.062   8.228 -0.5761 -1.4679 -1.3230
 5500SOL     OW26429   6.521   4.842  11.881  0.5053  0.4404  0.2695
 5500SOL    HW126430   6.483   4.761  11.846 -2.6853  1.0099  2.0020
 5500SOL    HW226431   6.475   4.911  11.835  1.3823  1.2580  0.5971
 5501SOL     OW26432   3.124   2.283   1.154  0.2042  0.0996  0.2598
 5501SOL    HW126433   3.094   2.214   1.095  0.8532 -0.2849  0.3671
 5501SOL    HW226434   3.082   2.263   1.237  0.5153 -0.2622  0.3324
 5502SOL     OW26435   7.953   1.063  12.459 -0.0820  0.1610  0.2727
 5502SOL    HW126436   7.862   1.037  12.452 -0.2980  0.4584  1.7488
 5502SOL    HW226437   8.002   0.992  12.416 -1.0430  0.6140 -1.6748
 5503SOL     OW26438  12.599   9.902  11.299  0.3496  0.0048  0.1634
 5503SOL    HW126439  12.552   9.914  11.217 -0.5753 -0.5020  0.6026
 5503SOL    HW226440  12.536   9.858  11.357  1.6221 -1.5139  0.4913
 5504SOL     OW26441   3.598   1.890   4.646  0.0622  0.1935  0.7014
 5504SOL    HW126442   3.589   1.856   4.735 -0.6370  2.8666  1.7445
 5504SOL    HW226443   3.509   1.916   4.622  0.3221 -0.1214 -0.6445
 5505SOL     OW26444   7.532  11.568  10.934 -0.2282 -0.3599  0.0878
 5505SOL    HW126445   7.504  11.490  10.886 -1.1372 -0.8342  1.3428
 5505SOL    HW226446   7.581  11.620  10.869  0.9874 -2.2562 -0.5937
 5506SOL     OW26447   2.207  13.039   9.574  0.1267 -0.2632 -0.2340
 5506SOL    HW126448   2.137  13.099   9.547  0.3343 -0.5720 -1.5656
 5506SOL    HW226449   2.270  13.095   9.620 -0.7138  0.1197  0.4707
 5507SOL     OW26450  11.469  11.659   4.977  0.6784  0.2633  0.2883
 5507SOL    HW126451  11.410  11.721   5.020  1.2231  2.3260 -1.7090
 5507SOL    HW226452  11.428  11.641   4.892  1.3666 -0.7999  0.1623
 5508SOL     OW26453   6.690  11.063   2.146  0.4551 -0.0101  0.2362
 5508SOL    HW126454   6.659  11.037   2.233 -0.9317  1.0549  0.1137
 5508SOL    HW226455   6.652  10.998   2.087 -0.2964  0.4054  0.2462
 5509SOL     OW26456   3.301   9.688   6.176 -0.1822 -0.1533 -0.4127
 5509SOL    HW126457   3.234   9.743   6.135 -0.3673  0.8305  1.1518
 5509SOL    HW226458   3.252   9.632   6.236  0.1924 -0.8593 -0.7568
 5510SOL     OW26459   2.854   1.298   3.023  0.4206  0.4984  0.6497
 5510SOL    HW126460   2.899   1.278   2.941  0.6273 -0.6025  1.0169
 5510SOL    HW226461   2.833   1.212   3.060  1.1516  0.9567  2.1980
 5511SOL     OW26462   6.018   6.278   5.919  0.0696 -0.2020  0.3485
 5511SOL    HW126463   5.933   6.249   5.950  0.5814 -2.8472 -0.4952
 5511SOL    HW226464   6.009   6.283   5.824  1.1709 -1.8697  0.1123
 5512SOL     OW26465  12.149   8.593   6.772 -0.1189  0.4339  0.3999
 5512SOL    HW126466  12.242   8.587   6.796 -0.5428 -1.7227  1.8308
 5512SOL    HW226467  12.143   8.543   6.690 -0.2501 -0.8010  1.1489
 5513SOL     OW26468  11.678   1.148   7.575 -0.6398  0.3608 -0.0338
 5513SOL    HW126469  11.647   1.133   7.665  0.0512 -0.9688 -0.0007
 5513SOL    HW226470  11.733   1.226   7.582 -0.1035 -0.0763  0.8309
 5514SOL     OW26471  12.046   9.558   2.823 -0.2861 -0.4565 -0.1203
 5514SOL    HW126472  12.128   9.604   2.839  0.6920 -1.9771 -0.4603
 5514SOL    HW226473  12.016   9.530   2.910 -1.6575  1.9564  0.2582
 5515SOL     OW26474   6.055   6.826   0.339  0.1163 -0.1828 -0.2832
 5515SOL    HW126475   6.084   6.781   0.260  1.6690  0.8225 -0.3259
 5515SOL    HW226476   6.103   6.782   0.410 -0.8482 -0.7164  0.0489
 5516SOL     OW26477   7.351   3.084   2.053 -0.3242  1.2916 -0.1505
 5516SOL    HW126478   7.365   3.117   2.142 -2.8334  0.6002  0.5833
 5516SOL    HW226479   7.257   3.067   2.048  0.3269 -3.4231 -1.2296
 5517SOL     OW26480  10.082   4.546   0.262 -0.2695 -0.4855  0.0869
 5517SOL    HW126481  10.012   4.604   0.235 -0.8658 -0.8118  0.8901
 5517SOL    HW226482  10.076   4.544   0.358  1.1522 -0.1300  0.2013
 5518SOL     OW26483   6.394   4.356   4.442 -0.4371 -0.0716 -0.3189
 5518SOL    HW126484   6.414   4.435   4.392 -1.9152 -0.1191 -1.0524
 5518SOL    HW226485   6.400   4.285   4.379  2.1913 -0.7979  0.6120
 5519SOL     OW26486   0.286  11.547   3.910 -0.1006  0.1832 -0.0579
 5519SOL    HW126487   0.290  11.566   4.004  0.3881 -1.5467  0.3167
 5519SOL    HW226488   0.198  11.513   3.897 -1.9130  4.6749 -1.2122
 5520SOL     OW26489   1.660   4.761   0.179 -0.4138  0.6487  0.0961
 5520SOL    HW126490   1.595   4.708   0.133 -0.5178  0.5370  0.3677
 5520SOL    HW226491   1.730   4.699   0.201  0.1721  0.9347 -0.9186
 5521SOL     OW26492   6.980  12.169   3.994  0.0520 -0.4052  0.6289
 5521SOL    HW126493   6.929  12.223   4.054 -0.8251  0.3857 -0.7547
 5521SOL    HW226494   7.068  12.207   3.996 -0.7697  1.7954 -1.0364
 5522SOL     OW26495  10.511   8.691   7.144  0.4437 -0.1357 -0.1865
 5522SOL    HW126496  10.442   8.740   7.188  0.7899  0.8286 -0.6848
 5522SOL    HW226497  10.555   8.644   7.215 -0.8425 -0.9417  0.1099
 5523SOL     OW26498   5.933  13.214   7.164  0.0745  0.3073  0.0226
 5523SOL    HW126499   5.988  13.203   7.241  0.4197  2.4533  0.1486
 5523SOL    HW226500   5.846  13.230   7.199  0.5385  3.0386  0.1212
 5524SOL     OW26501   1.491   2.264   3.391  0.1995  0.4346  0.4274
 5524SOL    HW126502   1.553   2.199   3.360 -1.7253 -1.4922  0.3705
 5524SOL    HW226503   1.450   2.299   3.311  1.5719  2.1922  0.4194
 5525SOL     OW26504   9.691   0.063   6.214 -0.1776 -0.1450  0.5685
 5525SOL    HW126505   9.705   0.024   6.300 -1.8256  0.5520  1.1864
 5525SOL    HW226506   9.649  -0.006   6.163  1.0424 -0.6507  0.1901
 5526SOL     OW26507  10.502   4.369   8.165 -0.3029  0.5863  0.1847
 5526SOL    HW126508  10.534   4.346   8.077  0.1555 -0.5292  0.6233
 5526SOL    HW226509  10.428   4.309   8.180 -0.4434  0.8406  0.5194
 5527SOL     OW26510   5.970   3.532   1.775  0.1989 -0.2637  0.6115
 5527SOL    HW126511   5.896   3.500   1.827 -1.1234  0.5695 -0.6797
 5527SOL    HW226512   5.972   3.473   1.699  1.4864 -0.8565  1.0711
 5528SOL     OW26513   7.287   1.013   2.877  0.1704  0.0931  0.1507
 5528SOL    HW126514   7.195   1.003   2.856  0.5414  0.8229 -2.0374
 5528SOL    HW226515   7.288   1.066   2.957 -1.2906 -1.1172  1.0121
 5529SOL     OW26516   8.405  10.492  11.458  0.1339 -0.0411 -0.0108
 5529SOL    HW126517   8.377  10.408  11.495 -2.5286  0.5161 -0.5411
 5529SOL    HW226518   8.445  10.470  11.374 -3.4002 -0.7591 -1.7234
 5530SOL     OW26519  13.125  10.489   4.152  0.3888 -0.3819  0.1655
 5530SOL    HW126520  13.051  10.473   4.094  1.6445 -1.4081 -1.2295
 5530SOL    HW226521  13.129  10.585   4.160 -3.5176 -0.2208  3.6467
 5531SOL     OW26522   9.389   6.612   7.518  0.2614  0.6763 -0.5772
 5531SOL    HW126523   9.396   6.694   7.469 -0.4029  0.1614 -1.5656
 5531SOL    HW226524   9.424   6.545   7.459 -0.5252  0.0501 -0.3545
 5532SOL     OW26525   6.644   5.566   0.905  0.6768 -0.0747  0.6417
 5532SOL    HW126526   6.608   5.485   0.868 -1.9710 -0.3776  3.3735
 5532SOL    HW226527   6.728   5.540   0.943  1.5083 -0.6426 -1.4473
 5533SOL     OW26528   1.489   0.717   3.771 -0.1390  0.2538 -0.3599
 5533SOL    HW126529   1.395   0.728   3.759 -0.4857 -0.2734  1.5646
 5533SOL    HW226530   1.528   0.794   3.730 -1.3178  0.0909 -1.8984
 5534SOL     OW26531   4.833  11.808   6.070 -0.0495  0.1103 -0.3149
 5534SOL    HW126532   4.897  11.878   6.083  0.1588 -0.1714  0.2117
 5534SOL    HW226533   4.848  11.748   6.143 -1.0183  0.1221 -0.0922
 5535SOL     OW26534   6.962  11.700   5.574 -0.2296  0.4795  0.4133
 5535SOL    HW126535   7.017  11.718   5.498  1.4564 -0.6731  1.2837
 5535SOL    HW226536   6.914  11.621   5.551 -0.3850  0.6371  0.2034
 5536SOL     OW26537   6.967   7.740   4.001  0.3576 -0.3573  0.2298
 5536SOL    HW126538   6.932   7.789   3.926  0.7938 -0.5375 -0.0990
 5536SOL    HW226539   6.922   7.655   3.997  0.0796 -0.2218  0.4180
 5537SOL     OW26540  13.167  11.207   9.396 -0.6353 -0.0018  0.0276
 5537SOL    HW126541  13.138  11.116   9.382 -2.0005  0.4896 -0.5183
 5537SOL    HW226542  13.158  11.248   9.310 -0.2813  0.7247  0.3301
 5538SOL     OW26543   2.993  10.249   9.477 -0.8611 -0.2278 -0.1191
 5538SOL    HW126544   3.046  10.319   9.439 -0.6375 -0.0417  0.5255
 5538SOL    HW226545   2.957  10.286   9.557 -0.1089 -1.0907  0.6447
 5539SOL     OW26546   0.063   7.726   5.486 -0.2164 -0.5548 -0.1991
 5539SOL    HW126547   0.031   7.799   5.538 -0.6280  0.0304 -1.2539
 5539SOL    HW226548   0.157   7.725   5.501 -0.0878  0.7008 -0.7738
 5540SOL     OW26549   8.891   0.531  10.935  0.0703  0.1533 -0.1803
 5540SOL    HW126550   8.845   0.463  10.983 -0.2188 -0.0589 -0.7504
 5540SOL    HW226551   8.884   0.609  10.990 -0.9499  0.1153 -0.2461
 5541SOL     OW26552  10.914  10.314   1.515 -0.8921 -0.1879  0.3095
 5541SOL    HW126553  10.853  10.296   1.443 -0.6454 -0.5885  0.1937
 5541SOL    HW226554  10.944  10.227   1.543 -0.7157 -0.0173  0.6608
 5542SOL     OW26555   3.247   4.539  10.669 -0.2858 -0.0258  0.0244
 5542SOL    HW126556   3.303   4.599  10.719  0.6565 -0.4894 -0.4400
 5542SOL    HW226557   3.248   4.457  10.720 -0.1510 -0.1788 -0.2196
 5543SOL     OW26558   0.992   8.082   9.408  0.6426  0.6553  0.0759
 5543SOL    HW126559   0.912   8.077   9.355  2.4166  2.2044 -3.1002
 5543SOL    HW226560   0.970   8.140   9.480 -1.4445 -0.1214  0.1463
 5544SOL     OW26561   3.087   9.678   5.511 -0.0980  0.5806 -0.2473
 5544SOL    HW126562   3.136   9.682   5.428  0.7537  0.2704  0.2242
 5544SOL    HW226563   3.117   9.755   5.560  3.0146 -1.6402  1.6746
 5545SOL     OW26564   9.062   5.930   2.710 -0.1278 -0.2325 -0.6357
 5545SOL    HW126565   9.089   5.989   2.781  1.0135  1.0008 -2.0366
 5545SOL    HW226566   8.984   5.886   2.744 -0.3379  1.2337  0.9065
 5546SOL     OW26567   7.632   7.701   5.141  0.1171  0.6659  0.6189
 5546SOL    HW126568   7.673   7.624   5.181  1.5439  0.8362 -0.4101
 5546SOL    HW226569   7.540   7.695   5.165  0.3398 -0.9459  1.2040
 5547SOL     OW26570  10.755   0.016   1.788 -0.7688 -0.1824  0.0403
 5547SOL    HW126571  10.706   0.089   1.827 -2.2137  0.0165 -1.9622
 5547SOL    HW226572  10.810   0.058   1.722 -1.0094 -0.8151 -0.5708
 5548SOL     OW26573   8.496   3.513   5.765  0.7156  0.4142 -1.0309
 5548SOL    HW126574   8.478   3.607   5.761  1.4057  0.5857 -0.3104
 5548SOL    HW226575   8.410   3.471   5.758  0.1833  1.1613  0.6055
 5549SOL     OW26576   0.134  13.180  13.120 -0.2855  0.1715 -0.2625
 5549SOL    HW126577   0.167  13.146  13.203 -1.4022 -1.8582 -0.5679
 5549SOL    HW226578   0.099  13.266  13.141  2.1608  1.0328  0.7051
 5550SOL     OW26579  11.795  10.179   5.720  0.2897  0.0376  0.0652
 5550SOL    HW126580  11.779  10.095   5.677  1.2469  1.1453 -2.7100
 5550SOL    HW226581  11.863  10.160   5.785  1.2441 -1.2097 -1.2220
 5551SOL     OW26582   9.168   6.115  10.399 -0.2549 -0.6199  0.1860
 5551SOL    HW126583   9.237   6.092  10.336  1.4092  1.4660  1.1332
 5551SOL    HW226584   9.124   6.191  10.360  0.4336  0.3514  1.2555
 5552SOL     OW26585   0.781   0.060   7.907  0.6612  0.4551 -0.5452
 5552SOL    HW126586   0.754  -0.029   7.931  1.1280  1.0583  2.7503
 5552SOL    HW226587   0.704   0.099   7.867 -0.7744 -0.4064  1.2055
 5553SOL     OW26588   9.463   3.722   9.002 -0.2106  0.6936 -0.1605
 5553SOL    HW126589   9.548   3.705   9.043 -0.3413 -0.1281 -0.2219
 5553SOL    HW226590   9.477   3.802   8.951  1.5547 -1.2291 -3.0113
 5554SOL     OW26591   0.083   3.596   3.214  0.0387  0.7572 -0.3515
 5554SOL    HW126592   0.080   3.691   3.225  0.4253  0.6342  1.1199
 5554SOL    HW226593   0.063   3.562   3.301 -0.5727 -0.5239 -0.9719
 5555SOL     OW26594   2.426   9.677   9.354  0.4992 -0.9943  0.1343
 5555SOL    HW126595   2.353   9.634   9.308  0.8713 -0.7980 -0.6485
 5555SOL    HW226596   2.434   9.628   9.436  0.5999 -2.1316 -0.5342
 5556SOL     OW26597   0.357   4.777   9.864 -0.5852  0.3480 -0.0567
 5556SOL    HW126598   0.400   4.861   9.880 -0.1500  0.0761  0.2069
 5556SOL    HW226599   0.280   4.800   9.811 -0.2476  0.8624 -0.3407
 5557SOL     OW26600   8.738   6.894   6.605 -0.7969  0.0772 -0.5863
 5557SOL    HW126601   8.758   6.826   6.540  0.1663  0.5031 -0.7405
 5557SOL    HW226602   8.816   6.900   6.659 -0.0838  2.3626 -1.7364
 5558SOL     OW26603  10.864  12.358   4.262  0.9966 -0.0261  0.1320
 5558SOL    HW126604  10.802  12.424   4.231 -0.0689 -1.7232 -1.5423
 5558SOL    HW226605  10.884  12.385   4.352 -1.2592  1.2272  0.3376
 5559SOL     OW26606  11.793   5.292   4.645 -0.2911 -0.0915 -0.2597
 5559SOL    HW126607  11.700   5.301   4.627 -0.8778 -0.6706  2.0453
 5559SOL    HW226608  11.812   5.199   4.631 -0.7083 -0.5060  1.5548
 5560SOL     OW26609  10.884  11.887   2.839 -0.6369  0.3929 -0.7335
 5560SOL    HW126610  10.833  11.934   2.905 -0.4798 -0.4188 -0.0113
 5560SOL    HW226611  10.933  11.956   2.793 -1.6613  1.0902 -0.8226
 5561SOL     OW26612  12.900   5.553   3.789  0.1589 -0.4965  0.2719
 5561SOL    HW126613  12.941   5.542   3.703  0.2044 -0.3581  0.2767
 5561SOL    HW226614  12.868   5.643   3.790 -0.1975 -0.6210  0.2465
 5562SOL     OW26615   8.813   9.169   4.988 -0.2192  0.4919  0.8299
 5562SOL    HW126616   8.806   9.228   5.064  1.8716 -0.0724  1.5221
 5562SOL    HW226617   8.836   9.084   5.026  0.3332  0.0728 -0.4014
 5563SOL     OW26618   1.838   5.884   6.172  0.0686  0.2768  0.4684
 5563SOL    HW126619   1.823   5.790   6.184  1.0664 -0.0444 -0.6335
 5563SOL    HW226620   1.930   5.890   6.147  0.1556  1.6128  1.0302
 5564SOL     OW26621   8.897   1.863   0.627 -0.5188  0.3895  0.1643
 5564SOL    HW126622   8.830   1.907   0.574 -0.0669  1.1334  0.1907
 5564SOL    HW226623   8.853   1.843   0.709 -1.3619 -1.1973 -0.6430
 5565SOL     OW26624   7.753   1.518   5.293 -0.0060  0.1259 -0.4596
 5565SOL    HW126625   7.657   1.510   5.288  0.1264 -1.0083 -1.4986
 5565SOL    HW226626   7.770   1.537   5.385 -1.3286  1.9416 -0.5333
 5566SOL     OW26627   2.781  10.457  11.221 -0.1560 -0.3249  0.0724
 5566SOL    HW126628   2.748  10.389  11.161  0.6277 -0.1063 -0.6134
 5566SOL    HW226629   2.732  10.536  11.196  0.1307 -0.2470 -0.2454
 5567SOL     OW26630   5.652   1.940  12.143 -0.3177  0.3436  0.0124
 5567SOL    HW126631   5.736   1.977  12.169  1.2725 -1.9511 -1.4476
 5567SOL    HW226632   5.667   1.845  12.139 -2.8774 -0.1295 -0.6825
 5568SOL     OW26633   7.394   3.490   6.368 -1.0352 -0.5501  0.2267
 5568SOL    HW126634   7.418   3.479   6.460  0.8851  1.4702  0.0333
 5568SOL    HW226635   7.382   3.584   6.357  2.0989 -0.2880 -2.2666
 5569SOL     OW26636  11.237   0.841   6.831  0.4469 -0.2541 -0.4197
 5569SOL    HW126637  11.214   0.872   6.918  0.2077 -0.5119 -0.3889
 5569SOL    HW226638  11.304   0.902   6.800  0.5500 -0.1786 -0.0458
 5570SOL     OW26639   2.011  12.780  11.728 -0.5353 -0.7590  0.3382
 5570SOL    HW126640   1.922  12.751  11.750 -0.4652 -0.1246  1.5520
 5570SOL    HW226641   2.002  12.874  11.712 -0.1105 -0.7195  0.3248
 5571SOL     OW26642  12.708  10.612  12.344  0.0965  0.3465  0.2668
 5571SOL    HW126643  12.797  10.630  12.374  0.2556 -0.0786  0.0571
 5571SOL    HW226644  12.711  10.630  12.250 -0.4101  1.7112  0.4894
 5572SOL     OW26645   6.379  10.388   7.126  0.3060 -0.6090  0.0242
 5572SOL    HW126646   6.352  10.410   7.037  1.4644  1.9951  0.2145
 5572SOL    HW226647   6.302  10.349   7.166 -1.6763  2.0276 -0.9087
 5573SOL     OW26648  12.582   9.175  12.465  0.5821  0.2033 -0.0797
 5573SOL    HW126649  12.496   9.135  12.482  1.8616 -1.8373  2.3513
 5573SOL    HW226650  12.562   9.266  12.442 -2.2284 -0.2038  0.3873
 5574SOL     OW26651   0.704  10.646  11.578  0.3397  0.0647  0.1388
 5574SOL    HW126652   0.667  10.693  11.503 -0.2171  1.6134  1.3284
 5574SOL    HW226653   0.775  10.702  11.609  0.3263 -0.3699  0.9946
 5575SOL     OW26654  10.069   6.348   3.413 -0.4081 -0.0501  0.2548
 5575SOL    HW126655  10.157   6.383   3.401 -0.9025  1.7523  1.5196
 5575SOL    HW226656  10.030   6.351   3.325  1.0190 -1.6926 -0.4892
 5576SOL     OW26657  13.193   6.563   0.820  0.1187 -0.0822  0.2703
 5576SOL    HW126658  13.122   6.621   0.847  0.1661  0.6271 -1.0369
 5576SOL    HW226659  13.239   6.611   0.751  1.5516 -0.7508  0.7073
 5577SOL     OW26660  11.064   0.654   6.256 -0.0283  0.1250  0.0314
 5577SOL    HW126661  11.096   0.567   6.278 -0.2500  0.5899  2.4518
 5577SOL    HW226662  11.138   0.712   6.272 -0.9311  0.7802  2.2459
 5578SOL     OW26663   3.250   5.412  11.640 -1.0897 -0.1467 -0.7062
 5578SOL    HW126664   3.266   5.319  11.655 -1.3591  0.1331  1.5885
 5578SOL    HW226665   3.155   5.422  11.651 -0.9770  0.5149 -0.2957
 5579SOL     OW26666   5.478   9.574   7.148 -0.1903 -0.5096 -0.4076
 5579SOL    HW126667   5.526   9.653   7.125  1.1959 -1.2955 -0.3614
 5579SOL    HW226668   5.499   9.559   7.240 -1.7503 -0.0707  0.0532
 5580SOL     OW26669   1.758  12.982   6.956  0.2853  0.1899 -0.4029
 5580SOL    HW126670   1.848  12.984   6.922 -0.2716 -0.1711 -2.0019
 5580SOL    HW226671   1.715  12.914   6.904 -0.7654 -0.0568  0.7549
 5581SOL     OW26672   2.372   8.210   3.305  0.2198  0.1651 -0.6094
 5581SOL    HW126673   2.381   8.263   3.384  0.4404  0.5264 -0.8714
 5581SOL    HW226674   2.329   8.269   3.242  1.7288  0.5158 -1.3495
 5582SOL     OW26675   1.700   5.419   8.785  0.1153  0.0969  0.1056
 5582SOL    HW126676   1.730   5.424   8.876 -1.4986 -0.7755  0.7282
 5582SOL    HW226677   1.618   5.370   8.790 -0.3934  0.7034 -1.7409
 5583SOL     OW26678   8.211   1.646   7.461  0.0048  0.0777 -0.2988
 5583SOL    HW126679   8.299   1.617   7.435 -0.0925 -0.2243 -0.2977
 5583SOL    HW226680   8.195   1.724   7.407  0.2793  0.1428 -0.2881
 5584SOL     OW26681   3.591   0.130   5.111  0.5215 -0.8298  0.1505
 5584SOL    HW126682   3.573   0.220   5.140 -0.0512 -0.4377 -1.3217
 5584SOL    HW226683   3.509   0.083   5.126  0.5398 -0.8831  0.0858
 5585SOL     OW26684   7.108   6.341  11.725  0.3821  0.3925  0.4200
 5585SOL    HW126685   7.131   6.284  11.652 -0.9843  0.7665 -0.3475
 5585SOL    HW226686   7.182   6.335  11.785  1.8354  0.5667 -1.2838
 5586SOL     OW26687   0.960   6.112  11.337  0.3167  0.3372  0.1173
 5586SOL    HW126688   0.978   6.177  11.269  1.8586 -1.2221 -1.0741
 5586SOL    HW226689   0.993   6.151  11.418 -1.2488  2.0975 -0.0228
 5587SOL     OW26690   7.983   2.024   1.863 -0.1121  0.7106 -0.3122
 5587SOL    HW126691   8.006   1.937   1.894 -1.4378  0.4706  0.0786
 5587SOL    HW226692   8.054   2.081   1.894 -0.1509  0.0635  0.9995
 5588SOL     OW26693   0.670   9.321   7.267  0.0182 -0.7596 -0.1030
 5588SOL    HW126694   0.723   9.260   7.319  0.7809 -0.3431 -0.3686
 5588SOL    HW226695   0.624   9.374   7.332 -1.2265 -2.0840  0.1311
 5589SOL     OW26696  11.698   2.887   9.816 -0.3539  0.4446  0.2053
 5589SOL    HW126697  11.643   2.836   9.756  0.0545 -1.3380  1.2830
 5589SOL    HW226698  11.700   2.975   9.778  0.6910 -0.8285 -2.9259
 5590SOL     OW26699   9.083  10.002   1.758 -0.8157  0.1799  0.1427
 5590SOL    HW126700   9.147  10.062   1.797  0.4214 -0.6123 -0.5888
 5590SOL    HW226701   9.131   9.960   1.686 -1.1573 -2.6400  1.4194
 5591SOL     OW26702   4.056   3.756   4.728 -0.4461 -0.6522 -0.4120
 5591SOL    HW126703   4.013   3.804   4.657  0.9743 -0.2600 -1.0246
 5591SOL    HW226704   4.016   3.669   4.724 -1.8406 -0.0503 -0.3577
 5592SOL     OW26705  12.130  10.792   9.669 -0.0968 -0.6814 -0.4430
 5592SOL    HW126706  12.205  10.735   9.688 -0.6107 -1.3834 -0.4784
 5592SOL    HW226707  12.140  10.865   9.730  1.3056 -0.1110 -1.3106
 5593SOL     OW26708   1.500  10.527   8.566  0.1321 -0.1567  0.5538
 5593SOL    HW126709   1.569  10.536   8.500 -0.4118  1.1349  0.1225
 5593SOL    HW226710   1.545  10.493   8.643  1.0248 -0.4578 -0.0802
 5594SOL     OW26711  11.400   2.886   8.103  0.9192  0.2743 -0.0057
 5594SOL    HW126712  11.343   2.865   8.029  0.3849 -1.4625  0.8212
 5594SOL    HW226713  11.359   2.961   8.145 -1.4029 -1.5006  1.1160
 5595SOL     OW26714   7.576   4.919   6.636  0.7940 -0.1267  0.2249
 5595SOL    HW126715   7.590   4.996   6.582  0.8345  1.1954  2.0286
 5595SOL    HW226716   7.481   4.903   6.631  0.6901  0.4411  0.3544
 5596SOL     OW26717  10.119   5.770   4.968 -0.0709 -0.0242 -0.3027
 5596SOL    HW126718  10.214   5.761   4.973 -0.0557  0.2044 -0.1790
 5596SOL    HW226719  10.090   5.768   5.059 -0.1386  0.3902 -0.3132
 5597SOL     OW26720  11.364   4.796   6.828  0.1797  0.3513  0.4880
 5597SOL    HW126721  11.394   4.813   6.739 -0.4805 -0.0227  0.1885
 5597SOL    HW226722  11.415   4.720   6.856 -0.8454 -0.6233 -0.2177
 5598SOL     OW26723   6.606   9.599   2.590 -0.6818  0.7166  0.1719
 5598SOL    HW126724   6.653   9.681   2.606  0.4574 -0.0146  0.7281
 5598SOL    HW226725   6.675   9.537   2.563 -1.8665  0.6634 -3.2151
 5599SOL     OW26726   7.276   7.964  12.982 -0.1867  0.4948 -0.0834
 5599SOL    HW126727   7.355   8.018  12.978 -0.2280  0.5605 -0.0157
 5599SOL    HW226728   7.222   7.997  12.910  0.2333 -0.1625 -0.7217
 5600SOL     OW26729   1.682   1.119  12.871 -0.3235  0.2207 -0.0325
 5600SOL    HW126730   1.669   1.133  12.777 -0.7234  0.8155  0.1100
 5600SOL    HW226731   1.724   1.033  12.876  0.7814  0.6888 -0.8248
 5601SOL     OW26732  11.369   8.051  11.490  0.2757  0.1319 -0.3492
 5601SOL    HW126733  11.284   8.094  11.487  0.2380  0.0261 -0.9888
 5601SOL    HW226734  11.425   8.105  11.434  1.2935  1.5780  1.8818
 5602SOL     OW26735   7.845  12.579   6.063 -0.1084 -0.5228 -0.1977
 5602SOL    HW126736   7.933  12.590   6.026 -0.5115  1.2881 -0.6657
 5602SOL    HW226737   7.824  12.663   6.102 -2.1853 -0.4887 -1.2560
 5603SOL     OW26738  10.013   8.419  10.593 -0.2721 -0.5862 -0.1118
 5603SOL    HW126739   9.963   8.435  10.513  0.0228 -1.6410 -0.5303
 5603SOL    HW226740   9.960   8.357  10.643  0.1815 -1.0012 -0.1333
 5604SOL     OW26741   1.417  11.446   9.287  0.2759 -0.2808  0.7146
 5604SOL    HW126742   1.374  11.512   9.232 -1.5999 -1.7003  0.3874
 5604SOL    HW226743   1.482  11.406   9.229 -0.2871 -0.3763  0.1267
 5605SOL     OW26744   5.150   0.008  12.239  0.2163 -0.2016 -0.0165
 5605SOL    HW126745   5.161   0.024  12.333  2.2713  1.8174 -0.5203
 5605SOL    HW226746   5.075   0.063  12.214 -0.9113 -1.4211  0.5332
 5606SOL     OW26747   5.337   7.846   7.613 -0.0708 -0.0489 -0.5671
 5606SOL    HW126748   5.381   7.874   7.693  1.6760 -2.4324 -0.5790
 5606SOL    HW226749   5.288   7.768   7.639  0.4695 -0.8190 -1.7889
 5607SOL     OW26750   1.307   1.409   9.957  0.0770 -0.3712  0.5863
 5607SOL    HW126751   1.225   1.407   9.908  0.0043  4.2133  0.0847
 5607SOL    HW226752   1.282   1.388  10.047 -1.2240 -1.0618  0.0863
 5608SOL     OW26753   6.417   3.157  10.925 -0.2424  0.3819  0.0298
 5608SOL    HW126754   6.364   3.181  10.848  0.5334  0.9751 -0.3420
 5608SOL    HW226755   6.498   3.206  10.913  0.9036 -1.4759 -0.0637
 5609SOL     OW26756   0.858   3.357   3.823  0.2228 -0.5533  0.7465
 5609SOL    HW126757   0.869   3.277   3.772 -1.1034 -1.3847  1.6986
 5609SOL    HW226758   0.948   3.386   3.841  0.7816  0.1245 -2.4479
 5610SOL     OW26759   8.322   0.044   3.089  0.0797  0.5483 -0.0551
 5610SOL    HW126760   8.227   0.040   3.093  0.1234 -0.7628  0.0293
 5610SOL    HW226761   8.349   0.076   3.175 -0.2693  0.9294 -0.0831
 5611SOL     OW26762   4.404   1.989  12.911  0.1052  0.9007  0.2086
 5611SOL    HW126763   4.319   1.955  12.880 -0.0307  1.9101 -0.5801
 5611SOL    HW226764   4.422   1.939  12.991 -1.5859  1.1702  0.7965
 5612SOL     OW26765  10.950   9.888   2.573 -0.2373 -0.4226  0.3975
 5612SOL    HW126766  10.993   9.805   2.594  0.7791  0.0325  0.1360
 5612SOL    HW226767  10.865   9.882   2.618  0.6588 -0.7217  2.1579
 5613SOL     OW26768   1.167   2.547   8.864 -0.3409  0.3020 -0.4273
 5613SOL    HW126769   1.167   2.625   8.921  0.8204  0.9489 -1.2661
 5613SOL    HW226770   1.236   2.564   8.801  1.0148 -2.0865  0.2791
 5614SOL     OW26771   8.249   8.498  11.505  0.1785 -0.2106 -0.6674
 5614SOL    HW126772   8.232   8.591  11.491 -2.3091 -0.5573 -0.3210
 5614SOL    HW226773   8.262   8.489  11.599  0.8873 -0.1700 -0.7538
 5615SOL     OW26774   4.976   1.882   5.546 -0.6786  0.4560 -0.9616
 5615SOL    HW126775   4.892   1.912   5.512 -1.0745  0.8546  0.3284
 5615SOL    HW226776   4.972   1.900   5.640 -0.4339 -2.5250 -0.2983
 5616SOL     OW26777   0.654   8.252   7.333  0.0964 -0.5100  0.0953
 5616SOL    HW126778   0.622   8.304   7.259  1.6253 -1.0916 -1.0341
 5616SOL    HW226779   0.712   8.312   7.380  0.7046 -0.7440 -0.3527
 5617SOL     OW26780  10.520   5.390   4.034  0.1451  0.2153 -0.1281
 5617SOL    HW126781  10.464   5.335   4.088 -0.9160  1.9197  0.5828
 5617SOL    HW226782  10.544   5.335   3.960 -2.1493 -0.7038 -0.2566
 5618SOL     OW26783   5.934  10.808  11.127  0.0141 -0.5973  0.2972
 5618SOL    HW126784   5.881  10.789  11.050 -0.6163 -1.3568  0.9078
 5618SOL    HW226785   5.997  10.874  11.097 -1.0794  0.1212 -0.5096
 5619SOL     OW26786   9.449   6.716  10.020  0.1300  0.3256 -0.2280
 5619SOL    HW126787   9.533   6.682  10.050  0.3936  1.9621  1.0499
 5619SOL    HW226788   9.425   6.661   9.946  1.3407 -1.4537  0.6434
 5620SOL     OW26789   5.639  10.520   8.444  0.0795  0.1358 -0.1246
 5620SOL    HW126790   5.732  10.522   8.422  0.1618 -0.4149  0.1580
 5620SOL    HW226791   5.599  10.473   8.370 -0.0460  0.7847 -0.4773
 5621SOL     OW26792   1.411  13.174  11.673  0.7356  0.2404 -0.1902
 5621SOL    HW126793   1.383  13.094  11.629  0.3306  0.5016 -0.4071
 5621SOL    HW226794   1.465  13.143  11.746 -0.0954 -0.2657  0.2178
 5622SOL     OW26795   8.947   2.694  11.349 -0.0279  0.2452  0.1661
 5622SOL    HW126796   9.008   2.735  11.410  2.4001 -0.5964 -1.5163
 5622SOL    HW226797   8.909   2.621  11.397 -0.0132  1.0102  1.3792
 5623SOL     OW26798   6.207   8.669  12.951  0.0200 -0.7962 -0.2222
 5623SOL    HW126799   6.263   8.684  13.027 -1.8299 -0.5681  1.1672
 5623SOL    HW226800   6.171   8.755  12.930  1.1197 -0.7096 -1.8981
 5624SOL     OW26801   1.812  12.653   5.940 -0.9657  0.0216 -0.0635
 5624SOL    HW126802   1.887  12.654   5.880 -0.8325  0.0216  0.1016
 5624SOL    HW226803   1.809  12.563   5.972 -0.9652  0.0505  0.0175
 5625SOL     OW26804   8.685   3.679   7.497 -0.1914 -0.1358 -1.3190
 5625SOL    HW126805   8.629   3.690   7.573  0.7230  1.0305 -0.7880
 5625SOL    HW226806   8.692   3.584   7.486  1.1720 -0.4025  1.2006
 5626SOL     OW26807   2.105   8.233   5.166 -0.0514  0.2798 -0.0658
 5626SOL    HW126808   2.153   8.157   5.198  2.1243  1.7052  0.2893
 5626SOL    HW226809   2.099   8.291   5.243  0.3078  1.3957 -0.8571
 5627SOL     OW26810  10.486   6.817   4.522  0.0747  0.6778  0.0739
 5627SOL    HW126811  10.510   6.878   4.592 -1.5523  1.1095  0.2897
 5627SOL    HW226812  10.455   6.874   4.451 -0.1214  0.1560 -0.2615
 5628SOL     OW26813  12.108   7.485  12.178  0.6570  0.0126 -1.1280
 5628SOL    HW126814  12.026   7.534  12.168  0.3728 -0.1929  0.0652
 5628SOL    HW226815  12.129   7.456  12.089 -0.3990  0.3352 -1.5033
 5629SOL     OW26816   6.690   2.544  12.252  0.0945 -0.3446 -0.0199
 5629SOL    HW126817   6.607   2.591  12.257  1.4219  2.1290  1.9380
 5629SOL    HW226818   6.694   2.493  12.333  0.4706 -0.4112 -0.0765
 5630SOL     OW26819   1.445   8.282   6.708 -0.6097  0.1653  0.4041
 5630SOL    HW126820   1.477   8.372   6.710 -1.4179  0.5171 -1.1021
 5630SOL    HW226821   1.350   8.290   6.710 -0.7074 -0.7972  2.9145
 5631SOL     OW26822   4.642   0.580   9.290 -0.2411 -0.3635  0.0918
 5631SOL    HW126823   4.587   0.656   9.309  2.2104  1.1932  1.5140
 5631SOL    HW226824   4.626   0.521   9.364 -1.7017 -1.0334 -0.7131
 5632SOL     OW26825   8.931   4.264   7.924  0.1209 -0.5865 -0.2263
 5632SOL    HW126826   9.003   4.316   7.959  0.7164 -2.1191  0.9125
 5632SOL    HW226827   8.966   4.225   7.844  0.9743 -2.1813  0.8764
 5633SOL     OW26828  10.702   0.183   5.139 -0.4760  0.4264 -0.2786
 5633SOL    HW126829  10.615   0.224   5.133 -1.0252 -0.7090 -0.4901
 5633SOL    HW226830  10.700   0.114   5.072  0.6373  0.4602 -0.3595
 5634SOL     OW26831  10.394   5.814   3.463 -0.2666 -0.5189 -0.2896
 5634SOL    HW126832  10.351   5.780   3.385 -0.3667  1.2794 -1.0693
 5634SOL    HW226833  10.351   5.898   3.479  0.8543 -0.1213  0.7426
 5635SOL     OW26834   7.559   5.194   2.033 -0.3564  0.0053  0.1292
 5635SOL    HW126835   7.490   5.259   2.047  0.1617  0.4505  0.6965
 5635SOL    HW226836   7.516   5.121   1.988 -0.6113  1.4401 -2.1434
 5636SOL     OW26837   6.106   1.828   4.625 -0.8361  0.1036 -0.3510
 5636SOL    HW126838   6.131   1.830   4.718  1.9710 -1.9504 -0.9594
 5636SOL    HW226839   6.036   1.763   4.621  0.5874 -1.5192  0.0755
 5637SOL     OW26840   0.253   4.985   3.598 -0.4647  0.7991  0.1724
 5637SOL    HW126841   0.317   4.998   3.528 -1.1040  1.4104 -0.3026
 5637SOL    HW226842   0.240   4.890   3.601  0.6008  0.6459  0.4057
 5638SOL     OW26843  12.388   4.160   9.337 -0.2327 -0.1254  0.0999
 5638SOL    HW126844  12.441   4.237   9.316  1.5087 -1.6069 -1.2346
 5638SOL    HW226845  12.308   4.196   9.374 -0.9167  2.5124 -3.4505
 5639SOL     OW26846   7.458   5.717  11.592  0.0317  0.2199  0.9518
 5639SOL    HW126847   7.481   5.805  11.564  1.7232 -1.0420 -2.1409
 5639SOL    HW226848   7.538   5.682  11.631 -0.0173 -0.5268  0.4172
 5640SOL     OW26849   6.912  11.631   1.184 -0.1061  0.4213  0.0793
 5640SOL    HW126850   6.947  11.693   1.120 -0.7222  0.7391  0.0371
 5640SOL    HW226851   6.988  11.600   1.231  0.2308  1.1336  0.0235
 5641SOL     OW26852  12.877   8.834   9.910 -0.1303  0.1990  0.1683
 5641SOL    HW126853  12.828   8.800   9.836 -0.5118  0.2630  0.3884
 5641SOL    HW226854  12.902   8.923   9.884  0.4141 -0.0604 -0.1950
 5642SOL     OW26855   6.254  12.119   9.442 -0.0408 -0.1075 -0.3181
 5642SOL    HW126856   6.267  12.074   9.359  0.8363 -1.3656  0.4663
 5642SOL    HW226857   6.307  12.199   9.434  0.9040 -0.7424 -0.5808
 5643SOL     OW26858  11.125   9.751   5.152  0.0884  0.2795 -0.3345
 5643SOL    HW126859  11.216   9.762   5.178  0.9444 -1.5153 -2.2839
 5643SOL    HW226860  11.109   9.657   5.159 -0.3470  0.0080 -3.6957
 5644SOL     OW26861   8.278   6.800  10.107  0.1767  0.6869 -0.1021
 5644SOL    HW126862   8.228   6.862  10.160  0.9519  1.9567 -0.8191
 5644SOL    HW226863   8.225   6.787  10.028  0.3569  1.0240 -0.2815
 5645SOL     OW26864  12.143   4.695   7.969  0.0719 -0.3361  0.0223
 5645SOL    HW126865  12.200   4.641   7.915  0.2533  0.7423 -0.9112
 5645SOL    HW226866  12.054   4.672   7.940  0.1905  0.9377 -1.5003
 5646SOL     OW26867   2.216   6.354  11.546  0.4372 -0.3359 -0.0562
 5646SOL    HW126868   2.131   6.370  11.505 -0.0811  1.1853  1.4855
 5646SOL    HW226869   2.280   6.392  11.486 -0.0856 -0.2417 -0.5642
 5647SOL     OW26870  13.137   3.944   5.003 -0.2236  0.5108 -0.7723
 5647SOL    HW126871  13.078   4.017   4.982 -2.1354 -1.0570 -1.1170
 5647SOL    HW226872  13.156   3.903   4.919 -0.1607 -0.1067 -0.4659
 5648SOL     OW26873   6.483  11.513   4.795 -0.2832  0.4728 -0.8037
 5648SOL    HW126874   6.424  11.461   4.740 -1.4567  2.7290 -1.7797
 5648SOL    HW226875   6.426  11.573   4.842  0.8289 -0.5098  1.9831
 5649SOL     OW26876   9.845   0.170   4.060  0.3456 -0.3542  0.1861
 5649SOL    HW126877   9.940   0.187   4.063  0.5252 -1.1642 -0.4882
 5649SOL    HW226878   9.816   0.212   3.979  0.2729 -0.7438  0.0052
 5650SOL     OW26879  11.754  12.633   3.358  0.6331  0.2842 -0.5072
 5650SOL    HW126880  11.674  12.593   3.323  0.1216  0.7886  0.0643
 5650SOL    HW226881  11.802  12.559   3.395 -0.3641  0.1865  0.6515
 5651SOL     OW26882   1.936   5.976  11.702  0.0050 -1.0559  0.4249
 5651SOL    HW126883   2.007   5.962  11.765 -0.3058  1.2969  1.4332
 5651SOL    HW226884   1.865   5.920  11.733 -0.4817  0.7292  2.8805
 5652SOL     OW26885   1.791   1.795   9.297 -0.2328  0.2629  0.3167
 5652SOL    HW126886   1.847   1.721   9.273 -0.5679  0.1165 -0.0239
 5652SOL    HW226887   1.703   1.756   9.306 -0.3442  0.5541  0.4926
 5653SOL     OW26888   4.512  11.116   8.823  0.6924 -0.4076  0.2004
 5653SOL    HW126889   4.469  11.144   8.742 -0.5113  1.3630  1.3681
 5653SOL    HW226890   4.465  11.037   8.849 -1.3664  0.9481  0.9337
 5654SOL     OW26891   6.700  10.246   5.014 -0.3154  0.3010 -0.4442
 5654SOL    HW126892   6.779  10.287   4.979 -0.7446  0.9949 -0.6225
 5654SOL    HW226893   6.633  10.262   4.948 -0.2901 -1.5084 -0.9512
 5655SOL     OW26894   8.745   0.034  13.210  0.2700 -0.0747 -0.1859
 5655SOL    HW126895   8.766   0.126  13.193  1.2577 -0.0912  0.8142
 5655SOL    HW226896   8.694   0.035  13.291  1.9611 -0.5175  0.9412
 5656SOL     OW26897   1.510   0.964  13.307 -0.0344  0.3864  0.0829
 5656SOL    HW126898   1.429   0.927  13.343 -1.3022  1.6462 -1.3701
 5656SOL    HW226899   1.544   1.019  13.378 -0.3081 -0.3215  0.7835
 5657SOL     OW26900   9.351   3.924   2.513  0.0286 -0.1960  0.6381
 5657SOL    HW126901   9.324   3.874   2.436 -0.7068 -0.3477  0.9859
 5657SOL    HW226902   9.304   3.883   2.585  1.0019 -0.2935  1.2269
 5658SOL     OW26903   6.592  10.925   5.917 -0.1133  0.0888  0.2241
 5658SOL    HW126904   6.502  10.894   5.917  0.7387 -2.7591  1.6302
 5658SOL    HW226905   6.637  10.869   5.853  0.6016  1.9452 -1.0084
 5659SOL     OW26906   1.933   3.827   1.589  0.5134  0.1614  0.0414
 5659SOL    HW126907   1.839   3.828   1.571  0.4729  2.8971  0.0794
 5659SOL    HW226908   1.948   3.743   1.633 -1.7762 -0.5999 -0.5032
 5660SOL     OW26909   3.666   8.924  11.007 -0.1246 -0.2773  0.0338
 5660SOL    HW126910   3.701   8.858  10.947 -2.4941 -0.5105 -1.2161
 5660SOL    HW226911   3.743   8.962  11.049  1.4322 -2.3276 -0.8055
 5661SOL     OW26912  12.609  12.016   8.800  0.3124 -0.4750 -0.3525
 5661SOL    HW126913  12.669  11.981   8.734 -1.4679 -3.0564 -0.7899
 5661SOL    HW226914  12.538  12.056   8.749  0.0901 -0.3388  0.0605
 5662SOL     OW26915  10.921   7.683   9.905  0.0609  0.2667  0.2667
 5662SOL    HW126916  10.989   7.750   9.902  0.1016  0.5339  3.5055
 5662SOL    HW226917  10.894   7.671   9.814  2.3943  2.2320 -0.7719
 5663SOL     OW26918  12.433   6.087  13.229  0.2316  0.4117 -0.1688
 5663SOL    HW126919  12.473   6.174  13.240  1.4048 -0.2838  1.5355
 5663SOL    HW226920  12.499   6.037  13.180 -0.2102  0.3289 -0.6800
 5664SOL     OW26921   9.795   0.597   4.435  0.2019  0.2407  0.4385
 5664SOL    HW126922   9.860   0.662   4.410  0.8702 -1.1749 -1.7857
 5664SOL    HW226923   9.710   0.639   4.418  0.5253  1.3772  1.4611
 5665SOL     OW26924   3.771   5.866  10.894  1.0677 -0.1768  0.4189
 5665SOL    HW126925   3.713   5.932  10.933  0.8108  0.4628 -0.9715
 5665SOL    HW226926   3.855   5.911  10.884  1.0831 -0.2718  0.1049
 5666SOL     OW26927   0.615   3.382   5.235  0.0057 -0.2592  0.3627
 5666SOL    HW126928   0.647   3.468   5.262 -0.3031 -0.1159  0.2739
 5666SOL    HW226929   0.558   3.399   5.161  0.0357 -0.5540  0.2680
 5667SOL     OW26930  12.471   9.678  12.768  0.3209 -0.4880  0.2037
 5667SOL    HW126931  12.462   9.601  12.824 -1.9415 -0.4503 -0.0046
 5667SOL    HW226932  12.386   9.721  12.772  1.2412  1.5319 -0.4098
 5668SOL     OW26933   3.942   7.254  12.228  0.2050  0.0933 -0.5456
 5668SOL    HW126934   4.034   7.272  12.248 -0.0989  0.0509  1.0809
 5668SOL    HW226935   3.924   7.306  12.149  0.9132  2.3824  0.6871
 5669SOL     OW26936   6.002  13.108  10.823 -0.0629 -0.0479 -0.2107
 5669SOL    HW126937   5.922  13.075  10.862 -0.6119 -1.7834 -2.5906
 5669SOL    HW226938   6.071  13.050  10.855 -0.4654 -1.2711 -1.4475
 5670SOL     OW26939   9.968   8.578   0.420 -0.0783 -0.2868 -0.3841
 5670SOL    HW126940  10.001   8.612   0.337 -0.3735 -0.4646 -0.5765
 5670SOL    HW226941   9.974   8.483   0.411 -0.7522 -0.3266 -0.4701
 5671SOL     OW26942  13.161   0.259   5.620 -0.1239  0.5946  0.0263
 5671SOL    HW126943  13.090   0.199   5.642  0.3274  1.0135  3.1553
 5671SOL    HW226944  13.118   0.341   5.596 -0.7059  0.4859  0.6816
 5672SOL     OW26945  11.800   9.876  12.485 -0.1651 -0.7393 -0.1917
 5672SOL    HW126946  11.801   9.868  12.580  1.1463  2.2965  0.1721
 5672SOL    HW226947  11.716   9.918  12.464 -0.4244 -1.3434 -0.3845
 5673SOL     OW26948   3.944  10.266  11.428  0.1015  0.1628  0.0715
 5673SOL    HW126949   4.017  10.237  11.374 -0.4971  0.1228 -0.7346
 5673SOL    HW226950   3.964  10.234  11.515  1.3457  0.6860 -0.0043
 5674SOL     OW26951   2.438   8.957   7.043  0.1727 -0.8879 -0.0719
 5674SOL    HW126952   2.451   8.951   7.138 -0.9879 -0.9121  0.1060
 5674SOL    HW226953   2.523   8.984   7.009  1.4036 -3.4676  0.6818
 5675SOL     OW26954  12.176   4.445   8.976 -0.0115  0.2025 -0.4854
 5675SOL    HW126955  12.109   4.514   8.977  0.3673  0.5707 -0.3714
 5675SOL    HW226956  12.253   4.486   8.938  0.4962  0.1108  0.4147
 5676SOL     OW26957  12.805   0.681   0.038  0.7226  0.1979 -0.1420
 5676SOL    HW126958  12.848   0.766   0.026  0.4258  0.5027  0.8478
 5676SOL    HW226959  12.855   0.622  -0.018  0.9067  1.0279 -0.8829
 5677SOL     OW26960   4.443   9.185   9.898  0.1376  0.3997  0.1515
 5677SOL    HW126961   4.355   9.204   9.930 -0.2954 -0.7050 -0.3256
 5677SOL    HW226962   4.500   9.202   9.973 -0.5574  0.4959  0.6682
 5678SOL     OW26963  10.857   6.926   2.692 -0.4413 -0.1664 -0.4800
 5678SOL    HW126964  10.817   6.871   2.625  0.3909 -1.9351  0.4095
 5678SOL    HW226965  10.841   6.880   2.774 -1.0241  1.7076  0.5227
 5679SOL     OW26966   7.119   6.321   3.739 -0.2434 -0.0609  0.5307
 5679SOL    HW126967   7.121   6.366   3.823  0.5415 -2.0516  1.6606
 5679SOL    HW226968   7.033   6.280   3.735 -0.1519 -0.2625  0.5588
 5680SOL     OW26969   2.939   0.868   3.801  0.6948  0.4167  0.1102
 5680SOL    HW126970   3.006   0.813   3.842  1.2947  1.6567  0.8238
 5680SOL    HW226971   2.856   0.828   3.826  1.0740  0.6650  1.8501
 5681SOL     OW26972  12.462  13.099   3.754  0.0632  0.3099  0.5893
 5681SOL    HW126973  12.484  13.170   3.815  0.3573  0.1050  0.7223
 5681SOL    HW226974  12.525  13.107   3.683  1.4535 -1.0938  1.6159
 5682SOL     OW26975   1.022   3.865   9.318 -0.5405 -0.1895 -0.3158
 5682SOL    HW126976   1.070   3.826   9.391 -1.7134 -2.3608 -0.6368
 5682SOL    HW226977   0.996   3.951   9.350  0.3221 -0.4740  1.2358
 5683SOL     OW26978  10.567   5.218   4.272 -0.6442  1.1043 -0.2063
 5683SOL    HW126979  10.651   5.183   4.244 -0.9115  0.9760 -0.8680
 5683SOL    HW226980  10.588   5.289   4.332 -0.0693  1.1259 -0.4357
 5684SOL     OW26981  11.327  12.461   5.272  0.0056 -0.5112 -0.0065
 5684SOL    HW126982  11.315  12.483   5.180  0.7685  0.3800  0.0817
 5684SOL    HW226983  11.388  12.528   5.304  1.4092 -2.0323  0.6260
 5685SOL     OW26984   9.775   8.828   5.839  0.4545  0.5522  0.1146
 5685SOL    HW126985   9.778   8.866   5.927 -0.0920  2.3561 -0.5913
 5685SOL    HW226986   9.827   8.888   5.786  0.6927 -0.4598 -0.8229
 5686SOL     OW26987  12.614   9.999   1.565 -0.0670 -0.4314  1.1551
 5686SOL    HW126988  12.640   9.913   1.599  1.5121 -0.1247  0.8218
 5686SOL    HW226989  12.697  10.044   1.547 -0.6515  2.4759  4.4975
 5687SOL     OW26990   6.668   0.470   7.964  0.1160  0.2115  0.2592
 5687SOL    HW126991   6.592   0.524   7.983 -0.0448 -0.4659  1.6638
 5687SOL    HW226992   6.641   0.415   7.890  0.0028  1.4204 -0.6450
 5688SOL     OW26993   0.438   0.750  13.037 -0.2271  0.3141  0.2828
 5688SOL    HW126994   0.452   0.660  13.066  0.5780  0.6246  0.9182
 5688SOL    HW226995   0.350   0.751  13.000  0.4839 -1.2210 -1.6288
 5689SOL     OW26996   9.386   9.486   0.111 -0.2144  0.3129 -0.1497
 5689SOL    HW126997   9.389   9.426   0.037 -1.2720 -0.7260  0.6100
 5689SOL    HW226998   9.298   9.524   0.108 -0.1043  0.6160  0.3064
 5690SOL     OW26999   5.271  10.386  10.543  0.5733 -0.7315  0.0486
 5690SOL    HW127000   5.225  10.457  10.499 -0.2098 -0.1549  1.7063
 5690SOL    HW227001   5.202  10.339  10.592  1.6309 -0.0384  2.3386
 5691SOL     OW27002   0.555  11.787   6.108 -0.2441 -0.3718  0.2973
 5691SOL    HW127003   0.629  11.836   6.145  0.4025 -0.7992 -0.3853
 5691SOL    HW227004   0.550  11.708   6.161  0.9039 -1.1476 -0.6897
 5692SOL     OW27005   3.300   2.095  12.162  0.4117 -0.5129 -0.4487
 5692SOL    HW127006   3.241   2.127  12.230 -1.9727 -1.1833 -2.0849
 5692SOL    HW227007   3.354   2.030  12.206 -1.7977 -1.7194  0.6491
 5693SOL     OW27008  12.568   2.705   5.389  0.2498 -0.2559 -0.4578
 5693SOL    HW127009  12.613   2.620   5.393  0.7085 -0.3774 -4.1133
 5693SOL    HW227010  12.638   2.768   5.368 -0.6806  0.0356 -3.1692
 5694SOL     OW27011   4.382   1.115   3.371  0.0029 -0.3656  0.1116
 5694SOL    HW127012   4.468   1.103   3.410  0.4118  0.8237 -0.3793
 5694SOL    HW227013   4.396   1.179   3.301 -1.3242  0.0391  0.1922
 5695SOL     OW27014   2.629   5.562  12.298 -0.4050  0.2493 -0.3593
 5695SOL    HW127015   2.543   5.523  12.310  1.0377 -2.6231  1.8423
 5695SOL    HW227016   2.636   5.626  12.369 -0.5127  0.0577 -0.1738
 5696SOL     OW27017   1.645   5.447  12.085  0.4501  0.6645 -0.4098
 5696SOL    HW127018   1.726   5.416  12.127 -0.4464  0.1756  1.0372
 5696SOL    HW227019   1.575   5.416  12.143 -0.8328  0.4848 -1.9843
 5697SOL     OW27020   1.760   0.448   2.491  0.2601 -0.2068 -0.1121
 5697SOL    HW127021   1.855   0.448   2.505  0.3946  0.5153 -0.8861
 5697SOL    HW227022   1.743   0.532   2.447 -0.4975 -1.0206 -1.4402
 5698SOL     OW27023   8.553   0.218   2.675 -0.3259  0.2966 -0.4340
 5698SOL    HW127024   8.502   0.158   2.730 -0.3429 -0.2161 -0.9974
 5698SOL    HW227025   8.544   0.303   2.717 -0.1083 -0.1344  0.5152
 5699SOL     OW27026   1.785  10.308   7.303 -0.3060 -0.1134  0.6048
 5699SOL    HW127027   1.705  10.293   7.252  1.0164 -0.2508 -1.5978
 5699SOL    HW227028   1.762  10.375   7.366 -2.2329 -0.3854  0.2412
 5700SOL     OW27029   7.817   2.411  13.238  0.5584  0.3339 -0.5579
 5700SOL    HW127030   7.745   2.380  13.184  1.8703 -0.5259 -1.9127
 5700SOL    HW227031   7.776   2.467  13.305 -1.3252 -0.1983 -1.2205
 5701SOL     OW27032   2.260  12.879  11.902 -0.3181  0.1195  0.1123
 5701SOL    HW127033   2.206  12.800  11.901 -0.1600 -0.0908  2.2834
 5701SOL    HW227034   2.347  12.849  11.928  0.3690  0.7123 -1.4114
 5702SOL     OW27035   8.176  10.000  12.355 -0.0601  0.4885 -0.0088
 5702SOL    HW127036   8.117  10.059  12.308 -0.2326 -0.1451 -0.5965
 5702SOL    HW227037   8.207  10.052  12.430 -0.5035  1.1926 -0.3052
 5703SOL     OW27038   4.446   7.135   5.580 -0.2506 -0.2432 -0.2457
 5703SOL    HW127039   4.480   7.200   5.641  1.5753 -2.1191  0.8766
 5703SOL    HW227040   4.363   7.107   5.618 -0.7063  0.8809 -0.3743
 5704SOL     OW27041   4.053  11.159   1.582 -0.3516  0.1737 -0.0779
 5704SOL    HW127042   4.070  11.246   1.619  0.5222  0.2794 -0.6895
 5704SOL    HW227043   4.121  11.104   1.620 -0.6804 -0.1653  0.0223
 5705SOL     OW27044   5.938  10.528   6.722 -0.2454 -0.4382  0.6897
 5705SOL    HW127045   6.000  10.465   6.685  0.7572 -0.6274  2.5961
 5705SOL    HW227046   5.861  10.476   6.744 -0.2881 -0.5806  0.2091
 5706SOL     OW27047   4.365  12.064   3.253 -1.0245  0.2861  0.1379
 5706SOL    HW127048   4.461  12.068   3.256 -0.8804  1.4440 -2.6941
 5706SOL    HW227049   4.344  11.973   3.271  0.5773  0.0555  0.9920
 5707SOL     OW27050   9.070   7.732   9.415 -0.2209  0.4192  0.0490
 5707SOL    HW127051   9.111   7.647   9.435 -1.8845 -0.2242  0.9202
 5707SOL    HW227052   9.065   7.776   9.500 -1.1813  0.5371 -0.0626
 5708SOL     OW27053   7.703   4.628   0.101 -0.4808  0.3154 -0.2450
 5708SOL    HW127054   7.726   4.619   0.194  1.9701  0.8999 -0.7133
 5708SOL    HW227055   7.673   4.719   0.093  2.8914  1.5895 -0.5319
 5709SOL     OW27056   5.038  10.122   1.112 -0.3171  0.1125 -0.1514
 5709SOL    HW127057   4.999  10.193   1.164 -0.2337  0.2962 -0.3396
 5709SOL    HW227058   5.091  10.073   1.175 -0.3535  0.2318 -0.0263
 5710SOL     OW27059   0.354   9.444   4.695  0.1574  0.3904  0.1693
 5710SOL    HW127060   0.417   9.376   4.718 -0.5254 -0.2119  0.3003
 5710SOL    HW227061   0.407   9.523   4.686  0.7616  0.1816  1.6160
 5711SOL     OW27062   4.616   2.994   9.685 -0.1479 -0.2757  0.0463
 5711SOL    HW127063   4.552   3.044   9.633 -1.1146 -1.5939 -0.0988
 5711SOL    HW227064   4.646   2.925   9.625 -0.4554 -1.1593  0.8816
 5712SOL     OW27065   8.398   2.064  11.511 -0.1572 -0.0380  0.3583
 5712SOL    HW127066   8.366   2.151  11.533 -1.0509 -0.2054 -0.2223
 5712SOL    HW227067   8.359   2.006  11.575  0.9434  0.0510  1.1356
 5713SOL     OW27068   9.318  12.181   3.781  0.1645 -0.7619  0.4481
 5713SOL    HW127069   9.293  12.155   3.693 -0.4554  0.4288  0.2480
 5713SOL    HW227070   9.389  12.121   3.805 -0.7999 -2.2112 -0.1822
 5714SOL     OW27071   4.452   3.461  12.422  0.2024 -0.5219 -0.4449
 5714SOL    HW127072   4.478   3.415  12.501  0.0617 -0.4938 -0.3820
 5714SOL    HW227073   4.441   3.392  12.356 -2.7227 -0.9540  0.3368
 5715SOL     OW27074   8.553   0.231   5.428 -0.6127 -0.4135 -0.1938
 5715SOL    HW127075   8.513   0.222   5.514 -2.6324 -3.0271 -1.2833
 5715SOL    HW227076   8.514   0.311   5.391  2.5390  2.5571  2.2579
 5716SOL     OW27077  11.263   8.453   3.210 -0.6786  0.6943 -0.1297
 5716SOL    HW127078  11.246   8.364   3.181 -2.8217  1.6045 -1.9900
 5716SOL    HW227079  11.178   8.487   3.236 -0.1578  2.6017 -0.7113
 5717SOL     OW27080   3.149  11.972   3.188 -0.4128 -0.0487 -0.0547
 5717SOL    HW127081   3.139  11.881   3.159 -0.6981  0.3571 -1.2790
 5717SOL    HW227082   3.181  12.018   3.110  0.9848  0.6619  0.9087
 5718SOL     OW27083  11.732   0.351   5.905 -0.1970  0.0493  0.0856
 5718SOL    HW127084  11.644   0.326   5.936 -0.3378  0.3142 -0.0957
 5718SOL    HW227085  11.787   0.276   5.927 -0.2628  0.2861  1.1105
 5719SOL     OW27086   9.997   5.860   2.564 -0.7294  0.5459  0.2742
 5719SOL    HW127087  10.056   5.827   2.496  2.4643  0.4722  2.8773
 5719SOL    HW227088   9.995   5.792   2.630 -0.0431  2.4057  2.3158
 5720SOL     OW27089  11.122   8.059   4.709 -0.0408 -0.1689 -0.1610
 5720SOL    HW127090  11.061   8.133   4.706 -0.0065 -0.1283  0.1086
 5720SOL    HW227091  11.066   7.983   4.725 -0.3918 -0.5833 -2.8004
 5721SOL     OW27092  11.175  10.462   0.204 -0.4231  0.2208 -0.1442
 5721SOL    HW127093  11.191  10.371   0.226 -0.5122  0.4210  0.7817
 5721SOL    HW227094  11.223  10.512   0.270 -0.1233  0.8493 -0.8203
 5722SOL     OW27095   3.814   1.824   1.398  0.1005 -0.1066 -0.4710
 5722SOL    HW127096   3.887   1.875   1.362  0.2803 -0.0854 -0.0779
 5722SOL    HW227097   3.799   1.755   1.332 -1.1220  1.2969 -1.7371
 5723SOL     OW27098   3.306   3.226   4.261  0.0418  0.5789 -0.1075
 5723SOL    HW127099   3.222   3.266   4.283  0.2609  0.5499  0.8067
 5723SOL    HW227100   3.283   3.154   4.202 -0.6105  0.3690  0.3906
 5724SOL     OW27101   0.574   7.304   0.554 -0.0729  0.9109  0.3637
 5724SOL    HW127102   0.622   7.336   0.631  0.4744  0.3961  0.2474
 5724SOL    HW227103   0.486   7.339   0.564 -0.1409  0.4584  1.4761
 5725SOL     OW27104  10.744  10.907   8.211  0.1382 -0.5866  0.1421
 5725SOL    HW127105  10.672  10.848   8.233  0.9663 -1.5568  0.3260
 5725SOL    HW227106  10.793  10.917   8.292 -0.3390  0.8859  0.2756
 5726SOL     OW27107   9.785   0.059   4.315 -0.4862  0.4401  0.1761
 5726SOL    HW127108   9.787   0.128   4.381  0.5367  0.9934 -0.4143
 5726SOL    HW227109   9.832   0.096   4.240  0.3864 -1.0183 -0.0255
 5727SOL     OW27110   1.823   0.857   6.567 -0.8204 -0.3208 -0.2775
 5727SOL    HW127111   1.734   0.828   6.546 -1.0648  0.3451 -0.1786
 5727SOL    HW227112   1.813   0.949   6.589  0.3532  0.6575 -3.3661
 5728SOL     OW27113   2.959   7.932  11.687 -0.1120 -0.3436 -1.0515
 5728SOL    HW127114   3.027   7.998  11.699  0.3884 -1.1275  0.7357
 5728SOL    HW227115   2.888   7.961  11.744  0.3059 -1.5571  0.1274
 5729SOL     OW27116   8.890  11.313   4.759 -0.5739  0.3971 -0.4756
 5729SOL    HW127117   8.961  11.250   4.770 -1.8408 -1.2142 -1.0613
 5729SOL    HW227118   8.900  11.375   4.831  0.3456 -0.8376  0.4851
 5730SOL     OW27119   6.664  11.579   0.542  0.1568  0.0429 -0.3761
 5730SOL    HW127120   6.667  11.624   0.627 -0.0177 -0.4583 -0.0999
 5730SOL    HW227121   6.748  11.599   0.501  0.6394 -0.5027  0.3280
 5731SOL     OW27122   5.895   8.174  11.447  0.0525 -0.8499  0.1536
 5731SOL    HW127123   5.918   8.214  11.530 -0.2336 -1.4842  0.5505
 5731SOL    HW227124   5.964   8.201  11.386 -1.4209  2.3462 -0.2951
 5732SOL     OW27125   1.632   4.864   5.559 -0.1109 -0.5529 -0.4228
 5732SOL    HW127126   1.725   4.882   5.544 -0.0242 -1.5875 -1.2429
 5732SOL    HW227127   1.628   4.830   5.649  0.2788 -0.3598 -0.3293
 5733SOL     OW27128   8.055  11.649   1.660 -0.5479 -0.3403 -0.6865
 5733SOL    HW127129   8.090  11.701   1.732  0.5117 -0.5461 -1.0473
 5733SOL    HW227130   8.033  11.564   1.700 -1.6608  0.1292 -0.2420
 5734SOL     OW27131   2.318  12.571   9.506  0.1062 -0.4564 -0.0753
 5734SOL    HW127132   2.321  12.659   9.468  1.1352 -0.4947 -0.1002
 5734SOL    HW227133   2.299  12.514   9.431 -0.2002 -0.2983 -0.1212
 5735SOL     OW27134   6.520   5.379   0.756 -0.2297 -0.1732 -0.2368
 5735SOL    HW127135   6.523   5.283   0.757  0.2152 -0.1883 -1.6550
 5735SOL    HW227136   6.443   5.401   0.704 -1.9532  0.2880  2.3290
 5736SOL     OW27137   5.100  11.050   3.037 -0.7546  0.2409 -0.8126
 5736SOL    HW127138   5.152  10.975   3.006  0.0874  0.4384  0.0620
 5736SOL    HW227139   5.090  11.034   3.131 -0.5725  1.2158 -0.6166
 5737SOL     OW27140   9.624   9.419   1.008  0.2778 -0.1519  0.1304
 5737SOL    HW127141   9.557   9.408   0.941 -0.6201  0.5706  0.8877
 5737SOL    HW227142   9.615   9.342   1.064 -0.1352  0.0963  0.4091
 5738SOL     OW27143   6.403   4.951  11.134 -0.3855 -0.6504  0.3195
 5738SOL    HW127144   6.308   4.941  11.145 -0.4297 -0.1343  0.4292
 5738SOL    HW227145   6.425   5.030  11.183  0.0533 -0.5907  0.0334
 5739SOL     OW27146   4.366   6.191  10.669  0.2323  0.2024 -0.4454
 5739SOL    HW127147   4.323   6.276  10.678 -0.8748 -0.4530  0.9951
 5739SOL    HW227148   4.424   6.200  10.593 -0.1669  2.0945 -0.5570
 5740SOL     OW27149   9.014   3.640  11.607 -0.2709  0.3441 -0.4135
 5740SOL    HW127150   8.964   3.651  11.526  1.0175  1.6527 -1.0810
 5740SOL    HW227151   8.986   3.556  11.642 -2.9125  0.9836 -0.7578
 5741SOL     OW27152  11.618   7.075   6.049 -0.1138  0.1923  0.2230
 5741SOL    HW127153  11.543   7.086   5.991  0.3726  1.9950 -0.1299
 5741SOL    HW227154  11.589   7.110   6.133  0.9119  3.0145 -0.4626
 5742SOL     OW27155  11.090   9.193   8.403  0.2022 -0.5656 -0.2538
 5742SOL    HW127156  11.090   9.114   8.350  1.8508 -1.7091  1.3331
 5742SOL    HW227157  11.171   9.187   8.455 -0.7032  1.0876  1.4627
 5743SOL     OW27158   6.655   9.843  10.366  0.4700  0.3302 -0.0116
 5743SOL    HW127159   6.604   9.918  10.396 -0.3635 -1.0468  2.2698
 5743SOL    HW227160   6.738   9.849  10.414  0.2710 -0.3547  0.4330
 5744SOL     OW27161  10.186   3.772  12.323  0.4546 -0.6322 -0.2503
 5744SOL    HW127162  10.228   3.858  12.314  0.2296 -0.6135 -1.2738
 5744SOL    HW227163  10.123   3.783  12.394 -1.3680  0.8217 -1.9613
 5745SOL     OW27164  10.239   5.372   4.857 -0.7322 -1.1317 -0.3293
 5745SOL    HW127165  10.221   5.446   4.799  3.3555 -1.1211 -1.8921
 5745SOL    HW227166  10.312   5.401   4.911 -1.4077 -2.8264  1.6291
 5746SOL     OW27167  11.642  10.060   0.009 -0.8177 -0.3261  0.4300
 5746SOL    HW127168  11.679  10.037   0.094 -1.4247  1.4178  1.2262
 5746SOL    HW227169  11.707  10.032  -0.055  0.9170  0.7301  1.6393
 5747SOL     OW27170   6.311  10.367  12.336 -0.5531  0.3430 -0.3611
 5747SOL    HW127171   6.289  10.329  12.251 -0.3469  0.6938 -0.5733
 5747SOL    HW227172   6.407  10.365  12.339 -0.3708  3.0140 -1.4176
 5748SOL     OW27173   0.239  12.234   8.575  0.4597  0.0682 -0.2839
 5748SOL    HW127174   0.180  12.268   8.643  1.4902 -0.3767  0.8743
 5748SOL    HW227175   0.183  12.225   8.498 -1.1494 -0.8413  0.9039
 5749SOL     OW27176   7.437   2.393  11.739 -0.4430  0.2230  0.3903
 5749SOL    HW127177   7.393   2.372  11.822  0.7478 -1.2031  0.7082
 5749SOL    HW227178   7.513   2.446  11.765  1.5382 -2.4971  0.6428
 5750SOL     OW27179  11.815   4.634  10.510  0.4807 -0.0295  0.3011
 5750SOL    HW127180  11.779   4.579  10.440 -0.2714  1.6053 -0.6603
 5750SOL    HW227181  11.804   4.581  10.589  0.9835 -1.7674 -0.7369
 5751SOL     OW27182   3.907   8.122   9.074 -0.5429 -0.6080  0.1547
 5751SOL    HW127183   3.956   8.053   9.118 -0.2712  0.3045  1.3196
 5751SOL    HW227184   3.974   8.174   9.029 -0.7447 -1.0773 -0.7080
 5752SOL     OW27185  10.863   0.508   8.276  0.1140 -0.5203  0.1160
 5752SOL    HW127186  10.895   0.510   8.185  0.9993 -0.6344  0.4110
 5752SOL    HW227187  10.768   0.508   8.268  0.1776 -1.2382 -0.8350
 5753SOL     OW27188   5.927   7.726   1.004 -0.5548 -0.5451 -0.0197
 5753SOL    HW127189   5.918   7.746   0.910 -2.4134  1.9989  0.6046
 5753SOL    HW227190   5.965   7.805   1.041  0.5524 -1.6807  1.3657
 5754SOL     OW27191   8.735   6.977   0.332  0.5076 -0.9024 -0.0525
 5754SOL    HW127192   8.784   6.938   0.259  0.1526 -0.4047 -0.5610
 5754SOL    HW227193   8.702   6.901   0.382 -1.1698 -1.3177 -1.6899
 5755SOL     OW27194  10.895  12.903  10.638  0.3795 -0.3307  0.0840
 5755SOL    HW127195  10.951  12.970  10.598 -0.5676  1.0959  1.0427
 5755SOL    HW227196  10.956  12.850  10.690  1.0541  0.2619 -0.0759
 5756SOL     OW27197   1.230   1.008   3.759  0.1835  0.4379  0.5144
 5756SOL    HW127198   1.179   1.035   3.683  1.3155 -0.6413 -0.6718
 5756SOL    HW227199   1.245   1.090   3.807 -0.7194  1.1114 -0.2988
 5757SOL     OW27200   7.923   6.767   2.104 -0.4678 -0.8687 -0.1034
 5757SOL    HW127201   7.882   6.819   2.034 -1.8206  0.0411  1.2773
 5757SOL    HW227202   7.866   6.691   2.114  0.0627 -1.3071 -0.3892
 5758SOL     OW27203   9.371  11.615  10.569  0.2174  0.1339 -0.3534
 5758SOL    HW127204   9.453  11.566  10.559  0.6443  0.5002  1.1315
 5758SOL    HW227205   9.399  11.705  10.585 -0.3811 -0.0114  1.8281
 5759SOL     OW27206   7.839   2.843   2.621  0.2296  1.4709 -0.3115
 5759SOL    HW127207   7.832   2.835   2.716  0.6789  1.2994 -0.2927
 5759SOL    HW227208   7.758   2.887   2.595 -1.4892 -1.3474 -0.1952
 5760SOL     OW27209   1.172  12.207   5.577 -0.1320 -0.0780 -0.3895
 5760SOL    HW127210   1.133  12.120   5.590  0.7335 -0.3551  0.4419
 5760SOL    HW227211   1.185  12.213   5.482  0.1216 -0.9959 -0.4254
 5761SOL     OW27212   7.044   0.971   8.077 -0.4031  0.0573 -0.1811
 5761SOL    HW127213   7.082   1.015   8.001 -1.5575 -0.5709 -1.1469
 5761SOL    HW227214   7.006   1.042   8.129 -0.6460  0.3825 -0.7919
 5762SOL     OW27215  13.215   5.969   9.590  0.2384 -0.0097 -0.2290
 5762SOL    HW127216  13.229   5.917   9.669  1.7525  0.2502 -0.2822
 5762SOL    HW227217  13.265   6.049   9.605 -1.4121  1.1183 -0.4790
 5763SOL     OW27218   8.514   7.519  12.332  0.2665 -0.3566 -0.3257
 5763SOL    HW127219   8.506   7.424  12.320 -0.2970 -0.5500  1.3867
 5763SOL    HW227220   8.523   7.553  12.243 -1.0788 -1.8692 -1.0961
 5764SOL     OW27221   5.286   2.713   4.184  0.1570 -0.8504 -0.2909
 5764SOL    HW127222   5.249   2.742   4.101 -1.7275  1.8723  1.3390
 5764SOL    HW227223   5.365   2.765   4.195  0.2428 -0.9888 -0.2572
 5765SOL     OW27224   4.735   7.473   4.395  0.2408 -0.3737  0.0179
 5765SOL    HW127225   4.732   7.455   4.301  3.3051  0.7702 -0.4236
 5765SOL    HW227226   4.708   7.391   4.436  0.8820 -1.5934 -1.8784
 5766SOL     OW27227  12.665   8.936  11.179 -0.4261 -0.6797  0.0676
 5766SOL    HW127228  12.682   8.948  11.272  0.0821 -0.4534 -0.0504
 5766SOL    HW227229  12.742   8.972  11.135 -1.5422  1.1668 -0.5150
 5767SOL     OW27230   7.943   8.684   7.022  0.4225  0.0384 -0.2578
 5767SOL    HW127231   8.010   8.721   6.965 -0.6538 -1.5191 -2.7204
 5767SOL    HW227232   7.984   8.607   7.061  0.6827  0.2103 -0.1919
 5768SOL     OW27233  12.242   1.017   7.827  0.7658  0.0655  0.0416
 5768SOL    HW127234  12.149   1.038   7.822  0.8220  0.4164  0.4789
 5768SOL    HW227235  12.259   1.003   7.920  1.1083 -0.1815 -0.0576
 5769SOL     OW27236   3.965  13.101  10.458 -0.2735 -0.3097  0.3924
 5769SOL    HW127237   3.874  13.099  10.486 -0.9056 -0.0302 -1.5049
 5769SOL    HW227238   3.962  13.084  10.364  1.5211  1.0028  0.0375
 5770SOL     OW27239   6.576   9.633   4.403  0.3602 -0.5897 -0.2452
 5770SOL    HW127240   6.508   9.682   4.358  0.7236 -0.3213 -0.5106
 5770SOL    HW227241   6.646   9.624   4.338  0.2594 -1.5521 -0.2425
 5771SOL     OW27242   9.455   8.785  10.150 -0.3056  0.0679  0.6149
 5771SOL    HW127243   9.477   8.742  10.232  0.6736 -0.2636  0.1980
 5771SOL    HW227244   9.470   8.878  10.167  1.2450 -0.1119  0.4422
 5772SOL     OW27245  10.222  13.184   5.024 -0.2862 -0.2906  0.3919
 5772SOL    HW127246  10.202  13.091   5.010  2.2594 -0.6864 -1.6180
 5772SOL    HW227247  10.291  13.202   4.960  1.3048  2.2578  2.6235
 5773SOL     OW27248  11.136   4.083   0.463 -0.5424  0.2112 -0.0922
 5773SOL    HW127249  11.061   4.141   0.471 -1.0444 -0.3724 -0.5174
 5773SOL    HW227250  11.123   4.037   0.380  1.5878  1.9507 -1.5146
 5774SOL     OW27251   1.023   9.635   8.903  0.0914 -0.0726 -0.3396
 5774SOL    HW127252   0.964   9.559   8.907  0.8844 -0.6654  0.2457
 5774SOL    HW227253   1.101   9.608   8.951 -0.7889  2.1902  2.6700
 5775SOL     OW27254   9.073   8.791   8.657  0.3832 -0.5938  0.1717
 5775SOL    HW127255   9.024   8.709   8.651  0.1172 -0.4873  0.7988
 5775SOL    HW227256   9.066   8.829   8.569 -0.4070 -0.7299  0.1670
 5776SOL     OW27257  11.890  12.149   0.194 -0.1632  0.4092  0.5307
 5776SOL    HW127258  11.964  12.107   0.238  1.5202  1.0762 -1.5409
 5776SOL    HW227259  11.837  12.183   0.266  1.8405  0.4351  2.0894
 5777SOL     OW27260   2.603   6.012   2.187  0.4178  0.0605  0.4171
 5777SOL    HW127261   2.508   6.011   2.186  0.3539  0.8308  2.2264
 5777SOL    HW227262   2.627   6.099   2.218  1.6591 -0.6273  1.5279
 5778SOL     OW27263   9.929  10.230   2.792  0.5045  0.2015  0.1543
 5778SOL    HW127264   9.884  10.210   2.710 -0.2089 -0.1077  0.6043
 5778SOL    HW227265   9.871  10.292   2.836  0.1363 -0.7416  1.0603
 5779SOL     OW27266   9.662   7.455   8.225  0.2669  0.0809 -0.3252
 5779SOL    HW127267   9.690   7.365   8.211 -0.3470 -0.4198  1.4253
 5779SOL    HW227268   9.718   7.487   8.295  0.0685  0.8609 -0.5175
 5780SOL     OW27269  10.515   5.448   3.528  0.1344 -0.2804  0.5291
 5780SOL    HW127270  10.510   5.377   3.464  1.2713 -0.5499  0.7229
 5780SOL    HW227271  10.427   5.488   3.527 -0.2604 -1.1436 -0.1935
 5781SOL     OW27272   4.213  12.780   5.388 -0.1516  0.1251 -0.0671
 5781SOL    HW127273   4.239  12.696   5.425 -1.0808 -0.4403 -0.6472
 5781SOL    HW227274   4.171  12.826   5.460  1.1398  0.4689  0.4905
 5782SOL     OW27275  10.123  13.252   4.356  0.1295  0.2913 -0.5070
 5782SOL    HW127276  10.218  13.254   4.367  0.0090  0.8328  0.4899
 5782SOL    HW227277  10.109  13.184   4.290  1.1968  0.1464 -0.6117
 5783SOL     OW27278   4.445   2.904  10.851  0.9073  0.0272  0.0727
 5783SOL    HW127279   4.404   2.963  10.915 -0.4775  0.3812 -1.0990
 5783SOL    HW227280   4.456   2.821  10.899 -1.5055 -0.1837  0.3892
 5784SOL     OW27281  12.587   2.661   4.111 -0.3708 -0.2530 -0.0697
 5784SOL    HW127282  12.590   2.754   4.088  0.1291 -0.1637  0.3344
 5784SOL    HW227283  12.613   2.616   4.031 -0.9998 -0.0689 -0.3854
 5785SOL     OW27284   1.791   7.767   1.245 -0.0565 -0.1381  0.3590
 5785SOL    HW127285   1.847   7.836   1.280 -0.2119 -1.1316  2.8205
 5785SOL    HW227286   1.735   7.811   1.181  1.7588  1.3773 -0.2667
 5786SOL     OW27287   0.457  12.146   8.695  0.2650 -0.1926  0.3287
 5786SOL    HW127288   0.509  12.222   8.721 -0.0549 -0.1626  0.8835
 5786SOL    HW227289   0.385  12.183   8.644  0.3952 -0.1722  0.1562
 5787SOL     OW27290   6.737   9.410   8.367  0.1367 -0.2325 -0.2499
 5787SOL    HW127291   6.664   9.349   8.371 -0.3625  0.3967  0.4809
 5787SOL    HW227292   6.782   9.387   8.286 -2.0772  0.7175 -1.8557
 5788SOL     OW27293   0.476   2.217  11.118  0.1884  0.3198  0.5515
 5788SOL    HW127294   0.569   2.209  11.096  0.1130  0.7876  0.0367
 5788SOL    HW227295   0.473   2.204  11.213  0.6841 -0.4406  0.4747
 5789SOL     OW27296   2.520  10.910   1.403 -0.1442 -0.3162 -0.4416
 5789SOL    HW127297   2.436  10.952   1.419  0.3770  1.0484 -1.1645
 5789SOL    HW227298   2.553  10.889   1.491  0.2737  2.2206  0.0736
 5790SOL     OW27299   0.111   6.223   0.634 -0.2425  0.1929  0.0264
 5790SOL    HW127300   0.139   6.133   0.615 -0.7052  0.0326  0.0835
 5790SOL    HW227301   0.192   6.270   0.652  0.1225  0.0825 -1.2355
 5791SOL     OW27302   3.286  11.043  10.830  0.0149  0.3285  0.1138
 5791SOL    HW127303   3.202  11.064  10.872  0.6813  0.7232  1.3191
 5791SOL    HW227304   3.289  11.100  10.753 -1.6757 -1.1141 -1.1090
 5792SOL     OW27305   1.371  10.957   0.771 -0.0879 -0.6305  0.3848
 5792SOL    HW127306   1.448  10.907   0.796  0.8374  0.4666 -0.1872
 5792SOL    HW227307   1.405  11.028   0.717 -1.6747 -1.1853 -1.4784
 5793SOL     OW27308   8.618   8.440  12.978  0.3925  0.0393  0.1552
 5793SOL    HW127309   8.524   8.424  12.968  0.4824 -0.2212 -0.2734
 5793SOL    HW227310   8.657   8.409  12.897  0.9137 -0.3665  0.5497
 5794SOL     OW27311   0.978   2.568   7.900 -0.1355 -0.2451  0.1453
 5794SOL    HW127312   1.038   2.529   7.963  2.0068  0.9966 -0.9949
 5794SOL    HW227313   0.985   2.662   7.915 -1.7721 -0.0484 -0.0946
 5795SOL     OW27314   9.908   2.605  10.906  0.2879  0.3342  0.7630
 5795SOL    HW127315   9.961   2.528  10.888  0.6657  0.1320  2.5860
 5795SOL    HW227316   9.820   2.571  10.920  0.9237 -0.2353  4.3445
 5796SOL     OW27317   5.407   3.685  10.093 -0.4512 -0.3456 -0.1714
 5796SOL    HW127318   5.479   3.708  10.034 -0.3888 -0.5680 -0.1827
 5796SOL    HW227319   5.393   3.764  10.146  0.2253 -0.5116  0.2645
 5797SOL     OW27320   5.611   0.505  11.492 -0.0493  0.1991  0.3308
 5797SOL    HW127321   5.670   0.524  11.564  0.0387 -2.3411  1.0486
 5797SOL    HW227322   5.634   0.416  11.465 -1.7744  0.1279 -1.1358
 5798SOL     OW27323   5.853   3.125   3.936  0.1404  0.6069  0.6250
 5798SOL    HW127324   5.767   3.130   3.894  0.0611  2.1425  0.9008
 5798SOL    HW227325   5.837   3.081   4.019 -0.0979 -0.4584  0.0221
 5799SOL     OW27326   1.008  10.089   9.830  0.0807 -0.9436 -0.3526
 5799SOL    HW127327   1.072  10.146   9.787 -0.0529 -1.3084 -1.0408
 5799SOL    HW227328   1.032  10.000   9.803 -1.3650 -1.0167 -1.4990
 5800SOL     OW27329   9.473  12.191   8.824 -0.0253 -0.2229  0.5029
 5800SOL    HW127330   9.395  12.168   8.875 -0.9317 -0.1926 -0.8112
 5800SOL    HW227331   9.450  12.274   8.783  0.4609 -0.5170 -0.3777
 5801SOL     OW27332   5.045  11.643   7.704 -0.3379  0.0545 -0.1635
 5801SOL    HW127333   4.955  11.674   7.694 -0.3195  0.1189 -0.1303
 5801SOL    HW227334   5.069  11.667   7.793 -0.9488 -1.6995  0.5190
 5802SOL     OW27335   4.772   8.770   8.875  0.1484  0.2459  0.3435
 5802SOL    HW127336   4.852   8.779   8.927  0.1700 -0.6841  0.4915
 5802SOL    HW227337   4.768   8.850   8.823 -0.0592  1.3800  2.0145
 5803SOL     OW27338   1.740  10.517   7.492 -0.2042 -0.0962 -0.2439
 5803SOL    HW127339   1.826  10.549   7.518 -0.5362 -0.7600  1.9394
 5803SOL    HW227340   1.679  10.584   7.523 -0.5470 -0.1941 -0.7012
 5804SOL     OW27341   4.841   1.252   3.451 -0.5616  0.0924 -0.0947
 5804SOL    HW127342   4.849   1.335   3.497 -0.6216 -0.3542  0.7258
 5804SOL    HW227343   4.931   1.218   3.448 -0.5631  0.1033 -0.2808
 5805SOL     OW27344   0.462   0.308  10.661 -0.2460 -0.3485 -0.3589
 5805SOL    HW127345   0.514   0.268  10.592 -1.2981 -1.5425 -0.4856
 5805SOL    HW227346   0.396   0.243  10.683  0.3305 -0.2134  2.1191
 5806SOL     OW27347   0.621   7.421  13.113  0.5832  0.2454  0.1423
 5806SOL    HW127348   0.608   7.350  13.049  1.4084  0.9803 -0.8789
 5806SOL    HW227349   0.551   7.409  13.176  0.5546 -1.3404 -0.1415
 5807SOL     OW27350  12.280   8.894   6.770  0.3127  0.2738 -0.2272
 5807SOL    HW127351  12.371   8.913   6.744  0.7051 -0.4648  0.5867
 5807SOL    HW227352  12.288   8.845   6.851 -0.8534  1.0272  0.3653
 5808SOL     OW27353  11.168   0.343  10.341 -0.4395  0.6236  0.3500
 5808SOL    HW127354  11.263   0.339  10.348 -0.5777 -1.7814  1.8346
 5808SOL    HW227355  11.138   0.363  10.430 -1.3498  0.6875  0.0388
 5809SOL     OW27356   0.234   8.109   8.353 -0.6069 -0.0601 -0.0313
 5809SOL    HW127357   0.154   8.117   8.405 -1.2616 -0.8618 -0.8876
 5809SOL    HW227358   0.221   8.031   8.300  0.2204  0.4889 -1.0908
 5810SOL     OW27359   0.395   1.057  11.225  0.1303  0.6983 -0.0623
 5810SOL    HW127360   0.364   1.148  11.216 -0.0012  0.7962  1.1835
 5810SOL    HW227361   0.460   1.047  11.156 -0.0869  1.6402 -0.4216
 5811SOL     OW27362  10.589   8.245   0.753 -0.8838 -0.5625  0.2292
 5811SOL    HW127363  10.674   8.288   0.746 -0.6861 -1.1394 -1.4813
 5811SOL    HW227364  10.527   8.316   0.767 -0.2176 -0.0676  0.7808
 5812SOL     OW27365   2.712   2.476   6.470 -0.2311  0.0291  0.4437
 5812SOL    HW127366   2.745   2.394   6.431 -0.0075 -0.1759  1.0454
 5812SOL    HW227367   2.707   2.537   6.397  1.9155  0.2051  0.3630
 5813SOL     OW27368   4.395   1.993   0.738  0.2817  0.1046  0.1337
 5813SOL    HW127369   4.454   2.048   0.685 -0.9833  1.9427  0.5425
 5813SOL    HW227370   4.396   2.033   0.824 -3.2139  1.6298 -0.3640
 5814SOL     OW27371  11.834   0.708  11.163  0.3679  0.1218 -0.0611
 5814SOL    HW127372  11.854   0.794  11.199  0.6700 -0.0581  0.2032
 5814SOL    HW227373  11.906   0.653  11.191  1.1881  0.2190 -1.8599
 5815SOL     OW27374   2.333   4.432   3.380 -0.5483 -0.0532  0.3067
 5815SOL    HW127375   2.254   4.378   3.382  0.1839 -1.2114 -0.5704
 5815SOL    HW227376   2.303   4.520   3.398 -2.1176 -0.3898 -0.5193
 5816SOL     OW27377  12.472   6.311  12.704  0.1959  0.4913  0.2465
 5816SOL    HW127378  12.542   6.378  12.704  1.1436 -0.3809  2.4851
 5816SOL    HW227379  12.477   6.272  12.792 -2.1467 -0.6538 -0.0582
 5817SOL     OW27380   6.678   4.087   2.767 -0.0309  0.3346 -0.1274
 5817SOL    HW127381   6.666   4.176   2.732 -0.8853 -0.2711 -1.4792
 5817SOL    HW227382   6.677   4.098   2.862 -2.8531  1.4857 -0.1997
 5818SOL     OW27383  10.248  12.932  11.075  0.8019  0.3224  0.2039
 5818SOL    HW127384  10.212  12.920  11.163 -0.0750 -1.1542 -0.3111
 5818SOL    HW227385  10.248  13.026  11.061 -0.5444  0.4970  1.1933
 5819SOL     OW27386   2.074   2.276  12.917  0.0332 -0.4572  0.0689
 5819SOL    HW127387   2.155   2.257  12.869  0.6535 -1.6692  1.5245
 5819SOL    HW227388   2.098   2.345  12.979 -0.9206  1.5534 -1.6701
 5820SOL     OW27389   0.378  13.129   5.838  0.0420 -0.0899 -0.0330
 5820SOL    HW127390   0.290  13.091   5.833 -0.0594 -0.0337  1.0547
 5820SOL    HW227391   0.424  13.074   5.900  0.2584  0.8625  0.6646
 5821SOL     OW27392   0.645  12.057   6.800 -0.3136 -0.0128  0.0898
 5821SOL    HW127393   0.661  12.079   6.892 -0.3237  2.4508 -0.4321
 5821SOL    HW227394   0.729  12.022   6.769 -0.3239 -0.9204  1.0084
 5822SOL     OW27395   0.394   1.834   2.772 -0.0099  0.8956  0.0172
 5822SOL    HW127396   0.449   1.840   2.694 -0.2877  1.3116 -0.1505
 5822SOL    HW227397   0.330   1.766   2.752 -0.0451  0.9621 -0.0956
 5823SOL     OW27398   0.685   0.020  13.085 -0.4665 -0.1166  0.3285
 5823SOL    HW127399   0.634  -0.018  13.156 -0.4507  0.9951  0.9571
 5823SOL    HW227400   0.758   0.065  13.129  0.0111 -0.1257 -0.4397
 5824SOL     OW27401   4.986   3.482   2.666 -0.3052  0.0538 -0.0854
 5824SOL    HW127402   5.057   3.535   2.631  0.1403  0.5260  1.4838
 5824SOL    HW227403   5.025   3.397   2.683 -0.8908 -0.6743 -2.0888
 5825SOL     OW27404  12.735  11.985   5.136  0.2086 -0.0910 -0.3184
 5825SOL    HW127405  12.818  11.979   5.184  1.4395  0.4339 -2.2261
 5825SOL    HW227406  12.734  11.906   5.081  0.7870  1.1596 -2.2174
 5826SOL     OW27407   2.836   4.034   2.202 -0.0292  0.2817 -0.4177
 5826SOL    HW127408   2.854   4.127   2.193 -1.9047  0.6080 -1.0989
 5826SOL    HW227409   2.847   4.016   2.296  0.6424  1.1011 -0.3336
 5827SOL     OW27410  12.069   1.725  12.296 -0.2595 -0.6262 -0.1388
 5827SOL    HW127411  12.028   1.649  12.337  0.3971 -0.9312 -0.0231
 5827SOL    HW227412  12.012   1.747  12.222 -0.3616 -1.3470 -0.2828
 5828SOL     OW27413   5.144  13.084   4.444  0.2175  0.4676 -0.2509
 5828SOL    HW127414   5.154  13.005   4.497  1.7450 -0.2864 -1.5664
 5828SOL    HW227415   5.089  13.142   4.497  0.9449 -0.5789  1.7517
 5829SOL     OW27416  12.803  10.159   3.586  0.0357 -0.3198  0.4060
 5829SOL    HW127417  12.875  10.101   3.612  1.5028  0.3955 -1.7847
 5829SOL    HW227418  12.770  10.121   3.504 -0.4302  0.7170  0.0942
 5830SOL     OW27419  10.623   3.989   1.833 -0.2629 -0.2919  0.5267
 5830SOL    HW127420  10.589   3.924   1.772 -0.4934 -0.4853  0.8605
 5830SOL    HW227421  10.589   4.073   1.799 -0.8666 -0.4562  0.7119
 5831SOL     OW27422  11.973  12.337  11.782 -0.3027 -0.2613  0.1432
 5831SOL    HW127423  11.905  12.270  11.794 -0.5443  0.1098  0.8724
 5831SOL    HW227424  12.024  12.335  11.863 -0.1596  0.2771  0.0701
 5832SOL     OW27425   4.819  10.942   5.155  0.1529 -0.1461  0.0092
 5832SOL    HW127426   4.788  10.891   5.081 -1.7830 -1.6169  1.7094
 5832SOL    HW227427   4.904  10.903   5.177 -0.0675 -0.8716 -0.3873
 5833SOL     OW27428   4.040   2.925   3.927  0.3481 -0.4697 -0.1396
 5833SOL    HW127429   3.956   2.878   3.925  0.8380 -1.3432 -0.4786
 5833SOL    HW227430   4.061   2.933   4.020  0.0226 -0.4701 -0.0639
 5834SOL     OW27431   8.324   9.351   0.838  0.1386  0.0725 -0.1921
 5834SOL    HW127432   8.282   9.358   0.752 -0.1702 -3.1045 -0.4194
 5834SOL    HW227433   8.417   9.368   0.821  0.5551 -3.1314 -1.7968
 5835SOL     OW27434   7.511  11.745   7.535 -0.0094  0.6767  0.2000
 5835SOL    HW127435   7.504  11.674   7.471 -1.1365  0.2528  0.7752
 5835SOL    HW227436   7.519  11.701   7.619  2.6375  1.2118  0.3149
 5836SOL     OW27437  10.476   3.620   0.993  0.6881  0.2784 -0.3462
 5836SOL    HW127438  10.519   3.642   0.910 -0.2022  0.6054 -0.7414
 5836SOL    HW227439  10.437   3.703   1.022  0.4612  0.0295  0.0755
 5837SOL     OW27440   4.177  10.700  12.349 -0.5723  0.1471 -0.4585
 5837SOL    HW127441   4.269  10.679  12.335 -0.5519  0.3051 -0.5547
 5837SOL    HW227442   4.129  10.625  12.313 -0.5533  0.8320 -1.9542
 5838SOL     OW27443   2.224   5.744   2.230 -0.8508  0.6533 -0.2218
 5838SOL    HW127444   2.250   5.669   2.284  0.1190  1.8138  0.9866
 5838SOL    HW227445   2.242   5.716   2.140 -0.4754 -0.5470  0.2019
 5839SOL     OW27446   2.640   5.341   3.876 -0.3958  0.1421 -0.8984
 5839SOL    HW127447   2.691   5.322   3.955 -1.8590  0.4627  0.1625
 5839SOL    HW227448   2.591   5.420   3.897 -0.5568  0.4428 -2.2857
 5840SOL     OW27449  12.168   4.369   6.660 -0.1351 -0.1601  0.2860
 5840SOL    HW127450  12.124   4.440   6.613  1.8040  0.9893  0.1158
 5840SOL    HW227451  12.205   4.314   6.591 -0.6767 -0.7373  0.4419
 5841SOL     OW27452  10.621   1.154  11.636 -0.5521 -0.4409 -0.1135
 5841SOL    HW127453  10.649   1.142  11.545 -0.3381  0.8105 -0.2372
 5841SOL    HW227454  10.673   1.091  11.686  0.1813 -0.3379 -0.7296
 5842SOL     OW27455  10.247   5.674   4.097  0.0053  0.3589  0.0375
 5842SOL    HW127456  10.240   5.643   4.188  0.1186 -1.2653 -0.4645
 5842SOL    HW227457  10.175   5.629   4.052  0.0738  0.9976 -0.7157
 5843SOL     OW27458   3.007   8.545   5.615  0.3757  0.4912  0.0718
 5843SOL    HW127459   2.951   8.620   5.635 -0.5598  0.1067 -1.0155
 5843SOL    HW227460   3.068   8.578   5.549  0.8116  0.6463  0.5500
 5844SOL     OW27461   7.347   5.210  12.325  0.3775  0.0949 -0.1272
 5844SOL    HW127462   7.319   5.295  12.359  1.1182 -0.3774  1.8172
 5844SOL    HW227463   7.268   5.156  12.329  0.1448  0.4118 -0.4022
 5845SOL     OW27464   3.239  11.880  12.222 -0.3718 -0.3654  0.2875
 5845SOL    HW127465   3.284  11.796  12.221  0.2247 -0.1737  2.9371
 5845SOL    HW227466   3.165  11.869  12.163 -0.4468 -2.8406  0.7556
 5846SOL     OW27467   8.454   6.482   3.451  0.2567 -0.5129  0.0569
 5846SOL    HW127468   8.496   6.437   3.377  0.3771 -0.5588  0.1545
 5846SOL    HW227469   8.499   6.450   3.528  0.2641 -0.3130  0.1371
 5847SOL     OW27470   0.871   1.484   4.030 -0.1038 -0.0553  0.0479
 5847SOL    HW127471   0.862   1.559   4.088  2.1035 -0.3749  0.8971
 5847SOL    HW227472   0.876   1.522   3.942 -0.6525  0.6419  0.3085
 5848SOL     OW27473  11.952   9.768   8.326 -0.2986  0.5686  0.0682
 5848SOL    HW127474  11.929   9.695   8.384 -1.0463  1.8890  1.4996
 5848SOL    HW227475  11.873   9.822   8.323  0.8929  2.4720  0.8554
 5849SOL     OW27476   1.071   4.642   7.029  0.0746 -0.1959 -0.4582
 5849SOL    HW127477   1.121   4.707   6.980 -0.0269 -0.1813 -0.5440
 5849SOL    HW227478   1.125   4.563   7.027  1.4628  0.6120  1.9208
 5850SOL     OW27479  12.728   3.624   8.352  0.2004 -0.4696 -0.0509
 5850SOL    HW127480  12.817   3.648   8.325 -0.0699  2.9618  1.5238
 5850SOL    HW227481  12.671   3.684   8.304 -1.1479 -1.3990  0.3070
 5851SOL     OW27482  11.971   1.588  11.409 -0.1562  0.0162 -0.1250
 5851SOL    HW127483  11.981   1.638  11.328  0.1420 -0.5810 -0.4594
 5851SOL    HW227484  11.933   1.505  11.381 -1.2048  0.2675  0.4961
 5852SOL     OW27485   9.820   9.741   5.350  0.5070 -0.3530 -0.0373
 5852SOL    HW127486   9.790   9.818   5.302  1.8093  0.6460  0.6941
 5852SOL    HW227487   9.902   9.716   5.307 -0.2994 -1.8810 -0.7975
 5853SOL     OW27488  13.235   4.124   0.445  0.2116 -0.1114  0.2792
 5853SOL    HW127489  13.285   4.188   0.496  0.3436  1.1969 -1.4023
 5853SOL    HW227490  13.144   4.142   0.468  0.1634  1.5535 -1.0873
 5854SOL     OW27491   2.297   5.381   9.975  0.1809 -0.4163 -0.4407
 5854SOL    HW127492   2.286   5.286   9.964 -0.5345 -0.2122 -1.7060
 5854SOL    HW227493   2.210   5.417   9.958 -0.0937  0.3448  2.1355
 5855SOL     OW27494   3.033   9.175  10.754 -0.1994  0.2474 -0.2250
 5855SOL    HW127495   2.983   9.157  10.674  0.8501  1.3560 -1.1670
 5855SOL    HW227496   2.971   9.157  10.825 -1.0819 -1.0130 -1.2504
 5856SOL     OW27497  10.408   8.663   2.872 -0.2499 -0.0398 -0.4384
 5856SOL    HW127498  10.345   8.650   2.943 -0.4052 -0.1689 -0.5978
 5856SOL    HW227499  10.358   8.645   2.792  0.4988 -2.1313 -0.4767
 5857SOL     OW27500   6.986  11.452   5.104 -0.6468  0.0069  0.1316
 5857SOL    HW127501   6.935  11.420   5.029  0.6047 -0.4690 -0.5383
 5857SOL    HW227502   6.996  11.376   5.161 -2.6177  0.6386  1.4294
 5858SOL     OW27503   6.136   6.514  13.207  0.0238  0.4777  0.3114
 5858SOL    HW127504   6.168   6.431  13.173 -0.9456  0.8462 -1.6263
 5858SOL    HW227505   6.192   6.580  13.165  0.6322  0.8447  1.6477
 5859SOL     OW27506   8.173   2.509  12.315  0.1896 -0.2954 -0.3090
 5859SOL    HW127507   8.209   2.534  12.400  1.0040  0.7196 -0.9307
 5859SOL    HW227508   8.085   2.548  12.314 -0.5924 -1.9071  0.7984
 5860SOL     OW27509  12.693  13.053   6.790  0.2089 -0.1011  0.0680
 5860SOL    HW127510  12.736  13.039   6.705  1.9955  0.5519  0.8174
 5860SOL    HW227511  12.718  12.978   6.843  0.6105  0.3856  0.5809
 5861SOL     OW27512   3.291   2.908   8.504  0.4997  0.2084 -0.2019
 5861SOL    HW127513   3.200   2.879   8.501  0.6843 -0.4466  0.4188
 5861SOL    HW227514   3.341   2.829   8.524  1.4043  0.1766 -2.3350
 5862SOL     OW27515   9.081   8.946   2.906  0.0147  0.1045 -0.2081
 5862SOL    HW127516   9.108   8.928   2.816  1.2920  0.5199  0.0666
 5862SOL    HW227517   9.066   8.860   2.945 -0.9373 -0.0597 -0.9313
 5863SOL     OW27518   3.704   9.229  11.853  0.1178 -0.3415  0.0786
 5863SOL    HW127519   3.642   9.280  11.801  0.4780  0.7615  0.6855
 5863SOL    HW227520   3.666   9.229  11.941  2.1984  2.7161  1.1553
 5864SOL     OW27521   6.044  11.059   5.880  0.1243 -0.2595 -0.5576
 5864SOL    HW127522   6.135  11.089   5.880  0.2604 -0.3003  2.8282
 5864SOL    HW227523   6.044  10.981   5.935 -1.7630 -1.2098 -1.7783
 5865SOL     OW27524   1.431   1.626   6.359 -0.9052 -0.4665  0.2315
 5865SOL    HW127525   1.355   1.667   6.400 -1.1640  0.4590 -1.1064
 5865SOL    HW227526   1.491   1.699   6.342 -0.4485 -0.9479 -0.2592
 5866SOL     OW27527  10.266   5.144   5.664 -0.4883  0.4045  0.0475
 5866SOL    HW127528  10.348   5.096   5.656 -1.1982 -0.8303 -0.2267
 5866SOL    HW227529  10.225   5.138   5.578 -0.9251  0.8852  0.2120
 5867SOL     OW27530   4.835  11.516   7.437  0.6129 -0.3613 -0.8295
 5867SOL    HW127531   4.750  11.555   7.460 -0.4264 -1.5283 -2.4388
 5867SOL    HW227532   4.883  11.588   7.395 -0.3725 -0.1684 -1.6777
 5868SOL     OW27533   8.603  11.643   2.830 -0.3776  0.6661  0.8503
 5868SOL    HW127534   8.675  11.675   2.884 -0.1271  0.3635  0.6946
 5868SOL    HW227535   8.573  11.564   2.875  0.6401 -0.3001 -0.0944
 5869SOL     OW27536   3.732   4.530   2.124 -0.3100 -0.0181 -0.3817
 5869SOL    HW127537   3.751   4.448   2.170 -0.2191  0.9052  1.3210
 5869SOL    HW227538   3.691   4.503   2.042 -0.0543 -1.7628  0.0232
 5870SOL     OW27539  12.407   9.150   3.987 -0.0202  0.0421 -0.5206
 5870SOL    HW127540  12.476   9.154   3.921  0.7554  0.7200  0.3164
 5870SOL    HW227541  12.334   9.108   3.942  0.5037  0.4591 -1.8074
 5871SOL     OW27542   9.026   7.361   5.163  0.2975 -0.3459  0.2743
 5871SOL    HW127543   9.017   7.425   5.233  0.6835  0.4802 -0.4234
 5871SOL    HW227544   9.084   7.402   5.099 -0.5720 -0.8005 -0.8506
 5872SOL     OW27545   5.694   8.051   4.951 -0.2328  0.1680  0.2182
 5872SOL    HW127546   5.655   7.975   4.909  0.2146  0.4146 -0.6663
 5872SOL    HW227547   5.782   8.022   4.974 -0.1709  0.3148  0.1662
 5873SOL     OW27548  12.997   5.277  11.821 -0.4363 -0.1628  0.3368
 5873SOL    HW127549  13.001   5.238  11.734 -1.6176  0.5067 -0.0369
 5873SOL    HW227550  13.008   5.371  11.806  0.2974 -0.1296  1.0164
 5874SOL     OW27551   8.629  12.956   7.016  0.4919  0.3299  0.0075
 5874SOL    HW127552   8.692  12.905   7.067 -0.6142 -0.5103  0.5734
 5874SOL    HW227553   8.667  12.961   6.929  1.3599 -0.1138  0.3469
 5875SOL     OW27554   2.413   2.515   5.162 -0.0324 -0.0598  0.0962
 5875SOL    HW127555   2.337   2.469   5.197 -1.0488  1.0157 -0.6266
 5875SOL    HW227556   2.434   2.469   5.081  0.9539 -1.1845  0.9522
 5876SOL     OW27557   7.108   4.209  13.068  0.1438 -0.5811  1.0284
 5876SOL    HW127558   7.062   4.291  13.081  1.0252 -0.3032  2.7038
 5876SOL    HW227559   7.078   4.178  12.983 -0.4309  1.3139  0.4883
 5877SOL     OW27560  11.112   6.867   9.033 -0.0702  0.0354  0.2850
 5877SOL    HW127561  11.093   6.780   9.067  1.5984  0.1105  1.5591
 5877SOL    HW227562  11.074   6.867   8.945 -1.2653 -1.4940  0.7549
 5878SOL     OW27563   8.593   8.082  10.130 -0.0790 -0.0940  0.5548
 5878SOL    HW127564   8.591   8.060  10.223 -0.5059  0.1798  0.6138
 5878SOL    HW227565   8.508   8.121  10.113 -0.4853 -1.2640 -0.2301
 5879SOL     OW27566  12.271   0.710   3.743  0.5235 -0.2585  0.2806
 5879SOL    HW127567  12.307   0.783   3.692 -0.6896  0.4568  0.3921
 5879SOL    HW227568  12.251   0.748   3.828 -1.3598 -0.3475 -0.0785
 5880SOL     OW27569  11.062   5.670   6.845 -0.2453 -0.0147 -0.1453
 5880SOL    HW127570  11.155   5.665   6.869 -0.0959  0.3519 -0.6277
 5880SOL    HW227571  11.049   5.595   6.787  0.1080  0.7242 -1.2146
 5881SOL     OW27572   1.777  11.282  12.347 -0.2481  0.0243 -0.1798
 5881SOL    HW127573   1.856  11.229  12.345  0.8221  1.4542  1.0864
 5881SOL    HW227574   1.796  11.357  12.290 -1.2510 -0.2980 -0.9788
 5882SOL     OW27575   2.675   4.240   4.360  0.3868 -0.5019 -0.4578
 5882SOL    HW127576   2.592   4.205   4.326 -0.3515  1.0190 -0.3011
 5882SOL    HW227577   2.651   4.323   4.400  1.9401 -0.2409 -0.0146
 5883SOL     OW27578  10.907   1.651   0.367 -0.0331 -0.7571 -0.2409
 5883SOL    HW127579  10.992   1.683   0.335  0.9154  0.2580  2.9440
 5883SOL    HW227580  10.929   1.591   0.438 -1.8733  1.6940  2.6089
 5884SOL     OW27581   5.364   6.391   9.546 -0.0878 -0.1734 -0.3344
 5884SOL    HW127582   5.414   6.318   9.582  0.2329  0.3016  0.2011
 5884SOL    HW227583   5.273   6.374   9.573 -0.2355 -1.0520 -1.3372
 5885SOL     OW27584   8.416  12.812   5.402  0.6202  0.3164  0.5530
 5885SOL    HW127585   8.425  12.853   5.488  0.2372  0.9587  0.3000
 5885SOL    HW227586   8.331  12.768   5.406 -1.3614  3.6263 -0.7493
 5886SOL     OW27587   2.016   8.853   3.978 -0.7194 -0.3775 -0.6397
 5886SOL    HW127588   2.065   8.772   3.966 -0.4934 -0.1926 -0.9530
 5886SOL    HW227589   1.929   8.833   3.943 -1.3465 -1.1793  1.2293
 5887SOL     OW27590   3.770   4.784   7.780 -0.0492  0.1238 -0.5489
 5887SOL    HW127591   3.675   4.795   7.776 -0.0372  0.7420  0.5083
 5887SOL    HW227592   3.804   4.846   7.715 -0.3413  0.6396 -0.2234
 5888SOL     OW27593   2.845  10.805   6.176 -0.0993 -0.5539  0.1832
 5888SOL    HW127594   2.924  10.811   6.230  0.4300 -0.2287 -0.6014
 5888SOL    HW227595   2.875  10.825   6.088 -1.4743  2.0169  0.2076
 5889SOL     OW27596  10.008  10.352   0.938  0.3154  0.9135 -0.3824
 5889SOL    HW127597   9.941  10.325   1.001 -0.5583  0.7426 -1.3622
 5889SOL    HW227598   9.988  10.444   0.920  0.4832  0.9244 -0.5082
 5890SOL     OW27599   8.767   9.163  10.185  0.3635 -0.2267 -0.5937
 5890SOL    HW127600   8.832   9.178  10.117  1.7979  0.5817  0.8971
 5890SOL    HW227601   8.817   9.160  10.267 -1.2129 -1.8018  0.4024
 5891SOL     OW27602   5.338   2.316   1.823  0.0436  0.0629  0.3638
 5891SOL    HW127603   5.284   2.394   1.811 -0.0292 -0.0787 -0.2594
 5891SOL    HW227604   5.298   2.250   1.766 -0.9680 -0.9818  2.1716
 5892SOL     OW27605  11.480   3.430   2.875 -0.5859  0.0681 -0.2231
 5892SOL    HW127606  11.507   3.511   2.918  0.8893 -0.3031 -0.3717
 5892SOL    HW227607  11.390   3.446   2.847  0.0081  2.0598 -1.2023
 5893SOL     OW27608   0.977  10.782  11.887 -0.1403  0.0569  0.3578
 5893SOL    HW127609   0.912  10.851  11.870 -0.9770 -1.0952 -1.2763
 5893SOL    HW227610   0.932  10.700  11.867  0.9348 -0.9874  1.9697
 5894SOL     OW27611   5.560   1.325  13.189  0.3923 -0.0104  0.2706
 5894SOL    HW127612   5.537   1.232  13.190  1.6563 -0.3462  1.0899
 5894SOL    HW227613   5.506   1.364  13.258 -0.2540 -0.1050 -0.1804
 5895SOL     OW27614   0.197   2.037   1.805 -0.0493  0.0918  0.2441
 5895SOL    HW127615   0.269   2.072   1.751 -1.2880  2.0753 -0.2125
 5895SOL    HW227616   0.141   1.991   1.742  1.3909 -2.6460  0.7911
 5896SOL     OW27617   9.544  13.156  12.419  0.0367 -0.2338 -0.1849
 5896SOL    HW127618   9.576  13.237  12.380 -1.0976  0.8304  1.0109
 5896SOL    HW227619   9.601  13.088  12.383 -0.1182  0.8281 -2.6104
 5897SOL     OW27620   1.395   0.496   2.835 -0.4078 -0.3916  0.5812
 5897SOL    HW127621   1.422   0.448   2.757 -0.7165 -0.4513  0.5067
 5897SOL    HW227622   1.387   0.587   2.806 -0.2144 -0.3609  0.6225
 5898SOL     OW27623   8.135   4.839  12.811  0.0493 -0.7694  0.2012
 5898SOL    HW127624   8.091   4.768  12.764  0.9743 -0.8579 -0.5444
 5898SOL    HW227625   8.190   4.796  12.875  0.1750 -0.7003  0.1399
 5899SOL     OW27626   3.999   1.891   0.371 -0.3355  0.6061 -0.0206
 5899SOL    HW127627   4.079   1.899   0.318 -0.6870  1.2098 -0.4687
 5899SOL    HW227628   4.024   1.832   0.442  0.4112  0.5091 -0.3479
 5900SOL     OW27629   6.492   0.331   5.209 -0.0574 -0.4593 -0.4882
 5900SOL    HW127630   6.466   0.250   5.253 -0.5707 -0.4616 -0.7921
 5900SOL    HW227631   6.515   0.304   5.120  1.1038 -0.4740 -0.2010
 5901SOL     OW27632   8.943   0.956   5.173  0.0994 -0.2795  0.0350
 5901SOL    HW127633   8.883   1.028   5.191  1.0605  0.8627 -1.1907
 5901SOL    HW227634   9.026   0.998   5.151  0.3509 -1.6706 -1.9965
 5902SOL     OW27635   3.609   1.016   9.453  1.0466 -0.4972  0.0385
 5902SOL    HW127636   3.587   1.108   9.437 -0.9972 -0.8742  0.3597
 5902SOL    HW227637   3.572   0.969   9.378 -1.7426 -1.4378  1.8314
 5903SOL     OW27638  12.006   8.996   3.015 -0.3653 -0.3824  0.5431
 5903SOL    HW127639  12.071   8.933   3.045 -1.1579 -1.0718  0.8607
 5903SOL    HW227640  12.055   9.059   2.963  0.3536 -1.6652 -0.3848
 5904SOL     OW27641   0.028   7.793   9.917  0.3351  0.1435 -0.2553
 5904SOL    HW127642   0.075   7.725   9.870 -0.6327 -2.4215  2.2017
 5904SOL    HW227643   0.088   7.820   9.987 -0.9216 -1.6841  1.6421
 5905SOL     OW27644   0.371   4.119   9.272  0.4690  0.5041  0.5736
 5905SOL    HW127645   0.353   4.110   9.365 -1.4743  0.1193  0.2131
 5905SOL    HW227646   0.319   4.195   9.244  1.4929  0.9784 -0.0925
 5906SOL     OW27647   3.635   0.901   7.572  0.3746 -0.4645 -0.6152
 5906SOL    HW127648   3.599   0.859   7.494 -0.5110 -0.6678 -0.1031
 5906SOL    HW227649   3.672   0.830   7.623 -0.9552 -0.6358  0.1601
 5907SOL     OW27650   4.444  11.727   5.544  0.1236  0.2580  0.4501
 5907SOL    HW127651   4.520  11.772   5.509  0.1663  0.5038  0.8485
 5907SOL    HW227652   4.417  11.780   5.619 -0.0586 -0.1687  0.6924
 5908SOL     OW27653   2.901  12.396   0.172  0.0940 -0.1990 -0.2224
 5908SOL    HW127654   2.820  12.369   0.128 -0.5693  1.5239 -0.1468
 5908SOL    HW227655   2.970  12.346   0.128 -0.8851 -0.8025 -1.1172
 5909SOL     OW27656   5.469  10.661   8.820 -0.1476 -0.5148  0.1410
 5909SOL    HW127657   5.379  10.684   8.798 -0.2134  1.1343  1.9477
 5909SOL    HW227658   5.503  10.737   8.867  1.1386 -2.3227  2.3425
 5910SOL     OW27659   0.484   1.209   0.490  0.0348 -0.0538  0.2670
 5910SOL    HW127660   0.541   1.169   0.556 -1.2623  1.2928  2.3079
 5910SOL    HW227661   0.539   1.275   0.447  0.3882  0.3654  1.3410
 5911SOL     OW27662  12.745   7.705   7.082  0.4657  0.5736 -0.3598
 5911SOL    HW127663  12.686   7.684   7.010 -1.3254  0.9167  0.9481
 5911SOL    HW227664  12.818   7.644   7.072 -1.4761 -1.8906 -0.3804
 5912SOL     OW27665   4.505   2.545   4.784 -0.2056 -0.2567  0.7856
 5912SOL    HW127666   4.570   2.608   4.752 -0.6727  0.0666  0.4625
 5912SOL    HW227667   4.513   2.547   4.879  1.7897 -1.8296  0.7131
 5913SOL     OW27668   3.577  11.251   8.509 -0.2217 -0.5713 -0.4194
 5913SOL    HW127669   3.581  11.196   8.430 -0.9110 -1.4734  0.1583
 5913SOL    HW227670   3.657  11.230   8.557 -0.8921 -1.7471  0.2204
 5914SOL     OW27671   9.407  10.764   1.276  0.2025  0.4062  0.2370
 5914SOL    HW127672   9.379  10.775   1.185 -0.0055  0.3080  0.2858
 5914SOL    HW227673   9.329  10.731   1.320  0.1326  1.0134  0.5764
 5915SOL     OW27674   8.855   4.489   8.141  0.1231  0.5814 -0.0615
 5915SOL    HW127675   8.804   4.557   8.097 -0.2456  1.3163  1.4148
 5915SOL    HW227676   8.928   4.536   8.182  0.8203 -0.1636 -0.4205
 5916SOL     OW27677   7.136   2.962   7.898 -0.0726  0.0357 -0.4751
 5916SOL    HW127678   7.063   2.900   7.897  1.5054 -1.9354 -2.4534
 5916SOL    HW227679   7.205   2.918   7.947  0.2635  1.3197  0.2589
 5917SOL     OW27680   6.652   3.192   1.334 -0.1038 -0.7841 -0.1673
 5917SOL    HW127681   6.722   3.256   1.344 -1.9045  1.1770  0.6056
 5917SOL    HW227682   6.615   3.210   1.247 -0.3788 -1.0228 -0.1022
 5918SOL     OW27683   1.842  10.335  11.794 -0.4599  0.2282 -0.3383
 5918SOL    HW127684   1.827  10.248  11.755  0.2026 -0.4893  0.9465
 5918SOL    HW227685   1.779  10.392  11.749 -1.1213 -0.9683 -0.9972
 5919SOL     OW27686  11.274   2.771   3.967 -0.1244  0.2966  0.2962
 5919SOL    HW127687  11.354   2.726   3.993 -0.0712 -0.4722 -1.0581
 5919SOL    HW227688  11.224   2.704   3.920  0.1168  1.7192 -2.1351
 5920SOL     OW27689   0.944   4.363   6.000 -0.5563  0.2426  0.6826
 5920SOL    HW127690   0.971   4.277   6.030 -1.8419 -0.2907  0.3764
 5920SOL    HW227691   1.015   4.422   6.027  0.6788 -1.0101  0.2387
 5921SOL     OW27692   5.209   8.934  11.218  0.2598 -0.0689  0.0250
 5921SOL    HW127693   5.133   8.993  11.219 -0.8124 -1.4005 -0.2583
 5921SOL    HW227694   5.282   8.990  11.193 -0.7940  1.0692 -0.6162
 5922SOL     OW27695   5.912   0.146   1.127  0.1953 -0.1314 -0.3494
 5922SOL    HW127696   5.902   0.116   1.217  0.8132  0.8323  0.0513
 5922SOL    HW227697   5.824   0.137   1.089  0.0869 -1.2058  0.1232
 5923SOL     OW27698   3.159   0.544  10.257 -0.2828 -0.0664 -0.3477
 5923SOL    HW127699   3.128   0.488  10.328 -0.3696  1.3734  0.7904
 5923SOL    HW227700   3.078   0.578  10.217 -0.2446  0.8972  0.3483
 5924SOL     OW27701   2.513   1.956   7.150 -0.1929  0.1428  0.3594
 5924SOL    HW127702   2.430   1.910   7.165 -0.6016  0.4952 -0.6964
 5924SOL    HW227703   2.564   1.940   7.229 -1.4410  0.2907  1.2326
 5925SOL     OW27704   4.323   6.617   0.535  0.0412  0.6561  0.3274
 5925SOL    HW127705   4.389   6.577   0.590  0.2137 -0.1050 -0.4130
 5925SOL    HW227706   4.282   6.683   0.591  1.4766  1.2076  0.7706
 5926SOL     OW27707   9.418   6.750   3.992  0.0441 -0.4638  0.0518
 5926SOL    HW127708   9.489   6.709   3.941 -0.2158  0.9607 -1.5643
 5926SOL    HW227709   9.436   6.843   3.986 -1.5977 -0.1151  0.2003
 5927SOL     OW27710   2.911   9.831   8.020  0.1896 -0.2154  0.3671
 5927SOL    HW127711   2.865   9.783   7.951 -1.4200 -1.8810  2.4863
 5927SOL    HW227712   2.995   9.855   7.980  0.1125 -2.7500 -1.5554
 5928SOL     OW27713   6.027   6.333  11.850  0.0609 -0.0140  0.1955
 5928SOL    HW127714   5.956   6.388  11.880 -2.0934 -1.6325 -1.5632
 5928SOL    HW227715   6.048   6.277  11.925 -3.7968 -2.6132 -0.3669
 5929SOL     OW27716   2.843  10.681   4.037  0.8112  0.1295 -0.1081
 5929SOL    HW127717   2.867  10.655   4.126  0.9986 -0.1163 -0.2307
 5929SOL    HW227718   2.748  10.694   4.041  0.9075  0.7789  0.2951
 5930SOL     OW27719  11.409   5.037   8.265  0.1593 -0.6014  0.8528
 5930SOL    HW127720  11.370   5.088   8.194 -1.0170 -2.6964 -0.1110
 5930SOL    HW227721  11.347   5.047   8.338 -1.0021 -1.9922  0.0997
 5931SOL     OW27722   2.067   2.799  12.955 -0.3855 -0.1340 -0.3027
 5931SOL    HW127723   2.151   2.820  12.994 -0.7274  0.1558  0.2935
 5931SOL    HW227724   2.003   2.840  13.013 -1.0019 -1.4629 -0.0297
 5932SOL     OW27725   9.204   2.428  12.908  0.0260  0.3268 -0.8049
 5932SOL    HW127726   9.157   2.385  12.979  1.5732  1.2084  0.8275
 5932SOL    HW227727   9.252   2.358  12.864 -1.3813 -0.3090 -1.3682
 5933SOL     OW27728   1.194  13.192   9.089  0.1041 -0.5757  0.0932
 5933SOL    HW127729   1.263  13.149   9.140  0.0272 -0.5915  0.1858
 5933SOL    HW227730   1.219  13.178   8.998 -0.7790 -2.2878  0.0605
 5934SOL     OW27731   3.446  11.939   8.446  0.5093 -0.3637 -0.3155
 5934SOL    HW127732   3.455  11.880   8.372  0.4567  0.8002 -1.2878
 5934SOL    HW227733   3.365  11.987   8.429 -0.4148 -1.2379  1.3685
 5935SOL     OW27734   6.356  10.010   8.242 -0.0848  1.0317  0.0614
 5935SOL    HW127735   6.333  10.070   8.313 -1.7389  1.6101 -0.9260
 5935SOL    HW227736   6.338   9.923   8.278 -1.0945  1.3304  0.3121
 5936SOL     OW27737   6.196   8.972   3.325 -0.3164  0.1423 -0.0108
 5936SOL    HW127738   6.183   8.984   3.420  0.4578  0.8007  0.0241
 5936SOL    HW227739   6.108   8.980   3.288 -0.5642  0.3651  0.6114
 5937SOL     OW27740   4.272  12.358   0.572 -0.1338  0.5825  0.0658
 5937SOL    HW127741   4.267  12.273   0.616 -1.4248  0.8214  0.4212
 5937SOL    HW227742   4.327  12.342   0.496 -0.0296 -0.4782  0.3504
 5938SOL     OW27743   2.295   7.288   4.590 -0.2248  0.0195 -0.2429
 5938SOL    HW127744   2.282   7.322   4.502  3.2333 -1.8576 -1.6710
 5938SOL    HW227745   2.353   7.351   4.632 -0.4887  0.0385  0.1023
 5939SOL     OW27746   3.808   2.376  12.127 -0.4589 -0.0046  0.0190
 5939SOL    HW127747   3.821   2.377  12.032 -0.9446  1.1054 -0.0469
 5939SOL    HW227748   3.852   2.296  12.156  0.9972  0.3882 -0.9581
 5940SOL     OW27749   5.674   0.218  10.348 -0.5606  0.1512 -0.2842
 5940SOL    HW127750   5.608   0.199  10.415 -0.5628  1.0137 -0.0303
 5940SOL    HW227751   5.749   0.163  10.373 -1.4093 -1.3848 -0.9922
 5941SOL     OW27752  10.464   1.641   1.793  0.1358 -0.2277 -0.2558
 5941SOL    HW127753  10.459   1.735   1.808 -0.8666 -0.4904  1.3250
 5941SOL    HW227754  10.555   1.618   1.814 -0.0861  0.1332  1.2260
 5942SOL     OW27755   0.942   4.381   9.222 -0.1670  0.1812 -0.4285
 5942SOL    HW127756   0.891   4.300   9.218 -1.5273  1.0474 -1.8231
 5942SOL    HW227757   0.916   4.430   9.144  0.8671  1.8296  0.1979
 5943SOL     OW27758   8.787  10.677   6.792 -0.3375  0.4736 -0.0404
 5943SOL    HW127759   8.711  10.654   6.739  1.0635  0.7825 -2.3270
 5943SOL    HW227760   8.765  10.762   6.830 -1.3157  0.3348 -0.2880
 5944SOL     OW27761   2.075   2.132  12.392  0.0860 -0.1026 -0.3076
 5944SOL    HW127762   2.070   2.146  12.487 -0.0760  2.0157 -0.5776
 5944SOL    HW227763   2.084   2.220  12.356 -0.5632 -0.8149 -2.3095
 5945SOL     OW27764   2.064  12.412   7.763  0.0748  0.2076  0.1114
 5945SOL    HW127765   2.015  12.398   7.844  0.2001  2.0021  0.5484
 5945SOL    HW227766   2.132  12.474   7.787  1.3488 -0.7404 -0.9471
 5946SOL     OW27767   2.848  10.858   8.302 -0.0225  0.4297  0.3505
 5946SOL    HW127768   2.791  10.782   8.315  0.5084  0.0690  0.6052
 5946SOL    HW227769   2.868  10.887   8.391  0.5126  0.3071  0.2744
 5947SOL     OW27770  10.970   1.194  12.426 -0.3178 -0.2322 -0.5881
 5947SOL    HW127771  10.958   1.177  12.333  0.4146  0.5043 -0.8259
 5947SOL    HW227772  11.049   1.248  12.431  0.3513 -1.2418  0.5429
 5948SOL     OW27773   5.005   4.361   1.109  0.1265 -0.7496  0.3843
 5948SOL    HW127774   4.995   4.417   1.032 -0.9160 -1.2441  0.1464
 5948SOL    HW227775   4.974   4.414   1.182  0.9186 -0.3559  0.4502
 5949SOL     OW27776  11.960   0.412  12.407 -0.1336 -0.4022 -0.2478
 5949SOL    HW127777  12.035   0.354  12.389  0.2808  0.7007 -2.3508
 5949SOL    HW227778  11.936   0.391  12.497  2.1840 -1.3897  0.2325
 5950SOL     OW27779  10.303   8.969  12.126 -0.5057 -0.4926  0.4168
 5950SOL    HW127780  10.345   8.984  12.042 -1.7910  0.3794 -0.1084
 5950SOL    HW227781  10.209   8.968  12.106 -0.7769 -2.7015  1.4770
 5951SOL     OW27782   1.440   6.778   1.797 -0.0304  0.0133  0.2917
 5951SOL    HW127783   1.432   6.838   1.872 -1.2463  0.2164  0.0175
 5951SOL    HW227784   1.394   6.699   1.826 -0.5511  0.1136 -0.2448
 5952SOL     OW27785  12.532   4.631   3.819  0.5313 -0.0837  0.3043
 5952SOL    HW127786  12.440   4.633   3.844  0.1027  0.9690 -1.1868
 5952SOL    HW227787  12.574   4.575   3.884 -1.5420 -2.4085 -0.1847
 5953SOL     OW27788   6.735  12.418   9.511 -0.1454  0.3322 -0.3239
 5953SOL    HW127789   6.717  12.407   9.418  0.2374  0.9559 -0.4771
 5953SOL    HW227790   6.816  12.468   9.514  0.0583 -0.0258  0.3481
 5954SOL     OW27791  11.328  10.121   7.438 -0.5419 -0.7257 -0.1762
 5954SOL    HW127792  11.264  10.152   7.503 -1.0355 -0.9473 -0.5480
 5954SOL    HW227793  11.336  10.194   7.376  1.0866  0.1070  0.9324
 5955SOL     OW27794  11.018   2.484  12.682 -0.5068  0.3440  0.1275
 5955SOL    HW127795  10.983   2.537  12.754 -0.5353  0.0290  0.3495
 5955SOL    HW227796  11.113   2.486  12.694 -0.5696 -1.2553  1.3182
 5956SOL     OW27797   5.688   5.844   9.616 -0.2571  0.4485 -0.2053
 5956SOL    HW127798   5.604   5.889   9.625 -0.0347  0.6764  0.9827
 5956SOL    HW227799   5.751   5.904   9.656 -0.0629 -1.2050  2.2220
 5957SOL     OW27800   6.005   2.148   5.750  0.4873  0.5509  0.4833
 5957SOL    HW127801   5.947   2.100   5.809 -1.6319  3.2956  0.8299
 5957SOL    HW227802   5.970   2.132   5.662  0.6873  0.2871  0.4518
 5958SOL     OW27803   2.284   8.616   9.013  0.3328  0.4898  0.3685
 5958SOL    HW127804   2.247   8.527   9.010  0.2950  0.5307 -1.1786
 5958SOL    HW227805   2.230   8.661   9.078 -1.9298  0.3139 -1.2396
 5959SOL     OW27806   8.231   6.467   8.600  0.3431 -0.4156 -0.0217
 5959SOL    HW127807   8.270   6.382   8.581  1.3009  0.3042 -1.4434
 5959SOL    HW227808   8.162   6.477   8.535  2.8121  1.5237 -2.5600
 5960SOL     OW27809   0.063   8.586  10.688  0.0524  0.3868  0.4200
 5960SOL    HW127810   0.007   8.556  10.759  1.1588 -1.1798  0.6948
 5960SOL    HW227811   0.140   8.622  10.732  0.2160  0.5172  0.0311
 5961SOL     OW27812   7.163   5.509  12.211 -0.1054  0.1774 -0.1768
 5961SOL    HW127813   7.132   5.446  12.277 -0.1565  1.0050  0.5968
 5961SOL    HW227814   7.203   5.579  12.261  0.9523  0.2431 -1.0901
 5962SOL     OW27815   5.606   9.324   1.256 -0.5327  0.1406  0.7163
 5962SOL    HW127816   5.551   9.398   1.231 -0.8473  0.3991  2.0692
 5962SOL    HW227817   5.675   9.363   1.309  0.4151 -0.3087 -0.1621
 5963SOL     OW27818   1.272   2.924   6.215 -0.1386 -0.2084  0.1664
 5963SOL    HW127819   1.288   3.010   6.255  0.3120  0.2984 -1.0428
 5963SOL    HW227820   1.291   2.861   6.285  2.0866  0.5835  0.3700
 5964SOL     OW27821  10.631   4.673   0.226  0.2517  0.3204  0.2666
 5964SOL    HW127822  10.641   4.602   0.162 -1.3100  0.3640 -0.0600
 5964SOL    HW227823  10.639   4.629   0.311  1.3104  0.0968  0.0649
 5965SOL     OW27824   7.066  12.596   1.974 -0.1715 -0.3293 -0.0138
 5965SOL    HW127825   7.005  12.655   1.930  1.4204  1.4474  0.0260
 5965SOL    HW227826   7.153  12.629   1.949  0.7756 -1.2648  1.8696
 5966SOL     OW27827   6.470   7.110  10.418  0.0656  0.6981  0.1438
 5966SOL    HW127828   6.431   7.055  10.350  0.5240  0.0554  0.3859
 5966SOL    HW227829   6.421   7.192  10.414 -1.5322 -0.2002  0.6683
 5967SOL     OW27830  13.234   3.474   9.313 -0.0080 -0.2908  0.0850
 5967SOL    HW127831  13.287   3.498   9.237 -0.0897  1.1957  0.4491
 5967SOL    HW227832  13.159   3.427   9.276  1.2606 -1.9307 -0.4817
 5968SOL     OW27833   1.785   4.183   2.712 -0.6740 -0.0953 -0.2970
 5968SOL    HW127834   1.760   4.127   2.639  0.8190  0.6392 -1.4290
 5968SOL    HW227835   1.719   4.252   2.713 -0.3950  0.1971 -1.3307
 5969SOL     OW27836   0.076   1.511  11.584  0.1611 -0.2238  0.2516
 5969SOL    HW127837   0.109   1.589  11.539  1.8661  0.2213  2.1218
 5969SOL    HW227838  -0.019   1.522  11.585  0.0853  0.1090 -2.4453
 5970SOL     OW27839  11.535   4.381   3.297 -0.5989 -0.1251 -0.6342
 5970SOL    HW127840  11.593   4.305   3.306  0.1900  0.5985  0.6952
 5970SOL    HW227841  11.534   4.421   3.383 -2.0371  0.6619 -0.9815
 5971SOL     OW27842   1.703  13.245   1.880  0.9324  0.6116  0.1759
 5971SOL    HW127843   1.664  13.310   1.938  0.0045  0.5841 -0.3968
 5971SOL    HW227844   1.764  13.196   1.935  0.3802  0.8644  1.0239
 5972SOL     OW27845  11.709   6.100   5.734  0.6264 -0.2858  0.0062
 5972SOL    HW127846  11.685   6.073   5.645  1.5224 -0.2878 -0.2466
 5972SOL    HW227847  11.640   6.161   5.759 -1.0255 -2.1601  0.2936
 5973SOL     OW27848   9.493   5.739   2.848 -0.0626 -0.2547 -0.3116
 5973SOL    HW127849   9.409   5.730   2.803 -0.1084 -2.6476  0.0855
 5973SOL    HW227850   9.557   5.753   2.779 -0.6596  0.5996 -0.7017
 5974SOL     OW27851   2.048   1.803  10.205  0.4338  0.2333  0.5639
 5974SOL    HW127852   2.046   1.858  10.283  0.3195  0.4729  0.3949
 5974SOL    HW227853   1.999   1.724  10.230  0.7452  0.1306  0.8598
 5975SOL     OW27854   4.566   6.818   7.944 -0.1796 -0.4904  0.3657
 5975SOL    HW127855   4.474   6.791   7.943  0.0077 -1.1597  0.4696
 5975SOL    HW227856   4.563   6.913   7.929 -0.8985 -0.4571  0.6463
 5976SOL     OW27857   0.914   3.877   4.899  0.2917 -0.0450  0.1163
 5976SOL    HW127858   0.861   3.917   4.831 -1.6112 -0.6994  1.1255
 5976SOL    HW227859   0.875   3.790   4.911  0.7056 -0.0213  1.8777
 5977SOL     OW27860  13.133   1.807   6.366 -0.3332 -0.4046 -0.3369
 5977SOL    HW127861  13.070   1.809   6.294 -0.7529 -0.9837 -0.0018
 5977SOL    HW227862  13.143   1.899   6.392 -1.0840 -0.3048 -0.3705
 5978SOL     OW27863   7.563   3.547   3.801 -0.2876  0.3996  0.6068
 5978SOL    HW127864   7.524   3.473   3.848  1.1622  0.6321  2.2617
 5978SOL    HW227865   7.555   3.621   3.862 -3.6075  2.2950 -1.7569
 5979SOL     OW27866  13.165  11.736   9.711 -0.2069 -0.0910 -0.7164
 5979SOL    HW127867  13.123  11.650   9.707 -0.9277  0.2187 -0.0847
 5979SOL    HW227868  13.092  11.797   9.722  0.4154  0.4376  0.7081
 5980SOL     OW27869   1.265  10.878  13.238 -0.0688  0.1998  0.1008
 5980SOL    HW127870   1.191  10.904  13.183 -0.8746 -1.8309  0.1320
 5980SOL    HW227871   1.260  10.936  13.314 -1.9202 -0.1989  0.3182
 5981SOL     OW27872   9.398   3.312   4.813  0.0172  0.2041  0.3382
 5981SOL    HW127873   9.433   3.228   4.841  1.5076  0.2156 -1.3020
 5981SOL    HW227874   9.382   3.301   4.719  0.1887  1.7009  0.1088
 5982SOL     OW27875   5.518   7.505   7.635  0.0735 -0.6113  0.3329
 5982SOL    HW127876   5.529   7.413   7.611 -0.2475 -0.4588 -0.4443
 5982SOL    HW227877   5.584   7.551   7.583 -0.3508 -0.3168  0.0459
 5983SOL     OW27878  10.556  10.758  11.163  0.0854  0.0985 -0.0819
 5983SOL    HW127879  10.471  10.721  11.188  0.0061  0.1200 -0.3199
 5983SOL    HW227880  10.616  10.684  11.165  0.0793  0.0984  0.1679
 5984SOL     OW27881   7.518   1.964   3.532 -0.3590  0.4192 -0.0647
 5984SOL    HW127882   7.499   1.959   3.625  0.6290  0.1590  0.1356
 5984SOL    HW227883   7.569   1.885   3.513 -0.7189  0.3688 -0.8693
 5985SOL     OW27884   4.825  13.229   7.438  0.1655 -0.0559  0.3763
 5985SOL    HW127885   4.770  13.156   7.465 -0.1819 -0.0612 -0.3156
 5985SOL    HW227886   4.899  13.227   7.499 -0.3817 -0.3124  1.0397
 5986SOL     OW27887  11.047   9.464   5.794 -0.3954  0.0824  0.3707
 5986SOL    HW127888  11.049   9.398   5.726  1.0041 -0.8499  1.2616
 5986SOL    HW227889  11.047   9.548   5.747  0.5074 -0.5377 -0.7718
 5987SOL     OW27890   6.545  11.863   8.247  0.0614 -0.1370 -0.6762
 5987SOL    HW127891   6.451  11.847   8.232  0.3441 -0.5362 -2.2776
 5987SOL    HW227892   6.560  11.836   8.337 -1.2995 -0.3960 -0.5022
 5988SOL     OW27893  10.946  12.790   9.683  0.3564  0.4702  0.2495
 5988SOL    HW127894  10.967  12.698   9.696  0.4237  0.1701 -1.6454
 5988SOL    HW227895  11.029  12.831   9.658 -0.1720  0.3925 -1.8543
 5989SOL     OW27896  10.744   0.863  11.296  0.3634 -0.0991 -0.1559
 5989SOL    HW127897  10.679   0.929  11.320 -0.1445 -1.0808  1.3195
 5989SOL    HW227898  10.758   0.813  11.376  1.8571 -0.8426 -0.8417
 5990SOL     OW27899  13.261  13.009  12.567 -0.1242 -0.4092  0.1872
 5990SOL    HW127900  13.333  13.072  12.576 -0.4391 -0.2651  2.1626
 5990SOL    HW227901  13.220  13.032  12.484 -0.0341  1.8180  0.6808
 5991SOL     OW27902   6.993   1.999   4.339  0.1589  0.1030  0.0513
 5991SOL    HW127903   6.964   1.978   4.251 -0.1630  0.3723  0.0922
 5991SOL    HW227904   7.088   1.990   4.336  0.0223 -1.7721  0.1704
 5992SOL     OW27905   5.892   9.962   9.599  0.4196  0.1586  0.1087
 5992SOL    HW127906   5.919  10.017   9.673  0.5130 -0.6304  0.6763
 5992SOL    HW227907   5.973   9.946   9.551  0.4908  0.0530  0.2628
 5993SOL     OW27908  13.140   5.324  12.065  0.3554 -0.2518  0.0889
 5993SOL    HW127909  13.194   5.402  12.080  0.4000 -0.0900 -0.8412
 5993SOL    HW227910  13.131   5.320  11.969  1.5276 -2.1519 -0.0032
 5994SOL     OW27911   3.039  10.100   6.116  0.0083 -0.1095 -0.0780
 5994SOL    HW127912   3.067  10.189   6.135  2.2301 -1.0871  1.7760
 5994SOL    HW227913   2.990  10.073   6.193 -1.2535 -0.3065 -0.9192
 5995SOL     OW27914   4.480   0.183   8.064  0.2641 -0.0941  0.2242
 5995SOL    HW127915   4.562   0.222   8.032  1.2373  0.0069  2.6063
 5995SOL    HW227916   4.426   0.173   7.986  2.3532  0.3073 -1.3630
 5996SOL     OW27917   4.515   9.112   4.281  0.2366  0.1814 -0.7842
 5996SOL    HW127918   4.431   9.154   4.297  0.6005  0.8370 -0.5457
 5996SOL    HW227919   4.571   9.183   4.247  0.1596 -0.6441 -2.7639
 5997SOL     OW27920   0.538   8.721   0.186 -0.8883 -0.3822 -0.2266
 5997SOL    HW127921   0.536   8.706   0.092 -1.9757 -2.1604  0.0360
 5997SOL    HW227922   0.451   8.756   0.207  0.2734  2.8445 -0.2171
 5998SOL     OW27923  11.593   7.062   3.892  0.4614 -0.0775  0.4722
 5998SOL    HW127924  11.560   7.149   3.872 -1.0492 -0.8440 -0.5987
 5998SOL    HW227925  11.660   7.046   3.824 -0.9562 -0.6373 -0.8551
 5999SOL     OW27926   9.735   0.843   2.228 -0.6565  0.5385  0.4890
 5999SOL    HW127927   9.734   0.927   2.182 -1.2181  0.3994  0.2378
 5999SOL    HW227928   9.643   0.821   2.239 -0.5570  0.8479  2.2139
 6000SOL     OW27929   1.226   3.626   2.811  0.4727 -0.4939 -0.2986
 6000SOL    HW127930   1.230   3.664   2.899  0.1879 -1.4349  0.1383
 6000SOL    HW227931   1.133   3.619   2.792  0.5176 -1.0203 -0.3416
 6001SOL     OW27932   7.534   2.213  12.100 -0.3540 -0.3098  0.0054
 6001SOL    HW127933   7.518   2.157  12.176 -0.3553  2.3850  2.1079
 6001SOL    HW227934   7.609   2.172  12.056  0.7419 -1.0475  2.4065
 6002SOL     OW27935  12.909   2.131   4.103 -0.7786 -0.5313 -0.5369
 6002SOL    HW127936  12.866   2.105   4.022 -0.9200 -2.0125 -0.0221
 6002SOL    HW227937  12.847   2.106   4.172 -0.9066  1.2034  0.0360
 6003SOL     OW27938   5.435  12.779   3.141  0.1302 -0.4423 -0.0627
 6003SOL    HW127939   5.471  12.715   3.202  1.6099  2.0664  1.9148
 6003SOL    HW227940   5.478  12.760   3.058  0.3348 -2.1070  0.3807
 6004SOL     OW27941   6.177   5.626  11.180  0.5122  0.0018 -0.0787
 6004SOL    HW127942   6.172   5.629  11.275  1.4995  1.3796 -0.0418
 6004SOL    HW227943   6.270   5.614  11.161  0.6433  1.9198 -0.8556
 6005SOL     OW27944   0.444   7.355   0.012  0.0321 -0.1609  0.0498
 6005SOL    HW127945   0.446   7.433   0.067  0.1621  0.6143 -1.0271
 6005SOL    HW227946   0.357   7.357  -0.030  0.2667 -0.2431 -0.4504
 6006SOL     OW27947   0.601   5.229   9.372  0.0779  0.2047  0.2384
 6006SOL    HW127948   0.581   5.246   9.464 -1.2655 -0.0248  0.0103
 6006SOL    HW227949   0.544   5.288   9.323  0.9365  0.4790 -0.4553
 6007SOL     OW27950   4.755   1.937  12.717 -0.8117 -0.1481 -0.0969
 6007SOL    HW127951   4.663   1.921  12.696 -1.3679  0.9135  1.3406
 6007SOL    HW227952   4.756   1.949  12.812  1.0040 -1.2660  0.0715
 6008SOL     OW27953   0.810   2.584   5.944 -0.8977 -0.3258 -0.0170
 6008SOL    HW127954   0.801   2.614   6.034  0.9566  1.0570 -0.2422
 6008SOL    HW227955   0.859   2.502   5.950 -1.5856 -0.7209  0.2761
 6009SOL     OW27956   8.223   1.178   0.126 -0.5271 -0.4221  0.2670
 6009SOL    HW127957   8.156   1.216   0.068 -0.0687 -0.6433 -0.4184
 6009SOL    HW227958   8.214   1.084   0.114  0.7625 -0.4353 -0.8387
 6010SOL     OW27959   2.520   4.629   2.554 -0.4480 -0.6464 -0.2252
 6010SOL    HW127960   2.475   4.615   2.470  0.9076 -0.9830 -0.9253
 6010SOL    HW227961   2.583   4.558   2.560 -0.4992 -0.6035  1.0855
 6011SOL     OW27962  12.175  11.055   1.908  0.4307  0.5824  0.0909
 6011SOL    HW127963  12.181  10.960   1.919 -1.1772 -0.0677 -3.3897
 6011SOL    HW227964  12.097  11.080   1.956 -0.5636 -0.3189 -1.0126
 6012SOL     OW27965   0.855   0.661   0.697  0.7890 -0.2158 -0.5766
 6012SOL    HW127966   0.779   0.660   0.639 -1.2247  1.7385  1.8320
 6012SOL    HW227967   0.915   0.724   0.655  0.8730 -1.2842 -2.1541
 6013SOL     OW27968  12.008  10.119   4.883 -0.3470  0.0011 -0.0782
 6013SOL    HW127969  12.004  10.164   4.798  1.8933  0.2523 -0.1065
 6013SOL    HW227970  11.984  10.186   4.947  1.9323  1.0202 -0.2128
 6014SOL     OW27971   2.330   3.308   0.703  0.2077 -0.6245 -0.4562
 6014SOL    HW127972   2.256   3.306   0.642  0.0035 -0.9553 -0.2054
 6014SOL    HW227973   2.292   3.335   0.786  0.6194  0.5524 -0.6426
 6015SOL     OW27974   5.470  10.615   0.793  0.3725  0.4188  0.7584
 6015SOL    HW127975   5.428  10.561   0.726 -0.1767  0.6137  0.9371
 6015SOL    HW227976   5.400  10.636   0.854  1.1882 -1.0713  2.2867
 6016SOL     OW27977   8.669  11.736   1.425 -0.1371  0.1722  0.0945
 6016SOL    HW127978   8.652  11.723   1.518 -0.4677 -1.0107 -0.1184
 6016SOL    HW227979   8.720  11.817   1.421 -0.1183  0.2351  1.2973
 6017SOL     OW27980   5.246   1.292   6.310 -0.3927 -0.0707  0.1480
 6017SOL    HW127981   5.278   1.382   6.314  1.6784 -0.8089  2.1066
 6017SOL    HW227982   5.311   1.241   6.358 -2.5019 -2.3240  0.8175
 6018SOL     OW27983   8.061   6.624   7.507  0.1543  0.1172  0.0712
 6018SOL    HW127984   8.022   6.591   7.426  2.5942 -1.9627 -0.3951
 6018SOL    HW227985   8.115   6.552   7.539  1.6055  1.9094  1.9847
 6019SOL     OW27986   8.508   6.084  11.657 -0.4103 -0.2688  0.2147
 6019SOL    HW127987   8.456   6.086  11.738 -2.4429  0.9223 -1.0414
 6019SOL    HW227988   8.576   6.149  11.672 -0.3015 -0.5984  1.2503
 6020SOL     OW27989  11.879   4.848  12.008  0.8592  0.1880 -0.5152
 6020SOL    HW127990  11.876   4.931  12.054  2.1583 -1.1922  2.3167
 6020SOL    HW227991  11.972   4.832  11.992  0.5649 -0.3415 -1.8393
 6021SOL     OW27992  13.270   6.864   5.748  0.2924 -0.1896 -0.4253
 6021SOL    HW127993  13.349   6.826   5.709  0.8192 -0.7027  1.0708
 6021SOL    HW227994  13.272   6.956   5.721  1.5067 -0.1555 -0.2676
 6022SOL     OW27995   7.191   6.017   5.413 -0.0285 -0.1809  0.0667
 6022SOL    HW127996   7.217   5.925   5.412 -0.1137 -0.1996 -0.9435
 6022SOL    HW227997   7.107   6.018   5.368  0.5862  0.5716 -1.0858
 6023SOL     OW27998   2.583   0.178   6.888  0.1847  0.3314  0.1643
 6023SOL    HW127999   2.535   0.126   6.823  0.2407 -1.2336  1.3240
 6023SOL    HW228000   2.671   0.142   6.888  0.9140  2.0266 -0.6844
 6024SOL     OW28001   3.104  10.944   9.307  0.4732  0.2715 -0.1054
 6024SOL    HW128002   3.143  10.962   9.221 -1.0222 -0.1597 -0.9205
 6024SOL    HW228003   3.038  11.013   9.318 -1.1469 -1.1336 -0.5334
 6025SOL     OW28004  11.017   6.861   3.921  0.7057  0.5869  0.1333
 6025SOL    HW128005  11.028   6.945   3.965  0.8853  0.8513 -0.4036
 6025SOL    HW228006  11.026   6.882   3.828  1.0801 -0.0789  0.0141
 6026SOL     OW28007   9.246   5.369   1.834 -0.1612  0.5943  0.0351
 6026SOL    HW128008   9.303   5.296   1.810  0.6994  0.9233  1.0332
 6026SOL    HW228009   9.170   5.359   1.776  1.0007  0.2998 -1.5127
 6027SOL     OW28010   4.411   8.518   8.435  0.6337  0.5191  0.1520
 6027SOL    HW128011   4.402   8.568   8.354  2.6770  2.0225  0.7572
 6027SOL    HW228012   4.503   8.531   8.461  0.8134 -2.2317  1.2423
 6028SOL     OW28013   6.765  12.026   3.873  0.6256  0.8412 -0.0657
 6028SOL    HW128014   6.810  12.058   3.951  0.8386 -0.4737  0.3790
 6028SOL    HW228015   6.746  12.104   3.822  2.7698  1.5333  0.0851
 6029SOL     OW28016  11.768   6.671  10.599  0.5138  0.2340  0.3622
 6029SOL    HW128017  11.743   6.656  10.690  1.2089 -1.8545  0.2571
 6029SOL    HW228018  11.749   6.588  10.555  1.4943  0.7482 -1.0921
 6030SOL     OW28019   5.499  11.821  12.498 -0.4586 -0.3656 -0.7163
 6030SOL    HW128020   5.513  11.868  12.580  0.6943 -0.7270 -0.6843
 6030SOL    HW228021   5.410  11.788  12.504 -0.7576  0.5174 -0.0791
 6031SOL     OW28022   4.472   2.362   9.798 -0.5649  0.2499 -0.1345
 6031SOL    HW128023   4.486   2.294   9.864 -1.9724 -0.2521 -0.3065
 6031SOL    HW228024   4.380   2.387   9.809 -0.7833  0.2688 -1.7716
 6032SOL     OW28025   9.321  13.072  10.239  0.1299 -0.1513 -0.1892
 6032SOL    HW128026   9.242  13.018  10.242  0.2751 -0.4327 -1.0364
 6032SOL    HW228027   9.370  13.037  10.164  0.9657  0.1442  0.2180
 6033SOL     OW28028  12.745   9.749  11.071 -0.5833 -0.8448 -0.9976
 6033SOL    HW128029  12.719   9.784  11.156  1.8670  0.8252 -0.8317
 6033SOL    HW228030  12.684   9.677  11.055 -1.4033 -0.9316  1.9425
 6034SOL     OW28031  10.671  11.580  12.508  0.5105 -0.8511 -0.6278
 6034SOL    HW128032  10.713  11.626  12.436  0.9367 -2.0306 -1.1705
 6034SOL    HW228033  10.605  11.641  12.541  0.8032 -0.0141 -1.5414
 6035SOL     OW28034   0.868   9.434   9.572 -0.5071 -0.0083  0.3898
 6035SOL    HW128035   0.930   9.494   9.614 -0.5406  1.7805 -1.9176
 6035SOL    HW228036   0.916   9.351   9.565  0.5184  0.4801  1.2791
 6036SOL     OW28037   5.848   6.766   8.168  0.0323  0.2538 -0.2234
 6036SOL    HW128038   5.767   6.791   8.213  0.9932  0.1145  1.6548
 6036SOL    HW228039   5.844   6.670   8.164 -0.3053  0.2896 -0.9782
 6037SOL     OW28040   2.357  10.882  11.807 -0.6011 -0.0960  0.2950
 6037SOL    HW128041   2.406  10.836  11.876  0.5014  2.0704  1.0420
 6037SOL    HW228042   2.272  10.901  11.847 -0.8683 -0.9488  0.1651
 6038SOL     OW28043   8.491   8.081   6.806  0.8005  0.3213  0.8108
 6038SOL    HW128044   8.548   8.004   6.799  0.5909  0.1810  0.6161
 6038SOL    HW228045   8.407   8.051   6.771  0.6472  0.5666  0.9689
 6039SOL     OW28046   1.838   9.471   7.344  0.3409  0.5406 -0.0587
 6039SOL    HW128047   1.793   9.516   7.272 -0.4052 -0.1821 -0.0570
 6039SOL    HW228048   1.889   9.540   7.386 -0.9363  1.4527  0.0744
 6040SOL     OW28049   7.149   3.075  12.109  0.5864  0.3604 -0.2925
 6040SOL    HW128050   7.176   3.098  12.020  1.0871  0.6849 -0.0574
 6040SOL    HW228051   7.198   3.134  12.166  0.2227  0.1970  0.2008
 6041SOL     OW28052   5.063  11.328   6.528 -0.7661  0.0943 -0.2278
 6041SOL    HW128053   5.023  11.370   6.604 -0.9479  1.2906 -0.9568
 6041SOL    HW228054   4.996  11.267   6.497 -3.1563  3.6265 -2.7582
 6042SOL     OW28055   6.678  13.251   5.696 -0.6923  0.1651  0.8226
 6042SOL    HW128056   6.757  13.199   5.708 -0.2344  1.1446  2.3534
 6042SOL    HW228057   6.682  13.282   5.606 -0.1398 -1.0773  0.4112
 6043SOL     OW28058   4.402   1.154   7.019  0.0101  0.1656  0.0278
 6043SOL    HW128059   4.372   1.169   7.109 -0.0420 -2.1309  0.4457
 6043SOL    HW228060   4.343   1.207   6.965 -1.5126 -0.2604  1.2027
 6044SOL     OW28061   9.439   7.448   0.224  0.1472  0.5236 -0.3570
 6044SOL    HW128062   9.511   7.420   0.279  1.1496 -0.4593 -2.0749
 6044SOL    HW228063   9.362   7.444   0.281  1.4958  2.2946  1.7091
 6045SOL     OW28064   9.647  10.809  11.020  0.2863  0.3386  0.2268
 6045SOL    HW128065   9.692  10.850  11.094  0.4191 -0.6367  0.7032
 6045SOL    HW228066   9.704  10.825  10.945  0.4954  0.7330  0.4695
 6046SOL     OW28067  11.785   6.091   0.816 -0.4497 -0.4890  0.2841
 6046SOL    HW128068  11.773   6.106   0.910  0.2822  0.8957  0.1813
 6046SOL    HW228069  11.859   6.031   0.811 -0.7545 -0.8994  0.5970
 6047SOL     OW28070   2.357   8.737  13.168  0.3077 -0.1530  0.0127
 6047SOL    HW128071   2.417   8.811  13.170 -0.1533  0.2182  1.4613
 6047SOL    HW228072   2.283   8.768  13.116  0.1724  0.3704  0.5081
 6048SOL     OW28073   0.843   4.328   9.566  0.3580  0.3096  0.0997
 6048SOL    HW128074   0.798   4.410   9.545  2.3460  0.9617 -1.9412
 6048SOL    HW228075   0.931   4.355   9.591 -0.2207 -0.9076  4.2439
 6049SOL     OW28076   6.620   5.880   8.948  0.2675  0.4444  0.0409
 6049SOL    HW128077   6.527   5.899   8.935  0.1593 -1.0528 -1.8068
 6049SOL    HW228078   6.662   5.966   8.950 -1.1724  1.1735  1.3830
 6050SOL     OW28079   4.259   6.247  12.384 -0.1642 -0.0501  0.0398
 6050SOL    HW128080   4.200   6.306  12.432 -0.7048  1.2604 -2.1052
 6050SOL    HW228081   4.206   6.169  12.368 -0.6182  0.2810 -0.0866
 6051SOL     OW28082  12.013   4.582   0.917 -0.0344  0.3603 -0.6533
 6051SOL    HW128083  11.925   4.564   0.884 -0.1776  1.5050 -0.9544
 6051SOL    HW228084  12.069   4.519   0.873 -0.8672 -1.3092  0.5675
 6052SOL     OW28085  11.574   8.197   5.155 -0.6948  0.0559 -0.2495
 6052SOL    HW128086  11.584   8.130   5.087  1.1489  1.3370 -1.3192
 6052SOL    HW228087  11.516   8.262   5.115 -0.8643  0.0744  0.0233
 6053SOL     OW28088  12.138  12.271   6.406  0.0961  0.9104  0.2404
 6053SOL    HW128089  12.232  12.287   6.407  0.2773  0.0012 -0.5136
 6053SOL    HW228090  12.105  12.310   6.487  1.2086  0.7556  0.7751
 6054SOL     OW28091   1.675   6.322   8.140  0.1786 -0.0146 -0.2710
 6054SOL    HW128092   1.735   6.396   8.154  0.7709 -0.5493  0.0495
 6054SOL    HW228093   1.591   6.354   8.172  0.6085  0.2419  0.6262
 6055SOL     OW28094   5.310   8.713   9.593  0.3434 -0.1044 -0.1052
 6055SOL    HW128095   5.377   8.776   9.621 -1.5275  0.3625  4.1320
 6055SOL    HW228096   5.233   8.766   9.575  0.7668 -0.6741 -4.5711
 6056SOL     OW28097   2.015   4.236  11.959  0.7461 -0.4368 -0.9865
 6056SOL    HW128098   1.984   4.210  12.046  1.4644  1.3974 -0.1302
 6056SOL    HW228099   2.079   4.170  11.935  1.0307 -0.5971  0.1913
 6057SOL     OW28100   2.050  11.626   7.378  0.5232  0.3828  0.0037
 6057SOL    HW128101   2.122  11.688   7.364  2.8228 -1.8007  1.3363
 6057SOL    HW228102   2.065  11.557   7.314 -1.5572  0.7234 -0.9465
 6058SOL     OW28103  13.183   2.140  12.749 -0.5114 -0.4492 -0.4250
 6058SOL    HW128104  13.171   2.235  12.755  1.7784  0.0428 -2.0261
 6058SOL    HW228105  13.095   2.105  12.736 -1.6519  1.2143  2.0803
 6059SOL     OW28106   6.410   9.152   5.012 -0.5006  0.0678  0.3625
 6059SOL    HW128107   6.365   9.107   5.084 -0.2819 -0.1943  0.3372
 6059SOL    HW228108   6.410   9.088   4.940  0.7171 -0.2813  0.6509
 6060SOL     OW28109   1.655  10.504   9.560 -0.7147  0.4055 -0.2211
 6060SOL    HW128110   1.708  10.424   9.566 -0.3784  0.4301 -2.3080
 6060SOL    HW228111   1.706  10.569   9.608  0.4542  0.0539 -0.9368
 6061SOL     OW28112   7.039   5.147   0.248 -0.5330  0.1336  0.0540
 6061SOL    HW128113   7.124   5.151   0.205 -0.2662 -0.2941  0.5209
 6061SOL    HW228114   7.058   5.116   0.337 -1.3710 -2.1977 -0.5038
 6062SOL     OW28115   2.451   2.389  11.074  0.1407  0.2792 -0.0769
 6062SOL    HW128116   2.434   2.299  11.104  1.4630  0.5185  1.5360
 6062SOL    HW228117   2.369   2.417  11.034  0.3251 -2.3934 -2.7120
 6063SOL     OW28118   4.821   5.921   4.806 -0.5040 -0.1555  0.1752
 6063SOL    HW128119   4.729   5.895   4.797 -0.7561  0.3723  1.0766
 6063SOL    HW228120   4.822   6.015   4.787 -0.3705  0.0972  1.3261
 6064SOL     OW28121  11.283   6.359   4.889 -0.1014 -0.0664  0.4394
 6064SOL    HW128122  11.306   6.306   4.812 -0.3705 -0.4126  0.5950
 6064SOL    HW228123  11.244   6.296   4.950  0.2123  0.1860  0.9040
 6065SOL     OW28124   8.226  12.478   9.455 -0.3590 -0.4888 -0.2569
 6065SOL    HW128125   8.224  12.418   9.530 -0.5807 -0.5936 -0.3473
 6065SOL    HW228126   8.189  12.559   9.487  0.5045 -0.1992  0.0404
 6066SOL     OW28127   3.051   9.342   7.550  0.4073 -0.0546 -0.5183
 6066SOL    HW128128   3.073   9.250   7.568 -0.2992 -0.3474 -1.0953
 6066SOL    HW228129   3.122   9.372   7.492  0.3518 -0.4042 -0.7752
 6067SOL     OW28130   5.068   3.933  11.041 -0.0368  0.0341 -0.3489
 6067SOL    HW128131   5.013   3.950  10.964 -2.4586 -0.3947  1.1743
 6067SOL    HW228132   5.049   4.007  11.100  0.2427 -0.6516  0.6193
 6068SOL     OW28133   4.117  10.596   5.356 -0.3460  0.0636 -0.6586
 6068SOL    HW128134   4.067  10.525   5.315  0.3364 -0.6345 -0.2987
 6068SOL    HW228135   4.050  10.655   5.391 -0.9318 -1.1232  0.2915
 6069SOL     OW28136   2.460   6.122   9.844  0.3236  0.5234  0.9219
 6069SOL    HW128137   2.539   6.071   9.830  0.5280  0.8376  0.9208
 6069SOL    HW228138   2.489   6.197   9.896  0.3250  1.4395 -0.3727
 6070SOL     OW28139   1.465   8.892   9.441 -0.1871 -0.6685 -0.0900
 6070SOL    HW128140   1.477   8.981   9.474 -0.5158 -0.4426 -0.5715
 6070SOL    HW228141   1.535   8.881   9.378 -0.4905 -0.5466 -0.4483
 6071SOL     OW28142  11.363   3.676   1.095 -0.0128  0.1905 -0.0118
 6071SOL    HW128143  11.421   3.738   1.050  0.5470 -1.1806 -1.2590
 6071SOL    HW228144  11.275   3.698   1.064 -0.0700  1.5626  1.0302
 6072SOL     OW28145   2.388   3.891   0.778  0.0391  0.0103  0.4568
 6072SOL    HW128146   2.325   3.960   0.799 -0.3001  1.1445 -3.3986
 6072SOL    HW228147   2.470   3.921   0.816 -0.5982  1.3926  0.8229
 6073SOL     OW28148   2.494  12.648   7.427 -0.0269  0.5963 -0.1024
 6073SOL    HW128149   2.408  12.611   7.404  0.1802 -0.2293  0.4037
 6073SOL    HW228150   2.550  12.628   7.352  0.5423 -1.7351  0.8630
 6074SOL     OW28151  11.716   1.727   8.448 -0.1009  0.3060 -0.2764
 6074SOL    HW128152  11.718   1.699   8.357  0.9191  2.5891 -1.0155
 6074SOL    HW228153  11.650   1.796   8.451 -1.1786 -0.6973  1.0848
 6075SOL     OW28154  12.925  12.049   4.482 -0.1617 -0.0262  0.2022
 6075SOL    HW128155  12.998  12.110   4.494  0.4411 -0.8178  0.6465
 6075SOL    HW228156  12.955  11.967   4.521 -0.4410 -0.9967 -1.4899
 6076SOL     OW28157   0.145   1.060   1.112  0.3317  0.7898 -0.3617
 6076SOL    HW128158   0.183   1.113   1.182  0.5328  2.3979 -1.6082
 6076SOL    HW228159   0.142   0.971   1.147  0.7048  1.4869  1.5441
 6077SOL     OW28160   9.092  11.689  12.288  0.2619  0.7435  0.3244
 6077SOL    HW128161   9.186  11.691  12.266  0.4075  1.0662  0.9343
 6077SOL    HW228162   9.082  11.758  12.353  0.1041 -0.9348  2.1791
 6078SOL     OW28163  10.463   3.355   3.294 -0.6949  0.0734  0.2747
 6078SOL    HW128164  10.405   3.338   3.219  0.2952  1.5201 -0.8826
 6078SOL    HW228165  10.405   3.389   3.362 -1.7491 -2.0486  0.5224
 6079SOL     OW28166   1.424   6.926  11.097 -0.3905 -0.0106  0.3767
 6079SOL    HW128167   1.516   6.917  11.120 -0.1021  1.0566 -0.2938
 6079SOL    HW228168   1.378   6.936  11.181  0.4539  2.3561  0.6163
 6080SOL     OW28169   5.423   7.956   1.202 -0.2478  0.1956  0.5849
 6080SOL    HW128170   5.515   7.947   1.179  0.5439  0.4196  3.2845
 6080SOL    HW228171   5.391   7.866   1.205  1.2841 -0.4159  4.2710
 6081SOL     OW28172   1.899  10.331   7.798 -0.0850 -0.1247  0.4430
 6081SOL    HW128173   1.947  10.366   7.724  0.5815 -1.2814  0.3002
 6081SOL    HW228174   1.826  10.283   7.759 -1.3898  1.5837  0.6574
 6082SOL     OW28175   7.690   0.633   8.715  0.1788  0.0046  0.5013
 6082SOL    HW128176   7.761   0.668   8.769 -0.0762  1.1888  0.0964
 6082SOL    HW228177   7.666   0.705   8.657 -0.7397 -0.6769  0.0028
 6083SOL     OW28178   6.810   2.986   4.650 -0.0299  0.8970  0.3485
 6083SOL    HW128179   6.904   2.978   4.671  0.7956 -1.5209 -3.3812
 6083SOL    HW228180   6.793   3.080   4.656  2.2095  1.2874  2.4740
 6084SOL     OW28181  12.192   4.976  12.903 -0.2868  0.2836  0.4088
 6084SOL    HW128182  12.237   4.976  12.988  0.5444  3.3182  0.1073
 6084SOL    HW228183  12.118   5.036  12.916  0.1150  1.1613 -1.0773
 6085SOL     OW28184   2.088   1.238   9.398 -0.4154 -0.1073 -0.0440
 6085SOL    HW128185   2.071   1.207   9.487  1.3762  0.7117  0.6411
 6085SOL    HW228186   2.156   1.304   9.408 -0.7568  0.6145 -1.9566
 6086SOL     OW28187   0.118  10.725   0.353  0.2485  0.5468 -0.1193
 6086SOL    HW128188   0.048  10.679   0.307  0.5909  1.5209 -1.6894
 6086SOL    HW228189   0.088  10.815   0.359  0.6389  0.6347  0.7535
 6087SOL     OW28190   6.560   9.186   6.463  0.0050 -0.1026 -0.1331
 6087SOL    HW128191   6.593   9.161   6.549 -1.3582  1.4150  0.8995
 6087SOL    HW228192   6.592   9.275   6.450 -1.4036  0.4033 -0.2960
 6088SOL     OW28193   5.482   2.500   4.739  0.5739  0.0273  0.4346
 6088SOL    HW128194   5.468   2.575   4.680  2.2343  1.6431  1.9619
 6088SOL    HW228195   5.393   2.472   4.762 -0.1071  0.0055 -1.9636
 6089SOL     OW28196   3.187   9.306   4.151 -0.3285 -0.1289  0.5328
 6089SOL    HW128197   3.203   9.246   4.078 -1.5246 -0.1889  0.2990
 6089SOL    HW228198   3.120   9.263   4.203 -1.6281  1.2194  0.0523
 6090SOL     OW28199   8.551  11.311  10.229 -0.1624 -0.7509  0.1166
 6090SOL    HW128200   8.512  11.394  10.202  0.0611  0.5874  3.4282
 6090SOL    HW228201   8.487  11.245  10.201 -2.0542  0.8555  0.3890
 6091SOL     OW28202   2.114   0.833   5.255  0.3269 -0.2318 -0.2692
 6091SOL    HW128203   2.100   0.849   5.348  0.2483  0.2496 -0.3635
 6091SOL    HW228204   2.029   0.852   5.214  0.7251  0.8658 -0.6071
 6092SOL     OW28205   4.990  10.959   5.937 -0.0610 -0.2619  0.9399
 6092SOL    HW128206   5.069  10.914   5.967 -0.9909 -2.5274  0.2075
 6092SOL    HW228207   4.927  10.889   5.921 -1.0456  1.1522 -2.0357
 6093SOL     OW28208   5.500  12.931   8.013  0.0818  0.0470 -0.4944
 6093SOL    HW128209   5.576  12.952   8.068 -0.9632  0.8384  0.6991
 6093SOL    HW228210   5.532  12.863   7.953  0.8411 -2.1302  2.1595
 6094SOL     OW28211   5.886   3.358   6.170  0.5069 -0.3715  0.4343
 6094SOL    HW128212   5.913   3.298   6.100  3.6117 -1.2485  2.1708
 6094SOL    HW228213   5.955   3.424   6.173 -0.9760  1.2258  0.9512
 6095SOL     OW28214   8.853   8.311  10.910 -0.0257 -0.5222 -0.0738
 6095SOL    HW128215   8.933   8.349  10.946 -0.4255  1.4245 -1.1259
 6095SOL    HW228216   8.784   8.341  10.969 -0.2028 -0.6030 -0.2391
 6096SOL     OW28217   6.326   0.948   6.558 -0.1012  0.0374  0.8757
 6096SOL    HW128218   6.383   1.001   6.502 -0.4338 -0.1359  0.3688
 6096SOL    HW228219   6.298   1.008   6.628 -0.8777  0.6821  0.0318
 6097SOL     OW28220   8.232   6.407   0.390 -0.6436 -0.2738  1.1051
 6097SOL    HW128221   8.196   6.355   0.461  0.9423 -1.4622  1.0883
 6097SOL    HW228222   8.320   6.372   0.377  0.7763  2.8293  1.5195
 6098SOL     OW28223   2.045  12.840  10.954  0.2783 -0.2240  0.1282
 6098SOL    HW128224   2.088  12.840  10.868 -0.6849 -1.5263 -0.4069
 6098SOL    HW228225   2.006  12.752  10.960 -0.6837  0.2637  1.3792
 6099SOL     OW28226   2.430   6.797   2.635 -0.5086 -0.2170  0.2101
 6099SOL    HW128227   2.335   6.798   2.623 -0.7043 -1.8114  1.3369
 6099SOL    HW228228   2.458   6.712   2.601  0.2021 -0.6944  1.9163
 6100SOL     OW28229   2.905  12.057   1.328  0.5339  0.2913  0.2722
 6100SOL    HW128230   2.845  12.118   1.371 -0.7494 -0.6218 -0.1631
 6100SOL    HW228231   2.958  12.112   1.270 -1.3769  0.9171 -0.9993
 6101SOL     OW28232  11.107   0.108   2.523  0.4996 -0.3280 -0.1997
 6101SOL    HW128233  11.049   0.053   2.576 -1.4424  2.7182  1.0886
 6101SOL    HW228234  11.061   0.117   2.439  0.4597 -0.1247 -0.1568
 6102SOL     OW28235   7.843   5.678  13.181 -0.2951 -0.4090 -0.0734
 6102SOL    HW128236   7.859   5.767  13.213 -0.4580 -0.7870  1.1058
 6102SOL    HW228237   7.829   5.688  13.087 -0.3595  0.8144  0.0579
 6103SOL     OW28238  13.297  11.336   3.657  0.1747  0.3060 -0.0020
 6103SOL    HW128239  13.344  11.394   3.598  0.3566  0.0633 -0.1005
 6103SOL    HW228240  13.292  11.384   3.740  0.1634  0.5334 -0.1349
 6104SOL     OW28241   9.296   5.235  13.040 -0.9829 -0.3915  0.5637
 6104SOL    HW128242   9.333   5.299  13.101  0.2662 -0.6715  0.1204
 6104SOL    HW228243   9.305   5.151  13.084 -0.1127 -0.5901  0.0482
 6105SOL     OW28244   2.651  11.289   0.382  0.3103  0.2993 -0.2154
 6105SOL    HW128245   2.731  11.251   0.417 -0.9930 -0.1077  2.5554
 6105SOL    HW228246   2.619  11.224   0.319  0.8219 -0.7544  0.5877
 6106SOL     OW28247   4.187  13.282   1.329 -0.1408 -0.3685 -0.2458
 6106SOL    HW128248   4.094  13.300   1.346 -0.0382  0.1067 -0.1684
 6106SOL    HW228249   4.219  13.362   1.286 -0.0852 -1.0394 -1.5088
 6107SOL     OW28250   6.594  12.494  10.191 -0.0862 -0.5306 -0.6975
 6107SOL    HW128251   6.536  12.442  10.135 -1.5224 -0.7621  0.8962
 6107SOL    HW228252   6.561  12.583  10.183 -0.3020 -0.5665 -0.2344
 6108SOL     OW28253  10.227  11.697  11.064  0.0487 -0.0797  0.5402
 6108SOL    HW128254  10.245  11.732  11.151  1.0173 -0.0815  0.3570
 6108SOL    HW228255  10.223  11.774  11.008 -0.5199 -0.0820  0.5752
 6109SOL     OW28256   3.660   9.069   7.483  0.6470 -0.5162 -0.2677
 6109SOL    HW128257   3.712   9.134   7.436 -0.7639  0.1934 -0.9331
 6109SOL    HW228258   3.572   9.077   7.445 -0.4880 -0.1980  2.1739
 6110SOL     OW28259   1.543   2.765   9.899  0.4218  0.1125  0.2942
 6110SOL    HW128260   1.492   2.728   9.827  0.5823  1.1090 -0.3597
 6110SOL    HW228261   1.634   2.761   9.869  0.4978  0.4478  0.4786
 6111SOL     OW28262   4.975   4.661   4.533  0.2862 -0.5052  0.3062
 6111SOL    HW128263   4.978   4.585   4.591  2.1258 -0.5298  0.2548
 6111SOL    HW228264   5.024   4.634   4.455 -0.0804  0.3330 -0.2278
 6112SOL     OW28265  10.546   1.755   0.595 -0.1055  0.2162 -1.2048
 6112SOL    HW128266  10.599   1.834   0.582 -0.4019  0.5380 -0.5394
 6112SOL    HW228267  10.484   1.756   0.522 -0.5577  0.9884 -0.8263
 6113SOL     OW28268   4.795   8.534   0.834  0.0386  0.4527 -0.4680
 6113SOL    HW128269   4.734   8.537   0.907 -2.5551 -1.2602 -2.3630
 6113SOL    HW228270   4.754   8.589   0.767  2.1995  1.7709 -0.7941
 6114SOL     OW28271   8.700  11.036  12.818 -0.3189 -0.0744  0.1720
 6114SOL    HW128272   8.792  11.014  12.809 -0.4668 -0.2315 -1.1271
 6114SOL    HW228273   8.699  11.114  12.874  0.3547 -1.9204  2.9441
 6115SOL     OW28274   9.054   2.074   2.160 -0.3153 -0.0387  0.3122
 6115SOL    HW128275   8.978   2.061   2.216 -0.3534  3.8499  1.5052
 6115SOL    HW228276   9.108   1.996   2.174 -2.1876 -1.0611  2.6047
 6116SOL     OW28277  10.480   2.476   0.253  0.5740 -0.4744 -0.2057
 6116SOL    HW128278  10.450   2.399   0.203  0.4998 -0.7624  0.2792
 6116SOL    HW228279  10.441   2.465   0.339 -0.4749  0.7792 -0.5014
 6117SOL     OW28280   1.884   2.231  11.016 -0.2884  0.8031 -0.0912
 6117SOL    HW128281   1.896   2.275  11.101  1.0880 -1.0149  0.7188
 6117SOL    HW228282   1.823   2.159  11.035 -0.8342  1.0409 -0.9103
 6118SOL     OW28283   8.505  10.206   7.708 -0.5518  0.4234  0.5280
 6118SOL    HW128284   8.560  10.128   7.710 -2.5683 -1.1390 -0.8896
 6118SOL    HW228285   8.564  10.277   7.681  1.0883 -0.8200  0.7368
 6119SOL     OW28286   4.151   1.249   9.628  0.1283 -0.2856  0.1281
 6119SOL    HW128287   4.244   1.243   9.608  0.5344 -1.0928  2.0686
 6119SOL    HW228288   4.112   1.175   9.581  0.7903 -1.1363  0.8680
 6120SOL     OW28289   6.674  12.928  12.172 -0.1802  0.6043 -0.2462
 6120SOL    HW128290   6.666  12.834  12.188 -2.8100  0.6815 -0.6859
 6120SOL    HW228291   6.758  12.952  12.211  0.7494 -1.9715 -0.4525
 6121SOL     OW28292  12.981   8.098  13.014  0.5181 -0.2243 -0.2149
 6121SOL    HW128293  12.944   8.171  12.965 -0.8550 -0.6021  0.2061
 6121SOL    HW228294  12.948   8.020  12.969  1.0626 -0.5840 -0.0045
 6122SOL     OW28295  10.448   6.861   3.389 -0.0583  0.0287  0.5885
 6122SOL    HW128296  10.535   6.851   3.427 -0.2027 -1.9018  0.5058
 6122SOL    HW228297  10.388   6.836   3.460 -0.3560 -2.8806 -0.5421
 6123SOL     OW28298   5.670   3.182  12.167  0.5949  0.0022 -0.5042
 6123SOL    HW128299   5.714   3.250  12.116  0.6538  0.8479  0.6437
 6123SOL    HW228300   5.722   3.175  12.247 -1.3575  1.0787  0.9267
 6124SOL     OW28301   2.625   3.424  10.256 -0.4054 -0.1477  0.4819
 6124SOL    HW128302   2.709   3.409  10.212  0.0884  1.9039  0.6602
 6124SOL    HW228303   2.635   3.379  10.340  0.3864 -0.1890  0.3777
 6125SOL     OW28304  11.542  12.708   3.100  0.0724 -0.2364  0.5734
 6125SOL    HW128305  11.527  12.765   3.176  0.9014  2.0640 -0.8812
 6125SOL    HW228306  11.515  12.760   3.025  0.2263 -2.0597 -0.8272
 6126SOL     OW28307   6.783   2.211  12.217 -0.1205  0.2580  0.2302
 6126SOL    HW128308   6.702   2.177  12.254 -0.6558  0.3522 -0.8134
 6126SOL    HW228309   6.768   2.211  12.122  1.6234 -1.1071 -0.0916
 6127SOL     OW28310   1.869  11.306   0.621  0.2604 -0.1700  0.2999
 6127SOL    HW128311   1.907  11.394   0.624  2.6340 -1.0870 -0.0187
 6127SOL    HW228312   1.784  11.317   0.578 -0.3265  2.1890  1.8811
 6128SOL     OW28313   1.139   9.385   8.662  0.2565 -0.2856  0.3094
 6128SOL    HW128314   1.060   9.383   8.715 -0.1450 -0.6427 -0.2988
 6128SOL    HW228315   1.128   9.460   8.604  1.3962  1.0933  1.7582
 6129SOL     OW28316   5.984   7.660   0.231  0.1601  0.1260 -0.2210
 6129SOL    HW128317   6.039   7.723   0.185 -0.9735  2.6534  1.6795
 6129SOL    HW228318   5.907   7.650   0.175  0.3712  0.3753 -0.5607
 6130SOL     OW28319   2.282  12.788   2.045 -0.3896 -0.3151  0.0203
 6130SOL    HW128320   2.290  12.823   1.956  0.0716  1.7130  0.8181
 6130SOL    HW228321   2.282  12.865   2.101  2.1507 -1.6136  1.9968
 6131SOL     OW28322  10.003   0.133  12.422  0.1199 -0.3072  0.0064
 6131SOL    HW128323  10.045   0.057  12.382 -0.2654  0.0636 -1.1530
 6131SOL    HW228324   9.980   0.190  12.348 -1.8158 -0.1965  0.6182
 6132SOL     OW28325   3.311   9.015   5.143  0.1204 -0.5936  0.0345
 6132SOL    HW128326   3.326   9.020   5.237 -2.3796  1.2470  0.4400
 6132SOL    HW228327   3.399   9.008   5.105  1.2678 -0.1748  2.4143
 6133SOL     OW28328   8.226   7.606  12.667  0.1830 -0.1163 -0.6047
 6133SOL    HW128329   8.264   7.530  12.711 -1.2338 -0.5891 -0.1252
 6133SOL    HW228330   8.297   7.670  12.663  0.7283 -0.5468  1.2312
 6134SOL     OW28331   0.209  10.958   1.636  0.1471 -0.0490 -0.1125
 6134SOL    HW128332   0.295  10.986   1.604 -0.9597  2.4429 -1.1190
 6134SOL    HW228333   0.171  11.036   1.675 -1.7699 -1.0312  0.1121
 6135SOL     OW28334  10.642   8.322   2.397 -0.1626  0.3466  1.2929
 6135SOL    HW128335  10.736   8.313   2.413  0.1877  1.0754 -0.2171
 6135SOL    HW228336  10.636   8.355   2.308 -1.9450 -2.2354  0.3329
 6136SOL     OW28337  12.598   4.474   4.030 -0.0547  0.2190  0.3672
 6136SOL    HW128338  12.677   4.453   4.080 -0.2726  1.4458  1.2738
 6136SOL    HW228339  12.572   4.391   3.990  1.8011 -0.1717 -0.1330
 6137SOL     OW28340   0.971  11.284   8.958  0.3101  0.0135 -0.1724
 6137SOL    HW128341   1.036  11.333   9.007  1.1310 -1.2411  0.0568
 6137SOL    HW228342   0.890  11.333   8.969  0.5634  0.0352  2.0734
 6138SOL     OW28343  10.090  10.650  10.277 -0.3214 -0.6341  0.4003
 6138SOL    HW128344  10.123  10.702  10.350 -1.1117  0.7860 -0.2228
 6138SOL    HW228345  10.013  10.605  10.312 -0.5239 -0.1915  0.5307
 6139SOL     OW28346   1.026   7.562  13.293 -0.0085 -0.2935  0.1743
 6139SOL    HW128347   1.010   7.552  13.387 -2.3507  0.9995 -0.0100
 6139SOL    HW228348   0.967   7.631  13.266  0.7463 -0.5030 -2.2554
 6140SOL     OW28349  12.912  13.246  11.071  0.4498  0.3867  0.0903
 6140SOL    HW128350  12.903  13.293  11.154  0.9580 -0.0648  0.4108
 6140SOL    HW228351  12.991  13.193  11.082 -1.8346 -3.2270  1.1471
 6141SOL     OW28352   9.731   0.526   5.126 -0.3211  0.0001  0.7530
 6141SOL    HW128353   9.761   0.596   5.068  2.2235 -0.8653  0.8675
 6141SOL    HW228354   9.713   0.452   5.068  2.0313 -0.8016  0.9154
 6142SOL     OW28355   3.058  11.367   1.881  0.2468  0.0553 -0.1865
 6142SOL    HW128356   3.062  11.305   1.808 -0.6494 -0.0191 -0.1873
 6142SOL    HW228357   2.999  11.326   1.944  0.1601  0.6072  0.0994
 6143SOL     OW28358  11.385   9.437   1.338  0.3312 -0.7408  0.2024
 6143SOL    HW128359  11.292   9.415   1.338  0.9602 -3.8690  0.8198
 6143SOL    HW228360  11.409   9.442   1.246 -0.7172  1.8692 -0.0142
 6144SOL     OW28361   0.373  12.324   2.667 -0.1803  0.1505 -0.4296
 6144SOL    HW128362   0.355  12.365   2.582 -1.0799  0.8223  0.0587
 6144SOL    HW228363   0.464  12.345   2.686 -0.6521  2.1215 -0.1308
 6145SOL     OW28364  11.043   8.670   9.122 -0.3224  0.1454 -0.1523
 6145SOL    HW128365  10.978   8.609   9.157 -1.6591  1.3768 -0.3956
 6145SOL    HW228366  11.064   8.728   9.195  0.3338 -0.1019 -0.1409
 6146SOL     OW28367   2.869  11.246   4.014  0.4468  0.1141 -0.6129
 6146SOL    HW128368   2.953  11.276   4.050  1.3848 -1.3268 -1.4929
 6146SOL    HW228369   2.883  11.245   3.919 -0.7065  0.1919 -0.8008
 6147SOL     OW28370   6.768   3.935  12.695  0.2866 -0.5253  0.0347
 6147SOL    HW128371   6.859   3.949  12.722  0.1559  0.1194  0.1468
 6147SOL    HW228372   6.769   3.948  12.600 -0.0137  1.3297  0.2420
 6148SOL     OW28373   1.834   4.613  11.906 -0.1952  0.2128 -0.1258
 6148SOL    HW128374   1.861   4.523  11.922 -1.9076 -0.6071 -1.4636
 6148SOL    HW228375   1.877   4.636  11.824  1.3446  1.1707  0.8878
 6149SOL     OW28376  13.305   5.589   7.297  0.0414 -0.1224 -0.1547
 6149SOL    HW128377  13.359   5.660   7.330 -0.6959  0.4116 -0.0521
 6149SOL    HW228378  13.321   5.588   7.203  0.1579  0.0981 -0.1382
 6150SOL     OW28379   3.271   9.126   2.826  0.3605 -0.1104  0.4454
 6150SOL    HW128380   3.258   9.197   2.889  1.2441  1.1785 -0.7612
 6150SOL    HW228381   3.282   9.171   2.742  0.8062 -1.6995 -0.3761
 6151SOL     OW28382   3.856  10.012   5.267  0.1021 -0.2400  0.1847
 6151SOL    HW128383   3.766  10.026   5.297  0.2201  0.2863  0.2951
 6151SOL    HW228384   3.908  10.007   5.347  0.2967  0.3333  0.0936
 6152SOL     OW28385  12.889  12.846   0.719 -0.2633  0.0734 -0.0818
 6152SOL    HW128386  12.901  12.818   0.810  0.9924  0.1037 -0.2123
 6152SOL    HW228387  12.797  12.830   0.701 -0.6322  0.4589  1.3222
 6153SOL     OW28388   0.823   6.301   7.259  0.2397 -0.4849  0.0509
 6153SOL    HW128389   0.787   6.231   7.205 -0.0937  0.9116 -1.6364
 6153SOL    HW228390   0.906   6.267   7.291  1.0580 -0.9487 -2.4012
 6154SOL     OW28391  10.690   1.488   1.898  0.4340  0.2791  0.2309
 6154SOL    HW128392  10.760   1.552   1.909 -0.5336  1.4494 -0.2383
 6154SOL    HW228393  10.629   1.506   1.970  1.1179 -1.4615  1.3105
 6155SOL     OW28394   8.557  10.355   3.884 -0.5829  0.1636 -0.0275
 6155SOL    HW128395   8.626  10.293   3.908 -0.2625  0.3309 -0.5244
 6155SOL    HW228396   8.578  10.382   3.795 -0.8877  0.7697  0.0799
 6156SOL     OW28397   8.470   2.478   2.793 -0.5068  0.2551 -0.7846
 6156SOL    HW128398   8.469   2.539   2.867 -1.3254  0.9046 -1.3189
 6156SOL    HW228399   8.403   2.511   2.733 -1.3176 -1.4357 -0.8650
 6157SOL     OW28400   5.486   5.227   8.034  0.0926  0.3782 -0.1021
 6157SOL    HW128401   5.574   5.261   8.015  0.2785  0.5416  1.0146
 6157SOL    HW228402   5.427   5.288   7.988  0.5599 -0.2641 -1.6398
 6158SOL     OW28403   1.954  12.202   8.140  0.0627 -0.5034 -0.4067
 6158SOL    HW128404   1.865  12.168   8.143  0.1029 -0.6850 -1.1110
 6158SOL    HW228405   1.945  12.286   8.094  0.0818  0.0653  0.5970
 6159SOL     OW28406   1.323  11.695  11.507  0.2302 -0.7114 -0.0268
 6159SOL    HW128407   1.386  11.625  11.524 -0.5282 -0.8484  2.5831
 6159SOL    HW228408   1.363  11.774  11.543 -0.0412 -0.3096 -0.5901
 6160SOL     OW28409   6.972  12.708   8.683  0.2001  0.1682 -0.2053
 6160SOL    HW128410   6.965  12.715   8.587 -1.2698 -0.8496 -0.2170
 6160SOL    HW228411   6.966  12.614   8.700 -2.9522  0.4543  1.0289
 6161SOL     OW28412   0.714   8.111   9.334 -0.0149  0.0506  1.3145
 6161SOL    HW128413   0.656   8.176   9.295  0.7302 -0.7471 -1.3410
 6161SOL    HW228414   0.661   8.068   9.401 -1.4499  1.4202  1.1047
 6162SOL     OW28415   6.433   5.605  11.077  0.4925  0.4826 -0.3962
 6162SOL    HW128416   6.424   5.558  10.994  1.3903  0.8869 -0.7432
 6162SOL    HW228417   6.485   5.547  11.132  1.4595  0.9796 -0.7672
 6163SOL     OW28418  10.600   5.198  11.634 -0.4001  0.1179 -0.3615
 6163SOL    HW128419  10.635   5.112  11.660 -0.9028  0.3086  1.0561
 6163SOL    HW228420  10.508   5.183  11.616 -1.0530  0.7030  2.1053
 6164SOL     OW28421   2.190   1.356   7.749  0.2216 -0.0507 -0.1721
 6164SOL    HW128422   2.231   1.356   7.836 -0.9178 -1.3109  0.4121
 6164SOL    HW228423   2.188   1.448   7.723  2.5160  0.1537  0.1738
 6165SOL     OW28424   1.956   4.792  10.560 -0.3243  0.1816 -0.2378
 6165SOL    HW128425   2.021   4.862  10.553 -1.0025  0.7588 -0.8244
 6165SOL    HW228426   1.872   4.837  10.564 -0.7140 -0.5695  0.3180
 6166SOL     OW28427  11.587   3.227  12.279 -0.0587  0.1815 -0.2548
 6166SOL    HW128428  11.585   3.321  12.297  1.3662  0.5142 -1.5382
 6166SOL    HW228429  11.573   3.221  12.185  1.6613 -0.7147 -0.5007
 6167SOL     OW28430   3.357  11.906   5.245 -0.5343 -0.4113  0.1429
 6167SOL    HW128431   3.405  11.829   5.276 -0.3160 -0.6543 -0.7746
 6167SOL    HW228432   3.291  11.870   5.186 -1.7054 -0.0577  1.1996
 6168SOL     OW28433   9.022  11.258   7.823 -0.1189  0.7089 -0.2179
 6168SOL    HW128434   8.948  11.291   7.772 -1.0257 -0.2918  0.3807
 6168SOL    HW228435   8.997  11.274   7.914 -0.2635 -0.8510  0.0602
 6169SOL     OW28436   1.985   1.433   8.090 -0.1333 -0.1438 -0.3150
 6169SOL    HW128437   1.970   1.350   8.046  1.3547 -0.1984 -0.7879
 6169SOL    HW228438   1.904   1.451   8.137  0.0876 -2.7352  1.2543
 6170SOL     OW28439   2.488   2.247  10.043  0.1612  0.0789 -0.3428
 6170SOL    HW128440   2.397   2.238  10.015  0.5025 -1.0049 -1.1614
 6170SOL    HW228441   2.512   2.161  10.077  0.7849  0.4559  0.1997
 6171SOL     OW28442  12.666  12.475   0.902  0.2948 -0.1360  0.6246
 6171SOL    HW128443  12.577  12.445   0.882  1.3805 -2.5786 -0.9580
 6171SOL    HW228444  12.657  12.570   0.912 -2.2814 -0.1479 -0.6611
 6172SOL     OW28445   0.591   0.603  12.286  0.1197  0.2370 -0.5776
 6172SOL    HW128446   0.621   0.632  12.372 -2.1478  1.9742 -0.2611
 6172SOL    HW228447   0.514   0.549  12.304  0.1299 -0.0967 -1.4921
 6173SOL     OW28448   7.633  11.286  12.912 -0.2698 -0.1924 -0.8073
 6173SOL    HW128449   7.668  11.363  12.956 -0.9519 -0.1080 -0.3873
 6173SOL    HW228450   7.635  11.217  12.979  0.0269 -0.4542 -1.0801
 6174SOL     OW28451  11.624  11.710   5.372 -0.1710  0.7706  0.0370
 6174SOL    HW128452  11.678  11.770   5.422  0.2098  1.1194 -0.7799
 6174SOL    HW228453  11.602  11.758   5.292 -2.1201  0.8400  0.5555
 6175SOL     OW28454   1.478  11.561   2.617 -0.1040  0.1101 -0.2428
 6175SOL    HW128455   1.494  11.600   2.531 -0.1002 -0.4053 -0.4795
 6175SOL    HW228456   1.460  11.635   2.674  0.4026  0.4965 -0.5752
 6176SOL     OW28457   8.297   7.330   1.049  0.2392 -0.0473  0.6056
 6176SOL    HW128458   8.202   7.336   1.036  0.4631  2.7754 -0.3233
 6176SOL    HW228459   8.326   7.262   0.988 -0.9806  0.2129 -0.2829
 6177SOL     OW28460  12.474   0.067   3.455 -0.2856 -0.3040 -0.1273
 6177SOL    HW128461  12.518  -0.012   3.486  2.8049  1.0805 -0.6181
 6177SOL    HW228462  12.499   0.074   3.363 -3.4609 -0.5467 -1.1316
 6178SOL     OW28463   8.941   3.742   0.973 -0.6021  0.3807 -0.2978
 6178SOL    HW128464   8.846   3.744   0.980 -0.6165  1.2211 -0.5750
 6178SOL    HW228465   8.965   3.833   0.953  0.1535 -0.0300 -1.3698
 6179SOL     OW28466   6.109   5.728  13.132  0.2102 -0.6952 -0.2376
 6179SOL    HW128467   6.017   5.734  13.159  0.8358 -0.9298  2.1077
 6179SOL    HW228468   6.146   5.660  13.188  1.6188 -1.3110 -1.8309
 6180SOL     OW28469   6.134  13.092   6.868 -0.7893 -0.0831  0.0941
 6180SOL    HW128470   6.191  13.032   6.916 -0.2859 -0.4992 -0.9941
 6180SOL    HW228471   6.088  13.140   6.936 -1.2967 -1.7849  1.0142
 6181SOL     OW28472   6.504   6.302   6.920 -0.4909  0.4833  0.6684
 6181SOL    HW128473   6.461   6.225   6.884 -1.2557  0.9598  0.5148
 6181SOL    HW228474   6.526   6.278   7.010 -3.5046  1.0461  1.6688
 6182SOL     OW28475   4.214  12.027   7.946  0.4683  0.5584  0.4589
 6182SOL    HW128476   4.123  12.017   7.917  0.2810  0.6937  1.0017
 6182SOL    HW228477   4.239  12.114   7.917  0.7973  0.1037 -0.6901
 6183SOL     OW28478   6.898   0.785   5.587  0.0671 -0.4784 -0.3489
 6183SOL    HW128479   6.924   0.782   5.679  0.6904  0.5142 -0.4776
 6183SOL    HW228480   6.827   0.850   5.584  0.0492 -0.5070 -0.5674
 6184SOL     OW28481  10.461   8.096  11.620 -0.6440  0.0180 -0.5061
 6184SOL    HW128482  10.502   8.154  11.683 -0.3748  0.0053 -0.6706
 6184SOL    HW228483  10.527   8.029  11.601 -1.4596 -1.2320  0.8293
 6185SOL     OW28484  10.098  11.660   9.932 -0.8047  0.1797  0.2753
 6185SOL    HW128485  10.100  11.713  10.011  0.3445  4.0010 -2.0434
 6185SOL    HW228486  10.009  11.626   9.928 -1.0933  0.4654  2.8088
 6186SOL     OW28487  12.176  11.415   3.849 -0.0139  0.0845  0.3908
 6186SOL    HW128488  12.225  11.470   3.788  0.9358  1.7043  2.4859
 6186SOL    HW228489  12.116  11.476   3.892 -1.7425 -1.3021  0.0578
 6187SOL     OW28490  12.699   4.519   9.533  0.2977  0.5443  0.2186
 6187SOL    HW128491  12.661   4.444   9.580  0.3970  2.1308  3.0619
 6187SOL    HW228492  12.793   4.508   9.542  0.3787  0.1751 -0.8704
 6188SOL     OW28493   1.304   8.139   7.560 -0.3515  0.1647  0.8497
 6188SOL    HW128494   1.286   8.051   7.594 -1.2701  0.5831  1.4728
 6188SOL    HW228495   1.277   8.136   7.469 -2.6062  0.4359  1.4579
 6189SOL     OW28496   8.711   1.660   0.389 -0.2025 -0.0267 -0.2794
 6189SOL    HW128497   8.675   1.573   0.406  0.4347  0.0664  1.8605
 6189SOL    HW228498   8.635   1.716   0.374 -0.5901 -1.1239 -3.0597
 6190SOL     OW28499   0.413  11.853   3.219 -0.0400 -0.1403 -0.2984
 6190SOL    HW128500   0.334  11.826   3.172  0.4204 -1.6620 -0.2487
 6190SOL    HW228501   0.459  11.771   3.238  0.6331  0.5686  1.3068
 6191SOL     OW28502  13.125   7.973  10.122 -0.2852  0.4597 -0.2931
 6191SOL    HW128503  13.138   8.046  10.182 -2.4769  1.9099 -1.4552
 6191SOL    HW228504  13.159   8.003  10.038  1.4861 -1.0268 -0.1694
 6192SOL     OW28505   2.836  12.260   6.245  0.4223 -0.7105  0.4300
 6192SOL    HW128506   2.874  12.264   6.158  0.9441  0.1647  0.6869
 6192SOL    HW228507   2.827  12.352   6.272 -0.0016 -0.9591  1.1814
 6193SOL     OW28508  10.161  10.188   7.894 -0.0002 -0.2526  0.0036
 6193SOL    HW128509  10.200  10.161   7.811  0.8211 -0.7745  0.5488
 6193SOL    HW228510  10.227  10.168   7.960 -0.8820 -0.4490  0.8645
 6194SOL     OW28511   8.020  11.121   8.950 -0.2132 -0.6404 -0.8598
 6194SOL    HW128512   8.070  11.171   9.014 -1.3887  1.9330 -1.8123
 6194SOL    HW228513   8.074  11.120   8.872 -0.7504  0.3980 -1.2651
 6195SOL     OW28514   6.045  10.126   7.737 -0.3723 -0.2334  0.2700
 6195SOL    HW128515   6.122  10.172   7.704 -1.4900  1.2412 -0.4432
 6195SOL    HW228516   6.077  10.039   7.761  1.1876 -0.2150 -1.4901
 6196SOL     OW28517   3.248   9.735   8.227 -0.3205 -0.0096 -0.0252
 6196SOL    HW128518   3.174   9.701   8.277  0.2537  0.1700  0.9827
 6196SOL    HW228519   3.230   9.709   8.137 -1.1415 -0.7744  0.3401
 6197SOL     OW28520   0.140   9.564   1.044  0.5547  0.4128  0.2458
 6197SOL    HW128521   0.059   9.560   0.992  0.6622  1.1024  0.0168
 6197SOL    HW228522   0.167   9.473   1.052 -1.3106 -0.0656  2.0433
 6198SOL     OW28523   4.459   8.043   0.489  0.1015 -0.3592  0.5611
 6198SOL    HW128524   4.451   7.981   0.562  0.8363  0.1652  1.1043
 6198SOL    HW228525   4.370   8.076   0.476  0.2225  0.8461  2.4166
 6199SOL     OW28526   8.250   7.338   1.322 -0.0009  0.1694 -0.3089
 6199SOL    HW128527   8.229   7.357   1.230 -3.6381  0.5217  0.4392
 6199SOL    HW228528   8.322   7.398   1.343  1.8762 -0.8479 -3.1946
 6200SOL     OW28529   1.982   4.201   4.296 -0.0048  0.1814 -0.2145
 6200SOL    HW128530   2.008   4.133   4.234 -0.4383 -0.5037  0.3350
 6200SOL    HW228531   1.964   4.278   4.242  0.6324 -0.0919 -0.8325
 6201SOL     OW28532  11.934   0.319   0.985 -0.0408 -0.0184  0.3729
 6201SOL    HW128533  12.016   0.361   1.012  0.8232 -2.0147  1.0942
 6201SOL    HW228534  11.867   0.359   1.039  0.7616  0.3353  1.1304
 6202SOL     OW28535   6.993   7.186   9.192  0.3900  0.0205 -0.2160
 6202SOL    HW128536   7.081   7.163   9.222  0.2906  0.2949  0.3027
 6202SOL    HW228537   6.968   7.260   9.247  0.5050  1.0643 -1.5164
 6203SOL     OW28538   2.913   5.309   4.802  0.2281 -0.4991  0.6648
 6203SOL    HW128539   2.824   5.280   4.825  1.0548 -2.6170  1.4001
 6203SOL    HW228540   2.964   5.296   4.882  1.4496 -0.4017 -0.0732
 6204SOL     OW28541   9.056  12.361   8.037 -0.0743  0.2695 -0.5532
 6204SOL    HW128542   9.068  12.424   8.107  0.5629 -0.5520  0.0885
 6204SOL    HW228543   9.004  12.291   8.076  0.3028 -0.2014 -0.8873
 6205SOL     OW28544   5.348  12.260  13.029  0.2924 -0.5217  0.3982
 6205SOL    HW128545   5.414  12.328  13.018 -0.2826 -0.2626 -2.2168
 6205SOL    HW228546   5.366  12.222  13.115  1.7241  1.7391  1.1811
 6206SOL     OW28547  12.798   3.529   4.033 -0.6633  0.2821 -0.1055
 6206SOL    HW128548  12.759   3.448   4.065 -0.3860  0.4781  0.7677
 6206SOL    HW228549  12.761   3.597   4.089 -0.5338  0.6990 -0.5235
 6207SOL     OW28550  10.299   4.303  12.163  0.1510  0.1161 -0.1344
 6207SOL    HW128551  10.319   4.325  12.254  3.1507 -0.0582 -0.6299
 6207SOL    HW228552  10.383   4.314  12.117 -0.5979 -2.4212 -2.3719
 6208SOL     OW28553   9.730   2.857   2.883 -0.3161  0.2233  0.1708
 6208SOL    HW128554   9.795   2.896   2.826 -0.3004 -0.0614 -0.0089
 6208SOL    HW228555   9.675   2.805   2.824  0.1146 -0.6258  0.5050
 6209SOL     OW28556   5.561   6.174  12.601  0.5591  0.5933 -0.4925
 6209SOL    HW128557   5.657   6.173  12.607  0.6025  1.3378 -0.9699
 6209SOL    HW228558   5.541   6.251  12.548 -0.1838 -0.9644 -2.6452
 6210SOL     OW28559   3.765   8.813   0.967 -0.7020 -0.0462  0.0426
 6210SOL    HW128560   3.730   8.739   0.918 -0.4791 -1.0475  1.3573
 6210SOL    HW228561   3.712   8.888   0.938 -1.6046 -0.8867 -0.5512
 6211SOL     OW28562  12.961  11.844   8.472  0.7061 -0.3395  0.1323
 6211SOL    HW128563  13.043  11.883   8.440 -0.8495  2.1810 -1.1144
 6211SOL    HW228564  12.921  11.913   8.525 -1.0225 -1.1545 -0.0586
 6212SOL     OW28565   2.923   5.339   6.840  0.0152  0.4768  0.0528
 6212SOL    HW128566   2.919   5.433   6.826 -0.9558  0.5828  0.9179
 6212SOL    HW228567   2.988   5.327   6.908 -2.5198  0.9325  2.7506
 6213SOL     OW28568   1.010  11.853   5.788 -0.1437  0.1042  0.1432
 6213SOL    HW128569   0.989  11.787   5.854 -1.6869 -1.2265 -1.5390
 6213SOL    HW228570   0.928  11.903   5.778  0.5613  1.3334  0.3380
 6214SOL     OW28571   3.431   7.963  10.759 -0.6392 -0.4838  0.4180
 6214SOL    HW128572   3.496   8.031  10.778 -1.5351  0.2280  1.0312
 6214SOL    HW228573   3.371   7.966  10.833 -2.7905  0.5968 -1.2455
 6215SOL     OW28574   3.203   1.012   0.300  0.0043  0.4599 -0.0697
 6215SOL    HW128575   3.239   0.982   0.216  0.6177  2.0700 -0.4176
 6215SOL    HW228576   3.256   1.089   0.322 -0.0405 -0.0207  1.8882
 6216SOL     OW28577   2.568   0.417   0.951 -0.0623  0.3241 -0.0012
 6216SOL    HW128578   2.563   0.386   0.861 -1.6355  1.1216 -0.2213
 6216SOL    HW228579   2.529   0.347   1.003  0.1828  0.1754 -0.0164
 6217SOL     OW28580  10.174   5.181  12.136 -0.1771 -0.0580 -0.2867
 6217SOL    HW128581  10.102   5.123  12.113 -0.2454  0.2770 -0.9235
 6217SOL    HW228582  10.181   5.173  12.231 -0.7998 -0.3853 -0.2612
 6218SOL     OW28583  11.903  10.219   2.010  0.1046  0.4518  0.2754
 6218SOL    HW128584  11.880  10.229   2.102 -1.9650 -0.2093 -0.1174
 6218SOL    HW228585  11.831  10.261   1.962 -0.1036 -1.2872 -1.0609
 6219SOL     OW28586  11.877   3.240   3.691  0.0030 -0.0807  0.1074
 6219SOL    HW128587  11.804   3.233   3.629 -1.9347 -0.7697  2.2975
 6219SOL    HW228588  11.846   3.194   3.769  2.1424  1.0709  1.7472
 6220SOL     OW28589  10.806   0.033   5.339  0.1241  0.0229  0.4019
 6220SOL    HW128590  10.755   0.100   5.293 -1.8891 -2.4578 -1.3160
 6220SOL    HW228591  10.773   0.036   5.429 -2.1079 -0.4994 -0.3223
 6221SOL     OW28592   5.427   9.998   0.098  0.1846  0.1945 -0.3103
 6221SOL    HW128593   5.438   9.949   0.016 -2.2717  1.4478 -1.4790
 6221SOL    HW228594   5.475   9.946   0.163  1.2537 -1.4569 -2.2853
 6222SOL     OW28595  11.911   5.114   6.284 -0.1853  0.0650  0.1126
 6222SOL    HW128596  11.977   5.155   6.228  0.0715 -2.0265 -1.2288
 6222SOL    HW228597  11.962   5.074   6.354 -0.0829 -0.7929 -0.4370
 6223SOL     OW28598   0.845   6.168   8.469 -0.3444 -0.0283 -0.7802
 6223SOL    HW128599   0.804   6.086   8.498 -0.0382  0.0971  0.0575
 6223SOL    HW228600   0.826   6.229   8.540  1.6320 -0.0753 -0.1435
 6224SOL     OW28601   8.631   9.259   6.990 -0.4861 -0.2878  0.0558
 6224SOL    HW128602   8.694   9.308   7.043  0.6759 -0.7249 -0.8711
 6224SOL    HW228603   8.568   9.325   6.962 -1.2775 -0.0734  2.1093
 6225SOL     OW28604   2.663   8.287   5.708  0.7433  0.3866  0.2039
 6225SOL    HW128605   2.680   8.205   5.662 -0.7480 -0.5072  1.1623
 6225SOL    HW228606   2.583   8.320   5.667  1.9918  2.0740 -1.0431
 6226SOL     OW28607   5.128  12.354  12.392  0.5853 -0.0634 -0.3359
 6226SOL    HW128608   5.058  12.355  12.457  0.7402 -0.8792 -0.1450
 6226SOL    HW228609   5.199  12.404  12.432  0.3644  0.1761 -0.2425
 6227SOL     OW28610   2.097  12.518   2.493  0.3027 -0.1918 -0.4491
 6227SOL    HW128611   2.181  12.561   2.481 -0.7736  1.8317 -1.1889
 6227SOL    HW228612   2.093  12.453   2.422  1.3307 -0.5187 -0.2265
 6228SOL     OW28613   9.660   5.208   1.755 -0.0315  0.2630  0.1000
 6228SOL    HW128614   9.572   5.170   1.758 -1.1323  2.6588  0.9483
 6228SOL    HW228615   9.666   5.248   1.668 -0.0196  0.5805  0.2437
 6229SOL     OW28616  11.105   0.398  10.605  0.0565  0.5966  0.2414
 6229SOL    HW128617  11.147   0.478  10.638  0.0366  0.8409 -0.3120
 6229SOL    HW228618  11.013   0.423  10.595  0.0442  0.4929  0.1046
 6230SOL     OW28619   7.376  10.097  12.061 -0.0061  0.1294  0.2768
 6230SOL    HW128620   7.403  10.033  11.996 -1.0803 -0.0437 -0.0270
 6230SOL    HW228621   7.390  10.182  12.020 -0.6530  0.0216 -0.1850
 6231SOL     OW28622   9.697   1.922   1.095  0.2026  0.0855  0.1289
 6231SOL    HW128623   9.749   1.964   1.164 -0.8756 -1.0274  1.6830
 6231SOL    HW228624   9.659   1.845   1.137 -0.0834 -0.9401 -1.8749
 6232SOL     OW28625   3.586   4.443   1.106  0.2872 -0.6481  0.0066
 6232SOL    HW128626   3.557   4.471   1.019  2.1390  1.3940 -0.0588
 6232SOL    HW228627   3.522   4.377   1.133 -2.1539  0.8998 -1.5739
 6233SOL     OW28628  12.126   9.131   9.881 -0.2307 -0.3231  0.2420
 6233SOL    HW128629  12.048   9.081   9.904 -1.2057 -0.0882 -2.2705
 6233SOL    HW228630  12.180   9.070   9.831 -0.6141  0.5686 -1.3199
 6234SOL     OW28631  11.698   5.049   9.695  0.3632  0.2416  0.0643
 6234SOL    HW128632  11.754   4.992   9.748 -1.0340  0.4156  1.8631
 6234SOL    HW228633  11.677   5.122   9.754  0.1194  1.3504 -1.3553
 6235SOL     OW28634   3.949   8.571  10.045 -0.3073 -0.1782 -0.2729
 6235SOL    HW128635   3.960   8.597  10.137 -0.1666  0.2669 -0.4181
 6235SOL    HW228636   3.910   8.647  10.003  0.9022  0.1201 -0.8867
 6236SOL     OW28637   4.472   0.881   3.264 -0.1484 -0.1446  0.3135
 6236SOL    HW128638   4.468   0.900   3.171  1.3233 -0.6490  0.1191
 6236SOL    HW228639   4.401   0.932   3.302 -0.4012  0.5285 -1.0033
 6237SOL     OW28640  12.419   9.325   5.203 -0.5558 -0.3457  0.1303
 6237SOL    HW128641  12.438   9.247   5.150 -1.5479 -0.1818 -0.4904
 6237SOL    HW228642  12.348   9.369   5.156 -1.3032 -0.0654  1.4693
 6238SOL     OW28643   5.895  12.422  12.337 -0.3753 -0.3576 -0.1197
 6238SOL    HW128644   5.987  12.411  12.311 -0.4737 -0.7295 -0.3090
 6238SOL    HW228645   5.884  12.364  12.412 -0.2435  0.2927  0.4170
 6239SOL     OW28646  12.976   5.499   1.079  0.2172  0.0396 -0.6238
 6239SOL    HW128647  12.937   5.541   1.003 -1.4383 -0.3435 -0.0121
 6239SOL    HW228648  13.067   5.484   1.054 -0.1296  0.5271 -2.2614
 6240SOL     OW28649   7.021  10.092   8.505  0.2355 -0.2553  0.4446
 6240SOL    HW128650   7.063  10.006   8.498 -0.9749 -0.8159 -0.3431
 6240SOL    HW228651   6.952  10.080   8.570  0.5112  0.3293  0.8551
 6241SOL     OW28652   0.302   9.996   7.591 -0.0908 -0.5461 -0.1214
 6241SOL    HW128653   0.350  10.059   7.536 -0.6559 -1.2862 -1.5244
 6241SOL    HW228654   0.367   9.966   7.655  0.6540  0.2007 -0.4978
 6242SOL     OW28655   9.832   5.208  11.555 -0.4471  0.0956  0.6570
 6242SOL    HW128656   9.899   5.194  11.621 -0.4443  0.5365  0.7540
 6242SOL    HW228657   9.810   5.301  11.563 -1.5832 -0.1979  1.1121
 6243SOL     OW28658   7.436   9.027   7.295  0.0833 -0.2930  0.6330
 6243SOL    HW128659   7.364   9.011   7.233 -0.2693  0.5496  0.8187
 6243SOL    HW228660   7.413   9.109   7.338  0.9007 -0.2880  1.0755
 6244SOL     OW28661   6.767  12.029   0.510  0.3940 -0.0517 -0.2612
 6244SOL    HW128662   6.771  11.980   0.428 -0.3691 -1.0070  0.2525
 6244SOL    HW228663   6.701  12.096   0.494  0.4864 -0.0195 -0.5268
 6245SOL     OW28664   0.471   0.046   8.205 -0.1757  0.0390 -0.3991
 6245SOL    HW128665   0.402  -0.020   8.206 -0.6935  0.5471  0.8883
 6245SOL    HW228666   0.428   0.126   8.174  0.0984  0.0973 -0.6302
 6246SOL     OW28667  11.910   0.372   0.182  0.5209 -0.2522  0.5275
 6246SOL    HW128668  11.872   0.386   0.269 -2.2251  2.0547 -0.8703
 6246SOL    HW228669  11.846   0.318   0.136  0.0583  1.6115 -1.1357
 6247SOL     OW28670  11.984   5.862   9.058  0.6249  1.0247 -0.2467
 6247SOL    HW128671  11.947   5.781   9.093  2.0736  0.2843 -0.3611
 6247SOL    HW228672  11.982   5.850   8.963  3.2384 -0.0762 -0.2548
 6248SOL     OW28673   4.256   8.668   7.924 -0.1834  0.2959 -0.0485
 6248SOL    HW128674   4.314   8.658   7.849 -0.9168  0.2883 -0.6291
 6248SOL    HW228675   4.169   8.683   7.886 -0.2648  2.2619  0.7834
 6249SOL     OW28676  12.784  12.877   5.257  0.5316  0.0923 -0.0677
 6249SOL    HW128677  12.786  12.938   5.331  2.4721  0.9892 -0.8145
 6249SOL    HW228678  12.873  12.844   5.251  0.0862 -0.9655 -1.2182
 6250SOL     OW28679   8.172   0.653  12.252  0.4815  0.4848 -0.1381
 6250SOL    HW128680   8.245   0.630  12.309  0.5832  0.7306 -0.1657
 6250SOL    HW228681   8.094   0.633  12.302  0.5479 -1.3605 -0.7240
 6251SOL     OW28682  12.876   1.839   7.030 -0.5072  0.0026  0.2359
 6251SOL    HW128683  12.942   1.773   7.051 -1.1835 -0.8815 -0.3460
 6251SOL    HW228684  12.927   1.915   7.000  0.3003  0.0278  1.6203
 6252SOL     OW28685   2.308   7.992  12.744 -0.0302 -0.2885  0.1681
 6252SOL    HW128686   2.357   8.044  12.680  2.1806 -2.2443  0.0897
 6252SOL    HW228687   2.367   7.987  12.820  0.2297 -3.1006 -0.0853
 6253SOL     OW28688   3.846   3.341   3.266  0.0277 -0.3317  0.6189
 6253SOL    HW128689   3.803   3.385   3.194  0.1902  1.0712  1.3462
 6253SOL    HW228690   3.824   3.248   3.254 -2.0557  0.1559  0.1997
 6254SOL     OW28691  11.542   7.497  11.666 -0.2409  0.6169  0.6089
 6254SOL    HW128692  11.515   7.417  11.711  1.2894  0.8139  1.9356
 6254SOL    HW228693  11.636   7.503  11.680  0.5435  0.2660 -3.3714
 6255SOL     OW28694   1.634  12.771   2.204 -0.5116 -0.3036  0.2687
 6255SOL    HW128695   1.616  12.707   2.273 -0.0026 -0.8286 -0.0708
 6255SOL    HW228696   1.680  12.842   2.249  0.8494 -1.1656  0.2928
 6256SOL     OW28697   9.111  10.913   5.954  0.0381  0.5354  0.2225
 6256SOL    HW128698   9.080  10.825   5.933 -0.1616  0.6294  0.1175
 6256SOL    HW228699   9.187  10.926   5.898 -1.6717  1.5565 -2.0301
 6257SOL     OW28700   7.103  12.324   3.697  0.1081 -0.0251 -0.2878
 6257SOL    HW128701   7.122  12.374   3.618 -1.1196  1.4308  0.2864
 6257SOL    HW228702   7.032  12.372   3.740  0.2612 -1.1572  1.3500
 6258SOL     OW28703   2.068   6.526   3.728  0.7242 -0.4916 -0.0387
 6258SOL    HW128704   2.039   6.551   3.816 -0.5963 -2.7970  0.2482
 6258SOL    HW228705   2.007   6.458   3.701  1.9115 -0.7631 -2.2247
 6259SOL     OW28706  11.515   2.066  12.188 -0.2482 -0.3836  0.3849
 6259SOL    HW128707  11.423   2.090  12.189 -0.4835 -1.2576  0.0296
 6259SOL    HW228708  11.526   2.014  12.108  1.0564  1.6594 -0.9083
 6260SOL     OW28709  11.372   8.192  11.773  0.1074  0.0192 -0.1573
 6260SOL    HW128710  11.370   8.153  11.686 -0.0989  1.1330 -0.6674
 6260SOL    HW228711  11.282   8.185  11.804  0.3622 -1.2384  0.3892
 6261SOL     OW28712   5.014   4.796   0.073 -0.6266  0.2906 -0.4107
 6261SOL    HW128713   5.030   4.830  -0.015  0.2273  0.5688 -0.1566
 6261SOL    HW228714   5.100   4.766   0.103 -0.9745 -0.1033  0.2039
 6262SOL     OW28715   1.641   6.437   2.986 -0.2504 -0.3610  0.0311
 6262SOL    HW128716   1.703   6.439   2.913  0.7687  0.5772  0.8871
 6262SOL    HW228717   1.573   6.376   2.958  0.3570 -0.3755 -1.5016
 6263SOL     OW28718   4.422  10.866  13.263 -0.4975 -0.2538  0.0709
 6263SOL    HW128719   4.423  10.962  13.254  0.5920 -0.2799 -0.2008
 6263SOL    HW228720   4.513  10.843  13.284 -0.5105 -1.3247 -0.9651
 6264SOL     OW28721  12.060  10.535  10.183  0.1223  0.1745 -0.0656
 6264SOL    HW128722  12.018  10.577  10.107  0.3532  1.7158  0.6107
 6264SOL    HW228723  11.989  10.486  10.224 -0.4823  0.8667 -0.2382
 6265SOL     OW28724   0.357   3.866  10.187  0.4219 -0.1248 -0.4867
 6265SOL    HW128725   0.357   3.852  10.281 -1.6020 -0.6388 -0.5249
 6265SOL    HW228726   0.394   3.954  10.175  1.5503 -0.4136  0.6813
 6266SOL     OW28727   7.125   1.717  12.106  0.0559  0.5817  0.0550
 6266SOL    HW128728   7.119   1.812  12.100  3.6896  0.9501  0.1246
 6266SOL    HW228729   7.135   1.699  12.199 -2.2765 -0.0984  0.2278
 6267SOL     OW28730  13.147   1.225  10.531  0.1867  0.0375  0.2062
 6267SOL    HW128731  13.083   1.173  10.483 -1.4912  1.9305  0.2735
 6267SOL    HW228732  13.111   1.232  10.619  0.0880  1.7386  0.0509
 6268SOL     OW28733  10.792  10.943  11.311  0.2590  0.3681 -0.1610
 6268SOL    HW128734  10.769  11.015  11.252  0.9287  0.0058 -0.8912
 6268SOL    HW228735  10.726  10.876  11.293  1.0073 -0.1118 -1.2112
 6269SOL     OW28736   8.132   1.054   4.676 -0.2195  0.1701 -0.6375
 6269SOL    HW128737   8.039   1.039   4.663 -0.2872  0.8251 -0.9416
 6269SOL    HW228738   8.175   1.000   4.609 -0.3286 -0.9545  0.1838
 6270SOL     OW28739   1.717   8.011  11.687 -0.2969  0.1736 -0.4042
 6270SOL    HW128740   1.709   8.097  11.645  2.6129  0.8685  0.2409
 6270SOL    HW228741   1.719   7.949  11.614 -3.1590  0.4762 -0.8564
 6271SOL     OW28742   1.125  11.555  10.501  0.8219  0.4759  0.3092
 6271SOL    HW128743   1.060  11.576  10.567 -1.7647 -2.5897 -1.0106
 6271SOL    HW228744   1.106  11.615  10.428  2.2683  2.3660  1.4014
 6272SOL     OW28745  13.122   7.903   2.141 -0.4331  0.4735 -0.1225
 6272SOL    HW128746  13.065   7.977   2.160 -2.1842 -0.7033 -0.5014
 6272SOL    HW228747  13.125   7.900   2.045 -1.7624 -0.8771 -0.1668
 6273SOL     OW28748  10.813   6.110   0.022 -0.1829  0.7893 -0.0409
 6273SOL    HW128749  10.732   6.100  -0.028 -0.3214 -1.2865  0.5163
 6273SOL    HW228750  10.806   6.198   0.060 -1.4051  1.2801 -1.2861
 6274SOL     OW28751   6.206   6.715   8.964 -0.2251  0.1517 -0.0619
 6274SOL    HW128752   6.168   6.668   8.890 -2.0934 -0.0138  0.9402
 6274SOL    HW228753   6.300   6.699   8.957 -0.4397 -0.4558 -1.9627
 6275SOL     OW28754   4.969  13.186   3.770  0.1637 -0.3404  0.1015
 6275SOL    HW128755   5.006  13.097   3.763  0.5718 -0.1430 -0.3528
 6275SOL    HW228756   5.014  13.224   3.845  2.1796  0.4713 -1.4206
 6276SOL     OW28757  13.107   5.748   2.732  0.2574 -0.7663  0.2968
 6276SOL    HW128758  13.131   5.752   2.825 -0.1108 -2.5645  0.5093
 6276SOL    HW228759  13.183   5.784   2.686 -0.3194  2.0501  1.3264
 6277SOL     OW28760   3.435   1.643   3.081  0.7032  0.6939 -0.2330
 6277SOL    HW128761   3.413   1.635   3.174 -2.5572 -1.1871 -1.0305
 6277SOL    HW228762   3.485   1.564   3.060  1.6519  1.2348 -0.0837
 6278SOL     OW28763   5.308   0.222   1.375  0.1166 -0.2083  0.3130
 6278SOL    HW128764   5.289   0.138   1.332  0.7910 -0.2632  0.1216
 6278SOL    HW228765   5.248   0.224   1.450  0.2786 -0.9826  0.4744
 6279SOL     OW28766   9.957  12.540   3.265  0.0147 -0.3686  0.5496
 6279SOL    HW128767   9.883  12.527   3.206 -0.2482 -0.9354  0.9890
 6279SOL    HW228768   9.925  12.509   3.350  0.7495 -0.6116  0.7461
 6280SOL     OW28769   0.924   9.651   4.195  0.0316  0.0079  0.1097
 6280SOL    HW128770   0.892   9.686   4.278 -1.3674 -0.1153 -0.3488
 6280SOL    HW228771   0.997   9.594   4.219  1.3384  1.9508  1.0078
 6281SOL     OW28772   2.177   2.593   5.670 -0.6063 -0.2768 -0.2761
 6281SOL    HW128773   2.250   2.611   5.729  0.2190 -0.3822 -1.2446
 6281SOL    HW228774   2.101   2.588   5.727  0.1225 -0.0347  0.7381
 6282SOL     OW28775   2.978   3.314   6.637 -0.1809 -0.0350 -0.2733
 6282SOL    HW128776   2.948   3.397   6.598  0.1860 -0.5205 -1.6398
 6282SOL    HW228777   3.055   3.339   6.689 -0.2753  0.5244 -0.3876
 6283SOL     OW28778   8.236   1.902   5.002  0.0306 -0.0860  0.1302
 6283SOL    HW128779   8.239   1.811   5.033  1.3468 -0.2183 -0.3273
 6283SOL    HW228780   8.206   1.895   4.911  0.6430 -0.1153 -0.0718
 6284SOL     OW28781   9.230   4.989   0.616 -1.0132 -0.3826 -0.1445
 6284SOL    HW128782   9.313   5.012   0.658 -0.8274  1.8346 -1.5510
 6284SOL    HW228783   9.211   4.900   0.647  0.7545 -0.1276  1.9215
 6285SOL     OW28784   6.369   1.201   4.203  0.1802  0.1774 -0.5153
 6285SOL    HW128785   6.344   1.224   4.292  1.2390  0.7647 -0.3613
 6285SOL    HW228786   6.307   1.132   4.178  0.1802 -0.3494  0.8425
 6286SOL     OW28787   7.392   7.686   6.965  0.3709  0.5547  0.0710
 6286SOL    HW128788   7.486   7.705   6.968  0.8663 -1.7178  0.8458
 6286SOL    HW228789   7.383   7.618   6.899 -1.1188  2.3653 -1.7141
 6287SOL     OW28790   6.915   4.793   2.234 -0.3730 -0.0172 -0.4879
 6287SOL    HW128791   6.880   4.739   2.305 -0.8896  0.8932 -0.0396
 6287SOL    HW228792   6.991   4.743   2.202 -0.8340 -1.0082 -0.0957
 6288SOL     OW28793   3.206   8.612   9.977  0.9471 -0.2032 -0.2325
 6288SOL    HW128794   3.134   8.620  10.039 -0.4470 -0.7420 -1.7230
 6288SOL    HW228795   3.265   8.684   9.999 -1.0875  1.5688 -0.2950
 6289SOL     OW28796  12.876   8.692  12.354  0.1144  0.0148  0.0222
 6289SOL    HW128797  12.884   8.679  12.448 -1.6317  0.0702  0.2036
 6289SOL    HW228798  12.853   8.784  12.344 -0.5729 -0.1951 -0.3902
 6290SOL     OW28799   5.105   9.807   8.922  0.1059 -0.0665 -0.1241
 6290SOL    HW128800   5.186   9.857   8.936 -0.0126 -0.4332  2.1592
 6290SOL    HW228801   5.135   9.719   8.900  0.3009  0.2798 -1.3224
 6291SOL     OW28802   6.102   8.896   1.309 -0.1758 -0.0517 -0.2298
 6291SOL    HW128803   6.067   8.852   1.386 -0.4101  0.3293 -0.1204
 6291SOL    HW228804   6.058   8.981   1.306 -0.9593 -0.4630 -1.3602
 6292SOL     OW28805   3.837   2.141  11.064  0.2789 -0.3310 -0.1798
 6292SOL    HW128806   3.828   2.079  10.992 -1.5146  0.2511 -0.5064
 6292SOL    HW228807   3.823   2.088  11.143  2.2120 -0.9615 -0.1995
 6293SOL     OW28808   8.748   9.043   0.171  0.3349  0.1864  0.2537
 6293SOL    HW128809   8.774   9.021   0.260  0.9558  1.0396  0.2949
 6293SOL    HW228810   8.716   9.133   0.177  2.5639  1.1314 -0.7658
 6294SOL     OW28811   6.792   4.245   1.363  0.0923 -0.0459  0.1013
 6294SOL    HW128812   6.771   4.338   1.352  1.4541  0.1153 -1.4606
 6294SOL    HW228813   6.781   4.207   1.276  0.8132 -1.0668  0.4350
 6295SOL     OW28814   6.734   9.936   7.632  0.0373 -0.5357 -0.4991
 6295SOL    HW128815   6.674   9.997   7.675  0.3059 -0.1664 -0.6487
 6295SOL    HW228816   6.734   9.858   7.689  0.0083 -0.2426 -0.0962
 6296SOL     OW28817   2.726   7.003   1.864  0.1073  0.1614 -0.1498
 6296SOL    HW128818   2.757   7.011   1.954 -2.1725  1.8956  0.5844
 6296SOL    HW228819   2.747   6.913   1.840  1.7763 -0.0123  1.6956
 6297SOL     OW28820  11.280   9.585   1.069 -0.2502  0.2568 -0.3500
 6297SOL    HW128821  11.368   9.578   1.033 -0.6890  0.5109 -1.5304
 6297SOL    HW228822  11.238   9.651   1.015 -0.2399  2.4565  2.1278
 6298SOL     OW28823   7.779   4.538   1.851  0.1010 -0.0524  0.2431
 6298SOL    HW128824   7.859   4.573   1.891  0.1557  1.5231 -1.1433
 6298SOL    HW228825   7.773   4.584   1.767 -1.2991 -1.4828 -0.4716
 6299SOL     OW28826   5.160   0.284   1.616 -0.1525  0.1426 -0.1374
 6299SOL    HW128827   5.211   0.284   1.697 -0.1138  0.2485 -0.1613
 6299SOL    HW228828   5.102   0.360   1.625  0.3416  0.5720 -0.5173
 6300SOL     OW28829   5.178   4.125  10.275 -0.5203  1.2954 -0.0657
 6300SOL    HW128830   5.178   4.176  10.356 -0.3687  1.3234 -0.0835
 6300SOL    HW228831   5.213   4.185  10.209  0.5199  0.8755  0.0953
 6301SOL     OW28832  11.419   6.297   0.954 -0.3057 -0.7718 -0.1249
 6301SOL    HW128833  11.478   6.222   0.947  1.3227  0.3676  0.8587
 6301SOL    HW228834  11.471   6.372   0.929 -2.0012  0.0507 -1.3684
 6302SOL     OW28835   0.929  12.408   4.619 -0.0119 -0.5239  0.0288
 6302SOL    HW128836   0.968  12.321   4.624 -1.9320 -1.3875  1.3100
 6302SOL    HW228837   0.944  12.436   4.529  2.6723 -1.1427  0.2140
 6303SOL     OW28838   2.226   1.476  11.431 -0.0005 -0.3539  0.4200
 6303SOL    HW128839   2.192   1.398  11.476 -1.9642  0.1084 -0.1496
 6303SOL    HW228840   2.253   1.443  11.345 -3.9899 -0.0327 -1.1746
 6304SOL     OW28841  12.638   0.992   8.194 -0.3008 -0.7186 -0.2004
 6304SOL    HW128842  12.564   0.942   8.160 -0.3474 -1.4788  0.9482
 6304SOL    HW228843  12.715   0.951   8.155 -0.3309 -1.8133  0.8398
 6305SOL     OW28844  12.762   4.132   6.600 -0.3480  0.0426 -0.2349
 6305SOL    HW128845  12.835   4.082   6.638 -0.1862  2.3897  2.8584
 6305SOL    HW228846  12.777   4.125   6.505  2.2198 -1.9287  0.1658
 6306SOL     OW28847   2.157   9.012   0.653  0.1708  0.5016  0.0951
 6306SOL    HW128848   2.247   9.039   0.633 -0.5067  1.9759 -1.1655
 6306SOL    HW228849   2.132   8.956   0.579  0.1729 -0.1989  0.6238
 6307SOL     OW28850   4.624  10.690   5.180 -0.0178  0.0785  0.0679
 6307SOL    HW128851   4.623  10.710   5.086 -1.5317 -2.3198 -0.5211
 6307SOL    HW228852   4.532  10.688   5.205  0.2999 -0.7467  1.2401
 6308SOL     OW28853   8.016  10.883   4.727 -0.5495 -0.4375  0.3770
 6308SOL    HW128854   8.092  10.826   4.738 -0.1306  0.1363  0.5111
 6308SOL    HW228855   7.965  10.870   4.807 -0.2473 -0.3267  0.5914
 6309SOL     OW28856   4.303  11.342   4.765  0.4791 -0.2542 -0.3622
 6309SOL    HW128857   4.226  11.342   4.822  0.0112 -0.0210 -0.9806
 6309SOL    HW228858   4.361  11.407   4.804 -0.3660  0.8161 -0.8321
 6310SOL     OW28859   4.525  13.001   0.912 -0.5530 -0.2439 -0.5573
 6310SOL    HW128860   4.613  12.992   0.876 -0.6548 -0.5547 -0.7405
 6310SOL    HW228861   4.477  13.049   0.844 -0.5537 -0.1745 -0.5080
 6311SOL     OW28862   2.459   3.321  12.821  0.3095  0.2308 -0.2612
 6311SOL    HW128863   2.536   3.266  12.805 -0.3686 -0.5888 -0.7478
 6311SOL    HW228864   2.384   3.262  12.811 -0.5179  1.5037 -2.2550
 6312SOL     OW28865   7.870  13.290   4.047  0.0183 -0.1091  0.4255
 6312SOL    HW128866   7.929  13.223   4.081  1.1099  0.8985  0.5883
 6312SOL    HW228867   7.906  13.312   3.961  0.0570  0.7118  0.6414
 6313SOL     OW28868   0.168   1.114  12.957  0.4882  0.3421  0.1582
 6313SOL    HW128869   0.078   1.098  12.985  0.0048  1.1767 -0.8541
 6313SOL    HW228870   0.183   1.206  12.975  2.0448 -0.3293  2.6908
 6314SOL     OW28871   1.438  12.561   8.190 -0.0900 -0.6316 -0.4617
 6314SOL    HW128872   1.511  12.591   8.245 -0.2110  0.9136 -1.0795
 6314SOL    HW228873   1.365  12.554   8.251  0.5364 -2.1550  0.1548
 6315SOL     OW28874   8.318   5.221   3.618  0.1191  0.0124  0.2793
 6315SOL    HW128875   8.298   5.190   3.706  3.6234  0.4264  1.3767
 6315SOL    HW228876   8.306   5.144   3.562 -3.5009  0.0855  0.7309
 6316SOL     OW28877   9.711   3.027   1.000  0.0244  0.4864  0.2742
 6316SOL    HW128878   9.760   3.080   0.937 -1.4891  1.6816  0.0258
 6316SOL    HW228879   9.734   3.064   1.085  1.0493 -0.2507  0.3214
 6317SOL     OW28880  12.472   8.889   9.851 -0.0950 -0.6503 -1.0159
 6317SOL    HW128881  12.408   8.943   9.805 -0.4670  0.0292  0.2548
 6317SOL    HW228882  12.436   8.801   9.848 -0.5783 -0.4498 -1.1959
 6318SOL     OW28883   9.749   7.414   4.372 -0.0664  0.3158  0.3786
 6318SOL    HW128884   9.710   7.463   4.445  0.7476  0.6044  0.6308
 6318SOL    HW228885   9.811   7.355   4.414 -0.4275 -0.3379 -0.0006
 6319SOL     OW28886   6.828   7.087   3.827  0.1177  0.0915  0.0780
 6319SOL    HW128887   6.904   7.029   3.826  0.8523  1.0308  0.1968
 6319SOL    HW228888   6.824   7.121   3.917 -1.3797 -1.1188  0.5206
 6320SOL     OW28889   0.483  11.759   8.333 -0.7373 -0.1528 -0.5397
 6320SOL    HW128890   0.400  11.726   8.300 -0.1548 -0.1309 -2.0846
 6320SOL    HW228891   0.489  11.848   8.300  1.0732 -1.0036 -2.7787
 6321SOL     OW28892   4.074   2.717   1.284 -0.0641 -0.6973  0.0105
 6321SOL    HW128893   4.011   2.724   1.355 -0.4289 -0.2597 -0.3504
 6321SOL    HW228894   4.023   2.739   1.205  0.3066 -1.2682 -0.3955
 6322SOL     OW28895   1.888   2.213   6.355 -0.0832 -0.2327  0.4291
 6322SOL    HW128896   1.924   2.240   6.440  0.6807 -1.8291  0.6539
 6322SOL    HW228897   1.857   2.295   6.315  0.2723  0.6614  1.8926
 6323SOL     OW28898   9.301   2.773  10.642  0.2309  0.4494  0.1097
 6323SOL    HW128899   9.242   2.779  10.567  0.9060  1.4407 -0.3570
 6323SOL    HW228900   9.250   2.725  10.708 -0.6003  0.1107 -0.7441
 6324SOL     OW28901   6.775   4.997   3.895  0.1198  0.0593  0.3034
 6324SOL    HW128902   6.721   5.065   3.855 -0.5347 -0.4230  0.3606
 6324SOL    HW228903   6.714   4.928   3.918  0.8206 -0.7075 -0.0749
 6325SOL     OW28904   3.625   3.995   9.545  0.3040  0.2856  0.6090
 6325SOL    HW128905   3.568   3.994   9.622 -1.7330 -1.1330 -0.8132
 6325SOL    HW228906   3.663   3.907   9.542 -1.9924 -0.7547 -1.5327
 6326SOL     OW28907   1.709   9.039   8.294 -0.1073 -0.9867 -0.3431
 6326SOL    HW128908   1.721   9.061   8.201 -1.6808 -0.6453 -0.4854
 6326SOL    HW228909   1.782   9.081   8.338 -0.7215  1.0283 -1.1302
 6327SOL     OW28910  11.893  11.825   7.759  0.5051  0.3140  0.3124
 6327SOL    HW128911  11.817  11.856   7.809  0.4576  1.2280 -0.2968
 6327SOL    HW228912  11.962  11.888   7.780  0.3510  1.0035 -1.1095
 6328SOL     OW28913   4.664  12.039   6.138 -0.3462  0.3901 -0.0979
 6328SOL    HW128914   4.719  11.963   6.118 -1.2373  0.0820 -1.4409
 6328SOL    HW228915   4.575  12.009   6.124 -0.6783  1.9201 -1.4656
 6329SOL     OW28916   5.786   9.960   0.394  0.2854 -0.1262 -0.1067
 6329SOL    HW128917   5.787  10.055   0.402  0.4355 -0.0559 -0.9293
 6329SOL    HW228918   5.826   9.928   0.475 -0.8600  0.4664  0.7284
 6330SOL     OW28919   6.800   9.286   3.696 -0.1597 -0.0555  0.3300
 6330SOL    HW128920   6.738   9.214   3.688  0.4296 -0.4243 -1.5490
 6330SOL    HW228921   6.884   9.243   3.714 -0.1194  0.2896  0.9599
 6331SOL     OW28922   6.533   7.556   1.455 -0.1521 -0.6228 -0.4746
 6331SOL    HW128923   6.452   7.507   1.443 -0.8146  0.5297 -0.8857
 6331SOL    HW228924   6.504   7.647   1.464  0.8630 -0.4918  2.3201
 6332SOL     OW28925   0.909   8.962  11.624  0.6530 -0.4544 -0.1512
 6332SOL    HW128926   0.930   9.031  11.687 -0.8132 -1.0210  1.0250
 6332SOL    HW228927   0.974   8.971  11.555  1.2076  1.3435  0.5646
 6333SOL     OW28928   0.342  10.893   8.409  0.1507  0.0164  0.3973
 6333SOL    HW128929   0.316  10.841   8.485 -1.5293 -0.7979 -0.6909
 6333SOL    HW228930   0.376  10.974   8.447 -1.0524 -0.1846  2.0166
 6334SOL     OW28931  10.830   3.528   2.761  0.1143 -0.1799 -0.1715
 6334SOL    HW128932  10.829   3.505   2.854  0.1536  0.7050  0.0540
 6334SOL    HW228933  10.824   3.444   2.715  0.7461 -0.6674  0.6259
 6335SOL     OW28934   2.485  11.636   8.096 -0.3734  0.5923  0.3711
 6335SOL    HW128935   2.491  11.715   8.043  0.8322 -0.5531 -1.3208
 6335SOL    HW228936   2.404  11.594   8.068 -0.7270  0.9300  0.8664
 6336SOL     OW28937   6.154   4.085  10.821  0.0619 -0.3518 -0.4891
 6336SOL    HW128938   6.129   4.143  10.748 -0.1693 -0.1478 -0.2544
 6336SOL    HW228939   6.164   4.144  10.896  2.9990 -0.1575 -0.9139
 6337SOL     OW28940  12.825   8.607   3.967  0.4475 -0.0890  0.2385
 6337SOL    HW128941  12.837   8.635   4.057 -0.4660 -0.9939  0.6663
 6337SOL    HW228942  12.844   8.685   3.915 -0.6997  0.9581  1.3086
 6338SOL     OW28943   3.240  13.166   0.713  0.2519 -0.1558  0.2480
 6338SOL    HW128944   3.226  13.167   0.618 -0.3647  1.2793  0.3447
 6338SOL    HW228945   3.301  13.238   0.729  0.4869 -0.5004  0.9316
 6339SOL     OW28946   4.844  12.367   3.624 -0.0986 -0.3295 -0.5899
 6339SOL    HW128947   4.795  12.407   3.695  2.1797  1.5833  0.0216
 6339SOL    HW228948   4.909  12.433   3.599  0.3965 -1.6581 -3.2007
 6340SOL     OW28949   8.368   7.238  10.790 -0.0182  0.0947  0.0163
 6340SOL    HW128950   8.432   7.289  10.741 -1.0657  1.2273 -0.2187
 6340SOL    HW228951   8.362   7.282  10.875 -0.6602  0.1503 -0.0546
 6341SOL     OW28952   2.795   7.943   0.749 -0.2042  0.1713  0.3938
 6341SOL    HW128953   2.876   7.982   0.785 -0.7934  1.0621  0.7968
 6341SOL    HW228954   2.823   7.901   0.668  0.9325 -0.7832  1.2339
 6342SOL     OW28955   8.898   5.700   5.385  0.3329 -0.0502  0.4143
 6342SOL    HW128956   8.887   5.605   5.381  0.1160 -0.0889  1.5167
 6342SOL    HW228957   8.826   5.729   5.441 -0.5146  0.9416 -1.1147
 6343SOL     OW28958  12.359  12.258  12.529  0.5760 -0.3201  0.0453
 6343SOL    HW128959  12.407  12.340  12.541  0.1060  0.1941 -1.4097
 6343SOL    HW228960  12.293  12.260  12.600 -0.3405  1.2731 -0.7767
 6344SOL     OW28961   0.791   9.064   6.664  0.1600 -0.3842  0.1414
 6344SOL    HW128962   0.862   9.000   6.677  0.6534 -0.1355 -1.1704
 6344SOL    HW228963   0.733   9.022   6.600 -0.9008 -0.5851  1.2144
 6345SOL     OW28964   5.442   2.029   5.406  0.4126 -0.7839  0.3771
 6345SOL    HW128965   5.381   1.990   5.469 -1.1206  1.7977  0.6463
 6345SOL    HW228966   5.386   2.059   5.334  1.2698  1.6940  0.6368
 6346SOL     OW28967   7.245   3.569   1.499 -0.2023  0.0957  0.0159
 6346SOL    HW128968   7.198   3.553   1.416 -2.6688 -0.0291  1.3317
 6346SOL    HW228969   7.293   3.488   1.516 -1.4522 -0.7318 -0.2371
 6347SOL     OW28970   8.578   7.960  12.596 -0.6195  0.0715  0.5580
 6347SOL    HW128971   8.553   8.046  12.563  0.9678  0.4209  0.1491
 6347SOL    HW228972   8.663   7.975  12.638 -0.9988 -1.0281  1.7757
 6348SOL     OW28973   1.885   6.088   9.205  0.5911  0.1153 -0.2426
 6348SOL    HW128974   1.886   6.009   9.151  2.1351  0.0432 -0.1515
 6348SOL    HW228975   1.920   6.157   9.149 -2.0148  1.1269 -0.7829
 6349SOL     OW28976   9.697   1.624   5.615  0.0763  0.1060  0.8978
 6349SOL    HW128977   9.630   1.624   5.683 -2.2054 -2.5255 -1.1146
 6349SOL    HW228978   9.750   1.547   5.635  1.0703  0.8325  1.1317
 6350SOL     OW28979   3.337  12.452   5.459 -0.1172 -1.1438  0.5222
 6350SOL    HW128980   3.353  12.441   5.365  1.8074  1.6228  0.4096
 6350SOL    HW228981   3.405  12.398   5.501  1.4968  0.5048  0.1801
 6351SOL     OW28982   5.027   1.440   0.287  0.2610 -0.3228 -0.0643
 6351SOL    HW128983   5.112   1.405   0.258  0.1646 -0.8176  0.2341
 6351SOL    HW228984   4.996   1.492   0.213  0.6475 -0.4558 -0.3240
 6352SOL     OW28985   4.269   5.272   1.232  0.7378  0.1411  0.3784
 6352SOL    HW128986   4.174   5.280   1.221  0.8223 -0.0209 -0.5894
 6352SOL    HW228987   4.280   5.201   1.294  0.2243  0.1113  0.4403
 6353SOL     OW28988   7.409   6.835   5.250 -0.2600 -0.1722  0.0065
 6353SOL    HW128989   7.478   6.775   5.223  0.4542  0.7630 -0.2983
 6353SOL    HW228990   7.421   6.913   5.194 -2.7004 -0.6790 -1.3612
 6354SOL     OW28991   9.656   9.583  11.671  0.1368  0.3590 -0.6737
 6354SOL    HW128992   9.615   9.660  11.630 -0.4234  0.3445 -0.1579
 6354SOL    HW228993   9.603   9.509  11.641  0.7519  0.1514 -1.2715
 6355SOL     OW28994   6.995   7.728   7.782 -1.0250  0.0365 -0.4456
 6355SOL    HW128995   7.045   7.646   7.787  0.1617  0.7592 -0.0708
 6355SOL    HW228996   6.922   7.715   7.844 -0.3075 -0.3836  0.3339
 6356SOL     OW28997  11.767   5.421  10.334 -0.4017 -0.6014  0.3579
 6356SOL    HW128998  11.769   5.399  10.241  1.7203  1.0692 -0.0933
 6356SOL    HW228999  11.857   5.448  10.354 -1.0640  0.2133  2.6106
 6357SOL     OW29000   4.633   5.445   0.662  0.3055 -0.0991  0.5911
 6357SOL    HW129001   4.721   5.432   0.695  0.1496  0.8030  1.4078
 6357SOL    HW229002   4.590   5.500   0.728 -0.8933 -0.5890  0.2558
 6358SOL     OW29003  10.039  11.417  12.992 -0.1248  0.4764  0.1904
 6358SOL    HW129004  10.089  11.497  12.975  1.9113 -0.8980 -0.7511
 6358SOL    HW229005  10.021  11.421  13.086  0.7918  1.5806  0.3537
 6359SOL     OW29006   1.331   7.745   0.316 -0.2643  0.2112  0.2305
 6359SOL    HW129007   1.242   7.777   0.330 -0.2110 -0.4131  2.4672
 6359SOL    HW229008   1.382   7.787   0.385  1.3804  1.1568 -1.4687
 6360SOL     OW29009   7.924   8.176  11.596 -0.2958 -0.2008 -0.1333
 6360SOL    HW129010   7.867   8.104  11.624  0.3781 -0.5553  0.3566
 6360SOL    HW229011   8.009   8.155  11.635  0.3652 -0.0735 -1.4801
 6361SOL     OW29012   0.081  13.114  10.480 -0.3786 -0.0622 -0.8393
 6361SOL    HW129013   0.070  13.147  10.569  0.7935  1.6028 -1.2728
 6361SOL    HW229014   0.004  13.144  10.433 -0.5773 -0.1932 -0.5971
 6362SOL     OW29015   2.182  10.703   4.845 -0.1292 -0.2109 -0.1865
 6362SOL    HW129016   2.250  10.768   4.826  0.8360 -0.7497  1.2835
 6362SOL    HW229017   2.214  10.622   4.805  0.2474 -0.5290  0.7386
 6363SOL     OW29018  10.706   4.599   9.842  0.0479  0.0802  0.6742
 6363SOL    HW129019  10.671   4.535   9.903 -1.8350  0.1472 -0.2884
 6363SOL    HW229020  10.711   4.681   9.893 -1.7541  0.2031  0.6887
 6364SOL     OW29021   0.595   9.571   9.904  0.8035 -0.2918 -0.1377
 6364SOL    HW129022   0.608   9.518   9.826 -0.5397 -1.2391  0.2368
 6364SOL    HW229023   0.531   9.638   9.878 -0.1666 -1.0227  0.2976
 6365SOL     OW29024   8.624   4.621   3.076  0.0030 -0.8399 -0.4348
 6365SOL    HW129025   8.627   4.625   3.172 -2.0063  0.7879 -0.3490
 6365SOL    HW229026   8.540   4.579   3.057 -1.4140  2.0882 -1.3438
 6366SOL     OW29027   0.642  10.497   9.598  0.0815 -0.9035  0.0916
 6366SOL    HW129028   0.708  10.474   9.533 -1.2815 -1.6277 -1.0935
 6366SOL    HW229029   0.629  10.592   9.586  1.6013 -0.5356  1.0571
 6367SOL     OW29030   5.066   8.146   2.117  0.3728 -0.1332  0.6409
 6367SOL    HW129031   5.008   8.207   2.161 -0.9511 -1.0779  0.2689
 6367SOL    HW229032   5.015   8.114   2.043  0.4996 -2.6442  1.5471
 6368SOL     OW29033  12.951  12.021  12.405 -0.0743  0.4172 -0.2287
 6368SOL    HW129034  12.965  11.976  12.322 -2.7395  2.8235 -2.1648
 6368SOL    HW229035  13.033  12.069  12.421 -0.2622  1.7331 -2.7586
 6369SOL     OW29036  13.175  12.039   2.112  0.2457  0.0950  0.5123
 6369SOL    HW129037  13.251  12.087   2.080 -0.8607  2.9655  1.8468
 6369SOL    HW229038  13.192  12.024   2.205 -0.4436  0.0482  0.6413
 6370SOL     OW29039  10.089   3.229   5.054 -0.6566 -0.2925  0.3145
 6370SOL    HW129040  10.086   3.324   5.044 -1.9923 -0.3041  0.5042
 6370SOL    HW229041  10.176   3.204   5.021 -1.6120  0.5889 -3.1833
 6371SOL     OW29042  12.380   0.633   7.802  0.2918  0.1987  0.4295
 6371SOL    HW129043  12.427   0.712   7.830 -0.0685  0.2082  1.0437
 6371SOL    HW229044  12.448   0.567   7.790  0.9333  1.2278 -2.5968
 6372SOL     OW29045   4.021   3.479  12.786 -0.0216 -0.1842  0.5815
 6372SOL    HW129046   4.102   3.509  12.745 -0.0067  2.3948  2.2806
 6372SOL    HW229047   4.045   3.459  12.876 -1.1718  0.0910  0.9667
 6373SOL     OW29048   2.058  11.162   4.260  0.4428 -0.4363  0.2810
 6373SOL    HW129049   2.133  11.144   4.317  0.5932  1.2737  0.6737
 6373SOL    HW229050   2.083  11.125   4.175  2.3205  1.2443  0.0467
 6374SOL     OW29051  10.036   3.389   1.452  0.5261  0.1340 -0.3345
 6374SOL    HW129052  10.002   3.479   1.446  2.7114  1.1615  1.1856
 6374SOL    HW229053  10.090   3.379   1.374  0.0602  0.0078 -0.6483
 6375SOL     OW29054   2.578   3.354   7.925 -0.3115 -0.4882 -0.2211
 6375SOL    HW129055   2.565   3.348   7.830 -1.0666  1.9730 -0.3450
 6375SOL    HW229056   2.502   3.308   7.962 -1.6018  0.9804 -0.8953
 6376SOL     OW29057   0.449   8.156   4.880  0.1323 -0.0728 -0.0811
 6376SOL    HW129058   0.429   8.072   4.921 -0.4440  0.5236  0.9041
 6376SOL    HW229059   0.374   8.174   4.824  0.4808 -0.4330 -0.6773
 6377SOL     OW29060  12.287   7.561   6.357  0.2096  0.0539 -0.1225
 6377SOL    HW129061  12.284   7.471   6.324 -2.9698 -0.1717  0.4530
 6377SOL    HW229062  12.379   7.576   6.379  1.0512 -2.5702 -1.4784
 6378SOL     OW29063   8.132  11.731  10.434  0.0681  0.4042 -0.3091
 6378SOL    HW129064   8.110  11.793  10.364 -0.4045  1.9650  1.1626
 6378SOL    HW229065   8.195  11.671  10.394  0.7291  1.9805 -1.7348
 6379SOL     OW29066   5.310   6.593   7.214 -0.2165 -0.4176 -0.4277
 6379SOL    HW129067   5.271   6.516   7.256 -0.0137 -0.6424 -0.6460
 6379SOL    HW229068   5.292   6.581   7.121 -1.4870  0.5548 -0.3278
 6380SOL     OW29069   1.361   9.726   7.561 -0.4751 -0.6793 -0.0862
 6380SOL    HW129070   1.375   9.650   7.618 -2.2865 -1.0968 -0.1259
 6380SOL    HW229071   1.265   9.737   7.559 -0.3241  0.7419 -1.2102
 6381SOL     OW29072  10.081   5.816   8.297 -0.2364 -0.0195 -0.2001
 6381SOL    HW129073  10.103   5.772   8.379 -2.3196 -2.4618 -0.8204
 6381SOL    HW229074  10.157   5.802   8.241  1.0916  1.4343  1.1340
 6382SOL     OW29075   3.736   8.279   9.583 -0.2803 -0.4542  0.4823
 6382SOL    HW129076   3.792   8.351   9.612 -0.2493 -0.3043  0.0457
 6382SOL    HW229077   3.790   8.201   9.593  0.8560 -0.0797 -2.1676
 6383SOL     OW29078  13.271  11.135   1.940  0.3711  0.1982 -0.0386
 6383SOL    HW129079  13.241  11.061   1.993  0.3344 -0.4583 -0.9642
 6383SOL    HW229080  13.222  11.128   1.858 -0.4449  1.8763  0.2425
 6384SOL     OW29081   5.657   9.948   9.438  0.1757 -0.2063  0.3167
 6384SOL    HW129082   5.728   9.936   9.501 -1.1426 -0.4610  1.8044
 6384SOL    HW229083   5.609   9.866   9.439 -0.1194 -0.0598 -0.7143
 6385SOL     OW29084   2.141   7.980   7.531 -0.3077 -0.0233  0.2729
 6385SOL    HW129085   2.060   7.964   7.481 -0.8025  0.3692  0.9462
 6385SOL    HW229086   2.202   8.014   7.466 -1.0282  0.7255 -0.0224
 6386SOL     OW29087   3.966   0.819   2.982 -0.0283 -0.1315  0.1771
 6386SOL    HW129088   4.026   0.815   2.908  0.4157 -1.7385  0.5811
 6386SOL    HW229089   3.879   0.813   2.943  0.1645 -0.0394 -0.2656
 6387SOL     OW29090   0.992   4.123  11.845  0.4297 -0.1367  0.0969
 6387SOL    HW129091   0.951   4.127  11.759  0.3412 -1.8723  0.0121
 6387SOL    HW229092   0.920   4.135  11.906  0.8922  4.3517  0.0608
 6388SOL     OW29093  12.667   9.098   2.638  0.3335 -0.2877 -0.1613
 6388SOL    HW129094  12.720   9.094   2.717  0.5726 -1.3392 -0.3602
 6388SOL    HW229095  12.601   9.029   2.649 -0.1250  0.0833 -0.5301
 6389SOL     OW29096   7.964  10.693  13.217  0.0775 -0.2221  0.0277
 6389SOL    HW129097   8.047  10.685  13.264  0.4670 -0.0949 -0.6311
 6389SOL    HW229098   7.988  10.719  13.129 -0.6171 -0.8927 -0.3784
 6390SOL     OW29099   7.805   4.276   0.315 -0.4001  0.3576  0.6810
 6390SOL    HW129100   7.780   4.281   0.407 -1.1163 -0.5955  0.5519
 6390SOL    HW229101   7.795   4.184   0.292 -0.3919  0.6115 -0.3985
 6391SOL     OW29102   6.794  11.996   9.743  0.6816 -0.3457 -0.0333
 6391SOL    HW129103   6.743  11.977   9.822  1.7482 -0.0225  0.7621
 6391SOL    HW229104   6.791  12.092   9.736  0.1963 -0.4073 -0.6572
 6392SOL     OW29105   3.784   9.404   4.598 -0.7136 -0.4325  0.6144
 6392SOL    HW129106   3.726   9.336   4.565 -0.4279  0.0694 -0.9966
 6392SOL    HW229107   3.734   9.447   4.668 -1.4348 -1.3735  0.6941
 6393SOL     OW29108   5.167  12.135   2.259  0.2273  0.3416 -0.4975
 6393SOL    HW129109   5.243  12.110   2.207  0.9435  0.3638  0.5093
 6393SOL    HW229110   5.102  12.163   2.194  1.7993  2.3322 -1.3083
 6394SOL     OW29111   6.169   6.649   9.913  0.1198 -0.2810  0.1291
 6394SOL    HW129112   6.235   6.609   9.856 -0.2467  1.3512 -1.5358
 6394SOL    HW229113   6.206   6.734   9.937 -1.2006  0.5600 -0.6442
 6395SOL     OW29114   7.963   1.134  12.729 -0.3771  0.4689 -0.1052
 6395SOL    HW129115   7.971   1.135  12.633  0.5214  1.7680 -0.0498
 6395SOL    HW229116   7.975   1.042  12.753  2.3670  0.4623 -1.0672
 6396SOL     OW29117   3.332   8.131   0.993 -0.6515  0.0117 -0.1935
 6396SOL    HW129118   3.364   8.205   0.943 -1.8472  1.0013  0.4230
 6396SOL    HW229119   3.347   8.054   0.938  2.7828  0.3431  0.1161
 6397SOL     OW29120   1.341   7.390   8.919 -0.1183  0.0371 -0.5510
 6397SOL    HW129121   1.430   7.367   8.948 -0.6481 -0.0956  1.0574
 6397SOL    HW229122   1.355   7.447   8.843  1.3235 -0.5642 -0.7825
 6398SOL     OW29123   5.369   0.707  11.944 -0.1279 -0.0246 -0.0471
 6398SOL    HW129124   5.389   0.791  11.904  1.0705 -0.2324  0.0870
 6398SOL    HW229125   5.367   0.645  11.871 -2.7726  0.3594 -0.4021
 6399SOL     OW29126   0.918  11.856   6.718 -0.6083 -0.2275 -0.0371
 6399SOL    HW129127   1.000  11.844   6.669 -0.2413  0.5341  0.3726
 6399SOL    HW229128   0.940  11.917   6.788 -1.4431 -0.3045  0.3104
 6400SOL     OW29129  12.639   3.454   2.590  0.6506 -0.0373 -0.0101
 6400SOL    HW129130  12.633   3.513   2.515 -1.3449  0.8590  0.7890
 6400SOL    HW229131  12.624   3.367   2.554 -0.4472  0.3997 -0.6587
 6401SOL     OW29132   9.476   7.549   3.798 -0.2194 -0.0469  0.0592
 6401SOL    HW129133   9.395   7.528   3.846 -0.0240 -0.5668  0.1737
 6401SOL    HW229134   9.516   7.464   3.781  0.5965  0.2309  0.5163
 6402SOL     OW29135   2.539   5.268  10.537 -0.1111  0.1713  0.1930
 6402SOL    HW129136   2.585   5.276  10.621 -0.0240  0.5691  0.1102
 6402SOL    HW229137   2.448   5.288  10.558 -0.1152  0.1248  0.2194
 6403SOL     OW29138   2.460   2.387   0.876  0.2672  0.7972  0.7440
 6403SOL    HW129139   2.549   2.370   0.907 -0.0249  0.5677  1.4821
 6403SOL    HW229140   2.472   2.443   0.800  1.0095  1.4838  1.3439
 6404SOL     OW29141  12.901   5.303   1.894 -0.2030  0.7026  0.2792
 6404SOL    HW129142  12.807   5.315   1.904 -0.8521 -2.7715 -0.2724
 6404SOL    HW229143  12.928   5.262   1.976  0.6444  0.7928  0.0558
 6405SOL     OW29144   8.252  11.088   1.281  0.3005 -0.5074 -0.0700
 6405SOL    HW129145   8.261  11.044   1.197  0.6329 -0.5668 -0.0050
 6405SOL    HW229146   8.276  11.179   1.263  0.5928 -0.5684  0.0071
 6406SOL     OW29147  12.133   5.555   4.707  0.0814 -0.2225 -0.8114
 6406SOL    HW129148  12.182   5.494   4.651 -0.0398 -2.8694  1.6967
 6406SOL    HW229149  12.042   5.529   4.697  0.0996 -1.1050  0.8745
 6407SOL     OW29150   5.122  12.798  12.185  0.4201 -0.1589 -0.0349
 6407SOL    HW129151   5.034  12.785  12.150 -0.2202  3.1191  0.0759
 6407SOL    HW229152   5.115  12.772  12.277 -1.3233  2.6164  0.7446
 6408SOL     OW29153   5.724   7.553   5.279  0.4259 -0.1526 -0.4516
 6408SOL    HW129154   5.660   7.589   5.218 -0.4005 -1.6049 -0.4756
 6408SOL    HW229155   5.692   7.465   5.300  0.9016  0.1209  1.7508
 6409SOL     OW29156   4.060   2.879   4.399  0.0635 -0.2999  0.8447
 6409SOL    HW129157   4.101   2.798   4.430  0.2185 -0.3287  0.5641
 6409SOL    HW229158   3.968   2.871   4.425  0.2078 -0.2781  1.3899
 6410SOL     OW29159  10.288   5.662   5.683 -0.5071 -0.2660 -0.2792
 6410SOL    HW129160  10.341   5.669   5.604 -2.1611 -1.3773 -1.5829
 6410SOL    HW229161  10.267   5.569   5.689 -3.6142  0.2497 -0.8674
 6411SOL     OW29162  11.442   9.808   3.122  0.1785 -0.2786  0.0548
 6411SOL    HW129163  11.474   9.895   3.145  0.3307 -0.3574  0.1454
 6411SOL    HW229164  11.348   9.819   3.109  0.0426 -0.2682  0.9391
 6412SOL     OW29165   5.894   8.126   5.998 -0.0212 -0.4490 -0.4811
 6412SOL    HW129166   5.975   8.127   5.948 -0.8209  0.8809 -1.8468
 6412SOL    HW229167   5.825   8.121   5.931 -1.0771 -2.6313  0.6621
 6413SOL     OW29168   4.907   5.206   4.319 -0.1379 -0.4540  0.2264
 6413SOL    HW129169   4.984   5.263   4.318 -0.4664 -0.0050  0.5596
 6413SOL    HW229170   4.933   5.131   4.266  0.0420  0.3500 -0.8682
 6414SOL     OW29171   8.063  12.437   7.677 -0.0263 -0.1206 -0.6775
 6414SOL    HW129172   8.118  12.452   7.754 -0.0950  2.1605 -1.0059
 6414SOL    HW229173   8.048  12.342   7.676  3.4063 -0.7876 -0.2869
 6415SOL     OW29174   2.636   4.031  12.821 -0.7088 -0.0290  0.4413
 6415SOL    HW129175   2.652   3.938  12.806 -0.3033  0.0292  0.5096
 6415SOL    HW229176   2.674   4.075  12.745 -2.1200 -0.0061 -0.2942
 6416SOL     OW29177  11.268   9.726   6.751  0.2199 -0.5760  0.6349
 6416SOL    HW129178  11.196   9.663   6.747  0.7018 -1.0915 -0.5827
 6416SOL    HW229179  11.232   9.806   6.714  0.2762 -0.8410  0.0019
 6417SOL     OW29180  11.166   5.316   9.138 -0.3545 -0.3887 -0.2844
 6417SOL    HW129181  11.127   5.311   9.050 -0.6812  1.9695 -0.3186
 6417SOL    HW229182  11.258   5.335   9.122 -0.4673  0.3066 -0.1231
 6418SOL     OW29183   0.245   7.729   2.536  0.1939 -0.2445 -0.3927
 6418SOL    HW129184   0.340   7.738   2.527  0.2662 -1.8176 -1.5955
 6418SOL    HW229185   0.210   7.791   2.472  0.5024 -1.7481 -2.0851
 6419SOL     OW29186  12.613   4.281  10.515  0.0200  0.2115  0.1162
 6419SOL    HW129187  12.544   4.283  10.449 -0.3470 -1.8747  0.3511
 6419SOL    HW229188  12.694   4.295  10.466 -0.2790 -0.9473 -0.7477
 6420SOL     OW29189   8.026  10.620   7.448 -0.1389 -0.2973  0.6357
 6420SOL    HW129190   8.019  10.553   7.379 -0.7218  0.4080 -0.0062
 6420SOL    HW229191   8.112  10.605   7.487 -0.1535 -1.2561  0.3267
 6421SOL     OW29192   5.634   5.220   6.979  0.2296  0.2242  0.8885
 6421SOL    HW129193   5.589   5.196   7.060 -0.2267 -0.5655  0.4050
 6421SOL    HW229194   5.564   5.250   6.921  0.5479  0.7106  0.7484
 6422SOL     OW29195  11.391   9.444  13.154  0.0673 -0.1402 -0.4285
 6422SOL    HW129196  11.407   9.530  13.194  0.1766 -0.6708  0.6868
 6422SOL    HW229197  11.303   9.451  13.118  0.3792  0.7084 -1.0747
 6423SOL     OW29198   0.845   8.834   3.675  0.1057 -0.0827 -0.4044
 6423SOL    HW129199   0.906   8.771   3.638 -0.3659 -1.4648  1.0651
 6423SOL    HW229200   0.861   8.832   3.769 -1.0085  0.8170 -0.1640
 6424SOL     OW29201   1.167   6.377   5.019 -0.5172  0.0732 -0.3406
 6424SOL    HW129202   1.255   6.341   5.015 -0.8030 -0.5478 -1.4459
 6424SOL    HW229203   1.176   6.467   4.987 -0.3158 -0.0604 -0.6601
 6425SOL     OW29204   8.292   9.921   2.896 -0.0658  0.7859  0.0473
 6425SOL    HW129205   8.252   9.996   2.853  0.9137  0.4344 -1.5417
 6425SOL    HW229206   8.387   9.936   2.889  0.1364 -0.0626  0.6931
 6426SOL     OW29207   4.838  10.055  10.987  0.1461  0.3386 -0.0136
 6426SOL    HW129208   4.787   9.991  11.036 -1.6563  1.7383  0.0630
 6426SOL    HW229209   4.860  10.011  10.905 -1.0569 -0.3905  0.0357
 6427SOL     OW29210   8.996   9.399  12.634 -0.4547  0.1652  0.7036
 6427SOL    HW129211   9.085   9.429  12.614 -0.4204 -0.5473 -0.3016
 6427SOL    HW229212   9.001   9.368  12.724  0.4672 -0.4027  0.4710
 6428SOL     OW29213   0.803  12.324   9.764 -0.3582  0.1092  0.7511
 6428SOL    HW129214   0.829  12.332   9.856 -0.1333 -0.2298  0.7181
 6428SOL    HW229215   0.771  12.411   9.741  1.2088  0.6951  0.6461
 6429SOL     OW29216   9.677   0.465  10.819  0.1886  0.9669  0.0945
 6429SOL    HW129217   9.658   0.465  10.725  3.1604  1.4483 -0.5925
 6429SOL    HW229218   9.594   0.441  10.860 -1.0954  0.3271 -2.6602
 6430SOL     OW29219   5.668   2.661   2.090  0.4110 -0.0216  0.2830
 6430SOL    HW129220   5.717   2.741   2.070 -0.0959 -0.4336 -3.2122
 6430SOL    HW229221   5.704   2.631   2.174  1.8754  2.8424  0.8148
 6431SOL     OW29222   9.681   3.975  12.116  0.0157 -0.5166  0.2612
 6431SOL    HW129223   9.714   3.979  12.026 -0.0966  0.7913  0.2586
 6431SOL    HW229224   9.671   4.066  12.142 -0.7450 -0.8780  1.3189
 6432SOL     OW29225  11.430   1.324   6.440  0.2033 -0.2707 -0.2341
 6432SOL    HW129226  11.522   1.348   6.426  0.3585 -1.2771 -1.0952
 6432SOL    HW229227  11.420   1.320   6.535  1.0856 -0.2661 -0.1301
 6433SOL     OW29228   5.161  11.519   9.152  0.2262  0.8578 -0.9238
 6433SOL    HW129229   5.222  11.489   9.084  0.6591 -1.7411  0.4809
 6433SOL    HW229230   5.077  11.481   9.127  0.3505  0.0364 -0.1596
 6434SOL     OW29231  11.031   4.230   5.703 -0.5844 -0.5046 -0.6627
 6434SOL    HW129232  11.008   4.214   5.612  0.3201 -0.1307 -0.9727
 6434SOL    HW229233  11.058   4.145   5.736 -0.4647 -0.5555 -0.8872
 6435SOL     OW29234   8.878   2.782   5.435  0.2070  0.1350  0.7185
 6435SOL    HW129235   8.851   2.865   5.474  1.8630  0.1953  1.8644
 6435SOL    HW229236   8.974   2.790   5.428  0.2367 -1.0887 -0.5695
 6436SOL     OW29237   7.009   8.618   2.543  0.5258 -0.0004  0.4022
 6436SOL    HW129238   7.036   8.701   2.581  0.6745  0.3811 -0.4948
 6436SOL    HW229239   6.913   8.624   2.538  0.2926 -0.9557  2.6908
 6437SOL     OW29240  10.617   8.470  12.603  0.0495  0.2116 -0.2666
 6437SOL    HW129241  10.648   8.534  12.540  3.3454 -1.5567 -0.6308
 6437SOL    HW229242  10.578   8.523  12.674  1.8437  2.5680 -0.9147
 6438SOL     OW29243   7.664   4.391  13.058  0.0007 -0.1212  0.7205
 6438SOL    HW129244   7.717   4.314  13.078 -0.1425 -1.0122 -1.8970
 6438SOL    HW229245   7.574   4.358  13.052 -0.1767  0.3943  0.4120
 6439SOL     OW29246   3.108  13.155   5.065 -0.0622  0.5944 -0.6292
 6439SOL    HW129247   3.029  13.118   5.024 -0.3101  1.5160 -1.0208
 6439SOL    HW229248   3.150  13.205   4.994  2.4828 -2.2079 -1.2944
 6440SOL     OW29249   1.488   0.643  12.413 -0.1910  0.2276 -0.5665
 6440SOL    HW129250   1.479   0.694  12.332 -0.1328  0.4090 -0.4586
 6440SOL    HW229251   1.582   0.637  12.427 -0.1747 -0.4041 -0.8906
 6441SOL     OW29252   3.496   1.958  11.489 -0.0886 -0.2814 -0.0674
 6441SOL    HW129253   3.543   2.034  11.522 -0.6021  0.2164 -0.4530
 6441SOL    HW229254   3.540   1.883  11.528  0.6749  0.1976  0.0057
 6442SOL     OW29255  10.386   4.996   2.836 -0.1824 -0.3436 -0.2286
 6442SOL    HW129256  10.310   4.996   2.778 -2.1003  2.2139  2.0314
 6442SOL    HW229257  10.352   4.963   2.919  1.4594 -0.1753  0.5368
 6443SOL     OW29258   7.810  11.590  12.721 -0.4524  0.4369  0.3501
 6443SOL    HW129259   7.859  11.527  12.667 -1.6512  0.0267 -0.3059
 6443SOL    HW229260   7.723  11.593  12.680 -1.3364  0.2938  2.1225
 6444SOL     OW29261  11.209   8.229  10.218  0.2098  0.8574  0.1397
 6444SOL    HW129262  11.277   8.162  10.223 -0.4216  0.2954  2.2173
 6444SOL    HW229263  11.256   8.312  10.222  0.9097  0.5578 -1.1760
 6445SOL     OW29264   1.269  11.077   9.170  0.5783  0.7947 -0.0490
 6445SOL    HW129265   1.207  11.145   9.196  0.3848  0.4870  0.3197
 6445SOL    HW229266   1.303  11.043   9.253 -1.1576 -1.2386 -0.0806
 6446SOL     OW29267  13.107   8.293   3.141  0.2577  0.2044  0.4170
 6446SOL    HW129268  13.138   8.384   3.140  2.5068 -0.5103  0.5504
 6446SOL    HW229269  13.020   8.299   3.180 -0.0434  2.3912 -0.3809
 6447SOL     OW29270   4.457   4.668   8.166 -0.8058 -0.3545  0.1597
 6447SOL    HW129271   4.548   4.692   8.184 -0.7254 -0.0245 -0.6553
 6447SOL    HW229272   4.406   4.728   8.221 -0.5345 -0.9863  1.1333
 6448SOL     OW29273  10.155   2.159  11.469  0.6411 -0.4653 -0.4541
 6448SOL    HW129274  10.073   2.115  11.491  1.6263 -2.1846 -0.0489
 6448SOL    HW229275  10.145   2.184  11.377 -1.7763  2.8231  0.5021
 6449SOL     OW29276  10.392   6.341   0.847  0.3453 -0.0006  0.2925
 6449SOL    HW129277  10.424   6.298   0.926  1.7873 -0.6406 -0.5911
 6449SOL    HW229278  10.394   6.272   0.780 -0.4072  0.6376 -0.4072
 6450SOL     OW29279   5.452  12.614  10.593 -0.0989  0.8189 -0.2525
 6450SOL    HW129280   5.543  12.586  10.585 -0.0507  1.1605 -0.9625
 6450SOL    HW229281   5.416  12.603  10.505 -2.1154 -3.8855  0.8880
 6451SOL     OW29282   3.201   8.731   1.346 -0.2138  0.1544 -0.0124
 6451SOL    HW129283   3.114   8.698   1.368  0.0099  0.9694  2.4176
 6451SOL    HW229284   3.258   8.654   1.351 -0.4827 -0.0180  0.5351
 6452SOL     OW29285   1.345   0.307   3.496 -0.1267  0.0644 -0.2017
 6452SOL    HW129286   1.274   0.264   3.543  0.7132 -2.6091 -1.1834
 6452SOL    HW229287   1.405   0.236   3.474  1.8163  1.9219 -1.2219
 6453SOL     OW29288   8.551  10.771   8.580 -0.1345  0.0061  0.4432
 6453SOL    HW129289   8.613  10.841   8.561 -1.2273  1.3436  1.5757
 6453SOL    HW229290   8.579  10.698   8.525  0.8514  1.4372 -1.0368
 6454SOL     OW29291  13.113   1.442   6.128  0.2220 -0.0111 -0.1250
 6454SOL    HW129292  13.186   1.492   6.092 -0.9021  2.7053  1.0858
 6454SOL    HW229293  13.153   1.374   6.181  1.8397  0.4395 -0.7190
 6455SOL     OW29294  10.345   7.568   4.827 -0.5697 -0.0156 -0.4626
 6455SOL    HW129295  10.284   7.641   4.826 -1.8293 -1.0271 -0.6753
 6455SOL    HW229296  10.340   7.533   4.916  1.3336  1.1584  0.1707
 6456SOL     OW29297   1.618  11.031   1.593 -0.2978 -0.0742 -0.2505
 6456SOL    HW129298   1.695  11.023   1.648  0.8885  0.3255 -1.7689
 6456SOL    HW229299   1.547  10.993   1.644  0.9670 -0.7602  1.0492
 6457SOL     OW29300   3.549   3.084   6.094 -0.3208  0.5288 -0.4350
 6457SOL    HW129301   3.611   3.149   6.127 -0.2251  0.0236  0.4131
 6457SOL    HW229302   3.463   3.122   6.109 -0.2384  0.8879 -0.8705
 6458SOL     OW29303   4.906  12.719   8.990 -0.6731 -0.0611 -0.2581
 6458SOL    HW129304   4.977  12.699   9.051 -0.5164  3.4319  0.9447
 6458SOL    HW229305   4.830  12.735   9.046 -1.4538 -0.2043 -1.2488
 6459SOL     OW29306  12.015   0.198   6.543  0.3249  0.3503  0.3358
 6459SOL    HW129307  11.991   0.107   6.528  1.1544  0.0836  0.5810
 6459SOL    HW229308  11.958   0.226   6.615 -1.3900  0.6695 -1.0768
 6460SOL     OW29309   5.304  10.186   9.474 -0.2244 -0.4209 -0.0885
 6460SOL    HW129310   5.288  10.119   9.540 -1.5553 -0.4947 -0.4603
 6460SOL    HW229311   5.398  10.205   9.481 -0.4731  0.2289  2.4482
 6461SOL     OW29312   6.347   6.626  10.611 -0.3476 -0.6665  0.3712
 6461SOL    HW129313   6.400   6.665  10.541  0.1630 -1.5815  0.2440
 6461SOL    HW229314   6.401   6.634  10.689 -0.6207 -0.3154  0.5329
 6462SOL     OW29315   1.908   5.214   0.869  0.1765  0.3491 -0.4114
 6462SOL    HW129316   1.954   5.188   0.948  0.9029  0.3657 -0.8163
 6462SOL    HW229317   1.849   5.284   0.897 -0.4802 -0.4993  0.3415
 6463SOL     OW29318   9.646   7.626   5.126 -0.2519  0.1238 -0.0705
 6463SOL    HW129319   9.654   7.633   5.221 -0.2116  0.0813 -0.0704
 6463SOL    HW229320   9.552   7.614   5.110 -0.0040 -3.6220  0.2311
 6464SOL     OW29321   3.580   8.293   3.246  0.4244  0.4427  0.4087
 6464SOL    HW129322   3.673   8.312   3.259  0.5142 -0.6404  1.5130
 6464SOL    HW229323   3.579   8.219   3.185  0.4797 -1.4092  2.4837
 6465SOL     OW29324   6.083   1.443   2.045 -0.4348  0.0039 -0.0360
 6465SOL    HW129325   6.104   1.432   2.138  0.8001 -1.2755 -0.4389
 6465SOL    HW229326   6.101   1.536   2.028 -0.5737  0.2320  0.9643
 6466SOL     OW29327   7.716  13.179   7.242 -0.0789 -0.1578 -0.6376
 6466SOL    HW129328   7.667  13.102   7.213 -0.4547 -0.5158  0.8453
 6466SOL    HW229329   7.795  13.143   7.283 -1.6097 -0.0725  2.7717
 6467SOL     OW29330   7.667   7.953   5.052  0.0710 -0.4738 -0.5544
 6467SOL    HW129331   7.686   7.872   5.099  0.2339 -0.0212  0.1844
 6467SOL    HW229332   7.602   7.928   4.986 -0.2717 -1.1043  0.0057
 6468SOL     OW29333  12.518  11.622  12.690  0.6291 -0.2300  0.2748
 6468SOL    HW129334  12.555  11.687  12.630 -1.0937  1.1708  0.6300
 6468SOL    HW229335  12.521  11.540  12.641  0.2920  0.6602 -1.3160
 6469SOL     OW29336  12.802   5.092   8.192 -0.0857 -0.3665 -0.3998
 6469SOL    HW129337  12.880   5.122   8.237  0.0702 -1.4711  0.1136
 6469SOL    HW229338  12.753   5.172   8.171  0.0285  0.2068  1.3974
 6470SOL     OW29339   2.266  10.569   1.018  0.0687  0.0505  0.9284
 6470SOL    HW129340   2.334  10.507   0.992  0.3813 -1.1806  4.1694
 6470SOL    HW229341   2.313  10.649   1.042 -0.2527  1.3463 -2.2746
 6471SOL     OW29342   6.461   6.461   4.957  0.5624  0.1220 -0.1636
 6471SOL    HW129343   6.437   6.403   5.029  0.0619  0.3234 -0.1647
 6471SOL    HW229344   6.556   6.473   4.966  0.6445 -0.5691 -0.0731
 6472SOL     OW29345   9.663  10.988  10.252 -0.0611  0.8435  0.0982
 6472SOL    HW129346   9.749  11.011  10.289 -0.2655  0.9620  0.5099
 6472SOL    HW229347   9.678  10.907  10.204 -0.1563 -0.3390  1.9704
 6473SOL     OW29348  12.655  12.132  10.892 -0.2015 -0.2019  0.2509
 6473SOL    HW129349  12.642  12.114  10.799 -0.3107 -0.1167  0.2498
 6473SOL    HW229350  12.749  12.147  10.900 -0.4792  2.2782 -0.2977
 6474SOL     OW29351  11.699   8.625  12.167 -0.6977  0.1731 -0.1449
 6474SOL    HW129352  11.654   8.676  12.235  1.5930  1.1574  0.7289
 6474SOL    HW229353  11.697   8.535  12.199 -1.7213  0.2513  0.0363
 6475SOL     OW29354   6.800   3.734   9.982 -0.2439  0.0554 -0.1375
 6475SOL    HW129355   6.772   3.692   9.901 -2.0760  0.0385  0.4522
 6475SOL    HW229356   6.810   3.827   9.959  1.5936 -0.2924 -0.9053
 6476SOL     OW29357   6.097   8.503  12.782 -0.1645  0.3047 -0.1198
 6476SOL    HW129358   6.029   8.547  12.731  0.3426 -0.3602 -1.4200
 6476SOL    HW229359   6.117   8.563  12.853 -0.3253  1.6490 -1.1788
 6477SOL     OW29360  11.735  10.608   5.811  0.5447  0.4741  0.0151
 6477SOL    HW129361  11.726  10.694   5.852 -0.2832  1.1713 -1.5215
 6477SOL    HW229362  11.647  10.573   5.808  0.5081  0.6153 -1.4469
 6478SOL     OW29363   9.889   7.712  11.235 -0.0032  0.0266  0.0852
 6478SOL    HW129364   9.965   7.689  11.288 -0.8696 -0.4928  1.1488
 6478SOL    HW229365   9.840   7.630  11.227 -0.6047  0.4157 -0.3300
 6479SOL     OW29366   6.326  12.311   0.436 -0.1545 -0.0681 -0.0772
 6479SOL    HW129367   6.367  12.369   0.499  0.1705  0.1681 -0.4999
 6479SOL    HW229368   6.296  12.369   0.366 -0.6334 -0.3101 -0.0798
 6480SOL     OW29369   5.063   0.072   1.468 -0.5291  0.3320  0.2661
 6480SOL    HW129370   4.996   0.097   1.405  0.7556  0.8204 -0.9582
 6480SOL    HW229371   5.077   0.151   1.520 -0.2370  0.5229 -0.1000
 6481SOL     OW29372   4.971   6.449   1.942 -0.1697  0.0654  0.1356
 6481SOL    HW129373   5.058   6.475   1.910 -0.2424  0.4992  0.2736
 6481SOL    HW229374   4.988   6.373   1.998  0.0862 -0.0295 -0.0667
 6482SOL     OW29375   4.847  12.844  12.167  0.2025 -0.0192 -0.1387
 6482SOL    HW129376   4.802  12.793  12.234 -1.6153  0.3946 -0.9620
 6482SOL    HW229377   4.835  12.792  12.087 -0.3750  0.9596 -0.7016
 6483SOL     OW29378  12.801   4.046   4.571  0.1042  0.3428 -0.7551
 6483SOL    HW129379  12.724   4.082   4.616 -1.2169 -2.1747 -0.7983
 6483SOL    HW229380  12.792   4.074   4.481 -0.2630  0.8439 -0.5649
 6484SOL     OW29381   1.773  10.275   2.391  0.9698  0.4312 -0.2834
 6484SOL    HW129382   1.748  10.220   2.466 -0.2786 -0.9120 -1.6169
 6484SOL    HW229383   1.701  10.264   2.329  1.4038  2.4736 -1.2064
 6485SOL     OW29384   2.196   0.127   3.578  0.3291  0.3055  0.1784
 6485SOL    HW129385   2.247   0.146   3.656  0.2776  0.8111  0.0912
 6485SOL    HW229386   2.145   0.049   3.601  0.6480  0.1896  0.4910
 6486SOL     OW29387  10.252   7.355   6.905 -0.1861 -0.5019 -0.2794
 6486SOL    HW129388  10.273   7.394   6.821 -0.2206 -0.9420 -0.4935
 6486SOL    HW229389  10.183   7.291   6.886  1.3751 -2.2510 -0.2957
 6487SOL     OW29390  13.244   4.238  10.484 -0.0811  0.0606 -0.3807
 6487SOL    HW129391  13.329   4.274  10.457 -0.4457  1.3738  0.1449
 6487SOL    HW229392  13.237   4.262  10.576  0.2199 -2.5392  0.4016
 6488SOL     OW29393  10.948   6.114   7.250  0.4130  0.1308  0.5990
 6488SOL    HW129394  11.032   6.072   7.267 -0.1396 -2.1572 -1.6281
 6488SOL    HW229395  10.952   6.141   7.158 -0.6261  1.6723  0.9766
 6489SOL     OW29396   8.196  11.049  11.309  0.0127 -0.7040 -0.0923
 6489SOL    HW129397   8.268  11.110  11.290 -0.7940  0.1690 -0.4052
 6489SOL    HW229398   8.181  11.059  11.403 -0.6503  0.2018 -0.2798
 6490SOL     OW29399   7.444   3.928   2.175  0.2585  0.2508  0.6947
 6490SOL    HW129400   7.452   3.922   2.079  0.2144  2.2491  0.5325
 6490SOL    HW229401   7.411   4.016   2.191  1.3377  0.3553  2.6337
 6491SOL     OW29402  12.712  13.143  10.543 -0.1591  0.2498 -0.0248
 6491SOL    HW129403  12.633  13.120  10.495  0.2306  0.9649 -1.0526
 6491SOL    HW229404  12.746  13.060  10.576 -0.1063 -0.3499 -1.5224
 6492SOL     OW29405   2.894  11.289   2.073  0.1549 -0.1598  0.4204
 6492SOL    HW129406   2.904  11.260   2.164 -1.6307  0.2701  0.8087
 6492SOL    HW229407   2.821  11.351   2.077  0.4172  0.2734 -1.2314
 6493SOL     OW29408   0.506   7.071   3.559  0.1933 -0.0796 -0.3830
 6493SOL    HW129409   0.525   7.052   3.468  1.1188  1.0034 -0.4400
 6493SOL    HW229410   0.419   7.112   3.558  0.7426  1.1085 -0.9478
 6494SOL     OW29411   7.472  13.164   8.342 -0.2721  0.1252  0.1745
 6494SOL    HW129412   7.378  13.168   8.327 -0.2757 -1.0297 -0.2140
 6494SOL    HW229413   7.508  13.232   8.287 -1.0876  2.8213  2.7149
 6495SOL     OW29414  12.146   5.458  11.739  0.0031  0.2237  0.4440
 6495SOL    HW129415  12.163   5.390  11.674  1.4864  0.2947  0.7404
 6495SOL    HW229416  12.097   5.524  11.691 -0.9927 -0.7798  0.0135
 6496SOL     OW29417   9.918   6.593   2.079  0.1479  0.1354  0.1369
 6496SOL    HW129418  10.000   6.588   2.128  0.0586 -0.8237  0.2137
 6496SOL    HW229419   9.870   6.665   2.120 -0.1603 -0.9729  1.8748
 6497SOL     OW29420   7.955  11.377   9.648 -0.2735 -1.3050  0.1645
 6497SOL    HW129421   7.890  11.406   9.584  0.4764 -0.0620 -0.0595
 6497SOL    HW229422   8.023  11.444   9.646 -0.2503 -1.1799  2.2979
 6498SOL     OW29423   5.377   9.111  11.524 -0.1403 -0.1441 -0.3371
 6498SOL    HW129424   5.285   9.096  11.544 -0.4292  1.7452 -0.0803
 6498SOL    HW229425   5.376   9.177  11.454  0.9971 -1.5938 -1.7946
 6499SOL     OW29426  11.393   7.791   6.988 -0.1746 -0.5030 -0.3446
 6499SOL    HW129427  11.403   7.705   6.948  4.8142  0.1069 -0.9695
 6499SOL    HW229428  11.412   7.776   7.081  0.7142 -0.1105 -0.4566
 6500SOL     OW29429   2.861  10.115   3.241 -0.5352  0.3829  0.1936
 6500SOL    HW129430   2.920  10.166   3.187 -1.1440 -0.5782 -1.4443
 6500SOL    HW229431   2.910  10.099   3.322  1.4322 -0.3387 -1.0805
 6501SOL     OW29432   0.355   0.169   3.913 -0.3020  0.3138 -0.4561
 6501SOL    HW129433   0.411   0.247   3.905  1.0953 -0.7374 -1.4922
 6501SOL    HW229434   0.417   0.096   3.912 -1.6887 -0.8843 -1.2213
 6502SOL     OW29435   9.501   5.089   2.063 -0.0518 -0.2213  0.3933
 6502SOL    HW129436   9.560   5.159   2.092 -1.1654  1.8251 -1.8864
 6502SOL    HW229437   9.441   5.077   2.136  0.8970  0.3582  1.2970
 6503SOL     OW29438   4.738   4.083  10.362 -0.1365 -0.0518  0.4684
 6503SOL    HW129439   4.731   4.155  10.424 -1.6320 -1.3582  1.9043
 6503SOL    HW229440   4.662   4.093  10.304 -1.4072 -1.4300  1.8121
 6504SOL     OW29441  10.033   5.617  13.123 -0.5734  0.1620 -0.1146
 6504SOL    HW129442  10.027   5.697  13.175 -1.8160 -0.2239  0.3883
 6504SOL    HW229443   9.957   5.565  13.150 -0.1699 -0.8977 -0.9194
 6505SOL     OW29444   7.291   1.566  12.586  0.7954 -0.0518 -0.2519
 6505SOL    HW129445   7.346   1.493  12.559  1.0052  0.2447 -0.6416
 6505SOL    HW229446   7.212   1.559  12.532  0.7305 -0.1048 -0.1506
 6506SOL     OW29447   9.510   7.568   8.846  0.1006  0.0701  0.0094
 6506SOL    HW129448   9.473   7.553   8.933  0.8961  0.0525  0.3474
 6506SOL    HW229449   9.501   7.484   8.801  2.0495 -0.7177  0.9722
 6507SOL     OW29450   9.849  10.664   5.858 -0.0718 -0.1023  0.2082
 6507SOL    HW129451   9.905  10.593   5.888  1.6602  1.1515  0.1034
 6507SOL    HW229452   9.822  10.709   5.939 -0.9123 -0.6636  0.2547
 6508SOL     OW29453   2.842  12.246   0.404  0.3584  0.6509  0.4728
 6508SOL    HW129454   2.751  12.277   0.401 -0.2150 -0.9654 -0.2880
 6508SOL    HW229455   2.887  12.299   0.338 -0.9388 -1.0260 -1.9226
 6509SOL     OW29456   1.842  12.623   5.602 -0.7956 -0.1502 -0.3136
 6509SOL    HW129457   1.809  12.549   5.653  1.7240 -0.4991  0.9531
 6509SOL    HW229458   1.786  12.696   5.628 -1.2576 -0.9053  0.9384
 6510SOL     OW29459  11.504   8.798   5.629 -0.0503 -0.1858  0.4281
 6510SOL    HW129460  11.596   8.771   5.640  0.6341  1.9830  0.3750
 6510SOL    HW229461  11.466   8.786   5.716  0.7539  0.4822  0.8911
 6511SOL     OW29462   0.149   3.100  12.004 -0.3940 -0.6744 -0.4385
 6511SOL    HW129463   0.204   3.162  11.956 -1.0069 -1.1363 -1.7791
 6511SOL    HW229464   0.147   3.022  11.949 -0.8838 -1.3310  0.4860
 6512SOL     OW29465   9.500  11.851   4.647 -0.4921 -0.1891 -0.2885
 6512SOL    HW129466   9.588  11.816   4.662 -0.5371  0.2444  1.1589
 6512SOL    HW229467   9.494  11.926   4.706 -1.5070  0.3701 -1.0722
 6513SOL     OW29468   8.019   7.969  10.522 -0.4407 -0.0029 -0.7105
 6513SOL    HW129469   7.959   7.939  10.453  0.7805  1.6954 -2.6140
 6513SOL    HW229470   8.006   8.064  10.525  1.0890  0.2069 -0.1188
 6514SOL     OW29471   2.561   7.554   5.029  0.1731  0.6613 -1.2056
 6514SOL    HW129472   2.471   7.532   5.007 -0.6661  2.5724  0.0685
 6514SOL    HW229473   2.588   7.615   4.960 -0.6877  2.6482  0.1498
 6515SOL     OW29474   8.441  12.664   9.538 -0.5881 -0.2657  0.0866
 6515SOL    HW129475   8.392  12.619   9.469  0.8870  0.5762 -1.5945
 6515SOL    HW229476   8.531  12.631   9.528  0.0679  1.4271  0.2156
 6516SOL     OW29477   0.429   0.524   0.679  0.2007 -0.6787 -0.0824
 6516SOL    HW129478   0.344   0.506   0.720 -0.4374  0.1067 -1.0296
 6516SOL    HW229479   0.490   0.466   0.725 -0.8474 -1.2807  0.5925
 6517SOL     OW29480   9.319   7.332  11.568  0.2402  0.4281 -0.4472
 6517SOL    HW129481   9.266   7.391  11.621  0.1442  1.3635 -1.5265
 6517SOL    HW229482   9.387   7.300  11.627 -1.0854 -0.2303  0.7706
 6518SOL     OW29483   3.478   7.634   2.659 -0.1557 -0.6358 -0.5978
 6518SOL    HW129484   3.512   7.711   2.705  2.3538  0.1484 -3.4744
 6518SOL    HW229485   3.492   7.562   2.721 -2.2387  1.0384  2.0361
 6519SOL     OW29486   7.758   1.198   3.307  0.0095 -0.0798  0.0862
 6519SOL    HW129487   7.683   1.140   3.317  1.3498 -1.8034  0.7809
 6519SOL    HW229488   7.740   1.273   3.362 -1.1372 -0.5251  0.3279
 6520SOL     OW29489   4.637   8.126   4.629 -0.2528 -0.2366 -0.4829
 6520SOL    HW129490   4.636   8.200   4.569 -1.0371  0.1097 -0.0592
 6520SOL    HW229491   4.639   8.165   4.717 -2.2613 -0.6359 -0.1991
 6521SOL     OW29492   2.677  13.188   7.209 -0.2709  0.3672 -0.4388
 6521SOL    HW129493   2.723  13.269   7.232  0.4588  0.1445 -1.0449
 6521SOL    HW229494   2.585  13.214   7.201 -0.0932  1.0700 -0.3040
 6522SOL     OW29495  11.844   9.943   5.305  0.6219 -0.6159  0.4669
 6522SOL    HW129496  11.867   9.908   5.219  0.2178  1.3176 -0.4876
 6522SOL    HW229497  11.923   9.986   5.337  0.8701 -1.6070  1.2469
 6523SOL     OW29498   3.369   6.135  11.523 -0.1686 -0.4932 -0.5054
 6523SOL    HW129499   3.417   6.185  11.457  0.3985 -0.7820 -0.3099
 6523SOL    HW229500   3.318   6.201  11.570  2.5898  0.3674  1.5492
 6524SOL     OW29501   1.126  13.129   3.773 -0.1753  0.4027 -0.0373
 6524SOL    HW129502   1.144  13.182   3.695 -0.5648  0.1821 -0.2757
 6524SOL    HW229503   1.074  13.186   3.829  1.4160  1.1381  0.7641
 6525SOL     OW29504  12.513   3.153   3.293 -0.1773  0.1063 -0.2646
 6525SOL    HW129505  12.434   3.179   3.340 -0.3704  0.6426 -0.8645
 6525SOL    HW229506  12.578   3.218   3.317 -0.1549  0.1327 -0.3946
 6526SOL     OW29507   7.432   8.681   2.092  0.6478  0.0655  0.1138
 6526SOL    HW129508   7.402   8.590   2.092  1.8432 -0.4041  2.1529
 6526SOL    HW229509   7.493   8.686   2.018  1.1971 -1.0486  0.4652
 6527SOL     OW29510   6.190  10.252  11.581 -0.3917  0.1784 -0.4539
 6527SOL    HW129511   6.282  10.231  11.564 -0.3517 -0.0201 -0.0012
 6527SOL    HW229512   6.154  10.274  11.495  0.2511  0.9416 -0.5393
 6528SOL     OW29513  12.899  13.269   5.495  0.1769  0.0462 -0.8645
 6528SOL    HW129514  12.939  13.296   5.578 -0.1416 -0.3449 -0.5738
 6528SOL    HW229515  12.863  13.182   5.514 -1.2539  0.5925 -0.9464
 6529SOL     OW29516   4.779   7.423   4.121  0.0390  0.1549  0.3960
 6529SOL    HW129517   4.720   7.465   4.058  1.2166  1.0986 -0.1228
 6529SOL    HW229518   4.817   7.350   4.073  1.4778  1.2941 -0.2969
 6530SOL     OW29519   1.667   3.328   1.806  0.1649 -0.0047  0.3479
 6530SOL    HW129520   1.667   3.255   1.745  1.0955  0.9405 -0.8474
 6530SOL    HW229521   1.759   3.339   1.831  0.3297  1.7533 -0.8138
 6531SOL     OW29522   5.483   5.841   6.328  0.2591  0.2413 -0.1488
 6531SOL    HW129523   5.391   5.867   6.340 -0.3118 -1.7612  0.2717
 6531SOL    HW229524   5.525   5.864   6.410 -0.6579 -1.7005  0.9448
 6532SOL     OW29525   3.142  10.189   7.105  0.2408 -0.2829 -0.2530
 6532SOL    HW129526   3.202  10.263   7.096  0.2510 -0.4463 -1.7518
 6532SOL    HW229527   3.056  10.226   7.086  0.1191 -0.4736 -0.0845
 6533SOL     OW29528  10.947  10.151  10.649  0.0684 -0.0531  0.2728
 6533SOL    HW129529  10.997  10.213  10.702 -0.8845  0.5995  0.4317
 6533SOL    HW229530  10.989  10.152  10.564 -0.3623  1.3695  0.0533
 6534SOL     OW29531   6.763   0.026  11.701  0.0707  0.0035  0.0332
 6534SOL    HW129532   6.822  -0.043  11.730  1.0511  0.3267 -1.0886
 6534SOL    HW229533   6.772   0.095  11.767  0.0395 -0.4381  0.4999
 6535SOL     OW29534  12.426   6.031   3.882  0.3295  0.2823 -0.1572
 6535SOL    HW129535  12.473   6.035   3.799  1.6496  1.5032  0.5869
 6535SOL    HW229536  12.456   6.109   3.930 -0.5793 -0.2585  1.3607
 6536SOL     OW29537   9.123   8.452   2.472 -0.3147  0.5775 -0.0745
 6536SOL    HW129538   9.105   8.421   2.383 -2.0336 -0.6903  0.6538
 6536SOL    HW229539   9.040   8.490   2.501  0.1641  0.7906  1.0646
 6537SOL     OW29540   5.077   2.967   9.980  0.0578  0.3535 -0.0195
 6537SOL    HW129541   5.003   2.997   9.928  0.7150  1.3161 -0.4157
 6537SOL    HW229542   5.123   2.905   9.923 -0.6471 -0.5731  0.3791
 6538SOL     OW29543   5.731   0.922   8.503  0.1895  0.1416  0.5933
 6538SOL    HW129544   5.713   0.983   8.574 -0.2995 -0.1066  0.6949
 6538SOL    HW229545   5.653   0.927   8.448  0.0883 -0.4755  0.6725
 6539SOL     OW29546   8.430   5.276   1.151  0.9475  0.7604  0.3580
 6539SOL    HW129547   8.497   5.344   1.150  1.9065 -0.1316 -1.7595
 6539SOL    HW229548   8.365   5.305   1.087  2.0103 -0.8268 -1.5516
 6540SOL     OW29549   7.279   4.594   1.889  0.6836  0.0317  0.2883
 6540SOL    HW129550   7.266   4.613   1.796  0.5737  0.4230  0.3804
 6540SOL    HW229551   7.372   4.612   1.905  0.6907  0.0171  0.2632
 6541SOL     OW29552   8.162   9.506   1.666 -0.1335  0.3146  0.2004
 6541SOL    HW129553   8.183   9.432   1.723  1.3315 -0.4893 -1.2915
 6541SOL    HW229554   8.115   9.467   1.592  1.7270  0.6203 -1.2112
 6542SOL     OW29555   6.021   4.974   0.924 -0.0421  0.0601  0.5924
 6542SOL    HW129556   6.033   5.065   0.951 -0.0235  0.9122 -2.0274
 6542SOL    HW229557   6.110   4.942   0.908 -0.1051 -0.1129  0.5916
 6543SOL     OW29558   0.303   2.387   8.913  0.0359 -0.0433  0.0376
 6543SOL    HW129559   0.283   2.447   8.841 -0.5863 -0.8257 -0.4555
 6543SOL    HW229560   0.240   2.410   8.981  0.5211  0.5930  0.2750
 6544SOL     OW29561   4.519   9.456   4.176 -0.0299 -0.1687  0.6610
 6544SOL    HW129562   4.483   9.494   4.256 -0.6899  0.1599  0.2212
 6544SOL    HW229563   4.453   9.393   4.148  1.0845 -1.7492  1.4294
 6545SOL     OW29564   4.791   1.106  12.187 -0.3937  0.2004 -0.2923
 6545SOL    HW129565   4.788   1.145  12.099  0.9237  2.1947  0.4612
 6545SOL    HW229566   4.880   1.073  12.196 -0.7399 -0.6686  0.0456
 6546SOL     OW29567   4.536   3.540  10.056  0.2518  0.0132 -0.1901
 6546SOL    HW129568   4.450   3.554  10.017  0.1747  3.1208  0.7968
 6546SOL    HW229569   4.523   3.471  10.121 -1.4846  0.3891 -0.1006
 6547SOL     OW29570   9.628   6.013  13.114  0.3382 -0.5780 -0.5934
 6547SOL    HW129571   9.633   6.106  13.094 -0.9930 -0.6301 -1.2423
 6547SOL    HW229572   9.710   5.994  13.159  0.3488  1.0384  0.1244
 6548SOL     OW29573   1.148   4.831  12.542  0.8046 -0.2817  0.1636
 6548SOL    HW129574   1.115   4.778  12.614  3.2295 -0.5665  1.1542
 6548SOL    HW229575   1.194   4.903  12.584  0.2210  0.9054 -1.1514
 6549SOL     OW29576   7.325   5.597   3.741 -0.0401  0.2019  0.0097
 6549SOL    HW129577   7.296   5.685   3.767 -2.5473 -0.5966  0.1078
 6549SOL    HW229578   7.257   5.565   3.682  0.9472 -1.5911 -0.2201
 6550SOL     OW29579   2.909  12.913   6.450  0.3574  0.6865 -0.1002
 6550SOL    HW129580   2.984  12.876   6.404 -0.4685  1.5534 -2.2604
 6550SOL    HW229581   2.867  12.838   6.491  1.0759 -0.1379 -0.8325
 6551SOL     OW29582  11.610  11.567   6.920 -0.1581 -0.9198 -0.2132
 6551SOL    HW129583  11.559  11.605   6.991  0.3348 -0.8658  0.1207
 6551SOL    HW229584  11.576  11.609   6.841  0.7263  0.6427  0.1816
 6552SOL     OW29585  10.157   6.896   4.149  0.3155  0.2924 -0.3132
 6552SOL    HW129586  10.080   6.914   4.095  0.5624 -0.5129 -0.9459
 6552SOL    HW229587  10.138   6.812   4.192  0.2504  0.7712  0.6239
 6553SOL     OW29588  10.173   1.538   0.577  0.3975  0.4073 -0.0273
 6553SOL    HW129589  10.179   1.549   0.672  3.2044  0.4180 -0.1422
 6553SOL    HW229590  10.170   1.627   0.543  0.4491  0.4195  0.0001
 6554SOL     OW29591   3.407   4.454  12.742 -0.0982  0.0509  0.5299
 6554SOL    HW129592   3.487   4.507  12.732  0.0854 -0.4123 -0.6485
 6554SOL    HW229593   3.339   4.518  12.764  0.5842  0.4553  1.5321
 6555SOL     OW29594   2.543   3.396   0.013 -0.2343 -0.0757 -0.3335
 6555SOL    HW129595   2.626   3.420   0.053  0.0238  1.0666 -1.4799
 6555SOL    HW229596   2.548   3.432  -0.076 -2.2233  0.6178 -0.2173
 6556SOL     OW29597   5.995   4.546   1.391  0.4332 -0.1794  0.7764
 6556SOL    HW129598   5.986   4.466   1.340 -0.2174  0.8352 -0.7806
 6556SOL    HW229599   5.985   4.617   1.327 -0.1676  1.1643  2.2776
 6557SOL     OW29600   3.129  12.786   6.824 -0.1149 -0.5225  0.4330
 6557SOL    HW129601   3.084  12.862   6.862 -1.4713 -0.4761 -1.1433
 6557SOL    HW229602   3.203  12.824   6.777 -1.0380 -0.0662 -0.7228
 6558SOL     OW29603   4.477   3.145   7.852  0.1180  0.1924  0.2562
 6558SOL    HW129604   4.481   3.186   7.939  3.5604 -0.9996  0.8173
 6558SOL    HW229605   4.457   3.217   7.792 -0.7134  1.3452  1.8548
 6559SOL     OW29606   9.015   4.522   4.000  0.9603 -0.2504  0.3519
 6559SOL    HW129607   8.936   4.476   3.970  1.9184 -1.7667  0.0462
 6559SOL    HW229608   9.009   4.608   3.959 -0.9376 -0.0163  0.9895
 6560SOL     OW29609   2.596   9.370   8.096 -0.0199  0.0396 -0.2931
 6560SOL    HW129610   2.637   9.289   8.126  0.2488  0.3677  0.2670
 6560SOL    HW229611   2.546   9.401   8.172  0.7531  0.9461 -0.1266
 6561SOL     OW29612   7.094   8.612   6.658 -0.4336  0.2086  0.0678
 6561SOL    HW129613   7.167   8.558   6.688  0.7079  0.7771 -1.5481
 6561SOL    HW229614   7.024   8.594   6.721  1.1297 -0.2122  1.8036
 6562SOL     OW29615   9.524   7.475   9.652 -0.4551  0.5038 -0.3824
 6562SOL    HW129616   9.462   7.404   9.666 -1.4344  0.8850 -2.3749
 6562SOL    HW229617   9.577   7.447   9.577  0.5189  1.0149  0.0877
 6563SOL     OW29618   3.462   4.454  13.044 -0.4137  0.0486  0.2689
 6563SOL    HW129619   3.396   4.435  12.977 -1.1409 -1.0418  1.2539
 6563SOL    HW229620   3.519   4.377  13.043 -0.8823 -0.3351  1.4005
 6564SOL     OW29621   1.361   5.504   9.059 -0.8789  0.5819 -0.4034
 6564SOL    HW129622   1.318   5.563   8.997 -0.1389 -0.1675 -1.6811
 6564SOL    HW229623   1.389   5.429   9.006 -0.6257 -0.3119  0.9293
 6565SOL     OW29624  11.648   8.006   7.960  0.0351  0.4582  0.3340
 6565SOL    HW129625  11.697   7.927   7.937  1.0287  1.2581 -0.3434
 6565SOL    HW229626  11.559   7.988   7.929  0.1546 -0.5432  0.5291
 6566SOL     OW29627   6.764   6.121   0.399  0.0788  0.1064 -0.2716
 6566SOL    HW129628   6.770   6.054   0.468  0.8539  0.6396  0.1950
 6566SOL    HW229629   6.678   6.161   0.412 -0.0934 -0.3025 -0.0988
 6567SOL     OW29630   0.104   2.138   9.966 -0.0155  0.0886  0.4473
 6567SOL    HW129631   0.054   2.058   9.950 -1.7106  1.2399 -0.3154
 6567SOL    HW229632   0.194   2.108   9.975 -0.8107 -2.1592  2.2896
 6568SOL     OW29633   8.156  12.732   8.505 -0.2417  0.9454 -0.0092
 6568SOL    HW129634   8.119  12.644   8.508  0.2057  0.7714  2.7985
 6568SOL    HW229635   8.088  12.786   8.465 -1.3686 -0.3085  0.1601
 6569SOL     OW29636   9.221   2.012   4.986  0.3529 -0.0536 -0.0367
 6569SOL    HW129637   9.210   1.969   4.901 -0.7354  0.5253 -0.2206
 6569SOL    HW229638   9.163   1.963   5.045 -1.0282  1.1872 -0.2881
 6570SOL     OW29639  11.966   5.908   0.367  0.3844  0.1098 -0.2705
 6570SOL    HW129640  11.929   5.919   0.455 -0.6658 -0.1781 -0.6562
 6570SOL    HW229641  11.894   5.932   0.309  0.3591 -1.7903 -1.0764
 6571SOL     OW29642   1.912   0.369   4.763 -0.1422  0.0831  0.1252
 6571SOL    HW129643   1.895   0.407   4.849 -0.8322 -1.6993  0.8176
 6571SOL    HW229644   1.950   0.283   4.782 -0.2895 -0.3321 -1.3563
 6572SOL     OW29645  12.586   2.295   9.861  0.2052 -0.1551  0.3804
 6572SOL    HW129646  12.553   2.222   9.809  2.3216 -0.3266 -0.8468
 6572SOL    HW229647  12.591   2.261   9.950  0.0029 -1.1022  0.0430
 6573SOL     OW29648   0.178   5.851   8.063 -0.2771 -0.0837  0.2109
 6573SOL    HW129649   0.082   5.850   8.054 -0.4296  1.6452  1.0568
 6573SOL    HW229650   0.204   5.937   8.029  0.9249 -0.3693  0.3665
 6574SOL     OW29651   6.630   0.186  12.314 -0.1781  0.5795  0.6954
 6574SOL    HW129652   6.653   0.257  12.373  1.0502 -1.3567  2.6997
 6574SOL    HW229653   6.698   0.119  12.329  0.4370  0.0687 -3.1865
 6575SOL     OW29654   1.151  13.204   6.099 -0.4752 -0.2481 -0.2738
 6575SOL    HW129655   1.185  13.231   6.014  1.1940 -1.3938 -0.0091
 6575SOL    HW229656   1.140  13.110   6.092 -0.2921 -0.3620  0.7685
 6576SOL     OW29657   7.685   5.712   9.911  0.4486 -0.2094 -0.3303
 6576SOL    HW129658   7.612   5.767   9.939 -0.9643 -1.8726 -0.6010
 6576SOL    HW229659   7.697   5.734   9.818  1.0112  0.7990 -0.0400
 6577SOL     OW29660   7.784   0.974   2.617  0.0068  0.0077  0.1750
 6577SOL    HW129661   7.776   0.892   2.569 -0.6833  1.1915 -1.8475
 6577SOL    HW229662   7.850   0.956   2.684  0.4140 -1.9686 -0.6934
 6578SOL     OW29663  10.498   6.789   5.462 -0.8237  0.1493 -0.1735
 6578SOL    HW129664  10.591   6.811   5.472 -0.2813 -2.4026  1.3791
 6578SOL    HW229665  10.486   6.779   5.368  0.7751 -0.5431 -0.3396
 6579SOL     OW29666   0.345   0.297   8.874 -0.0917  0.8401  0.3942
 6579SOL    HW129667   0.254   0.291   8.844 -0.0642  0.3724  0.4007
 6579SOL    HW229668   0.338   0.296   8.970 -0.1047  1.2234  0.4001
 6580SOL     OW29669   1.833   4.585   7.759  0.1454 -0.1974  0.0142
 6580SOL    HW129670   1.873   4.655   7.811  0.5930  0.6881 -1.4594
 6580SOL    HW229671   1.744   4.577   7.794  1.1160 -1.2869  2.4666
 6581SOL     OW29672   7.743   9.905   8.266 -0.5648  0.0455  0.1436
 6581SOL    HW129673   7.790   9.987   8.251  0.0571 -0.6277 -2.0317
 6581SOL    HW229674   7.789   9.863   8.339 -0.3120  1.2088  0.6647
 6582SOL     OW29675   2.184   3.312  11.638  0.0848 -0.4236  0.0015
 6582SOL    HW129676   2.113   3.376  11.638  0.5396  0.1718  2.3852
 6582SOL    HW229677   2.263   3.363  11.658  0.9540 -1.2958 -1.0918
 6583SOL     OW29678  12.519   2.192  10.130  0.3365 -0.2965 -0.0129
 6583SOL    HW129679  12.481   2.237  10.205  0.1463  0.7489 -0.6990
 6583SOL    HW229680  12.468   2.112  10.121 -1.9215  1.1603 -1.0243
 6584SOL     OW29681   1.768  11.555  13.003  0.1810 -0.9243  0.2198
 6584SOL    HW129682   1.687  11.606  12.991  0.2745 -0.1649  2.3812
 6584SOL    HW229683   1.738  11.473  13.042  0.4233 -0.7150  0.8535
 6585SOL     OW29684  11.057   4.603   5.189  0.1292 -0.3448  0.5393
 6585SOL    HW129685  11.058   4.553   5.271  1.3025  0.1451  0.8597
 6585SOL    HW229686  10.967   4.632   5.179  0.0703  0.0862  1.9971
 6586SOL     OW29687   1.636   5.366  10.426 -0.3412 -1.0245 -0.2906
 6586SOL    HW129688   1.584   5.297  10.467 -0.2583 -0.8481  0.1145
 6586SOL    HW229689   1.607   5.367  10.335 -0.3156 -1.6171 -0.3056
 6587SOL     OW29690   1.621  10.824  10.447 -0.2992  0.0008 -0.4546
 6587SOL    HW129691   1.590  10.737  10.472 -0.1482 -0.0413 -0.4126
 6587SOL    HW229692   1.602  10.879  10.523  1.1024 -0.3489  0.1727
 6588SOL     OW29693   0.094   5.156   5.990 -0.4885  0.0149  0.0800
 6588SOL    HW129694   0.110   5.107   6.070  3.3790  1.7381  0.5965
 6588SOL    HW229695   0.097   5.090   5.921  0.7446 -0.9896  1.0414
 6589SOL     OW29696   2.793   0.953  12.404 -0.6074 -0.5617 -0.3051
 6589SOL    HW129697   2.815   0.953  12.497 -0.0861 -2.2794 -0.3867
 6589SOL    HW229698   2.851   1.018  12.365  0.0982 -0.7506  0.3965
 6590SOL     OW29699   5.256  10.457  11.895 -0.4725  0.1247  0.5830
 6590SOL    HW129700   5.249  10.503  11.811 -2.7424 -0.1325  0.5703
 6590SOL    HW229701   5.227  10.368  11.876 -2.8791  0.5385  1.9545
 6591SOL     OW29702  11.415   0.733   5.579 -0.4188 -0.4349  0.7780
 6591SOL    HW129703  11.324   0.747   5.605 -0.4514  1.5941 -0.2368
 6591SOL    HW229704  11.458   0.817   5.595  0.6806 -0.5943 -1.0415
 6592SOL     OW29705   8.810  11.759   0.117  0.2960 -0.2431 -0.2150
 6592SOL    HW129706   8.874  11.822   0.084  0.7024 -1.1552 -1.2022
 6592SOL    HW229707   8.841  11.738   0.205  0.7667  0.1044 -0.2916
 6593SOL     OW29708   7.842   6.395   4.902 -0.2165  0.2322  0.4443
 6593SOL    HW129709   7.799   6.479   4.885  0.4952  0.2043 -1.9729
 6593SOL    HW229710   7.788   6.352   4.968 -1.6704  1.8005  0.3296
 6594SOL     OW29711   7.525   9.029   0.756  0.6073 -0.1075 -0.3874
 6594SOL    HW129712   7.504   9.112   0.799 -1.5269  0.3640 -2.1427
 6594SOL    HW229713   7.478   8.964   0.808  0.2466  0.1084 -0.4376
 6595SOL     OW29714   5.691   5.988  11.878  0.0297 -0.1966  0.3281
 6595SOL    HW129715   5.666   5.897  11.863 -2.4012 -0.0325  2.6222
 6595SOL    HW229716   5.639   6.038  11.814 -0.1326 -0.2904  0.3869
 6596SOL     OW29717   9.812   5.412  10.292 -0.3904 -0.4215  0.1245
 6596SOL    HW129718   9.870   5.488  10.299  0.5815 -1.2035  0.8748
 6596SOL    HW229719   9.779   5.399  10.381  1.4640 -2.3773  0.5951
 6597SOL     OW29720   3.020  13.236  10.146  0.3918 -0.1399  0.2003
 6597SOL    HW129721   2.965  13.313  10.156  1.0329  0.1788  1.5229
 6597SOL    HW229722   3.079  13.258  10.074 -0.5640 -0.1017 -0.5779
 6598SOL     OW29723   4.076   9.898   8.695 -0.5942  0.5752  0.4319
 6598SOL    HW129724   4.008   9.921   8.631  0.7914 -1.6715 -2.0479
 6598SOL    HW229725   4.039   9.823   8.743 -1.6563  2.2950  2.4547
 6599SOL     OW29726   6.782  11.629   3.349  0.2851  0.2357 -0.1684
 6599SOL    HW129727   6.766  11.580   3.430 -0.8273  1.6930  0.5423
 6599SOL    HW229728   6.864  11.676   3.366  0.9019 -0.6745 -0.5287
 6600SOL     OW29729   4.839   0.236   1.312  0.0966  0.0610 -0.0381
 6600SOL    HW129730   4.765   0.211   1.368  1.9946 -2.3998  1.5651
 6600SOL    HW229731   4.815   0.207   1.225 -0.8709 -0.6240  0.4449
 6601SOL     OW29732   9.456   4.400   3.406 -0.1283  0.0900  0.6058
 6601SOL    HW129733   9.498   4.321   3.441  2.3005  0.5826 -1.0282
 6601SOL    HW229734   9.455   4.386   3.311 -0.9489  1.4417  0.3984
 6602SOL     OW29735  10.183   4.434   1.835 -0.2482  0.4302  0.3051
 6602SOL    HW129736  10.198   4.358   1.891  0.3347  1.7494  2.0599
 6602SOL    HW229737  10.189   4.401   1.746 -0.7656 -1.6899  1.0086
 6603SOL     OW29738  10.720   5.222   8.589 -0.2169  0.0227 -0.4619
 6603SOL    HW129739  10.691   5.179   8.509 -1.3111 -0.5996  0.2432
 6603SOL    HW229740  10.640   5.238   8.639  0.3904  0.8230  0.3057
 6604SOL     OW29741   2.855   2.435   5.027  0.1702  0.5523  0.2080
 6604SOL    HW129742   2.777   2.380   5.037 -0.1344  0.5402 -1.7485
 6604SOL    HW229743   2.823   2.514   4.984  0.8770  1.6152  1.5657
 6605SOL     OW29744   5.489   7.059   4.565 -0.1400  0.5965 -0.3552
 6605SOL    HW129745   5.451   7.024   4.645  0.1700 -0.4866 -0.6704
 6605SOL    HW229746   5.415   7.097   4.517 -0.3809  0.9259  0.2728
 6606SOL     OW29747   7.456   0.585   0.808 -0.0606  0.3971  0.0495
 6606SOL    HW129748   7.477   0.655   0.869 -0.7873 -0.5316  1.4392
 6606SOL    HW229749   7.362   0.572   0.818 -0.3673  0.7951 -1.9416
 6607SOL     OW29750   5.932   7.055  11.998  0.2276  0.1537 -0.6311
 6607SOL    HW129751   5.939   7.041  12.093  0.5756 -0.6142 -0.7625
 6607SOL    HW229752   6.010   7.107  11.976  1.2537 -1.3747 -0.7915
 6608SOL     OW29753   1.780   2.742   9.796 -0.4948  0.5854  1.2469
 6608SOL    HW129754   1.852   2.781   9.746 -0.6015 -0.7079  0.0372
 6608SOL    HW229755   1.810   2.745   9.887  0.8073  0.6637  0.8354
 6609SOL     OW29756   4.961   9.089  12.051  0.6222  0.0172  0.0736
 6609SOL    HW129757   4.985   9.112  12.141 -3.3506  1.8724  0.9135
 6609SOL    HW229758   4.969   9.170  12.002 -0.9487  0.0407 -0.2137
 6610SOL     OW29759   9.822   5.936   4.765 -0.3241  0.5502  0.6571
 6610SOL    HW129760   9.825   5.843   4.786  1.5943 -0.1991 -2.3815
 6610SOL    HW229761   9.908   5.969   4.792 -1.0248  1.5265  1.8102
 6611SOL     OW29762   9.653   6.444   2.148  0.0779 -0.0344  0.3128
 6611SOL    HW129763   9.644   6.411   2.237 -1.9986 -0.4820 -0.0291
 6611SOL    HW229764   9.736   6.492   2.149 -1.5670  3.1802  3.5225
 6612SOL     OW29765   3.043   7.247   0.479 -0.0753  0.2616 -0.1030
 6612SOL    HW129766   3.072   7.319   0.536 -4.4931  0.4239  2.3989
 6612SOL    HW229767   3.009   7.290   0.401  4.2940  0.1489 -2.3440
 6613SOL     OW29768   1.865  12.691   7.079 -0.2523 -0.6494  0.0400
 6613SOL    HW129769   1.818  12.726   7.004  0.1482 -2.6706 -1.2303
 6613SOL    HW229770   1.956  12.687   7.050 -0.0235 -1.0789  0.7861
 6614SOL     OW29771   9.557   8.883  10.932  0.6136 -0.5598 -0.2897
 6614SOL    HW129772   9.512   8.903  10.850 -0.8410  0.3434  0.6683
 6614SOL    HW229773   9.606   8.963  10.953  0.3740 -0.5070  0.0830
 6615SOL     OW29774   7.354   0.590   1.531  0.1314 -0.0218  0.5060
 6615SOL    HW129775   7.382   0.568   1.620  2.2054 -0.6422 -0.2243
 6615SOL    HW229776   7.403   0.669   1.510 -2.8162  2.0703  1.0034
 6616SOL     OW29777   7.537   2.449  12.561 -0.3522 -0.2945 -0.1808
 6616SOL    HW129778   7.549   2.538  12.527  0.0916  0.1497  1.0890
 6616SOL    HW229779   7.520   2.396  12.483 -0.6507  0.9004 -0.9588
 6617SOL     OW29780   9.241   3.041   3.234 -0.1377  0.3083  0.3397
 6617SOL    HW129781   9.286   3.084   3.161 -0.9909 -0.0387 -0.3983
 6617SOL    HW229782   9.287   3.074   3.312 -0.2124  1.9063 -0.2449
 6618SOL     OW29783   2.333  12.868  12.406  0.4152  0.1398  0.2327
 6618SOL    HW129784   2.388  12.942  12.377 -0.5174  0.2426 -1.3714
 6618SOL    HW229785   2.396  12.798  12.424  1.1964  0.8024  0.1605
 6619SOL     OW29786  12.313   8.471   5.978 -0.0569 -0.4601 -0.9374
 6619SOL    HW129787  12.352   8.483   5.891 -1.0401  1.3438 -1.1758
 6619SOL    HW229788  12.249   8.542   5.985 -0.9165 -1.3584  0.7557
 6620SOL     OW29789   0.089   2.424   7.987 -0.4565 -0.4659 -0.3042
 6620SOL    HW129790   0.057   2.386   8.068 -0.7601  0.4853  0.0347
 6620SOL    HW229791   0.181   2.444   8.004 -0.3280 -0.9240 -0.4434
 6621SOL     OW29792  12.496   9.948   0.614  0.1754 -0.5646 -0.1466
 6621SOL    HW129793  12.455   9.875   0.569  2.2535 -1.6227 -0.4460
 6621SOL    HW229794  12.552   9.988   0.548 -0.6324  1.1050  0.1212
 6622SOL     OW29795   7.644   9.906   0.831  0.5123 -0.0597 -0.7111
 6622SOL    HW129796   7.563   9.866   0.801  0.9676 -1.6987  0.1327
 6622SOL    HW229797   7.659   9.869   0.918  0.2840  2.9784  0.7562
 6623SOL     OW29798  12.483   6.477  10.188  0.2257 -0.2268  0.1962
 6623SOL    HW129799  12.526   6.399  10.153  1.4734  0.3056  0.5042
 6623SOL    HW229800  12.475   6.536  10.113 -0.6937 -0.6183 -0.0302
 6624SOL     OW29801   1.305   5.590  12.710  0.0292 -0.3785  0.3527
 6624SOL    HW129802   1.363   5.664  12.694 -1.0438  0.7956  1.6718
 6624SOL    HW229803   1.364   5.517  12.730  1.0708  0.5862  0.8877
 6625SOL     OW29804   1.137   7.738  12.436 -0.9658 -0.3352  0.1834
 6625SOL    HW129805   1.109   7.808  12.495  0.5401  0.2177  0.2878
 6625SOL    HW229806   1.232   7.734  12.447 -0.9694 -2.1411 -0.1164
 6626SOL     OW29807   4.280   3.453   0.633 -0.5869 -0.1376  0.5203
 6626SOL    HW129808   4.335   3.508   0.577 -0.4133 -0.0252  0.8012
 6626SOL    HW229809   4.310   3.364   0.616  0.0684 -0.0309  1.0938
 6627SOL     OW29810  11.056  12.761   8.089  0.3414  0.0840  0.2788
 6627SOL    HW129811  11.010  12.686   8.053  2.6114 -0.6755 -1.2069
 6627SOL    HW229812  11.069  12.739   8.181 -0.7732 -0.3933  0.3472
 6628SOL     OW29813  11.082   0.585   8.390  0.1374  0.1679  0.1423
 6628SOL    HW129814  11.007   0.549   8.343  0.8006  0.8161 -1.4955
 6628SOL    HW229815  11.045   0.658   8.441 -0.5916 -0.5162  0.6144
 6629SOL     OW29816  13.063   6.268   8.100  0.1677 -0.0855 -0.3072
 6629SOL    HW129817  13.136   6.212   8.073  0.1750  0.0567 -0.5906
 6629SOL    HW229818  13.083   6.353   8.062  0.5178  0.3054  0.7092
 6630SOL     OW29819  12.387   3.530   7.509  0.1608 -0.1469  0.2459
 6630SOL    HW129820  12.387   3.608   7.564  0.1759  0.2667 -0.3426
 6630SOL    HW229821  12.457   3.545   7.445 -1.4168  0.4711 -1.4252
 6631SOL     OW29822   5.449  10.217  10.802 -0.6046 -0.1193  0.2469
 6631SOL    HW129823   5.460  10.122  10.795  0.4787  0.0744 -1.0978
 6631SOL    HW229824   5.370  10.228  10.855 -1.5232 -1.7841 -0.6837
 6632SOL     OW29825   9.890  12.278  10.883  0.0098  0.4651  0.0102
 6632SOL    HW129826   9.822  12.345  10.887  0.9395  1.4720 -0.6840
 6632SOL    HW229827   9.970  12.323  10.909  0.6912 -0.3171 -0.6721
 6633SOL     OW29828   1.290   1.184  13.191 -0.2471  0.2043 -0.0551
 6633SOL    HW129829   1.375   1.218  13.220  0.4581  0.8534 -2.5613
 6633SOL    HW229830   1.291   1.092  13.216  2.2655 -0.4019 -1.9064
 6634SOL     OW29831  11.444  12.619  13.289 -0.5534  0.0457  0.3634
 6634SOL    HW129832  11.508  12.551  13.266  0.9525  1.1937  1.0216
 6634SOL    HW229833  11.422  12.601  13.380  0.6332  0.9884  0.8703
 6635SOL     OW29834  12.192   4.042  10.283 -0.8207 -0.3936  0.7626
 6635SOL    HW129835  12.224   3.959  10.318  1.9095 -0.8180 -2.1803
 6635SOL    HW229836  12.099   4.028  10.268 -0.3234 -3.2929 -0.3170
 6636SOL     OW29837   9.520  13.193   9.239  0.2880 -0.1408  0.5182
 6636SOL    HW129838   9.608  13.221   9.266  0.9204 -2.1340  0.7304
 6636SOL    HW229839   9.535  13.112   9.191 -1.4522 -0.5476  0.5948
 6637SOL     OW29840  11.120  12.359  13.246 -0.2867  0.0418  0.0439
 6637SOL    HW129841  11.209  12.325  13.253  0.1892  1.4273  0.8854
 6637SOL    HW229842  11.116  12.431  13.308 -1.5163  1.0218 -1.1130
 6638SOL     OW29843   2.978   0.309   9.382  0.0378  0.0696 -0.4205
 6638SOL    HW129844   2.925   0.355   9.317  1.6611 -0.1095 -1.9656
 6638SOL    HW229845   2.979   0.218   9.351 -0.2632 -0.3015  0.6322
 6639SOL     OW29846   2.266   1.551  13.276  0.3559  0.4654 -0.2610
 6639SOL    HW129847   2.262   1.499  13.196 -0.9406 -0.4337  0.3509
 6639SOL    HW229848   2.189   1.524  13.326  0.6595  1.6470  0.9051
 6640SOL     OW29849   2.885   0.009   9.524  0.0861 -0.0262  0.0357
 6640SOL    HW129850   2.816  -0.057   9.529 -1.1636  1.2382  0.0811
 6640SOL    HW229851   2.860   0.075   9.589 -1.2658  2.7561 -2.9772
 6641SOL     OW29852   7.091  12.098   7.464 -0.1983 -0.4136  0.5411
 6641SOL    HW129853   7.143  12.076   7.541  0.6344 -1.6961 -0.3338
 6641SOL    HW229854   7.151  12.085   7.390 -0.8536  1.1628 -0.3101
 6642SOL     OW29855   4.391   0.323   4.852 -0.4191  1.2994 -0.0687
 6642SOL    HW129856   4.308   0.311   4.806 -0.7762  1.1035  0.6042
 6642SOL    HW229857   4.434   0.238   4.846 -0.7509  1.0854  0.4918
 6643SOL     OW29858   6.767   0.038  10.141 -0.6250  0.1821  0.5556
 6643SOL    HW129859   6.711   0.079  10.074  1.2757  1.0875 -0.5915
 6643SOL    HW229860   6.713   0.035  10.219 -2.0040  1.7825 -0.2607
 6644SOL     OW29861  12.574   2.363   3.996  0.0256  0.7327 -0.4163
 6644SOL    HW129862  12.653   2.319   3.963  1.2419  1.9326  0.7633
 6644SOL    HW229863  12.575   2.344   4.090 -1.6134  0.0340 -0.5063
 6645SOL     OW29864  13.102  12.972   6.223 -0.1849  0.3421 -0.2538
 6645SOL    HW129865  13.094  13.039   6.291 -2.2748 -0.9052  0.8378
 6645SOL    HW229866  13.047  13.005   6.151  0.1786  0.5886 -0.4221
 6646SOL     OW29867  13.010   4.283   6.922  0.7025  0.3921 -0.4161
 6646SOL    HW129868  12.933   4.297   6.977  1.0807 -2.5328  1.0676
 6646SOL    HW229869  13.045   4.370   6.907 -0.6077  1.4952  2.2503
 6647SOL     OW29870   6.302  10.361   6.311  0.0348  0.1144 -0.7258
 6647SOL    HW129871   6.240  10.376   6.382  0.4843  1.6190 -0.6069
 6647SOL    HW229872   6.252  10.311   6.246 -0.8978  0.1679 -0.0749
 6648SOL     OW29873   6.569  10.715   8.738 -0.2003  0.2331  0.1656
 6648SOL    HW129874   6.476  10.724   8.717  0.0999  0.6921 -1.0416
 6648SOL    HW229875   6.570  10.662   8.818 -1.4316 -1.4566 -0.8581
 6649SOL     OW29876  12.030   1.606   8.200  0.4425  0.1783 -0.3577
 6649SOL    HW129877  11.990   1.612   8.114 -1.4919 -2.1352  0.2634
 6649SOL    HW229878  12.027   1.696   8.234 -3.4928  0.3704 -0.7674
 6650SOL     OW29879  13.311  13.251  11.355  0.7159  0.0298 -0.1617
 6650SOL    HW129880  13.322  13.158  11.370  0.4685 -0.2266 -1.4185
 6650SOL    HW229881  13.400  13.287  11.356  0.7824 -0.1412  0.7066
 6651SOL     OW29882   9.571   0.710   4.418 -0.0052 -0.5032  0.3102
 6651SOL    HW129883   9.627   0.788   4.420  0.7107 -0.5019 -5.0821
 6651SOL    HW229884   9.486   0.744   4.390  0.1101 -1.5163 -1.3414
 6652SOL     OW29885   3.507  12.356   2.951 -0.5087  0.3236  0.7456
 6652SOL    HW129886   3.586  12.304   2.965  0.8688  2.3289  0.8001
 6652SOL    HW229887   3.492  12.351   2.856 -1.5919 -1.7635  0.9828
 6653SOL     OW29888   8.598   5.347  11.232 -0.0922  0.1770 -0.3947
 6653SOL    HW129889   8.504   5.336  11.218  0.2387 -0.6109 -2.3525
 6653SOL    HW229890   8.606   5.370  11.324 -2.0164 -2.0301  0.3998
 6654SOL     OW29891   9.951   2.276  12.731 -0.5030  0.7782  0.1055
 6654SOL    HW129892  10.024   2.228  12.693 -0.6479  0.7305 -0.1142
 6654SOL    HW229893   9.877   2.258  12.672 -0.3398  2.0262 -0.4910
 6655SOL     OW29894  13.062   9.423   8.034 -0.3748  0.4525  0.0750
 6655SOL    HW129895  13.012   9.342   8.030 -0.4015  0.4172  0.8453
 6655SOL    HW229896  13.137   9.401   8.090 -1.0189  1.2736  1.3207
 6656SOL     OW29897   0.655   0.371   2.369  0.4644  0.1176  0.4167
 6656SOL    HW129898   0.603   0.446   2.341  0.1962 -0.3790 -0.4514
 6656SOL    HW229899   0.592   0.300   2.380  0.8979 -0.3811 -0.2544
 6657SOL     OW29900   3.863  10.971   4.570 -0.5749  0.0294  0.2729
 6657SOL    HW129901   3.869  10.876   4.563 -0.0223  0.0883 -0.1306
 6657SOL    HW229902   3.791  10.986   4.632 -0.6375 -0.6454  0.3740
 6658SOL     OW29903   3.521   6.203   7.840  0.3230  0.5072 -0.2930
 6658SOL    HW129904   3.446   6.187   7.783 -1.4328 -0.2455  2.0604
 6658SOL    HW229905   3.514   6.135   7.907  0.8317  2.7338  2.1629
 6659SOL     OW29906  13.175   5.985   5.119  0.6351  0.0021  0.8256
 6659SOL    HW129907  13.120   6.059   5.142  1.5864  0.3586  2.0936
 6659SOL    HW229908  13.223   6.013   5.041 -0.4470 -0.0632  0.1119
 6660SOL     OW29909   5.608   2.338   3.317 -0.2117  0.2358  0.6099
 6660SOL    HW129910   5.578   2.308   3.232 -0.5353  1.2475  0.3452
 6660SOL    HW229911   5.550   2.296   3.380 -0.8797  0.5755  0.2310
 6661SOL     OW29912   2.925   8.677  10.070  0.6735  0.3161  0.0574
 6661SOL    HW129913   2.867   8.648  10.140  0.6004 -0.5223 -0.3300
 6661SOL    HW229914   2.893   8.631   9.992  2.3629 -0.8714  0.0034
 6662SOL     OW29915   5.104   5.166   1.550  0.4705  0.1904 -0.1553
 6662SOL    HW129916   5.174   5.216   1.508  1.0941 -1.3143 -0.9936
 6662SOL    HW229917   5.135   5.076   1.549 -0.2588 -0.1448  2.0548
 6663SOL     OW29918  10.906  12.428  11.118  0.0533  0.4009  0.1608
 6663SOL    HW129919  10.919  12.411  11.211  3.2815  1.8060  0.0950
 6663SOL    HW229920  10.823  12.475  11.113 -1.4032 -1.7919  1.9611
 6664SOL     OW29921   2.146   9.028  10.517 -0.4156  0.0549  0.3763
 6664SOL    HW129922   2.240   9.043  10.503 -0.7593  1.6889 -0.3806
 6664SOL    HW229923   2.132   8.937  10.491  0.9993 -0.3055  0.7899
 6665SOL     OW29924   0.935   9.180   6.149 -0.0557 -0.1721  0.1075
 6665SOL    HW129925   0.895   9.157   6.065  0.9964  0.9824 -0.7502
 6665SOL    HW229926   1.026   9.150   6.141  0.9032  2.5502 -0.4120
 6666SOL     OW29927   2.668   4.919   0.635 -0.1331 -0.0117  0.4000
 6666SOL    HW129928   2.619   4.912   0.717 -2.7461 -0.2205 -1.0731
 6666SOL    HW229929   2.750   4.874   0.652 -1.0510 -0.9950  2.5682
 6667SOL     OW29930   1.805  11.177  11.849  0.9010  0.2009 -0.0961
 6667SOL    HW129931   1.780  11.195  11.758  1.2372 -0.8638 -0.4118
 6667SOL    HW229932   1.815  11.264  11.888  1.5108  0.6929 -1.2792
 6668SOL     OW29933   8.188   7.142   7.848 -0.3271  0.1790 -0.2756
 6668SOL    HW129934   8.127   7.211   7.823  1.4371  1.7418 -0.4869
 6668SOL    HW229935   8.206   7.095   7.767 -2.0375 -1.0415 -0.0157
 6669SOL     OW29936  10.045   7.901   5.341  0.4512 -0.1516  0.3126
 6669SOL    HW129937   9.965   7.935   5.301 -0.3921 -2.2211  0.1476
 6669SOL    HW229938  10.115   7.951   5.299 -0.6151  0.0125 -1.3753
 6670SOL     OW29939   2.250  11.759   0.412 -0.1697 -0.0232  0.0675
 6670SOL    HW129940   2.273  11.669   0.388  2.0347  0.5543 -0.2129
 6670SOL    HW229941   2.244  11.805   0.328  1.1709  0.6114  0.3010
 6671SOL     OW29942   5.779  13.308   6.055  0.4037  0.0318  1.3025
 6671SOL    HW129943   5.715  13.241   6.078 -0.0890 -0.0232 -0.1370
 6671SOL    HW229944   5.729  13.373   6.007  1.5538 -0.4562 -0.6379
 6672SOL     OW29945  12.831   8.788  11.966  0.0714 -0.1682  0.8092
 6672SOL    HW129946  12.859   8.824  12.050  4.0601  0.7972 -0.7211
 6672SOL    HW229947  12.841   8.861  11.904 -2.0658 -1.0449 -0.6900
 6673SOL     OW29948   9.851   6.867   5.649  0.1326 -0.4323  0.0700
 6673SOL    HW129949   9.851   6.776   5.621 -1.8051 -0.6012  0.4705
 6673SOL    HW229950   9.842   6.917   5.568  3.1696 -0.4080 -0.3786
 6674SOL     OW29951   0.362   7.967  11.734  0.2341 -0.9512 -0.2832
 6674SOL    HW129952   0.373   8.039  11.796 -1.1151 -1.7418  0.9385
 6674SOL    HW229953   0.435   7.908  11.753 -0.5023 -1.4828  1.0207
 6675SOL     OW29954   4.561   8.251   1.375 -0.3629  0.3103  0.3413
 6675SOL    HW129955   4.572   8.335   1.420  0.8590  0.5238 -0.3198
 6675SOL    HW229956   4.521   8.194   1.441  2.1604  0.3458  2.0428
 6676SOL     OW29957   6.533   0.759   9.496  0.1345 -0.1429  0.1595
 6676SOL    HW129958   6.439   0.750   9.512 -0.2537 -0.6097 -1.9766
 6676SOL    HW229959   6.573   0.687   9.544 -0.6420 -0.1976  0.7474
 6677SOL     OW29960   4.984   5.456   3.970 -0.3448 -0.6575 -0.2321
 6677SOL    HW129961   5.029   5.371   3.973 -1.2449 -1.1140  1.9096
 6677SOL    HW229962   4.897   5.439   4.006  0.0058  1.4845  1.8556
 6678SOL     OW29963  10.585  10.189   5.624 -0.0532 -0.0199 -0.0763
 6678SOL    HW129964  10.548  10.268   5.664  1.0323  0.5143 -0.1000
 6678SOL    HW229965  10.669  10.177   5.669 -0.5519 -1.6248  0.4896
 6679SOL     OW29966   3.637   1.847   7.635  0.2323 -0.1316 -0.0029
 6679SOL    HW129967   3.616   1.909   7.565  1.1977  0.8295  0.5315
 6679SOL    HW229968   3.566   1.860   7.699  1.3527  1.7892  0.9510
 6680SOL     OW29969   1.032   4.015   9.077 -0.2484  0.0647  0.8593
 6680SOL    HW129970   1.034   3.955   9.151 -0.8328 -0.0526  0.7835
 6680SOL    HW229971   0.976   4.087   9.106  1.2781  1.1152  1.3536
 6681SOL     OW29972   7.360  12.699   7.663 -0.5504  0.4345 -0.3495
 6681SOL    HW129973   7.440  12.743   7.691  0.4704 -0.8523 -1.1240
 6681SOL    HW229974   7.390  12.615   7.628 -2.2023  0.1175 -1.0836
 6682SOL     OW29975   8.975  10.198   6.847 -0.3021  0.4693 -0.2745
 6682SOL    HW129976   8.959  10.245   6.765  1.5098  0.3456 -0.7364
 6682SOL    HW229977   8.894  10.149   6.862 -0.7584  0.6733 -1.8583
 6683SOL     OW29978  11.668   2.933  11.713 -0.5814 -0.0213 -0.0570
 6683SOL    HW129979  11.574   2.916  11.713 -0.6331  0.2493 -0.6395
 6683SOL    HW229980  11.707   2.855  11.673 -0.4799 -0.5269  1.0127
 6684SOL     OW29981   7.958   4.486   0.580 -0.2324  0.3192 -0.2297
 6684SOL    HW129982   7.907   4.566   0.593 -1.1436  0.2718 -2.8252
 6684SOL    HW229983   7.895   4.415   0.592  0.4521 -0.0397  1.5318
 6685SOL     OW29984   8.867  11.947   8.699 -0.1877  0.1698 -0.2221
 6685SOL    HW129985   8.893  12.037   8.720 -0.9440 -0.0497  1.9649
 6685SOL    HW229986   8.934  11.893   8.742  0.0259 -0.3376 -1.1632
 6686SOL     OW29987   6.961   0.359   4.778  0.6595 -0.2454  0.8692
 6686SOL    HW129988   6.893   0.363   4.711 -0.6751  0.7199  2.2228
 6686SOL    HW229989   6.995   0.270   4.771  0.1764 -0.3496 -0.6896
 6687SOL     OW29990   1.449   9.446   5.697 -0.7466 -0.0945  0.2583
 6687SOL    HW129991   1.482   9.535   5.706  0.0039 -0.4645  1.2466
 6687SOL    HW229992   1.418   9.423   5.784 -1.0104 -0.7776 -0.0128
 6688SOL     OW29993   3.005  10.428   8.057  0.4914 -0.0359 -0.0894
 6688SOL    HW129994   2.923  10.410   8.103  0.4598  0.5145  0.0747
 6688SOL    HW229995   3.028  10.518   8.082  1.0125 -0.0962 -0.3312
 6689SOL     OW29996  12.206   7.287   9.020  0.2494 -0.6421 -0.1533
 6689SOL    HW129997  12.136   7.320   9.076  2.1793  1.5718  1.1477
 6689SOL    HW229998  12.244   7.214   9.069  1.7648  1.1248  1.4264
 6690SOL     OW29999  10.320   9.435   4.770 -0.1922  0.2035 -0.2387
 6690SOL    HW130000  10.259   9.504   4.745 -0.1132  0.0330 -0.9227
 6690SOL    HW230001  10.381   9.430   4.696  1.8328  1.6845  1.2251
 6691SOL     OW30002   1.472  10.924   9.941  0.2696  0.2259 -0.2682
 6691SOL    HW130003   1.425  11.007   9.942 -0.0455  0.0493  0.2798
 6691SOL    HW230004   1.437  10.876  10.016  1.0603 -0.0597 -0.0699
 6692SOL     OW30005   0.452   4.988   3.396 -0.6461  0.0325 -0.4439
 6692SOL    HW130006   0.511   4.939   3.452 -1.2112 -0.8001 -0.5560
 6692SOL    HW230007   0.509   5.043   3.343 -0.0718  0.3563  0.4957
 6693SOL     OW30008   9.717   0.552  10.209 -0.5411 -0.1649 -0.1993
 6693SOL    HW130009   9.729   0.457  10.213  1.0562  0.0430  1.0069
 6693SOL    HW230010   9.712   0.572  10.116  1.1548 -1.2373 -0.5598
 6694SOL     OW30011   7.601   6.204   1.098 -0.4008 -0.4636 -0.3536
 6694SOL    HW130012   7.683   6.190   1.052  0.2382  0.0531  0.5940
 6694SOL    HW230013   7.539   6.144   1.056  0.0394  0.2831 -2.1171
 6695SOL     OW30014   5.427   8.466   4.169 -0.5115 -0.1766 -0.2870
 6695SOL    HW130015   5.479   8.543   4.147  2.1575 -1.8764 -0.3701
 6695SOL    HW230016   5.455   8.444   4.258 -1.0410 -1.1822 -0.3566
 6696SOL     OW30017   2.045  13.051   3.487 -0.1383 -0.4266  0.4837
 6696SOL    HW130018   1.954  13.079   3.496  0.0516 -0.0178  1.2327
 6696SOL    HW230019   2.064  13.059   3.394 -1.0933 -1.2491  0.2052
 6697SOL     OW30020   7.457   8.493   0.609  0.1960  0.6957  0.2439
 6697SOL    HW130021   7.471   8.587   0.622  0.8537  0.6171  0.1658
 6697SOL    HW230022   7.429   8.461   0.694  1.2849  0.7419  0.6404
 6698SOL     OW30023   8.283   1.354   1.351  0.5417  0.2252  0.2080
 6698SOL    HW130024   8.234   1.416   1.297 -0.9097 -1.0709 -0.0231
 6698SOL    HW230025   8.373   1.359   1.317  0.4165  2.0174  0.0564
 6699SOL     OW30026   5.699   7.403   7.933  0.1414 -0.4002  0.4889
 6699SOL    HW130027   5.788   7.438   7.924 -0.4751  1.2424  0.4345
 6699SOL    HW230028   5.646   7.479   7.954 -1.3105 -1.3084  0.2221
 6700SOL     OW30029   5.608   6.743  11.834  0.3519 -0.0250 -0.1808
 6700SOL    HW130030   5.646   6.673  11.781  1.0298  1.5084 -1.8123
 6700SOL    HW230031   5.549   6.789  11.775  0.1341  0.9635  0.7724
 6701SOL     OW30032   0.457   7.227   7.686  0.5389 -0.1389  0.2021
 6701SOL    HW130033   0.377   7.174   7.679 -0.2783  0.6128  2.8050
 6701SOL    HW230034   0.461   7.275   7.604 -0.6799 -1.5248 -0.7265
 6702SOL     OW30035  10.939   6.118  11.522 -0.2105 -0.2103 -0.4691
 6702SOL    HW130036  10.871   6.185  11.528 -0.1231 -0.1113 -0.5649
 6702SOL    HW230037  10.984   6.138  11.440 -0.0936 -0.3013 -0.4273
 6703SOL     OW30038  11.217  12.774   4.801  0.0611  0.0387  0.0072
 6703SOL    HW130039  11.254  12.695   4.761 -0.4887 -0.9652  1.4114
 6703SOL    HW230040  11.127  12.750   4.822 -0.0717  1.0062  0.5550
 6704SOL     OW30041   7.971  13.313  11.609  0.0299  0.3634  0.6942
 6704SOL    HW130042   8.016  13.250  11.553 -0.4899  0.4774  0.1314
 6704SOL    HW230043   8.029  13.389  11.611  0.2157  0.2242  0.6011
 6705SOL     OW30044   3.758   8.983  12.133 -0.5239  0.2738  0.8538
 6705SOL    HW130045   3.694   8.934  12.183 -1.7665  0.9887  0.0085
 6705SOL    HW230046   3.714   9.065  12.111  0.7484  0.8678  0.4128
 6706SOL     OW30047  11.659   2.815  10.727 -0.1561 -0.0119  0.5776
 6706SOL    HW130048  11.742   2.774  10.705 -0.0723 -1.5208  3.3123
 6706SOL    HW230049  11.680   2.908  10.737  0.6255  0.0382 -1.2227
 6707SOL     OW30050   9.552   9.156  13.283  0.1107 -0.8080  0.8428
 6707SOL    HW130051   9.486   9.221  13.259  1.9208  0.8219  0.1220
 6707SOL    HW230052   9.531   9.134  13.374 -1.3642 -0.2972  0.6624
 6708SOL     OW30053   9.601   6.377   0.388 -0.0449 -0.1888 -0.3417
 6708SOL    HW130054   9.666   6.311   0.412 -1.3764 -0.8816  1.6395
 6708SOL    HW230055   9.613   6.448   0.451 -1.4585 -0.5428  0.3797
 6709SOL     OW30056  12.744   9.894   5.279 -0.3499  0.3761  0.6539
 6709SOL    HW130057  12.754   9.808   5.237  0.4730 -0.1878  1.9214
 6709SOL    HW230058  12.653   9.895   5.310 -0.6198  0.3288 -0.1138
 6710SOL     OW30059   5.765   6.515   5.937  0.4101 -0.0284  0.0883
 6710SOL    HW130060   5.672   6.504   5.953  0.0657  2.0877 -0.1930
 6710SOL    HW230061   5.808   6.471   6.011 -0.8328  0.0438  0.8765
 6711SOL     OW30062   5.912  10.139  10.289 -0.0939  0.0818  0.0859
 6711SOL    HW130063   5.826  10.132  10.331 -0.8188  1.6835 -1.0236
 6711SOL    HW230064   5.966  10.075  10.334 -2.5087 -2.8041 -0.8096
 6712SOL     OW30065   8.840   7.147   1.188 -0.0015  0.4083  0.2095
 6712SOL    HW130066   8.795   7.223   1.226 -0.5256 -0.3499  1.1585
 6712SOL    HW230067   8.793   7.071   1.222  0.7922 -0.3661 -0.3505
 6713SOL     OW30068   2.553  12.777   6.773 -0.5153  0.3530  0.3696
 6713SOL    HW130069   2.586  12.733   6.852  0.3774 -0.9551 -0.6822
 6713SOL    HW230070   2.563  12.870   6.792  3.1666  0.0987  0.4600
 6714SOL     OW30071   8.646  12.627   6.313  0.4246 -0.2952 -0.1523
 6714SOL    HW130072   8.668  12.704   6.260  0.0977  0.4837  0.8211
 6714SOL    HW230073   8.724  12.611   6.366 -0.1690  0.4979  0.9744
 6715SOL     OW30074   5.376   2.478   9.047 -0.0112  0.2485  0.0533
 6715SOL    HW130075   5.416   2.492   8.961  1.3959  1.0421  0.8142
 6715SOL    HW230076   5.379   2.563   9.089 -3.9583  0.8227 -0.3712
 6716SOL     OW30077  12.925   7.344  11.912  0.2390  0.0033  0.1533
 6716SOL    HW130078  12.972   7.261  11.924  0.4433 -0.0101 -0.6455
 6716SOL    HW230079  12.911   7.350  11.817 -0.7612  0.3494  0.3086
 6717SOL     OW30080  11.233   9.061  11.807 -0.4655 -0.1143  0.4950
 6717SOL    HW130081  11.268   9.144  11.840 -0.0071 -1.4706  3.7894
 6717SOL    HW230082  11.156   9.086  11.756 -1.0842  2.3278  2.4103
 6718SOL     OW30083   9.602   1.815   1.719 -0.0158  0.2092  0.2450
 6718SOL    HW130084   9.544   1.768   1.658  1.6139 -0.4517 -0.8593
 6718SOL    HW230085   9.601   1.762   1.799 -0.3964 -0.1578  0.0022
 6719SOL     OW30086   0.160   6.685   9.580 -0.0497 -0.0714  0.0751
 6719SOL    HW130087   0.111   6.706   9.500  2.2668  2.8865 -0.7897
 6719SOL    HW230088   0.205   6.603   9.560 -0.8490 -0.2759 -0.9712
 6720SOL     OW30089   0.137   8.332   7.720 -0.2499 -0.4176 -0.3343
 6720SOL    HW130090   0.160   8.421   7.746 -0.2934 -0.9054  1.4754
 6720SOL    HW230091   0.104   8.291   7.800 -4.5789 -0.7267 -1.9842
 6721SOL     OW30092  10.141  11.148  11.100  0.5425  0.1942  0.0451
 6721SOL    HW130093  10.181  11.226  11.140 -2.6581  2.3645 -0.6368
 6721SOL    HW230094  10.104  11.100  11.174 -0.1093  0.9754  0.2416
 6722SOL     OW30095   6.383   9.899  11.363  0.2056  0.2967 -0.1302
 6722SOL    HW130096   6.346   9.986  11.348 -0.3569  0.0412 -0.2665
 6722SOL    HW230097   6.323   9.839  11.318  0.3909 -0.1880  0.2529
 6723SOL     OW30098  11.704  11.671  10.642 -0.1174 -0.4494  0.2613
 6723SOL    HW130099  11.768  11.715  10.697 -0.0588 -0.4716  0.2113
 6723SOL    HW230100  11.713  11.578  10.664 -1.3662 -0.2861  1.5362
 6724SOL     OW30101   2.497   2.356   3.062 -0.6048  0.2824 -0.2284
 6724SOL    HW130102   2.508   2.430   3.122 -0.6672  0.6240 -0.6345
 6724SOL    HW230103   2.586   2.329   3.041 -0.4809  1.8806 -2.0809
 6725SOL     OW30104   8.879   9.606  10.135  0.0259  0.1399  0.3972
 6725SOL    HW130105   8.960   9.568  10.168  0.4564  0.0884 -0.6768
 6725SOL    HW230106   8.906   9.685  10.087 -0.4843 -0.1611 -0.4190
 6726SOL     OW30107  12.656   2.510   7.438  0.0604 -0.3595  0.4373
 6726SOL    HW130108  12.570   2.528   7.402  0.0067  0.7681  1.1005
 6726SOL    HW230109  12.639   2.454   7.514 -0.0139 -0.7354  0.1506
 6727SOL     OW30110  11.193   7.307   9.863 -0.5786 -0.1944  0.7187
 6727SOL    HW130111  11.232   7.304   9.776 -0.2114 -2.7519  0.8764
 6727SOL    HW230112  11.104   7.339   9.848 -0.7753 -1.2855 -0.7414
 6728SOL     OW30113   0.990   6.869   9.159  0.1240  0.1637 -0.2951
 6728SOL    HW130114   0.991   6.826   9.245 -0.1293 -1.3078 -0.9869
 6728SOL    HW230115   0.916   6.829   9.114  0.1908  0.9958 -1.1695
 6729SOL     OW30116   7.043   6.430   4.309  0.5461 -0.2717  0.3896
 6729SOL    HW130117   7.127   6.424   4.354  1.3886 -1.3402 -1.2754
 6729SOL    HW230118   7.005   6.342   4.315 -1.3686  0.5742  2.6808
 6730SOL     OW30119   6.482   3.397   9.889 -0.5709 -0.5172 -0.3270
 6730SOL    HW130120   6.398   3.377   9.849 -0.9101 -1.4949  0.8051
 6730SOL    HW230121   6.527   3.313   9.895  0.2364 -0.1004 -0.3472
 6731SOL     OW30122   0.036   9.081   7.864  1.0209  0.0581  0.0405
 6731SOL    HW130123  -0.006   9.150   7.814  1.1623  0.7591  0.8686
 6731SOL    HW230124   0.111   9.054   7.811  0.6336  0.1342 -0.5496
 6732SOL     OW30125   5.685  11.483  10.799 -0.3042 -0.5010 -0.4277
 6732SOL    HW130126   5.737  11.534  10.861 -0.2300  0.1327 -0.9955
 6732SOL    HW230127   5.707  11.392  10.819  1.0709 -0.2493 -0.6683
 6733SOL     OW30128  12.802   6.579   3.323 -0.1760  0.0284 -0.4487
 6733SOL    HW130129  12.712   6.611   3.331 -0.2873 -0.5790  0.9118
 6733SOL    HW230130  12.818   6.578   3.228 -1.6186  0.0858 -0.7198
 6734SOL     OW30131   3.356   9.278   2.266 -0.5811  0.1978 -0.0429
 6734SOL    HW130132   3.323   9.190   2.287  1.2106 -0.1761  1.5151
 6734SOL    HW230133   3.391   9.311   2.349  1.4682  1.1513 -1.1932
 6735SOL     OW30134  12.895   2.959   0.403  0.7192  0.2688 -0.2469
 6735SOL    HW130135  12.844   2.998   0.474  1.9861 -2.7164  2.5515
 6735SOL    HW230136  12.975   2.928   0.446  2.0468 -0.7516 -3.2392
 6736SOL     OW30137  12.629   3.442   5.658 -0.2984  0.0510  0.0300
 6736SOL    HW130138  12.624   3.515   5.719 -0.4799  0.0881 -0.0282
 6736SOL    HW230139  12.722   3.429   5.643 -0.2783  0.6635 -0.4246
 6737SOL     OW30140   2.662  12.105  10.715  0.3392 -0.1965  0.2213
 6737SOL    HW130141   2.724  12.084  10.645  1.4026 -0.4481  1.2001
 6737SOL    HW230142   2.588  12.045  10.701  0.7419 -0.5536 -0.4123
 6738SOL     OW30143  12.312   7.241   5.373 -0.5224 -0.0553 -0.1724
 6738SOL    HW130144  12.284   7.333   5.375 -0.4329  0.0178 -1.3816
 6738SOL    HW230145  12.260   7.202   5.304 -1.2527 -1.1785  0.9740
 6739SOL     OW30146   2.070   3.657   8.800 -0.4926  0.1281 -0.3431
 6739SOL    HW130147   2.147   3.665   8.857  0.9158  0.0402 -2.1278
 6739SOL    HW230148   2.066   3.563   8.780 -0.4012  0.2864 -1.1175
 6740SOL     OW30149   3.284   9.336   3.005 -0.0778  0.5426 -0.1075
 6740SOL    HW130150   3.356   9.301   3.058  0.7208  1.1538 -0.7676
 6740SOL    HW230151   3.326   9.400   2.947 -1.1512  0.8796 -0.5296
 6741SOL     OW30152   5.331  11.000   2.298  0.3858 -0.3355 -0.4074
 6741SOL    HW130153   5.380  10.965   2.373 -0.5073 -1.4252 -0.3118
 6741SOL    HW230154   5.385  10.978   2.222  0.3103 -1.0767 -0.2568
 6742SOL     OW30155   5.209  11.317   1.604 -0.0654 -0.0488 -0.1316
 6742SOL    HW130156   5.240  11.227   1.599  0.9223  0.2987 -0.3847
 6742SOL    HW230157   5.249  11.352   1.683  1.4821  0.8677 -1.2787
 6743SOL     OW30158   6.861  12.774   1.950  0.8498 -0.1122  0.2387
 6743SOL    HW130159   6.850  12.789   2.044 -2.4077 -0.1049 -0.0298
 6743SOL    HW230160   6.900  12.855   1.917 -1.0960  1.3240  1.1948
 6744SOL     OW30161   7.458   6.717   0.202 -0.0643  0.9244 -0.2243
 6744SOL    HW130162   7.503   6.641   0.240 -0.8468  0.8229  0.5432
 6744SOL    HW230163   7.365   6.702   0.223 -0.6289  0.5993 -2.6430
 6745SOL     OW30164   5.565   2.774   4.161  0.2637  0.1094 -0.5793
 6745SOL    HW130165   5.629   2.705   4.180  2.2787  0.8551 -3.9325
 6745SOL    HW230166   5.618   2.851   4.142 -1.8215  1.6889 -0.2665
 6746SOL     OW30167   0.429   0.331   7.618  0.2937 -0.4829 -0.0928
 6746SOL    HW130168   0.490   0.403   7.602  0.0960 -0.0553  0.9919
 6746SOL    HW230169   0.474   0.275   7.681 -0.8806  0.4793  1.6855
 6747SOL     OW30170   8.818  10.396   9.671 -0.7800 -0.5096 -0.4530
 6747SOL    HW130171   8.872  10.355   9.738  0.7469  0.5650 -0.9722
 6747SOL    HW230172   8.742  10.339   9.664 -0.6630 -1.0209  1.6872
 6748SOL     OW30173   7.209   9.853   1.978  0.2699  0.5521 -0.0081
 6748SOL    HW130174   7.240   9.940   1.951 -1.7704  1.2137 -0.4045
 6748SOL    HW230175   7.125   9.843   1.932  0.5431 -1.7132 -0.0952
 6749SOL     OW30176  12.757   7.104   5.538 -0.0963  0.2051 -0.2417
 6749SOL    HW130177  12.797   7.069   5.459 -0.3507  1.2667 -0.8600
 6749SOL    HW230178  12.801   7.059   5.610  1.3483  0.4774 -0.9357
 6750SOL     OW30179  11.095   2.542  12.113  0.2005 -0.1777  0.2492
 6750SOL    HW130180  11.161   2.548  12.182  0.0592  1.7046  0.2847
 6750SOL    HW230181  11.034   2.474  12.143  0.6583 -0.0556  1.5112
 6751SOL     OW30182   3.978   0.033   5.830 -0.2236 -0.0372  0.3190
 6751SOL    HW130183   4.032   0.074   5.763 -1.2786  0.4694 -0.2516
 6751SOL    HW230184   4.039   0.011   5.901  0.4054  2.5523  0.6764
 6752SOL     OW30185   2.575   0.012   2.742  0.7169  0.2019  0.6783
 6752SOL    HW130186   2.642  -0.037   2.790 -0.0159 -0.4210  1.0797
 6752SOL    HW230187   2.523   0.054   2.810 -1.5626 -2.2715  0.5977
 6753SOL     OW30188   5.611   6.390  12.433  0.3168  0.0856 -0.2231
 6753SOL    HW130189   5.666   6.447  12.488 -0.8626 -0.3866  1.5428
 6753SOL    HW230190   5.669   6.319  12.407  0.8051  0.0730  0.8311
 6754SOL     OW30191   6.591   5.400  12.324 -0.4121 -0.2114 -0.3279
 6754SOL    HW130192   6.658   5.463  12.297  1.4133 -0.5191  2.9706
 6754SOL    HW230193   6.544   5.445  12.395 -1.4447 -1.2789 -0.3121
 6755SOL     OW30194  10.124   9.864   3.693  0.2520  0.4811 -0.1188
 6755SOL    HW130195  10.104   9.875   3.785 -0.9405  1.6611 -0.4869
 6755SOL    HW230196  10.197   9.923   3.677 -1.4192  2.5770 -0.5042
 6756SOL     OW30197   7.707   8.958   9.188 -0.2791  0.2029  0.2425
 6756SOL    HW130198   7.632   9.016   9.175  0.4183  1.2613  0.7878
 6756SOL    HW230199   7.736   8.935   9.100 -1.1038 -0.0397  0.0287
 6757SOL     OW30200  12.826  10.668   2.982 -0.3986 -0.2785 -0.0652
 6757SOL    HW130201  12.873  10.625   3.052 -0.1311 -1.7220 -1.0921
 6757SOL    HW230202  12.744  10.619   2.974 -0.9858  0.6486  0.0408
 6758SOL     OW30203  13.069   9.198   8.400  0.5904 -0.1525  0.8770
 6758SOL    HW130204  12.975   9.217   8.401  0.5082 -0.5356  0.6276
 6758SOL    HW230205  13.074   9.102   8.400  0.9665 -0.1358 -0.0664
 6759SOL     OW30206   7.791   1.778   3.864 -0.4927 -0.3244 -0.3072
 6759SOL    HW130207   7.882   1.772   3.895 -0.8099  3.2607  1.8428
 6759SOL    HW230208   7.799   1.786   3.769  1.3575 -0.9123 -0.2531
 6760SOL     OW30209   9.355  11.222   6.125  0.8498 -0.1666 -0.2390
 6760SOL    HW130210   9.290  11.221   6.195  0.3593  1.6387 -0.6202
 6760SOL    HW230211   9.384  11.131   6.118  0.3846 -0.5155  1.7971
 6761SOL     OW30212   8.960   9.878   3.911 -0.1976 -0.3072 -0.7061
 6761SOL    HW130213   8.899   9.950   3.924 -0.5610 -0.7702  0.3363
 6761SOL    HW230214   8.973   9.842   3.999  2.0494  0.1512 -0.7873
 6762SOL     OW30215   1.982   6.362  12.242 -0.6946 -0.0457 -0.2915
 6762SOL    HW130216   2.058   6.314  12.275 -1.8837 -1.5587  0.3497
 6762SOL    HW230217   1.924   6.294  12.208 -1.6823  1.0970 -0.9666
 6763SOL     OW30218   0.864  11.469  12.004 -0.0366 -0.2149 -0.5851
 6763SOL    HW130219   0.862  11.491  11.911 -0.2569 -2.5689 -1.1963
 6763SOL    HW230220   0.952  11.434  12.018  0.3479  1.0572  0.3694
 6764SOL     OW30221   3.557   9.490   6.940  0.4775 -0.4885  0.0302
 6764SOL    HW130222   3.485   9.547   6.915 -0.9270 -1.6392  1.3251
 6764SOL    HW230223   3.536   9.405   6.902  1.6360 -0.6243 -0.3638
 6765SOL     OW30224  11.421   2.061   6.698 -0.2599 -0.3338  0.4840
 6765SOL    HW130225  11.515   2.059   6.679 -0.2863 -1.1872  0.4129
 6765SOL    HW230226  11.379   2.072   6.613 -0.2710 -1.3185  0.3556
 6766SOL     OW30227   9.935   7.128  13.144 -0.0114  0.0304 -0.4246
 6766SOL    HW130228   9.975   7.109  13.228  0.5951 -0.1984 -0.7591
 6766SOL    HW230229   9.840   7.128  13.162  0.1427  2.1865  0.7150
 6767SOL     OW30230   4.526   6.898   3.680  0.8333  0.0813  0.0242
 6767SOL    HW130231   4.519   6.904   3.776  0.2932  0.8688 -0.0587
 6767SOL    HW230232   4.524   6.989   3.650  0.2830 -0.1917 -0.7834
 6768SOL     OW30233   6.205  11.178   8.980  0.0285 -0.0559 -0.2168
 6768SOL    HW130234   6.255  11.145   9.055 -0.2596  0.5663  0.2548
 6768SOL    HW230235   6.121  11.206   9.017 -0.7687 -1.2726 -1.0307
 6769SOL     OW30236   8.757   9.031   1.739  0.1686 -0.3637 -0.2499
 6769SOL    HW130237   8.732   8.993   1.824  1.7736 -1.2259 -0.1294
 6769SOL    HW230238   8.675   9.032   1.689 -0.5371 -1.1039  0.8356
 6770SOL     OW30239  11.941   1.955  11.658  0.0307 -0.1887  0.4759
 6770SOL    HW130240  11.894   2.004  11.726  0.3949  0.3898  0.3184
 6770SOL    HW230241  11.876   1.894  11.623 -0.8352  1.1147 -0.2695
 6771SOL     OW30242   2.617   7.088   0.988  0.3164 -0.4167  0.0384
 6771SOL    HW130243   2.580   7.000   1.000 -1.5669  0.1968 -0.9172
 6771SOL    HW230244   2.574   7.141   1.054  0.7738 -0.0219  0.0226
 6772SOL     OW30245   8.594   3.844   4.059 -0.5383 -0.5632 -0.5782
 6772SOL    HW130246   8.679   3.834   4.101 -0.1555  1.8438 -0.6406
 6772SOL    HW230247   8.543   3.897   4.120 -1.5295 -0.7990 -1.1707
 6773SOL     OW30248  12.632   8.238   0.930  0.1615 -0.1449  0.0964
 6773SOL    HW130249  12.612   8.156   0.884  0.1522  0.2923 -0.6774
 6773SOL    HW230250  12.547   8.277   0.949  0.1589 -0.4006  0.6431
 6774SOL     OW30251   5.392   2.733   5.000  0.1126 -0.1232 -0.3173
 6774SOL    HW130252   5.345   2.650   4.989 -0.2731  0.0886 -0.2705
 6774SOL    HW230253   5.379   2.757   5.091 -0.3060  0.3053 -0.4837
 6775SOL     OW30254   3.487   8.541   2.147 -0.1995 -0.1890 -0.1772
 6775SOL    HW130255   3.421   8.562   2.081 -1.2659  0.6671  1.1206
 6775SOL    HW230256   3.483   8.614   2.209  2.4542  0.2416 -0.4065
 6776SOL     OW30257   6.794   9.464   4.769  0.0575  0.1960  0.0469
 6776SOL    HW130258   6.866   9.496   4.823 -1.0694  2.3175  0.3948
 6776SOL    HW230259   6.834   9.396   4.714  2.4459  1.6017 -0.1002
 6777SOL     OW30260   1.855   6.295   7.658 -0.3346 -0.7077 -0.1544
 6777SOL    HW130261   1.776   6.335   7.621  0.4005  1.0750  0.0971
 6777SOL    HW230262   1.833   6.281   7.750 -0.2006  0.3210  0.0536
 6778SOL     OW30263   4.698   0.250   9.814  0.1851  0.0869 -0.2842
 6778SOL    HW130264   4.743   0.332   9.793 -0.8039  0.5481 -0.6922
 6778SOL    HW230265   4.760   0.181   9.790  0.2863  0.6692 -1.8243
 6779SOL     OW30266  13.095   2.649   4.529 -0.0134  0.2877 -0.5019
 6779SOL    HW130267  13.118   2.735   4.495  2.5725  0.4953  1.4343
 6779SOL    HW230268  13.163   2.591   4.496  0.2875 -0.2607  0.9858
 6780SOL     OW30269  10.753   0.463   1.120 -0.4085  0.4867  0.3020
 6780SOL    HW130270  10.803   0.501   1.193 -1.4070  0.5650  0.9612
 6780SOL    HW230271  10.661   0.474   1.145 -0.7655  0.2485 -0.8416
 6781SOL     OW30272   4.711   6.156   9.425  0.2931  0.9157 -0.1838
 6781SOL    HW130273   4.631   6.113   9.396  1.8679 -1.6305 -1.0671
 6781SOL    HW230274   4.690   6.249   9.424 -2.7024  0.3430 -0.1105
 6782SOL     OW30275   5.090   1.138  12.470 -0.3600 -0.5031 -0.4058
 6782SOL    HW130276   5.160   1.203  12.470  0.0419 -0.8816 -2.0337
 6782SOL    HW230277   5.132   1.057  12.496 -0.8043 -0.2034  1.3522
 6783SOL     OW30278   8.587   9.101   9.823 -0.3859 -0.0831 -0.1950
 6783SOL    HW130279   8.646   9.174   9.808  0.1861 -0.2264  1.2226
 6783SOL    HW230280   8.546   9.119   9.907  0.7313 -1.9867  0.8257
 6784SOL     OW30281   9.985  12.019   9.878  0.0612  0.1429 -0.6700
 6784SOL    HW130282   9.938  11.951   9.829 -0.5488 -1.3373  1.8131
 6784SOL    HW230283   9.964  12.001   9.969  2.4219  1.8067  0.2780
 6785SOL     OW30284   0.883   9.122   3.246  0.4154  0.1437 -0.0490
 6785SOL    HW130285   0.919   9.113   3.158 -0.3333 -0.2512 -0.3233
 6785SOL    HW230286   0.900   9.038   3.289 -1.4767 -0.6373 -0.6933
 6786SOL     OW30287  12.747  11.790   4.944  0.2657  0.3449 -0.2618
 6786SOL    HW130288  12.841  11.776   4.956  0.1883  0.4202  0.4700
 6786SOL    HW230289  12.730  11.767   4.853  0.7382 -1.0634 -0.0075
 6787SOL     OW30290  10.384   5.392   9.883  0.0932 -0.1319  0.1942
 6787SOL    HW130291  10.472   5.354   9.878 -0.3683 -1.2024 -0.1437
 6787SOL    HW230292  10.392   5.476   9.838  1.1136  0.1214  0.8288
 6788SOL     OW30293   7.343   2.575  11.356  0.3703 -0.7633 -0.1941
 6788SOL    HW130294   7.351   2.604  11.266  2.2592  0.0834  0.2062
 6788SOL    HW230295   7.255   2.604  11.383  0.7327  1.2251 -0.9929
 6789SOL     OW30296   7.513  11.619  10.416 -0.1881  0.0235 -0.1420
 6789SOL    HW130297   7.447  11.670  10.462  0.3705  0.3597  0.3054
 6789SOL    HW230298   7.470  11.536  10.395 -0.6738  0.1510  0.3456
 6790SOL     OW30299   3.724   8.913   8.010 -0.1584  0.1431  0.2770
 6790SOL    HW130300   3.703   8.877   7.924  2.5772  1.8124 -1.2320
 6790SOL    HW230301   3.661   8.984   8.023 -2.0827 -1.5687  0.8169
 6791SOL     OW30302   4.512   8.692   8.801  0.2499  0.1920 -0.1260
 6791SOL    HW130303   4.597   8.733   8.815  1.2139 -1.8086  0.2870
 6791SOL    HW230304   4.476   8.681   8.889  0.7121 -1.2019 -0.0916
 6792SOL     OW30305   1.573   0.851   7.671  0.0330 -0.2217 -0.3789
 6792SOL    HW130306   1.479   0.840   7.660  0.1375 -2.3180  0.3842
 6792SOL    HW230307   1.599   0.780   7.729  2.0127  0.6599 -0.0979
 6793SOL     OW30308   4.962  11.627   7.999 -0.7296 -0.0139 -0.1665
 6793SOL    HW130309   4.912  11.646   8.078  1.2563  1.4873  0.8163
 6793SOL    HW230310   5.037  11.576   8.029  0.1055  0.6589 -1.0380
 6794SOL     OW30311   2.832   8.998   1.544  0.3227 -0.3138 -0.7157
 6794SOL    HW130312   2.803   9.069   1.487 -1.1359 -1.6615 -1.7180
 6794SOL    HW230313   2.790   9.016   1.628 -0.0255  0.0232 -0.9569
 6795SOL     OW30314   8.346   7.372   8.757 -0.1444 -0.2976 -0.1727
 6795SOL    HW130315   8.442   7.377   8.760  0.0244 -2.6729  0.5007
 6795SOL    HW230316   8.320   7.352   8.846 -1.4006  1.1572 -0.1684
 6796SOL     OW30317   6.295  11.214   5.010  0.3415 -0.2136  0.2792
 6796SOL    HW130318   6.247  11.204   5.092  1.4114  0.6802  1.0268
 6796SOL    HW230319   6.306  11.124   4.978 -1.8872 -0.4575  0.0148
 6797SOL     OW30320   4.065   8.053   7.940 -0.0009  0.5985  0.3631
 6797SOL    HW130321   4.139   8.079   7.885 -0.7243  0.4987 -0.6812
 6797SOL    HW230322   4.102   7.990   8.002  1.1041  1.7202  0.8651
 6798SOL     OW30323   7.881  11.646   4.477 -0.7086 -0.4833 -0.0693
 6798SOL    HW130324   7.911  11.579   4.538  0.2268  0.2300  0.2766
 6798SOL    HW230325   7.956  11.705   4.466 -0.0721 -1.7069 -3.5474
 6799SOL     OW30326   9.571   7.096   8.551 -0.7280 -0.3285  0.0980
 6799SOL    HW130327   9.524   7.022   8.591  0.1922 -1.3534 -0.6696
 6799SOL    HW230328   9.506   7.136   8.492 -1.4202 -0.1322  0.9717
 6800SOL     OW30329   0.976   1.949   8.458 -0.2208 -0.2948  0.2927
 6800SOL    HW130330   1.017   1.863   8.449  1.2037  0.1039  2.2785
 6800SOL    HW230331   1.044   2.003   8.499 -1.4129  1.5272 -0.0482
 6801SOL     OW30332  11.451   8.018   3.201  0.3634 -0.5823  0.0390
 6801SOL    HW130333  11.382   7.968   3.245  0.3599 -0.3646  0.2878
 6801SOL    HW230334  11.513   8.039   3.271  0.7252 -0.8494 -0.1992
 6802SOL     OW30335   7.974  12.515  10.038 -0.3874 -0.0096  0.5860
 6802SOL    HW130336   7.996  12.602  10.006 -1.2116  1.3305  3.3819
 6802SOL    HW230337   7.900  12.488   9.984 -0.7005  1.4127  0.2617
 6803SOL     OW30338   3.140   4.541   4.709 -0.3316  1.0236  0.0376
 6803SOL    HW130339   3.085   4.520   4.634 -1.1742  0.2874  0.8376
 6803SOL    HW230340   3.105   4.624   4.741 -0.2656  1.1100 -0.1149
 6804SOL     OW30341   5.389   7.336   5.085 -0.4321 -0.1097  0.3621
 6804SOL    HW130342   5.393   7.241   5.071  1.6106 -0.0369  0.1140
 6804SOL    HW230343   5.330   7.347   5.159 -2.1039 -1.4195 -0.7129
 6805SOL     OW30344   1.640  10.375   6.074 -0.1512  0.5299  0.3796
 6805SOL    HW130345   1.678  10.414   5.995  3.1345  1.0213  2.0609
 6805SOL    HW230346   1.682  10.290   6.082 -0.2107  0.6003  1.7255
 6806SOL     OW30347   4.782   2.637  11.257  0.1769  0.3828  0.2397
 6806SOL    HW130348   4.877   2.631  11.270  0.1898 -0.4866 -0.2555
 6806SOL    HW230349   4.745   2.607  11.340  0.3017 -2.9498 -0.7677
 6807SOL     OW30350  10.226  12.017   1.623  0.2305  0.2797  0.1224
 6807SOL    HW130351  10.185  11.972   1.697  0.9588 -0.1446  0.2793
 6807SOL    HW230352  10.207  11.961   1.547 -2.6217  1.9077 -0.5296
 6808SOL     OW30353   4.826   9.644   4.153 -0.4259 -0.1275 -0.3295
 6808SOL    HW130354   4.764   9.714   4.176 -0.8903  0.3094 -2.5914
 6808SOL    HW230355   4.801   9.570   4.209 -1.9400  0.5652 -0.0402
 6809SOL     OW30356   7.134   6.051   0.044  0.4240 -0.0507 -0.1207
 6809SOL    HW130357   7.206   6.010  -0.004  0.1249 -0.4052 -0.2719
 6809SOL    HW230358   7.058   5.995   0.027 -0.2718  1.1841 -1.2940
 6810SOL     OW30359   9.759  13.102   6.051  0.9121  0.1488 -0.2312
 6810SOL    HW130360   9.739  13.017   6.090  1.4673 -0.4162 -1.1601
 6810SOL    HW230361   9.674  13.144   6.041  0.3687 -1.2734 -1.9727
 6811SOL     OW30362   5.856   1.673   2.816  0.1709  0.2459  0.0608
 6811SOL    HW130363   5.848   1.768   2.804  0.2652  0.2248 -0.1746
 6811SOL    HW230364   5.933   1.663   2.872 -0.1033  0.3298  0.4578
 6812SOL     OW30365   6.098   3.420  11.012  0.1860  0.4522  0.2464
 6812SOL    HW130366   6.135   3.363  11.079  0.3326  1.1801  0.7954
 6812SOL    HW230367   6.005   3.396  11.009  0.6267 -1.2381 -0.9943
 6813SOL     OW30368  11.888  11.817  10.764  0.5750 -0.0627 -0.2763
 6813SOL    HW130369  11.928  11.803  10.850 -0.0491  2.4891  0.4995
 6813SOL    HW230370  11.951  11.871  10.716  0.3737 -0.4524 -0.9973
 6814SOL     OW30371   5.058  12.729   5.365  0.1458 -0.4476  0.4860
 6814SOL    HW130372   4.996  12.780   5.417  0.0467  1.5558 -1.4473
 6814SOL    HW230373   5.073  12.782   5.287  2.5714 -1.9301 -0.1618
 6815SOL     OW30374   7.491  12.971   8.826  0.1185  0.2119 -0.2541
 6815SOL    HW130375   7.516  12.959   8.734  1.7968 -2.6518  0.4393
 6815SOL    HW230376   7.434  12.897   8.845  0.0803  0.5711  1.1055
 6816SOL     OW30377   1.300   1.967  12.262  0.6892  0.8911 -0.2289
 6816SOL    HW130378   1.335   1.938  12.177  2.4284 -1.3135  1.1380
 6816SOL    HW230379   1.235   1.900  12.285 -0.1593  1.7590 -0.0139
 6817SOL     OW30380  10.099   8.729   4.998 -0.4835 -0.1496 -0.4510
 6817SOL    HW130381  10.158   8.665   5.037 -0.6661 -1.2107 -1.8318
 6817SOL    HW230382  10.130   8.737   4.907 -1.1001  0.9617 -0.5802
 6818SOL     OW30383   5.235   5.440   7.163 -0.0861  0.2864  0.6783
 6818SOL    HW130384   5.150   5.405   7.137  0.3338 -1.9592  2.0637
 6818SOL    HW230385   5.214   5.519   7.213 -1.2739  0.3862  0.0598
 6819SOL     OW30386   3.244   7.494   7.291 -0.2512  0.6849 -0.4010
 6819SOL    HW130387   3.326   7.448   7.310 -0.6030  0.1947 -0.0382
 6819SOL    HW230388   3.176   7.437   7.327 -0.6332  2.2214  1.5200
 6820SOL     OW30389   5.928  10.485   6.331  0.5334  1.1122 -0.2216
 6820SOL    HW130390   5.930  10.403   6.379 -0.3231  2.1047  1.6276
 6820SOL    HW230391   5.884  10.546   6.390  0.3842  2.6901 -1.8759
 6821SOL     OW30392   6.367   1.514   7.492  0.1125  0.1444  0.3199
 6821SOL    HW130393   6.406   1.459   7.560  1.0895 -0.7662 -0.9168
 6821SOL    HW230394   6.383   1.465   7.410 -0.4110  1.5187 -0.6361
 6822SOL     OW30395   1.011   5.901   1.860 -0.5790  0.3272  0.0575
 6822SOL    HW130396   1.054   5.815   1.861  0.3171  0.7658  0.0863
 6822SOL    HW230397   1.037   5.942   1.943 -1.6388  0.3295  0.4019
 6823SOL     OW30398   4.049  12.421   8.595 -0.1672  0.0959  0.2760
 6823SOL    HW130399   4.056  12.448   8.687  0.0697 -0.0112  0.2906
 6823SOL    HW230400   4.050  12.503   8.546  0.3491  0.1265  0.3314
 6824SOL     OW30401  12.338   1.792   3.031 -0.2045  0.6520 -0.6638
 6824SOL    HW130402  12.338   1.696   3.037 -0.0518  0.5850 -1.5775
 6824SOL    HW230403  12.321   1.810   2.938 -0.1018  1.5095 -0.5215
 6825SOL     OW30404  12.198   5.776   1.703  0.2433 -0.4451 -0.2188
 6825SOL    HW130405  12.238   5.813   1.782  0.9684 -0.9659 -0.3341
 6825SOL    HW230406  12.142   5.705   1.736 -0.8690  0.4854 -0.0298
 6826SOL     OW30407  12.785   0.116   3.927 -0.3605 -0.4166  0.9114
 6826SOL    HW130408  12.754   0.058   3.996 -0.3465  0.5899  1.7944
 6826SOL    HW230409  12.711   0.173   3.907 -1.8754 -3.2766 -2.9400
 6827SOL     OW30410   3.019  12.769   8.609 -0.8155 -0.3665 -0.9121
 6827SOL    HW130411   2.943  12.827   8.604 -1.6858 -1.4420 -0.6150
 6827SOL    HW230412   2.984  12.687   8.644  0.8426 -0.3026  1.0486
 6828SOL     OW30413   7.358   5.820  11.893  0.2404  0.5545 -0.2991
 6828SOL    HW130414   7.444   5.821  11.850  0.1483  2.1228 -0.5295
 6828SOL    HW230415   7.311   5.893  11.853 -0.6145  0.7405  0.9834
 6829SOL     OW30416   3.533   6.313   1.795  0.4916 -0.5808 -0.4879
 6829SOL    HW130417   3.551   6.226   1.761 -1.1068 -0.9394 -0.4760
 6829SOL    HW230418   3.438   6.314   1.810  0.4804  1.1615 -0.5004
 6830SOL     OW30419   9.994   1.378   6.261 -0.2494  0.1508  0.0826
 6830SOL    HW130420   9.978   1.413   6.173 -1.8935 -0.2975  0.1771
 6830SOL    HW230421   9.985   1.284   6.251 -0.9759  0.1345  0.8292
 6831SOL     OW30422   4.422   8.255  10.927  0.1273 -0.1647 -0.2005
 6831SOL    HW130423   4.454   8.195  10.994  0.1471 -1.0474 -0.9773
 6831SOL    HW230424   4.348   8.299  10.967  1.1611  0.5664  0.9897
 6832SOL     OW30425   4.181   9.197   6.519 -0.2463 -0.7108  0.0528
 6832SOL    HW130426   4.189   9.236   6.432 -0.4715 -0.2965  0.2162
 6832SOL    HW230427   4.184   9.102   6.503 -2.4205 -0.7300 -0.6760
 6833SOL     OW30428   0.037  12.742  10.469  0.2476  0.9106  0.3441
 6833SOL    HW130429   0.114  12.688  10.489  1.2754  1.6682 -1.3139
 6833SOL    HW230430  -0.011  12.691  10.404  0.1098  1.0657  0.3238
 6834SOL     OW30431   4.872  11.951  11.183  0.3110 -0.1969 -0.6474
 6834SOL    HW130432   4.954  11.978  11.224  0.4736  0.0807 -1.1517
 6834SOL    HW230433   4.838  11.883  11.241 -0.9061  2.1088  1.5307
 6835SOL     OW30434   1.096  11.240  12.934 -0.3681  0.1043  0.3276
 6835SOL    HW130435   1.070  11.169  12.993 -5.1790  0.9814 -0.3387
 6835SOL    HW230436   1.090  11.203  12.847 -0.9851  0.8046  0.0620
 6836SOL     OW30437   5.147   2.707  11.022  0.2681  0.4501  0.0187
 6836SOL    HW130438   5.129   2.798  11.043 -2.0242  0.1357 -0.3462
 6836SOL    HW230439   5.234   2.708  10.983 -0.8627  2.9881 -2.8739
 6837SOL     OW30440   0.265  12.104  12.723  0.1942 -1.0729 -0.4340
 6837SOL    HW130441   0.211  12.074  12.797  1.4900 -0.6306  0.7375
 6837SOL    HW230442   0.348  12.059  12.735  0.6926 -0.3616 -1.1735
 6838SOL     OW30443   4.523   2.474   8.004  0.9801 -0.2457  0.0642
 6838SOL    HW130444   4.571   2.457   7.923 -0.6212  2.0000 -1.4887
 6838SOL    HW230445   4.459   2.402   8.010  1.4236 -0.6836 -0.3694
 6839SOL     OW30446   5.611   7.567   3.222 -0.0855  0.4988  0.4403
 6839SOL    HW130447   5.638   7.575   3.313 -0.9506  0.0602  0.7374
 6839SOL    HW230448   5.619   7.474   3.202 -0.3117  0.5306  0.1926
 6840SOL     OW30449   1.142   8.084   8.179  0.6115  0.3414  0.1348
 6840SOL    HW130450   1.101   8.052   8.099  0.7451 -0.5005  0.3909
 6840SOL    HW230451   1.234   8.061   8.170  0.5834  0.0191  0.6397
 6841SOL     OW30452   2.585  12.360   0.879 -0.2041  0.0774  0.0944
 6841SOL    HW130453   2.606  12.424   0.812  1.0780 -0.3750  0.0386
 6841SOL    HW230454   2.657  12.296   0.876 -1.0700 -0.9741  0.6247
 6842SOL     OW30455  11.391   2.489   4.225 -0.7831  1.1569 -0.3008
 6842SOL    HW130456  11.413   2.537   4.145 -0.2756  0.1184 -0.8088
 6842SOL    HW230457  11.406   2.398   4.203  1.6334  0.9663  1.6514
 6843SOL     OW30458  12.051   3.092   3.520  0.1662 -0.6232  0.7338
 6843SOL    HW130459  12.022   3.150   3.591  0.6515 -0.8350  1.1084
 6843SOL    HW230460  11.996   3.014   3.528 -2.3558  0.7593 -1.3783
 6844SOL     OW30461   3.366   7.969  11.499  0.1471 -0.4323  0.2347
 6844SOL    HW130462   3.388   7.895  11.556  0.0703  0.4310  1.4222
 6844SOL    HW230463   3.344   7.928  11.415 -0.0998 -1.7820  0.9165
 6845SOL     OW30464   7.799  10.154  11.599 -0.5055  0.4283  0.1380
 6845SOL    HW130465   7.793  10.235  11.649  0.2255 -0.4368  1.7024
 6845SOL    HW230466   7.803  10.182  11.508 -0.7152  2.1221  0.6213
 6846SOL     OW30467   7.333   0.655   8.555 -0.8305 -0.4796 -0.4688
 6846SOL    HW130468   7.345   0.600   8.633  1.1010 -0.3695 -0.6502
 6846SOL    HW230469   7.394   0.620   8.491  0.1041  1.5317 -0.7671
 6847SOL     OW30470  11.629   2.381   5.105  0.2247 -0.0765 -0.0184
 6847SOL    HW130471  11.551   2.352   5.152  0.2438 -1.1468 -0.6300
 6847SOL    HW230472  11.698   2.382   5.172 -0.8257  3.6692  1.2548
 6848SOL     OW30473  13.019   4.757   9.506 -0.1214 -0.1527  0.2454
 6848SOL    HW130474  12.994   4.665   9.496 -2.1348  0.4049 -0.2570
 6848SOL    HW230475  13.112   4.759   9.483 -0.2767 -1.8914 -0.7137
 6849SOL     OW30476   0.476   8.890  11.312 -0.0211  0.5965 -0.1459
 6849SOL    HW130477   0.394   8.882  11.361  0.6041  2.5075  1.3362
 6849SOL    HW230478   0.504   8.980  11.328  1.3263  0.6118 -2.3295
 6850SOL     OW30479   6.123   2.156   6.534 -0.3026 -0.0789 -0.3883
 6850SOL    HW130480   6.176   2.094   6.484  0.7372 -0.4043  1.0335
 6850SOL    HW230481   6.033   2.134   6.512  0.1079 -0.4748 -1.7738
 6851SOL     OW30482   3.496   6.315   2.713  0.7073  0.4731  0.3815
 6851SOL    HW130483   3.578   6.364   2.702  1.3547 -0.9794 -1.7705
 6851SOL    HW230484   3.431   6.367   2.667  1.1851 -0.1017 -0.9989
 6852SOL     OW30485   8.719   9.923  12.001  0.5725 -0.4250  0.4102
 6852SOL    HW130486   8.754  10.008  12.029  2.0513 -0.2313 -1.8201
 6852SOL    HW230487   8.679   9.940  11.916  0.4622 -1.8822  0.1557
 6853SOL     OW30488   1.428   8.589   5.153  0.2475  0.0525 -0.2762
 6853SOL    HW130489   1.377   8.545   5.085  0.4820  0.3595 -0.6536
 6853SOL    HW230490   1.374   8.664   5.179  0.1028 -0.1335 -0.0323
 6854SOL     OW30491   4.658  12.410  10.363 -0.0391  0.6852  0.1374
 6854SOL    HW130492   4.692  12.427  10.275  0.6434 -1.9976 -0.1976
 6854SOL    HW230493   4.693  12.480  10.417  1.4205  1.1103 -1.3017
 6855SOL     OW30494   6.566   6.365   1.526  0.4113 -0.3074 -0.3277
 6855SOL    HW130495   6.574   6.400   1.614  0.2809  1.3844 -0.9498
 6855SOL    HW230496   6.472   6.365   1.508  0.4253 -0.7903 -0.4152
 6856SOL     OW30497  10.870  12.546   2.699 -0.3253  0.3375  0.8212
 6856SOL    HW130498  10.887  12.621   2.757  0.8261  0.9761 -0.2727
 6856SOL    HW230499  10.878  12.583   2.611  2.6460 -1.4576  0.1800
 6857SOL     OW30500   4.289  10.925   9.641 -0.1934 -0.1222 -0.4368
 6857SOL    HW130501   4.200  10.939   9.607 -0.5355 -0.2374  0.3881
 6857SOL    HW230502   4.345  10.936   9.565 -1.1316 -3.5615 -1.8564
 6858SOL     OW30503  11.981   4.278  10.476  0.0052  0.4630  0.2503
 6858SOL    HW130504  11.911   4.234  10.523  0.6850  1.2282  2.0744
 6858SOL    HW230505  11.938   4.352  10.432 -0.5114  0.2311  0.3558
 6859SOL     OW30506   2.870   1.741   0.548 -0.2590  0.3893 -0.0654
 6859SOL    HW130507   2.893   1.798   0.622  0.5070  0.4372 -0.3253
 6859SOL    HW230508   2.920   1.661   0.564  1.2103  0.9889 -1.3352
 6860SOL     OW30509   7.455   7.979   3.053  0.4861  0.4344  0.2221
 6860SOL    HW130510   7.375   8.026   3.029  0.3113 -0.3051 -0.7510
 6860SOL    HW230511   7.526   8.029   3.012  0.4310  0.5821  0.3079
 6861SOL     OW30512   5.843  10.257   8.231 -0.0715 -0.5859  0.0449
 6861SOL    HW130513   5.890  10.287   8.309  0.4272 -0.1944 -0.3983
 6861SOL    HW230514   5.896  10.187   8.196 -0.5909 -1.1513  0.3672
 6862SOL     OW30515   2.496   2.585   3.221 -0.1406 -0.1364 -0.2898
 6862SOL    HW130516   2.463   2.567   3.309 -1.1182 -1.3621 -0.8732
 6862SOL    HW230517   2.477   2.678   3.207 -0.0126  0.0658  0.7665
 6863SOL     OW30518   3.961   3.266   2.894 -0.1749 -0.3923  0.3889
 6863SOL    HW130519   3.886   3.299   2.944  0.4391  1.3828  0.2288
 6863SOL    HW230520   4.032   3.261   2.957 -0.0210 -0.4933  0.2079
 6864SOL     OW30521   6.385   3.147  12.618  0.2663 -0.3070 -0.4033
 6864SOL    HW130522   6.420   3.211  12.556 -1.7254  0.8639 -0.4274
 6864SOL    HW230523   6.339   3.083  12.563  0.0621 -0.3018 -0.2419
 6865SOL     OW30524   3.008   2.220   4.933  0.0415 -0.3786  0.6624
 6865SOL    HW130525   2.940   2.161   4.966  0.8994 -0.7840  1.7688
 6865SOL    HW230526   2.984   2.306   4.966 -0.2845 -0.4028  0.4920
 6866SOL     OW30527   9.835   5.645   0.994  0.8179  0.1588  0.4219
 6866SOL    HW130528   9.918   5.597   1.002 -0.0598 -1.2276  2.0812
 6866SOL    HW230529   9.802   5.620   0.908  0.5370 -2.0951  1.1029
 6867SOL     OW30530   3.626   1.856   9.852 -0.6279  0.1558  0.0665
 6867SOL    HW130531   3.571   1.908   9.794  1.4543 -1.0482 -3.2862
 6867SOL    HW230532   3.714   1.894   9.842  0.1747 -1.4259  0.7884
 6868SOL     OW30533   6.326   0.865   2.855  0.0050  0.3462 -0.1652
 6868SOL    HW130534   6.412   0.843   2.819  0.5552 -2.9246  2.6123
 6868SOL    HW230535   6.264   0.832   2.789  0.9675 -2.8496  0.3691
 6869SOL     OW30536   7.201   4.041  12.254  0.4014 -0.1181 -0.6433
 6869SOL    HW130537   7.117   3.998  12.271  0.7296 -0.6058 -0.2278
 6869SOL    HW230538   7.178   4.120  12.205 -0.4789  0.7427  1.0538
 6870SOL     OW30539   6.801   9.909   2.853  0.4879  0.3861 -0.2191
 6870SOL    HW130540   6.836   9.820   2.859  1.0577  0.5613 -0.8352
 6870SOL    HW230541   6.799   9.940   2.943  0.2242 -0.2668  0.0110
 6871SOL     OW30542  10.035   9.554   6.631  0.0515  0.0502  0.1060
 6871SOL    HW130543  10.070   9.608   6.560 -0.0318 -0.1368 -0.0800
 6871SOL    HW230544   9.975   9.612   6.678  1.9483  0.9687  1.5697
 6872SOL     OW30545   3.741   0.687  12.329  0.5439 -0.0914 -0.6929
 6872SOL    HW130546   3.800   0.739  12.383  0.0966 -0.1520 -0.1445
 6872SOL    HW230547   3.795   0.658  12.256  1.7503 -1.8656  0.8292
 6873SOL     OW30548   0.487   9.065   7.175 -0.4744  0.4444  0.5475
 6873SOL    HW130549   0.568   9.096   7.215 -1.3989  2.7657  0.7740
 6873SOL    HW230550   0.446   9.011   7.244  0.1203  0.5579  0.9997
 6874SOL     OW30551  12.071   6.816   7.743  0.0597  0.7399 -0.3554
 6874SOL    HW130552  12.041   6.898   7.705 -0.2332 -0.7957 -3.7210
 6874SOL    HW230553  11.991   6.772   7.771  0.2159  1.4852  1.4273
 6875SOL     OW30554   7.551  11.605   4.537 -0.2523 -0.0166  0.0800
 6875SOL    HW130555   7.581  11.653   4.460  0.4700 -0.1934  0.2429
 6875SOL    HW230556   7.462  11.578   4.515 -0.2250  0.3419 -0.5001
 6876SOL     OW30557   6.630   6.877   7.225  0.4805 -0.2173 -0.4771
 6876SOL    HW130558   6.651   6.879   7.132  0.6317  0.6323 -0.4312
 6876SOL    HW230559   6.615   6.968   7.249  1.5427 -0.2948  0.5881
 6877SOL     OW30560   1.183   4.760   1.225  0.0356 -0.0376  0.3785
 6877SOL    HW130561   1.116   4.693   1.238  0.6764 -0.7160  0.2056
 6877SOL    HW230562   1.136   4.833   1.185 -0.5110 -0.6793 -0.1762
 6878SOL     OW30563   7.892   3.764   6.715  0.1738 -0.2142 -0.8534
 6878SOL    HW130564   7.866   3.674   6.692 -0.5033  0.1397 -1.5052
 6878SOL    HW230565   7.826   3.819   6.674  0.1806  0.5612  0.1437
 6879SOL     OW30566   6.202   8.848   5.633 -0.2088 -0.3087  0.8665
 6879SOL    HW130567   6.235   8.852   5.723  1.3474 -0.6578  0.3528
 6879SOL    HW230568   6.260   8.785   5.590 -0.5016  0.3613 -0.5515
 6880SOL     OW30569  11.240   6.037  11.554 -0.3885  0.3832 -0.3701
 6880SOL    HW130570  11.184   5.970  11.516 -0.1251  0.6011 -1.1578
 6880SOL    HW230571  11.261   6.096  11.482  0.0547  0.8561  0.1271
 6881SOL     OW30572  11.634  11.272  10.030  0.1705  0.0249 -0.3688
 6881SOL    HW130573  11.615  11.270   9.936  2.8997 -0.6347 -0.9863
 6881SOL    HW230574  11.674  11.357  10.045 -2.2123  1.0660  0.7438
 6882SOL     OW30575   2.412   8.162   4.030  0.1061  0.1033  0.4076
 6882SOL    HW130576   2.351   8.096   3.998  0.6570  0.2280 -0.9774
 6882SOL    HW230577   2.463   8.117   4.097  0.3844 -0.8519 -0.4293
 6883SOL     OW30578   1.990   3.250   0.907 -0.1753 -0.1208 -0.6356
 6883SOL    HW130579   1.917   3.310   0.898  0.1937  0.2130 -1.5611
 6883SOL    HW230580   1.965   3.173   0.855 -0.4685 -0.6032  0.2035
 6884SOL     OW30581   9.323   7.756   7.526  0.1898 -0.2166  0.0064
 6884SOL    HW130582   9.246   7.737   7.472 -0.5627 -1.4101  1.4288
 6884SOL    HW230583   9.343   7.848   7.508 -3.0765  0.9049  1.3691
 6885SOL     OW30584   3.156   5.357  12.252  0.7240 -0.0416 -0.2045
 6885SOL    HW130585   3.099   5.305  12.195  1.3458  0.9527 -1.8253
 6885SOL    HW230586   3.097   5.397  12.315 -0.0449 -0.9282 -0.3369
 6886SOL     OW30587  12.127   2.432   0.729 -0.6517 -0.0597 -0.6227
 6886SOL    HW130588  12.131   2.467   0.818 -0.9573 -2.2039  0.3016
 6886SOL    HW230589  12.041   2.458   0.697 -3.0411 -3.7754  1.8947
 6887SOL     OW30590   8.591   4.871   5.360 -0.1655  0.1394 -0.4173
 6887SOL    HW130591   8.686   4.872   5.374 -0.0574  0.7817 -1.1538
 6887SOL    HW230592   8.581   4.838   5.271 -0.6645 -0.3941 -0.1695
 6888SOL     OW30593   6.748   0.088   3.505  0.0630  0.7141  0.6752
 6888SOL    HW130594   6.747   0.144   3.582  0.9486 -0.1964  1.3737
 6888SOL    HW230595   6.831   0.041   3.510 -1.2834 -1.7830  0.9362
 6889SOL     OW30596  10.524  12.604  10.372 -0.0067 -0.7994 -0.4328
 6889SOL    HW130597  10.487  12.691  10.385  0.2227 -0.7817  0.1359
 6889SOL    HW230598  10.510  12.559  10.456  1.7671 -0.5842  0.0279
 6890SOL     OW30599   3.536   1.057  10.897  0.3181 -0.0275  0.3290
 6890SOL    HW130600   3.607   1.066  10.960  0.7074  0.0449 -0.1102
 6890SOL    HW230601   3.490   0.977  10.923  1.7868 -1.2294 -0.5626
 6891SOL     OW30602   5.646   8.165   0.552 -0.1383  0.0343  0.4257
 6891SOL    HW130603   5.626   8.257   0.568 -0.6370 -0.0095  0.0883
 6891SOL    HW230604   5.634   8.123   0.637 -1.4193  0.0300  0.2663
 6892SOL     OW30605   1.370   7.416  11.532 -0.0008 -0.0801 -0.1878
 6892SOL    HW130606   1.284   7.457  11.525  0.1447  0.0454 -1.4152
 6892SOL    HW230607   1.391   7.420  11.625 -1.2993 -0.0686  0.1234
 6893SOL     OW30608   2.824   5.908  10.640  0.2659  0.7321  0.5683
 6893SOL    HW130609   2.781   5.968  10.701 -0.5252  0.2543  0.4967
 6893SOL    HW230610   2.899   5.874  10.689 -1.8362 -1.7234  2.3627
 6894SOL     OW30611   8.799  13.050   3.285 -0.5149 -0.0430 -0.4316
 6894SOL    HW130612   8.758  12.983   3.231  0.4240  0.2295 -1.5349
 6894SOL    HW230613   8.893  13.035   3.275 -0.3006  0.0724  1.0935
 6895SOL     OW30614   4.347   4.545   7.123  0.1615  0.3817  0.3497
 6895SOL    HW130615   4.437   4.520   7.106  0.2145 -0.0256  1.1480
 6895SOL    HW230616   4.349   4.640   7.129  0.2493  0.4881 -1.1501
 6896SOL     OW30617   0.095  12.938   3.278 -0.3574  0.3673  0.7748
 6896SOL    HW130618   0.122  13.026   3.255  0.2625  0.0358  0.1993
 6896SOL    HW230619   0.084  12.940   3.373 -0.4747  1.0899  0.7522
 6897SOL     OW30620   1.199   7.143   9.305  0.2094  1.1909  0.4099
 6897SOL    HW130621   1.163   7.148   9.217 -0.8605 -0.5035  0.7136
 6897SOL    HW230622   1.122   7.147   9.362  0.8012  1.0630  1.2302
 6898SOL     OW30623   9.221   9.216   4.318  0.4428 -0.0388 -0.3194
 6898SOL    HW130624   9.202   9.164   4.395  0.9354 -0.6439 -0.6030
 6898SOL    HW230625   9.292   9.274   4.345 -0.8925  1.3840  0.3703
 6899SOL     OW30626   9.034  11.833   9.592  0.0298  0.4283 -0.0115
 6899SOL    HW130627   8.968  11.768   9.567 -0.2398  0.5441  0.3731
 6899SOL    HW230628   8.986  11.916   9.593  0.5092  0.7278 -1.0786
 6900SOL     OW30629   2.795   1.434  12.554 -0.4369 -0.0193 -0.1466
 6900SOL    HW130630   2.801   1.426  12.649 -0.9103  3.1349  0.2518
 6900SOL    HW230631   2.884   1.419  12.523 -0.4891 -2.2350  0.6117
 6901SOL     OW30632   9.030   0.004   4.748  0.2250 -0.3547 -0.2003
 6901SOL    HW130633   9.110   0.015   4.696 -0.0825  2.9898 -0.1633
 6901SOL    HW230634   8.959   0.022   4.687 -0.3164  0.0108  0.5227
 6902SOL     OW30635  12.875   6.569  10.816  0.0410 -0.0579 -0.1524
 6902SOL    HW130636  12.840   6.483  10.838  0.7842 -0.4025 -0.2830
 6902SOL    HW230637  12.966   6.567  10.847  0.2253  0.4855 -0.6324
 6903SOL     OW30638   5.436   1.077   2.645 -0.3040  0.0608  0.2954
 6903SOL    HW130639   5.466   1.055   2.557 -0.2679  0.3065  0.2451
 6903SOL    HW230640   5.451   1.172   2.652  0.2012 -0.0559  0.7643
 6904SOL     OW30641   3.394   8.384  11.639 -0.1682 -0.3413 -0.0805
 6904SOL    HW130642   3.376   8.470  11.677 -0.9896 -0.2353 -0.6803
 6904SOL    HW230643   3.458   8.344  11.698  0.0927  0.6101  0.2946
 6905SOL     OW30644   9.678   9.740  10.401 -0.4223 -0.0502  0.7801
 6905SOL    HW130645   9.585   9.738  10.422 -0.3797 -0.6794  0.9041
 6905SOL    HW230646   9.691   9.827  10.362 -0.4950  1.1877  3.3153
 6906SOL     OW30647   7.161   8.105   1.316  0.7412 -0.1036 -0.9435
 6906SOL    HW130648   7.086   8.118   1.374  1.5965  1.3628 -0.1081
 6906SOL    HW230649   7.197   8.020   1.342  0.5515  0.1000  0.0309
 6907SOL     OW30650   4.952   2.690   4.709  0.2158 -0.3825 -0.6346
 6907SOL    HW130651   4.971   2.596   4.714  1.9475 -0.0362  0.0931
 6907SOL    HW230652   4.861   2.697   4.735  0.2232 -1.8223 -0.1160
 6908SOL     OW30653   0.930  12.131   0.038  0.6051  0.4092 -0.2006
 6908SOL    HW130654   0.989  12.093  -0.028  1.1515 -0.5312  0.7906
 6908SOL    HW230655   0.983  12.135   0.118  0.1177  2.0243  0.0631
 6909SOL     OW30656  10.513   1.356   4.367  0.2679 -0.2720  0.1137
 6909SOL    HW130657  10.537   1.289   4.431  0.9003 -1.0876 -0.9547
 6909SOL    HW230658  10.506   1.436   4.418 -0.4192 -1.1242  1.4059
 6910SOL     OW30659  10.888   6.624   1.376 -0.3256 -0.1466 -0.0486
 6910SOL    HW130660  10.803   6.628   1.331  0.2845 -1.2389 -1.3366
 6910SOL    HW230661  10.891   6.536   1.412  1.0209 -0.7671 -1.5860
 6911SOL     OW30662  10.370  11.499   3.133 -0.6940  0.1944  0.4461
 6911SOL    HW130663  10.330  11.561   3.194 -3.2271 -0.7019 -0.2036
 6911SOL    HW230664  10.398  11.554   3.059  1.0429  1.0795  1.6990
 6912SOL     OW30665  10.201  11.929   2.113  0.2724 -0.1236 -0.7629
 6912SOL    HW130666  10.254  11.858   2.149 -0.6103  0.1938  1.3203
 6912SOL    HW230667  10.181  11.902   2.024  1.0914 -1.8288 -0.4563
 6913SOL     OW30668   4.383   6.019  10.399  0.5331 -0.1862  0.2260
 6913SOL    HW130669   4.400   5.946  10.458  1.5270 -0.2558 -0.1383
 6913SOL    HW230670   4.393   5.983  10.311 -1.7735 -0.2999 -0.0729
 6914SOL     OW30671  10.638  10.673  12.901  0.4918  0.1953 -0.0270
 6914SOL    HW130672  10.664  10.584  12.924 -1.5729 -0.7252 -0.9534
 6914SOL    HW230673  10.632  10.672  12.805 -0.8402  0.8958  0.0177
 6915SOL     OW30674   4.134  10.621  11.115  0.3158 -0.2069 -0.1812
 6915SOL    HW130675   4.169  10.704  11.082 -0.1762  0.2236  0.3765
 6915SOL    HW230676   4.212  10.572  11.142  0.8778 -1.0409 -2.9498
 6916SOL     OW30677   0.048   9.532   4.422  0.0484 -0.3113 -0.2948
 6916SOL    HW130678   0.036   9.612   4.472 -0.5092  0.4145 -1.5451
 6916SOL    HW230679   0.021   9.462   4.482 -1.1133  0.5689  0.2536
 6917SOL     OW30680   7.160   6.146  10.054  0.0692 -0.0097  0.2373
 6917SOL    HW130681   7.152   6.187   9.968 -2.2554  2.9337  1.6861
 6917SOL    HW230682   7.246   6.175  10.085  0.1080  0.5294 -0.3316
 6918SOL     OW30683   0.074   6.861   3.174 -0.0350 -0.3166 -0.1678
 6918SOL    HW130684   0.132   6.876   3.099 -1.0939 -4.0842 -1.9412
 6918SOL    HW230685   0.017   6.790   3.147 -1.5365 -0.8248  3.7062
 6919SOL     OW30686   1.691   9.943   0.422 -0.2322  0.3208  0.0701
 6919SOL    HW130687   1.643   9.954   0.340  0.1504 -0.9668 -0.3562
 6919SOL    HW230688   1.629   9.968   0.490 -0.2132  2.4670 -0.6315
 6920SOL     OW30689   8.672   1.193  10.296  0.1040  0.3672 -0.1989
 6920SOL    HW130690   8.755   1.150  10.275 -0.7077 -1.3903  0.0076
 6920SOL    HW230691   8.698   1.274  10.340  1.7422 -1.3006  2.1498
 6921SOL     OW30692   1.838   5.622   6.154  0.1086  0.2601  0.5595
 6921SOL    HW130693   1.761   5.573   6.183 -0.2614  0.0129 -0.7356
 6921SOL    HW230694   1.911   5.583   6.202 -0.3433 -0.7587  0.4470
 6922SOL     OW30695   5.086   0.811   3.736  0.2574 -0.4951 -0.0255
 6922SOL    HW130696   5.149   0.878   3.759 -0.4638 -0.1536  1.0063
 6922SOL    HW230697   5.139   0.736   3.710  1.0732  0.3296 -0.8171
 6923SOL     OW30698   6.127   3.801  12.379  0.0815 -0.1348 -0.5354
 6923SOL    HW130699   6.212   3.795  12.422  0.4795 -3.6781 -1.4983
 6923SOL    HW230700   6.148   3.824  12.288 -0.2740  1.7719 -0.1594
 6924SOL     OW30701   7.221  10.737   4.560  0.1985  0.1086 -0.3973
 6924SOL    HW130702   7.216  10.696   4.646 -1.4536 -0.3968 -0.7056
 6924SOL    HW230703   7.268  10.819   4.575 -1.3412  0.7511  1.2877
 6925SOL     OW30704   6.313   2.695   7.141  0.0642  0.6743 -0.4697
 6925SOL    HW130705   6.404   2.710   7.168 -0.2381 -0.1384  1.1202
 6925SOL    HW230706   6.261   2.729   7.214 -0.9428  1.4555 -1.5191
 6926SOL     OW30707   9.843   8.474  10.397  0.3197 -0.2207 -0.1592
 6926SOL    HW130708   9.778   8.445  10.461 -0.9265 -0.9624 -1.6561
 6926SOL    HW230709   9.829   8.415  10.322  0.3198  1.8347 -1.8704
 6927SOL     OW30710  10.797  13.270   4.128  0.5667  0.3661  0.3516
 6927SOL    HW130711  10.794  13.184   4.086  1.7300  0.7585 -0.5822
 6927SOL    HW230712  10.705  13.295   4.138  0.1633  0.6685 -2.8951
 6928SOL     OW30713   4.410  11.291  11.651 -0.1814 -0.4292  0.0919
 6928SOL    HW130714   4.426  11.197  11.651  2.4046 -0.0773 -0.6557
 6928SOL    HW230715   4.393  11.313  11.559  0.6302 -0.0068  0.0299
 6929SOL     OW30716  12.478   9.650   6.012 -0.2389  0.4633 -0.0520
 6929SOL    HW130717  12.431   9.615   5.937 -3.4026  2.1562  0.9907
 6929SOL    HW230718  12.478   9.578   6.076 -0.1409  0.0038 -0.5605
 6930SOL     OW30719   0.429  12.198   8.307  0.5693 -0.8772  0.3410
 6930SOL    HW130720   0.354  12.144   8.334 -0.3963 -0.2605 -0.9893
 6930SOL    HW230721   0.496  12.135   8.283 -1.1043 -1.6752 -2.8136
 6931SOL     OW30722  12.184   8.496   8.900 -0.5130  0.3538 -0.2647
 6931SOL    HW130723  12.226   8.426   8.851 -0.6736 -0.3962  0.6474
 6931SOL    HW230724  12.223   8.576   8.865  0.3894 -0.2330 -0.6405
 6932SOL     OW30725   3.152  12.820   1.105  0.2485  0.4865  0.0921
 6932SOL    HW130726   3.177  12.886   1.040 -0.2608 -1.7970 -2.6501
 6932SOL    HW230727   3.234  12.776   1.127  0.5590  1.8185  1.7763
 6933SOL     OW30728   4.165   8.969   6.125 -0.0353  0.5326  0.4286
 6933SOL    HW130729   4.139   9.044   6.179 -0.5766  2.6225 -2.5009
 6933SOL    HW230730   4.090   8.909   6.130 -1.0779  1.7637  0.1800
 6934SOL     OW30731   3.537   3.346   7.761  0.1293 -0.2771  0.6469
 6934SOL    HW130732   3.561   3.263   7.722 -2.5520 -0.5862 -0.5970
 6934SOL    HW230733   3.620   3.391   7.776  1.6317 -2.9042  0.8795
 6935SOL     OW30734  11.554   4.421   4.168 -0.0954 -0.3111  0.8315
 6935SOL    HW130735  11.606   4.342   4.183 -0.7002 -1.3370 -1.9344
 6935SOL    HW230736  11.614   4.480   4.123 -0.5543 -0.4435  0.0421
 6936SOL     OW30737   4.961   2.577   0.319 -0.1075 -0.1530  0.3985
 6936SOL    HW130738   4.934   2.497   0.274 -0.0344  0.2206 -0.3434
 6936SOL    HW230739   4.887   2.636   0.307 -0.0724 -0.0403  0.7482
 6937SOL     OW30740  10.487  12.503  10.904  0.1502  0.1261 -0.2455
 6937SOL    HW130741  10.519  12.413  10.914  0.3906  0.1839 -0.4752
 6937SOL    HW230742  10.560  12.557  10.934  0.1865  0.2555 -0.5675
 6938SOL     OW30743   9.776   4.584   3.222 -0.0912  0.7288  0.3722
 6938SOL    HW130744   9.785   4.549   3.311 -1.3513  1.1595  0.6910
 6938SOL    HW230745   9.749   4.508   3.170  1.1584  0.3590  0.2350
 6939SOL     OW30746   8.470  12.318   1.691  0.0278  0.4468 -0.1905
 6939SOL    HW130747   8.502  12.374   1.620  1.0752 -0.6174 -0.5836
 6939SOL    HW230748   8.549  12.286   1.734 -0.5562  2.1145  2.3562
 6940SOL     OW30749   2.921   6.168  12.393  0.1720  0.5875 -0.1069
 6940SOL    HW130750   2.941   6.088  12.442  2.4568  0.7419 -0.7077
 6940SOL    HW230751   2.974   6.236  12.435 -0.7853  1.5383 -0.3980
 6941SOL     OW30752   7.811  11.119   3.970 -0.1446 -0.0379 -0.6535
 6941SOL    HW130753   7.791  11.210   3.990  0.6086 -0.2191  1.0765
 6941SOL    HW230754   7.900  11.106   4.003  0.1029 -1.1687 -1.6896
 6942SOL     OW30755   1.889   0.735   7.158  0.8348 -0.5524  0.1968
 6942SOL    HW130756   1.980   0.754   7.181  1.3747 -1.5293 -1.0424
 6942SOL    HW230757   1.851   0.700   7.238  1.0294  1.4728  1.2493
 6943SOL     OW30758   5.132   5.600   3.159 -0.2298  0.1992  0.2807
 6943SOL    HW130759   5.172   5.538   3.220  1.5753  0.1107 -0.9148
 6943SOL    HW230760   5.130   5.553   3.076  1.1850  1.6967 -0.6562
 6944SOL     OW30761   0.670   2.014   9.030 -0.3408 -0.4426  0.2040
 6944SOL    HW130762   0.712   2.096   9.056  0.7849 -0.6491 -0.8423
 6944SOL    HW230763   0.634   2.032   8.943 -1.7559 -0.5200  0.7537
 6945SOL     OW30764   9.507   9.157   8.639  0.0687  0.0919 -0.2955
 6945SOL    HW130765   9.531   9.129   8.550 -1.4550  0.3120 -0.7986
 6945SOL    HW230766   9.471   9.078   8.679  1.2983 -0.1605  0.3543
 6946SOL     OW30767   1.387   8.732   8.347 -0.0375  0.1546 -0.5726
 6946SOL    HW130768   1.331   8.809   8.336 -0.5641 -0.2520 -0.8604
 6946SOL    HW230769   1.467   8.765   8.387 -0.8151  0.6303  0.6676
 6947SOL     OW30770   2.712   1.017   7.599 -0.1605 -0.5667  0.1491
 6947SOL    HW130771   2.805   0.996   7.608 -0.2440 -0.6376  0.9378
 6947SOL    HW230772   2.667   0.940   7.635 -0.5006 -0.0030  0.9450
 6948SOL     OW30773   3.532  11.966   4.888  0.5188  0.3432 -0.1416
 6948SOL    HW130774   3.543  12.030   4.959 -0.3254 -1.5157  1.7708
 6948SOL    HW230775   3.452  11.919   4.910  1.7178 -2.1756 -0.7577
 6949SOL     OW30776  12.269   5.327   0.544 -0.3143  0.1842 -0.0682
 6949SOL    HW130777  12.316   5.408   0.523 -1.5734  0.9484 -0.0590
 6949SOL    HW230778  12.333   5.273   0.591 -0.1940  2.3013  2.4552
 6950SOL     OW30779   3.437   5.832   8.096  0.6190  0.9530  0.2391
 6950SOL    HW130780   3.531   5.819   8.103  1.0373  1.8468 -2.5541
 6950SOL    HW230781   3.427   5.925   8.076 -0.8869  0.9384  0.7686
 6951SOL     OW30782   5.605   3.486   5.222 -0.3113  0.2980  0.2363
 6951SOL    HW130783   5.563   3.430   5.157 -0.6233 -0.0258  0.7044
 6951SOL    HW230784   5.587   3.443   5.306  0.3172  0.5554  0.5150
 6952SOL     OW30785   7.410   5.363  11.448 -0.4487 -0.0131 -0.0442
 6952SOL    HW130786   7.371   5.439  11.492 -0.0083 -0.1078  0.5211
 6952SOL    HW230787   7.504   5.370  11.467 -0.6547 -1.9913  2.0882
 6953SOL     OW30788   7.888  11.677   9.862 -0.4357 -0.3701 -0.2114
 6953SOL    HW130789   7.978  11.666   9.892 -0.1119 -1.1269 -1.3785
 6953SOL    HW230790   7.838  11.615   9.914 -0.2104 -0.2617  0.1372
 6954SOL     OW30791   6.145  11.439  10.967 -0.1185  0.0537  0.0180
 6954SOL    HW130792   6.193  11.520  10.953 -0.9089  0.3674 -1.0109
 6954SOL    HW230793   6.130  11.435  11.061  2.2604 -0.2754  0.4424
 6955SOL     OW30794  12.537  10.467   6.360 -0.9948 -0.0128  0.3178
 6955SOL    HW130795  12.537  10.560   6.384  1.4412  0.0505  0.2556
 6955SOL    HW230796  12.518  10.421   6.442 -1.2932  0.4993  0.5404
 6956SOL     OW30797   9.078   9.578   4.651 -0.5869  0.3202 -0.3971
 6956SOL    HW130798   9.078   9.485   4.625 -0.0943 -0.0607  0.9148
 6956SOL    HW230799   9.101   9.625   4.571 -0.2540 -0.7338 -0.9386
 6957SOL     OW30800   9.747   5.323  12.974 -0.5110  0.2340  0.3701
 6957SOL    HW130801   9.731   5.384  12.902  2.8152  0.1450 -0.6179
 6957SOL    HW230802   9.781   5.377  13.045  0.8903 -0.2375  0.0771
 6958SOL     OW30803   7.686  11.734   6.212 -0.1617 -0.3287 -0.2828
 6958SOL    HW130804   7.660  11.721   6.303  0.4603  0.9690  0.1095
 6958SOL    HW230805   7.702  11.646   6.178  3.2272 -0.7311  1.9645
 6959SOL     OW30806   7.758   0.784  13.314 -0.8197 -0.6783 -0.2582
 6959SOL    HW130807   7.833   0.734  13.283 -1.0205 -0.7628 -0.6071
 6959SOL    HW230808   7.707   0.722  13.366 -1.6450 -1.1509 -1.5886
 6960SOL     OW30809  11.715   1.594   8.183  0.0951  0.2363 -0.3829
 6960SOL    HW130810  11.626   1.581   8.151 -0.1960  0.7007  0.2092
 6960SOL    HW230811  11.772   1.576   8.108 -0.5357  0.7781 -1.0007
 6961SOL     OW30812   0.320  13.294   7.685 -0.4677 -0.1573 -0.2440
 6961SOL    HW130813   0.375  13.216   7.680  0.1073  0.2289 -0.0547
 6961SOL    HW230814   0.325  13.334   7.598 -1.3857 -0.7388 -0.5769
 6962SOL     OW30815   0.837  12.856   7.967 -0.2447  0.0218  0.2848
 6962SOL    HW130816   0.897  12.791   7.929  0.6341  1.0476 -0.1483
 6962SOL    HW230817   0.780  12.806   8.024  0.6097 -1.0940  0.1942
 6963SOL     OW30818   2.942   6.296   5.043  0.3544 -0.0762 -0.0084
 6963SOL    HW130819   3.020   6.343   5.015  0.2973 -0.0362 -0.1015
 6963SOL    HW230820   2.963   6.263   5.131  1.2197 -1.7668 -0.8079
 6964SOL     OW30821  11.680   6.721   9.878 -0.6309 -0.1384  0.1347
 6964SOL    HW130822  11.686   6.787   9.947 -2.6589 -0.1605  0.3747
 6964SOL    HW230823  11.757   6.665   9.892  1.0593  2.0159  0.0214
 6965SOL     OW30824   0.545   9.273   8.459  0.1280  0.2358 -0.3972
 6965SOL    HW130825   0.547   9.206   8.391  1.0186 -0.0119 -0.1444
 6965SOL    HW230826   0.637   9.287   8.481 -0.0907  1.0162  0.0722
 6966SOL     OW30827   5.410   5.169   9.561 -0.5546  0.5117  0.0151
 6966SOL    HW130828   5.490   5.127   9.529 -1.0252  0.5783 -1.3043
 6966SOL    HW230829   5.407   5.148   9.654  0.8007  0.1946  0.0037
 6967SOL     OW30830   2.367  11.430   3.189 -0.2318 -0.6211 -0.3680
 6967SOL    HW130831   2.326  11.455   3.272  2.1810 -2.0227  1.3848
 6967SOL    HW230832   2.325  11.347   3.166 -1.9100  0.4557 -1.3926
 6968SOL     OW30833  11.041   1.133   5.744  0.2292  0.1857  0.3128
 6968SOL    HW130834  11.110   1.173   5.798  0.6036 -0.3990  0.2755
 6968SOL    HW230835  11.033   1.192   5.668  0.8040  0.1747  0.2387
 6969SOL     OW30836  10.400   4.678   2.734 -0.0947 -0.1823  0.3292
 6969SOL    HW130837  10.339   4.618   2.692  0.0596 -0.5232  0.5904
 6969SOL    HW230838  10.359   4.700   2.818 -0.2235  0.1991  0.1682
 6970SOL     OW30839   2.460   8.110   2.459  0.1093  0.4227 -0.2242
 6970SOL    HW130840   2.377   8.153   2.477 -1.0440 -1.9350  0.5935
 6970SOL    HW230841   2.467   8.110   2.364 -1.3552 -0.1579 -0.3696
 6971SOL     OW30842   0.648   6.712   9.267  0.2133  0.2430 -0.0643
 6971SOL    HW130843   0.725   6.717   9.323  0.9273 -2.8291 -0.6299
 6971SOL    HW230844   0.682   6.709   9.178 -0.5360 -1.1223 -0.3257
 6972SOL     OW30845   0.228   3.166   6.780  0.1496  0.5336 -0.4309
 6972SOL    HW130846   0.236   3.074   6.754 -1.3982  0.3879 -0.4865
 6972SOL    HW230847   0.305   3.208   6.741  1.0996 -0.7919 -0.0794
 6973SOL     OW30848   2.603   4.954  10.798 -0.1385 -0.3712 -0.0178
 6973SOL    HW130849   2.568   4.865  10.796 -0.1136 -0.3736 -1.6652
 6973SOL    HW230850   2.693   4.945  10.766 -0.3645  0.3276 -0.8850
 6974SOL     OW30851  10.403   8.727   4.681 -0.3960  0.2616 -0.0445
 6974SOL    HW130852  10.471   8.785   4.647  0.3356  0.6008  1.8691
 6974SOL    HW230853  10.420   8.642   4.640  1.5147  0.2180  0.7575
 6975SOL     OW30854   7.935   5.655  11.384 -0.6130  0.1750  0.0241
 6975SOL    HW130855   7.940   5.662  11.479 -0.7783 -2.0322  0.2604
 6975SOL    HW230856   7.996   5.584  11.363 -0.8749  0.3751 -1.4833
 6976SOL     OW30857   0.505   7.669   8.974 -0.4113 -0.5100 -0.2907
 6976SOL    HW130858   0.560   7.713   9.039 -2.5710  1.7071  0.2313
 6976SOL    HW230859   0.481   7.586   9.015  1.1941 -0.8104  0.1188
 6977SOL     OW30860  12.615  10.939  10.359  0.7119 -0.3316  0.1910
 6977SOL    HW130861  12.683  10.877  10.384 -0.7603 -1.3812  1.8182
 6977SOL    HW230862  12.541  10.884  10.330  0.1004  0.7266 -0.3339
 6978SOL     OW30863   9.880   4.458   8.720 -0.6873  0.4397 -0.0917
 6978SOL    HW130864   9.944   4.433   8.653 -1.4729 -1.7737 -0.1122
 6978SOL    HW230865   9.933   4.490   8.793  0.5234 -1.5075 -0.0284
 6979SOL     OW30866  10.190   7.643   8.220  0.0411  0.0486  0.2783
 6979SOL    HW130867  10.227   7.658   8.307  1.4577  0.3135 -0.3383
 6979SOL    HW230868  10.118   7.705   8.213 -0.5806 -0.4860  1.5199
 6980SOL     OW30869   7.350  10.016  11.272  0.5464 -0.2006  0.0265
 6980SOL    HW130870   7.369   9.975  11.188 -0.6449 -0.8038  0.0276
 6980SOL    HW230871   7.353   9.945  11.336  0.8717  0.1460  0.4042
 6981SOL     OW30872   2.412   2.342   8.887  0.2860 -0.2273  0.3619
 6981SOL    HW130873   2.436   2.382   8.971  1.1927 -0.5441  0.2611
 6981SOL    HW230874   2.463   2.390   8.822  1.1373 -1.3024  0.2042
 6982SOL     OW30875   7.130   3.005  12.482  0.3057 -0.3669  0.4216
 6982SOL    HW130876   7.211   2.962  12.511 -0.0116 -1.3939 -0.1643
 6982SOL    HW230877   7.146   3.025  12.390  0.2842  0.4049  0.5794
 6983SOL     OW30878  12.889   3.164   3.929 -0.6294  0.0382  0.2270
 6983SOL    HW130879  12.795   3.166   3.942 -0.7153 -1.1583 -0.0929
 6983SOL    HW230880  12.923   3.110   4.001  0.0539  2.0793  1.5097
 6984SOL     OW30881   1.743   4.452   4.725  0.3351 -0.4574 -0.6700
 6984SOL    HW130882   1.838   4.453   4.708  0.3142  0.1158 -0.7548
 6984SOL    HW230883   1.723   4.359   4.737  1.0672 -0.5145  0.2682
 6985SOL     OW30884   6.855  13.097   9.395 -0.6156  0.5853  0.1250
 6985SOL    HW130885   6.863  13.184   9.433 -0.0404  0.9228 -0.7396
 6985SOL    HW230886   6.926  13.046   9.434 -1.4731  0.2402  1.2829
 6986SOL     OW30887   4.978   5.988   5.011 -0.2960 -0.8549 -0.2187
 6986SOL    HW130888   4.914   5.970   4.942 -0.0606 -0.2752 -0.5980
 6986SOL    HW230889   5.038   6.051   4.971  0.3327 -1.1626  0.2342
 6987SOL     OW30890   4.206  11.614   3.936 -0.1866  0.3127  0.5469
 6987SOL    HW130891   4.218  11.623   4.031 -0.1223  0.8658  0.4894
 6987SOL    HW230892   4.132  11.672   3.917  0.4944  1.0485  0.0968
 6988SOL     OW30893   3.169  12.212  12.931  0.4436 -0.6771 -0.2042
 6988SOL    HW130894   3.231  12.212  13.004  0.1690  0.9744  0.0667
 6988SOL    HW230895   3.216  12.169  12.860  1.5260 -0.3822  0.3038
 6989SOL     OW30896   1.968   5.984   8.758  0.0756 -0.1395 -0.1949
 6989SOL    HW130897   1.904   5.939   8.703  0.2377  0.7451 -1.1365
 6989SOL    HW230898   2.034   6.017   8.697  0.2759  0.8435  0.5182
 6990SOL     OW30899   8.921   4.185  13.007 -0.1623 -0.6477 -0.4464
 6990SOL    HW130900   8.988   4.196  12.939  1.0512  1.9788  1.0197
 6990SOL    HW230901   8.964   4.131  13.074  0.9748  1.6694  0.8553
 6991SOL     OW30902   3.340   2.374   6.108  0.2394  0.4494 -0.1682
 6991SOL    HW130903   3.394   2.444   6.071  0.5237  1.4271  1.9526
 6991SOL    HW230904   3.313   2.407   6.193  0.9122 -2.2812  1.2251
 6992SOL     OW30905  12.248   1.255   3.667 -0.3997  0.0846 -0.0106
 6992SOL    HW130906  12.329   1.303   3.682 -0.2115  0.3317 -1.6746
 6992SOL    HW230907  12.200   1.307   3.603 -0.8517 -1.1878 -0.7517
 6993SOL     OW30908  13.170   5.503   8.082  0.1477  0.2934 -0.1498
 6993SOL    HW130909  13.182   5.525   7.989 -0.2617  2.0672  0.1643
 6993SOL    HW230910  13.232   5.560   8.128  0.2020 -0.4249  0.6882
 6994SOL     OW30911   6.793   0.248   3.055 -0.0480 -0.2453  0.2011
 6994SOL    HW130912   6.790   0.343   3.039  0.4655 -0.0954  0.9016
 6994SOL    HW230913   6.885   0.230   3.074 -0.3415 -0.6414  1.3761
 6995SOL     OW30914   0.780   1.034   5.459 -0.0715 -0.5286 -0.1491
 6995SOL    HW130915   0.847   1.099   5.479  0.0814 -0.4024 -1.0211
 6995SOL    HW230916   0.702   1.086   5.437 -0.2030 -0.6592  0.0039
 6996SOL     OW30917   8.061   4.660   9.745 -0.0384  0.0497  0.3195
 6996SOL    HW130918   8.020   4.577   9.767 -2.1637  1.3194  1.5880
 6996SOL    HW230919   8.077   4.702   9.830 -0.3573  1.4956 -0.3009
 6997SOL     OW30920   0.377  13.273  11.784 -0.3685 -0.8921 -0.4279
 6997SOL    HW130921   0.441  13.281  11.855 -1.1889  0.3101  0.2180
 6997SOL    HW230922   0.302  13.230  11.824 -1.6171  1.5406  0.0583
 6998SOL     OW30923  10.621   9.648  10.795 -0.1364 -0.6500  0.4432
 6998SOL    HW130924  10.640   9.554  10.794 -0.6206 -0.7737 -2.1585
 6998SOL    HW230925  10.526   9.654  10.783 -0.0969  0.1888  0.4708
 6999SOL     OW30926  10.137   1.949   4.649  0.5831  0.3053 -0.4586
 6999SOL    HW130927  10.217   1.914   4.688  1.0730  1.1779 -0.6663
 6999SOL    HW230928  10.165   1.987   4.565 -0.0161  0.7686 -0.4568
 7000SOL     OW30929  12.286   6.681   0.237  0.4003 -1.1171 -0.0524
 7000SOL    HW130930  12.272   6.591   0.268  0.4832 -1.3923 -0.7804
 7000SOL    HW230931  12.216   6.695   0.173 -0.2878 -0.2545  0.8557
 7001SOL     OW30932   2.041   1.912   0.057 -0.2141  0.5041  0.1716
 7001SOL    HW130933   2.013   1.823   0.079 -0.1392  0.6037  0.6675
 7001SOL    HW230934   1.964   1.966   0.071 -0.8866  0.2313 -2.1275
 7002SOL     OW30935   8.865   3.409   8.964 -0.4526 -0.2189 -0.6979
 7002SOL    HW130936   8.878   3.358   9.044  0.7294  0.8897 -0.1475
 7002SOL    HW230937   8.934   3.379   8.905 -0.1128  0.3102 -0.5800
 7003SOL     OW30938   4.826   7.410   2.886 -0.2300 -0.1665 -0.1253
 7003SOL    HW130939   4.839   7.394   2.792 -1.3847 -2.0410 -0.0327
 7003SOL    HW230940   4.904   7.375   2.928  1.3640  2.7109 -0.4424
 7004SOL     OW30941   2.320   0.030   1.581  0.3606 -0.4391  0.2416
 7004SOL    HW130942   2.272   0.107   1.549 -0.2776 -0.2134  1.6536
 7004SOL    HW230943   2.333  -0.024   1.503 -1.2312  0.0288 -0.3932
 7005SOL     OW30944   5.853   8.474  12.993  0.0764  0.1391 -0.1913
 7005SOL    HW130945   5.780   8.536  12.997 -0.9030 -0.9771 -0.0505
 7005SOL    HW230946   5.922   8.521  12.945 -0.6900  1.2577 -0.2421
 7006SOL     OW30947   3.026  10.156   9.998  0.3110  0.0844 -0.3439
 7006SOL    HW130948   3.045  10.250   9.996  0.7368  0.0126 -2.1909
 7006SOL    HW230949   3.108  10.116  10.027  0.5263  0.2346 -0.7253
 7007SOL     OW30950   8.284   6.746   1.792 -0.7189  0.1827 -0.4003
 7007SOL    HW130951   8.205   6.707   1.754 -1.2486 -0.9665  1.7202
 7007SOL    HW230952   8.266   6.749   1.886  1.3795  0.8350  0.0241
 7008SOL     OW30953   9.344   4.668  12.738  0.4012 -0.3033  0.3080
 7008SOL    HW130954   9.369   4.716  12.659 -1.3636  1.2695  0.6398
 7008SOL    HW230955   9.409   4.695  12.803 -0.7603  2.0749  0.5907
 7009SOL     OW30956   1.067   6.488  13.130 -0.0336  0.0034  0.3946
 7009SOL    HW130957   1.141   6.431  13.108 -1.5777 -1.5522 -1.0243
 7009SOL    HW230958   1.067   6.554  13.060 -0.5304 -0.5688 -0.1593
 7010SOL     OW30959   4.283   6.903   5.236 -0.0094  0.6061  0.6730
 7010SOL    HW130960   4.221   6.966   5.272 -1.3637  0.3421 -1.0343
 7010SOL    HW230961   4.358   6.955   5.208 -0.2183  1.1701  1.1503
 7011SOL     OW30962   4.938   1.892   9.383 -0.2218 -0.2835 -0.0639
 7011SOL    HW130963   4.953   1.906   9.476 -1.2644  0.1444  0.0522
 7011SOL    HW230964   4.868   1.953   9.360  0.3495 -0.0322 -1.2399
 7012SOL     OW30965  10.644   2.499   3.019 -0.0796 -0.5485  0.2137
 7012SOL    HW130966  10.676   2.410   3.035  0.2752 -1.1299 -3.0945
 7012SOL    HW230967  10.574   2.488   2.955  0.0155  1.5520 -0.2983
 7013SOL     OW30968  10.938   4.426   1.694 -0.1195 -0.2892  0.2243
 7013SOL    HW130969  10.911   4.335   1.690 -0.9743 -0.0502  0.2433
 7013SOL    HW230970  10.906   4.465   1.612 -1.2624  0.3619  0.9448
 7014SOL     OW30971   6.145  12.335  11.094  0.3001 -0.3313  0.3448
 7014SOL    HW130972   6.076  12.342  11.159 -0.3401 -0.0652 -0.3574
 7014SOL    HW230973   6.213  12.395  11.124 -0.2181  0.1839  0.4878
 7015SOL     OW30974   1.701   4.710  11.395 -0.0985  0.5350  0.5062
 7015SOL    HW130975   1.613   4.735  11.366 -1.1096 -3.1156 -0.1876
 7015SOL    HW230976   1.739   4.666  11.319  1.4501  0.1037  1.4977
 7016SOL     OW30977   6.120   2.651   6.640  0.0868  0.1843  0.0687
 7016SOL    HW130978   6.170   2.627   6.719  1.0084 -1.9103 -1.0513
 7016SOL    HW230979   6.084   2.737   6.660  2.8396  1.1313  1.6075
 7017SOL     OW30980   1.752   6.994  10.241  0.6978  0.4813 -0.4176
 7017SOL    HW130981   1.666   6.972  10.206  1.5178 -1.4255 -1.4013
 7017SOL    HW230982   1.811   6.988  10.166  1.6829  2.0903  0.1564
 7018SOL     OW30983   2.537   9.603  11.375  0.1633  0.3833  0.2949
 7018SOL    HW130984   2.603   9.673  11.374  0.6422 -0.0581 -0.4034
 7018SOL    HW230985   2.469   9.635  11.435 -0.4832  2.2336 -1.3054
 7019SOL     OW30986   1.997  11.261  11.435  0.2705  0.0931  0.1237
 7019SOL    HW130987   1.944  11.339  11.449  2.1273  1.2549  0.9302
 7019SOL    HW230988   2.087  11.288  11.453  1.0817 -2.0184 -0.3928
 7020SOL     OW30989   7.591  11.612   5.278 -0.2169  0.3440  0.6601
 7020SOL    HW130990   7.510  11.582   5.320 -0.5680 -0.0385 -0.2603
 7020SOL    HW230991   7.652  11.539   5.287 -0.3867  0.1488  0.2745
 7021SOL     OW30992   8.618   9.126   4.313  0.1417  0.1473 -0.3553
 7021SOL    HW130993   8.644   9.177   4.236 -0.1981 -1.4003 -1.5546
 7021SOL    HW230994   8.601   9.191   4.381 -0.9205  1.6748 -2.0036
 7022SOL     OW30995   0.736   7.865   3.895 -0.4239 -0.3055 -0.3682
 7022SOL    HW130996   0.749   7.899   3.983  0.9349 -0.3673 -0.5223
 7022SOL    HW230997   0.759   7.938   3.837  2.9453 -1.4536 -0.7117
 7023SOL     OW30998   9.912  12.902   4.007 -0.2968  0.1222  0.7820
 7023SOL    HW130999   9.877  12.974   3.954 -2.5872 -0.4755  1.3929
 7023SOL    HW231000   9.860  12.826   3.982  1.3816 -1.1420  0.9127
 7024SOL     OW31001   7.761  10.595   6.691 -0.0602  0.9693 -0.4316
 7024SOL    HW131002   7.751  10.500   6.690 -0.2541  0.9900 -1.3834
 7024SOL    HW231003   7.856  10.609   6.684 -0.1353  0.8473 -1.9199
 7025SOL     OW31004   9.435  10.109  11.304  0.5584 -0.4493 -0.2751
 7025SOL    HW131005   9.405  10.049  11.373 -3.7421  0.0246 -1.4148
 7025SOL    HW231006   9.439  10.195  11.346  0.4002 -0.5581 -0.0382
 7026SOL     OW31007   4.358   1.868   1.302  0.4300  0.2240  0.0068
 7026SOL    HW131008   4.402   1.840   1.221  0.5476  1.8299 -0.5418
 7026SOL    HW231009   4.366   1.964   1.300 -1.4771  0.4340  0.8415
 7027SOL     OW31010   5.909   9.326   2.706  0.4527  0.3274 -0.3500
 7027SOL    HW131011   5.954   9.275   2.774  1.6551  1.7091 -0.0512
 7027SOL    HW231012   5.948   9.294   2.624  0.9858  0.5528 -0.1885
 7028SOL     OW31013   8.297   7.352   6.671  0.6889 -0.5079  0.3897
 7028SOL    HW131014   8.299   7.447   6.683  0.7146 -0.3280 -0.8886
 7028SOL    HW231015   8.389   7.326   6.674  0.6158 -0.6751  1.9067
 7029SOL     OW31016   4.191   2.301   6.530 -0.0871  0.0109 -0.3829
 7029SOL    HW131017   4.098   2.322   6.544 -0.6097 -0.3616 -2.8321
 7029SOL    HW231018   4.233   2.325   6.613 -1.9884  2.3749  0.0401
 7030SOL     OW31019   1.204  13.237   7.165 -0.0549  0.0867 -0.1277
 7030SOL    HW131020   1.144  13.222   7.238  0.3667  0.2772  0.2721
 7030SOL    HW231021   1.236  13.326   7.179  1.6108 -0.5789  0.6664
 7031SOL     OW31022  11.234   0.754   1.524  0.4428  0.6336 -0.1899
 7031SOL    HW131023  11.275   0.775   1.608 -1.2857 -0.5960  1.0306
 7031SOL    HW231024  11.241   0.659   1.518  0.7700  0.7341 -1.5814
 7032SOL     OW31025   5.284   3.077   9.414 -0.4118  0.7442  0.1238
 7032SOL    HW131026   5.356   3.018   9.438 -1.2437 -0.5796 -0.4824
 7032SOL    HW231027   5.224   3.073   9.488 -1.7015 -1.2574 -0.9339
 7033SOL     OW31028  12.962   4.271  12.642 -0.4327  0.1142  0.0825
 7033SOL    HW131029  12.912   4.295  12.564 -3.4741 -0.0587  1.8114
 7033SOL    HW231030  12.917   4.194  12.677  1.9616 -0.9466  1.0712
 7034SOL     OW31031   8.741   1.417  10.434  0.6708 -0.9256  0.0794
 7034SOL    HW131032   8.682   1.490  10.418  0.6275 -0.8663  0.5084
 7034SOL    HW231033   8.803   1.450  10.498  1.0587 -1.0494 -0.2274
 7035SOL     OW31034   5.043  13.042   5.807 -0.4409 -0.2568 -0.8861
 7035SOL    HW131035   5.089  13.110   5.759  1.7886  0.9701  2.6110
 7035SOL    HW231036   4.966  13.085   5.843 -1.3145 -0.7903 -2.0374
 7036SOL     OW31037   3.513   1.501   7.424 -0.2551 -0.1352  0.0207
 7036SOL    HW131038   3.567   1.515   7.501 -0.0418  0.2930 -0.1971
 7036SOL    HW231039   3.429   1.543   7.446 -0.7203 -1.3348  0.5935
 7037SOL     OW31040   6.444   8.995   0.666  0.3279 -0.1154 -0.3573
 7037SOL    HW131041   6.490   8.911   0.657  3.2607  1.2047  0.9188
 7037SOL    HW231042   6.404   9.010   0.580  0.8643 -2.1944 -1.0262
 7038SOL     OW31043   6.641  10.371   7.656  0.2261 -0.2108 -0.3262
 7038SOL    HW131044   6.550  10.397   7.673  0.3136 -0.4730  0.5925
 7038SOL    HW231045   6.650  10.286   7.700  0.0059 -1.7547 -3.0809
 7039SOL     OW31046   1.605   2.523   2.718  0.3285  0.1965  0.4215
 7039SOL    HW131047   1.571   2.445   2.674  0.2522  0.4698 -0.0175
 7039SOL    HW231048   1.593   2.505   2.811  1.5562 -0.8746  0.3992
 7040SOL     OW31049  12.267   1.804   9.830 -0.7571  1.0186 -0.3518
 7040SOL    HW131050  12.206   1.766   9.892 -0.6801  1.4646  0.0021
 7040SOL    HW231051  12.349   1.814   9.879  0.1540 -1.1841 -1.2964
 7041SOL     OW31052   0.640   6.098  10.978  0.1388 -0.1854  0.3528
 7041SOL    HW131053   0.708   6.055  11.030  1.2973  0.7795 -0.3362
 7041SOL    HW231054   0.632   6.185  11.016  0.7233  0.3972 -0.8202
 7042SOL     OW31055   4.017  10.832   5.753 -0.1723 -0.1197 -0.1585
 7042SOL    HW131056   4.068  10.909   5.778 -0.1916 -0.5762  1.3582
 7042SOL    HW231057   4.074  10.783   5.694  1.8796 -1.4198  2.6720
 7043SOL     OW31058   3.461   5.278   8.542  0.3582  0.1808 -0.0176
 7043SOL    HW131059   3.393   5.218   8.574  0.7577  0.0893  0.6870
 7043SOL    HW231060   3.453   5.274   8.447 -0.1609 -0.3703  0.0383
 7044SOL     OW31061   3.409   3.756  11.198 -0.0020 -0.0038 -0.5374
 7044SOL    HW131062   3.328   3.785  11.242  0.5159 -0.2441  0.6204
 7044SOL    HW231063   3.465   3.726  11.270  2.2965  2.9056 -0.9433
 7045SOL     OW31064  10.948   7.220   7.494 -0.2098 -0.1127 -0.1751
 7045SOL    HW131065  11.004   7.296   7.506  1.1963 -0.8089 -1.7777
 7045SOL    HW231066  10.976   7.159   7.562 -1.1464  0.6698  0.9358
 7046SOL     OW31067  12.000   8.940   1.368 -0.5371  0.2182 -0.2167
 7046SOL    HW131068  12.055   9.018   1.364  0.5448 -0.5568 -1.4134
 7046SOL    HW231069  11.954   8.946   1.452  1.2625  0.9653  0.7578
 7047SOL     OW31070   9.290   5.111   2.800  0.1892  0.1104  0.1735
 7047SOL    HW131071   9.212   5.138   2.849 -1.0542  1.0860 -2.1776
 7047SOL    HW231072   9.306   5.184   2.740  1.4423 -1.1379 -1.0662
 7048SOL     OW31073   5.109   1.321   2.126  0.0854  0.0019  0.4105
 7048SOL    HW131074   5.190   1.371   2.133  1.3584 -1.9111 -0.2594
 7048SOL    HW231075   5.131   1.233   2.155 -1.4839 -0.8429 -0.7775
 7049SOL     OW31076  12.674   8.221  11.708  0.0423 -0.4163 -0.1613
 7049SOL    HW131077  12.657   8.251  11.618 -0.5482  0.3755  0.2023
 7049SOL    HW231078  12.616   8.274  11.762  1.2664 -0.0399  0.8210
 7050SOL     OW31079   0.006   4.340   5.350  0.0366 -0.7466  0.6350
 7050SOL    HW131080   0.094   4.357   5.384 -0.0281 -0.7640  0.8098
 7050SOL    HW231081   0.022   4.297   5.266  0.2621  3.0501 -1.4715
 7051SOL     OW31082  13.252   0.337   0.075  0.3401 -0.9160 -0.4088
 7051SOL    HW131083  13.170   0.373   0.041  0.8205  1.4104  0.6295
 7051SOL    HW231084  13.321   0.392   0.036  1.2430 -1.5040  0.2967
 7052SOL     OW31085   5.055   3.156   4.200 -0.0920 -0.2554 -0.2746
 7052SOL    HW131086   5.050   3.217   4.126  0.4340  0.5889  0.3661
 7052SOL    HW231087   5.138   3.176   4.242  0.6044 -2.1772 -0.6621
 7053SOL     OW31088   0.996   1.549   7.797 -0.3860 -0.1347 -0.1818
 7053SOL    HW131089   1.000   1.638   7.761 -1.9495 -0.1829 -0.5577
 7053SOL    HW231090   1.037   1.494   7.731 -1.0629  0.0888 -0.8004
 7054SOL     OW31091   5.487   0.055   2.481  0.7190  0.1418 -0.2176
 7054SOL    HW131092   5.450   0.057   2.570  1.6200  2.3794  0.1759
 7054SOL    HW231093   5.578   0.082   2.493  0.7992  0.6924 -1.8447
 7055SOL     OW31094   0.023   5.635   8.461 -0.6465 -0.1207 -0.6105
 7055SOL    HW131095   0.015   5.682   8.544 -0.3436 -0.7050 -0.2450
 7055SOL    HW231096  -0.008   5.697   8.395  0.1835  0.7539 -0.1962
 7056SOL     OW31097  12.846  12.324   7.434  0.1804 -0.1656  0.4947
 7056SOL    HW131098  12.820  12.247   7.484 -0.8346 -0.3167 -0.2546
 7056SOL    HW231099  12.784  12.329   7.362 -0.0744  1.6375  0.7968
 7057SOL     OW31100  10.120   5.027   9.354 -0.0022 -0.6728  0.4934
 7057SOL    HW131101  10.215   5.036   9.364 -0.0926 -0.5669  1.4019
 7057SOL    HW231102  10.095   4.961   9.419 -0.3828 -1.7590 -0.7155
 7058SOL     OW31103   9.171   7.863   5.592 -0.0649 -0.4997 -0.5974
 7058SOL    HW131104   9.137   7.944   5.553  1.8421  0.0139 -1.3331
 7058SOL    HW231105   9.198   7.889   5.680 -0.1995 -0.5423 -0.5433
 7059SOL     OW31106   0.651   0.108   2.656 -0.2461  0.2352 -0.2306
 7059SOL    HW131107   0.725   0.158   2.623 -0.0559 -0.0127 -0.1803
 7059SOL    HW231108   0.587   0.109   2.584  0.0311 -0.0180 -0.4837
 7060SOL     OW31109   5.186  10.173  11.852  0.2177  0.1400  0.2577
 7060SOL    HW131110   5.142  10.128  11.781  1.9408  1.1988 -1.5859
 7060SOL    HW231111   5.279  10.153  11.839  0.6334  0.8419  1.8797
 7061SOL     OW31112   6.578   7.251   0.433 -0.6640  0.0770  0.0811
 7061SOL    HW131113   6.666   7.220   0.454 -1.0506 -0.2811  1.2223
 7061SOL    HW231114   6.576   7.340   0.469 -1.7129 -0.9407  2.7866
 7062SOL     OW31115   4.019  11.420  10.717  0.0140  0.1883  0.7840
 7062SOL    HW131116   4.015  11.514  10.704  0.8416  0.0377 -0.7145
 7062SOL    HW231117   3.930  11.395  10.743 -0.9311  1.0354 -1.4088
 7063SOL     OW31118  13.058   5.009   3.244  0.1062  0.0825 -0.5573
 7063SOL    HW131119  13.080   4.953   3.319  0.8593  1.2427  0.1196
 7063SOL    HW231120  13.006   5.080   3.282 -0.4617  0.1020 -1.3385
 7064SOL     OW31121  10.950   9.439   0.273 -0.1246  0.2472  0.1207
 7064SOL    HW131122  10.871   9.391   0.250  0.0294 -0.7719  1.5488
 7064SOL    HW231123  10.918   9.515   0.322 -0.2454  0.0496  0.3518
 7065SOL     OW31124  10.100   3.089   8.506  0.0796  0.3877 -0.0633
 7065SOL    HW131125  10.151   3.120   8.581  1.1302  3.8223 -1.9660
 7065SOL    HW231126  10.025   3.148   8.501 -0.0460  0.1569 -1.5909
 7066SOL     OW31127  10.824   3.367   9.779 -0.2044  1.1170 -0.5387
 7066SOL    HW131128  10.804   3.361   9.685 -2.1631  2.1417 -0.2381
 7066SOL    HW231129  10.772   3.297   9.819 -2.6935  3.1956  0.1528
 7067SOL     OW31130   5.799   8.886   1.808 -0.1276  0.0844  0.3592
 7067SOL    HW131131   5.724   8.944   1.796  0.8414  1.7598  1.8764
 7067SOL    HW231132   5.763   8.807   1.848 -1.4894 -0.4704 -1.8075
 7068SOL     OW31133   1.673  10.204   4.429 -0.3877 -0.0263 -0.2478
 7068SOL    HW131134   1.673  10.222   4.523  0.2432  0.0992 -0.2651
 7068SOL    HW231135   1.633  10.282   4.390  0.9643  0.7308 -0.2057
 7069SOL     OW31136   4.744   8.038   0.848 -0.4000  0.1180  0.6321
 7069SOL    HW131137   4.674   8.098   0.822  1.8915  1.1741 -4.1307
 7069SOL    HW231138   4.814   8.094   0.881 -0.1353 -0.4664  1.0862
 7070SOL     OW31139  13.222   0.177   3.891 -0.0683 -0.0616  0.1972
 7070SOL    HW131140  13.285   0.239   3.854  0.7662 -0.5320  0.7746
 7070SOL    HW231141  13.270   0.135   3.963 -1.3751  0.2802  1.3174
 7071SOL     OW31142  12.804   6.313   0.334  0.2196  0.2377  0.4890
 7071SOL    HW131143  12.866   6.240   0.334  0.1509  0.1414  2.2323
 7071SOL    HW231144  12.770   6.316   0.245  0.2809 -1.8047  0.3529
 7072SOL     OW31145   0.517   4.634  11.304  0.1796 -0.0976 -0.0102
 7072SOL    HW131146   0.524   4.687  11.384  1.4786  0.8202 -0.6977
 7072SOL    HW231147   0.575   4.560  11.320 -1.0362 -0.9405  0.6383
 7073SOL     OW31148   1.250  11.785   7.537 -0.2888  0.0745 -0.2169
 7073SOL    HW131149   1.331  11.737   7.517 -0.1115 -0.3743  1.4198
 7073SOL    HW231150   1.202  11.728   7.597 -1.5142  0.6425 -0.6247
 7074SOL     OW31151   8.123   8.976  13.313 -0.0033 -0.5624  0.0601
 7074SOL    HW131152   8.143   8.888  13.344  1.0907  0.5960  3.0404
 7074SOL    HW231153   8.204   9.007  13.274  0.8602  0.3539  2.4152
 7075SOL     OW31154  10.396   3.871   3.685  0.0672 -0.0036  0.3246
 7075SOL    HW131155  10.344   3.929   3.741 -1.0407 -0.7211  0.0674
 7075SOL    HW231156  10.372   3.782   3.714 -0.8468 -0.4142 -1.5232
 7076SOL     OW31157  13.120   1.065   0.275 -0.2526  0.1787  0.2354
 7076SOL    HW131158  13.145   1.155   0.254 -0.6749  0.3083  0.2705
 7076SOL    HW231159  13.195   1.012   0.248 -0.9132  0.2851 -2.0115
 7077SOL     OW31160   3.557   9.397  11.044  0.1874  0.4159 -0.2849
 7077SOL    HW131161   3.571   9.425  10.954  2.1815 -0.0369 -0.1471
 7077SOL    HW231162   3.514   9.312  11.036 -0.0897  0.5976 -0.7924
 7078SOL     OW31163   8.870   0.971   8.321 -0.2305  0.1924 -0.5897
 7078SOL    HW131164   8.787   0.970   8.370 -1.1190  0.7249 -2.0161
 7078SOL    HW231165   8.843   0.974   8.229  1.3906 -0.3861 -1.1163
 7079SOL     OW31166   8.333  11.323   4.829  0.3605  0.2609  0.3683
 7079SOL    HW131167   8.291  11.305   4.745  1.4111 -0.4228 -0.0385
 7079SOL    HW231168   8.421  11.355   4.806  1.5202 -2.0831  1.1442
 7080SOL     OW31169  12.323   6.705   4.479 -0.5262  0.2301 -0.4513
 7080SOL    HW131170  12.389   6.666   4.536 -0.5619 -1.0716 -1.2595
 7080SOL    HW231171  12.244   6.711   4.533 -0.5514 -0.9639 -0.3273
 7081SOL     OW31172   5.474   8.898   2.024  0.5935  0.1867  0.2833
 7081SOL    HW131173   5.516   8.982   2.005 -0.8722  1.6087  2.6909
 7081SOL    HW231174   5.541   8.847   2.070  1.4331  0.0573 -1.0281
 7082SOL     OW31175  12.897   2.216   0.480 -0.1373 -0.2695  0.6080
 7082SOL    HW131176  12.847   2.277   0.427 -2.0294 -1.5762  0.7767
 7082SOL    HW231177  12.941   2.159   0.417  1.6069  1.1823  0.4527
 7083SOL     OW31178   8.256  12.115   7.139 -0.3222  0.1583  0.5731
 7083SOL    HW131179   8.311  12.084   7.211 -1.1073  1.6452  1.8784
 7083SOL    HW231180   8.317  12.158   7.079  0.3722 -1.2811  0.2089
 7084SOL     OW31181   0.737   1.174   0.247 -0.1400  0.1102 -0.3183
 7084SOL    HW131182   0.646   1.144   0.250 -0.2578  0.0169 -2.9370
 7084SOL    HW231183   0.783   1.116   0.308 -1.5061 -1.1068 -0.4014
 7085SOL     OW31184  11.438   6.524   1.645 -0.5068  0.1687 -0.1673
 7085SOL    HW131185  11.489   6.445   1.662 -0.1005  0.7849  1.6920
 7085SOL    HW231186  11.391   6.504   1.564  0.2578 -1.6250 -0.2362
 7086SOL     OW31187   8.355  11.316   3.978  0.1129  0.1739  0.2026
 7086SOL    HW131188   8.273  11.328   4.026  0.6302  1.6912  0.7583
 7086SOL    HW231189   8.393  11.404   3.972  0.3571 -0.0107 -2.5039
 7087SOL     OW31190   3.137   7.044   1.457 -0.0640  0.0041  0.3900
 7087SOL    HW131191   3.052   7.087   1.444  0.3550  0.5972 -0.3793
 7087SOL    HW231192   3.137   6.971   1.395 -0.1997 -0.2918  0.7293
 7088SOL     OW31193   8.139   5.145  13.083  0.0089 -0.2331  0.5276
 7088SOL    HW131194   8.183   5.071  13.125 -0.2952 -0.9986 -0.4514
 7088SOL    HW231195   8.139   5.123  12.990 -1.3897  0.2975  0.3782
 7089SOL     OW31196   9.314   4.704   7.416 -0.4832 -0.2667  0.2954
 7089SOL    HW131197   9.373   4.642   7.459 -1.2633 -0.1761  1.5456
 7089SOL    HW231198   9.258   4.737   7.487 -1.8941 -0.1955 -0.8128
 7090SOL     OW31199  12.934   1.868   7.955  0.6065 -0.2108  0.0984
 7090SOL    HW131200  12.927   1.868   8.051 -1.0621  1.7508  0.0478
 7090SOL    HW231201  13.021   1.904   7.938 -0.3698  2.8910  0.9644
 7091SOL     OW31202  10.182   0.025   2.713  0.8692 -0.1563 -0.4681
 7091SOL    HW131203  10.173   0.007   2.620 -1.7456 -0.5184 -0.2094
 7091SOL    HW231204  10.242  -0.043   2.745  0.5810 -0.9747 -1.6145
 7092SOL     OW31205   4.183   8.605   7.410  0.3345  0.1886  0.0236
 7092SOL    HW131206   4.101   8.590   7.363  0.9913 -0.4139 -0.9541
 7092SOL    HW231207   4.205   8.520   7.449  0.2184  0.4863  0.7714
 7093SOL     OW31208   2.666   8.631   6.398 -0.0965 -0.1932 -0.6530
 7093SOL    HW131209   2.630   8.686   6.329  0.2899  2.7424  1.3038
 7093SOL    HW231210   2.761   8.631   6.382 -0.1676 -1.1921 -1.1930
 7094SOL     OW31211   5.380   2.047   3.748 -0.2763  0.3898 -0.2759
 7094SOL    HW131212   5.426   1.998   3.680 -0.6104  0.8242 -0.8201
 7094SOL    HW231213   5.424   2.021   3.830 -0.0767 -0.3712 -0.6143
 7095SOL     OW31214   0.198   4.307  10.416  0.6015 -0.2892 -0.0597
 7095SOL    HW131215   0.252   4.385  10.423  0.0517  0.1006 -0.0206
 7095SOL    HW231216   0.194   4.272  10.505  0.9144 -0.4050 -0.0920
 7096SOL     OW31217  11.883   7.259   7.909  0.0696 -0.5410  0.7489
 7096SOL    HW131218  11.862   7.179   7.957  0.0826 -0.8024  0.3186
 7096SOL    HW231219  11.864   7.329   7.971  1.3699 -0.9267  1.6101
 7097SOL     OW31220   9.649   2.893   4.878 -0.6051 -0.6096  0.4348
 7097SOL    HW131221   9.641   2.859   4.789 -0.2890  1.3757 -0.4178
 7097SOL    HW231222   9.733   2.862   4.909 -0.2281 -0.4339 -0.3895
 7098SOL     OW31223   7.663  10.751  10.015 -0.0987 -0.6184 -0.3813
 7098SOL    HW131224   7.697  10.741  10.104 -1.8897 -0.8654  0.3267
 7098SOL    HW231225   7.568  10.760  10.027 -0.4924 -1.6466 -2.3218
 7099SOL     OW31226  10.083  11.506  10.212 -0.1884 -0.2681 -0.0956
 7099SOL    HW131227  10.101  11.599  10.197  0.0196 -0.5348 -1.6850
 7099SOL    HW231228  10.014  11.506  10.278 -0.4970  1.0321 -0.3814
 7100SOL     OW31229   0.705  12.492  11.387  0.2758 -0.3126 -0.1212
 7100SOL    HW131230   0.787  12.495  11.336  0.2363 -2.1542 -0.3683
 7100SOL    HW231231   0.656  12.420  11.348 -1.2196  0.3687  0.4339
 7101SOL     OW31232   1.156  12.940   6.075  1.2222  0.1120 -0.0694
 7101SOL    HW131233   1.167  12.939   5.980  0.6705 -0.9239 -0.1325
 7101SOL    HW231234   1.085  12.879   6.092  3.1538 -1.9553  1.2302
 7102SOL     OW31235   5.708   3.389   1.483  0.7070  0.0041 -0.3908
 7102SOL    HW131236   5.765   3.415   1.411 -0.6187  0.8335 -1.1877
 7102SOL    HW231237   5.704   3.467   1.539 -0.0469  0.1383 -0.6250
 7103SOL     OW31238   6.399   1.168   0.472 -0.1185  0.5885  0.0285
 7103SOL    HW131239   6.401   1.094   0.533 -0.7342  0.2983 -0.2891
 7103SOL    HW231240   6.374   1.128   0.388  2.6245  0.6384 -0.9154
 7104SOL     OW31241   8.941   7.162   9.537  0.0817  0.5263 -0.7338
 7104SOL    HW131242   8.874   7.104   9.575 -0.8960  1.7792 -0.4578
 7104SOL    HW231243   8.900   7.197   9.458  0.2100  1.6630 -0.3153
 7105SOL     OW31244   6.630   5.489   6.605  0.3418 -0.2954  0.1336
 7105SOL    HW131245   6.644   5.584   6.615  1.9206 -0.4111 -0.7557
 7105SOL    HW231246   6.578   5.465   6.682 -0.2297  1.3172  0.2954
 7106SOL     OW31247   0.514   3.386  12.229  0.0072 -0.6706  0.0012
 7106SOL    HW131248   0.539   3.431  12.310 -1.2696 -1.2611  0.7500
 7106SOL    HW231249   0.574   3.421  12.163  0.6804  0.2697  1.0703
 7107SOL     OW31250   9.679  12.535  12.176  0.2040 -0.0430  0.5645
 7107SOL    HW131251   9.634  12.567  12.254 -1.3882 -2.7506  0.9118
 7107SOL    HW231252   9.630  12.571  12.103 -1.3614 -1.3264  0.9287
 7108SOL     OW31253  10.004   4.264  12.756  0.1806 -0.1919 -0.1352
 7108SOL    HW131254   9.943   4.196  12.786  0.1948 -0.4975 -0.7670
 7108SOL    HW231255   9.949   4.330  12.714  0.0781  0.6563  1.2866
 7109SOL     OW31256   9.600  10.738   5.558 -0.0099  0.1348  0.6871
 7109SOL    HW131257   9.654  10.781   5.492 -0.6996  1.4004  0.9042
 7109SOL    HW231258   9.575  10.655   5.518 -1.2392  1.2857 -1.1258
 7110SOL     OW31259   1.409   0.710  12.680 -0.3221  0.7909  0.0321
 7110SOL    HW131260   1.422   0.641  12.615  0.1899  1.1364 -0.2382
 7110SOL    HW231261   1.368   0.665  12.754  0.0459  0.1782 -0.1211
 7111SOL     OW31262   2.379  10.511  10.463 -0.3968 -0.3784 -0.1971
 7111SOL    HW131263   2.375  10.434  10.520  0.1083 -1.6568 -1.7994
 7111SOL    HW231264   2.464  10.504  10.419 -0.6781  0.6843 -0.9398
 7112SOL     OW31265  11.136   7.395   8.385 -0.1026  0.0915  0.2220
 7112SOL    HW131266  11.129   7.479   8.429  2.9093  0.1308  0.8402
 7112SOL    HW231267  11.176   7.337   8.450 -0.5134 -1.3403 -0.7533
 7113SOL     OW31268  11.683  10.887   3.596  0.0824 -0.3265 -0.1614
 7113SOL    HW131269  11.678  10.959   3.659  0.0970 -1.4794  1.2158
 7113SOL    HW231270  11.737  10.821   3.640  1.1902 -0.6605 -1.9405
 7114SOL     OW31271   1.554   7.337   6.648  0.2307  0.1900 -0.0852
 7114SOL    HW131272   1.583   7.249   6.624 -0.3187 -1.1681  3.5765
 7114SOL    HW231273   1.510   7.370   6.570  0.0709 -2.9479 -1.4734
 7115SOL     OW31274   7.786  12.895   8.561  0.0680  0.4720 -0.4528
 7115SOL    HW131275   7.736  12.873   8.483  1.0838  0.5040 -1.1211
 7115SOL    HW231276   7.737  12.967   8.601 -0.5943  0.2868 -0.9163
 7116SOL     OW31277   6.616  11.957   3.020 -0.8785  0.2611 -0.4779
 7116SOL    HW131278   6.520  11.958   3.022 -0.8731 -0.1531  1.4805
 7116SOL    HW231279   6.638  11.864   3.027 -0.2953  0.1799 -2.5985
 7117SOL     OW31280   6.582   3.202   3.836 -0.1610  0.5779  0.4439
 7117SOL    HW131281   6.624   3.127   3.878  0.8166  1.6542  1.4538
 7117SOL    HW231282   6.489   3.179   3.834  0.3126 -1.6010 -1.3120
 7118SOL     OW31283   6.135   1.209   5.472 -0.2994 -0.0595 -0.4126
 7118SOL    HW131284   6.152   1.299   5.444 -0.8800  0.4338  0.7337
 7118SOL    HW231285   6.178   1.155   5.407  1.9092  1.0669  0.0178
 7119SOL     OW31286  12.006   8.846   5.616  0.0102  0.3099  0.4816
 7119SOL    HW131287  12.056   8.872   5.693  0.0068  0.5768  0.3952
 7119SOL    HW231288  12.057   8.878   5.542 -0.0955  0.2450  0.3798
 7120SOL     OW31289   6.843   6.245   1.528  0.3627 -0.3242  0.4901
 7120SOL    HW131290   6.798   6.322   1.565  0.3803  1.8135 -3.4184
 7120SOL    HW231291   6.935   6.258   1.551 -0.0173 -0.9801  2.5689
 7121SOL     OW31292   9.865  11.568   0.122 -0.4894  0.2296  0.0421
 7121SOL    HW131293   9.912  11.634   0.174 -0.8086 -0.9288  1.8920
 7121SOL    HW231294   9.791  11.616   0.084 -1.0662  0.8623  1.8415
 7122SOL     OW31295   6.747  12.284   9.743 -0.7487  0.1219 -0.2890
 7122SOL    HW131296   6.751  12.320   9.655 -0.5616 -0.8509 -0.6805
 7122SOL    HW231297   6.773  12.357   9.799 -0.8096  0.7298 -1.0356
 7123SOL     OW31298   7.829   2.975  12.629 -0.6507  0.8586  0.1894
 7123SOL    HW131299   7.858   3.048  12.684  1.7768  0.0302  0.1580
 7123SOL    HW231300   7.871   2.898  12.669 -0.4236 -0.0269 -1.6751
 7124SOL     OW31301   3.637   2.396  11.677  0.1903 -0.2346  0.5618
 7124SOL    HW131302   3.582   2.427  11.749  1.8332 -0.5468  2.0009
 7124SOL    HW231303   3.575   2.377  11.606 -1.4321  0.4519  1.7419
 7125SOL     OW31304   7.714   5.224   9.664 -0.2873 -0.1257 -0.2407
 7125SOL    HW131305   7.780   5.262   9.722 -1.4457  2.3975 -0.4338
 7125SOL    HW231306   7.763   5.197   9.586  0.8204 -0.4267  0.5440
 7126SOL     OW31307   3.996   8.697   1.539 -0.1978  0.1993 -0.5429
 7126SOL    HW131308   4.039   8.774   1.576  2.4795 -0.8424 -1.2803
 7126SOL    HW231309   3.904   8.723   1.528  0.3579  2.8010  0.4330
 7127SOL     OW31310   2.866   3.893   9.190 -0.4316 -0.2804 -0.3777
 7127SOL    HW131311   2.891   3.842   9.113  1.0646 -1.1149  0.6079
 7127SOL    HW231312   2.779   3.860   9.213 -0.7368 -0.2855 -1.4674
 7128SOL     OW31313  11.388   7.894   2.799  0.3522 -0.1463  0.4529
 7128SOL    HW131314  11.388   7.799   2.811 -0.4268 -0.1509  0.4639
 7128SOL    HW231315  11.384   7.906   2.704  1.9390 -0.1129  0.3676
 7129SOL     OW31316   4.654   9.913  11.117 -0.1782 -0.8813 -0.0878
 7129SOL    HW131317   4.642  10.007  11.129 -0.2675 -0.7754 -0.9473
 7129SOL    HW231318   4.588   9.873  11.174 -1.2029 -0.3929 -0.9087
 7130SOL     OW31319   4.541   6.979  13.238 -0.3053  0.2216 -0.1890
 7130SOL    HW131320   4.599   7.055  13.242  0.8037 -0.6648  3.0189
 7130SOL    HW231321   4.600   6.903  13.239 -1.4143 -0.6859  1.4218
 7131SOL     OW31322   3.002   0.789   1.271 -0.2178  0.3184 -0.5136
 7131SOL    HW131323   3.020   0.751   1.357 -0.5912  0.8050 -0.2179
 7131SOL    HW231324   2.991   0.882   1.287  0.5251  0.5391 -1.2181
 7132SOL     OW31325   4.234  12.541   3.769 -0.2402 -0.8055 -0.2225
 7132SOL    HW131326   4.208  12.632   3.787  0.2417 -0.4354 -1.3427
 7132SOL    HW231327   4.329  12.541   3.779  0.0413 -0.6201 -2.4685
 7133SOL     OW31328  11.169   8.325   6.305  0.4487  0.1969 -0.1972
 7133SOL    HW131329  11.192   8.327   6.398 -3.5365 -2.2531  1.0803
 7133SOL    HW231330  11.117   8.404   6.291  0.9515  0.5057 -0.3845
 7134SOL     OW31331   4.636  11.422   7.675  0.4374  0.0757 -0.7394
 7134SOL    HW131332   4.602  11.408   7.587 -1.8270  3.0985 -0.4864
 7134SOL    HW231333   4.688  11.502   7.669 -0.4439  0.8170  0.7866
 7135SOL     OW31334  11.837   3.305   7.450 -0.1730 -0.1019 -0.0328
 7135SOL    HW131335  11.855   3.214   7.425 -0.6770 -1.0305  2.6196
 7135SOL    HW231336  11.918   3.352   7.432  0.1828 -1.0978 -1.2123
 7136SOL     OW31337  13.153   2.589  12.005  0.5495  0.4088  0.6245
 7136SOL    HW131338  13.127   2.675  12.039 -0.1491  0.4925 -0.0855
 7136SOL    HW231339  13.191   2.607  11.920 -0.5703 -0.0703  0.0030
 7137SOL     OW31340   3.716   5.939   6.080 -0.5029  0.2649 -0.2218
 7137SOL    HW131341   3.787   5.876   6.074 -0.3758  0.5135 -1.7935
 7137SOL    HW231342   3.704   5.954   6.174 -0.0971 -1.5691  0.1527
 7138SOL     OW31343  11.013   6.772   7.967 -0.6500 -0.1834 -0.5423
 7138SOL    HW131344  10.989   6.735   7.883  0.5061  1.9156 -1.8802
 7138SOL    HW231345  10.929   6.786   8.012 -1.6894  2.4219 -3.0475
 7139SOL     OW31346   7.827   0.443   7.290  0.4606  0.7447  0.1160
 7139SOL    HW131347   7.847   0.440   7.196  0.7500 -0.2122  0.2026
 7139SOL    HW231348   7.772   0.521   7.300  0.7614  1.0830 -0.7821
 7140SOL     OW31349   2.733   5.395   8.984  0.5778  0.2645  0.8024
 7140SOL    HW131350   2.655   5.447   9.005  0.1817  0.3003 -0.6399
 7140SOL    HW231351   2.700   5.306   8.972  1.0264 -0.0489  1.7654
 7141SOL     OW31352   9.379  11.749   6.984 -0.5304 -0.2172 -0.2740
 7141SOL    HW131353   9.455  11.746   7.041 -0.1534  0.5918 -0.7069
 7141SOL    HW231354   9.351  11.658   6.975 -0.2424 -0.4138  0.7113
 7142SOL     OW31355   7.799   1.772   2.601 -0.5288  0.1223 -0.0052
 7142SOL    HW131356   7.727   1.718   2.633 -0.0423  0.6548  2.1240
 7142SOL    HW231357   7.796   1.761   2.506 -2.4430 -1.0719  0.1321
 7143SOL     OW31358   9.542   9.814   0.217  0.0228  0.3557  0.0852
 7143SOL    HW131359   9.454   9.791   0.245  0.6678  0.0291  1.9813
 7143SOL    HW231360   9.529   9.868   0.138 -1.7362 -1.4606 -0.9388
 7144SOL     OW31361  12.941   4.756   5.040 -0.6734  0.3354  0.2412
 7144SOL    HW131362  12.913   4.711   5.119  0.0491  0.8421  0.7961
 7144SOL    HW231363  12.914   4.847   5.052 -2.6031  0.0012 -1.1038
 7145SOL     OW31364   9.927   1.563   9.698 -0.0199 -0.0614 -0.1752
 7145SOL    HW131365   9.984   1.541   9.624 -0.2737 -0.2325 -0.3214
 7145SOL    HW231366   9.950   1.653   9.720  0.4467 -0.1956 -0.1024
 7146SOL     OW31367  12.829   4.756  11.715  0.3944 -0.1867 -0.1424
 7146SOL    HW131368  12.826   4.833  11.657 -0.1242  2.0740  2.6248
 7146SOL    HW231369  12.740   4.721  11.713  0.4491 -0.3103 -0.8674
 7147SOL     OW31370   7.465   8.508   8.992 -0.2601 -0.1245 -0.2792
 7147SOL    HW131371   7.390   8.562   9.019 -0.4785  1.4037 -3.4406
 7147SOL    HW231372   7.542   8.563   9.011 -0.1434 -0.4229  0.1470
 7148SOL     OW31373  11.461   3.733   4.345  0.0769 -0.6493  0.2925
 7148SOL    HW131374  11.367   3.745   4.327 -0.5923 -1.6999  2.7571
 7148SOL    HW231375  11.487   3.812   4.392  0.9181  0.4270 -1.8571
 7149SOL     OW31376   5.915  12.748   8.841 -0.1860 -0.0518  0.0017
 7149SOL    HW131377   5.940  12.666   8.799 -0.2085  1.1790 -2.6154
 7149SOL    HW231378   5.831  12.770   8.801 -0.4855  0.9506  1.1262
 7150SOL     OW31379   6.540   9.756   6.014 -0.4242 -0.3022 -0.5937
 7150SOL    HW131380   6.496   9.841   6.022 -0.3623 -0.0835 -2.2300
 7150SOL    HW231381   6.471   9.696   5.984 -0.7139 -1.1014  1.5473
 7151SOL     OW31382   8.274  12.511  11.165 -0.4204  0.3101  0.2097
 7151SOL    HW131383   8.324  12.492  11.245 -0.1293  1.2357  0.2678
 7151SOL    HW231384   8.269  12.428  11.119 -1.6179 -0.5220  1.7589
 7152SOL     OW31385   6.632   5.518   2.480  0.0678  0.1417 -0.0293
 7152SOL    HW131386   6.660   5.485   2.566 -0.1167 -0.1783 -0.0918
 7152SOL    HW231387   6.537   5.517   2.483  0.0603  0.4737 -0.1090
 7153SOL     OW31388   6.696   4.236   4.565 -0.1934  0.1078 -0.5811
 7153SOL    HW131389   6.658   4.223   4.652  1.0523  2.3274  0.3932
 7153SOL    HW231390   6.696   4.149   4.525 -1.3630 -0.8666  1.3993
 7154SOL     OW31391   0.705   7.938   3.475  0.5464 -0.0341  0.3776
 7154SOL    HW131392   0.774   7.932   3.409 -0.1836 -0.7858 -0.3408
 7154SOL    HW231393   0.713   7.857   3.526 -1.2768 -1.3298 -1.2387
 7155SOL     OW31394   6.846  11.666   4.167  0.0149  0.3459  0.2053
 7155SOL    HW131395   6.867  11.600   4.102  0.1873 -0.6563  1.2420
 7155SOL    HW231396   6.894  11.744   4.139 -0.2160  0.0545 -1.0540
 7156SOL     OW31397   3.880   4.457   4.611 -0.2834  0.0005  0.2460
 7156SOL    HW131398   3.929   4.412   4.680 -1.1311 -2.0918 -0.4413
 7156SOL    HW231399   3.941   4.462   4.537  0.4388  1.7480  0.9061
 7157SOL     OW31400  10.101   7.839  12.662  0.5468 -0.1892  0.2282
 7157SOL    HW131401  10.047   7.762  12.639  1.1013 -0.3894 -0.4395
 7157SOL    HW231402  10.139   7.867  12.578  0.3473  0.8238  0.4678
 7158SOL     OW31403  12.720   1.048   9.586 -0.6884  0.3104  0.4749
 7158SOL    HW131404  12.755   1.112   9.523 -1.0621 -1.1889 -1.3550
 7158SOL    HW231405  12.796   1.021   9.638  0.5817 -1.3824 -2.0643
 7159SOL     OW31406   1.143   9.941   1.337 -0.3665  0.1394  0.4013
 7159SOL    HW131407   1.131  10.035   1.327  3.1557  0.6759  0.1252
 7159SOL    HW231408   1.167   9.929   1.429 -2.6027 -0.8289  0.9371
 7160SOL     OW31409   9.845  12.892   9.829  0.1349  0.3503  0.0473
 7160SOL    HW131410   9.940  12.879   9.828 -0.1000 -1.7808  0.8910
 7160SOL    HW231411   9.829  12.957   9.760  2.0298 -0.5719 -1.3491
 7161SOL     OW31412  12.814   3.015  12.981 -0.1609  0.1830  0.1258
 7161SOL    HW131413  12.857   3.014  13.067 -1.2904  0.1137  0.7138
 7161SOL    HW231414  12.731   2.970  12.996  0.6399 -2.0620 -1.5620
 7162SOL     OW31415   3.665   7.289  11.937 -0.5286  0.5843 -0.2226
 7162SOL    HW131416   3.637   7.213  11.989 -1.7567  0.4980 -0.9653
 7162SOL    HW231417   3.741   7.323  11.984 -0.3748 -0.6860  0.5109
 7163SOL     OW31418   7.307   5.671   2.335  1.0541  0.1509  0.1302
 7163SOL    HW131419   7.219   5.635   2.323  0.5258  1.4186  0.1007
 7163SOL    HW231420   7.365   5.603   2.301 -0.0274  0.3365 -2.3003
 7164SOL     OW31421  11.930   9.607  10.527  0.6651 -0.3326 -0.0450
 7164SOL    HW131422  11.909   9.669  10.457  0.3188 -0.9783 -0.5354
 7164SOL    HW231423  12.012   9.639  10.564  0.1412  0.7930  0.1709
 7165SOL     OW31424  11.433   3.831   8.213 -0.1067  0.0348  0.0992
 7165SOL    HW131425  11.389   3.909   8.247  0.6393  0.5521 -0.1177
 7165SOL    HW231426  11.364   3.784   8.166 -0.4102  0.9079 -0.3575
 7166SOL     OW31427   6.222   4.859   2.881  0.1984  0.0666  0.1866
 7166SOL    HW131428   6.243   4.782   2.935 -1.5636  0.0613  0.9261
 7166SOL    HW231429   6.243   4.934   2.938  1.5207  0.1660 -0.3851
 7167SOL     OW31430   2.542  11.368  10.398 -0.2443 -0.2135 -0.2470
 7167SOL    HW131431   2.547  11.325  10.484 -2.0382  0.1470  0.0791
 7167SOL    HW231432   2.618  11.427  10.397  1.1563 -1.9118  0.0809
 7168SOL     OW31433   6.639  12.495   8.881 -0.2521 -0.1293  0.0244
 7168SOL    HW131434   6.580  12.482   8.955 -0.0068  1.3489  0.5071
 7168SOL    HW231435   6.588  12.465   8.805 -1.1211 -0.1255  0.5877
 7169SOL     OW31436   6.384   8.335  10.430  0.3231  0.0769  0.0473
 7169SOL    HW131437   6.300   8.302  10.462 -1.6506  4.1049 -0.3335
 7169SOL    HW231438   6.404   8.410  10.486  1.5396  1.6559 -2.2859
 7170SOL     OW31439   0.886   6.755  11.186  0.1720 -0.0543  0.1445
 7170SOL    HW131440   0.969   6.733  11.144 -0.0324  1.7574 -1.3611
 7170SOL    HW231441   0.823   6.760  11.114 -1.2726 -1.4077  1.2603
 7171SOL     OW31442  12.907   2.493  12.691 -0.1887 -0.3979  0.3294
 7171SOL    HW131443  12.910   2.517  12.784  0.3477  3.1678 -0.4517
 7171SOL    HW231444  12.867   2.569  12.648 -0.0551 -1.7654 -2.4160
 7172SOL     OW31445   9.238   0.069  10.346  0.6605 -1.0339  0.2573
 7172SOL    HW131446   9.165   0.045  10.289  0.2292 -0.4389  0.5631
 7172SOL    HW231447   9.232   0.008  10.420  0.5387 -1.0496  0.2338
 7173SOL     OW31448  12.707   3.538   1.837  0.1058  0.4152 -0.3270
 7173SOL    HW131449  12.767   3.487   1.891  2.9576  1.8573 -1.8985
 7173SOL    HW231450  12.739   3.526   1.748 -1.1875  2.2267 -1.0919
 7174SOL     OW31451  11.077   5.829  10.377 -0.2323  0.6594  0.1820
 7174SOL    HW131452  11.137   5.856  10.446 -1.8530  2.0779  1.1191
 7174SOL    HW231453  11.067   5.907  10.322  0.1904 -0.1211 -1.0356
 7175SOL     OW31454   3.007   2.702   5.350  0.2913 -0.5743  0.1166
 7175SOL    HW131455   3.083   2.647   5.332  0.0051 -1.1959  0.7585
 7175SOL    HW231456   3.011   2.771   5.284  1.2857 -0.7285 -0.0024
 7176SOL     OW31457  11.713   1.221  10.647 -0.0810  0.0195 -0.0884
 7176SOL    HW131458  11.737   1.312  10.664 -2.5865  0.9358 -0.9943
 7176SOL    HW231459  11.791   1.171  10.670  0.2515  1.9964  3.8422
 7177SOL     OW31460   2.751   5.404  12.017  0.1706  0.3473  0.4295
 7177SOL    HW131461   2.811   5.470  12.052 -0.0436  0.6245  0.2791
 7177SOL    HW231462   2.666   5.449  12.012  0.2789  0.4384 -0.8244
 7178SOL     OW31463   3.300   5.774   9.091  0.5869 -0.2721  0.2784
 7178SOL    HW131464   3.280   5.680   9.091 -0.0832 -0.1347  0.9155
 7178SOL    HW231465   3.237   5.811   9.029  0.8743 -0.2396  0.0006
 7179SOL     OW31466   3.360   7.177   1.516 -1.2474 -0.2383 -0.1883
 7179SOL    HW131467   3.287   7.122   1.490 -1.2103 -0.2346 -0.3020
 7179SOL    HW231468   3.323   7.265   1.522 -0.3001  0.8265 -5.2452
 7180SOL     OW31469   8.442   4.597   8.999  0.2348  0.1629  0.5458
 7180SOL    HW131470   8.422   4.677   9.048 -0.2167 -0.3110  1.1630
 7180SOL    HW231471   8.372   4.537   9.023  0.5691 -0.4190  0.0849
 7181SOL     OW31472   0.904  10.376   2.625  0.3755 -0.3153 -0.5594
 7181SOL    HW131473   0.840  10.409   2.562 -0.6316  0.9799  1.0468
 7181SOL    HW231474   0.868  10.399   2.710  3.8149  2.2385  0.4631
 7182SOL     OW31475   4.800   8.314   7.753  0.2609 -0.0158 -0.3524
 7182SOL    HW131476   4.772   8.244   7.812 -0.7980 -0.3077 -1.1464
 7182SOL    HW231477   4.822   8.268   7.671  1.4046  0.4059 -0.2981
 7183SOL     OW31478   0.314   3.971   7.606  0.0581  0.0187  0.0328
 7183SOL    HW131479   0.255   3.901   7.577 -1.4240  0.5113  1.6610
 7183SOL    HW231480   0.395   3.927   7.629 -0.2787 -0.9396 -0.5808
 7184SOL     OW31481   5.045   0.231   7.192  0.0571  0.8399  0.2736
 7184SOL    HW131482   5.034   0.322   7.165  0.9087  0.4792 -1.3748
 7184SOL    HW231483   5.009   0.179   7.121  0.9846 -0.1341  0.4724
 7185SOL     OW31484   7.499   0.053  10.009 -0.3770 -0.3262  0.1838
 7185SOL    HW131485   7.547   0.058   9.926  0.2359  0.2682  0.5601
 7185SOL    HW231486   7.473   0.143  10.028 -2.4539 -0.7488 -0.4496
 7186SOL     OW31487   9.827   1.710   1.595  0.0889 -0.3368 -0.1531
 7186SOL    HW131488   9.759   1.762   1.637  1.5686  3.0352 -1.6143
 7186SOL    HW231489   9.882   1.679   1.668  0.8299  2.7311  0.7201
 7187SOL     OW31490   4.358   6.802   8.490 -0.4977  0.5497  0.2969
 7187SOL    HW131491   4.327   6.891   8.476 -2.9368  0.1504  2.3329
 7187SOL    HW231492   4.396   6.804   8.578 -0.0848 -0.3077  0.1482
 7188SOL     OW31493   1.407   2.665   6.612 -0.4234  0.0376  0.4312
 7188SOL    HW131494   1.496   2.700   6.617 -0.1592 -0.2724 -1.4725
 7188SOL    HW231495   1.366   2.692   6.694  0.9422  1.5013  0.6767
 7189SOL     OW31496   5.429   9.378   3.830 -0.1466 -0.1397 -0.1857
 7189SOL    HW131497   5.372   9.303   3.847  0.1533 -0.4520 -0.5343
 7189SOL    HW231498   5.481   9.351   3.754 -2.7844  1.9296 -2.9860
 7190SOL     OW31499   9.973   2.140   2.189 -0.6826  0.0875  0.1208
 7190SOL    HW131500   9.878   2.147   2.195 -1.0465 -3.2563  0.4661
 7190SOL    HW231501   9.993   2.052   2.222  2.6297  0.9073  0.7311
 7191SOL     OW31502  12.398   6.007   4.273  0.1808  0.1537  0.2174
 7191SOL    HW131503  12.356   6.057   4.204 -0.4796 -0.5995  0.0566
 7191SOL    HW231504  12.390   5.916   4.245 -0.8071 -0.2396  1.6495
 7192SOL     OW31505   8.545   2.361  10.449  0.4122  0.5448  0.5355
 7192SOL    HW131506   8.535   2.306  10.372 -2.7960 -0.8213  1.7401
 7192SOL    HW231507   8.566   2.300  10.520 -0.2929  1.2451  1.3730
 7193SOL     OW31508   9.835   8.017   5.618  0.0966  0.2705 -0.1894
 7193SOL    HW131509   9.877   8.050   5.698  2.5394 -0.9156 -0.8853
 7193SOL    HW231510   9.856   8.083   5.551 -0.7097  0.5398 -0.1912
 7194SOL     OW31511   7.361   0.503   8.789 -0.7765  0.0405 -0.1357
 7194SOL    HW131512   7.426   0.433   8.781  0.3872  0.9680  0.8068
 7194SOL    HW231513   7.288   0.464   8.836 -0.8190 -0.9649 -1.0112
 7195SOL     OW31514   9.484  11.208   2.534  0.4070 -0.1348  0.0916
 7195SOL    HW131515   9.402  11.163   2.554 -0.3529 -0.1004 -2.5049
 7195SOL    HW231516   9.458  11.280   2.476  2.2206  0.2009 -0.3757
 7196SOL     OW31517   3.892   0.820   4.054 -0.9553 -0.1623  0.0335
 7196SOL    HW131518   3.889   0.916   4.052  0.4437 -0.0481  1.6780
 7196SOL    HW231519   3.971   0.798   4.006 -0.9846 -0.4699  0.1281
 7197SOL     OW31520   9.972  11.688   0.793 -0.1026  0.1967  0.3430
 7197SOL    HW131521   9.901  11.738   0.832  1.0385  1.5210  0.8051
 7197SOL    HW231522   9.973  11.715   0.701  0.1914  0.6519  0.4785
 7198SOL     OW31523   4.564   4.441   4.039  0.1675  0.5667  0.1348
 7198SOL    HW131524   4.591   4.509   3.977 -1.2285  1.3673  0.3646
 7198SOL    HW231525   4.578   4.359   3.992  0.0724  1.1108 -0.8750
 7199SOL     OW31526   8.943   7.692   2.995  0.4228 -0.8215  0.3333
 7199SOL    HW131527   8.931   7.784   3.019  1.2744 -0.4486 -0.6200
 7199SOL    HW231528   8.886   7.681   2.918  0.6970 -0.9605  0.1530
 7200SOL     OW31529   3.011  12.309   7.782  0.0275 -0.0396 -0.2993
 7200SOL    HW131530   2.969  12.229   7.816  1.1465 -2.2883 -3.6619
 7200SOL    HW231531   2.943  12.351   7.729 -0.5511  1.3415  1.4442
 7201SOL     OW31532  10.001   8.236   2.239 -0.2152  0.3445  0.2347
 7201SOL    HW131533  10.030   8.254   2.329  1.4231 -3.2119  0.6045
 7201SOL    HW231534   9.966   8.148   2.242 -1.9283  0.8179 -2.3350
 7202SOL     OW31535   8.740   8.616  11.366 -0.2771  0.1377 -0.1412
 7202SOL    HW131536   8.819   8.571  11.395  0.2134  1.0528 -0.0015
 7202SOL    HW231537   8.683   8.616  11.442 -1.0452 -1.8166 -0.6655
 7203SOL     OW31538  11.713   2.334  11.584  0.0449 -0.1476 -0.4964
 7203SOL    HW131539  11.621   2.359  11.589  0.1357  0.0169  0.4612
 7203SOL    HW231540  11.716   2.264  11.519 -0.5655  0.6874 -1.4624
 7204SOL     OW31541   8.708   7.807   0.156  0.4749  0.5294 -0.0168
 7204SOL    HW131542   8.738   7.883   0.205 -2.7444  1.3820  0.8897
 7204SOL    HW231543   8.689   7.741   0.223  0.1357  0.1248 -0.4994
 7205SOL     OW31544   9.041  10.372  13.159  0.0135  0.3582  0.6819
 7205SOL    HW131545   8.995  10.449  13.194  0.1344  1.0732 -0.6589
 7205SOL    HW231546   9.125  10.371  13.205 -0.1834  0.7502  1.0555
 7206SOL     OW31547  10.038   4.874  11.850  0.2588  0.0201  0.1542
 7206SOL    HW131548   9.977   4.886  11.923  1.0495 -0.9348  1.0043
 7206SOL    HW231549  10.019   4.786  11.817 -0.4396  0.6259 -1.1624
 7207SOL     OW31550   0.970  11.415  11.127 -0.3032  0.3921 -0.3730
 7207SOL    HW131551   1.037  11.381  11.187 -1.2274  1.3308  1.2825
 7207SOL    HW231552   0.902  11.347  11.125 -0.8101  0.8490  0.6174
 7208SOL     OW31553   5.053   7.209   2.405  0.7095 -0.2543 -0.0313
 7208SOL    HW131554   5.119   7.269   2.369  1.7151 -0.4098  1.4874
 7208SOL    HW231555   5.104   7.140   2.447 -0.4476 -1.4469 -0.5272
 7209SOL     OW31556   5.522   6.429   6.992  0.4537 -0.3243 -0.2968
 7209SOL    HW131557   5.575   6.367   6.942 -1.1466 -1.9520 -0.0949
 7209SOL    HW231558   5.515   6.389   7.079  0.7799  1.0111  0.3679
 7210SOL     OW31559   1.007  10.390   9.261  0.4728  0.2190  0.1239
 7210SOL    HW131560   1.056  10.403   9.342  2.2162  0.0605 -0.8477
 7210SOL    HW231561   1.033  10.303   9.230  0.2460  0.4812 -0.8572
 7211SOL     OW31562  10.324   4.374  11.575 -0.6636 -0.4843  0.0446
 7211SOL    HW131563  10.406   4.352  11.620  0.9556  0.0759 -2.4678
 7211SOL    HW231564  10.321   4.469  11.578 -0.5053 -0.4352 -1.0006
 7212SOL     OW31565   6.663   7.014   3.635 -0.2764 -0.3756 -0.1094
 7212SOL    HW131566   6.719   7.055   3.701  0.0537 -1.6144  0.4275
 7212SOL    HW231567   6.642   6.928   3.672 -0.6570 -0.8310 -1.3203
 7213SOL     OW31568   5.913   8.953   4.415 -0.1358 -0.1747  0.0472
 7213SOL    HW131569   5.855   8.889   4.375  1.2117 -1.1104 -0.5044
 7213SOL    HW231570   5.908   9.030   4.358 -0.9515 -0.1800  0.1077
 7214SOL     OW31571   2.888  11.003   3.374 -0.0086  0.0387 -0.0336
 7214SOL    HW131572   2.931  11.014   3.458 -0.1627  0.1753  0.0262
 7214SOL    HW231573   2.954  10.959   3.320 -0.2183 -0.8465  0.4197
 7215SOL     OW31574   3.976   7.354   4.811 -0.2703 -0.3004  0.0756
 7215SOL    HW131575   3.987   7.271   4.858 -0.1331 -0.9937 -1.1317
 7215SOL    HW231576   4.065   7.384   4.793 -0.2800  0.8141  1.6251
 7216SOL     OW31577   0.404   0.973   6.909 -0.6065  0.2651 -0.2180
 7216SOL    HW131578   0.324   1.004   6.953 -0.7787 -0.5219  0.0517
 7216SOL    HW231579   0.393   0.878   6.905 -0.8161  0.3324 -2.4135
 7217SOL     OW31580   4.197   9.886   8.280 -0.8186  0.3201 -0.2832
 7217SOL    HW131581   4.260   9.893   8.209 -0.3349  1.7945  0.2602
 7217SOL    HW231582   4.127   9.830   8.244 -0.8133  1.3909 -2.0797
 7218SOL     OW31583  11.204   1.459   9.605  0.1961 -0.2831  0.6283
 7218SOL    HW131584  11.227   1.478   9.696  3.5146 -2.0486  0.3261
 7218SOL    HW231585  11.135   1.393   9.610 -0.4475  0.4567  1.8131
 7219SOL     OW31586   1.542   9.118   5.861  0.2900 -0.1090 -0.0624
 7219SOL    HW131587   1.493   9.137   5.781  0.3380  1.0206  0.1540
 7219SOL    HW231588   1.615   9.063   5.832 -0.4473 -0.8449 -0.5695
 7220SOL     OW31589  12.414  12.151   6.078 -0.3528 -0.3362  0.0890
 7220SOL    HW131590  12.440  12.174   6.167 -0.2642 -0.1873  0.0252
 7220SOL    HW231591  12.404  12.056   6.079  0.9227 -0.4930 -0.0681
 7221SOL     OW31592   0.008   5.841   2.208 -0.0004  0.3670  0.1168
 7221SOL    HW131593  -0.049   5.772   2.173  1.7525 -1.4646  0.6591
 7221SOL    HW231594   0.042   5.886   2.131 -0.4475  0.0142 -0.2926
 7222SOL     OW31595   9.064   4.616  12.707 -0.4391  0.9619 -0.1375
 7222SOL    HW131596   9.068   4.597  12.613 -0.6809  0.1242  0.0105
 7222SOL    HW231597   9.154   4.638  12.730 -0.5829  2.2993 -0.7770
 7223SOL     OW31598   6.164  12.832   7.920  0.5533  0.2100  0.3152
 7223SOL    HW131599   6.171  12.772   7.994 -1.4214  1.8588  1.9700
 7223SOL    HW231600   6.075  12.820   7.887  0.8346  0.7290 -0.6855
 7224SOL     OW31601   3.704   1.673   2.638 -0.2907  0.5083 -0.4436
 7224SOL    HW131602   3.740   1.601   2.587 -2.3207 -1.0995  0.2390
 7224SOL    HW231603   3.734   1.656   2.728  2.1372  2.5626 -0.7630
 7225SOL     OW31604   5.693   4.933   7.830  0.0762  0.2601  0.3379
 7225SOL    HW131605   5.749   4.867   7.790  0.9972  1.6324 -0.7593
 7225SOL    HW231606   5.604   4.906   7.808  0.4789 -0.1210 -0.8894
 7226SOL     OW31607   1.417   5.653   7.568 -0.0381  0.6281 -0.0183
 7226SOL    HW131608   1.372   5.571   7.546 -1.1920  1.1482  0.3785
 7226SOL    HW231609   1.393   5.671   7.658  2.7980 -0.2517  1.0293
 7227SOL     OW31610   8.914   1.558   4.029  0.2256 -0.0558 -0.1326
 7227SOL    HW131611   8.842   1.496   4.021 -0.8262  1.3128 -2.0462
 7227SOL    HW231612   8.983   1.521   3.974  1.3496 -1.6924  2.1918
 7228SOL     OW31613   3.864   6.510   1.161  0.2454  0.2954  0.9761
 7228SOL    HW131614   3.848   6.457   1.083 -2.5333  1.3547  0.7140
 7228SOL    HW231615   3.928   6.460   1.212  2.0421 -0.5044 -1.8448
 7229SOL     OW31616  12.429  12.592   3.229  0.5857 -0.1555 -0.4861
 7229SOL    HW131617  12.438  12.561   3.139  1.5253 -0.7435 -0.2020
 7229SOL    HW231618  12.335  12.602   3.242  0.4172 -0.5320 -1.3754
 7230SOL     OW31619  12.223   1.943   1.959 -0.0699 -0.2100 -0.0393
 7230SOL    HW131620  12.289   1.973   1.896  1.4820 -0.1430  1.5251
 7230SOL    HW231621  12.164   2.018   1.969 -0.5981 -0.3701 -1.6896
 7231SOL     OW31622  10.730   6.689   4.713  0.3798 -0.3596 -1.1139
 7231SOL    HW131623  10.689   6.695   4.799 -0.2689  0.7111 -1.4886
 7231SOL    HW231624  10.696   6.607   4.676 -0.0695 -0.3426 -0.7418
 7232SOL     OW31625   6.891  13.279   6.283  0.1547 -0.0247 -0.7903
 7232SOL    HW131626   6.837  13.203   6.306 -1.4969  1.4546  0.4135
 7232SOL    HW231627   6.838  13.328   6.220  0.4366  1.0477 -0.2115
 7233SOL     OW31628   0.276   0.560   9.596  0.1885 -0.9015  0.5554
 7233SOL    HW131629   0.209   0.593   9.656  0.2542  2.5336 -1.0374
 7233SOL    HW231630   0.233   0.558   9.511  1.6296 -0.1075 -0.2362
 7234SOL     OW31631  12.548   8.486   5.171  0.3200 -0.0002 -0.6516
 7234SOL    HW131632  12.544   8.499   5.076  0.1554 -0.2945 -0.6867
 7234SOL    HW231633  12.478   8.423   5.190  1.4064 -1.2408 -0.5630
 7235SOL     OW31634   3.745   5.353  13.079  0.1440 -0.2911  0.5866
 7235SOL    HW131635   3.710   5.274  13.039 -0.2702 -0.8036  1.8976
 7235SOL    HW231636   3.680   5.377  13.145  0.4723  0.9073  0.5035
 7236SOL     OW31637  12.824  12.951  12.713  0.1593 -0.1898 -0.3077
 7236SOL    HW131638  12.729  12.948  12.721 -0.0396 -1.3176 -2.4145
 7236SOL    HW231639  12.856  12.946  12.803 -1.7528 -1.1004  0.3699
 7237SOL     OW31640   7.003  13.250   6.655 -0.6603  0.0552  0.6265
 7237SOL    HW131641   7.035  13.281   6.739 -0.0931 -0.3982  0.5866
 7237SOL    HW231642   6.922  13.204   6.675 -1.2406  1.0937  0.7487
 7238SOL     OW31643   1.731   7.324   5.869  0.2379 -0.3633 -0.3927
 7238SOL    HW131644   1.637   7.337   5.871  0.3600  0.5814 -0.4727
 7238SOL    HW231645   1.766   7.404   5.830  1.3032  0.6799  2.4682
 7239SOL     OW31646  12.710   3.213   9.258  0.3780  0.1480  0.0479
 7239SOL    HW131647  12.637   3.178   9.310  0.5756  0.6122  0.6472
 7239SOL    HW231648  12.718   3.304   9.286  1.9041 -0.1865  0.8000
 7240SOL     OW31649  11.691   4.199  12.914 -0.4657 -0.2107  0.6050
 7240SOL    HW131650  11.644   4.280  12.896  0.7318  0.4235  0.2467
 7240SOL    HW231651  11.717   4.166  12.828 -1.8340 -1.5614  0.6553
 7241SOL     OW31652   0.821   5.109  11.708  0.5898 -0.6606  0.3477
 7241SOL    HW131653   0.747   5.057  11.677  0.5569 -0.9772  0.9465
 7241SOL    HW231654   0.895   5.079  11.656  0.0705  0.5493 -1.1607
 7242SOL     OW31655  13.047  12.242   9.830  0.1953 -0.0939  0.5401
 7242SOL    HW131656  13.137  12.247   9.798 -0.0687 -0.3572 -0.2652
 7242SOL    HW231657  13.056  12.234   9.925  1.0004  0.4806  0.5183
 7243SOL     OW31658   1.643   0.286  13.295  0.2240 -0.0072  0.7987
 7243SOL    HW131659   1.667   0.215  13.354  0.1115 -0.0087  0.8422
 7243SOL    HW231660   1.719   0.296  13.237  0.1873 -0.2472  0.7072
 7244SOL     OW31661   8.869  10.455  10.913  0.3595  0.5909 -0.2240
 7244SOL    HW131662   8.962  10.433  10.904  0.2952  0.2899 -0.1381
 7244SOL    HW231663   8.829  10.377  10.952 -0.1043  0.3583 -1.1400
 7245SOL     OW31664   3.112   4.623   8.167  0.1654  0.4995 -0.1659
 7245SOL    HW131665   3.173   4.549   8.163  0.6851  0.9726 -1.4892
 7245SOL    HW231666   3.125   4.659   8.255  2.0020  0.7298 -0.4876
 7246SOL     OW31667   9.653   8.424  10.591  0.2563  0.3444 -0.0504
 7246SOL    HW131668   9.579   8.485  10.583  1.3999  1.8116  0.1029
 7246SOL    HW231669   9.689   8.441  10.678  0.7089 -0.4500 -0.0740
 7247SOL     OW31670  11.749  13.166   2.825 -0.0448  0.6124 -0.6524
 7247SOL    HW131671  11.781  13.208   2.905 -0.7511  2.7209 -1.3960
 7247SOL    HW231672  11.801  13.086   2.817  0.3434  0.5661  1.6595
 7248SOL     OW31673   1.894  11.845  10.532 -0.1488 -0.1833 -0.6708
 7248SOL    HW131674   1.938  11.823  10.449 -2.0810  0.0211 -1.8177
 7248SOL    HW231675   1.857  11.931  10.517 -0.7728 -0.2684  0.3157
 7249SOL     OW31676   1.801   5.848  12.771 -0.5127 -0.2041  0.0597
 7249SOL    HW131677   1.754   5.765  12.770 -1.7341  0.4696 -1.0892
 7249SOL    HW231678   1.854   5.846  12.691  0.8706 -0.6209  0.9475
 7250SOL     OW31679   2.070  13.141   1.140  0.7811  0.0283  0.7064
 7250SOL    HW131680   2.158  13.123   1.174  1.0163 -2.0909 -0.8226
 7250SOL    HW231681   2.013  13.136   1.217  1.8834  0.7295  1.6065
 7251SOL     OW31682   9.279  13.221   7.583  0.1831 -0.1706 -0.0190
 7251SOL    HW131683   9.370  13.234   7.609  0.7230  1.5920 -2.4405
 7251SOL    HW231684   9.274  13.256   7.494 -2.7258 -0.8214 -0.2157
 7252SOL     OW31685   3.563   3.926  12.684 -0.7803 -1.5606 -0.5541
 7252SOL    HW131686   3.495   3.978  12.728 -0.8656 -2.1953  0.0819
 7252SOL    HW231687   3.515   3.851  12.648 -0.0401 -3.6901  2.5629
 7253SOL     OW31688   1.785   3.340  11.809  0.1070 -0.0277 -0.6278
 7253SOL    HW131689   1.823   3.333  11.897  0.1243  1.5745 -0.4762
 7253SOL    HW231690   1.691   3.348  11.825  0.0936  0.0800 -0.7684
 7254SOL     OW31691  12.607   5.299   1.920  0.4173  0.2718  0.0928
 7254SOL    HW131692  12.619   5.252   1.838  1.5076  0.8153 -0.0661
 7254SOL    HW231693  12.592   5.230   1.985  0.2619 -0.1957 -0.4325
 7255SOL     OW31694   0.134   5.720  12.687 -0.2426  0.1068 -0.1728
 7255SOL    HW131695   0.152   5.626  12.685 -1.4574 -0.1626  0.4417
 7255SOL    HW231696   0.128   5.741  12.781 -0.4428  0.6965 -0.3146
 7256SOL     OW31697   1.789  10.356   4.952  1.0047  0.0126  0.3372
 7256SOL    HW131698   1.823  10.275   4.990 -1.5161 -1.3351 -0.0439
 7256SOL    HW231699   1.739  10.397   5.023 -1.3733 -1.0951 -0.5671
 7257SOL     OW31700   2.165   3.214   4.996  0.6357  0.1978 -0.3639
 7257SOL    HW131701   2.167   3.226   5.091 -0.3500  0.1807 -0.3315
 7257SOL    HW231702   2.093   3.152   4.981  0.3453  0.7202 -1.1740
 7258SOL     OW31703   3.386   1.282  10.898 -0.3776 -0.1994 -1.1145
 7258SOL    HW131704   3.321   1.275  10.967  1.3093 -0.2788  0.5423
 7258SOL    HW231705   3.448   1.212  10.916  2.1575  2.0379 -0.3578
 7259SOL     OW31706   7.653   4.686  10.553 -0.7382 -0.1824 -0.0677
 7259SOL    HW131707   7.745   4.712  10.547 -1.1001  1.1946 -0.0737
 7259SOL    HW231708   7.641   4.658  10.644 -0.0180 -1.6023 -0.4011
 7260SOL     OW31709  13.020  13.030   9.216 -0.7681  0.0181 -0.2363
 7260SOL    HW131710  12.993  12.938   9.213 -1.9952  0.3473 -3.0321
 7260SOL    HW231711  12.987  13.067   9.134  0.1464  2.8507  0.5502
 7261SOL     OW31712   3.904   5.605   3.176  0.4622  0.0517  0.1698
 7261SOL    HW131713   3.922   5.512   3.192  0.8457  0.2098  0.7010
 7261SOL    HW231714   3.943   5.623   3.090  0.8864 -0.1513  0.3156
 7262SOL     OW31715   7.203   0.172  10.179 -0.3880  0.5764 -0.0512
 7262SOL    HW131716   7.205   0.083  10.215  0.6167  1.0291  1.0523
 7262SOL    HW231717   7.119   0.176  10.133 -0.9131 -0.6153  0.7339
 7263SOL     OW31718   3.239   8.755   0.098  0.3287 -0.5215 -0.1272
 7263SOL    HW131719   3.265   8.710   0.179  0.5489  1.4200  0.9332
 7263SOL    HW231720   3.219   8.684   0.037 -2.1347 -2.1154  2.3317
 7264SOL     OW31721   1.482  12.778  13.244 -1.2902  0.3767 -0.7424
 7264SOL    HW131722   1.530  12.711  13.294 -2.0456  1.0347  0.9349
 7264SOL    HW231723   1.528  12.860  13.264 -2.3744  0.8397 -0.0423
 7265SOL     OW31724   8.700   5.447   3.773 -0.1749  0.0558 -0.0093
 7265SOL    HW131725   8.670   5.440   3.864  0.8273 -1.2717  0.2511
 7265SOL    HW231726   8.738   5.362   3.754 -0.4849  0.2679 -1.7393
 7266SOL     OW31727   2.348   4.811   9.401 -0.2312 -0.1702 -0.2068
 7266SOL    HW131728   2.268   4.832   9.353  0.5082  0.8126 -1.0544
 7266SOL    HW231729   2.327   4.729   9.447 -1.3613 -0.5149 -1.2583
 7267SOL     OW31730   0.963   3.082   4.155 -0.0675 -0.4269 -0.2989
 7267SOL    HW131731   0.998   3.156   4.205 -1.2735  0.5084 -0.7912
 7267SOL    HW231732   1.000   3.005   4.197  0.7046  0.4288  0.6345
 7268SOL     OW31733  10.364   1.253   6.437 -0.2832  0.2997 -0.1215
 7268SOL    HW131734  10.291   1.308   6.468  0.3137  0.0545  1.8818
 7268SOL    HW231735  10.443   1.302   6.463  0.2596 -1.3421  1.5100
 7269SOL     OW31736   6.037   9.737   1.447  0.5411  0.2388  0.1175
 7269SOL    HW131737   6.041   9.701   1.536  0.6269 -0.2310 -0.0701
 7269SOL    HW231738   5.965   9.689   1.405  1.7610 -0.9626 -0.6667
 7270SOL     OW31739   3.236  11.336  10.972  0.6153 -0.1399 -0.7472
 7270SOL    HW131740   3.156  11.307  11.016  1.1316  1.9996  1.8512
 7270SOL    HW231741   3.206  11.398  10.905  0.0356  0.1311 -0.2472
 7271SOL     OW31742   2.109  10.549   7.985  0.1244  0.4562  0.3766
 7271SOL    HW131743   2.169  10.562   7.911 -1.1729  0.3056 -0.7432
 7271SOL    HW231744   2.129  10.460   8.015  1.1058  0.7517  0.6459
 7272SOL     OW31745   6.414   1.078   6.790  0.4008  0.4824  0.0817
 7272SOL    HW131746   6.376   1.057   6.876  0.3414  1.0423  0.1939
 7272SOL    HW231747   6.489   1.018   6.782 -0.0610 -0.1166  0.1793
 7273SOL     OW31748   3.355   9.251   4.400  0.4383 -0.4647  0.2571
 7273SOL    HW131749   3.439   9.214   4.374  2.0556  1.9799  1.5938
 7273SOL    HW231750   3.312   9.274   4.318  2.3645  0.8292 -0.4453
 7274SOL     OW31751   9.898   8.057  11.903  0.2638 -0.6884 -0.3606
 7274SOL    HW131752   9.855   8.022  11.982  0.0337  1.3902  0.4934
 7274SOL    HW231753   9.991   8.036  11.916  0.1211 -1.0890  0.0509
 7275SOL     OW31754   3.499   8.644  12.077  0.1238  0.2491  0.2522
 7275SOL    HW131755   3.497   8.737  12.099 -0.0551 -0.0139  1.4148
 7275SOL    HW231756   3.429   8.606  12.130 -1.4942 -0.1901 -2.0369
 7276SOL     OW31757   6.713   9.893   5.221  0.1482  0.3435 -0.3344
 7276SOL    HW131758   6.753   9.836   5.286  0.2968  0.8932  0.0716
 7276SOL    HW231759   6.625   9.909   5.254  0.4325  1.1285  0.0675
 7277SOL     OW31760   4.372   2.711   7.157 -0.5684 -0.3890  0.4597
 7277SOL    HW131761   4.299   2.718   7.095 -0.3168 -1.4439  0.0263
 7277SOL    HW231762   4.332   2.676   7.236 -0.7420  0.1582  0.6146
 7278SOL     OW31763   1.749   3.301   7.813  0.3593 -0.0474 -0.6277
 7278SOL    HW131764   1.842   3.299   7.792  0.7646 -2.0202  1.0076
 7278SOL    HW231765   1.732   3.216   7.854 -1.5853  1.2341  1.4416
 7279SOL     OW31766   4.155  10.038   0.445 -0.2080  0.0309  0.6948
 7279SOL    HW131767   4.184   9.972   0.382 -2.1403  0.8815 -1.1857
 7279SOL    HW231768   4.213  10.113   0.430 -0.9732  0.4074 -0.4464
 7280SOL     OW31769  11.838   6.653   8.531  0.3131  0.1704 -0.0691
 7280SOL    HW131770  11.793   6.595   8.592 -2.2830  0.7395 -1.3115
 7280SOL    HW231771  11.845   6.736   8.576 -0.4845  0.2500 -0.0872
 7281SOL     OW31772   1.595   1.064  12.263  0.0561 -0.3044  0.2417
 7281SOL    HW131773   1.527   1.116  12.220 -0.3515  0.0126  1.2401
 7281SOL    HW231774   1.573   0.974  12.242 -1.0504 -0.2482  1.0537
 7282SOL     OW31775   0.337   6.653   7.857  0.1566 -0.0270  0.0813
 7282SOL    HW131776   0.426   6.617   7.865  0.6375  0.8297 -1.0057
 7282SOL    HW231777   0.287   6.584   7.813 -0.3322 -1.3877  2.6135
 7283SOL     OW31778   4.393  10.808  12.763 -0.0623 -0.0389  0.1131
 7283SOL    HW131779   4.458  10.871  12.794 -0.9012 -0.3680  2.7631
 7283SOL    HW231780   4.350  10.853  12.690  1.8227  0.9395 -0.4668
 7284SOL     OW31781   3.838   7.385  11.284 -0.1741 -0.3366 -0.3445
 7284SOL    HW131782   3.844   7.331  11.363 -0.8641 -0.6343 -0.4907
 7284SOL    HW231783   3.836   7.475  11.317  0.9166 -0.3885 -0.0983
 7285SOL     OW31784   2.222   2.796   6.757 -0.5525 -0.4349 -0.4675
 7285SOL    HW131785   2.132   2.785   6.788 -0.7945  0.1906 -0.9267
 7285SOL    HW231786   2.268   2.838   6.830 -0.6424 -0.7253 -0.2447
 7286SOL     OW31787   1.881   9.739   5.629  0.2740 -0.3335  0.2997
 7286SOL    HW131788   1.892   9.808   5.564  2.7111 -0.2642  0.7074
 7286SOL    HW231789   1.800   9.695   5.603  0.1127  0.9456 -1.5725
 7287SOL     OW31790   0.648   0.097   8.982  0.1737  1.2211 -0.1333
 7287SOL    HW131791   0.650   0.075   9.075  2.0135  1.8327  0.0027
 7287SOL    HW231792   0.643   0.192   8.980 -1.1317  1.1641 -0.6959
 7288SOL     OW31793   7.783   8.427   6.448 -0.0845  0.3239 -0.4329
 7288SOL    HW131794   7.809   8.515   6.422 -0.1603  0.5873  0.3528
 7288SOL    HW231795   7.786   8.376   6.367 -1.6115  1.4168 -1.2399
 7289SOL     OW31796   2.348   8.472   5.149 -0.1631  0.3576  0.5535
 7289SOL    HW131797   2.355   8.393   5.202  1.7622 -0.7351 -1.1797
 7289SOL    HW231798   2.432   8.516   5.160 -0.0431  0.5312 -0.8795
 7290SOL     OW31799  10.160  12.760   3.533  0.8385  0.7497  0.3000
 7290SOL    HW131800  10.076  12.735   3.572  1.1211  0.2534  0.5936
 7290SOL    HW231801  10.140  12.840   3.484 -0.4894 -0.9533 -2.1589
 7291SOL     OW31802  11.077   3.538   3.404 -0.4391 -0.1538 -0.3317
 7291SOL    HW131803  11.171   3.522   3.412  0.0154 -0.1045 -3.7873
 7291SOL    HW231804  11.039   3.501   3.483  2.1892 -3.2213 -0.3104
 7292SOL     OW31805   4.742   1.725   7.165  0.1272  0.0778 -0.2936
 7292SOL    HW131806   4.681   1.776   7.217  0.5783  0.0210  0.3039
 7292SOL    HW231807   4.762   1.648   7.218  2.3765  1.1323  0.5173
 7293SOL     OW31808   0.771   1.445   0.236 -0.6262  0.0806 -0.4808
 7293SOL    HW131809   0.791   1.352   0.226 -0.3032  0.0545  0.2899
 7293SOL    HW231810   0.723   1.450   0.319 -0.2036  0.6553 -0.2654
 7294SOL     OW31811   4.807   4.454   3.101 -0.1537  0.2602 -0.1534
 7294SOL    HW131812   4.726   4.484   3.060 -0.9247 -1.0649  0.3471
 7294SOL    HW231813   4.876   4.502   3.055 -1.0618 -0.2789 -2.2181
 7295SOL     OW31814   6.704   7.499   4.821  0.9921  0.1345  0.1031
 7295SOL    HW131815   6.769   7.440   4.858  0.9548 -0.8757 -1.3672
 7295SOL    HW231816   6.697   7.473   4.729  1.2877  2.7000 -0.7341
 7296SOL     OW31817  11.774   5.213  11.518 -0.1002  0.1415 -0.0928
 7296SOL    HW131818  11.802   5.294  11.562  0.3775  0.4664 -0.9809
 7296SOL    HW231819  11.780   5.233  11.425 -0.6962 -0.6854 -0.3187
 7297SOL     OW31820   2.952  13.185   4.002  0.0304  0.3598 -0.8551
 7297SOL    HW131821   2.942  13.179   3.906  0.6331  0.7609 -0.9446
 7297SOL    HW231822   2.982  13.275   4.017 -0.2152  0.3421 -0.2736
 7298SOL     OW31823   9.625   3.942   1.238  0.5912 -0.0157  0.2621
 7298SOL    HW131824   9.618   3.957   1.144  0.9139  1.4088  0.4546
 7298SOL    HW231825   9.574   4.013   1.278  0.8653 -0.3206  1.1801
 7299SOL     OW31826   2.338   1.159   4.134 -1.0660  0.3161  0.0764
 7299SOL    HW131827   2.316   1.087   4.194 -0.1202 -1.6162 -1.7550
 7299SOL    HW231828   2.258   1.176   4.086 -2.1160  2.5396  2.3889
 7300SOL     OW31829  12.995  11.943   9.686 -0.0690 -0.0491  0.3003
 7300SOL    HW131830  13.055  11.956   9.613 -1.2644  1.2967 -0.4835
 7300SOL    HW231831  12.991  12.028   9.730 -0.7262 -0.3623  0.8694
 7301SOL     OW31832   1.510  10.628   2.266  0.9363  0.4568 -0.4782
 7301SOL    HW131833   1.451  10.699   2.291 -0.9597 -1.2338  0.1155
 7301SOL    HW231834   1.452  10.557   2.239  2.7447 -1.0305 -0.6644
 7302SOL     OW31835  12.424   3.538   4.075  0.2676  0.0038 -0.5102
 7302SOL    HW131836  12.329   3.542   4.064 -0.1401 -0.8669  2.0319
 7302SOL    HW231837  12.455   3.623   4.046 -1.2898  0.3347 -1.3291
 7303SOL     OW31838   7.775  12.139   8.512 -0.0663 -0.0248  0.1051
 7303SOL    HW131839   7.792  12.048   8.535 -1.2439 -0.3850 -0.3617
 7303SOL    HW231840   7.679  12.145   8.510 -0.0274  1.5135  1.2535
 7304SOL     OW31841   6.217  12.015   6.239 -0.1344 -0.2979 -0.3287
 7304SOL    HW131842   6.164  11.992   6.315  1.1442 -2.0727  0.0801
 7304SOL    HW231843   6.176  12.095   6.206 -0.9562  0.3531  1.9981
 7305SOL     OW31844   5.438   9.729   2.198 -0.2685 -0.5371  0.0315
 7305SOL    HW131845   5.385   9.759   2.124  0.5686 -0.2888 -0.4857
 7305SOL    HW231846   5.399   9.772   2.274 -2.4144 -2.3833  0.0619
 7306SOL     OW31847   1.723   5.814   0.836  0.1832  0.2007 -0.3364
 7306SOL    HW131848   1.754   5.739   0.786 -0.8299  0.3285 -1.2059
 7306SOL    HW231849   1.762   5.890   0.793  0.5892  0.2278  0.0680
 7307SOL     OW31850  11.377   6.939   3.789 -0.3828 -0.0135 -0.1475
 7307SOL    HW131851  11.427   6.877   3.736  0.9905  0.6940  0.2684
 7307SOL    HW231852  11.436   6.960   3.862 -1.4384  0.5781  0.5557
 7308SOL     OW31853   8.741   8.088   9.584 -0.2385  0.1584 -0.5780
 7308SOL    HW131854   8.809   8.113   9.647  1.6490 -0.7229 -2.1341
 7308SOL    HW231855   8.663   8.073   9.637  1.0019  0.3793  1.4227
 7309SOL     OW31856   6.741  11.464  10.321  0.2677  0.5377 -0.1353
 7309SOL    HW131857   6.705  11.390  10.271 -1.3320  1.0752  0.1730
 7309SOL    HW231858   6.811  11.497  10.266  0.6898 -0.8943 -0.5096
 7310SOL     OW31859  13.143   7.212   6.559  0.1025  0.8589 -0.7024
 7310SOL    HW131860  13.231   7.207   6.597 -0.1708  2.6664  0.2776
 7310SOL    HW231861  13.158   7.228   6.466  0.7966  0.4002 -0.6774
 7311SOL     OW31862   6.930   8.019  11.973  0.0291 -0.4508  0.0679
 7311SOL    HW131863   6.925   8.088  12.039  0.5834 -1.5675  1.3257
 7311SOL    HW231864   6.860   8.039  11.912  0.4417  1.4523  0.1628
 7312SOL     OW31865  11.995   1.107   6.276  0.3779 -0.7283 -0.0841
 7312SOL    HW131866  12.055   1.136   6.344  0.8421 -0.9680 -0.3882
 7312SOL    HW231867  11.916   1.081   6.324  0.0650  0.7272  0.2149
 7313SOL     OW31868  11.809   6.100   3.070  0.0339 -0.1254  0.8330
 7313SOL    HW131869  11.827   6.045   2.994  3.3442  1.3013  0.4117
 7313SOL    HW231870  11.759   6.044   3.129  0.5153 -2.4985 -0.8749
 7314SOL     OW31871  13.141   7.766   5.297  0.1498  0.5389  0.2819
 7314SOL    HW131872  13.219   7.727   5.339 -0.3119  0.4758  1.1076
 7314SOL    HW231873  13.118   7.840   5.353 -0.8557  0.0756  0.5076
 7315SOL     OW31874  10.525   0.184   3.512  0.1419  0.3672  0.3259
 7315SOL    HW131875  10.620   0.170   3.520  0.6283  1.5704 -2.4924
 7315SOL    HW231876  10.499   0.219   3.598  2.0413 -0.7666  1.4503
 7316SOL     OW31877   9.942  11.763   1.183 -0.4668 -0.9404  0.0719
 7316SOL    HW131878   9.938  11.850   1.146 -0.2739 -0.4789  1.0923
 7316SOL    HW231879   9.871  11.715   1.141 -0.6339 -0.2646 -0.4233
 7317SOL     OW31880   9.038   5.689   0.129  0.3775  0.2833  1.0619
 7317SOL    HW131881   9.101   5.685   0.058  0.2876 -1.4936  1.0516
 7317SOL    HW231882   8.954   5.708   0.086  0.3969 -0.3598  0.7364
 7318SOL     OW31883   5.342   2.950   0.803 -0.0608 -0.3571 -0.0469
 7318SOL    HW131884   5.420   2.900   0.778 -0.0968 -1.3256  1.6300
 7318SOL    HW231885   5.377   3.023   0.854 -0.2353 -1.0591  1.1235
 7319SOL     OW31886   1.243   0.011   8.060  0.2281 -0.1518 -0.2462
 7319SOL    HW131887   1.174  -0.051   8.034  1.6924 -1.3140 -1.5859
 7319SOL    HW231888   1.288   0.032   7.978  0.4289  1.9265  0.3486
 7320SOL     OW31889  12.360  11.696  11.405  0.3091  0.2006  0.2226
 7320SOL    HW131890  12.289  11.754  11.433 -0.6421 -0.9943  0.3837
 7320SOL    HW231891  12.316  11.626  11.356  1.2257 -1.1371  1.2170
 7321SOL     OW31892   7.990   1.945  12.021  0.3329  0.6694  0.4765
 7321SOL    HW131893   8.049   2.009  12.061  0.6113  0.5401  0.2734
 7321SOL    HW231894   7.995   1.869  12.078  1.6598  0.0384 -0.4471
 7322SOL     OW31895   4.599   9.991   4.928 -0.0110  0.2862  0.8202
 7322SOL    HW131896   4.687   9.997   4.891 -0.0826 -0.8992  0.4315
 7322SOL    HW231897   4.566  10.081   4.926  0.4273  0.4270 -0.9241
 7323SOL     OW31898   2.856   0.564   0.725 -0.4370 -0.2657  0.1037
 7323SOL    HW131899   2.860   0.659   0.723  3.0523 -0.2895  0.4650
 7323SOL    HW231900   2.927   0.538   0.783 -2.0057 -3.1140  0.9476
 7324SOL     OW31901  11.053   8.756   7.390  0.0185  0.2058 -0.8374
 7324SOL    HW131902  11.141   8.740   7.356  0.1954  1.9902 -1.3131
 7324SOL    HW231903  11.018   8.827   7.335 -1.2379  0.3793  0.1330
 7325SOL     OW31904   5.161  11.630  13.255  0.0695 -0.8031  0.1504
 7325SOL    HW131905   5.154  11.534  13.261 -0.1509 -0.8050 -0.1438
 7325SOL    HW231906   5.256  11.646  13.258  0.3270 -1.2432 -2.6719
 7326SOL     OW31907   3.233   4.660   9.986  0.3425 -0.4938 -0.0929
 7326SOL    HW131908   3.219   4.727   9.919  0.4274  0.2439  0.6058
 7326SOL    HW231909   3.147   4.646  10.024  0.6012  0.4324  0.8696
 7327SOL     OW31910   3.334   3.902   4.480 -0.4574  0.1929 -0.3215
 7327SOL    HW131911   3.334   3.894   4.385 -0.3443 -0.8673 -0.2494
 7327SOL    HW231912   3.242   3.913   4.504 -0.5317  0.0156 -0.5235
 7328SOL     OW31913  12.647  12.324   2.052  0.1377  1.1817 -0.2125
 7328SOL    HW131914  12.636  12.287   1.965 -0.4483  0.3561  0.2047
 7328SOL    HW231915  12.598  12.406   2.050 -0.9105  0.5591 -0.2867
 7329SOL     OW31916   1.404  10.733   0.363 -0.0526 -0.0412  0.0809
 7329SOL    HW131917   1.381  10.825   0.357 -1.5627 -0.4007 -0.0331
 7329SOL    HW231918   1.466  10.719   0.291  0.0369  0.8341 -0.0213
 7330SOL     OW31919   3.619  11.070   0.935 -0.0507 -0.0556 -0.0372
 7330SOL    HW131920   3.565  10.992   0.944 -0.6935  0.3520 -0.2796
 7330SOL    HW231921   3.572  11.125   0.872  1.3892 -0.3273 -1.4107
 7331SOL     OW31922   3.638   8.466   3.559  0.6130 -0.6902 -0.5871
 7331SOL    HW131923   3.700   8.528   3.521  3.9959 -2.2634  1.8482
 7331SOL    HW231924   3.664   8.381   3.522 -0.0753 -1.4073  0.5374
 7332SOL     OW31925   8.593  12.731   9.901 -0.1294  0.3773  0.3819
 7332SOL    HW131926   8.497  12.739   9.902 -0.1450  0.3154 -0.3307
 7332SOL    HW231927   8.609  12.649   9.855  0.1668 -1.5555  3.5710
 7333SOL     OW31928  11.196  12.808   9.543  0.4393  0.6091 -0.3609
 7333SOL    HW131929  11.246  12.728   9.553 -0.0758  0.3893  0.5414
 7333SOL    HW231930  11.260  12.874   9.515  0.5912 -0.4584 -2.7453
 7334SOL     OW31931   1.953   2.312   2.353  0.1855  0.0574  0.0061
 7334SOL    HW131932   2.041   2.276   2.363  0.7616  0.7453 -2.0373
 7334SOL    HW231933   1.899   2.237   2.327  0.8636  0.1581 -1.8171
 7335SOL     OW31934   5.864  11.929   0.628  0.2591  0.1666  0.0124
 7335SOL    HW131935   5.893  12.003   0.681  1.9258 -0.6207  0.2698
 7335SOL    HW231936   5.852  11.858   0.691 -0.5174 -0.0235 -0.3362
 7336SOL     OW31937   2.408   5.411   8.400  0.5743  0.3270 -0.1600
 7336SOL    HW131938   2.398   5.326   8.444 -2.2852  1.8646  2.5551
 7336SOL    HW231939   2.363   5.400   8.317 -3.3488  0.0727  1.7657
 7337SOL     OW31940  12.768   3.933   4.116  0.0110  0.0470  0.7853
 7337SOL    HW131941  12.831   3.963   4.050  0.3798 -3.4653 -0.7048
 7337SOL    HW231942  12.748   4.011   4.168 -0.6431  3.2908 -3.7086
 7338SOL     OW31943   7.565   1.949   2.682 -0.7715 -0.2540 -1.0286
 7338SOL    HW131944   7.580   1.965   2.775 -1.0237 -2.5210 -0.5443
 7338SOL    HW231945   7.596   2.029   2.639 -0.6394  0.8498  0.9751
 7339SOL     OW31946   7.890  12.035  11.280 -0.3381 -0.2717  0.2938
 7339SOL    HW131947   7.934  11.969  11.227  0.2483  0.7228 -0.4891
 7339SOL    HW231948   7.938  12.036  11.362 -0.0636 -0.4955  0.1357
 7340SOL     OW31949   2.715   0.899   7.264 -0.4012  0.0221  0.2811
 7340SOL    HW131950   2.783   0.874   7.327  0.5777 -1.1965 -1.2062
 7340SOL    HW231951   2.633   0.888   7.312  0.3803  2.9077  2.6077
 7341SOL     OW31952  13.261   0.042   3.336 -0.2139 -0.4442  0.4484
 7341SOL    HW131953  13.272   0.036   3.431  1.0468  0.5273  0.3925
 7341SOL    HW231954  13.264   0.136   3.318  1.4997 -0.6754 -0.7328
 7342SOL     OW31955   2.391   2.334   2.803  0.0297  0.2565 -0.2024
 7342SOL    HW131956   2.378   2.413   2.750 -0.8334  0.6067  0.5046
 7342SOL    HW231957   2.419   2.367   2.888 -0.1124 -0.2114  0.0276
 7343SOL     OW31958   3.705  11.378   6.973  0.0065 -0.2057  0.0134
 7343SOL    HW131959   3.792  11.343   6.954  1.1613  1.7351  1.3100
 7343SOL    HW231960   3.657  11.304   7.011  1.5171 -1.0085  0.4539
 7344SOL     OW31961   2.914   0.461  12.512  0.0034 -0.3140  0.1667
 7344SOL    HW131962   2.895   0.492  12.600 -0.1159 -0.7068  0.2810
 7344SOL    HW231963   2.885   0.532  12.455  0.3867  0.0800  0.4580
 7345SOL     OW31964  11.488  10.870   1.338  0.8792  0.2117 -0.1978
 7345SOL    HW131965  11.504  10.793   1.284  2.0837 -0.7746  1.4881
 7345SOL    HW231966  11.477  10.941   1.274  2.8820 -0.7567 -1.7723
 7346SOL     OW31967   6.396  10.867   1.157 -0.0342  0.2340 -0.1270
 7346SOL    HW131968   6.416  10.872   1.250 -0.4093  1.4087 -0.0843
 7346SOL    HW231969   6.387  10.774   1.138 -1.8880  0.0360  1.4251
 7347SOL     OW31970   7.486   6.643   4.368 -0.4263 -0.2223 -0.3547
 7347SOL    HW131971   7.519   6.604   4.287  0.6213 -0.4703  0.1716
 7347SOL    HW231972   7.471   6.735   4.346 -2.3137 -0.7361 -1.4336
 7348SOL     OW31973  10.056   4.513   0.525 -0.1301 -0.1408  0.2893
 7348SOL    HW131974  10.030   4.436   0.576  1.4036 -1.9124 -1.4148
 7348SOL    HW231975  10.110   4.564   0.585  0.7533 -1.6203  0.8242
 7349SOL     OW31976  10.727   2.673   7.263  0.4004 -0.6427  0.0262
 7349SOL    HW131977  10.765   2.613   7.199  0.0776  0.7321 -1.5019
 7349SOL    HW231978  10.665   2.726   7.213  0.4790  0.7897  1.3799
 7350SOL     OW31979   0.975   8.080   6.497  0.1515 -0.1112 -0.5471
 7350SOL    HW131980   0.926   8.052   6.420 -1.1942 -3.1247  1.2122
 7350SOL    HW231981   0.953   8.173   6.506 -3.2831 -0.6982 -1.3501
 7351SOL     OW31982   3.638   4.844   9.620 -0.2373 -0.2493  0.4762
 7351SOL    HW131983   3.704   4.843   9.550 -0.1801 -0.3209  0.5315
 7351SOL    HW231984   3.558   4.871   9.576  0.3496  2.3825  0.8395
 7352SOL     OW31985  10.522   9.603   8.473  0.4548  0.1218  0.3583
 7352SOL    HW131986  10.529   9.634   8.563  1.3966  0.9857  0.0028
 7352SOL    HW231987  10.537   9.681   8.420 -0.5820 -0.2735 -0.5527
 7353SOL     OW31988   6.344   1.479   8.936 -0.0960  0.0257  0.0308
 7353SOL    HW131989   6.377   1.547   8.995 -1.5358  0.2141  0.6740
 7353SOL    HW231990   6.283   1.429   8.990  0.3052 -1.2594 -0.6791
 7354SOL     OW31991   6.910   1.700   8.864 -0.0770  0.4052  0.1266
 7354SOL    HW131992   6.824   1.669   8.891  0.2292 -0.3619  0.2696
 7354SOL    HW231993   6.962   1.620   8.853  1.1186  0.8902  1.7479
 7355SOL     OW31994   5.828  12.061   0.372 -0.1256 -0.0327 -0.0047
 7355SOL    HW131995   5.839  11.988   0.432  1.4074 -0.7540 -1.0844
 7355SOL    HW231996   5.734  12.065   0.354 -0.4273 -0.6590  1.3556
 7356SOL     OW31997   6.637   6.724   4.575  0.1225 -0.3048  0.1838
 7356SOL    HW131998   6.699   6.677   4.631  2.7490  1.1966 -1.2405
 7356SOL    HW231999   6.617   6.662   4.505  0.8648 -0.4653  0.1045
 7357SOL     OW32000  12.273   9.165  12.463  0.3505  0.2264  0.4291
 7357SOL    HW132001  12.241   9.107  12.395  0.4419  1.9965 -1.2092
 7357SOL    HW232002  12.205   9.162  12.531 -0.8276  0.0480 -0.7189
 7358SOL     OW32003   4.141  10.099   2.038  0.1977  0.0896  0.4628
 7358SOL    HW132004   4.088  10.162   2.087  0.6840 -0.7262  2.1118
 7358SOL    HW232005   4.152  10.140   1.952 -1.0930  1.3606  0.8476
 7359SOL     OW32006   9.745   5.291  12.064  0.1459 -0.0450  0.5019
 7359SOL    HW132007   9.801   5.306  11.988  0.5922 -0.2619  0.7872
 7359SOL    HW232008   9.776   5.209  12.101 -1.3353 -0.9643 -0.2089
 7360SOL     OW32009  13.298  11.436   2.818  0.4659  0.1132 -0.8740
 7360SOL    HW132010  13.241  11.437   2.741  1.5773  0.5084 -1.7265
 7360SOL    HW232011  13.386  11.430   2.782  1.2496  3.1371  0.1917
 7361SOL     OW32012   1.176   3.690   1.018  0.6495 -0.0209  0.1469
 7361SOL    HW132013   1.264   3.693   1.055  0.9909 -0.8400 -0.5754
 7361SOL    HW232014   1.186   3.645   0.934 -0.5170 -0.4638  0.2200
 7362SOL     OW32015  12.438   9.632  10.633 -0.4564  0.3395 -0.1708
 7362SOL    HW132016  12.498   9.571  10.677 -2.5324 -2.0610 -0.4582
 7362SOL    HW232017  12.432   9.706  10.693 -0.5189 -1.2963  1.9893
 7363SOL     OW32018  12.804   0.167  12.832 -0.1957 -0.3656 -0.3409
 7363SOL    HW132019  12.766   0.143  12.747 -1.7667 -0.5731  0.3900
 7363SOL    HW232020  12.819   0.083  12.876 -0.3191 -0.2255 -0.0290
 7364SOL     OW32021  12.284   0.150   1.374 -0.3829 -0.5004  0.0347
 7364SOL    HW132022  12.249   0.192   1.296 -1.1399 -0.3351  0.4537
 7364SOL    HW232023  12.379   0.157   1.364 -0.4702 -0.4012 -0.8192
 7365SOL     OW32024  10.117   7.424  10.227  0.0443 -0.0600 -0.7092
 7365SOL    HW132025  10.144   7.489  10.292 -2.6922 -0.6222  1.1678
 7365SOL    HW232026  10.060   7.472  10.167 -2.8768 -0.7410  1.3086
 7366SOL     OW32027   8.665   8.626   3.129  0.0791  0.3795  0.1200
 7366SOL    HW132028   8.725   8.585   3.068 -0.2133  1.6400 -1.0825
 7366SOL    HW232029   8.667   8.571   3.207  0.5601 -1.2060 -0.9792
 7367SOL     OW32030   0.013   9.812  12.242 -0.8572  0.0383 -0.2274
 7367SOL    HW132031  -0.032   9.863  12.309  1.0735  0.6497  0.6888
 7367SOL    HW232032  -0.016   9.850  12.159 -2.4739 -0.0326  0.2814
 7368SOL     OW32033  11.044   9.043   0.342 -0.2115 -0.5076  0.2517
 7368SOL    HW132034  10.971   9.082   0.389 -1.1869 -0.5954 -1.1405
 7368SOL    HW232035  11.115   9.106   0.352 -0.4296 -0.4556  1.6898
 7369SOL     OW32036   3.290   7.370   3.490 -0.8198  0.0522  0.0821
 7369SOL    HW132037   3.328   7.426   3.422  0.3206 -0.1429  0.5447
 7369SOL    HW232038   3.196   7.371   3.472 -0.8154  2.0206  0.0292
 7370SOL     OW32039   5.178   2.981   2.317 -0.0789  0.1698  0.0088
 7370SOL    HW132040   5.184   3.076   2.326  1.2685  0.1764 -0.7908
 7370SOL    HW232041   5.084   2.964   2.316 -0.3609  1.5728 -0.5627
 7371SOL     OW32042   4.390   7.022   9.375  0.8793 -0.3431  0.0986
 7371SOL    HW132043   4.425   6.933   9.374  1.5612 -0.1063  0.9017
 7371SOL    HW232044   4.365   7.036   9.467 -1.5172 -0.5525 -0.4545
 7372SOL     OW32045  11.580   0.751  11.275 -0.4609  0.1692 -0.5912
 7372SOL    HW132046  11.583   0.846  11.273  1.7069  0.2137  1.0099
 7372SOL    HW232047  11.659   0.723  11.229 -0.6891 -0.8399 -0.3995
 7373SOL     OW32048  12.280  11.475   4.915 -0.0915  0.0450  0.6193
 7373SOL    HW132049  12.347  11.533   4.951  0.5818  0.3285 -0.9766
 7373SOL    HW232050  12.276  11.499   4.822 -0.4296 -1.8603  0.1089
 7374SOL     OW32051   2.472   2.078   5.976  0.1879  0.7632  0.4991
 7374SOL    HW132052   2.509   2.155   5.933 -0.9306  0.3119 -1.3557
 7374SOL    HW232053   2.548   2.035   6.016  1.2036  1.5080 -0.5493
 7375SOL     OW32054   9.174   2.738   4.924 -0.1752  0.5465 -0.4836
 7375SOL    HW132055   9.217   2.693   4.997 -2.6468  0.0852  0.8272
 7375SOL    HW232056   9.190   2.831   4.940 -1.1271  0.4879  1.0144
 7376SOL     OW32057   8.379  11.788  10.002 -0.1863  0.5105 -0.1487
 7376SOL    HW132058   8.322  11.855  10.040 -0.1616  0.5655 -0.2105
 7376SOL    HW232059   8.338  11.766   9.918  1.3809  2.5867 -1.5635
 7377SOL     OW32060   1.809   3.512  11.335  0.1985  0.2831 -0.4090
 7377SOL    HW132061   1.747   3.585  11.334 -1.0780 -0.7515 -1.5944
 7377SOL    HW232062   1.755   3.436  11.357  1.5399 -0.2985  1.0313
 7378SOL     OW32063   3.403   5.655   7.817 -0.0574  0.8908 -0.1620
 7378SOL    HW132064   3.346   5.655   7.894 -0.4566 -1.7310 -0.3644
 7378SOL    HW232065   3.492   5.656   7.853 -0.2203 -1.3876  0.4713
 7379SOL     OW32066   0.317   1.933   4.240  0.1178  0.4551  0.1588
 7379SOL    HW132067   0.270   1.945   4.323  0.2577  0.8557  0.1816
 7379SOL    HW232068   0.293   2.010   4.188 -0.4299 -0.0713 -0.3974
 7380SOL     OW32069   0.576   7.019   9.400  0.0330  0.1770  0.1420
 7380SOL    HW132070   0.598   7.013   9.493  1.2857  0.6435 -0.1098
 7380SOL    HW232071   0.583   7.113   9.380 -1.1890  0.2050 -0.2067
 7381SOL     OW32072   6.216   9.239   6.098 -0.3945 -0.0850  0.1849
 7381SOL    HW132073   6.196   9.147   6.115 -0.9661  0.1827  0.9849
 7381SOL    HW232074   6.204   9.249   6.003  0.8200 -1.0978 -0.1065
 7382SOL     OW32075   1.436   2.216   7.515  0.4758  0.0936  0.0984
 7382SOL    HW132076   1.387   2.255   7.588  0.6814  0.7062 -0.0835
 7382SOL    HW232077   1.502   2.161   7.557 -0.1336 -0.4577  0.3526
 7383SOL     OW32078   5.016   2.880   9.196  0.4151 -0.3710 -0.5972
 7383SOL    HW132079   4.982   2.962   9.231  1.8656  0.8984 -1.9824
 7383SOL    HW232080   4.946   2.816   9.212 -0.2221  0.8007  1.6974
 7384SOL     OW32081   2.388   4.222   7.526  0.3371 -0.0085  0.0609
 7384SOL    HW132082   2.405   4.153   7.590  0.3676  0.4525  0.5521
 7384SOL    HW232083   2.406   4.181   7.441  0.7447 -0.4827  0.3756
 7385SOL     OW32084   6.894  12.550   7.605  0.4714 -0.3297 -0.5052
 7385SOL    HW132085   6.979  12.510   7.625  0.4180 -0.9295 -1.4330
 7385SOL    HW232086   6.830  12.491   7.643  0.4567  0.8186  1.4206
 7386SOL     OW32087  11.220   9.569   3.202 -0.2804  0.3471 -0.4733
 7386SOL    HW132088  11.309   9.547   3.176 -0.1859 -0.1907  0.2478
 7386SOL    HW232089  11.226   9.584   3.296 -0.8391  0.9160 -0.5254
 7387SOL     OW32090  11.622   8.312   0.470  0.0451 -0.1895 -0.1955
 7387SOL    HW132091  11.671   8.387   0.505  1.7189 -2.0333  1.7036
 7387SOL    HW232092  11.626   8.323   0.375  1.5665  1.3366 -0.0162
 7388SOL     OW32093   5.128  10.490   2.273  0.4021 -0.4688  0.1958
 7388SOL    HW132094   5.074  10.469   2.197  0.0100  1.1039 -0.0015
 7388SOL    HW232095   5.214  10.455   2.251 -0.3930 -2.6748  0.3503
 7389SOL     OW32096   2.380   9.374   6.439  0.2374  0.1979 -0.0388
 7389SOL    HW132097   2.475   9.377   6.439  0.2143  2.7092  0.3085
 7389SOL    HW232098   2.358   9.302   6.379  2.3279 -0.0766 -0.5372
 7390SOL     OW32099   2.317   8.294  10.968  0.5779 -0.0877  0.3242
 7390SOL    HW132100   2.292   8.241  10.892  0.9000  2.3097 -1.5915
 7390SOL    HW232101   2.375   8.361  10.932 -1.5264  2.9452  2.0776
 7391SOL     OW32102   0.839   4.606  10.976  0.6593 -0.5018 -0.6128
 7391SOL    HW132103   0.882   4.675  10.925  0.3167 -0.2405 -0.5540
 7391SOL    HW232104   0.898   4.531  10.970  1.4643  0.0574  0.0248
 7392SOL     OW32105   7.192   1.383  10.621  0.1099  0.6680 -0.2467
 7392SOL    HW132106   7.097   1.379  10.624  0.0829  0.8818 -0.7340
 7392SOL    HW232107   7.214   1.475  10.633  0.1701  0.8850 -1.7599
 7393SOL     OW32108  12.352   2.486   9.010  0.7242  0.5933 -0.0921
 7393SOL    HW132109  12.428   2.428   9.002 -0.3972 -0.7477 -1.5906
 7393SOL    HW232110  12.302   2.471   8.929 -1.1727  1.3803  0.8803
 7394SOL     OW32111   0.555  11.700   5.598  0.0642 -0.2394  0.0169
 7394SOL    HW132112   0.630  11.755   5.576 -0.1546  0.1927  0.3284
 7394SOL    HW232113   0.576  11.666   5.686  0.5981 -1.3623 -0.5255
 7395SOL     OW32114  12.373  10.313  11.302 -0.1558 -0.5306 -0.7337
 7395SOL    HW132115  12.341  10.365  11.375  0.2002 -1.1914 -0.0950
 7395SOL    HW232116  12.448  10.266  11.336 -0.8450 -1.9586 -1.0891
 7396SOL     OW32117   3.577  13.059   4.355 -0.1666 -0.7105  0.1276
 7396SOL    HW132118   3.602  12.977   4.398  0.4421  0.0024  1.1598
 7396SOL    HW232119   3.657  13.111   4.353 -1.1344  1.0211  2.1459
 7397SOL     OW32120   4.094   3.195   1.177 -0.3323 -0.2593  0.3000
 7397SOL    HW132121   4.101   3.273   1.232 -0.3659 -1.0214  1.4032
 7397SOL    HW232122   4.127   3.224   1.092  0.4588  0.7378  0.9150
 7398SOL     OW32123   0.088  12.890   4.009  0.5235 -0.1782  0.0560
 7398SOL    HW132124   0.028  12.891   3.935  0.7701 -1.4070 -0.1780
 7398SOL    HW232125   0.164  12.941   3.979  1.2688 -1.9126 -1.1207
 7399SOL     OW32126   2.982   0.069   9.270  0.4037 -0.4362  0.0632
 7399SOL    HW132127   2.972   0.008   9.344  0.1490 -0.5369 -0.0514
 7399SOL    HW232128   2.893   0.080   9.236  0.2440  0.9885  0.8611
 7400SOL     OW32129   7.420  11.703   8.338  0.6778  0.1937 -0.0565
 7400SOL    HW132130   7.462  11.661   8.263  0.6820 -0.5101  0.3325
 7400SOL    HW232131   7.414  11.634   8.404 -0.4886  0.4527  0.1323
 7401SOL     OW32132   7.218  11.112   2.804 -0.6142 -0.4902 -0.3369
 7401SOL    HW132133   7.185  11.101   2.894 -1.0655 -0.0882 -0.4488
 7401SOL    HW232134   7.189  11.033   2.759  0.7331 -1.3109  0.1883
 7402SOL     OW32135   6.476   3.981  10.944 -0.0174 -0.2019 -0.4278
 7402SOL    HW132136   6.382   3.994  10.953  0.1259 -0.1921  1.8208
 7402SOL    HW232137   6.513   4.069  10.945  0.1022 -0.2400  0.8312
 7403SOL     OW32138  10.387   0.596   0.481  0.3460  0.3422 -0.5009
 7403SOL    HW132139  10.474   0.558   0.491  0.1624  0.2550  0.9716
 7403SOL    HW232140  10.328   0.521   0.482  0.1374  0.5101  0.2434
 7404SOL     OW32141   0.617  10.698  13.259  0.0051  0.2365 -0.1904
 7404SOL    HW132142   0.712  10.698  13.276  0.3702 -0.5457 -1.9496
 7404SOL    HW232143   0.605  10.769  13.197 -0.6997  0.8016  0.5828
 7405SOL     OW32144   4.909   2.782  11.938 -0.1345  0.5693  0.2664
 7405SOL    HW132145   4.996   2.754  11.967 -0.2488  0.5149  0.5675
 7405SOL    HW232146   4.853   2.770  12.016 -0.7355 -0.8080 -0.3476
 7406SOL     OW32147   3.216   1.574   5.587 -0.0640  0.8548 -0.7943
 7406SOL    HW132148   3.220   1.644   5.523 -0.9463  1.0850 -0.6101
 7406SOL    HW232149   3.185   1.498   5.538  1.4898  0.3982 -1.1338
 7407SOL     OW32150   1.824  10.445   5.472 -0.5298  0.4550  0.2906
 7407SOL    HW132151   1.820  10.491   5.555  0.2135  1.0419  0.0145
 7407SOL    HW232152   1.914  10.459   5.441 -0.5503 -0.4513 -0.2141
 7408SOL     OW32153  10.540   2.023  12.413 -0.1142 -0.3278  0.8137
 7408SOL    HW132154  10.490   2.023  12.332  1.3560 -1.7614 -0.1757
 7408SOL    HW232155  10.581   2.109  12.416 -0.2134 -0.2452  0.0421
 7409SOL     OW32156  13.110  13.268  11.711 -0.0768 -0.0836  0.4884
 7409SOL    HW132157  13.116  13.360  11.683  1.0266 -0.8402 -2.0192
 7409SOL    HW232158  13.017  13.255  11.731 -0.1647  1.6820  1.4601
 7410SOL     OW32159   5.997  10.936   4.164 -0.2391  0.6283  0.0378
 7410SOL    HW132160   6.049  10.911   4.087 -1.7338 -0.0730 -0.7916
 7410SOL    HW232161   6.052  10.912   4.239  1.3565  1.5519 -0.7806
 7411SOL     OW32162  12.576   4.872   4.314 -0.0857  0.0324  0.2491
 7411SOL    HW132163  12.505   4.834   4.263  1.9711 -0.7168 -2.2745
 7411SOL    HW232164  12.587   4.960   4.277  1.3465 -0.4778 -0.6393
 7412SOL     OW32165   1.563   0.236   0.621  0.0019 -0.0424  0.0017
 7412SOL    HW132166   1.657   0.243   0.604  0.0479 -0.0584  0.2461
 7412SOL    HW232167   1.554   0.256   0.714 -0.2552  0.1187 -0.0568
 7413SOL     OW32168   8.765  11.897   7.222 -0.0476  0.0709 -0.1655
 7413SOL    HW132169   8.852  11.877   7.187 -0.2012  0.0367 -0.5282
 7413SOL    HW232170   8.765  11.993   7.231  1.3055 -0.1074  3.1569
 7414SOL     OW32171  12.253   7.090   4.900  0.2489 -0.2684 -0.1154
 7414SOL    HW132172  12.189   7.145   4.945 -0.4070 -1.4658  0.4970
 7414SOL    HW232173  12.244   7.113   4.807 -1.5054 -0.7761 -0.1179
 7415SOL     OW32174   0.593   2.201  12.833 -0.0414 -0.5598  0.6560
 7415SOL    HW132175   0.592   2.272  12.898  0.3341  0.5375 -0.5001
 7415SOL    HW232176   0.512   2.212  12.784  0.6825  0.0126 -0.4723
 7416SOL     OW32177  10.708   4.936  11.686 -0.0623 -0.2052 -0.3366
 7416SOL    HW132178  10.771   4.881  11.640 -0.7941  0.0935 -1.7659
 7416SOL    HW232179  10.746   4.950  11.773  1.2151 -1.0631 -0.7362
 7417SOL     OW32180  13.203   7.828   4.825  0.4579  0.2612 -0.5108
 7417SOL    HW132181  13.219   7.752   4.880 -0.8430 -1.2025 -2.0500
 7417SOL    HW232182  13.142   7.882   4.875 -0.6016 -0.9818 -0.3992
 7418SOL     OW32183   1.097  13.137   7.725  0.0431  0.3873  0.2166
 7418SOL    HW132184   1.086  13.072   7.656  1.6917 -0.3610  0.6069
 7418SOL    HW232185   1.183  13.175   7.708  0.6574 -0.0860  2.0420
 7419SOL     OW32186   0.695   7.687   4.551  0.3310 -0.1498 -0.4616
 7419SOL    HW132187   0.743   7.606   4.569  0.4941 -0.4119 -1.9595
 7419SOL    HW232188   0.616   7.658   4.506  0.3089  0.5092 -0.8561
 7420SOL     OW32189  12.190   9.768   6.034 -0.1337 -0.5055  0.5719
 7420SOL    HW132190  12.283   9.753   6.016 -0.4277 -1.2401 -0.3629
 7420SOL    HW232191  12.154   9.681   6.053 -0.5800 -0.1897  1.2472
 7421SOL     OW32192   7.791  10.504  11.439  0.4289  0.1524 -0.5540
 7421SOL    HW132193   7.701  10.532  11.424  0.3979  0.8464  0.7557
 7421SOL    HW232194   7.788  10.408  11.430 -0.7658  0.0166  0.9477
 7422SOL     OW32195   5.353   1.655   3.585  0.1230  0.3363  0.6405
 7422SOL    HW132196   5.268   1.616   3.563  1.2893 -1.8342 -0.3333
 7422SOL    HW232197   5.366   1.630   3.677  0.3448 -0.6218  0.3589
 7423SOL     OW32198   8.277  10.968  10.485  0.0431  0.2903  0.3141
 7423SOL    HW132199   8.216  11.032  10.446  0.9051  0.9921  0.0878
 7423SOL    HW232200   8.269  10.983  10.580  1.4413  1.9043  0.2151
 7424SOL     OW32201  13.293   1.248   1.973 -0.1584  0.5462  0.4228
 7424SOL    HW132202  13.263   1.174   2.025 -0.8634  0.9064  0.5380
 7424SOL    HW232203  13.215   1.304   1.962 -0.0805  0.4064 -1.1499
 7425SOL     OW32204   0.288  12.075   6.886  0.9052 -0.4637  0.4016
 7425SOL    HW132205   0.352  12.016   6.846  0.7893  0.2762 -0.9408
 7425SOL    HW232206   0.226  12.093   6.815  1.4746  2.0209  0.4480
 7426SOL     OW32207   2.513  13.255   6.741  0.3386 -0.2399  0.1107
 7426SOL    HW132208   2.588  13.275   6.684  0.8316  0.2866  0.9241
 7426SOL    HW232209   2.451  13.210   6.683  0.8633  0.1907 -0.8214
 7427SOL     OW32210   6.159   3.066   7.805  0.1236  0.3482 -0.0317
 7427SOL    HW132211   6.132   3.067   7.713  0.2177  0.4615 -0.0586
 7427SOL    HW232212   6.145   2.976   7.833 -0.2304  0.3935 -0.0614
 7428SOL     OW32213  11.761  12.657   8.394  0.1343 -0.0470 -0.2796
 7428SOL    HW132214  11.776  12.751   8.407 -0.8100 -0.2686  3.2768
 7428SOL    HW232215  11.840  12.626   8.349  0.4184  2.3913 -1.6464
 7429SOL     OW32216   0.725   4.698   3.197 -0.0912  0.0752 -0.3404
 7429SOL    HW132217   0.697   4.760   3.265  1.0865 -0.6327  0.8373
 7429SOL    HW232218   0.820   4.709   3.193  0.1613 -1.7405 -0.0128
 7430SOL     OW32219   7.398   4.195   1.776 -0.0871  0.2474  0.0323
 7430SOL    HW132220   7.408   4.118   1.832  1.0619  0.1905 -0.2161
 7430SOL    HW232221   7.416   4.162   1.688  0.5900  0.8294 -0.0543
 7431SOL     OW32222   5.020   2.066  10.633  0.7748  0.0007 -0.2876
 7431SOL    HW132223   4.994   2.055  10.724  1.7921  0.2765  0.0439
 7431SOL    HW232224   5.115   2.072  10.635  0.8329 -0.2965 -1.4058
 7432SOL     OW32225   1.569   7.321   0.086  0.5522 -0.3471 -0.6364
 7432SOL    HW132226   1.516   7.396   0.057  0.2891 -0.5717 -0.7520
 7432SOL    HW232227   1.638   7.359   0.139  0.7997  0.0404 -1.2187
 7433SOL     OW32228   3.900  11.786   9.253 -0.4671  0.7906 -0.2207
 7433SOL    HW132229   3.879  11.776   9.346 -0.0004 -1.0702 -0.2642
 7433SOL    HW232230   3.815  11.792   9.209 -0.6858  1.9028  0.3190
 7434SOL     OW32231   6.341  11.762   5.494  0.0479 -0.5459  0.2986
 7434SOL    HW132232   6.246  11.759   5.508  0.0107 -0.5450  0.0416
 7434SOL    HW232233   6.367  11.670   5.488 -0.1416 -0.5219 -1.0385
 7435SOL     OW32234   0.473  11.406   4.850 -0.5003  0.2690 -0.9544
 7435SOL    HW132235   0.413  11.478   4.835 -0.3373  0.5627 -0.2542
 7435SOL    HW232236   0.451  11.375   4.938  0.1478  0.1681 -0.8226
 7436SOL     OW32237   7.662   5.512  11.204 -0.2907 -0.1325 -0.0771
 7436SOL    HW132238   7.661   5.464  11.287  0.4654  0.7621  0.4764
 7436SOL    HW232239   7.685   5.447  11.138  1.6312 -0.3945  0.7740
 7437SOL     OW32240   5.379  10.949   4.623 -0.4545  0.3051 -0.0897
 7437SOL    HW132241   5.326  11.028   4.618 -0.6059  0.3041  1.1503
 7437SOL    HW232242   5.434  10.963   4.701  1.4060  0.3349 -1.3517
 7438SOL     OW32243   7.137   7.547   0.340 -0.1410 -0.0619  0.3421
 7438SOL    HW132244   7.179   7.524   0.422 -0.2133 -0.8633  0.1617
 7438SOL    HW232245   7.178   7.490   0.275 -1.2599 -0.6353  0.1130
 7439SOL     OW32246   2.480   6.712   4.673 -0.5142 -0.5109 -0.3072
 7439SOL    HW132247   2.482   6.660   4.593  1.8507  2.7063 -2.6246
 7439SOL    HW232248   2.549   6.676   4.728  1.2977  0.2197 -2.0036
 7440SOL     OW32249   0.852   2.428   4.311 -0.1977  0.2815  0.1464
 7440SOL    HW132250   0.877   2.361   4.248 -1.0321 -1.2956  1.4135
 7440SOL    HW232251   0.786   2.480   4.266  0.2660  0.1034 -0.7689
 7441SOL     OW32252   1.223   5.364   1.683  0.2300  0.0864  0.0859
 7441SOL    HW132253   1.191   5.317   1.760 -0.2987 -1.1353 -0.8487
 7441SOL    HW232254   1.144   5.403   1.644  0.5098  0.7929  0.2227
 7442SOL     OW32255   4.378   2.317  11.639  0.3223 -0.3935  0.6044
 7442SOL    HW132256   4.332   2.303  11.721 -0.9117 -0.6080 -0.1076
 7442SOL    HW232257   4.346   2.401  11.607  0.7407 -0.3446  0.2964
 7443SOL     OW32258  10.463   2.854   2.070  0.2415 -0.5390 -0.2895
 7443SOL    HW132259  10.513   2.841   1.989 -1.5422  0.2405 -1.5859
 7443SOL    HW232260  10.435   2.946   2.066 -2.6547 -1.3367 -0.5081
 7444SOL     OW32261   1.711  13.261   3.116 -0.2223 -0.0411  0.3524
 7444SOL    HW132262   1.698  13.356   3.108  0.7999  0.1257  0.5368
 7444SOL    HW232263   1.780  13.241   3.052  2.4074  0.0079  2.9992
 7445SOL     OW32264   5.482   3.086   4.474 -0.2431 -0.0872 -0.2009
 7445SOL    HW132265   5.577   3.084   4.483 -0.2727 -1.0433 -0.0388
 7445SOL    HW232266   5.467   3.062   4.382 -0.3259  0.0139 -0.2131
 7446SOL     OW32267   1.742  13.289  11.748  0.5736 -0.5567  0.0539
 7446SOL    HW132268   1.695  13.279  11.831  0.7882  1.1707  0.4198
 7446SOL    HW232269   1.827  13.249  11.765 -0.5633 -3.4787 -0.5348
 7447SOL     OW32270   9.951   0.982  12.875  0.2702  0.8870 -0.0346
 7447SOL    HW132271   9.912   0.904  12.914 -0.3849  2.3874  2.5866
 7447SOL    HW232272  10.043   0.959  12.862  0.0117 -0.4386  0.3510
 7448SOL     OW32273  10.003   8.028  11.591  0.1286  0.4978 -0.0864
 7448SOL    HW132274  10.016   8.017  11.497 -1.1072  1.5177 -0.4048
 7448SOL    HW232275  10.029   8.118  11.609 -0.9064  0.7478  0.2757
 7449SOL     OW32276   6.532   0.744   8.725  0.0565  0.6786  0.1218
 7449SOL    HW132277   6.526   0.750   8.630 -0.9271 -3.0461 -0.2083
 7449SOL    HW232278   6.621   0.772   8.745  0.3319  1.4052 -1.8716
 7450SOL     OW32279   9.167   4.667   1.920 -0.0690  0.1251 -0.2969
 7450SOL    HW132280   9.132   4.651   1.832  0.0820 -0.7327 -0.2134
 7450SOL    HW232281   9.262   4.675   1.908 -0.1356  1.0015 -0.3315
 7451SOL     OW32282   5.257   5.697   3.588  0.4339  0.2847  0.3650
 7451SOL    HW132283   5.343   5.715   3.627  0.9364 -0.6236 -0.2929
 7451SOL    HW232284   5.245   5.603   3.599  0.7294 -0.0610 -1.8987
 7452SOL     OW32285   2.540   0.798  11.510  0.1021  0.0730  0.3588
 7452SOL    HW132286   2.530   0.786  11.605 -0.6843 -0.8844  0.1698
 7452SOL    HW232287   2.451   0.797  11.476  0.3897  0.1857 -0.4192
 7453SOL     OW32288   9.009  10.308   7.112 -0.1241 -0.5736  0.4739
 7453SOL    HW132289   9.072  10.263   7.168  1.7778  1.3928  0.0710
 7453SOL    HW232290   9.002  10.253   7.034  1.9459 -0.3648  0.0879
 7454SOL     OW32291   5.214  10.882   8.184 -0.1245 -0.0142  0.6228
 7454SOL    HW132292   5.218  10.893   8.089  0.6853  1.9897  0.8285
 7454SOL    HW232293   5.240  10.968   8.219  3.2184 -1.6574  2.6837
 7455SOL     OW32294  13.311   2.232   9.294 -0.2104  0.4231  0.1575
 7455SOL    HW132295  13.325   2.138   9.307 -0.0710  0.5233  0.7804
 7455SOL    HW232296  13.233   2.237   9.239  1.0958 -0.0909 -1.8258
 7456SOL     OW32297   6.241  12.461   2.325  0.1121 -0.1510  0.0422
 7456SOL    HW132298   6.201  12.541   2.358  1.8289 -0.0285  2.0196
 7456SOL    HW232299   6.180  12.391   2.350 -1.0986  0.4310 -1.1676
 7457SOL     OW32300  12.617   5.052   3.839 -0.3188 -0.3672 -0.2700
 7457SOL    HW132301  12.614   5.117   3.769  0.9042  1.7490  1.5207
 7457SOL    HW232302  12.626   5.103   3.919  0.0287 -2.7514  1.3224
 7458SOL     OW32303   5.379   3.269   7.677 -0.2924  0.2680  0.4094
 7458SOL    HW132304   5.423   3.188   7.650  0.3874  0.5829  0.5408
 7458SOL    HW232305   5.314   3.285   7.609  0.7643  0.5441 -0.5777
 7459SOL     OW32306   2.177  11.824   1.775  0.3783 -0.0756  0.1454
 7459SOL    HW132307   2.115  11.895   1.765 -0.3978 -0.8586 -0.8221
 7459SOL    HW232308   2.220  11.817   1.689  0.8435 -0.4103  0.3980
 7460SOL     OW32309   3.007   2.714   2.606  0.4089  0.0686 -0.3058
 7460SOL    HW132310   2.961   2.795   2.624 -1.0789 -1.1162  1.6980
 7460SOL    HW232311   3.094   2.726   2.645 -0.9442 -0.4359  3.2221
 7461SOL     OW32312  10.664   4.942   6.906 -0.5766  0.4054 -0.4618
 7461SOL    HW132313  10.753   4.978   6.900 -1.1347  2.1329  0.8495
 7461SOL    HW232314  10.629   4.950   6.817 -0.1183  1.6872 -0.5546
 7462SOL     OW32315  12.022  12.770   2.992  0.7623  0.3715  0.2966
 7462SOL    HW132316  11.943  12.716   2.997 -0.3883  1.9621  0.0637
 7462SOL    HW232317  12.082  12.720   2.936  0.5806 -1.6109  1.7567
 7463SOL     OW32318   2.472  10.578   9.438  0.0760 -0.3019 -0.2001
 7463SOL    HW132319   2.432  10.661   9.411  1.7249  0.6537  0.1441
 7463SOL    HW232320   2.400  10.528   9.477 -0.6809  1.5619  0.9272
 7464SOL     OW32321   5.410  12.022  11.321  0.3799 -0.4659 -0.0990
 7464SOL    HW132322   5.501  12.015  11.352  0.4061 -0.8150 -0.2475
 7464SOL    HW232323   5.359  11.973  11.385  0.3967 -0.9324 -0.4407
 7465SOL     OW32324   5.632   8.388   9.547 -0.1881  0.2833 -0.3951
 7465SOL    HW132325   5.540   8.412   9.535  0.2727  2.4193 -0.0697
 7465SOL    HW232326   5.633   8.337   9.628 -1.0670  0.2088 -0.4198
 7466SOL     OW32327   1.100  13.178   5.580  0.1949  0.4393  0.9255
 7466SOL    HW132328   1.142  13.210   5.501 -0.5469 -2.2794 -0.6932
 7466SOL    HW232329   1.022  13.132   5.550 -1.0863  0.7856  3.4092
 7467SOL     OW32330   9.958   5.114   8.378 -0.2979  0.0602 -0.0570
 7467SOL    HW132331   9.956   5.061   8.458 -0.7679 -1.3065 -0.9396
 7467SOL    HW232332  10.021   5.184   8.397 -0.5583 -0.1083  1.5731
 7468SOL     OW32333   2.917   0.349   7.898  0.2551  0.1644  0.2332
 7468SOL    HW132334   2.981   0.411   7.934 -1.0655  2.4766 -1.1146
 7468SOL    HW232335   2.912   0.372   7.805  1.4351 -3.6627 -0.9355
 7469SOL     OW32336  10.049   6.114   2.613 -0.2131 -0.2054  0.1794
 7469SOL    HW132337  10.021   6.022   2.606 -0.6509 -0.1812  1.3556
 7469SOL    HW232338   9.970   6.164   2.596  0.1086 -0.0208 -0.8369
 7470SOL     OW32339   4.578   4.055  12.774 -0.1564 -0.1102 -0.0446
 7470SOL    HW132340   4.594   4.120  12.842  0.2878 -0.5384  0.2661
 7470SOL    HW232341   4.595   3.971  12.816  0.1253 -0.3823 -0.6855
 7471SOL     OW32342   4.238   6.263   0.186 -0.8376  0.2827  0.3485
 7471SOL    HW132343   4.221   6.325   0.115 -0.3771 -0.8449 -0.7850
 7471SOL    HW232344   4.203   6.180   0.154 -1.9973  0.0613  2.0971
 7472SOL     OW32345   1.562  12.031  12.825  0.1048  0.4166 -0.1880
 7472SOL    HW132346   1.537  11.944  12.856  1.0250  0.2733  0.1792
 7472SOL    HW232347   1.565  12.022  12.730  0.5048 -0.0451 -0.1370
 7473SOL     OW32348   0.118  12.447   5.009 -0.2026  0.2279 -0.1225
 7473SOL    HW132349   0.158  12.533   4.999 -0.2658  0.3216  0.3969
 7473SOL    HW232350   0.066  12.435   4.930 -0.8903  1.0489  0.1850
 7474SOL     OW32351   4.168   8.899   0.518 -0.3703  0.3695 -0.7961
 7474SOL    HW132352   4.191   8.992   0.507  0.7062 -0.0210 -2.1204
 7474SOL    HW232353   4.247   8.852   0.493 -0.3681 -0.9138  1.3523
 7475SOL     OW32354   5.733   5.254   2.970 -0.0046 -0.3263 -0.1313
 7475SOL    HW132355   5.764   5.164   2.958  0.5414 -0.0546 -0.8434
 7475SOL    HW232356   5.785   5.305   2.909 -0.6849  0.4041 -0.1109
 7476SOL     OW32357  10.734  11.715  10.506 -0.1593  0.8292  0.0713
 7476SOL    HW132358  10.647  11.742  10.476 -1.2891 -0.5366  1.8942
 7476SOL    HW232359  10.731  11.726  10.601  1.4281  0.1216  0.2339
 7477SOL     OW32360  11.480  13.033   5.905  0.1864 -0.5847 -0.0355
 7477SOL    HW132361  11.385  13.026   5.916  0.3047 -0.8837  0.8732
 7477SOL    HW232362  11.492  13.044   5.810 -0.6561 -2.2038 -0.3686
 7478SOL     OW32363   1.461   3.703   1.083 -0.0617  0.1691  0.6876
 7478SOL    HW132364   1.511   3.709   1.002  0.1620  2.6284  0.9409
 7478SOL    HW232365   1.512   3.753   1.146 -0.9067 -0.5767  2.0022
 7479SOL     OW32366  11.950   6.930   4.471 -0.0218 -0.1697  0.3986
 7479SOL    HW132367  11.966   6.980   4.552 -2.2850  1.0814  0.1478
 7479SOL    HW232368  12.010   6.970   4.407 -0.2030  0.7569  0.7805
 7480SOL     OW32369  10.835   2.899   6.344 -0.1868  0.1673  0.3515
 7480SOL    HW132370  10.802   2.985   6.369 -0.3428  0.3177 -0.3648
 7480SOL    HW232371  10.845   2.903   6.249 -1.5506 -1.0569  0.1283
 7481SOL     OW32372   1.228  12.714  13.312 -0.2226  0.5121 -0.2806
 7481SOL    HW132373   1.311  12.746  13.277  0.0090 -0.3683 -0.5601
 7481SOL    HW232374   1.249  12.629  13.350 -1.1319 -0.0469 -0.9830
 7482SOL     OW32375  11.762   4.398   1.257 -0.1668 -0.1403  0.3642
 7482SOL    HW132376  11.744   4.304   1.254  1.4452 -0.4693  0.0970
 7482SOL    HW232377  11.827   4.412   1.188  0.3804  0.9733  1.0782
 7483SOL     OW32378  12.875  11.394   0.967  0.1565 -0.2369  0.1089
 7483SOL    HW132379  12.833  11.387   0.882  1.4166 -0.6254 -0.4942
 7483SOL    HW232380  12.842  11.477   1.003 -0.4352 -0.1033 -0.7126
 7484SOL     OW32381  10.485   6.566   5.892  0.3802  0.1719  0.1703
 7484SOL    HW132382  10.459   6.498   5.954  0.5783  1.2832  1.5142
 7484SOL    HW232383  10.565   6.533   5.852  1.2391  0.1809  1.8068
 7485SOL     OW32384  11.437  11.700   5.887  0.0200  0.0202  0.0991
 7485SOL    HW132385  11.429  11.616   5.932  3.1274 -0.9794 -0.9572
 7485SOL    HW232386  11.443  11.765   5.957  2.2986 -1.2337  1.1794
 7486SOL     OW32387   1.613   3.272   3.307  0.5312 -0.4124 -0.3114
 7486SOL    HW132388   1.690   3.216   3.323  0.1164 -0.8505  0.1999
 7486SOL    HW232389   1.638   3.326   3.231  1.3838 -0.4638 -0.0782
 7487SOL     OW32390   2.311   5.412   5.260  0.1627 -0.5456 -0.2666
 7487SOL    HW132391   2.248   5.474   5.297 -0.5205 -1.4672  0.1591
 7487SOL    HW232392   2.378   5.402   5.328  0.7081  0.3033 -0.6514
 7488SOL     OW32393   7.661   0.917   8.853  0.5528  0.5878  0.2338
 7488SOL    HW132394   7.579   0.965   8.835 -1.8728 -3.0211  0.6551
 7488SOL    HW232395   7.666   0.914   8.949  1.5027  1.1753  0.2158
 7489SOL     OW32396  10.997   8.360   3.605 -0.1354  0.0531 -0.5224
 7489SOL    HW132397  11.016   8.280   3.556  0.2043 -0.0153 -0.2762
 7489SOL    HW232398  10.901   8.361   3.613 -0.0355 -1.5465  1.5169
 7490SOL     OW32399   4.972  12.405   4.215 -0.3745 -0.1061 -0.1899
 7490SOL    HW132400   4.918  12.330   4.189 -2.5657  1.3831 -0.1428
 7490SOL    HW232401   4.944  12.476   4.159  0.3071  1.1870  1.0381
 7491SOL     OW32402   2.514   3.457  13.082  0.2417 -0.4612  0.0793
 7491SOL    HW132403   2.596   3.440  13.035  0.2693  0.8556 -0.4032
 7491SOL    HW232404   2.455   3.491  13.015 -0.0651  0.4172  0.7759
 7492SOL     OW32405   5.422   3.884  12.683 -0.8043  0.1379  0.1301
 7492SOL    HW132406   5.397   3.829  12.757  0.2985  0.9762  1.1733
 7492SOL    HW232407   5.340   3.902  12.637 -1.6127  0.0685  1.5027
 7493SOL     OW32408  13.256   1.346   2.710  0.3847  0.2615 -0.4785
 7493SOL    HW132409  13.241   1.441   2.713 -0.4304  0.1989 -1.7186
 7493SOL    HW232410  13.195   1.310   2.773  0.8817  0.5737  0.1913
 7494SOL     OW32411   5.900   9.215   4.273 -0.3086  0.7856 -0.5503
 7494SOL    HW132412   5.822   9.208   4.217 -0.6012 -0.2926 -0.0393
 7494SOL    HW232413   5.899   9.305   4.305 -1.0907  0.9106 -0.9058
 7495SOL     OW32414   5.515   0.020  10.194 -0.2516 -0.3146  0.3237
 7495SOL    HW132415   5.458   0.059  10.128 -2.3704  0.8863  2.6873
 7495SOL    HW232416   5.570   0.093  10.224  2.1248 -1.2865 -1.3676
 7496SOL     OW32417  11.693   9.077   1.182  0.1886  0.2165 -0.0444
 7496SOL    HW132418  11.701   9.020   1.258 -0.9568  0.0329 -0.0471
 7496SOL    HW232419  11.675   9.164   1.220  0.1610  0.2295 -0.0870
 7497SOL     OW32420   1.619   0.249   6.829 -0.0258 -0.9087  0.3405
 7497SOL    HW132421   1.532   0.217   6.854  0.0034 -0.5145  0.9715
 7497SOL    HW232422   1.603   0.329   6.780  0.0046 -0.4362  1.0914
 7498SOL     OW32423   7.793   7.572  11.564  0.2427  0.4426  0.0901
 7498SOL    HW132424   7.887   7.588  11.552  0.1689 -0.0537 -1.3815
 7498SOL    HW232425   7.761   7.552  11.476 -1.4141  1.4541  0.4191
 7499SOL     OW32426   7.485   0.141  10.835  0.1076 -0.3666  0.2606
 7499SOL    HW132427   7.411   0.114  10.781  0.6094  0.4388 -0.8843
 7499SOL    HW232428   7.474   0.236  10.845  1.7697  0.0519 -1.2646
 7500SOL     OW32429   6.790   4.757   4.275 -0.0143 -0.1763 -0.0220
 7500SOL    HW132430   6.836   4.763   4.192  0.0015 -0.8106 -0.0622
 7500SOL    HW232431   6.846   4.803   4.337  1.5617 -2.3633  0.2990
 7501SOL     OW32432  10.005   7.220  12.850  0.5448  0.4541 -0.1929
 7501SOL    HW132433   9.972   7.213  12.940 -0.2569  0.7219 -0.4529
 7501SOL    HW232434   9.929   7.251  12.800  1.1807  0.9900 -0.8374
 7502SOL     OW32435  11.503   3.341   8.801 -0.1978 -0.0795  0.1236
 7502SOL    HW132436  11.547   3.260   8.828 -1.5956  0.5542  5.5732
 7502SOL    HW232437  11.572   3.407   8.804  0.4672 -0.5702 -2.1234
 7503SOL     OW32438  11.209  12.868   9.871  0.3862 -0.4592 -0.5486
 7503SOL    HW132439  11.223  12.832   9.783  1.5102 -1.2973 -0.0593
 7503SOL    HW232440  11.240  12.799   9.929  2.2804  1.1348  0.4542
 7504SOL     OW32441   2.496  13.206   4.312 -0.1335 -0.3894 -0.0272
 7504SOL    HW132442   2.567  13.190   4.251 -0.9539  0.2937 -1.1966
 7504SOL    HW232443   2.522  13.285   4.359  0.1082 -0.4357 -0.0818
 7505SOL     OW32444   0.251   8.601   1.504  0.0262  0.0900  0.1336
 7505SOL    HW132445   0.340   8.633   1.498  0.1458 -0.3165 -0.3105
 7505SOL    HW232446   0.203   8.648   1.436  0.1408 -0.4497 -0.3319
 7506SOL     OW32447   2.142   3.500   0.382 -0.0613  0.4221 -0.1523
 7506SOL    HW132448   2.128   3.435   0.451  1.7216  0.3616  0.2132
 7506SOL    HW232449   2.201   3.456   0.320  0.7825  1.5009 -0.1491
 7507SOL     OW32450  12.798   4.251   6.300 -0.3567 -0.1637  0.4111
 7507SOL    HW132451  12.893   4.240   6.311 -0.3715  0.6538  1.6722
 7507SOL    HW232452  12.771   4.177   6.247  0.9400 -0.6142  0.3356
 7508SOL     OW32453   6.438  10.262   2.672  0.2131  0.3012  0.0837
 7508SOL    HW132454   6.399  10.175   2.684  2.1045 -0.9270 -1.8022
 7508SOL    HW232455   6.532  10.248   2.688  0.5186  2.0790  0.0323
 7509SOL     OW32456   4.789   2.949  13.264  0.0054  0.4169  0.4212
 7509SOL    HW132457   4.856   3.013  13.288 -0.8772  1.5142  0.0782
 7509SOL    HW232458   4.731   2.997  13.205 -0.1838 -0.9860 -0.5892
 7510SOL     OW32459   0.014  11.472   9.884  0.0902  0.6776 -0.3082
 7510SOL    HW132460   0.094  11.514   9.917 -0.1392  2.6012 -1.9547
 7510SOL    HW232461   0.023  11.477   9.789 -0.1749 -2.8266 -0.6155
 7511SOL     OW32462   8.078   4.414   6.108 -0.5693  0.5010 -0.7506
 7511SOL    HW132463   7.999   4.381   6.150 -0.3485 -0.7919 -1.3253
 7511SOL    HW232464   8.046   4.481   6.047 -1.1266  0.6355 -0.3150
 7512SOL     OW32465  12.440   6.666   9.998  0.8865  0.8792 -0.3865
 7512SOL    HW132466  12.455   6.760  10.007 -0.4477  1.1713 -0.9734
 7512SOL    HW232467  12.448   6.649   9.905  0.3092  0.5764 -0.3850
 7513SOL     OW32468  10.596   5.185   4.872 -0.0610  0.1126  0.0189
 7513SOL    HW132469  10.508   5.147   4.872 -0.5653  1.1717  1.3267
 7513SOL    HW232470  10.584   5.272   4.911  1.5254  0.3675 -0.0056
 7514SOL     OW32471   6.541   3.474   1.379 -0.1954 -0.7375  0.4218
 7514SOL    HW132472   6.547   3.413   1.305  0.6004 -1.2141  0.8643
 7514SOL    HW232473   6.461   3.448   1.425 -0.7076 -0.4244 -0.2727
 7515SOL     OW32474   2.342   8.103   0.823 -0.0098  0.4315 -0.6218
 7515SOL    HW132475   2.253   8.120   0.853  0.7598  2.0269  0.9114
 7515SOL    HW232476   2.384   8.057   0.895  0.8569  1.1120 -0.6798
 7516SOL     OW32477   7.017  11.368   1.280 -0.6103  0.1300 -0.1378
 7516SOL    HW132478   6.933  11.394   1.317 -0.3906 -0.9844  1.1958
 7516SOL    HW232479   6.997  11.294   1.223 -0.5919  0.1230 -0.1351
 7517SOL     OW32480  12.294   9.434  12.515 -0.9976  0.0797  0.1038
 7517SOL    HW132481  12.280   9.349  12.473 -0.6417 -0.9154  1.9129
 7517SOL    HW232482  12.387   9.452  12.502 -0.6116 -0.7975  1.3760
 7518SOL     OW32483   6.735   3.726   2.477 -0.0084 -0.0297 -0.5469
 7518SOL    HW132484   6.743   3.742   2.383 -0.5710 -0.0591 -0.6010
 7518SOL    HW232485   6.761   3.808   2.517 -0.9331  0.3843 -0.7667
 7519SOL     OW32486  10.433   9.541   2.732 -0.0287  0.5948  0.1400
 7519SOL    HW132487  10.493   9.499   2.794 -0.5008 -0.6718 -0.2231
 7519SOL    HW232488  10.485   9.611   2.692 -0.1112  2.3300  2.8781
 7520SOL     OW32489   5.903   7.847   3.671 -0.1834  0.0028 -0.1608
 7520SOL    HW132490   5.977   7.892   3.630 -0.5163 -1.1752 -2.2165
 7520SOL    HW232491   5.935   7.759   3.689 -0.2784  0.2801  1.5599
 7521SOL     OW32492  11.446   9.790  11.639  0.1210 -0.3083  0.4424
 7521SOL    HW132493  11.523   9.815  11.589  0.5048  0.5713  1.4313
 7521SOL    HW232494  11.433   9.862  11.701 -1.0900 -0.7642  0.7537
 7522SOL     OW32495   0.037   9.356  11.812 -0.0990 -0.2795 -0.0119
 7522SOL    HW132496   0.073   9.293  11.750 -0.8818 -1.5244  0.7554
 7522SOL    HW232497  -0.036   9.310  11.853 -0.6184  1.0946  0.6682
 7523SOL     OW32498  12.201   5.670  11.270 -0.1190  0.1049  0.0992
 7523SOL    HW132499  12.122   5.635  11.310 -0.0385 -0.9275 -0.6378
 7523SOL    HW232500  12.171   5.746  11.220 -0.5628  0.0303  0.2485
 7524SOL     OW32501   2.780  11.549   2.954  0.1840 -0.4401  0.0671
 7524SOL    HW132502   2.755  11.490   3.024 -0.4622 -1.5119 -1.0292
 7524SOL    HW232503   2.864  11.516   2.923 -0.1303 -0.7496 -0.4809
 7525SOL     OW32504   4.417   4.286   5.757  0.2882 -0.2508  0.1099
 7525SOL    HW132505   4.433   4.270   5.664  2.6477 -0.2164  0.4346
 7525SOL    HW232506   4.504   4.285   5.796 -0.6918 -0.8761  2.4380
 7526SOL     OW32507   6.875  11.420   6.888 -0.3941  0.0428  0.0989
 7526SOL    HW132508   6.924  11.426   6.970 -1.8035  0.3909  0.9526
 7526SOL    HW232509   6.939  11.440   6.820  1.1967 -1.8354  0.9535
 7527SOL     OW32510  10.817   9.068  10.389  0.0790 -0.4551 -0.2522
 7527SOL    HW132511  10.819   9.111  10.474  0.9702  0.2553 -0.6132
 7527SOL    HW232512  10.870   9.124  10.332 -2.1574  0.1966 -1.8206
 7528SOL     OW32513   9.413   9.360   4.429 -0.0359  0.1086  0.6933
 7528SOL    HW132514   9.451   9.438   4.469 -0.8211  0.6609  0.3975
 7528SOL    HW232515   9.447   9.287   4.481 -0.7456  0.7826  2.1564
 7529SOL     OW32516   7.426   2.623   2.063  0.6904 -0.4692 -0.6065
 7529SOL    HW132517   7.521   2.634   2.057  1.0748 -2.2433  0.9154
 7529SOL    HW232518   7.402   2.662   2.147  0.4977 -1.9848  0.0921
 7530SOL     OW32519   3.062   4.953  10.913  0.6452  0.1184  0.1053
 7530SOL    HW132520   2.975   4.914  10.898  0.0495  1.5562 -0.3346
 7530SOL    HW232521   3.048   5.015  10.984  2.1154 -2.1032  2.5053
 7531SOL     OW32522   7.504   9.891   8.383 -0.5099  0.7473  0.5658
 7531SOL    HW132523   7.579   9.931   8.338 -1.2579  1.7414  0.1882
 7531SOL    HW232524   7.483   9.814   8.329  1.9438 -1.2392  2.1586
 7532SOL     OW32525   3.961  12.128  12.817 -0.3428 -0.0760  0.1374
 7532SOL    HW132526   3.993  12.051  12.769 -0.6441  0.1801 -0.4780
 7532SOL    HW232527   3.959  12.099  12.908  0.2201 -0.5747 -0.0001
 7533SOL     OW32528  11.602  12.853   7.744 -0.2091  0.1012 -0.4347
 7533SOL    HW132529  11.642  12.810   7.820 -0.9814 -0.3161 -0.2504
 7533SOL    HW232530  11.652  12.821   7.669  0.4645  0.3989 -0.1218
 7534SOL     OW32531   2.474   5.481   8.979 -0.2901 -0.5157 -0.0983
 7534SOL    HW132532   2.441   5.563   8.942 -1.6373 -0.5139  1.0223
 7534SOL    HW232533   2.413   5.461   9.050  1.2854 -1.3491  1.0705
 7535SOL     OW32534   8.351   8.279   0.977  0.5631 -0.4967  0.0682
 7535SOL    HW132535   8.409   8.329   0.920 -0.5643  0.9428  0.1397
 7535SOL    HW232536   8.297   8.228   0.917  2.5581 -2.7337  0.0152
 7536SOL     OW32537  11.633   9.987   9.257 -0.5939 -0.2975  1.1407
 7536SOL    HW132538  11.549   9.995   9.213 -0.6895  0.1130  1.3923
 7536SOL    HW232539  11.652  10.075   9.289  0.4969 -0.0983  0.0492
 7537SOL     OW32540   2.998   5.457  11.697 -0.2958 -0.2227  0.5635
 7537SOL    HW132541   3.006   5.508  11.778 -0.4711  1.1637 -0.2538
 7537SOL    HW232542   2.904   5.441  11.689 -0.2208 -0.9013  0.9320
 7538SOL     OW32543   3.827  13.109   4.784 -0.2847  0.1083 -0.3037
 7538SOL    HW132544   3.872  13.043   4.731 -1.0088  0.1477 -0.9951
 7538SOL    HW232545   3.849  13.087   4.874  0.3581 -0.4229 -0.5782
 7539SOL     OW32546  12.647   5.691   8.644  0.0447 -0.0549 -0.4952
 7539SOL    HW132547  12.578   5.650   8.698  0.1416  0.8734  0.3745
 7539SOL    HW232548  12.686   5.619   8.596 -0.2324 -0.8974  0.4974
 7540SOL     OW32549   3.034   7.793   7.972  0.5350 -0.0135  0.1863
 7540SOL    HW132550   3.122   7.759   7.991  1.3633  1.0234 -1.5353
 7540SOL    HW232551   3.043   7.888   7.980 -0.2817  0.1361 -0.5853
 7541SOL     OW32552  12.521   0.874   6.539 -0.2476 -0.5007 -0.2330
 7541SOL    HW132553  12.438   0.829   6.524 -0.2937 -0.4889 -0.0185
 7541SOL    HW232554  12.504   0.964   6.512 -0.4801 -0.3638  0.3451
 7542SOL     OW32555   2.099  12.753   7.522  0.5890  0.0033  0.0567
 7542SOL    HW132556   2.014  12.772   7.483  0.6293  1.9257  0.7894
 7542SOL    HW232557   2.079  12.739   7.615  0.9380 -0.8240  0.0155
 7543SOL     OW32558  10.726  11.816   8.896 -0.6164  0.0834  0.0364
 7543SOL    HW132559  10.787  11.841   8.965  0.2363  0.9524 -1.0039
 7543SOL    HW232560  10.737  11.882   8.828 -1.3665 -0.7959 -0.9878
 7544SOL     OW32561   2.887   5.320   4.412  0.1913  0.6049  0.5593
 7544SOL    HW132562   2.877   5.386   4.344 -1.3065 -0.5039 -0.3471
 7544SOL    HW232563   2.923   5.368   4.487 -0.7273  2.4143 -0.1091
 7545SOL     OW32564   5.298   4.576  10.801  0.6356  0.7293  0.3021
 7545SOL    HW132565   5.249   4.651  10.766 -2.4705 -1.1244  0.3001
 7545SOL    HW232566   5.356   4.550  10.730 -1.3735  0.6022 -1.3954
 7546SOL     OW32567   3.432   2.016   5.196  0.5406 -0.0767  0.0627
 7546SOL    HW132568   3.366   2.062   5.247 -0.0330  0.2873 -0.9883
 7546SOL    HW232569   3.396   2.012   5.107  1.8673  0.0225 -0.5046
 7547SOL     OW32570  10.216   7.112   2.467 -0.2114  0.1351 -0.0963
 7547SOL    HW132571  10.192   7.187   2.412 -0.6937 -0.5880 -0.9009
 7547SOL    HW232572  10.308   7.127   2.488 -0.4954  1.3438  0.4088
 7548SOL     OW32573   4.766   6.224   5.048 -0.5998  0.4088  0.0817
 7548SOL    HW132574   4.774   6.219   4.953  0.5528  0.4825  0.1594
 7548SOL    HW232575   4.831   6.289   5.074  0.6800 -1.2134  1.1148
 7549SOL     OW32576   2.614  12.413   8.178  0.1635 -0.2636  0.5768
 7549SOL    HW132577   2.553  12.362   8.125  2.2540 -0.6292 -1.6640
 7549SOL    HW232578   2.599  12.504   8.150  2.2004 -0.5621 -1.9325
 7550SOL     OW32579   2.951   8.034   5.682 -0.3511 -0.8580  0.2898
 7550SOL    HW132580   2.957   8.090   5.605  0.1402  1.2378  1.7560
 7550SOL    HW232581   3.022   7.971   5.673  0.8983  0.5718 -0.0816
 7551SOL     OW32582  10.447   4.440  12.904  0.4931  0.1294 -0.1537
 7551SOL    HW132583  10.542   4.428  12.910  0.5535 -1.1010 -2.4108
 7551SOL    HW232584  10.436   4.533  12.884  1.1313  0.4904  1.0727
 7552SOL     OW32585   2.966  11.076   5.065 -0.1797 -0.0230 -0.0664
 7552SOL    HW132586   3.057  11.051   5.076  0.1512  0.3571 -1.7127
 7552SOL    HW232587   2.918  10.994   5.065  0.1882 -0.2427  0.4833
 7553SOL     OW32588  12.995  10.753  10.865 -0.0585  0.0941  0.2161
 7553SOL    HW132589  12.962  10.838  10.836 -0.6720 -0.9627 -2.5855
 7553SOL    HW232590  12.925  10.718  10.920 -0.2656  0.9384  0.5123
 7554SOL     OW32591   4.467  12.890   2.073 -0.3129  0.1817  0.4256
 7554SOL    HW132592   4.437  12.905   1.984 -1.2844  0.8854  0.8551
 7554SOL    HW232593   4.438  12.968   2.121 -2.5707 -1.5265  2.0381
 7555SOL     OW32594  11.722   6.926  10.038 -0.3170 -0.2532  0.1503
 7555SOL    HW132595  11.734   7.008  10.086 -0.0607  0.1092 -0.5213
 7555SOL    HW232596  11.732   6.950   9.946  0.3140 -1.1352 -0.0274
 7556SOL     OW32597  12.106   8.703   7.814 -0.4562 -0.1090 -0.3610
 7556SOL    HW132598  12.132   8.724   7.724  0.9669  1.3518  0.3237
 7556SOL    HW232599  12.134   8.779   7.864 -3.2057  0.0910  1.0343
 7557SOL     OW32600   8.647   0.445   1.342 -0.2341 -0.0092 -0.3251
 7557SOL    HW132601   8.589   0.467   1.415 -1.3829 -0.0761 -1.1870
 7557SOL    HW232602   8.715   0.390   1.381 -0.2634  0.7412  0.8695
 7558SOL     OW32603   7.767  11.664   1.999  0.3109  1.0668 -0.4564
 7558SOL    HW132604   7.833  11.720   1.960 -0.1475  1.5662 -0.5258
 7558SOL    HW232605   7.801  11.644   2.086  0.5752  1.2770 -0.5098
 7559SOL     OW32606  11.320  11.176  11.220  0.2374  0.1222  0.1994
 7559SOL    HW132607  11.395  11.207  11.271  0.1445 -0.3993  0.6654
 7559SOL    HW232608  11.244  11.210  11.266  0.1494 -0.4558  0.4885
 7560SOL     OW32609   2.303   3.890  13.003 -0.3606 -0.4125 -0.0667
 7560SOL    HW132610   2.242   3.947  13.049  0.6471  0.5846  0.0579
 7560SOL    HW232611   2.389   3.912  13.039  0.9075  2.3058 -4.1168
 7561SOL     OW32612   0.736  12.836  10.787  1.1322 -0.2441  0.0017
 7561SOL    HW132613   0.705  12.766  10.845  2.1368 -0.7939 -0.0935
 7561SOL    HW232614   0.831  12.839  10.802  1.1775  0.7309 -0.4079
 7562SOL     OW32615   1.310   2.751  13.048  0.2239 -0.1668  0.0512
 7562SOL    HW132616   1.231   2.713  13.009 -0.3733  0.5838  0.5036
 7562SOL    HW232617   1.381   2.696  13.015 -0.4769 -0.8363 -0.3938
 7563SOL     OW32618   1.440  11.804  12.052  0.0006  0.3683 -0.1085
 7563SOL    HW132619   1.500  11.775  11.983  2.2863  2.7615  0.6989
 7563SOL    HW232620   1.371  11.851  12.005  1.0335  1.1881 -0.8459
 7564SOL     OW32621   5.863  13.273   7.949  0.2120 -0.3013  0.4148
 7564SOL    HW132622   5.897  13.363   7.939  0.5235 -0.5519 -1.1649
 7564SOL    HW232623   5.768  13.283   7.952  0.2884  0.1689  1.5465
 7565SOL     OW32624   3.810   3.785   0.659 -0.1851 -0.2062  0.4300
 7565SOL    HW132625   3.762   3.723   0.603 -0.6332  0.0073  0.5706
 7565SOL    HW232626   3.758   3.865   0.654 -0.7745 -0.4654  1.9177
 7566SOL     OW32627   2.851  12.182  11.615 -0.2422  0.3555  0.1631
 7566SOL    HW132628   2.766  12.137  11.620  0.1052 -0.3729 -0.2812
 7566SOL    HW232629   2.903  12.143  11.685  0.4043 -0.7021 -0.8836
 7567SOL     OW32630   3.637   1.723   3.451 -0.2021  0.5182 -0.1963
 7567SOL    HW132631   3.700   1.789   3.421 -0.4600  2.1950  2.5658
 7567SOL    HW232632   3.582   1.770   3.515  1.3434 -2.8447  4.1174
 7568SOL     OW32633   7.951   7.555   8.638 -0.1021 -0.5748  0.1982
 7568SOL    HW132634   7.878   7.495   8.628 -0.7432 -0.2023  2.1645
 7568SOL    HW232635   7.924   7.615   8.708  1.0126  1.2338 -0.8343
 7569SOL     OW32636   9.608   0.271   2.560 -0.0507 -0.2255 -0.0569
 7569SOL    HW132637   9.639   0.314   2.640 -0.5635  1.4057 -0.6886
 7569SOL    HW232638   9.674   0.292   2.494 -0.3788 -0.2946 -0.4099
 7570SOL     OW32639   4.798   0.200  10.412  0.8088  0.5466  0.3586
 7570SOL    HW132640   4.712   0.213  10.373  1.1822 -0.0188 -0.6993
 7570SOL    HW232641   4.819   0.283  10.454  0.1731  1.0164 -0.2421
 7571SOL     OW32642   5.860   0.892   4.169  0.9524  0.0299  0.0741
 7571SOL    HW132643   5.858   0.849   4.254  0.6212 -2.1421 -0.9579
 7571SOL    HW232644   5.926   0.961   4.178  1.9674 -1.0917  1.6651
 7572SOL     OW32645   6.846   0.759   8.372  0.0127 -0.0139  0.5550
 7572SOL    HW132646   6.915   0.698   8.347  1.1929  1.5186 -0.1453
 7572SOL    HW232647   6.877   0.799   8.453 -0.8361 -0.4647  1.1171
 7573SOL     OW32648   4.953   5.837   2.520 -0.6615 -0.3005 -0.3705
 7573SOL    HW132649   4.946   5.928   2.491  1.7060  0.4098  1.0781
 7573SOL    HW232650   4.862   5.809   2.529 -1.4699  1.3744 -2.3910
 7574SOL     OW32651   2.324  12.452  10.963  0.0015 -0.2715  0.3918
 7574SOL    HW132652   2.407  12.413  10.937 -0.5988 -0.9258 -0.6008
 7574SOL    HW232653   2.280  12.384  11.015  0.0642  0.0578  0.8850
 7575SOL     OW32654   1.306  11.209   3.116 -0.2208 -0.2266  0.0928
 7575SOL    HW132655   1.304  11.140   3.049 -1.5391  0.8193 -1.0173
 7575SOL    HW232656   1.351  11.282   3.074 -0.9135  0.3891  0.4066
 7576SOL     OW32657   2.755  11.767  12.018  0.2422  0.5360  0.3955
 7576SOL    HW132658   2.729  11.859  12.019 -1.1612  0.2334 -1.6878
 7576SOL    HW232659   2.849  11.768  12.001 -0.1220  1.6334 -1.9892
 7577SOL     OW32660   5.143  11.888   7.884 -0.0618 -0.1871  0.1548
 7577SOL    HW132661   5.152  11.921   7.974  0.3227 -0.7128  0.3145
 7577SOL    HW232662   5.123  11.966   7.832  0.9131  0.3141  0.5121
 7578SOL     OW32663   9.638  13.016   2.900  0.1617  0.4314 -0.0277
 7578SOL    HW132664   9.636  12.990   2.993  2.2175 -0.2764 -0.1198
 7578SOL    HW232665   9.599  13.103   2.899 -1.0606 -0.0590  1.3024
 7579SOL     OW32666   5.641  12.640   2.431  0.0370  0.0456 -0.1858
 7579SOL    HW132667   5.730  12.666   2.456  0.4961 -0.0231 -1.6384
 7579SOL    HW232668   5.585  12.678   2.498  0.9686  2.0880 -0.4977
 7580SOL     OW32669   0.966   9.988   5.804  0.2891 -0.5558 -0.5119
 7580SOL    HW132670   0.889   9.935   5.788  0.5513 -0.7615 -1.1354
 7580SOL    HW232671   0.941  10.048   5.875 -1.0506  0.6252 -1.9142
 7581SOL     OW32672  10.806   7.391  11.474  0.2004  0.9565 -0.0946
 7581SOL    HW132673  10.836   7.472  11.516 -0.5967  0.8143  0.7695
 7581SOL    HW232674  10.824   7.323  11.538  0.7040  0.4570 -0.7507
 7582SOL     OW32675   4.058   7.746  10.632 -0.0434  0.1060 -0.0187
 7582SOL    HW132676   4.029   7.742  10.541  0.3145 -0.2597 -0.1187
 7582SOL    HW232677   4.055   7.656  10.663  0.4578  0.1350  0.1332
 7583SOL     OW32678   2.419  10.509   7.236 -0.8314  0.2320  0.0526
 7583SOL    HW132679   2.438  10.436   7.177 -2.4306  0.1106 -0.3630
 7583SOL    HW232680   2.504  10.547   7.255  0.4698 -3.3333  2.4022
 7584SOL     OW32681   6.857  13.194  13.227 -0.1445 -0.4276 -0.5967
 7584SOL    HW132682   6.855  13.109  13.271  0.3996 -0.5037 -0.7048
 7584SOL    HW232683   6.947  13.226  13.241  0.5706 -1.1691 -2.9938
 7585SOL     OW32684   7.969   0.729   6.148  0.1835 -0.6372  0.3995
 7585SOL    HW132685   8.061   0.710   6.169  0.3768  0.2293  0.3726
 7585SOL    HW232686   7.970   0.752   6.055  0.2699  1.2833  0.8335
 7586SOL     OW32687  13.076   4.984   9.305 -0.5564 -0.3135 -0.2242
 7586SOL    HW132688  13.044   5.012   9.391  0.6897 -1.2502  0.5981
 7586SOL    HW232689  13.021   4.910   9.282 -1.1361  0.1699 -0.4214
 7587SOL     OW32690  11.866  10.031   6.840  0.2090 -0.0641 -0.4303
 7587SOL    HW132691  11.923  10.105   6.821  0.9419 -0.5829 -0.3028
 7587SOL    HW232692  11.812  10.020   6.762 -1.8832  2.3098  0.5258
 7588SOL     OW32693  13.221   7.907   6.645 -0.3059  0.1390  0.0325
 7588SOL    HW132694  13.228   7.831   6.702 -1.1636  0.0464  0.0271
 7588SOL    HW232695  13.127   7.925   6.640 -0.2480  0.1878 -1.2942
 7589SOL     OW32696   2.531   1.519  11.061 -0.1396  0.3831  0.4937
 7589SOL    HW132697   2.467   1.590  11.068 -1.9581 -1.3394  2.7403
 7589SOL    HW232698   2.576   1.519  11.146 -0.5964 -1.4849  0.7647
 7590SOL     OW32699  10.337   3.125   4.970  0.1838  0.4809 -0.0711
 7590SOL    HW132700  10.427   3.145   4.997 -0.1994  0.0954  1.5744
 7590SOL    HW232701  10.310   3.052   5.026 -0.9105  0.0919 -1.0535
 7591SOL     OW32702   1.062  12.291   5.173 -0.0913  0.3467  0.2471
 7591SOL    HW132703   1.026  12.221   5.119 -0.4667  0.7674 -0.0544
 7591SOL    HW232704   1.142  12.254   5.211  0.5442  0.2741 -1.1169
 7592SOL     OW32705   5.437  11.848  11.042  0.2827 -0.1684 -0.3851
 7592SOL    HW132706   5.377  11.864  11.115  0.2919 -0.9642 -0.1924
 7592SOL    HW232707   5.393  11.887  10.966  0.3342  0.7904  0.0523
 7593SOL     OW32708   9.730   5.063   5.031 -0.1487 -0.4176  0.1177
 7593SOL    HW132709   9.808   5.117   5.047 -0.8580  1.0062 -1.0165
 7593SOL    HW232710   9.658   5.111   5.072 -0.3814 -2.0976  1.8235
 7594SOL     OW32711   4.383   7.013   6.680  0.5900  0.2350  0.0972
 7594SOL    HW132712   4.432   7.077   6.628  0.7887  1.1126  1.3407
 7594SOL    HW232713   4.420   6.928   6.654  1.1873  0.7143 -0.6532
 7595SOL     OW32714   2.703   3.382  12.220 -0.1724  0.2758  0.0754
 7595SOL    HW132715   2.681   3.318  12.151  2.8086  0.8267 -1.5750
 7595SOL    HW232716   2.640   3.453  12.207 -0.6441 -0.3115 -1.0959
 7596SOL     OW32717   7.805   4.717  11.282 -0.1814  0.5271 -0.0036
 7596SOL    HW132718   7.837   4.631  11.309  0.7397  1.0199  0.4824
 7596SOL    HW232719   7.718   4.724  11.323 -0.8312 -0.6864 -1.0956
 7597SOL     OW32720   7.255  11.696   9.827 -0.6455 -0.2507  0.2056
 7597SOL    HW132721   7.321  11.718   9.761 -0.8933 -1.8284 -0.6138
 7597SOL    HW232722   7.185  11.760   9.813  0.4516  1.1226  0.7534
 7598SOL     OW32723   7.294   4.379   3.912  0.1929  0.0359 -0.3139
 7598SOL    HW132724   7.235   4.329   3.969 -0.2032  1.1135  0.2499
 7598SOL    HW232725   7.320   4.317   3.844 -0.4655 -0.8672  0.2377
 7599SOL     OW32726   7.205  12.567   9.737 -0.4245 -0.5128  0.4593
 7599SOL    HW132727   7.289  12.571   9.690 -0.6007 -0.3229  0.1569
 7599SOL    HW232728   7.195  12.474   9.759 -1.2789 -0.9758 -1.6123
 7600SOL     OW32729  10.419   9.438   6.576  0.0307  0.1469 -0.2444
 7600SOL    HW132730  10.454   9.519   6.614 -2.1485  1.1513 -0.2532
 7600SOL    HW232731  10.497   9.385   6.559  1.3436  0.7859  2.9598
 7601SOL     OW32732   7.990   9.674   6.843 -0.0921  0.0243  0.2232
 7601SOL    HW132733   7.919   9.694   6.783  0.6038  0.6505 -0.4194
 7601SOL    HW232734   8.051   9.621   6.791  1.3177  1.9519 -0.1749
 7602SOL     OW32735   7.816  10.891  12.114 -0.2185 -0.3995  0.0587
 7602SOL    HW132736   7.901  10.855  12.138  0.3163  0.5569 -0.3149
 7602SOL    HW232737   7.830  10.986  12.113 -1.7850 -0.0903  1.8589
 7603SOL     OW32738  11.779  11.207   5.752 -0.4485  0.0905 -0.0614
 7603SOL    HW132739  11.751  11.168   5.669 -0.3265  0.1708 -0.1424
 7603SOL    HW232740  11.763  11.140   5.818  0.6443 -0.4653 -0.3348
 7604SOL     OW32741  11.670  11.069   3.027 -0.5088 -0.4756  0.0224
 7604SOL    HW132742  11.686  11.090   2.935 -1.3586 -0.0361 -0.0383
 7604SOL    HW232743  11.617  11.142   3.059 -0.7903 -0.9604  0.6828
 7605SOL     OW32744   0.668   0.678   2.501  0.0371  0.3488 -0.1492
 7605SOL    HW132745   0.574   0.675   2.479  0.1167 -0.2295 -0.4357
 7605SOL    HW232746   0.674   0.740   2.574 -0.6083  0.1781  0.0548
 7606SOL     OW32747   1.475   9.151   9.497  0.1579  0.1950 -0.0919
 7606SOL    HW132748   1.531   9.227   9.482 -0.5571  0.6216 -0.6477
 7606SOL    HW232749   1.390   9.187   9.522  0.0110 -0.4374  0.3540
 7607SOL     OW32750  11.316   8.482   0.235 -0.1396  0.0390 -0.3545
 7607SOL    HW132751  11.324   8.514   0.325 -2.5623 -1.0832  0.3547
 7607SOL    HW232752  11.397   8.434   0.219  0.7234  1.0246  0.8878
 7608SOL     OW32753   0.145   0.551   0.021 -0.4256  0.5837  0.1789
 7608SOL    HW132754   0.234   0.583   0.038 -1.0791  1.2245  2.8910
 7608SOL    HW232755   0.100   0.625  -0.018 -0.4811  1.2555  1.4496
 7609SOL     OW32756   2.597   9.670   1.622  0.2974  0.1101  0.0568
 7609SOL    HW132757   2.589   9.698   1.713 -0.3655  1.0210 -0.2706
 7609SOL    HW232758   2.517   9.621   1.604  0.6156 -0.4296  0.0765
 7610SOL     OW32759   5.888   2.447  12.697 -0.8193 -0.2117 -0.6074
 7610SOL    HW132760   5.919   2.517  12.754 -1.0123 -1.8084  1.6134
 7610SOL    HW232761   5.957   2.437  12.632  0.4512  0.3590  0.5962
 7611SOL     OW32762  13.050   1.521  11.879  0.6400  0.8167 -0.3701
 7611SOL    HW132763  12.982   1.454  11.873  0.0432  1.4056 -0.4109
 7611SOL    HW232764  13.008   1.600  11.844  1.1954  1.3011  0.0351
 7612SOL     OW32765   2.640   4.510  11.233  0.1434 -0.3507 -0.5586
 7612SOL    HW132766   2.682   4.572  11.294 -2.5551  0.5145  0.5392
 7612SOL    HW232767   2.616   4.563  11.157 -0.4442 -0.4819 -0.4639
 7613SOL     OW32768   1.461   8.590  10.618  0.3229 -0.0020 -0.1537
 7613SOL    HW132769   1.374   8.623  10.596  0.4363  0.6301  0.3013
 7613SOL    HW232770   1.447   8.538  10.698  0.4189  0.4135  0.1358
 7614SOL     OW32771   4.325   3.106  12.411 -0.1762 -0.6562 -0.3400
 7614SOL    HW132772   4.258   3.101  12.344 -0.4135 -0.4511 -0.1206
 7614SOL    HW232773   4.378   3.182  12.386 -0.1638 -0.6808 -0.3885
 7615SOL     OW32774   9.882  12.487   5.535  0.0616  0.0456 -0.1289
 7615SOL    HW132775   9.848  12.399   5.552  0.4008  0.1928  1.4921
 7615SOL    HW232776   9.975  12.481   5.558  0.6162  0.2682 -2.1844
 7616SOL     OW32777   9.421  10.832   2.157  0.3256  0.1394  0.4288
 7616SOL    HW132778   9.414  10.836   2.253  1.2853 -0.7769  0.5538
 7616SOL    HW232779   9.379  10.750   2.133 -1.3646  1.1046 -0.1343
 7617SOL     OW32780  12.937   8.348  11.139 -0.1436 -0.1661 -0.5807
 7617SOL    HW132781  12.861   8.314  11.093  0.2441  0.7434 -1.9589
 7617SOL    HW232782  13.010   8.294  11.108  0.0296  0.0557 -0.5629
 7618SOL     OW32783   3.589   6.778   8.693 -0.0971  0.2404  0.0782
 7618SOL    HW132784   3.630   6.768   8.779 -0.5234  1.4091  0.4340
 7618SOL    HW232785   3.586   6.873   8.679  0.5668  0.0516 -1.5267
 7619SOL     OW32786  12.953  10.180   9.733 -0.0341  0.2140  0.2014
 7619SOL    HW132787  13.006  10.228   9.795  0.9410  0.6846 -0.9540
 7619SOL    HW232788  12.991  10.092   9.731 -2.0302 -0.8242  2.5746
 7620SOL     OW32789   8.506  12.564  10.933  0.6526  0.3189  0.0782
 7620SOL    HW132790   8.422  12.547  10.974  0.5534  0.1521 -0.1925
 7620SOL    HW232791   8.569  12.564  11.005  0.3318  1.1015  0.3679
 7621SOL     OW32792   3.612  10.875   6.267  0.2278 -0.0197 -0.2184
 7621SOL    HW132793   3.575  10.787   6.270  0.5254 -0.1254  1.3872
 7621SOL    HW232794   3.540  10.932   6.294  0.0598  0.2375 -1.1759
 7622SOL     OW32795  11.775   7.600   3.377  0.0883  0.1522 -0.2866
 7622SOL    HW132796  11.728   7.559   3.304  0.1067  1.4940 -1.0945
 7622SOL    HW232797  11.772   7.694   3.356  0.5973  0.5016  1.1575
 7623SOL     OW32798   5.459   8.012   8.127 -0.1464 -1.0177 -0.1864
 7623SOL    HW132799   5.478   8.011   8.220 -4.4539  0.4627  0.9565
 7623SOL    HW232800   5.538   8.048   8.086  1.1279  0.3296  3.1305
 7624SOL     OW32801   5.631   7.074  10.081 -0.8978 -0.1867 -0.4207
 7624SOL    HW132802   5.598   7.134  10.147  0.9694  1.7477 -1.1314
 7624SOL    HW232803   5.712   7.039  10.119 -1.7048 -1.9179 -0.2253
 7625SOL     OW32804  11.680  10.364   1.931 -0.2193  1.2177  0.0310
 7625SOL    HW132805  11.704  10.418   1.856  3.4950  1.9036  1.5005
 7625SOL    HW232806  11.665  10.426   2.002 -0.7548  0.4890  0.5729
 7626SOL     OW32807   7.740   5.846   1.258  0.4395 -0.2740 -0.3503
 7626SOL    HW132808   7.677   5.917   1.270  0.6480 -0.1142 -0.2031
 7626SOL    HW232809   7.693   5.781   1.204  0.7537  0.6151 -1.7380
 7627SOL     OW32810  13.045   4.854  13.204 -0.2767  0.6899 -0.1831
 7627SOL    HW132811  13.049   4.829  13.112  4.0872  0.6855 -0.1644
 7627SOL    HW232812  13.008   4.777  13.247  0.3051 -0.4496 -1.6312
 7628SOL     OW32813   4.666   5.627  10.412 -0.1326 -0.3264 -0.6361
 7628SOL    HW132814   4.661   5.692  10.342  0.1355 -1.4942 -1.7705
 7628SOL    HW232815   4.714   5.671  10.482 -1.3631  1.2449 -0.7293
 7629SOL     OW32816  10.208   9.626   3.571  0.1913 -0.3438  0.2831
 7629SOL    HW132817  10.183   9.685   3.643  0.7174 -0.0692  0.2410
 7629SOL    HW232818  10.140   9.559   3.572 -0.9953  0.8086 -0.3251
 7630SOL     OW32819  12.741  10.593   5.350  0.1043 -0.2811 -0.0367
 7630SOL    HW132820  12.763  10.634   5.267  0.2256 -1.3382 -0.5392
 7630SOL    HW232821  12.823  10.555   5.381 -0.0362 -0.2821  0.3415
 7631SOL     OW32822  11.726  10.075   6.600 -0.3961 -0.6141 -0.0385
 7631SOL    HW132823  11.646  10.116   6.569 -0.9466 -1.2215  0.5441
 7631SOL    HW232824  11.795  10.139   6.581 -1.1508  0.3417  0.3678
 7632SOL     OW32825   1.961  13.165   2.566  0.0088  0.0397 -0.2462
 7632SOL    HW132826   1.946  13.124   2.651 -0.4988 -0.4749 -0.5752
 7632SOL    HW232827   1.873  13.181   2.531  0.2057 -0.5230 -1.0334
 7633SOL     OW32828  10.267   7.589   0.269 -0.3346  0.1460 -0.1685
 7633SOL    HW132829  10.304   7.500   0.263 -0.0252  0.0150  2.5399
 7633SOL    HW232830  10.184   7.578   0.315  0.4983  1.3897  1.7391
 7634SOL     OW32831   6.009  12.167   2.718 -0.2405 -0.1513  0.0205
 7634SOL    HW132832   5.951  12.242   2.727  0.1531  0.2833 -0.8678
 7634SOL    HW232833   5.974  12.120   2.642  0.1989 -0.2264 -0.1359
 7635SOL     OW32834  12.621   6.603   5.131  0.4644  0.0221 -0.6294
 7635SOL    HW132835  12.599   6.691   5.161  0.3900 -0.4014  0.6239
 7635SOL    HW232836  12.553   6.547   5.168 -0.0179 -0.4645 -2.1755
 7636SOL     OW32837   7.572   6.957  12.483 -0.1841 -0.6356  0.0779
 7636SOL    HW132838   7.522   6.969  12.402 -0.1657 -0.6016  0.0714
 7636SOL    HW232839   7.581   7.046  12.519  2.1277 -0.2538 -1.2645
 7637SOL     OW32840  10.517   3.416   9.767 -0.1344 -0.0095  0.2880
 7637SOL    HW132841  10.610   3.435   9.763 -0.0978 -0.3499 -0.8701
 7637SOL    HW232842  10.503   3.381   9.855  0.7769  0.2523  0.5450
 7638SOL     OW32843   0.872   0.494   7.323  0.6822  0.4167 -0.6942
 7638SOL    HW132844   0.833   0.508   7.409  1.6018  0.7561 -0.3094
 7638SOL    HW232845   0.833   0.560   7.267  0.0334  0.1560 -0.5583
 7639SOL     OW32846   7.319  11.181   5.449  0.3219  0.0072  0.7279
 7639SOL    HW132847   7.244  11.162   5.393  0.4987  0.2352  0.4142
 7639SOL    HW232848   7.316  11.276   5.462  0.2726 -0.0430  1.1196
 7640SOL     OW32849   9.939  11.632   1.550 -0.8689 -0.3812  0.0515
 7640SOL    HW132850   9.869  11.610   1.489  0.8308 -1.9705 -1.4647
 7640SOL    HW232851   9.966  11.548   1.587 -0.1382  0.2633  1.0396
 7641SOL     OW32852   2.664   7.091  12.977  0.7002 -0.5492 -0.5964
 7641SOL    HW132853   2.703   7.003  12.973 -0.6960 -1.1720 -1.4422
 7641SOL    HW232854   2.644   7.104  13.070 -1.1147 -2.0946 -0.7283
 7642SOL     OW32855   0.579   0.546   5.081 -0.2115 -0.5249  0.0441
 7642SOL    HW132856   0.571   0.466   5.131  0.6399 -0.0026  1.0623
 7642SOL    HW232857   0.511   0.604   5.116  0.1469 -0.2873  0.3573
 7643SOL     OW32858   1.972   5.064   1.102  0.2545 -0.0786 -0.7479
 7643SOL    HW132859   2.049   5.106   1.141 -0.2482 -0.2400  0.4503
 7643SOL    HW232860   1.989   4.970   1.111 -0.8804 -0.1439  1.2397
 7644SOL     OW32861  11.407   3.486  13.271 -0.0931 -0.0856  0.8692
 7644SOL    HW132862  11.473   3.427  13.233 -1.0416  0.5369 -2.0092
 7644SOL    HW232863  11.400   3.557  13.208 -1.4581  1.3747  2.5675
 7645SOL     OW32864   3.251   7.122  12.531 -0.1497 -0.0371 -0.7875
 7645SOL    HW132865   3.216   7.081  12.453 -0.7614  0.8893 -1.0125
 7645SOL    HW232866   3.174   7.148  12.582  0.2225  0.6166 -0.5431
 7646SOL     OW32867  11.311   3.069  10.381  0.7307 -0.4289 -0.1142
 7646SOL    HW132868  11.295   3.036  10.470  1.6407 -2.8407 -0.7735
 7646SOL    HW232869  11.403   3.095  10.381  0.3514  1.0167  0.0235
 7647SOL     OW32870  12.328   3.361   1.263  0.4266  0.5080 -0.1499
 7647SOL    HW132871  12.406   3.401   1.301  0.2901  2.3062 -1.6554
 7647SOL    HW232872  12.362   3.300   1.197  0.5644  0.6695 -0.2278
 7648SOL     OW32873   6.369   2.469  11.832 -0.2333  0.1122 -0.1551
 7648SOL    HW132874   6.317   2.475  11.752  0.2821 -1.0480 -0.5925
 7648SOL    HW232875   6.444   2.527  11.817  0.0699 -0.4046 -0.6926
 7649SOL     OW32876   2.069   5.031   8.294  0.3707  0.4448  0.5329
 7649SOL    HW132877   2.081   5.093   8.367 -0.2498  2.5625 -1.0601
 7649SOL    HW232878   2.120   5.068   8.223 -1.2593 -0.0377 -0.9522
 7650SOL     OW32879   7.832   2.426   1.840  0.1551  0.1179  0.3126
 7650SOL    HW132880   7.820   2.381   1.924 -0.1355  0.2251  0.3311
 7650SOL    HW232881   7.917   2.469   1.848  0.2237 -0.0484  0.4730
 7651SOL     OW32882   3.969   9.967   0.142  0.0546  0.1405  0.0182
 7651SOL    HW132883   4.007  10.043   0.099  0.7573 -0.3633 -0.2628
 7651SOL    HW232884   4.031   9.896   0.126 -0.1718 -0.2977  0.9890
 7652SOL     OW32885   0.107   3.457   4.625  0.0289  0.7680  0.0154
 7652SOL    HW132886   0.173   3.391   4.602 -0.4546 -0.7535  2.5496
 7652SOL    HW232887   0.024   3.410   4.619 -0.4951  1.6342  0.3067
 7653SOL     OW32888  12.289   9.123   0.629  0.5545 -0.2268  0.2256
 7653SOL    HW132889  12.354   9.104   0.696  1.3346  2.0471  0.2295
 7653SOL    HW232890  12.339   9.125   0.547 -0.4907 -3.6142 -0.6339
 7654SOL     OW32891  11.847   7.157  11.156  0.1827  0.3792  0.0353
 7654SOL    HW132892  11.861   7.186  11.066 -1.1966  1.6319  0.1819
 7654SOL    HW232893  11.771   7.100  11.152  0.7515 -0.4112  0.2723
 7655SOL     OW32894   4.694   9.917  12.172 -0.0640 -0.5840  0.0763
 7655SOL    HW132895   4.776   9.947  12.131 -0.6536  0.1705 -0.5790
 7655SOL    HW232896   4.714   9.828  12.202  1.7020  0.3811  1.9783
 7656SOL     OW32897   7.293  12.784   8.908 -0.2476  0.6712  0.6489
 7656SOL    HW132898   7.227  12.841   8.868  1.0506  2.8271  1.4456
 7656SOL    HW232899   7.284  12.799   9.002  0.9116  0.4442  0.8112
 7657SOL     OW32900  11.362   1.144   3.154 -0.1543  0.5703  0.0159
 7657SOL    HW132901  11.401   1.223   3.189  0.7320  1.6685 -3.1065
 7657SOL    HW232902  11.424   1.113   3.087 -2.3264 -0.3888 -1.7147
 7658SOL     OW32903   9.395   1.917  11.271 -0.5933  0.2884 -0.0078
 7658SOL    HW132904   9.459   1.987  11.261 -0.3155  0.1601  0.8126
 7658SOL    HW232905   9.358   1.931  11.359 -1.9542  0.5861 -0.6066
 7659SOL     OW32906   8.352  12.939   5.657  0.4684 -0.1333  0.1300
 7659SOL    HW132907   8.376  12.873   5.721  1.5052  0.0912 -0.0152
 7659SOL    HW232908   8.405  13.015   5.680 -1.2051  0.9088  0.7257
 7660SOL     OW32909  10.582   6.001   8.198  0.6650 -0.0171 -0.2332
 7660SOL    HW132910  10.659   5.945   8.194 -1.0006 -2.4278 -3.8084
 7660SOL    HW232911  10.518   5.949   8.248 -0.0381 -0.0856 -1.1853
 7661SOL     OW32912  12.428   1.515  12.605  0.4798  0.6525  0.1795
 7661SOL    HW132913  12.476   1.537  12.525 -0.6880  1.7610 -0.2583
 7661SOL    HW232914  12.493   1.522  12.674  1.7332 -1.2046 -0.7331
 7662SOL     OW32915   7.146   4.628   3.904  0.9671  0.0918 -0.4962
 7662SOL    HW132916   7.203   4.568   3.952  0.0164 -0.5431 -0.1066
 7662SOL    HW232917   7.096   4.571   3.844 -0.4737  0.3497  0.3966
 7663SOL     OW32918   5.206   2.277   9.800  0.2561  0.2564 -0.2350
 7663SOL    HW132919   5.246   2.363   9.796 -0.7814  0.8554  1.2805
 7663SOL    HW232920   5.279   2.216   9.796  0.9340  1.1306 -2.4764
 7664SOL     OW32921   1.731  10.898  11.786 -0.3004  0.1050  0.1345
 7664SOL    HW132922   1.801  10.847  11.828 -0.3085 -0.7258 -0.8035
 7664SOL    HW232923   1.753  10.989  11.804 -0.6032 -0.2197  2.3687
 7665SOL     OW32924  11.816   8.410   4.418  0.3484 -0.2524 -0.0815
 7665SOL    HW132925  11.809   8.360   4.336  0.5583 -0.0846 -0.2016
 7665SOL    HW232926  11.880   8.478   4.399 -0.6008  0.6331 -0.2128
 7666SOL     OW32927  10.064  11.933   9.621 -0.0451  0.3098  0.3996
 7666SOL    HW132928  10.102  12.015   9.653  0.2280  0.0358  0.7959
 7666SOL    HW232929   9.983  11.959   9.578 -0.0550  0.7691  0.6895
 7667SOL     OW32930  10.646   9.935  10.737  0.1877  0.1732 -0.3658
 7667SOL    HW132931  10.677   9.923  10.647 -0.1081 -1.0021 -0.3186
 7667SOL    HW232932  10.634   9.846  10.770  1.2002  0.5684  1.1573
 7668SOL     OW32933   3.124   7.917   6.769  0.1647 -0.7106 -0.2328
 7668SOL    HW132934   3.127   7.914   6.674 -1.6885 -0.4050 -0.3414
 7668SOL    HW232935   3.074   7.839   6.794 -0.2870 -0.2217  0.4156
 7669SOL     OW32936   5.036   3.216   6.068 -0.4564 -0.7023 -0.0839
 7669SOL    HW132937   4.981   3.216   6.146  2.5672 -0.2252  2.2039
 7669SOL    HW232938   5.065   3.306   6.059  1.0288 -1.1849 -0.3779
 7670SOL     OW32939   5.238   5.422   3.624 -0.0505 -0.4132  0.6160
 7670SOL    HW132940   5.298   5.375   3.681  0.1280 -1.4248 -0.3542
 7670SOL    HW232941   5.171   5.356   3.601  0.4326 -0.3645 -1.1111
 7671SOL     OW32942   5.804   7.766   8.737  0.5752  0.0269  0.1639
 7671SOL    HW132943   5.838   7.801   8.655 -2.4210  0.2415 -1.1158
 7671SOL    HW232944   5.791   7.673   8.720 -1.4599  0.3379 -0.2036
 7672SOL     OW32945   9.775   4.331   2.105  0.1147  0.4640  0.1588
 7672SOL    HW132946   9.689   4.302   2.136  0.1095  1.1956  0.8633
 7672SOL    HW232947   9.809   4.257   2.055 -0.4318 -0.2811  0.8645
 7673SOL     OW32948   4.880   6.396   3.538  0.3569 -0.0741  0.1342
 7673SOL    HW132949   4.806   6.393   3.477  0.2810 -0.1787  0.2316
 7673SOL    HW232950   4.908   6.305   3.546  0.6393 -0.0101 -0.0739
 7674SOL     OW32951   9.458   2.570   4.838  0.1103  0.1345 -0.0659
 7674SOL    HW132952   9.504   2.647   4.804 -0.6290  1.0115  0.8326
 7674SOL    HW232953   9.492   2.560   4.927  1.9803 -2.0825 -0.9591
 7675SOL     OW32954   5.558   6.700   8.666  0.1752 -0.2403  0.0409
 7675SOL    HW132955   5.582   6.696   8.759  1.2191 -0.7675 -0.2332
 7675SOL    HW232956   5.489   6.766   8.662  0.6762  0.3768  1.0787
 7676SOL     OW32957   4.939  11.810   7.053  1.0634 -0.1150 -0.2773
 7676SOL    HW132958   5.025  11.809   7.013  2.1317  1.4401  1.7801
 7676SOL    HW232959   4.950  11.766   7.137 -0.4684 -0.9985 -0.4925
 7677SOL     OW32960   9.579   6.343  10.723 -0.1064  0.2786  0.1718
 7677SOL    HW132961   9.583   6.396  10.803 -0.3184  0.5052  0.0350
 7677SOL    HW232962   9.485   6.324  10.712 -0.1310  0.6443 -0.2786
 7678SOL     OW32963   7.201   2.568  13.236  0.1627  0.1197  1.0230
 7678SOL    HW132964   7.199   2.626  13.160  1.1161 -1.0361  0.0931
 7678SOL    HW232965   7.114   2.529  13.239  0.7419 -1.4114 -0.7576
 7679SOL     OW32966   7.176   0.396  10.629 -0.0521  0.1170 -0.0403
 7679SOL    HW132967   7.184   0.419  10.536  1.0861 -1.7400 -0.4576
 7679SOL    HW232968   7.085   0.369  10.640  0.3618 -1.9390 -1.2317
 7680SOL     OW32969  10.166   7.970  11.922 -0.0919  0.0817 -0.4313
 7680SOL    HW132970  10.205   8.024  11.991  0.0702  0.3325 -0.7181
 7680SOL    HW232971  10.239   7.920  11.886  0.3268  1.7657 -2.1030
 7681SOL     OW32972  11.944   9.989   7.165 -0.0982 -0.1287  0.3205
 7681SOL    HW132973  11.866  10.039   7.191 -0.7842 -1.2159  0.4153
 7681SOL    HW232974  12.016  10.052   7.174 -0.9280  0.8403  0.4356
 7682SOL     OW32975  11.354   1.603   0.379 -0.3075 -0.1144 -0.2861
 7682SOL    HW132976  11.437   1.571   0.343 -0.3868 -0.9299  0.2635
 7682SOL    HW232977  11.370   1.696   0.395  0.1630 -0.0313 -1.1618
 7683SOL     OW32978   8.686  11.952   5.189  0.3775  0.1505 -0.8521
 7683SOL    HW132979   8.695  11.926   5.097  0.2008  2.8373 -1.7088
 7683SOL    HW232980   8.705  12.046   5.190 -0.5654  0.4094  1.7161
 7684SOL     OW32981   4.726   6.140   2.078  0.5378  0.1705  0.3498
 7684SOL    HW132982   4.720   6.160   1.984  0.0416  0.4597  0.4418
 7684SOL    HW232983   4.637   6.117   2.104  0.1761  2.2935  1.2262
 7685SOL     OW32984   7.487  10.293   9.179  0.2213  0.1823 -0.1615
 7685SOL    HW132985   7.577  10.328   9.175  0.4753 -0.3621  0.6277
 7685SOL    HW232986   7.468  10.286   9.272 -1.3301  1.9860 -0.2859
 7686SOL     OW32987   6.193   2.170   6.203 -0.1113  0.0225 -0.0714
 7686SOL    HW132988   6.174   2.246   6.149  0.3913 -0.1034 -0.4357
 7686SOL    HW232989   6.268   2.128   6.160 -0.9715 -1.2159 -0.4240
 7687SOL     OW32990   8.089   2.275   7.831  1.1938  0.0244 -0.6777
 7687SOL    HW132991   8.125   2.233   7.752 -0.1991 -0.7625 -0.9305
 7687SOL    HW232992   8.066   2.363   7.802  0.8334 -0.2097 -1.1300
 7688SOL     OW32993   4.277   8.110  11.931 -0.6224 -0.1508 -0.0060
 7688SOL    HW132994   4.245   8.181  11.986  3.0371  0.2230  1.9812
 7688SOL    HW232995   4.311   8.155  11.853  0.5746  0.1957  0.6941
 7689SOL     OW32996   5.573   8.161   4.678  0.4046  0.1115 -0.0975
 7689SOL    HW132997   5.496   8.196   4.722 -0.0559  0.9258 -1.4826
 7689SOL    HW232998   5.641   8.161   4.745 -0.6178  0.0105  0.9654
 7690SOL     OW32999   2.147   9.216   0.372  0.5214 -0.4101  0.1016
 7690SOL    HW133000   2.187   9.303   0.376 -0.0988 -0.1599  2.3522
 7690SOL    HW233001   2.055   9.233   0.352  0.6309 -0.6635 -0.6581
 7691SOL     OW33002   8.756   3.467   2.041 -0.0616  0.5060  0.2559
 7691SOL    HW133003   8.679   3.423   2.077  0.3257  1.0878  1.8844
 7691SOL    HW233004   8.783   3.528   2.110  1.5171  0.7261 -0.5133
 7692SOL     OW33005   1.509   0.238   9.758 -0.2866  0.0246 -0.1776
 7692SOL    HW133006   1.593   0.264   9.797  1.4651 -2.9680 -1.5665
 7692SOL    HW233007   1.507   0.283   9.673  0.0156 -0.0377 -0.2194
 7693SOL     OW33008  10.599   4.582   2.999  0.3144  0.1128 -0.3591
 7693SOL    HW133009  10.691   4.603   3.018  0.2709  3.9217 -3.0816
 7693SOL    HW233010  10.549   4.629   3.066  0.2529 -1.9574  1.1198
 7694SOL     OW33011   4.088   7.297   1.261  0.4651  0.4499  0.1902
 7694SOL    HW133012   4.094   7.202   1.263 -0.7724  0.3660  1.1848
 7694SOL    HW233013   4.012   7.316   1.206  0.3189  0.8340  0.5165
 7695SOL     OW33014  11.923  12.958   2.825 -0.0120 -0.3778 -0.6723
 7695SOL    HW133015  11.989  12.910   2.874 -1.1293 -0.2904  1.0043
 7695SOL    HW233016  11.948  12.947   2.733  2.0123 -0.7658 -0.1223
 7696SOL     OW33017   3.113   9.022  12.300  0.2141 -0.4091  0.4733
 7696SOL    HW133018   3.067   9.088  12.352 -1.7004  0.5983 -2.2806
 7696SOL    HW233019   3.198   9.061  12.281  0.0173  0.2180  0.8596
 7697SOL     OW33020   5.984   6.145   3.300 -0.3711  0.0095  0.4953
 7697SOL    HW133021   5.889   6.146   3.286 -0.3742 -0.3032  0.4723
 7697SOL    HW233022   6.020   6.113   3.217  0.1226  4.3727 -1.2552
 7698SOL     OW33023   1.149   5.991   3.453  0.0896 -0.1666 -0.0024
 7698SOL    HW133024   1.148   5.904   3.493  1.6656 -0.6910 -1.0080
 7698SOL    HW233025   1.057   6.012   3.438 -0.2870 -2.0957 -0.6431
 7699SOL     OW33026  12.435  11.399   7.799  0.5157  0.9024 -0.1098
 7699SOL    HW133027  12.446  11.494   7.790 -0.0340  0.8881 -1.0747
 7699SOL    HW233028  12.340  11.386   7.789  0.3828  0.3915  1.5229
 7700SOL     OW33029   1.656  12.810   9.782  0.4901 -0.3927  0.0496
 7700SOL    HW133030   1.588  12.875   9.798  0.3788 -0.6834  0.7665
 7700SOL    HW233031   1.727  12.834   9.841  0.6524 -0.6174 -0.0525
 7701SOL     OW33032   3.754  12.404   6.071  0.7477 -0.5428  0.6837
 7701SOL    HW133033   3.706  12.334   6.114  0.8477 -0.6270  0.6593
 7701SOL    HW233034   3.688  12.471   6.052  0.4546 -1.0899 -0.2725
 7702SOL     OW33035   1.318   2.855   1.270 -0.5514 -0.2662  0.2209
 7702SOL    HW133036   1.354   2.864   1.357  0.7155  1.6905 -0.4585
 7702SOL    HW233037   1.237   2.907   1.271 -1.0576 -1.0355  0.4731
 7703SOL     OW33038  10.725   6.424  10.751 -0.0873  0.2612  0.1592
 7703SOL    HW133039  10.682   6.507  10.772  0.5461  0.9881 -1.2377
 7703SOL    HW233040  10.799   6.449  10.697  0.0805 -1.2327 -0.3476
 7704SOL     OW33041   6.556  10.822   7.835  0.4305 -0.2405 -0.0358
 7704SOL    HW133042   6.466  10.808   7.865  0.0580  0.6314 -0.6799
 7704SOL    HW233043   6.576  10.913   7.859  1.1209 -0.4055  0.0449
 7705SOL     OW33044   7.839   6.290  11.009 -0.0933 -0.2051 -0.2763
 7705SOL    HW133045   7.861   6.362  11.068 -0.3995 -0.1161 -0.2734
 7705SOL    HW233046   7.829   6.331  10.923 -0.0257 -0.2805 -0.3208
 7706SOL     OW33047  11.867   0.006   4.858  0.1671  0.2764 -0.2402
 7706SOL    HW133048  11.839   0.042   4.774 -0.7716  1.9285  0.7438
 7706SOL    HW233049  11.947  -0.042   4.837 -0.6659 -0.3795 -2.2720
 7707SOL     OW33050  12.303  12.598   6.405 -0.0749 -0.0104  0.0227
 7707SOL    HW133051  12.356  12.677   6.396  0.6948 -0.6198 -1.1419
 7707SOL    HW233052  12.238  12.620   6.471 -0.1899  1.7555 -0.6229
 7708SOL     OW33053  11.682   7.523  11.999 -0.1050  0.0614 -0.2801
 7708SOL    HW133054  11.718   7.435  11.992  1.1981  0.5381  0.1366
 7708SOL    HW233055  11.626   7.532  11.921 -1.6276 -1.7035  0.5276
 7709SOL     OW33056   4.381   3.104   8.719  0.4136  0.2393 -0.5048
 7709SOL    HW133057   4.473   3.104   8.693  0.0375  0.8434 -1.9027
 7709SOL    HW233058   4.382   3.066   8.807  1.9527 -0.0835 -0.6220
 7710SOL     OW33059   8.591   4.416   1.372  0.0764 -0.3575  0.0342
 7710SOL    HW133060   8.508   4.441   1.333 -0.6352 -0.9409  1.1474
 7710SOL    HW233061   8.651   4.487   1.349  0.0894 -1.2319 -3.2271
 7711SOL     OW33062   8.935  11.943  12.279 -0.2326  0.2733 -0.5400
 7711SOL    HW133063   8.960  11.920  12.368 -0.7851  0.6851 -0.2772
 7711SOL    HW233064   8.868  11.879  12.255 -1.3677  1.2430 -0.0097
 7712SOL     OW33065   6.653   6.551  13.239  0.2216  0.6412 -0.2290
 7712SOL    HW133066   6.735   6.539  13.287 -0.5017  0.2608  0.9565
 7712SOL    HW233067   6.633   6.464  13.204  0.2277  0.6884 -0.3486
 7713SOL     OW33068  13.033   7.530   5.197 -0.3475 -0.2184  0.3730
 7713SOL    HW133069  13.054   7.601   5.258  0.3746 -0.3348  0.2627
 7713SOL    HW233070  12.956   7.562   5.149  0.5730  0.9231 -0.3839
 7714SOL     OW33071   7.735   3.923   1.816 -0.3509  0.2989 -0.6303
 7714SOL    HW133072   7.769   4.012   1.822 -0.2865  0.3492 -1.6786
 7714SOL    HW233073   7.756   3.884   1.901  0.3549  1.0213 -0.4603
 7715SOL     OW33074   2.019   0.594   5.901  0.8462  0.1924 -0.1178
 7715SOL    HW133075   2.061   0.550   5.827  0.3887  0.2652 -0.4265
 7715SOL    HW233076   1.926   0.576   5.889  0.6037  1.5632 -0.4746
 7716SOL     OW33077   3.079   1.123   3.190  0.7372 -0.0168  0.2096
 7716SOL    HW133078   3.073   1.218   3.196 -0.1234 -0.1156  1.0651
 7716SOL    HW233079   2.992   1.095   3.160  0.0201 -0.7219  2.7413
 7717SOL     OW33080   0.143  11.591  12.927  0.6311  0.1254 -0.1192
 7717SOL    HW133081   0.158  11.530  12.999 -1.3963  0.5573  0.7233
 7717SOL    HW233082   0.179  11.546  12.850 -0.6355 -2.0865  0.4967
 7718SOL     OW33083   4.224   8.083   5.212 -0.2669  0.5272  0.1881
 7718SOL    HW133084   4.239   8.040   5.296  0.6633  1.1297  0.3428
 7718SOL    HW233085   4.194   8.171   5.235 -0.2065  0.6273 -0.1082
 7719SOL     OW33086   1.567   5.716  12.107 -0.0680  0.3917 -0.0197
 7719SOL    HW133087   1.565   5.626  12.076 -1.1807  0.5374 -0.4310
 7719SOL    HW233088   1.617   5.763  12.040 -1.5352  0.5004 -1.0910
 7720SOL     OW33089  11.305   0.532   1.134  0.1676  0.1574  0.2422
 7720SOL    HW133090  11.367   0.605   1.148  0.6656 -0.1393 -0.3865
 7720SOL    HW233091  11.225   0.574   1.103  0.2627  0.4871  0.4358
 7721SOL     OW33092   3.758  11.819   0.374 -0.1902  0.7526  0.1718
 7721SOL    HW133093   3.848  11.844   0.393 -0.2429  0.4891  0.8077
 7721SOL    HW233094   3.726  11.782   0.456 -0.4359 -0.4399 -0.4297
 7722SOL     OW33095   3.283   8.144   1.565 -0.0449  0.1730  0.7283
 7722SOL    HW133096   3.371   8.142   1.604 -0.3274  0.9383  1.4166
 7722SOL    HW233097   3.289   8.210   1.496  0.2289 -0.6053 -0.0158
 7723SOL     OW33098  10.460   9.639  12.265  0.5636  0.2339  0.1539
 7723SOL    HW133099  10.437   9.570  12.327 -0.0529  0.2904 -0.0022
 7723SOL    HW233100  10.550   9.619  12.239 -0.0171 -1.2447 -0.8328
 7724SOL     OW33101   6.687   6.364   1.108 -0.6168 -0.3680  0.1130
 7724SOL    HW133102   6.720   6.453   1.113  1.2603 -0.9883 -0.4417
 7724SOL    HW233103   6.634   6.363   1.028 -0.5406  0.2102  0.0542
 7725SOL     OW33104  10.835   1.532  13.243  0.5051  0.2424 -0.6894
 7725SOL    HW133105  10.754   1.549  13.195 -0.3672  2.0610  1.2822
 7725SOL    HW233106  10.905   1.548  13.179 -0.6237  1.0232 -1.7763
 7726SOL     OW33107   5.732   8.686   2.788  0.0099  0.0690 -0.1285
 7726SOL    HW133108   5.650   8.690   2.837 -0.7732  2.1305 -1.4630
 7726SOL    HW233109   5.706   8.693   2.696  1.6839  1.8104 -0.5335
 7727SOL     OW33110   3.394   3.269  10.697 -0.0416  0.4539  0.2911
 7727SOL    HW133111   3.300   3.261  10.683 -0.0011 -1.4318  0.8341
 7727SOL    HW233112   3.402   3.295  10.789 -0.0247 -0.0690  0.4394
 7728SOL     OW33113   1.644   0.443   3.251  1.0474  0.2486 -0.3515
 7728SOL    HW133114   1.604   0.461   3.336  0.9773  0.2880 -0.3919
 7728SOL    HW233115   1.618   0.518   3.197 -0.9666 -0.9417 -1.1301
 7729SOL     OW33116   0.379   4.666   2.750 -0.2837  0.2783  0.3622
 7729SOL    HW133117   0.318   4.736   2.774 -0.9625 -0.8853  2.2140
 7729SOL    HW233118   0.456   4.683   2.804 -0.1972 -0.0511  0.3393
 7730SOL     OW33119  13.252  10.990   3.899 -0.3276 -0.4061 -0.3336
 7730SOL    HW133120  13.340  11.021   3.880 -0.8723  0.6963 -1.1963
 7730SOL    HW233121  13.260  10.895   3.903  1.1720 -0.2679  1.1207
 7731SOL     OW33122   1.623  10.373   6.368 -0.5231 -0.3487 -1.1241
 7731SOL    HW133123   1.618  10.421   6.285 -0.1919 -0.2165 -1.0680
 7731SOL    HW233124   1.691  10.308   6.354 -0.7953 -0.6344 -1.1123
 7732SOL     OW33125   5.277   0.219   6.289  0.3487 -0.3828 -0.2620
 7732SOL    HW133126   5.342   0.286   6.309 -1.4826  1.4686 -0.1979
 7732SOL    HW233127   5.243   0.193   6.374 -1.0698  0.8641 -0.4206
 7733SOL     OW33128  11.133  10.316  10.837  0.4895 -0.3162  0.2936
 7733SOL    HW133129  11.223  10.350  10.833  1.2004 -1.9189  1.3070
 7733SOL    HW233130  11.143  10.230  10.877 -1.5563 -0.4325  0.6317
 7734SOL     OW33131   2.283   0.652   8.407  0.4146  0.1214  0.0238
 7734SOL    HW133132   2.325   0.739   8.407 -0.0644  0.3546 -0.0501
 7734SOL    HW233133   2.204   0.664   8.354  0.4686 -0.4224 -0.1805
 7735SOL     OW33134   6.322   8.881   5.893  0.3893 -0.2544  0.1049
 7735SOL    HW133135   6.260   8.902   5.963 -1.9401 -0.7714 -1.6708
 7735SOL    HW233136   6.377   8.812   5.929 -1.5871 -1.4156  1.0522
 7736SOL     OW33137   2.717   0.602   7.470  0.0597 -0.1601 -0.1893
 7736SOL    HW133138   2.661   0.662   7.421 -1.2018 -1.6581 -0.6413
 7736SOL    HW233139   2.658   0.562   7.534  1.6340  1.7777  2.7376
 7737SOL     OW33140   2.460   0.495   4.010  0.5171 -0.8651 -0.0856
 7737SOL    HW133141   2.541   0.518   4.055  0.6751 -0.3000 -0.6514
 7737SOL    HW233142   2.393   0.548   4.052  0.6914 -0.2161 -0.6146
 7738SOL     OW33143   8.897   2.369  10.077 -0.0906 -0.0035  0.0948
 7738SOL    HW133144   8.962   2.298  10.079  0.5907  0.6181  0.6276
 7738SOL    HW233145   8.949   2.448  10.060 -1.0957  0.1152 -2.9372
 7739SOL     OW33146   9.123   7.818  11.910 -0.2185 -0.2776  0.7637
 7739SOL    HW133147   9.199   7.779  11.868 -0.1573  1.6003 -0.9995
 7739SOL    HW233148   9.144   7.817  12.004  0.9218 -1.8651  0.5292
 7740SOL     OW33149  11.929   3.064   7.314 -0.2854 -0.3760 -0.6765
 7740SOL    HW133150  12.010   3.015   7.306  0.6396  1.1387 -0.9753
 7740SOL    HW233151  11.871   3.027   7.248 -0.2165 -2.1108  0.1753
 7741SOL     OW33152   1.574  11.745   8.207 -0.1139  0.1400  0.3567
 7741SOL    HW133153   1.619  11.766   8.125  0.4406 -1.4815  0.2076
 7741SOL    HW233154   1.597  11.817   8.266  1.2288  0.2576 -0.2727
 7742SOL     OW33155   6.846   8.377  11.282 -0.0227  0.1081  0.4845
 7742SOL    HW133156   6.800   8.313  11.337 -0.4928 -0.8493 -0.9493
 7742SOL    HW233157   6.784   8.397  11.212  0.4835  1.4415  0.3824
 7743SOL     OW33158   0.857  11.329   2.024 -0.1064 -0.3694 -0.3845
 7743SOL    HW133159   0.946  11.334   2.058 -0.2286  0.4237 -0.1704
 7743SOL    HW233160   0.816  11.411   2.051 -1.3330 -1.3055  0.6833
 7744SOL     OW33161   0.085   1.772  12.862 -0.4492  0.4115  0.0906
 7744SOL    HW133162   0.088   1.768  12.958 -2.0602  0.7518  0.1829
 7744SOL    HW233163   0.092   1.680  12.834 -2.2839  0.0648  0.6583
 7745SOL     OW33164  10.056   4.419  10.345  0.0465  0.7068 -0.2769
 7745SOL    HW133165  10.072   4.431  10.438  1.3923 -2.3020 -0.0145
 7745SOL    HW233166   9.962   4.437  10.334  0.0323  1.9312  1.4471
 7746SOL     OW33167   4.921   4.651   3.896  0.0146  0.2140  0.1819
 7746SOL    HW133168   4.979   4.722   3.869  2.7873 -1.3756  1.6098
 7746SOL    HW233169   4.961   4.572   3.859 -2.8154 -0.7520 -1.1083
 7747SOL     OW33170  10.450   4.042   2.621  0.5691  0.5051 -0.7471
 7747SOL    HW133171  10.359   4.060   2.644  0.3825 -0.2550 -0.8605
 7747SOL    HW233172  10.481   4.123   2.582  0.7700  1.7218  1.7133
 7748SOL     OW33173   7.810   4.443  11.440  0.0215  0.0767  0.0145
 7748SOL    HW133174   7.891   4.492  11.456  0.5552 -0.9772  0.6824
 7748SOL    HW233175   7.828   4.393  11.361 -0.1115  0.1178 -0.0420
 7749SOL     OW33176  11.600  11.090  12.599 -0.2084  0.8707 -0.0371
 7749SOL    HW133177  11.669  11.065  12.662  1.1060 -1.1041 -2.0910
 7749SOL    HW233178  11.617  11.182  12.581  1.1158  0.7619  0.4685
 7750SOL     OW33179   5.827   6.616  11.138 -0.1907 -0.2434  0.1022
 7750SOL    HW133180   5.862   6.644  11.223 -0.7983 -1.5689  0.8288
 7750SOL    HW233181   5.905   6.594  11.086  0.1512 -0.7615  0.8154
 7751SOL     OW33182  10.382  10.355   0.044 -0.6303  0.0532  0.0850
 7751SOL    HW133183  10.360  10.264   0.063 -1.5850  0.3358  0.3643
 7751SOL    HW233184  10.476  10.361   0.062 -0.1527 -1.3102 -1.6520
 7752SOL     OW33185  12.169   1.658   5.739 -0.5293  0.6674  0.0793
 7752SOL    HW133186  12.120   1.578   5.760  0.0945 -0.4822 -2.4359
 7752SOL    HW233187  12.142   1.721   5.806 -1.4485 -1.4667  1.8575
 7753SOL     OW33188   9.859   9.288   4.142  0.3115 -0.1291  0.3136
 7753SOL    HW133189   9.904   9.268   4.224  2.8179 -0.4814 -1.0381
 7753SOL    HW233190   9.795   9.217   4.132  1.0016 -0.9056  1.2446
 7754SOL     OW33191   0.762  10.823   6.508  0.6000  0.4530  0.7058
 7754SOL    HW133192   0.712  10.883   6.564  0.2366  0.5575  0.2801
 7754SOL    HW233193   0.820  10.777   6.568 -1.1467 -0.8690  1.4669
 7755SOL     OW33194   7.979   3.067   2.340  0.0023  0.3559 -0.3180
 7755SOL    HW133195   7.980   3.112   2.425 -0.5630  1.3092 -0.7966
 7755SOL    HW233196   8.055   3.009   2.343 -0.7538 -0.6182  1.3477
 7756SOL     OW33197  13.266  12.719  10.713  0.5865  0.3941 -0.1194
 7756SOL    HW133198  13.329  12.666  10.761  1.4810  2.2274  0.8354
 7756SOL    HW233199  13.305  12.731  10.627  0.6779 -0.0082 -0.1312
 7757SOL     OW33200   3.945   1.510   7.413 -0.4488  0.0463 -0.4320
 7757SOL    HW133201   3.913   1.570   7.346 -2.0625  0.5592  0.7564
 7757SOL    HW233202   3.964   1.566   7.489  1.7096 -0.4673 -0.5089
 7758SOL     OW33203   9.508   5.518   3.989  0.9381 -0.1076 -0.1509
 7758SOL    HW133204   9.516   5.572   3.910  1.0453 -0.6238 -0.5005
 7758SOL    HW233205   9.443   5.564   4.043 -0.2671 -0.5217 -1.1975
 7759SOL     OW33206  11.429   3.888   0.087  0.2140  0.0445  0.2248
 7759SOL    HW133207  11.459   3.864  -0.001 -0.5604 -0.3333  0.0578
 7759SOL    HW233208  11.509   3.910   0.134  0.4879  2.6864 -1.2906
 7760SOL     OW33209   0.916   0.907   2.221  0.6041  0.3040  0.0563
 7760SOL    HW133210   0.952   0.989   2.253  0.5735  0.0702  0.6925
 7760SOL    HW233211   0.992   0.852   2.200  0.6532 -0.3619  1.8341
 7761SOL     OW33212   5.409   8.538   8.781 -0.0853 -0.3879 -0.0332
 7761SOL    HW133213   5.501   8.536   8.807 -0.1867  0.6707  0.4690
 7761SOL    HW233214   5.363   8.504   8.858 -0.0619 -1.9757 -0.6842
 7762SOL     OW33215   3.960   7.426  10.590 -0.0371  0.1607  0.0663
 7762SOL    HW133216   3.874   7.388  10.577  1.3112 -3.1642  0.0184
 7762SOL    HW233217   3.961   7.453  10.681 -1.8290  2.4834 -0.4971
 7763SOL     OW33218   0.996   3.549   6.861 -0.1624  0.0652  0.1073
 7763SOL    HW133219   1.009   3.543   6.955 -0.4763 -0.6332  0.1062
 7763SOL    HW233220   1.024   3.464   6.827  1.4096  0.8108 -0.6068
 7764SOL     OW33221  11.221  12.246   6.168 -0.0065  0.1186  0.5319
 7764SOL    HW133222  11.178  12.194   6.101  0.4475 -0.7346  0.8897
 7764SOL    HW233223  11.314  12.240   6.148 -0.0293  2.1128 -0.3495
 7765SOL     OW33224   5.797   0.504   1.010  0.4992 -0.2731 -0.4674
 7765SOL    HW133225   5.856   0.577   1.031 -1.0847  0.5966  1.2925
 7765SOL    HW233226   5.724   0.545   0.964 -0.6944 -0.6049  1.0560
 7766SOL     OW33227   5.805   8.111   0.894 -0.2561 -0.8247  0.0236
 7766SOL    HW133228   5.739   8.180   0.892  0.4685 -0.0298  1.9450
 7766SOL    HW233229   5.755   8.031   0.911 -1.0392 -0.7676 -1.7263
 7767SOL     OW33230   7.107   8.576   5.576 -0.0408 -0.0588  0.1503
 7767SOL    HW133231   7.050   8.524   5.519 -0.1688  0.1204  0.1140
 7767SOL    HW233232   7.154   8.634   5.517  0.3692 -0.3820  0.1558
 7768SOL     OW33233   5.898  11.735  10.458 -0.1668  0.3403  0.2417
 7768SOL    HW133234   5.927  11.775  10.376 -3.0308 -0.5546 -1.3211
 7768SOL    HW233235   5.812  11.774  10.475 -0.4138 -0.8035  1.8750
 7769SOL     OW33236   0.607   4.608  12.821  0.2796 -0.0991  0.4816
 7769SOL    HW133237   0.613   4.680  12.757  0.3106  1.4714  2.1515
 7769SOL    HW233238   0.698   4.588  12.842  0.2702  0.7311  1.4056
 7770SOL     OW33239   7.255   0.086   7.869  0.3987 -0.4028  0.1440
 7770SOL    HW133240   7.207   0.115   7.947 -0.5473  0.4395 -0.7283
 7770SOL    HW233241   7.234  -0.007   7.861 -0.2392 -0.2843  0.3863
 7771SOL     OW33242  12.506   7.761  11.285  0.8952  0.2456  0.3391
 7771SOL    HW133243  12.474   7.819  11.354 -1.6498 -2.2837  1.4865
 7771SOL    HW233244  12.592   7.732  11.316  0.7336  0.8193  1.3737
 7772SOL     OW33245   7.940   0.045  10.122 -0.1904  0.6927  0.2173
 7772SOL    HW133246   7.869   0.107  10.140 -0.4171  0.7761 -0.9009
 7772SOL    HW233247   7.901  -0.041  10.134 -0.5796  0.7327 -0.6855
 7773SOL     OW33248   2.503   4.716  10.707  0.3808 -0.1645 -0.4795
 7773SOL    HW133249   2.422   4.689  10.751  1.2462 -1.8980  0.1510
 7773SOL    HW233250   2.477   4.730  10.616 -0.6162 -0.8548 -0.3156
 7774SOL     OW33251   5.686  10.208   3.133  0.1434 -0.5923  0.7360
 7774SOL    HW133252   5.690  10.268   3.059  0.4529  0.7568  1.7913
 7774SOL    HW233253   5.733  10.130   3.104  0.5077  0.0210 -0.3829
 7775SOL     OW33254   7.287   6.648   7.516 -0.5989  0.1976 -0.1043
 7775SOL    HW133255   7.328   6.587   7.454  2.6538  1.6860  0.3630
 7775SOL    HW233256   7.284   6.600   7.598 -1.2973 -0.4557 -0.4934
 7776SOL     OW33257   2.803   7.370   4.003 -0.2810  0.0616  0.3281
 7776SOL    HW133258   2.758   7.318   3.935  0.7219 -0.5169  0.0832
 7776SOL    HW233259   2.858   7.431   3.954  1.8955 -1.6052  0.5354
 7777SOL     OW33260   1.889  11.831   3.210  0.3945 -0.3822 -0.5637
 7777SOL    HW133261   1.913  11.900   3.271  1.1675 -1.2294  0.1175
 7777SOL    HW233262   1.973  11.798   3.177  0.0058 -0.2329 -1.7677
 7778SOL     OW33263   4.795   1.601   9.015 -0.1176 -0.4354 -0.2070
 7778SOL    HW133264   4.732   1.673   9.006  0.7356  0.3117 -0.4029
 7778SOL    HW233265   4.762   1.550   9.089 -0.8769  0.0142 -0.2211
 7779SOL     OW33266   6.561   9.004   3.907  0.2384  0.0885 -0.4942
 7779SOL    HW133267   6.647   8.992   3.948 -0.3816 -1.7262  0.3944
 7779SOL    HW233268   6.501   9.014   3.980 -0.4005  0.7668 -1.0957
 7780SOL     OW33269   2.095   9.692   9.697 -0.4400 -0.1356  0.2095
 7780SOL    HW133270   2.126   9.721   9.783 -0.3542  0.9779 -0.1878
 7780SOL    HW233271   2.175   9.677   9.647 -0.4311 -2.1016  0.6985
 7781SOL     OW33272   3.975   0.380  11.399  1.1149  0.3926 -0.0930
 7781SOL    HW133273   3.933   0.407  11.481 -0.1238  0.8612 -0.8571
 7781SOL    HW233274   4.024   0.301  11.422  0.5442  0.3465  1.0258
 7782SOL     OW33275   2.889   1.311   7.216  0.5585 -0.3462  0.0213
 7782SOL    HW133276   2.964   1.278   7.266  0.1161 -1.3908  0.0242
 7782SOL    HW233277   2.860   1.236   7.164 -0.3261  0.1179 -0.1713
 7783SOL     OW33278   9.333  13.140   6.997  0.2542 -0.1390  0.2370
 7783SOL    HW133279   9.309  13.199   6.925 -0.0711 -0.1045  0.3709
 7783SOL    HW233280   9.296  13.181   7.075  1.0291  0.0745  0.5005
 7784SOL     OW33281   0.053   0.184   5.485  0.0049  0.2582  0.2116
 7784SOL    HW133282   0.130   0.172   5.540 -0.5974 -0.0050  1.0166
 7784SOL    HW233283  -0.018   0.200   5.547 -0.8106 -0.7145 -0.4402
 7785SOL     OW33284  11.216   2.060  11.094  0.1877 -0.1029  0.0285
 7785SOL    HW133285  11.284   2.077  11.029  0.8709  0.1757  0.7915
 7785SOL    HW233286  11.187   2.147  11.122  1.8141 -0.1336  2.0270
 7786SOL     OW33287   6.417  12.455   5.546 -0.1311 -0.8145  0.0355
 7786SOL    HW133288   6.493  12.415   5.587  0.2873  0.7324  0.8337
 7786SOL    HW233289   6.449  12.539   5.512 -1.6917  0.3854  1.3662
 7787SOL     OW33290   3.101  13.310   2.179 -0.1138 -0.1696 -0.0101
 7787SOL    HW133291   3.010  13.328   2.154 -0.6670 -1.8666  0.6491
 7787SOL    HW233292   3.121  13.226   2.138  1.4767  0.5684 -0.8505
 7788SOL     OW33293   6.098   1.779  12.944 -0.1231  0.2078 -0.3517
 7788SOL    HW133294   6.115   1.697  12.992 -0.4627 -0.4174 -1.2734
 7788SOL    HW233295   6.184   1.815  12.928  0.0732 -0.3533 -0.5841
 7789SOL     OW33296  12.955   3.121   8.428  0.4843 -0.8702 -0.4333
 7789SOL    HW133297  13.000   3.053   8.378  1.6533 -1.5675  1.4855
 7789SOL    HW233298  13.025   3.175   8.465 -0.3996  0.7244 -0.9888
 7790SOL     OW33299   1.636   2.851   9.596 -0.4131 -0.1736 -0.2737
 7790SOL    HW133300   1.553   2.893   9.619 -0.6324 -1.5073  1.6755
 7790SOL    HW233301   1.680   2.837   9.681  0.6969 -1.6665 -1.0434
 7791SOL     OW33302  10.961   7.384   9.765 -0.4028  0.3050 -0.2371
 7791SOL    HW133303  10.981   7.468   9.722  0.8256 -0.9879 -2.4169
 7791SOL    HW233304  10.882   7.353   9.720  0.2878 -0.5816 -0.8800
 7792SOL     OW33305   5.645   3.926   5.647  0.1268 -0.2240 -0.3716
 7792SOL    HW133306   5.582   3.902   5.578  0.1209  1.2959 -0.9376
 7792SOL    HW233307   5.720   3.961   5.599  1.0580 -1.1837  0.3372
 7793SOL     OW33308   1.480   0.460   1.641 -0.1671  0.2045  0.8127
 7793SOL    HW133309   1.505   0.377   1.679 -1.3840  0.4021  2.1265
 7793SOL    HW233310   1.402   0.440   1.588 -1.2827  0.6659  2.1937
 7794SOL     OW33311   6.038   8.745   3.650 -0.7179  0.0037  0.1149
 7794SOL    HW133312   6.096   8.801   3.599 -2.2281  1.3059 -0.2651
 7794SOL    HW233313   6.059   8.764   3.741  0.4255 -0.6327 -0.0035
 7795SOL     OW33314   3.460   2.102   2.034  0.5121 -0.2504  0.9060
 7795SOL    HW133315   3.487   2.011   2.022  1.4448  0.2077 -0.8666
 7795SOL    HW233316   3.365   2.098   2.045  0.0424 -1.2689 -2.4168
 7796SOL     OW33317   7.735   5.414  11.446  0.4197  0.7233  0.0097
 7796SOL    HW133318   7.781   5.497  11.456  0.9963  0.2545  1.6444
 7796SOL    HW233319   7.775   5.357  11.512  0.9591 -1.2729 -1.9266
 7797SOL     OW33320  11.350   5.641   2.152  0.5643 -0.1778 -0.0619
 7797SOL    HW133321  11.430   5.591   2.139  0.6789  0.1606 -0.7149
 7797SOL    HW233322  11.378   5.719   2.201  0.6772  0.0649 -0.5147
 7798SOL     OW33323   8.387   0.503  10.763 -0.0877  0.2120  0.1571
 7798SOL    HW133324   8.308   0.501  10.710 -1.3252 -0.1061  1.9495
 7798SOL    HW233325   8.388   0.418  10.808  0.8712  0.5107  0.7274
 7799SOL     OW33326   0.989   6.321   7.832  0.1262  1.3600  0.4390
 7799SOL    HW133327   0.982   6.252   7.898 -2.5176  0.5405 -0.5899
 7799SOL    HW233328   1.055   6.289   7.770 -0.3087  0.2197  0.5386
 7800SOL     OW33329   3.101   0.106   3.931 -0.0954  0.3188 -0.4411
 7800SOL    HW133330   3.128   0.113   3.840 -2.4089  0.8533 -1.1541
 7800SOL    HW233331   3.027   0.166   3.938  0.6314  1.0507  2.0672
 7801SOL     OW33332   9.653  10.767  11.885 -0.2235  0.4108 -0.7478
 7801SOL    HW133333   9.578  10.720  11.849 -2.2218  0.9031  2.3874
 7801SOL    HW233334   9.711  10.699  11.920  0.1216  0.0905 -1.9071
 7802SOL     OW33335   0.509  13.190   9.507 -0.0716  0.1996 -0.8019
 7802SOL    HW133336   0.497  13.248   9.582 -0.9519 -1.7255  0.6384
 7802SOL    HW233337   0.576  13.128   9.534  1.8814  1.2842 -2.8365
 7803SOL     OW33338   4.905  11.439   1.002 -0.1006  0.7695 -0.1953
 7803SOL    HW133339   4.942  11.526   0.994 -1.7872  1.3924 -2.3185
 7803SOL    HW233340   4.973  11.380   0.970 -0.0930  1.6620 -1.9027
 7804SOL     OW33341   5.578   5.266   9.826  0.0269  0.1923 -0.6740
 7804SOL    HW133342   5.628   5.319   9.889  0.1569  0.1788 -0.7654
 7804SOL    HW233343   5.626   5.275   9.744  1.9437 -2.6575 -0.0180
 7805SOL     OW33344   6.419  10.972  12.126  0.0647  0.7012 -0.2414
 7805SOL    HW133345   6.467  10.963  12.044 -0.6253  0.1096 -0.5851
 7805SOL    HW233346   6.375  11.057  12.118  0.6182  1.0079 -0.1389
 7806SOL     OW33347   7.068   4.540  12.793  0.0204  0.1085 -0.3184
 7806SOL    HW133348   6.991   4.533  12.737 -0.0393  0.0048 -0.2240
 7806SOL    HW233349   7.142   4.549  12.732 -0.1514  1.0687 -0.3936
 7807SOL     OW33350  10.316   3.225   0.681 -0.0984 -0.2195 -0.1726
 7807SOL    HW133351  10.258   3.190   0.615 -0.9608  0.6891  0.0782
 7807SOL    HW233352  10.268   3.215   0.763 -0.3528  1.4285 -0.0821
 7808SOL     OW33353   7.564   1.883  10.476 -0.1492 -0.3608 -0.4223
 7808SOL    HW133354   7.500   1.812  10.470 -2.0691  1.1066  1.1199
 7808SOL    HW233355   7.597   1.878  10.566  0.9573 -0.2936 -0.8075
 7809SOL     OW33356   8.732   5.789   5.571 -0.2134  0.0969  0.3611
 7809SOL    HW133357   8.652   5.841   5.570 -0.6798 -0.5733  1.3511
 7809SOL    HW233358   8.760   5.791   5.663  1.2133  0.7709 -0.0643
 7810SOL     OW33359   5.248   3.126   6.799 -0.1681  0.8318 -0.5447
 7810SOL    HW133360   5.183   3.068   6.838 -1.5089  2.0559 -0.8578
 7810SOL    HW233361   5.312   3.067   6.758  0.4806 -0.4744  2.0888
 7811SOL     OW33362   3.032   2.160  13.208 -0.6120  0.0785  0.4522
 7811SOL    HW133363   3.117   2.116  13.216  0.1450  1.4819  0.3990
 7811SOL    HW233364   2.968   2.088  13.208  0.4996 -0.9610  1.4153
 7812SOL     OW33365   4.324   3.187   2.633 -0.1700  0.0116  0.3890
 7812SOL    HW133366   4.315   3.166   2.540 -2.0863 -0.1970  0.5831
 7812SOL    HW233367   4.379   3.117   2.668 -0.1913 -0.4179 -0.4099
 7813SOL     OW33368  12.252   3.902  11.720  0.0846 -0.1492 -0.2489
 7813SOL    HW133369  12.312   3.871  11.788  0.4776  0.0310 -0.5093
 7813SOL    HW233370  12.226   3.990  11.748 -0.6913 -0.5281  0.2693
 7814SOL     OW33371   1.167   7.087  10.571 -0.2347 -0.6347  0.2659
 7814SOL    HW133372   1.180   7.062  10.663  1.0684  0.2229  0.3345
 7814SOL    HW233373   1.253   7.076  10.531  0.0088  2.0072 -0.1019
 7815SOL     OW33374  12.082   2.099  11.212 -0.2607  0.3275  0.0608
 7815SOL    HW133375  12.025   2.031  11.250 -1.0480  0.8035 -0.2431
 7815SOL    HW233376  12.027   2.142  11.147  0.4357  0.8589 -0.1831
 7816SOL     OW33377  10.220   8.146  12.110 -0.2933 -0.0767 -0.3439
 7816SOL    HW133378  10.156   8.147  12.181 -0.4537 -0.6288 -0.4695
 7816SOL    HW233379  10.302   8.175  12.151 -0.5508  0.3206 -0.1078
 7817SOL     OW33380   0.701   8.098  11.216 -0.2736 -0.3024 -0.6007
 7817SOL    HW133381   0.614   8.138  11.208 -0.1751 -0.4380 -3.0912
 7817SOL    HW233382   0.718   8.061  11.129  1.3856 -2.1649  0.4406
 7818SOL     OW33383   2.159   6.415   4.895  0.1632  0.4538  0.1768
 7818SOL    HW133384   2.131   6.503   4.920 -2.7351 -0.4424  0.4335
 7818SOL    HW233385   2.113   6.356   4.955  0.1243 -1.3217 -1.4705
 7819SOL     OW33386   2.904   8.028   6.934 -0.1408  0.0504 -0.3550
 7819SOL    HW133387   2.826   8.049   6.882  0.0339  1.7092 -0.0086
 7819SOL    HW233388   2.969   8.002   6.869 -0.1556  1.3721 -0.9470
 7820SOL     OW33389  12.951   7.423   2.569 -0.2228  0.0289  0.1413
 7820SOL    HW133390  12.902   7.435   2.651 -0.5608 -0.5093  0.0240
 7820SOL    HW233391  12.945   7.329   2.552  0.8505 -0.0408  0.1171
 7821SOL     OW33392  11.062  12.896  13.293  0.3151  0.2807 -0.8306
 7821SOL    HW133393  11.029  12.976  13.334  0.4666  0.1618 -0.4794
 7821SOL    HW233394  11.077  12.920  13.202 -0.4734  0.4186 -0.9348
 7822SOL     OW33395   5.086   3.496   7.359  0.3932 -0.3800  0.2721
 7822SOL    HW133396   5.135   3.425   7.319 -0.6351 -1.0852  0.2307
 7822SOL    HW233397   5.100   3.571   7.301  1.7057 -0.4584  0.4609
 7823SOL     OW33398  10.430   9.803   4.559  0.3201 -0.5353 -1.1182
 7823SOL    HW133399  10.474   9.867   4.502  0.9005 -0.1321 -0.2242
 7823SOL    HW233400  10.341   9.799   4.523  1.0162 -1.3236 -2.9038
 7824SOL     OW33401   2.875   0.716  11.206  0.0937  0.1347 -0.5227
 7824SOL    HW133402   2.881   0.674  11.120 -0.9700  2.9778 -2.1164
 7824SOL    HW233403   2.784   0.702  11.234  0.0868  0.3079 -0.4574
 7825SOL     OW33404   0.054   8.254   3.326  0.3187  0.2930 -0.4790
 7825SOL    HW133405   0.047   8.164   3.359 -2.2341  0.4279 -0.4320
 7825SOL    HW233406   0.039   8.309   3.404  2.3528  0.8103 -0.4117
 7826SOL     OW33407  11.722   1.534   4.255 -0.0370 -0.3612 -0.0784
 7826SOL    HW133408  11.653   1.600   4.268 -0.6638 -1.2241  1.2278
 7826SOL    HW233409  11.782   1.548   4.328  0.7764 -0.1287 -0.7767
 7827SOL     OW33410   2.923   3.083   3.584 -0.7025  0.1015  0.0700
 7827SOL    HW133411   2.966   3.004   3.618  0.6055  0.1222 -1.4506
 7827SOL    HW233412   2.831   3.070   3.604 -0.2848 -0.9661  1.4734
 7828SOL     OW33413   1.557  13.083  11.891 -0.2902 -0.1522  0.1867
 7828SOL    HW133414   1.487  13.048  11.947  1.6999 -0.6041  2.5626
 7828SOL    HW233415   1.633  13.091  11.949  1.4650  1.0286 -2.0886
 7829SOL     OW33416   2.057   9.868   8.181 -0.3898 -0.1514 -0.0079
 7829SOL    HW133417   1.978   9.896   8.226 -0.0241  0.3662  0.3215
 7829SOL    HW233418   2.124   9.865   8.249 -0.3170 -1.4101 -0.1210
 7830SOL     OW33419   8.538   7.663   2.931  0.2963  0.4151  0.0607
 7830SOL    HW133420   8.471   7.687   2.867  0.4329 -0.5022 -0.4413
 7830SOL    HW233421   8.614   7.640   2.879  0.6154  0.2850  0.5799
 7831SOL     OW33422   3.617   4.348   9.872 -0.5562 -0.5208  0.1272
 7831SOL    HW133423   3.614   4.389   9.786 -1.5004 -0.0722  0.3598
 7831SOL    HW233424   3.656   4.262   9.857  0.5423  0.0806 -0.5259
 7832SOL     OW33425  12.127  10.979  13.087  0.1599  0.7600  0.4084
 7832SOL    HW133426  12.095  10.897  13.049  3.0505 -0.7097  0.8598
 7832SOL    HW233427  12.136  11.038  13.012  1.2131 -0.4978 -0.5139
 7833SOL     OW33428   3.772   3.423  10.846  0.0422  0.1090 -0.0584
 7833SOL    HW133429   3.724   3.427  10.764  0.3452 -2.1895 -0.4128
 7833SOL    HW233430   3.864   3.417  10.820  0.3724  1.8954  0.5536
 7834SOL     OW33431   9.331   2.392   4.399  0.5391  0.0637 -0.4944
 7834SOL    HW133432   9.270   2.353   4.462  2.1444  2.0388  2.5565
 7834SOL    HW233433   9.359   2.318   4.345 -2.2148 -1.4456 -0.0536
 7835SOL     OW33434   9.079  10.137   4.953  0.0088 -0.5089  0.3832
 7835SOL    HW133435   9.089  10.218   4.903  0.2251 -0.3357  0.7026
 7835SOL    HW233436   9.164  10.126   4.997 -1.0435  0.8301  2.9418
 7836SOL     OW33437   7.532  11.459   4.123 -0.2640  0.1529  0.1691
 7836SOL    HW133438   7.443  11.486   4.145 -0.1219 -0.2574  1.2781
 7836SOL    HW233439   7.563  11.413   4.200  1.1827  0.9159  0.0725
 7837SOL     OW33440  10.577  12.304  13.214 -0.6754 -0.1407  0.0640
 7837SOL    HW133441  10.578  12.222  13.265  0.4757  0.6539  1.3864
 7837SOL    HW233442  10.633  12.286  13.139 -0.1883 -0.4682  0.5030
 7838SOL     OW33443   9.670   8.235  13.297 -0.3538  0.1618  0.0361
 7838SOL    HW133444   9.611   8.201  13.365  0.8193  0.8143  1.4324
 7838SOL    HW233445   9.612   8.279  13.235 -1.8043 -2.9718 -1.0881
 7839SOL     OW33446  10.275   2.676  13.238  0.0875  0.3059 -0.2170
 7839SOL    HW133447  10.357   2.723  13.230  0.6678 -0.7807 -0.9383
 7839SOL    HW233448  10.265   2.660  13.332  2.1516 -1.9463 -0.2720
 7840SOL     OW33449   1.130  11.398   3.221 -0.3836 -0.0452  0.1629
 7840SOL    HW133450   1.125  11.303   3.207 -1.5250  0.4532 -4.3185
 7840SOL    HW233451   1.205  11.425   3.167 -0.3949  1.6767  0.9727
 7841SOL     OW33452  11.543  10.882   0.413 -0.1514  0.0849  0.1051
 7841SOL    HW133453  11.625  10.931   0.405 -0.3771  0.2382 -1.7107
 7841SOL    HW233454  11.476  10.943   0.382 -0.9352 -0.1334  1.3122
 7842SOL     OW33455   5.909   2.899  13.219 -0.6292  0.1235 -0.0512
 7842SOL    HW133456   5.959   2.965  13.171 -0.1908 -0.2529 -0.1220
 7842SOL    HW233457   5.864   2.849  13.152  0.6889 -0.9757 -0.1586
 7843SOL     OW33458   5.964   5.794   0.609 -1.1330  0.0113 -0.0369
 7843SOL    HW133459   5.964   5.700   0.592 -3.5584  0.1004 -0.9658
 7843SOL    HW233460   5.981   5.834   0.524 -2.0886  0.3902 -0.0659
 7844SOL     OW33461   7.342  12.134   2.077  0.0883  0.4667  0.0233
 7844SOL    HW133462   7.263  12.082   2.093 -0.6479  2.0023  1.7297
 7844SOL    HW233463   7.362  12.117   1.985 -0.0024 -2.8552  0.4830
 7845SOL     OW33464   1.715   3.979   6.474 -0.2031  0.0850  0.4470
 7845SOL    HW133465   1.712   4.046   6.542  1.3395 -0.1350  0.7613
 7845SOL    HW233466   1.808   3.963   6.460 -0.4755  0.0404 -1.6492
 7846SOL     OW33467   7.174  13.093   4.879  0.6870  0.3381 -0.1018
 7846SOL    HW133468   7.267  13.115   4.874  0.4284  1.3756 -0.5852
 7846SOL    HW233469   7.160  13.068   4.970  1.8808 -1.9501 -0.4892
 7847SOL     OW33470   1.438   3.843  11.640 -0.2239  0.2917 -1.0567
 7847SOL    HW133471   1.375   3.885  11.698 -0.4667 -0.0241 -1.0896
 7847SOL    HW233472   1.392   3.835  11.556 -0.8074 -1.5668 -0.6071
 7848SOL     OW33473   2.289   1.196  12.794  0.3508  0.3824  0.4059
 7848SOL    HW133474   2.216   1.202  12.855  0.5000 -0.7659  0.7144
 7848SOL    HW233475   2.267   1.122  12.737  1.3485 -0.1047  0.6264
 7849SOL     OW33476  11.059   8.961  12.091 -0.0710  0.0472  0.2731
 7849SOL    HW133477  11.036   9.054  12.090  0.5251  0.2022  0.5660
 7849SOL    HW233478  11.029   8.930  12.176 -0.1671 -0.0030  0.2207
 7850SOL     OW33479   8.334   4.047   3.465  0.0810 -0.0959  0.0354
 7850SOL    HW133480   8.278   3.985   3.511  0.2406  0.3761  0.9027
 7850SOL    HW233481   8.349   4.008   3.379  0.5443 -1.4836  0.7151
 7851SOL     OW33482  12.702   3.493   6.292  0.2705  0.3567  0.1647
 7851SOL    HW133483  12.790   3.509   6.326  0.1826  0.8370  0.1692
 7851SOL    HW233484  12.655   3.452   6.365  0.8243 -1.0031 -0.2102
 7852SOL     OW33485   3.209   1.132  11.787 -0.0377  0.0179 -0.1083
 7852SOL    HW133486   3.297   1.128  11.824  0.5108  2.6331 -0.9346
 7852SOL    HW233487   3.190   1.042  11.762  1.2788 -1.1090  2.4907
 7853SOL     OW33488  10.057   6.950  12.195 -0.3007 -0.0840 -0.2191
 7853SOL    HW133489  10.072   6.955  12.290  0.7514  1.0656 -0.4056
 7853SOL    HW233490  10.145   6.948  12.157 -0.6568  1.2480 -1.2213
 7854SOL     OW33491   0.729  11.396   9.020 -0.5907  0.2967  0.3534
 7854SOL    HW133492   0.654  11.415   8.965 -0.4757  0.4560  0.2520
 7854SOL    HW233493   0.708  11.311   9.060  0.2572 -0.9137 -1.5998
 7855SOL     OW33494  11.087   5.609   2.168  0.0397  0.1857  0.1490
 7855SOL    HW133495  11.063   5.534   2.114  0.9451 -0.2150  0.2831
 7855SOL    HW233496  11.182   5.617   2.157 -0.1089  1.6966 -0.3685
 7856SOL     OW33497   3.295  11.052  11.140  0.5943  0.4929 -0.1757
 7856SOL    HW133498   3.303  11.129  11.085  0.1094  0.5154 -0.2236
 7856SOL    HW233499   3.239  11.080  11.213  0.3841  0.1826 -0.2115
 7857SOL     OW33500   3.650   3.418   8.832  0.2614  0.5441  0.4028
 7857SOL    HW133501   3.639   3.497   8.886  3.5654  1.0970  0.4644
 7857SOL    HW233502   3.722   3.371   8.874 -0.1325 -1.3768 -0.9567
 7858SOL     OW33503   1.609   0.232   3.672  0.2895 -0.6611  0.2282
 7858SOL    HW133504   1.597   0.311   3.726  1.7710 -1.0077  1.1099
 7858SOL    HW233505   1.559   0.164   3.717  2.2497 -1.1795  1.7750
 7859SOL     OW33506   0.502   6.255   7.185  0.0801 -0.7872 -0.3177
 7859SOL    HW133507   0.437   6.325   7.173 -1.6600 -2.2980 -0.2361
 7859SOL    HW233508   0.541   6.273   7.271 -2.3761 -1.4059  1.0284
 7860SOL     OW33509  10.979  11.390   2.821 -0.1807 -0.0380 -0.2202
 7860SOL    HW133510  11.037  11.455   2.859 -1.0232  0.2853  0.5660
 7860SOL    HW233511  10.902  11.391   2.878 -0.5534 -1.1359 -0.6719
 7861SOL     OW33512   3.227  12.140   5.322  0.0648  0.0172  0.0680
 7861SOL    HW133513   3.199  12.184   5.241  1.1034  0.2399 -0.1868
 7861SOL    HW233514   3.277  12.064   5.292  1.0193  0.4644  0.4854
 7862SOL     OW33515   0.489  11.448   8.822  0.1284 -0.5795 -0.0011
 7862SOL    HW133516   0.435  11.384   8.775  1.4411 -1.6976 -0.0896
 7862SOL    HW233517   0.567  11.457   8.767 -0.2521  1.5810 -0.2747
 7863SOL     OW33518  11.608   9.551   8.280 -0.0630 -0.4955  0.0886
 7863SOL    HW133519  11.569   9.638   8.287 -2.5374 -1.5384  0.2079
 7863SOL    HW233520  11.612   9.534   8.186  0.5745 -0.2132  0.0578
 7864SOL     OW33521   5.430   2.821   6.341  0.3070  0.2135  0.0014
 7864SOL    HW133522   5.511   2.831   6.291  0.7364  1.1090  0.8410
 7864SOL    HW233523   5.455   2.768   6.418 -0.0029  0.1330  0.0500
 7865SOL     OW33524   7.265   0.629   5.850  0.6618  0.7132 -0.3289
 7865SOL    HW133525   7.342   0.646   5.905 -0.7763  1.8020  1.4708
 7865SOL    HW233526   7.264   0.534   5.839  1.7740  0.5964  0.3529
 7866SOL     OW33527   2.861   7.676  12.193 -0.7253 -0.0309  0.4347
 7866SOL    HW133528   2.806   7.717  12.259  0.1814  0.4759  0.8982
 7866SOL    HW233529   2.863   7.583  12.217 -3.0469 -0.4885 -0.7998
 7867SOL     OW33530   4.757   2.688  12.151 -0.4837  0.2488  0.2830
 7867SOL    HW133531   4.759   2.604  12.196  1.2234  0.6735  1.0642
 7867SOL    HW233532   4.674   2.687  12.103 -1.1396 -1.2965  1.3643
 7868SOL     OW33533   5.739   2.145   1.583 -0.1478 -0.4155 -0.1824
 7868SOL    HW133534   5.744   2.050   1.574 -0.3490 -0.5976  1.4784
 7868SOL    HW233535   5.783   2.164   1.666  0.2121  0.9894 -0.6652
 7869SOL     OW33536   1.617   0.230   1.739 -0.4093 -0.0165  0.8304
 7869SOL    HW133537   1.711   0.241   1.745 -0.0328 -1.2113 -1.4391
 7869SOL    HW233538   1.602   0.137   1.757 -1.1050  0.0821  0.8145
 7870SOL     OW33539   8.518   8.498   1.384  0.8080  0.2455  1.1275
 7870SOL    HW133540   8.464   8.446   1.444 -1.1442  0.1348 -0.6192
 7870SOL    HW233541   8.580   8.435   1.348  0.6043 -0.1523  1.4553
 7871SOL     OW33542   0.746  11.859   4.967  0.1542 -0.1550  0.7801
 7871SOL    HW133543   0.692  11.780   4.973 -0.2466  0.0931  0.5554
 7871SOL    HW233544   0.824  11.831   4.919 -0.7082 -0.0670 -0.7489
 7872SOL     OW33545   1.127   5.992   7.510 -0.4169  0.0284 -0.1143
 7872SOL    HW133546   1.147   5.968   7.420 -0.0355 -2.1001  0.4775
 7872SOL    HW233547   1.184   6.066   7.529 -0.6418  0.6232 -1.6612
 7873SOL     OW33548   6.884   9.439   6.416  0.4467 -0.0885  0.0974
 7873SOL    HW133549   6.897   9.449   6.510  0.1134 -3.5470  0.6173
 7873SOL    HW233550   6.965   9.472   6.377 -0.4625  4.1377  1.1847
 7874SOL     OW33551   6.612   6.829   3.243 -0.0959 -0.5775 -0.3347
 7874SOL    HW133552   6.556   6.904   3.262 -0.4389 -0.6942 -0.8690
 7874SOL    HW233553   6.622   6.785   3.328  1.5218  1.0058  0.3683
 7875SOL     OW33554   2.149   7.387   2.892 -0.7270 -0.6073 -0.2388
 7875SOL    HW133555   2.087   7.354   2.827 -3.3128 -0.3773  1.9596
 7875SOL    HW233556   2.175   7.473   2.858 -2.0570 -0.4587 -0.9624
 7876SOL     OW33557  12.035   9.607   4.283 -0.3000  0.5890  0.5058
 7876SOL    HW133558  11.969   9.671   4.255 -0.3909  0.0191 -0.5892
 7876SOL    HW233559  11.995   9.522   4.267 -0.2267  0.2172  2.0688
 7877SOL     OW33560   2.572   4.493   0.969 -0.0828  0.3287 -0.1974
 7877SOL    HW133561   2.547   4.443   1.047 -1.2900  1.1226 -0.0528
 7877SOL    HW233562   2.588   4.582   1.002 -1.0177  0.7732 -0.9064
 7878SOL     OW33563   0.792   0.699   6.542 -0.5198  0.8152 -0.0316
 7878SOL    HW133564   0.843   0.694   6.461  0.5488 -0.2870  0.6688
 7878SOL    HW233565   0.803   0.790   6.572  0.8248  0.6824 -0.0546
 7879SOL     OW33566   5.858  12.860  12.754 -0.1548 -0.2230 -0.0917
 7879SOL    HW133567   5.830  12.790  12.695 -2.1471 -0.1939  0.7703
 7879SOL    HW233568   5.881  12.933  12.695 -2.4049 -0.0836 -0.8860
 7880SOL     OW33569   3.841   7.037   4.653  0.5925 -0.4862  0.0899
 7880SOL    HW133570   3.767   7.097   4.648 -0.4728 -1.8602 -3.3863
 7880SOL    HW233571   3.905   7.073   4.591  0.6461 -2.0036 -0.7777
 7881SOL     OW33572   7.016   7.219   1.087  0.0007  0.6525 -0.2109
 7881SOL    HW133573   6.953   7.184   1.150  1.9134 -0.2356  1.3110
 7881SOL    HW233574   7.071   7.278   1.138  2.3282 -0.9628 -0.7172
 7882SOL     OW33575   8.766   4.543  12.305  0.2675 -0.0210 -0.1991
 7882SOL    HW133576   8.787   4.483  12.377 -1.2740  0.6426  0.8635
 7882SOL    HW233577   8.791   4.496  12.226  3.2537 -0.2663  0.7804
 7883SOL     OW33578   9.173  12.086   8.716 -0.1214  0.3281 -0.2152
 7883SOL    HW133579   9.117  12.148   8.669 -0.0322  0.0133 -0.7434
 7883SOL    HW233580   9.223  12.041   8.647 -1.4101 -1.5545 -0.0096
 7884SOL     OW33581   8.025   7.653   4.894  0.8445 -0.1281  0.0690
 7884SOL    HW133582   8.113   7.684   4.873  0.4132  0.7903 -0.4395
 7884SOL    HW233583   7.966   7.719   4.857 -0.0138  1.0287  3.1704
 7885SOL     OW33584   6.345   1.406   6.201 -0.3235  0.5277  0.0376
 7885SOL    HW133585   6.254   1.391   6.228 -0.1608  1.4885  1.2218
 7885SOL    HW233586   6.338   1.457   6.121 -0.8146 -0.6019 -0.6701
 7886SOL     OW33587  10.362   2.426  11.820  0.3162 -0.9534  0.2946
 7886SOL    HW133588  10.449   2.419  11.781 -0.1849 -0.9224 -0.8677
 7886SOL    HW233589  10.302   2.424  11.746 -0.5542  2.5106  0.7629
 7887SOL     OW33590   4.898   3.214   8.389  0.3691 -0.0619 -0.1914
 7887SOL    HW133591   4.952   3.293   8.385 -1.8944  1.5640 -1.3761
 7887SOL    HW233592   4.839   3.230   8.464  1.0028 -1.4574  0.6375
 7888SOL     OW33593   0.017   9.308   1.190  0.3774 -0.1155  0.6028
 7888SOL    HW133594   0.046   9.228   1.234 -0.2740 -0.6672  0.0658
 7888SOL    HW233595   0.086   9.326   1.126  0.3852 -0.4187  0.5233
 7889SOL     OW33596   8.681   0.921   1.582 -0.1377  0.2512  0.1001
 7889SOL    HW133597   8.611   0.867   1.544  0.3814  0.4483 -1.1928
 7889SOL    HW233598   8.644   1.009   1.585 -0.6411  0.0220  1.3121
 7890SOL     OW33599   2.163   0.570  11.140 -0.6407  0.0715 -0.2576
 7890SOL    HW133600   2.206   0.584  11.055 -1.9840  1.6013 -0.7458
 7890SOL    HW233601   2.095   0.505  11.121  0.1292 -0.8562  0.0652
 7891SOL     OW33602   2.213   8.011  11.581 -0.5778 -0.5574  0.0061
 7891SOL    HW133603   2.150   8.044  11.518  0.1481  1.4750  0.2661
 7891SOL    HW233604   2.235   8.087  11.635  4.2611 -0.2186 -1.8989
 7892SOL     OW33605   8.613   2.652  12.792 -0.4914  0.2662  0.4438
 7892SOL    HW133606   8.541   2.621  12.737 -0.6274 -0.0095  0.7747
 7892SOL    HW233607   8.636   2.738  12.756 -0.4011 -0.0269 -0.2135
 7893SOL     OW33608   5.630  10.847  12.751 -0.0341  0.0772 -0.2131
 7893SOL    HW133609   5.642  10.827  12.844 -1.8483  0.1488  0.0701
 7893SOL    HW233610   5.548  10.803  12.727 -0.7347  1.8136 -1.2025
 7894SOL     OW33611  11.024   5.250   6.257 -0.3716 -0.4040 -0.0792
 7894SOL    HW133612  11.093   5.316   6.248 -0.3785 -0.3282  0.4082
 7894SOL    HW233613  11.065   5.180   6.307 -1.0838  0.2901  1.5347
 7895SOL     OW33614  10.666   4.328   1.248  0.3279 -0.2090 -0.1662
 7895SOL    HW133615  10.658   4.234   1.265  0.8554 -0.1627  0.3569
 7895SOL    HW233616  10.760   4.345   1.250  0.2070  0.4455  0.3837
 7896SOL     OW33617   4.976  11.064   9.110  0.5535  0.4544 -0.1355
 7896SOL    HW133618   4.947  11.120   9.183  1.6995 -0.7226  1.2830
 7896SOL    HW233619   4.907  11.074   9.044 -0.3124  1.9047  0.9188
 7897SOL     OW33620   0.915   4.942   2.579  0.1766 -0.1519 -0.2532
 7897SOL    HW133621   0.842   4.880   2.573  0.2569 -0.1794 -1.1131
 7897SOL    HW233622   0.993   4.887   2.574  0.2486 -0.0191 -0.5911
 7898SOL     OW33623   5.808   9.756   2.077  0.1830  0.1502 -1.0997
 7898SOL    HW133624   5.864   9.800   2.141 -0.0989 -0.9638 -0.0559
 7898SOL    HW233625   5.777   9.678   2.122  0.1868 -0.8140 -2.6963
 7899SOL     OW33626   4.884   4.227   2.730  0.0905 -0.0273 -0.0951
 7899SOL    HW133627   4.876   4.167   2.656  1.7501 -0.8597  0.3397
 7899SOL    HW233628   4.974   4.260   2.723 -0.3741  1.3921  0.4435
 7900SOL     OW33629   9.525   6.142   5.150  0.2206 -0.6103 -0.0411
 7900SOL    HW133630   9.505   6.221   5.199 -0.8115 -0.9474  0.1060
 7900SOL    HW233631   9.473   6.073   5.192 -0.2064 -1.0351 -1.1935
 7901SOL     OW33632   2.083   6.305  13.146 -0.4127  0.2228 -0.5619
 7901SOL    HW133633   2.163   6.324  13.196 -0.7795  1.4332 -0.4279
 7901SOL    HW233634   2.013   6.307  13.211 -0.4873 -1.7267 -0.5105
 7902SOL     OW33635   5.450   2.686   2.732  0.4120  0.7757  0.8427
 7902SOL    HW133636   5.500   2.767   2.721  0.1106  0.9667  0.8699
 7902SOL    HW233637   5.378   2.709   2.791  0.1690  0.5587  0.6361
 7903SOL     OW33638   6.392  11.497   5.485  0.0681  0.2394  0.4748
 7903SOL    HW133639   6.341  11.433   5.535  0.9586 -0.9693 -0.1141
 7903SOL    HW233640   6.459  11.445   5.441  0.1330  1.4511 -0.9196
 7904SOL     OW33641   8.344   4.991   3.468  0.0420  0.6339  0.1476
 7904SOL    HW133642   8.275   4.930   3.442 -1.5402  3.0770 -1.8792
 7904SOL    HW233643   8.419   4.968   3.413 -1.2889  1.8479 -2.3308
 7905SOL     OW33644   2.134   2.598   2.748  0.2653 -0.0861 -0.0966
 7905SOL    HW133645   2.067   2.576   2.683  0.1781 -0.0182 -0.0297
 7905SOL    HW233646   2.128   2.693   2.758 -0.6171 -0.2324  0.9761
 7906SOL     OW33647   9.315   8.284   4.193  0.3129 -0.6514  0.3735
 7906SOL    HW133648   9.309   8.359   4.134  0.8265 -1.3370 -0.5772
 7906SOL    HW233649   9.370   8.315   4.265 -0.7662  0.3653  0.7908
 7907SOL     OW33650  11.123   1.358   5.579  1.0427  0.3079 -0.3210
 7907SOL    HW133651  11.189   1.361   5.649  1.2243 -2.2712 -0.2712
 7907SOL    HW233652  11.070   1.436   5.593  1.2835  0.0951  2.5094
 7908SOL     OW33653  13.259  10.834   1.574  0.1487 -0.2486  0.1956
 7908SOL    HW133654  13.276  10.747   1.538  1.9165  0.7822 -1.6419
 7908SOL    HW233655  13.345  10.874   1.582 -0.6375  1.3653  0.9740
 7909SOL     OW33656   8.648   6.516   6.837  0.3641  0.3185  0.7540
 7909SOL    HW133657   8.595   6.584   6.879  0.9595  1.9385 -0.9916
 7909SOL    HW233658   8.586   6.469   6.780 -0.0979 -0.8207  2.1347
 7910SOL     OW33659   0.207  12.674   9.158 -0.1921  0.2223  0.1217
 7910SOL    HW133660   0.282  12.636   9.113 -0.9587 -0.6866 -0.4329
 7910SOL    HW233661   0.151  12.708   9.088 -0.7386  0.0379  0.4558
 7911SOL     OW33662   6.140   4.198   0.422 -0.5688 -0.1236  0.1853
 7911SOL    HW133663   6.056   4.162   0.449 -0.0566 -0.0251  2.0557
 7911SOL    HW233664   6.203   4.128   0.437  0.1931  0.9196  2.3206
 7912SOL     OW33665  13.002   5.866   8.281  0.4090 -0.2882  0.3854
 7912SOL    HW133666  12.928   5.889   8.225  0.2971 -1.4025  0.0589
 7912SOL    HW233667  12.969   5.795   8.336  0.7310  0.3258  1.3990
 7913SOL     OW33668  10.279   8.822   1.426  0.3364 -0.3803 -0.0900
 7913SOL    HW133669  10.350   8.857   1.479  0.7147 -1.2771  0.0134
 7913SOL    HW233670  10.320   8.801   1.342  0.3075 -1.3304  0.1216
 7914SOL     OW33671  12.450  11.377   9.019 -0.1482  0.3255 -0.2944
 7914SOL    HW133672  12.398  11.370   8.939  1.7900  1.1597 -1.7346
 7914SOL    HW233673  12.503  11.297   9.021 -0.7813 -0.0881  0.6466
 7915SOL     OW33674   0.265  12.067   3.927 -0.6271 -0.5492  0.0527
 7915SOL    HW133675   0.253  12.126   3.853 -1.5471  0.0935  0.6964
 7915SOL    HW233676   0.176  12.043   3.954 -0.3376 -0.2588  1.3463
 7916SOL     OW33677   6.703   5.048  12.852  0.0843 -0.1307 -0.3687
 7916SOL    HW133678   6.612   5.026  12.872 -0.8352  1.9722 -1.8724
 7916SOL    HW233679   6.747   4.963  12.844 -1.4844 -1.1752  1.3452
 7917SOL     OW33680   0.013   4.668  12.018  0.1615 -0.1885 -0.3528
 7917SOL    HW133681   0.061   4.656  12.100  1.6112  0.1671 -1.1107
 7917SOL    HW233682  -0.017   4.580  11.995  2.6038 -0.9234 -1.0713
 7918SOL     OW33683   4.533  11.062   9.193 -0.0028  0.0188 -0.0087
 7918SOL    HW133684   4.441  11.041   9.174  0.4347  0.8774 -4.0155
 7918SOL    HW233685   4.579  10.978   9.183 -0.0704  0.0217 -0.3375
 7919SOL     OW33686   1.082   3.661   4.761  0.5839 -0.1915  0.6383
 7919SOL    HW133687   1.099   3.730   4.697 -0.1450  0.0584  0.7098
 7919SOL    HW233688   1.016   3.605   4.720  2.6098 -2.0501 -0.2830
 7920SOL     OW33689   9.556   3.825   4.022 -0.2031 -0.4676  0.2266
 7920SOL    HW133690   9.492   3.766   3.982  0.1659  0.1318 -1.3209
 7920SOL    HW233691   9.630   3.769   4.045  0.2579 -0.6339 -1.4691
 7921SOL     OW33692   1.941   7.179   7.625 -0.2371 -0.1974 -0.2150
 7921SOL    HW133693   1.849   7.168   7.603  0.0244  1.7900 -2.7001
 7921SOL    HW233694   1.943   7.254   7.685 -0.3567 -1.6377  1.6921
 7922SOL     OW33695   1.755   0.299   0.829  0.2113  0.0636 -0.3530
 7922SOL    HW133696   1.796   0.218   0.797 -1.7376 -0.3671 -1.9442
 7922SOL    HW233697   1.732   0.279   0.920  1.0760 -0.6410 -0.2759
 7923SOL     OW33698   6.511   6.650   6.730  0.8814  0.0263  0.2665
 7923SOL    HW133699   6.475   6.737   6.716  2.0481  0.7704  1.6515
 7923SOL    HW233700   6.579   6.641   6.663  0.8789  0.2534  0.2343
 7924SOL     OW33701  10.357  12.852   7.717  0.2847  0.0982 -0.2789
 7924SOL    HW133702  10.310  12.770   7.706 -0.2751  0.3005  0.4921
 7924SOL    HW233703  10.409  12.839   7.797  0.2023  0.4826 -0.1588
 7925SOL     OW33704  11.791   4.383   4.653 -0.0465  0.0438 -0.0864
 7925SOL    HW133705  11.697   4.395   4.638 -0.7812 -1.1920  2.8549
 7925SOL    HW233706  11.800   4.374   4.748  2.6553 -2.8056 -0.4331
 7926SOL     OW33707  10.335   4.882   0.079  0.2013  0.4262 -0.7289
 7926SOL    HW133708  10.304   4.835   0.156 -1.6905  1.4596 -0.7963
 7926SOL    HW233709  10.390   4.952   0.113  1.3901 -0.5626 -0.5185
 7927SOL     OW33710   0.325   2.810   2.492 -0.1873  0.0658 -0.3958
 7927SOL    HW133711   0.366   2.856   2.419 -0.6456  2.5948  0.8288
 7927SOL    HW233712   0.384   2.826   2.566 -0.8346 -0.5668  0.2696
 7928SOL     OW33713   5.702   2.205  13.189  0.3368 -0.6046  0.9599
 7928SOL    HW133714   5.770   2.154  13.234  0.7076 -1.1725 -0.1929
 7928SOL    HW233715   5.634   2.217  13.254  0.6719 -1.7527  1.5527
 7929SOL     OW33716   1.377  10.555  10.646  0.2023  0.2399 -0.0628
 7929SOL    HW133717   1.451  10.527  10.700 -0.2450  0.8510  0.8856
 7929SOL    HW233718   1.402  10.529  10.557  1.1320 -0.4184  0.3660
 7930SOL     OW33719   7.336  10.177   6.702 -0.2949 -0.8405  0.1876
 7930SOL    HW133720   7.280  10.109   6.664  1.1532 -0.5180 -2.8212
 7930SOL    HW233721   7.342  10.244   6.634 -0.4810  1.6872  2.4905
 7931SOL     OW33722   1.840  11.404   5.649 -0.3229 -0.1980 -0.0216
 7931SOL    HW133723   1.784  11.349   5.703 -0.8879  0.2500 -0.1390
 7931SOL    HW233724   1.826  11.373   5.559  1.8708 -2.0597  0.1853
 7932SOL     OW33725  10.003   1.117   4.219  0.4925  0.1140 -0.4811
 7932SOL    HW133726  10.078   1.059   4.227 -1.0051 -1.7338  1.4294
 7932SOL    HW233727   9.941   1.069   4.164 -0.1230  0.6792 -0.2998
 7933SOL     OW33728   2.226   1.448   1.840 -0.2926 -0.4538 -0.0555
 7933SOL    HW133729   2.261   1.470   1.927  0.4458 -0.9641 -0.2205
 7933SOL    HW233730   2.171   1.371   1.855 -0.7952 -0.0776  0.0814
 7934SOL     OW33731   8.251   0.636   0.132  0.3550 -0.3014  0.0276
 7934SOL    HW133732   8.325   0.649   0.192 -0.2237 -1.1815  0.9607
 7934SOL    HW233733   8.255   0.544   0.108 -1.0877 -0.6486  1.0062
 7935SOL     OW33734  11.212   5.988  11.106  0.1479 -0.0965 -0.3319
 7935SOL    HW133735  11.117   5.981  11.102  0.2385 -1.7988 -0.3319
 7935SOL    HW233736  11.238   6.009  11.016 -0.0593 -3.2325 -1.2666
 7936SOL     OW33737  10.663   3.446   5.430 -0.3633  0.3472  0.5419
 7936SOL    HW133738  10.633   3.470   5.518  2.3289  0.1663  1.6067
 7936SOL    HW233739  10.714   3.522   5.401  0.1509 -0.2656 -0.1880
 7937SOL     OW33740   2.372   4.014  10.608 -0.1646  0.4606 -0.1831
 7937SOL    HW133741   2.423   4.051  10.535 -1.4947  0.4893 -1.1228
 7937SOL    HW233742   2.291   4.065  10.609 -0.1158  0.5767  1.4479
 7938SOL     OW33743   8.216   2.419  11.302  0.2334 -0.1871  0.1392
 7938SOL    HW133744   8.270   2.450  11.375  0.6055  1.1541 -0.6607
 7938SOL    HW233745   8.140   2.478  11.302 -0.3036 -0.8607  0.0871
 7939SOL     OW33746   4.605  12.284   0.995 -0.9287  0.1243 -0.2208
 7939SOL    HW133747   4.668  12.342   0.953 -1.3170  0.0125 -0.9628
 7939SOL    HW233748   4.520  12.322   0.974 -1.2118 -0.9532 -1.0973
 7940SOL     OW33749   7.818   8.632  10.827 -0.9231  0.1345 -0.0808
 7940SOL    HW133750   7.899   8.633  10.878 -1.4859 -1.9430  0.9883
 7940SOL    HW233751   7.759   8.691  10.874 -0.4787  0.5862 -0.0843
 7941SOL     OW33752   2.212   7.224  10.047 -0.6957  0.0407 -0.3957
 7941SOL    HW133753   2.244   7.186  10.128 -1.4336  3.2721  1.5951
 7941SOL    HW233754   2.123   7.191  10.038 -1.6219  1.7127  1.7388
 7942SOL     OW33755   8.952   0.588   4.976 -0.2592 -0.1263  0.3098
 7942SOL    HW133756   9.002   0.517   5.016  0.7069 -0.1089 -0.7907
 7942SOL    HW233757   8.903   0.545   4.905 -1.2484 -0.0126  0.9068
 7943SOL     OW33758   4.089   1.863   6.378  0.6363  0.3351 -0.3277
 7943SOL    HW133759   4.073   1.769   6.387  0.3379  0.4556  0.4548
 7943SOL    HW233760   4.061   1.883   6.289 -0.7344 -0.0452 -0.0092
 7944SOL     OW33761   2.228   9.767   2.277 -0.4366 -0.7404 -0.6606
 7944SOL    HW133762   2.239   9.746   2.370 -1.6421  0.3812 -0.2282
 7944SOL    HW233763   2.302   9.725   2.234  3.6269  3.3148  1.4724
 7945SOL     OW33764   0.962   5.173   1.600 -0.0080  0.0940 -0.1393
 7945SOL    HW133765   0.899   5.119   1.552  0.1207  0.9896 -1.3714
 7945SOL    HW233766   0.950   5.261   1.564  0.0919  0.8125  1.5042
 7946SOL     OW33767  11.886   1.662   1.620 -0.1697  0.2991 -0.1261
 7946SOL    HW133768  11.860   1.753   1.607  1.5428  0.7951 -0.3581
 7946SOL    HW233769  11.825   1.628   1.686  0.1956  2.1332  1.2365
 7947SOL     OW33770  11.683   6.916   6.407  0.1120  0.2118  0.1422
 7947SOL    HW133771  11.768   6.922   6.449  0.3137 -0.3477 -0.1689
 7947SOL    HW233772  11.658   7.006   6.388  0.2443  0.4316  0.9970
 7948SOL     OW33773   0.759   8.839   7.197 -0.1330 -0.0075  0.3304
 7948SOL    HW133774   0.793   8.872   7.115 -0.4269 -0.3071  0.0842
 7948SOL    HW233775   0.831   8.790   7.236 -0.0270  0.0493  0.2021
 7949SOL     OW33776   2.856   7.035  10.777  0.2480 -0.2783  0.6025
 7949SOL    HW133777   2.851   7.018  10.871  0.8786 -1.0390  0.5096
 7949SOL    HW233778   2.768   7.062  10.753 -0.0668 -0.6349  1.3175
 7950SOL     OW33779   8.875  11.593  10.122 -0.3581 -1.4243  0.3319
 7950SOL    HW133780   8.959  11.574  10.081 -0.0047 -1.3142  0.9949
 7950SOL    HW233781   8.840  11.667  10.072  1.1376  0.2453  1.6397
 7951SOL     OW33782   8.127   7.674   1.435 -0.2409  0.0395 -0.3183
 7951SOL    HW133783   8.129   7.684   1.530  0.5213 -2.9526  0.0849
 7951SOL    HW233784   8.209   7.711   1.405 -0.2542  0.5384  0.2343
 7952SOL     OW33785  11.908   2.230   6.096 -0.9136 -0.1099 -0.3150
 7952SOL    HW133786  11.926   2.267   6.182  1.9270  0.9810 -1.2594
 7952SOL    HW233787  11.842   2.163   6.112 -1.6869  1.1600  2.4258
 7953SOL     OW33788  10.699   1.948  10.653  0.3473 -0.1124  0.0995
 7953SOL    HW133789  10.787   1.975  10.625  0.3964 -0.7404 -0.3637
 7953SOL    HW233790  10.639   2.002  10.602  0.4586  0.0970  0.1899
 7954SOL     OW33791  10.666   2.342   4.908  0.2747 -0.4271 -0.5064
 7954SOL    HW133792  10.748   2.388   4.894  0.1123 -0.4580 -1.7104
 7954SOL    HW233793  10.600   2.412   4.913  0.1760 -0.4671 -1.1710
 7955SOL     OW33794   0.146  11.161   0.810 -0.6929  0.6263 -0.7004
 7955SOL    HW133795   0.181  11.136   0.725 -0.9814  3.3977 -1.7346
 7955SOL    HW233796   0.223  11.168   0.867 -0.1744  1.2506 -1.4536
 7956SOL     OW33797  10.856  11.577   0.715 -0.0694  0.0188 -0.1226
 7956SOL    HW133798  10.822  11.495   0.753  1.9505  0.5428  3.1463
 7956SOL    HW233799  10.806  11.646   0.758  0.0687  0.6041 -0.8751
 7957SOL     OW33800  11.465   4.691   4.176  0.2697 -0.3090  0.4040
 7957SOL    HW133801  11.452   4.597   4.174  2.2372 -0.6205  0.1174
 7957SOL    HW233802  11.430   4.722   4.092 -1.7982 -0.5205  1.1335
 7958SOL     OW33803   9.632   9.093   4.141 -0.1258 -0.8325  0.1159
 7958SOL    HW133804   9.586   9.175   4.158  1.4209  0.2306 -0.6570
 7958SOL    HW233805   9.565   9.026   4.153 -1.8561  0.6320 -0.7550
 7959SOL     OW33806   2.262   3.817   5.949  0.6479  0.1523  0.0878
 7959SOL    HW133807   2.223   3.738   5.912  0.5681  0.8456 -1.3832
 7959SOL    HW233808   2.284   3.870   5.873 -1.4815  2.6277  1.0761
 7960SOL     OW33809  12.902   5.332   1.279 -0.0771 -0.0707 -0.6856
 7960SOL    HW133810  12.922   5.396   1.211 -1.0533  0.7636 -0.2118
 7960SOL    HW233811  12.945   5.365   1.358  0.5034 -0.6951 -0.7261
 7961SOL     OW33812   1.972  12.586   6.695 -0.3182  0.2381 -0.5023
 7961SOL    HW133813   2.030  12.608   6.623  1.2492  0.0471  0.6464
 7961SOL    HW233814   1.917  12.515   6.662  1.7397 -1.2553 -0.9171
 7962SOL     OW33815  12.782   9.352   8.508  0.3876  0.4184  0.4151
 7962SOL    HW133816  12.760   9.283   8.570 -0.4494  1.4459  1.2970
 7962SOL    HW233817  12.737   9.327   8.427 -0.7268  0.4304  1.0182
 7963SOL     OW33818   0.969   8.728   9.362 -0.1226 -0.6883 -0.8290
 7963SOL    HW133819   0.895   8.778   9.330  0.3788  0.2927 -0.5131
 7963SOL    HW233820   1.042   8.755   9.307  0.7843  1.1325  1.0830
 7964SOL     OW33821   7.008  12.422   7.072 -0.1514  0.0101 -0.7130
 7964SOL    HW133822   6.922  12.401   7.108  0.9780 -1.0865  1.6416
 7964SOL    HW233823   7.053  12.338   7.068  1.6837  0.8233  0.7832
 7965SOL     OW33824   7.024   8.418   4.743  0.6775 -0.6455 -0.1636
 7965SOL    HW133825   6.966   8.493   4.753  0.9500 -0.0020 -2.7619
 7965SOL    HW233826   6.965   8.343   4.737  0.0073 -0.0213 -2.5771
 7966SOL     OW33827   8.751   8.804   7.419 -0.1319  0.3415 -0.0994
 7966SOL    HW133828   8.689   8.855   7.368 -0.1616  1.7947  1.2919
 7966SOL    HW233829   8.714   8.803   7.507  1.6593  1.0941  0.7240
 7967SOL     OW33830   2.988  12.182   6.659  0.4949  0.1674  0.4797
 7967SOL    HW133831   3.080  12.170   6.683  0.3875 -0.1932  0.7157
 7967SOL    HW233832   2.956  12.249   6.719  0.2154 -0.7635  1.3804
 7968SOL     OW33833  11.247   7.667   4.185 -0.4305  0.5613 -0.1649
 7968SOL    HW133834  11.271   7.731   4.253  0.6734 -0.4697  0.4660
 7968SOL    HW233835  11.172   7.620   4.222  1.1230 -1.0593  1.1180
 7969SOL     OW33836  10.484   5.743   3.094 -0.2099  0.6967  0.6219
 7969SOL    HW133837  10.522   5.826   3.121 -0.0750  0.9319 -0.2461
 7969SOL    HW233838  10.543   5.710   3.026  1.0676 -1.2935  2.5849
 7970SOL     OW33839   7.730   7.503   9.683 -0.2636 -0.0580  0.1676
 7970SOL    HW133840   7.636   7.488   9.670  0.1236 -1.5482 -1.3217
 7970SOL    HW233841   7.748   7.466   9.770 -0.8137 -1.1835 -0.1667
 7971SOL     OW33842   1.345  12.030   9.913  0.2101 -0.0589 -0.2766
 7971SOL    HW133843   1.394  11.949   9.923 -0.8922 -0.5968  1.1264
 7971SOL    HW233844   1.387  12.092   9.973 -0.0191 -0.1442 -0.0226
 7972SOL     OW33845   5.987  10.429  10.701  0.1733 -0.0220  1.1375
 7972SOL    HW133846   5.960  10.435  10.609  2.6924  0.1889  0.3527
 7972SOL    HW233847   5.999  10.335  10.717 -0.4723 -0.0762  1.3435
 7973SOL     OW33848  11.464   1.035  10.766 -0.0463  0.5249 -0.1033
 7973SOL    HW133849  11.505   1.109  10.810  0.0321  0.6178 -0.3287
 7973SOL    HW233850  11.445   0.972  10.836 -1.0563  1.1836  0.2244
 7974SOL     OW33851   8.074  12.319   2.275 -0.2347  0.3235 -0.2793
 7974SOL    HW133852   8.038  12.344   2.361  0.9387 -1.4232  0.8034
 7974SOL    HW233853   8.006  12.264   2.237  0.1156 -0.7591  0.5792
 7975SOL     OW33854   3.378   1.065   8.005 -0.5191 -0.6085 -0.1297
 7975SOL    HW133855   3.330   1.012   8.068 -0.9286 -1.6697 -1.2894
 7975SOL    HW233856   3.329   1.055   7.923  0.5375 -0.0716 -0.8476
 7976SOL     OW33857  11.664   0.924  11.612 -0.0163 -0.0885  0.5537
 7976SOL    HW133858  11.597   0.923  11.544 -0.6134 -0.0265  1.1359
 7976SOL    HW233859  11.747   0.911  11.564 -0.5589 -1.7951 -0.0243
 7977SOL     OW33860  13.070   2.839   3.177  0.5802  0.4349  0.2431
 7977SOL    HW133861  13.141   2.877   3.229  1.2380  1.3193 -1.2275
 7977SOL    HW233862  13.039   2.912   3.122  0.3762 -0.6158 -1.0822
 7978SOL     OW33863   9.308   7.421   2.503  0.2402 -0.5236 -0.0424
 7978SOL    HW133864   9.270   7.356   2.444  0.1650  0.6053 -1.2971
 7978SOL    HW233865   9.299   7.383   2.591 -0.9124 -1.6371 -0.6168
 7979SOL     OW33866   0.447   7.994   3.338  0.0927  0.5280 -0.4766
 7979SOL    HW133867   0.527   7.973   3.387 -1.1685 -2.1841  0.6765
 7979SOL    HW233868   0.439   8.089   3.344  1.8702  0.6329  1.6084
 7980SOL     OW33869  11.604  10.418   0.640  0.0765  0.1418 -0.2311
 7980SOL    HW133870  11.634  10.340   0.687  0.8845  0.4139 -0.2750
 7980SOL    HW233871  11.539  10.386   0.578  1.6104 -0.7564 -1.4315
 7981SOL     OW33872   6.630  11.158   0.647 -0.0438 -0.0830 -0.2114
 7981SOL    HW133873   6.579  11.216   0.590  0.7456  0.5789 -0.2724
 7981SOL    HW233874   6.694  11.118   0.589  0.1364 -0.1529  0.0377
 7982SOL     OW33875   9.506  11.366   9.946 -0.1539 -0.3804 -0.2930
 7982SOL    HW133876   9.495  11.298  10.012  0.8889 -1.3745 -1.0905
 7982SOL    HW233877   9.508  11.448   9.995 -2.8368 -0.7309  0.5794
 7983SOL     OW33878  10.971   3.597   4.613 -0.3015  0.2233 -0.0588
 7983SOL    HW133879  10.941   3.645   4.536 -1.4877 -1.5630 -0.7727
 7983SOL    HW233880  10.947   3.506   4.596  2.7888 -0.8777  0.7568
 7984SOL     OW33881   2.257   5.601   0.833 -0.5117 -0.0965 -0.0170
 7984SOL    HW133882   2.259   5.563   0.921 -0.3538  2.1124  0.9929
 7984SOL    HW233883   2.182   5.661   0.835  0.4033  1.1050 -0.8880
 7985SOL     OW33884   6.137   0.774  11.979 -0.5015 -0.1699  0.0469
 7985SOL    HW133885   6.226   0.739  11.973 -0.6487 -0.3873 -1.3550
 7985SOL    HW233886   6.145   0.853  12.032  0.4095 -0.5433  0.4825
 7986SOL     OW33887  11.632   5.444  12.717 -0.1129  0.0485 -0.6130
 7986SOL    HW133888  11.679   5.479  12.642 -0.2597 -0.7015 -1.0693
 7986SOL    HW233889  11.671   5.488  12.793  1.1123 -0.3204 -1.0044
 7987SOL     OW33890   4.661  10.260   2.424 -0.0646 -0.4729  0.3207
 7987SOL    HW133891   4.753  10.286   2.428 -0.4032  0.6555  1.5107
 7987SOL    HW233892   4.639  10.259   2.331  1.0871 -0.5595  0.0413
 7988SOL     OW33893   6.710   0.474   0.451  0.0490  0.5370  0.4741
 7988SOL    HW133894   6.729   0.452   0.542  0.3284  1.1951  0.5765
 7988SOL    HW233895   6.620   0.443   0.438  0.0100  0.4294  0.9732
 7989SOL     OW33896   3.538   8.219   0.461 -0.2044  0.2595  0.0863
 7989SOL    HW133897   3.607   8.269   0.504 -0.7188  1.9382 -0.9773
 7989SOL    HW233898   3.527   8.260   0.375  0.2161 -2.4774 -1.3929
 7990SOL     OW33899   8.141   0.706   7.500  0.0111 -0.5294  0.1010
 7990SOL    HW133900   8.125   0.753   7.418 -0.8766  0.6805  0.9264
 7990SOL    HW233901   8.153   0.615   7.474  0.2554 -0.0944 -1.4106
 7991SOL     OW33902   2.935   1.597  10.094  0.3182 -0.2251  0.2431
 7991SOL    HW133903   3.027   1.598  10.066 -0.0840  2.2839 -1.2649
 7991SOL    HW233904   2.900   1.681  10.066 -2.4145 -0.9951  1.0193
 7992SOL     OW33905   4.881   1.495   3.568  0.4355 -0.2703  0.0656
 7992SOL    HW133906   4.967   1.526   3.596  0.2427  1.5782 -1.1825
 7992SOL    HW233907   4.836   1.574   3.539 -0.8951 -1.4737 -1.3349
 7993SOL     OW33908  11.619   5.541   5.401 -0.0532  0.3112 -0.5858
 7993SOL    HW133909  11.624   5.446   5.396  0.3668  0.2810  0.2339
 7993SOL    HW233910  11.613   5.569   5.310  0.4952 -0.4703 -0.8802
 7994SOL     OW33911   6.667   2.116   3.261 -0.3746  0.9398  0.2612
 7994SOL    HW133912   6.600   2.050   3.279 -0.5340  0.5045 -1.6887
 7994SOL    HW233913   6.618   2.198   3.253 -0.9440  0.4560 -2.2886
 7995SOL     OW33914   3.396   6.086   9.669 -0.3071 -0.1491  0.3558
 7995SOL    HW133915   3.425   5.995   9.661 -1.3329 -0.3927 -0.8793
 7995SOL    HW233916   3.421   6.112   9.758  1.4656 -1.0993  0.1789
 7996SOL     OW33917   1.442   4.589  12.592 -0.7260  0.1421  0.1583
 7996SOL    HW133918   1.503   4.582  12.519 -0.5617 -1.2303  0.4103
 7996SOL    HW233919   1.468   4.670  12.636  0.2142  0.1522 -0.3743
 7997SOL     OW33920   8.655   8.961   3.634 -0.1932 -0.2481 -0.2247
 7997SOL    HW133921   8.675   8.886   3.578 -0.5672 -0.5875  0.0990
 7997SOL    HW233922   8.562   8.954   3.652 -0.3191  0.5235 -0.5238
 7998SOL     OW33923   9.201  13.137   9.011 -0.0961  0.1840 -0.3620
 7998SOL    HW133924   9.240  13.092   9.086 -1.0785 -0.9725 -0.5033
 7998SOL    HW233925   9.272  13.190   8.974  0.9540 -0.8078  0.1745
 7999SOL     OW33926  13.044   7.012   4.272  0.6051  0.4207 -0.5689
 7999SOL    HW133927  13.098   6.953   4.325 -1.1384 -2.0928 -1.3815
 7999SOL    HW233928  13.107   7.071   4.229  2.6890 -1.9926 -1.0776
 8000SOL     OW33929   1.781   1.049   0.575  0.3219 -0.1448 -0.5495
 8000SOL    HW133930   1.873   1.053   0.599  0.8448 -2.5917 -1.8976
 8000SOL    HW233931   1.780   1.063   0.480 -0.8461  0.9665 -0.4074
 8001SOL     OW33932  12.710   7.541   2.995 -0.2612  0.0194  0.0674
 8001SOL    HW133933  12.675   7.578   2.914  0.7758 -1.3011 -1.0352
 8001SOL    HW233934  12.633   7.517   3.046 -0.9433 -0.2986 -1.0790
 8002SOL     OW33935   8.597   8.915   7.094 -0.6439 -0.4989  0.2824
 8002SOL    HW133936   8.665   8.896   7.030 -1.7475 -0.9367 -0.7879
 8002SOL    HW233937   8.634   8.987   7.146 -0.1663  0.6605 -1.5707
 8003SOL     OW33938  10.070   7.499   5.986  0.0187  0.1235  0.2525
 8003SOL    HW133939  10.102   7.542   5.907 -0.6919  0.1144 -0.0404
 8003SOL    HW233940  10.097   7.407   5.977  0.0423  0.1478  0.0865
 8004SOL     OW33941  11.402   9.806   5.218 -0.3019  0.7017 -0.0911
 8004SOL    HW133942  11.433   9.850   5.139 -0.0793 -0.6034 -0.7571
 8004SOL    HW233943  11.454   9.844   5.289 -0.4684  1.8521 -0.5583
 8005SOL     OW33944  11.958   4.810   5.751  0.2515 -0.4830 -0.0417
 8005SOL    HW133945  11.991   4.871   5.817 -0.9934 -0.6654  0.7769
 8005SOL    HW233946  11.918   4.866   5.684 -1.2763 -0.3595  0.9179
 8006SOL     OW33947   3.780  13.309   7.674  0.0199  0.2394  0.2476
 8006SOL    HW133948   3.783  13.248   7.600  1.1883  1.3361 -0.6620
 8006SOL    HW233949   3.687  13.325   7.689 -0.2503 -0.5924 -0.4777
 8007SOL     OW33950   3.707  13.280   8.897 -0.4538  0.0773 -0.0805
 8007SOL    HW133951   3.617  13.280   8.931 -0.0765 -0.7219  0.9682
 8007SOL    HW233952   3.759  13.311   8.971  0.2792 -0.7409 -0.2434
 8008SOL     OW33953   5.352  11.435   2.234  0.7309 -0.0605 -0.2852
 8008SOL    HW133954   5.356  11.531   2.236  0.0250  0.0210 -1.4813
 8008SOL    HW233955   5.302  11.411   2.312  1.6395  0.4788  0.4776
 8009SOL     OW33956  10.232   8.412   5.071  0.4492  0.1523 -0.1528
 8009SOL    HW133957  10.198   8.455   5.149  2.0996 -0.0109  0.7148
 8009SOL    HW233958  10.274   8.483   5.021  1.0288 -0.0264  0.0646
 8010SOL     OW33959  13.218   8.860   5.850  0.1199 -0.1619  0.4369
 8010SOL    HW133960  13.233   8.954   5.861  0.3742 -0.2637  0.9547
 8010SOL    HW233961  13.273   8.836   5.775 -2.1559  0.6630 -1.6471
 8011SOL     OW33962   6.431   9.009   9.671 -0.0866  0.2817  0.4652
 8011SOL    HW133963   6.370   8.953   9.719  1.2985  0.2413  2.2788
 8011SOL    HW233964   6.454   8.958   9.593 -0.8525 -0.5467  0.7666
 8012SOL     OW33965  10.860  12.199   9.758  0.1575 -0.4753  0.3946
 8012SOL    HW133966  10.810  12.117   9.756 -0.3030 -0.1947 -0.2329
 8012SOL    HW233967  10.852  12.234   9.669  0.4617  0.1830  0.6165
 8013SOL     OW33968   0.512   0.357   0.424  0.0661  0.7072 -0.7238
 8013SOL    HW133969   0.461   0.409   0.361  0.9565 -0.5800 -2.5870
 8013SOL    HW233970   0.446   0.315   0.479 -0.7037  3.0899  0.3339
 8014SOL     OW33971   0.957   2.196  10.105  0.6479 -0.5426 -0.3143
 8014SOL    HW133972   1.031   2.145  10.138  0.6262  0.1007  0.8214
 8014SOL    HW233973   0.919   2.235  10.184  0.3964  0.8480 -1.0971
 8015SOL     OW33974   7.960   6.232   1.375 -0.3083  0.7491 -0.4235
 8015SOL    HW133975   8.012   6.153   1.363  1.0510  1.5159  0.1854
 8015SOL    HW233976   8.008   6.299   1.327 -0.5756  1.5430  0.3925
 8016SOL     OW33977   4.010  11.794   6.469  0.2050 -0.3193  0.2175
 8016SOL    HW133978   3.949  11.859   6.504 -0.8667 -0.2809 -1.5734
 8016SOL    HW233979   4.088  11.802   6.524 -0.8687  0.6400  1.6749
 8017SOL     OW33980   0.692   9.360   1.467 -0.4337  0.2493 -0.0019
 8017SOL    HW133981   0.628   9.321   1.408  0.2133 -1.7062  0.5183
 8017SOL    HW233982   0.767   9.381   1.411  0.5397 -2.4289  0.1583
 8018SOL     OW33983  12.442   6.873   1.905  0.3986  0.2526 -0.1546
 8018SOL    HW133984  12.483   6.934   1.843  2.3488 -0.2776  0.5341
 8018SOL    HW233985  12.432   6.792   1.855  2.1619 -0.2389  0.1998
 8019SOL     OW33986   8.796   8.637   4.785 -0.2319 -0.3893  0.0224
 8019SOL    HW133987   8.770   8.652   4.694 -1.8100  0.3738  0.5593
 8019SOL    HW233988   8.778   8.544   4.800  0.0632 -0.5241 -0.4506
 8020SOL     OW33989   7.903   0.620   2.330 -0.1686 -0.2184  0.9210
 8020SOL    HW133990   7.871   0.532   2.311  1.0545 -1.1774  2.9844
 8020SOL    HW233991   7.980   0.630   2.273 -0.4268 -0.3877  0.5371
 8021SOL     OW33992   3.028  10.290   1.262 -0.3673  0.0945  0.1092
 8021SOL    HW133993   3.092  10.302   1.333  1.1681 -3.7919 -0.4037
 8021SOL    HW233994   3.062  10.343   1.190  1.6754 -0.9255  0.2594
 8022SOL     OW33995   8.814   8.501   2.909  0.1397 -0.3558  0.0569
 8022SOL    HW133996   8.867   8.490   2.830 -1.8797  0.7414 -1.5627
 8022SOL    HW233997   8.780   8.413   2.927 -0.4003 -0.4078 -1.1113
 8023SOL     OW33998   8.879  12.930   0.463  0.0887 -0.2826  0.1862
 8023SOL    HW133999   8.938  13.000   0.436  0.4660 -1.4594 -2.3190
 8023SOL    HW234000   8.936  12.855   0.482 -0.4651 -0.9527 -0.6850
 8024SOL     OW34001   6.463  12.582   6.379 -0.0200 -0.0520  0.1336
 8024SOL    HW134002   6.435  12.491   6.385  1.2366 -0.6833 -2.4461
 8024SOL    HW234003   6.435  12.611   6.293  1.7832  1.1884 -0.0946
 8025SOL     OW34004  12.085  11.449  13.160 -0.1153 -0.7144  0.0468
 8025SOL    HW134005  12.064  11.514  13.227  0.4520 -0.1425 -0.3134
 8025SOL    HW234006  12.021  11.465  13.091 -0.5289 -1.1226  0.3370
 8026SOL     OW34007   0.618   1.966   0.790 -0.0801 -0.2610 -0.1487
 8026SOL    HW134008   0.557   2.038   0.779  1.0681  0.5262 -1.8275
 8026SOL    HW234009   0.564   1.892   0.818 -1.3720  1.0643  0.9710
 8027SOL     OW34010  11.143   7.583  10.105  0.4744 -0.8148  0.2955
 8027SOL    HW134011  11.227   7.625  10.087 -0.8534  2.0359  0.2852
 8027SOL    HW234012  11.104   7.572  10.018  0.0707 -0.4071  0.4258
 8028SOL     OW34013   4.386   1.865   9.859 -0.1679  0.1843 -0.0596
 8028SOL    HW134014   4.417   1.856   9.950 -0.1520  1.3922  0.0674
 8028SOL    HW234015   4.370   1.775   9.831  1.3925 -0.3318  0.5918
 8029SOL     OW34016   7.408   4.958   9.652  0.0756 -0.2686  0.1647
 8029SOL    HW134017   7.367   5.040   9.679  1.5039  0.7975 -0.7483
 8029SOL    HW234018   7.394   4.899   9.726 -1.4408  0.6203  0.6244
 8030SOL     OW34019   8.140   6.834   8.147  0.4898 -0.3257 -0.2016
 8030SOL    HW134020   8.141   6.740   8.160  2.9776 -0.4693 -0.9881
 8030SOL    HW234021   8.167   6.847   8.056 -1.3323  1.1255 -0.5981
 8031SOL     OW34022   2.374  13.229   7.410 -0.2107  0.4509 -0.0606
 8031SOL    HW134023   2.341  13.292   7.346 -0.7540  1.0145  0.7712
 8031SOL    HW234024   2.319  13.152   7.398  0.2952  0.1979 -0.9055
 8032SOL     OW34025  10.260   0.632   3.610 -0.2175  0.0931  0.2497
 8032SOL    HW134026  10.274   0.625   3.516  0.2243 -0.1859  0.3315
 8032SOL    HW234027  10.195   0.564   3.630 -0.0550 -0.0788  0.1980
 8033SOL     OW34028   4.901  10.843   0.627 -0.3200  0.0724 -0.3217
 8033SOL    HW134029   4.908  10.873   0.536 -2.6272  0.1124 -0.5517
 8033SOL    HW234030   4.907  10.747   0.621  0.7918  0.1288 -0.3354
 8034SOL     OW34031  12.792   4.314  10.295  0.2489  0.0429  0.8194
 8034SOL    HW134032  12.847   4.321  10.218  0.5952  2.7688  1.2222
 8034SOL    HW234033  12.703   4.324  10.262  0.3997  1.2502  0.7385
 8035SOL     OW34034   0.488   6.140   5.425 -0.3201 -0.0602 -0.5924
 8035SOL    HW134035   0.393   6.126   5.426 -0.4251  0.5609 -1.0779
 8035SOL    HW234036   0.499   6.229   5.391  0.3796  0.4172  0.8049
 8036SOL     OW34037  10.565   5.071  10.034 -0.1478 -0.1000  0.3164
 8036SOL    HW134038  10.620   5.028  10.099  1.0077  1.0764  0.1690
 8036SOL    HW234039  10.574   5.017   9.956  2.4528  1.0615 -0.3069
 8037SOL     OW34040   1.390   7.112  12.568 -0.2797  0.0490 -0.1270
 8037SOL    HW134041   1.473   7.147  12.536  0.0872 -0.3166  0.4116
 8037SOL    HW234042   1.340   7.092  12.488 -0.4935  1.7469 -0.4395
 8038SOL     OW34043   9.308   5.336  10.168 -0.6046  0.2936  0.1921
 8038SOL    HW134044   9.346   5.300  10.247 -1.3383 -1.2010 -0.1016
 8038SOL    HW234045   9.382   5.348  10.109 -0.1986  0.3543  0.7067
 8039SOL     OW34046  11.067   4.144  13.027 -0.0010  0.1645 -0.4700
 8039SOL    HW134047  11.162   4.135  13.038  0.0015 -0.8919 -1.1680
 8039SOL    HW234048  11.038   4.058  12.996 -1.7532 -0.7636  3.1620
 8040SOL     OW34049   2.002   6.295   2.650 -0.0282 -0.0473 -0.4303
 8040SOL    HW134050   2.053   6.240   2.710 -0.9048 -0.1936  0.1892
 8040SOL    HW234051   1.914   6.258   2.652 -0.3563  0.6911 -0.8761
 8041SOL     OW34052   5.897  11.155   7.340  0.0026 -0.0101  0.2030
 8041SOL    HW134053   5.923  11.203   7.262 -1.5700 -0.6209 -0.7252
 8041SOL    HW234054   5.875  11.223   7.404  1.2726  0.4883  0.1352
 8042SOL     OW34055  10.733   8.532   1.449  0.3286 -0.4906 -0.5319
 8042SOL    HW134056  10.649   8.566   1.417  0.1362 -0.7217 -0.2814
 8042SOL    HW234057  10.723   8.436   1.446  0.0401 -0.5192  0.8864
 8043SOL     OW34058   1.348   5.219  12.002 -0.4638 -0.5509 -0.4494
 8043SOL    HW134059   1.375   5.128  12.013 -0.4320 -0.4711  0.1503
 8043SOL    HW234060   1.415   5.270  12.047 -0.7001 -0.2532 -0.4342
 8044SOL     OW34061   5.122   4.216   7.155  0.2427 -0.1169 -0.2062
 8044SOL    HW134062   5.118   4.289   7.093  0.7612  0.6207  0.5980
 8044SOL    HW234063   5.031   4.192   7.169  0.1525 -1.2423 -2.2951
 8045SOL     OW34064   6.600   2.545   1.560  0.2330 -0.4686  0.2899
 8045SOL    HW134065   6.622   2.638   1.568  0.6376 -0.3680 -1.5842
 8045SOL    HW234066   6.543   2.528   1.635  1.4696  0.8621  1.6187
 8046SOL     OW34067   9.616   7.677  11.766 -0.5124 -0.0667  0.5530
 8046SOL    HW134068   9.673   7.753  11.754 -1.7342  0.6559 -1.2479
 8046SOL    HW234069   9.670   7.613  11.812  2.0716  0.2256 -1.8232
 8047SOL     OW34070   0.381   0.696  10.216 -0.0837 -0.0974  0.2739
 8047SOL    HW134071   0.431   0.755  10.160  2.0494 -0.8257  1.3166
 8047SOL    HW234072   0.383   0.612  10.170  1.6235 -0.6824  1.3486
 8048SOL     OW34073   2.733   0.336   7.221  0.0212 -0.6430  0.2634
 8048SOL    HW134074   2.798   0.392   7.180 -0.7210  0.0807  0.0512
 8048SOL    HW234075   2.685   0.298   7.147 -1.0300  0.3181  0.4274
 8049SOL     OW34076  12.083   4.046  12.959 -0.2080 -0.1037 -0.1890
 8049SOL    HW134077  12.066   3.957  12.928 -0.0413 -0.6115  1.1000
 8049SOL    HW234078  12.001   4.071  13.003 -0.1064  0.2084 -0.1777
 8050SOL     OW34079  12.774   3.983   4.932  0.6718  0.2095  0.9117
 8050SOL    HW134080  12.693   4.000   4.884  0.7647  1.1769  1.0715
 8050SOL    HW234081  12.756   3.903   4.982 -0.4019  0.7176  1.3945
 8051SOL     OW34082   3.669   5.167   1.238  0.0988 -0.4615  0.0852
 8051SOL    HW134083   3.607   5.198   1.172 -1.0662  0.1481  1.3921
 8051SOL    HW234084   3.735   5.236   1.244  0.5543 -0.7979 -0.8355
 8052SOL     OW34085   8.446  11.644   7.671 -0.2247  0.1733 -0.1117
 8052SOL    HW134086   8.400  11.720   7.635 -2.0530 -1.0602 -0.4942
 8052SOL    HW234087   8.533  11.678   7.693 -0.8995  2.3160 -0.4570
 8053SOL     OW34088   8.971   9.369   0.800  0.0942 -0.0056  0.5613
 8053SOL    HW134089   9.021   9.379   0.881  0.8214  1.3839 -0.0221
 8053SOL    HW234090   8.971   9.456   0.760  0.2768 -0.7666 -1.2321
 8054SOL     OW34091  12.199  13.116   3.653 -0.1308 -0.0309  0.7830
 8054SOL    HW134092  12.292  13.105   3.673 -0.1766  0.0963  1.0658
 8054SOL    HW234093  12.154  13.105   3.737 -0.5891 -2.5789  0.2721
 8055SOL     OW34094   4.275   7.807   4.137  0.0439 -0.1842 -0.4360
 8055SOL    HW134095   4.215   7.757   4.082 -1.2506 -1.0938  1.7003
 8055SOL    HW234096   4.315   7.871   4.077 -1.8439 -0.6075 -2.2430
 8056SOL     OW34097   6.194   2.114  11.748  0.9267 -0.0170  0.3829
 8056SOL    HW134098   6.193   2.154  11.662  1.1214  1.0604  0.8634
 8056SOL    HW234099   6.126   2.047  11.745  1.9048 -0.9807 -1.0507
 8057SOL     OW34100   0.663   0.682   8.689 -0.1731  0.4228  0.0557
 8057SOL    HW134101   0.604   0.687   8.614  0.5042 -1.2660 -0.6436
 8057SOL    HW234102   0.647   0.763   8.737  0.1783  2.1401 -2.5011
 8058SOL     OW34103   3.338   6.718  11.077  0.1959 -0.2291  0.1914
 8058SOL    HW134104   3.357   6.714  11.170 -0.9206  1.0108  0.4861
 8058SOL    HW234105   3.346   6.810  11.054  1.2894 -0.6078 -1.1506
 8059SOL     OW34106   7.531  11.094  12.400 -0.2032 -0.4058  0.0865
 8059SOL    HW134107   7.457  11.102  12.460  0.1769 -0.3347  0.5529
 8059SOL    HW234108   7.506  11.025  12.339  0.6863 -2.7684  2.2380
 8060SOL     OW34109   7.859   8.625   5.858 -0.0268  0.1615  0.0530
 8060SOL    HW134110   7.875   8.700   5.916 -0.0265 -1.0761  1.7460
 8060SOL    HW234111   7.764   8.622   5.848 -0.1686 -0.4738  1.2862
 8061SOL     OW34112   7.781   0.254   3.956 -0.0521  0.2259  0.3564
 8061SOL    HW134113   7.766   0.338   4.001  0.3788  0.5173 -0.0412
 8061SOL    HW234114   7.834   0.203   4.018  1.4024  1.0018 -0.1990
 8062SOL     OW34115   2.609   7.842  10.866 -0.3648  0.1399  0.2789
 8062SOL    HW134116   2.601   7.874  10.776 -0.1105 -0.0720  0.1778
 8062SOL    HW234117   2.653   7.914  10.913 -1.4577  0.6959  0.4969
 8063SOL     OW34118   8.159  10.562   3.010 -0.0897 -0.2143  0.1870
 8063SOL    HW134119   8.209  10.484   2.985 -1.7852 -0.6718 -2.0632
 8063SOL    HW234120   8.085  10.528   3.061  0.2188  0.1716  0.9234
 8064SOL     OW34121  10.608   7.175   6.296  0.0785  0.0423 -0.4341
 8064SOL    HW134122  10.521   7.159   6.332 -0.4084  1.1198 -1.1037
 8064SOL    HW234123  10.658   7.097   6.320 -0.3330  0.4945  2.1640
 8065SOL     OW34124   3.240   1.674   9.823 -0.1647 -0.1661  0.2884
 8065SOL    HW134125   3.164   1.728   9.802 -0.2072 -0.6428 -0.8206
 8065SOL    HW234126   3.204   1.590   9.850 -0.0264 -0.3664 -0.1564
 8066SOL     OW34127  12.929   9.542  11.248  0.5934  0.1822  0.0376
 8066SOL    HW134128  12.953   9.625  11.288 -0.3227  0.3170  0.3399
 8066SOL    HW234129  12.993   9.479  11.281  0.7493  0.5925  0.5264
 8067SOL     OW34130   6.536   7.044   3.935  0.7478 -0.1427 -0.1865
 8067SOL    HW134131   6.581   6.965   3.905  0.5582 -0.1270 -0.5231
 8067SOL    HW234132   6.474   7.064   3.865 -0.1744 -0.4830  0.5107
 8068SOL     OW34133   5.973   5.746   3.362  0.1820  0.1863  0.1188
 8068SOL    HW134134   5.892   5.765   3.409  0.8081 -0.7048  1.6127
 8068SOL    HW234135   6.036   5.811   3.394  0.5752 -0.3356  0.4091
 8069SOL     OW34136   6.769   2.053   3.913 -0.2592  0.2621 -0.1634
 8069SOL    HW134137   6.793   1.984   3.852  1.0523  0.0155  0.5828
 8069SOL    HW234138   6.783   2.134   3.865  2.0772  0.1289  0.1575
 8070SOL     OW34139  12.329   9.531  13.138  0.3552 -0.0011  0.2325
 8070SOL    HW134140  12.394   9.595  13.168 -0.5896  0.9353  0.3309
 8070SOL    HW234141  12.304   9.483  13.216  0.2202  0.2965  0.3737
 8071SOL     OW34142  12.329   0.863   9.041  0.1107  0.1187  0.0565
 8071SOL    HW134143  12.316   0.881   9.134 -2.7694  1.8401 -0.5502
 8071SOL    HW234144  12.396   0.926   9.014 -1.1654  1.7255  0.4436
 8072SOL     OW34145   5.466   9.256   9.593  0.2180 -0.4453  0.3626
 8072SOL    HW134146   5.428   9.273   9.507 -1.1538  0.2964  1.0820
 8072SOL    HW234147   5.540   9.316   9.599 -0.4314  0.4086  0.1575
 8073SOL     OW34148  10.810   7.857   6.211  0.6441 -0.0288  0.3756
 8073SOL    HW134149  10.773   7.785   6.160  0.5277  0.5410 -0.3609
 8073SOL    HW234150  10.897   7.870   6.175  1.0140 -0.3713  1.1047
 8074SOL     OW34151   5.712  13.128   6.795  0.5584  0.1713  0.5039
 8074SOL    HW134152   5.717  13.118   6.890 -1.1011  2.3805  0.8963
 8074SOL    HW234153   5.795  13.093   6.763  0.6534 -1.7948  2.6087
 8075SOL     OW34154   7.768   7.766   4.696 -0.3654 -0.6278  0.0489
 8075SOL    HW134155   7.691   7.809   4.659 -0.1298 -0.0274  0.2459
 8075SOL    HW234156   7.742   7.674   4.706 -0.9551 -0.4857 -0.1501
 8076SOL     OW34157  13.085   8.316   4.728  0.0194 -0.3735 -0.1471
 8076SOL    HW134158  13.128   8.241   4.688 -1.4073 -0.6094 -1.3323
 8076SOL    HW234159  13.075   8.378   4.656  2.9279  1.8996  1.1528
 8077SOL     OW34160   9.155   6.259   4.896 -0.1315  0.0902  0.7060
 8077SOL    HW134161   9.070   6.247   4.939  0.7413 -2.2838  1.9448
 8077SOL    HW234162   9.218   6.257   4.968  1.0508  1.1683 -0.2568
 8078SOL     OW34163  10.937   3.921   7.486 -0.0196  0.5608 -0.2102
 8078SOL    HW134164  10.995   3.938   7.561 -0.3470  0.4515  0.0675
 8078SOL    HW234165  10.974   3.843   7.445  0.5855  1.0361 -0.5877
 8079SOL     OW34166   9.836  11.547  11.866  0.0263 -0.2557  0.8737
 8079SOL    HW134167   9.817  11.457  11.839  1.0465  0.2090 -1.5832
 8079SOL    HW234168   9.908  11.538  11.928  2.4837 -1.0262 -1.8841
 8080SOL     OW34169   5.299   1.350   3.831 -0.1409 -0.4572  0.3326
 8080SOL    HW134170   5.255   1.266   3.817 -0.7225  0.1550 -1.9263
 8080SOL    HW234171   5.245   1.395   3.895  1.0291 -2.3341  2.8131
 8081SOL     OW34172   1.923   5.948   5.751 -0.2741  0.4404 -0.1106
 8081SOL    HW134173   1.964   6.003   5.818  1.6425  0.8313 -1.5018
 8081SOL    HW234174   1.882   5.877   5.800  3.0556 -0.5969  1.4636
 8082SOL     OW34175  11.141  11.681   8.518 -0.1687  0.2156  0.1167
 8082SOL    HW134176  11.158  11.642   8.604  1.0449  0.1345 -0.1426
 8082SOL    HW234177  11.047  11.702   8.519 -0.2822 -0.2846  1.2483
 8083SOL     OW34178   7.832   8.872   7.333  0.3415  0.1484  0.5476
 8083SOL    HW134179   7.768   8.857   7.263 -0.0435  0.6733  0.7782
 8083SOL    HW234180   7.780   8.897   7.409  0.8169  0.5761  0.7410
 8084SOL     OW34181   4.627  11.400  12.608  0.3528 -0.2509  0.3714
 8084SOL    HW134182   4.619  11.322  12.554  1.2288 -1.2677  1.6466
 8084SOL    HW234183   4.688  11.375  12.678  0.4530  1.4911  0.9612
 8085SOL     OW34184  11.649   5.573  11.940 -0.6643  0.0349  0.0996
 8085SOL    HW134185  11.722   5.632  11.919 -1.7766  0.3786 -3.2756
 8085SOL    HW234186  11.577   5.632  11.962 -0.3690 -0.2890  2.1844
 8086SOL     OW34187   7.991   8.489   9.780  0.4479  0.1815  0.6923
 8086SOL    HW134188   7.993   8.466   9.873 -1.7811  1.5119  1.1605
 8086SOL    HW234189   7.936   8.421   9.740 -0.0887  0.5946  0.7119
 8087SOL     OW34190   3.795   0.339   3.204  0.1031 -0.4135  0.0956
 8087SOL    HW134191   3.724   0.328   3.267  0.2210  2.0297  0.7304
 8087SOL    HW234192   3.801   0.433   3.189  1.5906 -0.7393 -1.8500
 8088SOL     OW34193   4.799   2.352   9.399 -0.3100 -0.0063  0.4113
 8088SOL    HW134194   4.882   2.317   9.430 -0.0975 -1.6494 -1.7174
 8088SOL    HW234195   4.816   2.445   9.384  0.1977  0.3532  2.8241
 8089SOL     OW34196   8.805  10.835   4.159 -0.1817 -0.5998  0.3256
 8089SOL    HW134197   8.768  10.919   4.132  1.3687  0.0170 -0.0007
 8089SOL    HW234198   8.763  10.770   4.102 -0.4970  0.1019 -0.2474
 8090SOL     OW34199  13.180   5.755   2.996  0.0721 -0.1377 -0.0149
 8090SOL    HW134200  13.203   5.786   3.084  0.9934 -0.0162 -0.2872
 8090SOL    HW234201  13.158   5.663   3.008  0.4780 -0.1964  0.3026
 8091SOL     OW34202   9.051   1.879   3.656  0.0016 -0.1271  0.5009
 8091SOL    HW134203   9.090   1.796   3.682 -0.9481 -1.0273 -0.7879
 8091SOL    HW234204   9.121   1.926   3.611  0.2197 -0.7679  0.1591
 8092SOL     OW34205   1.320   1.483   0.471  0.2009  0.3941 -0.5897
 8092SOL    HW134206   1.304   1.543   0.398 -0.1099 -0.2318 -1.0452
 8092SOL    HW234207   1.235   1.475   0.514  0.0933 -0.2128 -0.9129
 8093SOL     OW34208  11.174   7.658   3.088  0.1892 -0.4277  0.1033
 8093SOL    HW134209  11.091   7.624   3.055 -2.4855  3.5771  1.9195
 8093SOL    HW234210  11.226   7.673   3.009 -1.8144 -0.8030 -1.3830
 8094SOL     OW34211   8.245   5.124   6.718 -0.5533 -0.4099 -0.1341
 8094SOL    HW134212   8.243   5.217   6.697  0.3030 -0.8039 -2.2601
 8094SOL    HW234213   8.214   5.081   6.638 -1.9262 -1.9286  1.1533
 8095SOL     OW34214   5.458   0.672   4.535  0.2642  0.0480  0.4555
 8095SOL    HW134215   5.404   0.628   4.600  0.8078 -0.4176  0.5990
 8095SOL    HW234216   5.398   0.693   4.464 -0.2825  0.3295  0.9926
 8096SOL     OW34217   5.488   1.203   1.943  0.0907 -0.0531 -0.1045
 8096SOL    HW134218   5.560   1.141   1.932 -1.5572 -2.1249 -0.0549
 8096SOL    HW234219   5.515   1.281   1.895  3.0117 -0.0909  1.2791
 8097SOL     OW34220   4.257   5.622   8.559 -0.5878  0.0060  0.3653
 8097SOL    HW134221   4.255   5.702   8.613 -0.2896 -0.2599  0.7769
 8097SOL    HW234222   4.225   5.650   8.474  3.0405  1.4670 -0.7185
 8098SOL     OW34223   3.091   5.495   7.612  0.2562  0.8219 -0.7319
 8098SOL    HW134224   3.082   5.527   7.522  1.9646  0.1647 -1.1773
 8098SOL    HW234225   3.175   5.531   7.641  0.0148  0.5060  0.3964
 8099SOL     OW34226   9.141   1.019   2.818 -0.1997 -0.0577  0.1172
 8099SOL    HW134227   9.050   1.047   2.816 -0.1262  0.4614  1.9907
 8099SOL    HW234228   9.138   0.925   2.803 -1.1079 -0.1481  0.8175
 8100SOL     OW34229   7.715   4.909   9.595  0.0126 -0.0418  0.1625
 8100SOL    HW134230   7.757   4.857   9.664 -0.3373  0.5132  0.8120
 8100SOL    HW234231   7.627   4.926   9.628 -0.5790 -0.7846 -0.9734
 8101SOL     OW34232   5.818  13.268   1.691  0.0913  0.6336 -0.5744
 8101SOL    HW134233   5.904  13.301   1.715  0.4992 -1.2908  0.9276
 8101SOL    HW234234   5.762  13.292   1.766  0.3121 -1.5359  0.3678
 8102SOL     OW34235   7.726   6.602  12.244 -0.6675 -0.5103 -0.0861
 8102SOL    HW134236   7.632   6.604  12.264 -0.2705 -0.3418  1.9488
 8102SOL    HW234237   7.769   6.598  12.329  1.2276  0.6000 -0.9255
 8103SOL     OW34238   9.794   0.191  11.218  0.3540 -0.0608  0.3844
 8103SOL    HW134239   9.861   0.143  11.268  0.7323 -0.1808 -0.2316
 8103SOL    HW234240   9.843   0.261  11.174  0.0400 -0.0272  0.0872
 8104SOL     OW34241   7.336  10.077   1.922 -0.3573  0.4729 -0.2185
 8104SOL    HW134242   7.336  10.160   1.873 -0.7194  1.2062  0.9684
 8104SOL    HW234243   7.415  10.032   1.893 -0.6002  0.8404 -1.5267
 8105SOL     OW34244   9.569   0.066   1.292 -0.1137  0.5393 -0.0574
 8105SOL    HW134245   9.579   0.104   1.204  1.8697 -0.2412 -0.2190
 8105SOL    HW234246   9.637   0.109   1.344 -1.7698  1.5817  1.3694
 8106SOL     OW34247   9.533   2.572   0.099  0.2872 -0.6465 -0.0928
 8106SOL    HW134248   9.606   2.511   0.093 -0.8415 -1.9670 -1.0196
 8106SOL    HW234249   9.475   2.548   0.027 -1.3369 -0.0236  0.9276
 8107SOL     OW34250  13.031   0.186   9.046  0.2378 -0.6851 -0.1218
 8107SOL    HW134251  13.050   0.092   9.039  1.4260 -0.3982 -1.0060
 8107SOL    HW234252  13.116   0.228   9.046 -0.2271  0.3555  1.6205
 8108SOL     OW34253   5.276  10.002   5.161  0.0851  0.2983  0.1642
 8108SOL    HW134254   5.224  10.075   5.128 -1.3093 -0.4339  0.6700
 8108SOL    HW234255   5.350   9.996   5.100 -0.3990  1.3785 -0.5625
 8109SOL     OW34256   2.844   5.979   8.278  0.4661  0.3635 -0.3931
 8109SOL    HW134257   2.796   5.986   8.196 -0.5173  0.4306  0.1654
 8109SOL    HW234258   2.802   5.907   8.324 -0.4410  1.6876  0.9590
 8110SOL     OW34259  12.813   6.703  10.600 -0.1082  0.1444 -0.1349
 8110SOL    HW134260  12.862   6.652  10.535  0.0599  1.3262 -0.9744
 8110SOL    HW234261  12.838   6.664  10.684  2.4715  0.8102 -0.5103
 8111SOL     OW34262   3.629   6.211   4.852  0.5995  0.3286 -0.1639
 8111SOL    HW134263   3.622   6.158   4.773  0.5167 -1.1787  0.8065
 8111SOL    HW234264   3.718   6.244   4.851  0.3338  1.0745 -1.3210
 8112SOL     OW34265   3.519   2.552   0.114  0.3549 -0.4037 -0.0802
 8112SOL    HW134266   3.553   2.462   0.119  0.9494 -0.1962 -0.2555
 8112SOL    HW234267   3.508   2.567   0.020 -1.4207 -0.8916  0.0141
 8113SOL     OW34268  11.275   3.430  10.888 -0.5414 -0.1981 -0.0037
 8113SOL    HW134269  11.352   3.480  10.915 -0.4347 -0.2432 -0.2190
 8113SOL    HW234270  11.201   3.478  10.925 -0.3668 -0.6461  0.9551
 8114SOL     OW34271   3.183   4.911  12.692 -0.1897 -0.1318  0.3613
 8114SOL    HW134272   3.125   4.984  12.668  0.7031  0.2748 -0.5896
 8114SOL    HW234273   3.255   4.916  12.630  0.0016 -1.7028  0.4328
 8115SOL     OW34274   0.514   2.210   0.446 -0.2028 -0.0778  0.1230
 8115SOL    HW134275   0.496   2.125   0.487 -2.0761  0.2169  0.0216
 8115SOL    HW234276   0.568   2.256   0.509 -0.0639 -0.9541  0.6610
 8116SOL     OW34277   5.584   4.190  11.692  0.4646  0.5869  0.4881
 8116SOL    HW134278   5.618   4.119  11.638 -1.2823 -0.0938  0.2260
 8116SOL    HW234279   5.643   4.264  11.674  1.1978 -0.2519 -0.6731
 8117SOL     OW34280   6.033   4.951   2.719  0.3918  0.0531 -0.0279
 8117SOL    HW134281   6.102   4.900   2.761 -0.0632 -0.9676 -0.4790
 8117SOL    HW234282   6.076   5.033   2.694  1.5718 -0.7268 -0.6802
 8118SOL     OW34283   6.680   5.749   4.268  0.3630 -0.0008 -0.5664
 8118SOL    HW134284   6.735   5.765   4.191 -0.8460 -1.8856 -1.9316
 8118SOL    HW234285   6.740   5.717   4.335  1.0587 -1.3952 -1.8050
 8119SOL     OW34286   5.784   5.789   1.972 -0.1232 -0.1632  0.0161
 8119SOL    HW134287   5.774   5.698   2.000 -0.5554 -0.4280 -0.9729
 8119SOL    HW234288   5.810   5.835   2.052 -0.1729 -1.0967  0.5927
 8120SOL     OW34289   0.671   2.639  11.298 -0.4481 -0.2478 -0.1981
 8120SOL    HW134290   0.638   2.700  11.232  1.0676 -0.3367 -1.1027
 8120SOL    HW234291   0.713   2.569  11.247 -2.4354 -2.2863  0.7882
 8121SOL     OW34292   5.348  10.693   2.357  1.2004  0.3739  0.0502
 8121SOL    HW134293   5.333  10.747   2.280 -1.1784  0.5847  0.6010
 8121SOL    HW234294   5.351  10.603   2.323 -1.3038  0.3234 -0.1999
 8122SOL     OW34295   7.396   3.106   1.389  0.4477  0.4294 -0.0038
 8122SOL    HW134296   7.477   3.057   1.371 -0.1899 -1.5917  2.0519
 8122SOL    HW234297   7.423   3.197   1.391  2.2274 -0.0114 -1.5317
 8123SOL     OW34298   4.434  10.043   6.058  0.2445  0.5446 -0.2712
 8123SOL    HW134299   4.458  10.031   5.966  0.4750 -1.1436 -0.0188
 8123SOL    HW234300   4.494   9.986   6.106 -0.6246  0.5367  0.8330
 8124SOL     OW34301  13.122   1.937   0.769 -0.0587  0.0372  0.6123
 8124SOL    HW134302  13.188   1.993   0.729 -1.9370  0.7339 -1.7873
 8124SOL    HW234303  13.039   1.968   0.733 -1.3839 -3.0452  0.6739
 8125SOL     OW34304  12.719   2.277   9.509 -0.0299  0.2749 -0.7840
 8125SOL    HW134305  12.734   2.190   9.474  2.5023 -0.5455  1.9131
 8125SOL    HW234306  12.801   2.324   9.495 -0.4348  1.3160  0.1189
 8126SOL     OW34307   3.604  10.915   1.722 -0.2545 -0.5692  0.2520
 8126SOL    HW134308   3.697  10.931   1.702 -0.1946 -0.8969  0.2670
 8126SOL    HW234309   3.567  11.003   1.735 -0.3772 -0.2979 -1.6363
 8127SOL     OW34310   3.803  12.364  10.901  0.3143 -0.1096  0.7574
 8127SOL    HW134311   3.807  12.326  10.988  0.5817  1.2441  1.3589
 8127SOL    HW234312   3.717  12.405  10.896 -0.2523 -1.3636 -0.1446
 8128SOL     OW34313   5.915   9.359  11.188 -0.3705  0.1171  0.0800
 8128SOL    HW134314   5.831   9.405  11.196 -1.1143 -1.0385 -0.7342
 8128SOL    HW234315   5.895   9.268  11.211  0.4948 -0.3216 -0.8248
 8129SOL     OW34316   6.513   5.237   2.327 -0.0397  0.4302 -0.4665
 8129SOL    HW134317   6.544   5.311   2.276  1.9899 -0.1007 -0.0976
 8129SOL    HW234318   6.583   5.221   2.391  0.0994 -2.4196 -1.2031
 8130SOL     OW34319   9.566   0.937  10.780  0.4521  0.3945  0.3074
 8130SOL    HW134320   9.632   0.868  10.768 -0.9570 -1.1847  1.1931
 8130SOL    HW234321   9.489   0.904  10.734  0.8789  3.3619 -2.9820
 8131SOL     OW34322   2.964   1.024   4.319  0.0612  0.6335  0.3649
 8131SOL    HW134323   2.966   0.934   4.286 -0.8723  0.3520  1.0306
 8131SOL    HW234324   2.977   1.078   4.241  0.1686 -0.0684 -0.1141
 8132SOL     OW34325   1.239   0.308   7.716  0.1645 -0.4489 -0.4631
 8132SOL    HW134326   1.318   0.288   7.766  1.1954  1.7288 -1.0891
 8132SOL    HW234327   1.270   0.360   7.642 -2.0294  2.8300  0.6733
 8133SOL     OW34328   1.670  11.389   0.414  0.1742  0.1134 -0.1185
 8133SOL    HW134329   1.640  11.305   0.378 -1.1417  0.6205 -0.2364
 8133SOL    HW234330   1.595  11.447   0.407  1.1762  1.4251 -0.3605
 8134SOL     OW34331   2.984   9.564   7.681  0.3438 -0.2272 -0.1045
 8134SOL    HW134332   2.978   9.483   7.630 -2.5537 -0.6864  0.7791
 8134SOL    HW234333   3.052   9.546   7.746  0.9353 -1.2784 -0.9699
 8135SOL     OW34334   4.109  12.086  11.843 -0.2068  0.0261  0.7765
 8135SOL    HW134335   4.047  12.106  11.913  0.1483  0.4781  0.9701
 8135SOL    HW234336   4.122  11.992  11.847 -1.4273 -0.1842  0.2733
 8136SOL     OW34337   5.514   7.614   7.183 -0.4208 -0.3894  0.1275
 8136SOL    HW134338   5.562   7.697   7.174  1.5706 -1.3333  1.2439
 8136SOL    HW234339   5.449   7.616   7.113  1.0826  1.1309 -1.3390
 8137SOL     OW34340   0.260  12.866   7.855 -0.2013  0.3982  0.0462
 8137SOL    HW134341   0.234  12.783   7.815  1.6367 -0.0156 -0.3983
 8137SOL    HW234342   0.183  12.895   7.903 -0.8691 -1.6241  0.2959
 8138SOL     OW34343   0.509  11.401   0.345  0.1119 -0.8579  0.5657
 8138SOL    HW134344   0.442  11.334   0.352 -2.5386  1.5187 -0.3139
 8138SOL    HW234345   0.482  11.469   0.407  1.1680  0.5911 -0.4740
 8139SOL     OW34346   3.606   5.254  12.662  0.5079 -0.1693  0.3320
 8139SOL    HW134347   3.674   5.310  12.625 -0.7512  1.4159  0.2818
 8139SOL    HW234348   3.603   5.178  12.604  1.7760  0.0378 -0.0314
 8140SOL     OW34349   9.641   6.999  10.882 -0.3009  0.1599  0.1525
 8140SOL    HW134350   9.626   6.965  10.794 -1.3849 -1.4743  0.9222
 8140SOL    HW234351   9.662   6.922  10.935 -0.4484  0.9926  1.4918
 8141SOL     OW34352   4.972  10.812   3.336  0.1909  0.0119 -0.2191
 8141SOL    HW134353   4.985  10.856   3.420  0.9873 -0.2469 -0.1993
 8141SOL    HW234354   4.887  10.844   3.306 -0.4804 -0.4939  1.0509
 8142SOL     OW34355   9.268   0.941   7.496 -0.3193  0.7698  0.5898
 8142SOL    HW134356   9.251   0.864   7.550  1.3374  1.0103  1.5531
 8142SOL    HW234357   9.364   0.946   7.491 -0.4049  2.2413 -0.2158
 8143SOL     OW34358   8.635  10.188   2.768 -0.7393 -0.1440  0.0185
 8143SOL    HW134359   8.676  10.235   2.841  0.4925  0.6165 -1.1193
 8143SOL    HW234360   8.613  10.102   2.805  0.8997 -0.1931  0.9953
 8144SOL     OW34361   1.162   9.239   8.932 -0.2224 -0.1829 -0.3052
 8144SOL    HW134362   1.243   9.266   8.889  1.0921 -1.3302  1.3374
 8144SOL    HW234363   1.187   9.219   9.022 -2.2141 -1.1694  0.0948
 8145SOL     OW34364   3.711   9.261   5.791 -0.1676 -0.0791  0.6758
 8145SOL    HW134365   3.678   9.277   5.879 -1.4407  1.1680 -0.0018
 8145SOL    HW234366   3.802   9.291   5.794 -1.1022  3.0588  0.7520
 8146SOL     OW34367   8.429  10.078   3.635  0.3235  0.3515  0.0918
 8146SOL    HW134368   8.465  10.166   3.631  0.1551  0.4708  1.0768
 8146SOL    HW234369   8.454  10.045   3.721 -1.4690  0.2460  0.6045
 8147SOL     OW34370  12.455   8.853   7.775 -0.9654 -0.4304  0.1568
 8147SOL    HW134371  12.471   8.761   7.794 -0.4919 -0.5636 -0.7840
 8147SOL    HW234372  12.542   8.893   7.778 -0.9411 -0.3544 -1.0498
 8148SOL     OW34373   2.655   9.210  12.628 -0.4787  0.2002  0.1400
 8148SOL    HW134374   2.731   9.204  12.685  0.0088 -0.5814 -0.5605
 8148SOL    HW234375   2.647   9.123  12.589 -0.1617  0.9532 -1.7451
 8149SOL     OW34376  12.454   8.204   5.715 -0.2234 -0.0097  0.2805
 8149SOL    HW134377  12.521   8.214   5.647 -0.2030  2.8218  0.5942
 8149SOL    HW234378  12.502   8.176   5.792  0.1484 -0.6872 -0.1835
 8150SOL     OW34379   1.353   8.136   1.254  0.2953  0.1253  0.4039
 8150SOL    HW134380   1.272   8.183   1.234  0.2821  0.9996  2.3100
 8150SOL    HW234381   1.337   8.047   1.223 -2.0538 -0.1667  2.2052
 8151SOL     OW34382   0.462  12.433  10.286  0.0727 -0.3353 -0.5420
 8151SOL    HW134383   0.376  12.474  10.278  0.1138  0.0938  0.8485
 8151SOL    HW234384   0.459  12.390  10.372  1.1275 -0.6091 -0.6335
 8152SOL     OW34385  11.946   3.939   0.005 -0.4109 -0.5494 -0.2908
 8152SOL    HW134386  12.009   3.991   0.053  2.2271 -2.0999 -1.8191
 8152SOL    HW234387  11.915   3.996  -0.065  0.4009 -0.1794 -0.3544
 8153SOL     OW34388   1.333   0.755   3.077  0.3440  0.7663 -0.1735
 8153SOL    HW134389   1.366   0.707   3.153 -0.6507 -0.3976 -0.4510
 8153SOL    HW234390   1.349   0.697   3.003 -0.1342  1.2142 -0.6340
 8154SOL     OW34391   1.619   1.284  10.733 -0.0225  0.4364  0.2210
 8154SOL    HW134392   1.702   1.331  10.744 -0.4307  0.9739  1.1427
 8154SOL    HW234393   1.557   1.334  10.785 -0.9398  0.0551 -0.4887
 8155SOL     OW34394   5.064   0.001   2.803 -0.3815 -0.1060  0.2764
 8155SOL    HW134395   4.973   0.011   2.831 -0.0032  0.2507  1.4073
 8155SOL    HW234396   5.092   0.089   2.779 -0.2631 -0.1851  0.1172
 8156SOL     OW34397   2.341   0.368   0.738  0.1457  0.6345  0.6160
 8156SOL    HW134398   2.349   0.462   0.754 -0.8186  0.9039 -0.3065
 8156SOL    HW234399   2.337   0.361   0.643  1.3434 -0.4582  0.6333
 8157SOL     OW34400  10.477   5.909  10.657 -0.6653 -0.0487 -0.3145
 8157SOL    HW134401  10.382   5.898  10.668 -0.6472  0.3378  0.2525
 8157SOL    HW234402  10.488   6.003  10.640 -0.2711  0.1394  0.9043
 8158SOL     OW34403   7.887   8.921   0.147 -0.3150 -0.0321 -0.2511
 8158SOL    HW134404   7.901   8.874   0.229 -0.7572 -0.8881 -0.6490
 8158SOL    HW234405   7.970   8.966   0.130 -0.2483  0.2210  0.6987
 8159SOL     OW34406   0.421  10.115   4.796  0.6547  0.0417 -0.1032
 8159SOL    HW134407   0.347  10.107   4.735  0.4742 -0.3441  0.1682
 8159SOL    HW234408   0.498  10.102   4.741  0.5717  1.1508 -0.5298
 8160SOL     OW34409  13.230  11.459  10.410 -0.2790  0.1033  0.2698
 8160SOL    HW134410  13.315  11.486  10.376 -0.6231 -0.7178 -1.3694
 8160SOL    HW234411  13.167  11.503  10.353 -0.8681 -2.6147 -1.3555
 8161SOL     OW34412   9.624   4.872   3.814 -0.0289 -0.0424 -0.6150
 8161SOL    HW134413   9.614   4.879   3.909 -1.0063  1.1303 -0.7788
 8161SOL    HW234414   9.634   4.778   3.798  1.2366 -0.1845  0.7201
 8162SOL     OW34415  11.410  12.097   3.259  0.0469  0.4809 -0.4579
 8162SOL    HW134416  11.491  12.110   3.210 -0.7483  0.1457 -1.8910
 8162SOL    HW234417  11.421  12.011   3.300  0.5052  0.5347 -0.4582
 8163SOL     OW34418   6.706  12.610   7.960  0.1896  0.4328 -0.1151
 8163SOL    HW134419   6.730  12.527   7.919  1.0099  1.1966 -1.2512
 8163SOL    HW234420   6.685  12.667   7.886 -2.8397  0.5486  0.7065
 8164SOL     OW34421   5.900   7.035   0.529 -0.6425  0.3587  0.1423
 8164SOL    HW134422   5.908   7.130   0.522  1.4561  0.3430  1.3684
 8164SOL    HW234423   5.972   7.001   0.476 -1.3177 -0.5476 -0.2160
 8165SOL     OW34424   2.338   0.767   9.339  0.0997 -0.5653  0.5366
 8165SOL    HW134425   2.295   0.848   9.311  1.8169  0.7299  1.4191
 8165SOL    HW234426   2.362   0.723   9.257 -0.1461  0.2234  0.0318
 8166SOL     OW34427   7.262   8.088   0.407  0.2228 -0.5040 -0.3616
 8166SOL    HW134428   7.200   8.016   0.397 -0.6664  0.2188 -0.2573
 8166SOL    HW234429   7.243   8.146   0.333 -0.1762  0.3897  0.4149
 8167SOL     OW34430   5.851   5.820   1.225 -0.2210 -0.5406 -0.4326
 8167SOL    HW134431   5.791   5.801   1.297  0.2237 -0.7647 -0.1151
 8167SOL    HW234432   5.881   5.734   1.195  1.1320 -0.4015  0.4367
 8168SOL     OW34433  11.912   0.755  12.323 -0.0371  0.6117 -0.0634
 8168SOL    HW134434  11.961   0.684  12.281 -1.5562 -1.4497  1.4227
 8168SOL    HW234435  11.852   0.786  12.256  1.6988  1.6368 -1.2101
 8169SOL     OW34436   0.399  12.567   6.197  0.3082 -0.3571  0.2841
 8169SOL    HW134437   0.482  12.583   6.241  1.0865  0.2422 -1.3621
 8169SOL    HW234438   0.421  12.516   6.119 -0.8681 -0.2317 -0.1576
 8170SOL     OW34439   2.941   7.322  11.057  0.3540  0.2660  0.2042
 8170SOL    HW134440   2.996   7.372  11.117  0.5126 -0.9860  1.1349
 8170SOL    HW234441   2.993   7.245  11.035  0.1443  0.5071 -1.2697
 8171SOL     OW34442   6.731   1.398   8.295 -0.4087  0.0997  0.5303
 8171SOL    HW134443   6.679   1.472   8.262  0.4864  0.7388  0.5164
 8171SOL    HW234444   6.692   1.321   8.254  0.6130  0.8405 -2.0089
 8172SOL     OW34445   3.605   6.012   1.687  0.2458  0.7140 -0.2758
 8172SOL    HW134446   3.587   6.061   1.607 -0.6526  2.0808  0.7181
 8172SOL    HW234447   3.695   6.035   1.711  0.6869 -0.0834 -1.1393
 8173SOL     OW34448  10.623   0.145   9.601 -0.4746  0.1729  0.5357
 8173SOL    HW134449  10.544   0.197   9.586 -0.1049  0.2972 -1.1440
 8173SOL    HW234450  10.693   0.209   9.608 -0.3676  0.0126  0.9193
 8174SOL     OW34451  10.514   3.833  10.360  0.0916  0.2095  0.2657
 8174SOL    HW134452  10.555   3.826  10.446 -3.0738 -0.5595  1.8517
 8174SOL    HW234453  10.537   3.920  10.329  4.1498 -0.6831  0.1881
 8175SOL     OW34454   6.711   1.238   2.739 -0.1927 -0.1040 -0.0551
 8175SOL    HW134455   6.716   1.205   2.649  0.5829 -1.1519  0.3428
 8175SOL    HW234456   6.622   1.217   2.768 -0.4487  0.2509 -0.5730
 8176SOL     OW34457   0.020   2.909   9.048 -0.2063  0.0534  0.2431
 8176SOL    HW134458   0.091   2.910   9.112 -0.4682 -1.9823  0.6360
 8176SOL    HW234459  -0.014   2.998   9.048  1.8458  0.8848  0.5927
 8177SOL     OW34460   8.552   6.179   5.459 -0.0369 -0.3708 -0.0117
 8177SOL    HW134461   8.489   6.251   5.453  0.6734  0.1691 -1.2864
 8177SOL    HW234462   8.637   6.222   5.463  0.3389 -1.1292  0.3031
 8178SOL     OW34463   2.656  10.461   7.999 -0.2552 -0.1643  0.0379
 8178SOL    HW134464   2.576  10.414   7.978  0.8455 -1.7793 -0.7557
 8178SOL    HW234465   2.691  10.415   8.075  1.1430 -1.1032 -1.1115
 8179SOL     OW34466   6.385   4.023   1.498  0.4784  0.0238 -0.4009
 8179SOL    HW134467   6.301   3.990   1.530  0.9718 -1.1016 -0.2010
 8179SOL    HW234468   6.393   4.110   1.535 -0.7758  0.3032 -0.7456
 8180SOL     OW34469  10.052   9.736   2.582 -0.5688  0.1738 -0.1511
 8180SOL    HW134470   9.956   9.733   2.586 -0.5837 -2.6346 -0.5604
 8180SOL    HW234471  10.080   9.714   2.671 -0.2209  2.5465  0.3885
 8181SOL     OW34472   0.132   7.650  10.391  0.1716  0.3480 -0.6518
 8181SOL    HW134473   0.055   7.666  10.338  0.0530 -1.1825 -0.9926
 8181SOL    HW234474   0.157   7.559  10.372  0.8885  0.1677  0.9193
 8182SOL     OW34475   6.764   4.231   3.431 -0.4358 -0.3684  0.0764
 8182SOL    HW134476   6.801   4.143   3.441  1.4469  0.6163  2.5072
 8182SOL    HW234477   6.701   4.239   3.503  2.2180  1.5035  2.4113
 8183SOL     OW34478   3.495   7.079   4.095 -0.0788 -0.0024  0.5612
 8183SOL    HW134479   3.425   7.135   4.130  1.4828  1.4920  1.4296
 8183SOL    HW234480   3.477   6.992   4.133 -1.8327  0.1702  0.1994
 8184SOL     OW34481   9.748   3.429   7.433 -0.0289  0.1177  0.6260
 8184SOL    HW134482   9.833   3.473   7.439 -0.5058  1.3726 -1.1210
 8184SOL    HW234483   9.711   3.458   7.349 -1.1421 -2.3035  0.1948
 8185SOL     OW34484   3.246   4.444   1.955 -0.3404  0.3410 -0.0605
 8185SOL    HW134485   3.219   4.373   1.896  1.8160 -0.2907 -0.3578
 8185SOL    HW234486   3.189   4.517   1.931 -2.7020 -1.2355  0.3078
 8186SOL     OW34487   1.170   3.340   3.117 -0.2932  0.3903 -0.0278
 8186SOL    HW134488   1.251   3.304   3.154 -0.8748  0.6105  1.5564
 8186SOL    HW234489   1.178   3.327   3.023  0.6563 -1.4869  0.2726
 8187SOL     OW34490  10.171  11.941  10.957  0.2396 -0.5681 -0.3334
 8187SOL    HW134491  10.090  11.968  10.915  0.1133 -1.5220 -0.7353
 8187SOL    HW234492  10.223  12.021  10.963 -1.2198  0.3054  1.0876
 8188SOL     OW34493   8.974   3.573  12.383  0.1380  0.9679  0.1877
 8188SOL    HW134494   9.010   3.490  12.414 -0.6558 -0.3768 -2.2675
 8188SOL    HW234495   9.015   3.587  12.298 -3.1200  0.6512 -1.5899
 8189SOL     OW34496  12.858  10.567  10.070 -0.0341 -0.3876  0.0930
 8189SOL    HW134497  12.878  10.479  10.103 -0.3252 -1.1156 -1.5921
 8189SOL    HW234498  12.764  10.577  10.086  0.0406 -0.3002  0.4779
 8190SOL     OW34499  10.378   3.146   7.912  0.1840 -0.1996 -0.6463
 8190SOL    HW134500  10.386   3.093   7.832 -1.4129  1.7812 -2.2495
 8190SOL    HW234501  10.459   3.196   7.916  1.7640 -2.6941  0.9553
 8191SOL     OW34502   4.673   4.085   0.620 -0.1513 -0.0055 -0.0291
 8191SOL    HW134503   4.646   4.136   0.697 -1.0197 -1.3244  0.5705
 8191SOL    HW234504   4.598   4.088   0.561 -0.0691 -0.2945 -0.1496
 8192SOL     OW34505   0.817   3.601   5.298 -0.1602 -0.9072 -0.7447
 8192SOL    HW134506   0.833   3.682   5.345 -1.3211 -0.0236 -1.8057
 8192SOL    HW234507   0.828   3.624   5.206 -1.6686 -1.6285 -1.1427
 8193SOL     OW34508  12.245   2.915   2.907  0.0220 -0.2002 -0.2434
 8193SOL    HW134509  12.233   3.010   2.914 -2.3936 -0.5293  1.3285
 8193SOL    HW234510  12.165   2.878   2.945  1.5827 -2.8979  0.6670
 8194SOL     OW34511   2.888   3.495  11.381  0.0308 -0.6293 -0.3097
 8194SOL    HW134512   2.982   3.489  11.368  0.0268  1.4863 -1.9450
 8194SOL    HW234513   2.879   3.544  11.463  0.3493 -0.9924 -0.0558
 8195SOL     OW34514   9.917   7.123   2.988  0.4530 -1.0029 -0.1351
 8195SOL    HW134515   9.853   7.176   2.940  0.3260 -2.8015 -2.0871
 8195SOL    HW234516   9.867   7.049   3.020  1.2217 -1.5580 -0.1979
 8196SOL     OW34517   6.209   7.042   5.878 -0.2932 -0.2087 -0.2482
 8196SOL    HW134518   6.176   7.007   5.961  0.8571 -1.9781 -0.4753
 8196SOL    HW234519   6.133   7.086   5.839 -1.3129 -0.8000  0.9789
 8197SOL     OW34520   6.599   7.500   3.113 -0.3368 -0.4588 -0.4855
 8197SOL    HW134521   6.662   7.466   3.048 -0.8297 -2.0318 -0.1822
 8197SOL    HW234522   6.646   7.572   3.155  0.3123  0.0584 -1.9958
 8198SOL     OW34523  11.420  11.050   5.712  0.3232 -0.1460 -0.1902
 8198SOL    HW134524  11.502  11.010   5.683  0.0263 -0.0731 -1.1680
 8198SOL    HW234525  11.376  10.981   5.763  0.6159 -0.4604 -0.3611
 8199SOL     OW34526   7.752   2.816   3.828  0.2472 -0.0912 -0.2813
 8199SOL    HW134527   7.772   2.761   3.903  2.0845 -0.4101 -0.9310
 8199SOL    HW234528   7.820   2.883   3.829 -0.1942  0.3915 -1.1865
 8200SOL     OW34529   4.306   5.567   0.882  0.2946 -0.5964  0.4098
 8200SOL    HW134530   4.266   5.572   0.795 -1.4783  0.2926  1.2315
 8200SOL    HW234531   4.244   5.516   0.934  1.0278 -0.5790  1.3319
 8201SOL     OW34532   2.952   5.167   9.064 -0.0361 -0.7151  0.1685
 8201SOL    HW134533   2.964   5.255   9.099  1.7239 -1.2541  1.0077
 8201SOL    HW234534   2.875   5.134   9.110 -0.5960  0.2927 -0.0125
 8202SOL     OW34535   1.847   1.080  10.103 -0.6277  0.0137  0.3606
 8202SOL    HW134536   1.797   1.041  10.175 -1.0759 -1.4780 -0.7033
 8202SOL    HW234537   1.790   1.071  10.027  0.7174 -0.5445 -0.6234
 8203SOL     OW34538   9.325   1.608   2.749 -0.3487 -0.3642  0.5122
 8203SOL    HW134539   9.345   1.571   2.835 -0.2666 -1.4857  0.0238
 8203SOL    HW234540   9.247   1.562   2.720  0.8491 -1.6117 -0.9441
 8204SOL     OW34541  11.790  11.620   0.925  0.3688 -0.3763  0.2942
 8204SOL    HW134542  11.839  11.593   1.003  0.8665  1.5643  0.7222
 8204SOL    HW234543  11.803  11.715   0.921 -0.3235 -0.3246 -1.7078
 8205SOL     OW34544   9.476  11.737   8.678  0.1580  0.1288 -0.1638
 8205SOL    HW134545   9.514  11.823   8.698 -1.0656  0.4321  0.9996
 8205SOL    HW234546   9.514  11.679   8.744  1.1709 -0.3002 -1.0995
 8206SOL     OW34547   4.950   3.200  12.487  0.0047 -0.1480  0.4421
 8206SOL    HW134548   5.025   3.146  12.512  1.3734  1.0213 -0.9668
 8206SOL    HW234549   4.939   3.184  12.393  0.5587  2.0851 -0.0499
 8207SOL     OW34550   5.364   9.921   4.264 -0.5247 -0.2127 -0.0169
 8207SOL    HW134551   5.376   9.978   4.341  1.2284  0.5592 -0.7928
 8207SOL    HW234552   5.287   9.956   4.220 -0.0610  0.9720  0.0603
 8208SOL     OW34553   4.438   2.575  10.878  0.0140 -0.3573  0.0474
 8208SOL    HW134554   4.456   2.604  10.967 -0.8704  3.0443 -0.7614
 8208SOL    HW234555   4.521   2.586  10.832 -0.3946  1.3553 -0.3300
 8209SOL     OW34556   4.346   4.013   7.498 -0.3315  0.0549  0.7871
 8209SOL    HW134557   4.293   3.989   7.422 -1.6630 -2.2376  2.3154
 8209SOL    HW234558   4.290   4.073   7.548  0.8826  2.2654 -0.3756
 8210SOL     OW34559   3.489   3.713  10.782  0.3032 -0.3415  0.3189
 8210SOL    HW134560   3.405   3.693  10.739  0.2365 -0.2291  0.3954
 8210SOL    HW234561   3.549   3.730  10.710  0.1797 -0.1077  0.2685
 8211SOL     OW34562   0.423   4.612   5.285  0.4026  0.0267 -0.2986
 8211SOL    HW134563   0.354   4.654   5.234 -0.1471 -1.5366 -0.8922
 8211SOL    HW234564   0.398   4.628   5.376  0.2814  1.0555 -0.4922
 8212SOL     OW34565  11.533   1.719   4.279 -0.0682  0.4391 -0.1103
 8212SOL    HW134566  11.442   1.746   4.268 -0.1814  1.1328  2.0527
 8212SOL    HW234567  11.566   1.776   4.348  1.4074 -1.1779  0.5701
 8213SOL     OW34568   8.361   9.741   9.298  0.0791  0.5728 -0.1185
 8213SOL    HW134569   8.303   9.681   9.345  2.3948 -0.8651  1.0568
 8213SOL    HW234570   8.305   9.816   9.278 -2.1821 -0.7159  0.9173
 8214SOL     OW34571  11.678  12.358   5.472 -0.4880  0.0075  0.3147
 8214SOL    HW134572  11.603  12.396   5.518 -0.0233  0.4014  0.7557
 8214SOL    HW234573  11.710  12.290   5.530 -1.2800 -1.0417 -0.4483
 8215SOL     OW34574   6.161   1.013   9.305  0.1075 -0.3203 -0.0698
 8215SOL    HW134575   6.230   1.024   9.239  0.8458  1.2617  0.9203
 8215SOL    HW234576   6.174   0.925   9.339  1.8528  0.0568  0.3175
 8216SOL     OW34577  12.215   0.391   3.197 -0.3229 -0.0457  0.5468
 8216SOL    HW134578  12.241   0.372   3.287  0.3636 -0.1492  0.3387
 8216SOL    HW234579  12.232   0.309   3.150  0.6098  0.4014  0.0644
 8217SOL     OW34580  13.289   4.810   3.643  0.3481 -0.2989 -0.2950
 8217SOL    HW134581  13.356   4.759   3.597  1.5172  0.7631  0.1750
 8217SOL    HW234582  13.242   4.745   3.696  3.9324 -0.6552  2.8704
 8218SOL     OW34583   8.183   5.464   9.742 -0.0434  0.1554 -0.0498
 8218SOL    HW134584   8.113   5.418   9.698 -0.0048 -0.3565  0.4131
 8218SOL    HW234585   8.250   5.477   9.675 -0.5274  0.5552 -0.4645
 8219SOL     OW34586   2.417   4.558   5.026  0.5692  0.5537 -0.0343
 8219SOL    HW134587   2.478   4.545   5.099  0.9225  1.2296 -0.2036
 8219SOL    HW234588   2.386   4.470   5.006  1.7411  0.1507 -0.1544
 8220SOL     OW34589   4.957   5.104   9.223 -0.2909 -0.1327  0.1374
 8220SOL    HW134590   5.011   5.060   9.157 -0.6518  0.5812 -0.6592
 8220SOL    HW234591   4.870   5.066   9.212 -0.2921 -0.1936  0.3685
 8221SOL     OW34592  13.256   6.914   5.090  0.2663 -0.0559 -0.1324
 8221SOL    HW134593  13.185   6.897   5.028 -0.6545 -1.1922  1.1674
 8221SOL    HW234594  13.211   6.937   5.172  1.4338  0.3578  0.4164
 8222SOL     OW34595   1.595   8.359  12.848 -0.1769 -0.0088  0.3190
 8222SOL    HW134596   1.544   8.319  12.778 -0.8740 -0.4357  1.0609
 8222SOL    HW234597   1.541   8.351  12.926 -1.0684  3.7225  0.2793
 8223SOL     OW34598  11.541   0.837   0.104 -0.2092 -0.4752 -0.3388
 8223SOL    HW134599  11.472   0.776   0.079 -0.8917 -0.7065  1.8782
 8223SOL    HW234600  11.509   0.877   0.185  1.9765 -0.1495  0.4353
 8224SOL     OW34601  12.093   6.148   7.636  0.7515 -0.0883  0.2570
 8224SOL    HW134602  12.052   6.061   7.638 -2.1074  1.1792  1.1392
 8224SOL    HW234603  12.127   6.160   7.725 -0.5121  0.3854  0.6971
 8225SOL     OW34604   3.471   9.061   1.684  0.1057 -0.4049 -0.4343
 8225SOL    HW134605   3.445   9.146   1.720  1.4698 -0.9160  1.9326
 8225SOL    HW234606   3.563   9.071   1.661 -0.4469 -0.4266 -2.9942
 8226SOL     OW34607   0.004   4.498  10.941  0.1459 -0.4029  0.4948
 8226SOL    HW134608  -0.027   4.556  11.011 -0.2297 -1.2027  1.0006
 8226SOL    HW234609   0.055   4.431  10.986  0.7656 -0.3437 -0.1102
 8227SOL     OW34610   1.476   0.813   4.211 -0.2319 -0.9667 -0.2900
 8227SOL    HW134611   1.526   0.893   4.230  1.5746 -1.7663 -1.3420
 8227SOL    HW234612   1.385   0.841   4.211  0.3068  0.9533  0.0339
 8228SOL     OW34613   6.753  11.308   1.975 -1.1438  0.4148 -0.4836
 8228SOL    HW134614   6.812  11.250   1.926 -0.9147  0.0088  0.2602
 8228SOL    HW234615   6.701  11.250   2.030  0.1464  0.9657  1.4346
 8229SOL     OW34616  12.710   4.139   4.299  0.1157  0.0366 -0.0318
 8229SOL    HW134617  12.709   4.234   4.311 -0.3259  0.3975 -2.4274
 8229SOL    HW234618  12.619   4.112   4.309 -0.1152  0.2173 -1.4330
 8230SOL     OW34619   6.455   7.177   9.620 -0.4782  0.2016 -0.3822
 8230SOL    HW134620   6.532   7.121   9.635 -0.0575  0.7838 -0.2950
 8230SOL    HW234621   6.461   7.243   9.690 -0.3207  1.0259 -1.1497
 8231SOL     OW34622   6.795   5.980   0.618  0.2896  0.3040 -0.4404
 8231SOL    HW134623   6.773   5.891   0.648  0.0304 -0.4007 -2.5279
 8231SOL    HW234624   6.807   6.030   0.699  0.9567 -1.7440  0.8321
 8232SOL     OW34625   2.107   8.628   3.219  0.0133  0.3873  0.0501
 8232SOL    HW134626   2.111   8.697   3.153 -2.4310 -1.0234 -1.7262
 8232SOL    HW234627   2.088   8.675   3.301  2.7032  2.1363 -0.2016
 8233SOL     OW34628  11.813   9.298  10.086  0.2908  0.1304 -0.9150
 8233SOL    HW134629  11.879   9.245  10.130  0.0373  0.1454 -0.5003
 8233SOL    HW234630  11.863   9.355  10.028  0.9164  1.8639  1.1601
 8234SOL     OW34631   5.764  10.526   4.540  0.0843  0.2495  0.1634
 8234SOL    HW134632   5.680  10.480   4.532 -0.9272  1.8626  1.0027
 8234SOL    HW234633   5.762  10.590   4.469  0.4997  0.4670  0.3492
 8235SOL     OW34634   5.774   9.146   3.509 -0.1428 -0.3499  0.0024
 8235SOL    HW134635   5.809   9.057   3.503 -2.2583 -1.6563  3.5864
 8235SOL    HW234636   5.690   9.141   3.463 -0.2266 -0.1939  0.1401
 8236SOL     OW34637   4.759   3.243   0.729 -0.1269  0.4620 -0.4459
 8236SOL    HW134638   4.752   3.210   0.819 -2.1888  0.3033 -0.6116
 8236SOL    HW234639   4.704   3.321   0.728  0.8504  1.1582 -1.2968
 8237SOL     OW34640   3.142  10.836   0.682  0.2005 -0.2410 -0.0655
 8237SOL    HW134641   3.129  10.823   0.588  2.0705  2.1839 -0.7909
 8237SOL    HW234642   3.114  10.926   0.698 -0.9540 -0.9003  1.9407
 8238SOL     OW34643  13.081  10.592   9.571 -0.1909  0.0840 -0.2431
 8238SOL    HW134644  13.107  10.640   9.492 -0.1286  0.5561  0.0623
 8238SOL    HW234645  13.000  10.547   9.546 -1.1298  1.6040 -0.0714
 8239SOL     OW34646   4.502   6.652   1.698 -0.0929 -0.1530  0.4501
 8239SOL    HW134647   4.492   6.579   1.758  0.7826  1.1790  2.3493
 8239SOL    HW234648   4.476   6.618   1.613 -3.0702 -1.6812  1.8252
 8240SOL     OW34649  12.572  10.171  11.414 -0.0116 -0.2167  0.0226
 8240SOL    HW134650  12.541  10.152  11.503 -1.2121  0.7106 -0.1713
 8240SOL    HW234651  12.603  10.086  11.381  0.6071 -0.5392  1.3688
 8241SOL     OW34652   7.424   9.842   5.012  0.1154 -0.1488  0.3302
 8241SOL    HW134653   7.400   9.789   5.089 -1.0974 -0.1034  0.0005
 8241SOL    HW234654   7.409   9.784   4.938  1.4640 -0.2507  0.1184
 8242SOL     OW34655   5.144   8.471  12.960  0.2514 -0.5713  0.0960
 8242SOL    HW134656   5.120   8.537  13.025 -0.0967  0.4750 -1.0736
 8242SOL    HW234657   5.063   8.452  12.914  0.5626 -1.0657 -0.2565
 8243SOL     OW34658   3.344   3.598  11.689 -1.1492 -0.5594 -0.0659
 8243SOL    HW134659   3.334   3.504  11.674  1.3037 -0.9211  0.1698
 8243SOL    HW234660   3.371   3.633  11.605  2.8180 -0.9811  0.8281
 8244SOL     OW34661   1.976   6.774  12.904 -0.5286 -0.0723  0.2436
 8244SOL    HW134662   1.884   6.798  12.892 -0.2486  1.1497  0.3279
 8244SOL    HW234663   1.975   6.707  12.971 -1.3027  0.6133  0.9438
 8245SOL     OW34664   9.389   8.926   0.636  0.3769 -0.2614 -0.1508
 8245SOL    HW134665   9.319   8.939   0.573 -0.5008  0.1542  0.8681
 8245SOL    HW234666   9.414   9.015   0.664  2.5556 -0.2797 -1.7599
 8246SOL     OW34667   8.636   7.342  11.938  0.4781  0.2001 -0.0382
 8246SOL    HW134668   8.543   7.362  11.944  1.0255  3.4362 -0.3178
 8246SOL    HW234669   8.656   7.349  11.844  0.9109 -1.2472 -0.0848
 8247SOL     OW34670   7.156  11.307   8.353 -0.0019 -0.0416 -0.3226
 8247SOL    HW134671   7.064  11.328   8.337 -0.0582 -0.1280 -0.1202
 8247SOL    HW234672   7.156  11.266   8.440  0.6313  3.0092  1.2557
 8248SOL     OW34673   1.170   9.504   1.157  0.1252 -0.2111  0.0210
 8248SOL    HW134674   1.076   9.496   1.140 -0.4516 -1.5368  3.1445
 8248SOL    HW234675   1.178   9.584   1.209  0.3513 -1.0822  1.4095
 8249SOL     OW34676   8.612   6.391   2.817 -1.1805  0.2840  0.2588
 8249SOL    HW134677   8.572   6.309   2.847 -0.5986 -0.4819 -1.0088
 8249SOL    HW234678   8.645   6.371   2.730  1.3579  1.0698  0.9480
 8250SOL     OW34679   3.566  11.680  12.477  0.3410 -0.0915 -0.5960
 8250SOL    HW134680   3.477  11.664  12.447  0.3900 -0.0214 -0.7742
 8250SOL    HW234681   3.616  11.603  12.451  0.6397  0.4642 -1.7058
 8251SOL     OW34682   8.787  11.557   6.022 -0.1084 -0.2072 -0.2070
 8251SOL    HW134683   8.857  11.513   6.070 -0.6905 -1.0043 -0.0535
 8251SOL    HW234684   8.765  11.633   6.075  0.5201 -0.0557 -0.1645
 8252SOL     OW34685   9.979  10.710   2.659  0.4520 -0.0889  0.2134
 8252SOL    HW134686  10.027  10.713   2.742 -0.2325  1.2198  0.5839
 8252SOL    HW234687  10.028  10.769   2.601  0.7466 -0.7583 -0.2377
 8253SOL     OW34688   7.698   7.595  10.748 -0.4874 -0.2087 -0.4047
 8253SOL    HW134689   7.706   7.588  10.652  4.3723 -2.8112 -0.1394
 8253SOL    HW234690   7.766   7.659  10.772 -2.2882  1.1518  1.3431
 8254SOL     OW34691  10.758   7.148   0.830  0.1411 -0.3181 -0.1525
 8254SOL    HW134692  10.781   7.076   0.772  1.5633  0.3530 -0.4711
 8254SOL    HW234693  10.805   7.130   0.912 -0.2422 -0.2219  0.0929
 8255SOL     OW34694   4.555   4.780   8.712 -0.5214 -0.1680  0.8641
 8255SOL    HW134695   4.601   4.786   8.796  0.5555  0.5836  0.2455
 8255SOL    HW234696   4.573   4.691   8.681  0.8046  0.1982  0.5008
 8256SOL     OW34697   4.564   8.785  13.064 -0.7348 -0.2683  0.5100
 8256SOL    HW134698   4.538   8.786  13.157 -0.5982 -0.0474  0.5460
 8256SOL    HW234699   4.556   8.693  13.039 -0.6188 -0.3569  0.7864
 8257SOL     OW34700   1.611  12.166   1.047 -0.4764  0.2690 -0.0849
 8257SOL    HW134701   1.543  12.162   0.980 -0.7704  1.2467  0.1417
 8257SOL    HW234702   1.685  12.120   1.008 -1.2338 -0.7714 -0.3497
 8258SOL     OW34703  12.177  12.116   3.673 -0.4228  0.0927 -0.4961
 8258SOL    HW134704  12.229  12.099   3.594 -0.6171  1.0604 -0.8410
 8258SOL    HW234705  12.236  12.097   3.745  0.3151  0.8645 -0.8848
 8259SOL     OW34706  12.321  12.608   4.328 -0.3998 -0.0014  0.0805
 8259SOL    HW134707  12.301  12.514   4.320  1.6524 -0.5365  0.6195
 8259SOL    HW234708  12.251  12.651   4.279 -1.5796 -1.7922  0.0915
 8260SOL     OW34709  13.272   1.576  13.189 -0.6269 -0.7155  0.1065
 8260SOL    HW134710  13.297   1.557  13.279 -0.1248 -1.4143 -0.1627
 8260SOL    HW234711  13.342   1.632  13.155 -0.2373 -1.3521 -0.1670
 8261SOL     OW34712  10.954   2.628   3.397 -0.3766  0.7888  0.4111
 8261SOL    HW134713  10.945   2.679   3.317  1.5119  0.0971 -0.3054
 8261SOL    HW234714  10.979   2.541   3.368  0.6560  0.6058  1.7310
 8262SOL     OW34715   6.432   7.212   2.354 -0.3560 -0.3546 -0.5363
 8262SOL    HW134716   6.456   7.201   2.446  0.2153  1.5751 -0.3929
 8262SOL    HW234717   6.426   7.123   2.319  0.2541 -1.0991  1.1501
 8263SOL     OW34718   6.269   3.517   3.451 -0.4847  0.1483 -0.2616
 8263SOL    HW134719   6.325   3.543   3.524  0.4395  0.4825 -1.0720
 8263SOL    HW234720   6.180   3.525   3.486 -0.1136  1.5072  0.4460
 8264SOL     OW34721   2.267   2.379   7.497 -0.2028  0.3400  0.0597
 8264SOL    HW134722   2.338   2.365   7.561  0.1658  1.3310 -0.1097
 8264SOL    HW234723   2.292   2.460   7.452 -0.6486 -0.1480 -1.0927
 8265SOL     OW34724  10.288   5.275   1.043  0.3630 -0.0373 -0.1846
 8265SOL    HW134725  10.309   5.322   1.124  2.5998 -1.2596  0.0049
 8265SOL    HW234726  10.360   5.295   0.984 -0.7724  0.0781 -1.5935
 8266SOL     OW34727   1.311  10.722  11.375  0.1214  0.6914 -0.0223
 8266SOL    HW134728   1.306  10.679  11.461 -0.8962  2.2950  0.7615
 8266SOL    HW234729   1.241  10.681  11.324  2.4332 -2.2744 -1.1459
 8267SOL     OW34730   4.513   0.891  12.419  0.5691  0.0366  0.2089
 8267SOL    HW134731   4.481   0.861  12.504  1.4012 -1.8932 -0.1051
 8267SOL    HW234732   4.515   0.812  12.365 -1.3735  1.4510 -2.1177
 8268SOL     OW34733  10.700   0.611   2.800 -0.1978  0.0372 -0.5377
 8268SOL    HW134734  10.631   0.547   2.820 -0.2101 -0.4021 -1.9094
 8268SOL    HW234735  10.679   0.687   2.855 -0.3308 -1.0136  0.9354
 8269SOL     OW34736   3.858  11.482   0.219 -0.5304 -0.0049  0.1785
 8269SOL    HW134737   3.812  11.541   0.160 -0.1946  0.5793  0.4919
 8269SOL    HW234738   3.868  11.531   0.301  0.4120 -0.2126  0.2048
 8270SOL     OW34739   5.160   5.451   6.156 -0.4849 -0.1027  0.2000
 8270SOL    HW134740   5.080   5.467   6.106 -0.8737  0.0142  0.8548
 8270SOL    HW234741   5.130   5.421   6.241  0.1692 -0.0766  0.4464
 8271SOL     OW34742   1.370   6.151   4.072  0.0014 -0.6929  0.1015
 8271SOL    HW134743   1.347   6.240   4.099  1.3373  0.0182 -0.9749
 8271SOL    HW234744   1.319   6.094   4.129 -2.9277  0.7434 -0.9162
 8272SOL     OW34745  12.150   2.573   3.209 -0.2828  0.3076 -0.7804
 8272SOL    HW134746  12.106   2.607   3.132 -0.0446  0.0142 -1.0491
 8272SOL    HW234747  12.166   2.650   3.263  0.6582  0.6985 -1.5888
 8273SOL     OW34748   4.582   2.468   1.832 -0.3992  0.1534 -0.3572
 8273SOL    HW134749   4.660   2.416   1.849 -0.1090  0.5512 -0.4694
 8273SOL    HW234750   4.569   2.517   1.913  0.0657  0.8604 -0.7075
 8274SOL     OW34751   3.430  10.706  11.108  0.3495 -0.6060  0.4847
 8274SOL    HW134752   3.484  10.627  11.103 -0.7021 -1.3342  0.1806
 8274SOL    HW234753   3.426  10.726  11.202  0.8234 -0.7690  0.5425
 8275SOL     OW34754   2.755  10.835   5.019 -0.0509  0.2239  0.0866
 8275SOL    HW134755   2.705  10.757   5.043  1.5876 -0.6386  0.9250
 8275SOL    HW234756   2.774  10.823   4.926  1.9174 -1.5186  0.6174
 8276SOL     OW34757   5.271  10.585   6.539 -0.0848  0.5696 -0.5378
 8276SOL    HW134758   5.315  10.550   6.616 -0.7220 -1.7337 -1.1421
 8276SOL    HW234759   5.182  10.550   6.544 -0.3030  0.8386 -2.0137
 8277SOL     OW34760   3.404   1.334  11.993  0.6001 -0.2261  0.6456
 8277SOL    HW134761   3.350   1.382  11.930 -0.7208 -0.9295  1.2004
 8277SOL    HW234762   3.484   1.387  12.001  0.7144  0.0117 -1.4152
 8278SOL     OW34763   2.456  13.021  10.154 -0.3461  0.1072 -0.5831
 8278SOL    HW134764   2.469  13.021  10.059  0.1171  0.5700 -0.5254
 8278SOL    HW234765   2.538  13.056  10.190 -0.6267  0.2183 -0.0308
 8279SOL     OW34766   8.435   3.135  10.565  0.3090 -0.2468  0.6015
 8279SOL    HW134767   8.436   3.083  10.645 -0.1240 -0.5389  0.4174
 8279SOL    HW234768   8.345   3.132  10.534  0.1138  1.2174  0.9654
 8280SOL     OW34769   4.808   1.587  10.845  0.1998  0.0685  0.2591
 8280SOL    HW134770   4.862   1.665  10.836  0.1731  0.3494  2.0816
 8280SOL    HW234771   4.751   1.606  10.920 -1.1201 -0.9658 -0.4436
 8281SOL     OW34772   6.469  11.583   0.034 -0.3781  0.2657 -0.0252
 8281SOL    HW134773   6.537  11.605  -0.030 -0.6565 -0.1461 -0.4689
 8281SOL    HW234774   6.503  11.617   0.117 -0.1005  0.9867 -0.4204
 8282SOL     OW34775   0.310   8.633   3.373 -1.0735  0.0082 -0.0036
 8282SOL    HW134776   0.384   8.664   3.321 -0.7189  0.2875  0.6522
 8282SOL    HW234777   0.248   8.599   3.309 -0.9377  0.9511 -0.6651
 8283SOL     OW34778  11.160  11.224   8.530 -0.4778  0.6966  0.1334
 8283SOL    HW134779  11.105  11.222   8.452 -0.0549  0.9777 -0.1744
 8283SOL    HW234780  11.134  11.146   8.579 -1.2485  0.9015  0.0622
 8284SOL     OW34781   1.393   2.652   8.387 -0.4690 -0.1329 -0.2752
 8284SOL    HW134782   1.470   2.595   8.380  0.4485  1.0076  0.2716
 8284SOL    HW234783   1.367   2.645   8.479 -0.2662  0.4260 -0.1708
 8285SOL     OW34784   1.020   5.389   0.390  0.2662 -0.2329  0.1504
 8285SOL    HW134785   0.956   5.419   0.455  1.3477 -0.0117  1.1528
 8285SOL    HW234786   1.105   5.419   0.424  1.1885 -2.5646  0.0986
 8286SOL     OW34787   0.595   2.928   9.343 -0.4639 -0.4648  0.0239
 8286SOL    HW134788   0.577   2.929   9.437  0.7486 -0.4741  0.2704
 8286SOL    HW234789   0.567   3.015   9.313 -2.8577 -1.1902 -0.0416
 8287SOL     OW34790  11.698   2.693  11.297 -0.1519 -0.3465 -0.5025
 8287SOL    HW134791  11.682   2.765  11.236  1.8456 -0.0530 -0.7584
 8287SOL    HW234792  11.736   2.624  11.242  0.1719 -0.6867  0.1446
 8288SOL     OW34793   3.114   0.899   8.437  1.1462  0.1175 -0.1965
 8288SOL    HW134794   3.151   0.978   8.476 -0.1731  0.9611 -0.5858
 8288SOL    HW234795   3.059   0.861   8.506  0.5159  0.4290 -0.5198
 8289SOL     OW34796  11.038   4.207  12.303  0.4641  0.2248 -0.2352
 8289SOL    HW134797  10.960   4.252  12.335  0.1625 -0.5599  0.1414
 8289SOL    HW234798  11.041   4.229  12.210  2.5565  4.3679  0.5612
 8290SOL     OW34799  10.096  10.795  10.513  0.1564 -0.4914  0.2206
 8290SOL    HW134800  10.054  10.846  10.582  2.5897  0.1495  1.3310
 8290SOL    HW234801  10.141  10.861  10.459 -3.0814 -0.7499 -3.1803
 8291SOL     OW34802   0.827   7.463   4.603 -0.0549 -0.0569  0.4220
 8291SOL    HW134803   0.897   7.399   4.591 -0.3673 -0.2231 -0.5971
 8291SOL    HW234804   0.747   7.411   4.611 -0.2553  0.1827  0.0330
 8292SOL     OW34805   6.051  10.849   3.752 -0.1396  0.4403 -0.6862
 8292SOL    HW134806   5.985  10.918   3.756 -0.3661  0.2084 -0.2458
 8292SOL    HW234807   6.119  10.877   3.812  0.6615  1.1722 -1.9044
 8293SOL     OW34808   3.843   3.290   4.652  0.2918  0.0310  0.1437
 8293SOL    HW134809   3.864   3.198   4.667 -1.0926 -0.5524 -1.1850
 8293SOL    HW234810   3.756   3.288   4.612  0.0470  1.9534  0.4876
 8294SOL     OW34811  13.066   1.184   5.168  0.1508 -0.0057  0.1854
 8294SOL    HW134812  12.995   1.144   5.117  1.1571 -0.1489 -1.1643
 8294SOL    HW234813  13.124   1.111   5.190 -0.0099  0.1411  1.1018
 8295SOL     OW34814  13.080  11.735  13.138 -0.4161 -0.1295 -0.0574
 8295SOL    HW134815  13.104  11.824  13.162  2.8997 -0.8420 -0.2844
 8295SOL    HW234816  13.107  11.682  13.212  1.2312 -1.3107 -1.4292
 8296SOL     OW34817   5.733   2.676   6.066  0.4147 -0.0333 -0.8329
 8296SOL    HW134818   5.708   2.760   6.104  0.8600  0.0475 -0.7090
 8296SOL    HW234819   5.819   2.692   6.026  0.8594 -0.6117 -0.1444
 8297SOL     OW34820   3.492  10.728   6.579 -0.0938  0.2284  0.0008
 8297SOL    HW134821   3.424  10.688   6.525 -0.3738  1.5704 -0.6943
 8297SOL    HW234822   3.451  10.807   6.615  0.6763  0.3434  0.6671
 8298SOL     OW34823   0.109   4.874   2.578 -0.0983 -0.4354 -0.3980
 8298SOL    HW134824   0.170   4.906   2.645  2.1575 -1.5787 -1.7891
 8298SOL    HW234825   0.026   4.916   2.599  0.8456  0.2735  2.3125
 8299SOL     OW34826   8.810   1.373   5.743 -0.4338 -0.0159 -0.0192
 8299SOL    HW134827   8.729   1.416   5.714 -1.2163 -0.4209  1.4710
 8299SOL    HW234828   8.799   1.282   5.718 -1.0862 -0.3547  1.4322
 8300SOL     OW34829   9.257   7.900   5.861  0.4089  0.3994  0.1652
 8300SOL    HW134830   9.251   7.989   5.896 -1.7058  0.5935 -0.4997
 8300SOL    HW234831   9.205   7.847   5.922 -0.0696  0.0361 -0.5349
 8301SOL     OW34832   4.145   5.579   6.387  0.7015 -0.2671 -0.1734
 8301SOL    HW134833   4.143   5.565   6.482  0.3011  0.3746 -0.0868
 8301SOL    HW234834   4.057   5.609   6.365  1.3182  1.3980 -0.4711
 8302SOL     OW34835   0.511   3.330   5.767 -0.7926 -0.2226  0.0633
 8302SOL    HW134836   0.453   3.403   5.744  0.4036  1.3030  1.6550
 8302SOL    HW234837   0.486   3.307   5.856  1.1812  0.6543  0.8939
 8303SOL     OW34838  10.329   3.002  12.948  0.1214  0.0370 -0.5326
 8303SOL    HW134839  10.387   2.928  12.968  0.5101  0.9409  1.9836
 8303SOL    HW234840  10.293   3.028  13.032  0.1799  2.8932 -1.2983
 8304SOL     OW34841  10.645   3.547   4.703 -0.0727 -0.6560  0.5778
 8304SOL    HW134842  10.679   3.476   4.757  2.6592 -0.4040 -0.6536
 8304SOL    HW234843  10.632   3.508   4.617  0.7004  0.0955  0.0990
 8305SOL     OW34844  11.363   3.485   6.762 -0.6156 -0.0330 -0.0883
 8305SOL    HW134845  11.302   3.444   6.823  1.5200 -1.1302  1.4638
 8305SOL    HW234846  11.449   3.455   6.791  0.8584  3.0032 -0.9166
 8306SOL     OW34847   1.922   6.530   0.700 -0.6417 -0.3494 -0.4611
 8306SOL    HW134848   1.963   6.446   0.719 -0.8657 -0.6638 -1.3202
 8306SOL    HW234849   1.938   6.543   0.607  0.0819  0.9393 -0.1858
 8307SOL     OW34850  12.606   6.432  13.093  0.1178 -0.0524 -0.0971
 8307SOL    HW134851  12.536   6.438  13.158  0.2562 -0.0124  0.0502
 8307SOL    HW234852  12.571   6.474  13.015 -0.6588 -1.5391 -0.5765
 8308SOL     OW34853   7.886   4.334   9.995  0.0563  0.1147 -0.5779
 8308SOL    HW134854   7.908   4.244   9.974  0.1673  0.4707 -2.1347
 8308SOL    HW234855   7.899   4.382   9.913  0.2098  1.5894  0.2626
 8309SOL     OW34856   3.589   5.489   9.257 -0.7207  0.2252 -0.4933
 8309SOL    HW134857   3.611   5.420   9.320 -0.7342  0.1878 -0.5294
 8309SOL    HW234858   3.534   5.445   9.192 -0.0520  0.0756 -0.9692
 8310SOL     OW34859  10.078   9.579  10.444 -0.0481 -0.9001 -0.7821
 8310SOL    HW134860  10.146   9.529  10.489  1.9976  1.3542 -1.1441
 8310SOL    HW234861  10.051   9.645  10.508  1.5219  1.1231 -2.0605
 8311SOL     OW34862   0.864  11.771   4.232 -0.0623 -0.2741 -0.3201
 8311SOL    HW134863   0.937  11.820   4.269 -0.5812 -0.1989  0.6385
 8311SOL    HW234864   0.787  11.825   4.248 -0.3475 -0.3718 -1.2761
 8312SOL     OW34865   9.309  12.185   5.450  0.1821 -0.1844  0.5476
 8312SOL    HW134866   9.310  12.252   5.518  0.9026  0.3658  0.0138
 8312SOL    HW234867   9.401  12.158   5.442  0.4729  1.2022 -1.5670
 8313SOL     OW34868   2.009   2.174  12.056  0.4741 -1.1341 -0.1857
 8313SOL    HW134869   2.104   2.183  12.069  0.4194  0.2926 -0.6170
 8313SOL    HW234870   1.972   2.195  12.142  0.5252 -1.5279 -0.0619
 8314SOL     OW34871   1.327  12.708  12.436 -0.3120 -0.2313 -0.7974
 8314SOL    HW134872   1.403  12.758  12.406  0.3640 -0.7338  0.0324
 8314SOL    HW234873   1.364  12.624  12.464 -0.7920  0.3653  1.9134
 8315SOL     OW34874   5.313  12.038   0.652  0.2120 -0.0252 -0.0874
 8315SOL    HW134875   5.230  11.989   0.653  0.0775  0.1735  1.5439
 8315SOL    HW234876   5.345  12.032   0.742  1.2033  1.2017 -0.3298
 8316SOL     OW34877   5.799   8.419   3.795  0.1898 -0.7466 -0.0337
 8316SOL    HW134878   5.761   8.331   3.798 -2.6947  0.3069 -1.6169
 8316SOL    HW234879   5.743   8.471   3.853  1.2346  0.2548  0.1084
 8317SOL     OW34880   9.918   2.669   5.712  0.0070  0.3717 -0.1867
 8317SOL    HW134881   9.842   2.711   5.672 -0.2058 -0.4312 -0.6491
 8317SOL    HW234882   9.984   2.737   5.716 -0.5274  0.9118 -0.3597
 8318SOL     OW34883   5.020   1.368   9.654  0.0496  0.0222  0.6574
 8318SOL    HW134884   4.946   1.333   9.704  0.5696 -0.0881  1.3686
 8318SOL    HW234885   5.034   1.456   9.689 -0.0189  0.2129  0.2185
 8319SOL     OW34886   5.531   2.901   2.209 -0.1790 -0.0571 -0.5226
 8319SOL    HW134887   5.620   2.874   2.186 -0.2496  0.7275 -1.8289
 8319SOL    HW234888   5.474   2.842   2.159 -0.3354  1.7418 -2.5918
 8320SOL     OW34889  12.465   9.813   7.770 -0.6481  0.3515 -0.2897
 8320SOL    HW134890  12.529   9.874   7.736 -0.2555  0.8473  1.2381
 8320SOL    HW234891  12.458   9.745   7.704  0.2398  1.1281 -1.2075
 8321SOL     OW34892  12.534   6.854   5.177  0.4298  0.5164  0.1615
 8321SOL    HW134893  12.489   6.925   5.223 -0.9995 -0.3359  0.1656
 8321SOL    HW234894  12.492   6.850   5.091  1.7744  0.8585 -0.5392
 8322SOL     OW34895  10.245   5.633   9.362 -0.5408  0.0095 -0.1630
 8322SOL    HW134896  10.241   5.560   9.424  0.6575 -0.1112 -0.2019
 8322SOL    HW234897  10.198   5.601   9.285 -0.5938 -0.4862  0.0662
 8323SOL     OW34898   8.490   4.879  10.559 -0.0584  0.1785  1.0229
 8323SOL    HW134899   8.513   4.895  10.651  0.2317  0.0621  0.9716
 8323SOL    HW234900   8.567   4.836  10.522 -0.3380 -0.1633  0.8315
 8324SOL     OW34901   9.788  11.009   0.262 -0.7840  0.3529 -0.2567
 8324SOL    HW134902   9.759  10.918   0.256 -0.1356  0.1508 -0.3506
 8324SOL    HW234903   9.825  11.017   0.350 -2.2033  0.9365  0.3234
 8325SOL     OW34904   1.911   8.206   7.534  0.1415  0.5238  0.3620
 8325SOL    HW134905   1.905   8.236   7.443  0.1159  0.6830  0.4169
 8325SOL    HW234906   1.987   8.252   7.570  0.2443  0.3453  0.3777
 8326SOL     OW34907   5.111  12.088   6.189  0.0620  0.3134  0.7620
 8326SOL    HW134908   5.057  12.087   6.110  0.4185 -0.7846  0.5277
 8326SOL    HW234909   5.195  12.123   6.160 -0.4602  1.9422  1.1099
 8327SOL     OW34910   2.947   7.866  10.218 -0.3112 -0.0825  0.0210
 8327SOL    HW134911   2.895   7.844  10.295 -1.2442  0.0327 -0.5591
 8327SOL    HW234912   2.899   7.937  10.176 -0.6247 -1.1264 -1.4762
 8328SOL     OW34913   0.664   6.595  12.746 -0.2410  0.1098 -0.3244
 8328SOL    HW134914   0.734   6.597  12.811 -0.1052 -1.5000 -0.3985
 8328SOL    HW234915   0.700   6.641  12.671  0.4973 -0.1453 -0.1324
 8329SOL     OW34916   4.586   9.023   5.176 -0.5851 -0.0094  0.1179
 8329SOL    HW134917   4.520   9.052   5.114  0.6212 -0.9610 -1.7201
 8329SOL    HW234918   4.655   9.090   5.171 -0.4074 -0.1772  0.2823
 8330SOL     OW34919  10.205   0.157   1.226 -0.6325  0.5252  0.4358
 8330SOL    HW134920  10.276   0.173   1.164  0.3480  0.4864  1.4992
 8330SOL    HW234921  10.146   0.097   1.181 -0.2493  0.9432 -0.6555
 8331SOL     OW34922   7.984   6.527   3.131 -0.0992  0.0542 -0.5040
 8331SOL    HW134923   8.065   6.550   3.177 -0.4844 -0.1878  0.3243
 8331SOL    HW234924   7.996   6.435   3.108 -0.6638 -0.3816  0.8235
 8332SOL     OW34925   8.327   6.994  10.485 -0.0506  0.4954  0.0286
 8332SOL    HW134926   8.243   6.951  10.504 -1.1758  0.3918 -4.1044
 8332SOL    HW234927   8.304   7.086  10.471  0.5427  0.5415 -0.7297
 8333SOL     OW34928   5.628  12.508   7.508  0.3924  0.1518  0.1379
 8333SOL    HW134929   5.652  12.415   7.512 -1.0443 -0.4041 -2.2582
 8333SOL    HW234930   5.711  12.555   7.521  1.2587 -1.4573  0.7294
 8334SOL     OW34931  10.119  12.143  11.584  0.0100 -0.6143 -0.5313
 8334SOL    HW134932  10.068  12.174  11.509  1.1615  0.7383 -0.7864
 8334SOL    HW234933  10.193  12.202  11.589 -0.6729  0.1454  2.4495
 8335SOL     OW34934  10.615  10.341   7.391 -0.1724 -0.0648  0.0066
 8335SOL    HW134935  10.678  10.406   7.360  0.2413 -0.6160 -0.3340
 8335SOL    HW234936  10.532  10.388   7.395  0.4676  1.0040  1.6702
 8336SOL     OW34937   0.332   8.021   9.126 -0.0190 -0.1579 -0.2836
 8336SOL    HW134938   0.324   8.093   9.189  1.7795  0.2353 -0.4280
 8336SOL    HW234939   0.418   8.036   9.085 -0.7561 -0.8945 -2.2023
 8337SOL     OW34940  12.388   6.596   4.215  0.6344 -0.5501 -0.5210
 8337SOL    HW134941  12.481   6.587   4.194  0.5693  1.1918 -1.8511
 8337SOL    HW234942  12.386   6.660   4.286  0.4543 -0.4169 -0.6445
 8338SOL     OW34943   9.540  11.372   6.018  0.3421 -0.1569 -0.1472
 8338SOL    HW134944   9.503  11.449   6.062  0.8083 -0.6681  1.1829
 8338SOL    HW234945   9.484  11.300   6.045  1.1704 -0.6277  0.3712
 8339SOL     OW34946   3.162   6.594   2.763  0.9788  0.1364 -0.1605
 8339SOL    HW134947   3.078   6.614   2.722  0.8747 -0.6948 -0.3700
 8339SOL    HW234948   3.221   6.661   2.729  0.0227  1.8894  1.4219
 8340SOL     OW34949   1.089  12.415   7.137 -0.0706  0.7680 -0.2043
 8340SOL    HW134950   1.173  12.387   7.100  0.8935  2.2059  0.7780
 8340SOL    HW234951   1.103  12.411   7.232 -1.0883  1.0987 -0.0374
 8341SOL     OW34952   8.899   7.365  11.737 -0.5882  0.1077  0.0187
 8341SOL    HW134953   8.955   7.436  11.706 -0.7512  0.5754  0.7539
 8341SOL    HW234954   8.956   7.308  11.788 -0.9721  1.2961  1.9091
 8342SOL     OW34955  12.905   9.660   5.384  0.2886  0.2429 -0.2553
 8342SOL    HW134956  12.843   9.653   5.311  1.0704  3.4131 -1.3688
 8342SOL    HW234957  12.870   9.729   5.439  1.4011  0.1127  0.6502
 8343SOL     OW34958  10.261   7.027   8.188  0.0351 -0.3416 -0.2545
 8343SOL    HW134959  10.208   7.071   8.122 -2.2236 -0.0624  1.6186
 8343SOL    HW234960  10.321   6.971   8.138 -0.0822  1.4613 -2.5495
 8344SOL     OW34961   4.145   2.816  12.575  0.8113  0.0849 -0.2429
 8344SOL    HW134962   4.090   2.847  12.646  0.3485  0.6358 -0.8275
 8344SOL    HW234963   4.134   2.721  12.575 -1.3632  0.2694 -1.2889
 8345SOL     OW34964   8.892   6.655  13.277  0.1385  0.2171 -0.0614
 8345SOL    HW134965   8.893   6.743  13.239 -1.5178  1.0250  1.6030
 8345SOL    HW234966   8.830   6.606  13.223 -0.6427  0.7509  0.3336
 8346SOL     OW34967  12.827   6.823   8.187  0.0243 -0.1090  0.2183
 8346SOL    HW134968  12.735   6.841   8.168  0.0258  1.0581  1.2027
 8346SOL    HW234969  12.867   6.909   8.197  0.8016 -0.6025  1.7589
 8347SOL     OW34970   7.115  11.700   5.065  0.3266 -0.2806  0.3215
 8347SOL    HW134971   7.049  11.631   5.062 -0.7743  0.7543 -0.4324
 8347SOL    HW234972   7.198  11.656   5.047  0.0678 -1.8438  2.5864
 8348SOL     OW34973   5.352   7.035  10.757  0.4737  0.5840  0.4480
 8348SOL    HW134974   5.344   6.970  10.688  1.5704  2.1420 -1.2407
 8348SOL    HW234975   5.262   7.050  10.786  0.1033 -0.8812  0.1531
 8349SOL     OW34976   7.539   2.802   8.284 -0.4420  0.4840  0.1843
 8349SOL    HW134977   7.493   2.719   8.276  1.6149 -0.6577 -0.5893
 8349SOL    HW234978   7.511   2.838   8.369  0.0140 -1.9211  1.4321
 8350SOL     OW34979   1.174  10.625   0.464  0.7096  0.6405  0.5140
 8350SOL    HW134980   1.125  10.585   0.393 -1.0097  1.0041  1.4535
 8350SOL    HW234981   1.265  10.627   0.433  0.5592 -2.1967 -0.3152
 8351SOL     OW34982  11.323   5.799   8.083 -0.3177  0.1296  0.9673
 8351SOL    HW134983  11.364   5.842   8.158  0.5486  1.3756 -0.1767
 8351SOL    HW234984  11.303   5.870   8.022 -0.0095 -0.9421 -0.4514
 8352SOL     OW34985   3.860   5.408   4.411  0.6451  0.5830 -0.5064
 8352SOL    HW134986   3.849   5.318   4.443  0.4449  0.1481 -1.7279
 8352SOL    HW234987   3.819   5.463   4.478  1.5807 -0.1603  0.7014
 8353SOL     OW34988  12.989   6.098   6.789 -1.1678 -0.2587  0.0789
 8353SOL    HW134989  13.046   6.064   6.858 -0.5234  0.0670 -0.2839
 8353SOL    HW234990  13.047   6.148   6.732 -1.9543  0.7468  0.1324
 8354SOL     OW34991  10.516  10.897   4.607 -0.2258 -0.0347 -0.0748
 8354SOL    HW134992  10.486  10.852   4.686  0.7795  1.1800  1.0553
 8354SOL    HW234993  10.541  10.827   4.547  0.5019 -1.0001  1.2996
 8355SOL     OW34994   1.561  10.829   1.343  0.2291  0.4147  0.2735
 8355SOL    HW134995   1.495  10.761   1.331  0.3367  0.2078  0.8237
 8355SOL    HW234996   1.572  10.835   1.438  2.1166 -0.6402  0.1760
 8356SOL     OW34997   8.341   2.004   7.074  0.0288 -0.1035  0.1757
 8356SOL    HW134998   8.397   1.952   7.015 -0.0614 -1.2130  1.0275
 8356SOL    HW234999   8.370   1.980   7.162 -0.5578  0.7191  0.6038
 8357SOL     OW35000   7.086   5.990  12.343 -0.0524 -0.6494 -0.0771
 8357SOL    HW135001   7.002   6.033  12.326  0.7663  0.2170 -2.3103
 8357SOL    HW235002   7.063   5.900  12.363 -1.6234  0.0382  1.4733
 8358SOL     OW35003  11.204   0.545   3.786  0.2988  0.0078  0.5840
 8358SOL    HW135004  11.110   0.529   3.794  0.3603 -0.6847 -0.0407
 8358SOL    HW235005  11.212   0.640   3.793 -0.4649  0.0905  0.4516
 8359SOL     OW35006   3.391   5.277   5.538 -0.2008 -0.1323  0.3219
 8359SOL    HW135007   3.465   5.295   5.595 -0.7382 -0.4690  1.1361
 8359SOL    HW235008   3.425   5.291   5.449  0.3243  1.5668  0.7512
 8360SOL     OW35009   7.125   6.810   9.112  0.0887 -0.4646 -0.2080
 8360SOL    HW135010   7.096   6.725   9.079 -1.5212  0.1667 -0.5063
 8360SOL    HW235011   7.058   6.834   9.176  1.9087 -0.5976  1.8850
 8361SOL     OW35012   3.850   7.778   2.513 -0.1278  0.7223  0.2892
 8361SOL    HW135013   3.831   7.710   2.448  1.4911  1.3992 -0.9509
 8361SOL    HW235014   3.791   7.850   2.489  0.8354  1.1768 -0.8184
 8362SOL     OW35015   5.126   3.883   6.839  0.2334 -0.2331  0.4226
 8362SOL    HW135016   5.183   3.820   6.795  0.5544  0.0405  0.4405
 8362SOL    HW235017   5.099   3.943   6.770  1.9153  1.0666  0.8447
 8363SOL     OW35018   6.992   8.325   5.854  0.0058  0.7152  0.7788
 8363SOL    HW135019   6.980   8.415   5.883  1.7131  0.3293  2.9622
 8363SOL    HW235020   7.062   8.330   5.790  0.6339  0.8870  1.4619
 8364SOL     OW35021   6.388   3.615   3.693  0.5027  0.5888  0.1675
 8364SOL    HW135022   6.468   3.564   3.704  0.0281 -0.1442  0.3617
 8364SOL    HW235023   6.414   3.706   3.709  1.7205  0.6445 -1.8179
 8365SOL     OW35024   5.414   6.197   6.147  0.2542 -0.0552 -0.0426
 8365SOL    HW135025   5.333   6.182   6.098 -0.1091  0.8295  0.2576
 8365SOL    HW235026   5.388   6.192   6.239  0.6947 -0.5174  0.0615
 8366SOL     OW35027   7.625   6.750   7.799 -0.3003 -0.2356 -0.3137
 8366SOL    HW135028   7.562   6.706   7.857 -0.8235 -0.6599 -1.1881
 8366SOL    HW235029   7.710   6.736   7.841 -0.7197 -0.0796  0.6229
 8367SOL     OW35030  10.795   7.305   0.401 -0.4503  0.1520  0.0498
 8367SOL    HW135031  10.810   7.236   0.337 -0.4198 -0.0111  0.2329
 8367SOL    HW235032  10.719   7.276   0.450  1.2015 -1.1246  1.9905
 8368SOL     OW35033  11.056   6.750   6.089 -0.0815 -0.4737 -0.5522
 8368SOL    HW135034  11.077   6.836   6.125  1.1620 -0.6093 -0.9105
 8368SOL    HW235035  11.130   6.695   6.114 -0.8743 -1.4539 -0.3120
 8369SOL     OW35036   3.758   8.193   3.885 -0.3880 -0.4034  0.0871
 8369SOL    HW135037   3.714   8.115   3.850 -0.1031  0.1353 -1.5996
 8369SOL    HW235038   3.687   8.253   3.907 -0.6833  0.8866 -3.6185
 8370SOL     OW35039   1.094   9.769   7.482 -0.0284  0.0769 -0.0807
 8370SOL    HW135040   1.007   9.730   7.472 -0.0077 -0.6146  2.0038
 8370SOL    HW235041   1.104   9.825   7.405 -1.2702 -1.7593 -1.6708
 8371SOL     OW35042   2.133   0.377   6.859 -0.0750 -0.1272  0.4740
 8371SOL    HW135043   2.093   0.306   6.808 -1.0289 -0.8237  2.1134
 8371SOL    HW235044   2.078   0.453   6.841  0.7434  0.1543 -1.0162
 8372SOL     OW35045  10.394   3.350   2.688  0.2355 -0.0489  0.2154
 8372SOL    HW135046  10.390   3.443   2.709 -0.7676 -0.0049 -0.1006
 8372SOL    HW235047  10.487   3.328   2.692  0.5985  1.1970 -0.6591
 8373SOL     OW35048   1.675   7.601   2.858  0.2942 -0.1106  0.0130
 8373SOL    HW135049   1.670   7.534   2.790  1.3681 -0.6704  0.4645
 8373SOL    HW235050   1.605   7.663   2.836  0.0850 -0.7255 -1.1147
 8374SOL     OW35051   1.293   8.497   8.235 -0.7676  0.1148 -0.2008
 8374SOL    HW135052   1.347   8.475   8.158  0.2090  1.1543  0.1625
 8374SOL    HW235053   1.338   8.571   8.275 -2.8250  1.4287 -0.2159
 8375SOL     OW35054   2.657   8.150   0.346  0.3670  0.4864  0.4316
 8375SOL    HW135055   2.714   8.076   0.328 -1.3256 -0.8770  0.4644
 8375SOL    HW235056   2.646   8.150   0.441 -0.5220  0.0646  0.3415
 8376SOL     OW35057   5.361  10.835  11.984 -0.4634 -0.3855 -0.9719
 8376SOL    HW135058   5.418  10.781  12.039  0.0561  0.9143 -0.1842
 8376SOL    HW235059   5.417  10.907  11.955 -2.1610  2.1504  1.6024
 8377SOL     OW35060  12.063  10.563   3.589 -0.2600  0.1220  1.2097
 8377SOL    HW135061  12.111  10.620   3.528 -1.8898  0.1874 -0.1002
 8377SOL    HW235062  12.094  10.475   3.568 -1.8413 -0.0330 -0.8636
 8378SOL     OW35063   5.722  11.043   8.822 -0.5814  0.3163 -0.1999
 8378SOL    HW135064   5.645  11.000   8.783 -1.3790  0.7968  0.7939
 8378SOL    HW235065   5.720  11.016   8.914  0.8771 -0.2471 -0.3058
 8379SOL     OW35066   1.134   6.969  12.344 -0.2061  0.0124  0.1399
 8379SOL    HW135067   1.113   6.877  12.353 -0.4494  0.2414  2.2513
 8379SOL    HW235068   1.064   7.015  12.390  1.0355  1.1177  1.0171
 8380SOL     OW35069   4.126   1.664   9.989 -0.1481  0.6564  0.3750
 8380SOL    HW135070   4.049   1.607   9.988  0.5485 -0.3981  1.8382
 8380SOL    HW235071   4.152   1.672   9.898 -1.8350  0.8310 -0.1195
 8381SOL     OW35072  11.024  10.786  10.831 -0.5309  0.4661  0.1151
 8381SOL    HW135073  10.994  10.834  10.754  0.5308  0.8301 -0.0778
 8381SOL    HW235074  11.075  10.849  10.881 -0.4632 -0.0209  0.6745
 8382SOL     OW35075   7.947   0.205  10.547 -0.0449 -0.6492  0.0156
 8382SOL    HW135076   7.863   0.210  10.592 -0.2591 -0.5566 -0.3938
 8382SOL    HW235077   7.943   0.123  10.497 -0.0748 -0.4122 -0.3707
 8383SOL     OW35078   4.642   4.196  12.993  0.2827  0.0671 -0.1040
 8383SOL    HW135079   4.569   4.216  13.051  0.7263  0.0181  0.4751
 8383SOL    HW235080   4.665   4.281  12.954  1.3001  0.4812  1.3435
 8384SOL     OW35081   6.501   4.321   0.166  0.5703 -0.5102 -0.2984
 8384SOL    HW135082   6.431   4.255   0.165 -1.7035  1.4688  3.5368
 8384SOL    HW235083   6.487   4.373   0.087 -2.2141 -0.3753  0.1926
 8385SOL     OW35084  10.776  13.019   1.686  0.0665  0.2579  0.1661
 8385SOL    HW135085  10.852  13.032   1.630 -2.1620  0.6726 -3.0141
 8385SOL    HW235086  10.788  13.082   1.758  3.2730 -0.6478  0.5733
 8386SOL     OW35087   9.214  13.104   6.441 -0.1152  0.5621  0.0562
 8386SOL    HW135088   9.267  13.040   6.393 -0.9238 -0.5557  0.6125
 8386SOL    HW235089   9.153  13.138   6.375  0.6883  1.2064 -0.3749
 8387SOL     OW35090   7.863   1.841   7.822  0.8548  0.2940 -0.1802
 8387SOL    HW135091   7.783   1.800   7.789 -0.2782  1.8693  0.4646
 8387SOL    HW235092   7.933   1.804   7.769 -0.4777 -0.0538 -1.7655
 8388SOL     OW35093   0.356   8.836   9.472  0.2355  0.2566 -0.2610
 8388SOL    HW135094   0.351   8.889   9.392  0.6306 -0.2123 -0.5980
 8388SOL    HW235095   0.274   8.856   9.518 -0.2955  0.0626 -1.0792
 8389SOL     OW35096   6.842   2.000  12.593  0.0935 -0.2887 -0.0068
 8389SOL    HW135097   6.899   2.051  12.535  0.9223 -0.3981  0.6934
 8389SOL    HW235098   6.760   1.992  12.544  0.2607  0.9153 -0.5248
 8390SOL     OW35099   7.203   8.275   7.072 -0.3047 -0.4268 -0.0396
 8390SOL    HW135100   7.197   8.234   6.986 -0.7926  1.2586 -0.8655
 8390SOL    HW235101   7.112   8.298   7.093  0.1290  2.3352 -0.7677
 8391SOL     OW35102   3.371   6.892   0.927 -0.1664  0.0977  0.2013
 8391SOL    HW135103   3.364   6.838   1.005  0.8744  0.8515  0.8373
 8391SOL    HW235104   3.366   6.982   0.959  0.5474  0.4222 -0.5503
 8392SOL     OW35105   3.143   8.999   3.215 -0.2574 -0.1888  0.3539
 8392SOL    HW135106   3.214   8.950   3.174  0.1967 -0.4509  1.4176
 8392SOL    HW235107   3.064   8.950   3.192 -0.2179  0.4856 -1.4212
 8393SOL     OW35108   2.605   6.321   2.912 -0.2505 -0.2366 -0.6382
 8393SOL    HW135109   2.695   6.331   2.943  0.0516 -0.0763 -1.5548
 8393SOL    HW235110   2.608   6.250   2.848 -0.8746 -0.5679 -0.3223
 8394SOL     OW35111   9.043   6.433  10.773 -0.0663  0.1841  0.5872
 8394SOL    HW135112   9.036   6.344  10.808  0.4503  0.3677  1.1816
 8394SOL    HW235113   9.082   6.483  10.844  4.2447 -0.1133 -1.2441
 8395SOL     OW35114   0.442  12.959  13.159  0.0129  0.0225 -0.0834
 8395SOL    HW135115   0.439  12.991  13.069 -0.4505  0.7726  0.1924
 8395SOL    HW235116   0.393  12.877  13.157 -1.2378  0.7486 -0.2387
 8396SOL     OW35117   6.210   0.353  10.990 -0.0542  0.3117  0.5087
 8396SOL    HW135118   6.221   0.258  10.986  0.8783  0.3584  1.7197
 8396SOL    HW235119   6.180   0.377  10.902 -2.3878 -1.3390  0.7761
 8397SOL     OW35120   2.117   3.413   8.581  0.8831  0.0907 -0.1827
 8397SOL    HW135121   2.138   3.393   8.490  1.5031 -2.2405  0.3942
 8397SOL    HW235122   2.202   3.415   8.625  0.8724  3.9300 -0.0205
 8398SOL     OW35123  10.443   0.295   3.115 -0.0531 -0.1148 -0.2926
 8398SOL    HW135124  10.530   0.322   3.144 -0.0042  0.0786 -0.6133
 8398SOL    HW235125  10.452   0.202   3.094 -0.6014 -0.8475  2.3560
 8399SOL     OW35126   8.576  10.827  12.913  0.8865  0.4591 -0.0192
 8399SOL    HW135127   8.631  10.886  12.862  0.9465  1.5852  1.3093
 8399SOL    HW235128   8.503  10.881  12.942 -1.9497 -1.3130 -3.0598
 8400SOL     OW35129  11.684   4.987   1.484 -0.6003 -0.8176  0.7389
 8400SOL    HW135130  11.752   4.966   1.420 -1.1735 -1.4281  0.3050
 8400SOL    HW235131  11.660   5.077   1.466 -0.2152 -0.7400  0.6071
 8401SOL     OW35132   9.709  12.894   3.360 -0.0823  0.1411 -0.4830
 8401SOL    HW135133   9.760  12.924   3.285 -1.2998  1.7030 -0.7217
 8401SOL    HW235134   9.648  12.830   3.323  1.1610 -1.1871 -0.3166
 8402SOL     OW35135   5.439   8.730  10.659 -0.5231  0.1726 -0.0453
 8402SOL    HW135136   5.410   8.806  10.608  0.4093 -0.5594 -1.7497
 8402SOL    HW235137   5.361   8.703  10.708 -1.5887  0.6873 -1.3925
 8403SOL     OW35138  12.801   4.719   2.702  0.6010 -0.1533 -0.3923
 8403SOL    HW135139  12.834   4.707   2.791 -0.3348 -0.9420 -0.1244
 8403SOL    HW235140  12.748   4.640   2.686 -2.7432  1.8348 -0.0466
 8404SOL     OW35141  12.641   7.724   7.612 -0.0847 -0.1439  0.7877
 8404SOL    HW135142  12.547   7.706   7.612 -0.1825  0.3336  0.1042
 8404SOL    HW235143  12.682   7.642   7.641 -0.6671 -0.6009  0.3309
 8405SOL     OW35144  10.706   2.191   1.228 -0.2784  0.7288 -0.2848
 8405SOL    HW135145  10.614   2.214   1.216 -0.5943 -1.1740 -2.0615
 8405SOL    HW235146  10.704   2.108   1.276  0.4709  0.3406 -0.9071
 8406SOL     OW35147  12.731   0.137  10.896 -0.5368  0.5670  0.1571
 8406SOL    HW135148  12.654   0.158  10.844 -0.5685  1.6225  0.6046
 8406SOL    HW235149  12.743   0.042  10.885 -0.6368  0.7314 -1.6083
 8407SOL     OW35150   1.472   6.926   2.011 -0.3655  0.2960 -0.2940
 8407SOL    HW135151   1.554   6.957   2.050 -0.2077 -0.3843 -0.0592
 8407SOL    HW235152   1.417   6.902   2.086  0.2511 -1.8181 -0.4327
 8408SOL     OW35153  12.110   9.931   0.267 -0.4034 -0.2241  0.4861
 8408SOL    HW135154  12.017   9.908   0.274 -0.3265 -0.7052 -0.0363
 8408SOL    HW235155  12.156   9.848   0.278 -0.1093 -0.2797 -0.9725
 8409SOL     OW35156  10.103   4.186   4.836  1.1685  0.6031  0.3898
 8409SOL    HW135157  10.039   4.256   4.848  1.2496  0.5259  1.3635
 8409SOL    HW235158  10.153   4.213   4.759 -1.0012 -0.1053 -1.3765
 8410SOL     OW35159   1.168   3.135   7.211 -0.3222  0.1944 -0.1156
 8410SOL    HW135160   1.230   3.192   7.256  0.3318  0.1884 -0.9768
 8410SOL    HW235161   1.177   3.158   7.119  0.2991 -1.5927 -0.5488
 8411SOL     OW35162  10.780   2.949   5.467  0.6564  0.1025 -0.3915
 8411SOL    HW135163  10.814   2.980   5.383  0.7319  0.5968 -0.1799
 8411SOL    HW235164  10.857   2.922   5.516  0.6394  0.1035 -0.3638
 8412SOL     OW35165   1.541   9.594   2.668  0.5065  0.2486 -0.0802
 8412SOL    HW135166   1.550   9.629   2.579  1.1953  1.3448  0.4018
 8412SOL    HW235167   1.451   9.563   2.672  0.2956  0.7017 -0.9854
 8413SOL     OW35168   4.670   4.550   0.251  0.7365  0.0972 -0.1356
 8413SOL    HW135169   4.740   4.549   0.185  0.8637 -1.5449 -0.0390
 8413SOL    HW235170   4.598   4.501   0.210  0.2824  0.2976  0.4120
 8414SOL     OW35171   6.498  12.830   1.826  0.5456  0.1092 -0.6757
 8414SOL    HW135172   6.494  12.923   1.848 -1.2795  0.3972 -1.9768
 8414SOL    HW235173   6.463  12.786   1.903  0.2765  0.5969 -0.5113
 8415SOL     OW35174   8.947   0.667  10.691  0.4066  0.1992  0.3754
 8415SOL    HW135175   8.852   0.653  10.685  0.3737  0.4686  0.2514
 8415SOL    HW235176   8.972   0.627  10.775  0.1450  0.3426  0.5237
 8416SOL     OW35177   9.711   4.989  11.674 -0.1029  0.3228 -0.3895
 8416SOL    HW135178   9.731   5.069  11.626 -2.4778  1.5280  0.5002
 8416SOL    HW235179   9.714   4.920  11.608 -1.0069  1.5991 -1.8144
 8417SOL     OW35180   6.535  10.578   8.989  0.4401  0.0118 -0.8444
 8417SOL    HW135181   6.610  10.519   8.983  0.1546 -0.5180  0.4714
 8417SOL    HW235182   6.465  10.524   9.026  0.2370  1.1972  0.6139
 8418SOL     OW35183   6.064   8.663   1.825  0.3135  0.3450 -0.0840
 8418SOL    HW135184   6.075   8.734   1.888 -0.4264  0.3470  0.0521
 8418SOL    HW235185   5.970   8.659   1.810  0.1813 -1.5713  1.0224
 8419SOL     OW35186  11.293   9.920   3.748 -0.2813 -0.1079 -0.8395
 8419SOL    HW135187  11.209   9.927   3.794 -0.0276  0.4063 -0.4482
 8419SOL    HW235188  11.350   9.875   3.810 -1.0422 -3.1690 -2.1792
 8420SOL     OW35189   8.316  10.173   5.235  0.3199  0.1451  0.3335
 8420SOL    HW135190   8.304  10.100   5.295 -0.7869  0.5307  0.6187
 8420SOL    HW235191   8.231  10.218   5.234  0.4212  0.3862 -1.2074
 8421SOL     OW35192  12.617   6.818   9.488 -0.2290  0.6222  0.3942
 8421SOL    HW135193  12.706   6.787   9.506  0.1124  1.4356  0.1038
 8421SOL    HW235194  12.627   6.910   9.464 -1.1816  0.8027  0.6487
 8422SOL     OW35195   7.560   3.833  10.556  0.3825  0.2302 -0.2219
 8422SOL    HW135196   7.492   3.832  10.623  0.6236 -0.7632  0.0168
 8422SOL    HW235197   7.519   3.794  10.479  0.4753  0.2670 -0.2909
 8423SOL     OW35198   4.143   3.954   3.592  0.5133 -0.1829 -0.0087
 8423SOL    HW135199   4.080   3.885   3.615  1.5403 -0.9940  0.4483
 8423SOL    HW235200   4.127   3.971   3.499 -0.2862 -0.4709  0.0687
 8424SOL     OW35201   9.229   4.580  10.467  0.4464 -0.1117  0.0175
 8424SOL    HW135202   9.260   4.544  10.384  1.2872  1.2190 -0.2646
 8424SOL    HW235203   9.305   4.624  10.504 -0.8322  2.5235 -0.2830
 8425SOL     OW35204   6.713   5.898  12.730 -0.1475 -0.0659  0.1140
 8425SOL    HW135205   6.647   5.935  12.789  0.7126  1.0799  0.4002
 8425SOL    HW235206   6.674   5.906  12.643 -0.6329  0.0360  0.3342
 8426SOL     OW35207   0.212   6.181  12.671 -0.0774  0.1262 -0.0597
 8426SOL    HW135208   0.213   6.122  12.746 -1.6160 -0.3941 -0.3973
 8426SOL    HW235209   0.299   6.220  12.669  1.1522 -2.4010 -0.0291
 8427SOL     OW35210   3.510   8.523  10.431  0.3648  0.3955 -0.4993
 8427SOL    HW135211   3.476   8.499  10.345  1.0642 -0.9462 -0.4188
 8427SOL    HW235212   3.594   8.566  10.413  0.4954  0.1445 -0.4879
 8428SOL     OW35213   8.321   4.020   0.028  0.0134  0.8715 -0.4288
 8428SOL    HW135214   8.339   4.091  -0.034 -0.1770 -0.9844 -2.7084
 8428SOL    HW235215   8.240   4.048   0.073 -0.2369  1.9511 -1.4946
 8429SOL     OW35216   0.920  12.335  11.564 -0.3608 -0.1463  0.0403
 8429SOL    HW135217   0.847  12.273  11.560 -2.7608  2.5269 -0.6301
 8429SOL    HW235218   0.921  12.377  11.479  1.4950  0.4642  0.3211
 8430SOL     OW35219   0.268   7.989   3.535  0.0817 -0.0636 -0.4560
 8430SOL    HW135220   0.306   8.003   3.448 -0.7471 -0.0026 -0.8177
 8430SOL    HW235221   0.337   7.945   3.585  0.8927  0.7102 -0.8659
 8431SOL     OW35222   2.369  10.195   6.109 -0.0569  0.2448 -0.1115
 8431SOL    HW135223   2.433  10.215   6.041  1.4525 -2.0095  0.5173
 8431SOL    HW235224   2.349  10.279   6.149  0.2413  1.4053 -2.2631
 8432SOL     OW35225   6.201   4.979  13.267 -0.5664  0.4266  0.0682
 8432SOL    HW135226   6.135   5.026  13.318 -0.7652 -0.0986  0.3079
 8432SOL    HW235227   6.191   4.888  13.294  1.8482  0.6224  1.8806
 8433SOL     OW35228   1.314   2.977   4.246  0.1416  0.2783  0.3252
 8433SOL    HW135229   1.258   3.048   4.277 -0.3889 -0.1793  0.4348
 8433SOL    HW235230   1.254   2.903   4.234  0.3961  0.3240 -1.4291
 8434SOL     OW35231   8.954  12.554   9.966 -0.0799  0.2043 -0.4081
 8434SOL    HW135232   8.930  12.638   9.926 -0.9741 -0.3222 -1.0355
 8434SOL    HW235233   8.898  12.491   9.921 -0.6771 -0.5063  1.2594
 8435SOL     OW35234   2.679   3.075  10.898  0.3726 -0.3872  0.0777
 8435SOL    HW135235   2.588   3.094  10.917  0.3261  0.3816 -0.7955
 8435SOL    HW235236   2.710   3.024  10.972 -0.6345 -0.2468  0.6049
 8436SOL     OW35237   0.537   6.942  11.140 -0.3217 -0.2439 -0.6270
 8436SOL    HW135238   0.460   6.999  11.140  0.1417  0.3866  0.0921
 8436SOL    HW235239   0.612   7.000  11.150  0.1824 -0.9352 -0.2104
 8437SOL     OW35240   8.427  10.523   6.337  0.7297  0.1592 -0.2755
 8437SOL    HW135241   8.342  10.505   6.296 -0.1748  1.4523  0.9510
 8437SOL    HW235242   8.490  10.515   6.265 -0.4839 -0.2888 -1.3312
 8438SOL     OW35243   0.616   8.623   9.132  0.4589  0.2753 -0.0742
 8438SOL    HW135244   0.527   8.659   9.127  0.7238  0.8130 -1.3202
 8438SOL    HW235245   0.645   8.643   9.222 -1.0282 -0.8092  0.6852
 8439SOL     OW35246   5.718  12.718   8.464 -0.1489 -0.2749 -0.0231
 8439SOL    HW135247   5.780  12.647   8.446  0.3353 -0.1642  1.1299
 8439SOL    HW235248   5.678  12.695   8.548  0.1351  0.8786  0.4577
 8440SOL     OW35249   1.946   4.655   4.453  0.1626  0.2673  0.8821
 8440SOL    HW135250   1.969   4.583   4.511 -0.3668  0.7031  1.6527
 8440SOL    HW235251   1.949   4.733   4.509  1.0520  0.9001 -0.0105
 8441SOL     OW35252   5.082   0.544  10.850  0.0249  0.1408  0.0035
 8441SOL    HW135253   5.099   0.489  10.927 -2.7090 -1.2796 -0.3013
 8441SOL    HW235254   5.022   0.612  10.881  1.3033  1.4553 -0.2518
 8442SOL     OW35255   5.486   4.013   4.582 -0.1866  0.1892 -0.3009
 8442SOL    HW135256   5.478   3.965   4.664 -0.6708  0.8135  0.0278
 8442SOL    HW235257   5.558   3.970   4.535 -1.7382 -1.9647 -0.8197
 8443SOL     OW35258  11.513   8.544   4.465  0.1823 -0.2648  0.1227
 8443SOL    HW135259  11.502   8.628   4.421  1.3525  0.1017  0.4979
 8443SOL    HW235260  11.529   8.482   4.394  1.8980  0.2959 -0.0147
 8444SOL     OW35261   7.549   6.435  11.660 -0.0201 -0.2591  0.2515
 8444SOL    HW135262   7.510   6.461  11.577  0.6936  0.1869  0.0421
 8444SOL    HW235263   7.632   6.484  11.664 -0.0221 -0.3038  1.2015
 8445SOL     OW35264   0.338  12.666   2.934  0.5667  0.1788  0.2587
 8445SOL    HW135265   0.353  12.719   3.012  0.9826  0.4125  0.0257
 8445SOL    HW235266   0.243  12.666   2.922  0.5336  0.5060  0.5120
 8446SOL     OW35267   9.821  12.177   1.980 -0.2863  0.3222  0.4290
 8446SOL    HW135268   9.826  12.247   1.915  0.7753 -0.0676  0.0693
 8446SOL    HW235269   9.913  12.156   1.999 -0.5744 -1.4306  0.0306
 8447SOL     OW35270   5.151   5.566   0.591  0.5733  0.1675 -0.5619
 8447SOL    HW135271   5.168   5.658   0.612 -0.1447 -0.2059  2.0776
 8447SOL    HW235272   5.207   5.517   0.651 -0.1714 -1.0966 -0.8624
 8448SOL     OW35273  12.793  10.738   7.143  0.3474 -0.5724  0.8200
 8448SOL    HW135274  12.874  10.698   7.176  1.0967 -0.5553 -0.8952
 8448SOL    HW235275  12.798  10.829   7.172  1.4991 -0.2968 -0.1177
 8449SOL     OW35276   6.798  12.689   5.571 -0.1295 -0.1067 -0.6199
 8449SOL    HW135277   6.797  12.594   5.567 -0.2226 -0.1845  0.7822
 8449SOL    HW235278   6.718  12.712   5.618  1.0903  0.5041  1.2710
 8450SOL     OW35279  12.299   0.784   0.977 -0.1814 -0.3545  1.0007
 8450SOL    HW135280  12.316   0.848   0.909  0.7248  0.0124  1.5516
 8450SOL    HW235281  12.232   0.726   0.940  2.0232 -1.6853 -1.1781
 8451SOL     OW35282   9.329   6.566   2.089 -0.0658  0.5726 -0.5445
 8451SOL    HW135283   9.345   6.509   2.163 -0.2095 -1.3416 -1.9158
 8451SOL    HW235284   9.328   6.508   2.013  0.5549  2.5048 -2.1283
 8452SOL     OW35285  12.086   8.982  12.998 -0.6513  0.1485  0.2022
 8452SOL    HW135286  12.055   8.939  12.918  0.7964  1.5655 -1.1926
 8452SOL    HW235287  12.025   8.953  13.066 -2.7449 -0.0877 -1.6668
 8453SOL     OW35288  10.998   1.520   5.956 -0.0291  0.1945  0.5219
 8453SOL    HW135289  10.939   1.446   5.973 -2.1536  1.9555  1.3281
 8453SOL    HW235290  11.063   1.515   6.026  0.5741 -1.5282 -0.1065
 8454SOL     OW35291   8.602  11.653   1.155 -0.6009  0.3114  0.1285
 8454SOL    HW135292   8.607  11.665   1.250  0.1896  0.5712  0.0602
 8454SOL    HW235293   8.679  11.601   1.133 -1.0315 -0.1507 -0.3170
 8455SOL     OW35294   7.801   1.785   2.327  0.1778  0.3901  0.0565
 8455SOL    HW135295   7.769   1.862   2.280 -0.2882  0.3833  0.3554
 8455SOL    HW235296   7.832   1.726   2.259 -0.3393  0.4510 -0.2321
 8456SOL     OW35297   1.665   2.206   8.485  0.1377 -0.2725  0.2435
 8456SOL    HW135298   1.682   2.239   8.397 -1.0221  2.2269  0.8554
 8456SOL    HW235299   1.752   2.181   8.518  1.3069  2.7798 -0.1724
 8457SOL     OW35300  12.016   0.637  12.597 -1.0138  0.1217 -0.2337
 8457SOL    HW135301  11.996   0.626  12.504 -1.9992 -1.3616  0.1266
 8457SOL    HW235302  12.011   0.548  12.634 -1.6137  0.7977  1.4195
 8458SOL     OW35303   8.923  12.288   9.798  0.3851 -0.2012  0.4451
 8458SOL    HW135304   8.929  12.312   9.706 -0.9826 -2.2700 -0.2381
 8458SOL    HW235305   8.829  12.291   9.818  0.7062  0.9951  2.0390
 8459SOL     OW35306   4.477   9.798   8.681  0.1641 -0.6314 -0.4415
 8459SOL    HW135307   4.482   9.730   8.614  1.2587 -1.9988  0.9482
 8459SOL    HW235308   4.553   9.854   8.665  0.1454 -0.6626 -0.6380
 8460SOL     OW35309   1.755   7.825   3.477 -0.6756 -0.0127 -0.2561
 8460SOL    HW135310   1.813   7.749   3.484  0.5592  0.9390  0.0201
 8460SOL    HW235311   1.729   7.827   3.385  0.6227  0.1818 -0.6307
 8461SOL     OW35312   5.564   8.820   5.603  0.0971 -0.6158 -0.2270
 8461SOL    HW135313   5.622   8.844   5.675 -0.6425 -1.1893  0.5774
 8461SOL    HW235314   5.476   8.837   5.636 -0.4230 -3.2950 -0.0001
 8462SOL     OW35315  12.065  11.956   8.522  0.8731  0.9838  0.8846
 8462SOL    HW135316  12.109  11.874   8.545  0.3862  0.4033 -0.1491
 8462SOL    HW235317  12.097  12.020   8.585  1.8472  0.1695  1.2339
 8463SOL     OW35318   8.149   0.582   5.626  0.0162  0.2425  0.4200
 8463SOL    HW135319   8.092   0.650   5.590 -0.7718 -0.7653 -0.2951
 8463SOL    HW235320   8.226   0.582   5.570 -1.1935 -1.3039 -1.3519
 8464SOL     OW35321   0.112  10.135   2.678  0.1872  0.0346 -0.2876
 8464SOL    HW135322   0.086  10.183   2.756  0.3491  1.9911 -1.3619
 8464SOL    HW235323   0.208  10.133   2.682  0.2272  0.6584 -0.6883
 8465SOL     OW35324  12.983   1.798  12.222  0.4118 -0.2749 -0.4252
 8465SOL    HW135325  12.933   1.726  12.262 -1.3454  0.2675 -1.5681
 8465SOL    HW235326  12.970   1.787  12.128 -0.6467  2.0571 -0.6001
 8466SOL     OW35327   7.281   5.350  11.198 -0.1631  0.6424 -0.0245
 8466SOL    HW135328   7.211   5.414  11.186 -0.3786  0.3397 -0.4171
 8466SOL    HW235329   7.304   5.357  11.290 -1.1787  0.2781  0.2738
 8467SOL     OW35330  12.763   2.984   1.821  0.1840 -0.5744 -0.7110
 8467SOL    HW135331  12.842   3.034   1.839  0.0342  0.1736 -2.0256
 8467SOL    HW235332  12.691   3.037   1.856  0.2025 -0.9952 -0.0104
 8468SOL     OW35333   1.947   9.994   3.482 -0.3055 -0.3241  0.1881
 8468SOL    HW135334   2.019  10.001   3.545 -0.0042  1.8051 -0.3045
 8468SOL    HW235335   1.938   9.900   3.466  2.3246 -0.6843  0.3281
 8469SOL     OW35336   5.788   3.648  12.721 -0.3797 -0.3666 -0.0113
 8469SOL    HW135337   5.850   3.583  12.752  1.6294  1.3960 -0.0805
 8469SOL    HW235338   5.781   3.633  12.627  0.0904 -0.4563 -0.0313
 8470SOL     OW35339   3.280   1.384  12.541  0.3673  0.6503 -0.0190
 8470SOL    HW135340   3.336   1.327  12.488  0.9332  1.7012 -0.5619
 8470SOL    HW235341   3.296   1.355  12.631  0.1893 -0.4437 -0.3243
 8471SOL     OW35342   2.289   9.184   4.086 -0.1716 -0.3042  0.2515
 8471SOL    HW135343   2.357   9.173   4.153 -0.8091 -0.7771  0.8325
 8471SOL    HW235344   2.338   9.194   4.004  0.6084 -0.1488  0.7204
 8472SOL     OW35345   9.530  11.481   1.809 -0.2719  0.3584 -0.3240
 8472SOL    HW135346   9.539  11.504   1.716  0.6220 -1.3085 -0.6891
 8472SOL    HW235347   9.565  11.557   1.856 -0.5139  1.1272 -1.3381
 8473SOL     OW35348   8.453   2.635  12.280  0.3315  0.4008 -0.5651
 8473SOL    HW135349   8.544   2.651  12.304  0.4667 -0.6729 -0.3262
 8473SOL    HW235350   8.431   2.553  12.324 -0.3543 -0.0197 -1.6722
 8474SOL     OW35351   3.257   5.261   2.810  0.0238 -0.4806  0.4783
 8474SOL    HW135352   3.250   5.353   2.836 -0.5611  0.3204 -2.1811
 8474SOL    HW235353   3.270   5.213   2.892 -2.1856  1.6883  2.2330
 8475SOL     OW35354   8.088   4.013  11.083  0.7336 -0.0742 -0.6063
 8475SOL    HW135355   8.163   3.978  11.131 -0.7485 -1.6540  0.6880
 8475SOL    HW235356   8.082   3.959  11.004  1.4500  0.6344 -1.1627
 8476SOL     OW35357   0.537  12.079   3.150 -0.3648 -0.6347 -0.2681
 8476SOL    HW135358   0.469  12.014   3.171 -1.8191  0.7400 -0.5458
 8476SOL    HW235359   0.545  12.074   3.055  1.2032 -1.9717 -0.1162
 8477SOL     OW35360   2.783   2.538   0.529  0.4082  0.0661 -0.0982
 8477SOL    HW135361   2.769   2.466   0.591  1.1305 -0.2577 -0.2966
 8477SOL    HW235362   2.696   2.557   0.494  0.5749 -3.1361 -2.7436
 8478SOL     OW35363   6.784   7.454   3.685 -0.1190 -0.4969  0.4329
 8478SOL    HW135364   6.787   7.540   3.728  0.8615 -0.4142  0.2007
 8478SOL    HW235365   6.706   7.412   3.723 -0.9634  0.7204  0.0923
 8479SOL     OW35366   7.837   6.803   4.936 -0.2456  0.1548  0.0103
 8479SOL    HW135367   7.773   6.732   4.929  0.3461 -0.2212 -2.4403
 8479SOL    HW235368   7.896   6.775   5.006  0.0767 -1.8842 -1.0111
 8480SOL     OW35369   5.839   5.759   7.654  0.0884 -0.3104 -1.1054
 8480SOL    HW135370   5.875   5.771   7.567  0.4366 -1.2298 -1.0982
 8480SOL    HW235371   5.856   5.667   7.675 -0.8269 -0.3509 -0.4523
 8481SOL     OW35372   8.518  10.225   4.621  0.3551 -0.0967 -0.6468
 8481SOL    HW135373   8.566  10.271   4.690  0.6117 -2.5217  0.8754
 8481SOL    HW235374   8.429  10.217   4.655 -0.1986  0.9153 -1.7646
 8482SOL     OW35375  11.786   2.857  12.024 -0.4233 -0.4151  0.4680
 8482SOL    HW135376  11.823   2.817  11.946 -0.8622  1.2559 -0.6548
 8482SOL    HW235377  11.838   2.822  12.097  0.7783 -1.0917 -0.6797
 8483SOL     OW35378  11.183   5.658   3.838  0.2236 -0.0609  0.0221
 8483SOL    HW135379  11.136   5.665   3.754 -0.1634 -0.2098  0.2216
 8483SOL    HW235380  11.115   5.670   3.904  0.3762 -0.7966  0.3232
 8484SOL     OW35381   7.169  10.798   9.084 -0.0896  0.4942 -0.0675
 8484SOL    HW135382   7.188  10.714   9.125  0.1452  0.3918 -0.3763
 8484SOL    HW235383   7.175  10.862   9.155 -0.7168  0.1997  0.2607
 8485SOL     OW35384   9.289  12.616   2.536  0.0288 -0.3185 -0.3286
 8485SOL    HW135385   9.241  12.610   2.619 -0.0849 -1.7636 -0.4789
 8485SOL    HW235386   9.336  12.700   2.542 -1.6579  0.6447  0.2603
 8486SOL     OW35387   6.197   5.886  10.475 -0.5458 -0.3608 -0.1362
 8486SOL    HW135388   6.169   5.951  10.411  0.4651 -0.3148 -0.5331
 8486SOL    HW235389   6.125   5.822  10.477 -1.9677  1.1607  0.8775
 8487SOL     OW35390   1.115   4.911  10.455 -0.1740 -0.1118 -0.3917
 8487SOL    HW135391   1.052   4.971  10.415  2.6830  2.2954 -1.6960
 8487SOL    HW235392   1.164   4.876  10.380 -0.3433 -2.4583  0.5239
 8488SOL     OW35393   6.353   7.135   3.709  0.1589  0.5366  0.1278
 8488SOL    HW135394   6.361   7.230   3.708 -0.0835  0.5549 -1.2267
 8488SOL    HW235395   6.340   7.110   3.618  0.5573 -0.8295  0.4121
 8489SOL     OW35396  12.922  12.753   4.746  0.6306  0.4350  0.2980
 8489SOL    HW135397  12.874  12.678   4.710 -1.9236  1.4581  1.3623
 8489SOL    HW235398  12.946  12.805   4.669  1.2196 -0.7471 -0.3456
 8490SOL     OW35399   6.946  11.120   5.137 -0.0181 -0.2817 -0.5309
 8490SOL    HW135400   6.952  11.036   5.091 -3.4393 -0.1487 -1.4824
 8490SOL    HW235401   6.852  11.134   5.148  0.5486  1.9664  2.4235
 8491SOL     OW35402   8.854   4.831   4.290 -0.2632 -0.7932 -0.0052
 8491SOL    HW135403   8.917   4.873   4.231  0.5501  0.9984  2.0155
 8491SOL    HW235404   8.890   4.744   4.306  2.1595  0.3770  1.5617
 8492SOL     OW35405  11.222   1.530   6.127 -0.4545 -0.4583  0.5689
 8492SOL    HW135406  11.279   1.596   6.165 -1.1953 -0.4952  1.7941
 8492SOL    HW235407  11.238   1.451   6.180 -0.3850 -0.9592 -0.1784
 8493SOL     OW35408   8.738   1.904   1.169  0.1872  0.2478 -0.0645
 8493SOL    HW135409   8.729   1.922   1.263  0.8166  1.8007 -0.2591
 8493SOL    HW235410   8.683   1.970   1.127  1.1363  0.5812 -0.8139
 8494SOL     OW35411   3.206   7.925   2.454  0.0031  0.0078  0.1413
 8494SOL    HW135412   3.228   8.018   2.457 -1.8126  0.4705  0.5894
 8494SOL    HW235413   3.290   7.880   2.443  0.7605  1.8221 -2.8699
 8495SOL     OW35414   7.458  12.743   9.530  0.4900  0.3037 -0.2937
 8495SOL    HW135415   7.523  12.803   9.566 -0.2557  0.6189  0.5583
 8495SOL    HW235416   7.460  12.759   9.436  0.1010  1.8971 -0.0656
 8496SOL     OW35417   3.912   0.995   9.777 -0.0486 -0.3046 -0.3333
 8496SOL    HW135418   3.839   1.028   9.830  0.1726 -0.4280  0.0486
 8496SOL    HW235419   3.937   0.913   9.819  2.4005  1.2330  1.5065
 8497SOL     OW35420   6.414   0.199   2.544  0.3835  0.6408 -0.1788
 8497SOL    HW135421   6.408   0.230   2.634 -0.0217  0.4015 -0.1190
 8497SOL    HW235422   6.359   0.259   2.494 -0.5613 -0.0772 -0.0317
 8498SOL     OW35423   7.922   5.853   1.859 -0.1387 -0.2085 -0.2575
 8498SOL    HW135424   7.975   5.925   1.825 -1.9294  1.3252  0.0686
 8498SOL    HW235425   7.856   5.838   1.791  0.3321 -1.7435 -0.4283
 8499SOL     OW35426  11.986  11.008   8.754 -0.1511  0.3875 -0.0284
 8499SOL    HW135427  11.953  11.029   8.666  3.4912  0.3313 -1.6281
 8499SOL    HW235428  12.001  10.913   8.751 -0.2157  0.3507  0.7556
 8500SOL     OW35429   9.500  12.666   4.125  0.4926 -0.2743 -0.2213
 8500SOL    HW135430   9.472  12.734   4.063 -1.0526 -0.4317  0.2636
 8500SOL    HW235431   9.476  12.700   4.211  0.6337 -0.9945  0.1097
 8501SOL     OW35432   3.724   6.243  12.274  0.0905 -0.1079  0.8788
 8501SOL    HW135433   3.819   6.234  12.266 -0.0197  0.0526 -1.2768
 8501SOL    HW235434   3.702   6.312  12.212 -1.7091 -2.0775 -0.8302
 8502SOL     OW35435  10.749   3.442  11.635  0.5227  0.2318 -0.5021
 8502SOL    HW135436  10.771   3.358  11.594  1.0659  0.2267 -0.1967
 8502SOL    HW235437  10.774   3.508  11.570  1.6157  0.2366 -0.0925
 8503SOL     OW35438   7.149  12.314  11.725  0.1537  0.3650 -0.0036
 8503SOL    HW135439   7.170  12.372  11.798  1.8449  0.5637 -0.6072
 8503SOL    HW235440   7.173  12.364  11.647 -0.4420 -0.3249 -0.6462
 8504SOL     OW35441  10.292  12.397   0.131 -0.4223 -0.3317  0.3276
 8504SOL    HW135442  10.318  12.486   0.153  1.1411 -1.1538  2.1147
 8504SOL    HW235443  10.216  12.407   0.074 -1.4520  2.1243  1.9504
 8505SOL     OW35444   3.143   3.220   7.110  0.3041 -0.1161  0.1872
 8505SOL    HW135445   3.224   3.181   7.143  0.7995 -0.6322 -1.5341
 8505SOL    HW235446   3.090   3.146   7.082  0.0542  0.3114 -0.4891
 8506SOL     OW35447   5.999   9.109  11.018  0.3235 -0.5090 -0.3189
 8506SOL    HW135448   5.926   9.168  11.001 -0.6802 -1.7758 -0.5600
 8506SOL    HW235449   5.959   9.030  11.056  1.8108 -0.3155  1.9008
 8507SOL     OW35450   0.435  10.399   7.519 -0.2378 -0.4194 -0.0313
 8507SOL    HW135451   0.390  10.446   7.589  0.4420  0.4123 -0.1358
 8507SOL    HW235452   0.417  10.451   7.440 -2.1413 -2.0793 -0.7630
 8508SOL     OW35453   6.192   8.156   3.474 -0.0626 -0.2188 -0.3144
 8508SOL    HW135454   6.196   8.244   3.437  1.2499 -0.7759 -1.6272
 8508SOL    HW235455   6.213   8.168   3.567 -2.3956  1.0977  0.1193
 8509SOL     OW35456   6.185   9.058   8.767  0.3913  0.1302  0.1200
 8509SOL    HW135457   6.183   9.154   8.766  3.7941  0.3194  0.6624
 8509SOL    HW235458   6.231   9.036   8.848  0.0108 -1.9975 -0.1865
 8510SOL     OW35459   2.797   6.784   0.235 -0.4462 -0.1104 -0.0777
 8510SOL    HW135460   2.805   6.764   0.328 -0.1190  0.3444 -0.0007
 8510SOL    HW235461   2.707   6.816   0.225 -0.1920  0.7410  0.2704
 8511SOL     OW35462   6.977  13.194   2.120 -0.2733 -0.0936 -0.2774
 8511SOL    HW135463   6.947  13.195   2.211  0.9181  0.1941  0.1213
 8511SOL    HW235464   6.929  13.266   2.079 -1.0274 -0.3981  0.0418
 8512SOL     OW35465  12.747   6.915   6.019 -0.2115  0.1940  0.2056
 8512SOL    HW135466  12.724   6.867   6.099 -0.2190  0.1314  0.1661
 8512SOL    HW235467  12.662   6.935   5.978 -0.2593  1.1797  0.7643
 8513SOL     OW35468  12.854   6.908   5.759  0.3935  0.0556  0.2057
 8513SOL    HW135469  12.841   6.814   5.748  3.0137 -0.5809  1.7986
 8513SOL    HW235470  12.844   6.924   5.853 -0.4129  1.4639 -0.0845
 8514SOL     OW35471   3.655   0.202   8.385  0.5269 -0.4206  0.3553
 8514SOL    HW135472   3.575   0.205   8.333 -0.2424 -0.4543  1.4998
 8514SOL    HW235473   3.661   0.289   8.425  1.1854 -0.3444  0.1033
 8515SOL     OW35474  10.118   0.389   1.347  0.2393  0.5419  0.0058
 8515SOL    HW135475  10.082   0.418   1.263 -2.4172  1.3262  1.3213
 8515SOL    HW235476  10.134   0.295   1.336  0.0745  0.6658 -1.3895
 8516SOL     OW35477   5.051   9.508  11.774  0.0973  0.7475  0.6517
 8516SOL    HW135478   5.016   9.511  11.684  1.2248  0.3036  0.1867
 8516SOL    HW235479   5.124   9.571  11.773  0.5229  0.2647  1.0777
 8517SOL     OW35480   1.920   0.679  10.633 -0.6319  0.0647 -0.8511
 8517SOL    HW135481   1.994   0.691  10.574  1.1477  1.0334  1.3931
 8517SOL    HW235482   1.868   0.758  10.623 -0.7657 -0.1151 -1.6331
 8518SOL     OW35483   3.378   2.306   3.999  0.1725 -0.1157  1.1406
 8518SOL    HW135484   3.314   2.240   4.027  0.0189 -1.0060 -1.0920
 8518SOL    HW235485   3.325   2.382   3.974  0.3754  1.1549  4.1727
 8519SOL     OW35486  11.902   0.591   1.472 -0.3071  0.3684  0.0967
 8519SOL    HW135487  11.936   0.511   1.430 -0.2577  0.9621 -1.0456
 8519SOL    HW235488  11.922   0.580   1.565 -1.4699 -1.5272  0.1597
 8520SOL     OW35489   6.720   8.841   4.447  0.2126 -0.0384  0.7857
 8520SOL    HW135490   6.642   8.808   4.401  0.4390 -1.0188  1.0786
 8520SOL    HW235491   6.766   8.892   4.380  0.2709 -1.0151  0.0492
 8521SOL     OW35492   5.199   7.062   2.572 -0.2924  0.0657  0.1306
 8521SOL    HW135493   5.242   6.998   2.629 -0.2205  0.4041  0.4596
 8521SOL    HW235494   5.193   7.141   2.625 -1.4258  0.0014  0.1327
 8522SOL     OW35495   1.946   8.556  11.924  0.1769 -0.1138  0.3958
 8522SOL    HW135496   1.973   8.547  12.016  2.1518 -1.0306 -0.2237
 8522SOL    HW235497   1.920   8.468  11.898 -1.1368  0.2995  0.2765
 8523SOL     OW35498   8.034   4.528   1.977  0.2757 -0.6378  0.0910
 8523SOL    HW135499   8.126   4.549   1.995 -0.0136 -0.2204  1.1417
 8523SOL    HW235500   8.036   4.437   1.948  1.0377 -0.5726 -0.0996
 8524SOL     OW35501   3.773   1.711  12.972 -0.4617 -0.2537 -0.1903
 8524SOL    HW135502   3.769   1.765  13.051  0.0356  0.1904 -0.4652
 8524SOL    HW235503   3.725   1.762  12.906 -2.2697 -1.3373  0.2228
 8525SOL     OW35504   2.001   1.616   7.883 -0.1030  0.3880 -0.0305
 8525SOL    HW135505   2.026   1.554   7.952  0.2996 -0.0083 -0.5302
 8525SOL    HW235506   1.995   1.564   7.804  2.5340  1.3346 -0.9583
 8526SOL     OW35507   9.044   8.647   5.233  0.6642  0.2014 -0.4419
 8526SOL    HW135508   9.104   8.722   5.224  1.9720 -0.6698  0.5993
 8526SOL    HW235509   9.101   8.573   5.255 -0.7445 -0.8121 -0.0343
 8527SOL     OW35510   0.854  11.290   0.204 -0.3311 -0.2854  0.3073
 8527SOL    HW135511   0.944  11.280   0.235  0.0572  0.1909 -0.6422
 8527SOL    HW235512   0.803  11.234   0.263  0.1464  1.6380  2.7330
 8528SOL     OW35513   5.265   9.499   8.991  0.9114  0.1554 -0.2386
 8528SOL    HW135514   5.236   9.494   8.900  1.7146 -2.0471 -0.4586
 8528SOL    HW235515   5.347   9.449   8.992  1.7392  1.4308  1.4183
 8529SOL     OW35516   5.879   1.672   6.381 -0.4787  0.0815 -0.1887
 8529SOL    HW135517   5.812   1.603   6.381 -0.5265  0.1274 -0.3128
 8529SOL    HW235518   5.902   1.683   6.289 -1.5404  1.2549 -0.3441
 8530SOL     OW35519  12.602   1.614   6.526 -0.3994 -0.4403 -0.8114
 8530SOL    HW135520  12.531   1.673   6.549  0.0432 -0.2456  0.0848
 8530SOL    HW235521  12.612   1.624   6.431 -1.5672 -0.4881 -0.9593
 8531SOL     OW35522   9.060   7.335   2.846 -0.2096  0.5654  0.0569
 8531SOL    HW135523   8.968   7.348   2.825  0.2546 -0.8481 -3.6962
 8531SOL    HW235524   9.101   7.420   2.829 -0.8268  1.4324  2.5385
 8532SOL     OW35525  12.445  11.949   0.005 -0.5975 -0.1196 -0.0249
 8532SOL    HW135526  12.523  12.001  -0.015 -2.4472  2.9996  0.1858
 8532SOL    HW235527  12.442  11.945   0.101  0.2759 -1.9264 -0.0456
 8533SOL     OW35528   8.231  10.487   4.466  0.2224 -0.2340  0.2261
 8533SOL    HW135529   8.319  10.454   4.450 -0.2887 -1.4295 -0.2134
 8533SOL    HW235530   8.179  10.453   4.393 -0.2612  1.9053 -0.4988
 8534SOL     OW35531   9.234   6.823   7.967 -0.6385 -0.3182 -0.3144
 8534SOL    HW135532   9.285   6.742   7.977  0.6709  0.4883 -0.1818
 8534SOL    HW235533   9.273   6.867   7.891 -0.3263  0.8692  0.4970
 8535SOL     OW35534   1.647   9.571   9.676  0.0567 -0.2624 -1.1633
 8535SOL    HW135535   1.577   9.528   9.724  0.2363 -1.7775 -2.1974
 8535SOL    HW235536   1.623   9.664   9.677  0.1040 -0.2081  1.8321
 8536SOL     OW35537   3.053   6.734  10.388  0.0545  0.2172 -0.4341
 8536SOL    HW135538   2.996   6.660  10.408  0.7005 -0.1994 -0.0957
 8536SOL    HW235539   3.135   6.713  10.432  0.2329  1.1577 -0.3117
 8537SOL     OW35540   8.839   0.407   5.453  0.0892  0.2415  0.9477
 8537SOL    HW135541   8.756   0.402   5.405  0.7377 -0.0588 -0.1925
 8537SOL    HW235542   8.821   0.366   5.537 -0.9167  0.1880  0.7214
 8538SOL     OW35543   6.182   2.358  13.208 -0.0080 -0.2837  0.3135
 8538SOL    HW135544   6.139   2.304  13.274 -3.1245  0.4301 -0.9670
 8538SOL    HW235545   6.157   2.319  13.125  1.4320  0.5309 -0.5430
 8539SOL     OW35546   1.755  13.106   6.659  0.3537 -0.1039  0.3156
 8539SOL    HW135547   1.783  13.197   6.663  0.3305 -0.0673 -0.2394
 8539SOL    HW235548   1.713  13.089   6.743  2.9380 -0.4802  1.6100
 8540SOL     OW35549   9.488   9.039   2.245 -0.2760  0.0284 -0.2247
 8540SOL    HW135550   9.491   8.969   2.310  0.2749 -1.5591 -1.8736
 8540SOL    HW235551   9.413   9.016   2.189 -0.8189  1.4321 -0.1100
 8541SOL     OW35552  13.000   3.547   0.529  0.6623 -0.0745 -0.1641
 8541SOL    HW135553  13.078   3.492   0.526  0.4822 -0.2952 -1.0196
 8541SOL    HW235554  13.016   3.607   0.602  0.7203 -1.4653  1.0193
 8542SOL     OW35555  12.073   3.955   2.591 -0.1179  0.0324 -0.1309
 8542SOL    HW135556  12.083   4.049   2.580  0.7278 -0.0131  0.2016
 8542SOL    HW235557  12.049   3.923   2.504 -1.6333  0.6968  0.0182
 8543SOL     OW35558   2.674   6.570  12.230  0.2115 -0.3544  1.0625
 8543SOL    HW135559   2.652   6.508  12.299  0.7849 -0.3579  1.2495
 8543SOL    HW235560   2.739   6.524  12.176 -0.0888 -0.2798  0.6367
 8544SOL     OW35561   8.708   9.604   3.983 -0.0864 -0.7110  0.3844
 8544SOL    HW135562   8.690   9.563   4.067  1.3027 -2.6691 -0.1959
 8544SOL    HW235563   8.647   9.562   3.922  0.8220 -1.3905 -0.0758
 8545SOL     OW35564   9.501   2.080   3.683 -0.3702 -0.2458 -0.7770
 8545SOL    HW135565   9.582   2.041   3.651 -0.2082 -0.5595 -0.0019
 8545SOL    HW235566   9.473   2.023   3.755 -1.1643 -0.0241 -0.8972
 8546SOL     OW35567   8.730   1.369   3.117  0.3575  0.5129  0.8545
 8546SOL    HW135568   8.799   1.410   3.066  0.4277 -0.6347 -0.0302
 8546SOL    HW235569   8.656   1.430   3.111  0.4866  0.5749 -0.3291
 8547SOL     OW35570   1.825   8.639   2.455 -0.0456  0.1842 -0.4566
 8547SOL    HW135571   1.817   8.731   2.431  2.3090  0.2364 -1.2684
 8547SOL    HW235572   1.805   8.637   2.548  0.0744  1.5447 -0.3806
 8548SOL     OW35573   3.136   7.179   9.023 -0.6150 -0.1283 -0.3954
 8548SOL    HW135574   3.101   7.244   8.963  2.6580  1.8852 -0.3874
 8548SOL    HW235575   3.196   7.126   8.970  0.6723  0.2895  0.5635
 8549SOL     OW35576  12.357   7.052   7.128  0.1063 -0.8236 -0.4820
 8549SOL    HW135577  12.297   7.126   7.128 -0.5108 -1.2873 -2.0374
 8549SOL    HW235578  12.437   7.085   7.168 -1.5295 -0.5162  2.9014
 8550SOL     OW35579   4.010   5.878   2.251 -0.5664 -0.3276 -0.0590
 8550SOL    HW135580   4.043   5.809   2.193  1.0574 -1.3960  2.0184
 8550SOL    HW235581   4.086   5.934   2.267 -1.0305  0.0651  0.8410
 8551SOL     OW35582   3.047   3.570   3.217 -0.4962  0.4048 -0.0505
 8551SOL    HW135583   3.012   3.585   3.129 -2.0297 -0.6301  0.3346
 8551SOL    HW235584   3.056   3.475   3.223  1.6376  0.5728  0.2052
 8552SOL     OW35585   6.764   5.997   1.368  0.2524 -0.0476  0.2890
 8552SOL    HW135586   6.817   6.064   1.411 -0.2202  1.1568 -0.9314
 8552SOL    HW235587   6.694   5.977   1.430 -0.2848  1.4758  0.1917
 8553SOL     OW35588  12.687   6.449   3.084 -0.1341  0.1765 -0.2144
 8553SOL    HW135589  12.626   6.501   3.032 -0.3262 -0.1927 -0.3564
 8553SOL    HW235590  12.637   6.427   3.163 -0.1546 -0.0586 -0.2950
 8554SOL     OW35591  10.344   8.981   0.813 -0.2999 -0.0248 -0.6784
 8554SOL    HW135592  10.270   8.954   0.867  0.6671 -0.5909  0.4216
 8554SOL    HW235593  10.340   8.924   0.737 -0.5547 -0.5880 -0.2573
 8555SOL     OW35594   8.792   5.916   3.105 -0.1315 -0.0921  0.0888
 8555SOL    HW135595   8.845   5.844   3.140  1.3298  0.5249 -0.7697
 8555SOL    HW235596   8.709   5.910   3.153  0.6753 -1.1406  1.4260
 8556SOL     OW35597   2.773   9.032   9.865 -0.5840 -0.0815 -0.7736
 8556SOL    HW135598   2.725   9.114   9.878 -1.6545 -0.7762 -0.1780
 8556SOL    HW235599   2.705   8.966   9.850  0.1443 -1.1961  0.5602
 8557SOL     OW35600   7.049  11.545  11.222 -0.1138  0.1289 -0.6126
 8557SOL    HW135601   7.036  11.636  11.195 -1.5443 -0.2733 -1.3604
 8557SOL    HW235602   7.059  11.497  11.140 -2.6880 -0.8488 -0.4500
 8558SOL     OW35603   0.623   2.011  11.824 -0.5681  0.0603  0.2867
 8558SOL    HW135604   0.564   2.054  11.762 -0.6843  0.2486  0.5284
 8558SOL    HW235605   0.575   1.934  11.854  0.3678 -1.3424 -1.5950
 8559SOL     OW35606   5.164   9.171   6.731 -0.3863 -0.4891  0.3333
 8559SOL    HW135607   5.165   9.267   6.721  1.4857 -0.3417  1.4869
 8559SOL    HW235608   5.164   9.139   6.641  1.3352  0.6570 -0.1437
 8560SOL     OW35609   5.574   2.097   8.411  0.1771 -0.0190 -0.3529
 8560SOL    HW135610   5.515   2.142   8.471 -1.2806 -2.3831  0.0833
 8560SOL    HW235611   5.646   2.066   8.465  0.4768  0.5452 -0.4167
 8561SOL     OW35612   7.647  11.418  11.871  0.0990  0.2126  0.4989
 8561SOL    HW135613   7.612  11.348  11.928 -2.2035  1.1359  0.3471
 8561SOL    HW235614   7.612  11.498  11.909  0.1788  1.0220 -1.0765
 8562SOL     OW35615   7.115   0.642  13.037 -0.0149  0.1219 -0.1687
 8562SOL    HW135616   7.058   0.606  12.969  1.2887  0.0426 -1.2746
 8562SOL    HW235617   7.157   0.565  13.076  0.0331  0.2263 -0.0135
 8563SOL     OW35618   1.146   1.105  11.322 -0.4150  0.1896 -0.9765
 8563SOL    HW135619   1.217   1.158  11.285 -0.7367  0.4767 -1.1891
 8563SOL    HW235620   1.083   1.169  11.355 -0.4115 -0.0640 -0.4621
 8564SOL     OW35621  11.963   4.082   3.513  0.0572 -0.5411  0.2591
 8564SOL    HW135622  11.887   4.065   3.570  0.8070 -3.5738  0.5180
 8564SOL    HW235623  12.032   4.109   3.573 -0.4223  0.8928  0.1855
 8565SOL     OW35624   3.465  13.160   9.703  0.3316 -0.5297 -0.5303
 8565SOL    HW135625   3.483  13.254   9.695 -1.5012 -0.1778 -1.0485
 8565SOL    HW235626   3.550  13.121   9.722  0.9569  1.3572  0.8526
 8566SOL     OW35627   3.725   8.316   6.036 -0.4792  0.6075  0.3411
 8566SOL    HW135628   3.724   8.222   6.022 -0.4192  0.5045  0.9893
 8566SOL    HW235629   3.815   8.335   6.064 -0.3936  0.9139 -0.1221
 8567SOL     OW35630   2.809   3.122  12.512  0.2985  0.3300  0.1133
 8567SOL    HW135631   2.881   3.068  12.480  2.1505  1.8388  1.4958
 8567SOL    HW235632   2.730   3.069  12.496  1.9057 -2.4909  0.8617
 8568SOL     OW35633   8.350  12.817   4.761  0.3163  0.3043 -0.2135
 8568SOL    HW135634   8.311  12.861   4.686  0.1119 -1.7850 -1.4313
 8568SOL    HW235635   8.375  12.731   4.727  1.4537 -0.2190  1.8010
 8569SOL     OW35636   4.945   9.685   1.578  0.2278 -0.2424 -0.1100
 8569SOL    HW135637   4.869   9.742   1.590  0.2212 -0.6271  2.0105
 8569SOL    HW235638   5.020   9.744   1.576  0.0711 -0.0363  0.1335
 8570SOL     OW35639   9.935   7.729  12.115  0.3827  0.8180 -0.2270
 8570SOL    HW135640   9.883   7.799  12.154 -0.2626  0.3983 -0.3293
 8570SOL    HW235641  10.012   7.774  12.079 -0.0261  1.4721 -0.2939
 8571SOL     OW35642  12.436   6.409   8.138  0.2618  0.4877  0.4598
 8571SOL    HW135643  12.442   6.485   8.196  0.2006  0.9089 -0.0719
 8571SOL    HW235644  12.360   6.360   8.171  0.3908  0.5733  0.8980
 8572SOL     OW35645   5.947  12.495   8.769  0.1942  0.9377  0.3509
 8572SOL    HW135646   5.955  12.553   8.694  1.3573 -1.8329 -1.8518
 8572SOL    HW235647   5.859  12.458   8.762  0.9355 -0.7173 -0.8507
 8573SOL     OW35648  11.623   9.189   5.767  0.3521  0.4145  0.4981
 8573SOL    HW135649  11.642   9.122   5.834 -0.7456  0.1320  0.5426
 8573SOL    HW235650  11.696   9.183   5.706  0.9378  0.0815  1.2101
 8574SOL     OW35651  10.883   5.387   5.579  0.0369  0.2054 -0.0329
 8574SOL    HW135652  10.921   5.317   5.526 -1.7156 -0.2667 -0.7517
 8574SOL    HW235653  10.861   5.455   5.515  2.4939  1.8883  0.7343
 8575SOL     OW35654   6.950  13.211   4.749  0.1758  0.0284  0.1962
 8575SOL    HW135655   6.968  13.170   4.664 -2.0657 -0.7727  0.0246
 8575SOL    HW235656   6.996  13.156   4.812 -0.0609 -0.7905 -0.3251
 8576SOL     OW35657   9.154   7.310   7.562  0.2374 -0.7106  0.2517
 8576SOL    HW135658   9.211   7.342   7.631 -3.8034  1.5614  2.9077
 8576SOL    HW235659   9.120   7.226   7.595 -0.1161 -0.6562  0.0373
 8577SOL     OW35660   1.774  11.036   3.922  0.4392  0.0375 -0.5601
 8577SOL    HW135661   1.862  11.049   3.885  0.2390 -0.4111 -1.1993
 8577SOL    HW235662   1.730  10.979   3.859 -0.0054 -0.4936  0.2283
 8578SOL     OW35663  11.002   4.179   7.423  0.2172  0.0534  0.2343
 8578SOL    HW135664  10.959   4.094   7.432  0.8784 -0.5898 -1.9561
 8578SOL    HW235665  11.096   4.158   7.422  0.3658  0.4878 -2.1755
 8579SOL     OW35666   0.735   2.609  10.101 -0.5943  0.4869  0.2181
 8579SOL    HW135667   0.702   2.520  10.093  0.0640  0.1219  1.3365
 8579SOL    HW235668   0.666   2.664  10.063 -2.3532 -0.2705  2.0925
 8580SOL     OW35669   0.487   1.540   3.301 -0.4751 -0.2996  0.3604
 8580SOL    HW135670   0.447   1.625   3.282 -0.4535 -0.2599  0.4944
 8580SOL    HW235671   0.576   1.547   3.267 -0.9120 -0.7773 -0.9863
 8581SOL     OW35672   1.722   2.455  10.172  0.4911  0.4705 -0.0954
 8581SOL    HW135673   1.702   2.453  10.266  0.9093  1.8599  0.0490
 8581SOL    HW235674   1.648   2.500  10.132  0.0254 -0.6441 -0.5429
 8582SOL     OW35675  11.841   9.257   5.314  0.1466 -0.3268  0.2368
 8582SOL    HW135676  11.847   9.181   5.372 -1.5934 -0.8102 -0.1497
 8582SOL    HW235677  11.878   9.329   5.364 -0.2500 -0.9682  1.5096
 8583SOL     OW35678   2.610   7.560  13.099 -0.0859 -0.1191  0.0443
 8583SOL    HW135679   2.543   7.585  13.162 -0.4180  0.2032 -0.4242
 8583SOL    HW235680   2.652   7.483  13.137 -0.3456  0.0134  0.6054
 8584SOL     OW35681   8.865   8.178   2.414 -0.5272  0.8243  0.4090
 8584SOL    HW135682   8.950   8.146   2.384 -0.9072 -1.2450  1.3017
 8584SOL    HW235683   8.808   8.170   2.338 -0.2621  0.7719  0.2146
 8585SOL     OW35684   1.613   6.476   3.569 -0.2523  0.0565 -0.4121
 8585SOL    HW135685   1.589   6.550   3.513  0.7246  1.2715  0.7034
 8585SOL    HW235686   1.633   6.516   3.654 -0.1351 -1.5514  0.3579
 8586SOL     OW35687   7.401   1.160   3.099  0.1203  0.0003  0.4147
 8586SOL    HW135688   7.413   1.239   3.151  0.7044 -0.0126  0.3082
 8586SOL    HW235689   7.467   1.098   3.132  1.0618  0.2675 -0.8436
 8587SOL     OW35690  12.000  13.202   7.391 -0.1288 -1.0193 -0.0909
 8587SOL    HW135691  11.927  13.263   7.379  0.8059 -0.0502 -0.9477
 8587SOL    HW235692  11.958  13.116   7.394 -1.3101 -0.4812 -0.5941
 8588SOL     OW35693  13.078   6.287   7.271 -0.2215  0.0714 -0.4044
 8588SOL    HW135694  13.074   6.345   7.348 -0.2599 -1.4400  0.7887
 8588SOL    HW235695  13.053   6.201   7.305 -0.9712 -0.5024 -2.2852
 8589SOL     OW35696  11.524   7.815   9.413  0.3751  0.2500  0.2491
 8589SOL    HW135697  11.609   7.858   9.420  0.0333  0.8317  0.8889
 8589SOL    HW235698  11.463   7.885   9.392 -0.2154  0.1241  1.4837
 8590SOL     OW35699   0.499   7.861   6.040 -1.4006  0.3794  0.0154
 8590SOL    HW135700   0.594   7.871   6.036 -1.4712  1.0390 -0.0915
 8590SOL    HW235701   0.466   7.950   6.052 -1.9680  0.0804  0.7387
 8591SOL     OW35702   6.546  11.720  10.158  0.1245 -0.2212 -0.8254
 8591SOL    HW135703   6.547  11.706  10.253 -0.3096 -1.0537 -0.9393
 8591SOL    HW235704   6.469  11.671  10.127 -0.6079  1.2326 -1.4217
 8592SOL     OW35705   3.761   4.167  11.277  0.5779  0.5742  0.1732
 8592SOL    HW135706   3.688   4.166  11.215 -0.2802 -2.2881  1.1062
 8592SOL    HW235707   3.721   4.186  11.362  1.2349  0.9360  0.4135
 8593SOL     OW35708   6.259  12.583   8.969  0.2754  0.4130 -0.1231
 8593SOL    HW135709   6.180  12.544   8.930  1.4810 -1.9577 -0.3780
 8593SOL    HW235710   6.227  12.630   9.046 -1.4091 -0.4159 -0.2726
 8594SOL     OW35711   0.408   6.265   8.110 -0.2358 -0.0066 -0.4892
 8594SOL    HW135712   0.345   6.277   8.181  0.8039  0.7500  0.3286
 8594SOL    HW235713   0.488   6.235   8.153  0.2706 -0.0133 -1.4026
 8595SOL     OW35714  10.779   5.956   2.793 -0.7817  0.2533  0.0701
 8595SOL    HW135715  10.840   5.888   2.822 -0.4677 -0.1763 -1.4948
 8595SOL    HW235716  10.762   5.934   2.701 -2.8154  0.7314  0.3076
 8596SOL     OW35717   1.072   8.427   2.221  0.3456 -0.4067 -0.0923
 8596SOL    HW135718   1.004   8.490   2.246  0.0944 -1.0520  0.8787
 8596SOL    HW235719   1.025   8.358   2.174  0.5745 -0.0413 -0.8694
 8597SOL     OW35720   2.095  10.548   5.421  0.2247  0.2089 -0.0649
 8597SOL    HW135721   2.055  10.634   5.431  0.5035  0.2199  1.0368
 8597SOL    HW235722   2.104  10.537   5.326 -0.0143  1.2915 -0.2272
 8598SOL     OW35723   9.172   5.316   3.572 -0.2647  0.2803 -0.1561
 8598SOL    HW135724   9.135   5.388   3.625 -1.0951 -0.9627  1.0424
 8598SOL    HW235725   9.100   5.254   3.564  0.4293 -0.4114 -1.1960
 8599SOL     OW35726  13.166   3.651   2.907 -0.0259  0.5214  0.0009
 8599SOL    HW135727  13.209   3.735   2.925  0.9836  0.1926 -0.7943
 8599SOL    HW235728  13.072   3.671   2.909  0.1991  1.9954 -1.5656
 8600SOL     OW35729   7.585   4.088   1.554 -0.0446 -0.1614  0.0194
 8600SOL    HW135730   7.640   4.012   1.574 -1.6520 -1.3864  0.0150
 8600SOL    HW235731   7.599   4.148   1.627  2.7697  0.5103 -0.9294
 8601SOL     OW35732   5.313   5.840   4.849 -0.2392  0.1097 -0.3551
 8601SOL    HW135733   5.295   5.912   4.789  1.9123  2.0729  1.1897
 8601SOL    HW235734   5.274   5.868   4.932  0.8282 -0.3683  0.3263
 8602SOL     OW35735  12.489   3.094  10.538 -0.3196  0.0881  0.1559
 8602SOL    HW135736  12.394   3.098  10.524 -0.2916 -0.8779 -0.3335
 8602SOL    HW235737  12.513   3.003  10.521  0.3715 -0.2196  2.3952
 8603SOL     OW35738   3.897  12.405  11.877 -0.1056  0.0754 -0.2896
 8603SOL    HW135739   3.820  12.461  11.883 -0.1113 -0.0452  1.0657
 8603SOL    HW235740   3.911  12.392  11.783 -1.3409  0.6304 -0.5607
 8604SOL     OW35741   4.834   9.578   5.046 -0.2516 -0.4750 -0.1778
 8604SOL    HW135742   4.742   9.578   5.021 -0.4408  3.2538  0.0449
 8604SOL    HW235743   4.881   9.603   4.967  0.3151 -0.0308  0.2861
 8605SOL     OW35744   7.978   7.790   3.636 -0.2081  0.2102  0.7214
 8605SOL    HW135745   7.989   7.710   3.688  1.0105 -0.0447  0.1048
 8605SOL    HW235746   7.968   7.860   3.700  1.4393 -0.0750  1.3264
 8606SOL     OW35747   8.637   9.852   4.013  0.0986 -0.4698  0.2466
 8606SOL    HW135748   8.679   9.766   4.005  2.0797  0.3720  0.7736
 8606SOL    HW235749   8.618   9.860   4.106  0.2340 -0.2040  0.2515
 8607SOL     OW35750   6.339   4.104   0.759 -0.1642  0.3750  0.1971
 8607SOL    HW135751   6.253   4.141   0.780 -1.9224 -3.7596  1.3301
 8607SOL    HW235752   6.329   4.072   0.669  0.4321  0.4486  0.1053
 8608SOL     OW35753  11.722   8.515   6.805 -0.9230  0.4688  0.8149
 8608SOL    HW135754  11.778   8.592   6.807 -1.4131  0.8303  0.9833
 8608SOL    HW235755  11.743   8.471   6.722 -1.3536  1.3318  0.2394
 8609SOL     OW35756   9.386   4.005  12.954  0.1113  0.0782  0.4264
 8609SOL    HW135757   9.312   3.953  12.983 -1.5020  2.1643  0.2913
 8609SOL    HW235758   9.425   3.955  12.883 -1.4446 -0.8564  0.1930
 8610SOL     OW35759   5.422  12.917  11.116  0.1091 -0.1184  0.5761
 8610SOL    HW135760   5.436  12.889  11.206  2.2557  0.2619  0.4210
 8610SOL    HW235761   5.328  12.907  11.101 -0.5481  1.1334  3.2925
 8611SOL     OW35762  11.580   9.362  10.804 -0.4306  0.8596  0.4659
 8611SOL    HW135763  11.656   9.376  10.747  0.0991  1.1014  1.2072
 8611SOL    HW235764  11.585   9.269  10.829  0.1690  1.0903  1.2532
 8612SOL     OW35765   6.498  10.671   7.609 -0.2238  0.6070 -0.2029
 8612SOL    HW135766   6.515  10.721   7.689  0.4675  0.6325 -0.3654
 8612SOL    HW235767   6.417  10.709   7.574 -0.1925  1.0105  0.1541
 8613SOL     OW35768   9.180  11.389   4.978  0.3882  0.4471 -0.0297
 8613SOL    HW135769   9.180  11.296   4.954  1.7431  0.1615  0.9704
 8613SOL    HW235770   9.262  11.401   5.027  0.8367  2.4299 -1.1596
 8614SOL     OW35771   8.882  11.246   8.446 -0.0682 -0.4410  0.0566
 8614SOL    HW135772   8.841  11.327   8.477  3.1597  1.8070 -1.0324
 8614SOL    HW235773   8.809  11.185   8.436 -2.5567  1.9772  1.8615
 8615SOL     OW35774   0.162   5.031  10.078 -0.4121 -0.3198 -0.1108
 8615SOL    HW135775   0.106   4.959  10.107 -0.3660 -0.2000  0.2760
 8615SOL    HW235776   0.105   5.086  10.024 -1.8088  1.8659  3.2476
 8616SOL     OW35777   8.690   9.701   2.525 -0.1019  0.4155  0.2395
 8616SOL    HW135778   8.685   9.634   2.456  0.6225  0.0244  0.5560
 8616SOL    HW235779   8.657   9.656   2.603  0.6213  0.3390  0.5091
 8617SOL     OW35780   0.861   7.631  11.403  0.2882 -0.8184 -0.0885
 8617SOL    HW135781   0.922   7.704  11.401 -0.2832 -0.2700  1.1719
 8617SOL    HW235782   0.856   7.601  11.313  0.2219  0.9775 -0.7176
 8618SOL     OW35783   1.124   2.913   8.422 -0.0164  0.6051  0.0589
 8618SOL    HW135784   1.133   2.847   8.490 -1.0371  0.0027 -0.3613
 8618SOL    HW235785   1.066   2.979   8.460 -0.4756  0.3367 -0.1596
 8619SOL     OW35786   1.523   9.144   2.945  0.3974 -0.0746 -0.7707
 8619SOL    HW135787   1.531   9.099   3.029  0.8526  0.3430 -0.5875
 8619SOL    HW235788   1.609   9.182   2.929  0.7843 -1.3949 -2.1499
 8620SOL     OW35789   6.270   2.787  12.748  0.2300  0.1344 -0.3294
 8620SOL    HW135790   6.262   2.819  12.658  1.7797 -2.0084 -1.3148
 8620SOL    HW235791   6.343   2.726  12.745  0.1795 -0.1584  2.3703
 8621SOL     OW35792   2.600   7.513  10.688 -0.0160  0.3841 -0.1341
 8621SOL    HW135793   2.544   7.542  10.760  1.3053  2.8468  0.0036
 8621SOL    HW235794   2.623   7.594  10.641  1.5669 -0.8052 -1.5339
 8622SOL     OW35795   2.508  10.503  11.436  0.4391 -0.4696 -0.2062
 8622SOL    HW135796   2.502  10.569  11.505  0.0789 -1.3399  0.6083
 8622SOL    HW235797   2.542  10.551  11.360  1.5187  0.3607  0.7614
 8623SOL     OW35798   3.106   2.327   7.312  0.2307  0.1852  0.1127
 8623SOL    HW135799   3.062   2.289   7.235  0.4654 -2.2957  1.1073
 8623SOL    HW235800   3.199   2.326   7.290  0.2212  0.4032  0.0604
 8624SOL     OW35801  12.166   3.987  12.655  0.1218 -0.1669 -0.0076
 8624SOL    HW135802  12.174   4.063  12.712  0.5298  0.0554 -0.3530
 8624SOL    HW235803  12.104   3.929  12.700 -1.4649  1.0735 -0.5449
 8625SOL     OW35804   5.952   2.293   3.502  0.0815 -0.0710  0.0166
 8625SOL    HW135805   5.928   2.251   3.585  0.1360 -0.6122 -0.2336
 8625SOL    HW235806   5.894   2.369   3.495 -0.0455 -0.1246  0.4650
 8626SOL     OW35807   7.990  10.328   0.457  0.3756 -0.5494 -0.2105
 8626SOL    HW135808   8.040  10.290   0.528  2.6564  2.8230  0.2551
 8626SOL    HW235809   7.925  10.384   0.500  1.5741  1.2820 -0.6727
 8627SOL     OW35810   1.666   3.763  10.394  0.2288  0.3110 -0.5367
 8627SOL    HW135811   1.587   3.800  10.354 -0.8524  0.6562  1.7873
 8627SOL    HW235812   1.712   3.839  10.429  0.7643 -0.0549 -0.4404
 8628SOL     OW35813   1.719   8.316   7.894 -0.7298  0.6164 -0.1834
 8628SOL    HW135814   1.681   8.339   7.809 -0.1123 -0.0545 -0.6600
 8628SOL    HW235815   1.720   8.220   7.894 -0.7172  0.6141  0.5831
 8629SOL     OW35816   9.894   3.108   0.240  0.6177 -0.2313  0.2353
 8629SOL    HW135817   9.849   3.180   0.282  2.0680  1.4252 -0.8659
 8629SOL    HW235818   9.868   3.114   0.148  1.9623 -0.0703 -0.1625
 8630SOL     OW35819   6.576   1.966  10.539  0.0898  0.0187  0.5159
 8630SOL    HW135820   6.526   2.047  10.533 -0.4940 -0.3244  0.7652
 8630SOL    HW235821   6.549   1.926  10.622 -2.3526 -2.2152 -1.1785
 8631SOL     OW35822  10.554   4.415   9.994  0.2981 -0.2173 -0.5919
 8631SOL    HW135823  10.525   4.347   9.934  2.2719 -0.0170 -1.8499
 8631SOL    HW235824  10.556   4.372  10.080 -1.3535 -0.8537 -0.8488
 8632SOL     OW35825   2.839   0.767   5.143 -0.0961 -0.0089 -0.3093
 8632SOL    HW135826   2.910   0.789   5.082  0.7104  1.9500  1.2330
 8632SOL    HW235827   2.884   0.741   5.223 -1.0822  1.3467  0.7262
 8633SOL     OW35828   4.364   6.155   5.478 -0.1253  0.4840 -0.4810
 8633SOL    HW135829   4.376   6.248   5.499  1.2749 -0.5982  4.9263
 8633SOL    HW235830   4.451   6.124   5.454  0.2527 -0.0681  1.4639
 8634SOL     OW35831   6.942  11.400   4.036 -0.1411 -0.0118  0.6271
 8634SOL    HW135832   6.951  11.442   3.951 -0.9668  1.2059  1.1121
 8634SOL    HW235833   6.933  11.307   4.016 -0.9999  0.3198 -0.6690
 8635SOL     OW35834   2.828   4.523   8.205  0.0376  0.1598  0.1089
 8635SOL    HW135835   2.921   4.542   8.198  0.1956 -0.9002 -1.0380
 8635SOL    HW235836   2.822   4.454   8.271  0.0651  0.2422  0.1977
 8636SOL     OW35837  10.074  11.194   6.418  0.5758  0.1705 -0.3705
 8636SOL    HW135838  10.054  11.123   6.479  0.7782  1.0274  0.7095
 8636SOL    HW235839  10.018  11.176   6.342 -0.3505 -0.4039  0.4313
 8637SOL     OW35840   9.550   0.735  13.251  0.3114 -0.0853  0.0010
 8637SOL    HW135841   9.501   0.808  13.287 -0.0133  0.5896 -1.6931
 8637SOL    HW235842   9.504   0.657  13.281 -2.1226  0.5232 -1.8331
 8638SOL     OW35843  12.432   5.848   0.399  0.1833 -0.0301 -0.0260
 8638SOL    HW135844  12.385   5.906   0.338  0.4126  0.9794  0.7357
 8638SOL    HW235845  12.449   5.903   0.475 -1.7804 -1.7582  1.7878
 8639SOL     OW35846   5.564   0.367  13.127 -0.2123 -0.0358 -0.0675
 8639SOL    HW135847   5.581   0.336  13.038 -0.6440  1.3786 -0.6839
 8639SOL    HW235848   5.608   0.452  13.131 -0.7090  0.1893  0.8700
 8640SOL     OW35849   3.594   0.768   7.338  0.2976  0.3593  0.1205
 8640SOL    HW135850   3.601   0.694   7.278  0.7279  0.7557 -0.3257
 8640SOL    HW235851   3.570   0.842   7.283  0.6443  0.7153  0.4384
 8641SOL     OW35852   5.505  11.313   0.556  0.1572 -0.2599 -0.4344
 8641SOL    HW135853   5.519  11.378   0.625 -2.5437  1.7792 -1.6095
 8641SOL    HW235854   5.501  11.364   0.475 -0.8054 -2.0518 -1.5866
 8642SOL     OW35855   9.431   5.644  10.905  0.0870 -0.2020 -0.0943
 8642SOL    HW135856   9.379   5.725  10.908  0.2820 -0.0764 -0.0788
 8642SOL    HW235857   9.479   5.643  10.988 -0.3378 -0.6219  0.1544
 8643SOL     OW35858   1.398   7.691   9.121  0.2665 -0.1203 -0.3111
 8643SOL    HW135859   1.399   7.619   9.183  0.8583 -0.1123 -0.2982
 8643SOL    HW235860   1.386   7.769   9.175 -1.3509 -0.2656 -0.4127
 8644SOL     OW35861   3.027  11.863   6.546  0.2510 -0.1016 -0.5229
 8644SOL    HW135862   2.953  11.822   6.590  1.2197  0.7966  2.1200
 8644SOL    HW235863   2.989  11.930   6.490 -1.0677 -1.7015 -1.6216
 8645SOL     OW35864  11.068   8.790   9.948  0.2199 -0.1260  0.0465
 8645SOL    HW135865  10.980   8.818   9.973  0.7178  1.2676  0.3430
 8645SOL    HW235866  11.071   8.803   9.853  0.9000  2.3629  0.3339
 8646SOL     OW35867  12.668  11.590   8.987 -0.3964  0.4094 -0.6233
 8646SOL    HW135868  12.673  11.681   9.014  1.2079  0.9824 -2.6074
 8646SOL    HW235869  12.636  11.593   8.897  0.8805 -0.8486 -1.1731
 8647SOL     OW35870  10.330   9.218   3.398  0.2341  0.3712  0.0031
 8647SOL    HW135871  10.273   9.284   3.356 -1.6984 -1.3252 -0.1875
 8647SOL    HW235872  10.272   9.144   3.415  1.9615 -0.6506  1.7862
 8648SOL     OW35873   9.394   9.119   3.011 -0.2688 -0.3347 -0.0634
 8648SOL    HW135874   9.372   9.032   2.977  0.1534 -0.3652 -0.2614
 8648SOL    HW235875   9.435   9.101   3.096  0.1017 -0.3443 -0.2457
 8649SOL     OW35876   7.713   6.319  12.043 -0.1349 -0.7162 -0.5205
 8649SOL    HW135877   7.727   6.408  12.012 -2.1252 -0.1406  0.0687
 8649SOL    HW235878   7.689   6.270  11.964  0.5045 -0.6286 -0.7725
 8650SOL     OW35879   7.642   7.633   2.517 -0.3503  0.8226 -0.4945
 8650SOL    HW135880   7.596   7.658   2.437  0.1025  3.0664 -0.1296
 8650SOL    HW235881   7.734   7.635   2.493 -0.2657 -0.0027 -0.2766
 8651SOL     OW35882   8.852   5.375   0.391  0.5501 -0.2358  0.3190
 8651SOL    HW135883   8.762   5.348   0.408  0.1009  0.4063 -0.8865
 8651SOL    HW235884   8.846   5.469   0.372  1.7443  0.2526  2.0912
 8652SOL     OW35885   9.016  10.539  11.837 -0.0817 -0.4680 -0.1886
 8652SOL    HW135886   9.007  10.449  11.870 -1.2674 -0.2227  0.2148
 8652SOL    HW235887   9.077  10.581  11.897 -0.6183 -0.6123  0.4651
 8653SOL     OW35888  12.406   5.242   1.558 -0.4632 -0.5803  0.8289
 8653SOL    HW135889  12.349   5.170   1.584 -1.1743 -0.3944 -0.1879
 8653SOL    HW235890  12.401   5.243   1.463  0.5525  0.0043  0.7708
 8654SOL     OW35891   1.531   0.261   9.257  0.1338  0.0788  0.0465
 8654SOL    HW135892   1.445   0.269   9.216 -0.7733  1.2661  2.0644
 8654SOL    HW235893   1.521   0.191   9.321  0.5971  0.4267  0.5026
 8655SOL     OW35894  10.352  10.457  13.106  0.7153  0.2075  0.4962
 8655SOL    HW135895  10.357  10.433  13.199  1.4907  0.5453  0.5492
 8655SOL    HW235896  10.437  10.432  13.071  0.7768  0.9725  0.0938
 8656SOL     OW35897   7.510  11.827  12.701  0.1218  0.4114  0.0299
 8656SOL    HW135898   7.547  11.803  12.616  0.5683 -0.9377  0.5881
 8656SOL    HW235899   7.476  11.745  12.737  0.7145  0.7834  1.5238
 8657SOL     OW35900  13.121   8.494   3.409  0.7465 -0.0960  0.4357
 8657SOL    HW135901  13.046   8.544   3.441  0.6315  1.1972 -1.6342
 8657SOL    HW235902  13.176   8.482   3.485 -0.3694  1.1621  1.5023
 8658SOL     OW35903   6.950  11.482   3.772  0.3148 -0.1622 -0.3059
 8658SOL    HW135904   6.916  11.436   3.695  0.5914 -0.6441 -0.1448
 8658SOL    HW235905   7.044  11.488   3.756  0.2833  0.3409 -0.3188
 8659SOL     OW35906   5.022   2.990   8.957 -0.0808  0.1775  0.1649
 8659SOL    HW135907   4.946   2.952   8.913  0.3461 -0.6313  0.1163
 8659SOL    HW235908   5.026   2.945   9.041  0.8926 -0.4755 -0.2118
 8660SOL     OW35909   4.498   0.977   3.002 -0.0683  0.3900  0.1658
 8660SOL    HW135910   4.478   1.033   2.926 -0.4840 -1.7837 -1.4021
 8660SOL    HW235911   4.590   0.951   2.989 -0.2638 -0.3195  0.1819
 8661SOL     OW35912   0.124   1.249   2.357  0.3898  0.2128  0.7000
 8661SOL    HW135913   0.181   1.226   2.284  1.3766  1.6044  0.9878
 8661SOL    HW235914   0.051   1.295   2.317  1.2190  1.4949  0.6049
 8662SOL     OW35915   4.486   1.967  11.870 -0.4434  0.2221 -0.1092
 8662SOL    HW135916   4.420   1.931  11.811  0.3052 -1.1381 -0.1709
 8662SOL    HW235917   4.561   1.909  11.859  0.7262  1.6589  0.0463
 8663SOL     OW35918  11.740   4.379   2.520 -0.4037  0.1661 -0.2453
 8663SOL    HW135919  11.790   4.460   2.511  0.6529 -0.5242 -0.9011
 8663SOL    HW235920  11.673   4.384   2.451  1.7433 -0.9196 -2.5686
 8664SOL     OW35921  10.276  12.492   6.150 -0.5008  0.0664  0.3687
 8664SOL    HW135922  10.226  12.430   6.097  0.8394  0.1349 -1.0585
 8664SOL    HW235923  10.367  12.476   6.126  0.2349 -0.1576  2.9838
 8665SOL     OW35924  11.010   5.038   4.486 -0.2348  0.0979 -0.0598
 8665SOL    HW135925  10.948   5.035   4.559  0.6392 -1.4342  0.7015
 8665SOL    HW235926  11.038   4.947   4.476  2.4473  0.7997  0.1725
 8666SOL     OW35927   1.795   5.040   8.187 -0.0934  0.3657  0.0438
 8666SOL    HW135928   1.748   5.042   8.271  0.5672  2.3559  0.4216
 8666SOL    HW235929   1.887   5.027   8.212  0.1203  1.0850 -0.3495
 8667SOL     OW35930   6.366  12.370   9.400 -0.1065 -0.3437 -0.1730
 8667SOL    HW135931   6.410  12.443   9.355  0.6547 -0.7271 -0.0672
 8667SOL    HW235932   6.280  12.405   9.424 -0.0013  0.3072 -0.7085
 8668SOL     OW35933   7.781  10.918  12.766 -0.6755 -0.3632  0.2387
 8668SOL    HW135934   7.759  10.844  12.822 -2.3904 -0.4038 -0.4138
 8668SOL    HW235935   7.696  10.954  12.740 -0.0027 -0.7602 -2.8801
 8669SOL     OW35936   3.772  12.181  10.385  0.0620  0.3464 -0.0601
 8669SOL    HW135937   3.767  12.096  10.342 -0.2609  0.0416  0.5568
 8669SOL    HW235938   3.764  12.160  10.479 -0.2988  1.0744  0.0761
 8670SOL     OW35939   8.939   5.968   5.313  0.7311 -0.4604  0.2924
 8670SOL    HW135940   9.031   5.981   5.289  0.7467 -2.9095 -1.2449
 8670SOL    HW235941   8.934   5.877   5.340 -1.4079 -0.5953 -0.4245
 8671SOL     OW35942   8.738  10.506  11.565  0.3880  0.1104 -0.3133
 8671SOL    HW135943   8.703  10.454  11.637  0.7832 -1.6594 -1.3408
 8671SOL    HW235944   8.799  10.567  11.607  1.3737 -1.5532  0.8094
 8672SOL     OW35945  13.278   3.846  12.152 -0.3075 -0.4749 -0.2361
 8672SOL    HW135946  13.243   3.894  12.227 -0.5669 -0.0399 -0.6346
 8672SOL    HW235947  13.309   3.763  12.189 -0.1718 -0.1437  0.3969
 8673SOL     OW35948  11.887   9.727   2.353  0.1994  0.1566 -0.0432
 8673SOL    HW135949  11.882   9.713   2.448 -2.3718  0.4933 -0.0642
 8673SOL    HW235950  11.939   9.808   2.344  1.9978 -0.8177  0.9109
 8674SOL     OW35951   3.569   5.773  13.161  0.3928  0.0908  0.1360
 8674SOL    HW135952   3.546   5.706  13.096 -0.9332  0.1634  0.4973
 8674SOL    HW235953   3.583   5.725  13.242  1.5657  0.0521 -0.0721
 8675SOL     OW35954   4.162   0.174  11.198 -0.9034  0.3678  0.6202
 8675SOL    HW135955   4.163   0.164  11.294  0.4357  0.0726  0.6011
 8675SOL    HW235956   4.207   0.096  11.166  0.6462  1.5002 -0.1118
 8676SOL     OW35957  12.297  10.959   9.297  0.0609 -0.5299 -0.2759
 8676SOL    HW135958  12.374  10.964   9.241  0.6115  0.2942  0.5307
 8676SOL    HW235959  12.231  11.012   9.252  0.0694 -0.9663 -0.8028
 8677SOL     OW35960   5.468   7.421   4.476  0.0169  0.4888 -0.5226
 8677SOL    HW135961   5.479   7.428   4.571  0.1275  2.2119 -0.6341
 8677SOL    HW235962   5.556   7.410   4.442  0.2613  2.3605 -0.5747
 8678SOL     OW35963   0.402   5.515   9.951  0.6082 -0.2023 -0.0776
 8678SOL    HW135964   0.470   5.560  10.001 -0.2230  0.1855  0.7228
 8678SOL    HW235965   0.349   5.471  10.018  0.4088 -0.9808 -0.7339
 8679SOL     OW35966   3.841   4.986   8.206  0.5076  0.4560  0.3990
 8679SOL    HW135967   3.889   4.953   8.130  1.0890  2.2905 -0.0748
 8679SOL    HW235968   3.751   4.958   8.191  0.8775 -0.4391 -0.2373
 8680SOL     OW35969   9.966   9.987  10.100  0.1777  0.0486 -0.5989
 8680SOL    HW135970  10.050   9.985  10.145 -1.2312 -0.8715  2.2124
 8680SOL    HW235971   9.946   9.894  10.083 -1.3174  0.0198  1.0181
 8681SOL     OW35972  11.384  10.842   6.291 -0.5991  0.5075 -0.0753
 8681SOL    HW135973  11.315  10.849   6.224 -0.3199  0.0948 -0.4084
 8681SOL    HW235974  11.347  10.783   6.356 -0.7187  0.6082 -0.0500
 8682SOL     OW35975   8.675   7.851  11.599 -0.2556  0.1633 -0.2317
 8682SOL    HW135976   8.708   7.941  11.595  0.4884 -0.1434 -2.0890
 8682SOL    HW235977   8.744   7.803  11.644  0.2923  0.1669 -1.0437
 8683SOL     OW35978   8.551   7.205   6.642 -0.4016 -0.6275 -0.1481
 8683SOL    HW135979   8.618   7.266   6.673 -1.1646 -0.6915  1.7670
 8683SOL    HW235980   8.595   7.152   6.576  1.7860 -1.4459  1.8597
 8684SOL     OW35981   4.308  11.025  10.135  0.1437 -0.0142  0.2445
 8684SOL    HW135982   4.348  10.986  10.057 -1.2302  1.3658 -1.2302
 8684SOL    HW235983   4.264  11.104  10.103  0.7808  1.4375  2.6956
 8685SOL     OW35984   7.113  11.175  11.852 -0.0080 -0.1771 -0.0695
 8685SOL    HW135985   7.062  11.235  11.907 -0.5662  0.0227 -0.8038
 8685SOL    HW235986   7.056  11.155  11.778  0.7927 -0.3351 -0.6583
 8686SOL     OW35987   6.289   3.486  11.558 -0.1783  0.2105  0.0356
 8686SOL    HW135988   6.225   3.476  11.488 -1.3230 -1.8903  1.2886
 8686SOL    HW235989   6.240   3.523  11.631  0.2845 -0.2840  0.6152
 8687SOL     OW35990   9.441   6.476   5.068  0.0475  0.1466 -0.3489
 8687SOL    HW135991   9.349   6.502   5.059 -0.3846  0.0893  2.6821
 8687SOL    HW235992   9.455   6.412   4.999 -1.8771  0.8624 -1.5055
 8688SOL     OW35993   6.999  12.281   0.078 -0.3349 -0.1575 -0.0545
 8688SOL    HW135994   7.009  12.376   0.067 -1.1589 -0.0430  0.1197
 8688SOL    HW235995   6.931  12.272   0.144 -0.7054 -0.8743 -0.5215
 8689SOL     OW35996   8.056   8.375   0.042 -0.2900 -0.1744  0.5312
 8689SOL    HW135997   8.110   8.436   0.093 -0.6046 -0.8573  1.7194
 8689SOL    HW235998   8.117   8.337  -0.021  0.3575 -0.0569  1.0704
 8690SOL     OW35999   8.719  11.170   6.331 -0.0495  0.2311 -0.5581
 8690SOL    HW136000   8.636  11.204   6.366  0.1561 -0.2906  0.4837
 8690SOL    HW236001   8.749  11.108   6.397  1.8477  1.3779 -0.2695
 8691SOL     OW36002   4.566   3.038   1.138  0.0019  0.6051  0.1223
 8691SOL    HW136003   4.599   3.116   1.094  1.3403  1.7472  2.8725
 8691SOL    HW236004   4.644   2.987   1.158 -0.5232  0.1903  1.1951
 8692SOL     OW36005  10.796  11.794  12.724  0.4825 -0.0054  0.1781
 8692SOL    HW136006  10.887  11.802  12.752  0.4224 -2.6156  1.4216
 8692SOL    HW236007  10.776  11.701  12.732 -1.5961  0.1003 -2.4044
 8693SOL     OW36008   1.391   4.002   3.479 -0.6899  0.3690  0.5168
 8693SOL    HW136009   1.332   3.933   3.452  0.0194 -0.5490  1.2302
 8693SOL    HW236010   1.462   4.001   3.415  0.5437 -1.2229  1.7933
 8694SOL     OW36011  13.153  12.860   5.804  0.0180  0.2897  0.0277
 8694SOL    HW136012  13.159  12.792   5.871  1.0610  0.9814  0.6785
 8694SOL    HW236013  13.118  12.936   5.851  0.8558  0.8123 -0.1632
 8695SOL     OW36014   4.046   8.153   2.636  0.3754 -0.3589  0.0839
 8695SOL    HW136015   4.105   8.164   2.711 -2.1087  0.2526  2.1152
 8695SOL    HW236016   4.073   8.221   2.574  2.5841 -0.9678  0.2998
 8696SOL     OW36017  13.006   3.504   9.886 -0.2119  0.2277  0.0330
 8696SOL    HW136018  13.054   3.501   9.803 -0.7446 -0.0445 -0.2717
 8696SOL    HW236019  13.074   3.516   9.952  0.6314 -2.9405 -0.0850
 8697SOL     OW36020  12.371   4.708   4.884 -0.3379 -0.0594  0.6096
 8697SOL    HW136021  12.317   4.785   4.901  1.5201  1.2752  0.7272
 8697SOL    HW236022  12.359   4.652   4.961 -1.0748  0.4734  0.8896
 8698SOL     OW36023   8.755   8.349  10.413  0.3321  0.4578  0.2540
 8698SOL    HW136024   8.668   8.373  10.383  0.1585 -2.5741 -2.1609
 8698SOL    HW236025   8.743   8.265  10.458  2.0443 -0.5991 -1.1151
 8699SOL     OW36026   6.690   2.467   8.093  0.0132 -0.9662  0.1938
 8699SOL    HW136027   6.742   2.402   8.047  0.1984 -0.4760 -0.3072
 8699SOL    HW236028   6.708   2.549   8.046 -2.6868 -1.0805 -1.2752
 8700SOL     OW36029   0.758   2.571   9.169  0.0588 -0.3372  0.3236
 8700SOL    HW136030   0.780   2.490   9.124  1.2269  0.0491  0.1644
 8700SOL    HW236031   0.739   2.545   9.259  1.1463 -0.7203  0.4594
 8701SOL     OW36032   8.362   6.529   2.704 -0.2810  0.2046  0.2798
 8701SOL    HW136033   8.456   6.510   2.702 -0.0746  1.2696 -0.3457
 8701SOL    HW236034   8.327   6.463   2.764  0.6932 -0.9025 -0.3238
 8702SOL     OW36035  11.920   7.010   6.122 -0.1157 -0.0854  0.1155
 8702SOL    HW136036  11.994   6.968   6.166 -0.2748 -1.1599 -0.6056
 8702SOL    HW236037  11.859   6.938   6.103 -1.3044  0.7635  0.5887
 8703SOL     OW36038   6.044   1.063  11.099 -0.1336 -0.2561  0.2777
 8703SOL    HW136039   5.993   0.983  11.112 -2.1294  0.9498  0.1959
 8703SOL    HW236040   5.982   1.126  11.064  1.1885  1.6096  1.1366
 8704SOL     OW36041   9.158   9.559   7.013 -0.8417 -0.0311  0.4273
 8704SOL    HW136042   9.140   9.467   7.032 -1.1718 -0.0249  0.1435
 8704SOL    HW236043   9.141   9.569   6.919 -0.5096  0.2488  0.3899
 8705SOL     OW36044  13.038  12.133   2.352 -0.3302  0.8898  0.3426
 8705SOL    HW136045  13.100  12.061   2.343 -1.1507  0.2943 -0.7731
 8705SOL    HW236046  13.088  12.211   2.329 -0.1319  0.3475 -1.1423
 8706SOL     OW36047   5.617   0.303   3.651 -0.0842 -0.5711 -0.0506
 8706SOL    HW136048   5.647   0.394   3.658 -0.7852 -0.4259  1.7732
 8706SOL    HW236049   5.580   0.283   3.738 -3.1136 -1.4687 -1.3838
 8707SOL     OW36050  12.429   2.727   3.723 -0.3117  0.9787  0.4193
 8707SOL    HW136051  12.417   2.820   3.709 -1.1221  0.8613  0.2955
 8707SOL    HW236052  12.479   2.698   3.647 -0.8216  1.1584  0.0094
 8708SOL     OW36053   8.856  10.677   8.113 -0.2028  0.2606  0.1874
 8708SOL    HW136054   8.947  10.672   8.084 -1.0311  1.7435 -3.0330
 8708SOL    HW236055   8.843  10.769   8.135 -0.9248  0.0547  0.6426
 8709SOL     OW36056  12.019   4.412   4.498 -0.4444  0.5060 -0.6348
 8709SOL    HW136057  11.940   4.385   4.546  0.7936 -0.7355  0.8102
 8709SOL    HW236058  12.015   4.361   4.417  0.2632 -1.8594  0.6949
 8710SOL     OW36059   0.248   6.095   9.086  0.1625 -0.2152 -0.0586
 8710SOL    HW136060   0.254   6.141   9.170 -2.6641  0.2750 -0.0432
 8710SOL    HW236061   0.194   6.018   9.104  1.4913 -1.4276 -0.9801
 8711SOL     OW36062   0.459  13.226   1.651  0.1050  0.0687  0.6468
 8711SOL    HW136063   0.478  13.307   1.603  0.7076 -0.2137  0.3984
 8711SOL    HW236064   0.422  13.167   1.585 -0.1562  0.0754  0.7866
 8712SOL     OW36065   6.403   1.113   7.215 -0.1555  0.3868  0.0096
 8712SOL    HW136066   6.383   1.118   7.308 -3.9090  5.0370 -0.6159
 8712SOL    HW236067   6.327   1.069   7.177  0.5966 -0.0837 -0.9738
 8713SOL     OW36068   3.806   7.060   1.000 -0.2120  0.0824 -0.0156
 8713SOL    HW136069   3.841   7.140   1.040  1.5980 -0.4897 -0.3694
 8713SOL    HW236070   3.827   6.990   1.062 -1.5316 -0.1857  0.1588
 8714SOL     OW36071   3.387   4.482   3.964  0.0567 -0.4117  0.1466
 8714SOL    HW136072   3.325   4.481   3.891 -1.0973 -2.3238  1.0525
 8714SOL    HW236073   3.458   4.425   3.937  0.7159  0.6020 -0.3058
 8715SOL     OW36074   3.783   6.395  10.545  0.2787  1.0113  0.4082
 8715SOL    HW136075   3.702   6.343  10.543  0.3952  0.8203  0.6153
 8715SOL    HW236076   3.805   6.409  10.453 -1.2888  3.0742  0.2746
 8716SOL     OW36077   9.531   0.665   2.041 -0.0533  0.1222 -0.3819
 8716SOL    HW136078   9.501   0.581   2.077  0.5618 -0.2465 -0.7107
 8716SOL    HW236079   9.494   0.731   2.100 -1.2113 -0.3279 -0.5694
 8717SOL     OW36080   2.615  12.946   1.757 -0.3539  0.3956  0.1692
 8717SOL    HW136081   2.670  12.868   1.761 -0.0863  0.5645 -0.1930
 8717SOL    HW236082   2.527  12.912   1.736 -0.1753  0.2193 -0.3038
 8718SOL     OW36083  10.772   7.138   5.176  0.4314 -0.5050 -0.0921
 8718SOL    HW136084  10.723   7.137   5.258 -0.6452 -0.4017 -0.7128
 8718SOL    HW236085  10.777   7.231   5.152 -1.4077 -0.6661 -1.3494
 8719SOL     OW36086   2.259   3.625  12.963 -0.0211 -0.3453  0.3720
 8719SOL    HW136087   2.287   3.713  12.986  4.5841 -1.3869 -0.2318
 8719SOL    HW236088   2.202   3.636  12.888 -2.2716  2.1636  2.2646
 8720SOL     OW36089   6.039   3.421   2.029  0.1802  0.0281 -0.5149
 8720SOL    HW136090   6.056   3.456   1.942 -0.8650 -1.8249 -1.5395
 8720SOL    HW236091   6.111   3.359   2.045 -0.2417 -0.4804 -0.5645
 8721SOL     OW36092   8.216   4.015  11.904  0.1235  0.3196  0.3949
 8721SOL    HW136093   8.171   3.990  11.824  0.9698  1.2092 -0.3933
 8721SOL    HW236094   8.167   3.973  11.974 -1.9627  1.3141 -0.3958
 8722SOL     OW36095   0.749   0.666  12.072 -0.5082  0.0002  0.0665
 8722SOL    HW136096   0.701   0.657  12.154  1.4943 -0.9217  1.2263
 8722SOL    HW236097   0.729   0.587  12.023  0.8720 -1.0730  1.1672
 8723SOL     OW36098  13.195   7.371   4.821 -0.4458 -0.7455  0.0634
 8723SOL    HW136099  13.243   7.325   4.889 -0.5322 -0.8860  0.0313
 8723SOL    HW236100  13.246   7.356   4.741  0.2820  0.3909  0.2993
 8724SOL     OW36101   8.971  12.554   7.317 -0.1937  0.6117 -0.1955
 8724SOL    HW136102   8.906  12.542   7.386 -0.8570 -1.7570 -1.1183
 8724SOL    HW236103   8.920  12.576   7.240  0.2904  0.6875 -0.4963
 8725SOL     OW36104   2.212   6.900   4.411 -0.7693  0.4421 -0.5043
 8725SOL    HW136105   2.164   6.980   4.432 -1.0182  0.6020 -1.6518
 8725SOL    HW236106   2.167   6.832   4.461 -1.0690  0.8769 -0.1732
 8726SOL     OW36107   2.075   3.199   8.960  0.3890  0.3816  0.5683
 8726SOL    HW136108   2.003   3.194   9.023 -0.3633  0.9804 -0.2261
 8726SOL    HW236109   2.118   3.282   8.979 -1.0296  1.5154 -0.9261
 8727SOL     OW36110   8.603   2.199   8.105  0.3605  0.0918  0.0507
 8727SOL    HW136111   8.570   2.109   8.106 -0.8683  0.4709  2.5596
 8727SOL    HW236112   8.558   2.240   8.031 -0.1362 -0.9852 -0.2720
 8728SOL     OW36113   8.084   6.428   1.271 -0.0252  0.0861 -0.1405
 8728SOL    HW136114   8.170   6.442   1.311  0.2538 -1.6580 -0.0832
 8728SOL    HW236115   8.095   6.455   1.179  0.9059 -1.1678 -0.4089
 8729SOL     OW36116  10.676   7.791   2.244  0.3509  0.0350  0.3440
 8729SOL    HW136117  10.598   7.736   2.257  0.8109 -0.4330  1.2051
 8729SOL    HW236118  10.747   7.742   2.286  1.2961  0.0378 -1.1940
 8730SOL     OW36119  10.692   2.890   2.183 -0.5023 -0.1954 -0.3864
 8730SOL    HW136120  10.661   2.907   2.272 -0.3019  2.1449 -0.6880
 8730SOL    HW236121  10.623   2.837   2.143 -1.2240 -0.1551  0.7464
 8731SOL     OW36122  12.053   9.198   9.180  0.1757 -0.3383  0.7178
 8731SOL    HW136123  12.076   9.289   9.199  0.6072 -0.4335  0.6432
 8731SOL    HW236124  12.136   9.155   9.164 -0.1160 -0.3970 -0.7821
 8732SOL     OW36125  10.265   9.118   7.849 -0.4208  0.3747  0.0920
 8732SOL    HW136126  10.244   9.029   7.878  1.8005 -0.3928 -0.4637
 8732SOL    HW236127  10.283   9.166   7.930  3.0569 -1.0350  0.3649
 8733SOL     OW36128   5.632   4.603   0.807 -0.0000 -0.2004 -0.4935
 8733SOL    HW136129   5.722   4.627   0.831 -0.1093 -0.0380 -0.2391
 8733SOL    HW236130   5.626   4.624   0.714 -0.0047  0.5011 -0.3399
 8734SOL     OW36131   3.085  12.458   8.931  0.2962 -0.0590  0.0046
 8734SOL    HW136132   2.993  12.486   8.932  1.0677  2.6779  1.0168
 8734SOL    HW236133   3.103  12.438   8.839 -0.8375  1.1275 -0.5030
 8735SOL     OW36134   6.548   1.134   4.502  0.0039 -0.2254  0.1051
 8735SOL    HW136135   6.469   1.089   4.472 -1.5716  0.5708  2.7934
 8735SOL    HW236136   6.540   1.223   4.468  0.9159 -0.6815 -1.4448
 8736SOL     OW36137   6.408   2.576   4.669 -0.0790 -0.9962 -0.6163
 8736SOL    HW136138   6.497   2.542   4.675  0.4029  0.3203  0.2473
 8736SOL    HW236139   6.352   2.500   4.684  0.9405 -1.5750  0.4203
 8737SOL     OW36140   8.455  12.427   5.782  0.3176 -0.2717 -0.7036
 8737SOL    HW136141   8.505  12.471   5.852  0.6252 -1.1985 -0.3348
 8737SOL    HW236142   8.496  12.457   5.701  1.3311 -0.8389 -0.4123
 8738SOL     OW36143   9.326   7.680   5.456  0.0776  0.1791  0.0157
 8738SOL    HW136144   9.268   7.724   5.518  0.3935 -0.5265  0.8396
 8738SOL    HW236145   9.411   7.680   5.501  0.4298  0.0993 -0.6446
 8739SOL     OW36146  12.009   2.704   9.498  0.2229 -0.0629 -0.0623
 8739SOL    HW136147  12.091   2.655   9.490 -0.1103 -0.6239 -0.1169
 8739SOL    HW236148  11.977   2.682   9.585 -0.1355 -0.2673 -0.2457
 8740SOL     OW36149   6.149  11.983   0.415 -0.1541  0.4074  0.1028
 8740SOL    HW136150   6.139  12.048   0.484  3.3200  1.4828 -0.1802
 8740SOL    HW236151   6.233  11.941   0.435 -1.1645 -2.3573 -1.0795
 8741SOL     OW36152   5.477   5.229   0.915  0.4103 -0.1366  0.0624
 8741SOL    HW136153   5.513   5.205   0.830  0.2175 -0.3133  0.0297
 8741SOL    HW236154   5.531   5.303   0.944 -1.2308  1.7466 -1.4223
 8742SOL     OW36155   1.785  11.502  10.822 -0.1135  0.0226  0.1837
 8742SOL    HW136156   1.861  11.560  10.819  0.1193 -0.3234 -1.7455
 8742SOL    HW236157   1.726  11.536  10.755 -0.9317 -0.6905  0.5230
 8743SOL     OW36158  11.392   0.221   8.593  0.0980 -0.2157  0.1419
 8743SOL    HW136159  11.381   0.151   8.658 -0.0190  0.2064  0.5810
 8743SOL    HW236160  11.348   0.296   8.632  0.2535  0.1118 -0.3163
 8744SOL     OW36161   3.449   4.667  13.216 -0.2247 -0.3798  0.0366
 8744SOL    HW136162   3.533   4.710  13.229  1.0716 -2.9136  0.6624
 8744SOL    HW236163   3.469   4.593  13.158 -2.0180 -1.0290  0.1870
 8745SOL     OW36164   2.402   9.122   2.655 -0.7299 -0.1640  0.0416
 8745SOL    HW136165   2.471   9.120   2.721 -0.5930  1.0871 -0.0453
 8745SOL    HW236166   2.418   9.044   2.602  0.9024  0.3289 -0.2496
 8746SOL     OW36167   7.373  12.356   3.227  0.4898 -0.0369  0.3304
 8746SOL    HW136168   7.373  12.448   3.200  1.1383 -0.2952 -0.5649
 8746SOL    HW236169   7.297  12.318   3.182  0.9109 -0.2055 -0.2485
 8747SOL     OW36170  13.230  11.927   8.388 -0.4831 -0.5522  0.2111
 8747SOL    HW136171  13.315  11.942   8.429 -0.2361 -0.3957 -0.3492
 8747SOL    HW236172  13.250  11.904   8.298 -1.0288 -0.7451  0.1337
 8748SOL     OW36173   9.411   9.968   7.439 -0.0107  0.2116 -0.1683
 8748SOL    HW136174   9.490  10.006   7.401 -1.3556  1.7313 -1.6165
 8748SOL    HW236175   9.436   9.944   7.528  1.9054  1.2252 -0.3831
 8749SOL     OW36176   9.373  10.573   4.081  0.1800  0.2550 -0.1319
 8749SOL    HW136177   9.421  10.559   4.163  0.9582 -0.0986 -0.6347
 8749SOL    HW236178   9.368  10.486   4.041 -0.6656  0.3330 -0.2167
 8750SOL     OW36179   1.101   8.466   3.530  0.3859  0.1340 -0.2140
 8750SOL    HW136180   1.143   8.498   3.610 -2.4194  0.9405  1.0679
 8750SOL    HW236181   1.021   8.519   3.522 -0.3457 -1.1866 -2.5387
 8751SOL     OW36182  13.050   7.154   4.519 -0.4200  0.0391  0.1447
 8751SOL    HW136183  12.973   7.162   4.463  0.8411  0.7214 -1.5745
 8751SOL    HW236184  13.089   7.069   4.495  0.2468  0.4307 -0.1981
 8752SOL     OW36185   0.482   3.159   5.349 -0.0984 -0.2561  0.3188
 8752SOL    HW136186   0.415   3.208   5.398  0.6205  0.5470  0.5304
 8752SOL    HW236187   0.542   3.226   5.318  0.7880 -0.9947  0.4035
 8753SOL     OW36188   6.034   0.556   3.435  0.3591  0.0308 -0.0887
 8753SOL    HW136189   6.068   0.467   3.428  0.3452  0.1261 -1.7414
 8753SOL    HW236190   5.946   0.545   3.472  1.3943 -0.3500  2.5039
 8754SOL     OW36191  12.135  12.134   4.491  0.3745  0.2421  1.0214
 8754SOL    HW136192  12.216  12.094   4.521 -0.6161 -1.0648  2.0562
 8754SOL    HW236193  12.075  12.128   4.565 -0.8647  0.6486  0.1003
 8755SOL     OW36194   4.393   9.083   7.506  0.5392 -0.2654  0.4765
 8755SOL    HW136195   4.314   9.132   7.482  2.2498  0.6520 -4.3748
 8755SOL    HW236196   4.377   8.994   7.475  1.5958  0.1422 -1.4109
 8756SOL     OW36197   1.273   5.474   0.513 -0.2154  0.4815  0.5064
 8756SOL    HW136198   1.354   5.519   0.535 -0.8481  1.4275  0.9375
 8756SOL    HW236199   1.267   5.403   0.576  0.1783  0.5210  0.5896
 8757SOL     OW36200   3.781   4.058   3.961 -0.3409 -0.0560  0.4296
 8757SOL    HW136201   3.701   4.007   3.972 -0.7683 -0.3030 -2.8558
 8757SOL    HW236202   3.849   3.993   3.939 -0.0560  0.4586 -0.2371
 8758SOL     OW36203  11.027  10.457   1.124 -0.5494 -0.0756  0.1412
 8758SOL    HW136204  11.036  10.418   1.210  0.6451  0.0532  0.0949
 8758SOL    HW236205  11.004  10.549   1.141 -2.1771 -0.4795  0.2674
 8759SOL     OW36206   4.535   1.612   2.142 -0.0377  0.2085  0.0925
 8759SOL    HW136207   4.440   1.608   2.129 -0.0084  0.6623 -0.2655
 8759SOL    HW236208   4.570   1.634   2.056  0.4835 -1.0902 -0.0486
 8760SOL     OW36209  12.701   5.290   7.681 -0.6936  0.5219 -0.1837
 8760SOL    HW136210  12.608   5.304   7.694 -0.6687 -0.2766  0.9600
 8760SOL    HW236211  12.743   5.326   7.759  0.1412  2.4512 -1.4333
 8761SOL     OW36212  10.891  12.732  10.383 -0.0979  0.2927 -0.2298
 8761SOL    HW136213  10.827  12.725  10.313  0.2303 -0.8457 -0.4332
 8761SOL    HW236214  10.884  12.823  10.413 -0.6628  0.6264 -1.3211
 8762SOL     OW36215  12.404   6.677   6.678  0.3817  0.3817  0.4080
 8762SOL    HW136216  12.327   6.629   6.707 -0.1050 -1.5404 -3.3697
 8762SOL    HW236217  12.477   6.617   6.693  0.4931  0.4387  0.1068
 8763SOL     OW36218  11.545   8.700   1.007 -0.5694 -0.5855 -0.4602
 8763SOL    HW136219  11.581   8.787   1.020 -0.3854 -0.8327  0.8075
 8763SOL    HW236220  11.453   8.708   1.032 -0.4844 -0.8099 -0.0562
 8764SOL     OW36221   1.368   1.183   2.339 -0.2829 -0.2158 -0.0882
 8764SOL    HW136222   1.330   1.258   2.294  2.2502 -0.0261 -2.1778
 8764SOL    HW236223   1.348   1.109   2.282 -0.6905 -0.7371  0.7160
 8765SOL     OW36224   3.559   8.713   7.371 -0.0941  0.1237 -0.0237
 8765SOL    HW136225   3.559   8.664   7.289  0.8873 -1.1652  0.7075
 8765SOL    HW236226   3.503   8.662   7.429  0.5937  0.0823  0.6173
 8766SOL     OW36227  12.396   8.549   6.875 -0.4700 -0.4060  0.5385
 8766SOL    HW136228  12.488   8.575   6.869 -0.6444  0.7147  2.0055
 8766SOL    HW236229  12.394   8.458   6.844  0.9972 -0.2314 -0.1663
 8767SOL     OW36230   7.349   8.772   9.793  0.2376  0.1864  0.5421
 8767SOL    HW136231   7.398   8.690   9.803  1.1101  0.7331  0.7630
 8767SOL    HW236232   7.412   8.841   9.812 -0.5109  0.9186  0.4267
 8768SOL     OW36233   9.560   9.023   4.993 -0.3726  0.7610  0.2691
 8768SOL    HW136234   9.641   8.973   5.004  0.5378  1.8791 -1.0062
 8768SOL    HW236235   9.529   8.998   4.907 -1.4257  0.3282  0.7616
 8769SOL     OW36236  12.207   7.374  11.922 -0.1397 -0.4007  0.1376
 8769SOL    HW136237  12.231   7.319  11.848 -0.5520  0.0504 -0.3333
 8769SOL    HW236238  12.206   7.463  11.887  0.1497 -0.1281  0.8012
 8770SOL     OW36239   4.116   9.669  12.079  0.4179 -0.1941  0.2070
 8770SOL    HW136240   4.128   9.730  12.005  2.7739 -0.8112  0.0151
 8770SOL    HW236241   4.175   9.701  12.146 -2.8790  1.3508  2.6434
 8771SOL     OW36242   2.042  11.562  12.554 -0.4982  0.2875 -0.4290
 8771SOL    HW136243   2.015  11.557  12.646  1.4377  0.2316  0.1705
 8771SOL    HW236244   2.038  11.656  12.533 -2.0708  0.1935 -0.6846
 8772SOL     OW36245   1.106   8.692   0.553 -0.1110  0.9346 -0.5844
 8772SOL    HW136246   1.131   8.634   0.482 -1.5396  1.0325 -1.1921
 8772SOL    HW236247   1.035   8.646   0.598  1.6246  0.2346  1.6697
 8773SOL     OW36248  10.084   8.999   0.284  0.5354  0.4684  0.6304
 8773SOL    HW136249  10.127   8.988   0.369 -1.3154 -0.4793  1.5206
 8773SOL    HW236250  10.028   9.076   0.295  0.1535  0.2374  0.3189
 8774SOL     OW36251   5.709   2.716   7.898  0.2750  0.0982  0.1079
 8774SOL    HW136252   5.644   2.651   7.869  0.8556 -0.0961 -0.7931
 8774SOL    HW236253   5.685   2.734   7.989 -1.1426  0.1453 -0.2391
 8775SOL     OW36254   9.352  11.195   2.887 -0.0825  0.1126 -0.0966
 8775SOL    HW136255   9.437  11.228   2.858 -0.2638  2.2371  1.4888
 8775SOL    HW236256   9.372  11.131   2.955  0.2497 -1.7964 -1.9119
 8776SOL     OW36257   3.585   3.630   7.456  0.3879 -0.1359  0.0619
 8776SOL    HW136258   3.509   3.575   7.477  0.1936  0.6197  1.4795
 8776SOL    HW236259   3.558   3.718   7.480  0.9604  0.4908 -1.4903
 8777SOL     OW36260   8.399  11.138   0.082  0.3027 -0.0944 -0.5946
 8777SOL    HW136261   8.382  11.057   0.034  0.9122 -0.7727  0.2965
 8777SOL    HW236262   8.478  11.174   0.041 -1.0966  1.1594 -2.3403
 8778SOL     OW36263  12.089   4.342   0.112 -0.5418 -0.0300  0.0594
 8778SOL    HW136264  12.055   4.370   0.196 -0.9947 -0.2117 -0.0593
 8778SOL    HW236265  12.176   4.382   0.106 -0.3242 -0.3645  0.7999
 8779SOL     OW36266   9.798   8.628   8.891 -0.3121  0.3051  0.0026
 8779SOL    HW136267   9.762   8.632   8.802 -0.8548  1.0912  0.2417
 8779SOL    HW236268   9.869   8.564   8.886 -1.4380 -0.9323 -0.5900
 8780SOL     OW36269  11.962   3.820   6.963  0.1445  0.1915 -0.0169
 8780SOL    HW136270  11.945   3.914   6.959  0.8776  0.3375  0.1797
 8780SOL    HW236271  12.018   3.802   6.887  2.1006  0.3903  1.2962
 8781SOL     OW36272   4.482   1.007   7.781 -0.6297  0.1799  0.6496
 8781SOL    HW136273   4.436   1.071   7.727 -1.2319  0.6076  1.6259
 8781SOL    HW236274   4.499   1.053   7.863  1.7859  0.1157  0.2599
 8782SOL     OW36275   0.034  10.372   7.386  0.0010  0.1637  0.0075
 8782SOL    HW136276   0.033  10.288   7.430 -0.4670 -1.0294 -2.1575
 8782SOL    HW236277  -0.052  10.379   7.344  0.3827  1.2629 -0.6444
 8783SOL     OW36278   4.919   7.851   3.688 -0.4274 -0.0737  0.1982
 8783SOL    HW136279   4.920   7.835   3.593 -0.1675 -1.1040  0.3610
 8783SOL    HW236280   5.003   7.893   3.706  0.6505 -2.1323  0.3030
 8784SOL     OW36281   4.118   3.824   5.965 -0.0490  0.1697  0.0749
 8784SOL    HW136282   4.157   3.774   6.037 -1.3432  0.9855  1.3835
 8784SOL    HW236283   4.190   3.835   5.902  0.7349 -1.7654  0.5664
 8785SOL     OW36284   0.702   7.934   4.633 -0.1990 -0.0480 -0.2319
 8785SOL    HW136285   0.789   7.963   4.659  0.3131 -0.0870 -1.7874
 8785SOL    HW236286   0.714   7.843   4.606 -0.7161 -0.0530 -0.4608
 8786SOL     OW36287   1.632   1.048  11.405  0.4646 -0.1312 -0.5814
 8786SOL    HW136288   1.697   1.111  11.374  1.3951 -0.7011  0.1452
 8786SOL    HW236289   1.641   0.974  11.345  0.5408 -0.2424 -0.4332
 8787SOL     OW36290   6.410   9.823  12.410  0.1695 -0.4210  0.7792
 8787SOL    HW136291   6.451   9.883  12.473 -0.9049 -1.4573  2.5241
 8787SOL    HW236292   6.326   9.800  12.450 -0.4793 -1.2532 -0.9745
 8788SOL     OW36293   9.746   3.468   4.963 -0.1988 -0.2641 -0.0287
 8788SOL    HW136294   9.836   3.497   4.947 -0.6570  1.0006 -0.4353
 8788SOL    HW236295   9.711   3.450   4.876 -0.3000 -0.8862  0.1387
 8789SOL     OW36296   9.833  11.425   0.843 -0.1707  0.6441  0.0957
 8789SOL    HW136297   9.860  11.400   0.931  0.6019  0.2701 -0.2333
 8789SOL    HW236298   9.870  11.513   0.831 -0.1256  0.6235  0.0828
 8790SOL     OW36299  12.150   4.859   6.590  0.0187  0.5824  0.5402
 8790SOL    HW136300  12.070   4.874   6.538 -0.4268  0.4613  1.1777
 8790SOL    HW236301  12.154   4.764   6.600  1.0773  0.4634 -0.7599
 8791SOL     OW36302  10.380  11.413   3.761  0.6022 -0.0793  0.1913
 8791SOL    HW136303  10.349  11.351   3.827  0.1191 -0.9689 -0.8410
 8791SOL    HW236304  10.301  11.456   3.729  0.7858  0.0382 -0.1085
 8792SOL     OW36305   4.614   7.735   3.301 -0.2535 -0.5818 -0.1073
 8792SOL    HW136306   4.661   7.661   3.265 -0.0454 -0.4169 -0.1768
 8792SOL    HW236307   4.524   7.723   3.271  0.0589 -0.0474 -1.3364
 8793SOL     OW36308  12.267   6.634   3.185  0.0591 -0.5610  0.5399
 8793SOL    HW136309  12.261   6.539   3.193 -1.7829 -0.6107 -0.6246
 8793SOL    HW236310  12.298   6.648   3.096 -0.2687 -0.0873  0.4968
 8794SOL     OW36311  10.839   7.395   4.680 -0.2835 -0.0959 -0.1051
 8794SOL    HW136312  10.811   7.340   4.606 -1.6354  1.0258 -0.4877
 8794SOL    HW236313  10.872   7.475   4.639 -0.4507  0.2820  0.4901
 8795SOL     OW36314   0.673   8.287  12.753  0.6776 -0.3075  0.1545
 8795SOL    HW136315   0.757   8.262  12.714  0.5882 -1.8801  0.8981
 8795SOL    HW236316   0.611   8.287  12.680  1.1176 -0.1396 -0.2250
 8796SOL     OW36317   5.342   2.654   3.698  0.0626  0.2196  0.4371
 8796SOL    HW136318   5.331   2.588   3.631 -1.1095  2.4359 -1.7005
 8796SOL    HW236319   5.255   2.666   3.735  0.0465  1.2595  0.0843
 8797SOL     OW36320   7.608  11.223   1.097 -0.5265  0.0944  0.8898
 8797SOL    HW136321   7.619  11.232   1.192 -2.1964 -2.0460  1.3698
 8797SOL    HW236322   7.602  11.313   1.065  1.2046  0.8990  2.6207
 8798SOL     OW36323   4.515   6.882   1.384 -0.2101  0.2116 -0.2373
 8798SOL    HW136324   4.477   6.862   1.298 -0.8411  1.4855 -0.2759
 8798SOL    HW236325   4.443   6.919   1.434  0.2482 -0.1843  0.7358
 8799SOL     OW36326  10.433  10.457  11.953  0.0273  0.2432 -0.6502
 8799SOL    HW136327  10.449  10.366  11.978  1.6357  0.7495  0.3108
 8799SOL    HW236328  10.465  10.509  12.027  1.2445  1.6577 -2.0879
 8800SOL     OW36329   0.840   8.084   3.193  0.1826 -0.3282 -0.2683
 8800SOL    HW136330   0.854   8.157   3.254  0.1237 -0.7972  0.3118
 8800SOL    HW236331   0.890   8.012   3.230 -1.1507 -1.0964  0.1089
 8801SOL     OW36332   8.270   8.008   3.203 -0.0145  0.4158 -0.1385
 8801SOL    HW136333   8.336   7.942   3.225 -1.0676 -0.2839  1.0123
 8801SOL    HW236334   8.311   8.059   3.133 -0.0024 -2.8368 -2.7497
 8802SOL     OW36335   2.676   8.015   6.779 -0.2536  0.4155 -0.4046
 8802SOL    HW136336   2.611   7.948   6.801 -0.6100  0.1855 -2.0222
 8802SOL    HW236337   2.624   8.089   6.747  0.1090  1.6614  1.6749
 8803SOL     OW36338   8.452   2.165  13.143 -0.7519  0.3605 -0.4902
 8803SOL    HW136339   8.461   2.087  13.198  0.3498 -1.2274 -2.7811
 8803SOL    HW236340   8.384   2.217  13.187  0.2688 -0.6154  2.4800
 8804SOL     OW36341   8.864  12.273   8.740  0.5251 -0.3221 -0.3132
 8804SOL    HW136342   8.946  12.321   8.750 -0.2886  1.1917 -0.6677
 8804SOL    HW236343   8.807  12.332   8.691 -0.9553 -1.1400  0.3559
 8805SOL     OW36344  10.483   3.510   2.414 -0.0922  0.1155 -0.4767
 8805SOL    HW136345  10.476   3.575   2.344  0.0777  0.4495 -0.1843
 8805SOL    HW236346  10.402   3.459   2.406 -1.0986  1.4897  0.4143
 8806SOL     OW36347   4.351   3.535   6.482 -0.0320 -0.1206 -0.0479
 8806SOL    HW136348   4.379   3.617   6.443 -1.0612  0.2302 -0.0774
 8806SOL    HW236349   4.271   3.557   6.531 -0.5908 -1.1788 -0.4464
 8807SOL     OW36350   7.893   7.473   5.060 -0.1528 -0.5779  0.3215
 8807SOL    HW136351   7.865   7.516   5.140  1.3316 -0.7931  0.9707
 8807SOL    HW236352   7.943   7.539   5.013 -0.6621 -0.5848 -0.2499
 8808SOL     OW36353  11.808   9.484  12.873  0.1989 -0.2357  0.0937
 8808SOL    HW136354  11.732   9.530  12.908 -0.8093 -1.3153 -0.6170
 8808SOL    HW236355  11.833   9.423  12.943 -0.8759 -1.3213 -0.4428
 8809SOL     OW36356   1.080   7.136   9.570  0.5713  0.1480 -0.3220
 8809SOL    HW136357   1.007   7.196   9.555  0.3223  0.5294  1.9613
 8809SOL    HW236358   1.111   7.159   9.658  2.9329 -0.5472 -0.9044
 8810SOL     OW36359   5.101   2.591   2.130 -0.1554  0.3028  0.3514
 8810SOL    HW136360   5.034   2.605   2.197 -0.7108  1.8133 -0.4940
 8810SOL    HW236361   5.156   2.522   2.167 -1.6713 -0.3868  1.4322
 8811SOL     OW36362   9.161   2.754   0.539 -0.7130  0.4267  0.4638
 8811SOL    HW136363   9.194   2.752   0.450 -1.0015  0.5698  0.3501
 8811SOL    HW236364   9.231   2.715   0.592 -1.8305 -2.7588 -0.2047
 8812SOL     OW36365  12.719   7.225   2.641  0.1585  0.5649 -0.3356
 8812SOL    HW136366  12.706   7.190   2.730 -0.2778  1.4430 -0.0410
 8812SOL    HW236367  12.631   7.249   2.612  0.6017  3.0407  0.1776
 8813SOL     OW36368   1.593   6.564   1.182  0.0964  0.2894  0.4881
 8813SOL    HW136369   1.587   6.474   1.151  3.8684 -0.2480  0.9008
 8813SOL    HW236370   1.553   6.563   1.269 -2.0701 -0.3196 -0.4332
 8814SOL     OW36371   7.725   2.774  12.129 -0.0922 -0.2199  0.1311
 8814SOL    HW136372   7.758   2.698  12.080 -1.0161 -0.9904  0.6838
 8814SOL    HW236373   7.635   2.784  12.099 -0.0696  0.4805  0.2946
 8815SOL     OW36374   7.516  13.033  10.441 -0.3020 -0.2692 -0.2857
 8815SOL    HW136375   7.487  12.958  10.493  0.1795 -1.9076 -2.2552
 8815SOL    HW236376   7.601  13.057  10.479  0.0728 -1.4687 -0.3365
 8816SOL     OW36377  12.209   4.655   8.630 -0.3733  0.4604  0.9970
 8816SOL    HW136378  12.243   4.657   8.541  0.7034 -0.1573  1.3814
 8816SOL    HW236379  12.203   4.747   8.655 -0.9372  0.6485  0.2054
 8817SOL     OW36380   3.848   9.816  11.983 -0.2348  0.0483  0.1119
 8817SOL    HW136381   3.809   9.756  12.046 -1.9269 -1.1791 -1.9711
 8817SOL    HW236382   3.778   9.834  11.921  0.5441  3.3372 -0.0027
 8818SOL     OW36383   9.856   8.247   3.950  0.2800  0.2886 -0.3130
 8818SOL    HW136384   9.878   8.155   3.962  0.1047  0.3535  0.5521
 8818SOL    HW236385   9.841   8.280   4.039  2.0636  1.5847 -0.4511
 8819SOL     OW36386  13.282  11.200  11.500  0.2834 -0.4527  0.5256
 8819SOL    HW136387  13.305  11.213  11.592  0.0351 -0.8847  0.6506
 8819SOL    HW236388  13.363  11.171  11.459  0.9569  1.7421  0.1629
 8820SOL     OW36389   0.065   9.264   7.299 -0.1592 -0.3401  0.1875
 8820SOL    HW136390   0.089   9.173   7.319 -2.5981 -1.0044  0.4520
 8820SOL    HW236391   0.041   9.301   7.384 -1.4478 -0.2160 -0.2127
 8821SOL     OW36392   1.957   8.596   6.955  0.3254  0.2643 -0.1968
 8821SOL    HW136393   1.929   8.661   7.019  1.2658  1.0603 -0.5744
 8821SOL    HW236394   1.889   8.529   6.958  0.8304 -0.2478  2.3676
 8822SOL     OW36395  13.015   8.232   5.294  0.4631 -0.0612 -0.0269
 8822SOL    HW136396  13.079   8.294   5.258  0.1940  0.5804  0.5917
 8822SOL    HW236397  12.932   8.278   5.291  0.0301 -0.8631 -0.7356
 8823SOL     OW36398   5.818   0.953   1.578 -0.0963 -0.2345 -0.1594
 8823SOL    HW136399   5.911   0.958   1.555 -0.2639 -0.9611 -1.0730
 8823SOL    HW236400   5.809   0.868   1.621 -0.2825 -0.0419  0.1778
 8824SOL     OW36401   5.571   9.146  12.722 -0.0408 -0.6812  0.4422
 8824SOL    HW136402   5.516   9.189  12.788 -0.2518  0.3358 -0.3731
 8824SOL    HW236403   5.510   9.096  12.669 -0.0913 -0.2259  0.0574
 8825SOL     OW36404   5.530  13.222   1.888 -0.0311  0.1916  0.0172
 8825SOL    HW136405   5.552  13.133   1.862 -1.4279 -1.1443  2.9878
 8825SOL    HW236406   5.507  13.266   1.805  0.8371 -2.1031 -1.5398
 8826SOL     OW36407   9.664  11.131   8.962 -0.3317  0.1419 -0.7388
 8826SOL    HW136408   9.589  11.120   8.904 -4.3107  3.8217  2.9149
 8826SOL    HW236409   9.646  11.071   9.035  1.3365 -0.2333 -0.6069
 8827SOL     OW36410  11.106   8.448   4.458  0.1096  0.0937 -0.0850
 8827SOL    HW136411  11.152   8.488   4.385  0.4668  0.0442  0.1135
 8827SOL    HW236412  11.170   8.445   4.529 -0.0620 -0.3625  0.0577
 8828SOL     OW36413  10.372  13.297   7.133 -0.3024 -0.6388  0.0431
 8828SOL    HW136414  10.328  13.240   7.070  0.2793 -1.5278  0.4147
 8828SOL    HW236415  10.303  13.354   7.167 -1.1967 -2.0135  0.6428
 8829SOL     OW36416   2.032   9.918   8.612 -0.0703 -0.2885 -0.0215
 8829SOL    HW136417   2.091   9.874   8.551 -1.0474 -0.8686 -0.5829
 8829SOL    HW236418   2.071  10.004   8.626  1.4459 -1.0108  0.4498
 8830SOL     OW36419   9.578   9.891  13.041  0.4125 -0.0359  0.5101
 8830SOL    HW136420   9.599   9.801  13.064 -0.1299 -1.0928 -2.6574
 8830SOL    HW236421   9.521   9.884  12.964  2.7280  2.9816 -1.7423
 8831SOL     OW36422   4.838   5.226   5.937 -0.1568  0.4782  0.3940
 8831SOL    HW136423   4.894   5.283   5.886 -1.5773 -0.3903 -2.3292
 8831SOL    HW236424   4.877   5.139   5.929 -1.7826 -0.1441 -1.5612
 8832SOL     OW36425  11.104   1.810  11.131  0.0870  0.4445 -0.4419
 8832SOL    HW136426  11.062   1.828  11.215 -2.2522 -0.9788 -1.2240
 8832SOL    HW236427  11.139   1.894  11.103  0.5106  1.0417  1.6978
 8833SOL     OW36428   2.826   6.489   6.093 -0.3211  0.0722 -0.2080
 8833SOL    HW136429   2.814   6.436   6.172  1.0654  1.3097  0.8708
 8833SOL    HW236430   2.910   6.532   6.105 -0.3869  0.8112 -2.0777
 8834SOL     OW36431   6.720   3.955   3.656  0.2069 -0.0461 -0.5480
 8834SOL    HW136432   6.730   4.008   3.735 -1.6448  0.5289 -0.6479
 8834SOL    HW236433   6.798   3.974   3.604  1.7127 -0.8488  1.3415
 8835SOL     OW36434   1.343   8.622  12.227  0.1117 -0.4054 -0.2136
 8835SOL    HW136435   1.253   8.613  12.195 -0.7025  0.3196  1.7227
 8835SOL    HW236436   1.395   8.630  12.148 -1.4591 -1.2808 -1.4132
 8836SOL     OW36437   8.126   8.984   1.110 -0.2663 -0.2113  0.3605
 8836SOL    HW136438   8.149   8.891   1.110  2.2964  0.3533 -0.1623
 8836SOL    HW236439   8.124   9.008   1.018 -0.6903  0.3105  0.5037
 8837SOL     OW36440   3.955   5.513  10.425 -0.0381  0.1203 -0.0998
 8837SOL    HW136441   3.873   5.557  10.444 -0.2696 -1.3603  2.9547
 8837SOL    HW236442   4.022   5.581  10.433 -0.6938  0.6708  0.9183
 8838SOL     OW36443  11.197   9.126   5.402 -0.4841 -0.0558  0.0506
 8838SOL    HW136444  11.265   9.165   5.457 -1.3164  0.0895  0.9992
 8838SOL    HW236445  11.137   9.084   5.464 -0.5101 -1.4087 -0.8486
 8839SOL     OW36446  11.050   3.793  12.516 -0.0287 -0.1564 -0.9123
 8839SOL    HW136447  11.122   3.760  12.570  0.0321 -0.0787 -0.9477
 8839SOL    HW236448  11.091   3.852  12.453 -0.3459  1.5969  0.4243
 8840SOL     OW36449  12.917   0.480   4.889 -0.1304  0.8770 -0.2711
 8840SOL    HW136450  13.009   0.461   4.873 -0.7023 -1.2846 -1.4574
 8840SOL    HW236451  12.885   0.406   4.941 -1.0739  1.9036  0.6636
 8841SOL     OW36452   0.879   2.273   3.170  0.4659  0.2479 -0.0554
 8841SOL    HW136453   0.925   2.238   3.247  0.4712  0.8499  0.2209
 8841SOL    HW236454   0.791   2.236   3.176  1.6270 -3.3721 -2.1892
 8842SOL     OW36455  13.226   0.069   4.951  0.0779 -0.6204 -0.1848
 8842SOL    HW136456  13.166   0.135   4.986  0.0603 -0.7497  0.0301
 8842SOL    HW236457  13.169  -0.000   4.918  0.1084 -0.7698  0.0722
 8843SOL     OW36458   7.286   8.071   1.732 -0.3255 -0.2844 -0.3645
 8843SOL    HW136459   7.378   8.083   1.754 -0.2441 -0.9560 -0.3304
 8843SOL    HW236460   7.239   8.125   1.796 -0.0566 -1.5788  1.0017
 8844SOL     OW36461  12.618   9.435  10.708 -0.7121 -0.0862  0.4929
 8844SOL    HW136462  12.566   9.355  10.718  0.0505 -0.7881 -0.7679
 8844SOL    HW236463  12.686   9.410  10.645 -0.5923  1.6188 -0.0961
 8845SOL     OW36464   4.232   5.242   1.584 -0.3794 -0.3002 -0.8081
 8845SOL    HW136465   4.312   5.259   1.635 -1.0886 -0.2713  0.3256
 8845SOL    HW236466   4.260   5.183   1.514  0.8001  0.3662 -0.9252
 8846SOL     OW36467  10.547   9.974  12.439 -0.0650  0.6881  0.3857
 8846SOL    HW136468  10.604   9.915  12.489  2.1607  0.8495 -1.7541
 8846SOL    HW236469  10.546  10.055  12.490  2.7948  1.1225 -0.0526
 8847SOL     OW36470   4.367  11.865   5.776  0.0187 -0.2814  0.1755
 8847SOL    HW136471   4.343  11.838   5.865  1.4842 -0.0432  0.6691
 8847SOL    HW236472   4.322  11.948   5.764 -0.4660 -0.4786  0.5590
 8848SOL     OW36473  13.053   9.811  10.979 -0.4473  0.1173 -0.2231
 8848SOL    HW136474  12.975   9.811  11.034  0.4884  0.1919  1.1640
 8848SOL    HW236475  13.054   9.899  10.940 -1.2074  0.0117 -0.4954
 8849SOL     OW36476  11.950  12.863  12.758  0.0127 -0.1062 -0.1912
 8849SOL    HW136477  11.996  12.781  12.775 -2.5806 -1.1758  2.6413
 8849SOL    HW236478  11.872  12.838  12.710  0.2562  1.0573 -1.2432
 8850SOL     OW36479   4.973   0.202   0.057 -0.1609 -0.1803  0.1876
 8850SOL    HW136480   4.902   0.245   0.104  0.5799  0.8631  0.3953
 8850SOL    HW236481   5.010   0.141   0.121 -0.6283 -0.4510  0.2018
 8851SOL     OW36482   7.569   9.047   8.811 -0.1659 -0.4284 -0.5373
 8851SOL    HW136483   7.497   9.110   8.819  0.9793  1.0315 -1.1608
 8851SOL    HW236484   7.536   8.968   8.853 -2.1658  0.1526 -0.8955
 8852SOL     OW36485   4.749   0.268   0.724 -0.4328  0.0121 -0.2312
 8852SOL    HW136486   4.758   0.258   0.819  0.1315 -0.5950 -0.3385
 8852SOL    HW236487   4.718   0.183   0.694  3.8032 -1.4544 -1.0894
 8853SOL     OW36488   3.885  10.339   4.022 -0.0219 -0.1361  0.0506
 8853SOL    HW136489   3.818  10.407   4.021 -0.3347 -0.3576  2.3945
 8853SOL    HW236490   3.837  10.258   4.000  0.2580  0.2422 -2.2100
 8854SOL     OW36491   7.685   4.723  12.700 -0.0766  0.7909  0.3396
 8854SOL    HW136492   7.694   4.716  12.605 -1.3297  0.6260  0.2146
 8854SOL    HW236493   7.734   4.802  12.723 -0.1750  1.1078 -0.5113
 8855SOL     OW36494  11.860   9.931   4.411 -0.1611  0.0838  0.3177
 8855SOL    HW136495  11.850  10.017   4.371  0.0355 -0.5259 -1.1259
 8855SOL    HW236496  11.772   9.910   4.443 -0.1664  0.8965  0.8516
 8856SOL     OW36497  10.836   1.726   4.042  0.8933 -0.0733 -0.0961
 8856SOL    HW136498  10.817   1.708   3.950 -2.6156 -0.0549  0.4941
 8856SOL    HW236499  10.804   1.815   4.056  1.6108  0.0140  1.1248
 8857SOL     OW36500  11.679  12.721   5.219 -0.2625  0.1531  0.0582
 8857SOL    HW136501  11.717  12.633   5.218  0.2765  0.3828 -1.3343
 8857SOL    HW236502  11.676  12.743   5.312  0.4931 -0.9572  0.3784
 8858SOL     OW36503  10.039   6.586  12.412  0.6245 -0.3483  0.0888
 8858SOL    HW136504  10.122   6.605  12.369  0.3552  1.5039  0.3085
 8858SOL    HW236505  10.051   6.614  12.502 -0.3093  0.2209  0.0577
 8859SOL     OW36506   9.052   9.190   1.157 -0.1827  0.1220 -0.2032
 8859SOL    HW136507   9.144   9.168   1.167  0.0320  0.5080 -1.2365
 8859SOL    HW236508   9.052   9.285   1.142 -0.7513  0.1267 -0.1889
 8860SOL     OW36509   7.548   1.131   2.804 -0.2268 -0.0900 -0.9774
 8860SOL    HW136510   7.470   1.109   2.854 -1.3706  3.0269 -1.1651
 8860SOL    HW236511   7.526   1.109   2.713 -1.5288  1.9566 -1.2336
 8861SOL     OW36512   5.854   1.658   3.513 -0.3866 -0.1687 -0.0298
 8861SOL    HW136513   5.935   1.656   3.563 -1.4900 -0.6745  1.8272
 8861SOL    HW236514   5.797   1.595   3.557 -1.5562 -0.3762 -1.7316
 8862SOL     OW36515   1.330  12.729   8.588  0.6770 -0.2997  0.3722
 8862SOL    HW136516   1.380  12.794   8.637  0.7232  0.4224 -0.5917
 8862SOL    HW236517   1.239  12.760   8.593  0.3028 -1.5038  1.9590
 8863SOL     OW36518   5.848  10.533   2.722 -0.2506 -0.1076  0.0949
 8863SOL    HW136519   5.922  10.590   2.744  0.0704 -0.8595  1.0275
 8863SOL    HW236520   5.859  10.514   2.629  1.0103 -0.6033  0.3307
 8864SOL     OW36521   9.377   6.920   7.754  0.5233 -0.5559 -0.3085
 8864SOL    HW136522   9.395   7.009   7.722  1.2892  0.1567  1.9106
 8864SOL    HW236523   9.463   6.878   7.756  0.4222 -0.7336  0.3547
 8865SOL     OW36524   5.482  10.208   6.079  0.4572 -0.1915 -0.0214
 8865SOL    HW136525   5.548  10.146   6.048  0.0674 -1.6866  1.9557
 8865SOL    HW236526   5.403  10.186   6.031  1.0153  0.7999 -1.4918
 8866SOL     OW36527   0.994   5.112   2.764  0.0965  0.1552  0.7401
 8866SOL    HW136528   0.935   5.055   2.716  0.0133  0.0423  0.9736
 8866SOL    HW236529   1.069   5.056   2.786 -0.5666 -0.2279  2.0964
 8867SOL     OW36530   2.240   5.185   0.420 -0.1384 -0.4673  0.1531
 8867SOL    HW136531   2.292   5.113   0.456  2.5621  0.9681 -0.6268
 8867SOL    HW236532   2.262   5.187   0.328 -0.7218  0.9479  0.0240
 8868SOL     OW36533   2.486  13.146  11.145  0.4532  0.1294 -0.1601
 8868SOL    HW136534   2.548  13.080  11.114  0.4894  0.5785 -1.0717
 8868SOL    HW236535   2.519  13.172  11.231  1.2706  0.0216 -0.4374
 8869SOL     OW36536   8.692   3.836  12.922  0.2748  0.8642  0.4595
 8869SOL    HW136537   8.706   3.883  13.005 -0.5046  1.4084  0.2876
 8869SOL    HW236538   8.766   3.862  12.868  1.3663 -0.3005  1.3151
 8870SOL     OW36539   7.970   9.719   1.548 -0.6226 -0.2423  0.5577
 8870SOL    HW136540   7.949   9.754   1.635 -2.2934 -0.4782  0.2633
 8870SOL    HW236541   8.044   9.660   1.564  0.1150  0.8898  1.5659
 8871SOL     OW36542   1.040   1.381  12.089  0.1713  0.1411 -0.1472
 8871SOL    HW136543   0.976   1.334  12.035 -0.1700 -0.6370  0.8886
 8871SOL    HW236544   1.057   1.462  12.041 -2.1192  0.7014 -0.1414
 8872SOL     OW36545   0.210   7.639   7.443  0.5371 -0.0377 -0.0177
 8872SOL    HW136546   0.213   7.699   7.369  2.7859  0.4504  0.3968
 8872SOL    HW236547   0.147   7.678   7.503 -0.0137  0.4755 -0.9055
 8873SOL     OW36548   6.628   8.337   4.896  0.6134  0.1492  0.2901
 8873SOL    HW136549   6.688   8.409   4.917 -1.3112  1.6678  0.8839
 8873SOL    HW236550   6.603   8.301   4.981  0.2520 -0.1059  0.0761
 8874SOL     OW36551  13.023  11.502  11.697  0.2119 -0.4187  0.0543
 8874SOL    HW136552  12.994  11.427  11.748  0.0888  0.4643  1.3416
 8874SOL    HW236553  13.112  11.519  11.728 -0.1193  0.5611  0.5100
 8875SOL     OW36554   6.754  10.980   8.405 -0.0764  0.4125 -0.0248
 8875SOL    HW136555   6.842  10.946   8.423 -0.4085 -0.3768  0.1626
 8875SOL    HW236556   6.695  10.913   8.440 -0.7656  1.4229  0.8175
 8876SOL     OW36557   6.722   4.526   0.746  0.2174  0.3474 -0.2635
 8876SOL    HW136558   6.684   4.438   0.751 -0.0984  0.4776 -0.3593
 8876SOL    HW236559   6.749   4.536   0.654 -0.1827  0.5316 -0.3611
 8877SOL     OW36560   4.324  12.422   1.039 -0.4490  0.0176  0.5028
 8877SOL    HW136561   4.296  12.350   1.095 -1.1826 -0.5899 -0.6105
 8877SOL    HW236562   4.243  12.457   1.002 -0.1383  1.5793  1.1872
 8878SOL     OW36563   4.494  12.514   7.077 -0.0591  0.3530 -0.6772
 8878SOL    HW136564   4.415  12.461   7.072  0.0782 -0.0324  0.7443
 8878SOL    HW236565   4.469  12.599   7.041 -0.9692  0.0756 -0.7211
 8879SOL     OW36566   7.821  12.716  11.843  0.2950 -0.5871  0.9099
 8879SOL    HW136567   7.829  12.651  11.774  1.1218 -0.0926  0.5303
 8879SOL    HW236568   7.731  12.706  11.875  0.1581 -1.3525  0.3089
 8880SOL     OW36569   8.692   9.377  11.381  0.3112 -0.0325  0.1290
 8880SOL    HW136570   8.646   9.461  11.382 -0.3001 -0.3662  1.3684
 8880SOL    HW236571   8.630   9.315  11.419  1.9167 -0.4055  2.3373
 8881SOL     OW36572  12.073   3.662   5.457 -0.1033 -0.7639  0.2068
 8881SOL    HW136573  12.081   3.726   5.528 -1.3750 -0.4736  0.1114
 8881SOL    HW236574  11.991   3.686   5.412  1.6650  0.4317 -2.7013
 8882SOL     OW36575  10.737   3.881   0.623  0.5418  0.2916 -0.2959
 8882SOL    HW136576  10.820   3.868   0.668 -0.1438  0.9741  1.2296
 8882SOL    HW236577  10.670   3.865   0.690 -0.6111 -1.0318 -1.6807
 8883SOL     OW36578   3.713  11.956   1.133  0.8929 -0.0261  0.0364
 8883SOL    HW136579   3.758  11.872   1.125  0.8534  0.0255 -0.7975
 8883SOL    HW236580   3.682  11.976   1.045 -2.1759 -0.8335  0.8244
 8884SOL     OW36581  12.647  12.455   4.161  0.2433 -0.2898  0.4331
 8884SOL    HW136582  12.612  12.528   4.109 -1.4132 -1.7099 -0.5794
 8884SOL    HW236583  12.614  12.471   4.249 -0.6339 -0.1290  0.0868
 8885SOL     OW36584   4.466  11.590   6.534  0.4305  0.1255 -0.0634
 8885SOL    HW136585   4.464  11.685   6.536  2.1822  0.1891 -0.0878
 8885SOL    HW236586   4.554  11.567   6.564  0.8469 -1.4095 -2.2699
 8886SOL     OW36587   3.794   6.277   7.797 -0.2319  0.7504  0.3802
 8886SOL    HW136588   3.706   6.256   7.826 -0.0642  0.3391  0.6070
 8886SOL    HW236589   3.805   6.370   7.819  0.1095  0.3161  2.2474
 8887SOL     OW36590   6.041   2.329  12.338  0.0010 -0.1010 -0.4909
 8887SOL    HW136591   6.096   2.345  12.262  2.9930 -0.6503  1.3853
 8887SOL    HW236592   6.068   2.243  12.370 -0.5249  0.4477  1.6391
 8888SOL     OW36593  10.205   5.796   0.416 -0.2459  0.3742 -0.8441
 8888SOL    HW136594  10.277   5.854   0.390  0.7912 -0.1825  0.7022
 8888SOL    HW236595  10.246   5.728   0.469 -1.8527 -0.2392 -0.3263
 8889SOL     OW36596   1.240   8.007   0.159  0.0409  0.4178 -0.3774
 8889SOL    HW136597   1.238   8.103   0.161 -0.4598  0.3914  0.6060
 8889SOL    HW236598   1.218   7.980   0.248  3.6811 -0.5503  0.3981
 8890SOL     OW36599   8.446   8.471   4.794  0.6451  0.0047  0.3420
 8890SOL    HW136600   8.466   8.431   4.710  1.2481  0.9954 -0.0010
 8890SOL    HW236601   8.361   8.513   4.781  0.6208 -0.0551  0.3089
 8891SOL     OW36602   5.947   1.672  12.530  0.2738 -0.1063  0.2224
 8891SOL    HW136603   6.030   1.638  12.564  0.1615  0.5230  1.1646
 8891SOL    HW236604   5.947   1.765  12.554  0.0538  0.3077 -1.2860
 8892SOL     OW36605  13.141   6.324   1.937 -0.7433  0.1544  0.3385
 8892SOL    HW136606  13.097   6.345   2.019 -0.0042  0.8036  0.5821
 8892SOL    HW236607  13.230   6.359   1.948 -0.8673  0.9463 -1.0460
 8893SOL     OW36608   8.910   7.775   6.506  0.5378 -0.2497 -0.1717
 8893SOL    HW136609   8.986   7.826   6.534 -0.2868  0.8328  0.1545
 8893SOL    HW236610   8.837   7.836   6.509 -0.8532 -1.8805  1.9626
 8894SOL     OW36611   3.933   7.897  10.148 -0.2661 -0.0790 -0.1648
 8894SOL    HW136612   3.979   7.821  10.112  0.4106  0.1232  0.2433
 8894SOL    HW236613   3.994   7.970  10.135 -1.2289  0.5634 -1.2796
 8895SOL     OW36614   4.394  10.252   6.827 -0.0049 -0.0836 -0.3002
 8895SOL    HW136615   4.388  10.332   6.775  0.5142  0.8538  1.0373
 8895SOL    HW236616   4.456  10.196   6.779 -1.3136 -0.2416 -1.8988
 8896SOL     OW36617   5.022   8.122  13.100  0.2422 -0.3516  0.4928
 8896SOL    HW136618   4.992   8.202  13.141 -0.4120 -0.2328 -0.2079
 8896SOL    HW236619   5.108   8.106  13.140  1.3741  1.8488 -0.8862
 8897SOL     OW36620   3.384   6.876  10.704  0.2243  0.4554  0.0312
 8897SOL    HW136621   3.290   6.866  10.693  0.3242 -0.3642 -0.1240
 8897SOL    HW236622   3.394   6.922  10.788 -0.3137  0.8540 -0.1153
 8898SOL     OW36623   8.521   6.980   7.342 -0.2608  0.1504  0.1860
 8898SOL    HW136624   8.612   6.953   7.353 -0.8117 -2.2073 -0.4738
 8898SOL    HW236625   8.517   7.068   7.379  2.5461  0.8189 -0.8951
 8899SOL     OW36626  12.514   6.232   0.349 -0.2830  0.5645  0.0407
 8899SOL    HW136627  12.604   6.264   0.353  0.0022 -0.2862  0.7366
 8899SOL    HW236628  12.523   6.137   0.346 -1.1792  0.4219  1.1970
 8900SOL     OW36629   5.576   0.391   6.985 -0.4778 -0.2642  0.0194
 8900SOL    HW136630   5.497   0.373   7.036 -0.1174 -1.0355  0.3240
 8900SOL    HW236631   5.585   0.316   6.927  0.1490 -0.2943  0.1427
 8901SOL     OW36632   0.391   3.181   0.681  0.1483 -0.2841  0.0757
 8901SOL    HW136633   0.391   3.130   0.600 -1.5166  0.6249 -0.5587
 8901SOL    HW236634   0.474   3.161   0.722 -0.1015 -2.8936 -0.5234
 8902SOL     OW36635   3.287   1.580   7.118 -0.0700 -0.4020  0.2943
 8902SOL    HW136636   3.362   1.524   7.094  0.6245  1.4920 -2.4042
 8902SOL    HW236637   3.325   1.649   7.173 -0.4979 -1.1762  1.6187
 8903SOL     OW36638   8.412   2.184  10.788  0.2192  0.2542  0.1488
 8903SOL    HW136639   8.396   2.277  10.771  1.6889  0.3733 -0.6927
 8903SOL    HW236640   8.411   2.177  10.884 -0.6791  0.9757  0.2047
 8904SOL     OW36641   1.025  12.426   7.711 -0.0235 -0.4481 -0.7333
 8904SOL    HW136642   1.074  12.408   7.631 -0.1217  0.3595 -0.9921
 8904SOL    HW236643   0.948  12.370   7.706  0.3597 -0.9681 -0.8248
 8905SOL     OW36644  11.445   6.797   7.623 -0.7310 -0.5227 -0.4791
 8905SOL    HW136645  11.533   6.812   7.588 -0.5015  1.9654  0.9125
 8905SOL    HW236646  11.387   6.814   7.548 -0.1116  0.9272 -0.6723
 8906SOL     OW36647   9.110   0.353   6.949 -0.4291  0.2753  0.1507
 8906SOL    HW136648   9.191   0.309   6.973 -1.5203 -2.0077 -0.0532
 8906SOL    HW236649   9.056   0.346   7.028 -1.3101 -0.5384 -0.4988
 8907SOL     OW36650   4.923   0.336   8.321  0.4663 -0.4936 -0.0581
 8907SOL    HW136651   4.940   0.385   8.241  2.0866  0.2771  0.6909
 8907SOL    HW236652   4.956   0.248   8.303  0.0469 -0.5604 -0.5092
 8908SOL     OW36653   5.957   6.294   2.521 -0.5874 -0.3532  0.3259
 8908SOL    HW136654   5.979   6.255   2.605  1.6177 -0.6654 -0.3369
 8908SOL    HW236655   5.966   6.222   2.458 -3.0269 -0.3442 -0.1244
 8909SOL     OW36656   0.834   2.221   8.780 -0.1018  0.7616  0.2453
 8909SOL    HW136657   0.748   2.250   8.811 -0.2574  0.9535 -0.3548
 8909SOL    HW236658   0.821   2.129   8.758 -0.1478  0.7852  0.1735
 8910SOL     OW36659   4.075   9.319   1.945  0.0942 -0.3033  0.0654
 8910SOL    HW136660   4.002   9.314   2.007  0.3054  0.3245  0.3788
 8910SOL    HW236661   4.150   9.287   1.994  0.6620  1.9853  0.8156
 8911SOL     OW36662   1.280   9.614   9.875  0.1555 -0.1427 -0.6863
 8911SOL    HW136663   1.358   9.670   9.867 -0.0264 -0.0136 -1.6821
 8911SOL    HW236664   1.240   9.641   9.958  1.2909 -0.3745 -0.0512
 8912SOL     OW36665   9.605  12.379   9.445  0.2072 -1.0385 -0.1775
 8912SOL    HW136666   9.652  12.409   9.522  0.0997  0.1172 -0.5418
 8912SOL    HW236667   9.586  12.287   9.463 -2.5171 -0.0920  2.5434
 8913SOL     OW36668   9.792  12.100  12.701  0.2392 -0.1681  0.0243
 8913SOL    HW136669   9.773  12.031  12.639 -0.2313 -0.0470  0.0276
 8913SOL    HW236670   9.779  12.181  12.652 -0.2060 -0.0703  0.2868
 8914SOL     OW36671   9.395  13.304   0.995  0.2070  0.6892  0.5538
 8914SOL    HW136672   9.315  13.269   1.035 -0.9645  0.2038 -1.9762
 8914SOL    HW236673   9.401  13.394   1.027 -0.8254  0.4227  1.5465
 8915SOL     OW36674  12.079   4.897   2.880 -0.1558 -0.2148  0.2092
 8915SOL    HW136675  12.048   4.818   2.924 -0.1389  0.2811  1.1325
 8915SOL    HW236676  12.040   4.969   2.930  1.3857  0.3913  0.5950
 8916SOL     OW36677   5.731   1.495   1.803 -0.6117  0.1628 -0.2137
 8916SOL    HW136678   5.657   1.453   1.761 -1.0405  1.6584 -1.0102
 8916SOL    HW236679   5.711   1.588   1.800  1.1199  0.5748 -0.1143
 8917SOL     OW36680  12.348  13.212   0.012  1.4170 -0.5112  0.2939
 8917SOL    HW136681  12.420  13.194  -0.049  1.7727 -2.4867  1.2221
 8917SOL    HW236682  12.377  13.289   0.061  2.3276 -0.5277 -0.1917
 8918SOL     OW36683   3.152   9.852   4.113 -0.1989  0.1096 -0.0560
 8918SOL    HW136684   3.166   9.758   4.124 -0.1455  0.1640  0.3695
 8918SOL    HW236685   3.106   9.879   4.193 -1.1071  0.2699 -0.6131
 8919SOL     OW36686  12.621  11.901  12.993 -0.2494 -0.4030  1.1785
 8919SOL    HW136687  12.659  11.848  12.923 -1.3073 -0.8134  0.8989
 8919SOL    HW236688  12.697  11.938  13.040  0.4995 -1.8569  1.1534
 8920SOL     OW36689   1.925   2.778   5.759  0.4351  0.4397 -0.1134
 8920SOL    HW136690   1.839   2.779   5.802  1.3211 -1.2570  1.8672
 8920SOL    HW236691   1.905   2.757   5.668 -1.2913  0.6236  0.1762
 8921SOL     OW36692   3.733   2.329   1.252 -0.2071 -0.4080  0.1697
 8921SOL    HW136693   3.799   2.377   1.202 -0.8045  0.5361  0.2590
 8921SOL    HW236694   3.722   2.247   1.205  0.4421 -0.2288 -0.3038
 8922SOL     OW36695  10.248  10.352   1.122  0.2904 -0.4319 -0.2918
 8922SOL    HW136696  10.243  10.435   1.169 -0.9476  0.0213 -1.1819
 8922SOL    HW236697  10.164  10.344   1.077  0.1467 -2.4619  0.2419
 8923SOL     OW36698  11.793   8.434   3.515 -0.1847 -0.2220  0.2723
 8923SOL    HW136699  11.719   8.493   3.501 -0.8234 -0.7462  1.2722
 8923SOL    HW236700  11.757   8.364   3.570  0.9161 -0.7968  0.2860
 8924SOL     OW36701   8.618   7.235   5.618  0.2923 -0.2246  0.5094
 8924SOL    HW136702   8.645   7.178   5.545 -0.7578 -0.6933  0.4676
 8924SOL    HW236703   8.524   7.249   5.603  0.4411  1.1442  0.7907
 8925SOL     OW36704   4.820   7.005   6.646 -0.1559  0.1277 -0.1206
 8925SOL    HW136705   4.866   7.082   6.612  0.1278 -0.6675 -1.6304
 8925SOL    HW236706   4.739   7.040   6.684  0.5694  1.2859  0.3899
 8926SOL     OW36707   6.018   8.503  10.446 -0.1437  0.3821 -0.2595
 8926SOL    HW136708   5.933   8.523  10.485 -0.2084  0.9724 -0.6871
 8926SOL    HW236709   6.001   8.500  10.352 -0.5503 -3.6170 -0.2290
 8927SOL     OW36710  13.286   8.723   9.744 -0.0565 -0.5024  0.4279
 8927SOL    HW136711  13.349   8.743   9.813 -1.4408  2.6711  0.9758
 8927SOL    HW236712  13.205   8.702   9.790 -0.3044 -1.0369 -0.2368
 8928SOL     OW36713  10.955   3.532  12.006  0.1652 -0.0655 -0.5347
 8928SOL    HW136714  10.995   3.589  12.071 -1.8803 -0.2244  0.9411
 8928SOL    HW236715  10.937   3.589  11.931  2.3465  0.1598 -0.9555
 8929SOL     OW36716   6.468  10.974   3.360 -0.1912  0.1784  0.4592
 8929SOL    HW136717   6.530  10.912   3.396  0.0080  0.1337  0.0442
 8929SOL    HW236718   6.488  11.057   3.404  0.0405  0.1224  0.4600
 8930SOL     OW36719   6.814   3.836   2.898 -0.1647  0.2624 -0.1104
 8930SOL    HW136720   6.731   3.801   2.866 -0.5322 -0.1440  1.2413
 8930SOL    HW236721   6.790   3.919   2.941  0.5256  1.6005 -2.1671
 8931SOL     OW36722   3.612  13.031   5.742  0.5296 -0.3217 -0.3537
 8931SOL    HW136723   3.540  13.017   5.681  0.0372 -1.2217  0.4063
 8931SOL    HW236724   3.578  13.095   5.805  0.8622  0.2386 -0.7388
 8932SOL     OW36725   1.662   2.551   5.239 -0.0068 -0.3943  0.3549
 8932SOL    HW136726   1.652   2.646   5.245 -1.3688 -0.6043  1.8411
 8932SOL    HW236727   1.577   2.515   5.265  0.4845 -2.0335 -0.1543
 8933SOL     OW36728   0.375   8.265  11.859  0.1953 -0.2225  0.2468
 8933SOL    HW136729   0.338   8.264  11.947  1.8831  0.4911  0.9949
 8933SOL    HW236730   0.413   8.352  11.849  2.4594 -1.1797 -0.0952
 8934SOL     OW36731  10.271   0.430   2.066  0.2775  0.1494  0.2139
 8934SOL    HW136732  10.360   0.445   2.099  0.4865 -1.7161  0.6354
 8934SOL    HW236733  10.276   0.346   2.021 -1.5902 -0.7364  1.5368
 8935SOL     OW36734   0.581   2.196   9.793  0.3609 -0.1675 -0.2847
 8935SOL    HW136735   0.657   2.157   9.751  0.0196 -0.9445 -0.1981
 8935SOL    HW236736   0.550   2.263   9.731 -0.0272 -1.1678 -1.2037
 8936SOL     OW36737   1.068  11.057   6.531 -0.2413 -0.3557  0.4101
 8936SOL    HW136738   1.135  11.041   6.598 -1.1146 -1.8478  0.9828
 8936SOL    HW236739   1.093  11.000   6.458  0.0587  0.3923 -0.0836
 8937SOL     OW36740   7.473  13.109   9.508 -0.0615  0.6184  0.5659
 8937SOL    HW136741   7.531  13.135   9.437  0.1044 -0.1374  0.4257
 8937SOL    HW236742   7.393  13.161   9.493  0.1417  0.8019  0.0928
 8938SOL     OW36743  11.986  11.865   9.042 -0.2088 -0.2631 -0.2406
 8938SOL    HW136744  12.079  11.845   9.048 -0.4667 -1.2187  0.9761
 8938SOL    HW236745  11.972  11.887   8.950  1.2898  0.3459 -0.3483
 8939SOL     OW36746  13.142   2.933   7.078  0.3465 -0.6821  0.4876
 8939SOL    HW136747  13.064   2.932   7.021  0.0101  0.5676  0.8967
 8939SOL    HW236748  13.148   2.844   7.111 -1.4301 -0.6282  1.1062
 8940SOL     OW36749   1.333   1.325   0.921  0.0742  0.2928  0.2301
 8940SOL    HW136750   1.291   1.275   0.991 -0.0416  0.4792  0.2957
 8940SOL    HW236751   1.370   1.259   0.863 -0.9888  0.0845 -0.2507
 8941SOL     OW36752  12.428   6.921   1.162  0.0347  0.3499 -0.0706
 8941SOL    HW136753  12.475   6.908   1.080  0.9223 -0.0383  0.4875
 8941SOL    HW236754  12.361   6.987   1.141 -0.5076 -0.5758 -1.3871
 8942SOL     OW36755   2.134   7.088   9.510  0.2316 -0.5622  0.4590
 8942SOL    HW136756   2.101   7.177   9.521  1.6480 -0.2492  2.9743
 8942SOL    HW236757   2.056   7.035   9.496 -0.8157  0.8314  0.7798
 8943SOL     OW36758  10.623   4.849   2.791 -0.1632  0.3351  0.2425
 8943SOL    HW136759  10.531   4.876   2.794  0.0180  1.0889 -0.5911
 8943SOL    HW236760  10.669   4.916   2.842  0.0753  0.6881 -0.4232
 8944SOL     OW36761   4.470  11.890   2.923  0.6114 -0.3678 -0.5653
 8944SOL    HW136762   4.405  11.959   2.935  1.0410 -0.1914  0.9414
 8944SOL    HW236763   4.420  11.809   2.929  0.4163 -0.2203 -0.1530
 8945SOL     OW36764  12.123  11.879   9.841  0.0810  0.3087  0.4205
 8945SOL    HW136765  12.109  11.844   9.753 -0.2399  0.9704  0.2047
 8945SOL    HW236766  12.117  11.974   9.830 -0.4559  0.3749  1.2419
 8946SOL     OW36767   5.151   8.583   4.191  0.0824 -0.2340 -0.0356
 8946SOL    HW136768   5.232   8.536   4.171  0.6098 -0.3277  2.1277
 8946SOL    HW236769   5.179   8.656   4.247 -1.3981 -0.7258  1.4103
 8947SOL     OW36770   4.244   6.563  13.044 -0.0438 -0.7750  0.6842
 8947SOL    HW136771   4.259   6.599  13.132  1.0236 -2.3675  1.1915
 8947SOL    HW236772   4.314   6.601  12.991 -0.3005 -0.3273  0.6544
 8948SOL     OW36773   6.701  11.153   0.041  0.0949  0.4960  0.0006
 8948SOL    HW136774   6.608  11.163   0.023 -0.4113 -0.5333  1.7936
 8948SOL    HW236775   6.722  11.064   0.014  0.0871  0.0768  1.3054
 8949SOL     OW36776   1.829   8.603  10.726 -0.6174  0.4231  0.6591
 8949SOL    HW136777   1.919   8.582  10.751  0.1481  0.5478 -1.7193
 8949SOL    HW236778   1.794   8.522  10.690 -0.9331  0.7525  0.2068
 8950SOL     OW36779  11.518  12.901   0.754  0.1757 -0.3110 -0.0557
 8950SOL    HW136780  11.442  12.887   0.810  0.5004  0.1786  0.5136
 8950SOL    HW236781  11.566  12.973   0.795 -0.4469  1.2133 -1.8717
 8951SOL     OW36782   9.150   6.132  12.362 -0.4882 -0.4571 -0.2218
 8951SOL    HW136783   9.146   6.118  12.457  0.1518  0.8743  0.0325
 8951SOL    HW236784   9.175   6.047  12.326 -3.0708 -1.6528  0.5482
 8952SOL     OW36785   1.086   0.169   9.961  0.3134 -0.1462 -0.5558
 8952SOL    HW136786   1.064   0.242  10.018 -1.7455 -1.0859 -0.0575
 8952SOL    HW236787   1.151   0.119  10.009 -0.7104 -0.4154  0.5985
 8953SOL     OW36788  11.772   8.679   4.539  0.0602 -0.4438 -0.2619
 8953SOL    HW136789  11.723   8.597   4.535  0.3448 -0.7085  1.0461
 8953SOL    HW236790  11.716   8.739   4.588  0.0091  0.0273 -0.8935
 8954SOL     OW36791  11.432  12.768   0.562  0.1502 -0.1286  0.5296
 8954SOL    HW136792  11.341  12.753   0.588 -0.2767  1.8401  0.3254
 8954SOL    HW236793  11.471  12.812   0.637  1.3482 -2.0829  1.1309
 8955SOL     OW36794   7.382  11.403   5.104  0.2215  0.5854 -0.5026
 8955SOL    HW136795   7.354  11.458   5.177 -0.4256 -0.9677  0.4796
 8955SOL    HW236796   7.300  11.367   5.068  0.6599 -0.4879 -0.4803
 8956SOL     OW36797   5.722  10.687   0.896  0.1359  0.3131 -0.1014
 8956SOL    HW136798   5.711  10.760   0.957  0.2277 -0.8936  1.3884
 8956SOL    HW236799   5.634  10.653   0.882  0.3017 -0.5491  0.8244
 8957SOL     OW36800   3.369   9.949   1.273  0.4363  0.0908 -0.2721
 8957SOL    HW136801   3.276   9.968   1.285  0.4509  0.1744 -0.2897
 8957SOL    HW236802   3.401   9.933   1.362  0.6888  1.3958 -0.1071
 8958SOL     OW36803   8.721   3.257  12.988  0.0009  0.2266 -0.7040
 8958SOL    HW136804   8.807   3.237  13.023  0.6990  0.5948 -2.1364
 8958SOL    HW236805   8.719   3.352  12.979 -1.3854  0.4485  1.2891
 8959SOL     OW36806   6.221  12.624   1.413  0.6527 -0.0682  0.5905
 8959SOL    HW136807   6.274  12.669   1.478  0.5157 -1.4604  1.7091
 8959SOL    HW236808   6.230  12.531   1.435 -2.4266 -0.3784  0.9924
 8960SOL     OW36809   5.122  10.074   4.219 -0.3816  0.1302 -0.0679
 8960SOL    HW136810   5.033  10.089   4.187  0.4861 -0.2638 -2.8952
 8960SOL    HW236811   5.143  10.154   4.268 -1.7651  0.8767 -0.6337
 8961SOL     OW36812  11.934   4.487   3.267  0.1620 -0.0182  0.2436
 8961SOL    HW136813  11.925   4.552   3.336 -0.5247 -0.6605  0.7717
 8961SOL    HW236814  11.879   4.414   3.295 -0.6892 -0.0150 -1.3135
 8962SOL     OW36815   5.649   4.692   9.376  0.1179  0.2431  0.3643
 8962SOL    HW136816   5.689   4.627   9.434 -2.3365 -1.6140  0.1301
 8962SOL    HW236817   5.723   4.742   9.342  2.0036 -1.4578  1.6936
 8963SOL     OW36818   7.961   8.308   2.197  0.0230  0.2045 -0.7091
 8963SOL    HW136819   7.948   8.271   2.109  2.9803 -1.0621 -0.7351
 8963SOL    HW236820   7.876   8.348   2.219 -1.6823 -1.8150 -2.9865
 8964SOL     OW36821   9.985  10.447   3.109  0.4765  0.6530  0.8019
 8964SOL    HW136822   9.974  10.528   3.159  0.7335  0.5167  1.0829
 8964SOL    HW236823   9.896  10.420   3.088  0.3818  0.9254  0.8423
 8965SOL     OW36824  11.907   7.482  10.485 -0.0875 -0.1492 -0.1715
 8965SOL    HW136825  11.926   7.548  10.552  1.0091  0.1209 -0.7192
 8965SOL    HW236826  11.993   7.456  10.452 -0.5782 -0.7672 -1.0121
 8966SOL     OW36827   3.686   7.164   5.465 -0.6227 -0.2455 -0.3318
 8966SOL    HW136828   3.739   7.134   5.391 -0.4130 -1.3386  0.2343
 8966SOL    HW236829   3.619   7.096   5.475 -0.6327 -0.1234  0.4891
 8967SOL     OW36830  12.171   1.857   4.879  0.6541  0.5316 -0.2238
 8967SOL    HW136831  12.230   1.799   4.831  0.5963  0.6940 -0.4955
 8967SOL    HW236832  12.120   1.800   4.936  1.5203  0.4484  0.4868
 8968SOL     OW36833   8.568  10.555  12.996 -0.0473  0.3129  0.0154
 8968SOL    HW136834   8.495  10.499  12.971 -0.1819  0.1487  0.7504
 8968SOL    HW236835   8.573  10.621  12.926  0.9858 -1.3855 -1.6203
 8969SOL     OW36836   0.720  13.106  11.604 -0.2883  0.0118  0.0057
 8969SOL    HW136837   0.658  13.037  11.577 -2.3096  1.5465  0.4907
 8969SOL    HW236838   0.772  13.066  11.673 -2.1804 -0.7423  1.0709
 8970SOL     OW36839   3.453   5.215   9.678  0.6519  0.1819  0.2897
 8970SOL    HW136840   3.500   5.166   9.746 -0.2331 -0.7819  0.2468
 8970SOL    HW236841   3.520   5.269   9.636  1.8112 -1.3856 -0.0056
 8971SOL     OW36842   6.115   3.931   4.078 -0.3563  0.0281  0.0229
 8971SOL    HW136843   6.188   3.904   4.135 -0.4209 -0.4975 -0.1303
 8971SOL    HW236844   6.117   4.026   4.079 -0.4410  0.0304  1.0149
 8972SOL     OW36845   8.433  11.554   0.017  0.3849 -0.0303  0.2402
 8972SOL    HW136846   8.485  11.635   0.018  0.2387  0.0746 -0.4130
 8972SOL    HW236847   8.474  11.499   0.085  0.4503  0.6076  0.7255
 8973SOL     OW36848  11.520  11.290   6.363  0.0006 -0.3660  0.1820
 8973SOL    HW136849  11.467  11.244   6.297 -0.3005 -2.0468  1.5277
 8973SOL    HW236850  11.610  11.269   6.340  0.2112  2.2676 -1.9456
 8974SOL     OW36851   7.307   0.994  12.483  0.5371  0.2969  0.5380
 8974SOL    HW136852   7.327   0.907  12.447 -0.8318 -0.3633  1.3155
 8974SOL    HW236853   7.212   0.997  12.489  0.5823  1.6798  0.9669
 8975SOL     OW36854   8.703  10.214   3.376 -0.1204 -0.0282  0.4125
 8975SOL    HW136855   8.631  10.219   3.314 -1.1074 -0.8164  1.4491
 8975SOL    HW236856   8.771  10.165   3.329 -0.5014  0.1395 -0.3366
 8976SOL     OW36857   7.985   5.183   3.648 -0.0994 -0.4103  0.2129
 8976SOL    HW136858   8.044   5.254   3.624 -2.4936  0.9962 -1.9421
 8976SOL    HW236859   7.903   5.226   3.672 -0.9604 -2.3605  0.9920
 8977SOL     OW36860   7.849   6.960   6.391 -0.7521  0.2516 -0.2075
 8977SOL    HW136861   7.837   6.911   6.473 -1.7018 -1.2684 -1.2078
 8977SOL    HW236862   7.773   6.938   6.338 -0.5752  1.8678 -1.2123
 8978SOL     OW36863   0.709   2.109   1.648  0.0706 -0.3633 -0.3260
 8978SOL    HW136864   0.798   2.141   1.658  0.2772 -0.3623 -1.9162
 8978SOL    HW236865   0.683   2.083   1.736  1.8546 -0.9144  0.0844
 8979SOL     OW36866   4.183   0.964   5.313  0.0760  0.1907  0.1780
 8979SOL    HW136867   4.111   0.948   5.253 -1.3810  0.2058  1.8409
 8979SOL    HW236868   4.162   1.047   5.355  1.5989  0.7057 -0.0000
 8980SOL     OW36869   3.700   0.916   2.226 -0.3883  0.2803 -0.1509
 8980SOL    HW136870   3.706   0.963   2.309  0.4480 -0.6329  0.3217
 8980SOL    HW236871   3.692   0.985   2.160  0.4009  1.0839  0.5653
 8981SOL     OW36872   7.691  10.435  12.682  0.2883 -0.0191 -0.4741
 8981SOL    HW136873   7.643  10.418  12.763  0.8805  1.0827  0.1322
 8981SOL    HW236874   7.774  10.388  12.693 -0.0784 -0.7963 -0.9375
 8982SOL     OW36875   7.610   9.936  10.020 -0.0344  0.0358  0.2780
 8982SOL    HW136876   7.534   9.889   9.988 -0.7359  1.3608 -0.0804
 8982SOL    HW236877   7.574  10.004  10.078  1.0701 -1.0849  2.4123
 8983SOL     OW36878   9.593   2.566   1.586  0.0403 -0.2957  0.0651
 8983SOL    HW136879   9.613   2.544   1.677  1.4415 -0.2144 -0.1932
 8983SOL    HW236880   9.510   2.522   1.568 -0.4702  0.0282  1.4919
 8984SOL     OW36881   3.622   5.319   3.101 -0.5430 -0.0398 -0.2221
 8984SOL    HW136882   3.593   5.235   3.136 -3.1340  0.6888 -0.3965
 8984SOL    HW236883   3.706   5.335   3.144 -0.5421 -2.1490  0.7052
 8985SOL     OW36884  11.180   8.450  13.267  0.4820 -0.7178 -0.1008
 8985SOL    HW136885  11.231   8.433  13.346  0.1453 -0.4275  0.1831
 8985SOL    HW236886  11.231   8.411  13.196  1.0988 -0.4219  0.1794
 8986SOL     OW36887   3.973   8.666   0.523  0.2341 -0.2796  0.2952
 8986SOL    HW136888   4.029   8.736   0.491  1.1707 -1.2071 -0.1747
 8986SOL    HW236889   4.000   8.652   0.613 -0.4170  0.3991  0.6050
 8987SOL     OW36890   0.368   6.850   7.237 -0.1758 -0.4818  0.6290
 8987SOL    HW136891   0.323   6.782   7.286 -1.9540 -0.0400 -0.3267
 8987SOL    HW236892   0.324   6.852   7.152  0.8410  0.8347  0.1005
 8988SOL     OW36893   5.314   0.076   7.706  0.9622 -0.0256  0.0570
 8988SOL    HW136894   5.269   0.161   7.708  0.7703 -0.1389  0.6470
 8988SOL    HW236895   5.355   0.073   7.620 -1.3635 -0.5247 -1.1187
 8989SOL     OW36896   1.577  12.787   3.764  0.1883  0.3546  0.6439
 8989SOL    HW136897   1.549  12.722   3.699  1.8920  0.0731  0.1529
 8989SOL    HW236898   1.526  12.765   3.842 -0.3772 -0.6151  0.0298
 8990SOL     OW36899  11.679   8.836   7.419 -0.1019 -0.1834 -0.0656
 8990SOL    HW136900  11.618   8.908   7.433 -1.9505 -1.2752 -1.9488
 8990SOL    HW236901  11.656   8.802   7.333  0.3796 -3.3103  0.9296
 8991SOL     OW36902   9.323   0.237   2.518 -0.2241 -0.3179  0.1962
 8991SOL    HW136903   9.415   0.258   2.538 -0.4046 -0.9869  1.8827
 8991SOL    HW236904   9.273   0.298   2.572 -0.7591 -1.2276  0.7437
 8992SOL     OW36905   0.985   2.966   7.616  0.4181 -0.6153 -0.1489
 8992SOL    HW136906   0.890   2.974   7.620  0.3181  0.3203 -2.6461
 8992SOL    HW236907   1.001   2.908   7.542  1.8200 -1.2921  0.6361
 8993SOL     OW36908   2.257  12.134   0.266 -0.7974  0.1918 -0.1927
 8993SOL    HW136909   2.210  12.055   0.238 -0.1522 -0.4288  0.4456
 8993SOL    HW236910   2.256  12.130   0.362  3.1072 -1.4416 -0.0489
 8994SOL     OW36911  11.038   5.882   4.791  0.2021 -0.6679  0.0762
 8994SOL    HW136912  11.120   5.891   4.742  0.3532  0.0577  0.4366
 8994SOL    HW236913  10.985   5.823   4.739  0.2652  0.2622 -1.0806
 8995SOL     OW36914   8.909   9.428   9.010  0.1710  0.2356  0.0725
 8995SOL    HW136915   8.982   9.460   8.957  0.0225 -0.1077 -0.3480
 8995SOL    HW236916   8.831   9.446   8.957  0.0880 -0.8364 -0.1870
 8996SOL     OW36917   5.061   6.949   8.918 -0.1152 -0.3737  0.0801
 8996SOL    HW136918   5.088   7.006   8.846 -2.2848 -0.1382 -0.6418
 8996SOL    HW236919   5.017   7.007   8.980  1.5830 -0.6039  1.5664
 8997SOL     OW36920   7.862   8.750   6.645 -0.0112  0.1758  0.6356
 8997SOL    HW136921   7.826   8.675   6.694  1.7708  0.8849  3.2354
 8997SOL    HW236922   7.810   8.752   6.565 -2.1078 -2.0443  1.7699
 8998SOL     OW36923   9.763  13.232   3.233  0.3916  0.8134  0.1008
 8998SOL    HW136924   9.797  13.219   3.322  0.5027  1.6494  0.1905
 8998SOL    HW236925   9.774  13.147   3.190  3.5615  1.2698 -0.2117
 8999SOL     OW36926  10.598   1.279   9.696 -0.4385  0.2564 -0.1379
 8999SOL    HW136927  10.647   1.339   9.751 -0.7792  3.0718 -2.6645
 8999SOL    HW236928  10.664   1.220   9.658  0.8477  2.6356 -1.8462
 9000SOL     OW36929   1.214   5.018  12.182 -0.4644 -0.1214 -0.2131
 9000SOL    HW136930   1.279   5.077  12.222 -0.0467 -0.0172 -1.0283
 9000SOL    HW236931   1.130   5.060  12.198 -0.3774 -0.4007  1.1129
 9001SOL     OW36932   2.566   5.240   1.751 -0.3299  0.3803 -0.5920
 9001SOL    HW136933   2.591   5.301   1.820 -1.3943  0.1069  0.0548
 9001SOL    HW236934   2.649   5.212   1.712  0.3322  0.1551  0.9187
 9002SOL     OW36935   3.506   2.853   8.795 -0.7762 -0.4402 -0.3490
 9002SOL    HW136936   3.582   2.796   8.787 -0.2023  0.5324 -2.9814
 9002SOL    HW236937   3.432   2.798   8.770 -0.3353 -0.2876 -2.0774
 9003SOL     OW36938   3.297  11.312   1.566  0.4860  0.1492  0.6662
 9003SOL    HW136939   3.275  11.394   1.522  1.4990 -0.5004 -1.1131
 9003SOL    HW236940   3.380  11.330   1.609  1.0031 -0.0972 -0.2107
 9004SOL     OW36941   1.909  11.470   6.109  0.4264 -0.3027  0.3141
 9004SOL    HW136942   1.917  11.524   6.030 -0.9147 -2.3642 -1.3255
 9004SOL    HW236943   1.999  11.440   6.125  0.5673 -0.7282 -1.1027
 9005SOL     OW36944  11.961   8.273   3.083  0.5894 -0.1661  0.4266
 9005SOL    HW136945  12.030   8.208   3.071  0.4969  0.0425 -1.5712
 9005SOL    HW236946  11.912   8.243   3.160 -0.0759 -3.0327 -0.9816
 9006SOL     OW36947  12.429   9.573  11.006 -0.6227 -0.4363 -0.4394
 9006SOL    HW136948  12.398   9.508  10.943  0.3939 -0.5702 -0.8171
 9006SOL    HW236949  12.349   9.603  11.050 -1.5558  0.5738 -2.6555
 9007SOL     OW36950   4.634   0.833  10.114  0.0661  0.3879  0.3674
 9007SOL    HW136951   4.609   0.783  10.036  0.4322  1.3867 -0.4204
 9007SOL    HW236952   4.610   0.777  10.187 -0.1455 -0.6468 -0.4660
 9008SOL     OW36953   1.839   7.327   1.536 -0.1036  0.0097  0.5478
 9008SOL    HW136954   1.852   7.232   1.529 -0.0641  0.1133 -1.1346
 9008SOL    HW236955   1.858   7.360   1.448  1.0820  1.7418  1.4206
 9009SOL     OW36956   2.451  12.430   9.030  0.3251 -0.1553  0.2938
 9009SOL    HW136957   2.447  12.410   9.124 -0.1126  0.5716  0.4417
 9009SOL    HW236958   2.475  12.348   8.989  0.6516 -0.4549  1.0603
 9010SOL     OW36959   1.690   3.154  13.106 -0.2518  0.5519  0.1948
 9010SOL    HW136960   1.754   3.209  13.059 -0.7901  1.1307  0.1251
 9010SOL    HW236961   1.608   3.202  13.098 -0.4725  0.3553  1.2270
 9011SOL     OW36962   6.494   2.401   0.374  0.2534  0.3186 -0.3088
 9011SOL    HW136963   6.478   2.357   0.290 -0.0124  0.3648 -0.2817
 9011SOL    HW236964   6.584   2.435   0.366  0.6096 -0.5622 -0.1834
 9012SOL     OW36965   5.771  10.481  11.063 -0.2053 -0.4385  0.1038
 9012SOL    HW136966   5.792  10.466  11.155  0.2989 -0.5767 -0.0263
 9012SOL    HW236967   5.800  10.400  11.019 -0.0337 -0.1990 -0.2306
 9013SOL     OW36968   1.350   6.084   8.618  0.3950 -0.1026  0.1398
 9013SOL    HW136969   1.434   6.128   8.633  0.3389  0.5757 -1.3363
 9013SOL    HW236970   1.319   6.119   8.534 -0.2673 -2.0455 -0.4923
 9014SOL     OW36971  12.578   0.721   9.766 -0.5174  0.4718 -0.6578
 9014SOL    HW136972  12.617   0.633   9.766 -0.1368  0.6341  0.0728
 9014SOL    HW236973  12.494   0.710   9.722 -0.1699 -0.1197 -1.2057
 9015SOL     OW36974   9.092   7.281  12.904 -0.4294  0.0341 -0.3850
 9015SOL    HW136975   9.034   7.354  12.925  1.2814  1.1175  0.8385
 9015SOL    HW236976   9.052   7.240  12.827 -1.2452  2.5205 -1.4137
 9016SOL     OW36977  11.720   1.714  11.530  0.2471 -0.5029  0.6971
 9016SOL    HW136978  11.742   1.660  11.606  1.6104 -2.1183 -0.7441
 9016SOL    HW236979  11.765   1.671  11.457 -0.5400  1.3063 -0.9347
 9017SOL     OW36980  11.317  13.100   3.255  0.3538  0.2781 -0.2421
 9017SOL    HW136981  11.409  13.095   3.278  0.9312  1.0826 -2.1458
 9017SOL    HW236982  11.309  13.045   3.177 -0.4323  1.3623 -0.9627
 9018SOL     OW36983   3.736   4.507   5.248 -0.3459 -0.4660 -0.3798
 9018SOL    HW136984   3.705   4.416   5.253 -0.7917 -0.3863 -1.3743
 9018SOL    HW236985   3.825   4.504   5.282 -0.8399 -1.0204  0.9341
 9019SOL     OW36986   1.435   6.318   4.375  0.3228  0.4901 -0.5353
 9019SOL    HW136987   1.432   6.391   4.437  0.3762 -0.2124  0.3061
 9019SOL    HW236988   1.385   6.349   4.299  0.7776  1.5910 -0.4039
 9020SOL     OW36989   2.820   2.196   9.062  0.4662 -0.0824  0.4608
 9020SOL    HW136990   2.806   2.182   9.155 -0.1472 -0.9047  0.2532
 9020SOL    HW236991   2.750   2.255   9.036  1.9055  1.9490  0.9339
 9021SOL     OW36992   5.578   6.443   6.531  0.5289 -0.5058  0.6880
 9021SOL    HW136993   5.568   6.456   6.437 -0.8541 -0.9441  0.7442
 9021SOL    HW236994   5.586   6.531   6.567 -0.4861 -0.2381  0.2985
 9022SOL     OW36995   2.545   8.937  13.153  0.3402 -0.6455 -0.1995
 9022SOL    HW136996   2.554   9.027  13.183  1.6693 -0.0594 -2.1462
 9022SOL    HW236997   2.622   8.892  13.187 -0.9671 -1.4678  1.8867
 9023SOL     OW36998   2.958   4.764   2.905  0.0551  0.3856 -0.0575
 9023SOL    HW136999   3.051   4.744   2.912  0.0836  0.6797  0.4357
 9023SOL    HW237000   2.945   4.839   2.963 -1.0058 -1.4019  2.1422
 9024SOL     OW37001   2.107   0.997   2.058  0.0670  0.3171 -0.0670
 9024SOL    HW137002   2.119   0.956   1.972 -0.5128  0.6568 -0.3200
 9024SOL    HW237003   2.159   0.944   2.118 -1.1074 -1.1398 -0.2839
 9025SOL     OW37004   5.355   1.501   8.398 -0.3493  0.8793 -0.4206
 9025SOL    HW137005   5.284   1.565   8.398 -0.7599  0.4262 -0.9811
 9025SOL    HW237006   5.312   1.417   8.414  0.0536  0.5939 -0.8256
 9026SOL     OW37007   5.472   8.232   2.576 -0.0648  0.0914 -0.2194
 9026SOL    HW137008   5.500   8.248   2.666  0.0504  0.1620 -0.2681
 9026SOL    HW237009   5.387   8.190   2.585 -0.3583  0.7104 -0.0922
 9027SOL     OW37010  13.254   6.081   6.887 -0.4238  0.5753  0.5030
 9027SOL    HW137011  13.319   6.063   6.955  0.1621  0.1771 -0.1427
 9027SOL    HW237012  13.306   6.104   6.810 -0.9871 -1.0207 -0.3957
 9028SOL     OW37013   2.600   3.259   0.366 -0.2048  0.3523 -0.5936
 9028SOL    HW137014   2.689   3.248   0.331 -0.0589  2.9472 -1.2738
 9028SOL    HW237015   2.610   3.326   0.434 -1.2250 -1.4381  1.4436
 9029SOL     OW37016   5.021  10.870   1.533  0.1475  0.0639  0.5550
 9029SOL    HW137017   5.077  10.849   1.608  0.1930  0.5666  0.6649
 9029SOL    HW237018   5.003  10.963   1.542  0.5148  0.2318 -0.2992
 9030SOL     OW37019   4.714   7.617   0.755 -0.0584 -0.5547  0.2641
 9030SOL    HW137020   4.762   7.555   0.810 -0.5427 -1.4439 -0.2907
 9030SOL    HW237021   4.782   7.675   0.720  0.3983 -0.7433  0.8154
 9031SOL     OW37022  10.462   6.683   9.642 -0.3859 -0.1624  0.5928
 9031SOL    HW137023  10.519   6.612   9.671 -0.5794 -1.0447 -1.0353
 9031SOL    HW237024  10.518   6.738   9.588 -0.0257  1.4493  2.4939
 9032SOL     OW37025   0.586  10.271   8.596 -0.2840 -0.1695 -0.3928
 9032SOL    HW137026   0.604  10.332   8.667 -2.7568  0.5951 -0.3574
 9032SOL    HW237027   0.549  10.194   8.639  0.5389 -0.7442 -0.6707
 9033SOL     OW37028   7.014   2.320   1.578 -0.4126  0.7053  0.0591
 9033SOL    HW137029   7.054   2.239   1.544  1.2893  1.0774  1.0738
 9033SOL    HW237030   6.935   2.290   1.623  0.9184 -0.6285  1.6464
 9034SOL     OW37031  12.453   6.543  12.878  0.2622  0.6538 -0.4003
 9034SOL    HW137032  12.386   6.510  12.938 -0.2974 -0.7916 -1.7677
 9034SOL    HW237033  12.430   6.635  12.864 -0.0755  0.7869  0.9081
 9035SOL     OW37034   8.923  10.506  12.422 -0.1973  0.1896 -0.0146
 9035SOL    HW137035   8.965  10.554  12.493 -0.3952  1.5708 -0.7960
 9035SOL    HW237036   8.882  10.574  12.369  0.6488 -0.7299 -1.9257
 9036SOL     OW37037   3.404  10.561   9.144  0.7011  0.2335 -0.7233
 9036SOL    HW137038   3.344  10.486   9.145 -0.1603  0.9122 -0.4292
 9036SOL    HW237039   3.462  10.544   9.070  1.5291 -1.4995  0.2572
 9037SOL     OW37040   2.787   8.724   2.420 -0.2382 -0.0102 -0.4600
 9037SOL    HW137041   2.768   8.634   2.392  0.9561 -0.3316 -0.3070
 9037SOL    HW237042   2.865   8.748   2.370 -0.5673  0.9657 -0.5230
 9038SOL     OW37043   7.644   3.022   8.486 -0.5534  0.0404  0.1242
 9038SOL    HW137044   7.631   3.065   8.402 -0.9971 -0.8730 -0.2953
 9038SOL    HW237045   7.649   3.093   8.550 -1.7391  0.6865 -0.4810
 9039SOL     OW37046   2.004   6.055   2.281 -0.2238 -0.5307  0.6313
 9039SOL    HW137047   1.910   6.052   2.265 -0.1369 -0.3435  0.0593
 9039SOL    HW237048   2.023   5.973   2.326 -0.6950 -0.4682  0.9501
 9040SOL     OW37049   6.281  10.932   9.796  0.2414 -0.2251 -0.0071
 9040SOL    HW137050   6.278  10.928   9.892 -0.3890 -0.7266 -0.0375
 9040SOL    HW237051   6.316  11.019   9.776  3.5590 -1.2623  0.6916
 9041SOL     OW37052  11.695   7.511   2.189  0.0195 -0.4269 -0.3226
 9041SOL    HW137053  11.776   7.489   2.234 -0.5366 -1.2440  0.3157
 9041SOL    HW237054  11.627   7.468   2.241 -0.7207 -0.6436 -1.4384
 9042SOL     OW37055   2.057   9.192   4.244  0.4198  0.6501 -0.3697
 9042SOL    HW137056   2.104   9.123   4.290  0.3259  0.8811  0.0818
 9042SOL    HW237057   2.109   9.208   4.165 -0.9145 -1.6851 -1.8127
 9043SOL     OW37058   6.656   1.331  11.573  0.3256 -0.3558 -0.3688
 9043SOL    HW137059   6.578   1.385  11.588 -0.8004 -1.4411 -1.9606
 9043SOL    HW237060   6.725   1.374  11.623 -1.0655  1.1899  0.3256
 9044SOL     OW37061  11.442  11.904   0.916 -0.1261 -0.1937  0.0622
 9044SOL    HW137062  11.396  11.936   0.993 -1.7635 -0.9873 -0.5419
 9044SOL    HW237063  11.374  11.893   0.850  1.1806  0.1101 -1.3996
 9045SOL     OW37064   7.435   0.940  10.960 -0.0722  0.2084 -0.6110
 9045SOL    HW137065   7.462   0.848  10.957 -0.0870  0.1625  0.4277
 9045SOL    HW237066   7.503   0.983  11.013 -1.9882  0.0791  2.1677
 9046SOL     OW37067   5.526  10.853   9.087  0.6875  0.2237  0.4223
 9046SOL    HW137068   5.523  10.781   9.151 -0.2564  0.1259  0.2800
 9046SOL    HW237069   5.440  10.852   9.046  1.1076  0.6235 -0.4964
 9047SOL     OW37070   6.517  12.473   4.904 -0.0817 -0.0207  0.6614
 9047SOL    HW137071   6.451  12.487   4.972 -0.2070  0.5689  0.4256
 9047SOL    HW237072   6.476  12.412   4.843 -0.3222  0.1566  0.6423
 9048SOL     OW37073  10.487   1.896   4.049  0.6193  0.1356 -0.3200
 9048SOL    HW137074  10.464   1.964   3.986  0.8908  0.3089 -0.2330
 9048SOL    HW237075  10.568   1.927   4.089  0.3624  0.1056  0.2282
 9049SOL     OW37076   0.706   4.428  11.384  0.3642 -0.3897  0.3515
 9049SOL    HW137077   0.677   4.352  11.434  1.2816 -0.8553  0.2025
 9049SOL    HW237078   0.758   4.391  11.312 -0.9972  0.2578 -1.0194
 9050SOL     OW37079   6.493   7.613   6.098 -0.2468 -0.9747  0.6170
 9050SOL    HW137080   6.487   7.544   6.164 -0.5234 -1.5593 -0.0093
 9050SOL    HW237081   6.402   7.639   6.082 -0.0565  1.3233  2.6593
 9051SOL     OW37082  11.217  11.139   1.761 -0.1052  0.1103 -0.1259
 9051SOL    HW137083  11.185  11.189   1.836 -1.5614 -0.2903 -0.4418
 9051SOL    HW237084  11.141  11.134   1.702 -0.1333 -2.6712  0.0156
 9052SOL     OW37085   4.070   9.931  10.485  0.1726 -0.6073  0.3403
 9052SOL    HW137086   3.981   9.928  10.520 -0.8831  1.5563 -1.8760
 9052SOL    HW237087   4.064   9.890  10.399  0.8447  1.1723 -0.6057
 9053SOL     OW37088   2.750   2.234   4.159  0.1498  0.4381  0.2004
 9053SOL    HW137089   2.746   2.300   4.228  0.8285  0.2522  0.4264
 9053SOL    HW237090   2.660   2.203   4.151  0.1140  0.2139  1.2540
 9054SOL     OW37091   2.556   6.314  11.651  0.2580  0.2480  0.3689
 9054SOL    HW137092   2.641   6.358  11.651  0.0055  1.0877 -3.5626
 9054SOL    HW237093   2.577   6.220  11.648  1.3394  0.4455 -3.0253
 9055SOL     OW37094   4.928  12.638   4.072  0.2499  0.1214  0.4641
 9055SOL    HW137095   4.855  12.696   4.092  0.4659  1.4407 -2.1280
 9055SOL    HW237096   5.001  12.697   4.052  1.0574 -1.0722 -0.2760
 9056SOL     OW37097   4.756  13.236   3.960  0.1879 -0.0583 -0.3424
 9056SOL    HW137098   4.720  13.308   4.013  1.8303  0.0884  0.6346
 9056SOL    HW237099   4.828  13.276   3.911  1.1197 -1.0019  0.2107
 9057SOL     OW37100   0.849   3.762  10.799  0.0405 -0.2252  0.6363
 9057SOL    HW137101   0.823   3.721  10.717 -1.2528  3.8558 -1.2131
 9057SOL    HW237102   0.767   3.782  10.844  0.6653 -0.4931  1.9620
 9058SOL     OW37103  11.455  12.675   4.382 -0.1162  0.3129  0.3343
 9058SOL    HW137104  11.524  12.736   4.406  0.0382 -0.2589  1.4170
 9058SOL    HW237105  11.427  12.703   4.295  0.9692  1.0015  0.1880
 9059SOL     OW37106   3.382   2.764   4.307 -0.0739  0.2617 -0.3573
 9059SOL    HW137107   3.292   2.732   4.300 -1.1509  3.2119 -1.0322
 9059SOL    HW237108   3.413   2.728   4.390 -1.9152 -0.6799 -0.0254
 9060SOL     OW37109   5.973   6.956  10.572 -0.1681 -0.7057 -0.1981
 9060SOL    HW137110   5.994   6.973  10.480  1.8630  0.8509  0.4764
 9060SOL    HW237111   5.888   6.997  10.586  0.6191  1.2792 -0.8423
 9061SOL     OW37112   3.805  12.267   3.942 -0.1525 -0.5461  0.1453
 9061SOL    HW137113   3.749  12.331   3.900  1.3361  0.7386  0.0401
 9061SOL    HW237114   3.824  12.203   3.874 -0.6684 -0.4571 -0.0884
 9062SOL     OW37115  10.822  12.413   9.092  0.0896 -0.1424  0.0518
 9062SOL    HW137116  10.759  12.477   9.060  1.0590  2.1754  2.4487
 9062SOL    HW237117  10.781  12.377   9.171  0.5208 -0.8206 -0.0282
 9063SOL     OW37118   5.110   2.870  13.280 -0.0325 -0.4723 -0.2901
 9063SOL    HW137119   5.081   2.962  13.275 -0.5760 -0.5829  0.6473
 9063SOL    HW237120   5.102   2.847  13.372 -0.9165 -1.7944 -0.6666
 9064SOL     OW37121  12.978   7.947   5.828  0.4163  0.1667  0.1118
 9064SOL    HW137122  12.909   7.931   5.893  1.1967 -0.0535  0.9067
 9064SOL    HW237123  12.937   8.007   5.765 -1.1744 -1.5588 -0.6050
 9065SOL     OW37124   2.210   9.060  10.964 -1.0264 -0.6747 -0.7766
 9065SOL    HW137125   2.266   9.135  10.942 -1.8410 -0.4040 -2.0296
 9065SOL    HW237126   2.136   9.099  11.011 -1.6177 -0.6132 -1.7197
 9066SOL     OW37127   4.386  11.257  12.051 -0.1632  0.0969 -0.0565
 9066SOL    HW137128   4.452  11.232  11.986  1.1152  1.4874  0.6352
 9066SOL    HW237129   4.392  11.352  12.056 -0.6937  0.0837  1.6020
 9067SOL     OW37130   2.013   0.944  10.302  0.0389 -0.2401 -0.0792
 9067SOL    HW137131   1.963   0.972  10.225  0.2938  2.4345  0.6375
 9067SOL    HW237132   2.083   1.008  10.310  0.4261 -0.8563  2.0023
 9068SOL     OW37133   4.498   8.884   2.515  0.3498 -0.5095 -0.2033
 9068SOL    HW137134   4.511   8.850   2.603  0.8815  1.2004  0.4211
 9068SOL    HW237135   4.423   8.944   2.523 -1.3424 -2.3169 -1.5152
 9069SOL     OW37136   3.703  10.420   9.647  0.5102  0.3349 -0.2996
 9069SOL    HW137137   3.717  10.371   9.728 -0.0387 -0.3139 -0.5824
 9069SOL    HW237138   3.634  10.483   9.669 -1.0789 -1.1700 -0.7584
 9070SOL     OW37139   8.227   4.237   9.583 -0.1431  0.2490 -0.1463
 9070SOL    HW137140   8.157   4.256   9.520  0.6830  1.8459 -0.6277
 9070SOL    HW237141   8.199   4.156   9.626 -3.0098  1.5836  0.7286
 9071SOL     OW37142   6.340   0.860  12.655 -0.2215  0.0527  0.2364
 9071SOL    HW137143   6.277   0.799  12.693  0.5963  0.2423  1.9815
 9071SOL    HW237144   6.310   0.946  12.682  0.7466  0.1473  1.0878
 9072SOL     OW37145   9.502   7.270  10.743  0.0353 -0.0948  0.1237
 9072SOL    HW137146   9.432   7.205  10.736 -0.6770  0.6291  0.3296
 9072SOL    HW237147   9.581   7.224  10.715 -0.6170 -0.7772 -0.6543
 9073SOL     OW37148   7.904   2.112   5.287 -0.3781  0.3095  0.2508
 9073SOL    HW137149   7.874   2.139   5.200  0.6865 -3.3866 -1.4936
 9073SOL    HW237150   7.996   2.091   5.275 -0.2041 -0.2731  2.2741
 9074SOL     OW37151   4.478  10.349   0.931 -0.0340 -0.3978 -0.1465
 9074SOL    HW137152   4.421  10.426   0.927  1.2435  0.5882 -0.0383
 9074SOL    HW237153   4.495  10.327   0.840  0.0449 -0.2105 -0.1768
 9075SOL     OW37154   0.304   4.377  11.590  0.3643  0.0051 -0.3471
 9075SOL    HW137155   0.221   4.423  11.607  1.0728  0.9319  0.7414
 9075SOL    HW237156   0.372   4.441  11.610  1.3722 -1.0946 -0.1125
 9076SOL     OW37157   6.379   1.554   5.477  0.2212 -0.1406  0.5474
 9076SOL    HW137158   6.458   1.501   5.478  0.5473  0.2966 -0.5505
 9076SOL    HW237159   6.309   1.492   5.498  0.8527 -0.5027  1.6522
 9077SOL     OW37160   3.084   7.198  11.763 -0.4011 -0.0372  0.1646
 9077SOL    HW137161   3.078   7.139  11.688 -1.6765 -0.2101  0.3891
 9077SOL    HW237162   3.025   7.161  11.828  1.0489 -0.1552  1.4627
 9078SOL     OW37163   4.041  11.338  10.087  0.1518 -0.1328 -0.1394
 9078SOL    HW137164   4.047  11.257  10.036 -1.0588  0.7994 -1.8646
 9078SOL    HW237165   3.998  11.400  10.029 -1.8728  0.8689  2.2528
 9079SOL     OW37166   9.242  11.266   0.045 -0.1754 -0.1277  0.0371
 9079SOL    HW137167   9.261  11.196   0.108 -1.6455 -0.6050 -0.0052
 9079SOL    HW237168   9.327  11.304   0.024  0.4117 -0.3440  1.8658
 9080SOL     OW37169  12.576   5.556  10.581 -0.1736  0.3504  0.5648
 9080SOL    HW137170  12.486   5.528  10.561 -0.0386  0.7947 -0.7449
 9080SOL    HW237171  12.584   5.642  10.539  0.7273  0.5161  1.0529
 9081SOL     OW37172   0.940  13.162   9.989 -0.0677  0.8930  0.2525
 9081SOL    HW137173   0.991  13.123  10.060 -0.5202 -0.1372  0.0381
 9081SOL    HW237174   0.993  13.147   9.911 -0.9273 -0.7228 -0.0611
 9082SOL     OW37175   7.487   7.754  10.796  0.4859  0.2290 -0.3903
 9082SOL    HW137176   7.442   7.721  10.873  0.0319 -0.2718 -0.8612
 9082SOL    HW237177   7.556   7.690  10.778  0.8490  0.5536 -0.1692
 9083SOL     OW37178   8.628   4.645   0.453  0.2789 -0.2425 -0.0484
 9083SOL    HW137179   8.596   4.720   0.402  0.5868  0.7733  1.1971
 9083SOL    HW237180   8.645   4.681   0.540  0.4137 -1.7816  0.5908
 9084SOL     OW37181   5.395  10.521  10.208  0.5174 -0.0389  0.6185
 9084SOL    HW137182   5.484  10.513  10.240  0.4393 -0.5644  0.7129
 9084SOL    HW237183   5.348  10.568  10.277  1.1152  1.8375 -0.1942
 9085SOL     OW37184   5.859  11.870   5.278  0.2720 -0.1911 -0.6092
 9085SOL    HW137185   5.777  11.880   5.326  0.2670  2.2364 -1.0095
 9085SOL    HW237186   5.924  11.916   5.331  0.8299  0.1686 -1.5828
 9086SOL     OW37187   2.068   6.018   1.623 -0.1815 -0.3061  0.2670
 9086SOL    HW137188   1.978   6.022   1.656 -0.4345  0.8397 -0.5351
 9086SOL    HW237189   2.114   5.966   1.689 -1.1339  0.2013  1.3770
 9087SOL     OW37190   5.210  10.428  13.009 -0.0666  0.1343  0.4315
 9087SOL    HW137191   5.165  10.366  12.952  1.9077  0.6522 -1.8686
 9087SOL    HW237192   5.202  10.391  13.097 -3.9320 -0.2986  0.0422
 9088SOL     OW37193   5.758  12.197   9.926 -0.1468 -0.0342  0.3378
 9088SOL    HW137194   5.770  12.164  10.014  0.0127 -2.2111 -0.4485
 9088SOL    HW237195   5.674  12.162   9.898  0.8342 -1.3087 -1.1583
 9089SOL     OW37196   2.921   6.489  11.293  0.0223 -0.2736  0.1015
 9089SOL    HW137197   2.843   6.480  11.238 -0.0775  1.9630 -0.2365
 9089SOL    HW237198   2.890   6.536  11.370  1.1272  1.3349 -0.3798
 9090SOL     OW37199   9.542   3.532   2.955  0.5640  0.0787 -0.2010
 9090SOL    HW137200   9.470   3.556   3.013  2.0216 -1.2855  2.3932
 9090SOL    HW237201   9.510   3.551   2.867 -2.0266  1.7172  0.9802
 9091SOL     OW37202   2.438   8.412   5.640  0.6706 -0.3043  0.0507
 9091SOL    HW137203   2.418   8.417   5.733  1.7415  0.4268  0.2527
 9091SOL    HW237204   2.395   8.488   5.602  1.1723  0.0201  0.1285
 9092SOL     OW37205  10.410   4.037  12.709 -0.0820 -0.1402  0.2631
 9092SOL    HW137206  10.419   4.004  12.799 -0.3521  0.4754  0.5228
 9092SOL    HW237207  10.500   4.050  12.679  0.0531 -1.6977 -0.0781
 9093SOL     OW37208   3.277  11.696   6.668 -0.0092 -0.4452  0.0871
 9093SOL    HW137209   3.324  11.750   6.605 -0.0347  1.2246  1.4277
 9093SOL    HW237210   3.224  11.758   6.718 -0.1341 -1.7366  1.6344
 9094SOL     OW37211   9.264   4.717   0.733 -0.1583 -0.6608 -0.1294
 9094SOL    HW137212   9.227   4.682   0.652 -0.9767  0.9796 -0.5143
 9094SOL    HW237213   9.349   4.674   0.741 -0.3689 -1.3854 -1.4800
 9095SOL     OW37214   1.017   5.903   6.198  0.3443 -0.0482 -0.4118
 9095SOL    HW137215   1.072   5.852   6.257 -0.6803  1.1410  1.7018
 9095SOL    HW237216   0.927   5.884   6.226 -0.1271  1.3472 -0.8567
 9096SOL     OW37217  10.186  12.543   8.838  0.2283  0.9051 -0.3089
 9096SOL    HW137218  10.143  12.608   8.892  0.5596  0.4116  0.5771
 9096SOL    HW237219  10.210  12.590   8.758 -1.8814  1.2012 -0.8281
 9097SOL     OW37220   6.735   5.102   2.452 -0.1673  0.1071 -0.3781
 9097SOL    HW137221   6.762   5.036   2.515  0.6221  0.0845 -0.7276
 9097SOL    HW237222   6.817   5.140   2.419 -0.5241 -0.2390 -1.7620
 9098SOL     OW37223   5.614   1.468  10.164  0.3460  0.4533  1.4707
 9098SOL    HW137224   5.690   1.468  10.107 -2.0951  1.6544 -2.1212
 9098SOL    HW237225   5.609   1.378  10.197  2.2761 -0.1242  0.3543
 9099SOL     OW37226   4.104   9.980   3.475  0.5948 -0.1250 -1.2108
 9099SOL    HW137227   4.067  10.044   3.536 -0.5147 -1.3508 -0.5332
 9099SOL    HW237228   4.183   9.949   3.517  0.4031 -0.1897 -0.8964
 9100SOL     OW37229   2.467  12.491   6.512 -0.1205 -0.4563 -0.4513
 9100SOL    HW137230   2.413  12.414   6.494 -0.3450 -0.8944  1.7515
 9100SOL    HW237231   2.503  12.516   6.427 -1.7539 -1.6885 -1.5637
 9101SOL     OW37232   4.316  11.434   9.003  0.0163  0.2021  0.2957
 9101SOL    HW137233   4.324  11.406   8.911  3.7242  1.4561  0.0567
 9101SOL    HW237234   4.248  11.502   9.001  0.4616  0.6687 -1.6736
 9102SOL     OW37235  13.271   7.101   9.887 -0.1770  0.0105 -0.0104
 9102SOL    HW137236  13.197   7.137   9.838 -0.7228 -1.0351  0.0228
 9102SOL    HW237237  13.292   7.019   9.843 -0.0202 -0.4426  0.8828
 9103SOL     OW37238   5.315   9.654  11.112  0.3133 -0.2247  0.0054
 9103SOL    HW137239   5.268   9.633  11.193  0.5615 -0.3678  0.1139
 9103SOL    HW237240   5.323   9.750  11.113  2.1332 -0.3351  1.1965
 9104SOL     OW37241   7.571  10.542   1.668 -0.2608 -0.7651 -0.5552
 9104SOL    HW137242   7.518  10.488   1.609  1.0211 -3.1066  0.2986
 9104SOL    HW237243   7.656  10.499   1.670  0.6706  1.0012  0.6788
 9105SOL     OW37244  12.676   9.035   7.723  0.7032 -0.1126 -0.3934
 9105SOL    HW137245  12.639   9.120   7.747  1.6932  0.1315  0.3215
 9105SOL    HW237246  12.693   9.043   7.629  0.0006  0.1626 -0.5079
 9106SOL     OW37247   3.154   0.289  12.155 -0.3515  0.2654  0.2105
 9106SOL    HW137248   3.062   0.314  12.165 -0.3135  0.5737 -0.2126
 9106SOL    HW237249   3.152   0.204  12.112 -0.4552 -0.0279  0.7893
 9107SOL     OW37250   2.742   3.500   4.084  0.1363 -0.0977 -0.3324
 9107SOL    HW137251   2.683   3.485   4.011  0.4901 -0.7146 -0.4907
 9107SOL    HW237252   2.760   3.594   4.081  0.8885 -0.2653 -1.6019
 9108SOL     OW37253  12.479   1.494   1.870  0.3291 -0.1402  0.4108
 9108SOL    HW137254  12.501   1.582   1.841 -0.2338 -0.5469 -1.3865
 9108SOL    HW237255  12.383   1.492   1.872  0.3429 -0.5632  0.9295
 9109SOL     OW37256   1.079   6.585   6.584 -0.2987  0.0227 -0.3516
 9109SOL    HW137257   0.987   6.602   6.566 -0.3732 -0.2519 -0.2273
 9109SOL    HW237258   1.126   6.643   6.524 -0.5452  1.9259  1.1886
 9110SOL     OW37259   4.262   0.316   5.520 -0.5102  0.0330  0.8672
 9110SOL    HW137260   4.243   0.383   5.585 -0.0650 -0.9269  2.0239
 9110SOL    HW237261   4.247   0.360   5.436 -1.1113  1.2983  1.5936
 9111SOL     OW37262   0.721  10.430   9.848  0.0157 -0.5671 -0.0556
 9111SOL    HW137263   0.654  10.497   9.865  0.4822 -0.3499  1.0128
 9111SOL    HW237264   0.701  10.399   9.760 -1.0345  0.0247 -0.0532
 9112SOL     OW37265   3.540  10.722  12.304  0.1443 -0.1733 -0.3486
 9112SOL    HW137266   3.622  10.682  12.331 -0.5927 -1.3015  0.2803
 9112SOL    HW237267   3.524  10.791  12.369  1.8201  1.7898 -1.8870
 9113SOL     OW37268   6.736  11.131   3.586 -0.0647 -0.0737  0.0838
 9113SOL    HW137269   6.811  11.075   3.569  0.2045  0.3708 -0.2054
 9113SOL    HW237270   6.684  11.082   3.650 -0.1541 -0.9380 -0.6246
 9114SOL     OW37271   7.511   0.351   3.047 -0.3783 -0.2686 -0.0938
 9114SOL    HW137272   7.549   0.278   2.998  0.2225  0.4069 -0.6637
 9114SOL    HW237273   7.484   0.413   2.980  1.8299  1.3576  0.4078
 9115SOL     OW37274   8.246   7.389   8.043  0.3684  0.1028  0.0746
 9115SOL    HW137275   8.169   7.444   8.032 -0.4480 -0.5885  1.8343
 9115SOL    HW237276   8.318   7.439   8.007 -0.8459  0.9391 -1.2553
 9116SOL     OW37277  10.296   0.845   5.012 -0.2889  0.8496 -0.0541
 9116SOL    HW137278  10.353   0.817   4.940  0.8775  0.2274  1.0614
 9116SOL    HW237279  10.356   0.855   5.087 -1.9526 -2.7106  2.0199
 9117SOL     OW37280  12.081  13.135   0.068 -0.3461 -0.2446 -0.4716
 9117SOL    HW137281  12.174  13.151   0.053 -0.1090 -0.3940  0.6952
 9117SOL    HW237282  12.068  13.043   0.049  0.3795 -0.9411  1.9845
 9118SOL     OW37283   4.587   3.845   5.346 -0.0170 -0.1323  0.2929
 9118SOL    HW137284   4.683   3.843   5.340 -0.0306 -1.7438  0.0960
 9118SOL    HW237285   4.559   3.896   5.270  0.6900  1.1236  0.8360
 9119SOL     OW37286   4.023   0.699   7.755  0.6503  0.0286 -0.1289
 9119SOL    HW137287   3.935   0.733   7.770  0.8734  0.5257  0.0661
 9119SOL    HW237288   4.041   0.643   7.830  0.5518  0.0316 -0.1036
 9120SOL     OW37289  12.873   5.480   8.187 -0.1426  0.0266  0.8307
 9120SOL    HW137290  12.957   5.514   8.159  0.3649 -0.0272  2.2213
 9120SOL    HW237291  12.891   5.433   8.268 -1.3480 -0.8516  0.6348
 9121SOL     OW37292  11.304   4.496   6.662  0.1634  0.3519  0.4017
 9121SOL    HW137293  11.254   4.475   6.583 -0.1868  2.2166  0.0905
 9121SOL    HW237294  11.356   4.572   6.638  1.7224 -0.3561  1.3344
 9122SOL     OW37295  12.277   6.263   7.944 -0.5240 -0.5187 -0.0690
 9122SOL    HW137296  12.338   6.296   8.010  0.6605 -1.2322 -0.7799
 9122SOL    HW237297  12.210   6.331   7.939  0.7780  0.8387 -0.0411
 9123SOL     OW37298   1.636   5.663   3.537 -0.0954 -0.5702 -0.1423
 9123SOL    HW137299   1.615   5.642   3.628  1.9915 -1.2125  0.2488
 9123SOL    HW237300   1.686   5.588   3.505 -2.8420 -1.5025 -2.6741
 9124SOL     OW37301   1.399   9.234   8.841  0.4796 -0.0700  0.3201
 9124SOL    HW137302   1.475   9.254   8.786  0.2348  0.8591  0.3026
 9124SOL    HW237303   1.414   9.144   8.870  0.7447 -0.4908 -1.0349
 9125SOL     OW37304  12.450   5.570   8.785  0.6596 -0.5712 -0.5393
 9125SOL    HW137305  12.385   5.632   8.817  0.8360 -1.2972  1.3946
 9125SOL    HW237306  12.399   5.491   8.764  0.7425 -0.6339 -0.5033
 9126SOL     OW37307   4.055  12.766  12.752  0.0273 -0.6190 -0.0758
 9126SOL    HW137308   4.022  12.846  12.712 -1.2661 -0.6111  0.9506
 9126SOL    HW237309   4.069  12.706  12.678  1.4476  0.6683 -0.9022
 9127SOL     OW37310   2.182  11.749  11.816 -0.6550 -0.4893  0.6033
 9127SOL    HW137311   2.175  11.821  11.879 -0.0445 -0.2857  0.4400
 9127SOL    HW237312   2.146  11.785  11.735  0.8262  0.0803  0.1629
 9128SOL     OW37313   4.597   4.803  10.617  0.1482  0.1270 -0.5392
 9128SOL    HW137314   4.550   4.809  10.535 -0.2046 -0.0954 -0.3562
 9128SOL    HW237315   4.548   4.858  10.678 -1.3484 -2.0242  0.3241
 9129SOL     OW37316   8.317   8.108   7.508  0.1274 -0.0161 -0.4121
 9129SOL    HW137317   8.250   8.094   7.441  0.7044 -3.5462 -0.4387
 9129SOL    HW237318   8.382   8.164   7.466 -0.5187 -0.4844 -2.1061
 9130SOL     OW37319  10.832  10.414   2.697  0.1893 -0.0299 -0.4606
 9130SOL    HW137320  10.890  10.490   2.685  0.1450 -0.1953 -1.8207
 9130SOL    HW237321  10.846  10.388   2.788 -0.3575  2.0600  0.2608
 9131SOL     OW37322  12.592  11.879   1.569  0.3188 -0.5143  0.0070
 9131SOL    HW137323  12.611  11.973   1.563  0.1303 -0.5943 -2.8683
 9131SOL    HW237324  12.662  11.845   1.624 -0.3846  1.4568  2.3061
 9132SOL     OW37325   0.384   1.754   0.301 -0.3838  0.0669 -0.3634
 9132SOL    HW137326   0.465   1.786   0.261 -0.8344 -1.2753 -2.4859
 9132SOL    HW237327   0.319   1.821   0.280 -0.5021 -0.3826 -1.5036
 9133SOL     OW37328   4.672   7.859   2.817  0.1222 -0.3757 -0.0898
 9133SOL    HW137329   4.738   7.800   2.851  1.6810 -0.2290 -2.5716
 9133SOL    HW237330   4.662   7.834   2.725 -1.1503  1.4678 -0.5273
 9134SOL     OW37331  11.980  11.256   9.279  0.2321 -0.3092  0.2095
 9134SOL    HW137332  11.955  11.273   9.370 -2.5359  2.5634 -0.9120
 9134SOL    HW237333  12.034  11.331   9.254 -0.5962 -0.1102 -1.0409
 9135SOL     OW37334   8.273   8.694   9.217  0.6386 -0.0429 -0.3555
 9135SOL    HW137335   8.260   8.623   9.154  0.4358  0.8408 -1.3529
 9135SOL    HW237336   8.193   8.696   9.269  0.7042 -0.6316 -0.2292
 9136SOL     OW37337  13.030   0.353   8.330 -0.2579  0.1033 -0.1772
 9136SOL    HW137338  13.122   0.368   8.311 -0.8681  3.9638 -0.7474
 9136SOL    HW237339  13.018   0.387   8.419 -1.4820  1.5201 -0.8498
 9137SOL     OW37340  10.707   3.710   2.569 -0.1291 -0.5811  0.5527
 9137SOL    HW137341  10.692   3.792   2.616  0.2399 -0.1583 -0.0592
 9137SOL    HW237342  10.741   3.650   2.636  1.5214  0.3564  0.5968
 9138SOL     OW37343   2.299  10.283   7.562 -0.0564 -0.1986  0.0729
 9138SOL    HW137344   2.211  10.316   7.580  0.1797  1.3885 -1.4024
 9138SOL    HW237345   2.286  10.190   7.541 -1.5481  0.2305 -1.0901
 9139SOL     OW37346  12.961  13.131   7.969  0.5030  0.0755 -0.1721
 9139SOL    HW137347  12.877  13.165   7.938  0.7360 -0.0665 -0.9967
 9139SOL    HW237348  12.953  13.128   8.064  0.3917  2.2284 -0.0728
 9140SOL     OW37349   4.970  13.159   6.896 -0.4384 -0.7342 -0.1713
 9140SOL    HW137350   4.918  13.141   6.818  0.6554  1.9199 -1.6524
 9140SOL    HW237351   4.908  13.199   6.958 -1.0536 -1.7485 -0.1110
 9141SOL     OW37352   4.369  13.078   1.283 -0.9737  0.1688  0.3957
 9141SOL    HW137353   4.445  13.119   1.240  0.2175 -0.6996  1.5944
 9141SOL    HW237354   4.303  13.147   1.284  0.1748  1.3261  0.2949
 9142SOL     OW37355   1.191   2.404  13.150  0.0466 -0.4770  0.0335
 9142SOL    HW137356   1.269   2.354  13.123  0.5875  0.2165  0.2976
 9142SOL    HW237357   1.135   2.339  13.194 -1.1422 -1.8406 -3.1413
 9143SOL     OW37358   0.392   7.945   2.816  0.3655  0.7633 -0.3316
 9143SOL    HW137359   0.479   7.981   2.794 -0.0294  1.2459 -1.1546
 9143SOL    HW237360   0.336   7.975   2.745 -0.2617 -0.4240 -0.3516
 9144SOL     OW37361   7.898   9.822  13.056  0.2880 -0.1912  0.5244
 9144SOL    HW137362   7.976   9.830  13.112 -0.9028 -1.3420  2.4960
 9144SOL    HW237363   7.882   9.728  13.052 -0.9874  0.0278  0.1441
 9145SOL     OW37364   5.765   6.701   0.408 -0.0570  0.6170 -0.3879
 9145SOL    HW137365   5.671   6.718   0.408 -0.6501 -2.1966 -0.0429
 9145SOL    HW237366   5.790   6.706   0.315 -0.8435 -0.0282 -0.6416
 9146SOL     OW37367   2.373   7.860   8.685 -0.4749 -0.7496 -0.5386
 9146SOL    HW137368   2.404   7.890   8.770  0.0787 -0.1901 -0.9328
 9146SOL    HW237369   2.414   7.919   8.621 -0.5056 -1.4557 -1.2295
 9147SOL     OW37370   3.839   5.540   4.868 -0.1419  0.0727 -0.0194
 9147SOL    HW137371   3.871   5.452   4.889 -0.5682  0.0198  0.4364
 9147SOL    HW237372   3.870   5.595   4.940 -2.2329 -0.2495  1.2258
 9148SOL     OW37373  11.338  10.722   1.551 -0.4818 -0.1708 -0.0703
 9148SOL    HW137374  11.256  10.728   1.502  1.2194  0.0843 -3.1346
 9148SOL    HW237375  11.401  10.772   1.499  1.8229 -0.9972  1.7407
 9149SOL     OW37376   3.316   3.594   8.172 -0.2597  0.2895 -0.2836
 9149SOL    HW137377   3.311   3.639   8.087 -0.3299 -1.3088 -1.1707
 9149SOL    HW237378   3.396   3.628   8.213  0.3479  0.3250 -1.4520
 9150SOL     OW37379   6.822   5.327  11.345  0.0367 -0.1553  0.7405
 9150SOL    HW137380   6.878   5.364  11.277  0.2548 -1.3078  0.2499
 9150SOL    HW237381   6.866   5.345  11.427  0.7226 -0.3412  0.4182
 9151SOL     OW37382  13.037   6.101   3.821 -0.7820  0.3706 -0.2615
 9151SOL    HW137383  13.070   6.056   3.898 -0.4798 -1.6986 -1.5175
 9151SOL    HW237384  12.943   6.082   3.821 -0.6303 -0.4667 -0.8708
 9152SOL     OW37385   6.804   4.692   9.950 -0.2724 -0.5902 -0.9203
 9152SOL    HW137386   6.835   4.769   9.998 -1.3413  0.5475 -1.9832
 9152SOL    HW237387   6.849   4.618   9.992  0.4538  0.5522  0.4114
 9153SOL     OW37388   1.664   7.843   0.312  0.2475  0.1244  0.1945
 9153SOL    HW137389   1.657   7.933   0.278  0.9079  0.9200  2.0092
 9153SOL    HW237390   1.758   7.828   0.318  0.1681 -1.2754 -1.4332
 9154SOL     OW37391  10.410  11.099   2.999  0.3435 -0.3361  0.2386
 9154SOL    HW137392  10.404  11.136   3.088  0.1732 -0.0874  0.1271
 9154SOL    HW237393  10.341  11.032   2.997  0.2026 -0.1918  0.2252
 9155SOL     OW37394   9.363   7.724   9.099  0.0554  0.2784 -0.6021
 9155SOL    HW137395   9.293   7.746   9.160 -1.3748 -2.6459 -1.0448
 9155SOL    HW237396   9.323   7.737   9.012  1.0026  1.2326 -0.9145
 9156SOL     OW37397   1.974   3.054   1.107 -0.1580 -0.0041 -0.1456
 9156SOL    HW137398   1.970   3.133   1.052 -1.3495  0.9986  1.2909
 9156SOL    HW237399   1.946   3.084   1.194  0.2889 -1.8280  0.6741
 9157SOL     OW37400   9.987   9.159   7.010  0.1104  0.5865  0.5540
 9157SOL    HW137401   9.895   9.144   6.992  0.3407  1.6963 -1.9442
 9157SOL    HW237402   9.990   9.247   7.048  0.2797  1.7677 -1.9725
 9158SOL     OW37403   7.510   1.245   9.958  0.4104  0.4235  0.3522
 9158SOL    HW137404   7.562   1.243   9.877  0.4378  0.5861  0.3656
 9158SOL    HW237405   7.484   1.336   9.968  1.3232  0.6214  1.1049
 9159SOL     OW37406   5.983   8.248   6.416  0.2256 -0.4317 -0.0086
 9159SOL    HW137407   6.014   8.204   6.495  0.3492 -1.4046 -0.5814
 9159SOL    HW237408   5.913   8.191   6.383  0.0763  0.0418 -0.5173
 9160SOL     OW37409   6.015   8.580   2.416 -0.4784 -0.6619  0.3080
 9160SOL    HW137410   6.033   8.646   2.349 -0.3264  0.4297  1.3950
 9160SOL    HW237411   5.919   8.579   2.422 -0.5133  2.1708  2.7858
 9161SOL     OW37412  12.151   0.200  10.103  0.0377 -0.4538 -0.6798
 9161SOL    HW137413  12.115   0.277  10.059  1.4468  0.6382  0.0182
 9161SOL    HW237414  12.082   0.172  10.163 -0.6913 -0.0905 -1.3254
 9162SOL     OW37415  11.732  13.039  11.326 -0.2026 -0.2536 -0.2513
 9162SOL    HW137416  11.732  13.088  11.408 -0.7068 -0.7844  0.0765
 9162SOL    HW237417  11.806  12.980  11.333  0.2153  0.2321 -0.5126
 9163SOL     OW37418  12.561   3.951   9.330  0.3393  0.0767 -0.3397
 9163SOL    HW137419  12.523   3.872   9.368 -0.0118  0.6980  0.6260
 9163SOL    HW237420  12.503   4.021   9.357  1.3134  0.8348 -0.1724
 9164SOL     OW37421   0.653   8.205   5.310  0.6215  0.3514  0.7501
 9164SOL    HW137422   0.746   8.227   5.306  0.6733 -0.0578 -0.7837
 9164SOL    HW237423   0.644   8.129   5.252 -0.8069  0.8966  0.2160
 9165SOL     OW37424  12.939  10.906  12.339  0.1959  0.0858 -0.0485
 9165SOL    HW137425  12.869  10.955  12.383 -0.5159 -0.1140 -0.9421
 9165SOL    HW237426  12.895  10.832  12.298  1.1615 -0.9172  0.6730
 9166SOL     OW37427  11.971   2.401   3.329  0.1910  0.0738 -0.3093
 9166SOL    HW137428  11.915   2.450   3.268 -0.4287 -1.9469 -1.4622
 9166SOL    HW237429  12.061   2.420   3.299 -0.0797 -0.2919 -1.4222
 9167SOL     OW37430  12.982  12.064   4.225  0.0012 -0.3320  0.9392
 9167SOL    HW137431  12.975  12.051   4.319  2.8481 -1.6226  1.0868
 9167SOL    HW237432  12.921  12.001   4.187 -0.4663 -0.4719  1.9002
 9168SOL     OW37433   5.469   7.697   0.445 -0.0360  0.2864  0.7650
 9168SOL    HW137434   5.399   7.759   0.429 -0.0333  0.0605 -0.1682
 9168SOL    HW237435   5.442   7.649   0.523  0.3989  2.0607  2.0671
 9169SOL     OW37436   7.004   6.722  11.761  0.0557 -0.1402 -0.0361
 9169SOL    HW137437   7.040   6.677  11.685  0.9616  2.6159 -1.3901
 9169SOL    HW237438   6.913   6.693  11.765  0.2687 -1.1206 -1.5426
 9170SOL     OW37439  11.209   0.590  12.393  0.0803  0.1908 -0.4367
 9170SOL    HW137440  11.289   0.539  12.408  0.1644  0.3600 -0.3087
 9170SOL    HW237441  11.235   0.680  12.409 -0.3194  0.1769  0.3144
 9171SOL     OW37442   2.181  10.818   6.071 -0.3407  0.0385 -0.8712
 9171SOL    HW137443   2.220  10.837   6.157 -1.6792 -0.2614 -0.1622
 9171SOL    HW237444   2.219  10.883   6.012 -0.6098  1.3167  0.2979
 9172SOL     OW37445  10.561   0.554  13.305 -0.1070  0.0832 -0.1920
 9172SOL    HW137446  10.603   0.623  13.255 -0.3760  0.6956  0.4123
 9172SOL    HW237447  10.602   0.473  13.273 -2.0397  0.1470 -3.2360
 9173SOL     OW37448  11.283   6.707   2.066 -0.1700 -0.3641 -0.2856
 9173SOL    HW137449  11.282   6.613   2.086 -0.9084 -0.6908 -1.7576
 9173SOL    HW237450  11.295   6.712   1.972  0.3970  1.0542 -0.1623
 9174SOL     OW37451   9.901   9.489  11.589  0.0373 -0.2310  0.6486
 9174SOL    HW137452   9.810   9.505  11.616 -0.0863 -0.4402  0.3645
 9174SOL    HW237453   9.919   9.559  11.525 -0.7387 -1.5765 -1.1312
 9175SOL     OW37454   9.273   6.096   2.138 -0.6817 -0.8150  0.1589
 9175SOL    HW137455   9.232   6.163   2.084 -1.4867  0.0576  1.7882
 9175SOL    HW237456   9.204   6.068   2.199  1.0198  0.7731  3.0763
 9176SOL     OW37457   9.959  13.123   1.775 -0.1892  0.2597  0.3843
 9176SOL    HW137458  10.009  13.046   1.750 -0.8275 -0.3934  1.0710
 9176SOL    HW237459  10.014  13.197   1.749  0.6911 -0.4282  0.2501
 9177SOL     OW37460   6.980  12.245   1.091  0.3070 -1.0832  0.0607
 9177SOL    HW137461   7.015  12.295   1.166  0.2238 -2.1433  0.8308
 9177SOL    HW237462   6.885  12.243   1.107  0.3090 -1.4590  0.0137
 9178SOL     OW37463   4.211   5.926   3.213  0.4111 -0.8518 -0.2244
 9178SOL    HW137464   4.176   5.891   3.295  0.1782  0.5141  0.2972
 9178SOL    HW237465   4.138   5.923   3.152  0.1731 -0.5580  0.0448
 9179SOL     OW37466   7.639   3.774   4.274  0.0227 -0.4176  0.3706
 9179SOL    HW137467   7.564   3.824   4.305  1.6709  2.0375  0.6546
 9179SOL    HW237468   7.691   3.837   4.224  1.7236 -2.1234 -0.1313
 9180SOL     OW37469   9.154  10.516   2.019  0.3786  0.2523  0.0525
 9180SOL    HW137470   9.165  10.479   2.107  0.1044 -1.0840 -0.4634
 9180SOL    HW237471   9.096  10.455   1.974  0.1606  1.1607 -0.9278
 9181SOL     OW37472   0.206  11.350  13.269  0.6095 -0.1435  0.1029
 9181SOL    HW137473   0.160  11.361  13.186 -0.3888  2.8445  0.9201
 9181SOL    HW237474   0.296  11.377  13.251 -0.2605  3.6625  0.4633
 9182SOL     OW37475   4.398   7.125  10.812  0.1753 -0.4407 -0.1146
 9182SOL    HW137476   4.347   7.187  10.760 -2.8343 -2.0133  0.7561
 9182SOL    HW237477   4.407   7.167  10.898 -1.6671 -1.0278  0.4070
 9183SOL     OW37478   8.691   3.697   1.313  0.1928 -0.1834 -0.5936
 9183SOL    HW137479   8.686   3.654   1.228  2.1875 -0.2349 -0.7436
 9183SOL    HW237480   8.783   3.689   1.339  0.0517  1.5397  0.6656
 9184SOL     OW37481   6.324   1.255   2.510 -0.5028 -0.1094  0.2467
 9184SOL    HW137482   6.373   1.180   2.544 -1.2620 -0.1302  1.3932
 9184SOL    HW237483   6.263   1.217   2.447  0.2301 -0.2183 -0.4103
 9185SOL     OW37484  12.849   9.110   0.419  0.1486  0.0537  0.4270
 9185SOL    HW137485  12.779   9.091   0.356 -0.8891  4.5448 -0.1121
 9185SOL    HW237486  12.804   9.153   0.492  2.1085  1.6141  0.8001
 9186SOL     OW37487   1.711   3.901   3.316  0.7950 -0.1787  0.3690
 9186SOL    HW137488   1.645   3.837   3.343  0.9422 -0.8198 -0.7346
 9186SOL    HW237489   1.762   3.856   3.249  0.7818  1.1671 -0.5904
 9187SOL     OW37490   3.782   9.799   2.048  0.1413 -0.2492 -0.1571
 9187SOL    HW137491   3.756   9.788   2.139  0.6518  0.7964  0.1382
 9187SOL    HW237492   3.841   9.726   2.030 -1.2962 -1.4360 -0.1940
 9188SOL     OW37493   9.693  10.058  10.850  0.1540 -0.2626  0.1116
 9188SOL    HW137494   9.651  10.108  10.920 -0.2207 -0.1910 -0.1616
 9188SOL    HW237495   9.746   9.993  10.895 -1.4807 -1.4030  0.4723
 9189SOL     OW37496   6.624  13.208  12.157  0.0949 -0.3631 -0.1845
 9189SOL    HW137497   6.664  13.245  12.236 -0.0410 -0.2550 -0.1664
 9189SOL    HW237498   6.648  13.115  12.159 -0.6377 -0.5511  0.4439
 9190SOL     OW37499  12.774  10.920   8.822 -0.7157  0.0972  0.2404
 9190SOL    HW137500  12.820  10.987   8.873 -0.5804  0.8055 -0.7926
 9190SOL    HW237501  12.683  10.925   8.852 -0.2972 -0.8752  1.8377
 9191SOL     OW37502   5.494   1.575   7.315  0.1186  0.1422 -0.1916
 9191SOL    HW137503   5.564   1.623   7.360 -0.5447  1.2765 -0.3240
 9191SOL    HW237504   5.439   1.543   7.387 -0.5640  1.3739 -0.1208
 9192SOL     OW37505   6.272  11.778  11.447  0.1139 -0.3997 -0.0409
 9192SOL    HW137506   6.273  11.776  11.351  0.7019 -1.1804 -0.0249
 9192SOL    HW237507   6.307  11.865  11.469  1.0898 -0.6502 -0.5267
 9193SOL     OW37508   3.659  10.595  11.535 -0.3514 -0.6975  0.0919
 9193SOL    HW137509   3.651  10.690  11.526  1.0547 -0.7456 -2.4139
 9193SOL    HW237510   3.679  10.582  11.628  2.3564  1.7144 -0.0125
 9194SOL     OW37511   3.223   5.860  10.781  0.3292 -0.4823 -0.5675
 9194SOL    HW137512   3.318   5.856  10.765  0.6348  0.5101  0.8405
 9194SOL    HW237513   3.194   5.933  10.726  0.4449 -0.5700 -0.7471
 9195SOL     OW37514  12.814   6.258   4.096  0.4676 -0.4347  0.8007
 9195SOL    HW137515  12.824   6.167   4.068  1.6851  0.1086 -0.6825
 9195SOL    HW237516  12.720   6.269   4.107  0.0574 -1.2730 -1.2359
 9196SOL     OW37517   1.937   1.003   3.254  0.8045 -0.3618 -0.1578
 9196SOL    HW137518   2.023   0.970   3.281  0.6435  0.3159  1.2544
 9196SOL    HW237519   1.949   1.098   3.248  0.1044 -0.2463  0.2209
 9197SOL     OW37520   2.476   5.444   5.482  0.2597  0.4824  0.1949
 9197SOL    HW137521   2.520   5.446   5.567 -1.5624  1.4058  1.1751
 9197SOL    HW237522   2.397   5.496   5.494 -1.4129 -1.5038 -1.2942
 9198SOL     OW37523   9.586   8.590   2.308 -0.2935 -0.5574 -0.1981
 9198SOL    HW137524   9.642   8.667   2.314 -2.2027  0.8889 -0.3913
 9198SOL    HW237525   9.648   8.517   2.298  1.5409  0.9653 -0.5049
 9199SOL     OW37526   6.864   0.299   8.343  0.1041  0.4449  0.3606
 9199SOL    HW137527   6.801   0.340   8.402 -1.2258  0.1687 -0.8158
 9199SOL    HW237528   6.886   0.367   8.279  2.0837  0.9722  1.4958
 9200SOL     OW37529   7.702   4.962   3.883  0.4999 -0.5074 -0.4819
 9200SOL    HW137530   7.639   4.902   3.843  0.1657 -1.2025  1.0033
 9200SOL    HW237531   7.652   5.043   3.897  0.6674 -0.2041 -1.5888
 9201SOL     OW37532   6.904  10.495   9.788  0.1442 -0.4367  0.1340
 9201SOL    HW137533   6.824  10.441   9.789  0.9005 -1.6063  0.5050
 9201SOL    HW237534   6.896  10.548   9.709  0.6547 -3.1686 -1.9242
 9202SOL     OW37535   5.876   7.224   4.078  0.3014  0.0505  0.3589
 9202SOL    HW137536   5.810   7.289   4.053 -1.9016 -1.6022  1.4857
 9202SOL    HW237537   5.872   7.159   4.008  1.8367  0.6412 -0.3038
 9203SOL     OW37538   0.186   3.122   2.188 -0.3164 -0.2597 -0.2328
 9203SOL    HW137539   0.216   3.195   2.242  2.1608  0.1289 -1.9755
 9203SOL    HW237540   0.240   3.127   2.109 -0.2397 -3.8262 -0.5445
 9204SOL     OW37541  10.549  10.058   6.336 -0.2687 -0.0950 -0.3759
 9204SOL    HW137542  10.542  10.045   6.431 -1.6224  0.6168 -0.3554
 9204SOL    HW237543  10.569   9.972   6.301 -0.0816 -0.4277  0.5224
 9205SOL     OW37544  11.501  12.608   2.117 -0.0463  0.2080 -0.4416
 9205SOL    HW137545  11.427  12.663   2.088  0.0748  0.3152 -0.5489
 9205SOL    HW237546  11.462  12.522   2.132 -0.0675  0.0807 -1.1796
 9206SOL     OW37547   8.001   8.762   9.449 -0.5095  0.2653  0.2411
 9206SOL    HW137548   8.053   8.682   9.459  0.6856  0.8473 -0.8735
 9206SOL    HW237549   8.060   8.832   9.477 -0.9445  0.8891 -0.3713
 9207SOL     OW37550   9.425   3.430   7.966 -0.1035 -0.3866  0.0363
 9207SOL    HW137551   9.384   3.396   8.045 -1.2056 -0.4785 -0.5509
 9207SOL    HW237552   9.379   3.387   7.894 -0.0233  0.6644 -0.6809
 9208SOL     OW37553   5.562  11.022   7.933  0.2057  0.1961  0.0477
 9208SOL    HW137554   5.613  11.060   7.862 -2.1691  1.1354 -1.2511
 9208SOL    HW237555   5.529  10.940   7.898 -0.7392  0.5206  0.1484
 9209SOL     OW37556   4.318  11.615   0.009  0.2724 -0.2716 -0.6631
 9209SOL    HW137557   4.265  11.616   0.089  1.4481 -0.7793  0.1576
 9209SOL    HW237558   4.261  11.653  -0.058 -0.8172 -0.0222  0.3614
 9210SOL     OW37559   5.403   2.979  10.394 -0.5569 -0.4477  0.2098
 9210SOL    HW137560   5.373   2.949  10.308 -1.3778 -0.6731  0.5605
 9210SOL    HW237561   5.463   3.051  10.375 -1.5988  0.2659 -0.5368
 9211SOL     OW37562   6.076   5.726  11.662 -0.8658  0.5854  0.7528
 9211SOL    HW137563   6.041   5.786  11.727  2.2156  2.3869  0.9853
 9211SOL    HW237564   6.138   5.671  11.711 -3.1112 -2.5004  0.4130
 9212SOL     OW37565  10.250   7.921  11.041  0.3979 -0.5990  0.1442
 9212SOL    HW137566  10.328   7.933  11.096 -0.0472 -1.2468  0.9329
 9212SOL    HW237567  10.261   7.834  11.004  0.6631 -0.1879 -0.7548
 9213SOL     OW37568   3.363   9.232   7.685 -0.0812  0.1601 -0.2385
 9213SOL    HW137569   3.332   9.142   7.684 -1.9773  0.7517 -0.2505
 9213SOL    HW237570   3.426   9.238   7.613 -1.6513 -0.6167 -1.7558
 9214SOL     OW37571   2.027   4.271  11.511  0.1102  0.0493 -0.0322
 9214SOL    HW137572   2.114   4.299  11.540  0.5359 -0.1761 -1.0492
 9214SOL    HW237573   1.998   4.341  11.453 -1.7551  1.6961  2.6359
 9215SOL     OW37574   1.412   9.462  12.925  0.2269 -0.6627 -0.2007
 9215SOL    HW137575   1.333   9.514  12.908  0.9162  0.9545  1.1778
 9215SOL    HW237576   1.458   9.460  12.841 -0.6908 -0.5998 -0.7170
 9216SOL     OW37577   7.394   8.800  11.104  0.1514  0.1346 -0.2300
 9216SOL    HW137578   7.407   8.823  11.197  0.0735 -0.9418  0.0561
 9216SOL    HW237579   7.299   8.800  11.093  0.0391 -2.1133  0.3363
 9217SOL     OW37580   9.897   1.310  11.524 -0.5632  0.3291  0.2619
 9217SOL    HW137581   9.946   1.352  11.594  1.0019 -0.4310 -0.3381
 9217SOL    HW237582   9.938   1.224  11.513 -2.1498 -0.4275 -0.1495
 9218SOL     OW37583  10.896   4.289   3.349 -0.0623 -0.0513  0.6829
 9218SOL    HW137584  10.955   4.354   3.310 -0.9948 -0.7003 -2.0629
 9218SOL    HW237585  10.811   4.333   3.353 -0.2139 -0.3675  0.9761
 9219SOL     OW37586   1.468   8.178   9.281  0.2014 -0.6936 -0.1039
 9219SOL    HW137587   1.393   8.190   9.339  0.8073 -0.7850  0.7021
 9219SOL    HW237588   1.493   8.266   9.254  2.3795 -0.2292  2.9287
 9220SOL     OW37589   1.145   3.485   0.231 -0.8431  0.0165 -0.2380
 9220SOL    HW137590   1.085   3.545   0.274 -0.3868  1.8805 -2.0192
 9220SOL    HW237591   1.146   3.513   0.140 -0.7907 -2.9163 -1.2609
 9221SOL     OW37592  10.557   5.679   7.259 -0.1471  0.1299 -0.0491
 9221SOL    HW137593  10.645   5.713   7.242  0.3353  0.7128  3.0411
 9221SOL    HW237594  10.549   5.604   7.201  1.5999  1.1893 -1.7997
 9222SOL     OW37595   7.332   2.226   4.310  0.6921 -0.4042  0.3020
 9222SOL    HW137596   7.272   2.299   4.295 -0.2906 -0.7134  2.3654
 9222SOL    HW237597   7.391   2.227   4.235 -0.0633  1.7375 -0.3232
 9223SOL     OW37598   2.317  10.416  12.289 -0.4427  0.0769 -0.5054
 9223SOL    HW137599   2.286  10.466  12.365  0.0269 -1.7181  0.9483
 9223SOL    HW237600   2.360  10.339  12.327 -0.5404 -1.1051 -2.6171
 9224SOL     OW37601   9.573   6.236   9.853  0.5895 -0.0969 -0.1788
 9224SOL    HW137602   9.499   6.203   9.802  1.7009 -1.9752 -0.6891
 9224SOL    HW237603   9.645   6.240   9.789  1.6103 -0.9822  0.8801
 9225SOL     OW37604   5.788   1.700   8.519  0.7688 -0.1362 -0.4342
 9225SOL    HW137605   5.762   1.650   8.442  0.9870  0.4332 -0.8844
 9225SOL    HW237606   5.875   1.665   8.541 -0.2731 -1.9567  1.0056
 9226SOL     OW37607   3.985   1.876  10.441 -0.8136  0.7327  0.2112
 9226SOL    HW137608   3.904   1.849  10.398 -1.2161  0.8071  0.9168
 9226SOL    HW237609   3.963   1.957  10.487 -0.8702 -0.2570  1.9979
 9227SOL     OW37610  11.626   2.330   8.389 -0.1925 -0.6931 -0.9000
 9227SOL    HW137611  11.653   2.422   8.384  0.5717 -0.8161  0.4012
 9227SOL    HW237612  11.707   2.281   8.372 -0.1648 -1.0943  0.2748
 9228SOL     OW37613   6.008  11.290   9.145 -0.1196  0.2771  0.7144
 9228SOL    HW137614   5.981  11.240   9.221  0.5064  0.7163  1.2388
 9228SOL    HW237615   6.002  11.382   9.173 -1.6994  0.5504 -0.3745
 9229SOL     OW37616   3.579   3.166  11.924 -0.0076 -0.0084  0.2832
 9229SOL    HW137617   3.666   3.144  11.959  0.0282  0.3822  0.4429
 9229SOL    HW237618   3.573   3.118  11.842  0.2682 -0.2198  0.3861
 9230SOL     OW37619   2.194  11.582  10.261  0.1437  0.2407 -0.0780
 9230SOL    HW137620   2.203  11.581  10.357  3.3565  0.9395 -0.2457
 9230SOL    HW237621   2.225  11.495  10.234 -1.6799 -0.3223 -0.5059
 9231SOL     OW37622   3.803  10.802   8.051 -0.2290  0.1100  0.6240
 9231SOL    HW137623   3.718  10.759   8.065  0.1985 -1.5337 -1.2954
 9231SOL    HW237624   3.796  10.838   7.962  1.9137 -2.4070 -0.6997
 9232SOL     OW37625   9.619   7.023   9.270 -0.1573 -0.8656  0.0448
 9232SOL    HW137626   9.590   7.094   9.211  0.7134 -0.4413  0.1076
 9232SOL    HW237627   9.603   6.943   9.220  0.9265 -0.4918 -0.9584
 9233SOL     OW37628   9.602  13.306  11.667  0.3491 -0.3535 -0.4222
 9233SOL    HW137629   9.517  13.279  11.703  0.3602 -0.1278 -0.2247
 9233SOL    HW237630   9.619  13.243  11.597  0.4702 -0.9922  0.1637
 9234SOL     OW37631   0.908  13.004   3.986 -0.1586 -0.1850 -0.0567
 9234SOL    HW137632   0.817  12.998   4.014 -0.5842 -2.5100 -1.6518
 9234SOL    HW237633   0.905  12.984   3.892  2.1600 -2.2507  0.2182
 9235SOL     OW37634   1.818   5.340   7.792  0.0456 -0.3795  0.3957
 9235SOL    HW137635   1.815   5.432   7.819  1.6272  0.5439 -2.1992
 9235SOL    HW237636   1.758   5.335   7.718 -2.3017 -2.2374  2.2586
 9236SOL     OW37637   8.045   8.053   9.658 -0.3679 -0.2602 -0.1290
 9236SOL    HW137638   8.122   8.106   9.680 -1.7635  1.8144  0.0119
 9236SOL    HW237639   8.061   8.025   9.568 -0.1089  1.4884 -0.6736
 9237SOL     OW37640  13.144   4.863  11.712  0.2343 -0.7516  0.4641
 9237SOL    HW137641  13.183   4.787  11.668  1.9615  0.1618  0.3658
 9237SOL    HW237642  13.090   4.904  11.644  1.1452 -0.6011 -0.1916
 9238SOL     OW37643   8.454   3.897   3.256 -0.2452  0.3861  0.4709
 9238SOL    HW137644   8.403   3.821   3.284 -2.3850  1.3035 -0.6656
 9238SOL    HW237645   8.521   3.907   3.323  0.1296 -2.4583  0.6660
 9239SOL     OW37646   1.301  10.490   2.714 -0.2980 -0.1913  0.1420
 9239SOL    HW137647   1.254  10.501   2.796  0.8618  0.6371  0.7247
 9239SOL    HW237648   1.319  10.580   2.684 -0.1909 -0.4856 -0.7176
 9240SOL     OW37649   2.269   7.953   3.231 -0.3027 -0.5558 -0.4434
 9240SOL    HW137650   2.313   8.034   3.256 -0.1971 -0.9300  0.6715
 9240SOL    HW237651   2.183   7.958   3.273  0.6539 -2.1455  1.9617
 9241SOL     OW37652  12.505  12.670   3.980 -0.3790  0.1199 -0.3207
 9241SOL    HW137653  12.411  12.687   3.987 -0.4790  0.2148 -1.6928
 9241SOL    HW237654  12.512  12.599   3.916  0.4963  0.2688 -0.4011
 9242SOL     OW37655   6.960   0.488   6.934 -0.0975 -0.3137 -0.4049
 9242SOL    HW137656   7.025   0.447   6.991 -0.7606 -0.7634  0.0247
 9242SOL    HW237657   6.938   0.420   6.870 -1.0907 -0.5844  0.2216
 9243SOL     OW37658  12.948   6.597   4.813 -0.0021  0.1166  0.1796
 9243SOL    HW137659  12.968   6.599   4.907 -1.1993  1.0925  0.4458
 9243SOL    HW237660  12.854   6.582   4.809 -0.2848  1.8293 -0.7884
 9244SOL     OW37661  11.094   9.018   1.752  0.0635 -0.2100 -0.1742
 9244SOL    HW137662  11.019   8.963   1.773 -0.8577  1.0356 -0.1249
 9244SOL    HW237663  11.067   9.107   1.777  0.9489  0.5025 -1.6396
 9245SOL     OW37664   1.906   3.635   9.701 -0.3217  0.2600  0.5512
 9245SOL    HW137665   1.937   3.615   9.789 -1.1222 -0.5728  0.6651
 9245SOL    HW237666   1.926   3.557   9.650 -1.4703  0.0084  0.4472
 9246SOL     OW37667   2.914   6.125  12.105 -0.0952 -0.5252 -0.0521
 9246SOL    HW137668   2.934   6.167  12.189 -0.9791  1.5570 -0.7926
 9246SOL    HW237669   2.994   6.079  12.081  0.0339 -1.5112  2.1028
 9247SOL     OW37670   3.197   0.941   8.157 -0.2799 -0.4100 -0.8081
 9247SOL    HW137671   3.109   0.975   8.138  0.0260  1.1199  0.3831
 9247SOL    HW237672   3.194   0.917   8.249  1.3483  2.4636  0.1069
 9248SOL     OW37673   6.208   9.285   5.373  0.4069 -0.0424 -0.3964
 9248SOL    HW137674   6.211   9.242   5.458  1.9373  0.8731  0.0580
 9248SOL    HW237675   6.298   9.281   5.342 -0.1747 -0.5988 -2.1259
 9249SOL     OW37676  11.868  13.060   5.384 -1.0486 -0.0395 -0.0701
 9249SOL    HW137677  11.806  13.029   5.450  0.0759 -0.9609  0.5924
 9249SOL    HW237678  11.815  13.075   5.306 -2.1806 -0.3003  0.6253
 9250SOL     OW37679   7.604   9.526  10.155  0.1561  0.1872  0.2972
 9250SOL    HW137680   7.514   9.558  10.156  0.7678  2.0771 -0.4961
 9250SOL    HW237681   7.655   9.600  10.122  2.0889 -0.6487  1.2905
 9251SOL     OW37682   9.648   0.521  12.668 -0.2305  0.1904  0.5761
 9251SOL    HW137683   9.616   0.441  12.626  0.5574  0.6402 -0.9708
 9251SOL    HW237684   9.570   0.563  12.703 -0.6107 -1.4097  1.7282
 9252SOL     OW37685   5.045  12.065  13.272 -0.1859 -0.0636  0.2636
 9252SOL    HW137686   5.076  12.010  13.200 -0.5790  0.6035 -0.4299
 9252SOL    HW237687   4.954  12.083  13.251  0.0249  1.1081  0.3055
 9253SOL     OW37688   3.511   3.036   6.795  0.4165 -0.3353 -0.0119
 9253SOL    HW137689   3.551   3.044   6.882  0.0107  0.0511  0.1405
 9253SOL    HW237690   3.418   3.024   6.813 -0.2052  3.0583 -0.4473
 9254SOL     OW37691   9.911   8.380   1.183  0.0293 -0.3115  0.4266
 9254SOL    HW137692   9.940   8.470   1.166 -0.1130 -0.3834 -0.2348
 9254SOL    HW237693   9.883   8.380   1.274 -2.1069  0.9063 -0.1649
 9255SOL     OW37694   8.560   3.438   2.470  0.6065 -0.3021  0.6392
 9255SOL    HW137695   8.582   3.357   2.516  1.8278 -1.0692 -1.1836
 9255SOL    HW237696   8.593   3.508   2.528 -0.0552 -1.0845  2.0142
 9256SOL     OW37697  10.140   0.067  11.861 -0.3301  0.2899  0.5579
 9256SOL    HW137698  10.112  -0.021  11.884 -1.1996  1.2537  3.6664
 9256SOL    HW237699  10.203   0.055  11.790 -1.4576 -2.6744 -0.0558
 9257SOL     OW37700   6.625   7.738   5.036 -0.1031 -0.1478  0.3116
 9257SOL    HW137701   6.604   7.673   5.104  0.7921 -2.2238 -1.2606
 9257SOL    HW237702   6.550   7.735   4.977  0.6293 -1.0015 -0.6135
 9258SOL     OW37703   2.272   2.532   5.427 -0.0906 -0.0402  0.3771
 9258SOL    HW137704   2.237   2.547   5.514 -0.2488 -1.8455  0.6792
 9258SOL    HW237705   2.229   2.596   5.371 -0.8797  0.3653  1.4300
 9259SOL     OW37706   3.813   7.751   6.198  0.1261 -0.0587 -0.5507
 9259SOL    HW137707   3.720   7.773   6.193 -0.0519 -0.6648 -0.0676
 9259SOL    HW237708   3.858   7.831   6.174 -0.5070  0.5957  0.3922
 9260SOL     OW37709   9.389   5.751  13.215  0.3074  0.1743 -0.6242
 9260SOL    HW137710   9.401   5.663  13.180  0.0154  0.2166 -0.8295
 9260SOL    HW237711   9.421   5.745  13.306  1.6753  0.2292 -1.0682
 9261SOL     OW37712   6.032   9.099   5.214  0.2573 -0.0526  0.2615
 9261SOL    HW137713   6.037   9.157   5.138  0.9747 -0.6852 -0.1966
 9261SOL    HW237714   6.090   9.139   5.279 -0.0684  0.2961  0.3359
 9262SOL     OW37715  10.001  10.052   9.850  0.0116  0.1281  0.4594
 9262SOL    HW137716   9.982  10.067   9.942  0.7612  1.2790  0.4449
 9262SOL    HW237717  10.044   9.967   9.847  0.3079  0.2470  1.2233
 9263SOL     OW37718   9.756   7.991  10.329  0.0536  0.3964 -0.2288
 9263SOL    HW137719   9.827   7.939  10.365 -1.3336 -2.4106 -1.2553
 9263SOL    HW237720   9.690   7.994  10.398 -0.3024 -0.1387 -0.5401
 9264SOL     OW37721  12.022  12.034  12.025 -0.3812  1.0852  0.4396
 9264SOL    HW137722  12.094  12.036  11.963 -0.6923 -2.0849 -0.1829
 9264SOL    HW237723  11.951  11.990  11.978 -2.6765  3.7342  1.1481
 9265SOL     OW37724   5.372   5.983  12.718  0.7700 -0.3222 -0.4653
 9265SOL    HW137725   5.438   6.020  12.660 -0.9733  0.1941 -2.2265
 9265SOL    HW237726   5.337   5.907  12.670 -0.2207 -0.3128  0.2087
 9266SOL     OW37727   9.442   8.728   9.097 -0.1561 -0.7622 -0.4216
 9266SOL    HW137728   9.398   8.734   9.012 -1.3650 -0.5562  0.2087
 9266SOL    HW237729   9.373   8.708   9.159  0.6630 -0.5657  0.5802
 9267SOL     OW37730   7.463   6.239   4.884  0.1557 -0.3440 -0.0966
 9267SOL    HW137731   7.464   6.147   4.855  0.3951  0.1403 -1.7612
 9267SOL    HW237732   7.524   6.241   4.958 -0.1775 -1.6032  0.2391
 9268SOL     OW37733   7.308   9.705  12.047  0.2526 -0.3414  0.2999
 9268SOL    HW137734   7.363   9.759  11.991 -1.1620  0.8128 -0.0112
 9268SOL    HW237735   7.273   9.638  11.988  2.0889 -1.7675  0.7057
 9269SOL     OW37736   2.277   4.138  11.986 -0.6143  1.0579  0.0644
 9269SOL    HW137737   2.342   4.093  11.931 -0.4755  1.3994 -0.0515
 9269SOL    HW237738   2.291   4.102  12.073  1.9079  3.3627  0.7473
 9270SOL     OW37739   5.290   0.336   4.166 -0.3102  0.1332  0.2281
 9270SOL    HW137740   5.244   0.278   4.227  1.1676 -1.1944  0.1297
 9270SOL    HW237741   5.357   0.378   4.220 -0.7912  1.0979  0.0961
 9271SOL     OW37742   3.282   9.433   8.153  0.1152 -0.1454  0.2560
 9271SOL    HW137743   3.293   9.372   8.080 -0.5510  0.4300 -0.3279
 9271SOL    HW237744   3.267   9.518   8.112  1.4681  0.5230  1.0544
 9272SOL     OW37745  13.189  11.666   3.527  0.4487 -0.4455  0.4677
 9272SOL    HW137746  13.230  11.750   3.507 -0.1279  0.3349  2.4021
 9272SOL    HW237747  13.122  11.656   3.459 -0.7142  1.5603  1.2458
 9273SOL     OW37748   7.068   0.709   1.699 -0.2080  0.4658  0.4818
 9273SOL    HW137749   7.031   0.747   1.779 -1.1092 -0.1740  0.3866
 9273SOL    HW237750   7.111   0.629   1.729  0.2183  0.6749  0.4398
 9274SOL     OW37751  13.024   4.578   1.064 -0.1232  0.5352 -0.2031
 9274SOL    HW137752  12.945   4.525   1.066  1.0004 -1.3742 -2.2059
 9274SOL    HW237753  13.065   4.564   1.150 -0.9590 -0.0436  0.1097
 9275SOL     OW37754   0.669   6.273   4.818 -0.2754 -0.5775  0.2809
 9275SOL    HW137755   0.574   6.266   4.809 -0.2723  0.4351 -0.9457
 9275SOL    HW237756   0.693   6.348   4.763  1.2188 -0.6974  0.7028
 9276SOL     OW37757   5.927   3.097   2.622  0.1715  0.4509 -0.5086
 9276SOL    HW137758   5.889   3.089   2.534 -0.2833  2.6002 -0.5507
 9276SOL    HW237759   5.996   3.162   2.613  2.1382 -1.4231  0.1714
 9277SOL     OW37760   2.277   4.492   0.618 -0.2077  0.1461 -0.2498
 9277SOL    HW137761   2.238   4.578   0.598 -1.0075  0.4189  2.1722
 9277SOL    HW237762   2.233   4.431   0.559  0.5342  1.3727 -2.1823
 9278SOL     OW37763  12.569   0.934   0.430  0.2945 -0.4260 -0.4595
 9278SOL    HW137764  12.483   0.976   0.426 -0.0968 -0.9386  1.4367
 9278SOL    HW237765  12.588   0.909   0.340  0.4782  3.5690 -1.7355
 9279SOL     OW37766   8.504   1.199   5.166 -0.8116  0.5612 -0.1156
 9279SOL    HW137767   8.492   1.271   5.103 -0.7729  0.5402 -0.1473
 9279SOL    HW237768   8.424   1.199   5.218 -1.2672 -0.0378 -0.7892
 9280SOL     OW37769  10.954   9.139   9.211  0.2578  0.4347 -0.3489
 9280SOL    HW137770  11.040   9.103   9.188 -0.0292  0.1879 -1.0539
 9280SOL    HW237771  10.953   9.139   9.307  0.3416 -1.2839 -0.3167
 9281SOL     OW37772   9.452  11.564   4.762 -0.5069 -0.1617  0.8395
 9281SOL    HW137773   9.526  11.617   4.792 -0.2000  0.4086 -0.8411
 9281SOL    HW237774   9.398  11.625   4.712 -1.6709 -0.7890  1.2893
 9282SOL     OW37775   4.742   5.960  11.677  0.6990 -0.5782 -0.1414
 9282SOL    HW137776   4.698   5.954  11.592  0.9224  2.4751 -0.6028
 9282SOL    HW237777   4.833   5.937  11.658  0.2301 -2.6156 -0.0964
 9283SOL     OW37778   7.457   5.765  10.207 -0.1923 -0.0172 -0.2520
 9283SOL    HW137779   7.548   5.743  10.184 -0.1494  0.0170 -0.1139
 9283SOL    HW237780   7.415   5.680  10.221 -0.3243 -0.0570 -0.8582
 9284SOL     OW37781   1.296  11.053   3.995 -0.0825  0.1576  0.5983
 9284SOL    HW137782   1.371  11.071   4.051 -0.7844  0.4874  1.4467
 9284SOL    HW237783   1.283  11.135   3.946 -2.1834  1.5208  3.1856
 9285SOL     OW37784   8.740   6.538   2.343 -0.1262 -0.4658  0.2939
 9285SOL    HW137785   8.698   6.622   2.363  0.7672  0.1927 -0.4992
 9285SOL    HW237786   8.676   6.493   2.288  0.3159  0.7181 -1.2819
 9286SOL     OW37787  11.364   7.223   1.646 -0.0335  0.0338 -0.2392
 9286SOL    HW137788  11.455   7.249   1.661  0.3185 -1.0385 -0.3952
 9286SOL    HW237789  11.367   7.127   1.642 -0.9990  0.0276 -1.3873
 9287SOL     OW37790   2.333   8.467   8.071 -0.1204  0.5702  0.7323
 9287SOL    HW137791   2.338   8.449   8.165 -0.0488 -0.5367  0.5271
 9287SOL    HW237792   2.276   8.398   8.036  0.3899  0.5728 -0.1319
 9288SOL     OW37793  10.531   2.118   7.256  0.0184 -0.0998  0.2551
 9288SOL    HW137794  10.458   2.179   7.248 -0.7655 -1.1187 -0.5830
 9288SOL    HW237795  10.609   2.174   7.256 -0.5659  0.8289 -2.1868
 9289SOL     OW37796   3.133   2.914   7.238  0.0393 -0.3438 -0.5995
 9289SOL    HW137797   3.118   2.829   7.279  0.4128 -0.5797 -0.9492
 9289SOL    HW237798   3.084   2.911   7.156 -0.9176  0.2227 -0.0731
 9290SOL     OW37799   2.042   8.343   7.261 -0.2726  0.1986 -0.0371
 9290SOL    HW137800   2.101   8.339   7.336 -0.3383  2.5777  0.2373
 9290SOL    HW237801   2.094   8.386   7.192 -0.5556 -0.9897 -1.0310
 9291SOL     OW37802   9.571   6.577  10.301  0.1045 -0.2357  0.2294
 9291SOL    HW137803   9.618   6.627  10.235 -2.4461  0.3480 -1.2874
 9291SOL    HW237804   9.561   6.490  10.263  1.4460 -0.9202  1.3373
 9292SOL     OW37805   8.858   5.242   4.464 -0.2618  0.1159  0.2930
 9292SOL    HW137806   8.938   5.221   4.417 -1.3255 -0.1503 -1.4978
 9292SOL    HW237807   8.887   5.292   4.540  1.6829 -1.0621  0.3929
 9293SOL     OW37808   7.574  10.385   2.142  0.5080  0.6273 -0.5669
 9293SOL    HW137809   7.553  10.444   2.070 -2.7716  2.2472  1.4571
 9293SOL    HW237810   7.553  10.297   2.108 -0.3179  1.2681 -1.8029
 9294SOL     OW37811   3.065  11.081   6.902 -0.1820  0.2379 -0.4681
 9294SOL    HW137812   3.006  11.119   6.967 -0.4587  1.3192 -1.3140
 9294SOL    HW237813   3.051  10.987   6.909 -0.3062  0.3438  0.9299
 9295SOL     OW37814   4.330   0.879   9.102  0.2385  0.2711  0.2171
 9295SOL    HW137815   4.426   0.884   9.100  0.1987  0.9111 -0.6014
 9295SOL    HW237816   4.302   0.912   9.017 -0.6414 -2.5337 -0.6689
 9296SOL     OW37817   1.358   4.512  10.791 -0.2564  0.1068  0.1084
 9296SOL    HW137818   1.440   4.538  10.748 -1.1115 -1.3156 -2.6070
 9296SOL    HW237819   1.385   4.480  10.876  2.4887 -2.9655 -1.6955
 9297SOL     OW37820   9.101   2.525   0.898 -0.2903 -0.5112 -0.7851
 9297SOL    HW137821   9.187   2.493   0.869  0.6180  0.2863  0.9030
 9297SOL    HW237822   9.038   2.465   0.857  1.1610 -2.2169 -0.6372
 9298SOL     OW37823   3.205  12.653   8.208 -0.2012 -0.3173 -0.3459
 9298SOL    HW137824   3.297  12.628   8.203  0.1342  0.9862 -0.9582
 9298SOL    HW237825   3.178  12.629   8.297 -0.0490 -3.2008 -0.9731
 9299SOL     OW37826   1.892   9.029   3.075 -0.3029 -0.4917  0.0894
 9299SOL    HW137827   1.843   9.039   2.993  0.0598  0.4041 -0.0335
 9299SOL    HW237828   1.931   9.115   3.090  0.1005 -0.8070  0.9104
 9300SOL     OW37829   4.190  12.860   3.975 -0.1733  0.0884  0.0127
 9300SOL    HW137830   4.184  12.942   4.024 -0.2951  0.3027 -0.3544
 9300SOL    HW237831   4.206  12.793   4.041 -0.4571  0.3568  0.3573
 9301SOL     OW37832   0.261   7.482   0.380 -0.4848  0.2829 -0.1522
 9301SOL    HW137833   0.177   7.508   0.416 -1.2512 -2.0936 -0.0756
 9301SOL    HW237834   0.313   7.454   0.456 -0.3927 -0.2249 -0.3935
 9302SOL     OW37835   5.321  11.205   7.914 -0.1887 -0.5380  0.0682
 9302SOL    HW137836   5.412  11.202   7.887 -0.2398  0.1651 -0.2257
 9302SOL    HW237837   5.284  11.278   7.863 -0.8330 -0.6210  0.4081
 9303SOL     OW37838   7.487   2.243   2.754 -0.7078 -0.5546  0.2473
 9303SOL    HW137839   7.581   2.228   2.761 -0.5566 -0.6721 -1.4723
 9303SOL    HW237840   7.449   2.200   2.830  0.6607 -0.1301  1.1962
 9304SOL     OW37841   0.416   7.074   1.618 -0.1199  0.0316  0.0288
 9304SOL    HW137842   0.478   7.146   1.606 -1.5283  1.3294  0.2096
 9304SOL    HW237843   0.387   7.082   1.708  1.0185 -1.9186  0.6318
 9305SOL     OW37844   0.567   1.813   4.253  0.4568  0.5361  0.3628
 9305SOL    HW137845   0.477   1.843   4.269  0.7319  0.2890  2.8362
 9305SOL    HW237846   0.556   1.729   4.209 -0.5893  0.0208  1.5273
 9306SOL     OW37847   3.643  11.128  13.133  0.3144 -0.0274  0.1702
 9306SOL    HW137848   3.625  11.131  13.227 -2.7967 -2.1004 -0.2062
 9306SOL    HW237849   3.586  11.195  13.096  0.9452  0.2438 -0.3130
 9307SOL     OW37850  10.557  10.252   7.707 -0.0713  0.3852  0.0384
 9307SOL    HW137851  10.568  10.346   7.701 -0.0782  0.7346  3.4259
 9307SOL    HW237852  10.463  10.239   7.717 -0.0512  0.0296 -0.2064
 9308SOL     OW37853   2.443   7.399   1.468  0.4589 -0.2124  0.0714
 9308SOL    HW137854   2.480   7.311   1.469  1.6548  0.2391 -1.1963
 9308SOL    HW237855   2.471   7.438   1.550 -0.2903 -1.0795  0.7560
 9309SOL     OW37856  12.082  11.250   4.263 -0.2509 -0.3100 -0.4080
 9309SOL    HW137857  12.074  11.155   4.274  0.5818 -0.7930 -3.2655
 9309SOL    HW237858  12.059  11.266   4.172 -1.1917  2.3926  0.2092
 9310SOL     OW37859  10.146   0.182   8.184  0.5411 -0.1954 -0.4400
 9310SOL    HW137860  10.117   0.100   8.143 -1.9299  1.0881 -1.4239
 9310SOL    HW237861  10.115   0.176   8.274  1.7851 -0.9807 -0.0381
 9311SOL     OW37862   7.127   9.629  11.291  0.3971 -0.0256  0.8064
 9311SOL    HW137863   7.131   9.641  11.196 -1.9452 -0.8926  0.5342
 9311SOL    HW237864   7.093   9.713  11.324 -0.8614 -0.4380  0.6110
 9312SOL     OW37865   4.156  11.831  11.826  0.0149 -0.3999  0.0071
 9312SOL    HW137866   4.226  11.766  11.838  0.5748  0.0145 -0.8970
 9312SOL    HW237867   4.084  11.798  11.880  0.6811 -1.1737  0.4642
 9313SOL     OW37868   1.152   3.230  11.069  0.1912 -0.0952 -0.4130
 9313SOL    HW137869   1.161   3.182  11.152  0.5532 -0.4022 -0.6269
 9313SOL    HW237870   1.070   3.278  11.078  0.1937 -0.1838  0.0972
 9314SOL     OW37871  12.747   9.301   9.325  0.1833 -0.5539 -0.2908
 9314SOL    HW137872  12.736   9.228   9.387  0.9528 -0.2914  0.1561
 9314SOL    HW237873  12.765   9.258   9.241  1.0296 -0.8805  0.0493
 9315SOL     OW37874   3.556   1.198   2.496  0.5869 -0.1218 -0.8077
 9315SOL    HW137875   3.619   1.126   2.504  0.0389 -0.7391 -1.9058
 9315SOL    HW237876   3.497   1.171   2.426 -1.1653  0.2637  0.4672
 9316SOL     OW37877   2.773   4.505   0.671 -0.1944  0.6172  0.2439
 9316SOL    HW137878   2.776   4.598   0.694 -0.6816  0.4534  1.0077
 9316SOL    HW237879   2.799   4.459   0.751  0.9979  0.1165 -0.4065
 9317SOL     OW37880  10.447   0.240  12.073  0.2682  0.2880  0.0436
 9317SOL    HW137881  10.528   0.277  12.038  0.7305 -0.5479  0.2088
 9317SOL    HW237882  10.475   0.162  12.121 -0.7268 -0.4962 -0.6119
 9318SOL     OW37883   0.617   3.485  10.826  0.4578  0.4051  0.2429
 9318SOL    HW137884   0.611   3.433  10.745  0.0527 -1.1832  1.2544
 9318SOL    HW237885   0.705   3.467  10.859 -0.9836 -3.1706  2.7723
 9319SOL     OW37886   0.593   2.914   4.801  0.3684 -0.6386  0.1362
 9319SOL    HW137887   0.608   2.823   4.827 -0.1434 -0.5987  0.5878
 9319SOL    HW237888   0.586   2.962   4.884  0.1560 -0.2700 -0.0898
 9320SOL     OW37889  13.097  10.237   2.570 -0.7149  0.0038 -1.5322
 9320SOL    HW137890  13.069  10.325   2.596  0.2922 -0.3241  0.9226
 9320SOL    HW237891  13.182  10.251   2.527  1.1068  0.1265  1.7357
 9321SOL     OW37892   7.520   6.379   3.177 -0.5424 -0.1358  0.3272
 9321SOL    HW137893   7.539   6.368   3.270  0.0845 -0.6771  0.1507
 9321SOL    HW237894   7.493   6.292   3.148  2.4389 -0.8533 -0.6657
 9322SOL     OW37895   3.448   9.963   8.253  0.5342 -0.0322  0.2700
 9322SOL    HW137896   3.484   9.976   8.341  2.8255 -0.4128 -0.5407
 9322SOL    HW237897   3.374   9.904   8.267  0.5692  0.2633  1.9946
 9323SOL     OW37898  10.571   3.714   4.452  0.0813 -0.5608  0.2015
 9323SOL    HW137899  10.660   3.699   4.421  0.0466 -0.2439 -0.0578
 9323SOL    HW237900  10.578   3.707   4.547  0.4448 -0.2179  0.2034
 9324SOL     OW37901   8.530   3.508   3.393  0.3119  0.0459 -0.3710
 9324SOL    HW137902   8.492   3.592   3.417  1.1491  0.4509 -0.4715
 9324SOL    HW237903   8.516   3.501   3.299 -0.4247 -0.2750 -0.2495
 9325SOL     OW37904   4.213   1.552   7.568 -0.4466 -0.4719 -0.2514
 9325SOL    HW137905   4.184   1.640   7.541  0.8300 -0.6569 -2.5353
 9325SOL    HW237906   4.249   1.565   7.656 -2.2027  0.8416  0.3311
 9326SOL     OW37907   9.056   6.512   1.135 -0.4857  0.0511  0.2229
 9326SOL    HW137908   9.033   6.588   1.188  2.2842  0.7134  0.6181
 9326SOL    HW237909   9.101   6.453   1.195  1.8944  0.4013 -1.1176
 9327SOL     OW37910  10.268   7.838  10.539 -0.0039  0.6853  0.1979
 9327SOL    HW137911  10.214   7.917  10.548 -0.0113  0.8383 -1.0505
 9327SOL    HW237912  10.357   7.871  10.528 -0.0257  0.5345 -0.4625
 9328SOL     OW37913   6.486  11.284  11.085 -0.0869  0.0274  0.0546
 9328SOL    HW137914   6.509  11.256  10.996  1.0978 -0.5546  0.5212
 9328SOL    HW237915   6.431  11.214  11.119  0.7512 -0.5153  0.3162
 9329SOL     OW37916   5.129   5.801  11.276  0.1502 -0.3314 -0.3218
 9329SOL    HW137917   5.185   5.799  11.198  0.5964 -0.4090 -0.0075
 9329SOL    HW237918   5.045   5.832  11.245  0.9361  1.8657 -0.4704
 9330SOL     OW37919   3.096  10.012   1.284 -0.0722  0.0755  0.0119
 9330SOL    HW137920   3.076  10.103   1.263  0.7764 -0.0927 -1.7048
 9330SOL    HW237921   3.033   9.962   1.233  0.9639 -0.3308 -0.8907
 9331SOL     OW37922   5.174   1.163  12.863  0.7853 -0.6696 -0.6275
 9331SOL    HW137923   5.089   1.125  12.844  0.8588 -0.7750 -0.7452
 9331SOL    HW237924   5.183   1.156  12.959 -0.6270  2.0421 -0.1968
 9332SOL     OW37925   2.230   0.995   9.260 -0.1989 -0.4271  0.0686
 9332SOL    HW137926   2.254   1.067   9.319  0.6222 -0.5682 -0.0844
 9332SOL    HW237927   2.140   0.973   9.285  0.6997 -1.7277  2.6078
 9333SOL     OW37928   7.744   8.651   1.616  0.0273  0.4094  0.3001
 9333SOL    HW137929   7.707   8.697   1.692  0.4248 -0.4515  1.0377
 9333SOL    HW237930   7.673   8.594   1.586  0.7027 -1.3178  1.7775
 9334SOL     OW37931   2.379   4.871  10.098 -0.3814  0.2506 -0.0029
 9334SOL    HW137932   2.375   4.783  10.061 -0.8380  0.4500 -0.4506
 9334SOL    HW237933   2.458   4.909  10.060 -0.3102  0.1112  0.0058
 9335SOL     OW37934   0.804   3.271   4.826 -0.1449  0.2390 -0.0131
 9335SOL    HW137935   0.738   3.218   4.870  0.0598 -1.2231 -1.3703
 9335SOL    HW237936   0.821   3.225   4.743  2.2617  0.7665  0.0970
 9336SOL     OW37937   9.578   6.983   3.682 -0.4946  0.8827 -0.4750
 9336SOL    HW137938   9.604   6.991   3.590  0.6290 -1.5099 -0.4166
 9336SOL    HW237939   9.483   6.969   3.679 -0.4443  0.6876 -1.2600
 9337SOL     OW37940   5.779  11.807   4.172  0.3082 -0.5412  0.0404
 9337SOL    HW137941   5.774  11.902   4.164 -0.9955 -0.6829 -1.1761
 9337SOL    HW237942   5.866  11.791   4.210  0.1717  1.1668  1.1945
 9338SOL     OW37943   2.766   1.171   1.711 -0.0076  0.1717  0.1777
 9338SOL    HW137944   2.730   1.184   1.624 -0.5512 -1.6470  0.1095
 9338SOL    HW237945   2.858   1.149   1.696 -0.0705 -0.0169  0.0698
 9339SOL     OW37946   8.339   8.348  10.566 -0.3373  0.1002  0.4338
 9339SOL    HW137947   8.416   8.354  10.624  0.6182 -1.5800 -0.5768
 9339SOL    HW237948   8.351   8.265  10.520 -3.5871 -1.0154  1.3466
 9340SOL     OW37949   4.103   2.214  10.079  0.2230  0.9397  0.0773
 9340SOL    HW137950   4.013   2.190  10.101 -0.9434  1.5674 -3.3482
 9340SOL    HW237951   4.142   2.134  10.045  1.3440  0.4560  2.3071
 9341SOL     OW37952   0.627   3.894   4.709  0.2013  0.0433 -0.4806
 9341SOL    HW137953   0.548   3.840   4.721 -0.0417  0.1875 -1.3584
 9341SOL    HW237954   0.626   3.955   4.782 -0.7382  0.3145 -0.7029
 9342SOL     OW37955   5.791  10.746   9.771 -0.5200  0.5514 -0.4387
 9342SOL    HW137956   5.826  10.683   9.834 -0.4212  0.6478 -0.3949
 9342SOL    HW237957   5.857  10.748   9.701 -0.7128  0.3181 -0.6266
 9343SOL     OW37958  12.124   7.376   5.817 -0.2619 -0.4807 -0.2329
 9343SOL    HW137959  12.114   7.333   5.902 -0.1116  0.9748  0.5475
 9343SOL    HW237960  12.087   7.463   5.830  0.0797 -0.1245 -1.5650
 9344SOL     OW37961   9.745  11.892   3.272  0.9539 -0.0358 -0.1456
 9344SOL    HW137962   9.806  11.891   3.347  0.1979  0.5100  0.4913
 9344SOL    HW237963   9.695  11.973   3.283  0.2825 -0.3515 -0.8031
 9345SOL     OW37964  11.517   1.932   6.048  0.3133 -0.0232 -0.1091
 9345SOL    HW137965  11.494   1.993   5.978 -0.9404 -0.0253  0.2771
 9345SOL    HW237966  11.478   1.849   6.021  0.2062 -0.1328  0.3770
 9346SOL     OW37967   0.225   6.411   5.120  0.3247  0.3189 -0.0681
 9346SOL    HW137968   0.309   6.457   5.126  0.6863  0.2655 -3.0752
 9346SOL    HW237969   0.193   6.408   5.210  1.5129  4.1376  0.6800
 9347SOL     OW37970   1.937   4.359   3.090  0.1903 -0.0994 -0.0856
 9347SOL    HW137971   2.019   4.406   3.077  0.6432 -0.8644 -0.0982
 9347SOL    HW237972   1.895   4.404   3.163  0.2946  0.7216 -0.5252
 9348SOL     OW37973  11.108   3.918   1.981 -0.4955  0.2327 -0.3881
 9348SOL    HW137974  11.019   3.923   2.017 -1.0268 -0.8027 -1.5141
 9348SOL    HW237975  11.142   3.834   2.011  0.5265  1.0652  0.9074
 9349SOL     OW37976   5.616   5.395   2.430  0.7660 -0.4538  0.1323
 9349SOL    HW137977   5.646   5.482   2.404  0.6201 -0.4588 -0.0557
 9349SOL    HW237978   5.535   5.411   2.478  0.1437 -0.5576 -0.8565
 9350SOL     OW37979  12.123   2.386   5.246 -0.2618  0.2895 -0.7117
 9350SOL    HW137980  12.054   2.451   5.230  0.9031  2.3161  1.7625
 9350SOL    HW237981  12.177   2.425   5.315  0.7333 -3.1961  0.7027
 9351SOL     OW37982  13.133   3.446   6.693  0.1434  0.3067  0.3111
 9351SOL    HW137983  13.226   3.447   6.668 -0.1003  0.3319 -0.6383
 9351SOL    HW237984  13.132   3.404   6.779  0.9760 -0.2936  0.0446
 9352SOL     OW37985   3.210   4.064   2.401 -0.3704  0.0116  0.1816
 9352SOL    HW137986   3.205   4.077   2.306 -0.0741 -2.0041 -0.1541
 9352SOL    HW237987   3.126   4.024   2.424 -1.8023  3.3144  1.3832
 9353SOL     OW37988   7.168   4.795  13.291 -0.5667 -0.1621  1.0851
 9353SOL    HW137989   7.073   4.805  13.277 -0.4672 -0.6621 -0.0907
 9353SOL    HW237990   7.187   4.707  13.257  0.5467  0.4804 -0.0326
 9354SOL     OW37991   5.653   4.081   2.606  0.6046  0.5258 -0.3861
 9354SOL    HW137992   5.727   4.141   2.598 -0.2430  2.2567  2.9333
 9354SOL    HW237993   5.662   4.044   2.694 -1.8446 -0.0544 -0.3253
 9355SOL     OW37994   0.126   4.588  12.253  0.0516 -0.1497 -0.0931
 9355SOL    HW137995   0.077   4.600  12.334  1.2486  0.4097  0.5687
 9355SOL    HW237996   0.175   4.508  12.266 -0.1258 -0.3242 -0.4726
 9356SOL     OW37997  10.789   4.121  11.993 -0.1676 -0.2907  0.3378
 9356SOL    HW137998  10.789   4.095  11.900  0.3578 -0.3860  0.3607
 9356SOL    HW237999  10.853   4.192  11.998 -0.2505 -0.2360  0.6164
 9357SOL     OW38000   7.093   8.331   3.991  0.1124 -0.7048 -0.9408
 9357SOL    HW138001   7.156   8.370   3.932  0.8076 -1.6249 -0.8298
 9357SOL    HW238002   7.059   8.404   4.043  0.3129 -0.0608 -1.7050
 9358SOL     OW38003   1.225   2.833   4.552  0.3357  0.2514  0.7265
 9358SOL    HW138004   1.234   2.768   4.482  2.3866  0.1255  1.0552
 9358SOL    HW238005   1.281   2.800   4.623  0.6287  1.8645  1.2948
 9359SOL     OW38006   0.104   1.242   5.277 -0.5440 -0.1325 -0.2892
 9359SOL    HW138007   0.108   1.306   5.349 -0.0688 -0.6537  0.1512
 9359SOL    HW238008   0.064   1.165   5.316 -2.4636  0.3548 -1.1840
 9360SOL     OW38009   8.453   9.042   3.413  0.0476 -0.2781  0.4420
 9360SOL    HW138010   8.420   8.954   3.391 -1.9994 -0.1778  2.6851
 9360SOL    HW238011   8.377   9.099   3.401  1.0655  1.0411  0.0649
 9361SOL     OW38012   2.969  12.507  11.886  0.1676 -0.6964  0.0555
 9361SOL    HW138013   2.993  12.600  11.894  1.4855 -1.0939  1.2279
 9361SOL    HW238014   3.051  12.460  11.904 -0.3415 -2.0853 -1.0991
 9362SOL     OW38015  10.963  10.780   5.450 -0.4984 -0.6216  0.2067
 9362SOL    HW138016  10.878  10.791   5.407  0.5455  1.5049 -1.4809
 9362SOL    HW238017  11.027  10.798   5.382  1.3243 -0.8144  1.7879
 9363SOL     OW38018   3.716  11.009   5.902 -0.0446  0.0025 -0.3680
 9363SOL    HW138019   3.680  11.035   5.987  0.0604  0.1558 -0.3695
 9363SOL    HW238020   3.658  10.940   5.872 -0.7952  0.7653 -0.7216
 9364SOL     OW38021   3.113   6.142  12.610 -0.0592  0.3097  0.3682
 9364SOL    HW138022   3.104   6.231  12.642 -0.6857  1.9479 -3.7119
 9364SOL    HW238023   3.195   6.142  12.561  0.4712 -1.7481  1.1228
 9365SOL     OW38024   2.602   1.102  12.912  0.1479  0.0277  0.0818
 9365SOL    HW138025   2.565   1.059  12.836  0.0274 -0.1861  0.2602
 9365SOL    HW238026   2.551   1.069  12.986 -0.2395  0.8030  0.1798
 9366SOL     OW38027   8.618   2.148   0.710  0.0450 -0.2151  0.0455
 9366SOL    HW138028   8.672   2.108   0.642 -0.8492 -0.6286 -0.4250
 9366SOL    HW238029   8.530   2.152   0.673 -0.0158  1.7333  0.2610
 9367SOL     OW38030   5.328   0.182  10.076 -0.0004  0.1331  0.1729
 9367SOL    HW138031   5.357   0.216   9.991 -1.9931  0.5768 -0.3901
 9367SOL    HW238032   5.249   0.133  10.056  0.1570 -0.7632  1.6453
 9368SOL     OW38033  10.361   1.492   3.934  0.1110 -0.1819  0.1554
 9368SOL    HW138034  10.270   1.487   3.962  0.1298 -0.3962  0.1847
 9368SOL    HW238035  10.375   1.583   3.910 -0.3921 -0.3543 -0.8137
 9369SOL     OW38036  12.297   9.359  10.180  0.4766 -0.1234 -0.1290
 9369SOL    HW138037  12.262   9.392  10.098  0.5851 -0.2227 -0.2152
 9369SOL    HW238038  12.329   9.437  10.225 -1.1027  0.1616  0.5722
 9370SOL     OW38039   0.707  10.320   9.082 -0.2449 -0.0757  0.1170
 9370SOL    HW138040   0.780  10.372   9.048  0.0101 -0.0715  0.6632
 9370SOL    HW238041   0.734  10.229   9.067 -0.7107 -0.0656 -0.8800
 9371SOL     OW38042  10.133   3.485  12.349 -0.2280 -0.0240 -0.0040
 9371SOL    HW138043  10.072   3.556  12.329 -0.1017 -0.1581 -0.8940
 9371SOL    HW238044  10.206   3.498  12.289  0.3021 -0.2821  0.5674
 9372SOL     OW38045   6.003   5.848  12.434  0.0603 -0.5512 -0.3814
 9372SOL    HW138046   5.991   5.759  12.465  2.6030  0.0483  2.7459
 9372SOL    HW238047   5.951   5.902  12.494 -0.0824  0.2263 -1.1728
 9373SOL     OW38048  12.259   4.419   0.427 -0.2789 -0.1070  0.2784
 9373SOL    HW138049  12.315   4.437   0.351 -1.0248 -0.2959 -0.3328
 9373SOL    HW238050  12.172   4.448   0.399 -0.5491 -0.1140  1.0941
 9374SOL     OW38051   3.219   4.289   8.916 -0.1407 -0.6178  0.5252
 9374SOL    HW138052   3.258   4.225   8.976  0.3834 -0.7824  0.0167
 9374SOL    HW238053   3.212   4.242   8.833  1.2504  0.3089 -0.1471
 9375SOL     OW38054   3.625   7.736   4.860  0.5546 -0.4104  0.0280
 9375SOL    HW138055   3.566   7.662   4.844  0.7495 -0.5417 -0.0959
 9375SOL    HW238056   3.624   7.748   4.955 -0.1750  0.0082 -0.0207
 9376SOL     OW38057   2.420   7.108   6.942 -0.1941 -0.0355  0.0944
 9376SOL    HW138058   2.345   7.145   6.895 -0.5106  1.3814  1.6236
 9376SOL    HW238059   2.387   7.029   6.983 -0.8037  0.4438  0.5478
 9377SOL     OW38060   0.598   9.685  11.328 -0.1516  0.6170 -0.6761
 9377SOL    HW138061   0.682   9.716  11.293  0.0921  1.0506  0.2590
 9377SOL    HW238062   0.603   9.590  11.322  0.8523  0.5854  0.3205
 9378SOL     OW38063  12.083  12.580  11.657 -0.0826 -0.3606  0.3279
 9378SOL    HW138064  12.041  12.500  11.691 -2.5815  0.8980  0.4370
 9378SOL    HW238065  12.037  12.598  11.575  0.1304  1.2179  0.5352
 9379SOL     OW38066   0.964   2.048  12.732 -0.2363  0.6480 -0.0764
 9379SOL    HW138067   1.005   1.967  12.701  1.3596  0.5281  2.0732
 9379SOL    HW238068   0.885   2.019  12.777 -0.8107  0.5153 -1.1554
 9380SOL     OW38069   4.784   5.964   5.614 -0.2671  0.3448 -0.1301
 9380SOL    HW138070   4.754   5.873   5.608  1.7252 -0.5753  2.2913
 9380SOL    HW238071   4.779   5.985   5.708  1.5230  1.9163 -0.3305
 9381SOL     OW38072  12.336   1.750   2.694  0.4157 -0.6798  0.0464
 9381SOL    HW138073  12.431   1.751   2.705  0.2284 -1.7309  2.0618
 9381SOL    HW238074  12.317   1.831   2.646  2.3528 -0.7228 -0.8931
 9382SOL     OW38075   9.925  10.124  12.795  0.0297 -0.3819  0.4629
 9382SOL    HW138076   9.952  10.036  12.768 -1.6222 -0.6050 -0.5730
 9382SOL    HW238077  10.005  10.165  12.828  0.7053 -2.5158  1.6710
 9383SOL     OW38078   1.341   3.685   3.084 -0.0016  0.2993 -0.0776
 9383SOL    HW138079   1.417   3.653   3.035  0.6765 -0.5967  1.4652
 9383SOL    HW238080   1.344   3.636   3.167 -1.7271  0.9400  0.4077
 9384SOL     OW38081  11.211   9.198  10.202  0.0665 -0.2319 -0.9204
 9384SOL    HW138082  11.235   9.217  10.292  0.8546 -2.2689 -0.6312
 9384SOL    HW238083  11.284   9.233  10.150  0.6578 -0.8798 -0.5551
 9385SOL     OW38084   3.686   6.558   2.693 -0.0335  0.1486  0.1685
 9385SOL    HW138085   3.747   6.523   2.758 -0.8821 -1.4698  0.1224
 9385SOL    HW238086   3.739   6.620   2.643  1.2300 -0.2549  0.9522
 9386SOL     OW38087  10.849   6.466   7.585 -1.0817 -0.1670  0.3093
 9386SOL    HW138088  10.766   6.472   7.633 -1.2878  0.3675 -0.0925
 9386SOL    HW238089  10.890   6.386   7.617 -0.8485  0.5702  1.9444
 9387SOL     OW38090   0.863   8.813   6.131 -0.7197 -0.2085  0.9600
 9387SOL    HW138091   0.850   8.721   6.109 -0.0782  0.3410 -2.0736
 9387SOL    HW238092   0.786   8.858   6.095 -0.2217  0.6492  0.9428
 9388SOL     OW38093   0.335  12.319  13.053  0.2480 -0.7714 -0.1027
 9388SOL    HW138094   0.424  12.292  13.034  0.4349  1.0947 -2.2897
 9388SOL    HW238095   0.333  12.413  13.033 -2.0042 -0.5940  0.6569
 9389SOL     OW38096   0.076   5.482   2.795  0.3882  0.2428  0.0308
 9389SOL    HW138097   0.031   5.473   2.711 -0.1641 -1.5694  0.4717
 9389SOL    HW238098   0.163   5.513   2.772 -0.2870  1.4244 -1.0529
 9390SOL     OW38099   3.428   1.742  10.778 -0.4948  0.0822 -0.1072
 9390SOL    HW138100   3.429   1.663  10.725 -0.4863 -0.0546  0.0943
 9390SOL    HW238101   3.404   1.712  10.866  2.6452 -0.2068  0.7830
 9391SOL     OW38102  12.686  10.898   4.054  0.0240  0.0845 -0.5747
 9391SOL    HW138103  12.702  10.940   3.969  2.1566 -0.8061 -0.6768
 9391SOL    HW238104  12.689  10.970   4.117  0.4220  0.5082 -1.0602
 9392SOL     OW38105   4.730   6.531  11.046 -0.5197 -0.2292 -0.0441
 9392SOL    HW138106   4.654   6.493  11.090 -0.8042 -0.6301 -0.8500
 9392SOL    HW238107   4.716   6.512  10.953 -0.7781  2.0134 -0.5315
 9393SOL     OW38108   0.399   7.677   2.930  0.1821  0.2080  0.2627
 9393SOL    HW138109   0.374   7.765   2.900  1.6541  0.9917  1.1939
 9393SOL    HW238110   0.426   7.690   3.021  2.3889 -0.8141 -0.1984
 9394SOL     OW38111   2.957   9.896   9.316 -0.4217 -0.0180 -0.4213
 9394SOL    HW138112   3.046   9.884   9.350 -0.0332 -0.0740 -1.4296
 9394SOL    HW238113   2.937   9.988   9.334 -0.6811 -0.3247  0.9813
 9395SOL     OW38114  10.879   7.619   5.386 -0.2070 -0.1965 -0.0817
 9395SOL    HW138115  10.859   7.708   5.416  2.1685  0.8250 -1.2540
 9395SOL    HW238116  10.834   7.611   5.302  0.8364  0.5396 -0.7369
 9396SOL     OW38117   6.971   9.373  12.872 -0.3357  0.5073  0.1952
 9396SOL    HW138118   7.000   9.420  12.950  0.9226 -1.1432  0.7841
 9396SOL    HW238119   6.885   9.337  12.896  0.5745 -1.0362  1.3497
 9397SOL     OW38120   8.713   5.850   2.549 -0.1694  0.6132  0.4082
 9397SOL    HW138121   8.787   5.792   2.532 -1.9994 -2.3225  1.6555
 9397SOL    HW238122   8.729   5.927   2.495  2.8338 -0.6775 -0.7296
 9398SOL     OW38123   8.445   1.045   1.811 -1.1474  0.0454 -0.1575
 9398SOL    HW138124   8.437   0.972   1.750 -1.8305  1.0631 -1.3178
 9398SOL    HW238125   8.355   1.065   1.838 -0.9624  0.3970  0.2276
 9399SOL     OW38126  12.195  10.976  11.658  0.3725  0.3321 -0.0055
 9399SOL    HW138127  12.131  10.962  11.588  0.4193 -0.1145  0.0386
 9399SOL    HW238128  12.160  11.050  11.707 -0.8731 -0.8006  0.8781
 9400SOL     OW38129  12.674  11.739   7.122  0.0908  0.0092 -0.0772
 9400SOL    HW138130  12.713  11.817   7.160  0.8758  0.4880 -1.7503
 9400SOL    HW238131  12.637  11.691   7.196  1.6738  0.7802  1.2779
 9401SOL     OW38132   5.989   4.881  12.781  0.2181 -0.3088  0.1137
 9401SOL    HW138133   5.971   4.975  12.789  0.9029 -0.2161  0.6767
 9401SOL    HW238134   6.046   4.861  12.855 -0.9691 -1.4491  0.7614
 9402SOL     OW38135   1.701  11.361  10.097  0.2223 -0.4394 -0.2141
 9402SOL    HW138136   1.609  11.387  10.097  0.6571  1.2535  1.0376
 9402SOL    HW238137   1.718  11.334  10.006 -1.1209  0.6468 -0.8283
 9403SOL     OW38138   6.574  11.329   1.726 -0.2292  0.2214  0.2381
 9403SOL    HW138139   6.620  11.391   1.782  0.2247  2.0522 -1.9967
 9403SOL    HW238140   6.482  11.351   1.736 -0.1580  0.4971  0.2880
 9404SOL     OW38141   7.598  11.840   3.590  0.2499  1.1089  0.7430
 9404SOL    HW138142   7.646  11.909   3.637  1.1312  0.4363  0.8613
 9404SOL    HW238143   7.638  11.840   3.502  0.1542  0.8487  0.7006
 9405SOL     OW38144   5.298  12.979  12.331 -0.4221  0.0873  0.4819
 9405SOL    HW138145   5.346  13.045  12.281  0.7085 -1.3486 -0.4462
 9405SOL    HW238146   5.239  12.940  12.267 -0.2035 -0.6006  0.6917
 9406SOL     OW38147   6.494   8.645   5.961 -0.6822  0.5506 -0.2834
 9406SOL    HW138148   6.458   8.674   6.045 -0.0526  1.0180 -0.1641
 9406SOL    HW238149   6.539   8.563   5.981 -0.0120  0.9748 -0.0378
 9407SOL     OW38150   7.920   3.866   1.388 -0.6819  0.5310 -0.4547
 9407SOL    HW138151   7.845   3.815   1.416  0.2248 -0.5825  0.0264
 9407SOL    HW238152   7.902   3.955   1.418 -1.9279  0.3404 -0.6119
 9408SOL     OW38153   3.281  10.007   5.249  0.3096  0.5906  0.3038
 9408SOL    HW138154   3.310   9.920   5.218 -1.4192 -0.1364  0.6150
 9408SOL    HW238155   3.192  10.016   5.214  0.6211  2.4694 -0.1124
 9409SOL     OW38156   2.262   7.530  12.849  0.2170 -0.0903  0.0077
 9409SOL    HW138157   2.225   7.588  12.782  0.4003 -0.1839 -0.1759
 9409SOL    HW238158   2.307   7.589  12.910 -0.3261  0.0339  0.2941
 9410SOL     OW38159  13.173  11.996   7.912  0.1481 -0.0275 -0.1425
 9410SOL    HW138160  13.163  11.957   7.825 -1.2684  0.8043 -0.3725
 9410SOL    HW238161  13.204  12.085   7.895 -0.9589  0.4230  0.1495
 9411SOL     OW38162   9.382   1.428   2.936  0.3647  0.0286  0.5050
 9411SOL    HW138163   9.322   1.353   2.942 -1.2443  1.2496  0.2849
 9411SOL    HW238164   9.398   1.453   3.027 -1.2417  1.0215  0.5497
 9412SOL     OW38165   1.772  10.077  10.055  0.3252 -0.3272 -0.3733
 9412SOL    HW138166   1.731  10.095   9.971 -1.6934 -2.3133  0.0997
 9412SOL    HW238167   1.799   9.986  10.050 -1.3913 -1.0202  1.6637
 9413SOL     OW38168  11.969   4.280  12.580  0.3097 -0.4430  0.0687
 9413SOL    HW138169  12.039   4.279  12.645  0.6195 -1.0533 -0.2676
 9413SOL    HW238170  11.910   4.209  12.607  0.2815 -0.5009 -0.1447
 9414SOL     OW38171   2.179   0.098   5.935 -0.2694  0.0135 -0.3620
 9414SOL    HW138172   2.221   0.012   5.939 -1.1458 -0.3826  0.7216
 9414SOL    HW238173   2.184   0.132   6.024 -2.5780 -0.2437 -0.0704
 9415SOL     OW38174   0.043   6.323   4.759 -0.0443  1.1546 -0.3014
 9415SOL    HW138175  -0.002   6.389   4.707  2.5039  3.0138 -0.3697
 9415SOL    HW238176   0.035   6.355   4.849 -0.1363  0.6972 -0.1486
 9416SOL     OW38177   7.102   4.656   4.280 -0.2645 -0.1451 -0.0204
 9416SOL    HW138178   7.080   4.746   4.305  1.8123  0.6962 -0.9884
 9416SOL    HW238179   7.084   4.653   4.186 -0.9123 -0.9648  0.1178
 9417SOL     OW38180   2.500   0.157  12.951 -0.1112 -0.2710 -0.1483
 9417SOL    HW138181   2.548   0.161  13.034  2.1290  0.3812 -1.3935
 9417SOL    HW238182   2.427   0.218  12.963  2.1185  2.5636  0.2442
 9418SOL     OW38183  10.422   2.543   0.839 -0.2027  0.2224  0.4467
 9418SOL    HW138184  10.504   2.554   0.791 -0.4522  0.5286  0.0739
 9418SOL    HW238185  10.423   2.453   0.869  0.0718  0.0957  0.0637
 9419SOL     OW38186   4.382  10.779   2.511 -0.1967  0.3431  0.0605
 9419SOL    HW138187   4.363  10.711   2.446 -1.1260  0.3130  0.3538
 9419SOL    HW238188   4.308  10.839   2.505  1.8254  2.8395 -2.0710
 9420SOL     OW38189   0.240  12.106  11.103 -0.2784 -0.0710 -0.0721
 9420SOL    HW138190   0.293  12.126  11.181 -0.7214  1.6749 -0.1732
 9420SOL    HW238191   0.299  12.055  11.047  1.0248  1.0469  0.2009
 9421SOL     OW38192   7.828   8.109  10.851 -0.1136 -0.0209 -0.2649
 9421SOL    HW138193   7.776   8.056  10.790  0.0643 -0.3883 -0.0992
 9421SOL    HW238194   7.804   8.199  10.830  0.6042 -0.0812 -1.4880
 9422SOL     OW38195   3.287  10.058  11.270 -0.1187 -0.6287  0.5839
 9422SOL    HW138196   3.325  10.120  11.332  1.6609 -0.8187 -0.2522
 9422SOL    HW238197   3.322  10.085  11.185 -0.9266 -1.5704 -0.0735
 9423SOL     OW38198   4.780  12.100   0.816  1.2521  0.0410  0.1740
 9423SOL    HW138199   4.721  12.112   0.890  2.2522  0.5716  0.9153
 9423SOL    HW238200   4.745  12.158   0.748  1.9239  1.7623  1.2340
 9424SOL     OW38201  11.437   3.655   1.634 -0.3765 -0.2432 -0.0007
 9424SOL    HW138202  11.476   3.742   1.618  0.0390 -0.0490  1.8769
 9424SOL    HW238203  11.512   3.596   1.635 -0.4150 -0.2822  0.9106
 9425SOL     OW38204   7.124   9.200   2.340  0.4909 -0.0155 -0.1167
 9425SOL    HW138205   7.194   9.235   2.396 -0.0382 -0.4347  0.8286
 9425SOL    HW238206   7.143   9.106   2.335 -0.9515 -0.4276  1.5661
 9426SOL     OW38207   2.691   1.445   4.218 -0.4317 -0.0739  0.0729
 9426SOL    HW138208   2.687   1.510   4.147 -0.3266  0.6343  0.6971
 9426SOL    HW238209   2.718   1.364   4.175  0.0273  0.4399 -0.6359
 9427SOL     OW38210   3.725   8.306   1.105  0.2596 -0.2312  0.2290
 9427SOL    HW138211   3.674   8.370   1.154  1.1043 -0.0157  0.8464
 9427SOL    HW238212   3.804   8.353   1.078 -0.0704 -0.4093 -1.1572
 9428SOL     OW38213   5.998  10.873   9.001  0.0950 -0.0288 -0.5839
 9428SOL    HW138214   6.049  10.917   9.069 -0.7092 -0.3467  0.2362
 9428SOL    HW238215   5.907  10.894   9.021 -0.1979 -0.7220 -1.1300
 9429SOL     OW38216   0.562   5.493   7.737 -0.2960  0.1307  0.6554
 9429SOL    HW138217   0.557   5.398   7.727  0.2960  0.2271 -1.0125
 9429SOL    HW238218   0.637   5.507   7.795 -1.2352 -0.4300  2.0520
 9430SOL     OW38219   3.223   0.475   9.378 -0.0015 -0.0804  1.2959
 9430SOL    HW138220   3.157   0.420   9.421  0.5180 -1.6254  0.2031
 9430SOL    HW238221   3.271   0.415   9.322 -0.6187  1.8258 -1.4578
 9431SOL     OW38222   1.763  12.843   0.467 -0.1774  0.1678  0.3590
 9431SOL    HW138223   1.720  12.759   0.453  0.2200  0.0641 -0.3220
 9431SOL    HW238224   1.787  12.873   0.379  1.1596  0.1985  0.7008
 9432SOL     OW38225   7.164  11.659   6.507 -0.2843  0.3688 -0.6948
 9432SOL    HW138226   7.125  11.661   6.420 -1.7514  2.2970 -0.0734
 9432SOL    HW238227   7.235  11.723   6.502 -0.0245  0.0870 -0.6169
 9433SOL     OW38228  10.142   4.126   5.178  0.2884 -0.3116 -0.5076
 9433SOL    HW138229  10.220   4.121   5.122  0.8463 -1.2020  0.3216
 9433SOL    HW238230  10.082   4.060   5.142 -0.3986  0.8385 -1.5660
 9434SOL     OW38231   1.940   8.659   7.464  0.2856  0.0651  0.3117
 9434SOL    HW138232   1.899   8.740   7.434  0.6455  1.1636  2.5484
 9434SOL    HW238233   2.015   8.648   7.405 -0.4678  0.6408 -0.8065
 9435SOL     OW38234  12.563   7.050  11.080  0.1905  0.0345  0.8938
 9435SOL    HW138235  12.643   7.103  11.086 -0.3274  0.9649  0.0037
 9435SOL    HW238236  12.500   7.097  11.135 -0.2755  0.3662  0.0944
 9436SOL     OW38237   2.202   6.172   7.415 -0.4510  0.0351 -0.4426
 9436SOL    HW138238   2.297   6.173   7.425 -0.6227  0.6096  1.5341
 9436SOL    HW238239   2.179   6.080   7.400  0.3152 -0.2927  0.3531
 9437SOL     OW38240  11.196   3.781   4.486  0.4172  0.4646  0.0977
 9437SOL    HW138241  11.148   3.848   4.535 -0.3291 -0.2326  0.3455
 9437SOL    HW238242  11.217   3.714   4.551  0.3294  0.0140 -0.3312
 9438SOL     OW38243   7.607  11.404   2.250  0.0428 -0.1554 -0.1318
 9438SOL    HW138244   7.530  11.376   2.300  0.0715 -0.3052 -0.1725
 9438SOL    HW238245   7.681  11.388   2.308 -0.0414  0.9112  0.2947
 9439SOL     OW38246  11.402   2.639   0.968 -0.3896 -0.4454  0.4549
 9439SOL    HW138247  11.468   2.652   1.036  1.1838 -1.1628 -0.8831
 9439SOL    HW238248  11.452   2.625   0.888 -2.1861 -0.3917 -0.7300
 9440SOL     OW38249   7.233   1.159   6.917  0.0355  0.4230  0.3192
 9440SOL    HW138250   7.227   1.254   6.929 -3.7687  0.3138  0.3915
 9440SOL    HW238251   7.252   1.125   7.005  0.3564  1.0731  0.5049
 9441SOL     OW38252   3.975   3.987  10.150 -0.2855  0.4471  1.0517
 9441SOL    HW138253   3.974   3.900  10.190 -0.4646  0.3322  0.8018
 9441SOL    HW238254   3.921   4.040  10.209  0.3088  0.5370  1.5238
 9442SOL     OW38255   4.109   7.060  11.389 -0.2809 -0.2377  0.1135
 9442SOL    HW138256   4.183   7.054  11.450 -0.1802 -2.0025 -0.1431
 9442SOL    HW238257   4.136   7.009  11.313  0.4845  3.5969 -2.4708
 9443SOL     OW38258   8.238   2.961   1.589 -0.3528  0.0601  0.3081
 9443SOL    HW138259   8.290   2.993   1.515  2.1019 -1.5480  1.2199
 9443SOL    HW238260   8.163   2.918   1.548 -0.1638  1.0343 -1.1418
 9444SOL     OW38261  10.062   0.370   4.619 -0.1001 -0.5116 -0.1367
 9444SOL    HW138262  10.035   0.295   4.567 -1.0928 -2.2032  2.5873
 9444SOL    HW238263  10.099   0.332   4.699  0.4346  1.8907  0.8608
 9445SOL     OW38264   8.869   5.881  13.128  0.2723 -0.8878  0.3115
 9445SOL    HW138265   8.947   5.915  13.171  0.2303 -0.5674  0.1366
 9445SOL    HW238266   8.797   5.903  13.187  0.1512  0.0035 -0.1558
 9446SOL     OW38267   2.118  12.287  11.764  0.4214  0.1887  0.9999
 9446SOL    HW138268   2.146  12.206  11.806  0.1728  0.4082  1.5962
 9446SOL    HW238269   2.197  12.320  11.721  0.6156 -0.1703  1.0810
 9447SOL     OW38270  12.872  11.313  12.166 -0.7732 -0.4805 -0.1869
 9447SOL    HW138271  12.929  11.305  12.242 -1.0270 -0.1973  0.0375
 9447SOL    HW238272  12.860  11.407  12.154  1.0136 -0.4213 -1.9148
 9448SOL     OW38273   8.275   1.191  11.103  0.6980 -0.1603  0.7854
 9448SOL    HW138274   8.258   1.235  11.020  1.0849  1.2300  1.4243
 9448SOL    HW238275   8.366   1.213  11.124  0.8021 -1.0173  1.2760
 9449SOL     OW38276   6.826  10.550  10.077  0.2004 -0.7141  0.4665
 9449SOL    HW138277   6.819  10.557   9.982 -0.7083 -1.2101  0.4856
 9449SOL    HW238278   6.843  10.639  10.106 -1.3945 -0.2037 -0.0321
 9450SOL     OW38279  10.581  11.574   4.582  0.3957  0.0885  0.0625
 9450SOL    HW138280  10.525  11.550   4.655  0.4516  0.2209  0.1486
 9450SOL    HW238281  10.645  11.502   4.576  0.5353  0.1915  0.2930
 9451SOL     OW38282   6.309   8.880   7.264  0.1849  0.3071 -0.2028
 9451SOL    HW138283   6.306   8.801   7.210 -1.4667 -0.4348  0.8851
 9451SOL    HW238284   6.230   8.929   7.240 -0.2787  0.2372  1.0837
 9452SOL     OW38285  13.051   9.235   3.662  0.4313 -0.3533 -0.5143
 9452SOL    HW138286  13.057   9.228   3.567  2.1258 -0.1885 -0.4536
 9452SOL    HW238287  13.059   9.329   3.680 -3.1624  0.0456 -0.3284
 9453SOL     OW38288   9.599   9.821   4.355  0.4423 -0.1595  0.1588
 9453SOL    HW138289   9.562   9.764   4.422  1.0644  0.0955  0.7380
 9453SOL    HW238290   9.557   9.906   4.368  0.0571 -0.2858 -0.2285
 9454SOL     OW38291  12.881   3.496   5.798  0.3589 -0.6042  0.5849
 9454SOL    HW138292  12.875   3.408   5.835  1.2122 -0.2799  1.5478
 9454SOL    HW238293  12.967   3.528   5.825 -0.1857  0.7701  0.8156
 9455SOL     OW38294   7.897  12.887   4.711  0.3185  0.1949 -0.1699
 9455SOL    HW138295   7.967  12.878   4.776 -0.1207 -0.1000  0.2775
 9455SOL    HW238296   7.899  12.804   4.663  0.3525  0.2316 -0.2315
 9456SOL     OW38297   4.086   1.957  13.185 -0.5952  0.0625 -0.3040
 9456SOL    HW138298   4.114   1.979  13.096 -2.5654 -0.4009 -1.0769
 9456SOL    HW238299   4.064   2.041  13.225  1.0272  0.3567  0.0652
 9457SOL     OW38300   6.006   4.312  13.254  0.0074 -0.7635 -0.3183
 9457SOL    HW138301   5.921   4.330  13.215  0.2065  0.2176 -0.3199
 9457SOL    HW238302   5.989   4.244  13.320 -1.2429  1.1201  1.4222
 9458SOL     OW38303   0.902  12.316   1.283 -0.8827 -0.0627  0.1393
 9458SOL    HW138304   0.924  12.408   1.296  1.4272 -0.6500  0.9044
 9458SOL    HW238305   0.951  12.270   1.351 -0.7922 -1.9891 -1.1513
 9459SOL     OW38306   4.085   9.247   0.656 -0.0292  0.3689  0.1489
 9459SOL    HW138307   4.007   9.274   0.705 -1.0861 -1.9431 -0.1590
 9459SOL    HW238308   4.052   9.219   0.571  1.2432  0.0749 -0.2758
 9460SOL     OW38309  12.400   1.759  12.746 -0.7189  0.2531  0.3861
 9460SOL    HW138310  12.420   1.814  12.670  1.6950 -0.7535  0.2062
 9460SOL    HW238311  12.343   1.690  12.711 -0.3845  0.3218 -0.3028
 9461SOL     OW38312   6.276   1.533   1.315 -0.3027  0.1408  0.3701
 9461SOL    HW138313   6.279   1.449   1.360 -0.1676  0.7464  1.5229
 9461SOL    HW238314   6.198   1.529   1.260 -0.2737 -0.7459  0.3910
 9462SOL     OW38315   3.469   7.764  10.959  0.3833 -0.4595  0.3309
 9462SOL    HW138316   3.463   7.798  10.869 -0.9344 -0.1249  0.5252
 9462SOL    HW238317   3.562   7.750  10.973  0.6223 -0.3729 -1.0428
 9463SOL     OW38318   4.159   4.391  12.229 -0.9978  0.1137  0.1022
 9463SOL    HW138319   4.092   4.325  12.244 -1.7057  0.7671 -0.0946
 9463SOL    HW238320   4.146   4.417  12.137 -0.9065  0.7104  0.2564
 9464SOL     OW38321   9.891   2.956  11.895  0.2914  0.1417 -0.4999
 9464SOL    HW138322   9.984   2.944  11.914  0.0079 -0.5006  0.5431
 9464SOL    HW238323   9.852   2.871  11.915 -0.5215  0.4067 -0.9368
 9465SOL     OW38324  13.130   7.565   1.167 -0.5041  0.0489 -0.5777
 9465SOL    HW138325  13.106   7.626   1.097  1.9925  0.2082 -1.4113
 9465SOL    HW238326  13.217   7.534   1.142 -0.4665 -1.6009  1.3648
 9466SOL     OW38327   6.134   7.071   2.557  0.9689  1.0180 -0.5040
 9466SOL    HW138328   6.090   6.991   2.584  0.3249  1.6034  0.2696
 9466SOL    HW238329   6.224   7.061   2.587  0.6579  0.9699  0.4425
 9467SOL     OW38330  13.215   2.731   3.527  0.1756  0.1489 -0.8038
 9467SOL    HW138331  13.305   2.763   3.526  0.5789 -0.9379 -1.6889
 9467SOL    HW238332  13.211   2.671   3.601  0.0912  0.3996 -0.6014
 9468SOL     OW38333  10.666   5.649  10.301  0.0211 -0.3698  0.0942
 9468SOL    HW138334  10.657   5.715  10.232  1.9685 -0.4340 -0.2939
 9468SOL    HW238335  10.599   5.583  10.280 -0.3570  0.3089 -0.8989
 9469SOL     OW38336   8.922   3.860  12.764 -0.7182 -0.6839  0.3008
 9469SOL    HW138337   8.961   3.918  12.698 -1.4361  0.8444  1.1646
 9469SOL    HW238338   8.948   3.772  12.737  0.8370  0.0602 -0.7817
 9470SOL     OW38339   8.900   4.428  13.210 -0.2583  0.5082  0.4222
 9470SOL    HW138340   8.921   4.384  13.128 -1.9650 -1.1264  0.8057
 9470SOL    HW238341   8.829   4.488  13.187 -0.5030  0.2994  0.6260
 9471SOL     OW38342   0.578   5.642  12.898 -0.4303  0.3610  0.0665
 9471SOL    HW138343   0.581   5.737  12.896 -1.8619  0.4252 -1.5420
 9471SOL    HW238344   0.561   5.617  12.808  0.6478 -1.4842  0.3166
 9472SOL     OW38345   3.483   1.501   0.465 -0.3960  0.3427  0.1628
 9472SOL    HW138346   3.428   1.526   0.391 -1.1943  1.3149  1.0634
 9472SOL    HW238347   3.544   1.573   0.476 -2.2727  1.7505  2.3404
 9473SOL     OW38348   1.576   6.869   5.649  0.0178  0.4372  0.2659
 9473SOL    HW138349   1.597   6.819   5.728  0.7706 -0.9172 -0.7492
 9473SOL    HW238350   1.623   6.952   5.660  0.6207  0.0140  0.9694
 9474SOL     OW38351   9.401   2.526   0.902 -1.4633  0.4471 -0.0374
 9474SOL    HW138352   9.438   2.613   0.919 -0.1212 -0.4498  1.9005
 9474SOL    HW238353   9.424   2.474   0.979 -2.5842 -1.5375 -0.9703
 9475SOL     OW38354   1.053  10.474   5.308  0.3622 -0.4619 -0.7242
 9475SOL    HW138355   1.092  10.493   5.393 -0.3580 -2.1095  0.0094
 9475SOL    HW238356   1.099  10.532   5.247  0.4939  1.1801  0.8481
 9476SOL     OW38357   2.277  10.413   5.572  0.0021  0.3689  0.0662
 9476SOL    HW138358   2.214  10.449   5.509  1.2474 -1.0265 -2.1151
 9476SOL    HW238359   2.239  10.331   5.602 -0.1398  0.5313  0.3262
 9477SOL     OW38360   8.926   7.759   4.001  0.0493 -0.1075 -0.6403
 9477SOL    HW138361   8.968   7.673   3.999  0.1024 -0.3194  2.9605
 9477SOL    HW238362   8.860   7.752   4.070 -1.7778  2.0161 -2.0445
 9478SOL     OW38363   9.128   9.031   4.513  0.3948 -0.3034 -0.1294
 9478SOL    HW138364   9.033   9.024   4.519  0.3983  0.0970  0.3813
 9478SOL    HW238365   9.161   8.975   4.583  0.5772 -1.6133 -1.2106
 9479SOL     OW38366  11.461   2.957   2.541  0.0353 -0.7476  0.1830
 9479SOL    HW138367  11.409   2.884   2.574 -2.6119  1.3180  0.9908
 9479SOL    HW238368  11.545   2.918   2.518 -0.8524 -3.8163  1.5467
 9480SOL     OW38369   9.213  12.320  10.267  0.1823  0.6216  0.2529
 9480SOL    HW138370   9.194  12.282  10.353 -2.5614 -1.5965 -1.1563
 9480SOL    HW238371   9.143  12.383  10.252 -0.2674 -0.1093 -0.9053
 9481SOL     OW38372   5.766   5.801   3.552 -0.8863  0.0102 -0.6930
 9481SOL    HW138373   5.752   5.719   3.600  0.9938 -0.2758 -0.5521
 9481SOL    HW238374   5.679   5.827   3.524 -1.7244 -1.2123  0.6116
 9482SOL     OW38375   8.004   5.451   1.163  0.4472  0.0632  0.3011
 9482SOL    HW138376   8.088   5.430   1.122  0.7671  1.0495  0.4370
 9482SOL    HW238377   8.004   5.400   1.244  0.7667 -0.2013  0.1365
 9483SOL     OW38378   0.025   2.210  12.197 -0.2015  0.1533  0.2025
 9483SOL    HW138379   0.032   2.220  12.292 -1.0309 -0.5686  0.3557
 9483SOL    HW238380  -0.052   2.154  12.185  0.0080  0.0837 -0.8853
 9484SOL     OW38381   0.690  13.270  10.770  0.1419  0.4485 -0.3380
 9484SOL    HW138382   0.663  13.215  10.844  0.9460  0.3770 -0.0939
 9484SOL    HW238383   0.607  13.296  10.728 -0.2664 -0.6192 -0.2229
 9485SOL     OW38384   8.734  12.775   2.461  0.0557 -0.1417 -0.7055
 9485SOL    HW138385   8.760  12.707   2.523  0.7204  0.9502  0.2609
 9485SOL    HW238386   8.661  12.737   2.412  1.2935 -2.0690 -1.1820
 9486SOL     OW38387   5.271   0.385   5.028 -0.2780 -0.3310 -0.2108
 9486SOL    HW138388   5.228   0.368   4.944  1.6999  0.0783 -1.3503
 9486SOL    HW238389   5.308   0.301   5.054 -1.3605 -0.5899  0.5746
 9487SOL     OW38390   5.673   5.294   9.053  0.3605  0.0097  0.0458
 9487SOL    HW138391   5.710   5.368   9.102 -0.2457  0.7267 -0.5413
 9487SOL    HW238392   5.678   5.322   8.961  0.2316 -0.7341 -0.1919
 9488SOL     OW38393   8.970  10.010   8.263  0.6567 -0.0160 -0.2359
 9488SOL    HW138394   9.002  10.094   8.232 -1.3766  1.0258  0.3127
 9488SOL    HW238395   8.989  10.010   8.357  0.2943  0.0029 -0.1624
 9489SOL     OW38396   4.513  12.655   2.206 -0.4188 -0.0272  0.2475
 9489SOL    HW138397   4.495  12.720   2.138  2.0324  0.7602  0.2439
 9489SOL    HW238398   4.517  12.706   2.287 -0.4583 -0.4880  0.5410
 9490SOL     OW38399   7.124   6.893   7.041 -0.3410  0.4134  0.3262
 9490SOL    HW138400   7.103   6.861   7.129 -1.7884  0.5488  0.0518
 9490SOL    HW238401   7.173   6.821   7.001 -2.0345 -0.8085  0.3324
 9491SOL     OW38402  10.235   1.019  10.573 -0.3083 -0.1958  0.4934
 9491SOL    HW138403  10.317   1.000  10.618  1.3499  2.3902 -1.1722
 9491SOL    HW238404  10.202   1.099  10.614 -1.2102 -0.3719  0.1438
 9492SOL     OW38405  13.182  10.570   0.278  0.9443  0.3652 -0.0570
 9492SOL    HW138406  13.143  10.643   0.327  0.6348  0.2850 -0.1809
 9492SOL    HW238407  13.193  10.501   0.343  0.1319  0.1056 -0.1784
 9493SOL     OW38408   8.370   7.499  11.915  0.0703  0.6094 -0.0925
 9493SOL    HW138409   8.377   7.556  11.838  0.6533 -1.0524 -1.3417
 9493SOL    HW238410   8.349   7.413  11.878  1.9613 -0.5939  1.4543
 9494SOL     OW38411  11.538   7.835   7.246 -0.1440 -0.2271  0.3010
 9494SOL    HW138412  11.628   7.841   7.214 -0.4803 -0.7060 -0.7884
 9494SOL    HW238413  11.517   7.923   7.277  0.3650  0.1526 -0.3974
 9495SOL     OW38414   8.463   2.902   0.233 -0.6928  0.2945 -0.3803
 9495SOL    HW138415   8.374   2.929   0.258 -0.7655 -1.2554  1.2775
 9495SOL    HW238416   8.455   2.810   0.209  0.4668  0.1017 -0.1190
 9496SOL     OW38417   5.271  10.236   8.881  0.2979 -0.2597 -0.2005
 9496SOL    HW138418   5.323  10.221   8.959 -1.0091 -0.9903  0.5581
 9496SOL    HW238419   5.197  10.289   8.911  1.7125  2.8041 -1.6855
 9497SOL     OW38420   1.292   6.939   5.371  0.4541  0.1129  0.3200
 9497SOL    HW138421   1.277   6.926   5.277  0.2268 -0.9648  0.5031
 9497SOL    HW238422   1.357   6.873   5.394 -0.1210 -0.1852  1.1014
 9498SOL     OW38423   4.755   5.385   7.536 -0.0354  0.3178 -0.0327
 9498SOL    HW138424   4.851   5.392   7.534  0.2394 -0.9400 -4.7407
 9498SOL    HW238425   4.738   5.291   7.547 -0.5326  0.2219 -1.3678
 9499SOL     OW38426  11.806   1.956   7.807  0.0646  0.0880 -0.8431
 9499SOL    HW138427  11.879   1.995   7.855  0.5044 -1.9560  0.2754
 9499SOL    HW238428  11.837   1.870   7.781 -2.0061 -0.9430 -0.1405
 9500SOL     OW38429  12.386   8.764   1.623 -0.4967  0.1474  0.4178
 9500SOL    HW138430  12.429   8.829   1.678  0.1407  0.9704 -1.0010
 9500SOL    HW238431  12.439   8.685   1.634 -1.3907 -0.2528  2.3003
 9501SOL     OW38432   0.959   3.812   3.910  0.2335  0.5728  0.9101
 9501SOL    HW138433   0.975   3.900   3.945  1.2548  0.2354  1.3350
 9501SOL    HW238434   0.959   3.756   3.987  1.1709 -0.0025  0.5109
 9502SOL     OW38435  12.939   6.856  11.284  0.3504 -0.6267 -0.1477
 9502SOL    HW138436  12.957   6.946  11.310  1.7433 -0.6780 -0.8633
 9502SOL    HW238437  12.902   6.815  11.362  0.6396  0.2914  0.4802
 9503SOL     OW38438   6.048   5.607   2.585  0.2498  0.7372  0.0152
 9503SOL    HW138439   5.985   5.536   2.572  0.7509  0.3065 -0.0774
 9503SOL    HW238440   6.064   5.608   2.679 -0.0317  0.9703  0.0632
 9504SOL     OW38441  12.660   1.405   0.851 -0.1173 -0.4125 -0.6925
 9504SOL    HW138442  12.679   1.361   0.768  0.6441  0.4492 -0.9919
 9504SOL    HW238443  12.714   1.485   0.849  3.5132 -2.4542  2.5703
 9505SOL     OW38444   9.284   6.382   3.082 -0.1386  0.0986 -0.2403
 9505SOL    HW138445   9.193   6.412   3.077 -0.0562  0.5105  0.5005
 9505SOL    HW238446   9.285   6.324   3.158  0.1210 -0.2701 -0.5231
 9506SOL     OW38447   0.878  10.638   1.225 -0.1902  0.2517 -0.2145
 9506SOL    HW138448   0.820  10.562   1.217 -1.3648  0.9625  1.1286
 9506SOL    HW238449   0.857  10.692   1.148  0.8881 -0.8917 -1.3523
 9507SOL     OW38450   8.027   3.434   5.900  0.3002 -0.1248  0.3092
 9507SOL    HW138451   7.970   3.384   5.958 -1.4035 -0.3647 -1.5023
 9507SOL    HW238452   7.970   3.501   5.862  2.5171  3.6970  2.9512
 9508SOL     OW38453   7.733  12.246   7.010 -0.5915  0.2118  0.2326
 9508SOL    HW138454   7.683  12.171   6.978  0.3599 -0.2571 -0.2105
 9508SOL    HW238455   7.765  12.218   7.096  2.2423 -1.1674 -1.1069
 9509SOL     OW38456   3.298   0.774   3.782 -0.1946 -0.1558  0.4196
 9509SOL    HW138457   3.389   0.772   3.810  0.0054  0.4851 -0.1764
 9509SOL    HW238458   3.249   0.746   3.860  0.5517 -1.2539  0.5146
 9510SOL     OW38459   5.060   3.848  12.640 -0.0259  0.5520  0.0140
 9510SOL    HW138460   5.089   3.882  12.556 -2.0059 -1.3797 -1.5567
 9510SOL    HW238461   5.034   3.926  12.690  0.9650  1.7121 -1.2130
 9511SOL     OW38462   8.630   9.097   1.062  0.1125  0.2233  0.0142
 9511SOL    HW138463   8.544   9.136   1.075 -0.0410 -0.5688  1.6121
 9511SOL    HW238464   8.663   9.137   0.981 -1.8422  0.3493 -0.7762
 9512SOL     OW38465   8.017   9.053  11.357  0.0454  0.2149 -0.1947
 9512SOL    HW138466   7.950   8.988  11.337  2.0966 -1.7899 -1.1114
 9512SOL    HW238467   8.072   9.056  11.278  1.6169  0.9692  0.8637
 9513SOL     OW38468   5.760   5.294   5.448  0.5847  0.1031  0.9911
 9513SOL    HW138469   5.818   5.364   5.478  0.5292  0.7917 -0.4213
 9513SOL    HW238470   5.673   5.333   5.447  0.0481 -0.9266  3.0956
 9514SOL     OW38471  10.361   6.439   2.494 -0.3646  0.1593  0.1705
 9514SOL    HW138472  10.296   6.377   2.460 -1.1210  0.5777  0.8104
 9514SOL    HW238473  10.439   6.386   2.510 -0.5879 -0.3839 -0.4720
 9515SOL     OW38474   1.290   4.371   1.177 -0.2582 -0.1585  0.5541
 9515SOL    HW138475   1.202   4.403   1.200 -0.7774 -1.6946  0.7969
 9515SOL    HW238476   1.347   4.410   1.244 -0.7148  0.9711  0.3118
 9516SOL     OW38477  11.799   2.296   4.526 -0.2300 -0.3562  0.0692
 9516SOL    HW138478  11.870   2.303   4.589  0.1835 -1.1424 -0.2957
 9516SOL    HW238479  11.730   2.248   4.571 -0.0320 -0.6997  0.0086
 9517SOL     OW38480   7.074   3.194   2.533 -0.4596 -0.5127  0.5423
 9517SOL    HW138481   7.120   3.241   2.602 -0.7667  1.9841 -0.8430
 9517SOL    HW238482   6.992   3.164   2.574 -1.0413  1.6729  1.1139
 9518SOL     OW38483   0.704   3.158  10.046  0.5589  0.4243  0.0122
 9518SOL    HW138484   0.735   3.239  10.087 -0.2067  1.0076 -0.5261
 9518SOL    HW238485   0.706   3.177   9.952  0.0880 -0.0821 -0.1032
 9519SOL     OW38486   5.367   7.439   6.727  0.3356 -0.1839  0.1482
 9519SOL    HW138487   5.439   7.400   6.777 -0.5765 -0.2986  1.4297
 9519SOL    HW238488   5.402   7.450   6.639  1.8922 -0.3196  0.7121
 9520SOL     OW38489   8.344   8.173   3.499  0.1893  0.0633 -0.4717
 9520SOL    HW138490   8.391   8.241   3.451  1.5704 -0.5680 -0.0746
 9520SOL    HW238491   8.257   8.171   3.460  0.4847  1.2738 -1.2433
 9521SOL     OW38492   2.156   0.150   3.298  0.3782 -0.8168  0.2744
 9521SOL    HW138493   2.096   0.158   3.372  0.3609 -1.3521  0.3186
 9521SOL    HW238494   2.203   0.234   3.296  0.3883 -0.8041  0.8973
 9522SOL     OW38495   3.735   0.625   2.650 -0.4847  0.3126 -0.2728
 9522SOL    HW138496   3.713   0.656   2.738  1.9331 -0.4431  0.6759
 9522SOL    HW238497   3.723   0.530   2.653  0.3504  0.1920 -0.5125
 9523SOL     OW38498   2.094   1.141   7.026 -0.0879  0.3667  0.4558
 9523SOL    HW138499   2.174   1.090   7.026  0.6768  1.5297  0.8998
 9523SOL    HW238500   2.123   1.232   7.032 -1.4521  0.7458  2.2093
 9524SOL     OW38501   7.973   6.590   9.869  0.0574  0.3519 -0.4685
 9524SOL    HW138502   8.068   6.578   9.874 -0.0776 -0.2255  1.2309
 9524SOL    HW238503   7.937   6.501   9.879 -0.6656  0.5235 -1.4138
 9525SOL     OW38504   7.466   5.521   2.674  0.3921 -0.6667  0.3023
 9525SOL    HW138505   7.450   5.451   2.738  1.6100 -0.3680  0.9661
 9525SOL    HW238506   7.407   5.591   2.701 -0.1575 -1.0848  0.2035
 9526SOL     OW38507  12.562  11.678   2.011 -0.0328 -0.8288 -0.5831
 9526SOL    HW138508  12.503  11.608   1.984 -0.3243 -0.3276 -1.2660
 9526SOL    HW238509  12.647  11.635   2.021 -0.3472 -1.4023 -0.3615
 9527SOL     OW38510   0.738  13.251   5.037 -0.0330 -0.0924  0.3620
 9527SOL    HW138511   0.823  13.210   5.018 -0.0795  0.3193 -0.8677
 9527SOL    HW238512   0.690  13.244   4.954 -1.3466 -0.6599  1.1551
 9528SOL     OW38513   8.196   7.859   3.999  0.3189 -0.5251  0.4629
 9528SOL    HW138514   8.184   7.950   4.027 -0.0321 -0.7347  1.0134
 9528SOL    HW238515   8.251   7.865   3.921  1.4716  0.0628  1.2847
 9529SOL     OW38516  11.214   7.332   8.839 -0.3398 -0.4313  0.1895
 9529SOL    HW138517  11.126   7.342   8.874 -0.2356  0.9410  0.1294
 9529SOL    HW238518  11.266   7.300   8.913 -0.6176  0.0740  0.6133
 9530SOL     OW38519   2.540  12.468   2.943 -0.4933 -0.2168 -0.1124
 9530SOL    HW138520   2.586  12.544   2.908 -1.9013  1.4383  1.4240
 9530SOL    HW238521   2.603  12.425   3.000 -0.9197  2.5316  2.6970
 9531SOL     OW38522   3.951   5.351   2.454 -0.5159  0.1080  0.8956
 9531SOL    HW138523   4.025   5.291   2.458  1.2199  1.9393 -1.2997
 9531SOL    HW238524   3.971   5.419   2.517  0.6574  1.5541 -0.9631
 9532SOL     OW38525   6.707   9.879  10.015 -0.3928  0.1369 -0.0106
 9532SOL    HW138526   6.636   9.831  10.059 -0.1160  0.7421  1.1216
 9532SOL    HW238527   6.679   9.883   9.923  0.6544 -4.2651 -0.7705
 9533SOL     OW38528   5.185   5.308  11.061 -0.1663  0.4428 -0.2112
 9533SOL    HW138529   5.198   5.403  11.058 -1.3006  0.6413  0.6697
 9533SOL    HW238530   5.158   5.291  11.151 -2.0265 -0.4341 -0.8934
 9534SOL     OW38531   2.560   6.249  12.838 -0.3133 -0.3462  0.1139
 9534SOL    HW138532   2.498   6.257  12.766  0.2272 -0.4955 -0.3747
 9534SOL    HW238533   2.539   6.164  12.877 -0.4425 -0.3807 -0.0260
 9535SOL     OW38534   5.059   5.662   7.589  0.1226  0.0963  0.1628
 9535SOL    HW138535   4.999   5.622   7.652  0.3645  1.4038  1.2664
 9535SOL    HW238536   5.119   5.713   7.643  2.1122 -0.9662 -0.9273
 9536SOL     OW38537   8.770   8.152   1.553 -0.3208 -0.1309  0.4952
 9536SOL    HW138538   8.769   8.196   1.639 -1.1944  1.0311 -0.0741
 9536SOL    HW238539   8.821   8.211   1.497  0.8663 -1.2418  0.3643
 9537SOL     OW38540   8.983  10.595  10.600 -0.0256 -0.1519 -0.1341
 9537SOL    HW138541   8.963  10.503  10.618 -2.5275 -0.0332 -1.8773
 9537SOL    HW238542   8.998  10.633  10.686 -0.8100 -1.7950  0.7843
 9538SOL     OW38543  10.245   0.074  11.218 -0.0514  0.6379 -0.2270
 9538SOL    HW138544  10.281   0.084  11.130  0.2686  0.9879 -0.0602
 9538SOL    HW238545  10.274  -0.012  11.247 -1.0797  0.0459 -0.8823
 9539SOL     OW38546   4.125   2.252   3.434 -0.1348  0.0477  0.2804
 9539SOL    HW138547   4.168   2.233   3.351 -0.0132  1.5117 -0.0136
 9539SOL    HW238548   4.169   2.331   3.467 -1.2078  0.3843  0.9792
 9540SOL     OW38549   2.745   8.609   7.574  0.5145 -0.3202 -0.1018
 9540SOL    HW138550   2.768   8.592   7.483  1.6232 -2.8374  0.5656
 9540SOL    HW238551   2.662   8.564   7.587  0.5140 -0.2297  0.2283
 9541SOL     OW38552  11.560  12.399   4.513  0.7438 -0.3901  0.5739
 9541SOL    HW138553  11.551  12.459   4.439 -0.0125  0.3604  1.2582
 9541SOL    HW238554  11.482  12.344   4.510  0.6923 -0.3326  0.8397
 9542SOL     OW38555   1.787  11.424  11.998  0.3190 -0.5045 -0.3306
 9542SOL    HW138556   1.815  11.454  12.085 -0.2390 -0.4794 -0.1501
 9542SOL    HW238557   1.801  11.499  11.941  0.3745 -0.4097 -0.1946
 9543SOL     OW38558   6.800  10.382   7.385 -0.1858 -0.1354  0.1053
 9543SOL    HW138559   6.810  10.302   7.437 -2.0377 -0.5720 -0.1648
 9543SOL    HW238560   6.771  10.352   7.299 -1.4520  0.8340  0.1652
 9544SOL     OW38561  10.861   6.417  11.711 -0.4587 -0.0245  0.1197
 9544SOL    HW138562  10.780   6.383  11.672  0.5136  0.0871 -2.2116
 9544SOL    HW238563  10.893   6.345  11.766 -0.7638 -1.1640 -1.1289
 9545SOL     OW38564   5.739  12.861  13.004 -0.0318 -0.1867 -0.2764
 9545SOL    HW138565   5.648  12.888  12.988 -0.1196 -0.0729  0.3883
 9545SOL    HW238566   5.773  12.838  12.917 -0.7292 -0.3330 -0.5183
 9546SOL     OW38567   6.879  13.141   2.412 -0.2427  0.3036  0.0317
 9546SOL    HW138568   6.934  13.123   2.488  1.7338  0.4604 -1.2995
 9546SOL    HW238569   6.834  13.059   2.395 -0.7185  0.2716  1.3498
 9547SOL     OW38570   5.386   7.274  10.573 -0.4605  0.3316  0.3263
 9547SOL    HW138571   5.292   7.287  10.572 -0.1989  2.6782  0.9089
 9547SOL    HW238572   5.400   7.207  10.640 -1.6790 -0.0142  0.2619
 9548SOL     OW38573   5.947  11.051   7.935  0.0645  0.2064  0.6469
 9548SOL    HW138574   6.028  11.016   7.898 -1.3496 -1.5597 -0.9741
 9548SOL    HW238575   5.909  10.979   7.984 -1.6246  0.2159 -0.5514
 9549SOL     OW38576   4.987   5.471  12.908  0.1059  0.0621 -0.1598
 9549SOL    HW138577   4.997   5.566  12.907 -1.0849  0.3346  2.6588
 9549SOL    HW238578   4.935   5.451  12.831 -0.6386  1.8535 -0.1602
 9550SOL     OW38579   2.705  13.140   4.132 -0.4735  0.2293 -0.6290
 9550SOL    HW138580   2.645  13.109   4.064 -0.2745 -1.5439 -0.0497
 9550SOL    HW238581   2.792  13.127   4.094 -0.3825 -0.0636 -0.3249
 9551SOL     OW38582   7.759  12.064   3.714  0.0111  0.2055  0.3328
 9551SOL    HW138583   7.737  12.157   3.715  1.9821  0.7415 -0.8331
 9551SOL    HW238584   7.762  12.039   3.806  2.1288  2.0221  0.8288
 9552SOL     OW38585  10.110   0.888   0.998 -0.1620  0.4441 -0.0991
 9552SOL    HW138586  10.141   0.957   1.056  0.9870 -0.3500  0.2573
 9552SOL    HW238587  10.033   0.925   0.956  0.1601  1.7652  0.4362
 9553SOL     OW38588   1.536   8.058   4.343  0.5488  0.7147 -0.2070
 9553SOL    HW138589   1.577   8.069   4.429  0.8286  1.0698 -0.3885
 9553SOL    HW238590   1.557   7.968   4.318  0.0317  0.4357  0.3241
 9554SOL     OW38591  10.594   6.519   0.739 -0.1231 -0.3771 -0.1679
 9554SOL    HW138592  10.532   6.472   0.794 -0.5863  0.7246  0.2590
 9554SOL    HW238593  10.634   6.583   0.797 -0.3633  0.5653 -1.0230
 9555SOL     OW38594   1.822  11.652   9.574  0.1103  0.1557 -0.7248
 9555SOL    HW138595   1.855  11.599   9.502  0.2232  0.7172 -1.0927
 9555SOL    HW238596   1.884  11.636   9.645 -0.1233 -0.5658 -0.6773
 9556SOL     OW38597   9.535   7.005   2.324  0.5556  0.6418 -0.1159
 9556SOL    HW138598   9.504   6.990   2.414  0.6080  0.6989 -0.0880
 9556SOL    HW238599   9.473   6.958   2.269  1.8808 -1.4445  0.0739
 9557SOL     OW38600   3.967  12.017   1.287 -0.3776 -0.0161  0.0688
 9557SOL    HW138601   3.890  12.016   1.230 -0.2130 -1.2566 -0.1761
 9557SOL    HW238602   4.009  11.932   1.271 -0.6194 -0.6514  2.4321
 9558SOL     OW38603   9.757   3.649   4.072 -0.2086  0.1817 -0.0227
 9558SOL    HW138604   9.756   3.597   3.991  1.0294  0.0896  0.0015
 9558SOL    HW238605   9.841   3.696   4.069  0.8554 -1.3755  2.1512
 9559SOL     OW38606   4.063   6.484   0.387 -0.5431 -0.0829  0.1871
 9559SOL    HW138607   4.011   6.562   0.405  1.5505  1.3364  0.3941
 9559SOL    HW238608   4.130   6.483   0.455  0.1208 -1.4688 -0.4382
 9560SOL     OW38609  12.781   1.000   1.119 -0.0383  0.2811  0.3287
 9560SOL    HW138610  12.752   0.997   1.028  0.0663 -0.9233  0.3219
 9560SOL    HW238611  12.872   1.031   1.114 -0.3123  1.0624  0.0993
 9561SOL     OW38612  12.870   3.074  12.061  0.0117  0.0792 -0.0218
 9561SOL    HW138613  12.871   2.979  12.051 -0.2120  0.0574  0.1737
 9561SOL    HW238614  12.937   3.091  12.127  0.2592  0.0834 -0.2688
 9562SOL     OW38615   6.397   3.621   7.861 -0.1459  0.2317 -0.1774
 9562SOL    HW138616   6.402   3.717   7.853  0.3511  0.2448  0.2185
 9562SOL    HW238617   6.313   3.598   7.822 -0.8578  0.9574  0.8717
 9563SOL     OW38618   9.761   2.230   1.731 -0.2975  0.7385  0.2498
 9563SOL    HW138619   9.692   2.169   1.758  1.0346  0.0865  2.4357
 9563SOL    HW238620   9.841   2.179   1.734  0.4472  1.7371 -1.2889
 9564SOL     OW38621   0.448  13.060   7.677  0.4338  0.4945  0.1012
 9564SOL    HW138622   0.471  13.063   7.584  0.5164  0.0970  0.1099
 9564SOL    HW238623   0.418  12.970   7.692  1.2494  0.3087  0.6620
 9565SOL     OW38624   3.499   8.481   5.494  0.0102  0.2701  0.0841
 9565SOL    HW138625   3.559   8.476   5.420  2.1682 -0.3429  1.7467
 9565SOL    HW238626   3.498   8.574   5.518  0.2269  0.2975 -0.0137
 9566SOL     OW38627   3.215   7.242   6.125 -0.0050  0.7324  0.3744
 9566SOL    HW138628   3.153   7.199   6.066  1.2874 -0.8079  0.0943
 9566SOL    HW238629   3.271   7.294   6.067 -0.4049  1.3633  0.5378
 9567SOL     OW38630   3.159   1.261   5.859 -0.4786  0.3083 -0.3371
 9567SOL    HW138631   3.190   1.352   5.851  1.2977 -0.2705 -0.6110
 9567SOL    HW238632   3.085   1.266   5.919  1.2675  1.6208  1.8630
 9568SOL     OW38633   6.360  12.059   0.164  0.2474 -0.7450 -1.2165
 9568SOL    HW138634   6.325  12.124   0.103 -1.5599 -1.2233 -0.7706
 9568SOL    HW238635   6.308  11.981   0.148 -2.3443 -0.1387  2.6900
 9569SOL     OW38636   2.278   1.195   4.819  0.0331  0.2302 -0.0580
 9569SOL    HW138637   2.320   1.271   4.779  1.0110 -0.1393  0.2290
 9569SOL    HW238638   2.351   1.136   4.841 -0.5905 -0.1471  1.0576
 9570SOL     OW38639   6.272   1.217   4.469  0.2125 -0.2819  0.3042
 9570SOL    HW138640   6.267   1.281   4.540 -1.5004 -0.6449  0.5533
 9570SOL    HW238641   6.231   1.138   4.505  0.1120 -0.7459 -0.7954
 9571SOL     OW38642  13.016  10.616   7.226  0.1776  0.2813 -1.1444
 9571SOL    HW138643  13.063  10.560   7.288 -0.6381  0.5744 -0.2147
 9571SOL    HW238644  13.079  10.682   7.200  0.4347  0.3594 -0.3393
 9572SOL     OW38645   9.488   2.663   1.906  0.1073 -0.5707  0.1096
 9572SOL    HW138646   9.458   2.688   1.818  2.3817  0.3193 -0.4688
 9572SOL    HW238647   9.574   2.625   1.892  0.7478  0.0962  2.0251
 9573SOL     OW38648  11.590   2.410   1.102 -0.4188  0.1005 -0.4923
 9573SOL    HW138649  11.522   2.437   1.165  0.5048  0.4146  0.4133
 9573SOL    HW238650  11.542   2.375   1.028 -1.5567 -1.3222  0.8416
 9574SOL     OW38651  12.240   3.717  10.264 -0.3777  0.4383 -0.0406
 9574SOL    HW138652  12.303   3.713  10.191  1.5817 -1.7511  1.6213
 9574SOL    HW238653  12.173   3.653  10.241 -0.3570  0.5582 -0.4401
 9575SOL     OW38654   2.013   8.477  10.370  0.0912 -0.5569 -0.2359
 9575SOL    HW138655   2.106   8.497  10.372 -0.0782  0.6592 -2.0259
 9575SOL    HW238656   2.008   8.383  10.388  1.4865 -0.3487  1.5662
 9576SOL     OW38657   1.298   0.115   1.297  0.0205 -0.3481  0.5753
 9576SOL    HW138658   1.295   0.036   1.243 -0.0989 -2.0824  2.9546
 9576SOL    HW238659   1.206   0.134   1.317  0.0358  0.5382 -0.1552
 9577SOL     OW38660   8.168   2.035  12.507  0.2715 -0.3681  0.2436
 9577SOL    HW138661   8.164   2.068  12.597 -0.0651 -0.4474  0.2606
 9577SOL    HW238662   8.168   2.114  12.453  0.5906 -0.3179  0.3155
 9578SOL     OW38663   6.522   0.665   2.582 -0.2431 -0.8716  0.2200
 9578SOL    HW138664   6.532   0.611   2.661 -0.0351 -0.6845  0.3209
 9578SOL    HW238665   6.578   0.740   2.597  0.7524 -1.4202 -0.6399
 9579SOL     OW38666   3.513   8.585   4.487 -0.1278 -0.2278  0.1136
 9579SOL    HW138667   3.419   8.569   4.483  0.2025 -2.7370 -4.2864
 9579SOL    HW238668   3.541   8.543   4.569 -2.7276  0.5595  1.5188
 9580SOL     OW38669   4.307   9.458   8.639  0.6673 -0.2601 -0.4030
 9580SOL    HW138670   4.337   9.371   8.611 -0.2894 -0.5235 -0.6693
 9580SOL    HW238671   4.253   9.489   8.566  0.3131  0.1995  0.0438
 9581SOL     OW38672  12.258   6.419   7.425 -0.5581 -0.3904 -0.5407
 9581SOL    HW138673  12.266   6.451   7.515 -0.4611 -0.3956 -0.5470
 9581SOL    HW238674  12.278   6.496   7.371 -1.3700 -0.1882 -0.5670
 9582SOL     OW38675   6.316   4.113  11.623  0.4754 -0.0550 -0.4331
 9582SOL    HW138676   6.308   4.017  11.621 -1.4594  0.0429  0.2400
 9582SOL    HW238677   6.409   4.129  11.638  0.8973 -1.8185 -0.9273
 9583SOL     OW38678   4.923   3.833  11.394  0.8636  0.0028  0.1074
 9583SOL    HW138679   4.837   3.802  11.422  0.5724 -0.7986 -1.5791
 9583SOL    HW238680   4.938   3.912  11.447 -1.2220  0.5735 -0.0768
 9584SOL     OW38681   4.185   7.260  12.323  0.1156 -0.1148  0.1360
 9584SOL    HW138682   4.199   7.192  12.389  1.8189  0.1595  0.0845
 9584SOL    HW238683   4.265   7.261  12.271 -0.0374  1.6466 -0.1390
 9585SOL     OW38684  10.243   3.941   0.231 -0.4930 -0.3348 -0.6146
 9585SOL    HW138685  10.336   3.921   0.240 -0.3183 -0.0265 -1.7074
 9585SOL    HW238686  10.208   3.870   0.177 -0.6462  0.2155 -1.2402
 9586SOL     OW38687   9.885   3.665   2.807 -0.6996  0.1433 -0.0933
 9586SOL    HW138688   9.867   3.622   2.890  2.6841 -0.4538  0.4434
 9586SOL    HW238689   9.948   3.608   2.763 -0.2358  1.8723 -1.8251
 9587SOL     OW38690   0.937  11.352  10.581 -0.0007 -0.0721  0.0592
 9587SOL    HW138691   0.922  11.381  10.491  0.2240 -0.8316 -0.2260
 9587SOL    HW238692   1.026  11.317  10.580 -0.6756 -1.8967  0.0906
 9588SOL     OW38693  12.335   6.565   8.594 -0.1892 -0.2600 -1.1364
 9588SOL    HW138694  12.244   6.544   8.617  0.0378  0.5663  0.6633
 9588SOL    HW238695  12.383   6.484   8.609 -0.4500 -0.3800 -0.9396
 9589SOL     OW38696   4.350  11.801  12.137  0.1502  0.0014 -0.2611
 9589SOL    HW138697   4.292  11.744  12.187  0.1394 -0.5441 -0.8869
 9589SOL    HW238698   4.398  11.850  12.204  1.3157 -1.8753  0.3379
 9590SOL     OW38699  11.912   9.186   5.721 -0.0279 -0.0732 -0.6376
 9590SOL    HW138700  11.960   9.213   5.642 -0.6169 -0.7160 -1.2229
 9590SOL    HW238701  11.969   9.122   5.763  0.6029  0.7882 -0.1588
 9591SOL     OW38702   1.585   6.047   9.075  0.2558 -0.6665  0.2335
 9591SOL    HW138703   1.519   5.998   9.027  0.2666 -0.5897  0.1403
 9591SOL    HW238704   1.643   6.082   9.007 -2.4040  3.5951 -0.2103
 9592SOL     OW38705   0.671   4.827   2.530 -0.4295 -0.0412 -0.0749
 9592SOL    HW138706   0.616   4.782   2.467  0.6611 -0.8717 -0.4612
 9592SOL    HW238707   0.614   4.894   2.568 -1.5640 -0.5882 -0.7628
 9593SOL     OW38708  12.274   1.797   8.426  0.1731  0.2160 -0.0148
 9593SOL    HW138709  12.244   1.706   8.419  2.2225 -0.3981 -2.0752
 9593SOL    HW238710  12.369   1.790   8.439  0.0140  2.0953  3.3042
 9594SOL     OW38711   9.768   8.679   2.066 -0.1831 -0.8386 -0.0117
 9594SOL    HW138712   9.821   8.708   2.140  0.1577 -2.6239  0.4859
 9594SOL    HW238713   9.819   8.703   1.988  0.7061 -1.3231  0.4184
 9595SOL     OW38714   5.320   4.442   1.188  0.2101  0.0347 -0.3421
 9595SOL    HW138715   5.359   4.455   1.101 -0.8407  1.1845 -0.6667
 9595SOL    HW238716   5.391   4.405   1.240  1.3744  0.9225 -1.2314
 9596SOL     OW38717   6.909   3.002   0.354  0.2700  0.0174 -0.6918
 9596SOL    HW138718   6.954   3.050   0.423 -0.0753  0.2109 -0.6035
 9596SOL    HW238719   6.909   3.061   0.279  0.4025 -0.0876 -0.7758
 9597SOL     OW38720   8.166   3.806   7.509  0.1314 -0.3836 -0.1904
 9597SOL    HW138721   8.077   3.810   7.543  0.3765 -2.0904  0.7509
 9597SOL    HW238722   8.159   3.836   7.418 -1.4073 -0.5417 -0.1401
 9598SOL     OW38723   4.121  13.054   6.397  0.1192 -0.0666  0.4419
 9598SOL    HW138724   4.147  13.034   6.307 -0.7982 -0.1213  0.1777
 9598SOL    HW238725   4.181  13.003   6.451  0.2633 -0.5339 -0.1460
 9599SOL     OW38726   1.008  11.358   8.434 -0.5548  0.1368  0.5043
 9599SOL    HW138727   0.915  11.355   8.411 -0.8812 -1.3399  1.8210
 9599SOL    HW238728   1.016  11.439   8.485 -0.4815  1.7217 -1.8542
 9600SOL     OW38729  10.348  11.767   3.948  0.1188  0.1208 -0.3012
 9600SOL    HW138730  10.374  11.859   3.946 -1.9814  0.8067  0.8381
 9600SOL    HW238731  10.375  11.736   4.034 -2.1295  0.6963  0.6866
 9601SOL     OW38732   2.135  10.569  12.087 -0.4209 -0.4473  0.8735
 9601SOL    HW138733   2.165  10.492  12.134 -0.7398  0.1121  2.0195
 9601SOL    HW238734   2.041  10.574  12.103 -0.6401 -0.5487 -0.2831
 9602SOL     OW38735   6.741   6.333   9.565  0.3328 -0.1201  0.3430
 9602SOL    HW138736   6.770   6.282   9.490  3.2773 -0.2630  1.4619
 9602SOL    HW238737   6.657   6.294   9.589  0.9438 -2.3210 -0.8171
 9603SOL     OW38738   2.846   9.302   3.902 -0.1809 -0.1703  0.5102
 9603SOL    HW138739   2.913   9.253   3.854  0.0549  0.2730  0.3787
 9603SOL    HW238740   2.896   9.361   3.959 -0.4098  1.6452 -1.0626
 9604SOL     OW38741   0.600  12.924   0.779 -0.2071  0.0443 -0.5713
 9604SOL    HW138742   0.596  12.908   0.873 -0.1705 -1.1599 -0.7519
 9604SOL    HW238743   0.525  12.981   0.761  2.3434  4.2074  0.8335
 9605SOL     OW38744  10.135  10.419   1.941  0.7794  0.2026 -0.4234
 9605SOL    HW138745  10.050  10.435   1.982  1.0858  1.3727 -0.1933
 9605SOL    HW238746  10.180  10.358   1.999  0.8451  1.1192  0.5250
 9606SOL     OW38747   6.250  11.611   1.915 -0.2436 -0.2617 -0.0463
 9606SOL    HW138748   6.346  11.614   1.912 -0.2813  2.2114 -1.0117
 9606SOL    HW238749   6.222  11.700   1.895 -2.7324 -0.1003  3.2436
 9607SOL     OW38750   8.097   7.044   9.103 -0.4019  0.2509 -0.2284
 9607SOL    HW138751   8.046   6.969   9.073 -2.0803 -0.6601  4.1568
 9607SOL    HW238752   8.188   7.014   9.098 -1.0631 -2.8727  2.6881
 9608SOL     OW38753   3.683  10.123  11.256  0.0611 -0.2958 -0.2345
 9608SOL    HW138754   3.631  10.182  11.311 -1.5570 -1.5459 -0.3380
 9608SOL    HW238755   3.755  10.177  11.224 -0.5493  1.2206  0.8232
 9609SOL     OW38756   3.587   2.260  10.091  0.1236 -0.1786 -0.0574
 9609SOL    HW138757   3.556   2.196  10.155 -0.0269  1.6955  1.8471
 9609SOL    HW238758   3.511   2.276  10.035 -0.2981 -0.5610  0.3928
 9610SOL     OW38759  10.922   4.255   9.868 -0.2871  0.0932  0.4504
 9610SOL    HW138760  10.979   4.223   9.799 -0.6877  1.1679 -0.4150
 9610SOL    HW238761  10.982   4.287   9.936  0.1540  0.8662 -0.2828
 9611SOL     OW38762   5.131  11.308  11.476 -0.6925  0.0162 -0.1641
 9611SOL    HW138763   5.096  11.387  11.518 -1.0056 -0.5733  0.7348
 9611SOL    HW238764   5.054  11.254  11.460 -0.6009  0.3320 -1.7679
 9612SOL     OW38765   6.063   3.507  11.400 -0.8945 -0.3193 -0.0971
 9612SOL    HW138766   6.078   3.572  11.331 -1.0966 -1.4150 -1.2059
 9612SOL    HW238767   5.983   3.537  11.444 -1.4157 -0.2187 -1.0865
 9613SOL     OW38768   6.551   2.247   2.738 -0.1964 -0.0522  0.1411
 9613SOL    HW138769   6.484   2.289   2.792 -1.3393  0.3231 -1.4958
 9613SOL    HW238770   6.607   2.318   2.709  0.8610 -0.3485  1.3932
 9614SOL     OW38771   8.380   9.759   0.761  0.5041  0.0636 -0.2919
 9614SOL    HW138772   8.386   9.766   0.857  0.9648 -0.4953 -0.2786
 9614SOL    HW238773   8.444   9.692   0.738 -1.2102 -1.4559 -0.7795
 9615SOL     OW38774   3.214   6.542  10.646 -0.9991 -0.0999  0.1588
 9615SOL    HW138775   3.150   6.605  10.679 -0.6392 -0.4247  1.5288
 9615SOL    HW238776   3.265   6.592  10.582 -1.5726  0.6276  0.2546
 9616SOL     OW38777  12.145   1.985   3.667  0.1527 -0.1920 -0.3739
 9616SOL    HW138778  12.095   1.981   3.585  0.5454  1.8290 -0.7800
 9616SOL    HW238779  12.129   2.074   3.700  1.5913 -0.2964  0.7139
 9617SOL     OW38780   6.836   9.549   7.699 -0.4898  0.4381  0.0609
 9617SOL    HW138781   6.764   9.561   7.637  0.3266  2.4812 -0.5432
 9617SOL    HW238782   6.911   9.523   7.644 -0.5591 -1.0020  0.6078
 9618SOL     OW38783   3.471   0.059   3.807  0.6171  0.1295 -0.1296
 9618SOL    HW138784   3.515   0.002   3.870 -0.9254 -0.3342  0.5890
 9618SOL    HW238785   3.380   0.063   3.838  0.0430  0.6887 -1.7771
 9619SOL     OW38786   9.917   6.226   5.930  0.1971  0.3295 -0.5010
 9619SOL    HW138787   9.906   6.132   5.916 -2.0026  0.2955  0.9468
 9619SOL    HW238788   9.948   6.233   6.021 -0.7246  1.0177 -0.2285
 9620SOL     OW38789  11.008  11.172   2.599 -0.1568 -0.1499 -0.3419
 9620SOL    HW138790  11.091  11.129   2.619  0.0422 -0.3402 -1.5237
 9620SOL    HW238791  11.015  11.198   2.507  0.2096  3.4915  0.5470
 9621SOL     OW38792   4.883   1.599   6.842  0.0937 -0.6710 -0.3939
 9621SOL    HW138793   4.977   1.597   6.860  0.1479 -0.8491 -0.6981
 9621SOL    HW238794   4.869   1.682   6.797 -0.0951 -0.0644  0.7235
 9622SOL     OW38795   2.417  13.105   8.036  0.1766  0.5957 -0.2028
 9622SOL    HW138796   2.380  13.187   8.004 -0.9289 -0.1089 -0.7764
 9622SOL    HW238797   2.406  13.108   8.131  0.1978  1.1264 -0.2183
 9623SOL     OW38798   7.599   9.548   2.866 -0.5919 -0.5502 -0.0107
 9623SOL    HW138799   7.606   9.493   2.944 -2.1102  0.1542  0.6750
 9623SOL    HW238800   7.561   9.490   2.799 -0.3860 -0.8447  0.1268
 9624SOL     OW38801   6.886   2.037  10.691  0.0142 -0.4101  0.0853
 9624SOL    HW138802   6.844   2.069  10.611 -1.6151 -0.3596  0.9180
 9624SOL    HW238803   6.972   2.079  10.692 -0.0341 -0.2154 -1.4969
 9625SOL     OW38804  13.000  12.381   3.256  0.2125  0.3223 -0.0785
 9625SOL    HW138805  13.093  12.405   3.261  1.0381 -2.6012  0.1982
 9625SOL    HW238806  12.969  12.424   3.176  1.4424  2.3226  0.4478
 9626SOL     OW38807   7.480   1.527  11.180 -0.3158 -0.0303 -0.0305
 9626SOL    HW138808   7.423   1.459  11.215  0.2494  0.2267  1.4955
 9626SOL    HW238809   7.555   1.480  11.145 -0.0578 -0.2434  0.7686
 9627SOL     OW38810   4.688   0.420   9.076 -0.2409 -0.4148 -0.0472
 9627SOL    HW138811   4.676   0.337   9.122  0.3828 -0.6663 -0.3233
 9627SOL    HW238812   4.664   0.487   9.141  1.6158 -0.7130  1.0292
 9628SOL     OW38813   3.067   1.924  12.972  0.0695 -0.4456  0.4069
 9628SOL    HW138814   3.059   1.874  13.054 -0.3415  1.8196  1.8512
 9628SOL    HW238815   2.978   1.923  12.936  0.2441 -1.4278 -0.0196
 9629SOL     OW38816   7.529   6.515   5.197  0.3989 -0.3146  0.0909
 9629SOL    HW138817   7.460   6.530   5.261  0.2781 -0.7362  0.0633
 9629SOL    HW238818   7.610   6.538   5.243  0.5762 -2.8832  1.2377
 9630SOL     OW38819  12.834   5.199   0.879 -0.1186  0.0089  0.5486
 9630SOL    HW138820  12.764   5.198   0.944 -0.9873  1.8097 -0.3052
 9630SOL    HW238821  12.802   5.143   0.808 -0.3884  0.2439  0.4817
 9631SOL     OW38822   2.633   4.742   9.534 -0.3564  0.1355 -0.7904
 9631SOL    HW138823   2.551   4.733   9.485  1.3359  0.7300 -3.9917
 9631SOL    HW238824   2.613   4.805   9.603 -2.9920 -1.0514 -0.3395
 9632SOL     OW38825  10.977   3.341  11.771  0.5156  0.2177 -0.0370
 9632SOL    HW138826  10.900   3.370  11.721 -0.0876 -0.2744  0.5958
 9632SOL    HW238827  10.971   3.389  11.854 -0.3023 -1.4154  0.8879
 9633SOL     OW38828  12.561   1.700  11.105  0.4497  0.1464 -0.5557
 9633SOL    HW138829  12.639   1.732  11.059  0.9484 -0.0463  0.1548
 9633SOL    HW238830  12.526   1.778  11.149 -0.1874  0.3932 -1.4545
 9634SOL     OW38831   9.086   9.983   6.078  0.1350  0.0045 -0.7061
 9634SOL    HW138832   9.101   9.935   5.996 -0.4976 -1.4606 -0.0167
 9634SOL    HW238833   9.014  10.042   6.058  0.4543  0.1636 -1.3988
 9635SOL     OW38834  10.696  10.494  12.657  0.1165 -0.0769 -0.2064
 9635SOL    HW138835  10.789  10.483  12.679  0.3671  0.1723 -1.0988
 9635SOL    HW238836  10.669  10.408  12.624 -0.2720 -0.4659  1.0558
 9636SOL     OW38837   2.368   0.648   0.061 -0.0776  0.1552  0.3117
 9636SOL    HW138838   2.460   0.675   0.071  0.5242 -1.2415 -1.0742
 9636SOL    HW238839   2.367   0.595  -0.018 -1.6583 -1.7700  1.5324
 9637SOL     OW38840   1.979   4.671   8.534 -0.2641  0.4499 -0.2210
 9637SOL    HW138841   1.980   4.720   8.452  2.6207 -0.3136 -0.7521
 9637SOL    HW238842   1.957   4.581   8.508 -1.3414  0.5816  0.1678
 9638SOL     OW38843   8.968   3.437   6.928  0.6213 -0.1299 -0.3426
 9638SOL    HW138844   8.891   3.429   6.872 -0.1020  3.3508 -0.1315
 9638SOL    HW238845   9.028   3.492   6.879  0.3516  2.2445  1.7581
 9639SOL     OW38846   3.853   2.603  11.278 -0.1058  0.2447 -0.4800
 9639SOL    HW138847   3.819   2.548  11.207  0.2944  0.8411 -1.1486
 9639SOL    HW238848   3.797   2.583  11.353  1.3527 -2.7688 -0.0284
 9640SOL     OW38849   4.500  12.323   0.413 -0.6437  0.1565 -0.1525
 9640SOL    HW138850   4.456  12.332   0.328  0.9658  0.5939 -1.0028
 9640SOL    HW238851   4.586  12.287   0.391 -0.5041 -0.5556  1.4131
 9641SOL     OW38852   0.035  10.623   4.842 -0.0450  0.1967  0.6519
 9641SOL    HW138853  -0.009  10.546   4.805 -0.3486  0.3873  0.6092
 9641SOL    HW238854  -0.017  10.645   4.920 -0.1923  0.5895  0.4473
 9642SOL     OW38855   2.839   2.178   9.332  0.1547  0.7477 -0.3098
 9642SOL    HW138856   2.875   2.093   9.359 -1.2822  0.5961  1.3295
 9642SOL    HW238857   2.901   2.242   9.368  1.0920  0.4350 -1.3081
 9643SOL     OW38858   9.112   0.674  10.496 -0.5021 -0.1457  0.5243
 9643SOL    HW138859   9.181   0.609  10.514 -0.7639 -0.3055  0.9658
 9643SOL    HW238860   9.048   0.660  10.565 -0.6102  0.5202  0.5611
 9644SOL     OW38861   2.395   9.421  11.214 -0.3026 -0.5337 -0.7325
 9644SOL    HW138862   2.452   9.347  11.195  0.2191 -0.0544 -1.0821
 9644SOL    HW238863   2.450   9.481  11.265 -0.5362 -0.1409 -0.9373
 9645SOL     OW38864   2.725   4.256  10.271  0.5645 -0.1075 -0.0593
 9645SOL    HW138865   2.795   4.260  10.205 -0.2396  1.0605 -0.8813
 9645SOL    HW238866   2.731   4.339  10.318  0.4324 -0.4741  0.6239
 9646SOL     OW38867   7.671   9.675   8.712  0.1629 -0.0434 -0.1108
 9646SOL    HW138868   7.722   9.595   8.698 -0.2066 -0.1751 -0.7375
 9646SOL    HW238869   7.597   9.647   8.765  0.5438  0.0808  0.4996
 9647SOL     OW38870   0.372  12.604  10.801  0.2206 -0.0149 -0.1309
 9647SOL    HW138871   0.295  12.558  10.766 -0.4104 -0.3771  1.6277
 9647SOL    HW238872   0.336  12.662  10.867  1.2962  1.2312 -0.6145
 9648SOL     OW38873   7.316  11.160   0.179 -0.0739  0.1990 -0.1202
 9648SOL    HW138874   7.338  11.067   0.169  2.4430  0.8519 -1.4585
 9648SOL    HW238875   7.391  11.198   0.224 -1.6536  1.4279  1.6680
 9649SOL     OW38876   0.309   4.290   1.020 -0.1498 -0.2839 -0.0542
 9649SOL    HW138877   0.255   4.360   1.055 -1.6448 -0.4415 -1.8936
 9649SOL    HW238878   0.367   4.334   0.957  1.1745 -0.2810  1.1087
 9650SOL     OW38879   6.035   1.482   9.812 -0.1592 -0.3600  0.7444
 9650SOL    HW138880   6.082   1.547   9.759 -0.9345  0.2571  0.7834
 9650SOL    HW238881   6.083   1.480   9.895  0.7420 -0.9330  0.2144
 9651SOL     OW38882  12.801  12.006   6.296 -0.6816  0.3769  0.0257
 9651SOL    HW138883  12.749  11.933   6.329 -1.4789  1.0287  0.2473
 9651SOL    HW238884  12.869  12.019   6.362  0.3054 -1.0292 -0.6824
 9652SOL     OW38885   9.351  12.325   7.575 -0.0243 -0.3139 -0.1735
 9652SOL    HW138886   9.403  12.329   7.495  0.1420 -0.4355 -0.0707
 9652SOL    HW238887   9.393  12.388   7.634  1.2722 -1.8786  0.6629
 9653SOL     OW38888   0.667  12.117  10.510  0.1789 -0.0358 -0.0328
 9653SOL    HW138889   0.671  12.054  10.581 -1.1749 -1.4190 -1.1315
 9653SOL    HW238890   0.721  12.079  10.440 -0.4487  0.1344 -0.6205
 9654SOL     OW38891   9.358   4.854   5.471 -0.3672  0.1420  0.2189
 9654SOL    HW138892   9.364   4.950   5.478 -0.7980  0.1087  1.1281
 9654SOL    HW238893   9.400   4.834   5.387 -0.5953  1.1646 -0.1579
 9655SOL     OW38894   9.265  10.645  13.075 -0.0250  0.1974  0.1371
 9655SOL    HW138895   9.303  10.718  13.027  2.0769 -0.7867  0.1860
 9655SOL    HW238896   9.244  10.580  13.008  2.0706 -0.8110  0.3870
 9656SOL     OW38897   4.660   4.262  12.397 -0.1949 -0.0762 -0.5685
 9656SOL    HW138898   4.572   4.265  12.361 -0.1889  1.4375 -0.5126
 9656SOL    HW238899   4.690   4.172  12.381 -1.8610 -0.7169 -0.2696
 9657SOL     OW38900   2.569   8.630   5.221  0.0859  0.3547 -0.0765
 9657SOL    HW138901   2.641   8.689   5.243  0.1842 -0.1993  1.1605
 9657SOL    HW238902   2.610   8.544   5.213 -0.1235  0.3647 -1.4627
 9658SOL     OW38903   4.415   5.030   9.283  0.6038 -0.6431  0.0057
 9658SOL    HW138904   4.366   5.078   9.349 -0.0305 -3.4545  1.7775
 9658SOL    HW238905   4.349   4.989   9.228  1.0497 -1.0011 -0.2752
 9659SOL     OW38906   9.905   4.640  12.195 -0.2663 -0.1169  0.0579
 9659SOL    HW138907   9.861   4.555  12.185 -2.3282  0.8555  0.3738
 9659SOL    HW238908   9.976   4.638  12.131 -1.1213 -1.5554 -0.9001
 9660SOL     OW38909   7.541   8.137   1.902  0.3081 -0.4434 -0.2004
 9660SOL    HW138910   7.546   8.225   1.939  0.5267 -0.3536 -0.4426
 9660SOL    HW238911   7.615   8.132   1.841  0.1354 -0.7005 -0.3914
 9661SOL     OW38912  10.721   9.234   5.539 -0.0322  0.7139 -0.3757
 9661SOL    HW138913  10.662   9.193   5.475 -2.3154  1.6882  0.9613
 9661SOL    HW238914  10.748   9.163   5.596 -2.3151  0.6172  0.7086
 9662SOL     OW38915   0.537   2.297   3.962  0.2405  0.1287 -0.7483
 9662SOL    HW138916   0.478   2.260   3.896  0.7369 -0.7362 -0.7238
 9662SOL    HW238917   0.488   2.291   4.044 -0.3202  1.0700 -0.9982
 9663SOL     OW38918   3.156   9.114   9.488  0.1437  0.4755 -0.2216
 9663SOL    HW138919   3.140   9.195   9.535 -0.6002  0.8974 -1.1586
 9663SOL    HW238920   3.105   9.048   9.535 -1.5583  1.1174 -1.0755
 9664SOL     OW38921  12.205   3.161   3.009 -0.1474 -0.0634 -0.0849
 9664SOL    HW138922  12.134   3.198   3.062  0.1031  0.8060 -0.3537
 9664SOL    HW238923  12.265   3.122   3.073  0.0311  0.7727  0.2678
 9665SOL     OW38924  13.261   5.102   0.904  0.2425  0.5137 -0.2647
 9665SOL    HW138925  13.262   5.197   0.910  0.7131  0.6873 -2.4144
 9665SOL    HW238926  13.174   5.077   0.936  0.0169  1.6689  0.0688
 9666SOL     OW38927   7.900   3.387   3.969 -0.4340  0.2138  0.3304
 9666SOL    HW138928   7.821   3.337   3.946 -1.0812  2.8343 -4.3809
 9666SOL    HW238929   7.873   3.444   4.041 -1.4382 -1.7909  1.6464
 9667SOL     OW38930   4.926   9.070   0.347  0.0862 -0.2190  0.1426
 9667SOL    HW138931   4.838   9.107   0.356 -0.1313 -0.9734  1.3220
 9667SOL    HW238932   4.982   9.133   0.392  0.2137  0.4120 -0.8616
 9668SOL     OW38933   0.340   7.185   6.277  0.4723  0.2682 -0.0503
 9668SOL    HW138934   0.372   7.274   6.267  1.8257 -0.3100 -1.1774
 9668SOL    HW238935   0.250   7.195   6.308  1.0359  1.9822  1.2102
 9669SOL     OW38936   9.773   7.991   4.597  0.0405  0.0990 -0.0072
 9669SOL    HW138937   9.810   7.904   4.582 -1.1635 -0.3393 -0.5167
 9669SOL    HW238938   9.692   7.992   4.546  0.9427  2.1873 -1.5944
 9670SOL     OW38939   4.010   2.940   8.445 -0.9901  0.2089 -0.0749
 9670SOL    HW138940   4.063   3.016   8.424 -2.5155  0.7816 -2.2831
 9670SOL    HW238941   4.001   2.893   8.361 -1.3859 -1.5484  0.8905
 9671SOL     OW38942   7.494   5.498   0.042 -0.1246 -0.0115 -0.2452
 9671SOL    HW138943   7.577   5.534   0.010  0.3483 -0.1409  0.7965
 9671SOL    HW238944   7.484   5.415  -0.005  0.5942 -0.2366 -0.0035
 9672SOL     OW38945   0.994   3.369   9.776 -0.3969  0.5267  0.5180
 9672SOL    HW138946   1.053   3.373   9.701  0.6735  1.1620  1.3628
 9672SOL    HW238947   0.923   3.311   9.748  0.7657 -0.4932 -0.4216
 9673SOL     OW38948   1.733  11.319   2.406 -0.1474  0.9391 -0.2773
 9673SOL    HW138949   1.715  11.398   2.355 -2.8480  0.8017  0.3074
 9673SOL    HW238950   1.738  11.249   2.341  0.2683  1.3126 -0.6499
 9674SOL     OW38951   0.075  10.373   4.078 -0.1834  0.4805 -0.0618
 9674SOL    HW138952  -0.004  10.416   4.110 -0.1034  1.1529 -0.7450
 9674SOL    HW238953   0.087  10.407   3.989  1.7033  1.5300  0.5402
 9675SOL     OW38954   2.402   4.011   2.766 -0.4266  0.0769 -0.3801
 9675SOL    HW138955   2.467   3.987   2.832 -0.6256 -0.8781 -0.5091
 9675SOL    HW238956   2.323   4.030   2.816  0.1591  2.0918 -0.1581
 9676SOL     OW38957  11.379  11.675   2.276  0.5228 -0.3986 -0.0324
 9676SOL    HW138958  11.403  11.618   2.203 -0.0952  0.4742 -0.9289
 9676SOL    HW238959  11.284  11.673   2.279  0.5205 -0.0186  0.4260
 9677SOL     OW38960   5.555   6.101  10.703 -0.4239 -0.5697  0.0014
 9677SOL    HW138961   5.640   6.136  10.678  0.0168 -1.4929  0.1482
 9677SOL    HW238962   5.543   6.130  10.794  0.3334 -1.5009  0.4136
 9678SOL     OW38963  11.197   7.801   0.211 -0.1610 -0.1443  0.0490
 9678SOL    HW138964  11.130   7.860   0.244 -0.3162 -0.4651  0.3180
 9678SOL    HW238965  11.150   7.718   0.197  0.2322 -0.4384  0.4656
 9679SOL     OW38966   3.619   9.352   9.077  0.2674  0.1096  0.5023
 9679SOL    HW138967   3.702   9.307   9.093  2.0400  2.4647 -1.3787
 9679SOL    HW238968   3.609   9.351   8.981 -1.1685  1.0433  0.6105
 9680SOL     OW38969   2.692   8.181   1.501 -0.1156 -0.5060 -0.2442
 9680SOL    HW138970   2.711   8.215   1.588  0.7512  1.4746 -1.1444
 9680SOL    HW238971   2.767   8.126   1.479 -0.5685 -1.4151  0.4247
 9681SOL     OW38972   4.963   4.057   7.747  0.4529 -0.2688 -0.4099
 9681SOL    HW138973   5.057   4.064   7.761  0.4565 -0.1980 -0.4671
 9681SOL    HW238974   4.954   4.012   7.663  0.4393  0.0241 -0.5681
 9682SOL     OW38975  11.197  11.304  12.763  0.6227 -0.6376 -0.1996
 9682SOL    HW138976  11.147  11.385  12.768  0.8565 -0.5305  0.5134
 9682SOL    HW238977  11.218  11.295  12.670 -2.1063 -1.5571 -0.8182
 9683SOL     OW38978   5.566   8.334   6.891  0.4695 -0.2465 -0.4250
 9683SOL    HW138979   5.609   8.419   6.901 -1.2967  0.6246  0.1349
 9683SOL    HW238980   5.567   8.296   6.979 -0.6673  0.1815 -0.2153
 9684SOL     OW38981  12.789  11.698   3.574  0.1611 -0.4956  0.6028
 9684SOL    HW138982  12.867  11.750   3.556  0.3966 -1.2484 -0.7770
 9684SOL    HW238983  12.719  11.743   3.528 -0.7841  1.4847  3.7466
 9685SOL     OW38984   1.996   9.195   3.868 -0.4716 -0.0741 -0.2184
 9685SOL    HW138985   2.063   9.169   3.932 -2.8347 -1.1263  2.0420
 9685SOL    HW238986   1.989   9.120   3.809  1.1825  0.5830 -1.3185
 9686SOL     OW38987  12.504   4.280   3.593 -0.7223 -0.2564  0.1188
 9686SOL    HW138988  12.437   4.330   3.545 -0.3346  0.9561  0.8094
 9686SOL    HW238989  12.481   4.291   3.685 -0.3657 -1.0017  0.3092
 9687SOL     OW38990   2.255   9.467   9.885 -0.0412 -0.1976 -0.4817
 9687SOL    HW138991   2.187   9.534   9.897  1.0132  0.4472  2.8912
 9687SOL    HW238992   2.212   9.385   9.908  0.4409  0.3328  2.6836
 9688SOL     OW38993   9.476   0.264  11.155  0.3741  0.3275  0.2217
 9688SOL    HW138994   9.511   0.290  11.069 -0.9928  0.6146 -0.2766
 9688SOL    HW238995   9.553   0.238  11.205  1.2666  0.6912 -0.9064
 9689SOL     OW38996   6.882   1.592   8.446 -0.4349  0.1068 -0.2585
 9689SOL    HW138997   6.832   1.528   8.395 -2.6573 -0.7238  2.6334
 9689SOL    HW238998   6.942   1.538   8.499  1.9893  0.9510 -1.9930
 9690SOL     OW38999  13.023   6.094   4.277  0.0991  0.3035 -0.1832
 9690SOL    HW139000  13.040   6.006   4.309 -3.1393  0.3649  2.3250
 9690SOL    HW239001  12.993   6.082   4.187  2.0705 -0.8052 -0.7434
 9691SOL     OW39002   5.695   5.384   8.224 -0.3866  0.1488  0.1573
 9691SOL    HW139003   5.736   5.471   8.230  1.2224 -0.6708  1.9491
 9691SOL    HW239004   5.722   5.352   8.138  1.8794  0.1269  0.8040
 9692SOL     OW39005   0.737  11.936  11.820 -0.0727 -0.2006  0.2299
 9692SOL    HW139006   0.756  11.914  11.911  0.7782 -1.8052 -0.3118
 9692SOL    HW239007   0.677  11.868  11.790 -1.1899  0.9007 -0.1418
 9693SOL     OW39008  11.005   1.338  10.615  0.3169 -0.0622 -0.3746
 9693SOL    HW139009  11.053   1.316  10.536 -0.5753  0.6811 -1.1441
 9693SOL    HW239010  11.037   1.425  10.639  1.0108 -0.5266  0.4308
 9694SOL     OW39011   5.127   3.112   7.266  1.1523  0.6206 -0.3541
 9694SOL    HW139012   5.192   3.054   7.227  2.7882  0.0273  2.9618
 9694SOL    HW239013   5.140   3.196   7.222  2.9846  0.0512 -0.9876
 9695SOL     OW39014  12.592   9.314   6.187  0.5324 -0.0918 -0.4569
 9695SOL    HW139015  12.504   9.352   6.188  0.0371 -1.1740 -1.2576
 9695SOL    HW239016  12.648   9.384   6.221 -1.0415 -0.4918  3.4972
 9696SOL     OW39017   0.742   5.503   7.933 -0.1976 -0.3383 -0.1813
 9696SOL    HW139018   0.820   5.455   7.904  0.6405  1.2568 -0.6780
 9696SOL    HW239019   0.771   5.551   8.011 -0.7092  0.2145 -0.3293
 9697SOL     OW39020  12.788  12.088   7.539  0.4978 -0.1629 -0.0580
 9697SOL    HW139021  12.785  12.002   7.497  1.9025 -0.1304 -0.2483
 9697SOL    HW239022  12.789  12.070   7.633 -1.9279 -0.2532  0.0193
 9698SOL     OW39023  11.328  12.257   1.295  0.4522  0.0763 -0.0158
 9698SOL    HW139024  11.380  12.334   1.271 -0.9312  0.9587 -0.2810
 9698SOL    HW239025  11.316  12.264   1.389 -0.8698  0.9784 -0.2360
 9699SOL     OW39026   1.717   8.843   9.328  0.4454  0.4304 -0.0218
 9699SOL    HW139027   1.773   8.820   9.402  0.4803  0.0348 -0.1699
 9699SOL    HW239028   1.766   8.911   9.281  1.4295 -0.8127 -0.8839
 9700SOL     OW39029   0.079   4.704   8.316  0.3889 -0.1377  0.2251
 9700SOL    HW139030   0.041   4.688   8.402 -0.5691 -0.6099 -0.2670
 9700SOL    HW239031   0.173   4.695   8.329  0.2383 -0.4069  1.1763
 9701SOL     OW39032   1.936   5.655   7.416 -0.0526 -0.4602  0.0856
 9701SOL    HW139033   1.993   5.712   7.467 -0.6634  0.3980 -0.1573
 9701SOL    HW239034   1.848   5.689   7.432 -0.2675 -0.1815 -1.4951
 9702SOL     OW39035  12.409   9.226  10.506 -0.4451 -0.0326  0.2523
 9702SOL    HW139036  12.417   9.320  10.490  2.5338 -0.2884 -0.3726
 9702SOL    HW239037  12.465   9.210  10.582  2.4207 -1.7423 -2.0070
 9703SOL     OW39038   6.536  12.747  10.182 -0.1073  0.0468  0.1896
 9703SOL    HW139039   6.544  12.776  10.091  0.0501  0.9655  0.4846
 9703SOL    HW239040   6.503  12.823  10.229  0.5780 -0.1685  1.0482
 9704SOL     OW39041   6.246   9.006  10.136  0.3954 -0.3488  0.3189
 9704SOL    HW139042   6.336   9.034  10.119  0.1348  0.3687  0.0841
 9704SOL    HW239043   6.254   8.914  10.162  1.0880 -0.6346 -0.8333
 9705SOL     OW39044  13.076   7.155   5.747  0.0969 -0.0534  0.4828
 9705SOL    HW139045  13.051   7.065   5.766  1.1190 -0.8273 -1.5500
 9705SOL    HW239046  13.171   7.157   5.759 -0.0714  1.1983  1.9699
 9706SOL     OW39047   3.933   8.596   9.135  0.0796 -0.0899 -0.0638
 9706SOL    HW139048   3.882   8.646   9.199  2.1881  0.6671  1.1306
 9706SOL    HW239049   3.949   8.512   9.179 -0.7319 -0.6147 -0.7429
 9707SOL     OW39050   4.840  12.394  12.248  0.0763 -0.0401  0.5960
 9707SOL    HW139051   4.873  12.362  12.332  1.4957 -0.6000 -0.1446
 9707SOL    HW239052   4.918  12.403  12.194 -0.8282  0.2519 -0.6944
 9708SOL     OW39053  11.577   8.341  11.568 -0.5263 -0.0284 -0.1788
 9708SOL    HW139054  11.509   8.313  11.629 -0.9388  0.4723 -0.4010
 9708SOL    HW239055  11.607   8.260  11.527 -1.3531 -0.2070 -0.4522
 9709SOL     OW39056  10.677   1.442   6.810  0.3586 -0.3133  0.4590
 9709SOL    HW139057  10.615   1.449   6.882 -2.0218 -0.3330 -1.4827
 9709SOL    HW239058  10.689   1.532   6.780  0.4524 -0.4261  0.1535
 9710SOL     OW39059  12.847  10.744   2.649  0.8994  0.6796  0.4114
 9710SOL    HW139060  12.863  10.782   2.735  0.3159  0.9063  0.4250
 9710SOL    HW239061  12.754  10.762   2.632  0.9042  0.2634 -0.0781
 9711SOL     OW39062  10.466   0.275   1.097  0.2225 -0.2397  0.2751
 9711SOL    HW139063  10.408   0.349   1.117 -0.1815 -0.4591 -0.0787
 9711SOL    HW239064  10.529   0.275   1.169 -1.3176 -1.1241  1.6974
 9712SOL     OW39065   2.025   5.849   5.493  0.3190 -0.5854  0.3258
 9712SOL    HW139066   1.949   5.885   5.446  1.4700  0.1162 -1.1062
 9712SOL    HW239067   2.012   5.875   5.584 -2.1181 -2.1861  0.5319
 9713SOL     OW39068   8.710   5.323  11.976 -0.1211 -0.1339 -0.1953
 9713SOL    HW139069   8.649   5.262  11.935  0.5844 -0.7743 -0.2993
 9713SOL    HW239070   8.779   5.268  12.013 -0.0574  0.5264  0.6924
 9714SOL     OW39071  10.965   6.132   2.148  0.0107 -0.3903 -0.0774
 9714SOL    HW139072  10.986   6.041   2.128  1.6335 -0.0010 -0.2711
 9714SOL    HW239073  11.045   6.167   2.187 -0.3786  1.1168 -0.5664
 9715SOL     OW39074   9.726  11.302   6.352  0.4201  0.2067  0.6683
 9715SOL    HW139075   9.758  11.374   6.406 -0.5733 -0.3759  2.0897
 9715SOL    HW239076   9.631  11.311   6.353  0.3436 -0.4048 -0.1777
 9716SOL     OW39077   9.187  12.756   8.048  0.6398  0.0465 -0.6139
 9716SOL    HW139078   9.192  12.670   8.006  0.0342  0.1087 -0.8226
 9716SOL    HW239079   9.273  12.768   8.089  1.2067 -0.0654 -1.7257
 9717SOL     OW39080  10.152   0.628   6.417 -0.2017  0.5961  0.5144
 9717SOL    HW139081  10.090   0.633   6.344  0.4719  0.0442 -0.1210
 9717SOL    HW239082  10.161   0.534   6.435  2.7869  0.3361 -1.5384
 9718SOL     OW39083   7.457   6.084   1.821 -0.0697  0.0551  0.1379
 9718SOL    HW139084   7.493   6.012   1.872  0.9255  1.0808  0.9279
 9718SOL    HW239085   7.450   6.156   1.883  1.2351  1.3673 -1.1611
 9719SOL     OW39086   0.909  13.226   2.568  0.2380 -0.2936 -0.3746
 9719SOL    HW139087   0.951  13.181   2.494 -0.2196  0.1375 -0.9088
 9719SOL    HW239088   0.917  13.319   2.547 -1.7276 -0.2157 -0.9264
 9720SOL     OW39089   8.171   8.958   5.500 -0.0144  0.2198 -0.5651
 9720SOL    HW139090   8.120   8.932   5.576  0.5643  1.3743  0.2349
 9720SOL    HW239091   8.112   8.942   5.425  0.1446 -2.9738 -0.1556
 9721SOL     OW39092   7.114   1.505  12.361 -0.3016 -0.1738  0.1294
 9721SOL    HW139093   7.172   1.440  12.322 -1.2386  0.2916 -2.2214
 9721SOL    HW239094   7.049   1.454  12.409  0.9072 -0.7796  1.1579
 9722SOL     OW39095   8.891   5.844   3.550  0.2195 -0.3640 -0.2080
 9722SOL    HW139096   8.925   5.844   3.461  1.3836  1.3760  0.1853
 9722SOL    HW239097   8.928   5.923   3.590 -1.9445  0.0369  1.1777
 9723SOL     OW39098   2.742   1.239   1.411  0.4913 -0.8009 -0.1075
 9723SOL    HW139099   2.749   1.334   1.416 -1.5337 -0.6637  3.2337
 9723SOL    HW239100   2.652   1.222   1.384  0.4175 -1.7250  0.6444
 9724SOL     OW39101  12.190   2.928   6.144 -0.2135  0.0713 -0.2659
 9724SOL    HW139102  12.252   2.894   6.079  0.6478  0.0857  0.5166
 9724SOL    HW239103  12.233   2.911   6.228 -1.7377 -0.8215  0.3585
 9725SOL     OW39104   3.265   5.724   4.141 -0.1908 -0.0624  0.2226
 9725SOL    HW139105   3.358   5.745   4.144 -0.1830  0.1915 -1.2956
 9725SOL    HW239106   3.237   5.747   4.052 -1.4335 -1.2532  0.2651
 9726SOL     OW39107   4.508   4.013   5.558  0.2842  1.0158 -0.1105
 9726SOL    HW139108   4.416   4.025   5.584  0.3715 -0.1546  0.8103
 9726SOL    HW239109   4.507   3.935   5.504  0.8456  0.5697  0.5158
 9727SOL     OW39110   5.684  12.472  10.556 -0.1033 -0.3134  0.3259
 9727SOL    HW139111   5.671  12.423  10.475  0.8440  1.2291 -0.8243
 9727SOL    HW239112   5.732  12.413  10.613  2.0458 -0.4036 -1.4450
 9728SOL     OW39113   0.814  12.972   1.527 -0.0158  0.0052  0.3062
 9728SOL    HW139114   0.864  13.051   1.549  2.2704 -0.7798 -1.7066
 9728SOL    HW239115   0.789  12.983   1.436 -2.4192 -0.2838  0.8549
 9729SOL     OW39116   4.305  11.960   0.600  0.2705  0.4231 -0.6451
 9729SOL    HW139117   4.343  12.027   0.657 -1.8478  1.1934 -0.0318
 9729SOL    HW239118   4.346  11.878   0.629  1.3968  1.1760 -0.0137
 9730SOL     OW39119   9.673   4.354   3.799  0.1898  0.2389 -0.0064
 9730SOL    HW139120   9.724   4.358   3.879  0.6147 -1.1979 -0.1740
 9730SOL    HW239121   9.610   4.283   3.815  0.4718 -0.2572 -1.0347
 9731SOL     OW39122  11.108  12.316   8.688  0.5947  0.2966  0.0920
 9731SOL    HW139123  11.049  12.272   8.750  0.3510 -1.4634 -1.3086
 9731SOL    HW239124  11.196  12.289   8.714  0.5242 -0.0691 -0.0464
 9732SOL     OW39125   2.064  12.525   8.995 -0.2707  0.0389 -0.2603
 9732SOL    HW139126   2.127  12.493   8.929  0.0092 -0.5730  0.2939
 9732SOL    HW239127   2.117  12.576   9.056 -1.0346  3.7356 -2.4170
 9733SOL     OW39128   6.498  11.370  12.496  0.5577  0.2276  0.3082
 9733SOL    HW139129   6.449  11.289  12.512  1.0820 -0.1250  0.1545
 9733SOL    HW239130   6.557  11.377  12.571  1.8438 -0.5437 -0.5955
 9734SOL     OW39131   1.215   3.943   1.333  0.3021  0.0105  0.0287
 9734SOL    HW139132   1.145   3.957   1.397 -0.1570  1.2984 -0.7112
 9734SOL    HW239133   1.181   3.980   1.251  1.6915  0.3160 -0.4446
 9735SOL     OW39134   1.182   2.406   1.080  0.5095  0.8162  0.0362
 9735SOL    HW139135   1.188   2.393   0.985  1.1020 -0.8675  0.2699
 9735SOL    HW239136   1.189   2.500   1.091  1.0566  1.0069 -1.5577
 9736SOL     OW39137  12.759   7.162  10.027  0.1199 -0.2920  0.0412
 9736SOL    HW139138  12.836   7.109  10.004 -1.0694 -2.4949  0.8470
 9736SOL    HW239139  12.714   7.176   9.943 -0.0761 -1.4507 -0.0595
 9737SOL     OW39140   7.783   8.658   8.715 -0.2537  0.3444 -0.4372
 9737SOL    HW139141   7.691   8.629   8.718  0.0705 -1.6263 -3.7885
 9737SOL    HW239142   7.789   8.708   8.634  1.5117  1.1201  0.1290
 9738SOL     OW39143   2.718  11.088   2.462 -0.2467 -0.3074 -0.0718
 9738SOL    HW139144   2.637  11.137   2.442 -1.4780 -1.7961  1.0441
 9738SOL    HW239145   2.709  11.065   2.554  0.4291 -2.3563 -0.4756
 9739SOL     OW39146   9.017   7.224   9.838  0.3629 -0.5975  0.1920
 9739SOL    HW139147   8.929   7.250   9.865  0.3108 -0.5311 -0.0396
 9739SOL    HW239148   9.015   7.225   9.742  1.0293  0.8531  0.1606
 9740SOL     OW39149   6.437   1.575   4.365 -0.3693  0.0589 -0.3550
 9740SOL    HW139150   6.532   1.563   4.358 -0.5837 -1.6796 -0.7671
 9740SOL    HW239151   6.404   1.549   4.279 -1.1800  1.2253 -0.4084
 9741SOL     OW39152   0.208   6.229   8.818 -0.4982 -0.3960  0.1884
 9741SOL    HW139153   0.128   6.182   8.795 -0.3654 -0.2694 -0.5667
 9741SOL    HW239154   0.199   6.247   8.911 -2.2916  1.3823 -0.2465
 9742SOL     OW39155  12.710   4.033   2.740  0.9225 -0.6716 -0.3592
 9742SOL    HW139156  12.615   4.020   2.739  0.3192  2.0982  2.5748
 9742SOL    HW239157  12.726   4.099   2.672  0.9907 -1.9775 -1.6510
 9743SOL     OW39158   6.044   9.255   7.802  0.5013 -0.5359 -0.2937
 9743SOL    HW139159   5.957   9.227   7.774  0.0768  0.3954  0.0543
 9743SOL    HW239160   6.082   9.298   7.726  0.7491 -1.1382 -0.5134
 9744SOL     OW39161  10.816  10.913   2.672 -0.6057 -0.3736  0.2702
 9744SOL    HW139162  10.885  10.862   2.715 -0.1925  2.0951  2.9131
 9744SOL    HW239163  10.862  10.989   2.636 -1.8932  2.2733  3.6479
 9745SOL     OW39164   5.137   8.755   5.128  0.5946  0.0899  0.4327
 9745SOL    HW139165   5.094   8.840   5.139  2.4421  1.1900 -0.3349
 9745SOL    HW239166   5.114   8.706   5.207  0.4080  1.7123  1.4296
 9746SOL     OW39167  11.857   2.268  13.279  0.8535 -0.4284 -0.2004
 9746SOL    HW139168  11.853   2.364  13.279  0.1713 -0.3959  2.3287
 9746SOL    HW239169  11.780   2.241  13.229 -0.0282  0.3752  0.6794
 9747SOL     OW39170  12.845   4.408   4.104  0.5615  0.1329 -0.1920
 9747SOL    HW139171  12.911   4.339   4.111  0.4656  0.0343 -0.2382
 9747SOL    HW239172  12.895   4.489   4.092  0.6708  0.0337 -0.4242
 9748SOL     OW39173  10.285   1.950   2.678 -0.1493  0.4685 -0.4315
 9748SOL    HW139174  10.266   2.044   2.668 -0.3133  0.4294 -0.4890
 9748SOL    HW239175  10.376   1.947   2.706  0.2816  0.5785 -1.7664
 9749SOL     OW39176   4.631  11.131   2.766 -0.2259  0.0388 -0.3857
 9749SOL    HW139177   4.633  11.079   2.685  1.4710  0.0139 -0.3616
 9749SOL    HW239178   4.622  11.066   2.836  0.3633 -0.1066 -0.4425
 9750SOL     OW39179  11.051   5.664   9.650 -0.1128 -0.1163  0.0723
 9750SOL    HW139180  10.990   5.690   9.718  0.1426 -0.6672  0.5197
 9750SOL    HW239181  11.097   5.588   9.686 -0.0065 -0.4445 -0.7311
 9751SOL     OW39182   3.032   8.812   9.182  0.3008 -0.4089  0.2380
 9751SOL    HW139183   2.941   8.842   9.188 -0.4874 -2.6384  0.4650
 9751SOL    HW239184   3.029   8.738   9.121  1.7937 -1.0961  0.9386
 9752SOL     OW39185   7.586  13.022   1.134  0.5641  0.0363  0.2784
 9752SOL    HW139186   7.604  13.098   1.190  0.8803  1.0336 -1.1182
 9752SOL    HW239187   7.669  12.976   1.127  0.6882  0.2876  0.0896
 9753SOL     OW39188   3.993  12.956   7.760  0.0301 -0.4810 -0.2679
 9753SOL    HW139189   3.937  12.881   7.739  2.8291 -2.8928  0.2049
 9753SOL    HW239190   4.009  12.998   7.676 -1.1472 -0.6938 -0.6233
 9754SOL     OW39191   9.952   0.848  11.622  0.3819 -0.6355  0.0833
 9754SOL    HW139192   9.914   0.934  11.608 -1.8018 -1.1944  1.9048
 9754SOL    HW239193  10.023   0.863  11.685  0.7069 -0.0445 -0.4210
 9755SOL     OW39194   7.439  10.382   8.908  0.8239 -0.7675  0.2786
 9755SOL    HW139195   7.415  10.387   9.001 -0.4667 -0.6943 -0.0356
 9755SOL    HW239196   7.355  10.382   8.862  1.4689  0.3472 -0.9517
 9756SOL     OW39197   2.494   3.313   8.359 -0.2139  0.2199 -0.5599
 9756SOL    HW139198   2.402   3.336   8.365 -0.8218 -2.2078  1.0027
 9756SOL    HW239199   2.494   3.231   8.309  0.7522 -1.1665  1.5814
 9757SOL     OW39200   0.335   8.151  13.302  0.0276  0.0434 -0.7595
 9757SOL    HW139201   0.416   8.194  13.330  0.2812 -0.3735 -0.8508
 9757SOL    HW239202   0.312   8.195  13.220  0.8333 -0.6597 -1.3824
 9758SOL     OW39203  10.584  10.324   6.241 -0.0383  0.6981 -0.1676
 9758SOL    HW139204  10.552  10.323   6.150 -0.2645 -0.0401 -0.0846
 9758SOL    HW239205  10.569  10.235   6.273  1.3284  0.5601  0.1590
 9759SOL     OW39206   2.597   8.822  12.759  0.2057  0.5213  0.0569
 9759SOL    HW139207   2.672   8.860  12.803 -1.7608  1.6813  2.6455
 9759SOL    HW239208   2.585   8.737  12.801  0.9160 -0.3848 -1.4579
 9760SOL     OW39209  12.089   3.992   9.238 -0.7283 -0.4845  0.4563
 9760SOL    HW139210  12.097   3.910   9.286 -0.2414  0.3773  1.9307
 9760SOL    HW239211  12.004   3.987   9.195  0.0225 -2.4590 -0.9127
 9761SOL     OW39212   6.152   1.017   4.626  0.1109  0.0458 -0.1889
 9761SOL    HW139213   6.205   0.937   4.628  1.1707  0.7228 -0.4621
 9761SOL    HW239214   6.139   1.040   4.717  0.0081 -0.3024 -0.1138
 9762SOL     OW39215  12.218   7.158  13.265  0.6794  0.2412  0.3849
 9762SOL    HW139216  12.299   7.210  13.265  0.8918 -0.0764  1.0041
 9762SOL    HW239217  12.165   7.196  13.195  0.9809  1.0648  0.5829
 9763SOL     OW39218   4.047  10.181  11.728 -0.1827  0.3498 -0.4213
 9763SOL    HW139219   4.065  10.160  11.819 -0.7229  1.3290 -0.0715
 9763SOL    HW239220   4.089  10.111  11.678  1.4169  0.5827  0.5152
 9764SOL     OW39221   1.684  11.719   4.290  0.3537 -0.1565  0.0684
 9764SOL    HW139222   1.738  11.642   4.303  1.1439 -0.0281 -2.0674
 9764SOL    HW239223   1.595  11.685   4.284  0.7797 -1.0598 -1.7257
 9765SOL     OW39224   6.179  10.411  11.898 -0.3318  0.2791  0.2836
 9765SOL    HW139225   6.117  10.476  11.864  0.0435 -0.0587 -1.1053
 9765SOL    HW239226   6.202  10.358  11.822  1.2034  0.0086  0.9042
 9766SOL     OW39227  10.227   4.510  11.212  0.1693  0.0181 -0.1637
 9766SOL    HW139228  10.216   4.417  11.234 -0.5437  0.3776  1.0891
 9766SOL    HW239229  10.311   4.514  11.166 -0.5348 -1.4713 -1.6963
 9767SOL     OW39230   8.882  10.316   4.346 -0.2458  0.3567  0.1104
 9767SOL    HW139231   8.910  10.406   4.328 -2.9905  1.0379 -1.3381
 9767SOL    HW239232   8.937  10.262   4.288 -0.2508  1.3527 -0.8642
 9768SOL     OW39233   4.550  10.765   6.187 -0.3898  0.0370  0.6421
 9768SOL    HW139234   4.546  10.700   6.257  1.0222 -0.2948  0.4460
 9768SOL    HW239235   4.640  10.798   6.190 -1.0085  1.8603  0.6124
 9769SOL     OW39236   0.134   8.198   1.566 -0.2516  0.1513  0.6040
 9769SOL    HW139237   0.132   8.269   1.630 -0.7304  1.5084 -0.8524
 9769SOL    HW239238   0.192   8.229   1.497  0.9197 -1.6350  0.7129
 9770SOL     OW39239   9.936   1.944  12.460 -0.1108 -0.2138  0.2569
 9770SOL    HW139240  10.029   1.963  12.459 -0.4851  1.9035  1.3326
 9770SOL    HW239241   9.906   1.965  12.371 -0.3769  4.1613  1.1673
 9771SOL     OW39242   4.533  11.765   1.419 -0.2698  0.5592  0.1253
 9771SOL    HW139243   4.506  11.764   1.510  2.0437  1.9419  0.9087
 9771SOL    HW239244   4.502  11.681   1.384 -0.4678 -0.3911  2.3986
 9772SOL     OW39245  13.253   5.862   0.478  0.3086  0.6319  0.4480
 9772SOL    HW139246  13.236   5.956   0.473 -1.0780  0.4699  1.6348
 9772SOL    HW239247  13.167   5.821   0.464  0.7290 -0.4308  0.8817
 9773SOL     OW39248   2.301   4.558   9.551 -0.1462 -0.3175 -0.5937
 9773SOL    HW139249   2.265   4.473   9.528 -0.7939 -0.2007 -0.0413
 9773SOL    HW239250   2.245   4.590   9.621 -0.4083  0.9256 -1.3390
 9774SOL     OW39251   3.098  11.220   3.363  0.2404  0.4447  0.3095
 9774SOL    HW139252   3.097  11.135   3.408 -0.8490 -0.3309 -1.0958
 9774SOL    HW239253   3.023  11.267   3.399  0.3490  0.4826  0.4874
 9775SOL     OW39254   8.760   8.777   1.488 -0.8787  0.6903  0.3980
 9775SOL    HW139255   8.674   8.791   1.527 -0.4109  1.6710  1.1211
 9775SOL    HW239256   8.792   8.696   1.530 -0.3643  1.7528  2.1587
 9776SOL     OW39257   2.666   4.507   0.029  0.1206  0.5074 -0.2476
 9776SOL    HW139258   2.600   4.552   0.082 -0.7044  0.7340 -1.4051
 9776SOL    HW239259   2.729   4.575   0.006  0.5796  0.3682  0.5767
 9777SOL     OW39260   4.108   7.629   1.747  0.4037  0.9195 -0.2797
 9777SOL    HW139261   4.117   7.580   1.665  0.0128  0.5004 -0.0748
 9777SOL    HW239262   4.106   7.721   1.720 -3.0744  0.7448 -1.0872
 9778SOL     OW39263   4.431   6.606   2.227  0.3030  0.2273  0.1539
 9778SOL    HW139264   4.379   6.641   2.155 -3.2762 -3.1179  0.8161
 9778SOL    HW239265   4.489   6.542   2.186 -0.8065 -0.7207 -0.0039
 9779SOL     OW39266   2.357   4.646   6.199  0.0992 -0.4868  0.2509
 9779SOL    HW139267   2.336   4.553   6.205 -0.2664 -0.4710 -0.6857
 9779SOL    HW239268   2.381   4.671   6.289  0.1859 -1.4732  0.5085
 9780SOL     OW39269  13.059   3.080   0.633 -0.1094  0.4444  0.1274
 9780SOL    HW139270  13.096   3.120   0.555  0.4066  0.1401  0.2030
 9780SOL    HW239271  13.135   3.041   0.678 -0.2940  1.1582  1.0994
 9781SOL     OW39272   3.300   5.548  11.407 -0.0046  0.4105 -0.2095
 9781SOL    HW139273   3.363   5.616  11.433 -1.8055  1.8244  0.7035
 9781SOL    HW239274   3.274   5.507  11.489  0.0459 -0.4757 -0.6283
 9782SOL     OW39275   4.333   8.688   9.073 -0.5504  0.6631 -0.2461
 9782SOL    HW139276   4.286   8.686   9.157  2.1346  0.4790  1.3710
 9782SOL    HW239277   4.311   8.605   9.031 -1.0527  0.2421  0.8071
 9783SOL     OW39278  11.015   3.229   6.230 -0.4989  0.3358 -0.0931
 9783SOL    HW139279  10.969   3.217   6.314 -0.7187 -1.2606 -0.4093
 9783SOL    HW239280  11.105   3.204   6.249 -0.7262 -0.8702 -0.5092
 9784SOL     OW39281   6.832   8.461  11.965 -0.3851  0.6062 -0.1801
 9784SOL    HW139282   6.855   8.447  11.873 -0.4328  0.2215 -0.1356
 9784SOL    HW239283   6.911   8.440  12.013 -0.6882 -0.3341 -0.0559
 9785SOL     OW39284  10.617   3.826  10.607 -0.6795  0.8226 -0.1080
 9785SOL    HW139285  10.699   3.859  10.644  0.6394 -0.4096 -1.7659
 9785SOL    HW239286  10.589   3.759  10.669 -1.2783  2.2295  1.2287
 9786SOL     OW39287  13.306  11.441  11.806  0.1561  0.8131 -0.1162
 9786SOL    HW139288  13.382  11.443  11.865  0.5322  0.4527 -0.5858
 9786SOL    HW239289  13.329  11.502  11.736 -0.1389  0.9668 -0.0809
 9787SOL     OW39290   6.317   2.303   5.509 -0.5846  0.6271  0.1728
 9787SOL    HW139291   6.301   2.334   5.420 -0.0573  1.3693  0.3313
 9787SOL    HW239292   6.397   2.251   5.502 -0.4680  0.7961  0.2328
 9788SOL     OW39293  13.258   1.535   8.025  0.3376  0.3310  0.5825
 9788SOL    HW139294  13.230   1.587   8.101  0.9509  3.5880 -1.2297
 9788SOL    HW239295  13.350   1.559   8.013  0.1122  0.3548 -1.4637
 9789SOL     OW39296   5.117   0.073   0.233  0.2638  0.1414 -0.0063
 9789SOL    HW139297   5.143   0.076   0.325  2.0035 -2.1952 -0.3404
 9789SOL    HW239298   5.196   0.096   0.184 -0.0214 -0.7979 -0.9462
 9790SOL     OW39299   6.564   8.952  12.996 -0.0893 -0.0507 -0.3780
 9790SOL    HW139300   6.554   9.017  13.066  1.7086  1.3473 -1.3301
 9790SOL    HW239301   6.498   8.975  12.931 -1.5971 -1.1994  0.6806
 9791SOL     OW39302   2.865   4.250   2.993 -0.2367 -0.3591 -0.4092
 9791SOL    HW139303   2.945   4.198   3.000  0.9762  1.5734  1.5500
 9791SOL    HW239304   2.895   4.335   2.958 -1.5948  0.1149 -0.4791
 9792SOL     OW39305   7.016   1.852   0.593 -0.2695 -0.5847  0.0608
 9792SOL    HW139306   6.999   1.810   0.509  0.5281  2.1905 -1.5858
 9792SOL    HW239307   7.111   1.867   0.594 -0.4684  0.7307  0.8052
 9793SOL     OW39308  10.224   7.278   4.854  0.6397  0.3406 -0.7811
 9793SOL    HW139309  10.178   7.207   4.808  0.1305  0.8143 -1.0096
 9793SOL    HW239310  10.174   7.357   4.834  1.1807  0.7672 -0.4958
 9794SOL     OW39311   6.352  10.656   9.365  0.3587  0.0182 -0.4775
 9794SOL    HW139312   6.342  10.603   9.286 -1.1584  1.2630 -1.1755
 9794SOL    HW239313   6.304  10.608   9.433  1.2980 -0.8324 -0.3890
 9795SOL     OW39314  11.398  10.443   2.169  0.8586 -0.3267  0.2358
 9795SOL    HW139315  11.321  10.455   2.114  0.0816 -0.6351  1.2398
 9795SOL    HW239316  11.407  10.348   2.177  0.6512 -0.2760  1.0809
 9796SOL     OW39317   2.203   6.394  10.857  0.3014 -0.2370  0.5356
 9796SOL    HW139318   2.159   6.479  10.859  1.0104  0.1404  1.0924
 9796SOL    HW239319   2.183   6.357  10.771 -1.5690 -0.3565  0.9883
 9797SOL     OW39320   0.130  11.206  10.234 -0.8968 -0.3389 -0.3016
 9797SOL    HW139321   0.218  11.212  10.271 -1.1183 -1.2351  0.3777
 9797SOL    HW239322   0.117  11.113  10.215 -1.2309 -0.0606 -1.5692
 9798SOL     OW39323   7.230  11.783  11.407 -0.4514  0.4348 -0.1179
 9798SOL    HW139324   7.312  11.830  11.423  0.5713 -1.4587  0.4639
 9798SOL    HW239325   7.246  11.694  11.438 -3.5067  0.5548  2.3165
 9799SOL     OW39326   9.250   0.437   2.725  0.5603 -0.3186 -0.3640
 9799SOL    HW139327   9.172   0.425   2.779  0.4674  1.8050  0.0539
 9799SOL    HW239328   9.320   0.453   2.788  0.7418  0.7230 -0.8143
 9800SOL     OW39329   0.674   3.521   8.170  0.0475 -0.2648  0.1717
 9800SOL    HW139330   0.656   3.584   8.101  0.1520  0.0157  0.3970
 9800SOL    HW239331   0.627   3.442   8.144  0.6876 -0.4039 -0.6025
 9801SOL     OW39332   5.922  10.792   6.072  0.3736  0.1330 -0.3355
 9801SOL    HW139333   5.841  10.743   6.054  0.6521 -0.6016  0.3405
 9801SOL    HW239334   5.919  10.809   6.166  1.1033 -0.0782 -0.2717
 9802SOL     OW39335  10.138   9.215   4.821 -0.3746  0.0527 -0.0777
 9802SOL    HW139336  10.216   9.259   4.787  0.2438 -2.6663 -2.5613
 9802SOL    HW239337  10.162   9.192   4.911  0.5823  1.6254  0.1195
 9803SOL     OW39338   2.526   1.559   1.505 -0.2842  0.2720  0.3578
 9803SOL    HW139339   2.620   1.546   1.515 -0.0303  2.3065  1.1626
 9803SOL    HW239340   2.512   1.560   1.410  0.2162 -1.5921  0.2271
 9804SOL     OW39341   0.546   6.074  12.657 -0.2044  0.6966  0.3272
 9804SOL    HW139342   0.511   5.987  12.637 -1.2875  1.1897 -0.0257
 9804SOL    HW239343   0.620   6.058  12.716 -0.9684 -0.4022  1.0150
 9805SOL     OW39344   2.934   1.705   3.165 -0.3403  0.1220  0.0304
 9805SOL    HW139345   2.877   1.780   3.181  0.1210  0.7947 -1.3789
 9805SOL    HW239346   3.020   1.734   3.194 -0.1525  0.1553 -0.5551
 9806SOL     OW39347   0.117  12.897   5.159  0.1579 -0.0183 -0.2027
 9806SOL    HW139348   0.117  12.977   5.106  3.1727  1.2100  1.4212
 9806SOL    HW239349   0.035  12.903   5.209  0.0754  1.8292 -0.4594
 9807SOL     OW39350   1.096   7.180   3.999  0.1565 -0.7681 -0.0899
 9807SOL    HW139351   1.009   7.142   4.009  1.0422 -2.8624  0.1520
 9807SOL    HW239352   1.132   7.135   3.923  0.3222  1.5724 -1.4929
 9808SOL     OW39353  13.170  12.320  11.595 -0.0618 -0.2357 -0.2718
 9808SOL    HW139354  13.095  12.380  11.592  1.4039  1.6436 -2.2564
 9808SOL    HW239355  13.194  12.316  11.687 -0.3541  2.1104 -0.0488
 9809SOL     OW39356   9.196   3.086   0.366 -0.2509 -0.2960  0.4605
 9809SOL    HW139357   9.129   3.018   0.358 -0.0686 -0.3876 -0.2777
 9809SOL    HW239358   9.148   3.169   0.363 -0.3234 -0.3615 -0.1069
 9810SOL     OW39359   8.900  11.723   0.366  0.0022 -0.1703  0.6547
 9810SOL    HW139360   8.964  11.780   0.408 -1.6737  2.3356  0.0855
 9810SOL    HW239361   8.845  11.692   0.438 -0.3133  0.6494  0.7751
 9811SOL     OW39362   9.648   8.846   0.395 -0.3864  0.2020  0.5761
 9811SOL    HW139363   9.582   8.840   0.464 -0.1481 -1.2109  0.7174
 9811SOL    HW239364   9.634   8.769   0.341  0.1800  0.6815 -0.2832
 9812SOL     OW39365  13.041   2.305  10.761 -1.0705 -0.6138 -0.2445
 9812SOL    HW139366  12.981   2.233  10.782 -0.1181 -0.9140  1.5728
 9812SOL    HW239367  12.984   2.382  10.755 -1.9220 -1.2649 -0.9225
 9813SOL     OW39368   6.219   6.181  12.178 -0.0621  0.1365 -0.2452
 9813SOL    HW139369   6.286   6.249  12.178 -1.5700  1.7676  1.4111
 9813SOL    HW239370   6.174   6.192  12.094 -0.6470  1.6573  0.2250
 9814SOL     OW39371   0.110  10.617   3.340 -0.1701  0.1082  0.6947
 9814SOL    HW139372   0.111  10.620   3.436  2.7771  1.4862  0.7141
 9814SOL    HW239373   0.097  10.525   3.319  2.3927 -0.7706  2.5390
 9815SOL     OW39374   6.275   0.423   5.652  0.1038  0.1453 -0.0243
 9815SOL    HW139375   6.240   0.489   5.593  0.2226  0.5558  0.3622
 9815SOL    HW239376   6.201   0.400   5.709  0.3997  0.8960  0.6874
 9816SOL     OW39377   5.234   6.075   7.385 -0.3633 -0.0552 -0.3885
 9816SOL    HW139378   5.188   6.098   7.466  0.4230  1.7812 -0.4252
 9816SOL    HW239379   5.228   6.153   7.331  0.3323 -0.7887 -1.5660
 9817SOL     OW39380   8.730  11.989  11.712 -0.3987  0.2951  0.0885
 9817SOL    HW139381   8.727  11.989  11.616 -1.0444 -1.3733  0.0746
 9817SOL    HW239382   8.820  12.012  11.733  0.4605 -1.7328 -1.0223
 9818SOL     OW39383  10.308  13.133  11.389 -0.2046 -1.0467  0.2677
 9818SOL    HW139384  10.388  13.092  11.354 -0.2658 -1.0688  0.1539
 9818SOL    HW239385  10.338  13.181  11.466  0.0994 -0.1685 -0.3889
 9819SOL     OW39386   6.415   2.361   1.166  0.2458 -0.4262 -0.2732
 9819SOL    HW139387   6.434   2.346   1.258  1.7141  2.1327 -0.0689
 9819SOL    HW239388   6.326   2.398   1.166  1.2713  2.2868  0.5273
 9820SOL     OW39389   9.352  10.418  10.682  0.6621 -0.0479  0.3562
 9820SOL    HW139390   9.324  10.438  10.771 -0.2465  0.2513  0.0094
 9820SOL    HW239391   9.374  10.325  10.685 -1.3023 -0.5556  0.4300
 9821SOL     OW39392   1.598   4.201   5.723  0.2555 -0.7243  0.4939
 9821SOL    HW139393   1.641   4.232   5.803  0.0874 -0.1801  0.3728
 9821SOL    HW239394   1.555   4.120   5.750 -0.1740 -0.3165  1.0656
 9822SOL     OW39395   9.531   1.660   4.774 -0.4501 -0.2316 -0.0575
 9822SOL    HW139396   9.573   1.580   4.807  0.5063  0.3038  0.0589
 9822SOL    HW239397   9.562   1.729   4.832 -1.7735  0.1383  0.2242
 9823SOL     OW39398   6.610   2.733   2.623 -0.1342  0.1998 -0.1444
 9823SOL    HW139399   6.653   2.786   2.555 -3.0761  1.2469 -1.3238
 9823SOL    HW239400   6.577   2.797   2.685 -0.0303 -0.5733  0.7225
 9824SOL     OW39401   8.264   5.972   3.272 -0.3818 -0.4951 -0.3407
 9824SOL    HW139402   8.305   6.021   3.343  1.7586 -0.5503 -1.4650
 9824SOL    HW239403   8.268   5.881   3.300 -1.9517 -0.3113  0.5823
 9825SOL     OW39404   8.198  10.399  12.961 -0.2467 -0.3115 -0.2591
 9825SOL    HW139405   8.268  10.344  12.995 -0.1391 -0.3656 -0.5707
 9825SOL    HW239406   8.242  10.480  12.935 -0.0286 -0.9747 -2.0305
 9826SOL     OW39407   2.549   3.768   8.496  0.1887 -0.3308  0.8319
 9826SOL    HW139408   2.537   3.814   8.413  0.0078 -0.1703  0.9459
 9826SOL    HW239409   2.573   3.679   8.471 -1.3444 -0.7062  0.5998
 9827SOL     OW39410   2.976   9.293   5.022  0.4730  0.3475 -0.1438
 9827SOL    HW139411   2.949   9.255   4.938 -0.9880 -2.1581  1.3232
 9827SOL    HW239412   2.932   9.378   5.025 -0.6327 -0.1478 -1.3361
 9828SOL     OW39413   3.675   9.456   8.805 -0.3075  0.7527  0.4544
 9828SOL    HW139414   3.702   9.374   8.763 -2.9516  0.3223 -0.5901
 9828SOL    HW239415   3.651   9.514   8.733 -3.0164  0.7146  1.2089
 9829SOL     OW39416  11.695   6.657   3.705 -0.0531 -0.5241 -0.0659
 9829SOL    HW139417  11.673   6.639   3.613 -0.6808  2.3233 -0.5417
 9829SOL    HW239418  11.775   6.709   3.701 -1.7044  2.2374  0.7547
 9830SOL     OW39419  10.567  13.126   0.157 -0.2387  0.7263  0.2406
 9830SOL    HW139420  10.632  13.160   0.219  2.5126 -1.2089 -1.3410
 9830SOL    HW239421  10.597  13.157   0.072 -0.5610 -1.3374 -0.6846
 9831SOL     OW39422   5.362  10.305   1.192  0.4491  0.4768 -0.0012
 9831SOL    HW139423   5.446  10.339   1.221  0.9764 -0.5406 -0.2768
 9831SOL    HW239424   5.297  10.360   1.236  1.2385  1.9867 -0.6554
 9832SOL     OW39425  11.944   1.251   0.740 -0.2846  0.6696  0.2426
 9832SOL    HW139426  11.961   1.342   0.764 -0.7068  0.9051 -0.3179
 9832SOL    HW239427  11.976   1.200   0.814  1.1567  1.1925  0.0084
 9833SOL     OW39428   8.958  12.350   2.442  0.0769 -0.2291  0.1520
 9833SOL    HW139429   8.949  12.347   2.537 -2.0576  1.4588  0.0682
 9833SOL    HW239430   8.938  12.261   2.413 -1.2528 -0.2998  1.1814
 9834SOL     OW39431   9.818   2.415   3.368  0.0335 -0.0054 -0.1336
 9834SOL    HW139432   9.776   2.383   3.289 -0.5192  2.7471 -1.0528
 9834SOL    HW239433   9.884   2.477   3.337  0.8788 -0.0247  1.5148
 9835SOL     OW39434   1.561  11.139   9.617  0.2027 -0.6685  0.0641
 9835SOL    HW139435   1.471  11.122   9.645 -0.0764  1.1276  0.3790
 9835SOL    HW239436   1.614  11.085   9.676 -0.6507 -1.9819 -0.3162
 9836SOL     OW39437   0.070   0.670   0.809  0.4962 -0.1690  0.1520
 9836SOL    HW139438   0.022   0.593   0.778 -1.2067  0.7024  0.5104
 9836SOL    HW239439   0.017   0.745   0.782  0.4134  0.7526  2.5891
 9837SOL     OW39440  13.019   1.150   5.510  0.3318  0.1782 -0.2942
 9837SOL    HW139441  13.108   1.138   5.478  0.2398 -1.9157  0.0947
 9837SOL    HW239442  12.967   1.084   5.463 -0.5010 -0.3885  1.3208
 9838SOL     OW39443   0.860   2.566   7.644  0.5092 -0.4401 -0.1334
 9838SOL    HW139444   0.780   2.614   7.624  0.1424 -1.5109 -1.3243
 9838SOL    HW239445   0.868   2.571   7.740  0.2078  1.5097 -0.1588
 9839SOL     OW39446  11.226   9.953   2.988 -0.6774  0.7742  0.6399
 9839SOL    HW139447  11.184   9.982   2.907 -0.2099 -0.4428 -0.0729
 9839SOL    HW239448  11.186   9.869   3.007 -0.2752  0.7242  1.2921
 9840SOL     OW39449   1.704  12.243   7.429 -0.4174 -0.6625  0.0627
 9840SOL    HW139450   1.744  12.324   7.397 -1.2306 -0.7828 -1.3970
 9840SOL    HW239451   1.759  12.215   7.501  0.7715  0.3745 -0.4056
 9841SOL     OW39452   3.354   6.016   2.777 -0.2037  0.4531  0.1965
 9841SOL    HW139453   3.332   6.108   2.792  0.6990  0.7487 -0.2200
 9841SOL    HW239454   3.412   5.993   2.850  1.7920  1.0359 -1.1151
 9842SOL     OW39455   0.765  12.710  12.535 -0.1196 -0.0875  0.2326
 9842SOL    HW139456   0.856  12.691  12.513  0.1772 -0.1639  1.4730
 9842SOL    HW239457   0.766  12.728  12.629 -1.1855  1.1492  0.0385
 9843SOL     OW39458   8.498  10.052   0.694 -0.1889 -0.6196  0.1386
 9843SOL    HW139459   8.478  10.106   0.618  0.6198 -1.6439 -0.8395
 9843SOL    HW239460   8.465  10.102   0.769  4.2072  3.4005 -0.1409
 9844SOL     OW39461   1.364   5.051  10.767 -0.0079  0.0458 -0.1809
 9844SOL    HW139462   1.337   5.076  10.855 -0.2293  0.2869 -0.3184
 9844SOL    HW239463   1.417   4.972  10.780  1.5696  1.1317  0.3716
 9845SOL     OW39464  10.665   3.670   3.256 -0.5773 -0.5691 -0.1144
 9845SOL    HW139465  10.714   3.590   3.236 -0.9280 -0.4654 -1.4832
 9845SOL    HW239466  10.575   3.650   3.231 -1.0867 -0.4075  1.4356
 9846SOL     OW39467   5.974  13.096   9.149 -0.3320  0.3020  0.1813
 9846SOL    HW139468   5.948  13.003   9.145 -0.5540  0.1730  2.8821
 9846SOL    HW239469   6.069  13.093   9.160 -0.2816  0.4137 -0.2330
 9847SOL     OW39470  10.780   5.061  12.311 -0.2628 -0.3075 -0.3084
 9847SOL    HW139471  10.799   5.139  12.363  1.4243 -0.0836 -1.1888
 9847SOL    HW239472  10.691   5.074  12.279 -1.1090 -0.1462  1.9351
 9848SOL     OW39473   3.542   2.872  11.896 -0.3607 -0.0504  0.1197
 9848SOL    HW139474   3.499   2.794  11.931  1.2565 -0.7613  0.6256
 9848SOL    HW239475   3.532   2.938  11.965 -0.1097 -0.4019  0.4981
 9849SOL     OW39476   5.012  13.127   9.125  0.2297  0.3653 -0.6946
 9849SOL    HW139477   5.022  13.048   9.178 -1.0849  0.4176 -0.3457
 9849SOL    HW239478   4.921  13.127   9.097  0.2231  1.7091 -0.7790
 9850SOL     OW39479   4.291   7.619   0.983 -0.0720  0.0696  0.1608
 9850SOL    HW139480   4.323   7.660   1.063 -0.5493  0.3503  0.2183
 9850SOL    HW239481   4.287   7.526   1.003 -1.6670  0.2744  1.0268
 9851SOL     OW39482   4.008   3.398   4.183  0.2924  0.0723  0.2033
 9851SOL    HW139483   4.013   3.387   4.088  2.4195 -3.1137  0.5101
 9851SOL    HW239484   3.915   3.397   4.203 -0.1876  0.4290 -1.8137
 9852SOL     OW39485   9.215  11.754  11.693  0.0825 -0.0685  0.1388
 9852SOL    HW139486   9.166  11.755  11.611 -1.0006 -0.8909  0.7569
 9852SOL    HW239487   9.259  11.669  11.693 -0.6900 -0.4791  0.8375
 9853SOL     OW39488   1.067   4.710   8.096  0.2221 -0.2936  0.1088
 9853SOL    HW139489   1.084   4.752   8.012 -1.0733  1.5057  0.6927
 9853SOL    HW239490   0.976   4.680   8.091 -0.6635  1.8690  1.5971
 9854SOL     OW39491  12.605   0.028  11.577  0.4054 -0.1534  0.2668
 9854SOL    HW139492  12.649   0.079  11.509 -1.7200  2.1587  0.4734
 9854SOL    HW239493  12.539   0.088  11.613 -1.7178 -2.8003  1.1328
 9855SOL     OW39494  10.956   3.970   2.326 -0.6382 -0.1329 -0.3035
 9855SOL    HW139495  10.918   3.901   2.271 -2.3284  0.3273  0.2618
 9855SOL    HW239496  10.907   4.049   2.304  0.8383  0.7868 -0.4504
 9856SOL     OW39497   2.690   8.675  10.500  0.4008  0.2829  0.2096
 9856SOL    HW139498   2.748   8.621  10.553 -0.1469  0.4740  1.0214
 9856SOL    HW239499   2.620   8.702  10.560 -1.3042 -1.0638 -1.0551
 9857SOL     OW39500   2.017   3.835   5.150 -0.0503 -0.1200 -0.0165
 9857SOL    HW139501   2.006   3.899   5.080 -1.3501 -0.0453  0.2449
 9857SOL    HW239502   2.070   3.879   5.216  1.4898 -0.3014 -1.0671
 9858SOL     OW39503  11.607   6.970   9.541  0.1683 -0.1556  0.2084
 9858SOL    HW139504  11.548   6.939   9.610 -1.0490 -0.9900 -1.1477
 9858SOL    HW239505  11.566   7.051   9.510  0.4600 -0.0298  0.1498
 9859SOL     OW39506   3.825   3.187   1.796  0.0246  0.3366  0.1541
 9859SOL    HW139507   3.821   3.172   1.702 -0.6052  0.0588  0.2192
 9859SOL    HW239508   3.812   3.281   1.806  0.8025  0.4733 -0.0724
 9860SOL     OW39509   6.733  11.338  11.247 -0.0406  0.1445 -0.6433
 9860SOL    HW139510   6.774  11.389  11.177 -0.1518  0.2442 -0.6361
 9860SOL    HW239511   6.647  11.314  11.214 -0.0911  0.1857 -0.5440
 9861SOL     OW39512   8.454  12.844  12.313  0.0036 -0.1944 -0.6669
 9861SOL    HW139513   8.384  12.780  12.308  0.0021 -0.0911 -2.7148
 9861SOL    HW239514   8.436  12.905  12.242 -0.0204  2.1550  1.2373
 9862SOL     OW39515  13.044  13.209   8.522 -0.1138 -0.2562 -0.0316
 9862SOL    HW139516  13.082  13.130   8.482  1.0404  0.2303  0.0809
 9862SOL    HW239517  13.030  13.184   8.613 -2.6603 -1.3361 -0.6416
 9863SOL     OW39518  11.500  11.563   6.439 -0.2231 -0.0070  0.1178
 9863SOL    HW139519  11.536  11.485   6.398 -0.4094 -1.0090  1.7603
 9863SOL    HW239520  11.408  11.563   6.413  0.0549  0.4027 -0.9196
 9864SOL     OW39521   1.983   4.045   1.777  0.4893 -0.5653 -0.3989
 9864SOL    HW139522   1.889   4.030   1.767  0.1999  0.9262 -0.0798
 9864SOL    HW239523   2.024   3.973   1.729 -0.8052 -1.3515 -0.3708
 9865SOL     OW39524  10.852   7.641   2.374  0.4799  0.0499 -0.6814
 9865SOL    HW139525  10.836   7.547   2.365  0.3589  0.0666 -0.6340
 9865SOL    HW239526  10.858   7.656   2.468 -1.4246  0.4152 -0.5769
 9866SOL     OW39527   8.901  12.282   3.146 -0.5372 -0.1335 -0.2608
 9866SOL    HW139528   8.851  12.352   3.188 -0.3337  0.8507 -1.6004
 9866SOL    HW239529   8.881  12.291   3.053  1.6188 -0.0879 -0.7732
 9867SOL     OW39530   7.415  12.626   8.694  0.3032 -0.3226  0.5953
 9867SOL    HW139531   7.373  12.664   8.772  0.2175 -0.0398  0.4119
 9867SOL    HW239532   7.377  12.674   8.621 -0.5471 -1.4316  0.2859
 9868SOL     OW39533  11.172   6.338   3.536 -0.8718 -0.1700 -0.3614
 9868SOL    HW139534  11.093   6.365   3.582 -1.0190 -0.6710 -0.3134
 9868SOL    HW239535  11.162   6.243   3.525  0.5017 -0.5390  1.1698
 9869SOL     OW39536   7.969  12.903   6.672  0.2435  0.0105 -0.6342
 9869SOL    HW139537   8.055  12.943   6.660  1.5205 -2.3830 -0.1915
 9869SOL    HW239538   7.954  12.906   6.766  0.2486 -0.3362 -0.6219
 9870SOL     OW39539   0.867  12.298  10.651 -0.6126 -0.6223  0.5758
 9870SOL    HW139540   0.863  12.206  10.678 -2.5682 -1.5630 -2.3660
 9870SOL    HW239541   0.791  12.339  10.693 -0.9599 -0.9089  0.2377
 9871SOL     OW39542  13.240   6.698  10.751  0.3968 -0.8575  0.1187
 9871SOL    HW139543  13.208   6.789  10.750  0.4155 -0.8415 -1.1359
 9871SOL    HW239544  13.244   6.675  10.844 -0.7481  0.0229  0.4075
 9872SOL     OW39545   8.444   1.126   0.962  0.3356  0.2656 -0.1231
 9872SOL    HW139546   8.421   1.219   0.964  0.6353  0.3269  0.6649
 9872SOL    HW239547   8.361   1.081   0.979  0.6263  0.4739  2.2021
 9873SOL     OW39548  12.817   7.843   2.054  0.0072 -0.4348  0.5767
 9873SOL    HW139549  12.784   7.848   1.964 -0.0744  0.4420  0.6503
 9873SOL    HW239550  12.753   7.787   2.099 -0.8533  0.4449  0.4760
 9874SOL     OW39551  11.521   3.638   3.304 -0.0537 -0.1439  0.2716
 9874SOL    HW139552  11.448   3.664   3.247  0.3232  0.1187 -0.0969
 9874SOL    HW239553  11.486   3.565   3.355 -1.4009  1.5079  1.8852
 9875SOL     OW39554   5.073   5.358   6.390  0.2004  0.1530 -0.1170
 9875SOL    HW139555   4.984   5.336   6.364  0.4570  0.5097 -1.3658
 9875SOL    HW239556   5.064   5.398   6.477 -1.0567  1.8684 -0.9963
 9876SOL     OW39557   8.271   0.777   9.709 -0.3766 -0.4276  0.1049
 9876SOL    HW139558   8.330   0.743   9.643  0.3703  0.4471  0.3065
 9876SOL    HW239559   8.277   0.715   9.782  2.4732  1.0522  1.2700
 9877SOL     OW39560   0.130  13.201   3.206 -0.0971 -0.8468 -0.4510
 9877SOL    HW139561   0.053  13.252   3.230  0.3023 -0.4709  0.0477
 9877SOL    HW239562   0.203  13.264   3.212  0.2278 -1.1625 -1.0468
 9878SOL     OW39563   3.180   4.477   2.207 -0.3976 -0.2432 -0.1398
 9878SOL    HW139564   3.197   4.412   2.274  2.0032  1.4002  1.0028
 9878SOL    HW239565   3.235   4.451   2.133 -0.4590 -0.2299 -0.1907
 9879SOL     OW39566   8.262   8.546   6.308 -0.4837  0.2378 -0.9474
 9879SOL    HW139567   8.240   8.472   6.251  0.7145  1.2353 -2.7875
 9879SOL    HW239568   8.271   8.507   6.395 -2.3961 -1.3333 -1.3706
 9880SOL     OW39569   3.518  12.900   5.006 -0.5703 -0.2680  0.1260
 9880SOL    HW139570   3.606  12.931   4.985 -0.6257 -1.0368 -1.3948
 9880SOL    HW239571   3.465  12.979   5.015 -0.2447  0.1609 -1.4630
 9881SOL     OW39572   9.166   8.839  12.698 -0.8746  0.0805 -0.0820
 9881SOL    HW139573   9.181   8.933  12.688  0.9518 -0.2797 -0.9807
 9881SOL    HW239574   9.224   8.798  12.635 -0.6085 -1.7198  1.2478
 9882SOL     OW39575   0.748   7.063  11.008  0.1142  0.1200  0.0949
 9882SOL    HW139576   0.842   7.065  10.990 -0.2904  1.8829 -2.1925
 9882SOL    HW239577   0.711   7.134  10.955 -2.5262 -0.4982  0.9440
 9883SOL     OW39578   6.079   7.045  11.722 -0.8091  0.0978  0.3642
 9883SOL    HW139579   6.146   7.092  11.673  0.1563  0.1110  1.6494
 9883SOL    HW239580   5.996   7.081  11.690 -0.1971  0.5097 -0.8160
 9884SOL     OW39581   1.911   3.850   7.007  0.4964 -0.0504  0.1845
 9884SOL    HW139582   1.897   3.865   6.914  1.2170 -2.7337 -0.4198
 9884SOL    HW239583   1.988   3.794   7.012 -0.5409 -1.4321  2.2655
 9885SOL     OW39584   3.500   1.096   3.656 -0.3985  0.3738  0.5434
 9885SOL    HW139585   3.473   1.063   3.742 -3.7666  1.1169 -0.0801
 9885SOL    HW239586   3.433   1.065   3.596  0.9076  1.3364 -1.5455
 9886SOL     OW39587   1.845   0.629   9.943  0.2825 -1.0729  0.3665
 9886SOL    HW139588   1.924   0.669   9.906  0.5290 -3.2149 -1.6844
 9886SOL    HW239589   1.865   0.619  10.036  0.9359  1.6496  0.6020
 9887SOL     OW39590   8.125   0.996   3.982  0.1569  0.7179  0.1529
 9887SOL    HW139591   8.169   0.957   3.906  0.4919  1.0487  0.1774
 9887SOL    HW239592   8.194   1.010   4.046  0.2825  2.4858 -0.3159
 9888SOL     OW39593   0.345   9.871   0.316 -0.4925  0.1287 -0.0733
 9888SOL    HW139594   0.312   9.783   0.331  2.3062 -0.7850  1.3714
 9888SOL    HW239595   0.294   9.926   0.376 -1.7315 -0.5892 -0.4268
 9889SOL     OW39596   3.595   4.050  13.264  0.1453 -0.1375  0.2133
 9889SOL    HW139597   3.620   4.032  13.355 -1.4428  0.5606  0.8330
 9889SOL    HW239598   3.500   4.040  13.263 -0.0422  1.3818 -0.9919
 9890SOL     OW39599   3.760   9.104   6.652  0.3309 -0.2517  0.4883
 9890SOL    HW139600   3.833   9.125   6.710  1.6799  1.5863 -1.7061
 9890SOL    HW239601   3.727   9.189   6.623 -3.0629 -1.0075  1.7050
 9891SOL     OW39602   3.453   9.546   2.447 -0.1575  0.1992  0.6334
 9891SOL    HW139603   3.418   9.578   2.364 -0.8811  1.0023  1.2274
 9891SOL    HW239604   3.534   9.596   2.459  0.2297 -0.3018  0.1688
 9892SOL     OW39605   5.647   0.552   8.235 -0.0508  0.4955 -0.1795
 9892SOL    HW139606   5.681   0.597   8.312 -0.7261 -2.5918  2.0881
 9892SOL    HW239607   5.552   0.564   8.241 -0.2912 -1.4720  0.7523
 9893SOL     OW39608   0.458   0.495  13.091 -0.1899 -0.0721  0.1947
 9893SOL    HW139609   0.408   0.420  13.058  0.7822 -0.1818 -1.0912
 9893SOL    HW239610   0.549   0.465  13.092  0.0172  0.5239  1.3586
 9894SOL     OW39611   6.745   6.956   8.208  0.0920  0.0762 -0.3274
 9894SOL    HW139612   6.822   6.979   8.157  2.6563 -0.8268  2.8012
 9894SOL    HW239613   6.735   6.862   8.195 -0.0975  0.0878 -0.2651
 9895SOL     OW39614  11.018   9.342   7.001 -0.3845  0.0101 -0.2778
 9895SOL    HW139615  11.112   9.356   6.992 -0.4700  2.7926  1.8186
 9895SOL    HW239616  10.989   9.319   6.912  1.8826  2.0386 -1.6803
 9896SOL     OW39617   2.309   7.452   2.642 -0.3284 -0.2818 -0.0863
 9896SOL    HW139618   2.281   7.544   2.647  0.7321  0.0093  4.0835
 9896SOL    HW239619   2.228   7.402   2.636 -1.1174  0.8685  0.5323
 9897SOL     OW39620  12.035   2.892   3.903  0.0045  0.1754  0.4590
 9897SOL    HW139621  12.046   2.804   3.868 -0.9635  0.0674  0.4247
 9897SOL    HW239622  12.093   2.894   3.980  0.1312 -0.4380  0.3842
 9898SOL     OW39623   0.512  11.086  11.516  0.4077 -0.0743  0.1330
 9898SOL    HW139624   0.565  11.152  11.471  0.5682  0.9050  1.6615
 9898SOL    HW239625   0.490  11.127  11.600 -3.5928 -0.0162 -0.7310
 9899SOL     OW39626   0.273   3.409  11.496 -0.0438  0.3722  0.0036
 9899SOL    HW139627   0.243   3.347  11.563 -1.6829 -0.6224 -1.5451
 9899SOL    HW239628   0.192   3.438  11.454  0.8634  1.9805 -0.7051
 9900SOL     OW39629  10.177   9.004   9.451 -0.5762 -0.1829  0.1412
 9900SOL    HW139630  10.213   8.916   9.436 -0.8203 -0.1693 -0.5640
 9900SOL    HW239631  10.136   9.028   9.368  0.4863  1.0694 -0.0641
 9901SOL     OW39632   2.595   1.572  12.425 -0.1987  0.8426 -0.7348
 9901SOL    HW139633   2.635   1.522  12.496  0.3586  0.1239 -1.5311
 9901SOL    HW239634   2.518   1.522  12.400 -0.7160  1.3952 -0.2618
 9902SOL     OW39635  11.367   8.415   0.679  0.3451 -0.2849 -0.1296
 9902SOL    HW139636  11.428   8.438   0.749  1.9303 -0.0155 -1.5609
 9902SOL    HW239637  11.384   8.478   0.610 -2.5841  0.7395 -0.0617
 9903SOL     OW39638   6.775  11.503  11.445  0.2595  0.1760  0.4229
 9903SOL    HW139639   6.764  11.430  11.384  2.2723  0.4198 -0.3022
 9903SOL    HW239640   6.849  11.477  11.500  2.5036  2.4942 -1.2656
 9904SOL     OW39641   4.395   2.343  12.303  0.0824 -0.0976 -0.2022
 9904SOL    HW139642   4.369   2.257  12.270 -0.4642  0.4272 -1.1732
 9904SOL    HW239643   4.435   2.325  12.389 -1.1482 -1.1813  0.1675
 9905SOL     OW39644  13.053   8.206   3.479 -0.0602 -0.2483  0.1924
 9905SOL    HW139645  13.125   8.151   3.509  1.2736  1.2008 -0.2455
 9905SOL    HW239646  13.079   8.233   3.391 -2.4356 -1.8776 -1.1295
 9906SOL     OW39647  11.955   2.607   6.261  0.9576  0.4499 -0.0354
 9906SOL    HW139648  12.020   2.640   6.200  2.1440 -2.6947 -0.6828
 9906SOL    HW239649  11.879   2.588   6.205  1.0125  0.2490 -0.0448
 9907SOL     OW39650   4.136   1.706  10.603 -0.4555 -0.6606  0.7858
 9907SOL    HW139651   4.077   1.765  10.556 -0.7940 -1.3830  0.2850
 9907SOL    HW239652   4.154   1.635  10.541 -0.0769 -1.1036  1.3834
 9908SOL     OW39653   3.548  12.776   0.676  0.3492  0.0233  0.1213
 9908SOL    HW139654   3.534  12.683   0.661  0.6466  0.2555 -1.9167
 9908SOL    HW239655   3.477  12.819   0.629  0.5367  0.8540  0.5753
 9909SOL     OW39656  12.182   7.713  10.865 -0.7615 -0.2660  0.3365
 9909SOL    HW139657  12.259   7.701  10.920  0.2249  0.1112 -0.8973
 9909SOL    HW239658  12.159   7.806  10.876 -0.7029 -0.2461  0.2921
 9910SOL     OW39659  10.626   4.166   8.527  0.2859 -0.4805 -0.0355
 9910SOL    HW139660  10.621   4.238   8.464 -1.8420 -0.5007  0.0399
 9910SOL    HW239661  10.679   4.100   8.484  1.0146  0.5260 -0.7294
 9911SOL     OW39662   4.752   3.789   3.854 -0.0190 -0.3440  0.6551
 9911SOL    HW139663   4.691   3.715   3.857  0.4306 -0.7195  0.6002
 9911SOL    HW239664   4.836   3.752   3.881  0.8504 -0.5003 -2.0222
 9912SOL     OW39665   2.019   9.275   1.905 -0.7422 -0.0913 -0.1442
 9912SOL    HW139666   2.059   9.290   1.819 -0.8416  0.1397 -0.1494
 9912SOL    HW239667   1.934   9.237   1.885 -2.4383  3.4126 -0.3239
 9913SOL     OW39668  11.534   8.056   7.415 -0.4911  0.0032  0.4440
 9913SOL    HW139669  11.565   8.134   7.369  0.0383 -0.8950 -0.7916
 9913SOL    HW239670  11.478   8.089   7.485 -0.2158  1.4827 -0.0100
 9914SOL     OW39671  11.724   2.425   2.674  0.2572 -0.1460  0.1358
 9914SOL    HW139672  11.813   2.438   2.642 -0.2585  0.1603 -1.2816
 9914SOL    HW239673  11.721   2.333   2.700  0.3557 -0.8559 -2.1142
 9915SOL     OW39674   5.644  11.652   4.631 -0.0044 -0.1977 -0.6141
 9915SOL    HW139675   5.728  11.625   4.669  0.3590 -3.2513 -3.1661
 9915SOL    HW239676   5.579  11.628   4.697  0.8891 -0.7392  0.0919
 9916SOL     OW39677   2.281   7.285   5.591  0.7235 -0.3876 -0.0051
 9916SOL    HW139678   2.346   7.214   5.591  0.1008 -1.0602 -2.3752
 9916SOL    HW239679   2.223   7.264   5.664  0.4300 -2.5202 -0.7746
 9917SOL     OW39680  10.134   6.561   3.824 -0.7225  0.4984 -0.8131
 9917SOL    HW139681  10.181   6.549   3.907  2.1353  2.0044 -2.0646
 9917SOL    HW239682  10.048   6.592   3.850 -0.1295  0.3455  1.6055
 9918SOL     OW39683  13.234   8.813   8.692 -0.2883 -0.3402 -0.0683
 9918SOL    HW139684  13.255   8.812   8.599 -0.0812 -0.1797 -0.0260
 9918SOL    HW239685  13.267   8.898   8.723  1.5279 -1.2105  0.5680
 9919SOL     OW39686   9.413   0.621   7.105 -0.1150  0.2991 -0.2788
 9919SOL    HW139687   9.503   0.588   7.109 -0.5894 -1.0087  1.2727
 9919SOL    HW239688   9.382   0.597   7.018  1.2244  1.3436 -1.0652
 9920SOL     OW39689   6.706   5.542   3.813 -0.2737  0.0496 -0.2209
 9920SOL    HW139690   6.614   5.565   3.800 -0.6720 -1.2140  0.2691
 9920SOL    HW239691   6.754   5.623   3.796 -1.5964  1.1822  1.2256
 9921SOL     OW39692   9.986   9.602   4.930  0.2963 -0.1930  0.6138
 9921SOL    HW139693   9.931   9.553   4.991  0.1905 -0.6003  0.1948
 9921SOL    HW239694  10.075   9.573   4.949  0.1461 -1.2685 -0.2848
 9922SOL     OW39695   2.693  10.271   4.616 -0.4508  0.0262  0.4316
 9922SOL    HW139696   2.673  10.199   4.557 -1.0268 -1.4287  2.3026
 9922SOL    HW239697   2.768  10.316   4.576 -3.4900  1.9953 -3.7474
 9923SOL     OW39698  13.138  11.012   0.957 -0.2077  0.4572 -0.2340
 9923SOL    HW139699  13.123  10.920   0.934 -2.4345  0.6186  0.2891
 9923SOL    HW239700  13.050  11.046   0.976  0.7283  2.2886  1.1245
 9924SOL     OW39701   6.779   1.798  10.501  0.4388  0.0980 -0.1886
 9924SOL    HW139702   6.739   1.736  10.561  2.5370 -0.6111  0.5714
 9924SOL    HW239703   6.725   1.877  10.508 -1.2087 -1.0246  0.1910
 9925SOL     OW39704  11.475  10.199   2.096  0.2307  0.1983  0.0348
 9925SOL    HW139705  11.514  10.249   2.024  0.2621 -0.2922 -0.2949
 9925SOL    HW239706  11.549  10.164   2.144  0.2043 -0.3756 -0.3371
 9926SOL     OW39707   1.079  10.476   6.843 -1.3643  0.6958 -0.1028
 9926SOL    HW139708   1.162  10.473   6.889 -1.9633 -1.3990  1.0043
 9926SOL    HW239709   1.103  10.487   6.751  0.0913  0.7913  0.2629
 9927SOL     OW39710   5.756  12.625   0.875  0.4042 -0.2985 -0.1644
 9927SOL    HW139711   5.794  12.706   0.909 -0.8499  0.2492 -0.0130
 9927SOL    HW239712   5.802  12.555   0.921  1.6509  0.3142 -0.4561
 9928SOL     OW39713   1.275   8.753   4.013 -0.0975 -0.4256  0.6923
 9928SOL    HW139714   1.257   8.847   4.019  1.1049 -0.2245  1.3488
 9928SOL    HW239715   1.200   8.712   4.056 -1.1538  0.1604 -0.5084
 9929SOL     OW39716  12.119   1.400   1.015 -0.0063  0.0520  0.4967
 9929SOL    HW139717  12.195   1.454   0.995 -0.2432  0.8244  1.5649
 9929SOL    HW239718  12.131   1.375   1.107  0.3106 -2.1112 -0.0926
 9930SOL     OW39719   4.712   7.445   2.166  0.2408  0.2892  0.2896
 9930SOL    HW139720   4.716   7.391   2.088 -0.5141 -0.4732  0.7546
 9930SOL    HW239721   4.802   7.475   2.180  0.4373  0.1721 -0.6774
 9931SOL     OW39722  11.086   1.865   5.711  0.0348 -0.0550  0.4871
 9931SOL    HW139723  11.001   1.907   5.693  0.1416  0.2253  0.6285
 9931SOL    HW239724  11.068   1.772   5.703 -0.6857 -0.0960  2.1480
 9932SOL     OW39725   0.619   1.566   2.786  0.0613 -0.4659  0.0427
 9932SOL    HW139726   0.699   1.619   2.791  0.6259 -1.3431  1.2514
 9932SOL    HW239727   0.607   1.535   2.876 -0.5200 -1.9465 -0.5192
 9933SOL     OW39728   6.094   5.841   2.422  0.5314 -0.1274 -0.2690
 9933SOL    HW139729   6.016   5.892   2.441  0.5757  0.3354 -1.2739
 9933SOL    HW239730   6.097   5.774   2.491 -0.6251 -0.0158 -0.1010
 9934SOL     OW39731   4.766   0.907   4.940 -0.1123 -0.2148  0.2867
 9934SOL    HW139732   4.703   0.956   4.994 -0.5508  0.9382 -1.1971
 9934SOL    HW239733   4.713   0.843   4.893  0.1503 -0.6523  0.5737
 9935SOL     OW39734  10.196   2.632   0.750 -0.0280 -0.3350  0.1998
 9935SOL    HW139735  10.253   2.576   0.803 -1.6761 -1.4234  0.9036
 9935SOL    HW239736  10.235   2.719   0.757  1.5280 -1.0332  0.6429
 9936SOL     OW39737   1.348   4.023   7.737  0.4114 -0.7338 -0.6678
 9936SOL    HW139738   1.380   3.952   7.682  0.5813  0.8368 -2.7142
 9936SOL    HW239739   1.329   4.094   7.676 -0.1460  0.8517  1.2414
 9937SOL     OW39740  12.988   0.441   8.590 -0.0650 -0.0073  0.2074
 9937SOL    HW139741  13.000   0.516   8.649 -0.7979 -0.9345  1.5852
 9937SOL    HW239742  13.058   0.380   8.614  0.3097  0.0591 -0.6616
 9938SOL     OW39743   6.110   8.704   6.139  0.4274 -0.2266 -0.3849
 9938SOL    HW139744   6.188   8.697   6.194  1.3602  0.8695 -1.4819
 9938SOL    HW239745   6.077   8.614   6.131  1.5320 -0.6961  0.1828
 9939SOL     OW39746  12.665   1.817  10.298 -0.2999 -0.3302  0.1769
 9939SOL    HW139747  12.665   1.912  10.309  3.3223  0.2387 -2.9203
 9939SOL    HW239748  12.651   1.804  10.204 -1.1940 -2.9440  0.5989
 9940SOL     OW39749   2.361  12.439   1.028  0.5792  0.2958 -0.2917
 9940SOL    HW139750   2.438  12.387   1.008  0.6643  0.7809 -1.2807
 9940SOL    HW239751   2.337  12.479   0.945 -1.2256 -0.4935 -0.2085
 9941SOL     OW39752  11.703   1.263  12.709 -0.0109  0.9808 -0.3141
 9941SOL    HW139753  11.644   1.331  12.743 -1.1445  0.4398 -1.1417
 9941SOL    HW239754  11.667   1.181  12.743  0.6121  0.6814 -0.3661
 9942SOL     OW39755   3.267   4.649   3.388 -0.2627  0.4044 -0.3749
 9942SOL    HW139756   3.186   4.684   3.426  0.2894  2.9031 -1.2927
 9942SOL    HW239757   3.249   4.641   3.295  0.2689  0.0931 -0.4567
 9943SOL     OW39758   3.647   9.596  10.479 -0.0412 -0.2912 -0.2422
 9943SOL    HW139759   3.603   9.535  10.539 -1.0142  1.0410  0.4550
 9943SOL    HW239760   3.576   9.650  10.444  0.9193  1.4334  0.3299
 9944SOL     OW39761  11.704  11.840  11.044  0.7562  0.3746 -0.1945
 9944SOL    HW139762  11.644  11.903  11.084  0.7361  0.0547  0.2922
 9944SOL    HW239763  11.734  11.882  10.964  1.0772  1.1785  0.3468
 9945SOL     OW39764   3.176  12.599   4.345 -0.9980 -0.0936  0.1471
 9945SOL    HW139765   3.156  12.587   4.252 -1.2315 -1.3035  0.3458
 9945SOL    HW239766   3.234  12.526   4.367  0.2972  1.0104  0.6077
 9946SOL     OW39767   4.838  12.828   2.864 -0.9693 -0.0986  0.0786
 9946SOL    HW139768   4.889  12.816   2.784 -1.8393 -0.4556 -0.4301
 9946SOL    HW239769   4.793  12.744   2.877 -0.9515  0.0026  0.8637
 9947SOL     OW39770   2.554   9.756  12.435 -0.5074  0.6646 -0.0495
 9947SOL    HW139771   2.569   9.790  12.347 -4.1703  1.2595 -0.5922
 9947SOL    HW239772   2.524   9.666  12.420 -0.6290  0.5916  0.6344
 9948SOL     OW39773   0.295   8.435   9.694 -0.4151  0.0289  0.0953
 9948SOL    HW139774   0.346   8.356   9.712 -0.3443  0.2010  0.6796
 9948SOL    HW239775   0.208   8.416   9.729  0.0508  0.8169  1.7914
 9949SOL     OW39776   5.269   4.701   2.004  0.0103  1.1346  0.0062
 9949SOL    HW139777   5.218   4.712   2.085  1.1025 -0.0244  0.8760
 9949SOL    HW239778   5.336   4.769   2.008 -1.5259  2.8482 -1.2758
 9950SOL     OW39779  11.478   8.080   5.375  0.5879  0.3059  0.4112
 9950SOL    HW139780  11.512   8.083   5.285 -0.2176 -1.6268 -0.0094
 9950SOL    HW239781  11.444   8.168   5.390  0.3514  0.5608 -1.3484
 9951SOL     OW39782   4.193   7.990   8.840  0.0537 -0.4696 -0.2019
 9951SOL    HW139783   4.119   7.941   8.804  0.8835 -0.9268 -1.3217
 9951SOL    HW239784   4.255   7.922   8.868  0.1053 -0.0865  0.6443
 9952SOL     OW39785  12.606   0.792   1.164  0.6024  0.4299  0.5561
 9952SOL    HW139786  12.656   0.874   1.164 -1.4720  1.9433 -3.2545
 9952SOL    HW239787  12.515   0.819   1.176 -0.1046 -1.3790 -0.3922
 9953SOL     OW39788   7.831  12.796   9.861  0.1165  0.3572 -0.7282
 9953SOL    HW139789   7.786  12.813   9.778  1.6989  0.3512 -1.6204
 9953SOL    HW239790   7.893  12.868   9.870  0.4167 -0.0003  0.1310
 9954SOL     OW39791  12.278  12.673  10.602  0.7255  0.0826 -0.4275
 9954SOL    HW139792  12.269  12.651  10.694 -0.9239 -0.1215 -0.5999
 9954SOL    HW239793  12.361  12.633  10.575  0.6936 -0.7882  0.7079
 9955SOL     OW39794  10.497  11.998   4.859  0.5833 -0.2222 -0.3012
 9955SOL    HW139795  10.592  11.997   4.875  0.5790  0.5076 -0.2036
 9955SOL    HW239796  10.489  11.987   4.765  0.6839 -2.2741 -0.1185
 9956SOL     OW39797   5.158   7.109   4.561  0.6745 -0.5945  0.4073
 9956SOL    HW139798   5.131   7.201   4.557 -0.5154 -0.8913  1.1965
 9956SOL    HW239799   5.184   7.095   4.652  3.2743 -0.4229 -0.2288
 9957SOL     OW39800   7.933   8.775   4.572  0.5055 -0.3703 -0.2649
 9957SOL    HW139801   7.979   8.805   4.651  0.6440 -0.7591 -0.1965
 9957SOL    HW239802   7.984   8.699   4.542  1.0042  0.3342 -1.2718
 9958SOL     OW39803   1.018   3.096   1.029 -0.4631  0.2152 -0.4580
 9958SOL    HW139804   0.941   3.072   0.978 -1.1413  0.0457  0.6252
 9958SOL    HW239805   1.088   3.040   0.994 -0.9293  0.0610 -1.1535
 9959SOL     OW39806   7.039  11.317   2.701  0.2299 -0.1757  0.7785
 9959SOL    HW139807   6.987  11.271   2.634 -0.0911 -2.2050  2.3108
 9959SOL    HW239808   7.110  11.256   2.722  1.8186  1.5075  0.5247
 9960SOL     OW39809  10.692   3.795  12.796  0.8646  0.3372 -0.3678
 9960SOL    HW139810  10.735   3.745  12.866  1.4947  0.3232 -0.7597
 9960SOL    HW239811  10.697   3.886  12.826 -2.7641  0.0695  1.7303
 9961SOL     OW39812   7.198   7.471   1.745  0.0604 -0.3291 -0.6699
 9961SOL    HW139813   7.277   7.440   1.788 -0.0021  0.9499  0.4445
 9961SOL    HW239814   7.126   7.432   1.795 -0.0110  1.0033  0.3201
 9962SOL     OW39815  12.475   4.309   2.803 -0.4627  0.0748  0.2764
 9962SOL    HW139816  12.445   4.341   2.888 -0.2497  2.0327 -0.3235
 9962SOL    HW239817  12.490   4.216   2.816 -3.2643 -0.3016  1.6019
 9963SOL     OW39818  10.677   8.861   6.413 -0.2328 -0.0725 -0.4214
 9963SOL    HW139819  10.656   8.955   6.409 -0.3464 -0.1404 -2.7121
 9963SOL    HW239820  10.768   8.859   6.443 -0.3398  0.7286  0.0157
 9964SOL     OW39821   8.495   0.151   5.694 -0.6712  0.4228 -0.6750
 9964SOL    HW139822   8.564   0.097   5.732  0.3968  2.6974  0.8981
 9964SOL    HW239823   8.449   0.188   5.769 -1.9396  0.9594 -1.6764
 9965SOL     OW39824  10.276   9.941   6.143 -0.5943 -0.2574 -0.0842
 9965SOL    HW139825  10.282   9.855   6.186 -0.7005  0.2711  1.0155
 9965SOL    HW239826  10.366   9.959   6.113 -0.4588 -0.5080  0.1661
 9966SOL     OW39827   2.224  11.558   4.948 -0.0562  0.0003  0.1084
 9966SOL    HW139828   2.199  11.645   4.981  0.5078  1.3520 -2.6825
 9966SOL    HW239829   2.187  11.555   4.860  1.4757 -1.8694 -0.5355
 9967SOL     OW39830  12.885   0.220   3.686 -0.0885  0.6857 -0.1353
 9967SOL    HW139831  12.825   0.294   3.695 -0.8368  0.0417  0.3014
 9967SOL    HW239832  12.880   0.174   3.770 -0.2585 -0.3110 -0.6706
 9968SOL     OW39833  13.143   4.644   4.742 -0.3588 -0.4672  0.2955
 9968SOL    HW139834  13.084   4.569   4.733  1.3915 -1.9432  0.6112
 9968SOL    HW239835  13.225   4.606   4.772  0.6324  1.5871  0.3101
 9969SOL     OW39836  10.181   4.736   5.674  0.3389  0.4042 -0.1175
 9969SOL    HW139837  10.204   4.799   5.742  0.9512  1.2692 -1.1008
 9969SOL    HW239838  10.109   4.686   5.712  1.5072 -0.0236  1.6843
 9970SOL     OW39839   7.554  11.498   5.798  0.0739 -0.5692  0.4543
 9970SOL    HW139840   7.611  11.567   5.763  0.7038 -1.8132 -1.1412
 9970SOL    HW239841   7.466  11.525   5.772  0.3093 -0.3316 -0.1275
 9971SOL     OW39842   0.606   4.417  11.713 -0.3388  0.4291 -0.0801
 9971SOL    HW139843   0.685   4.469  11.695 -0.0102  0.3223  0.9985
 9971SOL    HW239844   0.534   4.474  11.687  0.0460  1.1213  0.3414
 9972SOL     OW39845   9.613   4.099  11.072  0.2813 -0.1165 -0.4785
 9972SOL    HW139846   9.627   4.069  11.162  1.4591  0.7739 -0.3475
 9972SOL    HW239847   9.553   4.034  11.035 -1.2873  0.1939  1.3324
 9973SOL     OW39848   4.025  11.731   7.203  0.2342 -0.1479 -0.0831
 9973SOL    HW139849   4.099  11.762   7.256  1.9733 -0.0219 -2.4209
 9973SOL    HW239850   4.036  11.636   7.199  0.1467 -0.1507 -0.2671
 9974SOL     OW39851  12.016   6.007   4.072 -0.9285  0.0233 -0.0084
 9974SOL    HW139852  12.110   6.022   4.061 -0.8820  0.0047  0.3340
 9974SOL    HW239853  12.004   5.913   4.057 -1.1630  0.3019 -1.7778
 9975SOL     OW39854   0.357   2.475   7.997  0.1719  0.4095  0.4667
 9975SOL    HW139855   0.414   2.552   7.997  1.2194 -0.3236 -0.7776
 9975SOL    HW239856   0.398   2.415   7.935 -0.6382 -1.1452  1.3755
 9976SOL     OW39857   5.643  13.191   9.381 -0.2567  0.2005 -0.1981
 9976SOL    HW139858   5.561  13.202   9.334  0.0622  1.4681 -0.4782
 9976SOL    HW239859   5.617  13.180   9.473 -0.7690 -0.3285 -0.3970
 9977SOL     OW39860   8.412   9.300   7.746  0.0701 -0.1920  0.1529
 9977SOL    HW139861   8.474   9.243   7.701 -0.1794  1.5495 -2.6141
 9977SOL    HW239862   8.326   9.266   7.721 -0.0750  0.3893 -0.1517
 9978SOL     OW39863  10.796   8.042   5.891  0.0667  0.3421 -0.2938
 9978SOL    HW139864  10.821   8.089   5.970  1.2878  1.4630 -1.3079
 9978SOL    HW239865  10.848   7.962   5.892 -2.3565 -1.3906  1.6773
 9979SOL     OW39866   2.820  10.809   9.898  0.3441 -1.0510 -0.7959
 9979SOL    HW139867   2.838  10.903   9.886  0.4332 -1.0363 -0.5556
 9979SOL    HW239868   2.741  10.808   9.952  0.6272 -1.1115 -0.3758
 9980SOL     OW39869   1.904   9.666   2.983 -0.0731  0.2577 -0.1586
 9980SOL    HW139870   1.885   9.639   3.073 -1.3391  0.3208 -0.3828
 9980SOL    HW239871   1.864   9.598   2.929  1.7403 -0.4314 -0.6918
 9981SOL     OW39872   9.977   1.241  12.967  0.5413  0.0067 -0.2956
 9981SOL    HW139873  10.018   1.224  13.052 -1.3215 -0.9073  0.4938
 9981SOL    HW239874   9.950   1.155  12.936 -2.0809  0.6485 -0.0135
 9982SOL     OW39875   8.559   6.370   0.930  0.3375  0.1970  0.3725
 9982SOL    HW139876   8.623   6.333   0.992  0.2810 -0.8543 -0.1669
 9982SOL    HW239877   8.593   6.456   0.909  1.3867 -0.1946  0.3882
 9983SOL     OW39878   7.399   7.504  12.342  0.2881 -0.1849 -0.1619
 9983SOL    HW139879   7.472   7.536  12.395  0.3725 -1.4044  0.4870
 9983SOL    HW239880   7.321   7.521  12.394 -0.2155  3.1564 -1.7739
 9984SOL     OW39881   4.159   2.928   3.449 -0.0931 -0.2944  0.1417
 9984SOL    HW139882   4.112   3.002   3.411  0.4981  0.6123  1.1064
 9984SOL    HW239883   4.099   2.891   3.514 -0.2482 -0.4291 -0.0788
 9985SOL     OW39884   2.159   4.720   0.944 -0.2040  0.1985 -0.2023
 9985SOL    HW139885   2.137   4.748   0.855 -1.8237  1.3448  0.5123
 9985SOL    HW239886   2.205   4.795   0.982 -0.2018  0.0134  0.1602
 9986SOL     OW39887   5.092   8.043   1.600  0.6435 -0.4921  0.1931
 9986SOL    HW139888   5.142   8.032   1.519 -3.0913 -0.7997 -2.2866
 9986SOL    HW239889   5.068   7.954   1.625 -1.5993 -0.2295 -0.7898
 9987SOL     OW39890   3.292  10.996  11.983  0.1902  0.2157  0.0018
 9987SOL    HW139891   3.365  10.947  11.945 -0.0605  0.4035 -0.7366
 9987SOL    HW239892   3.275  10.952  12.066  0.2918 -0.6606 -0.4190
 9988SOL     OW39893   7.602   7.974   7.089 -0.4107 -0.1235  0.4133
 9988SOL    HW139894   7.617   7.880   7.101  2.1083  0.0347 -1.0242
 9988SOL    HW239895   7.560   7.981   7.004  0.1168  0.1039  0.1712
 9989SOL     OW39896   4.132  10.956  11.379 -0.3941  0.6263 -0.3024
 9989SOL    HW139897   4.083  11.006  11.445 -1.6545 -1.4532  0.4432
 9989SOL    HW239898   4.064  10.913  11.326  0.6223 -0.2629 -0.9170
 9990SOL     OW39899  10.565   8.804   8.924  0.0207  0.0193 -0.1671
 9990SOL    HW139900  10.546   8.781   8.833  0.6334  0.2890 -0.3632
 9990SOL    HW239901  10.491   8.858   8.951 -0.3504 -0.3732 -0.3841
 9991SOL     OW39902   8.560  12.356  12.677  0.0874 -0.3265 -0.1206
 9991SOL    HW139903   8.496  12.424  12.657 -0.7043 -0.9700  0.1544
 9991SOL    HW239904   8.637  12.379  12.626 -0.0124  1.0078  0.3100
 9992SOL     OW39905   0.571   5.067   4.768 -0.4680 -0.0089 -0.3466
 9992SOL    HW139906   0.478   5.054   4.788 -0.6745  1.5618 -0.1091
 9992SOL    HW239907   0.583   5.027   4.682 -1.3359 -0.3425 -0.3202
 9993SOL     OW39908   3.980   7.334   8.330 -0.1927  0.1727  0.3396
 9993SOL    HW139909   4.033   7.413   8.339 -0.2535  0.4214 -1.2114
 9993SOL    HW239910   3.918   7.355   8.261 -2.8058  0.1151  2.4963
 9994SOL     OW39911   2.445   6.766   0.227  0.5820 -0.6341 -0.4599
 9994SOL    HW139912   2.460   6.737   0.316  0.3882 -1.3792 -0.6644
 9994SOL    HW239913   2.497   6.847   0.219  1.2611 -1.0062  0.0651
 9995SOL     OW39914   2.449  12.870   1.479  0.5997 -0.0034 -0.0232
 9995SOL    HW139915   2.518  12.842   1.420 -0.0619  1.0027 -1.3208
 9995SOL    HW239916   2.414  12.950   1.440 -0.9525 -0.1943  0.8763
 9996SOL     OW39917   1.987  12.479   9.723  0.1128  0.0289  0.2589
 9996SOL    HW139918   1.928  12.536   9.674 -0.6733  0.6334  1.8429
 9996SOL    HW239919   2.073  12.522   9.717 -0.0148  0.2042 -0.3777
 9997SOL     OW39920  11.236  12.531  12.431  0.0106  0.1384  0.1568
 9997SOL    HW139921  11.241  12.436  12.438  1.2570  0.1766 -0.0267
 9997SOL    HW239922  11.218  12.561  12.520  0.6601 -0.2148  0.4141
 9998SOL     OW39923   1.765   8.592  11.223 -0.2972  0.3831  0.2591
 9998SOL    HW139924   1.683   8.553  11.254  0.6795 -2.0641 -0.0182
 9998SOL    HW239925   1.744   8.624  11.135 -0.9794 -0.0645  0.2529
 9999SOL     OW39926   4.215  11.712   6.928  0.3503  0.3790 -0.4339
 9999SOL    HW139927   4.175  11.633   6.965 -0.0430  0.7789  0.0117
 9999SOL    HW239928   4.158  11.736   6.855 -1.1824  1.8324  1.1433
10000SOL     OW39929   7.315  10.096   0.042  0.2009  0.8655  0.0442
10000SOL    HW139930   7.410  10.088   0.037  0.0796 -1.3038  0.2586
10000SOL    HW239931   7.297  10.112   0.135  0.3336  0.8232  0.0775
10001SOL     OW39932  11.519   0.032   5.892  0.5738  0.2601 -0.2946
10001SOL    HW139933  11.542  -0.061   5.889 -0.9233 -0.1061 -2.7769
10001SOL    HW239934  11.448   0.042   5.829  1.5214  3.3214 -1.0806
10002SOL     OW39935  12.497   7.586   0.720 -0.3459 -0.2560 -0.1917
10002SOL    HW139936  12.538   7.553   0.800  0.2425  0.2173 -0.2916
10002SOL    HW239937  12.559   7.650   0.686  0.3619 -1.8464 -2.0942
10003SOL     OW39938   5.727  10.408   0.832 -0.5936 -0.1543  0.1381
10003SOL    HW139939   5.686  10.329   0.795 -0.4800 -0.3224  0.3678
10003SOL    HW239940   5.670  10.479   0.805  0.3595 -0.0597 -1.8013
10004SOL     OW39941   2.251  11.887   8.024 -0.5035 -0.1409 -0.2538
10004SOL    HW139942   2.209  11.805   7.998 -1.1993  0.2613 -0.4365
10004SOL    HW239943   2.202  11.915   8.101  2.2825 -1.9250  2.3772
10005SOL     OW39944   9.021   6.557   4.112  0.7708 -0.1050 -0.0285
10005SOL    HW139945   9.043   6.497   4.041 -1.5929  0.0558 -0.9897
10005SOL    HW239946   9.039   6.508   4.192 -1.9021 -2.5710 -0.7650
10006SOL     OW39947   1.163   6.177  11.821  0.3031  0.4067  0.2400
10006SOL    HW139948   1.142   6.167  11.728  1.3323  0.3507 -0.0019
10006SOL    HW239949   1.160   6.088  11.856  0.6462  0.3346  0.0903
10007SOL     OW39950  11.241   8.459  12.244  0.6754  0.0260 -0.1044
10007SOL    HW139951  11.162   8.485  12.291  0.5720 -0.3270 -0.0806
10007SOL    HW239952  11.291   8.540  12.234  0.0983  0.3353 -0.5176
10008SOL     OW39953   8.173   6.615  11.971  0.1265  0.1252  0.1265
10008SOL    HW139954   8.108   6.673  11.932 -0.4335  0.3871  1.4126
10008SOL    HW239955   8.128   6.532  11.981  0.0955  0.2110  0.7117
10009SOL     OW39956  11.330   2.256  10.027 -0.3127 -0.4113 -0.2340
10009SOL    HW139957  11.416   2.284  10.059  0.0936 -0.6541 -1.0913
10009SOL    HW239958  11.350   2.191   9.960 -1.1271  0.3380 -1.2312
10010SOL     OW39959  10.749   6.235   8.317  0.5939  0.4493  0.8787
10010SOL    HW139960  10.718   6.174   8.250 -0.0567  1.7812 -0.0746
10010SOL    HW239961  10.842   6.244   8.299  0.5531  0.2903  0.5747
10011SOL     OW39962   8.921  13.023   1.254 -0.1435 -0.0140 -0.0552
10011SOL    HW139963   8.850  12.961   1.244 -1.6887  1.2227  2.3089
10011SOL    HW239964   8.896  13.097   1.198  0.4645 -0.4785 -0.9669
10012SOL     OW39965   3.979  12.619  12.952  0.5825 -0.5534  0.1211
10012SOL    HW139966   4.009  12.690  12.895  0.5782  0.1381  0.9674
10012SOL    HW239967   4.049  12.610  13.017 -1.0415  1.2405  2.2708
10013SOL     OW39968   7.632   8.523   3.156  0.0804 -0.2253 -0.6979
10013SOL    HW139969   7.694   8.534   3.228  0.1496 -0.5806 -0.7016
10013SOL    HW239970   7.548   8.509   3.199 -0.2735  1.6538 -0.6851
10014SOL     OW39971   3.417   7.333   5.246  0.4070  0.1639  0.3416
10014SOL    HW139972   3.440   7.417   5.286 -2.6508  0.2243  2.2397
10014SOL    HW239973   3.326   7.343   5.220  0.0830 -2.4452  0.2467
10015SOL     OW39974   5.543  13.141  11.960 -0.7663  0.3055 -0.2292
10015SOL    HW139975   5.597  13.185  11.894 -1.4949  1.2004 -0.2479
10015SOL    HW239976   5.489  13.079  11.911  0.3080 -0.6870 -0.1967
10016SOL     OW39977   7.641   5.128   6.465 -0.4455 -0.6469 -0.4230
10016SOL    HW139978   7.697   5.154   6.392 -1.2478  3.0597  0.0800
10016SOL    HW239979   7.556   5.108   6.425 -0.8373  1.2098 -0.5806
10017SOL     OW39980   8.882   0.533  11.383 -0.4170  0.3220 -0.0347
10017SOL    HW139981   8.967   0.558  11.348  0.5003 -0.5533  1.4844
10017SOL    HW239982   8.893   0.536  11.478 -1.5697 -1.4269  0.1992
10018SOL     OW39983  11.051   0.245   5.870 -0.1316 -0.1630  0.2853
10018SOL    HW139984  11.078   0.153   5.865  0.8822  0.1822 -1.4074
10018SOL    HW239985  11.088   0.285   5.792 -1.2602  1.5248  0.5583
10019SOL     OW39986   7.538   4.205   0.074  0.1762  0.2550  0.3605
10019SOL    HW139987   7.493   4.287   0.052 -0.8612 -0.8453 -1.9306
10019SOL    HW239988   7.541   4.205   0.170 -2.3234  1.6560  0.5288
10020SOL     OW39989  12.597   5.114   1.713 -0.4302  0.2647  0.3244
10020SOL    HW139990  12.517   5.063   1.720 -0.8024  0.5107 -1.5976
10020SOL    HW239991  12.575   5.186   1.654  1.1377  0.4407 -0.1043
10021SOL     OW39992   4.554   7.882  12.613 -0.0390 -0.2664 -0.3914
10021SOL    HW139993   4.487   7.827  12.654  0.1977 -0.7746 -0.6742
10021SOL    HW239994   4.534   7.880  12.519  1.2652 -1.7069 -0.6841
10022SOL     OW39995   7.658   2.050  11.240  0.8806  0.0378 -0.2820
10022SOL    HW139996   7.625   1.962  11.222 -1.1053  0.1752  2.1166
10022SOL    HW239997   7.584   2.096  11.279  2.5223  2.0454  0.6836
10023SOL     OW39998  10.736   0.598   1.796  0.1156  0.0253 -0.7501
10023SOL    HW139999  10.673   0.546   1.746  0.9636 -0.3096 -1.4992
10023SOL    HW240000  10.709   0.589   1.887 -0.6227 -0.5097 -1.0165
10024SOL     OW40001   2.135   0.217  11.879 -0.6005 -0.4178  0.3380
10024SOL    HW140002   2.157   0.132  11.841  0.6179  0.5474 -1.2627
10024SOL    HW240003   2.039   0.218  11.882 -0.9475 -0.1518 -3.9980
10025SOL     OW40004  10.778   1.077   6.112  0.2359  0.3291  0.1047
10025SOL    HW140005  10.698   1.074   6.166 -0.6857 -1.9025 -1.2625
10025SOL    HW240006  10.821   0.994   6.129  2.0033  1.2404  0.3186
10026SOL     OW40007   1.547   7.557   5.563 -0.4542  0.2323 -0.3789
10026SOL    HW140008   1.503   7.525   5.484 -1.7503  0.2206  0.3124
10026SOL    HW240009   1.481   7.549   5.632  0.9296 -0.5721  0.9036
10027SOL     OW40010   9.806   6.099   1.063 -0.2781 -0.4764 -0.1558
10027SOL    HW140011   9.883   6.077   1.011 -1.4878 -0.2097 -2.1732
10027SOL    HW240012   9.765   6.014   1.081  0.7265 -0.6727  1.4181
10028SOL     OW40013   7.699   3.570   2.138  0.4647 -0.1782 -0.0285
10028SOL    HW140014   7.604   3.575   2.154 -0.0274 -0.8744 -2.4186
10028SOL    HW240015   7.736   3.545   2.223 -1.3727  1.0147  1.1968
10029SOL     OW40016  11.982   1.567   0.778  0.2576 -0.7205  0.0256
10029SOL    HW140017  11.983   1.590   0.871 -0.5825  1.0352 -0.3603
10029SOL    HW240018  12.074   1.550   0.757  0.7376  0.7382  0.7699
10030SOL     OW40019   3.009   8.198   7.122  0.0414 -0.4222 -0.4577
10030SOL    HW140020   2.945   8.149   7.069 -0.1872  0.0161 -0.5974
10030SOL    HW240021   3.062   8.130   7.163  0.2057 -0.7809 -1.2259
10031SOL     OW40022  12.550   7.412   0.433  0.2253 -0.0918  0.2575
10031SOL    HW140023  12.600   7.485   0.469  0.0921  0.8946 -1.4637
10031SOL    HW240024  12.467   7.415   0.480  0.4510  0.4945  0.6280
10032SOL     OW40025   1.131   5.776   5.453 -0.0478 -0.1560  0.3220
10032SOL    HW140026   1.103   5.737   5.536 -2.4231  0.5918 -0.0315
10032SOL    HW240027   1.179   5.707   5.409 -0.4115 -1.2225  1.5248
10033SOL     OW40028   2.065   7.814   1.905  0.5388 -0.3032 -0.8104
10033SOL    HW140029   1.979   7.853   1.893  0.2263 -0.7588 -0.1157
10033SOL    HW240030   2.100   7.856   1.983 -0.3222 -2.2414  0.7040
10034SOL     OW40031   9.440   8.791  12.854 -0.1226 -0.0330  0.2236
10034SOL    HW140032   9.426   8.865  12.912  0.7044  1.3424 -1.2453
10034SOL    HW240033   9.357   8.779  12.808  0.4895  1.8762 -1.5479
10035SOL     OW40034  11.481   1.887  11.578 -0.2481 -0.3972 -0.0383
10035SOL    HW140035  11.553   1.828  11.559  0.1577 -0.3298  1.1576
10035SOL    HW240036  11.505   1.970  11.536 -0.5958 -0.9228 -1.3161
10036SOL     OW40037   5.367  10.107   4.444  0.2198  0.0693 -0.6746
10036SOL    HW140038   5.414  10.177   4.400  0.5957  0.7058  0.6953
10036SOL    HW240039   5.422  10.085   4.520 -1.1882  0.1682  0.4138
10037SOL     OW40040   5.385   1.097   6.487 -0.6250 -0.2167 -0.1849
10037SOL    HW140041   5.324   1.104   6.560  1.1297 -0.0229  1.3270
10037SOL    HW240042   5.457   1.155   6.510  0.4767 -0.9654 -1.5770
10038SOL     OW40043  11.208  10.600   9.627 -0.1482 -0.4767  0.8621
10038SOL    HW140044  11.188  10.507   9.639  1.1227 -0.5981  2.1886
10038SOL    HW240045  11.302  10.608   9.642 -0.1102  0.9328  0.1029
10039SOL     OW40046   3.279  11.585   8.608  0.1429 -0.4392 -0.4456
10039SOL    HW140047   3.201  11.630   8.578  0.1665 -0.3704 -0.4035
10039SOL    HW240048   3.321  11.553   8.528 -0.3728 -1.2130 -0.4170
10040SOL     OW40049   8.078   2.651   3.763  0.3640  0.3459 -0.1207
10040SOL    HW140050   8.015   2.673   3.694  0.8432  1.6440 -0.1656
10040SOL    HW240051   8.120   2.571   3.732 -1.3824 -0.6862  0.0061
10041SOL     OW40052   0.607   0.064   9.278 -0.1541 -0.1488  0.2555
10041SOL    HW140053   0.561  -0.013   9.310  0.2934 -0.6874 -0.3692
10041SOL    HW240054   0.682   0.074   9.338  0.5037 -0.9678 -0.4039
10042SOL     OW40055   2.980  12.079   6.385  0.1358  0.1765  0.5339
10042SOL    HW140056   2.984  12.121   6.471 -1.1055  0.1068  0.6498
10042SOL    HW240057   2.930  12.139   6.330  0.7859  0.1501 -0.1048
10043SOL     OW40058  11.917   7.954   7.578  0.2926 -0.8036  0.1176
10043SOL    HW140059  11.830   7.913   7.569 -0.2541  0.2296  0.6029
10043SOL    HW240060  11.972   7.884   7.613 -0.0913 -1.7719 -1.1187
10044SOL     OW40061   1.624   2.235  13.072 -0.1074 -0.3426 -0.4465
10044SOL    HW140062   1.631   2.245  13.167 -0.2338 -0.0539 -0.4667
10044SOL    HW240063   1.707   2.267  13.038  0.5817 -1.9127 -0.3396
10045SOL     OW40064  10.800   3.439   3.177 -0.3269  0.3671  0.1303
10045SOL    HW140065  10.731   3.395   3.127  0.5132  0.2473 -0.9555
10045SOL    HW240066  10.837   3.370   3.232 -0.4360  0.2061  0.0024
10046SOL     OW40067   0.086   1.033   1.833 -0.0192 -0.3057  0.4360
10046SOL    HW140068   0.088   1.125   1.862  0.1335  0.3602 -1.5170
10046SOL    HW240069   0.175   1.001   1.848  0.0746  0.0430  0.6304
10047SOL     OW40070  10.522  11.205   7.939 -0.0123  0.2116  0.3345
10047SOL    HW140071  10.436  11.228   7.903  0.1713  0.9500  0.3667
10047SOL    HW240072  10.503  11.173   8.027 -0.5008 -1.9246 -0.4854
10048SOL     OW40073  11.305   3.821   9.747  0.0136 -0.1310 -0.1740
10048SOL    HW140074  11.364   3.824   9.822 -0.0355  1.5381 -0.1596
10048SOL    HW240075  11.276   3.730   9.743 -0.9238 -0.0520  2.5713
10049SOL     OW40076   9.392   5.094  13.267  0.6839  0.7121  0.3217
10049SOL    HW140077   9.481   5.127  13.254  0.9430  1.0279  2.5372
10049SOL    HW240078   9.404   5.002  13.291  0.4456  0.8003  0.7973
10050SOL     OW40079   1.319   4.788  12.309  0.3000 -0.3657  0.1943
10050SOL    HW140080   1.259   4.828  12.371 -0.0854 -0.0986 -0.3348
10050SOL    HW240081   1.302   4.833  12.226  0.8114 -0.6975 -0.1019
10051SOL     OW40082   6.315   8.681   8.629  0.4532 -0.1526  0.0303
10051SOL    HW140083   6.258   8.735   8.684 -0.9444 -1.9326  0.4102
10051SOL    HW240084   6.299   8.591   8.658  2.8512 -0.8114 -0.4387
10052SOL     OW40085   3.021  13.260   6.313 -0.1997 -0.0258 -0.3997
10052SOL    HW140086   2.991  13.329   6.373 -1.5515 -0.1767 -0.8554
10052SOL    HW240087   3.071  13.201   6.368 -3.0460 -1.2350  1.1376
10053SOL     OW40088   8.518   6.886   4.074  0.4373 -0.2995 -0.0646
10053SOL    HW140089   8.563   6.964   4.042  0.8904 -0.1076  1.0037
10053SOL    HW240090   8.560   6.866   4.157  0.5439 -1.8913 -0.4732
10054SOL     OW40091  10.281   9.039  11.572 -0.2595  0.5731 -0.0723
10054SOL    HW140092  10.272   9.119  11.624 -0.4711  0.3433  0.2420
10054SOL    HW240093  10.195   9.027  11.531  0.1774  1.3044 -1.2878
10055SOL     OW40094   4.199   6.502  11.545 -0.5933  0.2930 -0.0927
10055SOL    HW140095   4.235   6.590  11.537 -0.3043  0.2163  0.3146
10055SOL    HW240096   4.193   6.470  11.455 -2.2714  1.3374 -0.3921
10056SOL     OW40097   7.568   9.971   1.862 -0.5550 -0.0956  0.4710
10056SOL    HW140098   7.557   9.880   1.889 -1.2974 -0.2322 -0.2517
10056SOL    HW240099   7.631  10.007   1.924  0.4090 -1.3322  0.2353
10057SOL     OW40100  10.354   2.932   8.242  0.2603  0.7991 -0.3021
10057SOL    HW140101  10.341   3.027   8.237  0.0282  0.7933  0.1948
10057SOL    HW240102  10.267   2.897   8.263 -0.1476  0.2940 -2.5658
10058SOL     OW40103  11.652   3.487   3.765  0.1210 -0.2414  0.4283
10058SOL    HW140104  11.680   3.471   3.856 -1.4146 -0.9881  0.7981
10058SOL    HW240105  11.560   3.460   3.763 -0.7108  2.3797 -0.6624
10059SOL     OW40106   4.672   5.446  10.000 -0.1618  0.2456 -0.2431
10059SOL    HW140107   4.694   5.437  10.093  0.1206 -1.6899 -0.4442
10059SOL    HW240108   4.630   5.532   9.993  0.8178  0.9140  1.4553
10060SOL     OW40109   2.525   7.807   5.575 -0.3701  0.1306  0.4373
10060SOL    HW140110   2.564   7.849   5.652 -0.2141 -1.2565  1.1557
10060SOL    HW240111   2.587   7.739   5.551 -0.2607  0.7598 -1.1580
10061SOL     OW40112   3.409   1.810   7.207 -0.3804  0.3248  0.1213
10061SOL    HW140113   3.393   1.894   7.165 -1.0939  0.1653  0.0665
10061SOL    HW240114   3.469   1.830   7.278 -1.4319  1.0758  0.8224
10062SOL     OW40115   9.099   8.997   2.028  0.0522 -0.7170 -0.0625
10062SOL    HW140116   9.050   8.986   1.947 -2.0455 -1.6294  1.2510
10062SOL    HW240117   9.065   9.079   2.065  0.7455 -0.4916  0.0853
10063SOL     OW40118   7.115   6.324   3.468 -0.1535  0.1812 -0.6205
10063SOL    HW140119   7.130   6.332   3.562 -1.7281  1.5477 -0.4262
10063SOL    HW240120   7.054   6.395   3.448 -0.3692 -0.4953 -2.5579
10064SOL     OW40121   5.829   0.276   6.553  0.0390 -0.0510  0.7927
10064SOL    HW140122   5.907   0.234   6.516  0.3935  2.1638 -1.2281
10064SOL    HW240123   5.784   0.205   6.600  1.5798 -2.1776 -0.7212
10065SOL     OW40124  10.663   2.933   0.610  0.5134  0.2053 -0.0815
10065SOL    HW140125  10.645   2.966   0.698 -1.7455 -1.9190  0.3494
10065SOL    HW240126  10.606   2.984   0.553 -0.2958 -0.4585  0.1159
10066SOL     OW40127   5.710   6.930  11.110  0.0798 -0.0674  0.6436
10066SOL    HW140128   5.786   6.896  11.063  0.0116  0.5744  0.0515
10066SOL    HW240129   5.639   6.927  11.046  0.2929  2.1201  0.2082
10067SOL     OW40130   1.988   5.255  12.369  0.0453 -0.4204 -0.3167
10067SOL    HW140131   1.933   5.331  12.352  0.2159  0.2226  1.7084
10067SOL    HW240132   2.059   5.261  12.306  0.7286  1.8307  0.5940
10068SOL     OW40133  11.054   0.459   6.617  0.3622 -0.4601 -0.5067
10068SOL    HW140134  10.989   0.439   6.685  0.1973 -0.2453 -0.6009
10068SOL    HW240135  11.071   0.553   6.627  0.5272 -0.4792 -0.5987
10069SOL     OW40136  10.400   2.755   2.311  0.3227  0.1496  0.3774
10069SOL    HW140137  10.345   2.676   2.305  0.8928 -0.2257  0.0573
10069SOL    HW240138  10.416   2.780   2.220  0.4675  0.4091  0.4737
10070SOL     OW40139   5.282   3.456   2.477  0.0077 -0.1008 -0.7358
10070SOL    HW140140   5.247   3.526   2.532 -0.6494 -0.7619 -0.2870
10070SOL    HW240141   5.334   3.501   2.411 -1.3430  0.9041 -1.1644
10071SOL     OW40142   9.536   3.121   4.949 -0.1982 -0.4097 -0.0296
10071SOL    HW140143   9.566   3.034   4.923 -1.1806 -1.2454  1.4429
10071SOL    HW240144   9.615   3.173   4.957  0.8383 -2.1561  2.4160
10072SOL     OW40145   0.987   3.708  10.058 -0.1044  0.2888 -0.2882
10072SOL    HW140146   1.064   3.678  10.009 -0.3672  0.0133 -0.5285
10072SOL    HW240147   0.985   3.802  10.044 -0.3954  0.1671 -1.1182
10073SOL     OW40148  10.432   7.340   2.901  0.2154 -0.6137 -0.0884
10073SOL    HW140149  10.474   7.255   2.886  2.3004  0.0130  1.6560
10073SOL    HW240150  10.447   7.389   2.821  1.1531 -1.0757 -0.2106
10074SOL     OW40151   9.686   2.046   2.174 -0.4647 -0.7450  0.4680
10074SOL    HW140152   9.728   1.997   2.245  0.5522  1.3550  1.4157
10074SOL    HW240153   9.593   2.026   2.184 -0.3546 -0.5463  2.4028
10075SOL     OW40154   8.459   1.437  12.120 -0.0374 -0.3038 -0.2627
10075SOL    HW140155   8.436   1.375  12.189  0.8977  0.0199  0.3436
10075SOL    HW240156   8.490   1.382  12.048 -0.3490 -0.6011 -0.1732
10076SOL     OW40157  12.130  11.381   2.054  0.3302 -0.2551  0.0672
10076SOL    HW140158  12.148  11.354   2.144  0.5072 -0.4523 -0.0252
10076SOL    HW240159  12.077  11.310   2.017 -3.1669  1.5786  1.1862
10077SOL     OW40160  12.077  12.277  11.522 -0.2481 -0.5617 -0.2859
10077SOL    HW140161  12.005  12.254  11.581 -0.5951 -1.6012 -1.0826
10077SOL    HW240162  12.121  12.350  11.565 -1.6971  0.0013  0.2929
10078SOL     OW40163   3.080   8.868   1.081 -0.0266 -0.3448 -0.0463
10078SOL    HW140164   3.158   8.890   1.131 -0.7938  0.5753  0.7749
10078SOL    HW240165   3.007   8.884   1.140 -0.9070 -0.1503 -1.1404
10079SOL     OW40166   7.398   2.166   6.825  0.2166 -0.3802  0.4653
10079SOL    HW140167   7.422   2.149   6.916 -0.6771 -3.4890  0.2533
10079SOL    HW240168   7.315   2.214   6.830  0.0876 -0.6760  1.3187
10080SOL     OW40169   8.191   8.212   1.732 -0.3215 -0.1121  0.6336
10080SOL    HW140170   8.140   8.140   1.695 -1.8103  0.7198  0.9833
10080SOL    HW240171   8.216   8.183   1.819  0.8560 -0.9929  0.0286
10081SOL     OW40172   4.901   3.361   9.659 -0.1684  0.1951 -0.4108
10081SOL    HW140173   4.914   3.409   9.578  1.3396  5.2401  2.3948
10081SOL    HW240174   4.809   3.375   9.681 -0.7147 -1.6085 -1.3297
10082SOL     OW40175  12.948   4.419   0.772 -0.5230  0.1168 -0.7436
10082SOL    HW140176  12.917   4.363   0.844 -2.6379  1.4639 -0.5421
10082SOL    HW240177  12.869   4.451   0.730  0.6274  2.0109 -1.6175
10083SOL     OW40178  11.896  11.158   9.548  0.3252  0.1778 -0.1048
10083SOL    HW140179  11.816  11.168   9.599 -0.1029  0.9011 -0.8783
10083SOL    HW240180  11.939  11.243   9.554  1.4534 -0.4395  0.9470
10084SOL     OW40181   9.785   7.743   6.141 -0.3055  0.1542  0.4565
10084SOL    HW140182   9.742   7.826   6.119  0.1594 -0.0812 -1.5705
10084SOL    HW240183   9.775   7.690   6.062  0.7553 -1.1588  1.1666
10085SOL     OW40184   6.578  10.525   4.163 -0.5712  0.0373 -0.0380
10085SOL    HW140185   6.626  10.560   4.088 -0.1376 -2.9061 -1.3031
10085SOL    HW240186   6.642  10.473   4.211 -1.2214  0.6201  1.5461
10086SOL     OW40187   6.476  10.521   2.711  0.6409 -0.3118 -0.3837
10086SOL    HW140188   6.440  10.552   2.794  3.4046 -0.5769  1.0345
10086SOL    HW240189   6.465  10.426   2.714 -1.7173 -0.1555 -1.6600
10087SOL     OW40190   8.734   6.113  10.131  0.2211 -0.0186  0.9677
10087SOL    HW140191   8.811   6.143  10.082  0.7661 -1.1814  1.0762
10087SOL    HW240192   8.770   6.076  10.212 -0.2980 -1.9245  0.3765
10088SOL     OW40193  11.338   0.144   0.996  0.3499 -0.3147 -0.1601
10088SOL    HW140194  11.419   0.097   1.018  0.3577 -0.3567 -0.2778
10088SOL    HW240195  11.312   0.108   0.911  0.7166  0.3589 -0.5719
10089SOL     OW40196  10.711  11.136   1.658 -0.7091  0.0668 -0.1399
10089SOL    HW140197  10.719  11.150   1.753 -0.8928  0.7320 -0.2187
10089SOL    HW240198  10.650  11.204   1.629 -0.4578  0.0261 -0.7744
10090SOL     OW40199  12.220   5.893   9.534  0.0814  0.0259 -0.4748
10090SOL    HW140200  12.182   5.823   9.587  0.6511  0.1947  0.1674
10090SOL    HW240201  12.157   5.906   9.463 -1.0286  0.2641  0.5285
10091SOL     OW40202   7.764  11.919   7.396  0.2540  0.0538  0.4911
10091SOL    HW140203   7.798  11.881   7.477 -1.1064  0.6825  1.3954
10091SOL    HW240204   7.682  11.962   7.422  0.1724  0.9213 -1.0800
10092SOL     OW40205   7.879   8.829  11.169 -0.0717  0.2895  0.2109
10092SOL    HW140206   7.883   8.797  11.260 -1.0672 -1.4335 -0.3083
10092SOL    HW240207   7.876   8.749  11.116  0.5548  1.2649 -1.3680
10093SOL     OW40208  10.927   3.328   4.548  0.6804 -0.3550 -0.2740
10093SOL    HW140209  10.845   3.287   4.578  0.9307 -0.5792  0.1056
10093SOL    HW240210  10.950   3.279   4.470 -0.0044  0.2680 -0.8856
10094SOL     OW40211   1.093  10.823   3.339 -0.6239 -0.0074 -0.3370
10094SOL    HW140212   1.152  10.868   3.398 -1.1766  1.5098 -0.8934
10094SOL    HW240213   1.015  10.803   3.392 -0.0316 -1.1604  0.1422
10095SOL     OW40214   7.191   0.739   3.810 -0.4806 -0.0515  0.3050
10095SOL    HW140215   7.229   0.657   3.779 -0.7053  0.1883 -0.6524
10095SOL    HW240216   7.249   0.807   3.776 -2.0270  0.3660 -1.7417
10096SOL     OW40217   2.223  11.088   7.864 -0.2861 -0.6249 -0.1069
10096SOL    HW140218   2.174  11.064   7.943  1.7912 -0.0341  1.4816
10096SOL    HW240219   2.261  11.006   7.833 -0.9534 -0.8305 -0.3891
10097SOL     OW40220  12.348   0.496   0.047  0.4225  0.5414 -0.1094
10097SOL    HW140221  12.411   0.442  -0.000 -0.5247 -0.2807 -0.4876
10097SOL    HW240222  12.347   0.460   0.136  1.4932  1.4605  0.2916
10098SOL     OW40223   4.315  13.098  10.710 -0.3005 -0.8138 -0.0322
10098SOL    HW140224   4.228  13.096  10.750 -0.2176 -0.8668  0.1484
10098SOL    HW240225   4.301  13.137  10.624 -0.2453  0.8505  0.6615
10099SOL     OW40226  11.575   8.235   6.209 -0.3769  0.2561  0.5490
10099SOL    HW140227  11.585   8.189   6.292 -1.0930 -0.5383  0.2041
10099SOL    HW240228  11.491   8.205   6.175 -1.3465  2.5250  0.7651
10100SOL     OW40229   0.453   1.536   3.659 -0.2068  0.1902  0.7994
10100SOL    HW140230   0.433   1.608   3.600 -0.1587  0.8766  1.6044
10100SOL    HW240231   0.371   1.521   3.707  0.7210  2.1462  3.1879
10101SOL     OW40232   3.152   3.216   3.639 -0.2286 -0.1309  0.0927
10101SOL    HW140233   3.064   3.215   3.601 -0.3033 -0.4553  0.2725
10101SOL    HW240234   3.205   3.163   3.580 -1.0087 -3.2574  2.0030
10102SOL     OW40235  11.997   7.292  10.973 -0.1762 -0.0870 -0.2960
10102SOL    HW140236  11.978   7.331  11.059 -0.0836 -1.5451  0.4146
10102SOL    HW240237  11.938   7.337  10.913  0.2330  1.4552  0.3913
10103SOL     OW40238  10.931   1.261   9.284  0.3048  0.3177 -0.0608
10103SOL    HW140239  10.896   1.226   9.203 -0.3422 -0.2860  0.4639
10103SOL    HW240240  10.954   1.352   9.263  0.6434  0.0161 -1.0449
10104SOL     OW40241   3.506   9.178  10.033 -0.1102 -0.4827  0.1677
10104SOL    HW140242   3.439   9.119  10.068 -0.8600  0.5371  0.5243
10104SOL    HW240243   3.564   9.122   9.982 -2.7379 -1.0696 -2.4233
10105SOL     OW40244   1.518  12.449   1.861 -0.0984  0.1948 -0.7676
10105SOL    HW140245   1.543  12.444   1.769  0.3871 -0.5370 -0.6138
10105SOL    HW240246   1.575  12.517   1.898  1.2848 -1.0035 -0.5638
10106SOL     OW40247  11.448   8.363   9.588  0.1510 -0.3733  0.4873
10106SOL    HW140248  11.396   8.437   9.557  0.9842  0.4129  0.9190
10106SOL    HW240249  11.398   8.286   9.561  0.2503  0.2712 -1.7872
10107SOL     OW40250   9.711   0.286   9.662  0.2413  0.1597  0.4096
10107SOL    HW140251   9.755   0.264   9.744  0.9501 -0.4835 -0.1364
10107SOL    HW240252   9.765   0.354   9.623  1.0436 -0.9516 -0.4828
10108SOL     OW40253   2.928   8.160   3.497  0.7379  0.1670 -0.1263
10108SOL    HW140254   2.846   8.117   3.520  1.7860 -0.8485  1.9392
10108SOL    HW240255   2.912   8.253   3.515  0.1995 -0.0872  0.7814
10109SOL     OW40256   1.484   9.556   6.608  0.1520  0.1455 -0.3550
10109SOL    HW140257   1.533   9.478   6.632  1.1763  0.5953 -0.8958
10109SOL    HW240258   1.530   9.628   6.652  0.2208  0.6198 -1.1618
10110SOL     OW40259   1.585  13.266   6.424 -0.5154  0.0276 -0.1674
10110SOL    HW140260   1.512  13.257   6.486  0.2157 -0.0916  0.6864
10110SOL    HW240261   1.634  13.184   6.431  0.6662  0.7716  0.5199
10111SOL     OW40262   3.537   6.679   7.746 -0.1329 -0.0321 -0.3260
10111SOL    HW140263   3.534   6.771   7.773  0.0684  0.4812 -1.9923
10111SOL    HW240264   3.446   6.649   7.758  0.5516 -1.0768  4.7257
10112SOL     OW40265   1.033  11.177  11.689 -0.0645 -0.2386 -0.1637
10112SOL    HW140266   1.086  11.098  11.679 -1.3288 -1.5780  2.5734
10112SOL    HW240267   1.097  11.248  11.696  1.2990 -1.5017  0.8045
10113SOL     OW40268   3.122   9.492   2.716  0.1244  0.6361 -0.7248
10113SOL    HW140269   3.045   9.527   2.671 -0.4149  1.4138  0.7333
10113SOL    HW240270   3.087   9.454   2.797  0.8405 -2.2701 -1.6439
10114SOL     OW40271   8.851  12.963  10.181  0.3279 -0.0234 -0.2500
10114SOL    HW140272   8.782  13.018  10.218 -2.7885 -2.5399 -1.8960
10114SOL    HW240273   8.846  12.881  10.231  0.7157 -0.9776 -1.7164
10115SOL     OW40274   8.007   6.163   9.748 -0.4886 -0.0974  0.0978
10115SOL    HW140275   8.031   6.104   9.820 -0.3400  1.0084  0.9788
10115SOL    HW240276   7.960   6.235   9.791  2.5648  2.3942 -0.3590
10116SOL     OW40277  11.445  10.510   6.525 -0.0256 -0.3795 -0.0182
10116SOL    HW140278  11.517  10.506   6.462  0.4833  0.9837  0.4296
10116SOL    HW240279  11.472  10.577   6.588 -1.9407  0.6051 -0.1626
10117SOL     OW40280   1.556   5.265  10.772 -0.2122 -0.3188  0.4131
10117SOL    HW140281   1.630   5.208  10.750 -0.8624 -1.8802  2.0491
10117SOL    HW240282   1.480   5.221  10.733 -0.2763  1.7594 -2.0884
10118SOL     OW40283   0.788   0.090   9.461 -0.5809 -0.3957  0.2802
10118SOL    HW140284   0.823   0.039   9.535 -2.2948 -0.6031  0.9926
10118SOL    HW240285   0.745   0.165   9.502 -2.1018 -0.8341 -0.4430
10119SOL     OW40286   2.407   7.465   8.911 -0.0758 -0.4145  0.3182
10119SOL    HW140287   2.331   7.407   8.922 -1.2467  0.5533 -2.0311
10119SOL    HW240288   2.459   7.451   8.990 -0.9947 -3.5883  0.5043
10120SOL     OW40289   5.436   9.950   1.385  0.1572  0.2153  0.0458
10120SOL    HW140290   5.521   9.993   1.399 -0.7805  2.4091 -0.5919
10120SOL    HW240291   5.453   9.888   1.314  0.7115  2.5796 -2.0405
10121SOL     OW40292   6.008  11.847   9.029 -0.4726 -0.2231 -0.1248
10121SOL    HW140293   5.926  11.841   8.981 -0.9599 -0.5896  0.7354
10121SOL    HW240294   5.985  11.889   9.112  0.4485  0.8684 -0.3948
10122SOL     OW40295   9.038   5.543   1.075  0.8091  0.1139  0.5059
10122SOL    HW140296   9.130   5.571   1.076  0.3781  1.6217  0.4616
10122SOL    HW240297   9.015   5.542   0.982  0.0307  2.5385  0.5882
10123SOL     OW40298  10.048   1.493  11.659 -0.0254 -0.0321 -0.2855
10123SOL    HW140299  10.140   1.494  11.684 -0.2343  0.6206  0.5005
10123SOL    HW240300  10.001   1.526  11.736 -0.9071 -0.2805 -0.6995
10124SOL     OW40301   2.895   9.125   2.917 -0.0920 -0.1078  0.3714
10124SOL    HW140302   2.893   9.171   3.002 -0.7512  1.9231 -0.6780
10124SOL    HW240303   2.947   9.181   2.861 -0.9995 -0.5969 -1.0133
10125SOL     OW40304   5.170  12.100   9.277  0.1013 -0.2667  0.1460
10125SOL    HW140305   5.198  12.010   9.297  1.1956  0.2604  1.0959
10125SOL    HW240306   5.075  12.098   9.288  0.0424 -1.4364 -0.3912
10126SOL     OW40307   7.146  12.594   6.523 -0.2107  0.6442 -0.1204
10126SOL    HW140308   7.212  12.638   6.576  1.3541 -2.2629  0.5223
10126SOL    HW240309   7.069  12.590   6.579  1.4237 -2.4117  2.1565
10127SOL     OW40310   3.648  10.653   0.285 -0.3946 -0.4540 -0.6137
10127SOL    HW140311   3.711  10.719   0.256 -1.2723  0.1759 -1.1322
10127SOL    HW240312   3.565  10.679   0.246 -1.4407 -0.1148  1.6252
10128SOL     OW40313  12.403   0.145  11.901  0.6665  0.0929  0.5379
10128SOL    HW140314  12.335   0.148  11.833  0.4877 -2.4781  0.4961
10128SOL    HW240315  12.467   0.211  11.874  0.3933 -0.5614 -1.9452
10129SOL     OW40316   3.782  10.016  13.110  0.0479 -0.4322 -0.0396
10129SOL    HW140317   3.740  10.000  13.026  0.4794 -0.0793 -0.3320
10129SOL    HW240318   3.863   9.965  13.107 -0.1383 -0.7588  0.3396
10130SOL     OW40319   1.744  12.962   1.737 -0.2765  0.2751  0.1049
10130SOL    HW140320   1.798  12.933   1.811  2.0971  0.9244 -1.2477
10130SOL    HW240321   1.773  13.052   1.721 -0.7225  0.1410 -1.5952
10131SOL     OW40322   8.869  11.374   8.093 -0.4287  0.1215  0.2467
10131SOL    HW140323   8.785  11.394   8.135  0.7632  1.3112  2.1850
10131SOL    HW240324   8.886  11.450   8.036 -0.4184  0.1135  0.2388
10132SOL     OW40325   9.758   2.365   0.766 -0.2831 -0.0134 -0.7173
10132SOL    HW140326   9.822   2.294   0.753 -1.0016 -0.6812 -0.6492
10132SOL    HW240327   9.812   2.444   0.772  0.4121 -0.2823 -2.7459
10133SOL     OW40328   9.995   3.700   0.261 -0.1087 -0.0354  0.4696
10133SOL    HW140329  10.054   3.647   0.315 -0.4549  0.1874  1.0762
10133SOL    HW240330   9.939   3.637   0.216  1.0204 -0.2860 -0.6335
10134SOL     OW40331   8.157   2.732  13.145 -0.0134  0.4167  0.1792
10134SOL    HW140332   8.096   2.673  13.101 -0.1218  1.7664 -1.6130
10134SOL    HW240333   8.148   2.711  13.238 -0.4144 -1.9808 -0.3447
10135SOL     OW40334   0.618  10.799   4.469  0.1434 -0.6806 -0.0175
10135SOL    HW140335   0.524  10.792   4.459 -0.0584 -0.0636  1.2730
10135SOL    HW240336   0.642  10.878   4.420 -0.3850  0.5493  1.6074
10136SOL     OW40337   4.209   4.607   3.571  0.3956 -0.0569 -0.1158
10136SOL    HW140338   4.223   4.514   3.550  1.0367 -0.5068  2.0043
10136SOL    HW240339   4.281   4.629   3.630  1.5742  2.4851 -2.3376
10137SOL     OW40340   9.394   3.952  10.957 -0.4697  0.1355  0.2571
10137SOL    HW140341   9.363   3.866  10.985 -2.4574  0.2670 -1.3011
10137SOL    HW240342   9.422   3.939  10.866  1.8821  0.5853  0.8561
10138SOL     OW40343  12.582   1.733   0.125  0.4527 -0.1510 -0.0095
10138SOL    HW140344  12.632   1.719   0.045  0.5740  1.8128 -0.3302
10138SOL    HW240345  12.506   1.675   0.117  0.6815 -0.2949 -1.3540
10139SOL     OW40346   0.964   0.092   0.752 -0.2798 -0.2511  0.1453
10139SOL    HW140347   0.967   0.143   0.671 -1.0830 -1.4628 -0.6732
10139SOL    HW240348   0.986   0.003   0.726  0.3312 -0.5123  1.4239
10140SOL     OW40349   4.614   6.752   7.684  0.2480  0.0828  0.2207
10140SOL    HW140350   4.683   6.817   7.668  1.0551 -0.4216  1.4803
10140SOL    HW240351   4.603   6.751   7.779 -2.8656  1.4627 -0.0135
10141SOL     OW40352   8.521   0.809   3.577  0.4926 -0.0635  0.1659
10141SOL    HW140353   8.616   0.823   3.578  0.7339 -1.0883 -1.6957
10141SOL    HW240354   8.484   0.890   3.610  1.9566  1.6381 -2.0619
10142SOL     OW40355   0.280   8.584   8.229 -0.7789 -0.1005 -0.6995
10142SOL    HW140356   0.309   8.669   8.195 -1.0772 -0.3274 -1.5569
10142SOL    HW240357   0.272   8.598   8.323  1.5955  0.0989 -0.4696
10143SOL     OW40358   3.645   1.679  11.155  0.7944  0.3065 -0.0980
10143SOL    HW140359   3.564   1.730  11.163 -0.5786 -1.6582 -0.7561
10143SOL    HW240360   3.619   1.600  11.108  3.0673 -0.5116 -0.0930
10144SOL     OW40361  11.998   5.816   6.807  0.0319 -0.0152  0.1034
10144SOL    HW140362  12.094   5.810   6.815 -0.0079  0.7113  1.3513
10144SOL    HW240363  11.975   5.743   6.750  1.3416 -0.1308 -0.3305
10145SOL     OW40364   0.367   4.767   3.870  0.1145  0.3717 -0.4381
10145SOL    HW140365   0.343   4.717   3.948 -0.1128  0.9361 -0.1403
10145SOL    HW240366   0.406   4.702   3.811  3.0855  0.3947  1.2955
10146SOL     OW40367   3.457   2.365   0.632 -0.2345  0.8102  0.1076
10146SOL    HW140368   3.369   2.379   0.666 -0.4110  0.6772 -0.2825
10146SOL    HW240369   3.512   2.357   0.710 -0.8374 -0.8194  0.4052
10147SOL     OW40370   9.323   3.726   1.727  0.1857 -0.2095 -0.1005
10147SOL    HW140371   9.348   3.643   1.767  0.5155  0.1713  0.4872
10147SOL    HW240372   9.231   3.713   1.701 -0.3646 -0.1408  1.6736
10148SOL     OW40373   5.777  10.333   3.828 -0.9137  0.0786 -0.0766
10148SOL    HW140374   5.685  10.309   3.823 -0.9472  0.3780 -1.3749
10148SOL    HW240375   5.781  10.400   3.897 -1.5289 -0.4868  0.5184
10149SOL     OW40376  12.771  12.343   0.133 -0.3470  0.6607 -0.4064
10149SOL    HW140377  12.866  12.342   0.132 -0.3341  1.0894 -0.0962
10149SOL    HW240378  12.748  12.420   0.185 -0.8629  0.1972  0.0682
10150SOL     OW40379  11.865   7.367  12.402 -0.6784 -0.2213  0.4537
10150SOL    HW140380  11.880   7.292  12.344 -1.5709  0.4917 -0.7313
10150SOL    HW240381  11.880   7.443  12.347  0.8846  0.5231  1.8209
10151SOL     OW40382  11.251   9.836   0.183 -0.1208  0.2990  0.0027
10151SOL    HW140383  11.216   9.753   0.151 -3.4399  1.5317  0.0304
10151SOL    HW240384  11.325   9.855   0.125 -1.6887 -0.8292 -2.5317
10152SOL     OW40385  12.215   7.592   7.914  0.5586  0.0309 -0.0522
10152SOL    HW140386  12.170   7.515   7.947 -0.8970  0.2375 -1.4689
10152SOL    HW240387  12.293   7.558   7.871  0.5507 -0.5366  0.3759
10153SOL     OW40388   5.388   8.408   1.088  0.6293  0.1864  0.1764
10153SOL    HW140389   5.394   8.344   1.159 -0.3684 -0.3143 -0.1666
10153SOL    HW240390   5.459   8.470   1.105  1.8802 -1.2206  0.2898
10154SOL     OW40391   9.467   2.838   3.426 -0.3846  0.2296  0.0564
10154SOL    HW140392   9.419   2.766   3.468  0.1150  0.8350  1.7217
10154SOL    HW240393   9.557   2.806   3.420  0.0157  1.0222  1.5885
10155SOL     OW40394  11.101  12.272  12.563 -0.0468  0.5223  0.1285
10155SOL    HW140395  11.033  12.249  12.627  0.1668  1.2522  0.6300
10155SOL    HW240396  11.182  12.267  12.614  0.4330 -1.4721 -0.7337
10156SOL     OW40397   0.752   0.443  13.092 -0.1529  0.2801  0.2866
10156SOL    HW140398   0.807   0.521  13.097  0.2674  0.0159 -0.1334
10156SOL    HW240399   0.803   0.381  13.040 -1.3447  0.4747 -1.2114
10157SOL     OW40400   7.696   2.044   7.055  0.0920  0.0661 -0.0510
10157SOL    HW140401   7.765   2.000   7.006 -0.6269 -0.5487 -0.5377
10157SOL    HW240402   7.732   2.130   7.076  0.4226  0.3512 -1.6685
10158SOL     OW40403   9.887  12.192   5.431 -0.7117 -0.4990 -0.5758
10158SOL    HW140404   9.812  12.196   5.371 -1.3922 -0.2933  0.2723
10158SOL    HW240405   9.879  12.108   5.474 -0.8876 -0.1637  0.0578
10159SOL     OW40406   2.887   9.989   6.571  0.5001 -0.0921  0.1666
10159SOL    HW140407   2.969   9.997   6.523  0.7866  0.3974  0.7163
10159SOL    HW240408   2.834  10.064   6.542 -0.8985 -1.9122 -2.2775
10160SOL     OW40409   8.845   0.054   1.519  0.2427  0.1856  0.3723
10160SOL    HW140410   8.863  -0.032   1.557 -0.2441  0.8832  2.3049
10160SOL    HW240411   8.924   0.106   1.539 -0.6043  0.9827  1.8533
10161SOL     OW40412  12.523  12.250  11.415 -0.1025 -0.1390  0.3655
10161SOL    HW140413  12.446  12.195  11.432 -1.5898  1.8798  0.4484
10161SOL    HW240414  12.549  12.227  11.325 -1.3129 -0.2749  0.0284
10162SOL     OW40415   2.919   9.887   1.125 -0.5825  0.4855 -0.2380
10162SOL    HW140416   2.916   9.933   1.041  1.6201 -0.3155 -0.8073
10162SOL    HW240417   2.827   9.869   1.145 -1.2058  1.1847 -2.1834
10163SOL     OW40418   4.661   1.344   8.558  0.4171 -0.4834  0.2907
10163SOL    HW140419   4.611   1.311   8.483  0.2750 -0.9674  0.5929
10163SOL    HW240420   4.605   1.411   8.597 -0.1888 -1.3123  0.8735
10164SOL     OW40421   4.285  11.990   4.891 -0.4187  0.0303 -0.0746
10164SOL    HW140422   4.312  11.902   4.916 -2.1103 -0.3863  0.4327
10164SOL    HW240423   4.217  12.013   4.955  0.4672  1.9872  0.2297
10165SOL     OW40424   2.427   1.347   1.679 -0.0892  0.1192  0.3041
10165SOL    HW140425   2.376   1.402   1.737 -1.2219 -1.5014  0.9213
10165SOL    HW240426   2.443   1.401   1.601  0.1186  1.7722  1.4587
10166SOL     OW40427   8.522  11.600   2.156  0.2650  0.2086  0.1690
10166SOL    HW140428   8.457  11.649   2.208 -3.1180 -1.6818 -1.8792
10166SOL    HW240429   8.558  11.536   2.218 -2.1016 -0.6260  0.8156
10167SOL     OW40430  12.629   8.496   0.072  0.2423  0.3452  0.1440
10167SOL    HW140431  12.602   8.405   0.059 -0.6590  0.2845  2.1574
10167SOL    HW240432  12.711   8.503   0.023 -0.6462 -0.9757 -1.6821
10168SOL     OW40433  11.207  10.575  11.424 -0.2001  0.0353 -0.1791
10168SOL    HW140434  11.237  10.657  11.462 -2.4713  0.6215  0.4650
10168SOL    HW240435  11.134  10.600  11.367 -1.5163 -1.5821  0.7048
10169SOL     OW40436   0.484   3.563  11.841  0.3045  0.2305  0.4407
10169SOL    HW140437   0.525   3.499  11.783 -0.5007 -0.2640  0.4051
10169SOL    HW240438   0.548   3.634  11.847  0.8975 -0.2437 -0.1039
10170SOL     OW40439   3.915   6.821  11.767 -0.4332  0.5231 -0.4269
10170SOL    HW140440   3.841   6.880  11.780  1.7407  3.1906  0.6750
10170SOL    HW240441   3.961   6.820  11.851  1.7219  0.3273 -1.5363
10171SOL     OW40442   6.409  10.655  10.039  0.0245 -0.3321  0.7617
10171SOL    HW140443   6.365  10.671   9.956  1.4842 -2.7532 -0.5883
10171SOL    HW240444   6.499  10.684  10.024  0.0094  0.3832  1.9538
10172SOL     OW40445   3.186   0.586   5.975  0.1521  0.4097  0.0695
10172SOL    HW140446   3.099   0.616   5.948 -0.5379 -2.2952 -1.0549
10172SOL    HW240447   3.243   0.609   5.901 -0.1694 -0.1395 -0.3598
10173SOL     OW40448  12.863   6.493  12.922  0.1991 -0.1437  0.3905
10173SOL    HW140449  12.799   6.527  12.860  0.0863 -0.8469  0.1033
10173SOL    HW240450  12.832   6.404  12.942  1.6064 -0.9030 -0.5753
10174SOL     OW40451  10.522   7.195   6.726  0.0805  0.2548  0.7535
10174SOL    HW140452  10.571   7.227   6.651 -1.5670  0.5914 -0.2380
10174SOL    HW240453  10.510   7.272   6.782  0.4515  0.2281  0.8712
10175SOL     OW40454   3.258   6.243   7.656  0.2516  0.4782 -0.0279
10175SOL    HW140455   3.230   6.221   7.567 -0.4555  0.4687  0.1872
10175SOL    HW240456   3.225   6.172   7.710  2.7449 -0.7801 -0.0406
10176SOL     OW40457  11.796   6.405  11.095  0.2158  0.0714  0.1599
10176SOL    HW140458  11.748   6.458  11.159 -0.1090 -1.3469  1.1339
10176SOL    HW240459  11.755   6.319  11.099  3.0551 -1.3591  1.3674
10177SOL     OW40460   8.273   8.716  12.007 -0.4355  0.4835  0.6398
10177SOL    HW140461   8.205   8.672  12.058  0.0124 -1.8958 -0.6736
10177SOL    HW240462   8.282   8.662  11.929  1.8216  1.6737  0.0181
10178SOL     OW40463  10.660  10.479   4.622  0.3020  0.3018 -0.3167
10178SOL    HW140464  10.694  10.393   4.598  0.1161  0.4474 -1.1384
10178SOL    HW240465  10.736  10.528   4.651  0.3554 -0.2468  0.5095
10179SOL     OW40466   5.000   1.716   8.782  0.1796 -0.2280 -0.7033
10179SOL    HW140467   5.050   1.644   8.742 -0.3555 -0.6673 -0.5988
10179SOL    HW240468   4.918   1.718   8.732 -0.2542 -0.3990 -0.0141
10180SOL     OW40469   5.073  12.360   6.895  0.1118 -0.2022 -0.3988
10180SOL    HW140470   5.078  12.368   6.990  1.1599 -3.1726 -0.0894
10180SOL    HW240471   4.991  12.313   6.880  0.9850 -1.6695 -0.7361
10181SOL     OW40472   4.410  11.512   4.454  0.3985 -0.1756 -0.3733
10181SOL    HW140473   4.496  11.495   4.414  0.1699  1.7453 -1.8608
10181SOL    HW240474   4.429  11.573   4.525  0.1412  1.8141 -1.9268
10182SOL     OW40475   5.884   6.019   9.733  0.0825 -0.4759 -0.4238
10182SOL    HW140476   5.957   6.079   9.720  0.9542 -1.7107 -1.4748
10182SOL    HW240477   5.887   5.998   9.827  0.5300  0.1286 -0.2925
10183SOL     OW40478   4.276   5.097   4.024  0.8062  0.1862  0.0515
10183SOL    HW140479   4.236   5.066   3.942  0.7665  0.1331  0.0910
10183SOL    HW240480   4.300   5.187   4.005 -0.4353  0.6156  0.4118
10184SOL     OW40481   6.466  11.452   6.039 -0.0865  0.1951 -0.4846
10184SOL    HW140482   6.439  11.516   5.973  1.0360  0.4904 -0.6875
10184SOL    HW240483   6.403  11.462   6.110 -0.6232  0.6907 -1.0238
10185SOL     OW40484   3.075   5.686   8.347  0.2777 -0.4937  0.3714
10185SOL    HW140485   3.148   5.657   8.401  2.4087  1.3112 -1.3333
10185SOL    HW240486   3.035   5.605   8.315  3.0186 -1.6156 -0.5049
10186SOL     OW40487   0.735   0.269   0.559 -0.4071  0.2586 -0.0693
10186SOL    HW140488   0.673   0.309   0.498  0.1944  1.0730 -0.1534
10186SOL    HW240489   0.695   0.281   0.645 -0.4983  0.5308 -0.1486
10187SOL     OW40490   6.603   0.649   8.455 -0.0540  0.1310 -0.0067
10187SOL    HW140491   6.637   0.563   8.478 -1.9939 -1.0055 -1.1241
10187SOL    HW240492   6.674   0.692   8.408  0.9599 -0.8235  0.6180
10188SOL     OW40493   6.042   3.670   4.222  0.1368 -0.7474 -0.4503
10188SOL    HW140494   6.064   3.666   4.316  0.1662 -1.4001 -0.4783
10188SOL    HW240495   6.070   3.757   4.195  0.0465 -0.5154  0.1705
10189SOL     OW40496   3.997   0.158  12.827  0.0401 -0.0278  0.1565
10189SOL    HW140497   4.005   0.066  12.850  0.0363 -0.4541 -1.4242
10189SOL    HW240498   3.981   0.203  12.911  0.3895 -1.4014  0.9838
10190SOL     OW40499   4.475   3.309  12.635 -0.2123  0.2226  0.1666
10190SOL    HW140500   4.535   3.235  12.649  0.0032  0.5445  1.0438
10190SOL    HW240501   4.478   3.358  12.718  0.2008  1.6193 -0.6418
10191SOL     OW40502  12.200   2.134  10.335 -0.1914  0.2374  0.2799
10191SOL    HW140503  12.204   2.072  10.262  0.4117  0.4109  0.1604
10191SOL    HW240504  12.287   2.176  10.336 -0.3245  0.5113  0.8519
10192SOL     OW40505   8.733   4.140  10.740  0.3639 -0.2801  0.1611
10192SOL    HW140506   8.744   4.234  10.724  0.7299 -0.4720 -0.7818
10192SOL    HW240507   8.650   4.133  10.787  0.7630  0.5884  1.0333
10193SOL     OW40508   7.144   9.868   8.010 -0.4395 -0.3542 -0.5365
10193SOL    HW140509   7.190   9.923   8.073  0.0550 -1.1432 -0.1945
10193SOL    HW240510   7.210   9.847   7.944 -0.8050 -0.0013 -1.0235
10194SOL     OW40511   5.235   0.340   6.604  0.3895 -0.2423 -0.3031
10194SOL    HW140512   5.171   0.348   6.675 -1.2207 -0.1623 -1.7252
10194SOL    HW240513   5.280   0.425   6.603 -1.1739  0.6197 -0.8370
10195SOL     OW40514   0.763   1.199   4.849 -0.4340 -0.6662 -0.4886
10195SOL    HW140515   0.826   1.155   4.792  1.0741  0.2028  0.4533
10195SOL    HW240516   0.752   1.140   4.923  0.7425 -0.0068  0.2423
10196SOL     OW40517  11.802  12.586   4.824  0.4794  0.8927 -0.2886
10196SOL    HW140518  11.770  12.594   4.734  0.7968  0.3092 -0.4619
10196SOL    HW240519  11.724  12.561   4.874  0.8765 -2.0783 -0.9629
10197SOL     OW40520   8.020  10.218   2.726 -0.2368  0.1505 -0.2634
10197SOL    HW140521   7.994  10.307   2.750 -0.0118 -0.1590  1.2603
10197SOL    HW240522   8.080  10.229   2.653  0.0251  1.2827  0.0990
10198SOL     OW40523   2.113   4.876   0.705  0.2848  0.2344 -0.1708
10198SOL    HW140524   2.118   4.906   0.614  0.3465 -1.0706 -0.6064
10198SOL    HW240525   2.140   4.953   0.756 -0.8686  1.3679 -1.1682
10199SOL     OW40526   4.697  11.286   5.957  0.0242  1.2760  0.0914
10199SOL    HW140527   4.631  11.271   6.023 -0.0078  0.6102 -0.0867
10199SOL    HW240528   4.734  11.372   5.979  2.1600 -0.2116  2.8137
10200SOL     OW40529  10.209   0.510   9.843 -0.0253 -0.3859 -0.2718
10200SOL    HW140530  10.206   0.420   9.810 -1.0106 -0.9780  1.3036
10200SOL    HW240531  10.141   0.556   9.794  0.3019 -0.5579 -0.8965
10201SOL     OW40532   6.470   4.217  11.190 -0.1029 -0.4680  0.6485
10201SOL    HW140533   6.439   4.136  11.230 -0.9965 -0.2050  0.5130
10201SOL    HW240534   6.461   4.283  11.259  1.1245 -0.5748  0.9309
10202SOL     OW40535   5.134   2.703  12.036 -0.3099 -0.0274 -0.4163
10202SOL    HW140536   5.224   2.695  12.066  0.0338  0.5749 -1.2955
10202SOL    HW240537   5.095   2.617  12.056 -0.0449  0.2621  1.5371
10203SOL     OW40538   5.404   2.612   1.346 -0.0187 -1.0147 -0.4667
10203SOL    HW140539   5.427   2.688   1.401  0.9161 -0.9358 -0.9555
10203SOL    HW240540   5.323   2.638   1.303 -0.4892 -0.8699  0.4731
10204SOL     OW40541   3.837   6.429   2.893  0.0665  0.0225 -0.3809
10204SOL    HW140542   3.918   6.378   2.904 -0.1935  0.0784  2.6062
10204SOL    HW240543   3.773   6.384   2.948 -0.2490  3.2527  2.1701
10205SOL     OW40544   0.057   4.689   1.924  0.3051  0.1892 -0.3349
10205SOL    HW140545   0.079   4.646   1.842  2.3063 -2.4534  1.3888
10205SOL    HW240546  -0.026   4.650   1.951  0.7801 -0.6538 -0.0606
10206SOL     OW40547   4.402   0.304  12.905  0.3110  0.6367  0.8341
10206SOL    HW140548   4.378   0.263  12.822 -0.9277  1.4473  0.7597
10206SOL    HW240549   4.400   0.398  12.887 -0.3496  0.8430  1.8591
10207SOL     OW40550  11.677   2.504   9.684 -0.0993  0.2030 -0.2419
10207SOL    HW140551  11.609   2.444   9.715 -0.4008  0.9916  0.6810
10207SOL    HW240552  11.759   2.466   9.717 -0.3024  0.3693  0.4714
10208SOL     OW40553   7.590   4.072   0.630 -0.7501  0.2324 -0.2792
10208SOL    HW140554   7.591   4.044   0.721  1.6644 -1.3526 -0.6932
10208SOL    HW240555   7.590   3.991   0.580  0.0369  1.0452 -1.6509
10209SOL     OW40556  12.384   2.142   9.157  0.1852  0.5056 -0.1538
10209SOL    HW140557  12.401   2.134   9.250 -1.1226 -2.6858 -0.0557
10209SOL    HW240558  12.460   2.189   9.122  2.1865 -0.8119  2.1245
10210SOL     OW40559   1.478  11.579   1.781  0.1208  0.1945  0.0441
10210SOL    HW140560   1.424  11.611   1.853  0.0915  1.3779 -0.4836
10210SOL    HW240561   1.553  11.538   1.824 -1.5186 -2.2275  0.8264
10211SOL     OW40562  12.902  10.123  12.982 -0.7587  0.1470 -0.5353
10211SOL    HW140563  12.825  10.072  13.006 -0.4241  0.1619  0.6871
10211SOL    HW240564  12.967  10.058  12.956 -0.5509 -0.0367  0.3789
10212SOL     OW40565  12.996  12.524  10.027  0.2912 -0.0054  0.1725
10212SOL    HW140566  12.976  12.505   9.935 -0.2714 -0.9325  0.4716
10212SOL    HW240567  13.076  12.576  10.024  0.3029 -0.0603 -0.8386
10213SOL     OW40568   9.049   0.182   1.711 -0.4012  0.2308  0.0935
10213SOL    HW140569   9.095   0.109   1.754 -0.9544 -0.8607 -1.0958
10213SOL    HW240570   9.108   0.209   1.641 -0.0220  1.2176  0.7769
10214SOL     OW40571   6.013   6.414   8.876 -0.0389  0.0703 -0.8016
10214SOL    HW140572   6.001   6.424   8.971  0.7409  2.0715 -0.8706
10214SOL    HW240573   5.950   6.346   8.851 -0.0890 -0.6775  1.1794
10215SOL     OW40574  10.286  11.027   3.511  0.5204  0.1838 -0.0813
10215SOL    HW140575  10.208  10.981   3.543  0.3147  0.3066 -0.4088
10215SOL    HW240576  10.352  10.958   3.504  0.5092  0.1193  0.4123
10216SOL     OW40577   2.572   1.375   2.089  0.2782 -0.1048 -0.3005
10216SOL    HW140578   2.561   1.470   2.086 -1.5418 -0.2960 -0.7220
10216SOL    HW240579   2.633   1.356   2.017  1.6386  0.8095  0.5444
10217SOL     OW40580  10.182   5.204   8.150  0.0568  0.2922  0.0400
10217SOL    HW140581  10.095   5.164   8.141  0.1444  0.4292 -1.7527
10217SOL    HW240582  10.184   5.273   8.084  0.6804  1.9357  1.6886
10218SOL     OW40583   1.914   6.793   5.871 -0.0229  0.0427  0.6124
10218SOL    HW140584   1.984   6.858   5.864 -1.6714  1.9156  0.8464
10218SOL    HW240585   1.923   6.758   5.960  0.0744  0.9201  0.9538
10219SOL     OW40586   3.355  11.738   7.393 -0.6584 -0.1026  0.2230
10219SOL    HW140587   3.286  11.719   7.456  0.1161 -0.6400  0.9328
10219SOL    HW240588   3.310  11.776   7.318 -1.7687 -0.7979  0.5228
10220SOL     OW40589   1.951   4.716   8.009 -0.3360 -0.1160 -0.4148
10220SOL    HW140590   2.019   4.757   8.063 -0.8271  0.0395  0.0906
10220SOL    HW240591   1.902   4.790   7.972 -1.0716 -0.2395  0.3014
10221SOL     OW40592   9.221  10.401   1.732  0.0758  0.0947  0.2514
10221SOL    HW140593   9.207  10.315   1.774 -0.7162 -0.3585 -0.8887
10221SOL    HW240594   9.313  10.400   1.706  0.1598 -0.2764  0.5453
10222SOL     OW40595   5.916   2.685   0.264 -0.2085  0.0922  0.6158
10222SOL    HW140596   5.965   2.764   0.288  1.9990 -0.9049 -0.3009
10222SOL    HW240597   5.935   2.672   0.172 -0.6258 -1.4403  0.7156
10223SOL     OW40598   0.159  12.881   2.736  0.1643  0.3463  0.5047
10223SOL    HW140599   0.189  12.922   2.817 -0.1297  1.5110  0.0422
10223SOL    HW240600   0.075  12.922   2.718  0.3809  0.3540 -0.5616
10224SOL     OW40601  12.751   7.016   2.179  0.0087 -0.5786 -0.3871
10224SOL    HW140602  12.697   7.086   2.217  1.0547 -0.0584  0.2125
10224SOL    HW240603  12.688   6.953   2.144 -0.9696  0.3735 -0.4093
10225SOL     OW40604   4.457  11.893  11.898  0.3521 -0.5305 -0.5288
10225SOL    HW140605   4.422  11.833  11.964 -0.8353  0.6221 -0.0726
10225SOL    HW240606   4.528  11.844  11.856 -0.2553 -2.0600  0.1669
10226SOL     OW40607   8.636  10.229   6.092 -0.3046 -0.7617  0.5376
10226SOL    HW140608   8.642  10.157   6.029 -1.2387  1.1925 -1.9590
10226SOL    HW240609   8.714  10.282   6.076 -0.8621  0.0910  0.5654
10227SOL     OW40610   7.725   7.162   5.015 -0.2903  0.6140  0.4927
10227SOL    HW140611   7.789   7.224   4.979 -0.9938  1.0756  0.0106
10227SOL    HW240612   7.699   7.201   5.098 -0.3619  0.7223  0.4215
10228SOL     OW40613   0.151   2.828   7.761  0.3611 -0.1113 -0.7432
10228SOL    HW140614   0.188   2.778   7.834 -0.4711  0.4448  0.0863
10228SOL    HW240615   0.226   2.877   7.726  0.1913  2.6417  2.2417
10229SOL     OW40616   9.698   6.210  11.878 -0.2862 -0.0284  0.1343
10229SOL    HW140617   9.686   6.115  11.887 -1.1436  0.1307  0.7247
10229SOL    HW240618   9.649   6.234  11.800  0.5701 -0.1776 -0.4646
10230SOL     OW40619  12.324  11.502   4.266 -0.5099 -0.0169  0.1577
10230SOL    HW140620  12.343  11.504   4.172  0.8311 -0.0813  0.4112
10230SOL    HW240621  12.337  11.411   4.291 -2.2322 -0.2955  0.1645
10231SOL     OW40622  12.601   3.478   2.117  0.3042  0.2478 -0.2890
10231SOL    HW140623  12.643   3.559   2.089  1.9028 -0.6543 -0.6028
10231SOL    HW240624  12.537   3.459   2.048  0.8163  0.5765 -0.8576
10232SOL     OW40625  12.536   2.379   8.495 -0.4276 -0.2088 -0.3975
10232SOL    HW140626  12.575   2.315   8.435  0.3712 -0.0811 -0.0341
10232SOL    HW240627  12.446   2.349   8.508 -0.7214 -0.0435 -1.9171
10233SOL     OW40628   1.464  12.841   7.234  0.0645 -0.2076 -0.2156
10233SOL    HW140629   1.544  12.894   7.228 -0.5795  0.6884 -1.1959
10233SOL    HW240630   1.431  12.858   7.322  1.2557 -1.0743  0.4365
10234SOL     OW40631   7.084   5.849   0.735 -0.8850  0.3901  0.4738
10234SOL    HW140632   7.075   5.760   0.702  0.2748 -0.0436  1.2802
10234SOL    HW240633   7.007   5.895   0.700 -0.6322 -0.4750 -1.3549
10235SOL     OW40634   1.828  11.160  12.601  0.0029  0.4904 -0.7994
10235SOL    HW140635   1.784  11.223  12.543  0.9901  1.8923 -0.1001
10235SOL    HW240636   1.759  11.099  12.626 -0.8002  0.7709 -2.2021
10236SOL     OW40637   5.735   9.379  12.051  0.1466  0.1999  0.1162
10236SOL    HW140638   5.762   9.440  12.120  0.2483 -1.6482  1.7819
10236SOL    HW240639   5.816   9.359  12.004  0.4262 -0.0195  0.6914
10237SOL     OW40640   8.882   7.601   5.426 -0.3149 -0.0609  0.5380
10237SOL    HW140641   8.829   7.526   5.398  2.1699 -0.9678 -2.3657
10237SOL    HW240642   8.855   7.673   5.370 -0.0704  0.1343  0.6666
10238SOL     OW40643   2.011   7.625  12.219  0.7121 -0.2804 -0.7848
10238SOL    HW140644   2.013   7.599  12.127 -1.2718 -0.3323 -0.8544
10238SOL    HW240645   1.964   7.555  12.263  1.8099 -0.3532  0.3366
10239SOL     OW40646   8.213  11.356  11.141 -0.0637 -0.0426 -0.0015
10239SOL    HW140647   8.150  11.305  11.090 -0.0783  0.9914 -1.0733
10239SOL    HW240648   8.296  11.308  11.133 -0.0444  0.1529 -1.1175
10240SOL     OW40649   2.044   5.078   2.745 -0.1852  0.3490  0.1638
10240SOL    HW140650   2.011   5.084   2.655 -1.1188 -1.3516  0.3591
10240SOL    HW240651   1.971   5.108   2.799  0.3264  1.2306  0.3892
10241SOL     OW40652   3.005  12.277   3.875 -0.8153  0.0844 -0.4049
10241SOL    HW140653   3.010  12.188   3.840  1.7116 -0.3374  0.8234
10241SOL    HW240654   3.043  12.332   3.807 -0.2652 -0.0950 -0.2455
10242SOL     OW40655   2.896   3.012   2.163  0.6601  0.4020  0.2268
10242SOL    HW140656   2.845   3.055   2.232  2.6621  0.5930  1.6633
10242SOL    HW240657   2.933   3.085   2.113 -0.8648  0.2665 -1.2073
10243SOL     OW40658   2.938   2.077   9.725  0.6245 -0.5996  0.5933
10243SOL    HW140659   2.932   2.173   9.722 -1.3825 -0.6149  2.1096
10243SOL    HW240660   2.876   2.051   9.793  0.9169 -3.0142  0.0290
10244SOL     OW40661   0.074  11.957   6.179 -0.0389 -0.7921  0.2226
10244SOL    HW140662   0.017  11.883   6.158  0.3932 -0.9561 -0.4104
10244SOL    HW240663   0.161  11.918   6.192  0.5895 -0.2530 -1.8954
10245SOL     OW40664   4.496   9.543   2.075 -0.0837 -0.3155 -0.1695
10245SOL    HW140665   4.505   9.638   2.063 -0.0267 -0.3593 -0.4784
10245SOL    HW240666   4.566   9.521   2.136  2.4051 -0.7344 -2.9791
10246SOL     OW40667   1.137   2.907   8.150  0.1009  0.2976  0.3595
10246SOL    HW140668   1.226   2.875   8.133  0.0883  0.2631  0.3593
10246SOL    HW240669   1.130   2.911   8.245 -0.2652 -0.7289  0.3787
10247SOL     OW40670   7.365   3.422   7.854  0.7187 -0.0675 -0.4146
10247SOL    HW140671   7.428   3.392   7.919  2.0291  2.0502 -0.6244
10247SOL    HW240672   7.305   3.348   7.843  2.5709 -1.8059  0.5046
10248SOL     OW40673   0.151  10.743  10.426  0.2594 -0.6931 -0.7349
10248SOL    HW140674   0.096  10.669  10.401 -0.1781 -1.2172  1.5538
10248SOL    HW240675   0.178  10.724  10.516  1.0075  1.4199 -0.4500
10249SOL     OW40676  12.193  10.374   7.864  0.3280  0.1550  0.4021
10249SOL    HW140677  12.116  10.427   7.844  0.3888 -0.0730 -0.4930
10249SOL    HW240678  12.267  10.433   7.847  0.4249 -0.4166 -1.3793
10250SOL     OW40679   8.003   9.995   2.832  0.4140 -0.5092 -0.0003
10250SOL    HW140680   8.014  10.083   2.794  1.2119  0.2298  1.8464
10250SOL    HW240681   7.919   9.965   2.798  0.0364  1.0406 -0.5463
10251SOL     OW40682   8.145   2.737   0.996  0.0267 -0.5778 -0.1384
10251SOL    HW140683   8.078   2.690   0.948  0.4867 -0.6331 -0.7376
10251SOL    HW240684   8.201   2.669   1.035  0.3064 -0.5328 -0.4573
10252SOL     OW40685   6.676   2.449   3.905  0.9439  0.5752 -0.7602
10252SOL    HW140686   6.739   2.382   3.879  0.4824 -0.3577  0.3871
10252SOL    HW240687   6.724   2.505   3.966  0.4521 -0.7261  0.9028
10253SOL     OW40688   7.098   7.005   0.854 -0.0632 -0.2780 -0.2896
10253SOL    HW140689   7.168   6.951   0.892  1.6034  2.0654  0.1831
10253SOL    HW240690   7.032   7.011   0.923  0.4391 -0.4810  0.2176
10254SOL     OW40691   7.517  13.180   7.761 -0.4607 -0.6746 -0.2785
10254SOL    HW140692   7.511  13.239   7.837  0.6982 -2.0229  0.9403
10254SOL    HW240693   7.570  13.228   7.698 -0.3713 -0.0141  0.2811
10255SOL     OW40694   2.082   7.959   2.153  0.1613  0.4031 -0.3322
10255SOL    HW140695   2.058   8.047   2.183  0.5876  0.3746  0.1159
10255SOL    HW240696   2.055   7.901   2.224  1.4852  0.3683  0.1732
10256SOL     OW40697   4.816   1.146   4.296 -0.1382  0.1022 -0.8570
10256SOL    HW140698   4.766   1.069   4.321  0.4133 -1.0082 -2.8970
10256SOL    HW240699   4.864   1.119   4.217  1.7298  1.8779 -0.4232
10257SOL     OW40700   2.700   6.556   4.110 -0.1218 -0.0850  0.4174
10257SOL    HW140701   2.765   6.488   4.089  1.5579  1.1212  1.4842
10257SOL    HW240702   2.678   6.540   4.201  0.4353  0.9028  0.7341
10258SOL     OW40703   1.554   4.743   9.397 -0.1091  0.1830 -0.2395
10258SOL    HW140704   1.540   4.829   9.358 -0.2380 -0.1961 -1.0488
10258SOL    HW240705   1.553   4.682   9.323 -2.0716 -0.7641  0.4922
10259SOL     OW40706  11.838  12.119  11.611  0.8395 -0.3955  0.1827
10259SOL    HW140707  11.784  12.198  11.599  1.7011  0.6288  2.4406
10259SOL    HW240708  11.798  12.054  11.553 -2.7769  0.3253  1.6149
10260SOL     OW40709   2.138   9.458   2.846  0.3537 -0.1431 -0.2555
10260SOL    HW140710   2.099   9.408   2.918  0.8776 -1.7725 -1.0540
10260SOL    HW240711   2.216   9.498   2.885  0.4562 -0.7340  0.1720
10261SOL     OW40712  12.892   3.056   4.987  0.5919  0.5657 -1.2800
10261SOL    HW140713  12.957   3.036   5.055 -0.1693 -1.7380 -1.1415
10261SOL    HW240714  12.846   3.133   5.020  1.7599  0.8827 -0.3098
10262SOL     OW40715  12.328   7.475   1.241 -0.5756  0.2238  0.0540
10262SOL    HW140716  12.251   7.419   1.233 -0.9116  0.7214 -0.2754
10262SOL    HW240717  12.379   7.458   1.162 -1.5070  1.5935 -0.8852
10263SOL     OW40718   7.516   6.520  12.947  0.3961  0.2647 -0.5304
10263SOL    HW140719   7.446   6.510  12.883  0.2654 -1.4050 -0.1646
10263SOL    HW240720   7.540   6.613  12.942 -1.5164  0.7767 -0.9761
10264SOL     OW40721   9.858   3.824   3.259 -0.3282  0.0828  0.2860
10264SOL    HW140722   9.823   3.850   3.344 -1.2165 -1.5533  0.4558
10264SOL    HW240723   9.782   3.821   3.201 -0.4068 -2.5588  0.4170
10265SOL     OW40724   3.407   6.537   3.473 -0.4184 -0.4648 -0.0768
10265SOL    HW140725   3.328   6.588   3.459  0.4608  0.8168 -0.5046
10265SOL    HW240726   3.390   6.488   3.554 -2.2777 -1.5251 -1.0360
10266SOL     OW40727  12.231   1.515   7.990  0.3609  0.0911 -0.2174
10266SOL    HW140728  12.214   1.473   8.075 -1.0557 -2.4805 -1.6488
10266SOL    HW240729  12.327   1.524   7.987  0.4308  0.4115  1.7046
10267SOL     OW40730  11.258   2.597  13.068 -0.1234  0.3256  0.3929
10267SOL    HW140731  11.347   2.612  13.036 -0.7552  0.0550 -1.6681
10267SOL    HW240732  11.253   2.502  13.082  0.0193  0.3894  0.8957
10268SOL     OW40733   1.172  10.183   5.336  0.0422 -0.5489  0.3044
10268SOL    HW140734   1.236  10.255   5.331  0.0521 -0.5964 -0.4475
10268SOL    HW240735   1.087  10.227   5.331  0.0512 -0.5956 -0.3107
10269SOL     OW40736  12.578   4.999   8.335  0.2452  0.0616 -0.4182
10269SOL    HW140737  12.669   5.030   8.335  0.4720 -0.5681  0.1840
10269SOL    HW240738  12.560   4.980   8.427 -0.2226 -0.6095 -0.6417
10270SOL     OW40739   0.280   2.491   0.686 -0.5220  0.2137 -0.2696
10270SOL    HW140740   0.244   2.578   0.668 -1.1497 -0.2466 -1.4125
10270SOL    HW240741   0.217   2.431   0.646 -0.0601 -0.7651  0.4324
10271SOL     OW40742  12.359   7.369   0.609  0.3167  0.1127 -0.5315
10271SOL    HW140743  12.424   7.299   0.618 -0.1477 -0.5310 -1.8885
10271SOL    HW240744  12.387   7.436   0.671  0.3705 -1.5608  1.3595
10272SOL     OW40745  12.541  13.071  12.048  0.2503 -0.1787 -0.0533
10272SOL    HW140746  12.472  13.125  12.008 -1.6415 -0.4387  2.5781
10272SOL    HW240747  12.542  12.991  11.996  0.4154  0.8359 -1.6876
10273SOL     OW40748   7.599   9.329   4.683  0.3390 -0.3749  0.2810
10273SOL    HW140749   7.588   9.247   4.730  0.7347  0.0033  1.0684
10273SOL    HW240750   7.682   9.319   4.636 -0.0420 -0.7438 -0.3150
10274SOL     OW40751   6.439   7.606   9.639  0.8973  0.1087  0.3605
10274SOL    HW140752   6.440   7.526   9.691  2.0248 -1.0598 -1.3442
10274SOL    HW240753   6.348   7.635   9.641  0.8977  0.2001  2.9902
10275SOL     OW40754  10.052   9.750  12.314  0.2829  0.0488 -0.0508
10275SOL    HW140755  10.089   9.714  12.233  0.5568 -1.7334  0.8137
10275SOL    HW240756  10.109   9.717  12.383 -1.6353 -0.9644  1.1375
10276SOL     OW40757   2.355   5.629   3.162 -0.0413 -0.0109  0.2657
10276SOL    HW140758   2.375   5.704   3.219  0.5297  0.6269 -0.7586
10276SOL    HW240759   2.327   5.668   3.079 -0.9626 -0.9334  0.1181
10277SOL     OW40760   0.394  10.717   0.105 -0.3719 -0.1827  0.2444
10277SOL    HW140761   0.360  10.628   0.095  0.8033 -0.9645  2.3931
10277SOL    HW240762   0.478  10.715   0.059  0.3890 -0.7252  1.5838
10278SOL     OW40763   1.306   6.554   9.423 -0.1993 -0.3028  0.0356
10278SOL    HW140764   1.396   6.563   9.456 -0.3694 -2.0215  1.0568
10278SOL    HW240765   1.255   6.614   9.477  0.2186  0.2842 -0.1961
10279SOL     OW40766  10.896   9.007   4.552  0.3709  0.0943 -0.2215
10279SOL    HW140767  10.945   9.015   4.634  2.1674 -0.6772 -1.1627
10279SOL    HW240768  10.928   9.079   4.498 -0.3574  0.2387 -0.4670
10280SOL     OW40769  11.643   3.741   2.728 -0.2456  0.4432 -0.4646
10280SOL    HW140770  11.670   3.666   2.675 -1.7403  0.0890 -0.7547
10280SOL    HW240771  11.665   3.818   2.675  1.0466  0.2331 -0.2785
10281SOL     OW40772   5.408  10.100   2.263  0.0906 -0.4821 -0.6029
10281SOL    HW140773   5.471  10.060   2.204  0.1972 -2.0860  0.5435
10281SOL    HW240774   5.324  10.058   2.241 -0.0262 -0.4734 -0.1790
10282SOL     OW40775   7.636   1.844   9.797  0.0625  0.3970  0.1063
10282SOL    HW140776   7.671   1.913   9.741  0.4620  0.9007  0.9536
10282SOL    HW240777   7.678   1.764   9.766 -1.4879  0.2565 -1.8381
10283SOL     OW40778   9.425   1.402   4.627  0.7213  0.5992 -0.3803
10283SOL    HW140779   9.439   1.350   4.549 -1.2911 -3.2252  1.5191
10283SOL    HW240780   9.511   1.409   4.668  1.0418 -1.7799 -0.5154
10284SOL     OW40781   5.683  10.677   1.229  0.2038  0.4868  0.2587
10284SOL    HW140782   5.667  10.588   1.199  0.1924  1.0199 -1.4078
10284SOL    HW240783   5.605  10.726   1.204  0.1116  0.9362  1.3658
10285SOL     OW40784  12.163   1.880   6.294 -0.6121 -0.1605 -0.2713
10285SOL    HW140785  12.145   1.786   6.292 -0.7510 -0.1340 -0.2669
10285SOL    HW240786  12.240   1.889   6.350  0.9229 -0.5376 -2.2079
10286SOL     OW40787   5.637   1.136   5.221 -0.5663 -0.3750 -0.6905
10286SOL    HW140788   5.669   1.097   5.140 -0.1045  2.8624 -2.2272
10286SOL    HW240789   5.565   1.193   5.194 -0.6201  0.5506  1.2032
10287SOL     OW40790  11.195   6.647  11.852  0.1226  0.2644  0.2239
10287SOL    HW140791  11.155   6.637  11.765 -3.1994  0.0868  1.6356
10287SOL    HW240792  11.203   6.558  11.885  1.8974  0.2899 -0.0311
10288SOL     OW40793   2.389   6.364   0.994 -0.3220  0.3101  0.1519
10288SOL    HW140794   2.371   6.310   0.917  0.3496  0.0916  0.1430
10288SOL    HW240795   2.413   6.300   1.062 -1.0565  0.4867  0.5940
10289SOL     OW40796   6.263   0.453  11.533 -0.3139 -0.6056 -0.1225
10289SOL    HW140797   6.179   0.408  11.545 -0.6704 -0.1760 -0.9267
10289SOL    HW240798   6.240   0.546  11.531  0.0675 -0.5248 -1.2118
10290SOL     OW40799   4.073   6.731   1.959 -0.3406 -0.1874 -0.3811
10290SOL    HW140800   3.998   6.744   1.902 -1.1746  0.8381  0.8775
10290SOL    HW240801   4.053   6.782   2.038  0.7397 -1.5457  0.8496
10291SOL     OW40802   9.312   6.842  12.706  0.0050  0.5172 -0.7335
10291SOL    HW140803   9.301   6.905  12.778 -1.2092  1.5365 -1.7750
10291SOL    HW240804   9.395   6.798  12.726 -0.5804  0.3511  1.5864
10292SOL     OW40805   4.043   5.443  11.057  0.5895 -0.0067 -0.1524
10292SOL    HW140806   3.985   5.366  11.059 -0.5778  0.8237 -0.4675
10292SOL    HW240807   4.129   5.407  11.036  0.1469 -1.2662  0.0549
10293SOL     OW40808   0.251  10.674   9.246  0.3158 -0.4838 -0.5491
10293SOL    HW140809   0.190  10.626   9.191  2.1377 -0.8319 -2.4003
10293SOL    HW240810   0.299  10.606   9.294 -1.4287 -0.1821  1.8154
10294SOL     OW40811   6.023   7.778   8.006 -0.4329 -0.5727  0.5474
10294SOL    HW140812   6.082   7.835   8.056  0.0846  0.6304 -1.3386
10294SOL    HW240813   6.078   7.703   7.981 -0.0707 -0.1319 -0.0128
10295SOL     OW40814   8.942   8.337   0.825 -0.0336  0.1165 -0.2880
10295SOL    HW140815   8.919   8.427   0.800  1.9514  0.8103  0.2404
10295SOL    HW240816   9.034   8.328   0.802 -0.4172 -2.1309 -1.1863
10296SOL     OW40817   2.664   6.236   4.452  0.1090  0.1946  0.0932
10296SOL    HW140818   2.746   6.243   4.403 -0.2982  1.1220 -0.4778
10296SOL    HW240819   2.692   6.239   4.544  0.8043 -0.7178 -0.0676
10297SOL     OW40820   7.301  11.063   3.974 -0.0230 -0.3343 -0.3986
10297SOL    HW140821   7.213  11.027   3.964 -0.4244  0.6436 -0.5212
10297SOL    HW240822   7.290  11.137   4.035  0.3343  1.0360 -1.9204
10298SOL     OW40823   9.093  11.230  10.007 -0.3307  0.3431  0.2161
10298SOL    HW140824   9.009  11.183  10.005 -1.0964  1.6154  0.8392
10298SOL    HW240825   9.139  11.193  10.082  0.5289 -1.7040 -1.2282
10299SOL     OW40826   9.687  12.929   7.648 -0.4421  0.0972  0.3729
10299SOL    HW140827   9.657  12.974   7.727  0.2618 -2.0125  1.9355
10299SOL    HW240828   9.608  12.890   7.611 -0.4139 -1.4128  1.7829
10300SOL     OW40829   5.949   0.848   7.680  0.7313 -0.1846  0.9062
10300SOL    HW140830   6.012   0.833   7.609  0.0826 -2.1344  0.6595
10300SOL    HW240831   5.993   0.909   7.739  1.3237  1.4325 -1.1122
10301SOL     OW40832   0.329  10.722   1.882 -0.0680  0.8055  0.4634
10301SOL    HW140833   0.258  10.683   1.933  0.8034 -0.9682  0.4019
10301SOL    HW240834   0.285  10.778   1.817 -1.2105  2.9154  2.8936
10302SOL     OW40835   7.871   8.701  12.833  0.0749  0.3800  0.0397
10302SOL    HW140836   7.824   8.756  12.896 -0.3163  0.5691 -0.4094
10302SOL    HW240837   7.815   8.701  12.755  0.7269  0.4525 -0.4383
10303SOL     OW40838   2.470   9.362   6.826 -0.2006 -0.4572  0.1829
10303SOL    HW140839   2.548   9.393   6.780  1.1526 -1.2051  1.8448
10303SOL    HW240840   2.415   9.439   6.833  1.2534  0.5904  0.6373
10304SOL     OW40841  11.763   4.389   4.914 -0.0354 -0.2960  0.0767
10304SOL    HW140842  11.670   4.405   4.929 -0.2164 -0.4596 -0.7849
10304SOL    HW240843  11.787   4.322   4.979 -0.3864  0.1269  0.6457
10305SOL     OW40844   3.950   7.871   4.266 -0.4875  0.7799 -0.0783
10305SOL    HW140845   3.888   7.827   4.324 -1.8612  1.2650 -1.1209
10305SOL    HW240846   3.933   7.833   4.180  0.4087  1.2021 -0.4478
10306SOL     OW40847   1.024   5.582   4.686 -0.7510 -0.0081  0.0179
10306SOL    HW140848   0.987   5.591   4.773  1.8885  0.4812  1.1859
10306SOL    HW240849   1.082   5.506   4.693 -0.0878  0.3670 -1.1461
10307SOL     OW40850  10.884  11.930   3.329 -0.2819  0.3263  0.4066
10307SOL    HW140851  10.959  11.873   3.314 -0.0601  0.4674  0.9471
10307SOL    HW240852  10.863  11.966   3.243  0.5116  0.5842  0.3131
10308SOL     OW40853  13.236   0.618   6.027 -0.1755  0.4483  0.0757
10308SOL    HW140854  13.167   0.665   6.073 -0.9229 -0.6014  0.0531
10308SOL    HW240855  13.264   0.678   5.957 -1.6188  0.5715 -0.4149
10309SOL     OW40856   3.734   2.444   7.215 -0.5148 -0.1030 -0.3679
10309SOL    HW140857   3.643   2.418   7.206  0.0202 -1.8204 -1.2090
10309SOL    HW240858   3.764   2.457   7.125 -0.0469  0.9297 -0.0788
10310SOL     OW40859   0.370   3.319   2.047 -0.7277  0.0708 -0.3772
10310SOL    HW140860   0.446   3.291   1.995 -0.4905 -0.6319  0.3154
10310SOL    HW240861   0.333   3.392   1.998  0.4268  0.4605 -0.7131
10311SOL     OW40862   8.286   7.139   8.120 -0.9861 -0.7301 -0.1676
10311SOL    HW140863   8.275   7.234   8.119 -0.2832 -0.6523 -0.3743
10311SOL    HW240864   8.259   7.111   8.033  2.6944 -0.2679 -1.6013
10312SOL     OW40865   9.972  12.527   0.083  0.0962 -0.6322 -0.3389
10312SOL    HW140866  10.030  12.488   0.018  2.1787  0.1557  0.9363
10312SOL    HW240867  10.008  12.614   0.099 -1.4033 -0.1262  0.5894
10313SOL     OW40868   5.854   2.916   4.851  0.5239  0.0517  0.0664
10313SOL    HW140869   5.820   3.002   4.875  1.4541  0.3458  0.3434
10313SOL    HW240870   5.793   2.854   4.891  0.6222  0.5618  1.0184
10314SOL     OW40871  12.253   1.895   2.223 -0.1190 -0.3812  0.4132
10314SOL    HW140872  12.294   1.973   2.261  2.1708 -1.5807  0.5257
10314SOL    HW240873  12.245   1.916   2.130 -0.5265  0.3747  0.6048
10315SOL     OW40874   6.732   6.253  10.872  0.0781 -0.4194  0.1416
10315SOL    HW140875   6.645   6.213  10.868 -0.3688  0.2944  1.8017
10315SOL    HW240876   6.742   6.281  10.963  1.7222  0.2512 -0.1964
10316SOL     OW40877   2.390  10.727   7.026 -0.1552  0.8968 -0.0828
10316SOL    HW140878   2.317  10.707   6.968 -0.9339  0.3606  1.0531
10316SOL    HW240879   2.403  10.647   7.077  0.3119  1.4548  0.6929
10317SOL     OW40880   6.438   3.038   0.339  0.6072 -0.1199 -0.1684
10317SOL    HW140881   6.454   3.078   0.253 -1.1719  0.6137 -0.2090
10317SOL    HW240882   6.453   2.945   0.324 -0.2163 -0.0764 -1.4481
10318SOL     OW40883   9.607   1.941   0.223 -0.3887 -0.1201  0.1912
10318SOL    HW140884   9.522   1.942   0.267 -0.5779  2.6320 -0.0465
10318SOL    HW240885   9.596   2.000   0.148  1.9296  1.0236  0.6533
10319SOL     OW40886   9.906   2.795   3.290 -0.2253  0.0777  0.7547
10319SOL    HW140887   9.838   2.834   3.235 -0.0038  0.7880  0.9822
10319SOL    HW240888   9.951   2.734   3.232  1.3530  2.2966 -0.5149
10320SOL     OW40889   4.648   2.937   0.172  0.6022 -0.2819  0.1703
10320SOL    HW140890   4.725   2.943   0.229 -0.2326 -0.2653  1.3324
10320SOL    HW240891   4.682   2.954   0.084  1.8083  0.3652  0.7366
10321SOL     OW40892   3.891   1.383   3.799 -0.8366  0.1514 -0.1418
10321SOL    HW140893   3.874   1.453   3.737 -1.0195  0.4201  0.2110
10321SOL    HW240894   3.843   1.307   3.763  1.0688 -0.4071 -1.6574
10322SOL     OW40895   0.572   7.909   8.322  0.3436  0.1945 -0.4145
10322SOL    HW140896   0.593   7.969   8.250 -0.8073 -0.2168 -1.1038
10322SOL    HW240897   0.655   7.866   8.342  0.4452 -0.6105 -2.3490
10323SOL     OW40898   5.198   8.936   2.910  0.0024 -0.1626 -0.2522
10323SOL    HW140899   5.214   8.851   2.951  0.9760  0.4097  0.6136
10323SOL    HW240900   5.104   8.936   2.892  0.0611 -1.6107 -0.7294
10324SOL     OW40901   2.329  11.639   5.755 -0.4261  0.6099  0.2390
10324SOL    HW140902   2.265  11.594   5.701  0.6338 -0.8637  0.1562
10324SOL    HW240903   2.347  11.579   5.827  2.3209  0.0049 -0.8177
10325SOL     OW40904  10.374   0.337   5.556  0.3691  0.1834 -0.0445
10325SOL    HW140905  10.456   0.288   5.549  0.3076  0.0571  0.1065
10325SOL    HW240906  10.329   0.298   5.630  0.9446  1.4010  0.9829
10326SOL     OW40907   8.606   7.387  10.013 -0.0717 -0.1347 -0.4883
10326SOL    HW140908   8.525   7.348   9.981 -0.8871  0.4001  0.8302
10326SOL    HW240909   8.579   7.439  10.089  1.1144  2.2176 -1.5738
10327SOL     OW40910   9.958   6.853   1.714  0.1607  0.0626  0.1842
10327SOL    HW140911   9.868   6.829   1.693 -0.2252 -0.6645  2.3851
10327SOL    HW240912   9.951   6.943   1.747  0.1622 -0.1449  0.7585
10328SOL     OW40913   9.341   7.100  11.400  0.2053 -0.1149 -0.1027
10328SOL    HW140914   9.353   7.186  11.441  0.9099  0.0557 -0.6481
10328SOL    HW240915   9.316   7.042  11.471 -1.7514  0.8386  0.0680
10329SOL     OW40916   5.347   6.230   6.441 -0.2267  0.7416  0.2323
10329SOL    HW140917   5.284   6.163   6.470  0.6147 -0.7898 -1.2760
10329SOL    HW240918   5.421   6.220   6.501 -0.3936  0.8171  0.4528
10330SOL     OW40919   7.014   6.491   6.325 -0.4259  0.5667  0.0718
10330SOL    HW140920   6.994   6.550   6.398  1.1324  0.8251  0.3370
10330SOL    HW240921   6.931   6.446   6.306 -0.7377  0.0031  2.4362
10331SOL     OW40922   0.789  11.182   3.395  0.0327  0.2921 -0.3814
10331SOL    HW140923   0.770  11.143   3.310 -0.8541  0.0602 -0.0867
10331SOL    HW240924   0.884  11.191   3.397  0.2887 -1.9165 -0.4619
10332SOL     OW40925  11.078  12.176   5.042  0.1741 -0.0286 -0.2752
10332SOL    HW140926  11.049  12.095   5.084  1.2010  0.2125  0.9757
10332SOL    HW240927  11.174  12.173   5.048  0.2459  1.0386 -0.6706
10333SOL     OW40928   3.656   6.165   1.480 -0.2236  0.7397  0.3998
10333SOL    HW140929   3.643   6.252   1.444  0.0099  0.2370 -0.9654
10333SOL    HW240930   3.749   6.146   1.466 -0.7255 -0.6340 -1.5473
10334SOL     OW40931   4.202  12.127   9.744  0.0732  0.0326 -0.3876
10334SOL    HW140932   4.283  12.170   9.717  0.1514 -0.4313 -0.8954
10334SOL    HW240933   4.133  12.182   9.708  0.1591  0.2405 -0.2412
10335SOL     OW40934   9.819  10.619   9.882 -0.0281  0.5250  0.3131
10335SOL    HW140935   9.730  10.586   9.865 -0.5598  1.4019  1.2977
10335SOL    HW240936   9.837  10.679   9.810  0.5890 -1.1429 -0.9977
10336SOL     OW40937   1.411   5.251   8.516 -0.1529  0.4915  0.6089
10336SOL    HW140938   1.443   5.333   8.553  2.6166  0.7836 -2.0597
10336SOL    HW240939   1.374   5.275   8.431  0.0705 -0.9238  0.0720
10337SOL     OW40940  11.870   6.942  10.710 -0.7788 -0.3320  0.2427
10337SOL    HW140941  11.836   6.885  10.641 -2.2407  0.2208  0.4785
10337SOL    HW240942  11.931   7.000  10.665 -0.3678 -1.1121 -0.2459
10338SOL     OW40943  12.236   9.948  11.282 -0.4549  0.0919  0.0897
10338SOL    HW140944  12.181   9.953  11.360 -1.0081 -2.6391 -0.0355
10338SOL    HW240945  12.289   9.869  11.295 -0.2933 -0.2164 -2.1004
10339SOL     OW40946  13.100   6.986   8.825 -0.3922 -0.1793 -0.0046
10339SOL    HW140947  13.027   7.026   8.777 -0.5315 -2.2776 -1.6738
10339SOL    HW240948  13.086   6.892   8.816  0.5446 -0.6821  2.8136
10340SOL     OW40949   9.128   9.350   7.294  0.1285  0.2463 -0.4098
10340SOL    HW140950   9.045   9.362   7.248  0.6642  1.6245 -1.0739
10340SOL    HW240951   9.119   9.402   7.374  0.6203  1.0659 -0.8692
10341SOL     OW40952   9.962   8.735   1.869  0.0993  0.1553 -0.0963
10341SOL    HW140953  10.024   8.695   1.809  1.0711  1.7152 -0.2036
10341SOL    HW240954   9.941   8.820   1.829 -0.0798  0.7597  1.2211
10342SOL     OW40955   4.472   2.877   9.932 -0.2987 -0.4024  0.1046
10342SOL    HW140956   4.392   2.825   9.938  1.2864 -3.1409 -0.9876
10342SOL    HW240957   4.479   2.899   9.840  1.4374 -2.3875 -0.2970
10343SOL     OW40958   0.031  12.610   8.281  1.0298 -0.0975 -0.5881
10343SOL    HW140959   0.027  12.615   8.186  1.1329  0.7435 -0.5539
10343SOL    HW240960  -0.056  12.639   8.310  1.6079  1.5025 -0.3778
10344SOL     OW40961   0.928   1.679   8.686 -0.4563 -0.8459 -0.5512
10344SOL    HW140962   0.851   1.643   8.730  0.4334 -0.1548  1.7178
10344SOL    HW240963   0.979   1.720   8.756 -0.4543  3.1814 -2.6017
10345SOL     OW40964  12.684   0.442  10.171  0.5567  0.1446 -0.3732
10345SOL    HW140965  12.765   0.489  10.149  0.3358  0.3506 -0.7417
10345SOL    HW240966  12.615   0.507  10.160  0.5276  0.6222  2.0714
10346SOL     OW40967   5.816   7.825   9.004 -0.5494 -0.3300  0.8122
10346SOL    HW140968   5.811   7.803   8.911 -1.2122  1.8055  0.2755
10346SOL    HW240969   5.748   7.773   9.045 -0.9991 -0.4789 -0.0926
10347SOL     OW40970   0.594   5.077   4.248 -0.0453  0.2453 -0.1230
10347SOL    HW140971   0.576   4.984   4.262  1.5758 -0.0034  0.5507
10347SOL    HW240972   0.508   5.119   4.250 -0.6986 -1.0689  0.8671
10348SOL     OW40973  11.382  12.077   9.080 -0.3070  0.0304 -0.3823
10348SOL    HW140974  11.307  12.136   9.091  1.6973  2.4395  1.4024
10348SOL    HW240975  11.413  12.095   8.991 -1.1224 -0.1266 -0.7122
10349SOL     OW40976  12.090   8.108  11.294  0.2291  0.7832  0.1720
10349SOL    HW140977  12.116   8.121  11.385 -0.3485 -1.4233  0.7315
10349SOL    HW240978  12.171   8.088  11.248  0.3581  0.5443  0.4973
10350SOL     OW40979   6.832   7.022   0.187  0.2579 -0.2473 -0.0685
10350SOL    HW140980   6.913   7.028   0.135 -0.6730 -0.5646 -1.6067
10350SOL    HW240981   6.762   7.017   0.122 -1.0307  0.1818  1.2409
10351SOL     OW40982   2.648   2.760   9.659 -0.0028  0.0135 -0.2788
10351SOL    HW140983   2.627   2.789   9.748 -2.4033  1.0443 -1.1082
10351SOL    HW240984   2.678   2.839   9.615  0.0857 -0.2457 -0.6829
10352SOL     OW40985   8.600   1.270   2.403 -0.1187  0.0345 -0.0353
10352SOL    HW140986   8.676   1.329   2.398  0.9690 -1.3417 -0.4078
10352SOL    HW240987   8.528   1.326   2.431  0.9106  1.5024 -0.2130
10353SOL     OW40988  13.146   3.692   4.532  0.3521 -0.5750  0.0318
10353SOL    HW140989  13.187   3.608   4.513  0.4735 -0.9052  1.6359
10353SOL    HW240990  13.117   3.685   4.623 -3.5982 -0.4973 -1.0437
10354SOL     OW40991   7.658   9.848   7.719  0.5633 -0.2629 -0.2662
10354SOL    HW140992   7.693   9.889   7.799  0.5393  0.8170 -0.7883
10354SOL    HW240993   7.736   9.817   7.672  0.8017  1.2865 -0.9688
10355SOL     OW40994   9.060   2.932  12.626 -0.1331  0.3369  0.1227
10355SOL    HW140995   9.059   2.989  12.704 -0.9644 -0.9700  1.1099
10355SOL    HW240996   9.065   2.844  12.662 -0.5582 -0.2927 -1.3255
10356SOL     OW40997   6.705   6.504   6.945  0.1741  0.0295  0.5668
10356SOL    HW140998   6.653   6.424   6.941  1.6234 -0.8965 -2.2925
10356SOL    HW240999   6.655   6.568   6.894  1.2646 -0.5456 -1.2764
10357SOL     OW41000   4.244   4.274   6.993 -0.1241 -0.5944  0.1325
10357SOL    HW141001   4.219   4.366   7.002  2.0844  0.0083  0.5145
10357SOL    HW241002   4.269   4.247   7.081  2.2562 -0.5888 -0.4814
10358SOL     OW41003  11.343   8.358   5.077 -0.1320 -0.1581  0.4981
10358SOL    HW141004  11.331   8.287   5.015  1.2364  0.5535 -0.6563
10358SOL    HW241005  11.394   8.424   5.029 -2.2199  2.1027  1.1583
10359SOL     OW41006  12.489   1.773   4.273 -0.1997  0.4276  0.4235
10359SOL    HW141007  12.426   1.701   4.268  0.6896 -0.4393  1.0183
10359SOL    HW241008  12.561   1.745   4.217 -1.3845  2.6019 -2.4274
10360SOL     OW41009  10.789   4.525   5.539  0.4186 -0.4059 -0.6483
10360SOL    HW141010  10.755   4.578   5.610  3.2857 -1.1289  1.4351
10360SOL    HW241011  10.745   4.440   5.549 -1.0854  0.2302 -1.4397
10361SOL     OW41012   0.104   3.737   4.698 -0.1705  0.6714 -0.0683
10361SOL    HW141013   0.081   3.654   4.656 -0.8111  0.7017  0.2095
10361SOL    HW241014   0.106   3.801   4.626 -1.3959  0.7513 -0.0392
10362SOL     OW41015   9.773  10.416   7.624 -0.6181 -0.2577 -0.3944
10362SOL    HW141016   9.749  10.451   7.710  1.2451  2.4588 -0.8545
10362SOL    HW241017   9.717  10.462   7.562 -0.7537 -0.9254 -0.7805
10363SOL     OW41018   8.890  12.654   1.101 -0.0872  0.0162  0.8473
10363SOL    HW141019   8.861  12.735   1.143  0.3774  0.9245 -0.5068
10363SOL    HW241020   8.812  12.598   1.100 -0.7077  0.8558  0.8813
10364SOL     OW41021   3.171   2.407   4.510 -0.2865  0.7029 -0.1424
10364SOL    HW141022   3.266   2.403   4.516 -0.2254  0.4895 -1.0965
10364SOL    HW241023   3.153   2.482   4.452 -0.6029 -0.4348 -1.5979
10365SOL     OW41024   5.043   0.979  11.120 -0.7245  0.2751  0.2029
10365SOL    HW141025   5.093   0.946  11.045 -1.2810  0.5965 -0.3189
10365SOL    HW241026   5.083   0.938  11.196 -0.0479  0.0698 -0.2612
10366SOL     OW41027   9.001   7.567  11.532 -0.2584  0.2162 -0.6087
10366SOL    HW141028   9.075   7.596  11.479 -0.6786  0.5307 -1.0285
10366SOL    HW241029   8.925   7.572  11.473 -1.2893  3.4459  0.7837
10367SOL     OW41030   4.507   3.340   4.737  0.7178  0.3806  0.3724
10367SOL    HW141031   4.420   3.318   4.772  1.6996 -3.3349  0.9436
10367SOL    HW241032   4.489   3.391   4.658 -1.8630  1.4334  1.5289
10368SOL     OW41033   1.133   0.739   2.153 -0.4272 -0.2881  1.0283
10368SOL    HW141034   1.131   0.643   2.152  0.1145 -0.3099 -0.3844
10368SOL    HW241035   1.179   0.763   2.072 -0.7486  1.1744  1.2494
10369SOL     OW41036   7.003   6.287   4.950 -0.0801 -0.0068  0.3436
10369SOL    HW141037   6.995   6.375   4.989 -0.8406 -0.1349  0.5024
10369SOL    HW241038   6.912   6.262   4.931  0.2798  0.2694 -2.0154
10370SOL     OW41039   9.819  12.197   8.386 -0.8812  0.1705  0.2142
10370SOL    HW141040   9.810  12.164   8.476  0.6601  1.6208  0.9528
10370SOL    HW241041   9.909  12.177   8.361 -0.4163  2.1870  0.0745
10371SOL     OW41042  12.675   9.196   3.541 -0.6399  0.2093 -0.5276
10371SOL    HW141043  12.610   9.180   3.610 -0.4069 -0.1205 -0.3846
10371SOL    HW241044  12.664   9.123   3.480  0.5599 -0.6302  0.2304
10372SOL     OW41045  10.343   8.735  10.725 -0.2340 -0.1676 -0.1687
10372SOL    HW141046  10.264   8.782  10.700 -0.3804 -0.6279 -0.5805
10372SOL    HW241047  10.381   8.705  10.642  0.0315 -0.4971  0.0660
10373SOL     OW41048   2.663   8.882   3.783 -0.4602  0.0733  0.0663
10373SOL    HW141049   2.586   8.827   3.790 -0.6840  0.2267 -1.0430
10373SOL    HW241050   2.650   8.932   3.702 -0.9422  2.8118  1.7162
10374SOL     OW41051   3.383   6.489   0.752 -0.5272  0.2515 -0.1855
10374SOL    HW141052   3.326   6.424   0.795 -0.7636  0.3112 -0.4024
10374SOL    HW241053   3.452   6.436   0.711  1.3600  0.3448  2.6114
10375SOL     OW41054   9.409   2.267  11.754  0.5631  0.2749 -0.2536
10375SOL    HW141055   9.414   2.311  11.670 -0.0251 -0.6607 -0.7998
10375SOL    HW241056   9.359   2.327  11.810  0.5017  0.6717 -0.7266
10376SOL     OW41057   9.372   8.357   5.925  0.1826 -0.1777 -0.6315
10376SOL    HW141058   9.467   8.366   5.925  0.0546  1.5132  0.0369
10376SOL    HW241059   9.340   8.436   5.882 -1.0311  1.7823  3.3598
10377SOL     OW41060   5.306   1.180   8.029 -0.4816  0.0301  0.3575
10377SOL    HW141061   5.390   1.189   8.074  0.2092 -2.1735 -0.3337
10377SOL    HW241062   5.326   1.197   7.937 -1.1733  1.1844  0.4098
10378SOL     OW41063   7.221   5.498  10.545 -0.4255 -0.0993  0.5722
10378SOL    HW141064   7.197   5.512  10.453 -2.2977  1.9787  1.2810
10378SOL    HW241065   7.185   5.411  10.566  0.1138 -0.6442 -0.6492
10379SOL     OW41066   2.583   4.555   5.247 -0.2466  0.3216 -0.5027
10379SOL    HW141067   2.585   4.650   5.260 -1.6833  0.1332  1.7645
10379SOL    HW241068   2.671   4.525   5.271  0.2644  1.0704 -1.3890
10380SOL     OW41069   1.767   5.394   3.581 -0.2621  0.0342 -0.3328
10380SOL    HW141070   1.789   5.367   3.670 -0.8250  0.0176 -0.1923
10380SOL    HW241071   1.706   5.327   3.550 -1.6363  1.0754  0.0010
10381SOL     OW41072  10.632  12.782   1.334  0.0059 -0.1062 -0.1476
10381SOL    HW141073  10.641  12.718   1.264  0.4629  1.6583 -1.7769
10381SOL    HW241074  10.722  12.798   1.364 -0.0049  0.4749 -0.4155
10382SOL     OW41075  10.188   5.932  10.682 -0.7655  0.3740  0.2306
10382SOL    HW141076  10.127   5.999  10.652 -0.9685  0.9040  1.7588
10382SOL    HW241077  10.134   5.872  10.734 -0.0910  0.5977  1.2170
10383SOL     OW41078   3.858   1.490   2.508 -0.6305  0.2131 -0.1960
10383SOL    HW141079   3.815   1.458   2.428 -4.5153 -1.5123  2.2555
10383SOL    HW241080   3.915   1.418   2.535 -1.7352 -0.5668  0.1367
10384SOL     OW41081   9.110   6.878   8.911 -0.5113 -0.3729 -0.1408
10384SOL    HW141082   9.202   6.850   8.914 -0.4683 -0.1926  1.1390
10384SOL    HW241083   9.115   6.973   8.920 -0.8408 -0.4422  0.9480
10385SOL     OW41084   2.437   9.515  13.253  0.4550  0.3100 -0.6360
10385SOL    HW141085   2.427   9.569  13.175 -1.2879  0.1307 -0.5626
10385SOL    HW241086   2.363   9.454  13.250  1.0351 -0.4854  0.5383
10386SOL     OW41087   4.059  11.458   8.107 -0.0428 -0.0375 -0.4282
10386SOL    HW141088   4.086  11.455   8.198  2.0224  1.2902 -0.9236
10386SOL    HW241089   4.092  11.377   8.069  0.1205 -0.0587 -0.2410
10387SOL     OW41090   4.416  11.982   5.244 -0.2611  0.0874 -0.1635
10387SOL    HW141091   4.338  11.937   5.210  0.6861 -0.9244 -1.1236
10387SOL    HW241092   4.384  12.067   5.274 -1.3554  0.7880 -2.9598
10388SOL     OW41093  12.845  11.160   6.635  0.0681 -0.0034 -0.3479
10388SOL    HW141094  12.913  11.143   6.570  0.6865  0.9463  0.0336
10388SOL    HW241095  12.869  11.105   6.709 -1.2615 -1.9698 -1.2750
10389SOL     OW41096   3.807  13.005  11.822 -0.1431 -0.3622 -0.0275
10389SOL    HW141097   3.806  12.921  11.869  2.7482 -1.2524 -1.3484
10389SOL    HW241098   3.856  13.064  11.878  1.7363 -0.9073 -1.0370
10390SOL     OW41099  10.657   9.988   3.322  0.0752 -0.1432  0.4058
10390SOL    HW141100  10.647  10.033   3.238  1.5086 -0.3025  0.1340
10390SOL    HW241101  10.641   9.896   3.302 -1.2576  0.0086  0.6568
10391SOL     OW41102   3.303   8.261   5.425 -0.5285 -0.2137 -0.0038
10391SOL    HW141103   3.388   8.302   5.443 -0.4290 -0.7731  0.8961
10391SOL    HW241104   3.260   8.320   5.363  0.6446 -0.0851 -0.7334
10392SOL     OW41105   5.350  12.137   9.723 -0.0090 -0.6782  0.0813
10392SOL    HW141106   5.299  12.216   9.739  0.9642 -0.1246  0.5491
10392SOL    HW241107   5.401  12.124   9.803 -0.3999 -1.9787  0.1430
10393SOL     OW41108  10.231   4.263  11.342 -0.0336 -0.1623 -0.1053
10393SOL    HW141109  10.267   4.316  11.414  0.8150 -0.0658 -0.5874
10393SOL    HW241110  10.136   4.265  11.356  0.1808 -1.6568  2.0781
10394SOL     OW41111   3.545   6.874   1.335  0.0739 -0.1071  0.1299
10394SOL    HW141112   3.539   6.969   1.323  0.0628 -0.1603 -0.3087
10394SOL    HW241113   3.637   6.854   1.322  0.7159  0.2352  3.3113
10395SOL     OW41114  11.563   3.773   3.918  0.2484 -0.5116 -0.1567
10395SOL    HW141115  11.613   3.695   3.895  1.1611  0.1963 -0.6775
10395SOL    HW241116  11.514   3.795   3.839 -0.2880 -0.7519  0.1036
10396SOL     OW41117   3.839   5.287   5.833 -0.1387  0.3412  0.4340
10396SOL    HW141118   3.916   5.249   5.876  0.6841  0.9515 -0.4813
10396SOL    HW241119   3.802   5.215   5.782  0.7030  0.4426 -0.3243
10397SOL     OW41120   3.733  12.068   6.839  0.2145  0.8506  0.3806
10397SOL    HW141121   3.663  12.132   6.839  0.6777  1.3638  1.1734
10397SOL    HW241122   3.716  12.012   6.915  0.6898  1.0109  0.6104
10398SOL     OW41123   0.722   9.332   2.383 -0.4275  0.1425 -0.1657
10398SOL    HW141124   0.675   9.416   2.384  0.3523  0.5902 -0.1704
10398SOL    HW241125   0.803   9.349   2.431 -0.2902 -0.6281 -0.1136
10399SOL     OW41126  11.381   8.064   0.875 -0.8933 -0.3160 -0.0694
10399SOL    HW141127  11.378   8.096   0.965  0.7048 -2.4953  0.8580
10399SOL    HW241128  11.293   8.030   0.858 -1.0666 -0.3730  0.8826
10400SOL     OW41129   6.626   9.996   9.286  0.9530  0.3314  0.1435
10400SOL    HW141130   6.703   9.964   9.240  0.9766  0.8919 -0.2197
10400SOL    HW241131   6.552   9.975   9.228  0.9884  1.0823 -0.1916
10401SOL     OW41132   8.510   2.791   1.293  0.5072  0.0174  0.1324
10401SOL    HW141133   8.565   2.841   1.354 -0.5092  1.4241 -0.0401
10401SOL    HW241134   8.555   2.797   1.209  0.9146 -0.2442  0.3309
10402SOL     OW41135   4.448   2.389   0.913 -0.2282  0.2817  0.7582
10402SOL    HW141136   4.491   2.404   0.829  0.8920  1.1517  1.4523
10402SOL    HW241137   4.507   2.329   0.959 -1.4158 -1.1254  0.5122
10403SOL     OW41138  11.345   3.089   8.896  0.5576 -0.1458 -0.5165
10403SOL    HW141139  11.370   3.043   8.816 -2.1580  1.1147 -2.2448
10403SOL    HW241140  11.265   3.045   8.925  1.2558 -0.3047  1.3159
10404SOL     OW41141   8.247   3.170   1.349  0.6454 -0.6476 -0.3044
10404SOL    HW141142   8.303   3.235   1.306 -2.4623  0.0860 -3.8010
10404SOL    HW241143   8.243   3.098   1.286 -1.4375 -1.0799  0.2550
10405SOL     OW41144   7.407  11.609  12.182  0.4342  0.7275  0.5611
10405SOL    HW141145   7.369  11.600  12.095  0.4573  1.3949  0.4744
10405SOL    HW241146   7.457  11.529  12.196  0.0130  0.3969  0.1681
10406SOL     OW41147   0.689  12.743   7.736  0.4604 -0.0695 -0.2304
10406SOL    HW141148   0.731  12.776   7.816 -0.5941 -1.0875  0.8027
10406SOL    HW241149   0.712  12.806   7.669  1.5543  0.7263  0.8330
10407SOL     OW41150   9.741   1.062   9.353 -0.3726  0.2864 -0.3174
10407SOL    HW141151   9.735   0.972   9.321 -0.5610  0.0033  0.4798
10407SOL    HW241152   9.650   1.088   9.368 -0.3318  0.6945 -0.7551
10408SOL     OW41153   2.901   5.575   9.418  0.2059  0.2022 -0.2581
10408SOL    HW141154   2.866   5.664   9.420  0.9385  0.6033 -2.2805
10408SOL    HW241155   2.964   5.572   9.489  1.0847  1.7366 -0.9274
10409SOL     OW41156  11.713  12.262   9.982  0.2734 -0.5260  0.1553
10409SOL    HW141157  11.695  12.229  10.070 -0.4222  0.2072  0.3129
10409SOL    HW241158  11.674  12.350   9.982  0.8994 -0.2363 -0.6564
10410SOL     OW41159   0.695   4.678   2.053  0.4180 -0.3439  0.1571
10410SOL    HW141160   0.746   4.652   1.977  0.7269  1.0925 -0.1373
10410SOL    HW241161   0.721   4.768   2.071 -0.6431 -0.2058  1.1397
10411SOL     OW41162   1.664   4.192   3.638 -0.5594 -0.3002  0.4310
10411SOL    HW141163   1.651   4.253   3.711 -1.5240  0.9394 -0.7232
10411SOL    HW241164   1.649   4.105   3.676 -1.3079  0.3392  1.6442
10412SOL     OW41165   3.965   3.178   6.020 -0.6008  0.1205  0.6452
10412SOL    HW141166   4.015   3.104   6.052 -0.2284 -1.2073 -2.5628
10412SOL    HW241167   3.885   3.179   6.072  0.1668 -1.4300  1.9073
10413SOL     OW41168   2.009   2.306   8.262  0.2868  0.5402  0.0731
10413SOL    HW141169   2.020   2.295   8.356  0.7300  1.5181  0.1430
10413SOL    HW241170   1.936   2.366   8.253  0.7052  1.0139 -0.1863
10414SOL     OW41171   6.037   3.483   1.259 -0.3243  0.1307  0.5651
10414SOL    HW141172   6.058   3.393   1.238 -1.8174 -0.0231 -0.4515
10414SOL    HW241173   5.990   3.516   1.182  1.6494  2.3372  0.1838
10415SOL     OW41174   5.660   2.441   7.776 -0.5873  0.3810 -0.2478
10415SOL    HW141175   5.661   2.433   7.681 -1.2754 -0.6103 -0.1876
10415SOL    HW241176   5.601   2.372   7.805 -1.8143  1.8130  0.8047
10416SOL     OW41177   4.680   9.853   3.321 -0.7352 -0.2128  0.3314
10416SOL    HW141178   4.592   9.882   3.295 -0.7801 -0.3872  0.2898
10416SOL    HW241179   4.676   9.758   3.318 -0.2323 -0.2154 -0.7530
10417SOL     OW41180   3.899   3.950   1.410 -0.1305 -0.7211 -0.1597
10417SOL    HW141181   3.870   4.025   1.461 -0.1538 -0.1440 -1.0006
10417SOL    HW241182   3.994   3.945   1.426 -0.2492 -0.9713  0.4798
10418SOL     OW41183   5.133   4.743  11.929 -0.2796  0.2347 -0.5920
10418SOL    HW141184   5.213   4.796  11.938 -2.0826  2.9490  0.8232
10418SOL    HW241185   5.140   4.677  11.998  0.5048  0.7915 -0.1246
10419SOL     OW41186   3.068   9.915   5.736 -0.4107  0.0403 -0.0500
10419SOL    HW141187   3.042   9.838   5.786  1.7315  0.4242  1.7779
10419SOL    HW241188   3.163   9.911   5.732 -0.3357  1.7681 -1.3349
10420SOL     OW41189   4.846   4.253   7.882  0.2536  0.3201  0.6765
10420SOL    HW141190   4.908   4.321   7.859 -0.3833  0.6929  0.0025
10420SOL    HW241191   4.872   4.177   7.829 -1.3267  1.2337 -1.5617
10421SOL     OW41192   5.474   8.464   2.421 -0.1875 -0.6069  0.0180
10421SOL    HW141193   5.468   8.403   2.348 -1.7721 -0.4628  0.0002
10421SOL    HW241194   5.470   8.408   2.499 -0.2144 -0.6224  0.0050
10422SOL     OW41195  10.334   0.868   0.630 -0.4134  0.4408 -0.3297
10422SOL    HW141196  10.331   0.777   0.600 -0.7101  0.6823 -1.0353
10422SOL    HW241197  10.329   0.920   0.551 -2.7768  1.1102  0.1818
10423SOL     OW41198   1.840   5.262  11.966  0.3766  0.6224  0.1234
10423SOL    HW141199   1.800   5.199  11.905  0.4750 -0.2349  0.9286
10423SOL    HW241200   1.934   5.252  11.952  0.3779  2.0619 -1.1889
10424SOL     OW41201  12.214   4.770   9.121 -0.2608  0.7021  0.2236
10424SOL    HW141202  12.257   4.839   9.070 -1.4059 -0.0445 -1.8503
10424SOL    HW241203  12.134   4.811   9.154 -0.4954  0.6345 -0.2521
10425SOL     OW41204  10.831  11.057   9.230 -0.2475  0.0955 -0.5159
10425SOL    HW141205  10.836  10.968   9.197 -0.1227 -0.0350 -0.1497
10425SOL    HW241206  10.740  11.067   9.259 -0.6312  0.5390 -1.7879
10426SOL     OW41207   1.665   1.048   9.894 -0.1951  0.4303  0.3099
10426SOL    HW141208   1.601   1.108   9.932  1.8511  1.6636  1.9820
10426SOL    HW241209   1.666   1.070   9.801 -1.1677  1.3704  0.5043
10427SOL     OW41210   9.167   7.188   6.853  0.1655 -0.2412  0.4900
10427SOL    HW141211   9.117   7.156   6.928  1.0030  1.7600  2.0270
10427SOL    HW241212   9.254   7.207   6.889  1.2013 -0.9734 -1.4554
10428SOL     OW41213   4.636   7.370   7.151  0.6362  0.4837 -0.3284
10428SOL    HW141214   4.673   7.366   7.239 -0.7379 -0.9570  0.2332
10428SOL    HW241215   4.711   7.355   7.094  1.0615 -2.2315  0.7744
10429SOL     OW41216  11.245   8.942  10.099  0.0951 -0.0975  0.6748
10429SOL    HW141217  11.212   9.028  10.126  1.0221 -0.1404  2.0416
10429SOL    HW241218  11.178   8.908  10.039 -1.4602  0.5551  1.9831
10430SOL     OW41219   7.851   6.556   1.625 -0.7373  0.4125 -0.7682
10430SOL    HW141220   7.789   6.621   1.592 -2.7483 -1.5815 -1.1353
10430SOL    HW241221   7.806   6.513   1.698  1.2337  0.5596  0.6440
10431SOL     OW41222   3.062  13.061   2.575  0.0636 -0.9838  0.2025
10431SOL    HW141223   3.023  13.114   2.506  1.2410  0.1553  0.3624
10431SOL    HW241224   2.987  13.017   2.617 -0.6901 -1.4848 -1.5719
10432SOL     OW41225  12.991   7.576   6.749 -0.8130 -0.1099 -0.1563
10432SOL    HW141226  12.913   7.520   6.752  0.0453 -1.3853 -0.8633
10432SOL    HW241227  13.031   7.557   6.664  0.7586 -0.1655  0.5666
10433SOL     OW41228   2.613  10.042   5.880  0.0263  0.5563 -0.1653
10433SOL    HW141229   2.708  10.032   5.887  0.1737  0.8965 -1.3966
10433SOL    HW241230   2.600  10.093   5.799 -1.3561 -2.4138 -1.9878
10434SOL     OW41231  10.924  10.087   5.549 -0.0286 -0.6152 -0.3810
10434SOL    HW141232  10.989  10.066   5.616 -0.1629  3.0253  1.0927
10434SOL    HW241233  10.966  10.061   5.466  2.4620 -0.2365  0.6764
10435SOL     OW41234   3.367  10.793   4.097  0.2241 -0.1259 -0.1130
10435SOL    HW141235   3.453  10.751   4.088  0.7772  1.1101 -0.9832
10435SOL    HW241236   3.383  10.869   4.154 -0.2853  0.1109 -0.2736
10436SOL     OW41237   8.413   5.727   3.885 -0.3302  0.0916  0.9218
10436SOL    HW141238   8.446   5.698   3.800  0.4039 -0.1617  1.2833
10436SOL    HW241239   8.337   5.672   3.902 -1.3757  1.1392 -0.2343
10437SOL     OW41240   6.238   5.740   9.232  0.4140  0.6930 -0.4194
10437SOL    HW141241   6.209   5.706   9.147  1.6313 -0.0536 -0.5620
10437SOL    HW241242   6.174   5.708   9.295  0.5842 -0.4092 -0.7958
10438SOL     OW41243   2.088   4.299   5.530  0.3271 -0.3421  0.0956
10438SOL    HW141244   2.077   4.349   5.449  0.7092  1.5252  1.1378
10438SOL    HW241245   1.999   4.293   5.567  0.2054 -0.9044 -0.2677
10439SOL     OW41246   4.897  12.609  12.882  0.0272 -0.1442 -0.5303
10439SOL    HW141247   4.861  12.546  12.945 -0.8160  0.2209 -0.6206
10439SOL    HW241248   4.934  12.679  12.937  1.6547 -1.0520 -0.4171
10440SOL     OW41249   1.483   5.235   0.560 -0.4063 -0.5462  0.0495
10440SOL    HW141250   1.527   5.162   0.516  2.2314  0.8154  0.2464
10440SOL    HW241251   1.492   5.215   0.653  1.0421  0.3745  0.1276
10441SOL     OW41252   3.828  11.024   9.305  0.0739 -0.4157  0.6160
10441SOL    HW141253   3.826  10.958   9.235 -1.8166  0.3406 -0.1058
10441SOL    HW241254   3.778  10.986   9.376 -0.1700 -0.1773  0.5758
10442SOL     OW41255   3.440  11.545   3.778 -0.2966 -0.0944 -0.0671
10442SOL    HW141256   3.509  11.582   3.722 -0.0428 -0.5193 -0.0362
10442SOL    HW241257   3.450  11.590   3.862  0.1543 -0.3900  0.0389
10443SOL     OW41258   2.074   6.729   3.091  0.4157 -0.3481  0.3226
10443SOL    HW141259   2.032   6.644   3.081 -3.7689  1.7442 -3.3054
10443SOL    HW241260   2.128   6.739   3.013  1.7303 -0.0155  1.2437
10444SOL     OW41261   8.937   6.900   8.691  0.0907 -0.1172 -0.4321
10444SOL    HW141262   8.931   6.820   8.639  0.7454  0.2713 -1.1147
10444SOL    HW241263   9.016   6.889   8.744  0.2137  0.0989 -0.5695
10445SOL     OW41264   3.791   4.529   0.481  0.0186  0.6012  0.8192
10445SOL    HW141265   3.881   4.550   0.505  0.9586 -1.7359 -0.3286
10445SOL    HW241266   3.780   4.562   0.392 -0.7332  2.0144  1.4046
10446SOL     OW41267  10.060   7.556  12.262  0.0749 -0.0214  0.1766
10446SOL    HW141268  10.144   7.592  12.234  0.0147  0.6762  0.8481
10446SOL    HW241269   9.995   7.614  12.225  0.0368  1.8302  2.8786
10447SOL     OW41270   1.613   7.983  13.220  0.0215 -0.0403  0.2277
10447SOL    HW141271   1.683   7.999  13.157  1.4086 -1.5825  1.2666
10447SOL    HW241272   1.533   7.986  13.169  0.8749  1.2895 -1.1007
10448SOL     OW41273   0.457   7.600   6.715  0.1205  0.8178  0.0757
10448SOL    HW141274   0.507   7.605   6.797 -1.3633 -1.4179  1.2028
10448SOL    HW241275   0.375   7.645   6.734 -1.4119 -2.1046  0.8587
10449SOL     OW41276   3.994   8.829   3.597  0.1103  0.0400 -0.0304
10449SOL    HW141277   4.003   8.734   3.607  0.1250  0.2584  3.2294
10449SOL    HW241278   4.002   8.863   3.686  0.6139  3.1800 -1.1417
10450SOL     OW41279   6.732   8.925   2.417  0.2714 -0.1195  0.1970
10450SOL    HW141280   6.677   8.847   2.422 -0.2761  0.3306  1.5303
10450SOL    HW241281   6.815   8.893   2.379  0.3981 -1.5536  1.5754
10451SOL     OW41282   2.220   5.233   4.119 -0.2574  0.2991 -0.0589
10451SOL    HW141283   2.299   5.187   4.148  1.2188  1.0941 -2.4676
10451SOL    HW241284   2.212   5.307   4.180 -0.1633 -0.7084  1.2266
10452SOL     OW41285  10.383  12.882   0.491  0.2319 -0.1575 -0.0809
10452SOL    HW141286  10.377  12.971   0.526  1.8031 -0.1682  0.2805
10452SOL    HW241287  10.477  12.865   0.484  0.0448 -2.4908  1.7249
10453SOL     OW41288   2.043  10.395   6.650 -0.0858  0.8310 -0.3247
10453SOL    HW141289   1.961  10.386   6.699  1.3873 -1.3010  1.9458
10453SOL    HW241290   2.047  10.489   6.629 -3.0312  1.0220 -0.5084
10454SOL     OW41291   8.444   7.782   4.172  0.3273 -0.0664  0.0360
10454SOL    HW141292   8.493   7.856   4.206 -0.4143  0.1636  0.6196
10454SOL    HW241293   8.370   7.820   4.126 -0.6262 -0.4435  1.2081
10455SOL     OW41294   6.284   8.509   5.303  0.0022  0.3066  0.4448
10455SOL    HW141295   6.241   8.462   5.231 -1.1201  2.1165 -0.1242
10455SOL    HW241296   6.365   8.542   5.265 -0.2617  0.6769  0.1944
10456SOL     OW41297   2.053   2.992  12.729  0.4356  0.5807 -0.6736
10456SOL    HW141298   2.036   2.913  12.676  1.0153  0.2965 -0.4367
10456SOL    HW241299   2.009   2.975  12.812  0.4763  0.5508 -0.6583
10457SOL     OW41300  12.039   3.356  10.494 -0.0769  0.1298  0.2812
10457SOL    HW141301  12.008   3.403  10.416  1.4107 -1.6665 -1.5233
10457SOL    HW241302  12.125   3.392  10.511  0.2412 -0.5329  0.1189
10458SOL     OW41303   4.339   5.590  11.178  0.1602  0.0991 -0.3742
10458SOL    HW141304   4.351   5.516  11.238 -1.2626  0.9598  1.0434
10458SOL    HW241305   4.303   5.551  11.099 -1.1630 -0.7010  0.5804
10459SOL     OW41306   1.983   7.059   4.981 -0.8734  0.1757  0.2780
10459SOL    HW141307   2.075   7.083   4.994 -0.5997 -0.4779 -0.3575
10459SOL    HW241308   1.934   7.122   5.033 -0.0452  0.2753  0.9621
10460SOL     OW41309  11.728   7.166   6.763 -0.1633 -0.7089 -0.0236
10460SOL    HW141310  11.649   7.175   6.815  0.8652 -0.4991  1.5817
10460SOL    HW241311  11.745   7.254   6.729  1.2412  0.1219  2.5594
10461SOL     OW41312   7.180  11.711   7.439 -0.1725  0.4446  0.0282
10461SOL    HW141313   7.229  11.634   7.409  0.2910  1.3956 -1.7451
10461SOL    HW241314   7.183  11.772   7.366  0.8412  2.8393  1.9294
10462SOL     OW41315  12.411   9.026   2.999 -0.2300 -0.2721  0.0046
10462SOL    HW141316  12.417   9.053   2.907  0.9404 -0.2054  0.0827
10462SOL    HW241317  12.408   9.108   3.048  0.3586 -0.2888  0.0793
10463SOL     OW41318   0.612   9.737   8.909 -0.1497 -0.5719  0.0321
10463SOL    HW141319   0.697   9.777   8.928 -0.3313 -0.5981  0.9501
10463SOL    HW241320   0.593   9.762   8.819  1.1085 -1.0682 -0.3882
10464SOL     OW41321   5.551   8.083   3.289 -0.5692  0.1248 -0.2497
10464SOL    HW141322   5.590   8.101   3.374 -0.9178  1.4553 -0.3350
10464SOL    HW241323   5.487   8.014   3.306  0.4627 -0.7317  0.2466
10465SOL     OW41324   0.154   7.920   2.970  0.6470  0.4039  0.0742
10465SOL    HW141325   0.245   7.946   2.954  1.2384  0.3020  2.8179
10465SOL    HW241326   0.149   7.830   2.936  1.6480  0.3010  0.1759
10466SOL     OW41327  10.631  12.486   4.188  0.0422 -0.7848 -0.4081
10466SOL    HW141328  10.540  12.500   4.162 -0.7954 -1.5993  1.8534
10466SOL    HW241329  10.628  12.479   4.283  2.6928  0.5431 -0.1366
10467SOL     OW41330   6.117   2.035   4.154 -0.0478  0.9379  0.5697
10467SOL    HW141331   6.069   2.004   4.230 -0.2543 -0.9065 -0.2682
10467SOL    HW241332   6.200   2.066   4.190 -0.1105  0.0328  1.5594
10468SOL     OW41333   5.105   7.085   1.005  0.3097  0.3230 -0.2337
10468SOL    HW141334   5.081   7.023   0.936  0.3686  1.2633 -1.1232
10468SOL    HW241335   5.191   7.118   0.979  0.3003  0.7412  0.2523
10469SOL     OW41336  11.406   7.174  12.005 -0.1763 -0.1340  0.0902
10469SOL    HW141337  11.392   7.204  12.094  0.9546  1.4213 -0.2130
10469SOL    HW241338  11.318   7.161  11.969 -0.6488 -1.5234  1.6260
10470SOL     OW41339   3.165   5.136  11.357  0.3118 -0.2749  0.0300
10470SOL    HW141340   3.235   5.191  11.391 -0.4613  0.5970  0.2498
10470SOL    HW241341   3.207   5.082  11.290  0.9033  1.2583 -0.8822
10471SOL     OW41342   7.568   0.429  11.197  0.2220 -0.0897 -0.1563
10471SOL    HW141343   7.499   0.491  11.176  1.2153  0.9633 -0.3864
10471SOL    HW241344   7.639   0.482  11.233  0.3508 -1.3171  1.5491
10472SOL     OW41345   1.683   1.661   6.920  0.0982 -0.2005 -0.2990
10472SOL    HW141346   1.596   1.700   6.927  0.1033 -0.2158 -0.1390
10472SOL    HW241347   1.691   1.636   6.828  0.1041  0.2014 -0.4130
10473SOL     OW41348   6.065   0.759  10.419 -0.1013 -0.3024  0.0491
10473SOL    HW141349   6.104   0.845  10.405  0.2228 -0.5766 -0.7968
10473SOL    HW241350   5.983   0.777  10.464 -0.2360  0.4814 -0.4844
10474SOL     OW41351   9.127   4.221   3.339  0.4604  0.0317  0.2841
10474SOL    HW141352   9.146   4.208   3.246  2.1265  2.7306  0.1213
10474SOL    HW241353   9.036   4.249   3.342  0.3681 -0.1589 -0.5283
10475SOL     OW41354  12.700  12.007   4.639  0.2375  0.0324  0.1563
10475SOL    HW141355  12.748  12.038   4.563 -1.0632 -0.2602 -0.8171
10475SOL    HW241356  12.718  12.073   4.707  2.3329 -0.3158 -0.0097
10476SOL     OW41357   0.847   4.218   4.847 -0.1017 -0.1706  0.2212
10476SOL    HW141358   0.786   4.277   4.802  1.1912  0.7447 -0.3634
10476SOL    HW241359   0.927   4.221   4.796 -1.0026 -5.4608 -2.2628
10477SOL     OW41360  10.684   1.263   1.360  0.6319  0.6356  0.2551
10477SOL    HW141361  10.624   1.274   1.433  0.3475  0.4280  0.0540
10477SOL    HW241362  10.652   1.323   1.293  0.9371  0.8828  0.3256
10478SOL     OW41363   9.513  11.849   9.686  0.4236  0.4774  0.1620
10478SOL    HW141364   9.435  11.798   9.708  1.8941 -1.2092  1.8140
10478SOL    HW241365   9.538  11.819   9.599 -1.7678  2.4463 -1.2645
10479SOL     OW41366  11.230   7.980  13.103  0.1978 -0.2372 -0.1280
10479SOL    HW141367  11.284   8.047  13.062  0.7461  0.4469  1.6186
10479SOL    HW241368  11.264   7.973  13.192 -0.1389 -2.5281 -0.1049
10480SOL     OW41369   4.103   8.555   8.699 -0.4098 -0.2325  0.3249
10480SOL    HW141370   4.032   8.555   8.763 -0.5986  1.3766  0.1479
10480SOL    HW241371   4.120   8.648   8.681 -0.0851 -0.6220 -1.6406
10481SOL     OW41372   3.532  11.188   4.909  0.4998 -0.5940  0.2224
10481SOL    HW141373   3.451  11.143   4.933  0.9422 -1.0531  0.8932
10481SOL    HW241374   3.542  11.172   4.815  0.9789 -2.4620  0.5642
10482SOL     OW41375  12.382   5.603  11.084  0.2951 -0.0133  0.1565
10482SOL    HW141376  12.319   5.619  11.154  0.6337 -0.5789  0.6003
10482SOL    HW241377  12.407   5.691  11.054 -0.9569  0.2070 -0.2718
10483SOL     OW41378   3.739   1.384   9.737 -0.8839 -0.3719 -0.0695
10483SOL    HW141379   3.723   1.306   9.683  0.2338 -0.0585 -0.8690
10483SOL    HW241380   3.682   1.371   9.813 -0.8625 -1.8834 -0.2724
10484SOL     OW41381  11.459  12.715  11.559 -0.1261  0.0253  0.4949
10484SOL    HW141382  11.543  12.716  11.513  0.6456  0.4173  1.8613
10484SOL    HW241383  11.440  12.808  11.576 -0.6224 -0.0885  0.5722
10485SOL     OW41384   2.629   2.115   1.331 -0.1473  0.6521 -0.3338
10485SOL    HW141385   2.626   2.082   1.420 -0.8268  1.4521 -0.0464
10485SOL    HW241386   2.545   2.089   1.293  0.8727 -1.3419 -1.3803
10486SOL     OW41387   2.447   1.123  11.011  0.7562 -0.0178  0.3705
10486SOL    HW141388   2.434   1.103  11.104 -0.3701  0.1930  0.2725
10486SOL    HW241389   2.473   1.040  10.971  0.2517 -0.3313  0.6923
10487SOL     OW41390  10.636   6.952   4.073 -0.2938  0.6571 -0.7973
10487SOL    HW141391  10.719   6.991   4.100 -1.7909  2.3511  1.7193
10487SOL    HW241392  10.613   6.998   3.992  0.3668  1.4481 -0.5518
10488SOL     OW41393   5.569  10.312   8.241 -0.0842 -0.5324  0.2777
10488SOL    HW141394   5.543  10.319   8.149 -0.8871 -0.9202  0.4709
10488SOL    HW241395   5.664  10.297   8.237  0.0023  0.1010 -0.4580
10489SOL     OW41396   1.034   7.770  12.149  0.5149  0.6193 -0.1533
10489SOL    HW141397   0.979   7.693  12.139 -0.9070  1.6210 -0.3315
10489SOL    HW241398   1.064   7.766  12.240  0.6948 -0.2835 -0.2471
10490SOL     OW41399   4.855   1.914   5.061  0.1643 -1.0009  0.1452
10490SOL    HW141400   4.872   1.994   5.111  0.7392 -0.1322 -1.3731
10490SOL    HW241401   4.799   1.861   5.118 -1.7308  1.2443  0.5202
10491SOL     OW41402  10.955   2.157   0.445 -0.1176  0.7388 -0.1831
10491SOL    HW141403  10.873   2.130   0.404  0.8099 -1.0881 -0.9250
10491SOL    HW241404  10.956   2.112   0.530  1.0512 -1.0386 -1.0757
10492SOL     OW41405   2.323  12.483   5.396 -0.7976 -0.7592 -0.3955
10492SOL    HW141406   2.293  12.399   5.361 -1.1441 -1.7086  1.9617
10492SOL    HW241407   2.406  12.463   5.439 -0.3368  0.3460 -0.7560
10493SOL     OW41408   6.327  11.962   5.984  0.4613 -0.3426  0.3859
10493SOL    HW141409   6.408  12.007   5.959  1.5402 -1.5455  1.5592
10493SOL    HW241410   6.303  12.002   6.068 -1.3125  1.3897 -0.8663
10494SOL     OW41411  11.369   5.053   5.623 -0.6876 -0.0562 -0.5053
10494SOL    HW141412  11.389   4.993   5.551  1.9966 -0.3911  0.4134
10494SOL    HW241413  11.454   5.076   5.659 -1.9278  0.1151  2.5963
10495SOL     OW41414  11.125  10.518   1.575 -0.1737  0.6905  0.4424
10495SOL    HW141415  11.039  10.483   1.551  0.0562 -0.1141  0.7567
10495SOL    HW241416  11.157  10.560   1.495 -0.8275  0.9427  0.3069
10496SOL     OW41417  10.750   9.294  12.486  0.0313  0.2748  0.2683
10496SOL    HW141418  10.663   9.264  12.459  0.2554  0.4967 -0.7274
10496SOL    HW241419  10.747   9.292  12.582 -0.4734 -1.4115  0.2441
10497SOL     OW41420   3.425   7.606   5.342  0.0711 -0.4090  0.3120
10497SOL    HW141421   3.346   7.652   5.370 -2.2138 -4.3100  1.1334
10497SOL    HW241422   3.488   7.620   5.413 -0.6530  1.0335  0.6973
10498SOL     OW41423  12.468   0.501   3.078  0.0936  0.9276  0.1776
10498SOL    HW141424  12.392   0.451   3.108  0.1720  0.9505  0.4114
10498SOL    HW241425  12.438   0.591   3.073  0.0489  0.9079  0.0777
10499SOL     OW41426   5.757  10.869  10.826  0.2374 -0.2547  0.2898
10499SOL    HW141427   5.805  10.792  10.856 -0.6385 -0.4335  1.3427
10499SOL    HW241428   5.674  10.834  10.793  0.8418  0.0331 -1.6004
10500SOL     OW41429  10.762  11.688  11.230  0.3550  0.0649  0.1939
10500SOL    HW141430  10.683  11.683  11.283 -0.4256 -1.4794 -1.0277
10500SOL    HW241431  10.790  11.779  11.237 -1.8715  0.8096  0.1782
10501SOL     OW41432   0.317   4.992  11.858 -0.4180  0.0801  0.0966
10501SOL    HW141433   0.238   5.023  11.902  1.2528  1.1205  2.5647
10501SOL    HW241434   0.381   5.062  11.871  1.3131 -1.2874 -0.6359
10502SOL     OW41435   5.638  11.076   2.464 -0.0460  0.0785  0.2687
10502SOL    HW141436   5.720  11.067   2.511 -0.1095  1.0451  0.5886
10502SOL    HW241437   5.584  11.003   2.496 -0.1968  0.8655  1.9369
10503SOL     OW41438   5.139   6.514   6.980 -0.3362  0.6571 -0.3416
10503SOL    HW141439   5.066   6.564   7.017 -2.0470 -1.6141 -0.3859
10503SOL    HW241440   5.101   6.428   6.959  2.3510 -0.6257 -0.4336
10504SOL     OW41441   9.668  12.464  11.629  0.0467 -0.4645  0.4436
10504SOL    HW141442   9.620  12.381  11.642 -0.2551 -0.6580 -1.6176
10504SOL    HW241443   9.759  12.438  11.616  0.1472 -0.3717  0.9485
10505SOL     OW41444   8.403  10.072   6.378 -0.5648  0.5460  0.3094
10505SOL    HW141445   8.348  10.106   6.307  1.3203  0.3409 -1.3404
10505SOL    HW241446   8.404   9.977   6.365 -1.5594  0.3110  1.6962
10506SOL     OW41447  11.544  11.422  13.139 -0.7701 -0.8077  0.3034
10506SOL    HW141448  11.451  11.415  13.116 -1.1266 -0.2525  1.4822
10506SOL    HW241449  11.549  11.388  13.228 -0.0783  0.3541  0.7278
10507SOL     OW41450   0.675   9.453  11.420 -0.0985  0.2627  0.7867
10507SOL    HW141451   0.751   9.495  11.460 -0.1722  1.0041  0.1823
10507SOL    HW241452   0.665   9.370  11.467  1.6715 -0.3067  0.2412
10508SOL     OW41453   7.385   9.054   0.144 -0.2911  0.5715  0.1479
10508SOL    HW141454   7.458   8.996   0.121 -0.4660  1.0271 -1.7714
10508SOL    HW241455   7.336   9.065   0.062 -0.6732  2.8365  0.5919
10509SOL     OW41456  10.437   0.303   9.547  0.0917 -0.4205  0.0807
10509SOL    HW141457  10.420   0.324   9.455 -0.5313 -1.0112  0.0554
10509SOL    HW241458  10.450   0.388   9.589 -1.4807 -0.0096 -0.2003
10510SOL     OW41459   5.564  11.504  11.565  0.2450  0.4672 -0.4732
10510SOL    HW141460   5.494  11.442  11.542 -0.4558  0.9466  0.2868
10510SOL    HW241461   5.638  11.448  11.587  0.1015 -0.0554 -1.2799
10511SOL     OW41462   4.566   0.272   7.274 -0.7422  0.5352 -0.0958
10511SOL    HW141463   4.496   0.214   7.244 -0.4165 -1.2241  2.2705
10511SOL    HW241464   4.521   0.352   7.303 -1.4420  0.5660 -1.2078
10512SOL     OW41465   5.606   7.509  12.169 -0.3861  0.0664 -0.5742
10512SOL    HW141466   5.548   7.546  12.102  0.9895  1.8187 -0.8776
10512SOL    HW241467   5.639   7.428  12.130  0.4488  1.0968 -2.1022
10513SOL     OW41468   1.704   7.525   5.211 -0.6774 -0.1601  0.0085
10513SOL    HW141469   1.693   7.536   5.117  0.0386 -1.8601 -0.3239
10513SOL    HW241470   1.615   7.512   5.245 -0.8326 -1.0653 -0.6914
10514SOL     OW41471   9.124  11.974   1.990  0.2094  0.0225  0.6445
10514SOL    HW141472   9.165  11.889   1.974 -0.1921  0.1206 -1.1203
10514SOL    HW241473   9.046  11.953   2.041  0.9853 -0.4674  1.6626
10515SOL     OW41474   5.498  12.801   9.218 -0.4390 -0.5433  0.4078
10515SOL    HW141475   5.580  12.784   9.264 -0.4554  0.1520  0.7103
10515SOL    HW241476   5.429  12.776   9.280 -0.4943 -2.6811 -0.4257
10516SOL     OW41477   9.119  12.482   9.006 -0.6010 -0.6230 -0.4936
10516SOL    HW141478   9.024  12.474   9.022 -0.9721  0.9117 -1.6989
10516SOL    HW241479   9.129  12.465   8.913  0.0327  0.9780 -0.7529
10517SOL     OW41480   8.232   8.498   1.061  0.1264 -0.5059  0.0587
10517SOL    HW141481   8.219   8.544   0.979 -1.2693 -2.0054 -0.6331
10517SOL    HW241482   8.286   8.423   1.039  0.6296 -0.3511  0.7319
10518SOL     OW41483   3.017   2.333   5.367 -0.0001 -0.0591 -0.2851
10518SOL    HW141484   2.955   2.262   5.384  0.4472  0.0591  2.2463
10518SOL    HW241485   3.007   2.392   5.443  1.6724  1.0750 -0.8908
10519SOL     OW41486   9.708   4.174  12.447  0.2657 -0.0691  0.0342
10519SOL    HW141487   9.803   4.182  12.442  0.2181 -0.0233 -1.0063
10519SOL    HW241488   9.683   4.228  12.522  1.0762 -0.2911  0.4752
10520SOL     OW41489   2.224   3.336  11.353 -0.1293 -0.0907  0.0184
10520SOL    HW141490   2.318   3.325  11.343 -0.1079 -1.6771  1.5444
10520SOL    HW241491   2.211   3.350  11.447 -1.4409 -0.2859 -0.1099
10521SOL     OW41492   2.168   3.920   9.148  0.7552 -0.5767  0.1078
10521SOL    HW141493   2.245   3.885   9.191 -0.1417 -1.4933  1.0341
10521SOL    HW241494   2.171   3.883   9.059  1.3908 -0.5824  0.1308
10522SOL     OW41495  11.419   0.466   2.838  0.4412  0.5668 -0.4966
10522SOL    HW141496  11.494   0.409   2.820  0.1639 -0.0396  0.2223
10522SOL    HW241497  11.352   0.439   2.774  0.9313  1.3318 -1.3571
10523SOL     OW41498   8.100   6.872   5.095  0.1680 -0.4112 -0.1714
10523SOL    HW141499   8.067   6.936   5.032  0.8440  0.2125  0.1013
10523SOL    HW241500   8.191   6.857   5.070  0.1908 -0.8009  0.1337
10524SOL     OW41501   7.960   9.733   8.740 -0.3794 -0.0308  0.1230
10524SOL    HW141502   7.919   9.652   8.709 -1.0755  0.6083 -0.6989
10524SOL    HW241503   7.975   9.784   8.660  0.0869  0.6341  0.6224
10525SOL     OW41504   3.318   6.736   1.484 -0.1842 -0.4538 -0.1305
10525SOL    HW141505   3.346   6.719   1.574  0.0469  1.8764  0.3118
10525SOL    HW241506   3.393   6.780   1.444 -0.5522 -0.8151 -1.2266
10526SOL     OW41507   7.784   0.453   3.469  0.1178 -0.7014  0.2763
10526SOL    HW141508   7.703   0.474   3.514  0.2758  0.4318  0.0678
10526SOL    HW241509   7.846   0.521   3.496  0.8379 -1.2229  0.0032
10527SOL     OW41510   4.327   3.232  12.024 -0.2438  0.2615 -1.1019
10527SOL    HW141511   4.252   3.283  12.055  0.2871 -0.4003  1.5535
10527SOL    HW241512   4.297   3.191  11.943 -1.8208  2.0836 -1.4996
10528SOL     OW41513   4.918   7.894  10.431  0.0280 -0.2757 -0.2874
10528SOL    HW141514   4.954   7.938  10.508  1.5680 -1.2110 -0.4196
10528SOL    HW241515   4.857   7.829  10.467 -0.8336  0.6712  0.0009
10529SOL     OW41516   4.993   9.352  11.991  0.3562 -0.4896  0.0828
10529SOL    HW141517   4.994   9.394  11.904 -2.3293  0.8926  0.6041
10529SOL    HW241518   5.057   9.402  12.042 -0.0777  0.5692 -0.3709
10530SOL     OW41519   7.246   0.355   4.874 -0.0511  0.0819  0.2173
10530SOL    HW141520   7.228   0.419   4.805 -0.8381  0.3013  0.6245
10530SOL    HW241521   7.219   0.271   4.836 -1.9640  0.3971  0.8028
10531SOL     OW41522  10.386   6.716   9.191  0.3782  0.5030  0.6515
10531SOL    HW141523  10.302   6.744   9.156 -0.2261  0.4948  2.0030
10531SOL    HW241524  10.430   6.673   9.118 -1.4044 -0.7930  0.2784
10532SOL     OW41525   7.424   3.350   8.687 -0.4263  0.3888 -0.3474
10532SOL    HW141526   7.397   3.326   8.598 -2.8400  1.7188 -0.0469
10532SOL    HW241527   7.354   3.317   8.743 -0.3153  1.9759  0.7662
10533SOL     OW41528   3.820  11.245   1.854 -0.4227 -0.2776 -0.4306
10533SOL    HW141529   3.790  11.234   1.944 -1.8564 -1.6351 -1.0155
10533SOL    HW241530   3.864  11.162   1.834  0.1146  0.1190 -0.8915
10534SOL     OW41531   0.672   7.979   0.728  0.1913  0.3820 -0.4111
10534SOL    HW141532   0.719   8.056   0.698 -0.2480  0.9945  0.4275
10534SOL    HW241533   0.580   7.998   0.710  0.2174 -0.7254 -1.8629
10535SOL     OW41534   5.643   9.399   3.517  0.0523  0.4227  0.1235
10535SOL    HW141535   5.704   9.341   3.562 -0.3932  0.9277  1.4371
10535SOL    HW241536   5.695   9.477   3.496 -0.1127  0.8339  1.1990
10536SOL     OW41537   1.204   0.473  11.035  0.0310 -0.5212 -0.4458
10536SOL    HW141538   1.124   0.495  10.989  0.7176 -0.1313 -1.4851
10536SOL    HW241539   1.269   0.459  10.966  1.0657 -0.0251  0.3909
10537SOL     OW41540   5.011   8.503   7.481  0.2029  0.6809  0.4868
10537SOL    HW141541   5.063   8.516   7.561 -1.5514 -1.7335  2.1564
10537SOL    HW241542   4.927   8.545   7.501  0.2262  1.3660 -0.7485
10538SOL     OW41543   6.474   0.825   5.202  0.0941 -0.1634  0.2365
10538SOL    HW141544   6.422   0.886   5.150  0.0398 -0.1918  0.2574
10538SOL    HW241545   6.545   0.799   5.143 -0.6804 -1.1928 -0.2866
10539SOL     OW41546   9.576  10.197   1.283 -0.0436  0.3972  0.0877
10539SOL    HW141547   9.599  10.213   1.374  0.7506  2.4098 -0.4340
10539SOL    HW241548   9.530  10.276   1.255  1.7292  0.8233 -1.8829
10540SOL     OW41549   4.254   5.059  13.102 -0.1624 -0.5122 -0.4662
10540SOL    HW141550   4.250   5.149  13.070 -0.0663 -0.8450 -1.4336
10540SOL    HW241551   4.326   5.019  13.053 -0.7888 -1.3682 -0.7115
10541SOL     OW41552   5.684   1.912  11.245 -0.2734  0.4361  0.1057
10541SOL    HW141553   5.628   1.855  11.298  1.4009  0.5092  2.0805
10541SOL    HW241554   5.750   1.854  11.209  0.3707  0.8318  0.6281
10542SOL     OW41555   8.632  12.312   6.727 -0.0607 -0.1121 -0.4233
10542SOL    HW141556   8.668  12.294   6.641  0.4104  0.5427 -0.3701
10542SOL    HW241557   8.549  12.264   6.729 -0.2295  0.1301 -1.3528
10543SOL     OW41558  10.030   5.504   5.852 -0.3617  0.0656 -0.3448
10543SOL    HW141559   9.989   5.583   5.886 -0.3071  0.2874 -0.7738
10543SOL    HW241560  10.119   5.506   5.887 -0.4060  0.1233 -0.2385
10544SOL     OW41561   3.130   0.414   8.953 -0.5384 -0.4302  0.2322
10544SOL    HW141562   3.045   0.370   8.946 -0.8050 -0.0057  0.7362
10544SOL    HW241563   3.111   0.506   8.934  0.1829 -0.6379 -1.8474
10545SOL     OW41564  12.861   2.947  11.548  0.8603 -0.1559  0.6002
10545SOL    HW141565  12.787   2.894  11.517  0.8168  0.5031 -0.4633
10545SOL    HW241566  12.915   2.886  11.597  1.2095 -1.3829 -1.2252
10546SOL     OW41567   7.207   3.816   1.825 -1.0417  0.0621  0.0738
10546SOL    HW141568   7.193   3.721   1.832 -0.8389  0.0663  0.5778
10546SOL    HW241569   7.142   3.854   1.883  0.2628  0.1286  1.5570
10547SOL     OW41570   1.176   3.595  13.286 -0.2514 -0.1159  0.1012
10547SOL    HW141571   1.122   3.674  13.289 -0.7348 -0.4223 -0.3495
10547SOL    HW241572   1.170   3.565  13.195  0.0044 -0.6148  0.2455
10548SOL     OW41573  13.177   7.690   7.162 -0.6231 -0.5555  0.4098
10548SOL    HW141574  13.153   7.750   7.091  1.0792 -1.1393 -0.7101
10548SOL    HW241575  13.143   7.605   7.134  0.3992 -0.8662  0.0839
10549SOL     OW41576   6.623   5.498   7.361 -0.0878  0.2386 -0.6058
10549SOL    HW141577   6.528   5.504   7.354 -0.2307 -1.3164 -0.3125
10549SOL    HW241578   6.641   5.404   7.365  1.6155  0.3909 -2.7770
10550SOL     OW41579   3.816   7.239   9.069 -0.2352  0.1192  0.0291
10550SOL    HW141580   3.863   7.168   9.112 -1.1585 -1.3208 -1.2364
10550SOL    HW241581   3.770   7.283   9.140 -1.4946 -2.0062  0.6190
10551SOL     OW41582   7.147   2.309   3.745  0.1811  0.0979  0.5900
10551SOL    HW141583   7.170   2.277   3.657 -0.8082 -0.8355  0.6571
10551SOL    HW241584   7.143   2.404   3.735 -0.4461 -0.0317 -0.5083
10552SOL     OW41585  10.645  12.452  11.250  0.4555 -0.0207 -0.3610
10552SOL    HW141586  10.603  12.532  11.282 -1.8302 -1.2004 -0.1584
10552SOL    HW241587  10.655  12.398  11.328  2.4269  0.1808 -0.4170
10553SOL     OW41588  11.556   6.950   8.561 -0.0447  0.0369  0.4689
10553SOL    HW141589  11.642   6.966   8.600  0.2166  0.9589 -0.4423
10553SOL    HW241590  11.571   6.953   8.467 -1.1912  0.9708  0.2907
10554SOL     OW41591   8.906  10.073   5.203  0.1005 -0.3816  1.0271
10554SOL    HW141592   8.871   9.997   5.157 -0.8287 -0.0616  1.1859
10554SOL    HW241593   8.919  10.139   5.134 -1.3263  0.1094  1.1990
10555SOL     OW41594   9.181   9.401   3.141 -0.5739  0.3177 -0.2658
10555SOL    HW141595   9.124   9.477   3.128 -0.9895 -0.3614 -3.0947
10555SOL    HW241596   9.269   9.437   3.146 -0.9885  1.1653  1.2856
10556SOL     OW41597  10.713   2.218   3.327 -0.1672  0.4419 -0.0141
10556SOL    HW141598  10.664   2.235   3.246 -1.8517 -0.8274  0.6834
10556SOL    HW241599  10.754   2.133   3.313 -0.8250  0.0121  0.6122
10557SOL     OW41600   5.643   5.579   2.759 -0.3111 -0.4677 -0.6265
10557SOL    HW141601   5.690   5.509   2.803 -0.6073  0.6260  1.5690
10557SOL    HW241602   5.588   5.618   2.827  0.4348  2.4061 -1.5083
10558SOL     OW41603  10.197   0.873   5.516 -0.3006 -0.2015  0.3062
10558SOL    HW141604  10.247   0.866   5.598 -0.9084  1.8814  0.9163
10558SOL    HW241605  10.243   0.941   5.466 -0.1719 -1.1758 -0.9507
10559SOL     OW41606  12.109   4.997   4.329  0.2554 -0.6131 -0.2501
10559SOL    HW141607  12.074   4.909   4.317  1.4089 -1.1433  0.0485
10559SOL    HW241608  12.186   4.984   4.385  1.0246  0.4547 -1.0179
10560SOL     OW41609  12.047   5.642   9.541 -0.5976 -0.0293 -0.0624
10560SOL    HW141610  12.113   5.600   9.595 -1.0676  0.1989  0.7093
10560SOL    HW241611  11.963   5.616   9.581 -0.9423  0.3840 -0.5015
10561SOL     OW41612  11.437   0.005   5.034 -0.3413  0.0150 -0.5168
10561SOL    HW141613  11.499  -0.052   4.988  0.3245  0.7656 -0.5737
10561SOL    HW241614  11.472   0.093   5.022 -0.1585  0.2475  1.4058
10562SOL     OW41615   4.649   5.215   8.726 -0.0797 -0.0392 -0.3040
10562SOL    HW141616   4.624   5.307   8.719  0.8396  0.2486  0.0150
10562SOL    HW241617   4.729   5.207   8.675 -0.0680 -0.6359 -0.2071
10563SOL     OW41618   5.799   8.147   8.657  0.1566 -0.0459 -0.2868
10563SOL    HW141619   5.734   8.078   8.647  1.2648 -1.1462 -0.1664
10563SOL    HW241620   5.824   8.142   8.749 -1.5414  2.2235  0.3954
10564SOL     OW41621   6.958   8.254   0.545  0.1794 -0.0842  0.5286
10564SOL    HW141622   7.030   8.311   0.520 -0.9112  1.4881  0.7822
10564SOL    HW241623   6.987   8.166   0.523  1.4779  0.6806 -0.9777
10565SOL     OW41624   9.944   5.942   5.897  0.0936 -0.1428  0.4308
10565SOL    HW141625  10.005   5.900   5.957  0.1791 -1.2068 -0.3489
10565SOL    HW241626   9.963   5.901   5.812  1.1580  2.5217 -0.7050
10566SOL     OW41627   2.405   8.255   8.907  0.1544 -0.5541 -0.0179
10566SOL    HW141628   2.419   8.334   8.854  0.9091 -1.3342 -1.0159
10566SOL    HW241629   2.324   8.273   8.955  0.7575  1.1743  0.4275
10567SOL     OW41630   5.300   5.736  10.239  0.2150  0.6019 -0.3926
10567SOL    HW141631   5.372   5.689  10.197 -0.4706  0.0203 -0.9497
10567SOL    HW241632   5.309   5.826  10.209  0.6670  0.5234 -0.5081
10568SOL     OW41633  11.234   4.243  11.609 -0.4942 -0.9636 -0.6308
10568SOL    HW141634  11.229   4.149  11.593 -0.1383 -0.7600 -2.0771
10568SOL    HW241635  11.287   4.277  11.538 -0.6488  0.3502 -0.1567
10569SOL     OW41636   0.513   9.374  13.275  0.4479  0.2029 -0.1822
10569SOL    HW141637   0.592   9.379  13.221  0.6351 -0.6315  0.0073
10569SOL    HW241638   0.545   9.354  13.363  0.0016 -0.7399 -0.2180
10570SOL     OW41639  13.162  12.118   1.565  0.1888 -0.8273  0.7608
10570SOL    HW141640  13.082  12.163   1.595 -0.6292 -2.5417  1.2412
10570SOL    HW241641  13.202  12.180   1.503 -1.5920  0.0215  0.3861
10571SOL     OW41642  13.186   8.684  12.373 -0.1713 -0.0420 -0.2664
10571SOL    HW141643  13.282   8.682  12.376 -0.1689  0.5565  0.5151
10571SOL    HW241644  13.159   8.604  12.419 -0.0484  0.1431  0.1281
10572SOL     OW41645  10.647   3.321  12.370  0.2600 -0.1954  0.0446
10572SOL    HW141646  10.568   3.369  12.395  1.5322  2.5106 -0.7648
10572SOL    HW241647  10.708   3.333  12.442  1.5931  1.9809 -1.3328
10573SOL     OW41648  11.366   3.566   8.115  0.1068 -0.3775  0.2152
10573SOL    HW141649  11.392   3.476   8.093  0.2931  0.6093 -4.6084
10573SOL    HW241650  11.271   3.561   8.125  0.0661 -1.0550 -0.4321
10574SOL     OW41651   1.421   1.416  10.887 -0.3335 -0.4575  0.3700
10574SOL    HW141652   1.420   1.444  10.979 -0.4290 -1.0047  0.5387
10574SOL    HW241653   1.347   1.356  10.880 -1.0022  0.4139 -0.3379
10575SOL     OW41654   0.776   3.177   1.401 -0.2519 -0.1705 -0.0817
10575SOL    HW141655   0.700   3.147   1.451 -1.0446 -1.0371 -1.7337
10575SOL    HW241656   0.851   3.138   1.446 -0.9659 -1.2357  0.2289
10576SOL     OW41657   2.136  12.100   0.008  0.0765  0.4500 -0.1722
10576SOL    HW141658   2.219  12.141   0.032 -0.2727  0.6950  0.6591
10576SOL    HW241659   2.091  12.166  -0.045 -0.0375  0.7379  0.2800
10577SOL     OW41660   2.570  11.174   6.397  0.0162 -0.6331  0.4519
10577SOL    HW141661   2.626  11.106   6.435  1.8670  0.5933  0.0450
10577SOL    HW241662   2.548  11.141   6.310  0.7658 -0.8086  0.3200
10578SOL     OW41663  11.587   7.539   9.787  0.3416  0.1199  0.1385
10578SOL    HW141664  11.651   7.574   9.725  0.7155 -0.9016 -0.0688
10578SOL    HW241665  11.615   7.572   9.872  0.8977  0.0369 -0.0081
10579SOL     OW41666  10.775   2.151   2.152  0.4714 -0.4530 -0.3669
10579SOL    HW141667  10.825   2.102   2.217 -1.1107  0.6909  1.8273
10579SOL    HW241668  10.807   2.241   2.160 -2.6873  0.6465  2.1521
10580SOL     OW41669   9.536   7.091  12.779 -0.5369 -0.0614 -0.0659
10580SOL    HW141670   9.498   7.081  12.866 -0.6832 -1.3029 -0.2530
10580SOL    HW241671   9.623   7.054  12.786  0.5666  2.3847  0.2417
10581SOL     OW41672  12.728  11.349   0.279 -0.3068  0.0205  0.4204
10581SOL    HW141673  12.811  11.378   0.318 -0.5423  0.1893  0.8008
10581SOL    HW241674  12.752  11.273   0.226  0.0702 -0.0170  0.6415
10582SOL     OW41675   1.217   2.271   5.541 -0.4139  0.1645  0.0201
10582SOL    HW141676   1.301   2.304   5.509 -0.3824  0.2277  0.1689
10582SOL    HW241677   1.210   2.305   5.630 -0.5025 -0.0110  0.0816
10583SOL     OW41678   9.676   3.152  12.367 -0.2332 -0.2925 -0.0016
10583SOL    HW141679   9.766   3.170  12.393 -0.4504 -0.1064  0.6244
10583SOL    HW241680   9.654   3.070  12.411 -0.6972  0.1709  0.6415
10584SOL     OW41681  10.687   3.185   4.409  0.1938  0.7415  0.0528
10584SOL    HW141682  10.734   3.237   4.344 -2.4629  2.7625 -0.3944
10584SOL    HW241683  10.635   3.124   4.357  0.0544  0.5450  0.4223
10585SOL     OW41684   1.402   6.486   3.222  0.5072  0.0919 -0.2677
10585SOL    HW141685   1.391   6.574   3.257  1.2537  0.5811 -1.1914
10585SOL    HW241686   1.410   6.429   3.299 -2.6464  0.3967  0.4127
10586SOL     OW41687   1.176   0.132   2.689  0.0238  0.6548 -0.3267
10586SOL    HW141688   1.192   0.223   2.663 -0.8713  0.9831  0.1977
10586SOL    HW241689   1.080   0.122   2.683  0.1365 -0.3536 -0.6895
10587SOL     OW41690  12.495   6.475   0.875  0.3342 -0.3793 -0.2080
10587SOL    HW141691  12.570   6.493   0.818 -0.1428 -1.1760 -1.1115
10587SOL    HW241692  12.422   6.520   0.833 -0.0138 -0.9476 -0.2245
10588SOL     OW41693   6.760  12.453   5.488  0.5754 -0.6650  0.4382
10588SOL    HW141694   6.844  12.406   5.489  1.4580  0.6806 -1.6951
10588SOL    HW241695   6.725  12.436   5.401 -1.1936 -0.8406  1.1485
10589SOL     OW41696   1.905  10.005   0.586  1.3159  0.5858  0.1599
10589SOL    HW141697   1.839   9.970   0.526  0.0852  2.6082  0.2455
10589SOL    HW241698   1.989   9.990   0.542  0.9558 -2.7572  0.3996
10590SOL     OW41699   8.748  10.928   1.579 -0.1672 -0.2015  0.2928
10590SOL    HW141700   8.666  10.879   1.578 -0.0571 -0.3865  0.2509
10590SOL    HW241701   8.722  11.020   1.582 -0.3683 -0.2845  1.2099
10591SOL     OW41702   9.821   9.993   5.034  0.2916 -0.0988  0.1021
10591SOL    HW141703   9.865  10.021   5.113  1.8658 -0.3135 -0.6677
10591SOL    HW241704   9.767   9.918   5.061  2.6786 -1.7555  0.5400
10592SOL     OW41705   9.491   6.737   6.546  0.1626  0.6589  0.4778
10592SOL    HW141706   9.456   6.669   6.603  1.1658 -0.8108 -0.5856
10592SOL    HW241707   9.582   6.711   6.530 -0.3788  0.2502 -2.7507
10593SOL     OW41708   8.068   7.398   3.788  0.3716  0.0570  0.4916
10593SOL    HW141709   8.044   7.479   3.833  1.6745  0.1894  0.9711
10593SOL    HW241710   8.149   7.370   3.829  0.6369 -0.7978 -0.5633
10594SOL     OW41711   8.007  12.541   0.875  0.1953  0.1696  0.0151
10594SOL    HW141712   8.089  12.578   0.843 -0.6807  0.5870 -1.9358
10594SOL    HW241713   8.027  12.449   0.893  0.6850 -0.2452 -2.3246
10595SOL     OW41714  12.584   4.283   9.636 -0.0596 -0.0088 -0.2575
10595SOL    HW141715  12.488   4.288   9.637 -0.0258  0.6985  0.0184
10595SOL    HW241716  12.603   4.190   9.647 -0.6927  0.1315  3.1020
10596SOL     OW41717  12.857   2.504   4.490 -0.1835 -0.2632  0.3523
10596SOL    HW141718  12.799   2.543   4.555 -0.2466 -0.8026  0.6278
10596SOL    HW241719  12.943   2.543   4.508 -0.5804  1.0409 -0.4849
10597SOL     OW41720   4.671   4.988  10.309  0.7808  0.3605 -0.1279
10597SOL    HW141721   4.587   4.953  10.338  1.1083  1.6844  2.7581
10597SOL    HW241722   4.671   4.974  10.215 -2.8597  0.7036 -0.3334
10598SOL     OW41723   9.952  10.689   5.039  0.0160  0.1049  0.0423
10598SOL    HW141724  10.001  10.697   4.957  0.9961 -1.5683  0.4087
10598SOL    HW241725   9.972  10.769   5.086 -0.6655  1.1578 -1.3808
10599SOL     OW41726   6.975   2.924   7.286  0.2665  0.3829  0.1076
10599SOL    HW141727   7.053   2.970   7.319  0.5963 -0.0186 -0.1015
10599SOL    HW241728   6.927   2.899   7.365  1.0557 -0.5842  0.3004
10600SOL     OW41729  11.969   0.002   9.201 -0.1688  0.1250 -0.2847
10600SOL    HW141730  11.935   0.091   9.212 -0.6452  0.5168 -3.7407
10600SOL    HW241731  11.893  -0.050   9.175  0.5790 -0.6046 -1.0977
10601SOL     OW41732  12.102   0.597   4.403  0.1216 -0.5035  0.1195
10601SOL    HW141733  12.190   0.574   4.374 -0.1675  0.3979 -1.6025
10601SOL    HW241734  12.045   0.538   4.354 -0.2942 -0.4713  0.5522
10602SOL     OW41735  11.493   4.130  12.654 -0.0816  0.1608  0.2088
10602SOL    HW141736  11.419   4.188  12.671 -0.3415  0.2459 -1.0846
10602SOL    HW241737  11.488   4.113  12.559  3.6668  3.1425 -0.7619
10603SOL     OW41738   4.405   0.280   3.953 -0.6345  0.1347 -0.9735
10603SOL    HW141739   4.495   0.311   3.966  0.1343 -2.1086 -0.4310
10603SOL    HW241740   4.366   0.284   4.041 -0.9341  0.7072 -1.1305
10604SOL     OW41741   5.371   5.016  10.421  0.3543  0.0969  0.2160
10604SOL    HW141742   5.305   5.063  10.370  2.1595  0.5028 -1.8849
10604SOL    HW241743   5.383   4.933  10.375  1.9951  0.4391 -0.0377
10605SOL     OW41744   2.172   8.633   3.998 -0.4621  0.1159  0.1263
10605SOL    HW141745   2.209   8.704   3.946 -0.4495  0.0733  0.0778
10605SOL    HW241746   2.246   8.574   4.016 -0.3871  0.3201  0.5047
10606SOL     OW41747  10.812   1.295   4.444 -0.4584 -0.5512 -0.1316
10606SOL    HW141748  10.727   1.274   4.482  0.2525 -0.9702  1.3099
10606SOL    HW241749  10.841   1.373   4.492  0.0345 -0.4986 -0.5074
10607SOL     OW41750   2.259  12.680   2.355 -0.5583  0.1679  0.2580
10607SOL    HW141751   2.340  12.706   2.401  0.8304 -1.8388 -0.9390
10607SOL    HW241752   2.262  12.730   2.273 -0.6970  0.3101  0.3388
10608SOL     OW41753  10.720   7.889   5.000 -0.2321  0.2395 -0.2452
10608SOL    HW141754  10.655   7.958   4.984  0.6285  0.7703 -1.5261
10608SOL    HW241755  10.736   7.851   4.914  1.3814  0.3203  0.0007
10609SOL     OW41756   0.963   0.962   5.169 -0.0878 -1.0866  0.5212
10609SOL    HW141757   1.031   0.898   5.150  1.2763  0.3252  0.4844
10609SOL    HW241758   0.965   0.971   5.264  0.2035 -0.5826  0.4668
10610SOL     OW41759   3.101   7.342   1.184  0.2487  0.3349  0.6587
10610SOL    HW141760   3.076   7.425   1.142  3.3692  0.7281 -0.6699
10610SOL    HW241761   3.021   7.290   1.182 -0.7390  1.7088 -2.5426
10611SOL     OW41762   2.418   5.107   7.595 -0.4646  0.2116  0.5451
10611SOL    HW141763   2.354   5.043   7.627  0.5236 -0.1111  1.9853
10611SOL    HW241764   2.480   5.116   7.667  1.1915  0.4177 -0.8492
10612SOL     OW41765  10.687  13.254  13.249 -0.3203 -0.0074  0.0654
10612SOL    HW141766  10.665  13.344  13.226 -0.8190 -0.4570 -1.3206
10612SOL    HW241767  10.650  13.201  13.179  1.2428 -1.1822  0.0687
10613SOL     OW41768  11.654   3.526   9.231 -0.7731  0.1076  0.0390
10613SOL    HW141769  11.709   3.499   9.305 -1.5919  0.2523  0.7273
10613SOL    HW241770  11.714   3.532   9.157 -0.0008 -0.4509  0.5973
10614SOL     OW41771  10.834   7.117  13.115  0.3151  0.0482  0.5859
10614SOL    HW141772  10.919   7.154  13.138  0.0775  1.1107 -0.1218
10614SOL    HW241773  10.831   7.121  13.019  0.6997 -2.8822  0.3649
10615SOL     OW41774  10.940  12.228   8.902  0.5026  0.1686 -0.1274
10615SOL    HW141775  10.952  12.283   8.979  0.2742  0.8120 -0.5414
10615SOL    HW241776  10.845  12.217   8.895  0.5506 -3.7350  2.3309
10616SOL     OW41777   9.648   6.627   7.636 -0.1372 -0.1672  0.1785
10616SOL    HW141778   9.556   6.624   7.609  0.1864 -0.9974 -0.9232
10616SOL    HW241779   9.695   6.656   7.557  0.6502 -0.8517  0.3813
10617SOL     OW41780   5.491   5.222   5.594  1.0201 -0.0975  0.1913
10617SOL    HW141781   5.533   5.242   5.677  0.1211 -1.9556  1.1467
10617SOL    HW241782   5.506   5.129   5.581 -1.2704 -0.4453 -0.3139
10618SOL     OW41783   3.154   5.325   1.076  0.3287  0.4443 -0.0791
10618SOL    HW141784   3.144   5.409   1.121  0.9859  0.7577 -0.4980
10618SOL    HW241785   3.245   5.301   1.090 -0.2412 -1.0284  1.4242
10619SOL     OW41786   3.175   9.995   2.913  0.3354  0.6920 -0.5657
10619SOL    HW141787   3.216  10.072   2.953  1.0808 -0.2791  0.5879
10619SOL    HW241788   3.109   9.967   2.977 -1.7035  1.7915 -2.0655
10620SOL     OW41789  11.462  10.281   9.927  0.0014 -0.2623  0.2215
10620SOL    HW141790  11.393  10.340   9.958 -0.3966 -0.9631  0.7161
10620SOL    HW241791  11.478  10.223  10.002  0.0458 -1.0801 -0.4129
10621SOL     OW41792   9.799   0.100   3.052  0.1454  0.3278  0.0969
10621SOL    HW141793   9.889   0.105   3.083 -0.2993  0.5251  1.4281
10621SOL    HW241794   9.756   0.039   3.113 -0.7313  0.6280 -0.2087
10622SOL     OW41795   0.431  11.617   6.605 -0.2717 -0.1221 -0.7053
10622SOL    HW141796   0.446  11.531   6.566 -0.5762  0.3070 -1.8040
10622SOL    HW241797   0.516  11.661   6.600  0.3536 -0.9512  1.4704
10623SOL     OW41798   5.273  10.155   5.883  0.4439 -0.0862 -0.3605
10623SOL    HW141799   5.199  10.215   5.891  1.2133  1.0203 -1.2291
10623SOL    HW241800   5.270  10.123   5.793  1.6244  0.8242 -0.7515
10624SOL     OW41801   3.217  10.194   2.285  0.1251 -0.4133  0.3844
10624SOL    HW141802   3.247  10.204   2.195  0.4231  1.5193  0.6397
10624SOL    HW241803   3.133  10.241   2.287  1.0018  1.2020  1.4937
10625SOL     OW41804  11.309   5.032   4.544 -0.0452 -0.2952 -0.1441
10625SOL    HW141805  11.388   5.029   4.491  1.4520  3.2052  1.5652
10625SOL    HW241806  11.245   5.076   4.488 -0.7935 -2.7919 -1.3901
10626SOL     OW41807   3.910  10.859   8.456  0.2550 -0.0548 -0.0348
10626SOL    HW141808   3.984  10.798   8.451  1.4665  0.9333  3.3541
10626SOL    HW241809   3.842  10.817   8.403  1.7078 -3.3150  0.4150
10627SOL     OW41810   7.398  11.242   3.801  0.4264 -0.1676 -0.6863
10627SOL    HW141811   7.478  11.201   3.768  1.1335  1.3100 -0.8934
10627SOL    HW241812   7.363  11.179   3.864  0.9905 -1.4503 -1.6118
10628SOL     OW41813   6.641   3.434   3.734 -0.0511  0.2175  0.5591
10628SOL    HW141814   6.591   3.355   3.756 -1.6392  0.9549 -0.2218
10628SOL    HW241815   6.721   3.401   3.693 -0.2651 -0.9926  1.0616
10629SOL     OW41816   5.067   9.288   0.460 -0.1176  0.4929 -0.3095
10629SOL    HW141817   5.145   9.315   0.412  0.5684 -0.2054  0.3715
10629SOL    HW241818   5.088   9.305   0.552 -1.1679  1.2383 -0.1961
10630SOL     OW41819   1.090   3.302  12.569 -0.0062 -0.8507 -0.3025
10630SOL    HW141820   1.021   3.273  12.630  0.5532 -1.0056  0.2621
10630SOL    HW241821   1.060   3.388  12.539  0.4316 -0.0613  1.3794
10631SOL     OW41822  10.930   7.001   8.322 -0.1655  0.0772 -0.3572
10631SOL    HW141823  10.909   7.086   8.283  0.9481  0.4096 -0.2723
10631SOL    HW241824  10.941   6.942   8.247 -0.6621  0.0727 -0.4291
10632SOL     OW41825   5.827   1.174   4.392  0.5760  0.0297  0.4582
10632SOL    HW141826   5.844   1.080   4.397  0.2237  0.0066  1.4203
10632SOL    HW241827   5.870   1.202   4.312 -0.0000 -1.0997 -0.2737
10633SOL     OW41828   0.401   4.039   8.690  0.1712  0.2163 -0.1800
10633SOL    HW141829   0.485   4.004   8.660 -0.0433 -0.4728  0.0150
10633SOL    HW241830   0.348   4.045   8.610  0.2676  0.2625 -0.2405
10634SOL     OW41831   6.198  10.309   9.744 -0.1679  0.2737  0.2952
10634SOL    HW141832   6.150  10.360   9.678  1.3187 -0.2655 -1.2795
10634SOL    HW241833   6.226  10.374   9.809 -0.2451  1.0966 -0.4720
10635SOL     OW41834   9.982   3.392   8.449  0.0351 -0.7294 -0.3749
10635SOL    HW141835   9.935   3.320   8.408 -0.4891 -0.0651 -0.9653
10635SOL    HW241836  10.069   3.389   8.409  0.5992 -2.0906  0.8779
10636SOL     OW41837   7.126   5.761   4.002 -0.0976  0.0566 -0.1556
10636SOL    HW141838   7.186   5.807   3.944  0.6529 -1.6680 -0.8165
10636SOL    HW241839   7.093   5.689   3.950 -0.4361 -0.7578  1.1364
10637SOL     OW41840   8.273   3.002  11.432  0.3528  0.4484  0.5743
10637SOL    HW141841   8.303   2.951  11.356 -0.7193  0.3411  0.2083
10637SOL    HW241842   8.185   2.970  11.449  0.0021  1.5532  0.9092
10638SOL     OW41843  10.214   4.147   0.032 -0.5545 -0.1958 -0.1440
10638SOL    HW141844  10.237   4.072   0.086 -2.3070 -1.2480 -0.7808
10638SOL    HW241845  10.218   4.114  -0.058 -0.3649  0.7663 -0.5041
10639SOL     OW41846   0.328   1.643   4.575 -0.5058 -0.1712  0.1815
10639SOL    HW141847   0.421   1.661   4.561 -1.0894  2.6858 -0.7829
10639SOL    HW241848   0.318   1.550   4.557  2.1222 -0.5400  0.2372
10640SOL     OW41849   3.838  11.545   2.396 -0.4977  0.0430  0.8931
10640SOL    HW141850   3.847  11.477   2.463  1.2241 -0.3508  0.3172
10640SOL    HW241851   3.926  11.583   2.389 -0.8171  0.5530 -0.6381
10641SOL     OW41852   1.533   3.451   5.952 -0.1286  0.7838 -0.2504
10641SOL    HW141853   1.545   3.431   5.859 -4.1854 -0.6816 -0.6718
10641SOL    HW241854   1.575   3.536   5.964  1.3659  0.5834 -3.1587
10642SOL     OW41855   1.722   7.068   5.446  0.2238  0.0528 -0.1791
10642SOL    HW141856   1.627   7.072   5.454  0.3055 -0.4207  1.2271
10642SOL    HW241857   1.754   7.136   5.505  0.7774  0.0422 -0.4577
10643SOL     OW41858   9.819  12.602   1.185 -0.0678 -0.6346  0.6599
10643SOL    HW141859   9.726  12.581   1.189 -0.3163  0.4307  0.8797
10643SOL    HW241860   9.860  12.542   1.247 -0.8878  0.2277  2.0973
10644SOL     OW41861   5.902   8.410   1.514  0.2880 -0.6199  0.4005
10644SOL    HW141862   5.863   8.339   1.565  0.7955 -1.4528 -0.3411
10644SOL    HW241863   5.880   8.489   1.563 -2.0607 -1.0686  0.1726
10645SOL     OW41864   5.777   3.960   2.131 -0.2610 -0.4057 -0.1351
10645SOL    HW141865   5.816   4.040   2.096  1.8390 -1.3733 -0.1979
10645SOL    HW241866   5.851   3.899   2.138 -1.6810 -2.1449  0.4709
10646SOL     OW41867   1.389   5.004   5.559 -0.0736 -0.2448 -0.7233
10646SOL    HW141868   1.471   4.957   5.570  1.0234  1.6797 -0.1198
10646SOL    HW241869   1.374   5.005   5.465  0.5038 -0.7724 -0.8233
10647SOL     OW41870   9.447   4.915  10.889 -0.6250  0.0779 -0.1003
10647SOL    HW141871   9.520   4.974  10.904 -0.3140 -0.5203  0.8220
10647SOL    HW241872   9.484   4.827  10.895 -1.6499 -0.2756  1.9425
10648SOL     OW41873   8.126   5.798  12.986  0.2177  0.4895 -0.7051
10648SOL    HW141874   8.207   5.828  12.944 -0.4456  2.4156 -0.6959
10648SOL    HW241875   8.143   5.706  13.007  1.4848  0.1305 -2.9387
10649SOL     OW41876   7.776   7.848   8.004  0.0484  0.3127  0.3504
10649SOL    HW141877   7.785   7.752   7.999 -1.5335  0.1334  0.3796
10649SOL    HW241878   7.777   7.876   7.912  0.6414  0.2908  0.3464
10650SOL     OW41879   9.082  10.694   1.798 -0.1236  0.3586  0.7360
10650SOL    HW141880   9.131  10.708   1.879 -2.2849  0.9558  2.0024
10650SOL    HW241881   9.065  10.600   1.797  0.3861  0.2602  0.6585
10651SOL     OW41882   1.327   2.840   2.308  0.8209  0.9620  0.3026
10651SOL    HW141883   1.292   2.915   2.354 -0.7679 -0.2478  1.1599
10651SOL    HW241884   1.258   2.815   2.246  0.8181 -0.4547  0.8353
10652SOL     OW41885   3.117   2.578  13.168 -0.3638 -0.4443  0.0649
10652SOL    HW141886   3.151   2.491  13.192 -0.3748 -0.1392  1.2343
10652SOL    HW241887   3.172   2.639  13.217  0.7880  0.3336 -2.0573
10653SOL     OW41888  11.977   3.038   8.137  0.0007 -0.1930  0.4417
10653SOL    HW141889  12.034   3.115   8.137  0.8811 -0.8155 -0.2710
10653SOL    HW241890  12.020   2.977   8.077 -0.4860 -1.3802  1.2595
10654SOL     OW41891   2.596   7.276   7.941  0.2571  0.1690 -0.4774
10654SOL    HW141892   2.543   7.237   7.871  1.6944 -2.4116 -0.2597
10654SOL    HW241893   2.645   7.346   7.898 -1.0189  0.5289 -1.3727
10655SOL     OW41894   8.618  12.701   6.623 -0.1869 -0.4670  0.2154
10655SOL    HW141895   8.567  12.754   6.684 -1.3664 -1.0789 -0.2071
10655SOL    HW241896   8.624  12.615   6.665  1.2175 -0.1939  0.6294
10656SOL     OW41897   8.190  12.281  12.735  0.3633  0.2309 -0.2742
10656SOL    HW141898   8.225  12.367  12.712  1.7310 -0.6125 -1.5334
10656SOL    HW241899   8.248  12.219  12.691 -0.5685 -1.3488  0.6287
10657SOL     OW41900   3.149   8.173   4.337 -0.1077 -0.3844  0.3814
10657SOL    HW141901   3.110   8.087   4.347 -0.5576 -0.5115 -1.9412
10657SOL    HW241902   3.076   8.234   4.345  0.1143 -0.2415  1.4190
10658SOL     OW41903   3.841   9.602   6.722  0.3131 -0.8305 -0.1357
10658SOL    HW141904   3.758   9.603   6.674 -0.4188 -0.7914  1.1108
10658SOL    HW241905   3.907   9.619   6.654 -0.9102  2.2688 -0.7472
10659SOL     OW41906   2.313   9.679   6.377 -0.0122  0.1963 -0.2105
10659SOL    HW141907   2.344   9.595   6.409  1.3794  1.2078  1.2301
10659SOL    HW241908   2.234   9.658   6.327  1.6423 -2.2457 -2.0570
10660SOL     OW41909  12.106   6.062   7.911  0.3013 -0.0414  0.6530
10660SOL    HW141910  12.073   6.038   7.998  1.4843 -1.8116  0.6778
10660SOL    HW241911  12.160   6.139   7.926  0.7704 -0.5315  1.5759
10661SOL     OW41912  12.425   1.915  12.520  0.1255 -0.1849 -0.6001
10661SOL    HW141913  12.373   1.872  12.452 -0.6260  0.8843 -0.7253
10661SOL    HW241914  12.516   1.898  12.495 -0.1379  0.0994 -1.8118
10662SOL     OW41915   2.300  11.178   1.520 -0.4213 -0.0221  0.5346
10662SOL    HW141916   2.391  11.202   1.540 -0.2782  1.0780 -1.1729
10662SOL    HW241917   2.288  11.092   1.560  0.8834  0.4709  2.0822
10663SOL     OW41918   6.418  13.065   2.604 -0.0833 -0.0920 -0.2409
10663SOL    HW141919   6.375  13.144   2.572 -1.0390 -0.5960 -0.2661
10663SOL    HW241920   6.504  13.094   2.635 -0.8840  1.1514  0.9025
10664SOL     OW41921   7.135   7.867   4.218 -0.1042 -0.0963  0.0267
10664SOL    HW141922   7.205   7.908   4.167  0.9461 -2.4580 -0.5908
10664SOL    HW241923   7.067   7.847   4.154 -0.2220 -0.1392  0.1650
10665SOL     OW41924   1.936   7.687   8.924 -0.4051 -0.5199 -0.2206
10665SOL    HW141925   1.981   7.727   8.998 -0.9749 -0.4640  0.0933
10665SOL    HW241926   2.008   7.656   8.868  0.0468  0.8588 -0.4431
10666SOL     OW41927   3.781   2.718   9.558 -0.3428 -0.8957 -0.2020
10666SOL    HW141928   3.713   2.777   9.525 -0.8124 -2.4605 -2.2262
10666SOL    HW241929   3.863   2.757   9.527 -0.4005  0.0701  0.7760
10667SOL     OW41930   4.425  12.090   2.696 -0.2290 -0.2435  0.1553
10667SOL    HW141931   4.504  12.039   2.715 -0.0787 -0.2001 -0.3403
10667SOL    HW241932   4.363  12.026   2.662  0.0327 -0.0742 -0.6743
10668SOL     OW41933  10.245   7.877   3.341 -0.0337  0.4733 -0.2423
10668SOL    HW141934  10.157   7.862   3.377 -0.7413 -1.0876 -2.3730
10668SOL    HW241935  10.293   7.796   3.360  0.3585  0.6072 -0.6442
10669SOL     OW41936   1.557   8.250   1.550 -0.4208 -0.0896 -0.2021
10669SOL    HW141937   1.476   8.263   1.500 -0.6263 -0.7647 -0.0469
10669SOL    HW241938   1.528   8.225   1.637 -0.0410 -0.1218 -0.0844
10670SOL     OW41939   9.641   7.185   5.778  0.4549  0.4659 -0.4665
10670SOL    HW141940   9.691   7.113   5.817  1.2116  0.1881 -1.8898
10670SOL    HW241941   9.674   7.264   5.821  0.5406  0.0951  0.1680
10671SOL     OW41942  12.336   3.810   1.381 -0.2475  0.4088  0.8092
10671SOL    HW141943  12.373   3.761   1.307 -2.9206 -0.6733  0.0735
10671SOL    HW241944  12.305   3.892   1.343  0.3040  0.8094  1.1979
10672SOL     OW41945   1.581   9.458  12.349 -0.1089 -0.1197 -0.3074
10672SOL    HW141946   1.530   9.476  12.428 -0.1868  2.0826 -0.7842
10672SOL    HW241947   1.663   9.505  12.362 -0.2383  0.5328 -1.6111
10673SOL     OW41948   7.148  11.847   5.730 -0.6248 -0.5241 -0.0491
10673SOL    HW141949   7.122  11.905   5.658 -0.9485 -2.1328 -1.2824
10673SOL    HW241950   7.087  11.773   5.724  0.3058 -1.3956  0.9492
10674SOL     OW41951   7.943  10.349   1.199  0.0767 -0.1390  0.1467
10674SOL    HW141952   7.918  10.314   1.113 -0.5681 -0.9756  0.6608
10674SOL    HW241953   8.008  10.286   1.232  1.3405  0.9001 -0.2841
10675SOL     OW41954   8.500   9.428   6.655  0.4852  0.0294  0.3642
10675SOL    HW141955   8.413   9.397   6.628  1.0141 -0.6370 -0.5919
10675SOL    HW241956   8.486   9.521   6.675 -0.0037  0.4957 -1.9384
10676SOL     OW41957   2.361   3.055   9.446 -0.3209  0.4145  0.2346
10676SOL    HW141958   2.273   3.026   9.420  0.7157 -0.7394 -2.3488
10676SOL    HW241959   2.414   2.976   9.444  1.1683  1.3834 -0.1538
10677SOL     OW41960   5.386   8.847   2.364 -0.0525 -0.0253 -0.0889
10677SOL    HW141961   5.357   8.867   2.275  1.3573 -0.6790 -0.7316
10677SOL    HW241962   5.335   8.770   2.389  1.4476 -1.5243 -1.4254
10678SOL     OW41963   1.241  12.352   3.696 -0.5841  0.6281  0.2533
10678SOL    HW141964   1.185  12.371   3.620  0.5102  1.1383 -0.4510
10678SOL    HW241965   1.309  12.294   3.662 -3.5979 -4.7942  2.2541
10679SOL     OW41966   7.964   3.370   2.828  0.7290 -0.2987 -0.2259
10679SOL    HW141967   7.952   3.358   2.922  2.2458 -1.7715 -0.1573
10679SOL    HW241968   7.876   3.383   2.793  0.0437 -0.7808  1.2652
10680SOL     OW41969   3.066  12.682   7.140  0.5654 -0.1051 -0.5464
10680SOL    HW141970   3.006  12.756   7.150  1.7684  1.0406 -1.3879
10680SOL    HW241971   3.023  12.625   7.077 -0.8043 -0.6299  0.7981
10681SOL     OW41972   9.870  11.324   5.324 -0.3466 -0.0998 -0.4628
10681SOL    HW141973   9.917  11.283   5.396 -0.3374 -0.7475 -0.8276
10681SOL    HW241974   9.894  11.272   5.247  0.7482  1.4206 -1.1927
10682SOL     OW41975   0.315  10.620   1.292 -0.3629  0.4476  0.0420
10682SOL    HW141976   0.369  10.653   1.363  0.3628 -0.4768 -0.0619
10682SOL    HW241977   0.254  10.560   1.334  0.8440 -1.0360 -0.2111
10683SOL     OW41978   3.091  12.070   3.506 -0.5396  0.7061 -0.0258
10683SOL    HW141979   3.156  12.095   3.441  0.7176 -3.3077 -0.6061
10683SOL    HW241980   3.008  12.070   3.459  0.0292 -0.0620 -1.0635
10684SOL     OW41981   0.612  11.725  12.979  0.3646 -0.0637 -0.6709
10684SOL    HW141982   0.702  11.734  13.010 -0.0991 -0.5484  0.9114
10684SOL    HW241983   0.561  11.707  13.058 -1.0771 -0.1243 -1.5793
10685SOL     OW41984  12.232   8.050   6.303  0.7545 -0.4781 -0.5429
10685SOL    HW141985  12.319   8.090   6.308  0.8932 -0.6466 -1.4404
10685SOL    HW241986  12.245   7.972   6.249  0.2630 -1.1386  0.2732
10686SOL     OW41987   5.592   4.574   4.880  0.1996  0.8166  0.3048
10686SOL    HW141988   5.664   4.591   4.819 -0.3745  1.6280 -0.1680
10686SOL    HW241989   5.580   4.656   4.927 -1.1423  1.0680 -0.4185
10687SOL     OW41990   0.334   2.833  12.908 -0.4006 -0.0664 -0.1289
10687SOL    HW141991   0.340   2.738  12.897  0.1323 -0.1577  0.8001
10687SOL    HW241992   0.264   2.860  12.849  0.4204 -0.8424 -1.5001
10688SOL     OW41993   3.893   4.589   3.919 -0.1023 -0.4307  0.2944
10688SOL    HW141994   3.902   4.533   3.996  0.6411 -2.1127 -0.9533
10688SOL    HW241995   3.905   4.530   3.844  0.1532  1.2979 -1.1100
10689SOL     OW41996   9.554   2.795   1.222 -0.2818 -0.1090  0.1646
10689SOL    HW141997   9.588   2.849   1.294 -1.6284 -0.8986  1.4625
10689SOL    HW241998   9.617   2.724   1.213  0.0496  0.1568  0.3680
10690SOL     OW41999   2.191   0.945   6.123  0.2175 -0.2179 -0.2060
10690SOL    HW142000   2.253   1.016   6.138  0.6852 -0.0793 -2.5096
10690SOL    HW242001   2.238   0.866   6.152  1.2494 -0.0274 -1.2868
10691SOL     OW42002   9.605   9.970   6.668 -0.3758  0.7678 -0.1790
10691SOL    HW142003   9.553   9.892   6.687  1.6092 -0.3738  0.7712
10691SOL    HW242004   9.609   9.973   6.572 -3.0611  1.5440 -0.3487
10692SOL     OW42005   2.006   6.777   0.773 -0.6600  0.4724  0.4502
10692SOL    HW142006   1.956   6.832   0.713 -1.7852  0.1125  1.0384
10692SOL    HW242007   1.970   6.689   0.760 -0.3165  0.2428  1.0294
10693SOL     OW42008   4.296   7.325   0.977 -0.0807 -0.9025 -0.6702
10693SOL    HW142009   4.315   7.344   0.885 -0.6255  0.1252 -0.5844
10693SOL    HW242010   4.237   7.249   0.974 -0.5778 -0.5041 -1.2137
10694SOL     OW42011   6.973  13.247   3.072  0.2556 -0.9974 -0.1664
10694SOL    HW142012   7.033  13.236   2.998  0.0742  0.7457 -0.6084
10694SOL    HW242013   7.002  13.328   3.114  0.7714 -2.2857  2.1048
10695SOL     OW42014  11.589  12.165   7.621 -0.0377  0.2048 -0.4446
10695SOL    HW142015  11.652  12.126   7.560  0.7543 -0.2549  0.6386
10695SOL    HW242016  11.505  12.159   7.576  0.3503 -1.1525 -1.0216
10696SOL     OW42017  12.447   4.528   6.518 -0.2955  0.0623  0.2234
10696SOL    HW142018  12.509   4.467   6.479 -0.5198  0.6471 -1.0842
10696SOL    HW242019  12.371   4.526   6.460 -0.4755  1.2575  0.3838
10697SOL     OW42020   2.849   7.202   1.157  0.2564  0.1410 -0.0050
10697SOL    HW142021   2.765   7.244   1.140 -0.8841 -2.1325 -0.2443
10697SOL    HW242022   2.827   7.119   1.199  2.2104 -1.5453 -2.0539
10698SOL     OW42023   1.253   0.946   1.207  0.0913 -0.6115 -0.5128
10698SOL    HW142024   1.186   0.930   1.273  0.6237 -0.3971  0.0990
10698SOL    HW242025   1.267   0.861   1.165 -0.1230 -0.7952 -0.2141
10699SOL     OW42026  11.126   5.448  10.481  0.1257 -0.8279  0.4549
10699SOL    HW142027  11.080   5.474  10.402  1.0165 -1.8782 -0.4488
10699SOL    HW242028  11.105   5.516  10.545 -0.9440 -0.1809 -0.5500
10700SOL     OW42029   0.311   0.455   5.641 -0.0609 -0.0472 -0.6822
10700SOL    HW142030   0.386   0.401   5.616  0.4240  0.0400  0.4874
10700SOL    HW242031   0.309   0.524   5.575  0.3660 -0.5346 -1.2161
10701SOL     OW42032   8.125   0.172   4.928  0.0373  0.3325  0.3037
10701SOL    HW142033   8.174   0.128   4.859 -0.5683  1.3300 -0.8141
10701SOL    HW242034   8.067   0.233   4.881 -0.2301  1.2105  1.7055
10702SOL     OW42035  13.108   3.647   4.852  0.0353  0.1506  0.0691
10702SOL    HW142036  13.181   3.617   4.906 -0.0547 -2.3809 -1.0420
10702SOL    HW242037  13.034   3.654   4.913  0.4932 -0.2749  0.6849
10703SOL     OW42038  10.733  12.546   1.702  0.6859 -0.4863 -0.1340
10703SOL    HW142039  10.667  12.602   1.661  0.1703 -1.1839 -0.2719
10703SOL    HW242040  10.754  12.590   1.784  2.7015  1.6685 -1.6435
10704SOL     OW42041  10.937  10.635   4.632 -0.1180  0.1659  0.0435
10704SOL    HW142042  10.926  10.686   4.713 -0.5503  0.9765 -0.5109
10704SOL    HW242043  10.969  10.699   4.568  0.2404 -0.4753 -0.4192
10705SOL     OW42044   8.986  11.133   8.140  0.9214  0.2796 -0.2341
10705SOL    HW142045   8.941  11.139   8.224 -0.7791 -0.4403 -1.0463
10705SOL    HW242046   8.955  11.208   8.090  1.8575  0.6526 -0.2759
10706SOL     OW42047   6.793   8.539   1.687  0.5777 -0.5391  0.2084
10706SOL    HW142048   6.711   8.584   1.664  1.5948  0.7029 -1.1315
10706SOL    HW242049   6.829   8.509   1.604  1.5136 -1.0471  0.7817
10707SOL     OW42050   3.295   1.328  10.200 -0.6920 -0.2967  0.0605
10707SOL    HW142051   3.387   1.301  10.204 -0.9499 -1.3460 -0.7399
10707SOL    HW242052   3.298   1.423  10.206  0.3229 -0.3945  1.8712
10708SOL     OW42053   1.954   6.365   2.938  0.5071 -0.1918 -0.4289
10708SOL    HW142054   2.048   6.352   2.937  0.5267 -0.0389 -1.2425
10708SOL    HW242055   1.919   6.291   2.987  1.0757 -0.0324  0.2308
10709SOL     OW42056   7.028  10.523   3.011  0.6740 -0.7227  0.1505
10709SOL    HW142057   7.117  10.557   3.007  0.3930 -0.0814 -0.9373
10709SOL    HW242058   6.982  10.581   3.072  0.4487  0.3196 -0.9617
10710SOL     OW42059   2.330   3.579  10.501 -0.3428 -0.0323  0.1981
10710SOL    HW142060   2.421   3.561  10.524 -0.7729 -1.5319  0.8851
10710SOL    HW242061   2.289   3.604  10.584 -0.2127  2.4559 -0.4037
10711SOL     OW42062   8.911   7.966   2.037 -0.2990  0.0326 -0.1559
10711SOL    HW142063   8.928   8.012   1.954  0.5272  1.8525  0.9608
10711SOL    HW242064   8.996   7.928   2.060 -0.4717 -0.2698 -0.0251
10712SOL     OW42065   5.932   7.703   5.084 -0.0205  0.2661  0.7189
10712SOL    HW142066   6.016   7.658   5.091  0.0520  0.3110  0.1276
10712SOL    HW242067   5.870   7.645   5.129  0.6187  1.0378  2.6959
10713SOL     OW42068   9.008   5.638   4.074  0.4034  0.5642  0.0094
10713SOL    HW142069   9.019   5.579   3.999 -1.2553 -0.1487  0.2870
10713SOL    HW242070   9.013   5.581   4.150 -0.0832  0.9630  0.3384
10714SOL     OW42071   7.435  12.339   7.877 -0.4536 -0.2053  0.0440
10714SOL    HW142072   7.377  12.331   7.802  0.8011  0.3707 -1.0175
10714SOL    HW242073   7.522  12.318   7.843  0.1262 -0.0186  1.3538
10715SOL     OW42074   7.486   2.082  10.187  0.6563  0.0213 -0.3115
10715SOL    HW142075   7.550   2.013  10.201  2.2148  1.2811 -0.9548
10715SOL    HW242076   7.523   2.159  10.230  0.5677  1.2823 -2.3660
10716SOL     OW42077   2.263   4.813   4.504  0.1126 -0.2602  0.0486
10716SOL    HW142078   2.327   4.811   4.433 -0.0080 -1.1309 -0.0488
10716SOL    HW242079   2.314   4.827   4.583  0.3267 -0.0423 -0.1291
10717SOL     OW42080   5.794   1.409   6.703 -0.4406  0.9959 -0.2163
10717SOL    HW142081   5.817   1.343   6.638  1.2567 -0.8646  2.1146
10717SOL    HW242082   5.856   1.480   6.689  1.6811 -0.5229  0.9059
10718SOL     OW42083   3.974   6.066   7.024 -0.1538 -0.5340  0.0548
10718SOL    HW142084   3.962   6.155   7.059  2.6083  0.7654 -1.9091
10718SOL    HW242085   4.049   6.031   7.072  1.0452 -0.3312 -1.5887
10719SOL     OW42086   3.022   3.014   2.912  0.1282  0.3637 -0.2788
10719SOL    HW142087   2.948   2.995   2.854  0.1584  0.1435 -0.2431
10719SOL    HW242088   3.003   3.102   2.946 -0.4174  0.0731  0.1902
10720SOL     OW42089   0.716   0.360   3.350  0.0612 -0.1301 -0.3624
10720SOL    HW142090   0.731   0.452   3.373  1.3915  0.0139 -1.6519
10720SOL    HW242091   0.788   0.312   3.391  0.1173 -0.4110 -0.7832
10721SOL     OW42092   8.338   0.028   3.681 -0.2492  0.5209  0.8109
10721SOL    HW142093   8.426   0.066   3.691  0.3141 -0.0719 -1.2802
10721SOL    HW242094   8.353  -0.066   3.676 -0.6520  0.5153 -1.8370
10722SOL     OW42095   2.193   7.834   6.524 -0.4514 -0.0497  0.1411
10722SOL    HW142096   2.271   7.882   6.496 -0.4175  0.0214  0.3525
10722SOL    HW242097   2.127   7.903   6.536 -0.6326 -0.1417 -0.3298
10723SOL     OW42098  10.373   5.903   5.843 -0.2160 -0.0764  0.7895
10723SOL    HW142099  10.318   5.847   5.789 -0.0072 -0.3657  0.8787
10723SOL    HW242100  10.458   5.902   5.800  0.0065 -0.4689  1.2345
10724SOL     OW42101   3.007  13.217  10.449 -0.1502  0.9629  0.1664
10724SOL    HW142102   2.926  13.268  10.447 -0.2097  0.9422  1.6211
10724SOL    HW242103   3.022  13.198  10.541  0.9632  0.0703 -0.1753
10725SOL     OW42104   9.062  10.587  10.313 -0.6996 -0.1031 -0.5098
10725SOL    HW142105   9.100  10.517  10.367 -0.7573  1.6286  1.9543
10725SOL    HW242106   9.136  10.644  10.292 -1.0353  0.4472 -0.2462
10726SOL     OW42107   0.624  11.107   3.644  0.1917  0.0791  0.0522
10726SOL    HW142108   0.689  11.126   3.576  1.0174 -0.5427  0.6492
10726SOL    HW242109   0.674  11.067   3.715 -0.8269 -0.2830  0.5911
10727SOL     OW42110   4.360   3.248   0.864  0.2326  0.1336 -0.3941
10727SOL    HW142111   4.308   3.246   0.784 -1.2759  1.8275  0.4717
10727SOL    HW242112   4.450   3.233   0.835 -0.3098  0.4584 -2.3682
10728SOL     OW42113   6.978  12.662   2.414  0.4623  0.1567 -0.4255
10728SOL    HW142114   7.033  12.623   2.346  1.7186  1.3079 -0.1112
10728SOL    HW242115   6.976  12.597   2.484  0.1899 -0.5061 -1.0351
10729SOL     OW42116   4.529   2.063   3.758  0.4505  0.1982  0.0569
10729SOL    HW142117   4.476   2.024   3.828 -1.1665 -1.2601 -1.8557
10729SOL    HW242118   4.465   2.102   3.698  1.6741  0.1135 -1.3611
10730SOL     OW42119  13.086   9.506   4.872  0.4882 -0.0675 -0.8226
10730SOL    HW142120  13.044   9.421   4.858  0.8585 -0.1843 -1.2227
10730SOL    HW242121  13.143   9.491   4.948 -1.1005  0.4221  0.5415
10731SOL     OW42122   4.846   9.857   6.698 -0.0087 -0.5597 -0.3385
10731SOL    HW142123   4.766   9.882   6.743 -1.9329 -2.9109 -2.2340
10731SOL    HW242124   4.874   9.937   6.654 -0.1257  0.8042  1.8909
10732SOL     OW42125   1.832   8.302  10.714  0.3344 -0.4644 -0.1994
10732SOL    HW142126   1.907   8.308  10.773  1.0963  1.6618 -1.2933
10732SOL    HW242127   1.868   8.264  10.634  0.3654  0.9049 -0.8584
10733SOL     OW42128  12.446  12.292   4.579 -0.6458 -1.3590 -0.0445
10733SOL    HW142129  12.461  12.335   4.664  4.0995 -1.7655 -0.3893
10733SOL    HW242130  12.352  12.298   4.565 -1.0091  4.0649  2.4272
10734SOL     OW42131   2.035   2.440   9.238 -0.1737  0.2304 -0.2234
10734SOL    HW142132   1.949   2.400   9.228 -0.3350  0.0781  1.4785
10734SOL    HW242133   2.096   2.365   9.232 -0.1009  0.3651 -1.6505
10735SOL     OW42134   0.334   0.334   9.778  0.2477 -0.2822  0.2336
10735SOL    HW142135   0.253   0.283   9.775 -0.2792  0.4367  1.7113
10735SOL    HW242136   0.328   0.392   9.702 -0.4668 -0.4600  0.1473
10736SOL     OW42137   4.354   6.877  10.907 -0.4004  0.7432  0.1554
10736SOL    HW142138   4.360   6.966  10.871 -0.6254  0.2856 -1.0643
10736SOL    HW242139   4.397   6.822  10.842 -0.4176 -0.0725  0.8187
10737SOL     OW42140   5.432   6.376  10.618 -0.3417 -0.6198 -0.3997
10737SOL    HW142141   5.518   6.419  10.616 -0.0187 -1.2642 -0.7415
10737SOL    HW242142   5.400   6.391  10.707  0.1844 -0.4842 -0.2272
10738SOL     OW42143   3.105  10.173  11.562  0.2094 -1.0111  0.2741
10738SOL    HW142144   3.063  10.087  11.567  1.4324 -1.7790 -1.4541
10738SOL    HW242145   3.113  10.190  11.468 -2.3637  2.2618  0.4920
10739SOL     OW42146   0.557   7.043   0.572 -0.4710 -0.5307  0.0551
10739SOL    HW142147   0.469   7.028   0.537 -1.0876 -0.3877  1.4905
10739SOL    HW242148   0.580   7.131   0.541 -0.8409 -0.5602 -0.3078
10740SOL     OW42149   3.370  11.054   4.226 -0.4941 -0.1621 -0.5117
10740SOL    HW142150   3.349  11.143   4.198 -1.1844 -0.1644 -0.0371
10740SOL    HW242151   3.425  11.065   4.304  1.4472 -0.1558 -1.8194
10741SOL     OW42152   3.838   9.997   2.591 -0.0887 -0.2782 -0.1598
10741SOL    HW142153   3.886   9.933   2.644  0.3455 -0.5710 -0.8869
10741SOL    HW242154   3.755  10.009   2.638  0.4199 -0.2667  0.7586
10742SOL     OW42155   1.961   9.680   7.475 -0.9216  0.6936 -0.4498
10742SOL    HW142156   1.939   9.659   7.566  0.3622  0.9486 -0.0509
10742SOL    HW242157   2.052   9.711   7.480 -0.3111 -0.6900 -2.0119
10743SOL     OW42158   0.727   4.136   3.669 -0.2281  0.4937 -0.2339
10743SOL    HW142159   0.757   4.045   3.669 -2.0836 -0.2543  2.5776
10743SOL    HW242160   0.795   4.184   3.718 -0.3074  0.1475  0.2266
10744SOL     OW42161   5.589  12.453  11.325 -0.6542  0.0825 -0.0400
10744SOL    HW142162   5.580  12.358  11.328  1.3809 -0.2323 -1.4480
10744SOL    HW242163   5.623  12.477  11.411  0.8811 -0.7907 -0.3589
10745SOL     OW42164   7.904   5.634   8.868  0.0149 -0.1299 -0.2566
10745SOL    HW142165   7.916   5.585   8.949 -1.7747 -0.9630 -0.4571
10745SOL    HW242166   7.871   5.720   8.896  0.3825 -0.0495 -0.0624
10746SOL     OW42167   8.535  10.196  10.885 -0.0133  0.4177  0.0071
10746SOL    HW142168   8.473  10.139  10.840 -0.3093  1.7127 -1.3170
10746SOL    HW242169   8.615  10.191  10.833  0.3746  0.2501  0.6057
10747SOL     OW42170  13.228   9.266   7.062 -0.1773  0.3410 -0.4103
10747SOL    HW142171  13.259   9.357   7.057  0.8375 -0.0208 -0.7787
10747SOL    HW242172  13.285   9.225   7.127 -0.6873 -0.0313 -0.1831
10748SOL     OW42173   0.574   9.203   4.488  0.3464  0.1469 -0.1747
10748SOL    HW142174   0.504   9.206   4.423  2.0101  0.5835 -2.0445
10748SOL    HW242175   0.643   9.259   4.451  2.8136 -2.4169  0.1970
10749SOL     OW42176   7.456   0.477   4.493  0.0999  0.0320  0.1147
10749SOL    HW142177   7.450   0.555   4.549  0.5137 -0.8981  1.5249
10749SOL    HW242178   7.530   0.494   4.435 -0.1923  0.9321 -0.0004
10750SOL     OW42179   2.424   6.962   8.148  0.0651 -0.2213  0.1798
10750SOL    HW142180   2.410   6.880   8.194 -1.7161  0.6142  1.2167
10750SOL    HW242181   2.360   6.960   8.076  0.5952 -0.1002 -0.3011
10751SOL     OW42182   2.342  10.701   3.972  0.1524  0.1367 -0.1286
10751SOL    HW142183   2.409  10.697   4.039 -0.1503  1.2556  0.2506
10751SOL    HW242184   2.384  10.745   3.898  0.3147 -0.5977 -0.4851
10752SOL     OW42185   0.197  12.407   1.072  0.9689  0.3477 -0.2034
10752SOL    HW142186   0.257  12.476   1.101 -1.3609  1.9529  1.1173
10752SOL    HW242187   0.171  12.433   0.984  1.5335  0.0964 -0.4514
10753SOL     OW42188   0.390   9.653   2.580 -0.4343 -0.4503 -0.0992
10753SOL    HW142189   0.462   9.675   2.639  1.1027 -0.1789 -1.9812
10753SOL    HW242190   0.314   9.647   2.637  0.6923  1.1866  1.7134
10754SOL     OW42191   4.368   6.066  10.912  0.0074 -0.1648 -0.2530
10754SOL    HW142192   4.347   6.095  10.823 -0.8649 -1.9180 -0.6557
10754SOL    HW242193   4.414   6.141  10.951  0.1986  0.7311 -2.0819
10755SOL     OW42194   5.901   4.626   0.827  0.1603  0.0635  0.3764
10755SOL    HW142195   5.943   4.543   0.848 -0.5409 -0.4812 -0.2917
10755SOL    HW242196   5.967   4.675   0.779  0.1260 -0.6792 -0.4547
10756SOL     OW42197   6.119   5.503   1.920  0.1200 -0.0597  0.0141
10756SOL    HW142198   6.057   5.451   1.869  0.5349 -0.4956 -0.0603
10756SOL    HW242199   6.141   5.448   1.995  0.8382 -0.1518 -0.2527
10757SOL     OW42200   9.903   6.678   4.684 -0.2659  0.3270 -0.0797
10757SOL    HW142201   9.929   6.760   4.642 -2.3268  2.3617  2.2785
10757SOL    HW242202   9.808   6.686   4.694 -0.8190 -3.1733 -1.2671
10758SOL     OW42203   9.878  12.035   4.350 -0.6253 -0.4564  0.5844
10758SOL    HW142204   9.969  12.062   4.361 -0.5247 -1.3326  2.2813
10758SOL    HW242205   9.848  12.082   4.273  1.5218 -0.8524 -0.5679
10759SOL     OW42206  12.754   2.385   9.234  0.6469  0.0670  0.1668
10759SOL    HW142207  12.834   2.431   9.208  1.4449 -1.5276 -0.2891
10759SOL    HW242208  12.695   2.455   9.263  1.7169  1.3999 -0.7420
10760SOL     OW42209   4.364   2.145  11.156  0.1204  0.1101  0.0932
10760SOL    HW142210   4.453   2.173  11.136  0.0822  1.9592  2.1984
10760SOL    HW242211   4.363   2.135  11.252 -2.1828  1.1224  0.2261
10761SOL     OW42212   8.344  10.180   2.732  0.3629  0.2116 -0.2009
10761SOL    HW142213   8.307  10.143   2.652  0.2877 -1.4643  0.5606
10761SOL    HW242214   8.434  10.204   2.709  0.2419  0.0211 -0.8711
10762SOL     OW42215  12.226   9.038   3.280 -0.1693  0.1681  0.1566
10762SOL    HW142216  12.241   9.007   3.369  1.8015  1.7852  0.4341
10762SOL    HW242217  12.241   8.961   3.225 -3.0621 -1.3181  1.1960
10763SOL     OW42218   0.562   3.155   2.379 -0.4939 -0.3143  0.2022
10763SOL    HW142219   0.624   3.126   2.311  1.1804  0.1888  1.4624
10763SOL    HW242220   0.514   3.227   2.338 -2.1645 -2.3711 -1.7056
10764SOL     OW42221   5.514   0.531   2.861 -0.9007 -0.0238  0.2277
10764SOL    HW142222   5.524   0.587   2.938  1.0974 -0.1169  0.0854
10764SOL    HW242223   5.535   0.443   2.893 -0.2157 -0.0848 -0.3785
10765SOL     OW42224   5.421   4.975   4.144  0.5000  0.2358  0.6222
10765SOL    HW142225   5.508   4.991   4.180  0.0060  1.1357  1.4563
10765SOL    HW242226   5.373   4.930   4.214 -0.0689  0.8305  0.6264
10766SOL     OW42227  11.633   0.130   7.931 -0.0312 -0.2772  0.6359
10766SOL    HW142228  11.667   0.217   7.953 -1.0567 -0.0493  1.3666
10766SOL    HW242229  11.702   0.069   7.957  1.2132  0.3670 -0.9869
10767SOL     OW42230  10.795  11.270   7.505 -0.6821 -0.0020  0.0786
10767SOL    HW142231  10.862  11.299   7.567 -0.9064 -0.2820  0.4466
10767SOL    HW242232  10.712  11.292   7.547 -0.8636 -1.3557  0.4512
10768SOL     OW42233   4.691   6.241   4.493 -0.4020 -0.0872  0.4604
10768SOL    HW142234   4.698   6.208   4.403  1.4178 -2.3236  1.3170
10768SOL    HW242235   4.716   6.333   4.486 -1.2925  0.0633 -1.4379
10769SOL     OW42236   0.534   0.961  11.022  0.4178 -0.0598  0.5437
10769SOL    HW142237   0.543   0.866  11.028  1.0606  0.0638  2.3171
10769SOL    HW242238   0.623   0.993  11.007  0.7147  0.3709  2.8636
10770SOL     OW42239   1.254  12.227  12.155  0.6080  0.2013 -0.3531
10770SOL    HW142240   1.222  12.299  12.101 -0.1118 -0.5949 -1.0002
10770SOL    HW242241   1.193  12.224  12.229 -0.2357 -0.6520 -1.0608
10771SOL     OW42242   8.990  10.764  12.606  0.5095 -0.3452 -0.5633
10771SOL    HW142243   9.028  10.760  12.694 -1.9441 -1.8482  0.4993
10771SOL    HW242244   8.896  10.752  12.619  0.1749 -1.7226 -3.4829
10772SOL     OW42245   2.622   5.298   0.160  0.4856 -0.1744 -0.1747
10772SOL    HW142246   2.692   5.362   0.146  1.7708 -1.2873  0.9232
10772SOL    HW242247   2.596   5.310   0.252 -2.0681  1.4169 -0.9769
10773SOL     OW42248  10.556   6.469  10.235  0.0098  0.0694  0.2375
10773SOL    HW142249  10.633   6.492  10.287  1.2029 -2.3455 -0.2906
10773SOL    HW242250  10.509   6.405  10.289 -0.1780 -0.4479 -0.5235
10774SOL     OW42251   7.595  11.636  11.317  0.0860 -0.1692  0.1126
10774SOL    HW142252   7.591  11.678  11.403  0.7257  2.2138 -0.9098
10774SOL    HW242253   7.603  11.543  11.336  1.2573  0.3454  2.6680
10775SOL     OW42254  10.289   3.952   6.278  0.2421  0.4660 -0.3278
10775SOL    HW142255  10.373   3.935   6.321  1.4593  2.3095 -1.8224
10775SOL    HW242256  10.283   3.887   6.209 -0.7090 -1.1248  1.1641
10776SOL     OW42257  12.056   9.782   8.828  0.1574  0.1186  0.7443
10776SOL    HW142258  12.142   9.824   8.835 -0.1792  0.9834 -0.1457
10776SOL    HW242259  11.993   9.853   8.841 -0.4335 -0.5097  1.3900
10777SOL     OW42260  11.393  12.893   5.194 -0.0870 -0.2981  0.4546
10777SOL    HW142261  11.297  12.892   5.188 -0.1278 -0.0812  1.0096
10777SOL    HW242262  11.422  12.851   5.114 -0.6751 -1.7877  0.9795
10778SOL     OW42263   0.309   5.218   8.598 -0.0630  0.1647 -0.1895
10778SOL    HW142264   0.247   5.223   8.671 -0.6830 -0.5312 -0.6569
10778SOL    HW242265   0.294   5.299   8.549 -0.0662  0.3542  0.1200
10779SOL     OW42266  11.953   3.749   0.921 -0.5707 -0.3879 -0.2472
10779SOL    HW142267  12.045   3.725   0.922 -0.8183 -1.3694  0.1527
10779SOL    HW242268  11.916   3.702   0.847 -0.8518 -0.3857 -0.1085
10780SOL     OW42269   4.888   6.326   8.579  0.7468  0.1212  0.4731
10780SOL    HW142270   4.890   6.261   8.650  0.2903 -1.4947 -0.9184
10780SOL    HW242271   4.979   6.334   8.551  0.5622 -1.5472 -0.7145
10781SOL     OW42272   8.808   4.843   1.048  0.3172  0.3365 -0.4431
10781SOL    HW142273   8.747   4.769   1.052 -0.2181  0.7896  2.8914
10781SOL    HW242274   8.877   4.814   0.988 -0.9805 -1.9504 -0.9550
10782SOL     OW42275  13.283   1.291   5.914 -0.0068 -0.0192  0.3714
10782SOL    HW142276  13.202   1.265   5.870 -0.6634  1.9874  0.2754
10782SOL    HW242277  13.353   1.258   5.858 -0.7686 -1.0219 -0.0152
10783SOL     OW42278   6.164   3.912   1.609  0.1253  0.3166  0.0467
10783SOL    HW142279   6.138   3.954   1.690  1.3051 -1.4861  1.4567
10783SOL    HW242280   6.084   3.875   1.573 -0.5682  1.9597 -0.1629
10784SOL     OW42281  11.543   0.398   2.591 -0.2635  0.2525  0.3473
10784SOL    HW142282  11.611   0.458   2.622  0.0394  0.5762 -0.8994
10784SOL    HW242283  11.462   0.449   2.595 -0.5172 -0.1938  2.0193
10785SOL     OW42284   9.919   0.454   9.546  0.5670 -0.0870  0.2102
10785SOL    HW142285   9.902   0.531   9.493 -1.3174  0.1722  1.1122
10785SOL    HW242286   9.991   0.480   9.604  0.3631  0.7933  0.0826
10786SOL     OW42287   2.075   2.306   1.030 -0.0369 -0.4199  0.0885
10786SOL    HW142288   2.105   2.302   0.939  1.0283 -1.0536  0.4495
10786SOL    HW242289   2.081   2.216   1.061 -4.4603 -1.0930 -0.4160
10787SOL     OW42290   4.737  11.725   8.819 -0.7111  0.2302 -0.4417
10787SOL    HW142291   4.671  11.706   8.886 -1.2741 -0.4992 -1.1717
10787SOL    HW242292   4.792  11.793   8.857 -1.4309  0.3087  0.4858
10788SOL     OW42293   5.728   2.596   0.745  0.0842 -0.2052  0.4109
10788SOL    HW142294   5.748   2.583   0.653  0.9025 -0.9055  0.6729
10788SOL    HW242295   5.732   2.508   0.783 -1.8863 -0.1648  0.8180
10789SOL     OW42296   1.452   0.013   3.733 -0.3549 -0.4076  0.5907
10789SOL    HW142297   1.438  -0.051   3.662  2.5287  0.0253 -0.5197
10789SOL    HW242298   1.371   0.063   3.736 -2.0130 -2.8603  0.2177
10790SOL     OW42299   4.508   0.863  10.661 -0.0651 -0.0337  0.2995
10790SOL    HW142300   4.505   0.854  10.565 -1.4275  1.3257  0.1768
10790SOL    HW242301   4.568   0.935  10.676 -1.1438  0.8783  0.3469
10791SOL     OW42302  10.151   9.124   8.332 -0.2850  0.2035 -0.1834
10791SOL    HW142303  10.188   9.157   8.414  1.7167  0.4698 -1.1234
10791SOL    HW242304  10.221   9.071   8.294 -1.3463 -0.3068 -1.4861
10792SOL     OW42305  11.114   4.074  11.324  0.0644  0.2681 -0.0535
10792SOL    HW142306  11.200   4.040  11.351  0.0900  0.7743  0.5218
10792SOL    HW242307  11.109   4.055  11.231  0.4244 -0.5841  0.0906
10793SOL     OW42308   8.743   7.107  12.302 -0.3614 -0.8451 -0.1709
10793SOL    HW142309   8.671   7.157  12.340  0.3304  0.1132 -0.0883
10793SOL    HW242310   8.820   7.162  12.316  1.0300 -3.2060  2.7650
10794SOL     OW42311   1.919   3.132   1.860 -0.4339 -0.2032 -0.9957
10794SOL    HW142312   1.975   3.120   1.936  0.3739  0.5779 -1.4440
10794SOL    HW242313   1.848   3.069   1.872 -0.4233  0.0236  0.4861
10795SOL     OW42314   7.750   8.659   7.971  0.3099 -0.0173 -0.5654
10795SOL    HW142315   7.752   8.695   7.882  1.3414 -0.3014 -0.6719
10795SOL    HW242316   7.764   8.565   7.959  0.6589 -0.0271 -0.1013
10796SOL     OW42317   3.099   9.455   2.384 -0.4847  0.1723  0.0121
10796SOL    HW142318   3.018   9.498   2.413 -0.8571  0.4202 -1.3592
10796SOL    HW242319   3.111   9.383   2.447 -2.1166 -0.2705 -0.1321
10797SOL     OW42320   7.600   2.368  13.101  0.4446 -0.5341  0.1006
10797SOL    HW142321   7.603   2.356  13.007 -0.2327  1.7768 -0.3005
10797SOL    HW242322   7.506   2.372  13.122  0.5798 -1.3221  0.9317
10798SOL     OW42323   1.918   4.879   6.082  0.4155  0.0951  0.5176
10798SOL    HW142324   1.949   4.850   5.996 -0.8829 -0.6063  0.2658
10798SOL    HW242325   1.897   4.798   6.128  1.1706  0.4600  1.5427
10799SOL     OW42326   0.167   6.743   2.936  0.4816 -0.4499 -0.6240
10799SOL    HW142327   0.117   6.701   2.866 -1.7450 -0.1885  0.7179
10799SOL    HW242328   0.250   6.695   2.939 -0.6548 -2.5894 -1.3079
10800SOL     OW42329  11.395  13.088  12.964  0.2564 -0.2755 -0.4764
10800SOL    HW142330  11.331  13.142  12.917  0.8393 -0.4171 -1.4692
10800SOL    HW242331  11.439  13.149  13.023  0.2745  0.1576 -0.9269
10801SOL     OW42332   6.865  12.061   4.695 -0.3229 -0.5100  0.6094
10801SOL    HW142333   6.790  12.106   4.734  0.9369  1.6957  0.6696
10801SOL    HW242334   6.919  12.035   4.769 -0.6085 -1.3444  0.5319
10802SOL     OW42335   6.835   1.445  12.466 -0.9041  0.1327  0.3624
10802SOL    HW142336   6.774   1.519  12.459 -0.3903  0.4452 -1.4463
10802SOL    HW242337   6.817   1.392  12.388  3.4985  2.1991 -2.4446
10803SOL     OW42338   0.509   2.967   3.842 -0.1572 -0.1461 -0.7672
10803SOL    HW142339   0.509   3.006   3.930  1.7556  0.4024 -0.9586
10803SOL    HW242340   0.429   3.000   3.802 -1.6763 -1.3460  1.1323
10804SOL     OW42341   1.396  12.057   2.593  0.2008 -0.1394  0.7082
10804SOL    HW142342   1.461  12.067   2.662 -0.1756  1.4152  0.8807
10804SOL    HW242343   1.339  12.133   2.602  0.0757  0.0728 -1.2586
10805SOL     OW42344   1.204  13.173   6.414  0.6019  0.2350  0.1286
10805SOL    HW142345   1.260  13.141   6.344 -1.6000 -3.6734 -0.0994
10805SOL    HW242346   1.230  13.123   6.491 -1.7104 -0.8795  0.2678
10806SOL     OW42347   8.582   5.012   1.564 -0.2628 -0.2643 -0.1083
10806SOL    HW142348   8.508   4.961   1.594  0.5541 -0.8584  0.9449
10806SOL    HW242349   8.567   5.023   1.470 -2.1276  0.4183  0.2271
10807SOL     OW42350  12.595   5.323   2.871  0.0926  0.0101  0.0893
10807SOL    HW142351  12.510   5.361   2.898 -0.0497 -1.5831  2.1259
10807SOL    HW242352  12.630   5.387   2.809 -2.1949  1.1614 -0.1592
10808SOL     OW42353   5.414   1.103  13.112  0.6665  0.2955  0.0663
10808SOL    HW142354   5.423   1.010  13.092  2.4671  0.3911  0.3315
10808SOL    HW242355   5.319   1.117  13.112  0.3799 -1.0226 -2.2852
10809SOL     OW42356  12.080   9.336   7.986  0.0729 -0.3032 -0.1149
10809SOL    HW142357  12.111   9.291   8.064 -0.5176 -1.5301 -0.5494
10809SOL    HW242358  12.159   9.366   7.942  0.6093 -2.2013 -0.5261
10810SOL     OW42359  11.461   6.885  12.160 -0.0869  0.2257 -0.1761
10810SOL    HW142360  11.520   6.950  12.122  1.4048 -0.4204  0.9275
10810SOL    HW242361  11.400   6.864  12.090  0.0006  2.0773 -0.8710
10811SOL     OW42362   4.201   8.510   6.668  0.8100  0.2184  0.0905
10811SOL    HW142363   4.181   8.419   6.644 -0.4723  0.2737  0.8552
10811SOL    HW242364   4.223   8.505   6.761  1.6115  0.5790 -0.0744
10812SOL     OW42365   0.806   2.213   2.056 -0.1463  0.2417 -0.3612
10812SOL    HW142366   0.817   2.304   2.083  1.1009  0.1414 -0.4857
10812SOL    HW242367   0.811   2.163   2.138  0.0442  0.2202 -0.3852
10813SOL     OW42368   8.222   3.113   8.044  0.2900  0.2819  0.1126
10813SOL    HW142369   8.150   3.159   8.001  1.0479  0.3298 -1.1510
10813SOL    HW242370   8.180   3.038   8.087 -0.4780  0.1119 -0.9091
10814SOL     OW42371   5.545   5.123   1.299 -0.1673 -0.1421  0.5482
10814SOL    HW142372   5.586   5.043   1.331  0.9288  0.3482  0.4149
10814SOL    HW242373   5.481   5.093   1.234  0.3301 -0.9033  0.4001
10815SOL     OW42374   9.197  11.264   4.555 -0.1768  0.3142 -0.0727
10815SOL    HW142375   9.201  11.172   4.582  1.1538  0.5113  0.4269
10815SOL    HW242376   9.227  11.313   4.631  0.7290  1.0602 -0.8918
10816SOL     OW42377  10.581   6.782  11.604 -0.1601  0.5315 -0.2821
10816SOL    HW142378  10.555   6.712  11.545  0.1166 -0.8168  1.1465
10816SOL    HW242379  10.667   6.755  11.637 -0.0402  1.5501  0.2906
10817SOL     OW42380   0.409   8.480   5.228 -0.1856  0.3066  0.4268
10817SOL    HW142381   0.491   8.499   5.274 -0.6089  0.4462  1.1476
10817SOL    HW242382   0.436   8.455   5.140  0.5315  2.4847 -0.0372
10818SOL     OW42383  10.299  11.012   8.138  0.0033 -0.3361 -0.2112
10818SOL    HW142384  10.334  10.939   8.087 -0.2777  0.0180 -0.9247
10818SOL    HW242385  10.304  10.982   8.229 -0.5992 -1.4515 -0.5292
10819SOL     OW42386   5.163   4.670   1.483 -0.4470  0.0970  0.3740
10819SOL    HW142387   5.180   4.755   1.442  3.5786 -0.7107 -0.0470
10819SOL    HW242388   5.196   4.679   1.572  2.3714 -1.5442 -0.3722
10820SOL     OW42389  12.410   1.948  12.946 -0.4983 -0.4589  0.4119
10820SOL    HW142390  12.402   1.886  12.873 -1.6926 -0.1154  0.2281
10820SOL    HW242391  12.500   1.979  12.941 -0.3358 -1.0304 -0.4359
10821SOL     OW42392  10.744   4.584   4.728  0.1433 -0.5623  0.0593
10821SOL    HW142393  10.837   4.576   4.707  0.3435 -0.2786  0.8033
10821SOL    HW242394  10.742   4.642   4.804 -0.7548  0.7981 -0.9595
10822SOL     OW42395  10.589   6.182   9.284  0.2584  0.9477  0.3186
10822SOL    HW142396  10.630   6.136   9.358  1.9012 -0.6524 -1.4630
10822SOL    HW242397  10.630   6.269   9.285  1.2084  0.5193  0.5784
10823SOL     OW42398   7.302   5.116  11.639  0.4991  0.3523 -0.5518
10823SOL    HW142399   7.309   5.176  11.714 -1.1548 -1.0467  0.8354
10823SOL    HW242400   7.213   5.130  11.606  0.2392 -0.9595 -0.4788
10824SOL     OW42401  11.210   8.608   4.275  0.4977 -0.6193 -0.1167
10824SOL    HW142402  11.278   8.675   4.280 -0.7846  0.6896  0.6422
10824SOL    HW242403  11.195   8.595   4.182 -0.3697  1.3965 -0.3053
10825SOL     OW42404   3.833   6.149   5.933  0.2063  0.3979  0.8000
10825SOL    HW142405   3.829   6.068   5.984 -0.1734  0.1610  0.4043
10825SOL    HW242406   3.920   6.149   5.894  0.9472  1.1466  2.3387
10826SOL     OW42407  11.367  11.033   8.283 -0.5316  0.0238  1.0468
10826SOL    HW142408  11.388  10.983   8.362  0.3124 -0.5399  0.4814
10826SOL    HW242409  11.451  11.048   8.241 -1.0520 -0.4544 -0.2052
10827SOL     OW42410   0.143   7.328   5.402  0.3751 -0.5394 -0.0302
10827SOL    HW142411   0.210   7.270   5.367  0.1367 -0.4555 -0.6421
10827SOL    HW242412   0.062   7.299   5.360  0.3122  0.4620 -0.6402
10828SOL     OW42413   2.723   2.379  12.203  0.1516  0.3067  0.3382
10828SOL    HW142414   2.657   2.437  12.241 -1.9200 -1.5614 -0.1985
10828SOL    HW242415   2.778   2.353  12.277 -1.4466 -0.2572  1.3739
10829SOL     OW42416   2.663   1.898   3.907  0.1641  0.1889 -0.1293
10829SOL    HW142417   2.591   1.866   3.852 -0.3911  1.8603 -0.4207
10829SOL    HW242418   2.620   1.946   3.977  0.9449 -0.5755  0.9054
10830SOL     OW42419   2.090   0.042  11.661  0.1495  0.3003  0.8915
10830SOL    HW142420   2.021   0.107  11.677  1.0509  1.1001  1.6434
10830SOL    HW242421   2.156   0.090  11.611 -0.4164 -0.8296 -1.0056
10831SOL     OW42422  10.478  10.539   0.781 -0.0521 -0.7698  0.2676
10831SOL    HW142423  10.448  10.468   0.725 -0.2033 -0.3910 -0.1458
10831SOL    HW242424  10.571  10.549   0.758  1.1575 -3.5221  3.2354
10832SOL     OW42425   8.279  12.372  11.580 -0.1152 -0.4703  0.4901
10832SOL    HW142426   8.225  12.296  11.556 -0.4689 -0.6467  1.7609
10832SOL    HW242427   8.247  12.397  11.667  0.3171  0.8507  0.2887
10833SOL     OW42428   8.079  11.899  12.862  0.2131  0.4165 -0.2635
10833SOL    HW142429   8.105  11.915  12.772  0.7965 -0.1143 -0.1904
10833SOL    HW242430   8.106  11.978  12.909 -2.4096  1.8732 -0.9758
10834SOL     OW42431   6.400   4.506   3.491  0.5744  0.0329  0.2864
10834SOL    HW142432   6.310   4.507   3.457  0.1894  2.0086  1.2384
10834SOL    HW242433   6.393   4.459   3.574  0.1940  1.0276  0.8382
10835SOL     OW42434   7.136   9.817   5.511  0.1107 -0.1999 -0.6235
10835SOL    HW142435   7.089   9.734   5.511  0.7510 -0.5690 -0.4292
10835SOL    HW242436   7.084   9.874   5.567 -0.8332 -0.1739 -1.5083
10836SOL     OW42437  12.752   3.680  13.148  0.1521  0.5063 -0.3220
10836SOL    HW142438  12.794   3.689  13.062  0.3763  2.2948 -0.0773
10836SOL    HW242439  12.757   3.587  13.168  1.2833  0.2448 -1.6556
10837SOL     OW42440  11.379   7.220   1.317  0.3349 -0.0731  0.0781
10837SOL    HW142441  11.290   7.183   1.316 -0.3299  1.4840 -0.8317
10837SOL    HW242442  11.395   7.247   1.227  1.4096  0.4375  0.4063
10838SOL     OW42443   6.366   2.676   2.466 -0.1274  0.5280  0.0230
10838SOL    HW142444   6.440   2.684   2.526 -0.9777  0.8994  1.0438
10838SOL    HW242445   6.320   2.760   2.474  0.6843  1.3010 -2.4551
10839SOL     OW42446   2.965  12.926  11.401  0.1454  0.4173  0.1216
10839SOL    HW142447   3.033  12.994  11.400  0.3297  0.2739 -2.0431
10839SOL    HW242448   2.989  12.869  11.474  2.2256  0.5260 -0.4050
10840SOL     OW42449   4.696  12.139  10.361 -0.5621 -0.4804  0.6461
10840SOL    HW142450   4.681  12.233  10.372 -2.0156 -0.6243  0.0425
10840SOL    HW242451   4.789  12.132  10.340 -0.6982  0.9329 -0.5507
10841SOL     OW42452  12.748   7.400  10.197 -0.0782  0.4085  0.0443
10841SOL    HW142453  12.657   7.427  10.211 -0.4634 -0.4660 -0.7070
10841SOL    HW242454  12.743   7.331  10.131  1.0458 -0.3065  0.6770
10842SOL     OW42455  10.803   3.339  10.160 -0.3680  0.4750  0.2409
10842SOL    HW142456  10.839   3.406  10.102  2.4824 -1.7682 -0.8862
10842SOL    HW242457  10.827   3.368  10.248  1.1651  0.8107 -0.2518
10843SOL     OW42458   8.406   1.632   0.561 -0.6874  0.4017 -0.0668
10843SOL    HW142459   8.483   1.592   0.602 -1.2485 -0.9784 -0.3082
10843SOL    HW242460   8.383   1.572   0.490 -1.3658  1.3466 -0.6670
10844SOL     OW42461   4.302   5.762   6.571 -0.8108 -0.1193  0.0430
10844SOL    HW142462   4.349   5.679   6.580 -1.2863 -0.2678  1.4147
10844SOL    HW242463   4.370   5.827   6.552 -0.2177 -0.5432  0.6812
10845SOL     OW42464  12.507   4.405   1.540  0.6151  0.6502  0.3946
10845SOL    HW142465  12.419   4.432   1.514  0.0206 -1.1888  0.3898
10845SOL    HW242466  12.561   4.416   1.461  0.2398  1.1389  0.2072
10846SOL     OW42467   3.944  13.181  11.970  0.2748  0.1094  0.5141
10846SOL    HW142468   3.915  13.257  12.020 -0.4039 -0.6666  1.3450
10846SOL    HW242469   3.997  13.217  11.899 -0.7072  1.4131  0.4048
10847SOL     OW42470   3.215   7.084   9.807  0.3061  0.6718  0.5311
10847SOL    HW142471   3.244   7.013   9.749 -0.3073 -0.1944  1.2594
10847SOL    HW242472   3.123   7.064   9.826  0.3225  1.2790  1.3068
10848SOL     OW42473  12.869  12.076   8.594 -0.3961 -0.1065  0.2005
10848SOL    HW142474  12.813  12.153   8.596 -0.2347  0.0018  0.5066
10848SOL    HW242475  12.958  12.111   8.595 -0.3220 -0.3075  0.7048
10849SOL     OW42476  12.101   0.552   7.206 -0.1527 -0.4244 -0.0768
10849SOL    HW142477  12.194   0.567   7.225 -0.0524  2.3375 -2.1054
10849SOL    HW242478  12.064   0.524   7.290  2.5033 -1.8962  0.7289
10850SOL     OW42479   2.440   9.757   4.606  0.5010  0.3405  0.3174
10850SOL    HW142480   2.377   9.790   4.669 -0.0210  3.4112 -1.5961
10850SOL    HW242481   2.520   9.806   4.625  1.2683 -0.9076  0.4395
10851SOL     OW42482   8.102  12.160  10.032  0.2764 -0.8965  0.3073
10851SOL    HW142483   8.196  12.148  10.020  0.2529 -0.3440 -0.4690
10851SOL    HW242484   8.061  12.107   9.964  0.0485 -0.5639  0.1792
10852SOL     OW42485   3.572  12.385   2.021 -0.1597  0.2132 -0.3507
10852SOL    HW142486   3.604  12.327   2.089 -1.8734 -1.1476 -0.6390
10852SOL    HW242487   3.565  12.329   1.943 -1.0220  1.0021 -0.8658
10853SOL     OW42488   3.863  11.491  11.062  0.3732  0.2142  0.5490
10853SOL    HW142489   3.818  11.483  10.978  0.7300 -1.3884  0.4767
10853SOL    HW242490   3.869  11.586  11.077 -0.2922  0.5176 -0.8936
10854SOL     OW42491  12.413   2.504   3.275  0.0929  0.3121  0.7991
10854SOL    HW142492  12.326   2.503   3.234 -0.7520  1.8654  2.4143
10854SOL    HW242493  12.459   2.576   3.232 -0.3883  1.1887  1.6895
10855SOL     OW42494  12.343   0.149   3.084 -0.3805  0.4375 -0.0474
10855SOL    HW142495  12.352   0.148   2.988  1.2507 -0.6170  0.0746
10855SOL    HW242496  12.432   0.162   3.116 -0.9275  0.9436  1.3503
10856SOL     OW42497   4.879   5.305  13.124  0.1434 -0.0207  0.5067
10856SOL    HW142498   4.938   5.297  13.049  0.4284  0.7641  0.6363
10856SOL    HW242499   4.917   5.375  13.177 -0.9532  0.5570  0.5541
10857SOL     OW42500   5.530   8.056  11.294  0.0164  0.4469  0.0850
10857SOL    HW142501   5.462   8.001  11.332 -1.2633  2.0569  0.2446
10857SOL    HW242502   5.573   8.000  11.229 -0.4816 -1.0559  1.0017
10858SOL     OW42503   9.012  10.664   8.555 -1.0334 -0.0648  0.0720
10858SOL    HW142504   9.028  10.726   8.484 -1.0620  0.2584  0.3430
10858SOL    HW242505   9.098  10.628   8.576 -0.5450  1.8395  1.6866
10859SOL     OW42506   9.959  11.031  10.656  0.6394 -0.0198 -0.2230
10859SOL    HW142507  10.035  11.086  10.673  0.3719  0.2940 -0.0412
10859SOL    HW242508   9.891  11.092  10.629  0.8745 -0.4414 -1.8464
10860SOL     OW42509  13.140   4.409   4.403 -0.0666 -0.5998  0.4564
10860SOL    HW142510  13.211   4.345   4.407  1.3700  0.9734  1.4155
10860SOL    HW242511  13.110   4.418   4.494  0.0279  0.3679  0.4039
10861SOL     OW42512   8.263   9.320  10.007  0.2218 -0.0997  0.2022
10861SOL    HW142513   8.349   9.318  10.050  0.4597 -1.5631 -0.2691
10861SOL    HW242514   8.284   9.332   9.914  0.2755 -4.0730 -0.4841
10862SOL     OW42515  11.328   5.001   4.098 -0.9542  0.5963  0.0024
10862SOL    HW142516  11.249   4.983   4.149 -1.0358  0.5699 -0.1338
10862SOL    HW242517  11.342   4.922   4.047 -0.7284  0.5258  0.1720
10863SOL     OW42518   1.391   6.605  11.267 -0.3161 -0.2372  0.2675
10863SOL    HW142519   1.402   6.517  11.230 -1.6134 -0.3328  0.0428
10863SOL    HW242520   1.414   6.594  11.360  0.6131 -0.5512  0.0069
10864SOL     OW42521  12.174   3.809   3.831 -0.1175 -0.0039  0.3276
10864SOL    HW142522  12.223   3.799   3.750  0.0796  0.4450  0.3880
10864SOL    HW242523  12.204   3.892   3.867  1.0916 -0.9913  1.7493
10865SOL     OW42524  12.413   7.497   4.087  1.1050  0.1092  0.0918
10865SOL    HW142525  12.472   7.441   4.036 -0.2452 -1.0961 -0.2186
10865SOL    HW242526  12.382   7.440   4.158 -0.3395  0.4140 -0.2679
10866SOL     OW42527   4.165   8.142   4.029  0.2136 -0.2177  0.8223
10866SOL    HW142528   4.190   8.226   4.067  1.4011  0.1462 -0.6826
10866SOL    HW242529   4.248   8.099   4.009 -0.2747  0.1132 -2.3893
10867SOL     OW42530  12.860   2.843   8.233  0.0739  0.2589  0.1759
10867SOL    HW142531  12.790   2.778   8.240 -0.8802  1.2988  0.5556
10867SOL    HW242532  12.816   2.922   8.199  0.8627  1.2201  1.3282
10868SOL     OW42533  12.493  10.632   2.766 -0.0878 -0.1012  0.5454
10868SOL    HW142534  12.564  10.632   2.830 -1.1113 -1.8662  1.7879
10868SOL    HW242535  12.415  10.656   2.816 -0.4485  1.5405 -0.7344
10869SOL     OW42536   6.809   0.562   2.220 -0.3154  0.3232  0.6057
10869SOL    HW142537   6.838   0.471   2.219 -0.8599  0.1206 -1.3071
10869SOL    HW242538   6.716   0.558   2.195 -0.1766  1.4309 -0.1550
10870SOL     OW42539  12.123   6.499   7.921  0.0276 -0.2707 -0.2602
10870SOL    HW142540  12.160   6.548   7.848 -1.6356  0.2412 -0.8056
10870SOL    HW242541  12.098   6.566   7.984  0.6276 -0.6512  0.3897
10871SOL     OW42542   4.088   4.088  13.022  0.1618 -0.6346  0.1231
10871SOL    HW142543   4.169   4.107  12.975  0.2194  0.5620  0.6639
10871SOL    HW242544   4.077   4.162  13.082 -1.7166 -0.4130 -0.4265
10872SOL     OW42545  10.662   7.777   6.474  0.2777  0.2889  0.1207
10872SOL    HW142546  10.726   7.818   6.415  0.8619 -1.1490 -0.2863
10872SOL    HW242547  10.581   7.825   6.458  1.3853  2.7022  1.2237
10873SOL     OW42548   7.760   9.347  11.297 -0.1787  0.6080 -0.1763
10873SOL    HW142549   7.835   9.340  11.357  0.5809 -1.2223 -1.2569
10873SOL    HW242550   7.745   9.441  11.289  0.2935  0.9486  2.1106
10874SOL     OW42551   5.909   7.500  10.539  0.4046 -0.3150 -0.2476
10874SOL    HW142552   5.992   7.479  10.582 -0.4030 -1.7615  0.6765
10874SOL    HW242553   5.886   7.421  10.491  0.0950  0.4647 -1.4442
10875SOL     OW42554   2.586  12.348  11.063 -0.0669  0.4271 -0.0399
10875SOL    HW142555   2.643  12.272  11.055 -0.8412  0.0005 -2.1913
10875SOL    HW242556   2.567  12.354  11.157  1.5532 -0.8475  0.4158
10876SOL     OW42557   8.161  12.732  12.670 -1.1329 -0.1831 -0.3801
10876SOL    HW142558   8.157  12.784  12.590 -0.0402 -0.0151 -0.3366
10876SOL    HW242559   8.153  12.642  12.640  0.8731 -0.2447 -0.8823
10877SOL     OW42560   7.075   7.366   5.066  0.0488 -0.1757 -0.2081
10877SOL    HW142561   7.097   7.457   5.047  1.0523 -0.2983  0.3198
10877SOL    HW242562   7.132   7.342   5.139 -0.3108 -1.1835 -0.2437
10878SOL     OW42563   6.291   3.363  11.928  0.0927 -0.2573 -0.3054
10878SOL    HW142564   6.230   3.432  11.952 -0.6846 -1.1552  0.4072
10878SOL    HW242565   6.263   3.335  11.841  0.2561  0.1545 -0.4921
10879SOL     OW42566  11.960   8.205   9.273  0.7530  0.4990 -0.3357
10879SOL    HW142567  11.969   8.238   9.362 -0.4891 -0.1073  0.0353
10879SOL    HW242568  12.011   8.124   9.272  0.5103  0.3404 -0.0747
10880SOL     OW42569   7.396   1.044  11.936  0.2000 -0.1552 -0.0682
10880SOL    HW142570   7.318   0.995  11.961  0.4424  0.1917  1.4809
10880SOL    HW242571   7.448   0.982  11.884 -0.5451 -0.7731 -0.0915
10881SOL     OW42572   3.136   5.702  12.453 -0.1544  0.3233 -0.3829
10881SOL    HW142573   3.111   5.613  12.428  1.3817 -1.1009  2.6230
10881SOL    HW242574   3.231   5.700  12.457 -0.1399  1.7346  0.9118
10882SOL     OW42575   7.490   2.300  11.201  0.0952  0.1059  0.1069
10882SOL    HW142576   7.481   2.310  11.295 -1.9203 -0.5468  0.0401
10882SOL    HW242577   7.400   2.283  11.170  0.9243 -1.4155 -1.7001
10883SOL     OW42578   2.511   1.972   9.792  0.2095 -0.2644 -0.0198
10883SOL    HW142579   2.523   1.956   9.885 -2.0950  0.7187  0.5254
10883SOL    HW242580   2.521   2.067   9.782  0.6213 -0.3833 -0.8187
10884SOL     OW42581   1.910   3.308  13.044  0.4437 -0.6229 -0.2883
10884SOL    HW142582   1.989   3.256  13.051  0.4716 -0.7248 -1.2390
10884SOL    HW242583   1.914   3.347  12.957 -0.9351 -1.2761 -0.6722
10885SOL     OW42584   1.478   0.907   9.729  1.0752 -0.6436 -0.2011
10885SOL    HW142585   1.563   0.901   9.684  1.1824 -0.2869 -0.0536
10885SOL    HW242586   1.449   0.816   9.738  0.7628 -0.6968 -1.5450
10886SOL     OW42587   2.452  12.424   3.853  0.7117 -0.4867  0.2982
10886SOL    HW142588   2.427  12.496   3.794  0.6657 -0.2488  0.6058
10886SOL    HW242589   2.547  12.434   3.864  0.4171  0.7281  1.9113
10887SOL     OW42590   1.314   8.189   2.951 -0.1757  0.1972 -0.3541
10887SOL    HW142591   1.352   8.106   2.922 -0.3221  0.1829 -0.5085
10887SOL    HW242592   1.280   8.229   2.871  1.7988  1.4255 -0.6442
10888SOL     OW42593   1.864  12.250   0.362 -0.5060 -0.4833 -0.0998
10888SOL    HW142594   1.783  12.207   0.389  0.1167 -2.0651 -0.5881
10888SOL    HW242595   1.930  12.180   0.367  0.3782  0.1725 -1.8612
10889SOL     OW42596   6.375   2.446  12.872 -0.1276 -0.4815 -0.1861
10889SOL    HW142597   6.384   2.356  12.903 -1.5875 -0.9382 -1.0073
10889SOL    HW242598   6.327   2.491  12.941 -2.2978 -1.1917 -1.1551
10890SOL     OW42599   7.091   7.344  12.488 -0.0437 -0.1215  0.8324
10890SOL    HW142600   7.121   7.283  12.556  0.2629 -0.6220  0.2551
10890SOL    HW242601   7.121   7.430  12.518 -0.3067 -0.2732  1.5544
10891SOL     OW42602   1.498   6.498   5.651  0.3993 -0.7261 -0.4421
10891SOL    HW142603   1.564   6.550   5.696  0.2709 -2.6888  2.2856
10891SOL    HW242604   1.435   6.474   5.720 -1.9661 -0.7810 -2.4781
10892SOL     OW42605   1.492  10.405  11.871 -0.0865  0.0508  0.2205
10892SOL    HW142606   1.556  10.441  11.810 -0.3686  1.2847  0.6268
10892SOL    HW242607   1.430  10.476  11.886 -0.7908 -0.6792  0.8946
10893SOL     OW42608   9.615  11.938  11.826 -0.0443 -0.1894  0.2437
10893SOL    HW142609   9.600  11.851  11.788 -0.2909  0.1175 -0.3787
10893SOL    HW242610   9.701  11.932  11.867  0.0217 -0.6759  0.0454
10894SOL     OW42611  12.212   6.019  11.393  0.2625  0.5981 -0.3024
10894SOL    HW142612  12.214   6.058  11.306 -1.1996  1.2585 -0.0817
10894SOL    HW242613  12.120   6.025  11.419  0.8150  1.2896  1.6798
10895SOL     OW42614  11.829  12.224   1.367  0.0869 -0.2406 -0.0660
10895SOL    HW142615  11.754  12.262   1.414  1.1575 -0.0771  1.6102
10895SOL    HW242616  11.867  12.298   1.319  0.6642  0.3054  1.1653
10896SOL     OW42617  10.394   3.703   2.193 -0.7991 -0.4373  0.0735
10896SOL    HW142618  10.349   3.655   2.123 -1.0807 -1.8538  1.1751
10896SOL    HW242619  10.326   3.720   2.258 -0.6008  1.1151 -0.0921
10897SOL     OW42620   9.596   6.048   1.358  0.0706  0.0147 -0.3623
10897SOL    HW142621   9.575   6.040   1.451 -0.3900 -1.0262 -0.5493
10897SOL    HW242622   9.679   6.003   1.349  0.8353  1.3417 -0.2161
10898SOL     OW42623   6.892   2.568   0.221 -0.0426 -0.0414 -0.3700
10898SOL    HW142624   6.802   2.548   0.248  0.2931 -1.9681 -0.5226
10898SOL    HW242625   6.944   2.549   0.299  0.0975  3.4437  0.5732
10899SOL     OW42626   5.271   9.868   8.596 -0.1088 -0.5744  0.3585
10899SOL    HW142627   5.229   9.788   8.626  1.9057 -2.4989 -1.6444
10899SOL    HW242628   5.301   9.849   8.507  0.0431  2.5821 -0.3894
10900SOL     OW42629   2.175   3.139  12.147 -0.1772  0.6206 -0.9348
10900SOL    HW142630   2.148   3.231  12.148  0.9502  0.9563 -0.2942
10900SOL    HW242631   2.232   3.132  12.071  1.4238  0.9693  0.2007
10901SOL     OW42632   5.945  11.962   6.803  0.1086 -0.1121  0.2134
10901SOL    HW142633   6.027  11.917   6.785  0.6027  1.0290 -0.5180
10901SOL    HW242634   5.968  12.031   6.865 -0.2624  0.3089 -0.1079
10902SOL     OW42635   4.670  10.711  11.963  0.2780  0.1741 -0.5346
10902SOL    HW142636   4.605  10.655  11.920 -0.6794  1.1132 -0.3641
10902SOL    HW242637   4.755  10.675  11.937 -0.3076 -0.8952 -1.0141
10903SOL     OW42638   1.672  11.568   6.618  0.3958 -0.1004 -0.2406
10903SOL    HW142639   1.614  11.620   6.563 -0.8306 -1.4776 -0.3142
10903SOL    HW242640   1.688  11.623   6.695 -1.1680  0.2668 -0.1369
10904SOL     OW42641  12.869   0.104   7.895 -0.1318 -0.6281  0.3103
10904SOL    HW142642  12.919   0.130   7.973 -1.3378 -3.1022  2.0287
10904SOL    HW242643  12.789   0.155   7.901 -0.3590 -1.0396  0.9033
10905SOL     OW42644   6.321   4.752   1.472 -0.0218  0.3308  0.7268
10905SOL    HW142645   6.379   4.680   1.447 -1.1906 -0.2967 -0.3648
10905SOL    HW242646   6.362   4.792   1.548  0.9011 -1.2206  1.0859
10906SOL     OW42647   6.390   2.801   1.817 -0.6442  0.2313 -0.2183
10906SOL    HW142648   6.369   2.832   1.729 -0.0125 -0.4029 -0.5984
10906SOL    HW242649   6.426   2.714   1.805  0.3170  0.4894  0.5843
10907SOL     OW42650  11.751   5.087   7.563  0.0214  0.3552  0.0553
10907SOL    HW142651  11.805   5.163   7.584 -1.1190  1.1792  0.1176
10907SOL    HW242652  11.788   5.053   7.482  2.3116 -0.7733  1.4664
10908SOL     OW42653  11.405   8.379   2.079  0.2955  0.8760 -0.1188
10908SOL    HW142654  11.313   8.368   2.104  0.3856 -0.5681 -0.3541
10908SOL    HW242655  11.446   8.295   2.099  0.8608  0.3539 -2.9911
10909SOL     OW42656  11.391   8.602  11.921  0.1050 -0.5356 -0.0531
10909SOL    HW142657  11.321   8.604  11.986  1.0106 -1.0838  0.9868
10909SOL    HW242658  11.347   8.616  11.837 -1.0874  0.3056  0.6746
10910SOL     OW42659   1.118  10.225   3.220  0.1246  0.0526  0.2838
10910SOL    HW142660   1.092  10.155   3.279  0.4840 -0.1216  0.2393
10910SOL    HW242661   1.187  10.272   3.266 -1.0210  1.2074  0.8733
10911SOL     OW42662   5.419  10.144   1.716 -0.0381 -0.3047  0.2386
10911SOL    HW142663   5.473  10.205   1.666 -0.2392 -1.3158 -1.2537
10911SOL    HW242664   5.386  10.197   1.790  0.1319  1.2730 -0.7661
10912SOL     OW42665  10.879   8.650   8.814 -0.5373 -0.4445  0.1434
10912SOL    HW142666  10.833   8.684   8.891  1.0738  0.3911  0.7967
10912SOL    HW242667  10.818   8.663   8.742 -1.3385  0.5853  0.9741
10913SOL     OW42668   8.246   9.957  12.798 -0.1834 -0.5788 -0.4148
10913SOL    HW142669   8.326   9.977  12.847  0.2802 -1.2269 -0.8993
10913SOL    HW242670   8.203   9.889  12.850 -0.7815  0.2403  0.2036
10914SOL     OW42671   3.781   8.825   5.699  0.1036 -0.2969  0.6367
10914SOL    HW142672   3.701   8.772   5.692 -0.0839 -0.1095  1.3394
10914SOL    HW242673   3.801   8.850   5.608  1.1287 -2.9048  0.0560
10915SOL     OW42674  12.764  12.659  11.966 -0.2638 -0.1442 -0.6391
10915SOL    HW142675  12.716  12.616  11.895  0.1466 -2.6594  0.4942
10915SOL    HW242676  12.856  12.651  11.942 -0.1550 -0.3789 -0.1641
10916SOL     OW42677   2.361   7.579   5.707 -0.0950 -0.0159  0.8164
10916SOL    HW142678   2.278   7.532   5.701 -0.6773  0.8332  1.9262
10916SOL    HW242679   2.400   7.569   5.620 -1.0079 -1.0369  0.4922
10917SOL     OW42680   9.176   9.590  12.355 -0.1457 -0.0547 -0.2453
10917SOL    HW142681   9.219   9.552  12.278 -2.0446 -0.5005 -1.1363
10917SOL    HW242682   9.133   9.669  12.322  3.3099  2.8807  1.4583
10918SOL     OW42683   8.706   4.195   4.153 -0.1019  0.8448 -0.0539
10918SOL    HW142684   8.677   4.234   4.071 -0.4256 -0.3853 -0.5549
10918SOL    HW242685   8.800   4.179   4.140 -0.2326  0.2861 -0.3542
10919SOL     OW42686   5.907   7.274  12.843  0.2299  0.0570  0.5620
10919SOL    HW142687   5.836   7.228  12.888  0.4947  1.1492  2.1925
10919SOL    HW242688   5.983   7.261  12.899  0.7992  0.7225 -0.0442
10920SOL     OW42689   6.834  11.593   0.886 -1.1128  0.8213 -0.0027
10920SOL    HW142690   6.924  11.593   0.853 -1.6897  1.5981 -1.6677
10920SOL    HW242691   6.843  11.610   0.980  0.5618 -0.9101  0.2243
10921SOL     OW42692  11.408   0.386   8.141  0.0973  0.0524 -0.2774
10921SOL    HW142693  11.355   0.309   8.163 -1.3206  1.0572 -0.0134
10921SOL    HW242694  11.392   0.399   8.047 -0.0506  0.2996 -0.2184
10922SOL     OW42695  11.431   4.790   3.896 -0.5878 -0.6420 -0.3316
10922SOL    HW142696  11.426   4.715   3.837 -0.9284  0.7364 -2.1103
10922SOL    HW242697  11.522   4.791   3.925 -1.2933 -3.8547  2.7122
10923SOL     OW42698   4.450   2.277  10.480 -0.2366  0.7937 -0.0617
10923SOL    HW142699   4.457   2.283  10.575  2.8795  1.1516 -0.2022
10923SOL    HW242700   4.451   2.183  10.462  3.9524  0.6032  0.2180
10924SOL     OW42701   6.115   2.428   0.221 -0.3283 -0.0256  0.0460
10924SOL    HW142702   6.062   2.488   0.168  1.2837  1.6432  0.2360
10924SOL    HW242703   6.148   2.363   0.158 -2.2492 -0.9143 -0.1265
10925SOL     OW42704   6.712   3.177   5.707 -0.0269 -0.0650  0.0715
10925SOL    HW142705   6.692   3.239   5.777 -1.6301 -0.6488  0.1622
10925SOL    HW242706   6.648   3.196   5.639  0.6543 -0.4050 -0.6816
10926SOL     OW42707  11.106  10.422   5.978 -0.0798 -0.2824 -0.1108
10926SOL    HW142708  11.020  10.382   5.969 -0.2575 -0.3473  1.6590
10926SOL    HW242709  11.162  10.371   5.920 -1.1877 -0.2624 -1.2602
10927SOL     OW42710  11.505  11.200   1.486 -0.2417  0.3411  0.2840
10927SOL    HW142711  11.579  11.173   1.431  0.1116  1.4174  0.1994
10927SOL    HW242712  11.496  11.130   1.550  1.6603  0.7476  1.0681
10928SOL     OW42713   8.393  11.544   6.113 -0.4910  0.2018 -0.1084
10928SOL    HW142714   8.326  11.511   6.053  0.0461  0.5157 -0.8976
10928SOL    HW242715   8.460  11.582   6.056  0.7411 -0.8063  0.6210
10929SOL     OW42716  11.415   1.340   2.000 -0.0337  0.2002  0.0639
10929SOL    HW142717  11.349   1.272   1.984  0.6253 -0.5881  0.6160
10929SOL    HW242718  11.495   1.306   1.959  0.6339  0.0394  1.4357
10930SOL     OW42719   6.036  10.578   4.517  0.6546  0.0011  0.7355
10930SOL    HW142720   5.948  10.539   4.522  1.3504 -1.7849 -0.1988
10930SOL    HW242721   6.047  10.623   4.601 -0.7346 -0.6700  1.3079
10931SOL     OW42722   3.139  11.295   7.269 -0.1780  0.2957 -0.5268
10931SOL    HW142723   3.157  11.367   7.330  0.4093  1.3531 -1.9031
10931SOL    HW242724   3.047  11.273   7.286 -0.7850  2.2839 -0.9790
10932SOL     OW42725   3.145   6.780   3.716 -0.5767 -0.4839 -0.0570
10932SOL    HW142726   3.233   6.805   3.685 -0.7380 -0.3655 -0.4229
10932SOL    HW242727   3.102   6.864   3.735 -0.5940 -0.5437  0.1706
10933SOL     OW42728   2.309   0.005   4.975  0.1220  0.4476 -0.2952
10933SOL    HW142729   2.355  -0.036   4.901 -0.5252 -0.4567 -0.2174
10933SOL    HW242730   2.235  -0.054   4.992 -0.0432  0.9353  0.7290
10934SOL     OW42731  10.597   4.181   5.990  0.1065 -0.0854 -0.3556
10934SOL    HW142732  10.504   4.194   6.010  0.6485  1.0409  1.7028
10934SOL    HW242733  10.629   4.268   5.967  0.7657 -0.3700 -0.5358
10935SOL     OW42734   6.144   6.335   8.527 -0.1943  0.3159 -0.2931
10935SOL    HW142735   6.076   6.403   8.532 -0.4081  0.0623  0.3185
10935SOL    HW242736   6.095   6.252   8.533  0.3059  0.1252  2.4697
10936SOL     OW42737   5.289  10.561   1.695 -0.1627  0.3230  0.0874
10936SOL    HW142738   5.382  10.551   1.713 -0.1825  0.2343  0.1415
10936SOL    HW242739   5.280  10.546   1.601 -0.1132  0.3980  0.0707
10937SOL     OW42740  10.050   2.512   4.694  0.5542  0.7114 -0.0687
10937SOL    HW142741   9.964   2.526   4.654  0.8553 -0.1911 -1.1087
10937SOL    HW242742  10.037   2.439   4.754  1.3549 -2.4321 -3.3301
10938SOL     OW42743   9.231   3.879   5.334  0.1066  0.7008 -0.3482
10938SOL    HW142744   9.307   3.936   5.327  0.0283  0.8827  0.2006
10938SOL    HW242745   9.215   3.849   5.245 -1.1474  3.2297 -1.0592
10939SOL     OW42746  13.252  10.268   9.673  0.1163 -0.2188 -0.2740
10939SOL    HW142747  13.184  10.322   9.713 -0.5821 -1.4471  0.2550
10939SOL    HW242748  13.322  10.266   9.738  0.9021  1.4245 -1.0073
10940SOL     OW42749   5.887   6.002   2.499  0.8218  0.0244 -0.0486
10940SOL    HW142750   5.810   6.054   2.477  0.5582 -0.4904 -0.3707
10940SOL    HW242751   5.857   5.941   2.566  0.7297 -0.7101 -0.7353
10941SOL     OW42752   0.357   7.091   9.896 -0.2295  0.1819  0.6806
10941SOL    HW142753   0.450   7.070   9.889  0.0783  1.5690  0.4574
10941SOL    HW242754   0.340   7.152   9.824 -1.3460 -0.1599  0.6325
10942SOL     OW42755  13.268   5.718  10.403  0.1737  0.0326  0.2095
10942SOL    HW142756  13.178   5.725  10.370 -0.0151 -0.2731  0.6552
10942SOL    HW242757  13.263   5.747  10.494 -0.0652 -2.7645  1.1817
10943SOL     OW42758   6.193   1.126  12.691 -0.7529 -0.0177 -0.3611
10943SOL    HW142759   6.120   1.123  12.630 -2.5356  0.2706  1.6491
10943SOL    HW242760   6.154   1.108  12.776  1.1535  2.1163  1.0742
10944SOL     OW42761   1.539   7.327  10.982 -0.0259 -0.0487 -0.2273
10944SOL    HW142762   1.600   7.393  11.014 -0.8493  1.3953 -1.4906
10944SOL    HW242763   1.467   7.378  10.945 -0.3400 -1.6430 -1.9309
10945SOL     OW42764  11.710   1.288  10.375  0.1346 -0.0578 -0.0440
10945SOL    HW142765  11.686   1.300  10.467 -0.8124 -2.9077  0.1940
10945SOL    HW242766  11.805   1.290  10.374  0.1434  0.4897  0.9203
10946SOL     OW42767   0.134   2.010   9.337  0.1744 -0.1763  0.1118
10946SOL    HW142768   0.167   1.924   9.360 -0.5293 -1.0230 -1.8880
10946SOL    HW242769   0.207   2.055   9.296 -0.2005 -0.8475 -1.3279
10947SOL     OW42770   1.705   0.560   0.786 -0.0617 -0.0192 -0.2388
10947SOL    HW142771   1.610   0.552   0.799  0.1875 -2.6206  0.4862
10947SOL    HW242772   1.740   0.474   0.809  2.2710  0.1881 -2.5221
10948SOL     OW42773   0.739  12.360   8.879 -0.0869 -0.1328 -0.0535
10948SOL    HW142774   0.726  12.310   8.799  0.2147  1.5832 -1.2310
10948SOL    HW242775   0.662  12.340   8.932  0.0152 -1.7843 -0.4782
10949SOL     OW42776   4.920   2.819   7.131 -0.4738 -0.0486  0.6726
10949SOL    HW142777   4.831   2.792   7.152 -1.3311  2.9542  1.4773
10949SOL    HW242778   4.973   2.793   7.206 -1.1959  0.3678  1.3321
10950SOL     OW42779   2.073   2.572   9.499  0.2545 -0.3959 -0.4959
10950SOL    HW142780   1.996   2.616   9.462  0.8267  0.9933 -0.1145
10950SOL    HW242781   2.114   2.528   9.424  0.6253  1.2025 -1.2867
10951SOL     OW42782   3.133  11.789   8.211 -0.2476 -0.1889 -0.3435
10951SOL    HW142783   3.127  11.883   8.198 -0.6633 -0.4728 -2.6306
10951SOL    HW242784   3.216  11.775   8.256  0.4931  1.1765 -1.2317
10952SOL     OW42785   0.555  12.023   1.970 -0.0472  0.2334 -0.1410
10952SOL    HW142786   0.610  12.059   2.040  0.3756 -0.7966  0.0730
10952SOL    HW242787   0.551  12.092   1.904 -1.0564  1.5225  1.2022
10953SOL     OW42788   8.196   6.149  12.078 -0.1492 -0.1476  0.3399
10953SOL    HW142789   8.189   6.085  12.149 -2.8239  0.7850  1.0093
10953SOL    HW242790   8.108   6.154  12.040  0.3291  2.0409 -0.6638
10954SOL     OW42791   8.026   9.933   2.511 -1.2474  0.3301 -0.4597
10954SOL    HW142792   7.984   9.922   2.597 -0.9867  1.1822 -0.2071
10954SOL    HW242793   8.041   9.844   2.479 -1.7704  0.0092  0.1741
10955SOL     OW42794   7.502   8.377   2.595 -0.1935 -0.6617 -0.2178
10955SOL    HW142795   7.477   8.404   2.684 -1.9450  0.8821 -1.1099
10955SOL    HW242796   7.508   8.459   2.546  2.4674 -1.3307 -1.1841
10956SOL     OW42797   2.323   7.638   1.382 -0.6120  0.3629  0.0928
10956SOL    HW142798   2.362   7.554   1.407 -2.2188 -0.4786 -0.0755
10956SOL    HW242799   2.377   7.703   1.426  0.4942 -0.7761  0.4815
10957SOL     OW42800   2.733  10.186   7.898 -0.3939  1.0424 -0.0865
10957SOL    HW142801   2.753  10.215   7.986 -0.8565  0.3809  0.2484
10957SOL    HW242802   2.685  10.259   7.858  0.3524  1.5837 -0.0098
10958SOL     OW42803   9.518   5.577   0.266 -0.0133  0.2079 -0.2896
10958SOL    HW142804   9.547   5.659   0.306 -0.2834  2.1712 -3.7706
10958SOL    HW242805   9.426   5.591   0.244 -0.1410 -1.1338 -0.7543
10959SOL     OW42806   8.634   5.129  10.299 -0.0873  0.4413 -0.5322
10959SOL    HW142807   8.576   5.062  10.263  2.0707 -1.1707 -1.2431
10959SOL    HW242808   8.645   5.105  10.391 -0.7880  0.9778 -0.2940
10960SOL     OW42809   7.718   6.914   2.864  0.6568  0.1611 -0.1723
10960SOL    HW142810   7.641   6.870   2.899  0.6903 -1.0895 -1.5853
10960SOL    HW242811   7.697   6.929   2.771  2.6802 -1.6662 -1.0055
10961SOL     OW42812   3.392   6.359  10.047  0.1758 -0.2879 -0.0342
10961SOL    HW142813   3.413   6.447  10.016 -1.2340  0.0912  0.0074
10961SOL    HW242814   3.356   6.373  10.135  0.6772 -0.9836  0.2876
10962SOL     OW42815   4.942   5.700  11.487  0.0439  0.2040 -0.0828
10962SOL    HW142816   4.990   5.660  11.560  0.6330  0.5677 -0.2614
10962SOL    HW242817   4.928   5.629  11.425  2.6756  0.5555 -1.2459
10963SOL     OW42818   9.025   3.620   0.622  0.2917  0.0859 -0.2819
10963SOL    HW142819   9.093   3.674   0.663  0.9608 -1.3630  0.5822
10963SOL    HW242820   9.064   3.591   0.539  0.4809 -0.2262 -0.0835
10964SOL     OW42821   1.622   3.986   8.215  0.9027 -0.1894 -0.1774
10964SOL    HW142822   1.564   3.915   8.244  0.5750 -0.6368 -1.8170
10964SOL    HW242823   1.568   4.064   8.218  0.4945 -0.4457 -0.7942
10965SOL     OW42824   5.800   4.400  10.585 -0.0151  0.6423  0.3014
10965SOL    HW142825   5.856   4.336  10.629  0.4355 -0.7331 -2.0858
10965SOL    HW242826   5.765   4.454  10.656  0.6519 -1.3895  2.3065
10966SOL     OW42827   3.439   4.445   3.174  0.0786  0.0031 -0.2840
10966SOL    HW142828   3.530   4.461   3.199 -0.2183  1.9830 -0.2758
10966SOL    HW242829   3.419   4.358   3.209  1.3133  0.4194  1.5982
10967SOL     OW42830   3.924  11.110  12.029  0.3021  0.2980 -0.7110
10967SOL    HW142831   3.888  11.193  12.061 -0.2163 -0.0976 -0.2481
10967SOL    HW242832   3.994  11.136  11.969  1.0985  1.0739  0.4944
10968SOL     OW42833   0.435   9.666   5.312 -0.0413  0.1241  0.2059
10968SOL    HW142834   0.511   9.616   5.282  1.9308  2.6028  0.6550
10968SOL    HW242835   0.433   9.652   5.407 -2.1793 -2.4274 -0.1286
10969SOL     OW42836   7.939   5.920  10.544  0.0951  0.2700 -0.1487
10969SOL    HW142837   7.888   5.844  10.517  1.7833 -0.8111 -0.4445
10969SOL    HW242838   7.995   5.939  10.468  0.9506  0.6746  0.5635
10970SOL     OW42839   0.388   0.083   5.345  0.1322  0.0851 -0.3005
10970SOL    HW142840   0.343  -0.002   5.343  0.7829 -0.3227  0.9441
10970SOL    HW242841   0.480   0.060   5.362  0.6397  0.9571 -1.7361
10971SOL     OW42842  11.749  12.039  12.783 -0.4753  0.1210  0.2180
10971SOL    HW142843  11.836  12.003  12.800 -0.8100 -1.4928 -1.2158
10971SOL    HW242844  11.691  11.990  12.841 -0.5759  0.3703  0.3294
10972SOL     OW42845   3.919   0.640   0.375 -0.3508 -0.2223 -0.0122
10972SOL    HW142846   3.873   0.724   0.367 -0.8866 -0.5126 -0.0138
10972SOL    HW242847   3.855   0.575   0.346  1.0577 -0.3976 -3.2461
10973SOL     OW42848   1.993   4.348   0.804  0.3266  0.0707  0.1472
10973SOL    HW142849   2.076   4.346   0.852  0.3579  0.7873  0.1323
10973SOL    HW242850   1.927   4.329   0.870  0.5345 -1.1125  0.0485
10974SOL     OW42851   7.729   0.101   8.206  0.5731  0.2059 -0.0730
10974SOL    HW142852   7.809   0.118   8.157  2.3340 -1.0981  2.1231
10974SOL    HW242853   7.738   0.154   8.286  0.1931 -1.3558  1.0684
10975SOL     OW42854   9.720   3.873  11.568  0.5226 -0.3251  0.8019
10975SOL    HW142855   9.698   3.909  11.483 -1.1822 -0.6111  1.0904
10975SOL    HW242856   9.641   3.882  11.620  1.1715 -1.1855  2.0081
10976SOL     OW42857   5.855   5.617   8.086 -0.3019  0.0603  0.0539
10976SOL    HW142858   5.925   5.582   8.141 -0.4708  1.5079  1.2522
10976SOL    HW242859   5.841   5.550   8.019  2.1905 -0.2872 -0.1932
10977SOL     OW42860   2.227  10.014  12.538  0.4707  0.4875 -0.3899
10977SOL    HW142861   2.143   9.984  12.574  0.3268  2.2037  0.8241
10977SOL    HW242862   2.222  10.110  12.542  2.8833  0.6515  0.7276
10978SOL     OW42863   1.224   0.619  11.577  0.3346 -0.1771  0.1140
10978SOL    HW142864   1.228   0.655  11.665  1.5651  2.0411 -0.7823
10978SOL    HW242865   1.238   0.694  11.519 -0.4575 -1.5559 -1.9926
10979SOL     OW42866   7.262   6.464  10.377  0.5573 -0.5488 -0.1114
10979SOL    HW142867   7.171   6.468  10.407  0.9186  0.4012  0.9253
10979SOL    HW242868   7.268   6.531  10.309  0.3034 -1.1482 -0.7387
10980SOL     OW42869   6.001   1.566   6.594  0.4999 -0.3182 -0.6036
10980SOL    HW142870   5.943   1.609   6.531  1.1316 -1.5422 -2.0730
10980SOL    HW242871   6.082   1.549   6.546  0.9614 -1.4288  0.4846
10981SOL     OW42872   0.895   3.721   2.026 -0.0730  0.0049 -0.3062
10981SOL    HW142873   0.903   3.748   1.935  1.4231  1.7332  0.2685
10981SOL    HW242874   0.941   3.637   2.031 -2.0049 -1.1731 -1.5197
10982SOL     OW42875   7.418   0.248   3.938  0.3199 -0.2086  0.0347
10982SOL    HW142876   7.344   0.304   3.913  0.1886 -0.3410  0.1189
10982SOL    HW242877   7.455   0.219   3.855  0.8150  0.5491 -0.0197
10983SOL     OW42878   2.721   7.252   2.138  0.2833  0.7849  0.3457
10983SOL    HW142879   2.628   7.276   2.128  0.2702 -0.0425 -2.3917
10983SOL    HW242880   2.726   7.162   2.107  2.0265  0.8405  0.3767
10984SOL     OW42881   3.808   0.035   3.633  0.5485 -0.1631  0.3865
10984SOL    HW142882   3.875  -0.029   3.609  1.2592  0.0321  1.7632
10984SOL    HW242883   3.734  -0.018   3.662  0.3790 -0.3714 -0.4066
10985SOL     OW42884   5.921   0.596  11.429 -0.4115  0.1714 -0.2041
10985SOL    HW142885   5.998   0.647  11.404 -0.6370  1.6893  1.8971
10985SOL    HW242886   5.913   0.529  11.361  2.5174  0.2012 -0.6984
10986SOL     OW42887   2.256   2.616   3.392  0.0938 -0.7114 -0.2318
10986SOL    HW142888   2.161   2.606   3.387 -0.4456  1.1351  3.0655
10986SOL    HW242889   2.289   2.526   3.397 -1.6736 -1.3781  0.2584
10987SOL     OW42890   0.354   0.517  12.345  0.4136 -0.7357  0.2570
10987SOL    HW142891   0.351   0.497  12.439  1.4644  0.8462  0.6752
10987SOL    HW242892   0.319   0.606  12.339  2.5110  0.1118 -0.4921
10988SOL     OW42893   7.082   4.809   2.815  0.2564  0.1461 -0.4214
10988SOL    HW142894   7.061   4.752   2.741 -0.9254 -0.0020  0.0053
10988SOL    HW242895   7.048   4.895   2.790 -0.6840 -0.0434  0.1947
10989SOL     OW42896   7.042   1.099   5.550  0.0666  0.0618  0.0011
10989SOL    HW142897   7.081   1.186   5.542 -1.7713  0.9114 -0.1989
10989SOL    HW242898   7.086   1.060   5.626 -0.7129  2.0934  1.5936
10990SOL     OW42899   2.406  11.208  12.321 -0.7854  0.0550  0.3333
10990SOL    HW142900   2.385  11.279  12.381 -1.6599 -0.9149  1.2198
10990SOL    HW242901   2.464  11.150  12.371  0.2823  0.3471 -0.5266
10991SOL     OW42902   1.556   8.077  10.340 -0.1486  0.3387  0.2718
10991SOL    HW142903   1.521   8.141  10.278 -1.3448 -0.2551  0.3060
10991SOL    HW242904   1.651   8.080  10.327 -0.3680  0.1943 -1.6232
10992SOL     OW42905   2.960   2.902  12.418 -0.1741  0.4340  0.3142
10992SOL    HW142906   2.991   2.868  12.502 -0.2122  0.4600  0.3384
10992SOL    HW242907   2.877   2.856  12.403 -0.6854  1.1876  0.7893
10993SOL     OW42908   5.883   3.950  11.811  0.7471 -0.5206  0.1436
10993SOL    HW142909   5.799   3.906  11.801  0.8867 -1.1037  1.4212
10993SOL    HW242910   5.919   3.952  11.723 -0.9751  0.5247 -0.6049
10994SOL     OW42911   7.984  10.920   9.150 -0.5797 -0.2425  0.1715
10994SOL    HW142912   8.007  10.979   9.079  1.6774 -0.3810  0.7242
10994SOL    HW242913   7.955  10.978   9.221 -1.1269 -0.0023 -0.2383
10995SOL     OW42914   6.129   7.535   7.471 -0.1367 -0.1945 -0.1854
10995SOL    HW142915   6.106   7.628   7.478  0.7810 -0.0463  1.4250
10995SOL    HW242916   6.062   7.490   7.524 -1.0376 -0.5689 -1.5833
10996SOL     OW42917  12.569   1.041   4.593  0.4074  0.0041 -0.4027
10996SOL    HW142918  12.626   1.013   4.665  0.6237 -1.3197 -1.0552
10996SOL    HW242919  12.491   1.076   4.636  0.4970 -0.8423  0.4852
10997SOL     OW42920  10.641   8.294   6.695 -0.2225 -0.1187  0.0391
10997SOL    HW142921  10.660   8.387   6.708  0.9259 -0.5575  1.7394
10997SOL    HW242922  10.560   8.293   6.643 -1.6019  1.8263  1.9828
10998SOL     OW42923   2.356  12.750  13.234 -0.2199  0.3507 -0.8049
10998SOL    HW142924   2.412  12.686  13.278  1.9915  1.1600 -2.2713
10998SOL    HW242925   2.287  12.698  13.192  0.1444 -0.7983 -0.0130
10999SOL     OW42926  10.396   9.612  10.130  0.4133  0.2999  0.2568
10999SOL    HW142927  10.430   9.534  10.087  3.1355  1.3453  0.2969
10999SOL    HW242928  10.301   9.606  10.121  0.5604 -2.8053 -0.0081
11000SOL     OW42929  12.599  10.789  11.244  0.1742  0.0844  0.1535
11000SOL    HW142930  12.606  10.714  11.303  0.4865  0.8777  1.1635
11000SOL    HW242931  12.534  10.846  11.286 -1.2067 -0.2953 -1.3817
11001SOL     OW42932  12.707   1.828   2.203 -0.2407  0.4988  0.3984
11001SOL    HW142933  12.793   1.806   2.167 -0.4204  1.0306 -0.3851
11001SOL    HW242934  12.710   1.796   2.293  0.6383  0.1683  0.2654
11002SOL     OW42935   4.455  13.032  10.172 -0.7307  0.5087  0.4334
11002SOL    HW142936   4.435  12.982  10.093  3.4029 -1.1081  0.1872
11002SOL    HW242937   4.495  13.113  10.140  0.8001 -0.0762  0.7957
11003SOL     OW42938   0.549  12.118   4.188 -0.0511 -0.3270  0.5483
11003SOL    HW142939   0.631  12.166   4.179  0.2581 -0.7865  0.8914
11003SOL    HW242940   0.571  12.042   4.241 -0.7994 -0.2035  1.0582
11004SOL     OW42941  10.300   4.264   4.604  0.2597 -0.1311  0.6112
11004SOL    HW142942  10.251   4.245   4.525 -0.8102 -1.9580  1.6396
11004SOL    HW242943  10.322   4.357   4.597 -2.5648  0.5686 -0.3506
11005SOL     OW42944  12.316  13.201   3.226 -0.0798  0.7126  0.3247
11005SOL    HW142945  12.266  13.281   3.207 -1.7033 -0.3968 -0.2890
11005SOL    HW242946  12.250  13.138   3.252  1.1855 -0.4425  0.8105
11006SOL     OW42947  11.276   5.563   3.356 -0.3786 -0.2633  0.3660
11006SOL    HW142948  11.354   5.527   3.399 -1.0749 -0.2887  1.6369
11006SOL    HW242949  11.310   5.632   3.299  0.7089 -1.2114 -0.1746
11007SOL     OW42950   4.574   7.384  12.190 -0.0029  0.2417  0.2856
11007SOL    HW142951   4.513   7.416  12.256  0.0001  0.6062  0.1152
11007SOL    HW242952   4.661   7.397  12.229  0.0223  0.8984  0.0262
11008SOL     OW42953   3.649   9.046  12.786  0.6675 -0.2593 -0.2313
11008SOL    HW142954   3.714   9.106  12.748 -0.3559  1.2053  0.2636
11008SOL    HW242955   3.582   9.039  12.719 -0.3879  1.1044  0.6332
11009SOL     OW42956   6.699  12.694   8.210 -0.8741  0.2216  0.1023
11009SOL    HW142957   6.692  12.654   8.123 -1.9866  0.1239  0.2309
11009SOL    HW242958   6.663  12.781   8.200  0.6525  0.8890  0.0638
11010SOL     OW42959   1.365   0.976   1.935  0.6571  0.1803  0.2549
11010SOL    HW142960   1.362   0.948   2.026 -1.0032  1.8370  0.7814
11010SOL    HW242961   1.405   1.063   1.938  0.2435  0.4064 -0.5541
11011SOL     OW42962  12.064   9.270  10.236  0.2530  0.3123  0.3129
11011SOL    HW142963  12.154   9.304  10.232  1.0228 -1.4232  1.5058
11011SOL    HW242964  12.054   9.239  10.326 -1.4953  0.2824  0.1445
11012SOL     OW42965  11.050   2.939   4.385 -0.1527 -0.1073  0.0431
11012SOL    HW142966  11.049   2.894   4.301  0.0746  1.2514 -0.7078
11012SOL    HW242967  11.009   3.024   4.367 -1.9377 -0.5185  1.7414
11013SOL     OW42968   3.052   3.644   4.414 -0.1679  0.2371 -0.4403
11013SOL    HW142969   3.096   3.676   4.493 -0.6994 -0.2704  0.0602
11013SOL    HW242970   3.112   3.668   4.343  0.4017  0.5313  0.1262
11014SOL     OW42971   0.003  11.152  11.782  0.0283  0.1571 -0.1246
11014SOL    HW142972   0.055  11.127  11.858 -1.2840 -0.3930  0.6274
11014SOL    HW242973   0.003  11.248  11.783  0.2992  0.1555  0.3764
11015SOL     OW42974   4.327  12.225  11.290  0.0653 -0.3193  0.2586
11015SOL    HW142975   4.237  12.208  11.262  0.3755  0.8749 -1.6688
11015SOL    HW242976   4.377  12.230  11.208  1.3621  1.7807  1.0897
11016SOL     OW42977   7.834   5.822   0.642  0.3443  0.1116 -0.3823
11016SOL    HW142978   7.789   5.792   0.563 -1.2450  1.6152 -0.1228
11016SOL    HW242979   7.830   5.749   0.703 -1.3635  0.0303 -0.5577
11017SOL     OW42980   3.263   3.988   3.908  0.9221  1.2562 -0.2215
11017SOL    HW142981   3.304   3.903   3.891 -0.2935  0.2821  1.3682
11017SOL    HW242982   3.332   4.040   3.949  0.7285 -0.3169  2.3127
11018SOL     OW42983   9.782   4.144   4.743  0.1495 -0.0328  0.1075
11018SOL    HW142984   9.850   4.208   4.721  0.7642 -0.3477  1.0098
11018SOL    HW242985   9.817   4.060   4.712  0.6707 -0.3561  1.4884
11019SOL     OW42986  12.128  10.836   3.121  0.1485  0.1117  0.1905
11019SOL    HW142987  12.144  10.921   3.080  4.0165 -0.1147  0.8825
11019SOL    HW242988  12.117  10.856   3.214 -1.5557  0.0173  0.0358
11020SOL     OW42989   4.256   3.034   1.976  0.3768  0.2338  0.3266
11020SOL    HW142990   4.240   3.047   2.069  1.3770  2.3277  0.2603
11020SOL    HW242991   4.306   3.111   1.949  0.9712 -0.8032 -1.7387
11021SOL     OW42992   4.399   4.375   2.368 -0.0323 -0.0309 -0.2491
11021SOL    HW142993   4.469   4.437   2.348 -0.0627 -0.1792 -0.8356
11021SOL    HW242994   4.324   4.406   2.318 -1.0644  1.3805  2.0331
11022SOL     OW42995   6.988   6.918   3.626 -0.2389 -0.0036  0.0274
11022SOL    HW142996   6.946   6.914   3.540 -1.9222 -0.0334  0.7962
11022SOL    HW242997   6.993   7.011   3.646  0.4767  0.0199 -0.2400
11023SOL     OW42998  12.508   1.659   8.482 -0.8015 -0.0414  0.5437
11023SOL    HW142999  12.530   1.594   8.549 -1.0025 -0.4866  0.1855
11023SOL    HW243000  12.506   1.609   8.401 -0.6423  0.4798  0.2164
11024SOL     OW43001   2.864   8.887   4.736  0.1459 -0.4247  0.5915
11024SOL    HW143002   2.816   8.882   4.819 -2.0369  1.2868 -0.4466
11024SOL    HW243003   2.837   8.808   4.688 -2.4312  0.8337 -0.2567
11025SOL     OW43004  11.731   3.683  11.050  0.4822 -0.2344 -0.0687
11025SOL    HW143005  11.824   3.701  11.065  0.0781  1.5791  0.4432
11025SOL    HW243006  11.685   3.744  11.107 -1.0477 -0.5516 -0.9163
11026SOL     OW43007   8.502   3.911  12.750 -0.1237 -0.2629 -0.0957
11026SOL    HW143008   8.562   3.884  12.819  0.6907 -0.8669 -1.0158
11026SOL    HW243009   8.421   3.862  12.768 -0.5705  0.9708  1.4643
11027SOL     OW43010  10.940   7.556   6.450  0.0883  0.2073 -0.4177
11027SOL    HW143011  10.915   7.536   6.360 -0.5533 -0.1253 -0.1670
11027SOL    HW243012  11.000   7.486   6.475 -1.3050 -0.8496  0.0886
11028SOL     OW43013  10.671   9.761   5.019 -0.1375 -0.2949 -0.4095
11028SOL    HW143014  10.746   9.819   5.033 -1.2901  1.2636 -0.3838
11028SOL    HW243015  10.685   9.723   4.932  0.3811  0.4548 -0.6614
11029SOL     OW43016   1.461  12.453  12.534 -0.2000 -0.2227 -0.0138
11029SOL    HW143017   1.514  12.496  12.602 -0.4952  0.7060 -0.3561
11029SOL    HW243018   1.401  12.397  12.583 -1.9555  2.1271  0.7027
11030SOL     OW43019   5.746   9.551   2.476  0.4240  0.1947  0.3624
11030SOL    HW143020   5.790   9.608   2.539 -0.8029  1.6057 -0.0038
11030SOL    HW243021   5.676   9.509   2.527  0.3816  0.1775  0.2907
11031SOL     OW43022   9.333   0.598  11.593  0.3068  0.4927 -0.1005
11031SOL    HW143023   9.410   0.584  11.538 -0.4360 -2.0812 -0.6105
11031SOL    HW243024   9.279   0.661  11.545  0.0495 -1.0855 -1.9946
11032SOL     OW43025   2.839   9.570   2.010  0.0493  0.6515  0.4218
11032SOL    HW143026   2.898   9.519   2.066  1.1590  2.8561  1.3560
11032SOL    HW243027   2.772   9.604   2.069 -0.2289  0.9287 -0.0465
11033SOL     OW43028  12.043   6.828  12.252 -0.1506 -0.0515  0.3654
11033SOL    HW143029  11.985   6.826  12.176  1.2961 -0.3231 -0.7968
11033SOL    HW243030  12.011   6.758  12.309 -1.5429  0.4614  0.2457
11034SOL     OW43031  10.285   3.162   2.877 -0.2517  0.5685 -0.2779
11034SOL    HW143032  10.312   3.232   2.817  0.5983  0.7599  0.3020
11034SOL    HW243033  10.367   3.119   2.901 -0.3476  1.5923  2.0840
11035SOL     OW43034   9.598   7.668   7.526 -0.7033  0.4481  0.1219
11035SOL    HW143035   9.612   7.733   7.595 -1.6260  2.6433 -1.6186
11035SOL    HW243036   9.509   7.686   7.495 -0.6532 -1.1193 -1.0072
11036SOL     OW43037  10.465   3.973   3.995 -0.8999  0.1628 -0.2392
11036SOL    HW143038  10.466   3.978   4.091 -1.9566 -0.8548 -0.1559
11036SOL    HW243039  10.402   4.039   3.968  0.4318  1.4545 -0.3513
11037SOL     OW43040   5.032  11.109  10.915  0.2368 -0.2327 -0.4539
11037SOL    HW143041   5.039  11.198  10.949 -1.9070 -0.7359  1.5851
11037SOL    HW243042   5.055  11.053  10.990 -0.8329 -1.3942 -0.9670
11038SOL     OW43043   4.987   6.385   3.823 -0.1350  0.3906 -0.0772
11038SOL    HW143044   4.961   6.310   3.770 -0.6496  0.9345 -0.6052
11038SOL    HW243045   4.974   6.356   3.914 -1.1071  0.1321 -0.2961
11039SOL     OW43046  12.836   4.078  11.659 -0.1783  0.1459 -0.1819
11039SOL    HW143047  12.851   4.171  11.644 -0.0353  0.2069  0.3136
11039SOL    HW243048  12.921   4.037  11.644  0.1878  0.3184  1.2748
11040SOL     OW43049   3.562  13.039  11.648  0.5143 -0.1170  0.1984
11040SOL    HW143050   3.528  12.953  11.625  0.1956  0.0165  0.1625
11040SOL    HW243051   3.640  13.021  11.701  1.1791 -0.4237 -0.8637
11041SOL     OW43052   2.016   4.016   4.086  0.3324  0.2026 -0.0039
11041SOL    HW143053   1.979   3.985   4.004 -0.5919  1.8076 -0.2407
11041SOL    HW243054   2.082   3.951   4.110  1.3465  0.2185 -2.5382
11042SOL     OW43055  12.576   7.188   0.613  0.0420 -0.2223  0.0215
11042SOL    HW143056  12.567   7.180   0.518  0.3886 -0.8298  0.0346
11042SOL    HW243057  12.671   7.194   0.627 -0.0659  3.1822  0.0947
11043SOL     OW43058   0.770   7.641  11.056 -0.2868 -0.3660 -0.4287
11043SOL    HW143059   0.794   7.549  11.071  0.6211  0.1292  1.3688
11043SOL    HW243060   0.823   7.666  10.980  1.6226 -0.5882  0.7520
11044SOL     OW43061   7.769   0.252   5.157 -0.2125  0.4681  0.0222
11044SOL    HW143062   7.706   0.307   5.204  0.3450  1.2433 -0.1186
11044SOL    HW243063   7.852   0.265   5.203 -0.1113 -0.4461  0.1275
11045SOL     OW43064  12.855   4.430   0.124  0.2529  0.0940 -0.1248
11045SOL    HW143065  12.905   4.467   0.197 -1.1022  0.8675  0.4513
11045SOL    HW243066  12.764   4.432   0.154 -0.0228 -2.7874 -0.4660
11046SOL     OW43067   2.541   0.768  10.626  0.1089  0.0179  0.3259
11046SOL    HW143068   2.466   0.807  10.581  1.4628  0.1636 -2.0160
11046SOL    HW243069   2.556   0.685  10.580  0.7532 -0.5079  1.4461
11047SOL     OW43070   6.477   9.678   2.048  0.1642  0.4255  0.0792
11047SOL    HW143071   6.400   9.723   2.082  0.8629  1.0301  0.9099
11047SOL    HW243072   6.531   9.661   2.125  2.0360  2.2643 -0.7251
11048SOL     OW43073   0.762  11.863   6.279 -0.7321 -0.0053  0.5069
11048SOL    HW143074   0.808  11.947   6.278 -1.7605  0.5668 -0.3957
11048SOL    HW243075   0.831  11.798   6.283  0.1087  0.8636  0.4719
11049SOL     OW43076   1.619  10.252  12.497  0.5358  0.7645 -0.5471
11049SOL    HW143077   1.698  10.282  12.452 -0.2108  0.1280 -2.3844
11049SOL    HW243078   1.608  10.162  12.468 -1.7909  1.3629 -1.8001
11050SOL     OW43079   3.770   0.425   0.278  0.3884  0.1711 -0.4648
11050SOL    HW143080   3.708   0.414   0.350  0.9578  0.4863  0.0852
11050SOL    HW243081   3.749   0.353   0.218 -0.0658 -0.1268  0.0326
11051SOL     OW43082   8.198  11.329  11.633 -0.1599 -0.1149 -0.1608
11051SOL    HW143083   8.142  11.318  11.709  0.1821 -1.0904 -0.0344
11051SOL    HW243084   8.276  11.373  11.667 -0.6032  0.7386 -0.2305
11052SOL     OW43085   7.199  11.227   4.985 -0.1195  0.1634  0.4164
11052SOL    HW143086   7.112  11.209   5.021  0.5742  0.5189  2.3954
11052SOL    HW243087   7.254  11.155   5.017  0.4875  0.3468 -0.1800
11053SOL     OW43088  13.102   8.775   8.915  0.2139 -0.0456 -0.1565
11053SOL    HW143089  13.113   8.794   8.822 -0.5559  0.0922 -0.2261
11053SOL    HW243090  13.166   8.706   8.933 -0.2406 -0.7074 -0.9979
11054SOL     OW43091   7.393  12.957   6.483  0.1241 -0.1734  0.4832
11054SOL    HW143092   7.318  12.988   6.533  0.6773  0.0391  1.2152
11054SOL    HW243093   7.421  13.032   6.431  0.3096 -0.0109  0.8145
11055SOL     OW43094   5.576   0.660   6.381  0.0296 -0.1124 -0.2958
11055SOL    HW143095   5.542   0.737   6.335  0.4493  0.4238  0.2759
11055SOL    HW243096   5.644   0.695   6.439  0.8211 -1.0236 -0.6495
11056SOL     OW43097   3.451   4.961  12.863  0.5336 -0.0974  0.5192
11056SOL    HW143098   3.475   4.875  12.896 -1.8999 -0.2188  2.2733
11056SOL    HW243099   3.368   4.947  12.818  0.0216  1.3208  0.9625
11057SOL     OW43100   4.134  11.411   9.743  0.1680  0.3125 -0.5610
11057SOL    HW143101   4.194  11.479   9.713  0.5303  0.0701 -0.4008
11057SOL    HW243102   4.119  11.357   9.666  1.1488 -0.3486 -0.3192
11058SOL     OW43103   6.512   8.653   4.887 -0.0922  0.0391  0.1888
11058SOL    HW143104   6.507   8.720   4.819 -1.2338  0.8621  1.0435
11058SOL    HW243105   6.603   8.658   4.917 -0.5037  2.4227  1.3441
11059SOL     OW43106   0.617   4.870   5.307  0.3338  0.2394  0.1167
11059SOL    HW143107   0.614   4.788   5.259  2.1855 -1.0446  2.0108
11059SOL    HW243108   0.660   4.932   5.247  1.0283 -0.8253 -0.5060
11060SOL     OW43109   7.031   1.853   1.994  0.2708  0.1514 -0.3807
11060SOL    HW143110   7.113   1.869   2.041  0.9137  0.0794 -1.4451
11060SOL    HW243111   7.020   1.930   1.938  0.4745 -0.5512 -1.4285
11061SOL     OW43112   7.891   8.781  11.460  0.1986 -0.5330 -0.0812
11061SOL    HW143113   7.822   8.836  11.497  0.5799  0.2308 -0.4852
11061SOL    HW243114   7.886   8.699  11.510 -0.8612 -0.4125  0.0254
11062SOL     OW43115  12.634   8.413   1.227 -0.1138 -0.5457  0.2615
11062SOL    HW143116  12.696   8.344   1.203  2.7206  1.0991  2.3029
11062SOL    HW243117  12.584   8.376   1.300  0.0613 -1.0677  0.1209
11063SOL     OW43118   4.769   8.434   3.481 -0.3778 -0.1101  0.4854
11063SOL    HW143119   4.765   8.339   3.468  1.9896 -0.2234  0.2259
11063SOL    HW243120   4.861   8.457   3.468 -0.1090  1.6982  4.1268
11064SOL     OW43121   7.248   0.494   8.114  0.2022 -0.2590  0.2360
11064SOL    HW143122   7.262   0.588   8.110 -2.7401  0.3013  0.9519
11064SOL    HW243123   7.209   0.471   8.030  0.4584 -0.7615  0.2489
11065SOL     OW43124  13.016   0.373  12.764  0.5388 -0.3833 -0.1546
11065SOL    HW143125  13.010   0.313  12.689 -0.1861 -0.7139  0.1591
11065SOL    HW243126  12.979   0.323  12.837 -0.6007  0.6573 -0.0022
11066SOL     OW43127  10.214  12.585  10.500  0.0834  0.3942 -0.1470
11066SOL    HW143128  10.153  12.544  10.438  1.0371 -0.3579 -0.6070
11066SOL    HW243129  10.239  12.514  10.560  0.6417  0.6472 -0.0764
11067SOL     OW43130  13.295   6.911   6.722  0.2441 -0.1696  0.0882
11067SOL    HW143131  13.207   6.886   6.693  0.6812  0.3206 -1.8220
11067SOL    HW243132  13.347   6.831   6.711 -0.0770 -0.6960  1.9885
11068SOL     OW43133   9.802  12.959  10.629 -0.4427  0.3406 -0.0450
11068SOL    HW143134   9.737  12.893  10.653  0.2718 -0.2205  0.4056
11068SOL    HW243135   9.809  13.016  10.705  0.0545  0.0086  0.1681
11069SOL     OW43136  11.274  13.089   4.478  0.2592 -0.4253  0.5088
11069SOL    HW143137  11.231  13.004   4.473 -0.6319 -0.0664  1.6372
11069SOL    HW243138  11.241  13.137   4.401 -3.3192  0.6637  2.4910
11070SOL     OW43139   3.586   6.546   9.939 -0.2234  0.1648 -0.5178
11070SOL    HW143140   3.629   6.534   9.854 -0.1155 -1.5749 -0.2687
11070SOL    HW243141   3.496   6.569   9.917  0.1621  1.2028 -1.0750
11071SOL     OW43142  11.811   9.629   6.134  0.6458  0.4003 -0.6399
11071SOL    HW143143  11.855   9.594   6.211 -1.6068  0.9344  0.9811
11071SOL    HW243144  11.781   9.715   6.160 -0.7806  0.3230 -1.8589
11072SOL     OW43145   2.699  12.095   9.598 -0.4710 -0.3117 -0.9229
11072SOL    HW143146   2.774  12.084   9.539 -1.2080 -1.7168 -1.6369
11072SOL    HW243147   2.625  12.112   9.540 -1.1407 -1.3333 -0.3869
11073SOL     OW43148   6.629  12.751   2.158  0.2819 -0.4235 -0.3240
11073SOL    HW143149   6.597  12.688   2.223  0.5001 -0.2268 -0.0225
11073SOL    HW243150   6.636  12.833   2.206 -1.2546  0.1594 -1.0276
11074SOL     OW43151  11.111   1.030   8.888  0.0272  0.0024 -0.3138
11074SOL    HW143152  11.157   0.947   8.894  1.5320  0.8407  0.5364
11074SOL    HW243153  11.031   1.017   8.939  0.2869 -0.8894 -0.1190
11075SOL     OW43154   1.563   2.475   7.473 -0.1389 -0.2900 -0.0025
11075SOL    HW143155   1.559   2.381   7.491  0.4391 -0.3057  0.0762
11075SOL    HW243156   1.643   2.486   7.420 -0.1379  0.1711  0.0877
11076SOL     OW43157  12.992  11.416   5.962  0.1458  0.4670 -0.0936
11076SOL    HW143158  12.959  11.483   6.022  1.6420  0.9139  0.2601
11076SOL    HW243159  12.915  11.363   5.940 -0.2810 -0.3834  3.0551
11077SOL     OW43160   6.317   7.430  10.045 -0.2691 -0.3565 -1.1492
11077SOL    HW143161   6.401   7.399  10.014  0.5658 -0.9814  1.5310
11077SOL    HW243162   6.317   7.524  10.023  0.8054 -0.4885 -1.7856
11078SOL     OW43163  12.874  12.881   5.707 -0.4069  0.3220 -0.1631
11078SOL    HW143164  12.891  12.947   5.774  3.4478 -1.5807  1.0213
11078SOL    HW243165  12.840  12.805   5.755  1.5685 -0.7569 -0.3452
11079SOL     OW43166   7.135   5.605   6.062 -0.2227 -0.2920  0.4309
11079SOL    HW143167   7.101   5.573   6.145  0.8239 -1.9440  0.2550
11079SOL    HW243168   7.062   5.593   6.000 -0.0417 -1.8854  0.4908
11080SOL     OW43169   1.676   2.912   8.418  0.1433 -0.0489  0.6605
11080SOL    HW143170   1.589   2.948   8.433  0.0192 -0.9543  2.4327
11080SOL    HW243171   1.714   2.905   8.505  0.6729 -2.8321  0.3021
11081SOL     OW43172   6.220  11.546  13.234 -0.3191 -0.3572 -0.0273
11081SOL    HW143173   6.309  11.568  13.262 -0.1912 -1.1936  0.2602
11081SOL    HW243174   6.175  11.522  13.315 -1.0743  0.9292 -0.0495
11082SOL     OW43175  12.644  11.903  11.442 -0.5926 -0.0242 -0.3617
11082SOL    HW143176  12.631  11.813  11.472 -0.7950  0.3070  0.5852
11082SOL    HW243177  12.595  11.956  11.505  2.1866  1.0026  1.1137
11083SOL     OW43178   1.119   7.031   6.543 -0.1743 -0.3193 -0.2349
11083SOL    HW143179   1.120   7.060   6.451 -0.5415 -0.0055 -0.1393
11083SOL    HW243180   1.161   7.102   6.591  2.3206 -1.5325 -0.4574
11084SOL     OW43181  10.703  10.691  12.360 -0.3640  0.3173 -0.1198
11084SOL    HW143182  10.743  10.607  12.383 -1.3838 -0.9212 -2.5847
11084SOL    HW243183  10.745  10.716  12.278 -1.3562  1.3518 -0.3279
11085SOL     OW43184   5.562  10.625   9.560 -0.2772  0.3375  0.1661
11085SOL    HW143185   5.632  10.613   9.623  0.8701 -1.1486 -1.2923
11085SOL    HW243186   5.514  10.701   9.591  1.0563  0.4719  2.0446
11086SOL     OW43187   1.358   7.402   7.343 -0.6053 -0.2473 -0.0833
11086SOL    HW143188   1.304   7.481   7.345 -1.9805 -1.1170 -0.7663
11086SOL    HW243189   1.371   7.378   7.434 -0.8034  0.3565  0.1044
11087SOL     OW43190   8.596   1.306  11.858 -0.0197 -0.1423 -0.3107
11087SOL    HW143191   8.600   1.399  11.835  2.1886 -0.7275 -2.6890
11087SOL    HW243192   8.686   1.282  11.878 -0.6957 -1.6067  1.2742
11088SOL     OW43193   5.631   1.882   1.191 -0.7091 -0.6379  0.2448
11088SOL    HW143194   5.662   1.854   1.105 -0.2309 -1.2440  0.6099
11088SOL    HW243195   5.618   1.801   1.241 -0.4396 -0.2794  0.9221
11089SOL     OW43196  10.731   4.046  12.875  0.1189 -0.0792 -0.5232
11089SOL    HW143197  10.706   4.086  12.958 -1.8853  0.5021 -1.3393
11089SOL    HW243198  10.710   4.113  12.809  1.6581 -0.5303 -1.5055
11090SOL     OW43199  11.753   1.252   0.158 -0.1239 -0.0357  0.4198
11090SOL    HW143200  11.768   1.216   0.070 -1.5078  0.1146  0.0977
11090SOL    HW243201  11.821   1.319   0.168  1.5763 -1.6752  0.4518
11091SOL     OW43202   8.872   0.715   8.880 -0.3018 -0.0182  0.6328
11091SOL    HW143203   8.828   0.662   8.814  0.4005  0.8562 -0.5827
11091SOL    HW243204   8.825   0.697   8.961 -1.3574 -0.9145 -0.1516
11092SOL     OW43205   1.471   2.920   3.367  0.1929 -0.1875 -0.2488
11092SOL    HW143206   1.469   2.832   3.406  2.1397 -0.2271 -0.1431
11092SOL    HW243207   1.528   2.911   3.291  1.5437  1.2465  0.5293
11093SOL     OW43208   5.320   2.239   2.498 -0.5265  0.3825 -0.5963
11093SOL    HW143209   5.378   2.278   2.433 -2.1376  1.0016 -1.7416
11093SOL    HW243210   5.319   2.146   2.477  0.2994  0.3149 -0.3501
11094SOL     OW43211  12.192   7.502   5.381 -0.1909  0.6744  0.1022
11094SOL    HW143212  12.116   7.458   5.420 -0.1650  0.6073  0.0761
11094SOL    HW243213  12.177   7.595   5.399  0.5231  0.5323  1.5032
11095SOL     OW43214   5.231  11.242  13.025  0.1941 -0.4154 -0.0425
11095SOL    HW143215   5.298  11.191  12.980  0.4707  0.7046 -0.9562
11095SOL    HW243216   5.229  11.326  12.978  0.4739  0.8050  2.0030
11096SOL     OW43217   1.175   4.077  12.587  0.1044 -0.4575  0.4003
11096SOL    HW143218   1.252   4.134  12.594  0.8010 -1.3655  0.3881
11096SOL    HW243219   1.143   4.069  12.676  0.6267 -0.8758  0.5538
11097SOL     OW43220   6.412   0.548   7.986  0.0465 -0.0192 -0.2183
11097SOL    HW143221   6.401   0.642   7.975 -0.8053 -0.2133 -1.1344
11097SOL    HW243222   6.393   0.531   8.078  0.8368  0.7836  0.1001
11098SOL     OW43223   3.993  11.277   4.751 -0.3728  0.4345 -0.3894
11098SOL    HW143224   4.032  11.191   4.738 -0.4469  0.2385  0.6190
11098SOL    HW243225   3.960  11.301   4.664 -1.2362 -0.9883 -0.5002
11099SOL     OW43226  11.858   9.986  11.334  0.0563  0.1025 -0.1396
11099SOL    HW143227  11.845   9.934  11.255  1.9079  0.6473 -0.8547
11099SOL    HW243228  11.866  10.076  11.303  1.4202  0.2523  0.5771
11100SOL     OW43229   1.231   4.044   5.670  0.4633  0.4534  0.8693
11100SOL    HW143230   1.182   4.124   5.693 -0.4078  0.1249  0.2042
11100SOL    HW243231   1.249   4.053   5.576 -1.2015 -0.9270  0.3686
11101SOL     OW43232  10.922  10.869   1.296 -0.3284  0.2985 -0.5042
11101SOL    HW143233  10.908  10.812   1.220  0.1401  1.3426 -1.3991
11101SOL    HW243234  10.903  10.957   1.264 -4.2164  0.4769  1.6697
11102SOL     OW43235   4.625   0.969   9.175  0.0071  0.4387 -0.0436
11102SOL    HW143236   4.581   1.053   9.183  0.3410  0.5757  0.4053
11102SOL    HW243237   4.632   0.936   9.265 -2.8950 -1.5409 -0.4033
11103SOL     OW43238   8.696  12.655  12.857 -0.2114  0.2822  0.0740
11103SOL    HW143239   8.651  12.690  12.780  0.1086  1.9172  0.5915
11103SOL    HW243240   8.723  12.732  12.906  3.1652 -0.5776 -0.1686
11104SOL     OW43241   0.040  12.450   4.739 -0.3925 -0.1357  0.4774
11104SOL    HW143242   0.129  12.428   4.709  0.1063  0.8739  1.1426
11104SOL    HW243243   0.025  12.538   4.705 -1.2868 -0.4365  0.0830
11105SOL     OW43244   5.094   5.448  10.318  0.4568  0.4601  0.2243
11105SOL    HW143245   5.120   5.511  10.386 -0.7322 -0.0043  1.1412
11105SOL    HW243246   5.002   5.467  10.302  0.1266 -0.9315  0.3906
11106SOL     OW43247   4.383  12.493   9.128 -0.4935  0.2512 -0.4202
11106SOL    HW143248   4.408  12.440   9.204  0.0158  1.4505  0.2719
11106SOL    HW243249   4.299  12.532   9.152 -0.0860  1.0376 -0.2550
11107SOL     OW43250   1.167   0.756   4.124 -0.2729 -0.6463  0.0395
11107SOL    HW143251   1.197   0.771   4.034  0.7977 -0.7660  0.3647
11107SOL    HW243252   1.073   0.778   4.122 -0.2259 -0.4921 -1.0611
11108SOL     OW43253   8.533  12.284   3.714 -1.1276 -0.2722 -0.1133
11108SOL    HW143254   8.594  12.223   3.754 -0.7415  0.0050 -0.2648
11108SOL    HW243255   8.581  12.367   3.710 -2.4748  0.7691  2.4132
11109SOL     OW43256   8.797   3.999   7.259 -0.7654  0.4359  0.3985
11109SOL    HW143257   8.820   4.068   7.197  0.0263 -0.3308 -0.1846
11109SOL    HW243258   8.791   3.920   7.206  1.5089 -0.5575  1.4746
11110SOL     OW43259   6.984  12.520  11.095  0.3681  0.1833  0.6648
11110SOL    HW143260   7.075  12.499  11.075  0.4629 -0.6171  1.8527
11110SOL    HW243261   6.978  12.514  11.190 -0.0541  3.8036  1.0212
11111SOL     OW43262  11.135  12.862   3.768  0.4741  0.1103  0.4175
11111SOL    HW143263  11.205  12.862   3.704  0.6107 -0.7951  0.5520
11111SOL    HW243264  11.127  12.771   3.795 -0.4945  0.2621  0.6892
11112SOL     OW43265   0.503   0.322   3.561 -0.0561  0.3032 -0.5215
11112SOL    HW143266   0.431   0.324   3.497  0.7707 -1.3929 -1.5823
11112SOL    HW243267   0.569   0.380   3.525  0.1618 -0.1841 -0.9221
11113SOL     OW43268   3.543   4.690   5.384  0.5265  0.2018  0.1854
11113SOL    HW143269   3.462   4.641   5.401  0.4532 -0.0409 -0.7926
11113SOL    HW243270   3.603   4.624   5.349  1.2218  0.3407  1.0968
11114SOL     OW43271   0.770   6.289   0.477 -0.2128 -0.1762 -0.4186
11114SOL    HW143272   0.710   6.349   0.434  0.0912 -0.2527 -0.9519
11114SOL    HW243273   0.713   6.221   0.515 -0.3962 -0.9213 -1.9594
11115SOL     OW43274  11.395   7.399   9.663  0.3745  0.1977  0.0943
11115SOL    HW143275  11.445   7.436   9.736 -1.6349  1.8234  0.7801
11115SOL    HW243276  11.416   7.455   9.588 -0.8565  1.3443  0.5557
11116SOL     OW43277   9.534   1.644   3.709  0.2419 -0.0219  0.0952
11116SOL    HW143278   9.468   1.655   3.640 -0.1441 -1.3316  0.2150
11116SOL    HW243279   9.586   1.569   3.679  0.3503 -0.3158  1.0135
11117SOL     OW43280   7.149   9.942   7.043  0.0027  0.2622  0.2764
11117SOL    HW143281   7.244   9.930   7.040  0.0230  0.5288 -0.5402
11117SOL    HW243282   7.114   9.855   7.059  0.3238 -0.1719 -1.2456
11118SOL     OW43283   3.455   1.474   4.163  0.3245  0.1365  0.1406
11118SOL    HW143284   3.391   1.404   4.157 -0.2806  0.6267  0.7142
11118SOL    HW243285   3.533   1.433   4.201  0.5462 -0.5818 -1.0421
11119SOL     OW43286   0.242   3.816  12.704  0.0550  0.3553 -0.3602
11119SOL    HW143287   0.277   3.746  12.760 -0.4245  0.5105  0.1413
11119SOL    HW243288   0.222   3.772  12.621 -0.4699 -0.1666  0.0309
11120SOL     OW43289  11.473  13.144   1.278 -0.2251 -0.2292 -0.1049
11120SOL    HW143290  11.449  13.166   1.368 -0.1270 -3.1749  0.7191
11120SOL    HW243291  11.520  13.221   1.247 -0.8429  1.1336  2.1002
11121SOL     OW43292   0.573   3.272   8.864  0.4224 -0.4101  0.0758
11121SOL    HW143293   0.521   3.302   8.938  0.8985 -0.3026  0.3748
11121SOL    HW243294   0.617   3.193   8.896  1.1120 -0.0167  0.1228
11122SOL     OW43295   7.586   5.901  13.060  0.2140  0.3376 -0.0974
11122SOL    HW143296   7.555   5.810  13.065 -0.3673  0.3415 -2.3789
11122SOL    HW243297   7.680   5.895  13.074  0.1085 -0.5427  0.2910
11123SOL     OW43298  12.148  11.751   9.576  0.2921  0.0436 -0.2375
11123SOL    HW143299  12.064  11.789   9.551 -0.8125 -1.0730  1.6043
11123SOL    HW243300  12.158  11.675   9.517  0.0958  0.2756 -0.5735
11124SOL     OW43301   7.039  12.272   0.534 -0.2150 -0.1956 -0.1879
11124SOL    HW143302   6.991  12.247   0.454 -1.9226  1.0463  0.3852
11124SOL    HW243303   7.085  12.352   0.510  0.1026 -0.3796 -0.2018
11125SOL     OW43304   4.670   4.907   1.290 -0.3005 -0.4593 -0.1967
11125SOL    HW143305   4.741   4.902   1.227 -0.1160 -2.0889  0.1049
11125SOL    HW243306   4.630   4.993   1.275  0.4866 -0.3334 -1.6925
11126SOL     OW43307   8.892   4.812   0.215  0.2055 -0.2551  0.4587
11126SOL    HW143308   8.939   4.739   0.175 -1.2553 -1.6898  1.2620
11126SOL    HW243309   8.956   4.851   0.275  1.3156 -0.2311 -0.7056
11127SOL     OW43310   0.164   4.423   2.090 -0.1102 -0.2677 -0.1415
11127SOL    HW143311   0.181   4.514   2.067  1.5047 -0.0081  1.8510
11127SOL    HW243312   0.083   4.426   2.140  0.2551  0.1769  0.4373
11128SOL     OW43313  12.866   6.720   9.600  0.2077  0.1286  0.7171
11128SOL    HW143314  12.897   6.734   9.690  0.1655  0.2767  0.7095
11128SOL    HW243315  12.862   6.625   9.590  0.0469  0.1139  0.9268
11129SOL     OW43316   1.109   9.595   6.174  0.0669  0.2775 -0.1077
11129SOL    HW143317   1.090   9.674   6.123 -2.9484  0.3682  0.9218
11129SOL    HW243318   1.065   9.525   6.126 -0.7714 -0.0388  1.0825
11130SOL     OW43319   3.142   9.529  10.131  0.0534  0.4674 -0.2752
11130SOL    HW143320   3.127   9.586  10.056  0.9763  0.4242 -0.5016
11130SOL    HW243321   3.234   9.504  10.124 -0.0041 -0.0009  0.5485
11131SOL     OW43322   0.618   0.373  12.794 -0.3588  0.3368  0.7435
11131SOL    HW143323   0.530   0.350  12.822 -1.8959  2.4975 -1.7692
11131SOL    HW243324   0.669   0.293  12.805 -1.9269 -0.3204  4.5898
11132SOL     OW43325   1.675   2.469   0.883 -0.5922 -0.2801 -0.0304
11132SOL    HW143326   1.697   2.390   0.834  0.5217 -0.0152  0.0227
11132SOL    HW243327   1.686   2.540   0.821 -0.3687 -0.0530  0.2643
11133SOL     OW43328   1.170   6.724   8.162  0.1635 -0.9645  0.2879
11133SOL    HW143329   1.140   6.633   8.162  0.1127 -0.9781 -1.4942
11133SOL    HW243330   1.265   6.717   8.148  0.1691 -0.7389  0.2221
11134SOL     OW43331   9.110   6.366   3.965  0.5749  0.2688 -0.3144
11134SOL    HW143332   9.042   6.306   3.996 -0.5879  0.8983 -1.5226
11134SOL    HW243333   9.135   6.330   3.879  1.8627 -0.0089  0.1617
11135SOL     OW43334   9.070   8.119   6.771  0.5141  0.0188  0.1748
11135SOL    HW143335   9.051   8.213   6.771  0.1204  0.0242 -2.4559
11135SOL    HW243336   8.993   8.079   6.811  1.1771  0.8298  2.3782
11136SOL     OW43337  12.788   2.856   3.117  0.1359 -0.3543 -0.2674
11136SOL    HW143338  12.869   2.837   3.165 -0.8201 -3.5367  0.2973
11136SOL    HW243339  12.808   2.834   3.026 -0.3933 -2.3769  0.0713
11137SOL     OW43340  12.784   0.627   7.991 -0.1152  0.0825  0.2100
11137SOL    HW143341  12.781   0.565   8.064 -0.2625  0.8721  0.8813
11137SOL    HW243342  12.877   0.652   7.985 -0.0614 -0.1673 -0.0415
11138SOL     OW43343   1.131   8.311   4.489 -0.1007  0.0564 -0.0729
11138SOL    HW143344   1.109   8.295   4.581  0.1704  0.2254  0.0224
11138SOL    HW243345   1.050   8.341   4.450 -0.0238  0.7849  0.3031
11139SOL     OW43346   7.590   8.951   3.601  0.4109 -0.3153  0.1922
11139SOL    HW143347   7.537   8.934   3.523  0.8751  1.0650 -0.4665
11139SOL    HW243348   7.558   8.890   3.666 -1.3580 -0.1605 -0.4837
11140SOL     OW43349  10.567   2.315   0.650 -0.1936 -0.1851 -0.3941
11140SOL    HW143350  10.549   2.299   0.743  0.5979 -0.8121 -0.3357
11140SOL    HW243351  10.663   2.312   0.644 -0.2604 -0.8008 -1.3387
11141SOL     OW43352   9.928   0.254   5.067 -0.2459  0.4381 -0.2917
11141SOL    HW143353   9.964   0.214   5.146 -0.7001 -0.2385 -0.4159
11141SOL    HW243354   9.967   0.341   5.064  3.0525 -0.9151 -1.4903
11142SOL     OW43355  10.529   5.746   7.947  0.2212  0.1349 -0.2598
11142SOL    HW143356  10.519   5.659   7.907  1.7807  0.9441 -2.6156
11142SOL    HW243357  10.578   5.730   8.027 -1.0947 -1.3233  0.3096
11143SOL     OW43358  11.414   9.019   2.976 -0.1250  0.0813  1.1096
11143SOL    HW143359  11.462   9.053   2.901 -0.4911 -1.6898  0.0244
11143SOL    HW243360  11.322   9.035   2.956 -0.3687 -2.0409  0.2298
11144SOL     OW43361   8.934   7.544   6.991  0.2290  0.4192 -0.1599
11144SOL    HW143362   9.002   7.544   6.923  0.3825  0.0920 -0.0105
11144SOL    HW243363   8.983   7.537   7.073 -0.0067 -0.3968 -0.0799
11145SOL     OW43364  10.247  12.156  12.140 -0.3373  0.3270 -0.1460
11145SOL    HW143365  10.180  12.154  12.072 -0.9770 -0.0691  0.4723
11145SOL    HW243366  10.198  12.163  12.222  0.4116  0.7255  0.2813
11146SOL     OW43367   3.544  13.240   2.488 -0.5609  0.0342  0.2080
11146SOL    HW143368   3.452  13.217   2.474 -0.2146 -0.5624 -1.2063
11146SOL    HW243369   3.593  13.170   2.447  0.5912 -0.7170  2.6870
11147SOL     OW43370   2.897  10.571   3.502 -0.3395  0.2803  0.0238
11147SOL    HW143371   2.932  10.557   3.414 -0.0967  1.9713 -0.1970
11147SOL    HW243372   2.854  10.489   3.525  2.2195 -1.2737 -0.4019
11148SOL     OW43373   2.336   6.677  11.294  0.0248 -0.6748  0.5161
11148SOL    HW143374   2.348   6.772  11.296  0.8192 -0.7555  0.0909
11148SOL    HW243375   2.424   6.641  11.308  0.2707 -1.3219 -2.1636
11149SOL     OW43376   5.019   6.370   5.529  0.2265 -0.3513  0.3584
11149SOL    HW143377   5.005   6.368   5.434  1.2657  1.2215  0.1306
11149SOL    HW243378   4.931   6.369   5.566 -0.2958  1.4219 -0.7184
11150SOL     OW43379   9.269   8.550   8.023 -0.0085  0.3803  0.2465
11150SOL    HW143380   9.215   8.477   8.054  0.6195  0.4473  1.5626
11150SOL    HW243381   9.257   8.550   7.928 -2.0929  0.2216  0.4598
11151SOL     OW43382  10.505  11.463   2.214  0.5805 -0.2022  0.3617
11151SOL    HW143383  10.501  11.526   2.142 -0.2122  0.1553  0.7129
11151SOL    HW243384  10.582  11.409   2.194  0.4941  0.0243 -0.6392
11152SOL     OW43385   8.899  12.091   5.465 -0.5207 -0.4474 -0.7154
11152SOL    HW143386   8.875  12.135   5.384  0.6923  0.7340 -0.4545
11152SOL    HW243387   8.976  12.039   5.442  2.1416  2.6904  0.3876
11153SOL     OW43388   1.032   2.692   5.531  0.5753  0.6789 -0.0514
11153SOL    HW143389   1.077   2.707   5.614  0.9587  1.0262 -0.3186
11153SOL    HW243390   0.979   2.614   5.546  0.1911  1.0730  0.7038
11154SOL     OW43391  11.268   3.884  12.083  0.5517  0.6567  0.5830
11154SOL    HW143392  11.360   3.903  12.103  0.3098  2.5131  0.1138
11154SOL    HW243393  11.259   3.903  11.989  0.3388 -2.3708 -0.0937
11155SOL     OW43394  10.662  12.242  11.502  0.2964 -0.2945  0.7802
11155SOL    HW143395  10.583  12.188  11.507  0.9790 -1.2485  1.3415
11155SOL    HW243396  10.659  12.295  11.581 -0.0494  0.0799  0.5287
11156SOL     OW43397   4.863   2.115  10.276  0.1514 -0.1849 -0.1198
11156SOL    HW143398   4.934   2.176  10.299  1.5084 -1.9512  0.6251
11156SOL    HW243399   4.807   2.166  10.217  2.5239  1.0641 -1.5153
11157SOL     OW43400   6.934   1.236  10.479  0.6953  0.0337  0.2011
11157SOL    HW143401   6.877   1.196  10.412  0.4678  1.3297 -0.4007
11157SOL    HW243402   7.005   1.173  10.489  0.1641 -0.7023 -0.4663
11158SOL     OW43403  11.978  12.186   2.187 -0.4297 -0.0624 -0.4641
11158SOL    HW143404  11.925  12.174   2.108 -1.1877  0.0073  0.0230
11158SOL    HW243405  12.037  12.258   2.165  0.2576 -0.8985 -1.4095
11159SOL     OW43406   6.705   3.266   0.875 -0.3540  0.0087 -0.0814
11159SOL    HW143407   6.642   3.337   0.866  0.1417  0.8487  2.2759
11159SOL    HW243408   6.653   3.186   0.865 -1.2731  0.6949 -0.8755
11160SOL     OW43409   7.670   1.897  10.740 -0.5454  0.4117  0.0352
11160SOL    HW143410   7.746   1.856  10.782 -0.6202 -1.0771 -1.2141
11160SOL    HW243411   7.607   1.907  10.811 -0.0093 -0.3849  0.6432
11161SOL     OW43412  11.866  11.873   0.715  0.2321  0.2608  0.0460
11161SOL    HW143413  11.882  11.881   0.809 -3.2770 -2.9532  1.1579
11161SOL    HW243414  11.949  11.842   0.679  2.0302  2.7061  1.7253
11162SOL     OW43415   5.136   6.734   0.363  0.3773 -0.2831  0.1356
11162SOL    HW143416   5.092   6.764   0.443 -1.0152  0.5028 -0.8876
11162SOL    HW243417   5.174   6.650   0.387 -1.5422 -0.9224  1.1437
11163SOL     OW43418   1.349   8.846  10.262  0.4738 -0.1072 -0.6621
11163SOL    HW143419   1.321   8.835  10.171  0.2062 -1.1265 -0.4658
11163SOL    HW243420   1.429   8.794  10.269  1.3789  1.2451 -0.7132
11164SOL     OW43421   6.526   9.015   2.531 -0.2639  0.5896 -0.6042
11164SOL    HW143422   6.541   9.109   2.520  0.6249  0.7288  1.3422
11164SOL    HW243423   6.597   8.974   2.481  0.9068  1.0423  0.6406
11165SOL     OW43424   2.196   8.646   4.381  0.1717 -1.3377  0.4608
11165SOL    HW143425   2.260   8.661   4.312 -1.4453 -2.5041 -1.3910
11165SOL    HW243426   2.244   8.598   4.448  1.5637 -0.9335 -0.2010
11166SOL     OW43427  13.197   9.497   3.497  0.0014 -0.0833 -0.0583
11166SOL    HW143428  13.133   9.474   3.430  0.3317 -1.6999  0.1406
11166SOL    HW243429  13.147   9.502   3.578 -0.8272  3.9947 -0.5746
11167SOL     OW43430   4.926   0.158   6.826  0.2969 -0.5889  0.3326
11167SOL    HW143431   4.834   0.164   6.850 -0.7767 -3.2724 -2.4716
11167SOL    HW243432   4.926   0.114   6.741  4.1062  0.8838 -0.6499
11168SOL     OW43433   1.154   9.759   2.760  0.1930 -0.2274  0.3810
11168SOL    HW143434   1.150   9.851   2.736  0.8610  0.7631  3.5569
11168SOL    HW243435   1.067   9.725   2.738  0.1749  0.9281 -1.5277
11169SOL     OW43436   4.578   1.440   3.331 -0.2075 -0.1010  0.3332
11169SOL    HW143437   4.637   1.370   3.304  0.0084  0.4327 -0.6302
11169SOL    HW243438   4.629   1.521   3.318  0.0506  0.1997  2.7171
11170SOL     OW43439   0.386   2.532  11.144 -0.0277  0.5917 -0.0438
11170SOL    HW143440   0.445   2.457  11.159 -1.1641 -0.1823  0.7123
11170SOL    HW243441   0.444   2.601  11.111  1.9277  0.9078  3.5314
11171SOL     OW43442   0.090   0.254   3.594  0.5401  0.0628  0.4145
11171SOL    HW143443   0.105   0.283   3.684 -0.7648  0.5469  0.4998
11171SOL    HW243444  -0.005   0.259   3.583  0.6359 -0.4913 -0.8284
11172SOL     OW43445   8.093   3.345   3.210  0.1847  0.4868  0.1249
11172SOL    HW143446   8.171   3.328   3.263  0.4369  0.8649 -0.1203
11172SOL    HW243447   8.019   3.329   3.270  0.3465 -1.9996 -0.2109
11173SOL     OW43448   1.144   2.294   1.845  0.3552  0.1571  0.8844
11173SOL    HW143449   1.125   2.365   1.905 -0.8252 -0.2087  0.9750
11173SOL    HW243450   1.238   2.300   1.828  0.3989  1.2599  1.4770
11174SOL     OW43451   7.190  10.451   5.289 -0.5591  0.6096 -0.7931
11174SOL    HW143452   7.205  10.519   5.355  2.4010 -0.8283  0.2105
11174SOL    HW243453   7.134  10.387   5.334  0.4072  0.2423 -0.0741
11175SOL     OW43454  10.054   7.315  12.436 -0.0832  0.2773 -0.2553
11175SOL    HW143455  10.130   7.257  12.429 -0.9230 -0.7881 -1.0408
11175SOL    HW243456  10.073   7.387  12.376  0.6079  0.3978  0.0942
11176SOL     OW43457   2.451   0.579   1.393  0.2065 -0.0961  0.4093
11176SOL    HW143458   2.448   0.585   1.298  1.7204 -1.0757  0.2610
11176SOL    HW243459   2.486   0.491   1.411  0.0823  0.1187  1.8628
11177SOL     OW43460  11.417  11.725   7.060 -0.4337 -0.0148 -0.2485
11177SOL    HW143461  11.476  11.791   7.097  0.4760  0.7741 -2.9016
11177SOL    HW243462  11.366  11.772   6.994 -0.3895 -1.7265 -1.5963
11178SOL     OW43463   9.478  11.825   5.862  0.0828  0.2851  0.2856
11178SOL    HW143464   9.427  11.743   5.860  1.2813 -0.6002  2.4637
11178SOL    HW243465   9.418  11.891   5.827 -1.5406 -1.2180  0.0747
11179SOL     OW43466   6.633   4.501   4.496  0.2417 -0.1535  0.0580
11179SOL    HW143467   6.638   4.413   4.534 -1.8421  0.1839  1.2848
11179SOL    HW243468   6.658   4.559   4.568  0.6042  0.3117 -0.4400
11180SOL     OW43469   1.740  12.090   6.094  0.2400  0.3252  0.0921
11180SOL    HW143470   1.805  12.020   6.086  0.5297  0.4261  1.3446
11180SOL    HW243471   1.670  12.051   6.146 -0.4395  0.4154 -0.7236
11181SOL     OW43472   5.696   0.814   6.077 -0.4202 -0.4109  0.0891
11181SOL    HW143473   5.767   0.792   6.138 -0.4573  0.0390  0.2954
11181SOL    HW243474   5.645   0.880   6.123 -0.3616  0.0452 -0.4945
11182SOL     OW43475  13.077   8.450   4.488  0.9269 -0.1754  0.5123
11182SOL    HW143476  13.140   8.507   4.443 -1.2381  0.9195 -1.3495
11182SOL    HW243477  12.997   8.502   4.493 -0.6252 -2.4182  0.4186
11183SOL     OW43478   6.164   2.111   8.819 -0.0606 -0.2628 -0.3477
11183SOL    HW143479   6.191   2.032   8.774 -1.5153 -0.4732 -0.9066
11183SOL    HW243480   6.206   2.106   8.905  1.6931 -0.4924 -1.1627
11184SOL     OW43481   3.901   1.916   6.751  0.2542  0.1037  0.3167
11184SOL    HW143482   3.938   1.872   6.827 -0.7147 -1.0262  0.1747
11184SOL    HW243483   3.806   1.909   6.764 -0.0068  3.2988  0.9111
11185SOL     OW43484   4.965   8.309   5.309 -0.0397  0.1361  0.1105
11185SOL    HW143485   4.931   8.220   5.316 -0.8407  0.5533  2.4682
11185SOL    HW243486   5.056   8.301   5.337  0.1951 -0.0703 -0.6737
11186SOL     OW43487   8.975  10.825   7.780  0.0753 -0.0957  0.3714
11186SOL    HW143488   8.920  10.888   7.733  0.7595  1.3648  1.4599
11186SOL    HW243489   8.913  10.765   7.821 -0.7965  1.8512  2.0557
11187SOL     OW43490  12.405   8.203   4.160 -0.2489  0.3562 -0.4294
11187SOL    HW143491  12.432   8.183   4.250 -0.5031  0.9338 -0.2211
11187SOL    HW243492  12.450   8.284   4.139 -0.1488  0.1927 -0.8507
11188SOL     OW43493  10.863   5.104   6.823 -0.5526  0.5858  0.0207
11188SOL    HW143494  10.834   5.161   6.752  0.7809  1.0737 -0.1519
11188SOL    HW243495  10.953   5.082   6.801 -0.9511 -1.4662  0.1721
11189SOL     OW43496   0.300  11.648   2.360 -0.3305 -0.0274 -0.2544
11189SOL    HW143497   0.301  11.585   2.289  1.0337 -0.4085  0.0695
11189SOL    HW243498   0.262  11.727   2.322 -0.6754 -0.5799 -1.0762
11190SOL     OW43499   4.373   5.049   1.413 -0.3629  0.0968  0.2951
11190SOL    HW143500   4.415   5.005   1.486 -0.8534  0.5173  0.8406
11190SOL    HW243501   4.298   4.994   1.390 -0.9946  0.6362  0.9975
11191SOL     OW43502   9.091   8.886   8.404  0.1843 -0.0906  0.0974
11191SOL    HW143503   9.134   8.969   8.384  3.1436 -0.5999  3.3078
11191SOL    HW243504   9.156   8.820   8.380 -1.5784 -1.4769 -1.1340
11192SOL     OW43505   4.643   0.205  13.079  0.4320  0.2141  0.1984
11192SOL    HW143506   4.584   0.251  13.020  0.7612  0.2754 -0.0839
11192SOL    HW243507   4.588   0.182  13.154 -0.3088 -0.9714 -0.6720
11193SOL     OW43508  12.429   8.906   7.474 -0.6919 -0.1717  0.2565
11193SOL    HW143509  12.342   8.878   7.445 -0.2537 -1.6071  0.2907
11193SOL    HW243510  12.439   8.867   7.561  0.2517 -0.5447 -0.0140
11194SOL     OW43511   0.847   5.550   5.444 -0.4931  0.0806  0.1416
11194SOL    HW143512   0.886   5.480   5.497  0.2974 -0.4040 -1.0385
11194SOL    HW243513   0.769   5.511   5.406  0.1949 -0.3383 -0.8850
11195SOL     OW43514  10.549   8.213  11.018 -0.3368 -0.1077 -0.0849
11195SOL    HW143515  10.519   8.128  11.049 -0.6584 -0.8520 -2.2996
11195SOL    HW243516  10.633   8.196  10.976 -0.3823  0.6892 -0.5226
11196SOL     OW43517   7.129  12.944   4.655 -0.0053  0.4764  0.4531
11196SOL    HW143518   7.136  12.994   4.736 -0.2541  0.6918  0.3447
11196SOL    HW243519   7.219  12.934   4.624  0.1548 -0.1522  1.0817
11197SOL     OW43520  12.590  12.202   5.511 -0.6978  0.3069 -0.0928
11197SOL    HW143521  12.567  12.191   5.604 -2.1227  0.2983 -0.4293
11197SOL    HW243522  12.619  12.116   5.483 -3.6592 -0.6425 -0.5294
11198SOL     OW43523  10.712   9.357   5.066 -0.2140  0.0650 -0.2441
11198SOL    HW143524  10.791   9.403   5.038  0.0009  0.8830  1.5753
11198SOL    HW243525  10.713   9.275   5.017  0.3254  1.2043 -2.2481
11199SOL     OW43526   2.096   4.220   4.532  0.2754  0.2460  0.5149
11199SOL    HW143527   2.185   4.209   4.500  0.5263  0.2122  1.2107
11199SOL    HW243528   2.042   4.224   4.453  1.0082  1.3326  0.0373
11200SOL     OW43529   1.126  13.143   3.463 -0.6203  0.2514 -0.0631
11200SOL    HW143530   1.218  13.169   3.475 -0.2842 -0.6337 -0.6290
11200SOL    HW243531   1.106  13.167   3.372 -0.4741 -0.8913 -0.4200
11201SOL     OW43532  10.948   0.923   3.776 -0.1092 -0.0669 -0.2554
11201SOL    HW143533  11.012   0.967   3.832 -1.5246 -0.3887  1.7391
11201SOL    HW243534  10.989   0.921   3.689  2.3682  0.1151  0.8260
11202SOL     OW43535   1.113   1.419  10.452  0.3887 -0.2917 -0.2171
11202SOL    HW143536   1.106   1.513  10.438  1.4573 -0.1211  0.3270
11202SOL    HW243537   1.028   1.394  10.487  0.8027  0.8624  1.7114
11203SOL     OW43538   3.176  13.305   9.948 -0.5295  0.1629 -0.3896
11203SOL    HW143539   3.155  13.354   9.868 -3.1104  0.8771  0.6142
11203SOL    HW243540   3.230  13.364   9.999  0.9367 -0.2022 -1.4463
11204SOL     OW43541   6.786  12.288   7.163 -0.1699  0.6879  0.3925
11204SOL    HW143542   6.692  12.306   7.166 -0.4613 -0.1611 -1.8977
11204SOL    HW243543   6.795  12.221   7.095  2.2078  1.4911 -0.1609
11205SOL     OW43544  13.284  10.681   8.830  0.4552 -0.1958  0.5968
11205SOL    HW143545  13.260  10.640   8.747  1.1008  1.1254 -0.2684
11205SOL    HW243546  13.267  10.774   8.817  0.5731  0.0402  1.9530
11206SOL     OW43547   6.411   2.521   5.642  0.2730  0.4172 -0.8655
11206SOL    HW143548   6.375   2.454   5.584 -0.4700  0.2686 -0.2553
11206SOL    HW243549   6.492   2.483   5.675  0.0138 -0.0509 -0.7598
11207SOL     OW43550   9.058  11.898   3.924 -0.1972  0.1278  0.1451
11207SOL    HW143551   8.977  11.913   3.875 -0.1302  0.8916  0.2496
11207SOL    HW243552   9.128  11.911   3.860 -0.1584 -0.7832 -0.0056
11208SOL     OW43553   1.369  11.632   2.038 -0.0002 -0.0499 -0.3540
11208SOL    HW143554   1.350  11.543   2.066  1.9636 -0.1439  0.8223
11208SOL    HW243555   1.295  11.684   2.070 -0.5509 -1.0353  0.0170
11209SOL     OW43556   2.404   9.870   1.208 -1.0927  0.4949  0.2040
11209SOL    HW143557   2.428   9.834   1.293 -0.1056  0.8768  0.0917
11209SOL    HW243558   2.324   9.822   1.184  0.5985 -2.2585 -0.3345
11210SOL     OW43559  11.135   6.909   4.645  0.4178  0.2731  0.5931
11210SOL    HW143560  11.074   6.979   4.621  0.8082  0.5029  0.2532
11210SOL    HW243561  11.095   6.868   4.722 -0.6644 -0.2371 -0.2102
11211SOL     OW43562   9.926   4.397   4.819 -0.3370 -0.2983  0.1631
11211SOL    HW143563   9.936   4.488   4.846 -0.4720 -0.5302  1.0316
11211SOL    HW243564   9.863   4.400   4.747 -0.6909  0.2491  0.4861
11212SOL     OW43565  12.014   1.375   2.176  0.1366 -0.1347  0.0662
11212SOL    HW143566  12.071   1.446   2.205 -1.6165  0.5235  2.1738
11212SOL    HW243567  12.034   1.365   2.082  0.6741  2.9177 -0.2503
11213SOL     OW43568   7.873   7.836   1.236  0.0233 -0.0759  0.1429
11213SOL    HW143569   7.805   7.901   1.250  0.8480  0.5104  1.8272
11213SOL    HW243570   7.898   7.809   1.325  0.7555 -1.5681 -0.4831
11214SOL     OW43571   7.781  10.640   2.045 -0.4892  0.2256  0.3173
11214SOL    HW143572   7.753  10.553   2.074 -1.4171 -0.2726 -1.9094
11214SOL    HW243573   7.729  10.701   2.098 -1.6564 -0.6192  0.1846
11215SOL     OW43574  10.116   0.784   2.300  0.3545 -0.0284 -0.1402
11215SOL    HW143575  10.130   0.850   2.232  0.3939 -1.7302 -1.8525
11215SOL    HW243576  10.196   0.732   2.301  0.3038 -0.1156  1.1465
11216SOL     OW43577   4.889   7.333   2.612 -0.3337 -0.2445 -0.2529
11216SOL    HW143578   4.920   7.304   2.527 -1.9672 -1.1129 -0.5937
11216SOL    HW243579   4.852   7.254   2.653 -2.5079  0.7519 -0.1157
11217SOL     OW43580  11.796   0.876  12.551  0.5555  0.1032 -0.4589
11217SOL    HW143581  11.799   0.967  12.520 -0.3568 -0.2874 -1.7763
11217SOL    HW243582  11.844   0.827  12.485 -0.4971 -0.6024 -0.7281
11218SOL     OW43583   4.565   1.466   5.216 -0.4563 -0.6617 -0.3349
11218SOL    HW143584   4.557   1.419   5.299 -0.4489 -0.4118 -0.1905
11218SOL    HW243585   4.476   1.471   5.182 -0.6743  0.4834  0.3580
11219SOL     OW43586   6.883  10.771   2.418  0.9397 -0.3761  0.2454
11219SOL    HW143587   6.932  10.690   2.405 -1.1406 -1.5648 -0.5974
11219SOL    HW243588   6.850  10.765   2.508  0.7620 -0.4902  0.1736
11220SOL     OW43589   9.056  13.181  12.335  0.0860 -0.4738 -0.1565
11220SOL    HW143590   9.058  13.111  12.270  1.1474 -0.2262 -0.4013
11220SOL    HW243591   9.146  13.189  12.365  0.1303  1.2244 -0.6095
11221SOL     OW43592   0.937   6.294   4.651 -0.0157 -0.3290 -0.0797
11221SOL    HW143593   0.928   6.318   4.559  0.8961 -0.4615 -0.2138
11221SOL    HW243594   1.025   6.324   4.675 -0.3131 -0.1296  0.7999
11222SOL     OW43595   1.635  13.127   7.661  0.0817 -0.3926  0.4439
11222SOL    HW143596   1.722  13.096   7.634  0.1717 -0.3155  0.6430
11222SOL    HW243597   1.628  13.103   7.753  0.0245 -0.1061  0.5152
11223SOL     OW43598   1.715   7.168   3.168 -0.0767  0.1768 -0.1699
11223SOL    HW143599   1.722   7.238   3.103 -1.8483  0.0594 -0.5408
11223SOL    HW243600   1.789   7.110   3.150  0.5030  1.1191 -0.8761
11224SOL     OW43601  12.616   6.990   3.808  0.3357  0.2524 -0.1824
11224SOL    HW143602  12.674   6.944   3.748 -1.9089 -2.7507 -0.2756
11224SOL    HW243603  12.549   7.030   3.752 -0.3810 -0.4471  0.1579
11225SOL     OW43604   1.901  10.635   4.793 -0.4593  0.2136 -0.1186
11225SOL    HW143605   1.856  10.675   4.868 -0.9874  0.1062 -0.3756
11225SOL    HW243606   1.990  10.619   4.825  0.0337  2.3207 -0.2396
11226SOL     OW43607   4.324   7.930   4.989  0.1517 -0.4125  0.3785
11226SOL    HW143608   4.278   7.948   5.072 -1.0767 -1.3797 -0.0442
11226SOL    HW243609   4.255   7.899   4.930  1.1793 -0.7762 -0.6773
11227SOL     OW43610   4.417   7.329   9.940  0.5183 -0.6521 -0.3696
11227SOL    HW143611   4.432   7.405   9.885 -0.2765 -0.8050 -0.8150
11227SOL    HW243612   4.397   7.365  10.027  1.2910 -0.4012 -0.2853
11228SOL     OW43613   5.270  12.559  11.889 -0.0484  0.3380 -0.1888
11228SOL    HW143614   5.292  12.598  11.804  1.0892 -1.6522 -0.8672
11228SOL    HW243615   5.194  12.503  11.872 -1.0614  1.4323  0.5653
11229SOL     OW43616   2.497   4.015  12.529 -0.3771 -0.2290 -0.1397
11229SOL    HW143617   2.439   3.990  12.601  0.4346 -0.4175  0.4624
11229SOL    HW243618   2.520   4.106  12.548  0.9963 -0.7181  0.6549
11230SOL     OW43619   3.021  11.470   6.006 -0.3024 -0.2031  0.0113
11230SOL    HW143620   2.962  11.540   5.978  0.9526  1.4828  1.3272
11230SOL    HW243621   2.965  11.406   6.049 -1.4839  0.0139 -1.1471
11231SOL     OW43622   7.991   7.386   7.225 -0.4339 -0.0977 -0.0827
11231SOL    HW143623   8.070   7.369   7.275  0.0815  0.6713 -0.6294
11231SOL    HW243624   8.005   7.341   7.141 -0.2043  0.7360 -0.5039
11232SOL     OW43625   9.668  10.068   3.052 -0.2276 -0.5805 -0.6796
11232SOL    HW143626   9.669  10.110   2.966  1.3419  1.5830  0.3149
11232SOL    HW243627   9.759  10.046   3.070 -0.0011  1.7931  1.6594
11233SOL     OW43628  10.539   1.072  12.503 -0.0318 -0.1890 -0.1167
11233SOL    HW143629  10.607   1.131  12.538  0.4908 -0.9112  0.1168
11233SOL    HW243630  10.584   0.988  12.494 -0.9216 -0.6887  0.0830
11234SOL     OW43631   1.977   3.183  12.508  0.0939 -0.3462 -0.1654
11234SOL    HW143632   1.999   3.171  12.600  2.6853 -2.2836 -0.8950
11234SOL    HW243633   1.894   3.137  12.497  0.0566 -0.6166  1.0841
11235SOL     OW43634   0.243   9.637   0.322 -0.2295 -0.0774  0.3993
11235SOL    HW143635   0.316   9.582   0.291 -0.4118 -0.6285  0.9333
11235SOL    HW243636   0.203   9.586   0.392 -0.7956  0.4695  0.4773
11236SOL     OW43637  11.937   6.343   4.843 -0.5721 -0.2627 -0.4234
11236SOL    HW143638  11.951   6.416   4.904  1.1447 -1.1584  0.3273
11236SOL    HW243639  11.992   6.364   4.768 -0.8030 -0.3315 -0.6120
11237SOL     OW43640  10.377   3.707   8.500 -0.0438  0.2132 -0.1022
11237SOL    HW143641  10.339   3.761   8.431 -1.2378  1.1502  1.2303
11237SOL    HW243642  10.302   3.659   8.537  0.3587  0.6173  1.2957
11238SOL     OW43643   6.281   0.480  13.117  0.2963 -0.3502 -0.0449
11238SOL    HW143644   6.304   0.570  13.136 -0.8640 -0.1499  0.5524
11238SOL    HW243645   6.356   0.429  13.146  0.5718  0.3553  0.5058
11239SOL     OW43646   5.037   0.247  12.081  0.5516 -0.0252 -0.0421
11239SOL    HW143647   4.986   0.218  12.005  0.2163  1.7167 -0.5247
11239SOL    HW243648   5.128   0.237  12.054  0.4356  0.1732 -0.5172
11240SOL     OW43649   4.512   6.333  13.051 -0.1830  0.3179  0.3332
11240SOL    HW143650   4.441   6.279  13.017  0.8504 -0.9033  0.0299
11240SOL    HW243651   4.559   6.363  12.973  0.5887 -0.2410  0.5722
11241SOL     OW43652  10.575   8.198  11.972  0.6477  0.8678 -0.4778
11241SOL    HW143653  10.616   8.114  11.994 -1.4668 -0.2945 -0.6356
11241SOL    HW243654  10.528   8.223  12.052 -1.0946  0.3718 -1.3028
11242SOL     OW43655   6.881  13.045   5.156  0.5209  0.0038 -0.1249
11242SOL    HW143656   6.976  13.042   5.158  0.5018 -2.8327  0.3066
11242SOL    HW243657   6.853  12.973   5.212 -1.9539  1.9175  1.3733
11243SOL     OW43658   7.917   4.124   1.449  0.1946  0.1502  0.6095
11243SOL    HW143659   7.851   4.184   1.484  0.8780  1.3899 -0.1297
11243SOL    HW243660   8.001   4.168   1.465  0.5825  0.4254 -1.7983
11244SOL     OW43661  10.327   9.649  10.847  0.4062  0.0458  0.0241
11244SOL    HW143662  10.301   9.557  10.851 -0.6539  0.2903 -0.8184
11244SOL    HW243663  10.282   9.689  10.922 -1.0537  0.3094 -0.9600
11245SOL     OW43664   6.302   6.490   0.584  0.0294 -0.0649 -0.1811
11245SOL    HW143665   6.397   6.503   0.587 -0.1013  0.7110  0.9408
11245SOL    HW243666   6.285   6.461   0.494  1.5690 -2.2863  0.1818
11246SOL     OW43667   4.361   2.642   0.959 -0.5578  0.6176 -0.2405
11246SOL    HW143668   4.360   2.547   0.953 -0.4392  0.5142  1.0171
11246SOL    HW243669   4.427   2.661   1.025 -1.1826  1.5182  0.1493
11247SOL     OW43670   7.387   6.910   8.448  0.0232 -0.0555 -0.5106
11247SOL    HW143671   7.390   6.950   8.361  0.9280 -0.4138 -0.6491
11247SOL    HW243672   7.349   6.824   8.433 -0.0664 -0.0162 -0.5122
11248SOL     OW43673   7.789  12.386   0.476 -0.0086  0.0281 -0.3599
11248SOL    HW143674   7.732  12.325   0.429 -0.2997  0.1287 -0.1341
11248SOL    HW243675   7.878  12.357   0.453 -0.1425 -0.5577 -0.1657
11249SOL     OW43676   0.427   4.769   2.016  0.3278  0.9800  0.4847
11249SOL    HW143677   0.501   4.724   2.055  0.3832  1.4354  0.9153
11249SOL    HW243678   0.388   4.819   2.088 -1.4328 -0.5588  0.6793
11250SOL     OW43679   0.610  10.959   7.163  0.3286 -0.2202  0.0646
11250SOL    HW143680   0.551  10.928   7.095  1.4594 -1.6814 -0.2986
11250SOL    HW243681   0.579  11.048   7.183 -0.2606  0.1095 -2.0866
11251SOL     OW43682   4.284   0.372  10.375  0.5728 -0.3439 -0.6209
11251SOL    HW143683   4.266   0.354  10.283  0.7789  0.1821 -0.7678
11251SOL    HW243684   4.258   0.292  10.421 -1.2380  0.0268 -0.9215
11252SOL     OW43685   5.332   5.457   0.789  0.7448 -0.3505  0.4934
11252SOL    HW143686   5.404   5.486   0.732  0.5099 -2.5460 -1.0366
11252SOL    HW243687   5.361   5.374   0.825 -0.0723 -0.0969  1.8237
11253SOL     OW43688   9.952   1.820  12.062 -0.2674 -0.4331 -0.4872
11253SOL    HW143689   9.928   1.766  12.137 -0.0324  0.4933  0.2875
11253SOL    HW243690   9.958   1.909  12.098  2.1019 -0.2772 -1.0646
11254SOL     OW43691   3.063   4.535   8.844  0.5897 -0.1075 -0.0638
11254SOL    HW143692   3.119   4.610   8.862  0.0461  0.3188 -0.1274
11254SOL    HW243693   3.096   4.467   8.903  0.4026  0.5117  0.7853
11255SOL     OW43694   2.506   2.537   9.415 -0.1251  0.3433 -0.0070
11255SOL    HW143695   2.593   2.542   9.454  0.0596  3.7984 -0.5223
11255SOL    HW243696   2.448   2.517   9.489  0.8686  0.4006  0.8100
11256SOL     OW43697  10.085   9.277   7.309 -0.0945  0.4621 -0.7556
11256SOL    HW143698  10.040   9.361   7.303  1.0884  1.0354 -2.4651
11256SOL    HW243699  10.165   9.296   7.358 -0.0827  0.2235 -0.6806
11257SOL     OW43700   9.446   5.840  10.575 -0.2945 -0.2924 -0.2491
11257SOL    HW143701   9.388   5.843  10.652 -0.4020  2.7596 -0.3278
11257SOL    HW243702   9.391   5.805  10.505 -1.2196 -0.0099  0.3187
11258SOL     OW43703   8.311  12.586   1.401  0.2775 -0.0984  0.0271
11258SOL    HW143704   8.245  12.591   1.470  0.1313  1.7936 -0.1938
11258SOL    HW243705   8.273  12.633   1.327  0.7980 -1.3218 -1.0531
11259SOL     OW43706   8.275   2.643   1.343  0.0013 -0.0450 -0.4385
11259SOL    HW143707   8.338   2.713   1.327 -1.7406  1.7235  0.1009
11259SOL    HW243708   8.310   2.568   1.295  2.0599  1.1000 -0.8389
11260SOL     OW43709   7.083  10.590   4.395  0.1664 -0.6352 -0.0440
11260SOL    HW143710   7.090  10.505   4.439 -0.7646  0.3527  2.1993
11260SOL    HW243711   7.148  10.645   4.440 -0.8600  0.4434  0.1674
11261SOL     OW43712   8.737   1.810  11.288 -0.3366  0.1916 -0.4538
11261SOL    HW143713   8.719   1.889  11.339 -1.9600 -0.4707  0.0584
11261SOL    HW243714   8.693   1.740  11.336 -0.4205 -0.7377 -1.8318
11262SOL     OW43715   3.868   4.717   2.945 -0.3590  0.4315  0.3329
11262SOL    HW143716   3.887   4.623   2.948  1.8018  0.7644 -0.8322
11262SOL    HW243717   3.894   4.749   3.031 -0.2378  0.0967  0.4228
11263SOL     OW43718   6.230   3.113   0.058 -0.2424 -0.4586 -0.1583
11263SOL    HW143719   6.275   3.087  -0.022 -0.8933  1.0064 -1.0528
11263SOL    HW243720   6.165   3.178   0.029 -0.0080  0.6636  1.6375
11264SOL     OW43721  10.864   9.942   8.623 -0.3258  0.2701 -0.1190
11264SOL    HW143722  10.875   9.860   8.671  3.0604  1.0833  0.7847
11264SOL    HW243723  10.936   9.942   8.560 -2.4347  0.9574 -2.7271
11265SOL     OW43724   1.835   0.760   3.424 -0.4504  0.0042  0.5915
11265SOL    HW143725   1.918   0.751   3.376 -0.4948  0.6428  0.3955
11265SOL    HW243726   1.826   0.677   3.471  0.2518 -0.1114  0.5355
11266SOL     OW43727  11.181   8.427   1.228  0.0183 -0.4544 -0.6200
11266SOL    HW143728  11.126   8.348   1.230  0.1033 -0.5407 -1.5436
11266SOL    HW243729  11.124   8.497   1.259 -0.1703 -0.8064 -0.1525
11267SOL     OW43730   0.536  12.556   2.435  0.0835 -0.8628  0.6027
11267SOL    HW143731   0.548  12.647   2.406 -2.2135 -0.5111  0.5314
11267SOL    HW243732   0.618  12.513   2.413  1.0139  1.0516  0.0666
11268SOL     OW43733   7.837   7.330   6.270  0.3026 -0.4682 -0.0644
11268SOL    HW143734   7.813   7.251   6.222  0.1525 -0.4802  0.0279
11268SOL    HW243735   7.925   7.312   6.303  1.0860  0.1947 -1.7213
11269SOL     OW43736   4.903   7.699   8.244  0.1322  0.0125  0.2221
11269SOL    HW143737   4.952   7.778   8.267 -0.2666  0.5793 -0.8237
11269SOL    HW243738   4.951   7.628   8.287  0.5128  0.8106  1.1571
11270SOL     OW43739   5.062   6.800   6.562  0.0427  0.2279  0.1138
11270SOL    HW143740   5.142   6.754   6.538 -0.1686 -0.8474  1.3712
11270SOL    HW243741   5.007   6.795   6.484  1.3602  1.4456 -0.9610
11271SOL     OW43742   0.153   2.702   5.848 -0.1921  0.0489  0.3723
11271SOL    HW143743   0.234   2.659   5.875 -1.4553 -0.8412  3.0119
11271SOL    HW243744   0.101   2.633   5.807 -0.7990 -0.1351  1.4204
11272SOL     OW43745   7.929  11.134   3.084 -0.0919 -0.0948  0.6417
11272SOL    HW143746   7.841  11.145   3.049  0.0558 -0.3416  0.1690
11272SOL    HW243747   7.925  11.168   3.173 -0.1020  1.9921 -0.1103
11273SOL     OW43748   1.187   2.071  10.198  0.1793 -0.3376  0.2315
11273SOL    HW143749   1.216   1.992  10.242 -0.8538 -0.0476  1.4933
11273SOL    HW243750   1.266   2.126  10.193  1.4089 -2.0825 -2.3569
11274SOL     OW43751   4.716   2.077   2.061  0.5584  0.0103 -0.2092
11274SOL    HW143752   4.708   2.171   2.048  0.4940 -0.2720 -2.6206
11274SOL    HW243753   4.801   2.054   2.023  0.6936 -0.8772  0.5849
11275SOL     OW43754   4.432   2.627   5.478  0.4037 -0.1832  0.0580
11275SOL    HW143755   4.363   2.567   5.506 -1.1205  0.7039 -1.6045
11275SOL    HW243756   4.509   2.600   5.529 -1.3463 -0.6094  2.7102
11276SOL     OW43757   3.635   0.982   6.402 -0.0238 -0.2285  0.2994
11276SOL    HW143758   3.658   0.989   6.495  2.7229 -1.6100 -0.1650
11276SOL    HW243759   3.716   0.953   6.359 -0.3116  3.1402 -3.0256
11277SOL     OW43760   4.892   8.249  10.661 -0.2133  0.7031  0.0736
11277SOL    HW143761   4.824   8.259  10.728  0.5411  0.6302  0.8755
11277SOL    HW243762   4.958   8.315  10.684  1.2943 -1.0330  0.9946
11278SOL     OW43763  10.033   0.969   4.557 -0.1236  0.2090 -0.5048
11278SOL    HW143764  10.070   0.929   4.636 -1.5220  0.5226  0.3398
11278SOL    HW243765  10.045   1.063   4.569  0.9220  0.2027 -1.3411
11279SOL     OW43766   0.522   6.636   1.078 -0.4143 -0.2344 -0.1172
11279SOL    HW143767   0.471   6.631   1.159  0.4778 -0.2216  0.4550
11279SOL    HW243768   0.603   6.680   1.103  0.2192 -0.9509 -0.8518
11280SOL     OW43769   7.370   2.274   3.314  0.4171 -0.4169  0.1211
11280SOL    HW143770   7.345   2.366   3.325  2.0916 -0.1070  2.0045
11280SOL    HW243771   7.446   2.263   3.372  0.0931 -3.0563  0.1685
11281SOL     OW43772   8.254   2.768  12.880 -0.0115 -0.1585  0.4828
11281SOL    HW143773   8.193   2.818  12.934  1.2035  1.3459  0.5498
11281SOL    HW243774   8.276   2.692  12.934 -2.0513 -0.9380  0.2973
11282SOL     OW43775   1.992   2.871   7.357  0.6579  0.0037 -0.3598
11282SOL    HW143776   2.038   2.804   7.408  0.6349  0.6095  0.4719
11282SOL    HW243777   1.990   2.948   7.414 -0.3641  0.3518 -0.8439
11283SOL     OW43778   9.522   8.785   2.015  0.4137 -0.4408  0.1585
11283SOL    HW143779   9.595   8.738   2.055 -0.1598 -1.4102  0.0895
11283SOL    HW243780   9.563   8.860   1.972  1.3243 -0.7663  0.4396
11284SOL     OW43781  11.497  12.048  11.117  0.4151 -0.2281 -0.2437
11284SOL    HW143782  11.436  12.012  11.053 -1.3857 -2.0379  2.3110
11284SOL    HW243783  11.462  12.021  11.202  3.7464  0.3180  1.4762
11285SOL     OW43784  10.630   6.940   8.359 -0.4289 -0.6077  0.2203
11285SOL    HW143785  10.661   6.989   8.435 -0.0897 -0.4064 -0.0441
11285SOL    HW243786  10.667   6.987   8.284  0.3255 -1.5508 -0.0218
11286SOL     OW43787  10.566   4.073   0.078  0.0619 -0.2195 -0.7225
11286SOL    HW143788  10.540   4.145   0.021 -0.3544  0.3605  0.1782
11286SOL    HW243789  10.611   4.115   0.151  2.7307 -1.1331 -1.7425
11287SOL     OW43790   2.018   7.664   7.798  0.6904 -0.0550  0.3397
11287SOL    HW143791   2.104   7.634   7.770  1.6668  0.7033  2.3338
11287SOL    HW243792   1.989   7.599   7.862  0.4394  0.4655  0.7624
11288SOL     OW43793   7.679   8.653   9.094 -0.5015  0.5092  0.5738
11288SOL    HW143794   7.633   8.699   9.165  0.8699  0.0874  1.8036
11288SOL    HW243795   7.715   8.723   9.040  0.3646  0.9246  1.6292
11289SOL     OW43796  10.415   6.971   9.899 -0.1829  0.2417  0.1781
11289SOL    HW143797  10.345   6.998   9.839 -0.3672  0.1449  0.3474
11289SOL    HW243798  10.457   6.898   9.854  0.0532  0.5490 -0.0972
11290SOL     OW43799   8.965  10.652   9.737 -0.6094 -0.3264  0.1971
11290SOL    HW143800   8.939  10.572   9.691  0.5342 -0.0537 -0.9947
11290SOL    HW243801   9.046  10.679   9.693  0.9536 -0.4240  2.8085
11291SOL     OW43802   5.288  11.459  10.184  0.3687  0.0803 -0.2576
11291SOL    HW143803   5.330  11.473  10.099  0.2270  1.9731 -0.0507
11291SOL    HW243804   5.359  11.468  10.247 -0.0299  1.8500 -0.0038
11292SOL     OW43805   4.504   9.794  11.591  0.5862 -0.1171  0.2525
11292SOL    HW143806   4.567   9.864  11.573  2.3475 -1.5333  0.5993
11292SOL    HW243807   4.463   9.819  11.674  0.4057  1.0117 -0.1671
11293SOL     OW43808  10.364  12.257  10.447 -0.4117  0.0208  0.1239
11293SOL    HW143809  10.424  12.303  10.505 -0.5511 -1.3276  1.3962
11293SOL    HW243810  10.279  12.261  10.492 -0.8211  0.1093 -0.6439
11294SOL     OW43811   5.338  11.214  11.910  0.5644  0.0210  0.0734
11294SOL    HW143812   5.425  11.207  11.869  0.2742  0.7414 -0.6988
11294SOL    HW243813   5.343  11.295  11.961  0.5334 -0.2438  0.4964
11295SOL     OW43814   8.281   6.441   3.132 -0.1571  0.2285 -0.2420
11295SOL    HW143815   8.364   6.409   3.167 -0.9004 -0.2516  1.1514
11295SOL    HW243816   8.278   6.406   3.043  0.4657 -1.0105  0.1939
11296SOL     OW43817  11.368   1.843   8.545 -0.3288  0.5355 -0.9538
11296SOL    HW143818  11.400   1.864   8.633 -1.1502 -1.1053 -0.2150
11296SOL    HW243819  11.422   1.896   8.486 -0.8330  2.9182  0.5930
11297SOL     OW43820   8.192   0.877   3.164 -0.2029 -0.8203 -0.3510
11297SOL    HW143821   8.122   0.940   3.147  0.2995 -0.3897 -0.8444
11297SOL    HW243822   8.272   0.928   3.161  0.0848 -1.1020  1.3078
11298SOL     OW43823   0.834  12.970   2.676 -0.3834  0.0364 -0.1624
11298SOL    HW143824   0.863  12.975   2.767  0.5973  1.8783 -0.5244
11298SOL    HW243825   0.864  13.052   2.636 -0.6704 -0.7665 -2.1874
11299SOL     OW43826  12.464   8.865   8.916  0.0576  0.4830 -0.1828
11299SOL    HW143827  12.532   8.933   8.920 -0.2966  0.7854  0.9860
11299SOL    HW243828  12.389   8.908   8.875  0.1985  0.4784 -0.4473
11300SOL     OW43829   2.485   4.671   4.060 -0.2367 -0.3417 -0.1624
11300SOL    HW143830   2.405   4.666   4.009  0.1501  1.9800 -1.1190
11300SOL    HW243831   2.552   4.700   3.997  0.9205 -0.3248  1.0256
11301SOL     OW43832   4.339   1.345   2.222 -0.1306 -0.0214 -0.1792
11301SOL    HW143833   4.280   1.411   2.184 -1.3871 -0.2762  1.2597
11301SOL    HW243834   4.397   1.396   2.279 -0.1125  0.0111 -0.2259
11302SOL     OW43835  13.020  11.137   8.378 -0.2026 -0.4993  0.1996
11302SOL    HW143836  12.931  11.108   8.356 -0.3182  0.5593 -0.8319
11302SOL    HW243837  13.007  11.214   8.434  0.0670 -0.6727  0.5004
11303SOL     OW43838   0.123   5.690   9.906 -0.4261 -0.1016 -0.6219
11303SOL    HW143839   0.209   5.648   9.905 -0.1643  0.4243 -1.0360
11303SOL    HW243840   0.123   5.744   9.985  0.0586  0.7404 -1.1734
11304SOL     OW43841   8.111  10.060   0.530 -0.1498 -0.3828  0.1241
11304SOL    HW143842   8.143  10.098   0.448  2.7286  0.0940  1.3340
11304SOL    HW243843   8.187  10.011   0.564 -1.1231 -0.2757  2.6520
11305SOL     OW43844   9.503   5.087   4.642  0.1688  0.5610  0.4581
11305SOL    HW143845   9.504   5.180   4.668  1.5382  0.5672  0.4485
11305SOL    HW243846   9.437   5.083   4.573 -0.6414  1.3268  1.1598
11306SOL     OW43847   7.099   0.804   8.557  0.0246  0.0398 -0.2056
11306SOL    HW143848   7.106   0.885   8.507  2.0395  1.1623  1.6910
11306SOL    HW243849   7.187   0.767   8.553 -0.6269 -1.5775 -0.2140
11307SOL     OW43850  10.866   9.149   8.824 -0.2144 -0.4771 -0.6464
11307SOL    HW143851  10.827   9.068   8.791  0.8867 -0.4082 -2.2140
11307SOL    HW243852  10.871   9.206   8.748 -0.1826  0.7762  0.2581
11308SOL     OW43853   2.675   1.386  12.866 -0.4336  0.0359  0.0130
11308SOL    HW143854   2.607   1.409  12.803  0.0657 -1.0053 -0.9414
11308SOL    HW243855   2.655   1.296  12.891 -0.7923  0.5317  1.6014
11309SOL     OW43856   6.028   2.928   6.311  0.2327  0.9122 -0.7027
11309SOL    HW143857   6.040   2.983   6.234 -0.1775  1.8655 -0.1014
11309SOL    HW243858   5.938   2.896   6.304  1.1951 -1.7627 -2.3417
11310SOL     OW43859  12.042   2.171   7.342  0.0279  0.1410 -0.1837
11310SOL    HW143860  12.128   2.183   7.381  0.1222  0.6172 -0.5376
11310SOL    HW243861  11.983   2.218   7.401 -0.5177 -2.9941  2.0205
11311SOL     OW43862   3.911   2.951   0.927 -0.3368 -0.1314 -0.7244
11311SOL    HW143863   3.990   2.898   0.938 -0.6575 -1.0633 -2.5709
11311SOL    HW243864   3.943   3.034   0.890  0.0515  0.6827  1.2736
11312SOL     OW43865   4.718   3.577   0.867 -0.0867  0.1023  0.3037
11312SOL    HW143866   4.654   3.512   0.894  1.5695 -1.0308  1.6798
11312SOL    HW243867   4.729   3.633   0.944 -0.4379  1.1679 -0.3983
11313SOL     OW43868  13.079   6.901   4.911  0.2891 -0.4950 -0.4384
11313SOL    HW143869  12.992   6.877   4.943  0.4017  0.2092  0.4358
11313SOL    HW243870  13.062   6.964   4.841  0.0891 -0.6690 -0.5479
11314SOL     OW43871  11.178   0.211   4.380  0.5376  0.2299  0.1933
11314SOL    HW143872  11.225   0.292   4.400  1.3890 -0.3712  0.6693
11314SOL    HW243873  11.091   0.225   4.417  0.8421  0.7224  0.7540
11315SOL     OW43874  11.088   7.958  10.009  0.2787  0.0807 -0.0723
11315SOL    HW143875  11.179   7.987  10.010  0.4968 -0.5874  1.1430
11315SOL    HW243876  11.076   7.919   9.923  1.3941 -0.5694  0.0506
11316SOL     OW43877   5.924  11.328   7.908 -0.0003  0.3748 -0.3255
11316SOL    HW143878   5.942  11.234   7.905  0.2665  0.4318 -0.4954
11316SOL    HW243879   5.997  11.369   7.861 -1.1024  0.5407 -1.9612
11317SOL     OW43880   2.824   6.584  12.818 -0.3360  0.2348 -0.3914
11317SOL    HW143881   2.754   6.643  12.844 -0.0271  0.5610 -0.2987
11317SOL    HW243882   2.848   6.538  12.898 -0.7102 -0.1584 -0.5044
11318SOL     OW43883   3.097  11.850   5.891  0.2796 -0.0198  0.4139
11318SOL    HW143884   3.126  11.939   5.871  0.6560 -0.4923 -1.3649
11318SOL    HW243885   3.159  11.819   5.957 -0.3790  1.3106  1.6951
11319SOL     OW43886   7.347   5.489   4.898  0.5506  0.0302 -0.8643
11319SOL    HW143887   7.315   5.430   4.829  0.4099  1.0665 -1.7093
11319SOL    HW243888   7.423   5.531   4.860  1.0211 -0.0471 -0.0344
11320SOL     OW43889   1.927   0.010   4.127  0.3816 -0.4479 -0.4579
11320SOL    HW143890   1.928   0.069   4.051 -0.5899 -0.5178 -0.5397
11320SOL    HW243891   1.991  -0.057   4.106  2.1937  1.0380  0.0258
11321SOL     OW43892   4.091   9.445   7.041  0.1780 -0.4643  0.4638
11321SOL    HW143893   4.005   9.449   6.999  0.2257 -1.8264  0.1849
11321SOL    HW243894   4.085   9.372   7.102  0.6733  0.3821  1.5597
11322SOL     OW43895  13.169   0.467   6.658  0.0824  0.5184 -0.0419
11322SOL    HW143896  13.187   0.561   6.649  0.4727  0.7950  2.6116
11322SOL    HW243897  13.148   0.437   6.570  1.4942  2.7725 -1.2262
11323SOL     OW43898  12.981   5.497   5.488 -0.2745  0.3655 -0.0640
11323SOL    HW143899  12.948   5.564   5.547 -0.6613 -1.1492  1.5201
11323SOL    HW243900  13.072   5.522   5.473  0.0207  0.5019  1.6812
11324SOL     OW43901   1.899   3.601   6.216  0.0204 -0.0727 -0.0756
11324SOL    HW143902   1.815   3.628   6.180  0.0345  0.8365  0.5101
11324SOL    HW243903   1.938   3.683   6.249  1.0148 -0.5151 -0.1068
11325SOL     OW43904   3.000   7.332   9.901  0.4314 -0.1390  0.0455
11325SOL    HW143905   3.010   7.399   9.968 -0.5125  1.5339 -1.4029
11325SOL    HW243906   2.949   7.263   9.943  0.1331  0.7148  1.1299
11326SOL     OW43907   0.493   8.938   2.824  0.3067  0.3573 -0.4819
11326SOL    HW143908   0.506   8.859   2.771 -0.9200 -1.4291  1.7028
11326SOL    HW243909   0.423   8.915   2.885 -0.0999  3.1783  0.2520
11327SOL     OW43910   6.219   0.075   9.583 -0.0167 -0.5564  0.1863
11327SOL    HW143911   6.261   0.103   9.502 -1.7965 -0.2933 -0.7135
11327SOL    HW243912   6.285   0.023   9.629  0.8929 -1.0897 -1.6367
11328SOL     OW43913   5.567   3.613   0.680  0.2189 -0.0617  0.0012
11328SOL    HW143914   5.588   3.546   0.745  0.5768  0.9631  0.9761
11328SOL    HW243915   5.647   3.623   0.628  1.2415  1.6872  1.7750
11329SOL     OW43916  10.459   2.570   6.175 -0.1177  0.5497 -0.0625
11329SOL    HW143917  10.496   2.636   6.234 -1.1105  1.9969 -1.0152
11329SOL    HW243918  10.364   2.578   6.185 -0.2702 -0.2692 -0.6968
11330SOL     OW43919   1.235   7.995   5.128  0.2556 -0.7032 -0.4978
11330SOL    HW143920   1.178   8.024   5.200  1.1364  0.5980 -0.2939
11330SOL    HW243921   1.237   7.899   5.136  0.5599 -0.5785  1.3987
11331SOL     OW43922   8.871   3.275   1.868  0.4194 -0.5243  0.0338
11331SOL    HW143923   8.836   3.319   1.946  0.7639 -1.6249  0.8332
11331SOL    HW243924   8.797   3.222   1.836  0.2205  0.0699 -0.5103
11332SOL     OW43925   3.447   4.848   8.795 -0.1076 -0.0205  0.1851
11332SOL    HW143926   3.450   4.755   8.772 -0.4078  0.0209 -0.0245
11332SOL    HW243927   3.538   4.877   8.789 -0.2355  0.1327 -1.5151
11333SOL     OW43928  10.372  11.463  13.179 -0.2792 -0.7062  0.0588
11333SOL    HW143929  10.313  11.534  13.207 -0.5164 -1.0965  0.5739
11333SOL    HW243930  10.458  11.491  13.210 -0.1940 -0.1492 -0.6647
11334SOL     OW43931   0.407  12.703   3.733 -0.3999 -0.0327 -0.4199
11334SOL    HW143932   0.446  12.624   3.695 -1.6496 -1.0483  0.3218
11334SOL    HW243933   0.317  12.703   3.701 -0.8459  0.2657  0.7955
11335SOL     OW43934   4.676  13.057   3.721  0.2900 -0.3845  0.1322
11335SOL    HW143935   4.677  13.088   3.630 -0.2483  0.6347  0.4584
11335SOL    HW243936   4.719  13.126   3.771  0.6080 -0.9535  0.6561
11336SOL     OW43937   7.177   0.522   0.882 -0.1590  0.6343  0.2239
11336SOL    HW143938   7.138   0.439   0.854  1.8223 -0.0360 -0.7192
11336SOL    HW243939   7.149   0.532   0.973 -1.4698 -0.4088 -0.0326
11337SOL     OW43940  12.435   2.146   2.389 -0.2179 -0.3304  0.0286
11337SOL    HW143941  12.512   2.092   2.375  0.0846 -0.3669  1.6609
11337SOL    HW243942  12.403   2.166   2.301  1.9846  0.2042 -0.7116
11338SOL     OW43943   4.802  12.905   9.892 -0.2046  0.0800 -0.3638
11338SOL    HW143944   4.896  12.923   9.900  0.4054 -2.9856  0.3536
11338SOL    HW243945   4.777  12.943   9.807  1.0738  2.9463  0.4010
11339SOL     OW43946   2.233   4.134  11.124 -0.0463 -0.2256  0.5845
11339SOL    HW143947   2.209   4.074  11.195  2.2836 -0.4390  1.2623
11339SOL    HW243948   2.270   4.077  11.056  0.2740  0.2516  0.3528
11340SOL     OW43949  12.166  10.643  11.260 -0.2342 -0.0442  0.4816
11340SOL    HW143950  12.209  10.608  11.182  1.7290  0.2500  1.3883
11340SOL    HW243951  12.236  10.656  11.323 -1.8521 -1.0674  2.6309
11341SOL     OW43952  10.010   9.505  11.979 -0.4046  0.2289  0.0515
11341SOL    HW143953  10.052   9.590  11.986 -0.2168  0.5247 -3.3021
11341SOL    HW243954   9.917   9.524  11.967 -0.8378 -0.2370  2.1764
11342SOL     OW43955   4.006   5.228   1.147  0.0300  0.4704  0.2722
11342SOL    HW143956   3.961   5.160   1.098  0.7431  0.2699 -0.1124
11342SOL    HW243957   3.936   5.281   1.184 -0.5246  0.2901 -0.4965
11343SOL     OW43958  10.101   3.881  11.367 -0.3043 -0.4348 -0.1379
11343SOL    HW143959  10.108   3.809  11.304  0.7880 -1.3149  0.9465
11343SOL    HW243960  10.063   3.842  11.446 -2.4242  0.8225 -0.4326
11344SOL     OW43961   4.587   7.156   1.388  0.1786 -0.2505  0.1775
11344SOL    HW143962   4.553   7.188   1.304  2.4400  0.5142 -0.5197
11344SOL    HW243963   4.593   7.061   1.377 -0.0523 -0.2133 -0.3231
11345SOL     OW43964   2.830   8.490   1.673  0.4514 -0.2752 -0.5605
11345SOL    HW143965   2.780   8.476   1.593 -1.2847 -2.0323  0.7313
11345SOL    HW243966   2.777   8.549   1.726  1.0957  0.0583 -0.2662
11346SOL     OW43967   0.473   9.227   3.751 -0.3224  0.9228 -0.2249
11346SOL    HW143968   0.481   9.260   3.840 -0.1440  0.1125  0.0652
11346SOL    HW243969   0.546   9.166   3.742 -1.6883 -0.7969 -0.1255
11347SOL     OW43970   2.472   9.957   3.430 -0.2361 -0.2963  0.4391
11347SOL    HW143971   2.381   9.955   3.401 -0.2530  1.3726  0.2624
11347SOL    HW243972   2.516   9.890   3.379 -0.7738  0.9049 -1.7137
11348SOL     OW43973   6.847   8.243   3.126  0.1014 -0.1446 -0.7910
11348SOL    HW143974   6.774   8.299   3.153  1.3407  0.6473  1.0405
11348SOL    HW243975   6.813   8.154   3.136 -0.2701  0.1724  1.2637
11349SOL     OW43976   4.012   7.888  12.169 -0.4764 -0.7154  0.7393
11349SOL    HW143977   4.107   7.884  12.171 -0.4970 -1.1312  0.9331
11349SOL    HW243978   3.992   7.981  12.180 -0.0915 -0.6088  0.5525
11350SOL     OW43979   1.326   9.245   4.839 -0.1393 -0.1979  0.0634
11350SOL    HW143980   1.277   9.299   4.777 -2.1893  0.1768  1.8709
11350SOL    HW243981   1.264   9.177   4.866  1.3648 -1.5876  0.2220
11351SOL     OW43982   1.343  10.651   1.625 -0.0074 -0.0008  0.4420
11351SOL    HW143983   1.327  10.741   1.596  0.3808 -0.4629 -1.2974
11351SOL    HW243984   1.438  10.641   1.619  0.2255  0.1338  2.7981
11352SOL     OW43985   4.590   1.477   1.113 -0.6462 -0.1866  0.0993
11352SOL    HW143986   4.621   1.437   1.194 -0.4808  1.1472  0.7259
11352SOL    HW243987   4.503   1.509   1.134 -2.5567 -3.7523 -1.6065
11353SOL     OW43988  11.518  12.002   1.641 -0.0753  0.5580  0.2277
11353SOL    HW143989  11.602  12.047   1.650  0.0972  0.3010 -0.0878
11353SOL    HW243990  11.453  12.066   1.671  0.2728  0.5873  0.9460
11354SOL     OW43991   6.153   0.090   4.200  0.5152  0.5250 -0.0266
11354SOL    HW143992   6.242   0.088   4.235  0.4038 -1.2628  0.2548
11354SOL    HW243993   6.163   0.072   4.106  0.4904  0.7737 -0.0760
11355SOL     OW43994   8.513   9.649  11.674 -0.0645  0.0934  0.0454
11355SOL    HW143995   8.490   9.574  11.727  0.0283  0.7763  1.0781
11355SOL    HW243996   8.609   9.652  11.677 -0.0885  0.6161  0.5478
11356SOL     OW43997   4.219   3.642   8.366 -0.0488  0.2621 -0.0159
11356SOL    HW143998   4.249   3.666   8.278  0.8601 -0.3642  0.1069
11356SOL    HW243999   4.141   3.588   8.352  0.0577  0.2161 -0.4353
11357SOL     OW44000  10.807   0.545   2.571  0.4974 -0.5418 -0.0303
11357SOL    HW144001  10.732   0.485   2.574 -0.8855  1.0867 -0.3657
11357SOL    HW244002  10.799   0.597   2.651 -0.5961  1.7046 -1.4937
11358SOL     OW44003   0.008  12.216   9.384  0.1509 -0.3591 -0.1261
11358SOL    HW144004   0.015  12.302   9.425 -2.1762 -0.7045  1.1841
11358SOL    HW244005   0.090  12.206   9.335  1.3811  1.7340  1.3120
11359SOL     OW44006  11.829   2.642   7.100  0.3669  0.2998 -0.1850
11359SOL    HW144007  11.835   2.700   7.024  3.1623  0.1556 -0.1877
11359SOL    HW244008  11.754   2.585   7.082 -0.7204  2.0512 -1.5003
11360SOL     OW44009  10.010   9.872  11.032 -0.1736 -0.1630  0.2350
11360SOL    HW144010  10.055   9.916  10.960  1.2081 -0.0725  1.1088
11360SOL    HW244011  10.032   9.924  11.109  1.2095 -2.0841  1.2464
11361SOL     OW44012   5.318   1.168   0.996 -0.2656  1.0183 -0.6957
11361SOL    HW144013   5.238   1.134   1.037  0.7113 -1.9971 -1.0092
11361SOL    HW244014   5.301   1.159   0.902  0.1349  1.1245 -0.7768
11362SOL     OW44015   2.068   5.929   7.946 -0.3637  0.4070  0.0360
11362SOL    HW144016   2.147   5.971   7.912 -0.4303 -1.4696 -2.6739
11362SOL    HW244017   2.097   5.843   7.977 -1.2122  0.0097 -0.2425
11363SOL     OW44018   0.248  10.401   9.608 -0.2002  0.5067  0.0157
11363SOL    HW144019   0.175  10.462   9.603  0.2347  1.1754  1.4810
11363SOL    HW244020   0.307  10.429   9.538 -0.3947  1.2341  0.1368
11364SOL     OW44021   5.077  10.657   9.038 -0.2024 -0.0468 -0.6078
11364SOL    HW144022   5.020  10.618   8.972 -1.7717  2.2669 -0.7210
11364SOL    HW244023   5.018  10.701   9.099  1.3870  2.2928 -0.6184
11365SOL     OW44024   4.370   8.503   1.746 -0.3818 -0.1080  0.3452
11365SOL    HW144025   4.423   8.578   1.717 -0.2688 -0.6332 -0.8653
11365SOL    HW244026   4.313   8.484   1.671 -0.1463 -1.4587  0.4902
11366SOL     OW44027  11.072   5.241   7.534 -0.0020  0.2651  0.0437
11366SOL    HW144028  11.040   5.264   7.447  4.4184  1.8556 -1.4899
11366SOL    HW244029  11.115   5.156   7.521  1.8055  1.1067  0.2247
11367SOL     OW44030   9.677   6.213   2.037 -0.0729  0.8853 -0.3208
11367SOL    HW144031   9.658   6.295   2.081 -2.8878  0.5208 -0.6836
11367SOL    HW244032   9.641   6.146   2.095  2.2952 -0.1789  0.0396
11368SOL     OW44033   0.073  12.355  12.285 -0.1092 -0.3823  0.4982
11368SOL    HW144034   0.066  12.311  12.200 -1.4333 -0.6560  0.7326
11368SOL    HW244035   0.147  12.311  12.328 -1.4604 -2.5776  0.7828
11369SOL     OW44036   2.767   8.286   1.206  0.1436 -0.7672  0.7316
11369SOL    HW144037   2.843   8.244   1.246  0.2640 -1.0055  0.2632
11369SOL    HW244038   2.712   8.213   1.176  0.1927 -0.6026  0.2161
11370SOL     OW44039   3.957   1.129   0.121  0.4459 -0.3601  0.0608
11370SOL    HW144040   4.041   1.084   0.132  1.3580  0.5416 -2.4668
11370SOL    HW244041   3.975   1.219   0.147  0.3840 -0.0916 -0.7918
11371SOL     OW44042  10.313  12.820  10.411 -0.5537  0.3902 -0.0824
11371SOL    HW144043  10.260  12.898  10.394 -0.1819  0.3097 -1.8816
11371SOL    HW244044  10.249  12.751  10.428 -0.9555  0.7374 -0.1616
11372SOL     OW44045   6.212  12.447   2.645  0.2648  0.4208  0.2231
11372SOL    HW144046   6.270  12.371   2.636  0.5846  0.9030 -2.8481
11372SOL    HW244047   6.125  12.413   2.623  0.0535  0.5487  0.8429
11373SOL     OW44048   5.044  12.664  10.880 -0.3124 -0.3242 -0.6311
11373SOL    HW144049   4.954  12.632  10.885 -0.3123 -0.2253  0.2997
11373SOL    HW244050   5.089  12.603  10.822 -0.4278 -1.7284  0.7060
11374SOL     OW44051   4.896   1.177  13.026 -0.2218  0.6627  0.0767
11374SOL    HW144052   4.817   1.146  12.981 -0.3146 -0.5849  1.0462
11374SOL    HW244053   4.867   1.253  13.076 -0.5201  0.9693 -0.5561
11375SOL     OW44054  10.321   3.322   1.547 -0.5637 -0.0906 -0.1084
11375SOL    HW144055  10.267   3.384   1.499 -0.7200 -0.2302 -0.1127
11375SOL    HW244056  10.310   3.239   1.501 -0.2130 -0.0831 -0.2132
11376SOL     OW44057   8.634   7.742   0.967  0.2077 -0.2883 -0.2522
11376SOL    HW144058   8.632   7.812   1.032  1.3270 -0.3941 -0.0672
11376SOL    HW244059   8.666   7.666   1.016 -1.6823 -1.1447 -0.2816
11377SOL     OW44060  10.709  10.968   1.049  0.2622  0.4050  0.1022
11377SOL    HW144061  10.692  11.016   0.968 -0.4573  1.3793  0.8131
11377SOL    HW244062  10.740  11.034   1.110 -1.6622  0.1634  1.3882
11378SOL     OW44063   2.256   9.428   9.503 -0.4020  0.2017  0.0679
11378SOL    HW144064   2.274   9.494   9.570 -0.3595  0.8728 -0.5936
11378SOL    HW244065   2.176   9.386   9.532 -1.8137  2.1908 -0.7119
11379SOL     OW44066   5.195   4.536   9.628 -0.0929  0.5488  0.2356
11379SOL    HW144067   5.284   4.563   9.603 -0.3380  2.7667  1.5339
11379SOL    HW244068   5.193   4.546   9.723 -1.1119 -1.5936  0.5041
11380SOL     OW44069   8.936   3.461   0.879 -0.7105 -0.0208 -0.1504
11380SOL    HW144070   8.958   3.496   0.966  0.6011 -0.4773 -0.2819
11380SOL    HW244071   8.965   3.529   0.818 -0.0238 -0.4536 -0.3089
11381SOL     OW44072   1.900   9.275   7.557 -0.3421 -0.3750 -0.2016
11381SOL    HW144073   1.980   9.321   7.582  0.0379 -1.5203  0.7855
11381SOL    HW244074   1.862   9.329   7.488  0.8274  0.6428 -0.0847
11382SOL     OW44075  11.882   2.504   1.549 -0.5924  0.1078 -0.0645
11382SOL    HW144076  11.866   2.444   1.622 -0.4358 -1.4761 -1.2639
11382SOL    HW244077  11.795   2.524   1.514 -0.5948 -0.2359 -0.2643
11383SOL     OW44078   7.395   6.604   0.851 -0.5771 -0.0272 -0.0069
11383SOL    HW144079   7.454   6.603   0.927  0.0990 -0.0206 -0.5165
11383SOL    HW244080   7.362   6.693   0.847  0.1520  0.2433 -0.2806
11384SOL     OW44081   5.234   2.478   1.494 -0.1770 -0.0364 -0.2821
11384SOL    HW144082   5.314   2.497   1.444 -0.5897  0.9500 -0.6001
11384SOL    HW244083   5.247   2.523   1.578 -0.4019  0.1408 -0.3415
11385SOL     OW44084   1.550   5.738   2.031 -0.0392 -0.6453  0.0090
11385SOL    HW144085   1.642   5.713   2.036  0.4684  1.2679  1.3058
11385SOL    HW244086   1.518   5.696   1.951  2.0842 -0.9293 -0.7524
11386SOL     OW44087  10.636  10.432  13.029  0.1636  0.8845 -0.0199
11386SOL    HW144088  10.708  10.379  12.996 -1.4147 -1.8175  0.6068
11386SOL    HW244089  10.666  10.464  13.114  1.1048  0.9670 -0.3721
11387SOL     OW44090   8.759  12.237   6.475  0.7127  0.2390  0.1013
11387SOL    HW144091   8.725  12.287   6.401 -1.0614  0.3246  0.9165
11387SOL    HW244092   8.691  12.172   6.493  1.1858  0.0954  1.5228
11388SOL     OW44093   0.200   8.268  10.617  0.4114 -0.0100  0.3656
11388SOL    HW144094   0.269   8.224  10.665  0.2653 -1.3283 -0.5955
11388SOL    HW244095   0.246   8.329  10.559  0.8437 -1.3999 -0.7965
11389SOL     OW44096   6.560   9.288   1.862 -0.0025  0.0459  0.2070
11389SOL    HW144097   6.538   9.357   1.799 -0.6882 -0.1380  0.2373
11389SOL    HW244098   6.503   9.307   1.937  0.5952  0.0891  0.6535
11390SOL     OW44099  12.332   3.840   2.386 -0.0936 -0.3742 -0.7689
11390SOL    HW144100  12.400   3.851   2.452  1.0445 -0.6364 -1.8561
11390SOL    HW244101  12.301   3.750   2.398  1.9771 -1.3486 -2.2473
11391SOL     OW44102  11.949   9.549  13.244 -0.0193 -0.4702  0.2565
11391SOL    HW144103  11.952   9.499  13.325 -0.1821  0.2981  0.7457
11391SOL    HW244104  11.915   9.488  13.179 -1.4866 -0.6141  1.1323
11392SOL     OW44105   4.186   9.801   5.211 -0.0475  0.1612 -0.0403
11392SOL    HW144106   4.269   9.771   5.249 -0.6752  0.6034  1.7630
11392SOL    HW244107   4.118   9.761   5.265 -1.1033 -1.2613 -2.2808
11393SOL     OW44108  11.658   7.684  10.010  0.1534 -0.2221  0.1098
11393SOL    HW144109  11.692   7.772   9.992  0.2858 -0.0688  1.0246
11393SOL    HW244110  11.725   7.644  10.066 -0.9010 -0.1015  1.5244
11394SOL     OW44111   0.585  11.195   2.661  0.3846 -0.3588  0.1344
11394SOL    HW144112   0.554  11.169   2.574 -3.1426  0.0804  1.0933
11394SOL    HW244113   0.655  11.258   2.644 -1.1863  0.8589 -2.4643
11395SOL     OW44114   7.458   8.973  10.471 -0.3004 -0.0798 -0.6961
11395SOL    HW144115   7.549   8.997  10.452 -0.1372  0.3270  0.5587
11395SOL    HW244116   7.435   8.911  10.402  1.4876 -1.5245 -0.0478
11396SOL     OW44117  11.017  10.439   8.819 -0.4001 -0.0567  0.2023
11396SOL    HW144118  10.969  10.518   8.840  0.5215  0.7645 -0.6920
11396SOL    HW244119  11.091  10.439   8.880  0.2902  0.4411 -0.6244
11397SOL     OW44120   6.144   6.086   4.838  0.2411 -0.6452  0.4383
11397SOL    HW144121   6.099   6.041   4.766 -0.5166 -0.4789  0.8013
11397SOL    HW244122   6.113   6.176   4.833 -0.6943 -0.8748  1.6515
11398SOL     OW44123   1.300   4.570  12.968 -0.4126  0.0539 -1.4424
11398SOL    HW144124   1.363   4.504  12.938 -0.2455 -0.0476 -0.8633
11398SOL    HW244125   1.313   4.576  13.062 -1.2565  0.0506 -1.3162
11399SOL     OW44126   3.060   1.262  11.338  0.5543  0.1210  0.0525
11399SOL    HW144127   3.037   1.258  11.431 -0.9747 -0.2243 -0.3094
11399SOL    HW244128   3.077   1.171  11.313 -3.5291 -0.5433 -0.9900
11400SOL     OW44129   7.843  13.163   6.432  0.8249 -0.2428  0.1248
11400SOL    HW144130   7.922  13.172   6.485 -0.3231  0.0735  1.8497
11400SOL    HW244131   7.833  13.249   6.390  0.8017  0.0623  0.7522
11401SOL     OW44132  12.302   2.301   3.896  0.6032  0.3451 -0.5927
11401SOL    HW144133  12.292   2.366   3.965  0.0676 -1.0465  0.6903
11401SOL    HW244134  12.396   2.290   3.886  0.8092  2.8802 -2.4217
11402SOL     OW44135   0.299  10.465   8.944 -0.5440 -0.0403 -0.3947
11402SOL    HW144136   0.281  10.454   8.850 -1.6167 -0.0732 -0.2046
11402SOL    HW244137   0.222  10.512   8.977 -0.3674 -0.3976  0.5485
11403SOL     OW44138   7.925  10.096   3.078  0.5961 -0.4729  0.3254
11403SOL    HW144139   7.992  10.071   3.014 -0.3000  0.1384 -0.8873
11403SOL    HW244140   7.952  10.052   3.159  1.9046 -1.0500 -0.3915
11404SOL     OW44141   5.308   7.337   9.369 -0.1818  0.0668  0.4965
11404SOL    HW144142   5.257   7.275   9.420  0.2678 -0.2148  0.6042
11404SOL    HW244143   5.382   7.359   9.425 -1.4594  2.4103  1.4101
11405SOL     OW44144   2.165   4.007   5.366 -0.1696 -0.0915 -0.1013
11405SOL    HW144145   2.114   3.995   5.446 -1.0601 -1.1223 -0.7799
11405SOL    HW244146   2.204   4.094   5.374 -0.4473 -0.0845  1.3252
11406SOL     OW44147  13.076   4.978   5.320  0.9370 -0.4269 -0.3212
11406SOL    HW144148  12.999   4.987   5.264  1.3189 -0.5679 -0.8795
11406SOL    HW244149  13.075   5.057   5.375 -0.9935 -1.5963  1.4608
11407SOL     OW44150   1.074   7.516  10.225  0.6784  0.0790  0.3571
11407SOL    HW144151   1.015   7.592  10.223  0.5012 -0.0650  0.0009
11407SOL    HW244152   1.061   7.478  10.312 -1.3916 -1.2193 -0.4472
11408SOL     OW44153   1.647  12.052   2.160  0.1071  0.4320 -0.0501
11408SOL    HW144154   1.652  11.982   2.095  1.2558 -0.1687  0.6397
11408SOL    HW244155   1.588  12.018   2.227  0.7226  0.0574  0.3214
11409SOL     OW44156   9.526   9.358   9.777  0.5519 -0.1453 -0.4429
11409SOL    HW144157   9.564   9.278   9.814  0.2511 -0.8482 -1.6024
11409SOL    HW244158   9.458   9.326   9.717 -2.5731  1.0235  2.1297
11410SOL     OW44159  12.935   0.512  10.525  0.3037 -0.6528  0.1081
11410SOL    HW144160  12.856   0.526  10.473  0.7043  0.0453 -0.3174
11410SOL    HW244161  12.931   0.578  10.594  2.0399  1.5054 -1.7286
11411SOL     OW44162   2.693   1.474   0.800 -0.2976 -0.0685  0.2189
11411SOL    HW144163   2.757   1.402   0.793  0.1026  0.2845  0.2161
11411SOL    HW244164   2.632   1.458   0.727 -1.1421 -1.2993  1.1569
11412SOL     OW44165   3.810   2.191   0.537  0.4119 -0.2646 -0.0092
11412SOL    HW144166   3.889   2.229   0.574  0.4391 -0.8658  0.5715
11412SOL    HW244167   3.742   2.256   0.552  0.2948 -0.7408  1.6400
11413SOL     OW44168   6.749  12.873  12.991  0.3783 -0.0305 -0.1839
11413SOL    HW144169   6.799  12.936  12.940  1.8194 -1.7374 -1.0005
11413SOL    HW244170   6.814  12.810  13.022 -1.0609 -1.5136 -0.0284
11414SOL     OW44171  11.143   0.269  11.200  0.0643 -0.0120 -0.2625
11414SOL    HW144172  11.232   0.252  11.169  0.1257 -0.6938  0.2626
11414SOL    HW244173  11.153   0.281  11.294 -0.7470 -3.1810  0.3463
11415SOL     OW44174   7.703   9.228   2.793 -0.3122 -0.5868 -0.0548
11415SOL    HW144175   7.740   9.216   2.880 -1.1156 -2.1812  0.0922
11415SOL    HW244176   7.641   9.156   2.782 -2.5813  1.3196 -0.7193
11416SOL     OW44177   3.807   0.957  12.968  0.1989 -0.0626  0.1970
11416SOL    HW144178   3.873   1.010  13.013  1.0647 -1.6518  0.8743
11416SOL    HW244179   3.802   0.994  12.880  2.4219 -0.2539 -0.0635
11417SOL     OW44180  11.465   3.414  11.474  0.1020  0.1812  0.1198
11417SOL    HW144181  11.405   3.428  11.547  0.8182 -0.1185  0.7795
11417SOL    HW244182  11.550   3.444  11.507  0.1546  1.5168 -1.1286
11418SOL     OW44183  12.205   7.765  13.257  0.0307 -0.3959  0.0418
11418SOL    HW144184  12.163   7.680  13.245 -1.1422  0.0188  0.9114
11418SOL    HW244185  12.296   7.745  13.277 -0.3929 -1.4982  0.9566
11419SOL     OW44186  11.339  10.205  10.441  0.2514 -0.1046 -0.3953
11419SOL    HW144187  11.247  10.224  10.424 -0.0400  1.6775  2.5439
11419SOL    HW244188  11.337  10.133  10.504  0.7471  0.9369  0.8551
11420SOL     OW44189   5.267   1.876   2.679 -0.2776 -0.1628 -0.0382
11420SOL    HW144190   5.301   1.790   2.655 -1.1906 -0.6343  0.3283
11420SOL    HW244191   5.337   1.915   2.731 -0.7534 -1.6399  1.8192
11421SOL     OW44192   8.487   7.841   3.206  0.2410  0.1030  0.9010
11421SOL    HW144193   8.568   7.812   3.247 -0.7514 -0.4389  2.6028
11421SOL    HW244194   8.509   7.853   3.114  2.0798 -0.6491  1.2038
11422SOL     OW44195   7.531   7.583   2.002 -0.1946 -0.0508 -0.4976
11422SOL    HW144196   7.488   7.655   1.955 -0.6391  0.5295  0.7565
11422SOL    HW244197   7.480   7.505   1.978 -1.4671  0.5027  0.3091
11423SOL     OW44198   5.221   5.235  12.441 -0.0362 -0.0513 -0.1814
11423SOL    HW144199   5.186   5.217  12.353 -1.9828 -0.2319  0.5829
11423SOL    HW244200   5.153   5.287  12.483  0.0555 -1.4390  1.8041
11424SOL     OW44201   5.503   4.620   4.284 -0.0578  0.2307 -0.4496
11424SOL    HW144202   5.534   4.547   4.230  0.3553 -0.4053  0.6113
11424SOL    HW244203   5.408   4.608   4.288  0.0197 -0.3471 -0.1706
11425SOL     OW44204   2.018   8.168  12.434 -0.1940 -0.1799 -0.5725
11425SOL    HW144205   2.033   8.086  12.387 -0.0163  0.2122 -1.2246
11425SOL    HW244206   1.926   8.165  12.460 -0.2252 -0.5236 -0.7205
11426SOL     OW44207  12.837   9.198   5.911 -0.1024 -0.4870  0.3624
11426SOL    HW144208  12.788   9.154   5.981  0.2456  2.4169  2.6219
11426SOL    HW244209  12.927   9.202   5.943  0.0658  0.9008 -0.1897
11427SOL     OW44210   2.204  12.723   3.146  0.0563 -0.2402  0.7035
11427SOL    HW144211   2.181  12.657   3.081 -0.4231  1.0565 -0.4866
11427SOL    HW244212   2.299  12.714   3.155  0.1216 -0.4912 -0.1169
11428SOL     OW44213   0.124   6.258   6.655  0.1009 -0.3842 -0.4730
11428SOL    HW144214   0.194   6.273   6.719  0.2020  0.9137 -0.8635
11428SOL    HW244215   0.090   6.345   6.636 -0.1778 -0.7869 -1.9189
11429SOL     OW44216   1.727   1.233   4.037  0.5607  0.5044  0.1868
11429SOL    HW144217   1.811   1.265   4.002  1.1509  0.1530  1.2291
11429SOL    HW244218   1.664   1.301   4.014  0.8695  0.1950 -1.7088
11430SOL     OW44219   2.127   2.809   5.933 -0.0799 -0.1524 -0.4416
11430SOL    HW144220   2.062   2.788   5.866 -0.6546  0.5449 -0.1079
11430SOL    HW244221   2.128   2.732   5.991  1.0471 -1.1475 -1.6994
11431SOL     OW44222  12.335   4.107  10.621  0.0213 -0.2633 -0.2494
11431SOL    HW144223  12.358   4.031  10.567 -0.1551 -0.2869 -0.2918
11431SOL    HW244224  12.415   4.125  10.671 -0.0930 -0.7972  0.1397
11432SOL     OW44225   2.615   3.740   7.433 -0.9156 -0.1650  0.1523
11432SOL    HW144226   2.634   3.758   7.525 -0.0437  0.1113 -0.0721
11432SOL    HW244227   2.646   3.651   7.419 -0.8351 -0.1231  0.0654
11433SOL     OW44228   3.813   9.608   4.109  0.0275  0.0138 -0.3933
11433SOL    HW144229   3.793   9.635   4.198  0.9648  1.4616 -0.5984
11433SOL    HW244230   3.870   9.532   4.119  0.1174  0.1597  0.2355
11434SOL     OW44231   8.025   2.996  12.398  0.1377  0.5587 -0.1107
11434SOL    HW144232   7.966   3.011  12.472  1.9927  1.2041  1.3049
11434SOL    HW244233   8.112   2.994  12.437  0.9830 -2.0502 -1.8715
11435SOL     OW44234   4.835  10.713   7.557 -0.6396 -0.2072  0.0600
11435SOL    HW144235   4.891  10.717   7.635 -0.0386  0.5588 -0.4057
11435SOL    HW244236   4.855  10.628   7.518 -0.4806 -0.3243  0.3868
11436SOL     OW44237   5.555   8.929   2.954 -0.1034  0.4922 -0.0050
11436SOL    HW144238   5.474   8.879   2.944  0.5169 -0.1267 -2.6408
11436SOL    HW244239   5.561   8.982   2.875  3.3892 -1.6491 -1.4357
11437SOL     OW44240  11.160   1.629  12.412  1.0232  0.1067  0.2086
11437SOL    HW144241  11.192   1.712  12.375 -1.8442  0.1710 -2.4620
11437SOL    HW244242  11.133   1.652  12.501  0.1769  2.1107 -0.5076
11438SOL     OW44243  12.774   1.288   5.915  0.4742  0.1574  0.8936
11438SOL    HW144244  12.822   1.264   5.994  0.0012  2.2996  1.9266
11438SOL    HW244245  12.682   1.286   5.942  0.2017 -0.4870 -0.0404
11439SOL     OW44246  10.380   3.813   1.864  0.6491  0.4483 -0.6800
11439SOL    HW144247  10.338   3.760   1.932  2.7412  0.1452  0.4580
11439SOL    HW244248  10.390   3.753   1.790  0.5704  0.0379 -0.3605
11440SOL     OW44249   2.115   2.826   0.195  0.2052  0.3574  0.2385
11440SOL    HW144250   2.166   2.863   0.267  0.1194  0.5034  0.2231
11440SOL    HW244251   2.047   2.775   0.238 -0.1240  0.8145  0.2661
11441SOL     OW44252   3.247   4.041  10.910 -0.3712 -0.1284 -0.9212
11441SOL    HW144253   3.168   3.987  10.904 -1.8370  1.8430 -0.5075
11441SOL    HW244254   3.318   3.978  10.923 -2.2355 -1.8615  2.1592
11442SOL     OW44255   4.794   3.562   1.714  0.0988  0.6385 -0.2107
11442SOL    HW144256   4.830   3.528   1.632  0.4835  1.9489 -0.6099
11442SOL    HW244257   4.839   3.513   1.783 -1.6072 -1.8530 -0.7518
11443SOL     OW44258   2.392   7.978   0.346  0.4192 -0.6180 -0.2464
11443SOL    HW144259   2.397   7.994   0.440 -0.2084 -2.6695  0.1974
11443SOL    HW244260   2.479   8.000   0.313  0.5419  0.4587  0.7414
11444SOL     OW44261   8.276   8.235   4.966  0.4954  0.2074  0.7984
11444SOL    HW144262   8.220   8.250   4.889  1.1229 -1.6013 -0.0621
11444SOL    HW244263   8.256   8.308   5.024  0.8774  2.3818 -1.5937
11445SOL     OW44264   8.431   5.761   5.125 -0.4904 -0.2669 -0.1731
11445SOL    HW144265   8.430   5.797   5.036 -0.3763  0.4364  0.0962
11445SOL    HW244266   8.404   5.835   5.180 -4.0126 -1.5947  0.1087
11446SOL     OW44267  11.535  12.434  12.355  0.0225  0.4396 -0.2442
11446SOL    HW144268  11.542  12.341  12.331  0.1844  0.7717 -1.5665
11446SOL    HW244269  11.465  12.468  12.300  0.5813  1.3102 -0.4428
11447SOL     OW44270   8.169  11.181  13.021  0.1954  0.0480 -0.3999
11447SOL    HW144271   8.139  11.271  13.033 -1.7442 -0.8716  2.9499
11447SOL    HW244272   8.119  11.148  12.945 -1.9865  0.7311  0.6707
11448SOL     OW44273   5.770   5.229   4.356 -0.2976  0.2321  0.3201
11448SOL    HW144274   5.859   5.260   4.340 -0.5550  0.1777 -1.3158
11448SOL    HW244275   5.742   5.278   4.434  1.9201 -1.4001  2.2714
11449SOL     OW44276   4.098   6.606   2.958 -0.2452  0.0821  0.2468
11449SOL    HW144277   4.090   6.548   2.882 -0.1801 -0.0939  0.3747
11449SOL    HW244278   4.093   6.694   2.921 -0.4602 -0.0050  0.0657
11450SOL     OW44279   2.172   5.418   2.845 -0.0796 -0.1879  0.3746
11450SOL    HW144280   2.130   5.477   2.909 -0.4175  0.7833 -0.7163
11450SOL    HW244281   2.157   5.330   2.881 -3.5411  0.0407 -0.1630
11451SOL     OW44282   8.737   9.962   5.503  0.0102 -0.3209 -0.8502
11451SOL    HW144283   8.742  10.013   5.422  0.2937 -0.0112 -0.6426
11451SOL    HW244284   8.732  10.028   5.572  0.0314 -0.5807 -0.5996
11452SOL     OW44285  10.489  11.150   5.541  0.8640  0.2016 -0.4254
11452SOL    HW144286  10.581  11.160   5.516  1.5827  1.2168  2.3415
11452SOL    HW244287  10.441  11.205   5.478  2.3362  1.1313 -0.7767
11453SOL     OW44288   6.216   4.770  12.450 -0.1835 -0.7421 -0.0033
11453SOL    HW144289   6.264   4.688  12.448  2.3064  0.5953  0.6491
11453SOL    HW244290   6.126   4.746  12.428  0.6253 -3.4790 -0.7036
11454SOL     OW44291   2.374   4.072   9.794 -0.0745  0.2222  0.6785
11454SOL    HW144292   2.468   4.064   9.782  0.0041  0.0143  1.3971
11454SOL    HW244293   2.337   4.057   9.707  0.6507  2.0902  0.0003
11455SOL     OW44294  11.579   4.025   9.638  0.0951  0.0337 -0.1458
11455SOL    HW144295  11.607   3.989   9.722 -1.0342  1.1036  0.7176
11455SOL    HW244296  11.563   3.948   9.583 -2.5531 -0.8956  1.7360
11456SOL     OW44297   7.823  11.695   9.580 -0.5482 -0.1447 -0.4642
11456SOL    HW144298   7.864  11.676   9.665 -2.5110 -1.2196  0.3045
11456SOL    HW244299   7.782  11.613   9.554 -0.2083  0.2442 -2.3681
11457SOL     OW44300   2.506   3.275   1.695 -0.5817 -0.9371  0.0710
11457SOL    HW144301   2.539   3.254   1.608  0.3503  1.5731 -0.2660
11457SOL    HW244302   2.478   3.191   1.731  0.5998 -2.2949 -1.9736
11458SOL     OW44303   9.005  11.411   6.089 -0.1799 -0.5193  0.1187
11458SOL    HW144304   9.098  11.433   6.102  0.0804  0.6225 -2.8150
11458SOL    HW244305   9.006  11.332   6.035 -0.9508 -0.6940  0.3423
11459SOL     OW44306  10.956   0.016   9.392 -0.0560 -0.0659  0.3576
11459SOL    HW144307  10.992   0.061   9.469  0.8294 -0.1939  0.0239
11459SOL    HW244308  11.003  -0.067   9.388 -0.9673 -0.5985  0.3743
11460SOL     OW44309   4.890   3.459  12.094 -0.5600 -0.0689  0.3231
11460SOL    HW144310   4.978   3.488  12.117 -1.0430  1.3510  0.4400
11460SOL    HW244311   4.904   3.389  12.030  0.6471  0.3980  0.0536
11461SOL     OW44312   6.669   4.761   1.114 -0.3701 -0.4776  0.1746
11461SOL    HW144313   6.677   4.786   1.022  0.2781  1.7551  0.7770
11461SOL    HW244314   6.575   4.764   1.132 -0.5201 -1.1324 -0.4376
11462SOL     OW44315   9.965   4.505   8.031 -0.2787  0.4218  0.0166
11462SOL    HW144316  10.022   4.429   8.025  0.3846  0.9006  0.0271
11462SOL    HW244317   9.886   4.480   7.984 -0.2820 -0.4494  0.4689
11463SOL     OW44318  11.692  12.420   7.718  0.1614  0.5462  0.7869
11463SOL    HW144319  11.648  12.346   7.677 -0.3542  0.7521  0.9602
11463SOL    HW244320  11.774  12.429   7.670 -0.6551  1.1247 -0.5667
11464SOL     OW44321  11.777   8.082   0.706 -0.1152  0.0019  0.2668
11464SOL    HW144322  11.682   8.075   0.714 -0.6540  1.0838 -3.4965
11464SOL    HW244323  11.803   8.000   0.664  0.2215  0.7191 -0.9616
11465SOL     OW44324   5.334   0.436   7.132 -0.1892 -0.2177 -0.3233
11465SOL    HW144325   5.367   0.516   7.090  0.4646  0.7229  1.8589
11465SOL    HW244326   5.239   0.449   7.134 -0.0545  0.7673  0.4748
11466SOL     OW44327   8.749  12.973   2.652  0.2099 -0.1054 -0.1144
11466SOL    HW144328   8.750  12.890   2.605 -0.0689  0.6517 -1.4994
11466SOL    HW244329   8.810  13.029   2.604 -0.1826  0.7292  0.3388
11467SOL     OW44330   9.747  11.867  11.479  0.2774  0.0785  0.8193
11467SOL    HW144331   9.807  11.827  11.542 -0.3097  0.2566  1.5095
11467SOL    HW244332   9.731  11.798  11.415  2.1034  0.3884 -0.0390
11468SOL     OW44333   6.237   9.362   9.214 -0.3862  0.3850  0.0067
11468SOL    HW144334   6.327   9.337   9.232 -0.6793 -1.2373 -0.6269
11468SOL    HW244335   6.238   9.399   9.126 -0.2057  1.2723  0.3672
11469SOL     OW44336  11.817   1.469   3.753 -0.3366  0.1198 -0.3807
11469SOL    HW144337  11.819   1.554   3.709  2.1921 -0.0601 -0.7873
11469SOL    HW244338  11.825   1.490   3.846 -1.2195  0.3711 -0.3612
11470SOL     OW44339  10.920   7.780   7.314  0.0855  0.2992  0.5589
11470SOL    HW144340  10.873   7.697   7.321  0.2670 -0.1561 -2.3602
11470SOL    HW244341  11.010   7.759   7.340 -0.1164 -0.1032  0.9526
11471SOL     OW44342   3.814   1.322  12.760 -0.5514  0.6735 -0.4358
11471SOL    HW144343   3.845   1.266  12.689 -0.8443  0.8824 -0.7295
11471SOL    HW244344   3.874   1.397  12.760 -0.6128  0.7214 -0.5223
11472SOL     OW44345   8.836   9.371  11.634 -0.2776 -0.0928 -0.6393
11472SOL    HW144346   8.896   9.298  11.647 -1.1330 -0.8162 -0.6557
11472SOL    HW244347   8.818   9.371  11.540 -1.1784 -0.6045 -0.4797
11473SOL     OW44348   9.058   9.173   0.353 -0.0729  0.4438  0.2932
11473SOL    HW144349   9.091   9.170   0.443  1.2365  2.1495 -0.0695
11473SOL    HW244350   8.966   9.199   0.362  0.1946  1.1573  1.1213
11474SOL     OW44351  12.022   3.831   7.875 -0.6711  0.4576  0.0921
11474SOL    HW144352  11.943   3.884   7.890 -0.9860  0.0626 -0.1645
11474SOL    HW244353  12.019   3.808   7.783  1.4104  3.0852 -0.7620
11475SOL     OW44354   2.904   9.247   7.905  0.2065 -0.0549 -0.0682
11475SOL    HW144355   2.851   9.293   7.839 -0.1412  0.1209  0.3251
11475SOL    HW244356   2.949   9.178   7.856  0.0119  0.1219 -0.5024
11476SOL     OW44357  13.046  12.178   5.722  0.0275  0.0680 -0.0212
11476SOL    HW144358  13.062  12.231   5.644  0.9372 -0.6099 -0.3173
11476SOL    HW244359  13.062  12.237   5.795 -0.0016  0.4832 -0.3494
11477SOL     OW44360   6.120   6.735  12.057 -0.1006 -0.0042 -0.3645
11477SOL    HW144361   6.025   6.750  12.064 -0.2996 -0.6434 -1.4236
11477SOL    HW244362   6.146   6.787  11.981  0.0348 -1.3142 -1.2428
11478SOL     OW44363   1.572   6.948   3.255 -0.6250  0.3253  0.2304
11478SOL    HW144364   1.615   7.025   3.218  0.1563 -1.3987 -2.7761
11478SOL    HW244365   1.520   6.912   3.183  0.4693 -2.9360  0.8603
11479SOL     OW44366  10.248   4.666  12.433 -0.3415 -0.7248 -0.3630
11479SOL    HW144367  10.283   4.578  12.419  0.2967 -0.3817 -1.0019
11479SOL    HW244368  10.176   4.674  12.371 -0.1696 -0.6681 -0.5549
11480SOL     OW44369   3.006   8.910   0.530 -0.4649  0.2050 -0.4441
11480SOL    HW144370   2.910   8.912   0.533 -0.4963  2.0719 -1.0974
11480SOL    HW244371   3.034   8.931   0.619 -0.6652  0.3037 -0.4043
11481SOL     OW44372   5.684   9.512  12.780 -0.0269 -0.2482 -0.7444
11481SOL    HW144373   5.601   9.507  12.731 -0.0366  0.0835 -0.7650
11481SOL    HW244374   5.681   9.597  12.822  0.0604 -0.4671 -0.2952
11482SOL     OW44375  11.734   9.436   2.954  0.3398  0.0904 -0.0042
11482SOL    HW144376  11.696   9.368   3.009 -1.1615  0.9773  0.1179
11482SOL    HW244377  11.813   9.463   3.001  0.6989 -1.2055  0.1784
11483SOL     OW44378   2.575   2.033  12.203 -0.4531  0.4326 -0.4822
11483SOL    HW144379   2.531   2.082  12.272 -1.6192 -2.1931  0.7959
11483SOL    HW244380   2.618   1.960  12.249  1.7229  0.5116 -2.1771
11484SOL     OW44381  12.144  10.373   6.645 -0.5028  0.3875  0.3250
11484SOL    HW144382  12.199  10.332   6.712 -1.2982  2.6102  2.4883
11484SOL    HW244383  12.056  10.340   6.663 -0.3175 -1.5548 -1.8263
11485SOL     OW44384   2.762   8.973  10.743 -0.0251 -0.1296  0.1453
11485SOL    HW144385   2.848   8.932  10.739 -0.4675 -0.9475 -1.4536
11485SOL    HW244386   2.701   8.905  10.716 -0.9627  1.0235 -0.7306
11486SOL     OW44387   8.647   5.400  11.529  0.3345 -0.0328  0.3640
11486SOL    HW144388   8.642   5.306  11.549 -1.4138  0.1144  0.8062
11486SOL    HW244389   8.581   5.439  11.586  0.6179  1.4020 -0.2619
11487SOL     OW44390   0.879  12.276   5.392  1.0213  0.5424 -0.6857
11487SOL    HW144391   0.957  12.235   5.428  0.8611  0.3383 -0.5665
11487SOL    HW244392   0.907  12.312   5.308  1.2956  0.6606 -0.5453
11488SOL     OW44393   7.610   7.988   3.710 -0.1618 -0.4056 -0.2150
11488SOL    HW144394   7.603   7.929   3.635  2.0424 -0.2355 -0.6054
11488SOL    HW244395   7.667   8.059   3.680  1.6047 -0.8371  1.8951
11489SOL     OW44396   1.718   9.006   9.577 -0.2792 -0.2108 -0.0874
11489SOL    HW144397   1.711   9.048   9.663  0.9859  0.0556 -0.0860
11489SOL    HW244398   1.697   9.076   9.515 -0.8432 -0.3078 -0.0113
11490SOL     OW44399  12.369   0.566   4.596 -0.5736 -0.0034  0.0590
11490SOL    HW144400  12.428   0.622   4.546 -1.6087  0.2061 -0.9774
11490SOL    HW244401  12.426   0.505   4.643  0.4343 -0.2031 -1.3912
11491SOL     OW44402   0.599   0.219   1.145 -0.0854 -0.5227 -0.2382
11491SOL    HW144403   0.551   0.298   1.169 -1.0999 -0.9925 -0.6648
11491SOL    HW244404   0.677   0.220   1.201 -0.2903  0.5597  0.0475
11492SOL     OW44405   8.130   7.954  12.236 -0.2260  0.7288  0.0784
11492SOL    HW144406   8.143   7.864  12.207 -1.6720  0.8767 -1.1833
11492SOL    HW244407   8.090   7.946  12.323 -2.7885  0.0278 -1.0805
11493SOL     OW44408   3.622   6.598   0.881 -0.3653 -0.5282  0.0082
11493SOL    HW144409   3.656   6.688   0.872 -0.2972 -0.5181  0.3578
11493SOL    HW244410   3.531   6.604   0.852  0.0714 -0.6682 -1.4689
11494SOL     OW44411   9.989  13.054   5.457  0.1392  0.5419  0.3472
11494SOL    HW144412   9.907  13.070   5.410 -0.2648 -1.3833  0.3411
11494SOL    HW244413   9.963  13.039   5.547  0.6585  1.3821  0.6538
11495SOL     OW44414  11.590   9.629   9.835 -0.2344 -0.1085 -0.5554
11495SOL    HW144415  11.620   9.593   9.751 -1.0675 -2.1159 -0.0595
11495SOL    HW244416  11.521   9.569   9.864 -2.2573  2.3247  0.0533
11496SOL     OW44417   8.654  11.609   9.853 -0.1459 -0.4191 -0.2945
11496SOL    HW144418   8.562  11.599   9.831 -0.5485 -1.2073  1.6049
11496SOL    HW244419   8.699  11.544   9.799 -0.6013  0.2995 -1.5887
11497SOL     OW44420  11.334   6.865  11.895  0.4474  0.8596 -0.4225
11497SOL    HW144421  11.425   6.835  11.897  0.4342  0.7419  2.6511
11497SOL    HW244422  11.282   6.785  11.885  0.6313  0.6762  0.0635
11498SOL     OW44423   6.278  12.525   7.916  0.3527  0.0472  0.4373
11498SOL    HW144424   6.235  12.527   8.001 -0.8365  1.4684 -0.1549
11498SOL    HW244425   6.211  12.494   7.855  0.5508  0.9595 -0.2840
11499SOL     OW44426   5.503   0.870   2.843  0.5524 -0.2150  0.0023
11499SOL    HW144427   5.515   0.901   2.933 -1.6170 -0.0235  0.2725
11499SOL    HW244428   5.476   0.948   2.795 -4.6900 -1.2490  0.6253
11500SOL     OW44429   7.734  12.637   8.919 -0.7632 -0.6067 -0.0019
11500SOL    HW144430   7.783  12.689   8.855 -2.4571 -1.7724 -2.3893
11500SOL    HW244431   7.777  12.551   8.918 -2.0679 -1.2769 -1.2404
11501SOL     OW44432  10.197  12.286   1.538 -0.0602 -0.3559 -0.0890
11501SOL    HW144433  10.286  12.315   1.558 -0.3352 -0.7069  1.8245
11501SOL    HW244434  10.188  12.202   1.584 -0.7481 -1.3047 -1.8711
11502SOL     OW44435   8.995   5.207   2.435 -0.3414  0.3562 -0.1427
11502SOL    HW144436   8.977   5.275   2.500 -0.6200  0.5325 -0.4059
11502SOL    HW244437   8.949   5.235   2.356  3.3456  2.3290 -1.8159
11503SOL     OW44438   2.087   1.240  13.267  0.2788  0.2508  0.2910
11503SOL    HW144439   2.075   1.278  13.180  0.7551 -0.7330 -0.2152
11503SOL    HW244440   2.044   1.302  13.326 -2.8995 -0.6121 -0.9076
11504SOL     OW44441   9.108   4.774   1.366  0.2921 -0.1580 -0.4215
11504SOL    HW144442   9.195   4.745   1.395  1.2247 -0.3827 -3.1851
11504SOL    HW244443   9.063   4.694   1.340 -0.3704  0.0706 -0.0027
11505SOL     OW44444   2.277  11.324  10.718  0.1407 -0.1217  0.5651
11505SOL    HW144445   2.298  11.368  10.801  0.5639  0.7928 -0.0081
11505SOL    HW244446   2.359  11.326  10.668 -0.5204  0.8145 -0.5282
11506SOL     OW44447   3.095  10.721   6.658 -0.3305  0.4417  0.0506
11506SOL    HW144448   3.161  10.783   6.691 -0.0406  1.2138 -1.8617
11506SOL    HW244449   3.083  10.659   6.730  2.9439 -0.1079  0.3052
11507SOL     OW44450  11.429   9.572  10.670  0.4662 -0.2700 -0.0945
11507SOL    HW144451  11.407   9.498  10.615  0.9003  1.0152 -2.1081
11507SOL    HW244452  11.487   9.536  10.737  0.5514 -1.7662 -0.9288
11508SOL     OW44453  12.490   7.262  10.805  0.3599  0.5750 -0.1865
11508SOL    HW144454  12.543   7.248  10.883 -0.5879 -1.0219  0.2175
11508SOL    HW244455  12.402   7.235  10.831 -0.0426  0.3275 -1.7055
11509SOL     OW44456   9.039   2.478   0.380 -0.0443 -0.0384  0.3755
11509SOL    HW144457   8.965   2.488   0.439 -1.0272  1.3708 -1.0245
11509SOL    HW244458   9.081   2.564   0.378  0.3230 -0.2252 -0.4924
11510SOL     OW44459  12.963   4.492   5.595  0.0386 -0.8368  0.0346
11510SOL    HW144460  12.921   4.568   5.555  0.1603 -1.1176 -0.6485
11510SOL    HW244461  13.055   4.515   5.602 -0.2169 -0.1523  1.6947
11511SOL     OW44462   8.686   7.083  12.884  0.0151  0.0915  0.0572
11511SOL    HW144463   8.644   7.169  12.889  0.3779  0.4064 -1.6103
11511SOL    HW244464   8.703   7.059  12.975 -0.2343  1.7128  0.5604
11512SOL     OW44465   3.304  13.039   7.386  0.5834 -0.3166 -0.1150
11512SOL    HW144466   3.352  12.957   7.370  0.4311 -0.8537  1.8865
11512SOL    HW244467   3.297  13.044   7.481  0.9798  2.2914 -0.1612
11513SOL     OW44468   5.648   5.428   0.997 -0.0336 -0.4084  0.7106
11513SOL    HW144469   5.668   5.412   0.904 -1.1015  0.6685  0.2598
11513SOL    HW244470   5.682   5.516   1.014 -0.1087 -0.4833  1.2618
11514SOL     OW44471   9.402  12.700   3.017 -0.2815 -0.2461 -0.2092
11514SOL    HW144472   9.379  12.621   2.970 -3.4369  0.5447 -0.2009
11514SOL    HW244473   9.390  12.771   2.954  1.1074  0.3959  0.1941
11515SOL     OW44474   2.554   8.152   6.595  0.1983  0.2867 -0.3573
11515SOL    HW144475   2.603   8.107   6.526  1.9965  1.1831  0.2787
11515SOL    HW244476   2.518   8.230   6.553  2.4596  1.5835 -0.0610
11516SOL     OW44477   5.588   2.139   5.687 -0.1824  0.3787  0.4657
11516SOL    HW144478   5.558   2.217   5.642 -0.9226 -0.1740 -0.0294
11516SOL    HW244479   5.614   2.079   5.617 -0.2649 -0.0641  0.8068
11517SOL     OW44480   6.785   3.175  12.113 -0.3127  0.4281  0.1674
11517SOL    HW144481   6.823   3.254  12.151 -0.0458  0.0185  0.7691
11517SOL    HW244482   6.693   3.196  12.101 -0.1665  0.9664 -0.0412
11518SOL     OW44483   7.059   6.481   9.308 -0.5540  0.2036 -0.5241
11518SOL    HW144484   7.116   6.404   9.304  1.6387  1.6691  0.6700
11518SOL    HW244485   6.981   6.454   9.260  0.7495 -2.2223 -1.5101
11519SOL     OW44486  11.810  11.218   9.039 -0.5311  0.2565 -0.8180
11519SOL    HW144487  11.782  11.130   9.064 -2.1289  1.1912  0.9017
11519SOL    HW244488  11.884  11.238   9.096 -0.1945  0.0721 -1.1801
11520SOL     OW44489   1.744   9.068   0.908  0.5293 -0.1447 -0.0433
11520SOL    HW144490   1.782   9.004   0.968  0.4910 -0.9361 -0.8363
11520SOL    HW244491   1.809   9.077   0.838  0.0218 -0.2121 -0.5322
11521SOL     OW44492   7.481   4.137   8.365 -0.4841  0.6078 -0.1911
11521SOL    HW144493   7.556   4.124   8.307  0.8396  1.3963  1.2750
11521SOL    HW244494   7.406   4.143   8.306  0.7666  1.0968 -1.7919
11522SOL     OW44495   4.659  11.056   4.755  0.1077  0.1246 -0.5601
11522SOL    HW144496   4.571  11.074   4.720  0.4311 -1.9392 -2.6822
11522SOL    HW244497   4.707  11.138   4.742 -1.1549  0.9101 -0.4574
11523SOL     OW44498   2.185   8.890   9.697  0.4201  0.3404  0.6931
11523SOL    HW144499   2.152   8.804   9.672  2.5988 -0.3191 -0.1837
11523SOL    HW244500   2.209   8.931   9.615  1.5383  0.8276  1.2362
11524SOL     OW44501   3.869   2.308   5.395  0.3637 -0.5282 -0.1791
11524SOL    HW144502   3.866   2.255   5.315 -0.3540 -1.6789  0.5782
11524SOL    HW244503   3.857   2.245   5.466  2.1458  0.2910  0.9308
11525SOL     OW44504   0.524  12.276  10.972  0.9099  0.1069 -0.1661
11525SOL    HW144505   0.472  12.320  11.039 -0.1131 -1.3947  0.0839
11525SOL    HW244506   0.502  12.183  10.982  2.2303 -0.3661 -1.3050
11526SOL     OW44507  10.547   9.593   4.002  0.5892  0.3858  0.4788
11526SOL    HW144508  10.627   9.645   4.012 -0.6999  2.7446 -0.8250
11526SOL    HW244509  10.484   9.633   4.062 -0.1913 -0.1991  0.0665
11527SOL     OW44510   5.881   7.784   0.765 -0.0876 -0.0882  0.1516
11527SOL    HW144511   5.881   7.740   0.680 -1.1829  0.1181  0.0298
11527SOL    HW244512   5.885   7.877   0.743  1.4790 -0.0756  0.3896
11528SOL     OW44513   2.172   3.960   9.920  0.2711 -0.0157  0.2318
11528SOL    HW144514   2.121   4.018   9.978 -1.3347  2.0148 -2.9519
11528SOL    HW244515   2.252   4.009   9.902  0.2137 -0.0840 -0.2135
11529SOL     OW44516  11.174  10.574  12.424  0.0157 -0.2545  0.4143
11529SOL    HW144517  11.184  10.505  12.358  0.6548 -0.4691  0.7315
11529SOL    HW244518  11.181  10.656  12.374 -0.5574 -0.4132  0.0653
11530SOL     OW44519   6.780   0.922   4.903 -0.2096  0.2189 -0.3151
11530SOL    HW144520   6.863   0.875   4.896 -0.7466 -0.7069 -0.6068
11530SOL    HW244521   6.803   1.013   4.883  0.9401  0.2063  0.8178
11531SOL     OW44522   4.915   8.182   0.985  0.6493 -0.6677 -0.3359
11531SOL    HW144523   4.950   8.264   1.018 -0.2453  0.2450 -1.5693
11531SOL    HW244524   4.874   8.141   1.061  1.9216 -0.4562  0.4991
11532SOL     OW44525   6.511   5.880   1.505 -0.1024  0.3266 -0.0340
11532SOL    HW144526   6.545   5.951   1.559 -0.7346  0.1410  0.6330
11532SOL    HW244527   6.422   5.908   1.483 -0.2124 -0.0684 -0.1016
11533SOL     OW44528  12.905   5.967  12.086  0.2638 -0.1679 -0.3601
11533SOL    HW144529  12.999   5.948  12.092 -0.0690 -2.0181 -0.6351
11533SOL    HW244530  12.869   5.895  12.036 -1.2335  0.8607 -0.8156
11534SOL     OW44531   4.769   8.592   5.396 -0.3885 -0.1690 -0.2282
11534SOL    HW144532   4.731   8.667   5.443  1.3163 -0.7105  2.2474
11534SOL    HW244533   4.694   8.544   5.362 -1.7216  0.6400  1.4192
11535SOL     OW44534  10.366   4.429  12.420  0.7920  0.4516  0.2475
11535SOL    HW144535  10.458   4.407  12.404  0.3386 -1.0866 -0.3831
11535SOL    HW244536  10.344   4.386  12.502  0.4932  0.4088  0.1474
11536SOL     OW44537   0.155   9.911   5.984  0.6667  0.5994  0.1989
11536SOL    HW144538   0.139   9.957   6.067  0.9311 -0.2694  0.7480
11536SOL    HW244539   0.196   9.828   6.010  0.7583  0.3137 -0.8049
11537SOL     OW44540   5.286   8.176   4.765  0.1413  0.2596  0.3891
11537SOL    HW144541   5.285   8.255   4.820 -1.9850 -0.4675  1.5263
11537SOL    HW244542   5.280   8.104   4.827 -1.0283 -0.6471 -0.7243
11538SOL     OW44543   7.037   4.943   9.877 -0.3267 -0.0454 -0.2151
11538SOL    HW144544   7.061   4.851   9.865  0.7290  0.2343 -0.3397
11538SOL    HW244545   6.977   4.942   9.952  0.6350 -0.7122  0.5798
11539SOL     OW44546   6.771   9.716   0.486 -0.6869 -0.0323 -0.6237
11539SOL    HW144547   6.796   9.798   0.442  0.5970 -0.1115 -0.0839
11539SOL    HW244548   6.709   9.674   0.426 -1.0925  1.1587 -1.0665
11540SOL     OW44549   4.865   4.895   1.100  0.1607 -0.3305 -0.3791
11540SOL    HW144550   4.959   4.878   1.108  0.5214  0.7081 -1.9623
11540SOL    HW244551   4.860   4.975   1.047 -1.6248 -0.3073 -0.2189
11541SOL     OW44552   5.384  10.772   1.460  0.1218  0.1512  0.3688
11541SOL    HW144553   5.398  10.826   1.382 -0.8071  1.6210  1.1804
11541SOL    HW244554   5.363  10.685   1.426 -1.4593  1.0483 -1.0643
11542SOL     OW44555   2.668   6.943   7.239  0.2209  0.2138  0.1045
11542SOL    HW144556   2.737   7.008   7.250  0.3550 -0.0331  0.7367
11542SOL    HW244557   2.682   6.908   7.151  2.5544 -1.7267  1.1447
11543SOL     OW44558   4.490   7.686   5.040  0.4463  0.0987  0.5454
11543SOL    HW144559   4.447   7.758   4.994  0.5292  0.2877  0.7606
11543SOL    HW244560   4.418   7.636   5.078  0.4160  0.5011  1.0329
11544SOL     OW44561   9.891  10.321  11.969  0.4453 -0.3617  0.2975
11544SOL    HW144562   9.844  10.240  11.986  1.0906 -0.8906 -0.3309
11544SOL    HW244563   9.976  10.309  12.011  1.1524 -0.7048 -1.1537
11545SOL     OW44564  11.151   1.549   5.063 -0.0876 -0.3945 -0.0490
11545SOL    HW144565  11.113   1.535   4.976 -0.4033  0.5791 -0.0812
11545SOL    HW244566  11.130   1.469   5.111 -1.8418 -0.0605 -0.1936
11546SOL     OW44567   1.520   3.685   6.350  0.3363 -0.1193 -0.3486
11546SOL    HW144568   1.525   3.763   6.405  2.6159 -0.0382 -0.5520
11546SOL    HW244569   1.429   3.656   6.357 -0.7344  2.7909 -0.6539
11547SOL     OW44570   8.894   3.532   8.098  0.2252  0.3889 -0.0767
11547SOL    HW144571   8.936   3.564   8.178 -0.6592 -0.5132  0.7596
11547SOL    HW244572   8.871   3.441   8.117 -2.6804  1.0016 -0.2495
11548SOL     OW44573   4.531  10.142   4.473  0.4547  0.7936 -0.0707
11548SOL    HW144574   4.532  10.126   4.379 -2.1117 -2.4405  0.3025
11548SOL    HW244575   4.439  10.138   4.498  1.1386  0.2984  2.7566
11549SOL     OW44576   9.554   9.998   7.699  0.0124  0.3730 -0.0322
11549SOL    HW144577   9.594  10.080   7.729 -1.7364  1.2097  0.0910
11549SOL    HW244578   9.596   9.931   7.753  3.0410  0.8425 -1.5521
11550SOL     OW44579  10.258   9.539   5.009  0.6316  0.5268 -0.1370
11550SOL    HW144580  10.283   9.510   4.921 -2.4440 -1.9639 -0.3573
11550SOL    HW244581  10.320   9.494   5.067  0.7619 -0.2995 -0.8943
11551SOL     OW44582   2.226   3.857   1.120 -0.6122 -0.7278  0.7614
11551SOL    HW144583   2.148   3.829   1.073  0.0329 -1.8550  0.3185
11551SOL    HW244584   2.232   3.797   1.195 -1.3931  0.7813  2.0983
11552SOL     OW44585   0.294  12.914  10.363 -0.0878  0.3974 -0.2341
11552SOL    HW144586   0.358  12.966  10.315  1.1004  1.6565  2.5689
11552SOL    HW244587   0.225  12.976  10.386  0.2418  0.2642  1.1942
11553SOL     OW44588  12.438   2.427   1.137 -0.4356 -0.2142 -0.2374
11553SOL    HW144589  12.399   2.402   1.221  0.1957 -0.6601 -0.0717
11553SOL    HW244590  12.416   2.355   1.078  2.2669 -1.7834  0.4997
11554SOL     OW44591   2.762  10.001   7.570  0.2973 -0.1998  0.1543
11554SOL    HW144592   2.807   9.934   7.519  1.6780  2.2625 -2.1047
11554SOL    HW244593   2.832  10.053   7.609 -0.5502  2.1596 -1.2869
11555SOL     OW44594   1.380   5.487   2.237 -0.1328  0.6315  0.0261
11555SOL    HW144595   1.373   5.405   2.284  0.1792  1.4758  1.5989
11555SOL    HW244596   1.473   5.499   2.221 -0.3017 -0.1454 -1.7849
11556SOL     OW44597  10.367   4.954   5.388 -0.1613 -0.2059  0.4680
11556SOL    HW144598  10.382   4.922   5.299  0.2243 -1.1626  0.8588
11556SOL    HW244599  10.346   4.875   5.438 -2.0076  0.5078  0.9122
11557SOL     OW44600   7.233   0.399   7.393 -0.2385 -0.7118 -0.2043
11557SOL    HW144601   7.249   0.337   7.464 -0.8028 -1.3462 -0.6234
11557SOL    HW244602   7.164   0.457   7.427  0.6407  0.0196  0.3790
11558SOL     OW44603  11.602  12.332   5.848  0.0057 -0.2587  0.3229
11558SOL    HW144604  11.546  12.356   5.774 -0.8709  0.2623  1.1479
11558SOL    HW244605  11.672  12.398   5.847 -1.0878  0.9602  1.1341
11559SOL     OW44606   2.523   0.314   1.433  0.1229  0.1036  0.8171
11559SOL    HW144607   2.568   0.257   1.495  0.5960 -0.2115  0.1915
11559SOL    HW244608   2.493   0.256   1.364  1.3678  0.6915 -0.2757
11560SOL     OW44609   3.753   7.695  11.289  0.5639  0.2089  0.8382
11560SOL    HW144610   3.767   7.726  11.199 -1.7587 -0.9090  0.0277
11560SOL    HW244611   3.659   7.682  11.296  0.3939  1.9906  4.0662
11561SOL     OW44612  10.451   4.968  10.450 -0.2547  0.4889  0.1544
11561SOL    HW144613  10.497   4.958  10.534 -0.4870  1.1163  0.3600
11561SOL    HW244614  10.515   5.008  10.392 -0.7822  2.2081  0.6932
11562SOL     OW44615   3.523   4.976   4.495  0.2285 -0.0293  0.2685
11562SOL    HW144616   3.535   4.924   4.574  1.1377  0.1976  0.2874
11562SOL    HW244617   3.602   4.962   4.444 -1.6448 -2.7963 -2.1989
11563SOL     OW44618   4.416  12.702  10.493  0.2839  0.0105 -0.0096
11563SOL    HW144619   4.345  12.656  10.537 -0.4827  0.1806 -1.0220
11563SOL    HW244620   4.380  12.726  10.408  2.4149 -2.5699 -1.8557
11564SOL     OW44621   8.602   7.293   4.935 -0.6759  0.1121 -0.2986
11564SOL    HW144622   8.678   7.309   4.879 -0.9921 -0.7280 -0.9843
11564SOL    HW244623   8.635   7.233   5.003 -0.3474  0.9646  0.3173
11565SOL     OW44624   9.757   0.116   0.740  0.1948 -0.2190 -0.0671
11565SOL    HW144625   9.790   0.091   0.653 -1.8893 -2.0529 -0.4321
11565SOL    HW244626   9.696   0.188   0.722 -0.6825 -0.9853 -0.2441
11566SOL     OW44627   1.096  11.276   5.528 -0.1016 -0.4253  0.1411
11566SOL    HW144628   1.127  11.323   5.605  1.8605  0.9549 -1.3845
11566SOL    HW244629   1.166  11.214   5.509 -2.5098 -4.0725  1.9684
11567SOL     OW44630   0.185  10.994   2.443 -0.2475 -0.4828  0.3302
11567SOL    HW144631   0.222  10.925   2.499 -2.1225 -0.8098  1.2338
11567SOL    HW244632   0.194  11.074   2.495 -0.6906 -0.5431  0.5020
11568SOL     OW44633   0.685   3.966   1.898 -0.1815  0.1363  0.0750
11568SOL    HW144634   0.649   3.878   1.895  0.4615 -0.1103 -1.1182
11568SOL    HW244635   0.610   4.023   1.914 -0.4055 -0.7175  2.4115
11569SOL     OW44636   3.954   4.830   0.759 -0.1511  0.1757 -0.5021
11569SOL    HW144637   3.909   4.906   0.721  0.7371  0.6643 -0.5868
11569SOL    HW244638   3.883   4.778   0.796 -1.0222 -0.1197 -2.4507
11570SOL     OW44639   0.283   6.453   9.506  0.2953 -0.0909 -0.7265
11570SOL    HW144640   0.328   6.371   9.526 -0.3415 -0.2025  0.3318
11570SOL    HW244641   0.312   6.476   9.418 -0.5198 -2.1290 -1.5807
11571SOL     OW44642   5.534   1.206  10.791  0.3106 -0.0389 -0.0302
11571SOL    HW144643   5.513   1.289  10.747  0.4653  0.2988  0.5162
11571SOL    HW244644   5.479   1.208  10.870  1.5097  0.3063  0.8200
11572SOL     OW44645   6.298   3.579   4.949  0.4868  0.5446 -0.0173
11572SOL    HW144646   6.224   3.520   4.968  2.4638 -1.7977  0.8736
11572SOL    HW244647   6.265   3.666   4.971 -2.3150 -0.2505 -0.6116
11573SOL     OW44648   6.213   7.603   5.063 -0.6181  0.8636  0.4267
11573SOL    HW144649   6.249   7.553   4.989  2.2574 -0.2452  2.3670
11573SOL    HW244650   6.176   7.536   5.121  0.1655  1.2953  1.4650
11574SOL     OW44651   0.449   9.928  13.089 -0.1537  0.4643 -0.0479
11574SOL    HW144652   0.354   9.935  13.079 -0.2808 -0.8799  0.0832
11574SOL    HW244653   0.469   9.837  13.067  1.3080  1.1031 -1.6046
11575SOL     OW44654   3.432   3.084   3.189 -0.2165 -0.3871  0.0824
11575SOL    HW144655   3.413   3.147   3.120  0.4200  0.5715  0.7455
11575SOL    HW244656   3.526   3.067   3.181 -0.3933 -1.2911 -0.1147
11576SOL     OW44657   8.297  11.169   6.525  0.1016  0.4107 -0.2095
11576SOL    HW144658   8.256  11.127   6.450 -1.2091 -1.1800  1.3055
11576SOL    HW244659   8.322  11.097   6.583 -2.1736  1.5490  2.4562
11577SOL     OW44660  12.695  11.932   3.864 -0.8293  0.3631  0.3674
11577SOL    HW144661  12.716  12.026   3.865 -1.4675  0.5339 -0.7948
11577SOL    HW244662  12.656  11.917   3.778 -0.6966 -0.9885  0.5260
11578SOL     OW44663  12.756   7.848   7.332 -0.2860  0.2276 -0.1193
11578SOL    HW144664  12.807   7.914   7.285  1.0061 -0.6381  0.0062
11578SOL    HW244665  12.726   7.788   7.263  1.6135 -1.0453  0.0547
11579SOL     OW44666  10.925  11.376  10.981 -0.3214  0.2991 -0.1675
11579SOL    HW144667  10.944  11.283  10.967 -1.4579  0.2182 -1.4516
11579SOL    HW244668  11.010  11.420  10.969 -0.1406 -0.3909 -1.7295
11580SOL     OW44669   5.038   3.192   5.597  0.2979  0.0064  0.1368
11580SOL    HW144670   4.997   3.213   5.681  1.7740  1.6034  0.5242
11580SOL    HW244671   4.967   3.157   5.543 -1.5862  2.6292  0.7520
11581SOL     OW44672  10.400  11.897  13.303  0.3946 -0.0831 -0.1490
11581SOL    HW144673  10.485  11.939  13.295 -0.5691  1.7496 -1.7141
11581SOL    HW244674  10.340  11.969  13.324 -1.3650 -0.5165 -3.1268
11582SOL     OW44675   1.974  11.110   6.226  0.0102 -0.5794  0.3420
11582SOL    HW144676   2.007  11.199   6.214  0.3855 -0.6384  0.8846
11582SOL    HW244677   1.885  11.121   6.258  0.0429 -0.3988  0.3736
11583SOL     OW44678   7.477  13.020   2.276  0.5140  0.0138  0.0463
11583SOL    HW144679   7.387  13.018   2.245  0.3014 -4.8143  0.2663
11583SOL    HW244680   7.530  13.014   2.196  0.4025 -1.2212  0.0419
11584SOL     OW44681   0.926   4.914   3.698 -0.1392 -0.2194 -0.5254
11584SOL    HW144682   0.870   4.991   3.687 -0.1431 -0.4874 -3.0900
11584SOL    HW244683   1.013   4.949   3.717 -0.2090  0.4207 -1.3386
11585SOL     OW44684   8.578  12.204   0.485 -0.3255  0.2089  0.1188
11585SOL    HW144685   8.665  12.222   0.521  0.1180 -1.0315 -0.2732
11585SOL    HW244686   8.590  12.124   0.435 -1.1651  1.2790 -1.9045
11586SOL     OW44687   1.927   2.240   7.082 -0.2311  0.3937 -0.4171
11586SOL    HW144688   1.861   2.222   7.149  1.0139  0.0183  0.7391
11586SOL    HW244689   1.975   2.158   7.073 -0.0966  0.5708 -1.4735
11587SOL     OW44690  11.124   1.286   4.511 -0.0831 -0.4269  0.0439
11587SOL    HW144691  11.158   1.201   4.539 -2.7713 -1.0831  1.7008
11587SOL    HW244692  11.041   1.266   4.469 -1.7622  1.4189  2.2211
11588SOL     OW44693  13.155  13.204   5.869 -0.8695  0.3864 -0.2701
11588SOL    HW144694  13.235  13.213   5.817  0.8823 -0.8279  2.0265
11588SOL    HW244695  13.185  13.207   5.960 -2.8428 -3.6838  0.7800
11589SOL     OW44696   2.965   6.985   0.995  0.4702 -0.2511 -0.2800
11589SOL    HW144697   2.896   7.030   1.045  1.5181  1.0369  0.0409
11589SOL    HW244698   3.020   7.055   0.961  1.7743 -1.2581 -0.3213
11590SOL     OW44699  11.367   3.310   0.575 -0.0025 -0.3009 -0.2280
11590SOL    HW144700  11.376   3.247   0.504  0.9875 -1.2616  0.6970
11590SOL    HW244701  11.409   3.390   0.543  1.0568 -0.9428 -0.4967
11591SOL     OW44702   4.527   2.592   3.572 -0.6457  0.6178 -0.1357
11591SOL    HW144703   4.564   2.619   3.656 -1.2172  1.9835 -0.2899
11591SOL    HW244704   4.580   2.638   3.507  0.2432 -0.9746 -0.5895
11592SOL     OW44705   9.168  12.856   3.866  0.7520  0.3485  0.3859
11592SOL    HW144706   9.101  12.856   3.798  1.2059  0.9238 -0.0625
11592SOL    HW244707   9.118  12.851   3.948  0.2129 -0.4162  0.0139
11593SOL     OW44708  10.602  12.955   6.085  0.0032  0.4223 -0.2945
11593SOL    HW144709  10.615  12.867   6.120  0.0433  0.7193  0.4509
11593SOL    HW244710  10.684  12.975   6.039  0.8038  0.8581  1.2671
11594SOL     OW44711   3.726  13.216   6.189 -0.0611 -0.4132  0.2188
11594SOL    HW144712   3.808  13.261   6.211  0.2972 -1.6861  1.6655
11594SOL    HW244713   3.692  13.264   6.113  2.0063  0.1532 -0.4136
11595SOL     OW44714   3.855   3.924   7.329  0.2151  0.3659  0.2299
11595SOL    HW144715   3.767   3.950   7.358 -0.6665 -2.1384  0.1408
11595SOL    HW244716   3.846   3.911   7.234  1.1454  1.6552 -0.0499
11596SOL     OW44717  10.092   5.345  11.372  0.1362 -0.8360 -0.4067
11596SOL    HW144718  10.139   5.267  11.345  2.1435  0.3295 -0.5033
11596SOL    HW244719  10.126   5.365  11.460 -0.3262 -0.0647 -0.3834
11597SOL     OW44720   0.428   6.902   7.882  0.3063 -0.1928  0.1327
11597SOL    HW144721   0.389   6.815   7.879  1.1949 -0.5776 -0.8045
11597SOL    HW244722   0.520   6.888   7.861  0.4002  1.0085 -0.3415
11598SOL     OW44723  10.751   9.070   6.767 -0.1993 -0.1997  0.3752
11598SOL    HW144724  10.748   8.995   6.708  0.6477  0.0702 -0.0134
11598SOL    HW244725  10.671   9.119   6.747 -0.2886 -0.5049 -0.0243
11599SOL     OW44726   7.156   7.038   2.022  0.5530 -0.2557 -0.3938
11599SOL    HW144727   7.248   7.034   1.995  1.1823 -1.1562  1.6204
11599SOL    HW244728   7.121   6.952   2.000  0.7759 -0.6148  0.5812
11600SOL     OW44729   7.432   2.287   3.706  0.0782 -0.2367 -0.4029
11600SOL    HW144730   7.497   2.336   3.756  1.0932 -0.9986 -0.9351
11600SOL    HW244731   7.457   2.302   3.614 -1.3194  0.5615 -0.6708
11601SOL     OW44732  12.187   9.529   7.449 -0.4566 -0.0704 -0.4705
11601SOL    HW144733  12.177   9.570   7.363  0.8025  0.5122 -0.3550
11601SOL    HW244734  12.097   9.519   7.481 -0.8643  1.2713 -1.1194
11602SOL     OW44735   7.565   5.002  10.620 -0.0723  0.3052 -0.3441
11602SOL    HW144736   7.627   5.009  10.547  0.5491 -1.3959 -0.0310
11602SOL    HW244737   7.560   5.090  10.656  1.6066  0.6291 -0.8300
11603SOL     OW44738   3.173   9.465  11.214  0.4070 -0.4405 -0.3474
11603SOL    HW144739   3.216   9.412  11.281 -1.0572 -1.2710 -0.0118
11603SOL    HW244740   3.231   9.540  11.201  1.5818 -1.1604  0.5615
11604SOL     OW44741  10.736   9.956   7.145  0.2384  0.1434 -0.4793
11604SOL    HW144742  10.663   9.946   7.084  0.2467 -0.4454 -0.3970
11604SOL    HW244743  10.784  10.032   7.113  0.0946 -0.0078 -1.0497
11605SOL     OW44744  11.286  10.744   7.273  0.4246  0.1143  0.0918
11605SOL    HW144745  11.241  10.679   7.219  0.3852  0.4430 -0.2776
11605SOL    HW244746  11.221  10.814   7.285  0.7144  0.4337 -0.1553
11606SOL     OW44747   3.170   9.266   4.644 -0.3345 -0.3293 -0.3600
11606SOL    HW144748   3.244   9.248   4.586  0.7996  0.2511  0.8648
11606SOL    HW244749   3.125   9.340   4.603  0.3893  0.0090 -0.5588
11607SOL     OW44750   4.719  10.315   7.537  0.6387  0.2756 -0.1209
11607SOL    HW144751   4.730  10.314   7.632 -1.2436  2.4479  0.2020
11607SOL    HW244752   4.786  10.377   7.506 -0.8244  2.1520  0.2408
11608SOL     OW44753  11.834   5.403  13.141 -0.5043 -0.4198 -0.1891
11608SOL    HW144754  11.741   5.412  13.165 -0.1691 -1.4476  1.6464
11608SOL    HW244755  11.878   5.384  13.224  0.9371 -2.8941 -1.4358
11609SOL     OW44756   0.597  12.849   3.238  0.5166  0.1855 -0.2749
11609SOL    HW144757   0.618  12.927   3.290  1.5120 -0.9010  1.0236
11609SOL    HW244758   0.502  12.846   3.236  0.4621  1.6109 -0.6393
11610SOL     OW44759  11.526   9.246   3.444  0.4760  0.1570  0.0480
11610SOL    HW144760  11.470   9.191   3.389 -1.0907 -0.1806  1.8728
11610SOL    HW244761  11.559   9.314   3.384 -1.5777  0.1310 -1.2169
11611SOL     OW44762  10.934   6.456  10.563  0.5189 -0.2268  0.3947
11611SOL    HW144763  10.972   6.500  10.488 -0.7859 -0.0725 -0.2048
11611SOL    HW244764  10.952   6.363  10.549  2.0347 -0.0350  0.9395
11612SOL     OW44765   2.358  10.460   8.226 -0.2101  0.1480  0.6578
11612SOL    HW144766   2.422  10.394   8.254  0.3780 -0.2258 -1.4423
11612SOL    HW244767   2.284  10.409   8.194  0.1112  0.4660 -0.6592
11613SOL     OW44768   8.589  12.238   5.077  0.5125  0.1598 -0.5074
11613SOL    HW144769   8.619  12.318   5.122 -0.7947  0.9960 -1.0775
11613SOL    HW244770   8.627  12.245   4.989 -1.3456  1.2730 -1.2651
11614SOL     OW44771  13.120   9.928   8.438 -0.0839  0.1955  0.6946
11614SOL    HW144772  13.143   9.952   8.527  0.9776  0.9978  0.2276
11614SOL    HW244773  13.190   9.868   8.411  0.6083  1.3344 -0.1663
11615SOL     OW44774   8.417  11.358  11.823 -0.0586  0.2360 -0.4383
11615SOL    HW144775   8.486  11.307  11.865 -0.4705  0.8993  1.1192
11615SOL    HW244776   8.463  11.428  11.777  0.3214  0.7364  0.6710
11616SOL     OW44777   3.711   2.361  13.241 -0.3224 -0.1643 -0.3432
11616SOL    HW144778   3.679   2.323  13.159 -2.4225 -0.5628  0.5785
11616SOL    HW244779   3.738   2.286  13.293  0.6892  0.0646 -0.5136
11617SOL     OW44780   9.827  10.205   5.881  0.2414  0.0093 -0.8456
11617SOL    HW144781   9.742  10.161   5.881 -0.4936  1.3845 -1.4051
11617SOL    HW244782   9.885  10.146   5.833 -0.3705 -0.9680 -0.4094
11618SOL     OW44783  11.894   6.161   5.275 -0.4985 -0.2126  0.4593
11618SOL    HW144784  11.926   6.249   5.295  0.0876 -0.3518  0.1673
11618SOL    HW244785  11.821   6.147   5.336  1.6561 -0.9270  3.0428
11619SOL     OW44786   4.706   4.119   9.965  0.0832 -0.0647 -0.2684
11619SOL    HW144787   4.683   4.029   9.943  0.3475  0.0144 -0.8967
11619SOL    HW244788   4.790   4.113  10.009  0.2956 -0.0915 -0.6762
11620SOL     OW44789   7.954   7.761   6.117 -0.6359 -0.0328 -0.1401
11620SOL    HW144790   8.003   7.828   6.070 -0.2202  0.3022  0.7609
11620SOL    HW244791   7.911   7.710   6.047 -1.0592  1.2299 -0.8323
11621SOL     OW44792   5.864   4.581   2.108  0.4191 -0.2025  0.0564
11621SOL    HW144793   5.808   4.659   2.112  0.3747 -0.2234 -0.1455
11621SOL    HW244794   5.876   4.565   2.014 -0.3864 -1.0130  0.0714
11622SOL     OW44795   9.180   8.745   6.946 -0.6104  0.1067 -0.6041
11622SOL    HW144796   9.192   8.659   6.986 -2.3990 -0.1007 -0.3958
11622SOL    HW244797   9.105   8.734   6.887 -0.3973  1.3313 -1.1417
11623SOL     OW44798   9.172   2.912  10.427 -0.0937 -0.0079 -0.0264
11623SOL    HW144799   9.215   2.930  10.343  1.1318  0.4849  0.6844
11623SOL    HW244800   9.080   2.936  10.412  0.1098  0.1081 -1.2078
11624SOL     OW44801   1.223  12.460  10.812 -0.2113  0.2812  0.3603
11624SOL    HW144802   1.216  12.426  10.723 -0.6692 -0.5172  0.6967
11624SOL    HW244803   1.142  12.508  10.826 -0.9639 -1.1377  0.9825
11625SOL     OW44804  12.494   8.932   5.611  0.1118  0.2273  0.5880
11625SOL    HW144805  12.491   8.884   5.528  0.0131 -0.3788  0.9357
11625SOL    HW244806  12.561   8.998   5.598 -0.2814  0.4864 -0.1627
11626SOL     OW44807  12.074   7.243   6.038  0.2599  0.0592  0.3337
11626SOL    HW144808  12.015   7.178   6.077 -1.6245 -0.2309 -2.6267
11626SOL    HW244809  12.099   7.300   6.110 -3.2518 -0.1714  1.9382
11627SOL     OW44810   9.734  11.558   1.383 -0.7348 -0.0746 -0.3898
11627SOL    HW144811   9.652  11.587   1.423  0.2860  1.4230  0.7360
11627SOL    HW244812   9.723  11.579   1.290 -1.7119 -0.1173 -0.2984
11628SOL     OW44813   2.345  10.358   6.662 -0.1832  0.3620  0.2431
11628SOL    HW144814   2.262  10.391   6.696 -1.1286 -0.0971 -1.5047
11628SOL    HW244815   2.349  10.268   6.694  0.6259  0.9526  1.9419
11629SOL     OW44816   0.925   0.951   6.506 -0.1941 -0.6026  0.0043
11629SOL    HW144817   0.979   0.878   6.475  0.9475  0.4347 -0.5595
11629SOL    HW244818   0.887   0.988   6.426 -0.5862 -0.4538  0.2603
11630SOL     OW44819  10.622   3.652   1.991  0.0018 -0.4638  0.0093
11630SOL    HW144820  10.644   3.739   1.958  1.9640 -0.4087  1.3051
11630SOL    HW244821  10.551   3.668   2.054  0.8411  0.3199  0.7792
11631SOL     OW44822   7.061   5.850   3.553  0.1505 -0.1158  0.0904
11631SOL    HW144823   7.004   5.877   3.625  0.1487  1.0557 -0.3302
11631SOL    HW244824   7.088   5.761   3.576 -2.9816 -1.3203 -0.3894
11632SOL     OW44825   2.821   3.601  10.003  0.9833 -0.3500  0.1860
11632SOL    HW144826   2.873   3.634   9.930  1.1277  0.4866  0.6643
11632SOL    HW244827   2.747   3.661  10.009 -0.6493 -2.0687 -1.1322
11633SOL     OW44828   4.091   4.889   7.027  0.2413 -0.0138  0.3576
11633SOL    HW144829   4.128   4.977   7.014  2.0423 -0.4933  1.8878
11633SOL    HW244830   3.999   4.905   7.046  0.5807  1.5661  0.8354
11634SOL     OW44831   1.082  12.015   8.119  0.4038 -0.3774 -0.0249
11634SOL    HW144832   1.034  12.056   8.047  0.1651 -0.7135 -0.0635
11634SOL    HW244833   1.122  11.937   8.079  1.2804  0.0803 -0.0800
11635SOL     OW44834  12.770  12.818   6.914 -0.3026 -0.8023  0.1400
11635SOL    HW144835  12.809  12.741   6.957  2.6122 -0.2267 -1.2049
11635SOL    HW244836  12.700  12.783   6.860 -0.7774 -2.1331  1.5413
11636SOL     OW44837   3.893  11.009   8.201  0.2417  0.1150 -0.5598
11636SOL    HW144838   3.868  10.931   8.151 -0.5844 -1.1656  1.6653
11636SOL    HW244839   3.844  11.001   8.283  1.1642  2.3121  0.2853
11637SOL     OW44840   8.250   6.800  11.263  0.3634 -0.0212  0.0115
11637SOL    HW144841   8.291   6.716  11.283  0.6016  0.0314 -0.2393
11637SOL    HW244842   8.317   6.848  11.214 -0.3932 -0.3909 -1.4570
11638SOL     OW44843   6.472   1.184   8.561 -0.1551 -0.6666  0.7582
11638SOL    HW144844   6.461   1.247   8.490  0.5317  1.4788  2.4599
11638SOL    HW244845   6.498   1.103   8.518  1.2618  0.8372 -1.3610
11639SOL     OW44846   4.568   7.090   8.388 -0.1128  0.0664 -0.5321
11639SOL    HW144847   4.522   7.071   8.470 -1.3590  2.6099 -0.5562
11639SOL    HW244848   4.649   7.039   8.394 -1.4007 -2.0097  0.9861
11640SOL     OW44849   1.587  12.434   9.898  0.2616 -0.1084  0.5195
11640SOL    HW144850   1.510  12.377   9.896  0.9690 -1.1215  1.0645
11640SOL    HW244851   1.607  12.451   9.806  0.3275 -1.1659  0.3236
11641SOL     OW44852   5.953  10.740  10.336  0.1641 -0.1817  0.2548
11641SOL    HW144853   5.994  10.760  10.251 -1.3602 -1.5276 -0.8667
11641SOL    HW244854   5.868  10.786  10.333  0.4652  0.5048  1.4709
11642SOL     OW44855  12.026  12.531   9.601  0.1751  0.1334 -0.0390
11642SOL    HW144856  11.966  12.457   9.592  0.5977 -0.4188  1.4557
11642SOL    HW244857  11.995  12.580   9.677  1.0142  0.4068  0.1440
11643SOL     OW44858  12.664   5.140  10.572  0.4576  0.2803  0.0683
11643SOL    HW144859  12.647   5.133  10.478 -1.2707  1.5060  0.2364
11643SOL    HW244860  12.588   5.099  10.613 -1.0266  3.4962  0.8844
11644SOL     OW44861   3.638   7.573   0.774  0.0866 -0.5454 -0.3070
11644SOL    HW144862   3.598   7.538   0.695  0.4466  0.7045 -1.0879
11644SOL    HW244863   3.606   7.663   0.779 -0.0108 -0.6388  1.0383
11645SOL     OW44864   5.490   7.929   5.996  0.5542 -0.1824  0.0177
11645SOL    HW144865   5.417   7.869   6.010  1.5445 -1.5699 -0.3830
11645SOL    HW244866   5.455   7.999   5.942 -0.3975 -1.0076 -0.4591
11646SOL     OW44867   8.922  11.709   6.327 -0.0728 -0.0624  0.6870
11646SOL    HW144868   9.002  11.696   6.276 -0.6155 -1.7438  0.2086
11646SOL    HW244869   8.953  11.740   6.412  0.9065  1.8659 -0.2982
11647SOL     OW44870  13.299   3.692   4.045 -0.8545  0.6842  0.4128
11647SOL    HW144871  13.275   3.637   3.971 -0.2114  0.1824  0.5661
11647SOL    HW244872  13.255   3.653   4.120  0.3760 -0.2262  0.6911
11648SOL     OW44873  10.660  12.899  11.574  0.2479 -0.2244 -0.4208
11648SOL    HW144874  10.727  12.833  11.554 -1.6567 -2.1775 -0.7239
11648SOL    HW244875  10.710  12.976  11.601  2.5930 -1.9999  0.6779
11649SOL     OW44876  11.268   8.334  11.526  0.3513 -0.4741  0.5760
11649SOL    HW144877  11.221   8.277  11.466 -0.7323 -0.8315  1.7005
11649SOL    HW244878  11.199   8.384  11.570  1.1698  0.4240  0.8770
11650SOL     OW44879   3.582   4.284  10.130 -0.0204 -0.1038  0.5159
11650SOL    HW144880   3.608   4.354  10.070 -0.0349  1.5494  2.3372
11650SOL    HW244881   3.618   4.204  10.091  1.7521  1.1705 -0.6263
11651SOL     OW44882   0.151   9.288   5.407  0.2041 -0.1102  0.2707
11651SOL    HW144883   0.169   9.348   5.334 -2.6239  1.1785  0.5209
11651SOL    HW244884   0.148   9.201   5.366 -1.2389  0.5802 -1.1667
11652SOL     OW44885   2.493   2.391   2.194 -0.0882  0.2056 -0.3196
11652SOL    HW144886   2.537   2.314   2.231 -1.4143 -0.3016  0.2494
11652SOL    HW244887   2.502   2.380   2.100  0.5494 -0.1514 -0.2284
11653SOL     OW44888   3.358  11.850  13.091  0.4534  0.4053  0.1788
11653SOL    HW144889   3.291  11.917  13.104 -0.4040 -0.4571  0.2817
11653SOL    HW244890   3.428  11.874  13.152  0.5070  1.6473 -0.3553
11654SOL     OW44891   3.019  12.814   9.589 -0.0377 -0.4796  0.0700
11654SOL    HW144892   3.112  12.797   9.599 -0.1829 -1.4955 -0.1110
11654SOL    HW244893   3.012  12.870   9.512  0.4651  0.1354  0.4705
11655SOL     OW44894   3.724   1.020   0.007  0.2555 -0.4284 -0.4808
11655SOL    HW144895   3.743   0.965  -0.069  0.6381  1.0675 -1.5143
11655SOL    HW244896   3.810   1.048   0.038  0.0437  0.2882 -0.5199
11656SOL     OW44897   4.836   2.017   7.469 -0.1307  0.7315  0.4664
11656SOL    HW144898   4.867   2.097   7.513  1.3817  1.6661 -2.0734
11656SOL    HW244899   4.898   2.004   7.398 -1.5099 -1.6186 -0.3992
11657SOL     OW44900   5.804   2.603   2.331 -0.0137 -0.2027  0.3241
11657SOL    HW144901   5.876   2.636   2.386  0.4229  0.1641 -0.4621
11657SOL    HW244902   5.818   2.508   2.330  0.7206 -0.0931 -0.1810
11658SOL     OW44903   6.864  11.980   7.485 -0.3177  0.2340 -0.1040
11658SOL    HW144904   6.950  12.017   7.464  0.2669 -1.5978 -1.1196
11658SOL    HW244905   6.808  12.007   7.412 -0.2237  0.1640 -0.2023
11659SOL     OW44906   2.083   9.971   3.726  0.6618 -0.5860 -0.2623
11659SOL    HW144907   2.141   9.901   3.696  0.8811  0.2328 -1.8792
11659SOL    HW244908   2.000   9.928   3.744  0.8959 -1.3075 -0.8638
11660SOL     OW44909   4.993   0.500   4.488 -0.1860  0.1665 -0.1655
11660SOL    HW144910   4.964   0.585   4.521  2.8367  1.2743 -0.0124
11660SOL    HW244911   4.924   0.473   4.428 -2.2183  1.7104  1.3317
11661SOL     OW44912   5.453   2.936  11.751  0.4798  0.2241 -0.6737
11661SOL    HW144913   5.422   2.921  11.662  1.7616  0.5995 -1.2046
11661SOL    HW244914   5.377   2.971  11.798 -0.6662 -1.4641 -1.1750
11662SOL     OW44915   4.640   8.676   2.165  0.1335  0.5221  0.0832
11662SOL    HW144916   4.700   8.726   2.109 -0.4184  0.9729 -0.1181
11662SOL    HW244917   4.597   8.616   2.105  0.3462  0.2301  0.2203
11663SOL     OW44918   7.096   3.197   1.828 -0.0832 -0.3685 -0.3950
11663SOL    HW144919   7.132   3.210   1.740 -1.3065  0.3344 -0.8212
11663SOL    HW244920   7.041   3.119   1.820 -1.6155  0.6877 -0.7662
11664SOL     OW44921   6.016   7.126   5.061  0.1882 -0.3456 -0.2097
11664SOL    HW144922   5.965   7.099   4.984  0.1757  0.0886 -0.3542
11664SOL    HW244923   6.088   7.064   5.065  1.4702  0.9487 -1.8847
11665SOL     OW44924   7.946  10.776   5.994  0.3888  0.5827 -0.2727
11665SOL    HW144925   7.855  10.804   5.987  1.1139  2.8622 -1.6556
11665SOL    HW244926   7.949  10.724   6.075 -1.6411  2.5930  1.2299
11666SOL     OW44927   3.440   1.747   8.962  0.0332 -0.1261 -0.1231
11666SOL    HW144928   3.375   1.680   8.985  0.3627  0.1249  1.6665
11666SOL    HW244929   3.408   1.784   8.880 -0.4295 -2.1083 -0.8912
11667SOL     OW44930  12.169   4.353   3.992 -0.1221  0.0956 -0.6732
11667SOL    HW144931  12.171   4.408   4.071  0.5369  0.1372 -0.7176
11667SOL    HW244932  12.093   4.296   4.005 -0.4060  0.5451 -0.3072
11668SOL     OW44933  10.097  12.955   7.331 -0.1294  0.3060 -0.3262
11668SOL    HW144934  10.085  12.862   7.348  3.4604  0.0576  1.7558
11668SOL    HW244935  10.031  12.999   7.385 -0.0034 -1.0029  0.9450
11669SOL     OW44936   6.815   9.114   4.894 -0.2690  0.3898 -0.1017
11669SOL    HW144937   6.740   9.156   4.853 -0.5412  0.3405  0.3372
11669SOL    HW244938   6.777   9.056   4.960  0.1700  0.7223  0.4504
11670SOL     OW44939  13.125   3.636   4.258  0.3553 -0.1521  0.7561
11670SOL    HW144940  13.130   3.670   4.347 -0.4598  0.2641  0.6586
11670SOL    HW244941  13.032   3.646   4.234  0.2224 -1.7811  0.4610
11671SOL     OW44942  13.218  12.327   2.245 -0.0126  0.2308 -0.1400
11671SOL    HW144943  13.308  12.332   2.276 -0.1243  1.3383  0.0347
11671SOL    HW244944  13.224  12.286   2.159  0.5029 -0.9793  0.4456
11672SOL     OW44945   4.925   5.082   5.165  0.1997  0.0907 -0.2390
11672SOL    HW144946   4.947   5.161   5.215  0.0212 -0.1177  0.1809
11672SOL    HW244947   4.960   5.097   5.078  1.5346 -0.0074  0.2529
11673SOL     OW44948   5.991   4.297   8.179 -0.1555  0.1484 -0.4116
11673SOL    HW144949   5.898   4.293   8.203  0.0423 -0.7553  0.2520
11673SOL    HW244950   6.004   4.387   8.147 -0.7913  0.9652  1.4631
11674SOL     OW44951   7.638  11.821   9.206  0.4531 -0.3553  0.3431
11674SOL    HW144952   7.698  11.879   9.159  0.3682 -0.6042 -0.0754
11674SOL    HW244953   7.601  11.764   9.138  1.0288 -1.3384  0.8277
11675SOL     OW44954   1.582   8.300  10.809 -0.1930 -0.0775 -0.2312
11675SOL    HW144955   1.581   8.220  10.862 -0.7838 -1.1285 -1.7457
11675SOL    HW244956   1.671   8.304  10.773 -0.4038 -0.5604 -0.8366
11676SOL     OW44957  11.187   7.567   8.582 -0.1236  0.3997  0.4284
11676SOL    HW144958  11.274   7.605   8.590  1.1978 -2.4365  0.5967
11676SOL    HW244959  11.138   7.604   8.656  0.8400  2.1086  0.2704
11677SOL     OW44960   6.015   5.493   0.815  0.0493 -0.1325 -0.3036
11677SOL    HW144961   5.964   5.566   0.780 -2.2911 -2.2751 -1.6815
11677SOL    HW244962   6.087   5.481   0.753 -1.6355 -1.1886 -2.1595
11678SOL     OW44963   8.810   1.002  12.771 -0.0100 -0.2336  0.1612
11678SOL    HW144964   8.871   0.958  12.830  1.0323  0.4224 -0.4076
11678SOL    HW244965   8.729   0.952  12.780  0.9475 -1.9108 -0.0222
11679SOL     OW44966  13.109   3.853   2.621 -0.0670 -0.0836 -0.7446
11679SOL    HW144967  13.076   3.941   2.608 -2.4091 -0.0993  3.3794
11679SOL    HW244968  13.074   3.803   2.547 -0.9922  1.9160 -1.7268
11680SOL     OW44969   5.237   7.543   1.918  0.3409  0.4757  0.1529
11680SOL    HW144970   5.258   7.636   1.906 -2.4566  1.6074  2.8458
11680SOL    HW244971   5.267   7.523   2.007  2.0641 -1.6760 -0.8057
11681SOL     OW44972   4.857   1.290  12.423  0.0976 -0.2729  0.0492
11681SOL    HW144973   4.949   1.261  12.424 -0.0897 -0.8892 -0.2827
11681SOL    HW244974   4.819   1.247  12.347  0.0666  1.7003 -1.1154
11682SOL     OW44975   1.195   6.818  12.996  0.0780 -0.2763  0.4277
11682SOL    HW144976   1.258   6.875  13.040 -0.5439  0.2449  0.6746
11682SOL    HW244977   1.169   6.868  12.918 -1.4214  0.3688  1.3043
11683SOL     OW44978   6.500   8.409  11.900 -0.0489  0.2393 -0.0777
11683SOL    HW144979   6.490   8.469  11.975 -0.4187 -0.6484  0.6052
11683SOL    HW244980   6.571   8.446  11.849  1.5642 -0.1720  1.7592
11684SOL     OW44981  11.849   9.325  13.097 -0.8482 -0.6578 -0.3596
11684SOL    HW144982  11.764   9.298  13.132 -0.6703  1.5274  1.9968
11684SOL    HW244983  11.912   9.272  13.146 -0.7728 -0.7194 -0.5250
11685SOL     OW44984   6.979   1.765   3.318 -0.0730  0.7188 -0.3180
11685SOL    HW144985   7.073   1.782   3.312  0.0277  0.4190  0.3608
11685SOL    HW244986   6.961   1.702   3.248  0.4294 -0.0466  0.2310
11686SOL     OW44987  10.814   6.083   7.997 -0.0119  0.0906 -0.5267
11686SOL    HW144988  10.841   6.036   7.918  0.5821  0.2394 -0.4146
11686SOL    HW244989  10.804   6.016   8.064 -0.3651 -0.0174 -0.6853
11687SOL     OW44990  11.686   1.224   3.834  0.7381 -0.0584 -0.2629
11687SOL    HW144991  11.714   1.314   3.817  0.0465  0.1099 -0.5217
11687SOL    HW244992  11.764   1.171   3.815  1.0984  0.4701 -0.2624
11688SOL     OW44993   7.302   1.367  11.970 -0.4680  0.7681 -0.2544
11688SOL    HW144994   7.248   1.319  11.906  0.7592  0.5369 -1.1469
11688SOL    HW244995   7.378   1.396  11.920  0.7553  0.2017  1.1990
11689SOL     OW44996   0.932   8.548   0.687  0.0378  0.7313  0.3016
11689SOL    HW144997   0.982   8.520   0.764  0.4811 -1.8178 -0.7996
11689SOL    HW244998   0.843   8.516   0.704 -0.0273  0.7955  0.0825
11690SOL     OW44999   5.468   4.560   9.607 -0.1149 -0.0885 -0.1434
11690SOL    HW145000   5.459   4.653   9.583 -0.8425  0.0342  0.5317
11690SOL    HW245001   5.537   4.559   9.673  0.1462 -0.0811 -0.4140
11691SOL     OW45002  10.455   9.903   9.335 -0.1397  0.5942 -0.0296
11691SOL    HW145003  10.533   9.957   9.352  0.1377  0.6642 -1.4107
11691SOL    HW245004  10.473   9.861   9.251 -0.8651 -0.7483  0.4636
11692SOL     OW45005  12.529  12.996   5.695  0.1656 -0.6258 -0.6871
11692SOL    HW145006  12.561  12.908   5.678 -1.2625 -1.3007 -0.0168
11692SOL    HW245007  12.437  12.984   5.719  0.5188  0.8112  1.6685
11693SOL     OW45008   9.839  13.013   5.733  0.4768  0.1674 -0.3509
11693SOL    HW145009   9.910  12.950   5.736 -0.0931 -0.4673  0.0767
11693SOL    HW245010   9.838  13.053   5.820  0.0764 -0.0888 -0.2366
11694SOL     OW45011   3.236   3.788   6.672 -0.1925 -0.1334  0.2925
11694SOL    HW145012   3.176   3.859   6.697  2.0584  0.8286  3.7486
11694SOL    HW245013   3.310   3.833   6.630 -0.0672 -0.8067 -0.2150
11695SOL     OW45014   3.762   0.725   3.253 -0.1720  0.1267 -0.4249
11695SOL    HW145015   3.782   0.812   3.288  0.7565 -1.0105  2.1309
11695SOL    HW245016   3.847   0.688   3.230 -0.5357 -0.2350 -1.2275
11696SOL     OW45017   5.969   9.091   7.508 -0.3013  0.5574  0.1569
11696SOL    HW145018   6.005   9.099   7.420  0.4329 -0.9253  0.2841
11696SOL    HW245019   6.042   9.058   7.561 -1.2436 -0.4418  0.8936
11697SOL     OW45020   3.171   1.416   8.311  0.1484  0.0618 -1.2399
11697SOL    HW145021   3.087   1.406   8.355 -0.6031  1.3424 -2.2734
11697SOL    HW245022   3.165   1.362   8.233  0.1405  0.4222 -1.4934
11698SOL     OW45023   9.359  12.754   2.146  0.1232 -0.0041 -0.5189
11698SOL    HW145024   9.440  12.718   2.109 -0.1690 -0.1455 -1.0261
11698SOL    HW245025   9.389  12.824   2.204  0.5915  0.1804 -0.9674
11699SOL     OW45026   1.998   8.591  12.885 -0.2841  0.2940 -0.1633
11699SOL    HW145027   2.059   8.664  12.874  1.4350 -1.2025 -1.2379
11699SOL    HW245028   1.958   8.580  12.798  0.1826 -0.5907 -0.2847
11700SOL     OW45029   7.323   5.029  12.048  0.4693 -0.1876  0.0477
11700SOL    HW145030   7.331   5.088  11.973  1.3185 -2.0872 -1.4549
11700SOL    HW245031   7.399   5.049  12.102 -0.0804  1.1181  0.3772
11701SOL     OW45032   8.578   0.511   2.467  0.1193 -0.1355 -0.5341
11701SOL    HW145033   8.494   0.540   2.431 -0.1070  1.1333  0.9373
11701SOL    HW245034   8.611   0.586   2.516  1.6988 -0.9163 -0.3378
11702SOL     OW45035   1.572   1.251  13.279  0.4038 -0.5451  0.2391
11702SOL    HW145036   1.632   1.322  13.255  0.3307 -0.5978 -0.1032
11702SOL    HW245037   1.622   1.171  13.264 -0.4525 -0.7053 -2.2106
11703SOL     OW45038  13.140   1.301   1.043 -0.1714 -0.0635 -0.2099
11703SOL    HW145039  13.163   1.209   1.058 -0.3260 -0.4434 -2.0703
11703SOL    HW245040  13.045   1.301   1.031 -0.0414  0.1318 -1.3815
11704SOL     OW45041  11.755   9.439   7.161 -0.1691  0.3819  0.3437
11704SOL    HW145042  11.722   9.489   7.236 -2.8797 -0.7305  0.0271
11704SOL    HW245043  11.697   9.463   7.089 -0.5950 -1.9857 -0.2008
11705SOL     OW45044   7.982   0.951  10.775  0.1160  0.0124 -0.1259
11705SOL    HW145045   8.004   0.898  10.698 -0.4946  0.0170 -0.3047
11705SOL    HW245046   7.887   0.947  10.782  0.0615  0.9984 -0.0759
11706SOL     OW45047   8.158   6.703  12.300  0.1698 -0.1307  0.2818
11706SOL    HW145048   8.254   6.708  12.297  0.2648 -1.6624 -0.1475
11706SOL    HW245049   8.134   6.651  12.223 -1.0115  0.2118  0.3957
11707SOL     OW45050  10.523   1.496  12.674 -0.3271  0.1410 -0.3260
11707SOL    HW145051  10.545   1.449  12.755 -0.2391  0.6428 -0.0529
11707SOL    HW245052  10.484   1.578  12.704 -1.4071 -0.1832 -0.8022
11708SOL     OW45053   6.175   2.880   3.779 -0.7861 -0.1988 -0.0751
11708SOL    HW145054   6.207   2.971   3.784  0.2740 -0.5670  0.1281
11708SOL    HW245055   6.096   2.886   3.724  0.6419  0.5151 -2.2058
11709SOL     OW45056   9.692   0.547   7.109  0.0605  0.6211  0.1312
11709SOL    HW145057   9.760   0.591   7.058  1.5563  0.5161  1.9002
11709SOL    HW245058   9.736   0.470   7.147 -1.9505 -1.3651 -1.2714
11710SOL     OW45059  10.123  12.230   5.522  0.3345  0.2037 -0.4617
11710SOL    HW145060  10.110  12.304   5.581  0.0065  0.9832 -1.4790
11710SOL    HW245061  10.035  12.210   5.488  0.1353 -1.6982  0.9667
11711SOL     OW45062   7.931   3.590   1.592 -0.7261  0.1228 -0.3595
11711SOL    HW145063   7.883   3.666   1.560 -2.1501 -0.4446  0.3715
11711SOL    HW245064   7.958   3.614   1.680  0.4684  0.4768 -0.7977
11712SOL     OW45065   5.204   9.132   6.465  0.4585 -0.3128 -0.0730
11712SOL    HW145066   5.182   9.102   6.377 -0.1858 -1.4676  0.4568
11712SOL    HW245067   5.299   9.128   6.469  0.5410  0.5327 -0.9756
11713SOL     OW45068   3.722   2.538   7.471 -0.2498 -0.1229  0.2227
11713SOL    HW145069   3.668   2.615   7.454  1.6558  1.5295  1.2389
11713SOL    HW245070   3.761   2.517   7.386  1.5186  1.9245  0.4738
11714SOL     OW45071  12.081   0.702   0.860 -0.7172 -0.2210  0.4573
11714SOL    HW145072  12.029   0.747   0.793  2.1239  2.2544 -0.3002
11714SOL    HW245073  12.024   0.702   0.937 -2.8793 -0.2503 -1.0397
11715SOL     OW45074   2.074   9.414  11.716 -0.4096  0.2259  0.5495
11715SOL    HW145075   2.070   9.462  11.799  0.0736 -0.1939  0.8185
11715SOL    HW245076   1.983   9.412  11.685 -0.6138  0.2457  1.1458
11716SOL     OW45077   2.087  12.356   4.755 -1.1855  0.1069 -0.3139
11716SOL    HW145078   2.008  12.402   4.785 -1.3648 -0.6039  0.3401
11716SOL    HW245079   2.148  12.426   4.731 -0.3576  0.8456  3.3688
11717SOL     OW45080   4.164   4.420   1.685 -0.3062 -0.7333  0.5385
11717SOL    HW145081   4.113   4.434   1.606 -0.4330 -0.2883  0.6993
11717SOL    HW245082   4.115   4.352   1.733 -0.4807 -0.6661  0.4574
11718SOL     OW45083  13.309  10.947   0.390  0.1080  0.0495  0.2907
11718SOL    HW145084  13.289  11.030   0.348  0.3775  1.0790  2.1080
11718SOL    HW245085  13.245  10.940   0.461 -0.4601 -1.7258 -0.3396
11719SOL     OW45086   0.186  13.230   9.449 -0.1088 -0.5636 -0.0359
11719SOL    HW145087   0.240  13.222   9.370  0.8357 -0.6296  0.6071
11719SOL    HW245088   0.098  13.209   9.419 -0.0186  0.7976 -1.3829
11720SOL     OW45089  10.686  12.913   0.882 -0.0917 -0.1658 -0.5828
11720SOL    HW145090  10.739  12.963   0.820 -0.0101  0.2273 -0.2036
11720SOL    HW245091  10.751  12.870   0.939  0.0908 -4.2230 -3.4455
11721SOL     OW45092   3.496  13.166   5.942  0.0337 -0.1248  0.2624
11721SOL    HW145093   3.457  13.248   5.973  2.0105  0.8611  0.3615
11721SOL    HW245094   3.424  13.103   5.941 -1.2189  1.1958  1.7322
11722SOL     OW45095  12.914   2.526   1.471 -0.5073  0.1259  0.3557
11722SOL    HW145096  12.971   2.474   1.527  0.1188 -0.3433 -0.6800
11722SOL    HW245097  12.912   2.613   1.512 -2.9017 -1.0677  3.0432
11723SOL     OW45098   0.354   9.334   6.365  0.6345 -0.3066  0.6173
11723SOL    HW145099   0.283   9.376   6.414 -0.1497  0.7017 -1.2519
11723SOL    HW245100   0.405   9.288   6.431 -0.7588  0.3781  2.2590
11724SOL     OW45101   4.037   2.234   3.922 -0.0337 -0.5924  0.8339
11724SOL    HW145102   4.064   2.147   3.952 -1.2184 -1.2985 -0.0779
11724SOL    HW245103   3.970   2.217   3.856 -0.8670  1.0454  1.2146
11725SOL     OW45104   0.655   3.967   6.978  0.4474  0.2292  0.1677
11725SOL    HW145105   0.730   3.913   6.952 -0.4756 -0.9971 -0.0110
11725SOL    HW245106   0.653   3.962   7.074  0.3881 -0.0266  0.1533
11726SOL     OW45107   0.978   1.585   5.773 -0.1364 -0.1837 -0.4103
11726SOL    HW145108   0.955   1.658   5.715  0.2435 -0.2994 -0.7166
11726SOL    HW245109   0.960   1.617   5.861  0.0820  0.3060 -0.5403
11727SOL     OW45110   7.794  12.146  12.821  0.5419  0.1711 -0.0731
11727SOL    HW145111   7.821  12.076  12.762  0.3884 -0.3211  0.4302
11727SOL    HW245112   7.862  12.148  12.889 -1.2490 -1.9922  1.9721
11728SOL     OW45113   9.507   0.212   1.066 -0.1632 -0.3684  0.1703
11728SOL    HW145114   9.485   0.301   1.091  0.5185 -0.1224 -0.0674
11728SOL    HW245115   9.602   0.214   1.050 -0.3034 -0.8894 -0.8235
11729SOL     OW45116   0.324   5.239   1.168  0.1632  0.4608  0.7619
11729SOL    HW145117   0.306   5.324   1.208  1.1121  0.3473  1.4557
11729SOL    HW245118   0.300   5.250   1.076 -3.4041  0.3373  1.5375
11730SOL     OW45119   7.209   7.577  12.613 -0.3847 -0.6868 -0.3244
11730SOL    HW145120   7.194   7.672  12.618 -0.1486 -0.6974  0.9506
11730SOL    HW245121   7.280   7.561  12.675  0.7413 -1.4856 -1.7507
11731SOL     OW45122   6.842  11.309  10.525 -0.4037  0.3142 -0.1760
11731SOL    HW145123   6.836  11.373  10.455  2.2828 -0.3658 -1.1388
11731SOL    HW245124   6.777  11.242  10.502 -0.9148  1.0458 -0.9169
11732SOL     OW45125   4.840   9.486   9.928  0.3750  0.2088  0.3667
11732SOL    HW145126   4.842   9.563   9.986 -1.1188  0.1567  0.5409
11732SOL    HW245127   4.803   9.520   9.846 -0.9276 -0.4430  0.6678
11733SOL     OW45128   0.483   4.712  11.912 -0.1772 -0.0306  0.3884
11733SOL    HW145129   0.404   4.765  11.926 -0.4440 -0.3561  0.1253
11733SOL    HW245130   0.463   4.629  11.954  1.5668  1.1564  3.9801
11734SOL     OW45131   4.687   4.790   0.321 -0.5146 -0.2798 -0.5711
11734SOL    HW145132   4.615   4.850   0.301  0.0797  0.6671  0.0385
11734SOL    HW245133   4.663   4.708   0.279 -1.2141  0.4732 -1.6908
11735SOL     OW45134   3.571   2.863   2.179 -0.0016  0.3806 -0.2491
11735SOL    HW145135   3.501   2.835   2.237 -0.7315  0.5900 -1.0150
11735SOL    HW245136   3.652   2.840   2.226 -0.5413  1.8241  1.4923
11736SOL     OW45137   3.521   1.711   1.828 -0.0824 -0.0624 -0.0653
11736SOL    HW145138   3.573   1.783   1.792  0.3495 -0.9882 -1.3668
11736SOL    HW245139   3.430   1.738   1.814  0.0607  0.6501  0.3427
11737SOL     OW45140  10.473   6.771   1.568 -0.2103 -0.4814  0.5988
11737SOL    HW145141  10.497   6.689   1.525 -1.8913 -0.3185 -0.7802
11737SOL    HW245142  10.549   6.794   1.621  0.4529 -2.7011  0.6863
11738SOL     OW45143  11.625   6.339   2.805 -0.5610  0.1195 -0.7032
11738SOL    HW145144  11.531   6.319   2.803 -1.8707  4.8841  0.0934
11738SOL    HW245145  11.645   6.369   2.716 -0.2578  0.6034 -0.4778
11739SOL     OW45146   0.645   2.133   2.808  0.2424 -0.1206 -0.5887
11739SOL    HW145147   0.579   2.065   2.793  1.0686 -0.8308 -1.1111
11739SOL    HW245148   0.606   2.213   2.772 -1.2695 -0.0023  1.1646
11740SOL     OW45149  11.302  12.362  11.914  0.4349 -0.9469 -0.6859
11740SOL    HW145150  11.327  12.302  11.985 -0.6065  1.6183  2.0986
11740SOL    HW245151  11.384  12.402  11.888  0.9125 -2.3280 -1.4104
11741SOL     OW45152  10.345   6.444   1.739 -0.1437  0.1888 -0.2130
11741SOL    HW145153  10.427   6.442   1.689 -0.8034 -1.6270 -1.2916
11741SOL    HW245154  10.277   6.455   1.673 -1.0157 -2.0734  0.2326
11742SOL     OW45155  12.332   4.767   1.714  0.5347  0.4507  0.1414
11742SOL    HW145156  12.376   4.735   1.793  2.5120 -1.4580 -1.6041
11742SOL    HW245157  12.294   4.688   1.675  2.6173  0.6416 -2.5681
11743SOL     OW45158   8.627  10.382  11.795  0.4323 -0.3924  0.0401
11743SOL    HW145159   8.558  10.449  11.790  2.1027  1.4373  0.2568
11743SOL    HW245160   8.667  10.395  11.882  2.2403 -0.1300 -0.7888
11744SOL     OW45161   1.023   0.532   5.561 -0.6128 -0.1047 -0.0512
11744SOL    HW145162   1.110   0.541   5.601 -0.1941  1.7793 -1.2821
11744SOL    HW245163   0.979   0.614   5.582 -0.8867  0.3462 -2.1832
11745SOL     OW45164   8.931   7.149   7.137 -0.1334 -0.2341 -0.1309
11745SOL    HW145165   8.952   7.060   7.109  0.9681 -0.2215  0.6175
11745SOL    HW245166   9.015   7.188   7.161 -0.3886  1.5448 -1.8833
11746SOL     OW45167   5.418   4.893   7.837 -0.5674 -0.0939 -0.1431
11746SOL    HW145168   5.417   4.799   7.821 -2.7958  0.0610 -1.3210
11746SOL    HW245169   5.361   4.904   7.913  0.4751  0.2541  0.6147
11747SOL     OW45170   0.095  10.498   7.620 -0.0884 -0.3185  0.2795
11747SOL    HW145171   0.039  10.574   7.603  2.0419  1.3968  0.5427
11747SOL    HW245172   0.098  10.452   7.536 -1.5179 -0.2154  0.1460
11748SOL     OW45173   1.038  11.155   0.655 -0.0917 -0.0645 -0.0788
11748SOL    HW145174   1.102  11.149   0.727  1.0647 -1.4841 -1.1739
11748SOL    HW245175   0.986  11.075   0.663 -1.6214  0.9443  0.6275
11749SOL     OW45176   2.122  12.289  10.763  0.1735 -0.2422 -0.4252
11749SOL    HW145177   2.217  12.278  10.751  0.6863  2.0122  0.8542
11749SOL    HW245178   2.114  12.330  10.849 -2.1301 -1.8049  0.2031
11750SOL     OW45179   7.779   8.116  12.870  0.5026  0.3612 -0.1082
11750SOL    HW145180   7.856   8.066  12.899  0.9589 -0.0813 -1.9515
11750SOL    HW245181   7.814   8.203  12.851  0.1890  0.6718  0.6807
11751SOL     OW45182  10.955  12.133   1.060 -0.1127  0.4875 -0.4876
11751SOL    HW145183  11.013  12.059   1.078 -0.1539  0.2880 -1.1698
11751SOL    HW245184  10.913  12.151   1.144  2.3538  1.8722  0.5630
11752SOL     OW45185   3.715   2.294   9.740  0.6096 -0.0050 -0.1935
11752SOL    HW145186   3.661   2.371   9.720 -0.4940 -0.6820  0.1168
11752SOL    HW245187   3.652   2.222   9.747  1.5086 -0.7195  0.7046
11753SOL     OW45188   9.333   7.999   7.293 -0.6850  0.3878 -0.4829
11753SOL    HW145189   9.303   7.911   7.315 -0.5232  0.5733  0.5437
11753SOL    HW245190   9.253   8.050   7.280 -0.8759  0.7805  1.8412
11754SOL     OW45191  12.736  12.562   0.324 -0.3684 -0.2351  0.5363
11754SOL    HW145192  12.672  12.631   0.340  0.0200  0.2686 -0.0578
11754SOL    HW245193  12.821  12.604   0.334 -0.1152 -0.8842  1.2530
11755SOL     OW45194   9.296   0.269  10.148  0.4743  0.4839 -0.4484
11755SOL    HW145195   9.212   0.295  10.110  0.3719  0.1740 -0.4327
11755SOL    HW245196   9.273   0.216  10.224  0.6810  1.0485  0.0112
11756SOL     OW45197  11.443  13.123   5.650  0.5680 -0.9754 -0.3739
11756SOL    HW145198  11.430  13.093   5.560  0.4127 -2.3301  0.0754
11756SOL    HW245199  11.415  13.214   5.649  0.8954 -0.8581 -1.7736
11757SOL     OW45200  11.351  11.961   2.373  0.3339 -0.1499 -0.3669
11757SOL    HW145201  11.435  11.956   2.420  0.7537  0.7631 -0.9911
11757SOL    HW245202  11.328  11.870   2.356 -0.0829 -0.5625  2.0266
11758SOL     OW45203   3.488   9.295   5.394 -0.0099 -0.5483 -0.1388
11758SOL    HW145204   3.463   9.351   5.467 -0.9333  1.8106 -2.1206
11758SOL    HW245205   3.583   9.303   5.389  0.0777 -0.8295  0.8355
11759SOL     OW45206  10.030   2.986   0.725  0.1341 -0.3958 -0.1044
11759SOL    HW145207   9.969   2.913   0.735 -2.4084  1.5939  0.1130
11759SOL    HW245208  10.117   2.948   0.741 -1.1830 -3.0381  1.4523
11760SOL     OW45209   6.755   9.961   0.317  0.3001  0.1201 -0.1624
11760SOL    HW145210   6.808  10.021   0.370 -0.7661  2.8167 -1.9176
11760SOL    HW245211   6.804   9.952   0.235 -0.1032 -0.5437 -0.3407
11761SOL     OW45212  10.181   2.361   2.615  0.1915  0.1500 -0.1124
11761SOL    HW145213  10.166   2.304   2.539  2.5382 -0.2479 -0.3471
11761SOL    HW245214  10.211   2.301   2.683  0.9072  0.8716  0.2179
11762SOL     OW45215  12.730   9.291   0.593 -0.4104  0.8345 -1.3255
11762SOL    HW145216  12.668   9.364   0.598 -1.6945 -0.3343  1.5235
11762SOL    HW245217  12.804   9.318   0.647 -0.4443  0.4045 -1.0647
11763SOL     OW45218   0.541   3.855  12.718 -0.0433  0.0915 -0.0035
11763SOL    HW145219   0.482   3.918  12.760 -1.5062 -1.2123  0.0075
11763SOL    HW245220   0.560   3.893  12.633 -2.9503 -0.5040 -1.0424
11764SOL     OW45221   3.641   0.220   9.428  0.2327 -0.1215  0.1872
11764SOL    HW145222   3.648   0.294   9.368 -0.4264  0.0852  0.3510
11764SOL    HW245223   3.579   0.249   9.495 -0.7049 -1.1165 -0.2139
11765SOL     OW45224   9.457   0.014   3.994 -0.4124 -0.0559 -0.3429
11765SOL    HW145225   9.466   0.106   4.020 -1.5598 -0.2616  0.8995
11765SOL    HW245226   9.509  -0.034   4.058 -0.0325 -0.3063 -0.8296
11766SOL     OW45227   2.186   2.258  13.238  0.5869  0.3583  0.1887
11766SOL    HW145228   2.206   2.186  13.178  0.4970  0.6812 -0.2388
11766SOL    HW245229   2.193   2.337  13.184  0.0269  0.6221  0.4846
11767SOL     OW45230   7.524   4.590  10.316 -0.0127  0.1040 -0.5994
11767SOL    HW145231   7.556   4.614  10.404 -0.7902  0.9629 -0.5408
11767SOL    HW245232   7.454   4.653  10.298 -1.3518 -1.4365 -0.9259
11768SOL     OW45233   1.972   1.215   9.097 -0.0336 -0.0242 -0.3082
11768SOL    HW145234   2.051   1.196   9.146 -0.6563 -1.0967  0.3099
11768SOL    HW245235   1.977   1.159   9.020 -0.5340 -0.6549  0.1071
11769SOL     OW45236   0.343   4.766   6.048 -0.1996 -0.1091 -0.2565
11769SOL    HW145237   0.250   4.751   6.066  0.1940  0.3454  2.8123
11769SOL    HW245238   0.382   4.678   6.048 -0.3092 -0.1881  1.0856
11770SOL     OW45239   1.837  11.784   6.748 -0.1351 -0.4220 -0.4144
11770SOL    HW145240   1.746  11.813   6.750  0.2844  1.0507 -1.1036
11770SOL    HW245241   1.859  11.765   6.839 -1.0583 -0.5874 -0.2207
11771SOL     OW45242   7.648   5.739   0.466 -0.7348  0.4339  0.3784
11771SOL    HW145243   7.638   5.673   0.398  1.4793  0.4222 -0.0133
11771SOL    HW245244   7.567   5.790   0.463 -0.7248  0.4058 -2.2261
11772SOL     OW45245   3.347   2.526  10.202 -0.3162 -0.1473  0.7607
11772SOL    HW145246   3.337   2.560  10.113  0.1216 -0.0521  0.7410
11772SOL    HW245247   3.344   2.431  10.192 -0.9038 -0.1242  0.7288
11773SOL     OW45248   2.776   3.090   9.342  0.4626  0.0698  0.2974
11773SOL    HW145249   2.707   3.146   9.306  0.5413  0.4248  0.6959
11773SOL    HW245250   2.759   3.087   9.436  0.1675 -0.9814  0.2295
11774SOL     OW45251   9.444   9.411   0.795  0.3193  0.2007  0.0355
11774SOL    HW145252   9.371   9.470   0.776  0.6805  1.1812  1.5383
11774SOL    HW245253   9.518   9.447   0.747  0.5106  0.9292  0.8591
11775SOL     OW45254   7.305  10.076   5.796 -0.3026  0.2105  0.2204
11775SOL    HW145255   7.380  10.019   5.780 -0.5846 -0.6399  1.7631
11775SOL    HW245256   7.235  10.016   5.822 -0.8896  1.1789  0.9139
11776SOL     OW45257   8.051   7.682   9.115 -0.9197 -0.9958 -0.0936
11776SOL    HW145258   7.987   7.615   9.137  0.3745 -1.4605  2.7032
11776SOL    HW245259   8.007   7.765   9.134 -1.8652 -1.0766 -1.7278
11777SOL     OW45260   3.236   5.312  12.906 -0.1815 -0.1707  0.8617
11777SOL    HW145261   3.219   5.221  12.931 -1.2926  0.3373  2.1033
11777SOL    HW245262   3.279   5.306  12.821 -0.6804 -1.8336  0.6869
11778SOL     OW45263   3.974   0.765   9.898 -0.3110  0.3716 -0.2080
11778SOL    HW145264   4.064   0.735   9.913  0.2724  2.2021  0.1964
11778SOL    HW245265   3.937   0.773   9.986 -0.2960  1.2460 -0.2755
11779SOL     OW45266   0.453  11.788   9.963  0.2004 -0.3263  0.0716
11779SOL    HW145267   0.462  11.865  10.019 -0.1374  1.3470 -2.0358
11779SOL    HW245268   0.542  11.755   9.953  0.2500 -0.7325  1.6426
11780SOL     OW45269  12.033   6.546   5.083  0.0619 -0.0727 -0.3428
11780SOL    HW145270  12.051   6.636   5.109  0.1960  0.5083 -2.2886
11780SOL    HW245271  11.952   6.523   5.129  1.2987  0.1246  2.1018
11781SOL     OW45272   4.360   5.207   7.069 -0.1762 -0.4102 -0.5967
11781SOL    HW145273   4.308   5.167   7.138 -0.4339  2.5031  1.0442
11781SOL    HW245274   4.439   5.152   7.063 -1.2516 -2.1353  0.2198
11782SOL     OW45275  11.786   2.076   9.082  0.0208 -0.2027  0.5386
11782SOL    HW145276  11.856   2.068   9.017 -1.9322 -0.4121 -1.6452
11782SOL    HW245277  11.796   2.165   9.117  1.2658 -0.1803  0.1714
11783SOL     OW45278   1.065  10.949   2.457  0.4378 -0.1012 -0.2721
11783SOL    HW145279   1.077  10.924   2.548 -0.4445  0.8962  0.1399
11783SOL    HW245280   1.019  10.875   2.417 -0.9903  0.2677  0.6134
11784SOL     OW45281  11.713   8.293   6.559 -0.3059  0.1825 -0.3054
11784SOL    HW145282  11.622   8.314   6.580 -0.6333 -1.0783 -0.3637
11784SOL    HW245283  11.732   8.344   6.480 -0.7886  0.8460 -0.0037
11785SOL     OW45284   1.567   1.493   3.671 -0.0989 -0.6468 -0.8823
11785SOL    HW145285   1.549   1.406   3.636  1.7876 -0.5754 -2.2071
11785SOL    HW245286   1.663   1.500   3.671 -0.1834  1.2031 -0.2361
11786SOL     OW45287  11.523   0.876   6.216  0.0882 -0.3305  0.6751
11786SOL    HW145288  11.521   0.958   6.265 -1.4966  0.6169 -0.8766
11786SOL    HW245289  11.453   0.823   6.254 -0.1997 -0.1601  0.3893
11787SOL     OW45290   9.097   8.161   3.658  0.0858 -0.7919 -0.3746
11787SOL    HW145291   9.100   8.229   3.591  0.5756 -1.0608 -0.6304
11787SOL    HW245292   9.036   8.096   3.622 -0.7430 -0.2906  0.0735
11788SOL     OW45293  11.413   8.665   8.204  0.0683  0.1721  0.6441
11788SOL    HW145294  11.483   8.711   8.157  0.1593  0.5166  1.1046
11788SOL    HW245295  11.449   8.651   8.291 -0.9138  1.5437  1.3115
11789SOL     OW45296   0.361   4.829   2.302  0.5621  0.1672 -0.2298
11789SOL    HW145297   0.377   4.910   2.349 -1.7949 -0.3549  1.6818
11789SOL    HW245298   0.406   4.761   2.353  0.3838 -0.0486 -0.3551
11790SOL     OW45299   9.361   1.076  11.215 -0.1426 -0.1895  0.4149
11790SOL    HW145300   9.295   1.114  11.157 -0.0058  0.5186  0.7020
11790SOL    HW245301   9.319   1.076  11.301  0.5434  1.1833  0.7924
11791SOL     OW45302   3.408   4.377   5.268  0.0283 -0.2544 -0.3655
11791SOL    HW145303   3.431   4.315   5.337  0.3295  0.3598  0.0856
11791SOL    HW245304   3.312   4.377   5.267  0.0130  0.3372  0.5979
11792SOL     OW45305   1.434   2.985  13.252  0.2818 -0.3223  0.2528
11792SOL    HW145306   1.520   3.025  13.239  0.5182 -0.2951  1.6648
11792SOL    HW245307   1.376   3.060  13.271  0.7248 -0.5389  2.9042
11793SOL     OW45308  10.359   3.857  11.004  0.7104  0.3801  0.1351
11793SOL    HW145309  10.383   3.814  11.087 -1.5683 -3.0293 -0.7583
11793SOL    HW245310  10.398   3.801  10.937 -1.4801  0.2941 -1.1212
11794SOL     OW45311   1.993   2.458  10.542  0.1302 -0.0332  0.0416
11794SOL    HW145312   2.088   2.465  10.549  0.1826 -0.5299 -0.1514
11794SOL    HW245313   1.969   2.392  10.608 -0.3960  2.1266  2.1544
11795SOL     OW45314   3.302   0.423  13.277  0.3897 -1.0267 -0.0344
11795SOL    HW145315   3.262   0.488  13.335 -1.2800 -0.1355 -2.0306
11795SOL    HW245316   3.393   0.450  13.271 -0.1972  1.0242 -0.5751
11796SOL     OW45317   5.788   6.600   1.821 -0.5334 -0.2088 -0.3682
11796SOL    HW145318   5.863   6.626   1.874 -0.5543  0.9911 -0.8963
11796SOL    HW245319   5.800   6.647   1.738 -1.3827 -0.7255 -0.7962
11797SOL     OW45320   8.319   7.796   0.550  0.4939 -0.2037  0.1518
11797SOL    HW145321   8.376   7.774   0.624 -1.1320 -0.2035  1.4637
11797SOL    HW245322   8.287   7.711   0.518 -0.0267 -0.1264  0.4633
11798SOL     OW45323   6.435  10.438   0.771  0.0838 -0.6655 -0.0260
11798SOL    HW145324   6.458  10.414   0.861 -1.3711  0.4865  0.6997
11798SOL    HW245325   6.519  10.445   0.726  0.9062 -0.4244  1.4730
11799SOL     OW45326   2.937   7.831  10.764 -0.6882 -0.6640 -0.2926
11799SOL    HW145327   3.011   7.801  10.710 -0.8862  1.1348 -1.6532
11799SOL    HW245328   2.921   7.758  10.824  2.6503 -0.8742  0.5751
11800SOL     OW45329   1.737  12.642   3.031  0.0120 -0.1808 -0.1579
11800SOL    HW145330   1.770  12.587   2.960 -0.0608  0.3792 -0.6275
11800SOL    HW245331   1.814  12.659   3.086  0.3763  0.5640 -0.8830
11801SOL     OW45332  10.278   3.360   5.631 -0.2669 -0.2624 -0.0278
11801SOL    HW145333  10.254   3.381   5.540 -1.5865 -0.6581  0.2030
11801SOL    HW245334  10.357   3.411   5.647 -0.7828  0.9038 -0.9680
11802SOL     OW45335  11.321   1.187   0.564  0.3656 -0.1307 -0.1886
11802SOL    HW145336  11.292   1.097   0.574  0.1854 -0.2536 -1.6178
11802SOL    HW245337  11.417   1.181   0.561  0.3392 -0.3496 -0.7981
11803SOL     OW45338   6.285  12.945   5.835 -0.0717  0.2347 -0.2764
11803SOL    HW145339   6.234  12.965   5.914 -0.7663  0.6611 -0.8223
11803SOL    HW245340   6.357  13.007   5.836 -0.7437  1.0446 -0.5837
11804SOL     OW45341   5.689  13.018   1.801  0.4672 -0.0744  0.0444
11804SOL    HW145342   5.708  12.980   1.715  0.5173  0.8117 -0.3486
11804SOL    HW245343   5.773  13.052   1.831  0.7353 -1.5883  1.0684
11805SOL     OW45344   6.338   2.116   4.236 -0.6934 -0.1394  0.0697
11805SOL    HW145345   6.361   2.070   4.316 -1.1470 -1.0088 -0.2935
11805SOL    HW245346   6.416   2.110   4.181 -0.5929 -0.0707  0.2054
11806SOL     OW45347   4.701   6.194   1.792  0.2432 -0.1310 -0.2490
11806SOL    HW145348   4.778   6.179   1.736  0.0101 -0.5475 -0.4665
11806SOL    HW245349   4.628   6.161   1.739 -0.5639  3.2859 -1.5064
11807SOL     OW45350   3.189   8.823  10.187  0.0841 -0.1894 -0.1688
11807SOL    HW145351   3.208   8.835  10.280  0.6089 -0.9040 -0.1804
11807SOL    HW245352   3.129   8.749  10.184  1.2440 -1.1549 -0.4878
11808SOL     OW45353   8.833   8.300   8.769  0.1391 -0.5412  0.1069
11808SOL    HW145354   8.899   8.263   8.828 -0.6833 -2.0973  0.0948
11808SOL    HW245355   8.763   8.329   8.827 -0.1464 -0.9648 -0.0252
11809SOL     OW45356   8.662  10.563  10.781 -0.5586  0.0964  0.4478
11809SOL    HW145357   8.734  10.507  10.808 -0.4594 -0.2620 -0.5385
11809SOL    HW245358   8.701  10.649  10.767 -0.3539 -0.0529  0.0984
11810SOL     OW45359   9.706  11.985   3.008  0.1359  0.2474 -0.0189
11810SOL    HW145360   9.724  11.946   3.094  3.7855  0.4101 -0.5624
11810SOL    HW245361   9.675  11.911   2.955  0.2453 -0.3898  0.7722
11811SOL     OW45362   8.554  11.051   0.538 -0.6111 -0.2429 -0.0497
11811SOL    HW145363   8.646  11.054   0.510 -0.4922  1.3919  0.3784
11811SOL    HW245364   8.551  10.985   0.606 -0.0384 -1.2776 -0.9991
11812SOL     OW45365   1.880   3.366   9.343 -0.1275  0.0885 -0.5164
11812SOL    HW145366   1.795   3.347   9.384  0.5137 -0.8698  0.4111
11812SOL    HW245367   1.879   3.317   9.261  0.1457 -1.2129  0.2428
11813SOL     OW45368  11.475   9.508   3.116 -0.3751 -0.0503 -0.0602
11813SOL    HW145369  11.483   9.603   3.108  0.3975 -0.0813  0.2217
11813SOL    HW245370  11.554   9.482   3.163 -0.7968 -0.7844  0.2594
11814SOL     OW45371   1.628   3.947   3.773  0.2193 -0.1131 -0.0839
11814SOL    HW145372   1.596   3.870   3.726 -1.1918  2.0366 -2.9803
11814SOL    HW245373   1.562   3.964   3.840 -1.9050  0.8828 -2.2303
11815SOL     OW45374   2.511   2.403   5.427  0.3394 -0.3363 -0.1823
11815SOL    HW145375   2.422   2.437   5.421  0.5463  0.3637  0.5009
11815SOL    HW245376   2.551   2.428   5.344  0.0383 -0.2439 -0.3032
11816SOL     OW45377  12.283   9.118   9.549  0.0556 -0.0442 -0.0450
11816SOL    HW145378  12.230   9.048   9.587  1.5174 -1.1463  0.0698
11816SOL    HW245379  12.307   9.086   9.462  0.1696  0.6371 -0.2723
11817SOL     OW45380   1.199   0.969   0.346 -0.8239 -0.2492 -0.0801
11817SOL    HW145381   1.106   0.954   0.331 -0.9273  0.2217  0.0547
11817SOL    HW245382   1.211   0.954   0.439 -0.8134 -0.0754 -0.0531
11818SOL     OW45383   9.229   7.496   1.673  0.8371  0.4792 -0.0166
11818SOL    HW145384   9.147   7.497   1.623  0.3262  1.6081  0.7791
11818SOL    HW245385   9.259   7.406   1.668 -0.5253  0.0071 -0.2344
11819SOL     OW45386   4.175   6.358   3.339  0.1003 -0.5013  0.5051
11819SOL    HW145387   4.243   6.384   3.277  0.1502  1.5233  1.3487
11819SOL    HW245388   4.100   6.412   3.317  1.0184  2.5395  3.9478
11820SOL     OW45389   2.600   5.690   6.479  0.6229  0.0332 -0.2827
11820SOL    HW145390   2.686   5.675   6.439 -0.1437 -0.2950 -1.8808
11820SOL    HW245391   2.562   5.761   6.428 -0.0793  0.1464  0.3884
11821SOL     OW45392   6.929   9.172   3.280 -0.2504 -0.1905  0.5510
11821SOL    HW145393   6.942   9.223   3.200 -0.5286  0.7512  1.0918
11821SOL    HW245394   7.004   9.193   3.334 -0.3802 -0.3388  0.7895
11822SOL     OW45395   7.715   6.037  10.638  0.1526 -0.3905  0.0688
11822SOL    HW145396   7.801   6.022  10.600 -0.0204 -0.5757 -0.2541
11822SOL    HW245397   7.682   6.114  10.594  0.9143  0.8142  1.5138
11823SOL     OW45398   6.270  12.900   4.750  0.0290 -0.0302  0.6953
11823SOL    HW145399   6.184  12.943   4.749 -0.9821 -1.9033  1.8512
11823SOL    HW245400   6.250  12.807   4.759  2.1671 -0.6913 -0.7888
11824SOL     OW45401   5.851   8.676   1.196 -0.1743  0.0019 -0.5344
11824SOL    HW145402   5.879   8.586   1.204 -0.3794 -0.2873 -2.5437
11824SOL    HW245403   5.892   8.708   1.116  2.6515  2.8168  1.7623
11825SOL     OW45404   3.820   8.745   5.147 -0.1247  0.2844  0.2407
11825SOL    HW145405   3.895   8.726   5.090 -0.5802 -0.3294 -0.1609
11825SOL    HW245406   3.800   8.837   5.131  0.9775  0.6569  0.8693
11826SOL     OW45407  11.600   0.597  10.992  0.3296 -0.0941 -0.3282
11826SOL    HW145408  11.657   0.522  10.979 -0.2947 -0.8697  1.1356
11826SOL    HW245409  11.511   0.561  10.985  0.0181  0.6518 -0.3457
11827SOL     OW45410  10.738  10.363   8.461 -0.3211  0.2038  0.4100
11827SOL    HW145411  10.731  10.433   8.526 -1.2124  0.1336  0.4102
11827SOL    HW245412  10.823  10.323   8.477  0.0861  1.1189  0.5795
11828SOL     OW45413  10.920  10.934   8.420  0.3322 -0.2030 -0.0587
11828SOL    HW145414  10.918  11.007   8.483 -0.9152 -0.1253 -0.1717
11828SOL    HW245415  10.997  10.951   8.366  0.9092  0.2158  0.8726
11829SOL     OW45416   6.858   1.654   2.389 -0.1762 -0.2578  0.1687
11829SOL    HW145417   6.923   1.681   2.453  1.3702  1.9018 -2.0933
11829SOL    HW245418   6.810   1.583   2.431  1.0735  0.6512  3.4238
11830SOL     OW45419   6.967   6.881   5.012 -0.0115  0.9951  0.0720
11830SOL    HW145420   7.023   6.803   5.015 -0.2819  0.6475 -2.1568
11830SOL    HW245421   6.878   6.846   5.013 -0.1343  1.2519 -0.7471
11831SOL     OW45422   1.447   4.714  11.269 -0.2492 -0.0958  0.7063
11831SOL    HW145423   1.441   4.689  11.177 -0.8250 -0.9010  0.9462
11831SOL    HW245424   1.361   4.752  11.289  0.5228  1.8854  0.4200
11832SOL     OW45425   3.527   6.746   8.043 -0.0195 -0.1238  0.5761
11832SOL    HW145426   3.511   6.838   8.061  1.1150 -0.1527  1.9461
11832SOL    HW245427   3.440   6.705   8.048 -0.4071  0.7238  0.9481
11833SOL     OW45428   3.021  12.404  11.587 -0.4091 -0.2142  0.1194
11833SOL    HW145429   3.047  12.387  11.677  0.9276 -0.2796 -0.2609
11833SOL    HW245430   2.951  12.340  11.570 -1.3026  0.3861  1.3654
11834SOL     OW45431   6.173   1.765   5.533 -0.4432 -0.0525 -0.4459
11834SOL    HW145432   6.245   1.826   5.550  0.8604 -1.4113 -0.8164
11834SOL    HW245433   6.095   1.811   5.564  0.7274  0.9766  1.1756
11835SOL     OW45434   3.663   9.638   2.920 -0.0357  0.2545 -0.0883
11835SOL    HW145435   3.651   9.600   3.006  1.9903 -0.2274  0.0319
11835SOL    HW245436   3.656   9.564   2.859 -0.4479  0.4259 -0.2538
11836SOL     OW45437   9.178  13.039   2.434 -0.5047  0.2645  0.6081
11836SOL    HW145438   9.153  12.960   2.385  1.5394 -0.7885  1.1771
11836SOL    HW245439   9.215  13.097   2.367  2.0809 -1.0843  0.7565
11837SOL     OW45440   7.451   7.869  12.280 -0.4298  0.2578 -0.1156
11837SOL    HW145441   7.367   7.913  12.268 -0.5517  0.2537  0.6442
11837SOL    HW245442   7.496   7.878  12.196 -0.0279  2.7330  0.2754
11838SOL     OW45443   1.100   3.803  10.544  0.4784 -0.2453  0.0498
11838SOL    HW145444   1.182   3.821  10.590  0.5013 -1.6770  0.6199
11838SOL    HW245445   1.039   3.870  10.575  0.6349 -0.8747  1.8033
11839SOL     OW45446   8.123   6.900   0.266 -0.0138  0.4243  0.1106
11839SOL    HW145447   8.199   6.931   0.216  0.7189 -0.7770  0.4318
11839SOL    HW245448   8.150   6.904   0.357 -0.5266  0.4816  0.2640
11840SOL     OW45449   4.060   5.520   3.798 -0.2816  0.6452  0.0417
11840SOL    HW145450   4.001   5.445   3.791 -1.6930  1.7388 -0.1795
11840SOL    HW245451   4.058   5.542   3.891 -0.2337  0.6901  0.0318
11841SOL     OW45452   4.469   6.477  11.922 -0.0762  0.2927 -0.2401
11841SOL    HW145453   4.376   6.497  11.931 -0.4072 -0.9312 -0.6831
11841SOL    HW245454   4.490   6.425  11.999  0.1640  0.3249 -0.2818
11842SOL     OW45455   3.729   5.124   6.215  0.2517  0.2479 -0.1479
11842SOL    HW145456   3.715   5.216   6.192 -2.3591  0.2143  1.0252
11842SOL    HW245457   3.645   5.081   6.198  0.4832 -1.2876  2.1611
11843SOL     OW45458  11.522   0.495  12.965 -0.1203 -0.0553 -0.2942
11843SOL    HW145459  11.444   0.458  12.924 -2.0820  2.0794  1.2775
11843SOL    HW245460  11.489   0.544  13.041  2.6113  1.9600 -0.2464
11844SOL     OW45461  10.372   6.966   1.076 -0.2280 -0.6701  0.2153
11844SOL    HW145462  10.379   7.050   1.029 -0.9953 -0.9914 -0.4951
11844SOL    HW245463  10.310   6.984   1.147  0.3818 -0.3729  0.6778
11845SOL     OW45464   9.142  13.026   9.600 -0.1409  0.1641  0.5879
11845SOL    HW145465   9.148  12.932   9.612  0.8295  0.3237  1.5087
11845SOL    HW245466   9.146  13.038   9.505 -2.0962 -0.8006  0.3462
11846SOL     OW45467   2.569   5.117   9.955 -0.1791 -0.6205 -0.1957
11846SOL    HW145468   2.663   5.101   9.958 -0.2724 -1.4151 -1.0277
11846SOL    HW245469   2.560   5.206   9.920  0.2453 -1.0259 -1.3685
11847SOL     OW45470   4.971   0.460   3.964 -0.6830 -0.0788  0.3990
11847SOL    HW145471   4.882   0.456   3.999 -1.1474  0.5713 -0.6533
11847SOL    HW245472   4.986   0.372   3.929 -1.6336  0.2926 -1.0441
11848SOL     OW45473   0.568   0.798   0.676 -0.4175  0.0023  0.6072
11848SOL    HW145474   0.585   0.720   0.623 -2.7259  0.2169 -0.5529
11848SOL    HW245475   0.484   0.781   0.718 -0.6718  1.6104  0.8121
11849SOL     OW45476   6.854   6.864   3.053  0.1032  0.4540 -0.3082
11849SOL    HW145477   6.834   6.890   2.963  0.0041 -1.6633 -0.9773
11849SOL    HW245478   6.770   6.837   3.090  0.5331 -1.6510 -0.7015
11850SOL     OW45479   9.350  13.127   5.349  0.2063  0.1695  0.5314
11850SOL    HW145480   9.430  13.156   5.305  0.2166 -0.6571 -0.0174
11850SOL    HW245481   9.346  13.032   5.332 -1.2809  0.3213 -0.0967
11851SOL     OW45482  11.007   7.464   2.977 -0.0624  0.2555  0.4987
11851SOL    HW145483  11.088   7.413   2.969 -0.0345  0.0641  1.7393
11851SOL    HW245484  10.941   7.412   2.931  0.8554  1.3148 -2.1849
11852SOL     OW45485  13.066   1.143   6.478  0.0092  0.5012  0.3947
11852SOL    HW145486  12.989   1.183   6.518 -0.1276 -0.0869  0.7349
11852SOL    HW245487  13.135   1.154   6.543 -0.3623 -1.0010  1.1067
11853SOL     OW45488   2.848   9.732   6.113  0.0007 -0.6255 -0.4162
11853SOL    HW145489   2.791   9.723   6.037 -0.5093  0.5436 -0.1970
11853SOL    HW245490   2.877   9.643   6.133 -3.1406 -1.5377  0.5332
11854SOL     OW45491  12.980   4.843   5.778 -0.2137 -0.0931 -0.4827
11854SOL    HW145492  12.896   4.859   5.820  0.7051  1.9480  0.6792
11854SOL    HW245493  13.016   4.930   5.760  1.8868 -0.8990 -0.4883
11855SOL     OW45494   0.431   2.436   1.319  0.0327  0.3660 -0.2981
11855SOL    HW145495   0.502   2.439   1.255 -0.8746  0.5588 -1.3259
11855SOL    HW245496   0.356   2.400   1.271 -1.0979  1.8948  0.2126
11856SOL     OW45497   0.009  10.024   4.468 -0.1081 -0.3107  0.1403
11856SOL    HW145498  -0.045  10.088   4.514  2.1548  1.3542  0.6652
11856SOL    HW245499  -0.013  10.036   4.375 -1.3799 -0.4493  0.4095
11857SOL     OW45500  10.019   8.904   3.736 -0.0097  0.1825  0.3802
11857SOL    HW145501  10.083   8.866   3.676 -0.6719  0.9382 -0.8476
11857SOL    HW245502   9.944   8.845   3.732  0.1427 -0.0395  0.8504
11858SOL     OW45503   4.491   1.376  11.786 -0.5873 -0.5818 -0.2346
11858SOL    HW145504   4.397   1.363  11.792 -0.7218  0.9079  1.7105
11858SOL    HW245505   4.518   1.402  11.874  1.3617  0.6442 -1.1187
11859SOL     OW45506   2.106   3.071   1.677  0.3600  0.4293  0.2386
11859SOL    HW145507   2.041   3.100   1.741  0.9817 -2.2486  2.2764
11859SOL    HW245508   2.189   3.070   1.726  1.3400  0.5462 -1.3264
11860SOL     OW45509   0.489   1.653  10.090  0.3849  0.1178 -0.3192
11860SOL    HW145510   0.497   1.558  10.082  0.2703  0.1690 -1.1661
11860SOL    HW245511   0.405   1.666  10.135  1.3925 -0.2148  1.7538
11861SOL     OW45512   3.009  11.437  12.693  0.3599  0.5977 -0.4349
11861SOL    HW145513   2.967  11.449  12.778 -0.0818  0.2806 -0.6023
11861SOL    HW245514   2.976  11.510  12.640 -0.9864 -0.3367 -0.9415
11862SOL     OW45515  13.230   9.829   2.790  0.1247  0.1464 -0.0233
11862SOL    HW145516  13.274   9.854   2.708  0.5059 -1.6970 -0.4257
11862SOL    HW245517  13.274   9.749   2.817 -1.3583 -0.3954  0.8939
11863SOL     OW45518   5.616   3.099  12.595 -0.2470 -0.1659 -0.2054
11863SOL    HW145519   5.540   3.156  12.583  0.2186  0.3252 -0.8622
11863SOL    HW245520   5.597   3.022  12.541  1.2906  1.5049 -3.3390
11864SOL     OW45521   7.596   9.915  11.080  0.3374  1.2072  0.7730
11864SOL    HW145522   7.563  10.002  11.055 -0.5617  1.0331  1.3116
11864SOL    HW245523   7.690   9.928  11.093  0.2260  2.0848  0.7597
11865SOL     OW45524   4.952   1.838   8.469  0.3536 -0.5510  0.6294
11865SOL    HW145525   4.885   1.824   8.535 -1.5924  4.5926  0.2181
11865SOL    HW245526   4.904   1.840   8.386  1.4232  0.5801  0.0006
11866SOL     OW45527  11.737  12.713   7.935  0.4621 -0.4226  0.1522
11866SOL    HW145528  11.828  12.700   7.910  0.2152  0.6736 -1.4577
11866SOL    HW245529  11.695  12.629   7.918  1.5012 -1.5833  2.7944
11867SOL     OW45530  12.687  11.137   6.239 -0.3277 -0.2373  0.3795
11867SOL    HW145531  12.780  11.119   6.253 -0.4442 -0.1505  1.3220
11867SOL    HW245532  12.685  11.199   6.166  0.2230 -1.9220 -1.1407
11868SOL     OW45533   3.889   9.836   3.710 -0.5526 -0.1266 -0.3683
11868SOL    HW145534   3.984   9.833   3.720 -0.4896 -0.3217 -0.9682
11868SOL    HW245535   3.856   9.853   3.798  0.0496  0.1806 -0.1966
11869SOL     OW45536  10.519  13.132   3.600  0.4496  0.2345  0.7336
11869SOL    HW145537  10.457  13.073   3.643 -1.6367  2.2246  0.5955
11869SOL    HW245538  10.601  13.120   3.648 -0.8453 -0.2276  2.9359
11870SOL     OW45539   7.336   3.652  10.595  0.3042 -0.2234 -0.0078
11870SOL    HW145540   7.348   3.737  10.638  1.2088  0.5615 -1.7098
11870SOL    HW245541   7.425   3.617  10.587 -0.0802 -1.4418  0.8495
11871SOL     OW45542  12.291   3.363  10.169  0.1985 -0.2184 -0.1786
11871SOL    HW145543  12.311   3.352  10.262 -2.0133 -2.7331  0.1187
11871SOL    HW245544  12.332   3.289  10.126  0.9245  0.7493 -1.2223
11872SOL     OW45545   7.603   9.185  10.715 -0.3670  0.1679  0.4513
11872SOL    HW145546   7.606   9.280  10.702  0.0719  0.3111  1.4398
11872SOL    HW245547   7.519   9.170  10.758 -0.9753 -0.0559 -0.7964
11873SOL     OW45548  10.413   8.095   9.563 -0.3501 -0.3901  0.0813
11873SOL    HW145549  10.380   8.154   9.630  0.2226 -2.3035  2.1433
11873SOL    HW245550  10.350   8.024   9.559  0.7498 -1.4139  0.2360
11874SOL     OW45551  10.327   4.645   3.896  0.5847  0.3584 -0.1405
11874SOL    HW145552  10.352   4.609   3.811  0.7831 -0.9571  0.4443
11874SOL    HW245553  10.236   4.671   3.886  0.5561  0.0541 -0.6981
11875SOL     OW45554   1.097   3.063   4.579  0.4208 -0.3525 -0.0705
11875SOL    HW145555   1.003   3.058   4.591 -0.1432 -0.5614 -3.4369
11875SOL    HW245556   1.125   2.972   4.568  1.1063 -0.3224  1.2774
11876SOL     OW45557  12.272   8.374   2.055 -0.7182 -0.0376  0.5326
11876SOL    HW145558  12.207   8.432   2.014 -1.2811  0.2830  1.8390
11876SOL    HW245559  12.260   8.290   2.011 -2.1124 -0.0205  0.8353
11877SOL     OW45560   0.979   2.437  11.880 -0.0185 -0.3384  0.0351
11877SOL    HW145561   1.073   2.432  11.862 -0.0945  0.1189 -0.5218
11877SOL    HW245562   0.960   2.531  11.882 -0.6261 -0.4325 -0.7597
11878SOL     OW45563   2.125   7.748  11.439  0.3021  0.0945 -0.1987
11878SOL    HW145564   2.075   7.827  11.418  1.9891  1.7061  1.5001
11878SOL    HW245565   2.211   7.780  11.466  1.3232 -2.4028 -0.2192
11879SOL     OW45566   3.515   2.503   2.921 -0.2704  0.0911  0.5022
11879SOL    HW145567   3.491   2.548   3.002 -1.2940 -0.2625  0.4117
11879SOL    HW245568   3.581   2.439   2.948  0.4013  0.8921  0.8129
11880SOL     OW45569   1.663  10.428  11.157  0.5847 -0.4600 -0.1299
11880SOL    HW145570   1.630  10.487  11.224 -0.7382 -3.1422  1.7491
11880SOL    HW245571   1.631  10.465  11.075  1.0879  2.1602  0.7632
11881SOL     OW45572  11.629   7.809   3.586 -0.2249  0.3899  0.2835
11881SOL    HW145573  11.576   7.754   3.644 -0.4901  0.0038 -0.3127
11881SOL    HW245574  11.687   7.858   3.645 -0.6444  0.1719  0.8829
11882SOL     OW45575   1.718  13.294   4.503 -0.2837 -0.4181 -0.1406
11882SOL    HW145576   1.711  13.276   4.409 -0.4921 -0.6995 -0.0736
11882SOL    HW245577   1.758  13.381   4.508  0.2632 -0.6434 -0.4805
11883SOL     OW45578   6.877  10.147   4.510  0.5030 -0.1194  0.1138
11883SOL    HW145579   6.818  10.151   4.585 -0.2173 -0.3711 -0.4292
11883SOL    HW245580   6.951  10.095   4.540  0.4370  0.1629  0.7880
11884SOL     OW45581  10.924   9.817   1.866  0.4557 -0.0432 -0.0600
11884SOL    HW145582  10.916   9.913   1.871 -1.6349 -0.0459 -1.8796
11884SOL    HW245583  11.009   9.803   1.823  1.2061  0.9197  1.0266
11885SOL     OW45584  12.889   7.215  12.532  0.3789  0.1715  0.6668
11885SOL    HW145585  12.851   7.211  12.444  0.6260 -0.7042  0.5863
11885SOL    HW245586  12.860   7.134  12.574  0.8873  0.2265  1.1317
11886SOL     OW45587   2.218   7.730   4.545 -0.3760  0.2492  0.2006
11886SOL    HW145588   2.245   7.777   4.466  2.4227 -0.0293  0.8743
11886SOL    HW245589   2.171   7.654   4.512  1.9722 -0.6510 -1.3693
11887SOL     OW45590   0.115   6.100   9.678  0.3898  0.5444 -0.0297
11887SOL    HW145591   0.139   6.075   9.767  1.0142 -0.5598 -0.4827
11887SOL    HW245592   0.154   6.032   9.623 -0.1005  1.1329 -1.1370
11888SOL     OW45593  12.825  11.965  13.134  0.1051 -0.0352 -0.1490
11888SOL    HW145594  12.910  12.001  13.158  0.7712 -1.5908 -0.0317
11888SOL    HW245595  12.762  12.017  13.184  0.9220  1.4660 -0.6112
11889SOL     OW45596   8.137   1.176   4.335 -0.4003 -0.1952  0.0830
11889SOL    HW145597   8.166   1.135   4.253 -0.0642 -2.0244  1.0820
11889SOL    HW245598   8.049   1.142   4.349 -0.0264 -0.7969  1.0487
11890SOL     OW45599  12.987   8.690   9.544 -0.2665 -0.5518 -0.3296
11890SOL    HW145600  12.903   8.726   9.519 -0.6132 -0.6607  0.6333
11890SOL    HW245601  13.044   8.767   9.554 -0.8694 -0.2681  1.2318
11891SOL     OW45602  11.121   1.056  10.422  0.1364 -0.1352 -0.8085
11891SOL    HW145603  11.046   1.097  10.378 -1.2885 -1.6393  0.0770
11891SOL    HW245604  11.197   1.101  10.387 -1.1958  1.7784 -1.4339
11892SOL     OW45605   4.517   7.217   3.324  0.5526 -0.4557 -0.1644
11892SOL    HW145606   4.612   7.212   3.324  0.5222 -1.2492 -0.7661
11892SOL    HW245607   4.494   7.229   3.231  0.0013 -1.9493 -0.2475
11893SOL     OW45608   6.659   5.242  11.984  0.0423 -0.1597  0.2851
11893SOL    HW145609   6.694   5.229  12.072  0.9975 -0.2630 -0.1016
11893SOL    HW245610   6.577   5.193  11.983  0.9177 -1.6811  0.5474
11894SOL     OW45611   3.059  13.305   7.072  0.2273  0.3729 -0.3504
11894SOL    HW145612   2.998  13.299   7.145  0.1701 -0.1058 -0.4323
11894SOL    HW245613   3.127  13.240   7.092  1.1401  1.4386  0.1273
11895SOL     OW45614  10.096  10.577  12.425 -0.3279  0.2339 -0.5855
11895SOL    HW145615  10.122  10.576  12.517 -0.3330 -0.0116 -0.5844
11895SOL    HW245616  10.103  10.668  12.399 -0.8074  0.3851 -0.2016
11896SOL     OW45617   1.135  11.878   8.729  0.3088 -0.6805  0.1540
11896SOL    HW145618   1.163  11.963   8.696 -0.9419 -0.2845  0.0584
11896SOL    HW245619   1.041  11.888   8.742  0.1868 -1.9898  0.3468
11897SOL     OW45620   3.653  12.624   3.633 -0.1588 -0.2291  0.2116
11897SOL    HW145621   3.724  12.681   3.602 -0.1765 -1.3426 -2.0773
11897SOL    HW245622   3.597  12.611   3.555 -0.5873 -2.7031  0.8539
11898SOL     OW45623   4.401  10.129   8.666 -0.5163 -0.0047  0.7170
11898SOL    HW145624   4.362  10.065   8.727 -3.6028  0.8619 -0.1626
11898SOL    HW245625   4.419  10.079   8.587 -1.8918 -0.0713  0.4161
11899SOL     OW45626   0.532   9.668   4.642 -0.0919  0.6398  0.5038
11899SOL    HW145627   0.500   9.746   4.597  1.0836  0.9695  0.1986
11899SOL    HW245628   0.581   9.620   4.575 -0.3929 -0.1083  0.8150
11900SOL     OW45629   2.479   2.342   7.667  0.0837  0.3075 -0.2656
11900SOL    HW145630   2.553   2.296   7.628 -1.7539 -2.7627 -0.4510
11900SOL    HW245631   2.507   2.363   7.756  1.3400 -0.3333 -0.4981
11901SOL     OW45632   5.266   8.759  10.167  0.3432  0.7659 -0.2167
11901SOL    HW145633   5.214   8.696  10.119  1.2841  1.1423 -1.8107
11901SOL    HW245634   5.211   8.785  10.241 -0.6169 -0.8242 -0.3287
11902SOL     OW45635   5.515  10.652   9.279 -0.4162  0.2956 -0.2205
11902SOL    HW145636   5.551  10.656   9.367 -0.0586  1.1525 -0.3929
11902SOL    HW245637   5.435  10.601   9.287 -0.2519  0.1628  0.5543
11903SOL     OW45638   2.013  12.489  11.402  0.0880  0.0009  0.2792
11903SOL    HW145639   2.051  12.405  11.426 -1.5807 -0.3060  2.0138
11903SOL    HW245640   1.990  12.479  11.309 -1.4437 -2.0116  0.8209
11904SOL     OW45641   2.241  13.172   8.932 -0.0915 -0.2559 -0.1778
11904SOL    HW145642   2.287  13.152   9.014 -0.0716  1.2918  0.2192
11904SOL    HW245643   2.221  13.086   8.894 -1.0904 -1.0458  1.9853
11905SOL     OW45644   2.352   7.258   1.875  0.6828 -0.3608  0.0854
11905SOL    HW145645   2.314   7.288   1.957 -0.6815 -0.1008 -0.6181
11905SOL    HW245646   2.389   7.172   1.895  1.1260  0.0536  1.1559
11906SOL     OW45647   2.581   5.183  12.833 -0.1524 -0.0506  0.0057
11906SOL    HW145648   2.631   5.254  12.793  0.9639 -0.4264  0.6800
11906SOL    HW245649   2.635   5.154  12.907 -1.1279 -0.8312  0.4500
11907SOL     OW45650   3.979  12.061  11.470 -0.3890  0.3075 -0.2802
11907SOL    HW145651   3.900  12.016  11.502 -0.5342  1.1377  0.5799
11907SOL    HW245652   4.051  12.005  11.498 -0.6258  0.0188 -0.2355
11908SOL     OW45653   6.944   7.046   8.030 -0.1634 -0.5705  0.5201
11908SOL    HW145654   6.874   7.043   7.965  1.1133 -2.7509 -0.8945
11908SOL    HW245655   7.022   7.068   7.979  0.6751 -1.2093  1.4865
11909SOL     OW45656   0.381   0.260  11.355 -0.2463 -0.4956  0.2307
11909SOL    HW145657   0.310   0.314  11.321  1.5895  1.7968 -0.1674
11909SOL    HW245658   0.374   0.178  11.306  0.0724  1.3423 -3.1612
11910SOL     OW45659   3.419   5.552   1.546 -0.0782 -0.4510 -0.0363
11910SOL    HW145660   3.431   5.586   1.634  0.3475 -1.2545  0.2249
11910SOL    HW245661   3.480   5.479   1.540  0.0774 -0.2520 -1.0846
11911SOL     OW45662   0.936   3.852   0.980 -0.1002  0.2295 -0.3323
11911SOL    HW145663   1.015   3.797   0.981  0.1281  0.5568  0.2437
11911SOL    HW245664   0.941   3.902   1.061  0.2775  1.9480 -1.3708
11912SOL     OW45665   5.311  12.574  12.178  0.5713  0.1017  0.4086
11912SOL    HW145666   5.279  12.664  12.177  3.1930  1.2449  3.2029
11912SOL    HW245667   5.319  12.551  12.086 -0.3208  2.6569 -0.4088
11913SOL     OW45668   6.014   7.155   8.366  0.0008  0.1573  0.5237
11913SOL    HW145669   6.034   7.074   8.413  1.3525  0.1337 -0.0720
11913SOL    HW245670   5.991   7.127   8.278  2.0548  0.5077 -0.1533
11914SOL     OW45671   8.026  11.933   6.117 -0.1068 -0.0071  0.6552
11914SOL    HW145672   7.962  11.913   6.186 -0.7551 -0.7614 -0.1478
11914SOL    HW245673   7.973  11.973   6.047  0.5117  0.5737  0.5164
11915SOL     OW45674  12.916   1.119  10.392  0.3102 -0.4704  0.5721
11915SOL    HW145675  12.868   1.176  10.451 -0.4201 -0.6698  0.1799
11915SOL    HW245676  12.885   1.031  10.412 -0.2491 -0.5013 -0.3707
11916SOL     OW45677   5.908  11.845   0.156  0.8403  0.4644  0.2684
11916SOL    HW145678   5.850  11.922   0.153 -1.5365 -1.1495  1.4007
11916SOL    HW245679   5.913  11.823   0.248  0.7176 -1.2561 -0.1150
11917SOL     OW45680  11.755   0.446   0.461  0.0481 -0.5122 -0.2370
11917SOL    HW145681  11.735   0.357   0.432  2.1328 -1.5349  1.2270
11917SOL    HW245682  11.719   0.450   0.550 -0.3363  0.2480 -0.4207
11918SOL     OW45683  10.770  12.773   4.456  0.0295  0.0790 -0.1298
11918SOL    HW145684  10.689  12.795   4.409 -0.6984 -1.2682  0.4495
11918SOL    HW245685  10.771  12.833   4.531 -0.6184 -0.1135  0.0406
11919SOL     OW45686   1.199   4.983   3.793 -0.3216 -0.0244  0.2270
11919SOL    HW145687   1.253   5.050   3.834 -0.9585  1.2659 -0.9736
11919SOL    HW245688   1.261   4.925   3.748  0.1095  1.2377 -0.8515
11920SOL     OW45689   2.225   1.368   0.477 -0.3568 -0.1432 -0.8859
11920SOL    HW145690   2.213   1.274   0.466  2.0310 -0.3587 -2.4080
11920SOL    HW245691   2.175   1.390   0.556  0.3537 -3.0015  0.4949
11921SOL     OW45692   7.358   8.150   2.694 -0.3389  0.0033  0.5731
11921SOL    HW145693   7.406   8.229   2.668 -0.4613  0.1499  0.7920
11921SOL    HW245694   7.358   8.096   2.615 -2.0281  1.0852 -0.2287
11922SOL     OW45695   8.324   9.460  13.053 -0.2186  0.2379  0.0162
11922SOL    HW145696   8.400   9.495  13.006 -1.2191  1.1715 -0.9482
11922SOL    HW245697   8.361   9.422  13.133  1.1833  1.3456 -0.0709
11923SOL     OW45698   7.548   7.190   1.382  0.1742  0.1016 -0.5365
11923SOL    HW145699   7.589   7.111   1.416  0.2475 -0.2693 -1.4554
11923SOL    HW245700   7.601   7.214   1.306 -0.8946  0.0087 -1.3306
11924SOL     OW45701   7.645   4.151   3.741 -0.2389 -0.2445 -0.6168
11924SOL    HW145702   7.596   4.233   3.739  1.0316  0.6378  1.3023
11924SOL    HW245703   7.731   4.175   3.777  0.6356 -2.2037 -1.2548
11925SOL     OW45704  10.844  13.008  11.971 -0.1981 -0.0768 -0.3178
11925SOL    HW145705  10.933  12.975  11.964 -0.3091 -0.6979  0.8829
11925SOL    HW245706  10.848  13.075  12.039 -0.0660  2.1598 -2.4097
11926SOL     OW45707  10.563  12.660   3.246  0.9448  0.7186  0.1020
11926SOL    HW145708  10.498  12.665   3.316  1.1160  1.0239  0.2465
11926SOL    HW245709  10.639  12.620   3.288  1.5290  2.1479  0.4823
11927SOL     OW45710   9.281   9.025   9.005  0.6911  0.3441  0.0810
11927SOL    HW145711   9.236   9.087   8.948  0.0999  0.3818  0.5812
11927SOL    HW245712   9.233   8.943   8.996  0.2729  0.4839  0.9092
11928SOL     OW45713   5.124  11.209   1.103 -0.2659 -0.3889  0.7366
11928SOL    HW145714   5.081  11.276   1.156  0.0768 -0.0439  0.5815
11928SOL    HW245715   5.172  11.155   1.167 -0.1439 -0.1913  0.8104
11929SOL     OW45716  12.879   3.023  12.723 -0.4209  0.1976  0.1135
11929SOL    HW145717  12.805   3.076  12.692 -0.6049  0.3893  0.8724
11929SOL    HW245718  12.878   3.034  12.818  1.4806  1.3923  0.0455
11930SOL     OW45719   0.923   8.427   1.838 -0.6433 -0.2371 -0.2824
11930SOL    HW145720   0.922   8.357   1.904 -1.9403 -0.0689 -0.0931
11930SOL    HW245721   1.000   8.480   1.860 -0.0105 -1.2236 -0.0367
11931SOL     OW45722   5.369   2.481   7.144  0.1314  0.3134 -0.5613
11931SOL    HW145723   5.330   2.481   7.056  1.1043 -0.0369 -1.0104
11931SOL    HW245724   5.463   2.481   7.128  0.3417 -1.1869  0.4788
11932SOL     OW45725   0.787   6.420  11.194 -0.5874  0.3137 -1.1432
11932SOL    HW145726   0.809   6.508  11.224 -2.2570  0.1859  0.6425
11932SOL    HW245727   0.870   6.372  11.195 -0.0511  1.2378  0.1580
11933SOL     OW45728   8.342   3.117  13.054  0.2572  0.2045  0.6308
11933SOL    HW145729   8.249   3.105  13.033  0.1996  0.3706  0.7855
11933SOL    HW245730   8.380   3.153  12.973  0.3955 -0.8230  0.2271
11934SOL     OW45731   0.752   6.752   4.478 -0.0239 -0.4529 -0.5810
11934SOL    HW145732   0.742   6.847   4.478 -0.4131 -0.4742  1.1075
11934SOL    HW245733   0.845   6.738   4.495 -0.3819 -0.3612  1.6627
11935SOL     OW45734  12.048   3.389   6.744 -0.5854  0.0197  0.2200
11935SOL    HW145735  12.098   3.469   6.730  0.1112 -0.2566  1.0626
11935SOL    HW245736  12.114   3.321   6.759 -1.1889 -0.3135  1.5146
11936SOL     OW45737   3.970   5.128  12.940  0.0930  0.3148  0.4883
11936SOL    HW145738   3.882   5.143  12.906  1.0645  0.5181 -2.1629
11936SOL    HW245739   3.961   5.138  13.034 -2.5819  0.9681  0.2494
11937SOL     OW45740   9.296   2.156   1.484 -0.0080 -0.2017  0.6043
11937SOL    HW145741   9.384   2.132   1.516  0.9544  1.3319 -0.7261
11937SOL    HW245742   9.286   2.248   1.509 -0.8997 -0.1275  0.0077
11938SOL     OW45743   9.035   0.325   8.682  0.0676 -0.8977 -0.3071
11938SOL    HW145744   8.975   0.324   8.608  0.8765 -0.9946 -0.9666
11938SOL    HW245745   9.100   0.259   8.662  1.2008  0.1771 -0.2709
11939SOL     OW45746   7.194   7.902   0.000  0.1100  0.1677 -0.0682
11939SOL    HW145747   7.203   7.872   0.091  2.9129  0.2571 -0.2067
11939SOL    HW245748   7.159   7.991   0.008 -2.2484 -0.7684  0.7043
11940SOL     OW45749  11.470   2.639  11.123 -0.7320 -0.9396 -0.0013
11940SOL    HW145750  11.493   2.549  11.147  1.3741 -0.7738 -1.1978
11940SOL    HW245751  11.512   2.654  11.038  0.7892  1.8154  1.0816
11941SOL     OW45752   1.376   9.927   4.285  0.8571  0.1817 -0.0412
11941SOL    HW145753   1.310   9.866   4.319  2.3976 -0.8683  1.1734
11941SOL    HW245754   1.438   9.938   4.357  1.5741  1.8225 -0.8591
11942SOL     OW45755  11.945   7.316   2.752 -0.3915 -0.0997  0.3739
11942SOL    HW145756  11.885   7.286   2.683  0.0069 -0.0771  0.0090
11942SOL    HW245757  12.032   7.294   2.718 -0.1540  0.5327  0.5644
11943SOL     OW45758  10.599   0.320   2.050  0.2039  0.0312 -0.8227
11943SOL    HW145759  10.605   0.263   2.126  1.0683  2.1994  0.8163
11943SOL    HW245760  10.684   0.310   2.006  0.5915  0.5319 -0.1876
11944SOL     OW45761   1.288   5.653  11.855 -0.3941 -0.5961  0.3369
11944SOL    HW145762   1.376   5.615  11.849 -0.6513 -1.0365 -0.9348
11944SOL    HW245763   1.229   5.578  11.841 -0.9177  0.1017 -1.4425
11945SOL     OW45764   7.093   7.158   3.669  0.5052 -0.9867  0.2979
11945SOL    HW145765   7.077   7.211   3.591  0.6934 -0.2185  0.7638
11945SOL    HW245766   7.152   7.211   3.722 -0.0508 -1.2465  1.2049
11946SOL     OW45767   9.846   8.259   6.059  0.1261  0.3170 -0.3236
11946SOL    HW145768   9.756   8.225   6.062  0.6244 -1.1423 -0.8485
11946SOL    HW245769   9.880   8.243   6.147 -0.8961  3.3029  0.7453
11947SOL     OW45770   9.407   0.357   0.311 -0.6908 -0.5543 -0.2256
11947SOL    HW145771   9.483   0.386   0.362  0.1323  0.4751 -1.9650
11947SOL    HW245772   9.375   0.280   0.358  0.9326 -0.5394  0.9999
11948SOL     OW45773   7.279  10.704  11.679  0.3054 -0.9152 -0.8066
11948SOL    HW145774   7.205  10.751  11.717  0.7979 -1.7018  1.2677
11948SOL    HW245775   7.243  10.618  11.656  0.5529 -1.3673  0.3807
11949SOL     OW45776  12.496   0.776   8.064 -0.4937 -0.1751 -0.3642
11949SOL    HW145777  12.440   0.726   8.124 -0.4978 -0.5124 -0.6453
11949SOL    HW245778  12.570   0.718   8.046 -0.5192 -0.0996 -0.7268
11950SOL     OW45779   1.301   8.319  10.335  0.0104  0.2106 -0.1507
11950SOL    HW145780   1.328   8.340  10.425 -0.1908  1.6478 -0.4031
11950SOL    HW245781   1.369   8.356  10.280  0.7996 -1.7676 -0.5913
11951SOL     OW45782   2.456   5.104   4.203  0.4823  0.1059 -0.1253
11951SOL    HW145783   2.519   5.160   4.248  1.7381 -0.1225 -1.5437
11951SOL    HW245784   2.451   5.025   4.256  1.5965  0.0208 -0.1345
11952SOL     OW45785   4.509   6.582   1.143 -0.1013 -0.1129  0.7432
11952SOL    HW145786   4.448   6.529   1.092 -0.2238  0.2670  0.4924
11952SOL    HW245787   4.464   6.664   1.158  1.0262  0.9017 -1.0561
11953SOL     OW45788   5.508   2.721  13.171  0.0056  0.0124 -0.5159
11953SOL    HW145789   5.589   2.770  13.157 -0.1911  0.1941 -1.0806
11953SOL    HW245790   5.493   2.676  13.087 -0.7012  0.3281 -0.5730
11954SOL     OW45791   9.611  10.774   1.511 -0.4236  0.0524  0.3656
11954SOL    HW145792   9.605  10.735   1.424  0.2290 -1.3374  0.9218
11954SOL    HW245793   9.524  10.760   1.550 -1.2047  1.9706 -0.5407
11955SOL     OW45794   3.602  11.590   7.092  0.8992 -0.1783 -0.9690
11955SOL    HW145795   3.513  11.555   7.105  0.0995  1.1700 -2.4474
11955SOL    HW245796   3.651  11.518   7.055  0.5169 -1.0444  0.1604
11956SOL     OW45797   5.453   5.951   8.230  0.0697 -0.1964 -0.0051
11956SOL    HW145798   5.473   5.941   8.137  1.9414  0.6596  0.2518
11956SOL    HW245799   5.503   5.882   8.273  0.1981  0.1746  0.4509
11957SOL     OW45800   7.493   3.218  11.339  0.3573 -0.5490  0.0327
11957SOL    HW145801   7.467   3.126  11.342  0.3509 -0.5285  0.9707
11957SOL    HW245802   7.512   3.235  11.247 -1.2942 -1.0224 -0.4349
11958SOL     OW45803   1.273   7.463  10.975  0.3151 -0.7275 -0.4215
11958SOL    HW145804   1.222   7.467  11.056 -0.6686 -0.3270 -1.0304
11958SOL    HW245805   1.230   7.394  10.925  0.0462 -0.0517 -1.1461
11959SOL     OW45806   8.142  10.184   1.311  0.3295  0.7894 -0.6485
11959SOL    HW145807   8.127  10.107   1.365 -0.0567  0.1880 -1.5861
11959SOL    HW245808   8.237  10.197   1.313  0.6419 -0.9003 -2.0198
11960SOL     OW45809  12.526  12.499   1.863 -0.2467  0.6989  0.2372
11960SOL    HW145810  12.438  12.502   1.825 -1.4975  1.3514  2.9252
11960SOL    HW245811  12.559  12.588   1.852 -2.3016  2.1630  4.0264
11961SOL     OW45812  12.680   2.193   5.218  0.6233 -0.2373 -0.0575
11961SOL    HW145813  12.619   2.166   5.148 -1.9863  1.2579  1.4638
11961SOL    HW245814  12.669   2.126   5.285  2.7581 -1.3989 -0.7845
11962SOL     OW45815   1.875  10.049   5.007 -0.4630 -0.3945  0.2398
11962SOL    HW145816   1.926   9.997   5.070 -0.3272 -0.2062  0.2888
11962SOL    HW245817   1.786  10.016   5.015 -0.6032  0.1579  1.1108
11963SOL     OW45818   5.983  11.062   6.601  0.3187 -0.3039 -0.7608
11963SOL    HW145819   5.910  11.069   6.663 -0.8283  0.3751 -2.1233
11963SOL    HW245820   6.023  10.978   6.621  0.2670  0.0807  1.1734
11964SOL     OW45821   4.909   5.212   6.200 -0.4722  0.3663  0.3305
11964SOL    HW145822   4.922   5.281   6.134  1.7466 -0.3943 -0.1204
11964SOL    HW245823   4.912   5.131   6.149 -1.5566 -0.1457  1.0537
11965SOL     OW45824   4.491  10.300   0.651 -0.0529 -0.4832  0.1201
11965SOL    HW145825   4.515  10.208   0.667  1.6729 -0.0864  0.0607
11965SOL    HW245826   4.414  10.295   0.595  1.0509 -1.9311 -1.3828
11966SOL     OW45827   5.505   4.552   5.807 -0.1281  0.1459  0.1112
11966SOL    HW145828   5.564   4.516   5.741  0.9175  3.5538 -1.0641
11966SOL    HW245829   5.424   4.502   5.798  1.4581 -2.4828 -0.5294
11967SOL     OW45830   4.313   1.950  12.086 -0.0736 -0.1818 -0.4221
11967SOL    HW145831   4.304   1.858  12.061  1.5027 -1.2364  2.3801
11967SOL    HW245832   4.376   1.986  12.023  0.3589 -1.4339 -0.7360
11968SOL     OW45833  10.694  11.147   2.642 -0.3435 -0.3579  0.1674
11968SOL    HW145834  10.614  11.176   2.687 -0.3903 -0.5640  0.2181
11968SOL    HW245835  10.707  11.057   2.672  0.5244  0.0325  1.0225
11969SOL     OW45836  12.910   9.714   4.869  0.1108  0.5054  0.1203
11969SOL    HW145837  12.930   9.785   4.931 -2.2597  1.4677 -0.0866
11969SOL    HW245838  12.971   9.644   4.892  0.8590  1.6916  2.0148
11970SOL     OW45839   0.102   9.924  12.772  0.7086  0.0013 -0.1672
11970SOL    HW145840   0.163   9.873  12.719  1.1835  0.9021 -0.5037
11970SOL    HW245841   0.114   9.890  12.861  0.6145 -0.8397 -0.4663
11971SOL     OW45842   4.933   7.950   9.090  0.3687  0.1351  0.3353
11971SOL    HW145843   4.982   7.871   9.111  0.7387  0.6322  1.4416
11971SOL    HW245844   4.887   7.972   9.172  1.2414  1.7214  0.4507
11972SOL     OW45845   0.934  10.247   5.546  0.0424  0.2938  0.3661
11972SOL    HW145846   0.990  10.325   5.552  2.6528 -1.2876 -1.2814
11972SOL    HW245847   0.858  10.268   5.599 -0.0050  4.4500 -1.0090
11973SOL     OW45848  11.479  11.786  10.315 -0.3330  0.2611  0.5784
11973SOL    HW145849  11.426  11.775  10.394 -0.3874 -0.4077  0.4482
11973SOL    HW245850  11.421  11.761  10.244 -0.0096  0.0397  0.3926
11974SOL     OW45851  12.075  11.772   8.272  0.1333 -0.2752 -0.0777
11974SOL    HW145852  12.032  11.852   8.301 -2.4943 -0.6859 -2.3940
11974SOL    HW245853  12.163  11.799   8.247 -0.2488  1.6039  0.4889
11975SOL     OW45854  12.180   8.636   0.705 -0.0705  0.3540 -0.6264
11975SOL    HW145855  12.139   8.555   0.675 -1.9300  1.8757 -2.5075
11975SOL    HW245856  12.186   8.626   0.800  0.1023 -2.0952 -0.8235
11976SOL     OW45857  13.151   0.758   1.148 -0.7125 -0.6355 -0.8347
11976SOL    HW145858  13.098   0.781   1.224 -1.8363  0.7793 -1.9721
11976SOL    HW245859  13.241   0.778   1.174 -0.8370 -2.0195  0.7572
11977SOL     OW45860   8.371   4.579   0.817 -0.6837 -0.1388 -0.3746
11977SOL    HW145861   8.309   4.555   0.748 -0.6469  1.8901 -1.1648
11977SOL    HW245862   8.380   4.674   0.810 -1.0700  0.2425  2.7968
11978SOL     OW45863   8.346   9.074   8.601 -0.1523 -0.6303 -0.4498
11978SOL    HW145864   8.402   9.094   8.676 -0.0585 -0.9074 -0.4442
11978SOL    HW245865   8.358   8.980   8.587 -0.7033 -0.7155 -0.3713
11979SOL     OW45866   0.219   5.297   8.876 -0.0861  0.0641 -0.3026
11979SOL    HW145867   0.157   5.369   8.860  0.6325  1.5940  2.9648
11979SOL    HW245868   0.170   5.235   8.931  0.0395 -0.8173 -1.1578
11980SOL     OW45869   8.211   8.269   6.289  0.2138 -0.0279  0.5502
11980SOL    HW145870   8.174   8.297   6.373 -0.8964 -1.6812  0.6666
11980SOL    HW245871   8.151   8.201   6.259  1.1006 -0.0860 -1.1590
11981SOL     OW45872   0.987   7.823   6.351 -0.2903  0.7197 -0.1402
11981SOL    HW145873   1.010   7.840   6.442 -0.2895 -1.6919  0.3977
11981SOL    HW245874   1.068   7.834   6.303  0.4990 -1.0438  0.6872
11982SOL     OW45875   3.794  11.320  10.804  0.2784  1.4065  0.0066
11982SOL    HW145876   3.823  11.244  10.754  2.2517  1.1000  1.4959
11982SOL    HW245877   3.707  11.339  10.770 -0.4387 -1.7193 -0.2331
11983SOL     OW45878   6.625   9.949   7.117 -0.1346  0.8566  0.1790
11983SOL    HW145879   6.556   9.885   7.098 -0.3028  0.7868  0.9826
11983SOL    HW245880   6.656   9.977   7.031 -0.2579 -0.0922 -0.1878
11984SOL     OW45881   4.337  11.521  12.046  0.1595 -0.0662 -0.1312
11984SOL    HW145882   4.395  11.593  12.072 -0.9202  0.2682  1.5040
11984SOL    HW245883   4.306  11.546  11.958  1.9000  0.0886 -0.7402
11985SOL     OW45884   6.978  13.056  12.273  0.2366 -0.0212 -0.5860
11985SOL    HW145885   7.009  13.147  12.276  1.3979 -0.3837 -0.9520
11985SOL    HW245886   7.057  13.004  12.284 -0.4401 -1.0012 -0.2111
11986SOL     OW45887   6.699  11.626   6.248  0.0226  0.3900 -0.4430
11986SOL    HW145888   6.692  11.576   6.167 -0.0826 -0.2794 -0.0304
11986SOL    HW245889   6.617  11.675   6.254 -0.2062  0.0126 -0.4678
11987SOL     OW45890   8.437   6.949   2.627 -0.5265  0.1022  0.2527
11987SOL    HW145891   8.481   6.909   2.701  2.1415 -0.6900 -1.5965
11987SOL    HW245892   8.347   6.915   2.630  0.4585 -2.6190  1.1730
11988SOL     OW45893   1.351   4.378   0.902 -0.0231  0.3169  0.0476
11988SOL    HW145894   1.332   4.356   0.993 -1.7093  1.7816  0.1050
11988SOL    HW245895   1.441   4.409   0.903  0.1296 -0.1382  1.1279
11989SOL     OW45896   7.086   5.473   1.489  0.3904  0.1999 -0.2951
11989SOL    HW145897   7.176   5.502   1.502  0.0368  0.8957  0.7372
11989SOL    HW245898   7.086   5.381   1.517  0.4116  0.7008  1.4966
11990SOL     OW45899   4.029  10.618   2.411  0.1169 -0.1415 -0.0192
11990SOL    HW145900   4.081  10.635   2.333 -0.1147  1.9678  0.2195
11990SOL    HW245901   3.940  10.606   2.378  0.1512 -0.0201 -0.1602
11991SOL     OW45902   8.969   8.273  11.811 -0.2535  0.0545  0.0013
11991SOL    HW145903   9.028   8.319  11.752 -0.5521  1.2165  0.5802
11991SOL    HW245904   9.012   8.190  11.829  1.2012  0.8632  0.3710
11992SOL     OW45905   4.950   7.636  10.583  0.0929 -0.0850 -0.4572
11992SOL    HW145906   4.862   7.654  10.551  0.5012  1.2598 -0.8815
11992SOL    HW245907   4.975   7.554  10.540 -1.6716 -1.6059  1.2119
11993SOL     OW45908  11.815  12.123   5.884  0.2887 -0.0487 -0.1705
11993SOL    HW145909  11.749  12.191   5.896 -0.2889 -0.6058 -0.1134
11993SOL    HW245910  11.803  12.064   5.959 -0.4254 -1.1892 -1.1472
11994SOL     OW45911  13.120   0.899  12.050  0.2281 -0.3840 -0.3320
11994SOL    HW145912  13.147   0.985  12.081  0.6382 -0.4030 -0.6203
11994SOL    HW245913  13.137   0.901  11.956 -1.4755 -0.1503 -0.6609
11995SOL     OW45914  10.134   6.350  11.256 -0.0246  0.6568  0.1864
11995SOL    HW145915  10.047   6.389  11.251 -0.8008 -1.0193 -0.1868
11995SOL    HW245916  10.161   6.363  11.347 -0.7153  1.0922  0.3358
11996SOL     OW45917   8.332   6.651  12.674 -0.5244 -0.4719 -0.3887
11996SOL    HW145918   8.408   6.677  12.622 -0.3923 -0.5547 -0.2395
11996SOL    HW245919   8.367   6.588  12.738 -0.6736 -0.3253 -0.1606
11997SOL     OW45920   2.091   5.735   4.173 -0.0311 -0.1694 -0.1928
11997SOL    HW145921   2.070   5.717   4.265 -0.3637  0.3669 -0.1604
11997SOL    HW245922   2.021   5.691   4.124  1.3243 -2.3330 -0.3167
11998SOL     OW45923  11.531  10.870   8.700  0.0246  0.2555  0.1115
11998SOL    HW145924  11.462  10.895   8.763  0.1426  2.0118 -0.3947
11998SOL    HW245925  11.613  10.892   8.744  0.1606  0.3036 -0.1649
11999SOL     OW45926  10.603   8.200   6.296 -0.3940  0.0502  0.7121
11999SOL    HW145927  10.587   8.113   6.333 -1.2311  0.1850  0.6854
11999SOL    HW245928  10.553   8.260   6.351  0.1026  0.5079  0.6723
12000SOL     OW45929   4.724   9.614   1.884  0.1411 -0.1303  0.7004
12000SOL    HW145930   4.785   9.583   1.951 -2.1336 -2.5617  1.8180
12000SOL    HW245931   4.742   9.559   1.808 -0.0198 -0.1788  0.6976
12001SOL     OW45932   3.591  12.210   4.473  0.2580  0.3527 -0.3831
12001SOL    HW145933   3.637  12.185   4.393  0.9137  1.5428 -0.4084
12001SOL    HW245934   3.562  12.127   4.512  1.0835 -0.3194 -1.1725
12002SOL     OW45935  12.719   4.110   5.606  0.2723 -0.0442  0.2430
12002SOL    HW145936  12.766   4.188   5.634  0.1456 -0.0466  0.4612
12002SOL    HW245937  12.627   4.134   5.609  0.2032 -0.3680  0.8308
12003SOL     OW45938   7.075   1.521   1.612 -0.0469  0.0996  0.5825
12003SOL    HW145939   6.983   1.501   1.629  0.3090 -1.1540  1.1875
12003SOL    HW245940   7.090   1.607   1.651 -1.4121  1.2272 -1.2078
12004SOL     OW45941   6.166   0.449  10.728 -0.3538 -0.2359 -0.3832
12004SOL    HW145942   6.076   0.441  10.696 -1.0014  0.0635  1.2701
12004SOL    HW245943   6.189   0.540  10.713 -0.7304 -0.0446  0.1847
12005SOL     OW45944   2.803   7.163   3.314  0.1064  0.7160 -0.0387
12005SOL    HW145945   2.766   7.201   3.394  0.0583 -0.9721  0.7838
12005SOL    HW245946   2.757   7.207   3.243 -0.2658  1.8362  0.8712
12006SOL     OW45947   2.016   5.151  11.518  0.1524 -0.2244  0.1903
12006SOL    HW145948   2.086   5.091  11.547  0.1618  0.3336  1.3746
12006SOL    HW245949   1.993   5.119  11.431  0.3417 -1.7935  0.6757
12007SOL     OW45950  10.035   7.974   8.487  0.0479 -0.6243  0.4379
12007SOL    HW145951  10.070   7.991   8.575 -0.1338 -1.6716  0.7183
12007SOL    HW245952   9.959   7.919   8.501 -1.5618  1.3150 -0.2036
12008SOL     OW45953   9.770   7.317   2.849  0.9958 -0.2911  0.2526
12008SOL    HW145954   9.797   7.351   2.764  1.1423  0.7753  0.7059
12008SOL    HW245955   9.755   7.395   2.903  0.3338 -0.9336  1.0316
12009SOL     OW45956  12.670   0.668  11.444 -0.1947  0.0406  0.7592
12009SOL    HW145957  12.757   0.705  11.428 -0.6579  1.8536  2.1095
12009SOL    HW245958  12.680   0.575  11.425  1.5794  0.4733 -0.8250
12010SOL     OW45959   9.279  11.247   9.800 -0.5605 -0.1964 -0.1809
12010SOL    HW145960   9.366  11.248   9.839 -0.8573  1.1131  0.5298
12010SOL    HW245961   9.219  11.238   9.874 -1.0480 -0.3708 -0.5892
12011SOL     OW45962  11.744   2.603   2.417  0.0031  0.0787  0.4241
12011SOL    HW145963  11.788   2.553   2.348 -0.5005  0.4529 -0.1880
12011SOL    HW245964  11.810   2.614   2.485  0.0131 -1.7320  0.7534
12012SOL     OW45965   0.979  11.796   0.126  0.2211 -0.1871  0.0694
12012SOL    HW145966   0.907  11.743   0.095 -0.0093 -0.2453  0.6972
12012SOL    HW245967   0.998  11.763   0.214  1.1986 -0.3654 -0.1963
12013SOL     OW45968   1.238   5.503   3.393 -0.4030 -0.2352  0.1694
12013SOL    HW145969   1.301   5.545   3.333 -0.3280 -0.7335 -0.1065
12013SOL    HW245970   1.181   5.574   3.420  1.3823  0.6373  1.8828
12014SOL     OW45971   7.448  13.113  12.225  0.0918  0.1195  0.1173
12014SOL    HW145972   7.422  13.094  12.134 -2.1073 -1.8413  1.0580
12014SOL    HW245973   7.365  13.126  12.271  1.0852 -0.3750  2.1477
12015SOL     OW45974   0.617   7.310   6.391 -0.3466  0.0070 -0.1591
12015SOL    HW145975   0.553   7.327   6.460 -0.9837 -1.2447 -0.4283
12015SOL    HW245976   0.699   7.297   6.438 -0.6158 -0.0474  0.3060
12016SOL     OW45977  12.993   1.796   9.247 -0.6771  0.5724 -0.0795
12016SOL    HW145978  13.073   1.838   9.214  0.1709 -0.9685 -0.0592
12016SOL    HW245979  13.012   1.777   9.339 -0.2665 -1.5257 -0.5365
12017SOL     OW45980   9.076   5.993   3.127 -0.0251 -0.0230  0.0506
12017SOL    HW145981   8.993   5.946   3.120  0.0610 -0.1697  0.0330
12017SOL    HW245982   9.107   5.974   3.216 -0.8441  1.3857  0.6741
12018SOL     OW45983   2.300   6.942  11.463 -0.5602  0.2811 -0.1892
12018SOL    HW145984   2.230   6.914  11.522 -0.2305  3.0837  1.7223
12018SOL    HW245985   2.261   6.939  11.376 -3.1324  1.7697  0.8160
12019SOL     OW45986   6.879  11.297   4.885  0.2400 -0.3737 -0.5567
12019SOL    HW145987   6.870  11.375   4.830 -0.8236  0.2352  0.4487
12019SOL    HW245988   6.821  11.232   4.844  0.6867 -0.4661 -1.0622
12020SOL     OW45989   1.541   7.726   9.497 -0.4695 -0.0747 -0.0780
12020SOL    HW145990   1.511   7.635   9.507  0.5106 -0.5395 -1.1453
12020SOL    HW245991   1.634   7.722   9.521 -0.1508  0.4211 -1.2090
12021SOL     OW45992   2.270   0.009   8.365  0.3192 -0.0769  0.8053
12021SOL    HW145993   2.246   0.057   8.444 -2.0614  0.1526  0.0150
12021SOL    HW245994   2.343   0.059   8.327  1.8464 -0.4654  3.0414
12022SOL     OW45995   5.874   0.972   3.088 -0.4649 -0.1106 -0.1738
12022SOL    HW145996   5.781   0.995   3.092 -0.7832 -1.4415  1.0709
12022SOL    HW245997   5.910   1.004   3.171 -0.2551 -1.2831  0.2114
12023SOL     OW45998  13.194   2.551   5.630  0.3653  0.0541  0.1957
12023SOL    HW145999  13.107   2.543   5.670  1.0243  0.0396  1.6819
12023SOL    HW246000  13.190   2.494   5.553 -1.6909  1.8294 -1.1454
12024SOL     OW46001   6.350   8.681   7.030  0.3797 -0.2690  0.2082
12024SOL    HW146002   6.294   8.608   7.057  1.4729 -0.1639  3.0308
12024SOL    HW246003   6.439   8.650   7.045  1.0965  0.2897 -2.3224
12025SOL     OW46004   2.094  12.943  12.454 -0.4356 -0.0866  0.3476
12025SOL    HW146005   2.049  12.875  12.503  1.2690 -0.7897  1.0057
12025SOL    HW246006   2.177  12.904  12.428  0.3942  1.5808  0.3289
12026SOL     OW46007  11.604   7.263   5.134  0.0398  0.0115  0.3498
12026SOL    HW146008  11.600   7.185   5.189 -1.9509 -0.4163 -0.3190
12026SOL    HW246009  11.514   7.277   5.106  0.2154  2.9115  0.8984
12027SOL     OW46010   9.386   2.381  12.427 -0.2836  0.1799  0.2640
12027SOL    HW146011   9.304   2.421  12.455 -0.5608  0.1236 -0.4465
12027SOL    HW246012   9.391   2.398  12.333  0.2632 -0.2700  0.2007
12028SOL     OW46013   2.574  13.193  12.534 -0.2680 -0.5650  0.1124
12028SOL    HW146014   2.559  13.105  12.569  0.6062 -0.5659  0.5230
12028SOL    HW246015   2.543  13.252  12.603 -0.3394 -0.5569  0.0734
12029SOL     OW46016   0.253  10.019   1.467  0.3784 -0.0307 -0.0713
12029SOL    HW146017   0.241  10.045   1.376  0.9786  2.7847  0.5523
12029SOL    HW246018   0.181  10.061   1.515  1.2755  0.3480  1.0029
12030SOL     OW46019   1.759   9.337   3.806  0.1956 -0.3433  0.0285
12030SOL    HW146020   1.784   9.399   3.738  1.3401  0.0639  0.7884
12030SOL    HW246021   1.842   9.302   3.838 -0.4249 -3.4646 -1.4356
12031SOL     OW46022  10.945   8.540   0.122  0.3497  0.2062  0.1659
12031SOL    HW146023  10.948   8.628   0.083  0.9918  0.2449  0.2902
12031SOL    HW246024  11.027   8.500   0.096 -0.6078 -0.9422 -1.2220
12032SOL     OW46025   2.686  12.618  11.276 -0.1140 -0.2571 -0.3897
12032SOL    HW146026   2.701  12.535  11.321 -0.0802 -0.5398 -0.9073
12032SOL    HW246027   2.609  12.602  11.221 -1.7342  0.8431  1.4233
12033SOL     OW46028   1.441   2.494   2.957  0.3899 -0.2684  1.1188
12033SOL    HW146029   1.359   2.512   2.912  0.7347 -0.5929  0.3515
12033SOL    HW246030   1.428   2.530   3.045 -1.9830 -3.4791  2.2886
12034SOL     OW46031  10.003  11.512   3.470  0.0519  0.3103  0.2690
12034SOL    HW146032  10.076  11.573   3.467 -0.6212  1.0939 -0.6758
12034SOL    HW246033   9.976  11.502   3.379  1.0120 -2.4778  0.1981
12035SOL     OW46034   9.344   9.472   6.564 -0.0000 -0.2943  0.6872
12035SOL    HW146035   9.302   9.497   6.646 -1.0123 -0.8372  0.3560
12035SOL    HW246036   9.352   9.376   6.569 -0.7984 -0.4251 -0.1570
12036SOL     OW46037  10.764  11.379   2.195 -0.2715 -0.5046  0.0019
12036SOL    HW146038  10.815  11.389   2.114  0.2105  0.7747  0.4274
12036SOL    HW246039  10.807  11.308   2.242  1.4377  0.7836  0.5248
12037SOL     OW46040   2.909   8.394   4.414  0.6711  0.1134  0.2692
12037SOL    HW146041   2.816   8.387   4.395  1.1208 -0.1487 -2.0386
12037SOL    HW246042   2.918   8.361   4.504 -1.3260 -0.6270  0.2289
12038SOL     OW46043   3.841   0.669  12.933  0.7303 -0.4377  0.3808
12038SOL    HW146044   3.852   0.762  12.951 -1.7122  0.2193 -1.0124
12038SOL    HW246045   3.884   0.655  12.849  0.4169 -0.3843  0.2104
12039SOL     OW46046   8.140   7.334   8.538 -0.4985  0.1569 -0.2122
12039SOL    HW146047   8.226   7.293   8.523 -0.1046  1.0791 -0.5555
12039SOL    HW246048   8.100   7.339   8.452 -1.2633 -1.0147  0.0561
12040SOL     OW46049   8.791   8.381   5.018  0.1612  0.4631 -0.5272
12040SOL    HW146050   8.739   8.303   5.000 -0.0786  0.2298  1.0254
12040SOL    HW246051   8.729   8.454   5.008  0.4090  0.5000 -2.0723
12041SOL     OW46052  12.452   4.415   3.061 -0.0409 -0.0726 -0.1828
12041SOL    HW146053  12.421   4.342   3.115 -0.4361  0.2067 -0.0233
12041SOL    HW246054  12.547   4.414   3.071 -0.1743  0.7277  1.5269
12042SOL     OW46055  10.748  10.343   3.000  0.4830 -0.1308 -0.0722
12042SOL    HW146056  10.729  10.320   3.092  1.6047  0.1287  0.2363
12042SOL    HW246057  10.796  10.267   2.966  0.6789  0.0715 -0.2440
12043SOL     OW46058   7.637   0.671  10.961  0.0553 -0.4398  0.2295
12043SOL    HW146059   7.579   0.669  11.037 -1.1771 -0.1495 -0.6644
12043SOL    HW246060   7.587   0.629  10.891  1.5753 -1.6986 -0.1756
12044SOL     OW46061  12.548   7.637  10.496 -0.5070  0.1420 -0.6884
12044SOL    HW146062  12.497   7.592  10.428  0.7739 -1.4236 -0.6688
12044SOL    HW246063  12.501   7.618  10.577 -0.7876  0.0913 -0.8617
12045SOL     OW46064  11.194   7.880   7.400  0.0939  0.4941 -1.1616
12045SOL    HW146065  11.161   7.884   7.490 -1.2725 -1.2569 -1.5323
12045SOL    HW246066  11.226   7.969   7.383  2.3809  0.3908  1.7361
12046SOL     OW46067  10.973   6.218   7.666 -0.1936  0.4373  0.3225
12046SOL    HW146068  10.977   6.220   7.762  1.2280  1.1932  0.2723
12046SOL    HW246069  11.064   6.203   7.639 -0.3934  1.3811 -0.9241
12047SOL     OW46070   5.332  12.060   5.550 -0.5528  0.1520  0.3659
12047SOL    HW146071   5.351  12.148   5.520  2.6402  0.0715  1.7378
12047SOL    HW246072   5.250  12.068   5.598 -1.1777  1.9984 -0.9152
12048SOL     OW46073   6.450   6.748   3.970  0.0176  0.0690 -0.2634
12048SOL    HW146074   6.369   6.793   3.945  0.6351  1.3437 -0.0240
12048SOL    HW246075   6.434   6.716   4.059 -0.5407 -0.4936 -0.5568
12049SOL     OW46076   4.208   7.484   6.766  0.5219 -0.0671  0.7365
12049SOL    HW146077   4.132   7.535   6.793 -0.4522  1.4905 -3.9086
12049SOL    HW246078   4.278   7.549   6.756 -0.0528  0.2218 -2.8946
12050SOL     OW46079  13.202   2.345   6.989 -0.3261  0.2429  0.2341
12050SOL    HW146080  13.179   2.396   6.911  1.2070  2.0316  0.8666
12050SOL    HW246081  13.295   2.363   7.002 -0.3395 -0.7622  1.9528
12051SOL     OW46082   9.207  10.943  10.835 -0.6224 -0.0141 -0.0735
12051SOL    HW146083   9.211  11.025  10.884  1.0010  0.5570 -1.0930
12051SOL    HW246084   9.275  10.888  10.874 -0.7903 -0.3760 -0.2819
12052SOL     OW46085   7.563   1.931   7.786 -0.2070  0.0561 -0.0595
12052SOL    HW146086   7.548   2.025   7.777 -2.9714 -0.3698 -0.6134
12052SOL    HW246087   7.511   1.906   7.862 -0.8702 -1.2672 -0.9167
12053SOL     OW46088  10.682  12.383   1.381 -0.5260  0.3190 -0.6280
12053SOL    HW146089  10.704  12.455   1.322 -0.8026  2.9297  2.1505
12053SOL    HW246090  10.593  12.403   1.411 -0.4969 -1.0182  0.4621
12054SOL     OW46091  13.105   3.930  11.938  0.4589 -0.0611 -0.0208
12054SOL    HW146092  13.175   3.965  11.993 -0.1410  0.6239  0.3339
12054SOL    HW246093  13.151   3.890  11.864  1.2146  2.1411 -0.8448
12055SOL     OW46094   6.428   5.678   5.727 -0.0674  0.6745 -0.5683
12055SOL    HW146095   6.383   5.758   5.753 -1.0752  0.3420 -1.2408
12055SOL    HW246096   6.474   5.701   5.647  0.1731  0.7502 -0.4100
12056SOL     OW46097  11.436   6.448   5.204  0.3155  0.0505  0.4317
12056SOL    HW146098  11.494   6.481   5.135  1.1079 -0.2892  0.9147
12056SOL    HW246099  11.432   6.353   5.189 -0.2544  0.0955  0.2991
12057SOL     OW46100   8.993   7.352   8.272 -0.1124 -0.1944  0.3637
12057SOL    HW146101   8.985   7.269   8.225 -0.3970 -0.4720  0.8922
12057SOL    HW246102   8.927   7.409   8.232 -0.8289 -0.6492  0.8822
12058SOL     OW46103  11.311  11.330   4.891 -0.1098  0.1500 -0.0154
12058SOL    HW146104  11.234  11.306   4.942 -1.1457 -0.0624 -1.5990
12058SOL    HW246105  11.295  11.421   4.866  0.6146  0.4034  0.4228
12059SOL     OW46106   3.335   3.277   5.107  0.6074 -0.5687 -0.5216
12059SOL    HW146107   3.366   3.191   5.137  2.5065 -0.0558 -0.8727
12059SOL    HW246108   3.290   3.314   5.182  0.1459 -1.6925 -0.2229
12060SOL     OW46109   7.476  13.232   1.819  0.7771  0.0437  0.2699
12060SOL    HW146110   7.509  13.314   1.780  0.1422  0.7236  1.1312
12060SOL    HW246111   7.420  13.194   1.751 -0.0012  1.0199  0.3466
12061SOL     OW46112   4.531   5.997  12.846  0.8756  0.7124  0.4455
12061SOL    HW146113   4.577   5.975  12.926 -0.0314 -0.1929  0.7326
12061SOL    HW246114   4.444   6.025  12.875 -0.4833 -2.3528 -0.3221
12062SOL     OW46115   6.443   7.959   1.229  0.0226 -0.0548 -0.2829
12062SOL    HW146116   6.521   8.006   1.259 -0.0012 -1.5630  2.4632
12062SOL    HW246117   6.476   7.873   1.202 -0.4839 -0.0292 -1.0305
12063SOL     OW46118   5.382   0.861   9.409 -0.1281 -0.1908 -0.2709
12063SOL    HW146119   5.457   0.914   9.384 -0.9414  2.3629  2.1177
12063SOL    HW246120   5.380   0.789   9.346  3.1329  0.6916 -1.5643
12064SOL     OW46121   7.584  10.439   0.369 -0.3183  0.0640 -0.9992
12064SOL    HW146122   7.651  10.395   0.316  1.2138  0.0164  0.8516
12064SOL    HW246123   7.540  10.368   0.415  0.1026  0.2409 -0.3046
12065SOL     OW46124   3.141   0.962   6.527 -0.1104 -0.3070 -0.1743
12065SOL    HW146125   3.154   0.960   6.622 -0.3927  0.6412 -0.1084
12065SOL    HW246126   3.052   0.996   6.515  0.1118  0.0768 -0.7912
12066SOL     OW46127  12.372   6.285   9.881  0.0197 -0.3417 -0.2621
12066SOL    HW146128  12.349   6.375   9.860  0.5386 -0.4815 -1.5197
12066SOL    HW246129  12.442   6.291   9.946 -0.8240  0.1218  0.6417
12067SOL     OW46130   4.719   4.789   8.162 -0.2572 -0.1283  0.2613
12067SOL    HW146131   4.749   4.840   8.237 -0.9726  1.8250 -0.6814
12067SOL    HW246132   4.755   4.835   8.086 -0.6861 -1.2349 -0.6455
12068SOL     OW46133  11.766  12.557  12.241  0.2186  0.1267 -0.5075
12068SOL    HW146134  11.777  12.643  12.281  0.6410 -0.2867  0.2936
12068SOL    HW246135  11.703  12.512  12.298 -0.2319  0.0027 -1.0920
12069SOL     OW46136   9.013  13.046   4.824 -0.5408 -0.3297 -0.0971
12069SOL    HW146137   9.016  13.136   4.793  0.9779 -0.4214 -0.2786
12069SOL    HW246138   9.023  13.053   4.919 -1.1080 -0.2802 -0.0367
12070SOL     OW46139   3.584   4.276   1.559  0.2957  0.4004 -0.3460
12070SOL    HW146140   3.570   4.300   1.650  1.1049 -2.2908  0.5772
12070SOL    HW246141   3.538   4.344   1.509 -0.1166  1.9741  2.0219
12071SOL     OW46142  11.684   5.935   0.601 -0.2824  0.0459  0.5364
12071SOL    HW146143  11.649   6.014   0.559 -2.7718 -1.1606  0.1135
12071SOL    HW246144  11.687   5.957   0.694 -0.7078  0.7262  0.4015
12072SOL     OW46145   5.420   1.994   0.036 -0.3909 -0.0277  0.1067
12072SOL    HW146146   5.390   2.012  -0.053  1.1250  4.4335  0.2102
12072SOL    HW246147   5.385   2.067   0.088  1.7661 -0.4333  2.3394
12073SOL     OW46148   7.207  11.916   0.872 -0.1526 -0.4138  0.2803
12073SOL    HW146149   7.198  12.009   0.894  0.8058 -0.1914 -0.1998
12073SOL    HW246150   7.295  11.893   0.902  0.4454 -0.6022 -1.4792
12074SOL     OW46151   4.218  12.564   6.894  0.2123  0.0670 -0.5430
12074SOL    HW146152   4.229  12.526   6.807  1.8435  0.1835 -0.4206
12074SOL    HW246153   4.183  12.652   6.878  1.7884  0.6106 -1.1935
12075SOL     OW46154   5.334   1.154  10.987 -0.5330  0.3339 -0.7258
12075SOL    HW146155   5.384   1.123  11.062 -1.0096  0.0239 -0.5330
12075SOL    HW246156   5.300   1.075  10.946 -1.0032  0.5486 -0.7548
12076SOL     OW46157   3.183   3.453  11.393  0.2400  0.0824  0.1006
12076SOL    HW146158   3.251   3.413  11.340  1.7024  1.7407  0.6215
12076SOL    HW246159   3.205   3.428  11.483 -0.0254  0.3522  0.2449
12077SOL     OW46160   9.158   3.559   8.700 -0.4463 -0.4567  0.6984
12077SOL    HW146161   9.238   3.605   8.676 -1.1713 -0.3072 -1.6756
12077SOL    HW246162   9.091   3.627   8.704 -1.0614 -0.9485 -0.5449
12078SOL     OW46163  10.894   0.134   3.960 -0.9818  0.0701 -0.2032
12078SOL    HW146164  10.882   0.067   4.027  0.2128  0.3914  0.3696
12078SOL    HW246165  10.961   0.099   3.902  0.0892  0.9776  0.4400
12079SOL     OW46166   2.590   4.500   8.953 -0.1684  0.2170  0.0972
12079SOL    HW146167   2.553   4.520   9.039  0.5551  1.3521  0.1656
12079SOL    HW246168   2.673   4.455   8.973 -0.3578 -0.1845 -0.0177
12080SOL     OW46169  10.573  10.190   2.369  0.0902 -0.0448  0.3601
12080SOL    HW146170  10.516  10.119   2.398  1.9844 -1.8648 -0.0814
12080SOL    HW246171  10.639  10.198   2.437  1.0385 -0.1167 -0.5149
12081SOL     OW46172   8.487   2.637  11.987 -0.2212 -0.0115  0.0656
12081SOL    HW146173   8.411   2.687  11.958 -1.2345 -1.1601  0.6648
12081SOL    HW246174   8.492   2.654  12.081 -0.1669 -0.5109  0.1519
12082SOL     OW46175   3.033   9.122   9.912 -0.0794 -0.4190 -0.2559
12082SOL    HW146176   3.051   9.126  10.006 -0.7395 -0.3941 -0.1229
12082SOL    HW246177   2.955   9.066   9.905  0.5863 -1.2800 -0.8829
12083SOL     OW46178   5.715   5.815   8.203 -0.2608  0.7048  0.4362
12083SOL    HW146179   5.772   5.787   8.131 -0.9423  0.0261  0.1404
12083SOL    HW246180   5.655   5.741   8.216 -0.3162  0.9223  1.5339
12084SOL     OW46181   0.493  10.991   3.993  0.0370  0.5063 -0.5130
12084SOL    HW146182   0.453  11.051   3.929 -0.5250 -0.1205 -0.7611
12084SOL    HW246183   0.440  10.911   3.987 -1.2429  1.0421  2.0568
12085SOL     OW46184  10.063   5.150   4.374  0.4022 -0.5102  0.3644
12085SOL    HW146185  10.026   5.072   4.333  0.1050  0.2102 -0.8098
12085SOL    HW246186  10.156   5.147   4.351  0.0732  0.3724 -1.2532
12086SOL     OW46187   3.561   5.655   0.102  0.4469 -0.5951  0.1588
12086SOL    HW146188   3.471   5.678   0.125  0.4905  1.8911 -1.7260
12086SOL    HW246189   3.615   5.719   0.147  1.1176 -0.7473 -0.4009
12087SOL     OW46190   3.019   9.534   3.632 -0.2166 -0.3493 -0.6350
12087SOL    HW146191   3.048   9.532   3.723  1.2473 -2.5232 -1.0929
12087SOL    HW246192   3.093   9.571   3.584 -1.4821  2.1248 -0.8716
12088SOL     OW46193  12.040   5.283  12.248  0.3630 -0.1058 -0.2628
12088SOL    HW146194  12.129   5.297  12.281 -0.7058  3.3512  1.6238
12088SOL    HW246195  12.035   5.337  12.170 -0.1033 -0.2559 -0.3384
12089SOL     OW46196   6.238   3.815   3.372  0.2535  0.4656  0.4976
12089SOL    HW146197   6.281   3.753   3.430  0.9888 -0.1912 -0.7060
12089SOL    HW246198   6.179   3.761   3.319 -0.9604  1.1512  1.0992
12090SOL     OW46199   0.183  13.243   2.710 -0.2006  0.4632  0.2092
12090SOL    HW146200   0.153  13.211   2.625 -0.4882 -0.9145  0.7951
12090SOL    HW246201   0.270  13.206   2.719 -0.3978  0.1196  0.7491
12091SOL     OW46202  10.715   7.866   7.808  0.3736 -0.7091 -0.0155
12091SOL    HW146203  10.712   7.856   7.712  0.3224 -2.1281  0.1048
12091SOL    HW246204  10.636   7.917   7.829  0.2438 -0.6150 -0.7086
12092SOL     OW46205  12.978   5.695  12.273  0.1570  0.3993  0.1177
12092SOL    HW146206  13.035   5.702  12.196 -1.1289 -0.9892 -1.0451
12092SOL    HW246207  13.002   5.612  12.314 -0.2620  0.3376  0.2499
12093SOL     OW46208   6.634   0.691   5.582  0.0810 -0.2710  0.5412
12093SOL    HW146209   6.630   0.604   5.542 -0.9036  0.4137 -0.8945
12093SOL    HW246210   6.634   0.673   5.677 -0.5968 -1.8155  0.2856
12094SOL     OW46211   2.519   7.837   3.318  0.7152  0.0574  0.2148
12094SOL    HW146212   2.576   7.912   3.301  0.7733 -0.3430 -1.5034
12094SOL    HW246213   2.451   7.843   3.251  0.1671 -0.8922  0.6633
12095SOL     OW46214   3.791   4.981   3.380  0.1028 -0.4126  0.3683
12095SOL    HW146215   3.852   5.016   3.444 -0.8152  0.0105  1.0437
12095SOL    HW246216   3.759   4.900   3.418 -2.0692  0.8768  1.5514
12096SOL     OW46217   8.608   5.304   0.482  0.2117 -0.2243  0.2499
12096SOL    HW146218   8.544   5.252   0.434 -1.5264  3.0650 -1.3048
12096SOL    HW246219   8.662   5.239   0.528 -1.4388 -3.3347 -1.8569
12097SOL     OW46220   0.309   4.618  12.802 -0.2748 -0.3309 -0.0111
12097SOL    HW146221   0.364   4.573  12.737  1.8112  0.7718  0.9023
12097SOL    HW246222   0.225   4.573  12.798  0.6996 -2.1294 -1.4507
12098SOL     OW46223   4.599  10.504  11.672 -0.0923 -0.6193  0.4400
12098SOL    HW146224   4.607  10.449  11.750 -1.1841 -1.9135 -0.3127
12098SOL    HW246225   4.516  10.551  11.685  1.7459  2.4776  2.0003
12099SOL     OW46226   0.546   0.764   4.413 -0.0043  0.1679  0.3375
12099SOL    HW146227   0.503   0.808   4.487 -0.8332  0.8892 -0.5424
12099SOL    HW246228   0.639   0.763   4.436 -0.2853  0.0288  1.5597
12100SOL     OW46229   6.173   6.457  11.541  0.0806  0.3456  0.1864
12100SOL    HW146230   6.109   6.516  11.580 -0.8273 -0.2328 -0.4045
12100SOL    HW246231   6.204   6.404  11.614 -0.0387  0.6869  0.4897
12101SOL     OW46232   3.410   7.275  11.052 -0.6957  0.0235 -0.3216
12101SOL    HW146233   3.358   7.354  11.039  0.0290  0.5343 -0.2296
12101SOL    HW246234   3.459   7.292  11.133 -1.3220 -0.9685  0.2710
12102SOL     OW46235  12.555   2.001   8.889 -0.4006 -0.1618  0.2101
12102SOL    HW146236  12.640   2.029   8.855 -0.1575 -0.7485  0.3200
12102SOL    HW246237  12.532   2.068   8.953 -0.2665  0.2766 -0.1915
12103SOL     OW46238   0.696   3.995   0.899  0.3886 -0.2685  0.6413
12103SOL    HW146239   0.765   3.933   0.925  0.3880 -0.8968 -0.7887
12103SOL    HW246240   0.625   3.979   0.962  0.5570 -1.4270  0.5533
12104SOL     OW46241   3.208   8.786   1.756  0.1648 -0.3803  0.1818
12104SOL    HW146242   3.123   8.810   1.794 -0.4654 -0.8009 -0.9371
12104SOL    HW246243   3.195   8.699   1.719  0.7364  0.0543 -1.0841
12105SOL     OW46244   5.536  12.582   3.316  0.5577  0.0487 -0.1782
12105SOL    HW146245   5.551  12.568   3.410  0.7296 -0.1459 -0.2337
12105SOL    HW246246   5.624  12.585   3.279  0.4844 -0.0177 -0.3551
12106SOL     OW46247   1.775  12.488   0.279 -0.1025  0.0691 -0.0987
12106SOL    HW146248   1.811  12.406   0.312 -1.7048 -2.4989 -3.9736
12106SOL    HW246249   1.696  12.503   0.331 -0.9239 -2.0813 -0.6396
12107SOL     OW46250   0.373   9.138   1.095  0.5103 -0.0303 -0.2995
12107SOL    HW146251   0.406   9.087   1.170  0.9422  0.1488 -0.3658
12107SOL    HW246252   0.354   9.072   1.028  0.0672 -0.1952 -0.0137
12108SOL     OW46253   1.711  11.039   9.833  0.5404 -0.4460  0.3856
12108SOL    HW146254   1.630  11.005   9.872 -0.1085  0.3065 -0.2482
12108SOL    HW246255   1.780  11.010   9.892 -0.0488 -2.1460  0.2945
12109SOL     OW46256   1.945   2.549   7.035  0.2110  0.2003  0.0688
12109SOL    HW146257   1.901   2.471   7.068  0.7195 -0.4758 -0.8193
12109SOL    HW246258   2.037   2.537   7.058  0.1943  0.8449  0.4922
12110SOL     OW46259   5.232   0.592   9.784 -0.2736  0.1930  0.0763
12110SOL    HW146260   5.181   0.598   9.865 -0.1012  0.3555  0.1749
12110SOL    HW246261   5.199   0.514   9.740 -0.2296 -0.0080  0.4005
12111SOL     OW46262   6.908  10.405   5.672 -0.0201 -0.2853  0.0992
12111SOL    HW146263   6.987  10.416   5.725  0.5890  2.6852 -1.1914
12111SOL    HW246264   6.861  10.488   5.683 -1.7584 -1.0787 -1.0199
12112SOL     OW46265   7.801  10.582   4.582  0.5978  0.0628 -0.1733
12112SOL    HW146266   7.838  10.637   4.513  0.4097  1.4821  0.8094
12112SOL    HW246267   7.707  10.585   4.567  0.6556 -1.0356 -0.8495
12113SOL     OW46268   0.027   9.213   4.129 -0.4627 -0.4977  0.0514
12113SOL    HW146269  -0.055   9.189   4.172 -1.6602 -0.0402 -1.8820
12113SOL    HW246270   0.036   9.150   4.057  0.9355 -0.5692  0.2457
12114SOL     OW46271   3.281   4.611   0.788 -0.6475  0.1596 -0.4070
12114SOL    HW146272   3.356   4.557   0.763 -1.1437  0.0714 -1.7665
12114SOL    HW246273   3.243   4.566   0.863  0.2716 -0.1430 -0.1092
12115SOL     OW46274   8.949  10.671   5.859 -0.2151  0.1941 -0.1506
12115SOL    HW146275   8.990  10.589   5.833 -0.8089  0.1314 -0.9168
12115SOL    HW246276   8.934  10.718   5.776 -1.9810  0.0778  0.0572
12116SOL     OW46277   9.883   1.449   0.920  0.2002 -0.2187 -0.0308
12116SOL    HW146278   9.946   1.497   0.973  0.0616 -0.2893  0.2019
12116SOL    HW246279   9.877   1.499   0.839 -2.1273  1.8861  1.2827
12117SOL     OW46280   9.212   8.928   6.446  0.2565  0.7705  0.0966
12117SOL    HW146281   9.229   8.873   6.522 -2.4800  1.5944  1.4133
12117SOL    HW246282   9.217   8.868   6.372  0.1347 -0.6734  1.2059
12118SOL     OW46283   4.580   2.377   6.420 -0.6013  0.0643 -0.1706
12118SOL    HW146284   4.663   2.334   6.438 -1.0469 -0.3065  1.1467
12118SOL    HW246285   4.530   2.312   6.369 -0.6438 -0.3278  0.3598
12119SOL     OW46286   5.236   9.737   9.927 -0.0792 -0.7665 -0.5212
12119SOL    HW146287   5.189   9.672   9.980 -0.3005  1.3823  2.1127
12119SOL    HW246288   5.326   9.704   9.925 -0.4253 -1.7807 -0.3352
12120SOL     OW46289   3.656  10.489   0.652 -0.1776  0.1605 -0.5302
12120SOL    HW146290   3.632  10.446   0.570 -0.8031  0.7189 -0.6458
12120SOL    HW246291   3.589  10.556   0.665 -0.5332 -0.4206  0.8341
12121SOL     OW46292   5.048   3.982   0.438 -0.2989 -0.3807 -0.6807
12121SOL    HW146293   5.014   3.923   0.505 -1.9707 -0.2964 -1.4064
12121SOL    HW246294   5.141   3.961   0.433 -0.3451 -1.1403  0.8821
12122SOL     OW46295   1.816   1.355   9.815  0.1129 -0.0141  0.2539
12122SOL    HW146296   1.726   1.335   9.791 -0.3466  0.3358  1.5937
12122SOL    HW246297   1.811   1.378   9.908  1.7282 -0.9189  0.5883
12123SOL     OW46298  10.171   0.765  13.199  0.2226 -0.1020 -0.0974
12123SOL    HW146299  10.205   0.702  13.262 -0.6213 -0.7606 -0.2748
12123SOL    HW246300  10.115   0.712  13.141  0.5033  0.5952 -1.0207
12124SOL     OW46301   8.679   8.439  11.094  0.2969  0.7104 -0.3883
12124SOL    HW146302   8.719   8.485  11.167 -0.6928 -0.8548  1.2220
12124SOL    HW246303   8.594   8.481  11.082  0.1536  0.5030 -0.1247
12125SOL     OW46304   8.697   8.984  12.582  0.1819 -0.5716 -0.5759
12125SOL    HW146305   8.785   9.016  12.599  0.6324 -0.3433 -3.0540
12125SOL    HW246306   8.709   8.895  12.548 -0.4371 -0.1805 -1.8855
12126SOL     OW46307   0.849   3.759  11.407 -0.9274  0.4436  0.0509
12126SOL    HW146308   0.900   3.813  11.468 -3.1250  1.4309  1.1379
12126SOL    HW246309   0.811   3.821  11.346 -1.4695 -0.1679 -0.2448
12127SOL     OW46310   6.963  11.248   8.663 -0.0230  0.5116  0.1330
12127SOL    HW146311   7.015  11.169   8.650 -0.7818 -0.0352  0.3203
12127SOL    HW246312   6.875  11.215   8.684  0.4882  1.2564  4.4202
12128SOL     OW46313   2.728   4.526  10.853  0.0358 -0.3090 -0.0834
12128SOL    HW146314   2.699   4.595  10.793  0.0120 -1.1498 -1.0613
12128SOL    HW246315   2.648   4.477  10.873  0.3936 -1.3596 -1.1237
12129SOL     OW46316  12.439   7.847  12.293  0.3320 -0.1247 -0.3237
12129SOL    HW146317  12.349   7.815  12.298  0.4623 -0.5215 -0.4086
12129SOL    HW246318  12.434   7.938  12.320  0.0540 -0.4206  0.6456
12130SOL     OW46319   2.159   8.775  12.227 -0.3886 -0.4945 -0.3123
12130SOL    HW146320   2.244   8.748  12.260 -0.7237 -1.7281 -0.3961
12130SOL    HW246321   2.158   8.870  12.236  0.9765 -0.4666 -0.2812
12131SOL     OW46322  11.855   8.750   5.907 -0.0510  0.0301  0.0600
12131SOL    HW146323  11.769   8.758   5.865  0.6308 -0.0518 -1.4353
12131SOL    HW246324  11.873   8.838   5.940 -0.1921  0.3522 -0.6994
12132SOL     OW46325   1.841   2.931   3.275 -0.3349 -0.2106  0.3950
12132SOL    HW146326   1.824   2.940   3.369 -1.9169  0.5145  0.0774
12132SOL    HW246327   1.759   2.897   3.240  0.0160  0.1457 -0.8083
12133SOL     OW46328  10.181   8.606   7.261  0.0120  0.2367 -0.3412
12133SOL    HW146329  10.204   8.518   7.293  1.8757  0.6575 -0.4024
12133SOL    HW246330  10.160   8.593   7.169  0.3334 -0.1592 -0.3651
12134SOL     OW46331   2.127   3.050  11.531  0.2533 -0.1263  0.2267
12134SOL    HW146332   2.163   3.126  11.578  0.3056  1.2941 -1.9937
12134SOL    HW246333   2.047   3.083  11.490  1.3610 -0.6067 -2.5223
12135SOL     OW46334   1.932  11.149   1.958  0.2437 -0.0034 -0.1764
12135SOL    HW146335   1.846  11.156   1.916  0.2571 -1.4178 -0.4960
12135SOL    HW246336   1.960  11.239   1.971 -0.3426  0.4904 -2.0357
12136SOL     OW46337   2.646  12.784   4.787  0.0729 -0.3642 -0.1518
12136SOL    HW146338   2.597  12.866   4.796  0.4799 -0.2909  1.7440
12136SOL    HW246339   2.599  12.735   4.720  0.5410  1.9120 -2.3063
12137SOL     OW46340  11.411   8.978   7.420 -0.2621  0.1360 -0.2903
12137SOL    HW146341  11.370   8.929   7.491  2.6308  0.3542  1.6981
12137SOL    HW246342  11.343   9.038   7.390 -2.8244 -2.6713 -0.4934
12138SOL     OW46343   3.004   6.289   0.373  0.2718 -0.1122 -0.7259
12138SOL    HW146344   2.948   6.253   0.441 -2.9704 -0.1892 -3.2067
12138SOL    HW246345   3.034   6.373   0.408 -1.7241  0.1080  0.5882
12139SOL     OW46346  12.710   9.766   9.676 -0.2942 -0.1953  0.6181
12139SOL    HW146347  12.759   9.792   9.599 -0.3652 -0.8488  0.3458
12139SOL    HW246348  12.774   9.723   9.732 -0.2212  0.3682  0.9719
12140SOL     OW46349   3.898  11.235   0.851 -0.3252 -0.2929 -0.6213
12140SOL    HW146350   3.814  11.260   0.889 -0.0724 -0.0096 -0.2478
12140SOL    HW246351   3.962  11.291   0.894  0.0032 -0.1928 -1.2278
12141SOL     OW46352   0.131   8.522   3.170  0.3637 -0.7424 -0.4277
12141SOL    HW146353   0.040   8.550   3.179  0.2903 -1.0556 -0.1880
12141SOL    HW246354   0.135   8.438   3.215  0.7508 -0.7741 -0.5173
12142SOL     OW46355   1.710   6.261  12.452 -0.2383  0.1558 -0.6055
12142SOL    HW146356   1.689   6.323  12.382  1.7164  0.0808 -1.3014
12142SOL    HW246357   1.663   6.181  12.427  0.4214  0.1313 -1.8481
12143SOL     OW46358   2.862   5.222  10.557 -0.0352  0.2332  0.2447
12143SOL    HW146359   2.800   5.222  10.484  1.4567  0.0855 -1.0594
12143SOL    HW246360   2.935   5.276  10.527  0.7463 -0.0743  1.5106
12144SOL     OW46361   1.872  13.117   1.380  0.5071 -0.5810  0.2110
12144SOL    HW146362   1.886  13.027   1.411  2.1218 -0.2395  0.5495
12144SOL    HW246363   1.831  13.162   1.455  0.8998 -0.7186  0.5142
12145SOL     OW46364   5.309  13.200   6.105 -0.3982 -0.0471 -0.1771
12145SOL    HW146365   5.319  13.281   6.055  1.7330  0.4551  0.9578
12145SOL    HW246366   5.299  13.230   6.196 -1.6234 -1.0247  0.0448
12146SOL     OW46367   1.224   4.013  10.727 -0.0212 -0.1223  0.0467
12146SOL    HW146368   1.142   4.036  10.684 -1.5007 -1.0967  2.1725
12146SOL    HW246369   1.212   4.039  10.818  2.0652 -0.2473  0.4137
12147SOL     OW46370   5.108   9.100   3.609 -0.6619  0.6223 -0.8120
12147SOL    HW146371   5.029   9.103   3.555 -2.1180  1.1947  1.2383
12147SOL    HW246372   5.154   9.181   3.588 -1.4679  1.0925 -0.8114
12148SOL     OW46373   4.171   3.775   8.601  0.2270 -0.2476 -0.1014
12148SOL    HW146374   4.174   3.760   8.507 -0.9956  0.4071 -0.2700
12148SOL    HW246375   4.193   3.690   8.640  0.2553 -0.6512 -0.9789
12149SOL     OW46376   2.845   6.434  12.042  0.1680 -0.2615  0.0910
12149SOL    HW146377   2.921   6.470  12.088  1.5438 -0.4410 -1.8989
12149SOL    HW246378   2.859   6.340  12.043 -2.5313 -0.8468  3.7599
12150SOL     OW46379   4.048   5.676   9.941 -0.2957 -0.2529 -0.0824
12150SOL    HW146380   4.097   5.712  10.015 -2.0471 -0.7813  1.4104
12150SOL    HW246381   3.997   5.604   9.978 -1.5215 -0.2882 -1.7230
12151SOL     OW46382   1.441  10.803   6.547  0.4145  0.6607 -0.3016
12151SOL    HW146383   1.528  10.798   6.507 -0.4027  0.0786 -2.1237
12151SOL    HW246384   1.382  10.817   6.474 -1.3280 -1.7954  0.4799
12152SOL     OW46385   2.846   3.328   5.249 -0.1596  0.3489 -0.2584
12152SOL    HW146386   2.857   3.366   5.162  1.2544 -0.1838 -0.3298
12152SOL    HW246387   2.872   3.236   5.239  0.9670  0.5131  0.9225
12153SOL     OW46388   4.231  13.241  10.393 -0.0093 -0.2594 -0.1499
12153SOL    HW146389   4.141  13.262  10.417  0.5093  0.8207  0.9501
12153SOL    HW246390   4.224  13.164  10.337 -1.5440 -0.8851  0.8412
12154SOL     OW46391   7.102   9.464   7.838 -0.0359  0.3414 -0.0525
12154SOL    HW146392   7.178   9.428   7.884  0.2803  1.0828  0.0058
12154SOL    HW246393   7.030   9.405   7.863 -0.2125  1.5513  2.6357
12155SOL     OW46394  11.814   2.361   8.073 -0.3654  0.0971  0.3666
12155SOL    HW146395  11.742   2.334   8.015 -0.7870 -1.1700  1.4459
12155SOL    HW246396  11.843   2.280   8.114 -0.5089  1.0368  2.4095
12156SOL     OW46397  11.305   1.781   5.958  0.3463 -0.3852 -0.0686
12156SOL    HW146398  11.243   1.711   5.976  0.5241 -1.4763 -3.2171
12156SOL    HW246399  11.251   1.859   5.947 -0.1677 -0.7156  0.0916
12157SOL     OW46400   3.327   9.875  11.477  0.2767  0.1744 -0.5149
12157SOL    HW146401   3.325   9.940  11.547 -1.8091  0.4007 -0.7119
12157SOL    HW246402   3.341   9.926  11.397 -0.2502  0.2638 -0.5533
12158SOL     OW46403   3.369   0.214   5.732  0.2493 -0.1787 -0.1325
12158SOL    HW146404   3.312   0.213   5.809 -0.0494 -2.7709 -0.3025
12158SOL    HW246405   3.312   0.241   5.660  0.0458  0.3432  0.2182
12159SOL     OW46406   9.981   5.472   8.070 -0.1025  0.4750  0.5044
12159SOL    HW146407   9.995   5.539   8.003  0.3600  0.2114  0.3286
12159SOL    HW246408  10.064   5.425   8.074 -0.2543  0.2445  0.9971
12160SOL     OW46409   1.073   3.421  10.766  0.5851 -0.0869 -0.0337
12160SOL    HW146410   1.028   3.501  10.740  1.5701  0.1798 -1.0097
12160SOL    HW246411   1.005   3.366  10.803 -0.3031  0.7992 -0.3092
12161SOL     OW46412   5.050  10.144   0.094 -0.0313  0.6619  0.2336
12161SOL    HW146413   5.029  10.140   0.187 -0.6655  1.1788  0.1232
12161SOL    HW246414   4.994  10.079   0.053  0.4209  0.2634  0.2317
12162SOL     OW46415   3.325   3.220   6.159  0.3586  0.4599  0.2126
12162SOL    HW146416   3.317   3.157   6.230  0.7920 -2.0127 -1.8143
12162SOL    HW246417   3.236   3.229   6.125  0.4131  0.4143  0.0587
12163SOL     OW46418   9.442   6.211   2.653 -0.5261  0.0900  0.4678
12163SOL    HW146419   9.444   6.167   2.738 -0.5003 -0.3074  0.2632
12163SOL    HW246420   9.487   6.294   2.668 -0.9260  0.2231  0.9550
12164SOL     OW46421   2.705   7.446   3.318 -0.5463 -0.3406 -0.2074
12164SOL    HW146422   2.721   7.405   3.233  1.4999  1.5301 -0.8114
12164SOL    HW246423   2.722   7.539   3.303 -0.9067  0.1433  2.0768
12165SOL     OW46424   8.167   0.796  12.573 -0.2214 -0.1308 -0.2190
12165SOL    HW146425   8.090   0.813  12.627  0.5133  0.2852  0.7129
12165SOL    HW246426   8.174   0.700  12.571  0.2377 -0.1490  1.1581
12166SOL     OW46427   1.098   3.291  10.458  0.1630 -0.4683 -0.0167
12166SOL    HW146428   1.122   3.381  10.435 -0.6708 -0.7738 -2.3962
12166SOL    HW246429   1.179   3.242  10.451  0.7450  0.1499  1.8627
12167SOL     OW46430  12.348   3.766   5.311 -0.3520  0.1338  0.5497
12167SOL    HW146431  12.397   3.845   5.335  0.6152 -0.6922  1.3931
12167SOL    HW246432  12.344   3.769   5.216 -0.6972  1.4102  0.5808
12168SOL     OW46433  12.149   3.487   8.814 -0.6658  0.0223  0.2490
12168SOL    HW146434  12.137   3.420   8.881 -0.8169  0.1091  0.3097
12168SOL    HW246435  12.186   3.440   8.739  1.4479  0.2589  1.0600
12169SOL     OW46436  12.079   0.425  13.287 -0.0577  0.6521 -0.3355
12169SOL    HW146437  12.029   0.408  13.366 -1.1139 -0.8715 -1.2798
12169SOL    HW246438  12.167   0.448  13.319 -0.3491 -0.3016  1.2499
12170SOL     OW46439   6.445   6.414   3.568 -0.0852  0.0405 -0.3490
12170SOL    HW146440   6.357   6.448   3.585 -0.5233 -1.0014 -0.4546
12170SOL    HW246441   6.467   6.449   3.482 -0.7132 -0.2872 -0.6550
12171SOL     OW46442   6.319   5.787   4.760 -0.1339 -0.1758 -0.2420
12171SOL    HW146443   6.226   5.777   4.782  0.0118 -0.1153  0.3916
12171SOL    HW246444   6.361   5.711   4.800  0.5863  1.4723  2.3374
12172SOL     OW46445   1.180   3.125  11.344  0.7776 -0.3159 -0.5197
12172SOL    HW146446   1.220   3.068  11.409  0.0717 -0.3655 -0.1193
12172SOL    HW246447   1.091   3.092  11.334  0.3986  0.6344 -0.3778
12173SOL     OW46448  10.388   1.975   1.508  0.1202 -0.5142  0.1202
12173SOL    HW146449  10.403   1.963   1.602  2.0451 -2.2120 -0.3401
12173SOL    HW246450  10.475   1.970   1.469 -0.6712 -0.0924 -1.8057
12174SOL     OW46451   6.309  10.278   4.081  0.1538  0.9565 -0.0565
12174SOL    HW146452   6.246  10.348   4.096 -0.8541  0.1165 -0.2974
12174SOL    HW246453   6.295  10.217   4.153  0.1546  0.3786 -0.5399
12175SOL     OW46454  10.942  11.784  12.365  0.1270 -0.1333  0.0143
12175SOL    HW146455  10.994  11.712  12.402 -0.4244 -0.1186  0.8588
12175SOL    HW246456  10.973  11.861  12.412  1.2308  0.3320 -1.3972
12176SOL     OW46457   6.395  10.468   4.966  0.8593 -0.6893 -0.1250
12176SOL    HW146458   6.417  10.379   4.994  1.0042 -0.6962 -0.2600
12176SOL    HW246459   6.393  10.519   5.047  2.7241 -0.3957 -0.2077
12177SOL     OW46460   8.061   4.305   3.547  0.1412 -0.2209 -0.2535
12177SOL    HW146461   8.110   4.282   3.626  1.3687  3.3159  0.2206
12177SOL    HW246462   7.993   4.365   3.578 -0.6709 -0.3910 -1.6438
12178SOL     OW46463  10.000   0.689   5.582 -0.8901 -0.8602  0.5317
12178SOL    HW146464  10.053   0.755   5.537  0.1518 -1.9667  0.0784
12178SOL    HW246465   9.928   0.738   5.621  0.2874  0.6613  0.8747
12179SOL     OW46466   3.099  10.138   9.725  0.2658 -0.1766  0.1534
12179SOL    HW146467   3.049  10.126   9.645  1.2414 -2.6863 -0.1681
12179SOL    HW246468   3.043  10.103   9.794 -0.4995  1.8196  0.6137
12180SOL     OW46469   6.386   6.755   2.346  0.0869  0.3230  0.5131
12180SOL    HW146470   6.404   6.700   2.269 -1.0853  1.0491 -0.3044
12180SOL    HW246471   6.297   6.785   2.333 -0.0392  0.6645  2.0607
12181SOL     OW46472   4.819   1.044   8.462 -0.5679  0.2183 -0.0274
12181SOL    HW146473   4.791   1.013   8.548 -1.8772 -0.3009 -0.6162
12181SOL    HW246474   4.891   1.105   8.481  0.7751 -1.6583  1.2943
12182SOL     OW46475   3.031   4.473   3.557  0.1648 -0.1138 -0.0970
12182SOL    HW146476   3.045   4.474   3.463  0.2483  0.0268 -0.0839
12182SOL    HW246477   3.046   4.564   3.584  1.5955 -0.4338  0.2701
12183SOL     OW46478  10.072   3.913   7.290  0.4107 -0.4679  0.0563
12183SOL    HW146479  10.147   3.954   7.330  0.2114 -0.7842  0.7697
12183SOL    HW246480  10.103   3.885   7.203  0.8375  0.2290 -0.0187
12184SOL     OW46481   7.301   1.992   1.366  0.2143  0.4364 -0.0383
12184SOL    HW146482   7.263   1.923   1.311  0.4358  0.7443 -0.5855
12184SOL    HW246483   7.386   2.011   1.325  0.9759 -0.2248  1.1459
12185SOL     OW46484   5.852   0.065  11.494  0.2721 -0.1350  0.5101
12185SOL    HW146485   5.905  -0.006  11.458  0.3861  0.5847 -0.8170
12185SOL    HW246486   5.897   0.089  11.575  2.6736  1.1199 -1.0439
12186SOL     OW46487   5.836   6.219  12.602 -0.1138 -0.2700 -0.0560
12186SOL    HW146488   5.855   6.235  12.694  0.5331 -0.7314 -0.1004
12186SOL    HW246489   5.853   6.126  12.590 -0.8276 -0.3461 -0.4966
12187SOL     OW46490   8.816   2.373  12.574 -0.4045  0.2681  0.1906
12187SOL    HW146491   8.826   2.337  12.486  1.7379  1.2702 -0.0352
12187SOL    HW246492   8.860   2.458  12.571 -0.2164  0.2988  2.2428
12188SOL     OW46493   1.926  11.322  10.322  0.4060 -0.2688 -0.2285
12188SOL    HW146494   1.962  11.258  10.383  0.0200 -2.5830 -2.2817
12188SOL    HW246495   1.995  11.336  10.257 -0.1047  0.1170 -0.7006
12189SOL     OW46496   0.100   8.595   6.003  0.3851  0.1675  0.0072
12189SOL    HW146497   0.132   8.538   6.073  0.5952 -0.2157 -0.3953
12189SOL    HW246498   0.028   8.545   5.963  1.4517 -0.4263 -1.2260
12190SOL     OW46499   9.628   5.939   3.945  0.1655 -0.2190 -0.2314
12190SOL    HW146500   9.566   6.010   3.925 -0.3608  1.1633  4.9242
12190SOL    HW246501   9.714   5.976   3.926 -0.1946  1.4042  1.0560
12191SOL     OW46502   5.296   9.980  10.492  0.3069 -0.0326 -0.4455
12191SOL    HW146503   5.219   9.931  10.523  0.5426  0.1334  0.4533
12191SOL    HW246504   5.277  10.071  10.514  0.0149  0.2585 -1.8132
12192SOL     OW46505   0.443   3.074   9.991 -0.5429  0.4973  0.2398
12192SOL    HW146506   0.415   3.154  10.036 -0.8762 -0.1045  1.1281
12192SOL    HW246507   0.538   3.078   9.992 -0.5176  0.0258  1.8989
12193SOL     OW46508   9.708  10.987   6.875 -0.2439  0.3682  0.0491
12193SOL    HW146509   9.672  11.006   6.788  1.9558  0.5694 -0.8667
12193SOL    HW246510   9.678  10.898   6.894 -1.2449  0.5351 -0.6262
12194SOL     OW46511  12.839   2.181   0.757  0.3417  0.0914  0.1549
12194SOL    HW146512  12.776   2.246   0.787  0.0465 -0.5147  0.8888
12194SOL    HW246513  12.829   2.180   0.661 -0.6764  0.0989  0.2465
12195SOL     OW46514   7.852   5.597  11.636  0.3119  0.2995 -0.3790
12195SOL    HW146515   7.896   5.630  11.714 -1.2318 -0.9606  1.1203
12195SOL    HW246516   7.759   5.599  11.658 -0.1118 -0.9980 -1.8145
12196SOL     OW46517   7.075  11.109   7.784 -0.0315 -0.6060  0.3172
12196SOL    HW146518   7.005  11.170   7.808  0.4907 -0.0423  0.4396
12196SOL    HW246519   7.125  11.097   7.865  1.0527  0.3881 -0.1703
12197SOL     OW46520  12.011   5.039  11.717 -0.1300 -0.2434 -0.4351
12197SOL    HW146521  12.058   4.964  11.755 -0.5547 -1.3759 -2.0210
12197SOL    HW246522  12.078   5.090  11.673  0.3955  1.1760  1.8418
12198SOL     OW46523  13.165  12.315  11.262  0.7095 -0.4106  0.5943
12198SOL    HW146524  13.089  12.318  11.320 -0.0967 -1.1230 -0.3887
12198SOL    HW246525  13.200  12.227  11.273  1.3022 -0.1425  0.9117
12199SOL     OW46526   0.679   2.346   0.269  0.5266  0.0900 -0.6535
12199SOL    HW146527   0.609   2.314   0.326 -1.0733  0.6690 -2.2206
12199SOL    HW246528   0.685   2.281   0.199  1.1579  0.3471 -0.8464
12200SOL     OW46529   9.181  13.315   5.176 -0.0640 -0.5716  0.4758
12200SOL    HW146530   9.229  13.262   5.240  0.4840  0.8979  1.3277
12200SOL    HW246531   9.249  13.360   5.126 -0.5106  0.4797  0.7804
12201SOL     OW46532   1.333  13.058   0.863 -0.6943  0.5790  0.0593
12201SOL    HW146533   1.418  13.102   0.856 -0.1314 -0.3726  0.6515
12201SOL    HW246534   1.292  13.073   0.778 -0.0630  1.3068 -0.1341
12202SOL     OW46535   3.137   0.077   3.641  0.2210 -0.2307 -0.2853
12202SOL    HW146536   3.116   0.003   3.583 -0.1750 -0.7755  0.5323
12202SOL    HW246537   3.119   0.155   3.588  0.4118 -0.7108 -1.0817
12203SOL     OW46538   1.324  11.958   4.118  0.3374  0.4247  0.0220
12203SOL    HW146539   1.330  12.016   4.194 -1.7244 -1.5440  1.8228
12203SOL    HW246540   1.405  11.907   4.120  1.0477  1.5237 -0.1369
12204SOL     OW46541   5.029   3.241   0.285  0.3054 -0.2279 -0.3369
12204SOL    HW146542   5.108   3.289   0.262  0.5281 -0.3377  0.1802
12204SOL    HW246543   5.021   3.251   0.380 -0.8901  0.6721 -0.4975
12205SOL     OW46544   6.863   4.901  10.117 -0.0429 -0.3435 -0.0859
12205SOL    HW146545   6.889   4.922  10.206 -0.1586  0.4929 -0.2471
12205SOL    HW246546   6.769   4.920  10.114 -0.5735 -2.5657  0.2612
12206SOL     OW46547  10.390   1.899   7.581 -0.0092  0.1783  0.1561
12206SOL    HW146548  10.480   1.904   7.550 -0.2027  0.9148 -0.2802
12206SOL    HW246549  10.343   1.855   7.511 -0.3385  1.3720 -0.3891
12207SOL     OW46550   6.432   5.500   4.265 -0.0319 -0.0427  0.5976
12207SOL    HW146551   6.431   5.572   4.329  0.6341 -0.2952  0.8907
12207SOL    HW246552   6.351   5.452   4.283 -1.3272  1.5537 -0.6710
12208SOL     OW46553   9.637  12.210   3.907  0.4065 -0.2472  0.2448
12208SOL    HW146554   9.688  12.230   3.829 -1.7650  1.4927 -0.8619
12208SOL    HW246555   9.609  12.295   3.940 -3.2883 -1.0587 -0.3707
12209SOL     OW46556  10.973  10.693   9.707  0.5770  0.2216  0.3415
12209SOL    HW146557  10.937  10.612   9.744 -1.2333 -0.8889 -3.3097
12209SOL    HW246558  11.057  10.666   9.669  1.2540  0.7752  1.3811
12210SOL     OW46559   3.252   0.718   1.034  0.4282 -0.2030 -0.3436
12210SOL    HW146560   3.336   0.687   1.067  0.6847  1.1255  0.2711
12210SOL    HW246561   3.232   0.796   1.084 -1.0369 -0.3057 -0.6988
12211SOL     OW46562   5.447  11.038   2.888 -0.5232 -0.5336  0.0205
12211SOL    HW146563   5.418  11.041   2.797 -1.2917 -2.5373  0.1672
12211SOL    HW246564   5.464  11.130   2.911 -2.5063  0.2470 -1.4298
12212SOL     OW46565   0.134  12.437  10.315  0.6846  0.4877  0.3176
12212SOL    HW146566   0.162  12.346  10.304  0.4937  0.4808 -0.1480
12212SOL    HW246567   0.106  12.443  10.406  0.3008 -0.0326  0.2377
12213SOL     OW46568   1.903   7.853   8.382  0.5160  0.0215  0.1496
12213SOL    HW146569   1.943   7.913   8.445 -0.2727  0.4327  0.2736
12213SOL    HW246570   1.962   7.854   8.306  1.5871 -0.6433  0.9456
12214SOL     OW46571  10.261  12.228  10.087 -0.5926  0.5964 -0.3959
12214SOL    HW146572  10.232  12.229   9.996 -0.8646 -1.6781 -0.3952
12214SOL    HW246573  10.356  12.235  10.083 -0.6377  1.0134 -0.8072
12215SOL     OW46574   8.281   9.403   2.621 -0.3140  0.2658  0.5189
12215SOL    HW146575   8.228   9.480   2.599  1.2376  1.4405  0.7352
12215SOL    HW246576   8.234   9.361   2.693 -0.6846  1.5745  1.0617
12216SOL     OW46577   7.009  12.383  10.805  0.1811  0.3192  0.3734
12216SOL    HW146578   7.102  12.360  10.804 -0.1179 -1.0195 -0.9512
12216SOL    HW246579   6.998  12.444  10.732  0.1728  1.3129  1.1744
12217SOL     OW46580   8.024   6.696   2.522 -0.3611 -0.4711 -0.3027
12217SOL    HW146581   8.066   6.611   2.506 -2.2425 -1.4988 -0.1601
12217SOL    HW246582   7.939   6.673   2.561 -0.9526  1.4792 -0.3435
12218SOL     OW46583   7.774   9.783   0.022  0.0403  0.2567  0.5078
12218SOL    HW146584   7.780   9.717   0.090 -0.7610 -0.0427  0.2966
12218SOL    HW246585   7.864   9.791  -0.012  0.3567  0.0997  1.2883
12219SOL     OW46586   9.955   3.428   2.623 -0.1013 -0.1503 -0.8550
12219SOL    HW146587   9.950   3.402   2.714 -1.7557  0.4142 -0.7513
12219SOL    HW246588  10.020   3.498   2.621 -0.6711  0.4223  0.0627
12220SOL     OW46589  12.126   8.451   4.249  0.7182 -0.3188 -0.1399
12220SOL    HW146590  12.215   8.479   4.270  0.2990 -0.6957  2.4761
12220SOL    HW246591  12.075   8.532   4.250  0.9440 -0.1443 -1.3192
12221SOL     OW46592   8.743   7.394   9.273 -0.2940  0.0909  0.0661
12221SOL    HW146593   8.696   7.311   9.277 -1.8389  0.9413  0.3887
12221SOL    HW246594   8.783   7.402   9.360  0.4975 -0.6596 -0.2217
12222SOL     OW46595  10.711  10.650   7.564 -0.0420 -0.0893 -0.2429
12222SOL    HW146596  10.632  10.611   7.603 -0.2481 -0.3549 -0.8947
12222SOL    HW246597  10.677  10.713   7.500  0.2874  1.8818  1.4344
12223SOL     OW46598   9.831   0.455  12.953  0.4025  0.5179 -0.4206
12223SOL    HW146599   9.797   0.474  12.866 -2.9036  2.0699  1.0288
12223SOL    HW246600   9.782   0.378  12.981 -1.0031  1.9129  1.1758
12224SOL     OW46601   8.247   1.748   0.861  0.5950  0.7043 -0.2113
12224SOL    HW146602   8.288   1.833   0.879  1.8820 -0.3220  2.3074
12224SOL    HW246603   8.154   1.763   0.873  0.8849  1.6050  1.1769
12225SOL     OW46604   0.397   6.068   2.366 -0.0889  0.0096 -0.2762
12225SOL    HW146605   0.462   6.084   2.435  2.7561  2.0412 -3.1536
12225SOL    HW246606   0.371   5.976   2.378  1.8009 -0.3037  2.1867
12226SOL     OW46607   3.866   0.196   1.596 -0.2981 -0.1421  0.2115
12226SOL    HW146608   3.927   0.134   1.636 -1.7007  0.2440  3.1646
12226SOL    HW246609   3.904   0.282   1.614 -0.6675  0.0244  0.1963
12227SOL     OW46610   5.875   8.111   7.468 -0.0350  0.6220 -0.4171
12227SOL    HW146611   5.835   8.067   7.542 -0.5239 -0.1632 -1.1303
12227SOL    HW246612   5.960   8.141   7.500 -1.2550  2.5569  1.2045
12228SOL     OW46613  10.359   5.613   9.720 -0.3116  0.3118 -0.3104
12228SOL    HW146614  10.281   5.569   9.686 -0.1055  0.6861 -1.3079
12228SOL    HW246615  10.362   5.697   9.673 -0.8639  1.5559  1.7531
12229SOL     OW46616  12.726   2.563   7.798 -0.0567 -0.1629 -0.3409
12229SOL    HW146617  12.653   2.592   7.852 -0.6754 -0.8026 -0.8105
12229SOL    HW246618  12.688   2.497   7.740  0.5511  0.5883 -1.6477
12230SOL     OW46619   3.912   7.667   8.083  0.0111  0.2864 -0.1555
12230SOL    HW146620   3.882   7.710   8.003 -1.1188  0.0867  0.1325
12230SOL    HW246621   3.996   7.629   8.060 -0.4532 -0.0665 -1.3697
12231SOL     OW46622   1.454   8.348  13.090  0.4722 -0.3513  0.1788
12231SOL    HW146623   1.518   8.366  13.159 -0.0298  1.8222  0.1430
12231SOL    HW246624   1.375   8.322  13.138  0.6653 -0.7112  0.3122
12232SOL     OW46625  13.253   1.492   0.555 -0.0460  0.4585 -0.6093
12232SOL    HW146626  13.324   1.437   0.521  0.1156  1.5901 -2.1864
12232SOL    HW246627  13.225   1.447   0.635  1.2936 -0.9268 -0.8636
12233SOL     OW46628   3.560   7.667   5.927  0.3558  0.4980 -0.1237
12233SOL    HW146629   3.606   7.595   5.971  2.1361  2.0862  0.7818
12233SOL    HW246630   3.510   7.709   5.997  0.8486  1.2703 -0.2248
12234SOL     OW46631   6.340   1.350   5.683 -0.2030  0.4262 -0.0207
12234SOL    HW146632   6.391   1.318   5.757 -0.9662  1.8665  1.1889
12234SOL    HW246633   6.312   1.271   5.636  0.7675 -0.4867  0.9006
12235SOL     OW46634  11.997   5.609   6.638 -0.2440 -0.1296 -0.2337
12235SOL    HW146635  12.076   5.619   6.692 -0.1891  1.6013 -0.5677
12235SOL    HW246636  12.029   5.571   6.556  0.3860  1.1436 -0.6086
12236SOL     OW46637   4.908  13.042  11.517  0.1693  0.6415  0.1373
12236SOL    HW146638   4.942  13.128  11.541  1.6244 -0.4769  2.3525
12236SOL    HW246639   4.985  12.990  11.494 -0.6718 -0.1583 -1.0435
12237SOL     OW46640   5.997  11.062  12.931  0.1595 -0.0669  0.1811
12237SOL    HW146641   5.968  10.985  12.883 -1.0135  0.0647  0.6323
12237SOL    HW246642   6.066  11.100  12.877  0.0916 -0.8953 -0.5102
12238SOL     OW46643   0.786   3.137   6.733 -0.1431  0.4006 -0.2586
12238SOL    HW146644   0.795   3.178   6.647 -0.4975 -0.7462 -0.8634
12238SOL    HW246645   0.756   3.207   6.791 -2.2132  0.6684 -1.5813
12239SOL     OW46646  10.408   6.786   7.720  0.3837  0.1830  0.1532
12239SOL    HW146647  10.455   6.867   7.741  0.3763  0.2360 -0.0277
12239SOL    HW246648  10.344   6.776   7.790 -1.2777  1.6284 -1.0458
12240SOL     OW46649  11.141  10.410   7.630  0.2315  0.1562 -0.1134
12240SOL    HW146650  11.084  10.474   7.586 -0.0453 -0.6094 -0.8869
12240SOL    HW246651  11.184  10.461   7.699 -1.6290  0.6923  0.7249
12241SOL     OW46652   6.110  11.004  11.079  0.5337 -0.3599 -0.0730
12241SOL    HW146653   6.119  11.062  11.004 -1.7664  1.9096  1.2810
12241SOL    HW246654   6.199  10.998  11.116  1.3322 -0.0267 -1.8579
12242SOL     OW46655   4.517   0.844   7.136  0.3397  0.6893 -0.3973
12242SOL    HW146656   4.441   0.826   7.191  0.2984  0.2677 -0.5868
12242SOL    HW246657   4.586   0.787   7.169 -0.1290 -0.7374 -1.7321
12243SOL     OW46658   9.869   4.845   2.570  0.3454  0.2196 -0.0840
12243SOL    HW146659   9.800   4.789   2.533  0.0728  1.0790 -0.9397
12243SOL    HW246660   9.898   4.898   2.496  1.1823  0.6182  0.5198
12244SOL     OW46661   2.984   7.356   0.874  0.0408 -0.0908 -0.2613
12244SOL    HW146662   2.906   7.302   0.883  0.9342 -1.1652  1.6448
12244SOL    HW246663   3.056   7.293   0.868  1.3311  0.6710  4.0340
12245SOL     OW46664   2.976   9.784   1.755  0.3167 -0.1331  0.2558
12245SOL    HW146665   3.050   9.838   1.783 -1.9595  1.6625  3.4538
12245SOL    HW246666   2.995   9.697   1.790  1.5098 -0.0621 -0.1685
12246SOL     OW46667   6.722  11.599  12.023 -0.4466  0.0123  0.3802
12246SOL    HW146668   6.665  11.657  11.973 -0.8411 -1.5104 -1.0345
12246SOL    HW246669   6.783  11.564  11.958  0.2776 -0.5623  1.3399
12247SOL     OW46670   4.902   4.258   7.565 -0.3078  0.0911  0.0100
12247SOL    HW146671   4.871   4.257   7.656 -0.2671  1.2420  0.0433
12247SOL    HW246672   4.899   4.166   7.538  0.3769 -0.3798  1.4167
12248SOL     OW46673   5.252   8.546   6.198 -0.4957  0.5517  0.2561
12248SOL    HW146674   5.201   8.608   6.250 -1.2115 -0.1039  0.3637
12248SOL    HW246675   5.188   8.504   6.141  0.0623  0.2898 -0.1848
12249SOL     OW46676   4.570   2.842   6.476  0.2049 -0.6076 -0.2485
12249SOL    HW146677   4.507   2.914   6.473 -1.5850 -1.8622  2.4363
12249SOL    HW246678   4.617   2.855   6.559 -1.0067 -3.0315  0.9464
12250SOL     OW46679  11.618  11.625   3.559  0.3246  0.1867  0.0775
12250SOL    HW146680  11.663  11.694   3.511  2.7428 -1.0964  0.3144
12250SOL    HW246681  11.626  11.650   3.651 -1.6498  1.1508  0.0159
12251SOL     OW46682  13.192   2.202   4.509  1.2074  0.2028 -0.3647
12251SOL    HW146683  13.148   2.257   4.574  2.5072  1.8880 -0.8416
12251SOL    HW246684  13.147   2.222   4.427  2.4559  1.5494 -0.7607
12252SOL     OW46685   5.411   5.546   6.030  0.4251 -0.0998 -0.7168
12252SOL    HW146686   5.404   5.640   6.047  2.2039 -0.2864  1.4642
12252SOL    HW246687   5.325   5.511   6.054  1.0621  0.4562  3.0530
12253SOL     OW46688   9.750  10.746  10.133 -0.1097  0.0139  0.1210
12253SOL    HW146689   9.748  10.701  10.049  0.8004  0.9612 -0.4292
12253SOL    HW246690   9.743  10.675  10.198  0.4676 -0.8486 -0.7222
12254SOL     OW46691  12.422  12.456   1.573 -0.1825 -0.4376  0.1783
12254SOL    HW146692  12.351  12.507   1.612 -0.1392  0.2554 -0.6118
12254SOL    HW246693  12.383  12.418   1.495 -0.3405 -2.0171  0.9895
12255SOL     OW46694   8.981   8.049   0.706  0.3543 -0.4604 -0.3156
12255SOL    HW146695   9.036   7.991   0.653 -0.4578 -0.7114 -0.9005
12255SOL    HW246696   9.027   8.133   0.704 -0.3520 -0.0495 -2.6333
12256SOL     OW46697   0.949   4.898   3.165 -0.9966  0.4128  0.6129
12256SOL    HW146698   0.988   4.939   3.243  0.1404 -0.1629  0.3665
12256SOL    HW246699   0.891   4.965   3.130 -0.0211  1.4139  0.8445
12257SOL     OW46700  10.584   4.367  10.251  0.3167  0.7653  0.7278
12257SOL    HW146701  10.667   4.389  10.295  1.6754  0.8658 -1.7242
12257SOL    HW246702  10.517   4.411  10.303  1.6031 -0.2687  3.5023
12258SOL     OW46703  12.588   7.795   3.849 -0.0010  0.2028  0.1760
12258SOL    HW146704  12.573   7.814   3.756 -0.3503  0.6096  0.3119
12258SOL    HW246705  12.665   7.738   3.850 -0.4390 -0.4055 -0.4134
12259SOL     OW46706  10.877  11.195   8.536  0.4505  0.0695  0.0273
12259SOL    HW146707  10.819  11.203   8.612 -0.2253 -0.9050 -0.3645
12259SOL    HW246708  10.858  11.273   8.484 -1.2005 -0.6507 -0.5268
12260SOL     OW46709  10.636   2.368  10.361  0.0673 -0.1620 -0.2027
12260SOL    HW146710  10.556   2.348  10.311 -0.1916 -0.2665  0.2474
12260SOL    HW246711  10.654   2.460  10.341  0.0862 -0.2586 -0.6537
12261SOL     OW46712  10.175   6.022   4.423  0.0514  0.4988  0.1243
12261SOL    HW146713  10.245   5.980   4.473 -0.3394 -0.7718 -0.3603
12261SOL    HW246714  10.190   5.992   4.333  1.3095  3.4834 -0.7712
12262SOL     OW46715   5.731   3.372   2.575  0.1261  0.3067 -0.5809
12262SOL    HW146716   5.645   3.359   2.615  0.2111 -0.1506 -0.5444
12262SOL    HW246717   5.745   3.293   2.523  0.5432  0.3619 -0.5508
12263SOL     OW46718   4.430   7.869   7.128  0.1025 -0.3611 -0.1441
12263SOL    HW146719   4.454   7.786   7.087 -0.6301 -0.7826  0.2567
12263SOL    HW246720   4.336   7.862   7.144 -0.0410  0.6963 -0.4295
12264SOL     OW46721   7.116   3.561   1.790  0.0975  0.5694  0.1118
12264SOL    HW146722   7.132   3.568   1.696  0.3399  0.7675  0.1654
12264SOL    HW246723   7.033   3.513   1.797 -0.5883  1.6680 -0.2274
12265SOL     OW46724   4.694   5.433   7.906 -0.1653  0.2130 -0.1301
12265SOL    HW146725   4.681   5.338   7.906 -0.0124  0.1411 -2.0251
12265SOL    HW246726   4.692   5.458   7.998 -0.3134 -1.6124  0.4024
12266SOL     OW46727   7.531   6.150   9.077 -0.0893  0.6373  0.4835
12266SOL    HW146728   7.514   6.082   9.142  1.2526  1.3028  1.5798
12266SOL    HW246729   7.553   6.101   8.997 -0.2561 -0.1985  0.9300
12267SOL     OW46730  12.770  10.716   5.090 -0.0906  0.0402  0.1509
12267SOL    HW146731  12.811  10.802   5.080  1.4158 -0.6826 -0.0936
12267SOL    HW246732  12.713  10.708   5.013  0.5913  0.3799 -0.3994
12268SOL     OW46733   3.806   0.090   9.970  0.0716 -0.3840 -0.7618
12268SOL    HW146734   3.802   0.165  10.029  0.7554 -0.3562 -0.7356
12268SOL    HW246735   3.900   0.076   9.957  0.0925 -2.7851  1.2339
12269SOL     OW46736   7.434   6.256   5.667  0.0563  0.7322 -0.0894
12269SOL    HW146737   7.368   6.242   5.735  0.3698  1.3860  0.3622
12269SOL    HW246738   7.383   6.277   5.588 -0.3062 -0.0297 -0.0610
12270SOL     OW46739   9.177   3.891  12.153 -0.1147  0.3758 -0.3961
12270SOL    HW146740   9.215   3.944  12.083 -0.5191 -0.0797 -0.9751
12270SOL    HW246741   9.183   3.801  12.120 -1.3232  0.2584 -0.3369
12271SOL     OW46742   6.404   0.229   3.194  0.1750 -0.8221  0.2265
12271SOL    HW146743   6.331   0.271   3.239 -0.2804 -1.6221  0.2510
12271SOL    HW246744   6.366   0.151   3.154  0.3601  0.2516 -2.2311
12272SOL     OW46745   8.741   1.539   2.444 -0.0611 -0.1636 -0.0384
12272SOL    HW146746   8.739   1.507   2.535  0.0232  0.2319  0.1043
12272SOL    HW246747   8.678   1.612   2.443 -0.5244 -0.5627 -0.4497
12273SOL     OW46748  11.179   4.406   2.211 -0.1940 -0.4008  0.1523
12273SOL    HW146749  11.104   4.441   2.260  0.1877 -0.3741  0.7281
12273SOL    HW246750  11.196   4.321   2.250  0.3063 -0.2487  0.2667
12274SOL     OW46751   7.921   9.677   4.378 -0.2748 -0.2259 -0.0728
12274SOL    HW146752   7.846   9.649   4.430 -0.7426  0.7665 -0.1849
12274SOL    HW246753   7.883   9.710   4.297  0.3597 -0.6329 -0.5386
12275SOL     OW46754   9.783   7.287  12.324  0.4639 -0.2146 -0.3400
12275SOL    HW146755   9.759   7.380  12.335  0.3152 -0.2974  0.0791
12275SOL    HW246756   9.873   7.282  12.355  0.4682 -0.2098 -0.3508
12276SOL     OW46757   9.511   8.679   4.305 -0.3287  0.6230  0.6815
12276SOL    HW146758   9.520   8.737   4.229 -1.1226  0.0535  0.1350
12276SOL    HW246759   9.535   8.593   4.272 -0.7952  0.3515  1.0396
12277SOL     OW46760   9.764   8.305   9.276 -0.3286  0.2002 -0.5399
12277SOL    HW146761   9.847   8.348   9.298 -1.4173  1.1461  2.1851
12277SOL    HW246762   9.735   8.350   9.196  0.8520  1.2001 -0.4527
12278SOL     OW46763   2.469   9.365  12.869  0.9986 -0.4751  0.6667
12278SOL    HW146764   2.410   9.328  12.935  0.0117  0.6389  0.4264
12278SOL    HW246765   2.490   9.291  12.812 -1.8568 -0.5201 -0.4853
12279SOL     OW46766   1.744   8.747   8.031  0.2890  0.3396  0.3176
12279SOL    HW146767   1.769   8.699   7.952 -0.2230 -0.7817  0.8084
12279SOL    HW246768   1.666   8.701   8.062  0.4369  0.8198  1.4281
12280SOL     OW46769   4.527   9.012   8.087  0.6599  0.6763  0.1075
12280SOL    HW146770   4.472   9.047   8.017 -2.4892 -1.6523  1.1654
12280SOL    HW246771   4.535   8.919   8.066  2.6352  0.5867  1.0592
12281SOL     OW46772  12.079  10.980   4.288 -0.1464  0.3899 -0.3780
12281SOL    HW146773  11.998  10.965   4.238 -1.0576  0.9207  0.8828
12281SOL    HW246774  12.058  10.950   4.376  1.6646 -1.1937 -0.4333
12282SOL     OW46775   4.521   6.728  11.103 -0.4023  0.1382  0.0421
12282SOL    HW146776   4.456   6.671  11.143 -0.6518  1.7255  2.0371
12282SOL    HW246777   4.475   6.769  11.030 -1.6179  1.0472  1.2696
12283SOL     OW46778   1.875   3.577   1.692 -0.2139 -0.2406  0.2388
12283SOL    HW146779   1.890   3.486   1.665 -0.2607  0.3449 -1.9304
12283SOL    HW246780   1.921   3.584   1.776  0.1211 -2.1522  0.2703
12284SOL     OW46781   5.713   2.559   6.325  0.3333 -0.1863  0.3173
12284SOL    HW146782   5.645   2.619   6.355  0.6904  1.5230 -2.0417
12284SOL    HW246783   5.761   2.608   6.258  2.0111 -2.3874 -0.2106
12285SOL     OW46784   8.304  11.977   0.195  0.1248  0.5199  0.0651
12285SOL    HW146785   8.278  11.898   0.146  1.1228 -0.3240  0.8420
12285SOL    HW246786   8.258  11.968   0.279  1.7216 -0.2837  0.9166
12286SOL     OW46787   5.509  11.562  11.062  0.1768 -0.1933 -0.3883
12286SOL    HW146788   5.482  11.541  10.973  0.1250 -0.0366 -0.4113
12286SOL    HW246789   5.494  11.657  11.069  0.9305 -0.0648 -0.4766
12287SOL     OW46790   3.801  10.486   1.991 -0.0682 -0.4977  0.3582
12287SOL    HW146791   3.721  10.464   1.944 -0.4753  1.2161  0.1772
12287SOL    HW246792   3.807  10.581   1.985  1.8150 -0.5551  0.6603
12288SOL     OW46793   1.371   6.530  12.127 -0.2520 -0.9685  0.1492
12288SOL    HW146794   1.312   6.459  12.103  1.0944 -2.1775  0.2657
12288SOL    HW246795   1.446   6.520  12.068 -0.1327  0.5279 -0.0023
12289SOL     OW46796   7.794   3.248   0.589 -0.0036  0.2066 -0.5198
12289SOL    HW146797   7.785   3.222   0.497  0.4746 -0.4713 -0.3854
12289SOL    HW246798   7.883   3.223   0.613 -0.2595 -0.0245  0.2468
12290SOL     OW46799   1.740   3.875   2.285  0.6645  0.2189 -0.4079
12290SOL    HW146800   1.668   3.875   2.222  0.2700  0.3140  0.0408
12290SOL    HW246801   1.755   3.782   2.304 -0.2695  0.2402  0.5394
12291SOL     OW46802  10.291   4.117   7.654  0.7771 -0.5019  0.1323
12291SOL    HW146803  10.281   4.212   7.657 -0.7764 -0.6336 -0.1328
12291SOL    HW246804  10.346   4.096   7.730  0.8967  0.5685  0.3595
12292SOL     OW46805  11.551   6.132   1.196  0.2209 -0.4295  0.6944
12292SOL    HW146806  11.573   6.064   1.133  0.1724 -1.2212  1.5077
12292SOL    HW246807  11.622   6.196   1.188 -0.3655  0.0680 -0.9434
12293SOL     OW46808  11.317  12.272   8.226 -0.2748 -0.1741  0.2046
12293SOL    HW146809  11.274  12.353   8.254 -1.0051 -0.4537 -0.0660
12293SOL    HW246810  11.370  12.245   8.301  0.5052  0.9020  0.0587
12294SOL     OW46811  12.900   2.493   1.861 -0.1345 -0.1652  0.8374
12294SOL    HW146812  12.828   2.555   1.851  0.5850  0.3511 -1.9757
12294SOL    HW246813  12.960   2.514   1.790  0.9227 -3.0653  0.7526
12295SOL     OW46814  11.384   0.219   4.110 -0.2900 -0.2631 -0.3643
12295SOL    HW146815  11.367   0.312   4.101  2.0911  0.2148 -0.4926
12295SOL    HW246816  11.408   0.208   4.202 -0.9372 -0.8439 -0.2522
12296SOL     OW46817   8.918   7.951   8.650 -0.6737  0.1775 -0.0224
12296SOL    HW146818   8.851   8.019   8.659 -0.5015  0.2719  0.5936
12296SOL    HW246819   8.932   7.920   8.739  2.4346  2.3722  0.3778
12297SOL     OW46820  12.210   3.074   1.395  0.2039  1.0798 -0.2147
12297SOL    HW146821  12.197   2.979   1.386 -0.8018  1.0508  1.2566
12297SOL    HW246822  12.304   3.087   1.383  0.3234 -0.0679 -0.6425
12298SOL     OW46823   9.251   0.252   1.519  0.1404 -0.5446 -0.7075
12298SOL    HW146824   9.319   0.279   1.580  0.4717 -0.2400 -1.2025
12298SOL    HW246825   9.265   0.158   1.508 -2.0437 -1.3858  2.3078
12299SOL     OW46826   0.720   8.013   9.991 -0.2096 -0.8483 -0.3033
12299SOL    HW146827   0.784   8.084  10.002 -0.3765 -0.9942  2.5748
12299SOL    HW246828   0.641   8.057   9.959  0.0170  0.1106  0.4079
12300SOL     OW46829  12.638   0.091  10.620 -0.3409  0.4084 -0.0415
12300SOL    HW146830  12.568   0.117  10.561  0.0899 -0.4926 -0.9643
12300SOL    HW246831  12.668   0.007  10.587 -0.6061 -0.5045  1.9239
12301SOL     OW46832   3.008  11.435  11.167  0.0025 -0.3396  0.1274
12301SOL    HW146833   2.942  11.467  11.105  0.5245 -1.0026 -0.7815
12301SOL    HW246834   2.982  11.474  11.251 -0.7099  0.5764 -0.4950
12302SOL     OW46835   1.532  12.334   6.656 -0.6990 -0.0746  0.1485
12302SOL    HW146836   1.550  12.266   6.721  2.5596  0.6525  0.1709
12302SOL    HW246837   1.520  12.414   6.708 -1.2534 -0.0296 -0.0390
12303SOL     OW46838   0.262   2.841   4.766 -0.2390 -0.9198  0.2995
12303SOL    HW146839   0.257   2.915   4.826 -0.8673 -0.0303 -0.8080
12303SOL    HW246840   0.268   2.764   4.823 -0.2917 -0.0750  1.4811
12304SOL     OW46841   3.653   0.814   5.070  0.4887 -0.4213 -0.4746
12304SOL    HW146842   3.718   0.762   5.024 -0.2432 -2.8594  1.0367
12304SOL    HW246843   3.575   0.812   5.014  0.4627 -1.0075 -0.4206
12305SOL     OW46844   3.279  13.148   2.433 -0.4282  0.4440 -0.0811
12305SOL    HW146845   3.207  13.147   2.496 -0.3113  0.6070  0.0580
12305SOL    HW246846   3.243  13.108   2.354  0.2191 -2.4325  0.9510
12306SOL     OW46847   1.953   0.204  12.876  0.4608  0.3843  0.0304
12306SOL    HW146848   2.011   0.277  12.895 -0.3699  0.5280  2.1963
12306SOL    HW246849   1.877   0.216  12.933 -1.2702 -0.3689 -1.9470
12307SOL     OW46850   1.301   9.918   8.097  0.4283  0.3867  0.3372
12307SOL    HW146851   1.212   9.939   8.068  0.7460  0.6101 -0.5286
12307SOL    HW246852   1.341   9.875   8.021  0.4264 -1.6061  1.4150
12308SOL     OW46853   0.495  10.361  13.109 -0.0031 -0.2479  0.1610
12308SOL    HW146854   0.560  10.420  13.073 -1.0397 -0.6410 -2.6437
12308SOL    HW246855   0.541  10.278  13.121  0.4863  0.0328  0.2531
12309SOL     OW46856   9.659   7.115   9.625 -0.0681 -0.9073 -1.3762
12309SOL    HW146857   9.704   7.107   9.709 -0.5020  1.8550 -0.7866
12309SOL    HW246858   9.679   7.034   9.579  0.6664 -2.2564  1.1425
12310SOL     OW46859   7.070   9.553   0.303 -0.3460 -0.0137  0.2471
12310SOL    HW146860   6.982   9.529   0.332 -0.8257  0.9151 -0.4008
12310SOL    HW246861   7.102   9.476   0.256 -1.1778 -0.0340 -0.3113
12311SOL     OW46862   8.876   5.406   1.246 -0.3665  0.1596  0.0568
12311SOL    HW146863   8.938   5.451   1.188 -0.4601 -0.8780 -0.8838
12311SOL    HW246864   8.867   5.319   1.208  1.5241 -1.5007  3.0099
12312SOL     OW46865  10.948   8.261   4.705 -0.2374  0.1325 -0.3427
12312SOL    HW146866  10.891   8.328   4.666  0.1424  1.2240  0.8921
12312SOL    HW246867  10.944   8.279   4.799  2.3054  0.4138 -0.2153
12313SOL     OW46868   6.450   1.930   1.196 -0.2219  0.6139  0.3577
12313SOL    HW146869   6.478   1.977   1.117 -0.3795 -0.9475 -0.6744
12313SOL    HW246870   6.387   1.989   1.237 -1.4050  0.8139 -1.5872
12314SOL     OW46871   5.337  10.464  12.155 -0.2748 -0.0701 -0.0361
12314SOL    HW146872   5.357  10.377  12.188 -3.4742 -0.6854  0.5877
12314SOL    HW246873   5.314  10.451  12.063  0.5571  0.3483 -0.3100
12315SOL     OW46874   9.904   3.951   2.963 -0.4982 -0.0288  0.0612
12315SOL    HW146875   9.959   3.946   2.885 -0.3633  0.0812  0.1489
12315SOL    HW246876   9.848   3.873   2.959 -0.2246 -0.2235  0.0550
12316SOL     OW46877   9.596   4.528   2.426 -0.3609  0.3936  0.3663
12316SOL    HW146878   9.522   4.476   2.396  0.0486  0.1629 -0.2629
12316SOL    HW246879   9.561   4.580   2.498 -1.2947  0.7237 -0.2969
12317SOL     OW46880  12.843  10.465   4.101 -0.0170  0.3963 -0.5298
12317SOL    HW146881  12.760  10.494   4.064  0.7358  1.1602 -1.7334
12317SOL    HW246882  12.838  10.370   4.100  0.0225  0.3602 -2.9004
12318SOL     OW46883   7.594   5.065   1.359  0.2921  0.2977  0.0856
12318SOL    HW146884   7.556   5.152   1.348  0.5122  0.1199 -2.4513
12318SOL    HW246885   7.520   5.009   1.383 -0.1010  0.8927  0.2841
12319SOL     OW46886   2.414  10.092   8.023 -0.3046  0.5403 -0.0300
12319SOL    HW146887   2.470  10.030   7.977 -1.2338 -0.3379 -0.0133
12319SOL    HW246888   2.325  10.065   8.000 -0.8309 -0.1783  2.5320
12320SOL     OW46889  12.793  11.124   8.624  0.2249 -0.3517  0.4190
12320SOL    HW146890  12.770  11.084   8.540  0.6181  0.0276  0.1271
12320SOL    HW246891  12.788  11.052   8.687  3.3291 -1.4962 -0.4726
12321SOL     OW46892   9.821   7.261   0.622  0.0938 -0.4573 -0.0594
12321SOL    HW146893   9.885   7.250   0.692 -0.6179  0.1233  0.6972
12321SOL    HW246894   9.874   7.263   0.542  1.0128 -0.1270  0.5347
12322SOL     OW46895   2.987   3.037   9.756  0.2654  0.5286 -0.2871
12322SOL    HW146896   2.982   3.126   9.791  2.5137  0.7693 -0.4755
12322SOL    HW246897   3.010   2.983   9.832 -0.5324  0.1571 -0.2923
12323SOL     OW46898  10.837   4.487  10.822  0.3343  0.5203  0.4307
12323SOL    HW146899  10.831   4.393  10.810 -0.7333  0.5071  1.0106
12323SOL    HW246900  10.830   4.501  10.917  0.7134  1.1741  0.3769
12324SOL     OW46901   4.827  11.593  12.675  0.3789  0.2415  0.1858
12324SOL    HW146902   4.846  11.672  12.625  0.6569 -0.5944 -1.1052
12324SOL    HW246903   4.741  11.564  12.642  0.4973 -0.2393  0.2911
12325SOL     OW46904   4.565   6.968   7.089 -0.1410  0.2963  0.0406
12325SOL    HW146905   4.550   6.931   7.175  1.8840  1.1430  0.8340
12325SOL    HW246906   4.573   6.893   7.031 -0.3398 -0.3363  0.8174
12326SOL     OW46907   9.453   6.142   2.915 -0.5202 -0.0845  0.3785
12326SOL    HW146908   9.499   6.211   2.961 -0.3521  1.4889 -1.9593
12326SOL    HW246909   9.452   6.068   2.976  1.4395  1.1641  2.0335
12327SOL     OW46910   5.430   3.187  13.143  0.1296  0.2510 -0.6167
12327SOL    HW146911   5.425   3.092  13.130  0.5056 -0.0167  0.9915
12327SOL    HW246912   5.339   3.214  13.156  0.1726 -0.2083  0.7960
12328SOL     OW46913   1.659   2.242   2.359 -0.0561 -0.2396  0.1605
12328SOL    HW146914   1.581   2.248   2.303  0.8913 -0.4446 -1.2311
12328SOL    HW246915   1.706   2.323   2.342  1.0933 -1.0571 -0.6831
12329SOL     OW46916  12.120   1.317   8.578 -0.1822  0.1531  0.1616
12329SOL    HW146917  12.065   1.295   8.503 -1.1254  1.4298  0.4432
12329SOL    HW246918  12.064   1.302   8.655 -0.1296  1.3528  0.4555
12330SOL     OW46919   3.649   7.457   5.109  0.5327  0.1860  0.7191
12330SOL    HW146920   3.643   7.379   5.164 -1.7155  0.7291  1.3226
12330SOL    HW246921   3.588   7.519   5.148  0.6476  1.4697 -1.0112
12331SOL     OW46922  11.797   4.033   7.227 -0.2204 -0.3115 -0.3444
12331SOL    HW146923  11.753   4.116   7.243 -3.1895 -1.3307 -2.3277
12331SOL    HW246924  11.849   4.047   7.148 -0.0727 -0.1566 -0.2213
12332SOL     OW46925  10.074   4.165   3.435  0.0831  0.0465 -0.0300
12332SOL    HW146926  10.055   4.168   3.342 -1.0405  0.7021  0.1945
12332SOL    HW246927  10.028   4.088   3.467  0.8977 -0.4759 -0.0940
12333SOL     OW46928  13.032   0.185   9.990  0.6040 -0.2520 -0.2945
12333SOL    HW146929  13.103   0.147   9.939 -0.8035  0.1407 -2.6621
12333SOL    HW246930  12.961   0.122   9.984 -0.7221  1.2939 -1.7112
12334SOL     OW46931   6.295   7.089   4.076  0.0586 -0.5975  0.1320
12334SOL    HW146932   6.259   7.148   4.010 -1.3932 -1.8698 -0.2818
12334SOL    HW246933   6.381   7.065   4.042 -0.6526 -1.2080 -1.3313
12335SOL     OW46934   8.593   8.755   6.642  0.3424 -0.0474  0.0761
12335SOL    HW146935   8.636   8.715   6.717  0.4397  0.0195  0.0568
12335SOL    HW246936   8.520   8.804   6.679  0.1942 -0.2830  0.0938
12336SOL     OW46937   8.058  10.665   9.071  0.2027 -0.1052 -0.3445
12336SOL    HW146938   8.151  10.660   9.046  0.7204  0.0593  1.4045
12336SOL    HW246939   8.045  10.756   9.098 -0.1520 -0.4047  0.5224
12337SOL     OW46940  12.798   7.746   4.809  0.1020  0.3873 -0.2114
12337SOL    HW146941  12.861   7.686   4.771 -1.1481 -2.2186  1.5264
12337SOL    HW246942  12.786   7.715   4.899 -2.7630  1.4418 -0.1168
12338SOL     OW46943   2.654   7.670   0.515  0.2302  0.3369 -0.1422
12338SOL    HW146944   2.736   7.701   0.476  0.5405 -2.1289 -1.6543
12338SOL    HW246945   2.587   7.694   0.452 -0.4342  2.8931  1.3687
12339SOL     OW46946   1.291  10.816   6.321  0.1346 -0.7881 -0.4858
12339SOL    HW146947   1.207  10.839   6.282  0.6719  1.2096 -0.5810
12339SOL    HW246948   1.346  10.791   6.247 -0.1759 -1.4341 -0.4984
12340SOL     OW46949   2.432   4.730  10.381  0.3837 -0.8268  0.2321
12340SOL    HW146950   2.377   4.745  10.304  0.5536 -3.1686 -0.4072
12340SOL    HW246951   2.378   4.675  10.438  0.4185  0.5307  1.6775
12341SOL     OW46952   5.126   3.810   5.938 -0.0407  0.7308  0.2166
12341SOL    HW146953   5.123   3.891   5.887  1.2237  0.5811 -0.1122
12341SOL    HW246954   5.086   3.744   5.882  1.2539  0.5866 -0.5718
12342SOL     OW46955   3.451   1.453   4.589 -0.5336  0.1170  0.0806
12342SOL    HW146956   3.412   1.510   4.655  2.6613  0.2221  2.0609
12342SOL    HW246957   3.423   1.490   4.505 -1.1139  2.6944  1.3244
12343SOL     OW46958   1.595   4.818   8.142  0.1463 -0.2542 -0.8443
12343SOL    HW146959   1.516   4.854   8.101 -0.5730 -0.8601 -0.0281
12343SOL    HW246960   1.602   4.864   8.225  1.2761  0.5644 -1.3775
12344SOL     OW46961  10.373   0.896   1.839 -0.4309  0.0464  0.1176
12344SOL    HW146962  10.312   0.860   1.775 -0.9570  0.4902  0.3677
12344SOL    HW246963  10.362   0.840   1.916 -1.8564  1.1914  0.8040
12345SOL     OW46964   4.487   7.230   9.233  0.0649 -0.6524 -0.1359
12345SOL    HW146965   4.472   7.209   9.141  0.3859  0.7350 -0.5310
12345SOL    HW246966   4.441   7.161   9.281 -3.1071  0.4625 -1.2863
12346SOL     OW46967  11.737   6.974   2.357  0.0606  0.0233 -0.5668
12346SOL    HW146968  11.795   7.047   2.337  0.2477 -0.4146 -1.6885
12346SOL    HW246969  11.667   6.979   2.292 -1.9745  1.3412  1.5668
12347SOL     OW46970   0.021   3.534   7.001 -0.0608 -0.3774  0.3459
12347SOL    HW146971   0.029   3.500   6.912 -2.3105  1.8083 -0.8208
12347SOL    HW246972  -0.035   3.611   6.992  0.6008  0.6166  3.5170
12348SOL     OW46973   7.878   3.608  10.495  0.0075  0.6737  0.1725
12348SOL    HW146974   7.928   3.680  10.456  0.4096  0.6125  0.5718
12348SOL    HW246975   7.943   3.539  10.509 -0.3783  0.2251 -0.2203
12349SOL     OW46976   7.162   9.565  11.610 -0.1547  0.3549  0.1961
12349SOL    HW146977   7.131   9.637  11.664 -2.1436 -0.1224 -0.2078
12349SOL    HW246978   7.202   9.607  11.534 -2.1824  1.0906 -0.5259
12350SOL     OW46979   5.887   5.198  11.547  0.0599  0.2574  0.0542
12350SOL    HW146980   5.857   5.170  11.461  1.3259 -0.7939 -0.0898
12350SOL    HW246981   5.961   5.140  11.566 -1.2925 -0.7901  2.6460
12351SOL     OW46982   1.421  11.347   7.268  0.8116 -0.1219 -0.0382
12351SOL    HW146983   1.337  11.335   7.224  1.6924  0.1862 -1.9040
12351SOL    HW246984   1.486  11.341   7.197  2.1869  2.5388  0.8679
12352SOL     OW46985  10.482  11.624   0.582 -0.2658  0.3552 -0.2807
12352SOL    HW146986  10.444  11.683   0.516  0.9377  1.3999 -0.0912
12352SOL    HW246987  10.479  11.675   0.663 -1.8976 -0.9883  0.5582
12353SOL     OW46988   3.381   3.512   2.111 -0.0952  0.6504 -0.3172
12353SOL    HW146989   3.297   3.481   2.076 -0.2427  2.0220 -1.2515
12353SOL    HW246990   3.399   3.592   2.063  2.6379 -0.4866 -1.3897
12354SOL     OW46991   3.686   3.839  13.096 -0.7080  0.2794  0.1942
12354SOL    HW146992   3.662   3.904  13.162  0.5915  1.4868 -0.4610
12354SOL    HW246993   3.778   3.858  13.076 -0.7193 -0.8446 -1.0546
12355SOL     OW46994  12.970   2.035   3.543 -0.3866  0.1588 -0.3462
12355SOL    HW146995  13.055   1.998   3.519 -0.6644 -0.6959 -0.0583
12355SOL    HW246996  12.969   2.122   3.503  0.2921 -0.1349 -1.0226
12356SOL     OW46997   7.152  12.499   1.682  0.3717 -0.1594  0.3968
12356SOL    HW146998   7.165  12.475   1.591  0.3205  0.5354  0.2068
12356SOL    HW246999   7.225  12.558   1.703  1.1928 -1.3999  1.2186
12357SOL     OW47000   0.160   5.992   7.048 -0.2337  0.6175 -0.1523
12357SOL    HW147001   0.143   6.060   7.113 -2.5053 -1.2858  1.4280
12357SOL    HW247002   0.228   5.937   7.087 -0.0544  0.6783 -0.3751
12358SOL     OW47003   1.769   5.730   5.896 -0.6244  0.5471  0.2767
12358SOL    HW147004   1.689   5.779   5.914 -1.6870 -1.4669  1.3940
12358SOL    HW247005   1.805   5.710   5.982  1.3352  1.7176 -0.2141
12359SOL     OW47006   2.168  10.568   8.901  0.5482  0.3997 -0.6837
12359SOL    HW147007   2.099  10.626   8.866 -0.8408  0.1398  1.4350
12359SOL    HW247008   2.192  10.608   8.984 -0.8643 -2.2613  1.1369
12360SOL     OW47009  12.240   8.380  11.918  0.5137 -0.3030  0.1109
12360SOL    HW147010  12.244   8.437  11.994  1.8501  1.5386 -1.2355
12360SOL    HW247011  12.153   8.394  11.881  0.1219 -0.6689  0.8802
12361SOL     OW47012  10.871   6.800  13.007 -0.0097  0.0296 -0.2052
12361SOL    HW147013  10.788   6.753  12.999  0.2800 -0.1748 -2.6862
12361SOL    HW247014  10.855   6.886  12.969  1.1371 -0.3585 -1.6514
12362SOL     OW47015   0.752  10.317   7.272  0.2559 -0.2304  0.7497
12362SOL    HW147016   0.814  10.343   7.340  1.2802  1.1732 -0.6597
12362SOL    HW247017   0.764  10.381   7.202 -0.3056 -1.9660 -1.0358
12363SOL     OW47018   5.989  12.819   3.563 -0.2304  0.0641  0.2030
12363SOL    HW147019   5.943  12.742   3.596  1.5870 -2.0050 -1.7349
12363SOL    HW247020   6.050  12.842   3.633 -0.3339 -0.6811  0.5543
12364SOL     OW47021   4.516   9.219   3.637  0.5068  0.0851 -0.0533
12364SOL    HW147022   4.579   9.183   3.574 -0.2967 -1.7720  0.1144
12364SOL    HW247023   4.566   9.282   3.689  1.7796 -0.0937 -1.0230
12365SOL     OW47024   8.624   7.671  12.559 -0.4495  0.3245 -0.1228
12365SOL    HW147025   8.615   7.766  12.565  0.7737  0.5512 -1.3229
12365SOL    HW247026   8.557   7.644  12.496 -1.8393  0.1496  1.3600
12366SOL     OW47027  11.467   8.312   6.651 -0.3918 -0.1145 -0.2456
12366SOL    HW147028  11.461   8.398   6.692 -0.0987 -0.0223 -0.3940
12366SOL    HW247029  11.384   8.303   6.603 -0.1470  0.3580 -0.7604
12367SOL     OW47030   1.245  12.276   2.676  0.5399 -0.2603 -0.6124
12367SOL    HW147031   1.168  12.292   2.622  1.0149  0.1351 -1.1863
12367SOL    HW247032   1.239  12.340   2.747  0.0679 -0.5814 -0.3631
12368SOL     OW47033  11.930   0.381   4.778  0.2034 -0.3325 -0.6038
12368SOL    HW147034  11.975   0.300   4.752 -0.6531 -0.8251 -0.6183
12368SOL    HW247035  11.974   0.450   4.729  0.8352 -0.8108 -0.7315
12369SOL     OW47036   2.452   4.147   7.902 -0.4100 -0.4155  0.1208
12369SOL    HW147037   2.534   4.099   7.893 -0.6225 -1.2009  1.9817
12369SOL    HW247038   2.384   4.080   7.899 -1.1315  0.3117 -2.4227
12370SOL     OW47039  13.001  11.876   1.557  0.1274 -1.1318 -0.0669
12370SOL    HW147040  13.069  11.826   1.601 -0.3523 -0.8872  0.9848
12370SOL    HW247041  13.020  11.967   1.579  0.5208 -0.9016 -1.2937
12371SOL     OW47042   5.210  12.638   9.414  0.1340 -0.7025  0.3446
12371SOL    HW147043   5.217  12.659   9.507  1.2689 -1.1950  0.3833
12371SOL    HW247044   5.239  12.548   9.407 -1.4489 -1.1936 -0.2966
12372SOL     OW47045   5.960  12.625   9.602  0.0232  0.0264 -0.1317
12372SOL    HW147046   5.870  12.638   9.634  0.5778  0.4077  1.3567
12372SOL    HW247047   5.974  12.699   9.542 -0.4420  0.3196  0.1091
12373SOL     OW47048   7.877   9.475   9.012  0.4658 -0.1341  0.1926
12373SOL    HW147049   7.947   9.441   8.957  0.7496  0.7162  0.0166
12373SOL    HW247050   7.898   9.567   9.024 -1.2941  0.4741 -0.9398
12374SOL     OW47051   1.746  11.242   5.825 -0.5769 -0.0044 -0.4842
12374SOL    HW147052   1.708  11.281   5.904  0.2361 -1.2344  0.5512
12374SOL    HW247053   1.775  11.155   5.853  2.1419  0.5166 -1.4684
12375SOL     OW47054   8.110  11.841   3.930 -0.4176  0.0496 -0.0691
12375SOL    HW147055   8.075  11.898   3.999 -2.3423 -1.3373  0.1748
12375SOL    HW247056   8.205  11.855   3.934 -0.6856  1.9653  1.0752
12376SOL     OW47057   8.984   8.991  11.177  0.0066  0.4213 -0.0872
12376SOL    HW147058   8.957   9.057  11.241 -0.8526  0.3742 -0.3903
12376SOL    HW247059   8.985   9.036  11.093  1.1791  0.4916 -0.0513
12377SOL     OW47060   7.035   6.127  11.959 -0.2354 -0.1454 -0.1619
12377SOL    HW147061   7.079   6.067  11.899  0.6395 -2.1704  2.3543
12377SOL    HW247062   7.106   6.163  12.013 -1.1627  0.3203  0.7724
12378SOL     OW47063   4.433   4.041  12.197  0.0454 -0.4167 -0.5315
12378SOL    HW147064   4.413   4.132  12.220  0.4256 -0.2973 -0.6774
12378SOL    HW247065   4.376   4.022  12.123 -1.5028 -0.9306  0.7177
12379SOL     OW47066  11.072   0.909   3.523  0.5130 -0.0526  0.2444
12379SOL    HW147067  11.086   0.992   3.477 -0.2691 -0.6877 -1.2383
12379SOL    HW247068  11.041   0.850   3.454  0.0414 -1.2788  1.4793
12380SOL     OW47069   4.960   1.537   2.784  0.0685  0.7372  0.0852
12380SOL    HW147070   4.989   1.611   2.730  1.5737 -0.6241 -1.0653
12380SOL    HW247071   4.993   1.556   2.871  0.9136  1.1781 -0.3197
12381SOL     OW47072   4.855   7.318   6.993 -0.5939 -0.5985 -0.0959
12381SOL    HW147073   4.934   7.371   6.998 -1.3170  0.5265 -0.2056
12381SOL    HW247074   4.884   7.230   7.016  1.1192 -0.6813 -2.2329
12382SOL     OW47075  12.127   2.762  12.587  0.1786  0.4942  0.0055
12382SOL    HW147076  12.100   2.752  12.496  0.8841  0.4486 -0.2054
12382SOL    HW247077  12.144   2.673  12.618  0.2387  0.5336  0.0885
12383SOL     OW47078  11.975   0.022  10.259 -0.8343  0.3584 -0.4412
12383SOL    HW147079  12.053  -0.031  10.240  1.4395  2.7819  1.4325
12383SOL    HW247080  11.902  -0.039  10.250  1.3838 -2.4452 -0.8103
12384SOL     OW47081   3.379   0.600   2.182  0.2028 -0.2000 -0.1342
12384SOL    HW147082   3.431   0.541   2.237 -0.1466 -0.8016 -0.4393
12384SOL    HW247083   3.294   0.603   2.224  0.7262  1.5068  0.8768
12385SOL     OW47084   9.516  12.186   2.911 -0.3688 -0.1794  0.1209
12385SOL    HW147085   9.572  12.114   2.939 -0.5557  0.3529  2.0140
12385SOL    HW247086   9.428  12.147   2.906 -0.0700 -0.7163 -1.6459
12386SOL     OW47087  12.250   1.211  12.343  0.1058  0.0967 -0.4156
12386SOL    HW147088  12.177   1.150  12.357  0.0663  0.5471  1.6356
12386SOL    HW247089  12.326   1.167  12.381  0.3096  0.8194  0.0340
12387SOL     OW47090   5.174   4.428  12.982  0.0562  0.2479  0.1316
12387SOL    HW147091   5.153   4.345  12.941  0.2181  0.3370 -0.1424
12387SOL    HW247092   5.091   4.476  12.986 -0.5686 -0.9207  2.6672
12388SOL     OW47093   4.993   4.876   2.905  0.1835 -0.1588  0.1304
12388SOL    HW147094   5.002   4.824   2.985 -0.3545  0.8394  0.8661
12388SOL    HW247095   5.082   4.899   2.881  0.4447 -1.5050 -0.2836
12389SOL     OW47096   0.449   9.853   2.103  0.2811 -0.0683 -0.1863
12389SOL    HW147097   0.369   9.902   2.120  0.3976 -0.1065  0.5228
12389SOL    HW247098   0.510   9.884   2.170  1.1683  0.6427 -1.2924
12390SOL     OW47099  10.207   4.823   9.928  0.2364 -0.5397  0.3485
12390SOL    HW147100  10.300   4.827   9.951  0.2117  0.0224  0.3534
12390SOL    HW247101  10.170   4.757   9.988  0.7121 -1.0897  0.0497
12391SOL     OW47102   9.880   2.800   4.986 -0.1883 -0.0337  0.1818
12391SOL    HW147103   9.964   2.772   4.950  0.5226  0.6134  1.3093
12391SOL    HW247104   9.858   2.733   5.051 -1.3991 -1.1181 -1.2537
12392SOL     OW47105   4.637  12.091   3.290  0.3560  0.3694 -0.2894
12392SOL    HW147106   4.699  12.044   3.235  0.3388  0.3904 -0.3270
12392SOL    HW247107   4.626  12.035   3.367  0.6076  0.4781 -0.1714
12393SOL     OW47108   6.013   8.082   0.566  0.6308  0.2983  0.3434
12393SOL    HW147109   6.087   8.097   0.625  1.4282  1.7873 -0.9480
12393SOL    HW247110   5.965   8.164   0.565 -0.1306 -0.1354 -0.0654
12394SOL     OW47111   7.195   7.578   2.363 -0.1238 -0.3726 -0.2593
12394SOL    HW147112   7.203   7.590   2.458 -1.6565 -0.2014 -0.1230
12394SOL    HW247113   7.267   7.629   2.326  0.5176 -0.4730  0.8001
12395SOL     OW47114   9.629   7.139   6.535 -0.8119  0.3078  0.1074
12395SOL    HW147115   9.680   7.090   6.471 -1.1546 -0.1979  0.2127
12395SOL    HW247116   9.673   7.224   6.542  0.2773 -0.2834  0.5457
12396SOL     OW47117   0.429   6.985   5.548 -0.0205  0.2048  0.5497
12396SOL    HW147118   0.462   7.074   5.560  0.8850 -0.1670  0.8892
12396SOL    HW247119   0.483   6.949   5.478 -0.5936  0.0148  0.1942
12397SOL     OW47120   1.924  10.358  11.153 -0.3453  0.0014  0.2364
12397SOL    HW147121   1.840  10.373  11.198 -0.2996 -0.8927  0.6531
12397SOL    HW247122   1.988  10.401  11.209 -0.5026  0.5361  0.0110
12398SOL     OW47123  11.157   9.282   0.325 -0.2492 -0.3149  0.5750
12398SOL    HW147124  11.228   9.346   0.328 -1.2336  0.8611 -0.0996
12398SOL    HW247125  11.081   9.332   0.294 -1.0744 -1.8076  0.0992
12399SOL     OW47126  12.028   9.899   2.721 -0.1827  0.3321  0.0345
12399SOL    HW147127  11.958   9.836   2.705  0.2038 -0.1648  0.2863
12399SOL    HW247128  12.098   9.873   2.662 -0.1116  0.6805 -0.0372
12400SOL     OW47129   6.471   0.345   0.420 -0.0109  0.2024  0.5972
12400SOL    HW147130   6.396   0.343   0.479 -0.0461 -0.5904  0.5383
12400SOL    HW247131   6.519   0.264   0.439  0.6827  0.5692  0.4441
12401SOL     OW47132  11.121   3.518   3.824  0.1576 -0.2824 -0.1954
12401SOL    HW147133  11.162   3.570   3.892  1.6890 -1.3342 -0.2546
12401SOL    HW247134  11.049   3.572   3.792  0.8388  1.1926  0.6673
12402SOL     OW47135   2.285   8.206  11.760 -0.2542  0.2394  0.4109
12402SOL    HW147136   2.300   8.242  11.847  2.3068  0.7479 -0.1728
12402SOL    HW247137   2.337   8.261  11.702 -2.0161  0.0102 -1.5100
12403SOL     OW47138   6.729   7.553  11.852  0.3890  0.2188 -0.1070
12403SOL    HW147139   6.809   7.517  11.892  0.3117 -2.1310 -1.8279
12403SOL    HW247140   6.664   7.549  11.922  1.6373  1.9879  1.2740
12404SOL     OW47141   7.698   4.611   4.567  0.2144  0.3758 -0.6268
12404SOL    HW147142   7.716   4.535   4.622 -0.8784  1.0625  0.7482
12404SOL    HW247143   7.666   4.678   4.628  1.8991  2.2312 -1.6755
12405SOL     OW47144   9.637  11.932   0.526 -0.7176 -0.5893 -0.0033
12405SOL    HW147145   9.656  12.018   0.563  0.8578  0.0555 -2.1677
12405SOL    HW247146   9.697  11.873   0.572  1.5141  0.2643 -1.6387
12406SOL     OW47147   7.697   5.378   4.449  0.5106  0.0035 -0.2002
12406SOL    HW147148   7.612   5.376   4.405  0.2089 -1.3861  0.3882
12406SOL    HW247149   7.680   5.341   4.536  1.2237  2.0617  0.8794
12407SOL     OW47150  10.071   1.677  10.493 -0.3431  0.1973  0.0529
12407SOL    HW147151  10.018   1.618  10.546 -1.2128  0.0891 -0.9080
12407SOL    HW247152  10.079   1.757  10.546 -1.7644  0.3415  0.0862
12408SOL     OW47153   5.010   1.901  10.163  0.1856 -0.2421  0.0443
12408SOL    HW147154   4.975   1.980  10.204  0.3833  0.1662 -0.5636
12408SOL    HW247155   4.951   1.831  10.192 -3.7451  0.9076 -3.9576
12409SOL     OW47156   4.899   0.357   2.978 -0.2877  0.4154  0.2444
12409SOL    HW147157   4.888   0.362   2.883 -0.1962  0.3720  0.2317
12409SOL    HW247158   4.825   0.304   3.008 -0.1800  0.2256  0.1717
12410SOL     OW47159  10.616   3.528  10.508 -0.7127 -0.7335 -0.3044
12410SOL    HW147160  10.573   3.480  10.578  1.2388 -2.0713  0.0494
12410SOL    HW247161  10.558   3.603  10.491 -3.5541 -2.7994 -0.4543
12411SOL     OW47162   8.173   2.411   5.039 -0.3430 -0.0830 -0.2348
12411SOL    HW147163   8.225   2.331   5.036  0.1199  0.1988  0.2529
12411SOL    HW247164   8.204   2.457   5.117  0.8012  1.5096 -1.5619
12412SOL     OW47165   2.150   2.909   9.307  0.6157  0.0805 -0.6210
12412SOL    HW147166   2.074   2.966   9.303  0.0007 -0.7824 -2.1766
12412SOL    HW247167   2.126   2.832   9.255  2.0708 -0.8057 -0.0804
12413SOL     OW47168   5.798   7.271   0.278  0.6609  0.0421 -0.7396
12413SOL    HW147169   5.757   7.300   0.360  0.6794 -0.2892 -0.6111
12413SOL    HW247170   5.808   7.351   0.227  0.0135  0.1537 -0.7010
12414SOL     OW47171  11.021   5.981   0.237 -0.6050 -0.3542  0.2943
12414SOL    HW147172  11.075   6.053   0.204 -0.0217 -1.3732 -1.0946
12414SOL    HW247173  10.936   5.993   0.195 -0.7751  0.0227  0.7522
12415SOL     OW47174  12.497   1.662  11.644  0.1107 -0.6544  0.4996
12415SOL    HW147175  12.517   1.574  11.612 -1.0969 -0.9148  0.4217
12415SOL    HW247176  12.403   1.661  11.662  0.2921  0.2547  1.6648
12416SOL     OW47177   3.315   2.986   3.471 -0.4400  0.0181 -0.1077
12416SOL    HW147178   3.279   2.901   3.495 -0.0197 -0.4119 -0.9789
12416SOL    HW247179   3.343   2.976   3.380 -1.6805  1.5126 -0.6917
12417SOL     OW47180   8.277  11.004  10.746 -0.3833 -0.3396  0.2779
12417SOL    HW147181   8.233  11.079  10.787 -0.1418 -0.5408  0.9211
12417SOL    HW247182   8.308  10.952  10.820  0.5350 -0.4379 -0.1642
12418SOL     OW47183   3.919   0.202   8.275 -0.0227 -0.4380  0.0509
12418SOL    HW147184   3.967   0.133   8.320  0.0153 -0.9287 -0.7158
12418SOL    HW247185   3.827   0.181   8.290 -0.0211 -0.9951 -0.6517
12419SOL     OW47186  12.265  12.655   8.075  0.1210  0.1760 -0.0869
12419SOL    HW147187  12.196  12.719   8.096 -0.3018  0.1701 -1.3552
12419SOL    HW247188  12.279  12.666   7.981  0.6404 -1.0303 -0.1601
12420SOL     OW47189  10.892  11.381  11.280 -0.1108  0.1665  0.3439
12420SOL    HW147190  10.937  11.377  11.195 -2.4979  1.6125 -1.1180
12420SOL    HW247191  10.844  11.464  11.277 -2.8880 -1.2633  1.7134
12421SOL     OW47192   7.414   4.305   9.123  0.1586  0.2317  0.2595
12421SOL    HW147193   7.439   4.214   9.138  0.2821 -0.4077 -3.0666
12421SOL    HW247194   7.457   4.329   9.041 -2.2134  2.3122 -0.5313
12422SOL     OW47195   9.879   3.617  11.815 -0.4771 -0.0055  0.4078
12422SOL    HW147196   9.873   3.688  11.751  1.7844 -1.0464 -1.0598
12422SOL    HW247197   9.889   3.662  11.899  0.1720  1.4115 -0.3884
12423SOL     OW47198   5.099   8.108  11.418  0.1304  0.0235  0.2293
12423SOL    HW147199   5.050   8.187  11.443 -0.7370 -0.3187 -0.3542
12423SOL    HW247200   5.156   8.137  11.347  0.0127  0.1791  0.1988
12424SOL     OW47201  10.027   7.009   5.052 -0.0656 -0.0356  0.1416
12424SOL    HW147202  10.120   7.021   5.035  0.1257  0.5604  1.4790
12424SOL    HW247203  10.004   6.929   5.006  1.2914 -0.6123  0.4171
12425SOL     OW47204   1.748   1.545  12.122 -0.0952  0.6462 -0.0548
12425SOL    HW147205   1.823   1.579  12.074  1.0805 -0.9280  0.5964
12425SOL    HW247206   1.743   1.598  12.201  2.8592 -1.6085  1.8701
12426SOL     OW47207   6.821   0.587   3.415  0.2348 -0.0060  0.0192
12426SOL    HW147208   6.809   0.581   3.510 -0.4187 -1.3578 -0.1174
12426SOL    HW247209   6.821   0.496   3.385 -1.3337  0.4274 -1.4729
12427SOL     OW47210   2.606   1.905   8.062  0.0772 -0.6420  0.0520
12427SOL    HW147211   2.580   1.979   8.118  1.7980 -0.6294  0.9137
12427SOL    HW247212   2.671   1.942   8.002 -0.1744 -1.1378 -0.5342
12428SOL     OW47213   6.734   8.894  12.063  0.0485  0.0140  0.1365
12428SOL    HW147214   6.792   8.839  12.010 -1.7909  0.2555 -2.2607
12428SOL    HW247215   6.647   8.883  12.024 -0.5130  4.3443 -0.3624
12429SOL     OW47216   1.862   8.608   1.094 -0.2957  0.2484  0.1039
12429SOL    HW147217   1.879   8.603   1.000  0.8886  0.2575  0.3033
12429SOL    HW247218   1.918   8.679   1.125  0.1654 -0.4720  0.9860
12430SOL     OW47219   6.490   4.513   1.472 -0.1994 -0.2202  0.3545
12430SOL    HW147220   6.511   4.508   1.379 -2.0878  0.7881 -0.1563
12430SOL    HW247221   6.576   4.522   1.515  0.6282  0.5057 -1.3604
12431SOL     OW47222   1.671  13.066   7.313 -0.4878 -0.2678  0.4963
12431SOL    HW147223   1.759  13.054   7.278  0.3785  2.5284  1.4542
12431SOL    HW247224   1.649  13.156   7.292 -2.0039 -0.0694  2.6660
12432SOL     OW47225   2.806   0.761   9.338 -0.2371 -0.5399  0.1073
12432SOL    HW147226   2.761   0.680   9.362  1.2600 -0.8239  2.2729
12432SOL    HW247227   2.886   0.731   9.295 -1.3382 -0.0608 -2.4967
12433SOL     OW47228   0.609  12.407  10.762  0.3013  0.0847 -0.1291
12433SOL    HW147229   0.600  12.497  10.792 -0.1029  0.5144 -1.4594
12433SOL    HW247230   0.575  12.354  10.834  0.4899  0.9821  0.6446
12434SOL     OW47231   4.249  10.031  12.911 -0.2144  0.1258 -0.5777
12434SOL    HW147232   4.328  10.049  12.962 -0.8007  0.6314  0.1828
12434SOL    HW247233   4.197  10.111  12.918 -1.5549 -0.7893  0.3789
12435SOL     OW47234   5.393   6.600   5.266  0.2750 -0.2421  0.1695
12435SOL    HW147235   5.391   6.607   5.170 -0.0939 -1.7148  0.0314
12435SOL    HW247236   5.398   6.505   5.282 -2.0888 -0.2018  1.6178
12436SOL     OW47237   2.779  11.776   6.262  0.9591  0.0197  0.1357
12436SOL    HW147238   2.753  11.868   6.258  2.0334  0.3617  0.7055
12436SOL    HW247239   2.700  11.730   6.289 -0.4012  0.3915 -2.7860
12437SOL     OW47240  12.724   5.821   0.877 -0.1335  0.2923 -0.3145
12437SOL    HW147241  12.718   5.871   0.796  3.2013  2.2273  0.4242
12437SOL    HW247242  12.771   5.742   0.853 -0.6187  0.0718 -0.5444
12438SOL     OW47243  13.232   2.473   2.562 -0.4369  0.4271  0.3398
12438SOL    HW147244  13.175   2.549   2.571  0.3007  0.9963  0.3426
12438SOL    HW247245  13.223   2.426   2.645 -2.3770 -0.5753 -0.3748
12439SOL     OW47246   0.960   6.234   5.080 -0.4292 -0.8229  0.2091
12439SOL    HW147247   1.030   6.288   5.044 -0.6602 -1.3415 -1.0769
12439SOL    HW247248   0.995   6.200   5.163  0.5176 -0.4251 -0.0198
12440SOL     OW47249   3.243  10.374   3.538 -0.1311  0.2850 -0.2022
12440SOL    HW147250   3.166  10.398   3.486  1.0451  2.5006 -1.0146
12440SOL    HW247251   3.231  10.421   3.621 -0.1006 -0.1330  0.0430
12441SOL     OW47252   1.262   4.457   2.997 -0.3088  0.6470 -0.1353
12441SOL    HW147253   1.184   4.405   3.014  0.6917 -0.8330  0.1703
12441SOL    HW247254   1.230   4.545   2.981 -1.8885  0.5169  1.9654
12442SOL     OW47255   5.070   8.920   9.803 -0.5096  0.2454 -0.1468
12442SOL    HW147256   5.005   8.851   9.813 -1.1226  0.7151 -0.8072
12442SOL    HW247257   5.119   8.897   9.724  0.2031 -0.1586  0.4009
12443SOL     OW47258   5.099   6.043  12.947 -0.5250  0.7862  0.5192
12443SOL    HW147259   5.010   6.053  12.982 -0.0586  2.1480  1.4131
12443SOL    HW247260   5.151   6.014  13.022 -0.3979 -1.2117 -0.2867
12444SOL     OW47261  11.041   9.722  10.981 -0.5174 -0.6345 -0.1523
12444SOL    HW147262  11.065   9.656  10.915  1.5842 -1.1676  1.0813
12444SOL    HW247263  11.029   9.803  10.930 -1.6913 -1.5942 -1.5001
12445SOL     OW47264   6.809  13.078   3.216 -0.6361  0.5504  0.5222
12445SOL    HW147265   6.716  13.101   3.208 -0.8935 -0.2455  1.0075
12445SOL    HW247266   6.856  13.155   3.187 -1.4575  0.7084 -0.4371
12446SOL     OW47267   3.753   1.202   3.627 -0.5043 -0.3052  0.1461
12446SOL    HW147268   3.666   1.161   3.623 -1.1129  0.7011  2.0805
12446SOL    HW247269   3.814   1.129   3.637 -1.4179 -0.8788  1.7815
12447SOL     OW47270   3.095  11.116   3.801 -0.5755  0.4420 -0.0840
12447SOL    HW147271   3.044  11.052   3.851  0.1906  1.0074  1.4674
12447SOL    HW247272   3.089  11.085   3.710  0.2390 -2.1426  0.6683
12448SOL     OW47273   9.106   5.163  12.869 -0.8473 -0.3632 -0.3181
12448SOL    HW147274   9.187   5.176  12.920 -0.3169  0.5662 -1.3547
12448SOL    HW247275   9.094   5.068  12.869 -0.9556 -0.3935  1.6482
12449SOL     OW47276   0.807   1.086  12.038  0.0508  0.0046 -0.4955
12449SOL    HW147277   0.718   1.052  12.034 -0.1158  0.0059  1.7127
12449SOL    HW247278   0.798   1.170  12.084  1.1086  0.4047 -0.9843
12450SOL     OW47279   1.900   7.578   0.165 -0.0662 -0.2778  0.0952
12450SOL    HW147280   1.832   7.599   0.101 -0.7342 -1.7905  0.2681
12450SOL    HW247281   1.920   7.662   0.207 -2.3769  0.1106  0.5476
12451SOL     OW47282   2.381   5.430  12.336 -0.2678 -0.3370 -0.4565
12451SOL    HW147283   2.325   5.479  12.396  0.8332 -1.0437  1.2101
12451SOL    HW247284   2.366   5.338  12.357  1.0704 -0.5583 -0.3539
12452SOL     OW47285   6.300   8.906   8.311  0.2496 -0.0434 -0.0162
12452SOL    HW147286   6.264   8.966   8.376  1.5185  0.2277  0.4544
12452SOL    HW247287   6.256   8.929   8.229 -0.8141  0.1059  0.5858
12453SOL     OW47288   2.210   2.103   8.211  0.3877  0.3874  0.3696
12453SOL    HW147289   2.137   2.161   8.237  0.6298  0.8799 -0.0360
12453SOL    HW247290   2.236   2.135   8.125  0.5196 -0.3427  0.1365
12454SOL     OW47291  13.004   2.540   0.646  0.1207  0.2793 -0.2991
12454SOL    HW147292  13.008   2.613   0.584 -0.1684  0.0136 -0.6349
12454SOL    HW247293  12.941   2.479   0.607 -0.8390  0.5635  0.7471
12455SOL     OW47294   5.652   8.782   5.316 -0.0829 -0.2913  0.3985
12455SOL    HW147295   5.724   8.834   5.281 -0.2893 -0.3644 -0.1514
12455SOL    HW247296   5.625   8.828   5.395 -1.0140  1.0958 -0.6781
12456SOL     OW47297  13.165   7.584   0.196  0.1625 -0.2401 -0.0542
12456SOL    HW147298  13.185   7.565   0.104 -0.4352  0.1313 -0.2681
12456SOL    HW247299  13.088   7.641   0.192 -0.3308 -0.8354  0.7079
12457SOL     OW47300   2.580  10.791   1.816 -0.0522  0.2179  0.3560
12457SOL    HW147301   2.628  10.820   1.893  0.5549 -0.0548  0.0891
12457SOL    HW247302   2.489  10.783   1.845 -0.6289  3.9034  0.0743
12458SOL     OW47303   5.634   8.682  12.793 -0.5296  0.1413 -0.0845
12458SOL    HW147304   5.549   8.650  12.763 -0.9990 -0.5453  1.8615
12458SOL    HW247305   5.630   8.675  12.888  2.3406 -1.5948  0.0251
12459SOL     OW47306   2.757  11.914   8.668  0.2955  0.0982  0.1030
12459SOL    HW147307   2.824  11.846   8.670  1.3377  1.0878  0.3120
12459SOL    HW247308   2.680  11.874   8.706  0.9544 -0.8895  0.4247
12460SOL     OW47309   7.838   1.947   7.313  0.0951 -0.5863  0.3944
12460SOL    HW147310   7.757   1.969   7.268  0.2503 -0.4820  0.1606
12460SOL    HW247311   7.813   1.882   7.378 -0.2911 -0.0283  0.8045
12461SOL     OW47312  12.306   9.644   6.980 -0.1363  0.6593 -0.2028
12461SOL    HW147313  12.397   9.616   6.971 -0.0193  0.7634  0.6099
12461SOL    HW247314  12.255   9.571   6.945  0.2610  0.8649 -1.2778
12462SOL     OW47315   8.459   7.072   8.767  0.2803  0.0914  0.2479
12462SOL    HW147316   8.494   7.160   8.750 -1.7725  0.6416 -1.5475
12462SOL    HW247317   8.523   7.013   8.726  1.2025  0.7889  0.6501
12463SOL     OW47318  10.645   2.624   8.160 -0.0404 -0.0210 -0.6819
12463SOL    HW147319  10.734   2.644   8.130 -0.3857  1.5041 -0.7285
12463SOL    HW247320  10.630   2.534   8.129  1.4583 -0.2887 -0.7084
12464SOL     OW47321   4.927   7.748   3.424 -0.1613 -0.2409  0.1487
12464SOL    HW147322   4.971   7.692   3.360  0.0572  0.4718 -0.3465
12464SOL    HW247323   4.841   7.766   3.386 -0.1480 -0.0609  0.2036
12465SOL     OW47324   0.188   9.636  10.770 -1.0746 -0.2578 -0.0547
12465SOL    HW147325   0.282   9.618  10.766 -0.6767  1.8126 -1.5929
12465SOL    HW247326   0.151   9.581  10.701 -1.0391 -1.1510  0.6172
12466SOL     OW47327   7.790  11.583   2.564  0.0275 -0.2003  0.6338
12466SOL    HW147328   7.712  11.620   2.606  0.0481  1.2221 -0.5151
12466SOL    HW247329   7.801  11.498   2.607 -1.6058 -0.0446  1.4758
12467SOL     OW47330   0.115   5.733   0.958  0.9915  0.6967  0.3003
12467SOL    HW147331   0.056   5.805   0.980  0.3144 -0.1670  1.3945
12467SOL    HW247332   0.202   5.775   0.954  0.8285  1.3671  2.3495
12468SOL     OW47333   1.841  11.120   7.624  0.2416 -0.3146 -0.6633
12468SOL    HW147334   1.900  11.163   7.686 -0.9473  0.4163 -0.0056
12468SOL    HW247335   1.877  11.031   7.615  1.1686 -0.0374  0.0691
12469SOL     OW47336  12.983   8.208   4.373 -0.3852  0.0665  0.7452
12469SOL    HW147337  13.013   8.287   4.417  0.2528 -0.5606  1.4486
12469SOL    HW247338  13.062   8.173   4.331 -0.4323 -0.7811  1.3488
12470SOL     OW47339  10.801   7.578  10.923 -0.1346  0.1096  0.2830
12470SOL    HW147340  10.891   7.570  10.893 -0.0440  1.0640  0.2625
12470SOL    HW247341  10.749   7.526  10.861  0.3397 -0.0432  0.0152
12471SOL     OW47342   7.373   4.347   2.008 -0.7386 -0.6120 -0.4262
12471SOL    HW147343   7.326   4.425   1.980  0.7452  0.3342 -0.4008
12471SOL    HW247344   7.398   4.304   1.927  1.5449  0.8959 -0.6107
12472SOL     OW47345   6.737   1.809   0.318  0.0081 -0.3476  0.2405
12472SOL    HW147346   6.830   1.831   0.327  0.1532  0.5442 -2.4214
12472SOL    HW247347   6.691   1.887   0.347  0.2677  0.5770 -1.6736
12473SOL     OW47348  12.226   9.749   0.974  0.2213  0.4337  0.2895
12473SOL    HW147349  12.311   9.708   0.957  0.4144  0.3589  1.3998
12473SOL    HW247350  12.185   9.693   1.040 -0.6430  0.5477 -0.1326
12474SOL     OW47351  10.334  12.636   3.906  0.5239 -0.1089  0.5486
12474SOL    HW147352  10.370  12.565   3.853  0.7946 -0.0646  0.6726
12474SOL    HW247353  10.242  12.639   3.882  0.4509 -0.6929  0.7537
12475SOL     OW47354   6.777   6.371   0.773  0.0123 -0.5989 -0.6942
12475SOL    HW147355   6.814   6.414   0.696 -0.0855  1.0807  0.1658
12475SOL    HW247356   6.774   6.439   0.840 -0.2915 -1.9118  0.6854
12476SOL     OW47357   2.121   8.194  11.156 -0.1124  0.2271  0.4050
12476SOL    HW147358   2.192   8.224  11.100  0.8130 -1.5694  0.5306
12476SOL    HW247359   2.117   8.259  11.227  1.4170  0.3732  0.3877
12477SOL     OW47360   3.683  12.904   0.427 -0.7285 -0.2874 -0.4214
12477SOL    HW147361   3.644  12.857   0.501 -1.5975  0.4228 -0.4174
12477SOL    HW247362   3.612  12.957   0.391 -0.0724  0.1058 -1.1796
12478SOL     OW47363   0.057   8.313  12.487 -0.0401 -0.2956 -0.7771
12478SOL    HW147364  -0.015   8.251  12.502 -1.1153  0.3438 -2.7709
12478SOL    HW247365   0.135   8.259  12.483 -0.5329 -1.1452  0.4523
12479SOL     OW47366   4.053   3.979   8.069  0.5661  0.0470 -0.2775
12479SOL    HW147367   4.014   3.897   8.039  0.4493  0.5744 -1.6573
12479SOL    HW247368   4.064   3.968   8.163 -1.1760 -0.8400 -0.1440
12480SOL     OW47369   0.682   9.039   1.490 -0.2649  0.5437 -0.2065
12480SOL    HW147370   0.697   9.083   1.407 -0.5181 -0.1514 -0.6246
12480SOL    HW247371   0.588   9.047   1.505 -0.0652  1.7198  0.6237
12481SOL     OW47372  12.130   4.099   0.704 -0.0061  0.0693 -0.2933
12481SOL    HW147373  12.077   4.128   0.630 -1.3286 -0.1732  0.5213
12481SOL    HW247374  12.167   4.016   0.676 -0.5475 -0.0549 -0.6680
12482SOL     OW47375   3.590   4.284   0.630 -0.0221 -0.3888  0.2377
12482SOL    HW147376   3.643   4.275   0.551 -1.2522  3.5569 -1.2712
12482SOL    HW247377   3.521   4.218   0.621 -0.6475  0.5449 -2.4950
12483SOL     OW47378   4.809   4.718   7.292 -0.4280 -0.2899 -0.1558
12483SOL    HW147379   4.901   4.725   7.268 -0.6809 -1.2223 -1.5437
12483SOL    HW247380   4.763   4.766   7.223 -0.9249  1.6742  1.4629
12484SOL     OW47381   2.766   1.780   6.305 -0.8293 -0.4298  0.3329
12484SOL    HW147382   2.838   1.724   6.276 -0.0792  1.1935 -1.1406
12484SOL    HW247383   2.785   1.800   6.396  0.1335 -0.7219  0.1998
12485SOL     OW47384  11.851   5.069   0.227 -0.0149  0.2589  0.6673
12485SOL    HW147385  11.787   5.107   0.286  0.0306 -0.4793  1.2021
12485SOL    HW247386  11.875   4.985   0.267 -0.0867 -0.3274 -0.4513
12486SOL     OW47387   0.262   5.550   1.099  0.6600  0.1987  0.3524
12486SOL    HW147388   0.316   5.560   1.021  0.8875  0.5413  0.5539
12486SOL    HW247389   0.184   5.603   1.080  0.0881 -0.7941 -0.2021
12487SOL     OW47390   3.488   8.682   9.552  0.3279 -0.0670 -0.5225
12487SOL    HW147391   3.464   8.590   9.547  0.1769 -0.0638  0.0449
12487SOL    HW247392   3.472   8.716   9.464 -2.3250  0.0676 -0.0894
12488SOL     OW47393   6.584  12.135  10.685 -0.8843  0.2040  0.5943
12488SOL    HW147394   6.670  12.105  10.655  0.9520  1.8374  3.6935
12488SOL    HW247395   6.527  12.059  10.675  0.5839 -0.6308 -2.5432
12489SOL     OW47396   7.242   0.325   4.500 -0.3291  0.2606  0.0073
12489SOL    HW147397   7.221   0.333   4.407 -0.6623 -0.4974  0.0107
12489SOL    HW247398   7.332   0.356   4.507  0.0322 -0.5554 -0.7341
12490SOL     OW47399  11.047   8.814   4.367 -0.1576 -0.0928  0.0735
12490SOL    HW147400  10.980   8.801   4.435  0.7950 -1.6630  0.7497
12490SOL    HW247401  11.095   8.732   4.365  1.5023  0.8629 -0.6895
12491SOL     OW47402  12.248   9.132   8.057 -0.2242  0.0890 -0.2173
12491SOL    HW147403  12.216   9.131   7.967  0.2685 -0.3462 -0.3869
12491SOL    HW247404  12.343   9.127   8.049 -0.1490  0.5307  0.3139
12492SOL     OW47405   9.538   7.394   2.350  0.0646  0.4762 -0.2412
12492SOL    HW147406   9.597   7.320   2.365  1.6172  1.8935  1.0308
12492SOL    HW247407   9.477   7.391   2.424 -0.4770 -0.0648 -0.7023
12493SOL     OW47408   0.166   4.888   8.737  0.0281 -0.3240  0.0310
12493SOL    HW147409   0.252   4.928   8.723  0.4301 -0.8463  0.9204
12493SOL    HW247410   0.168   4.857   8.828 -0.2883 -2.2936 -0.5772
12494SOL     OW47411  12.107   3.360   1.883 -0.4517  0.1069  0.2683
12494SOL    HW147412  12.174   3.417   1.846  0.1835  0.5507  1.9834
12494SOL    HW247413  12.091   3.294   1.816  1.8027 -0.0721 -0.1634
12495SOL     OW47414  11.851  10.751   2.453  0.9677 -0.8290 -0.0362
12495SOL    HW147415  11.827  10.745   2.545  1.0855 -1.1338 -0.0215
12495SOL    HW247416  11.926  10.811   2.451 -0.5593  1.1840 -0.2384
12496SOL     OW47417   3.398   9.467  10.110  0.4196 -0.1531 -0.0868
12496SOL    HW147418   3.423   9.376  10.094  0.7086  0.1084 -1.1830
12496SOL    HW247419   3.481   9.512  10.128  0.2436 -0.1619  0.7829
12497SOL     OW47420   0.023   3.224   5.556  0.2681  0.2695  0.4251
12497SOL    HW147421  -0.001   3.300   5.504 -0.7507  0.2725  0.8912
12497SOL    HW247422   0.013   3.150   5.497 -2.0923  0.1345  0.9213
12498SOL     OW47423   0.070   1.497   4.984  0.4544  0.3036 -0.2523
12498SOL    HW147424   0.116   1.580   4.998 -0.2965  0.6433  0.2394
12498SOL    HW247425  -0.022   1.518   4.997  0.1155 -0.3109 -1.4698
12499SOL     OW47426   4.259   0.357   8.147 -0.3921 -0.2195 -0.4966
12499SOL    HW147427   4.264   0.353   8.243 -0.2869 -0.8260 -0.5222
12499SOL    HW247428   4.311   0.282   8.118  0.1833  0.3808 -1.0454
12500SOL     OW47429   4.495   2.856   2.453  0.2306 -0.2524 -0.2876
12500SOL    HW147430   4.506   2.890   2.541 -0.0325 -1.1129  0.0820
12500SOL    HW247431   4.522   2.929   2.396  0.5852  0.2408  0.4916
12501SOL     OW47432   6.921   4.321  11.330  0.3682 -0.1976 -0.1149
12501SOL    HW147433   6.899   4.230  11.310  0.6000 -0.9273  2.5931
12501SOL    HW247434   6.901   4.331  11.423  1.3799  2.2292 -0.0772
12502SOL     OW47435   2.654   9.036   2.136  0.0413  0.2242 -0.3229
12502SOL    HW147436   2.630   9.091   2.210 -2.0628  1.6870 -1.9854
12502SOL    HW247437   2.687   9.096   2.070  0.8199 -0.9149 -1.0172
12503SOL     OW47438  10.894   1.924  12.390  0.1323 -0.7478 -0.3324
12503SOL    HW147439  10.849   1.956  12.311 -0.7073 -1.2599 -0.0789
12503SOL    HW247440  10.873   1.990  12.457  0.5757 -0.4810 -0.4553
12504SOL     OW47441   1.315   0.378   9.918  0.3262 -0.6039  0.1500
12504SOL    HW147442   1.376   0.347   9.850  0.6162 -0.3274  0.2794
12504SOL    HW247443   1.237   0.325   9.906  0.1781 -0.2093 -0.7460
12505SOL     OW47444   6.177   8.706   2.611 -0.0174  0.0045 -0.5553
12505SOL    HW147445   6.119   8.691   2.537 -1.2649  1.7341 -0.0085
12505SOL    HW247446   6.177   8.801   2.622  0.2687 -0.1805  1.5253
12506SOL     OW47447   2.718  10.253  12.371  0.2747  0.1765 -0.5856
12506SOL    HW147448   2.794  10.255  12.313 -0.7460 -1.2490 -2.0521
12506SOL    HW247449   2.711  10.162  12.398 -0.8176  0.3128 -0.3523
12507SOL     OW47450  12.197  12.447   5.940  0.3698 -0.2513 -0.2568
12507SOL    HW147451  12.268  12.410   5.992  0.3038  0.0628  0.0588
12507SOL    HW247452  12.128  12.381   5.944  0.3464 -0.2073  0.0962
12508SOL     OW47453   3.049   3.435   7.005 -0.1143 -0.1099 -0.5777
12508SOL    HW147454   3.082   3.351   7.037 -0.9676 -0.0656  0.5030
12508SOL    HW247455   3.119   3.469   6.950  0.7482 -0.9793 -0.0590
12509SOL     OW47456   5.630  12.294  10.359  0.1625 -0.1657 -0.0198
12509SOL    HW147457   5.681  12.304  10.278  0.9253  0.8204  0.5638
12509SOL    HW247458   5.587  12.208  10.350 -0.6956  0.4228 -1.9730
12510SOL     OW47459   8.888  11.342   3.470 -0.3722 -0.2494  0.2704
12510SOL    HW147460   8.818  11.405   3.483  0.5593  0.5576  1.6104
12510SOL    HW247461   8.846  11.257   3.486 -0.9800  0.2372  1.3616
12511SOL     OW47462  11.760   4.094   2.831 -0.1834 -0.2960 -0.1976
12511SOL    HW147463  11.825   4.024   2.824  0.2395  0.1782 -1.1625
12511SOL    HW247464  11.701   4.080   2.757 -0.7202 -0.2500  0.2148
12512SOL     OW47465   3.378   3.330   4.493 -0.3917 -0.1831  0.5185
12512SOL    HW147466   3.317   3.398   4.524 -0.1006 -0.5877  2.0652
12512SOL    HW247467   3.352   3.315   4.402 -2.0121  0.3069  0.8539
12513SOL     OW47468   5.330   8.840   5.767  0.2706  0.0686  0.2763
12513SOL    HW147469   5.313   8.798   5.851  1.5302 -1.2753 -0.1224
12513SOL    HW247470   5.360   8.928   5.790 -0.8797  0.2655  1.1557
12514SOL     OW47471   4.004   2.475   4.054 -0.1097 -0.2843  0.3510
12514SOL    HW147472   4.026   2.391   4.013 -0.4896 -0.7759  1.1232
12514SOL    HW247473   4.053   2.540   4.004  0.6644 -1.0348  0.1067
12515SOL     OW47474   1.405   9.276   3.368  0.1104  0.2931 -0.0352
12515SOL    HW147475   1.392   9.213   3.439  1.0975 -0.5900 -0.6076
12515SOL    HW247476   1.320   9.278   3.323  0.4480 -1.8174 -0.9047
12516SOL     OW47477   0.789   4.833   8.343  0.2904  0.6211  0.1621
12516SOL    HW147478   0.781   4.926   8.322 -0.7032  0.1717 -1.7033
12516SOL    HW247479   0.756   4.788   8.265  1.5837 -1.3174  0.6646
12517SOL     OW47480   7.755   1.689  13.038 -0.2056 -0.6724 -0.0426
12517SOL    HW147481   7.684   1.754  13.037  0.2046 -0.2181 -1.6038
12517SOL    HW247482   7.760   1.657  12.949  0.5639 -1.8239  0.3935
12518SOL     OW47483   5.007  12.050   5.680  0.5105  0.2042 -0.2504
12518SOL    HW147484   4.951  12.029   5.605  1.7161  0.2759 -1.1974
12518SOL    HW247485   5.032  12.141   5.667  0.2198  0.4245  0.6085
12519SOL     OW47486   0.662  12.904   6.361  0.1583  0.0303  0.2511
12519SOL    HW147487   0.635  12.983   6.315  1.3589 -0.6697 -1.8163
12519SOL    HW247488   0.636  12.919   6.452  0.4475  2.8381 -0.0249
12520SOL     OW47489   9.113   2.854   4.411  0.0435  0.1378 -0.6016
12520SOL    HW147490   9.139   2.845   4.320 -0.3858  0.2310 -0.7391
12520SOL    HW247491   9.063   2.774   4.430  0.4996 -0.0816 -0.3181
12521SOL     OW47492   2.717  12.657   2.851  0.5657  0.4207  0.5678
12521SOL    HW147493   2.805  12.619   2.860  1.7209  2.6160 -0.3749
12521SOL    HW247494   2.720  12.735   2.907 -0.8328  0.4939  0.5577
12522SOL     OW47495   6.506   1.578  11.563 -0.2192  0.0267 -0.0702
12522SOL    HW147496   6.461   1.660  11.545 -0.2214 -0.2076 -1.2787
12522SOL    HW247497   6.596   1.594  11.537 -0.0858 -0.1592  0.2823
12523SOL     OW47498   9.615   0.046   9.543  0.3643 -0.0507  0.7875
12523SOL    HW147499   9.675   0.102   9.591  0.9758  0.2928 -0.3397
12523SOL    HW247500   9.531   0.092   9.545  0.9736  1.1710 -0.5453
12524SOL     OW47501  12.494   4.557   5.512 -0.3703 -0.4837 -0.1895
12524SOL    HW147502  12.529   4.543   5.424 -0.8384 -0.3487 -0.4017
12524SOL    HW247503  12.567   4.537   5.571  0.1472  0.0917 -0.6279
12525SOL     OW47504   9.637  11.204   4.252 -0.1351  0.2017  0.0586
12525SOL    HW147505   9.571  11.184   4.318  0.6864 -1.0368  0.5455
12525SOL    HW247506   9.608  11.287   4.213 -1.1637  0.4422  1.2712
12526SOL     OW47507  11.248   9.489   4.827 -0.3612 -0.5207  0.4827
12526SOL    HW147508  11.265   9.567   4.880  0.3672 -0.2557 -0.1222
12526SOL    HW247509  11.155   9.469   4.843  0.1414 -1.2381  2.8742
12527SOL     OW47510   8.060  12.530   1.980 -0.2995 -0.5551  0.1298
12527SOL    HW147511   8.021  12.457   1.931  0.1229 -1.0429  0.5156
12527SOL    HW247512   8.111  12.578   1.915 -1.6714  0.2106 -0.4369
12528SOL     OW47513   7.831   7.081   1.591  1.0220 -0.0083 -0.0332
12528SOL    HW147514   7.925   7.088   1.610  1.6339 -1.9106 -1.9659
12528SOL    HW247515   7.824   7.101   1.498 -0.4619 -0.2381  0.0109
12529SOL     OW47516  11.904  11.604   0.281  0.6344  0.0308  0.0305
12529SOL    HW147517  11.852  11.580   0.205  1.0803  2.5558 -1.1907
12529SOL    HW247518  11.980  11.546   0.277 -0.3991 -1.3754 -0.1206
12530SOL     OW47519   0.630   7.271   2.149 -0.4627  0.3700  0.0543
12530SOL    HW147520   0.556   7.241   2.201 -0.3465 -0.6943 -0.3632
12530SOL    HW247521   0.696   7.297   2.213 -1.1144  1.1332  0.4263
12531SOL     OW47522   4.448   1.359   9.850  0.2296  0.2720 -0.1057
12531SOL    HW147523   4.442   1.310   9.768 -1.2220  0.5146 -0.1664
12531SOL    HW247524   4.423   1.295   9.917  1.8136 -0.0435  0.2212
12532SOL     OW47525   2.996   6.220   5.293 -0.3751  0.2353  0.2576
12532SOL    HW147526   2.961   6.301   5.330 -0.8815 -0.3897  1.1648
12532SOL    HW247527   3.053   6.186   5.362  0.0422 -0.0532 -0.2266
12533SOL     OW47528   6.969   6.791   0.204  0.0084  0.4987 -0.0677
12533SOL    HW147529   6.879   6.770   0.227  0.2390 -0.2987  0.1252
12533SOL    HW247530   6.962   6.857   0.135 -0.7095  1.1664  0.6135
12534SOL     OW47531   3.487  11.969   2.528  0.2576 -0.1011  0.1514
12534SOL    HW147532   3.533  11.885   2.537  1.3635  0.3815 -0.8717
12534SOL    HW247533   3.551  12.035   2.554 -0.5085  0.4764  0.6488
12535SOL     OW47534   5.936   1.742  13.215  0.1630  0.2434  0.0051
12535SOL    HW147535   5.850   1.716  13.180  0.1066  1.5145 -0.8914
12535SOL    HW247536   5.994   1.743  13.139  0.3771  1.7143  0.1487
12536SOL     OW47537   9.815  13.125   4.417 -0.9200 -0.1577  0.6206
12536SOL    HW147538   9.900  13.085   4.396 -1.7066 -1.3391 -0.4443
12536SOL    HW247539   9.817  13.211   4.375 -0.2118 -0.1235  0.7104
12537SOL     OW47540   8.540   6.579   4.781 -0.4490 -0.0199 -0.2245
12537SOL    HW147541   8.486   6.588   4.860 -1.7590  0.4089 -1.1281
12537SOL    HW247542   8.502   6.643   4.720  0.9056  0.0607 -1.0003
12538SOL     OW47543  13.301   1.571  12.691 -0.0190  0.1563 -0.3672
12538SOL    HW147544  13.230   1.596  12.631 -0.3347  1.2219  0.4266
12538SOL    HW247545  13.259   1.512  12.754 -0.6362  1.9978  1.0393
12539SOL     OW47546   9.081  12.231   3.965 -0.0219 -0.1334 -0.2476
12539SOL    HW147547   9.011  12.237   3.900  0.7513 -1.2548 -1.2220
12539SOL    HW247548   9.159  12.206   3.915  1.2103  1.4771  0.7309
12540SOL     OW47549   5.349  10.542   7.938 -0.4578 -0.5105  0.1689
12540SOL    HW147550   5.261  10.518   7.909  0.0074 -0.6475 -1.2034
12540SOL    HW247551   5.335  10.592   8.018 -1.8441  0.1866 -0.4757
12541SOL     OW47552   9.765   9.560   0.410 -0.5754 -0.1944  0.0508
12541SOL    HW147553   9.849   9.568   0.365 -0.5818 -0.8018 -0.0721
12541SOL    HW247554   9.707   9.520   0.346 -0.0691 -2.9292  1.1561
12542SOL     OW47555   1.921   0.618   1.805  0.1142 -0.0834 -0.2489
12542SOL    HW147556   1.856   0.688   1.804 -1.3436 -1.3910 -1.1453
12542SOL    HW247557   1.964   0.624   1.720 -0.1602 -0.3998 -0.4118
12543SOL     OW47558  12.200   8.573   7.209  0.1691 -0.2039 -0.3000
12543SOL    HW147559  12.115   8.592   7.168  0.8644  1.1999 -1.1736
12543SOL    HW247560  12.216   8.647   7.267 -0.1537 -1.5029  1.5044
12544SOL     OW47561   7.978  10.826   8.700 -0.6942  0.6981  0.7042
12544SOL    HW147562   7.998  10.835   8.607  1.2957  1.2239  1.1274
12544SOL    HW247563   7.940  10.739   8.709  1.5985 -0.4981 -0.2657
12545SOL     OW47564   2.008   6.601   1.049 -0.2256 -0.3919 -0.6867
12545SOL    HW147565   2.004   6.609   0.954 -0.6995 -0.3857 -0.6713
12545SOL    HW247566   1.929   6.645   1.080  0.0398 -0.1967 -0.2764
12546SOL     OW47567   9.377  10.796   9.958  0.0413 -0.2544 -0.0501
12546SOL    HW147568   9.395  10.887   9.934 -2.4351  0.2265 -0.3981
12546SOL    HW247569   9.340  10.758   9.878 -2.3895 -0.4614  1.0967
12547SOL     OW47570   3.430  12.541   2.167  0.4044 -0.7544 -0.1819
12547SOL    HW147571   3.367  12.557   2.097  0.9618 -1.9891 -1.0109
12547SOL    HW247572   3.491  12.477   2.130  2.0732  0.2781  0.6205
12548SOL     OW47573   7.231   6.118   4.536 -0.1389  0.1907  0.7756
12548SOL    HW147574   7.259   6.153   4.620 -1.3129  2.2965  0.3602
12548SOL    HW247575   7.224   6.194   4.479 -0.9027 -0.9882 -0.8004
12549SOL     OW47576   0.068   2.360   1.962  0.1570  0.3879  0.0682
12549SOL    HW147577   0.084   2.407   1.881  0.3276  0.7783  0.3219
12549SOL    HW247578  -0.008   2.405   2.001  0.0472  0.1753  0.1015
12550SOL     OW47579   7.026   9.595   4.594 -0.4569  0.0100  0.2723
12550SOL    HW147580   7.029   9.632   4.682 -2.9255  0.9337  0.0282
12550SOL    HW247581   6.977   9.659   4.542  0.1777 -0.9293 -1.5719
12551SOL     OW47582   8.164   9.267   8.566 -0.5154  0.4999 -0.3232
12551SOL    HW147583   8.107   9.270   8.489 -2.7198  0.1518  1.1864
12551SOL    HW247584   8.220   9.191   8.552  1.2736  2.1235 -2.8839
12552SOL     OW47585   1.359  13.232   2.664  0.5398  0.3376  0.2186
12552SOL    HW147586   1.295  13.302   2.679  1.6389  1.6341 -0.7535
12552SOL    HW247587   1.402  13.220   2.749  1.1794  1.7724  0.1315
12553SOL     OW47588   2.657   9.850  10.216  0.3830 -0.9691  0.7054
12553SOL    HW147589   2.656   9.861  10.311 -1.5300 -2.0472  0.8488
12553SOL    HW247590   2.746   9.875  10.191  0.7451 -0.0246  2.6817
12554SOL     OW47591   2.867   7.112   0.113  0.1195 -0.4963 -0.3271
12554SOL    HW147592   2.904   7.079   0.195  3.7286 -1.6609 -2.1987
12554SOL    HW247593   2.939   7.107   0.050 -1.5882  3.1375 -2.9260
12555SOL     OW47594   7.250  12.262  10.287  0.2224 -0.0837 -0.3715
12555SOL    HW147595   7.254  12.247  10.382 -0.2294 -2.2912 -0.6608
12555SOL    HW247596   7.326  12.317  10.269  0.5965 -0.0293  1.2033
12556SOL     OW47597   5.547  11.712   6.273  0.3957  0.0837  0.7439
12556SOL    HW147598   5.471  11.720   6.215  1.8123  0.1902 -1.1591
12556SOL    HW247599   5.525  11.770   6.347 -1.7351 -0.5690  0.7056
12557SOL     OW47600   9.207   5.585   0.308 -1.0246  0.5723 -0.1610
12557SOL    HW147601   9.195   5.491   0.290 -1.0564  0.5701 -0.1260
12557SOL    HW247602   9.132   5.627   0.265 -1.1163  0.5642 -0.0097
12558SOL     OW47603  13.247   6.073   1.862  0.4628  0.1641 -0.2640
12558SOL    HW147604  13.196   6.131   1.918  1.0998 -0.5588  1.1234
12558SOL    HW247605  13.280   6.130   1.792 -2.4618  0.5842 -1.4245
12559SOL     OW47606  12.376   4.516  10.467  0.1259 -0.5594 -0.1809
12559SOL    HW147607  12.424   4.505  10.385 -0.6150 -0.0948 -0.6964
12559SOL    HW247608  12.315   4.443  10.469 -0.6380  0.0482 -0.6203
12560SOL     OW47609   0.035   8.485   2.315  0.2578  0.0117  0.3621
12560SOL    HW147610  -0.005   8.483   2.402 -1.0573  0.1199 -0.2191
12560SOL    HW247611  -0.015   8.420   2.265  1.2507 -0.3272 -0.2163
12561SOL     OW47612   0.708   4.499   1.218 -0.3452 -0.2761 -0.4539
12561SOL    HW147613   0.715   4.447   1.138  0.4031 -1.6966  0.4901
12561SOL    HW247614   0.792   4.486   1.263 -1.0593 -0.2417  0.9611
12562SOL     OW47615   0.255  11.917   9.831  1.0603 -0.4592  0.3846
12562SOL    HW147616   0.332  11.892   9.881  1.6602 -3.1458 -1.6620
12562SOL    HW247617   0.213  11.834   9.808 -2.5906  0.8882  1.5208
12563SOL     OW47618   1.241   5.307  10.402 -0.3574  0.2831  0.4170
12563SOL    HW147619   1.259   5.306  10.308 -0.7127  0.1067  0.3482
12563SOL    HW247620   1.146   5.309  10.408 -0.4102 -1.3582  0.7625
12564SOL     OW47621   2.118  13.208   3.723 -0.1278  0.2940  0.5709
12564SOL    HW147622   2.191  13.163   3.765  0.2303  1.0851  0.8273
12564SOL    HW247623   2.085  13.146   3.658  2.5076  0.8707 -1.4983
12565SOL     OW47624   6.333   5.611   8.722 -0.4293  0.5055  0.1364
12565SOL    HW147625   6.324   5.664   8.643 -1.4172 -1.0337 -0.8359
12565SOL    HW247626   6.422   5.577   8.719 -0.1496  1.2054  0.2062
12566SOL     OW47627   1.420   4.407   4.858 -0.4568  0.1843  0.5654
12566SOL    HW147628   1.329   4.425   4.838 -0.0157  0.9942 -0.8125
12566SOL    HW247629   1.470   4.470   4.806  0.9556 -1.3656 -0.0537
12567SOL     OW47630   2.210   4.196   9.012  0.1107  0.1595 -0.0138
12567SOL    HW147631   2.135   4.137   9.010  1.1258 -1.2142  0.4949
12567SOL    HW247632   2.282   4.141   9.044  0.8910  1.9059  1.3773
12568SOL     OW47633  11.749   4.742  12.900  0.2649  0.4385 -0.6221
12568SOL    HW147634  11.669   4.782  12.865  0.7881  0.8246 -1.4020
12568SOL    HW247635  11.802   4.816  12.929  0.7056  0.2464 -0.9172
12569SOL     OW47636   4.229  12.965   3.400 -0.1705 -0.2614  0.2154
12569SOL    HW147637   4.288  12.941   3.472 -0.0445 -0.9871 -0.1149
12569SOL    HW247638   4.175  13.035   3.436 -1.0423 -1.5322  1.4958
12570SOL     OW47639   6.488  12.522   7.431 -0.6975  0.1332  1.4024
12570SOL    HW147640   6.416  12.466   7.400 -2.7678  2.6626  1.3332
12570SOL    HW247641   6.458  12.553   7.516  0.2319  1.4199  1.2784
12571SOL     OW47642  10.309   7.198   7.426 -0.0577 -0.3579  0.1130
12571SOL    HW147643  10.265   7.270   7.470  0.9823 -0.6969  1.8560
12571SOL    HW247644  10.385   7.238   7.384  1.0806 -0.4838  1.9119
12572SOL     OW47645  13.311  13.149   7.595  0.1885  0.1158 -0.1395
12572SOL    HW147646  13.313  13.061   7.559  0.6373  0.3891 -0.8081
12572SOL    HW247647  13.255  13.143   7.672  0.7787 -0.9054  0.2298
12573SOL     OW47648   4.286   7.080   9.636 -0.0171 -0.1252 -0.7932
12573SOL    HW147649   4.192   7.062   9.625 -0.1130  0.4810 -1.0014
12573SOL    HW247650   4.323   6.996   9.665 -0.6965 -0.2508 -0.2608
12574SOL     OW47651  12.065   5.221  12.524  0.4573  0.2378  0.4076
12574SOL    HW147652  12.074   5.193  12.433 -0.2201  1.4767 -0.0707
12574SOL    HW247653  12.039   5.313  12.518 -0.1408  0.1888  1.8468
12575SOL     OW47654   3.391   0.266   0.160  0.0338  0.1429  0.9140
12575SOL    HW147655   3.478   0.295   0.133 -0.2660  2.1258  1.9377
12575SOL    HW247656   3.332   0.303   0.094 -0.1421 -0.3325  0.7990
12576SOL     OW47657   5.399   8.515  10.389  0.5460  0.0606 -0.3037
12576SOL    HW147658   5.447   8.468  10.320 -0.8065 -0.7213 -0.7482
12576SOL    HW247659   5.365   8.593  10.345 -0.5532 -0.5802 -0.6087
12577SOL     OW47660   4.820  12.186   9.019  0.3825 -0.0240  0.0176
12577SOL    HW147661   4.738  12.173   9.068  0.4958 -0.3439  0.1227
12577SOL    HW247662   4.809  12.272   8.978  0.4457  0.4269  0.9193
12578SOL     OW47663   5.935  10.075   6.213 -0.3538  0.9589 -0.4447
12578SOL    HW147664   5.998  10.028   6.268 -0.4590 -0.5014 -1.5057
12578SOL    HW247665   5.901  10.144   6.269 -0.0896 -0.1501  1.1611
12579SOL     OW47666  11.292   6.571  10.411  0.9676  0.2174  0.4150
12579SOL    HW147667  11.315   6.604  10.324  1.7358  1.5938  1.1038
12579SOL    HW247668  11.198   6.556  10.406  0.9011  0.8417 -0.4779
12580SOL     OW47669   9.919   3.551   3.346 -0.1712 -1.0802 -0.7819
12580SOL    HW147670   9.870   3.634   3.353  1.1944 -0.1675 -1.6048
12580SOL    HW247671   9.958   3.539   3.432 -0.9376 -1.2378 -0.4503
12581SOL     OW47672  12.482   7.095  12.370 -0.2827  0.1408  0.0618
12581SOL    HW147673  12.539   7.028  12.407 -2.2517 -2.3262 -1.0454
12581SOL    HW247674  12.394   7.067  12.393 -1.2371  1.9731 -1.0947
12582SOL     OW47675   0.130   4.490   4.283  0.0174 -0.3816 -0.0251
12582SOL    HW147676   0.086   4.427   4.340  0.6742 -1.7579 -0.9834
12582SOL    HW247677   0.063   4.516   4.220 -0.2732 -0.0529  0.4106
12583SOL     OW47678   1.793   9.051   4.359  0.5633 -0.5530  0.1104
12583SOL    HW147679   1.883   9.086   4.361  0.2085  0.4042  0.0668
12583SOL    HW247680   1.804   8.957   4.345  1.5968 -0.6203  1.1654
12584SOL     OW47681   6.715  12.388   7.744 -0.0125  0.5772 -0.4175
12584SOL    HW147682   6.713  12.312   7.687  0.8675  0.5284 -0.4020
12584SOL    HW247683   6.630  12.431   7.731 -0.6131 -0.5348 -0.2331
12585SOL     OW47684   2.481  12.803  10.496  0.5685  0.1021  0.2291
12585SOL    HW147685   2.561  12.821  10.447  0.5565  1.6682  0.7404
12585SOL    HW247686   2.471  12.877  10.555 -1.0945 -0.2092  0.4018
12586SOL     OW47687   1.782  10.719   5.030 -0.0357 -0.3416 -0.1529
12586SOL    HW147688   1.862  10.749   5.074  0.9372 -2.0816 -0.6632
12586SOL    HW247689   1.755  10.641   5.079 -0.5538 -0.6675 -0.9434
12587SOL     OW47690   1.438   0.769  12.191  0.1459 -0.2249  0.0883
12587SOL    HW147691   1.454   0.707  12.119 -0.9276 -0.2737 -0.1366
12587SOL    HW247692   1.365   0.822  12.159  0.4105  0.5011  0.6903
12588SOL     OW47693   5.258   3.086   1.115  0.0866  0.1156 -0.2028
12588SOL    HW147694   5.304   3.151   1.167  0.2744 -0.5971  0.5518
12588SOL    HW247695   5.313   3.008   1.120 -1.7380 -1.1459  1.7458
12589SOL     OW47696   0.584   2.356  13.244  0.3453  0.1297 -0.4547
12589SOL    HW147697   0.580   2.264  13.270 -2.1696  0.0933 -0.7466
12589SOL    HW247698   0.668   2.387  13.278  1.0933 -2.1611 -0.0518
12590SOL     OW47699   8.837  11.725  12.130  0.3601  0.1163  0.1165
12590SOL    HW147700   8.797  11.653  12.179  0.9109 -0.9208 -0.8968
12590SOL    HW247701   8.920  11.689  12.098  0.5915  1.1645 -0.5262
12591SOL     OW47702  10.990   0.309  13.241 -0.1691  0.1764 -0.7856
12591SOL    HW147703  11.049   0.372  13.281 -0.3627  0.5701 -1.1145
12591SOL    HW247704  11.047   0.239  13.210 -0.1400 -0.9876  1.6653
12592SOL     OW47705   9.064  10.814   0.894  0.5923 -0.2012 -0.0310
12592SOL    HW147706   9.008  10.801   0.971  0.1331  0.3397 -0.2693
12592SOL    HW247707   9.038  10.745   0.834 -0.4189  0.5366 -0.4756
12593SOL     OW47708   3.363   2.713   2.644 -0.3162 -0.1588  0.2678
12593SOL    HW147709   3.326   2.628   2.670 -0.0706 -0.3485  0.0062
12593SOL    HW247710   3.341   2.772   2.716 -3.0497  0.2903 -0.8014
12594SOL     OW47711   1.369   4.635   7.894  0.2854 -0.3968 -0.3441
12594SOL    HW147712   1.430   4.708   7.884  0.1140 -0.1518  0.3357
12594SOL    HW247713   1.393   4.574   7.824  1.1205 -0.1745 -0.2674
12595SOL     OW47714  11.833   7.822   3.112  0.3516  0.4331 -0.7254
12595SOL    HW147715  11.830   7.896   3.053 -0.1076  0.3193 -0.8528
12595SOL    HW247716  11.779   7.849   3.187  0.3091  0.2885 -0.7028
12596SOL     OW47717   6.445   2.001   2.224 -0.0041  0.4321 -0.2775
12596SOL    HW147718   6.398   1.918   2.215  0.4504  0.2408 -0.9543
12596SOL    HW247719   6.378   2.068   2.209  0.1248  0.1616 -2.4018
12597SOL     OW47720   7.888  12.703   4.534 -0.8835  0.2070 -0.3603
12597SOL    HW147721   7.950  12.697   4.461  0.0726  1.6223  0.3083
12597SOL    HW247722   7.837  12.622   4.528  1.6426 -1.4766 -0.3658
12598SOL     OW47723   9.408   7.857   9.450  0.6248 -0.2716  0.1531
12598SOL    HW147724   9.366   7.796   9.511  0.5481  2.0801  2.6005
12598SOL    HW247725   9.489   7.814   9.424 -0.0696 -1.9796  0.6875
12599SOL     OW47726   3.654   2.716   6.210  0.0629  0.1678  0.2691
12599SOL    HW147727   3.680   2.624   6.202  0.3656  0.1935  0.8656
12599SOL    HW247728   3.587   2.728   6.144  1.8598  0.2097 -1.6594
12600SOL     OW47729   9.737   8.970   1.878  0.4695 -0.0185  0.2381
12600SOL    HW147730   9.773   8.995   1.963  0.6992 -0.9828  0.4280
12600SOL    HW247731   9.727   9.054   1.832 -0.3701  0.5978  1.4773
12601SOL     OW47732  13.235   1.336   9.250 -0.0493 -0.3997 -0.1838
12601SOL    HW147733  13.219   1.247   9.283 -1.3922 -1.4501 -3.2902
12601SOL    HW247734  13.330   1.340   9.238  0.1641 -0.9238  1.1136
12602SOL     OW47735  12.825   0.987  10.837 -0.3677  0.0245  0.1369
12602SOL    HW147736  12.795   0.898  10.817 -1.2963  0.3226  0.2059
12602SOL    HW247737  12.747   1.041  10.831  0.2324  0.8801 -0.1101
12603SOL     OW47738   6.441   0.889   3.152 -0.2422  0.2134  0.8897
12603SOL    HW147739   6.446   0.962   3.090  1.0042  0.7378  1.5488
12603SOL    HW247740   6.456   0.811   3.099 -0.8035  0.4975  0.2944
12604SOL     OW47741   4.780   1.264   9.740 -0.0400 -0.5100 -0.2063
12604SOL    HW147742   4.803   1.174   9.765  0.2861 -0.0058  1.3788
12604SOL    HW247743   4.704   1.253   9.681 -1.0145 -1.7660  1.2037
12605SOL     OW47744   2.489   0.809   7.383  0.1791 -0.2338  0.3599
12605SOL    HW147745   2.474   0.760   7.303  2.1957 -1.5327  0.7135
12605SOL    HW247746   2.411   0.791   7.437  0.7300 -2.9871  0.4037
12606SOL     OW47747   7.234   7.760   3.095  0.6052  0.3351  0.7189
12606SOL    HW147748   7.265   7.793   3.179  0.9668  0.1444  0.6590
12606SOL    HW247749   7.210   7.669   3.112  1.0218  0.1878  0.5326
12607SOL     OW47750   2.789  12.865   7.128  0.3123  0.8085 -0.1914
12607SOL    HW147751   2.751  12.790   7.084  0.1611  0.7484  0.0383
12607SOL    HW247752   2.729  12.883   7.200  0.7114  0.7115  0.1722
12608SOL     OW47753   3.216   3.501   8.501  0.2061  0.2101 -0.0881
12608SOL    HW147754   3.211   3.422   8.555 -0.1317  0.2121 -0.1148
12608SOL    HW247755   3.177   3.476   8.417  0.3226  0.3339 -0.1789
12609SOL     OW47756   4.664   5.296   5.378 -0.7446  0.0799  0.2645
12609SOL    HW147757   4.684   5.221   5.435  1.0726  0.1019 -0.2798
12609SOL    HW247758   4.745   5.347   5.377 -1.1680  0.7758 -1.2752
12610SOL     OW47759   0.171  12.683   1.975  0.0037  0.2667 -0.4366
12610SOL    HW147760   0.251  12.730   2.000 -0.7239  1.7722 -0.8888
12610SOL    HW247761   0.100  12.732   2.016 -0.6540 -2.0417  1.4602
12611SOL     OW47762   3.819   1.555  12.422  0.1534 -0.1593 -0.2478
12611SOL    HW147763   3.779   1.627  12.470 -0.5183  0.1111 -1.1815
12611SOL    HW247764   3.848   1.594  12.339 -2.0220 -1.2947 -1.6441
12612SOL     OW47765   2.364   6.496  10.474  0.1388 -0.5200 -0.3417
12612SOL    HW147766   2.386   6.543  10.554 -1.2607  0.4114 -0.4636
12612SOL    HW247767   2.332   6.410  10.504  0.2995 -0.4435  0.0481
12613SOL     OW47768   1.997   7.481   1.075 -0.4779  0.1578 -0.1636
12613SOL    HW147769   2.011   7.389   1.098 -0.2937  0.5458  1.3832
12613SOL    HW247770   2.067   7.502   1.013 -0.5766 -0.7566 -0.6026
12614SOL     OW47771   0.868   7.219   8.887 -0.0853  0.5893  0.5754
12614SOL    HW147772   0.932   7.174   8.832  2.1765  1.8104  2.0478
12614SOL    HW247773   0.789   7.221   8.834  1.1071 -0.8554 -1.4207
12615SOL     OW47774  10.959   8.559  12.344  0.1298 -0.0560 -0.1206
12615SOL    HW147775  10.897   8.511  12.289  0.1796  0.7388 -0.8796
12615SOL    HW247776  10.985   8.496  12.411  0.9826 -1.4424 -1.6877
12616SOL     OW47777   3.781   5.214   5.123 -0.0323  0.3875  0.3441
12616SOL    HW147778   3.829   5.147   5.174 -0.7800 -1.2281 -0.9665
12616SOL    HW247779   3.848   5.254   5.068  0.3296  0.2796  0.6993
12617SOL     OW47780  11.725  10.087  11.927 -0.2994 -0.6825  0.0332
12617SOL    HW147781  11.707  10.008  11.875  0.6947 -0.4069 -0.7686
12617SOL    HW247782  11.800  10.063  11.981 -0.0018 -0.2989 -0.2050
12618SOL     OW47783   2.116  11.630   2.096  0.6937  0.3676 -0.1884
12618SOL    HW147784   2.126  11.615   2.189 -0.6397  2.2022  0.3265
12618SOL    HW247785   2.083  11.720   2.090 -0.7808 -0.2353 -2.3101
12619SOL     OW47786   0.618   5.982  10.253  0.0421  0.4058 -0.0020
12619SOL    HW147787   0.654   6.021  10.173  0.4564  1.6851  0.7872
12619SOL    HW247788   0.692   5.933  10.291 -0.3372 -0.7655 -0.7250
12620SOL     OW47789  11.479   1.387  11.168 -0.4279  0.4673 -0.1811
12620SOL    HW147790  11.464   1.308  11.115 -1.9308  0.1755  0.6542
12620SOL    HW247791  11.401   1.395  11.222  0.6229  1.3645  1.2497
12621SOL     OW47792   7.554   7.044   0.970  0.1060 -0.5853  0.2470
12621SOL    HW147793   7.509   7.120   0.934  0.5317 -0.4127  0.0788
12621SOL    HW247794   7.628   7.029   0.911  0.3748 -0.7581  0.6210
12622SOL     OW47795  11.898  13.313   8.145 -0.1055 -0.6599  0.1287
12622SOL    HW147796  11.879  13.242   8.083  0.2830 -1.4048  0.8433
12622SOL    HW247797  11.943  13.379   8.092 -0.6660 -0.8361 -0.5959
12623SOL     OW47798   7.352  12.876  11.633  0.7734  0.5545  0.3589
12623SOL    HW147799   7.423  12.813  11.622  0.3640  0.1314  0.0935
12623SOL    HW247800   7.389  12.959  11.605  1.5347  0.5703  1.3600
12624SOL     OW47801  10.793   3.729  12.569 -0.2965  0.0670  0.1802
12624SOL    HW147802  10.776   3.739  12.663 -0.6888 -0.8259  0.2230
12624SOL    HW247803  10.878   3.770  12.555 -0.3334  0.4010  0.8878
12625SOL     OW47804   0.656   4.931   2.950 -0.2509 -0.0249  0.1976
12625SOL    HW147805   0.707   5.009   2.972 -0.8584  0.3372  0.3507
12625SOL    HW247806   0.681   4.866   3.016  1.6444 -0.6008 -1.0218
12626SOL     OW47807   5.702   8.438  11.533  0.1629 -0.2296  0.7145
12626SOL    HW147808   5.687   8.346  11.558  0.6959 -0.4686  0.1765
12626SOL    HW247809   5.647   8.451  11.456 -1.5629  0.5403  2.0227
12627SOL     OW47810   4.705   7.473   9.486 -0.3159 -0.3477 -0.0695
12627SOL    HW147811   4.733   7.565   9.493  0.0899 -0.4730 -0.0063
12627SOL    HW247812   4.693   7.459   9.392 -1.6399  0.1323  0.0015
12628SOL     OW47813   7.111   7.234  12.248 -0.1581  0.1167 -0.5656
12628SOL    HW147814   7.083   7.249  12.338  0.0265 -0.3704 -0.4202
12628SOL    HW247815   7.055   7.290  12.195  0.9300  1.7939 -0.0268
12629SOL     OW47816   9.606   3.657   2.027 -0.4074 -0.9403  0.3075
12629SOL    HW147817   9.693   3.688   2.003 -0.4126 -0.5946  0.7161
12629SOL    HW247818   9.547   3.727   1.998 -0.3426 -0.1443  1.9908
12630SOL     OW47819   5.988  11.864  11.996 -0.0874 -0.1096 -0.3450
12630SOL    HW147820   6.063  11.863  11.937  2.1394 -0.7988  2.2909
12630SOL    HW247821   5.977  11.957  12.019  0.1994 -0.0418 -0.4799
12631SOL     OW47822   6.411   9.392   2.032 -0.0112  0.0434 -0.1158
12631SOL    HW147823   6.407   9.486   2.018 -0.2229  0.1828  0.8363
12631SOL    HW247824   6.407   9.381   2.127  2.0117 -0.8259 -0.0812
12632SOL     OW47825   2.032  11.539   1.650  0.7186  0.5469 -0.3545
12632SOL    HW147826   2.128  11.543   1.650  0.8222 -1.2477 -0.9292
12632SOL    HW247827   2.006  11.596   1.577  1.2912  1.5458  0.1955
12633SOL     OW47828   7.663   6.527   6.270  0.3494 -0.1144 -0.9105
12633SOL    HW147829   7.599   6.478   6.322  0.2685 -0.6110 -1.4832
12633SOL    HW247830   7.748   6.497   6.302  0.3071  0.2321 -0.4515
12634SOL     OW47831   1.392   5.027   5.282 -0.5559  0.2267 -0.3335
12634SOL    HW147832   1.422   4.938   5.262  0.5709  0.5783 -0.2296
12634SOL    HW247833   1.394   5.072   5.198 -0.3932  0.3701 -0.2523
12635SOL     OW47834  10.246  11.756   5.666  0.2503 -0.1386  0.0794
12635SOL    HW147835  10.243  11.851   5.670 -0.8069 -0.0733 -1.3038
12635SOL    HW247836  10.216  11.727   5.752 -1.8107  0.8114 -0.2576
12636SOL     OW47837   5.050   8.644   9.298 -0.5324  0.0517  0.4115
12636SOL    HW147838   5.033   8.671   9.208 -0.3122  0.4765  0.4986
12636SOL    HW247839   5.138   8.677   9.318 -1.2035  1.4029  1.3309
12637SOL     OW47840   0.049   4.314   1.823 -0.5050 -0.5759 -0.5738
12637SOL    HW147841   0.055   4.365   1.904  1.2799  2.7117 -2.5827
12637SOL    HW247842  -0.042   4.324   1.795 -1.4028 -2.5300  1.3591
12638SOL     OW47843   2.224   4.151   6.468 -0.5036  0.0098 -0.0869
12638SOL    HW147844   2.242   4.239   6.502  0.8297 -0.0647 -0.5259
12638SOL    HW247845   2.291   4.096   6.509  0.6819 -0.2205 -2.2066
12639SOL     OW47846   2.478   5.561   4.778 -0.2605 -0.2472 -0.3005
12639SOL    HW147847   2.566   5.596   4.764  0.2090 -1.1176  0.3100
12639SOL    HW247848   2.490   5.495   4.847 -1.4045 -0.3409 -0.1708
12640SOL     OW47849   1.031   7.433   1.765 -0.3862 -0.4979 -0.5183
12640SOL    HW147850   0.988   7.385   1.695  0.9485  0.1728 -1.8513
12640SOL    HW247851   1.123   7.405   1.760  0.0708  0.8933 -0.2083
12641SOL     OW47852  10.713   5.699   8.600  0.4770  0.2707 -0.2091
12641SOL    HW147853  10.800   5.666   8.579 -0.9724 -2.6872 -2.2371
12641SOL    HW247854  10.703   5.682   8.694  2.1618  1.0193  0.1452
12642SOL     OW47855   6.334   2.206   7.008 -0.1120 -0.4180 -0.1481
12642SOL    HW147856   6.251   2.249   7.029 -0.8665 -2.1787  0.6781
12642SOL    HW247857   6.311   2.114   6.992  1.7632 -1.1377  0.9103
12643SOL     OW47858  11.211   8.248   7.521 -0.0084 -0.0405 -0.1909
12643SOL    HW147859  11.165   8.232   7.604  0.0710  0.7095  0.0004
12643SOL    HW247860  11.166   8.324   7.484 -0.5651 -0.8515 -1.2286
12644SOL     OW47861   8.130   0.882  11.758 -0.2680 -0.3011 -0.1162
12644SOL    HW147862   8.222   0.890  11.731  0.0367 -1.3801  0.5440
12644SOL    HW247863   8.105   0.793  11.734 -1.2850  0.1064 -0.6522
12645SOL     OW47864   5.974   8.488  12.142  0.6935 -0.1957  0.2467
12645SOL    HW147865   5.899   8.512  12.087  0.1404 -1.0304  0.6046
12645SOL    HW247866   5.952   8.522  12.229  0.1881 -1.3866  0.6141
12646SOL     OW47867   8.937   7.573   8.713  0.4443 -0.1132 -0.1993
12646SOL    HW147868   8.876   7.638   8.680  0.5221  0.0779  0.0380
12646SOL    HW247869   8.965   7.524   8.635  1.7049  1.2358 -0.6319
12647SOL     OW47870   9.181   7.512  13.228 -0.5573  0.8024  0.0007
12647SOL    HW147871   9.233   7.440  13.263 -2.2360 -0.6993 -0.4056
12647SOL    HW247872   9.221   7.533  13.144 -1.1020 -0.9576 -0.7420
12648SOL     OW47873   6.352   3.743  10.550 -0.3398 -0.0795  0.2230
12648SOL    HW147874   6.269   3.755  10.596 -0.1613  0.2320  0.4747
12648SOL    HW247875   6.337   3.777  10.462  0.0844  1.8884  0.8536
12649SOL     OW47876   4.523  10.485   5.664 -0.3097 -0.5706  0.2257
12649SOL    HW147877   4.446  10.511   5.715 -0.6320 -0.1454 -0.4582
12649SOL    HW247878   4.487  10.459   5.579  0.2705 -0.7189  0.0225
12650SOL     OW47879   4.631   2.272   2.510  0.4693 -0.1878  0.9372
12650SOL    HW147880   4.714   2.272   2.464  0.6084  1.3322  1.1439
12650SOL    HW247881   4.653   2.294   2.601 -0.2951  2.4765  0.5724
12651SOL     OW47882  11.054   1.333  13.055  0.4907  0.6673 -0.5083
12651SOL    HW147883  11.036   1.297  13.142 -0.1952  0.8696 -0.5596
12651SOL    HW247884  11.037   1.427  13.064  1.0258  0.7881 -0.7080
12652SOL     OW47885   0.588  11.386   6.831 -0.2453 -0.1669 -0.6448
12652SOL    HW147886   0.522  11.333   6.877 -1.8267  2.5426  0.4369
12652SOL    HW247887   0.553  11.398   6.743 -1.0053  0.8414 -0.2251
12653SOL     OW47888   9.077   9.950   3.379 -0.3478 -0.5668  0.0327
12653SOL    HW147889   9.057   9.882   3.443  0.5211 -0.2785  0.6182
12653SOL    HW247890   9.133  10.011   3.425  3.2968 -2.1243 -1.8946
12654SOL     OW47891  12.533  10.759   0.261  0.3291 -0.3311  0.2923
12654SOL    HW147892  12.542  10.854   0.249 -2.0425 -0.2008 -1.0976
12654SOL    HW247893  12.449  10.748   0.307 -0.0350 -1.7812 -0.6541
12655SOL     OW47894   6.561   5.696   0.412 -0.2443  0.6289  0.4176
12655SOL    HW147895   6.472   5.704   0.377  0.0667  0.2647 -0.4899
12655SOL    HW247896   6.549   5.670   0.503 -1.0730 -0.6317 -0.0159
12656SOL     OW47897  10.786   5.592   1.226  0.3553 -0.3247  0.3542
12656SOL    HW147898  10.878   5.614   1.220  1.0500 -2.6613  1.1769
12656SOL    HW247899  10.783   5.516   1.285 -2.2563  0.5486  1.4944
12657SOL     OW47900   3.018   9.148   4.326 -0.0831  0.6145 -0.3358
12657SOL    HW147901   3.021   9.132   4.420 -1.9009  0.0986 -0.3355
12657SOL    HW247902   3.045   9.065   4.286  0.0405  0.6255 -0.2734
12658SOL     OW47903  12.920   2.034   2.471 -0.4795  0.3780 -0.2874
12658SOL    HW147904  12.999   2.032   2.417 -1.2746  2.1110 -1.6052
12658SOL    HW247905  12.931   2.111   2.527 -1.0423  0.3981 -0.1948
12659SOL     OW47906   2.001  10.390  12.667  0.3615 -0.5275 -0.3411
12659SOL    HW147907   1.934  10.323  12.680  0.5608 -0.4478  1.3946
12659SOL    HW247908   2.022  10.420  12.756  3.3238 -1.1793 -0.7050
12660SOL     OW47909   7.383  11.285   9.977 -0.4402  0.0037 -0.4164
12660SOL    HW147910   7.304  11.340   9.980  0.5886  1.5429 -0.6123
12660SOL    HW247911   7.352  11.200   9.944 -1.3619  1.8483 -5.0970
12661SOL     OW47912  10.170   3.224   2.167 -0.2851 -0.1562  0.0451
12661SOL    HW147913  10.159   3.312   2.129  2.1013 -0.4302 -1.5236
12661SOL    HW247914  10.154   3.164   2.094 -0.9943 -0.9945  0.8707
12662SOL     OW47915   7.916   0.796   1.136 -0.4492  0.5051  0.1522
12662SOL    HW147916   7.962   0.716   1.109 -0.6713 -0.1990  1.7751
12662SOL    HW247917   7.892   0.781   1.227 -1.4382  2.0104  0.1774
12663SOL     OW47918   5.257   3.279   8.340  0.6796 -0.0891 -0.8778
12663SOL    HW147919   5.194   3.301   8.409  1.8752 -2.0637  0.9860
12663SOL    HW247920   5.202   3.253   8.266 -0.7166 -0.5133  0.2482
12664SOL     OW47921  10.603   1.323  12.347 -0.4396  0.7294 -0.4107
12664SOL    HW147922  10.615   1.379  12.424 -1.2285  0.3331  0.0066
12664SOL    HW247923  10.621   1.234  12.379  0.8466  0.7254 -1.0807
12665SOL     OW47924  11.471   5.040   1.946  0.0674  0.6245  0.0546
12665SOL    HW147925  11.430   5.079   2.024  1.1640  1.2503  0.3418
12665SOL    HW247926  11.443   4.948   1.948  0.8027  0.4018  1.7116
12666SOL     OW47927   4.116   1.543   3.917  0.6659 -0.2553  0.1057
12666SOL    HW147928   4.103   1.449   3.910  2.7819 -1.0937  4.3241
12666SOL    HW247929   4.200   1.560   3.875  0.7193 -0.3968  0.1564
12667SOL     OW47930   0.118   8.463   5.590 -0.3177  0.0556 -0.0868
12667SOL    HW147931   0.100   8.370   5.601 -0.5226  0.1863  0.7375
12667SOL    HW247932   0.060   8.506   5.652  1.9805  0.5680  1.8226
12668SOL     OW47933   3.104   3.873  10.599  0.3385 -0.2522  0.3508
12668SOL    HW147934   3.140   3.852  10.513  0.4168  1.3464 -0.0320
12668SOL    HW247935   3.107   3.968  10.604 -0.6622 -0.2614  1.7010
12669SOL     OW47936   8.142   8.447  10.389 -0.1532 -0.5535 -0.3864
12669SOL    HW147937   8.221   8.447  10.443 -0.4533  1.6818  0.1706
12669SOL    HW247938   8.173   8.427  10.301  1.1554  0.7216 -0.2588
12670SOL     OW47939   8.162  10.562   8.574 -0.3175 -0.2983 -0.0582
12670SOL    HW147940   8.190  10.478   8.610 -0.8420  0.2828  1.8121
12670SOL    HW247941   8.094  10.593   8.634 -0.0358  1.5383 -0.6109
12671SOL     OW47942   8.771   7.401   7.785 -0.0291 -0.0019  0.2598
12671SOL    HW147943   8.810   7.481   7.748  0.8882  0.3339  1.8564
12671SOL    HW247944   8.676   7.417   7.782 -0.0908 -0.4399 -2.8173
12672SOL     OW47945   4.952   7.593   1.946  0.3816  0.4552 -0.1068
12672SOL    HW147946   4.936   7.685   1.924  0.6524  0.5992  0.2855
12672SOL    HW247947   5.037   7.593   1.989 -0.1482  0.1981  0.9745
12673SOL     OW47948   0.188  10.262   9.818  0.3082  0.0546  0.1367
12673SOL    HW147949   0.221  10.306   9.739  1.4946 -1.3609 -0.2020
12673SOL    HW247950   0.258  10.274   9.882  0.3569 -0.7722  0.2426
12674SOL     OW47951   6.033   9.496   3.101  0.3374 -0.6885  0.1196
12674SOL    HW147952   6.096   9.568   3.094  0.2157 -0.7450 -3.4190
12674SOL    HW247953   5.957   9.535   3.146  1.4000  0.4915  0.9541
12675SOL     OW47954   3.022   0.636   4.858  0.4737  0.2435 -0.5981
12675SOL    HW147955   3.096   0.611   4.912  0.2118 -0.4065 -0.5290
12675SOL    HW247956   2.964   0.560   4.859  0.7140  0.0028 -2.2248
12676SOL     OW47957  10.928   5.600  11.659 -0.2714 -0.2472  0.4770
12676SOL    HW147958  10.943   5.655  11.736  0.6493 -2.1613  1.7440
12676SOL    HW247959  10.858   5.540  11.685 -0.5264 -0.3887 -0.4794
12677SOL     OW47960   3.918   0.891   5.636 -0.4870 -0.0076  0.0759
12677SOL    HW147961   3.927   0.801   5.604 -0.7580  0.2080 -0.6431
12677SOL    HW247962   4.002   0.932   5.616  0.2911 -0.5763  2.0385
12678SOL     OW47963  10.695   9.374   3.355 -0.0979 -0.4166 -0.6018
12678SOL    HW147964  10.693   9.279   3.345 -1.3238 -0.3570 -1.0613
12678SOL    HW247965  10.662   9.389   3.444 -0.6483 -0.3914 -0.8075
12679SOL     OW47966   4.030  10.027   5.499 -0.2342 -0.2457  0.2905
12679SOL    HW147967   4.059   9.938   5.517  0.1556  0.2526  2.2830
12679SOL    HW247968   3.986  10.055   5.579  1.5210  2.1043  0.5348
12680SOL     OW47969   5.648   1.789  10.871  0.6297 -0.2958  0.0750
12680SOL    HW147970   5.566   1.833  10.892  0.2208 -0.8465 -0.3572
12680SOL    HW247971   5.716   1.848  10.904  0.0705  0.2861  0.1963
12681SOL     OW47972   6.099   5.112  10.797  0.4490  0.1605  0.5155
12681SOL    HW147973   6.102   5.184  10.735 -0.9192 -0.5419 -0.4152
12681SOL    HW247974   6.119   5.034  10.745 -1.0789 -0.4839  0.8242
12682SOL     OW47975   1.980   8.274   6.465 -0.2005 -0.1003  0.2355
12682SOL    HW147976   2.042   8.268   6.392 -1.4798 -0.2311 -0.8811
12682SOL    HW247977   2.032   8.309   6.538  0.6452  2.2359 -1.3515
12683SOL     OW47978  11.196  10.295   4.174 -0.0688 -0.3447 -0.5685
12683SOL    HW147979  11.266  10.354   4.202  0.6660 -1.3531 -0.2473
12683SOL    HW247980  11.222  10.267   4.086 -0.5360 -0.0149 -0.8157
12684SOL     OW47981   8.407   9.798   6.372 -0.1690  0.5614 -0.2965
12684SOL    HW147982   8.492   9.774   6.411  1.7652  2.6464 -2.8453
12684SOL    HW247983   8.415   9.770   6.281 -1.1640  3.0197 -1.2114
12685SOL     OW47984   3.991  12.289  10.722 -0.5104 -0.1653  0.0083
12685SOL    HW147985   3.961  12.199  10.708  1.2618 -0.8319  0.2111
12685SOL    HW247986   3.935  12.323  10.791 -2.0619 -0.6448 -0.9658
12686SOL     OW47987  10.049   6.789  13.262 -0.0615  0.2594  0.1008
12686SOL    HW147988  10.067   6.865  13.317 -0.6032  0.2818  0.2477
12686SOL    HW247989   9.964   6.757  13.292 -0.4047  0.3239 -0.7681
12687SOL     OW47990   6.713   4.491   9.740 -0.2530 -0.4770 -0.0070
12687SOL    HW147991   6.764   4.568   9.766 -0.2038 -0.1821 -0.9556
12687SOL    HW247992   6.626   4.525   9.721 -0.4351 -0.7758  0.2794
12688SOL     OW47993   2.879  10.638   1.824 -0.3361  0.6394  0.3620
12688SOL    HW147994   2.916  10.600   1.744 -1.0248 -0.5736  0.5892
12688SOL    HW247995   2.827  10.712   1.794 -2.7508 -1.3529 -0.6657
12689SOL     OW47996   3.725   6.318   3.576  0.0224  0.1214  0.0970
12689SOL    HW147997   3.774   6.399   3.592 -0.1558 -0.2507  3.1310
12689SOL    HW247998   3.731   6.305   3.482  2.3874  2.1874 -0.1544
12690SOL     OW47999   7.432  10.443   3.805 -0.1521  0.3742  0.0755
12690SOL    HW148000   7.476  10.523   3.833 -0.2964 -0.0311  1.5283
12690SOL    HW248001   7.500  10.376   3.807  0.0696  0.5070 -1.5431
12691SOL     OW48002   7.495   9.436   7.809  0.0246 -0.5660 -0.3324
12691SOL    HW148003   7.437   9.437   7.885  0.8430 -0.1461  0.3104
12691SOL    HW248004   7.521   9.344   7.801  0.3530 -0.5322  0.2376
12692SOL     OW48005   1.414   0.497   0.784 -0.4009  0.4573  1.1988
12692SOL    HW148006   1.362   0.417   0.773  1.9371 -0.9454 -0.6458
12692SOL    HW248007   1.400   0.546   0.703  0.4248  0.4808  1.0598
12693SOL     OW48008   1.176   2.027   5.454  0.1390  0.1746 -0.5179
12693SOL    HW148009   1.256   1.982   5.481  0.7862  0.4308 -1.9278
12693SOL    HW248010   1.187   2.116   5.487  1.7688  1.0039 -3.0076
12694SOL     OW48011   6.764  10.042   6.903  0.1315  0.1569  0.7451
12694SOL    HW148012   6.765   9.972   6.839 -0.5436  0.5515  0.2883
12694SOL    HW248013   6.833  10.102   6.875  1.3022 -0.7369  1.6300
12695SOL     OW48014   2.998  13.120   5.317 -0.5596  0.4868 -0.4085
12695SOL    HW148015   3.066  13.070   5.362 -2.0988 -1.1082  0.2428
12695SOL    HW248016   3.033  13.133   5.229  0.6672 -0.1388 -0.0388
12696SOL     OW48017  12.625   7.038   8.989  0.1009  0.3239 -0.5666
12696SOL    HW148018  12.649   7.082   9.070 -2.8590 -0.8858  1.1425
12696SOL    HW248019  12.556   7.093   8.952 -0.0657 -0.2443 -1.1082
12697SOL     OW48020   8.890  12.479   6.155  0.1931 -0.1631  0.6763
12697SOL    HW148021   8.800  12.459   6.183 -0.7336  1.4111 -0.9349
12697SOL    HW248022   8.918  12.551   6.211  0.4331 -0.5825  1.1053
12698SOL     OW48023   8.256   5.849  12.634  0.3320  0.1847 -0.2434
12698SOL    HW148024   8.308   5.924  12.663 -0.6692 -0.2973  3.3319
12698SOL    HW248025   8.298   5.773  12.677 -2.3296 -0.3789  1.6546
12699SOL     OW48026   9.231   7.508   6.543  0.1384 -0.4898  0.0001
12699SOL    HW148027   9.176   7.443   6.587  0.3681  0.1481  1.2705
12699SOL    HW248028   9.288   7.457   6.487 -0.2792 -1.3207  0.3103
12700SOL     OW48029  11.100   6.470   7.003  0.2326  0.3145  0.2214
12700SOL    HW148030  11.046   6.514   7.069  0.8601  0.8188  0.3994
12700SOL    HW248031  11.172   6.530   6.986  1.1344 -0.6503  0.5030
12701SOL     OW48032   1.283   8.427  11.145 -0.1906 -0.2742  0.6077
12701SOL    HW148033   1.334   8.448  11.067 -0.9652  0.3931  0.2656
12701SOL    HW248034   1.198   8.399  11.111 -0.0657 -1.3971  1.1686
12702SOL     OW48035   2.747   5.594  12.990 -0.1847 -0.7318  0.3917
12702SOL    HW148036   2.668   5.625  12.945 -0.1365 -1.4224 -0.1960
12702SOL    HW248037   2.818   5.611  12.928  0.0374 -0.7025  0.6549
12703SOL     OW48038   7.202   8.171   9.302 -0.2527 -0.6208  0.2695
12703SOL    HW148039   7.112   8.202   9.290  0.1263  0.1254 -0.7902
12703SOL    HW248040   7.198   8.078   9.281 -0.4357 -0.2089 -1.7320
12704SOL     OW48041   0.511   9.238   9.425  0.4404 -0.2960 -0.0007
12704SOL    HW148042   0.569   9.162   9.435  2.1771  1.0692  0.8631
12704SOL    HW248043   0.496   9.245   9.331 -0.6679 -2.3291 -0.0265
12705SOL     OW48044   3.735   3.664   5.101 -0.1067 -0.0312 -0.4447
12705SOL    HW148045   3.721   3.707   5.017 -0.2821 -2.1489 -1.5365
12705SOL    HW248046   3.664   3.698   5.157  0.5070  2.0307 -0.8262
12706SOL     OW48047  10.613  11.536  13.306 -0.1013 -0.3825 -0.1874
12706SOL    HW148048  10.694  11.509  13.349  0.2645  0.0794 -0.5702
12706SOL    HW248049  10.599  11.627  13.335 -1.4208 -1.0046  1.2407
12707SOL     OW48050  11.371   5.582   6.114  0.2874 -0.6155 -0.2696
12707SOL    HW148051  11.330   5.589   6.028 -0.4321 -0.7262  0.0507
12707SOL    HW248052  11.380   5.672   6.144  1.6973 -0.4995 -0.9737
12708SOL     OW48053  10.764   2.127   0.785  0.4262 -0.3005 -0.0523
12708SOL    HW148054  10.682   2.151   0.827  0.3604 -0.2124 -0.2300
12708SOL    HW248055  10.797   2.209   0.748  0.0169 -0.5507 -0.9854
12709SOL     OW48056   9.584   0.172   3.594 -0.7400 -0.2092  0.1557
12709SOL    HW148057   9.540   0.248   3.631  0.9089  0.0305  1.7590
12709SOL    HW248058   9.549   0.098   3.642 -1.1095 -0.2796 -0.2207
12710SOL     OW48059  11.346   6.143   4.447  0.8052  0.9255  0.4369
12710SOL    HW148060  11.393   6.093   4.381  0.5297  0.7947  0.3405
12710SOL    HW248061  11.255   6.144   4.417 -0.0092 -1.8895  2.4032
12711SOL     OW48062   0.262   3.578   2.985  0.0577  0.4607  0.0348
12711SOL    HW148063   0.249   3.662   2.940  0.0387  1.1764  1.3459
12711SOL    HW248064   0.184   3.567   3.038 -0.0699 -0.5484 -0.3435
12712SOL     OW48065   9.878  10.579   0.852 -0.2493  0.5602  0.2805
12712SOL    HW148066   9.826  10.616   0.923  1.0912 -0.6483  1.9720
12712SOL    HW248067   9.943  10.646   0.832  0.5758  0.1825  1.5745
12713SOL     OW48068   4.039   3.382  10.797 -0.2688 -0.1862 -0.2244
12713SOL    HW148069   4.059   3.464  10.842 -0.1150 -0.3398 -0.0103
12713SOL    HW248070   4.124   3.346  10.772 -0.3541 -0.0716 -0.6979
12714SOL     OW48071   6.415   8.012   4.576  0.1278  0.6632  0.0159
12714SOL    HW148072   6.325   8.043   4.578 -0.4386 -0.3642 -2.9192
12714SOL    HW248073   6.407   7.916   4.579  1.0787  0.5511 -0.5710
12715SOL     OW48074   9.599  11.994   8.690 -0.2266 -0.2115  0.6314
12715SOL    HW148075   9.686  12.004   8.727  0.5847  1.5618 -1.5234
12715SOL    HW248076   9.550  12.071   8.722 -1.1959 -1.3915  2.1440
12716SOL     OW48077   5.443   4.160  12.538  0.7268 -0.3958 -0.7677
12716SOL    HW148078   5.420   4.193  12.451  0.7865  0.2591 -0.5411
12716SOL    HW248079   5.521   4.105  12.523 -0.3975 -1.8852 -1.4003
12717SOL     OW48080  11.588  11.774   0.724 -0.4089 -0.6591  0.1873
12717SOL    HW148081  11.570  11.830   0.799 -0.7157  2.6918 -2.1598
12717SOL    HW248082  11.669  11.809   0.687 -1.0471 -1.2325 -1.8894
12718SOL     OW48083  12.018   2.962   2.556 -0.2716 -0.3282  0.0255
12718SOL    HW148084  12.084   3.018   2.597 -0.6397 -0.4403  0.7993
12718SOL    HW248085  12.053   2.873   2.566 -0.9519 -0.4832  1.3014
12719SOL     OW48086   0.779  11.500   0.384  0.0483  0.7269  0.1316
12719SOL    HW148087   0.808  11.436   0.318 -0.1793  0.1577  0.5769
12719SOL    HW248088   0.683  11.494   0.383  0.0204  1.1438  0.0999
12720SOL     OW48089   4.494   4.379   6.114  0.2004 -0.6045  0.1186
12720SOL    HW148090   4.506   4.288   6.090  3.7701  0.1892 -1.8144
12720SOL    HW248091   4.442   4.417   6.043 -1.2521 -1.0151  0.9050
12721SOL     OW48092  11.445   2.487  10.403 -0.5180 -0.3988  0.1943
12721SOL    HW148093  11.459   2.403  10.358 -2.4734 -0.8018  0.2054
12721SOL    HW248094  11.524   2.501  10.454 -0.2001 -2.3273  0.3161
12722SOL     OW48095  12.382  11.274   4.423 -0.1402  0.1526 -0.3578
12722SOL    HW148096  12.298  11.299   4.461  0.9337  2.4924  0.6762
12722SOL    HW248097  12.445  11.285   4.494  1.2088 -0.5341 -1.3906
12723SOL     OW48098   4.369   0.212   0.451  0.3080 -0.1670  0.4361
12723SOL    HW148099   4.412   0.134   0.417  1.3073  0.2252  0.7536
12723SOL    HW248100   4.303   0.179   0.512 -0.6453 -0.8232 -0.9083
12724SOL     OW48101   7.115  12.934  11.775  0.0489  0.0580 -0.2282
12724SOL    HW148102   7.195  12.925  11.724  0.3376  0.1218  0.2132
12724SOL    HW248103   7.076  12.846  11.775  0.3813 -0.0923 -0.0172
12725SOL     OW48104   7.988  10.778   9.631  0.5360  0.1040 -0.6795
12725SOL    HW148105   7.957  10.732   9.709 -1.1425 -0.3884 -1.5806
12725SOL    HW248106   8.055  10.838   9.663 -1.0046  0.8419  1.3849
12726SOL     OW48107   5.739   5.353   8.796  0.4996 -0.0556 -0.6865
12726SOL    HW148108   5.689   5.283   8.753 -0.2248 -1.3675  2.0639
12726SOL    HW248109   5.791   5.391   8.726 -1.8072 -0.8910 -3.0421
12727SOL     OW48110   3.710   9.031   6.390 -0.1539  0.3824  0.7294
12727SOL    HW148111   3.736   9.051   6.479 -0.8593  0.2289  0.9783
12727SOL    HW248112   3.723   8.936   6.382 -0.4853  0.3310  0.8034
12728SOL     OW48113   6.706   0.981   5.313  0.2516 -0.1131 -0.5281
12728SOL    HW148114   6.611   0.986   5.308  0.2195 -0.6209 -0.4114
12728SOL    HW248115   6.728   0.890   5.293  0.8273  0.3321 -2.1298
12729SOL     OW48116   2.699   4.952   1.524 -0.4251 -0.4442  0.9978
12729SOL    HW148117   2.622   4.898   1.540  0.6855 -1.9308  1.4983
12729SOL    HW248118   2.725   4.982   1.611 -0.1922 -0.2802  0.8720
12730SOL     OW48119  12.288   9.232  11.717  0.2644 -0.4046 -0.1097
12730SOL    HW148120  12.229   9.256  11.789  0.8081 -1.0865  0.5818
12730SOL    HW248121  12.313   9.141  11.736  2.2742  0.1537  0.1281
12731SOL     OW48122   1.261   0.595   5.692  0.3831 -0.4603 -0.2560
12731SOL    HW148123   1.327   0.664   5.681  0.9501 -0.9497 -0.0165
12731SOL    HW248124   1.209   0.623   5.767 -0.9479  0.9011 -1.6384
12732SOL     OW48125   1.422   0.647   2.309 -0.0704  0.6715  0.0541
12732SOL    HW148126   1.403   0.578   2.245 -1.6894 -0.2051  1.3853
12732SOL    HW248127   1.496   0.695   2.272 -0.4311 -0.2882 -2.0687
12733SOL     OW48128  12.417   3.916   1.766  0.3162  0.4114 -0.1148
12733SOL    HW148129  12.344   3.914   1.828  0.6837  1.9962  0.4191
12733SOL    HW248130  12.392   3.982   1.701  0.4386 -0.4208 -1.0281
12734SOL     OW48131   0.040   4.916   9.317 -0.5536  0.6322 -0.9113
12734SOL    HW148132   0.055   4.992   9.374 -1.2262  0.3852 -0.3962
12734SOL    HW248133  -0.046   4.931   9.279 -0.8387 -0.0454 -0.5357
12735SOL     OW48134   9.164   3.577  12.191 -0.1025 -0.3519  0.2946
12735SOL    HW148135   9.176   3.592  12.098  0.2110  5.2417  0.8490
12735SOL    HW248136   9.244   3.535  12.220  1.4274  1.1292 -1.5260
12736SOL     OW48137  10.856  12.163   6.658 -0.1650  0.3539 -0.5753
12736SOL    HW148138  10.862  12.251   6.620 -0.2783  0.7800  0.3765
12736SOL    HW248139  10.768  12.133   6.634 -0.6100  1.0179  0.1600
12737SOL     OW48140  12.506  12.182   5.787 -0.0179  0.1149 -0.3839
12737SOL    HW148141  12.515  12.271   5.821 -0.2343  0.6134 -1.5617
12737SOL    HW248142  12.478  12.130   5.862  0.3300  0.9900  0.3809
12738SOL     OW48143   0.542   0.225   5.725 -0.3675 -0.0730 -0.6290
12738SOL    HW148144   0.573   0.278   5.652  2.3039  0.8677  1.0096
12738SOL    HW248145   0.537   0.287   5.798 -1.9379 -1.1775  0.2600
12739SOL     OW48146   0.824   2.832   6.323 -0.3939  0.2972 -0.2303
12739SOL    HW148147   0.780   2.917   6.325 -1.7842 -0.4004  0.0195
12739SOL    HW248148   0.889   2.837   6.394  1.2795  2.0004 -1.7695
12740SOL     OW48149   9.598   6.464   4.490  0.1223  0.1222 -0.0327
12740SOL    HW148150   9.629   6.373   4.495 -2.5429 -0.8675 -0.3443
12740SOL    HW248151   9.662   6.508   4.433  0.2650 -2.1088 -1.7151
12741SOL     OW48152   2.454   5.094   8.263  0.1396  0.0060  0.4232
12741SOL    HW148153   2.461   5.014   8.316 -0.5521 -0.3001  0.0651
12741SOL    HW248154   2.374   5.082   8.212  0.9270  0.1839 -0.9024
12742SOL     OW48155   5.800   9.556   4.140 -0.8536 -0.7827  0.3626
12742SOL    HW148156   5.728   9.509   4.097 -0.8940  0.0024 -0.4523
12742SOL    HW248157   5.819   9.629   4.082  0.0435 -0.4957  0.9982
12743SOL     OW48158   1.938   3.512   5.686 -0.1692 -0.1655 -0.5335
12743SOL    HW148159   1.938   3.507   5.781  1.2375 -0.7516 -0.5435
12743SOL    HW248160   2.010   3.571   5.664  0.5139 -1.2308 -1.2623
12744SOL     OW48161   9.336  12.126   0.688  0.4405  0.2146  0.4669
12744SOL    HW148162   9.315  12.116   0.781 -1.3603 -1.0813 -0.0389
12744SOL    HW248163   9.382  12.045   0.666  0.2197  0.1985  0.0636
12745SOL     OW48164   1.968  12.235   8.791  0.7503  0.5035  0.1194
12745SOL    HW148165   1.964  12.182   8.871 -0.1707 -0.0564 -0.2886
12745SOL    HW248166   1.933  12.178   8.722  1.3684  1.0403 -0.6572
12746SOL     OW48167   2.322  12.128   1.443 -0.2285  0.3732  0.5854
12746SOL    HW148168   2.371  12.195   1.490  0.6936  0.0100  0.1729
12746SOL    HW248169   2.296  12.169   1.361  0.2734  0.2623  0.3646
12747SOL     OW48170   1.603   4.231   5.024  0.1265 -0.2371  0.2831
12747SOL    HW148171   1.676   4.193   4.976  0.6529 -0.4915  1.2591
12747SOL    HW248172   1.545   4.265   4.956  1.4760  0.5940 -0.5115
12748SOL     OW48173   7.577   2.662   7.605  0.0920  0.2695 -0.3809
12748SOL    HW148174   7.627   2.698   7.677  1.5994  0.1745 -1.3279
12748SOL    HW248175   7.492   2.705   7.610  0.5657  1.1110  0.7460
12749SOL     OW48176  12.555   9.368  11.677 -0.0294 -0.2545  0.1665
12749SOL    HW148177  12.557   9.339  11.586 -0.3231  1.0226 -0.2541
12749SOL    HW248178  12.462   9.363  11.702 -0.0931  0.3619  0.0696
12750SOL     OW48179  12.026  10.900   1.189  0.1588  0.2019  0.1506
12750SOL    HW148180  12.102  10.932   1.237  2.2205 -0.2210 -2.6177
12750SOL    HW248181  11.957  10.892   1.255  2.2282  1.4733  2.5988
12751SOL     OW48182  10.253   9.388   8.758  0.2168 -0.4729 -0.0272
12751SOL    HW148183  10.257   9.368   8.852 -1.2866  0.8189  0.3476
12751SOL    HW248184  10.173   9.439   8.748 -0.0191 -1.1846 -2.1487
12752SOL     OW48185   8.401  12.080   9.000  0.9212  1.0684  0.5160
12752SOL    HW148186   8.419  12.051   9.090  0.3694  0.8268  0.5579
12752SOL    HW248187   8.310  12.109   9.003  0.6856  0.4320 -0.1148
12753SOL     OW48188   6.577   6.798   5.067  0.3839 -0.0233  0.1422
12753SOL    HW148189   6.490   6.797   5.028  1.0754  0.9939 -1.5432
12753SOL    HW248190   6.597   6.891   5.081  0.6970 -0.3016  1.7483
12754SOL     OW48191   4.332   4.533   0.997 -0.0821  0.3338 -0.2111
12754SOL    HW148192   4.303   4.576   1.078 -0.5318 -1.2850  0.5248
12754SOL    HW248193   4.384   4.459   1.027 -0.2549 -0.2945 -1.4224
12755SOL     OW48194   3.427   0.247   4.742 -0.8598  0.8551  0.6614
12755SOL    HW148195   3.416   0.290   4.826 -0.4779  2.4329 -0.0645
12755SOL    HW248196   3.375   0.299   4.680 -2.3346 -1.1014  0.1261
12756SOL     OW48197   7.678   2.777   3.551 -0.5708  0.7372  0.4737
12756SOL    HW148198   7.704   2.789   3.642 -3.0152  2.7244  1.0440
12756SOL    HW248199   7.642   2.688   3.548 -0.7185  0.7416  1.5539
12757SOL     OW48200   1.764   2.402   2.019 -0.0058  0.3743  0.3327
12757SOL    HW148201   1.727   2.426   2.105  1.2080 -0.8425  1.2312
12757SOL    HW248202   1.855   2.379   2.038  0.2829  0.0714 -1.3004
12758SOL     OW48203   6.581   6.369   7.337 -0.4568  0.1240  0.7005
12758SOL    HW148204   6.606   6.448   7.290  0.7692 -0.1778  0.8231
12758SOL    HW248205   6.582   6.299   7.271  0.8767 -0.2262  1.0687
12759SOL     OW48206   2.785   6.629   5.035  0.3329 -0.0840  0.1259
12759SOL    HW148207   2.794   6.644   5.130 -0.1989 -0.1471  0.1873
12759SOL    HW248208   2.854   6.684   4.996  0.6601 -0.1795  0.5547
12760SOL     OW48209   0.141   8.750   3.916  0.1236 -0.2372 -0.0480
12760SOL    HW148210   0.086   8.719   3.844 -0.3099  2.2359 -0.9164
12760SOL    HW248211   0.229   8.750   3.880  0.2563 -1.2101  0.2540
12761SOL     OW48212   1.240   1.679   9.073 -0.1454  0.2727  0.0821
12761SOL    HW148213   1.280   1.609   9.125  0.5507  0.1825 -0.5570
12761SOL    HW248214   1.314   1.726   9.035 -0.6310  0.6970 -0.3522
12762SOL     OW48215   3.811  11.087   4.306 -0.0740 -0.0998  0.5229
12762SOL    HW148216   3.813  11.040   4.389  0.6630 -0.7684  0.1386
12762SOL    HW248217   3.875  11.042   4.251 -1.4484 -0.4789 -0.8426
12763SOL     OW48218   3.747   7.330   1.610  0.3024 -0.1588  0.5289
12763SOL    HW148219   3.731   7.345   1.517 -0.5962  1.0519  0.8405
12763SOL    HW248220   3.842   7.322   1.618  0.3860 -0.2914 -0.4819
12764SOL     OW48221   0.481   9.953   6.004  0.3948  0.3804 -0.3861
12764SOL    HW148222   0.568   9.936   6.039  0.5864  1.1528 -0.4737
12764SOL    HW248223   0.423   9.896   6.054  0.5589  1.9585  1.6920
12765SOL     OW48224   2.340   7.088   6.247 -0.0808 -0.5006 -0.3349
12765SOL    HW148225   2.370   6.999   6.232  0.5740 -0.6718  1.6675
12765SOL    HW248226   2.329   7.094   6.342 -0.7710  1.3550 -0.4827
12766SOL     OW48227   4.454   9.801  11.296 -0.1955 -0.5787  0.0905
12766SOL    HW148228   4.443   9.706  11.302 -2.8778 -0.3160  0.6757
12766SOL    HW248229   4.412   9.835  11.376 -2.1838  1.2029 -1.5727
12767SOL     OW48230   2.360   9.831  11.798 -0.3411 -0.4419  0.2833
12767SOL    HW148231   2.446   9.821  11.839 -1.0905 -2.0546  1.5588
12767SOL    HW248232   2.321   9.907  11.841  0.1406 -0.1586  0.2242
12768SOL     OW48233   1.270   1.330  10.222  0.0305  0.0879  0.5183
12768SOL    HW148234   1.204   1.349  10.288 -2.2044  1.3124 -1.8838
12768SOL    HW248235   1.347   1.379  10.250 -0.6403  0.0894  2.4823
12769SOL     OW48236   3.973   3.365   0.083 -0.0665  0.4440 -0.1909
12769SOL    HW148237   3.993   3.426   0.012  0.7683  0.6279  0.1956
12769SOL    HW248238   4.054   3.315   0.094 -0.5431 -0.3234 -0.0910
12770SOL     OW48239   9.885   1.286   1.945  0.3385  0.4274  0.0270
12770SOL    HW148240   9.815   1.296   1.880  0.6421 -1.1054 -0.5731
12770SOL    HW248241   9.963   1.320   1.901  0.7650 -1.5951 -0.8706
12771SOL     OW48242  12.060   6.005   1.346  0.0082 -0.0066 -0.2509
12771SOL    HW148243  11.994   6.014   1.415  0.2266  0.2003 -0.0665
12771SOL    HW248244  12.124   5.943   1.382 -1.1096 -1.8372 -1.2218
12772SOL     OW48245   7.302  11.002   6.404 -0.2539 -0.4931  0.4725
12772SOL    HW148246   7.302  10.907   6.390 -0.0240 -0.7481  2.0839
12772SOL    HW248247   7.214  11.030   6.379 -1.9356 -1.8534  4.2052
12773SOL     OW48248   0.915   0.729   6.301  0.1253  0.3359 -0.0306
12773SOL    HW148249   0.945   0.639   6.293  1.0659  0.6088  0.3154
12773SOL    HW248250   0.905   0.759   6.210 -1.7615 -0.5991 -0.1716
12774SOL     OW48251   4.159   9.615   1.929 -0.5237  0.3339 -0.1664
12774SOL    HW148252   4.204   9.536   1.899  0.1513  0.4319  0.5360
12774SOL    HW248253   4.129   9.658   1.850 -0.8794 -0.6128 -0.5632
12775SOL     OW48254   4.193  12.559  13.130  0.6741 -0.1351 -0.2789
12775SOL    HW148255   4.269  12.509  13.162  0.3027 -1.3088 -1.1367
12775SOL    HW248256   4.117  12.512  13.164  0.2486  2.1625  2.2763
12776SOL     OW48257   2.134   5.705   9.984  0.6423 -0.3293  0.1724
12776SOL    HW148258   2.089   5.748  10.056  2.5614  1.1367  0.5844
12776SOL    HW248259   2.220   5.747   9.981  0.8914 -0.8572 -2.5064
12777SOL     OW48260   3.698   6.460  12.121 -0.0957  0.1719  0.8778
12777SOL    HW148261   3.653   6.455  12.036  1.6060  0.2585 -0.0662
12777SOL    HW248262   3.737   6.548  12.122 -0.3438  0.2791  1.8886
12778SOL     OW48263   2.270   3.484   7.763  0.4075  0.0589  0.3520
12778SOL    HW148264   2.354   3.526   7.784  0.7160 -0.2119 -0.2996
12778SOL    HW248265   2.282   3.392   7.786  0.3024  0.0150  0.2347
12779SOL     OW48266   0.763  11.402  10.779  0.4102 -0.7693  0.3971
12779SOL    HW148267   0.824  11.387  10.707  0.6547 -2.6276  0.9392
12779SOL    HW248268   0.713  11.320  10.786 -1.7327  0.4604  0.3854
12780SOL     OW48269   5.641   7.849  10.025  0.5677  0.0996  0.2707
12780SOL    HW148270   5.608   7.805   9.946 -0.8558  1.8068 -0.1455
12780SOL    HW248271   5.572   7.838  10.090  0.3539  1.3713  0.2752
12781SOL     OW48272   3.944   0.250   1.892  0.2475 -0.0655 -0.2155
12781SOL    HW148273   3.855   0.248   1.928  0.7893  0.7723  1.2403
12781SOL    HW248274   3.956   0.340   1.862  0.1936 -0.4857 -1.5546
12782SOL     OW48275   9.028  12.698   0.390  0.0326  0.5369  0.5557
12782SOL    HW148276   8.998  12.657   0.310  0.5237  1.3387 -0.0572
12782SOL    HW248277   9.124  12.700   0.382  0.0126  4.0991 -0.6973
12783SOL     OW48278  11.634  12.164   7.898 -0.1076  0.3338  0.3780
12783SOL    HW148279  11.545  12.147   7.930  0.4280 -1.6946  0.9261
12783SOL    HW248280  11.624  12.175   7.803 -0.8581 -0.7064  0.3222
12784SOL     OW48281   8.235  13.194   1.632  0.1926 -0.1015 -0.8264
12784SOL    HW148282   8.154  13.245   1.627 -0.2232 -0.5801  0.5754
12784SOL    HW248283   8.265  13.188   1.541 -3.0315 -2.5896 -1.9060
12785SOL     OW48284   5.173   2.338   4.016  0.1821  0.0155  0.1624
12785SOL    HW148285   5.217   2.330   3.932  0.6055 -1.9318  0.5199
12785SOL    HW248286   5.241   2.321   4.081 -0.7646 -1.6262  0.7773
12786SOL     OW48287  12.630   7.499  12.605 -0.1709 -0.2000  0.1575
12786SOL    HW148288  12.609   7.543  12.523 -0.9432  0.5383  0.7244
12786SOL    HW248289  12.725   7.500  12.610 -0.1473  1.8872  0.3628
12787SOL     OW48290  10.980   5.516   2.699  0.1703 -0.0046 -0.5226
12787SOL    HW148291  10.915   5.446   2.698 -1.7054  1.6488 -2.2710
12787SOL    HW248292  11.019   5.515   2.612  1.5603 -0.0749  0.0664
12788SOL     OW48293   4.695  11.148   0.038  0.1376 -0.3406 -0.5859
12788SOL    HW148294   4.608  11.181   0.020  0.3040 -0.5730 -1.9127
12788SOL    HW248295   4.696  11.132   0.133 -1.6876 -1.5759 -0.7286
12789SOL     OW48296  11.114  12.745   1.171  0.2184 -0.3474  0.0092
12789SOL    HW148297  11.180  12.795   1.218 -1.1808 -0.2860  2.0403
12789SOL    HW248298  11.157  12.662   1.150  1.3105  0.1627  0.1795
12790SOL     OW48299   9.084  10.731   3.986 -0.1968  0.5492  0.0912
12790SOL    HW148300   9.049  10.815   3.956 -1.2455  0.0539 -0.1094
12790SOL    HW248301   9.013  10.669   3.972  0.0207 -0.0958  1.6712
12791SOL     OW48302   4.822   0.702   1.930  0.0118 -0.1325  0.2281
12791SOL    HW148303   4.911   0.729   1.907 -0.5447  0.0562 -1.9058
12791SOL    HW248304   4.794   0.648   1.856 -2.5291  1.8191 -0.3390
12792SOL     OW48305   6.716  10.844   4.062  0.0483 -0.2486 -0.0617
12792SOL    HW148306   6.783  10.781   4.034  0.6760  0.1791  0.4708
12792SOL    HW248307   6.749  10.879   4.144 -0.2841  0.7994 -0.3680
12793SOL     OW48308   0.197  11.304  11.285  0.1505  0.2707 -0.0477
12793SOL    HW148309   0.172  11.395  11.304  0.7272  0.8294 -1.7891
12793SOL    HW248310   0.129  11.273  11.225  0.7028  0.0203 -0.5508
12794SOL     OW48311   9.285   7.955   4.969  0.5441 -0.4252 -0.1434
12794SOL    HW148312   9.297   8.010   4.892 -0.1187  0.0585  0.0922
12794SOL    HW248313   9.309   8.012   5.043 -2.1789  0.3212  0.2916
12795SOL     OW48314   3.913   6.356   4.547 -0.1233 -0.5092  0.8658
12795SOL    HW148315   3.872   6.337   4.463  1.9226  1.8320 -0.8258
12795SOL    HW248316   3.873   6.438   4.575  0.1837 -0.5669  1.4833
12796SOL     OW48317   0.086   3.597   6.088  0.1588 -0.1143 -0.0229
12796SOL    HW148318   0.074   3.640   6.003  2.3140  0.8083  0.0753
12796SOL    HW248319   0.117   3.510   6.067  0.8254  0.1603 -0.1987
12797SOL     OW48320   1.419   0.783  11.082  0.2317  0.1286 -0.2244
12797SOL    HW148321   1.490   0.725  11.112  0.2574 -0.3741 -1.2077
12797SOL    HW248322   1.347   0.766  11.142  0.0958 -1.2591 -0.7437
12798SOL     OW48323   6.502   9.516   0.039  0.3032  0.0114  0.1041
12798SOL    HW148324   6.420   9.561   0.061  0.3768 -0.0530  0.5294
12798SOL    HW248325   6.477   9.454  -0.029  0.1876  0.6462 -0.4393
12799SOL     OW48326   4.787   4.761   0.846  0.2047 -0.3993 -0.6172
12799SOL    HW148327   4.847   4.698   0.804  0.8161 -0.1873 -0.0750
12799SOL    HW248328   4.814   4.762   0.938  0.0744  0.5110 -0.5849
12800SOL     OW48329   9.786   7.555  11.953 -0.2280  0.2745 -0.0405
12800SOL    HW148330   9.826   7.624  12.005 -0.6737  1.4463 -1.1816
12800SOL    HW248331   9.854   7.488  11.945  0.3709  0.7787  0.7226
12801SOL     OW48332   7.713   3.424  11.729  0.3670  0.3780  0.3353
12801SOL    HW148333   7.665   3.487  11.783  1.1040  0.3346  1.0639
12801SOL    HW248334   7.681   3.439  11.641 -0.6064  0.6982  0.7317
12802SOL     OW48335  10.872   8.434   4.905 -0.2824  0.2138 -0.2097
12802SOL    HW148336  10.862   8.527   4.927  1.6682  0.1343  1.3792
12802SOL    HW248337  10.962   8.414   4.930 -0.8760 -2.2828  0.1853
12803SOL     OW48338   4.196   8.948   7.095 -0.6991 -0.1340  0.3547
12803SOL    HW148339   4.224   9.021   7.040  0.7316  0.5070  1.8705
12803SOL    HW248340   4.185   8.875   7.034 -1.5646  1.1373 -1.1129
12804SOL     OW48341   1.431   1.863   9.840  0.5942 -0.2480  0.1219
12804SOL    HW148342   1.336   1.855   9.831  0.4435 -0.5823  1.7446
12804SOL    HW248343   1.450   1.829   9.927  2.1476  0.3494  0.0490
12805SOL     OW48344  13.258   5.579   1.718 -0.7744  0.4214 -0.4872
12805SOL    HW148345  13.264   5.674   1.705 -2.0952  0.5302 -0.4456
12805SOL    HW248346  13.349   5.550   1.728 -0.3668  1.7021 -0.3179
12806SOL     OW48347   5.013   0.958  12.290 -0.0195 -0.4883 -0.2414
12806SOL    HW148348   5.078   0.888  12.295 -0.4510 -0.8683  0.1099
12806SOL    HW248349   5.045   1.025  12.351  0.1516 -0.5825 -0.2275
12807SOL     OW48350   1.816  12.658   8.900 -0.4879  0.2598  0.0140
12807SOL    HW148351   1.859  12.717   8.837 -1.2961  1.4219  0.5052
12807SOL    HW248352   1.888  12.609   8.940  0.8429  3.7497  2.5063
12808SOL     OW48353  10.974  11.488   3.866  0.1910 -0.4521  0.1720
12808SOL    HW148354  10.892  11.455   3.904 -0.3961  0.2757 -0.4232
12808SOL    HW248355  10.974  11.581   3.889  0.7650 -0.4115  0.0037
12809SOL     OW48356   3.618   2.064   0.888  0.1642 -0.1081  0.2240
12809SOL    HW148357   3.693   2.121   0.905  0.8939 -0.1915 -2.2555
12809SOL    HW248358   3.621   2.049   0.793 -3.0328 -0.0599  0.0120
12810SOL     OW48359   8.333   7.448   4.289 -0.2277  0.4379  0.2112
12810SOL    HW148360   8.369   7.529   4.253 -0.1174 -0.1139 -0.9515
12810SOL    HW248361   8.388   7.379   4.251 -0.6091 -0.2141  0.8261
12811SOL     OW48362   1.582   6.553   8.995  0.4642  0.2325  0.3731
12811SOL    HW148363   1.512   6.606   8.954 -0.3159 -0.8966  0.1988
12811SOL    HW248364   1.608   6.604   9.072  0.8685  1.6426 -0.6431
12812SOL     OW48365   0.924   9.534   1.410  0.1778  0.5753  0.3775
12812SOL    HW148366   0.979   9.457   1.395 -0.1515  0.3369  0.3747
12812SOL    HW248367   0.859   9.531   1.340  0.7729  1.4273 -0.2335
12813SOL     OW48368  12.747   7.050   6.975 -0.4130 -0.3019  0.2311
12813SOL    HW148369  12.815   7.106   6.937 -0.4269  0.0692  0.7531
12813SOL    HW248370  12.782   6.961   6.967  1.3945  0.0417  2.9655
12814SOL     OW48371  10.534   8.459  10.924 -0.1859 -0.0316  0.3792
12814SOL    HW148372  10.445   8.494  10.918  0.1045  0.6381 -0.2502
12814SOL    HW248373  10.523   8.366  10.941 -0.9998  0.4717  3.2192
12815SOL     OW48374  13.127   0.572  11.882  0.3900 -0.0765 -0.3600
12815SOL    HW148375  13.092   0.484  11.867 -0.6857  0.0287  1.2705
12815SOL    HW248376  13.062   0.614  11.939  1.6323  1.2602  0.1245
12816SOL     OW48377   4.396  12.835  12.002  0.5176  0.6243  0.4761
12816SOL    HW148378   4.359  12.894  11.936  1.0333  1.1459  0.6487
12816SOL    HW248379   4.319  12.799  12.048  0.1154 -0.2340 -0.8051
12817SOL     OW48380   5.629  11.092   2.153 -0.2699  0.4111  0.0076
12817SOL    HW148381   5.657  11.012   2.199  0.0417  0.8870  0.6660
12817SOL    HW248382   5.579  11.141   2.218 -1.3548  0.2842 -0.7067
12818SOL     OW48383   4.475   5.738   7.592 -0.2364  0.0177 -0.3422
12818SOL    HW148384   4.515   5.665   7.638  0.3056  0.3449 -0.2923
12818SOL    HW248385   4.433   5.698   7.515  1.8380 -0.1026 -1.4720
12819SOL     OW48386   2.391   4.318   8.182  0.5053 -0.0769 -0.0529
12819SOL    HW148387   2.324   4.252   8.164 -1.5441  1.7350  0.5112
12819SOL    HW248388   2.342   4.391   8.220  2.7268  1.6444 -0.3509
12820SOL     OW48389   0.459   2.376   8.532 -0.3662 -0.2395  0.2645
12820SOL    HW148390   0.540   2.329   8.513 -1.1269 -1.2992 -0.5123
12820SOL    HW248391   0.400   2.350   8.461 -0.4662  2.8576 -0.9283
12821SOL     OW48392   9.448  11.320  10.783  0.5029 -0.4141 -0.3538
12821SOL    HW148393   9.513  11.296  10.848  0.3621 -0.0873 -0.0891
12821SOL    HW248394   9.369  11.338  10.833  0.0851 -1.2276 -0.7069
12822SOL     OW48395   2.826   6.248   7.349 -0.2645 -0.3412 -0.0749
12822SOL    HW148396   2.853   6.239   7.441  0.8928 -1.9800 -0.5409
12822SOL    HW248397   2.828   6.159   7.314 -0.8997  0.2244 -1.6588
12823SOL     OW48398   3.260  13.001   9.615 -0.4622  1.0663  0.1388
12823SOL    HW148399   3.312  12.954   9.550  0.2146 -0.3311  1.6146
12823SOL    HW248400   3.324  13.056   9.661 -0.2252 -0.5297  1.8462
12824SOL     OW48401  12.408  10.501   7.230  0.5142 -0.0485 -0.2537
12824SOL    HW148402  12.409  10.573   7.167  1.7371  0.8932  0.7822
12824SOL    HW248403  12.494  10.505   7.273 -0.2900 -0.5814  1.5222
12825SOL     OW48404   4.821  11.981   0.388 -0.3816 -0.7718 -0.3345
12825SOL    HW148405   4.835  11.926   0.311  0.1622  0.2784 -1.0195
12825SOL    HW248406   4.802  11.920   0.458 -1.1889 -1.7421 -1.3644
12826SOL     OW48407   2.791   6.699  11.448 -0.0400  0.2101 -0.2809
12826SOL    HW148408   2.862   6.654  11.494 -0.0422 -0.9123 -1.3302
12826SOL    HW248409   2.767   6.771  11.507  1.7287  0.4257  0.2491
12827SOL     OW48410   6.438   6.214   2.152  0.0567 -0.6616  0.1423
12827SOL    HW148411   6.389   6.210   2.235 -0.3058 -1.8283 -0.1015
12827SOL    HW248412   6.387   6.274   2.098 -0.6133 -1.1520  0.2123
12828SOL     OW48413   5.408   9.709  10.866 -0.4514  0.3377  0.0946
12828SOL    HW148414   5.372   9.664  10.942  0.6929  1.4833  1.3549
12828SOL    HW248415   5.477   9.652  10.834  0.3595  0.7232  1.1124
12829SOL     OW48416  10.637  10.434   3.539 -0.1141  0.0860  0.6225
12829SOL    HW148417  10.653  10.444   3.445 -2.4764 -1.0748  0.0094
12829SOL    HW248418  10.713  10.387   3.572  0.4195 -0.1375 -0.8571
12830SOL     OW48419   8.983   2.971   2.377  0.1775  1.1385  0.5880
12830SOL    HW148420   9.072   2.940   2.393 -0.0049  1.3262  2.0917
12830SOL    HW248421   8.995   3.055   2.331  0.7252  0.6034 -0.2797
12831SOL     OW48422   4.580   3.107   5.083 -0.2252 -0.2493 -0.2645
12831SOL    HW148423   4.658   3.060   5.053  0.0056  0.2656 -0.4878
12831SOL    HW248424   4.584   3.191   5.037  0.8189  1.1141  2.1559
12832SOL     OW48425   6.796   9.661  11.436 -0.2224  0.1640  0.3888
12832SOL    HW148426   6.757   9.716  11.368  0.2403  0.7771  0.6050
12832SOL    HW248427   6.836   9.588  11.388 -1.1176 -0.1623  0.1257
12833SOL     OW48428   5.664   2.224  11.473  0.0363 -0.2157  0.3620
12833SOL    HW148429   5.667   2.303  11.528 -0.3265  1.3604 -1.7410
12833SOL    HW248430   5.712   2.158  11.523  1.8255  1.8186  1.5092
12834SOL     OW48431   5.447   8.958   6.691  0.1718  0.0581 -0.1541
12834SOL    HW148432   5.486   9.015   6.758  1.2831  0.0340 -0.7537
12834SOL    HW248433   5.470   9.000   6.608 -0.3909 -0.4140 -0.5551
12835SOL     OW48434   4.776   2.865   2.142  0.4120  0.0609 -0.5272
12835SOL    HW148435   4.707   2.926   2.118  0.3626 -0.1287 -0.8744
12835SOL    HW248436   4.846   2.881   2.079  0.3872 -0.2580 -0.6395
12836SOL     OW48437   6.620   9.342   1.417  0.7202  0.0331 -0.1282
12836SOL    HW148438   6.666   9.339   1.332  1.5531 -1.5791  0.3228
12836SOL    HW248439   6.688   9.319   1.481 -0.3191 -0.6627  0.7552
12837SOL     OW48440   3.343   2.597  10.686  0.1528 -0.1621  0.7982
12837SOL    HW148441   3.404   2.669  10.702  0.3049 -0.3612  1.1266
12837SOL    HW248442   3.344   2.547  10.767 -0.3646 -0.2311  0.7637
12838SOL     OW48443   6.211   9.543  10.423  0.4656  0.1023 -0.2164
12838SOL    HW148444   6.296   9.573  10.391  1.1719 -0.9113  0.6664
12838SOL    HW248445   6.229   9.459  10.465 -1.0877 -0.4722 -0.6163
12839SOL     OW48446   5.004   2.823   0.504 -0.4752  0.3442  0.0202
12839SOL    HW148447   5.030   2.883   0.573  1.0320  2.1091 -1.9579
12839SOL    HW248448   4.922   2.784   0.536  0.2830  0.8552  2.8585
12840SOL     OW48449   7.050   8.035   1.071 -0.5535 -0.0557  0.5596
12840SOL    HW148450   6.968   7.998   1.101 -2.6298  4.0568  0.6807
12840SOL    HW248451   7.093   8.066   1.151 -0.7334  1.0889  0.2287
12841SOL     OW48452   7.870   1.330   0.432  0.4257 -0.8234  0.5746
12841SOL    HW148453   7.799   1.266   0.446 -0.6453  0.0698 -0.5040
12841SOL    HW248454   7.846   1.404   0.486 -0.6336  0.3160 -1.3463
12842SOL     OW48455  12.857   8.546   7.346  0.0629 -0.3444 -0.2613
12842SOL    HW148456  12.906   8.574   7.269 -0.0966 -1.9623 -0.9925
12842SOL    HW248457  12.774   8.594   7.340  0.6225  0.6561 -0.2626
12843SOL     OW48458   7.988   5.558  10.635 -0.3919  1.0062 -0.2690
12843SOL    HW148459   8.063   5.520  10.681 -1.4069 -2.4788 -1.1632
12843SOL    HW248460   7.943   5.610  10.701  0.3246 -0.6738  1.6461
12844SOL     OW48461   3.833   0.499   5.005 -0.1119  0.0645 -0.0403
12844SOL    HW148462   3.832   0.408   4.975 -3.6056 -0.1421  0.2410
12844SOL    HW248463   3.875   0.495   5.091 -0.2986 -1.3469  0.0169
12845SOL     OW48464  11.117   7.291   1.562  0.0419  0.3496  0.2177
12845SOL    HW148465  11.205   7.259   1.578 -0.5710 -2.1267 -0.9074
12845SOL    HW248466  11.063   7.248   1.629 -0.7792 -0.8757 -1.1885
12846SOL     OW48467   0.862   3.103  11.663 -0.0178 -0.3378  0.3355
12846SOL    HW148468   0.898   3.017  11.685 -1.2674 -0.5081  1.9308
12846SOL    HW248469   0.767   3.090  11.659 -0.1961  0.8522  0.0793
12847SOL     OW48470  11.471   3.474   7.831 -0.2111  0.2134  0.0372
12847SOL    HW148471  11.447   3.425   7.910 -1.9928  1.5659  0.3945
12847SOL    HW248472  11.564   3.493   7.841  0.4982 -2.7515  0.0291
12848SOL     OW48473   7.645  11.187   2.041  0.4241 -0.0949 -0.6060
12848SOL    HW148474   7.598  11.182   2.124 -0.7295  0.1649 -1.2240
12848SOL    HW248475   7.726  11.234   2.062  1.4568 -2.3101  0.9076
12849SOL     OW48476   9.391  12.398   8.697  0.6388  0.1326 -0.5280
12849SOL    HW148477   9.336  12.333   8.653 -1.2080  0.4841  1.1579
12849SOL    HW248478   9.342  12.479   8.693  0.7654  0.3530  1.4385
12850SOL     OW48479  11.045  12.330  11.926 -0.0371 -0.2330 -0.3688
12850SOL    HW148480  11.134  12.364  11.934 -1.2739  3.7498 -1.1379
12850SOL    HW248481  11.036  12.308  11.834  0.0973 -0.5691 -0.3046
12851SOL     OW48482   9.275   4.759   7.836 -0.9101  0.1243  0.2202
12851SOL    HW148483   9.270   4.794   7.747  3.1651 -0.2541 -0.3514
12851SOL    HW248484   9.219   4.816   7.888 -1.6629  1.7324 -2.1902
12852SOL     OW48485   9.022   4.089   8.610  0.6840  0.2060 -0.5672
12852SOL    HW148486   9.010   4.018   8.672  0.9190  2.0008  1.6567
12852SOL    HW248487   8.962   4.068   8.538 -0.6497 -1.2614  0.8758
12853SOL     OW48488   4.807   3.066   2.522  0.1959 -0.1373 -0.1056
12853SOL    HW148489   4.775   3.117   2.448  2.6153  2.2364  0.3204
12853SOL    HW248490   4.803   3.127   2.596 -0.0656 -1.7352  1.2669
12854SOL     OW48491  11.397   4.495   0.737  0.5619  0.1911 -0.0557
12854SOL    HW148492  11.423   4.415   0.692  1.5156 -0.2325  1.1722
12854SOL    HW248493  11.361   4.464   0.821  0.6384  1.0325  0.2922
12855SOL     OW48494   8.572  11.263  12.239 -0.8160  0.2149 -0.4623
12855SOL    HW148495   8.579  11.271  12.144 -2.1630 -1.4908 -0.7490
12855SOL    HW248496   8.501  11.200  12.253 -0.5615  0.3276  1.6756
12856SOL     OW48497  10.829  10.708  12.109 -0.6216  0.5440  0.1314
12856SOL    HW148498  10.800  10.770  12.042 -1.6444  0.5219  0.5366
12856SOL    HW248499  10.815  10.622  12.070  2.2151  0.4997 -1.0337
12857SOL     OW48500  11.918   8.656   2.666 -0.0076  0.3074  0.2973
12857SOL    HW148501  11.949   8.617   2.584 -2.2461 -0.4234 -0.2584
12857SOL    HW248502  11.915   8.583   2.727 -1.1601  0.2262  0.1631
12858SOL     OW48503  12.594  12.664   6.765  0.1545  0.0673 -0.5247
12858SOL    HW148504  12.520  12.643   6.823 -0.5849 -1.1981 -1.8484
12858SOL    HW248505  12.631  12.578   6.743  0.5214  0.5413 -1.7817
12859SOL     OW48506   6.586   8.707   1.285  0.4225 -0.2963  0.6856
12859SOL    HW148507   6.628   8.711   1.199  1.3932 -0.1705  1.1519
12859SOL    HW248508   6.493   8.723   1.267  0.6903  0.2517 -0.2739
12860SOL     OW48509   4.016   0.169   4.519 -0.3524 -0.1792  0.2534
12860SOL    HW148510   3.972   0.089   4.546  0.9671 -0.3363  2.1362
12860SOL    HW248511   3.946   0.233   4.509 -1.2316 -1.0557  0.6234
12861SOL     OW48512   9.757   1.769   4.975  0.1519 -0.2177  0.5436
12861SOL    HW148513   9.788   1.690   5.018  0.6695 -0.1855  0.2377
12861SOL    HW248514   9.835   1.805   4.932  0.5375  1.8445  2.7869
12862SOL     OW48515   8.474  12.112   9.532 -0.0627  0.3530  0.5737
12862SOL    HW148516   8.394  12.068   9.560  0.0991  0.3731  1.0857
12862SOL    HW248517   8.522  12.128   9.614  0.6670 -0.0607  0.2378
12863SOL     OW48518   6.555   2.241   8.699  0.6020 -0.2640 -0.0551
12863SOL    HW148519   6.513   2.165   8.740  2.0575 -0.7566  0.5980
12863SOL    HW248520   6.610   2.204   8.630  0.1856  0.3439 -0.7256
12864SOL     OW48521   2.038   6.068  12.182  0.0993  0.1521 -0.0790
12864SOL    HW148522   1.955   6.028  12.156 -1.1915  1.7289  1.4015
12864SOL    HW248523   2.092   6.063  12.103 -1.4462 -0.7415 -1.1430
12865SOL     OW48524   3.127  12.498   5.669 -0.7514 -0.1817  0.1729
12865SOL    HW148525   3.189  12.482   5.598 -0.5745 -1.7528  0.6615
12865SOL    HW248526   3.116  12.413   5.712 -0.5988  0.7915  2.2557
12866SOL     OW48527   5.212   5.238   4.710 -0.0701  0.4596 -0.2415
12866SOL    HW148528   5.266   5.162   4.729 -0.3899  0.4290  0.5820
12866SOL    HW248529   5.275   5.309   4.695  0.1966  0.4124  0.6555
12867SOL     OW48530   1.252   8.057   8.523  0.8450 -0.1199 -0.2037
12867SOL    HW148531   1.271   8.127   8.585  0.3677  2.6326 -2.8841
12867SOL    HW248532   1.180   8.092   8.470  0.4268 -2.7867 -1.5645
12868SOL     OW48533   2.441   6.563   9.867 -0.0354 -0.1865 -0.0008
12868SOL    HW148534   2.454   6.518   9.784  2.0074  0.0919  0.1317
12868SOL    HW248535   2.360   6.613   9.854 -0.6024 -1.3637 -1.2524
12869SOL     OW48536   2.117  11.234   2.299 -0.2939 -0.2672 -0.2917
12869SOL    HW148537   2.085  11.188   2.377  0.1671  0.5492  0.3945
12869SOL    HW248538   2.052  11.303   2.284  0.6497  0.8460  0.5861
12870SOL     OW48539  10.742  12.150  12.194  0.7698 -0.3626  0.1279
12870SOL    HW148540  10.724  12.204  12.271  1.4819 -0.0114  0.0542
12870SOL    HW248541  10.658  12.110  12.173  0.8105 -1.5055  1.8948
12871SOL     OW48542   2.418   5.923   8.307  0.4758  0.1132  0.2917
12871SOL    HW148543   2.407   5.888   8.218  1.7354 -0.7573  0.4555
12871SOL    HW248544   2.348   5.988   8.315  0.3483  0.2339 -1.3460
12872SOL     OW48545  10.791   9.733   2.969 -0.4835  0.2430  0.3782
12872SOL    HW148546  10.843   9.662   3.006  1.1869  1.7113  0.9944
12872SOL    HW248547  10.777   9.708   2.877  0.5190 -0.6308  0.4527
12873SOL     OW48548  10.841  10.736   6.937 -0.0205 -0.1756 -0.0466
12873SOL    HW148549  10.847  10.830   6.926 -0.6678 -0.1312 -0.0595
12873SOL    HW248550  10.896  10.700   6.867 -1.2847  0.1640 -1.2662
12874SOL     OW48551   8.024  10.827   3.305 -0.8837 -0.6036 -0.5517
12874SOL    HW148552   8.028  10.900   3.366 -0.6116  0.1401 -1.4309
12874SOL    HW248553   8.013  10.750   3.360 -2.8663  0.2415  0.3043
12875SOL     OW48554   3.989   5.155   9.991  0.3005  0.0690 -0.1372
12875SOL    HW148555   3.959   5.064   9.988  0.9476 -0.1294 -2.9802
12875SOL    HW248556   3.919   5.204   9.946 -0.6745  1.2594  2.4868
12876SOL     OW48557   4.624   7.337   6.320 -0.2693 -0.4333  0.0099
12876SOL    HW148558   4.703   7.311   6.273  0.3629  1.8012 -0.2925
12876SOL    HW248559   4.583   7.402   6.262 -0.2744  1.2610  1.8298
12877SOL     OW48560   0.251  13.238   8.226 -0.2799 -0.4253  0.3838
12877SOL    HW148561   0.166  13.239   8.269 -0.3644 -0.0804  0.2192
12877SOL    HW248562   0.235  13.196   8.142 -0.6291  0.9941 -0.2956
12878SOL     OW48563  12.797   3.589   1.588  0.1908 -0.1479  0.5412
12878SOL    HW148564  12.721   3.642   1.566  0.1080  0.5710  2.3589
12878SOL    HW248565  12.867   3.624   1.533 -0.3937  0.3278  0.0847
12879SOL     OW48566   9.262   8.466   8.454 -0.8108  0.3869 -0.0111
12879SOL    HW148567   9.178   8.423   8.437 -0.1985 -0.7167 -0.3279
12879SOL    HW248568   9.328   8.404   8.425  0.1212  1.7025 -0.8372
12880SOL     OW48569   7.841   1.738   7.463  0.2449 -0.2101 -0.1791
12880SOL    HW148570   7.905   1.752   7.533  0.8445 -0.3662 -0.6944
12880SOL    HW248571   7.768   1.694   7.507 -0.3640  1.6931  0.8242
12881SOL     OW48572   7.389  10.281  11.684  0.3497  0.2369  0.4204
12881SOL    HW148573   7.424  10.357  11.638  1.3099 -0.3067  0.1998
12881SOL    HW248574   7.435  10.280  11.768  0.8278 -0.4247  0.1720
12882SOL     OW48575   2.068   0.604  11.950 -0.2310  0.2196  0.0937
12882SOL    HW148576   2.045   0.519  11.988  0.1152 -0.2074 -0.6139
12882SOL    HW248577   2.033   0.600  11.860  1.2624  0.1418 -0.5098
12883SOL     OW48578   0.112  12.168   2.397 -0.4308 -0.3550 -0.0803
12883SOL    HW148579   0.114  12.191   2.490 -1.6124 -0.0186 -0.1226
12883SOL    HW248580   0.204  12.156   2.373 -0.1454 -1.3164  1.3386
12884SOL     OW48581   7.680   9.435   3.538  0.1607  0.4172 -0.1184
12884SOL    HW148582   7.713   9.461   3.624 -2.0261 -0.3155  1.0146
12884SOL    HW248583   7.684   9.339   3.538  0.2998  0.4139 -0.9156
12885SOL     OW48584   7.913   1.595   2.158  0.2867  0.1406  0.3725
12885SOL    HW148585   7.887   1.515   2.112  0.2527  0.1111  0.4413
12885SOL    HW248586   7.952   1.563   2.240 -0.2612  0.2093  0.6683
12886SOL     OW48587  12.192   4.269   3.334 -0.1447  0.2709  0.5351
12886SOL    HW148588  12.252   4.209   3.290  0.5277  0.8943  0.5870
12886SOL    HW248589  12.105   4.237   3.310  0.2054 -0.1182 -0.2619
12887SOL     OW48590   6.915   8.265   8.355 -0.3127  0.2159 -0.4505
12887SOL    HW148591   6.975   8.205   8.399 -1.3964 -1.9615 -1.7760
12887SOL    HW248592   6.854   8.293   8.423 -0.1999 -0.7601  0.0683
12888SOL     OW48593   0.982   1.724   5.028 -0.1572 -0.1991  0.0731
12888SOL    HW148594   1.018   1.709   5.115  1.0287  3.8710  0.4627
12888SOL    HW248595   1.053   1.699   4.968  0.0385 -0.4296  0.3984
12889SOL     OW48596  10.419  12.071  11.561  0.0693 -0.4184  0.2193
12889SOL    HW148597  10.376  12.134  11.619 -0.3920 -1.4669  1.0403
12889SOL    HW248598  10.385  12.092  11.474  0.9227  1.3028  0.2525
12890SOL     OW48599   4.086   8.894   9.001  0.5015 -0.0536 -0.4556
12890SOL    HW148600   4.114   8.936   8.919 -0.5811  0.7201 -0.4452
12890SOL    HW248601   4.093   8.800   8.984  1.0427  0.1078 -1.1640
12891SOL     OW48602  13.220   0.688   4.887  0.1635 -0.0015  0.0766
12891SOL    HW148603  13.252   0.767   4.843  0.8790 -0.1036  0.3920
12891SOL    HW248604  13.233   0.618   4.823 -1.4105  0.2670 -0.5891
12892SOL     OW48605   5.881   1.029   0.290 -0.3553  0.2835  0.2712
12892SOL    HW148606   5.826   0.962   0.330 -0.3933  0.7766  1.0757
12892SOL    HW248607   5.918   1.077   0.365 -1.6339  2.2131 -0.2633
12893SOL     OW48608   8.167   0.545   9.894 -0.0732 -0.0690  0.2013
12893SOL    HW148609   8.129   0.481   9.834  0.0477  0.0697 -0.0241
12893SOL    HW248610   8.106   0.547   9.968  1.1994 -2.3432  1.4180
12894SOL     OW48611   6.529   0.174   2.834  0.0257 -0.5254 -0.0584
12894SOL    HW148612   6.441   0.143   2.858  0.1529 -1.4609 -0.7588
12894SOL    HW248613   6.585   0.145   2.907 -0.3493  0.7562  0.7770
12895SOL     OW48614   1.153  10.161  12.234  0.2237 -0.0021  0.0217
12895SOL    HW148615   1.160  10.132  12.143  0.9874  2.8610 -0.9394
12895SOL    HW248616   1.124  10.252  12.228 -0.0596  0.1651  2.6895
12896SOL     OW48617  12.936   1.185   7.396  0.3545  0.0804 -0.2431
12896SOL    HW148618  12.996   1.204   7.324  1.0161  2.6583  0.8928
12896SOL    HW248619  12.985   1.207   7.475 -1.4388  0.4103  0.8415
12897SOL     OW48620  10.146  12.194   2.956  0.5189  0.6089  0.0645
12897SOL    HW148621  10.102  12.274   2.985  1.8171  1.8008 -1.1536
12897SOL    HW248622  10.171  12.211   2.866 -0.0213 -1.5635 -0.5597
12898SOL     OW48623   2.465   8.851   7.805  0.3491  0.2361 -0.0914
12898SOL    HW148624   2.437   8.939   7.831 -1.7617 -0.4092  0.0601
12898SOL    HW248625   2.460   8.799   7.886  0.1863 -0.3203 -0.4512
12899SOL     OW48626   3.249   5.939  11.037  0.0969  0.1030  0.2008
12899SOL    HW148627   3.246   5.907  10.946 -0.2386  0.2312  0.1657
12899SOL    HW248628   3.342   5.936  11.060  0.2896  0.8655 -0.4336
12900SOL     OW48629   5.464  10.447   4.908 -0.5212 -0.0220  0.1629
12900SOL    HW148630   5.422  10.371   4.949 -0.0024 -0.6691 -0.4795
12900SOL    HW248631   5.547  10.413   4.875 -0.4959  0.7228 -0.5536
12901SOL     OW48632  11.155   8.822   3.263 -0.3171 -0.0579  0.7030
12901SOL    HW148633  11.112   8.786   3.186 -0.1855  1.0685  0.0795
12901SOL    HW248634  11.084   8.844   3.323 -0.7802  2.6706 -0.6951
12902SOL     OW48635  11.850   0.832   7.649  0.1691  0.0747  0.4465
12902SOL    HW148636  11.857   0.903   7.712 -0.6301 -0.0123  0.6386
12902SOL    HW248637  11.933   0.786   7.656 -0.3876 -0.7079  2.3666
12903SOL     OW48638   6.052   3.057  11.110  0.4862  0.6760  0.4605
12903SOL    HW148639   6.112   2.984  11.125  0.3495  0.2712 -0.8372
12903SOL    HW248640   6.080   3.124  11.172  1.3420 -0.0532  0.8856
12904SOL     OW48641  12.163   7.419  10.677 -0.1943  0.0046 -0.3200
12904SOL    HW148642  12.097   7.481  10.708 -0.8247 -1.2894  1.1024
12904SOL    HW248643  12.223   7.409  10.751 -1.4941 -2.8567  0.5209
12905SOL     OW48644  12.918  10.848   4.187  0.2385  0.7053 -0.0669
12905SOL    HW148645  12.855  10.859   4.115 -1.2825 -1.5790  0.7783
12905SOL    HW248646  12.874  10.885   4.263  0.9348  1.1763  0.1150
12906SOL     OW48647   6.447  10.788   0.476  0.3473 -0.0710  0.6791
12906SOL    HW148648   6.421  10.744   0.556 -1.3948  0.3535  0.3768
12906SOL    HW248649   6.418  10.878   0.487  4.5995  1.4460  1.6576
12907SOL     OW48650  11.780   3.571   3.153  0.0689 -0.0361 -0.4535
12907SOL    HW148651  11.732   3.520   3.088 -0.6884  2.4192 -1.9369
12907SOL    HW248652  11.713   3.626   3.195  0.7835 -0.4795  1.3742
12908SOL     OW48653   8.324   2.136   9.690  0.6139  0.0168 -0.4711
12908SOL    HW148654   8.365   2.181   9.616  0.0616  0.9153 -0.2382
12908SOL    HW248655   8.245   2.186   9.708 -0.1153 -1.1463 -0.3100
12909SOL     OW48656  12.956   7.562  10.099 -0.0494 -0.0371  0.5291
12909SOL    HW148657  13.027   7.526  10.151  0.6152  3.8927  2.7108
12909SOL    HW248658  12.879   7.511  10.124  1.3961 -2.5196  0.2289
12910SOL     OW48659   0.991   4.613   0.453  0.1431  0.1709 -0.5694
12910SOL    HW148660   0.952   4.623   0.541  1.0859  1.8174 -0.3093
12910SOL    HW248661   0.919   4.633   0.393 -0.7192 -1.6991 -0.2339
12911SOL     OW48662   0.844   1.218   1.329  0.0751 -0.3818 -0.3183
12911SOL    HW148663   0.805   1.152   1.386 -0.0646 -0.3680 -0.3984
12911SOL    HW248664   0.903   1.170   1.271  0.7893 -0.3124  0.3286
12912SOL     OW48665   0.593  12.505   9.436  0.5698  0.6196  0.1049
12912SOL    HW148666   0.618  12.423   9.478 -1.2868 -0.1332 -0.1522
12912SOL    HW248667   0.648  12.510   9.358 -0.3665 -1.2258 -0.7335
12913SOL     OW48668  12.293   1.954   8.982 -0.8865  0.7218  0.0263
12913SOL    HW148669  12.327   2.009   9.053 -0.0247  0.1205  0.0929
12913SOL    HW248670  12.363   1.954   8.917 -1.1151  0.1572 -0.2218
12914SOL     OW48671  11.457  10.896   5.278 -0.4996  0.3634  0.5199
12914SOL    HW148672  11.472  10.940   5.194  0.4311  0.7138  0.8667
12914SOL    HW248673  11.506  10.947   5.342 -0.6415 -0.3017  1.1771
12915SOL     OW48674   5.805   2.493   3.399  0.1663 -0.3726 -0.7046
12915SOL    HW148675   5.734   2.432   3.382 -0.0058 -0.7716  1.2427
12915SOL    HW248676   5.761   2.576   3.416  0.2384 -0.3424 -0.6680
12916SOL     OW48677   7.888  10.721   3.779  0.4856 -0.4754  0.4417
12916SOL    HW148678   7.895  10.778   3.855  1.1042 -0.9581  0.7578
12916SOL    HW248679   7.897  10.632   3.814  3.7745 -0.6510 -0.4591
12917SOL     OW48680  11.670  13.198   6.516  0.3076  0.1643  0.2840
12917SOL    HW148681  11.699  13.170   6.602  0.6171 -2.1942 -0.5062
12917SOL    HW248682  11.748  13.237   6.475  0.2496  0.9585  0.9088
12918SOL     OW48683   2.403   5.916   7.972  0.6336  0.4996 -0.1075
12918SOL    HW148684   2.368   5.915   7.882  0.1767 -1.7485  0.0337
12918SOL    HW248685   2.389   5.827   8.004  0.4869  1.3293  2.3376
12919SOL     OW48686   8.445   2.050   2.286 -1.0413  0.5163 -0.2230
12919SOL    HW148687   8.413   1.989   2.220 -0.3046  0.6517 -0.7079
12919SOL    HW248688   8.365   2.090   2.322 -1.4402  0.5841 -1.1631
12920SOL     OW48689   5.320  10.926   7.117 -0.0608  0.5109 -0.0912
12920SOL    HW148690   5.406  10.949   7.081  1.1322 -1.3638  1.3543
12920SOL    HW248691   5.324  10.831   7.130 -1.9649  0.5277  1.0342
12921SOL     OW48692   0.771  12.592   3.573  0.1581  0.0561  0.2638
12921SOL    HW148693   0.681  12.606   3.543  0.3775 -0.0260 -0.4511
12921SOL    HW248694   0.821  12.663   3.533  0.5121 -0.2499  0.1566
12922SOL     OW48695   9.936   3.924   4.185 -0.0926 -0.0130 -0.3916
12922SOL    HW148696   9.990   3.882   4.252  0.3100 -0.1090 -0.7803
12922SOL    HW248697   9.939   4.017   4.208 -1.2575 -0.2078  0.6702
12923SOL     OW48698   0.452   5.033   8.394  0.1574 -1.3075 -0.2707
12923SOL    HW148699   0.465   4.945   8.429  1.3820 -0.0668  2.8206
12923SOL    HW248700   0.403   5.079   8.463 -0.0227  0.5676 -1.5631
12924SOL     OW48701   6.456   9.959   7.764 -0.4482  0.1903  0.0383
12924SOL    HW148702   6.424  10.045   7.734 -2.0743 -0.2154  0.4887
12924SOL    HW248703   6.428   9.955   7.855 -0.2748 -0.7841  0.0508
12925SOL     OW48704   9.824   7.201   6.876  0.1491  0.4032 -0.2679
12925SOL    HW148705   9.826   7.263   6.949 -0.4147  0.2806 -0.1445
12925SOL    HW248706   9.900   7.224   6.823  0.8894  0.1305  0.6513
12926SOL     OW48707   2.642   7.803   2.862 -0.8623  0.1848 -0.4829
12926SOL    HW148708   2.627   7.847   2.779 -1.0751  0.1041 -0.4884
12926SOL    HW248709   2.640   7.873   2.927 -0.0835  0.3252 -0.6104
12927SOL     OW48710  10.954   0.799   9.635 -0.1164  0.2984  0.1765
12927SOL    HW148711  10.860   0.793   9.617 -0.9892 -1.6417  4.3393
12927SOL    HW248712  10.965   0.879   9.685  0.4008  0.3175  0.0469
12928SOL     OW48713   9.577   8.148  10.503  0.0036  0.0942  0.1056
12928SOL    HW148714   9.612   8.217  10.559 -1.6358 -0.3015  1.6994
12928SOL    HW248715   9.494   8.182  10.471  0.9140  0.3394 -2.2431
12929SOL     OW48716   0.927   2.054  13.264  0.2083  0.1908 -0.2267
12929SOL    HW148717   0.978   2.054  13.183 -1.1602  0.5041 -1.1187
12929SOL    HW248718   0.865   2.126  13.253 -1.9702 -1.5990 -0.2105
12930SOL     OW48719   7.743   2.015   4.576 -1.2328 -0.2411 -0.3007
12930SOL    HW148720   7.681   1.947   4.550 -0.4524 -0.5738 -1.3542
12930SOL    HW248721   7.715   2.093   4.529 -2.0792  0.1718  0.8448
12931SOL     OW48722   9.531   4.298   2.212 -0.0142 -0.8038 -0.1825
12931SOL    HW148723   9.475   4.220   2.212 -0.3876 -0.5566 -1.3154
12931SOL    HW248724   9.487   4.359   2.271 -1.1902 -0.4541 -1.3853
12932SOL     OW48725   6.773   2.614  11.054 -0.0274  0.2789 -0.0806
12932SOL    HW148726   6.865   2.634  11.071 -0.3154  0.6058  1.1639
12932SOL    HW248727   6.741   2.576  11.136 -1.6609  2.4999  0.4104
12933SOL     OW48728   1.842   0.552   8.879  0.1134 -0.0860 -0.2660
12933SOL    HW148729   1.792   0.585   8.804 -0.5135  0.0915  0.2193
12933SOL    HW248730   1.776   0.511   8.935  0.6079 -0.4165  0.0823
12934SOL     OW48731  10.975   0.126  12.853  0.0991  0.0633  0.4618
12934SOL    HW148732  10.930   0.198  12.896  0.2332  0.2561  0.2797
12934SOL    HW248733  10.907   0.083  12.801  0.1613  0.4675  0.0378
12935SOL     OW48734   3.590   9.076   5.598 -0.5423  0.5559  0.1636
12935SOL    HW148735   3.627   9.152   5.642 -1.6741  1.0283  0.3314
12935SOL    HW248736   3.660   9.044   5.541  0.7749  0.2674  1.8573
12936SOL     OW48737   3.259   3.915  11.913  0.2225  0.2517  0.2203
12936SOL    HW148738   3.251   4.010  11.910  0.1598  0.2354 -2.3131
12936SOL    HW248739   3.335   3.895  11.858 -0.7020 -1.2203 -0.5896
12937SOL     OW48740  10.226   8.189  11.531  0.0875 -0.0437  0.0299
12937SOL    HW148741  10.315   8.182  11.566  0.0979  1.1579  0.2917
12937SOL    HW248742  10.225   8.273  11.485 -0.7712 -0.2687 -0.3773
12938SOL     OW48743   0.402   9.516   8.554  0.2298 -0.4521  0.3156
12938SOL    HW148744   0.427   9.425   8.539  1.4675 -0.1163  0.2263
12938SOL    HW248745   0.449   9.540   8.634 -0.6593 -0.1010  0.7435
12939SOL     OW48746   2.488   8.372   7.859 -0.3759 -0.2303 -0.3784
12939SOL    HW148747   2.448   8.308   7.801 -1.0641  0.3093 -0.5149
12939SOL    HW248748   2.426   8.381   7.932  0.4243 -0.8176  0.4034
12940SOL     OW48749   5.773   4.985   4.825  0.4142  0.1237  0.3157
12940SOL    HW148750   5.705   4.985   4.758  0.2996  0.4380  0.4296
12940SOL    HW248751   5.777   4.895   4.855  0.2359  0.0491  0.1190
12941SOL     OW48752  13.283  10.258   1.954  0.0742  0.4866 -0.1885
12941SOL    HW148753  13.302  10.307   2.034 -1.0345 -0.9436  1.0104
12941SOL    HW248754  13.247  10.323   1.894 -1.2589  1.2162  1.3232
12942SOL     OW48755   7.141   2.123  10.634  0.7445 -0.1263 -0.1701
12942SOL    HW148756   7.207   2.107  10.566  0.6556  0.9501 -0.5282
12942SOL    HW248757   7.172   2.201  10.680  0.9598 -1.0088  1.2420
12943SOL     OW48758   2.801  10.218   6.428 -0.5410 -0.5172 -0.4533
12943SOL    HW148759   2.732  10.257   6.481  0.1844 -0.4159  0.4367
12943SOL    HW248760   2.797  10.265   6.345 -0.4144  0.6896  0.2041
12944SOL     OW48761  10.841   5.268   6.607 -0.0213  0.1259  0.1046
12944SOL    HW148762  10.828   5.183   6.566  2.0575 -0.6525  0.9013
12944SOL    HW248763  10.808   5.331   6.543  0.7558 -1.1588 -1.6490
12945SOL     OW48764  10.077   1.146   8.240  0.1951  0.0704 -0.4050
12945SOL    HW148765  10.152   1.172   8.293 -0.3467 -1.1653  1.0449
12945SOL    HW248766  10.109   1.072   8.188  0.1316 -0.0977 -0.2037
12946SOL     OW48767   1.802   9.760   6.545  0.5934  0.2283  0.2149
12946SOL    HW148768   1.839   9.674   6.565 -0.9497 -0.5365 -0.0412
12946SOL    HW248769   1.747   9.781   6.621 -0.0976  0.3570 -0.3079
12947SOL     OW48770  10.602  12.569   2.054  0.4781 -0.3051  0.6082
12947SOL    HW148771  10.626  12.648   2.006  1.3279 -0.3215  0.9791
12947SOL    HW248772  10.631  12.586   2.144 -0.9483 -0.3361  1.1035
12948SOL     OW48773   9.602   4.014   4.250  0.4605 -0.3518 -0.2280
12948SOL    HW148774   9.588   3.963   4.170  0.9614 -0.2134 -0.4061
12948SOL    HW248775   9.545   4.090   4.241  0.7427 -0.1819 -0.5945
12949SOL     OW48776   5.352  11.764  10.122  0.3148 -0.0296 -0.4619
12949SOL    HW148777   5.352  11.722  10.208 -0.1482  1.1885  0.1664
12949SOL    HW248778   5.444  11.776  10.101  0.4306  0.2956  0.1975
12950SOL     OW48779   2.601  10.098  11.294 -0.4674  0.0825  0.0403
12950SOL    HW148780   2.563  10.157  11.229  2.3610  2.2623  0.1343
12950SOL    HW248781   2.541  10.102  11.368 -3.3052 -1.7888 -1.9550
12951SOL     OW48782   8.135   0.157   0.437  0.0872 -0.0779  0.2112
12951SOL    HW148783   8.162   0.201   0.517 -0.1012 -1.5035  1.0824
12951SOL    HW248784   8.071   0.217   0.397 -1.2773 -0.1753  2.1180
12952SOL     OW48785   9.566   3.126   3.181 -0.1870  0.6025  1.0246
12952SOL    HW148786   9.649   3.165   3.153  0.0330 -1.8473 -2.3072
12952SOL    HW248787   9.504   3.149   3.111 -0.7158 -2.4409  0.3455
12953SOL     OW48788   4.358   6.857   0.293  0.1040  0.2890 -0.1657
12953SOL    HW148789   4.284   6.833   0.237  0.5115 -2.1231  0.2140
12953SOL    HW248790   4.359   6.789   0.361  1.8254  1.0856  0.6541
12954SOL     OW48791   7.248   2.158   2.021 -0.1390  0.4468  0.8925
12954SOL    HW148792   7.194   2.198   1.953 -1.2167 -0.3212  1.2787
12954SOL    HW248793   7.308   2.229   2.048 -1.0960  1.3885  0.6241
12955SOL     OW48794   8.903   1.925  12.600 -0.2061  0.3949  0.0451
12955SOL    HW148795   8.810   1.916  12.620 -0.2695  3.1025  1.3350
12955SOL    HW248796   8.931   2.004  12.646  2.2985  0.7939 -1.9160
12956SOL     OW48797  12.531  12.689  10.275 -0.0188 -0.0119 -0.2101
12956SOL    HW148798  12.479  12.631  10.331  1.3706 -3.0902 -1.8425
12956SOL    HW248799  12.604  12.635  10.246  1.6221  2.7483 -1.6366
12957SOL     OW48800   3.055   5.840   0.059 -0.3583 -0.1017  0.0457
12957SOL    HW148801   3.067   5.771   0.123  0.2586 -1.5051 -1.5160
12957SOL    HW248802   3.084   5.802  -0.024  0.8833  2.3197 -0.7308
12958SOL     OW48803  10.002   4.656   1.780 -0.3624 -0.1948 -0.6191
12958SOL    HW148804  10.042   4.570   1.792 -2.0957 -1.2953 -2.1901
12958SOL    HW248805   9.908   4.639   1.782 -0.7401  1.4878 -2.0815
12959SOL     OW48806   2.764   5.126   4.270  0.1806  0.0880  0.0588
12959SOL    HW148807   2.800   5.043   4.302  0.4176  0.1820  0.0374
12959SOL    HW248808   2.790   5.190   4.336 -1.6462 -0.1687  1.0770
12960SOL     OW48809  12.849   9.078   5.115 -0.7106  0.2207  0.5322
12960SOL    HW148810  12.841   9.162   5.159 -3.3537  0.4304 -0.2268
12960SOL    HW248811  12.936   9.080   5.075  1.0847  0.7588  4.0659
12961SOL     OW48812   3.547  10.463  11.077  0.5945  0.1632  0.0210
12961SOL    HW148813   3.585  10.421  11.154  0.6225 -1.5419 -0.8673
12961SOL    HW248814   3.614  10.452  11.009  0.1322  0.6902 -0.5287
12962SOL     OW48815   2.821   3.592   8.615  0.2056 -0.0526 -0.1536
12962SOL    HW148816   2.794   3.678   8.647  1.4178  0.2896 -0.0127
12962SOL    HW248817   2.867   3.552   8.689  0.8486 -0.2674 -0.6579
12963SOL     OW48818   0.640   2.641   3.744 -0.1359 -0.2847 -0.3913
12963SOL    HW148819   0.709   2.669   3.805 -0.9192  0.2101  0.2854
12963SOL    HW248820   0.607   2.560   3.782 -0.7865  0.1486 -0.0196
12964SOL     OW48821   0.747   7.715   6.485  0.7600  0.3156  0.0770
12964SOL    HW148822   0.775   7.660   6.558 -0.0845  0.1875  0.3064
12964SOL    HW248823   0.829   7.736   6.439  1.1549 -0.7059  0.2786
12965SOL     OW48824   8.471   7.705   8.740 -0.2643  0.0362  0.5175
12965SOL    HW148825   8.420   7.649   8.682 -0.5064 -0.3730  1.1190
12965SOL    HW248826   8.407   7.765   8.778 -0.0588  0.5050  0.1358
12966SOL     OW48827   3.181   9.503   6.312  0.3457  0.0994  0.7752
12966SOL    HW148828   3.182   9.420   6.265  2.9481  0.8008 -0.6590
12966SOL    HW248829   3.133   9.486   6.392 -2.0060 -1.8831 -0.9203
12967SOL     OW48830   3.560   7.964   7.547  0.1006  0.0394 -0.2714
12967SOL    HW148831   3.479   7.925   7.515 -0.3458  1.1906 -0.5880
12967SOL    HW248832   3.567   8.047   7.499  1.5229 -0.0946 -0.3349
12968SOL     OW48833   2.896   0.593   2.498  0.5653  0.0490 -0.0506
12968SOL    HW148834   2.919   0.536   2.572  1.6148  0.3782 -0.1194
12968SOL    HW248835   2.848   0.666   2.538  1.3479  0.3545  0.3427
12969SOL     OW48836   8.478   5.119   7.079  0.2990 -0.0856  0.2647
12969SOL    HW148837   8.516   5.112   6.992 -1.2016  0.1282 -0.4368
12969SOL    HW248838   8.491   5.211   7.104 -0.2592  0.1293 -0.2191
12970SOL     OW48839   5.143   4.791   4.867 -0.4013  0.4134 -0.5207
12970SOL    HW148840   5.057   4.774   4.906 -0.3096 -0.7381 -0.7726
12970SOL    HW248841   5.195   4.826   4.939  0.0447 -2.5625  0.7697
12971SOL     OW48842   5.195  10.049   1.321  0.1300 -0.4415 -0.4469
12971SOL    HW148843   5.289  10.040   1.332  0.0045 -1.0480  0.2033
12971SOL    HW248844   5.159   9.965   1.348 -0.6989  0.2015  0.5341
12972SOL     OW48845   9.479  13.028  13.062  0.6589  0.3032 -0.0731
12972SOL    HW148846   9.562  13.057  13.101  0.4668 -0.5585  1.0542
12972SOL    HW248847   9.464  13.088  12.990  1.4473  1.4933  0.7101
12973SOL     OW48848  12.738   7.851   1.054 -0.5233  0.1107  0.2651
12973SOL    HW148849  12.700   7.907   1.122  1.1388  2.0661 -0.2815
12973SOL    HW248850  12.753   7.767   1.097  0.4110  1.2549  2.3264
12974SOL     OW48851   2.373   8.304   7.251  0.1430  0.5417  0.1397
12974SOL    HW148852   2.325   8.372   7.205  0.8455  1.0941  0.2093
12974SOL    HW248853   2.465   8.325   7.236  0.3727 -0.0020  0.7297
12975SOL     OW48854   9.709   3.750   7.550 -0.3278 -0.0132  0.2154
12975SOL    HW148855   9.667   3.751   7.464  1.2257 -1.1735 -0.6172
12975SOL    HW248856   9.651   3.696   7.603 -1.1725  0.4943 -0.1647
12976SOL     OW48857  10.202   6.381   5.662  0.0434  0.3288 -0.4205
12976SOL    HW148858  10.229   6.466   5.697 -0.5901 -1.0418  4.1553
12976SOL    HW248859  10.282   6.329   5.662 -0.2847 -0.2291  1.0888
12977SOL     OW48860   8.913   7.474  12.980  0.2929  0.0397  0.0433
12977SOL    HW148861   8.860   7.512  12.910 -0.0208 -1.6355 -0.6668
12977SOL    HW248862   8.850   7.453  13.049  0.2321 -0.6428 -0.2174
12978SOL     OW48863   7.557   0.114   2.905 -0.3501 -0.1354  0.1463
12978SOL    HW148864   7.634   0.066   2.937  0.1036  0.4247 -0.0775
12978SOL    HW248865   7.537   0.074   2.820 -0.9396 -0.9555  0.6537
12979SOL     OW48866   0.181   7.368   7.767  0.6931 -0.5788 -0.1149
12979SOL    HW148867   0.270   7.342   7.790  0.8319 -1.5177 -1.6012
12979SOL    HW248868   0.139   7.288   7.736 -0.4595 -0.0168 -0.0749
12980SOL     OW48869   1.961   7.985   1.277 -0.8644  0.1556  0.0036
12980SOL    HW148870   1.991   8.072   1.302 -0.4482 -0.3639  1.4529
12980SOL    HW248871   2.035   7.946   1.230 -0.2224 -0.1583  1.2237
12981SOL     OW48872   4.094   1.068   0.832 -0.2800  0.4914  0.0350
12981SOL    HW148873   4.106   0.975   0.814  1.9017  0.6297  0.5631
12981SOL    HW248874   4.001   1.076   0.855 -0.4779 -1.5629  0.1154
12982SOL     OW48875   6.773  12.140  10.327  0.3481  0.3453 -0.2543
12982SOL    HW148876   6.686  12.109  10.350  0.8603 -1.6817 -0.8587
12982SOL    HW248877   6.759  12.201  10.255 -0.6929  1.5792  0.9406
12983SOL     OW48878   3.618   3.583   4.419  0.1128 -0.2525  0.4047
12983SOL    HW148879   3.530   3.609   4.447 -0.5838 -0.7143 -1.2232
12983SOL    HW248880   3.636   3.503   4.469  0.4043  0.8272  2.0985
12984SOL     OW48881   5.662   4.922   2.552 -0.8221  0.1229  0.1330
12984SOL    HW148882   5.706   5.006   2.559  0.9488 -0.8062  0.7880
12984SOL    HW248883   5.713   4.863   2.609 -1.9104 -1.4245 -0.4151
12985SOL     OW48884   0.924   8.696  10.815 -0.4075 -0.5491 -0.0731
12985SOL    HW148885   0.913   8.621  10.757 -0.3975 -0.0681 -0.7116
12985SOL    HW248886   0.894   8.665  10.901 -4.0196 -0.1956 -1.0550
12986SOL     OW48887  12.862   3.353   1.352  0.6676 -0.1234 -1.1997
12986SOL    HW148888  12.850   3.397   1.437 -0.3548 -1.8997 -0.3800
12986SOL    HW248889  12.799   3.395   1.294 -1.3096 -1.3518 -0.0578
12987SOL     OW48890   3.209  10.491   1.416  0.4368 -0.0601  0.0172
12987SOL    HW148891   3.186  10.583   1.429 -1.2023 -0.4187 -0.1938
12987SOL    HW248892   3.260  10.468   1.494  1.1149  1.0822 -0.0607
12988SOL     OW48893   9.708   6.607  12.042 -0.2143 -0.3636 -0.0621
12988SOL    HW148894   9.789   6.635  12.084 -1.1154 -1.2205  2.3777
12988SOL    HW248895   9.648   6.681  12.051 -0.1213 -0.1956 -0.7432
12989SOL     OW48896   4.336   7.457   6.377 -0.2026 -0.0790  0.4770
12989SOL    HW148897   4.402   7.504   6.428  0.3965  1.4469 -1.5509
12989SOL    HW248898   4.299   7.524   6.319  1.4437 -2.2017 -3.3678
12990SOL     OW48899   7.019   0.288   0.850  0.2105 -0.3412 -0.4761
12990SOL    HW148900   6.974   0.268   0.933  0.3657 -3.0119 -0.9394
12990SOL    HW248901   6.949   0.291   0.785  0.2147  0.5296 -0.4460
12991SOL     OW48902   5.897   2.786   5.683  0.0164 -0.1066  0.4855
12991SOL    HW148903   5.960   2.857   5.671 -0.8153  0.7205  0.8476
12991SOL    HW248904   5.915   2.753   5.771 -0.3418  0.4321  0.7663
12992SOL     OW48905  12.064   2.869   9.283 -0.1783  0.8212  0.0653
12992SOL    HW148906  11.993   2.841   9.225  0.0681 -0.6246  0.4072
12992SOL    HW248907  12.053   2.815   9.361  0.2188  1.8777  0.8738
12993SOL     OW48908   9.882   7.343   7.116 -0.2915 -0.2283  0.2601
12993SOL    HW148909   9.973   7.328   7.142 -0.4044 -1.9548 -0.2299
12993SOL    HW248910   9.832   7.330   7.197 -0.4291 -3.3364 -0.2094
12994SOL     OW48911   9.102   8.288  11.554 -0.1303  0.0699 -0.0167
12994SOL    HW148912   9.118   8.193  11.550  0.8857  0.2614 -2.3910
12994SOL    HW248913   9.189   8.326  11.564 -0.4647  0.7982  0.1596
12995SOL     OW48914   4.438   9.663   2.596 -0.2247  0.0689  0.0241
12995SOL    HW148915   4.440   9.757   2.581  1.2313  0.4815  2.2623
12995SOL    HW248916   4.522   9.631   2.562 -0.7705 -0.4659 -0.8552
12996SOL     OW48917   3.240  10.198   0.730  0.4021 -0.5101  0.5791
12996SOL    HW148918   3.228  10.136   0.658 -0.1918  0.1535  0.0745
12996SOL    HW248919   3.269  10.279   0.686 -2.0751  0.5842  0.7613
12997SOL     OW48920   9.976   6.362   4.943  0.3138 -0.1421  0.4141
12997SOL    HW148921   9.886   6.396   4.939  0.1231 -0.5285  1.1459
12997SOL    HW248922  10.022   6.425   4.999  0.3975 -0.1568  0.3608
12998SOL     OW48923   5.664  11.781  12.947 -0.4265  0.0313  0.4171
12998SOL    HW148924   5.628  11.692  12.954  0.9533 -0.5432  0.5096
12998SOL    HW248925   5.693  11.802  13.035 -1.0160  0.7151  0.4573
12999SOL     OW48926  10.179   1.046   1.237  0.1951 -0.4175 -0.4960
12999SOL    HW148927  10.267   1.073   1.264 -0.1935 -0.7065  1.1758
12999SOL    HW248928  10.180   0.951   1.240  0.4001 -0.5194 -2.5098
13000SOL     OW48929   4.794   2.258  12.488 -0.2956 -0.0253  0.3649
13000SOL    HW148930   4.833   2.205  12.558 -1.3764  0.1853  1.1533
13000SOL    HW248931   4.811   2.208  12.408  1.6792  0.1189  0.6284
13001SOL     OW48932   5.772  10.610   8.697  0.1335 -0.7266  0.6793
13001SOL    HW148933   5.813  10.663   8.630 -0.8499 -0.9955 -0.1669
13001SOL    HW248934   5.680  10.605   8.671 -0.2655 -0.8806  2.0220
13002SOL     OW48935   9.880  11.969   5.025 -0.0138 -0.1221 -0.6961
13002SOL    HW148936   9.856  11.952   5.117 -0.9238  0.0474 -0.8890
13002SOL    HW248937   9.924  11.889   4.997  3.6853  1.1238  0.9348
13003SOL     OW48938  13.222   8.458   6.862 -0.7972 -0.3652  0.2114
13003SOL    HW148939  13.267   8.542   6.869 -0.8614 -0.3015 -0.1187
13003SOL    HW248940  13.136   8.479   6.826 -1.1663 -0.4658  1.0009
13004SOL     OW48941  13.009   6.512  11.526  0.8843  0.5124  0.1576
13004SOL    HW148942  13.011   6.546  11.616  1.2572  0.1783  0.2756
13004SOL    HW248943  12.919   6.530  11.496 -0.4064 -2.4514  1.8098
13005SOL     OW48944  11.539   1.950   9.073  0.3907  0.6238 -0.1841
13005SOL    HW148945  11.505   2.029   9.116 -1.1298 -0.7498  1.2911
13005SOL    HW248946  11.634   1.956   9.083  0.3269  2.3432 -0.2715
13006SOL     OW48947   1.659   4.866  10.439  0.1177  0.3621  0.2972
13006SOL    HW148948   1.632   4.831  10.524 -3.1944  0.1937 -0.7037
13006SOL    HW248949   1.681   4.957  10.456  0.1383  0.1609  1.4142
13007SOL     OW48950   8.912  10.122   7.438 -0.2114  0.1175  0.2032
13007SOL    HW148951   8.876  10.087   7.356 -0.2287 -0.5979  0.5102
13007SOL    HW248952   9.004  10.097   7.436  0.0206  0.9552 -0.0476
13008SOL     OW48953   9.450  13.252  12.850  0.1378 -0.0766  0.4655
13008SOL    HW148954   9.377  13.314  12.854  0.5885  0.4091  2.0717
13008SOL    HW248955   9.420  13.184  12.790 -0.8434  1.0974 -0.4213
13009SOL     OW48956   7.733  12.190   5.015  0.0272  0.2496 -0.5404
13009SOL    HW148957   7.825  12.176   4.989  0.1590 -0.2522  0.1537
13009SOL    HW248958   7.724  12.140   5.096 -0.5547  1.2203  0.0140
13010SOL     OW48959  13.213   8.261   2.168  0.3281  0.2211 -0.3089
13010SOL    HW148960  13.272   8.212   2.110  3.1874  1.6069  1.1879
13010SOL    HW248961  13.134   8.274   2.117  0.9778 -2.4135 -2.2126
13011SOL     OW48962   0.559   0.577   6.591  0.4650 -0.4691 -0.3758
13011SOL    HW148963   0.645   0.618   6.581  0.0476  0.5828  0.2303
13011SOL    HW248964   0.560   0.503   6.529  0.7788  1.1692 -2.4208
13012SOL     OW48965   3.806   5.134   6.929  0.1681 -0.1942  0.0892
13012SOL    HW148966   3.813   5.068   6.999  0.5960 -0.6955 -0.4163
13012SOL    HW248967   3.858   5.208   6.961  2.1643 -1.2316 -0.5975
13013SOL     OW48968   0.407   4.507   8.609  0.3315  0.1256 -0.3479
13013SOL    HW148969   0.367   4.434   8.563 -1.6354  0.0169  1.3635
13013SOL    HW248970   0.348   4.524   8.683  1.6824  2.2658  0.3431
13014SOL     OW48971   0.320   0.373   4.667  0.0276 -0.2327 -0.0366
13014SOL    HW148972   0.383   0.308   4.637  0.0375 -0.8891  1.3456
13014SOL    HW248973   0.238   0.325   4.676 -0.2707  0.2377 -0.1843
13015SOL     OW48974  13.303   8.280  13.073 -0.1206  0.0134  0.2600
13015SOL    HW148975  13.393   8.247  13.074 -0.1220 -0.0630 -0.7357
13015SOL    HW248976  13.283   8.289  12.980 -0.6690  1.3483  0.4933
13016SOL     OW48977  11.630  10.180   8.155  0.2451 -0.3615  0.0029
13016SOL    HW148978  11.588  10.102   8.118  1.2384 -0.8706 -0.0866
13016SOL    HW248979  11.571  10.252   8.132 -1.4145 -1.2490  1.3117
13017SOL     OW48980  11.942  10.703  13.205  0.2343  0.2282 -0.3767
13017SOL    HW148981  11.954  10.645  13.281 -1.8823  0.7478  0.4153
13017SOL    HW248982  11.983  10.656  13.132  0.2364 -1.3890  0.6230
13018SOL     OW48983  11.856  12.116   0.923 -0.0459 -0.1084  0.0980
13018SOL    HW148984  11.766  12.147   0.934 -0.2164 -0.5804  0.0390
13018SOL    HW248985  11.900  12.186   0.874 -0.4135  0.0612  0.0126
13019SOL     OW48986   3.075   2.357   2.131  0.4107 -0.6717 -0.3982
13019SOL    HW148987   3.082   2.267   2.099  0.3484 -1.0284  0.5672
13019SOL    HW248988   2.998   2.393   2.087  0.1846 -1.2243 -0.4531
13020SOL     OW48989   6.474   3.878   7.743 -0.1821  0.3696  0.2515
13020SOL    HW148990   6.386   3.896   7.709 -0.4657 -0.6522  0.3924
13020SOL    HW248991   6.509   3.963   7.766 -1.7570  0.6941  1.6944
13021SOL     OW48992   5.435  11.629   9.085  0.2231 -0.3552  0.0336
13021SOL    HW148993   5.506  11.589   9.134  1.4372  1.5823 -0.0457
13021SOL    HW248994   5.362  11.633   9.146  1.0710  0.1508  1.0418
13022SOL     OW48995   4.613   3.675   4.390  0.4691 -0.0341  0.2278
13022SOL    HW148996   4.692   3.640   4.349 -0.0525 -1.0413  0.0723
13022SOL    HW248997   4.647   3.733   4.459  1.3471 -0.7119  0.3882
13023SOL     OW48998   4.452   6.253   8.590 -0.4529 -0.2870  0.2828
13023SOL    HW148999   4.503   6.332   8.572 -0.9044  0.2643  1.2899
13023SOL    HW249000   4.500   6.182   8.547  0.1346  0.4924 -0.3654
13024SOL     OW49001   4.086   6.970  10.784  0.3056 -0.0005 -0.3523
13024SOL    HW149002   4.097   7.053  10.739 -0.7496  0.1558 -0.3566
13024SOL    HW249003   4.072   6.906  10.715 -1.1159  0.2070 -0.2889
13025SOL     OW49004   7.602   0.873   6.060 -0.3652 -0.6204  0.0112
13025SOL    HW149005   7.569   0.783   6.064 -0.8007 -0.4247  1.6727
13025SOL    HW249006   7.661   0.880   6.136  1.8479 -0.2927 -1.6269
13026SOL     OW49007   6.439   3.265  10.574 -0.1502  0.5434 -0.0046
13026SOL    HW149008   6.371   3.207  10.607  0.9785 -0.6237  0.3680
13026SOL    HW249009   6.438   3.340  10.634 -2.5925  1.7002 -1.3334
13027SOL     OW49010   5.792   1.006  11.412 -0.1338  0.1988 -0.1889
13027SOL    HW149011   5.744   0.971  11.487 -1.5540  1.6507 -0.3854
13027SOL    HW249012   5.791   0.935  11.348  0.0769 -0.6384  0.7153
13028SOL     OW49013   1.244   1.958  12.545 -0.0181 -0.7064 -0.0858
13028SOL    HW149014   1.183   1.892  12.577 -1.7037  1.5529  1.7002
13028SOL    HW249015   1.205   1.989  12.463 -1.3032  0.6697  1.0074
13029SOL     OW49016  10.475   6.783   3.783  0.1345  0.2254  0.4587
13029SOL    HW149017  10.469   6.702   3.732  1.2942 -0.2221  1.0118
13029SOL    HW249018  10.417   6.768   3.858  0.5822 -0.2207  0.7213
13030SOL     OW49019   7.117   5.955  12.684  0.7191  0.2779 -0.1637
13030SOL    HW149020   7.206   5.951  12.648  1.8031  0.8868  2.2342
13030SOL    HW249021   7.092   6.047  12.674  0.4909  0.1773 -0.5271
13031SOL     OW49022   6.161   5.674   1.267 -0.2680  0.1187 -0.8166
13031SOL    HW149023   6.243   5.654   1.222 -0.4045  0.3377 -1.1634
13031SOL    HW249024   6.147   5.767   1.252 -1.2169 -0.1695 -1.8045
13032SOL     OW49025  10.840  12.335   5.159 -0.2542 -0.5433 -0.2661
13032SOL    HW149026  10.897  12.343   5.235  1.0443 -2.3545 -0.9739
13032SOL    HW249027  10.896  12.353   5.084 -1.0723 -0.5214 -0.8921
13033SOL     OW49028   2.738   9.172   4.276 -1.0411  0.3443 -0.4232
13033SOL    HW149029   2.723   9.107   4.207 -1.8064  0.5722 -0.4768
13033SOL    HW249030   2.834   9.177   4.283 -0.7636 -3.4182  2.0529
13034SOL     OW49031   2.680  10.561   7.165 -0.0132  0.2822  0.1103
13034SOL    HW149032   2.723  10.640   7.132  0.4951  1.5262  3.3880
13034SOL    HW249033   2.748  10.494   7.162  0.2274  0.5422 -0.6143
13035SOL     OW49034  13.239   9.500   6.169  0.2349  0.0786 -0.0568
13035SOL    HW149035  13.188   9.509   6.089 -1.0734 -0.4642  0.6801
13035SOL    HW249036  13.327   9.478   6.140 -0.3703 -0.7432 -1.3322
13036SOL     OW49037  10.906  10.992  10.404 -0.8076 -0.1971  0.2089
13036SOL    HW149038  10.952  11.015  10.485 -0.2868  2.4656 -0.7613
13036SOL    HW249039  10.895  11.075  10.358 -1.1884 -1.6171 -2.4424
13037SOL     OW49040  11.414   2.160   0.166 -0.0316 -0.2956  0.2173
13037SOL    HW149041  11.344   2.200   0.114  0.0691 -0.9742 -0.4489
13037SOL    HW249042  11.407   2.203   0.252 -0.7139  0.2541 -0.1001
13038SOL     OW49043   5.396  11.686   9.692 -0.2029  0.0431  0.2275
13038SOL    HW149044   5.456  11.759   9.708 -0.6204  0.4469 -0.0175
13038SOL    HW249045   5.403  11.632   9.770  1.2309 -0.4508 -0.2033
13039SOL     OW49046   5.870   9.101   0.246  0.1364 -0.6947  0.1280
13039SOL    HW149047   5.894   9.170   0.184 -0.6259  1.3637  2.0136
13039SOL    HW249048   5.775   9.092   0.238 -0.2089  0.6961  1.9742
13040SOL     OW49049   3.124   4.709   4.342  0.3223 -0.1191  0.9629
13040SOL    HW149050   3.198   4.762   4.311 -0.6054  0.0889 -1.0518
13040SOL    HW249051   3.083   4.763   4.410  0.5356  0.9131  0.3033
13041SOL     OW49052   8.721   8.868  10.231 -0.2321 -0.3195 -0.5822
13041SOL    HW149053   8.709   8.962  10.221  1.6053  0.2398  1.7050
13041SOL    HW249054   8.661   8.829  10.167 -0.0935  2.3854 -2.5171
13042SOL     OW49055   2.725   3.652   1.391 -0.1421  0.1824  0.8814
13042SOL    HW149056   2.663   3.715   1.354  0.6573 -0.0220 -0.9540
13042SOL    HW249057   2.804   3.703   1.410 -0.1819  0.0915  1.2912
13043SOL     OW49058   1.861  13.010   5.569  0.4512  0.6509  0.0352
13043SOL    HW149059   1.784  12.968   5.607 -0.0556  2.9595  1.7983
13043SOL    HW249060   1.853  12.996   5.475 -0.6720 -1.4348  0.4082
13044SOL     OW49061   7.556  10.610  11.324 -0.4049 -0.8978 -0.2649
13044SOL    HW149062   7.506  10.582  11.247  1.8285 -1.4013 -1.6126
13044SOL    HW249063   7.609  10.683  11.293 -0.0371 -0.5933  1.0282
13045SOL     OW49064   8.165   7.893  10.315  0.1907 -0.0166  0.4106
13045SOL    HW149065   8.144   7.928  10.402  1.6316 -0.7854  1.1123
13045SOL    HW249066   8.093   7.834  10.295  0.1179 -0.2553  1.3394
13046SOL     OW49067  13.041   0.622   7.711 -0.3938  0.0211 -0.0032
13046SOL    HW149068  12.980   0.548   7.709  0.0221 -0.3514 -2.4399
13046SOL    HW249069  13.118   0.591   7.663  1.6057  0.6207  2.6128
13047SOL     OW49070   6.959   3.651   4.612  0.3070  0.0623 -0.0616
13047SOL    HW149071   6.950   3.600   4.532  0.7809  0.7368 -0.5504
13047SOL    HW249072   6.907   3.730   4.597 -2.5683 -1.2982  1.6485
13048SOL     OW49073  10.842   9.695   9.094 -0.1157 -0.2540  0.2789
13048SOL    HW149074  10.822   9.619   9.149  2.9789 -1.1087  0.3620
13048SOL    HW249075  10.885   9.757   9.152  1.7868 -0.5173 -0.7809
13049SOL     OW49076   1.494   2.874  12.653  0.5418 -0.1172  0.9285
13049SOL    HW149077   1.452   2.916  12.728  0.1450 -1.0190  1.2192
13049SOL    HW249078   1.539   2.798  12.690  1.9019  0.4585  0.5270
13050SOL     OW49079   5.589   2.109   4.110  0.4079  0.2598 -0.4780
13050SOL    HW149080   5.540   2.176   4.157  0.5724  0.2599 -0.3075
13050SOL    HW249081   5.660   2.156   4.066  0.4995  0.2047 -0.3906
13051SOL     OW49082  11.823   3.005   1.482  0.1905  0.4291  0.2384
13051SOL    HW149083  11.861   2.940   1.542  0.4812  1.4656  1.2151
13051SOL    HW249084  11.868   2.991   1.399  1.1067  0.1664  0.7709
13052SOL     OW49085  10.785   1.570  12.619  0.3497  0.2348 -0.3048
13052SOL    HW149086  10.692   1.551  12.625  0.0658  1.8961  1.7535
13052SOL    HW249087  10.827   1.499  12.667  0.2003 -0.6495 -1.4453
13053SOL     OW49088   6.151   1.858  10.786 -0.0503 -0.1683  0.4726
13053SOL    HW149089   6.163   1.764  10.800  1.9087  0.2009  1.5528
13053SOL    HW249090   6.237   1.889  10.757 -1.1499  1.0062 -1.7881
13054SOL     OW49091  12.031   7.448   6.805 -0.2689  0.7136 -0.5323
13054SOL    HW149092  12.121   7.475   6.786  0.0218  0.3850  0.3036
13054SOL    HW249093  12.031   7.431   6.899 -1.4124  1.4650 -0.3778
13055SOL     OW49094  10.542   0.025   4.152 -0.0150 -0.3395 -0.4993
13055SOL    HW149095  10.486  -0.028   4.096 -0.0545 -2.6444  1.5617
13055SOL    HW249096  10.507   0.012   4.240  1.5340  1.1293  0.3835
13056SOL     OW49097   8.573   3.084   5.384  0.3978  0.5483  0.0068
13056SOL    HW149098   8.587   3.048   5.296 -0.3160 -0.7774  0.3989
13056SOL    HW249099   8.651   3.059   5.432  0.0192 -0.3211  0.2056
13057SOL     OW49100   1.960   1.247  11.690 -0.2894 -0.3982  0.0056
13057SOL    HW149101   1.931   1.315  11.628  0.4159  0.4665  0.5899
13057SOL    HW249102   2.018   1.294  11.750  1.2409 -1.7817 -0.3284
13058SOL     OW49103   3.407   7.133  10.172  0.4767 -0.2731 -0.0177
13058SOL    HW149104   3.321   7.159  10.205 -0.0377 -2.1146  0.2229
13058SOL    HW249105   3.415   7.177  10.088  0.6230  2.3188  1.2629
13059SOL     OW49106   3.946   0.397   1.375 -0.5851  0.0497  0.4338
13059SOL    HW149107   3.890   0.473   1.388 -0.1442  0.9666 -2.3807
13059SOL    HW249108   3.912   0.356   1.295  1.7840 -0.2139 -0.5158
13060SOL     OW49109   4.123  11.277  11.692  0.4080  0.0510 -0.4929
13060SOL    HW149110   4.204  11.253  11.647 -0.3924 -0.4542 -1.7200
13060SOL    HW249111   4.118  11.216  11.765  0.4342 -0.8745 -1.2387
13061SOL     OW49112   9.792  12.948  11.845  0.0242  0.7380  0.1693
13061SOL    HW149113   9.770  12.918  11.756  0.0886 -0.5169  0.5558
13061SOL    HW249114   9.717  13.000  11.872 -0.4888  0.2143 -0.2132
13062SOL     OW49115   5.403  12.323   0.174 -0.1973  0.4219  0.2785
13062SOL    HW149116   5.327  12.335   0.118 -1.5062 -3.0447  1.0865
13062SOL    HW249117   5.371  12.344   0.262 -0.2452 -0.9442  0.6077
13063SOL     OW49118   5.904   2.586  12.305  0.5596 -0.1883  0.1513
13063SOL    HW149119   5.939   2.599  12.217  2.0171 -0.8955  0.5999
13063SOL    HW249120   5.892   2.491  12.313  3.4955 -0.5463  1.7563
13064SOL     OW49121  13.138  10.538   4.990 -0.0246  0.3498  0.2530
13064SOL    HW149122  13.072  10.472   4.969 -0.5584  0.7105  0.7540
13064SOL    HW249123  13.204  10.491   5.041 -0.5399  0.2616  0.8421
13065SOL     OW49124   5.875   3.812   4.034 -0.3781  0.2688  0.4232
13065SOL    HW149125   5.873   3.785   4.127  0.7587  2.6771  1.2168
13065SOL    HW249126   5.965   3.840   4.020 -0.4108 -0.5297 -1.6126
13066SOL     OW49127   1.245   8.042   6.604 -0.0080  0.2099 -0.5791
13066SOL    HW149128   1.186   8.103   6.559  1.1931  0.8066 -1.3970
13066SOL    HW249129   1.229   8.058   6.697 -0.3410  1.1557 -0.7853
13067SOL     OW49130  10.652   3.040  13.174  0.5844  0.2899 -0.3131
13067SOL    HW149131  10.643   3.098  13.249 -1.2218 -0.0058 -0.2630
13067SOL    HW249132  10.746   3.022  13.169  0.8448  1.0340  1.3120
13068SOL     OW49133   6.327   6.821   2.755  0.5711 -0.5339  0.1623
13068SOL    HW149134   6.261   6.854   2.816  0.3774  0.4153 -0.5421
13068SOL    HW249135   6.379   6.897   2.731 -0.1831 -0.5739 -1.8688
13069SOL     OW49136   4.552   8.048   9.517 -0.0109  0.0799 -0.2724
13069SOL    HW149137   4.509   7.985   9.460 -0.4628 -0.1956  0.3556
13069SOL    HW249138   4.621   8.087   9.463  1.9805 -2.7394  0.0446
13070SOL     OW49139   6.037   5.345   5.228  0.1487 -0.2133  0.2590
13070SOL    HW149140   6.081   5.388   5.154 -2.6019 -0.1588 -1.4701
13070SOL    HW249141   5.996   5.417   5.276  0.2046 -0.4466  0.6653
13071SOL     OW49142  13.175   4.639   2.151 -0.0393 -0.1370  0.3718
13071SOL    HW149143  13.116   4.712   2.132  0.4217  0.1804  0.1678
13071SOL    HW249144  13.234   4.673   2.218  1.0794  0.1431 -0.7360
13072SOL     OW49145   5.348   6.255  12.244  0.1664 -0.0345 -0.2740
13072SOL    HW149146   5.359   6.172  12.291 -3.9759 -1.0529 -0.6784
13072SOL    HW249147   5.371   6.234  12.154  1.0173 -0.1563 -0.0376
13073SOL     OW49148  11.711   8.453   6.319 -0.3932 -0.1765  0.1700
13073SOL    HW149149  11.803   8.448   6.295 -0.3217  2.4288 -0.4680
13073SOL    HW249150  11.666   8.402   6.252  0.4961 -0.2237 -0.4105
13074SOL     OW49151  12.895   5.357   0.026 -0.1345 -0.0750 -0.3996
13074SOL    HW149152  12.934   5.278  -0.009 -0.0229 -0.6942  1.0430
13074SOL    HW249153  12.914   5.354   0.120 -2.1111  0.4941  0.0714
13075SOL     OW49154   8.402   8.156  10.374 -0.2069  0.0741  0.4274
13075SOL    HW149155   8.454   8.214  10.319 -0.0075 -0.5473 -0.0412
13075SOL    HW249156   8.320   8.143  10.326  0.3564 -1.2613 -0.2145
13076SOL     OW49157   8.253   6.587   9.877  0.0438  0.1321  0.7207
13076SOL    HW149158   8.281   6.655   9.815  0.3371 -1.6291 -1.2236
13076SOL    HW249159   8.323   6.583   9.941  1.0256  0.3290 -0.2973
13077SOL     OW49160   5.759   5.460   5.076 -0.2353 -0.5976  0.2452
13077SOL    HW149161   5.702   5.488   5.005  0.8415  0.5841 -0.1945
13077SOL    HW249162   5.783   5.370   5.053 -1.6762 -1.0159  0.3023
13078SOL     OW49163   1.879   9.207  11.949 -0.3155 -0.5675  0.2718
13078SOL    HW149164   1.805   9.266  11.963  0.8576  1.7099 -2.2219
13078SOL    HW249165   1.957   9.262  11.959  0.8866 -1.8944 -1.1639
13079SOL     OW49166   0.738   4.974   7.148  0.0298 -0.0131 -0.4654
13079SOL    HW149167   0.755   4.956   7.240  0.0198  2.0446 -0.0155
13079SOL    HW249168   0.651   5.014   7.147 -1.1302 -2.3800 -1.7174
13080SOL     OW49169   6.292   7.630  11.370 -0.3852  0.5783 -0.1464
13080SOL    HW149170   6.220   7.691  11.388 -0.1753  1.2365 -1.4223
13080SOL    HW249171   6.362   7.686  11.336  0.3887 -0.1841  0.1634
13081SOL     OW49172   3.022   1.474   3.735  0.4678 -0.1503 -0.1613
13081SOL    HW149173   3.117   1.464   3.745  0.9103  0.8945 -2.7121
13081SOL    HW249174   2.990   1.484   3.825  3.2302  3.0426  0.6838
13082SOL     OW49175  12.479  10.469   8.577 -0.2482 -0.5078  0.5597
13082SOL    HW149176  12.425  10.456   8.655 -2.7817 -0.9315 -1.1422
13082SOL    HW249177  12.428  10.530   8.523  2.2605  1.2022 -0.0651
13083SOL     OW49178   9.905   8.172   9.019  0.3920  0.0118 -0.7608
13083SOL    HW149179  10.000   8.166   9.022  0.5656  1.6119 -1.7904
13083SOL    HW249180   9.880   8.197   9.109  0.7348 -2.1087 -0.0187
13084SOL     OW49181   4.171   5.346  13.271 -0.3587  0.0085  0.0781
13084SOL    HW149182   4.202   5.415  13.330  0.9979 -0.3827 -0.1558
13084SOL    HW249183   4.179   5.385  13.184  0.6824 -0.5152 -0.0774
13085SOL     OW49184  11.791   6.654   6.742 -0.8761  0.1921  0.0935
13085SOL    HW149185  11.742   6.736   6.736 -2.2121 -0.6504 -1.1565
13085SOL    HW249186  11.878   6.676   6.710 -0.7892  1.4180  1.1024
13086SOL     OW49187   1.784   6.755  11.071 -0.1873  0.0694 -0.0840
13086SOL    HW149188   1.769   6.660  11.065  0.9702 -0.0559 -1.4485
13086SOL    HW249189   1.871   6.763  11.109 -0.9675  0.6650  1.6941
13087SOL     OW49190   5.085   6.581   5.107  0.0296 -0.3329  0.3810
13087SOL    HW149191   5.048   6.661   5.145 -0.1982 -0.1021 -0.3089
13087SOL    HW249192   5.172   6.607   5.076 -0.6904  0.1277 -1.3994
13088SOL     OW49193   8.629   1.927  11.493  0.3253 -0.3893  0.7046
13088SOL    HW149194   8.629   1.852  11.553  1.3447  0.6664  2.0952
13088SOL    HW249195   8.541   1.964  11.502  0.6800  0.1770  2.1602
13089SOL     OW49196   3.606   9.563   7.744 -0.5993 -0.0539  0.1456
13089SOL    HW149197   3.597   9.547   7.651  1.6196 -0.6954 -0.0236
13089SOL    HW249198   3.560   9.645   7.759 -1.0150  0.0471 -1.5010
13090SOL     OW49199   9.745   9.974   2.171 -0.5262  0.0198 -0.6002
13090SOL    HW149200   9.792   9.939   2.248  0.2046 -0.9445 -1.4592
13090SOL    HW249201   9.694  10.047   2.206  0.5867  0.2602  0.6248
13091SOL     OW49202  10.122   1.741   2.761  0.0311 -0.2545  0.7817
13091SOL    HW149203  10.137   1.666   2.704  1.0229  0.8886 -0.5414
13091SOL    HW249204  10.188   1.805   2.733 -0.9368  1.1923  1.7068
13092SOL     OW49205   6.799   6.261  11.938  0.1922  0.0428  0.7633
13092SOL    HW149206   6.812   6.348  11.976 -0.1777  0.3735  0.1592
13092SOL    HW249207   6.884   6.218  11.949  0.6635  0.8069  0.2652
13093SOL     OW49208   0.505   9.218   6.167 -0.3592 -0.1384 -0.3660
13093SOL    HW149209   0.434   9.198   6.105 -0.9275 -1.1970  0.5769
13093SOL    HW249210   0.460   9.253   6.243  0.3537  1.3304 -0.5974
13094SOL     OW49211   4.488   3.634   2.243 -0.3822 -0.0809  0.4844
13094SOL    HW149212   4.472   3.728   2.240  0.2338  0.0926  1.9513
13094SOL    HW249213   4.511   3.610   2.153  0.9010  1.4296  0.3750
13095SOL     OW49214  11.410   3.528   6.306  0.8359 -0.0404  0.3721
13095SOL    HW149215  11.448   3.448   6.271 -0.9466 -0.9407  0.3883
13095SOL    HW249216  11.320   3.504   6.329  0.6444  1.6292  1.5817
13096SOL     OW49217  12.110  12.918   5.364  0.4465 -0.4532  0.4358
13096SOL    HW149218  12.181  12.957   5.414 -0.2626  1.5160 -0.0172
13096SOL    HW249219  12.033  12.971   5.385 -0.8439 -2.2978  0.6308
13097SOL     OW49220   0.198   6.504   3.219  0.3061 -0.3279 -0.1843
13097SOL    HW149221   0.224   6.437   3.155 -1.2972 -0.0966 -1.1537
13097SOL    HW249222   0.102   6.508   3.211  0.0878 -0.0454  2.0283
13098SOL     OW49223   5.537   2.784   0.743 -0.2368 -0.0911 -0.4989
13098SOL    HW149224   5.614   2.737   0.775  1.3484  1.0535 -2.3816
13098SOL    HW249225   5.480   2.715   0.709  0.6541 -0.8822 -0.4435
13099SOL     OW49226   3.902   5.486  10.057  0.3674  0.3621  0.4090
13099SOL    HW149227   3.942   5.425  10.119 -1.4121 -0.6915  0.5710
13099SOL    HW249228   3.867   5.430   9.988 -2.2234  1.0483  1.0616
13100SOL     OW49229  12.655   9.556   8.625 -0.1696 -0.1234 -0.4252
13100SOL    HW149230  12.661   9.640   8.578  1.3502 -0.9041 -1.7282
13100SOL    HW249231  12.697   9.493   8.567 -1.7709 -1.9359  0.2721
13101SOL     OW49232   2.023   3.385   6.317  0.1051 -0.4946  0.3978
13101SOL    HW149233   2.096   3.445   6.317  0.0536 -0.3518  2.5619
13101SOL    HW249234   1.952   3.433   6.274  0.4000  0.5459  1.0407
13102SOL     OW49235  12.655   5.750   9.310 -0.5217  0.5862 -0.3135
13102SOL    HW149236  12.610   5.788   9.385 -0.2368 -0.0261  0.1721
13102SOL    HW249237  12.735   5.711   9.346 -0.2821  0.4573 -0.9593
13103SOL     OW49238   0.048  10.678  12.500  0.2013  0.1757 -0.1196
13103SOL    HW149239   0.070  10.662  12.592  1.4026 -0.3445 -0.4746
13103SOL    HW249240  -0.034  10.727  12.503 -0.0391 -0.2628  1.2115
13104SOL     OW49241  12.684   7.657   0.458 -0.1034  0.2875  0.4330
13104SOL    HW149242  12.610   7.683   0.403  0.3074 -0.6271 -0.5942
13104SOL    HW249243  12.736   7.737   0.468  0.7750  0.1240 -2.0764
13105SOL     OW49244   0.964   1.970   4.076 -0.2982 -0.7571  0.2152
13105SOL    HW149245   0.909   2.048   4.064 -1.4019 -1.6964 -1.2262
13105SOL    HW249246   1.052   1.999   4.052 -0.7996 -0.0813 -0.9103
13106SOL     OW49247   3.555   7.914   8.642 -0.6120  0.1746 -0.0535
13106SOL    HW149248   3.524   7.979   8.578 -0.9892 -0.0625 -0.1146
13106SOL    HW249249   3.632   7.954   8.682 -0.8541  0.6668 -0.0779
13107SOL     OW49250  12.338   8.981   1.441  0.2629  0.4653  0.0466
13107SOL    HW149251  12.351   8.922   1.515  0.0458  1.6281  1.0394
13107SOL    HW249252  12.421   8.977   1.393  0.2911 -0.5517  0.1623
13108SOL     OW49253   4.572   7.547   6.537 -0.1261  0.3022 -0.2410
13108SOL    HW149254   4.609   7.485   6.474 -0.5506  0.2863 -0.4797
13108SOL    HW249255   4.608   7.519   6.621 -0.5600 -0.4720 -0.3041
13109SOL     OW49256   8.845  11.409   5.799  0.4690  0.1601  0.0769
13109SOL    HW149257   8.835  11.458   5.880 -3.0138 -0.8963  0.4873
13109SOL    HW249258   8.835  11.317   5.825 -2.1844 -0.1340 -1.5741
13110SOL     OW49259   1.711   8.065   9.405  0.2007  0.8361  0.4040
13110SOL    HW149260   1.734   8.156   9.425  0.5709  1.2464 -1.6664
13110SOL    HW249261   1.615   8.065   9.403  0.1946  1.1471  0.5970
13111SOL     OW49262  12.398   2.142   2.109  0.1081 -0.4803 -0.7982
13111SOL    HW149263  12.349   2.171   2.032 -1.4144 -1.6362 -0.3192
13111SOL    HW249264  12.481   2.111   2.075  0.1812  0.6993 -1.7504
13112SOL     OW49265   1.202   0.938  11.513  0.1824 -0.0949 -0.4005
13112SOL    HW149266   1.186   0.990  11.434 -0.1655  2.0355  1.0035
13112SOL    HW249267   1.293   0.955  11.535  0.5980 -1.5235 -0.8610
13113SOL     OW49268   5.572   3.056   5.603  0.1957 -0.2970  0.1984
13113SOL    HW149269   5.558   3.118   5.675  0.7283 -1.0355  0.9609
13113SOL    HW249270   5.594   2.974   5.647 -0.8094 -1.1172 -0.7813
13114SOL     OW49271   5.251  11.822   4.659  0.3862 -0.3724  0.2485
13114SOL    HW149272   5.257  11.770   4.579  0.9238 -0.8238  0.5757
13114SOL    HW249273   5.341  11.852   4.674 -0.0931  1.6815 -0.6019
13115SOL     OW49274   8.509   7.467   7.776 -0.4454  0.1615 -0.1796
13115SOL    HW149275   8.437   7.405   7.778 -1.8264  1.6962  1.5043
13115SOL    HW249276   8.506   7.505   7.688 -1.1551 -0.3887 -0.3962
13116SOL     OW49277   0.031   6.885   2.420  0.1636  0.0564 -0.0173
13116SOL    HW149278  -0.054   6.900   2.380 -0.6360  0.0531  1.5835
13116SOL    HW249279   0.054   6.795   2.395 -1.1478 -0.5834  0.9048
13117SOL     OW49280  11.696   5.864   2.106 -0.0290  0.5633  0.4217
13117SOL    HW149281  11.695   5.959   2.107  0.2525  0.5708  1.7481
13117SOL    HW249282  11.781   5.841   2.067 -0.0514  0.8466  0.2054
13118SOL     OW49283  12.698   8.730   6.132  0.2870 -0.2453 -0.3236
13118SOL    HW149284  12.766   8.682   6.180  0.1543  1.1658  1.4050
13118SOL    HW249285  12.669   8.669   6.064  2.4185 -1.3355 -0.3504
13119SOL     OW49286  11.269  10.599   7.784  0.4632 -0.5288 -0.0651
13119SOL    HW149287  11.290  10.660   7.856  0.9477  0.6814 -1.1945
13119SOL    HW249288  11.303  10.642   7.706 -1.4137 -1.0957 -1.2490
13120SOL     OW49289   3.048   1.566  11.485  0.4932  0.1542 -0.2567
13120SOL    HW149290   3.027   1.517  11.406 -0.3317 -0.8078  0.5284
13120SOL    HW249291   3.074   1.653  11.453  1.1225 -0.5079 -1.6183
13121SOL     OW49292  10.885   2.188  11.742  0.4261 -0.0034  0.0043
13121SOL    HW149293  10.979   2.169  11.744  0.5883  0.1500 -2.6582
13121SOL    HW249294  10.879   2.280  11.767  0.8453 -0.2642  1.1456
13122SOL     OW49295  12.141   2.557   6.901  0.4310  0.3031 -0.1037
13122SOL    HW149296  12.105   2.641   6.874 -2.0021 -0.1771  1.3522
13122SOL    HW249297  12.080   2.492   6.867  0.6001 -0.6647  1.3584
13123SOL     OW49298  12.997   9.733   1.946 -0.2881  0.0682  0.3711
13123SOL    HW149299  13.071   9.751   1.888 -0.0748 -1.9778 -0.0696
13123SOL    HW249300  13.024   9.772   2.030  2.1607 -2.0695  0.7252
13124SOL     OW49301  11.640   3.790   1.977 -0.5976  0.2215 -0.2893
13124SOL    HW149302  11.634   3.859   2.043 -0.7856  0.6801 -0.7796
13124SOL    HW249303  11.552   3.755   1.970 -1.0512  1.5391 -1.7290
13125SOL     OW49304   5.776   8.639   9.484 -0.4264 -0.1766 -0.5357
13125SOL    HW149305   5.756   8.658   9.576  1.0778 -1.2644  0.0635
13125SOL    HW249306   5.750   8.548   9.472 -1.8109  0.3185 -1.5944
13126SOL     OW49307   8.794   7.247   7.360  0.1269 -0.0859  0.5860
13126SOL    HW149308   8.844   7.203   7.292 -0.4212  0.8131 -0.4377
13126SOL    HW249309   8.813   7.198   7.440 -0.5058 -2.2092 -0.4852
13127SOL     OW49310   8.063   4.476   0.900  0.3880 -0.1146  0.3676
13127SOL    HW149311   7.975   4.459   0.868  0.4816 -0.3260  0.2168
13127SOL    HW249312   8.118   4.473   0.822  0.2397  2.3196  0.0878
13128SOL     OW49313   8.075   9.838  13.278 -0.2606  0.7412 -0.2056
13128SOL    HW149314   8.093   9.792  13.360  0.9664 -2.7193 -2.1689
13128SOL    HW249315   8.139   9.909  13.275  1.2082 -0.4608  0.8903
13129SOL     OW49316   6.205   2.559   1.129  0.3466  0.6566  0.6042
13129SOL    HW149317   6.180   2.651   1.126 -1.5669  0.1490 -0.9962
13129SOL    HW249318   6.183   2.525   1.042  1.3178 -1.2471  1.0430
13130SOL     OW49319   1.166  10.384  12.555  0.3451 -0.2689 -0.2057
13130SOL    HW149320   1.081  10.402  12.596  1.5071  1.3647  1.6768
13130SOL    HW249321   1.164  10.290  12.536 -2.1637 -0.1416 -1.0141
13131SOL     OW49322   1.908  11.412   2.033  0.1952  0.3480  0.0022
13131SOL    HW149323   1.831  11.431   2.086  0.6140 -0.7277  1.0472
13131SOL    HW249324   1.976  11.469   2.069 -0.0527  1.1779 -0.8123
13132SOL     OW49325   3.368  11.308   4.150 -0.5853 -0.3300  0.0569
13132SOL    HW149326   3.342  11.341   4.064  1.0964 -1.4703 -0.9415
13132SOL    HW249327   3.384  11.387   4.202  0.7614  0.4323 -1.4434
13133SOL     OW49328   6.528   3.210  12.334  0.4712 -0.4215  0.2334
13133SOL    HW149329   6.562   3.122  12.351  0.0154 -0.5407  0.5762
13133SOL    HW249330   6.452   3.195  12.277  0.6862 -0.2050 -0.1128
13134SOL     OW49331   2.301   3.085   9.118 -0.2533  0.1893  0.2820
13134SOL    HW149332   2.220   3.133   9.133 -0.7007  0.0606 -1.4559
13134SOL    HW249333   2.280   2.995   9.141  0.0576  0.4877  1.8461
13135SOL     OW49334   4.784   4.487   6.044 -0.8789 -0.9276  0.2681
13135SOL    HW149335   4.692   4.509   6.056 -1.4082 -1.6894 -1.9165
13135SOL    HW249336   4.828   4.571   6.034 -1.4544 -0.5890  0.5512
13136SOL     OW49337  10.882  13.110  12.613  0.4960 -0.1436  0.7092
13136SOL    HW149338  10.879  13.115  12.708  0.5562 -1.0987  0.7720
13136SOL    HW249339  10.791  13.104  12.586  0.1433  3.6959  0.4242
13137SOL     OW49340   8.195   3.490  13.300 -0.3291  0.4024  0.1457
13137SOL    HW149341   8.110   3.517  13.333  0.4756  1.2700  1.5927
13137SOL    HW249342   8.248   3.569  13.301  1.2266 -0.6050  1.6943
13138SOL     OW49343   3.169  11.220   2.676 -0.5399  0.2165  0.7515
13138SOL    HW149344   3.120  11.149   2.634 -1.7681  0.0941  2.3227
13138SOL    HW249345   3.171  11.290   2.610  0.7293 -1.2233 -0.8420
13139SOL     OW49346   8.960   0.215  11.009 -0.4915  0.0080 -0.6260
13139SOL    HW149347   8.917   0.283  11.061 -1.0424  0.9106 -2.2095
13139SOL    HW249348   8.961   0.138  11.067 -0.5551  1.1221  0.9102
13140SOL     OW49349   6.680  11.109   4.780  0.5165  0.7821 -0.2636
13140SOL    HW149350   6.590  11.123   4.751  0.9409  1.8440 -1.2051
13140SOL    HW249351   6.679  11.025   4.825 -0.8046  0.4515 -0.8578
13141SOL     OW49352  10.410   9.944   3.574  0.1993 -0.0582 -0.1048
13141SOL    HW149353  10.468   9.872   3.597  1.0733  1.0246  1.1803
13141SOL    HW249354  10.440  10.018   3.627 -2.5878  0.4585  0.9278
13142SOL     OW49355   6.377   3.420   3.243 -0.6465 -0.1904 -0.3399
13142SOL    HW149356   6.339   3.472   3.313  1.1601 -1.2250  1.5089
13142SOL    HW249357   6.451   3.472   3.211  1.0329 -1.3928  1.3717
13143SOL     OW49358  10.784   0.772   8.764  0.6139  0.4411 -0.1249
13143SOL    HW149359  10.719   0.812   8.821 -0.2499  0.2012 -0.9181
13143SOL    HW249360  10.782   0.824   8.684  2.3259  1.2097  0.2876
13144SOL     OW49361  12.056   7.886   6.739 -0.4823  0.4183  0.6098
13144SOL    HW149362  11.979   7.879   6.682  1.1702  2.0240 -2.0094
13144SOL    HW249363  12.130   7.864   6.683  1.2655  2.0591  2.1255
13145SOL     OW49364   9.065   4.194   7.689  0.0472  0.5618 -0.0339
13145SOL    HW149365   9.113   4.264   7.646  2.2584 -0.8779 -0.0810
13145SOL    HW249366   9.032   4.139   7.618 -0.4234  0.7485  0.0340
13146SOL     OW49367   9.295   7.595   5.900 -0.0544 -0.9789  0.0469
13146SOL    HW149368   9.327   7.657   5.835 -3.0427  0.0078 -0.6805
13146SOL    HW249369   9.336   7.623   5.982  3.3932 -1.9371 -1.1936
13147SOL     OW49370   7.201   5.723   5.017 -0.8397  0.2594 -0.4610
13147SOL    HW149371   7.201   5.699   5.109 -0.7214 -0.9339 -0.7535
13147SOL    HW249372   7.246   5.651   4.973 -0.0515  1.2506 -1.3453
13148SOL     OW49373   6.880   0.027   0.890  0.4831  0.3234  1.1082
13148SOL    HW149374   6.917  -0.052   0.852  0.3042  0.4059  0.7630
13148SOL    HW249375   6.788   0.008   0.902  0.0935  1.0206 -0.4643
13149SOL     OW49376   0.812   8.881   5.131 -0.2697  0.0363  0.0515
13149SOL    HW149377   0.861   8.812   5.175  2.1254  1.4628 -0.2310
13149SOL    HW249378   0.846   8.882   5.041 -0.6163  1.2379 -0.0870
13150SOL     OW49379   2.047   8.558   1.675  0.8579  0.5093  0.2246
13150SOL    HW149380   2.027   8.474   1.717 -1.7457  3.1236  5.1962
13150SOL    HW249381   2.142   8.561   1.669  1.0230 -2.7794 -0.3721
13151SOL     OW49382   9.891   2.066  11.539  0.2043  0.1231 -0.4141
13151SOL    HW149383   9.805   2.108  11.549  0.7726  1.4317 -0.8177
13151SOL    HW249384   9.871   1.972  11.532 -1.2449  0.4526 -1.1823
13152SOL     OW49385   1.357   1.833   6.580 -0.1934  0.2070  0.1208
13152SOL    HW149386   1.388   1.916   6.617  0.0317  1.2224 -2.1951
13152SOL    HW249387   1.262   1.843   6.574 -0.0804  0.7746 -1.1187
13153SOL     OW49388   6.397   3.419   4.090 -0.0438  0.0163  0.8055
13153SOL    HW149389   6.341   3.434   4.014  0.3341 -0.1187  0.5018
13153SOL    HW249390   6.362   3.338   4.129  0.9204 -0.9591 -0.2920
13154SOL     OW49391   4.061  11.147   9.192  0.1102 -0.2335 -0.0009
13154SOL    HW149392   3.999  11.094   9.241  1.2361 -0.3046  1.4327
13154SOL    HW249393   4.008  11.213   9.148 -1.0474 -0.8132  0.4995
13155SOL     OW49394   2.046  10.224  10.675  0.0339 -0.0776 -0.2874
13155SOL    HW149395   2.130  10.227  10.630  0.1255  1.2985 -0.0646
13155SOL    HW249396   2.066  10.187  10.761  0.8609  2.2379  0.6011
13156SOL     OW49397   0.781  10.929   9.201  0.2349  0.2237  0.7069
13156SOL    HW149398   0.846  10.947   9.134  0.5645 -1.0973  0.6393
13156SOL    HW249399   0.812  10.976   9.278  1.3753 -0.5138  0.7233
13157SOL     OW49400   1.846  10.555  12.120  0.3148  0.3087 -0.0798
13157SOL    HW149401   1.801  10.475  12.095 -0.3212  1.0708 -1.4424
13157SOL    HW249402   1.781  10.606  12.169  0.6962  0.0488  0.7241
13158SOL     OW49403   8.853   7.802   9.048  0.2355 -0.2139  0.1722
13158SOL    HW149404   8.797   7.869   9.087  0.1312 -0.1469 -0.0975
13158SOL    HW249405   8.794   7.731   9.025  0.5266 -1.0845  1.9015
13159SOL     OW49406   2.610  11.191   2.171  0.0105  0.2492  0.0424
13159SOL    HW149407   2.626  11.109   2.218 -0.1631  0.6888  0.8766
13159SOL    HW249408   2.552  11.166   2.099 -0.4288 -0.2804  0.5751
13160SOL     OW49409   3.338   5.180   4.136 -0.1196 -0.0942  0.0605
13160SOL    HW149410   3.381   5.102   4.101 -0.1822 -0.8455  1.5653
13160SOL    HW249411   3.389   5.253   4.102  0.4809 -0.8274 -0.6602
13161SOL     OW49412   2.671   9.747   0.854 -0.1249 -0.2005  0.6443
13161SOL    HW149413   2.677   9.816   0.788  1.1452 -1.2009 -0.3633
13161SOL    HW249414   2.653   9.793   0.936 -0.2194  1.2257 -0.1430
13162SOL     OW49415   8.677  11.659   6.292  0.5527  0.0884  0.1158
13162SOL    HW149416   8.680  11.565   6.309  0.0969 -0.0333 -0.4544
13162SOL    HW249417   8.767  11.689   6.307  0.9119 -0.5960 -0.5935
13163SOL     OW49418   3.540   6.225   7.449  0.0062 -0.0260 -0.4966
13163SOL    HW149419   3.534   6.261   7.537 -0.8100 -0.3287 -0.4183
13163SOL    HW249420   3.596   6.147   7.458  0.0220  0.0116 -0.2712
13164SOL     OW49421   2.551   2.989   5.111 -0.1946 -0.0944 -0.2642
13164SOL    HW149422   2.546   2.941   5.193 -1.2751 -1.7461 -1.2318
13164SOL    HW249423   2.470   2.966   5.065 -0.2203  1.8034 -1.2545
13165SOL     OW49424   0.092   7.560  12.608 -0.8726 -0.4967  0.4609
13165SOL    HW149425   0.030   7.489  12.594 -2.8587  1.2477 -0.2147
13165SOL    HW249426   0.049   7.616  12.673 -0.9922  1.7530 -1.4057
13166SOL     OW49427  10.687   4.081   3.852  0.0847  0.0237  0.5530
13166SOL    HW149428  10.608   4.066   3.904  0.2033 -0.6901  0.5344
13166SOL    HW249429  10.709   4.173   3.868 -0.4807  0.0999  0.9263
13167SOL     OW49430   1.372   5.394   8.036 -0.1078 -0.1230  0.2691
13167SOL    HW149431   1.453   5.344   8.028 -0.4418 -0.8432  1.1849
13167SOL    HW249432   1.327   5.380   7.953 -0.1270 -1.2589  0.4518
13168SOL     OW49433   0.740   4.610   4.116  0.3429 -0.3091  0.0353
13168SOL    HW149434   0.770   4.587   4.204  0.7565 -0.1828 -0.0674
13168SOL    HW249435   0.791   4.554   4.058  0.1356 -0.3292 -0.1251
13169SOL     OW49436  10.432  11.727  10.115 -0.4149 -0.8262  0.0476
13169SOL    HW149437  10.374  11.697  10.045 -1.0932  0.7545 -0.1095
13169SOL    HW249438  10.480  11.800  10.078 -0.7391  0.0017  1.1888
13170SOL     OW49439   0.952   8.312  12.618  0.4325 -0.5644 -0.1631
13170SOL    HW149440   1.036   8.267  12.609  1.0520  0.8063 -1.7788
13170SOL    HW249441   0.969   8.385  12.677 -0.3252 -1.7701  1.6379
13171SOL     OW49442   1.513   1.370  12.083 -0.1482 -0.0983 -0.1849
13171SOL    HW149443   1.581   1.434  12.059  1.2545 -1.2171  0.6462
13171SOL    HW249444   1.496   1.387  12.175 -1.0599  0.2176 -0.4094
13172SOL     OW49445   1.703   1.727   3.468 -0.1582 -0.1630 -0.0190
13172SOL    HW149446   1.619   1.739   3.514 -0.2423 -1.3141  0.1398
13172SOL    HW249447   1.692   1.647   3.417  1.1897 -0.9226  0.8119
13173SOL     OW49448  12.480   9.937   3.475 -0.0191 -0.4060  0.1070
13173SOL    HW149449  12.417  10.006   3.454 -1.1551 -1.4965 -0.1819
13173SOL    HW249450  12.563   9.968   3.437 -1.0331 -0.2953 -2.1558
13174SOL     OW49451   3.897   5.317   3.278 -0.2138 -0.2399 -0.0321
13174SOL    HW149452   3.978   5.296   3.323 -1.4846 -0.4463  2.3375
13174SOL    HW249453   3.843   5.360   3.345 -1.4323  1.4545 -1.9864
13175SOL     OW49454  12.600  11.350   1.531 -0.2511 -0.0224  0.0897
13175SOL    HW149455  12.681  11.402   1.525 -0.6651  0.6674  0.3139
13175SOL    HW249456  12.618  11.272   1.479 -0.1389  1.0495 -1.5608
13176SOL     OW49457   4.172   8.744   5.116  0.4367 -0.5597  0.3900
13176SOL    HW149458   4.116   8.723   5.041 -0.7521 -2.5564  1.7329
13176SOL    HW249459   4.244   8.680   5.111  0.6838 -0.3026  0.6190
13177SOL     OW49460   3.451  11.701   9.136  0.8250  0.2080  0.2628
13177SOL    HW149461   3.473  11.617   9.177 -0.3316  0.1075  0.7151
13177SOL    HW249462   3.383  11.738   9.193 -1.4619 -0.3098 -1.9695
13178SOL     OW49463   1.555  12.248   8.635 -0.1594  0.0066  0.5421
13178SOL    HW149464   1.528  12.332   8.597  0.0467  0.1431  0.6940
13178SOL    HW249465   1.522  12.250   8.725  0.8466  0.4265  0.9186
13179SOL     OW49466   1.893   5.421   2.477  0.1771 -0.0617  0.4353
13179SOL    HW149467   1.902   5.348   2.416 -1.4893 -0.3029  0.4309
13179SOL    HW249468   1.804   5.414   2.510  0.5242  1.0130  1.6960
13180SOL     OW49469   0.658  12.031  11.134  0.0603  0.5489  0.4710
13180SOL    HW149470   0.710  11.981  11.072  0.2614  0.7558  0.4725
13180SOL    HW249471   0.583  11.974  11.154  0.4305  0.1270  0.6904
13181SOL     OW49472   7.607  10.797   7.062 -0.8196  0.2576 -0.3065
13181SOL    HW149473   7.660  10.853   7.006  0.2267 -0.1725  0.2280
13181SOL    HW249474   7.563  10.737   7.002  0.3453 -0.2515 -0.6799
13182SOL     OW49475   0.627   7.880  13.106  0.1916  0.3204 -0.8489
13182SOL    HW149476   0.590   7.867  13.193  1.2405  0.1591 -0.4136
13182SOL    HW249477   0.551   7.902  13.051 -0.4680  0.5553  0.1224
13183SOL     OW49478   6.507   7.864   6.853 -0.4716 -0.2338  0.0083
13183SOL    HW149479   6.589   7.842   6.897 -0.8285 -1.2581  0.1796
13183SOL    HW249480   6.439   7.848   6.918 -0.8603  0.1036 -0.3016
13184SOL     OW49481   8.455   0.397   1.113 -0.2998  0.0752 -0.2257
13184SOL    HW149482   8.525   0.442   1.161 -0.1370 -0.1399 -0.2580
13184SOL    HW249483   8.476   0.413   1.021  0.1430 -0.6375 -0.2521
13185SOL     OW49484   0.665  10.009   7.662  0.0720 -0.4548  0.1386
13185SOL    HW149485   0.607   9.987   7.734 -1.2029 -0.2916 -0.7998
13185SOL    HW249486   0.661  10.105   7.657  2.9519 -0.1200  2.0624
13186SOL     OW49487   9.535  12.922   1.223 -0.1218  0.6281 -0.7535
13186SOL    HW149488   9.537  12.884   1.311 -1.7287 -0.0836 -0.9920
13186SOL    HW249489   9.600  12.992   1.226 -0.0018  0.4885  0.9331
13187SOL     OW49490  12.600   1.577  10.746  0.0158  0.3114 -0.5885
13187SOL    HW149491  12.689   1.546  10.730 -0.3093 -0.8952 -0.2206
13187SOL    HW249492  12.610   1.668  10.774  1.0459  0.4993 -1.4995
13188SOL     OW49493   9.311   3.694   6.342 -0.6422  0.2406  0.3901
13188SOL    HW149494   9.291   3.753   6.416 -1.0202 -0.0140  0.4948
13188SOL    HW249495   9.370   3.628   6.379 -0.5527  0.3129  0.3766
13189SOL     OW49496   5.184  10.037   2.134  0.5957  0.2014 -0.4079
13189SOL    HW149497   5.119  10.107   2.145  2.9115  2.1459  2.8021
13189SOL    HW249498   5.220  10.051   2.046  1.0863  3.3337  0.1621
13190SOL     OW49499   4.280  12.815   9.278  0.6819 -0.2011  0.6015
13190SOL    HW149500   4.208  12.876   9.261  0.3887 -0.6850  0.0374
13190SOL    HW249501   4.337  12.825   9.202  0.3548 -1.0073  0.2374
13191SOL     OW49502   4.921  11.186   5.847  0.3783  0.2398  0.5887
13191SOL    HW149503   4.836  11.215   5.881 -0.0343  1.4158 -1.3024
13191SOL    HW249504   4.924  11.092   5.867 -2.2363 -0.2620 -0.9039
13192SOL     OW49505   7.250   3.576  13.067  0.1569 -0.4312  0.0345
13192SOL    HW149506   7.157   3.597  13.079  0.3444 -0.3844  1.6266
13192SOL    HW249507   7.249   3.490  13.024 -0.6339 -0.5810  0.3257
13193SOL     OW49508  10.509  10.878   1.941 -0.2442 -0.4312 -0.0481
13193SOL    HW149509  10.509  10.915   2.030 -0.6136  0.6476 -0.4742
13193SOL    HW249510  10.567  10.802   1.946 -0.3846 -0.4770  1.1527
13194SOL     OW49511  12.856   3.808   3.098 -0.6668 -0.1809  0.0349
13194SOL    HW149512  12.766   3.784   3.119 -1.2855  0.3950 -1.7465
13194SOL    HW249513  12.852   3.838   3.007  1.6601 -1.9859 -0.7784
13195SOL     OW49514   8.197  11.244   6.105  0.0241 -0.1389  0.0215
13195SOL    HW149515   8.272  11.230   6.047 -1.0601  0.4067 -1.5776
13195SOL    HW249516   8.206  11.177   6.173  1.8974 -0.1285 -0.1788
13196SOL     OW49517   6.087  12.001   5.406 -0.1410  0.7520  0.6020
13196SOL    HW149518   6.177  12.014   5.436  0.0302  1.5867 -0.2344
13196SOL    HW249519   6.039  12.076   5.442 -0.4704  0.3848  0.9273
13197SOL     OW49520  12.204   8.730   2.431 -0.1279 -0.2175  0.7564
13197SOL    HW149521  12.118   8.773   2.432  0.8223  1.8016  1.8913
13197SOL    HW249522  12.244   8.754   2.515  1.6273 -0.9417  0.1798
13198SOL     OW49523   9.434   2.198   3.100  0.2467  0.1361  0.0247
13198SOL    HW149524   9.459   2.120   3.052  2.6176 -0.3380  1.8116
13198SOL    HW249525   9.390   2.254   3.036 -0.5563 -2.1849 -1.5448
13199SOL     OW49526   0.685   4.451   1.881 -0.3508  1.1534 -0.7797
13199SOL    HW149527   0.743   4.514   1.838  0.6779 -0.4703 -1.8907
13199SOL    HW249528   0.671   4.383   1.815 -0.1353 -0.5651  0.8608
13200SOL     OW49529   0.379  11.164   3.537  0.0066  0.9051  0.0754
13200SOL    HW149530   0.460  11.125   3.570 -0.1814  0.9879  0.6433
13200SOL    HW249531   0.377  11.251   3.576 -1.2368  0.2787  1.5614
13201SOL     OW49532   5.357   0.684   7.048 -0.0576  0.4490 -0.3507
13201SOL    HW149533   5.280   0.701   6.993 -0.8253  0.3123  0.6437
13201SOL    HW249534   5.359   0.758   7.108  1.1878  0.9603 -0.9873
13202SOL     OW49535   0.661   2.917   5.308 -0.2062 -0.0833  0.3608
13202SOL    HW149536   0.639   2.999   5.352  1.4905  1.9036 -2.1894
13202SOL    HW249537   0.679   2.855   5.379 -2.3330  1.4466  2.3778
13203SOL     OW49538   5.820   6.866   7.363  0.4195 -0.1467 -0.1024
13203SOL    HW149539   5.810   6.897   7.453 -0.2386 -1.1523  0.1860
13203SOL    HW249540   5.906   6.825   7.362  1.4396  1.8601 -0.5678
13204SOL     OW49541  10.668  11.677   6.927  0.0041  0.4524  0.0345
13204SOL    HW149542  10.693  11.608   6.867  2.2227  2.1588 -1.1535
13204SOL    HW249543  10.630  11.631   7.002  1.7747 -2.0685 -0.4875
13205SOL     OW49544  13.312   9.667   2.301 -0.5585  0.1117 -0.0085
13205SOL    HW149545  13.235   9.621   2.268 -0.6537  1.6413 -2.1323
13205SOL    HW249546  13.366   9.682   2.224  2.0197 -1.0369  1.4231
13206SOL     OW49547   7.728   3.126   0.077 -0.1988 -0.6500  0.1664
13206SOL    HW149548   7.691   3.127  -0.011 -1.2033  0.5551  0.5694
13206SOL    HW249549   7.762   3.214   0.090  0.7530 -1.0805  0.6681
13207SOL     OW49550   0.311  10.404  10.260  0.0620  0.1035  0.1918
13207SOL    HW149551   0.391  10.442  10.297 -0.0069  0.8057 -0.3544
13207SOL    HW249552   0.336  10.379  10.171 -0.1937 -0.1438  0.1888
13208SOL     OW49553   0.257   8.284  13.053  0.0972 -0.7047  0.0197
13208SOL    HW149554   0.304   8.358  13.092  0.2207 -0.4082 -0.6882
13208SOL    HW249555   0.303   8.265  12.972 -0.4890 -0.9686 -0.2623
13209SOL     OW49556  12.830   5.239   4.051 -0.5659 -0.7889 -0.0473
13209SOL    HW149557  12.839   5.210   4.142 -1.4622 -0.8751  0.0212
13209SOL    HW249558  12.808   5.332   4.057 -0.8696 -0.8520 -0.1658
13210SOL     OW49559   2.158   4.710  10.238  0.2295 -0.5007  0.1496
13210SOL    HW149560   2.078   4.694  10.289 -0.6636  0.6581 -0.8139
13210SOL    HW249561   2.136   4.682  10.149  0.8943 -0.1749 -0.1198
13211SOL     OW49562  11.356   2.432  12.220 -0.0393 -0.0178  0.2648
13211SOL    HW149563  11.418   2.423  12.148 -1.0338 -1.0538 -0.5110
13211SOL    HW249564  11.389   2.504  12.272  0.2089  1.4089 -1.7651
13212SOL     OW49565   0.783   5.006   5.152 -0.0089 -0.2412  0.3206
13212SOL    HW149566   0.856   4.943   5.154 -0.0538 -0.2700  0.9603
13212SOL    HW249567   0.768   5.020   5.058  0.1440 -1.0186  0.1692
13213SOL     OW49568   5.995   5.350   5.746 -0.2443  0.1876  0.6259
13213SOL    HW149569   6.059   5.381   5.682 -0.7139  1.9516  0.9489
13213SOL    HW249570   5.995   5.417   5.814 -0.1524 -1.3879  2.2202
13214SOL     OW49571   6.971   5.364  13.289  0.1434  0.2424  0.2004
13214SOL    HW149572   7.052   5.393  13.247  0.3787 -0.8696 -0.1545
13214SOL    HW249573   6.902   5.396  13.231  0.3747  0.3512 -0.0205
13215SOL     OW49574   6.824   0.912   1.876  0.3701  0.3151  0.6156
13215SOL    HW149575   6.860   0.947   1.794 -1.0085  0.4225  0.0364
13215SOL    HW249576   6.761   0.978   1.905 -0.6529 -0.6547  0.6602
13216SOL     OW49577   1.111  11.491   4.540  0.1910  0.4511 -0.6386
13216SOL    HW149578   1.044  11.438   4.583  0.4566  1.3550  0.9436
13216SOL    HW249579   1.082  11.496   4.449 -2.6199  1.8715  0.2141
13217SOL     OW49580   4.035   8.218  10.856  1.2455 -0.5713 -0.0478
13217SOL    HW149581   4.006   8.243  10.943  0.8838 -0.6789 -0.1346
13217SOL    HW249582   4.046   8.123  10.860  0.0698 -0.7436 -0.4418
13218SOL     OW49583   4.950   7.516   4.756 -0.0885  0.3055  0.6339
13218SOL    HW149584   4.940   7.481   4.845 -1.1369 -0.5480  0.2071
13218SOL    HW249585   4.862   7.510   4.718 -0.0419  2.3068  0.1110
13219SOL     OW49586   0.387   4.107  11.489  0.3059 -0.2045  0.2408
13219SOL    HW149587   0.353   4.175  11.547  0.9160  0.8642 -0.6217
13219SOL    HW249588   0.426   4.042  11.549  0.3237  0.5394  1.0535
13220SOL     OW49589   2.618   0.433   2.806  0.4569 -0.4004  0.1709
13220SOL    HW149590   2.662   0.351   2.781  1.0195 -0.0005 -0.1782
13220SOL    HW249591   2.547   0.405   2.863  0.6721 -1.1335  0.0974
13221SOL     OW49592   2.787   1.020   4.925 -0.7567  0.5922  0.0760
13221SOL    HW149593   2.773   1.039   5.018  0.3892 -0.2833  0.4463
13221SOL    HW249594   2.707   1.051   4.882 -0.8494  2.0309  1.1981
13222SOL     OW49595  11.955  11.944  13.082 -0.0146 -0.7850 -0.6684
13222SOL    HW149596  11.883  11.932  13.144 -0.5000  2.2671 -0.4520
13222SOL    HW249597  12.034  11.946  13.136 -0.0295 -1.7089 -0.6075
13223SOL     OW49598   8.820   7.113   2.661  0.8957 -0.3780  0.2017
13223SOL    HW149599   8.902   7.065   2.669  0.2000 -1.4367  1.3472
13223SOL    HW249600   8.773   7.095   2.743 -0.7510 -0.3226 -0.6800
13224SOL     OW49601   7.432   0.862  13.026  0.0410 -0.2803 -0.0863
13224SOL    HW149602   7.408   0.809  12.949 -0.7911 -0.1887  0.0926
13224SOL    HW249603   7.369   0.934  13.024  2.1021  1.5901 -1.1995
13225SOL     OW49604  12.897   1.987   9.600 -0.6576 -0.8235 -0.0491
13225SOL    HW149605  12.972   2.036   9.566 -0.3715 -0.2519  1.3412
13225SOL    HW249606  12.935   1.917   9.652 -1.0571 -0.2526  1.0485
13226SOL     OW49607   2.416  12.423  12.453 -0.1118  0.0253  0.0387
13226SOL    HW149608   2.440  12.507  12.415 -0.8597 -0.4980 -1.7249
13226SOL    HW249609   2.432  12.433  12.547 -2.2159  2.8816  0.2217
13227SOL     OW49610  11.139   5.483   8.185 -0.0583  0.4074 -0.1360
13227SOL    HW149611  11.110   5.416   8.247 -0.8847  0.0648 -0.8701
13227SOL    HW249612  11.174   5.433   8.111  1.1021  0.8108  0.1068
13228SOL     OW49613   8.968   7.916  11.168  0.0180 -0.0092 -0.7526
13228SOL    HW149614   8.992   7.919  11.075 -0.7745  0.1014 -0.9619
13228SOL    HW249615   8.977   8.006  11.198 -2.6879  0.6031 -1.5214
13229SOL     OW49616  12.731   3.894   7.987 -0.1817 -0.2101  0.0274
13229SOL    HW149617  12.789   3.851   7.925 -0.8373 -2.3410  0.7897
13229SOL    HW249618  12.771   3.980   8.003 -0.1489  0.5711 -3.4909
13230SOL     OW49619   4.782  10.126   9.244  0.2746 -0.3494  0.0058
13230SOL    HW149620   4.811  10.104   9.155  0.5606 -3.7240  0.8012
13230SOL    HW249621   4.687  10.125   9.240  0.2873 -1.2056 -0.1239
13231SOL     OW49622   8.103  12.073   3.552 -0.2090  0.2368  0.2565
13231SOL    HW149623   8.127  11.996   3.500  1.3074  0.0697  1.1588
13231SOL    HW249624   8.128  12.050   3.641 -2.5301  0.6292  1.0707
13232SOL     OW49625   0.448  10.492   5.604  0.5180  0.0512 -0.3888
13232SOL    HW149626   0.539  10.465   5.594  0.5679  0.0613  0.0239
13232SOL    HW249627   0.399  10.409   5.609  0.6695  0.0149  0.8608
13233SOL     OW49628   0.827   0.425   8.413 -0.4941  0.1444  0.6010
13233SOL    HW149629   0.762   0.373   8.365 -0.4816  0.7549 -0.0903
13233SOL    HW249630   0.874   0.361   8.467 -0.6542 -0.5227 -0.0400
13234SOL     OW49631   1.285   2.826  10.122 -1.0417  0.6625  0.2756
13234SOL    HW149632   1.261   2.917  10.142  0.9276  1.3178 -0.0758
13234SOL    HW249633   1.304   2.827  10.028 -0.2689  0.0805  0.4222
13235SOL     OW49634   6.372   2.247   7.594 -0.3168  0.0851 -0.8693
13235SOL    HW149635   6.378   2.190   7.516 -1.1399 -0.0445 -0.8383
13235SOL    HW249636   6.287   2.289   7.587  1.1040  3.0669 -2.0754
13236SOL     OW49637   7.688   7.563   5.729  0.2013 -0.4568  0.5357
13236SOL    HW149638   7.624   7.632   5.711  0.2358 -0.5626  0.0204
13236SOL    HW249639   7.752   7.569   5.658  0.5017 -0.6677  0.7849
13237SOL     OW49640   7.630  10.166   0.805 -0.1343 -0.0640  0.1517
13237SOL    HW149641   7.651  10.073   0.801  0.1994  0.0379 -0.4646
13237SOL    HW249642   7.553  10.170   0.862 -0.3076 -0.7397 -0.0253
13238SOL     OW49643  13.297   3.511   0.259 -0.5774  0.0205  0.1589
13238SOL    HW149644  13.307   3.554   0.174  0.6780 -0.5712 -0.0087
13238SOL    HW249645  13.289   3.418   0.238  0.6145 -0.2203  0.7236
13239SOL     OW49646   4.911   5.158   8.086  0.5295 -0.0824 -0.2954
13239SOL    HW149647   4.902   5.161   7.991 -0.1332  0.3523 -0.2257
13239SOL    HW249648   4.821   5.153   8.119  0.7133  0.4934  0.3280
13240SOL     OW49649   1.874  10.825   3.277 -0.6342 -0.0583  0.0320
13240SOL    HW149650   1.865  10.823   3.181 -1.6010  0.4010  0.1021
13240SOL    HW249651   1.801  10.772   3.309 -0.7298  0.3641  0.5306
13241SOL     OW49652   8.043   7.009   9.663  0.0936  0.1363 -0.0599
13241SOL    HW149653   8.052   7.099   9.695 -1.3516 -0.1211  1.1905
13241SOL    HW249654   8.127   6.968   9.682  0.3739  0.9135  0.4227
13242SOL     OW49655   4.427   1.810   6.737  0.2449 -0.0946  0.1190
13242SOL    HW149656   4.491   1.773   6.677  1.4192 -0.7278  1.6815
13242SOL    HW249657   4.345   1.765   6.716 -0.4474  2.4460 -3.5700
13243SOL     OW49658  12.104   5.615   3.615  0.2736  0.3951  0.4149
13243SOL    HW149659  12.055   5.555   3.560  0.4918 -1.2231  1.8886
13243SOL    HW249660  12.129   5.687   3.557 -1.4934 -0.0650 -0.9927
13244SOL     OW49661  12.799   2.892   2.830  0.4446  0.9863  0.0338
13244SOL    HW149662  12.801   2.808   2.784  1.6715  1.1752 -0.2722
13244SOL    HW249663  12.844   2.952   2.772  0.9627  1.5012  0.9557
13245SOL     OW49664   2.724   4.320   5.946 -0.8098 -0.1629 -0.2824
13245SOL    HW149665   2.669   4.246   5.918 -0.9520  0.0812 -0.6618
13245SOL    HW249666   2.801   4.279   5.985 -1.2681 -0.5126  0.2785
13246SOL     OW49667  11.005   5.584  12.617 -0.4708 -0.2774 -0.0708
13246SOL    HW149668  11.079   5.641  12.596  1.1391 -2.2856 -0.1859
13246SOL    HW249669  10.948   5.589  12.540  0.4768 -0.0685 -0.7769
13247SOL     OW49670   9.925   6.420   8.216 -0.1020 -0.5106  0.0222
13247SOL    HW149671   9.992   6.484   8.190 -0.0918 -1.1920 -1.7344
13247SOL    HW249672   9.842   6.465   8.202 -0.0786  0.1157  1.6183
13248SOL     OW49673   9.217  12.652   7.324 -0.0372  0.1196 -0.4844
13248SOL    HW149674   9.130  12.610   7.330 -0.4628  0.9968 -0.3666
13248SOL    HW249675   9.198  12.741   7.296  0.8856  0.1547 -1.0165
13249SOL     OW49676   4.374  13.050   0.145 -0.0731  0.3109 -0.2321
13249SOL    HW149677   4.412  13.116   0.087  0.3741  2.3541  2.2048
13249SOL    HW249678   4.280  13.055   0.129  0.1376 -0.6475 -2.1458
13250SOL     OW49679  13.290   5.862  13.177  0.2812 -0.0599 -0.0037
13250SOL    HW149680  13.246   5.788  13.135 -2.6975  2.1620 -1.1543
13250SOL    HW249681  13.368   5.878  13.124  0.7842 -2.0650  0.0516
13251SOL     OW49682   5.849   2.746   7.639  0.0540  0.1509 -0.0595
13251SOL    HW149683   5.836   2.661   7.599  0.9228  0.7573 -1.7394
13251SOL    HW249684   5.911   2.730   7.711  1.0692 -0.4804 -1.0445
13252SOL     OW49685  13.123  13.295   2.068 -0.3792  0.5025  0.1527
13252SOL    HW149686  13.168  13.276   1.985 -0.9999 -0.1039 -0.0563
13252SOL    HW249687  13.192  13.330   2.125  0.5762 -1.2116  0.1259
13253SOL     OW49688  13.090   3.596   9.634 -0.6979 -0.7975  0.1846
13253SOL    HW149689  13.181   3.627   9.628 -0.7435 -0.6752  0.1070
13253SOL    HW249690  13.041   3.657   9.578 -0.5794 -1.8225 -1.0986
13254SOL     OW49691   5.943   3.111  11.779 -0.0826 -0.1751 -0.4690
13254SOL    HW149692   5.969   3.083  11.867 -1.1570  0.3432  0.0349
13254SOL    HW249693   5.853   3.080  11.769 -0.3167  0.6334 -0.9941
13255SOL     OW49694   3.635   7.393   0.998 -0.6983 -0.1599  0.1941
13255SOL    HW149695   3.555   7.362   0.957 -1.1956 -0.8937  1.6520
13255SOL    HW249696   3.666   7.463   0.940 -0.3732 -2.2940 -2.3887
13256SOL     OW49697   4.168   7.001   9.942 -0.3359 -0.5195  0.7348
13256SOL    HW149698   4.209   6.955  10.015 -0.3203 -1.0804  0.3758
13256SOL    HW249699   4.074   6.997   9.960 -0.2695  0.5011  1.3996
13257SOL     OW49700   0.913   8.097   8.323 -0.1666  0.3054  0.3917
13257SOL    HW149701   0.867   8.013   8.311 -0.0375  0.1745  0.7926
13257SOL    HW249702   0.998   8.084   8.282 -0.8995  0.9491 -1.4409
13258SOL     OW49703   0.243  13.057   2.960  0.0225 -0.0824  0.2012
13258SOL    HW149704   0.309  13.091   2.900 -0.4376 -0.4979 -0.5615
13258SOL    HW249705   0.230  13.127   3.024 -1.4088  1.5178 -1.7140
13259SOL     OW49706  11.965   9.354   0.426 -0.4490 -0.0206  0.1566
13259SOL    HW149707  11.970   9.262   0.401  0.3623 -0.4100  1.6343
13259SOL    HW249708  12.036   9.366   0.489 -0.4497  1.6557 -0.1045
13260SOL     OW49709  12.539  12.163  11.143  0.1456  0.5357 -0.1318
13260SOL    HW149710  12.538  12.070  11.169  0.4608  0.9660  1.5589
13260SOL    HW249711  12.595  12.166  11.066  1.2105 -0.5259  0.5576
13261SOL     OW49712   3.446   5.714   3.088  0.2782  0.3903  0.6368
13261SOL    HW149713   3.510   5.699   3.019  1.4032  3.5997  0.8061
13261SOL    HW249714   3.450   5.635   3.142  0.3456 -1.6419 -2.1045
13262SOL     OW49715   8.910   0.899   2.009 -0.8793 -0.2596  0.3143
13262SOL    HW149716   8.952   0.889   1.923 -0.5507 -2.7198  0.6765
13262SOL    HW249717   8.822   0.932   1.988 -0.7454 -0.6361 -0.9658
13263SOL     OW49718   4.186   6.618  10.865 -0.6815  0.8251 -0.1656
13263SOL    HW149719   4.229   6.564  10.932 -0.8625 -0.9595 -1.4033
13263SOL    HW249720   4.225   6.704  10.875  0.3560  0.2340  1.2752
13264SOL     OW49721   7.256  12.916   7.156 -0.3832 -0.1574  0.3030
13264SOL    HW149722   7.183  12.961   7.198 -0.9501  0.2975 -1.1079
13264SOL    HW249723   7.304  12.875   7.228 -2.4056 -1.0402  1.2089
13265SOL     OW49724  11.975   7.808  10.261 -0.0109  0.0979 -0.4397
13265SOL    HW149725  11.914   7.740  10.231  0.4783  0.1229 -1.5270
13265SOL    HW249726  12.051   7.800  10.204  0.4656  0.9260  0.0516
13266SOL     OW49727  12.040   6.423  10.735 -0.3919 -0.3635 -0.2618
13266SOL    HW149728  12.045   6.413  10.830  0.2415  0.0498 -0.2443
13266SOL    HW249729  11.951   6.457  10.720 -1.2964 -2.5058 -0.0386
13267SOL     OW49730   0.729   4.451   2.835 -0.0816  0.3294  0.1613
13267SOL    HW149731   0.722   4.546   2.835 -0.2355  0.3176  0.3983
13267SOL    HW249732   0.784   4.431   2.759  1.2432  0.7088  0.9875
13268SOL     OW49733   4.187  11.775   2.931 -0.0615 -0.3841 -0.4367
13268SOL    HW149734   4.201  11.702   2.870  1.0490  0.2089 -0.9085
13268SOL    HW249735   4.127  11.739   2.996 -0.0964 -1.5027 -1.0502
13269SOL     OW49736   5.889   0.547  12.611  0.4672 -0.2730 -0.7492
13269SOL    HW149737   5.934   0.473  12.572  0.2226 -0.5801 -0.4489
13269SOL    HW249738   5.872   0.520  12.701  0.3832  0.1483 -0.6362
13270SOL     OW49739   1.196   3.146   2.279 -0.0619 -0.3702  0.0236
13270SOL    HW149740   1.276   3.191   2.251 -0.6599  0.0441 -1.0752
13270SOL    HW249741   1.212   3.123   2.371  1.1069  0.1721 -0.0321
13271SOL     OW49742  12.746   4.504   1.047  0.1980  0.3836  0.4028
13271SOL    HW149743  12.652   4.488   1.054  0.3952 -0.2547  2.0275
13271SOL    HW249744  12.752   4.593   1.012 -0.9598 -0.4275 -2.0333
13272SOL     OW49745   0.515   7.445   8.700 -0.2332 -0.3229 -0.4647
13272SOL    HW149746   0.507   7.393   8.780 -0.2278  2.9239  1.8776
13272SOL    HW249747   0.491   7.385   8.629 -2.2631 -2.8537  2.1144
13273SOL     OW49748   4.637   4.586   2.032 -0.2841  0.1776  0.2376
13273SOL    HW149749   4.612   4.528   2.104  0.4408 -0.7993 -0.2651
13273SOL    HW249750   4.694   4.651   2.072 -0.4286  0.0442  0.6673
13274SOL     OW49751   4.081   5.182   7.535  0.9836  0.3609 -0.1639
13274SOL    HW149752   4.116   5.268   7.556  1.3743 -0.0350  0.8456
13274SOL    HW249753   4.029   5.197   7.456  1.5958  1.3831 -0.3994
13275SOL     OW49754   0.473   6.172   3.278 -0.1969 -0.3389 -0.5682
13275SOL    HW149755   0.485   6.266   3.272  1.4915 -0.5758 -1.6386
13275SOL    HW249756   0.440   6.157   3.366  0.2497  1.1898 -0.1192
13276SOL     OW49757   4.574   9.428   4.936 -0.0690  0.0554  0.0511
13276SOL    HW149758   4.639   9.434   4.867 -0.9437  0.4863 -0.7663
13276SOL    HW249759   4.491   9.416   4.890 -0.5821 -0.4265  1.0596
13277SOL     OW49760   6.359   0.603   5.302 -0.3096 -0.0678 -0.4612
13277SOL    HW149761   6.404   0.684   5.278 -1.7987  0.3406 -2.1292
13277SOL    HW249762   6.424   0.534   5.289  0.6555  0.7487 -0.0629
13278SOL     OW49763   1.243   0.939   0.064 -0.0569 -0.2108  0.3462
13278SOL    HW149764   1.182   0.865   0.064 -0.6003  0.2276  0.4784
13278SOL    HW249765   1.256   0.959   0.156 -0.8792  0.6289  0.2956
13279SOL     OW49766  11.849   2.479   4.164 -0.3523 -0.1960  0.6769
13279SOL    HW149767  11.775   2.456   4.108  0.6704 -0.1411 -0.7563
13279SOL    HW249768  11.890   2.395   4.185 -0.7956 -0.2262  1.4693
13280SOL     OW49769   2.215  12.249   5.977  0.0155 -0.2642  0.3851
13280SOL    HW149770   2.245  12.213   5.893  1.2717  0.2577  0.5845
13280SOL    HW249771   2.124  12.273   5.961  0.4083  0.4173 -1.0411
13281SOL     OW49772  13.232  11.440   2.470  0.1481 -0.1278 -0.0190
13281SOL    HW149773  13.183  11.358   2.466 -1.1971  0.4953  2.2261
13281SOL    HW249774  13.322  11.415   2.449 -0.9235 -1.3401 -4.1009
13282SOL     OW49775  11.283  11.704  10.841 -0.1776 -0.3095 -0.0732
13282SOL    HW149776  11.332  11.626  10.815  1.1334  0.3966  0.1676
13282SOL    HW249777  11.234  11.677  10.919  1.4709 -0.5052  0.9528
13283SOL     OW49778  10.519   5.188   1.645  0.5802 -0.5557  0.1759
13283SOL    HW149779  10.504   5.113   1.587  0.6439 -0.6636  0.2972
13283SOL    HW249780  10.614   5.200   1.644  0.5722 -0.4953  0.1818
13284SOL     OW49781   5.220  13.270   9.534  0.2964  0.0138 -0.1423
13284SOL    HW149782   5.235  13.326   9.611 -0.1026 -1.6367  1.1883
13284SOL    HW249783   5.139  13.303   9.496 -0.8120 -0.6176  1.5675
13285SOL     OW49784   3.370   4.737   6.755  0.1485  0.1667  0.3798
13285SOL    HW149785   3.458   4.722   6.789 -0.1545  0.2943  1.2541
13285SOL    HW249786   3.330   4.650   6.754  1.4747 -0.5696 -3.6326
13286SOL     OW49787   6.668   9.176  10.816 -0.1015  0.2550 -0.4794
13286SOL    HW149788   6.695   9.249  10.871  0.4962  0.2571 -0.7674
13286SOL    HW249789   6.737   9.169  10.750  1.1101 -2.0506  0.9117
13287SOL     OW49790   1.878   6.813   2.748  0.2549  0.3240  0.0062
13287SOL    HW149791   1.790   6.804   2.712  0.2726  0.4011 -0.0569
13287SOL    HW249792   1.888   6.907   2.762  0.2572  0.2968  0.1883
13288SOL     OW49793  12.329   8.244   5.028  0.6409  0.4156  0.3575
13288SOL    HW149794  12.387   8.296   4.973  2.1296 -1.1832  0.3263
13288SOL    HW249795  12.244   8.289   5.023 -0.0307 -0.7550 -5.0683
13289SOL     OW49796   1.303   5.707   5.700 -0.0636 -0.3918 -0.4778
13289SOL    HW149797   1.375   5.643   5.704 -0.4819 -0.8208  0.5321
13289SOL    HW249798   1.345   5.788   5.670  0.5327 -1.0451 -1.4774
13290SOL     OW49799   9.270   8.400   9.182  0.5002 -0.0803  0.4941
13290SOL    HW149800   9.342   8.431   9.237 -0.0352 -0.5457  1.4833
13290SOL    HW249801   9.256   8.310   9.210  0.1398 -0.2963 -0.3464
13291SOL     OW49802   6.607   1.353  12.292  1.0488 -0.1118  0.0350
13291SOL    HW149803   6.680   1.293  12.274  0.9532 -0.0427 -0.6066
13291SOL    HW249804   6.529   1.298  12.286  1.0843 -0.4053  1.7093
13292SOL     OW49805   9.510  11.287   4.672  0.3202  0.5103  0.5258
13292SOL    HW149806   9.488  11.316   4.761 -0.2098  0.9529  0.2523
13292SOL    HW249807   9.539  11.366   4.627  0.4455  0.3143  0.2590
13293SOL     OW49808   0.458   1.838   9.070 -0.2380  0.0162  0.2089
13293SOL    HW149809   0.535   1.882   9.033 -0.1932 -1.1378 -1.2019
13293SOL    HW249810   0.476   1.833   9.164  1.7952 -0.8718 -0.1686
13294SOL     OW49811  12.039   0.025   3.573  0.0990 -0.4724 -0.1771
13294SOL    HW149812  12.103   0.091   3.546 -0.1438  0.0456  0.4980
13294SOL    HW249813  12.090  -0.055   3.582  1.1512  0.4005  2.6329
13295SOL     OW49814   1.315   5.463   9.904  0.4246 -0.0722 -0.1272
13295SOL    HW149815   1.297   5.442   9.813  0.6173  0.1911 -0.2261
13295SOL    HW249816   1.401   5.506   9.903 -0.6736  2.2634 -0.1295
13296SOL     OW49817   0.886  10.764  13.023  0.0103 -0.1323 -0.5440
13296SOL    HW149818   0.798  10.800  13.031 -0.3782 -1.2300  0.3957
13296SOL    HW249819   0.907  10.732  13.111  1.3698  0.1380 -0.7344
13297SOL     OW49820   5.954  10.736   7.583  0.1243  0.5210 -0.2175
13297SOL    HW149821   5.909  10.652   7.595  1.8575 -0.3619  0.4419
13297SOL    HW249822   5.883  10.798   7.566 -1.3066 -0.8724  0.3187
13298SOL     OW49823   2.326   3.060   1.877  0.0249  0.2329 -0.7349
13298SOL    HW149824   2.320   3.096   1.966 -0.0498  0.5201 -0.8525
13298SOL    HW249825   2.383   2.984   1.885  0.4181  0.5436 -0.5247
13299SOL     OW49826   9.587   7.961   1.494  0.5244  0.1515 -0.5597
13299SOL    HW149827   9.520   7.923   1.437  0.2420 -1.1922  0.5992
13299SOL    HW249828   9.666   7.964   1.440  0.4475 -1.7648 -0.8421
13300SOL     OW49829  12.212   8.287   9.512  0.1041  0.1871  0.1058
13300SOL    HW149830  12.230   8.217   9.574  0.6920 -0.0150 -0.2836
13300SOL    HW249831  12.271   8.358   9.538 -0.6177  0.6176  0.6119
13301SOL     OW49832   3.545   3.017   4.379  0.3578  0.0526  0.2657
13301SOL    HW149833   3.500   2.952   4.325  1.1153 -2.8736  2.9182
13301SOL    HW249834   3.485   3.033   4.452  1.4249  0.0497  1.1695
13302SOL     OW49835  11.911   8.711   6.793 -0.3512 -0.1493 -0.5478
13302SOL    HW149836  11.925   8.801   6.763 -0.6941 -0.7192 -2.5364
13302SOL    HW249837  11.998   8.672   6.796 -0.2800  0.0159 -0.4424
13303SOL     OW49838  11.287   7.899  12.257  0.8043 -0.2381 -0.6086
13303SOL    HW149839  11.219   7.960  12.229 -0.0109  0.4693  2.5547
13303SOL    HW249840  11.369   7.940  12.227  0.0876  0.7936 -1.2354
13304SOL     OW49841  11.934   9.664   6.763  0.0299  0.0149  0.2867
13304SOL    HW149842  11.964   9.655   6.854  1.9317  2.0360 -0.0502
13304SOL    HW249843  11.845   9.698   6.771  0.4562  0.9348  1.4274
13305SOL     OW49844   4.148  12.143   4.236  0.4969 -0.3801 -0.4201
13305SOL    HW149845   4.209  12.075   4.263 -0.3665 -1.0221 -0.0419
13305SOL    HW249846   4.092  12.157   4.312 -0.9054 -1.0254 -1.2903
13306SOL     OW49847   7.727   8.321  12.242 -0.1009 -0.4044 -0.1705
13306SOL    HW149848   7.728   8.366  12.326 -2.6569 -0.3457 -0.0985
13306SOL    HW249849   7.762   8.234  12.262 -0.8120 -0.4423  0.9826
13307SOL     OW49850  13.268   3.110   5.313  0.3028  0.4833  0.3141
13307SOL    HW149851  13.318   3.048   5.260 -0.8680 -0.8741  0.7373
13307SOL    HW249852  13.245   3.181   5.253  1.2125  0.2709 -0.3062
13308SOL     OW49853  11.246   7.111  10.183 -0.8781  0.7846 -0.3738
13308SOL    HW149854  11.274   7.193  10.144  1.3033  1.4341  2.2770
13308SOL    HW249855  11.308   7.046  10.151 -0.8146  0.7523 -0.1864
13309SOL     OW49856  11.640   0.173   5.605 -0.5344  0.1377  0.0491
13309SOL    HW149857  11.615   0.123   5.683 -3.9884  0.4938 -0.6741
13309SOL    HW249858  11.656   0.107   5.538 -0.9921 -0.1208  0.1874
13310SOL     OW49859   2.684   7.500   6.791 -0.6398  0.0235 -0.0174
13310SOL    HW149860   2.632   7.568   6.834 -1.1629  0.0137 -0.6181
13310SOL    HW249861   2.771   7.539   6.781 -1.4953  1.5666 -2.4678
13311SOL     OW49862  10.205  12.933   3.942  0.0742 -0.1094 -0.4857
13311SOL    HW149863  10.200  12.863   4.007  0.7386  0.2336 -0.0613
13311SOL    HW249864  10.117  12.938   3.906 -1.1416  1.6386  2.4206
13312SOL     OW49865   1.332   1.981   2.574  0.0572  0.0638 -0.0433
13312SOL    HW149866   1.385   1.957   2.650  1.8491  0.9175 -0.9682
13312SOL    HW249867   1.286   2.060   2.602 -1.3489 -1.0634  1.0027
13313SOL     OW49868   0.337   6.975  11.959  0.2474  0.0907  0.1836
13313SOL    HW149869   0.353   6.889  11.998  1.5782  0.6457  0.9238
13313SOL    HW249870   0.300   7.027  12.030  0.5150  0.4530  0.0617
13314SOL     OW49871   0.753   3.908  11.118  0.0383 -0.2153  0.6688
13314SOL    HW149872   0.661   3.880  11.127  0.6630 -2.4732  0.6949
13314SOL    HW249873   0.766   3.971  11.189 -1.7152  0.8562  0.1006
13315SOL     OW49874   1.892  11.807   7.520  0.0090 -0.2847 -0.1101
13315SOL    HW149875   1.922  11.743   7.456  0.2631 -2.3405  1.9199
13315SOL    HW249876   1.952  11.881   7.511  1.5219 -1.5373 -0.6097
13316SOL     OW49877   5.885   0.265   6.919 -0.2911  0.3110  0.6790
13316SOL    HW149878   5.800   0.252   6.877  0.5983  0.8340 -1.4506
13316SOL    HW249879   5.918   0.177   6.936 -1.1711  0.1066  1.3478
13317SOL     OW49880   2.992   5.054   9.587 -0.6212  0.1523  0.7488
13317SOL    HW149881   3.066   5.113   9.574 -0.1886 -0.6694 -0.7514
13317SOL    HW249882   2.915   5.106   9.566 -0.3054  0.4212  0.2448
13318SOL     OW49883   5.090  12.939   6.567  0.1907 -0.7217 -0.2379
13318SOL    HW149884   5.041  13.017   6.594  1.1531 -0.5104  0.9851
13318SOL    HW249885   5.155  12.971   6.504  1.8246 -0.1575  1.6497
13319SOL     OW49886   8.989   9.798   1.397  0.0366  0.0062  0.1715
13319SOL    HW149887   9.015   9.866   1.335  0.6978  0.5393  1.0112
13319SOL    HW249888   8.980   9.719   1.343 -0.0530  0.5969 -0.7043
13320SOL     OW49889   0.197  10.154   0.171  0.6788  0.0554  0.5354
13320SOL    HW149890   0.241  10.217   0.114  2.4500 -0.0471  1.7089
13320SOL    HW249891   0.177  10.080   0.114 -0.1838  1.0689 -0.5482
13321SOL     OW49892   9.201   3.829  11.275  0.9090 -0.1428 -0.6660
13321SOL    HW149893   9.198   3.918  11.240 -0.8169  0.3928  0.7213
13321SOL    HW249894   9.259   3.834  11.350 -0.1559  0.1254  0.1582
13322SOL     OW49895   7.604   2.384   0.999 -0.3692  0.2072 -0.0604
13322SOL    HW149896   7.539   2.322   0.965  0.6195 -1.5248  1.0788
13322SOL    HW249897   7.552   2.456   1.033 -1.5099  0.6366 -2.4758
13323SOL     OW49898  12.797   9.019   1.429  0.8444  0.2430 -0.3979
13323SOL    HW149899  12.740   8.981   1.363 -0.3553  0.2019  0.6182
13323SOL    HW249900  12.754   9.101   1.454  1.3254  0.3115  0.2369
13324SOL     OW49901  13.184   4.558   6.524  0.2956  0.0139  0.3724
13324SOL    HW149902  13.205   4.647   6.497  1.7178 -0.5689 -0.5489
13324SOL    HW249903  13.092   4.547   6.498  0.0613  1.2400  0.6238
13325SOL     OW49904   8.284  12.454   0.886 -0.3556  0.2738 -0.4792
13325SOL    HW149905   8.380  12.456   0.888 -0.3778  1.0961 -0.0949
13325SOL    HW249906   8.260  12.411   0.967 -0.3151  0.1748 -0.5193
13326SOL     OW49907  11.399   2.131   5.911 -0.4275  0.1937 -0.1437
13326SOL    HW149908  11.312   2.093   5.922 -0.2183 -0.0264  0.9084
13326SOL    HW249909  11.388   2.224   5.935 -0.3143  0.0915  0.3197
13327SOL     OW49910   9.435   0.531   0.071 -0.1629  0.0955  0.4490
13327SOL    HW149911   9.380   0.518  -0.007  0.4471  1.5675 -0.2784
13327SOL    HW249912   9.416   0.456   0.127  0.5671 -1.9067 -1.8168
13328SOL     OW49913   5.861   7.723  12.105  0.7364 -0.3127  0.1811
13328SOL    HW149914   5.795   7.657  12.084  0.8994 -0.2841 -0.4433
13328SOL    HW249915   5.840   7.751  12.194 -0.0354 -0.3714  0.0204
13329SOL     OW49916  11.804   9.818  11.134  0.0935  0.9632 -0.2544
13329SOL    HW149917  11.816   9.729  11.166  0.5651  1.1172 -0.0021
13329SOL    HW249918  11.877   9.832  11.074 -0.2683  1.0023 -0.6975
13330SOL     OW49919   1.915   3.500   2.703 -0.4156 -0.1994  1.0217
13330SOL    HW149920   1.870   3.416   2.709  1.2246 -1.0825  1.4059
13330SOL    HW249921   1.917   3.520   2.609  3.3788 -3.0632  0.2296
13331SOL     OW49922   0.309   9.310   8.290 -0.4190 -0.0659  0.3229
13331SOL    HW149923   0.249   9.354   8.351  0.7089  0.3884  1.1388
13331SOL    HW249924   0.392   9.304   8.338  0.7789  1.1177 -1.4630
13332SOL     OW49925   6.933   4.515   9.466  0.1699 -0.2756  0.0375
13332SOL    HW149926   7.006   4.454   9.458  0.6411  0.3104 -0.1294
13332SOL    HW249927   6.866   4.479   9.407 -0.3427 -1.7248  1.4150
13333SOL     OW49928  11.360  13.070   7.491 -0.2552 -0.2187  0.2597
13333SOL    HW149929  11.443  13.029   7.469 -0.3762  0.2658 -1.2149
13333SOL    HW249930  11.361  13.077   7.586  0.3248 -2.4193  0.4748
13334SOL     OW49931   4.354   3.930  11.644 -0.3384  0.2744 -0.0868
13334SOL    HW149932   4.286   3.892  11.700 -1.1038  0.6715 -0.7339
13334SOL    HW249933   4.436   3.898  11.682 -0.7469  1.4718  1.9855
13335SOL     OW49934   0.697  13.053   5.552  0.4698  0.2970 -0.2794
13335SOL    HW149935   0.689  12.966   5.590 -0.4680  1.1313  1.5938
13335SOL    HW249936   0.607  13.086   5.550  1.0191  2.1152  1.4147
13336SOL     OW49937  12.793  12.692   5.890 -0.2076  0.2754 -0.2575
13336SOL    HW149938  12.750  12.754   5.949  0.7919  1.2578 -0.5373
13336SOL    HW249939  12.820  12.621   5.948 -1.0611  0.2393  0.1219
13337SOL     OW49940   8.354  12.749   6.237  0.3486  0.6702  0.6402
13337SOL    HW149941   8.378  12.667   6.282 -0.5543  0.2905  0.4496
13337SOL    HW249942   8.373  12.731   6.145 -0.9477  0.2394  0.4389
13338SOL     OW49943   6.720   1.596  12.191 -0.0484 -0.7044 -0.5078
13338SOL    HW149944   6.651   1.534  12.216 -0.4706  0.0773  0.3378
13338SOL    HW249945   6.716   1.664  12.259  0.3956  0.2504 -1.4174
13339SOL     OW49946   9.385  11.984   1.208  0.2561 -0.1887  0.2055
13339SOL    HW149947   9.339  12.061   1.176 -0.0815 -0.6611 -0.4578
13339SOL    HW249948   9.476  11.998   1.181 -0.0394 -0.6184 -1.0551
13340SOL     OW49949  12.196   1.352  10.007 -0.8929  0.4678 -0.2050
13340SOL    HW149950  12.215   1.304  10.087 -3.0879  0.1045  0.1594
13340SOL    HW249951  12.108   1.325   9.982 -0.6272  1.2468 -2.2681
13341SOL     OW49952   2.895   8.787  12.009  0.0568  0.7366 -0.1253
13341SOL    HW149953   2.842   8.761  11.935 -0.8791  0.5460  0.5938
13341SOL    HW249954   2.838   8.844  12.061 -0.4333 -1.5336  2.0289
13342SOL     OW49955   0.119   2.028   6.370  0.6428 -0.2449  0.0425
13342SOL    HW149956   0.028   2.027   6.341  0.8469 -1.2679 -0.6265
13342SOL    HW249957   0.169   2.055   6.293  0.9062  0.3989  0.4290
13343SOL     OW49958  13.293  12.086  11.011  0.4430 -0.5791  0.1119
13343SOL    HW149959  13.372  12.053  11.054  0.0867  0.0748  1.3283
13343SOL    HW249960  13.325  12.134  10.935  1.1339 -1.2809 -0.0543
13344SOL     OW49961  12.941   9.434   0.442  0.2926 -0.2365 -0.4970
13344SOL    HW149962  12.866   9.375   0.442  0.6002 -0.6361 -0.0659
13344SOL    HW249963  12.902   9.522   0.441 -0.1995 -0.4297  0.3352
13345SOL     OW49964   3.423   8.446   8.088  0.0927 -1.0535  0.0706
13345SOL    HW149965   3.374   8.522   8.056  1.0446 -0.5780 -0.3145
13345SOL    HW249966   3.409   8.379   8.022  0.9716 -0.5084 -0.6876
13346SOL     OW49967   6.837   0.600   3.707  0.1910  0.1236  0.1065
13346SOL    HW149968   6.898   0.668   3.735  1.2895 -0.9431  0.3773
13346SOL    HW249969   6.892   0.523   3.693 -1.0628 -0.7861  0.0575
13347SOL     OW49970   5.020  10.217   7.572  0.4617 -0.3869  0.6540
13347SOL    HW149971   5.106  10.189   7.605  0.8090 -0.8748 -0.5749
13347SOL    HW249972   4.983  10.271   7.642  1.7267 -0.2598  1.2530
13348SOL     OW49973  11.346   3.636   4.035 -0.3381  0.3764 -0.0903
13348SOL    HW149974  11.397   3.714   4.017  0.5728 -0.3502 -0.7761
13348SOL    HW249975  11.284   3.662   4.104  3.2473  0.3761  3.4610
13349SOL     OW49976  11.450   7.061   3.211  0.3502  0.2792 -0.4534
13349SOL    HW149977  11.454   7.039   3.117 -1.5655  0.6960 -0.6700
13349SOL    HW249978  11.434   7.155   3.213 -1.8114 -0.0469  0.1920
13350SOL     OW49979   3.583   8.430   2.391  0.3799  0.1820  0.0742
13350SOL    HW149980   3.537   8.444   2.308 -0.5692 -0.1152  0.5298
13350SOL    HW249981   3.515   8.442   2.458  1.1452  0.4812  0.8108
13351SOL     OW49982   8.959   4.935  12.251 -0.6771  0.4416  0.2235
13351SOL    HW149983   8.938   4.891  12.169 -0.6782 -0.6490  0.7851
13351SOL    HW249984   8.882   4.922  12.306 -0.7978  1.4192  0.3083
13352SOL     OW49985  11.523   2.675   9.930  0.4130  0.9206 -0.9333
13352SOL    HW149986  11.579   2.672   9.853  1.9936  0.8087  0.1678
13352SOL    HW249987  11.471   2.595   9.925  1.3106  0.3431 -1.3018
13353SOL     OW49988   5.802   8.759   9.015 -0.4069 -0.2548 -0.5455
13353SOL    HW149989   5.778   8.680   9.063 -0.7754 -0.0285 -0.3565
13353SOL    HW249990   5.877   8.794   9.063 -2.0301  1.1050  1.1280
13354SOL     OW49991   0.217   9.751   7.251  0.5861  0.5295  0.0191
13354SOL    HW149992   0.183   9.763   7.339 -2.0316 -1.2397 -0.6191
13354SOL    HW249993   0.300   9.798   7.250 -1.4037  4.6471  2.0470
13355SOL     OW49994  10.336   9.152   1.645 -0.0502  0.1187 -0.1458
13355SOL    HW149995  10.331   9.183   1.555 -1.4961  0.2454 -0.0569
13355SOL    HW249996  10.319   9.230   1.698 -0.1915 -0.1387  0.1946
13356SOL     OW49997   4.616   8.597   2.495  0.2444  0.1782  0.0074
13356SOL    HW149998   4.554   8.526   2.507 -0.0687  0.4063 -0.2502
13356SOL    HW249999   4.668   8.598   2.576  1.2010 -1.2625 -0.5547
13357SOL     OW50000   1.597   3.064   6.143  0.5724  0.2821 -0.6508
13357SOL    HW150001   1.680   3.045   6.100  0.1346  1.1212 -1.9154
13357SOL    HW250002   1.617   3.138   6.201  0.2145  2.2330 -2.8669
13358SOL     OW50003  10.686   4.576   0.487  0.4359 -0.1154  0.5565
13358SOL    HW150004  10.659   4.505   0.545  1.1500 -2.0030 -1.2902
13358SOL    HW250005  10.668   4.655   0.537 -2.0715 -1.4723  2.0463
13359SOL     OW50006   3.489   0.705  11.942  0.5222  0.2907  0.0404
13359SOL    HW150007   3.460   0.750  11.863  0.0981  1.1398  0.6530
13359SOL    HW250008   3.581   0.685  11.926  0.4337  0.4202 -0.6763
13360SOL     OW50009   1.749   5.748  10.596  0.3282  0.2412 -0.4612
13360SOL    HW150010   1.664   5.789  10.581  0.2477  0.5563  0.7102
13360SOL    HW250011   1.761   5.753  10.691  1.9536  0.7776 -0.6725
13361SOL     OW50012   4.102   5.101   2.377  0.6356 -0.2140  0.0279
13361SOL    HW150013   4.168   5.115   2.445  1.2296 -0.0943 -0.5574
13361SOL    HW250014   4.088   5.006   2.376  0.2332 -0.1605  0.6754
13362SOL     OW50015   9.586  10.011   8.950  0.0062  0.8237 -0.7601
13362SOL    HW150016   9.629   9.947   8.894  0.2736  2.2199 -2.2133
13362SOL    HW250017   9.524  10.055   8.893  0.2796  2.2905  0.0240
13363SOL     OW50018   3.291   8.218   6.530 -0.0957 -0.0431 -0.1718
13363SOL    HW150019   3.305   8.125   6.511 -0.9348 -0.3168  0.5105
13363SOL    HW250020   3.257   8.219   6.620 -0.7350  0.8756 -0.4193
13364SOL     OW50021   3.560  11.796  10.195 -0.4008  0.7783  0.0925
13364SOL    HW150022   3.480  11.746  10.213  0.1007  0.1786  0.7463
13364SOL    HW250023   3.578  11.780  10.102  0.0324 -0.7291  0.4031
13365SOL     OW50024   2.743  11.876   4.054 -0.8534  0.5822 -0.2125
13365SOL    HW150025   2.654  11.872   4.090 -1.1627  2.2193 -0.6952
13365SOL    HW250026   2.792  11.810   4.102 -2.6048 -1.1944 -0.7478
13366SOL     OW50027   0.137  10.052   5.029 -0.0849 -0.3394  0.1025
13366SOL    HW150028   0.138   9.987   4.959  0.4569  0.4759 -0.6736
13366SOL    HW250029   0.149  10.136   4.984 -0.0274  0.2352  1.1463
13367SOL     OW50030   3.280   2.749  13.311  0.1757  0.6608 -0.3444
13367SOL    HW150031   3.355   2.700  13.278  0.5037  0.0923  1.1368
13367SOL    HW250032   3.316   2.832  13.342  0.0337  0.7925 -0.5315
13368SOL     OW50033   2.664   2.148   2.256 -0.5238 -0.5067 -0.4845
13368SOL    HW150034   2.667   2.053   2.267 -2.6222 -0.4864  0.6506
13368SOL    HW250035   2.711   2.182   2.333  2.8658 -0.5363 -2.3138
13369SOL     OW50036   5.221   6.341   1.501 -0.2336  0.2585 -0.3976
13369SOL    HW150037   5.187   6.335   1.412  0.4317  0.2945 -0.6626
13369SOL    HW250038   5.154   6.390   1.550 -0.0873  1.2368 -1.1454
13370SOL     OW50039   0.786   8.491   2.894  0.3701 -0.1808  0.0518
13370SOL    HW150040   0.828   8.416   2.936  1.0034 -1.1281 -2.1448
13370SOL    HW250041   0.700   8.459   2.869  0.6208 -0.1664 -0.8447
13371SOL     OW50042   3.825  12.028   0.780  0.1267  0.0771 -1.0538
13371SOL    HW150043   3.748  12.066   0.823  1.5508  0.1048  1.6997
13371SOL    HW250044   3.875  12.104   0.749  2.2011  0.6595  3.0791
13372SOL     OW50045   5.347  10.655   7.190  0.3031  0.2166  0.3276
13372SOL    HW150046   5.329  10.636   7.282 -0.2220 -0.7262  0.0418
13372SOL    HW250047   5.337  10.571   7.145  0.5463  0.6643 -0.5939
13373SOL     OW50048   0.726   0.789   7.053 -0.2419  0.6867 -0.2189
13373SOL    HW150049   0.735   0.824   7.142 -1.6397 -0.4403  0.4089
13373SOL    HW250050   0.726   0.694   7.064  2.7319  0.3904 -1.8157
13374SOL     OW50051  12.324  10.825   4.214 -0.1844  0.2015  0.1607
13374SOL    HW150052  12.349  10.871   4.133 -2.4634  0.6076 -0.4083
13374SOL    HW250053  12.271  10.890   4.262 -0.5116 -0.6927  1.0328
13375SOL     OW50054   3.075  12.452   1.636 -0.6530  0.4805 -0.2082
13375SOL    HW150055   3.138  12.380   1.628 -0.0857  0.8516  0.6820
13375SOL    HW250056   3.022  12.428   1.713 -1.3164  0.3934 -0.6848
13376SOL     OW50057   0.688   3.089   1.843 -0.0241  0.3932  0.0570
13376SOL    HW150058   0.649   3.096   1.756  1.1319  0.7387 -0.4519
13376SOL    HW250059   0.756   3.157   1.845 -0.8217  1.2198  1.6745
13377SOL     OW50060   1.968   7.966   5.278  0.4593  0.3673 -0.0422
13377SOL    HW150061   1.881   7.927   5.268  0.6336 -0.1416  0.3476
13377SOL    HW250062   1.953   8.044   5.331  0.3750 -0.3390  1.0162
13378SOL     OW50063   4.463   0.097  10.279  0.8251 -0.1468  0.0227
13378SOL    HW150064   4.496   0.093  10.190  2.5885 -0.7448  0.6655
13378SOL    HW250065   4.404   0.021  10.286 -0.3038  0.6062 -0.9641
13379SOL     OW50066   7.437  12.783  10.322  0.6055 -0.3688  0.1699
13379SOL    HW150067   7.479  12.867  10.308  2.4970 -1.1365  0.9113
13379SOL    HW250068   7.419  12.750  10.234  0.7961  0.3419 -0.1435
13380SOL     OW50069   5.574  12.070   9.578  0.0111 -0.3853 -0.5208
13380SOL    HW150070   5.527  12.093   9.499  0.5922  0.3408 -0.6622
13380SOL    HW250071   5.523  12.109   9.649 -1.6598 -2.7605 -0.3073
13381SOL     OW50072  10.177   0.086   9.483  0.3488  0.5088 -0.3015
13381SOL    HW150073  10.233   0.020   9.524  0.2996  0.0875 -0.9081
13381SOL    HW250074  10.218   0.103   9.398  0.9296  1.9904  0.2412
13382SOL     OW50075   6.297   7.202   7.202  0.0752  0.1737  0.4698
13382SOL    HW150076   6.362   7.132   7.206 -0.7472 -0.6353  0.0848
13382SOL    HW250077   6.291   7.224   7.109  0.4787  0.9142  0.6113
13383SOL     OW50078   5.644   0.947   8.076  0.1752  0.2250 -0.1234
13383SOL    HW150079   5.637   1.032   8.118 -1.4197  0.0113  0.1043
13383SOL    HW250080   5.566   0.899   8.105  1.5532 -1.7170  0.6414
13384SOL     OW50081   0.549   7.246   3.116  0.2030 -0.1735  0.4582
13384SOL    HW150082   0.592   7.265   3.199 -0.9919 -1.3242  1.3748
13384SOL    HW250083   0.616   7.202   3.064  0.4224 -1.1121  1.5100
13385SOL     OW50084   7.993   3.640   1.237 -0.5140  0.0651 -0.0006
13385SOL    HW150085   7.925   3.577   1.259 -0.7886  0.6915  1.0156
13385SOL    HW250086   7.972   3.717   1.290 -1.1651  1.6496 -2.3819
13386SOL     OW50087   3.070  11.906   7.094  0.3760 -0.1165  0.0937
13386SOL    HW150088   2.988  11.873   7.059  1.2039 -1.4745 -0.6736
13386SOL    HW250089   3.045  11.959   7.169 -1.1858 -0.6459 -0.0242
13387SOL     OW50090   1.616   3.397   5.235  0.3483  0.1654  0.1538
13387SOL    HW150091   1.524   3.401   5.263  0.3581  1.6558  0.0370
13387SOL    HW250092   1.662   3.458   5.292  1.2187 -0.3154 -0.0099
13388SOL     OW50093   1.997  11.364   3.382  0.6223 -0.1596 -0.3111
13388SOL    HW150094   2.064  11.433   3.384  0.2971  0.2403 -1.7871
13388SOL    HW250095   2.031  11.300   3.320 -0.7104  0.4819 -1.7955
13389SOL     OW50096  10.757  12.902   4.717 -0.2697  0.3890 -0.1112
13389SOL    HW150097  10.743  12.989   4.754 -0.5897  0.0258  0.6407
13389SOL    HW250098  10.787  12.849   4.791  0.5349  0.0031 -0.6921
13390SOL     OW50099   5.719   5.209   1.768  0.2040  0.0108  0.3636
13390SOL    HW150100   5.674   5.271   1.826 -0.3997 -0.8765  0.8638
13390SOL    HW250101   5.792   5.259   1.732 -0.1551  0.9574  0.9089
13391SOL     OW50102   6.239   7.844   7.298 -0.0953 -0.1842 -0.1434
13391SOL    HW150103   6.294   7.767   7.284 -0.2550 -0.5615  1.1724
13391SOL    HW250104   6.216   7.840   7.391 -1.2721  0.6763 -0.3759
13392SOL     OW50105   3.001  10.866   3.929  0.8075 -0.1869 -0.4578
13392SOL    HW150106   2.951  10.796   3.972 -0.1527  1.2681  0.9111
13392SOL    HW250107   3.027  10.924   4.001  0.9344  1.2431 -1.6267
13393SOL     OW50108  10.365   0.287   5.162 -0.1743 -0.1062 -0.2966
13393SOL    HW150109  10.312   0.215   5.198  0.2082 -0.0758  0.3370
13393SOL    HW250110  10.352   0.359   5.224 -0.0556  0.1690 -0.5936
13394SOL     OW50111  11.645   2.322   7.309 -0.1148 -0.2138  0.6213
13394SOL    HW150112  11.738   2.321   7.285 -0.5000 -4.5702 -1.9405
13394SOL    HW250113  11.600   2.341   7.227 -1.5363  1.2309  1.6979
13395SOL     OW50114   6.347  12.442   1.149 -0.1668  0.3679 -0.2039
13395SOL    HW150115   6.345  12.355   1.110  0.4791  1.0192 -1.8102
13395SOL    HW250116   6.269  12.486   1.114  0.6230  1.0861 -1.1444
13396SOL     OW50117   6.025   4.218   4.002 -0.2175 -0.3513  0.4514
13396SOL    HW150118   6.116   4.232   3.978 -0.3270 -0.3207  0.0469
13396SOL    HW250119   5.991   4.306   4.018 -0.0526 -0.3979  1.0558
13397SOL     OW50120   3.263   8.571  12.227 -0.1646  0.4511  0.0005
13397SOL    HW150121   3.169   8.563  12.210  0.1666 -0.2071 -1.7600
13397SOL    HW250122   3.297   8.483  12.211  0.9089  0.9408 -0.4674
13398SOL     OW50123   6.113  10.785   4.362 -0.0417  0.4803 -0.0569
13398SOL    HW150124   6.075  10.712   4.410  0.5585  0.6694  0.7178
13398SOL    HW250125   6.174  10.744   4.301 -1.3064  0.1878 -1.1812
13399SOL     OW50126  12.790   4.115   5.264 -0.3687  0.1199 -0.2425
13399SOL    HW150127  12.850   4.040   5.269 -0.1293  0.2625 -0.8931
13399SOL    HW250128  12.826   4.178   5.326 -0.6398 -0.3459  0.4017
13400SOL     OW50129   7.119  13.290   4.097 -0.2210  0.7595 -0.5072
13400SOL    HW150130   7.081  13.376   4.116  0.2688  1.0694 -0.8972
13400SOL    HW250131   7.209  13.309   4.069 -0.4533  0.2152 -1.6936
13401SOL     OW50132   2.262  13.302  12.583 -0.0927  0.1093  0.5197
13401SOL    HW150133   2.351  13.331  12.603 -0.1473  0.7089 -0.0758
13401SOL    HW250134   2.214  13.382  12.562 -0.4413 -0.3281 -0.4250
13402SOL     OW50135   5.960   8.264   8.506  0.4927 -0.4294  0.0941
13402SOL    HW150136   5.955   8.185   8.452 -1.0853 -1.1290  1.1919
13402SOL    HW250137   5.902   8.247   8.580  0.9155  1.3616  0.9038
13403SOL     OW50138   4.477   0.894  10.960 -0.8825  0.3098  0.3236
13403SOL    HW150139   4.453   0.820  10.904 -1.2987 -0.0478  0.9603
13403SOL    HW250140   4.569   0.879  10.983 -0.7205  0.4419 -0.2273
13404SOL     OW50141   2.580   3.121   4.198  0.3854  0.0863 -0.4182
13404SOL    HW150142   2.607   3.211   4.216  0.5000  0.4385 -2.2139
13404SOL    HW250143   2.518   3.100   4.267  0.9054  1.2835  0.4412
13405SOL     OW50144   9.284   1.825  10.196 -0.0812 -0.5882 -0.2798
13405SOL    HW150145   9.374   1.851  10.175  0.0037 -1.2562 -0.7976
13405SOL    HW250146   9.230   1.878  10.137  0.0453 -1.0120 -0.7866
13406SOL     OW50147  11.871   3.098   3.970  0.3096 -0.0932 -0.2424
13406SOL    HW150148  11.831   3.033   4.028  0.8858  0.0657  0.3441
13406SOL    HW250149  11.936   3.048   3.920  2.5727  0.4439  1.9974
13407SOL     OW50150   2.686   9.612  11.010 -0.0823  0.1810  0.2536
13407SOL    HW150151   2.599   9.651  11.017 -0.7187 -1.1685  0.3116
13407SOL    HW250152   2.746   9.681  11.038 -1.2171  0.7667  1.3273
13408SOL     OW50153   9.908   1.658  12.276 -0.1732  0.3039  0.3896
13408SOL    HW150154   9.838   1.653  12.341  0.5899 -0.1873  1.1978
13408SOL    HW250155   9.984   1.691  12.325 -0.3243  2.7392 -0.8991
13409SOL     OW50156   4.213   5.504  11.787 -0.0326 -0.2323  0.1442
13409SOL    HW150157   4.240   5.473  11.873  0.2911  0.6817  0.3810
13409SOL    HW250158   4.265   5.583  11.772  1.4010 -1.4192 -1.7257
13410SOL     OW50159   6.001   2.753  10.957 -0.0154 -0.0817 -0.2460
13410SOL    HW150160   6.066   2.686  10.979 -2.7987 -2.7417  0.6461
13410SOL    HW250161   5.918   2.717  10.990 -2.1225  2.6252 -2.1720
13411SOL     OW50162  11.822   9.527   1.070 -0.1889  0.1882 -0.7244
13411SOL    HW150163  11.799   9.619   1.057 -0.9444  0.0303 -0.5291
13411SOL    HW250164  11.914   9.529   1.098  0.6962  0.7072 -3.3477
13412SOL     OW50165   7.671   0.977   9.117 -0.2878 -0.0976 -0.2245
13412SOL    HW150166   7.609   1.046   9.093 -0.2005 -0.0328 -0.2682
13412SOL    HW250167   7.753   1.024   9.132  0.2747 -0.3727 -2.1357
13413SOL     OW50168  12.734   8.051  12.507  0.0859 -0.0868 -0.2852
13413SOL    HW150169  12.669   7.982  12.521  1.1293 -1.2810 -1.0898
13413SOL    HW250170  12.691   8.114  12.449 -1.1199  0.3471  1.0123
13414SOL     OW50171   8.919   7.063   0.625  0.4727 -0.1658 -0.1338
13414SOL    HW150172   8.851   7.092   0.686 -1.2937 -1.6862 -1.2460
13414SOL    HW250173   8.963   6.991   0.670  1.4715  0.8776  0.6240
13415SOL     OW50174   5.690   4.077  11.352  0.0076  0.9875  0.4170
13415SOL    HW150175   5.617   4.079  11.289  0.2883  0.3455  0.0637
13415SOL    HW250176   5.687   4.163  11.395  0.7168  2.0404 -1.5195
13416SOL     OW50177   5.665  12.608   7.209 -0.2128 -0.0948  0.1684
13416SOL    HW150178   5.645  12.542   7.275  1.4843  1.0603  1.9722
13416SOL    HW250179   5.622  12.688   7.241  0.0797  0.3317 -0.4736
13417SOL     OW50180   4.216   1.924   8.194  0.0757  0.1738 -0.1012
13417SOL    HW150181   4.129   1.891   8.217  0.2906 -0.9765 -0.8465
13417SOL    HW250182   4.201   1.975   8.114  0.0384  0.2609 -0.0392
13418SOL     OW50183   2.847  12.524  13.097 -1.1427 -0.2485 -0.1615
13418SOL    HW150184   2.811  12.457  13.038 -0.3245 -0.8754  0.0436
13418SOL    HW250185   2.913  12.478  13.149 -1.2254  0.5063  0.6321
13419SOL     OW50186   9.013  12.060   6.885  0.3056  0.2033 -0.5155
13419SOL    HW150187   9.042  11.969   6.881 -0.9673 -0.3163  1.2052
13419SOL    HW250188   8.942  12.065   6.821 -0.0964 -0.1996 -0.1027
13420SOL     OW50189  11.446   3.677   8.643  0.6120  0.1175  0.3084
13420SOL    HW150190  11.410   3.634   8.721  2.1991 -2.2560 -0.1441
13420SOL    HW250191  11.530   3.713   8.672  0.1328  1.3102  0.2351
13421SOL     OW50192  12.560   2.456   5.641  0.4692 -0.5291  0.1648
13421SOL    HW150193  12.614   2.451   5.562  0.4705 -2.2770  0.2427
13421SOL    HW250194  12.605   2.520   5.697  0.4321  0.7692 -1.2457
13422SOL     OW50195  11.081  10.070  10.200  0.7559  0.0219 -0.3731
13422SOL    HW150196  11.059  10.135  10.266 -2.9385 -1.3359 -0.0235
13422SOL    HW250197  11.115   9.995  10.249 -0.6318 -0.4479 -0.0776
13423SOL     OW50198   5.245   6.925   7.645  1.1148 -0.0298 -0.2542
13423SOL    HW150199   5.196   6.951   7.567  1.3310  0.2643 -0.2945
13423SOL    HW250200   5.320   6.876   7.611  0.8677 -0.4547 -0.1939
13424SOL     OW50201   0.136   7.033  12.597  0.3189 -0.0218 -0.5870
13424SOL    HW150202   0.079   6.958  12.612  1.0848 -0.5962 -0.4686
13424SOL    HW250203   0.108   7.098  12.661 -0.0337 -0.3955 -0.3608
13425SOL     OW50204   1.441  11.529   0.351 -0.0216 -0.6144  0.1900
13425SOL    HW150205   1.358  11.569   0.378  0.8819  2.0140 -0.6420
13425SOL    HW250206   1.423  11.493   0.264 -0.3151 -0.0797  0.0246
13426SOL     OW50207  12.548  12.741   8.756  0.2086  0.4391 -0.3484
13426SOL    HW150208  12.598  12.712   8.832 -0.5512 -0.2238 -0.0877
13426SOL    HW250209  12.554  12.668   8.694  0.3936  0.7625 -0.7115
13427SOL     OW50210  13.086   6.682   3.431  0.1669  0.3968  0.1353
13427SOL    HW150211  12.999   6.643   3.417 -0.3718  0.9266  1.6978
13427SOL    HW250212  13.144   6.635   3.372 -0.8918 -1.1264  0.2644
13428SOL     OW50213   4.878   7.072  11.407 -0.6060  0.5692  0.0097
13428SOL    HW150214   4.906   7.152  11.453  2.3035 -1.1497  1.5646
13428SOL    HW250215   4.881   7.004  11.475 -2.2257 -1.0451 -1.4442
13429SOL     OW50216  12.301   0.965   6.325  0.2462  0.2202  0.2193
13429SOL    HW150217  12.323   1.052   6.359 -0.6794  0.2073  0.9280
13429SOL    HW250218  12.255   0.922   6.398  0.4575 -0.7676 -0.2063
13430SOL     OW50219  10.303   6.867   7.211 -0.1994 -0.0629 -0.4485
13430SOL    HW150220  10.372   6.829   7.157  0.2399  1.2101 -0.8064
13430SOL    HW250221  10.341   6.870   7.299  0.6216  1.5492 -0.8165
13431SOL     OW50222   3.029   0.737   9.580  0.6433  0.0487  0.0830
13431SOL    HW150223   2.934   0.727   9.593  0.6629  0.4425  0.5539
13431SOL    HW250224   3.043   0.708   9.490 -0.0655  0.8591 -0.3051
13432SOL     OW50225   1.753   3.146   3.005  0.1496  0.4475  0.0827
13432SOL    HW150226   1.832   3.134   2.951 -0.0682 -0.8191  0.0193
13432SOL    HW250227   1.783   3.199   3.078  1.2070 -0.4266  0.3183
13433SOL     OW50228   3.849   2.909   6.187  0.1746 -0.0471 -0.4229
13433SOL    HW150229   3.784   2.839   6.186  1.6406 -1.4370 -0.5432
13433SOL    HW250230   3.914   2.882   6.122  1.6859  0.5388  0.8091
13434SOL     OW50231   9.792   1.579  11.448  0.5512 -0.3489  0.3692
13434SOL    HW150232   9.758   1.563  11.360  1.8319  0.8443 -0.3979
13434SOL    HW250233   9.860   1.513  11.460  2.8197  1.5756 -1.0309
13435SOL     OW50234  12.939   9.264   7.041  0.1610 -0.5024  0.1608
13435SOL    HW150235  12.920   9.357   7.023  0.3185 -0.7916 -1.7228
13435SOL    HW250236  13.029   9.252   7.012  0.0658 -1.3013  0.1730
13436SOL     OW50237  11.504   2.220  10.288 -0.3075 -0.4862 -0.1332
13436SOL    HW150238  11.410   2.216  10.306 -0.9599 -1.2599 -3.0830
13436SOL    HW250239  11.540   2.142  10.331 -1.1296 -0.5373  0.4744
13437SOL     OW50240   5.930   6.291   6.399  0.3456 -0.2328 -0.3679
13437SOL    HW150241   5.920   6.206   6.355  1.6727  0.8081 -2.9046
13437SOL    HW250242   6.023   6.295   6.420  0.5016  0.9897 -1.2274
13438SOL     OW50243   3.912   9.546   5.561  0.0730  0.4179  0.0231
13438SOL    HW150244   3.820   9.557   5.585 -0.2681  1.4724 -1.6388
13438SOL    HW250245   3.950   9.499   5.635 -1.9898 -0.8393  0.3741
13439SOL     OW50246   4.520   5.558  11.929  0.1573 -0.1897 -0.5601
13439SOL    HW150247   4.546   5.528  11.842 -2.4372 -2.5130 -0.6815
13439SOL    HW250248   4.477   5.482  11.969  0.0684  1.1996  2.2578
13440SOL     OW50249   7.353  13.234  10.218 -0.5629  0.5232 -0.8041
13440SOL    HW150250   7.416  13.239  10.290 -0.2987  1.4747 -1.0924
13440SOL    HW250251   7.406  13.239  10.139 -1.0594  2.9173 -1.0603
13441SOL     OW50252   7.955  11.725   9.289  0.1585 -0.3524  0.2905
13441SOL    HW150253   7.911  11.748   9.207  1.0604  1.8888  0.3601
13441SOL    HW250254   7.884  11.719   9.353 -0.4702 -1.3112 -0.4693
13442SOL     OW50255   2.227   2.762   2.123  0.4781 -0.5206  0.1653
13442SOL    HW150256   2.156   2.699   2.116 -1.6444  1.7109  0.3079
13442SOL    HW250257   2.272   2.755   2.039 -0.3606 -1.4584 -0.2347
13443SOL     OW50258   3.652   9.785   6.063 -0.4476  0.6473 -0.6214
13443SOL    HW150259   3.614   9.853   6.118  0.4514  0.1791  0.6287
13443SOL    HW250260   3.726   9.828   6.019 -0.7644  0.8537 -0.9485
13444SOL     OW50261  12.167   3.106  12.026 -0.3932  0.0604 -0.5572
13444SOL    HW150262  12.133   3.188  12.060 -0.1024 -0.0995  0.1285
13444SOL    HW250263  12.090   3.051  12.014 -0.3110 -1.1964  3.3297
13445SOL     OW50264  12.132   4.537   9.560 -0.0345 -0.7356  0.1807
13445SOL    HW150265  12.175   4.527   9.475  0.6417  0.2924  0.3800
13445SOL    HW250266  12.161   4.623   9.591 -1.3190 -0.5244  0.8582
13446SOL     OW50267   5.209   8.295   0.880 -0.0518  0.3226 -0.1368
13446SOL    HW150268   5.150   8.365   0.908  0.8750  0.8866  0.4680
13446SOL    HW250269   5.203   8.230   0.951 -2.8058 -1.4662 -1.8279
13447SOL     OW50270   3.626  12.460   3.889 -0.1624  0.2420  0.0713
13447SOL    HW150271   3.645  12.476   3.797 -0.1934  2.0210  0.3471
13447SOL    HW250272   3.620  12.547   3.929 -4.7643 -0.1880  0.8554
13448SOL     OW50273   3.783   1.899   2.305 -0.0489  0.1917 -0.0354
13448SOL    HW150274   3.787   1.936   2.393  0.9560 -1.0375  0.4708
13448SOL    HW250275   3.875   1.899   2.276 -0.1142 -1.1656 -0.3059
13449SOL     OW50276  12.021   3.902   6.140 -0.5098 -0.4635 -0.0749
13449SOL    HW150277  12.080   3.975   6.157  1.8137 -1.8990 -1.4244
13449SOL    HW250278  11.970   3.892   6.221  0.9914  0.9504  1.0898
13450SOL     OW50279   6.384  11.865   2.442 -0.0967 -0.3667 -0.1070
13450SOL    HW150280   6.325  11.940   2.441  2.0016  1.3955  0.6531
13450SOL    HW250281   6.430  11.869   2.358  0.5843 -0.2995  0.2578
13451SOL     OW50282   5.842   7.056   3.126  0.0957 -0.5158  0.4966
13451SOL    HW150283   5.786   6.994   3.173  1.0439 -0.6677  1.4713
13451SOL    HW250284   5.915   7.072   3.186  0.3335  0.8455 -0.1221
13452SOL     OW50285   2.380   9.839   7.259 -0.1172  0.5642 -0.1460
13452SOL    HW150286   2.420   9.862   7.343  0.4691  1.8212 -0.7403
13452SOL    HW250287   2.440   9.874   7.193 -1.3887  1.0864 -1.0744
13453SOL     OW50288   0.075  10.667   3.611  0.4079 -0.1635  0.2161
13453SOL    HW150289   0.146  10.727   3.634 -0.5807  0.5037  1.6576
13453SOL    HW250290  -0.005  10.713   3.636 -0.4515 -1.5387  0.0993
13454SOL     OW50291  10.264   6.209   6.279 -0.1381  0.0307  0.1776
13454SOL    HW150292  10.359   6.214   6.265  0.0964  2.5074  1.9123
13454SOL    HW250293  10.254   6.218   6.374 -2.1715  1.0799 -0.0902
13455SOL     OW50294   9.768   9.097   9.397  0.2371  0.5778 -0.4371
13455SOL    HW150295   9.718   9.179   9.389  0.0711  0.5625  0.3344
13455SOL    HW250296   9.727   9.052   9.471  1.2152  0.4339  0.0290
13456SOL     OW50297  13.110   5.674   2.107 -0.4633  0.0885 -0.0681
13456SOL    HW150298  13.064   5.631   2.178 -0.3114 -0.2176 -0.1534
13456SOL    HW250299  13.098   5.616   2.032  0.7415 -0.4189  0.0993
13457SOL     OW50300   6.421  11.554  11.511  0.3687  0.7188 -0.0989
13457SOL    HW150301   6.374  11.637  11.501 -0.5733  0.2805  0.5070
13457SOL    HW250302   6.355  11.487  11.490  0.7253  0.0898  0.7396
13458SOL     OW50303  10.056   6.769   4.946 -0.1749  0.4387  0.0323
13458SOL    HW150304  10.007   6.738   4.870  0.0728 -0.3046  0.1645
13458SOL    HW250305  10.084   6.689   4.991  1.6730  0.8080 -0.3560
13459SOL     OW50306   0.296   2.398  10.184  0.0036  0.9625 -0.6016
13459SOL    HW150307   0.210   2.411  10.144 -0.8508  1.3224  1.2366
13459SOL    HW250308   0.288   2.314  10.230  0.0563  1.7505  0.9095
13460SOL     OW50309  12.979   6.100   0.276  0.0362 -0.0600 -0.1601
13460SOL    HW150310  13.046   6.145   0.225  0.2779  0.1342  0.3249
13460SOL    HW250311  12.963   6.018   0.228  1.6703 -0.7858  0.4770
13461SOL     OW50312   3.194   6.458   2.101 -0.0596  0.4325  0.0796
13461SOL    HW150313   3.182   6.451   2.196  0.3322  0.5294  0.1383
13461SOL    HW250314   3.124   6.516   2.072 -0.1048  0.5037  0.3292
13462SOL     OW50315   8.778  12.191  10.455  0.5667 -0.3512  0.0156
13462SOL    HW150316   8.764  12.229  10.369 -3.3676  0.5483  0.8619
13462SOL    HW250317   8.805  12.265  10.510 -0.9646 -0.0070  0.3499
13463SOL     OW50318  13.229  10.770   8.330  0.2111  0.2005 -0.0418
13463SOL    HW150319  13.191  10.771   8.417  3.4148 -0.2317  1.4931
13463SOL    HW250320  13.215  10.680   8.299  0.1634  0.0049  0.5486
13464SOL     OW50321   7.781   3.351  12.628 -0.2173  0.5301 -0.0569
13464SOL    HW150322   7.697   3.305  12.627  0.4336 -0.7037 -1.0561
13464SOL    HW250323   7.804   3.359  12.535  0.5064  1.3650  0.1883
13465SOL     OW50324   8.391  10.475   0.133  0.2525  0.0561  0.3561
13465SOL    HW150325   8.349  10.494   0.217 -1.0571 -1.2166  0.0362
13465SOL    HW250326   8.346  10.532   0.071 -0.3090 -0.5505  0.1886
13466SOL     OW50327   3.876   3.375   0.314  0.2219 -0.4451  0.4468
13466SOL    HW150328   3.926   3.372   0.233  1.2999 -0.6034  1.1021
13466SOL    HW250329   3.785   3.382   0.286  0.7132  1.8690 -0.7616
13467SOL     OW50330   2.853   8.241   3.199 -0.1097  0.3635  0.5758
13467SOL    HW150331   2.783   8.306   3.208  0.5328  0.8080  3.0080
13467SOL    HW250332   2.930   8.283   3.238  1.2330 -0.5886 -0.9008
13468SOL     OW50333  13.280   1.142   9.789  0.4544 -0.3408 -0.4249
13468SOL    HW150334  13.208   1.151   9.852 -0.0386  1.1900 -1.1603
13468SOL    HW250335  13.244   1.088   9.718  1.2412 -2.7116  0.8520
13469SOL     OW50336   1.675   1.516  12.486  0.3543 -0.4495 -0.2135
13469SOL    HW150337   1.638   1.527  12.574 -1.2019 -1.5246 -0.6825
13469SOL    HW250338   1.737   1.443  12.495 -0.2581 -0.9655 -0.1183
13470SOL     OW50339   5.209   5.818   6.705  0.4783 -0.1665 -0.6955
13470SOL    HW150340   5.177   5.809   6.794  0.8411  1.9883 -0.3026
13470SOL    HW250341   5.299   5.851   6.714  0.7437 -0.4884 -1.8624
13471SOL     OW50342   5.776   6.255  10.608 -0.1180 -0.0249 -0.1204
13471SOL    HW150343   5.807   6.335  10.649 -1.8526  0.2734  0.7127
13471SOL    HW250344   5.776   6.274  10.514  0.2811  0.6549  0.0136
13472SOL     OW50345   2.412   4.064  10.176 -0.2721 -0.5317  0.5569
13472SOL    HW150346   2.464   4.019  10.110  2.3329  0.8912  1.4793
13472SOL    HW250347   2.336   4.098  10.128  0.5901 -1.0896 -1.2986
13473SOL     OW50348   0.035   8.934  10.518 -0.1912  0.3404  0.1483
13473SOL    HW150349  -0.021   8.856  10.520 -0.3985  0.5023  1.3644
13473SOL    HW250350  -0.025   9.005  10.495 -0.7031  0.6477  2.2505
13474SOL     OW50351  12.259  11.052  10.360  0.2363  0.1199  0.1491
13474SOL    HW150352  12.269  10.962  10.394  0.0557  0.2216  0.4782
13474SOL    HW250353  12.324  11.103  10.408  0.4556  0.1354 -0.1599
13475SOL     OW50354   9.477   3.184  13.040 -0.1030  0.1994 -0.4072
13475SOL    HW150355   9.421   3.193  13.117 -1.0976  0.3379 -1.1255
13475SOL    HW250356   9.457   3.097  13.005 -0.4864  0.5654 -1.1280
13476SOL     OW50357   1.194   1.207   8.769  0.1116  0.1962 -1.0058
13476SOL    HW150358   1.285   1.184   8.750  0.0479 -0.2378 -0.8054
13476SOL    HW250359   1.197   1.245   8.857  0.1192  0.3332 -1.0639
13477SOL     OW50360   7.197  12.225   3.439  0.0798  0.7053 -0.3103
13477SOL    HW150361   7.228  12.147   3.485 -2.9757  0.4922  1.7371
13477SOL    HW250362   7.252  12.296   3.471  2.0427 -0.3395 -1.1915
13478SOL     OW50363   4.236  10.818   5.583  0.6546  0.8207  0.3374
13478SOL    HW150364   4.329  10.840   5.593  0.5000  0.8275  2.0132
13478SOL    HW250365   4.202  10.886   5.524  1.2671  2.0924  1.3929
13479SOL     OW50366   0.069  12.470   5.998  0.4140 -0.5833  0.4100
13479SOL    HW150367   0.077  12.546   5.940  0.6336 -1.0615 -0.1992
13479SOL    HW250368  -0.012  12.485   6.046 -0.7166 -0.9998 -1.2715
13480SOL     OW50369  10.370   0.957  13.269  0.8458  0.8496  0.1796
13480SOL    HW150370  10.309   0.884  13.258  1.0192  0.5622  1.0182
13480SOL    HW250371  10.369   0.975  13.363  3.1543 -0.1856  0.4988
13481SOL     OW50372   7.334   3.543  12.204  0.5967 -0.0900  0.4994
13481SOL    HW150373   7.309   3.581  12.289 -0.7338 -0.9540  0.5178
13481SOL    HW250374   7.424   3.572  12.191  0.3861  1.1520  1.5860
13482SOL     OW50375  11.212   8.493  10.777 -0.3083  0.1849 -0.0749
13482SOL    HW150376  11.203   8.502  10.682  3.2587 -0.5482 -0.6341
13482SOL    HW250377  11.264   8.569  10.803 -1.4427  0.4934  1.3706
13483SOL     OW50378  12.191   9.438   9.509  0.0504  0.1008 -0.4091
13483SOL    HW150379  12.125   9.432   9.578 -1.0160 -1.7311 -1.5082
13483SOL    HW250380  12.231   9.351   9.506 -0.5271 -0.1601 -2.6149
13484SOL     OW50381   6.584  10.846  10.057 -0.1377 -0.7019  0.2430
13484SOL    HW150382   6.599  10.830  10.150 -0.5967  0.8901  0.6176
13484SOL    HW250383   6.671  10.867  10.022 -0.2056  0.3638  0.6823
13485SOL     OW50384   7.923  10.015   1.715  0.0172 -0.3127 -0.5898
13485SOL    HW150385   7.907  10.095   1.764 -0.4171  0.0729 -1.3580
13485SOL    HW250386   7.837   9.988   1.684  0.1036 -1.2781 -0.0475
13486SOL     OW50387   4.310   0.792   7.290 -0.0484 -0.0204 -0.4486
13486SOL    HW150388   4.249   0.835   7.231  0.5678  2.4576  0.5756
13486SOL    HW250389   4.259   0.772   7.368 -0.1105 -0.1553 -0.5250
13487SOL     OW50390  11.707   0.588   2.644 -0.2509  0.1408  0.4269
13487SOL    HW150391  11.788   0.621   2.683  0.3527 -0.8699  0.0712
13487SOL    HW250392  11.704   0.630   2.557  0.1340 -0.1664  0.2622
13488SOL     OW50393   9.422   3.594   2.707 -0.4329 -0.0618  0.6849
13488SOL    HW150394   9.489   3.585   2.639  0.2641  1.2206  1.1820
13488SOL    HW250395   9.347   3.633   2.661 -0.1427  0.3280  0.5308
13489SOL     OW50396  12.773  11.960  10.647  0.0180 -0.0950 -0.5940
13489SOL    HW150397  12.793  11.867  10.658  0.8715  0.3346  2.0623
13489SOL    HW250398  12.856  12.000  10.621 -0.0186  0.1169 -0.3871
13490SOL     OW50399   9.013   1.015  10.658 -0.3630  0.1034 -0.4443
13490SOL    HW150400   8.994   0.933  10.614 -0.2856 -0.4859  0.5981
13490SOL    HW250401   9.059   0.990  10.738 -1.4532  1.0591  0.5247
13491SOL     OW50402   1.855   7.928   5.641  0.4982  0.0525  0.0204
13491SOL    HW150403   1.870   7.958   5.551  0.7890  0.0222  0.0575
13491SOL    HW250404   1.760   7.934   5.653  0.0897 -2.3700 -1.1847
13492SOL     OW50405   5.711   7.470   0.695 -0.3779 -0.1963 -0.2365
13492SOL    HW150406   5.716   7.431   0.608 -2.0778 -1.1572  0.0527
13492SOL    HW250407   5.753   7.556   0.686  0.5229 -0.7580 -1.6919
13493SOL     OW50408  10.460  11.290   1.186 -0.4545 -0.2847  0.5172
13493SOL    HW150409  10.462  11.197   1.163  2.4057  0.3486 -2.4754
13493SOL    HW250410  10.448  11.335   1.103 -0.6686  2.1049  1.7534
13494SOL     OW50411   1.477   1.844   0.500 -0.3375  0.6621  0.2312
13494SOL    HW150412   1.463   1.860   0.406 -1.3708 -1.3126  0.0014
13494SOL    HW250413   1.402   1.791   0.527  1.5199 -1.5569  1.4020
13495SOL     OW50414  12.906  10.277   6.584 -0.2105 -0.1179  0.6496
13495SOL    HW150415  12.908  10.365   6.547 -1.5286 -0.6761 -0.8381
13495SOL    HW250416  12.990  10.238   6.559 -1.1488 -0.5650 -2.0704
13496SOL     OW50417   0.017  10.439   8.033  0.0516 -0.2854 -0.0390
13496SOL    HW150418   0.078  10.509   8.054  0.5181 -1.1742  1.7486
13496SOL    HW250419   0.068  10.378   7.980  0.2762 -0.3154  0.2114
13497SOL     OW50420  13.201   9.526  12.990 -0.4153  0.1678 -0.2372
13497SOL    HW150421  13.142   9.573  12.931 -2.7619  0.0883  1.8795
13497SOL    HW250422  13.228   9.592  13.054 -0.0428 -0.3218  0.1171
13498SOL     OW50423  12.009   0.707   9.299  0.7429 -0.3144 -0.1751
13498SOL    HW150424  11.986   0.743   9.385 -2.1477 -1.4640 -0.3343
13498SOL    HW250425  11.955   0.758   9.238  0.5776 -1.4089 -0.9606
13499SOL     OW50426   5.890  11.075   9.891 -0.1075  0.3701 -0.0861
13499SOL    HW150427   5.840  11.056   9.811 -0.0219 -1.7314  0.3295
13499SOL    HW250428   5.837  11.040   9.962  0.9667  0.0306  0.5627
13500SOL     OW50429   4.729  10.892  12.183 -0.5530 -0.2393  0.1399
13500SOL    HW150430   4.816  10.864  12.211 -0.9286 -1.9545 -0.3064
13500SOL    HW250431   4.699  10.822  12.125 -2.0070  0.6055 -0.1710
13501SOL     OW50432  11.252  10.091   8.616 -0.4275 -0.0465 -0.1930
13501SOL    HW150433  11.189  10.066   8.549  0.0515  1.3504 -1.2005
13501SOL    HW250434  11.337  10.088   8.571 -0.3523  3.8871 -0.6682
13502SOL     OW50435   1.551  11.520   9.803 -0.0848  0.2851 -0.5930
13502SOL    HW150436   1.506  11.494   9.723  1.1117  0.7618 -1.4579
13502SOL    HW250437   1.640  11.486   9.792  0.1737  0.6304  0.3870
13503SOL     OW50438   1.936  13.017   9.961 -0.0077  0.1521 -0.7487
13503SOL    HW150439   1.988  13.032  10.040  0.9022 -1.2781 -1.0470
13503SOL    HW250440   1.986  12.951   9.912 -0.8662  0.5588 -2.2224
13504SOL     OW50441   6.177   0.216   8.956  0.3529 -0.0738  0.4421
13504SOL    HW150442   6.124   0.171   9.022 -0.5609  0.0332 -0.1958
13504SOL    HW250443   6.112   0.257   8.898  1.1408 -0.1831 -0.5306
13505SOL     OW50444   9.721   2.554   2.289 -0.0852 -0.0483  0.1891
13505SOL    HW150445   9.709   2.461   2.271  0.5759 -0.4684  1.7883
13505SOL    HW250446   9.806   2.560   2.333  0.4251  1.4680 -0.8984
13506SOL     OW50447   0.932   6.346   6.963  0.5197 -0.1956  0.6074
13506SOL    HW150448   0.954   6.316   7.051  1.0537  0.2236  0.6163
13506SOL    HW250449   0.839   6.367   6.967  0.2910 -1.1918  0.7855
13507SOL     OW50450   9.877  12.194  10.341 -0.0630  0.7716  0.6419
13507SOL    HW150451   9.835  12.174  10.425 -0.4713 -0.1096  0.2304
13507SOL    HW250452   9.896  12.288  10.346 -2.0669  1.2087  0.8577
13508SOL     OW50453   0.841   6.124  11.721  0.4157 -0.1137 -0.0218
13508SOL    HW150454   0.847   6.065  11.646  1.5147 -1.1820  0.8863
13508SOL    HW250455   0.879   6.206  11.689  2.1900 -0.9756 -0.2454
13509SOL     OW50456   0.271   0.177   2.800  0.4116 -0.7048  0.5523
13509SOL    HW150457   0.263   0.096   2.749  0.3152  0.7336 -1.8520
13509SOL    HW250458   0.188   0.223   2.787  1.1588  0.6269  0.2864
13510SOL     OW50459   5.358   6.532   0.946  0.3326  0.1895  0.1184
13510SOL    HW150460   5.311   6.615   0.959  1.3335  0.4902  2.0988
13510SOL    HW250461   5.303   6.483   0.885 -0.8051  1.8949 -0.2953
13511SOL     OW50462  13.286   1.597  11.984 -0.7317  0.3260  0.0339
13511SOL    HW150463  13.335   1.600  11.903 -1.1240  1.4746 -0.1829
13511SOL    HW250464  13.201   1.560  11.960 -1.2208  1.6044 -0.3175
13512SOL     OW50465   8.463   0.572   0.482 -0.5967 -0.1703 -0.6537
13512SOL    HW150466   8.550   0.537   0.464 -0.4866  0.5108 -1.5413
13512SOL    HW250467   8.476   0.633   0.555 -0.4451 -0.5116 -0.3918
13513SOL     OW50468  12.290   9.365   4.112 -0.2323 -0.6105 -0.0309
13513SOL    HW150469  12.340   9.313   4.050  1.7253  1.0833  0.0062
13513SOL    HW250470  12.348   9.375   4.187  0.0558  2.5520 -0.5214
13514SOL     OW50471   2.893   6.830   0.761 -0.3144  0.5761  0.3075
13514SOL    HW150472   2.907   6.896   0.829  2.0255 -1.2693  1.7331
13514SOL    HW250473   2.970   6.774   0.764 -1.3365 -1.1684 -2.1206
13515SOL     OW50474   9.121  12.428  11.249  0.5089  0.5843  0.7392
13515SOL    HW150475   9.088  12.413  11.161  0.8436 -0.7984  0.8275
13515SOL    HW250476   9.091  12.516  11.272 -3.0037 -0.5079  0.7788
13516SOL     OW50477   0.883   5.966   7.656  0.4225 -0.4436  0.3526
13516SOL    HW150478   0.956   5.983   7.598  0.0480  0.1669  0.0436
13516SOL    HW250479   0.819   5.920   7.602 -0.0797  0.4528  0.1618
13517SOL     OW50480   6.995   5.642   2.305 -0.1634 -0.1512  0.4589
13517SOL    HW150481   6.971   5.693   2.382  1.8096  1.3149  0.1902
13517SOL    HW250482   6.941   5.677   2.234  0.1369  0.5744  0.5841
13518SOL     OW50483  12.944   7.975   6.613  0.1825  0.0474 -0.1759
13518SOL    HW150484  12.945   8.036   6.687  1.5658 -1.0102  0.7350
13518SOL    HW250485  12.862   7.926   6.623  0.6172 -0.4776  1.0305
13519SOL     OW50486   3.261   5.789   1.980  0.4201 -0.3318 -0.0050
13519SOL    HW150487   3.349   5.785   2.019 -0.1286 -1.2355  1.1720
13519SOL    HW250488   3.273   5.842   1.901  1.8115  0.4872  0.7163
13520SOL     OW50489   7.386   9.852   6.869  0.5103  0.4679  0.0638
13520SOL    HW150490   7.326   9.838   6.796  1.2714 -1.2937 -0.2732
13520SOL    HW250491   7.454   9.909   6.833  0.5373  0.1466 -0.4028
13521SOL     OW50492   5.782  11.132   5.936  0.3047  0.0076  0.2794
13521SOL    HW150493   5.870  11.096   5.925  0.5356  0.8830 -0.8588
13521SOL    HW250494   5.775  11.200   5.869 -0.6027  1.1748  1.5029
13522SOL     OW50495   3.007   4.516   3.275  0.4163  0.1621 -0.2730
13522SOL    HW150496   2.928   4.541   3.228  0.6305  0.6113 -0.4006
13522SOL    HW250497   3.079   4.545   3.218  0.7057  2.0171  0.9570
13523SOL     OW50498  11.214   3.894  10.029 -0.0383 -0.1079 -0.5790
13523SOL    HW150499  11.218   3.930   9.941 -1.0421 -0.2534 -0.6865
13523SOL    HW250500  11.183   3.804  10.018  1.4592 -0.7023 -0.2195
13524SOL     OW50501  10.764   9.063   3.960  0.0220 -0.3395  0.5945
13524SOL    HW150502  10.696   9.098   3.903  2.6949 -0.4117 -2.9716
13524SOL    HW250503  10.794   9.138   4.011 -1.7892 -0.0624  1.3236
13525SOL     OW50504  12.205   8.964   4.150 -0.4288  0.3926  0.1492
13525SOL    HW150505  12.209   8.913   4.231 -0.0629  0.2911  0.0698
13525SOL    HW250506  12.297   8.986   4.131 -0.3612 -0.7530 -0.9796
13526SOL     OW50507   6.154   7.287   2.993  0.5842 -0.2546 -0.4524
13526SOL    HW150508   6.238   7.319   3.027  1.0045 -0.9845 -0.7607
13526SOL    HW250509   6.089   7.318   3.055  1.0800  0.3629 -0.2317
13527SOL     OW50510  11.582   2.916   0.813 -0.4629  0.1549  0.1977
13527SOL    HW150511  11.613   2.908   0.903 -1.2360  0.8380  0.5393
13527SOL    HW250512  11.566   2.826   0.785 -0.5524 -0.0458  0.8740
13528SOL     OW50513  12.608  12.457   9.699 -0.6673  0.4097 -0.2003
13528SOL    HW150514  12.573  12.495   9.618 -1.3240  0.1610 -0.0442
13528SOL    HW250515  12.591  12.364   9.690 -0.4912  0.3503  0.1055
13529SOL     OW50516  11.447   8.033   3.865 -0.0571  0.3309 -0.2614
13529SOL    HW150517  11.361   7.993   3.871 -0.3153  1.0037  0.9020
13529SOL    HW250518  11.431   8.127   3.875  0.9229  0.3491  1.6510
13530SOL     OW50519   0.506   5.065   9.642 -0.1379 -0.3614  0.0382
13530SOL    HW150520   0.452   5.143   9.633 -0.5179 -0.6280 -0.0415
13530SOL    HW250521   0.514   5.052   9.737 -2.0890 -1.5762  0.0872
13531SOL     OW50522   8.834  10.756   9.929  0.3216  0.2860 -0.2341
13531SOL    HW150523   8.897  10.716   9.869  1.5941  0.4475  0.9302
13531SOL    HW250524   8.751  10.755   9.882  1.0637 -0.5152 -1.5789
13532SOL     OW50525   6.120   2.167   0.368  0.1289  0.3308  0.6771
13532SOL    HW150526   6.177   2.129   0.435  1.7477  2.2809  0.4824
13532SOL    HW250527   6.032   2.158   0.405  0.4107 -2.8628  0.9338
13533SOL     OW50528   4.482   0.692   3.961 -0.2033  0.1228  0.3007
13533SOL    HW150529   4.548   0.629   3.992  1.1313  0.2919 -1.9625
13533SOL    HW250530   4.443   0.650   3.884 -0.4668  1.3568 -0.2594
13534SOL     OW50531   9.751  12.226   5.846  0.0429  0.3602 -0.0229
13534SOL    HW150532   9.774  12.233   5.939 -1.0209  1.5603  0.1729
13534SOL    HW250533   9.728  12.315   5.820 -1.5463 -0.2755 -0.9380
13535SOL     OW50534   2.955   8.728   5.062 -0.1278  0.1558 -0.1744
13535SOL    HW150535   3.042   8.695   5.040 -0.0325  0.7738 -0.7382
13535SOL    HW250536   2.964   8.823   5.061 -0.9377  0.2393 -0.7941
13536SOL     OW50537   0.002  11.581   9.053  0.0015  0.1521 -0.1463
13536SOL    HW150538   0.042  11.607   8.971 -0.6410 -1.1767 -0.9069
13536SOL    HW250539   0.060  11.515   9.089 -1.9013 -2.6299 -1.8079
13537SOL     OW50540   4.696   6.412   1.290  0.5018 -0.4096  0.0806
13537SOL    HW150541   4.744   6.421   1.207  2.2576 -0.9054  0.9917
13537SOL    HW250542   4.605   6.432   1.267  1.1382  0.7299 -1.7036
13538SOL     OW50543   0.620   2.546   1.836 -0.4842  0.7122  0.1084
13538SOL    HW150544   0.540   2.496   1.819 -0.2343  0.1522  0.5588
13538SOL    HW250545   0.678   2.524   1.764  0.4983 -1.4994  1.4994
13539SOL     OW50546   2.192  10.692  12.686  0.0215  0.3537 -0.1832
13539SOL    HW150547   2.174  10.770  12.740 -0.2843  1.2148 -1.4767
13539SOL    HW250548   2.155  10.619  12.735 -0.4977  1.1519  0.6350
13540SOL     OW50549   8.912  11.721   1.866 -0.1266 -0.5027 -0.0783
13540SOL    HW150550   8.880  11.756   1.949  0.0451 -0.6909  0.0690
13540SOL    HW250551   8.975  11.654   1.891 -0.1519 -0.6347 -0.3603
13541SOL     OW50552   2.874   3.833   1.697 -0.4650 -0.1845 -0.2629
13541SOL    HW150553   2.822   3.909   1.672 -0.3917 -0.1983 -0.4645
13541SOL    HW250554   2.813   3.775   1.742 -0.0026  1.0431  2.0528
13542SOL     OW50555  10.211   0.664  10.280  0.5225 -0.1204 -0.1588
13542SOL    HW150556  10.208   0.753  10.314  0.9981 -0.1907  0.0702
13542SOL    HW250557  10.298   0.655  10.241  0.1783 -0.2154 -0.9322
13543SOL     OW50558  10.716   2.547   6.597  0.4010  0.3722  0.3168
13543SOL    HW150559  10.709   2.507   6.510 -0.9196  2.4087 -0.6047
13543SOL    HW250560  10.762   2.482   6.650  0.2725 -1.4010 -1.6076
13544SOL     OW50561  12.479   2.154   6.851  0.0630 -0.0557 -0.0013
13544SOL    HW150562  12.467   2.249   6.856  1.8648  0.1953  0.2414
13544SOL    HW250563  12.423   2.118   6.920 -2.1587  0.6324 -1.3335
13545SOL     OW50564   9.532   9.250   6.130 -0.0329  0.4514 -0.3689
13545SOL    HW150565   9.483   9.314   6.080 -0.7636 -0.3687 -0.7382
13545SOL    HW250566   9.477   9.232   6.207 -0.1963 -0.2739 -0.6460
13546SOL     OW50567   1.163   8.816   2.882  0.2446 -0.1214  0.5580
13546SOL    HW150568   1.154   8.782   2.972  1.0473  0.2046  0.7690
13546SOL    HW250569   1.256   8.837   2.874  0.3494 -0.9391 -0.6430
13547SOL     OW50570   6.201   6.641   5.333  0.0735  0.4364 -0.1249
13547SOL    HW150571   6.184   6.570   5.395  1.3608 -1.1083 -1.4499
13547SOL    HW250572   6.295   6.656   5.340  0.4240 -0.4255 -2.3207
13548SOL     OW50573   9.761   7.287   1.199  0.5631  0.4149  0.5833
13548SOL    HW150574   9.756   7.220   1.131  2.5149  1.1692 -0.3988
13548SOL    HW250575   9.786   7.240   1.278  1.1263 -0.1382  0.0891
13549SOL     OW50576   3.604   9.813   4.654  0.6410 -0.0131 -0.0207
13549SOL    HW150577   3.569   9.884   4.708 -1.6952 -1.1031  0.0614
13549SOL    HW250578   3.682   9.783   4.700 -0.4400  0.0825  1.9765
13550SOL     OW50579  10.287   1.859   3.330  0.0443  0.0349  0.3250
13550SOL    HW150580  10.368   1.871   3.379  0.3466 -2.0052  0.4203
13550SOL    HW250581  10.312   1.866   3.238 -0.2964  2.6061  0.3753
13551SOL     OW50582   6.424  11.094   9.170 -0.1110 -0.9860  0.1084
13551SOL    HW150583   6.442  11.037   9.245  0.8372 -2.4370 -1.1550
13551SOL    HW250584   6.480  11.170   9.183  0.2509 -1.3557  0.7427
13552SOL     OW50585   1.032  12.457   7.997 -0.2609  0.2488 -0.0342
13552SOL    HW150586   0.944  12.419   8.003 -0.2898 -0.0849 -1.8793
13552SOL    HW250587   1.057  12.443   7.905  1.9248 -0.1103  0.5692
13553SOL     OW50588   8.547   0.347   9.369  0.0634 -0.2988  0.7077
13553SOL    HW150589   8.547   0.301   9.285 -0.0408 -0.1663  0.6363
13553SOL    HW250590   8.465   0.396   9.370  0.1441 -0.1661  0.8137
13554SOL     OW50591   7.731  13.304   5.904  0.0971  0.5522 -0.2731
13554SOL    HW150592   7.744  13.235   5.839  1.9549  0.5224  0.0575
13554SOL    HW250593   7.729  13.385   5.853  0.2760  0.4290 -0.4772
13555SOL     OW50594   0.099  13.167   9.115  0.5459  0.2663 -0.4708
13555SOL    HW150595   0.042  13.154   9.191  0.2635  0.1282 -0.7008
13555SOL    HW250596   0.054  13.120   9.044  0.4140  1.0358 -0.9073
13556SOL     OW50597   1.931   3.414   6.908 -0.3130  0.0376 -0.2323
13556SOL    HW150598   1.875   3.434   6.982 -0.9907 -0.5680 -0.5638
13556SOL    HW250599   1.870   3.397   6.836  0.3032 -0.3756 -0.6668
13557SOL     OW50600   0.340   8.650   3.644 -0.6870  0.3053  0.2475
13557SOL    HW150601   0.334   8.559   3.673 -0.5283  0.8536  2.1730
13557SOL    HW250602   0.318   8.647   3.551  0.8858 -1.9211 -0.1538
13558SOL     OW50603   0.157  11.846  10.148 -0.0454  0.0477  0.0660
13558SOL    HW150604   0.113  11.877  10.070  0.2919  0.2471 -0.0490
13558SOL    HW250605   0.114  11.764  10.170 -0.5345  0.2884  0.0141
13559SOL     OW50606  10.210  10.860   5.495 -0.2511 -0.7783  0.3247
13559SOL    HW150607  10.210  10.948   5.531  0.5689 -0.4448 -0.4480
13559SOL    HW250608  10.125  10.824   5.519 -0.0409 -0.3044  1.9001
13560SOL     OW50609   1.809   0.551   7.379 -0.2178  0.3708 -0.5876
13560SOL    HW150610   1.730   0.530   7.428 -0.3757  1.1514 -0.4910
13560SOL    HW250611   1.839   0.467   7.345 -0.1457 -0.1874  0.7745
13561SOL     OW50612   8.033   8.245   7.148  0.0736 -0.2637 -0.3310
13561SOL    HW150613   8.039   8.202   7.234  1.8764  0.6513  0.0711
13561SOL    HW250614   7.951   8.214   7.111 -1.4282  0.2932  2.2674
13562SOL     OW50615   3.894   2.315   0.178  0.3811 -0.3121 -0.2781
13562SOL    HW150616   3.975   2.276   0.212  0.5000  0.7416  0.7138
13562SOL    HW250617   3.862   2.370   0.249 -1.1870 -0.6466 -0.6826
13563SOL     OW50618  13.090  13.143   6.726 -0.0784  0.3081 -0.2672
13563SOL    HW150619  13.179  13.174   6.743  0.6778 -1.8698  0.0704
13563SOL    HW250620  13.033  13.210   6.763  1.4484  0.5078  1.8954
13564SOL     OW50621   7.787   7.849   0.624 -0.0789  0.6540  0.0651
13564SOL    HW150622   7.880   7.842   0.601 -0.3586 -0.8609 -0.7153
13564SOL    HW250623   7.768   7.943   0.618  1.6354  1.1170  1.2851
13565SOL     OW50624  12.878   7.226   9.422 -0.4452  0.1588 -0.1413
13565SOL    HW150625  12.784   7.246   9.430 -0.5521  0.9486 -2.5695
13565SOL    HW250626  12.893   7.156   9.486 -2.3688  0.9280  1.2632
13566SOL     OW50627   1.329   8.396  12.423 -0.0241 -0.0731  0.8734
13566SOL    HW150628   1.290   8.381  12.336 -0.3799  1.6495  0.6839
13566SOL    HW250629   1.418   8.426  12.404 -0.7219  2.2586  0.9295
13567SOL     OW50630   3.095  10.290   6.482  0.3835  0.1317  0.3904
13567SOL    HW150631   3.004  10.261   6.490 -0.1571  0.7285 -2.4678
13567SOL    HW250632   3.108  10.303   6.388  2.9020  1.7667  0.8541
13568SOL     OW50633   3.396  10.167   2.765  0.0313  0.2244 -0.0589
13568SOL    HW150634   3.355  10.083   2.786  0.8420 -0.4458 -1.0359
13568SOL    HW250635   3.337  10.208   2.702 -0.6007  0.6038  0.7767
13569SOL     OW50636   9.705  12.789   1.779 -0.2476 -0.1393 -0.4036
13569SOL    HW150637   9.773  12.742   1.828  0.8936  0.7196 -1.1036
13569SOL    HW250638   9.626  12.778   1.831  0.3036 -1.6193  0.1723
13570SOL     OW50639   0.814  11.451   5.912  0.2102 -0.1096 -0.4388
13570SOL    HW150640   0.748  11.393   5.949  0.1082  1.6479  2.4312
13570SOL    HW250641   0.763  11.522   5.872  0.3201  0.4174  0.3361
13571SOL     OW50642   9.227   9.757   8.001 -0.8047 -0.1696 -0.2868
13571SOL    HW150643   9.140   9.736   8.034 -0.6279 -0.2242  0.1438
13571SOL    HW250644   9.252   9.836   8.048 -0.9776  0.3415 -1.0397
13572SOL     OW50645   3.415   0.852   6.342  0.3650 -0.6072  0.0709
13572SOL    HW150646   3.439   0.779   6.284  0.1094  0.3210 -1.2450
13572SOL    HW250647   3.498   0.890   6.368  0.4581 -0.1081 -0.9172
13573SOL     OW50648   3.588   6.122   0.453  0.3089 -0.1817 -0.2011
13573SOL    HW150649   3.588   6.026   0.460 -0.0695 -0.1645  0.0548
13573SOL    HW250650   3.518   6.141   0.390  1.6897 -0.1707 -1.8190
13574SOL     OW50651   3.238   6.903   0.667  0.3591 -0.0471  0.0185
13574SOL    HW150652   3.224   6.831   0.606 -0.2574 -0.3932  0.5498
13574SOL    HW250653   3.243   6.861   0.753 -1.8460  0.6460  0.5621
13575SOL     OW50654   9.494   7.386   6.878  0.2357 -0.6433  0.2280
13575SOL    HW150655   9.512   7.380   6.972  2.0888 -1.3950 -0.1360
13575SOL    HW250656   9.553   7.322   6.838 -0.5252 -0.3469 -1.4645
13576SOL     OW50657   9.298  11.037   8.875 -0.5260 -0.1718  0.0858
13576SOL    HW150658   9.356  10.963   8.858  0.6824  0.4088  1.5777
13576SOL    HW250659   9.293  11.043   8.970 -0.1845  1.9732  0.0136
13577SOL     OW50660   6.986   9.200  11.284  0.5300 -0.0526  0.1455
13577SOL    HW150661   6.892   9.181  11.276  0.6533 -3.1724  3.3925
13577SOL    HW250662   6.991   9.266  11.353  0.7086 -0.3340  0.4068
13578SOL     OW50663   9.168  12.915  12.864 -0.3876 -0.1162 -0.7309
13578SOL    HW150664   9.106  12.893  12.795  0.7975 -0.2213 -1.8036
13578SOL    HW250665   9.195  13.005  12.844  0.5606 -0.4248 -0.8825
13579SOL     OW50666   8.038   7.322   3.525  0.2140  0.1295  0.5764
13579SOL    HW150667   7.976   7.249   3.522  0.0789  0.2834 -0.7568
13579SOL    HW250668   8.045   7.343   3.618 -0.9718 -0.5464  0.8401
13580SOL     OW50669   4.639  10.955   7.321 -0.6202  0.7105  0.6765
13580SOL    HW150670   4.720  11.002   7.342 -0.6720  1.1491 -0.0636
13580SOL    HW250671   4.659  10.908   7.240 -0.9679  0.4553  0.7367
13581SOL     OW50672   2.652  10.401  12.599 -0.1653  0.1080  0.5553
13581SOL    HW150673   2.678  10.344  12.527 -0.8387  1.0131 -0.4321
13581SOL    HW250674   2.735  10.427  12.640  0.3954  1.3360 -1.2776
13582SOL     OW50675   2.912   6.968   4.377 -0.0273 -0.1127  0.7548
13582SOL    HW150676   2.907   6.891   4.433 -1.7142 -0.6179  0.0121
13582SOL    HW250677   2.902   6.933   4.288  0.6221  0.8427  0.2884
13583SOL     OW50678   5.358   5.689   1.973 -0.4468 -0.3451 -0.3709
13583SOL    HW150679   5.338   5.615   1.917  2.1415 -1.6941  0.3308
13583SOL    HW250680   5.346   5.766   1.917  2.3409 -1.6191 -2.9941
13584SOL     OW50681   3.552   6.590   8.479 -0.0723  0.2894 -0.1196
13584SOL    HW150682   3.511   6.653   8.420  0.1831  1.0399  0.4913
13584SOL    HW250683   3.545   6.630   8.565  1.2072  0.0673  0.1112
13585SOL     OW50684   4.764   3.147   7.801  0.3899 -0.1982  0.1206
13585SOL    HW150685   4.670   3.155   7.819  0.5903 -0.5098  1.4443
13585SOL    HW250686   4.769   3.121   7.709 -0.7930  0.4388 -0.1405
13586SOL     OW50687   2.683   8.282   8.646  0.0147  0.0053  0.3437
13586SOL    HW150688   2.720   8.249   8.565 -0.0613  1.1647 -0.1845
13586SOL    HW250689   2.589   8.290   8.628  0.0327  0.5081  0.4586
13587SOL     OW50690   3.159   0.565  11.588 -0.1975 -0.2386 -0.9134
13587SOL    HW150691   3.092   0.628  11.615  1.8691  1.5337  0.4342
13587SOL    HW250692   3.168   0.506  11.663  0.7738  0.4765 -0.4463
13588SOL     OW50693  13.091  12.500   0.990  0.1747  0.4579 -0.4717
13588SOL    HW150694  13.020  12.556   1.022  0.2413  0.1016  0.3431
13588SOL    HW250695  13.049  12.440   0.928  0.0204  1.1130 -1.0062
13589SOL     OW50696   0.390   3.830   8.914  0.2333  0.0226 -0.3038
13589SOL    HW150697   0.295   3.827   8.911  0.1637  1.3717  0.1757
13589SOL    HW250698   0.412   3.919   8.889  1.3313  0.0302  0.6347
13590SOL     OW50699   5.105  12.475  13.055 -0.2625 -0.2355  0.1446
13590SOL    HW150700   5.100  12.555  13.108  0.4908 -0.8265  1.1600
13590SOL    HW250701   5.198  12.451  13.058 -0.1627 -0.1835 -1.6368
13591SOL     OW50702   4.722   8.040   5.843 -0.6438  0.1935 -0.2191
13591SOL    HW150703   4.778   8.050   5.766  0.2059  1.5178  0.5230
13591SOL    HW250704   4.699   7.948   5.844  1.2388 -0.3228 -0.7626
13592SOL     OW50705   5.907   1.697   5.252  0.6209 -0.1538  0.2769
13592SOL    HW150706   5.868   1.723   5.335 -0.8005  0.9155 -0.6713
13592SOL    HW250707   5.834   1.664   5.200  1.5694 -1.3212 -0.3629
13593SOL     OW50708   5.454   1.810   1.508  0.9981  0.7018  0.3360
13593SOL    HW150709   5.542   1.773   1.515  0.6243 -0.1283  0.8142
13593SOL    HW250710   5.421   1.777   1.425  0.5258 -0.4016  0.9320
13594SOL     OW50711  10.626   4.086  12.415  0.2842 -0.2387  0.0574
13594SOL    HW150712  10.698   4.048  12.364  1.2901  0.7308  0.7114
13594SOL    HW250713  10.663   4.098  12.502 -1.3146 -1.6065  0.9837
13595SOL     OW50714  12.234   5.619   6.790 -0.4327 -0.4416  0.4263
13595SOL    HW150715  12.296   5.588   6.725 -0.6504  0.5391 -0.2657
13595SOL    HW250716  12.287   5.669   6.853  0.0611 -2.8123  2.0329
13596SOL     OW50717   9.637  12.294   0.485 -0.2148 -0.0288  0.0622
13596SOL    HW150718   9.670  12.286   0.575 -1.4802 -0.0513  0.5559
13596SOL    HW250719   9.543  12.311   0.496 -0.4192 -0.1933 -1.2650
13597SOL     OW50720   1.901   9.900  11.975 -0.3980 -0.1608 -0.3962
13597SOL    HW150721   1.948   9.846  12.039  0.3869 -0.4018 -1.1589
13597SOL    HW250722   1.809   9.890  11.999 -0.1191 -0.2596  0.6825
13598SOL     OW50723   6.307   9.790   4.742  0.1940 -0.3664  0.1242
13598SOL    HW150724   6.283   9.877   4.774 -3.0292  0.0369 -2.8073
13598SOL    HW250725   6.301   9.733   4.818  1.4088  1.7461  1.9089
13599SOL     OW50726   4.273  11.464   1.920  0.6615  0.1674 -0.1133
13599SOL    HW150727   4.195  11.427   1.878  0.6137 -0.4430  0.5053
13599SOL    HW250728   4.251  11.467   2.013  2.4797 -2.9191  0.5349
13600SOL     OW50729   1.793   8.524   3.773  0.5266  0.2612 -0.2765
13600SOL    HW150730   1.820   8.498   3.862 -0.4698 -1.0302 -0.3213
13600SOL    HW250731   1.724   8.589   3.788  1.1171  0.8687 -0.1315
13601SOL     OW50732   7.691   9.995   6.961 -0.6176 -0.2356  0.7537
13601SOL    HW150733   7.645  10.029   7.038  0.8692  0.2095  1.4860
13601SOL    HW250734   7.778   9.972   6.993 -0.8394 -2.7267 -0.1881
13602SOL     OW50735  10.260   1.748  10.125  0.2200 -0.1450  0.0085
13602SOL    HW150736  10.231   1.732  10.035 -0.4082 -0.2340  0.2202
13602SOL    HW250737  10.210   1.686  10.177  1.2403 -0.7172  0.3327
13603SOL     OW50738   8.473   7.871   1.889 -0.3298 -0.2294 -0.3050
13603SOL    HW150739   8.515   7.799   1.936 -0.4264 -1.1245 -1.5259
13603SOL    HW250740   8.381   7.845   1.884 -0.0392 -1.0842 -2.5114
13604SOL     OW50741   6.397   3.852  12.997 -0.1293 -0.1590 -0.5854
13604SOL    HW150742   6.457   3.829  13.068  0.1865 -1.9683 -1.3800
13604SOL    HW250743   6.453   3.887  12.929  0.2425 -2.6482 -1.6684
13605SOL     OW50744   7.465   0.748   4.597 -0.0327  0.1161 -0.3745
13605SOL    HW150745   7.517   0.796   4.532 -0.0307 -1.0322 -1.2547
13605SOL    HW250746   7.382   0.796   4.601 -0.1775  0.0090 -1.5273
13606SOL     OW50747   5.369   8.588   7.909 -0.0353  0.1169 -0.2779
13606SOL    HW150748   5.325   8.518   7.957 -0.1915 -0.6515 -1.4675
13606SOL    HW250749   5.326   8.668   7.937 -0.6833 -0.3936  0.2225
13607SOL     OW50750   0.845  10.730   9.655  0.0384 -0.1720  0.0218
13607SOL    HW150751   0.877  10.728   9.565 -0.2460  0.9562 -0.1194
13607SOL    HW250752   0.916  10.691   9.707  0.7509  0.3434 -0.5409
13608SOL     OW50753  13.155   3.266   5.115 -0.6328  0.5991  0.1874
13608SOL    HW150754  13.080   3.321   5.135 -0.4668  0.4614  1.2350
13608SOL    HW250755  13.226   3.327   5.098 -0.3316  0.7317  1.8013
13609SOL     OW50756   9.208   8.143   5.939  0.1523  0.4392  0.1892
13609SOL    HW150757   9.133   8.162   5.994  0.0927  1.8843 -0.3642
13609SOL    HW250758   9.263   8.221   5.946  3.1775 -1.6526  3.0168
13610SOL     OW50759   1.904   9.863   9.492  0.0885 -0.2205 -0.0651
13610SOL    HW150760   1.911   9.782   9.440  0.9255  0.6843 -1.4265
13610SOL    HW250761   1.812   9.866   9.519  0.5934 -3.0717  2.5330
13611SOL     OW50762   8.550   5.040   1.917 -0.2243  0.0046 -0.2684
13611SOL    HW150763   8.620   5.015   1.977  0.2486  1.4337 -0.1958
13611SOL    HW250764   8.558   5.135   1.908 -1.7941  0.1246 -0.7179
13612SOL     OW50765  11.432  10.795   6.983  0.8620 -0.5751  0.5063
13612SOL    HW150766  11.453  10.731   7.052 -1.1274 -1.5392  0.2944
13612SOL    HW250767  11.424  10.878   7.029  1.5878 -0.8149  1.0935
13613SOL     OW50768   2.866   8.296  11.296 -0.0562 -0.6926  0.0348
13613SOL    HW150769   2.916   8.245  11.360 -0.3288  0.6484  1.3922
13613SOL    HW250770   2.924   8.369  11.274 -1.2066  0.6960  1.3689
13614SOL     OW50771   8.885   5.061   5.112  0.2236  0.1635  0.2375
13614SOL    HW150772   8.854   5.070   5.202  0.5569  1.1128  0.2729
13614SOL    HW250773   8.812   5.091   5.058 -0.0166 -0.5116  0.1798
13615SOL     OW50774   5.501  11.105   5.866  0.4288  0.1958 -0.0590
13615SOL    HW150775   5.456  11.168   5.921 -0.4661 -1.4834  1.2384
13615SOL    HW250776   5.588  11.095   5.905  0.1977 -0.1375  0.3800
13616SOL     OW50777   3.059   6.170   4.641 -0.2249  0.3405 -0.1088
13616SOL    HW150778   3.061   6.131   4.728  0.9442  1.3089  0.3298
13616SOL    HW250779   3.016   6.104   4.586  2.4568 -2.0618  0.3873
13617SOL     OW50780   9.458   1.648   8.093 -0.6573  0.1441 -0.2949
13617SOL    HW150781   9.506   1.687   8.019 -0.2477 -0.3498 -0.2934
13617SOL    HW250782   9.517   1.581   8.127  0.0462  1.7241  1.7876
13618SOL     OW50783   9.677   6.227   3.040  0.3027 -0.0415  0.2858
13618SOL    HW150784   9.719   6.299   3.086 -0.0023  0.0148  0.4757
13618SOL    HW250785   9.711   6.232   2.950 -0.2715  0.7806  0.1091
13619SOL     OW50786   5.731   1.363   7.204 -0.0750 -0.1048 -0.3957
13619SOL    HW150787   5.636   1.363   7.192 -0.3729 -1.3940  1.4963
13619SOL    HW250788   5.746   1.303   7.277  1.8485  2.8362  1.8715
13620SOL     OW50789   2.452  12.503   5.945 -0.2972 -0.4853  0.3586
13620SOL    HW150790   2.436  12.588   5.903  0.3074 -0.3585  0.3798
13620SOL    HW250791   2.450  12.522   6.039  0.4919 -0.3622  0.3598
13621SOL     OW50792   3.915  11.584  12.324 -0.3221  0.0768 -0.2346
13621SOL    HW150793   4.005  11.569  12.294 -0.1401  1.2448 -0.3096
13621SOL    HW250794   3.894  11.671  12.292 -1.1082  0.2441  0.7127
13622SOL     OW50795  11.503  10.137   4.594  0.6187  0.2453  0.1527
13622SOL    HW150796  11.577  10.152   4.535  0.4545  0.5188  0.0122
13622SOL    HW250797  11.471  10.225   4.615  1.3903  0.2219  1.5645
13623SOL     OW50798   3.047   0.377  10.481 -0.0539 -0.2645 -0.4662
13623SOL    HW150799   3.038   0.299  10.537 -1.7191 -0.8489 -1.4765
13623SOL    HW250800   3.018   0.450  10.537 -0.1223 -0.6058 -0.0477
13624SOL     OW50801   1.530   1.005   1.234  0.3320  0.7118  0.1712
13624SOL    HW150802   1.436   0.986   1.233  0.4315  0.2084  0.1506
13624SOL    HW250803   1.571   0.922   1.209  0.8761  0.3904  1.9892
13625SOL     OW50804  12.678   1.570   2.311 -0.0831  0.3376 -0.6328
13625SOL    HW150805  12.619   1.645   2.321  3.3355  3.2921 -0.5871
13625SOL    HW250806  12.688   1.560   2.216 -0.6360 -0.2215 -0.6423
13626SOL     OW50807   9.468   4.045  13.267 -0.1230  0.0110  0.1257
13626SOL    HW150808   9.494   4.058  13.176  1.8916  0.6773  0.7316
13626SOL    HW250809   9.462   3.950  13.277  2.2155 -0.2120 -0.0961
13627SOL     OW50810   9.886   9.468   0.814  0.4571 -0.4823 -0.2748
13627SOL    HW150811   9.874   9.524   0.891  3.0681 -0.2963  0.0815
13627SOL    HW250812   9.802   9.471   0.769  0.1341  2.7901  0.3291
13628SOL     OW50813   1.081   6.952   2.170 -0.2538 -0.2016  0.3611
13628SOL    HW150814   1.109   6.888   2.105  1.0072 -0.4542  1.1233
13628SOL    HW250815   1.084   7.036   2.125 -0.2443 -0.4815 -0.1567
13629SOL     OW50816   8.920   0.498   3.458 -0.1130 -0.5695 -0.2088
13629SOL    HW150817   8.990   0.472   3.398  0.8751 -0.3891  0.8250
13629SOL    HW250818   8.939   0.452   3.539 -0.5297  0.3843  0.4538
13630SOL     OW50819  11.387   9.649  11.096  0.0733 -0.7023  0.0883
13630SOL    HW150820  11.465   9.599  11.069  1.3810  0.8997  0.7500
13630SOL    HW250821  11.370   9.619  11.185  0.7333 -0.1519  0.4117
13631SOL     OW50822   5.652  12.008  11.460  0.1316  0.0024  0.4800
13631SOL    HW150823   5.709  12.060  11.517  1.2283 -0.8175  0.1654
13631SOL    HW250824   5.671  11.917  11.485  1.2218 -0.4227 -1.6962
13632SOL     OW50825   5.432  10.321   9.141  0.3248 -0.5452  0.1321
13632SOL    HW150826   5.512  10.374   9.133 -0.4194  0.7050  0.6221
13632SOL    HW250827   5.364  10.384   9.166 -0.9924 -1.4599 -1.0240
13633SOL     OW50828  11.395  11.217   3.741  0.3473  0.0996 -0.2704
13633SOL    HW150829  11.339  11.151   3.700 -1.9672  1.1644  0.9366
13633SOL    HW250830  11.336  11.266   3.799  2.1129  2.6621 -0.4435
13634SOL     OW50831  13.174   3.917   2.992  0.1516  0.0545  0.6245
13634SOL    HW150832  13.206   4.007   2.991 -1.2200  0.5703  1.3035
13634SOL    HW250833  13.080   3.924   2.974  0.2222 -1.3387 -0.4447
13635SOL     OW50834   7.759   1.349   3.063  0.0223  0.2784  0.3700
13635SOL    HW150835   7.847   1.360   3.099  0.1603 -1.7602  0.7738
13635SOL    HW250836   7.715   1.290   3.124 -0.4085 -1.6444 -1.6503
13636SOL     OW50837   5.804   5.321   9.671  0.3223 -0.1126  0.2555
13636SOL    HW150838   5.897   5.300   9.671  0.1101 -1.1243 -0.2424
13636SOL    HW250839   5.800   5.414   9.650  1.1950 -0.1739 -0.2062
13637SOL     OW50840  12.741   5.322   0.367  0.6744  0.6516 -0.6026
13637SOL    HW150841  12.742   5.228   0.380 -1.0618  0.5280 -1.0802
13637SOL    HW250842  12.827   5.343   0.333  2.4496 -0.1956  2.8575
13638SOL     OW50843   7.115   0.085   2.640  0.3341  0.2570  0.0992
13638SOL    HW150844   7.021   0.096   2.654  0.4407  1.6121 -0.1571
13638SOL    HW250845   7.137   0.147   2.571  1.1877 -0.9900 -0.8003
13639SOL     OW50846   6.340   5.876   5.903 -0.5863  0.1503  0.3067
13639SOL    HW150847   6.296   5.954   5.936  0.6694  0.8454  0.3935
13639SOL    HW250848   6.290   5.803   5.940 -0.6157  0.9157  1.8449
13640SOL     OW50849  10.397  12.402   1.726 -0.1739 -0.2019 -0.1416
13640SOL    HW150850  10.337  12.473   1.750 -0.1788 -0.5189  0.8526
13640SOL    HW250851  10.376  12.332   1.787 -0.0227 -0.9854 -0.9815
13641SOL     OW50852   9.852   5.666   2.725  0.0663  0.2476 -0.0578
13641SOL    HW150853   9.874   5.681   2.817 -3.2102  0.2811  0.8485
13641SOL    HW250854   9.875   5.575   2.709 -0.7439 -0.2355  1.3339
13642SOL     OW50855  12.855   4.584   6.170 -0.1253  0.0734 -0.0220
13642SOL    HW150856  12.818   4.596   6.083 -2.2878  0.5303  0.8671
13642SOL    HW250857  12.817   4.501   6.201 -0.4556  0.5533  0.9297
13643SOL     OW50858   7.805   1.203   3.717 -0.2343  0.2517 -0.2856
13643SOL    HW150859   7.724   1.152   3.716  0.0662 -0.2270 -0.5209
13643SOL    HW250860   7.794   1.266   3.645 -0.4724  0.3043 -0.2018
13644SOL     OW50861   3.074  11.864   1.411  0.1630  0.3956  0.3690
13644SOL    HW150862   2.999  11.922   1.408 -1.0576 -1.0923  0.7952
13644SOL    HW250863   3.104  11.857   1.320 -1.2814 -0.3051 -0.0787
13645SOL     OW50864   5.679   4.718   2.359 -0.3427  0.3313  0.0274
13645SOL    HW150865   5.758   4.756   2.319 -1.1130  0.7522 -1.1190
13645SOL    HW250866   5.681   4.751   2.449  0.6159  0.6079 -0.0753
13646SOL     OW50867   9.832  13.092   7.442 -0.4787  0.1399  0.2097
13646SOL    HW150868   9.785  13.033   7.502  0.9849 -0.8450  0.4241
13646SOL    HW250869   9.762  13.135   7.392 -1.7316  0.5731  2.2034
13647SOL     OW50870  10.594  10.173   8.298 -0.1102 -0.4886 -0.5819
13647SOL    HW150871  10.647  10.250   8.316  0.2162 -1.1677  1.7613
13647SOL    HW250872  10.653  10.112   8.255  0.4072 -0.4275  0.0352
13648SOL     OW50873  11.741   2.095   1.009 -0.1530  0.1448  0.0334
13648SOL    HW150874  11.689   2.062   0.936 -0.8627  0.3495  0.4396
13648SOL    HW250875  11.687   2.078   1.086  0.9921 -0.9572  0.6323
13649SOL     OW50876   1.995   2.838  10.315 -0.2359  0.3994  0.1017
13649SOL    HW150877   2.067   2.808  10.371  0.1404 -0.6736 -0.9362
13649SOL    HW250878   1.973   2.925  10.350  0.4139  0.0247  1.5048
13650SOL     OW50879   1.893  11.660  11.858 -0.0983 -0.4307 -0.1532
13650SOL    HW150880   1.894  11.741  11.807  2.0859  0.2513  0.8491
13650SOL    HW250881   1.984  11.632  11.861 -0.6263 -2.2729  0.6033
13651SOL     OW50882  11.764   4.479  10.735  0.4398 -0.3464  0.2699
13651SOL    HW150883  11.838   4.432  10.775  1.0900 -0.1093 -0.6243
13651SOL    HW250884  11.698   4.411  10.721  0.7471 -0.6911  0.4621
13652SOL     OW50885   3.187  12.890   4.411 -0.0132 -0.3148  0.8713
13652SOL    HW150886   3.120  12.895   4.343 -0.0513 -1.3039  0.8167
13652SOL    HW250887   3.200  12.796   4.425 -0.1139 -0.1376  2.3387
13653SOL     OW50888  11.028   7.098   4.860  0.1431 -0.8533  0.0040
13653SOL    HW150889  11.011   7.108   4.767  0.4258 -2.1996 -0.2111
13653SOL    HW250890  10.943   7.110   4.902 -0.0326 -0.5269 -0.4386
13654SOL     OW50891  10.594  11.203  11.976  0.2371  0.0624  0.2553
13654SOL    HW150892  10.601  11.298  11.979  0.1360  0.0468  1.1075
13654SOL    HW250893  10.508  11.183  12.012 -0.2302 -0.2974 -1.0136
13655SOL     OW50894  11.201   1.612   1.742 -0.2977 -0.2939  0.4257
13655SOL    HW150895  11.242   1.692   1.710  0.4599 -1.2350 -1.1476
13655SOL    HW250896  11.265   1.543   1.722 -1.1989 -1.3654  1.1065
13656SOL     OW50897   4.788   9.491   0.910 -0.0289 -0.2999 -0.1285
13656SOL    HW150898   4.697   9.520   0.916 -0.0839 -0.1933 -1.2386
13656SOL    HW250899   4.818   9.524   0.825  0.8369 -0.9322 -0.0807
13657SOL     OW50900   7.533   7.325  11.171 -0.0402 -0.1230 -0.3107
13657SOL    HW150901   7.628   7.329  11.183  0.0107  2.0591 -0.9881
13657SOL    HW250902   7.503   7.414  11.190 -2.0020 -0.8286  0.1203
13658SOL     OW50903   5.565  10.171  13.036 -0.0077 -0.5299  0.4285
13658SOL    HW150904   5.577  10.180  13.131  0.8289  0.0787  0.2683
13658SOL    HW250905   5.478  10.131  13.027  0.2844 -1.4396  1.4730
13659SOL     OW50906   0.164   7.106   1.460 -0.0141  0.0983 -0.5016
13659SOL    HW150907   0.164   7.159   1.540  0.3639 -1.6046  0.6929
13659SOL    HW250908   0.256   7.087   1.444 -0.1507 -0.2666 -0.8585
13660SOL     OW50909   7.217   3.892   4.322 -0.5207  0.4834  0.4800
13660SOL    HW150910   7.124   3.916   4.326 -0.3057  1.1630  1.6048
13660SOL    HW250911   7.223   3.812   4.374 -0.8223 -0.7963 -1.3512
13661SOL     OW50912   8.573  12.572  12.481  0.4902 -0.1868 -0.1241
13661SOL    HW150913   8.567  12.660  12.444 -0.7829 -0.6517 -1.1150
13661SOL    HW250914   8.627  12.523  12.419  2.9681  0.3403  1.4586
13662SOL     OW50915  10.640   3.997   9.572  0.1829 -0.7953 -0.4051
13662SOL    HW150916  10.672   3.911   9.601  0.7157 -1.0016 -1.5612
13662SOL    HW250917  10.568   3.977   9.512 -0.2798 -0.3962  0.0049
13663SOL     OW50918  10.496   3.253  10.017 -0.4063  0.3204  0.2085
13663SOL    HW150919  10.455   3.187   9.962 -0.0567  0.2843 -0.0134
13663SOL    HW250920  10.430   3.274  10.083 -0.4833 -0.3204  0.3440
13664SOL     OW50921   5.671   9.416   9.714  0.5947  0.2243 -0.0312
13664SOL    HW150922   5.674   9.343   9.776  2.3844 -1.4775 -1.9778
13664SOL    HW250923   5.754   9.463   9.728  0.6192  0.3354 -0.5361
13665SOL     OW50924  12.781   4.599   7.170 -0.0866 -0.2869 -0.3014
13665SOL    HW150925  12.749   4.647   7.093  0.1460  1.5480  0.6959
13665SOL    HW250926  12.800   4.511   7.137 -2.8395 -0.4590 -1.6733
13666SOL     OW50927   6.476  10.178  11.403  0.3585 -0.4128 -0.0257
13666SOL    HW150928   6.536  10.181  11.478  1.2089 -0.3990 -0.6952
13666SOL    HW250929   6.530  10.149  11.330 -0.7226 -1.5357 -0.4036
13667SOL     OW50930  11.343   0.860   4.733 -0.3424 -1.0906  0.2105
13667SOL    HW150931  11.319   0.803   4.806 -0.3125  1.1063  2.0436
13667SOL    HW250932  11.429   0.827   4.705 -0.6592 -2.3956  0.6975
13668SOL     OW50933   4.292   4.281   9.325  0.0791  0.0663 -0.0913
13668SOL    HW150934   4.263   4.202   9.371 -1.1296  1.3882  1.5567
13668SOL    HW250935   4.219   4.304   9.269 -0.7086  1.4380  1.4212
13669SOL     OW50936   3.535   9.752   9.618 -0.1031  0.5150  0.1198
13669SOL    HW150937   3.575   9.706   9.544 -3.1061 -3.0562  0.4249
13669SOL    HW250938   3.567   9.705   9.695 -1.2791  0.5107  0.6327
13670SOL     OW50939   7.747   6.811  12.626  0.2078  0.1778  0.8742
13670SOL    HW150940   7.678   6.844  12.568 -1.0318 -0.8145  1.7364
13670SOL    HW250941   7.823   6.865  12.605 -0.3150  0.1654 -1.3427
13671SOL     OW50942  10.501   4.935   8.788 -0.1686  0.1129 -0.6446
13671SOL    HW150943  10.480   5.021   8.825  1.3012 -0.0763  0.7177
13671SOL    HW250944  10.568   4.953   8.722 -0.8634  0.1315 -1.3747
13672SOL     OW50945   9.693  11.354   3.824 -0.9309 -0.5810 -0.2570
13672SOL    HW150946   9.747  11.356   3.744 -0.4605  0.1595  0.0604
13672SOL    HW250947   9.751  11.319   3.891 -1.4009 -1.4207 -0.2849
13673SOL     OW50948   6.933   9.515   8.534  0.3318  0.5534  0.1831
13673SOL    HW150949   6.860   9.485   8.479  0.2042 -0.8962  1.0955
13673SOL    HW250950   6.998   9.444   8.529 -0.1386 -0.1669  2.7287
13674SOL     OW50951  11.805   7.768   5.234  0.3225  0.4288  0.1002
13674SOL    HW150952  11.729   7.801   5.281  0.1253  0.8761 -0.5267
13674SOL    HW250953  11.773   7.692   5.185  0.3317  0.4710  0.0280
13675SOL     OW50954  12.068   5.926  12.075 -0.0672 -0.4642  0.2732
13675SOL    HW150955  12.108   5.918  12.161 -0.9050 -1.4962  0.5963
13675SOL    HW250956  12.039   6.017  12.069 -2.0357 -0.8929  2.0563
13676SOL     OW50957   1.117   9.889   3.740  0.2002 -0.0701  0.0390
13676SOL    HW150958   1.143   9.975   3.707 -0.4987  0.4351  0.7747
13676SOL    HW250959   1.131   9.894   3.834  0.2485 -0.8041  0.0773
13677SOL     OW50960   4.219   4.507   4.728 -0.7956 -0.4493  0.3102
13677SOL    HW150961   4.224   4.593   4.686 -0.1623 -0.3426  0.5818
13677SOL    HW250962   4.192   4.526   4.818  2.0327 -0.1976  1.2286
13678SOL     OW50963   8.959  11.194   0.055  0.0510  0.0416 -0.0138
13678SOL    HW150964   8.918  11.257   0.114 -1.0321 -0.8104  0.1912
13678SOL    HW250965   9.049  11.225   0.044 -0.6828  2.1321 -0.6509
13679SOL     OW50966  11.727  12.684   0.731 -0.2951  0.2921  0.2795
13679SOL    HW150967  11.814  12.722   0.721 -0.8002  1.9687  1.7233
13679SOL    HW250968  11.668  12.755   0.705 -1.2528 -0.6837 -0.2666
13680SOL     OW50969   0.846   6.682  10.301  0.0202  0.0995  0.2607
13680SOL    HW150970   0.875   6.773  10.295 -1.0871  0.4469  0.0508
13680SOL    HW250971   0.895   6.646  10.375 -1.1600  1.4955  1.7761
13681SOL     OW50972  12.880   1.692  11.302 -0.0118  0.3129 -0.0044
13681SOL    HW150973  12.870   1.601  11.275  0.5117  0.4149 -0.5718
13681SOL    HW250974  12.901   1.739  11.221  0.6194  0.7934  0.4261
13682SOL     OW50975  10.019  11.454   5.963 -0.4018 -0.6129 -0.4277
13682SOL    HW150976   9.930  11.420   5.973 -1.0161  1.0208  0.0461
13682SOL    HW250977  10.028  11.519   6.033  1.2283 -0.8537 -0.3692
13683SOL     OW50978   4.935   7.667  12.321 -0.1246  0.1994 -0.1442
13683SOL    HW150979   4.942   7.748  12.372  0.6720  0.2892 -0.3898
13683SOL    HW250980   4.926   7.598  12.386 -2.6407  0.6126  0.0634
13684SOL     OW50981   5.697  11.462   5.277  0.6951  0.0714  0.2347
13684SOL    HW150982   5.655  11.538   5.238  0.3526  0.4380  1.2965
13684SOL    HW250983   5.651  11.387   5.240 -1.4345  0.4605  1.8818
13685SOL     OW50984   6.719   1.477  13.304 -0.7144  0.4895 -0.0926
13685SOL    HW150985   6.738   1.566  13.335 -3.1510  0.1151  2.9420
13685SOL    HW250986   6.631   1.484  13.265 -0.0773 -0.2661 -1.7746
13686SOL     OW50987  10.025  11.934   2.453 -0.1919 -0.0937  0.0117
13686SOL    HW150988   9.959  11.932   2.383  0.0206  0.7866 -0.2265
13686SOL    HW250989  10.095  11.877   2.422  0.5889  1.4390 -1.2191
13687SOL     OW50990   9.999  11.081   2.779  0.7729 -0.4307  0.0485
13687SOL    HW150991   9.918  11.037   2.803  0.8272 -0.6161 -0.1086
13687SOL    HW250992  10.000  11.161   2.833  0.6403 -0.5830  0.2783
13688SOL     OW50993   1.852   4.747   2.994 -0.0216  0.4083  0.2119
13688SOL    HW150994   1.935   4.700   2.988 -0.9876 -1.3702 -0.1844
13688SOL    HW250995   1.840   4.763   3.087  0.1332 -0.5819  0.4189
13689SOL     OW50996   5.539   9.826   2.993 -0.4078  0.1502 -0.2432
13689SOL    HW150997   5.493   9.773   3.058 -0.5543 -1.0865 -1.3172
13689SOL    HW250998   5.624   9.784   2.983 -0.3049  0.4495 -0.6834
13690SOL     OW50999   0.676   0.671   6.045  0.3927  0.6253 -0.1136
13690SOL    HW151000   0.617   0.734   6.086  2.8072  2.0287  1.4376
13690SOL    HW251001   0.717   0.718   5.973 -1.6841 -0.9507 -2.4892
13691SOL     OW51002   8.558  13.189   0.780 -0.4105  0.1361  0.2005
13691SOL    HW151003   8.613  13.120   0.742  1.1889  1.7706 -0.5899
13691SOL    HW251004   8.598  13.270   0.750 -0.3877  1.5104  3.5848
13692SOL     OW51005   0.509   8.702  13.218  0.2503  0.1795  0.5505
13692SOL    HW151006   0.600   8.732  13.212  0.1826  0.2937  0.0827
13692SOL    HW251007   0.458   8.770  13.174 -0.2266  0.8334  2.0517
13693SOL     OW51008   3.637  11.386   5.573  0.1817 -0.5245 -0.1718
13693SOL    HW151009   3.648  11.371   5.667  0.6517  1.5474  0.1334
13693SOL    HW251010   3.622  11.480   5.564  3.1149 -0.1253 -2.4184
13694SOL     OW51011   8.460   2.151   4.348 -0.3357 -0.1146 -0.7746
13694SOL    HW151012   8.470   2.213   4.275  2.2635  0.2443 -0.1937
13694SOL    HW251013   8.527   2.085   4.333 -0.7197 -0.8341  0.5519
13695SOL     OW51014   4.108  11.065   1.167  0.0299 -0.2528  0.2535
13695SOL    HW151015   4.158  11.001   1.117 -0.0552 -0.0551 -0.0886
13695SOL    HW251016   4.164  11.143   1.170 -0.3011  0.0190 -0.2534
13696SOL     OW51017   6.993   7.721   9.374  0.0684 -0.2051 -0.3140
13696SOL    HW151018   7.017   7.666   9.448 -0.2782  0.0592  0.0008
13696SOL    HW251019   7.008   7.666   9.297  1.7009 -0.0333 -0.1470
13697SOL     OW51020   0.369   2.473   0.350  0.6544  0.0787 -0.3596
13697SOL    HW151021   0.423   2.420   0.410  0.4484  0.5375  0.2336
13697SOL    HW251022   0.432   2.530   0.306  0.6411  0.7906  0.5154
13698SOL     OW51023   8.057   8.981   7.137 -0.3316 -0.4931 -0.0573
13698SOL    HW151024   7.977   8.987   7.190 -0.1221  0.2934  0.1921
13698SOL    HW251025   8.025   8.966   7.048 -0.7463 -0.5087  0.0913
13699SOL     OW51026   5.745  10.771   5.035  0.7484  0.1154  0.6490
13699SOL    HW151027   5.656  10.741   5.049  0.1071  1.1234 -0.9862
13699SOL    HW251028   5.742  10.865   5.053  1.1803  0.3715 -0.5123
13700SOL     OW51029   0.484   2.940   1.363  0.3382 -0.3194 -0.1540
13700SOL    HW151030   0.540   2.980   1.297 -0.1203  0.1486 -0.2621
13700SOL    HW251031   0.417   3.006   1.381  0.1435 -0.6570  0.3789
13701SOL     OW51032   8.115   6.163  12.770 -0.0834  0.1353 -0.4510
13701SOL    HW151033   8.077   6.077  12.789 -1.3212  0.3766 -1.6577
13701SOL    HW251034   8.057   6.225  12.814  0.6095  0.3899  0.1279
13702SOL     OW51035   8.158   8.337   8.242 -0.0383  0.1547  0.2978
13702SOL    HW151036   8.228   8.387   8.200  0.1363 -0.2849  0.0487
13702SOL    HW251037   8.137   8.268   8.179  0.5516 -0.8004  1.1051
13703SOL     OW51038   0.085   6.572   8.668  0.0767  1.1205  0.3972
13703SOL    HW151039   0.171   6.531   8.653 -1.0277 -1.1444 -0.2490
13703SOL    HW251040   0.022   6.504   8.644 -1.9237  2.3310  1.9061
13704SOL     OW51041  10.088   7.631   2.573  0.4336 -0.1956  0.3749
13704SOL    HW151042  10.174   7.673   2.576  0.4805 -0.3275  1.3386
13704SOL    HW251043  10.030   7.693   2.615  0.1664 -0.3566  0.2462
13705SOL     OW51044   0.397   5.615  10.287 -0.2961 -0.2002 -0.6247
13705SOL    HW151045   0.395   5.521  10.308 -1.1681 -0.1613 -0.5027
13705SOL    HW251046   0.487   5.641  10.305 -0.1460 -0.9282 -0.2646
13706SOL     OW51047   9.077  12.731   8.474 -0.1179 -0.3348 -0.3583
13706SOL    HW151048   9.096  12.644   8.438  0.2403 -0.7007  0.6661
13706SOL    HW251049   8.983  12.730   8.490  0.2719 -1.7083  2.4635
13707SOL     OW51050  10.304   9.856   7.727  0.0670  0.1647 -0.2460
13707SOL    HW151051  10.334   9.773   7.689 -0.7306 -0.1754 -0.1690
13707SOL    HW251052  10.242   9.829   7.796  2.6931  0.6777  2.5200
13708SOL     OW51053   1.421   7.152  11.801  0.0189  0.0112  0.0923
13708SOL    HW151054   1.429   7.244  11.824  0.6301 -0.1283  0.4352
13708SOL    HW251055   1.484   7.139  11.730  1.5055 -0.6150  1.4558
13709SOL     OW51056  10.289   3.334   9.592 -0.0513 -0.3419  0.1488
13709SOL    HW151057  10.277   3.415   9.543 -0.1312 -0.2295  0.3553
13709SOL    HW251058  10.354   3.356   9.659 -1.5995  0.1449  1.5614
13710SOL     OW51059  12.625   2.180   5.786  0.2692  0.1653  0.1315
13710SOL    HW151060  12.700   2.150   5.734 -0.5220 -0.1761 -0.8340
13710SOL    HW251061  12.590   2.255   5.738 -0.4492 -0.1277  0.1843
13711SOL     OW51062   0.886   3.086   8.982 -0.3098 -0.0230 -0.0752
13711SOL    HW151063   0.797   3.070   9.014  0.3668 -0.1141  1.9108
13711SOL    HW251064   0.916   3.161   9.033  0.9850 -0.4189 -0.2328
13712SOL     OW51065   6.886  11.736   3.849 -0.0066 -0.4297 -0.4341
13712SOL    HW151066   6.961  11.793   3.867 -0.7592  0.8187 -1.1280
13712SOL    HW251067   6.926  11.653   3.822  1.2799  1.0585 -3.7144
13713SOL     OW51068  11.668   9.531   6.414  0.2552  0.3378 -0.5843
13713SOL    HW151069  11.694   9.610   6.461 -0.5475  0.7172 -0.7566
13713SOL    HW251070  11.746   9.505   6.365  1.4423 -0.6039  1.6272
13714SOL     OW51071  11.582  10.066   5.346 -0.6518  0.0225  0.4178
13714SOL    HW151072  11.566  10.108   5.261 -0.8149 -0.7824  0.0445
13714SOL    HW251073  11.670  10.031   5.339 -1.0385 -0.9208  0.2089
13715SOL     OW51074   1.145   1.450   2.513  0.1459  0.6518  0.0588
13715SOL    HW151075   1.159   1.452   2.418 -0.8013  1.0158 -0.0837
13715SOL    HW251076   1.233   1.458   2.550  0.3343  3.4449 -0.7502
13716SOL     OW51077   9.630  12.189   1.404  0.5021 -0.5743 -0.2587
13716SOL    HW151078   9.632  12.202   1.499  1.2841  1.0275 -0.4677
13716SOL    HW251079   9.661  12.099   1.392 -1.4152 -1.4798  1.0769
13717SOL     OW51080   2.065  10.416  11.662  0.0441 -0.1288  0.1706
13717SOL    HW151081   2.013  10.392  11.739  0.3522  1.0497  0.7658
13717SOL    HW251082   2.150  10.440  11.698 -0.1716  1.5960 -0.4032
13718SOL     OW51083  12.201   6.021  10.367 -0.0689  0.6861 -0.0949
13718SOL    HW151084  12.115   6.040  10.405 -0.8364 -1.3572 -0.7175
13718SOL    HW251085  12.191   5.936  10.326  2.1271  0.6519 -0.6618
13719SOL     OW51086  11.779   5.364  10.589 -0.4518 -0.0328  0.4842
13719SOL    HW151087  11.778   5.373  10.494  0.1820 -1.3762  0.3245
13719SOL    HW251088  11.732   5.282  10.605  1.1031 -0.8327  1.1755
13720SOL     OW51089   2.779   6.069   2.528 -0.0446  0.3799  0.6003
13720SOL    HW151090   2.812   6.115   2.451  0.1825 -0.9962 -0.1674
13720SOL    HW251091   2.779   5.976   2.502  0.4167 -0.1687  2.3933
13721SOL     OW51092   3.893   1.501   0.518 -0.0698  0.3227  0.1101
13721SOL    HW151093   3.811   1.536   0.554 -0.5263 -0.9246  0.3443
13721SOL    HW251094   3.925   1.441   0.586  1.4148  1.2998  0.3160
13722SOL     OW51095  12.451  10.108  11.652  0.3563  0.3656 -0.2629
13722SOL    HW151096  12.470  10.017  11.675 -0.8932 -0.0863 -0.9531
13722SOL    HW251097  12.428  10.150  11.735 -0.5668 -0.3414 -0.1519
13723SOL     OW51098  13.097   6.312   3.664  0.2306 -0.1079 -0.6723
13723SOL    HW151099  13.018   6.366   3.669 -0.2295 -0.6792 -1.4589
13723SOL    HW251100  13.079   6.239   3.725  0.8717  0.6240  0.4264
13724SOL     OW51101  12.662   0.178   7.196 -0.5326 -0.1197  0.8331
13724SOL    HW151102  12.652   0.084   7.211 -1.3973 -0.2013 -0.0993
13724SOL    HW251103  12.587   0.218   7.239  0.1688  0.2195  1.7677
13725SOL     OW51104   6.463   0.845  11.749  0.6259  0.1652  0.6206
13725SOL    HW151105   6.421   0.931  11.741  1.6400  0.8677  2.3523
13725SOL    HW251106   6.411   0.788  11.692 -0.3642  1.8081 -0.1999
13726SOL     OW51107   4.912   7.944  11.274 -0.6492  0.0752 -0.2914
13726SOL    HW151108   4.865   8.027  11.282 -0.4494  0.2074 -0.4853
13726SOL    HW251109   4.996   7.959  11.319 -1.5861 -0.7939  1.9110
13727SOL     OW51110   9.676   2.705  13.181 -0.2462 -0.4015  0.9718
13727SOL    HW151111   9.699   2.615  13.158  1.1183  0.3178 -0.6672
13727SOL    HW251112   9.642   2.743  13.099  0.9446  1.1046  1.1295
13728SOL     OW51113   7.248   6.256  12.100  0.5234 -0.9243 -0.1039
13728SOL    HW151114   7.227   6.342  12.138 -0.2337 -1.1058 -0.0965
13728SOL    HW251115   7.323   6.273  12.044  2.6917 -0.9027  2.5847
13729SOL     OW51116   7.739   9.286  12.000 -0.8241 -0.0780  0.0048
13729SOL    HW151117   7.794   9.237  11.940  1.7958  3.2841 -0.6408
13729SOL    HW251118   7.747   9.240  12.084  5.0104  1.1649  0.5764
13730SOL     OW51119  12.299   7.087   3.345  0.1042  0.0794  0.2229
13730SOL    HW151120  12.379   7.135   3.368  0.1411  0.4624 -0.6774
13730SOL    HW251121  12.236   7.155   3.321  0.9212 -0.3072 -3.5394
13731SOL     OW51122   4.759  11.187   9.912 -0.1739  0.1157  0.0323
13731SOL    HW151123   4.852  11.211   9.915 -0.1970  0.1842  0.2768
13731SOL    HW251124   4.749  11.139   9.830  1.0169 -3.8096  1.9086
13732SOL     OW51125   4.210   6.977  12.895  0.1846 -0.3727 -0.5713
13732SOL    HW151126   4.118   6.969  12.922 -0.2379  0.0657 -1.7948
13732SOL    HW251127   4.259   6.932  12.963 -1.0149 -1.5045 -0.4117
13733SOL     OW51128   5.920   1.042   9.591 -0.0896 -0.7390  0.3895
13733SOL    HW151129   6.011   1.012   9.591 -0.1081 -0.8026  1.1714
13733SOL    HW251130   5.924   1.128   9.549  0.1702 -1.1767 -0.5226
13734SOL     OW51131  11.124  11.907   7.480  0.1644  0.1248  0.1802
13734SOL    HW151132  11.200  11.947   7.521  1.4468 -0.8006 -1.1701
13734SOL    HW251133  11.058  11.904   7.549  1.2336  1.2428  1.3066
13735SOL     OW51134   6.803  10.661  10.770 -0.1296  0.5428  0.7273
13735SOL    HW151135   6.758  10.685  10.688 -2.2444 -0.9286  1.3519
13735SOL    HW251136   6.852  10.739  10.795 -0.7386  1.5658 -1.0977
13736SOL     OW51137   8.599  10.244   9.700 -0.0525 -0.3869  0.0261
13736SOL    HW151138   8.512  10.255   9.663  0.3743 -1.8796 -1.5607
13736SOL    HW251139   8.585  10.245   9.795 -1.8840 -1.1989 -0.2003
13737SOL     OW51140   8.897  11.220  10.840 -0.1566 -0.0559  0.7014
13737SOL    HW151141   8.917  11.314  10.832 -0.2450 -0.0324  0.7515
13737SOL    HW251142   8.957  11.189  10.908  2.3126 -0.7695 -1.6384
13738SOL     OW51143   8.663   9.175  13.045  0.1145  0.3555 -0.2217
13738SOL    HW151144   8.595   9.224  12.997 -0.2290 -0.9576 -1.1428
13738SOL    HW251145   8.615   9.104  13.087  0.8215 -0.1376 -0.2451
13739SOL     OW51146   6.004  11.799  12.503 -0.2136 -0.7642  0.0384
13739SOL    HW151147   6.032  11.709  12.520  0.5561 -0.3502  1.1184
13739SOL    HW251148   5.945  11.819  12.576  0.6903  0.0370  0.5694
13740SOL     OW51149   1.662  11.482   1.101  0.1511 -0.1926  0.8152
13740SOL    HW151150   1.757  11.467   1.108  0.0365 -0.4286  2.1675
13740SOL    HW251151   1.650  11.574   1.122  0.3874  0.8502 -2.9382
13741SOL     OW51152   9.470   7.206   0.480  0.0555 -0.3920  0.4599
13741SOL    HW151153   9.438   7.174   0.565  0.5563  1.7856  1.5365
13741SOL    HW251154   9.554   7.246   0.500  2.2941 -3.4519 -1.8290
13742SOL     OW51155   1.833   1.071  11.865 -0.3283 -0.2034 -0.3094
13742SOL    HW151156   1.860   1.125  11.790  0.4335  3.3984  2.2688
13742SOL    HW251157   1.915   1.045  11.907 -0.7420 -0.1384  0.5709
13743SOL     OW51158   3.917  12.379   5.866  0.0073 -0.3371  0.7499
13743SOL    HW151159   3.859  12.402   5.939  0.9043 -1.5214  1.8813
13743SOL    HW251160   3.905  12.285   5.854 -1.4456  0.0601 -1.8712
13744SOL     OW51161  10.739   7.885   4.503 -0.0164  0.1698  0.3168
13744SOL    HW151162  10.723   7.842   4.587  0.7396  0.6424  0.7090
13744SOL    HW251163  10.834   7.888   4.495 -0.0621  1.3436  0.0755
13745SOL     OW51164   5.166   5.205  10.474 -0.0936  0.2673  0.4471
13745SOL    HW151165   5.125   5.253  10.402  0.0154  0.3990  0.4726
13745SOL    HW251166   5.240   5.259  10.501 -0.7661  0.7588  1.3755
13746SOL     OW51167   8.774   9.215   6.722 -0.1999  0.1163  0.1122
13746SOL    HW151168   8.812   9.129   6.709  0.9515  0.4383  1.1560
13746SOL    HW251169   8.766   9.224   6.817 -1.7365  0.5721 -0.0322
13747SOL     OW51170  11.651   6.155   8.181  0.5536 -0.1128  0.2817
13747SOL    HW151171  11.649   6.121   8.091 -0.2741 -0.3743  0.3926
13747SOL    HW251172  11.613   6.242   8.175 -2.0174 -1.1187  0.7615
13748SOL     OW51173  11.953   0.047   1.102 -0.3490  0.1528 -0.5255
13748SOL    HW151174  11.953   0.122   1.044 -1.8443  0.2798 -0.3862
13748SOL    HW251175  12.030  -0.004   1.076 -0.0986  1.0270 -1.5182
13749SOL     OW51176  10.514   6.293   5.959 -0.1631  0.6273  0.0542
13749SOL    HW151177  10.600   6.255   5.940 -0.0322  1.8170 -1.9296
13749SOL    HW251178  10.499   6.272   6.051  2.1998  0.3047  0.4290
13750SOL     OW51179  11.803   7.458   8.101 -0.6588  0.4490 -0.2473
13750SOL    HW151180  11.857   7.529   8.066  0.0095  0.7538  1.3021
13750SOL    HW251181  11.788   7.483   8.193 -0.1019 -1.5770  0.4417
13751SOL     OW51182   8.661   3.743   3.443 -0.3185 -0.2619 -0.7920
13751SOL    HW151183   8.697   3.655   3.450 -2.3651 -1.0257  1.2131
13751SOL    HW251184   8.689   3.786   3.524 -1.2967  0.1343 -0.6557
13752SOL     OW51185  12.979   3.008   4.214 -0.2053  0.2491 -0.1006
13752SOL    HW151186  13.055   3.065   4.225 -0.5114  0.5372  0.5508
13752SOL    HW251187  12.943   2.998   4.302 -1.3524  0.7121 -0.5023
13753SOL     OW51188   2.559   6.176   0.820 -0.0731 -0.2778 -0.1881
13753SOL    HW151189   2.464   6.162   0.812 -0.5342  2.4386 -0.5141
13753SOL    HW251190   2.574   6.183   0.914 -0.7651  2.0603 -0.1851
13754SOL     OW51191   3.021   1.839   7.481 -0.4167  0.1792 -0.4208
13754SOL    HW151192   3.086   1.892   7.436 -0.5140 -0.0590 -0.8540
13754SOL    HW251193   3.035   1.750   7.446 -0.3325 -0.0544  0.2006
13755SOL     OW51194   2.468   0.522  12.169  0.2267 -0.0677  0.1626
13755SOL    HW151195   2.483   0.429  12.186  0.2944  0.0697  0.8816
13755SOL    HW251196   2.477   0.564  12.254 -2.4298  0.2642  0.3760
13756SOL     OW51197   8.925   6.256  10.986 -0.5110  0.3385  0.4579
13756SOL    HW151198   8.937   6.170  10.946 -0.5838  0.2183  0.6946
13756SOL    HW251199   8.831   6.261  11.005 -0.8540  1.2256 -1.2688
13757SOL     OW51200   3.211   5.503   2.919  0.4773 -0.4400 -0.0433
13757SOL    HW151201   3.156   5.512   2.997 -1.0239 -0.2245 -1.0920
13757SOL    HW251202   3.227   5.594   2.892  0.2766 -0.5280 -0.4606
13758SOL     OW51203  12.931   8.989   6.855  0.4482 -0.1493 -0.1085
13758SOL    HW151204  13.022   9.009   6.833  0.5982 -1.4919 -0.7658
13758SOL    HW251205  12.885   9.072   6.841  1.6396  0.6977  0.7717
13759SOL     OW51206   0.377   8.667   2.048  0.0844 -0.0741 -0.0275
13759SOL    HW151207   0.384   8.571   2.047 -1.8461 -0.3683  2.8059
13759SOL    HW251208   0.306   8.685   1.986 -1.9530 -0.9024  1.9308
13760SOL     OW51209  10.083   8.558   5.244 -0.1874  0.1973  0.0016
13760SOL    HW151210   9.990   8.567   5.225 -0.4961  1.5781  1.8570
13760SOL    HW251211  10.087   8.491   5.312  0.2380 -0.2025 -0.4104
13761SOL     OW51212   6.818   9.679   1.304  0.3819 -0.6785  0.0884
13761SOL    HW151213   6.838   9.654   1.394  0.0238 -0.6525  0.1739
13761SOL    HW251214   6.888   9.739   1.279  0.5051 -0.7220  0.3324
13762SOL     OW51215  11.066   2.886   2.033 -0.6614  0.2749  0.1733
13762SOL    HW151216  11.044   2.874   2.125 -0.7951 -0.4172  0.0593
13762SOL    HW251217  10.990   2.851   1.986  0.2433 -1.2624 -0.2197
13763SOL     OW51218   2.270   9.857   6.883 -0.3864 -0.6517  0.3016
13763SOL    HW151219   2.319   9.915   6.825 -0.6339 -1.7167 -1.0205
13763SOL    HW251220   2.254   9.909   6.962 -2.3090  1.8280 -1.5485
13764SOL     OW51221   4.146   4.740  10.671  0.0312  0.3621 -0.1003
13764SOL    HW151222   4.205   4.774  10.738  1.3133 -0.4889 -0.7503
13764SOL    HW251223   4.110   4.660  10.709  1.4891 -0.6444 -0.7218
13765SOL     OW51224   4.731   7.255   1.118  0.2846 -0.0534  0.0803
13765SOL    HW151225   4.648   7.210   1.133 -0.4631  1.9400  2.7186
13765SOL    HW251226   4.712   7.347   1.135  2.1842  1.0991 -3.1761
13766SOL     OW51227   3.011   2.170   2.387 -0.8277  0.5674  0.0002
13766SOL    HW151228   3.028   2.082   2.354  0.3154  1.0450 -0.7194
13766SOL    HW251229   2.940   2.158   2.450 -0.0935 -1.0097  0.5810
13767SOL     OW51230   1.430   9.274   0.464  0.1138  0.0999  0.0174
13767SOL    HW151231   1.436   9.248   0.556 -1.3257 -0.3816 -0.0029
13767SOL    HW251232   1.514   9.248   0.426 -0.3373 -2.3963  0.5575
13768SOL     OW51233   5.442   2.194   8.847 -1.2025 -0.2663 -0.5547
13768SOL    HW151234   5.366   2.141   8.868 -1.0879 -0.5713 -0.9003
13768SOL    HW251235   5.517   2.138   8.869 -1.0815 -0.1860 -0.7594
13769SOL     OW51236  13.258   3.718   8.955  0.1040  0.3184  0.0219
13769SOL    HW151237  13.316   3.665   9.010 -0.4256  2.4239  2.8840
13769SOL    HW251238  13.318   3.768   8.899  0.6514 -2.1016 -1.6754
13770SOL     OW51239  12.937  10.681   0.668  0.0785 -0.4289  0.3671
13770SOL    HW151240  12.934  10.703   0.574  1.2174  0.6323  0.5586
13770SOL    HW251241  12.884  10.750   0.710 -2.8109 -2.4247  0.3208
13771SOL     OW51242   3.043   6.704   2.459 -0.7299 -0.3805 -0.5491
13771SOL    HW151243   3.014   6.744   2.540  0.4765 -1.8072  0.6378
13771SOL    HW251244   3.124   6.749   2.436  0.8134 -2.1750  0.9676
13772SOL     OW51245   3.476   1.714  10.451 -0.3176 -0.2583  0.3400
13772SOL    HW151246   3.486   1.661  10.531 -2.6902 -1.8195 -0.2960
13772SOL    HW251247   3.415   1.783  10.477 -0.7187 -0.4893  0.0182
13773SOL     OW51248   8.129   6.574   7.226  0.0834 -0.5337 -0.2638
13773SOL    HW151249   8.133   6.493   7.175 -1.3757 -1.6491  1.2922
13773SOL    HW251250   8.050   6.619   7.196  1.4541  0.9322 -1.8932
13774SOL     OW51251  12.562   9.830   6.654  0.0189 -0.0939  0.6059
13774SOL    HW151252  12.477   9.851   6.614  0.0231 -1.3893 -0.1613
13774SOL    HW251253  12.619   9.901   6.627 -0.4089 -0.0828 -0.3248
13775SOL     OW51254   8.215   9.926   5.930  0.1871  0.5916  0.1716
13775SOL    HW151255   8.189   9.922   6.022  2.5333  0.1178  0.8781
13775SOL    HW251256   8.250   9.839   5.911 -1.1425  0.3531 -1.5205
13776SOL     OW51257  10.647   9.831   0.485  0.4082 -0.1509 -0.0417
13776SOL    HW151258  10.687   9.908   0.526  0.8565 -1.0086  1.1811
13776SOL    HW251259  10.620   9.776   0.558 -1.5566 -0.3576 -0.8643
13777SOL     OW51260  10.387   3.732  12.961  0.2143  0.4392 -0.1474
13777SOL    HW151261  10.375   3.814  13.009  0.4439 -0.9004  2.4093
13777SOL    HW251262  10.317   3.731  12.896 -1.9328  1.2007  1.9962
13778SOL     OW51263   3.188   7.586   5.868  0.1063 -0.3601  0.0211
13778SOL    HW151264   3.224   7.652   5.808 -1.7982 -0.4752 -1.3497
13778SOL    HW251265   3.138   7.637   5.932 -0.6971 -0.3732 -0.5658
13779SOL     OW51266   2.647   5.191   1.359 -0.2984 -0.1689 -0.1130
13779SOL    HW151267   2.731   5.232   1.341 -0.7846 -0.2033 -2.7988
13779SOL    HW251268   2.668   5.116   1.415  2.0509 -2.2878 -3.4462
13780SOL     OW51269   0.663   7.297   0.939  0.1073  0.0095 -0.0081
13780SOL    HW151270   0.617   7.352   0.875  0.0374  0.4087  0.3817
13780SOL    HW251271   0.741   7.267   0.893  0.1334  0.4140 -0.2356
13781SOL     OW51272   6.463   0.163   4.702 -0.2898  0.2900  0.5302
13781SOL    HW151273   6.518   0.087   4.718  0.4663  1.0099  1.4513
13781SOL    HW251274   6.523   0.230   4.669 -0.7699  0.7972  0.6606
13782SOL     OW51275   8.527   9.320  10.983 -1.0191  0.0550  0.4050
13782SOL    HW151276   8.575   9.276  10.913 -1.0563 -2.2111  1.7045
13782SOL    HW251277   8.510   9.408  10.948  1.3088 -0.0634 -1.3198
13783SOL     OW51278  13.035   0.766   6.126  0.4589  0.8579 -0.3648
13783SOL    HW151279  12.973   0.785   6.197  1.2937  0.1456  0.5882
13783SOL    HW251280  13.050   0.850   6.084  1.4580  1.7024  1.5719
13784SOL     OW51281   2.710  11.275   8.107 -0.2542  0.2754 -0.2636
13784SOL    HW151282   2.683  11.184   8.095 -1.4672  0.3583  1.4562
13784SOL    HW251283   2.733  11.305   8.019 -3.3776 -0.6196 -1.5559
13785SOL     OW51284   7.333   6.568   9.035  0.0623 -0.0079 -0.4526
13785SOL    HW151285   7.370   6.497   9.087  0.3072  0.5697  0.1667
13785SOL    HW251286   7.240   6.569   9.059 -0.4940 -1.6966 -2.2782
13786SOL     OW51287   5.727   8.739   4.368 -0.0953  0.1106 -0.1530
13786SOL    HW151288   5.680   8.796   4.307  0.0942  0.7888  0.3193
13786SOL    HW251289   5.659   8.690   4.414 -0.2735  0.1553 -0.3707
13787SOL     OW51290   9.691   2.490   0.447 -0.2961  0.4294 -0.1917
13787SOL    HW151291   9.625   2.528   0.388 -1.5570  0.3790  1.1131
13787SOL    HW251292   9.703   2.557   0.515  2.3675  1.2076 -1.3081
13788SOL     OW51293   7.773   5.765  11.016  0.2746  0.5378 -0.2017
13788SOL    HW151294   7.782   5.679  11.059 -1.2320  0.1854 -0.5391
13788SOL    HW251295   7.776   5.745  10.923 -1.8538  0.5885 -0.3182
13789SOL     OW51296   0.261   3.452   4.225 -0.0537  0.0309  0.5413
13789SOL    HW151297   0.281   3.536   4.265  1.3221  0.7097 -1.4023
13789SOL    HW251298   0.247   3.472   4.132  2.8835 -2.1068 -0.5210
13790SOL     OW51299   7.018   8.907   3.000  0.0019 -0.0162  0.1738
13790SOL    HW151300   6.996   8.817   2.975 -0.3294 -0.0503  0.5950
13790SOL    HW251301   6.935   8.947   3.023  0.0454  0.6301 -0.7279
13791SOL     OW51302   9.784   2.443   9.710  0.0212  0.5190 -0.5512
13791SOL    HW151303   9.738   2.522   9.740 -0.3138 -0.3639  1.3999
13791SOL    HW251304   9.731   2.411   9.637 -0.5696  1.3779 -0.5136
13792SOL     OW51305  12.084   7.183  12.064 -0.3659  0.3236 -0.1883
13792SOL    HW151306  12.111   7.104  12.017 -0.8401 -0.0685  0.1879
13792SOL    HW251307  12.122   7.254  12.014 -0.0213 -0.1393 -0.5982
13793SOL     OW51308   5.548   1.476  10.667  0.0019 -0.3733 -0.7361
13793SOL    HW151309   5.577   1.529  10.741  0.5558 -0.3508 -0.9692
13793SOL    HW251310   5.626   1.463  10.613 -0.3396 -0.5976 -1.1923
13794SOL     OW51311   6.337   9.716   8.872  0.2368  0.4418 -0.5589
13794SOL    HW151312   6.250   9.744   8.900 -0.2037 -1.1383 -0.2489
13794SOL    HW251313   6.347   9.753   8.784 -0.8183  0.5097 -0.6632
13795SOL     OW51314   8.986   2.628   4.430  0.1713  0.2649  0.4478
13795SOL    HW151315   8.964   2.584   4.512 -0.4805 -0.2823 -0.0087
13795SOL    HW251316   8.904   2.630   4.381  0.7034 -0.0275 -0.4764
13796SOL     OW51317   4.841   4.396   0.744 -0.0173  0.0031 -0.0638
13796SOL    HW151318   4.824   4.366   0.655 -0.3840 -1.9816  0.6304
13796SOL    HW251319   4.763   4.371   0.794  1.2204 -1.2927  1.3311
13797SOL     OW51320   3.911   4.632   9.824 -0.3515 -0.6529  0.3989
13797SOL    HW151321   3.898   4.545   9.786 -0.4344 -0.7634  0.6752
13797SOL    HW251322   3.931   4.615   9.916 -0.2733 -0.3833  0.4315
13798SOL     OW51323   9.395   3.342   1.533  0.1719  0.0295 -0.3654
13798SOL    HW151324   9.316   3.293   1.557  0.0328  0.1060 -0.6658
13798SOL    HW251325   9.372   3.386   1.451  0.1846  0.8299  0.0403
13799SOL     OW51326   6.952   2.980  10.495  0.4049  0.1712  0.0372
13799SOL    HW151327   6.911   2.901  10.529 -1.3791  0.9334 -0.2435
13799SOL    HW251328   6.997   3.018  10.571  1.8334 -1.4047  0.0300
13800SOL     OW51329   0.690  12.002  13.041 -0.6810 -0.2089  0.1547
13800SOL    HW151330   0.619  11.988  13.103 -0.8001 -2.0792 -0.3361
13800SOL    HW251331   0.757  11.939  13.067  0.8326  1.5066  0.5971
13801SOL     OW51332   6.533   4.307   9.406  0.1208 -0.0860  0.1082
13801SOL    HW151333   6.492   4.315   9.492 -0.0502 -1.8077  0.2261
13801SOL    HW251334   6.552   4.214   9.397 -0.1487  0.0048 -1.8569
13802SOL     OW51335   8.360   7.580   3.254 -0.2162  0.4571  0.1441
13802SOL    HW151336   8.267   7.595   3.273 -0.5467  0.4572 -1.3352
13802SOL    HW251337   8.401   7.665   3.265 -0.0669  0.1661  2.3148
13803SOL     OW51338   1.552   1.855   9.583 -0.1799 -0.4026  0.6375
13803SOL    HW151339   1.515   1.856   9.672 -0.9568  1.4024  0.3424
13803SOL    HW251340   1.622   1.921   9.586  0.0648 -0.6313  0.0057
13804SOL     OW51341  11.418   4.439   2.609  0.5607  0.7377  0.1088
13804SOL    HW151342  11.445   4.429   2.518  0.4125 -0.7214  0.1944
13804SOL    HW251343  11.479   4.384   2.658  0.6371  1.5107  0.9024
13805SOL     OW51344   0.412  11.213  12.365  0.1920  0.4496  0.0818
13805SOL    HW151345   0.482  11.258  12.412  1.3186 -0.9005 -0.2468
13805SOL    HW251346   0.413  11.253  12.278  2.2838 -1.2063 -0.7432
13806SOL     OW51347  12.720   8.099  12.771  0.6779 -0.7326  0.6763
13806SOL    HW151348  12.722   8.095  12.675  2.3201  0.3095  0.6145
13806SOL    HW251349  12.745   8.011  12.799 -0.9525 -1.3825  0.2007
13807SOL     OW51350   4.611   9.536   6.548 -0.2938  0.1611  0.2375
13807SOL    HW151351   4.520   9.513   6.528 -0.0216 -0.5494 -0.2347
13807SOL    HW251352   4.655   9.451   6.557  0.1970  0.4923  1.0553
13808SOL     OW51353   6.954   6.071   3.119 -0.3212 -0.2501  0.5749
13808SOL    HW151354   7.000   5.987   3.116 -0.0922 -0.1033 -0.3093
13808SOL    HW251355   6.975   6.112   3.036 -1.3290  0.2186  0.5487
13809SOL     OW51356   8.438  10.982   3.210  0.0588 -0.0299 -0.4184
13809SOL    HW151357   8.367  10.919   3.218 -0.6859  0.8021 -0.2467
13809SOL    HW251358   8.512  10.941   3.253  0.4834 -2.0436 -2.8043
13810SOL     OW51359  12.954  12.735   1.946  0.2691  0.2357 -0.2126
13810SOL    HW151360  13.021  12.678   1.909  1.1853  1.2983 -0.2691
13810SOL    HW251361  12.935  12.698   2.032 -0.3663 -1.0709 -0.8967
13811SOL     OW51362   7.369  12.323  12.483  0.1304  0.0636 -0.2353
13811SOL    HW151363   7.427  12.335  12.559  0.2588 -0.5748 -0.2245
13811SOL    HW251364   7.329  12.409  12.470  2.2131  0.9594 -1.1928
13812SOL     OW51365   4.091  11.139   6.459  0.0155  0.1333 -0.0034
13812SOL    HW151366   4.181  11.154   6.487  0.5407  1.1928 -2.0351
13812SOL    HW251367   4.088  11.046   6.437  0.8220  0.2053 -0.4794
13813SOL     OW51368   5.962   5.735  10.020  0.3659 -0.0192 -0.3029
13813SOL    HW151369   5.949   5.826   9.994  0.3839 -0.2258 -1.0589
13813SOL    HW251370   5.909   5.724  10.099  0.4499  0.6708 -0.1436
13814SOL     OW51371   7.537   6.810   5.525 -0.3137  0.1205 -0.9743
13814SOL    HW151372   7.528   6.716   5.539  0.0827  0.3338  0.9772
13814SOL    HW251373   7.512   6.823   5.434 -0.4325 -1.8610 -1.2683
13815SOL     OW51374   5.728   7.784   7.843  0.3751 -0.6337  0.2216
13815SOL    HW151375   5.744   7.802   7.936  1.3249 -3.3760  0.6870
13815SOL    HW251376   5.777   7.703   7.826  0.5181 -0.0091 -2.7851
13816SOL     OW51377   9.907   0.125   6.647 -0.2844  0.1860  0.0736
13816SOL    HW151378   9.902   0.030   6.656  2.4370 -0.0787 -0.1467
13816SOL    HW251379   9.999   0.146   6.666 -0.7666  2.7707 -0.0101
13817SOL     OW51380   1.814  11.334   4.276  0.0192 -0.0306  0.1081
13817SOL    HW151381   1.850  11.248   4.258  0.5392 -0.0014  0.9538
13817SOL    HW251382   1.720  11.325   4.259  0.3684 -0.1268 -2.0396
13818SOL     OW51383  11.626   7.710  10.561 -0.0424  1.0530 -0.4595
13818SOL    HW151384  11.632   7.709  10.657 -0.6016  2.7191 -0.3777
13818SOL    HW251385  11.680   7.784  10.534 -1.2773  1.6810 -1.2940
13819SOL     OW51386   6.027   2.751   7.875 -0.2123 -0.5277  0.3401
13819SOL    HW151387   5.994   2.663   7.891  0.2746 -0.8524 -0.3976
13819SOL    HW251388   5.977   2.807   7.934 -1.6047 -1.0923 -0.2625
13820SOL     OW51389   4.998   0.036   3.570  0.0617  0.3379 -0.0806
13820SOL    HW151390   4.983  -0.030   3.638 -0.5279  0.8344  0.2851
13820SOL    HW251391   4.929   0.100   3.584  1.1250  1.4681  0.0977
13821SOL     OW51392   5.376   3.093   6.440 -0.5900 -0.0519 -0.2921
13821SOL    HW151393   5.400   3.017   6.388  0.0686  0.2843 -0.4948
13821SOL    HW251394   5.395   3.068   6.530 -0.1652 -0.0468 -0.3818
13822SOL     OW51395   5.899  10.861   6.342 -0.6820 -0.9313  0.8141
13822SOL    HW151396   5.880  10.948   6.376 -0.2761 -0.7563  0.5939
13822SOL    HW251397   5.853  10.802   6.402 -1.5978 -0.5402  0.5161
13823SOL     OW51398   0.059   6.708   9.320 -0.1002  0.5070  0.0038
13823SOL    HW151399   0.001   6.634   9.333 -1.3209  1.5453  0.6931
13823SOL    HW251400   0.069   6.715   9.225  0.5639 -0.9066 -0.0516
13824SOL     OW51401  10.271  10.544   3.665  1.0822 -0.4368  0.7441
13824SOL    HW151402  10.364  10.563   3.677  0.7100  0.2245  3.0386
13824SOL    HW251403  10.268  10.449   3.648  2.1662 -0.4716  0.6700
13825SOL     OW51404  12.013   9.583   0.656  0.0642  0.5747 -0.2930
13825SOL    HW151405  12.051   9.666   0.628 -2.0647  1.6316 -0.1902
13825SOL    HW251406  12.083   9.519   0.643  1.7679  2.3721 -0.3314
13826SOL     OW51407   1.820   1.263  12.213  0.3171 -0.3979 -0.4539
13826SOL    HW151408   1.789   1.341  12.166  0.4430 -1.7049 -2.9188
13826SOL    HW251409   1.744   1.204  12.213  0.2176 -0.3041  1.3846
13827SOL     OW51410  13.266  11.672   8.691 -0.1717 -0.3548  0.1764
13827SOL    HW151411  13.349  11.683   8.738  0.4711 -0.9963 -0.7776
13827SOL    HW251412  13.219  11.604   8.741  0.1444 -0.4364  0.3639
13828SOL     OW51413   4.321   2.682   2.332  0.0396 -0.6600 -1.0503
13828SOL    HW151414   4.353   2.592   2.329  1.0098 -0.3089 -2.5158
13828SOL    HW251415   4.388   2.729   2.382 -0.5011 -0.7556 -0.2261
13829SOL     OW51416   7.453  10.026  12.582 -0.6253 -0.1488 -0.1332
13829SOL    HW151417   7.437   9.952  12.523  0.4485  0.7104 -1.5717
13829SOL    HW251418   7.374  10.080  12.575 -0.6112 -0.1836 -0.6066
13830SOL     OW51419   2.156  12.858   1.411  0.2952 -0.7477 -0.0326
13830SOL    HW151420   2.212  12.783   1.393  0.1914 -0.5635 -1.2494
13830SOL    HW251421   2.205  12.933   1.377  0.6205 -0.1689  1.6013
13831SOL     OW51422   6.400   7.384   4.505  0.2200 -0.0735  0.2261
13831SOL    HW151423   6.403   7.331   4.426 -0.3333 -1.6305  1.1992
13831SOL    HW251424   6.483   7.365   4.550 -0.0803 -0.2999  0.6925
13832SOL     OW51425   7.633   9.565   8.039 -0.1505 -0.1122 -0.4354
13832SOL    HW151426   7.580   9.555   7.960  1.0496 -0.9019 -1.1697
13832SOL    HW251427   7.602   9.647   8.079 -2.6652 -1.0925 -0.2271
13833SOL     OW51428  12.532   9.906  13.299 -0.0007 -0.1752 -0.4315
13833SOL    HW151429  12.584   9.884  13.375 -0.0835  2.0519  0.3317
13833SOL    HW251430  12.505   9.821  13.263  0.2450 -1.2933  1.8479
13834SOL     OW51431   0.247  10.330   9.291  0.2252  0.4398 -0.3085
13834SOL    HW151432   0.315  10.397   9.298  0.0951  0.4374  1.8814
13834SOL    HW251433   0.290  10.250   9.323 -0.5483  0.2521  0.2920
13835SOL     OW51434   5.368   3.121   5.900 -0.5778  0.4841 -0.0509
13835SOL    HW151435   5.459   3.094   5.903 -0.4326  1.0076  0.5252
13835SOL    HW251436   5.327   3.063   5.836  0.1326  0.1746 -0.2272
13836SOL     OW51437  12.790   3.670   4.574  0.0559  0.1190 -0.4736
13836SOL    HW151438  12.735   3.656   4.652 -2.3222  0.8913 -1.9007
13836SOL    HW251439  12.861   3.725   4.605 -0.8033  0.3859  1.1711
13837SOL     OW51440   3.221   9.853  10.268  0.0479  0.2821 -0.1784
13837SOL    HW151441   3.309   9.850  10.306 -0.2726  0.2430  0.5726
13837SOL    HW251442   3.165   9.811  10.334 -0.2667 -1.3991 -1.4293
13838SOL     OW51443   6.606   4.882   3.611  0.1387  0.1291 -0.0938
13838SOL    HW151444   6.667   4.946   3.575  1.0064  1.3411  3.1585
13838SOL    HW251445   6.532   4.934   3.643 -1.2654 -1.0228 -1.3173
13839SOL     OW51446   4.315   6.593   0.016 -0.7317 -0.4487  0.8834
13839SOL    HW151447   4.345   6.568   0.103 -1.6708 -0.9340  1.0880
13839SOL    HW251448   4.261   6.671   0.030 -0.8106 -0.4746  0.7330
13840SOL     OW51449   2.093   1.531   7.464 -0.7665 -0.3855  0.3793
13840SOL    HW151450   2.032   1.572   7.403 -0.1348 -0.1454 -0.1071
13840SOL    HW251451   2.173   1.584   7.456  0.2236 -1.9605 -0.6002
13841SOL     OW51452  10.167   8.255   7.142 -0.0862 -0.1730  0.8626
13841SOL    HW151453  10.259   8.237   7.159 -0.2247 -0.2438  1.5775
13841SOL    HW251454  10.167   8.307   7.062  0.6000  0.1122  1.0368
13842SOL     OW51455   7.847   4.836   4.294  0.5807  0.2729 -0.0036
13842SOL    HW151456   7.801   4.874   4.369  1.5975 -0.8029  1.2198
13842SOL    HW251457   7.940   4.839   4.319  0.7742 -2.1804 -0.1847
13843SOL     OW51458   2.007  12.094   0.761  0.7335  0.2525 -0.2718
13843SOL    HW151459   2.030  12.186   0.771 -0.9958  0.7561 -0.5796
13843SOL    HW251460   2.040  12.071   0.674 -0.8466  1.2738 -1.1890
13844SOL     OW51461   7.488   6.721   1.508 -0.5914 -0.0660 -0.3724
13844SOL    HW151462   7.537   6.678   1.438 -0.7318  0.4206 -0.7780
13844SOL    HW251463   7.396   6.705   1.487 -0.6218 -0.9077  0.3439
13845SOL     OW51464   5.581   8.440   6.605  0.1629 -0.1263  0.3530
13845SOL    HW151465   5.675   8.450   6.586 -0.1179 -0.1385 -1.2232
13845SOL    HW251466   5.578   8.408   6.695  1.7579 -1.5719 -0.0468
13846SOL     OW51467   1.070   0.698   3.031  0.5094  0.1849  0.1117
13846SOL    HW151468   1.161   0.725   3.042  1.0403 -1.2254 -0.6025
13846SOL    HW251469   1.022   0.749   3.096  1.8729  0.6113  0.8206
13847SOL     OW51470   8.094   8.472  12.737 -0.2060  0.1219 -1.2970
13847SOL    HW151471   8.158   8.503  12.673  1.4063  0.2168  0.2834
13847SOL    HW251472   8.083   8.544  12.798 -0.4989 -0.5130 -0.5794
13848SOL     OW51473  10.718   7.207   5.461 -0.2104  0.4657 -0.3810
13848SOL    HW151474  10.702   7.301   5.467  1.0746  0.6055  1.9337
13848SOL    HW251475  10.665   7.169   5.531  0.3382 -0.3804 -0.4093
13849SOL     OW51476  11.487  12.531   7.900  0.1214 -0.2912 -0.2117
13849SOL    HW151477  11.545  12.482   7.843  1.2812  1.7939 -0.9492
13849SOL    HW251478  11.401  12.525   7.858  0.6988  0.1345 -1.5098
13850SOL     OW51479   7.857   7.059   9.467 -0.5030 -0.0310 -0.1153
13850SOL    HW151480   7.866   6.991   9.400  1.1776  0.6740 -0.6623
13850SOL    HW251481   7.907   7.026   9.541  0.6221  0.7412 -0.5122
13851SOL     OW51482   4.494   0.339   5.119 -0.1688  0.0541  0.1831
13851SOL    HW151483   4.402   0.334   5.092 -0.4004  0.1435  0.9129
13851SOL    HW251484   4.520   0.248   5.132  0.3977 -0.0957 -1.7353
13852SOL     OW51485   9.791   8.546   5.461 -0.2045 -0.4624 -0.0146
13852SOL    HW151486   9.741   8.489   5.519  0.7879 -0.7328  0.5956
13852SOL    HW251487   9.819   8.619   5.517  0.7176 -0.7000 -0.1375
13853SOL     OW51488   4.891   2.582   9.255 -0.0231  0.0923  0.3435
13853SOL    HW151489   4.955   2.546   9.194 -1.1331  1.2724 -1.6050
13853SOL    HW251490   4.806   2.559   9.217 -0.7671  0.0944  1.9269
13854SOL     OW51491  10.461   5.381   8.329 -0.5668  0.0689 -0.5961
13854SOL    HW151492  10.378   5.396   8.284 -0.1737  0.1259 -1.3145
13854SOL    HW251493  10.513   5.330   8.267 -0.3641 -0.6886  0.1789
13855SOL     OW51494  11.702   2.687   2.709  0.3203 -0.5087 -0.0067
13855SOL    HW151495  11.720   2.597   2.681  1.0428 -0.3927  0.0904
13855SOL    HW251496  11.708   2.739   2.629  0.7266 -0.4223  0.0818
13856SOL     OW51497  11.867   3.040   9.973 -0.4160 -0.3798  0.2091
13856SOL    HW151498  11.819   2.962   9.944 -1.1506 -0.4319  1.4738
13856SOL    HW251499  11.958   3.023   9.947 -0.3239 -2.2610  1.5462
13857SOL     OW51500   6.701   8.224  10.872  0.2025  0.6901 -0.1592
13857SOL    HW151501   6.667   8.313  10.883 -0.9380  0.6094 -2.3397
13857SOL    HW251502   6.623   8.169  10.870  0.9556 -0.7403  3.1959
13858SOL     OW51503   7.055  10.746   5.811  0.3675  0.2381  0.2401
13858SOL    HW151504   7.017  10.752   5.898 -1.4854 -3.4103 -0.1209
13858SOL    HW251505   7.145  10.717   5.826  0.6572  1.4509  0.9419
13859SOL     OW51506   9.325  11.677  12.110  0.0419 -0.0345  0.1209
13859SOL    HW151507   9.332  11.772  12.102  0.0177 -0.1628 -1.9836
13859SOL    HW251508   9.398  11.643  12.058  1.3309 -1.2025  2.5340
13860SOL     OW51509  10.612   3.284  11.229  0.1223 -0.2792 -0.1465
13860SOL    HW151510  10.627   3.376  11.205  1.2249 -0.3490  0.2035
13860SOL    HW251511  10.637   3.235  11.150  0.4252 -0.3174 -0.0304
13861SOL     OW51512  10.596   1.163   6.777 -0.3265  0.1816 -0.5276
13861SOL    HW151513  10.664   1.104   6.744 -1.2535 -0.5232 -1.2683
13861SOL    HW251514  10.616   1.247   6.737  1.6532  0.7174  1.3998
13862SOL     OW51515   2.728   8.396   7.990 -0.5852  0.1507 -0.5324
13862SOL    HW151516   2.649   8.356   7.953 -0.4763 -2.0729  1.3984
13862SOL    HW251517   2.800   8.347   7.950 -0.3323 -0.0233  0.1286
13863SOL     OW51518   9.836   0.926   4.104  0.4540  0.3511 -0.1091
13863SOL    HW151519   9.876   0.868   4.038  1.2122  0.1526  0.5119
13863SOL    HW251520   9.809   0.867   4.174 -0.3567  0.5637 -0.2329
13864SOL     OW51521  12.534  13.293   0.331 -0.2636  0.6720  0.0050
13864SOL    HW151522  12.616  13.246   0.349 -1.1100 -0.4496  1.1345
13864SOL    HW251523  12.467  13.241   0.377 -1.5488  1.7737 -0.5877
13865SOL     OW51524   2.832   1.979   4.965  0.0780 -0.1858  0.9605
13865SOL    HW151525   2.878   1.954   5.045 -0.1826  1.4402  1.6545
13865SOL    HW251526   2.875   1.928   4.896  2.1968  0.4508  1.7340
13866SOL     OW51527   0.975   4.209   1.420 -0.6832 -0.6171  0.5406
13866SOL    HW151528   0.900   4.171   1.375 -0.3650  0.7359 -1.2754
13866SOL    HW251529   0.986   4.295   1.380  1.5878 -0.6119  1.0044
13867SOL     OW51530   2.159   0.950  10.742 -0.4494  0.4497 -0.0187
13867SOL    HW151531   2.167   1.031  10.792  1.2574 -0.5559  1.4814
13867SOL    HW251532   2.084   0.905  10.780  0.3213  0.0807  1.1093
13868SOL     OW51533   3.251   8.767   5.955 -0.5631 -0.2300  0.7114
13868SOL    HW151534   3.345   8.773   5.939 -0.2570 -1.2338  1.9416
13868SOL    HW251535   3.214   8.845   5.914  0.8725  0.4526  0.6635
13869SOL     OW51536   5.336  12.653   6.705  0.2887 -0.7778  0.5441
13869SOL    HW151537   5.267  12.595   6.673 -0.2055 -1.4211  2.5781
13869SOL    HW251538   5.387  12.598   6.765  1.8490  0.0181  0.0054
13870SOL     OW51539   1.316   9.998   5.973 -0.0783 -0.2174  0.2307
13870SOL    HW151540   1.339  10.058   5.903  1.2454 -0.5907  0.3118
13870SOL    HW251541   1.317  10.051   6.053  0.7677 -0.2696  0.2611
13871SOL     OW51542  12.908   8.141   9.836 -0.3616  0.0835 -0.2886
13871SOL    HW151543  12.994   8.120   9.871 -0.9971  0.2228  1.4771
13871SOL    HW251544  12.905   8.237   9.835 -0.5604  0.0801 -0.1500
13872SOL     OW51545   5.374   7.789   1.635 -0.0637  0.8007 -0.1755
13872SOL    HW151546   5.399   7.705   1.595 -1.7696  0.3582 -0.3860
13872SOL    HW251547   5.440   7.851   1.604  1.5233 -0.5481  0.3717
13873SOL     OW51548   5.121   3.396  10.594  0.2104  0.2298  0.3157
13873SOL    HW151549   5.060   3.358  10.657 -1.4747 -2.9435 -2.8840
13873SOL    HW251550   5.198   3.340  10.598  0.7856  1.0306  0.6760
13874SOL     OW51551   0.842   9.565   8.535 -0.0031 -0.3346 -0.1781
13874SOL    HW151552   0.763   9.616   8.517  0.0952  0.1971  0.8012
13874SOL    HW251553   0.810   9.482   8.570 -0.1421 -0.3970 -0.4528
13875SOL     OW51554   3.639   4.245  13.058  0.5224  0.2169  0.3845
13875SOL    HW151555   3.680   4.195  12.987  0.3117  0.6659 -0.0638
13875SOL    HW251556   3.611   4.179  13.121  0.9182 -0.1742  0.1565
13876SOL     OW51557  12.436   0.527  11.854  0.3093 -0.0117  0.2251
13876SOL    HW151558  12.410   0.619  11.859 -0.2146 -0.1908  0.7879
13876SOL    HW251559  12.403   0.488  11.934 -2.2452 -1.4171 -1.3915
13877SOL     OW51560   1.190   0.433   3.998  0.4581 -0.2783  0.3810
13877SOL    HW151561   1.197   0.478   4.082 -0.0326 -1.6673  1.2143
13877SOL    HW251562   1.260   0.367   4.000 -0.8112 -1.6787  0.6222
13878SOL     OW51563   1.727   4.269   1.759  0.2289  0.1819 -0.0189
13878SOL    HW151564   1.727   4.174   1.749  2.6483  0.1873 -0.9255
13878SOL    HW251565   1.735   4.284   1.853 -0.7512 -0.4710  0.1817
13879SOL     OW51566   9.501  12.140   0.249  0.1524 -0.0515  0.0249
13879SOL    HW151567   9.591  12.128   0.279  0.6374  0.0584 -1.3058
13879SOL    HW251568   9.485  12.234   0.258  0.6332  0.1346 -0.9047
13880SOL     OW51569   9.093   6.935   7.044  0.0158  0.2051  0.1642
13880SOL    HW151570   9.048   6.923   6.961 -2.2573 -2.2603  1.5686
13880SOL    HW251571   9.183   6.909   7.027 -0.4692 -0.5237 -1.4644
13881SOL     OW51572   1.641   2.816   6.289 -0.2667  0.1468 -0.3584
13881SOL    HW151573   1.608   2.747   6.232  0.6299  0.4597 -1.2716
13881SOL    HW251574   1.632   2.896   6.238  0.1649  0.4870  0.0924
13882SOL     OW51575  12.223   6.107   7.092  0.2682  0.2912  0.3031
13882SOL    HW151576  12.189   6.196   7.079 -3.7981 -0.9464  1.0408
13882SOL    HW251577  12.228   6.096   7.187 -0.8707 -0.7588  0.2583
13883SOL     OW51578   9.834   2.656   7.755 -0.2744 -0.1544  0.4156
13883SOL    HW151579   9.903   2.642   7.820  1.1355 -0.0374 -0.9894
13883SOL    HW251580   9.790   2.571   7.748  0.6877 -0.6626  0.3030
13884SOL     OW51581  11.158   1.976   0.269  0.0276 -0.6305 -0.0881
13884SOL    HW151582  11.098   2.050   0.271  2.1011  1.3052 -2.2972
13884SOL    HW251583  11.200   1.975   0.355  0.4505  1.2524 -0.2414
13885SOL     OW51584   5.269   3.137   3.058 -0.0938 -0.5319  0.4066
13885SOL    HW151585   5.228   3.073   3.116 -2.0744 -0.7158 -1.0780
13885SOL    HW251586   5.302   3.084   2.985 -0.1676 -0.0532  0.0227
13886SOL     OW51587   7.694   2.688   9.386 -0.7048 -0.1637 -0.3354
13886SOL    HW151588   7.670   2.725   9.301  0.3037  0.3411 -0.4180
13886SOL    HW251589   7.790   2.685   9.384 -0.7269 -3.0911 -0.4565
13887SOL     OW51590   6.952  11.311  12.034  0.4993 -0.0344 -0.0927
13887SOL    HW151591   6.919  11.229  12.070 -0.0793  0.5977  0.8511
13887SOL    HW251592   6.983  11.360  12.110 -0.4279  1.1904 -0.4814
13888SOL     OW51593   5.991  11.444   1.886  0.6288 -0.6900  0.0673
13888SOL    HW151594   6.052  11.512   1.915 -0.5898  0.4227  0.1189
13888SOL    HW251595   6.029  11.362   1.918  1.5353  0.0828  1.0312
13889SOL     OW51596   2.520   7.831   9.825  0.4573 -0.4467  0.2734
13889SOL    HW151597   2.603   7.859   9.785  0.2175 -1.0867 -0.6909
13889SOL    HW251598   2.483   7.768   9.764 -0.0172 -1.3290  1.4193
13890SOL     OW51599  12.621  10.418   9.230  0.4999  0.1541 -0.0571
13890SOL    HW151600  12.593  10.385   9.145 -0.0443  0.1295  0.1303
13890SOL    HW251601  12.628  10.513   9.218 -0.2177  0.2245  0.0466
13891SOL     OW51602   8.739  10.436   5.915  0.3230  0.5683  0.2321
13891SOL    HW151603   8.794  10.510   5.888 -0.7647  0.8333 -1.3530
13891SOL    HW251604   8.655  10.452   5.873 -0.5667 -0.5510  1.5100
13892SOL     OW51605   4.179   1.281   4.412 -0.0286  0.1441  0.5609
13892SOL    HW151606   4.210   1.306   4.325  0.1519  2.9263  1.3205
13892SOL    HW251607   4.258   1.255   4.460 -0.2746 -2.6372 -0.3834
13893SOL     OW51608  10.188   4.559   5.446 -0.3545 -0.0461 -0.5030
13893SOL    HW151609  10.146   4.600   5.521 -1.3284 -0.2471 -0.9123
13893SOL    HW251610  10.163   4.615   5.372 -1.8557 -1.4178 -1.0980
13894SOL     OW51611  11.859  11.422   2.307 -0.3402 -0.4398 -0.1918
13894SOL    HW151612  11.899  11.461   2.229 -0.8789  1.8101  0.5774
13894SOL    HW251613  11.914  11.450   2.379 -0.8975 -0.9339  0.4385
13895SOL     OW51614  10.929  12.154  13.276 -0.4203 -0.7398  0.0068
13895SOL    HW151615  10.982  12.084  13.238 -0.3126  0.3123 -1.9389
13895SOL    HW251616  10.980  12.234  13.262 -0.7857 -0.1637  1.6749
13896SOL     OW51617   2.399   8.216  12.639 -0.4888  0.7835  0.6341
13896SOL    HW151618   2.308   8.247  12.638 -0.6201  0.4089  1.0716
13896SOL    HW251619   2.413   8.182  12.550 -0.5174  1.5757  0.3178
13897SOL     OW51620   6.610  12.190  10.972  0.1160 -0.0789 -0.3332
13897SOL    HW151621   6.585  12.178  10.881 -1.0842  1.9343 -0.3273
13897SOL    HW251622   6.705  12.182  10.972  0.1873  0.4264 -1.8715
13898SOL     OW51623   9.462  12.603   7.395 -0.2863 -0.5467 -0.1511
13898SOL    HW151624   9.496  12.688   7.368 -2.0106  0.5561  0.9272
13898SOL    HW251625   9.370  12.604   7.367 -0.7629 -1.3867  1.2739
13899SOL     OW51626   4.045   3.210   2.634  0.1654  0.2498 -0.2119
13899SOL    HW151627   4.134   3.178   2.648  0.1144  0.3462  0.3162
13899SOL    HW251628   4.013   3.233   2.721 -0.9055 -1.1729 -0.1905
13900SOL     OW51629   7.035   9.587   9.169 -0.6041  0.1514 -0.3827
13900SOL    HW151630   6.961   9.605   9.228 -1.2611 -1.0666 -0.8091
13900SOL    HW251631   7.035   9.661   9.108 -1.4194  0.2069 -0.3271
13901SOL     OW51632   0.971   9.441   5.983  0.0509  0.3456  0.1142
13901SOL    HW151633   0.952   9.351   5.958  0.7856  0.2441 -0.0753
13901SOL    HW251634   0.886   9.485   5.979 -1.3319 -1.3250  4.6250
13902SOL     OW51635   7.274  12.512   1.371  0.4568 -0.3717  0.0338
13902SOL    HW151636   7.245  12.561   1.294 -0.8322  1.7058  1.7360
13902SOL    HW251637   7.249  12.422   1.353 -1.4584  0.3630 -1.2392
13903SOL     OW51638   0.685   3.853   5.601 -0.6156 -0.2773 -0.0562
13903SOL    HW151639   0.731   3.932   5.629 -2.5697  1.2402 -0.8717
13903SOL    HW251640   0.737   3.820   5.527 -0.3108  0.8469 -0.3655
13904SOL     OW51641   1.316   1.833  13.247 -0.1802  0.3677  0.4157
13904SOL    HW151642   1.389   1.772  13.251 -0.8279 -0.4382  0.0314
13904SOL    HW251643   1.340   1.902  13.310  2.3399  1.7581 -1.8351
13905SOL     OW51644   6.857   0.949   0.398 -0.2483  0.5368  0.3729
13905SOL    HW151645   6.928   0.903   0.442  0.0115 -1.1774 -1.6765
13905SOL    HW251646   6.779   0.895   0.417 -0.3824  0.5653 -0.0851
13906SOL     OW51647   6.664   1.156   1.927 -0.1734 -0.3153  0.3913
13906SOL    HW151648   6.649   1.224   1.861  0.8114 -0.3514  0.1205
13906SOL    HW251649   6.681   1.204   2.008 -1.8617 -0.2692  0.7724
13907SOL     OW51650   5.272   9.519   4.781 -0.3113  0.0525 -0.5624
13907SOL    HW151651   5.272   9.595   4.840 -1.8350  0.5686 -1.1902
13907SOL    HW251652   5.280   9.444   4.840  1.4920  0.6791  0.0503
13908SOL     OW51653   6.070   7.404  11.452  0.0678 -0.3386 -0.7669
13908SOL    HW151654   6.055   7.417  11.545  3.1823  0.2618 -0.2442
13908SOL    HW251655   6.007   7.462  11.409 -2.2516 -1.4991  0.8409
13909SOL     OW51656   0.665   2.023   1.916  0.0337  0.3062  0.7290
13909SOL    HW151657   0.672   1.947   1.973 -0.1741  1.0079  1.7257
13909SOL    HW251658   0.730   2.085   1.950 -0.0848  0.7351  0.2013
13910SOL     OW51659   0.694   5.129   8.875 -0.3024  0.2583 -0.7678
13910SOL    HW151660   0.761   5.073   8.914 -0.5339 -0.2931 -1.1580
13910SOL    HW251661   0.687   5.203   8.935  1.8597  1.1884 -1.5494
13911SOL     OW51662  11.017  12.153   7.158 -0.2261  0.2296  0.6164
13911SOL    HW151663  10.961  12.176   7.083  0.8165  1.8837  0.2879
13911SOL    HW251664  10.968  12.085   7.205 -2.1382  1.0578 -0.0816
13912SOL     OW51665   6.594   4.444  12.349  0.4020 -0.5519  0.2149
13912SOL    HW151666   6.670   4.501  12.365  0.2983 -0.7308  1.3694
13912SOL    HW251667   6.625   4.356  12.371  0.1458 -0.7668 -0.2644
13913SOL     OW51668   2.936   5.733   3.255 -0.7757  0.6198  0.4283
13913SOL    HW151669   2.907   5.823   3.272  0.7700  1.1235  0.5593
13913SOL    HW251670   2.877   5.702   3.187 -2.4945  1.0760  1.6465
13914SOL     OW51671   3.367   2.210   0.974  0.2196 -0.1952 -0.0246
13914SOL    HW151672   3.300   2.142   0.969 -0.1365  0.1705 -0.2914
13914SOL    HW251673   3.446   2.168   0.940  0.3671 -0.9099  1.1256
13915SOL     OW51674   8.157   1.334   2.003  0.5247  0.2940 -0.6396
13915SOL    HW151675   8.200   1.392   2.066 -0.0449  1.1025 -0.9716
13915SOL    HW251676   8.161   1.383   1.920  0.7734 -0.5105 -1.1170
13916SOL     OW51677   5.278   5.304   0.481  0.3505  0.3788  0.0372
13916SOL    HW151678   5.251   5.232   0.424 -1.0451  0.7691  0.1517
13916SOL    HW251679   5.277   5.381   0.425  1.3158  0.3939  0.0376
13917SOL     OW51680   9.624  12.167   8.156 -0.8536 -0.1207  0.1041
13917SOL    HW151681   9.554  12.164   8.221 -2.0136 -2.0965 -1.1683
13917SOL    HW251682   9.703  12.145   8.205 -1.2179  1.2557  1.3815
13918SOL     OW51683   5.250  11.218   2.048 -0.6900 -0.0311  0.3357
13918SOL    HW151684   5.157  11.240   2.056 -0.7771 -0.8543  1.9519
13918SOL    HW251685   5.294  11.280   2.106 -0.1614  0.5034 -0.5904
13919SOL     OW51686   8.144   9.018   8.088 -0.1182  0.3676 -0.0526
13919SOL    HW151687   8.052   9.013   8.062  0.2191 -1.9915 -1.0808
13919SOL    HW251688   8.192   8.984   8.012  1.3853 -0.9683  1.4206
13920SOL     OW51689   1.776   4.375   2.010 -0.1160 -0.2766  0.4867
13920SOL    HW151690   1.767   4.458   2.057 -0.6215  0.0117 -0.1118
13920SOL    HW251691   1.726   4.312   2.061 -1.8206  0.3219 -0.3513
13921SOL     OW51692   8.363   8.606  10.265 -0.5142 -0.0682  0.0535
13921SOL    HW151693   8.280   8.651  10.285 -0.1070  0.6415  0.1758
13921SOL    HW251694   8.410   8.607  10.348 -0.7848 -1.3429  0.2303
13922SOL     OW51695   9.842   7.669   7.404  0.0675 -0.2203 -0.2773
13922SOL    HW151696   9.901   7.691   7.476 -0.5476 -0.1648  0.2081
13922SOL    HW251697   9.756   7.659   7.444 -0.3140 -0.0319 -1.0229
13923SOL     OW51698   7.602  11.035   5.056  0.6422 -0.2864  0.2837
13923SOL    HW151699   7.577  10.946   5.028  0.1186  0.2790 -1.1328
13923SOL    HW251700   7.664  11.064   4.990  1.7065  0.0007  1.3748
13924SOL     OW51701   2.772   4.023   7.516 -0.9287  0.6072  0.1429
13924SOL    HW151702   2.678   4.021   7.496 -0.7745  2.8095 -1.0799
13924SOL    HW251703   2.812   3.969   7.448 -1.3642 -1.6025  1.5372
13925SOL     OW51704   9.445  10.392   2.965  0.7080  0.3954  0.2015
13925SOL    HW151705   9.448  10.466   2.903 -0.0513 -0.6782 -1.1763
13925SOL    HW251706   9.440  10.314   2.909 -1.1548 -0.5735  1.6115
13926SOL     OW51707   3.538   4.766   4.697 -0.0935 -0.0296  0.4250
13926SOL    HW151708   3.475   4.704   4.735 -0.0571 -0.1781  0.2450
13926SOL    HW251709   3.614   4.761   4.754  0.6996 -1.6557 -0.7125
13927SOL     OW51710  12.377   5.061   9.999 -0.5163 -0.1900  0.0397
13927SOL    HW151711  12.442   5.053  10.068 -0.8310 -0.8534  0.2629
13927SOL    HW251712  12.417   5.018   9.923 -0.2924  0.2787 -0.1135
13928SOL     OW51713   4.618   0.021   7.673 -0.2163 -0.3401  0.7568
13928SOL    HW151714   4.522   0.022   7.676 -0.2371 -1.2670  0.7327
13928SOL    HW251715   4.639  -0.062   7.631  0.6103 -0.5653  1.5846
13929SOL     OW51716  11.018  10.069   9.783 -0.1091  0.1790 -0.0715
13929SOL    HW151717  11.111  10.090   9.770  1.0726 -1.4440  4.1012
13929SOL    HW251718  10.988  10.134   9.847 -1.3561 -0.3899 -0.0522
13930SOL     OW51719   1.412   2.209  11.719 -0.4282  0.1698 -0.0326
13930SOL    HW151720   1.322   2.186  11.696 -1.0431  1.7234  0.7109
13930SOL    HW251721   1.415   2.201  11.814 -0.5142  2.4577  0.2021
13931SOL     OW51722   6.615   7.977  12.449 -0.1284 -0.3011  0.6914
13931SOL    HW151723   6.529   8.004  12.415 -0.0787 -2.4419 -1.4046
13931SOL    HW251724   6.605   7.883  12.466  0.8781  0.0264  3.6988
13932SOL     OW51725   1.683   6.147   2.535  0.0862  0.0249 -0.6620
13932SOL    HW151726   1.662   6.057   2.558  0.3937 -0.2305 -1.3520
13932SOL    HW251727   1.683   6.148   2.439  1.4677  0.4117 -0.6809
13933SOL     OW51728   3.127   0.655  11.282  0.2346 -0.0631 -0.7565
13933SOL    HW151729   3.032   0.652  11.293  0.2573 -0.3495 -0.6351
13933SOL    HW251730   3.161   0.668  11.370  0.3916 -1.8444 -0.5189
13934SOL     OW51731   7.424   9.771  12.428 -0.2958  0.5978 -0.2387
13934SOL    HW151732   7.406   9.687  12.386 -2.0403  1.3548 -1.1370
13934SOL    HW251733   7.428   9.833  12.355 -1.9174  1.7134  0.5709
13935SOL     OW51734   1.021   7.354   8.216 -0.2852 -0.4713 -0.1662
13935SOL    HW151735   1.054   7.270   8.186 -1.4447 -0.9304 -0.2360
13935SOL    HW251736   0.969   7.387   8.142 -0.9653 -0.3450  0.3557
13936SOL     OW51737  12.661   2.378   4.253 -0.0421 -0.1853 -0.1361
13936SOL    HW151738  12.670   2.314   4.323  2.7588  1.2591  0.9676
13936SOL    HW251739  12.608   2.448   4.290 -2.2480 -1.3081 -1.0078
13937SOL     OW51740   4.228   2.263   2.530  0.5811 -0.0261  0.2011
13937SOL    HW151741   4.298   2.197   2.524  1.2295  0.7380 -1.2617
13937SOL    HW251742   4.217   2.277   2.624  0.8314 -1.7723  0.5324
13938SOL     OW51743   0.133   6.532   8.284  0.0515  0.1354  0.0843
13938SOL    HW151744   0.042   6.561   8.285 -0.5248 -1.5951  1.0087
13938SOL    HW251745   0.184   6.613   8.288 -1.3816  1.2177 -1.8270
13939SOL     OW51746   6.009  12.658   2.404 -0.1661  0.2433 -0.1737
13939SOL    HW151747   5.974  12.726   2.462  0.7575 -0.0572  0.7476
13939SOL    HW251748   5.979  12.685   2.317  0.7232  2.2146  0.0781
13940SOL     OW51749   1.056   1.524  12.315  0.3022  0.3761 -0.4680
13940SOL    HW151750   1.028   1.468  12.388 -1.8850  1.0080 -0.7371
13940SOL    HW251751   1.064   1.464  12.241  0.5429  0.0238 -0.1585
13941SOL     OW51752   7.050   9.623   8.125 -0.3474  0.1193  0.4046
13941SOL    HW151753   6.966   9.584   8.099  0.1595 -0.4691 -0.3979
13941SOL    HW251754   7.053   9.706   8.077 -1.0934  0.8293  1.5385
13942SOL     OW51755   6.607  11.909   7.268  0.3809 -0.0065  1.1296
13942SOL    HW151756   6.625  11.837   7.328 -0.4205 -0.3014  1.0165
13942SOL    HW251757   6.529  11.951   7.304  1.3848  1.4317  1.7580
13943SOL     OW51758   5.661   7.641  13.210  0.2225 -0.1102 -0.5232
13943SOL    HW151759   5.711   7.695  13.149 -0.2523  0.9497  0.0014
13943SOL    HW251760   5.604   7.588  13.154 -0.6545  1.2889 -1.0044
13944SOL     OW51761  12.160   8.127   5.773 -0.0846  0.3408 -0.6759
13944SOL    HW151762  12.229   8.164   5.718  0.5455 -0.3553 -0.3817
13944SOL    HW251763  12.202   8.113   5.858  0.1629 -2.3476 -1.1552
13945SOL     OW51764   6.709   5.217   1.527  0.1284  0.0566  0.2998
13945SOL    HW151765   6.733   5.309   1.539  0.6248  0.0134 -0.3051
13945SOL    HW251766   6.620   5.221   1.492  0.7485  0.4014 -1.3492
13946SOL     OW51767   5.711   6.651   5.385  0.2118  0.4758 -0.5230
13946SOL    HW151768   5.745   6.644   5.474 -1.0703  0.8425  0.0124
13946SOL    HW251769   5.693   6.561   5.360 -1.7676  0.5114  0.5618
13947SOL     OW51770  11.829   7.032  12.603  0.0150 -0.5030 -0.1919
13947SOL    HW151771  11.911   7.082  12.610 -0.0745 -0.1509 -1.5073
13947SOL    HW251772  11.835   6.989  12.518 -0.7948 -1.1709  0.0799
13948SOL     OW51773   4.540   4.598   1.779  0.2113 -0.6680 -0.1016
13948SOL    HW151774   4.475   4.662   1.807 -1.0982 -2.2516  0.6802
13948SOL    HW251775   4.592   4.579   1.857  1.1021 -0.0225 -0.5184
13949SOL     OW51776  12.777   3.776   7.538 -0.2498  0.3305 -0.1425
13949SOL    HW151777  12.846   3.816   7.591 -0.1011 -0.3555  0.1928
13949SOL    HW251778  12.718   3.849   7.518 -0.4361  0.5706  1.1741
13950SOL     OW51779   4.411   5.791   2.925 -0.1279  0.0512 -0.5115
13950SOL    HW151780   4.430   5.765   3.015 -1.8698 -1.2736 -0.4659
13950SOL    HW251781   4.339   5.733   2.898  0.9350 -0.2255 -3.0633
13951SOL     OW51782   9.241   2.706  12.206 -0.0150  0.2981  0.0455
13951SOL    HW151783   9.220   2.765  12.278 -0.8409 -0.4623  0.4543
13951SOL    HW251784   9.180   2.730  12.137 -0.0465  0.2131  0.0445
13952SOL     OW51785  10.833   7.455   7.601 -0.7388 -0.0053  0.0326
13952SOL    HW151786  10.869   7.523   7.657 -0.5135 -0.5437  0.5581
13952SOL    HW251787  10.769   7.410   7.656  1.1328 -2.0363  0.6677
13953SOL     OW51788   8.366   2.434  10.712  0.0797 -0.1995  0.1999
13953SOL    HW151789   8.411   2.453  10.629 -2.9719  2.0388 -1.1260
13953SOL    HW251790   8.379   2.513  10.765 -2.2888  0.6063 -0.3080
13954SOL     OW51791  10.345  10.416   9.290  0.3972 -0.0211  0.0313
13954SOL    HW151792  10.351  10.374   9.376  0.9203  0.0006  0.0087
13954SOL    HW251793  10.288  10.492   9.304  2.6425  1.5707  0.9982
13955SOL     OW51794  12.332  12.350   6.966  0.5509 -0.1076  0.5332
13955SOL    HW151795  12.341  12.440   6.935  0.0040 -0.1388  0.2786
13955SOL    HW251796  12.286  12.358   7.050 -1.8173 -0.2953 -0.6615
13956SOL     OW51797   0.159  11.823   1.993  0.0846  0.5629 -0.3452
13956SOL    HW151798   0.203  11.759   1.937  2.2356  0.1488  1.6663
13956SOL    HW251799   0.197  11.907   1.969 -0.0317  0.5747 -0.4846
13957SOL     OW51800   5.792   4.940   4.533 -0.2089 -0.5538 -0.1605
13957SOL    HW151801   5.765   5.023   4.573  0.8018 -1.4932  2.7745
13957SOL    HW251802   5.713   4.886   4.534 -0.7036  0.1015 -1.4633
13958SOL     OW51803   2.893   1.198   2.737 -0.0019  0.4434  0.1269
13958SOL    HW151804   2.982   1.164   2.733  1.5575  4.0629 -0.0884
13958SOL    HW251805   2.875   1.229   2.648 -1.1260  0.5359  0.3740
13959SOL     OW51806   3.770  13.075   9.284 -0.2239 -0.0132 -0.4446
13959SOL    HW151807   3.737  13.110   9.201 -2.3363 -1.0740 -0.1286
13959SOL    HW251808   3.725  13.128   9.351 -1.1765 -1.3414  0.0041
13960SOL     OW51809   2.083  11.636   2.380 -0.1456  0.7579 -0.8381
13960SOL    HW151810   2.090  11.585   2.461 -1.5156 -0.6877 -1.5646
13960SOL    HW251811   2.132  11.716   2.397  2.7080 -1.0613  0.1715
13961SOL     OW51812   2.233   8.153   1.574 -0.4834 -0.3106  1.0378
13961SOL    HW151813   2.250   8.067   1.612  0.0702 -1.1186 -0.9132
13961SOL    HW251814   2.295   8.211   1.619  0.4451 -1.3053  1.0929
13962SOL     OW51815   5.525   3.271   1.639 -0.1285  0.2212 -0.0467
13962SOL    HW151816   5.464   3.340   1.664  0.1342 -0.0040  1.3081
13962SOL    HW251817   5.582   3.311   1.574  0.2530  1.4109  0.9900
13963SOL     OW51818   1.995   6.735   5.182 -0.3669  0.1259 -0.1282
13963SOL    HW151819   2.021   6.791   5.108 -0.4583  0.1940 -0.1088
13963SOL    HW251820   2.056   6.757   5.251 -0.1212 -0.1194 -0.2640
13964SOL     OW51821   4.693   3.903  11.519 -0.8847 -0.1495 -0.0949
13964SOL    HW151822   4.714   3.861  11.602  0.1342 -2.0552 -1.2500
13964SOL    HW251823   4.675   3.994  11.543 -0.3892 -0.5718  2.1692
13965SOL     OW51824   5.929   8.510   8.241  0.2801 -0.0796  0.4623
13965SOL    HW151825   5.905   8.540   8.329 -1.0420 -0.8212  0.3819
13965SOL    HW251826   6.022   8.533   8.232  0.6130 -0.5449  2.2868
13966SOL     OW51827   3.397   6.148   6.019  0.7354 -0.7914 -0.0989
13966SOL    HW151828   3.353   6.074   6.061  2.4679 -2.1684 -0.5981
13966SOL    HW251829   3.485   6.150   6.057  0.5075  1.5690  0.5043
13967SOL     OW51830   9.899  11.711  11.654  0.1645  0.1898  0.2289
13967SOL    HW151831   9.894  11.659  11.734 -0.6595 -1.2339 -0.6955
13967SOL    HW251832   9.992  11.723  11.638  0.3800 -1.2646  0.3190
13968SOL     OW51833   9.921  12.605   8.568  0.1936  0.3198 -0.4883
13968SOL    HW151834   9.924  12.518   8.607 -0.2797  0.7180  0.4722
13968SOL    HW251835  10.004  12.646   8.594 -0.2436  0.6864  0.3839
13969SOL     OW51836   8.944   8.461   7.903  0.3630 -0.0899 -0.3414
13969SOL    HW151837   8.956   8.366   7.897  0.6560 -0.1799  1.3682
13969SOL    HW251838   9.025   8.497   7.866  2.4326 -0.6231  3.1950
13970SOL     OW51839  13.046   4.212   0.039  0.1539 -0.0408 -0.2195
13970SOL    HW151840  13.130   4.257   0.039  0.3067 -0.3184  0.3307
13970SOL    HW251841  12.992   4.262   0.101  0.8178 -1.4823  1.6209
13971SOL     OW51842   2.029  13.270   0.043  0.0551  0.0158  0.2456
13971SOL    HW151843   2.113  13.295   0.004  0.2019  0.1297  0.6233
13971SOL    HW251844   1.984  13.221  -0.025 -0.4092  1.6264 -0.6503
13972SOL     OW51845   5.716   4.364   0.056 -0.3915 -0.3840  0.2215
13972SOL    HW151846   5.633   4.323   0.081 -0.9033  0.4411 -0.1000
13972SOL    HW251847   5.699   4.458   0.062 -0.3664 -0.1243 -2.5890
13973SOL     OW51848   2.649  11.487   7.501 -0.0669  0.3450  0.4914
13973SOL    HW151849   2.634  11.414   7.561 -0.2377 -1.4921 -1.6508
13973SOL    HW251850   2.579  11.550   7.521 -1.8193 -1.4778  0.3539
13974SOL     OW51851   8.018   4.871   2.827 -0.2318  0.1799 -0.1020
13974SOL    HW151852   7.981   4.893   2.742  1.2479  1.6267 -0.4270
13974SOL    HW251853   7.984   4.937   2.887 -1.2706 -0.8321  0.4672
13975SOL     OW51854  11.302  11.298   5.642 -0.3259  0.0636  0.0211
13975SOL    HW151855  11.343  11.212   5.653 -0.9531 -0.3826 -1.0222
13975SOL    HW251856  11.374  11.360   5.652  0.4112 -0.6596 -0.6921
13976SOL     OW51857   1.847   0.561   8.175 -0.1063  0.3195  0.2308
13976SOL    HW151858   1.788   0.636   8.182 -0.3526  0.0019  1.9853
13976SOL    HW251859   1.920   0.582   8.234 -0.4699 -1.0465  1.2228
13977SOL     OW51860  10.320   1.490  13.174 -0.2950 -0.0292  0.0855
13977SOL    HW151861  10.352   1.413  13.222  1.0900  0.5220  0.1040
13977SOL    HW251862  10.315   1.461  13.083  1.2385  0.1170 -0.0763
13978SOL     OW51863  11.876   7.331   6.627  0.7213  0.0469  0.1109
13978SOL    HW151864  11.934   7.381   6.684  1.1443 -2.1283  1.7080
13978SOL    HW251865  11.932   7.303   6.555  0.6980  1.0249 -0.3135
13979SOL     OW51866   0.622   4.109   3.253  0.4723 -0.3881  0.0376
13979SOL    HW151867   0.625   4.034   3.312  2.3821  0.1938  0.7483
13979SOL    HW251868   0.712   4.118   3.221 -0.0943  0.5598 -1.3972
13980SOL     OW51869  12.363   8.108  12.355  0.1440  0.1147  0.4546
13980SOL    HW151870  12.293   8.103  12.290  0.1589  1.9677  0.2571
13980SOL    HW251871  12.319   8.133  12.436  0.4615  0.3545  0.5534
13981SOL     OW51872  10.227  11.023  12.359  0.9280 -0.5142 -0.0000
13981SOL    HW151873  10.272  11.010  12.275  0.8848  0.3301 -0.1570
13981SOL    HW251874  10.202  11.115  12.359  0.0306 -0.7498  0.5087
13982SOL     OW51875   1.195  10.611   5.068  0.5416  0.0714  0.0635
13982SOL    HW151876   1.280  10.567   5.062  0.1877 -0.4643 -1.4579
13982SOL    HW251877   1.167  10.621   4.977 -0.5289  1.2334  0.4977
13983SOL     OW51878   4.296  12.223   8.324 -0.3751 -0.5158  0.5855
13983SOL    HW151879   4.282  12.312   8.357 -3.5619  0.3862 -2.6808
13983SOL    HW251880   4.253  12.167   8.388 -3.1682  0.8415  0.0205
13984SOL     OW51881   8.123   2.425   3.594  0.0821 -0.1466 -0.0391
13984SOL    HW151882   8.198   2.366   3.598  1.0558  1.0176 -0.4390
13984SOL    HW251883   8.125   2.461   3.505 -1.4994 -0.7625 -0.3600
13985SOL     OW51884   9.174   2.245   0.311 -0.2067 -0.2877 -0.1013
13985SOL    HW151885   9.232   2.263   0.385 -1.3858 -1.1080  1.0614
13985SOL    HW251886   9.104   2.310   0.319 -0.2376 -0.2521 -0.6269
13986SOL     OW51887   2.046   8.449   8.281  0.0043 -0.8985  0.2009
13986SOL    HW151888   2.021   8.476   8.369  0.6202 -0.0992  0.1378
13986SOL    HW251889   1.973   8.475   8.226  1.0567  1.8375 -0.0531
13987SOL     OW51890   5.712   7.083  10.592  0.3087  1.0992  0.1846
13987SOL    HW151891   5.625   7.050  10.567 -0.3454  2.7237  0.1762
13987SOL    HW251892   5.695   7.140  10.667  1.3659  1.5705  0.0802
13988SOL     OW51893   0.282   0.746   6.841 -0.0011 -0.6405  0.4108
13988SOL    HW151894   0.204   0.731   6.894 -0.0403 -0.7180  0.3304
13988SOL    HW251895   0.331   0.664   6.845 -1.4309 -1.7239 -2.0797
13989SOL     OW51896   4.615   1.377   7.713 -0.4481  0.5079 -0.1442
13989SOL    HW151897   4.574   1.385   7.627  0.8767 -1.3270 -1.0261
13989SOL    HW251898   4.703   1.344   7.695 -0.0293  0.3438  1.9049
13990SOL     OW51899   9.339   8.266   6.731 -0.1405 -0.1651  0.2454
13990SOL    HW151900   9.326   8.211   6.808 -2.1904  0.1851  0.2032
13990SOL    HW251901   9.382   8.208   6.668 -2.5418 -1.9295  0.0829
13991SOL     OW51902   0.572   4.651   4.981  0.0104  0.1176  0.0340
13991SOL    HW151903   0.519   4.721   5.019  1.6511  1.5255 -0.1464
13991SOL    HW251904   0.644   4.697   4.937  0.8858 -1.6724 -0.4831
13992SOL     OW51905  12.096   3.071   8.652 -0.5612  0.0759  0.0459
13992SOL    HW151906  12.104   3.157   8.693  1.1201  0.4535 -1.0074
13992SOL    HW251907  12.178   3.026   8.671 -0.4905 -0.4363 -1.3098
13993SOL     OW51908   6.851  13.168   8.086  0.1261  0.6260 -0.1407
13993SOL    HW151909   6.831  13.113   8.010 -0.2685 -0.9848  1.0849
13993SOL    HW251910   6.927  13.125   8.127 -0.9568  0.2307  1.5416
13994SOL     OW51911   8.766  10.886   6.459 -0.3212  0.5895  0.1787
13994SOL    HW151912   8.819  10.812   6.429 -0.1177  0.5512  0.6160
13994SOL    HW251913   8.676  10.855   6.454 -0.1496 -0.5007  2.4167
13995SOL     OW51914   8.560   8.155   0.693 -0.2497 -0.3320 -0.0393
13995SOL    HW151915   8.607   8.072   0.686  0.7837  0.2390 -0.1158
13995SOL    HW251916   8.474   8.137   0.655 -0.0623 -1.3764 -0.0083
13996SOL     OW51917   6.543  12.887   9.686  1.4470  0.2637  0.3030
13996SOL    HW151918   6.520  12.820   9.750  1.3300 -1.3196 -1.2899
13996SOL    HW251919   6.635  12.907   9.703  1.1930  0.4873  1.4648
13997SOL     OW51920   0.605   8.672   4.964  0.1709 -0.1685 -0.4235
13997SOL    HW151921   0.622   8.653   5.057 -2.0962  0.7623  0.2435
13997SOL    HW251922   0.558   8.594   4.932  0.4911 -0.2686 -0.6510
13998SOL     OW51923   3.934   6.275   9.324  0.5715  0.4140 -0.9016
13998SOL    HW151924   3.923   6.187   9.360  2.0675  0.9214  0.9956
13998SOL    HW251925   3.909   6.268   9.232 -1.4726 -1.4583 -0.2617
13999SOL     OW51926   5.782   5.399   4.055 -0.3485  0.1429 -0.6653
13999SOL    HW151927   5.849   5.451   4.010 -0.0260  1.6365  1.4141
13999SOL    HW251928   5.832   5.340   4.112 -0.7535  0.9175  0.5254
14000SOL     OW51929   5.427   0.065   0.326  0.1994 -0.6304  0.1002
14000SOL    HW151930   5.428   0.161   0.320  3.4232 -0.4859  0.9024
14000SOL    HW251931   5.409   0.036   0.237 -0.1334  0.7180 -0.3043
14001SOL     OW51932   5.500   4.430   0.951  0.4581  0.1567 -0.1277
14001SOL    HW151933   5.537   4.342   0.946  1.3349  0.3670  1.5969
14001SOL    HW251934   5.566   4.486   0.910 -0.9141 -0.1355 -2.8873
14002SOL     OW51935   1.320  11.990   7.286 -0.0124  0.2200 -0.4158
14002SOL    HW151936   1.410  12.008   7.260 -0.0773  1.4189  0.1533
14002SOL    HW251937   1.317  11.895   7.298  1.1721  0.1734 -0.4249
14003SOL     OW51938  10.009   7.187   5.647  0.0325  1.0789 -0.2800
14003SOL    HW151939  10.061   7.165   5.570  2.0322 -1.8482  1.6979
14003SOL    HW251940   9.920   7.157   5.626  0.2068  1.5776 -1.8688
14004SOL     OW51941  10.083   4.008   0.738 -0.1226  0.4024 -0.2029
14004SOL    HW151942  10.075   3.912   0.738  0.0192  0.3815  0.5274
14004SOL    HW251943  10.175   4.024   0.758  0.4395  0.6903 -2.7066
14005SOL     OW51944  12.215  12.585   1.664  0.3783 -0.7185 -0.0230
14005SOL    HW151945  12.204  12.676   1.636  0.7302 -0.2231  1.3483
14005SOL    HW251946  12.126  12.554   1.682  0.3718 -0.0969  1.0807
14006SOL     OW51947   3.373  11.753  11.700 -0.4980 -0.4457 -0.3270
14006SOL    HW151948   3.355  11.675  11.752 -0.0916 -0.9904 -0.9819
14006SOL    HW251949   3.365  11.825  11.762  1.5989 -1.1764  0.9248
14007SOL     OW51950   2.533  10.967  11.073  0.1165 -0.5393  0.3556
14007SOL    HW151951   2.501  11.025  11.143  0.3697 -0.8067  0.7017
14007SOL    HW251952   2.467  10.898  11.068 -0.0616 -0.3509  0.1121
14008SOL     OW51953   1.393   9.819   2.944  0.4934  0.6578  0.0724
14008SOL    HW151954   1.396   9.913   2.927  1.7956  0.6145 -0.0177
14008SOL    HW251955   1.320   9.788   2.891 -0.5553  1.7498  0.8185
14009SOL     OW51956  12.562  11.781   9.495 -0.5657  0.0008 -0.0091
14009SOL    HW151957  12.615  11.838   9.550 -1.1205  0.3450  0.1856
14009SOL    HW251958  12.623  11.744   9.432  0.1767 -0.7670  1.1227
14010SOL     OW51959   7.203   2.642  10.579  0.3013  0.8175 -0.3325
14010SOL    HW151960   7.238   2.555  10.559  0.9041  1.1269 -0.6435
14010SOL    HW251961   7.156   2.630  10.662 -0.4663 -0.0169 -0.8761
14011SOL     OW51962   1.240  11.628   5.456  0.2651 -1.0372  0.1850
14011SOL    HW151963   1.331  11.623   5.487  0.5255  2.3176  0.3623
14011SOL    HW251964   1.187  11.609   5.534  0.8638 -0.3488  0.7805
14012SOL     OW51965  11.923   3.905   4.166  0.5390 -0.0848 -0.0678
14012SOL    HW151966  11.832   3.878   4.162 -0.1798  2.1084  0.3940
14012SOL    HW251967  11.964   3.842   4.226 -0.6445 -1.1147 -0.3114
14013SOL     OW51968   3.524  12.617   1.587 -0.6115  0.3428 -0.0704
14013SOL    HW151969   3.432  12.626   1.562 -1.2342 -1.8269  1.1802
14013SOL    HW251970   3.525  12.639   1.681 -0.0219 -0.4022  0.1046
14014SOL     OW51971   0.907   3.920   8.817  0.2114 -0.8381  0.1370
14014SOL    HW151972   0.935   3.971   8.892  1.3924 -1.8969  0.4531
14014SOL    HW251973   0.903   3.830   8.849 -2.2910 -0.9614 -0.2679
14015SOL     OW51974   2.645   9.778   5.910 -0.3153 -0.4764  0.0784
14015SOL    HW151975   2.583   9.717   5.951  0.2332 -0.1231  1.4682
14015SOL    HW251976   2.591   9.853   5.884 -0.7147 -0.8136 -0.0746
14016SOL     OW51977   0.770   9.390   7.825 -0.4334  0.3808 -0.4374
14016SOL    HW151978   0.839   9.453   7.844  1.4402 -1.3692 -1.1410
14016SOL    HW251979   0.812   9.305   7.832 -2.3456 -0.7297 -1.6172
14017SOL     OW51980   8.232  11.676   0.318 -0.3528  0.0613  0.2155
14017SOL    HW151981   8.228  11.580   0.325 -1.5836 -0.1117 -1.7990
14017SOL    HW251982   8.305  11.692   0.258 -1.5246  0.1672 -1.2717
14018SOL     OW51983   0.508   1.816   5.869  0.1950 -0.7618 -0.1801
14018SOL    HW151984   0.531   1.724   5.856 -1.2773 -1.4483  1.5133
14018SOL    HW251985   0.481   1.847   5.783 -0.0853 -2.1794 -0.6276
14019SOL     OW51986   8.003   5.846   1.171 -0.0021  0.1117 -0.2461
14019SOL    HW151987   8.005   5.779   1.103 -1.3046  0.4000 -0.6048
14019SOL    HW251988   7.911   5.849   1.199  0.7265 -1.1850  2.7338
14020SOL     OW51989   3.115  11.436  12.185 -1.0463 -0.4470  0.4716
14020SOL    HW151990   3.100  11.527  12.157  0.2490 -0.0940  0.8520
14020SOL    HW251991   3.210  11.429  12.191 -1.1820 -1.1091  2.8139
14021SOL     OW51992   5.659   3.129   9.719 -0.5830 -0.1212  0.5769
14021SOL    HW151993   5.596   3.057   9.710 -0.4384 -0.4092  1.6780
14021SOL    HW251994   5.662   3.146   9.813  1.8192 -0.8949  0.7315
14022SOL     OW51995   3.192  11.494   3.335 -0.3372 -0.1620 -0.5188
14022SOL    HW151996   3.261  11.494   3.402 -2.1400  1.3782  1.5013
14022SOL    HW251997   3.162  11.403   3.332  0.8948 -0.5943 -0.5116
14023SOL     OW51998   0.712  10.172   9.892 -0.6068  0.4258 -0.2556
14023SOL    HW151999   0.803  10.144   9.885 -0.9574 -0.6346 -0.8391
14023SOL    HW252000   0.716  10.267   9.898  0.4908  0.4607 -1.2533
14024SOL     OW52001   7.684   6.397   1.767 -0.1056  0.2683  0.3722
14024SOL    HW152002   7.615   6.454   1.803  1.4391  1.2456  1.9388
14024SOL    HW252003   7.641   6.350   1.696 -2.5828  0.3203  1.7168
14025SOL     OW52004   1.335   9.292  11.409 -0.2637 -0.3684  0.2008
14025SOL    HW152005   1.429   9.277  11.418 -0.4814 -2.3196 -0.3254
14025SOL    HW252006   1.299   9.263  11.493 -0.3382  1.2973  0.7774
14026SOL     OW52007  10.705   4.170   5.006  0.4661 -0.0810 -0.0185
14026SOL    HW152008  10.616   4.146   5.032  0.2863  0.7632  0.1600
14026SOL    HW252009  10.730   4.239   5.067  1.1624 -0.1565 -0.2132
14027SOL     OW52010  10.340   7.738   5.650  0.1544 -0.2445  0.6496
14027SOL    HW152011  10.296   7.711   5.570  0.3299  2.7140 -0.5824
14027SOL    HW252012  10.429   7.759   5.622  0.6713 -0.6035  1.9569
14028SOL     OW52013   1.760   2.046  12.304  0.1923 -0.0382 -0.3295
14028SOL    HW152014   1.781   1.958  12.335  0.5750 -0.4138 -1.5698
14028SOL    HW252015   1.669   2.060  12.332  0.5200 -0.3149  0.9515
14029SOL     OW52016   7.762   7.420   6.934 -0.0106 -0.0490 -0.3901
14029SOL    HW152017   7.671   7.402   6.915  0.1894 -0.4459 -0.9896
14029SOL    HW252018   7.785   7.493   6.875  0.2636 -0.4477 -0.7807
14030SOL     OW52019   8.889  10.490   3.819  0.2990  0.2352 -0.6288
14030SOL    HW152020   8.868  10.490   3.726  0.6004 -1.5360 -0.7344
14030SOL    HW252021   8.820  10.542   3.860 -0.2174  0.4532 -1.7541
14031SOL     OW52022   8.769   1.092   3.148  0.5530  0.3260 -0.1450
14031SOL    HW152023   8.765   1.186   3.130 -0.4269  0.5669  1.1754
14031SOL    HW252024   8.750   1.085   3.241  0.2481 -1.2242 -0.3012
14032SOL     OW52025  11.231   8.774  11.695  0.0835  0.3455 -0.1308
14032SOL    HW152026  11.257   8.846  11.753 -1.6525  0.5432  0.4758
14032SOL    HW252027  11.135   8.779  11.693  0.0481 -0.2532 -2.2803
14033SOL     OW52028   3.125  10.495   0.065 -0.1113  0.8634 -0.1250
14033SOL    HW152029   3.115  10.405   0.033 -1.0351  1.0157 -0.2796
14033SOL    HW252030   3.219  10.502   0.085  0.3881  0.5379 -2.1007
14034SOL     OW52031  10.251   3.123   6.623  0.4041 -0.7673  0.0436
14034SOL    HW152032  10.313   3.078   6.566 -0.3032  1.2884 -2.5379
14034SOL    HW252033  10.299   3.200   6.653 -0.2594 -0.1553 -0.4318
14035SOL     OW52034  11.283   9.240   7.795 -0.5429 -0.2698  0.0986
14035SOL    HW152035  11.371   9.263   7.765 -0.5496 -0.6913 -0.2481
14035SOL    HW252036  11.249   9.321   7.833 -0.8436  0.5255 -1.7521
14036SOL     OW52037   7.710   8.065   2.616 -0.2471 -0.8912  0.2640
14036SOL    HW152038   7.677   8.092   2.530 -0.1030 -0.3267  0.3811
14036SOL    HW252039   7.642   8.009   2.652 -1.0936  0.2502  0.5088
14037SOL     OW52040   0.905   0.434   4.062 -0.1909 -0.2191 -0.3635
14037SOL    HW152041   0.995   0.404   4.059 -0.3412 -0.9579  1.4474
14037SOL    HW252042   0.853   0.357   4.038 -0.3876 -0.0621 -0.4499
14038SOL     OW52043   7.138   8.711   9.642  0.6596 -0.1541 -0.0098
14038SOL    HW152044   7.140   8.619   9.615  3.8020  0.3835 -2.0372
14038SOL    HW252045   7.214   8.721   9.699 -0.2836  1.0210  1.1040
14039SOL     OW52046   1.525  10.839   1.893  0.7770  0.1683 -0.1554
14039SOL    HW152047   1.487  10.752   1.900  0.1408  0.5293  1.2592
14039SOL    HW252048   1.481  10.878   1.817 -0.8550  0.1438  0.7396
14040SOL     OW52049  10.722   0.044  12.778 -0.1557 -0.2653 -0.1554
14040SOL    HW152050  10.715   0.072  12.687 -2.8979  2.5081  0.7576
14040SOL    HW252051  10.654  -0.023  12.788 -0.1369 -0.2668 -0.0372
14041SOL     OW52052  10.262   1.485  10.654  0.1691 -0.0895 -0.5365
14041SOL    HW152053  10.208   1.412  10.683 -0.3039 -0.1438 -1.4861
14041SOL    HW252054  10.211   1.524  10.582 -0.7221  2.6007  1.3908
14042SOL     OW52055   9.807   6.203   2.561  0.1863 -0.5795  0.2969
14042SOL    HW152056   9.736   6.153   2.520 -0.7327  1.6888 -1.0321
14042SOL    HW252057   9.830   6.269   2.496 -0.8432  2.7691  3.0391
14043SOL     OW52058   7.970   0.132   2.856 -0.3468 -0.2662  0.2662
14043SOL    HW152059   7.899   0.151   2.917  1.0032  1.5565  1.3748
14043SOL    HW252060   8.037   0.088   2.908  0.0517 -0.4006 -0.3399
14044SOL     OW52061   3.393   6.553   6.556  0.1717 -0.0020  0.1776
14044SOL    HW152062   3.441   6.565   6.475 -0.3677  2.1561  0.1179
14044SOL    HW252063   3.386   6.641   6.594 -3.2597 -0.2226  0.4054
14045SOL     OW52064   5.002   5.990   1.221 -0.4799  0.3068  0.7137
14045SOL    HW152065   5.044   5.912   1.259  0.9511  1.2985  1.2560
14045SOL    HW252066   4.995   6.051   1.294  0.2195  1.4036 -0.1090
14046SOL     OW52067   7.876   6.127  12.157  0.4313 -0.8378 -0.2006
14046SOL    HW152068   7.926   6.172  12.224 -0.5053 -2.3378  1.6181
14046SOL    HW252069   7.814   6.193  12.125  0.8624 -0.1016  0.4467
14047SOL     OW52070   0.439  11.894   6.755 -0.2924  0.0074  0.0637
14047SOL    HW152071   0.520  11.940   6.778 -0.4860 -0.4276  1.7531
14047SOL    HW252072   0.446  11.877   6.661  1.5723 -0.0418  0.1871
14048SOL     OW52073   0.157   1.362   7.221  0.1712  0.2011  0.1438
14048SOL    HW152074   0.164   1.397   7.310 -0.5446  1.1525 -0.1541
14048SOL    HW252075   0.101   1.285   7.230 -0.6412  0.8075  0.4039
14049SOL     OW52076   7.992  12.974   6.961  0.0157 -0.5900  0.1156
14049SOL    HW152077   8.079  13.014   6.955 -0.5325  1.1505  2.3769
14049SOL    HW252078   7.932  13.043   6.934 -0.7631 -1.2992  0.0101
14050SOL     OW52079   1.473   2.206   1.328  0.8160 -0.3915 -0.7037
14050SOL    HW152080   1.464   2.299   1.305  0.4672 -0.0126  0.8552
14050SOL    HW252081   1.391   2.185   1.374  0.4697 -1.7491 -1.8589
14051SOL     OW52082  12.221   2.708   1.026 -0.1558  0.8721  0.6413
14051SOL    HW152083  12.191   2.799   1.029  1.7692  1.5399  1.9989
14051SOL    HW252084  12.300   2.708   1.080  2.1427 -0.7873 -2.4131
14052SOL     OW52085   0.263  11.783  11.307 -0.3091 -0.3021  0.1011
14052SOL    HW152086   0.237  11.874  11.322  1.9215  0.7472 -1.7349
14052SOL    HW252087   0.336  11.769  11.366 -1.2974 -1.3118  1.1356
14053SOL     OW52088  10.874   9.606   5.974  0.2543 -0.8281  0.1740
14053SOL    HW152089  10.784   9.603   5.943  0.1228  1.3740  0.1971
14053SOL    HW252090  10.926   9.568   5.903 -0.4364  0.3862 -1.0094
14054SOL     OW52091   3.219   5.101   2.572 -0.5755 -0.3430  0.1885
14054SOL    HW152092   3.131   5.112   2.607 -0.8036  1.3467 -0.8268
14054SOL    HW252093   3.275   5.151   2.631 -0.1034 -2.1707  1.3793
14055SOL     OW52094   8.930   6.845   4.917  0.1601  0.1959  0.2843
14055SOL    HW152095   8.942   6.759   4.877 -2.0385 -0.9048  1.7461
14055SOL    HW252096   9.014   6.865   4.958  0.6158 -1.4181  0.1733
14056SOL     OW52097  13.196   8.173   5.815 -0.3999 -0.7968 -0.2317
14056SOL    HW152098  13.286   8.190   5.844 -0.6211 -0.8547  0.4986
14056SOL    HW252099  13.150   8.145   5.894 -1.3017  0.1783 -0.3910
14057SOL     OW52100  12.545  12.464   5.868 -0.4083 -0.4280  0.0615
14057SOL    HW152101  12.638  12.466   5.889 -0.0008  3.0377 -1.3179
14057SOL    HW252102  12.506  12.531   5.925 -2.0649 -1.7259  0.5293
14058SOL     OW52103   7.995   5.397   9.571  0.4428  0.3438  0.1217
14058SOL    HW152104   8.012   5.406   9.478  2.2162 -2.6783  0.0198
14058SOL    HW252105   7.978   5.303   9.584  1.8542  0.3477  2.9925
14059SOL     OW52106  12.216   5.802   6.340  0.0301  0.2737  0.5609
14059SOL    HW152107  12.136   5.845   6.310 -0.1495 -0.7158 -0.4167
14059SOL    HW252108  12.211   5.808   6.435 -0.6077  1.2854  0.4858
14060SOL     OW52109   1.589   3.964   9.744 -0.0652  0.7134  0.3010
14060SOL    HW152110   1.578   3.962   9.839  1.2133  0.2645  0.4541
14060SOL    HW252111   1.510   4.008   9.712 -1.6177 -1.0945  1.4001
14061SOL     OW52112   7.552   7.326   0.464  0.0448  0.8463 -0.1096
14061SOL    HW152113   7.550   7.343   0.558  0.0547  0.8005 -0.1008
14061SOL    HW252114   7.607   7.248   0.455 -0.5080  0.4510 -0.0937
14062SOL     OW52115   0.876   2.798   4.456 -0.2491 -0.3123 -0.1555
14062SOL    HW152116   0.805   2.734   4.451 -0.8997  0.4097 -0.4178
14062SOL    HW252117   0.890   2.812   4.549 -2.0610  1.2448 -0.0599
14063SOL     OW52118   4.563   3.391  10.343  0.7328  0.4872  0.3552
14063SOL    HW152119   4.469   3.377  10.334  1.0511 -0.5377 -2.2782
14063SOL    HW252120   4.598   3.305  10.369  1.1031  0.3700 -0.4891
14064SOL     OW52121  13.035   3.441   1.769  0.2239  0.5340  0.4310
14064SOL    HW152122  12.955   3.459   1.719 -0.2901 -0.4974  0.8581
14064SOL    HW252123  13.049   3.520   1.821  1.2378  2.0132 -1.8768
14065SOL     OW52124   4.602  12.204   4.532  0.2363  0.0777  0.3373
14065SOL    HW152125   4.571  12.115   4.520  0.7600 -0.0201 -0.3492
14065SOL    HW252126   4.572  12.250   4.454  1.4089  0.0915 -0.1143
14066SOL     OW52127   4.226   4.827   9.805  0.2640  0.0106  0.3127
14066SOL    HW152128   4.286   4.901   9.815  0.5200 -0.2590  0.8380
14066SOL    HW252129   4.248   4.790   9.719  1.1002 -0.2939  0.6426
14067SOL     OW52130   3.266   3.384   0.481 -0.0727  0.3089  0.1220
14067SOL    HW152131   3.285   3.443   0.408 -1.2318 -0.8566 -1.1738
14067SOL    HW252132   3.181   3.412   0.515 -0.0526  0.1550  0.3081
14068SOL     OW52133   0.705   7.497   4.012  0.3491  0.2480  0.3623
14068SOL    HW152134   0.799   7.513   4.008  0.3753 -0.1665 -2.2050
14068SOL    HW252135   0.695   7.420   4.068  1.8158 -1.3233 -1.4281
14069SOL     OW52136   0.559   5.181   7.662 -0.3145 -0.2577  0.0619
14069SOL    HW152137   0.600   5.158   7.746 -1.4033 -0.0431  0.6718
14069SOL    HW252138   0.479   5.129   7.660  0.3278 -1.2399 -1.4608
14070SOL     OW52139   5.300   4.210   0.302  0.5460  0.0850 -0.4720
14070SOL    HW152140   5.308   4.121   0.335  1.4135 -0.0130 -0.9487
14070SOL    HW252141   5.242   4.253   0.366  0.5104 -0.6793  0.0239
14071SOL     OW52142   4.400   9.363   6.579 -0.0140  0.2577  0.1691
14071SOL    HW152143   4.318   9.313   6.580  0.8223 -1.2830 -1.7554
14071SOL    HW252144   4.403   9.406   6.665 -0.8968 -2.8490  1.9004
14072SOL     OW52145   7.184   0.360   4.217  0.3726  0.6198 -0.1934
14072SOL    HW152146   7.109   0.306   4.193 -0.2546  2.1201 -1.8255
14072SOL    HW252147   7.161   0.447   4.187  2.8051  1.1199 -0.8035
14073SOL     OW52148   5.610   7.544  10.794  0.2321  0.4862  0.4849
14073SOL    HW152149   5.525   7.574  10.824 -0.1305 -1.5866  1.7301
14073SOL    HW252150   5.672   7.609  10.826 -0.4533 -0.1626  3.3593
14074SOL     OW52151   6.428   6.823  10.160 -0.5914  0.5202  0.8530
14074SOL    HW152152   6.469   6.736  10.155 -0.8096  0.4808 -0.9898
14074SOL    HW252153   6.488   6.880  10.112 -0.5634  1.3717  1.8669
14075SOL     OW52154   7.421   6.977   7.962  0.2628  0.2110 -0.5279
14075SOL    HW152155   7.381   6.925   7.891  1.1867  0.4330 -1.2197
14075SOL    HW252156   7.489   6.920   7.997 -0.6578 -0.1894  0.7010
14076SOL     OW52157   6.931  10.337   4.859 -0.2188 -0.4949 -0.1374
14076SOL    HW152158   7.016  10.372   4.829  0.6023  0.2625  2.7789
14076SOL    HW252159   6.866  10.388   4.811  0.9640  0.1147 -1.1579
14077SOL     OW52160  10.721   0.481  11.522 -0.3663 -0.3296  1.0750
14077SOL    HW152161  10.735   0.575  11.533 -1.4550 -0.0732  0.4718
14077SOL    HW252162  10.781   0.455  11.452 -2.7448  0.7657 -1.5863
14078SOL     OW52163   3.135   1.844  11.432  0.4638 -0.2428  0.2380
14078SOL    HW152164   3.097   1.918  11.480 -0.6012 -0.3571 -0.4072
14078SOL    HW252165   3.109   1.858  11.341  0.3508 -1.3385  0.0827
14079SOL     OW52166   0.877   4.502   9.003  0.1251  0.0202  0.8628
14079SOL    HW152167   0.841   4.590   8.989  0.1946  0.1858  1.6862
14079SOL    HW252168   0.874   4.462   8.916 -0.0207  0.7905  0.4958
14080SOL     OW52169   7.812  10.842   2.780 -0.8328  0.5204 -0.9898
14080SOL    HW152170   7.835  10.896   2.855  2.1919 -1.1879 -0.5114
14080SOL    HW252171   7.806  10.753   2.816 -0.3521 -0.1823 -2.5557
14081SOL     OW52172   2.147   3.040   9.671 -0.6589  0.1124  0.1296
14081SOL    HW152173   2.230   3.003   9.701  0.1226 -0.1340 -2.1444
14081SOL    HW252174   2.148   3.130   9.703 -0.1364 -0.2636  1.2271
14082SOL     OW52175   8.787  13.033  12.180 -0.0852 -0.6706 -0.1711
14082SOL    HW152176   8.746  12.994  12.103  2.7811 -1.8006 -1.2617
14082SOL    HW252177   8.881  13.021  12.166  0.8984  3.7317  1.0149
14083SOL     OW52178   5.363  12.972   3.329 -0.6904  0.5605  0.5197
14083SOL    HW152179   5.380  12.915   3.254 -2.0552 -0.9213  1.2691
14083SOL    HW252180   5.344  13.057   3.291  2.9395  1.0606 -0.5803
14084SOL     OW52181   8.844   0.708  12.806 -0.2656 -0.2976  0.1994
14084SOL    HW152182   8.764   0.712  12.859 -0.7204  1.1104 -0.5655
14084SOL    HW252183   8.819   0.658  12.729  0.1923 -1.6775  0.9042
14085SOL     OW52184   3.725   9.644   4.393  0.2201 -0.6862  0.4003
14085SOL    HW152185   3.760   9.573   4.446  1.4109  0.4182  1.1573
14085SOL    HW252186   3.700   9.712   4.456  0.6476  0.2155 -0.3741
14086SOL     OW52187   1.347   7.935  11.165  0.8675 -0.0922 -0.1286
14086SOL    HW152188   1.271   7.922  11.223 -0.8050 -0.8094 -2.3389
14086SOL    HW252189   1.391   7.850  11.165  1.5921  0.2661  1.0025
14087SOL     OW52190   2.620  10.921   8.631  0.0344  0.5497 -0.0532
14087SOL    HW152191   2.623  10.880   8.717  0.4281 -1.2592 -0.8733
14087SOL    HW252192   2.528  10.917   8.605 -0.2019  1.7023  0.5137
14088SOL     OW52193   5.222   6.753   0.940  0.4326  0.4103 -0.1983
14088SOL    HW152194   5.126   6.752   0.946  0.4842  0.0242  0.6936
14088SOL    HW252195   5.240   6.782   0.850 -0.5391 -0.8746 -0.8475
14089SOL     OW52196   8.152   0.339   3.215  0.0826 -0.8576 -0.0032
14089SOL    HW152197   8.225   0.289   3.251 -0.6756 -0.5336  2.1425
14089SOL    HW252198   8.184   0.429   3.210 -0.0646 -0.7626  0.6802
14090SOL     OW52199   9.387  10.428   5.856  0.2108  0.1114  0.5697
14090SOL    HW152200   9.322  10.456   5.920 -1.0132 -0.8879 -0.1873
14090SOL    HW252201   9.450  10.500   5.852 -1.2951  1.4994  0.7124
14091SOL     OW52202  11.677   8.224   3.971  0.4088  0.3620 -0.2241
14091SOL    HW152203  11.607   8.289   3.967  0.4853  0.3821 -1.9052
14091SOL    HW252204  11.670   8.186   4.059 -1.1804  0.9315 -0.0820
14092SOL     OW52205   0.375   7.356   6.565  0.0874 -0.1146 -0.1169
14092SOL    HW152206   0.388   7.419   6.636  0.3424 -0.0451 -0.2234
14092SOL    HW252207   0.402   7.272   6.602 -0.0640 -0.1297 -0.0385
14093SOL     OW52208   6.954   8.360   2.429  0.0085  0.4088  0.7341
14093SOL    HW152209   7.017   8.388   2.496 -0.5410  0.6073  1.1805
14093SOL    HW252210   6.895   8.434   2.420 -0.6950 -0.1079  0.9810
14094SOL     OW52211   1.038   6.349  12.066 -0.4415 -0.0096  0.2853
14094SOL    HW152212   1.021   6.320  12.156  0.9602 -1.0205  0.2584
14094SOL    HW252213   1.041   6.268  12.015  3.6950 -0.0153  0.2196
14095SOL     OW52214   3.809   2.820   1.762 -0.0950  0.5411 -0.3548
14095SOL    HW152215   3.728   2.863   1.788 -1.3109 -1.4981 -0.5686
14095SOL    HW252216   3.861   2.816   1.843 -0.8153  0.5952  0.1205
14096SOL     OW52217   2.958   9.364   5.906  0.0896 -0.6129 -0.2777
14096SOL    HW152218   2.986   9.287   5.957 -0.7741 -0.2088  0.8461
14096SOL    HW252219   2.863   9.354   5.899 -0.0618  0.4736  0.1027
14097SOL     OW52220   4.445   2.290   5.379  0.3903 -0.0803  0.4357
14097SOL    HW152221   4.382   2.314   5.447  0.2459  0.0607  0.2510
14097SOL    HW252222   4.445   2.194   5.380  1.0363 -0.0859  1.2340
14098SOL     OW52223   4.287   1.667   1.085  0.5307  0.6553  0.6443
14098SOL    HW152224   4.306   1.622   1.167 -0.1496  1.7990  1.4562
14098SOL    HW252225   4.254   1.598   1.027  3.0701 -0.6022  0.5454
14099SOL     OW52226  11.773   2.410  11.845 -0.2537  0.3457  0.2231
14099SOL    HW152227  11.740   2.345  11.908 -0.3981  0.5076  0.3171
14099SOL    HW252228  11.728   2.491  11.870 -2.1323 -0.0625 -1.5370
14100SOL     OW52229   2.700  13.100   8.005  0.1693 -0.1998 -0.3013
14100SOL    HW152230   2.614  13.142   8.008  0.7359  0.9565  1.2636
14100SOL    HW252231   2.689  13.021   8.058  0.3687  0.6410  1.0542
14101SOL     OW52232   4.421   0.636   9.002  0.4424 -0.4444 -0.2902
14101SOL    HW152233   4.472   0.701   9.050  1.1597 -0.9999 -0.2985
14101SOL    HW252234   4.452   0.643   8.911 -0.4991  0.1965 -0.5877
14102SOL     OW52235   7.399   4.839   2.627  0.5793 -0.0312  0.1352
14102SOL    HW152236   7.359   4.761   2.590 -1.2726  1.2562 -0.7049
14102SOL    HW252237   7.475   4.806   2.676 -0.8873 -2.4710  0.9176
14103SOL     OW52238  11.518   7.230   8.383 -0.4794 -0.6841 -0.0764
14103SOL    HW152239  11.491   7.224   8.292 -2.5879 -0.3317  0.4650
14103SOL    HW252240  11.436   7.244   8.432  0.8067  2.0896  1.5842
14104SOL     OW52241  10.388   7.790   2.440 -0.2307 -0.0607 -0.3376
14104SOL    HW152242  10.437   7.742   2.374 -0.0327 -1.4677  0.7871
14104SOL    HW252243  10.454   7.821   2.501 -0.5148  0.2557 -0.1920
14105SOL     OW52244   6.294   5.034   3.066 -0.0919 -0.1117  0.6732
14105SOL    HW152245   6.340   5.111   3.032  0.0852  0.0695  1.3158
14105SOL    HW252246   6.358   4.991   3.122  0.0404 -1.1169 -0.2178
14106SOL     OW52247   0.522   8.516   1.847  0.3731 -0.6803 -0.0003
14106SOL    HW152248   0.557   8.588   1.795  2.8611 -0.3756  1.8941
14106SOL    HW252249   0.436   8.546   1.875  0.2778  0.4160 -1.3836
14107SOL     OW52250  13.123   0.894   5.661  0.2662  0.3859  0.0095
14107SOL    HW152251  13.050   0.899   5.722 -0.2292 -0.9746 -0.4314
14107SOL    HW252252  13.104   0.961   5.596  1.3115  2.5468  1.8093
14108SOL     OW52253   9.770   5.944   3.056 -0.5329 -0.3548 -0.8946
14108SOL    HW152254   9.680   5.976   3.065 -0.6144 -0.8968  0.4558
14108SOL    HW252255   9.825   6.021   3.076 -0.7294 -0.6419  1.0167
14109SOL     OW52256   1.928   2.849   0.451 -0.8167  0.1481 -0.2977
14109SOL    HW152257   1.950   2.756   0.445 -0.1257  0.2484  0.5998
14109SOL    HW252258   1.832   2.850   0.456 -0.7621 -0.6874  2.2861
14110SOL     OW52259   4.813  10.762   2.358 -0.3067  0.5291 -0.3196
14110SOL    HW152260   4.887  10.824   2.363  0.0389  0.1061 -0.1357
14110SOL    HW252261   4.812  10.720   2.444 -0.9971  0.7964 -0.1934
14111SOL     OW52262   3.614  10.439   4.029 -0.5090  0.5424  0.4515
14111SOL    HW152263   3.565  10.377   4.083  0.6697 -1.0115 -0.1763
14111SOL    HW252264   3.585  10.420   3.940  0.9886 -0.2486  0.0926
14112SOL     OW52265   6.200   8.073  11.636 -0.4680  0.0967 -0.1632
14112SOL    HW152266   6.251   8.096  11.558 -0.2913  1.6140  0.3713
14112SOL    HW252267   6.128   8.136  11.636 -0.5787 -0.0220  0.7871
14113SOL     OW52268   2.718   4.053   0.558 -0.4976 -0.1577  0.7658
14113SOL    HW152269   2.762   4.029   0.640 -0.3458  0.9638  1.0230
14113SOL    HW252270   2.676   4.137   0.576 -1.1806 -0.3059 -0.0548
14114SOL     OW52271   7.839  12.814  10.816 -0.4536  0.3785 -0.2258
14114SOL    HW152272   7.835  12.781  10.905  1.1269 -2.8149 -1.1614
14114SOL    HW252273   7.933  12.819  10.796 -0.7405  2.0312 -1.4020
14115SOL     OW52274  11.228   2.496   8.134  0.2698  0.2001  0.3678
14115SOL    HW152275  11.196   2.425   8.190 -1.6623  1.1572  0.5577
14115SOL    HW252276  11.154   2.516   8.076  0.5830  2.3244  0.6206
14116SOL     OW52277   8.221  12.238   8.091  0.3421  0.3419  0.1304
14116SOL    HW152278   8.135  12.272   8.116 -0.7095 -0.7413 -1.7839
14116SOL    HW252279   8.231  12.157   8.142  0.0098  0.2235  0.0101
14117SOL     OW52280   8.225   6.897   4.016 -0.5138 -0.5132 -0.3648
14117SOL    HW152281   8.294   6.936   4.070 -0.8692 -1.6131  0.9312
14117SOL    HW252282   8.267   6.877   3.933  1.2195 -2.6583  0.9243
14118SOL     OW52283  10.231   8.243   8.146 -0.2870  0.0493  0.3259
14118SOL    HW152284  10.318   8.253   8.108 -1.0719 -0.9001 -1.8428
14118SOL    HW252285  10.182   8.319   8.115 -0.3012  0.4869  1.3893
14119SOL     OW52286   4.964   2.836  12.667  0.2996  0.4091  0.5333
14119SOL    HW152287   4.919   2.761  12.705  0.0255  0.0073 -0.5304
14119SOL    HW252288   4.906   2.910  12.683  0.0920  0.2109  0.7031
14120SOL     OW52289  12.754   9.281  10.905  0.0246  0.0029  0.7757
14120SOL    HW152290  12.811   9.352  10.935  2.6140 -1.4934 -0.3246
14120SOL    HW252291  12.745   9.295  10.811 -0.4610 -0.4615  0.7482
14121SOL     OW52292   2.294   3.848   2.053 -0.2967 -0.2297 -0.4312
14121SOL    HW152293   2.224   3.893   2.100 -1.9122 -3.1420  0.1748
14121SOL    HW252294   2.272   3.861   1.960  0.3317  1.6696 -0.3619
14122SOL     OW52295  12.500   4.199   6.600  0.2201  0.2026 -0.0949
14122SOL    HW152296  12.595   4.187   6.591 -0.0576 -2.6387 -0.1738
14122SOL    HW252297  12.488   4.238   6.686  1.4255 -0.2357  0.2870
14123SOL     OW52298  11.853  10.111  12.184 -0.2187 -0.0703 -0.3836
14123SOL    HW152299  11.784  10.048  12.205  0.6626 -0.7291  0.6477
14123SOL    HW252300  11.839  10.184  12.244  0.2940 -0.4538  0.2150
14124SOL     OW52301   0.408   4.169   5.008 -0.0950  0.3698 -0.2585
14124SOL    HW152302   0.474   4.106   4.977 -0.6033  0.1411 -0.9095
14124SOL    HW252303   0.459   4.240   5.046  0.4934 -0.7710  1.2113
14125SOL     OW52304   2.707   1.430   3.669 -0.0831  0.2750  0.1306
14125SOL    HW152305   2.677   1.382   3.592 -0.0645  0.7266 -0.1650
14125SOL    HW252306   2.749   1.508   3.633  1.9558 -0.5993  0.4997
14126SOL     OW52307   7.074  11.821  10.856  0.4005 -0.1446  0.1429
14126SOL    HW152308   7.115  11.884  10.798 -1.3082  0.9894  0.0909
14126SOL    HW252309   7.044  11.751  10.798  1.1283 -0.3724  0.0333
14127SOL     OW52310   2.082  12.613   5.316  0.9009  0.3343 -0.3236
14127SOL    HW152311   2.156  12.555   5.337  0.7622 -0.6285 -2.2674
14127SOL    HW252312   2.102  12.694   5.362  0.4742 -1.5645  3.5877
14128SOL     OW52313   2.467   7.442   4.181 -0.1195 -0.3005  0.0528
14128SOL    HW152314   2.413   7.372   4.218 -0.3898  0.3620  0.9352
14128SOL    HW252315   2.554   7.427   4.218 -0.2123 -0.0877  0.3607
14129SOL     OW52316   6.224  10.169   1.163  0.1194 -0.7227  0.0785
14129SOL    HW152317   6.169  10.094   1.139  0.3765 -0.5692 -1.0262
14129SOL    HW252318   6.175  10.246   1.133  0.6552 -0.5491 -0.3663
14130SOL     OW52319   7.555   8.364   3.579  0.2283 -0.8577  0.5519
14130SOL    HW152320   7.472   8.318   3.562  1.3005 -2.2482 -1.2629
14130SOL    HW252321   7.548   8.446   3.530 -0.6438 -0.2147  1.6805
14131SOL     OW52322   4.638  10.520   6.294  0.4265  0.0240 -0.2142
14131SOL    HW152323   4.574  10.453   6.316  0.9234 -0.0184  1.1898
14131SOL    HW252324   4.719  10.492   6.337  1.6047 -0.2376 -2.4105
14132SOL     OW52325   1.524   2.604   4.957  0.3954  0.7790  0.2512
14132SOL    HW152326   1.507   2.593   5.050 -0.5039  0.0720  0.0093
14132SOL    HW252327   1.566   2.522   4.930 -1.3202  0.0763 -0.4005
14133SOL     OW52328   8.651   2.320   2.494 -0.0939  0.7933 -0.1500
14133SOL    HW152329   8.739   2.324   2.455 -0.3387 -0.6773 -0.9209
14133SOL    HW252330   8.605   2.395   2.456  0.6284  1.1997 -0.2449
14134SOL     OW52331   4.030   0.005   1.034  0.1200 -0.1869  0.0525
14134SOL    HW152332   4.013  -0.066   1.096  1.3110 -0.2745  0.2979
14134SOL    HW252333   4.104   0.053   1.071 -1.9230  2.5146  1.0134
14135SOL     OW52334   4.529   9.149   1.153  0.0338  0.6828  0.5745
14135SOL    HW152335   4.567   9.189   1.074  0.4191  0.0192  0.4109
14135SOL    HW252336   4.602   9.100   1.192 -0.5180 -0.1933  0.5377
14136SOL     OW52337   4.610  12.784   0.258 -0.0932  0.2062  0.8680
14136SOL    HW152338   4.562  12.747   0.184  0.5542 -2.2518  1.5881
14136SOL    HW252339   4.547  12.785   0.330 -0.0672  0.3978  0.8894
14137SOL     OW52340   9.558   0.580  12.293 -0.2407 -0.3650  0.2518
14137SOL    HW152341   9.600   0.649  12.344 -1.0701  0.0474  0.3788
14137SOL    HW252342   9.543   0.618  12.207 -1.1971 -0.1957  0.4864
14138SOL     OW52343   2.089   9.994  10.316  0.2331 -0.0294 -0.6824
14138SOL    HW152344   2.101   9.976  10.409 -0.4438  1.7269 -0.2238
14138SOL    HW252345   2.179   9.998  10.282  0.4745 -3.4292 -0.7493
14139SOL     OW52346   8.336   4.221   2.664  0.2193  0.0640  0.0883
14139SOL    HW152347   8.375   4.202   2.579  0.6605  0.5134  0.1884
14139SOL    HW252348   8.409   4.251   2.718  0.5214 -2.9278  1.5119
14140SOL     OW52349   0.292   1.992  11.995 -0.5284 -0.0937  0.2142
14140SOL    HW152350   0.213   1.940  12.011 -0.3543 -0.0551  1.2936
14140SOL    HW252351   0.361   1.927  11.982 -0.5305 -0.1341  0.3988
14141SOL     OW52352   0.678   6.168  13.214  0.3292 -0.1491  0.1216
14141SOL    HW152353   0.706   6.242  13.267 -2.1017 -0.4627  1.9857
14141SOL    HW252354   0.616   6.206  13.152  0.4683 -0.3700 -0.1580
14142SOL     OW52355  10.973   0.340   9.412  0.3997  0.2858 -0.6556
14142SOL    HW152356  11.025   0.295   9.345  3.1228  3.0966 -0.6407
14142SOL    HW252357  11.034   0.399   9.455 -2.5102  2.7610  0.4605
14143SOL     OW52358   7.314   4.903   1.441  0.2171 -0.0966 -0.1515
14143SOL    HW152359   7.284   4.956   1.367  0.5893 -1.1779 -1.1008
14143SOL    HW252360   7.253   4.829   1.442  1.7069 -1.3723 -0.9539
14144SOL     OW52361   8.091   6.529   8.190  0.0982 -0.0250 -0.0816
14144SOL    HW152362   8.112   6.475   8.113  0.6745  0.9258 -0.6175
14144SOL    HW252363   7.997   6.522   8.200  0.1424 -0.9516 -0.2796
14145SOL     OW52364   0.372   2.580   2.759  0.1484 -0.0044  0.3674
14145SOL    HW152365   0.327   2.587   2.844 -0.9569 -2.2510  0.0369
14145SOL    HW252366   0.398   2.670   2.739 -2.8345  1.2043  1.3373
14146SOL     OW52367   8.287  12.849   9.659  0.5124 -0.3439  0.2051
14146SOL    HW152368   8.342  12.926   9.643 -0.6112  0.2383 -1.0108
14146SOL    HW252369   8.340  12.776   9.626  1.1565  0.0233  0.3998
14147SOL     OW52370   7.200  11.439  10.194 -0.4652  0.1383  0.4652
14147SOL    HW152371   7.223  11.346  10.198 -1.1126 -0.0490 -0.0842
14147SOL    HW252372   7.219  11.472  10.282  0.4387 -0.3506  0.4671
14148SOL     OW52373  11.813   6.800  10.262  0.5073  0.3380 -0.2048
14148SOL    HW152374  11.768   6.843  10.189  1.2565  1.3909 -0.0646
14148SOL    HW252375  11.906   6.814  10.245  0.6835  1.0626  1.2187
14149SOL     OW52376  11.240   0.726  12.062  0.0244 -0.5834  0.0486
14149SOL    HW152377  11.270   0.638  12.084  0.1814 -0.7398 -0.7596
14149SOL    HW252378  11.320   0.779  12.062  0.0935 -0.6837 -0.6034
14150SOL     OW52379   5.063   1.032   6.217 -0.0037  0.2254 -0.0883
14150SOL    HW152380   5.097   1.000   6.134 -0.9668 -2.0040  0.2903
14150SOL    HW252381   5.000   1.099   6.193 -2.0138 -1.9702 -1.4238
14151SOL     OW52382   2.947   6.523  13.068 -0.5314 -0.3926  0.0461
14151SOL    HW152383   3.032   6.486  13.092  1.2370  2.8722 -0.6411
14151SOL    HW252384   2.914   6.563  13.149 -1.4957 -1.6648  0.3169
14152SOL     OW52385   0.640   2.056   7.135 -0.3452 -0.0028  0.2839
14152SOL    HW152386   0.698   1.983   7.160 -0.8786 -0.2922  0.7038
14152SOL    HW252387   0.576   2.016   7.077 -1.9225 -0.3740  2.1652
14153SOL     OW52388   6.684   4.395   2.212 -0.0695 -0.1238 -0.5435
14153SOL    HW152389   6.674   4.472   2.157 -2.2667  0.3240  0.3934
14153SOL    HW252390   6.725   4.330   2.155 -0.9809  0.7689 -2.2885
14154SOL     OW52391  10.992   9.210   4.719  0.0057 -0.4902  0.2192
14154SOL    HW152392  11.017   9.230   4.629 -0.8694  1.0562  0.2651
14154SOL    HW252393  11.073   9.182   4.761  0.8957  0.7923 -0.5435
14155SOL     OW52394   1.336   9.892   9.551 -0.0446 -0.1136  1.1035
14155SOL    HW152395   1.268   9.863   9.490  0.0713 -0.8204  1.3030
14155SOL    HW252396   1.311   9.982   9.573  0.9797  0.8973 -1.4701
14156SOL     OW52397   8.760   4.262   2.933  1.0008 -0.0999  0.2192
14156SOL    HW152398   8.668   4.239   2.948  0.9206  0.1988  0.2104
14156SOL    HW252399   8.769   4.348   2.975  1.0757  0.2231 -0.4508
14157SOL     OW52400   3.044   8.745   9.799  0.0375 -0.3620 -0.3788
14157SOL    HW152401   3.009   8.763   9.886 -0.5305  0.2207 -0.7129
14157SOL    HW252402   3.116   8.684   9.813  1.0184  0.9826  0.6549
14158SOL     OW52403   6.945   7.687   7.373  0.3791  0.1824  0.6147
14158SOL    HW152404   6.859   7.726   7.388  0.5570  0.6715  0.3647
14158SOL    HW252405   6.944   7.607   7.426 -0.7430 -0.5513 -0.4544
14159SOL     OW52406  13.248  11.941   2.347 -0.7980 -0.0287  0.1161
14159SOL    HW152407  13.257  11.865   2.405 -2.5692  0.2583  0.8283
14159SOL    HW252408  13.314  12.003   2.379  1.0587 -1.4234 -0.8342
14160SOL     OW52409  12.221  10.115   0.441  0.1128 -0.1155  0.5412
14160SOL    HW152410  12.269  10.181   0.391  0.3858  0.6708  1.7735
14160SOL    HW252411  12.170  10.068   0.377 -1.7079  2.6371 -0.1999
14161SOL     OW52412  11.029   7.219  12.734  0.0146 -0.0570 -0.3441
14161SOL    HW152413  11.078   7.283  12.786 -0.5756  0.8450 -0.8576
14161SOL    HW252414  10.981   7.273  12.671 -0.3406 -1.0371 -0.9226
14162SOL     OW52415   8.407   9.893   1.389  0.3470  0.5379 -0.0615
14162SOL    HW152416   8.395   9.801   1.415  0.1933 -0.0406 -2.0387
14162SOL    HW252417   8.427   9.938   1.471  2.2157 -1.5603  0.7289
14163SOL     OW52418   7.092  11.428   9.854 -0.1887  0.3160  0.0349
14163SOL    HW152419   7.138  11.511   9.859  0.6100 -0.0345 -1.1029
14163SOL    HW252420   7.000  11.452   9.841  0.2791  1.0595 -2.2351
14164SOL     OW52421  13.238   9.369   8.231  0.1375  0.0139 -0.7197
14164SOL    HW152422  13.312   9.386   8.289 -0.2785 -0.7480  0.0656
14164SOL    HW252423  13.172   9.331   8.288 -0.1746 -1.0632 -1.7667
14165SOL     OW52424  13.202  11.348   4.361  0.6307 -0.1908 -0.7897
14165SOL    HW152425  13.202  11.326   4.268 -0.2044  0.3267 -0.9239
14165SOL    HW252426  13.247  11.432   4.367  0.2436  0.0233 -0.8024
14166SOL     OW52427   5.895  10.638  10.868 -0.3315  0.0965 -0.3799
14166SOL    HW152428   5.865  10.578  10.936  1.6986  0.2559  0.7385
14166SOL    HW252429   5.904  10.582  10.790 -0.3138 -0.6402  0.1353
14167SOL     OW52430   3.299   5.513  10.937  0.5390  0.1723  0.0198
14167SOL    HW152431   3.390   5.520  10.966  1.0615 -0.3024 -1.3764
14167SOL    HW252432   3.250   5.572  10.994  1.9390  1.4429 -0.0355
14168SOL     OW52433   3.776   9.142   3.090 -0.3967 -0.1970 -0.0986
14168SOL    HW152434   3.822   9.059   3.081 -0.4488 -0.1685 -0.6943
14168SOL    HW252435   3.809   9.180   3.172 -0.6670 -0.9806  0.3784
14169SOL     OW52436   3.267   0.299   7.442  0.3575  0.2115  0.2635
14169SOL    HW152437   3.222   0.226   7.485  2.5264  0.0461  2.4293
14169SOL    HW252438   3.307   0.260   7.364  2.4486 -1.3066  1.9787
14170SOL     OW52439   1.467   7.136   5.459  0.0116 -0.4016  0.5398
14170SOL    HW152440   1.430   7.194   5.526  0.4427  0.5042  0.0199
14170SOL    HW252441   1.394   7.117   5.400 -0.4067 -1.3268  1.3342
14171SOL     OW52442  10.919   6.678   0.274  0.9288 -0.0463  0.2112
14171SOL    HW152443  10.940   6.597   0.320 -0.1676 -0.6384 -0.3062
14171SOL    HW252444  10.830   6.698   0.301  1.5778  1.6625  1.2706
14172SOL     OW52445  11.482   2.367   3.050 -0.2323 -0.6762  0.2284
14172SOL    HW152446  11.434   2.450   3.056  0.5704 -0.2265  0.4697
14172SOL    HW252447  11.447   2.326   2.970  0.0201  0.3098 -0.4149
14173SOL     OW52448   5.332  12.057  12.271  0.1395 -0.1619  0.1366
14173SOL    HW152449   5.342  12.004  12.191  0.7625 -0.0602  0.1428
14173SOL    HW252450   5.237  12.066  12.281  0.0512  0.3225 -0.9227
14174SOL     OW52451   0.101  11.481  12.482  0.3981 -0.0681 -0.1554
14174SOL    HW152452   0.045  11.404  12.476  0.8728 -0.4919  0.6950
14174SOL    HW252453   0.141  11.475  12.568  1.4045  0.4711 -0.5712
14175SOL     OW52454   7.735   8.151  11.385 -0.2418  0.5589 -0.6066
14175SOL    HW152455   7.687   8.135  11.304 -1.3225 -1.3302  0.3389
14175SOL    HW252456   7.697   8.090  11.448  1.8302  0.6322  0.8276
14176SOL     OW52457   9.258   5.060   2.204  0.1101 -0.1435  0.9129
14176SOL    HW152458   9.177   5.110   2.193 -0.0795 -0.5106  0.6230
14176SOL    HW252459   9.271   5.055   2.299 -0.1897 -0.0627  0.9578
14177SOL     OW52460   2.538   2.329   6.610 -0.3464 -0.0256  0.1381
14177SOL    HW152461   2.564   2.394   6.545 -1.8412 -0.3930 -0.9005
14177SOL    HW252462   2.462   2.368   6.654 -1.2311 -1.0064 -0.4671
14178SOL     OW52463  12.365   9.485   1.142  0.5100  0.3700 -0.7088
14178SOL    HW152464  12.452   9.526   1.135  0.1212  1.3286 -0.0987
14178SOL    HW252465  12.347   9.484   1.236  0.9644 -2.2604 -0.5684
14179SOL     OW52466  11.498   7.887   9.692  0.1352  0.0897 -0.1465
14179SOL    HW152467  11.591   7.881   9.668 -0.1035 -0.3366 -0.9755
14179SOL    HW252468  11.453   7.833   9.628 -0.5633 -0.7714  1.0463
14180SOL     OW52469   6.186   4.901   3.461  0.0134 -0.4834 -0.1330
14180SOL    HW152470   6.183   4.814   3.499  2.1990 -0.6479 -0.1926
14180SOL    HW252471   6.240   4.952   3.521 -0.8382  0.7081 -0.3387
14181SOL     OW52472   0.554  13.315   4.791  0.6593 -1.1868  0.1506
14181SOL    HW152473   0.489  13.251   4.763  1.4091 -1.5938 -0.7208
14181SOL    HW252474   0.535  13.393   4.740 -0.6066 -0.4946  1.6200
14182SOL     OW52475   9.834   4.518   5.120  0.2157 -1.0444 -0.3270
14182SOL    HW152476   9.811   4.531   5.028  1.0645  0.3067 -0.3837
14182SOL    HW252477   9.929   4.506   5.119  0.7571  2.2228  0.5866
14183SOL     OW52478   3.070   8.486   8.453 -0.7417 -0.1809  0.2236
14183SOL    HW152479   3.070   8.493   8.357 -0.3902 -2.1681  0.0446
14183SOL    HW252480   3.121   8.408   8.472 -1.8875 -0.5677  1.9810
14184SOL     OW52481  13.251   3.809  11.707  0.4564 -0.1009  0.4889
14184SOL    HW152482  13.331   3.794  11.656  0.0979 -0.7464  0.1062
14184SOL    HW252483  13.206   3.724  11.705 -1.5093  0.8883 -1.5087
14185SOL     OW52484  12.130  12.324  12.016 -0.0994 -0.1732  0.0755
14185SOL    HW152485  12.151  12.274  12.095  0.6563 -0.8148 -0.5129
14185SOL    HW252486  12.215  12.339  11.974 -0.5049  0.0254 -0.6890
14186SOL     OW52487   3.982   0.972  12.688 -0.0395 -0.5062  0.0931
14186SOL    HW152488   3.913   0.920  12.649  0.7934  0.2015 -2.4862
14186SOL    HW252489   3.998   1.042  12.625  3.4707 -1.0188  0.2255
14187SOL     OW52490   7.194  11.637   7.851  0.1734  0.3272 -0.5802
14187SOL    HW152491   7.186  11.630   7.946  0.8717 -1.4222 -0.5991
14187SOL    HW252492   7.120  11.586   7.817  1.3976 -1.3352 -0.9000
14188SOL     OW52493   7.651   7.270   1.119  0.0195  0.2691 -0.0589
14188SOL    HW152494   7.740   7.239   1.130 -0.0997 -0.2739 -0.5583
14188SOL    HW252495   7.601   7.192   1.094 -0.2165  0.9032 -1.6733
14189SOL     OW52496   3.161   4.822   9.783 -0.1547 -0.0340  0.2428
14189SOL    HW152497   3.209   4.874   9.719 -0.0641 -0.7660 -0.3061
14189SOL    HW252498   3.071   4.822   9.750 -0.0972 -0.4550  0.0722
14190SOL     OW52499  10.587  12.688   2.639  0.3019 -0.3801 -0.2530
14190SOL    HW152500  10.544  12.629   2.577  1.1499  0.3532 -1.5696
14190SOL    HW252501  10.639  12.630   2.695  0.4186 -0.9660 -0.9477
14191SOL     OW52502  12.904  11.238  11.711 -0.0799  0.1099 -0.2732
14191SOL    HW152503  12.938  11.156  11.745  0.4689  0.6513  0.5182
14191SOL    HW252504  12.951  11.251  11.628 -0.3172 -0.4677 -0.4995
14192SOL     OW52505  12.378   4.139  12.010  0.2041  0.4473  0.4383
14192SOL    HW152506  12.390   4.045  12.015  1.3976  0.4404 -1.3487
14192SOL    HW252507  12.284   4.151  11.994  0.2753 -0.5543 -0.8633
14193SOL     OW52508   7.049   0.592   8.308 -0.8059 -0.3042  0.7703
14193SOL    HW152509   7.033   0.547   8.225  2.3161 -0.4354  0.1198
14193SOL    HW252510   7.118   0.540   8.350  0.4462  1.9062  1.5889
14194SOL     OW52511  12.416   2.811   0.423  0.2692 -0.0154 -0.1313
14194SOL    HW152512  12.386   2.902   0.431 -0.5728 -0.0004 -2.6541
14194SOL    HW252513  12.511   2.818   0.415  0.3531  0.4965  1.0910
14195SOL     OW52514  10.886   3.169  12.468  0.6185  0.0324 -0.1200
14195SOL    HW152515  10.810   3.125  12.506  1.6676 -0.4933  1.4638
14195SOL    HW252516  10.908   3.116  12.391 -0.3893 -0.0005 -0.4054
14196SOL     OW52517   5.162   0.533   9.135  0.2465  0.0029  0.5610
14196SOL    HW152518   5.230   0.537   9.203 -0.1646  2.6003  0.9376
14196SOL    HW252519   5.181   0.608   9.078 -0.7686 -0.7814 -0.8795
14197SOL     OW52520   2.366   2.098   0.135 -0.0511 -0.1607 -0.3774
14197SOL    HW152521   2.319   2.169   0.089 -0.2140 -0.2130 -0.2946
14197SOL    HW252522   2.325   2.018   0.102 -2.2626 -0.1417  2.0262
14198SOL     OW52523   1.323   0.334  13.260 -0.3296  0.6147 -0.4518
14198SOL    HW152524   1.296   0.407  13.316  1.5320  1.8872 -1.1193
14198SOL    HW252525   1.390   0.288  13.311 -1.4244 -0.6091 -0.0758
14199SOL     OW52526   7.495   2.280   5.312 -0.1554 -0.3387  0.8102
14199SOL    HW152527   7.561   2.255   5.377 -0.2747  0.3846  1.2181
14199SOL    HW252528   7.529   2.359   5.271 -0.8549  0.1783  1.1877
14200SOL     OW52529   4.332   4.928  10.130  0.3301 -0.0952 -0.0311
14200SOL    HW152530   4.248   4.947  10.087  0.3786 -0.4435 -0.2793
14200SOL    HW252531   4.386   5.005  10.113  0.1651 -0.0032 -0.1354
14201SOL     OW52532   8.542  10.979   1.255  0.2068  0.3494  0.0488
14201SOL    HW152533   8.547  10.897   1.207 -0.7925 -0.2003  0.8385
14201SOL    HW252534   8.498  10.956   1.337  3.3952  0.8778  2.0796
14202SOL     OW52535   1.738   3.574   2.265 -0.2125 -0.4224 -0.3467
14202SOL    HW152536   1.735   3.481   2.286 -0.7768 -0.1456  0.8769
14202SOL    HW252537   1.696   3.580   2.179  0.1140 -1.3292 -0.5804
14203SOL     OW52538  13.309  12.844  11.857  0.2024 -0.1900  0.9084
14203SOL    HW152539  13.297  12.808  11.944 -0.3938 -1.1101  0.4568
14203SOL    HW252540  13.403  12.857  11.849  0.1788  0.9695  2.0905
14204SOL     OW52541   3.729   0.849  11.657  0.3262 -0.2896  0.0027
14204SOL    HW152542   3.745   0.782  11.591  1.0526  0.2041 -0.3383
14204SOL    HW252543   3.634   0.853  11.665 -0.0492  1.7961 -3.3283
14205SOL     OW52544   9.489   6.130   8.366  0.1713  0.2160 -0.8787
14205SOL    HW152545   9.408   6.173   8.395  0.5434 -1.4503  3.1759
14205SOL    HW252546   9.559   6.190   8.391  0.4032 -0.2193 -0.4802
14206SOL     OW52547   1.922   3.078   9.213  0.2591 -0.0426 -0.1472
14206SOL    HW152548   1.869   3.084   9.293 -1.2319 -0.1738 -1.0709
14206SOL    HW252549   1.857   3.072   9.142  1.5359 -0.2097 -1.3485
14207SOL     OW52550   4.624   9.282  12.479 -0.0528 -0.1245 -0.3977
14207SOL    HW152551   4.648   9.218  12.412  0.9404  0.6379 -0.7822
14207SOL    HW252552   4.563   9.341  12.434  0.8120  0.5367 -0.7107
14208SOL     OW52553  10.957   9.916   6.878  0.4002 -0.6648 -0.2496
14208SOL    HW152554  10.957   9.826   6.910 -0.3730 -0.9396 -0.9864
14208SOL    HW252555  11.030   9.920   6.816  1.1511 -0.4525  0.6107
14209SOL     OW52556   9.422   6.611   6.952  0.1681  1.1537 -0.2464
14209SOL    HW152557   9.386   6.575   6.871 -0.7335  1.1737  0.1318
14209SOL    HW252558   9.492   6.551   6.977 -1.5018 -0.5855  0.5420
14210SOL     OW52559   5.050  12.399   2.830  0.3131  0.0239 -0.3885
14210SOL    HW152560   5.051  12.485   2.790 -0.7278 -0.1766 -0.8760
14210SOL    HW252561   5.026  12.415   2.922 -1.5786  0.1454 -0.8610
14211SOL     OW52562   3.867   9.832   5.027  0.2644 -0.2947  0.2674
14211SOL    HW152563   3.908   9.899   5.083 -0.7554  0.6652 -0.0865
14211SOL    HW252564   3.818   9.778   5.088  1.4631 -1.0253  0.6119
14212SOL     OW52565   3.322   8.116  12.554  0.1740  0.3952 -0.3229
14212SOL    HW152566   3.275   8.200  12.558  1.4232  1.0908  0.2383
14212SOL    HW252567   3.412   8.138  12.579  0.2547 -1.3142  1.0767
14213SOL     OW52568  11.166   2.021   5.986  0.1403  0.4753  0.5586
14213SOL    HW152569  11.131   2.083   6.050 -0.7809 -0.9944  1.5495
14213SOL    HW252570  11.097   2.012   5.920  0.2586  0.4826  0.4330
14214SOL     OW52571  10.885   7.159  10.470 -0.2478 -0.0478  0.5066
14214SOL    HW152572  10.969   7.122  10.443  0.0398  0.9354 -0.0145
14214SOL    HW252573  10.897   7.180  10.562  0.6280  1.4809  0.0802
14215SOL     OW52574   2.270   8.939   9.424 -0.2129 -0.1099  0.1593
14215SOL    HW152575   2.237   8.908   9.340 -0.9297  0.0616  0.3701
14215SOL    HW252576   2.362   8.913   9.425 -0.4448 -0.9925 -0.2574
14216SOL     OW52577   7.055   4.934  11.906  0.0639 -0.0782 -0.1179
14216SOL    HW152578   6.979   4.933  11.964  0.9236 -1.3410  1.0513
14216SOL    HW252579   7.122   4.980  11.956  0.0123  1.3272 -1.2765
14217SOL     OW52580  12.823   1.130   2.527  1.0609  0.0182 -0.6502
14217SOL    HW152581  12.905   1.176   2.507  0.8734 -0.3412 -2.3293
14217SOL    HW252582  12.764   1.200   2.556  1.7601  0.3628  0.0005
14218SOL     OW52583   8.704   3.506   0.276  0.1921 -0.0245 -0.1510
14218SOL    HW152584   8.631   3.451   0.247  1.6389 -1.1968 -1.7104
14218SOL    HW252585   8.709   3.575   0.210  0.1612  0.3674  0.2542
14219SOL     OW52586   5.229  12.838   2.762  0.1122  0.2787  0.1204
14219SOL    HW152587   5.194  12.925   2.744 -0.0419  0.0397 -0.7447
14219SOL    HW252588   5.240  12.837   2.857 -0.5536  0.9887  0.2203
14220SOL     OW52589   9.392   6.117   3.948  0.4113 -0.2693  0.9628
14220SOL    HW152590   9.332   6.047   3.973 -0.8901  0.2862 -0.4483
14220SOL    HW252591   9.392   6.176   4.024 -0.6861 -0.3704  1.0526
14221SOL     OW52592  10.569  10.894  12.257  0.6815 -0.5275 -0.0821
14221SOL    HW152593  10.643  10.955  12.267  1.3462 -0.8592 -2.3084
14221SOL    HW252594  10.596  10.815  12.303 -0.6777  1.0665  3.8945
14222SOL     OW52595   0.690   7.087   9.639 -0.9078 -0.0695 -0.7045
14222SOL    HW152596   0.736   7.007   9.665 -0.3324  0.1620 -1.0197
14222SOL    HW252597   0.759   7.149   9.615 -1.3527  0.5024 -0.5371
14223SOL     OW52598   7.476   6.467   2.824 -0.2988  0.7033 -0.1826
14223SOL    HW152599   7.387   6.438   2.843 -1.1906  2.4492 -1.3954
14223SOL    HW252600   7.533   6.404   2.869 -2.1373  0.4299  1.8990
14224SOL     OW52601   4.711   4.452   2.721  0.1471 -0.4160  0.2742
14224SOL    HW152602   4.762   4.503   2.658 -0.0226 -0.3548  0.1863
14224SOL    HW252603   4.767   4.376   2.741 -0.1063 -0.8160 -0.5051
14225SOL     OW52604   8.938  11.484  12.381  0.1102  0.0076  0.1682
14225SOL    HW152605   8.852  11.494  12.340 -0.5338 -0.8006  1.2721
14225SOL    HW252606   8.992  11.553  12.343 -1.1287  0.7294 -0.2941
14226SOL     OW52607   8.958  12.127   2.647  0.4774 -0.5125  0.1910
14226SOL    HW152608   8.875  12.080   2.649  0.6360 -0.7801  0.6913
14226SOL    HW252609   9.012  12.078   2.586 -0.0585  0.2383 -0.9208
14227SOL     OW52610  11.469   0.829   9.329 -0.3924 -0.2289 -0.4172
14227SOL    HW152611  11.458   0.744   9.286  0.1805 -0.8745  0.6509
14227SOL    HW252612  11.557   0.825   9.367 -0.9260  0.2351  0.9422
14228SOL     OW52613   7.676  11.376   0.009 -0.8988 -1.0851  0.3347
14228SOL    HW152614   7.698  11.283   0.016 -1.0710 -1.0330  2.2115
14228SOL    HW252615   7.711  11.403  -0.076 -0.5163 -2.7657 -0.0788
14229SOL     OW52616   5.634   1.106   5.499 -0.3169 -0.0150  0.6026
14229SOL    HW152617   5.586   1.024   5.512  0.2369 -0.2633  1.1137
14229SOL    HW252618   5.636   1.118   5.404 -1.1049 -0.1631  0.5552
14230SOL     OW52619  12.163   1.647   6.464 -0.4382 -0.0932  0.1581
14230SOL    HW152620  12.091   1.644   6.526 -0.1313 -1.3032  0.4855
14230SOL    HW252621  12.242   1.658   6.518 -0.1998 -0.8336 -0.0235
14231SOL     OW52622   2.610   8.874   4.383 -0.1119  0.3347 -0.6245
14231SOL    HW152623   2.677   8.845   4.322  0.7655  0.3777  0.2920
14231SOL    HW252624   2.619   8.815   4.458  0.3867  1.7159  0.4382
14232SOL     OW52625   4.041  10.238  12.566  0.3274 -0.1391  0.8418
14232SOL    HW152626   4.108  10.306  12.576 -0.0252  0.1016  1.6850
14232SOL    HW252627   4.068  10.189  12.488  2.5412 -1.2784  2.2251
14233SOL     OW52628   2.040  11.882  12.067 -0.5076 -0.0704  0.0271
14233SOL    HW152629   2.032  11.815  12.135 -1.7816  1.5465  1.5659
14233SOL    HW252630   1.957  11.878  12.019  0.0068 -0.5575 -0.8571
14234SOL     OW52631  13.286   7.503   8.335 -0.0372  0.5216  0.5260
14234SOL    HW152632  13.208   7.477   8.286  1.6041 -0.7767 -1.6237
14234SOL    HW252633  13.305   7.592   8.304 -1.4271  1.4386  2.1748
14235SOL     OW52634  11.870   2.271   5.724 -0.3475 -0.1887  0.1871
14235SOL    HW152635  11.821   2.346   5.758  0.3348 -0.1738  1.1914
14235SOL    HW252636  11.834   2.256   5.636 -0.1945  1.5761 -0.2000
14236SOL     OW52637   8.507  11.754   5.293 -0.1465  0.4138 -0.9909
14236SOL    HW152638   8.561  11.830   5.269 -0.3822  1.2953  1.1206
14236SOL    HW252639   8.419  11.778   5.266 -0.2772  1.0651 -0.0291
14237SOL     OW52640   6.554  10.906  11.888  0.3019 -0.7860  0.3460
14237SOL    HW152641   6.562  10.920  11.794  0.3888 -0.2092  0.4353
14237SOL    HW252642   6.628  10.849  11.910  1.9956  1.2971  0.4992
14238SOL     OW52643   3.886   5.702   2.020  0.1783 -0.0787 -0.2410
14238SOL    HW152644   3.840   5.649   2.085  1.0379 -1.5375 -0.7722
14238SOL    HW252645   3.823   5.769   1.995 -1.3476 -1.4938 -0.3248
14239SOL     OW52646  11.408   8.694   3.275 -0.1358 -0.1957 -0.7085
14239SOL    HW152647  11.408   8.603   3.246  0.5246  0.0770 -1.6028
14239SOL    HW252648  11.318   8.723   3.262 -0.5128 -0.8954  0.1991
14240SOL     OW52649   4.131  13.190   0.219 -0.7285 -0.0197  0.2428
14240SOL    HW152650   4.072  13.116   0.234 -2.0435  1.1603  1.1135
14240SOL    HW252651   4.154  13.221   0.306 -0.5706  0.8768 -0.1029
14241SOL     OW52652   6.179   5.697   6.035  0.2768  0.2224  0.0693
14241SOL    HW152653   6.106   5.753   6.062  0.6589  0.2528  1.1092
14241SOL    HW252654   6.160   5.612   6.075 -0.5873 -0.5876 -1.9690
14242SOL     OW52655   7.185   4.436  10.212 -0.0287 -0.3936 -0.4824
14242SOL    HW152656   7.274   4.448  10.178 -0.0026  0.7696 -0.0563
14242SOL    HW252657   7.182   4.492  10.290 -0.8079 -1.2395  0.1144
14243SOL     OW52658   3.368   4.633   7.637 -0.1549 -0.2808  0.2339
14243SOL    HW152659   3.314   4.589   7.703  0.4470 -0.1822  0.8059
14243SOL    HW252660   3.307   4.653   7.566 -0.5634 -1.5106  0.2074
14244SOL     OW52661  11.740   0.250   2.864  0.1456  0.4805 -0.1539
14244SOL    HW152662  11.768   0.242   2.773 -0.2644  2.7886 -0.5381
14244SOL    HW252663  11.817   0.283   2.911 -0.2884  1.5490 -0.1539
14245SOL     OW52664   9.244   6.167   1.783  0.3649 -0.3940 -0.1282
14245SOL    HW152665   9.230   6.118   1.702 -1.6250  0.5926 -0.4589
14245SOL    HW252666   9.179   6.237   1.780  1.1104  0.4471  1.7296
14246SOL     OW52667   1.428   2.555   0.978  0.0542 -0.3870 -0.5998
14246SOL    HW152668   1.382   2.518   0.903  0.6602 -2.6849  0.0725
14246SOL    HW252669   1.519   2.563   0.949 -0.0958  0.8485 -0.7948
14247SOL     OW52670   1.158   9.020   0.990 -0.7299  0.2472  0.2631
14247SOL    HW152671   1.092   8.953   1.010  2.2920 -2.9768  0.4946
14247SOL    HW252672   1.208   9.029   1.071  0.7737  0.5201 -0.6708
14248SOL     OW52673   3.816  12.826  10.678 -0.0536 -0.0636  0.0440
14248SOL    HW152674   3.898  12.866  10.649 -1.2280  0.9296 -2.2318
14248SOL    HW252675   3.808  12.746  10.626 -0.9715  0.3712 -0.5146
14249SOL     OW52676   9.049   5.432  12.291  0.1322 -0.6286 -0.3827
14249SOL    HW152677   9.003   5.353  12.261 -0.3255 -0.7371  0.5626
14249SOL    HW252678   9.133   5.429  12.246 -0.1279 -1.3314 -0.8421
14250SOL     OW52679   4.532   8.252   2.305 -0.0409  0.0539  0.1343
14250SOL    HW152680   4.541   8.232   2.212  0.4631  0.4988  0.0790
14250SOL    HW252681   4.453   8.307   2.310 -0.8411 -1.0728  0.1595
14251SOL     OW52682   6.746   9.381  13.065 -0.5502  0.8785  0.3348
14251SOL    HW152683   6.739   9.328  13.145  1.0646 -1.2997 -0.8509
14251SOL    HW252684   6.657   9.382  13.030 -0.7331 -0.6356  0.6792
14252SOL     OW52685   2.884  12.010   5.879  0.5238 -0.5898  0.1526
14252SOL    HW152686   2.961  11.958   5.901  2.2466 -0.1714 -4.0030
14252SOL    HW252687   2.844  11.965   5.805 -1.0360  1.2269 -0.2041
14253SOL     OW52688  13.082   0.696   4.197 -0.3689 -0.4452  0.0219
14253SOL    HW152689  12.987   0.704   4.201 -0.3071  2.2979 -1.4720
14253SOL    HW252690  13.114   0.749   4.270  0.0117  0.0323 -0.4860
14254SOL     OW52691   7.028   7.630   7.101  0.0370 -0.5103  0.0837
14254SOL    HW152692   6.957   7.636   7.037 -0.1018 -0.9063  0.2042
14254SOL    HW252693   6.985   7.642   7.186 -0.1122 -2.1527  0.2751
14255SOL     OW52694  13.120   1.890   8.403  0.0238  0.3664  0.4432
14255SOL    HW152695  13.172   1.909   8.325  1.0858 -1.3760  0.6781
14255SOL    HW252696  13.133   1.967   8.460  0.5560  0.9266 -0.4091
14256SOL     OW52697  10.425   0.954   2.433 -0.1411 -0.4452  0.1559
14256SOL    HW152698  10.423   0.858   2.443  0.1415 -0.5260 -0.4577
14256SOL    HW252699  10.361   0.986   2.496 -0.4081 -1.0570  0.2091
14257SOL     OW52700   6.219   8.606  11.513  0.2860  0.5730  0.3897
14257SOL    HW152701   6.302   8.558  11.512  0.1597  0.3421 -0.8561
14257SOL    HW252702   6.198   8.614  11.606 -0.1999 -2.7144  0.7011
14258SOL     OW52703   9.167   9.772   1.900 -0.3158  0.3006  0.2877
14258SOL    HW152704   9.130   9.856   1.871 -0.6892  0.3913  0.9950
14258SOL    HW252705   9.174   9.720   1.821 -0.2408  0.9413 -0.1366
14259SOL     OW52706   6.370  10.208   7.631 -0.4720  0.2451 -0.4058
14259SOL    HW152707   6.375  10.192   7.537  3.6354  0.4398 -0.3917
14259SOL    HW252708   6.396  10.300   7.641  2.1566 -0.5273  0.9568
14260SOL     OW52709   9.280   7.617   1.303  0.4964  0.2471  0.1783
14260SOL    HW152710   9.266   7.523   1.298  0.7048  0.2301 -0.1198
14260SOL    HW252711   9.193   7.655   1.291  0.8255  0.1939 -3.3703
14261SOL     OW52712   2.573  12.787   2.216 -0.2696  0.5482  0.1314
14261SOL    HW152713   2.504  12.738   2.173  1.0669  0.4288 -2.0266
14261SOL    HW252714   2.586  12.865   2.162  1.1854  0.6316  0.5512
14262SOL     OW52715   3.953   6.392   8.985 -0.6168 -0.3289  0.4155
14262SOL    HW152716   4.013   6.449   9.033  0.5864 -1.7122  0.6082
14262SOL    HW252717   3.984   6.393   8.895  0.6199 -2.1310  0.7681
14263SOL     OW52718   1.515   2.652   7.713 -0.2451  0.4495 -0.0473
14263SOL    HW152719   1.569   2.584   7.674 -0.5452  0.7182 -0.9341
14263SOL    HW252720   1.426   2.635   7.682 -0.8650 -0.4663  2.0381
14264SOL     OW52721   8.592   4.099   0.700  0.3035  0.2192 -0.5442
14264SOL    HW152722   8.496   4.092   0.706  0.3533 -0.1139 -0.0448
14264SOL    HW252723   8.607   4.162   0.630 -0.3167  2.3498  1.1148
14265SOL     OW52724  12.347   1.382   4.012  0.0800  0.3765  0.1465
14265SOL    HW152725  12.256   1.371   3.982  0.1573  1.2752 -0.4381
14265SOL    HW252726  12.394   1.308   3.973 -0.6869 -1.0804  1.8006
14266SOL     OW52727   9.645  11.504   2.499  0.1091 -0.0181  0.2482
14266SOL    HW152728   9.583  11.456   2.554 -1.9035  0.3126 -1.5676
14266SOL    HW252729   9.589  11.564   2.448  2.1025  1.3028 -0.4958
14267SOL     OW52730   3.217  10.664   5.077 -0.2069  0.1217 -0.3404
14267SOL    HW152731   3.162  10.734   5.112 -0.4042  0.2728 -0.9456
14267SOL    HW252732   3.302  10.678   5.118  0.0597  1.3682 -1.2627
14268SOL     OW52733   4.437   9.306  13.226  0.6794 -0.2522 -0.0197
14268SOL    HW152734   4.415   9.215  13.208 -2.4413  0.1884  1.0126
14268SOL    HW252735   4.432   9.349  13.141 -0.2100 -0.6422 -0.1757
14269SOL     OW52736   0.975   9.199   4.509  0.5793 -0.3252  0.3792
14269SOL    HW152737   0.940   9.116   4.542 -1.8602  0.9006  1.1562
14269SOL    HW252738   0.923   9.218   4.431  0.7266  0.7309  0.5270
14270SOL     OW52739   9.572   4.208  12.174  0.1704  0.5233  0.6013
14270SOL    HW152740   9.572   4.229  12.267  0.3570  0.6480  0.5737
14270SOL    HW252741   9.482   4.222  12.145  0.1756  0.7500  0.7013
14271SOL     OW52742   7.760  12.703   0.392 -0.0472  0.2237 -0.3550
14271SOL    HW152743   7.759  12.683   0.486 -0.7337  2.1159  0.0801
14271SOL    HW252744   7.705  12.781   0.383  0.7558  0.6344 -2.2192
14272SOL     OW52745   6.622   8.397   3.188  0.2069 -0.4823  0.2111
14272SOL    HW152746   6.549   8.435   3.139 -0.0617 -2.0155 -0.6118
14272SOL    HW252747   6.580   8.349   3.259  0.3705 -1.7823 -0.5563
14273SOL     OW52748   3.207  10.378   5.157  0.6733 -0.3852  0.2116
14273SOL    HW152749   3.120  10.339   5.147  0.4432  0.1909 -0.0648
14273SOL    HW252750   3.190  10.470   5.177  1.2163 -0.3726  0.6550
14274SOL     OW52751   6.579  12.150   5.153  0.1921 -0.2002 -0.0715
14274SOL    HW152752   6.539  12.133   5.239 -1.2588 -0.1570 -0.7129
14274SOL    HW252753   6.593  12.063   5.116 -3.4660 -0.3056 -1.6526
14275SOL     OW52754   2.816   5.127  12.993  0.1851 -0.4521 -0.5533
14275SOL    HW152755   2.773   5.042  12.998 -1.0488 -0.0041 -2.7351
14275SOL    HW252756   2.908   5.105  12.976 -0.2126 -1.3765 -1.6886
14276SOL     OW52757   7.166   7.836  12.615 -0.3087  0.1505  0.1377
14276SOL    HW152758   7.187   7.903  12.680  0.7663 -1.2326  1.2826
14276SOL    HW252759   7.097   7.876  12.561  0.8954  2.4853  0.1996
14277SOL     OW52760   6.065   0.232   7.279  0.1605  0.1262 -0.1630
14277SOL    HW152761   6.059   0.305   7.342  1.4544 -0.2249  0.3967
14277SOL    HW252762   5.974   0.209   7.261 -0.2552  0.4340  1.3724
14278SOL     OW52763   6.142   0.050   6.710 -0.7919  0.0669 -0.0825
14278SOL    HW152764   6.171  -0.034   6.676  0.0416  0.4865 -0.4401
14278SOL    HW252765   6.092   0.028   6.789  0.1531 -0.7093  0.3214
14279SOL     OW52766  12.561  11.431   7.061  0.3332 -0.3346 -0.5377
14279SOL    HW152767  12.482  11.379   7.050  1.2718 -1.7647 -0.6652
14279SOL    HW252768  12.589  11.453   6.972 -1.0919  2.0900 -0.4831
14280SOL     OW52769   8.652   0.432   2.067 -0.1381  0.0345  0.5624
14280SOL    HW152770   8.633   0.511   2.017 -0.6962 -0.5166 -0.1239
14280SOL    HW252771   8.718   0.387   2.015 -0.2532 -0.2324  0.6458
14281SOL     OW52772   1.952  12.746   9.384 -0.0642  0.1805  0.8048
14281SOL    HW152773   2.026  12.685   9.395 -1.6026 -1.4645  2.8327
14281SOL    HW252774   1.910  12.716   9.303 -0.2143 -0.8321  1.2377
14282SOL     OW52775  11.863   1.555   7.968  0.0397 -0.1293  0.3126
14282SOL    HW152776  11.906   1.477   7.933  2.0392  0.4575  1.3091
14282SOL    HW252777  11.874   1.621   7.900 -0.4576 -0.3263  0.0331
14283SOL     OW52778  12.664   6.550   0.426  0.1807 -0.0367  0.2515
14283SOL    HW152779  12.593   6.531   0.488  0.5847 -0.8914  0.4626
14283SOL    HW252780  12.707   6.466   0.412 -0.6014 -0.1266 -2.1092
14284SOL     OW52781   3.888   4.738  10.343  0.4417  0.0733  0.1205
14284SOL    HW152782   3.860   4.660  10.392 -0.8941  0.6057  0.2356
14284SOL    HW252783   3.807   4.776  10.311  1.2114  0.3915 -1.5426
14285SOL     OW52784   0.622   3.607   0.700  0.2110 -0.0417 -0.3499
14285SOL    HW152785   0.703   3.634   0.658  0.4008 -1.4163 -0.9030
14285SOL    HW252786   0.588   3.687   0.741  1.1524  0.8287 -1.2377
14286SOL     OW52787   5.307  10.067   0.640  0.0047 -0.3047 -0.5584
14286SOL    HW152788   5.379  10.105   0.690  0.8309 -1.5421 -0.7761
14286SOL    HW252789   5.230  10.077   0.696  0.7824 -1.0540  0.6830
14287SOL     OW52790  11.093   9.346  12.119  0.0358  0.0371 -0.0827
14287SOL    HW152791  11.178   9.325  12.157 -0.7670  0.2670  1.9483
14287SOL    HW252792  11.032   9.286  12.162 -0.8724 -0.0488 -1.4277
14288SOL     OW52793   1.911  11.614   1.424 -0.2777  0.2739 -0.6241
14288SOL    HW152794   1.819  11.641   1.421 -0.1785  0.6630 -0.2938
14288SOL    HW252795   1.959  11.696   1.416  0.0347  0.2243  0.5527
14289SOL     OW52796  10.391   7.197   8.607  0.1866 -0.0320  0.1266
14289SOL    HW152797  10.422   7.202   8.517  1.8015  0.3753  0.6758
14289SOL    HW252798  10.375   7.288   8.632  1.2532  0.0014  0.7354
14290SOL     OW52799   2.345   6.408  13.204  0.1963 -0.2212  0.2227
14290SOL    HW152800   2.331   6.484  13.259 -0.8019  1.1174 -1.7429
14290SOL    HW252801   2.401   6.439  13.132 -1.1001 -0.9908 -1.1942
14291SOL     OW52802   0.979   9.347   0.993  0.1294  0.2089  0.0312
14291SOL    HW152803   1.045   9.279   0.992  1.8275  1.6822  2.0832
14291SOL    HW252804   0.925   9.328   1.070 -0.2571  0.4287 -0.1787
14292SOL     OW52805   9.712   7.934   9.447 -0.0552 -0.0594 -0.6296
14292SOL    HW152806   9.794   7.931   9.398 -0.2650 -1.0153 -0.9384
14292SOL    HW252807   9.647   7.962   9.382 -0.2827 -1.0507 -0.8415
14293SOL     OW52808   6.905  11.665   0.500  0.5038  0.2281 -0.0021
14293SOL    HW152809   6.958  11.699   0.571 -0.7239  1.0596  0.5587
14293SOL    HW252810   6.952  11.689   0.420  1.4033  0.1394  0.5000
14294SOL     OW52811  12.473  10.640   5.459 -0.6566 -0.0163  0.7938
14294SOL    HW152812  12.561  10.610   5.436 -0.1608 -0.1577  2.6798
14294SOL    HW252813  12.431  10.563   5.497 -1.2937  0.2878  0.7194
14295SOL     OW52814   7.934   1.589   3.244  0.1229 -0.5001  0.1030
14295SOL    HW152815   7.848   1.554   3.266  0.2441 -1.4894 -0.9280
14295SOL    HW252816   7.990   1.563   3.317  0.1325 -2.1874 -0.4730
14296SOL     OW52817   5.510   4.240   0.511 -0.3926  0.3217 -0.0275
14296SOL    HW152818   5.511   4.207   0.601  0.6197  2.6248  0.9013
14296SOL    HW252819   5.419   4.231   0.484 -0.7888 -0.1555  1.3432
14297SOL     OW52820   6.256   5.591   1.537  0.3049  0.1771 -0.2801
14297SOL    HW152821   6.208   5.524   1.489  1.0887 -0.1654 -0.6080
14297SOL    HW252822   6.221   5.674   1.505  0.7628 -0.0483 -1.4092
14298SOL     OW52823   1.932   3.314   1.620 -0.2887  0.2838  0.2931
14298SOL    HW152824   2.003   3.297   1.682 -1.3275 -0.6643  1.2723
14298SOL    HW252825   1.875   3.238   1.627 -1.3665  0.9744 -0.5453
14299SOL     OW52826  10.375   7.804  11.847  0.5752  0.5118  0.9732
14299SOL    HW152827  10.344   7.836  11.762 -1.0274 -0.6272  1.0844
14299SOL    HW252828  10.419   7.722  11.827 -0.9258 -0.4174  1.3339
14300SOL     OW52829  10.061  12.450   1.384 -0.0774 -0.5177  0.3387
14300SOL    HW152830  10.145  12.420   1.420  0.6663  2.0698  0.9152
14300SOL    HW252831  10.026  12.510   1.450 -2.3625 -1.4216  0.0432
14301SOL     OW52832   7.305  11.469   4.533  0.2065  0.5068  0.4221
14301SOL    HW152833   7.245  11.447   4.604 -1.4173  0.8553 -0.7695
14301SOL    HW252834   7.291  11.400   4.468  0.1981  1.2488 -0.3900
14302SOL     OW52835   6.145  10.200   4.771  0.1227  0.1838  0.3479
14302SOL    HW152836   6.142  10.165   4.860  1.3810 -1.0522 -0.0550
14302SOL    HW252837   6.143  10.295   4.782 -2.2422  0.0631  1.5387
14303SOL     OW52838  12.446   5.155  11.098  0.6895 -0.7696  0.6735
14303SOL    HW152839  12.483   5.089  11.039  3.0017  0.1502  0.9684
14303SOL    HW252840  12.456   5.116  11.185  0.9701 -0.5265  0.7524
14304SOL     OW52841   2.995  11.170  12.438 -0.4785  0.1056  0.2339
14304SOL    HW152842   2.908  11.129  12.433  0.4637 -1.9301 -0.3627
14304SOL    HW252843   3.043  11.134  12.363  1.5352 -0.4876  1.7169
14305SOL     OW52844   2.187   9.135   5.726  0.0886 -0.2179  0.0056
14305SOL    HW152845   2.128   9.115   5.653  0.6665 -1.4321 -0.1413
14305SOL    HW252846   2.138   9.109   5.804  0.3923 -1.1541 -0.1113
14306SOL     OW52847   7.112   7.499   7.710  0.3375 -0.1365 -0.0834
14306SOL    HW152848   7.052   7.425   7.702  0.0985  0.1028 -0.6067
14306SOL    HW252849   7.193   7.461   7.745  0.5402 -0.8323 -1.2192
14307SOL     OW52850   9.918   6.566   1.181 -0.7654  0.2305 -0.4297
14307SOL    HW152851   9.880   6.571   1.269 -2.8162 -0.3932 -1.2293
14307SOL    HW252852   9.967   6.484   1.180 -0.4366  0.4137  0.2292
14308SOL     OW52853   5.165  10.578  11.644  0.2668  0.4786  0.3011
14308SOL    HW152854   5.098  10.517  11.613 -0.2934  1.0979  0.2658
14308SOL    HW252855   5.201  10.617  11.563 -0.2651  1.1160  0.3611
14309SOL     OW52856   0.691   2.527   4.654 -0.4791 -0.5648  0.2174
14309SOL    HW152857   0.784   2.512   4.634 -0.3998 -0.2756  0.3647
14309SOL    HW252858   0.644   2.481   4.584 -0.2906 -2.8067  1.4792
14310SOL     OW52859   0.770  11.003   4.013  0.8089  0.0978 -0.1751
14310SOL    HW152860   0.682  10.971   4.031  1.3016 -0.2690  1.7844
14310SOL    HW252861   0.771  11.092   4.047  1.6374 -0.4619  1.3768
14311SOL     OW52862   0.272   4.390  12.353  0.4835  0.1701 -0.4848
14311SOL    HW152863   0.275   4.397  12.448 -1.0590  0.7781 -0.4606
14311SOL    HW252864   0.235   4.303  12.336  1.7613 -0.3766 -0.5616
14312SOL     OW52865   0.398   7.093  11.403  0.9702 -0.1707 -0.3911
14312SOL    HW152866   0.328   7.126  11.459 -0.1000 -2.4479 -0.2661
14312SOL    HW252867   0.364   7.104  11.314  0.9546 -0.2080 -0.3896
14313SOL     OW52868   4.817   4.791  12.808 -0.2722  0.2794 -0.2514
14313SOL    HW152869   4.812   4.813  12.900 -0.9667 -0.1993 -0.1647
14313SOL    HW252870   4.726   4.790  12.778 -0.0568  0.3938 -0.9271
14314SOL     OW52871  10.699   7.761   0.371 -0.2630 -0.3887  0.2281
14314SOL    HW152872  10.774   7.764   0.312 -0.4026 -0.9448  0.0106
14314SOL    HW252873  10.686   7.667   0.388 -0.4784 -0.2591  0.8149
14315SOL     OW52874  10.931   2.496  11.410 -0.1061  0.5690 -0.8965
14315SOL    HW152875  10.891   2.577  11.379 -1.3903  0.2497 -0.1357
14315SOL    HW252876  10.869   2.427  11.384  0.6526 -0.1008 -0.9601
14316SOL     OW52877   6.376  11.294   5.801 -0.0954 -0.2716  0.2673
14316SOL    HW152878   6.463  11.281   5.762  0.5076  0.2442  1.3860
14316SOL    HW252879   6.391  11.286   5.895 -1.0263  1.0611  0.5495
14317SOL     OW52880  12.497   5.670   7.431  0.1335  0.0249 -0.0227
14317SOL    HW152881  12.540   5.726   7.495 -0.3674  1.6190 -1.0002
14317SOL    HW252882  12.439   5.730   7.383 -0.4364 -1.3519 -1.1192
14318SOL     OW52883   1.344   8.430   8.553 -0.1739  0.1778 -0.3592
14318SOL    HW152884   1.248   8.423   8.553 -0.2163  0.6575  0.1203
14318SOL    HW252885   1.370   8.402   8.466 -0.6732 -0.9779 -0.1683
14319SOL     OW52886  10.195   8.744   7.503  0.2710  0.5027 -0.2787
14319SOL    HW152887  10.269   8.799   7.528 -0.5516  1.3507  0.3614
14319SOL    HW252888  10.200   8.738   7.408  0.1549  2.0442 -0.4095
14320SOL     OW52889   6.868   8.182   0.176 -0.0845  0.4479 -0.6293
14320SOL    HW152890   6.858   8.110   0.239 -2.6074  0.9995 -0.3102
14320SOL    HW252891   6.958   8.213   0.190  0.2245 -0.9887  0.9961
14321SOL     OW52892   0.999   0.710  10.314 -0.4678  0.1503 -0.4518
14321SOL    HW152893   0.936   0.638  10.309 -0.3462 -0.4211  3.1727
14321SOL    HW252894   0.948   0.788  10.291 -1.3510 -0.7389 -1.6570
14322SOL     OW52895   8.459   9.178   2.320  0.0453  0.3390  0.3432
14322SOL    HW152896   8.415   9.217   2.244 -0.1834 -0.9590 -0.2287
14322SOL    HW252897   8.388   9.142   2.373  0.2940 -0.0556  0.4149
14323SOL     OW52898   3.763   4.539   4.914 -0.6695 -0.0272 -0.0545
14323SOL    HW152899   3.751   4.634   4.919  2.6105  0.5592 -0.8379
14323SOL    HW252900   3.835   4.520   4.974  0.2610 -1.6245 -1.5475
14324SOL     OW52901   2.504   2.846   3.160 -0.3898  0.0366 -1.0014
14324SOL    HW152902   2.432   2.882   3.107 -0.3789  1.0576 -0.3550
14324SOL    HW252903   2.504   2.900   3.240 -1.0364 -2.0641  0.5067
14325SOL     OW52904   4.840   8.919   5.820  0.3366  0.1475 -0.4531
14325SOL    HW152905   4.903   8.977   5.778  0.2424 -1.4997 -3.0955
14325SOL    HW252906   4.764   8.975   5.838  1.6232  1.6236  0.6023
14326SOL     OW52907   1.539   1.963   7.536  0.0648 -0.5130  0.1176
14326SOL    HW152908   1.495   1.879   7.553 -1.7569  0.4267  0.3313
14326SOL    HW252909   1.509   1.987   7.449  1.5294 -0.6248 -0.4300
14327SOL     OW52910   9.514   2.850   0.202  0.1960  0.2230 -0.2799
14327SOL    HW152911   9.556   2.774   0.163  1.8754  0.5985  0.7171
14327SOL    HW252912   9.582   2.891   0.256 -1.1944  1.3770  0.6849
14328SOL     OW52913   7.972   8.305  12.944  0.4573  0.7939 -0.6113
14328SOL    HW152914   8.033   8.311  12.871  1.2374  0.3756 -0.0077
14328SOL    HW252915   8.027   8.287  13.020 -0.5772 -2.4338 -0.4616
14329SOL     OW52916   9.339   5.787  11.146 -0.2702 -0.5671  0.0008
14329SOL    HW152917   9.365   5.879  11.146  1.9777 -1.1366  1.0392
14329SOL    HW252918   9.346   5.760  11.238 -0.2532 -1.9253 -0.3759
14330SOL     OW52919   9.589   4.313   6.621 -0.3406  0.0537  0.0503
14330SOL    HW152920   9.523   4.382   6.615 -0.0158  0.3192 -0.6101
14330SOL    HW252921   9.669   4.359   6.646 -0.0814 -0.0544 -0.5707
14331SOL     OW52922  12.861   8.171   5.053 -0.0504  0.0550  0.6950
14331SOL    HW152923  12.919   8.247   5.046 -1.1002  1.0064  1.8585
14331SOL    HW252924  12.916   8.102   5.089  1.5263 -0.5038 -2.4167
14332SOL     OW52925   6.774   9.883   1.561  0.0944 -0.3403  0.2635
14332SOL    HW152926   6.813   9.955   1.511 -0.6060 -0.1615 -0.0298
14332SOL    HW252927   6.713   9.926   1.621 -0.6929 -0.7231 -0.2492
14333SOL     OW52928  11.350   5.859   2.342 -0.3220  0.0509 -0.0634
14333SOL    HW152929  11.297   5.813   2.408  1.3125  0.8920  1.9535
14333SOL    HW252930  11.436   5.820   2.348  1.0930  3.0520  1.5908
14334SOL     OW52931   5.767  10.009   9.147  0.0698  0.0478 -0.6162
14334SOL    HW152932   5.837  10.034   9.206  0.2563 -1.8356  0.0236
14334SOL    HW252933   5.700   9.971   9.204 -0.8157  0.4361 -1.3749
14335SOL     OW52934  12.006  11.287  12.845 -0.1541 -0.1762  0.2153
14335SOL    HW152935  11.975  11.362  12.794  1.2332 -0.3294 -0.9004
14335SOL    HW252936  11.947  11.216  12.820 -0.1239  0.0097 -0.4134
14336SOL     OW52937   8.762   6.370  10.314 -0.4173  0.1624  0.3217
14336SOL    HW152938   8.697   6.336  10.252 -0.3555  0.9712 -0.2037
14336SOL    HW252939   8.801   6.445  10.269 -0.7575  1.1094  1.5514
14337SOL     OW52940   0.542  10.419   7.843  0.0834  0.2316  0.0343
14337SOL    HW152941   0.519  10.488   7.906  1.5283 -0.4029  1.3240
14337SOL    HW252942   0.487  10.345   7.868  0.7005 -0.0400  0.6118
14338SOL     OW52943  11.214   2.429   2.855  0.8051  0.0097 -0.1067
14338SOL    HW152944  11.190   2.442   2.947 -2.4341  1.8420 -1.0581
14338SOL    HW252945  11.278   2.498   2.838  1.2044 -0.1523  0.6663
14339SOL     OW52946   6.714  11.956   2.461 -0.3448  0.7413 -0.1005
14339SOL    HW152947   6.696  11.934   2.552 -0.1352 -0.7651 -0.4108
14339SOL    HW252948   6.758  12.041   2.466  1.5215 -0.2257  1.3744
14340SOL     OW52949  11.836   6.034   3.446 -0.1219 -0.0852 -0.1571
14340SOL    HW152950  11.811   5.967   3.383 -1.8599  0.2528  0.1142
14340SOL    HW252951  11.790   6.113   3.417 -0.2890  0.2844  1.0339
14341SOL     OW52952   8.235   0.767   2.754  0.8579  0.0928  0.2376
14341SOL    HW152953   8.273   0.686   2.788  0.4974 -0.4010 -0.4991
14341SOL    HW252954   8.190   0.740   2.673 -0.0731  0.8552  0.4801
14342SOL     OW52955   0.296  11.403   6.369 -0.0307 -0.0411  0.6752
14342SOL    HW152956   0.311  11.309   6.380 -1.4236 -0.2951  0.6115
14342SOL    HW252957   0.215  11.420   6.416  0.5974  1.2956  1.3178
14343SOL     OW52958  11.192   0.444   8.604  0.3876  0.2427 -0.7957
14343SOL    HW152959  11.153   0.510   8.548 -0.5039  0.4554  0.0424
14343SOL    HW252960  11.182   0.479   8.693 -1.7997 -1.7811 -0.1363
14344SOL     OW52961  10.135  10.300  13.191  0.4991  0.5463 -0.3161
14344SOL    HW152962  10.179  10.374  13.149  1.3379  0.5928  0.6006
14344SOL    HW252963  10.166  10.223  13.143 -1.0890  0.8250 -1.8761
14345SOL     OW52964   4.848   2.364   0.204  0.0017 -0.2578 -0.0607
14345SOL    HW152965   4.890   2.281   0.227 -0.4593  0.1712  2.6421
14345SOL    HW252966   4.790   2.342   0.131  0.3947 -2.1491  0.1442
14346SOL     OW52967   0.677   3.481   0.107 -0.1220  0.9470  0.1554
14346SOL    HW152968   0.739   3.440   0.047 -1.0517 -0.6604  0.2225
14346SOL    HW252969   0.615   3.411   0.129 -0.6529  1.8807  1.8436
14347SOL     OW52970  11.124  10.146   3.471 -0.1844  0.2326 -0.0137
14347SOL    HW152971  11.071  10.067   3.476 -0.6724  0.5811  0.3433
14347SOL    HW252972  11.116  10.174   3.380 -0.4206  0.1525 -0.0180
14348SOL     OW52973  12.217   4.828   1.263  0.1622 -0.1105 -0.0474
14348SOL    HW152974  12.230   4.735   1.283 -0.5389 -0.0128  0.8964
14348SOL    HW252975  12.128   4.833   1.229  0.2874  0.1886 -0.3404
14349SOL     OW52976   3.293   6.260  10.668  0.0196 -0.4153 -0.5134
14349SOL    HW152977   3.256   6.345  10.643  1.1402  0.3129  0.1960
14349SOL    HW252978   3.381   6.260  10.630  0.4426 -0.7656  0.4362
14350SOL     OW52979   6.093   8.124   8.843  0.2701  0.2101  0.1568
14350SOL    HW152980   6.011   8.075   8.845  0.3725  0.0077 -0.3423
14350SOL    HW252981   6.078   8.198   8.901 -0.3007  0.2242  0.0028
14351SOL     OW52982  11.067  12.717   9.303 -0.2334  0.2677  0.2152
14351SOL    HW152983  10.981  12.749   9.276  0.1894  1.2156 -0.0800
14351SOL    HW252984  11.090  12.771   9.378 -0.3893 -0.7724  1.0207
14352SOL     OW52985   0.085  12.151   3.422  0.2342 -0.0354 -0.6854
14352SOL    HW152986   0.140  12.192   3.355  0.4164  0.4816 -0.2265
14352SOL    HW252987   0.104  12.200   3.502 -0.7755  0.0434 -0.4867
14353SOL     OW52988   2.041  10.992   3.873  0.3711 -0.0318 -0.4504
14353SOL    HW152989   2.110  11.033   3.821 -0.2962  1.0679 -0.5066
14353SOL    HW252990   2.084  10.966   3.955  1.4333 -1.7734 -1.4997
14354SOL     OW52991   0.576   0.027  12.610  0.1003 -0.2978 -0.1979
14354SOL    HW152992   0.654   0.031  12.664 -0.8586 -0.8626  1.2849
14354SOL    HW252993   0.605   0.054  12.523  1.9840 -0.7635  0.2594
14355SOL     OW52994   8.004  11.847   3.360  0.5053 -0.0370 -0.3947
14355SOL    HW152995   7.957  11.764   3.365  1.8908 -0.9839 -1.9489
14355SOL    HW252996   8.090  11.828   3.397  0.1407  1.3310  1.2492
14356SOL     OW52997   7.039   0.188   3.145 -0.0318  0.2809  0.3269
14356SOL    HW152998   7.102   0.206   3.215  0.3231 -0.0876  0.1066
14356SOL    HW252999   7.086   0.209   3.064 -0.7983  1.7616  0.2274
14357SOL     OW53000   2.113   0.740   3.871  0.3045 -0.1258  0.1931
14357SOL    HW153001   2.081   0.650   3.866  1.5809 -0.5924 -0.0741
14357SOL    HW253002   2.206   0.731   3.890  0.4789  1.1417  0.0275
14358SOL     OW53003  12.117   5.446   0.973  0.2838 -0.1999  0.3433
14358SOL    HW153004  12.167   5.502   1.033 -1.4261  0.7422  0.9591
14358SOL    HW253005  12.120   5.491   0.889  0.8023 -0.3616  0.2718
14359SOL     OW53006   4.122   3.415   3.893 -0.1144  0.0933 -0.0656
14359SOL    HW153007   4.129   3.510   3.899 -0.5548  0.0406  2.4403
14359SOL    HW253008   4.210   3.384   3.917 -0.3843 -0.1265  0.6657
14360SOL     OW53009  11.366  10.381   8.169  0.6642  0.3381 -0.0228
14360SOL    HW153010  11.395  10.430   8.246 -1.9877  1.1823  0.5116
14360SOL    HW253011  11.416  10.419   8.097  1.9483  0.6962  1.0017
14361SOL     OW53012   0.197   9.487   5.231 -0.1593  0.1215 -0.1467
14361SOL    HW153013   0.257   9.547   5.274 -2.0173  1.1649  1.0970
14361SOL    HW253014   0.215   9.498   5.137  1.2806  0.6827  0.1676
14362SOL     OW53015   1.136   2.447   2.487 -0.4897  0.2483  0.4321
14362SOL    HW153016   1.191   2.512   2.443  0.6793 -0.7603  0.3412
14362SOL    HW253017   1.110   2.387   2.417  1.4803 -1.4371  1.0379
14363SOL     OW53018   1.604   7.430  12.707 -0.4220  0.7643 -0.3746
14363SOL    HW153019   1.605   7.356  12.768 -1.0448  0.5601 -0.6086
14363SOL    HW253020   1.561   7.500  12.756 -0.8980  0.6087 -0.5709
14364SOL     OW53021  12.176  11.538   8.400 -0.4847  0.3543 -0.3262
14364SOL    HW153022  12.145  11.613   8.348  2.1578  1.4323 -0.5057
14364SOL    HW253023  12.191  11.575   8.488 -0.3744 -0.3009 -0.0655
14365SOL     OW53024   6.098   4.353   2.458 -0.1852 -0.3837  0.8806
14365SOL    HW153025   6.043   4.412   2.407 -0.3149  0.6479  2.1477
14365SOL    HW253026   6.101   4.273   2.407  2.4129  1.5808 -2.4256
14366SOL     OW53027   4.616   4.851   5.667  0.2002  0.2650 -0.2707
14366SOL    HW153028   4.687   4.848   5.604 -0.0783 -0.5550 -0.5600
14366SOL    HW253029   4.584   4.761   5.672  0.7525  0.1304  1.6575
14367SOL     OW53030   8.240   9.518   5.958 -0.1597 -0.4007 -0.4653
14367SOL    HW153031   8.253   9.566   5.876  1.2526  1.1706  0.6061
14367SOL    HW253032   8.309   9.452   5.958 -1.5834 -1.9956 -1.5425
14368SOL     OW53033   0.991  13.248   9.626  0.2976 -0.1731  0.3211
14368SOL    HW153034   0.942  13.171   9.599 -0.1923 -0.0182  0.7367
14368SOL    HW253035   1.063  13.214   9.679  1.1492 -0.4635 -0.9692
14369SOL     OW53036   3.884   7.194  11.489  0.3379 -0.0360  0.7342
14369SOL    HW153037   3.839   7.112  11.508 -0.9141  0.0001 -1.7215
14369SOL    HW253038   3.962   7.168  11.439 -0.6848  0.2549 -1.1090
14370SOL     OW53039   2.977   1.274   0.709  0.5833 -0.6464  0.3378
14370SOL    HW153040   3.023   1.214   0.650  2.5787 -0.4092  1.5351
14370SOL    HW253041   2.970   1.356   0.660 -0.3508 -1.2522 -0.5736
14371SOL     OW53042   8.191  10.825   2.489 -0.0430 -0.8609 -0.7365
14371SOL    HW153043   8.142  10.798   2.567  2.0158  0.5211  1.1581
14371SOL    HW253044   8.280  10.796   2.506  0.4963 -0.3314 -2.5062
14372SOL     OW53045  10.520   8.064  13.117 -0.1706 -0.1353  0.0897
14372SOL    HW153046  10.476   8.148  13.126 -0.6090 -0.3108 -0.3602
14372SOL    HW253047  10.585   8.063  13.187 -0.1608  0.5759  0.0971
14373SOL     OW53048   2.861   4.434  11.492  0.3734  0.1753  0.4956
14373SOL    HW153049   2.850   4.511  11.435  1.1435 -1.0355 -1.4108
14373SOL    HW253050   2.956   4.426  11.503  0.3635 -1.0017 -0.1042
14374SOL     OW53051   0.348  12.548   0.510 -0.8524 -0.3598 -0.3588
14374SOL    HW153052   0.283  12.594   0.457 -0.0677  0.4438 -0.6395
14374SOL    HW253053   0.403  12.617   0.547 -0.1188 -1.0279 -0.1680
14375SOL     OW53054   9.994  12.631   1.625 -0.5238 -0.3659 -0.0635
14375SOL    HW153055   9.912  12.588   1.649 -0.0224 -1.4075 -0.1631
14375SOL    HW253056  10.049  12.622   1.703 -0.4710  0.2468 -0.0295
14376SOL     OW53057   1.513   1.703   9.321  0.3361 -0.0940  0.1490
14376SOL    HW153058   1.460   1.629   9.352 -0.7163  1.1610  1.4724
14376SOL    HW253059   1.506   1.768   9.390  1.1217  1.3185 -1.0475
14377SOL     OW53060   7.258   3.300   2.736  0.0826 -0.2956  0.0709
14377SOL    HW153061   7.245   3.231   2.800 -1.8199  0.2055  0.2967
14377SOL    HW253062   7.316   3.363   2.779  1.5486 -1.5355 -0.0156
14378SOL     OW53063  10.720   7.633   9.627  0.4722  0.6258  0.0762
14378SOL    HW153064  10.742   7.549   9.586 -0.7419  0.7345 -0.8488
14378SOL    HW253065  10.722   7.696   9.554 -2.7881  0.6485 -0.1003
14379SOL     OW53066  10.632   5.224  11.270  0.0102 -0.9461  0.7912
14379SOL    HW153067  10.690   5.232  11.194  0.8199 -1.5035  1.3302
14379SOL    HW253068  10.666   5.288  11.332 -0.8577 -0.2536  0.5733
14380SOL     OW53069  12.505   3.852   2.593  0.2063  0.4260  0.2735
14380SOL    HW153070  12.594   3.884   2.604  0.5120  0.1130 -1.1431
14380SOL    HW253071  12.504   3.767   2.638  1.7912 -1.4421 -2.9218
14381SOL     OW53072   7.482   4.873  12.976 -0.0784 -0.1024  0.1118
14381SOL    HW153073   7.532   4.813  13.032  1.1445  1.0670  0.3220
14381SOL    HW253074   7.429   4.924  13.038 -2.8754 -2.3842 -0.1881
14382SOL     OW53075   9.100  12.980   7.044  0.3907 -0.6024 -0.8206
14382SOL    HW153076   9.194  12.983   7.027  0.5479  0.5117  0.0991
14382SOL    HW253077   9.067  13.062   7.008 -0.0802 -0.5753 -0.3294
14383SOL     OW53078   7.282   9.661   4.300  0.2046  0.0305 -0.3304
14383SOL    HW153079   7.286   9.689   4.392 -2.0177  0.7609 -0.4037
14383SOL    HW253080   7.342   9.721   4.255  0.5796  0.3038  0.4964
14384SOL     OW53081  12.202  10.469   3.335  0.2453 -0.3028  0.3418
14384SOL    HW153082  12.206  10.423   3.419 -2.1676 -0.3600  0.4812
14384SOL    HW253083  12.168  10.404   3.274  0.7938  0.1090 -0.4164
14385SOL     OW53084  12.003   9.002   7.312  0.2380  0.1091 -0.2268
14385SOL    HW153085  11.931   9.059   7.287  2.0161  2.1268 -0.9614
14385SOL    HW253086  12.052   9.053   7.377  0.8059 -1.4035  0.5826
14386SOL     OW53087  11.748  11.538   2.688 -0.5228 -0.4358 -0.9068
14386SOL    HW153088  11.716  11.591   2.761  1.1267  1.0320 -1.1786
14386SOL    HW253089  11.803  11.598   2.637 -1.3060 -1.5115 -3.1639
14387SOL     OW53090  11.131  12.718   3.105 -0.4546  0.7531  0.5917
14387SOL    HW153091  11.159  12.660   3.175  0.9987  0.4646 -0.1812
14387SOL    HW253092  11.102  12.798   3.150  0.3756  0.5454  1.5320
14388SOL     OW53093   4.372   1.768   4.030 -0.3561  0.2578  0.1311
14388SOL    HW153094   4.322   1.825   3.971 -1.4271 -0.2637  0.5111
14388SOL    HW253095   4.448   1.820   4.056  0.2307  0.4616 -1.7989
14389SOL     OW53096   0.095   6.062  10.420 -0.4896  0.5754 -0.4931
14389SOL    HW153097   0.013   6.054  10.370 -0.8188 -2.0265  0.3442
14389SOL    HW253098   0.163   6.033  10.360 -0.8503 -2.2466  0.3218
14390SOL     OW53099  11.959   8.378   6.957 -0.3345 -1.2719  0.4067
14390SOL    HW153100  12.043   8.375   6.912 -0.4891 -2.0462  0.1603
14390SOL    HW253101  11.958   8.465   6.998 -0.2646 -0.4773 -1.1904
14391SOL     OW53102  12.496  10.708  11.974 -0.3419  0.4576  0.1063
14391SOL    HW153103  12.449  10.762  12.037 -2.0528  0.3731 -1.0218
14391SOL    HW253104  12.456  10.730  11.889  1.2142 -0.1335 -0.8200
14392SOL     OW53105   8.170  10.050   8.181  0.1708 -0.2605  0.0738
14392SOL    HW153106   8.130   9.990   8.117  0.0611  0.7867 -0.8842
14392SOL    HW253107   8.260  10.020   8.189 -0.4348 -1.9065  1.3306
14393SOL     OW53108   0.791   3.221   3.099  0.1285 -0.5509  0.0996
14393SOL    HW153109   0.837   3.298   3.132  1.3869 -1.4012  0.4100
14393SOL    HW253110   0.698   3.244   3.103  0.4192  0.4725  1.4028
14394SOL     OW53111  11.447  10.876   2.939  0.0200  0.4443  0.0043
14394SOL    HW153112  11.466  10.799   2.886 -0.7640  0.3545 -0.1567
14394SOL    HW253113  11.529  10.894   2.985  0.0250 -0.9041  0.5808
14395SOL     OW53114   4.918   2.906  10.394  0.7142  0.8860 -0.3144
14395SOL    HW153115   4.867   2.836  10.353  0.5310  0.4659  0.6162
14395SOL    HW253116   4.875   2.987  10.365 -0.5539  0.5390  0.5315
14396SOL     OW53117   5.001   2.930   9.581 -0.2335 -1.2670  0.0608
14396SOL    HW153118   4.966   2.984   9.511  1.9399 -1.4609 -1.2731
14396SOL    HW253119   4.983   2.979   9.661  1.7459  1.5945 -1.0852
14397SOL     OW53120   4.465  13.279   6.417 -0.3653 -0.3249  0.0651
14397SOL    HW153121   4.550  13.278   6.374 -0.3087 -1.4037  0.1778
14397SOL    HW253122   4.408  13.326   6.357  0.4402  0.9819  0.2740
14398SOL     OW53123   6.313   6.397   1.955  0.7312 -0.0114 -0.2308
14398SOL    HW153124   6.227   6.396   1.913  0.6908 -0.3890 -0.1437
14398SOL    HW253125   6.375   6.400   1.882  0.6608 -0.6335 -0.3205
14399SOL     OW53126   6.901  10.340   7.011 -0.5578 -0.2729 -0.3158
14399SOL    HW153127   6.849  10.299   7.080 -1.6908 -1.1852 -1.6519
14399SOL    HW253128   6.954  10.269   6.975 -0.2446  0.1120 -0.6232
14400SOL     OW53129   0.960   7.179   2.982  0.2604  0.2425  0.3995
14400SOL    HW153130   0.924   7.188   3.071 -0.2695 -0.9645  0.3286
14400SOL    HW253131   0.899   7.121   2.937 -1.0580  3.0375 -1.6871
14401SOL     OW53132  13.231   7.137  12.370  0.7707  0.1499 -0.2679
14401SOL    HW153133  13.323   7.112  12.378  0.4445 -0.9185  0.3321
14401SOL    HW253134  13.219   7.151  12.276  1.1141 -1.5232 -0.6050
14402SOL     OW53135  12.828   9.252   2.207 -0.6535 -0.0895  0.2218
14402SOL    HW153136  12.783   9.175   2.241  1.0428 -0.8218  0.9710
14402SOL    HW253137  12.915   9.247   2.247  0.4910  0.5939 -2.0468
14403SOL     OW53138   5.906   8.955  12.504  0.0943 -0.0916  0.1878
14403SOL    HW153139   5.830   8.916  12.462  0.8247 -0.6834 -0.5955
14403SOL    HW253140   5.871   9.032  12.550 -1.2067 -1.1221  1.0060
14404SOL     OW53141   1.197   6.790   3.966  0.1895 -0.2869  0.3171
14404SOL    HW153142   1.253   6.731   3.916  1.2571  1.9534 -1.3139
14404SOL    HW253143   1.124   6.810   3.906 -0.9126 -0.9732  1.3728
14405SOL     OW53144   4.764   0.818   2.394  0.8079  0.3789  0.1905
14405SOL    HW153145   4.768   0.727   2.422  1.8380  0.0333 -0.9836
14405SOL    HW253146   4.781   0.868   2.474 -1.1684 -0.3654  1.1458
14406SOL     OW53147   0.601  11.135   7.905  0.4505 -0.1193  0.5828
14406SOL    HW153148   0.599  11.113   7.812  0.5090 -1.5629  0.9058
14406SOL    HW253149   0.640  11.222   7.908  0.6031 -0.1242 -0.7235
14407SOL     OW53150   6.720   0.385   0.715  0.1710  0.2164 -0.0081
14407SOL    HW153151   6.641   0.393   0.769  2.0222  1.8366  2.6649
14407SOL    HW253152   6.726   0.291   0.696 -1.5786 -0.1459  1.0059
14408SOL     OW53153   0.924  11.516   7.363 -0.0173 -0.4491 -0.0948
14408SOL    HW153154   0.862  11.493   7.433  0.8639 -0.1515  0.8052
14408SOL    HW253155   0.939  11.434   7.317 -0.0474 -0.8150  0.5236
14409SOL     OW53156   7.291   8.280   2.348 -0.0905 -0.1052 -0.4256
14409SOL    HW153157   7.235   8.202   2.340  0.6050 -0.6234 -0.3756
14409SOL    HW253158   7.342   8.264   2.428 -0.1061  0.5164 -0.2869
14410SOL     OW53159   2.387  12.223   4.802 -0.3266 -0.4465  0.1163
14410SOL    HW153160   2.431  12.301   4.768 -1.3041  0.3921  0.7149
14410SOL    HW253161   2.330  12.195   4.731 -0.9154  0.1537  0.3346
14411SOL     OW53162   7.804  11.141   4.860 -0.2290  0.0827 -0.3031
14411SOL    HW153163   7.735  11.164   4.797 -0.7651  0.7833  0.5237
14411SOL    HW253164   7.885  11.152   4.811 -0.6891 -0.8829 -1.3376
14412SOL     OW53165   7.819   1.827   3.313 -0.0694 -0.3946 -0.4588
14412SOL    HW153166   7.853   1.905   3.270 -0.1856 -1.3754 -2.4277
14412SOL    HW253167   7.871   1.755   3.278 -0.1411 -1.2577  1.1192
14413SOL     OW53168   5.875   7.925   6.326 -0.0229  0.2201 -0.1789
14413SOL    HW153169   5.811   7.968   6.382  0.0660  0.8944 -0.5890
14413SOL    HW253170   5.900   7.846   6.374  0.5481  1.1118  1.0334
14414SOL     OW53171  11.682  11.240   2.731  0.8935  0.7962  0.2976
14414SOL    HW153172  11.596  11.210   2.701  0.1461  0.9907  2.1098
14414SOL    HW253173  11.687  11.332   2.703 -0.1439  1.2222  1.4258
14415SOL     OW53174   4.353   5.171   0.110 -0.1217 -0.2992 -0.6632
14415SOL    HW153175   4.436   5.216   0.092 -0.5419  0.8047  0.0245
14415SOL    HW253176   4.297   5.192   0.035 -0.1645 -0.0531 -0.5637
14416SOL     OW53177  12.321   8.194  10.502  0.6170  0.6083  0.2287
14416SOL    HW153178  12.337   8.100  10.512  1.4175  0.7174  0.0591
14416SOL    HW253179  12.226   8.203  10.509  0.6957  0.2153  3.9612
14417SOL     OW53180   3.645   8.045   9.139 -0.5497 -0.0169 -0.2158
14417SOL    HW153181   3.735   8.072   9.119 -0.9359  0.8304 -0.8585
14417SOL    HW253182   3.622   8.092   9.219 -1.2622  1.7252 -1.3961
14418SOL     OW53183  12.827  11.351   9.324 -0.2499 -0.3781 -0.5442
14418SOL    HW153184  12.843  11.261   9.296 -1.8289 -0.2461 -2.0307
14418SOL    HW253185  12.898  11.402   9.284  1.9068 -1.1594  2.0314
14419SOL     OW53186   0.272  10.126   6.902  0.3070  0.0772  0.7279
14419SOL    HW153187   0.290  10.032   6.900  1.9760  0.3315 -2.1048
14419SOL    HW253188   0.186  10.135   6.861  1.5602 -0.1116 -2.1733
14420SOL     OW53189   4.101   9.394   1.689 -0.5650  0.1832 -0.0258
14420SOL    HW153190   4.032   9.459   1.673 -0.4503  0.1602 -0.6379
14420SOL    HW253191   4.090   9.370   1.781 -2.2016 -0.7858 -0.4352
14421SOL     OW53192   7.147   5.895   5.866 -0.3142 -0.4557 -0.0479
14421SOL    HW153193   7.205   5.860   5.934 -0.9006 -0.0297  0.6783
14421SOL    HW253194   7.187   5.866   5.784  3.9228  3.8946 -0.0071
14422SOL     OW53195   3.228   3.816   2.117  0.8087 -0.2760 -0.4409
14422SOL    HW153196   3.133   3.805   2.106  0.7092 -0.3989  0.5090
14422SOL    HW253197   3.245   3.791   2.208  1.0586  4.0784  0.9289
14423SOL     OW53198   8.199   1.290   3.808  0.4037 -0.3313 -0.4363
14423SOL    HW153199   8.235   1.364   3.760 -1.0774  0.0918 -0.9575
14423SOL    HW253200   8.259   1.276   3.881  0.3733  1.7974  0.0446
14424SOL     OW53201   3.678   8.883  10.635  0.4768  0.5574  0.3727
14424SOL    HW153202   3.704   8.850  10.721  1.3349 -0.4771 -0.2679
14424SOL    HW253203   3.721   8.825  10.572  0.4138  1.7097 -0.7781
14425SOL     OW53204  13.171   4.210   3.196  0.1581  0.5158  0.0667
14425SOL    HW153205  13.111   4.158   3.250 -0.2388  0.5241 -0.3544
14425SOL    HW253206  13.218   4.264   3.259 -0.3850  0.6145  0.4042
14426SOL     OW53207   8.638   6.472   0.508 -0.1139  0.1401  0.2510
14426SOL    HW153208   8.620   6.381   0.483  1.0118  0.0352 -0.2426
14426SOL    HW253209   8.560   6.520   0.481 -2.0316 -1.0671  3.1199
14427SOL     OW53210   9.171   2.191   3.807  0.1329 -0.7957  0.0300
14427SOL    HW153211   9.176   2.129   3.880 -0.3704 -1.1340 -0.2136
14427SOL    HW253212   9.204   2.142   3.732  0.4490 -0.5167 -0.0149
14428SOL     OW53213  12.390   8.828   0.360  0.4650 -0.0775 -0.1894
14428SOL    HW153214  12.300   8.821   0.394  0.0916  1.9569 -0.6548
14428SOL    HW253215  12.395   8.762   0.291 -1.1557  0.7770 -1.1528
14429SOL     OW53216   1.012   5.938   9.799 -0.0750 -1.0424 -0.3456
14429SOL    HW153217   1.063   5.857   9.800 -0.4765 -1.4062 -2.6226
14429SOL    HW253218   0.990   5.951   9.706  0.2717  1.8636 -0.1356
14430SOL     OW53219   8.968   9.227  10.006  0.5425  0.1378  0.0057
14430SOL    HW153220   9.015   9.144  10.003  2.9162  1.3193  1.8515
14430SOL    HW253221   9.031   9.293   9.977 -0.3605  1.6542  1.2894
14431SOL     OW53222   6.463  12.069   0.459 -0.5088 -0.7800 -0.4562
14431SOL    HW153223   6.404  12.141   0.435 -0.5607 -0.1467  1.4095
14431SOL    HW253224   6.468  12.015   0.380 -2.3002  0.0255 -1.1805
14432SOL     OW53225  12.252   5.080   0.056 -0.6160  0.0244 -0.2607
14432SOL    HW153226  12.157   5.067   0.054 -0.6169  0.0833 -2.2517
14432SOL    HW253227  12.265   5.172   0.035 -0.1065 -0.0406 -0.2613
14433SOL     OW53228   7.486   8.323   1.637  0.6160  0.1692  0.0366
14433SOL    HW153229   7.487   8.417   1.657  2.2892  0.2547 -0.2643
14433SOL    HW253230   7.572   8.307   1.597  0.0261 -1.3315 -0.6786
14434SOL     OW53231   7.210   0.748   8.149 -0.2673 -0.0250 -0.3922
14434SOL    HW153232   7.213   0.838   8.116  2.5569  0.4686  0.9096
14434SOL    HW253233   7.153   0.752   8.226  0.9079  0.9865  0.4502
14435SOL     OW53234   1.323  12.820   6.787 -0.1124  0.2876  0.9924
14435SOL    HW153235   1.328  12.725   6.790 -0.7034  0.2395  0.6593
14435SOL    HW253236   1.328  12.847   6.879  0.0833 -0.0606  1.0863
14436SOL     OW53237   3.242   6.924   0.227 -0.7706  0.4538  0.0991
14436SOL    HW153238   3.227   7.015   0.249 -2.0808 -0.1221  1.8426
14436SOL    HW253239   3.319   6.925   0.171  0.1737  2.4845  1.3135
14437SOL     OW53240   3.594   0.654   1.211  0.0349  0.5533 -0.0626
14437SOL    HW153241   3.522   0.599   1.181  0.3726 -0.6866  1.2644
14437SOL    HW253242   3.667   0.631   1.154 -0.5863  1.8941 -1.4848
14438SOL     OW53243  11.483   0.240  10.758 -0.0625 -0.0244  0.0205
14438SOL    HW153244  11.506   0.175  10.824  0.5782 -1.1290 -1.2453
14438SOL    HW253245  11.403   0.207  10.717 -0.0688  0.2885 -0.2288
14439SOL     OW53246   4.557   4.204   6.630  0.1922 -0.2473 -0.1263
14439SOL    HW153247   4.555   4.246   6.544  0.0925  1.0227  0.4727
14439SOL    HW253248   4.579   4.275   6.691 -0.5920 -0.9366  0.9954
14440SOL     OW53249  11.712   4.382   0.451  0.0577 -0.6085  0.3392
14440SOL    HW153250  11.760   4.465   0.452  1.2801 -1.1924 -2.1777
14440SOL    HW253251  11.675   4.375   0.539 -0.9529  3.0518  0.3709
14441SOL     OW53252  11.147   2.409   1.352 -0.0315  0.4352  1.0043
14441SOL    HW153253  11.120   2.327   1.310  1.1000 -0.3045  1.6426
14441SOL    HW253254  11.072   2.467   1.342 -0.3752 -0.2298 -0.6305
14442SOL     OW53255  12.766  12.253   2.289 -0.4127  0.3571  0.3761
14442SOL    HW153256  12.725  12.260   2.202  0.1269  1.4377  0.1935
14442SOL    HW253257  12.847  12.205   2.274 -0.3748  0.4455  0.2896
14443SOL     OW53258   0.752  12.169   6.488 -0.9220  0.5163 -0.1784
14443SOL    HW153259   0.787  12.199   6.573  1.0017 -1.6856 -0.0675
14443SOL    HW253260   0.830  12.159   6.433 -1.8812 -0.4139 -1.4233
14444SOL     OW53261  10.323   7.675  11.488  0.0475  0.4686  0.6796
14444SOL    HW153262  10.329   7.755  11.539  1.2994 -0.7476  2.5705
14444SOL    HW253263  10.414   7.646  11.477 -0.0630  0.9304 -2.8491
14445SOL     OW53264   1.499  11.460  11.298 -0.0917 -0.5206  0.2423
14445SOL    HW153265   1.497  11.375  11.344 -0.2460 -0.5740  0.1354
14445SOL    HW253266   1.578  11.455  11.243  0.2851 -0.3229  0.7535
14446SOL     OW53267  12.388   1.513   6.041 -0.4042 -0.3274 -0.0391
14446SOL    HW153268  12.320   1.511   5.973  1.1362 -0.2430 -1.6417
14446SOL    HW253269  12.457   1.568   6.004  1.4637 -2.1055  0.6412
14447SOL     OW53270   6.830   6.281   5.239 -0.1939  0.1187  0.5905
14447SOL    HW153271   6.784   6.277   5.322 -1.4555 -1.4820 -0.1313
14447SOL    HW253272   6.872   6.196   5.230  1.2102  0.8117  0.2658
14448SOL     OW53273   2.492   2.744   5.295 -0.0668 -0.3234 -0.4395
14448SOL    HW153274   2.454   2.672   5.246  1.3189 -0.5082 -1.3041
14448SOL    HW253275   2.567   2.705   5.341 -0.2997  0.2235  0.4370
14449SOL     OW53276   3.009   4.595  10.128 -0.2369  0.5382 -0.3511
14449SOL    HW153277   3.007   4.499  10.126 -1.1038  0.5426 -0.2734
14449SOL    HW253278   2.919   4.621  10.110  0.0645  1.3523 -0.7297
14450SOL     OW53279   9.909   3.926   1.341  0.1381 -0.3805 -0.7763
14450SOL    HW153280   9.913   3.931   1.246 -0.3024 -1.8398 -0.8926
14450SOL    HW253281   9.832   3.979   1.364  0.2020 -0.0835 -1.2312
14451SOL     OW53282   1.484   0.293  13.002  0.0986  0.1268  0.6530
14451SOL    HW153283   1.540   0.316  13.076  1.1406  1.3925 -0.4684
14451SOL    HW253284   1.543   0.249  12.940 -0.7954 -1.0831  0.6323
14452SOL     OW53285  12.380  12.634   6.933  0.3211  0.9169 -0.6710
14452SOL    HW153286  12.366  12.686   7.013 -1.4291 -1.0291  0.3820
14452SOL    HW253287  12.317  12.669   6.871 -0.2757  0.6211 -0.2413
14453SOL     OW53288   1.262   3.237  12.322 -0.9150 -0.3117 -0.2081
14453SOL    HW153289   1.186   3.220  12.266 -0.4829  2.9301 -2.0299
14453SOL    HW253290   1.335   3.192  12.279 -1.0933 -0.1469 -0.6862
14454SOL     OW53291  12.018   8.595   3.816 -0.2243 -0.1840 -0.0356
14454SOL    HW153292  11.946   8.570   3.874 -0.4943 -1.0795 -0.7461
14454SOL    HW253293  12.090   8.618   3.876 -1.0236  0.5571  0.6780
14455SOL     OW53294   0.561   6.419   0.377 -0.1068 -0.2698  0.0971
14455SOL    HW153295   0.543   6.343   0.322  2.3266 -0.7980 -0.0874
14455SOL    HW253296   0.565   6.492   0.316  2.3527 -0.8188 -0.5258
14456SOL     OW53297   9.997   4.213   2.312  0.2088  0.0240  0.5409
14456SOL    HW153298  10.090   4.209   2.333  0.8527  1.9774 -1.5900
14456SOL    HW253299   9.970   4.302   2.336 -0.4243  0.3593 -1.2531
14457SOL     OW53300   6.248   5.778   5.381 -0.0237  0.5349 -0.4108
14457SOL    HW153301   6.206   5.838   5.442  0.4334 -0.3578  0.8366
14457SOL    HW253302   6.184   5.765   5.311 -0.3564  1.9837 -0.4027
14458SOL     OW53303  10.594   2.286   2.418  0.1310 -0.4413  0.0402
14458SOL    HW153304  10.527   2.266   2.353  0.0377  0.8573 -0.2802
14458SOL    HW253305  10.622   2.375   2.398  1.1378 -0.5459  0.8862
14459SOL     OW53306   1.179   0.346   0.320 -0.6956 -0.0797  0.7062
14459SOL    HW153307   1.271   0.327   0.340 -0.6368 -0.5237  0.0751
14459SOL    HW253308   1.134   0.262   0.331 -0.8447 -0.0902  0.0588
14460SOL     OW53309   4.875   1.398   1.614  0.4400  0.0959 -0.1218
14460SOL    HW153310   4.831   1.322   1.652 -1.0631  0.0622 -1.7666
14460SOL    HW253311   4.967   1.387   1.636  0.1430 -1.8042  0.3055
14461SOL     OW53312   1.869   6.212   4.613 -0.4889  0.0316 -0.2617
14461SOL    HW153313   1.796   6.240   4.559  0.7842  1.0216 -1.5486
14461SOL    HW253314   1.891   6.290   4.665 -0.2285 -0.2022 -0.0161
14462SOL     OW53315   4.928   2.633   2.322 -0.5576  0.5327 -0.2058
14462SOL    HW153316   4.835   2.612   2.321 -0.2032 -1.3257  0.7620
14462SOL    HW253317   4.932   2.726   2.343 -2.1516  0.1199  2.2822
14463SOL     OW53318  10.953   6.745  12.525  0.1726  0.3615 -0.1699
14463SOL    HW153319  10.994   6.688  12.460 -0.1604 -0.9781  0.7431
14463SOL    HW253320  11.025   6.772  12.582 -0.0770 -1.7180  1.2332
14464SOL     OW53321   0.727  13.103  11.201  0.0102 -0.1565  0.2062
14464SOL    HW153322   0.685  13.060  11.276 -0.7747 -0.1387 -0.2240
14464SOL    HW253323   0.687  13.062  11.124 -1.3906  1.9330 -0.2381
14465SOL     OW53324   6.087   0.302  12.211 -0.4984 -0.2137  0.3131
14465SOL    HW153325   6.141   0.370  12.171 -0.3023 -1.5983 -1.9218
14465SOL    HW253326   6.115   0.221  12.169 -3.3396 -1.1739  0.1018
14466SOL     OW53327  12.258   7.159   7.802  0.3471  0.2301  0.2894
14466SOL    HW153328  12.237   7.139   7.893 -1.9676 -1.3885 -0.5040
14466SOL    HW253329  12.200   7.232   7.779  1.1152  0.8164  0.1608
14467SOL     OW53330   8.264   3.184   1.893 -0.1722 -0.0995  0.0227
14467SOL    HW153331   8.204   3.248   1.856  1.7252  0.7304 -1.8705
14467SOL    HW253332   8.351   3.218   1.872  0.9458 -2.2973  0.7422
14468SOL     OW53333   9.780  12.128  12.131 -0.1233 -0.1093 -0.4203
14468SOL    HW153334   9.822  12.068  12.069 -0.7931  0.2126 -1.2103
14468SOL    HW253335   9.694  12.144  12.094 -0.9623 -0.7470  1.1716
14469SOL     OW53336   4.533   8.145   0.226  0.0974  0.4608  0.0304
14469SOL    HW153337   4.484   8.227   0.227  0.2674  0.5658  1.0656
14469SOL    HW253338   4.605   8.161   0.165 -0.6216  0.6182 -0.7900
14470SOL     OW53339  11.546  11.601   1.137  0.5391  0.1596  0.3542
14470SOL    HW153340  11.557  11.694   1.115  1.6714 -0.4735 -2.1959
14470SOL    HW253341  11.617  11.557   1.089 -1.4179 -2.2654 -0.5467
14471SOL     OW53342  10.739  11.388   9.799 -0.2118  0.6057  0.0529
14471SOL    HW153343  10.684  11.364   9.874  0.2888 -0.7512  0.0150
14471SOL    HW253344  10.828  11.373   9.829  0.0887  1.6145 -0.2973
14472SOL     OW53345  12.982   7.950   8.396  0.1390  0.5156 -0.6401
14472SOL    HW153346  12.978   7.945   8.300  0.6964  0.3555 -0.6614
14472SOL    HW253347  13.047   7.883   8.420  0.9594  1.4319 -0.2483
14473SOL     OW53348   0.689   4.466   8.357 -0.4040 -0.0137 -0.1956
14473SOL    HW153349   0.739   4.397   8.313 -0.8672 -0.4922  0.0088
14473SOL    HW253350   0.598   4.439   8.346 -0.6053  0.7074 -0.3360
14474SOL     OW53351   1.621  12.598   5.069 -0.5725  0.6581 -1.0790
14474SOL    HW153352   1.664  12.594   5.155  1.8495 -1.4154 -2.2587
14474SOL    HW253353   1.528  12.592   5.089 -0.0430 -0.9720  1.3847
14475SOL     OW53354  10.740  11.252   4.140  0.4945  0.2590  0.2643
14475SOL    HW153355  10.800  11.247   4.214  1.9159 -0.4376 -0.8913
14475SOL    HW253356  10.762  11.176   4.086 -1.2772  0.1183 -0.3205
14476SOL     OW53357   0.766   3.412   5.619  0.0600 -0.3020 -0.2235
14476SOL    HW153358   0.685   3.413   5.670 -0.3066  1.9823 -0.7269
14476SOL    HW253359   0.776   3.321   5.592 -1.0899 -1.0850  1.7576
14477SOL     OW53360  11.640   4.589  12.354 -0.0582 -0.0980 -0.5723
14477SOL    HW153361  11.635   4.677  12.318  0.3746  1.0658  1.9761
14477SOL    HW253362  11.731   4.580  12.381 -0.3033 -0.9936 -0.0158
14478SOL     OW53363  11.767   8.940   5.072 -0.2795  0.1610 -0.0542
14478SOL    HW153364  11.785   8.884   4.997  0.6075  1.2704 -0.6832
14478SOL    HW253365  11.717   9.013   5.037 -1.6513 -0.3211  0.8061
14479SOL     OW53366   0.162   9.491   5.604  0.0076  0.0411 -0.3281
14479SOL    HW153367   0.154   9.443   5.522  2.8298 -2.2417  0.5557
14479SOL    HW253368   0.120   9.434   5.669  2.7656 -1.0780  0.6201
14480SOL     OW53369   2.590  11.407  12.126  0.3927  0.3132  0.1354
14480SOL    HW153370   2.652  11.338  12.150 -0.2860 -0.5379 -0.5215
14480SOL    HW253371   2.587  11.463  12.204 -0.1140 -1.1880  1.2501
14481SOL     OW53372   7.566   8.318  10.038 -0.6210  0.4394  0.6128
14481SOL    HW153373   7.532   8.394   9.990 -0.5332  0.5082  0.6592
14481SOL    HW253374   7.489   8.282  10.082 -0.5062  1.0458  1.3268
14482SOL     OW53375   1.105   5.848   5.139  0.2770  0.3526  0.5293
14482SOL    HW153376   1.085   5.759   5.168 -1.0295  0.4645  0.0573
14482SOL    HW253377   1.019   5.888   5.123  0.8094  1.8855  1.2682
14483SOL     OW53378   2.262  13.086  10.899  0.0058 -0.0491  0.1085
14483SOL    HW153379   2.306  13.088  10.984  1.8800  0.1966 -0.8203
14483SOL    HW253380   2.185  13.031  10.913 -0.4636  1.0851  2.2836
14484SOL     OW53381  12.477   0.599   0.673 -0.1735  0.3969 -0.4318
14484SOL    HW153382  12.431   0.519   0.698 -0.6543  1.1234  1.1203
14484SOL    HW253383  12.568   0.583   0.696 -0.5750  0.9731  1.7376
14485SOL     OW53384   8.479   2.659   0.861  0.3498 -0.4898 -0.2161
14485SOL    HW153385   8.572   2.650   0.882  0.3208 -1.4795 -0.4608
14485SOL    HW253386   8.435   2.594   0.916 -0.1111 -0.5868 -0.6879
14486SOL     OW53387  12.659  10.098   6.334  0.0869  0.0663  0.2236
14486SOL    HW153388  12.713  10.172   6.305 -2.6149  1.6943 -1.0116
14486SOL    HW253389  12.679  10.028   6.271  1.8999  0.0344  0.7765
14487SOL     OW53390   4.230   0.339   4.633  0.0701  0.5481 -0.1920
14487SOL    HW153391   4.189   0.276   4.574  0.2687 -1.6688  1.8972
14487SOL    HW253392   4.316   0.356   4.594  0.2104 -0.8874 -0.5609
14488SOL     OW53393  10.755   9.275   7.103 -0.0619  0.0709  0.2623
14488SOL    HW153394  10.849   9.270   7.085  0.2306 -0.6086  1.7989
14488SOL    HW253395  10.735   9.369   7.105  0.2346  0.2040 -1.6137
14489SOL     OW53396   4.263   0.477   9.151  0.3027  0.0852  0.4226
14489SOL    HW153397   4.302   0.538   9.088  0.0888  0.0029  0.2101
14489SOL    HW253398   4.321   0.401   9.150  0.1411 -0.0342  0.1105
14490SOL     OW53399   4.806  10.515   0.762 -0.0462 -0.5691  0.0775
14490SOL    HW153400   4.789  10.461   0.685 -2.1447 -1.2786  0.9573
14490SOL    HW253401   4.861  10.459   0.818 -0.5632 -1.0253  0.1382
14491SOL     OW53402   7.475   2.981   3.569 -0.5758 -0.3799  0.1575
14491SOL    HW153403   7.531   2.905   3.557  0.1067  0.0527  0.5465
14491SOL    HW253404   7.418   2.982   3.492 -2.3039 -2.6796  1.2858
14492SOL     OW53405   0.886   2.677  12.260 -0.2430 -0.0146  0.2607
14492SOL    HW153406   0.814   2.631  12.217  0.1473  0.2221 -0.6612
14492SOL    HW253407   0.950   2.609  12.279 -0.4352 -0.1263  0.5116
14493SOL     OW53408   4.504   8.524   4.298 -0.0730 -0.3844 -0.0298
14493SOL    HW153409   4.534   8.555   4.212  0.1872 -0.6410 -0.0340
14493SOL    HW253410   4.471   8.603   4.342  0.4558 -0.1211 -0.0921
14494SOL     OW53411  11.915   2.296   7.571 -0.0277 -0.4300  0.6950
14494SOL    HW153412  11.909   2.361   7.501 -0.4033 -1.0760  0.1181
14494SOL    HW253413  11.832   2.301   7.618  0.7690  1.0399  2.0582
14495SOL     OW53414   0.409  11.312  12.093 -0.1210  0.2482 -0.0989
14495SOL    HW153415   0.337  11.342  12.037  0.0307 -0.9610 -1.0112
14495SOL    HW253416   0.449  11.241  12.042  1.6572  0.8278  0.4313
14496SOL     OW53417   3.140   4.448   0.264 -0.0492 -0.3166  0.0844
14496SOL    HW153418   3.210   4.387   0.284  0.4328  0.1416 -0.1623
14496SOL    HW253419   3.179   4.535   0.277  0.0139 -0.0081 -1.8190
14497SOL     OW53420   3.631   8.457  11.880 -0.1125 -0.1138 -0.0035
14497SOL    HW153421   3.576   8.499  11.946 -3.0010  1.6469 -3.2395
14497SOL    HW253422   3.599   8.367  11.877  0.4940 -0.4047  1.3292
14498SOL     OW53423   9.338   5.130   0.413  0.5473  0.3803  0.1307
14498SOL    HW153424   9.297   5.106   0.496  0.2329  0.0807 -0.1075
14498SOL    HW253425   9.272   5.184   0.369  0.2179 -0.4607 -0.4426
14499SOL     OW53426   9.897   8.714  10.279  0.3579 -0.1624 -0.5734
14499SOL    HW153427   9.871   8.633  10.323  0.8661 -0.2566 -0.4385
14499SOL    HW253428   9.829   8.777  10.303 -0.1210 -0.5893 -0.8032
14500SOL     OW53429   2.127  12.977   5.193 -0.4066  0.4570 -0.0160
14500SOL    HW153430   2.217  12.995   5.218  0.1225 -1.4279 -0.4200
14500SOL    HW253431   2.133  12.940   5.105 -1.5561  0.1580  0.0128
14501SOL     OW53432   2.562   2.837   8.781 -0.0237 -0.1373 -0.2142
14501SOL    HW153433   2.610   2.776   8.836 -0.2477 -0.3380 -0.2399
14501SOL    HW253434   2.492   2.871   8.837  1.1597  1.4408  0.3526
14502SOL     OW53435   0.842   7.777   9.689 -0.4819  0.3381 -0.2405
14502SOL    HW153436   0.857   7.858   9.640 -1.4477  0.7993  0.1973
14502SOL    HW253437   0.847   7.803   9.780  1.4611 -0.5475 -0.0435
14503SOL     OW53438  12.050   9.151   7.000 -0.0336  0.4316  0.7704
14503SOL    HW153439  12.062   9.056   7.008 -1.5129  0.0759 -0.6750
14503SOL    HW253440  12.070   9.185   7.087 -1.0326 -1.3916  1.7759
14504SOL     OW53441   4.381  11.576   8.653  0.3845  0.5064 -0.6509
14504SOL    HW153442   4.450  11.619   8.603 -1.0664  2.8461 -0.8026
14504SOL    HW253443   4.355  11.641   8.719  1.3158 -1.9422  2.3922
14505SOL     OW53444   5.649   0.161   6.829  0.3885  0.1912 -0.7086
14505SOL    HW153445   5.617   0.091   6.885  0.7837  0.5455 -0.0268
14505SOL    HW253446   5.638   0.128   6.740 -1.2522  0.0362 -0.4806
14506SOL     OW53447   9.712   2.661  12.765 -0.0290  0.1741 -0.4954
14506SOL    HW153448   9.758   2.669  12.681  1.2281 -1.4839 -0.0326
14506SOL    HW253449   9.779   2.625  12.824 -1.1329  0.5084  0.9891
14507SOL     OW53450   0.805   3.397  10.303 -0.5162  0.1139 -0.0282
14507SOL    HW153451   0.883   3.392  10.248  0.0225  0.5555  0.6736
14507SOL    HW253452   0.772   3.486  10.292  0.1480  0.5190  1.0691
14508SOL     OW53453  12.033  10.033   8.620 -0.2115  0.2381 -0.4338
14508SOL    HW153454  12.105  10.072   8.669  0.5299 -0.2455 -1.1153
14508SOL    HW253455  12.074   9.998   8.540 -1.1064 -0.5227 -0.5799
14509SOL     OW53456   0.257   7.761   1.750 -0.3501 -0.1654 -0.5060
14509SOL    HW153457   0.319   7.826   1.718 -0.0901 -0.0452  0.2218
14509SOL    HW253458   0.289   7.678   1.716 -0.0483 -0.0445 -0.5177
14510SOL     OW53459   5.857   9.463   8.814 -0.3975 -0.0525  0.6065
14510SOL    HW153460   5.923   9.505   8.869 -0.9637  0.4750  0.8970
14510SOL    HW253461   5.774   9.479   8.860 -1.0403  1.4019 -0.9512
14511SOL     OW53462   0.901  11.147  10.962 -0.2872 -0.1386  0.2473
14511SOL    HW153463   0.948  11.080  10.913  0.0173  0.6312 -0.5336
14511SOL    HW253464   0.856  11.199  10.895  1.0452  1.6285  0.6560
14512SOL     OW53465  11.437   7.464   7.317  0.3322 -0.1587  0.4588
14512SOL    HW153466  11.411   7.556   7.315 -0.0189 -0.2703 -0.6079
14512SOL    HW253467  11.417   7.435   7.406  0.2494  0.7403  0.7353
14513SOL     OW53468   2.324   4.448  10.279  0.2578 -0.1310  0.5256
14513SOL    HW153469   2.277   4.524  10.245  1.7243  0.1079 -1.1570
14513SOL    HW253470   2.258   4.396  10.324 -0.7626  2.2105  1.9053
14514SOL     OW53471  13.030   4.978   6.900  0.1915  0.4894 -0.2562
14514SOL    HW153472  13.055   5.040   6.968  1.7002 -0.9330  0.5506
14514SOL    HW253473  13.071   5.012   6.820  1.4646  0.2940  0.2833
14515SOL     OW53474   2.294  12.209   9.512  0.8391 -0.1558 -0.6515
14515SOL    HW153475   2.323  12.209   9.604  0.3872 -0.6202 -0.5071
14515SOL    HW253476   2.370  12.175   9.464  1.7053  1.6727 -0.6671
14516SOL     OW53477   6.941  11.783   8.283 -0.0160  0.4671  0.1280
14516SOL    HW153478   6.908  11.712   8.228  0.2383 -0.2532  0.8813
14516SOL    HW253479   6.924  11.862   8.233 -0.7420 -0.0876 -0.5239
14517SOL     OW53480   2.827   0.838   1.658 -0.3996  0.4025 -0.0842
14517SOL    HW153481   2.867   0.782   1.592 -0.6788  0.9515 -0.7329
14517SOL    HW253482   2.899   0.862   1.716 -0.5694 -2.0151  1.2644
14518SOL     OW53483   8.964   6.852   8.050  0.4989  0.4584 -0.7356
14518SOL    HW153484   9.043   6.849   7.995 -0.1086  1.4225 -1.7081
14518SOL    HW253485   8.996   6.839   8.139  1.7937  1.0499 -1.0878
14519SOL     OW53486   6.921   8.689   5.264  0.0103 -0.0745  0.7212
14519SOL    HW153487   7.013   8.696   5.290 -0.0554  1.1824  0.6567
14519SOL    HW253488   6.872   8.708   5.344 -0.1924 -0.4788  0.6934
14520SOL     OW53489   9.586   3.649  12.407 -0.1272 -0.0805 -0.4093
14520SOL    HW153490   9.564   3.558  12.387  0.1895 -0.3993  0.6040
14520SOL    HW253491   9.645   3.644  12.483 -0.8746  0.9957  0.2917
14521SOL     OW53492   6.277  11.043   0.480 -0.4442  0.1950  0.2626
14521SOL    HW153493   6.205  10.986   0.504  0.0217  0.0041  1.2687
14521SOL    HW253494   6.282  11.107   0.551  0.5947 -0.0155  0.3948
14522SOL     OW53495  11.242  10.114  11.015 -0.4300  0.6582  0.2383
14522SOL    HW153496  11.190  10.089  11.092 -1.0000 -0.5108 -0.4997
14522SOL    HW253497  11.291  10.035  10.993 -1.2743  0.5299 -1.3717
14523SOL     OW53498   4.523   4.277   4.716 -0.6790  0.4091 -0.7443
14523SOL    HW153499   4.548   4.343   4.651  0.1931 -1.0041 -1.9112
14523SOL    HW253500   4.442   4.239   4.682 -1.8052  1.5901  0.5035
14524SOL     OW53501  10.062   6.595  10.152  0.9520 -0.0482 -0.1367
14524SOL    HW153502  10.105   6.680  10.156  0.7147  0.0700 -0.1084
14524SOL    HW253503  10.036   6.576  10.242 -1.7604  1.2683 -0.5433
14525SOL     OW53504   8.156   1.380  10.341  0.0050 -0.0164 -0.4419
14525SOL    HW153505   8.245   1.383  10.307 -0.2763 -1.0877 -1.3335
14525SOL    HW253506   8.101   1.380  10.263 -0.7164 -1.0446  0.0431
14526SOL     OW53507   8.906   5.691   2.416 -0.6066 -0.0047  0.4041
14526SOL    HW153508   8.905   5.601   2.449  1.2463 -0.7531 -1.3381
14526SOL    HW253509   8.862   5.685   2.331 -0.0309  0.6165  0.0520
14527SOL     OW53510   1.660   9.546   7.081 -0.5647 -0.6185  0.2141
14527SOL    HW153511   1.675   9.637   7.108 -0.9107 -0.8039  1.0813
14527SOL    HW253512   1.568   9.530   7.102 -0.2898 -1.4231  0.8736
14528SOL     OW53513   6.756   9.745   5.823  0.1928 -0.1950  0.2240
14528SOL    HW153514   6.796   9.779   5.903  0.9851  2.1668 -1.0747
14528SOL    HW253515   6.668   9.717   5.851  0.3278  0.8518  1.8734
14529SOL     OW53516  12.971   8.137   8.031 -0.2807 -0.1088  0.0856
14529SOL    HW153517  13.047   8.147   8.088 -0.6785  2.3353  0.3050
14529SOL    HW253518  12.999   8.077   7.963  1.6713  0.3158  0.4706
14530SOL     OW53519  10.023   6.455  12.678  0.0935 -0.3502  0.3080
14530SOL    HW153520   9.949   6.512  12.698  0.6613  1.2642 -1.8232
14530SOL    HW253521   9.984   6.369  12.664 -1.7083  0.7721 -2.3280
14531SOL     OW53522   0.446  10.201   3.892 -0.1571 -0.0453  0.3007
14531SOL    HW153523   0.510  10.176   3.826 -2.4454 -2.4264 -1.2314
14531SOL    HW253524   0.434  10.121   3.944  1.0478  1.5506  3.2495
14532SOL     OW53525   7.088   8.066  12.816  0.1859 -0.0436 -0.7662
14532SOL    HW153526   7.062   8.141  12.763 -0.4267  1.3182  1.3315
14532SOL    HW253527   7.008   8.014  12.826  0.1750 -0.0216 -0.7396
14533SOL     OW53528   7.623  11.980   0.392  0.2083  0.0556 -0.0841
14533SOL    HW153529   7.606  11.893   0.356 -1.9214 -0.4740  1.9511
14533SOL    HW253530   7.703  11.970   0.443 -0.0969 -0.7970  0.2518
14534SOL     OW53531   3.788  10.160   8.120  0.3662 -0.4336  0.1570
14534SOL    HW153532   3.869  10.186   8.075  0.8191  2.8636  2.4479
14534SOL    HW253533   3.819  10.116   8.200  0.0480  1.4535  1.3869
14535SOL     OW53534   0.277  12.137   9.043  0.1648  0.1039 -0.1867
14535SOL    HW153535   0.266  12.134   9.138 -1.3186 -1.0685 -0.3452
14535SOL    HW253536   0.324  12.218   9.026  2.3584 -0.6672  1.7046
14536SOL     OW53537   4.576  11.440   8.818 -0.1711  0.3986  0.3799
14536SOL    HW153538   4.555  11.413   8.729  1.3359  2.3091 -0.6185
14536SOL    HW253539   4.504  11.499   8.843 -1.0166 -0.7601  0.7886
14537SOL     OW53540  12.526   4.567  11.942 -0.6484 -0.6726  0.4631
14537SOL    HW153541  12.536   4.476  11.913 -2.6732 -0.3345 -1.6763
14537SOL    HW253542  12.527   4.618  11.860 -0.7758  1.1024  1.5171
14538SOL     OW53543  12.677   4.862   7.461  0.0758  0.1128 -0.0915
14538SOL    HW153544  12.680   4.933   7.525 -0.7501 -2.0195  2.4885
14538SOL    HW253545  12.589   4.868   7.422 -0.1445  0.2528  0.4236
14539SOL     OW53546  12.798   8.706   0.992  0.2482  0.5755  0.4931
14539SOL    HW153547  12.746   8.731   0.916 -1.9419 -1.4207  1.2130
14539SOL    HW253548  12.844   8.627   0.965 -0.4327 -0.0660  1.1791
14540SOL     OW53549   7.281   8.283   5.993 -0.2909 -0.4413  0.0344
14540SOL    HW153550   7.186   8.280   5.991 -0.6142  3.8895  0.3552
14540SOL    HW253551   7.303   8.321   6.078  1.5462  0.7999 -0.9245
14541SOL     OW53552   9.648  12.063   1.160 -0.3495 -0.2932 -0.0003
14541SOL    HW153553   9.627  12.140   1.213  1.9103  0.1449  0.3282
14541SOL    HW253554   9.717  12.018   1.208 -0.7217 -1.8372 -0.8465
14542SOL     OW53555   1.638   5.466   2.131  1.1201  0.2687 -0.4413
14542SOL    HW153556   1.721   5.481   2.085  1.3330 -2.3967 -1.0727
14542SOL    HW253557   1.592   5.402   2.076 -1.6423  2.0723 -0.3897
14543SOL     OW53558  11.309   5.546   8.433  0.1083 -0.3074  0.0413
14543SOL    HW153559  11.295   5.631   8.392  0.2956  0.0976  0.8026
14543SOL    HW253560  11.311   5.484   8.360 -1.9604  0.0734 -0.4063
14544SOL     OW53561   6.167  11.078  11.994  0.2665 -0.4359 -0.2971
14544SOL    HW153562   6.233  11.080  11.925  0.1661  1.1924 -0.3795
14544SOL    HW253563   6.103  11.144  11.969 -0.6995 -1.0516  0.4669
14545SOL     OW53564  12.163   9.500  11.506 -0.0242  0.1379  0.6656
14545SOL    HW153565  12.122   9.563  11.446  0.1229 -0.0301  0.3820
14545SOL    HW253566  12.091   9.467  11.559 -0.8935 -2.3314 -1.7508
14546SOL     OW53567   3.231   3.832   1.102 -0.1861 -0.5286  0.1080
14546SOL    HW153568   3.184   3.841   1.185  0.1490 -3.1414  0.6820
14546SOL    HW253569   3.163   3.840   1.035 -1.0409 -1.6058  0.8155
14547SOL     OW53570   1.551   6.152   6.442  0.0585  0.7956 -0.2585
14547SOL    HW153571   1.495   6.228   6.458 -1.9044 -0.4376 -1.0040
14547SOL    HW253572   1.491   6.078   6.439  1.9153 -0.8179  0.4174
14548SOL     OW53573   7.296   7.054   1.463 -0.1486  0.1051  0.0342
14548SOL    HW153574   7.318   6.976   1.514  0.1722  0.3790  0.3255
14548SOL    HW253575   7.381   7.092   1.440 -0.3102  0.8886  0.7068
14549SOL     OW53576   0.687   4.975   9.253  0.3101 -0.2632 -0.3383
14549SOL    HW153577   0.634   4.923   9.314 -1.4461 -0.9602 -2.3217
14549SOL    HW253578   0.659   5.065   9.268  0.7416 -0.2863  0.6530
14550SOL     OW53579  11.428   8.789   4.326 -0.2494  0.6616 -0.6836
14550SOL    HW153580  11.418   8.838   4.244  1.2654  2.2746  0.0186
14550SOL    HW253581  11.477   8.849   4.383  1.3065 -1.4922  0.3856
14551SOL     OW53582  13.217   6.146   0.494  0.3467 -0.3838 -0.0652
14551SOL    HW153583  13.147   6.206   0.468  1.4995 -0.0530 -2.7581
14551SOL    HW253584  13.281   6.201   0.540 -0.8926 -0.6211  2.0754
14552SOL     OW53585   6.019   7.528   1.640  0.0307 -0.2967 -0.0139
14552SOL    HW153586   6.100   7.518   1.690 -0.6270  0.3915  1.2291
14552SOL    HW253587   5.958   7.568   1.701 -1.5701 -1.7218 -0.6120
14553SOL     OW53588  10.766   9.221   9.583  0.1011  0.1088 -0.3004
14553SOL    HW153589  10.677   9.241   9.554 -0.3475  0.3731  1.1604
14553SOL    HW253590  10.756   9.144   9.640  0.8296  0.0316 -0.2672
14554SOL     OW53591   2.156   0.807   7.204 -0.6825  0.1133 -0.2742
14554SOL    HW153592   2.137   0.864   7.279  2.6619  0.4811  0.4553
14554SOL    HW253593   2.206   0.862   7.144  0.2641 -1.2830 -0.8229
14555SOL     OW53594   2.579   2.571  12.339  0.3939  0.4144 -0.1024
14555SOL    HW153595   2.495   2.537  12.308  1.2741 -1.8559 -0.2326
14555SOL    HW253596   2.569   2.576  12.434  0.3822 -0.7831 -0.0211
14556SOL     OW53597   7.426   8.464   7.061  0.0517  0.4819  0.0586
14556SOL    HW153598   7.342   8.422   7.081 -0.2132  1.2592  0.6133
14556SOL    HW253599   7.411   8.557   7.075  0.9577  0.6558 -0.0335
14557SOL     OW53600   7.092   3.693   2.682  0.3642  0.0618  0.1160
14557SOL    HW153601   7.079   3.787   2.696  0.9373  0.1475  0.1086
14557SOL    HW253602   7.154   3.688   2.609  1.5089 -0.2832  1.0662
14558SOL     OW53603   9.251   7.311   1.411  0.3961 -0.1107 -0.3478
14558SOL    HW153604   9.278   7.291   1.501 -0.3794 -3.3295 -0.7123
14558SOL    HW253605   9.331   7.306   1.360  1.1183  3.2182  0.2399
14559SOL     OW53606   4.935   2.501   1.495  0.4344 -0.3245 -0.0570
14559SOL    HW153607   5.023   2.487   1.462 -0.0636  0.5932 -1.8822
14559SOL    HW253608   4.939   2.585   1.540 -0.0476  1.0556 -2.4404
14560SOL     OW53609  11.562  12.974   2.450  0.0962 -0.1183  0.2885
14560SOL    HW153610  11.582  12.939   2.537  1.7060 -0.4993 -0.2116
14560SOL    HW253611  11.565  12.898   2.392 -2.1479 -0.0826  0.0214
14561SOL     OW53612   5.071  13.306   5.405 -0.4666 -0.2675  0.1153
14561SOL    HW153613   5.015  13.233   5.377 -0.7020  0.0764 -0.3184
14561SOL    HW253614   5.012  13.381   5.408  0.3845  0.5653 -2.4172
14562SOL     OW53615   0.713   9.072   6.339  0.3476 -0.0965  0.4352
14562SOL    HW153616   0.784   9.066   6.275 -0.1219  0.7341 -0.1782
14562SOL    HW253617   0.646   9.125   6.297 -0.3761 -0.3167  1.2579
14563SOL     OW53618  10.334   8.715   3.142  0.3019 -0.1789 -0.1401
14563SOL    HW153619  10.404   8.720   3.207 -1.0932  1.6306  1.3679
14563SOL    HW253620  10.317   8.806   3.118 -2.1497 -0.4543  0.3088
14564SOL     OW53621   6.548   1.284  12.659  0.3268  0.2175  0.3205
14564SOL    HW153622   6.480   1.324  12.713  0.0341  0.8909 -0.5263
14564SOL    HW253623   6.598   1.358  12.626  0.0302 -0.1349 -0.9476
14565SOL     OW53624   3.692   8.689   2.718 -0.0571  0.1835  0.4330
14565SOL    HW153625   3.607   8.732   2.728 -0.4435 -0.6946  1.0207
14565SOL    HW253626   3.698   8.669   2.625 -0.7592 -0.2847  0.4842
14566SOL     OW53627   8.539  13.129   5.639 -0.1669  0.3479 -0.3050
14566SOL    HW153628   8.502  13.182   5.568 -0.1900  0.1634 -0.4323
14566SOL    HW253629   8.611  13.081   5.598  0.3191  0.8266 -0.0209
14567SOL     OW53630   6.710   8.508   7.815  0.3291 -0.0651 -0.5309
14567SOL    HW153631   6.768   8.461   7.755  0.8683  1.0140 -0.8692
14567SOL    HW253632   6.660   8.567   7.759 -0.3741 -0.2566 -0.1139
14568SOL     OW53633   4.160   8.830  11.409  0.3250 -0.2797 -0.2411
14568SOL    HW153634   4.130   8.792  11.491 -0.4683  0.7923 -0.0221
14568SOL    HW253635   4.106   8.908  11.397  2.1001  0.9643 -0.5171
14569SOL     OW53636   1.109   9.851   6.057  0.2330 -0.3071 -0.1133
14569SOL    HW153637   1.049   9.922   6.033 -0.8906 -1.3604 -0.5246
14569SOL    HW253638   1.193   9.878   6.020 -0.2547  0.6342 -0.5861
14570SOL     OW53639   3.167   8.824   4.019  0.0203 -0.1362 -0.1994
14570SOL    HW153640   3.182   8.806   3.926 -0.0292 -1.9576  0.1112
14570SOL    HW253641   3.129   8.743   4.053 -1.0086  0.8904  1.1871
14571SOL     OW53642   6.040   8.777   2.245 -0.1213 -0.0738  0.5466
14571SOL    HW153643   6.006   8.760   2.157 -1.0892  0.1014  0.8718
14571SOL    HW253644   6.046   8.872   2.250  1.9866 -0.1246 -0.0566
14572SOL     OW53645   5.687   6.848   3.669  0.5087 -0.4210 -0.1904
14572SOL    HW153646   5.738   6.769   3.687  1.2501  0.0519 -0.1825
14572SOL    HW253647   5.607   6.836   3.720  0.3419 -1.4393 -0.6603
14573SOL     OW53648   4.525   6.276  11.027 -0.1867  0.3354  0.1669
14573SOL    HW153649   4.598   6.271  10.965 -0.7060 -1.5239 -0.3629
14573SOL    HW253650   4.553   6.222  11.101 -1.0416 -0.4768 -0.0852
14574SOL     OW53651   2.342   3.364   5.694 -0.6060  0.0530  0.1315
14574SOL    HW153652   2.384   3.301   5.636  1.4650  1.4144  0.0561
14574SOL    HW253653   2.399   3.369   5.771 -1.4934  0.7811  0.7694
14575SOL     OW53654   7.069  11.117   4.566 -0.3272  0.1322 -0.3782
14575SOL    HW153655   7.125  11.177   4.516 -2.1162  2.1263 -0.1695
14575SOL    HW253656   6.980  11.140   4.539 -1.1664 -1.4728  0.8369
14576SOL     OW53657   2.524   4.689   2.841  0.3003  0.1987  0.8392
14576SOL    HW153658   2.521   4.684   2.745  2.4689 -1.2124  0.7783
14576SOL    HW253659   2.600   4.744   2.860  0.5969 -0.4904  1.7193
14577SOL     OW53660   9.450   8.973  13.067 -0.1668  0.0334  0.3300
14577SOL    HW153661   9.412   8.904  13.121  0.1806  0.0927  0.6530
14577SOL    HW253662   9.488   9.035  13.129  2.5969 -1.2075  0.0073
14578SOL     OW53663   7.572   8.807   0.310 -0.4128 -0.0243  0.3982
14578SOL    HW153664   7.549   8.888   0.355  0.2684  0.2709  0.2191
14578SOL    HW253665   7.549   8.822   0.218 -0.5261 -0.1285  0.4089
14579SOL     OW53666   3.353   6.633   4.411  0.0354  0.4049  0.8259
14579SOL    HW153667   3.376   6.556   4.359 -1.7061  0.1298  0.4314
14579SOL    HW253668   3.423   6.639   4.476 -0.5678 -2.4321  1.8482
14580SOL     OW53669   5.745  11.649   3.121  0.2974 -0.1098 -0.1609
14580SOL    HW153670   5.833  11.685   3.113  0.7761 -1.5230 -1.7013
14580SOL    HW253671   5.688  11.717   3.085  0.5735  1.2696  1.8247
14581SOL     OW53672   3.866   2.156  10.225  0.0943 -0.0903  0.0961
14581SOL    HW153673   3.778   2.173  10.191  0.5247  2.7241  0.1367
14581SOL    HW253674   3.856   2.153  10.320 -0.1586 -1.4223  0.0441
14582SOL     OW53675   8.859  10.664   3.199  1.0551 -0.4028  0.0804
14582SOL    HW153676   8.819  10.603   3.261  1.8598 -2.1887 -1.0808
14582SOL    HW253677   8.908  10.725   3.254  1.1918 -1.5241  1.2537
14583SOL     OW53678   0.060   6.549  11.418  0.2590  0.5841 -0.0089
14583SOL    HW153679   0.006   6.613  11.371 -2.1458 -1.5002 -0.3172
14583SOL    HW253680   0.017   6.539  11.503  2.1892  1.2748  1.1229
14584SOL     OW53681  11.097   8.868   1.346  0.1904 -0.6938  0.3386
14584SOL    HW153682  11.163   8.854   1.414  0.1869 -1.8026  0.1410
14584SOL    HW253683  11.069   8.779   1.321 -0.3897 -0.2847 -0.5356
14585SOL     OW53684  13.125   0.554  13.265 -0.1037 -0.4839  0.3162
14585SOL    HW153685  13.172   0.633  13.290  0.3545 -1.0539  1.3232
14585SOL    HW253686  13.126   0.554  13.169 -1.0384  1.2609  0.2709
14586SOL     OW53687  12.005   8.674   9.340 -0.0840  0.1516 -0.1915
14586SOL    HW153688  11.939   8.663   9.271  0.3039  1.4796 -0.8158
14586SOL    HW253689  11.965   8.735   9.402 -1.1001 -2.3005  1.7093
14587SOL     OW53690   4.223   7.551   5.066  0.4908 -0.6433 -0.3945
14587SOL    HW153691   4.267   7.480   5.112  1.5045 -0.4443 -1.0228
14587SOL    HW253692   4.230   7.528   4.973  0.1336 -0.1157 -0.5561
14588SOL     OW53693   2.739   4.540   3.616  0.0261 -0.1322 -1.0703
14588SOL    HW153694   2.831   4.517   3.633  0.2265  0.0347 -1.8842
14588SOL    HW253695   2.708   4.471   3.557 -0.4285 -0.2817 -0.6620
14589SOL     OW53696  10.526   0.193   4.578 -0.0497 -0.6084  0.0414
14589SOL    HW153697  10.478   0.220   4.500  0.4082 -0.5617 -0.2244
14589SOL    HW253698  10.480   0.114   4.607 -1.5137  0.5135  0.9371
14590SOL     OW53699   2.603   3.006   3.582 -0.4809 -0.4800 -0.6586
14590SOL    HW153700   2.521   2.960   3.564 -0.4942 -0.4899 -0.5737
14590SOL    HW253701   2.577   3.097   3.597 -0.5662 -0.6366  0.1594
14591SOL     OW53702  13.114  13.121   3.306 -0.2319 -0.2256  0.5121
14591SOL    HW153703  13.096  13.101   3.398 -1.1599  0.7951  0.5729
14591SOL    HW253704  13.135  13.214   3.306 -0.4677 -0.1686 -0.3451
14592SOL     OW53705  13.066  10.746   8.548 -0.1500  0.4173 -0.1782
14592SOL    HW153706  13.064  10.814   8.614  0.6160 -0.0120  0.3018
14592SOL    HW253707  13.090  10.666   8.596 -0.2933 -0.0413 -0.8479
14593SOL     OW53708  10.733  11.374   0.883 -0.4348 -0.4947 -0.4810
14593SOL    HW153709  10.689  11.292   0.865 -1.1560 -0.6251  1.6452
14593SOL    HW253710  10.815  11.349   0.926  1.4640 -0.2189 -3.6292
14594SOL     OW53711   3.144  11.551   0.382 -0.5911  0.2914 -0.1721
14594SOL    HW153712   3.214  11.609   0.351 -0.7619  0.5326 -0.1105
14594SOL    HW253713   3.151  11.474   0.326 -0.0782  0.1810  0.0410
14595SOL     OW53714  10.257   2.334   0.911  0.0479 -0.7337  0.5050
14595SOL    HW153715  10.245   2.302   0.821 -0.3352  1.8811 -0.4516
14595SOL    HW253716  10.262   2.254   0.964 -2.4839 -2.3815 -1.4685
14596SOL     OW53717   2.378  11.264   7.325 -0.2387 -0.4493 -0.2768
14596SOL    HW153718   2.415  11.192   7.274  0.3939  0.7126 -1.5223
14596SOL    HW253719   2.288  11.271   7.296  0.2458  0.5110 -1.6565
14597SOL     OW53720   0.278   6.194  13.296  0.3579 -0.4118  0.4051
14597SOL    HW153721   0.202   6.253  13.293 -1.1814 -2.2511  1.3127
14597SOL    HW253722   0.315   6.200  13.208 -0.5878  0.8543  0.0574
14598SOL     OW53723   5.663   6.115   0.237 -0.2436  0.0674 -0.6652
14598SOL    HW153724   5.689   6.171   0.311  0.8874 -0.4760 -0.6422
14598SOL    HW253725   5.604   6.170   0.186 -1.6353  0.2354  1.0056
14599SOL     OW53726   8.295   3.876   2.025  0.8778 -0.4112 -0.2428
14599SOL    HW153727   8.344   3.937   1.970  0.9269 -0.6713 -0.4864
14599SOL    HW253728   8.318   3.901   2.115  1.4062 -0.4938 -0.3552
14600SOL     OW53729  10.078   1.887   2.194  0.0022 -0.3429 -0.3532
14600SOL    HW153730  10.109   1.860   2.281 -2.3963  0.7114  0.9430
14600SOL    HW253731  10.071   1.805   2.145  1.7342 -0.9218  0.3015
14601SOL     OW53732   2.760   7.147   5.986 -0.1398  0.1876  0.0431
14601SOL    HW153733   2.675   7.143   5.942  0.1726 -1.5316 -0.4930
14601SOL    HW253734   2.739   7.164   6.078 -1.0730 -0.3212 -0.0608
14602SOL     OW53735   5.241   6.557  12.551  0.1098 -0.1647  0.4067
14602SOL    HW153736   5.186   6.494  12.505  1.9325 -1.4894 -0.0830
14602SOL    HW253737   5.182   6.629  12.573 -1.8032 -1.5297 -0.0040
14603SOL     OW53738  11.435   1.579  12.011 -0.8197  0.1885 -0.0299
14603SOL    HW153739  11.460   1.531  12.090 -0.5002  0.0898 -0.1901
14603SOL    HW253740  11.341   1.565  12.003 -0.9978  0.8233  0.7596
14604SOL     OW53741  13.059  12.312   2.657 -0.3729 -0.1086 -0.1126
14604SOL    HW153742  13.109  12.231   2.655 -1.6251 -0.9817  1.2685
14604SOL    HW253743  13.032  12.326   2.567  1.7071  0.0146 -0.7671
14605SOL     OW53744   7.307   1.362  13.087  0.2511 -0.5194 -0.1203
14605SOL    HW153745   7.259   1.419  13.027  1.1612 -0.5151 -0.8764
14605SOL    HW253746   7.325   1.416  13.164 -0.0610 -0.2100 -0.2651
14606SOL     OW53747   7.286   8.119  11.544  0.1151 -0.2020 -0.6258
14606SOL    HW153748   7.283   8.206  11.504 -1.5543  0.1696  0.2152
14606SOL    HW253749   7.378   8.093  11.539  0.5563  1.4000 -1.3294
14607SOL     OW53750   7.509  11.038   2.354  0.4665  0.1283  0.0031
14607SOL    HW153751   7.573  11.035   2.426  0.6439  1.4435 -0.0739
14607SOL    HW253752   7.441  11.098   2.385  1.6433  2.5200 -1.7636
14608SOL     OW53753   1.720   2.312   0.025 -0.0050 -0.4589 -0.7221
14608SOL    HW153754   1.642   2.324   0.079 -0.4276 -0.2862 -1.3669
14608SOL    HW253755   1.758   2.230   0.057  1.3520  1.0265  1.7755
14609SOL     OW53756   8.062   4.586   1.710 -0.5905 -0.5983  0.2889
14609SOL    HW153757   7.992   4.647   1.686 -2.0989 -2.3728 -0.0970
14609SOL    HW253758   8.055   4.578   1.805 -0.2647 -0.0563  0.3638
14610SOL     OW53759   2.396   8.938   0.951 -0.5362 -0.0647  0.2841
14610SOL    HW153760   2.410   8.860   1.005  0.0504  1.5559  2.6120
14610SOL    HW253761   2.436   9.009   1.001 -2.7732  2.0912 -0.8039
14611SOL     OW53762  11.331   3.911   8.553 -0.3899 -0.3025  0.0122
14611SOL    HW153763  11.380   3.834   8.580  1.0500  0.0108 -1.5373
14611SOL    HW253764  11.360   3.981   8.611 -2.0947 -0.9756  1.7777
14612SOL     OW53765   7.702  12.886   6.821 -0.0423 -0.2257  0.0905
14612SOL    HW153766   7.714  12.979   6.800 -0.0136  0.1747  1.6790
14612SOL    HW253767   7.672  12.846   6.740 -0.6915  1.3065 -0.4691
14613SOL     OW53768  12.196   2.555   4.764  0.5482 -0.0305 -0.1288
14613SOL    HW153769  12.171   2.590   4.850  2.0267 -1.0762  0.7771
14613SOL    HW253770  12.284   2.591   4.750  1.1079 -1.4140 -0.2869
14614SOL     OW53771   9.268   7.188   8.030 -0.5824  0.3690 -0.2192
14614SOL    HW153772   9.208   7.191   8.105 -0.8662 -1.4769 -0.3156
14614SOL    HW253773   9.329   7.118   8.051 -1.6066 -1.2898 -2.3134
14615SOL     OW53774   1.076   0.680  12.368 -0.1472  0.1021  0.4220
14615SOL    HW153775   1.091   0.713  12.457 -0.6648  1.8234 -0.0981
14615SOL    HW253776   1.047   0.756  12.319  1.9999 -0.3383 -1.7323
14616SOL     OW53777   5.546   0.270   2.937  0.1090  0.2344  0.3298
14616SOL    HW153778   5.602   0.229   3.004 -0.5455 -0.4070  0.4919
14616SOL    HW253779   5.573   0.229   2.855 -1.1647 -1.2482  0.6014
14617SOL     OW53780   8.998   7.694   8.106  0.2053 -0.1584 -0.3953
14617SOL    HW153781   8.950   7.705   8.188  0.7843 -0.0219 -0.0713
14617SOL    HW253782   9.060   7.767   8.103  1.2413 -0.9913 -0.2069
14618SOL     OW53783   1.873   1.794  12.447 -0.4029 -0.5823 -0.4643
14618SOL    HW153784   1.822   1.717  12.424  0.2234 -1.3541  0.6190
14618SOL    HW253785   1.936   1.762  12.512  1.0974  0.4392 -1.3515
14619SOL     OW53786   5.382   6.988   7.925 -0.1558 -0.2214 -0.1423
14619SOL    HW153787   5.316   6.986   7.856 -0.0523  0.2690 -0.2652
14619SOL    HW253788   5.427   7.072   7.912 -0.1145 -0.1365  0.5013
14620SOL     OW53789   1.024   3.503   8.606  0.4863 -0.0288  0.2671
14620SOL    HW153790   0.960   3.436   8.626 -1.4108  1.0500 -1.7706
14620SOL    HW253791   1.070   3.470   8.528  1.3661 -0.0868  0.7902
14621SOL     OW53792   0.581   8.709   0.843 -0.7017  0.1724  0.2306
14621SOL    HW153793   0.518   8.637   0.835 -0.0394 -0.3159 -0.7581
14621SOL    HW253794   0.604   8.731   0.753  1.6383 -0.6485  0.5627
14622SOL     OW53795   9.141  11.603   4.792  0.6013 -0.1574 -0.4518
14622SOL    HW153796   9.129  11.526   4.846  1.4479 -0.0046 -0.0363
14622SOL    HW253797   9.189  11.664   4.847  0.4771  0.4385 -0.9870
14623SOL     OW53798  10.482   1.965  11.653  0.3584 -0.6099  0.0781
14623SOL    HW153799  10.394   1.948  11.619  0.1373  0.6561 -0.0246
14623SOL    HW253800  10.525   1.879  11.652 -0.8297 -1.2310  0.0251
14624SOL     OW53801   0.149   3.776   1.314  0.5699 -0.6177  0.1639
14624SOL    HW153802   0.193   3.850   1.355  1.2771 -1.1114  0.3231
14624SOL    HW253803   0.128   3.805   1.226 -0.4225  0.2491  0.6642
14625SOL     OW53804   0.411   7.075  13.274  0.5411  0.6309  0.6311
14625SOL    HW153805   0.440   7.159  13.309 -0.8259  1.2493  0.3527
14625SOL    HW253806   0.367   7.097  13.192 -1.3594 -0.1122  1.3861
14626SOL     OW53807   9.778  10.526   1.313  0.5709 -0.1887 -0.4159
14626SOL    HW153808   9.809  10.553   1.227  1.9712 -3.0405 -0.9135
14626SOL    HW253809   9.697  10.477   1.295 -1.1133  2.1124  0.3265
14627SOL     OW53810   2.784   3.672  12.543 -0.0214  0.3599  0.4713
14627SOL    HW153811   2.785   3.621  12.462 -0.2289 -0.3656  0.9156
14627SOL    HW253812   2.872   3.661  12.580  0.4178  1.5618 -0.1786
14628SOL     OW53813   7.635   4.670  10.040 -0.3504  0.1233  0.1469
14628SOL    HW153814   7.704   4.662  10.105 -1.0002 -0.4911  0.7829
14628SOL    HW253815   7.568   4.608  10.069  0.1779 -1.6401 -2.1790
14629SOL     OW53816   6.208  11.188   7.424 -0.4412  0.1343 -0.2003
14629SOL    HW153817   6.186  11.165   7.334 -0.2247 -0.0496 -0.2063
14629SOL    HW253818   6.194  11.107   7.474 -0.2581  0.1497 -0.1227
14630SOL     OW53819   2.646   8.164   9.789 -0.0856  0.0156 -0.2373
14630SOL    HW153820   2.697   8.234   9.750  0.3252  0.5454  1.1940
14630SOL    HW253821   2.611   8.114   9.714  2.2761 -0.2142 -1.2566
14631SOL     OW53822  12.128  13.133   6.512  0.0628 -0.4290  0.3277
14631SOL    HW153823  12.190  13.159   6.580  0.9973  1.0805 -1.0285
14631SOL    HW253824  12.129  13.206   6.450 -1.9420 -1.0577 -0.5185
14632SOL     OW53825   7.128  10.442   1.657 -0.5101 -0.5651 -0.1701
14632SOL    HW153826   7.164  10.486   1.580 -0.4052  0.0002  0.2035
14632SOL    HW253827   7.205  10.408   1.704 -0.5090 -0.0545  0.2031
14633SOL     OW53828   3.590   4.479   9.644  0.5891 -0.0972  0.4418
14633SOL    HW153829   3.512   4.529   9.666  0.7403  0.7955 -0.9376
14633SOL    HW253830   3.575   4.448   9.555  1.4483 -0.6164  0.4671
14634SOL     OW53831   4.544  11.757  11.576  0.0462 -0.4786  0.4223
14634SOL    HW153832   4.612  11.734  11.639  1.0840 -3.2235 -1.5293
14634SOL    HW253833   4.468  11.705  11.603 -0.8542  1.3459  1.6263
14635SOL     OW53834   3.893  12.110   5.803 -0.5363  0.0208  0.6018
14635SOL    HW153835   3.837  12.051   5.753 -1.2760  0.2928  1.0934
14635SOL    HW253836   3.949  12.053   5.855 -1.4264 -0.2707  1.2756
14636SOL     OW53837   6.651  11.755  11.328 -0.0596 -0.2227 -0.4170
14636SOL    HW153838   6.669  11.846  11.351 -0.1820 -0.4435  0.6208
14636SOL    HW253839   6.714  11.704  11.380 -0.3877 -0.7541 -0.5277
14637SOL     OW53840   2.863   1.601   7.202  0.1850 -0.0659  0.8794
14637SOL    HW153841   2.861   1.506   7.197 -2.1096 -0.0216 -1.7436
14637SOL    HW253842   2.782   1.624   7.247  0.0130  0.6546  0.2187
14638SOL     OW53843   7.756   2.146  11.958 -0.4441  0.1594  0.2453
14638SOL    HW153844   7.718   2.107  11.880 -1.5074  2.2984 -0.3659
14638SOL    HW253845   7.808   2.075  11.997 -1.5539 -1.5620 -1.2474
14639SOL     OW53846   5.161   6.410   6.271 -0.4970 -0.9165  0.8166
14639SOL    HW153847   5.119   6.434   6.353 -0.5577 -0.7191  0.7298
14639SOL    HW253848   5.243   6.368   6.297 -0.9866 -1.7698  0.9967
14640SOL     OW53849   1.969  12.484   6.120  0.0712  0.5960 -0.5232
14640SOL    HW153850   1.988  12.443   6.036  1.5637 -1.4702  0.7099
14640SOL    HW253851   1.918  12.418   6.167  0.0889  1.3100  0.5292
14641SOL     OW53852   8.589  10.994   7.976 -0.2018 -0.0651 -0.4477
14641SOL    HW153853   8.619  11.060   7.914  0.1179 -0.2905 -0.5357
14641SOL    HW253854   8.497  11.014   7.990  0.0802  0.8677  0.1245
14642SOL     OW53855   4.143  11.432   4.438 -0.3344  0.5874 -0.3431
14642SOL    HW153856   4.091  11.467   4.510  0.0666 -1.2343  0.8956
14642SOL    HW253857   4.228  11.474   4.447 -0.2226  0.2227  0.4081
14643SOL     OW53858  11.868  10.701   5.273  0.0280  0.6757 -0.3429
14643SOL    HW153859  11.871  10.775   5.213  1.3185  0.4833 -0.5368
14643SOL    HW253860  11.775  10.680   5.280 -0.2998  1.8649 -0.8226
14644SOL     OW53861  13.252   4.260   6.146  0.2296 -0.0697 -0.4121
14644SOL    HW153862  13.172   4.247   6.196  0.5140 -0.6018 -0.0804
14644SOL    HW253863  13.288   4.171   6.136  1.6146  0.3107  0.8376
14645SOL     OW53864   2.428  10.286   3.113  0.1843  0.1911 -0.2440
14645SOL    HW153865   2.410  10.358   3.173 -2.9073 -1.0945  0.5878
14645SOL    HW253866   2.424  10.326   3.026  1.4759  1.5066  0.2730
14646SOL     OW53867   4.422  11.335  10.577 -0.1541  0.0576  0.0341
14646SOL    HW153868   4.345  11.323  10.633  1.1300 -1.0958  1.6549
14646SOL    HW253869   4.478  11.395  10.626 -0.0401  0.9843 -1.1832
14647SOL     OW53870   1.496   7.953  10.765 -0.2708  0.0233  0.3051
14647SOL    HW153871   1.514   7.996  10.849  0.4231 -1.8294  1.1631
14647SOL    HW253872   1.583   7.926  10.734 -0.7510 -1.5485  0.2680
14648SOL     OW53873   7.487   9.306   5.973  0.0919  0.3892 -0.0339
14648SOL    HW153874   7.506   9.251   5.897 -0.0006  0.6932 -0.2772
14648SOL    HW253875   7.538   9.267   6.044  0.9868  0.7052 -0.4858
14649SOL     OW53876   2.830   0.176   8.080 -0.0041 -0.3062 -0.6982
14649SOL    HW153877   2.861   0.230   8.153 -0.4688 -0.7695 -0.1463
14649SOL    HW253878   2.847   0.229   8.002  0.2098  0.3313 -0.2275
14650SOL     OW53879   8.294   4.852   2.668 -0.4253  0.4469  0.5627
14650SOL    HW153880   8.225   4.876   2.606  0.7834 -1.3991 -1.6581
14650SOL    HW253881   8.274   4.762   2.693  1.6376 -0.5048 -0.9339
14651SOL     OW53882   1.260  10.073  12.936 -0.6467  0.8881 -0.3375
14651SOL    HW153883   1.311  10.008  12.984 -0.0237  0.4437 -1.5380
14651SOL    HW253884   1.276  10.155  12.982  0.3718  0.5821 -0.1076
14652SOL     OW53885   8.774   8.268   6.987 -0.2839 -1.0537 -0.3958
14652SOL    HW153886   8.829   8.190   6.984  0.4831 -0.5147 -0.5794
14652SOL    HW253887   8.796   8.316   6.908 -1.4146 -1.0775 -0.7456
14653SOL     OW53888   3.459   2.843   7.032  0.0279 -0.6548  0.4430
14653SOL    HW153889   3.406   2.814   7.107  0.7368 -0.4938  1.0193
14653SOL    HW253890   3.542   2.870   7.071  0.0610  0.3637 -0.2907
14654SOL     OW53891   9.980   8.792   6.041  0.1245  0.3145  0.2647
14654SOL    HW153892  10.027   8.870   6.011  1.2755 -0.5174 -0.1683
14654SOL    HW253893   9.978   8.735   5.965 -1.4204  0.2117  0.3418
14655SOL     OW53894   9.861   9.742   5.964 -0.4615 -0.2409  0.1517
14655SOL    HW153895   9.936   9.684   5.956 -0.2293 -0.2714  2.0685
14655SOL    HW253896   9.784   9.686   5.952 -0.2164 -0.7577  0.9413
14656SOL     OW53897   7.957   6.620  11.489 -0.1418  0.2099 -0.0788
14656SOL    HW153898   8.032   6.638  11.546  0.6409  1.2225 -1.3757
14656SOL    HW253899   7.971   6.530  11.459  0.5165  0.3687 -0.2566
14657SOL     OW53900   6.510   9.226   2.814 -0.0618  0.1767  0.4828
14657SOL    HW153901   6.577   9.290   2.839 -1.1386  0.8739  1.7399
14657SOL    HW253902   6.490   9.180   2.896 -1.2954  0.1708  0.1907
14658SOL     OW53903   8.801  12.665   8.517 -0.3053  0.0405 -0.2252
14658SOL    HW153904   8.726  12.648   8.461 -0.9862 -0.5208  0.8167
14658SOL    HW253905   8.764  12.702   8.597  0.3955 -1.2549  0.7438
14659SOL     OW53906   7.030   9.008   0.056 -0.1940  0.0481  0.2203
14659SOL    HW153907   7.087   9.024  -0.019 -0.0317  0.4810  0.4344
14659SOL    HW253908   6.959   9.071   0.047  0.9630  1.6517  1.6009
14660SOL     OW53909   0.575   2.862   2.240  0.5027 -0.1998  0.6496
14660SOL    HW153910   0.559   2.818   2.157 -0.2954 -0.7441  1.0725
14660SOL    HW253911   0.560   2.955   2.222 -1.2281 -0.4696  0.5235
14661SOL     OW53912  12.608   5.527   0.248  0.4091  0.0777 -0.6526
14661SOL    HW153913  12.649   5.513   0.162  1.1022  0.8796 -0.4653
14661SOL    HW253914  12.644   5.457   0.303 -0.9254 -1.1699 -1.2743
14662SOL     OW53915   2.260   4.984   1.971  0.5017  0.4579 -0.3098
14662SOL    HW153916   2.239   5.047   2.040  3.1969  2.0355 -0.7752
14662SOL    HW253917   2.323   4.925   2.012 -0.2060 -0.5082 -0.5793
14663SOL     OW53918   1.159   1.972   0.785 -0.3578 -0.1389  0.3032
14663SOL    HW153919   1.070   1.977   0.819 -1.7003  0.3067 -2.8735
14663SOL    HW253920   1.185   2.063   0.770  0.3467 -0.2959  0.5323
14664SOL     OW53921  10.194   4.077   2.735  0.1253  0.0982 -0.0781
14664SOL    HW153922  10.157   4.054   2.649  1.6497  3.0152 -1.6566
14664SOL    HW253923  10.152   4.159   2.758  1.0206  0.2398  1.1442
14665SOL     OW53924   9.053  13.191   6.889  0.2984 -0.0651  0.5344
14665SOL    HW153925   9.120  13.164   6.826  1.6354  2.1660  0.8652
14665SOL    HW253926   9.020  13.274   6.855 -1.0667 -0.2740  1.2887
14666SOL     OW53927   6.714   6.188   5.529  0.2967  0.0858  0.2723
14666SOL    HW153928   6.629   6.230   5.530 -0.3772 -1.1850  1.9578
14666SOL    HW253929   6.706   6.118   5.464  0.5172  0.8082 -0.5440
14667SOL     OW53930  10.546   6.953   6.905  0.1154 -0.1121 -0.1472
14667SOL    HW153931  10.509   7.041   6.894 -0.1379 -0.3945 -1.7811
14667SOL    HW253932  10.633   6.958   6.865  0.3161 -0.4599  0.2462
14668SOL     OW53933   2.688   3.553   8.923  0.6383 -0.4133  0.5730
14668SOL    HW153934   2.663   3.578   8.834  2.8925  2.8985  0.7176
14668SOL    HW253935   2.783   3.545   8.920  0.7176 -0.6154  2.6403
14669SOL     OW53936   2.810   0.179   9.715 -1.2123  0.7032 -0.7695
14669SOL    HW153937   2.720   0.162   9.742 -0.7556  0.3269  0.6019
14669SOL    HW253938   2.812   0.273   9.696 -1.2689  1.3469  1.9460
14670SOL     OW53939  11.847  10.813  12.552 -0.2890 -0.1552 -0.3499
14670SOL    HW153940  11.793  10.750  12.600 -1.4649 -0.2382 -1.7095
14670SOL    HW253941  11.913  10.759  12.508  1.4875  0.0117  1.9249
14671SOL     OW53942   7.482   1.798  10.961  0.6304  0.9104  0.1760
14671SOL    HW153943   7.443   1.885  10.951 -0.0608  0.6903  0.8512
14671SOL    HW253944   7.521   1.800  11.048  2.6056  1.2902 -0.6775
14672SOL     OW53945   9.746  12.160   7.310  0.6918 -0.6394  0.2481
14672SOL    HW153946   9.710  12.100   7.244  2.4395 -0.9582 -0.4503
14672SOL    HW253947   9.668  12.203   7.346 -0.4462 -1.7011 -0.7925
14673SOL     OW53948   8.475   4.782   3.268  0.2921  0.2717 -0.2203
14673SOL    HW153949   8.472   4.686   3.269  1.9954  0.1619 -1.3782
14673SOL    HW253950   8.477   4.805   3.175  0.7629  1.3793  0.0505
14674SOL     OW53951   0.446   9.728  11.564 -0.0380  0.0745 -0.4825
14674SOL    HW153952   0.366   9.772  11.537  1.0838  2.0230 -0.7923
14674SOL    HW253953   0.490   9.706  11.482 -0.1728 -0.8859 -0.3115
14675SOL     OW53954  12.791  13.054   0.347 -0.6095  0.3465 -0.0058
14675SOL    HW153955  12.864  13.050   0.409 -0.3060 -2.6928 -0.4268
14675SOL    HW253956  12.715  13.027   0.398 -0.4383 -1.7406 -0.7932
14676SOL     OW53957   3.548   3.523  10.968 -0.1974 -0.5726  0.6542
14676SOL    HW153958   3.547   3.595  10.905 -2.5710 -1.9723 -1.0688
14676SOL    HW253959   3.625   3.471  10.943  0.1336  0.0563  0.3488
14677SOL     OW53960  12.391   4.790   6.913 -0.7853 -0.1859  0.0714
14677SOL    HW153961  12.428   4.774   6.827 -1.9285 -0.7463 -0.3218
14677SOL    HW253962  12.298   4.806   6.898 -0.7942  0.9311  1.0739
14678SOL     OW53963   9.964  11.106   3.241 -0.1234 -0.4004 -0.2888
14678SOL    HW153964  10.056  11.101   3.215  0.6438 -1.0822  2.2634
14678SOL    HW253965   9.957  11.191   3.286 -0.7665 -0.3218 -0.5286
14679SOL     OW53966   0.701   6.088   2.136 -0.0184 -0.1547 -0.0635
14679SOL    HW153967   0.736   6.002   2.161 -0.4620  0.0100  1.1895
14679SOL    HW253968   0.607   6.081   2.150 -0.2958 -0.0031 -1.6447
14680SOL     OW53969   8.693   8.580   0.964  0.1440  0.0012 -0.0327
14680SOL    HW153970   8.690   8.502   1.019  3.7500 -0.5015 -0.3478
14680SOL    HW253971   8.700   8.653   1.026  1.7294 -0.3737  0.2729
14681SOL     OW53972  10.402   6.000   0.643  0.7003 -0.2397 -0.1565
14681SOL    HW153973  10.482   6.021   0.690  0.7054 -0.1684 -0.1987
14681SOL    HW253974  10.333   6.006   0.709  0.7031 -0.0997 -0.1667
14682SOL     OW53975   4.538   4.792  12.762 -0.0663 -0.4551 -0.7394
14682SOL    HW153976   4.488   4.734  12.820 -1.8471  2.0681  0.4547
14682SOL    HW253977   4.532   4.751  12.676 -1.0928 -2.1223  0.0850
14683SOL     OW53978   2.195  10.584   0.575 -0.1621 -0.2932 -0.5038
14683SOL    HW153979   2.269  10.637   0.606  0.0125  0.0704 -1.5191
14683SOL    HW253980   2.227  10.541   0.496 -0.7872 -0.7671 -0.5097
14684SOL     OW53981  12.740   5.825  10.206 -0.2433 -0.4795  0.2614
14684SOL    HW153982  12.676   5.815  10.277  0.8958  0.0981  1.4132
14684SOL    HW253983  12.733   5.917  10.180  0.2894 -0.3487  0.5717
14685SOL     OW53984  12.621   9.827   8.266  0.3101  0.4785  0.5015
14685SOL    HW153985  12.589   9.762   8.203  0.8281 -0.4711  1.1931
14685SOL    HW253986  12.621   9.909   8.218 -3.4029  0.6646  0.4683
14686SOL     OW53987   4.217   5.607  12.102  0.0647 -0.0731 -0.3187
14686SOL    HW153988   4.124   5.603  12.079 -0.2040 -1.0495  0.8530
14686SOL    HW253989   4.220   5.587  12.195  1.4217  0.3821 -0.2430
14687SOL     OW53990  10.278  11.929   1.142 -0.2617  0.8595 -0.3280
14687SOL    HW153991  10.257  11.850   1.092  1.3475 -0.1630  0.5023
14687SOL    HW253992  10.352  11.903   1.197 -0.9707  2.3744  1.4576
14688SOL     OW53993   8.902   6.784   9.258 -0.8404  0.1678  0.3402
14688SOL    HW153994   8.824   6.826   9.296 -0.6001  2.1981 -1.2243
14688SOL    HW253995   8.971   6.799   9.323 -1.5364 -0.9222  1.3690
14689SOL     OW53996  12.001  12.112  12.403 -0.3839 -0.2984  0.0662
14689SOL    HW153997  11.913  12.129  12.437 -1.7649 -1.0764 -2.7842
14689SOL    HW253998  11.995  12.026  12.362  1.1768  0.3646 -1.7269
14690SOL     OW53999   4.116   0.003   7.463 -0.0553 -0.1931 -0.0109
14690SOL    HW154000   4.076  -0.082   7.482  0.2572 -0.0414  1.4060
14690SOL    HW254001   4.044   0.066   7.473 -0.1223 -0.2098 -0.3640
14691SOL     OW54002  10.391   1.036  12.266  0.3511 -0.3128  0.0249
14691SOL    HW154003  10.465   1.070  12.316  0.2851 -1.3314  0.8540
14691SOL    HW254004  10.315   1.086  12.295  0.7320  0.9490 -1.0515
14692SOL     OW54005  11.905   3.140  12.168 -0.0326 -0.5335  0.1968
14692SOL    HW154006  11.934   3.228  12.145 -0.9383  0.1821  1.6779
14692SOL    HW254007  11.834   3.153  12.230  0.2865 -2.3101  1.0084
14693SOL     OW54008   0.450   9.702   8.345  0.5999 -0.0418 -0.2226
14693SOL    HW154009   0.417   9.651   8.419  0.6154 -2.0343 -1.4848
14693SOL    HW254010   0.530   9.655   8.319 -0.3654 -0.5132 -2.5820
14694SOL     OW54011   1.894   1.356  10.714  0.3564 -0.6268 -0.3005
14694SOL    HW154012   1.890   1.437  10.664  2.2388 -0.1305  0.2444
14694SOL    HW254013   1.916   1.289  10.650 -0.4430 -0.5841 -0.6291
14695SOL     OW54014   1.018   3.328   9.060 -0.1541 -0.0947 -0.3906
14695SOL    HW154015   1.084   3.362   9.120 -0.0706 -0.1750 -0.4383
14695SOL    HW254016   0.940   3.382   9.077 -0.2704 -0.4188  0.1096
14696SOL     OW54017  10.591   4.288   1.525  0.3474 -0.3921  0.0293
14696SOL    HW154018  10.628   4.376   1.533 -0.2272  0.3557 -3.5161
14696SOL    HW254019  10.642   4.247   1.455 -1.6929 -1.4810 -0.9133
14697SOL     OW54020   2.287  10.331  11.375 -0.2867 -0.2537  0.4842
14697SOL    HW154021   2.212  10.390  11.383  1.0109  1.3834  1.2637
14697SOL    HW254022   2.361  10.381  11.411  1.4875 -1.1981 -1.5915
14698SOL     OW54023   1.200   3.848   3.324  0.0091 -0.2951  0.1335
14698SOL    HW154024   1.194   3.880   3.234 -1.0101 -1.8617 -0.3964
14698SOL    HW254025   1.248   3.765   3.317 -0.2461 -0.5262  0.9958
14699SOL     OW54026   9.170   8.468  11.902 -0.2475 -0.2102  0.0821
14699SOL    HW154027   9.088   8.471  11.952  0.1614 -1.5346  0.8874
14699SOL    HW254028   9.154   8.526  11.827 -2.2251 -1.0282 -0.2077
14700SOL     OW54029   1.627  12.739   9.148  0.1991  0.0207 -0.2581
14700SOL    HW154030   1.543  12.738   9.101  1.1000 -2.0806 -2.0085
14700SOL    HW254031   1.681  12.801   9.099  0.3588 -0.3289 -0.5330
14701SOL     OW54032   7.346   8.861  12.329  0.0379 -0.2652 -0.7879
14701SOL    HW154033   7.357   8.897  12.417  2.6359  1.5561 -1.7307
14701SOL    HW254034   7.287   8.922  12.285  0.9325  0.4077 -1.0829
14702SOL     OW54035   7.252   2.179   2.626 -0.2726 -0.2696  0.3019
14702SOL    HW154036   7.218   2.262   2.595 -1.1829 -0.3851  0.9543
14702SOL    HW254037   7.335   2.201   2.668  0.8852 -0.0817 -1.9463
14703SOL     OW54038   7.860   7.573   7.758  0.7050  0.0568 -0.6462
14703SOL    HW154039   7.865   7.554   7.665  0.0346  1.4440 -0.9907
14703SOL    HW254040   7.832   7.664   7.763 -1.0345 -0.5024  0.9172
14704SOL     OW54041   9.814  10.069  11.145  0.4933 -0.8326 -0.1942
14704SOL    HW154042   9.886  10.030  11.096  1.6914  2.6447 -1.5584
14704SOL    HW254043   9.843  10.159  11.161 -3.1572  0.4502  0.0638
14705SOL     OW54044   8.692   0.612  10.699  0.1960 -0.0482 -0.2523
14705SOL    HW154045   8.710   0.535  10.645  0.6121 -0.3964  0.3786
14705SOL    HW254046   8.637   0.580  10.770  1.4363 -0.0452  0.7396
14706SOL     OW54047  10.625  12.606  12.914 -0.2975  0.4361  0.0039
14706SOL    HW154048  10.629  12.554  12.834 -0.2497  2.1711 -1.1698
14706SOL    HW254049  10.647  12.695  12.887 -1.9969  1.4363  1.6077
14707SOL     OW54050  10.592   4.256  12.122 -0.3441 -0.0858 -0.4337
14707SOL    HW154051  10.647   4.183  12.091  0.0280 -0.4003  0.8875
14707SOL    HW254052  10.654   4.320  12.154 -0.7270 -0.3977  0.9809
14708SOL     OW54053   9.483   2.547  11.730  0.2304  0.9406 -0.2618
14708SOL    HW154054   9.568   2.534  11.771 -0.0611 -3.6520 -0.5289
14708SOL    HW254055   9.504   2.575  11.641  1.4904  0.4814 -0.1370
14709SOL     OW54056   0.081   3.405   6.732 -0.1514 -0.0078 -0.2992
14709SOL    HW154057   0.109   3.318   6.763 -0.9676 -0.4111 -0.6720
14709SOL    HW254058   0.163   3.455   6.727  0.6392 -1.3544 -2.0329
14710SOL     OW54059   0.302  12.504   8.322  0.2561  0.0509 -0.3121
14710SOL    HW154060   0.208  12.514   8.314 -0.2296 -2.6770  0.8277
14710SOL    HW254061   0.338  12.552   8.247 -2.0517  0.3291 -1.3339
14711SOL     OW54062   6.768  11.879  10.187 -0.7152  0.2110 -0.1908
14711SOL    HW154063   6.687  11.829  10.177 -1.5831  1.4087  0.6259
14711SOL    HW254064   6.740  11.970  10.200  0.7348  0.5797  0.6588
14712SOL     OW54065   7.978   2.185   4.606  0.2954  0.1725 -0.5258
14712SOL    HW154066   8.017   2.197   4.692  0.1916 -1.8266 -0.1586
14712SOL    HW254067   7.895   2.141   4.623 -0.2649  0.7864 -1.5783
14713SOL     OW54068   7.031   5.778   4.298 -0.4774 -0.2042 -0.1034
14713SOL    HW154069   6.964   5.731   4.348 -1.7571  0.8773 -0.7172
14713SOL    HW254070   7.106   5.720   4.298 -1.3787 -1.4302  0.7117
14714SOL     OW54071  12.209   3.043  10.496 -0.3059  0.1132 -0.5857
14714SOL    HW154072  12.214   2.957  10.456  0.8188  0.2159 -0.7156
14714SOL    HW254073  12.149   3.032  10.570 -0.3155 -0.7297 -0.7100
14715SOL     OW54074   8.273   5.481  10.455 -0.0492  0.1720  0.3527
14715SOL    HW154075   8.263   5.549  10.521 -1.7791  0.5403 -0.2337
14715SOL    HW254076   8.301   5.404  10.504 -2.3140  0.1361  1.7154
14716SOL     OW54077   9.922   8.443   4.815  0.1212 -0.8111 -0.3468
14716SOL    HW154078   9.966   8.364   4.846 -1.4934 -1.0677  1.4623
14716SOL    HW254079   9.946   8.449   4.723  0.9096 -2.9587 -0.3417
14717SOL     OW54080   6.868   6.049   1.755  0.2482 -0.5148  0.4128
14717SOL    HW154081   6.859   5.959   1.722  3.9506 -0.5817 -0.8260
14717SOL    HW254082   6.836   6.104   1.684 -1.7379 -0.7559  1.0529
14718SOL     OW54083   8.984   9.738  11.522 -0.0067 -0.2534  0.0902
14718SOL    HW154084   9.019   9.827  11.520  1.7794 -0.9385 -1.3257
14718SOL    HW254085   9.058   9.682  11.501 -1.4261 -1.9830 -0.5819
14719SOL     OW54086   6.820   6.103  12.575  0.0873 -0.0199 -0.1262
14719SOL    HW154087   6.769   6.059  12.508 -1.0328 -0.9515  1.2980
14719SOL    HW254088   6.813   6.047  12.652 -0.0866  1.8566  1.2888
14720SOL     OW54089   4.633   1.298   0.146 -0.3174 -0.5353  0.7487
14720SOL    HW154090   4.620   1.276   0.239 -2.8909 -0.9551  0.3491
14720SOL    HW254091   4.578   1.236   0.099 -2.0042  2.0104 -0.8320
14721SOL     OW54092   2.829   8.445   6.587 -0.0352 -0.4153  0.7943
14721SOL    HW154093   2.834   8.505   6.512 -0.7044 -0.6235  0.5801
14721SOL    HW254094   2.861   8.362   6.553  0.4652 -0.2942  0.9698
14722SOL     OW54095   3.699   3.972  12.403  0.2152  0.2557  0.0842
14722SOL    HW154096   3.760   3.991  12.474  0.4716 -1.5939  0.4201
14722SOL    HW254097   3.623   3.933  12.446  1.1173 -2.6108 -0.7073
14723SOL     OW54098   3.564   9.904  11.053 -0.1395 -0.0117  0.0115
14723SOL    HW154099   3.560   9.935  11.143 -0.5300 -0.0640  0.0161
14723SOL    HW254100   3.576   9.809  11.061 -0.7311 -0.0920  0.0186
14724SOL     OW54101   2.358  10.371  13.224 -0.3634 -0.1173  0.2222
14724SOL    HW154102   2.439  10.321  13.226 -0.9996 -1.1795  0.0475
14724SOL    HW254103   2.289  10.308  13.245 -1.3352  0.3556 -1.3035
14725SOL     OW54104   5.139   1.850   9.913 -0.2539  0.0578  0.0998
14725SOL    HW154105   5.153   1.756   9.924  3.3014  0.6560  2.0936
14725SOL    HW254106   5.102   1.879   9.996 -0.3885  0.5872 -0.1371
14726SOL     OW54107   4.495  13.057   6.174  0.1329  0.1733 -0.2084
14726SOL    HW154108   4.484  13.018   6.261 -0.3165  0.9371  0.0830
14726SOL    HW254109   4.425  13.122   6.168  1.2523  1.3784 -0.4514
14727SOL     OW54110   4.953  12.567   6.211  0.1383  0.3866  0.7559
14727SOL    HW154111   4.891  12.503   6.245  0.9738 -0.7830  0.1722
14727SOL    HW254112   4.926  12.581   6.120 -0.0694  0.9052  0.8951
14728SOL     OW54113   7.060   0.185   9.681 -0.0360 -0.2111 -0.1919
14728SOL    HW154114   7.104   0.144   9.756 -1.5559 -0.6693  0.4892
14728SOL    HW254115   6.998   0.246   9.720  0.5021  1.0040 -1.1616
14729SOL     OW54116  10.058   9.629  11.147 -0.9121 -0.3682 -0.1632
14729SOL    HW154117  10.030   9.705  11.096  0.1974 -0.1488 -0.4805
14729SOL    HW254118  10.153   9.637  11.151 -0.9712  0.0231  2.5770
14730SOL     OW54119   5.798   1.830   9.596 -0.4847 -0.1759 -0.5516
14730SOL    HW154120   5.703   1.822   9.599 -0.6364  1.4790  0.0541
14730SOL    HW254121   5.829   1.767   9.661 -1.1104 -1.0069 -1.0205
14731SOL     OW54122   1.773   6.889   8.781 -0.9219  0.2300  0.8303
14731SOL    HW154123   1.721   6.818   8.743 -0.2109  0.7602 -1.3007
14731SOL    HW254124   1.856   6.848   8.805 -0.3535  0.3269 -0.7800
14732SOL     OW54125   4.264   1.949   3.889 -0.0677 -0.0801  0.1830
14732SOL    HW154126   4.241   1.917   3.801  0.5404  0.0268 -0.0153
14732SOL    HW254127   4.188   1.926   3.943  0.0635 -1.2600 -0.1046
14733SOL     OW54128   0.997   0.396   2.124 -0.0752  0.0173 -0.1844
14733SOL    HW154129   0.938   0.440   2.063 -1.6136  0.7512  1.7260
14733SOL    HW254130   1.041   0.329   2.071 -1.9691  0.0380 -1.8942
14734SOL     OW54131  13.188  12.429   6.191 -0.0675  0.1132 -0.5379
14734SOL    HW154132  13.117  12.457   6.133  1.6008  1.1666 -2.2094
14734SOL    HW254133  13.197  12.335   6.176  0.3394  0.3690 -2.0756
14735SOL     OW54134   4.912   2.269   4.124 -0.4288  0.1541  0.2833
14735SOL    HW154135   4.928   2.177   4.144  0.1334 -0.1075 -1.2090
14735SOL    HW254136   4.997   2.301   4.093 -0.9543  0.7984 -0.5281
14736SOL     OW54137   7.086   9.921   2.802 -0.0409 -0.8256  0.3769
14736SOL    HW154138   6.998   9.883   2.799 -0.3466 -0.0776 -0.4789
14736SOL    HW254139   7.073  10.008   2.841  0.0825 -0.1141 -1.1277
14737SOL     OW54140   0.446   1.783   0.897 -0.0372  0.2457 -0.1723
14737SOL    HW154141   0.495   1.733   0.962  1.5486 -1.6427 -2.6396
14737SOL    HW254142   0.359   1.742   0.896  0.2206 -0.3231  0.1335
14738SOL     OW54143   4.424   5.599   5.291  0.0323  0.3104 -0.1174
14738SOL    HW154144   4.375   5.524   5.256 -0.5479 -0.0018  1.3006
14738SOL    HW254145   4.459   5.569   5.374  1.0230  1.1699 -0.1966
14739SOL     OW54146  11.655   8.152   5.760  0.8828  0.1390 -0.2306
14739SOL    HW154147  11.726   8.170   5.821  0.2211  1.1634  0.2605
14739SOL    HW254148  11.576   8.170   5.809  0.2909 -0.3062 -0.9951
14740SOL     OW54149  10.494   9.502   6.250 -0.0554  0.4713 -0.4308
14740SOL    HW154150  10.576   9.544   6.225  0.2659  0.7688  1.0085
14740SOL    HW254151  10.518   9.442   6.321 -0.9917  0.1285 -0.3856
14741SOL     OW54152   1.326   3.567   0.804  0.0242 -0.2857  0.3681
14741SOL    HW154153   1.341   3.641   0.745  1.6568 -0.9169 -0.0646
14741SOL    HW254154   1.398   3.507   0.786  0.3577 -0.6776  2.7701
14742SOL     OW54155   1.796  12.300   6.948 -0.1740  0.1100 -0.5470
14742SOL    HW154156   1.826  12.212   6.967 -1.9527 -0.2805  0.6939
14742SOL    HW254157   1.791  12.304   6.852 -0.0197 -1.1121 -0.6113
14743SOL     OW54158  11.541   7.136  10.551 -0.6307  0.1044  0.6272
14743SOL    HW154159  11.535   7.054  10.503  0.7616  0.2727  0.1154
14743SOL    HW254160  11.586   7.114  10.633  2.4568  0.7648 -0.7525
14744SOL     OW54161   0.843   4.712   3.508 -0.3722  0.2128 -0.6762
14744SOL    HW154162   0.924   4.661   3.503 -0.7289 -0.4364 -0.0345
14744SOL    HW254163   0.861   4.779   3.573 -0.5432 -0.3218 -0.0611
14745SOL     OW54164   1.403  12.026  12.280 -0.2442 -0.2478 -0.2024
14745SOL    HW154165   1.334  12.087  12.254 -0.5409 -0.1518  0.7808
14745SOL    HW254166   1.415  11.970  12.203 -0.3426  0.6992 -0.9211
14746SOL     OW54167   5.740   4.838   5.488  0.2149  0.1939 -0.0563
14746SOL    HW154168   5.721   4.772   5.421 -1.0760  1.2555 -0.7808
14746SOL    HW254169   5.666   4.833   5.549  0.4619  0.5052  0.2752
14747SOL     OW54170   9.002   6.964  10.236  0.2936  0.0717  0.4486
14747SOL    HW154171   8.999   6.894  10.301 -0.1886  0.1742  0.5408
14747SOL    HW254172   9.032   7.041  10.285  3.7224 -0.6607 -0.2101
14748SOL     OW54173   1.057   2.557  12.944 -0.3345 -0.3095 -0.7216
14748SOL    HW154174   1.106   2.510  13.011 -0.5691 -1.3183 -1.2406
14748SOL    HW254175   1.019   2.489  12.889  0.1164  0.4813 -2.0863
14749SOL     OW54176   2.995   4.010   3.846 -0.5887 -0.2419 -0.0122
14749SOL    HW154177   3.089   3.998   3.857 -0.5360  0.7034  0.6095
14749SOL    HW254178   2.982   4.013   3.751  0.0304 -0.1676 -0.0958
14750SOL     OW54179   2.917   9.465   6.251  0.2321  0.1013  0.0886
14750SOL    HW154180   2.975   9.462   6.328  0.9079 -2.3298 -0.4077
14750SOL    HW254181   2.892   9.373   6.238 -0.4622  0.5671 -2.1563
14751SOL     OW54182  11.345   7.335   0.808 -0.7423  0.7502 -0.3782
14751SOL    HW154183  11.289   7.333   0.731 -1.9933 -0.5184  0.5201
14751SOL    HW254184  11.430   7.365   0.775 -0.6821 -1.5394 -2.6290
14752SOL     OW54185  12.493   2.211   0.851 -0.3649 -0.5834 -0.0405
14752SOL    HW154186  12.483   2.221   0.756 -0.8589  0.7287  0.1192
14752SOL    HW254187  12.545   2.288   0.877 -0.3896 -0.8345  0.7734
14753SOL     OW54188   3.754   0.300   7.984  0.0291  0.0289 -0.2714
14753SOL    HW154189   3.773   0.367   8.049 -0.7237  0.1190 -0.1373
14753SOL    HW254190   3.824   0.236   7.995  0.7205  0.7623 -0.3633
14754SOL     OW54191  11.539  12.594  11.039  0.1183  0.4097 -0.2329
14754SOL    HW154192  11.484  12.671  11.022  1.5873  1.5299 -0.1379
14754SOL    HW254193  11.582  12.576  10.955  0.1301 -0.0347 -0.1342
14755SOL     OW54194   5.906  10.908   2.834  0.7369 -0.6631 -0.0777
14755SOL    HW154195   5.909  10.952   2.919  1.9158 -0.8917  0.0235
14755SOL    HW254196   5.969  10.836   2.843 -0.5174 -1.8676 -0.5166
14756SOL     OW54197   2.623   3.783  12.371 -0.0444 -0.1929 -0.1479
14756SOL    HW154198   2.686   3.755  12.437 -0.8872 -2.7387 -0.2982
14756SOL    HW254199   2.567   3.847  12.417  1.0528  0.1598  0.7375
14757SOL     OW54200   4.020   2.020   7.149 -0.2029 -0.2667 -0.2782
14757SOL    HW154201   4.062   2.037   7.065  0.2404  1.2670  0.2276
14757SOL    HW254202   4.023   2.104   7.195 -1.1823 -0.8719  0.9449
14758SOL     OW54203   5.490  11.500   8.393  0.0538 -0.0421 -0.4310
14758SOL    HW154204   5.586  11.501   8.393  0.0649 -0.3017  0.2033
14758SOL    HW254205   5.466  11.453   8.313  0.4761 -0.7701 -0.1392
14759SOL     OW54206   4.040   4.592  11.629 -0.2173  0.9766 -0.0673
14759SOL    HW154207   3.984   4.514  11.632 -0.1882  0.9830  0.9690
14759SOL    HW254208   3.989   4.655  11.578 -0.1050  0.1875 -1.1809
14760SOL     OW54209   3.131   9.303   7.199 -0.4736 -0.0676 -0.6785
14760SOL    HW154210   3.061   9.341   7.146 -0.6650  0.6134  0.0459
14760SOL    HW254211   3.165   9.376   7.250 -0.5517 -0.7793  0.4187
14761SOL     OW54212   2.660   7.745  10.040 -0.1828 -0.1360  0.4161
14761SOL    HW154213   2.734   7.806  10.038 -0.5390  0.3805  1.7961
14761SOL    HW254214   2.608   7.766   9.963  1.4030 -0.9157 -0.9196
14762SOL     OW54215   9.713   5.808   1.520 -0.3234 -0.0125 -0.1475
14762SOL    HW154216   9.785   5.858   1.482 -0.1090 -0.1293  0.1055
14762SOL    HW254217   9.728   5.718   1.491 -0.4042 -0.0237 -0.1532
14763SOL     OW54218   8.722   9.696  10.347  0.0821  0.9208  0.2257
14763SOL    HW154219   8.768   9.780  10.341  1.5264  0.1847  0.4943
14763SOL    HW254220   8.778   9.636  10.298  0.4430 -0.4446  2.2301
14764SOL     OW54221   5.784   4.702  11.592 -0.5590  0.4138 -0.0976
14764SOL    HW154222   5.802   4.743  11.677  0.9116  2.1769 -1.1850
14764SOL    HW254223   5.871   4.686  11.555 -1.1819 -0.6549 -1.1420
14765SOL     OW54224   8.981   5.979   0.667  0.2785 -0.4434  0.0303
14765SOL    HW154225   9.025   5.961   0.584  0.1210 -0.8531  0.0340
14765SOL    HW254226   9.009   5.909   0.726  2.9020  1.4946  1.3434
14766SOL     OW54227   1.320  10.151   2.279  0.2676 -0.4666  0.1098
14766SOL    HW154228   1.246  10.171   2.336  1.0372  1.0635  0.6237
14766SOL    HW254229   1.289  10.078   2.225 -1.1604 -0.6830  1.1525
14767SOL     OW54230   9.222  10.848   0.539 -0.0583 -0.5751  0.4302
14767SOL    HW154231   9.251  10.769   0.584 -0.4587 -0.7344  0.4106
14767SOL    HW254232   9.280  10.855   0.463  0.7215 -0.2165  1.0510
14768SOL     OW54233  11.407  11.478  10.793  0.3063  0.1919  0.4742
14768SOL    HW154234  11.361  11.394  10.801  1.9514 -0.7136  1.0820
14768SOL    HW254235  11.444  11.476  10.705  3.0886 -1.3028  1.5517
14769SOL     OW54236   7.856   6.616   2.891  0.4804  0.1231 -0.1792
14769SOL    HW154237   7.874   6.573   2.975  2.0058 -0.7406 -0.9086
14769SOL    HW254238   7.908   6.696   2.893  0.5622  0.0735 -0.3252
14770SOL     OW54239   9.433   0.961   5.490  0.1746 -0.2426  0.6913
14770SOL    HW154240   9.492   0.899   5.534 -0.0629 -0.5160  0.6281
14770SOL    HW254241   9.484   0.992   5.415 -0.8149 -2.8658 -1.2375
14771SOL     OW54242   3.476  13.218  12.690  0.5764 -0.0094  0.2500
14771SOL    HW154243   3.562  13.233  12.730  1.4646  0.6774 -1.7623
14771SOL    HW254244   3.425  13.296  12.713  0.5326 -0.3261  1.2867
14772SOL     OW54245   7.344   5.841   2.097 -0.6969  0.2406 -0.0073
14772SOL    HW154246   7.321   5.867   2.186  0.6663  0.6184  0.2635
14772SOL    HW254247   7.260   5.829   2.053 -1.4208 -0.7371  1.5363
14773SOL     OW54248   9.682  10.617  12.591 -1.0828  0.5447  0.4526
14773SOL    HW154249   9.767  10.649  12.621  0.2165  0.2877 -2.5093
14773SOL    HW254250   9.659  10.674  12.518 -3.2958  0.3273  0.8931
14774SOL     OW54251   9.638   3.998   6.324 -0.1716 -0.0388  0.0846
14774SOL    HW154252   9.661   3.909   6.349 -1.9341 -0.3149  0.8969
14774SOL    HW254253   9.632   3.996   6.229 -0.2413 -0.7931  0.1012
14775SOL     OW54254   2.307   5.100   1.436 -0.1124 -0.2306 -0.4089
14775SOL    HW154255   2.373   5.047   1.391 -0.2053  1.4125 -2.6645
14775SOL    HW254256   2.223   5.064   1.406 -0.1748  0.6447 -1.3595
14776SOL     OW54257   7.939   1.805  12.272  0.5715  0.2789  0.0403
14776SOL    HW154258   8.020   1.796  12.321 -0.2528  2.1365  1.8942
14776SOL    HW254259   7.874   1.757  12.325 -0.2756  2.0865  0.7018
14777SOL     OW54260  10.385  12.179   9.070  0.1077 -0.2824  0.2539
14777SOL    HW154261  10.346  12.259   9.034  1.3789  0.1212 -0.2993
14777SOL    HW254262  10.347  12.171   9.157 -2.7221 -1.0492 -0.9336
14778SOL     OW54263   8.821   9.927   7.204 -0.6795 -0.6839 -0.2129
14778SOL    HW154264   8.747   9.937   7.265 -0.6055 -0.2558 -0.1893
14778SOL    HW254265   8.823   9.833   7.185 -0.5550 -0.8661  0.6333
14779SOL     OW54266   7.735   3.808   1.563 -0.3804 -0.0201 -0.3312
14779SOL    HW154267   7.729   3.841   1.653  0.1315 -0.4488 -0.1310
14779SOL    HW254268   7.665   3.743   1.557  0.2581 -0.7705  0.1123
14780SOL     OW54269   8.047   7.349   0.009  0.1537 -0.1571 -0.1896
14780SOL    HW154270   8.090   7.268  -0.022  1.4400  0.9481 -1.4531
14780SOL    HW254271   8.032   7.400  -0.071 -1.8594  0.3223  0.4408
14781SOL     OW54272   4.631   6.894   5.824 -0.2923 -0.5744 -0.1323
14781SOL    HW154273   4.637   6.860   5.913  0.6623 -0.4777 -0.1413
14781SOL    HW254274   4.559   6.957   5.826 -1.0992 -1.4972  0.2512
14782SOL     OW54275   5.480   2.248  11.003  0.4281 -1.2689  0.1105
14782SOL    HW154276   5.389   2.235  10.977 -0.1968  2.6441 -0.3304
14782SOL    HW254277   5.476   2.261  11.098 -0.1901  2.3164 -0.2628
14783SOL     OW54278   3.228   1.992   7.416  0.1876  0.3870 -0.6972
14783SOL    HW154279   3.264   2.056   7.477  0.2556 -1.0605  0.8744
14783SOL    HW254280   3.300   1.931   7.400  0.2349  0.8679 -2.4580
14784SOL     OW54281   1.094   3.783  10.901 -0.0731  0.8133 -0.1205
14784SOL    HW154282   1.010   3.784  10.855  0.0719 -1.4625 -0.5371
14784SOL    HW254283   1.151   3.728  10.847  0.5858 -0.6407  1.9197
14785SOL     OW54284   1.979   4.928   7.384 -0.2141  0.7284  0.8973
14785SOL    HW154285   2.042   4.999   7.392  0.6148 -0.0188  1.2351
14785SOL    HW254286   2.020   4.854   7.430 -1.1486  0.0979  0.7558
14786SOL     OW54287   1.084   6.457   2.104 -0.7951 -0.0840 -0.1287
14786SOL    HW154288   1.014   6.403   2.141 -0.4891 -0.6971 -0.4322
14786SOL    HW254289   1.114   6.407   2.028 -0.9887  0.8485 -0.8358
14787SOL     OW54290   3.879   3.651   5.374  0.1156 -0.3398 -0.4818
14787SOL    HW154291   3.793   3.618   5.348  0.5374 -0.1847 -2.2097
14787SOL    HW254292   3.862   3.706   5.450 -0.9111 -2.5827  1.0091
14788SOL     OW54293   4.265   1.666   2.193  0.9884  0.5052 -0.2405
14788SOL    HW154294   4.246   1.730   2.124 -1.2311 -1.4234 -1.6307
14788SOL    HW254295   4.184   1.663   2.245  0.8747 -1.3597 -0.4587
14789SOL     OW54296   4.080   5.503   0.702 -0.4367 -0.3283  0.1763
14789SOL    HW154297   4.054   5.414   0.727  1.6703 -1.0703 -0.0119
14789SOL    HW254298   4.161   5.491   0.652  1.6505  1.8455  2.7217
14790SOL     OW54299  11.203  10.898   0.686  0.3040  0.4827 -0.3676
14790SOL    HW154300  11.202  10.853   0.601 -0.7324 -0.2713  0.0207
14790SOL    HW254301  11.278  10.958   0.680  1.1840 -0.6476 -1.2434
14791SOL     OW54302   4.582  10.387   8.760  0.1327 -0.3636 -0.1712
14791SOL    HW154303   4.657  10.329   8.770  0.6825  0.2135 -0.8511
14791SOL    HW254304   4.616  10.475   8.779 -0.8536 -0.3075  1.6124
14792SOL     OW54305   0.464   8.401   8.886 -0.0178  0.3791  0.5244
14792SOL    HW154306   0.453   8.318   8.839  1.1097  1.0760 -1.0745
14792SOL    HW254307   0.489   8.464   8.818  0.0930  1.8229  1.8428
14793SOL     OW54308  10.614   5.033   2.301  0.1042  0.7411 -0.4333
14793SOL    HW154309  10.600   5.119   2.262 -1.1209  0.0659 -1.5738
14793SOL    HW254310  10.545   5.025   2.368  0.6348  0.8973  0.1440
14794SOL     OW54311   4.280   9.314   2.830 -0.2263  0.0737 -0.2057
14794SOL    HW154312   4.264   9.327   2.924 -0.0072 -0.5660 -0.0768
14794SOL    HW254313   4.279   9.403   2.794 -2.9453  0.1870 -0.0631
14795SOL     OW54314   5.870   0.952  10.845  0.1075  0.0160 -0.3093
14795SOL    HW154315   5.910   0.923  10.928 -0.6687  0.5125  0.2473
14795SOL    HW254316   5.776   0.957  10.864 -0.2216 -0.9677 -1.5499
14796SOL     OW54317   0.957  12.820   0.750  0.0919 -0.5729  0.1405
14796SOL    HW154318   0.864  12.800   0.762  0.1257 -1.6212 -1.1374
14796SOL    HW254319   1.004  12.749   0.794  0.3528  0.5932  1.8552
14797SOL     OW54320   3.082  10.101  12.496  0.0497 -0.1217 -0.0562
14797SOL    HW154321   3.144  10.173  12.487 -0.1540 -0.2007 -2.5144
14797SOL    HW254322   3.137  10.022  12.492 -0.0871 -0.1686 -1.0261
14798SOL     OW54323  12.588   0.198   7.844  0.6102  0.1516 -0.0565
14798SOL    HW154324  12.495   0.204   7.821  0.8891 -0.4259 -1.4692
14798SOL    HW254325  12.588   0.162   7.932 -0.5160  0.0902 -0.0558
14799SOL     OW54326   5.437  12.988   1.564 -0.1830 -0.4484  0.2860
14799SOL    HW154327   5.362  13.044   1.585 -1.1982 -1.2412 -1.0016
14799SOL    HW254328   5.464  13.016   1.476 -0.5728 -1.7876 -0.2850
14800SOL     OW54329  12.856  12.389   4.473 -0.1857  0.2906  0.0781
14800SOL    HW154330  12.798  12.321   4.438  1.0847 -0.4713 -0.6011
14800SOL    HW254331  12.939  12.344   4.490 -0.1683  1.0570  2.3461
14801SOL     OW54332  11.077   2.395   8.643 -0.2974 -0.0665  0.0149
14801SOL    HW154333  11.052   2.354   8.560 -0.2637 -0.3411  0.1373
14801SOL    HW254334  11.163   2.434   8.625  0.9527 -2.3645  0.6198
14802SOL     OW54335   1.436   7.042  12.818 -0.4887  0.3539  0.3685
14802SOL    HW154336   1.462   6.950  12.814 -1.4454  0.0708  0.3386
14802SOL    HW254337   1.422   7.068  12.727  1.2064  0.9772  0.2544
14803SOL     OW54338  13.071   8.197   6.528  0.2466  0.2768 -0.7646
14803SOL    HW154339  13.034   8.219   6.613 -1.4465  0.4438 -1.5104
14803SOL    HW254340  13.063   8.102   6.523  0.8891  0.2012 -0.5198
14804SOL     OW54341   5.649   3.009   5.128  0.0480 -0.4748 -0.4930
14804SOL    HW154342   5.586   3.013   5.200 -1.6683  0.2816 -1.9641
14804SOL    HW254343   5.697   2.927   5.142 -1.8567 -1.5144  0.2030
14805SOL     OW54344   3.625  12.575   6.352 -0.6023 -0.6056  0.0922
14805SOL    HW154345   3.707  12.624   6.340 -1.4309  0.7365 -0.2788
14805SOL    HW254346   3.625  12.552   6.445  0.1569 -0.5753  0.1116
14806SOL     OW54347   8.638   9.754  12.849 -0.0860  0.0641  0.3183
14806SOL    HW154348   8.697   9.748  12.774  0.0307  1.1106  0.3069
14806SOL    HW254349   8.690   9.800  12.916 -0.1113 -1.0427  1.1291
14807SOL     OW54350  13.221   0.432   2.357  0.4545  0.3831 -0.7318
14807SOL    HW154351  13.236   0.375   2.281  0.2849 -0.1363 -0.3775
14807SOL    HW254352  13.169   0.379   2.417 -0.4656  1.2106 -0.7656
14808SOL     OW54353   8.540   0.062   4.530 -0.2923 -0.0142  0.5296
14808SOL    HW154354   8.545  -0.001   4.458  1.4746 -0.3050  0.8573
14808SOL    HW254355   8.522   0.146   4.487 -2.1009 -0.6145  0.0428
14809SOL     OW54356   2.581  12.908   7.288 -0.1796 -0.1591  0.1302
14809SOL    HW154357   2.529  12.934   7.211 -0.8958  0.7036  0.8877
14809SOL    HW254358   2.608  12.991   7.327 -3.2788 -0.3246  3.1239
14810SOL     OW54359   3.218   3.768   1.554  0.1437  0.0338 -0.3816
14810SOL    HW154360   3.296   3.745   1.503  1.0356 -1.1830  1.4073
14810SOL    HW254361   3.213   3.700   1.621 -2.9826 -0.3856 -0.9183
14811SOL     OW54362   5.936  10.131   2.744  0.1505  0.5520 -0.1560
14811SOL    HW154363   5.952  10.159   2.653  0.3052  0.5968 -0.1156
14811SOL    HW254364   6.018  10.089   2.770  0.4099  1.2841  0.2395
14812SOL     OW54365  12.596   1.520   9.120 -0.1606  0.3827 -0.1764
14812SOL    HW154366  12.575   1.586   9.055 -2.4945  0.8590  0.9400
14812SOL    HW254367  12.623   1.569   9.197  1.1146 -0.1199 -0.2785
14813SOL     OW54368   9.007   0.182   0.178 -0.0859  0.2661  0.1561
14813SOL    HW154369   8.946   0.231   0.122 -0.5966  1.7290  1.8925
14813SOL    HW254370   9.060   0.250   0.219  1.6229 -0.8992 -0.0492
14814SOL     OW54371  10.891   0.116  10.041  0.0899  0.8709 -0.2655
14814SOL    HW154372  10.814   0.151  10.086 -0.0835  0.6468 -0.3889
14814SOL    HW254373  10.859   0.095   9.953 -0.4380 -1.9380  0.5195
14815SOL     OW54374   7.505  10.752  13.182 -0.3054  0.0262  0.0306
14815SOL    HW154375   7.593  10.787  13.170  0.3427 -1.6943 -0.4812
14815SOL    HW254376   7.447  10.825  13.161  0.9711  1.4694  1.2734
14816SOL     OW54377  10.215   5.047   3.813 -0.1907  0.0572  0.1653
14816SOL    HW154378  10.136   5.026   3.864 -0.0971 -1.5608 -0.2889
14816SOL    HW254379  10.184   5.102   3.741 -0.4143  1.8831  1.6007
14817SOL     OW54380  12.276   6.726  11.757 -0.5210  0.3789 -0.0115
14817SOL    HW154381  12.283   6.631  11.756  0.0345  0.4202 -0.0699
14817SOL    HW254382  12.238   6.746  11.843  2.1510  0.2874  1.2761
14818SOL     OW54383   2.760   1.878   6.562  0.6343 -0.3636  0.0685
14818SOL    HW154384   2.813   1.949   6.597  1.6585 -1.2180  0.2962
14818SOL    HW254385   2.734   1.828   6.640 -1.0705  0.3930  0.0335
14819SOL     OW54386   4.902   8.501  10.943 -0.1683  0.0894 -0.1031
14819SOL    HW154387   4.983   8.484  10.895  1.6220  0.9803  2.4017
14819SOL    HW254388   4.832   8.488  10.878  2.0719  3.3435 -3.5698
14820SOL     OW54389   7.472   1.969   7.393  0.4130 -0.6420 -0.0166
14820SOL    HW154390   7.461   2.045   7.337 -1.4622 -0.4232  0.5776
14820SOL    HW254391   7.508   2.004   7.475 -0.1611 -0.4262  0.1472
14821SOL     OW54392   9.310   6.617   8.615  0.6951  0.3886  0.4436
14821SOL    HW154393   9.315   6.574   8.529 -0.9528 -0.7554  0.8731
14821SOL    HW254394   9.317   6.546   8.678  0.7213  1.0852  1.2483
14822SOL     OW54395   9.364   2.096  12.230 -0.0115  0.5914 -0.2353
14822SOL    HW154396   9.400   2.138  12.151 -0.4491 -0.8913 -1.2663
14822SOL    HW254397   9.271   2.084  12.211  0.2618 -1.6518 -0.3912
14823SOL     OW54398   7.495   7.847  11.411  0.2755 -0.0754  0.3630
14823SOL    HW154399   7.402   7.834  11.390 -0.2130  0.0020  2.2576
14823SOL    HW254400   7.535   7.873  11.329 -1.4721  0.3177 -0.4069
14824SOL     OW54401   3.024  11.388   8.979  0.1489 -0.1948 -0.6185
14824SOL    HW154402   3.065  11.362   9.062 -0.5423 -0.8773 -0.4802
14824SOL    HW254403   3.097  11.415   8.924  1.0536 -3.0730 -1.0067
14825SOL     OW54404   4.126   9.815   9.358 -0.1443  0.4083  0.0861
14825SOL    HW154405   4.107   9.827   9.451  1.0663 -1.1249  0.5649
14825SOL    HW254406   4.220   9.800   9.353 -0.4264 -1.2446 -1.1866
14826SOL     OW54407   9.736   4.285   3.505  0.3057 -0.0641  0.8723
14826SOL    HW154408   9.758   4.377   3.516  0.4999  0.0572 -0.3079
14826SOL    HW254409   9.725   4.251   3.593  1.8740  0.7050  1.4033
14827SOL     OW54410   0.380   8.233  12.152 -0.6223 -0.4535  0.0925
14827SOL    HW154411   0.322   8.180  12.207 -1.1394  0.4185  0.4105
14827SOL    HW254412   0.403   8.308  12.207 -0.4989  0.0261 -0.6008
14828SOL     OW54413   7.534   8.117   0.434  0.6063 -0.4548  0.0533
14828SOL    HW154414   7.543   8.089   0.525 -0.5702 -1.1876 -0.0464
14828SOL    HW254415   7.440   8.116   0.417  0.7668  0.2839 -0.9903
14829SOL     OW54416   7.736  10.666   0.098  0.3675 -0.0214  0.4177
14829SOL    HW154417   7.742  10.651   0.004 -2.5892 -0.0943  0.1382
14829SOL    HW254418   7.819  10.634   0.133  1.1661 -0.8676 -2.0554
14830SOL     OW54419   7.860   7.910   1.694  0.2002  0.1822 -0.3344
14830SOL    HW154420   7.816   7.993   1.677  0.2057 -0.2428 -2.6176
14830SOL    HW254421   7.790   7.849   1.716  0.0913  0.5009  0.2289
14831SOL     OW54422  12.119  10.309   3.111 -0.0529 -0.0145  0.0611
14831SOL    HW154423  12.049  10.374   3.115  0.6325  0.7524 -0.1446
14831SOL    HW254424  12.128  10.288   3.018 -2.2173 -2.6108  0.3106
14832SOL     OW54425   2.009  12.889   0.575  0.4824  0.0608  0.2415
14832SOL    HW154426   1.919  12.869   0.547  0.0078 -1.0868  2.3819
14832SOL    HW254427   2.054  12.915   0.494 -1.7498  0.6343 -0.9032
14833SOL     OW54428   9.666  12.476  12.868 -1.0068  0.4560 -0.3417
14833SOL    HW154429   9.676  12.436  12.782  0.1369  1.2024 -0.5815
14833SOL    HW254430   9.751  12.463  12.910 -1.2300  0.9979  0.2875
14834SOL     OW54431  10.713   7.088   3.269  0.2762 -0.2510  0.0638
14834SOL    HW154432  10.621   7.088   3.242 -0.1885  0.3326  1.5673
14834SOL    HW254433  10.713   7.052   3.358  1.7911 -2.3439 -0.6854
14835SOL     OW54434   4.504   4.876   4.836  0.0157  0.0573  0.4648
14835SOL    HW154435   4.435   4.836   4.783  0.5266 -0.1449 -0.0565
14835SOL    HW254436   4.534   4.806   4.893  2.2384 -0.9606 -1.7524
14836SOL     OW54437   5.464   6.558   9.161 -0.0137  0.3011  0.1881
14836SOL    HW154438   5.455   6.602   9.246  3.1183  1.8082 -0.1056
14836SOL    HW254439   5.494   6.470   9.183 -0.0018  0.4211  0.6645
14837SOL     OW54440   7.766   8.207   7.093  0.3983  0.1342 -0.2022
14837SOL    HW154441   7.708   8.243   7.025  0.6454 -0.4125 -0.7139
14837SOL    HW254442   7.733   8.119   7.109 -0.6809  0.8171  1.6123
14838SOL     OW54443  13.105   8.177  13.244 -0.2196  0.2297  0.7110
14838SOL    HW154444  13.158   8.192  13.166 -0.0409 -0.1662  0.7525
14838SOL    HW254445  13.019   8.150  13.210  0.0284 -0.5178  0.6414
14839SOL     OW54446   0.194   5.449  12.650 -0.3057  0.2434  0.5428
14839SOL    HW154447   0.130   5.378  12.655 -0.8044  0.5674 -0.8122
14839SOL    HW254448   0.278   5.405  12.636 -0.3185 -0.1556  1.6733
14840SOL     OW54449  11.134  11.724   1.341  0.0915 -0.4211 -0.6149
14840SOL    HW154450  11.063  11.659   1.336 -0.5783  0.2573 -0.1432
14840SOL    HW254451  11.089  11.806   1.362  1.0494 -0.0101 -0.1547
14841SOL     OW54452   3.277   6.583   7.299 -0.7298 -0.0895 -0.0473
14841SOL    HW154453   3.260   6.552   7.388 -0.1542  0.5633  0.2995
14841SOL    HW254454   3.253   6.676   7.300  1.0784  0.4274 -0.0160
14842SOL     OW54455   7.234   8.834  10.825 -0.1998 -0.4468 -0.6365
14842SOL    HW154456   7.174   8.838  10.751 -2.9860  1.2722  1.5170
14842SOL    HW254457   7.201   8.763  10.879 -1.3785  1.4962  1.3314
14843SOL     OW54458   4.658   5.234   9.838 -0.3285  0.7676  0.0601
14843SOL    HW154459   4.622   5.273   9.758  0.2413 -0.5805 -0.8846
14843SOL    HW254460   4.667   5.308   9.898  1.7073  2.3323 -1.9939
14844SOL     OW54461   4.389   8.932   3.190 -0.3886  0.2512  0.0508
14844SOL    HW154462   4.364   8.943   3.282 -0.3497  0.9093 -0.0099
14844SOL    HW254463   4.310   8.957   3.141 -0.6384 -0.7664 -0.0885
14845SOL     OW54464   1.426   0.492   6.016 -0.3141  0.2089  0.0952
14845SOL    HW154465   1.448   0.461   5.928 -0.3020  0.7063 -0.0857
14845SOL    HW254466   1.396   0.415   6.063 -3.6873  0.4387 -1.3848
14846SOL     OW54467  11.162   1.352   4.844 -0.0889 -0.0298  0.3061
14846SOL    HW154468  11.148   1.265   4.880  0.8995  0.1278  1.1382
14846SOL    HW254469  11.248   1.348   4.803  0.2379  0.7054  0.8919
14847SOL     OW54470   3.578   5.337   5.251  0.1422 -0.3364 -0.4860
14847SOL    HW154471   3.497   5.304   5.212  0.1333 -1.0871  0.1406
14847SOL    HW254472   3.647   5.303   5.194  0.0992 -1.0064 -0.1520
14848SOL     OW54473   1.558   9.063  10.125  0.0928  0.1496  0.5982
14848SOL    HW154474   1.558   8.973  10.155 -2.0227 -0.5300 -1.2051
14848SOL    HW254475   1.542   9.115  10.204  2.3772 -0.8955  1.8344
14849SOL     OW54476   5.381   5.896   3.753  0.0306 -0.1705 -0.2349
14849SOL    HW154477   5.322   5.836   3.798  1.7579 -1.4201  0.4665
14849SOL    HW254478   5.388   5.972   3.811  0.0289 -0.5364  0.2470
14850SOL     OW54479   2.233   5.540   3.811 -0.8263  0.0083  0.0163
14850SOL    HW154480   2.273   5.457   3.788  0.0943  0.1993  0.8476
14850SOL    HW254481   2.279   5.568   3.890 -1.8219  0.8092  0.3379
14851SOL     OW54482   0.465   5.082   2.094  0.3966 -0.0366 -0.1215
14851SOL    HW154483   0.460   5.008   2.155  3.3267  0.3602  0.7272
14851SOL    HW254484   0.479   5.041   2.009  1.1095 -0.5052  0.2117
14852SOL     OW54485   2.264   1.511   9.267  0.1686  0.1170  0.1347
14852SOL    HW154486   2.359   1.503   9.266  0.1967  0.4071  0.2937
14852SOL    HW254487   2.242   1.541   9.178  0.0058 -2.1787 -0.6491
14853SOL     OW54488   7.930   9.463   9.449  0.6413  0.0274  0.0707
14853SOL    HW154489   7.861   9.399   9.434 -2.5710  3.4735 -1.3211
14853SOL    HW254490   7.963   9.443   9.537 -1.6518 -2.1594  0.5349
14854SOL     OW54491   0.013   7.812   0.430 -0.2010 -0.6649 -0.5702
14854SOL    HW154492  -0.046   7.783   0.500  1.8219 -1.2815  0.9678
14854SOL    HW254493   0.053   7.732   0.398  2.5018 -0.0491  0.9816
14855SOL     OW54494   9.210   6.249   1.316  0.0416 -0.7438 -0.6351
14855SOL    HW154495   9.270   6.266   1.243  0.2577  0.4568 -0.1836
14855SOL    HW254496   9.248   6.173   1.361  0.4558 -0.8608 -1.1706
14856SOL     OW54497   8.103  12.756   3.582 -0.2876 -0.1622  0.3960
14856SOL    HW154498   8.197  12.746   3.592 -0.1038 -1.8172 -2.1302
14856SOL    HW254499   8.083  12.718   3.497 -3.0940  1.2569  0.2803
14857SOL     OW54500   3.159   8.480   9.202  0.2861  0.1258 -0.1429
14857SOL    HW154501   3.081   8.515   9.158 -0.4426  0.4346  1.3153
14857SOL    HW254502   3.232   8.532   9.168 -0.0308 -0.5462 -1.9655
14858SOL     OW54503  11.052   9.472   2.335 -0.4400 -0.0591  0.0109
14858SOL    HW154504  11.090   9.385   2.319  0.0806  0.3515 -1.0318
14858SOL    HW254505  11.081   9.525   2.261 -2.1060  0.5886 -0.2045
14859SOL     OW54506   6.751   5.859   9.298  0.3380  0.0749 -0.2151
14859SOL    HW154507   6.660   5.840   9.274 -0.4472 -0.0573  2.5713
14859SOL    HW254508   6.793   5.773   9.305 -0.4743 -0.2018  2.3719
14860SOL     OW54509   1.058   0.924  11.146 -0.0162  0.6934  0.2159
14860SOL    HW154510   1.118   0.855  11.173  0.1762  1.4789  1.9586
14860SOL    HW254511   1.051   0.980  11.223 -2.6529  0.8663 -0.0646
14861SOL     OW54512   3.602   0.042   5.600 -0.3530 -0.3213  0.5115
14861SOL    HW154513   3.656   0.096   5.657 -0.1879  0.3817 -0.2849
14861SOL    HW254514   3.533   0.101   5.569 -1.5416 -1.1776  1.4398
14862SOL     OW54515  11.717   4.842   1.997  0.3381  0.2467  0.2915
14862SOL    HW154516  11.679   4.842   2.085 -0.1603  2.3971  0.1381
14862SOL    HW254517  11.658   4.897   1.946  1.4692  0.3126 -0.9821
14863SOL     OW54518  10.648  11.174   5.096  0.1226  1.0749  0.1535
14863SOL    HW154519  10.567  11.183   5.046 -0.2446  1.2974  0.7753
14863SOL    HW254520  10.670  11.081   5.089 -1.4381  0.5113  1.8483
14864SOL     OW54521   7.684   7.548   6.231 -0.3045  0.3424  0.2439
14864SOL    HW154522   7.713   7.576   6.144  0.5668 -1.7017 -0.1762
14864SOL    HW254523   7.736   7.471   6.251 -0.4892  0.7235  2.6100
14865SOL     OW54524   4.065   4.897   2.758  0.3103 -0.0583 -0.2058
14865SOL    HW154525   4.114   4.815   2.762  0.6923  0.1487 -0.5999
14865SOL    HW254526   4.125   4.959   2.716 -0.8267 -0.2163 -2.2262
14866SOL     OW54527  12.941   6.817   6.340 -0.0896 -0.2198  0.9856
14866SOL    HW154528  12.898   6.886   6.290 -1.0029 -0.5311  1.3331
14866SOL    HW254529  12.883   6.742   6.333  1.0295 -1.0538  0.3800
14867SOL     OW54530  11.311   5.824  13.255 -0.2457  0.3228 -0.4044
14867SOL    HW154531  11.331   5.917  13.257 -1.8022  0.6760  1.3520
14867SOL    HW254532  11.229   5.818  13.206 -0.1540 -0.1251 -0.5096
14868SOL     OW54533   9.699   6.844   4.959 -0.2051 -0.0738 -0.4899
14868SOL    HW154534   9.701   6.866   5.052 -0.2087 -0.1024 -0.4829
14868SOL    HW254535   9.735   6.756   4.954 -1.5465 -0.6637 -0.3479
14869SOL     OW54536   0.315  11.220   3.917 -0.1250  0.0389 -0.0132
14869SOL    HW154537   0.297  11.243   4.008 -1.1036 -0.4875 -0.0546
14869SOL    HW254538   0.333  11.303   3.874  0.2541  0.3005  0.6355
14870SOL     OW54539  11.643   7.971   1.116  0.4088  0.4522  0.0648
14870SOL    HW154540  11.551   7.945   1.120 -0.6917  4.0032  1.5532
14870SOL    HW254541  11.690   7.899   1.159 -1.6479 -1.3679 -0.5801
14871SOL     OW54542   4.582  10.456   8.347 -0.2649  0.1219  0.8202
14871SOL    HW154543   4.600  10.430   8.256  1.5387  2.3977  0.4430
14871SOL    HW254544   4.651  10.415   8.398 -2.0149 -2.2473  1.4787
14872SOL     OW54545   3.203   0.324   3.300  0.0973 -0.0311 -0.3309
14872SOL    HW154546   3.147   0.254   3.335 -1.7909  1.0121 -1.0970
14872SOL    HW254547   3.232   0.373   3.378 -1.6655  0.5289  0.0308
14873SOL     OW54548  11.307   4.058   9.584  0.1368 -0.1558  0.4869
14873SOL    HW154549  11.282   3.984   9.640  1.8095 -1.0105  0.1613
14873SOL    HW254550  11.400   4.072   9.603 -0.2655  2.3169  1.0128
14874SOL     OW54551   8.708   1.120   0.050  0.6167 -0.4910 -0.2234
14874SOL    HW154552   8.677   1.206   0.022 -0.2738 -0.6529  0.2380
14874SOL    HW254553   8.643   1.058   0.016  2.6677 -1.3418 -3.0279
14875SOL     OW54554   7.300   8.969   8.275  0.5410 -0.1712 -0.1983
14875SOL    HW154555   7.376   8.984   8.331  0.4384 -0.6913  0.0885
14875SOL    HW254556   7.286   8.874   8.278 -1.0895  0.0438  1.0687
14876SOL     OW54557   0.712   4.045  10.109 -0.2394  0.0292  0.2504
14876SOL    HW154558   0.670   4.107  10.169  0.5927  1.7650 -0.8790
14876SOL    HW254559   0.643   4.017  10.050 -0.3472  1.0083 -0.1054
14877SOL     OW54560   7.126  12.979  12.583  0.0324 -0.1671  0.3546
14877SOL    HW154561   7.145  13.048  12.647  0.6701  2.4045 -2.3829
14877SOL    HW254562   7.031  12.972  12.583  0.0188 -0.2554  1.5458
14878SOL     OW54563  10.775  11.060  12.318  0.4040 -0.0664  0.2832
14878SOL    HW154564  10.798  11.142  12.360 -1.2077  0.5735 -0.0255
14878SOL    HW254565  10.859  11.024  12.289  1.0891  1.7317 -0.0962
14879SOL     OW54566   7.382   6.238  10.235  0.0893 -0.4404 -0.1018
14879SOL    HW154567   7.339   6.295  10.298  0.0486  1.6316 -1.8713
14879SOL    HW254568   7.466   6.280  10.217  0.3068 -1.2366 -1.0549
14880SOL     OW54569   3.154  10.208   4.804 -0.4365  0.2367  0.0251
14880SOL    HW154570   3.241  10.190   4.839  0.0050  0.9555 -0.6636
14880SOL    HW254571   3.143  10.302   4.814 -1.4384  0.0509  0.7661
14881SOL     OW54572   1.063   2.618   1.542  0.1915  0.4863 -0.0709
14881SOL    HW154573   1.072   2.584   1.632  1.8351 -0.5750 -0.5863
14881SOL    HW254574   0.969   2.621   1.527 -0.1072  0.2340  1.5350
14882SOL     OW54575   2.316   2.783   7.503 -0.0586  0.0083  0.4623
14882SOL    HW154576   2.373   2.712   7.472  0.3892 -0.1292  1.5744
14882SOL    HW254577   2.347   2.861   7.458  1.3756  0.0385  1.4425
14883SOL     OW54578  11.841  11.727   6.998  0.2541  0.0197  0.1920
14883SOL    HW154579  11.870  11.761   6.913  0.3094 -1.5201 -0.4431
14883SOL    HW254580  11.774  11.662   6.976  1.3339 -1.5132  1.1992
14884SOL     OW54581   9.762   2.298   4.971  0.3140  0.1396 -0.3874
14884SOL    HW154582   9.785   2.297   4.878 -1.5694  0.4765 -0.8938
14884SOL    HW254583   9.846   2.309   5.016  1.2787 -0.1221 -2.0278
14885SOL     OW54584   5.934   0.778  11.788 -0.4251 -0.1337 -0.3335
14885SOL    HW154585   5.974   0.825  11.715  0.9502 -1.0596 -0.2036
14885SOL    HW254586   6.002   0.774  11.855 -0.7199 -1.6945 -0.0842
14886SOL     OW54587   9.237   1.484  11.588  0.2022 -0.0095 -0.4176
14886SOL    HW154588   9.218   1.406  11.639  0.1485  0.7944  0.8414
14886SOL    HW254589   9.151   1.517  11.561  0.1911 -0.0924 -0.4794
14887SOL     OW54590   2.451   1.886   5.755 -0.3419 -0.2340  0.7451
14887SOL    HW154591   2.440   1.936   5.836  1.5617 -3.0563  2.9504
14887SOL    HW254592   2.364   1.849   5.737 -0.7939  0.4317  1.5160
14888SOL     OW54593   5.640   0.630   2.648  0.4817  0.0307  0.3871
14888SOL    HW154594   5.585   0.599   2.720 -0.9175 -1.2535 -1.1248
14888SOL    HW254595   5.597   0.595   2.569  0.6407  3.2460 -1.2733
14889SOL     OW54596   7.500   7.574  11.271 -0.0263 -0.0731 -0.4588
14889SOL    HW154597   7.431   7.638  11.257 -0.6451 -0.6933 -0.2859
14889SOL    HW254598   7.571   7.623  11.312  0.1353  0.8468 -1.7644
14890SOL     OW54599   2.170   8.763   5.842  0.0680  0.5459  0.1495
14890SOL    HW154600   2.156   8.751   5.748 -0.4302  0.0034  0.2850
14890SOL    HW254601   2.124   8.844   5.864  1.0840  1.2538 -0.2641
14891SOL     OW54602  11.404   3.608  11.267 -0.2080 -0.0870 -0.1622
14891SOL    HW154603  11.474   3.670  11.287 -0.7327  0.4397  0.0508
14891SOL    HW254604  11.441   3.523  11.289  0.3718  0.1888 -0.0553
14892SOL     OW54605   8.092   2.368  11.701 -0.3263  0.0332 -0.2216
14892SOL    HW154606   8.041   2.287  11.698 -0.8106  0.2210  1.7858
14892SOL    HW254607   8.106   2.384  11.794  1.1100  1.4359 -0.6409
14893SOL     OW54608   7.844  12.248  10.124 -0.1486 -0.0115  0.1094
14893SOL    HW154609   7.923  12.257  10.070  1.1494  0.2208  1.9654
14893SOL    HW254610   7.848  12.159  10.158 -0.4066  0.1740  0.6305
14894SOL     OW54611   9.959   8.447   0.073 -0.3200 -0.3660  0.5053
14894SOL    HW154612  10.016   8.521   0.056 -0.9795  0.0621  0.1070
14894SOL    HW254613  10.011   8.370   0.048 -0.3334  0.0909 -1.0035
14895SOL     OW54614   5.749   7.051   4.579 -0.9615  0.1767  0.2128
14895SOL    HW154615   5.788   7.089   4.500 -0.5396  0.5166  0.5788
14895SOL    HW254616   5.655   7.063   4.567 -0.9142  0.0228 -0.3403
14896SOL     OW54617  10.137   7.063  11.771 -0.5366 -0.5824 -0.7993
14896SOL    HW154618  10.223   7.101  11.752 -0.3597 -1.1151 -1.0982
14896SOL    HW254619  10.084   7.083  11.694 -2.0551  3.4890  1.0281
14897SOL     OW54620   2.567  12.998   5.658  0.0184 -0.1766 -0.4883
14897SOL    HW154621   2.491  13.002   5.600  0.0330 -2.1684 -0.6880
14897SOL    HW254622   2.635  13.048   5.613 -0.8700  0.8371 -0.7417
14898SOL     OW54623   5.102   0.469   7.456  0.5453 -0.3183 -0.4110
14898SOL    HW154624   5.095   0.373   7.462 -1.1939 -0.2947 -1.4888
14898SOL    HW254625   5.086   0.488   7.364  0.8869  1.0188 -0.2047
14899SOL     OW54626   8.797   2.394  11.687 -0.0914  0.6425  0.8059
14899SOL    HW154627   8.765   2.306  11.668  0.6732  0.5145  0.0263
14899SOL    HW254628   8.850   2.383  11.766 -0.5889  0.5460  1.1312
14900SOL     OW54629   7.936   1.854   4.731 -0.6336  0.1607  0.5374
14900SOL    HW154630   7.894   1.892   4.653  1.0848  0.4547 -0.2908
14900SOL    HW254631   7.872   1.868   4.801 -1.2881  1.9945 -0.3380
14901SOL     OW54632   4.818   7.038   6.983 -0.0131 -0.2331  0.0041
14901SOL    HW154633   4.727   7.037   7.014 -0.0864  2.4200  0.0984
14901SOL    HW254634   4.812   7.013   6.891 -0.9569  0.5427 -0.1636
14902SOL     OW54635   0.991   8.212  12.166 -0.0205  0.4071 -0.3891
14902SOL    HW154636   0.918   8.158  12.195 -0.0005  0.8228  0.4693
14902SOL    HW254637   0.969   8.300  12.197  0.7342  0.5705 -0.3008
14903SOL     OW54638   4.458   4.629  10.830 -0.5403 -0.2145  0.5943
14903SOL    HW154639   4.530   4.680  10.792  0.1955 -0.3966  1.6954
14903SOL    HW254640   4.396   4.696  10.862 -0.4726 -0.0464  0.3779
14904SOL     OW54641   5.636   3.842  12.048  0.0103  0.1589 -0.2264
14904SOL    HW154642   5.633   3.849  11.953  0.5403 -1.3157 -0.3659
14904SOL    HW254643   5.555   3.797  12.072  0.7648 -1.2015 -0.1666
14905SOL     OW54644  10.862   5.716   4.582 -0.2168  0.1448 -0.4047
14905SOL    HW154645  10.853   5.637   4.634  0.7110  0.5136  0.3525
14905SOL    HW254646  10.828   5.692   4.496 -0.9287 -0.7486  0.1002
14906SOL     OW54647   1.084  10.456   7.765 -0.5309 -0.3534 -0.8234
14906SOL    HW154648   1.095  10.373   7.810  0.1796  0.3431  0.3424
14906SOL    HW254649   0.994  10.481   7.782 -0.0119  0.3622  1.0973
14907SOL     OW54650   7.963   4.614   0.064 -0.0491  0.3163  0.2762
14907SOL    HW154651   7.975   4.674  -0.009  0.2706 -0.7608 -0.5943
14907SOL    HW254652   7.868   4.605   0.072 -0.0841  0.1490 -0.2670
14908SOL     OW54653   6.323  10.317   8.795  0.4008 -0.4608  0.0638
14908SOL    HW154654   6.414  10.291   8.812  0.4292 -1.0034 -0.8687
14908SOL    HW254655   6.275  10.283   8.871  0.7731 -1.3787 -0.0945
14909SOL     OW54656   5.484  11.663  13.146  0.4903  0.1166 -0.3540
14909SOL    HW154657   5.563  11.609  13.147  0.0724 -0.5047 -0.2971
14909SOL    HW254658   5.440  11.642  13.063  0.5003  0.6343 -0.4964
14910SOL     OW54659  10.870   5.125   0.162  0.2227  0.0365 -0.1433
14910SOL    HW154660  10.945   5.113   0.221 -0.8564 -2.5065  0.8845
14910SOL    HW254661  10.816   5.048   0.178 -2.4988  1.6523 -1.0365
14911SOL     OW54662   4.742   7.054   9.970 -0.5350 -0.2543 -0.4790
14911SOL    HW154663   4.721   7.077  10.060 -1.1810  1.4332 -1.0197
14911SOL    HW254664   4.657   7.039   9.928 -0.1967 -2.2670 -0.5391
14912SOL     OW54665   0.915   9.460   3.523  0.1157 -0.0050  0.1462
14912SOL    HW154666   0.864   9.406   3.462 -0.0022  1.3780 -1.0357
14912SOL    HW254667   0.892   9.550   3.500  0.9827  0.5803  1.4714
14913SOL     OW54668  10.075  10.767   4.791  0.4474  0.0080  0.0200
14913SOL    HW154669  10.017  10.725   4.729 -0.1637 -0.4832  0.9085
14913SOL    HW254670  10.052  10.860   4.786 -0.8265 -0.2443  0.7693
14914SOL     OW54671   3.531   4.690   2.187 -0.8207 -0.0070 -0.0529
14914SOL    HW154672   3.592   4.633   2.141 -1.6172 -0.5382 -0.4829
14914SOL    HW254673   3.497   4.748   2.119 -0.8348  0.2518  0.1743
14915SOL     OW54674   1.254   4.179  12.086 -0.0768 -0.5521 -0.1636
14915SOL    HW154675   1.304   4.175  12.167  1.0730 -0.4890 -0.8478
14915SOL    HW254676   1.244   4.088  12.059  1.3745 -0.4931 -1.0132
14916SOL     OW54677   3.850   1.913   8.093  0.4256 -0.3041  0.0883
14916SOL    HW154678   3.861   2.006   8.070  1.6189 -0.2581  0.7665
14916SOL    HW254679   3.890   1.866   8.020 -0.0783 -0.2891 -0.2015
14917SOL     OW54680   1.732  11.938   4.444  0.4747  0.1032  0.1529
14917SOL    HW154681   1.772  11.890   4.516 -0.1827 -1.2890 -0.3758
14917SOL    HW254682   1.690  11.871   4.390 -1.1077  1.3259 -0.2306
14918SOL     OW54683   2.621   8.081  12.942  0.1643  0.6381 -0.5651
14918SOL    HW154684   2.642   8.081  12.848 -0.1596  2.6452 -0.6752
14918SOL    HW254685   2.546   8.023  12.949  0.4923  0.0685 -1.4606
14919SOL     OW54686   1.603   5.753  13.247  0.3823 -0.1940  0.1300
14919SOL    HW154687   1.513   5.722  13.258  0.9569 -2.4818 -1.1748
14919SOL    HW254688   1.617   5.756  13.153  2.2795 -1.8335  0.2977
14920SOL     OW54689   0.099   9.699   2.978  0.0322 -0.1436 -0.3236
14920SOL    HW154690   0.151   9.760   3.030 -0.3411 -0.5739  0.5729
14920SOL    HW254691   0.068   9.634   3.040 -0.2303 -0.8145 -1.1308
14921SOL     OW54692   1.669  12.350   2.990  0.0796  0.2399  0.0548
14921SOL    HW154693   1.727  12.300   3.047  0.8317  0.9741 -0.0378
14921SOL    HW254694   1.621  12.409   3.049 -0.6207 -0.4066  0.1374
14922SOL     OW54695   3.119  10.398  12.091 -0.1097  0.0901  0.0754
14922SOL    HW154696   3.109  10.334  12.020  0.9287 -0.0276  0.0265
14922SOL    HW254697   3.205  10.437  12.076 -0.7286  1.5144  0.1033
14923SOL     OW54698  13.155   6.041   3.228 -0.0363  0.1312 -0.1841
14923SOL    HW154699  13.186   5.979   3.293 -1.2999 -0.2982  0.0450
14923SOL    HW254700  13.089   6.093   3.274  0.3540  1.0352 -0.6301
14924SOL     OW54701   3.765   7.541   8.951  0.3273 -0.0335  0.3673
14924SOL    HW154702   3.754   7.589   9.033 -0.1770  0.8792 -0.2203
14924SOL    HW254703   3.795   7.454   8.978 -2.0918 -0.5277  1.6629
14925SOL     OW54704   9.393   7.595   8.443  0.5185 -0.7087  0.2712
14925SOL    HW154705   9.485   7.579   8.466  1.3042  1.7452 -0.7952
14925SOL    HW254706   9.345   7.580   8.524  1.9162 -1.5611  0.9793
14926SOL     OW54707  11.863   5.650   0.037  0.4186 -0.4189  0.4540
14926SOL    HW154708  11.946   5.698   0.044  0.6694 -0.7781  0.0533
14926SOL    HW254709  11.807   5.706  -0.016 -0.0281  0.3802  1.7217
14927SOL     OW54710  12.845   1.517  12.249 -0.1732 -0.1908 -0.5180
14927SOL    HW154711  12.809   1.510  12.160 -0.7848 -0.6342 -0.2373
14927SOL    HW254712  12.909   1.446  12.254  0.7247  0.5531 -0.9912
14928SOL     OW54713  12.776  13.038   4.240 -0.1634  0.0168 -0.0170
14928SOL    HW154714  12.702  12.978   4.241  0.5704 -0.9166 -0.7485
14928SOL    HW254715  12.815  13.030   4.328  0.9691 -1.9371 -0.6364
14929SOL     OW54716   8.457  12.425   0.568  0.2224  0.4709 -0.3513
14929SOL    HW154717   8.498  12.352   0.521 -2.3740 -0.8315 -0.7795
14929SOL    HW254718   8.417  12.384   0.645  0.6371  1.8569  0.6305
14930SOL     OW54719   3.635  10.805   2.379  0.0940 -0.7783  0.5063
14930SOL    HW154720   3.680  10.726   2.348  0.8349  0.2275 -1.0592
14930SOL    HW254721   3.669  10.818   2.468 -0.0662 -2.2180  0.8127
14931SOL     OW54722   0.811  10.055   8.148 -0.1499  0.2473  0.5493
14931SOL    HW154723   0.896  10.034   8.110  0.6730  0.2555  2.2972
14931SOL    HW254724   0.750   9.995   8.105  0.8510 -0.2399 -0.2266
14932SOL     OW54725   4.397   7.882   6.606 -0.2225 -0.4112  0.5118
14932SOL    HW154726   4.439   7.957   6.648  1.7857 -1.5773  0.7016
14932SOL    HW254727   4.390   7.816   6.675 -1.1564 -0.7270  0.1320
14933SOL     OW54728   6.411   6.377  12.159  0.3844 -0.2089  0.3558
14933SOL    HW154729   6.324   6.413  12.177  0.3282  0.2194 -0.6779
14933SOL    HW254730   6.470   6.452  12.163  1.1479 -0.8301  3.4175
14934SOL     OW54731   9.625   2.727   9.755  0.2632 -0.0260  0.0850
14934SOL    HW154732   9.662   2.815   9.745  0.3861 -0.2244 -1.4922
14934SOL    HW254733   9.536   2.742   9.785  0.6172  0.5866  0.8754
14935SOL     OW54734  10.888  10.359  12.271 -0.0194 -0.3106  0.1767
14935SOL    HW154735  10.923  10.420  12.206 -0.4071 -0.0492  0.2120
14935SOL    HW254736  10.955  10.291  12.279 -0.0679 -0.4739 -0.6789
14936SOL     OW54737  12.486   0.301   4.547 -0.2196  0.2852  0.2106
14936SOL    HW154738  12.503   0.374   4.487 -0.1852 -0.1157 -0.2724
14936SOL    HW254739  12.562   0.245   4.539 -0.5853 -0.1883  0.0086
14937SOL     OW54740   6.009   4.702   4.201  0.6107  0.0665  0.0913
14937SOL    HW154741   6.031   4.701   4.294  2.2134  0.8259 -0.2390
14937SOL    HW254742   6.078   4.755   4.161  0.1494 -0.5351 -1.5817
14938SOL     OW54743   0.983  10.971   3.121  0.2169  0.3222  0.9631
14938SOL    HW154744   1.008  10.931   3.204  3.0505  1.4678  0.7919
14938SOL    HW254745   0.900  11.016   3.139  0.2453 -0.3148  2.8642
14939SOL     OW54746   9.313   4.649   3.691 -0.0267  0.5972 -0.7079
14939SOL    HW154747   9.299   4.573   3.635 -0.6074  1.6228 -2.0134
14939SOL    HW254748   9.400   4.636   3.730 -0.0467 -0.6208 -1.0497
14940SOL     OW54749  10.326   8.854  11.154  0.4421 -0.2700 -0.4915
14940SOL    HW154750  10.363   8.930  11.199 -0.1624  0.4590 -1.1981
14940SOL    HW254751  10.232   8.872  11.149  0.3638 -0.8091 -1.1487
14941SOL     OW54752   4.725  12.516  10.107 -0.5671 -0.3371 -0.6422
14941SOL    HW154753   4.716  12.602  10.066  0.4248 -0.4079 -1.0381
14941SOL    HW254754   4.819  12.502  10.112 -0.5107  0.3808  3.2093
14942SOL     OW54755   6.801  13.250   1.389 -0.0044 -0.1501  0.1980
14942SOL    HW154756   6.803  13.333   1.437 -1.5238 -0.2607  0.5107
14942SOL    HW254757   6.850  13.189   1.445 -0.7916  0.0054  1.0963
14943SOL     OW54758   2.499   0.195   7.775 -0.5673  0.2650 -0.1291
14943SOL    HW154759   2.410   0.190   7.740 -0.9545 -3.4107  0.9690
14943SOL    HW254760   2.554   0.157   7.707 -0.1252  0.6152  0.0263
14944SOL     OW54761  10.313  12.552  11.527  0.0411 -0.2138 -0.4884
14944SOL    HW154762  10.331  12.543  11.620 -0.3341 -1.0141 -0.4836
14944SOL    HW254763  10.389  12.598  11.492 -0.6219  1.7772  0.5059
14945SOL     OW54764   2.982   3.305   6.092 -0.4992 -1.0444 -0.1027
14945SOL    HW154765   3.028   3.386   6.111 -1.8682 -0.5406  1.3153
14945SOL    HW254766   3.005   3.246   6.164 -1.1428 -1.1868 -0.0083
14946SOL     OW54767   0.130   7.116   6.003  0.1591  0.1904 -0.5738
14946SOL    HW154768   0.154   7.133   6.094 -0.7810  1.8972 -0.5946
14946SOL    HW254769   0.079   7.035   6.006 -0.1489  0.4072  0.4745
14947SOL     OW54770   2.966   2.174   7.642  0.0430  0.0781  1.0326
14947SOL    HW154771   2.960   2.090   7.687  0.6765  0.3023  1.5361
14947SOL    HW254772   3.059   2.190   7.631 -0.0815  0.4628  0.4511
14948SOL     OW54773  10.002  12.056   3.975 -0.3022  0.2682  0.2930
14948SOL    HW154774   9.922  12.084   3.932 -1.6704 -0.5576  2.1453
14948SOL    HW254775   9.985  11.965   4.001  1.0491  0.2193  1.1290
14949SOL     OW54776   7.351   5.290   2.919  0.4784 -0.5222 -0.1221
14949SOL    HW154777   7.427   5.284   2.976  0.0486 -1.9488  0.3397
14949SOL    HW254778   7.364   5.220   2.855 -0.8875 -1.3927  0.5251
14950SOL     OW54779  12.486   6.316   8.566 -0.1657 -0.1763  0.4965
14950SOL    HW154780  12.460   6.225   8.551 -0.3974  0.0795 -0.8027
14950SOL    HW254781  12.558   6.330   8.505 -0.2856  0.5698  0.5163
14951SOL     OW54782   8.062   3.194   0.652 -0.0689  0.2263  0.4525
14951SOL    HW154783   8.128   3.183   0.584  0.7262  0.5181  1.1493
14951SOL    HW254784   8.098   3.147   0.728 -1.4003 -0.9407  0.3835
14952SOL     OW54785   5.129   2.818   3.561  0.2424 -0.7580  0.7491
14952SOL    HW154786   5.124   2.792   3.653 -0.1709 -0.9347  0.6826
14952SOL    HW254787   5.088   2.904   3.559  1.0584 -0.3575  0.8699
14953SOL     OW54788   2.522  12.855   4.194  0.2822 -0.3449 -0.1651
14953SOL    HW154789   2.544  12.764   4.216 -0.1093 -0.4472 -0.1782
14953SOL    HW254790   2.574  12.907   4.255  0.2258 -0.5906  0.0970
14954SOL     OW54791   6.875   5.496  12.291 -0.1952  0.1357  0.4101
14954SOL    HW154792   6.934   5.528  12.360 -0.8177  0.9741  0.5774
14954SOL    HW254793   6.826   5.574  12.264 -1.2562 -0.5393  0.3112
14955SOL     OW54794   3.435   1.145   6.210 -0.5442 -0.4646  0.2548
14955SOL    HW154795   3.469   1.097   6.285 -0.4202 -3.2729 -1.4438
14955SOL    HW254796   3.358   1.192   6.243  0.5206 -0.1814  2.4586
14956SOL     OW54797   9.718   8.478   4.552  0.1328  0.0312 -0.6435
14956SOL    HW154798   9.760   8.511   4.472 -1.1553  2.0533 -0.5365
14956SOL    HW254799   9.667   8.551   4.585 -0.9677 -1.3844  0.9744
14957SOL     OW54800   8.879   7.102   5.034 -0.6787 -0.0334 -1.2687
14957SOL    HW154801   8.902   7.010   5.023 -0.2811 -0.0627 -0.2794
14957SOL    HW254802   8.952   7.150   4.995  0.0537 -0.1426 -0.0903
14958SOL     OW54803   2.877   7.592  11.191 -0.0001  0.4635  0.1728
14958SOL    HW154804   2.852   7.590  11.099 -2.6623 -2.9258  0.7282
14958SOL    HW254805   2.964   7.552  11.194 -0.4428 -0.6206 -0.8006
14959SOL     OW54806   0.123   3.971  12.992  0.0398 -0.3039 -0.0669
14959SOL    HW154807   0.069   4.034  13.040  0.4474 -1.5079  2.0888
14959SOL    HW254808   0.060   3.919  12.942 -0.7763 -1.1430  1.7520
14960SOL     OW54809  12.456  12.865   9.742  0.0966 -0.2227  0.3896
14960SOL    HW154810  12.544  12.873   9.780 -0.1396  0.2303  0.8546
14960SOL    HW254811  12.416  12.792   9.788 -0.3115  0.5389  1.2830
14961SOL     OW54812  10.237   1.764  12.132 -0.2833 -0.2145  0.1204
14961SOL    HW154813  10.224   1.792  12.222 -2.4077 -1.2921  0.2136
14961SOL    HW254814  10.149   1.761  12.094  0.4620 -0.6350 -1.7227
14962SOL     OW54815  10.647   9.363   6.452  0.0700  0.1936 -0.4903
14962SOL    HW154816  10.691   9.433   6.501 -1.4100  1.8380 -1.3949
14962SOL    HW254817  10.708   9.343   6.381  1.7929 -1.5274  1.3332
14963SOL     OW54818  13.205   0.055   7.261 -0.0748 -0.3731  0.0840
14963SOL    HW154819  13.181   0.147   7.268 -0.7318 -0.5418  0.1821
14963SOL    HW254820  13.288   0.055   7.213  0.0988  0.2839  0.3784
14964SOL     OW54821   4.950   6.954   7.980 -0.4230 -0.4170 -0.1500
14964SOL    HW154822   4.959   7.012   7.905  2.3993  0.4727  0.7525
14964SOL    HW254823   4.991   6.872   7.953 -1.1314 -0.7676 -0.1918
14965SOL     OW54824   1.895   7.143   9.173 -0.4849  0.1119 -0.0016
14965SOL    HW154825   1.891   7.232   9.208  1.8776  0.5901 -0.7523
14965SOL    HW254826   1.878   7.154   9.079 -1.9979 -0.4972  0.1882
14966SOL     OW54827  13.276  10.795   3.072 -0.2902  0.5789  0.3773
14966SOL    HW154828  13.217  10.819   3.000  0.9903 -0.6867 -1.1500
14966SOL    HW254829  13.347  10.747   3.030 -0.4734 -1.9628  2.7228
14967SOL     OW54830  13.143   9.892   3.077 -0.6013 -0.5281 -0.0869
14967SOL    HW154831  13.203   9.909   3.151 -0.0720 -0.5986 -0.4941
14967SOL    HW254832  13.200   9.890   3.000 -1.3689  1.6330 -0.8104
14968SOL     OW54833   0.227   9.970  11.745  0.3820  0.1938  0.3062
14968SOL    HW154834   0.218   9.965  11.649  0.3205 -0.6348  0.3515
14968SOL    HW254835   0.203  10.061  11.766  2.0407  0.9022 -0.6338
14969SOL     OW54836   2.375   0.819   5.135 -0.1917  0.0411  0.2672
14969SOL    HW154837   2.288   0.807   5.172 -0.7707 -0.1719 -1.0760
14969SOL    HW254838   2.372   0.772   5.051  0.6855  1.3916 -0.5641
14970SOL     OW54839  12.505  12.045   7.766  1.0617  0.1611 -0.4181
14970SOL    HW154840  12.599  12.037   7.782  1.4247  0.1723 -2.3363
14970SOL    HW254841  12.496  12.126   7.715  0.1829 -0.5446 -1.4325
14971SOL     OW54842  12.686   8.485  11.235 -0.3283 -0.1775 -0.0613
14971SOL    HW154843  12.737   8.527  11.304 -0.0586  1.8947 -1.3987
14971SOL    HW254844  12.740   8.412  11.206  1.0437  0.8494 -0.1866
14972SOL     OW54845   7.503   9.892  13.072 -0.0315 -0.7196  0.4946
14972SOL    HW154846   7.530   9.857  12.987 -0.4728 -1.3311  0.5978
14972SOL    HW254847   7.563   9.965  13.088  2.6544 -2.9227  1.3759
14973SOL     OW54848   3.871   7.580   1.149 -0.3605  0.3410 -0.0737
14973SOL    HW154849   3.841   7.670   1.160 -1.4064  0.2439 -1.8265
14973SOL    HW254850   3.899   7.575   1.058  3.1486 -0.1590  0.8815
14974SOL     OW54851  11.411   7.981  10.162 -0.4654  0.5378 -0.0180
14974SOL    HW154852  11.408   7.886  10.147 -0.4271  0.2775  1.4136
14974SOL    HW254853  11.409   7.989  10.258  0.7746  1.9364 -0.0840
14975SOL     OW54854   2.788   7.318  12.846  0.0624 -0.0580 -0.3828
14975SOL    HW154855   2.746   7.254  12.903 -2.5053  0.4006 -1.5892
14975SOL    HW254856   2.842   7.266  12.787 -0.7724 -1.0015 -0.3460
14976SOL     OW54857   7.202   1.545  12.884 -0.1337  0.2520  0.0734
14976SOL    HW154858   7.172   1.508  12.801 -0.6850  0.8985 -0.0263
14976SOL    HW254859   7.122   1.567  12.931  0.1091 -1.9636  1.6700
14977SOL     OW54860  12.840   6.411   1.443 -0.2765  0.4726 -0.3407
14977SOL    HW154861  12.822   6.505   1.444  1.0702  0.7540  0.2359
14977SOL    HW254862  12.935   6.405   1.428  0.3890 -0.6013  3.2311
14978SOL     OW54863  10.500   7.539   0.731  0.1444  0.6175 -0.1058
14978SOL    HW154864  10.455   7.538   0.815 -1.3376  0.0131 -0.8610
14978SOL    HW254865  10.590   7.562   0.752 -0.3969  1.3888  1.5350
14979SOL     OW54866   6.641   1.147   8.194 -0.0072  0.3170 -0.4421
14979SOL    HW154867   6.716   1.089   8.192 -0.3733 -0.1688 -2.5941
14979SOL    HW254868   6.584   1.110   8.262  0.8592 -0.3733 -0.0689
14980SOL     OW54869   3.913   3.662   9.259 -0.6533 -0.4484 -0.2394
14980SOL    HW154870   3.848   3.650   9.328  0.0268 -0.9698  0.3303
14980SOL    HW254871   3.878   3.732   9.205 -0.1708  1.5864  1.9213
14981SOL     OW54872   8.646   1.390   3.651 -0.4780  0.3832 -0.3430
14981SOL    HW154873   8.682   1.374   3.564 -1.8956  0.2791 -0.9425
14981SOL    HW254874   8.668   1.312   3.702  0.9668  0.7437 -0.3787
14982SOL     OW54875  12.270   0.133  11.274 -0.5857 -0.1462 -0.4336
14982SOL    HW154876  12.295   0.098  11.189  2.1071  0.1099  0.1728
14982SOL    HW254877  12.207   0.070  11.309 -1.6287 -0.3256 -2.5161
14983SOL     OW54878  12.396  11.594   3.410  0.2621  0.1186  0.6091
14983SOL    HW154879  12.357  11.513   3.377  2.2053 -1.8167  2.7131
14983SOL    HW254880  12.418  11.644   3.332 -1.0524 -1.3502 -0.7614
14984SOL     OW54881   7.789   6.304   4.063  0.2640 -0.2114 -0.0263
14984SOL    HW154882   7.849   6.370   4.028  0.4717 -1.5912 -2.4909
14984SOL    HW254883   7.702   6.340   4.046  0.2659  1.2249  2.4391
14985SOL     OW54884  12.420  10.460   8.132 -0.0278  0.5688  0.2923
14985SOL    HW154885  12.351  10.394   8.131  0.8832 -0.4878  1.9027
14985SOL    HW254886  12.422  10.491   8.222  1.2617  0.9266  0.1607
14986SOL     OW54887   5.590   6.955  12.599  0.0449  0.1523  0.3860
14986SOL    HW154888   5.608   6.917  12.685 -0.3764  0.2182  0.5028
14986SOL    HW254889   5.561   6.880  12.546  0.2918  0.1138  0.3007
14987SOL     OW54890   1.089   4.172   1.797 -0.1656  0.1780  0.4252
14987SOL    HW154891   1.061   4.263   1.787 -1.9772 -0.2804  0.8846
14987SOL    HW254892   1.149   4.173   1.872  0.4033  1.0823 -0.0310
14988SOL     OW54893   6.264   7.059  10.627  0.0931  0.4981 -0.0143
14988SOL    HW154894   6.171   7.040  10.640  0.2364  1.0199  2.0457
14988SOL    HW254895   6.272   7.075  10.533 -1.8554  0.2132 -0.2668
14989SOL     OW54896   8.370  10.851  13.248  0.0198  0.3351 -0.2354
14989SOL    HW154897   8.391  10.873  13.157  1.7280 -0.7904 -0.1568
14989SOL    HW254898   8.455  10.834  13.289 -0.7476  0.4065  1.4799
14990SOL     OW54899   4.934   1.694   1.551  0.1040  0.4478  0.1180
14990SOL    HW154900   4.863   1.741   1.595  0.0153  0.9321 -0.5244
14990SOL    HW254901   4.922   1.603   1.577 -0.9329  0.4781 -0.2124
14991SOL     OW54902   9.899   7.590   3.685  0.8999  0.6443  0.3272
14991SOL    HW154903   9.815   7.600   3.641  1.6029 -1.1365 -1.6024
14991SOL    HW254904   9.877   7.550   3.769 -0.3246  2.2373  0.8057
14992SOL     OW54905   0.169   8.192   3.697 -0.1590  0.2054  0.2165
14992SOL    HW154906   0.194   8.120   3.639 -1.2353  0.1650 -0.2407
14992SOL    HW254907   0.126   8.149   3.771  0.3788  0.3099  0.5910
14993SOL     OW54908   5.471   3.847   3.618  0.2785  0.1004 -0.6823
14993SOL    HW154909   5.396   3.881   3.666  1.0869 -0.3180  0.9583
14993SOL    HW254910   5.537   3.916   3.624 -0.2382  0.8800 -2.9520
14994SOL     OW54911   7.963   1.342   5.335 -0.0644 -0.0526 -0.4000
14994SOL    HW154912   7.997   1.305   5.254 -0.6434  0.3017 -0.8090
14994SOL    HW254913   7.884   1.390   5.309 -0.4251 -0.1819  0.4142
14995SOL     OW54914  12.946  12.204   9.531 -0.1474  0.0036  0.6457
14995SOL    HW154915  12.991  12.227   9.450 -1.0884  1.6763  0.5622
14995SOL    HW254916  12.998  12.245   9.600  0.6537 -1.4184  0.9347
14996SOL     OW54917   9.135  12.338  11.935 -0.4825 -0.3425 -0.3090
14996SOL    HW154918   9.197  12.343  12.007 -0.4416 -1.0999 -0.2762
14996SOL    HW254919   9.091  12.254  11.948 -1.0110 -0.1376 -0.7322
14997SOL     OW54920  11.699  12.617  11.428 -0.1931  0.0679 -0.4949
14997SOL    HW154921  11.652  12.648  11.351 -2.8036 -0.8260  0.6024
14997SOL    HW254922  11.752  12.692  11.456 -0.3927  0.9024 -2.2176
14998SOL     OW54923   2.029  11.957   2.207  0.2546  0.3736  0.4794
14998SOL    HW154924   1.989  12.006   2.279  2.3928  0.8357  1.4194
14998SOL    HW254925   2.116  11.996   2.196  1.4108 -2.1244  0.1521
14999SOL     OW54926   3.533  11.094   4.429 -0.0819  0.3084 -0.4050
14999SOL    HW154927   3.618  11.052   4.414 -1.0263 -2.2918  0.8208
14999SOL    HW254928   3.553  11.171   4.481  1.6678  0.8573 -1.7892
15000SOL     OW54929   6.008  13.066   6.405 -0.5746  0.5726 -0.4395
15000SOL    HW154930   5.996  13.125   6.330 -3.2182 -0.7335 -1.1610
15000SOL    HW254931   5.931  13.009   6.403  1.3310 -2.2490  0.8262
15001SOL     OW54932  12.476   6.025   6.443  0.5694 -0.0339  0.2310
15001SOL    HW154933  12.407   6.088   6.463 -1.1727 -2.3392  2.0234
15001SOL    HW254934  12.452   5.989   6.357  0.3111  0.1530  0.2267
15002SOL     OW54935   4.607  12.603   5.485  0.0927 -0.2196 -0.2630
15002SOL    HW154936   4.516  12.581   5.502 -0.0319 -0.6278 -1.3738
15002SOL    HW254937   4.652  12.585   5.567 -0.8124 -0.0980  0.2645
15003SOL     OW54938  12.629   8.091   5.209  0.3632 -0.4901  0.8255
15003SOL    HW154939  12.706   8.122   5.161  0.7155 -1.2065  0.9013
15003SOL    HW254940  12.605   8.009   5.165  1.1817 -1.5847  2.3010
15004SOL     OW54941  12.475   1.714   0.769  0.0614  0.0411  0.2940
15004SOL    HW154942  12.443   1.797   0.806  0.6233  0.4583 -0.1442
15004SOL    HW254943  12.552   1.693   0.821 -1.4054 -1.4662  1.9880
15005SOL     OW54944   0.023   5.479   9.010 -0.0324  0.2467  0.6444
15005SOL    HW154945  -0.037   5.489   8.936 -0.3813 -0.3899  0.8354
15005SOL    HW254946   0.096   5.537   8.989  0.0669 -0.2310 -0.4011
15006SOL     OW54947  10.232   9.356  10.605 -0.2809 -0.2325 -0.1207
15006SOL    HW154948  10.324   9.376  10.591 -0.1102 -1.6178 -1.1873
15006SOL    HW254949  10.225   9.333  10.697  1.3483 -4.2637 -0.7982
15007SOL     OW54950   4.737  11.458  10.590  0.0563  0.1298 -0.2323
15007SOL    HW154951   4.669  11.510  10.632 -0.6688 -0.3066 -0.8315
15007SOL    HW254952   4.727  11.476  10.496 -2.2413 -3.2621 -0.8384
15008SOL     OW54953   7.465  10.466  13.208 -0.4547  0.2884 -0.5131
15008SOL    HW154954   7.487  10.463  13.301  0.2293 -1.8949 -0.6732
15008SOL    HW254955   7.468  10.558  13.185  0.4316  0.7826  1.3842
15009SOL     OW54956   7.175   9.437   8.832  0.4149  0.7202  0.2642
15009SOL    HW154957   7.113   9.505   8.857 -0.4422 -0.1492  0.5464
15009SOL    HW254958   7.128   9.384   8.768  0.8049 -0.0487  0.6046
15010SOL     OW54959  11.248  10.506   8.960 -0.1825 -0.8050  0.0070
15010SOL    HW154960  11.218  10.527   9.049 -0.9032 -1.8785  0.0342
15010SOL    HW254961  11.340  10.485   8.970 -0.0027  0.1014  0.3292
15011SOL     OW54962   0.086   4.071  11.497 -0.6123  0.4559  0.2268
15011SOL    HW154963   0.143   4.078  11.574 -0.0025 -1.2120 -0.0369
15011SOL    HW254964   0.043   3.986  11.507 -2.1867  1.1582 -0.1983
15012SOL     OW54965   4.348  13.028  12.503  0.1468 -0.4698  0.0020
15012SOL    HW154966   4.403  12.965  12.457  1.6945  1.1712 -0.5250
15012SOL    HW254967   4.280  13.051  12.440 -1.3988 -2.7037  0.7462
15013SOL     OW54968   2.956   1.208   2.099 -0.0254 -0.4561 -0.3629
15013SOL    HW154969   2.880   1.159   2.068 -2.3862  2.2277  0.6990
15013SOL    HW254970   3.007   1.145   2.149 -2.8630 -1.8811  0.9829
15014SOL     OW54971  11.725   3.146   1.199  0.0391 -0.1613 -0.2657
15014SOL    HW154972  11.759   3.060   1.177  0.3521  0.3684 -2.0505
15014SOL    HW254973  11.798   3.190   1.244  0.1810 -0.5265 -0.1353
15015SOL     OW54974   2.760   2.202   4.680  0.2666  0.0394  0.7788
15015SOL    HW154975   2.762   2.107   4.669 -0.2867  0.1358 -0.2118
15015SOL    HW254976   2.717   2.215   4.765 -1.8615 -0.5384 -0.1515
15016SOL     OW54977  11.345   6.893   6.430  0.0682  0.3793  0.0091
15016SOL    HW154978  11.343   6.881   6.335 -2.3510 -1.3480  0.1717
15016SOL    HW254979  11.376   6.809   6.464  0.0018  0.6593  0.7817
15017SOL     OW54980  12.098   0.729  10.931 -0.0794 -0.1637  1.0781
15017SOL    HW154981  12.089   0.737  11.026 -1.9758 -0.5961  0.9757
15017SOL    HW254982  12.070   0.639  10.912 -0.8979  0.2936  0.0024
15018SOL     OW54983   3.794   7.203   2.884 -0.2220 -0.4335  0.2392
15018SOL    HW154984   3.828   7.115   2.902  0.0095 -0.3770  0.0824
15018SOL    HW254985   3.740   7.223   2.960  0.2367 -0.4542  0.5795
15019SOL     OW54986  10.050   8.427   2.054 -0.0735  0.0429 -0.9138
15019SOL    HW154987  10.049   8.347   2.106  2.4176  1.1451  1.0363
15019SOL    HW254988  10.045   8.397   1.963  0.3720 -2.3049 -0.2292
15020SOL     OW54989   9.060   1.132  11.098  0.1704  0.4424  0.6214
15020SOL    HW154990   9.035   1.220  11.068 -3.3195 -1.4253 -3.0308
15020SOL    HW254991   8.993   1.110  11.163  0.2296  0.0139  0.5350
15021SOL     OW54992   6.185   7.289   6.316  0.2644  0.5789  0.2586
15021SOL    HW154993   6.113   7.226   6.322  1.8572 -1.3420  0.3347
15021SOL    HW254994   6.250   7.245   6.261  0.5798  3.0958 -1.5498
15022SOL     OW54995   2.169   9.739   6.127 -0.1093 -0.2428 -0.3407
15022SOL    HW154996   2.154   9.804   6.058 -1.0371 -0.6685 -0.5556
15022SOL    HW254997   2.082   9.721   6.162  0.1646 -1.1916 -0.1131
15023SOL     OW54998   8.450   1.025   3.704 -0.4020 -0.1593  0.0323
15023SOL    HW154999   8.508   1.086   3.749  0.1946 -0.2404 -0.6094
15023SOL    HW255000   8.384   1.081   3.663 -0.5549 -0.0388  0.4344
15024SOL     OW55001  11.867   6.185  10.165 -0.3542  0.1532 -0.2263
15024SOL    HW155002  11.934   6.237  10.210 -0.8330 -1.1307  2.1142
15024SOL    HW255003  11.917   6.130  10.104  0.4888  0.8122 -0.1494
15025SOL     OW55004   6.596  10.945  11.062 -0.5545  0.0219 -0.5054
15025SOL    HW155005   6.603  10.856  11.027 -0.7278 -0.1160 -0.1854
15025SOL    HW255006   6.589  11.000  10.984  0.4414 -0.1573 -0.7359
15026SOL     OW55007   5.366   2.266  10.479  0.0179  0.5146  0.3088
15026SOL    HW155008   5.363   2.185  10.530  0.4601  0.7709  0.7562
15026SOL    HW255009   5.298   2.256  10.413  1.0411 -0.8548 -0.6070
15027SOL     OW55010   3.912   4.092   3.215 -0.0796  0.3882 -0.3398
15027SOL    HW155011   3.875   4.092   3.127  0.2637 -0.3192 -0.4878
15027SOL    HW255012   3.839   4.121   3.271 -0.8387 -0.8558 -0.6422
15028SOL     OW55013   4.169   8.221   6.940 -0.0618  0.1788 -1.1087
15028SOL    HW155014   4.098   8.160   6.920 -0.4550  0.1896  0.1428
15028SOL    HW255015   4.145   8.257   7.026  1.4846  0.1581 -0.6527
15029SOL     OW55016   7.716   2.100   1.841  1.0174 -0.2919  0.1110
15029SOL    HW155017   7.676   2.027   1.888  0.2256 -0.5462 -0.9265
15029SOL    HW255018   7.804   2.069   1.819  0.9629 -0.6261  0.3548
15030SOL     OW55019   9.546   3.457   4.184 -0.2650  0.1644  0.6285
15030SOL    HW155020   9.605   3.382   4.187  1.9212  1.7948  2.1661
15030SOL    HW255021   9.595   3.525   4.139 -1.5140  1.2090  0.7681
15031SOL     OW55022  10.257   6.536   1.257 -0.1911  0.2858  0.4675
15031SOL    HW155023  10.192   6.465   1.253 -0.1309  0.0850  2.2157
15031SOL    HW255024  10.341   6.490   1.260  0.1143  0.5472 -1.9672
15032SOL     OW55025   1.334  10.048  11.121 -0.0074 -0.5350 -0.2164
15032SOL    HW155026   1.357   9.958  11.143  2.8179 -0.3878 -2.0149
15032SOL    HW255027   1.412  10.099  11.141 -0.9831  1.2589 -0.7039
15033SOL     OW55028   0.552  11.665   7.994  0.6151  0.0851 -0.0126
15033SOL    HW155029   0.537  11.597   7.928 -1.2925  0.2384  0.1846
15033SOL    HW255030   0.472  11.719   7.990  0.5500  0.2415  2.2404
15034SOL     OW55031   7.132   9.762   0.133  0.1658 -0.4464  0.0695
15034SOL    HW155032   7.224   9.758   0.158 -0.0629 -1.7559  0.7879
15034SOL    HW255033   7.092   9.685   0.173 -1.2767  0.1532 -0.1244
15035SOL     OW55034  12.397   7.022   2.500 -0.5472  0.3459 -0.3512
15035SOL    HW155035  12.324   6.961   2.509 -0.2711 -0.5014 -2.9953
15035SOL    HW255036  12.465   6.987   2.558 -0.6105 -1.5724 -1.3618
15036SOL     OW55037   8.720   8.304   9.242 -0.0974 -0.9990  0.3712
15036SOL    HW155038   8.738   8.318   9.149 -0.6556 -2.0239  0.0933
15036SOL    HW255039   8.798   8.259   9.275 -0.2956 -1.4893  0.1773
15037SOL     OW55040  10.309   2.463  12.502 -0.3545 -0.2485 -0.2023
15037SOL    HW155041  10.315   2.508  12.586 -1.2879  1.0726 -0.8022
15037SOL    HW255042  10.330   2.530  12.437 -3.6036 -0.0298 -1.2567
15038SOL     OW55043  13.140   4.925  11.167  0.0493  0.2546 -0.1076
15038SOL    HW155044  13.089   4.906  11.246 -0.1756 -0.4453 -0.4140
15038SOL    HW255045  13.103   5.006  11.133 -0.2208  0.2648  0.2090
15039SOL     OW55046  10.108   5.321   9.958 -0.8871 -0.0586 -0.1840
15039SOL    HW155047  10.105   5.377  10.035 -0.6323 -0.5344  0.1754
15039SOL    HW255048  10.201   5.320   9.933 -0.8325 -0.6290  0.0392
15040SOL     OW55049   4.561  12.296  11.996  0.3046 -0.2971  0.7874
15040SOL    HW155050   4.547  12.389  11.979  1.9695  0.2071  1.8806
15040SOL    HW255051   4.496  12.252  11.942  0.3217  1.4369 -0.7810
15041SOL     OW55052   8.377   9.961   0.267  0.4662 -0.1278  0.1163
15041SOL    HW155053   8.349   9.902   0.337  0.7201 -1.4877 -0.8921
15041SOL    HW255054   8.417  10.035   0.313 -3.0354  1.0757  1.5758
15042SOL     OW55055  12.999   3.509   0.037  0.5958 -0.2540  0.0506
15042SOL    HW155056  12.907   3.499   0.014  1.0416  1.3276 -2.8095
15042SOL    HW255057  13.003   3.591   0.086  0.5614 -0.0091 -0.3561
15043SOL     OW55058   6.289   0.413   4.825  0.1212  0.3764 -0.2219
15043SOL    HW155059   6.336   0.485   4.782  1.0937 -0.6084 -0.8608
15043SOL    HW255060   6.220   0.456   4.876  0.8432  1.7705 -0.3848
15044SOL     OW55061   0.424   4.984   0.373  0.1772 -0.0191 -0.2107
15044SOL    HW155062   0.390   5.071   0.390  1.9810  0.3456  1.9459
15044SOL    HW255063   0.378   4.927   0.435  2.4000  0.2873  1.8775
15045SOL     OW55064   5.763   3.308   1.045 -0.0908  0.1987  0.4874
15045SOL    HW155065   5.822   3.239   1.077  1.3546  0.3887 -1.5597
15045SOL    HW255066   5.744   3.361   1.123 -0.7189 -2.0798  1.9972
15046SOL     OW55067  10.910   6.405   0.100 -0.2417 -0.0221 -0.5443
15046SOL    HW155068  10.957   6.390   0.017  0.0289 -0.2968 -0.3433
15046SOL    HW255069  10.979   6.405   0.166 -0.3939  0.8009 -0.3819
15047SOL     OW55070   5.793   5.568  12.427 -0.3653 -0.2949  0.5915
15047SOL    HW155071   5.723   5.631  12.408  0.0107  0.1792  0.7544
15047SOL    HW255072   5.759   5.484  12.396 -0.9097 -0.0279  0.4505
15048SOL     OW55073   6.985  10.137   2.002  0.1918 -0.9001 -0.0292
15048SOL    HW155074   6.976  10.202   2.072 -1.9117 -0.6391 -0.4744
15048SOL    HW255075   7.023  10.061   2.046  0.0498 -0.3383  1.1271
15049SOL     OW55076  10.122   8.424  12.550  0.1118 -0.8673  0.0723
15049SOL    HW155077  10.196   8.395  12.603 -0.8473 -1.0265  1.3839
15049SOL    HW255078  10.066   8.347  12.542  0.5716 -1.0638 -1.8484
15050SOL     OW55079   3.251  11.044   2.218  0.0550 -0.2384 -0.1461
15050SOL    HW155080   3.251  11.107   2.290 -1.8935 -0.1102 -0.2127
15050SOL    HW255081   3.313  11.080   2.154  0.7094  0.3931  0.8214
15051SOL     OW55082   1.500  12.336  13.257  0.2245  0.1841  0.0818
15051SOL    HW155083   1.533  12.406  13.313  2.1406 -0.8736  0.3483
15051SOL    HW255084   1.553  12.260  13.280  0.9586 -0.3560 -3.0322
15052SOL     OW55085   3.592   3.908   0.512 -0.1266 -0.9452 -0.2131
15052SOL    HW155086   3.544   3.833   0.476 -0.7555 -0.0922 -1.2148
15052SOL    HW255087   3.564   3.982   0.459 -1.5860  0.5329  2.4132
15053SOL     OW55088   9.370   4.691   3.334 -0.2428 -0.6970 -0.5967
15053SOL    HW155089   9.295   4.653   3.289  0.4531 -1.1472 -1.4255
15053SOL    HW255090   9.410   4.618   3.381 -0.1863 -0.5184 -0.3647
15054SOL     OW55091   2.746  11.196  10.997 -0.3251  0.2525  0.2572
15054SOL    HW155092   2.833  11.156  10.998 -0.1487  0.5270  3.2596
15054SOL    HW255093   2.690  11.132  10.953  1.0101 -0.7884  0.0325
15055SOL     OW55094   5.678   5.724   0.469  0.9645  0.1076 -0.9243
15055SOL    HW155095   5.770   5.712   0.445  0.7785 -2.0762 -0.7266
15055SOL    HW255096   5.633   5.737   0.385  0.7655 -4.3039 -1.7075
15056SOL     OW55097   8.443  11.587   9.735 -0.2344 -0.4727  0.1151
15056SOL    HW155098   8.401  11.534   9.803  0.9710 -1.8518 -0.1593
15056SOL    HW255099   8.405  11.555   9.654  1.1552 -1.6201 -0.1224
15057SOL     OW55100   7.075   1.014   4.305 -0.1718  0.3175  0.4743
15057SOL    HW155101   7.003   0.953   4.318 -0.0688 -0.2037 -1.2175
15057SOL    HW255102   7.148   0.959   4.278  0.1208  1.1161 -0.4051
15058SOL     OW55103   3.506   8.265   6.271  0.2496  0.2840  1.1303
15058SOL    HW155104   3.490   8.211   6.193  0.1303  1.7308  0.1196
15058SOL    HW255105   3.455   8.223   6.340 -1.4069  0.1984 -0.0846
15059SOL     OW55106   6.928  12.542   8.982 -0.6170  0.3762 -0.1835
15059SOL    HW155107   6.877  12.521   8.904 -0.9147 -1.6562  0.4973
15059SOL    HW255108   7.004  12.484   8.977 -0.8887 -0.1465  1.2393
15060SOL     OW55109   5.990  10.649   8.850 -0.4377  0.3499  0.6647
15060SOL    HW155110   5.913  10.659   8.794  0.5330  3.4805 -0.3062
15060SOL    HW255111   5.983  10.719   8.914  1.3629  0.4513  0.8179
15061SOL     OW55112   2.798   7.036   0.570  0.5799 -0.3553 -0.1088
15061SOL    HW155113   2.776   7.115   0.620  3.1242  1.2463 -1.3129
15061SOL    HW255114   2.814   6.969   0.636 -0.6368  0.3640  0.9827
15062SOL     OW55115   9.555  10.613   8.450 -0.0846 -0.5898 -0.1430
15062SOL    HW155116   9.645  10.602   8.481 -0.5581 -0.6595  1.2775
15062SOL    HW255117   9.505  10.546   8.497 -0.7929 -0.9650 -1.3802
15063SOL     OW55118   2.439   3.022   8.357 -0.6070 -0.6304 -0.1930
15063SOL    HW155119   2.422   3.071   8.437  2.9157 -1.2712  1.1550
15063SOL    HW255120   2.388   2.941   8.367 -2.9457  0.7303 -0.3600
15064SOL     OW55121  13.033  12.078   1.298  0.2647 -0.3037  0.4578
15064SOL    HW155122  12.940  12.094   1.312  0.2983  0.1405  0.1926
15064SOL    HW255123  13.071  12.165   1.284  0.5658 -0.5451 -0.3386
15065SOL     OW55124   1.859  10.179  10.283 -0.2574  0.2808  0.0954
15065SOL    HW155125   1.837  10.161  10.191 -0.5279 -0.7573  0.3578
15065SOL    HW255126   1.948  10.146  10.293 -1.0926 -1.9314  0.8272
15066SOL     OW55127  10.729   7.455   8.320 -0.0338 -0.6350  0.2817
15066SOL    HW155128  10.751   7.465   8.412  1.9872 -2.1799  0.0203
15066SOL    HW255129  10.642   7.494   8.312  0.3016  0.7398  2.5457
15067SOL     OW55130   9.060   5.971  11.425  0.0091 -0.1031 -0.2557
15067SOL    HW155131   9.003   6.034  11.469  1.2185  0.6511  0.2738
15067SOL    HW255132   9.029   5.970  11.335 -0.6135  0.5549 -0.0600
15068SOL     OW55133  13.002  11.773   8.806 -0.1909  0.1591 -0.4189
15068SOL    HW155134  13.024  11.717   8.732  0.6061 -0.0022 -0.0723
15068SOL    HW255135  13.050  11.736   8.879 -1.5372 -0.1285  0.3645
15069SOL     OW55136   9.445   8.029   3.250  0.3075 -0.0377 -0.0880
15069SOL    HW155137   9.463   8.095   3.182 -0.4247  0.9180  0.6145
15069SOL    HW255138   9.354   8.045   3.276  1.0476  0.8042  2.3209
15070SOL     OW55139  12.869   2.027   0.227  0.3048 -0.3329 -0.1950
15070SOL    HW155140  12.873   2.009   0.133 -0.0655  0.9614 -0.4707
15070SOL    HW255141  12.793   1.978   0.257 -0.7568  0.7806 -0.9553
15071SOL     OW55142   9.036   0.188   0.523 -0.9265  0.0831  0.8513
15071SOL    HW155143   8.973   0.137   0.472  0.2336 -0.8559  0.3079
15071SOL    HW255144   9.005   0.181   0.613 -2.2597  0.6604  0.4601
15072SOL     OW55145  13.133   1.968   0.354  0.3606  0.6755 -0.2867
15072SOL    HW155146  13.069   2.016   0.302  1.2484  1.2559 -0.8661
15072SOL    HW255147  13.088   1.887   0.378 -0.8640  1.4241  0.0118
15073SOL     OW55148   8.599   8.439   8.061 -0.0877  0.2759  0.2219
15073SOL    HW155149   8.576   8.350   8.087  0.0387  0.1150 -0.2124
15073SOL    HW255150   8.689   8.450   8.093 -0.6647  0.8212  1.7057
15074SOL     OW55151   2.677   5.583   1.568 -0.4417 -0.0285  0.0133
15074SOL    HW155152   2.717   5.500   1.596 -2.1171 -0.9070 -0.0694
15074SOL    HW255153   2.718   5.601   1.484 -0.7114 -1.2933 -0.4170
15075SOL     OW55154  12.397   5.378   5.894  0.2358  0.1208  0.1057
15075SOL    HW155155  12.489   5.376   5.920 -0.3898 -0.4679  2.5332
15075SOL    HW255156  12.387   5.461   5.848  2.0374  0.0249 -0.5263
15076SOL     OW55157  10.726   2.506   8.461  0.4557  0.2187 -0.2147
15076SOL    HW155158  10.666   2.498   8.535 -1.1898  3.4059 -1.0091
15076SOL    HW255159  10.799   2.558   8.496  0.1393  0.8945 -0.5315
15077SOL     OW55160   6.680  12.513   6.890  0.5557 -0.0168 -0.0020
15077SOL    HW155161   6.653  12.482   6.977 -1.5511  0.1177 -0.5457
15077SOL    HW255162   6.758  12.566   6.907 -0.7950  1.4926  2.0836
15078SOL     OW55163  11.960   7.152   4.003 -0.3197 -0.3460 -0.5505
15078SOL    HW155164  11.917   7.222   3.955 -2.0113 -2.0000 -1.6105
15078SOL    HW255165  11.889   7.109   4.052  1.0793  0.2915  2.2726
15079SOL     OW55166   5.698   9.194  11.235 -0.5738 -0.4857 -0.2494
15079SOL    HW155167   5.664   9.250  11.305 -1.4079 -1.9797  0.5825
15079SOL    HW255168   5.746   9.125  11.280 -0.6930 -1.1870 -1.1598
15080SOL     OW55169   9.838  12.660  12.518 -1.0535 -0.0020  0.7155
15080SOL    HW155170   9.806  12.749  12.531 -2.1625 -0.3955  0.8461
15080SOL    HW255171   9.775  12.621  12.458 -0.1793 -0.4912  0.0929
15081SOL     OW55172   3.123   2.426   4.198 -0.3398  0.1275  0.2176
15081SOL    HW155173   3.087   2.350   4.154 -0.0117  0.5814 -0.8747
15081SOL    HW255174   3.189   2.460   4.138  0.3153  0.6144  1.1857
15082SOL     OW55175  13.021   2.103   9.857  0.7468  0.2307 -0.6360
15082SOL    HW155176  12.968   2.142   9.787  0.1662  0.1617 -0.2402
15082SOL    HW255177  13.080   2.042   9.812 -0.1733 -0.4142 -0.9873
15083SOL     OW55178   1.535   0.790   7.001 -0.3913  0.4266 -0.2686
15083SOL    HW155179   1.624   0.772   6.972 -0.2716 -0.6096  0.6809
15083SOL    HW255180   1.535   0.770   7.095 -1.4999  0.8912 -0.1456
15084SOL     OW55181   0.978   1.954   0.419  0.1401 -0.0170  0.0969
15084SOL    HW155182   1.047   2.013   0.451  0.4831 -0.0046 -0.6248
15084SOL    HW255183   1.006   1.867   0.446 -1.0530  0.2454  2.3585
15085SOL     OW55184   7.917   9.903   3.921 -0.1795 -0.3606 -0.1553
15085SOL    HW155185   8.009   9.931   3.916 -0.6871  1.4440 -0.0741
15085SOL    HW255186   7.883   9.917   3.832 -0.0376 -2.4891 -0.6128
15086SOL     OW55187   5.986  12.561   7.447 -0.4436  0.0986 -0.0763
15086SOL    HW155188   6.031  12.541   7.529 -0.0643 -0.6884 -0.4681
15086SOL    HW255189   5.979  12.657   7.446 -1.8994  0.0650  1.6333
15087SOL     OW55190  12.974  10.842   5.712  0.7399  0.2127  0.4314
15087SOL    HW155191  13.026  10.812   5.638  0.9898 -0.0133  0.7000
15087SOL    HW255192  12.950  10.762   5.759  2.3021  0.4789  1.7519
15088SOL     OW55193  12.969  10.537   6.429 -0.1717  0.2122 -0.2090
15088SOL    HW155194  12.929  10.622   6.448 -0.4882  0.1188 -0.4426
15088SOL    HW255195  13.033  10.524   6.499  1.0719  1.4170 -1.0601
15089SOL     OW55196   4.664   5.532   2.365  0.2113 -0.2186  0.0179
15089SOL    HW155197   4.748   5.495   2.337  1.0463  1.2704  0.4650
15089SOL    HW255198   4.688   5.598   2.430 -1.4341 -1.0256  1.5043
15090SOL     OW55199  11.712   1.516   8.999 -0.2331 -0.2016  0.8048
15090SOL    HW155200  11.689   1.529   9.091  1.0246  2.4074  0.8324
15090SOL    HW255201  11.790   1.460   9.001 -0.1326 -0.0420  1.3190
15091SOL     OW55202   0.143   3.283  12.948 -0.1761  0.0564  0.4135
15091SOL    HW155203   0.124   3.189  12.954  0.9173 -0.2061  0.0963
15091SOL    HW255204   0.069   3.319  12.899 -0.5189 -0.6688  0.3716
15092SOL     OW55205   4.544   3.643   7.819 -0.2313  0.1608  0.4235
15092SOL    HW155206   4.607   3.700   7.863 -0.1047  0.6883 -0.4120
15092SOL    HW255207   4.475   3.703   7.790 -0.0804 -0.0877 -0.4881
15093SOL     OW55208   3.700  10.237  12.785 -0.0296 -0.3779  0.0318
15093SOL    HW155209   3.735  10.315  12.827  0.9604  0.0248 -1.4564
15093SOL    HW255210   3.616  10.264  12.748 -1.0136 -0.7944  1.8662
15094SOL     OW55211   9.926  10.590   6.668 -0.1376  0.5238  0.2192
15094SOL    HW155212   9.945  10.571   6.760  0.2918  1.5809  0.3576
15094SOL    HW255213  10.011  10.595   6.626 -0.2079  2.2919  0.2336
15095SOL     OW55214  12.187   3.307   7.519 -0.3951  0.1919  0.0772
15095SOL    HW155215  12.169   3.302   7.425 -2.8718  0.8963  0.4501
15095SOL    HW255216  12.239   3.387   7.529 -0.3880  0.2873 -0.6316
15096SOL     OW55217   7.885   2.159  11.692  0.4123 -0.0157 -0.6348
15096SOL    HW155218   7.886   2.154  11.597 -1.9722  0.9827 -0.7894
15096SOL    HW255219   7.792   2.168  11.715  1.0327  1.7781  1.6413
15097SOL     OW55220   6.623   3.293   0.610 -0.4572 -0.3506 -0.1536
15097SOL    HW155221   6.674   3.283   0.690 -1.6224  0.8864  0.7777
15097SOL    HW255222   6.559   3.222   0.613 -0.7699 -0.0558  0.2345
15098SOL     OW55223   3.424   7.705   7.155 -0.4255  0.2234  0.5799
15098SOL    HW155224   3.390   7.649   7.224 -1.4960  0.8465  0.5881
15098SOL    HW255225   3.448   7.645   7.085 -0.2385 -0.3427  1.1244
15099SOL     OW55226  11.971   2.296  12.765 -0.3288 -0.4798 -0.2591
15099SOL    HW155227  11.967   2.330  12.854  0.3208 -1.7268  0.2770
15099SOL    HW255228  12.014   2.211  12.774 -0.0142 -0.5126 -1.8037
15100SOL     OW55229   0.522   1.699   1.409  0.7097 -0.3214  0.1152
15100SOL    HW155230   0.583   1.660   1.346  0.8462 -0.4269  0.3111
15100SOL    HW255231   0.514   1.790   1.381  0.6991 -0.3914 -0.1094
15101SOL     OW55232   4.351   3.777  10.589 -0.0981 -0.3507  0.0461
15101SOL    HW155233   4.301   3.804  10.666  1.3787 -0.9118  1.2509
15101SOL    HW255234   4.314   3.829  10.517 -1.5171  0.1788  1.1115
15102SOL     OW55235  10.110  11.137   3.702  0.3364  0.8739  0.0157
15102SOL    HW155236  10.178  11.133   3.635  0.4876  1.5462  0.1113
15102SOL    HW255237  10.158  11.152   3.784  0.3104 -1.8542  0.6093
15103SOL     OW55238   9.084  10.697   6.596 -0.4351 -0.3861 -0.4605
15103SOL    HW155239   9.017  10.668   6.534  0.7075 -3.0727 -0.5573
15103SOL    HW255240   9.145  10.749   6.544 -1.6274  0.9015 -0.6513
15104SOL     OW55241   3.853   8.075  13.018 -0.3345  0.5540  0.3924
15104SOL    HW155242   3.789   8.058  13.087  0.4179  1.9191  1.4830
15104SOL    HW255243   3.917   8.004  13.026 -0.5318  0.4176  0.7761
15105SOL     OW55244   4.912   6.871   9.855  0.4501 -0.4001  0.1389
15105SOL    HW155245   4.852   6.929   9.903  1.4780  0.5432  0.3247
15105SOL    HW255246   4.907   6.788   9.902 -0.9916 -0.4543 -0.0805
15106SOL     OW55247   9.117   1.052   3.376 -0.4472 -0.0082 -0.2326
15106SOL    HW155248   9.188   1.025   3.435 -2.6423  1.0831  3.2664
15106SOL    HW255249   9.060   0.976   3.371 -0.1943 -0.1449 -1.1303
15107SOL     OW55250  11.591  12.049   2.727  0.2644 -0.2345  0.3733
15107SOL    HW155251  11.625  11.980   2.670 -1.0069 -0.5481 -0.0575
15107SOL    HW255252  11.556  12.115   2.667 -0.5536 -0.2930  0.7709
15108SOL     OW55253   3.168   6.684  12.734  0.8478  0.0853  0.3653
15108SOL    HW155254   3.212   6.698  12.650  2.2000 -0.3083  0.9684
15108SOL    HW255255   3.240   6.682  12.798 -0.0341 -0.8964  1.3713
15109SOL     OW55256   2.806   5.690   7.416  0.0455  0.0010 -0.0899
15109SOL    HW155257   2.883   5.647   7.377  0.0019  1.8513 -2.4476
15109SOL    HW255258   2.738   5.622   7.413  1.2715 -1.3522  1.1132
15110SOL     OW55259   8.069   7.268  11.258 -0.5012 -0.5871 -0.1051
15110SOL    HW155260   8.159   7.237  11.262 -0.1466  0.5061  0.7369
15110SOL    HW255261   8.026   7.229  11.333 -0.1149  0.6784  0.8186
15111SOL     OW55262  10.609   1.585   0.208  0.5432 -0.5707 -0.0035
15111SOL    HW155263  10.624   1.577   0.114 -1.3883 -0.3361 -0.3879
15111SOL    HW255264  10.696   1.583   0.247  1.5376  1.2763 -1.9354
15112SOL     OW55265   4.492   7.879   8.532  0.0225 -0.0389  0.1080
15112SOL    HW155266   4.579   7.855   8.564  0.5440 -0.4022 -1.4800
15112SOL    HW255267   4.473   7.963   8.574  0.7302 -0.3991  1.1862
15113SOL     OW55268   5.212   1.935   6.236 -0.1168  0.5169  0.4311
15113SOL    HW155269   5.252   1.989   6.304  0.5078 -1.3821  1.6572
15113SOL    HW255270   5.281   1.920   6.172 -0.4867  1.6733 -0.2705
15114SOL     OW55271  13.042  11.089   4.913  0.0309 -0.1282 -0.3056
15114SOL    HW155272  13.004  11.158   4.858  0.1734  0.2017  0.0068
15114SOL    HW255273  13.132  11.079   4.881  0.6043  1.1070  0.8110
15115SOL     OW55274   8.730   9.187   4.733 -0.5693 -0.4726  0.2942
15115SOL    HW155275   8.746   9.172   4.826  0.5244 -1.8287 -0.0693
15115SOL    HW255276   8.664   9.256   4.730  1.1873  1.4373  2.0477
15116SOL     OW55277   2.508  10.725   9.776 -0.0720 -0.2352  0.0489
15116SOL    HW155278   2.517  10.744   9.869  1.7715 -1.2386  0.1263
15116SOL    HW255279   2.553  10.641   9.764 -2.7955 -1.6468 -1.2563
15117SOL     OW55280   4.840  13.265   7.148 -0.1729 -0.1041  0.3727
15117SOL    HW155281   4.789  13.344   7.128 -1.0888 -0.2953  1.7858
15117SOL    HW255282   4.828  13.252   7.242  2.4985 -0.1899  0.7701
15118SOL     OW55283   0.971   5.482   3.560  0.2818  0.0288 -0.0022
15118SOL    HW155284   1.051   5.445   3.596 -0.2353 -0.1486  1.0053
15118SOL    HW255285   0.901   5.444   3.613 -0.1992  3.9395  2.5807
15119SOL     OW55286   5.396  12.443   9.266  0.1683  0.4489 -0.1427
15119SOL    HW155287   5.474  12.389   9.253  0.0369  0.3726 -0.6350
15119SOL    HW255288   5.426  12.514   9.322  0.5341  0.2934 -0.1340
15120SOL     OW55289   5.098   1.133   4.533  0.2028  0.1227  0.5285
15120SOL    HW155290   5.134   1.174   4.611 -1.5101 -0.0127  1.4288
15120SOL    HW255291   5.078   1.044   4.559  0.8829 -0.3471 -0.4845
15121SOL     OW55292   7.008   1.001  12.320 -0.2028  0.1348  0.2601
15121SOL    HW155293   7.024   0.977  12.412 -2.5011  0.7698  0.8981
15121SOL    HW255294   7.080   0.962  12.272  0.4061 -1.2761  2.2006
15122SOL     OW55295   2.703  10.812   7.615 -0.0952  0.7455 -0.5245
15122SOL    HW155296   2.719  10.900   7.647 -0.2749  0.1538  1.2865
15122SOL    HW255297   2.689  10.759   7.694 -1.6389 -0.5894 -1.6094
15123SOL     OW55298   0.595   8.895   4.813  0.3916 -0.1069  0.3606
15123SOL    HW155299   0.618   8.840   4.887  1.7749  1.4023  1.1321
15123SOL    HW255300   0.579   8.834   4.741  1.2311 -1.5213  1.3247
15124SOL     OW55301   7.274  11.119   1.108 -0.5776 -0.0268  0.1882
15124SOL    HW155302   7.330  11.044   1.089 -2.8298 -1.9000  0.5235
15124SOL    HW255303   7.224  11.133   1.027 -0.4704  0.8677  0.2589
15125SOL     OW55304   3.145   0.589   2.336  0.0197 -0.0871  0.4880
15125SOL    HW155305   3.071   0.545   2.378  0.6552 -2.1033 -0.3751
15125SOL    HW255306   3.112   0.615   2.250 -0.0852  0.2864  0.6404
15126SOL     OW55307   2.457   6.145  11.301 -0.1914  0.2965  0.1581
15126SOL    HW155308   2.382   6.085  11.293  0.2466 -0.1897 -0.4571
15126SOL    HW255309   2.418   6.230  11.322 -1.0272  0.3221 -1.3547
15127SOL     OW55310   7.203   3.207   1.573  0.1204 -0.0496  0.7979
15127SOL    HW155311   7.259   3.280   1.546 -0.6504  0.7795  1.3945
15127SOL    HW255312   7.235   3.132   1.522  0.5677  0.8209 -0.2487
15128SOL     OW55313   2.707   6.056  10.820 -0.3913  0.1619  0.3673
15128SOL    HW155314   2.624   6.021  10.854 -0.7683  1.2027  0.5449
15128SOL    HW255315   2.762   6.067  10.898  0.0096 -0.7104  0.2296
15129SOL     OW55316  10.658   6.885   1.734 -0.0466 -0.6202 -0.0447
15129SOL    HW155317  10.673   6.979   1.734 -2.0086 -0.2357 -1.6011
15129SOL    HW255318  10.614   6.867   1.817  1.2423 -0.3699  0.7143
15130SOL     OW55319  12.904   5.174   3.377  0.7277 -0.2544  0.2938
15130SOL    HW155320  12.840   5.216   3.318  1.6007  1.1726  0.3020
15130SOL    HW255321  12.961   5.246   3.404  2.5423 -1.5351  0.0360
15131SOL     OW55322  10.298   7.526  10.725  0.7514 -0.1802  0.4548
15131SOL    HW155323  10.211   7.513  10.764 -0.4912  1.8797 -1.4175
15131SOL    HW255324  10.327   7.610  10.761  0.4741  0.7479 -1.4009
15132SOL     OW55325   2.508   0.877   1.387  0.0715  0.2642 -0.7561
15132SOL    HW155326   2.460   0.794   1.383  0.5758 -0.1181  0.6240
15132SOL    HW255327   2.576   0.863   1.452  3.3383  0.1840 -3.8833
15133SOL     OW55328   4.466   9.874  10.116 -0.4480 -0.4859 -0.2887
15133SOL    HW155329   4.447   9.921  10.035 -0.8211 -0.6138 -0.2771
15133SOL    HW255330   4.471   9.942  10.183  1.1405 -0.2366 -0.6225
15134SOL     OW55331   5.578   2.646  12.437  0.5205  0.3226  0.3995
15134SOL    HW155332   5.659   2.607  12.402  0.1129 -0.6902  0.5619
15134SOL    HW255333   5.559   2.594  12.515  0.2735  1.2300  0.9562
15135SOL     OW55334   6.530  12.714   5.422 -0.3388 -0.1291 -0.2562
15135SOL    HW155335   6.535  12.810   5.427 -0.2842 -0.1849  1.0550
15135SOL    HW255336   6.621  12.684   5.423 -0.3595 -0.2066 -0.5356
15136SOL     OW55337   1.404   3.896   6.174  0.6785 -0.0084  0.3382
15136SOL    HW155338   1.352   3.817   6.191 -1.4379  1.1847 -0.2515
15136SOL    HW255339   1.407   3.903   6.079 -0.7938  1.5706  0.3586
15137SOL     OW55340   5.824   7.973   9.875  0.1610 -0.5795 -0.1597
15137SOL    HW155341   5.758   7.930   9.930 -1.7840  0.3429 -1.6476
15137SOL    HW255342   5.870   7.901   9.832 -0.1211 -1.2345  0.6063
15138SOL     OW55343   9.080   2.222  11.358 -0.4792  0.2627  0.3440
15138SOL    HW155344   9.026   2.229  11.437 -1.2152 -0.2620 -0.0930
15138SOL    HW255345   9.047   2.290  11.300  0.2268  0.8107  0.5772
15139SOL     OW55346   1.585   7.269   1.766 -0.0254 -0.3086  0.2956
15139SOL    HW155347   1.659   7.245   1.711  0.0723  2.2828 -0.8506
15139SOL    HW255348   1.552   7.351   1.728 -1.1684  0.5838  2.9485
15140SOL     OW55349   7.786  12.499   0.716 -0.3361  0.4247 -0.5319
15140SOL    HW155350   7.878  12.520   0.733  0.2107 -0.8692 -1.6362
15140SOL    HW255351   7.788  12.448   0.635 -1.6003 -2.5545  1.1193
15141SOL     OW55352   0.147  12.959   9.582 -0.4051 -0.5362  0.5443
15141SOL    HW155353   0.195  12.933   9.503 -2.0853 -0.4115 -0.5874
15141SOL    HW255354   0.142  13.055   9.576 -1.1779 -0.5816  0.3948
15142SOL     OW55355   3.935   9.093  10.114 -0.3846  0.1900 -0.8881
15142SOL    HW155356   3.923   9.113  10.207 -1.0406 -0.3298 -0.8503
15142SOL    HW255357   4.029   9.102  10.100 -0.2399  0.0294 -0.1129
15143SOL     OW55358   8.916   1.914  10.774 -0.1030 -0.0525  0.2231
15143SOL    HW155359   8.859   1.846  10.809  0.7523 -0.5947  0.6044
15143SOL    HW255360   8.997   1.868  10.751 -0.3909  0.4046 -1.8788
15144SOL     OW55361   8.159  12.802   1.128 -0.1954  0.5737  0.0511
15144SOL    HW155362   8.138  12.714   1.097 -0.3676  0.7272 -0.2640
15144SOL    HW255363   8.079  12.833   1.171 -0.2575  0.7269 -0.1758
15145SOL     OW55364  10.336   8.976   9.811 -0.4789  0.1478 -0.1824
15145SOL    HW155365  10.286   9.058   9.805 -1.2033 -0.2297  0.4738
15145SOL    HW255366  10.274   8.913   9.849  1.1574  0.2219  2.8432
15146SOL     OW55367   7.156  12.684   2.650 -0.7879  0.2017  0.3403
15146SOL    HW155368   7.073  12.732   2.644 -0.9582  0.2504  2.3994
15146SOL    HW255369   7.189  12.703   2.738  0.0787 -1.9484  0.5558
15147SOL     OW55370  12.782   7.498   9.040 -0.3510 -0.4408 -0.2569
15147SOL    HW155371  12.743   7.518   9.126  2.6970  0.1633  1.1053
15147SOL    HW255372  12.843   7.427   9.057  2.5595  1.6530 -1.1924
15148SOL     OW55373   8.535   0.447   9.673  0.2760  0.2874  0.3384
15148SOL    HW155374   8.460   0.410   9.721 -0.7862  2.2023  0.2413
15148SOL    HW255375   8.567   0.374   9.620 -0.7505 -0.9165  1.2855
15149SOL     OW55376   3.396   9.608   1.233 -0.0663  0.0818 -0.1156
15149SOL    HW155377   3.362   9.617   1.322  1.4697  0.1525  0.4940
15149SOL    HW255378   3.333   9.655   1.178 -0.7014  0.5768  1.0074
15150SOL     OW55379  12.517  11.916   3.620 -0.0751  0.4912 -0.2356
15150SOL    HW155380  12.442  11.929   3.678  0.5648  0.2308  0.6693
15150SOL    HW255381  12.533  12.002   3.582  0.0348  0.8709  0.6494
15151SOL     OW55382   3.424   4.607  11.925 -0.4607 -0.2838 -0.2878
15151SOL    HW155383   3.417   4.527  11.978 -1.2914  0.1282  0.2648
15151SOL    HW255384   3.503   4.596  11.873 -0.7492 -1.6145 -0.4649
15152SOL     OW55385   1.777   9.358   1.586 -0.2753 -0.0797  0.0644
15152SOL    HW155386   1.685   9.373   1.607 -0.0870  0.1753  0.7338
15152SOL    HW255387   1.798   9.274   1.627 -0.2676 -0.2510 -0.2839
15153SOL     OW55388   9.562  13.176  10.354  0.3441  0.3102 -0.6199
15153SOL    HW155389   9.599  13.159  10.268  0.4963 -1.5326 -0.2324
15153SOL    HW255390   9.467  13.171  10.341  0.2275  2.6057 -1.1327
15154SOL     OW55391   3.196   1.671   8.749 -0.0011  0.3555  0.4606
15154SOL    HW155392   3.279   1.653   8.706 -1.7133 -0.8566 -2.7213
15154SOL    HW255393   3.177   1.762   8.728 -1.2631 -0.4694 -2.5369
15155SOL     OW55394   5.037   3.938   7.128  0.0088 -0.1970  0.0443
15155SOL    HW155395   5.096   4.011   7.147  1.3710 -1.5512  1.2679
15155SOL    HW255396   5.008   3.908   7.213  0.9882 -2.2572 -0.2897
15156SOL     OW55397   8.419   0.157   9.748 -0.2811  0.1176 -0.0035
15156SOL    HW155398   8.454   0.097   9.683 -1.0743 -0.0816 -0.2544
15156SOL    HW255399   8.335   0.185   9.713 -0.1050  1.0818  0.2904
15157SOL     OW55400   1.498  12.554   6.840  0.5299  0.1746  0.7190
15157SOL    HW155401   1.577  12.608   6.839 -0.2991  1.4518  0.0281
15157SOL    HW255402   1.484  12.534   6.933  0.9525  1.0402  0.9800
15158SOL     OW55403   5.445  10.366   0.301  0.0768  0.1798 -0.4558
15158SOL    HW155404   5.389  10.292   0.324  0.1114  0.0065 -0.9139
15158SOL    HW255405   5.411  10.397   0.217 -0.9152  1.6739  0.4426
15159SOL     OW55406   1.313   6.013   2.882 -0.1323  0.0548  0.2485
15159SOL    HW155407   1.350   6.073   2.947 -1.3966  0.5786  0.5173
15159SOL    HW255408   1.300   5.931   2.931 -2.3102  0.8240  1.1039
15160SOL     OW55409   7.271   6.303   5.169 -0.1362  0.2056  0.1833
15160SOL    HW155410   7.334   6.375   5.160 -1.0137  1.1348  1.1988
15160SOL    HW255411   7.185   6.347   5.171 -0.7609 -0.9635 -0.2439
15161SOL     OW55412   5.035   8.656  11.100 -0.6448  0.3848  0.2778
15161SOL    HW155413   4.986   8.724  11.054  0.0408  1.5819  1.2729
15161SOL    HW255414   4.996   8.574  11.068 -2.3207  1.2445 -0.0315
15162SOL     OW55415   9.056   3.656   1.564 -0.2724  0.3937 -0.5562
15162SOL    HW155416   8.980   3.598   1.563  0.7567 -1.1059  1.1834
15162SOL    HW255417   9.116   3.617   1.500  0.3488 -0.4492  0.4903
15163SOL     OW55418   0.021   2.660   2.180  0.2044 -0.2073 -0.2428
15163SOL    HW155419  -0.017   2.588   2.129 -0.5956 -0.4664  0.6790
15163SOL    HW255420  -0.044   2.730   2.175  0.8999  0.4102 -0.9840
15164SOL     OW55421  10.622   8.327   7.004  0.2188 -0.2609  0.5956
15164SOL    HW155422  10.625   8.256   6.940  0.3876  0.1513  0.1380
15164SOL    HW255423  10.575   8.397   6.959  0.5941  0.1383  0.8208
15165SOL     OW55424  12.266   9.259  13.254  0.0692 -0.5499 -0.4100
15165SOL    HW155425  12.284   9.210  13.174  0.1604 -1.6247  0.2464
15165SOL    HW255426  12.174   9.239  13.275 -0.5189  1.1513 -1.1881
15166SOL     OW55427   1.543  11.607   3.404  0.4235  0.0736 -0.3595
15166SOL    HW155428   1.510  11.689   3.443  1.7696  0.1522  0.7022
15166SOL    HW255429   1.572  11.632   3.317 -2.0042  0.0490 -1.2572
15167SOL     OW55430   0.874   6.283   2.206 -0.1350  0.1871 -0.7042
15167SOL    HW155431   0.814   6.210   2.194  0.2084  0.0602 -1.7968
15167SOL    HW255432   0.873   6.301   2.300  0.5527 -1.8849 -0.2611
15168SOL     OW55433  11.266   9.870  11.316 -0.5429 -0.0850  0.0266
15168SOL    HW155434  11.358   9.889  11.338 -0.4013 -1.4221  0.7069
15168SOL    HW255435  11.233   9.951  11.278  0.8545  0.5013  0.0082
15169SOL     OW55436   6.386   7.423  11.547  0.0089 -0.1187  0.2101
15169SOL    HW155437   6.379   7.494  11.611 -1.7971 -0.6071  0.6118
15169SOL    HW255438   6.346   7.458  11.468  0.9308 -0.0147 -0.2164
15170SOL     OW55439   9.183   6.913   4.970 -0.2788 -0.3934 -0.3731
15170SOL    HW155440   9.270   6.903   4.931  0.2953  0.7330  0.5455
15170SOL    HW255441   9.198   6.963   5.050 -1.9104  0.8292 -0.7736
15171SOL     OW55442   7.410   0.430   2.346  0.4201  0.5343  0.3339
15171SOL    HW155443   7.324   0.472   2.342  0.1374 -0.0633  0.1375
15171SOL    HW255444   7.397   0.354   2.402  0.1405 -1.0948 -1.7930
15172SOL     OW55445  10.516   8.667   4.427 -0.4193 -0.0735  0.2658
15172SOL    HW155446  10.556   8.689   4.343  1.4231 -2.5546  0.3708
15172SOL    HW255447  10.578   8.700   4.492  0.2745 -1.7389  0.4954
15173SOL     OW55448   4.392   2.750   4.529  0.3972 -0.1655  0.5405
15173SOL    HW155449   4.386   2.807   4.453  0.5153 -0.2158  0.4919
15173SOL    HW255450   4.416   2.664   4.493  1.6245  0.0725  0.7252
15174SOL     OW55451   8.169  11.879   6.931 -0.1833 -0.0517 -0.4753
15174SOL    HW155452   8.123  11.954   6.894 -0.4320  0.1646  0.2600
15174SOL    HW255453   8.245  11.916   6.976 -0.9386 -0.0992  0.9010
15175SOL     OW55454  10.927   3.795   5.705 -0.1982  0.1939  0.2508
15175SOL    HW155455  11.012   3.833   5.682 -1.4651  2.5575 -0.9230
15175SOL    HW255456  10.870   3.870   5.719 -2.4703 -1.2792 -0.4536
15176SOL     OW55457   6.731   0.863   0.988 -0.6004 -0.1194 -0.0068
15176SOL    HW155458   6.779   0.790   1.028  0.1092  0.6011  0.4711
15176SOL    HW255459   6.794   0.903   0.928 -0.6914  0.6746  0.4253
15177SOL     OW55460   2.567  11.851   0.981  1.1874  0.3988  0.0179
15177SOL    HW155461   2.515  11.928   1.003 -0.7686 -1.1074  0.9263
15177SOL    HW255462   2.550  11.789   1.052  2.6327 -0.9377 -0.7305
15178SOL     OW55463  12.253   7.483  12.610 -0.1060  0.4911  0.2690
15178SOL    HW155464  12.166   7.462  12.642  0.4160 -1.5479  0.5282
15178SOL    HW255465  12.258   7.439  12.525  1.4447 -1.5433  1.3197
15179SOL     OW55466   5.506   1.312  12.895  0.1075 -0.0189 -0.1070
15179SOL    HW155467   5.524   1.260  12.973  0.8991  0.7624  0.2464
15179SOL    HW255468   5.416   1.344  12.907 -2.2919 -4.7856 -2.3566
15180SOL     OW55469   7.489  12.763   0.103  0.5246  0.4327 -0.2782
15180SOL    HW155470   7.453  12.842   0.062 -1.7223 -0.3650 -0.0100
15180SOL    HW255471   7.477  12.779   0.197 -1.6005 -0.8614 -0.2599
15181SOL     OW55472   0.650   7.443   9.234 -0.0805 -0.3250 -0.2699
15181SOL    HW155473   0.571   7.417   9.187 -0.1477 -0.4217 -0.1049
15181SOL    HW255474   0.646   7.394   9.317 -0.6908  0.9268  0.4767
15182SOL     OW55475   9.966  11.053   6.899 -0.6089 -0.5131  0.3933
15182SOL    HW155476  10.005  10.975   6.940 -0.4968 -0.7417 -0.1372
15182SOL    HW255477   9.876  11.027   6.879 -0.2377 -0.9247 -0.8521
15183SOL     OW55478   9.121   6.627   5.493  0.5978 -0.2976 -0.2635
15183SOL    HW155479   9.092   6.693   5.430  1.4850  0.2616 -0.1054
15183SOL    HW255480   9.108   6.668   5.578  0.0527 -0.7843 -0.1102
15184SOL     OW55481   9.493   8.759   4.031  0.0266  0.0963  0.1771
15184SOL    HW155482   9.559   8.820   3.996 -0.2256  0.2194 -0.0971
15184SOL    HW255483   9.411   8.807   4.023 -0.2098 -0.3743 -0.2773
15185SOL     OW55484   9.939   6.231  12.512 -0.3151  0.3929  0.3703
15185SOL    HW155485   9.979   6.179  12.581 -0.1478  1.4443  1.0838
15185SOL    HW255486  10.012   6.258  12.457 -0.4247 -0.2610 -0.1199
15186SOL     OW55487   0.525   1.096   6.374 -0.2120 -0.0580 -0.7476
15186SOL    HW155488   0.526   1.187   6.404  0.2083  0.2347 -1.6145
15186SOL    HW255489   0.436   1.083   6.342 -0.8353 -0.5496  1.0929
15187SOL     OW55490   2.520   8.822  10.667  0.3868  0.0173 -0.7408
15187SOL    HW155491   2.514   8.903  10.616 -0.9711 -0.7134 -1.7930
15187SOL    HW255492   2.440   8.822  10.720  1.6651  0.6629  1.3329
15188SOL     OW55493   4.347   0.485  13.144  0.1845 -0.0666  0.2786
15188SOL    HW155494   4.367   0.435  13.223 -0.4728 -1.6105 -0.5012
15188SOL    HW255495   4.412   0.457  13.080  1.0338  1.5504  0.3655
15189SOL     OW55496   8.903   2.084   3.966  0.5775 -0.3907 -0.2153
15189SOL    HW155497   8.902   1.990   3.949  0.7285 -0.6032  0.8549
15189SOL    HW255498   8.996   2.107   3.971  0.5411 -0.1743 -0.4997
15190SOL     OW55499   5.978  11.420  13.136 -0.2633  0.0454  0.5178
15190SOL    HW155500   6.032  11.382  13.067 -0.9068  0.0616  0.0008
15190SOL    HW255501   6.037  11.426  13.211  0.4380  0.0029 -0.0164
15191SOL     OW55502  12.114   2.599  11.318 -0.5386  0.8259 -0.3171
15191SOL    HW155503  12.031   2.558  11.341 -0.0980 -0.0880 -0.3178
15191SOL    HW255504  12.135   2.655  11.392  0.4663 -1.4468  1.2054
15192SOL     OW55505  10.742   9.694   5.295  0.3037 -0.8599  0.2919
15192SOL    HW155506  10.723   9.787   5.305 -0.4439 -0.9196 -0.4437
15192SOL    HW255507  10.731   9.677   5.201  2.8068 -1.1908 -0.0224
15193SOL     OW55508   6.521   9.441   3.939 -0.2804  0.3532  0.0228
15193SOL    HW155509   6.615   9.429   3.930 -0.2502  1.0032 -0.6902
15193SOL    HW255510   6.484   9.397   3.863 -0.5424  0.1669  0.2588
15194SOL     OW55511  11.737   9.241   0.761  0.0859  0.5293  0.0613
15194SOL    HW155512  11.703   9.240   0.671 -0.7929 -0.4369  0.3893
15194SOL    HW255513  11.816   9.187   0.757 -1.3076 -1.6055  0.3549
15195SOL     OW55514  11.136   9.962   8.119 -0.1114 -0.6291 -0.4864
15195SOL    HW155515  11.177   9.937   8.036 -0.8396 -0.3566 -0.9377
15195SOL    HW255516  11.155   9.889   8.178 -0.2549 -1.1857 -1.1232
15196SOL     OW55517   5.242   1.366   6.772 -0.4661  0.1817 -0.0186
15196SOL    HW155518   5.240   1.332   6.861 -0.9042  1.5650  0.5285
15196SOL    HW255519   5.252   1.460   6.782 -0.4866  0.3672 -1.4424
15197SOL     OW55520   0.631  10.068   7.122  0.0517  0.2952 -0.0068
15197SOL    HW155521   0.592  10.125   7.056  1.6342  0.7733 -0.5711
15197SOL    HW255522   0.686  10.126   7.175  0.1402 -0.3799  0.6667
15198SOL     OW55523  12.656  13.167  11.159 -0.2275 -0.0312 -0.0525
15198SOL    HW155524  12.740  13.188  11.117 -0.7136 -1.6635 -2.0141
15198SOL    HW255525  12.655  13.072  11.164 -2.2803 -0.1111 -0.8436
15199SOL     OW55526   0.569   1.507   9.754  0.1410  0.0714  0.0494
15199SOL    HW155527   0.581   1.599   9.780 -0.6601 -0.0049  0.7467
15199SOL    HW255528   0.479   1.486   9.781  0.9859 -1.5349  1.8855
15200SOL     OW55529  10.265   8.331   3.089 -0.1502 -0.3477  0.0101
15200SOL    HW155530  10.214   8.388   3.147  0.4202  1.2047 -0.9335
15200SOL    HW255531  10.200   8.286   3.036 -0.5984  0.4644 -0.1472
15201SOL     OW55532   0.602   5.885   5.835 -0.2089 -0.2570  0.4046
15201SOL    HW155533   0.573   5.879   5.926  0.9977 -1.7524  0.7402
15201SOL    HW255534   0.602   5.794   5.804  1.2688 -0.0092 -0.4422
15202SOL     OW55535   7.927  10.909  10.953  0.1935 -0.5102 -0.2722
15202SOL    HW155536   7.998  10.886  11.013  1.6080  0.7964 -1.3595
15202SOL    HW255537   7.934  11.004  10.943 -2.0958 -0.2655  0.0193
15203SOL     OW55538   8.729  11.924  11.439 -0.0722  0.4375 -0.4723
15203SOL    HW155539   8.684  11.877  11.368  0.8778  0.2729 -0.9841
15203SOL    HW255540   8.800  11.970  11.395  0.8673 -0.1116  0.4398
15204SOL     OW55541   8.930   6.065  10.798 -0.2735 -0.1354  0.2618
15204SOL    HW155542   8.858   6.118  10.763  0.3916  0.7730  0.2475
15204SOL    HW255543   8.952   6.005  10.727  0.6870  1.3093 -0.6992
15205SOL     OW55544  10.675   6.455   9.377 -0.6793  0.3965 -0.3990
15205SOL    HW155545  10.671   6.510   9.299 -0.2393  0.4969 -0.3530
15205SOL    HW255546  10.651   6.513   9.449  0.3602  0.6828 -0.2764
15206SOL     OW55547   0.314  13.130   2.485 -0.1201 -0.5909  0.2941
15206SOL    HW155548   0.354  13.049   2.516  1.1281  0.3531  1.2786
15206SOL    HW255549   0.319  13.123   2.389  0.4485 -1.4474  0.3683
15207SOL     OW55550   3.411  13.035  12.187  0.4038 -0.0294  0.3969
15207SOL    HW155551   3.435  13.086  12.264 -1.4966 -0.0703  1.0896
15207SOL    HW255552   3.456  12.951  12.198  1.2249  0.4504  0.7527
15208SOL     OW55553   9.183   6.578   5.033  0.4448  0.0621 -0.2883
15208SOL    HW155554   9.120   6.557   4.964 -2.2671 -0.4076  2.1776
15208SOL    HW255555   9.203   6.671   5.019 -2.7399  0.9531  0.1729
15209SOL     OW55556   4.080  11.623  13.182 -0.3409 -0.0338 -0.1695
15209SOL    HW155557   4.000  11.578  13.207 -0.7766  0.5034 -0.5799
15209SOL    HW255558   4.051  11.700  13.133  0.4049  0.3961  0.0365
15210SOL     OW55559   7.513  12.121   4.524  0.0213 -0.4752 -0.0835
15210SOL    HW155560   7.521  12.138   4.618  0.7477 -0.8353 -0.0697
15210SOL    HW255561   7.603  12.110   4.494 -0.2673 -1.9239 -0.5138
15211SOL     OW55562   3.758   6.077   2.441 -0.3672 -0.0319 -0.1039
15211SOL    HW155563   3.756   5.982   2.429  2.1100 -0.4389  1.9393
15211SOL    HW255564   3.713   6.112   2.365 -2.1395 -2.8593 -0.4745
15212SOL     OW55565   4.643   7.978   3.683  0.8034  0.0348  0.3936
15212SOL    HW155566   4.600   7.898   3.713 -0.9871  1.3912  1.6416
15212SOL    HW255567   4.724   7.982   3.735 -0.1055  0.0567  1.8542
15213SOL     OW55568   7.791   4.749   9.797 -0.2151 -0.5778 -0.3353
15213SOL    HW155569   7.748   4.733   9.881 -0.6898 -0.8712 -0.6322
15213SOL    HW255570   7.884   4.749   9.818 -0.3597  0.7880  0.4409
15214SOL     OW55571   2.083   4.615   2.909  0.1847  0.1772  0.3003
15214SOL    HW155572   2.144   4.547   2.940  1.6513  0.3467 -2.0279
15214SOL    HW255573   2.038   4.575   2.835 -0.2955  1.1222  0.0707
15215SOL     OW55574   1.696  10.578  12.567  0.2304  0.0747  0.2730
15215SOL    HW155575   1.634  10.639  12.526  0.0177 -0.5463 -0.3636
15215SOL    HW255576   1.718  10.517  12.497  3.1738  1.4454 -0.1618
15216SOL     OW55577   5.487   8.712   4.104 -0.3405 -0.1482  0.0344
15216SOL    HW155578   5.477   8.709   4.009  2.3425 -0.0449 -0.3250
15216SOL    HW255579   5.508   8.804   4.123  0.7287 -0.4757  0.5019
15217SOL     OW55580   7.708   2.782   8.612 -0.4857  0.1520  0.2675
15217SOL    HW155581   7.714   2.811   8.703  1.4998 -1.1987  0.6401
15217SOL    HW255582   7.697   2.862   8.561 -0.5770  1.0199  1.6261
15218SOL     OW55583  11.789   9.641  10.199 -0.3583 -0.5469 -0.0073
15218SOL    HW155584  11.855   9.586  10.157  0.6092  0.2188  0.4605
15218SOL    HW255585  11.712   9.585  10.207  0.1851 -1.4117 -0.7083
15219SOL     OW55586   2.553  12.378  11.737  0.4623  0.3068 -0.1404
15219SOL    HW155587   2.546  12.341  11.825  1.8645 -0.8045 -0.4614
15219SOL    HW255588   2.603  12.458  11.748  1.9003 -0.5667 -0.0755
15220SOL     OW55589  10.536   5.245   5.861  0.5028 -0.5536  0.5488
15220SOL    HW155590  10.611   5.304   5.849 -0.8301  1.3926  1.2505
15220SOL    HW255591  10.559   5.166   5.812  3.0465 -0.0881  0.8390
15221SOL     OW55592   7.579   6.164   4.245 -0.3030 -0.2423 -0.4130
15221SOL    HW155593   7.616   6.249   4.267  1.2654 -0.1553 -2.8885
15221SOL    HW255594   7.490   6.183   4.215 -1.0171  0.0893  1.8033
15222SOL     OW55595  10.900   1.658   2.050  0.1062 -0.6910  0.1880
15222SOL    HW155596  10.976   1.599   2.048  0.4556 -0.2908  1.0911
15222SOL    HW255597  10.884   1.673   2.143  1.5490  2.5781  0.0168
15223SOL     OW55598   9.188   8.573   7.768 -0.1896  0.1857 -0.6951
15223SOL    HW155599   9.180   8.557   7.673 -1.7823  0.5339 -0.6538
15223SOL    HW255600   9.275   8.612   7.778  0.3989 -0.7240 -1.8765
15224SOL     OW55601   3.191   3.822  11.341 -0.2066  0.1210 -0.0352
15224SOL    HW155602   3.118   3.884  11.338 -1.4132 -1.2215 -3.6662
15224SOL    HW255603   3.157   3.746  11.387  0.7793  1.3498  3.0119
15225SOL     OW55604   3.994   0.844   4.383  0.3108  0.0935  0.0774
15225SOL    HW155605   4.027   0.914   4.327  0.2737  0.0216 -0.0352
15225SOL    HW255606   3.900   0.860   4.390  0.4781  0.7479  1.0329
15226SOL     OW55607   6.830   9.066  12.740 -0.2506  0.1725  0.1042
15226SOL    HW155608   6.825   9.072  12.645  1.1680  2.7174  0.1228
15226SOL    HW255609   6.741   9.086  12.770 -0.8236 -1.1014 -0.6489
15227SOL     OW55610  12.229  10.051  10.345  0.6050  0.4827 -0.1167
15227SOL    HW155611  12.252  10.042  10.252  0.7214 -0.4722 -0.0024
15227SOL    HW255612  12.185  10.136  10.350  0.5217  0.5113 -1.0624
15228SOL     OW55613   1.631   5.072   8.748 -0.2204  0.4298  0.1862
15228SOL    HW155614   1.570   5.138   8.714  0.0354 -0.3061 -1.8857
15228SOL    HW255615   1.587   4.988   8.729  0.2975 -0.0398  1.0365
15229SOL     OW55616   7.970  13.081   7.327 -0.1703 -0.6328 -0.1485
15229SOL    HW155617   7.984  13.040   7.412  2.3872 -1.7204 -1.0016
15229SOL    HW255618   8.003  13.170   7.338 -0.7482 -0.4586  0.2368
15230SOL     OW55619   5.854  12.638   4.841 -0.3296  0.7517 -0.1897
15230SOL    HW155620   5.803  12.587   4.778 -0.3066  0.0781  0.3279
15230SOL    HW255621   5.794  12.653   4.914  0.8201 -2.1165  1.5316
15231SOL     OW55622   7.400   9.259   7.434 -0.8702  0.0834  0.1048
15231SOL    HW155623   7.472   9.260   7.497  0.0092  0.7293 -0.8707
15231SOL    HW255624   7.324   9.285   7.485 -0.6949 -1.7774  1.4353
15232SOL     OW55625  12.072   3.179  11.704  0.0684 -0.5490 -0.0935
15232SOL    HW155626  12.162   3.175  11.738  0.8800 -3.4816 -2.2199
15232SOL    HW255627  12.030   3.100  11.737 -2.7681  1.9650  3.0128
15233SOL     OW55628   4.228   2.935   9.203  0.3203 -0.1046 -0.0717
15233SOL    HW155629   4.256   2.850   9.236  0.5595  0.1809  0.4633
15233SOL    HW255630   4.132   2.929   9.201  0.2852 -0.0204  0.9587
15234SOL     OW55631  12.460  10.152   6.793 -0.0717  0.0492  0.2887
15234SOL    HW155632  12.392  10.169   6.859  0.0437 -1.4389  0.8182
15234SOL    HW255633  12.482  10.059   6.803  0.3625 -0.0851 -1.4725
15235SOL     OW55634   9.248   0.930  10.479  0.3628  0.2090  0.1142
15235SOL    HW155635   9.189   0.991  10.522 -1.0748  0.4608 -2.0788
15235SOL    HW255636   9.197   0.849  10.470  1.8580 -1.0229  1.9803
15236SOL     OW55637   2.245   9.825   8.403  0.1781 -0.2937 -0.1401
15236SOL    HW155638   2.333   9.861   8.410 -0.6860  1.7846  0.8470
15236SOL    HW255639   2.242   9.756   8.470  1.0522 -0.4388 -0.2360
15237SOL     OW55640  11.962   9.905   2.991 -0.1853  0.1089  0.1340
15237SOL    HW155641  11.884   9.849   2.989 -0.1302  0.0442 -0.5336
15237SOL    HW255642  12.003   9.891   2.906  0.0326  0.8819  0.1071
15238SOL     OW55643   4.481   4.274   1.095  0.4411 -0.1790 -0.1765
15238SOL    HW155644   4.448   4.278   1.185 -0.4104  2.8245 -0.4870
15238SOL    HW255645   4.445   4.193   1.059 -3.0073  0.6749  0.9109
15239SOL     OW55646   7.012   4.760   1.875 -0.0219  0.2555 -0.2778
15239SOL    HW155647   7.078   4.758   1.945  2.2643  1.0228 -2.2398
15239SOL    HW255648   6.957   4.835   1.896  0.3160  0.1699  0.9678
15240SOL     OW55649   3.427   8.026   2.632  0.1259  0.4293 -0.1914
15240SOL    HW155650   3.482   8.023   2.554 -0.0089 -1.9918 -0.2697
15240SOL    HW255651   3.414   8.119   2.648  2.1966  1.0366 -1.5942
15241SOL     OW55652  13.059  10.315   5.670 -0.1009  0.0037 -0.0079
15241SOL    HW155653  13.002  10.238   5.662 -0.1700  0.0649 -0.1046
15241SOL    HW255654  13.100  10.305   5.757 -1.4113  0.7508  0.7273
15242SOL     OW55655   3.146   6.100   7.418 -0.0396 -0.2292  0.8948
15242SOL    HW155656   3.106   6.038   7.357  1.0089 -2.7150  2.5526
15242SOL    HW255657   3.087   6.102   7.493  0.6151 -0.2819  1.4181
15243SOL     OW55658  11.267   5.704  11.730 -0.0572 -1.0922 -0.3098
15243SOL    HW155659  11.344   5.747  11.691  0.4344 -1.7736 -0.0978
15243SOL    HW255660  11.209   5.777  11.753  0.3769 -0.5863 -0.7767
15244SOL     OW55661   3.497   2.576   3.219 -0.2060  0.1838 -0.1135
15244SOL    HW155662   3.579   2.587   3.268 -0.3989  2.1007 -0.1389
15244SOL    HW255663   3.434   2.544   3.285  0.1372  0.4114  0.3317
15245SOL     OW55664   3.177   0.486  11.067  0.5541 -0.1172  1.5074
15245SOL    HW155665   3.119   0.411  11.082  0.0085  0.3785  1.9414
15245SOL    HW255666   3.156   0.547  11.138  0.1693  0.9315  0.5366
15246SOL     OW55667   8.122  10.963   0.055  0.8870  0.1897 -0.1478
15246SOL    HW155668   8.191  10.929  -0.003 -0.6622 -0.7423 -1.5281
15246SOL    HW255669   8.056  10.999  -0.005 -0.4115 -0.0948  1.0634
15247SOL     OW55670  12.979  10.328   4.916  0.5148 -0.3039  0.0492
15247SOL    HW155671  12.939  10.393   4.858  1.4764  0.0646 -0.2230
15247SOL    HW255672  12.958  10.244   4.875  1.6357 -0.0334 -1.1791
15248SOL     OW55673   6.330  11.713   5.921 -0.0494 -0.7064 -0.3327
15248SOL    HW155674   6.259  11.658   5.954 -1.2320  0.4114 -0.9590
15248SOL    HW255675   6.307  11.801   5.949  0.0355 -0.0381 -2.2875
15249SOL     OW55676   2.042   2.018  12.804 -0.5714  0.1386 -0.3110
15249SOL    HW155677   1.962   2.019  12.752  0.5181  0.4183 -2.0792
15249SOL    HW255678   2.053   2.108  12.833 -1.3933 -0.0979  0.7799
15250SOL     OW55679  13.176   6.353   7.014  0.0106  0.2045  0.0542
15250SOL    HW155680  13.191   6.262   6.989 -1.0724  0.5917 -2.2939
15250SOL    HW255681  13.139   6.348   7.102 -1.3588 -1.7571 -0.5657
15251SOL     OW55682   3.833   1.537   9.368 -0.2574 -0.2515 -0.4117
15251SOL    HW155683   3.838   1.445   9.391  2.1376  0.1762  1.2190
15251SOL    HW255684   3.818   1.582   9.451  0.9776  0.9170 -0.7751
15252SOL     OW55685   2.430   4.801   8.342 -0.4630 -0.6856 -0.1690
15252SOL    HW155686   2.342   4.784   8.308 -0.5663 -1.0756  0.2801
15252SOL    HW255687   2.429   4.765   8.430 -0.7280  1.7587  0.9123
15253SOL     OW55688   8.475   6.458  12.812  0.1726 -0.1832  0.0615
15253SOL    HW155689   8.443   6.420  12.893  0.8227  0.0611  0.4397
15253SOL    HW255690   8.524   6.388  12.769  1.7919  0.3250  0.9930
15254SOL     OW55691  12.072   5.391   9.092  0.5277 -0.0572  0.6463
15254SOL    HW155692  12.132   5.459   9.062  0.8810 -0.6474 -0.0129
15254SOL    HW255693  12.118   5.308   9.075 -0.6280 -0.5461 -0.2915
15255SOL     OW55694   1.138   3.070   6.558  0.2080 -0.2016 -0.0080
15255SOL    HW155695   1.194   3.096   6.485  3.2851 -1.3476  1.7913
15255SOL    HW255696   1.130   3.149   6.611  0.5315 -0.1661 -0.0121
15256SOL     OW55697   5.794   1.700   6.884 -0.2314 -0.2148 -0.0662
15256SOL    HW155698   5.717   1.644   6.872 -0.5760  0.4401 -1.0500
15256SOL    HW255699   5.827   1.677   6.971 -0.3493 -1.9372 -0.4376
15257SOL     OW55700   5.223   8.099   1.086  0.0944 -0.7218  0.1649
15257SOL    HW155701   5.304   8.067   1.126  0.1098  0.3539  1.0198
15257SOL    HW255702   5.155   8.078   1.150 -0.4058 -2.0164 -0.7361
15258SOL     OW55703   4.322   7.510   3.961 -0.3329 -0.4464  0.0281
15258SOL    HW155704   4.243   7.563   3.950  0.0095 -0.0889 -0.8177
15258SOL    HW255705   4.359   7.503   3.872  2.0530  1.6802  0.7258
15259SOL     OW55706  11.787   6.996   7.815 -0.2141  0.2446  0.4242
15259SOL    HW155707  11.840   7.044   7.751  0.8044 -1.0420  0.2530
15259SOL    HW255708  11.727   6.944   7.762  1.0208 -1.2676  0.4303
15260SOL     OW55709  10.079  12.540  11.767 -0.0051  0.1357  0.0009
15260SOL    HW155710  10.169  12.560  11.792  0.5201 -0.8865 -0.9904
15260SOL    HW255711  10.078  12.446  11.752 -0.6076  0.4600 -2.3975
15261SOL     OW55712  11.535  12.363   9.149  0.3162 -0.3272 -0.3498
15261SOL    HW155713  11.620  12.332   9.181  0.1828 -1.0577 -0.6868
15261SOL    HW255714  11.522  12.318   9.066  0.0459  0.5354 -0.7884
15262SOL     OW55715   2.987   6.366   2.938  0.1391  0.1099  0.4113
15262SOL    HW155716   2.951   6.348   2.851  0.6517  0.7655  0.0550
15262SOL    HW255717   3.020   6.282   2.969  1.9428  0.2536 -0.9630
15263SOL     OW55718  11.598   5.325   1.161  0.2132 -0.3271  0.4577
15263SOL    HW155719  11.661   5.397   1.153 -0.6458  0.2614 -1.9715
15263SOL    HW255720  11.651   5.246   1.159  1.0626  0.1856  1.6344
15264SOL     OW55721   8.574  11.703   8.052  0.4361  0.2829 -0.5882
15264SOL    HW155722   8.639  11.689   7.983  2.2597  2.1204  0.6478
15264SOL    HW255723   8.541  11.792   8.035 -0.7007 -0.0672 -0.3151
15265SOL     OW55724  12.292   6.077   5.806  0.0642  0.3175  0.1434
15265SOL    HW155725  12.250   6.143   5.751  0.7461 -0.5323 -1.4686
15265SOL    HW255726  12.222   6.048   5.865 -1.4030 -0.3432 -1.7919
15266SOL     OW55727   2.768   8.403  12.106 -0.4809 -0.1332 -0.3037
15266SOL    HW155728   2.721   8.369  12.182  0.9347 -1.0882  0.1996
15266SOL    HW255729   2.858   8.416  12.138 -0.3133  1.4115 -1.2723
15267SOL     OW55730  12.351   4.864   2.793 -0.2736  0.0164 -0.2036
15267SOL    HW155731  12.265   4.888   2.829 -0.1338  0.6377 -0.2802
15267SOL    HW255732  12.410   4.869   2.868 -0.7201 -3.0175  0.5050
15268SOL     OW55733  11.371  10.809   3.923 -0.1930  0.2939  0.2359
15268SOL    HW155734  11.292  10.816   3.976 -1.4383  1.2469 -1.6110
15268SOL    HW255735  11.357  10.872   3.852  2.1417  0.3213 -0.2736
15269SOL     OW55736  11.830  10.313   3.762 -0.0477 -0.8822 -0.2468
15269SOL    HW155737  11.877  10.388   3.798 -2.3542  1.4639 -1.7574
15269SOL    HW255738  11.769  10.288   3.831  0.1697 -0.8166 -0.0303
15270SOL     OW55739  12.644   2.351   1.873 -0.5228 -0.2087 -0.6103
15270SOL    HW155740  12.675   2.266   1.904 -1.0906 -0.3426 -0.4104
15270SOL    HW255741  12.722   2.407   1.879  0.0064 -0.8403 -1.2874
15271SOL     OW55742   2.969   1.200   7.704 -0.0759 -0.1853  0.6447
15271SOL    HW155743   3.034   1.204   7.634 -1.0923 -0.7814 -0.3561
15271SOL    HW255744   2.991   1.274   7.760  0.1049  0.9855 -0.8996
15272SOL     OW55745   3.629   8.988   4.134  0.0389 -0.2001 -0.0343
15272SOL    HW155746   3.586   8.983   4.049  0.1157 -1.8969 -0.0071
15272SOL    HW255747   3.566   8.952   4.195  0.8812 -1.3072  0.2271
15273SOL     OW55748   6.649  13.200  10.418  0.1294  0.0418  0.0763
15273SOL    HW155749   6.590  13.130  10.390  0.2518 -0.2305  0.4906
15273SOL    HW255750   6.715  13.157  10.472  0.8576  0.3101 -0.5806
15274SOL     OW55751   2.784   6.996  11.051 -0.9063 -0.2191  0.6106
15274SOL    HW155752   2.779   6.934  11.123  0.4883 -0.8333  0.1977
15274SOL    HW255753   2.705   7.050  11.061 -0.6808 -0.1929  2.6721
15275SOL     OW55754   7.991   5.942   6.543 -0.2930  0.1097  0.5545
15275SOL    HW155755   7.900   5.921   6.523 -0.8848  2.6800  0.1964
15275SOL    HW255756   8.039   5.914   6.465 -1.0512  0.3525 -0.0164
15276SOL     OW55757  10.658   4.625   2.483 -0.1814  0.2113 -0.3009
15276SOL    HW155758  10.658   4.628   2.388  1.6793  0.8382 -0.3043
15276SOL    HW255759  10.707   4.547   2.506  0.1514  0.5414  0.1432
15277SOL     OW55760   5.938   2.060   7.385 -0.8959  0.0808 -0.4053
15277SOL    HW155761   5.918   1.981   7.333  0.1758  0.4027 -1.3565
15277SOL    HW255762   5.908   2.132   7.330  1.5707  0.5012 -1.2911
15278SOL     OW55763   1.011   0.133  11.495  0.1545 -0.3296 -0.1939
15278SOL    HW155764   1.035   0.226  11.497  0.7336 -0.4572 -0.9110
15278SOL    HW255765   1.066   0.093  11.562  1.0238 -0.3995 -0.9263
15279SOL     OW55766   2.821   0.118   2.327  0.0700 -0.0265 -0.3475
15279SOL    HW155767   2.845   0.178   2.257  1.5142 -0.6387 -0.4054
15279SOL    HW255768   2.780   0.044   2.283 -0.2426  0.1867 -0.4174
15280SOL     OW55769   2.622  12.006  11.704 -0.0821 -0.5299  0.0260
15280SOL    HW155770   2.631  12.028  11.797  1.1552  0.4243 -0.2906
15280SOL    HW255771   2.684  11.934  11.691  1.0691  0.5079 -0.4083
15281SOL     OW55772   1.989   3.429  10.730 -0.1200 -0.4815  0.3634
15281SOL    HW155773   1.999   3.386  10.815 -0.4295  2.6700  2.1632
15281SOL    HW255774   1.917   3.382  10.688 -0.9022 -1.2709  2.4572
15282SOL     OW55775   9.412   3.173   4.247  0.2322 -0.0488  0.8906
15282SOL    HW155776   9.492   3.192   4.198  1.1884  0.5052  2.5885
15282SOL    HW255777   9.417   3.079   4.265 -0.8907 -0.5916 -1.2975
15283SOL     OW55778   6.480   6.160  10.823 -0.0033 -0.2323 -0.1220
15283SOL    HW155779   6.494   6.173  10.729  0.0033 -1.3184 -0.2816
15283SOL    HW255780   6.426   6.082  10.829 -1.2341  0.6571  0.7390
15284SOL     OW55781   4.121   4.860   6.450  0.1100 -0.4516  0.0052
15284SOL    HW155782   4.134   4.893   6.539  0.1971 -1.3412  0.3403
15284SOL    HW255783   4.137   4.935   6.393 -1.4394  0.5373  0.7947
15285SOL     OW55784   3.009   2.362   0.882 -0.1258 -0.0213  0.1616
15285SOL    HW155785   2.919   2.382   0.907 -0.1966  1.6259 -1.2304
15285SOL    HW255786   3.063   2.403   0.950 -0.3969  1.0564 -0.2541
15286SOL     OW55787   1.301   0.466   7.488  0.0931 -0.1934 -0.2026
15286SOL    HW155788   1.271   0.398   7.429  1.7062 -0.1214 -1.1386
15286SOL    HW255789   1.302   0.546   7.435  0.3375  0.1303  0.2769
15287SOL     OW55790   2.650  10.697   7.883 -1.0574 -0.0141  0.2956
15287SOL    HW155791   2.618  10.755   7.952 -0.4065 -2.0105  2.3798
15287SOL    HW255792   2.638  10.609   7.918 -1.2026 -1.1626 -2.4016
15288SOL     OW55793   2.997   7.771   5.981 -0.4780 -0.4475  0.2366
15288SOL    HW155794   2.911   7.732   5.994 -0.2196 -1.4846 -0.9632
15288SOL    HW255795   2.981   7.865   5.983 -1.5273 -0.6192  0.6988
15289SOL     OW55796   1.494   1.510   8.249 -0.0842 -0.3589 -0.3471
15289SOL    HW155797   1.423   1.490   8.189  0.1930 -1.5534 -0.2946
15289SOL    HW255798   1.503   1.432   8.303  1.7720 -0.5440 -0.8458
15290SOL     OW55799  11.532   3.600  11.955 -0.3861 -0.6784 -0.5183
15290SOL    HW155800  11.622   3.592  11.923 -0.2767 -2.6373  0.1500
15290SOL    HW255801  11.539   3.591  12.050 -0.8923  3.4209  0.1059
15291SOL     OW55802   9.281   3.711   0.709  0.1453  0.8147  0.0465
15291SOL    HW155803   9.271   3.717   0.614 -0.4620 -0.7016 -0.0150
15291SOL    HW255804   9.375   3.700   0.723  0.0843 -0.7059 -0.5313
15292SOL     OW55805   3.665  12.347   9.038  0.0520 -0.4464  0.1982
15292SOL    HW155806   3.645  12.254   9.045  2.6350 -0.9176  2.9728
15292SOL    HW255807   3.608  12.389   9.102 -0.6716 -0.1313 -0.6216
15293SOL     OW55808   3.782   6.842   5.258 -0.4763  0.2532 -0.1088
15293SOL    HW155809   3.751   6.752   5.272  1.9092 -0.5268  0.6421
15293SOL    HW255810   3.838   6.860   5.333  1.0582  1.4498 -1.4657
15294SOL     OW55811   4.250  13.009  11.867 -0.1416 -0.1267  0.1808
15294SOL    HW155812   4.195  12.931  11.866  0.4930 -0.5837  0.1153
15294SOL    HW255813   4.210  13.068  11.804 -0.4963 -0.4887  0.0624
15295SOL     OW55814   2.306   4.396  11.540  0.4034 -0.3358 -0.2174
15295SOL    HW155815   2.312   4.439  11.626  1.2564  0.1734 -0.5220
15295SOL    HW255816   2.334   4.463  11.478  0.3556 -0.8905 -0.8413
15296SOL     OW55817  10.990  10.181  11.492 -0.6776  0.4080 -0.0088
15296SOL    HW155818  10.900  10.212  11.493 -0.3353  1.4468 -0.6532
15296SOL    HW255819  11.007  10.156  11.583 -0.9838  2.0575  0.5275
15297SOL     OW55820   3.432   9.412   0.713 -0.0602 -0.0542 -0.5165
15297SOL    HW155821   3.431   9.339   0.651  1.2644 -0.5849  0.0486
15297SOL    HW255822   3.479   9.482   0.668  0.4446 -0.2598 -0.3163
15298SOL     OW55823  13.150   2.152   1.396 -0.7472  0.1906 -0.3861
15298SOL    HW155824  13.144   2.219   1.328 -0.3596 -0.0307 -0.6446
15298SOL    HW255825  13.064   2.110   1.397 -0.8770  0.4504 -0.4664
15299SOL     OW55826   6.444   4.716  10.443  0.4594  0.0816  0.2951
15299SOL    HW155827   6.362   4.761  10.422 -0.1989  0.0243  2.5063
15299SOL    HW255828   6.459   4.659  10.367 -2.4294 -1.1145  0.4685
15300SOL     OW55829   4.018   9.666   8.003  0.6290  0.5725 -0.0432
15300SOL    HW155830   4.038   9.592   8.059  0.2684  2.2735  2.5317
15300SOL    HW255831   4.074   9.656   7.927  0.6441 -2.2376  0.2536
15301SOL     OW55832   7.695   3.218   1.275  0.1193  0.5703  0.2565
15301SOL    HW155833   7.678   3.229   1.182  1.4560 -3.1324 -0.6000
15301SOL    HW255834   7.791   3.222   1.282  0.0501  0.5117  1.3975
15302SOL     OW55835   5.051  11.142   7.965 -0.2669  0.0763  0.4097
15302SOL    HW155836   5.143  11.162   7.949  0.1138 -1.2410  0.8470
15302SOL    HW255837   5.004  11.217   7.929  0.9115  0.3118 -0.7228
15303SOL     OW55838  10.624   3.619   6.610  0.1720 -0.1602 -0.0023
15303SOL    HW155839  10.584   3.702   6.635  0.7295  0.1130 -0.0050
15303SOL    HW255840  10.573   3.590   6.535  0.8809  0.9030 -0.9170
15304SOL     OW55841   2.009   4.612   7.309  0.0829  0.5640 -0.0303
15304SOL    HW155842   2.020   4.631   7.216  0.2446  0.8720  0.0509
15304SOL    HW255843   2.096   4.625   7.346  0.5931 -1.8479 -0.2376
15305SOL     OW55844  10.052   8.268   4.954  0.4450  0.7017  0.0630
15305SOL    HW155845  10.122   8.300   5.010  1.2752 -2.1920  0.8799
15305SOL    HW255846  10.087   8.188   4.915 -2.0272 -0.2991 -0.3330
15306SOL     OW55847   3.937  12.123   8.990 -0.0140  0.3139  0.1238
15306SOL    HW155848   3.877  12.172   8.934 -1.2541 -1.4247 -0.1414
15306SOL    HW255849   3.881  12.078   9.053  1.1858  0.3673  1.2745
15307SOL     OW55850   0.395   3.086   4.419  0.2757 -0.5813  0.1934
15307SOL    HW155851   0.477   3.094   4.369 -0.0615  2.1014 -0.0677
15307SOL    HW255852   0.389   2.992   4.439  0.4649 -1.9440 -4.7155
15308SOL     OW55853  10.421   3.723   3.458 -0.0054  0.1137 -0.0987
15308SOL    HW155854  10.376   3.767   3.385 -1.3883  0.8659  1.1607
15308SOL    HW255855  10.410   3.782   3.532  0.1659 -1.2752  1.0765
15309SOL     OW55856   4.539   9.162   2.389 -0.2962  0.1259 -0.0577
15309SOL    HW155857   4.472   9.135   2.327 -1.1732  1.0092  0.4658
15309SOL    HW255858   4.490   9.208   2.458  0.9803  2.3604 -0.5374
15310SOL     OW55859   3.161   2.916   2.268  0.3322 -0.0016 -0.0695
15310SOL    HW155860   3.069   2.919   2.241 -0.0720 -2.2394  0.7723
15310SOL    HW255861   3.197   3.001   2.243 -1.0654 -0.2586 -3.5268
15311SOL     OW55862   6.079   8.144  12.371  0.0725  0.0174 -0.1599
15311SOL    HW155863   6.052   8.137  12.280  1.3392  0.1048 -0.5701
15311SOL    HW255864   6.135   8.222  12.373 -0.2715  0.2498  0.7785
15312SOL     OW55865  12.729   4.521   3.294 -0.2865 -0.2571 -0.5149
15312SOL    HW155866  12.684   4.605   3.298  0.2336 -0.0054  0.5400
15312SOL    HW255867  12.749   4.509   3.202 -0.3025  0.8185 -0.6720
15313SOL     OW55868   8.506   9.535  12.462  0.3862  0.1454 -0.4781
15313SOL    HW155869   8.520   9.481  12.384 -0.1610 -1.0596  0.2318
15313SOL    HW255870   8.588   9.528  12.511  0.1178 -0.5084 -0.1162
15314SOL     OW55871   7.600  10.214  12.456 -0.5862  0.0865  0.2292
15314SOL    HW155872   7.551  10.295  12.472  0.6600  0.3954  3.2432
15314SOL    HW255873   7.557  10.149  12.511  0.8906 -0.1895  1.1240
15315SOL     OW55874  12.046   6.665   8.353 -0.2017 -0.4679 -0.5033
15315SOL    HW155875  11.969   6.690   8.404  0.4341  1.4844 -0.4259
15315SOL    HW255876  12.080   6.588   8.398 -0.5081  0.3168  1.1434
15316SOL     OW55877  12.234  10.964   7.311  0.2840 -0.1634 -0.0778
15316SOL    HW155878  12.146  10.996   7.329 -0.0666 -1.4251  0.5168
15316SOL    HW255879  12.282  11.041   7.281 -1.0430  0.5178 -0.4972
15317SOL     OW55880   0.070   7.732   0.971 -0.4041  0.4501 -0.4297
15317SOL    HW155881  -0.003   7.792   0.986  0.0598  0.8597  0.2767
15317SOL    HW255882   0.108   7.718   1.058  0.0858 -0.1066 -0.7230
15318SOL     OW55883   3.718   2.378  11.127 -0.3281 -0.8374  0.2591
15318SOL    HW155884   3.772   2.302  11.105  1.9139  0.4776  0.8792
15318SOL    HW255885   3.705   2.423  11.043  0.5902 -0.5538  0.2516
15319SOL     OW55886  12.279   4.630   8.372  0.2106  0.1429  0.7370
15319SOL    HW155887  12.319   4.560   8.319  0.0569 -0.5986  1.5833
15319SOL    HW255888  12.286   4.708   8.317  1.1545 -0.3553  0.1114
15320SOL     OW55889   8.552  10.929  11.956 -0.1076  0.3292 -0.0417
15320SOL    HW155890   8.618  10.880  12.006 -0.3462  0.1900  0.1394
15320SOL    HW255891   8.480  10.941  12.018 -0.2633  0.4562 -0.2492
15321SOL     OW55892   0.861  12.218   3.242 -0.2767  0.0094  0.1127
15321SOL    HW155893   0.831  12.203   3.332  2.1559 -0.8370  0.8780
15321SOL    HW255894   0.931  12.283   3.251  0.2661 -0.3813 -1.0880
15322SOL     OW55895   2.439  11.002   6.735 -0.5125  0.2681  0.2716
15322SOL    HW155896   2.444  11.077   6.675 -0.5660  0.5917  0.6706
15322SOL    HW255897   2.345  10.991   6.752 -0.6165 -0.6929 -0.7842
15323SOL     OW55898  12.404   5.071   6.038 -0.3033 -0.3637 -0.0947
15323SOL    HW155899  12.367   5.014   5.971 -0.8484  0.8463 -0.8556
15323SOL    HW255900  12.332   5.086   6.099 -0.2003 -0.3841  0.0316
15324SOL     OW55901   5.061   1.200   8.500 -0.5328  0.0016  0.0128
15324SOL    HW155902   5.039   1.291   8.481 -0.8708  0.0206  0.4659
15324SOL    HW255903   5.155   1.194   8.486 -0.6657  0.1537 -1.0715
15325SOL     OW55904   9.108   0.752   1.412  0.1990  0.3155 -0.4151
15325SOL    HW155905   9.086   0.676   1.465 -0.1481  0.1598 -0.7762
15325SOL    HW255906   9.158   0.809   1.470  1.3758 -0.6558 -0.4365
15326SOL     OW55907   3.676  10.717   5.641 -0.4629  0.1046  0.1014
15326SOL    HW155908   3.649  10.779   5.709 -0.1565  0.0437  0.2791
15326SOL    HW255909   3.615  10.644   5.649 -0.4946  0.1457  0.2384
15327SOL     OW55910   3.334  12.308  11.090 -0.1124 -0.0547  0.3185
15327SOL    HW155911   3.297  12.385  11.133 -1.9123  0.3672 -1.8132
15327SOL    HW255912   3.299  12.234  11.139  0.8062  0.4122  1.7502
15328SOL     OW55913   6.540   7.890   9.819 -0.5706  0.3590 -0.1417
15328SOL    HW155914   6.543   7.796   9.837  1.0074  0.5256  0.6759
15328SOL    HW255915   6.549   7.897   9.724  1.0072 -0.2929 -0.0718
15329SOL     OW55916  10.053   7.010   7.773 -0.2969  0.0525  0.1651
15329SOL    HW155917  10.095   7.025   7.688  1.7252  0.9709  1.2691
15329SOL    HW255918  10.096   6.933   7.809  0.1717  0.7541  1.1389
15330SOL     OW55919   6.753   3.490   0.501 -0.0859  0.2311 -0.3190
15330SOL    HW155920   6.713   3.418   0.549 -1.1107  0.6954 -0.4546
15330SOL    HW255921   6.790   3.546   0.569 -2.0094  1.1709  0.0232
15331SOL     OW55922   0.477  13.263  12.919 -0.2347 -0.7941 -0.0982
15331SOL    HW155923   0.527  13.297  12.993  0.2832 -0.8368 -0.4301
15331SOL    HW255924   0.444  13.342  12.875 -0.2258 -0.7613 -0.0464
15332SOL     OW55925  10.130  10.567  10.771  0.1313  0.1489  1.0058
15332SOL    HW155926  10.101  10.654  10.799 -1.0219 -0.1922  0.9008
15332SOL    HW255927  10.225  10.569  10.784  0.1203  1.4080  1.0417
15333SOL     OW55928  12.763  11.159   2.772 -0.1793  0.1351 -0.2156
15333SOL    HW155929  12.742  11.075   2.812 -0.4790  0.2289 -0.1711
15333SOL    HW255930  12.764  11.140   2.678  0.8650 -0.1616 -0.1623
15334SOL     OW55931   9.574  10.848   3.377 -0.0725 -0.1769 -0.2024
15334SOL    HW155932   9.596  10.755   3.378 -0.3282 -0.2365  0.3511
15334SOL    HW255933   9.481  10.851   3.354 -0.3916 -0.1382  1.0488
15335SOL     OW55934   8.346  12.651   3.663  0.1766  0.2421 -0.1161
15335SOL    HW155935   8.363  12.590   3.736  0.6165  2.5477  1.8172
15335SOL    HW255936   8.410  12.721   3.674 -0.1530  1.0023 -2.4095
15336SOL     OW55937   4.150  12.593   4.564 -0.6406  0.1940 -0.3732
15336SOL    HW155938   4.090  12.632   4.627 -0.7813 -0.0106 -0.3804
15336SOL    HW255939   4.214  12.547   4.618  0.9539  2.4046 -0.2373
15337SOL     OW55940  10.873  11.695   5.774  0.3389  0.1596 -0.2957
15337SOL    HW155941  10.785  11.716   5.743 -0.3466 -0.9386  0.8295
15337SOL    HW255942  10.925  11.688   5.694 -1.4676 -2.9848 -1.3894
15338SOL     OW55943   3.486   5.362   4.360  0.0802 -0.1943  0.8442
15338SOL    HW155944   3.412   5.423   4.367 -0.5015 -1.0291  2.5922
15338SOL    HW255945   3.448   5.283   4.321  0.4602 -0.0325  0.1299
15339SOL     OW55946   7.433  13.303   7.069  0.0546 -0.1348 -0.8433
15339SOL    HW155947   7.508  13.338   7.116 -0.9478  0.3529  0.4624
15339SOL    HW255948   7.450  13.209   7.062  0.6750 -0.0657 -0.3424
15340SOL     OW55949   2.745   7.761  13.217 -0.3887  0.2172  0.1980
15340SOL    HW155950   2.728   7.672  13.187 -0.2045  0.1658  0.2422
15340SOL    HW255951   2.658   7.801  13.227 -0.4404  0.4042 -0.8812
15341SOL     OW55952   3.353   0.568   2.539 -0.3025 -0.1589 -0.0678
15341SOL    HW155953   3.287   0.546   2.474  1.1123  1.0092 -2.0208
15341SOL    HW255954   3.433   0.527   2.506  0.8471  1.9894 -0.1126
15342SOL     OW55955   2.367   0.581   5.557 -0.0197 -0.9808  0.2451
15342SOL    HW155956   2.418   0.597   5.477 -0.6618 -1.0095 -0.1728
15342SOL    HW255957   2.366   0.485   5.566 -0.3474 -0.9993  0.0237
15343SOL     OW55958   3.170   2.810   0.936  0.5171 -0.4989 -0.1203
15343SOL    HW155959   3.243   2.792   0.995  0.6010 -0.1164 -0.1054
15343SOL    HW255960   3.197   2.773   0.852  0.6196 -0.5799 -0.0518
15344SOL     OW55961   2.127   0.538   0.459  0.2671  0.5524 -0.1317
15344SOL    HW155962   2.200   0.524   0.399 -1.2936  0.3299 -2.0893
15344SOL    HW255963   2.114   0.453   0.502  1.4142  0.7237  0.6095
15345SOL     OW55964   0.503  12.956  11.325  0.8454 -0.0587 -0.2908
15345SOL    HW155965   0.430  12.980  11.268  1.9882  0.8023 -1.4542
15345SOL    HW255966   0.465  12.948  11.412 -0.5072  1.0412 -0.7621
15346SOL     OW55967  11.025   8.220  11.046  0.6546 -0.4491 -0.4347
15346SOL    HW155968  10.956   8.182  10.992 -1.0182  1.3969  0.2673
15346SOL    HW255969  11.029   8.164  11.124 -0.6011 -0.1692 -0.1551
15347SOL     OW55970   2.957   5.993   9.147 -0.3432  0.0133  0.4306
15347SOL    HW155971   3.023   6.007   9.080 -0.6941 -1.3016 -0.2116
15347SOL    HW255972   2.875   5.982   9.099 -0.8657  0.5459  1.1600
15348SOL     OW55973  11.533   3.918   7.283  0.4514  0.0156 -0.2373
15348SOL    HW155974  11.544   3.992   7.343  0.5004  0.8525 -1.2505
15348SOL    HW255975  11.575   3.946   7.201  0.2026 -1.0103 -0.7435
15349SOL     OW55976  12.615  11.561   8.717  0.2174  0.0233  0.3128
15349SOL    HW155977  12.556  11.578   8.644  2.0896  1.7969 -0.8591
15349SOL    HW255978  12.607  11.466   8.733 -1.1363 -0.1768 -1.3421
15350SOL     OW55979   4.595   2.077   3.138  0.1077  0.3381  0.2491
15350SOL    HW155980   4.639   2.137   3.078 -1.7712  0.8111 -0.7535
15350SOL    HW255981   4.622   1.990   3.110  0.1438  0.5986 -0.5423
15351SOL     OW55982  11.380   6.639  12.735  0.6160  1.2338 -0.0283
15351SOL    HW155983  11.466   6.600  12.755  0.2987  0.2887 -0.4790
15351SOL    HW255984  11.319   6.566  12.738 -0.4879  2.1327  1.9719
15352SOL     OW55985   2.687   6.189  13.244 -0.1442 -0.5773  0.4294
15352SOL    HW155986   2.643   6.253  13.187 -0.6564 -2.0802 -0.9439
15352SOL    HW255987   2.690   6.109  13.191  3.4274 -0.8434  0.7915
15353SOL     OW55988  11.669   9.630   4.036  0.1529  0.4134  0.0752
15353SOL    HW155989  11.746   9.680   4.064  1.0272 -0.4971 -0.6015
15353SOL    HW255990  11.633   9.594   4.117  1.9152 -1.1736  0.2428
15354SOL     OW55991   4.660   9.389   1.395  0.0588  0.3563  0.3718
15354SOL    HW155992   4.651   9.446   1.472 -0.7918 -1.2320  1.5209
15354SOL    HW255993   4.740   9.339   1.412 -1.5370 -1.9434  1.6736
15355SOL     OW55994  11.885   0.052   0.647 -0.0478 -0.1047 -0.5300
15355SOL    HW155995  11.795   0.035   0.675  0.0565 -0.6466 -0.5121
15355SOL    HW255996  11.890   0.147   0.639 -1.0588 -0.1465 -1.9662
15356SOL     OW55997   6.901   7.691   0.144 -0.3724 -0.0588  0.1811
15356SOL    HW155998   6.949   7.681   0.226 -2.0326 -2.4029  0.9761
15356SOL    HW255999   6.950   7.639   0.081 -1.1190 -1.4472  0.6956
15357SOL     OW56000  12.286   3.134   5.933 -0.2700 -0.0590 -0.6374
15357SOL    HW156001  12.244   3.127   6.018  0.2333  0.3560 -0.3430
15357SOL    HW256002  12.215   3.151   5.872 -0.4351  1.9127  0.0346
15358SOL     OW56003   1.127   2.091   5.790  0.3493  0.4393  0.1651
15358SOL    HW156004   1.198   2.031   5.769  0.7209  0.6854  0.7004
15358SOL    HW256005   1.169   2.176   5.803 -0.0189  0.5592  0.6316
15359SOL     OW56006   0.045   8.618  12.615  0.0380  0.5592  0.0324
15359SOL    HW156007   0.022   8.532  12.580 -1.4799  0.8990  0.1439
15359SOL    HW256008   0.140   8.624  12.602  0.0845 -0.8852 -0.5029
15360SOL     OW56009   8.884  11.154   0.913  0.1767 -0.0986 -0.3496
15360SOL    HW156010   8.914  11.076   0.867  0.5369 -0.2538  0.1373
15360SOL    HW256011   8.891  11.131   1.006 -0.9943  0.0345 -0.2171
15361SOL     OW56012   6.446   2.428  13.243 -0.1767 -0.2455 -0.1625
15361SOL    HW156013   6.367   2.421  13.189  1.2157 -2.4133 -2.1232
15361SOL    HW256014   6.446   2.349  13.296  0.2842  0.1298  0.4068
15362SOL     OW56015   4.929  11.682   4.837  0.0122 -0.5158 -0.0391
15362SOL    HW156016   4.878  11.693   4.757 -1.1192 -1.4250  0.5248
15362SOL    HW256017   4.885  11.738   4.901  2.1285  1.8404 -0.5150
15363SOL     OW56018   2.410   8.538  10.923 -0.5506 -0.3790  0.1939
15363SOL    HW156019   2.324   8.579  10.918 -0.0852  0.6901  0.5994
15363SOL    HW256020   2.456   8.588  10.990  1.1656  0.5374 -1.5752
15364SOL     OW56021   8.903  10.673   4.939 -0.2382 -0.2851  0.4135
15364SOL    HW156022   8.883  10.706   5.026  0.1651  2.1037 -0.3086
15364SOL    HW256023   8.828  10.700   4.886  0.1546 -0.4517 -0.2359
15365SOL     OW56024   7.374  10.345  10.804 -0.0510  0.1787  0.1324
15365SOL    HW156025   7.468  10.329  10.801 -0.1854 -0.7604  0.6930
15365SOL    HW256026   7.365  10.436  10.775  0.9993  0.1967 -0.1917
15366SOL     OW56027   5.647   6.317   6.762  0.3941  0.0564  0.1570
15366SOL    HW156028   5.615   6.366   6.685  0.5304  0.1215  0.1426
15366SOL    HW256029   5.726   6.274   6.732 -0.2817 -1.0281 -0.1376
15367SOL     OW56030  10.112   2.463   5.529 -0.3797  0.1946  0.1245
15367SOL    HW156031  10.059   2.472   5.608  1.3391  1.3566  1.2116
15367SOL    HW256032  10.130   2.552   5.502  1.3008 -0.1399  0.0273
15368SOL     OW56033   0.059   2.788  12.163  0.6347  0.2585  0.1450
15368SOL    HW156034   0.129   2.838  12.207  1.6292 -2.1171  1.4908
15368SOL    HW256035   0.088   2.782  12.072  1.5140  0.4429  0.3985
15369SOL     OW56036  10.357   1.193  11.401  0.2574  0.3883  0.2729
15369SOL    HW156037  10.405   1.248  11.340  0.8165  0.2531  0.5842
15369SOL    HW256038  10.385   1.223  11.488 -0.3063  0.3854  0.4601
15370SOL     OW56039   0.040  10.314   1.491  0.5756  0.3207  0.1585
15370SOL    HW156040   0.062  10.346   1.578  0.7507 -0.4321  0.3998
15370SOL    HW256041   0.014  10.223   1.504  0.7082  0.1632 -0.5910
15371SOL     OW56042   6.730  12.709   9.280 -0.1756  0.1958 -0.5124
15371SOL    HW156043   6.755  12.753   9.361  0.3857  1.1507 -1.1812
15371SOL    HW256044   6.798  12.644   9.265 -0.0164  0.3526 -0.4686
15372SOL     OW56045   4.955   9.359   9.448  0.2477 -0.0348 -0.3192
15372SOL    HW156046   5.003   9.400   9.376 -0.3812  2.1362  0.4372
15372SOL    HW256047   4.908   9.286   9.407  2.1107 -0.6128 -1.5458
15373SOL     OW56048   7.488  11.615   1.332  0.4643  0.2336 -0.1793
15373SOL    HW156049   7.563  11.606   1.273  1.0449  0.3536  0.5263
15373SOL    HW256050   7.492  11.705   1.363  1.5458 -0.4341  1.8174
15374SOL     OW56051  10.607   0.071   4.878  0.4898  0.2997  0.2591
15374SOL    HW156052  10.658   0.134   4.826 -0.4105  0.2774 -0.6761
15374SOL    HW256053  10.528   0.119   4.902  0.6752  0.1433  1.2059
15375SOL     OW56054   1.961   8.332   0.692  0.0348  0.2393  0.3146
15375SOL    HW156055   2.011   8.254   0.714  1.5645  1.8815  3.3428
15375SOL    HW256056   1.874   8.315   0.726 -0.0927 -0.7046 -0.4458
15376SOL     OW56057   7.506   0.112   5.294  0.7881  0.2143 -0.2206
15376SOL    HW156058   7.518   0.017   5.298  1.7143  0.3096 -0.4221
15376SOL    HW256059   7.560   0.140   5.220  1.0104  0.9638  0.2067
15377SOL     OW56060   5.241   6.968   2.272  0.1917  0.1206 -0.1413
15377SOL    HW156061   5.270   6.880   2.296 -0.5039 -0.2114 -0.4838
15377SOL    HW256062   5.280   7.026   2.338  2.1579 -0.2101 -0.9501
15378SOL     OW56063   1.911  11.488   9.359 -0.1903 -0.3355  0.7847
15378SOL    HW156064   1.832  11.460   9.314  0.0206  0.1043  0.1270
15378SOL    HW256065   1.980  11.485   9.292  0.6925 -2.1851  1.6900
15379SOL     OW56066   1.612   0.829   2.234 -0.1473  0.4338  0.0125
15379SOL    HW156067   1.642   0.873   2.314 -1.4165  1.2194  0.0881
15379SOL    HW256068   1.657   0.875   2.163  2.2146 -1.2728  0.2755
15380SOL     OW56069  11.134   3.553  11.052  0.7810 -0.1165  0.3198
15380SOL    HW156070  11.168   3.627  11.103 -1.1572  0.3215  1.0662
15380SOL    HW256071  11.079   3.505  11.114 -0.5733 -0.3240 -1.0016
15381SOL     OW56072   9.961   3.938   3.546 -0.0478 -0.0310  0.0614
15381SOL    HW156073   9.873   3.943   3.581 -0.2479  0.0323 -0.4405
15381SOL    HW256074  10.003   3.867   3.594  0.6776  1.9515  2.5968
15382SOL     OW56075   4.087   8.220  12.948  0.0800  0.1010  0.2885
15382SOL    HW156076   4.126   8.149  12.898 -0.4261 -0.7558  1.0789
15382SOL    HW256077   3.994   8.218  12.925 -0.3035 -0.7853  1.7747
15383SOL     OW56078   1.634   6.640   8.742 -0.3994 -0.2798  0.2428
15383SOL    HW156079   1.648   6.587   8.820  2.0034 -0.3246 -0.1488
15383SOL    HW256080   1.561   6.698   8.765  0.3030 -0.2107  2.5521
15384SOL     OW56081  10.530   4.086  10.980  0.1415 -0.0088  0.2934
15384SOL    HW156082  10.469   4.013  10.989 -0.6232  0.6237  0.2916
15384SOL    HW256083  10.521   4.137  11.060  0.5996  0.1469  0.2538
15385SOL     OW56084   1.227   4.338   1.983 -0.2679 -0.7766 -0.1748
15385SOL    HW156085   1.296   4.314   2.044  1.1144  2.0160 -0.4891
15385SOL    HW256086   1.188   4.417   2.021 -1.2131 -0.5639 -1.5238
15386SOL     OW56087   4.343   8.184   7.909 -0.0552 -0.1979 -0.1506
15386SOL    HW156088   4.430   8.191   7.870  1.2806  1.2662  2.7983
15386SOL    HW256089   4.296   8.261   7.876  0.4832  0.1429 -0.1303
15387SOL     OW56090   1.002   6.183   8.229  0.2270  0.1320 -0.4234
15387SOL    HW156091   0.962   6.157   8.312 -2.1471  2.5502 -0.6660
15387SOL    HW256092   0.974   6.117   8.167  1.4509 -1.3195  0.5037
15388SOL     OW56093   1.507   2.971  10.993  0.2439 -0.2976 -0.1958
15388SOL    HW156094   1.564   2.921  10.935 -0.1595 -0.1826 -0.6920
15388SOL    HW256095   1.430   2.991  10.941 -0.7198 -1.3101  0.7824
15389SOL     OW56096   3.649   7.633   9.889 -0.8968  0.0237 -0.5585
15389SOL    HW156097   3.585   7.597   9.950 -2.4571  1.1806 -1.4404
15389SOL    HW256098   3.669   7.561   9.830 -0.6172 -0.6332  0.3246
15390SOL     OW56099  11.600   4.784  11.596 -0.0449  0.4949  0.2451
15390SOL    HW156100  11.656   4.858  11.621 -0.2727  0.5658  0.5434
15390SOL    HW256101  11.541   4.772  11.670 -2.2957  2.1953 -1.1510
15391SOL     OW56102   3.974   6.522  11.755  0.5168 -0.5211  0.5848
15391SOL    HW156103   4.014   6.510  11.669  2.4902 -1.4144  1.5777
15391SOL    HW256104   3.939   6.611  11.753 -1.0611 -1.0920 -1.7239
15392SOL     OW56105   0.675   0.549   0.976 -0.1784 -0.0824  0.2008
15392SOL    HW156106   0.712   0.634   0.952 -0.3870 -0.1420 -0.3512
15392SOL    HW256107   0.721   0.524   1.057 -1.4528  1.4430  1.4630
15393SOL     OW56108   1.023   5.342  13.183 -0.0176  0.4585 -0.1393
15393SOL    HW156109   1.036   5.317  13.274  1.2627  0.1320 -0.4037
15393SOL    HW256110   0.961   5.415  13.188 -0.2536  0.2078  0.9559
15394SOL     OW56111  10.434  11.677  10.743  0.1483  0.3961 -0.3613
15394SOL    HW156112  10.528  11.692  10.752 -0.0763  1.0586  1.0180
15394SOL    HW256113  10.396  11.764  10.735 -0.4484  0.1838  0.1141
15395SOL     OW56114   1.176   6.244   6.620 -0.6852 -0.4281  0.0422
15395SOL    HW156115   1.151   6.301   6.693  1.0381 -3.0472  2.9200
15395SOL    HW256116   1.257   6.283   6.586  0.5609 -1.0802  2.0714
15396SOL     OW56117   2.616   3.440   3.099 -0.3974 -0.4994 -0.2390
15396SOL    HW156118   2.617   3.408   3.008  0.8451  0.3078 -0.5369
15396SOL    HW256119   2.657   3.370   3.149  1.5267  0.1904 -0.7598
15397SOL     OW56120   4.986   6.636   1.470 -0.0235 -0.2147 -0.7608
15397SOL    HW156121   4.906   6.689   1.459  0.6224  0.8442 -0.5452
15397SOL    HW256122   5.022   6.627   1.382  1.3465  2.1618 -0.5510
15398SOL     OW56123   3.452   6.978  11.874  0.2922  0.2297 -0.2048
15398SOL    HW156124   3.525   6.995  11.933 -0.5204  0.0830  0.8768
15398SOL    HW256125   3.460   7.045  11.806  1.2898  0.3576  0.0177
15399SOL     OW56126  13.036   4.224  10.920 -0.1857  0.2073 -0.0931
15399SOL    HW156127  13.021   4.316  10.944  1.4266  0.3038  0.7033
15399SOL    HW256128  13.028   4.176  11.002  0.0384 -0.2172 -0.3132
15400SOL     OW56129   8.458   6.756  10.461  0.5968 -0.0968 -0.5109
15400SOL    HW156130   8.398   6.830  10.455  0.8262  0.0185 -1.4703
15400SOL    HW256131   8.405   6.681  10.433  0.2998 -0.3535  0.6633
15401SOL     OW56132  13.075   8.304  10.723 -0.4335  0.1308  0.0517
15401SOL    HW156133  13.109   8.222  10.759 -0.6065  0.5095  1.0924
15401SOL    HW256134  13.149   8.340  10.674 -0.0975 -0.2467  0.2726
15402SOL     OW56135  12.421   9.268  10.885  0.6617 -0.1732  0.1020
15402SOL    HW156136  12.334   9.306  10.877  0.6129 -0.2549  0.2453
15402SOL    HW256137  12.406   9.173  10.880  0.5368 -0.2850  1.9360
15403SOL     OW56138   7.424   5.777   1.301 -0.4672  0.4473 -0.6015
15403SOL    HW156139   7.394   5.782   1.210 -1.2328  1.6295 -0.3191
15403SOL    HW256140   7.464   5.862   1.318  0.7570 -0.1906 -0.1706
15404SOL     OW56141   7.133  11.301   0.628 -0.3989 -0.2881  0.2105
15404SOL    HW156142   7.221  11.305   0.590 -0.4424 -0.0048  0.1370
15404SOL    HW256143   7.076  11.285   0.553 -0.5614  0.9860  0.0385
15405SOL     OW56144   7.973   0.017   3.778  0.1078 -0.0740 -0.1121
15405SOL    HW156145   8.015  -0.048   3.723  0.8059  0.6080 -0.3912
15405SOL    HW256146   7.954   0.090   3.720  2.2260  1.2982  0.7894
15406SOL     OW56147  12.363   3.741   5.584 -0.0304  0.0017  0.1627
15406SOL    HW156148  12.357   3.730   5.489 -0.6384 -0.9989  0.2969
15406SOL    HW256149  12.286   3.792   5.608  0.1828  0.3496  0.1052
15407SOL     OW56150  10.095   7.183   8.718  0.2898 -0.0572 -0.7486
15407SOL    HW156151  10.145   7.201   8.638 -0.7084 -0.8417 -1.5944
15407SOL    HW256152  10.018   7.240   8.712 -0.3585 -0.9232 -0.9413
15408SOL     OW56153   9.310  13.130   7.857 -0.0368 -0.8269  0.7381
15408SOL    HW156154   9.373  13.189   7.817  0.1837 -1.1240  0.6385
15408SOL    HW256155   9.224  13.163   7.829  0.0555 -0.1703  1.2242
15409SOL     OW56156  10.633   7.818   2.589 -0.0206 -0.0251 -0.1156
15409SOL    HW156157  10.705   7.759   2.569 -0.8602 -0.6906 -1.2595
15409SOL    HW256158  10.593   7.780   2.667 -0.1918 -0.6444 -0.4957
15410SOL     OW56159  12.443   0.831  12.384  0.4334 -0.0084  0.4324
15410SOL    HW156160  12.431   0.894  12.314  0.6095 -2.7229 -2.2274
15410SOL    HW256161  12.537   0.833  12.403  0.3841  0.7240  0.6143
15411SOL     OW56162  11.607  10.653   1.205  0.3029 -0.2057  0.3615
15411SOL    HW156163  11.629  10.651   1.112  0.9867  0.7213  0.4927
15411SOL    HW256164  11.682  10.610   1.248  0.9803  1.2061  0.6419
15412SOL     OW56165   8.184  12.296   8.468 -0.1220  0.2115 -0.2073
15412SOL    HW156166   8.208  12.222   8.522 -0.2684 -0.5680 -1.1816
15412SOL    HW256167   8.262  12.314   8.416 -0.9237 -1.0448 -1.9396
15413SOL     OW56168  12.446   0.896   0.078 -0.4746 -0.3015 -0.2127
15413SOL    HW156169  12.509   0.830   0.107  0.6840  1.1772  0.8133
15413SOL    HW256170  12.361   0.858   0.099  0.1521 -1.4684  0.3605
15414SOL     OW56171   4.739   9.359  10.578 -0.2298 -0.9991 -0.3359
15414SOL    HW156172   4.832   9.351  10.597 -0.4980  0.6319  2.1298
15414SOL    HW256173   4.722   9.453  10.580 -2.0454 -1.2893  0.0255
15415SOL     OW56174   0.202   6.056   9.949  0.2665  0.9602 -0.3873
15415SOL    HW156175   0.289   6.019   9.964  0.2943  0.8525 -0.8117
15415SOL    HW256176   0.218   6.149   9.937  0.2019  1.1109  0.6365
15416SOL     OW56177   5.551   0.876  12.361 -0.1730  0.9648  0.7534
15416SOL    HW156178   5.630   0.841  12.401 -1.0285  0.6522  2.2469
15416SOL    HW256179   5.538   0.823  12.282  0.6332  0.4658  0.9450
15417SOL     OW56180   6.324   4.274   3.983 -0.4025 -0.1110 -0.0093
15417SOL    HW156181   6.353   4.229   4.062  0.4398 -1.2070 -0.8946
15417SOL    HW256182   6.327   4.367   4.005  0.4088 -0.3661  1.0516
15418SOL     OW56183   2.948   7.164   2.708  0.5791 -0.4084 -0.3585
15418SOL    HW156184   3.000   7.132   2.635  0.3828  0.3371 -0.8362
15418SOL    HW256185   2.983   7.251   2.727 -0.6304  0.2168 -0.8582
15419SOL     OW56186   7.412   4.828  11.230 -0.2479 -0.0092 -0.3129
15419SOL    HW156187   7.328   4.786  11.249  0.8952 -1.4525  2.1191
15419SOL    HW256188   7.390   4.921  11.219 -2.0735 -0.1600  1.3623
15420SOL     OW56189   2.160  12.042  13.042 -0.2863  0.1231 -0.0864
15420SOL    HW156190   2.134  11.986  12.969  0.1736 -1.3597  0.8406
15420SOL    HW256191   2.079  12.086  13.067 -0.4335  0.7117 -1.5187
15421SOL     OW56192   6.372  12.403   5.173 -0.3825 -0.3263 -0.2261
15421SOL    HW156193   6.448  12.353   5.200 -0.6068 -1.8385 -2.1193
15421SOL    HW256194   6.302  12.375   5.233 -0.1957 -1.3857 -0.4738
15422SOL     OW56195  10.358   7.589  13.207 -0.3616  0.3467  0.1013
15422SOL    HW156196  10.300   7.518  13.234 -0.6531  0.0595 -1.2181
15422SOL    HW256197  10.426   7.592  13.275 -1.4994  0.2240  1.2967
15423SOL     OW56198   0.346  13.040   6.390  0.2060  0.0955  0.4528
15423SOL    HW156199   0.329  12.955   6.351  2.7170  0.4379 -1.6120
15423SOL    HW256200   0.381  13.020   6.477  0.9434 -1.0102 -0.0768
15424SOL     OW56201   9.566   7.283   7.175  0.0674 -0.2758  0.2601
15424SOL    HW156202   9.603   7.195   7.182 -0.8109 -0.5831  1.3946
15424SOL    HW256203   9.574   7.319   7.264 -1.4777 -0.0028  0.3100
15425SOL     OW56204   5.251   9.657   8.240  0.2783  0.1697 -0.1160
15425SOL    HW156205   5.262   9.749   8.265 -1.6188  0.2898  0.4002
15425SOL    HW256206   5.279   9.654   8.148  1.1340  1.0655  0.0907
15426SOL     OW56207   6.846  12.749  11.909 -0.2538  0.0699  0.0925
15426SOL    HW156208   6.798  12.673  11.942  0.7699  0.1881  2.0458
15426SOL    HW256209   6.933  12.741  11.949  0.6083  1.0842 -1.4820
15427SOL     OW56210   1.449   7.937   1.597 -0.8588 -0.7115  0.1818
15427SOL    HW156211   1.468   7.867   1.661  0.2780  0.9072  1.7128
15427SOL    HW256212   1.385   7.992   1.642 -0.5697  0.0779 -0.3749
15428SOL     OW56213  12.478   9.641   4.326 -0.4698  0.3648 -0.0179
15428SOL    HW156214  12.478   9.666   4.234 -1.5376  0.4431 -0.0100
15428SOL    HW256215  12.528   9.710   4.370  0.6098 -0.0209 -0.6103
15429SOL     OW56216   0.288   6.882   9.407  0.4361 -0.1864 -0.3747
15429SOL    HW156217   0.260   6.953   9.464 -1.0231  0.4288 -1.7662
15429SOL    HW256218   0.207   6.837   9.383  1.1009 -0.9372 -1.2871
15430SOL     OW56219   9.141   9.505   2.501 -0.1525 -0.3069 -0.3298
15430SOL    HW156220   9.216   9.460   2.463 -0.4000 -0.5444 -0.5347
15430SOL    HW256221   9.065   9.456   2.471 -0.3795 -0.1972  0.0550
15431SOL     OW56222   6.601   3.030   0.829 -0.3629 -0.0176 -0.7804
15431SOL    HW156223   6.508   3.035   0.853  0.1155 -0.2088  1.2940
15431SOL    HW256224   6.622   2.937   0.834  0.0377  0.0665 -0.8957
15432SOL     OW56225   6.457   6.627   6.063  0.1096 -0.1436 -0.2164
15432SOL    HW156226   6.433   6.642   5.972  0.8342 -2.3181 -0.8054
15432SOL    HW256227   6.550   6.606   6.061 -0.0006 -0.8431  0.9509
15433SOL     OW56228   7.450   3.246   2.508  0.0948 -0.0065 -0.4571
15433SOL    HW156229   7.370   3.234   2.457  1.2797  3.7541 -3.7215
15433SOL    HW256230   7.432   3.322   2.563  1.9904  2.7553 -3.2943
15434SOL     OW56231   0.249   8.243   2.821  0.3117  0.1608  0.1332
15434SOL    HW156232   0.287   8.193   2.893  1.1913  1.8165  0.8715
15434SOL    HW256233   0.243   8.180   2.749 -1.3657 -1.7705  1.8443
15435SOL     OW56234   4.795   8.530   9.041 -0.1251 -0.0929 -0.1792
15435SOL    HW156235   4.790   8.611   9.091  0.2262 -0.6631  0.8089
15435SOL    HW256236   4.768   8.555   8.952  1.1861  1.3776 -0.2174
15436SOL     OW56237   8.668   9.513   1.070 -0.2475 -0.1478 -0.1487
15436SOL    HW156238   8.671   9.500   0.975  0.9187  0.4222 -0.2019
15436SOL    HW256239   8.758   9.501   1.099 -0.1935  1.7161  0.6053
15437SOL     OW56240  11.635   4.449  11.478 -0.5932 -0.5743  0.1390
15437SOL    HW156241  11.653   4.543  11.481  0.2696 -0.7424  1.0398
15437SOL    HW256242  11.652   4.419  11.568 -0.0879 -1.7068 -0.3156
15438SOL     OW56243  12.835   8.051   0.329 -0.3067  0.0228  0.3350
15438SOL    HW156244  12.864   8.028   0.241  1.8396 -0.5269  1.1017
15438SOL    HW256245  12.847   8.146   0.334 -1.9014  0.2994 -0.4046
15439SOL     OW56246  10.255   3.367   2.373 -0.5350 -0.0574 -0.0311
15439SOL    HW156247  10.194   3.363   2.447  0.0662 -0.9467  0.4305
15439SOL    HW256248  10.262   3.276   2.343  2.0913 -0.3450  1.1953
15440SOL     OW56249   7.948   1.107   9.870 -0.3805 -0.5459  0.0230
15440SOL    HW156250   8.040   1.124   9.850 -1.0189 -0.0651 -2.9462
15440SOL    HW256251   7.937   1.136   9.961  1.8809  1.4741 -0.2668
15441SOL     OW56252  13.057  12.781   4.286 -0.4111 -0.5130  0.6246
15441SOL    HW156253  12.999  12.714   4.322 -0.4978  1.1047  3.8748
15441SOL    HW256254  13.057  12.851   4.352 -0.4700  2.8343 -2.5885
15442SOL     OW56255   3.572   4.599   6.250  0.0798 -0.5144 -0.0823
15442SOL    HW156256   3.582   4.663   6.178 -1.3982 -0.4260 -0.2385
15442SOL    HW256257   3.662   4.582   6.278  0.6087  0.5515 -0.9913
15443SOL     OW56258   6.015   2.878   6.700 -0.6963 -0.0309 -0.3174
15443SOL    HW156259   6.044   2.870   6.791  0.1315  0.3967 -0.5406
15443SOL    HW256260   5.921   2.856   6.703 -0.2442 -2.1605  0.3042
15444SOL     OW56261   3.629   7.004   3.862 -0.8654 -0.2548 -0.3080
15444SOL    HW156262   3.627   7.080   3.804  1.8796  0.2317  0.0829
15444SOL    HW256263   3.594   7.037   3.945  0.3820  0.6976 -0.1104
15445SOL     OW56264   8.658   7.644   3.722 -0.2708  0.0892  0.1463
15445SOL    HW156265   8.694   7.720   3.768  1.1833  0.5334 -1.6115
15445SOL    HW256266   8.599   7.682   3.657 -0.7380 -0.4063  0.2737
15446SOL     OW56267   7.800  11.441   9.117 -0.1681  0.8628  0.7235
15446SOL    HW156268   7.748  11.470   9.192 -0.1228  1.4377  0.5418
15446SOL    HW256269   7.874  11.395   9.155 -2.3252 -2.7676  0.9474
15447SOL     OW56270   0.074  13.281   5.781 -0.0981  0.0499 -0.0247
15447SOL    HW156271   0.090  13.370   5.814  0.6244 -0.3236  0.6537
15447SOL    HW256272   0.131  13.225   5.833  1.1683 -0.5658 -1.9605
15448SOL     OW56273   6.081  10.977   2.007 -0.0734  0.3783  0.5006
15448SOL    HW156274   5.989  10.962   1.985  0.3679 -0.4229 -0.9576
15448SOL    HW256275   6.088  11.072   2.017 -0.8371  0.5541 -0.4747
15449SOL     OW56276   1.015   1.500   9.163  0.1953 -0.1736  0.4958
15449SOL    HW156277   1.021   1.588   9.202  0.8425  0.1626 -0.3355
15449SOL    HW256278   1.089   1.496   9.103 -0.8873 -0.6066 -0.8490
15450SOL     OW56279   0.658   1.765  12.184 -0.2070 -0.2538 -0.6709
15450SOL    HW156280   0.653   1.860  12.196  0.5574 -0.2901 -0.0056
15450SOL    HW256281   0.598   1.729  12.249  0.4827 -0.2688 -0.0305
15451SOL     OW56282   9.336   9.141   6.324  0.4761 -0.3455  0.1510
15451SOL    HW156283   9.293   9.088   6.390  0.6180 -0.0528  0.4833
15451SOL    HW256284   9.320   9.096   6.241 -1.7538  0.5316  0.0424
15452SOL     OW56285   6.646   1.669   0.885  0.2391 -0.3313  0.0251
15452SOL    HW156286   6.575   1.679   0.948  0.2861  1.1218 -0.1213
15452SOL    HW256287   6.714   1.621   0.933 -0.3232 -0.5984  0.5701
15453SOL     OW56288  10.605   4.753   5.985 -0.2122  0.4491  0.1474
15453SOL    HW156289  10.531   4.810   6.008  0.4504  1.2773  0.2400
15453SOL    HW256290  10.681   4.793   6.027  0.3441 -0.2564 -0.1630
15454SOL     OW56291   0.113  11.497   7.208  0.2397 -0.4198 -0.3916
15454SOL    HW156292   0.131  11.500   7.302  0.8345 -1.4932 -0.4442
15454SOL    HW256293   0.175  11.432   7.175 -0.2797 -0.3888 -1.4541
15455SOL     OW56294   4.742  13.312  12.000  0.5023  0.3652 -0.5452
15455SOL    HW156295   4.771  13.229  12.038 -0.0641 -0.5546 -2.0596
15455SOL    HW256296   4.655  13.327  12.036  0.8217  0.5903  0.1463
15456SOL     OW56297  12.473  10.057  10.114 -0.6251  0.0879 -0.1329
15456SOL    HW156298  12.526  10.120  10.163 -1.5563  1.4222 -0.7689
15456SOL    HW256299  12.498   9.972  10.150 -0.2652  0.9016  1.6733
15457SOL     OW56300   1.217   8.971   9.733 -0.0960  0.8605  0.3390
15457SOL    HW156301   1.226   9.065   9.716  0.1788  0.8976  0.6917
15457SOL    HW256302   1.299   8.946   9.774 -1.1419  1.0092  2.6499
15458SOL     OW56303  11.174   5.568   7.452 -0.0053  0.2335  0.1451
15458SOL    HW156304  11.111   5.523   7.508  0.7312 -0.7225  0.2370
15458SOL    HW256305  11.187   5.652   7.494 -0.4860  0.0573  0.6592
15459SOL     OW56306   6.956   7.530  12.843  0.1451  0.2032 -0.3984
15459SOL    HW156307   7.003   7.448  12.837 -0.3524 -0.1046 -0.1788
15459SOL    HW256308   6.944   7.559  12.753 -2.9003 -1.8365 -0.7962
15460SOL     OW56309   2.764   8.037   8.004  0.6056 -0.1545  0.0389
15460SOL    HW156310   2.797   8.107   7.949  1.2124  0.8146  1.5789
15460SOL    HW256311   2.826   7.965   7.992  2.6736  1.1847  1.8742
15461SOL     OW56312   2.672   0.383   1.659  0.1547  0.2289  0.6070
15461SOL    HW156313   2.717   0.457   1.618 -1.1958  0.9927  0.4605
15461SOL    HW256314   2.603   0.423   1.712 -0.5149 -0.9202  0.6290
15462SOL     OW56315   8.817   1.241   8.422 -0.1274  0.1795 -0.0983
15462SOL    HW156316   8.879   1.190   8.474  0.2247  0.3121 -0.3815
15462SOL    HW256317   8.824   1.330   8.458  0.3440  0.3394 -0.5610
15463SOL     OW56318   4.040  12.160   7.348 -0.4834 -0.4139 -0.0666
15463SOL    HW156319   3.990  12.231   7.306  2.2406  1.1494 -0.8958
15463SOL    HW256320   4.028  12.085   7.289 -3.0516 -0.6138  0.5941
15464SOL     OW56321   1.135   1.125   8.253 -0.1297 -0.8240 -0.1724
15464SOL    HW156322   1.099   1.088   8.173 -2.9654 -0.1765  0.6933
15464SOL    HW256323   1.163   1.213   8.229 -1.4824 -0.4284 -0.3762
15465SOL     OW56324  13.116   1.107  10.007  0.3993 -0.0567 -0.1020
15465SOL    HW156325  13.130   1.060  10.089  1.5152  0.0633 -0.2052
15465SOL    HW256326  13.056   1.051   9.957  1.3981 -1.2096 -0.0690
15466SOL     OW56327   2.452   1.045   0.549  0.3032 -0.1122  0.5167
15466SOL    HW156328   2.401   1.112   0.503 -1.6879 -0.6477  1.8534
15466SOL    HW256329   2.527   1.093   0.584 -0.3545  1.1510  0.2804
15467SOL     OW56330   6.295   0.774   4.492  0.9086 -0.1828 -0.5457
15467SOL    HW156331   6.264   0.686   4.474  2.3841 -1.0683  1.0058
15467SOL    HW256332   6.328   0.771   4.582  2.8117  1.4225 -1.1021
15468SOL     OW56333   2.748   2.331  11.940  0.5211  0.3278  0.4282
15468SOL    HW156334   2.680   2.381  11.894  1.2808  1.6876  0.7630
15468SOL    HW256335   2.738   2.356  12.032  1.3739  0.4155  0.5012
15469SOL     OW56336   6.100   6.874   4.121  0.4527 -0.1177  0.2271
15469SOL    HW156337   6.083   6.876   4.215 -1.4556 -0.2554 -0.0729
15469SOL    HW256338   6.138   6.959   4.101  0.2647  0.1539  1.0157
15470SOL     OW56339  11.278   8.654   1.719  0.0478 -0.2465 -0.2455
15470SOL    HW156340  11.352   8.596   1.735  0.1229  0.3113  1.7073
15470SOL    HW256341  11.266   8.652   1.624 -0.0767 -3.5500 -0.2670
15471SOL     OW56342  10.485   7.682   6.839  0.3251 -0.2143  0.3599
15471SOL    HW156343  10.505   7.751   6.776  1.0520  1.4180  2.2581
15471SOL    HW256344  10.393   7.660   6.822  0.3842  0.4700 -0.9879
15472SOL     OW56345   0.485   3.774   1.545  0.7977 -0.3408  0.2190
15472SOL    HW156346   0.477   3.698   1.486 -1.6419  0.8571 -1.1699
15472SOL    HW256347   0.562   3.821   1.513 -1.1381  0.9445 -3.0324
15473SOL     OW56348  12.614   1.916   0.310  0.3264  0.0547  0.0386
15473SOL    HW156349  12.534   1.902   0.362  1.5602 -0.6383  1.8574
15473SOL    HW256350  12.609   1.850   0.241 -0.0794 -0.8460  0.9023
15474SOL     OW56351   5.561   2.228  10.016  0.2731  0.0869  0.3614
15474SOL    HW156352   5.603   2.145   9.998 -0.3692 -0.2629  0.4353
15474SOL    HW256353   5.501   2.209  10.089 -0.8700  0.2835 -0.4943
15475SOL     OW56354   8.934  13.045  11.034 -0.8830  0.2522 -0.6672
15475SOL    HW156355   9.004  12.980  11.040 -2.9814 -2.1495 -0.2679
15475SOL    HW256356   8.948  13.089  10.950  2.0290  1.1252  0.1687
15476SOL     OW56357   1.428   1.176   9.479 -0.3751  0.4359  0.8889
15476SOL    HW156358   1.501   1.138   9.431 -0.5953  2.6685 -1.4130
15476SOL    HW256359   1.359   1.109   9.473  0.8799 -0.9823  1.6221
15477SOL     OW56360   0.944  12.194   8.442  0.0729  0.5610  0.2499
15477SOL    HW156361   1.027  12.150   8.464 -0.1685  0.1212  0.2982
15477SOL    HW256362   0.949  12.278   8.488 -0.1794 -0.1119  1.5668
15478SOL     OW56363   2.528   9.571   7.924  0.2221 -0.6840  0.2073
15478SOL    HW156364   2.546   9.504   7.990 -1.9190  0.5452  2.1737
15478SOL    HW256365   2.527   9.654   7.974 -1.9860  0.2360 -1.2487
15479SOL     OW56366   2.256   3.565   6.264  0.5538 -0.1896 -0.0163
15479SOL    HW156367   2.198   3.618   6.209 -0.2190 -0.0255  0.9186
15479SOL    HW256368   2.331   3.545   6.208  0.6611  1.5117 -0.5443
15480SOL     OW56369   0.254   7.940   4.376  0.6635 -0.4615 -0.1586
15480SOL    HW156370   0.284   7.961   4.464 -1.3671 -1.4079  0.8370
15480SOL    HW256371   0.306   7.864   4.350  0.4210 -0.9546  0.7611
15481SOL     OW56372   0.689   4.106   2.874 -0.0282 -0.1851  0.0486
15481SOL    HW156373   0.642   4.163   2.814  1.4380 -0.9108 -1.9104
15481SOL    HW256374   0.768   4.154   2.897  0.7483 -0.9857 -0.8470
15482SOL     OW56375   3.343   8.800  11.475  0.2155  0.4793 -0.1397
15482SOL    HW156376   3.332   8.722  11.420 -0.2280  0.5505 -0.1618
15482SOL    HW256377   3.292   8.780  11.554  1.9129 -0.1742  0.8438
15483SOL     OW56378   5.325   8.525   7.112  0.7941  0.1488 -0.4469
15483SOL    HW156379   5.312   8.446   7.060 -0.9102 -2.1330  3.0596
15483SOL    HW256380   5.399   8.504   7.170  0.1968  0.9937  0.6619
15484SOL     OW56381  11.902   3.577   4.122  0.0123 -0.1087 -0.1352
15484SOL    HW156382  11.857   3.504   4.079 -1.7694  0.2345  1.0232
15484SOL    HW256383  11.831   3.628   4.163  1.4359  0.7444  1.3977
15485SOL     OW56384   4.793   7.412   5.979 -0.0415  0.5952  0.2737
15485SOL    HW156385   4.835   7.386   6.062  1.6333  3.5490  0.5047
15485SOL    HW256386   4.854   7.475   5.941 -1.8405  0.9958 -2.1431
15486SOL     OW56387  13.269   1.634   4.265  0.2988  0.5970 -0.3040
15486SOL    HW156388  13.336   1.573   4.235 -0.3625 -0.1110 -0.3891
15486SOL    HW256389  13.256   1.693   4.191 -1.2673 -1.0911 -1.4742
15487SOL     OW56390   3.611  13.192   7.173 -0.3044  0.0024  0.4755
15487SOL    HW156391   3.640  13.282   7.155 -0.5879 -0.1454 -0.8615
15487SOL    HW256392   3.537  13.179   7.113 -0.6635 -0.9160  1.1029
15488SOL     OW56393   4.325  10.721   5.233 -0.8929 -0.4772  0.1882
15488SOL    HW156394   4.339  10.789   5.299 -0.9618  1.6641 -1.8207
15488SOL    HW256395   4.238  10.686   5.252 -1.1552  0.5172  0.8949
15489SOL     OW56396  12.702   8.742   8.121  0.4094 -1.0741 -0.2574
15489SOL    HW156397  12.735   8.660   8.084 -0.0470 -0.9817 -0.8823
15489SOL    HW256398  12.705   8.729   8.216  1.1740 -1.4826 -0.3325
15490SOL     OW56399   3.255   8.920  10.965 -0.5628  0.7207  0.2027
15490SOL    HW156400   3.205   8.904  11.045 -0.3054 -1.0353  0.0450
15490SOL    HW256401   3.321   8.984  10.991 -2.1653  2.2509  0.6889
15491SOL     OW56402   4.611  13.082   5.267  0.0920 -0.5565 -0.2498
15491SOL    HW156403   4.567  13.062   5.185 -1.0219 -2.5795  0.7710
15491SOL    HW256404   4.581  13.015   5.328  2.7113 -0.5551  1.1998
15492SOL     OW56405   2.200   9.842   3.321  0.2976 -0.0539 -0.0057
15492SOL    HW156406   2.219   9.917   3.265  0.3766 -0.7916 -0.9860
15492SOL    HW256407   2.245   9.769   3.280 -1.0225 -0.9539  0.0775
15493SOL     OW56408   6.058  10.885   0.556  0.0041 -0.5655 -0.2491
15493SOL    HW156409   5.991  10.875   0.488 -0.0088  1.8258 -0.6713
15493SOL    HW256410   6.073  10.796   0.588 -3.2415 -1.2473 -0.2664
15494SOL     OW56411   2.772   0.055   4.268  0.0270 -0.3559 -0.1658
15494SOL    HW156412   2.694   0.109   4.281  0.5491  0.8547 -1.8191
15494SOL    HW256413   2.739  -0.026   4.229 -0.3564  0.5244 -1.7608
15495SOL     OW56414  11.996  11.427   5.211  0.4493 -0.6038  0.7004
15495SOL    HW156415  11.933  11.368   5.253  2.0765 -2.2946  0.9377
15495SOL    HW256416  11.997  11.400   5.119 -0.4515  0.6305  0.3103
15496SOL     OW56417   0.926   2.842   3.022 -0.5031 -0.0978 -0.2668
15496SOL    HW156418   0.851   2.884   3.064  0.6378  2.5782 -0.6451
15496SOL    HW256419   0.954   2.774   3.083 -2.4506 -0.3116  0.4464
15497SOL     OW56420  12.012   1.497   3.190  0.1969 -0.2879  0.0185
15497SOL    HW156421  12.037   1.586   3.214  1.3443 -0.4986 -0.2811
15497SOL    HW256422  11.938   1.476   3.247 -0.0348  0.8157  0.1549
15498SOL     OW56423  12.311   1.275   0.744 -0.4652  0.2811  0.0442
15498SOL    HW156424  12.392   1.225   0.748 -0.1347  0.4310 -2.7150
15498SOL    HW256425  12.242   1.209   0.740 -0.2861  0.0963  0.0113
15499SOL     OW56426   8.928   4.014   8.354 -0.0107 -0.2607 -0.1724
15499SOL    HW156427   8.947   4.034   8.263  0.3017  1.1813  0.1988
15499SOL    HW256428   8.835   4.036   8.364 -0.4926 -1.9356 -0.5191
15500SOL     OW56429   0.424   1.491   0.263 -0.9940 -0.3055  0.4443
15500SOL    HW156430   0.486   1.467   0.332  0.9000  1.2888 -0.5947
15500SOL    HW256431   0.413   1.585   0.273 -2.6737 -0.4380  0.0920
15501SOL     OW56432   5.643  12.305   6.841  0.4597 -0.0306 -0.6471
15501SOL    HW156433   5.712  12.293   6.905  0.2514 -1.4740 -0.6505
15501SOL    HW256434   5.591  12.378   6.875  0.1184 -1.0167  1.0605
15502SOL     OW56435   3.188   8.832   7.107  0.3802 -0.3916 -0.3895
15502SOL    HW156436   3.104   8.877   7.107  0.8941  0.5951 -1.1770
15502SOL    HW256437   3.219   8.840   7.197  0.1332  0.2235 -0.3525
15503SOL     OW56438  12.784   3.751   5.753  0.3495 -0.8374 -0.3221
15503SOL    HW156439  12.837   3.673   5.770  1.3892  0.3094  2.2810
15503SOL    HW256440  12.744   3.771   5.838 -0.8023  0.8084 -1.2027
15504SOL     OW56441  12.869   6.958  12.634 -0.6129  0.2571 -0.0290
15504SOL    HW156442  12.775   6.951  12.618 -0.4365 -0.1641 -0.9276
15504SOL    HW256443  12.890   6.884  12.690 -1.3820  2.1889  3.0798
15505SOL     OW56444  10.867  10.049   0.538 -0.2310  0.3863 -0.1361
15505SOL    HW156445  10.845  10.142   0.534 -1.0809  0.2504  1.0191
15505SOL    HW256446  10.939  10.044   0.601 -1.2222  0.1047  1.0068
15506SOL     OW56447   5.897   9.632   8.372 -0.1665  0.0012 -0.2139
15506SOL    HW156448   5.900   9.548   8.418  1.3777 -0.1062 -0.4789
15506SOL    HW256449   5.889   9.697   8.442 -0.9592 -0.3243  0.0129
15507SOL     OW56450   6.768   8.932   7.861 -0.1107 -0.4859  0.7828
15507SOL    HW156451   6.699   8.966   7.805  0.2671  0.4674  0.8737
15507SOL    HW256452   6.725   8.866   7.915 -0.7610 -0.4922  0.2710
15508SOL     OW56453   7.084   8.703   0.428  0.4186 -0.0100 -0.1251
15508SOL    HW156454   7.097   8.755   0.349 -2.0884  1.1794  0.1193
15508SOL    HW256455   7.158   8.643   0.431  2.2441  2.0185 -1.6618
15509SOL     OW56456  12.143   0.172  12.387 -0.5785  0.3892 -0.5729
15509SOL    HW156457  12.227   0.213  12.410  0.8666 -2.6094  0.0321
15509SOL    HW256458  12.162   0.122  12.308 -1.1831 -1.9073  0.6508
15510SOL     OW56459   1.455  10.419  10.400  0.4613 -0.6282 -0.0299
15510SOL    HW156460   1.507  10.352  10.444  0.7573 -0.5150 -0.2014
15510SOL    HW256461   1.473  10.405  10.307 -3.0255 -3.3265 -0.5208
15511SOL     OW56462   9.973   9.930   7.698 -0.4577 -0.3654 -0.0811
15511SOL    HW156463   9.929  10.005   7.656 -0.9053  0.2567  1.4270
15511SOL    HW256464   9.990   9.869   7.627  1.2904  1.7939 -1.6632
15512SOL     OW56465   0.510   4.586   9.571 -0.1273  0.1091 -0.5186
15512SOL    HW156466   0.448   4.655   9.550  1.1538  0.5708 -3.1360
15512SOL    HW256467   0.554   4.616   9.650 -1.4219  0.9543 -0.0838
15513SOL     OW56468   3.997   4.883   1.662  0.4000  0.1191  0.2831
15513SOL    HW156469   3.944   4.809   1.633  0.0548  0.6409 -0.4493
15513SOL    HW256470   3.935   4.944   1.700  0.7649 -0.2402  1.5221
15514SOL     OW56471   6.701   6.749   9.331  0.1881 -0.1218 -0.3984
15514SOL    HW156472   6.682   6.815   9.398 -0.0392  0.0432 -0.6208
15514SOL    HW256473   6.679   6.666   9.372  3.7687 -0.4919  1.1855
15515SOL     OW56474   2.052   9.082   1.217  0.5620 -0.4401 -0.7277
15515SOL    HW156475   1.983   9.148   1.217  1.1168  0.1462 -0.1451
15515SOL    HW256476   2.092   9.089   1.304  2.3681  0.2878 -1.5801
15516SOL     OW56477   3.569   7.023   4.795  0.2173 -0.5771 -0.1765
15516SOL    HW156478   3.629   6.979   4.855  3.6059  1.0147 -2.1057
15516SOL    HW256479   3.556   7.110   4.833  0.6956 -0.2648 -0.7229
15517SOL     OW56480  10.529   1.502   7.032 -0.0434 -0.2692 -0.2111
15517SOL    HW156481  10.566   1.587   7.057  0.5577 -0.7331  0.5121
15517SOL    HW256482  10.435   1.511   7.049 -0.2683  0.8073 -1.7405
15518SOL     OW56483   0.963  11.698   6.004  0.0136 -0.3358  0.4910
15518SOL    HW156484   0.994  11.679   6.092  1.1198 -2.3949 -0.2701
15518SOL    HW256485   0.933  11.614   5.969 -0.3351  0.4012 -1.1295
15519SOL     OW56486   4.525   3.194   5.826 -0.2860 -0.0511 -0.4573
15519SOL    HW156487   4.491   3.171   5.739 -1.3139 -2.0459  0.3974
15519SOL    HW256488   4.514   3.114   5.878 -2.9555  2.0028  2.5150
15520SOL     OW56489   4.299   3.403   8.033 -0.3149 -0.3398  0.4755
15520SOL    HW156490   4.294   3.465   7.961  2.2914 -1.5761 -0.9331
15520SOL    HW256491   4.368   3.438   8.090 -0.9922 -0.3850  1.3485
15521SOL     OW56492  12.921   9.536   3.058 -0.5038  0.3989  0.6115
15521SOL    HW156493  12.923   9.612   3.001  0.3878  0.4001  0.6444
15521SOL    HW256494  12.857   9.477   3.017 -1.6261  1.3857  0.8898
15522SOL     OW56495   9.975   0.366   7.512  1.0944 -0.4968 -0.0468
15522SOL    HW156496   9.926   0.445   7.537  1.7511 -0.7471  2.2508
15522SOL    HW256497   9.907   0.301   7.492  0.5388  0.2693 -0.7141
15523SOL     OW56498   4.644   4.611  11.345  0.5286  0.4891 -0.0278
15523SOL    HW156499   4.654   4.626  11.251 -0.2296  2.1848  0.1206
15523SOL    HW256500   4.733   4.599  11.378  0.7145 -1.9465 -1.1850
15524SOL     OW56501   9.103   3.831   8.469 -0.0533  0.6889 -0.6447
15524SOL    HW156502   9.052   3.826   8.550 -0.2879  0.8644 -0.7811
15524SOL    HW256503   9.071   3.909   8.425  0.7051  1.0953 -0.4846
15525SOL     OW56504   3.567   9.376   9.428  0.1219 -1.0746  0.4247
15525SOL    HW156505   3.507   9.322   9.377 -1.3758  1.3740 -0.5943
15525SOL    HW256506   3.652   9.332   9.421 -0.8339 -2.7900 -1.0461
15526SOL     OW56507   2.948   0.670   3.321 -0.1923 -0.4858  0.5033
15526SOL    HW156508   3.026   0.652   3.269 -1.4013 -0.7547 -1.3194
15526SOL    HW256509   2.956   0.762   3.346 -0.3225  0.1450 -1.5910
15527SOL     OW56510   9.852   7.003   9.421  0.0552 -0.2839  0.2231
15527SOL    HW156511   9.924   7.046   9.375  0.0619 -1.4301 -0.8851
15527SOL    HW256512   9.774   7.027   9.372 -0.0977 -0.5224  0.3476
15528SOL     OW56513  11.422  12.227  10.120  0.2934  0.1628 -0.0282
15528SOL    HW156514  11.482  12.181  10.178  0.2589 -0.9062 -0.8101
15528SOL    HW256515  11.426  12.318  10.149  1.2271 -0.1286  0.8237
15529SOL     OW56516   8.273  11.789   6.214 -0.5903 -0.2777  0.1377
15529SOL    HW156517   8.212  11.847   6.169  0.9199  0.4813 -1.0353
15529SOL    HW256518   8.318  11.742   6.143 -0.3249 -1.3459  0.9951
15530SOL     OW56519   4.487   7.904   1.641  0.6847  0.1799  0.1042
15530SOL    HW156520   4.465   7.972   1.577 -1.1726 -1.7082 -1.4338
15530SOL    HW256521   4.428   7.920   1.715 -1.7496 -1.2047 -1.3933
15531SOL     OW56522   4.949  10.199  12.140 -0.0439  0.4720 -0.0563
15531SOL    HW156523   5.011  10.150  12.194 -0.7302  1.0957  1.3836
15531SOL    HW256524   4.957  10.289  12.171 -1.0149  0.7157 -0.4616
15532SOL     OW56525   9.283   2.425   1.519  0.6510  0.2476  0.4104
15532SOL    HW156526   9.245   2.509   1.543 -0.0641  0.2547 -0.6810
15532SOL    HW256527   9.342   2.445   1.446  0.4851 -0.1855  0.1535
15533SOL     OW56528   8.759  10.127   1.268 -0.5800 -0.3554  0.4837
15533SOL    HW156529   8.853  10.107   1.271 -0.2221  1.2888  1.3178
15533SOL    HW256530   8.749  10.179   1.188 -0.7055 -0.1943  0.6044
15534SOL     OW56531   4.463   8.975  11.375  0.0812 -0.6112 -0.0502
15534SOL    HW156532   4.393   8.910  11.379  0.9765 -1.7432 -1.7951
15534SOL    HW256533   4.509   8.957  11.293  2.1587  0.3752  0.8191
15535SOL     OW56534   8.606   7.808   1.655  0.0373  0.1573  0.2824
15535SOL    HW156535   8.543   7.829   1.724 -0.6258 -1.5415  0.2437
15535SOL    HW256536   8.678   7.763   1.700  0.6294  0.9269  0.1388
15536SOL     OW56537  11.513  13.175   7.126 -0.0211  0.3130  0.1732
15536SOL    HW156538  11.520  13.267   7.103  0.3290  0.7583  1.9004
15536SOL    HW256539  11.430  13.167   7.172 -0.3115 -0.3594 -0.4436
15537SOL     OW56540  12.895  11.127   1.020  0.1327  0.7351  0.1457
15537SOL    HW156541  12.812  11.090   0.988  0.5055  0.3831 -0.4160
15537SOL    HW256542  12.884  11.222   1.010  0.4054  0.6201 -1.4544
15538SOL     OW56543   5.731  10.341   8.702  0.1901 -0.0705  0.0685
15538SOL    HW156544   5.774  10.427   8.700  0.9625 -0.4217  0.9067
15538SOL    HW256545   5.640  10.359   8.679  0.4852  0.8772 -0.4210
15539SOL     OW56546   4.234   2.020   7.410  0.1561  0.6714 -0.1238
15539SOL    HW156547   4.233   1.951   7.344 -0.7759 -1.2019  1.7257
15539SOL    HW256548   4.316   2.067   7.395  2.1019 -2.4054  0.0045
15540SOL     OW56549   8.560   8.216   8.964 -0.6160  0.6616 -0.1220
15540SOL    HW156550   8.527   8.203   9.053  0.2148  2.3985  0.4792
15540SOL    HW256551   8.605   8.300   8.967  1.9313 -0.5472 -1.4515
15541SOL     OW56552   7.534  12.710   2.707 -0.2636 -0.1622 -0.4561
15541SOL    HW156553   7.489  12.743   2.630  1.4744  1.5801 -0.7748
15541SOL    HW256554   7.605  12.656   2.673 -0.5563 -0.8368 -0.0194
15542SOL     OW56555   3.213   4.410  11.322  0.0138  0.4470 -0.0840
15542SOL    HW156556   3.183   4.427  11.410  0.4944 -0.3819  0.2591
15542SOL    HW256557   3.184   4.320  11.303  0.7273  0.2677 -0.3956
15543SOL     OW56558   0.800  11.202  12.996  0.1129  0.7762  0.5129
15543SOL    HW156559   0.839  11.279  13.036 -0.3770  1.0030  0.5577
15543SOL    HW256560   0.824  11.130  13.055 -0.6223  1.1082  1.2446
15544SOL     OW56561   3.969   6.207   0.386 -0.6162  0.3717  0.3606
15544SOL    HW156562   4.002   6.297   0.384  1.8421 -0.3756  2.0060
15544SOL    HW256563   3.983   6.178   0.476  0.5763 -2.2848 -0.5641
15545SOL     OW56564  10.283   7.163   0.891 -0.2576  0.8214 -0.5405
15545SOL    HW156565  10.318   7.243   0.931  2.9909 -0.6455 -0.0722
15545SOL    HW256566  10.344   7.144   0.819 -1.2736 -0.9142 -1.0114
15546SOL     OW56567  11.178   9.063   3.786  0.1191  0.4881 -0.1229
15546SOL    HW156568  11.100   9.008   3.774 -1.7892  3.1683 -1.0259
15546SOL    HW256569  11.203   9.048   3.877 -1.3087 -0.6701  0.1234
15547SOL     OW56570   6.352  10.635   8.247  0.3565 -0.7063 -0.3529
15547SOL    HW156571   6.377  10.716   8.290  1.6235 -0.8809 -0.7285
15547SOL    HW256572   6.326  10.661   8.159 -2.3166 -0.3369  0.4409
15548SOL     OW56573  11.800   9.759  13.251 -0.3634  0.0658  0.4603
15548SOL    HW156574  11.843   9.813  13.185 -0.1031 -2.1589 -1.2688
15548SOL    HW256575  11.863   9.690  13.271 -1.1771 -0.3519  1.6907
15549SOL     OW56576   5.009   3.027  10.630  0.2531 -0.2245  0.4534
15549SOL    HW156577   4.937   3.081  10.662  1.7731  1.8212  0.6415
15549SOL    HW256578   4.981   3.000  10.542 -0.2007  1.7095 -0.0475
15550SOL     OW56579  12.404   8.560   4.285 -0.0542 -0.4695 -0.4422
15550SOL    HW156580  12.436   8.550   4.195 -0.5785 -0.4135 -0.6404
15550SOL    HW256581  12.474   8.525   4.339  0.8790  0.7936 -0.7843
15551SOL     OW56582   6.548   0.027   9.161 -0.5672 -0.5149 -0.3192
15551SOL    HW156583   6.606  -0.048   9.154  0.9976  0.4515  1.3297
15551SOL    HW256584   6.545   0.063   9.072 -0.7870 -2.0773 -0.9797
15552SOL     OW56585  11.149   8.830   6.660 -0.3504  0.4285 -0.0759
15552SOL    HW156586  11.145   8.802   6.751  1.8843 -2.7705 -0.7851
15552SOL    HW256587  11.213   8.901   6.659  0.0040  0.1342  0.8067
15553SOL     OW56588   6.214   3.819  12.114  0.2137 -0.2964 -0.4003
15553SOL    HW156589   6.134   3.868  12.091 -0.3921 -1.2449 -0.3754
15553SOL    HW256590   6.246   3.785  12.031  1.4494  1.3139 -0.6163
15554SOL     OW56591   4.073   3.201   8.230  0.3728 -0.7126 -0.0123
15554SOL    HW156592   4.090   3.176   8.139  0.7488  1.0283 -0.4641
15554SOL    HW256593   3.978   3.200   8.238  0.3688 -2.7132  0.1625
15555SOL     OW56594   3.471  11.591   2.678 -0.5187 -0.5355 -0.0556
15555SOL    HW156595   3.402  11.546   2.727 -0.8297 -1.4244 -1.2430
15555SOL    HW256596   3.447  11.577   2.586  1.2119 -0.8105 -0.4927
15556SOL     OW56597   6.079   1.477   6.043  0.2840 -0.3252 -0.6537
15556SOL    HW156598   6.047   1.412   6.105 -0.2720 -0.3931 -0.9997
15556SOL    HW256599   6.031   1.458   5.962 -0.2373  0.8184 -0.6279
15557SOL     OW56600   8.327   8.918   7.012  0.3522  0.0891  0.0853
15557SOL    HW156601   8.256   8.977   7.033 -0.3490 -0.7543  0.1438
15557SOL    HW256602   8.397   8.942   7.073 -0.5925 -0.3688  1.3937
15558SOL     OW56603   2.309   2.776  11.350  0.0470 -0.3182  0.2815
15558SOL    HW156604   2.221   2.782  11.386  0.0712  0.8787  0.1821
15558SOL    HW256605   2.312   2.691  11.307 -1.2408 -0.1365 -0.1853
15559SOL     OW56606  12.316   7.380   4.329  0.6542 -0.1417 -0.7274
15559SOL    HW156607  12.359   7.306   4.372 -0.4433  0.5510  1.7957
15559SOL    HW256608  12.343   7.456   4.381  0.3275  0.9874 -2.1505
15560SOL     OW56609   6.268   9.895   6.255  0.2623  0.4573 -0.1857
15560SOL    HW156610   6.341   9.893   6.318  2.1229 -1.8724 -2.2353
15560SOL    HW256611   6.216   9.818   6.277  1.8514 -1.3648 -2.3359
15561SOL     OW56612   2.520   8.632   2.194 -0.2700 -0.0294 -0.2788
15561SOL    HW156613   2.582   8.562   2.210  0.3635  0.3846 -0.8412
15561SOL    HW256614   2.462   8.632   2.270  1.7037  0.9358  1.3291
15562SOL     OW56615  11.218   7.370   7.630 -0.5666 -0.3961 -0.0888
15562SOL    HW156616  11.271   7.439   7.669 -0.1077 -0.9317  0.2431
15562SOL    HW256617  11.195   7.404   7.543  2.1078 -0.9835 -1.1323
15563SOL     OW56618   8.798  11.076   0.426 -0.1271 -0.0248 -0.3646
15563SOL    HW156619   8.777  11.147   0.365  0.3636  0.8517  0.4644
15563SOL    HW256620   8.889  11.091   0.451  0.4551 -1.7903 -1.2680
15564SOL     OW56621   3.972   5.975  11.531 -0.3456  0.6936 -0.6699
15564SOL    HW156622   3.981   5.883  11.508  4.4154  0.6400  0.3158
15564SOL    HW256623   3.938   5.974  11.621  2.4422 -0.4550  0.4907
15565SOL     OW56624  10.815   7.562   5.738  0.2083 -0.3838  0.3534
15565SOL    HW156625  10.843   7.497   5.803 -0.6092 -0.3528  0.7477
15565SOL    HW256626  10.890   7.619   5.727  1.3537 -2.0082 -0.8016
15566SOL     OW56627   0.073   1.313   6.809 -0.6835  0.4905  0.0264
15566SOL    HW156628   0.125   1.263   6.872 -1.8004 -0.1593  0.4508
15566SOL    HW256629   0.016   1.248   6.768 -0.9694  1.1484 -0.6476
15567SOL     OW56630  10.525   5.393   7.426  0.2208 -0.0052 -0.0527
15567SOL    HW156631  10.538   5.487   7.434 -0.4136 -0.0910  5.2272
15567SOL    HW256632  10.603   5.362   7.381  0.4655  2.9005 -1.9309
15568SOL     OW56633   6.188   4.753  11.822  0.1299 -0.6870 -0.1686
15568SOL    HW156634   6.181   4.660  11.845  1.2262 -0.3847  1.6160
15568SOL    HW256635   6.125   4.797  11.879 -0.6491 -0.3365 -1.2658
15569SOL     OW56636  11.189   3.819  10.654  0.6554 -1.1852  0.0869
15569SOL    HW156637  11.167   3.793  10.565 -0.8531  0.0717  0.0501
15569SOL    HW256638  11.284   3.817  10.657  0.7110 -1.7564 -1.3916
15570SOL     OW56639   5.142  12.883  11.286 -0.1635  0.2951  0.2048
15570SOL    HW156640   5.171  12.863  11.198 -4.1192 -0.0409 -1.2450
15570SOL    HW256641   5.137  12.979  11.288 -0.2209  0.2969 -0.0086
15571SOL     OW56642   2.195   8.817  12.869  0.4796 -0.0875  0.6347
15571SOL    HW156643   2.202   8.911  12.855 -1.7876 -0.0131 -0.5246
15571SOL    HW256644   2.201   8.779  12.781 -3.5516 -0.5048  0.3313
15572SOL     OW56645   0.150  11.731   5.145 -0.0296 -0.4567  0.6407
15572SOL    HW156646   0.095  11.808   5.138  1.0839  0.2731 -0.4480
15572SOL    HW256647   0.103  11.673   5.205 -2.9017 -0.6918 -1.6355
15573SOL     OW56648   2.978   2.705   9.545 -0.1151  0.2410 -0.5358
15573SOL    HW156649   3.005   2.796   9.547  1.3115 -0.1728  0.5872
15573SOL    HW256650   3.028   2.666   9.473  1.5112 -0.2687  0.8181
15574SOL     OW56651   7.258  10.111   3.005  0.3312 -0.5605 -0.5929
15574SOL    HW156652   7.279  10.164   3.081  0.0394 -0.8982 -0.2736
15574SOL    HW256653   7.174  10.145   2.974  0.0090 -0.9982 -0.2265
15575SOL     OW56654  13.274  10.227  13.063 -0.3095 -0.8210  0.2218
15575SOL    HW156655  13.253  10.295  13.127 -0.2166 -0.6547  0.0757
15575SOL    HW256656  13.326  10.272  12.996 -0.7151 -0.9167 -0.1605
15576SOL     OW56657   9.614   9.900   2.792  0.1125  0.5169  0.1714
15576SOL    HW156658   9.591   9.989   2.818 -2.2104  0.2555 -0.7433
15576SOL    HW256659   9.537   9.869   2.743  1.7539 -1.1974 -1.4776
15577SOL     OW56660   0.841   3.419   9.989  0.1965 -0.6952  0.6213
15577SOL    HW156661   0.901   3.445  10.059 -0.0947 -2.1958  1.4773
15577SOL    HW256662   0.895   3.419   9.910  0.4902  1.1747  0.7867
15578SOL     OW56663  11.979   1.264   1.900 -0.0270  0.0223  0.0365
15578SOL    HW156664  12.010   1.185   1.944 -0.5511 -1.8313 -2.6664
15578SOL    HW256665  11.962   1.237   1.810 -1.2369  3.0024 -0.7815
15579SOL     OW56666   9.069   8.238   8.881 -0.7308 -0.3081  0.5993
15579SOL    HW156667   9.093   8.249   8.973 -0.5299  0.1677  0.4912
15579SOL    HW256668   9.152   8.243   8.834 -0.8590 -0.3225  0.3694
15580SOL     OW56669  12.109  10.131   7.837  0.2580 -0.0778  0.0943
15580SOL    HW156670  12.074  10.136   7.748 -0.3443  0.4654  0.3553
15580SOL    HW256671  12.149  10.216   7.852  0.7779 -0.3311  0.1819
15581SOL     OW56672   3.837   8.332   0.765 -0.2810  0.3032 -0.3998
15581SOL    HW156673   3.804   8.320   0.676 -0.5562 -2.4161 -0.0164
15581SOL    HW256674   3.931   8.318   0.758 -0.4246 -0.8933 -0.1554
15582SOL     OW56675   1.454   1.932   2.066  0.2930 -0.3958 -0.0002
15582SOL    HW156676   1.528   1.883   2.101  0.4770  0.1748  0.4201
15582SOL    HW256677   1.477   2.024   2.080  0.2846 -0.1516 -1.4437
15583SOL     OW56678   7.809   7.366   1.810  0.1430 -0.0948  0.5591
15583SOL    HW156679   7.894   7.356   1.766  1.1659  1.8804  1.9544
15583SOL    HW256680   7.788   7.458   1.802 -2.2509 -0.6430 -0.2793
15584SOL     OW56681  11.134   5.071   8.022  0.0396 -0.1538 -0.3540
15584SOL    HW156682  11.164   5.150   7.977  0.8239 -1.0857 -1.5116
15584SOL    HW256683  11.138   5.094   8.115  2.1061  0.5432 -0.5704
15585SOL     OW56684  10.971   4.750  10.935 -0.3787  0.5672  0.2543
15585SOL    HW156685  10.970   4.680  11.001 -1.1173  2.0585  1.8864
15585SOL    HW256686  11.052   4.735  10.886 -0.1982 -1.0390  0.9746
15586SOL     OW56687  11.944   6.408   5.368  0.1211  0.8442 -0.2790
15586SOL    HW156688  12.023   6.439   5.412  0.9919  0.8217 -1.7875
15586SOL    HW256689  11.891   6.370   5.439  0.5398  2.6457  1.0606
15587SOL     OW56690  11.714   4.276   2.138 -0.0280  0.5673 -0.1046
15587SOL    HW156691  11.784   4.326   2.095  1.2542 -0.6133  0.5518
15587SOL    HW256692  11.708   4.195   2.087  0.4233 -0.1600  0.9713
15588SOL     OW56693  12.373  13.266   4.644 -0.4317 -0.4966 -0.3252
15588SOL    HW156694  12.437  13.328   4.608 -0.5381 -1.1466 -1.6921
15588SOL    HW256695  12.387  13.186   4.594 -0.1558 -1.6773  1.5478
15589SOL     OW56696  11.796   3.125   9.386  0.0394  0.0163  0.0439
15589SOL    HW156697  11.702   3.108   9.394  0.3472 -1.2805  1.3771
15589SOL    HW256698  11.834   3.040   9.365  0.8841  0.6221 -0.9773
15590SOL     OW56699   8.807  10.826   1.334  0.0180  0.3694 -0.2153
15590SOL    HW156700   8.798  10.853   1.426  1.6980 -1.5363  0.5954
15590SOL    HW256701   8.734  10.765   1.320  0.4087 -0.2114  0.2327
15591SOL     OW56702   8.613   5.082   2.863 -0.2598  0.6203  0.0940
15591SOL    HW156703   8.596   5.014   2.798  0.0696  0.6719 -0.0471
15591SOL    HW256704   8.526   5.114   2.887 -0.4058  0.2792  0.0245
15592SOL     OW56705   3.170   1.013   2.117  0.1688  0.1942  0.0761
15592SOL    HW156706   3.246   0.959   2.138 -0.4037 -0.7861 -0.3102
15592SOL    HW256707   3.153   0.996   2.025  0.1505  1.2768 -0.1304
15593SOL     OW56708   3.856   6.645   6.678  0.4952  0.6128  0.5428
15593SOL    HW156709   3.917   6.571   6.680 -0.5746 -0.3029  2.4676
15593SOL    HW256710   3.904   6.717   6.718  0.7327  0.2480  0.9236
15594SOL     OW56711   2.083   4.632   6.716 -0.1416 -0.0072  0.3388
15594SOL    HW156712   2.174   4.643   6.745 -0.6580  0.8489  1.7250
15594SOL    HW256713   2.059   4.544   6.746 -0.0198  0.0846  0.7195
15595SOL     OW56714   7.168   7.899   4.739 -0.3352 -0.3199 -0.3086
15595SOL    HW156715   7.091   7.942   4.775 -0.2292 -0.5601  0.2033
15595SOL    HW256716   7.139   7.864   4.655 -1.1899 -1.6705  0.5183
15596SOL     OW56717   3.914  11.436   7.555  0.1583 -0.0994 -0.4088
15596SOL    HW156718   3.945  11.360   7.604  0.3624  0.5900  0.5593
15596SOL    HW256719   3.985  11.500   7.561 -0.4877  0.6170 -0.1838
15597SOL     OW56720  10.634   8.747   7.776 -0.7633  0.2456  0.1621
15597SOL    HW156721  10.587   8.772   7.855  0.4255 -0.7723  1.2288
15597SOL    HW256722  10.565   8.717   7.716 -1.7004  1.2487  0.6971
15598SOL     OW56723  11.870   0.734   4.774 -0.3559 -0.2191  0.0822
15598SOL    HW156724  11.942   0.684   4.735 -1.1901 -1.5803  0.2172
15598SOL    HW256725  11.849   0.800   4.708 -0.3246 -1.1184 -0.8522
15599SOL     OW56726  10.879   8.783   3.946  0.0198 -0.3634 -0.1469
15599SOL    HW156727  10.857   8.698   3.909  2.3483 -1.3933  0.6185
15599SOL    HW256728  10.935   8.824   3.880  0.3255 -0.1832  0.2191
15600SOL     OW56729  13.004  12.080  10.911 -0.3681 -0.7004 -0.3552
15600SOL    HW156730  12.984  12.116  10.824 -1.2928 -1.7879 -0.6115
15600SOL    HW256731  13.094  12.108  10.928 -1.0625  1.8368 -0.4737
15601SOL     OW56732   1.730   8.046   9.883  0.0018 -0.2360 -0.4345
15601SOL    HW156733   1.701   8.134   9.859 -0.6484  0.2823  1.9427
15601SOL    HW256734   1.825   8.050   9.880  0.0685  1.2272  1.5054
15602SOL     OW56735   9.802  10.925  11.232 -0.2968 -0.0610 -0.5181
15602SOL    HW156736   9.756  10.951  11.312 -2.6053 -0.3698 -1.6803
15602SOL    HW256737   9.887  10.970  11.239 -1.6177  2.5248  0.6253
15603SOL     OW56738   4.457   6.091   9.296 -0.3918  0.3484 -0.4466
15603SOL    HW156739   4.368   6.067   9.321 -1.2342 -0.6206 -3.9009
15603SOL    HW256740   4.449   6.182   9.268 -0.2345  0.3371 -0.5255
15604SOL     OW56741   4.174   0.503   5.739 -0.2977  0.1194 -0.2392
15604SOL    HW156742   4.141   0.485   5.827 -0.5653  0.7016 -0.2187
15604SOL    HW256743   4.268   0.515   5.751 -0.2463 -0.3841 -0.1230
15605SOL     OW56744  11.049   3.838   6.399  0.6698 -0.3370  0.0386
15605SOL    HW156745  11.035   3.746   6.421  0.5250 -0.6951 -1.4475
15605SOL    HW256746  11.023   3.845   6.308 -0.3859  1.4323  0.4258
15606SOL     OW56747   7.493   9.089  11.793  0.4431 -0.3348  0.5248
15606SOL    HW156748   7.587   9.070  11.786  0.3529 -0.8170  0.5770
15606SOL    HW256749   7.485   9.180  11.763  0.7078 -0.8282 -1.1873
15607SOL     OW56750  12.864   0.363  12.239 -0.2341  0.8814 -0.3755
15607SOL    HW156751  12.942   0.397  12.282  0.6620 -0.6521 -0.6931
15607SOL    HW256752  12.845   0.281  12.285 -1.1561  0.8007 -0.8606
15608SOL     OW56753   1.564   7.782  12.837  0.5267 -0.0596 -0.0849
15608SOL    HW156754   1.539   7.770  12.745  0.0779  1.0920 -0.1315
15608SOL    HW256755   1.616   7.862  12.837  0.1942  0.1637  0.7159
15609SOL     OW56756   7.735   5.892   6.537  0.6957 -0.2731  0.0181
15609SOL    HW156757   7.662   5.831   6.529  1.0008 -0.4571 -1.6911
15609SOL    HW256758   7.699   5.966   6.586 -1.2664  0.5222 -2.4424
15610SOL     OW56759   9.692  12.633   6.209 -0.2689  0.2972 -0.1570
15610SOL    HW156760   9.680  12.599   6.298  0.6040 -0.3303 -0.2636
15610SOL    HW256761   9.635  12.578   6.155 -0.8545  0.7257  0.0245
15611SOL     OW56762   9.006  10.082   8.916  0.2356 -0.8678  0.4535
15611SOL    HW156763   9.060  10.155   8.947  2.0109 -2.7176  1.9837
15611SOL    HW256764   9.021  10.080   8.821  0.1732  0.7293  0.3916
15612SOL     OW56765   3.314   2.162  10.875  0.5375  0.3522 -0.5379
15612SOL    HW156766   3.225   2.173  10.843  0.5681  2.5873 -0.0132
15612SOL    HW256767   3.306   2.107  10.953 -0.2353 -0.3409 -1.1041
15613SOL     OW56768   1.348  13.212   7.622 -0.4754  0.2828 -0.1338
15613SOL    HW156769   1.381  13.291   7.580 -0.7388 -0.8926 -2.7638
15613SOL    HW256770   1.427  13.164   7.647 -0.3161  1.2612  1.2923
15614SOL     OW56771   3.951   0.459   3.897  0.0110 -0.0879  0.0524
15614SOL    HW156772   3.969   0.404   3.972  1.1853  0.0800 -0.0838
15614SOL    HW256773   4.028   0.450   3.841 -0.2919  0.7568 -0.5347
15615SOL     OW56774  10.691  11.034   8.913 -0.3800 -0.6030  0.4957
15615SOL    HW156775  10.774  11.031   8.960 -0.3553 -0.5976  0.4544
15615SOL    HW256776  10.631  10.979   8.964 -0.7801  0.5891  1.3451
15616SOL     OW56777   2.400   8.318   0.610  0.1248  0.8269  0.1193
15616SOL    HW156778   2.392   8.399   0.660  3.0884  1.0936  0.3692
15616SOL    HW256779   2.386   8.248   0.674  1.0890  1.1750  0.7295
15617SOL     OW56780  12.452   4.967  11.772  0.0114  0.1664  0.2804
15617SOL    HW156781  12.378   4.916  11.804  0.2152  0.1111  0.6620
15617SOL    HW256782  12.462   5.038  11.836  0.8499 -0.3350  0.7210
15618SOL     OW56783  13.098   8.203  12.235  0.4025  0.1137 -0.0956
15618SOL    HW156784  13.102   8.125  12.180 -0.8311 -0.1137  0.1089
15618SOL    HW256785  13.100   8.276  12.173 -1.4739 -0.1457 -0.5321
15619SOL     OW56786   5.819  10.425   5.837  0.0800 -0.5975 -0.1041
15619SOL    HW156787   5.777  10.340   5.821 -2.0180  0.1897  0.7744
15619SOL    HW256788   5.803  10.442   5.929  1.0295  0.4837 -0.1224
15620SOL     OW56789   7.331  11.376   0.972 -0.0386  0.5440  0.2657
15620SOL    HW156790   7.339  11.281   0.986 -2.3994  0.3755  0.9836
15620SOL    HW256791   7.419  11.410   0.988  0.6882 -1.4387  0.8192
15621SOL     OW56792   3.917  10.775  11.967 -0.7393 -0.0783  0.4792
15621SOL    HW156793   3.966  10.837  12.022 -1.2057  1.3574 -0.6455
15621SOL    HW256794   3.897  10.825  11.888 -0.1317 -2.0687 -1.0057
15622SOL     OW56795  10.116  12.831   9.973 -0.1107 -0.0464  0.3184
15622SOL    HW156796  10.176  12.878  10.031 -1.8935  1.9106  0.7108
15622SOL    HW256797  10.045  12.803  10.030 -1.6216  1.4159 -0.7582
15623SOL     OW56798  13.184   6.488   3.232 -0.2387  0.0501  0.0845
15623SOL    HW156799  13.163   6.413   3.288  1.4136 -0.7796 -0.3372
15623SOL    HW256800  13.119   6.485   3.162 -0.3551 -0.8640  0.2167
15624SOL     OW56801  11.628   3.855   2.338  0.6459  0.6607 -0.3582
15624SOL    HW156802  11.619   3.950   2.348  2.2822  0.6513  1.9203
15624SOL    HW256803  11.548   3.828   2.293  0.3437  3.1547 -1.4591
15625SOL     OW56804   2.488  11.847   8.713  0.5493  0.1735 -0.2961
15625SOL    HW156805   2.443  11.763   8.724 -1.2468  1.1724  0.3764
15625SOL    HW256806   2.472  11.894   8.795 -0.3004  1.9737 -1.4384
15626SOL     OW56807   2.645   0.050   0.687 -0.0348  0.4582 -0.5032
15626SOL    HW156808   2.553   0.051   0.713 -0.0555 -0.4124 -0.5142
15626SOL    HW256809   2.673   0.141   0.694 -1.6161  1.2471 -3.0622
15627SOL     OW56810   0.947  10.141  10.323 -0.4011  1.1710 -0.2937
15627SOL    HW156811   0.894  10.148  10.403  0.7340 -1.9448  0.8608
15627SOL    HW256812   1.025  10.193  10.341 -0.4758  1.0708  0.3398
15628SOL     OW56813   7.469   3.111  11.690  0.3514  0.4897 -0.0497
15628SOL    HW156814   7.530   3.052  11.735  1.5760  2.0177  0.3651
15628SOL    HW256815   7.492   3.103  11.598 -0.2895 -0.5299 -0.1462
15629SOL     OW56816   4.117   3.384   4.592 -0.5525  0.8578 -0.3114
15629SOL    HW156817   4.026   3.358   4.606 -0.4361 -0.2938 -1.4803
15629SOL    HW256818   4.161   3.364   4.675 -1.5742  2.6315  0.7267
15630SOL     OW56819  11.160   9.098  10.534 -0.4677  0.1664 -0.6119
15630SOL    HW156820  11.081   9.147  10.559 -0.7688 -0.6811  0.1322
15630SOL    HW256821  11.210   9.090  10.615  0.2101  0.3748 -1.0058
15631SOL     OW56822   1.837   8.583  13.131 -0.6676 -0.4794 -0.0805
15631SOL    HW156823   1.904   8.551  13.070 -1.2376 -0.2126 -0.8591
15631SOL    HW256824   1.768   8.618  13.075  0.3611  3.1689  0.6364
15632SOL     OW56825   9.996   1.179   5.135  0.5309 -0.0247  0.2906
15632SOL    HW156826  10.021   1.115   5.069 -0.4143 -0.7599  0.6178
15632SOL    HW256827   9.913   1.146   5.171  1.2550  0.0933  2.1912
15633SOL     OW56828   0.043  11.685   8.015  0.5926 -0.8479  0.4075
15633SOL    HW156829   0.003  11.660   7.931 -0.1379  0.5105  0.3157
15633SOL    HW256830   0.011  11.620   8.077 -1.0418 -0.3473  0.1435
15634SOL     OW56831   7.602   6.949   0.169  0.0749  0.5777 -0.3467
15634SOL    HW156832   7.551   6.869   0.182 -0.4405  0.5808 -2.1269
15634SOL    HW256833   7.684   6.933   0.215 -1.2744  0.3734  2.1785
15635SOL     OW56834  12.999   9.435   3.305 -0.2837  0.0852  0.2582
15635SOL    HW156835  12.910   9.415   3.334 -0.2169  1.7887  1.7971
15635SOL    HW256836  12.987   9.481   3.222 -0.8277  0.1347  0.3622
15636SOL     OW56837   7.422   3.184   7.279 -0.4735 -0.0925  0.2559
15636SOL    HW156838   7.502   3.158   7.323  0.3672  0.1303 -1.0632
15636SOL    HW256839   7.451   3.213   7.192 -1.5724  2.9668  0.7676
15637SOL     OW56840   8.614  10.065  12.606 -0.3106  0.1513  0.0852
15637SOL    HW156841   8.706  10.065  12.579 -0.3219 -0.3657  0.0421
15637SOL    HW256842   8.566  10.037  12.528 -0.3741 -0.9875  0.5142
15638SOL     OW56843   0.523   6.255  13.023  0.0690 -0.0904 -0.0699
15638SOL    HW156844   0.444   6.266  12.969  1.8931 -1.3414 -3.2662
15638SOL    HW256845   0.574   6.334  13.007  0.6179 -0.4648 -0.1903
15639SOL     OW56846   0.241   7.853  10.542  0.1482  0.4746 -0.3447
15639SOL    HW156847   0.235   7.777  10.484  1.8842 -0.1633  0.2557
15639SOL    HW256848   0.154   7.858  10.584 -0.7350  0.2292 -2.0658
15640SOL     OW56849   2.691  13.127   9.530  0.1515 -0.7492  0.2003
15640SOL    HW156850   2.741  13.066   9.584  2.3184 -1.0500 -1.9377
15640SOL    HW256851   2.642  13.071   9.470 -0.5381 -0.4050  0.4365
15641SOL     OW56852   1.523   5.700  12.983  0.0672  0.1729  0.5868
15641SOL    HW156853   1.587   5.670  12.918 -0.7793  0.4568 -0.4005
15641SOL    HW256854   1.464   5.626  12.994  0.6125 -0.1296  1.5850
15642SOL     OW56855   8.812   2.705   2.284  0.3486 -0.4787  1.0291
15642SOL    HW156856   8.771   2.685   2.368 -0.9314  1.6161  0.9997
15642SOL    HW256857   8.887   2.760   2.306  1.0288 -1.3149  0.8633
15643SOL     OW56858   2.285   5.466   0.565 -0.0125 -0.3755  0.2338
15643SOL    HW156859   2.255   5.449   0.655  0.1710 -1.4515  0.1014
15643SOL    HW256860   2.311   5.559   0.566 -2.0576  0.2444  0.7042
15644SOL     OW56861  11.272   4.111   7.833 -0.2389 -0.0276 -0.0910
15644SOL    HW156862  11.221   4.189   7.811  0.9182  0.5728 -0.8007
15644SOL    HW256863  11.360   4.145   7.851  0.6403 -1.2796 -1.7643
15645SOL     OW56864   1.949  10.220   1.305 -0.6686  0.0112  0.0493
15645SOL    HW156865   1.945  10.297   1.363 -0.0010  0.4681 -0.4936
15645SOL    HW256866   1.949  10.145   1.365  3.0744  0.4957  0.8874
15646SOL     OW56867   9.167   9.130   8.330 -0.1935  0.2452  0.0048
15646SOL    HW156868   9.117   9.206   8.300 -0.5239  0.1690  0.3584
15646SOL    HW256869   9.181   9.146   8.424 -0.5358 -0.2776  0.1502
15647SOL     OW56870   4.780   9.409   4.317 -0.2695 -0.0429 -0.2305
15647SOL    HW156871   4.784   9.334   4.258 -0.7234 -0.6108  0.4458
15647SOL    HW256872   4.688   9.435   4.318 -0.3997 -0.4740  0.7387
15648SOL     OW56873  13.148  11.775   5.305 -0.0947  0.1371  0.6260
15648SOL    HW156874  13.213  11.781   5.375  0.4710  0.1480  0.1033
15648SOL    HW256875  13.126  11.682   5.300  0.7110 -0.0379  0.0669
15649SOL     OW56876   7.433   8.618   1.579  0.1597  0.6683  0.6094
15649SOL    HW156877   7.442   8.684   1.510  2.4211  0.7584  0.9038
15649SOL    HW256878   7.399   8.667   1.654 -1.5352  0.7330 -0.1461
15650SOL     OW56879  12.881   6.952   5.331  0.5842 -0.7427 -0.1957
15650SOL    HW156880  12.967   6.990   5.313  0.1523  0.3255 -0.0908
15650SOL    HW256881  12.876   6.877   5.272  0.2999  1.0683 -2.7031
15651SOL     OW56882   1.288  11.378   2.399 -0.3390 -0.0208  0.1822
15651SOL    HW156883   1.193  11.392   2.404 -0.9985 -3.8402  0.9536
15651SOL    HW256884   1.314  11.360   2.490  0.5697 -1.7396 -0.3908
15652SOL     OW56885   2.016   3.689  11.316  0.3091  0.3686  0.0159
15652SOL    HW156886   1.953   3.618  11.321 -1.7030  1.5690 -3.9644
15652SOL    HW256887   2.087   3.654  11.261 -0.1030  0.9699 -0.9343
15653SOL     OW56888   6.327  12.374   1.532 -0.3571  0.3538 -0.3581
15653SOL    HW156889   6.388  12.407   1.598 -2.4791 -0.1918  2.0498
15653SOL    HW256890   6.301  12.288   1.565 -0.2362 -0.7302 -2.8685
15654SOL     OW56891  12.025   8.704   0.376  1.0962  0.3785 -0.1248
15654SOL    HW156892  12.074   8.624   0.355  1.8564  0.4117  1.3496
15654SOL    HW256893  12.077   8.745   0.445 -1.0259  0.4085  1.5368
15655SOL     OW56894   4.130   0.030   9.792  0.6688 -0.1157  0.2676
15655SOL    HW156895   4.185   0.088   9.844  0.3816 -0.5042  1.0259
15655SOL    HW256896   4.103  -0.038   9.853  1.4449 -1.3663 -0.7372
15656SOL     OW56897   3.278  10.816  12.195 -0.1806  0.0680 -0.6679
15656SOL    HW156898   3.358  10.780  12.232 -0.6792 -0.7847 -0.3885
15656SOL    HW256899   3.212  10.749  12.210 -0.9489  0.7481 -0.9099
15657SOL     OW56900   5.790   8.109   8.921 -1.0645 -0.6694  0.0788
15657SOL    HW156901   5.789   8.019   8.954 -2.9649 -0.4020  0.9068
15657SOL    HW256902   5.772   8.162   8.999  2.0474  0.6721  0.0529
15658SOL     OW56903  12.203   2.861   3.492 -0.1572  0.4545  0.1856
15658SOL    HW156904  12.237   2.890   3.577 -1.9144  0.8735  0.7828
15658SOL    HW256905  12.108   2.873   3.498 -0.3119  0.7629 -1.9535
15659SOL     OW56906   1.918   1.287   1.732  0.0039  0.4222 -0.2263
15659SOL    HW156907   1.928   1.284   1.827  2.5569  0.2592 -0.4406
15659SOL    HW256908   1.836   1.240   1.715 -0.4186  0.3142  1.8588
15660SOL     OW56909  11.039  12.150  11.202 -0.5298  0.5742  0.0387
15660SOL    HW156910  11.128  12.184  11.190 -0.1516 -0.3829  0.0685
15660SOL    HW256911  11.001  12.205  11.271  0.5128  0.1154  0.9963
15661SOL     OW56912   9.587   0.343   1.935 -0.2126 -0.4186  0.8411
15661SOL    HW156913   9.575   0.353   2.029 -0.3362  2.5795  0.6284
15661SOL    HW256914   9.682   0.343   1.922 -0.1881 -1.2329  0.9674
15662SOL     OW56915  10.834   5.921  12.948 -0.7396 -0.0776 -0.0829
15662SOL    HW156916  10.805   5.870  13.024 -0.0385  0.7221  0.7412
15662SOL    HW256917  10.868   5.855  12.887  0.0418 -0.6413  0.9138
15663SOL     OW56918   7.608   1.401   4.358 -0.2386 -0.1214 -0.2810
15663SOL    HW156919   7.624   1.342   4.285 -1.0223 -1.5779  0.6877
15663SOL    HW256920   7.540   1.358   4.410  1.6681 -0.1481  2.3974
15664SOL     OW56921  11.019   1.979   4.508  0.5860  0.0058 -0.5900
15664SOL    HW156922  10.971   1.896   4.511 -0.9999  0.8801 -0.5211
15664SOL    HW256923  10.950   2.046   4.503  1.7683  1.4052  0.9436
15665SOL     OW56924   7.494  12.875   9.898  0.2262 -0.0493 -0.0474
15665SOL    HW156925   7.577  12.911   9.931  0.2358  0.3141 -0.4507
15665SOL    HW256926   7.451  12.950   9.856  0.1218 -0.4427 -0.6622
15666SOL     OW56927  11.015  12.351   4.858 -0.0273 -0.3398 -0.0828
15666SOL    HW156928  11.048  12.305   4.935  0.0703  0.1990  0.2016
15666SOL    HW256929  10.927  12.317   4.845 -0.0342 -0.4512  0.2471
15667SOL     OW56930   0.188   7.231  11.495  0.3890  0.1029 -0.1930
15667SOL    HW156931   0.195   7.281  11.414 -0.6980  1.7777  0.6944
15667SOL    HW256932   0.161   7.295  11.561  0.3147 -1.3943  1.2978
15668SOL     OW56933  12.236  11.382   5.414 -0.4565  0.3598  0.1513
15668SOL    HW156934  12.186  11.440   5.356 -0.6114 -0.8600 -0.9664
15668SOL    HW256935  12.169  11.333   5.462 -0.3247  0.6544  0.6398
15669SOL     OW56936  11.760  11.721   7.475  0.0114 -0.1203 -0.3334
15669SOL    HW156937  11.677  11.736   7.520  1.4806 -0.4411  2.7027
15669SOL    HW256938  11.777  11.628   7.488  1.2157  0.1062 -0.2297
15670SOL     OW56939   4.554   3.971  11.893 -0.3859  0.9223 -0.3269
15670SOL    HW156940   4.527   3.907  11.959 -0.5619  0.1743 -1.1123
15670SOL    HW256941   4.476   4.023  11.877 -0.3874  1.0037 -0.0601
15671SOL     OW56942   1.855  11.118   8.239 -0.3545 -0.4031  0.3426
15671SOL    HW156943   1.763  11.091   8.234 -0.4360  0.0429 -0.7977
15671SOL    HW256944   1.873  11.121   8.333 -1.2770 -1.2474  0.5721
15672SOL     OW56945   0.922   8.731   4.124  0.3034  1.4801 -0.0114
15672SOL    HW156946   0.839   8.703   4.163  0.0064  1.5584 -0.5732
15672SOL    HW256947   0.975   8.761   4.199  0.3689  0.1017  0.5247
15673SOL     OW56948   3.284   7.819   4.349 -0.3001  0.0543  0.1736
15673SOL    HW156949   3.326   7.895   4.390 -2.2306 -0.2099  2.9329
15673SOL    HW256950   3.190   7.833   4.362 -0.7814 -2.1540 -0.4320
15674SOL     OW56951  11.766  11.070   7.179  0.3598  0.3285 -0.4430
15674SOL    HW156952  11.696  11.008   7.200  1.1861  0.0388  1.6357
15674SOL    HW256953  11.724  11.156   7.182  0.0320  0.1425  0.6037
15675SOL     OW56954   7.080   9.722   9.590  0.2293  0.2532  0.2910
15675SOL    HW156955   7.166   9.764   9.585 -0.2022  1.3921  1.6530
15675SOL    HW256956   7.022   9.791   9.622 -1.4774 -0.1433 -1.7470
15676SOL     OW56957   9.296  12.965   4.905 -0.0431  0.0775 -0.4380
15676SOL    HW156958   9.222  12.941   4.848 -0.1340  0.7561 -0.6101
15676SOL    HW256959   9.355  12.890   4.898 -0.2001  0.0071 -1.1810
15677SOL     OW56960   3.657   9.432   2.720  1.0311  0.1369 -0.2262
15677SOL    HW156961   3.686   9.451   2.631 -0.8731  0.1811 -0.8758
15677SOL    HW256962   3.711   9.357   2.747  1.7186  0.1950 -1.3673
15678SOL     OW56963   7.304   7.244   6.315  0.0884  0.6998 -0.2484
15678SOL    HW156964   7.345   7.328   6.331  0.3404  0.5776 -0.2487
15678SOL    HW256965   7.304   7.235   6.219 -2.6721  2.0625 -0.4854
15679SOL     OW56966   1.809   6.614   8.495 -0.3216  0.4147  0.2922
15679SOL    HW156967   1.784   6.567   8.574  0.2772 -1.5050 -0.5814
15679SOL    HW256968   1.872   6.680   8.525  0.1962 -0.5304  1.3768
15680SOL     OW56969  10.825   6.187   6.010 -0.1156  0.1839  0.2375
15680SOL    HW156970  10.880   6.154   6.081  0.8196  0.0839 -0.5078
15680SOL    HW256971  10.820   6.114   5.948 -0.2588  0.5386 -0.1725
15681SOL     OW56972  11.348   9.924   1.217 -0.4750  0.1373 -0.4790
15681SOL    HW156973  11.355   9.929   1.122  0.6846 -0.4616 -0.4444
15681SOL    HW256974  11.438   9.929   1.248 -0.7732 -0.5432  0.5432
15682SOL     OW56975   6.695   1.593   3.794 -0.5129 -0.2675  0.9003
15682SOL    HW156976   6.608   1.569   3.762  0.3008 -0.3753 -1.4103
15682SOL    HW256977   6.726   1.515   3.840 -0.2255 -1.6357 -1.4664
15683SOL     OW56978  11.043   2.184   6.167 -0.0992  0.0474 -0.5436
15683SOL    HW156979  11.012   2.144   6.248 -3.1009  0.6677 -1.2571
15683SOL    HW256980  11.095   2.259   6.195  0.5061 -0.8233  0.7718
15684SOL     OW56981  11.213   3.923   6.080  0.0896 -0.3889  0.2955
15684SOL    HW156982  11.271   3.902   6.153 -0.7352  0.0098  1.0924
15684SOL    HW256983  11.132   3.876   6.100 -0.3553  0.2212 -0.0470
15685SOL     OW56984  11.920   7.821   0.640  0.4583  0.0607 -0.3589
15685SOL    HW156985  12.007   7.860   0.644  0.3268  0.3409 -0.2188
15685SOL    HW256986  11.922   7.751   0.705  0.2686  0.6923  0.3271
15686SOL     OW56987  11.079   2.473   1.994  0.1210  0.3483 -0.3226
15686SOL    HW156988  11.150   2.529   2.023  0.5041 -0.0062 -0.5741
15686SOL    HW256989  11.111   2.432   1.914 -0.6330  0.7296 -0.8344
15687SOL     OW56990   5.995   5.296   3.262 -0.3472 -0.2483 -0.3254
15687SOL    HW156991   6.069   5.341   3.222  0.8348  0.4105  2.3835
15687SOL    HW256992   5.984   5.216   3.210  0.7230  0.7691 -2.1993
15688SOL     OW56993   0.955  12.592   1.353 -0.0678  0.6336  0.0882
15688SOL    HW156994   1.024  12.644   1.392 -0.4049 -0.1792  1.8704
15688SOL    HW256995   0.894  12.575   1.424  0.2331 -2.5340 -0.2420
15689SOL     OW56996   1.333   8.690   7.590  0.2311  1.3722 -0.2305
15689SOL    HW156997   1.351   8.596   7.592 -0.6877  1.1787  2.3044
15689SOL    HW256998   1.387   8.723   7.518  1.6900 -0.8599 -0.2613
15690SOL     OW56999   7.577  12.135   2.226  0.3590  0.2368 -0.1325
15690SOL    HW157000   7.585  12.040   2.223 -0.8957  0.1043  0.2625
15690SOL    HW257001   7.498  12.154   2.176 -2.7100  0.5351  4.2593
15691SOL     OW57002   2.485   4.348   1.194  0.8082  0.2437  0.4966
15691SOL    HW157003   2.539   4.280   1.154 -1.3714 -1.8698  0.9142
15691SOL    HW257004   2.440   4.304   1.266 -2.9087  1.2831 -0.9725
15692SOL     OW57005   5.905  11.319   4.842  0.0442 -0.0744 -0.0997
15692SOL    HW157006   5.883  11.410   4.863  0.2734  0.2147 -1.0316
15692SOL    HW257007   6.000  11.316   4.844  0.1012  0.0974 -1.5091
15693SOL     OW57008   4.318   1.701  11.985 -0.0322  0.2124 -0.1183
15693SOL    HW157009   4.379   1.715  11.913  1.7622 -1.4921  0.9776
15693SOL    HW257010   4.249   1.645  11.948  0.0221  0.6445 -0.8892
15694SOL     OW57011   0.042  11.251   4.929 -0.2518  0.2372 -0.0504
15694SOL    HW157012  -0.027  11.287   4.873  0.5293  0.0178 -1.1862
15694SOL    HW257013   0.101  11.205   4.869 -0.1865 -1.3284  1.1219
15695SOL     OW57014   0.791   8.934   4.523  0.1160 -0.5769  0.0905
15695SOL    HW157015   0.700   8.963   4.520  0.9644  2.4287 -1.9458
15695SOL    HW257016   0.799   8.874   4.449  0.1032  0.4806 -0.8008
15696SOL     OW57017   3.280   6.847   5.935 -0.5026 -0.0988  0.3649
15696SOL    HW157018   3.265   6.942   5.938 -0.0189 -0.0238  0.4942
15696SOL    HW257019   3.216   6.815   5.872  0.1581  0.4840 -0.6382
15697SOL     OW57020   0.762   9.747  13.086 -0.1289 -0.1943  0.0653
15697SOL    HW157021   0.854   9.720  13.078 -0.4377 -1.0968 -0.6993
15697SOL    HW257022   0.753   9.779  13.176  0.2049 -2.9942  1.1847
15698SOL     OW57023   4.842   9.522   5.613 -0.1114  0.7150  0.1325
15698SOL    HW157024   4.888   9.596   5.574  2.2425 -0.9291 -0.3945
15698SOL    HW257025   4.864   9.527   5.706  1.4492 -0.1941 -0.1502
15699SOL     OW57026  13.084   0.694  10.901  0.6377 -0.2820  0.0864
15699SOL    HW157027  13.002   0.698  10.851 -0.1611 -2.8048  1.0329
15699SOL    HW257028  13.147   0.655  10.841  0.3450 -1.0359  0.2642
15700SOL     OW57029  11.498   1.907  11.965  0.0710 -0.4276 -0.4922
15700SOL    HW157030  11.411   1.879  11.933 -0.3932 -0.2981  0.6199
15700SOL    HW257031  11.529   1.832  12.016 -0.6885  0.6082  1.5681
15701SOL     OW57032  10.555  13.105  12.832  0.2893  0.5245  0.5561
15701SOL    HW157033  10.471  13.124  12.790 -0.3663 -2.7662  0.1414
15701SOL    HW257034  10.539  13.124  12.925 -0.4881  1.1445  0.3110
15702SOL     OW57035   7.692  11.683   4.780  0.2594 -0.4453  0.0604
15702SOL    HW157036   7.711  11.606   4.832 -2.1951 -0.3805  1.2121
15702SOL    HW257037   7.643  11.650   4.705 -0.4201 -0.0633  0.3304
15703SOL     OW57038   9.779   5.771  10.888  0.5540 -0.1996  0.1877
15703SOL    HW157039   9.748   5.696  10.940  1.1521  0.5231  1.6614
15703SOL    HW257040   9.716   5.841  10.908  1.1920  0.2920  0.5406
15704SOL     OW57041   1.064   3.271   6.941 -0.2032  0.2201  0.1341
15704SOL    HW157042   1.120   3.344   6.969  0.2504  0.4153 -1.2207
15704SOL    HW257043   1.064   3.276   6.845 -1.7354 -0.3993  0.0815
15705SOL     OW57044   0.570  11.950   1.387 -0.0012 -0.5923 -0.0237
15705SOL    HW157045   0.530  11.978   1.469 -1.5571  0.1771 -0.9877
15705SOL    HW257046   0.664  11.950   1.405 -0.3442 -1.3339  1.9974
15706SOL     OW57047  11.203   5.452   6.291 -0.6600  0.2059  0.0547
15706SOL    HW157048  11.174   5.497   6.369 -1.6705 -1.3776  0.6460
15706SOL    HW257049  11.266   5.512   6.250 -0.0252  1.0349  2.1098
15707SOL     OW57050  12.059   3.473   1.512  0.1930  0.0438 -0.0913
15707SOL    HW157051  11.995   3.542   1.531 -2.8880 -3.0609  2.0268
15707SOL    HW257052  12.141   3.507   1.547 -0.4338  3.6729 -1.6661
15708SOL     OW57053   3.965   1.485   5.305 -0.3399 -0.3470  0.3317
15708SOL    HW157054   3.891   1.478   5.243  0.1388 -1.6032 -0.1399
15708SOL    HW257055   3.924   1.481   5.391 -0.8987 -0.0935  0.0866
15709SOL     OW57056  11.038  10.533  12.656  0.2074  0.0638 -0.0093
15709SOL    HW157057  11.069  10.538  12.566 -3.1754  1.2805 -1.2577
15709SOL    HW257058  11.020  10.623  12.681 -1.1595 -0.4299  0.9684
15710SOL     OW57059   0.599   1.072   8.283  0.3265 -0.4493 -0.4246
15710SOL    HW157060   0.529   1.113   8.333  0.5296 -1.3717  0.6555
15710SOL    HW257061   0.595   1.113   8.197 -1.5573 -0.4997 -0.3917
15711SOL     OW57062   3.524  11.460   9.292  0.2194 -0.0486  0.3472
15711SOL    HW157063   3.564  11.374   9.280  1.0906  0.3100  0.6225
15711SOL    HW257064   3.444  11.443   9.342  1.5833 -0.4484  2.4961
15712SOL     OW57065  11.600   8.382   8.217 -0.3387  0.4311 -0.1008
15712SOL    HW157066  11.546   8.374   8.296  0.0796 -0.7045  0.0961
15712SOL    HW257067  11.689   8.391   8.251 -0.2783  1.0922 -0.4355
15713SOL     OW57068   7.484   8.047   6.870  0.2623  0.2455  0.5459
15713SOL    HW157069   7.502   8.138   6.891  1.6038  0.3577 -0.9550
15713SOL    HW257070   7.396   8.048   6.831 -0.0406  0.7586  1.2139
15714SOL     OW57071  11.509   0.711   9.704  0.5054 -0.2930  0.0405
15714SOL    HW157072  11.429   0.755   9.673  0.1754 -0.4217  0.6900
15714SOL    HW257073  11.508   0.724   9.799  0.2713 -1.9072  0.2856
15715SOL     OW57074   2.800   5.063   1.740 -0.4599  0.1495  0.6845
15715SOL    HW157075   2.787   5.086   1.832  1.2576 -1.9513  1.5250
15715SOL    HW257076   2.890   5.088   1.721 -0.6232  0.0488 -0.2951
15716SOL     OW57077   9.519   8.126   8.102  0.4533  0.4415 -0.1014
15716SOL    HW157078   9.559   8.066   8.038 -1.8077 -2.0250  0.6121
15716SOL    HW257079   9.527   8.081   8.186 -0.9152  1.3388  0.5466
15717SOL     OW57080   5.979   6.101   7.342 -0.4772 -0.2614 -0.7053
15717SOL    HW157081   6.048   6.034   7.346 -0.6044 -0.3969 -0.7727
15717SOL    HW257082   5.997   6.150   7.262  0.0239  0.2288 -0.2999
15718SOL     OW57083   8.969  11.448   9.078  0.4417  0.1528 -0.0093
15718SOL    HW157084   8.917  11.495   9.012 -0.2043 -0.7167 -0.1381
15718SOL    HW257085   9.056  11.441   9.040  0.5724  1.2950  0.0414
15719SOL     OW57086   1.710   4.834   2.301  0.6213  0.3003 -0.3030
15719SOL    HW157087   1.719   4.831   2.396  0.9413 -0.7364 -0.3530
15719SOL    HW257088   1.788   4.882   2.271  0.7415  0.2538 -0.0678
15720SOL     OW57089   8.960   1.658  11.218  0.0451 -0.2421  0.3533
15720SOL    HW157090   8.904   1.736  11.224  1.4840  1.1944 -2.7781
15720SOL    HW257091   9.047   1.690  11.243  0.6865 -0.7383 -1.1504
15721SOL     OW57092   7.470   6.475  11.415  0.3965  0.9065  0.8185
15721SOL    HW157093   7.510   6.483  11.329  0.7464 -0.0502  0.8809
15721SOL    HW257094   7.378   6.495  11.400  0.7417  2.3757  0.5357
15722SOL     OW57095   4.189   5.918  12.269  0.0312  0.2076  0.2472
15722SOL    HW157096   4.134   5.981  12.316 -0.4682  2.2747 -2.8198
15722SOL    HW257097   4.126   5.856  12.230  0.1298  0.4920 -0.3805
15723SOL     OW57098   1.382   2.266   7.780  0.2162  0.2096 -0.3900
15723SOL    HW157099   1.306   2.323   7.773 -1.1037 -1.2075  1.4638
15723SOL    HW257100   1.408   2.273   7.872  1.3413 -0.5785 -0.6272
15724SOL     OW57101  12.792   8.058  10.445  0.3641  0.1640  0.1015
15724SOL    HW157102  12.864   8.002  10.418 -0.6868 -0.2800 -1.9544
15724SOL    HW257103  12.730   8.056  10.372 -1.3689  1.1686  1.4359
15725SOL     OW57104   7.392   7.746  13.112  0.2237  0.7468  0.3579
15725SOL    HW157105   7.428   7.738  13.024 -0.6862 -0.9893  0.1035
15725SOL    HW257106   7.469   7.749  13.169  0.7980 -0.1540 -0.3512
15726SOL     OW57107   5.863   5.413   2.804 -0.3723 -0.3244 -0.7450
15726SOL    HW157108   5.895   5.365   2.727  1.1252 -0.4780 -0.0476
15726SOL    HW257109   5.938   5.465   2.833 -1.3816  0.9149 -0.2881
15727SOL     OW57110   8.841   3.971  10.536  0.6691 -0.0467  0.5387
15727SOL    HW157111   8.805   4.032  10.470  2.6796 -0.4905 -1.0855
15727SOL    HW257112   8.840   3.886  10.492  0.3354 -0.7148  1.8158
15728SOL     OW57113   8.191  13.230   4.553  0.5989  0.5848  0.2108
15728SOL    HW157114   8.210  13.279   4.633  2.3339  1.0980 -0.4693
15728SOL    HW257115   8.105  13.261   4.526 -0.0315  0.3741  1.8779
15729SOL     OW57116   4.025  10.778   3.048 -0.3618  0.3296  0.1200
15729SOL    HW157117   3.999  10.767   3.139 -2.9590  1.6674 -0.3609
15729SOL    HW257118   4.014  10.872   3.032 -0.7576 -0.0134 -1.7901
15730SOL     OW57119   8.828   3.828   6.320  0.5330  0.1711  0.5025
15730SOL    HW157120   8.796   3.759   6.262 -3.1543  1.9166  0.2107
15730SOL    HW257121   8.838   3.786   6.405  1.1781 -1.2929 -0.2562
15731SOL     OW57122  12.749   5.500   1.619 -0.3132 -0.0833  0.1300
15731SOL    HW157123  12.688   5.443   1.572  0.3773 -0.3050 -0.5111
15731SOL    HW257124  12.826   5.445   1.634 -0.0346  0.3794  0.4008
15732SOL     OW57125   1.102  10.666   6.155 -0.1307  0.0385  0.5559
15732SOL    HW157126   1.072  10.704   6.238 -3.2277 -1.6884  0.3499
15732SOL    HW257127   1.063  10.721   6.088  0.6157  0.1543  0.2013
15733SOL     OW57128   6.294   0.896   0.923  0.9721 -0.7435 -0.3495
15733SOL    HW157129   6.339   0.849   0.853  1.8303  1.8837 -1.6852
15733SOL    HW257130   6.356   0.964   0.950 -0.2678 -0.2165  1.3269
15734SOL     OW57131   6.484   7.657   4.832  0.3310  0.2905  0.1382
15734SOL    HW157132   6.408   7.605   4.808  1.6633 -0.7202 -2.1514
15734SOL    HW257133   6.556   7.595   4.836  1.3294  1.4371  0.8149
15735SOL     OW57134  11.906   7.181   8.318 -0.0830  0.7235 -1.2176
15735SOL    HW157135  11.843   7.150   8.253 -1.1589  1.3224 -0.4972
15735SOL    HW257136  11.852   7.210   8.392  1.0709  0.6336 -0.2999
15736SOL     OW57137   1.958   4.046   1.072 -0.1261 -0.5759  0.2132
15736SOL    HW157138   1.981   3.973   1.015  1.0182  1.2429 -1.7615
15736SOL    HW257139   2.005   4.028   1.154  0.4480 -1.8399 -0.3655
15737SOL     OW57140   4.543   7.041   0.202 -0.4758  0.8201  0.2999
15737SOL    HW157141   4.493   7.088   0.136 -1.1166  0.1961  0.3257
15737SOL    HW257142   4.483   6.973   0.234 -0.3499  1.4029  1.8662
15738SOL     OW57143   9.281   8.542   4.080 -0.3636 -0.0010  0.1058
15738SOL    HW157144   9.206   8.600   4.086 -0.6770 -0.1381 -1.8359
15738SOL    HW257145   9.357   8.599   4.093 -0.7426  0.3995  0.6007
15739SOL     OW57146   9.817  12.359   4.819 -0.2889  0.1575 -0.2539
15739SOL    HW157147   9.788  12.353   4.729 -0.8856 -0.7145 -0.0145
15739SOL    HW257148   9.737  12.362   4.871  0.0073 -1.2806  0.3508
15740SOL     OW57149  12.138   7.541   0.315 -0.2047  0.1391 -0.1812
15740SOL    HW157150  12.165   7.466   0.262 -0.2960  0.2948 -0.4491
15740SOL    HW257151  12.215   7.562   0.367 -1.0358 -1.9755  2.0838
15741SOL     OW57152  12.303   6.849  10.936 -0.2627 -0.3480  0.2094
15741SOL    HW157153  12.254   6.928  10.956  2.5965  2.1868 -1.9079
15741SOL    HW257154  12.249   6.803  10.871 -1.8226 -0.0342  1.2521
15742SOL     OW57155   0.607   8.916  11.648  0.1179  0.2371 -0.1409
15742SOL    HW157156   0.701   8.922  11.666  0.3317 -0.8900 -0.7880
15742SOL    HW257157   0.572   9.001  11.675  1.1951  0.3963  0.8256
15743SOL     OW57158  11.199   0.996   0.315 -0.7443  0.1856  0.0062
15743SOL    HW157159  11.206   1.077   0.264  0.3789 -0.2298 -0.5282
15743SOL    HW257160  11.290   0.972   0.333 -1.0015 -1.5997 -0.8998
15744SOL     OW57161  13.023   2.937   2.429  0.1515  0.0544 -0.4659
15744SOL    HW157162  13.020   2.866   2.366  1.2432 -0.0412 -0.4258
15744SOL    HW257163  13.112   2.971   2.424  0.5417 -0.5057  1.6248
15745SOL     OW57164   1.942   5.504   3.026 -0.0112 -0.0490 -0.1155
15745SOL    HW157165   1.932   5.544   3.112  0.6852 -0.1285  0.0050
15745SOL    HW257166   1.909   5.415   3.037 -1.3200  0.3864 -0.3191
15746SOL     OW57167   9.436  13.056  10.731 -0.0473 -0.2912  0.3176
15746SOL    HW157168   9.476  13.083  10.814  1.0780 -0.7466 -0.0630
15746SOL    HW257169   9.472  12.969  10.714 -0.9181 -0.5536 -0.2400
15747SOL     OW57170   3.217   6.750   3.291  0.5054 -0.3711 -0.5470
15747SOL    HW157171   3.142   6.804   3.314  1.6078  0.5413  1.0965
15747SOL    HW257172   3.186   6.696   3.219 -1.4634  0.5519 -0.4606
15748SOL     OW57173   2.724   0.116  12.165 -0.6352  0.2985  0.3539
15748SOL    HW157174   2.783   0.129  12.240 -0.8885 -1.2771  0.8681
15748SOL    HW257175   2.745   0.187  12.105  0.6859  0.6738  1.2232
15749SOL     OW57176  11.358  10.708   0.328 -0.4728 -0.5328  0.2991
15749SOL    HW157177  11.413  10.763   0.384 -1.7096 -0.5009  1.5448
15749SOL    HW257178  11.411  10.694   0.249  0.1746  1.8220  0.2300
15750SOL     OW57179   9.583   6.428   1.520  0.0335  0.1973  0.6550
15750SOL    HW157180   9.597   6.394   1.432 -2.8289 -1.4868  0.7236
15750SOL    HW257181   9.591   6.351   1.577 -1.6183  0.5335  1.4036
15751SOL     OW57182  10.988  12.792   6.792  0.0404  0.3857 -0.4677
15751SOL    HW157183  11.025  12.704   6.788  0.7387  0.5462  1.4792
15751SOL    HW257184  11.059  12.850   6.764 -0.2097  0.3760 -1.1240
15752SOL     OW57185  12.968   1.296   3.149  0.2615 -0.9790  0.5098
15752SOL    HW157186  13.055   1.304   3.110 -0.0888 -2.4034 -0.6759
15752SOL    HW257187  12.923   1.232   3.093 -1.8094  0.2806  0.6182
15753SOL     OW57188   9.541   7.027   0.856 -0.1659  1.1227 -0.3724
15753SOL    HW157189   9.492   7.088   0.802  0.8719  2.4180  0.0716
15753SOL    HW257190   9.490   7.020   0.937 -0.9249  0.4111 -0.9086
15754SOL     OW57191  10.358   2.560   5.769  0.0257  0.0582  0.0990
15754SOL    HW157192  10.443   2.574   5.809 -0.0167 -3.0407  1.5744
15754SOL    HW257193  10.357   2.468   5.744 -2.7567  0.0549 -0.1940
15755SOL     OW57194   6.953  11.003   5.846 -0.1353  0.3822  0.9705
15755SOL    HW157195   6.968  10.912   5.819 -1.3499  0.6375 -0.6972
15755SOL    HW257196   7.041  11.041   5.852  0.2736 -0.0224 -1.6285
15756SOL     OW57197  13.129   0.446   1.036 -0.0498 -0.5311  0.0229
15756SOL    HW157198  13.127   0.526   0.983  0.5387 -1.3783 -1.3353
15756SOL    HW257199  13.086   0.471   1.118  0.0889  1.1637 -0.3719
15757SOL     OW57200   2.453   2.973   2.169  0.7347 -0.5426  0.2177
15757SOL    HW157201   2.389   2.902   2.162 -0.3474  0.2433  1.7497
15757SOL    HW257202   2.482   2.971   2.260  1.3764  0.3994  0.0510
15758SOL     OW57203   2.851   5.879   9.404  0.0150 -0.4496 -0.2232
15758SOL    HW157204   2.885   5.956   9.358  0.5425 -0.3535  0.3251
15758SOL    HW257205   2.912   5.865   9.476 -0.7321 -0.6737  0.3787
15759SOL     OW57206   4.595   2.644  12.802 -0.5818 -0.2109 -0.1657
15759SOL    HW157207   4.687   2.627  12.825 -0.3578 -0.3455 -1.0967
15759SOL    HW257208   4.592   2.630  12.707 -0.7629  3.2461 -0.7978
15760SOL     OW57209   2.905   3.253   2.013 -0.5550  0.0236 -0.1064
15760SOL    HW157210   2.815   3.232   2.037 -0.6329  0.9597  0.4793
15760SOL    HW257211   2.938   3.305   2.087  1.0386 -1.7416  0.5025
15761SOL     OW57212   2.289   3.784  10.337  0.2575  0.3245  0.2852
15761SOL    HW157213   2.295   3.718  10.405 -1.6177 -0.0604  0.1278
15761SOL    HW257214   2.266   3.865  10.383  1.4080  0.6228  0.3545
15762SOL     OW57215   4.630   2.500   9.986  0.0113  0.1501 -0.7394
15762SOL    HW157216   4.600   2.463   9.903  0.7216  0.6644 -1.2388
15762SOL    HW257217   4.634   2.595   9.969 -3.0798  0.6892  0.9012
15763SOL     OW57218   1.223   5.399   4.679 -0.0898  0.6991 -0.0053
15763SOL    HW157219   1.205   5.372   4.769  0.4917 -0.9579 -0.3472
15763SOL    HW257220   1.228   5.317   4.630  0.9295  1.4884 -1.2916
15764SOL     OW57221   4.394   7.149   4.594 -0.9595 -0.2610  0.3412
15764SOL    HW157222   4.440   7.232   4.608 -2.0378  0.0864  2.1813
15764SOL    HW257223   4.347   7.161   4.511 -0.2278  0.5431  0.0293
15765SOL     OW57224   9.479  11.914   7.422 -0.0361 -0.0095  0.1209
15765SOL    HW157225   9.472  11.910   7.327 -1.6699 -2.7018  0.2477
15765SOL    HW257226   9.402  11.964   7.450  1.2954  2.1990  0.0311
15766SOL     OW57227   3.181   6.300   2.735  0.0275  0.1426  1.1515
15766SOL    HW157228   3.153   6.227   2.792 -3.8464 -0.2873 -0.9734
15766SOL    HW257229   3.156   6.378   2.784  0.6371 -0.0466  1.7922
15767SOL     OW57230   2.503   0.928  12.718  0.1670  0.5909  0.3434
15767SOL    HW157231   2.410   0.929  12.696  0.1457 -0.2531  0.3339
15767SOL    HW257232   2.545   0.897  12.638  0.6717  2.7405 -0.2909
15768SOL     OW57233   6.451   5.898   4.325  0.3451 -0.2717  0.4586
15768SOL    HW157234   6.427   5.932   4.239 -0.6229 -0.0769  0.8033
15768SOL    HW257235   6.528   5.843   4.308  1.3175  1.2582 -0.2505
15769SOL     OW57236   7.246   1.837   0.951  0.5570  0.6963 -0.0034
15769SOL    HW157237   7.244   1.933   0.943  2.1394  0.7766  0.1279
15769SOL    HW257238   7.234   1.806   0.861 -2.2777  0.8859  0.2093
15770SOL     OW57239  12.404   4.891   0.980  0.1593 -0.4526  0.0162
15770SOL    HW157240  12.459   4.963   0.948 -0.4573 -0.7485 -1.8608
15770SOL    HW257241  12.327   4.934   1.017  0.2286 -0.1023 -0.2356
15771SOL     OW57242   4.039   5.733   7.615 -0.8189  0.0268 -0.2412
15771SOL    HW157243   4.107   5.744   7.682 -1.0787 -0.7495  0.1539
15771SOL    HW257244   3.964   5.782   7.650 -2.1190 -3.0583  1.7310
15772SOL     OW57245  12.083   3.345   5.344  0.0796  0.1741  0.0830
15772SOL    HW157246  12.095   3.369   5.253 -0.8375 -0.0930 -0.1158
15772SOL    HW257247  12.149   3.395   5.391  0.7387  0.1059 -0.7541
15773SOL     OW57248  10.216   4.086  12.500 -0.1260  0.5257 -0.2662
15773SOL    HW157249  10.284   4.050  12.444 -0.0480 -0.5156  0.4729
15773SOL    HW257250  10.255   4.088  12.587 -0.7989  0.5707  0.0425
15774SOL     OW57251   4.599  10.785  12.432 -0.2721 -0.3772 -0.8632
15774SOL    HW157252   4.519  10.733  12.425 -1.0895  0.7039  0.0197
15774SOL    HW257253   4.586  10.858  12.372 -0.9823  1.0285  0.9035
15775SOL     OW57254  11.601   0.869  10.555 -0.2353  0.0796 -0.4890
15775SOL    HW157255  11.544   0.920  10.612 -2.6489 -1.1500 -1.6463
15775SOL    HW257256  11.657   0.934  10.513 -0.3654  1.2796  1.1043
15776SOL     OW57257  12.331  11.854   7.776 -0.1877  0.3376 -0.0917
15776SOL    HW157258  12.245  11.894   7.766 -0.4195  0.1332  0.8990
15776SOL    HW257259  12.392  11.927   7.773 -0.6695  0.9623  2.6227
15777SOL     OW57260  11.471  10.917   3.428  0.1623  0.0385 -0.0315
15777SOL    HW157261  11.525  10.899   3.505 -0.6607 -0.9219  0.3399
15777SOL    HW257262  11.389  10.872   3.445 -0.4499  0.7578 -0.9786
15778SOL     OW57263   9.547   7.819   0.644 -0.0515 -0.1130 -0.1384
15778SOL    HW157264   9.532   7.863   0.560 -0.7056  0.2497  0.1642
15778SOL    HW257265   9.642   7.821   0.655 -0.0232  0.6164 -0.4640
15779SOL     OW57266  11.196   2.473   1.022  0.6188  0.4750  0.2741
15779SOL    HW157267  11.142   2.528   1.078 -0.4337  1.2433 -1.4019
15779SOL    HW257268  11.284   2.511   1.027  0.4274  0.8221  1.0147
15780SOL     OW57269   0.679   0.972   6.856 -0.3646 -0.1291 -0.2418
15780SOL    HW157270   0.587   0.992   6.870 -0.2146 -0.6999  1.7475
15780SOL    HW257271   0.698   0.900   6.915  1.6591  0.7592  0.2817
15781SOL     OW57272  13.201   9.466  11.000 -0.0355  0.1834 -0.5067
15781SOL    HW157273  13.258   9.397  11.037 -1.0232 -0.0812  0.5837
15781SOL    HW257274  13.248   9.547  11.017  0.7511 -0.1448 -1.0456
15782SOL     OW57275   7.022   9.109   6.969  0.4550 -0.0873  0.2404
15782SOL    HW157276   7.037   9.203   6.961  0.8322 -0.2020 -0.4083
15782SOL    HW257277   6.935   9.102   7.009  0.1573  0.5279 -0.2856
15783SOL     OW57278   6.165  10.645   6.498  0.6416  0.2245  0.3906
15783SOL    HW157279   6.172  10.550   6.510  1.1591  0.3045  0.7475
15783SOL    HW257280   6.084  10.657   6.449  0.9489 -0.4626 -0.3021
15784SOL     OW57281   1.051   8.063   5.338  0.2576  0.2030  0.3894
15784SOL    HW157282   0.974   8.009   5.357  2.8459 -3.9763  0.5053
15784SOL    HW257283   1.106   8.054   5.416  2.7791 -0.9984 -1.3726
15785SOL     OW57284  12.384   9.054   7.242  0.1813 -0.2009  0.4714
15785SOL    HW157285  12.407   9.011   7.325 -1.4184 -2.3546 -0.1236
15785SOL    HW257286  12.341   9.136   7.269 -0.5870 -1.0018  1.7922
15786SOL     OW57287  12.749   2.165  12.469  0.5599 -0.6315 -0.1599
15786SOL    HW157288  12.656   2.182  12.484  0.9468  0.8660  0.7483
15786SOL    HW257289  12.751   2.100  12.399 -1.1265  1.6577 -2.4659
15787SOL     OW57290   8.470  11.727   3.682  0.6149 -0.1689  0.2588
15787SOL    HW157291   8.519  11.766   3.610 -1.5446 -0.4930 -1.5077
15787SOL    HW257292   8.482  11.633   3.672  0.4957 -0.2074  0.4655
15788SOL     OW57293   9.726   9.777  12.139 -0.0718  0.5215 -0.3353
15788SOL    HW157294   9.768   9.838  12.199  1.9642 -0.7763 -0.3346
15788SOL    HW257295   9.797   9.743  12.086 -1.6388  0.7651 -2.7761
15789SOL     OW57296  11.533   6.578   5.441  0.9161  0.4223  0.6390
15789SOL    HW157297  11.622   6.608   5.460  1.0438 -1.1157  2.8403
15789SOL    HW257298  11.538   6.544   5.351  2.8112 -0.4831  1.0383
15790SOL     OW57299   9.216  12.085   2.217  0.4313  0.4248 -0.3515
15790SOL    HW157300   9.200  12.179   2.226 -0.2767  0.1902  1.0018
15790SOL    HW257301   9.200  12.067   2.124 -1.2984  1.3090 -0.2509
15791SOL     OW57302   0.130   0.799  12.967 -0.1433 -0.1403  0.2507
15791SOL    HW157303   0.043   0.780  12.931 -0.4545 -1.6927  1.6626
15791SOL    HW257304   0.190   0.744  12.915 -0.0233  0.6759 -0.5008
15792SOL     OW57305   5.928   5.590   3.127  0.1611  0.4140 -0.7095
15792SOL    HW157306   5.979   5.638   3.192  1.1179 -1.9089  0.3705
15792SOL    HW257307   5.858   5.548   3.177  0.0131 -0.1913 -1.4032
15793SOL     OW57308   3.506  13.191  11.974  0.6846 -0.0586 -0.1509
15793SOL    HW157309   3.506  13.237  11.891 -0.6205  0.3415  0.0586
15793SOL    HW257310   3.504  13.098  11.951 -0.3950  0.0623 -0.5713
15794SOL     OW57311   9.627   2.323   0.209 -0.4857 -0.0566 -0.5198
15794SOL    HW157312   9.594   2.271   0.282  0.8088  0.5075  0.5115
15794SOL    HW257313   9.650   2.259   0.142  1.9584 -0.9817  1.0749
15795SOL     OW57314   1.738   5.366   2.764 -0.5990 -0.2361  0.7102
15795SOL    HW157315   1.664   5.353   2.705  0.5561  2.2320 -1.5437
15795SOL    HW257316   1.748   5.461   2.769  2.9651 -0.4078  0.0289
15796SOL     OW57317  10.290   9.681   6.915  0.0515  0.2311  0.6804
15796SOL    HW157318  10.248   9.595   6.906  0.0579  0.4397 -2.0748
15796SOL    HW257319  10.218   9.744   6.910  0.1780  0.4478  1.4145
15797SOL     OW57320   2.820   4.088   0.211  0.5493  0.3853 -0.1959
15797SOL    HW157321   2.774   4.068   0.129 -1.5971  2.5680  0.3533
15797SOL    HW257322   2.913   4.076   0.189 -0.0993 -2.4171 -1.9005
15798SOL     OW57323  10.902   8.469  10.543  0.3377  0.8267 -0.1998
15798SOL    HW157324  10.930   8.466  10.634  0.7467 -1.9987 -0.3462
15798SOL    HW257325  10.982   8.485  10.493  0.2793  1.3295 -0.1386
15799SOL     OW57326  11.077   8.500   9.373  0.5693 -1.0018 -0.1641
15799SOL    HW157327  10.996   8.453   9.393  0.4370 -0.9161 -0.5103
15799SOL    HW257328  11.067   8.585   9.415  0.5821 -1.0780 -0.0043
15800SOL     OW57329   0.836  10.177   0.083 -0.0514 -0.1470  0.4215
15800SOL    HW157330   0.828  10.261   0.038 -1.4320 -0.4166  0.1328
15800SOL    HW257331   0.750  10.136   0.074  0.9178 -2.1543 -0.5372
15801SOL     OW57332   0.133   8.596   7.820  0.1942 -0.4257 -0.0514
15801SOL    HW157333   0.069   8.637   7.762  0.2194  0.4020  0.4954
15801SOL    HW257334   0.081   8.553   7.888  0.1924 -0.7499 -0.2520
15802SOL     OW57335   3.515  11.643  11.154 -0.3016  0.0996  0.4675
15802SOL    HW157336   3.423  11.616  11.144 -0.1098  0.0722 -1.7914
15802SOL    HW257337   3.562  11.562  11.170 -0.2898 -0.4396 -1.8939
15803SOL     OW57338   0.308  12.437   9.514  0.2501 -0.1466  0.1774
15803SOL    HW157339   0.387  12.478   9.478 -0.8616  0.2675 -1.9595
15803SOL    HW257340   0.341  12.373   9.577  2.3237 -0.5528 -1.2189
15804SOL     OW57341  11.298   3.394   5.473  0.6540  0.1072  0.1495
15804SOL    HW157342  11.322   3.305   5.499 -0.9009 -1.7347 -3.9178
15804SOL    HW257343  11.206   3.403   5.498  0.1407 -0.4054 -1.4068
15805SOL     OW57344   8.862  12.856   7.134  0.5978 -0.1454  0.1861
15805SOL    HW157345   8.934  12.904   7.094  0.9352  0.1195  1.0966
15805SOL    HW257346   8.874  12.766   7.105  0.3385  0.1831 -1.0015
15806SOL     OW57347   9.567  12.008  10.944 -0.3757 -0.1389 -0.2622
15806SOL    HW157348   9.620  11.995  11.023 -0.2058  0.3781 -0.2873
15806SOL    HW257349   9.535  12.098  10.952 -2.6794 -0.9716  0.6242
15807SOL     OW57350   2.889   5.527   0.808 -0.5109  0.3415 -0.2361
15807SOL    HW157351   2.844   5.523   0.724 -2.0470 -1.3279  0.5966
15807SOL    HW257352   2.931   5.441   0.816 -1.1954  0.1131  1.1045
15808SOL     OW57353  10.412   8.455  11.649  0.2733 -0.3728  0.2048
15808SOL    HW157354  10.358   8.402  11.708  0.1882  0.8271  1.2783
15808SOL    HW257355  10.431   8.534  11.700  2.2910 -0.3569 -0.4838
15809SOL     OW57356   3.439   0.808  11.655  0.1800  0.1394  0.0780
15809SOL    HW157357   3.440   0.768  11.568  0.3331  0.6598 -0.1596
15809SOL    HW257358   3.349   0.839  11.667  0.2418  0.3580 -0.0265
15810SOL     OW57359   8.300   6.576  10.729  0.4311 -0.1854 -0.1534
15810SOL    HW157360   8.340   6.650  10.774  2.5658 -1.4765  0.2412
15810SOL    HW257361   8.235   6.543  10.790 -0.0382  0.9126 -0.0397
15811SOL     OW57362   6.095   9.484   2.100 -0.1412 -0.4903  0.1266
15811SOL    HW157363   6.091   9.459   2.192  0.9600  0.2253  0.3904
15811SOL    HW257364   6.006   9.471   2.067 -0.3833 -1.4323  1.0984
15812SOL     OW57365   1.401  11.412   1.243  0.5168  0.5472 -0.3738
15812SOL    HW157366   1.430  11.501   1.263 -2.1390  1.6485 -1.0325
15812SOL    HW257367   1.475  11.374   1.196  2.2243  1.9175  1.0171
15813SOL     OW57368   8.559   6.285  11.119 -0.2099  0.0285  0.0829
15813SOL    HW157369   8.538   6.320  11.032  0.8952 -0.0471 -0.2244
15813SOL    HW257370   8.489   6.223  11.137 -2.0015  2.0012  0.4417
15814SOL     OW57371  10.318   1.575  11.871 -0.0655  0.0556 -0.4360
15814SOL    HW157372  10.258   1.538  11.936 -1.5530 -0.0394 -1.8183
15814SOL    HW257373  10.281   1.660  11.850 -0.7996 -0.7500 -2.6355
15815SOL     OW57374   7.638   9.167   2.394  0.0501  0.6435 -0.2496
15815SOL    HW157375   7.687   9.093   2.429 -0.5533  0.1081 -0.5017
15815SOL    HW257376   7.646   9.236   2.461  0.6551  0.3657 -0.0365
15816SOL     OW57377   5.749   1.429   9.021 -0.6628 -0.6722 -0.3434
15816SOL    HW157378   5.840   1.450   9.043 -0.5207 -1.0784 -0.5349
15816SOL    HW257379   5.722   1.364   9.086 -0.9154 -0.3294 -0.1031
15817SOL     OW57380   1.990   4.240   2.872 -0.3115  0.2120 -0.6992
15817SOL    HW157381   1.949   4.289   2.943 -2.8775 -1.0123 -1.2184
15817SOL    HW257382   1.917   4.200   2.825  1.5100 -3.0108 -1.0816
15818SOL     OW57383   6.168   1.179   8.494  0.1521  0.2808 -0.0293
15818SOL    HW157384   6.235   1.219   8.549  1.3040 -0.5435 -0.7881
15818SOL    HW257385   6.141   1.100   8.542  0.4902  0.0568 -0.2018
15819SOL     OW57386  10.461   9.071   2.478 -0.0474 -0.0801 -0.1305
15819SOL    HW157387  10.501   9.125   2.410  1.6488 -0.9394  0.1336
15819SOL    HW257388  10.427   9.133   2.542  0.5571  0.6922 -0.5486
15820SOL     OW57389   3.334   9.031   3.602  0.0212 -0.5746  0.2889
15820SOL    HW157390   3.288   9.114   3.595  0.0904 -0.6293 -1.1079
15820SOL    HW257391   3.264   8.965   3.600 -0.1515 -0.5599  2.8102
15821SOL     OW57392   5.829   9.075   7.728 -0.4411  0.3755 -0.6130
15821SOL    HW157393   5.847   8.990   7.768 -0.0429  0.8783  0.3007
15821SOL    HW257394   5.856   9.065   7.636 -2.4694 -1.1735 -1.1132
15822SOL     OW57395   0.016   5.204   7.173 -1.0620  0.0670  0.2402
15822SOL    HW157396  -0.060   5.260   7.190 -0.2481  1.0177  0.8871
15822SOL    HW257397   0.070   5.212   7.252  0.0823  0.0352 -0.5088
15823SOL     OW57398   2.258   4.244   9.509 -0.0380 -0.2334  0.2577
15823SOL    HW157399   2.197   4.279   9.573 -1.1608 -1.7342  0.0676
15823SOL    HW257400   2.227   4.278   9.425  0.2580  0.1580  0.3052
15824SOL     OW57401   4.913   6.802  12.716  0.0395 -0.1806  0.5732
15824SOL    HW157402   4.970   6.798  12.639 -1.4481  0.3602 -0.5897
15824SOL    HW257403   4.829   6.767  12.687 -0.1005 -1.5191  2.4267
15825SOL     OW57404   5.555   6.050   1.005  0.0826  0.4233  0.0500
15825SOL    HW157405   5.628   6.089   1.053  0.2666  0.9311 -0.6235
15825SOL    HW257406   5.477   6.090   1.044  0.2187  0.6947  0.0465
15826SOL     OW57407   8.634  12.173   5.432 -0.3377  0.5612 -0.3803
15826SOL    HW157408   8.698  12.108   5.460 -1.1931 -0.0475  0.2047
15826SOL    HW257409   8.678  12.257   5.445  0.5526  0.1372 -0.5606
15827SOL     OW57410   4.786  12.578   5.673 -0.4090  0.5116 -0.2511
15827SOL    HW157411   4.838  12.658   5.660  1.8212 -0.8901 -0.4634
15827SOL    HW257412   4.810  12.549   5.762  2.0573 -2.0067 -1.5580
15828SOL     OW57413   6.019   6.466   7.807 -0.4904 -0.2854 -0.2015
15828SOL    HW157414   6.019   6.370   7.806 -1.8876 -0.3004 -1.4863
15828SOL    HW257415   5.933   6.489   7.841  0.2385  0.5606  1.1922
15829SOL     OW57416   6.099  12.512   3.862  0.3078  0.3552  0.0265
15829SOL    HW157417   6.178  12.563   3.876  0.8117 -0.1936 -0.7343
15829SOL    HW257418   6.030  12.561   3.907  1.1405  0.6414  1.0349
15830SOL     OW57419  11.269   8.316   8.737 -0.1023 -0.7169 -0.4624
15830SOL    HW157420  11.249   8.385   8.800 -0.5763 -1.2583 -0.0050
15830SOL    HW257421  11.340   8.266   8.778  0.1277 -0.5994 -0.7163
15831SOL     OW57422   0.563   2.827   3.283 -0.4071  0.5269 -0.3632
15831SOL    HW157423   0.512   2.904   3.307  0.5327  1.2786 -0.7320
15831SOL    HW257424   0.648   2.861   3.257 -0.1016 -0.6018 -0.9169
15832SOL     OW57425   4.325   7.086   8.559 -0.1626 -0.8275 -0.1455
15832SOL    HW157426   4.286   7.056   8.641 -4.4994  0.9248 -1.3111
15832SOL    HW257427   4.346   7.178   8.574 -0.2341 -0.7054 -0.7631
15833SOL     OW57428  12.777   9.040   2.883 -0.3095  0.8956 -0.4816
15833SOL    HW157429  12.754   9.069   2.971 -1.5604  1.2141 -0.8940
15833SOL    HW257430  12.788   8.945   2.890 -0.0745  0.9605  0.0711
15834SOL     OW57431  11.971   2.948   9.022  0.4189 -0.1247 -0.0768
15834SOL    HW157432  11.941   3.037   9.044  0.2559 -0.2606  0.2553
15834SOL    HW257433  11.891   2.896   9.019  0.6547 -0.6372  1.4939
15835SOL     OW57434   7.734   9.479   7.264 -0.1935 -0.0684 -0.1687
15835SOL    HW157435   7.676   9.518   7.329  1.1202  0.0215  0.9997
15835SOL    HW257436   7.676   9.455   7.191 -1.3860  1.8542  0.0707
15836SOL     OW57437   6.404   8.602   3.062 -0.2271 -0.3656  0.2017
15836SOL    HW157438   6.322   8.581   3.019 -0.6760  2.2072 -0.3446
15836SOL    HW257439   6.386   8.681   3.113  1.1027 -1.5307  2.6889
15837SOL     OW57440   5.951   5.970   9.210  0.2585 -0.0509  0.6355
15837SOL    HW157441   5.881   5.905   9.211  0.3131 -0.1196  0.1740
15837SOL    HW257442   6.028   5.923   9.243  0.1042  0.0107  1.0927
15838SOL     OW57443  10.644  12.874   0.433 -0.1741 -0.4693 -0.0234
15838SOL    HW157444  10.655  12.789   0.475  1.4140  0.4297  1.5080
15838SOL    HW257445  10.729  12.893   0.393 -0.8525 -0.0862 -1.3383
15839SOL     OW57446   3.536   7.611   9.548  0.4535 -0.3861  0.7876
15839SOL    HW157447   3.574   7.697   9.563  0.1623 -0.2276  0.6151
15839SOL    HW257448   3.595   7.550   9.593  2.3230 -0.4070 -1.5292
15840SOL     OW57449   6.808   3.182   3.004  0.1591  0.0937 -0.2074
15840SOL    HW157450   6.745   3.235   3.051 -0.7703 -0.4838 -0.7556
15840SOL    HW257451   6.862   3.142   3.072 -0.2922  0.3318  0.2975
15841SOL     OW57452   3.975   6.328  12.253 -0.5651  0.5588  0.3768
15841SOL    HW157453   4.061   6.343  12.213 -0.4535  1.5832  0.9852
15841SOL    HW257454   3.952   6.411  12.293 -3.1131  1.1856 -2.0850
15842SOL     OW57455   4.041  10.483   3.036 -0.1348 -0.3572  0.1071
15842SOL    HW157456   4.076  10.532   2.962  2.3644 -2.6395 -0.3866
15842SOL    HW257457   3.951  10.514   3.045 -0.7389 -0.2560 -4.1552
15843SOL     OW57458   8.907   0.406   3.749  0.2982  0.3674  0.1670
15843SOL    HW157459   8.912   0.488   3.798 -0.1573  1.0156 -0.8427
15843SOL    HW257460   8.845   0.352   3.798  0.0790  0.8870  0.4618
15844SOL     OW57461   0.446  12.313   6.936  0.5099 -0.1999  0.1932
15844SOL    HW157462   0.391  12.238   6.913  0.6087 -0.6960  1.5260
15844SOL    HW257463   0.458  12.360   6.853 -1.8694 -0.1026 -0.1520
15845SOL     OW57464   6.003   0.563   5.181 -0.5935 -0.0045  0.5329
15845SOL    HW157465   5.937   0.516   5.232  1.2027 -0.9762  2.0746
15845SOL    HW257466   6.087   0.535   5.218  0.6498  2.8649  0.1553
15846SOL     OW57467   6.921   9.621   1.575  0.3158 -0.1690  0.1981
15846SOL    HW157468   7.015   9.614   1.593  0.1618  1.0162  1.7413
15846SOL    HW257469   6.898   9.709   1.604 -1.0907 -0.0459 -1.1558
15847SOL     OW57470  10.702   5.691   8.865  0.4196 -0.1854  0.2431
15847SOL    HW157471  10.769   5.689   8.934  0.6676 -0.1547  0.0062
15847SOL    HW257472  10.647   5.765   8.888  0.8058  0.1426  0.1299
15848SOL     OW57473   8.134  11.965  12.603 -0.0730  0.0672  0.2278
15848SOL    HW157474   8.207  12.020  12.574 -0.6578  0.4837 -0.4938
15848SOL    HW257475   8.067  11.976  12.535 -0.8470 -0.2334  0.9255
15849SOL     OW57476  11.810   4.183   6.253  0.1128 -0.7234  0.1331
15849SOL    HW157477  11.828   4.227   6.170  0.3928 -0.1974  0.4663
15849SOL    HW257478  11.893   4.184   6.300 -0.5964  1.3193  1.4901
15850SOL     OW57479   5.394  11.203   9.243  0.2306 -0.1969 -0.2429
15850SOL    HW157480   5.343  11.125   9.264  0.4473 -0.4918 -0.8057
15850SOL    HW257481   5.404  11.201   9.148  0.3268  0.4607 -0.2523
15851SOL     OW57482  13.033  13.234   7.444  0.0407 -0.0897 -0.2176
15851SOL    HW157483  13.095  13.292   7.401 -0.3554  0.5413  0.0367
15851SOL    HW257484  13.009  13.280   7.525  1.6759 -1.7665  1.3286
15852SOL     OW57485   3.772  13.128   3.991  0.1953 -0.0764  0.0928
15852SOL    HW157486   3.846  13.115   3.933  1.2540  0.1280  1.3393
15852SOL    HW257487   3.782  13.061   4.059 -1.6911 -1.1028 -0.5720
15853SOL     OW57488  10.502   0.266  12.704  0.6286  0.2770 -0.3336
15853SOL    HW157489  10.569   0.231  12.646  1.3808  2.4657 -0.8712
15853SOL    HW257490  10.419   0.241  12.663  1.1478  0.0902 -1.2906
15854SOL     OW57491   5.669   4.002  12.617 -0.2942  0.2672  0.4017
15854SOL    HW157492   5.598   3.955  12.659  0.6162  0.6326  2.4689
15854SOL    HW257493   5.685   3.955  12.535 -1.9479 -0.6425  0.5729
15855SOL     OW57494   4.898   7.339   6.232  0.3195 -0.1213 -0.2663
15855SOL    HW157495   4.871   7.429   6.250  0.5897 -0.0322 -0.2932
15855SOL    HW257496   4.994   7.343   6.232  0.3449 -0.5295  0.3643
15856SOL     OW57497   6.220   9.243   1.285 -0.0893  0.3390  0.3674
15856SOL    HW157498   6.222   9.282   1.197  3.2960  1.3619  0.7376
15856SOL    HW257499   6.241   9.316   1.343  0.4594 -0.8689  1.7341
15857SOL     OW57500  10.043   0.188   5.319  0.5842 -0.2560 -0.2283
15857SOL    HW157501  10.020   0.141   5.398 -2.3256 -0.9251 -1.3537
15857SOL    HW257502  10.132   0.158   5.297  1.7124  0.3806  2.9709
15858SOL     OW57503   4.209   9.257  11.532 -0.0963  0.0477  0.4603
15858SOL    HW157504   4.167   9.230  11.614  2.3347  1.0646  2.1588
15858SOL    HW257505   4.184   9.349  11.522  1.9122  0.7889  1.7172
15859SOL     OW57506   0.462   0.039   2.989 -0.6043  0.1602 -0.3382
15859SOL    HW157507   0.425   0.078   2.910  2.8355  2.5663 -0.9553
15859SOL    HW257508   0.532  -0.018   2.958  1.7658  2.2222  0.8092
15860SOL     OW57509   6.759  12.338   8.163  0.4518  0.0374 -0.9269
15860SOL    HW157510   6.809  12.266   8.201 -0.5779 -0.8757 -1.2566
15860SOL    HW257511   6.668  12.319   8.185  0.2455  1.8180 -0.0994
15861SOL     OW57512  11.490   1.831  13.262  0.1623 -0.4187  0.3543
15861SOL    HW157513  11.491   1.859  13.353  0.6718  1.8398 -0.2927
15861SOL    HW257514  11.582   1.818  13.240  0.2120  0.9672 -0.3508
15862SOL     OW57515   7.033   7.616  10.246  0.2503  0.0733 -0.1322
15862SOL    HW157516   7.028   7.575  10.159 -1.5824  0.2917 -0.1672
15862SOL    HW257517   7.016   7.543  10.307 -0.3475  0.2574 -0.0683
15863SOL     OW57518  10.870  11.980   7.314  0.6544  0.4080 -0.0859
15863SOL    HW157519  10.821  11.898   7.308  0.1776  0.6916 -0.1038
15863SOL    HW257520  10.931  11.966   7.387 -0.2549  0.4680  0.7083
15864SOL     OW57521   4.815  12.443   5.926 -0.0100 -0.3372 -0.9474
15864SOL    HW157522   4.771  12.363   5.895  1.1022 -1.8490  1.1689
15864SOL    HW257523   4.903  12.415   5.948 -0.1637  1.0068  1.7327
15865SOL     OW57524  12.020   1.562  10.890  0.6493 -0.9123  0.0157
15865SOL    HW157525  12.076   1.488  10.915  1.7709  0.0322  0.3548
15865SOL    HW257526  12.047   1.633  10.948 -1.5055 -0.6633  0.7993
15866SOL     OW57527   0.080   9.481   0.496 -0.0409  0.5246 -0.4877
15866SOL    HW157528   0.044   9.450   0.413  1.4738  0.0432 -0.9898
15866SOL    HW257529   0.023   9.442   0.563  0.4842 -1.5448 -1.1912
15867SOL     OW57530   0.551   3.730   3.205 -0.9538 -0.2759  0.0424
15867SOL    HW157531   0.597   3.785   3.142 -1.6443  1.6258  1.1024
15867SOL    HW257532   0.527   3.790   3.275 -1.6753 -1.9868  1.3267
15868SOL     OW57533   9.011   7.802   4.875 -0.6601 -0.2377 -0.3236
15868SOL    HW157534   8.967   7.868   4.822 -0.4421  0.8401  0.7705
15868SOL    HW257535   9.098   7.793   4.836 -1.1203 -0.7972 -1.2221
15869SOL     OW57536   2.458   1.010  13.126  0.6273 -0.1941 -0.1267
15869SOL    HW157537   2.374   1.004  13.171  1.2646 -1.1756  0.9772
15869SOL    HW257538   2.502   0.927  13.145  1.9448  0.3967 -0.4782
15870SOL     OW57539  10.635   3.217   0.085 -0.2524 -0.8155 -0.6228
15870SOL    HW157540  10.608   3.147   0.145  0.6610  0.4050  1.3065
15870SOL    HW257541  10.557   3.272   0.075 -0.2830 -0.7730 -0.1623
15871SOL     OW57542  10.281  12.430  12.881  0.0084  0.1245 -0.1714
15871SOL    HW157543  10.300  12.473  12.965 -1.9259  0.8055 -0.0263
15871SOL    HW257544  10.366  12.397  12.851  0.8489  0.3751  1.7664
15872SOL     OW57545   6.228  12.630   7.535  0.3285  0.1502  0.4453
15872SOL    HW157546   6.192  12.703   7.485  1.9220  0.0194 -0.9739
15872SOL    HW257547   6.255  12.668   7.618 -0.8726  0.7081  0.5977
15873SOL     OW57548  12.206  11.430   6.542  0.4564 -0.1880  0.3906
15873SOL    HW157549  12.298  11.408   6.551  0.1548 -1.5733  0.4162
15873SOL    HW257550  12.173  11.369   6.476 -0.4841  0.1355  0.5326
15874SOL     OW57551   1.235   4.606  11.756 -0.2932 -0.4830 -0.1743
15874SOL    HW157552   1.239   4.516  11.787  1.4009 -0.2477  0.4146
15874SOL    HW257553   1.313   4.616  11.702 -1.5946  0.0227 -2.0301
15875SOL     OW57554   3.748   5.203   2.302 -0.2808  0.3158 -0.2409
15875SOL    HW157555   3.711   5.211   2.214 -0.1880  0.0353 -0.3096
15875SOL    HW257556   3.791   5.286   2.318 -2.2170  1.2479  0.4465
15876SOL     OW57557   9.716   5.532   5.528 -0.1086 -0.3821 -0.2846
15876SOL    HW157558   9.714   5.485   5.611 -0.0552  0.9090  0.4711
15876SOL    HW257559   9.772   5.608   5.544  1.0337 -0.8097 -1.9031
15877SOL     OW57560   2.879   5.721   5.558  0.5935  0.6563 -0.5562
15877SOL    HW157561   2.953   5.683   5.510  2.7693  3.2072  0.5092
15877SOL    HW257562   2.826   5.764   5.490 -0.1077 -1.3232 -1.3476
15878SOL     OW57563  11.902   8.107   6.609  0.0445  0.4932 -1.0155
15878SOL    HW157564  11.842   8.178   6.588  0.5276  1.3958  0.5005
15878SOL    HW257565  11.855   8.055   6.675  0.7972  1.0681  0.0022
15879SOL     OW57566   8.512   5.780   2.921 -0.4283 -0.4041  0.4635
15879SOL    HW157567   8.429   5.768   2.966 -0.3199 -1.6080  0.3775
15879SOL    HW257568   8.492   5.836   2.846 -1.1879 -0.8012  0.3650
15880SOL     OW57569   3.464  11.172   2.628 -0.5348  0.2546 -0.2150
15880SOL    HW157570   3.559  11.178   2.613 -0.8663  0.0502 -2.8088
15880SOL    HW257571   3.454  11.184   2.723  1.8027  3.4952 -0.2279
15881SOL     OW57572   8.771   8.942   5.376 -1.0194 -0.0738  0.6004
15881SOL    HW157573   8.864   8.962   5.385 -1.2592  0.5378  2.0245
15881SOL    HW257574   8.765   8.889   5.296  0.7472 -1.4300  1.3084
15882SOL     OW57575   9.745  11.108   9.323  0.2649  0.5485  0.3187
15882SOL    HW157576   9.777  11.075   9.239 -0.1575  0.5717  0.1455
15882SOL    HW257577   9.652  11.085   9.323  0.2662  0.5365  0.7872
15883SOL     OW57578   7.345   5.378   3.436 -0.1026  0.4624 -0.2887
15883SOL    HW157579   7.329   5.292   3.397  0.8766  0.4517 -0.7029
15883SOL    HW257580   7.416   5.363   3.498 -0.9093  0.6999  0.7079
15884SOL     OW57581   4.345   4.612   5.948  0.1635  0.3313 -0.3169
15884SOL    HW157582   4.257   4.575   5.960  0.4481 -0.1908  0.2354
15884SOL    HW257583   4.354   4.674   6.020  0.8961 -0.9027  0.6982
15885SOL     OW57584   5.911   0.796   5.789  0.4317  1.3756 -0.1916
15885SOL    HW157585   5.978   0.758   5.846 -1.3987  0.6268  1.5706
15885SOL    HW257586   5.869   0.862   5.844 -1.2235  0.7997 -0.7268
15886SOL     OW57587   3.063   0.822  10.829  0.5437 -0.0022  0.1798
15886SOL    HW157588   3.043   0.865  10.912 -1.2112  1.5298 -0.9347
15886SOL    HW257589   3.044   0.888  10.763  2.6599 -0.9021 -1.4456
15887SOL     OW57590   6.752   6.816   2.404  0.3660  0.3800 -0.1520
15887SOL    HW157591   6.715   6.793   2.319  1.7850  1.6773 -1.1688
15887SOL    HW257592   6.791   6.734   2.436 -1.1881 -0.4118 -0.1444
15888SOL     OW57593   6.395   9.532  11.830 -0.1168  0.1726 -0.0138
15888SOL    HW157594   6.386   9.623  11.801  1.6362  0.4417  0.2129
15888SOL    HW257595   6.356   9.481  11.759 -0.3047  1.0476 -0.5559
15889SOL     OW57596   9.276   1.368   1.736  0.4301 -0.2124  0.1421
15889SOL    HW157597   9.210   1.299   1.749 -0.7120  0.9181  0.5521
15889SOL    HW257598   9.317   1.346   1.652  0.4332 -1.6440  0.4870
15890SOL     OW57599   2.381   8.690   1.954  0.3715 -0.1046 -0.1539
15890SOL    HW157600   2.444   8.644   2.009  0.2374  0.9508  0.9082
15890SOL    HW257601   2.296   8.665   1.989  0.1710 -1.2773 -1.3895
15891SOL     OW57602   4.627   7.339   5.729  0.2789  0.3657 -0.0843
15891SOL    HW157603   4.703   7.341   5.787  0.9615  2.3778 -0.9942
15891SOL    HW257604   4.564   7.399   5.768 -0.4152 -0.4077  0.0377
15892SOL     OW57605  12.359   7.704   7.099  0.7829 -0.4704 -0.1560
15892SOL    HW157606  12.420   7.774   7.119  0.1188 -0.1404  0.8036
15892SOL    HW257607  12.345   7.710   7.004  0.6517  0.7680 -0.0741
15893SOL     OW57608  11.360   1.966   5.169 -0.5240 -0.2895  0.3113
15893SOL    HW157609  11.376   1.928   5.256 -1.0925 -0.8466  0.1789
15893SOL    HW257610  11.267   1.985   5.169 -0.9596 -2.1619 -0.8865
15894SOL     OW57611   1.577  11.080   0.621 -0.3792 -0.2047 -0.3126
15894SOL    HW157612   1.637  11.008   0.607  0.4619  0.6692 -1.3974
15894SOL    HW257613   1.615  11.130   0.694 -1.2610 -1.1395  0.8157
15895SOL     OW57614  12.517   2.189   6.044  0.6444  0.0919 -0.6879
15895SOL    HW157615  12.466   2.140   5.980  0.7242 -0.9407  0.0097
15895SOL    HW257616  12.599   2.210   5.998  0.7247 -0.6872 -0.9219
15896SOL     OW57617   2.137   1.695   1.731 -0.3135 -0.4113  0.0194
15896SOL    HW157618   2.155   1.610   1.771  0.9703  0.2830  1.0139
15896SOL    HW257619   2.053   1.685   1.688 -0.0786 -2.2465 -0.0658
15897SOL     OW57620  12.330   2.318   4.534  0.1479 -0.4262  0.3316
15897SOL    HW157621  12.321   2.404   4.575  0.2754 -1.5798  2.9617
15897SOL    HW257622  12.317   2.255   4.606  2.2828 -2.5930 -1.0268
15898SOL     OW57623  10.669  11.547  11.014 -0.2369 -1.5167  0.3157
15898SOL    HW157624  10.723  11.468  11.016 -1.4723 -2.3668  0.5352
15898SOL    HW257625  10.705  11.601  11.085 -0.2180 -2.4397  1.0253
15899SOL     OW57626   6.613   1.388   0.428  0.1798 -0.4749  0.0763
15899SOL    HW157627   6.604   1.328   0.354  0.7978 -0.2548 -0.1837
15899SOL    HW257628   6.691   1.439   0.408 -0.6985  0.8668 -0.0212
15900SOL     OW57629   7.934  11.217  10.009 -0.2305  0.0726 -0.0046
15900SOL    HW157630   7.841  11.235  10.021 -0.6330 -2.1676  0.7856
15900SOL    HW257631   7.940  11.185   9.919  0.0901  1.7262 -0.6060
15901SOL     OW57632   4.155   7.837   3.117 -0.5460 -0.1596  0.2510
15901SOL    HW157633   4.122   7.892   3.188  1.5299  0.6646  0.6316
15901SOL    HW257634   4.087   7.841   3.050 -0.6549  2.5883  0.4143
15902SOL     OW57635   2.398   4.620   5.677 -0.1473  0.3530 -0.1316
15902SOL    HW157636   2.319   4.569   5.692 -0.0062 -0.0272 -0.6589
15902SOL    HW257637   2.445   4.618   5.761 -0.0876 -0.4801 -0.1796
15903SOL     OW57638  10.082  12.758  12.395  0.1808 -0.6259 -0.0780
15903SOL    HW157639  10.064  12.824  12.327  0.5907 -2.0684 -1.6432
15903SOL    HW257640  10.001  12.754  12.446  0.2869  1.3759  0.3480
15904SOL     OW57641   8.651   2.220   3.433 -0.0884  0.0571 -0.1627
15904SOL    HW157642   8.579   2.178   3.386  0.2739 -1.0448  0.2427
15904SOL    HW257643   8.720   2.230   3.366  0.5224 -1.7438  0.1365
15905SOL     OW57644  13.303   3.475   1.215  0.2877  0.6188  0.0667
15905SOL    HW157645  13.341   3.445   1.133 -1.0676  0.6783 -0.6092
15905SOL    HW257646  13.229   3.530   1.189 -0.1583  0.6510  1.3212
15906SOL     OW57647   1.605  10.130   1.539  0.5467  0.1077 -0.2689
15906SOL    HW157648   1.524  10.181   1.535 -0.1052 -0.9106 -0.3757
15906SOL    HW257649   1.606  10.095   1.629 -0.5630 -2.1030 -1.0421
15907SOL     OW57650   7.570   4.887   3.323  0.4810  0.0357  0.0049
15907SOL    HW157651   7.636   4.827   3.289 -0.4149 -0.8959 -0.1385
15907SOL    HW257652   7.517   4.912   3.247  1.1466  1.4318 -0.0302
15908SOL     OW57653   6.688   8.915  10.078 -0.0311  0.4329  0.2858
15908SOL    HW157654   6.726   8.896  10.164  0.8757 -1.6036 -0.4975
15908SOL    HW257655   6.759   8.952  10.027 -0.1520  0.2647 -0.0117
15909SOL     OW57656   0.717   3.645   7.029  0.7503 -0.7684 -0.2992
15909SOL    HW157657   0.724   3.724   7.083 -0.6082 -2.0288  1.8346
15909SOL    HW257658   0.802   3.602   7.038  0.2731 -1.3892  1.6083
15910SOL     OW57659   8.759  10.332   7.708 -0.0905  0.1395  0.7084
15910SOL    HW157660   8.713  10.402   7.661 -1.8713  0.0412  2.1758
15910SOL    HW257661   8.794  10.276   7.639  0.3999  1.8448 -0.4859
15911SOL     OW57662   0.322   9.142   4.331  0.6739 -0.3954 -0.4282
15911SOL    HW157663   0.281   9.084   4.266  0.1778 -1.1087  0.4926
15911SOL    HW257664   0.308   9.230   4.296 -2.2711 -0.5268  0.1106
15912SOL     OW57665   2.512   6.676  10.288 -0.1437  0.0316 -0.4339
15912SOL    HW157666   2.562   6.718  10.358 -1.0064  0.5936 -0.1378
15912SOL    HW257667   2.422   6.671  10.322 -0.3022 -0.9435 -0.9570
15913SOL     OW57668   1.317   9.877  12.116 -0.0524 -0.0714  0.0974
15913SOL    HW157669   1.269   9.917  12.043  0.8967  1.1723  0.1185
15913SOL    HW257670   1.374   9.947  12.149  2.6661 -1.7524 -0.6688
15914SOL     OW57671   3.244  12.298  10.588  0.1645  0.5165  0.0432
15914SOL    HW157672   3.178  12.366  10.602  0.5793  1.1732 -1.1218
15914SOL    HW257673   3.292  12.294  10.671 -1.9703 -0.7122  1.3026
15915SOL     OW57674   0.791   9.566   9.334  0.2227  0.1165  0.2900
15915SOL    HW157675   0.788   9.497   9.400  1.3431 -0.9227 -0.7044
15915SOL    HW257676   0.716   9.548   9.277 -0.9719  1.2370  1.4345
15916SOL     OW57677  10.114   3.621   4.346 -0.1859  0.1297  0.0451
15916SOL    HW157678  10.098   3.555   4.278 -0.2847 -0.7229  0.8843
15916SOL    HW257679  10.031   3.627   4.393  0.3798 -0.5174  1.1478
15917SOL     OW57680   0.528   2.522  10.315  0.6973 -0.4369 -0.4090
15917SOL    HW157681   0.567   2.574  10.244  0.6379  1.2262  0.7273
15917SOL    HW257682   0.436   2.515  10.291 -0.0147  2.7297  0.8656
15918SOL     OW57683   3.796   6.088   4.047  0.3388  0.2048 -0.4075
15918SOL    HW157684   3.728   6.033   4.008 -1.0312  0.1662  1.7993
15918SOL    HW257685   3.807   6.161   3.986 -0.4736 -0.6537 -1.6170
15919SOL     OW57686   9.330   2.963   1.821  0.1105 -0.1079  0.3830
15919SOL    HW157687   9.378   3.041   1.848  0.3446 -0.4874  1.0899
15919SOL    HW257688   9.244   2.972   1.863  0.0491 -0.1048  0.2570
15920SOL     OW57689  12.796  11.334   3.268  0.2760 -0.0363  0.4337
15920SOL    HW157690  12.768  11.283   3.191  2.7480 -0.9042  0.0389
15920SOL    HW257691  12.807  11.423   3.234 -0.0509 -0.1033  0.1383
15921SOL     OW57692  10.627   5.247   1.991 -0.2125 -0.3011  0.5676
15921SOL    HW157693  10.557   5.226   2.053  0.6082  2.4222  2.6303
15921SOL    HW257694  10.592   5.321   1.941  0.3713 -0.3562  0.0759
15922SOL     OW57695  12.154   6.961   9.582 -0.5013 -0.3625 -0.2751
15922SOL    HW157696  12.058   6.961   9.580 -0.6263 -1.9270  2.0732
15922SOL    HW257697  12.179   6.879   9.541 -0.1294  0.1310 -1.0585
15923SOL     OW57698   1.970   3.548   2.970  0.0434  0.1501 -0.3073
15923SOL    HW157699   2.065   3.548   2.969  0.0693 -1.4550 -1.0619
15923SOL    HW257700   1.945   3.552   2.877 -0.6535  1.3138 -0.0933
15924SOL     OW57701   6.646   1.114   9.007 -0.6262 -0.6878  0.2795
15924SOL    HW157702   6.595   1.158   8.939 -0.1477  1.2347  1.0945
15924SOL    HW257703   6.735   1.110   8.971 -0.5942 -0.6257  0.3505
15925SOL     OW57704   0.689  10.221   1.594 -0.0186 -0.0361 -0.2120
15925SOL    HW157705   0.754  10.211   1.663 -0.7572  0.1211  0.5273
15925SOL    HW257706   0.668  10.132   1.567  1.0706 -0.0720 -1.0286
15926SOL     OW57707   5.145   7.154   9.499 -0.1691 -0.2197 -0.4103
15926SOL    HW157708   5.062   7.115   9.527  0.2225 -1.9580 -1.4818
15926SOL    HW257709   5.189   7.083   9.451  1.4926  0.9770 -0.7220
15927SOL     OW57710   8.262   7.866   9.765  0.0741 -0.4300  0.2556
15927SOL    HW157711   8.209   7.873   9.686  1.1138  1.6863 -0.3266
15927SOL    HW257712   8.211   7.910   9.833  0.3197  0.0926  0.1075
15928SOL     OW57713  11.808   0.835   1.326  0.2217 -0.1222  0.2337
15928SOL    HW157714  11.807   0.752   1.373  0.0522 -0.4053 -0.2639
15928SOL    HW257715  11.719   0.869   1.337 -0.1392 -0.7028 -0.7738
15929SOL     OW57716   0.821  11.201   6.513  0.1062 -0.0107  0.1820
15929SOL    HW157717   0.818  11.243   6.599  0.5943  1.8330 -0.6538
15929SOL    HW257718   0.896  11.141   6.518  1.3020  1.4552  0.4703
15930SOL     OW57719  10.078   9.351   7.916 -0.3060  0.5413 -0.3901
15930SOL    HW157720  10.091   9.341   8.011  1.1518 -2.0293 -0.7419
15930SOL    HW257721   9.993   9.310   7.899 -0.2012  0.2675 -0.2684
15931SOL     OW57722   8.600  11.119   5.921 -0.1623  1.2825 -0.2186
15931SOL    HW157723   8.541  11.195   5.920  0.4199  1.7425 -1.4049
15931SOL    HW257724   8.557  11.055   5.865 -0.2744  1.0415  0.1464
15932SOL     OW57725  13.300   0.502   4.254 -0.6986 -0.5273  0.5619
15932SOL    HW157726  13.262   0.434   4.309 -1.7453 -0.5411 -0.1696
15932SOL    HW257727  13.228   0.561   4.234  0.1734  0.7951  1.1470
15933SOL     OW57728   2.157  11.953  10.847 -0.0722 -0.1238 -0.4321
15933SOL    HW157729   2.140  11.860  10.864  0.8291 -0.5070 -1.5133
15933SOL    HW257730   2.210  11.954  10.768  1.7318  1.1812  0.6966
15934SOL     OW57731   9.483   0.272   1.659 -0.2937  0.7943 -0.0812
15934SOL    HW157732   9.491   0.292   1.753 -1.7938  0.7034  0.0903
15934SOL    HW257733   9.498   0.178   1.652 -0.5422  0.7364  0.1340
15935SOL     OW57734   4.103   9.004   9.861 -0.1457 -0.1388  0.3164
15935SOL    HW157735   4.129   9.084   9.908  2.1915 -0.1531 -0.8064
15935SOL    HW257736   4.157   8.935   9.900 -0.4547 -0.7292 -0.2898
15936SOL     OW57737  12.032   2.194   0.658  0.2128 -0.2728  0.3038
15936SOL    HW157738  11.987   2.135   0.718 -1.9998  1.0185  0.0413
15936SOL    HW257739  12.070   2.262   0.714 -0.9735  0.3713  0.3632
15937SOL     OW57740   9.117  11.504   9.982  1.3368 -0.0459 -0.1588
15937SOL    HW157741   9.120  11.409   9.998 -0.7317 -0.1539 -0.1546
15937SOL    HW257742   9.192  11.538  10.031  1.5395 -1.5688  0.6694
15938SOL     OW57743   4.193   2.431   9.147 -0.3543 -0.4514  0.4527
15938SOL    HW157744   4.209   2.483   9.226  3.0430 -1.0661  0.3162
15938SOL    HW257745   4.150   2.491   9.087  0.5362  1.2351  1.4309
15939SOL     OW57746  11.213   8.895   8.480 -0.1202  0.0229 -0.1160
15939SOL    HW157747  11.170   8.843   8.547  4.2364 -3.2805  0.5410
15939SOL    HW257748  11.184   8.858   8.397 -0.1302 -0.7287  0.2214
15940SOL     OW57749  11.109   7.217   3.760 -0.3072  0.1095  0.4224
15940SOL    HW157750  11.151   7.182   3.839  0.7411 -1.4842 -0.7936
15940SOL    HW257751  11.174   7.275   3.721 -1.2129  1.7488  1.2268
15941SOL     OW57752   2.071   5.491   9.706 -0.4701  0.2628  0.5752
15941SOL    HW157753   2.117   5.432   9.646 -0.1894  1.6480 -0.6371
15941SOL    HW257754   2.093   5.579   9.675 -1.4951  1.0060  1.8426
15942SOL     OW57755   0.579   7.289   5.304  0.3358 -0.0695  0.0542
15942SOL    HW157756   0.522   7.294   5.381  0.9449 -1.0271  0.5912
15942SOL    HW257757   0.612   7.378   5.293  2.3593 -0.3722  2.5825
15943SOL     OW57758   3.145   7.155   2.461 -0.0745 -0.7205 -0.5876
15943SOL    HW157759   3.169   7.232   2.512 -0.1515 -1.8461  1.2342
15943SOL    HW257760   3.195   7.163   2.380  0.8453  0.6255  0.0745
15944SOL     OW57761   8.730  13.041   4.240  0.0814  0.4748 -0.7908
15944SOL    HW157762   8.794  13.051   4.169 -0.0699  0.4483 -0.9310
15944SOL    HW257763   8.759  13.104   4.307 -1.4110  2.6630 -2.0733
15945SOL     OW57764   0.602   0.060   2.237 -0.3467  0.1891 -0.0676
15945SOL    HW157765   0.521   0.089   2.280  0.1669  1.5562  0.0191
15945SOL    HW257766   0.600  -0.035   2.245 -0.6864  0.3194  2.2558
15946SOL     OW57767   2.713   3.432   2.467  0.5440 -0.0807 -0.5959
15946SOL    HW157768   2.737   3.342   2.442  1.0752 -0.0902 -0.0716
15946SOL    HW257769   2.636   3.422   2.522  0.5550 -0.2113 -0.6025
15947SOL     OW57770   2.595  11.726   0.059  0.2897  0.5585  0.7584
15947SOL    HW157771   2.517  11.673   0.041  0.2758  0.7004  0.3811
15947SOL    HW257772   2.603  11.783  -0.018  3.6221 -2.8163 -1.7666
15948SOL     OW57773   4.967  12.797   5.665 -0.1480 -0.6040  0.5683
15948SOL    HW157774   5.048  12.746   5.663  0.8527  0.9326 -0.1192
15948SOL    HW257775   4.988  12.873   5.721 -0.7464  0.3623 -0.4739
15949SOL     OW57776   4.732  10.516  12.367  0.0467  0.4301  0.2449
15949SOL    HW157777   4.670  10.589  12.358 -2.5818 -1.6557  0.2414
15949SOL    HW257778   4.698  10.448  12.309  1.0596 -1.6432  1.9548
15950SOL     OW57779   7.691   4.943  11.933 -0.3045 -0.3845 -0.0841
15950SOL    HW157780   7.670   5.034  11.911 -1.4737 -0.4271  0.7773
15950SOL    HW257781   7.741   4.912  11.858  0.4302  1.0670 -0.2436
15951SOL     OW57782  11.448   1.468   9.421 -0.0035 -0.6550  0.4933
15951SOL    HW157783  11.387   1.433   9.486 -1.0326 -2.7614 -1.4740
15951SOL    HW257784  11.444   1.563   9.432 -1.0388 -0.8935  2.6438
15952SOL     OW57785   7.565  11.829   1.806 -0.0904  0.3655  0.5193
15952SOL    HW157786   7.650  11.828   1.761 -1.0722  2.0642 -1.5679
15952SOL    HW257787   7.521  11.750   1.774  1.0203 -1.1731  2.5062
15953SOL     OW57788   0.278   6.269   1.362  0.1169 -0.3563 -0.2058
15953SOL    HW157789   0.359   6.250   1.314 -0.2316  0.3358 -1.0992
15953SOL    HW257790   0.221   6.311   1.297 -0.8164 -0.4764  0.5127
15954SOL     OW57791  12.736   3.534  11.211 -0.4373 -0.1431  0.3891
15954SOL    HW157792  12.645   3.541  11.181 -1.0344 -1.0988  1.8387
15954SOL    HW257793  12.734   3.570  11.300  1.5056  3.7526 -0.9029
15955SOL     OW57794   4.932   9.265  10.019 -0.3149 -0.3960 -0.1075
15955SOL    HW157795   4.938   9.290  10.111  0.6985  0.6298 -0.4246
15955SOL    HW257796   4.899   9.343   9.975 -2.8284 -1.5100 -0.3820
15956SOL     OW57797   3.156   6.593   3.070 -0.2999  0.2514 -0.2978
15956SOL    HW157798   3.088   6.526   3.080 -0.6679  0.4654 -1.1990
15956SOL    HW257799   3.159   6.609   2.975 -1.0977  2.4145 -0.0005
15957SOL     OW57800   8.555   8.520   6.473 -0.2869  0.4692  0.4332
15957SOL    HW157801   8.556   8.495   6.566  0.3787  0.6084  0.4653
15957SOL    HW257802   8.532   8.614   6.474  2.1457  1.1232  0.6312
15958SOL     OW57803   3.195   1.764  10.114  0.4004 -0.2118  0.0814
15958SOL    HW157804   3.275   1.804  10.081 -0.1884 -0.7880 -2.2982
15958SOL    HW257805   3.166   1.821  10.185  2.2988  0.6196  0.2473
15959SOL     OW57806   3.140   8.758   2.357 -0.2199  0.2393  0.4750
15959SOL    HW157807   3.153   8.681   2.301 -1.5807  0.0705  0.3451
15959SOL    HW257808   3.107   8.723   2.440  0.6466  0.5776  0.9676
15960SOL     OW57809   2.997   1.118   8.117  0.2656  0.0260 -0.5297
15960SOL    HW157810   2.972   1.131   8.208  0.9783  0.7368 -0.4280
15960SOL    HW257811   2.914   1.114   8.070 -0.1375 -1.0312  0.2222
15961SOL     OW57812  11.316   5.558  13.252  0.3256  0.1985  0.2049
15961SOL    HW157813  11.238   5.555  13.197  0.1564  0.1341  0.4453
15961SOL    HW257814  11.341   5.650  13.255  0.1873  0.2342  0.2292
15962SOL     OW57815   9.522   9.558   2.859 -0.1688 -0.0484 -0.1043
15962SOL    HW157816   9.426   9.553   2.857 -0.1607 -2.6782  1.4214
15962SOL    HW257817   9.551   9.495   2.793  0.4478 -0.8334  0.8808
15963SOL     OW57818   5.422   0.642  13.230 -0.2460 -0.3154 -1.1155
15963SOL    HW157819   5.373   0.724  13.231  1.1347  0.5690  1.2003
15963SOL    HW257820   5.494   0.657  13.169 -0.5546 -0.1417 -1.4338
15964SOL     OW57821   7.149   2.407   2.419 -0.1173 -0.0677 -0.0203
15964SOL    HW157822   7.107   2.483   2.379  0.9046 -0.5311 -2.1350
15964SOL    HW257823   7.105   2.332   2.379 -0.9490 -0.6564  1.8612
15965SOL     OW57824  12.827   1.554  10.593 -0.4000  0.5492 -0.2473
15965SOL    HW157825  12.914   1.593  10.590 -0.2297  0.1321 -0.9046
15965SOL    HW257826  12.771   1.615  10.547 -0.6925  1.3671  1.1303
15966SOL     OW57827   3.450  11.240  11.777 -0.4842  0.0693  0.2873
15966SOL    HW157828   3.382  11.223  11.842 -0.3738 -1.3546  0.0605
15966SOL    HW257829   3.404  11.276  11.702 -0.9007 -0.2430  0.3892
15967SOL     OW57830   6.645  11.766   4.048  0.4274  0.8147 -0.3636
15967SOL    HW157831   6.711  11.742   4.113  0.7164 -0.0151 -0.9458
15967SOL    HW257832   6.695  11.797   3.973  0.1965 -0.4087 -1.0461
15968SOL     OW57833   3.550   3.211   2.553  0.4787 -0.1853 -0.5178
15968SOL    HW157834   3.630   3.159   2.559  0.3287 -0.3924 -0.3101
15968SOL    HW257835   3.548   3.242   2.462  1.7041  1.2861 -0.0921
15969SOL     OW57836  10.120  11.204   0.845  0.4850  0.2609  0.4483
15969SOL    HW157837  10.154  11.140   0.907  1.2740  0.9291  0.7199
15969SOL    HW257838  10.058  11.155   0.791 -0.2922 -0.3219  1.8111
15970SOL     OW57839   7.965   7.113   3.113  0.4021 -0.6021  0.0647
15970SOL    HW157840   7.911   7.034   3.104  2.0941 -1.9882  1.1510
15970SOL    HW257841   7.928   7.159   3.188  0.1824 -1.0625  0.2467
15971SOL     OW57842   8.552   5.126  11.850 -0.0756  0.3050  0.4844
15971SOL    HW157843   8.584   5.125  11.760  1.0507  1.2198  0.8515
15971SOL    HW257844   8.617   5.076  11.899 -1.3538 -1.3302  0.6227
15972SOL     OW57845  11.189  10.952   8.603  0.2079 -0.0580 -0.2012
15972SOL    HW157846  11.181  10.913   8.690 -0.2191 -1.0523 -0.6802
15972SOL    HW257847  11.237  10.887   8.552  0.5352  0.5612 -0.6907
15973SOL     OW57848   5.823   4.262   2.647  0.8379  0.0139 -0.9864
15973SOL    HW157849   5.815   4.294   2.737  0.2732 -1.4037 -0.5091
15973SOL    HW257850   5.775   4.326   2.595 -0.4359 -0.1462 -0.0393
15974SOL     OW57851   0.537   0.258   1.829 -0.2833  0.3931 -0.3704
15974SOL    HW157852   0.553   0.164   1.841  0.4629  0.5354 -0.1850
15974SOL    HW257853   0.614   0.300   1.867 -0.6500  1.0883 -0.3795
15975SOL     OW57854   1.255   4.767   9.221 -0.2764 -0.5589 -0.0199
15975SOL    HW157855   1.234   4.774   9.127  1.6817 -0.9797 -0.5288
15975SOL    HW257856   1.277   4.675   9.233 -2.9328 -1.0961  1.4606
15976SOL     OW57857   8.002   7.532   8.004 -0.1710 -0.8121 -0.5454
15976SOL    HW157858   7.984   7.533   7.910 -0.0740 -0.7569 -0.5635
15976SOL    HW257859   7.916   7.541   8.045 -0.7789 -4.7355 -0.5551
15977SOL     OW57860   9.061   7.365   2.038 -0.1132 -0.4324 -0.0247
15977SOL    HW157861   9.007   7.327   1.969 -0.4699  0.8660 -0.4867
15977SOL    HW257862   9.093   7.447   2.001 -0.3908  0.3339  1.3947
15978SOL     OW57863  11.153   3.194  10.711 -0.2275  0.3612 -0.1894
15978SOL    HW157864  11.206   3.115  10.709  0.7294  0.9876 -0.4043
15978SOL    HW257865  11.167   3.231  10.798 -0.6095  0.3409 -0.1174
15979SOL     OW57866   3.340   0.014   4.265  0.0822 -0.1471  0.4868
15979SOL    HW157867   3.382   0.037   4.348  0.7314 -0.2713  0.2076
15979SOL    HW257868   3.252  -0.015   4.289  0.3246 -0.3493  1.1503
15980SOL     OW57869  10.261   5.739   6.663  0.0506  0.4835 -0.2600
15980SOL    HW157870  10.320   5.721   6.590 -1.2490 -0.2876 -1.1486
15980SOL    HW257871  10.294   5.685   6.735  0.8842  0.6579 -0.5075
15981SOL     OW57872   5.401   4.610  12.430  0.3781 -0.0010  0.3713
15981SOL    HW157873   5.494   4.595  12.447  0.7732  0.6574 -1.0235
15981SOL    HW257874   5.400   4.661  12.349 -1.2449 -0.8026 -0.1477
15982SOL     OW57875   1.155   5.112  11.742  0.0831 -0.1012 -0.4747
15982SOL    HW157876   1.218   5.055  11.787 -0.9277 -0.5070  0.4886
15982SOL    HW257877   1.097   5.142  11.812  0.2972  1.7530 -1.0399
15983SOL     OW57878   7.405   0.335  12.744 -0.9577  0.1967 -0.1390
15983SOL    HW157879   7.317   0.346  12.778 -0.7887 -0.2881  0.4573
15983SOL    HW257880   7.445   0.268  12.799 -0.2983  0.2292 -0.5600
15984SOL     OW57881   9.150  12.742  12.222 -0.3322 -0.4431  0.0745
15984SOL    HW157882   9.152  12.688  12.300  0.9350 -1.2536 -0.4794
15984SOL    HW257883   9.203  12.694  12.158 -1.2982  0.2116 -1.2719
15985SOL     OW57884   5.536   6.479   7.420 -0.6391  0.2172 -0.6313
15985SOL    HW157885   5.501   6.475   7.331 -0.3264  0.9622 -0.7971
15985SOL    HW257886   5.629   6.497   7.407 -0.5344  0.0171 -0.1553
15986SOL     OW57887  13.181  10.013  13.190  0.2487  0.0120  0.4864
15986SOL    HW157888  13.159   9.976  13.105  2.3893  0.7521 -0.4374
15986SOL    HW257889  13.203  10.104  13.172 -1.2926  0.7820  2.1762
15987SOL     OW57890  10.941   3.024   5.896 -0.2261 -0.1608 -0.9839
15987SOL    HW157891  11.021   2.978   5.922 -1.0110 -1.2680 -0.4639
15987SOL    HW257892  10.971   3.112   5.873  0.8613  0.0791  1.1459
15988SOL     OW57893   3.499   3.027   7.909 -0.0886 -0.0782  0.1204
15988SOL    HW157894   3.450   2.960   7.862 -1.1140  1.0502 -0.4811
15988SOL    HW257895   3.432   3.086   7.944  0.7336  0.0244  1.6104
15989SOL     OW57896   0.484  11.012  12.871  0.1552 -0.5080  0.0864
15989SOL    HW157897   0.430  10.979  12.799 -0.8248 -0.4807  0.7951
15989SOL    HW257898   0.455  11.102  12.883  1.3343 -0.0376 -0.4275
15990SOL     OW57899   1.737   0.883   7.459  0.4396 -0.5223 -0.4778
15990SOL    HW157900   1.679   0.879   7.534 -0.0606  0.9969 -0.7605
15990SOL    HW257901   1.825   0.886   7.497  0.1864  0.3911  0.0698
15991SOL     OW57902  10.538   9.535   5.395  0.3238  0.0737 -0.6278
15991SOL    HW157903  10.468   9.599   5.387  0.0740 -0.3387 -1.9495
15991SOL    HW257904  10.618   9.584   5.374  0.3557  0.3641  0.1426
15992SOL     OW57905   0.066   7.085   4.881  0.2087 -0.7302 -0.1090
15992SOL    HW157906   0.105   7.015   4.829  3.0053 -0.0041  0.8439
15992SOL    HW257907   0.031   7.041   4.958  1.4151 -1.1882  0.2049
15993SOL     OW57908  11.194  11.378   8.215  0.1365  0.6351  0.4200
15993SOL    HW157909  11.163  11.345   8.299 -1.4036  1.4969  0.2256
15993SOL    HW257910  11.252  11.309   8.182 -1.4114 -0.9782  0.9159
15994SOL     OW57911   6.620  11.322  13.084 -0.5077  0.3295  0.4545
15994SOL    HW157912   6.709  11.321  13.119  0.0703  3.1667 -0.7283
15994SOL    HW257913   6.596  11.229  13.078  1.3526 -0.4596  3.1629
15995SOL     OW57914   9.595   6.417   7.089 -0.4164  0.1612  0.1208
15995SOL    HW157915   9.583   6.328   7.057 -2.7687  1.2194 -2.3091
15995SOL    HW257916   9.681   6.443   7.054 -0.6196 -0.4907 -0.9017
15996SOL     OW57917   9.987   3.916  12.607 -0.1312  0.0505  0.3410
15996SOL    HW157918  10.017   3.990  12.553  0.5966  0.2521  0.9963
15996SOL    HW257919   9.927   3.956  12.671 -0.3222 -0.0475  0.2233
15997SOL     OW57920   5.570  10.045   5.154 -0.2706  0.3324 -0.5729
15997SOL    HW157921   5.502  10.112   5.161  0.4898  0.9782  1.6372
15997SOL    HW257922   5.622  10.056   5.234  1.9843 -0.6177 -1.8187
15998SOL     OW57923   9.588   4.172   4.504 -0.0164  0.1520  0.2123
15998SOL    HW157924   9.633   4.157   4.587 -0.5199  0.8627  0.6189
15998SOL    HW257925   9.624   4.105   4.446  2.2695  1.2593  0.2341
15999SOL     OW57926  10.092  11.483   7.807  0.2635 -0.2751 -0.2169
15999SOL    HW157927  10.137  11.567   7.816 -0.1933  0.0792 -1.0881
15999SOL    HW257928  10.154  11.419   7.841  0.6657  0.4025  0.3480
16000SOL     OW57929   5.491  12.085   7.495  0.1624  0.2318  0.5639
16000SOL    HW157930   5.528  12.011   7.446  0.7073  1.1046 -0.3651
16000SOL    HW257931   5.402  12.095   7.460  0.1400  0.1248  0.5885
16001SOL     OW57932   4.377  13.290  13.233 -0.1550  0.2531  0.1056
16001SOL    HW157933   4.347  13.327  13.150  0.0421 -1.1434 -0.6342
16001SOL    HW257934   4.439  13.354  13.267  1.3380 -0.0420 -1.8742
16002SOL     OW57935  13.229   4.436   0.072  0.1363  0.1401  0.1654
16002SOL    HW157936  13.313   4.414   0.114  0.3588 -0.7062 -0.6718
16002SOL    HW257937  13.195   4.508   0.124  1.7502  1.0250  0.0796
16003SOL     OW57938   5.505  10.322   7.990 -0.3910  0.3888  0.3772
16003SOL    HW157939   5.454  10.402   7.996 -1.5447 -0.2766 -0.1499
16003SOL    HW257940   5.479  10.282   7.907 -0.8668 -1.1776  1.2341
16004SOL     OW57941   1.040   1.433   0.530 -0.3353  0.0443  0.3947
16004SOL    HW157942   1.072   1.372   0.598  1.4092 -0.4989 -0.8382
16004SOL    HW257943   0.985   1.379   0.474 -0.8629  0.2321  0.7206
16005SOL     OW57944   1.099   9.593   8.478 -0.2323  0.3253  0.3941
16005SOL    HW157945   1.005   9.599   8.494 -0.2577  0.5299  0.1781
16005SOL    HW257946   1.106   9.573   8.384 -0.0919 -1.0312  0.6751
16006SOL     OW57947  12.003   8.136   2.415 -0.2735 -0.2502  0.6251
16006SOL    HW157948  12.056   8.191   2.473 -1.9545  2.2223 -0.0207
16006SOL    HW257949  11.913   8.162   2.433 -0.8962  1.0335 -3.3251
16007SOL     OW57950  10.010   1.789   3.307  0.0560  0.1202  0.3672
16007SOL    HW157951  10.104   1.796   3.293  0.0258 -0.8528 -0.4225
16007SOL    HW257952   9.978   1.739   3.232 -1.3100  1.6659 -0.1518
16008SOL     OW57953   2.258   5.171   2.174 -0.4388 -0.6848  0.3679
16008SOL    HW157954   2.229   5.159   2.264 -0.3273 -0.2801  0.4586
16008SOL    HW257955   2.312   5.250   2.176  1.0441 -1.6367  0.3039
16009SOL     OW57956   1.432   4.595   3.973 -0.4368 -0.3296  0.3225
16009SOL    HW157957   1.404   4.522   4.029 -0.3517 -1.3975 -0.9687
16009SOL    HW257958   1.350   4.637   3.946 -0.6786 -1.4238 -0.7962
16010SOL     OW57959   7.818   7.231  12.880 -0.0460 -0.1596  0.2507
16010SOL    HW157960   7.728   7.204  12.896  0.8998 -3.9977  0.1344
16010SOL    HW257961   7.863   7.216  12.964  0.7125  0.6138  0.0004
16011SOL     OW57962   6.985  13.246   5.503  0.2724  0.1873  0.1032
16011SOL    HW157963   7.001  13.300   5.580  0.7818 -1.2603  1.0630
16011SOL    HW257964   6.969  13.158   5.538 -2.7651  0.0720 -1.2370
16012SOL     OW57965   6.482   9.760   3.426 -0.1643  0.1451 -0.1595
16012SOL    HW157966   6.452   9.844   3.460 -1.6328 -0.7261  0.8115
16012SOL    HW257967   6.437   9.750   3.343  0.1458  0.3767 -0.3600
16013SOL     OW57968   5.914   0.324   5.584 -0.5030 -0.0831  0.1459
16013SOL    HW157969   5.924   0.383   5.658 -0.3532  1.7174 -1.2251
16013SOL    HW257970   5.881   0.243   5.622  2.1856 -0.2218  2.5087
16014SOL     OW57971  12.202   0.836   8.808 -0.6467  0.0238 -0.1551
16014SOL    HW157972  12.231   0.928   8.808  2.1546 -0.7808 -1.3376
16014SOL    HW257973  12.204   0.811   8.900  0.4916  0.6083 -0.0059
16015SOL     OW57974  12.983   4.771   7.923 -0.1308 -0.2034  0.1965
16015SOL    HW157975  12.996   4.865   7.909  1.5706 -0.3826  0.2941
16015SOL    HW257976  12.976   4.734   7.835  1.9694 -0.2716 -0.0142
16016SOL     OW57977   7.826   0.588  11.253 -0.6699 -0.7526 -0.4667
16016SOL    HW157978   7.895   0.527  11.281 -0.3328 -0.2179 -0.1263
16016SOL    HW257979   7.873   0.665  11.223 -1.1151 -0.4351 -0.3552
16017SOL     OW57980  11.077   5.638   5.204  0.2817  0.1594 -0.3051
16017SOL    HW157981  11.119   5.700   5.264 -0.9804 -0.9329  1.8221
16017SOL    HW257982  11.106   5.665   5.117  0.6642  3.0183  0.6166
16018SOL     OW57983   4.351  10.194   0.109  0.0816  0.0645  0.1438
16018SOL    HW157984   4.422  10.244   0.068  0.2929  0.2214  0.6907
16018SOL    HW257985   4.395  10.142   0.176 -0.4457  0.9185  1.1666
16019SOL     OW57986  11.007  11.163   0.768 -0.2094  0.5021  0.4990
16019SOL    HW157987  10.998  11.073   0.798  0.8501 -0.0169 -0.6747
16019SOL    HW257988  11.003  11.215   0.848 -0.4859 -0.5976  1.2228
16020SOL     OW57989   7.945   7.042   8.581  0.1414 -0.8033  0.1296
16020SOL    HW157990   7.950   6.950   8.556  1.0094 -0.6791 -0.1833
16020SOL    HW257991   8.020   7.056   8.639  1.0337  0.0956 -1.1740
16021SOL     OW57992  10.624   5.329  10.053  0.0410  0.1431 -0.8528
16021SOL    HW157993  10.580   5.245  10.041  0.2801  0.0920 -1.3964
16021SOL    HW257994  10.714   5.306  10.077 -0.3828  0.2410  1.0278
16022SOL     OW57995   5.375   5.808   6.059  0.5853 -0.1660  0.4199
16022SOL    HW157996   5.364   5.825   6.153 -0.4345  1.8147 -0.0018
16022SOL    HW257997   5.311   5.866   6.017  2.0601  0.1016 -1.5819
16023SOL     OW57998   5.337   4.269   4.942 -0.3956  0.0000 -0.2846
16023SOL    HW157999   5.322   4.223   4.859 -0.4018 -0.1733 -0.1886
16023SOL    HW258000   5.321   4.361   4.921  0.7838  0.1126 -0.7646
16024SOL     OW58001  10.535   0.444   6.161  0.3919 -0.5387  0.4897
16024SOL    HW158002  10.596   0.509   6.197  0.5719 -1.1336  1.2870
16024SOL    HW258003  10.488   0.491   6.093  0.7659  0.3355  0.8152
16025SOL     OW58004   1.495   6.893   5.113 -0.6214  0.7377  0.1109
16025SOL    HW158005   1.540   6.914   5.031 -1.5605  2.5808  0.0056
16025SOL    HW258006   1.565   6.874   5.175  0.0946 -1.0289 -1.1737
16026SOL     OW58007   0.838   8.600   7.297 -0.5034  0.3564 -0.1497
16026SOL    HW158008   0.826   8.542   7.373  0.7403 -0.3265 -0.4403
16026SOL    HW258009   0.933   8.608   7.289 -0.6483  1.3418 -0.9577
16027SOL     OW58010   8.795   4.269   8.281  0.5214  0.6958  0.2005
16027SOL    HW158011   8.786   4.349   8.229 -2.6703 -1.0479 -2.3281
16027SOL    HW258012   8.823   4.202   8.218  0.4476 -0.7260  1.6084
16028SOL     OW58013   0.684  12.638   7.362  0.7008  0.2657  0.3640
16028SOL    HW158014   0.606  12.692   7.367  0.0820 -0.5685 -0.0922
16028SOL    HW258015   0.751  12.688   7.409 -0.0850  1.0112  0.7113
16029SOL     OW58016   1.912   6.527   1.847 -0.3716 -0.1651  0.2891
16029SOL    HW158017   1.852   6.601   1.847 -0.3032 -0.1111  0.4056
16029SOL    HW258018   1.976   6.548   1.778 -0.1886  0.0139  0.5134
16030SOL     OW58019  10.837   1.993   5.106 -0.0320 -0.0407  0.3250
16030SOL    HW158020  10.886   1.911   5.098 -0.5511 -0.4310  1.0794
16030SOL    HW258021  10.896   2.051   5.156 -0.8353 -0.9618  2.4546
16031SOL     OW58022   0.287   4.299   6.196 -0.6736 -0.0314  0.2672
16031SOL    HW158023   0.218   4.294   6.262  0.0068  0.2726  1.0241
16031SOL    HW258024   0.346   4.226   6.217  0.7678  1.3895  1.4562
16032SOL     OW58025  12.661   1.282   9.706  0.2926 -0.2648 -0.0078
16032SOL    HW158026  12.684   1.199   9.664  1.0940  0.6021 -1.3936
16032SOL    HW258027  12.575   1.267   9.744 -0.9755 -0.9034 -2.8364
16033SOL     OW58028   7.128   3.148   3.521  0.1095  0.2683  0.4921
16033SOL    HW158029   7.150   3.239   3.543  0.3551  0.2094  0.4940
16033SOL    HW258030   7.062   3.123   3.585  1.1156 -0.0363  1.4329
16034SOL     OW58031   0.839   1.808  11.624  0.2338  0.1705 -0.1528
16034SOL    HW158032   0.819   1.841  11.712 -0.3388 -1.3518  0.3248
16034SOL    HW258033   0.755   1.812  11.578  0.6373  1.4306 -0.8142
16035SOL     OW58034   5.825  11.447   1.670  0.2884  0.7071 -0.0444
16035SOL    HW158035   5.781  11.516   1.719  1.4953  0.2875  1.6760
16035SOL    HW258036   5.899  11.422   1.723 -1.1482 -3.3058  0.4222
16036SOL     OW58037   7.692   9.078   1.775  0.0701  0.2524  0.1860
16036SOL    HW158038   7.663   9.002   1.827  1.1804 -0.5064 -0.2786
16036SOL    HW258039   7.614   9.103   1.725  0.0887 -1.6400 -0.9080
16037SOL     OW58040  12.938   1.204   3.500 -0.0082 -0.2968 -0.3448
16037SOL    HW158041  13.031   1.207   3.479  0.1382 -0.6811  0.2464
16037SOL    HW258042  12.898   1.268   3.441  0.4651 -1.0003 -1.4620
16038SOL     OW58043   2.894  10.143   8.367 -0.2188  0.1875 -0.3545
16038SOL    HW158044   2.864  10.052   8.358 -1.4612  0.7080 -1.8390
16038SOL    HW258045   2.986  10.141   8.339 -0.1178 -0.6643 -0.0015
16039SOL     OW58046   6.518  10.323   3.346 -0.3490 -0.0547 -0.3889
16039SOL    HW158047   6.453  10.368   3.400 -0.4050 -1.0512  0.4013
16039SOL    HW258048   6.602  10.358   3.376 -0.3642 -0.7333  0.5199
16040SOL     OW58049   3.337  12.594   4.646  0.3583 -0.2714  0.1824
16040SOL    HW158050   3.320  12.504   4.615 -0.5988  0.0127 -0.1597
16040SOL    HW258051   3.260  12.643   4.617 -0.0475  0.2440  2.0609
16041SOL     OW58052   7.037  10.793  11.755 -0.4571  0.2703  0.4858
16041SOL    HW158053   6.978  10.854  11.800 -1.7557 -0.2829 -0.4079
16041SOL    HW258054   7.031  10.712  11.807  1.1552  0.8014  1.5885
16042SOL     OW58055   0.463  11.434   8.215  0.0912  0.2073  0.2422
16042SOL    HW158056   0.399  11.504   8.208  0.0821  0.3145  1.2235
16042SOL    HW258057   0.547  11.477   8.199  0.0409  0.3481  0.3510
16043SOL     OW58058   9.356   2.718   2.147 -0.6978  0.0835  0.2710
16043SOL    HW158059   9.409   2.717   2.067 -2.2174 -1.4629 -0.8096
16043SOL    HW258060   9.266   2.701   2.116 -1.4203  0.0147  2.2608
16044SOL     OW58061   2.295  11.239   8.799  0.0402 -0.2152  0.6974
16044SOL    HW158062   2.216  11.185   8.807 -0.8822  0.8481 -0.6598
16044SOL    HW258063   2.328  11.220   8.710 -0.4592  1.5991  0.0841
16045SOL     OW58064   3.990   3.257  10.244 -0.0924 -0.6336 -0.2569
16045SOL    HW158065   3.965   3.274  10.335 -3.7451  0.3788 -1.2772
16045SOL    HW258066   3.988   3.343  10.202 -0.1645 -1.2719 -1.6194
16046SOL     OW58067   3.122   6.090   9.673  0.0235  0.1703  0.5518
16046SOL    HW158068   3.109   6.156   9.742 -0.1840  0.4489  0.2511
16046SOL    HW258069   3.217   6.087   9.660  0.0734  0.0061  0.9572
16047SOL     OW58070  11.975   1.738   7.791 -0.6712 -0.0136  0.4272
16047SOL    HW158071  12.044   1.773   7.847 -0.6300 -0.3223  0.5762
16047SOL    HW258072  12.019   1.714   7.710 -0.8069  0.8185  0.1050
16048SOL     OW58073   7.687   1.658   1.791  0.2423  0.1983  0.1289
16048SOL    HW158074   7.723   1.720   1.854 -2.1470  1.7154  0.1302
16048SOL    HW258075   7.594   1.653   1.813 -0.0683 -1.6184 -1.3671
16049SOL     OW58076   5.642   2.215   8.157 -0.0594 -0.1220 -0.5127
16049SOL    HW158077   5.731   2.222   8.122  0.3287 -0.1436  0.4556
16049SOL    HW258078   5.638   2.126   8.193 -0.2509  0.1098  0.0362
16050SOL     OW58079  13.178   0.815   0.674  0.4427  0.2654 -0.0991
16050SOL    HW158080  13.187   0.749   0.605  0.8356  0.5492 -0.3187
16050SOL    HW258081  13.103   0.785   0.725 -1.8202  1.6087 -2.3817
16051SOL     OW58082   1.100   5.497   1.477 -0.4102  0.1733  0.3414
16051SOL    HW158083   1.143   5.432   1.422 -1.0873  0.2416 -0.2728
16051SOL    HW258084   1.144   5.579   1.456 -1.3373  0.3913 -0.8803
16052SOL     OW58085  10.746   3.269   9.552 -0.1542 -0.3908 -0.1476
16052SOL    HW158086  10.695   3.191   9.575 -2.7518  1.5216  1.1383
16052SOL    HW258087  10.816   3.236   9.496  0.0400 -3.8963  1.8313
16053SOL     OW58088  11.014   3.520   0.427 -0.0763 -0.3744 -0.5605
16053SOL    HW158089  11.057   3.596   0.388  1.0523 -1.1851 -0.9648
16053SOL    HW258090  10.922   3.544   0.433 -0.0672  0.2966 -2.4849
16054SOL     OW58091  11.188   0.103  10.175  0.6920 -0.0202 -0.0087
16054SOL    HW158092  11.097   0.080  10.158  0.4893  0.4729  0.3921
16054SOL    HW258093  11.184   0.172  10.241  1.4091 -1.4204  1.5932
16055SOL     OW58094   5.258   2.347  10.147  0.3658  0.0629 -0.3630
16055SOL    HW158095   5.191   2.292  10.186  0.1082 -0.7615 -1.8886
16055SOL    HW258096   5.236   2.436  10.175  0.0034 -0.4343  1.0232
16056SOL     OW58097  10.993   5.895  10.080 -0.4266  0.0032  0.3772
16056SOL    HW158098  10.912   5.929  10.117 -1.0409 -0.2058 -0.7638
16056SOL    HW258099  10.986   5.909   9.986  1.9357  2.2555  0.4234
16057SOL     OW58100   3.045   2.569   2.360  0.0962  0.0564  0.0266
16057SOL    HW158101   2.975   2.584   2.296  0.1032 -0.2176 -0.0491
16057SOL    HW258102   3.022   2.625   2.435 -1.1471 -1.2825  0.7104
16058SOL     OW58103   6.461   5.589   4.870 -0.1945 -0.2711 -0.1163
16058SOL    HW158104   6.434   5.509   4.914  0.7776 -1.4305 -1.5472
16058SOL    HW258105   6.548   5.570   4.836  0.7428  1.9472  0.8239
16059SOL     OW58106   4.960  10.448   5.448  0.1464  0.2471  0.3946
16059SOL    HW158107   5.030  10.478   5.390  0.5450  0.4717  0.9822
16059SOL    HW258108   4.896  10.519   5.447  0.9785  1.0516  1.5977
16060SOL     OW58109  10.665  11.025  13.072 -0.4786 -0.2075 -0.0729
16060SOL    HW158110  10.611  11.102  13.090  1.7451  0.9209  2.3204
16060SOL    HW258111  10.741  11.059  13.026 -0.7605 -1.4596 -1.5407
16061SOL     OW58112   0.361   8.659   9.175  0.0544  0.6156 -0.0586
16061SOL    HW158113   0.304   8.661   9.098  0.2991 -1.0681 -0.3114
16061SOL    HW258114   0.306   8.621   9.244  0.4468  0.2774  0.0702
16062SOL     OW58115   4.514   5.082   9.577 -0.6225 -0.1682  0.2724
16062SOL    HW158116   4.493   5.071   9.670 -1.2609  2.0352  0.4458
16062SOL    HW258117   4.431   5.105   9.536 -0.0285  0.7413 -0.4737
16063SOL     OW58118   4.829   1.645   4.179  0.7574  0.0468  0.5922
16063SOL    HW158119   4.791   1.607   4.100  0.7807  2.3609 -0.6082
16063SOL    HW258120   4.756   1.648   4.241 -0.0138  0.7949 -0.3206
16064SOL     OW58121   6.333   7.413  12.632  0.2426 -0.2804 -0.6785
16064SOL    HW158122   6.250   7.406  12.677 -0.1289  0.3657 -1.2372
16064SOL    HW258123   6.331   7.343  12.566  1.0974 -1.6997  0.7510
16065SOL     OW58124   5.639   0.704  12.829 -0.1054 -0.3218  0.9585
16065SOL    HW158125   5.674   0.616  12.839  0.6712 -0.2129 -0.5792
16065SOL    HW258126   5.715   0.762  12.831 -0.3209  0.0679 -0.6966
16066SOL     OW58127  10.471  11.003   8.665  0.4993  0.0231 -0.2204
16066SOL    HW158128  10.389  10.960   8.689  0.4398  0.9488  1.3643
16066SOL    HW258129  10.537  10.964   8.722  1.5393 -1.8631 -2.5552
16067SOL     OW58130   1.825   5.111   2.062  0.1023 -0.6081 -0.0254
16067SOL    HW158131   1.849   5.075   1.976  1.7569 -0.7158  0.4364
16067SOL    HW258132   1.839   5.038   2.123  0.0840 -0.1890  0.4830
16068SOL     OW58133   0.501   4.407   5.122  0.1561 -0.0241 -0.1463
16068SOL    HW158134   0.454   4.473   5.173 -1.1348 -0.7658 -0.3152
16068SOL    HW258135   0.550   4.457   5.057 -1.3738  0.7720 -0.7524
16069SOL     OW58136   7.277   7.222   9.544  0.6775  0.0157  0.1485
16069SOL    HW158137   7.250   7.278   9.617  0.5815 -0.4854  0.4980
16069SOL    HW258138   7.316   7.145   9.586  0.3329 -0.4209 -0.3194
16070SOL     OW58139  11.595   5.585   2.022 -0.3196 -0.5137  0.1550
16070SOL    HW158140  11.628   5.660   1.973  0.6255 -3.0117 -3.3765
16070SOL    HW258141  11.672   5.532   2.040 -1.3000 -2.2282 -0.4372
16071SOL     OW58142   9.832   9.836   4.200  0.5330 -0.3678  0.0205
16071SOL    HW158143   9.762   9.833   4.265 -0.0309  0.6799 -0.5123
16071SOL    HW258144   9.849   9.744   4.177 -1.1096 -0.6015 -0.3231
16072SOL     OW58145  12.371   3.880   5.067  0.0612  0.3325 -0.5247
16072SOL    HW158146  12.315   3.956   5.080  0.4074  0.4366  0.3739
16072SOL    HW258147  12.415   3.898   4.984 -0.0758  0.9755 -0.4662
16073SOL     OW58148   3.134  10.983   2.985  0.3727  0.6666 -0.0261
16073SOL    HW158149   3.204  10.963   2.923 -1.1506  0.4549 -1.7726
16073SOL    HW258150   3.054  10.957   2.939 -0.9581  2.0664  1.3992
16074SOL     OW58151  11.158  12.604  12.719 -0.0672  0.4323 -0.0103
16074SOL    HW158152  11.121  12.682  12.678 -0.5668 -0.7042 -1.8233
16074SOL    HW258153  11.085  12.565  12.767 -0.4620 -0.1404 -1.0354
16075SOL     OW58154   9.410   8.461   4.677  0.3441 -0.0281  0.2283
16075SOL    HW158155   9.322   8.496   4.694  0.0623 -0.5081 -0.1786
16075SOL    HW258156   9.398   8.405   4.600  1.3779  1.3839 -1.0245
16076SOL     OW58157   5.794   8.383   3.292 -0.4840 -0.3160  0.0991
16076SOL    HW158158   5.868   8.340   3.335 -0.7233  0.8004  1.7378
16076SOL    HW258159   5.739   8.414   3.364 -0.6892  2.0501 -0.9824
16077SOL     OW58160   6.109  11.824   2.305  0.1586  0.6168 -0.5066
16077SOL    HW158161   6.170  11.897   2.320  0.7473 -0.0082  0.1764
16077SOL    HW258162   6.123  11.766   2.379 -0.7941  0.1326 -0.7047
16078SOL     OW58163   4.114   8.059   0.151 -0.5213 -0.2115 -0.6343
16078SOL    HW158164   4.060   8.123   0.104  0.5611  0.5586 -0.8594
16078SOL    HW258165   4.135   8.101   0.234 -0.4266 -0.5870 -0.4679
16079SOL     OW58166   5.274   0.587   1.854  0.0581 -0.3837 -0.0025
16079SOL    HW158167   5.208   0.630   1.800  0.2349  1.6005  1.2879
16079SOL    HW258168   5.357   0.604   1.808  0.0553  0.1147  0.1729
16080SOL     OW58169   8.015  11.049   5.371  0.6427 -0.1595  0.9574
16080SOL    HW158170   7.999  11.067   5.463  0.6176  0.8227  0.7684
16080SOL    HW258171   7.949  10.985   5.347 -0.9653  1.4028  1.0055
16081SOL     OW58172  12.559  12.132   1.309  0.0652 -0.1244  0.1266
16081SOL    HW158173  12.579  12.045   1.275  1.3949  1.2610 -3.0221
16081SOL    HW258174  12.644  12.176   1.315 -0.6143  1.1511  1.1807
16082SOL     OW58175   6.840   7.291   6.875  0.6064 -0.1256 -0.1961
16082SOL    HW158176   6.924   7.246   6.865  0.5188 -0.1552 -0.8462
16082SOL    HW258177   6.776   7.233   6.834  0.4858  0.5554 -1.0141
16083SOL     OW58178   2.750   2.127   7.012 -0.1633 -0.0345 -0.3485
16083SOL    HW158179   2.750   2.054   7.073  0.3880  0.7619  0.6482
16083SOL    HW258180   2.726   2.089   6.927 -2.1509 -0.9781  0.5870
16084SOL     OW58181  12.060   0.296   5.965  0.2582  0.1928  0.3991
16084SOL    HW158182  12.041   0.379   6.007 -0.1296  0.3771 -0.1304
16084SOL    HW258183  12.108   0.246   6.031  1.2602  1.1498  0.4248
16085SOL     OW58184  13.179   2.116   8.532 -0.7887  0.4791  0.8829
16085SOL    HW158185  13.211   2.115   8.622 -2.5350  2.3368  1.6229
16085SOL    HW258186  13.206   2.202   8.498 -2.6844  1.0387  0.6934
16086SOL     OW58187   0.843   5.586   7.350 -0.5299 -0.1039  0.5578
16086SOL    HW158188   0.877   5.580   7.261 -1.1377 -0.0766  0.3159
16086SOL    HW258189   0.887   5.516   7.398  2.4767  2.0278  1.1671
16087SOL     OW58190   0.493   4.943  12.379  0.4352  0.8555  0.4549
16087SOL    HW158191   0.435   4.988  12.440 -0.5051  1.4454 -0.8409
16087SOL    HW258192   0.484   4.991  12.297 -1.6057 -2.3497 -1.4024
16088SOL     OW58193   6.196   9.123   9.791  1.0453  0.2525  0.9195
16088SOL    HW158194   6.176   9.211   9.760  0.7962  0.7776  2.4852
16088SOL    HW258195   6.290   9.113   9.776  0.9034  0.4012 -0.1532
16089SOL     OW58196   7.319   1.119   5.470  0.5071 -0.9657 -0.2052
16089SOL    HW158197   7.349   1.029   5.459 -0.3321 -1.6134  2.1873
16089SOL    HW258198   7.387   1.160   5.525  0.1417 -0.6024 -0.0170
16090SOL     OW58199   4.302   6.886   2.358 -0.0594 -0.8773  0.1422
16090SOL    HW158200   4.369   6.954   2.348 -2.0432  0.9268 -1.8455
16090SOL    HW258201   4.338   6.810   2.311  0.5335  0.1241 -1.0843
16091SOL     OW58202   6.107   2.473  10.905 -0.1691  0.5025  0.0405
16091SOL    HW158203   6.108   2.497  10.812 -1.1293  0.2825 -0.0391
16091SOL    HW258204   6.127   2.379  10.906  1.1787  0.7756  0.1703
16092SOL     OW58205   1.938   1.642   9.628 -0.4761  0.0234 -0.4143
16092SOL    HW158206   1.858   1.674   9.586  0.0707  1.5224 -0.3611
16092SOL    HW258207   2.007   1.700   9.596  1.0926 -2.6461 -2.3869
16093SOL     OW58208   1.036   5.492   7.866 -0.2059  0.1999 -0.0995
16093SOL    HW158209   1.006   5.531   7.783  0.1289  1.0230  0.1565
16093SOL    HW258210   1.100   5.427   7.840  0.1981  0.7354 -0.4797
16094SOL     OW58211   3.235  10.676   0.859  0.3458 -0.2056 -0.1856
16094SOL    HW158212   3.156  10.623   0.867  0.8130 -1.1229 -1.3952
16094SOL    HW258213   3.216  10.738   0.789 -0.1924  1.2950  1.2105
16095SOL     OW58214   3.831   5.546   1.674 -0.5505 -0.5924 -0.4887
16095SOL    HW158215   3.822   5.559   1.580  0.7388 -1.6324 -0.7871
16095SOL    HW258216   3.917   5.505   1.684 -1.0708 -1.3560  1.0586
16096SOL     OW58217   1.531  11.369   6.787  0.1288  0.1708 -0.6286
16096SOL    HW158218   1.578  11.451   6.774 -1.4369  1.4229  1.0943
16096SOL    HW258219   1.471  11.363   6.713  0.4909  0.4202 -0.9413
16097SOL     OW58220   8.283   0.835   3.438  0.3670  0.0850  0.2768
16097SOL    HW158221   8.272   0.812   3.345 -0.2437 -2.5976  0.9244
16097SOL    HW258222   8.374   0.812   3.457 -0.1984 -1.8510  0.8871
16098SOL     OW58223   7.259  10.414  10.528 -0.2936 -0.1842  0.6209
16098SOL    HW158224   7.171  10.438  10.556 -0.0989  0.2342  0.8774
16098SOL    HW258225   7.246  10.343  10.465 -0.8269  0.0462  0.4725
16099SOL     OW58226   8.381   0.987  12.600  0.3769  0.5505 -0.1114
16099SOL    HW158227   8.355   1.027  12.517  0.4922 -0.6547 -0.7478
16099SOL    HW258228   8.304   0.936  12.627  0.4630  0.6583  0.3521
16100SOL     OW58229  13.300   7.463   9.985 -0.1459  0.0879 -0.8032
16100SOL    HW158230  13.373   7.523  10.001 -1.1754  1.5214 -1.3024
16100SOL    HW258231  13.325   7.382  10.030  0.5620  1.3846  1.2593
16101SOL     OW58232  11.838  12.458   1.037  0.1509 -0.6415 -0.0795
16101SOL    HW158233  11.894  12.480   0.963  0.0571 -0.6977 -0.1677
16101SOL    HW258234  11.752  12.493   1.014  0.2329 -0.2462  0.2134
16102SOL     OW58235   6.153   2.822   6.928  0.4842  0.0111 -0.4977
16102SOL    HW158236   6.207   2.773   6.991  2.1278  2.5605  0.2253
16102SOL    HW258237   6.094   2.874   6.983 -2.1221 -1.9273 -1.2704
16103SOL     OW58238   0.410   8.541   7.644 -0.1676  0.1694 -0.1308
16103SOL    HW158239   0.400   8.552   7.739  0.4873  0.6071 -0.1048
16103SOL    HW258240   0.499   8.571   7.626  0.2387 -1.2767 -0.6744
16104SOL     OW58241   3.648  10.619   1.392 -0.4252  0.0137 -0.4119
16104SOL    HW158242   3.607  10.540   1.358  1.0070 -0.9920  0.0719
16104SOL    HW258243   3.576  10.680   1.406 -1.7375 -1.6091  0.2693
16105SOL     OW58244   1.192   2.623  10.269 -0.5035 -0.1383 -0.4847
16105SOL    HW158245   1.226   2.696  10.217  0.2310 -0.4321 -0.4284
16105SOL    HW258246   1.103   2.649  10.291 -0.3890  0.5588 -0.8141
16106SOL     OW58247   3.029   1.141  10.507  0.3290 -0.0514 -0.0848
16106SOL    HW158248   2.944   1.128  10.548  0.5895 -1.0527  0.1757
16106SOL    HW258249   3.082   1.184  10.575  0.4555 -0.7654  0.2729
16107SOL     OW58250   8.221   4.567   0.133 -0.0854  0.0049  0.4820
16107SOL    HW158251   8.248   4.638   0.191 -0.6530  0.3383  0.3473
16107SOL    HW258252   8.127   4.582   0.120 -0.0883 -0.4380 -0.0093
16108SOL     OW58253   6.554   2.227  12.461  0.4720 -0.1410  0.1562
16108SOL    HW158254   6.515   2.186  12.384  2.7634 -2.7155  0.1960
16108SOL    HW258255   6.513   2.183  12.535  1.2519 -0.7224  0.2597
16109SOL     OW58256   2.904   8.629   0.823  0.5100 -0.1936 -0.3721
16109SOL    HW158257   2.844   8.580   0.879  1.7514 -0.7707  0.5031
16109SOL    HW258258   2.926   8.568   0.753  2.4100 -1.1309  0.9623
16110SOL     OW58259  11.401  13.236   1.570 -0.5352 -0.1136 -0.1980
16110SOL    HW158260  11.420  13.245   1.664  0.9771 -0.0069 -0.4814
16110SOL    HW258261  11.425  13.321   1.533 -0.1687 -0.4780 -0.8088
16111SOL     OW58262   7.442  12.001   0.649 -0.3082  0.4055 -0.1672
16111SOL    HW158263   7.401  12.087   0.644 -0.1617  0.5431  0.7362
16111SOL    HW258264   7.532  12.019   0.675 -0.4377 -0.0457  0.6147
16112SOL     OW58265   0.660  10.718   9.912  0.2235 -0.0358  0.4087
16112SOL    HW158266   0.717  10.788   9.944 -2.1739  2.6759 -0.7678
16112SOL    HW258267   0.694  10.699   9.824 -0.3227  1.2395 -0.1084
16113SOL     OW58268  11.671  11.849   7.195 -0.1337 -0.2218 -0.0748
16113SOL    HW158269  11.681  11.808   7.281  0.5338 -0.5045 -0.2771
16113SOL    HW258270  11.749  11.822   7.147  0.5387  1.6456 -0.0773
16114SOL     OW58271  10.692   9.082   1.418  0.2762 -0.3516 -0.1372
16114SOL    HW158272  10.736   9.167   1.416 -2.1085  0.9757 -0.6598
16114SOL    HW258273  10.659   9.069   1.329 -2.2817 -0.1104  0.6878
16115SOL     OW58274   0.592   8.983   3.254  0.5653 -0.2147  0.2799
16115SOL    HW158275   0.680   8.953   3.279  0.5408 -0.3367  0.2251
16115SOL    HW258276   0.607   9.065   3.208  0.9137 -1.4929 -2.0679
16116SOL     OW58277  10.772   4.103  11.733 -0.2400  0.2927 -0.5506
16116SOL    HW158278  10.843   4.101  11.670 -0.3946  1.3164 -0.7674
16116SOL    HW258279  10.736   4.014  11.731  2.6275 -1.1053  1.4429
16117SOL     OW58280  11.829   4.113  10.859 -0.0938 -0.3826  0.5162
16117SOL    HW158281  11.881   4.190  10.881 -0.1737 -0.3979  0.7690
16117SOL    HW258282  11.809   4.123  10.766 -1.6056  0.8405  0.9165
16118SOL     OW58283  12.780   9.668  10.782  0.2991  0.3680  0.2282
16118SOL    HW158284  12.830   9.622  10.850  1.8512  0.1053 -1.0162
16118SOL    HW258285  12.726   9.600  10.742  0.9172  0.0707 -0.1257
16119SOL     OW58286   4.496   3.099   1.388 -0.2669 -0.2212 -0.0442
16119SOL    HW158287   4.405   3.072   1.387  0.2575 -2.1181  0.3498
16119SOL    HW258288   4.530   3.077   1.302 -0.4531  1.6246 -0.6334
16120SOL     OW58289  12.684   6.009  10.940 -0.1198  0.3033 -0.0002
16120SOL    HW158290  12.630   6.058  10.877 -2.1454 -0.1017  1.3174
16120SOL    HW258291  12.713   6.076  11.003  0.6022  0.4507 -0.4760
16121SOL     OW58292   3.691   6.688   3.031 -0.4179 -0.2843 -0.7135
16121SOL    HW158293   3.748   6.635   2.977 -1.0041 -2.4180  0.6559
16121SOL    HW258294   3.606   6.644   3.028 -1.0844  0.8671  0.0452
16122SOL     OW58295  10.571   9.398   0.944  0.0223  0.3980  0.1128
16122SOL    HW158296  10.636   9.417   0.877 -1.5985  1.7928 -1.1500
16122SOL    HW258297  10.614   9.420   1.027  1.9705 -1.1102 -0.4450
16123SOL     OW58298   4.622   8.559   6.493 -0.4187 -0.7151  0.6060
16123SOL    HW158299   4.579   8.477   6.518  0.2055 -1.2141  0.0765
16123SOL    HW258300   4.713   8.534   6.476 -0.4755 -0.1310 -0.6857
16124SOL     OW58301   1.042  12.163  13.102  0.2561 -0.0587 -0.1036
16124SOL    HW158302   0.971  12.227  13.112  0.7888  0.3167  1.7005
16124SOL    HW258303   1.122  12.213  13.117  0.6867 -1.0954  1.3199
16125SOL     OW58304  12.512   4.324  12.157  0.4651  0.3348  0.5498
16125SOL    HW158305  12.446   4.278  12.106  0.9631  0.8797 -0.6052
16125SOL    HW258306  12.545   4.258  12.218  1.1472 -0.8609 -1.0522
16126SOL     OW58307   1.790   4.408   6.682  0.1807  0.0349 -0.1341
16126SOL    HW158308   1.875   4.419   6.725  0.1078 -1.6290  0.5107
16126SOL    HW258309   1.731   4.468   6.728  1.1702  1.9102 -1.1993
16127SOL     OW58310   5.845  12.190   2.176 -0.1639 -0.6579 -0.2925
16127SOL    HW158311   5.774  12.227   2.229 -1.2218 -2.0493 -0.6466
16127SOL    HW258312   5.813  12.197   2.085 -0.8907 -3.2068 -0.3234
16128SOL     OW58313   9.416  11.883   2.257  0.0078 -0.6637  0.2306
16128SOL    HW158314   9.351  11.951   2.238 -1.3485 -1.1355  2.7344
16128SOL    HW258315   9.489  11.903   2.199 -1.1812  1.6896 -0.5871
16129SOL     OW58316   6.784   9.276   1.997 -0.2710 -0.4072 -0.0901
16129SOL    HW158317   6.763   9.343   2.061 -1.2221  0.3911 -1.1993
16129SOL    HW258318   6.705   9.267   1.943  0.6422 -0.6991 -1.4536
16130SOL     OW58319  10.613   3.172  11.713 -0.2505 -0.2029  0.2324
16130SOL    HW158320  10.557   3.246  11.689 -1.1472 -1.1090 -0.5699
16130SOL    HW258321  10.611   3.172  11.809 -1.1567  0.1393  0.2248
16131SOL     OW58322  12.681   6.558  12.749  0.5122 -0.0550 -0.1013
16131SOL    HW158323  12.715   6.648  12.750  0.0772  0.1202  1.4092
16131SOL    HW258324  12.593   6.566  12.785  0.1302 -0.9852 -0.7961
16132SOL     OW58325   6.665   1.005  11.913  0.6240  0.3442  0.7660
16132SOL    HW158326   6.634   0.930  11.861 -1.9506  0.5384  1.8867
16132SOL    HW258327   6.752   1.023  11.878  0.5838 -1.9912 -0.8033
16133SOL     OW58328   6.587  10.508   1.265 -0.1198  0.1490  0.5445
16133SOL    HW158329   6.640  10.580   1.230 -1.2588  0.2235 -1.1649
16133SOL    HW258330   6.497  10.529   1.238 -0.7897 -0.8396  1.8811
16134SOL     OW58331   1.621  10.161  11.161 -0.1279 -0.8833  0.0438
16134SOL    HW158332   1.626  10.256  11.174 -1.4278 -0.5706 -1.5611
16134SOL    HW258333   1.697  10.141  11.106  0.1189 -0.7872  0.3410
16135SOL     OW58334   5.993   9.859  11.972 -0.2647 -0.0551  0.1386
16135SOL    HW158335   6.066   9.912  11.940 -0.7215 -0.7673 -2.3086
16135SOL    HW258336   6.033   9.774  11.993  0.2390  0.7654  2.7624
16136SOL     OW58337   1.336  12.219  11.702 -0.6958 -0.4975 -0.1108
16136SOL    HW158338   1.413  12.180  11.743 -1.4356 -1.2187  0.6374
16136SOL    HW258339   1.369  12.299  11.661  0.8225 -1.7549 -1.4898
16137SOL     OW58340   2.325   6.619   0.040 -0.3198  0.4935  0.1717
16137SOL    HW158341   2.355   6.660   0.120  1.1804 -0.2493  0.0156
16137SOL    HW258342   2.337   6.686  -0.028  0.0244  0.5503  0.2863
16138SOL     OW58343   1.105   1.614   8.174 -0.3361  0.5287 -0.1509
16138SOL    HW158344   1.100   1.616   8.270  1.1156  0.9015 -0.0492
16138SOL    HW258345   1.168   1.683   8.153 -0.5106  0.3292 -1.3680
16139SOL     OW58346  12.801   2.567   2.854  0.5496  0.3978 -0.5064
16139SOL    HW158347  12.751   2.508   2.911  0.6546 -0.5822 -1.4080
16139SOL    HW258348  12.889   2.569   2.893  0.2884  0.7691  0.0946
16140SOL     OW58349   3.348   5.761   0.246 -0.1161 -0.2928 -0.4053
16140SOL    HW158350   3.262   5.721   0.257 -0.5327  0.0981 -2.0486
16140SOL    HW258351   3.330   5.853   0.227  0.7478  0.2008  1.0051
16141SOL     OW58352   8.441   0.752   0.678  0.0492 -0.1812  0.2286
16141SOL    HW158353   8.395   0.832   0.652  1.0436  0.1172 -0.6964
16141SOL    HW258354   8.482   0.775   0.762  0.7524  0.4858 -0.2767
16142SOL     OW58355   0.856   9.085   8.031  0.2989  0.1856 -0.1448
16142SOL    HW158356   0.855   9.034   8.113 -0.4014 -1.4955 -1.1485
16142SOL    HW258357   0.857   9.019   7.962  0.1856  1.5717 -1.5216
16143SOL     OW58358  11.713   6.151   1.981 -0.1967 -0.3869  0.0047
16143SOL    HW158359  11.794   6.173   2.029 -0.8842 -1.2067  1.6260
16143SOL    HW258360  11.676   6.236   1.957  0.7849  0.0188 -0.1481
16144SOL     OW58361   5.450   0.186  11.636 -0.2051 -0.0922  0.1353
16144SOL    HW158362   5.486   0.271  11.610 -1.9931  0.2046 -1.5533
16144SOL    HW258363   5.468   0.180  11.730  1.8154  1.1826 -0.1128
16145SOL     OW58364   6.412   8.607   1.849  0.0434 -0.7147 -0.1018
16145SOL    HW158365   6.335   8.654   1.881  1.0567 -0.1574  1.6718
16145SOL    HW258366   6.382   8.562   1.770 -1.5342  1.1639 -0.6469
16146SOL     OW58367   2.250   2.259   7.231  0.0145 -0.4025 -0.2729
16146SOL    HW158368   2.170   2.207   7.235  0.3752 -1.1783 -1.9393
16146SOL    HW258369   2.281   2.264   7.321 -1.1869 -1.2518  0.2051
16147SOL     OW58370   3.798   9.545   4.977  0.0411  0.3331 -0.2450
16147SOL    HW158371   3.768   9.548   4.886 -1.0243  2.3648  0.0982
16147SOL    HW258372   3.792   9.453   5.002  0.4814 -0.2924 -2.2439
16148SOL     OW58373   7.338   3.031  13.152 -0.0447 -0.7534  0.0557
16148SOL    HW158374   7.317   2.981  13.073 -2.5110  0.7995 -0.3700
16148SOL    HW258375   7.427   3.062  13.137  0.4947 -2.6083 -0.9168
16149SOL     OW58376   0.567   8.216   1.023 -0.0902  0.4889  0.0389
16149SOL    HW158377   0.516   8.280   1.073 -0.6999 -0.4599  0.6750
16149SOL    HW258378   0.502   8.170   0.969  0.1564 -0.3655  0.4503
16150SOL     OW58379   1.816  12.829  11.194 -0.3343 -0.0713  0.1157
16150SOL    HW158380   1.862  12.765  11.139 -1.2893 -1.8418  1.2555
16150SOL    HW258381   1.723  12.807  11.184 -0.5600 -0.3213  2.1611
16151SOL     OW58382   3.988  12.780   5.942 -0.0068  0.2969 -0.1206
16151SOL    HW158383   3.962  12.834   5.867  0.5311 -1.4258 -1.6492
16151SOL    HW258384   3.939  12.699   5.931  0.7352 -0.3206  0.9134
16152SOL     OW58385   3.775   0.113   2.824  0.5171  0.3282  0.4850
16152SOL    HW158386   3.728   0.159   2.754 -0.8220 -1.8712 -0.1656
16152SOL    HW258387   3.791   0.025   2.789  3.0474  0.2408  1.6265
16153SOL     OW58388   2.254   1.011  10.158  0.8790 -0.1904  0.4327
16153SOL    HW158389   2.318   0.969  10.217  2.8845  1.7608 -0.2229
16153SOL    HW258390   2.305   1.033  10.080  0.3318  4.2972  1.0868
16154SOL     OW58391   9.062   3.834   6.852 -0.0881 -0.2125 -0.4872
16154SOL    HW158392   8.968   3.822   6.861 -0.0628 -0.0350  0.0255
16154SOL    HW258393   9.088   3.885   6.928  0.4745 -0.5358 -0.4543
16155SOL     OW58394   6.892   6.341   3.206  0.5944 -0.4196  0.2149
16155SOL    HW158395   6.942   6.267   3.172 -1.5049 -1.8263  0.0493
16155SOL    HW258396   6.825   6.357   3.141  0.8564  1.5172  0.3686
16156SOL     OW58397   1.835   0.228   0.521  1.1361 -0.1461  0.2542
16156SOL    HW158398   1.844   0.136   0.496  1.6073  0.1585 -0.7567
16156SOL    HW258399   1.924   0.262   0.523  0.9058  0.5177 -0.3258
16157SOL     OW58400   3.906  11.403   9.336  0.1340  0.2164  0.1824
16157SOL    HW158401   3.897  11.378   9.244 -0.5964 -1.2638  0.6153
16157SOL    HW258402   3.954  11.485   9.334  1.8229 -0.7289 -1.4467
16158SOL     OW58403   9.793  10.427   0.639  0.6705  0.2009  0.5999
16158SOL    HW158404   9.796  10.444   0.733  3.1732  0.9977  0.4527
16158SOL    HW258405   9.760  10.509   0.601 -0.8729 -0.3099  0.7767
16159SOL     OW58406   2.771   8.571   7.297 -0.1555  0.1764  0.1661
16159SOL    HW158407   2.784   8.615   7.213  0.6916  0.5694  0.4991
16159SOL    HW258408   2.782   8.478   7.278  3.1743  0.4328  0.3858
16160SOL     OW58409  10.974   2.997   0.285  0.1209 -0.1850 -0.3786
16160SOL    HW158410  11.043   2.969   0.225  0.1530 -0.6395 -0.1366
16160SOL    HW258411  10.956   3.088   0.260 -0.0946 -0.4651 -1.2925
16161SOL     OW58412  10.612  11.994   8.170 -0.1343 -0.2899 -0.2833
16161SOL    HW158413  10.573  11.917   8.209  1.3654 -1.8625 -1.6859
16161SOL    HW258414  10.689  12.012   8.224 -0.8538  0.6985  0.4524
16162SOL     OW58415   0.415  10.263  10.649  0.4166  0.1848 -0.2217
16162SOL    HW158416   0.462  10.216  10.718  0.7029 -0.3350 -0.7561
16162SOL    HW258417   0.326  10.225  10.651  0.4317  0.1535 -0.1503
16163SOL     OW58418   4.026   6.262  10.740 -0.0380  0.2465  0.0626
16163SOL    HW158419   3.944   6.309  10.727 -0.5743  0.1526  2.5712
16163SOL    HW258420   4.062   6.297  10.822  1.4292 -1.0975  0.0584
16164SOL     OW58421   5.602   1.939   9.923 -0.2956 -0.5562 -0.0656
16164SOL    HW158422   5.531   1.891   9.966 -0.4453 -0.7207 -0.4972
16164SOL    HW258423   5.671   1.875   9.912  0.4878 -0.0695  1.6326
16165SOL     OW58424   4.739   0.636  12.011  0.3475 -0.0627 -0.3463
16165SOL    HW158425   4.813   0.610  12.066 -0.9439  0.2995  1.6553
16165SOL    HW258426   4.759   0.726  11.984  0.9288 -0.1945 -0.3620
16166SOL     OW58427   8.809  13.225   4.448 -0.3890 -0.7444 -0.5407
16166SOL    HW158428   8.787  13.159   4.513 -2.2564 -2.2612 -2.5484
16166SOL    HW258429   8.799  13.309   4.494  1.5847 -1.7519  1.9319
16167SOL     OW58430  11.309  11.025   6.690 -0.8874 -0.2395  0.8339
16167SOL    HW158431  11.306  11.052   6.782 -0.4046  0.6374  0.5996
16167SOL    HW258432  11.296  11.106   6.641  0.5638 -0.4083  0.1186
16168SOL     OW58433  11.547   0.483   5.662  0.0837 -0.0318  0.3666
16168SOL    HW158434  11.640   0.475   5.640 -0.5269 -1.0755 -2.2255
16168SOL    HW258435  11.520   0.566   5.622 -0.4933 -0.6762 -0.6119
16169SOL     OW58436   6.372   7.754   1.771 -0.1848  0.2901 -0.9085
16169SOL    HW158437   6.327   7.779   1.852 -0.3353 -0.4067 -0.7703
16169SOL    HW258438   6.458   7.725   1.799  0.1267  0.9976 -1.1089
16170SOL     OW58439   4.129   1.967   6.633 -0.1566  0.2696  0.1624
16170SOL    HW158440   4.126   1.954   6.538  0.3424  4.5690 -0.6353
16170SOL    HW258441   4.037   1.973   6.660 -0.2928  0.4798 -0.3379
16171SOL     OW58442   4.039   7.275   1.871  0.3237  0.1361 -0.1931
16171SOL    HW158443   4.128   7.255   1.843  1.3210  0.7616  2.2192
16171SOL    HW258444   3.995   7.190   1.874  0.9002 -0.2103 -1.1662
16172SOL     OW58445   9.214   3.615  13.028 -0.6961 -0.0853 -0.6033
16172SOL    HW158446   9.216   3.534  13.079 -0.5778  0.7188  0.7233
16172SOL    HW258447   9.306   3.629  13.003 -0.1322  1.2015  1.8277
16173SOL     OW58448  10.935   9.475   4.805 -0.3626  0.0428 -0.3944
16173SOL    HW158449  10.947   9.390   4.760 -0.9643  0.4898 -1.4386
16173SOL    HW258450  10.953   9.456   4.897 -1.3065 -1.4155 -0.4797
16174SOL     OW58451   4.610   4.405  10.119 -0.3513 -0.2022 -0.6952
16174SOL    HW158452   4.595   4.335  10.182 -1.0825  0.9681  0.4953
16174SOL    HW258453   4.542   4.394  10.054  0.1523 -1.1734 -1.0789
16175SOL     OW58454   9.626  10.021   9.888 -0.5744 -0.1237 -0.5832
16175SOL    HW158455   9.627  10.079   9.812  0.0795 -0.7678 -1.0775
16175SOL    HW258456   9.672  10.070   9.956  1.4572 -0.6798 -1.4911
16176SOL     OW58457   2.852   4.462   1.189 -0.1778  0.3801 -0.0989
16176SOL    HW158458   2.788   4.517   1.235 -0.0250  1.5461 -1.2154
16176SOL    HW258459   2.903   4.422   1.260  0.4050  2.5466  0.8205
16177SOL     OW58460   8.573  11.175   9.797 -0.2668  0.1265 -0.8990
16177SOL    HW158461   8.663  11.151   9.773  0.6838 -0.6698  2.7709
16177SOL    HW258462   8.580  11.267   9.823 -0.6164  0.1756 -0.9800
16178SOL     OW58463   9.263   7.489   9.383  0.7323  0.1935  0.1558
16178SOL    HW158464   9.207   7.425   9.428  0.6906  0.6509  0.7721
16178SOL    HW258465   9.257   7.466   9.291  2.2601 -1.9581  0.5101
16179SOL     OW58466   8.275   8.485   6.972  0.7235  0.2546 -0.2825
16179SOL    HW158467   8.252   8.403   6.928  1.3852 -0.8821  1.3868
16179SOL    HW258468   8.352   8.463   7.024  0.4327  1.7418  0.8361
16180SOL     OW58469  12.269  10.129   6.495  0.1986 -0.5590  0.5661
16180SOL    HW158470  12.209  10.110   6.423  0.2337 -0.8986  0.6219
16180SOL    HW258471  12.253  10.220   6.517 -0.1654 -0.5950  0.4564
16181SOL     OW58472  12.186   4.548  11.035 -0.1577 -0.1501 -0.7670
16181SOL    HW158473  12.103   4.595  11.029  0.0727  0.1981 -1.3304
16181SOL    HW258474  12.183   4.502  11.119 -0.3715  0.8956 -0.1986
16182SOL     OW58475   8.584   9.224   9.185  0.0130  0.9847  0.5735
16182SOL    HW158476   8.554   9.312   9.163  2.3086  1.5210 -0.7409
16182SOL    HW258477   8.566   9.173   9.105 -1.8480  0.0514  1.5276
16183SOL     OW58478  10.065  11.424   3.966  0.2054  0.5598  0.4733
16183SOL    HW158479  10.050  11.516   3.945 -0.1489  0.5041  0.4824
16183SOL    HW258480  10.121  11.427   4.044  0.4067  0.7651  0.3253
16184SOL     OW58481   4.622   2.551   5.648  0.1732  0.0181 -0.2546
16184SOL    HW158482   4.604   2.492   5.722  3.1010 -0.3454  0.2991
16184SOL    HW258483   4.636   2.637   5.689  2.2130 -0.2670 -0.2586
16185SOL     OW58484   4.713   6.558   5.772 -0.5988  0.5210  0.4096
16185SOL    HW158485   4.653   6.554   5.847 -0.5932  1.0059  0.4459
16185SOL    HW258486   4.714   6.651   5.748 -2.6550  0.0292 -1.8945
16186SOL     OW58487   8.139   8.855   2.756  0.0143  0.4432 -0.3833
16186SOL    HW158488   8.138   8.787   2.823 -0.5616 -0.7476 -1.5685
16186SOL    HW258489   8.190   8.926   2.795 -0.8037  0.0299  1.5406
16187SOL     OW58490   5.881   1.231   6.520  0.4382  0.2710 -0.2186
16187SOL    HW158491   5.834   1.238   6.436 -0.0650  0.5881  0.0858
16187SOL    HW258492   5.904   1.138   6.526  1.3394  0.4091 -1.1631
16188SOL     OW58493  10.571   6.427   4.125  0.3050 -0.8124 -0.1021
16188SOL    HW158494  10.662   6.457   4.116 -0.4394  0.9972 -3.3751
16188SOL    HW258495  10.577   6.332   4.133  2.4552 -0.7459 -0.3517
16189SOL     OW58496   8.486   9.202   9.437 -0.2995  0.0936 -0.3517
16189SOL    HW158497   8.528   9.203   9.351  0.5909  1.1451  0.0837
16189SOL    HW258498   8.524   9.276   9.484 -2.3518  0.8586  0.2072
16190SOL     OW58499   1.696   0.521  12.105  0.3750 -0.1672  0.5561
16190SOL    HW158500   1.776   0.505  12.055  0.1012  1.9737 -0.7188
16190SOL    HW258501   1.726   0.538  12.194  1.4980  1.3821 -0.0604
16191SOL     OW58502   2.441   6.385  11.965 -0.2382  0.3071 -0.5715
16191SOL    HW158503   2.458   6.475  11.937 -1.4431  0.7383  0.0205
16191SOL    HW258504   2.497   6.332  11.908  1.5892  1.4971  0.0045
16192SOL     OW58505  12.483   5.556   0.512 -0.1530 -0.2000 -0.2545
16192SOL    HW158506  12.483   5.651   0.517  0.7659 -0.2174  0.1702
16192SOL    HW258507  12.516   5.537   0.424  1.1273 -0.1417  0.2059
16193SOL     OW58508   0.370   3.306  11.897  0.6232  0.2942  0.4809
16193SOL    HW158509   0.427   3.369  11.851  2.0978 -1.1029  0.2984
16193SOL    HW258510   0.431   3.249  11.944 -0.7201 -0.4685  1.3429
16194SOL     OW58511   7.295  10.713   7.378 -0.4251  0.4762 -0.0415
16194SOL    HW158512   7.227  10.661   7.420 -0.0628  1.8651  2.4816
16194SOL    HW258513   7.263  10.803   7.382  1.3625  1.1326  0.9796
16195SOL     OW58514  11.765   6.013   6.077 -0.0349  0.6064  0.6873
16195SOL    HW158515  11.849   5.997   6.121 -0.3544  0.5708  1.2960
16195SOL    HW258516  11.787   6.017   5.984  0.5894  0.2300  0.8129
16196SOL     OW58517   5.176   4.765   6.260  0.1441  0.4601  0.1894
16196SOL    HW158518   5.174   4.852   6.299 -0.4700 -0.0829  1.4325
16196SOL    HW258519   5.208   4.779   6.171 -1.5420  2.1696 -0.2213
16197SOL     OW58520  10.592   6.138  10.729  0.0296  1.0015 -0.7347
16197SOL    HW158521  10.657   6.093  10.784 -0.4078  0.1868 -0.8622
16197SOL    HW258522  10.640   6.211  10.689  1.0640 -0.0088 -1.4021
16198SOL     OW58523   2.158  11.898  11.583  0.1094 -0.0273  0.0487
16198SOL    HW158524   2.123  11.983  11.556 -0.2372 -0.3263 -0.4631
16198SOL    HW258525   2.252  11.911  11.587 -0.0745  1.0652  2.3692
16199SOL     OW58526   5.361   0.583   6.544  0.6026 -0.2178  0.3677
16199SOL    HW158527   5.449   0.592   6.508  0.1219 -0.0407 -0.8090
16199SOL    HW258528   5.353   0.654   6.607  1.8190 -1.1459  1.6379
16200SOL     OW58529   4.158   4.003   1.837 -0.0239  0.2208  0.2250
16200SOL    HW158530   4.221   3.944   1.796 -1.5344 -0.9654 -0.5194
16200SOL    HW258531   4.154   3.975   1.928 -0.0211 -0.1986  0.0963
16201SOL     OW58532   0.807   0.833   7.644  0.1639  0.1094  0.2625
16201SOL    HW158533   0.859   0.872   7.573 -0.3935  3.4854  1.5046
16201SOL    HW258534   0.811   0.739   7.628  1.9053  0.5794 -2.9210
16202SOL     OW58535  11.035   0.183   6.246 -0.6483 -0.4858  0.2837
16202SOL    HW158536  10.987   0.116   6.295 -0.7541 -0.0012  0.8480
16202SOL    HW258537  11.044   0.146   6.158  0.4241 -1.8129  0.9094
16203SOL     OW58538   8.214   6.296  13.260  0.3212  0.2042 -0.3267
16203SOL    HW158539   8.188   6.216  13.306  1.0092  1.0296  1.5780
16203SOL    HW258540   8.139   6.354  13.267 -0.9253 -0.8285 -3.3436
16204SOL     OW58541   3.785   5.256   9.058  0.1244 -0.0325 -0.2064
16204SOL    HW158542   3.746   5.298   8.981  0.4464 -0.6637 -0.7282
16204SOL    HW258543   3.846   5.192   9.021 -0.6370 -1.2368  0.5555
16205SOL     OW58544  12.127   8.248   2.639 -0.3824  0.4454  0.2895
16205SOL    HW158545  12.036   8.247   2.668 -1.8834 -0.0170 -3.8002
16205SOL    HW258546  12.157   8.338   2.655 -2.1073  1.0553  0.2482
16206SOL     OW58547   2.012   4.471   4.633  0.2899 -0.5730 -0.4381
16206SOL    HW158548   2.064   4.472   4.714  1.6474  0.7697 -1.2613
16206SOL    HW258549   2.037   4.390   4.590  0.0747 -0.9672  0.1732
16207SOL     OW58550   3.870   9.855   3.996  0.5096  0.0707  0.0423
16207SOL    HW158551   3.956   9.882   4.029  0.6861 -2.1801  1.6559
16207SOL    HW258552   3.846   9.780   4.050 -1.3579 -0.9369 -2.0120
16208SOL     OW58553   9.588  13.283   2.930  0.8003 -0.3373  0.5816
16208SOL    HW158554   9.665  13.338   2.944  0.3453  0.5136 -0.1299
16208SOL    HW258555   9.515  13.335   2.963  0.3780 -0.5568  0.0140
16209SOL     OW58556  13.198  11.225   0.705 -0.0773 -0.1912 -0.1615
16209SOL    HW158557  13.225  11.135   0.684  0.9100 -0.1532  0.8426
16209SOL    HW258558  13.278  11.268   0.734 -0.9543  0.3288  1.6422
16210SOL     OW58559   1.819   2.628   6.046 -0.4048 -0.0859 -0.0438
16210SOL    HW158560   1.726   2.625   6.022 -0.4942 -3.0021  0.3143
16210SOL    HW258561   1.864   2.582   5.975  0.5418 -0.3496  0.7022
16211SOL     OW58562   5.506   6.777   1.795  0.7267 -0.0478 -0.1015
16211SOL    HW158563   5.516   6.755   1.702  0.5723 -0.3572 -0.0457
16211SOL    HW258564   5.423   6.824   1.799  1.5006  1.3957 -0.3666
16212SOL     OW58565   1.835   9.712   0.845 -0.3393 -0.5424  0.0784
16212SOL    HW158566   1.930   9.723   0.848 -0.3014 -0.9875  1.0768
16212SOL    HW258567   1.800   9.794   0.879 -0.2119 -1.2962  2.1988
16213SOL     OW58568   2.435   3.306   1.117  0.3349 -0.1593 -0.0465
16213SOL    HW158569   2.390   3.224   1.138  0.0899 -0.1363 -0.4660
16213SOL    HW258570   2.458   3.343   1.202 -1.6687  0.5055  0.2588
16214SOL     OW58571   5.570   0.464   8.892  0.1242 -0.3118 -0.2150
16214SOL    HW158572   5.650   0.471   8.840  0.0322 -1.7445 -0.5880
16214SOL    HW258573   5.523   0.545   8.875  1.8695  0.9544  0.6881
16215SOL     OW58574   5.255   5.546   2.187 -0.2101 -0.3696  0.5265
16215SOL    HW158575   5.256   5.612   2.256  1.7782  0.6840 -0.4225
16215SOL    HW258576   5.292   5.591   2.110 -0.4694 -2.0849 -0.6587
16216SOL     OW58577   8.398   9.916   9.647 -0.0345  0.0118  0.0170
16216SOL    HW158578   8.470   9.879   9.596  0.1423  1.1495 -0.5935
16216SOL    HW258579   8.329   9.850   9.642  0.3987 -0.4024 -0.7360
16217SOL     OW58580   7.155   5.263  12.926  0.2666  0.2930  0.4684
16217SOL    HW158581   7.098   5.259  12.849  0.2790  0.1316  0.4666
16217SOL    HW258582   7.141   5.179  12.970  0.7276  0.1292  0.3068
16218SOL     OW58583   1.557   3.605  12.513 -0.1009  0.4590 -0.2300
16218SOL    HW158584   1.598   3.519  12.516  1.2742  0.9873 -2.1383
16218SOL    HW258585   1.590   3.651  12.590 -1.0485 -0.7518  0.9486
16219SOL     OW58586   5.453   5.688   3.302  0.1905  0.2532  0.3613
16219SOL    HW158587   5.422   5.598   3.297  2.4535 -0.5253 -0.8807
16219SOL    HW258588   5.436   5.714   3.393 -2.3675 -0.6345  0.2235
16220SOL     OW58589  10.604   5.569   5.202  0.5414  0.5958  0.0581
16220SOL    HW158590  10.622   5.662   5.190  0.9876  0.5665  0.4795
16220SOL    HW258591  10.596   5.534   5.114  0.4628  1.0151 -0.1033
16221SOL     OW58592  11.488   6.377   8.711 -0.4791 -0.4766  0.1234
16221SOL    HW158593  11.432   6.434   8.657  1.3041 -0.3977 -1.7661
16221SOL    HW258594  11.541   6.329   8.648  0.2608 -1.9626  1.7939
16222SOL     OW58595   4.835   6.360  13.008  0.0209 -0.3373 -0.1419
16222SOL    HW158596   4.827   6.452  12.984  0.2841 -0.1547  0.4411
16222SOL    HW258597   4.847   6.315  12.925  1.4033  0.3304 -0.3352
16223SOL     OW58598   8.272   2.430   2.269  0.0266  0.5246 -0.3521
16223SOL    HW158599   8.324   2.510   2.258 -0.4216  0.7463 -0.9441
16223SOL    HW258600   8.336   2.359   2.262  0.6272  0.8465  1.4427
16224SOL     OW58601  11.921  11.385  11.027 -0.2590 -0.2629  0.2789
16224SOL    HW158602  11.871  11.459  11.062 -0.7694 -0.3930 -0.1569
16224SOL    HW258603  11.876  11.363  10.945  0.6398 -0.2581 -0.2204
16225SOL     OW58604   2.874   2.878   3.282  0.7510 -0.1831  0.2789
16225SOL    HW158605   2.831   2.887   3.367 -0.7411 -2.0861 -0.2137
16225SOL    HW258606   2.806   2.844   3.224  1.7653  0.9436 -1.6805
16226SOL     OW58607   2.319  10.962  12.257 -0.1705 -0.1947  0.0895
16226SOL    HW158608   2.258  10.927  12.322 -0.1766 -0.3180  0.0153
16226SOL    HW258609   2.325  11.055  12.279 -2.7353  0.5003 -1.7437
16227SOL     OW58610   9.669   9.709   1.806 -0.1243 -0.1294 -0.0647
16227SOL    HW158611   9.666   9.661   1.889 -0.6442  1.0870  0.6479
16227SOL    HW258612   9.762   9.712   1.783  0.1342  0.4164  1.0135
16228SOL     OW58613   0.421   7.553   1.152 -0.0155 -0.2589  0.6709
16228SOL    HW158614   0.492   7.591   1.101 -0.8557 -1.5115 -1.5787
16228SOL    HW258615   0.444   7.461   1.161 -0.6848 -0.3918  1.1056
16229SOL     OW58616  11.857   1.008   5.876 -0.0527 -0.0029 -0.1605
16229SOL    HW158617  11.906   1.077   5.922 -0.0187  1.3113 -2.0787
16229SOL    HW258618  11.841   0.942   5.944  2.9266  0.2516  0.9790
16230SOL     OW58619  11.061   7.463   2.520 -0.1984  0.0440 -0.2926
16230SOL    HW158620  11.086   7.374   2.494 -0.5234  0.4614 -2.2057
16230SOL    HW258621  10.977   7.452   2.565 -1.6027 -0.4562 -2.8190
16231SOL     OW58622  11.988   8.006   8.544 -0.1351  0.2221  0.1917
16231SOL    HW158623  12.080   7.982   8.532 -0.3123 -0.9640  1.0438
16231SOL    HW258624  11.990   8.089   8.592  0.4894 -0.3718  1.2105
16232SOL     OW58625   5.055  12.657   2.267  0.2741  0.0188  0.3096
16232SOL    HW158626   5.068  12.744   2.306  1.8664  0.0801 -0.2630
16232SOL    HW258627   4.967  12.631   2.294  0.6779  0.7727  2.5387
16233SOL     OW58628   5.422   5.151   0.646 -0.1433 -0.3246  0.0066
16233SOL    HW158629   5.395   5.205   0.572 -1.0066 -1.5934 -0.6233
16233SOL    HW258630   5.348   5.092   0.662  0.2511 -0.4632  1.5182
16234SOL     OW58631   9.430   8.714   1.434  0.5359 -0.7279  0.1212
16234SOL    HW158632   9.485   8.640   1.409 -0.4152 -1.3284 -0.2502
16234SOL    HW258633   9.428   8.711   1.530  2.5362  0.3563  0.2548
16235SOL     OW58634   7.200   4.402  11.943  0.4250 -0.2124  0.0585
16235SOL    HW158635   7.283   4.450  11.945  0.4339 -0.2259 -0.0042
16235SOL    HW258636   7.190   4.374  11.853  0.2680 -0.0646  0.0284
16236SOL     OW58637   9.154  11.916   0.159 -0.4802 -0.4896  0.0103
16236SOL    HW158638   9.081  11.963   0.118 -0.4932 -0.6124 -0.1119
16236SOL    HW258639   9.120  11.888   0.244 -0.4178 -0.1392  0.1530
16237SOL     OW58640   1.702   3.154   7.234  0.0285  0.1962 -0.0851
16237SOL    HW158641   1.606   3.161   7.238  0.0908  1.4996 -0.3202
16237SOL    HW258642   1.731   3.175   7.323  0.0712 -1.1482  0.2370
16238SOL     OW58643  11.133   3.247   2.601 -0.0869 -0.2769 -0.3623
16238SOL    HW158644  11.227   3.234   2.595  0.0775  0.5214  0.3050
16238SOL    HW258645  11.095   3.172   2.556  0.8922  0.3500 -2.3475
16239SOL     OW58646  12.231   2.389   2.537 -0.2714  0.1690 -0.1033
16239SOL    HW158647  12.267   2.421   2.455 -0.2080  1.3848  0.3794
16239SOL    HW258648  12.307   2.372   2.592 -0.2527 -1.8033 -0.6739
16240SOL     OW58649  11.105   8.241  11.822 -0.0945  0.6588 -0.2390
16240SOL    HW158650  11.046   8.276  11.888 -1.3736 -1.1975 -0.3324
16240SOL    HW258651  11.106   8.308  11.753 -1.1921  1.2264  0.2724
16241SOL     OW58652   8.835   9.411   3.422 -0.3197 -0.7520 -0.1431
16241SOL    HW158653   8.785   9.489   3.445  1.3838 -0.0513  1.4903
16241SOL    HW258654   8.769   9.345   3.401 -1.8407  0.6667  0.0186
16242SOL     OW58655   8.433  11.707   4.554 -0.7709  0.0018  0.1875
16242SOL    HW158656   8.487  11.720   4.476 -0.6802 -2.1612 -0.1876
16242SOL    HW258657   8.496  11.701   4.626 -0.5275 -1.6197 -0.1233
16243SOL     OW58658   8.800   9.540   4.557 -0.6108  0.0820 -0.3226
16243SOL    HW158659   8.724   9.594   4.579 -0.1399  1.2600 -1.4699
16243SOL    HW258660   8.874   9.585   4.597 -0.4617 -0.9738  0.6530
16244SOL     OW58661  10.394   8.908   5.870 -0.0825 -0.0338 -0.0145
16244SOL    HW158662  10.367   8.843   5.805 -1.2582  0.8102 -0.4052
16244SOL    HW258663  10.372   8.992   5.830 -2.0372  0.4933  1.9651
16245SOL     OW58664  12.365   0.944   7.562  0.2852 -0.0364 -0.0860
16245SOL    HW158665  12.410   1.027   7.548  0.5139 -0.4922 -2.4187
16245SOL    HW258666  12.315   0.957   7.643  1.5192  1.8121  0.4317
16246SOL     OW58667   0.691   5.741   6.889  0.0893 -0.4615  0.4067
16246SOL    HW158668   0.654   5.677   6.829  0.6709 -0.0501 -0.3989
16246SOL    HW258669   0.711   5.817   6.835  0.1440  0.1132  1.2097
16247SOL     OW58670   8.055   1.746   7.651 -0.3347  0.0178 -0.0862
16247SOL    HW158671   8.119   1.694   7.603  0.8131  0.8450  0.5027
16247SOL    HW258672   8.107   1.810   7.699 -1.3611 -0.8575  2.4202
16248SOL     OW58673   0.539   5.584  10.941 -0.1106  0.7700  0.0801
16248SOL    HW158674   0.448   5.602  10.965 -0.5358 -1.4654  0.3139
16248SOL    HW258675   0.583   5.569  11.025  0.1230  0.3414 -0.1186
16249SOL     OW58676  11.211   0.026   6.059  0.3383 -0.0259 -0.2200
16249SOL    HW158677  11.150  -0.048   6.060  0.1049  0.1060 -1.8556
16249SOL    HW258678  11.290  -0.009   6.019  0.3017  0.5331 -0.8011
16250SOL     OW58679  12.173   8.968  10.642  0.4006  0.1863  0.4923
16250SOL    HW158680  12.200   8.980  10.733 -2.3398  0.2549  1.3824
16250SOL    HW258681  12.132   8.882  10.641  0.6359  0.0732 -0.7770
16251SOL     OW58682   6.810   0.038   4.451 -0.1012  0.0928 -0.3227
16251SOL    HW158683   6.735  -0.019   4.436  0.9528 -0.8899 -2.2627
16251SOL    HW258684   6.881  -0.021   4.474  0.0592  1.0387  1.8156
16252SOL     OW58685   8.588   6.823  11.643  0.6987  0.4881 -0.3258
16252SOL    HW158686   8.498   6.807  11.615  0.9543  0.6394 -1.2913
16252SOL    HW258687   8.592   6.788  11.732  0.0585 -0.8072 -0.7719
16253SOL     OW58688  10.832   6.493   4.112  0.2550 -0.2746 -1.0188
16253SOL    HW158689  10.835   6.545   4.031  3.4002  0.6848 -0.4330
16253SOL    HW258690  10.851   6.556   4.181 -0.7803 -1.3847  0.3187
16254SOL     OW58691   3.929   7.087  12.960  0.2418 -0.2357  0.1590
16254SOL    HW158692   3.948   7.165  13.012 -0.3146 -0.7083  1.0979
16254SOL    HW258693   3.956   7.111  12.871 -1.5249  1.6738  0.0396
16255SOL     OW58694   7.721  11.664   8.140 -0.2110 -0.6619 -0.1506
16255SOL    HW158695   7.741  11.680   8.048  0.0432  0.3079  0.0555
16255SOL    HW258696   7.634  11.623   8.140  0.2441 -1.6654 -0.8684
16256SOL     OW58697   9.248   6.501   7.722 -0.1954  0.2923  0.3847
16256SOL    HW158698   9.275   6.411   7.702  1.0079  0.9762 -1.1992
16256SOL    HW258699   9.272   6.552   7.645  3.8907  2.9678  3.0068
16257SOL     OW58700   0.510   5.359   3.538 -0.2942 -0.1323 -0.3735
16257SOL    HW158701   0.547   5.285   3.490  0.7554 -0.8292  1.4058
16257SOL    HW258702   0.531   5.435   3.484  0.9404 -0.8709 -0.9859
16258SOL     OW58703   6.899   8.649   3.609  0.3361 -0.0734 -1.2034
16258SOL    HW158704   6.831   8.688   3.664 -0.0283 -1.3565 -0.7261
16258SOL    HW258705   6.854   8.580   3.561  0.9509  0.1467 -2.1193
16259SOL     OW58706   0.355   9.939   3.547  0.0250 -0.7697  0.1805
16259SOL    HW158707   0.344   9.878   3.619  1.3921 -1.6340 -0.2962
16259SOL    HW258708   0.405   9.890   3.481 -1.1050  0.0206 -1.3255
16260SOL     OW58709   8.499   3.456   3.093 -0.3506 -0.2352 -0.0095
16260SOL    HW158710   8.404   3.467   3.090 -0.3764 -0.2949  0.4554
16260SOL    HW258711   8.532   3.508   3.019 -0.6444  0.9567  0.6721
16261SOL     OW58712   1.699   7.064  11.109  0.0496  0.0342  0.1568
16261SOL    HW158713   1.732   7.014  11.035 -0.1674  0.6634 -0.3773
16261SOL    HW258714   1.656   7.139  11.070  1.1455  1.1274  0.9555
16262SOL     OW58715  12.768   6.676   1.491  0.4807 -0.0058 -0.3300
16262SOL    HW158716  12.725   6.718   1.416 -0.6388  0.9072  0.7847
16262SOL    HW258717  12.787   6.748   1.551  1.5425 -0.6977  0.1845
16263SOL     OW58718   3.952   4.815   7.980  0.0547  0.7430  0.2791
16263SOL    HW158719   3.911   4.798   7.895 -0.9894  0.9305  0.7251
16263SOL    HW258720   4.032   4.763   7.980  0.0488  0.7190 -0.8039
16264SOL     OW58721   8.839   5.071  10.507  0.1250 -0.0765  0.0435
16264SOL    HW158722   8.917   5.120  10.481  0.3541 -0.3374  0.2435
16264SOL    HW258723   8.846   5.063  10.602  0.3814 -0.9966 -0.0428
16265SOL     OW58724  10.735   8.830   9.737 -0.1545 -0.4011  0.8074
16265SOL    HW158725  10.807   8.893   9.743 -0.1206 -0.4560  0.9947
16265SOL    HW258726  10.778   8.746   9.721 -0.1627 -0.4682  1.1369
16266SOL     OW58727   6.501   1.019   9.985  0.5090  0.2741  0.1357
16266SOL    HW158728   6.581   1.014  10.037  1.8530  0.2662 -1.8037
16266SOL    HW258729   6.519   1.086   9.919 -0.9554  0.0140 -0.5717
16267SOL     OW58730   5.050  10.851   5.577  0.0109  0.0257  0.4472
16267SOL    HW158731   5.028  10.869   5.485  0.2819  0.3817  0.4525
16267SOL    HW258732   4.968  10.866   5.624 -0.3770 -1.0543  0.1491
16268SOL     OW58733   9.375   6.989   8.169 -0.1280 -0.3968  0.1308
16268SOL    HW158734   9.295   6.941   8.190 -1.1339  0.8254 -0.7837
16268SOL    HW258735   9.440   6.920   8.153 -0.5359 -1.4100  2.3601
16269SOL     OW58736   7.972   0.857  11.270  0.2401  0.3318  1.0267
16269SOL    HW158737   7.915   0.932  11.254 -0.2191 -0.3133 -0.5803
16269SOL    HW258738   8.061   0.890  11.258 -0.0073  0.3941 -0.8539
16270SOL     OW58739  10.695   0.828   4.430 -0.5892 -0.0016 -0.3683
16270SOL    HW158740  10.776   0.795   4.469 -1.4336 -0.3290  1.1922
16270SOL    HW258741  10.723   0.884   4.358  1.0240  0.1974  0.3940
16271SOL     OW58742  12.222   0.264   3.904 -0.3570  0.4058 -0.3390
16271SOL    HW158743  12.224   0.355   3.934 -1.7559  0.4726 -0.3792
16271SOL    HW258744  12.129   0.246   3.889  0.0332 -0.4722 -2.0286
16272SOL     OW58745  10.464  10.148  10.751  0.3068  0.8199 -0.3814
16272SOL    HW158746  10.520  10.072  10.736 -0.3131  0.4973 -1.1425
16272SOL    HW258747  10.507  10.220  10.705 -0.2253  0.4268 -1.5161
16273SOL     OW58748  12.077   2.261   4.284  0.2402 -0.1259 -0.0849
16273SOL    HW158749  12.059   2.329   4.349 -1.1778  0.9626 -1.5493
16273SOL    HW258750  12.153   2.294   4.236  0.5400 -0.3520  0.2297
16274SOL     OW58751   6.520   3.827  13.250  0.2045 -0.0329 -0.2782
16274SOL    HW158752   6.454   3.807  13.316  1.5202 -2.5736  0.4240
16274SOL    HW258753   6.567   3.903  13.284  0.4138 -0.8730  1.4135
16275SOL     OW58754   4.496   6.921  10.061  0.3531 -0.2296  0.2841
16275SOL    HW158755   4.476   6.970   9.982  0.0297 -0.4237  0.2448
16275SOL    HW258756   4.418   6.867  10.077  0.8578 -1.0336  0.0954
16276SOL     OW58757   9.547  11.447  11.953  0.4015 -0.0848  0.4595
16276SOL    HW158758   9.628  11.397  11.941  0.4786 -0.2621  1.5649
16276SOL    HW258759   9.574  11.523  12.004  0.0468  0.3818 -0.0485
16277SOL     OW58760   5.542   5.569   7.833  0.6466  0.2419  0.0923
16277SOL    HW158761   5.542   5.627   7.757  1.2433  2.6494  1.8085
16277SOL    HW258762   5.450   5.555   7.853  0.4281  2.6413  1.0333
16278SOL     OW58763   0.052  10.151  12.497 -0.3173  0.5139 -0.4532
16278SOL    HW158764   0.127  10.169  12.554 -0.6753  0.9249 -0.1004
16278SOL    HW258765   0.021  10.238  12.471 -0.9112  0.3656 -0.2708
16279SOL     OW58766   6.064   8.418   3.974  0.0364 -0.1772  0.3947
16279SOL    HW158767   5.981   8.410   3.927  0.7161  0.7148 -1.0444
16279SOL    HW258768   6.101   8.330   3.973 -0.4755 -0.3926  0.2140
16280SOL     OW58769   8.198  13.152   1.031  0.3838 -0.0906 -0.1090
16280SOL    HW158770   8.177  13.124   0.942  2.1745 -1.1482 -0.2516
16280SOL    HW258771   8.114  13.181   1.068 -0.7044 -1.2284 -1.5667
16281SOL     OW58772   7.381  10.770   1.963  0.3303  0.5153 -0.6215
16281SOL    HW158773   7.357  10.798   2.051  0.9626 -0.5034 -0.1173
16281SOL    HW258774   7.462  10.817   1.944  0.8471 -0.1977 -0.1781
16282SOL     OW58775   1.499  11.090   4.486 -0.7011  0.0523  0.4284
16282SOL    HW158776   1.422  11.147   4.484 -0.8107 -0.0975  0.3872
16282SOL    HW258777   1.464  11.002   4.493 -0.5309 -0.0133  0.4511
16283SOL     OW58778   8.992   7.223  12.420  0.3143 -0.2697  0.3372
16283SOL    HW158779   9.046   7.232  12.498 -0.3788 -0.1887  0.8194
16283SOL    HW258780   8.956   7.310  12.406  0.0716 -0.3913  0.1982
16284SOL     OW58781   2.086   3.151   7.240  0.5851  0.0618  0.4890
16284SOL    HW158782   2.058   3.226   7.188  1.2304  0.1291  0.2355
16284SOL    HW258783   2.029   3.152   7.317  0.3990  0.6349  0.3430
16285SOL     OW58784   2.216  12.855   4.163  0.3503  0.2280 -0.2475
16285SOL    HW158785   2.169  12.932   4.194  0.5710  0.0782  0.4823
16285SOL    HW258786   2.309  12.875   4.178  0.3572 -0.6171  1.0247
16286SOL     OW58787   7.509   8.392  10.357 -0.4010  0.3381  0.4477
16286SOL    HW158788   7.421   8.428  10.354 -1.1535 -1.5021 -1.4203
16286SOL    HW258789   7.564   8.460  10.317 -1.4440  0.3159 -1.0782
16287SOL     OW58790   0.175   1.698   8.026 -0.4850  0.5655  0.1871
16287SOL    HW158791   0.161   1.790   8.005  1.9178  0.9422 -0.0377
16287SOL    HW258792   0.261   1.696   8.067 -0.1333 -1.6849 -0.5470
16288SOL     OW58793  12.202  12.798  10.342  0.1822  0.7240  0.2781
16288SOL    HW158794  12.241  12.775  10.426  0.4887  0.5167  0.0777
16288SOL    HW258795  12.109  12.776  10.352  0.6873 -2.0355 -0.3869
16289SOL     OW58796   2.229  13.156  11.966 -0.1951  0.0685  0.0345
16289SOL    HW158797   2.244  13.069  11.929  0.1141 -0.4634  1.3677
16289SOL    HW258798   2.317  13.191  11.980 -0.1427 -0.9380  2.9360
16290SOL     OW58799  12.355  12.969   0.260 -0.0232 -0.1957  0.0226
16290SOL    HW158800  12.336  13.033   0.328 -2.9970 -1.2420  0.3429
16290SOL    HW258801  12.345  13.017   0.178 -1.4367 -0.0150  0.2736
16291SOL     OW58802   6.644  11.263   7.954 -0.2200 -0.8406 -0.7118
16291SOL    HW158803   6.652  11.183   7.903  1.8001 -1.3680  0.3237
16291SOL    HW258804   6.710  11.255   8.023  0.6526  2.0743 -1.0550
16292SOL     OW58805   7.728   8.898  11.753  0.2684  0.3121  0.4818
16292SOL    HW158806   7.658   8.858  11.805 -0.3911  1.4564  0.5182
16292SOL    HW258807   7.698   8.891  11.662  0.8314 -0.5594  0.3546
16293SOL     OW58808   6.473   5.408  13.124 -0.4628 -0.2750  0.3443
16293SOL    HW158809   6.391   5.426  13.077 -0.3836 -0.4379  0.1404
16293SOL    HW258810   6.525   5.487  13.114 -0.3980 -0.3526  0.0507
16294SOL     OW58811  12.186   7.749  12.269  0.0671 -0.2993 -0.1314
16294SOL    HW158812  12.152   7.667  12.234 -0.0114  0.0228 -0.8346
16294SOL    HW258813  12.128   7.816  12.232  1.7529  0.3286 -1.8017
16295SOL     OW58814   3.486   3.183  10.210 -0.1617  0.2054  0.2298
16295SOL    HW158815   3.494   3.102  10.160  2.3127 -0.0802  0.9632
16295SOL    HW258816   3.471   3.155  10.300 -1.1625  0.6468  0.2191
16296SOL     OW58817   6.682   0.263   6.951  0.5762 -0.3495 -0.2918
16296SOL    HW158818   6.774   0.247   6.930  0.7401 -1.5747  1.2392
16296SOL    HW258819   6.639   0.269   6.865  1.8815 -0.9016 -1.0155
16297SOL     OW58820   2.034   9.582  12.649 -0.2057  0.1450  0.0189
16297SOL    HW158821   2.125   9.609  12.646 -0.6453  1.8460  0.7049
16297SOL    HW258822   1.984   9.660  12.625 -1.4798 -0.8841 -0.8601
16298SOL     OW58823   2.615   3.680   1.633 -0.2543  0.1432 -0.0032
16298SOL    HW158824   2.664   3.652   1.556 -0.7993 -2.5480  0.5207
16298SOL    HW258825   2.640   3.617   1.701 -2.0129  0.6418  1.1759
16299SOL     OW58826   1.099   1.996  10.990 -0.3426  0.1286 -0.3787
16299SOL    HW158827   1.086   1.903  10.967  0.5314 -0.1951  0.4058
16299SOL    HW258828   1.097   2.041  10.906 -1.0636 -0.5582 -0.7532
16300SOL     OW58829   2.707   8.952  11.639  0.2916  0.6186  0.2372
16300SOL    HW158830   2.715   8.888  11.710 -1.5543  0.0987  0.0447
16300SOL    HW258831   2.625   8.997  11.657  1.2102  2.4900 -0.0334
16301SOL     OW58832   6.965   4.673   0.281  0.0227  0.4716 -0.0949
16301SOL    HW158833   6.983   4.579   0.278  0.3501  0.5027  0.5449
16301SOL    HW258834   6.935   4.695   0.193 -0.3392 -0.2855 -0.1697
16302SOL     OW58835   4.282   1.189   0.966  0.4339  0.5638  0.2891
16302SOL    HW158836   4.361   1.153   0.927  0.1590 -1.0423  1.1268
16302SOL    HW258837   4.211   1.154   0.913  0.2002  0.6933  0.5156
16303SOL     OW58838   2.370   4.169   1.325  0.4738  0.2318 -0.2823
16303SOL    HW158839   2.307   4.208   1.385  1.2859  2.2137 -0.6304
16303SOL    HW258840   2.404   4.093   1.372 -0.3083  0.6124  0.9488
16304SOL     OW58841   1.566   7.705  11.093  0.3200 -0.2451  0.1495
16304SOL    HW158842   1.635   7.748  11.042 -0.6678  0.4455 -0.6405
16304SOL    HW258843   1.573   7.745  11.180  0.0449  0.8250 -0.3093
16305SOL     OW58844   0.174   1.980   9.638 -0.0396  0.2325 -0.4349
16305SOL    HW158845   0.172   1.977   9.542  0.1499  3.8810 -0.7305
16305SOL    HW258846   0.261   1.947   9.661  0.3408  0.3288 -1.6480
16306SOL     OW58847   3.833   2.647   6.995 -0.0802 -0.0275 -0.5672
16306SOL    HW158848   3.864   2.672   7.082 -1.1814  1.0453 -0.4712
16306SOL    HW258849   3.852   2.722   6.940 -0.5985 -0.1849 -0.9673
16307SOL     OW58850   6.244  12.551   2.899  0.1315  0.3936 -0.1344
16307SOL    HW158851   6.156  12.550   2.936 -0.8537  1.1006 -2.2704
16307SOL    HW258852   6.235  12.508   2.814  2.0929 -0.4462  0.0127
16308SOL     OW58853   3.404  10.830   8.687 -0.8563 -0.6716 -0.0169
16308SOL    HW158854   3.311  10.837   8.666 -1.1691  0.5409  1.5893
16308SOL    HW258855   3.430  10.919   8.713  1.0411 -0.7323 -1.4456
16309SOL     OW58856   7.594   3.500   0.150 -0.3002  0.0159  0.3008
16309SOL    HW158857   7.564   3.427   0.204  0.4986 -0.6713 -0.1519
16309SOL    HW258858   7.562   3.480   0.062 -1.3707  0.9941  0.4538
16310SOL     OW58859   9.786   4.862   3.199  0.4358 -0.5125 -0.7791
16310SOL    HW158860   9.691   4.849   3.209  0.3177 -1.0307 -2.3868
16310SOL    HW258861   9.824   4.778   3.226  0.4291 -0.3821 -0.3563
16311SOL     OW58862   9.163  13.299   1.195 -0.0302  0.1216  0.4380
16311SOL    HW158863   9.160  13.204   1.188  1.5908 -0.0544  1.4319
16311SOL    HW258864   9.089  13.330   1.144 -0.4028 -1.6594 -0.1622
16312SOL     OW58865   3.544  10.074   6.858 -0.4262 -0.2587 -0.3903
16312SOL    HW158866   3.609  10.143   6.845 -1.8561  2.2668  3.9780
16312SOL    HW258867   3.594   9.999   6.890  0.7372 -0.0590 -1.6310
16313SOL     OW58868  10.007   1.077  12.151  0.2832 -0.0083 -0.1691
16313SOL    HW158869  10.077   1.064  12.215  0.6363  3.1269  0.2399
16313SOL    HW258870   9.938   1.123  12.199  0.0309  1.3183 -1.7071
16314SOL     OW58871   6.736  12.191   2.903 -0.2132  0.1106  0.2706
16314SOL    HW158872   6.689  12.111   2.925  0.7317 -0.5546 -0.0330
16314SOL    HW258873   6.680  12.262   2.934 -1.4524 -0.6395 -0.1764
16315SOL     OW58874  13.286   9.259  12.573 -0.8889 -0.2354 -0.4659
16315SOL    HW158875  13.293   9.307  12.655 -2.3823 -0.2806 -0.2794
16315SOL    HW258876  13.236   9.316  12.515 -2.0184 -1.2054 -0.4974
16316SOL     OW58877   5.380   2.926   6.676  0.1458 -0.3251 -0.0466
16316SOL    HW158878   5.347   2.840   6.704 -0.0645  0.1223  1.1322
16316SOL    HW258879   5.475   2.917   6.678  0.1236 -0.6688 -0.3936
16317SOL     OW58880  13.023   7.905  11.868 -0.4907 -0.2802 -0.1387
16317SOL    HW158881  12.938   7.948  11.862 -0.6257 -0.5290 -0.0044
16317SOL    HW258882  13.043   7.880  11.778  0.2754  1.3753 -0.4655
16318SOL     OW58883   0.798  11.291   5.097 -0.2039  0.0294  0.0829
16318SOL    HW158884   0.846  11.330   5.171  1.4408  0.6357 -1.2183
16318SOL    HW258885   0.822  11.198   5.099  0.4046  0.1744 -0.0605
16319SOL     OW58886   0.827   4.336   0.531  0.3361 -0.1186  0.2002
16319SOL    HW158887   0.822   4.422   0.488 -0.5508  0.3170  1.1295
16319SOL    HW258888   0.846   4.357   0.622 -0.0199 -0.9061  0.4579
16320SOL     OW58889   5.091  10.569   3.632 -0.1279  0.0374 -0.0353
16320SOL    HW158890   5.109  10.611   3.716  1.4313 -0.8333  0.1059
16320SOL    HW258891   5.169  10.517   3.614 -1.2103 -1.3140 -1.0990
16321SOL     OW58892   3.747  10.114  11.682  0.5100 -0.0284 -0.2796
16321SOL    HW158893   3.838  10.143  11.691  0.9774 -1.3389 -0.5684
16321SOL    HW258894   3.748  10.057  11.606 -0.6764  0.3393 -0.5959
16322SOL     OW58895   9.426   6.211   7.441 -0.3516 -0.4944 -0.3511
16322SOL    HW158896   9.376   6.270   7.385  0.0482  1.1046  0.9152
16322SOL    HW258897   9.516   6.218   7.409 -0.1587  0.2638  0.3303
16323SOL     OW58898   8.829   0.241   5.666 -0.5806 -0.1412  0.3263
16323SOL    HW158899   8.903   0.293   5.700  0.3949 -2.3861  1.8728
16323SOL    HW258900   8.854   0.150   5.683 -2.8747 -1.0795 -0.9086
16324SOL     OW58901   3.468   4.941   6.594  0.6762 -0.1320  0.4469
16324SOL    HW158902   3.562   4.940   6.613  0.4180  0.6606  1.8853
16324SOL    HW258903   3.430   4.876   6.654 -0.0812  1.9690  2.3591
16325SOL     OW58904   4.907  11.379   3.822 -0.8651  0.1649 -0.0579
16325SOL    HW158905   4.875  11.468   3.837 -1.5458  0.0491 -0.7741
16325SOL    HW258906   4.906  11.368   3.727 -0.4761 -0.4904  0.0052
16326SOL     OW58907   6.854   7.364  11.474 -0.0614 -0.0139  0.2263
16326SOL    HW158908   6.925   7.402  11.526 -2.6122  1.4506  3.0121
16326SOL    HW258909   6.819   7.295  11.530 -1.7794  0.3516 -0.3480
16327SOL     OW58910  10.779  10.477  11.984  0.2197 -0.6578 -0.3968
16327SOL    HW158911  10.737  10.392  11.989 -0.5007 -0.4609 -2.3250
16327SOL    HW258912  10.736  10.522  11.911  1.3256  0.9336 -0.1392
16328SOL     OW58913  13.302   0.229   1.945 -0.8942 -0.3674  0.2201
16328SOL    HW158914  13.303   0.185   2.030 -0.5356 -0.5133  0.1439
16328SOL    HW258915  13.340   0.316   1.962  0.3842 -0.8473 -0.0176
16329SOL     OW58916   5.842   4.394   2.877  0.2392 -0.2998  0.2350
16329SOL    HW158917   5.791   4.448   2.938 -2.6928 -2.7438  0.1486
16329SOL    HW258918   5.890   4.333   2.932 -1.6257 -1.8463  0.2261
16330SOL     OW58919  11.749  11.325   5.318 -0.1904 -0.0164 -0.2337
16330SOL    HW158920  11.758  11.366   5.404  1.3755 -3.2702  1.3433
16330SOL    HW258921  11.656  11.330   5.298 -0.8428 -0.3212  2.3576
16331SOL     OW58922   8.136   2.971   0.021  0.3193 -0.1870 -0.3614
16331SOL    HW158923   8.170   2.897  -0.028 -0.2864 -0.3571 -0.5378
16331SOL    HW258924   8.210   3.031   0.030  0.5309 -0.3218 -1.1688
16332SOL     OW58925   5.167   3.164   4.958  0.2157  0.3714  0.2293
16332SOL    HW158926   5.102   3.187   4.892  0.3940  1.5031  0.4280
16332SOL    HW258927   5.217   3.092   4.918  1.8359  2.5273 -1.9268
16333SOL     OW58928   6.826   0.310   3.337  0.1417 -0.0249  0.1314
16333SOL    HW158929   6.812   0.222   3.374  0.9308  0.5680  1.9854
16333SOL    HW258930   6.909   0.303   3.290  0.0635 -0.3406  0.0357
16334SOL     OW58931   2.036   6.764   8.892  0.4420  0.1939  0.2266
16334SOL    HW158932   2.101   6.814   8.941  2.5201  0.0354 -2.1670
16334SOL    HW258933   2.028   6.681   8.939  2.5099 -0.0437  0.2267
16335SOL     OW58934   7.994   1.677   1.165  0.6999 -0.3717 -0.3162
16335SOL    HW158935   8.016   1.725   1.085  0.2814  0.6252  0.1506
16335SOL    HW258936   7.916   1.626   1.141  1.2469 -0.9818 -0.8645
16336SOL     OW58937   7.783   6.810   6.614  0.3467  0.3007  0.0211
16336SOL    HW158938   7.765   6.716   6.609  0.1962  0.3400 -0.1440
16336SOL    HW258939   7.719   6.843   6.677 -0.4960  0.5248 -0.9281
16337SOL     OW58940   9.527   4.165   5.805  0.5702 -0.7418  0.1773
16337SOL    HW158941   9.460   4.148   5.739 -0.1800  0.6807  0.5348
16337SOL    HW258942   9.564   4.250   5.782  0.0607 -0.0478  1.7457
16338SOL     OW58943   5.510   8.296  12.712 -0.2590  0.2042  0.0219
16338SOL    HW158944   5.586   8.268  12.762  1.0826  0.5383 -1.7269
16338SOL    HW258945   5.441   8.235  12.737  1.3115 -1.8158 -0.3040
16339SOL     OW58946  12.993   5.377   0.272 -0.1504  0.3485 -0.0259
16339SOL    HW158947  13.047   5.431   0.329  1.8638 -0.2824 -1.2262
16339SOL    HW258948  13.039   5.293   0.269 -1.7066 -0.5306 -0.4087
16340SOL     OW58949   0.182   1.039   7.052 -0.0601 -0.1736 -0.5781
16340SOL    HW158950   0.093   1.072   7.066  0.2402  0.5093 -0.2566
16340SOL    HW258951   0.183   0.953   7.095 -0.3876  0.0757 -0.0687
16341SOL     OW58952   5.320   9.063   4.646  0.0918  0.2168 -0.0647
16341SOL    HW158953   5.307   9.047   4.740  0.8496  2.4043  0.4713
16341SOL    HW258954   5.234   9.092   4.615  0.0046  0.1498  0.1082
16342SOL     OW58955  12.302  10.684  12.267  0.1367 -0.2838 -0.7668
16342SOL    HW158956  12.222  10.700  12.217 -0.3795  1.0861  0.3978
16342SOL    HW258957  12.353  10.764  12.256  0.9166 -0.7690 -0.7350
16343SOL     OW58958   6.931   0.787   4.499 -0.2536  0.3605 -0.5638
16343SOL    HW158959   6.859   0.846   4.478  1.3130  2.2295 -1.0663
16343SOL    HW258960   6.963   0.817   4.584 -0.0309 -0.3940 -0.3742
16344SOL     OW58961   4.107   3.500   0.849 -0.6597  0.8993 -0.2504
16344SOL    HW158962   4.080   3.586   0.818  1.4669  1.7056  0.0182
16344SOL    HW258963   4.161   3.465   0.778  1.1374  1.1761  0.9185
16345SOL     OW58964   0.235  13.164   5.397  0.5930 -0.4407 -0.6330
16345SOL    HW158965   0.258  13.074   5.375  0.4824 -0.8308  0.7544
16345SOL    HW258966   0.152  13.157   5.445  0.0844  0.4985 -1.3328
16346SOL     OW58967   6.031   7.589   8.564  0.3283  0.2314  0.3462
16346SOL    HW158968   6.109   7.596   8.509  0.8908 -1.1846  0.9174
16346SOL    HW258969   5.965   7.642   8.519  2.2841  3.7227  1.2180
16347SOL     OW58970   1.117   5.611   6.311  0.1509 -0.1440 -0.2035
16347SOL    HW158971   1.196   5.621   6.259 -1.5052 -2.3433 -3.5519
16347SOL    HW258972   1.116   5.519   6.337 -2.1609 -0.7718 -2.0955
16348SOL     OW58973   3.768   9.576   9.738 -0.1459  0.1934 -0.4248
16348SOL    HW158974   3.815   9.493   9.735 -0.6146 -0.0929 -0.0961
16348SOL    HW258975   3.698   9.562   9.803  0.1627  1.0494  0.1143
16349SOL     OW58976   6.594   4.459  13.090 -0.2536 -0.0309  0.1493
16349SOL    HW158977   6.548   4.520  13.147  0.5786  2.0842 -1.3442
16349SOL    HW258978   6.529   4.431  13.026 -0.7003 -0.9733  0.9813
16350SOL     OW58979   7.249   3.996   5.556  0.1614 -0.3905 -0.8302
16350SOL    HW158980   7.174   4.053   5.571  0.8474 -0.1036  2.2755
16350SOL    HW258981   7.213   3.917   5.516 -1.9020 -0.4236  0.9487
16351SOL     OW58982  13.198   9.587   9.816  0.3273  0.1850  0.1826
16351SOL    HW158983  13.197   9.597   9.912 -1.3080  0.0351  0.2018
16351SOL    HW258984  13.291   9.575   9.795  0.6913 -0.0860  1.7742
16352SOL     OW58985   2.795  10.755   3.247  0.0012  0.4061  0.5063
16352SOL    HW158986   2.778  10.816   3.318 -0.3568 -0.8177  1.5018
16352SOL    HW258987   2.709  10.735   3.211 -0.1049 -0.9371  1.4279
16353SOL     OW58988   5.816  12.318   3.550  0.1408 -0.4688  1.0099
16353SOL    HW158989   5.844  12.297   3.639  0.9519 -0.6404  0.7214
16353SOL    HW258990   5.847  12.245   3.496  0.4823  0.0729  0.4483
16354SOL     OW58991   0.187   8.904   0.412 -0.9180  0.4866 -0.2198
16354SOL    HW158992   0.170   8.985   0.461  0.0414  0.1371  0.7493
16354SOL    HW258993   0.117   8.844   0.440 -0.1182  0.1391  1.1352
16355SOL     OW58994  10.513   5.453   1.482  0.1723  0.3551  0.0586
16355SOL    HW158995  10.530   5.546   1.470 -0.4280  0.5388  0.5782
16355SOL    HW258996  10.492   5.445   1.575 -0.1312 -0.2436 -0.0587
16356SOL     OW58997  12.758  11.337   3.927 -0.1860 -0.0813  0.1428
16356SOL    HW158998  12.741  11.429   3.906 -0.6541  0.4416  2.5505
16356SOL    HW258999  12.835  11.315   3.876 -0.5049  1.4086 -1.0632
16357SOL     OW59000   1.309   3.883   6.955  0.0029 -0.1051  0.0927
16357SOL    HW159001   1.360   3.803   6.967  0.5300  0.1647 -0.2813
16357SOL    HW259002   1.370   3.943   6.911 -1.1582 -0.3217 -1.9152
16358SOL     OW59003   2.091  10.220  12.367  0.3304  0.1056  0.3324
16358SOL    HW159004   2.133  10.302  12.341  1.8310 -0.5277  0.6122
16358SOL    HW259005   2.123  10.156  12.303 -0.2943 -0.3930  0.5140
16359SOL     OW59006  12.752   8.388   9.570  0.7524  0.3095 -0.2325
16359SOL    HW159007  12.847   8.382   9.573  0.8280  1.0326 -0.8932
16359SOL    HW259008  12.726   8.411   9.659  1.1231 -0.6460  0.1378
16360SOL     OW59009   9.935   9.500   4.487  0.0800  0.2034 -0.6304
16360SOL    HW159010   9.857   9.496   4.541 -1.0388 -0.6825 -2.2155
16360SOL    HW259011   9.912   9.561   4.417  0.4179 -0.7872 -1.6395
16361SOL     OW59012   2.710  11.053   7.725 -0.0197  0.0443  0.4968
16361SOL    HW159013   2.763  11.132   7.714 -0.6680  0.6692  1.6641
16361SOL    HW259014   2.641  11.079   7.786  1.0030 -1.9960  2.6887
16362SOL     OW59015   2.658  10.350   6.648  0.1002 -0.0245  0.6489
16362SOL    HW159016   2.638  10.264   6.685  1.9263 -0.8416 -0.1233
16362SOL    HW259017   2.689  10.401   6.723  0.7519 -0.6584  0.8364
16363SOL     OW59018   5.848   7.160   2.360  0.3343 -0.1799  0.3703
16363SOL    HW159019   5.802   7.226   2.308  1.5084  0.1160 -0.3279
16363SOL    HW259020   5.810   7.168   2.448 -0.5036  0.4645 -0.0337
16364SOL     OW59021  11.090   3.542   6.129  0.0120 -0.5515 -0.3767
16364SOL    HW159022  11.072   3.611   6.193 -1.6027 -0.4376 -0.9232
16364SOL    HW259023  11.017   3.481   6.137  1.3206 -2.1638 -0.0294
16365SOL     OW59024   3.976   2.063   8.792 -0.4682  0.1459 -0.2366
16365SOL    HW159025   3.976   2.150   8.832  0.1742  0.8734 -1.7295
16365SOL    HW259026   4.009   2.005   8.860  2.1557  1.5712 -0.1637
16366SOL     OW59027   5.169   5.386   0.220 -0.4442  0.1690 -0.2997
16366SOL    HW159028   5.238   5.448   0.196  0.8967 -1.5559 -1.0942
16366SOL    HW259029   5.109   5.437   0.274 -0.4762  2.6992 -2.5331
16367SOL     OW59030   5.413   7.530   5.380 -0.2323 -0.2882  0.3553
16367SOL    HW159031   5.472   7.460   5.353 -0.0512 -0.4070  1.0228
16367SOL    HW259032   5.338   7.484   5.419  0.1422 -0.1254  1.3132
16368SOL     OW59033   1.202   9.385   0.361 -0.2064 -0.2649 -0.2278
16368SOL    HW159034   1.151   9.329   0.303 -0.4359 -0.2859 -0.0041
16368SOL    HW259035   1.270   9.327   0.397 -0.5249 -0.4354  0.1069
16369SOL     OW59036   8.068   9.194   7.765 -0.2922  0.2390 -0.0928
16369SOL    HW159037   8.008   9.140   7.713 -2.4633  0.6353  1.8654
16369SOL    HW259038   8.148   9.141   7.770 -1.0806 -1.1508 -1.2435
16370SOL     OW59039   1.814   8.676   2.736 -0.1933 -0.1375  0.3805
16370SOL    HW159040   1.883   8.719   2.788 -0.9251  1.9865 -0.2974
16370SOL    HW259041   1.742   8.664   2.798 -0.6673  1.3915  0.1598
16371SOL     OW59042  10.209   2.888   9.189 -0.3413  0.3699  0.3434
16371SOL    HW159043  10.168   2.838   9.259 -0.9469 -0.4634 -0.5851
16371SOL    HW259044  10.274   2.943   9.233  1.0917 -1.9789  1.3021
16372SOL     OW59045   2.648   3.947   2.918 -0.6175 -0.5292 -0.3955
16372SOL    HW159046   2.612   3.999   2.990  0.2160 -0.2374 -0.1759
16372SOL    HW259047   2.740   3.936   2.941 -0.3716 -0.5327 -1.3703
16373SOL     OW59048  10.617   2.559   2.314  0.2641 -0.0461  0.1999
16373SOL    HW159049  10.557   2.634   2.317  0.2696 -0.0358  0.0364
16373SOL    HW259050  10.636   2.547   2.221  0.5614 -0.0159  0.2586
16374SOL     OW59051   0.390   6.306   2.584  0.2856 -0.4419  0.7906
16374SOL    HW159052   0.460   6.241   2.589 -0.6626 -1.4788  1.0983
16374SOL    HW259053   0.333   6.275   2.514  2.0712  2.4521 -2.1822
16375SOL     OW59054   9.939  10.090  11.790 -0.3669  0.5407 -0.5653
16375SOL    HW159055   9.861  10.141  11.766 -0.5298  1.8357  2.3157
16375SOL    HW259056   9.918  10.055  11.876  3.0388  2.9879  1.5112
16376SOL     OW59057   1.938   2.975   0.019 -0.1285 -0.0202 -0.7321
16376SOL    HW159058   1.860   2.934   0.056  0.3664 -0.8625 -0.5877
16376SOL    HW259059   1.998   2.984   0.093  0.3393 -0.4420 -1.0452
16377SOL     OW59060  12.602   1.137   4.004 -0.1998 -0.1882  0.4039
16377SOL    HW159061  12.560   1.051   3.998 -0.4004 -0.0781  0.2234
16377SOL    HW259062  12.671   1.135   3.937 -0.3578 -0.1222  0.2390
16378SOL     OW59063   3.919   6.974   7.338  0.4310  0.0052 -0.1497
16378SOL    HW159064   3.904   6.910   7.269 -1.5840  0.4327 -0.1725
16378SOL    HW259065   3.932   7.057   7.291  1.6793 -0.1153 -0.0674
16379SOL     OW59066   3.199  11.361   3.923 -0.0455 -0.0090  0.1249
16379SOL    HW159067   3.242  11.419   3.860 -0.1764  0.0370  0.0762
16379SOL    HW259068   3.174  11.285   3.872  0.2614 -0.1757  0.2212
16380SOL     OW59069   6.624   8.957   1.359 -0.3958 -0.5643 -0.2849
16380SOL    HW159070   6.615   8.872   1.315  0.4501 -0.2320 -1.1505
16380SOL    HW259071   6.538   8.997   1.353 -0.9681 -1.6039  0.6705
16381SOL     OW59072  10.467   2.163   4.796 -0.2009  0.0124  0.6318
16381SOL    HW159073  10.516   2.233   4.838 -0.9829  0.0259  1.5632
16381SOL    HW259074  10.427   2.204   4.719  0.1782  0.3244  0.5991
16382SOL     OW59075   2.764   6.105   0.653 -0.4851  0.3069 -0.8273
16382SOL    HW159076   2.701   6.062   0.711  0.9316 -0.7154  0.0297
16382SOL    HW259077   2.783   6.039   0.586  1.9645 -0.6763  0.6919
16383SOL     OW59078  11.950  11.528   4.567  0.1660 -0.0985  0.3538
16383SOL    HW159079  11.931  11.585   4.641 -0.9082  0.0296 -0.0057
16383SOL    HW259080  11.912  11.573   4.491  1.8081  0.0927 -0.3955
16384SOL     OW59081   1.265   0.553   8.981  0.4753 -0.0561  0.2188
16384SOL    HW159082   1.343   0.523   8.935  0.8171 -0.4747  1.0363
16384SOL    HW259083   1.297   0.621   9.040 -0.2514  1.7940 -1.4240
16385SOL     OW59084   0.555   9.995  12.234  0.1779 -0.4355  0.5284
16385SOL    HW159085   0.618   9.958  12.172 -1.5458 -0.0872 -1.5838
16385SOL    HW259086   0.549  10.088  12.210 -2.5648 -0.8528 -0.7720
16386SOL     OW59087  10.989  11.110   3.983 -0.4398 -0.3239 -0.3574
16386SOL    HW159088  10.950  11.118   3.896 -0.4561  0.9048 -0.2537
16386SOL    HW259089  11.077  11.146   3.973  0.3015 -2.0592 -0.3266
16387SOL     OW59090   9.785   9.398  13.249 -0.0511 -0.1695 -0.1104
16387SOL    HW159091   9.838   9.459  13.300  0.6373 -1.2333  0.4976
16387SOL    HW259092   9.844   9.325  13.230 -0.5758 -0.2431 -1.6239
16388SOL     OW59093   8.071   3.467   8.056 -0.1198 -0.4389 -0.8840
16388SOL    HW159094   8.026   3.485   7.974 -0.6150  1.8897 -0.1661
16388SOL    HW259095   8.164   3.472   8.035 -0.2483  0.4218 -1.2645
16389SOL     OW59096   1.322  10.190   4.921 -0.0798 -0.4785  0.1889
16389SOL    HW159097   1.387  10.132   4.881  0.4238 -1.5900  2.4252
16389SOL    HW259098   1.331  10.174   5.015 -1.8070  1.2941  0.7250
16390SOL     OW59099   6.502   2.256   0.148 -0.5368  0.0918 -0.2832
16390SOL    HW159100   6.597   2.247   0.143 -0.3284  1.5135  0.4678
16390SOL    HW259101   6.470   2.168   0.167  0.6060 -0.4424 -0.7664
16391SOL     OW59102   9.762   6.634   1.405 -0.1897 -0.4637  0.3834
16391SOL    HW159103   9.693   6.700   1.403 -0.6469 -0.9283  0.5712
16391SOL    HW259104   9.717   6.553   1.430  0.5771 -0.5764  1.5052
16392SOL     OW59105   0.940  10.436   8.996  0.0630 -0.2190  0.2741
16392SOL    HW159106   0.983  10.449   9.080 -0.7911  0.3332  0.6426
16392SOL    HW259107   0.884  10.514   8.985  1.2991  0.4895 -1.5136
16393SOL     OW59108   3.453  12.431   7.447 -0.2428  0.2746 -0.1840
16393SOL    HW159109   3.367  12.390   7.450 -0.0134 -0.3263 -1.1935
16393SOL    HW259110   3.437  12.518   7.409 -0.5186  0.5148  0.4741
16394SOL     OW59111   6.241  12.240   6.570 -0.5489 -0.1623 -0.2325
16394SOL    HW159112   6.167  12.286   6.609 -0.6873 -0.7449  0.2048
16394SOL    HW259113   6.299  12.221   6.644 -0.8600 -1.3692 -0.2760
16395SOL     OW59114  13.262   1.729   9.982 -0.0927 -0.1365 -0.9418
16395SOL    HW159115  13.275   1.648  10.032  1.9019  1.2822  1.0203
16395SOL    HW259116  13.350   1.759   9.961 -0.7069  2.1709 -0.4921
16396SOL     OW59117   6.526   6.258   0.494 -0.2318  0.0338  0.0298
16396SOL    HW159118   6.535   6.352   0.484  1.6631 -0.1041  0.0879
16396SOL    HW259119   6.438   6.245   0.530  0.0717  1.8704  1.5068
16397SOL     OW59120   8.608  11.513  12.719  0.2668 -0.0837  0.4727
16397SOL    HW159121   8.591  11.428  12.758 -0.0190  0.5262  1.7256
16397SOL    HW259122   8.588  11.576  12.788  0.0429  1.0278 -0.5660
16398SOL     OW59123   0.329   7.230   3.316 -0.1257  0.0352  0.2716
16398SOL    HW159124   0.268   7.303   3.327 -0.8234 -0.3763 -0.8508
16398SOL    HW259125   0.359   7.236   3.225 -1.0442 -1.7250 -0.1856
16399SOL     OW59126   6.299  10.563   6.131  0.3409 -0.0808 -0.6053
16399SOL    HW159127   6.236  10.540   6.063  0.3292 -1.1887 -0.2452
16399SOL    HW259128   6.319  10.480   6.174  1.6299  0.3298 -0.3515
16400SOL     OW59129  11.881   3.039  11.464 -0.7027  0.3681  0.6750
16400SOL    HW159130  11.912   3.107  11.524 -0.3935  0.5903  0.2633
16400SOL    HW259131  11.926   2.959  11.492  0.4143  0.7229 -0.0409
16401SOL     OW59132   0.903   3.053   7.314 -0.5047  0.6974  0.2636
16401SOL    HW159133   0.893   3.123   7.250  0.0590 -0.3963 -1.0646
16401SOL    HW259134   0.996   3.052   7.335 -0.2753 -0.4887 -0.7300
16402SOL     OW59135   8.421  12.973  11.205  0.0086 -0.5458  0.2935
16402SOL    HW159136   8.357  12.902  11.194  0.5954 -1.7842  3.6702
16402SOL    HW259137   8.503  12.936  11.172 -0.0569 -0.7541  0.3612
16403SOL     OW59138  13.238   9.138   4.838  0.1806 -0.3093 -0.2882
16403SOL    HW159139  13.309   9.194   4.807 -0.4296 -0.0802 -1.3377
16403SOL    HW259140  13.268   9.105   4.923  1.4003  0.0124 -0.5778
16404SOL     OW59141   1.713   3.192   5.827  0.4773 -0.3211 -0.3213
16404SOL    HW159142   1.655   3.118   5.812  1.0231 -0.7131 -0.5352
16404SOL    HW259143   1.677   3.262   5.772 -0.9773  0.0968  1.1025
16405SOL     OW59144  10.175  10.182  12.079 -0.0672  0.2140  0.1106
16405SOL    HW159145  10.178  10.242  12.154 -0.9883 -0.5071  0.7387
16405SOL    HW259146  10.128  10.106  12.111 -1.3561  0.2845 -1.4899
16406SOL     OW59147  10.200   3.174  11.491 -0.3589  0.4965 -0.0526
16406SOL    HW159148  10.259   3.222  11.550 -1.8460  2.0653  0.2304
16406SOL    HW259149  10.161   3.106  11.546  0.5843 -0.0566 -0.0480
16407SOL     OW59150  10.704   2.835   0.270  0.5775  0.6503  0.3311
16407SOL    HW159151  10.787   2.882   0.282 -0.0604  1.8329  0.2452
16407SOL    HW259152  10.728   2.758   0.218  1.7649  0.5021  1.0571
16408SOL     OW59153   7.083   0.766   0.753  0.2573 -0.1585 -0.1485
16408SOL    HW159154   7.129   0.686   0.780 -0.2365 -0.3226  0.2299
16408SOL    HW259155   7.054   0.747   0.664 -0.1799 -0.5523  0.0712
16409SOL     OW59156   2.291   0.277   4.428  0.1191  0.4882  0.4370
16409SOL    HW159157   2.267   0.337   4.499 -0.3283  0.8375 -0.0041
16409SOL    HW259158   2.214   0.222   4.415  0.6078 -0.3539  0.9945
16410SOL     OW59159   8.735   4.242  11.126 -0.4626  0.6794 -0.1949
16410SOL    HW159160   8.794   4.234  11.201 -1.0165  0.3494  0.2184
16410SOL    HW259161   8.700   4.153  11.114 -0.3788  0.7314 -0.8456
16411SOL     OW59162   4.834   3.026   5.016 -0.1027 -0.2301  0.0883
16411SOL    HW159163   4.826   3.099   4.954  0.5379  1.1371  1.5391
16411SOL    HW259164   4.900   2.969   4.976  1.1590  1.2042  0.0014
16412SOL     OW59165   1.793  10.336   3.810  0.1626 -0.4105 -0.4574
16412SOL    HW159166   1.863  10.350   3.747  1.4239 -0.0288  0.9904
16412SOL    HW259167   1.782  10.421   3.853  0.5189 -1.0889  1.0136
16413SOL     OW59168   0.072   0.015   5.232  0.6363  0.1893 -0.2230
16413SOL    HW159169   0.089   0.082   5.299  3.4790  0.8077 -1.4515
16413SOL    HW259170   0.128  -0.058   5.257  0.7790 -0.0605 -1.2488
16414SOL     OW59171  10.340  10.715   8.121  0.1530  0.3030 -0.2740
16414SOL    HW159172  10.245  10.703   8.119  0.0974  0.8200 -1.8227
16414SOL    HW259173  10.373  10.659   8.051  0.9989  0.1725  0.2109
16415SOL     OW59174   1.724   7.393   3.028  0.6061 -0.2330  0.3141
16415SOL    HW159175   1.808   7.421   3.063  1.2161  0.0043 -1.2478
16415SOL    HW259176   1.690   7.470   2.984  0.1409 -0.6679 -0.0986
16416SOL     OW59177   4.751   2.029  11.009 -0.4960 -0.1582 -0.0270
16416SOL    HW159178   4.705   2.111  11.026  1.1546  0.8261 -0.1246
16416SOL    HW259179   4.827   2.054  10.958  0.6508 -1.6132  0.8865
16417SOL     OW59180   9.214  10.405  12.844  0.0204 -0.7051 -0.5642
16417SOL    HW159181   9.131  10.357  12.842  0.6753 -1.9002  0.0551
16417SOL    HW259182   9.257  10.384  12.761  0.8050 -2.1262  0.1812
16418SOL     OW59183   4.076   4.720   6.196 -0.1611 -0.2957  0.3484
16418SOL    HW159184   4.125   4.777   6.255  0.7495 -1.3185  0.6076
16418SOL    HW259185   3.985   4.751   6.202  0.2349  0.8192  0.8198
16419SOL     OW59186   6.971  12.793   2.889  0.1297 -0.3933 -1.0721
16419SOL    HW159187   6.906  12.825   2.826 -1.5208  1.1258  1.2347
16419SOL    HW259188   6.936  12.819   2.974  2.1145 -2.5931  0.5308
16420SOL     OW59189   7.194   1.017   2.432  0.2769 -0.1093  0.3893
16420SOL    HW159190   7.199   1.052   2.521 -1.1986 -1.1860  0.9263
16420SOL    HW259191   7.277   0.972   2.419  0.7106  0.4881  1.0141
16421SOL     OW59192  10.500   8.896   6.944  0.2084  0.1904  0.1441
16421SOL    HW159193  10.500   8.983   6.984 -0.4586 -0.2634  1.1772
16421SOL    HW259194  10.512   8.836   7.018  0.1097 -0.6221 -0.4911
16422SOL     OW59195   4.163   1.340  11.739 -0.1995  0.0666  0.2857
16422SOL    HW159196   4.174   1.347  11.644 -1.2974 -0.6953  0.0863
16422SOL    HW259197   4.117   1.257  11.752 -0.5418  0.4144  1.4420
16423SOL     OW59198   6.091  10.967   9.509 -0.6112 -0.0306 -0.0319
16423SOL    HW159199   6.182  10.980   9.538 -0.1640  1.5348 -1.8945
16423SOL    HW259200   6.044  11.041   9.546 -1.2170 -0.9029  1.0254
16424SOL     OW59201   0.799   1.637  10.617  0.6232 -0.3153 -0.1508
16424SOL    HW159202   0.728   1.637  10.552 -1.6342  1.2366  2.0897
16424SOL    HW259203   0.838   1.724  10.610 -0.3697  0.2827  1.1920
16425SOL     OW59204   2.373   3.413   8.715 -0.5332  0.3717 -0.3646
16425SOL    HW159205   2.364   3.435   8.808  1.9047  0.4880 -0.0904
16425SOL    HW259206   2.354   3.494   8.668 -0.5155  0.6525  0.1119
16426SOL     OW59207   1.015  10.380  12.926 -0.0975  0.0499 -0.4004
16426SOL    HW159208   0.962  10.300  12.920  0.9554 -0.6641 -0.4441
16426SOL    HW259209   0.983  10.423  13.005 -0.0245 -0.9171  0.1726
16427SOL     OW59210  10.628   4.404   2.717  0.5213 -0.2751 -0.1065
16427SOL    HW159211  10.534   4.386   2.706  0.4103 -0.2722  0.7812
16427SOL    HW259212  10.670   4.319   2.705  0.2403 -0.6275  1.3154
16428SOL     OW59213   5.347   9.111   0.930  0.1242 -0.2305 -0.4924
16428SOL    HW159214   5.338   9.053   1.006  1.5778 -0.4477 -0.4666
16428SOL    HW259215   5.440   9.136   0.929 -0.2576  1.3206 -1.0761
16429SOL     OW59216   4.397   3.838   4.349  0.3864 -0.3145 -0.0240
16429SOL    HW159217   4.360   3.785   4.278  0.0375 -1.6411  1.1041
16429SOL    HW259218   4.471   3.786   4.381 -0.8391 -0.9042  2.0646
16430SOL     OW59219   7.615   8.989   2.933  0.3324  0.3912  0.0665
16430SOL    HW159220   7.640   8.898   2.947 -0.5167  0.1401  0.0357
16430SOL    HW259221   7.558   8.986   2.856  0.6902  1.0194 -0.2296
16431SOL     OW59222   6.525   8.041   0.202 -0.2551  0.5153 -0.4014
16431SOL    HW159223   6.459   8.035   0.271  0.7417  0.6141  0.5743
16431SOL    HW259224   6.606   8.064   0.247  0.9478 -1.6790 -1.2822
16432SOL     OW59225  10.337  10.112   2.561  0.2137 -0.2509  0.1852
16432SOL    HW159226  10.304  10.040   2.508 -0.1638 -1.3746  1.8874
16432SOL    HW259227  10.345  10.076   2.649 -1.6334  2.2365  1.5032
16433SOL     OW59228   2.810   6.941   1.275 -0.1320  0.1243  0.1034
16433SOL    HW159229   2.746   6.873   1.251 -0.4059  0.3707  0.1346
16433SOL    HW259230   2.816   6.935   1.370  1.9432 -1.7543 -0.0620
16434SOL     OW59231  12.392   5.813   7.801 -0.7514 -0.4124  0.4360
16434SOL    HW159232  12.435   5.824   7.716  0.9924  0.2288  1.3333
16434SOL    HW259233  12.343   5.732   7.793 -0.1303 -0.6832 -0.9926
16435SOL     OW59234   6.372   6.422   8.260 -0.5070  0.0410  0.0884
16435SOL    HW159235   6.355   6.514   8.281 -1.2178 -0.0684 -0.0147
16435SOL    HW259236   6.467   6.418   8.247 -0.2869  0.5004  1.3842
16436SOL     OW59237   0.289   4.751   0.471  0.3018 -0.1133  0.2457
16436SOL    HW159238   0.336   4.760   0.555  1.0560 -0.8069 -0.0831
16436SOL    HW259239   0.269   4.657   0.466  1.1533 -0.2580 -0.7950
16437SOL     OW59240   6.345   3.206   1.115  0.4558  0.9805 -0.2245
16437SOL    HW159241   6.269   3.246   1.075  0.0961  0.1096 -0.4262
16437SOL    HW259242   6.328   3.112   1.112  1.4402  0.7822 -0.0862
16438SOL     OW59243  11.785   4.259   8.998 -0.6492 -0.3967  0.4686
16438SOL    HW159244  11.720   4.224   9.060 -1.6344  3.4610  1.9266
16438SOL    HW259245  11.859   4.284   9.054  0.1584 -0.4987 -0.5381
16439SOL     OW59246   7.522  11.509   6.049 -0.1727 -0.8868 -0.0857
16439SOL    HW159247   7.504  11.600   6.073  2.3771 -0.4243  0.3191
16439SOL    HW259248   7.536  11.512   5.954 -1.2831 -1.1063 -0.2711
16440SOL     OW59249   0.143   1.501   8.629  0.3699  0.5091  0.1142
16440SOL    HW159250   0.172   1.583   8.590  1.7062  0.5022  1.0351
16440SOL    HW259251   0.069   1.526   8.685  0.8337  1.1121  0.4704
16441SOL     OW59252   9.408  10.887  12.108 -0.8815  1.0692 -0.2016
16441SOL    HW159253   9.323  10.931  12.101 -1.1874  0.6144  0.5566
16441SOL    HW259254   9.386  10.799  12.137 -0.2086  0.6744 -0.8605
16442SOL     OW59255   0.163   1.755   7.562 -0.4698  0.2917  0.5937
16442SOL    HW159256   0.101   1.797   7.502 -0.2547 -0.8199 -0.4452
16442SOL    HW259257   0.228   1.823   7.580 -1.6616  1.3061  1.2717
16443SOL     OW59258  11.169   4.741   6.016  0.0175  0.0234  0.6334
16443SOL    HW159259  11.145   4.761   5.926 -0.3939  0.4515  0.8276
16443SOL    HW259260  11.145   4.820   6.065  1.8549  0.4986  0.8470
16444SOL     OW59261   5.966   7.371  13.264 -0.1530  0.3634 -0.2091
16444SOL    HW159262   5.879   7.399  13.294 -0.8249 -0.7021 -1.1126
16444SOL    HW259263   6.013   7.351  13.345 -1.1471 -0.2088  0.2527
16445SOL     OW59264  11.780   9.429   9.683  1.3004 -0.3221 -0.0761
16445SOL    HW159265  11.740   9.355   9.728 -0.1588 -0.0908 -0.9449
16445SOL    HW259266  11.789   9.400   9.592  0.1765  0.7585 -0.5475
16446SOL     OW59267   6.090  11.678   1.584  0.4726 -0.2502  0.3607
16446SOL    HW159268   6.032  11.687   1.509  0.9942  0.0427 -0.0097
16446SOL    HW259269   6.037  11.709   1.658 -0.6559 -2.1764  0.4239
16447SOL     OW59270  12.868  12.578   2.168 -0.6033 -0.0832  0.0050
16447SOL    HW159271  12.913  12.588   2.252 -0.3315 -0.2459 -0.1180
16447SOL    HW259272  12.775  12.589   2.189 -0.6001 -0.8214  0.4499
16448SOL     OW59273   0.598   6.346  10.244  0.0199  0.5526 -0.2310
16448SOL    HW159274   0.625   6.275  10.186 -1.4382 -0.9091  0.7918
16448SOL    HW259275   0.547   6.405  10.188  1.1753  0.7783 -1.0686
16449SOL     OW59276  13.034   2.758   7.830 -0.0586 -0.6382 -0.2225
16449SOL    HW159277  13.047   2.702   7.906  1.2209  2.1458  1.7787
16449SOL    HW259278  12.950   2.801   7.845 -0.7809 -1.5297 -1.4703
16450SOL     OW59279   1.902   6.258  10.690 -0.0901  0.1938 -0.0282
16450SOL    HW159280   1.896   6.198  10.764 -0.4329  0.3230  0.0517
16450SOL    HW259281   1.880   6.204  10.614 -0.2878  0.1919  0.0302
16451SOL     OW59282   1.816  10.573   0.333 -0.2854  0.4117 -0.0137
16451SOL    HW159283   1.820  10.477   0.331 -1.0757  0.3726 -0.0445
16451SOL    HW259284   1.796  10.598   0.243  0.9452  0.6796 -0.2379
16452SOL     OW59285   3.980   3.831   9.638  0.1168  0.3791  0.0417
16452SOL    HW159286   3.884   3.825   9.644  0.2201 -0.6434  0.9816
16452SOL    HW259287   4.006   3.876   9.718  0.4603  0.1218  0.0757
16453SOL     OW59288   9.142   2.765   4.150 -0.1958  0.1444 -0.3887
16453SOL    HW159289   9.188   2.827   4.094  1.0004  0.2104  0.6226
16453SOL    HW259290   9.200   2.688   4.154  1.0598  1.0693  2.6949
16454SOL     OW59291   5.004   9.635   7.123  0.8283 -0.3126 -0.0033
16454SOL    HW159292   5.075   9.586   7.081  0.3796 -0.2430 -0.8504
16454SOL    HW259293   5.033   9.727   7.119 -0.0093 -0.0836 -1.8225
16455SOL     OW59294   9.322  12.095   3.519 -0.1448 -0.5810 -1.1729
16455SOL    HW159295   9.285  12.123   3.435  1.0926  1.4804 -1.0829
16455SOL    HW259296   9.393  12.157   3.536 -0.3515 -0.9583  1.4042
16456SOL     OW59297   0.866   5.733   5.815 -0.2322  0.4399 -0.0819
16456SOL    HW159298   0.809   5.793   5.863 -2.1008 -2.1992  1.3097
16456SOL    HW259299   0.807   5.681   5.761  1.3190  0.0396 -1.4740
16457SOL     OW59300   1.785  10.245   8.732 -0.0526 -0.0555 -0.2869
16457SOL    HW159301   1.696  10.218   8.756  0.0200 -1.8355 -1.8124
16457SOL    HW259302   1.826  10.269   8.816 -1.5543 -0.4400  0.6010
16458SOL     OW59303   9.700   8.777   1.719 -0.2857 -0.0876 -0.1226
16458SOL    HW159304   9.747   8.806   1.642 -1.9960  1.7704 -0.5472
16458SOL    HW259305   9.726   8.838   1.788 -0.1931 -0.5942  0.3056
16459SOL     OW59306   1.198   0.670   4.790  0.0718 -0.6619  0.7651
16459SOL    HW159307   1.255   0.724   4.845 -1.2374 -0.3945  1.9083
16459SOL    HW259308   1.127   0.643   4.848 -2.2375  0.9053 -1.1002
16460SOL     OW59309   3.141  12.169   5.571 -0.1773  0.1271 -0.8701
16460SOL    HW159310   3.183  12.175   5.485 -0.9899 -2.1926 -1.5118
16460SOL    HW259311   3.047  12.165   5.551 -0.4179  0.2574  0.1908
16461SOL     OW59312   5.190   7.015   3.322  0.2081  0.3273 -0.0002
16461SOL    HW159313   5.200   6.993   3.415  0.1351 -1.0418 -0.2975
16461SOL    HW259314   5.095   7.013   3.307  0.2351  0.3061 -0.1665
16462SOL     OW59315   6.017   2.221   1.518  0.1027  0.2206  0.0727
16462SOL    HW159316   5.946   2.249   1.460  0.5728 -0.4726 -0.8449
16462SOL    HW259317   6.018   2.288   1.587 -1.0770  0.5385 -0.1934
16463SOL     OW59318   6.699   6.056   6.782 -0.1964 -0.0186 -0.5487
16463SOL    HW159319   6.684   6.106   6.702 -0.0980  2.5298  0.9320
16463SOL    HW259320   6.782   6.012   6.767  0.5366  1.5535 -1.3441
16464SOL     OW59321   4.508   0.031   9.779 -0.6295  0.5881 -0.0978
16464SOL    HW159322   4.548   0.118   9.781 -0.3279  0.5172 -1.9402
16464SOL    HW259323   4.450   0.033   9.703  0.1962 -1.1684 -0.8186
16465SOL     OW59324  10.727   8.864   6.060 -0.5848 -0.6180  0.3167
16465SOL    HW159325  10.644   8.913   6.064 -0.0873  0.3866 -0.8936
16465SOL    HW259326  10.794   8.932   6.049  0.1061 -1.5561 -1.8214
16466SOL     OW59327   4.877   4.091  12.157  0.9145  0.0676  0.2321
16466SOL    HW159328   4.818   4.050  12.220  1.6302 -1.6208 -0.1328
16466SOL    HW259329   4.819   4.138  12.097 -0.0510 -1.0543  0.2355
16467SOL     OW59330  11.808   1.513   2.348  0.1008  0.3230  0.5027
16467SOL    HW159331  11.765   1.491   2.266 -1.0194  0.2275  1.0865
16467SOL    HW259332  11.901   1.519   2.327 -0.0197 -1.0013 -0.4887
16468SOL     OW59333   5.644  10.287   2.247  0.2276 -0.0423  0.0753
16468SOL    HW159334   5.721  10.287   2.191  0.2189 -0.7640  0.0539
16468SOL    HW259335   5.608  10.199   2.239 -1.0467  0.5083 -0.5129
16469SOL     OW59336   6.005   1.083  11.946  0.3157 -0.1192  0.4008
16469SOL    HW159337   6.021   1.144  12.018 -1.9285 -0.9305  1.6477
16469SOL    HW259338   6.073   1.104  11.882  0.5630  2.6332  1.4511
16470SOL     OW59339   7.015   1.866   7.163  0.0881  0.2326 -0.3052
16470SOL    HW159340   7.095   1.864   7.216  0.7293 -0.2308 -1.2727
16470SOL    HW259341   6.954   1.811   7.211  0.7671 -0.4415 -0.1916
16471SOL     OW59342   6.620   9.336   4.976  0.4547 -0.3076  0.4800
16471SOL    HW159343   6.656   9.342   5.064  0.4040 -0.1717  0.4912
16471SOL    HW259344   6.542   9.282   4.985  0.7927 -0.8086  0.4146
16472SOL     OW59345   9.138   4.756  11.459  0.4128 -0.0720  0.2246
16472SOL    HW159346   9.106   4.734  11.547 -0.5390 -1.2085 -0.3726
16472SOL    HW259347   9.065   4.733  11.401 -0.6037  4.3628 -0.6012
16473SOL     OW59348   7.992  11.389   1.749 -0.0336 -0.1860 -0.3226
16473SOL    HW159349   8.057  11.318   1.755 -0.6337 -0.6571  1.2681
16473SOL    HW259350   7.912  11.350   1.785 -0.4875  1.1699  0.1852
16474SOL     OW59351  10.255  12.100   3.717 -0.7134 -0.0243 -0.5038
16474SOL    HW159352  10.289  12.054   3.641 -2.2972 -2.0449 -0.0793
16474SOL    HW259353  10.204  12.034   3.764  0.9999  0.8470  2.8885
16475SOL     OW59354  10.907  10.740   8.612 -0.4463 -0.0861  0.6789
16475SOL    HW159355  10.888  10.817   8.558 -0.2772  0.7070  1.7039
16475SOL    HW259356  10.974  10.692   8.563 -0.5533  0.4223  0.0191
16476SOL     OW59357  12.019  10.835   2.798  0.3348 -0.1442  0.6999
16476SOL    HW159358  12.009  10.869   2.709  0.0632 -2.2025 -0.1039
16476SOL    HW259359  12.014  10.913   2.854  0.5612  1.2052 -1.0671
16477SOL     OW59360   8.599  10.906   5.560 -0.3737 -0.5656  0.1939
16477SOL    HW159361   8.521  10.890   5.614 -0.0144 -0.0959  0.8598
16477SOL    HW259362   8.648  10.972   5.608  0.0757 -0.3185 -0.5952
16478SOL     OW59363   8.322   8.934   8.291  0.6139  0.1388  0.3681
16478SOL    HW159364   8.259   8.969   8.228  2.4870  0.5750 -1.3865
16478SOL    HW259365   8.402   8.984   8.275  2.4012 -2.5593  0.1426
16479SOL     OW59366   6.500   3.610  11.663 -0.4909 -0.0123 -0.1770
16479SOL    HW159367   6.436   3.551  11.623 -0.0015 -0.4178 -0.3685
16479SOL    HW259368   6.583   3.590  11.619  0.3502 -1.3488  1.8452
16480SOL     OW59369   1.190   8.305   6.823  0.7691  0.0528 -0.2903
16480SOL    HW159370   1.234   8.390   6.824  0.8141  0.0425 -1.1148
16480SOL    HW259371   1.098   8.325   6.836  0.8819  0.1584  0.3751
16481SOL     OW59372   1.367   1.228  11.221 -0.0264  0.1097 -0.0999
16481SOL    HW159373   1.401   1.287  11.288  0.0057 -0.1606  0.1228
16481SOL    HW259374   1.445   1.187  11.183  0.0989  1.6266 -1.5889
16482SOL     OW59375   9.963  12.521  10.694 -0.1210 -0.1871  0.6164
16482SOL    HW159376   9.886  12.552  10.742  0.4573 -1.3580  2.3787
16482SOL    HW259377  10.032  12.583  10.716 -0.8650  1.9899 -2.4420
16483SOL     OW59378   3.166   0.864   5.409  0.5864  0.1338 -0.1609
16483SOL    HW159379   3.228   0.842   5.340  1.3052  0.7900  0.2529
16483SOL    HW259380   3.219   0.867   5.489  0.1735  1.4353  0.0847
16484SOL     OW59381   7.941   2.570  13.049  0.2708 -0.5925  0.1167
16484SOL    HW159382   7.884   2.524  13.110  0.9572 -2.7397 -0.7422
16484SOL    HW259383   7.889   2.577  12.968  1.1610 -2.6713 -0.7104
16485SOL     OW59384   8.644  11.061   4.948 -0.0905  0.2342 -0.1636
16485SOL    HW159385   8.683  11.076   4.862  0.0524  0.5115 -0.0500
16485SOL    HW259386   8.717  11.031   5.002  0.1158  1.4004  0.2290
16486SOL     OW59387   4.479   5.030  12.919 -0.2926 -0.5935 -0.1170
16486SOL    HW159388   4.568   5.038  12.951 -0.7924 -0.1669  1.2207
16486SOL    HW259389   4.483   4.958  12.855  1.2614  0.3251 -1.1143
16487SOL     OW59390   1.374  12.681   2.832 -0.4076 -0.2157  0.0159
16487SOL    HW159391   1.314  12.609   2.853  0.1955 -0.3295  1.4357
16487SOL    HW259392   1.379  12.681   2.736  0.6219 -2.9318 -0.0094
16488SOL     OW59393   5.723   9.582   5.498 -0.4265 -0.0811 -0.5060
16488SOL    HW159394   5.769   9.513   5.546  0.3808  1.5957  1.2682
16488SOL    HW259395   5.648   9.537   5.458 -0.7402 -1.7594  1.7228
16489SOL     OW59396   7.477   2.340   9.828  0.7693 -0.0642 -0.1493
16489SOL    HW159397   7.406   2.396   9.860  0.1365 -0.5201 -0.7317
16489SOL    HW259398   7.453   2.252   9.856  2.3377  0.0427  1.7696
16490SOL     OW59399   8.597   8.381   3.931  0.4002 -0.2088  0.4509
16490SOL    HW159400   8.628   8.429   4.008  2.0540 -0.7965  0.1973
16490SOL    HW259401   8.608   8.289   3.955  0.3986 -0.3991 -0.2804
16491SOL     OW59402   7.769  13.031   7.553 -0.0042  0.0065  0.2823
16491SOL    HW159403   7.760  12.986   7.469 -0.4533  1.6513 -0.6060
16491SOL    HW259404   7.727  13.116   7.539 -0.3156  0.2413  2.2626
16492SOL     OW59405   4.144   9.525   0.446 -0.1303  0.1729  0.5517
16492SOL    HW159406   4.201   9.495   0.374  0.7224  0.9119  0.9011
16492SOL    HW259407   4.055   9.506   0.415  0.2193  0.5276 -0.7307
16493SOL     OW59408  12.364   0.490   9.853  0.2891  0.3523  0.1486
16493SOL    HW159409  12.361   0.550   9.928 -0.7171 -0.6534  0.9569
16493SOL    HW259410  12.358   0.547   9.777  0.1999  1.3325  0.8629
16494SOL     OW59411   9.902  11.172   6.189 -0.2578 -0.1893 -0.3607
16494SOL    HW159412   9.860  11.195   6.105 -0.0229  1.3168 -0.0973
16494SOL    HW259413   9.836  11.194   6.255 -0.5611 -1.6662 -0.1387
16495SOL     OW59414   9.630  11.615  11.375 -0.4403  0.0636 -0.1853
16495SOL    HW159415   9.645  11.522  11.393  1.8414  0.5575  0.9518
16495SOL    HW259416   9.694  11.637  11.307 -0.2395  0.9927  0.2877
16496SOL     OW59417   4.115   1.500   9.572 -0.1784  0.7967  0.0675
16496SOL    HW159418   4.128   1.420   9.624  1.0268  0.8889 -0.0729
16496SOL    HW259419   4.150   1.478   9.485 -0.2303  1.3402 -0.0916
16497SOL     OW59420  12.766   6.330   7.790  0.4276  0.3095  0.3826
16497SOL    HW159421  12.763   6.353   7.697  0.1746 -1.3793 -0.0537
16497SOL    HW259422  12.810   6.245   7.792 -0.1969  0.0007  1.7456
16498SOL     OW59423  11.564   0.629   9.043  0.1974  0.2449  0.0584
16498SOL    HW159424  11.483   0.649   8.996  0.6130 -0.6522 -1.0712
16498SOL    HW259425  11.620   0.705   9.028 -0.0259  0.3830 -0.0879
16499SOL     OW59426   3.460   6.434   7.969 -0.0581  0.4879  0.2292
16499SOL    HW159427   3.541   6.479   7.946 -0.6878  1.2638 -0.6066
16499SOL    HW259428   3.470   6.346   7.934  1.5734 -0.3841  2.7085
16500SOL     OW59429  10.801   1.344   6.065 -0.0177 -0.3018  0.2623
16500SOL    HW159430  10.800   1.248   6.068 -0.6997 -0.3647 -1.3372
16500SOL    HW259431  10.719   1.371   6.106 -0.7152 -0.4902 -0.9667
16501SOL     OW59432   2.154   9.093   1.475 -0.3161 -0.3294 -0.4494
16501SOL    HW159433   2.124   9.175   1.513 -1.3834 -0.6578 -0.5293
16501SOL    HW259434   2.160   9.033   1.550 -1.5606 -0.7318 -0.6424
16502SOL     OW59435   5.300   7.645   9.433 -0.1453  0.2305  0.2722
16502SOL    HW159436   5.205   7.641   9.425 -0.4038 -4.3255  2.4235
16502SOL    HW259437   5.315   7.695   9.514 -0.8193 -0.2757  0.7159
16503SOL     OW59438   7.465   5.369   0.295 -0.0969  0.4523 -0.4584
16503SOL    HW159439   7.395   5.433   0.283 -0.3582 -0.2012 -2.9742
16503SOL    HW259440   7.535   5.398   0.237  0.5292 -0.5244 -0.2152
16504SOL     OW59441  11.085   2.282   0.789 -0.4384  0.0894 -0.0263
16504SOL    HW159442  11.104   2.340   0.863 -3.6578  0.9551  0.2604
16504SOL    HW259443  11.109   2.195   0.821 -1.7294  0.4380  2.1148
16505SOL     OW59444  10.842   9.736   8.816  0.4506  0.0135 -0.3498
16505SOL    HW159445  10.814   9.739   8.908 -0.1944  0.1338 -0.5473
16505SOL    HW259446  10.906   9.664   8.813 -0.9747 -1.2979 -0.2001
16506SOL     OW59447   0.099  11.484   3.470 -1.1179 -0.4635 -0.5590
16506SOL    HW159448   0.021  11.533   3.444 -1.3489 -0.4375  0.1547
16506SOL    HW259449   0.169  11.550   3.472 -1.3271 -0.2494 -0.0715
16507SOL     OW59450   0.475   0.743   7.593  0.9534  0.1156 -0.4443
16507SOL    HW159451   0.453   0.801   7.666 -0.8382  0.4477 -1.1796
16507SOL    HW259452   0.477   0.655   7.631  0.4987  0.3322  0.0849
16508SOL     OW59453  12.463   3.647  13.052  0.3050  0.4557  0.0907
16508SOL    HW159454  12.414   3.727  13.035 -0.3472  0.0911  0.2131
16508SOL    HW259455  12.545   3.676  13.092 -0.9296  0.9730  2.4849
16509SOL     OW59456   8.488  10.873  10.367 -0.3823 -0.9019 -0.6434
16509SOL    HW159457   8.409  10.918  10.398 -0.0034 -0.1066 -0.8268
16509SOL    HW259458   8.534  10.938  10.314 -0.5478 -1.9308 -2.1286
16510SOL     OW59459  10.874   6.704  10.199 -0.3237 -0.4672 -0.2848
16510SOL    HW159460  10.894   6.792  10.167 -0.4193 -0.0049  0.8813
16510SOL    HW259461  10.792   6.681  10.155  0.8363 -0.9184 -2.3195
16511SOL     OW59462   7.499  12.986   8.554  0.1694  0.2934  0.2389
16511SOL    HW159463   7.527  13.036   8.477 -1.7883  0.5388 -0.3622
16511SOL    HW259464   7.488  12.897   8.522  0.9616  0.0382  0.6508
16512SOL     OW59465   5.958   8.271   7.746  0.5245 -0.6072 -0.6991
16512SOL    HW159466   5.862   8.268   7.749  0.4561  1.0215  1.0061
16512SOL    HW259467   5.979   8.362   7.724  1.6801 -0.9500 -1.0938
16513SOL     OW59468   2.361   8.828   5.172  0.0630  0.0682  1.3656
16513SOL    HW159469   2.434   8.768   5.159  0.4343  0.6628  0.6372
16513SOL    HW259470   2.293   8.774   5.212  1.0495 -0.3799  2.4980
16514SOL     OW59471  11.759   8.594   7.297 -0.7150  0.4946  0.8641
16514SOL    HW159472  11.732   8.663   7.357  2.6750  0.3293  2.7859
16514SOL    HW259473  11.766   8.516   7.351 -0.3849 -0.3703 -0.3754
16515SOL     OW59474   8.939  11.021   9.854 -0.6665 -0.0404 -0.2267
16515SOL    HW159475   8.926  10.928   9.874  0.1885  0.1538  1.4725
16515SOL    HW259476   8.879  11.039   9.782 -0.4280 -2.0385 -0.9972
16516SOL     OW59477   1.217   5.261   5.319  0.0949  0.2664  0.7276
16516SOL    HW159478   1.273   5.184   5.314 -0.4338 -0.0419 -1.1320
16516SOL    HW259479   1.129   5.225   5.330 -0.2949  0.5012 -1.2605
16517SOL     OW59480   5.524   0.069   9.099  0.3501  0.0395 -0.0063
16517SOL    HW159481   5.572   0.005   9.047  0.2327  0.2725 -0.4076
16517SOL    HW259482   5.481   0.017   9.167  2.2988 -0.0303  1.2524
16518SOL     OW59483  12.747   4.616   7.444 -0.4090 -0.3472 -0.6633
16518SOL    HW159484  12.715   4.706   7.448  2.9090  0.9542 -0.6456
16518SOL    HW259485  12.779   4.605   7.355 -1.1415 -1.6900 -0.7891
16519SOL     OW59486   0.738  12.229   9.155  0.5208  0.6597  0.1754
16519SOL    HW159487   0.745  12.300   9.219  0.8486  0.6674  0.1306
16519SOL    HW259488   0.825  12.223   9.116  0.6576 -0.1377  0.5826
16520SOL     OW59489   7.136  13.065   0.272  0.5047 -0.1935  0.0687
16520SOL    HW159490   7.070  12.997   0.262  0.2162  0.3816 -2.9185
16520SOL    HW259491   7.089  13.146   0.252  1.7139  0.4037 -0.4218
16521SOL     OW59492   4.752   8.117   1.241 -0.0388 -0.4720 -0.2626
16521SOL    HW159493   4.675   8.149   1.288 -0.2351  0.1363 -0.9919
16521SOL    HW259494   4.777   8.037   1.288 -1.0319 -0.6008  0.0634
16522SOL     OW59495   4.538  11.618   7.459  0.1009  0.3985 -0.5177
16522SOL    HW159496   4.585  11.695   7.425  1.1460 -0.4359 -1.0220
16522SOL    HW259497   4.465  11.655   7.509  0.5313  1.7169 -0.8152
16523SOL     OW59498   9.771   7.587   9.849 -0.0214  0.1368  0.1173
16523SOL    HW159499   9.821   7.629   9.779  0.1340  1.5087  0.9996
16523SOL    HW259500   9.722   7.659   9.890  0.5218 -0.4521  1.9228
16524SOL     OW59501  11.444   4.608   6.084 -0.2132 -0.3963  0.2569
16524SOL    HW159502  11.391   4.665   6.028 -1.0639 -1.2795  0.1317
16524SOL    HW259503  11.400   4.612   6.170 -0.9006 -1.6351 -0.0100
16525SOL     OW59504   0.551   7.520   2.307 -1.0132 -0.5110  0.3614
16525SOL    HW159505   0.620   7.521   2.240 -3.5408 -0.5919 -2.4801
16525SOL    HW259506   0.505   7.437   2.293 -4.2382  1.2894 -0.8528
16526SOL     OW59507   6.368  10.121   0.741 -0.2960 -0.3196 -0.1301
16526SOL    HW159508   6.435  10.178   0.778 -0.1780  0.0295 -0.8537
16526SOL    HW259509   6.387  10.034   0.776  0.0423 -0.0722  0.3015
16527SOL     OW59510   1.507   2.270   4.847  0.3626  0.2338  0.1480
16527SOL    HW159511   1.567   2.262   4.921  1.0364 -1.4012 -0.5156
16527SOL    HW259512   1.440   2.203   4.863  0.3049  0.1210 -0.5267
16528SOL     OW59513   1.621   3.660   0.848  0.4069  0.0959 -0.0956
16528SOL    HW159514   1.669   3.742   0.835 -0.2358  0.5967  0.5801
16528SOL    HW259515   1.598   3.631   0.760 -1.0433  1.6723 -0.2830
16529SOL     OW59516   5.324  10.367   6.338 -0.7780 -0.5793 -0.0768
16529SOL    HW159517   5.314  10.452   6.381 -2.1593 -1.6773  1.9861
16529SOL    HW259518   5.250  10.361   6.278  0.2654  0.3080 -1.5152
16530SOL     OW59519   9.045  12.541  12.633 -0.2166  0.2756 -0.1106
16530SOL    HW159520   8.984  12.600  12.588  0.3466 -0.5831 -2.1551
16530SOL    HW259521   9.123  12.593  12.649 -0.4307  0.6060 -0.1466
16531SOL     OW59522   2.280   6.845   1.940 -0.5141  0.3228 -0.4980
16531SOL    HW159523   2.267   6.904   2.014 -0.7715  1.1462 -1.1913
16531SOL    HW259524   2.229   6.767   1.962 -0.1247  0.3201  0.4504
16532SOL     OW59525   1.492  12.691  12.962 -0.6314 -0.7145 -0.1385
16532SOL    HW159526   1.570  12.741  12.939 -0.7458 -0.7606 -0.6506
16532SOL    HW259527   1.476  12.712  13.054  1.3174 -2.5120  0.6676
16533SOL     OW59528  10.288  11.421   4.212 -0.6046 -0.7198  0.2228
16533SOL    HW159529  10.353  11.357   4.184 -0.7970 -0.7240 -0.2085
16533SOL    HW259530  10.252  11.384   4.293 -1.5211 -1.7219 -0.6096
16534SOL     OW59531  11.874   3.696   5.786 -0.4056  0.3621 -0.1990
16534SOL    HW159532  11.867   3.758   5.858 -0.7010 -0.9133  0.9048
16534SOL    HW259533  11.783   3.679   5.760 -0.4251 -0.6064  0.4240
16535SOL     OW59534   2.590   0.237  13.234  0.3049 -0.5325 -0.5591
16535SOL    HW159535   2.658   0.293  13.270  0.7219 -1.2937 -0.1474
16535SOL    HW259536   2.526   0.298  13.197  0.3603  0.2486  0.5719
16536SOL     OW59537   4.457   0.936  12.138  0.5662  0.3876  0.2733
16536SOL    HW159538   4.469   0.967  12.228  3.8686  0.0145  0.0837
16536SOL    HW259539   4.495   1.005  12.084  1.4310 -0.7472 -0.6014
16537SOL     OW59540   2.298   0.069   4.056  0.1344  0.0180 -0.2546
16537SOL    HW159541   2.351  -0.004   4.023 -0.5821 -1.2103  1.1977
16537SOL    HW259542   2.323   0.143   4.001 -0.3381 -1.6732 -2.9662
16538SOL     OW59543   3.021   3.830   4.912  0.4158  0.9125  0.1021
16538SOL    HW159544   3.052   3.788   4.832  0.3937  0.8020  0.1509
16538SOL    HW259545   3.099   3.841   4.966  0.5300  1.5483 -0.1855
16539SOL     OW59546   1.244   6.552   3.022  0.3294  0.3500  0.2058
16539SOL    HW159547   1.282   6.514   2.943  0.0435 -0.1315  0.3000
16539SOL    HW259548   1.298   6.518   3.094  1.0342  1.3478  0.1707
16540SOL     OW59549   8.956   4.540   0.127  0.7659  0.6619 -0.2221
16540SOL    HW159550   8.931   4.515   0.038  0.3231  0.3205 -0.0045
16540SOL    HW259551   8.885   4.508   0.182  2.0422 -1.0100  0.5205
16541SOL     OW59552   1.608   6.704   7.763  0.4867  0.4704  0.2564
16541SOL    HW159553   1.634   6.641   7.695 -0.6775 -1.4630  1.5154
16541SOL    HW259554   1.526   6.670   7.797 -0.7822  3.2957  0.2890
16542SOL     OW59555   0.481  11.758  11.471  0.1802 -0.1664  0.0875
16542SOL    HW159556   0.498  11.852  11.478  1.5044 -0.4243  0.6144
16542SOL    HW259557   0.561  11.717  11.502 -0.7270 -1.4822  0.8030
16543SOL     OW59558  12.907   8.059   7.486 -0.0235 -0.0735  0.2121
16543SOL    HW159559  12.850   8.130   7.514 -1.4552 -1.2579  0.4034
16543SOL    HW259560  12.988   8.073   7.534 -1.2171 -0.0656  2.3240
16544SOL     OW59561   0.071   8.024   9.115 -0.2139 -0.3864 -0.8958
16544SOL    HW159562   0.050   8.065   9.031 -0.1055  0.3189 -0.5823
16544SOL    HW259563   0.165   8.006   9.110 -0.5543 -2.2367 -1.7289
16545SOL     OW59564   4.635   3.080   8.363  0.1743 -0.1658  0.7776
16545SOL    HW159565   4.629   3.108   8.454  1.5093  1.5524  0.3951
16545SOL    HW259566   4.720   3.113   8.333 -1.1400  1.2548 -1.7017
16546SOL     OW59567  12.931  12.007   2.589  0.9908 -0.1413  0.3227
16546SOL    HW159568  12.950  12.047   2.504  0.8269 -0.5935  0.0711
16546SOL    HW259569  13.013  11.962   2.613  1.2103  0.4183  0.6552
16547SOL     OW59570   0.644   4.001   9.315  0.5227  0.1927 -0.0752
16547SOL    HW159571   0.651   3.985   9.409 -1.3968  0.8625  0.2281
16547SOL    HW259572   0.550   4.011   9.300  0.8257  0.3931 -2.0257
16548SOL     OW59573   8.980   0.592  12.117  0.7770  0.3707 -0.1279
16548SOL    HW159574   8.920   0.666  12.125 -0.0815 -0.2821 -0.2787
16548SOL    HW259575   8.979   0.570  12.024 -1.6240 -1.8731  0.2770
16549SOL     OW59576  12.211   0.362   6.471 -0.3954  0.3495  0.0437
16549SOL    HW159577  12.136   0.303   6.476 -0.6308  0.4906 -1.5730
16549SOL    HW259578  12.179   0.445   6.505 -1.1194  0.5411 -1.0768
16550SOL     OW59579   9.776  12.339   2.371 -0.1146  0.1348 -0.0718
16550SOL    HW159580   9.847  12.368   2.428 -0.1869  2.2002 -0.9509
16550SOL    HW259581   9.697  12.372   2.412 -0.4717 -1.0153  0.2037
16551SOL     OW59582   0.225   4.165   0.650  0.4306 -0.2111  0.1221
16551SOL    HW159583   0.177   4.246   0.666 -2.1693 -1.5385 -0.5222
16551SOL    HW259584   0.223   4.118   0.734 -1.0796 -1.0718 -0.3651
16552SOL     OW59585  11.280   8.206   4.513 -0.2389  0.0246  0.0540
16552SOL    HW159586  11.287   8.284   4.568 -0.7352 -0.0576  0.2394
16552SOL    HW259587  11.234   8.142   4.568 -1.0909  0.0704 -0.5905
16553SOL     OW59588   8.998   8.414   8.388  0.3095  0.1775 -0.0973
16553SOL    HW159589   8.964   8.451   8.306 -1.8036 -0.4743  0.4200
16553SOL    HW259590   8.989   8.319   8.376  0.6556  0.0496  0.6357
16554SOL     OW59591   5.473   1.706   5.773  0.2753 -0.3678 -0.1805
16554SOL    HW159592   5.423   1.631   5.740 -0.1823  0.2695 -0.9582
16554SOL    HW259593   5.414   1.781   5.763  0.9446  0.1997  0.0217
16555SOL     OW59594   9.207   6.608   3.436 -0.2866  0.4832 -0.4606
16555SOL    HW159595   9.265   6.605   3.512  0.0110 -1.4352 -0.7111
16555SOL    HW259596   9.251   6.666   3.374  1.3872 -0.9027 -0.6380
16556SOL     OW59597  11.263   3.988  11.536  0.4004  0.3307 -0.5076
16556SOL    HW159598  11.358   3.986  11.531  0.5205  1.7393  0.4661
16556SOL    HW259599  11.243   3.958  11.625  0.0834  1.7051 -0.0776
16557SOL     OW59600  12.826   8.540   7.986  0.2179  0.0674 -0.1770
16557SOL    HW159601  12.839   8.529   7.891  0.4201 -0.4567 -0.0978
16557SOL    HW259602  12.790   8.456   8.014  1.1721 -0.1683  0.3784
16558SOL     OW59603  11.042  10.722   3.248  0.7095  0.4583 -0.3005
16558SOL    HW159604  11.008  10.636   3.223  0.7797  0.4367 -0.3225
16558SOL    HW259605  11.109  10.741   3.183  1.0984  0.2710  0.0412
16559SOL     OW59606   0.321  11.295   2.866  0.4484 -0.4630 -0.7263
16559SOL    HW159607   0.272  11.344   2.931  0.9330  0.5326 -1.0864
16559SOL    HW259608   0.340  11.211   2.908 -0.4961 -0.3991 -0.1465
16560SOL     OW59609   1.355   5.642  10.850 -0.0164 -0.2285 -0.0269
16560SOL    HW159610   1.432   5.628  10.794  0.6557  1.0405  0.5572
16560SOL    HW259611   1.311   5.717  10.812 -0.8430 -0.7839 -0.1949
16561SOL     OW59612  12.573   7.353   4.865 -0.2627  0.3947 -0.0555
16561SOL    HW159613  12.524   7.422   4.822 -1.9651 -0.0157  1.1438
16561SOL    HW259614  12.540   7.272   4.827 -0.0615  0.1292  0.3260
16562SOL     OW59615  12.229   0.290   9.469 -0.2765  0.8791  0.1476
16562SOL    HW159616  12.247   0.295   9.563  1.5111  0.6083 -0.1459
16562SOL    HW259617  12.137   0.314   9.461 -0.6379  0.3050  2.0303
16563SOL     OW59618   3.543   7.583   1.960 -0.1082  0.3269  0.0211
16563SOL    HW159619   3.629   7.563   1.922 -0.6506 -3.3384  0.3884
16563SOL    HW259620   3.563   7.644   2.032  2.1897 -0.3261  0.0228
16564SOL     OW59621   6.620   7.138   0.035 -0.4170  0.0614 -0.0836
16564SOL    HW159622   6.688   7.198   0.003 -0.6829 -0.0602 -0.9047
16564SOL    HW259623   6.613   7.072  -0.033 -1.0538 -0.1730  0.2044
16565SOL     OW59624   3.281  10.225   0.227 -0.3854  0.2212 -0.7182
16565SOL    HW159625   3.367  10.214   0.267 -0.7483 -0.2628 -0.0536
16565SOL    HW259626   3.254  10.314   0.251 -1.0644 -0.4209  1.0781
16566SOL     OW59627   9.524   6.376   5.392  0.0301 -0.5989 -0.1990
16566SOL    HW159628   9.437   6.352   5.425  0.0313 -0.3394  0.0003
16566SOL    HW259629   9.584   6.317   5.438 -0.0517 -0.8572 -0.4247
16567SOL     OW59630   7.507   8.978  13.123  0.2058 -0.1083  0.1531
16567SOL    HW159631   7.509   8.949  13.032  2.5762 -2.3036  0.7786
16567SOL    HW259632   7.415   8.989  13.143 -0.3777  1.7299 -2.8300
16568SOL     OW59633   5.791   8.488  10.680 -0.1034  0.1193 -0.4428
16568SOL    HW159634   5.764   8.559  10.622  1.8427  0.7236 -0.6782
16568SOL    HW259635   5.769   8.519  10.768  0.5734  0.9607 -0.5565
16569SOL     OW59636   3.910   5.467  12.301 -0.4708  0.6502  0.8443
16569SOL    HW159637   3.996   5.508  12.299  0.1567 -0.6513  0.7840
16569SOL    HW259638   3.917   5.399  12.368 -0.6240 -1.2174 -0.9441
16570SOL     OW59639   3.989   8.237  13.263  0.1824 -0.0627  0.0152
16570SOL    HW159640   4.041   8.222  13.184  0.7768 -1.4670  0.6507
16570SOL    HW259641   3.900   8.214  13.239  0.2484  0.1303 -0.4164
16571SOL     OW59642   9.226   6.871   6.352 -0.2235 -0.6954 -0.1930
16571SOL    HW159643   9.143   6.878   6.304 -0.8637 -3.4257  0.3404
16571SOL    HW259644   9.284   6.824   6.292  0.7828  0.6548 -0.3156
16572SOL     OW59645   2.065   3.881  12.815 -0.4423  0.4422 -0.1092
16572SOL    HW159646   2.127   3.816  12.783 -1.5996 -0.5794 -0.3496
16572SOL    HW259647   1.980   3.835  12.816 -0.9793  1.3914  1.4336
16573SOL     OW59648   3.207   3.834  12.173  0.4262  0.1125 -0.6479
16573SOL    HW159649   3.156   3.755  12.153 -1.5934  1.5110 -1.3884
16573SOL    HW259650   3.250   3.856  12.090  1.1936 -0.3323 -0.3738
16574SOL     OW59651   6.951   8.745   1.176  0.2572 -0.4102  0.0337
16574SOL    HW159652   7.016   8.743   1.106  1.0827  2.3037  0.6127
16574SOL    HW259653   6.876   8.790   1.137 -0.1274 -0.8484  0.2615
16575SOL     OW59654   6.045   2.232   8.272  0.0600 -0.1160 -0.0914
16575SOL    HW159655   5.996   2.179   8.334  0.1730 -1.1793 -0.8811
16575SOL    HW259656   6.125   2.257   8.319 -1.4520  2.2271  1.4615
16576SOL     OW59657   6.912   9.754  12.612 -0.0528 -0.4056  0.3892
16576SOL    HW159658   6.902   9.836  12.564  0.6545 -0.2712  0.4612
16576SOL    HW259659   7.004   9.752  12.638  0.2908 -1.8773 -0.7960
16577SOL     OW59660   2.904   5.868  12.919  0.3400 -0.2584 -0.7822
16577SOL    HW159661   2.854   5.904  12.845 -2.2515  1.9482  1.7992
16577SOL    HW259662   2.920   5.777  12.894 -2.6808 -0.3514 -3.0057
16578SOL     OW59663  12.517  10.806   2.059  0.2553 -0.3164  0.2368
16578SOL    HW159664  12.477  10.814   1.973 -1.8215  1.7382  1.2850
16578SOL    HW259665  12.473  10.731   2.099 -0.5401  0.1961  0.3477
16579SOL     OW59666   3.528   0.170   2.379 -0.0529 -0.1324  1.0080
16579SOL    HW159667   3.533   0.082   2.417  0.4671 -0.8145 -0.5738
16579SOL    HW259668   3.436   0.183   2.358 -0.0129 -0.6208  0.5262
16580SOL     OW59669  10.932  11.750   6.346 -0.0691 -0.2993 -0.1856
16580SOL    HW159670  10.847  11.763   6.304 -0.4046  0.1696  0.6320
16580SOL    HW259671  10.916  11.688   6.416  0.0635  0.4953  0.5658
16581SOL     OW59672   3.277   5.261   1.520 -0.2680  0.3298  0.3560
16581SOL    HW159673   3.363   5.301   1.536 -0.8664  2.1431 -0.7121
16581SOL    HW259674   3.294   5.194   1.453  0.3457  0.5141  0.3165
16582SOL     OW59675   3.741  11.875   4.061  0.2589 -0.1630  0.2937
16582SOL    HW159676   3.826  11.835   4.043 -0.6266 -1.6825 -0.6743
16582SOL    HW259677   3.753  11.920   4.145  1.4694 -2.0320  1.1780
16583SOL     OW59678   6.350  10.150   9.289  0.5416  0.1324 -0.5159
16583SOL    HW159679   6.302  10.067   9.298  1.6150 -0.5038 -0.4876
16583SOL    HW259680   6.356  10.184   9.378  1.6869 -0.6960 -0.2548
16584SOL     OW59681   3.351   9.969   1.565  0.0038  0.5036  0.2589
16584SOL    HW159682   3.333   9.876   1.579  1.5511  0.0869 -0.2771
16584SOL    HW259683   3.400   9.996   1.643 -0.4171  0.8700  0.4006
16585SOL     OW59684   6.361   9.574   9.706 -0.1348  0.0340  0.2503
16585SOL    HW159685   6.370   9.622   9.624 -2.8060  2.8880  1.4350
16585SOL    HW259686   6.406   9.628   9.771 -0.7725 -0.5101  1.1671
16586SOL     OW59687   1.186   8.237   2.443 -0.1329  0.1008  0.0039
16586SOL    HW159688   1.271   8.242   2.400 -0.7375  2.5458 -1.0996
16586SOL    HW259689   1.129   8.291   2.389 -2.8829 -2.7888 -0.2425
16587SOL     OW59690   7.594   8.396   2.023 -0.1360 -0.9783 -0.0127
16587SOL    HW159691   7.646   8.427   1.949  1.9119 -2.7287  0.5956
16587SOL    HW259692   7.650   8.410   2.099 -0.4943 -2.9543  0.6740
16588SOL     OW59693  10.905   1.316   6.787 -0.3164 -0.2207 -0.0055
16588SOL    HW159694  10.935   1.350   6.703 -1.3226  0.0576 -0.2659
16588SOL    HW259695  10.827   1.367   6.808 -0.5306 -0.8111  0.7176
16589SOL     OW59696   5.614   6.238   0.833  0.3035  0.0582 -0.1870
16589SOL    HW159697   5.637   6.310   0.892 -1.1965 -0.1795  0.7195
16589SOL    HW259698   5.593   6.165   0.890  0.6636 -0.7613 -1.0814
16590SOL     OW59699  10.588   5.128  12.761 -0.4280 -0.1996 -0.4384
16590SOL    HW159700  10.506   5.092  12.795  0.4928  0.1311  2.4449
16590SOL    HW259701  10.564   5.168  12.678 -2.8934 -1.2766 -0.3437
16591SOL     OW59702  11.965   1.432   7.211 -0.2046 -0.2581 -0.2508
16591SOL    HW159703  12.019   1.510   7.199 -1.3174  0.4354 -1.0032
16591SOL    HW259704  11.939   1.436   7.304 -1.1081  0.8859 -0.5184
16592SOL     OW59705  10.963   2.940  11.305 -0.1378  0.1811  0.3238
16592SOL    HW159706  10.947   3.009  11.370  0.7926 -0.8491  1.7168
16592SOL    HW259707  11.037   2.891  11.342  0.7384 -0.1541 -1.7715
16593SOL     OW59708   1.803   1.277   5.050  0.2238 -0.3621  0.3678
16593SOL    HW159709   1.763   1.240   4.972  0.1058  0.0179  0.2466
16593SOL    HW259710   1.860   1.347   5.017 -0.0203 -0.0323  0.6409
16594SOL     OW59711   4.541   0.823  12.833  0.7801 -0.4392 -0.3830
16594SOL    HW159712   4.633   0.821  12.862  0.5136  1.6149  0.8015
16594SOL    HW259713   4.500   0.889  12.889 -0.9968  0.0227 -2.1414
16595SOL     OW59714   2.527   9.949   9.975 -0.4889  0.0236 -0.1047
16595SOL    HW159715   2.599   9.954  10.038 -1.0938  2.0904  0.4826
16595SOL    HW259716   2.523   9.856   9.951  1.2679 -0.4148  1.1146
16596SOL     OW59717   4.237   4.783   5.719  0.0013  0.3859  0.0008
16596SOL    HW159718   4.220   4.851   5.784  1.0592 -0.0013  0.7287
16596SOL    HW259719   4.238   4.701   5.770  0.3989  0.0266 -0.5696
16597SOL     OW59720   9.346  10.815   0.298 -0.5754 -0.8716 -0.0983
16597SOL    HW159721   9.289  10.878   0.256  2.2701  1.8841 -0.2569
16597SOL    HW259722   9.406  10.786   0.229 -0.0470 -1.5136  0.6058
16598SOL     OW59723  13.196   9.215  12.188  0.8638  0.2774  0.2584
16598SOL    HW159724  13.234   9.162  12.117  1.5853  0.8280  0.2190
16598SOL    HW259725  13.134   9.273  12.144 -0.8875 -1.3446  0.4455
16599SOL     OW59726   2.197  12.581  13.106  0.7541  0.2884 -0.5287
16599SOL    HW159727   2.163  12.519  13.170  4.5134 -0.9575  0.5076
16599SOL    HW259728   2.175  12.543  13.021 -2.3577  0.8362 -0.0891
16600SOL     OW59729   5.706   4.066   0.229 -0.2552 -0.2088 -0.0576
16600SOL    HW159730   5.693   4.041   0.320  0.6696 -1.0042 -0.1290
16600SOL    HW259731   5.649   4.142   0.216  1.1625  1.2603  1.7783
16601SOL     OW59732   1.365   3.766   8.002 -0.1837 -0.9127 -0.3377
16601SOL    HW159733   1.345   3.843   8.054  1.6291 -0.5328 -0.1525
16601SOL    HW259734   1.420   3.712   8.058 -0.0231 -1.5459 -1.0768
16602SOL     OW59735  12.500   7.903   0.934  0.2737  0.4832 -0.1604
16602SOL    HW159736  12.453   7.829   0.973  1.5960  0.2612  1.0723
16602SOL    HW259737  12.592   7.884   0.951  0.8658  0.8067 -2.7181
16603SOL     OW59738   3.253   9.573   4.171  0.2454  0.1492 -0.1402
16603SOL    HW159739   3.224   9.589   4.261  0.8396  1.2539 -0.1136
16603SOL    HW259740   3.247   9.479   4.160 -0.4604  0.0614  0.8440
16604SOL     OW59741  12.150   5.785   9.824  0.6836 -0.2621  0.0275
16604SOL    HW159742  12.075   5.772   9.766  1.4112  0.1869 -1.0556
16604SOL    HW259743  12.161   5.880   9.827  0.4310 -0.2561  1.2271
16605SOL     OW59744   4.737   0.975   6.348  0.1628  0.2350  0.4435
16605SOL    HW159745   4.735   0.925   6.429 -0.5530 -0.4729  0.0121
16605SOL    HW259746   4.778   0.917   6.284 -0.7286  0.1498 -0.0787
16606SOL     OW59747   4.753  11.226   3.057  0.0733  0.8964  0.4122
16606SOL    HW159748   4.824  11.188   3.006 -1.0047 -1.6892  0.6523
16606SOL    HW259749   4.698  11.271   2.993  0.0322 -0.2092 -0.3588
16607SOL     OW59750   6.774   6.060   4.124 -0.0507  0.0965 -0.1970
16607SOL    HW159751   6.776   5.969   4.093  0.5164  0.4120 -1.1260
16607SOL    HW259752   6.708   6.103   4.069 -2.6641 -0.4277  2.3004
16608SOL     OW59753   4.874   5.300  11.932 -0.0376  0.2090 -0.0421
16608SOL    HW159754   4.960   5.331  11.961  0.1397  0.3330 -0.6873
16608SOL    HW259755   4.813   5.332  11.999  0.2003  1.5668 -0.4506
16609SOL     OW59756   3.807   0.587   2.003 -0.1012 -0.7105 -0.0789
16609SOL    HW159757   3.890   0.564   1.961  1.8028  0.5035  2.7119
16609SOL    HW259758   3.791   0.677   1.976 -0.8376 -1.0999 -1.0070
16610SOL     OW59759  12.946  10.375   0.221  0.5546 -0.2395  0.4907
16610SOL    HW159760  12.876  10.362   0.286 -0.7204  0.7721 -0.6101
16610SOL    HW259761  13.026  10.353   0.267 -0.3482  0.0599  2.2918
16611SOL     OW59762   3.899  11.402  11.358 -0.2547 -1.1801 -0.1208
16611SOL    HW159763   3.838  11.405  11.284  1.1533  0.9919 -1.2861
16611SOL    HW259764   3.961  11.333  11.335  0.1900 -0.5038 -1.0348
16612SOL     OW59765   4.161  10.386   5.952 -0.0121 -0.3245  0.0866
16612SOL    HW159766   4.192  10.308   5.998 -0.0955  0.5988  1.7784
16612SOL    HW259767   4.241  10.431   5.926  0.0383 -1.0240 -1.0329
16613SOL     OW59768  12.093   4.634  10.375 -0.1523 -0.0713 -0.0391
16613SOL    HW159769  12.180   4.625  10.413 -0.8149 -0.4040  1.4977
16613SOL    HW259770  12.037   4.660  10.449 -2.0599 -3.5834 -0.0101
16614SOL     OW59771   4.815   4.755   9.391 -0.4530 -0.2795  0.2880
16614SOL    HW159772   4.844   4.782   9.304 -0.2096  0.5889  0.6220
16614SOL    HW259773   4.722   4.736   9.381 -0.4645 -0.0153 -0.1300
16615SOL     OW59774   2.461   8.040  12.428  0.4662 -0.1973 -0.1850
16615SOL    HW159775   2.380   8.020  12.381  0.2941 -1.2220  0.5272
16615SOL    HW259776   2.528   7.986  12.386  0.5401 -0.2513 -0.0006
16616SOL     OW59777   1.069   6.851   7.079 -0.5131  0.5633 -0.1926
16616SOL    HW159778   1.088   6.854   6.985 -1.0388  2.4280 -0.2845
16616SOL    HW259779   1.154   6.835   7.120 -0.7308 -4.0040 -1.0417
16617SOL     OW59780   8.529   8.730  10.077 -0.1271 -0.1786  0.1903
16617SOL    HW159781   8.461   8.771  10.025  1.8076  0.7232 -1.7945
16617SOL    HW259782   8.483   8.689  10.150 -2.6963  0.7407 -0.8271
16618SOL     OW59783  12.184   2.945   4.131  0.2180 -0.8391  0.5108
16618SOL    HW159784  12.118   2.928   4.198 -0.1335 -1.8835 -0.0589
16618SOL    HW259785  12.267   2.947   4.178 -0.2932  2.0387  1.4692
16619SOL     OW59786   1.474  10.061  12.216  0.3422 -0.0744  0.3186
16619SOL    HW159787   1.523  10.143  12.207  3.0241 -1.3865  1.6939
16619SOL    HW259788   1.481  10.040  12.309 -0.5062 -1.7496  0.0405
16620SOL     OW59789   9.424  10.012   5.355 -0.2672 -0.1001  0.0974
16620SOL    HW159790   9.414   9.919   5.374 -0.8553 -0.1615 -0.4615
16620SOL    HW259791   9.511  10.034   5.386 -0.5311 -0.5856  1.2290
16621SOL     OW59792  11.709   2.878   5.050  0.0989 -0.4199  0.3186
16621SOL    HW159793  11.674   2.967   5.054  3.6957  1.2253 -0.7197
16621SOL    HW259794  11.688   2.848   4.962  0.6097  0.2561 -0.0438
16622SOL     OW59795   0.949   5.149   0.628 -0.0562 -0.1864  0.2124
16622SOL    HW159796   0.983   5.085   0.690 -1.0944 -1.9810 -0.9777
16622SOL    HW259797   0.863   5.115   0.604 -0.9497  2.0626  0.0536
16623SOL     OW59798  11.298   8.862   1.876 -0.0666 -0.3760  0.3921
16623SOL    HW159799  11.228   8.924   1.854  0.8981 -0.4193 -3.4418
16623SOL    HW259800  11.273   8.781   1.832  1.8979 -0.6779 -0.2401
16624SOL     OW59801   1.582  11.132   0.333  0.1501  0.7178 -0.2007
16624SOL    HW159802   1.569  11.137   0.428 -0.5815  0.1065 -0.2625
16624SOL    HW259803   1.588  11.038   0.314 -0.7400  0.7883 -0.8925
16625SOL     OW59804   3.393   5.496  12.180  0.6792  0.7333  0.3414
16625SOL    HW159805   3.304   5.463  12.195  0.5900  0.2802 -1.0244
16625SOL    HW259806   3.450   5.421  12.200  0.8278  1.2566  1.9745
16626SOL     OW59807   0.688   5.284   4.578  0.2743 -0.1078 -0.1944
16626SOL    HW159808   0.742   5.240   4.512  1.7726  0.9855  0.2703
16626SOL    HW259809   0.685   5.222   4.652 -0.4219 -0.8177 -0.7897
16627SOL     OW59810   0.820   0.056   8.428  0.6074 -0.3028  0.6321
16627SOL    HW159811   0.775   0.021   8.505 -1.0802 -1.9167 -0.9763
16627SOL    HW259812   0.875  -0.015   8.397 -1.1191 -0.8898 -1.3633
16628SOL     OW59813   0.790  13.062   4.713  0.0216  0.3174 -0.4394
16628SOL    HW159814   0.757  13.003   4.781  0.7912  0.9431  0.4873
16628SOL    HW259815   0.726  13.053   4.641 -0.8083 -0.3332  0.3555
16629SOL     OW59816   4.654   8.608   9.713 -0.0678  0.0628  0.0823
16629SOL    HW159817   4.624   8.548   9.646  2.8275  0.4170 -1.7257
16629SOL    HW259818   4.637   8.695   9.677 -0.9839  0.3153  1.0800
16630SOL     OW59819   8.252  11.773  10.681  0.0111 -0.9005 -0.3000
16630SOL    HW159820   8.209  11.756  10.598 -0.6873  2.5065 -0.7569
16630SOL    HW259821   8.336  11.812  10.658 -0.8254  1.5586  0.4584
16631SOL     OW59822   3.937   0.298   1.103 -0.3581  0.3820  0.4245
16631SOL    HW159823   4.024   0.262   1.122  0.6630  1.2267 -2.1941
16631SOL    HW259824   3.951   0.354   1.026 -3.0638  1.2981  0.5110
16632SOL     OW59825   9.366   8.383   1.278  0.4668 -0.1863 -0.5161
16632SOL    HW159826   9.448   8.405   1.322 -0.4021 -1.3825  1.8862
16632SOL    HW259827   9.375   8.291   1.254 -0.3439 -0.4997  0.3015
16633SOL     OW59828   1.633   4.604  10.710 -0.0821  0.3628  0.5007
16633SOL    HW159829   1.606   4.556  10.631  1.0976  1.2694 -0.5030
16633SOL    HW259830   1.724   4.578  10.724  0.2855  1.5593  0.4828
16634SOL     OW59831   3.827   4.837   7.369 -0.4242  0.0121 -0.1953
16634SOL    HW159832   3.882   4.787   7.428  1.1761  1.1379 -0.6643
16634SOL    HW259833   3.809   4.919   7.415 -1.5173 -0.2218 -0.1613
16635SOL     OW59834  11.861   2.915   3.582  0.0283 -0.0342 -0.1246
16635SOL    HW159835  11.791   2.946   3.525  0.2322 -0.2123 -0.4764
16635SOL    HW259836  11.817   2.857   3.645 -0.2406  0.3928  0.0898
16636SOL     OW59837   8.205   0.314   9.091 -0.4564 -0.2712 -0.1112
16636SOL    HW159838   8.178   0.293   9.002  2.2253  1.0745 -1.3450
16636SOL    HW259839   8.159   0.396   9.112 -0.8941 -0.4555 -0.3419
16637SOL     OW59840   6.540  11.793   5.789 -0.2897  0.1946  0.5452
16637SOL    HW159841   6.472  11.757   5.846 -0.0428 -1.2024 -0.0198
16637SOL    HW259842   6.498  11.802   5.704 -0.1092  0.4826  0.4838
16638SOL     OW59843  10.141   5.956  12.234  0.6963  0.5999 -0.5464
16638SOL    HW159844  10.201   6.019  12.274 -0.4640  1.4151 -0.0071
16638SOL    HW259845  10.133   5.886  12.299  2.6614 -0.6014 -1.5069
16639SOL     OW59846  11.980   8.935   8.880 -0.1116 -0.0440 -0.2935
16639SOL    HW159847  11.907   8.976   8.926 -1.1202 -0.9950 -1.0005
16639SOL    HW259848  12.022   8.880   8.946 -0.8557 -0.5159 -0.1943
16640SOL     OW59849   8.139  11.511   4.863 -0.2118 -0.3146  0.1878
16640SOL    HW159850   8.224  11.472   4.880 -0.2832  0.5090  2.8247
16640SOL    HW259851   8.077  11.458   4.913 -1.4784 -1.5346 -2.4868
16641SOL     OW59852   4.890   2.090   8.705 -0.2696 -0.2370 -0.4238
16641SOL    HW159853   4.975   2.055   8.681 -0.2778 -1.0183  0.5912
16641SOL    HW259854   4.846   2.108   8.622  1.7511  2.5003 -1.0439
16642SOL     OW59855   3.363   2.040   7.086 -0.8634  0.3408  0.1702
16642SOL    HW159856   3.445   2.089   7.078  0.2103 -1.1299  1.4328
16642SOL    HW259857   3.320   2.051   7.001  0.1458  2.0018 -0.1650
16643SOL     OW59858  11.912   0.438   3.445  0.0713  0.2189  0.2655
16643SOL    HW159859  11.860   0.452   3.524  0.1030  0.3165  0.2691
16643SOL    HW259860  11.995   0.482   3.463  1.4720 -2.7290  1.6250
16644SOL     OW59861   5.080  12.777  10.164 -0.6530  0.0705 -0.0170
16644SOL    HW159862   5.036  12.742  10.241 -0.4433  0.6213  0.3601
16644SOL    HW259863   5.130  12.703  10.129 -1.3872 -0.3960 -0.0990
16645SOL     OW59864   6.532   1.117   9.423 -0.0491  0.1870 -0.4714
16645SOL    HW159865   6.475   1.054   9.379  0.6519 -0.5915 -0.2817
16645SOL    HW259866   6.591   1.064   9.476 -1.3545  1.1003  2.0492
16646SOL     OW59867   5.956   0.124   7.622  0.3429 -0.1285  0.3904
16646SOL    HW159868   5.885   0.063   7.602  1.0665 -0.4066 -1.6561
16646SOL    HW259869   5.946   0.144   7.715 -0.9032 -2.0814  0.7347
16647SOL     OW59870   8.264   2.992   4.268  0.3177  0.3229 -0.0487
16647SOL    HW159871   8.237   2.902   4.252 -1.3092  0.7667 -0.0308
16647SOL    HW259872   8.345   3.003   4.218  0.1472 -0.9291 -0.6258
16648SOL     OW59873  11.269   2.432   5.404  0.0664  0.1673  1.0320
16648SOL    HW159874  11.327   2.371   5.360  0.5831 -0.7199  2.8428
16648SOL    HW259875  11.324   2.476   5.469 -0.6334  1.4966  0.7730
16649SOL     OW59876   8.544   2.864  12.480 -0.6146 -0.8518 -0.3174
16649SOL    HW159877   8.556   2.934  12.416 -2.0072 -0.4328 -0.1341
16649SOL    HW259878   8.513   2.908  12.559  1.0528 -1.3691  0.6747
16650SOL     OW59879   3.371  13.144  10.511 -0.5831  0.1108 -0.0797
16650SOL    HW159880   3.316  13.221  10.500  1.3288  1.5276 -0.2989
16650SOL    HW259881   3.432  13.168  10.581  1.8132 -0.0799 -1.9765
16651SOL     OW59882  11.665   4.952   8.288  0.3534 -0.0640  0.3256
16651SOL    HW159883  11.576   4.988   8.283  0.0435 -0.9571 -1.4743
16651SOL    HW259884  11.718   5.024   8.320 -0.5047  1.5739 -1.6738
16652SOL     OW59885   5.138  10.592   9.699 -0.2354 -0.3342  0.1234
16652SOL    HW159886   5.211  10.531   9.710 -0.0420 -0.2515 -0.6078
16652SOL    HW259887   5.169  10.653   9.632 -1.0161 -0.3752 -0.2834
16653SOL     OW59888   4.167   6.615   8.492  0.4431 -0.3149 -0.2870
16653SOL    HW159889   4.106   6.688   8.490  0.0730 -0.5563 -3.9861
16653SOL    HW259890   4.254   6.656   8.490  0.3520 -0.0193  0.8866
16654SOL     OW59891   7.045   6.586   6.593 -0.2145 -0.2444  0.2362
16654SOL    HW159892   7.025   6.583   6.686  0.4007 -1.7121  0.3454
16654SOL    HW259893   7.114   6.522   6.581 -0.5194 -0.3350 -1.2913
16655SOL     OW59894   0.041   2.491   0.053 -0.3887  0.1684 -0.0107
16655SOL    HW159895   0.128   2.500   0.014 -0.9310  1.9105 -0.9444
16655SOL    HW259896   0.052   2.519   0.144  0.2988 -1.0536  0.2978
16656SOL     OW59897   8.607   6.945  10.131  0.4906 -0.2486 -0.2349
16656SOL    HW159898   8.545   6.876  10.108  0.4938 -0.1578 -0.5314
16656SOL    HW259899   8.664   6.906  10.198 -0.9820  0.2460  1.3675
16657SOL     OW59900   4.111   1.244   0.429  0.4306 -0.7172  0.2471
16657SOL    HW159901   4.056   1.296   0.370  0.9018 -0.9832 -0.4299
16657SOL    HW259902   4.184   1.301   0.451 -0.4941 -0.0791  1.7735
16658SOL     OW59903  12.974   9.751   9.111  0.0750 -0.5032 -0.4740
16658SOL    HW159904  12.950   9.743   9.018  2.2553 -1.1086 -1.0334
16658SOL    HW259905  12.937   9.835   9.138 -0.9356 -0.4889 -1.7654
16659SOL     OW59906  10.460  13.164   0.511 -0.2288  0.1679  0.1509
16659SOL    HW159907  10.543  13.119   0.503  0.1510  0.6822  1.0774
16659SOL    HW259908  10.455  13.190   0.603 -1.4500  0.0678  0.1326
16660SOL     OW59909   5.290   4.651   8.771 -0.3396 -0.6723  0.0009
16660SOL    HW159910   5.302   4.581   8.834 -0.5148  1.6970  2.8793
16660SOL    HW259911   5.347   4.722   8.802 -2.3251  1.5211 -0.9954
16661SOL     OW59912   6.131   9.417   8.011  0.7633  0.3565 -0.2030
16661SOL    HW159913   6.047   9.451   8.041  1.6953 -0.2856  3.6810
16661SOL    HW259914   6.109   9.339   7.959 -1.0291  1.2502 -0.8485
16662SOL     OW59915   3.930   1.593  11.269 -0.1439  0.4160 -0.1226
16662SOL    HW159916   3.904   1.545  11.347 -0.2656 -0.1305 -0.4941
16662SOL    HW259917   3.851   1.640  11.242 -0.1518  0.4582 -0.0261
16663SOL     OW59918   4.658   0.884   1.034  0.8171  0.2708  0.0980
16663SOL    HW159919   4.654   0.823   1.108  3.1230  0.2065  0.2128
16663SOL    HW259920   4.703   0.836   0.965  1.1829  1.2853 -0.3875
16664SOL     OW59921  12.627   7.433  13.034  0.3672  0.2212  0.0320
16664SOL    HW159922  12.714   7.457  13.067 -0.4525  1.1566  1.6344
16664SOL    HW259923  12.622   7.338  13.047  0.5332  0.3944  1.5837
16665SOL     OW59924  12.441   9.691   7.281  0.1241 -0.2261 -0.6863
16665SOL    HW159925  12.444   9.598   7.304  0.2714 -0.1521 -0.4031
16665SOL    HW259926  12.515   9.703   7.221  2.0373  0.3471  1.6551
16666SOL     OW59927   6.806   8.008   6.263  0.5990 -0.0272  0.6950
16666SOL    HW159928   6.712   7.995   6.276  0.7200 -0.5588  1.1063
16666SOL    HW259929   6.812   8.065   6.187 -0.0278 -1.4216 -0.4551
16667SOL     OW59930   8.340   7.222  11.950 -0.3481  0.0696  0.1240
16667SOL    HW159931   8.297   7.142  11.920 -1.6372  1.1120 -0.9885
16667SOL    HW259932   8.285   7.253  12.022  1.8228 -1.5497  2.6462
16668SOL     OW59933   4.083   7.284   7.260 -0.6008  0.0569  0.0629
16668SOL    HW159934   4.109   7.344   7.330 -0.9386 -0.3460  0.5420
16668SOL    HW259935   4.162   7.276   7.205  0.6399 -1.8213  1.9753
16669SOL     OW59936  11.129   1.128  12.889  0.0051  0.2190 -0.5081
16669SOL    HW159937  11.206   1.173  12.854 -0.4515  0.6312 -1.0057
16669SOL    HW259938  11.093   1.189  12.954 -0.4805  0.4840 -1.0161
16670SOL     OW59939   2.236   6.352  12.368  0.9447 -0.1758 -0.3001
16670SOL    HW159940   2.273   6.412  12.434  2.3930  0.3347 -1.5115
16670SOL    HW259941   2.312   6.324  12.317  0.2160 -2.5865 -0.1818
16671SOL     OW59942  11.458   0.186   1.573  0.0940  0.1252 -0.2883
16671SOL    HW159943  11.521   0.208   1.642 -0.8219 -0.2527  0.6831
16671SOL    HW259944  11.487   0.237   1.498  1.6663 -0.1700  0.0783
16672SOL     OW59945   1.113   2.922   9.373 -0.8341  0.2846  0.2426
16672SOL    HW159946   1.102   2.866   9.297 -1.0292 -1.7896  1.7313
16672SOL    HW259947   1.027   2.927   9.413 -0.9528  2.1505 -0.1222
16673SOL     OW59948  11.425   3.082   2.913 -0.2632 -0.2273  0.1400
16673SOL    HW159949  11.501   3.024   2.916  1.4665  1.9160 -0.3062
16673SOL    HW259950  11.350   3.022   2.911  1.4160 -2.4385 -0.5163
16674SOL     OW59951   4.944   5.500   2.573  0.2995  0.2754  0.3163
16674SOL    HW159952   4.871   5.552   2.607 -1.0968 -0.7382 -0.9504
16674SOL    HW259953   4.961   5.435   2.640 -1.0665 -0.4648 -0.0251
16675SOL     OW59954  11.148   3.143   6.489 -0.5788 -0.0815 -0.6621
16675SOL    HW159955  11.177   3.052   6.482 -1.0599 -0.2949  0.0750
16675SOL    HW259956  11.057   3.138   6.516 -0.2566  0.6297  0.6434
16676SOL     OW59957   4.819  10.970   8.019  0.2001  0.0100  0.5079
16676SOL    HW159958   4.880  11.044   8.022 -0.4565  0.5541  0.6911
16676SOL    HW259959   4.743  11.004   7.972  0.0352 -0.6611  0.2826
16677SOL     OW59960   5.770   9.077   8.729  0.2307 -0.2256 -0.2849
16677SOL    HW159961   5.766   9.090   8.634 -0.5703 -0.0122 -0.2290
16677SOL    HW259962   5.715   9.000   8.745  0.7770 -0.5713 -0.0455
16678SOL     OW59963   4.295   5.117   2.161  0.6473 -0.1746 -0.1775
16678SOL    HW159964   4.255   5.170   2.230 -1.0147  0.1654 -1.3361
16678SOL    HW259965   4.234   5.044   2.149 -0.9230  1.4449 -3.4272
16679SOL     OW59966  11.701  10.653   0.693  0.1114 -0.3293  0.1839
16679SOL    HW159967  11.648  10.578   0.668 -2.2638  0.7125  1.7574
16679SOL    HW259968  11.791  10.622   0.684 -0.7423 -3.5577  1.2483
16680SOL     OW59969   6.272   1.484   0.271  0.0050  0.0715  0.2738
16680SOL    HW159970   6.194   1.520   0.229  0.5778  0.9844 -0.0398
16680SOL    HW259971   6.325   1.561   0.292  2.7527 -0.5703 -3.2547
16681SOL     OW59972  12.734   4.220  13.257 -0.2018 -0.5969  0.5419
16681SOL    HW159973  12.805   4.285  13.254 -1.2031  0.5199  0.4043
16681SOL    HW259974  12.736   4.187  13.347  0.2425 -0.2877  0.6530
16682SOL     OW59975   9.907   8.928   2.771  0.3161 -0.0366 -0.0216
16682SOL    HW159976   9.895   8.846   2.722 -0.4991  0.7370 -1.1432
16682SOL    HW259977   9.825   8.976   2.760  0.7826  0.9519  0.6193
16683SOL     OW59978   2.869   4.039   0.793 -0.2960  0.1200 -0.0724
16683SOL    HW159979   2.922   4.108   0.754 -1.6287  1.8429  1.0026
16683SOL    HW259980   2.846   4.073   0.880 -1.9123 -1.1798  0.0613
16684SOL     OW59981   2.396  11.828   1.472  0.0437 -0.0426  0.1743
16684SOL    HW159982   2.433  11.911   1.501 -1.3365  0.8735 -0.5631
16684SOL    HW259983   2.422  11.819   1.381  0.3338 -0.5200  0.2979
16685SOL     OW59984  11.523   1.964   8.739  0.4762 -0.2021  0.2350
16685SOL    HW159985  11.492   1.970   8.829 -0.7885  0.8195 -0.2389
16685SOL    HW259986  11.573   2.044   8.724  2.1581 -1.1532  0.5243
16686SOL     OW59987  10.463   3.893  13.213  0.0228  0.0823 -0.0070
16686SOL    HW159988  10.487   3.939  13.293  1.3164 -0.2449 -0.1843
16686SOL    HW259989  10.462   3.960  13.145  0.3744  0.1151  0.0191
16687SOL     OW59990   1.185  10.088   5.673  0.4538  0.2571  0.3349
16687SOL    HW159991   1.119  10.031   5.712  0.6486 -0.8283 -0.8436
16687SOL    HW259992   1.153  10.105   5.585  1.0803  0.8605  0.2157
16688SOL     OW59993   3.141  10.400   9.865  0.1334 -0.3469  0.2691
16688SOL    HW159994   3.109  10.340   9.798  2.2430 -0.4005 -0.7497
16688SOL    HW259995   3.084  10.477   9.857 -0.9262 -1.1435 -0.1713
16689SOL     OW59996  10.346   5.023   7.046 -0.1911 -0.1558 -0.1229
16689SOL    HW159997  10.437   5.047   7.060 -0.2330 -0.3296  0.4465
16689SOL    HW259998  10.320   5.073   6.968 -0.5140  2.3295  1.4623
16690SOL     OW59999   0.672   8.786  12.593  0.2426  0.0501  0.2164
16690SOL    HW160000   0.644   8.866  12.638  2.1168 -0.2089  1.9734
16690SOL    HW260001   0.668   8.718  12.661  2.5133 -0.5009 -0.1379
16691SOL     OW60002   6.586   2.593  11.760  0.1533 -0.3993 -0.0408
16691SOL    HW160003   6.633   2.524  11.713 -1.9704 -0.7883 -1.7287
16691SOL    HW260004   6.608   2.674  11.712  1.6448 -0.0118  1.1898
16692SOL     OW60005  10.078   7.439   7.792 -0.5646  0.0481 -0.0809
16692SOL    HW160006  10.084   7.531   7.816  0.4789  0.0779 -0.4110
16692SOL    HW260007  10.093   7.437   7.698 -0.3081 -0.4818 -0.0341
16693SOL     OW60008  11.473  12.781  12.007  0.2927  0.0875 -0.0852
16693SOL    HW160009  11.461  12.859  11.953  2.3467 -0.5427 -1.5556
16693SOL    HW260010  11.385  12.743  12.013 -0.2469  0.9578 -1.7800
16694SOL     OW60011   5.279   2.809   8.981 -0.1977 -0.1066 -0.0025
16694SOL    HW160012   5.206   2.871   8.990 -1.0857 -1.1545  0.1594
16694SOL    HW260013   5.301   2.784   9.071 -0.9879 -1.3082 -0.1186
16695SOL     OW60014   3.958   7.138  12.684 -0.4903  0.4121  0.1530
16695SOL    HW160015   3.895   7.078  12.646 -0.4782  0.1267  0.5837
16695SOL    HW260016   3.928   7.225  12.656 -0.9786  0.2671  0.2165
16696SOL     OW60017  11.984  10.092   8.334  0.6057  0.6846 -0.0390
16696SOL    HW160018  11.901  10.046   8.322  1.1004 -0.4334  0.6199
16696SOL    HW260019  12.046  10.044   8.279  0.5966  2.2834 -1.5386
16697SOL     OW60020   3.793  12.048   9.618  0.1476  0.4350 -0.1100
16697SOL    HW160021   3.790  12.034   9.713  0.4838 -0.6088 -0.2488
16697SOL    HW260022   3.702  12.037   9.590  0.0330  0.8241  0.0898
16698SOL     OW60023   0.933   8.415  10.690  0.0639  0.1175 -0.0681
16698SOL    HW160024   1.011   8.360  10.682  1.8550  2.0051  2.7024
16698SOL    HW260025   0.882   8.375  10.761 -0.3525  0.1491 -0.3442
16699SOL     OW60026   9.384  11.534  11.641  0.4531 -0.4199 -0.0507
16699SOL    HW160027   9.423  11.459  11.595  0.2759 -0.2420 -0.5007
16699SOL    HW260028   9.453  11.564  11.700  0.9131 -0.2763 -0.6409
16700SOL     OW60029  11.584   8.373  11.879  0.1350  0.2253  0.5396
16700SOL    HW160030  11.524   8.445  11.897 -0.1516  0.2154 -0.2999
16700SOL    HW260031  11.526   8.300  11.856  0.4219 -0.2657  1.3610
16701SOL     OW60032   1.708   0.449   6.307 -0.2207 -0.8695  0.0244
16701SOL    HW160033   1.770   0.406   6.367  0.6691  2.1892  1.5146
16701SOL    HW260034   1.626   0.452   6.356  0.2170  0.6624  0.7245
16702SOL     OW60035   1.770   1.887   8.370  0.2147  0.8211 -0.4139
16702SOL    HW160036   1.822   1.950   8.421  0.8853 -0.0684  0.0453
16702SOL    HW260037   1.766   1.810   8.426 -0.3141  0.3405 -1.1065
16703SOL     OW60038  10.929   3.788   1.782 -0.3138 -0.2223  0.4109
16703SOL    HW160039  10.921   3.865   1.839  0.0963  0.9197 -1.0216
16703SOL    HW260040  11.001   3.738   1.820  0.1631  0.6847  0.7311
16704SOL     OW60041   5.305   0.583   8.757 -0.5556 -0.1255  0.0277
16704SOL    HW160042   5.307   0.487   8.752  0.5626 -0.0491 -2.0011
16704SOL    HW260043   5.274   0.611   8.671  0.4092  1.3380  0.1185
16705SOL     OW60044   0.379   8.004   3.949 -0.0376 -0.4061  0.2201
16705SOL    HW160045   0.406   8.069   4.014 -1.1449  2.5282 -1.9957
16705SOL    HW260046   0.288   7.983   3.972 -0.3541  0.4657 -0.1414
16706SOL     OW60047   3.318  12.198   8.312 -0.2797 -0.2251 -0.2291
16706SOL    HW160048   3.324  12.291   8.290  0.3343 -0.4541 -1.1345
16706SOL    HW260049   3.386  12.157   8.257 -0.6017 -1.2101  0.0925
16707SOL     OW60050  13.299  11.191   2.239 -0.3500  0.1796  0.0410
16707SOL    HW160051  13.246  11.136   2.181 -1.2050  0.1950  0.7899
16707SOL    HW260052  13.268  11.170   2.327 -0.1952  1.3424  0.3869
16708SOL     OW60053   0.402   5.057  10.202  0.2611  0.6521  0.9438
16708SOL    HW160054   0.323   5.055  10.148  0.1118 -0.0332  1.1797
16708SOL    HW260055   0.384   4.996  10.273  0.7715  0.9418  1.3263
16709SOL     OW60056  13.008   8.913   6.199 -0.4682  0.1274 -0.2262
16709SOL    HW160057  13.014   8.873   6.286 -0.1542 -0.3126 -0.4474
16709SOL    HW260058  13.085   8.881   6.153 -1.1003 -0.3635 -0.9673
16710SOL     OW60059  12.807   1.270   1.504 -0.0487  0.1657 -0.3753
16710SOL    HW160060  12.737   1.307   1.451 -0.5280  0.6923  0.6029
16710SOL    HW260061  12.786   1.296   1.594  0.3767 -1.2776  0.1680
16711SOL     OW60062   1.458   5.889   9.840  0.2437  0.4459 -0.3696
16711SOL    HW160063   1.452   5.963   9.780  4.0437  0.9792 -0.3226
16711SOL    HW260064   1.516   5.919   9.910  1.3876 -2.2873 -0.0007
16712SOL     OW60065   5.432   6.616  10.485 -0.3214 -0.6722 -0.6518
16712SOL    HW160066   5.426   6.529  10.525 -0.8078  0.0232  0.8831
16712SOL    HW260067   5.351   6.660  10.512  0.8922  0.9770  0.4768
16713SOL     OW60068   1.387  12.966   1.310  0.0676 -0.3087 -0.9538
16713SOL    HW160069   1.417  13.056   1.296  1.3332 -0.7329 -1.0814
16713SOL    HW260070   1.460  12.922   1.353 -0.0349 -1.5963 -2.0175
16714SOL     OW60071   3.121   7.685   8.639  0.3251  0.7966  0.1797
16714SOL    HW160072   3.172   7.755   8.678  2.1772 -0.7367  0.6608
16714SOL    HW260073   3.161   7.671   8.553  0.4274 -0.0995  0.3621
16715SOL     OW60074   4.034   8.069   9.925 -0.1240 -0.1935 -0.0314
16715SOL    HW160075   4.036   8.165   9.925 -1.6820 -0.0923  2.1231
16715SOL    HW260076   4.125   8.043   9.940  0.5492  0.8604 -1.9646
16716SOL     OW60077  11.011   8.577   0.386 -0.2252 -0.3245  0.2440
16716SOL    HW160078  10.979   8.593   0.298  0.8620  0.1218 -0.0910
16716SOL    HW260079  10.952   8.511   0.422 -0.4845 -0.7532 -0.9288
16717SOL     OW60080   0.576  13.015   5.971 -0.0656  0.1825  0.0167
16717SOL    HW160081   0.637  13.050   5.906 -0.5561  0.0868 -0.5016
16717SOL    HW260082   0.611  13.044   6.055 -0.7948  2.4619 -0.4016
16718SOL     OW60083   3.112  11.081   4.436  1.2967 -0.4431  0.0518
16718SOL    HW160084   3.031  11.030   4.425  1.4551 -0.9576  1.0957
16718SOL    HW260085   3.180  11.027   4.397  1.1409  0.0108 -0.8695
16719SOL     OW60086   9.793   7.589   9.393  0.0376  0.1556  0.3788
16719SOL    HW160087   9.709   7.590   9.347  0.3035  0.4934 -0.1085
16719SOL    HW260088   9.791   7.508   9.444 -0.1298 -0.3956 -0.4798
16720SOL     OW60089   3.139   7.744  12.269  0.0019 -0.3110 -0.0990
16720SOL    HW160090   3.204   7.693  12.317 -1.1921 -2.1145 -0.3026
16720SOL    HW260091   3.085   7.679  12.226 -0.2133  1.1892 -2.2801
16721SOL     OW60092  11.102   2.602   3.842 -0.1469 -0.1069  0.3192
16721SOL    HW160093  11.172   2.553   3.799 -0.8672 -0.1102 -0.8993
16721SOL    HW260094  11.024   2.583   3.790 -1.0387 -0.0073  1.5779
16722SOL     OW60095   8.892  11.716   5.241 -0.0519 -0.0400  0.0225
16722SOL    HW160096   8.846  11.795   5.270 -2.6733 -1.5948  0.4457
16722SOL    HW260097   8.822  11.655   5.220  1.8841 -1.8602 -1.4884
16723SOL     OW60098  10.650  12.864  12.779 -0.2771 -0.0060  0.1513
16723SOL    HW160099  10.630  12.867  12.686 -1.1458 -0.6534  0.3051
16723SOL    HW260100  10.642  12.955  12.809 -2.6348 -0.1444  0.1097
16724SOL     OW60101   9.908   2.813   3.666  0.7652  0.3572 -0.2625
16724SOL    HW160102   9.847   2.768   3.608 -0.9027  1.8737  0.2347
16724SOL    HW260103   9.973   2.746   3.689 -1.4479 -1.7566  0.2598
16725SOL     OW60104  13.148   1.904  12.545  0.1969 -0.0128 -0.4166
16725SOL    HW160105  13.234   1.915  12.586 -0.0329  0.2434  0.0084
16725SOL    HW260106  13.133   1.810  12.548  1.0986 -0.2270 -1.8353
16726SOL     OW60107   7.446   6.580  12.250 -0.3450  0.7465  0.7552
16726SOL    HW160108   7.371   6.569  12.308 -1.4703 -1.3126 -0.9370
16726SOL    HW260109   7.420   6.648  12.188 -0.2083  1.0581  1.0355
16727SOL     OW60110   0.516   6.460   2.275 -0.2856 -0.0736  0.8908
16727SOL    HW160111   0.532   6.554   2.270 -1.3755  0.0644 -2.0575
16727SOL    HW260112   0.423   6.452   2.295 -0.5939 -0.4451 -0.5763
16728SOL     OW60113   2.844   5.136   9.971  0.3133 -0.5510 -0.1581
16728SOL    HW160114   2.886   5.210  10.016  1.2167 -0.2812 -1.3725
16728SOL    HW260115   2.880   5.058  10.014  0.1411 -0.2838  0.4647
16729SOL     OW60116   9.859  12.017  10.121  0.1243 -0.1022  0.3234
16729SOL    HW160117   9.836  12.089  10.179  0.8207  0.0330  0.4317
16729SOL    HW260118   9.867  11.941  10.179  1.4467  0.1582  0.5143
16730SOL     OW60119   6.178   5.958  13.243 -0.2400 -0.3211 -0.5150
16730SOL    HW160120   6.270   5.966  13.268 -0.2452  2.1065 -1.0247
16730SOL    HW260121   6.171   5.870  13.204  1.9097 -0.4713 -0.6848
16731SOL     OW60122  11.724  10.189   9.402 -0.1181  0.9256 -0.0699
16731SOL    HW160123  11.796  10.222   9.349  0.1940  1.7821  0.8647
16731SOL    HW260124  11.757  10.190   9.492 -0.7093 -0.3084  0.1820
16732SOL     OW60125  10.506   7.609   2.727  0.5706 -0.1553 -0.5013
16732SOL    HW160126  10.439   7.644   2.785  1.1573 -0.1114  0.1639
16732SOL    HW260127  10.463   7.601   2.642 -0.2179  0.0394 -0.1239
16733SOL     OW60128   0.854   9.868   6.851 -0.6460 -0.4115 -0.1923
16733SOL    HW160129   0.893   9.811   6.784 -1.3685 -2.0116  0.6908
16733SOL    HW260130   0.924   9.882   6.915 -0.1112  0.7022 -0.9746
16734SOL     OW60131   7.839   0.218   3.673  0.2442 -0.8049  0.2435
16734SOL    HW160132   7.833   0.217   3.768 -0.9297  0.6073  0.2097
16734SOL    HW260133   7.886   0.299   3.652 -0.3832 -0.5991 -0.4067
16735SOL     OW60134  12.897   0.884   6.322  0.1661  0.1482 -0.5021
16735SOL    HW160135  12.834   0.869   6.392  3.0849 -1.3373  2.0262
16735SOL    HW260136  12.928   0.974   6.337 -0.0697  0.2482 -0.6182
16736SOL     OW60137  10.594   7.740  10.587  0.3836 -0.1651 -0.1555
16736SOL    HW160138  10.616   7.810  10.526  2.4918 -0.4502  0.2139
16736SOL    HW260139  10.608   7.659  10.538  1.9481 -0.3935  0.6040
16737SOL     OW60140   6.531   4.841  12.148 -0.8461  0.1107  0.3762
16737SOL    HW160141   6.516   4.747  12.153  1.2649 -0.2564  1.1401
16737SOL    HW260142   6.544   4.858  12.054 -0.2852 -0.5577  0.3204
16738SOL     OW60143   1.554  11.364   6.384  0.2092  0.0774 -0.4892
16738SOL    HW160144   1.553  11.325   6.296  2.6293 -0.5609 -0.3137
16738SOL    HW260145   1.578  11.456   6.369 -1.5585  0.5481 -0.6133
16739SOL     OW60146   2.383   4.769  11.613 -0.0600 -0.4121 -0.2805
16739SOL    HW160147   2.449   4.749  11.679 -1.5100 -2.8225  0.5783
16739SOL    HW260148   2.394   4.701  11.546 -0.7423  0.0171 -0.8541
16740SOL     OW60149   3.766   0.422  13.034 -0.1859 -0.3656  0.3657
16740SOL    HW160150   3.798   0.498  12.985  1.0723 -1.8221 -1.1897
16740SOL    HW260151   3.672   0.421  13.019 -0.0477  0.2078 -0.6194
16741SOL     OW60152   1.440   9.186   8.014  0.1973  0.4854  0.4053
16741SOL    HW160153   1.377   9.126   7.976  0.2048  1.7307 -1.7131
16741SOL    HW260154   1.518   9.178   7.959  1.3673  0.1039  2.0457
16742SOL     OW60155   6.203  11.420   7.566  0.1025 -0.0082  0.3656
16742SOL    HW160156   6.232  11.502   7.526  0.2085  0.3429  1.1422
16742SOL    HW260157   6.207  11.355   7.495 -2.0829  1.0915 -0.8669
16743SOL     OW60158   5.897  10.358   1.046 -0.1176  0.1851  0.2735
16743SOL    HW160159   5.967  10.418   1.073 -0.9895  0.3135  2.4838
16743SOL    HW260160   5.865  10.393   0.964  3.6932 -1.0002 -2.0090
16744SOL     OW60161   4.097   8.922   1.657 -0.2543  0.1146  0.3738
16744SOL    HW160162   4.115   8.934   1.750 -1.0445  0.5383  0.4839
16744SOL    HW260163   4.119   9.006   1.617  2.9116 -0.9167 -0.3277
16745SOL     OW60164   6.597  11.165  10.489 -0.4567  0.3538 -0.0630
16745SOL    HW160165   6.572  11.255  10.468  1.3327  1.2469  1.3540
16745SOL    HW260166   6.595  11.162  10.585  2.2846 -0.2212  0.0418
16746SOL     OW60167   5.046  10.594   5.998  0.3572  0.5161 -0.2318
16746SOL    HW160168   4.961  10.558   6.023  0.6377  0.1248  0.1633
16746SOL    HW260169   5.049  10.583   5.903  0.2831 -0.1693 -0.1614
16747SOL     OW60170   1.889   9.617   0.432  0.1504 -0.2839 -0.0953
16747SOL    HW160171   1.861   9.614   0.340  0.0214 -0.5003 -0.0505
16747SOL    HW260172   1.930   9.703   0.442 -1.7509  0.6444  0.1919
16748SOL     OW60173   0.723  11.874   2.798  0.6357  0.0811  0.9010
16748SOL    HW160174   0.678  11.928   2.733  0.0665 -1.2018  0.1954
16748SOL    HW260175   0.779  11.935   2.845  0.8880  1.0812 -0.6420
16749SOL     OW60176   3.392   1.768  11.232  0.3083 -0.6060  0.2412
16749SOL    HW160177   3.374   1.789  11.323 -1.0313  0.5429 -0.2528
16749SOL    HW260178   3.313   1.723  11.202  0.0114  0.5695 -0.8031
16750SOL     OW60179   0.287   5.895   7.612 -0.3825 -0.2729 -0.4904
16750SOL    HW160180   0.320   5.985   7.607  0.9834 -0.7316 -0.1717
16750SOL    HW260181   0.247   5.879   7.526 -0.2650  0.4996 -0.6922
16751SOL     OW60182   3.471   2.781   1.711  0.3659 -0.1730  0.2644
16751SOL    HW160183   3.424   2.751   1.633 -1.9873  1.0912  1.1202
16751SOL    HW260184   3.507   2.866   1.685  0.6738 -0.3264  0.1797
16752SOL     OW60185   6.134  13.248   4.448  0.3906 -0.1916  0.3765
16752SOL    HW160186   6.131  13.154   4.432  0.7931 -0.4153  1.5088
16752SOL    HW260187   6.153  13.287   4.362  0.4780 -1.1579 -0.0516
16753SOL     OW60188   2.452   0.421  12.500 -0.1299  0.0486  0.8387
16753SOL    HW160189   2.395   0.407  12.576 -1.0132  0.3406  0.2519
16753SOL    HW260190   2.465   0.515  12.497  0.6513 -0.0406  1.1408
16754SOL     OW60191   0.801   2.920  10.682  0.0601 -0.2592  0.0354
16754SOL    HW160192   0.878   2.941  10.735  0.8850 -1.1124 -0.7860
16754SOL    HW260193   0.791   2.995  10.624  0.2423 -0.1151  0.1884
16755SOL     OW60194   6.419   3.721  12.386 -0.3323  0.0064  0.9062
16755SOL    HW160195   6.455   3.749  12.302 -2.4617  0.9528  0.2201
16755SOL    HW260196   6.463   3.638  12.405  1.0346  0.3480 -0.5467
16756SOL     OW60197   9.773   2.231   3.003  0.4718  0.3072  0.2543
16756SOL    HW160198   9.756   2.150   3.050  0.9669  0.6223  0.9914
16756SOL    HW260199   9.731   2.299   3.056  2.4839  0.8813  1.2087
16757SOL     OW60200   1.373   6.787  12.664 -0.4088 -0.5214  0.7707
16757SOL    HW160201   1.438   6.815  12.600 -1.0400  1.0690  0.7886
16757SOL    HW260202   1.379   6.691  12.663  0.2811 -0.5050 -0.9328
16758SOL     OW60203   3.177   2.541   8.655 -0.4183 -0.1031 -0.3705
16758SOL    HW160204   3.190   2.636   8.652 -0.6432 -0.0857 -0.9328
16758SOL    HW260205   3.086   2.530   8.683 -0.8282 -0.1184 -1.6515
16759SOL     OW60206   3.668   7.235   9.918 -0.4101  0.3482 -0.1278
16759SOL    HW160207   3.698   7.312   9.868  0.2146  1.0222  1.2408
16759SOL    HW260208   3.573   7.235   9.907 -0.1975 -0.3545 -2.4681
16760SOL     OW60209   9.879   4.752   0.185 -0.0880  0.7325  0.6735
16760SOL    HW160210   9.897   4.802   0.105  0.7983 -0.2432  0.2475
16760SOL    HW260211   9.884   4.817   0.255  0.4368  1.3586  0.0684
16761SOL     OW60212   2.922   3.991   4.194  0.0496 -0.0317 -0.4900
16761SOL    HW160213   2.930   3.926   4.125 -0.0575 -0.0086 -0.5237
16761SOL    HW260214   2.846   3.965   4.245  0.3833 -0.2964 -0.1147
16762SOL     OW60215   1.278   3.058   2.548 -0.2022 -0.1186 -0.0300
16762SOL    HW160216   1.307   3.149   2.537 -2.9079  0.9176  0.6149
16762SOL    HW260217   1.193   3.065   2.593 -0.4748 -2.9817  0.0756
16763SOL     OW60218  12.978   3.599   3.475  0.0418  0.1705  0.0239
16763SOL    HW160219  13.023   3.684   3.477  0.9653 -0.3094  0.1517
16763SOL    HW260220  12.892   3.619   3.438 -0.9906  1.7006  2.9357
16764SOL     OW60221   4.768  12.802   3.701 -0.2305  0.0308  0.1436
16764SOL    HW160222   4.715  12.782   3.624  2.0069 -0.9317 -1.2646
16764SOL    HW260223   4.728  12.880   3.738 -2.1910 -0.2683 -1.2118
16765SOL     OW60224   6.393   5.095   6.286  0.6890  0.7203 -0.0419
16765SOL    HW160225   6.352   5.173   6.249 -1.8919 -0.6173 -0.2575
16765SOL    HW260226   6.469   5.078   6.230 -0.0091  1.8075 -1.3753
16766SOL     OW60227   6.587   5.467   6.209 -0.6964 -0.0263 -0.0112
16766SOL    HW160228   6.504   5.432   6.242 -0.8581 -0.9548 -1.3323
16766SOL    HW260229   6.563   5.522   6.135 -0.1603 -0.1647 -0.2958
16767SOL     OW60230  11.489   7.223   6.909 -0.0208  0.2609  0.2777
16767SOL    HW160231  11.449   7.204   6.995  0.8025  0.3245  0.6838
16767SOL    HW260232  11.431   7.179   6.846 -0.7504  0.3851  0.8470
16768SOL     OW60233   4.747   0.908   8.687  0.0020  0.2192 -0.4460
16768SOL    HW160234   4.705   0.838   8.637  0.3714 -1.5483  1.6014
16768SOL    HW260235   4.812   0.864   8.741  1.4519  2.3740 -0.3093
16769SOL     OW60236   9.483   8.576   7.719  0.0753  0.4310  0.0251
16769SOL    HW160237   9.573   8.592   7.746  0.3171 -0.9655  0.0933
16769SOL    HW260238   9.479   8.608   7.629  0.5200  0.8722  0.1566
16770SOL     OW60239   9.325   2.506  10.841  0.2443  0.4787  0.1222
16770SOL    HW160240   9.234   2.531  10.829 -0.1977 -0.4831  1.2743
16770SOL    HW260241   9.342   2.444  10.770  0.5514  1.9470 -1.1343
16771SOL     OW60242   1.871  10.832   4.101 -0.4710 -0.1079  0.0197
16771SOL    HW160243   1.834  10.895   4.039  0.8022 -0.3560 -1.0281
16771SOL    HW260244   1.874  10.879   4.184  0.5511  1.2680 -0.7678
16772SOL     OW60245  11.501  12.561  11.791 -0.3245 -0.1079 -0.0321
16772SOL    HW160246  11.508  12.615  11.712 -2.1469  0.7510  0.3589
16772SOL    HW260247  11.529  12.618  11.862  0.1725 -0.5113  0.1064
16773SOL     OW60248   6.643   0.946   7.409  0.1527 -0.3097  0.1158
16773SOL    HW160249   6.604   0.994   7.482 -0.0359  0.0991 -0.2472
16773SOL    HW260250   6.578   0.880   7.387  0.5305 -0.9177  0.7924
16774SOL     OW60251   8.948   6.487   2.090 -0.2881 -0.5518  0.1509
16774SOL    HW160252   8.902   6.511   2.009 -0.5262 -0.8576  0.1961
16774SOL    HW260253   8.910   6.545   2.157 -0.9227 -1.1113  0.2757
16775SOL     OW60254   4.349   2.081   4.144 -0.6954  0.4926  0.0598
16775SOL    HW160255   4.420   2.018   4.160  0.0144  1.0757 -0.7042
16775SOL    HW260256   4.313   2.055   4.059  0.3537  1.7794 -0.8092
16776SOL     OW60257   5.575   1.150  12.384 -1.2554  0.2832 -0.2066
16776SOL    HW160258   5.580   1.056  12.369 -0.0675  0.7168 -3.1928
16776SOL    HW260259   5.483   1.172  12.369 -1.6298 -0.4075  0.9369
16777SOL     OW60260   1.190  10.363  10.785  0.0033  0.5445 -0.5818
16777SOL    HW160261   1.205  10.381  10.878 -1.5428  2.3391 -0.6080
16777SOL    HW260262   1.219  10.443  10.741  2.9791 -1.1478 -1.9750
16778SOL     OW60263  11.836   2.339   1.789  0.7236 -0.0542 -0.3204
16778SOL    HW160264  11.792   2.312   1.709  1.7133 -1.8377 -0.3113
16778SOL    HW260265  11.787   2.296   1.859  0.2874  0.9302 -0.0015
16779SOL     OW60266  11.875   1.694   1.003 -0.4571 -0.0503 -0.6550
16779SOL    HW160267  11.920   1.681   1.086  1.1475 -1.1452 -1.6588
16779SOL    HW260268  11.900   1.782   0.976 -0.3197 -0.0035 -0.3843
16780SOL     OW60269   3.515   8.995   7.029 -0.1236 -0.4154 -0.1644
16780SOL    HW160270   3.436   9.003   6.976  0.1309  0.0682 -0.4695
16780SOL    HW260271   3.567   8.928   6.985  0.0936 -0.0051 -0.5404
16781SOL     OW60272   4.826   5.940  12.129 -0.2002  0.8674 -0.0502
16781SOL    HW160273   4.775   5.931  12.209  2.4430 -0.2637  1.6639
16781SOL    HW260274   4.769   5.906  12.060 -1.6551 -0.6224  1.7712
16782SOL     OW60275   5.702   7.119  12.975  0.3021  0.2367  0.2508
16782SOL    HW160276   5.615   7.118  12.935  1.2184  0.0563 -1.8872
16782SOL    HW260277   5.691   7.169  13.056 -1.6364  0.8251 -0.3283
16783SOL     OW60278  10.227   7.102   0.299  0.6470 -0.3156  0.1133
16783SOL    HW160279  10.200   7.119   0.389  0.4996 -0.2992  0.0665
16783SOL    HW260280  10.234   7.007   0.293  0.7072 -0.3138  0.1562
16784SOL     OW60281   3.425   8.709   7.685 -0.0624 -0.0131 -0.5897
16784SOL    HW160282   3.348   8.652   7.677 -0.0704 -0.4495  1.8049
16784SOL    HW260283   3.496   8.659   7.644 -0.5419 -0.7032 -0.6005
16785SOL     OW60284  12.311   5.411   2.864 -0.3242 -0.2031 -0.1374
16785SOL    HW160285  12.230   5.443   2.904 -0.4514 -1.8974  1.0634
16785SOL    HW260286  12.335   5.479   2.801 -0.8655  1.9779  1.8516
16786SOL     OW60287   2.872   5.353   2.424  0.1315  0.3610  0.2767
16786SOL    HW160288   2.912   5.337   2.338 -0.6516 -0.2906  0.0101
16786SOL    HW260289   2.818   5.276   2.439 -1.4399  1.4291  0.3619
16787SOL     OW60290   1.166   4.728   3.048 -0.2041 -0.2211  0.3065
16787SOL    HW160291   1.240   4.743   3.107 -0.2777 -0.1284  0.3745
16787SOL    HW260292   1.089   4.747   3.100 -0.2549  0.2591  0.0583
16788SOL     OW60293   7.910   2.899  11.799  0.1533  0.1307 -0.5077
16788SOL    HW160294   7.996   2.932  11.823 -1.3526  2.5928  2.1772
16788SOL    HW260295   7.880   2.956  11.728 -0.6847  1.8787  1.1587
16789SOL     OW60296   1.997   4.614   6.155  0.1954 -0.5095 -0.8941
16789SOL    HW160297   1.973   4.631   6.247  0.0216  1.4262 -1.2517
16789SOL    HW260298   2.092   4.626   6.153  0.0477  0.7904 -1.1887
16790SOL     OW60299   1.183   3.116   8.897  0.3197  0.2042 -0.0532
16790SOL    HW160300   1.215   3.200   8.930 -0.4120 -0.3717  2.3503
16790SOL    HW260301   1.088   3.125   8.896  0.2970  0.1766 -2.1452
16791SOL     OW60302  10.427  11.808   0.849 -0.4831  0.3276 -0.1188
16791SOL    HW160303  10.412  11.874   0.782  0.9167  0.3427 -0.4620
16791SOL    HW260304  10.347  11.756   0.851 -1.2094  1.4015 -0.5657
16792SOL     OW60305   6.900  12.146   2.084 -0.2502  0.5054 -0.2462
16792SOL    HW160306   6.834  12.211   2.109 -0.6591 -0.0089  0.0193
16792SOL    HW260307   6.974  12.199   2.055 -0.9075  1.1019 -0.9261
16793SOL     OW60308   5.272   7.467   8.866  0.0233 -0.3137 -0.3458
16793SOL    HW160309   5.298   7.410   8.794 -0.1796  0.7002 -1.2487
16793SOL    HW260310   5.351   7.515   8.889 -0.4437  1.1297 -1.5716
16794SOL     OW60311   0.255   6.344   6.879  0.0936 -0.0124  0.4105
16794SOL    HW160312   0.245   6.362   6.973 -0.4363  0.2456  0.3030
16794SOL    HW260313   0.344   6.374   6.859  0.0168  0.4249  0.7112
16795SOL     OW60314  10.825   0.946  11.793 -0.2774 -0.1162 -0.2042
16795SOL    HW160315  10.867   1.032  11.802  0.7322 -0.4370 -1.5056
16795SOL    HW260316  10.894   0.883  11.814 -0.0348 -0.6566 -2.3928
16796SOL     OW60317   6.710   0.971   9.559 -0.5269 -0.0195  0.3736
16796SOL    HW160318   6.650   0.897   9.566 -0.2382 -0.2578  0.3715
16796SOL    HW260319   6.780   0.951   9.621 -0.7356  0.5338  0.7965
16797SOL     OW60320   0.645   0.371  11.415 -0.0312 -0.0411  0.1139
16797SOL    HW160321   0.657   0.443  11.353  4.0440 -0.0310  0.6348
16797SOL    HW260322   0.606   0.301  11.362  0.7593  0.8607 -1.7793
16798SOL     OW60323  11.499   8.442   2.868  0.1000  0.4190 -0.6659
16798SOL    HW160324  11.536   8.444   2.780 -1.8912  2.1299 -1.5396
16798SOL    HW260325  11.530   8.360   2.906 -0.2219 -1.1185 -3.5132
16799SOL     OW60326  12.727  12.991   5.484  0.1601 -0.2760  0.4713
16799SOL    HW160327  12.644  13.037   5.498  0.8924  1.4918 -0.6439
16799SOL    HW260328  12.751  12.958   5.571 -1.0031  0.4064  1.0771
16800SOL     OW60329   4.874   2.134   1.164  0.3289 -0.6142  0.4408
16800SOL    HW160330   4.965   2.130   1.192  0.6061 -0.5256 -0.4014
16800SOL    HW260331   4.853   2.045   1.137  0.4713 -0.4486 -0.2480
16801SOL     OW60332   1.339   0.655   9.534 -0.0418  0.3589  0.3640
16801SOL    HW160333   1.326   0.646   9.628  0.9304 -2.4208  0.3131
16801SOL    HW260334   1.284   0.587   9.495  0.3009  0.8448 -1.0283
16802SOL     OW60335   5.055   3.230   6.574  0.3429 -0.5155 -0.2521
16802SOL    HW160336   5.055   3.154   6.515 -1.5803  0.2444 -1.3260
16802SOL    HW260337   4.963   3.249   6.588  0.7846  1.1554  0.6381
16803SOL     OW60338   7.752   8.393   7.863 -0.4310  0.0053 -0.3049
16803SOL    HW160339   7.808   8.320   7.890 -2.1432 -1.4294 -0.4168
16803SOL    HW260340   7.778   8.410   7.772 -0.0121 -0.4729 -0.2825
16804SOL     OW60341   1.884   5.551   0.774  0.7971  0.3004  0.2179
16804SOL    HW160342   1.855   5.497   0.847  2.6391 -1.9261 -0.5645
16804SOL    HW260343   1.954   5.606   0.810 -0.2731  1.3604  0.7411
16805SOL     OW60344   0.370   2.714   9.349 -0.6306 -0.2051 -0.3666
16805SOL    HW160345   0.317   2.778   9.397 -1.9203 -2.1852  1.0281
16805SOL    HW260346   0.460   2.746   9.357 -1.0739  0.7133  1.5015
16806SOL     OW60347  10.887  13.227  12.138  0.2614 -0.1816  0.7214
16806SOL    HW160348  10.869  13.320  12.153  2.7873  0.6064 -0.5664
16806SOL    HW260349  10.931  13.198  12.217 -1.8523 -0.7577  1.7555
16807SOL     OW60350   0.644  10.910  13.081  0.5902  0.8663  0.2513
16807SOL    HW160351   0.638  10.982  13.143  0.4110  1.1963 -0.1520
16807SOL    HW260352   0.584  10.932  13.011  1.1033  0.6981 -0.2508
16808SOL     OW60353   0.927  11.224   1.302 -1.1907 -0.2189 -0.5765
16808SOL    HW160354   0.897  11.141   1.339  0.6813 -0.2471  1.0268
16808SOL    HW260355   0.957  11.202   1.214 -0.0287 -1.4206  0.0880
16809SOL     OW60356   6.024   3.521   9.098  0.0859  0.6400 -0.6182
16809SOL    HW160357   6.056   3.524   9.188  0.7496  0.1196 -0.8258
16809SOL    HW260358   5.943   3.472   9.103  1.4342 -1.7307 -0.6394
16810SOL     OW60359  10.277  10.642   0.978  0.3287 -0.4534  0.1635
16810SOL    HW160360  10.355  10.591   0.955  1.4417  1.3784 -0.2801
16810SOL    HW260361  10.267  10.630   1.072  1.5117 -0.2354  0.3279
16811SOL     OW60362  12.835   7.589   8.780  0.0857 -0.2720  0.0484
16811SOL    HW160363  12.856   7.518   8.718 -0.1894  0.3311 -0.7567
16811SOL    HW260364  12.792   7.545   8.853 -0.4019 -0.9089 -0.5993
16812SOL     OW60365   6.340  10.604   1.213 -0.1843 -0.2830 -0.0927
16812SOL    HW160366   6.320  10.645   1.297 -0.3378 -0.4089 -0.0691
16812SOL    HW260367   6.273  10.537   1.202 -0.1099 -0.3271 -0.2734
16813SOL     OW60368  12.623   4.114   0.552  1.0222  0.8511  0.0015
16813SOL    HW160369  12.711   4.078   0.547  2.6427  4.4488 -1.0066
16813SOL    HW260370  12.636   4.209   0.562 -2.7016  1.7413 -1.6055
16814SOL     OW60371   8.696   1.033   1.934 -0.0415  0.1681 -0.2499
16814SOL    HW160372   8.621   1.020   1.875 -0.6990  0.9376  0.3951
16814SOL    HW260373   8.660   1.083   2.007  0.3775 -2.0887  1.6220
16815SOL     OW60374   7.735   7.028  10.719 -0.4454 -0.1766 -0.1024
16815SOL    HW160375   7.780   6.966  10.776  0.2978  0.2744 -0.1803
16815SOL    HW260376   7.658   7.056  10.768  0.9785  1.3889  1.3889
16816SOL     OW60377   1.421   4.946  11.994  0.2104 -0.0545  0.3950
16816SOL    HW160378   1.336   4.915  12.027  0.1614  1.2624  1.6270
16816SOL    HW260379   1.473   4.867  11.984 -1.3614 -0.9612 -1.0402
16817SOL     OW60380  11.739  11.538   9.942  0.2959  0.0934  0.3798
16817SOL    HW160381  11.736  11.627   9.978 -0.5993  0.3269 -0.2434
16817SOL    HW260382  11.771  11.550   9.853  0.0531 -0.1999  0.2546
16818SOL     OW60383   2.893  12.408  10.476  0.0538 -0.7054 -0.0586
16818SOL    HW160384   2.961  12.429  10.540 -0.3304  1.5329 -0.3031
16818SOL    HW260385   2.937  12.417  10.392 -0.3126 -0.0873 -0.1895
16819SOL     OW60386   2.440   0.218  11.632 -0.3953 -0.7461  0.6795
16819SOL    HW160387   2.518   0.164  11.626 -0.4700 -1.0946  2.3978
16819SOL    HW260388   2.469   0.298  11.675 -1.2279 -1.5377  2.8678
16820SOL     OW60389   7.739  11.449   9.497 -0.4971  0.3611  0.0210
16820SOL    HW160390   7.687  11.432   9.575 -1.1811  0.1159 -0.4822
16820SOL    HW260391   7.679  11.437   9.424  0.3003 -0.0841 -0.5822
16821SOL     OW60392  13.127   9.847   5.359 -0.3988 -0.3649  0.3091
16821SOL    HW160393  13.143   9.877   5.448  0.5081 -2.5337  0.9269
16821SOL    HW260394  13.073   9.769   5.369  1.1212 -1.6287 -0.8973
16822SOL     OW60395   7.836   7.853   7.734 -0.1826 -0.4244  0.2226
16822SOL    HW160396   7.762   7.896   7.692  0.8688  1.0532 -0.1630
16822SOL    HW260397   7.909   7.913   7.722  0.4181 -0.3851  3.2904
16823SOL     OW60398  11.853   4.105  13.123 -0.7958 -0.3632  0.1047
16823SOL    HW160399  11.872   4.191  13.162 -1.7709 -0.6562  1.2886
16823SOL    HW260400  11.780   4.122  13.063  0.9314  0.1557 -1.9876
16824SOL     OW60401   1.141   6.860   8.570 -0.9343  0.2484 -0.3901
16824SOL    HW160402   1.232   6.831   8.572 -1.3870 -1.2435  0.4649
16824SOL    HW260403   1.090   6.779   8.576 -2.3587  0.9105 -2.3756
16825SOL     OW60404   3.279   3.319   6.716  0.3806  0.3196 -0.1152
16825SOL    HW160405   3.335   3.361   6.650 -0.3716 -0.2707 -1.1526
16825SOL    HW260406   3.275   3.227   6.689 -1.6705  0.4828 -0.5044
16826SOL     OW60407   1.782   8.352   7.252  0.3350 -0.4950  0.4980
16826SOL    HW160408   1.876   8.368   7.259 -0.0055  2.0242  0.3022
16826SOL    HW260409   1.764   8.352   7.158 -0.0726  0.6652  0.5630
16827SOL     OW60410   6.537   9.756   1.798 -0.4460 -0.1512 -0.0731
16827SOL    HW160411   6.585   9.679   1.770 -0.6764 -0.0467 -0.7645
16827SOL    HW260412   6.534   9.749   1.893  0.2962 -0.5361 -0.0716
16828SOL     OW60413   4.508   6.899   3.943  0.4419  0.4799  0.1546
16828SOL    HW160414   4.543   6.835   4.005  0.8428  0.4820 -0.0680
16828SOL    HW260415   4.414   6.881   3.941  0.4008  0.5796  0.8765
16829SOL     OW60416  12.271   7.395   9.619  0.6015  0.2229  0.5467
16829SOL    HW160417  12.292   7.365   9.708 -0.1901 -1.9698  0.0672
16829SOL    HW260418  12.181   7.428   9.627 -0.3596 -2.1101  0.1898
16830SOL     OW60419  12.630   9.886   6.935  0.5779  0.8400 -0.7996
16830SOL    HW160420  12.537   9.904   6.954  0.1643 -1.4366 -0.3717
16830SOL    HW260421  12.628   9.822   6.864  1.7574 -0.0893 -0.0370
16831SOL     OW60422   1.331   4.090   9.310 -0.1543 -0.3344  0.6583
16831SOL    HW160423   1.325   4.006   9.264 -0.8531  0.7435 -1.3582
16831SOL    HW260424   1.381   4.146   9.250  0.7058  0.5819  2.1776
16832SOL     OW60425   7.113   7.258   0.498 -0.3790 -0.0605  0.5101
16832SOL    HW160426   7.117   7.202   0.421  0.3777  0.4488  0.1729
16832SOL    HW260427   7.200   7.297   0.504 -0.0148 -1.0265  2.3145
16833SOL     OW60428   9.941  10.869  12.395 -0.1648  0.3014  0.0217
16833SOL    HW160429   9.951  10.949  12.344 -2.1280  1.3210  1.1347
16833SOL    HW260430   9.981  10.889  12.480  1.0756 -0.6062 -0.3214
16834SOL     OW60431   8.536   3.292   7.231  0.4064  0.4320  0.2344
16834SOL    HW160432   8.468   3.339   7.281 -1.4456 -0.0201 -1.7314
16834SOL    HW260433   8.534   3.203   7.266  1.3539  0.8427  1.4391
16835SOL     OW60434   6.219  10.060   3.753  0.5378 -0.0941  0.0597
16835SOL    HW160435   6.131  10.098   3.749  1.1877  1.6612  1.0461
16835SOL    HW260436   6.215   9.998   3.826 -0.1865 -0.9527 -0.6895
16836SOL     OW60437  11.275   4.472   7.338 -0.3155 -0.5616 -0.5415
16836SOL    HW160438  11.302   4.393   7.384 -2.0430  0.3276  2.3224
16836SOL    HW260439  11.181   4.462   7.325 -1.1163  1.8524  2.1442
16837SOL     OW60440   6.328  10.001   2.761 -0.5223  0.2567 -0.0862
16837SOL    HW160441   6.411   9.964   2.731 -0.2079  1.1069 -0.3114
16837SOL    HW260442   6.330   9.991   2.856 -1.0150 -1.4279 -0.2303
16838SOL     OW60443  12.658   2.717   2.161  0.3970  0.3798 -0.2764
16838SOL    HW160444  12.580   2.679   2.203  0.5923  1.4054  1.0737
16838SOL    HW260445  12.672   2.800   2.207  0.6354  1.5879 -2.3880
16839SOL     OW60446   6.338   8.206  11.452  0.1383 -0.4384  0.5681
16839SOL    HW160447   6.278   8.216  11.378 -0.1119 -1.6122  0.6015
16839SOL    HW260448   6.334   8.291  11.497 -1.3905 -0.4365  0.4796
16840SOL     OW60449   1.892   7.042   1.608 -0.2721 -0.2317 -0.3770
16840SOL    HW160450   1.891   6.995   1.525  0.1408 -1.6585  0.4002
16840SOL    HW260451   1.975   7.016   1.649 -0.4469  0.4995  0.4670
16841SOL     OW60452  11.874   9.795   4.175 -0.6411  0.0075  0.0662
16841SOL    HW160453  11.874   9.856   4.249  0.8419 -0.6306  0.6358
16841SOL    HW260454  11.882   9.851   4.098 -2.5997  0.7069  0.3158
16842SOL     OW60455   5.556   6.509   4.211 -0.2760 -0.6983  0.1286
16842SOL    HW160456   5.499   6.450   4.163 -1.5369  0.4215  0.1848
16842SOL    HW260457   5.534   6.494   4.303 -0.9283  0.1316  0.1260
16843SOL     OW60458   2.935   5.994   4.470 -0.0719  0.0188  0.1232
16843SOL    HW160459   2.995   5.930   4.430 -0.3335 -0.0220 -0.2056
16843SOL    HW260460   2.875   5.941   4.522 -0.1015  0.0184  0.0892
16844SOL     OW60461   9.740  13.149  10.073  0.1959  0.0343 -0.3473
16844SOL    HW160462   9.798  13.147  10.149  0.6044 -0.8456 -0.6728
16844SOL    HW260463   9.788  13.199  10.007  0.8554 -1.1666 -0.8096
16845SOL     OW60464  12.035   4.782   8.219 -0.0516  0.5331  0.8635
16845SOL    HW160465  11.954   4.751   8.180 -0.3791  0.8666  1.2700
16845SOL    HW260466  12.104   4.736   8.171 -0.5193 -1.3745  1.8958
16846SOL     OW60467   9.786  12.403   8.760 -0.0688  0.3337 -0.2557
16846SOL    HW160468   9.705  12.453   8.760  0.7168  1.6786 -1.5382
16846SOL    HW260469   9.840  12.445   8.827  0.1151  0.3838 -0.4346
16847SOL     OW60470  12.930   0.625   2.540 -0.1732  0.3287  1.0075
16847SOL    HW160471  12.841   0.644   2.511 -0.3285 -1.0821  0.4664
16847SOL    HW260472  12.986   0.653   2.468 -0.5087 -2.5319 -0.4848
16848SOL     OW60473   1.140   8.692   4.627  0.0053  0.1313 -0.1510
16848SOL    HW160474   1.090   8.617   4.657 -0.1220  0.6490  0.9931
16848SOL    HW260475   1.074   8.754   4.596  0.0892 -0.1083 -0.8056
16849SOL     OW60476   9.082  10.561  11.416 -0.2930 -0.1232  0.2117
16849SOL    HW160477   9.068  10.468  11.401 -0.7857  0.1254 -0.9552
16849SOL    HW260478   9.128  10.591  11.338  0.5578  0.4712  0.9187
16850SOL     OW60479   6.235   9.931   5.986 -0.0187  0.4385 -0.3345
16850SOL    HW160480   6.249   9.904   6.077  0.8017 -0.2152 -0.6381
16850SOL    HW260481   6.141   9.921   5.972 -0.3087  1.4443  0.7103
16851SOL     OW60482   6.727   3.908   7.944 -0.2750 -0.1402  0.8427
16851SOL    HW160483   6.770   3.987   7.911  0.3771 -1.0307 -0.5158
16851SOL    HW260484   6.637   3.936   7.965 -0.3546  0.7357 -0.5916
16852SOL     OW60485  11.328  11.927   7.755 -0.3191  0.3595  0.1179
16852SOL    HW160486  11.329  11.881   7.839 -0.3889 -0.5569 -0.3611
16852SOL    HW260487  11.291  12.013   7.774 -0.6028  0.0587  0.9704
16853SOL     OW60488   7.580  10.736   9.765 -0.5331  0.7086  0.5299
16853SOL    HW160489   7.615  10.751   9.853 -1.1118  1.8982  0.5805
16853SOL    HW260490   7.533  10.817   9.744  1.3638  1.3456 -1.7234
16854SOL     OW60491   0.393  11.363   1.282  0.4702  0.2953  0.4484
16854SOL    HW160492   0.368  11.446   1.321 -1.0181  1.4032 -2.5672
16854SOL    HW260493   0.482  11.347   1.315  0.8901  3.1490  0.9757
16855SOL     OW60494  10.828   0.319   1.544 -0.0346 -0.6466 -0.3233
16855SOL    HW160495  10.867   0.407   1.547  0.9426 -0.9997 -1.6998
16855SOL    HW260496  10.742   0.329   1.585 -0.1716  1.0809 -0.9702
16856SOL     OW60497  10.771  10.195   8.729  0.1728  0.3798  0.2992
16856SOL    HW160498  10.827  10.172   8.802 -2.0757 -1.1658  1.6712
16856SOL    HW260499  10.789  10.129   8.662  0.3240  0.1670  0.5487
16857SOL     OW60500   3.648   1.147   7.431  0.3475 -0.1139  0.0103
16857SOL    HW160501   3.673   1.070   7.483 -1.6519 -1.2378 -0.5940
16857SOL    HW260502   3.584   1.193   7.485 -1.3553 -1.0102 -1.1520
16858SOL     OW60503   0.517   7.724   3.974 -0.0448  0.1251  0.3270
16858SOL    HW160504   0.566   7.798   3.938 -0.7368 -1.2288 -4.0071
16858SOL    HW260505   0.579   7.651   3.971 -0.4936 -0.2774  0.8194
16859SOL     OW60506   3.192   1.790   2.680  0.1024 -0.0535 -0.1319
16859SOL    HW160507   3.244   1.737   2.741 -0.0467 -0.9057 -0.7243
16859SOL    HW260508   3.118   1.822   2.733  1.0790  0.9850  0.6581
16860SOL     OW60509   6.701   2.939   2.141  0.3231  0.3476  0.5393
16860SOL    HW160510   6.695   2.860   2.087 -0.8975  0.6201  0.2269
16860SOL    HW260511   6.794   2.958   2.147  0.5215  0.2417 -1.4040
16861SOL     OW60512   7.932  11.384   0.757  0.1095  0.2834 -0.3933
16861SOL    HW160513   7.964  11.396   0.847 -0.2014 -0.7363 -0.1375
16861SOL    HW260514   7.926  11.289   0.746 -0.9848  0.4236 -1.0989
16862SOL     OW60515  10.550   1.197  10.504  0.0589 -0.3715 -0.2443
16862SOL    HW160516  10.517   1.212  10.415 -0.1992  2.1004  0.1852
16862SOL    HW260517  10.544   1.283  10.546  2.5771 -0.8959  1.3869
16863SOL     OW60518   2.692   5.485   9.832  0.3005  0.1240  0.4936
16863SOL    HW160519   2.786   5.500   9.838  0.2155  2.4740 -1.9482
16863SOL    HW260520   2.653   5.571   9.848 -1.3881 -0.6549  0.7714
16864SOL     OW60521   9.859   8.308   4.214 -0.2926  0.8335  0.1038
16864SOL    HW160522   9.819   8.322   4.299 -1.3055  0.0674 -0.2239
16864SOL    HW260523   9.952   8.323   4.228 -0.3131 -0.1634  1.5606
16865SOL     OW60524   4.410  10.904   6.643 -0.3046  0.0460 -0.0727
16865SOL    HW160525   4.376  10.938   6.726 -0.4660 -0.3032  0.0084
16865SOL    HW260526   4.368  10.818   6.634 -0.0545 -0.0452 -0.3666
16866SOL     OW60527   5.033   0.883   4.558  0.0263 -0.2273 -0.0687
16866SOL    HW160528   4.983   0.826   4.617 -1.1353 -0.7681 -1.5013
16866SOL    HW260529   4.978   0.889   4.480  0.8467  1.6358 -0.5422
16867SOL     OW60530   1.648   8.756   8.407  0.1132 -0.3862 -0.1372
16867SOL    HW160531   1.663   8.839   8.362 -0.2441 -0.0396  0.3650
16867SOL    HW260532   1.705   8.761   8.484 -0.9869  0.0408  0.6770
16868SOL     OW60533   6.533   3.627   2.614  0.2449  0.0914 -0.2624
16868SOL    HW160534   6.453   3.641   2.564 -0.0845 -1.5628 -0.2470
16868SOL    HW260535   6.603   3.655   2.556 -0.2146 -0.5663 -1.1493
16869SOL     OW60536   8.910  10.735   1.113 -0.5231  0.0565  0.3310
16869SOL    HW160537   8.892  10.767   1.201 -1.2599 -2.4460  1.1930
16869SOL    HW260538   8.992  10.687   1.121  0.2174  1.0857 -0.7433
16870SOL     OW60539  11.094   3.970  10.270  0.0377 -0.0772 -0.3014
16870SOL    HW160540  11.013   4.016  10.247  0.2012 -0.3874 -1.5630
16870SOL    HW260541  11.137   3.953  10.187  0.4040 -1.7374  0.1765
16871SOL     OW60542  10.959   1.377   0.159 -0.4172 -0.0838  0.1208
16871SOL    HW160543  11.040   1.367   0.109  0.1329  1.6813  0.5919
16871SOL    HW260544  10.908   1.441   0.109 -0.9001 -0.1013  0.5887
16872SOL     OW60545   9.412  12.855   6.923 -0.1656  0.1608 -0.1240
16872SOL    HW160546   9.415  12.950   6.928  0.7014  0.1220  0.2015
16872SOL    HW260547   9.499  12.826   6.951  0.2314 -0.6430 -1.9943
16873SOL     OW60548   8.781   9.114   8.617  0.0758 -0.2988 -0.2156
16873SOL    HW160549   8.706   9.162   8.584  0.2011  1.2654  1.5988
16873SOL    HW260550   8.807   9.057   8.545 -1.0801  1.2025 -1.9059
16874SOL     OW60551   1.009  12.428   8.558 -0.5400 -0.1816  0.0377
16874SOL    HW160552   1.090  12.390   8.592 -0.3845 -0.6363 -0.8130
16874SOL    HW260553   0.992  12.503   8.615 -0.9297 -1.5799  1.8449
16875SOL     OW60554  10.874  13.003  10.313 -0.6288  0.2901 -0.0432
16875SOL    HW160555  10.794  12.968  10.351 -0.5257  0.1604  0.0608
16875SOL    HW260556  10.867  13.098  10.322 -0.4269  0.2442  0.6726
16876SOL     OW60557   2.007   9.032   3.641 -0.2019  0.5399  0.2588
16876SOL    HW160558   1.965   9.091   3.578  1.1320  1.1953 -0.0655
16876SOL    HW260559   2.039   8.959   3.588 -0.5953  0.2268  0.4483
16877SOL     OW60560   0.683   6.569   1.804 -0.3090  0.5723 -0.4388
16877SOL    HW160561   0.694   6.485   1.850 -0.5619  0.6708 -0.2009
16877SOL    HW260562   0.754   6.624   1.838  0.0577  0.3509 -0.8350
16878SOL     OW60563   4.620   2.675   6.024 -0.7596 -0.3107  0.4378
16878SOL    HW160564   4.651   2.715   6.105 -0.7014  0.4770  0.0317
16878SOL    HW260565   4.693   2.619   5.995 -0.1140  0.6987  0.0569
16879SOL     OW60566   0.105   2.840   1.387 -0.4478  0.1692 -0.5165
16879SOL    HW160567   0.156   2.759   1.378 -0.6869 -0.1715  0.8702
16879SOL    HW260568   0.014   2.809   1.395 -0.4904  0.5313  0.4855
16880SOL     OW60569   1.988   2.835   5.165 -0.9347 -0.3725  0.5954
16880SOL    HW160570   1.972   2.900   5.233 -0.0405 -0.3345  0.7792
16880SOL    HW260571   1.902   2.795   5.150 -1.4917  0.8360  0.4755
16881SOL     OW60572  10.525   6.183   6.240 -0.4662 -0.1982 -0.3900
16881SOL    HW160573  10.521   6.110   6.178  0.0123 -1.5263  1.0477
16881SOL    HW260574  10.614   6.177   6.277 -1.0862 -0.1578  1.1748
16882SOL     OW60575   5.229   8.610   2.433 -0.2636  0.1098 -0.0257
16882SOL    HW160576   5.208   8.636   2.523 -0.4080 -0.9073  0.2448
16882SOL    HW260577   5.319   8.577   2.437 -0.3957 -0.2773 -0.1759
16883SOL     OW60578   5.049  12.430  12.095 -0.3030 -0.2129  0.3404
16883SOL    HW160579   5.125  12.443  12.152  0.6895  0.7848 -1.1164
16883SOL    HW260580   5.077  12.364  12.032 -0.6206  0.1707 -0.2181
16884SOL     OW60581   6.910   9.473   6.029  0.0731 -0.5617 -0.1927
16884SOL    HW160582   6.937   9.513   5.946 -0.2409  0.2599  0.0900
16884SOL    HW260583   6.971   9.508   6.093  0.4456 -1.3614 -0.1048
16885SOL     OW60584   4.076  13.066   8.176  0.0084 -0.0337  0.2044
16885SOL    HW160585   4.114  13.023   8.100 -1.8638  0.5616 -1.1586
16885SOL    HW260586   3.990  13.024   8.186 -0.7368  1.4868  0.5040
16886SOL     OW60587   2.194  11.224   4.573 -0.5550  0.0482 -0.1136
16886SOL    HW160588   2.105  11.250   4.548 -1.1366  0.3671  2.0445
16886SOL    HW260589   2.182  11.145   4.626  0.6543 -1.0377 -1.3865
16887SOL     OW60590   9.081   3.606   0.274 -0.8682  0.1571  1.0060
16887SOL    HW160591   9.066   3.701   0.275 -0.4482  0.2194  1.2701
16887SOL    HW260592   9.022   3.574   0.205  1.9697  1.1207 -2.1760
16888SOL     OW60593  12.245   0.604   6.835  0.0853 -0.3985  0.0785
16888SOL    HW160594  12.230   0.595   6.741 -1.3356 -1.0499  0.3384
16888SOL    HW260595  12.335   0.574   6.848  0.4161  0.0267 -1.1075
16889SOL     OW60596   2.593  11.184  10.198 -0.5147 -0.0620  0.1756
16889SOL    HW160597   2.662  11.138  10.246 -0.6056  0.6522  1.0137
16889SOL    HW260598   2.562  11.252  10.258  0.0971  1.5736 -1.2689
16890SOL     OW60599  12.667   9.945  13.058 -0.1464 -0.0213  0.0629
16890SOL    HW160600  12.695   9.854  13.046  0.7102  0.1538  0.6737
16890SOL    HW260601  12.638   9.949  13.150 -3.9390 -0.6393 -0.9260
16891SOL     OW60602   3.081   5.198   8.427 -0.1012 -0.0245 -0.2569
16891SOL    HW160603   3.164   5.222   8.387 -0.1691  0.4909 -0.1017
16891SOL    HW260604   3.096   5.112   8.465  0.8505  0.7149  1.1447
16892SOL     OW60605   5.675   1.044  12.946 -0.2095  0.0091 -0.2804
16892SOL    HW160606   5.614   1.005  13.009  0.8263 -2.7814 -0.8529
16892SOL    HW260607   5.638   1.021  12.861  0.2874  0.5777 -0.6552
16893SOL     OW60608   6.916  10.016  10.334  0.6593 -0.1205  0.5326
16893SOL    HW160609   6.915   9.948  10.266  1.4628 -0.2047  0.5869
16893SOL    HW260610   7.009  10.029  10.353  0.4943  0.6782  0.8451
16894SOL     OW60611   7.238   5.555   3.265  0.8415 -0.2351  0.9304
16894SOL    HW160612   7.266   5.488   3.327  0.0399 -1.1139  0.3833
16894SOL    HW260613   7.195   5.506   3.195 -1.5941  0.9622  1.4635
16895SOL     OW60614  10.157   0.426   3.056  0.2755  0.0548  0.2711
16895SOL    HW160615  10.250   0.405   3.062  0.3795  0.7773  2.1303
16895SOL    HW260616  10.153   0.520   3.077 -0.8985 -0.0983  0.8397
16896SOL     OW60617   0.362   4.885   5.707  0.0979  0.1250 -0.1344
16896SOL    HW160618   0.390   4.964   5.661 -1.7868  2.5006  2.4479
16896SOL    HW260619   0.434   4.864   5.766  1.2040 -1.0502 -1.8202
16897SOL     OW60620   0.065  10.449   5.138 -0.5499 -0.0195  0.4201
16897SOL    HW160621   0.090  10.540   5.123  1.6276 -0.4020  1.2836
16897SOL    HW260622   0.124  10.420   5.207 -0.2895 -2.4757 -0.7538
16898SOL     OW60623   2.178   3.613   5.208 -0.1533 -0.0977  0.6541
16898SOL    HW160624   2.119   3.572   5.271 -0.6816  0.0140  0.2368
16898SOL    HW260625   2.126   3.682   5.167  0.3453  0.1768  0.4609
16899SOL     OW60626   8.593   3.572   6.828  0.8553 -0.2821 -0.9198
16899SOL    HW160627   8.518   3.595   6.774  1.3081 -0.7621 -1.7673
16899SOL    HW260628   8.558   3.512   6.894 -0.0808  1.7098  0.5208
16900SOL     OW60629   5.203   0.133   8.420  0.0371  0.8484 -0.5501
16900SOL    HW160630   5.197   0.178   8.336 -0.6427 -0.7951 -1.4305
16900SOL    HW260631   5.113   0.110   8.442  0.4887 -2.4210 -1.5401
16901SOL     OW60632   3.641   4.710   1.743 -0.5053  0.3541 -0.3487
16901SOL    HW160633   3.674   4.797   1.764  1.5981 -0.1195 -1.3463
16901SOL    HW260634   3.579   4.690   1.813  0.5314  1.8241  1.0774
16902SOL     OW60635   8.974  10.072   0.042 -0.2631 -0.7532 -0.1238
16902SOL    HW160636   8.885  10.101   0.020  0.6054  0.7691 -1.8651
16902SOL    HW260637   9.008  10.142   0.098  0.1784 -0.8560 -0.2661
16903SOL     OW60638   7.105   9.675   8.393 -0.2150 -0.4101 -0.6589
16903SOL    HW160639   7.029   9.643   8.442 -0.5982  1.5549  0.1110
16903SOL    HW260640   7.093   9.639   8.305 -1.4831 -1.0069 -0.2703
16904SOL     OW60641   6.290   2.698   5.486  0.2391 -0.9631 -0.3234
16904SOL    HW160642   6.380   2.730   5.480  0.9775 -2.8780  0.0517
16904SOL    HW260643   6.291   2.637   5.559 -1.3589 -1.0793 -0.3722
16905SOL     OW60644   4.391  12.922  11.421  0.6464  0.0150 -0.3869
16905SOL    HW160645   4.430  12.927  11.508  1.1248 -1.2348 -0.5144
16905SOL    HW260646   4.432  12.846  11.380 -2.6284 -2.0967 -0.1549
16906SOL     OW60647   3.705   0.688   6.628 -0.2305  0.2910 -0.3744
16906SOL    HW160648   3.782   0.640   6.597 -0.0526  0.0049  0.4751
16906SOL    HW260649   3.739   0.770   6.662 -0.2944  0.1715 -0.0128
16907SOL     OW60650   5.713   2.875   9.940 -0.0855 -0.1906  0.0327
16907SOL    HW160651   5.717   2.878   9.844  2.6115  2.0593  0.0828
16907SOL    HW260652   5.786   2.818   9.965 -1.4596 -1.7020  0.8194
16908SOL     OW60653   5.541  10.335   4.446 -0.6132 -0.4343  0.0993
16908SOL    HW160654   5.530  10.378   4.361 -1.6677  0.3027  0.5873
16908SOL    HW260655   5.618  10.279   4.435  1.1261  1.9181 -0.4440
16909SOL     OW60656   0.821  10.866   5.735 -0.3729  0.2959 -0.1331
16909SOL    HW160657   0.760  10.842   5.665  2.0876 -0.3543 -2.2223
16909SOL    HW260658   0.864  10.945   5.704  1.9009 -0.8790 -0.1957
16910SOL     OW60659   3.801  10.484   1.603  0.0240 -0.5318  0.2298
16910SOL    HW160660   3.719  10.443   1.633  0.6379 -2.1440 -0.1954
16910SOL    HW260661   3.773  10.544   1.534 -0.8554 -0.7826  0.3472
16911SOL     OW60662  11.065  10.435   4.914  0.6826  0.3389 -0.0589
16911SOL    HW160663  11.152  10.474   4.920  1.2060 -1.0089  2.1017
16911SOL    HW260664  11.022  10.457   4.996  0.4099 -2.1369  0.5568
16912SOL     OW60665  10.838   9.711   8.336 -0.1169  0.5123  0.0463
16912SOL    HW160666  10.809   9.753   8.417 -1.4835  0.4067 -0.3666
16912SOL    HW260667  10.919   9.665   8.361 -0.1466  1.0357  1.1753
16913SOL     OW60668   9.455   4.119   3.698  0.9350  0.1141  0.1618
16913SOL    HW160669   9.405   4.088   3.774 -1.1056 -0.2286 -1.2266
16913SOL    HW260670   9.395   4.107   3.625  1.9642  2.6356 -1.1786
16914SOL     OW60671   7.193   8.293   1.554 -0.2125 -0.2729 -0.5023
16914SOL    HW160672   7.273   8.310   1.604 -0.0349 -2.1541 -0.1062
16914SOL    HW260673   7.160   8.210   1.587 -2.3983  0.4621 -0.6069
16915SOL     OW60674   9.390   2.865  12.587  0.5243  0.1220  0.2922
16915SOL    HW160675   9.356   2.776  12.590 -0.9186  0.5880 -1.0090
16915SOL    HW260676   9.483   2.855  12.566 -0.0847 -1.0268 -2.1447
16916SOL     OW60677   6.849  13.174  12.959 -0.0892  0.8167  0.2375
16916SOL    HW160678   6.866  13.171  13.053  0.2474  0.2782  0.1656
16916SOL    HW260679   6.775  13.234  12.950  0.3299  1.4322  0.7747
16917SOL     OW60680   5.822   7.994   6.866 -0.0094  0.6503  0.1708
16917SOL    HW160681   5.836   7.908   6.826  1.0570  1.1948 -0.6615
16917SOL    HW260682   5.738   8.023   6.830  0.2823  0.5449 -0.6007
16918SOL     OW60683   9.998  10.705   4.228  0.4281 -0.2989 -0.4326
16918SOL    HW160684   9.935  10.749   4.171  1.1749 -1.5496 -2.3095
16918SOL    HW260685   9.946  10.642   4.277  0.0567 -0.6673 -1.2817
16919SOL     OW60686   8.888   4.489   2.242  0.0852 -0.3284  0.3486
16919SOL    HW160687   8.826   4.445   2.299  0.9698 -2.3549 -0.1433
16919SOL    HW260688   8.965   4.506   2.297 -0.2524  0.6527  0.5363
16920SOL     OW60689   6.014   5.017   0.477  0.0344 -0.2472 -0.2166
16920SOL    HW160690   5.936   4.967   0.455 -0.4376  0.6937 -0.7326
16920SOL    HW260691   5.991   5.065   0.557  0.1456 -0.1067 -0.2671
16921SOL     OW60692   3.779  11.653   5.491  0.0049  0.0586 -0.3778
16921SOL    HW160693   3.813  11.659   5.402 -1.6041  0.3481 -1.0145
16921SOL    HW260694   3.856  11.660   5.547  1.1986 -1.3063 -1.7461
16922SOL     OW60695   7.803   8.555   4.962 -0.3381  0.2834 -0.1701
16922SOL    HW160696   7.788   8.540   4.868  0.6131 -0.4824 -0.2185
16922SOL    HW260697   7.850   8.477   4.991 -0.0530  0.8077  0.8052
16923SOL     OW60698   0.032   9.855   8.021  0.1649  0.5467 -0.2110
16923SOL    HW160699   0.116   9.846   8.066 -0.1943 -0.2510  0.3322
16923SOL    HW260700  -0.011   9.770   8.035 -1.0846  1.2398  0.2469
16924SOL     OW60701   3.239   0.134  11.179 -0.0560 -0.5686 -0.1047
16924SOL    HW160702   3.318   0.185  11.160  0.3019 -1.7081 -1.9906
16924SOL    HW260703   3.232   0.134  11.275  0.8941  1.5036  0.0054
16925SOL     OW60704   8.860   4.078   8.099  0.2259  0.1358  0.0275
16925SOL    HW160705   8.896   4.133   8.029  1.2022 -0.1484  0.2867
16925SOL    HW260706   8.846   3.992   8.057 -0.2116  0.2636 -0.0888
16926SOL     OW60707   2.072   5.211  12.751  0.2280  0.4021  0.1739
16926SOL    HW160708   2.091   5.121  12.724 -0.9525  0.1391  0.1602
16926SOL    HW260709   2.156   5.245  12.782  0.5580 -0.9546  0.8708
16927SOL     OW60710   2.375  11.443   4.658 -0.1096  0.0065  0.1656
16927SOL    HW160711   2.281  11.427   4.669 -0.3086 -0.1561 -1.5627
16927SOL    HW260712   2.382  11.538   4.649 -0.1412 -0.0017  0.0504
16928SOL     OW60713   5.441   3.160   6.157  0.0085 -0.3205 -0.0303
16928SOL    HW160714   5.401   3.149   6.071  0.1381  0.4912 -0.2076
16928SOL    HW260715   5.525   3.115   6.150 -0.0702 -0.4343 -0.2605
16929SOL     OW60716   9.790   4.163   6.481  0.2953 -0.0589 -0.0283
16929SOL    HW160717   9.722   4.220   6.517  1.7769  1.5504  0.3828
16929SOL    HW260718   9.744   4.106   6.419 -1.3496  1.1681  0.0045
16930SOL     OW60719   7.161  12.230   6.262 -0.2351  0.5088  0.2033
16930SOL    HW160720   7.147  12.287   6.186  1.1254  2.7440  1.5158
16930SOL    HW260721   7.236  12.268   6.307  2.0188 -3.4054  0.2475
16931SOL     OW60722   9.702  10.711   6.077 -0.0892  0.5951 -0.0728
16931SOL    HW160723   9.621  10.755   6.099 -0.6251  0.0757 -0.9288
16931SOL    HW260724   9.771  10.769   6.109 -0.7937  0.7733  1.1732
16932SOL     OW60725   5.832   5.200   7.202 -0.2917  0.3814  0.0169
16932SOL    HW160726   5.784   5.160   7.274 -0.4838  1.1244  0.3092
16932SOL    HW260727   5.923   5.201   7.231 -0.4565  1.2725  0.5352
16933SOL     OW60728   4.067   9.293   7.834  0.5048  0.0316 -0.1535
16933SOL    HW160729   3.982   9.254   7.814  0.2533  0.6237 -0.2574
16933SOL    HW260730   4.060   9.322   7.925  0.8609 -0.5946  0.0827
16934SOL     OW60731   5.382   7.976  11.027  0.4612  0.4580  0.1750
16934SOL    HW160732   5.453   7.927  11.069  1.4896  0.3277 -1.6187
16934SOL    HW260733   5.424   8.022  10.954 -1.2504  0.5382 -0.8182
16935SOL     OW60734   4.169   6.032   7.288 -0.4681  0.1682 -0.2862
16935SOL    HW160735   4.127   5.951   7.316 -1.6155  0.3777 -1.3236
16935SOL    HW260736   4.259   6.025   7.320 -0.8692 -0.9833  0.6495
16936SOL     OW60737   7.388   2.551   0.114 -0.7263  0.2577  0.0521
16936SOL    HW160738   7.323   2.549   0.044  0.6232  1.8686 -1.3533
16936SOL    HW260739   7.462   2.501   0.079 -0.0622  1.0286  0.3324
16937SOL     OW60740  13.199   2.341  12.973 -0.2161  0.1081  0.0783
16937SOL    HW160741  13.200   2.365  12.881  0.8237  1.5750  0.4320
16937SOL    HW260742  13.107   2.342  12.997 -0.6258 -1.6221 -1.2299
16938SOL     OW60743   8.999  11.334  10.552 -0.6078  0.1300 -0.1634
16938SOL    HW160744   8.911  11.345  10.515 -0.5028  0.8840 -0.2077
16938SOL    HW260745   8.992  11.259  10.611 -1.1044 -0.2614 -0.7115
16939SOL     OW60746   9.585   3.423   5.177 -0.5585  0.2471 -0.0159
16939SOL    HW160747   9.635   3.377   5.244  0.0842 -0.6800 -1.0978
16939SOL    HW260748   9.643   3.426   5.101 -0.7271  2.5346 -0.1280
16940SOL     OW60749   1.876  12.736   4.671  0.7998  0.2249 -0.2603
16940SOL    HW160750   1.796  12.768   4.630  0.6399 -1.2176 -1.1426
16940SOL    HW260751   1.848  12.702   4.756  0.3025 -1.1054 -0.9422
16941SOL     OW60752   0.341   3.697   4.350  0.5763 -0.4408  0.6509
16941SOL    HW160753   0.427   3.717   4.386  0.1368  0.6745  1.1213
16941SOL    HW260754   0.294   3.780   4.353  0.2523 -0.4717 -1.7837
16942SOL     OW60755  11.261   0.859   0.061 -0.2791  0.1445 -0.7320
16942SOL    HW160756  11.219   0.896  -0.017  0.1445 -0.2346 -1.1452
16942SOL    HW260757  11.250   0.926   0.128  1.3927  1.5272 -1.7343
16943SOL     OW60758   9.435   1.113   0.354  0.3347  0.2772  0.1325
16943SOL    HW160759   9.417   1.197   0.311  2.8086 -0.0966 -1.8510
16943SOL    HW260760   9.396   1.048   0.295  2.2931 -0.1552 -0.7367
16944SOL     OW60761   0.213   1.560   2.231 -0.1261  0.4279  0.1559
16944SOL    HW160762   0.167   1.636   2.267 -0.3665  1.5931 -2.3821
16944SOL    HW260763   0.298   1.595   2.203  0.8165 -0.8607  1.3357
16945SOL     OW60764   2.773   8.808   0.089  0.5147 -0.3745 -0.0945
16945SOL    HW160765   2.713   8.775   0.156 -0.7221 -0.0178 -0.9889
16945SOL    HW260766   2.811   8.729   0.050 -1.4978 -0.7648 -1.3959
16946SOL     OW60767  11.061  12.379   5.320  0.2149 -0.4675  0.1838
16946SOL    HW160768  11.076  12.463   5.363 -0.5747 -0.1079 -0.2320
16946SOL    HW260769  11.148  12.352   5.290  0.6273 -0.2618  1.1464
16947SOL     OW60770   1.475  10.755  11.805  0.0351 -0.0327  0.0015
16947SOL    HW160771   1.545  10.811  11.836  0.2010  0.0935 -0.5861
16947SOL    HW260772   1.420  10.740  11.882  1.2487 -0.9667  0.7285
16948SOL     OW60773   8.967  12.946   6.628 -0.0255 -0.5628  0.2357
16948SOL    HW160774   8.918  12.920   6.706 -0.8712  0.7710  0.1703
16948SOL    HW260775   9.052  12.903   6.639 -1.0441 -2.6723  0.5035
16949SOL     OW60776   1.545  13.184  10.229  0.4282 -0.1860 -0.1196
16949SOL    HW160777   1.531  13.096  10.193 -0.6343 -0.3103  0.5642
16949SOL    HW260778   1.466  13.203  10.279  0.8554  0.9675  0.1534
16950SOL     OW60779   0.595   4.811   3.525 -0.1472  0.7078 -0.2930
16950SOL    HW160780   0.677   4.761   3.527  0.1275  1.1555 -0.2655
16950SOL    HW260781   0.530   4.749   3.491  0.2573  0.4315 -0.5652
16951SOL     OW60782  12.778   9.653   5.120 -0.2611  0.5474  0.4892
16951SOL    HW160783  12.689   9.621   5.138 -0.2389  0.6075  0.6938
16951SOL    HW260784  12.799   9.615   5.034  0.6337 -1.8698  1.6756
16952SOL     OW60785   0.546   8.320  13.253 -0.1244 -0.1998  0.5641
16952SOL    HW160786   0.638   8.324  13.278  0.2782  0.6365 -0.9373
16952SOL    HW260787   0.548   8.292  13.162 -1.4307 -1.2844  0.8382
16953SOL     OW60788   6.064   0.049   1.778  0.2334  0.2932 -0.2768
16953SOL    HW160789   6.093   0.138   1.797 -2.5569  1.1654  0.3440
16953SOL    HW260790   6.072   0.003   1.862  1.3870  0.0107 -0.5258
16954SOL     OW60791  12.572   0.659  10.489 -0.2916 -0.3923 -0.0924
16954SOL    HW160792  12.631   0.665  10.564  0.5174  0.6669 -0.7776
16954SOL    HW260793  12.513   0.734  10.500 -0.1811 -0.2453 -0.4981
16955SOL     OW60794   7.806   6.783   5.855  0.3843 -0.5029 -0.2867
16955SOL    HW160795   7.727   6.800   5.906  0.1140  0.0340 -0.8592
16955SOL    HW260796   7.843   6.704   5.893  1.1293  0.8056  1.8564
16956SOL     OW60797   6.433   1.701   4.818  0.0563  0.3985  0.5302
16956SOL    HW160798   6.406   1.671   4.731  0.2617  0.0822  0.5754
16956SOL    HW260799   6.514   1.750   4.803 -0.1070  0.6600  0.4980
16957SOL     OW60800   2.188   7.648   4.153 -0.1927  0.4538  0.2430
16957SOL    HW160801   2.168   7.555   4.162 -1.5804  0.7359  0.3482
16957SOL    HW260802   2.260   7.651   4.090 -2.3308 -0.5409 -2.4354
16958SOL     OW60803   1.516   4.114   4.397 -0.0619  0.1453  0.2099
16958SOL    HW160804   1.532   4.122   4.491 -3.0395 -0.4627  0.8681
16958SOL    HW260805   1.563   4.187   4.358  0.8861  0.6651  2.2083
16959SOL     OW60806   0.452   7.634   7.251  0.0980 -0.1379  0.5141
16959SOL    HW160807   0.388   7.599   7.189  1.1343 -0.4708 -0.4020
16959SOL    HW260808   0.494   7.706   7.204  1.4405 -0.8970  0.5140
16960SOL     OW60809   9.094  12.227   1.586 -0.5679  0.3795  0.0658
16960SOL    HW160810   9.024  12.292   1.570 -0.4405  0.4829 -0.0686
16960SOL    HW260811   9.124  12.202   1.499 -0.3713  0.4066  0.1251
16961SOL     OW60812   8.111   0.883   4.403  0.1347 -0.3641  0.3554
16961SOL    HW160813   8.133   0.830   4.327  0.3141  3.0417 -2.2179
16961SOL    HW260814   8.033   0.932   4.375  2.5301  4.0212  0.5400
16962SOL     OW60815  11.387   1.454   2.595 -0.5000 -0.8107 -0.0273
16962SOL    HW160816  11.362   1.466   2.687 -1.2647 -0.6426 -0.2502
16962SOL    HW260817  11.482   1.462   2.595 -0.3683 -1.9585  0.9349
16963SOL     OW60818   0.709  10.994   9.541 -0.3768 -0.1298 -0.2944
16963SOL    HW160819   0.773  10.924   9.549  0.8608  0.9976  0.0286
16963SOL    HW260820   0.702  11.030   9.629 -0.5885  0.4959 -0.5619
16964SOL     OW60821   6.941   8.395   5.182 -0.2388  0.3506 -0.3126
16964SOL    HW160822   6.936   8.328   5.114 -0.9640  0.6799 -0.5979
16964SOL    HW260823   6.926   8.477   5.135  0.0770  0.6605  0.1207
16965SOL     OW60824   4.758   5.501   9.239  0.3319  0.2327  0.6053
16965SOL    HW160825   4.734   5.409   9.229 -0.0346  0.2370  1.3230
16965SOL    HW260826   4.844   5.499   9.282  1.5256  0.2216 -1.6554
16966SOL     OW60827   8.002   6.866  13.170 -0.1264  0.2360 -0.3094
16966SOL    HW160828   8.029   6.869  13.078 -0.5043  0.4202 -0.4151
16966SOL    HW260829   8.081   6.839  13.217  0.2843  0.9133 -0.5998
16967SOL     OW60830   0.594   2.383   3.064  0.2587  0.4849 -0.1979
16967SOL    HW160831   0.516   2.386   3.009  1.4464 -1.7482 -2.2371
16967SOL    HW260832   0.663   2.351   3.005  2.1718  0.1595  2.0717
16968SOL     OW60833   3.604   1.296   0.590  0.1713  0.2130 -0.2569
16968SOL    HW160834   3.532   1.253   0.637  0.6773  0.6710  0.9953
16968SOL    HW260835   3.561   1.363   0.537 -0.3405  0.4393  0.4262
16969SOL     OW60836   3.873   7.104   0.655 -0.3721 -0.3493  0.4391
16969SOL    HW160837   3.844   7.013   0.644 -0.0377 -0.5667  1.2728
16969SOL    HW260838   3.969   7.099   0.645 -0.4150  0.0284 -0.2095
16970SOL     OW60839   0.973   4.904   1.838  0.2668  0.6764 -0.0693
16970SOL    HW160840   1.052   4.878   1.790 -0.6925 -0.3301 -1.2058
16970SOL    HW260841   0.999   4.903   1.930  1.3761 -0.4447 -0.3592
16971SOL     OW60842   2.446   3.714   1.348  0.0755 -0.2362 -0.3150
16971SOL    HW160843   2.467   3.626   1.317 -0.1562 -0.2612 -0.4022
16971SOL    HW260844   2.391   3.701   1.425 -1.2614 -0.1778 -1.2173
16972SOL     OW60845   1.099   3.641   4.419 -0.1069  0.1954 -0.5377
16972SOL    HW160846   1.183   3.599   4.439  0.0362  0.4905 -0.5122
16972SOL    HW260847   1.112   3.733   4.442  0.2430  0.6653 -2.4594
16973SOL     OW60848   8.136   9.445   8.181  0.0059  0.0179 -0.4225
16973SOL    HW160849   8.083   9.436   8.101  0.5847 -0.7855 -0.7267
16973SOL    HW260850   8.225   9.420   8.154 -0.1157 -2.0015  0.8783
16974SOL     OW60851  13.314   4.144   2.100 -0.5719 -0.1555  0.0086
16974SOL    HW160852  13.291   4.224   2.147 -3.1656 -0.7263 -0.1390
16974SOL    HW260853  13.356   4.175   2.020 -1.8337  1.1321 -0.2134
16975SOL     OW60854   2.642   5.040  11.330  0.7659 -0.0522  0.1673
16975SOL    HW160855   2.663   5.006  11.417  2.1858  0.0218 -0.1215
16975SOL    HW260856   2.713   5.101  11.310  1.5773 -1.5573 -1.8669
16976SOL     OW60857  12.144   3.470   8.004 -0.0420  0.2988 -0.0783
16976SOL    HW160858  12.218   3.529   7.992 -1.0773  1.4209 -1.3609
16976SOL    HW260859  12.183   3.385   8.024  1.5499  0.9500 -0.2842
16977SOL     OW60860  12.826   1.695   4.332  0.2772 -0.1678 -0.6768
16977SOL    HW160861  12.766   1.632   4.373  0.1807  0.4755  0.1986
16977SOL    HW260862  12.787   1.713   4.246  0.4709 -1.5314 -1.0843
16978SOL     OW60863   3.800   5.659   3.650  0.0910 -0.4190 -0.4349
16978SOL    HW160864   3.876   5.604   3.637 -0.1781 -0.6297 -1.1970
16978SOL    HW260865   3.828   5.746   3.622 -0.1897 -0.6712 -1.5518
16979SOL     OW60866   8.519  12.460   9.790  0.2190  0.1122 -0.1048
16979SOL    HW160867   8.559  12.374   9.794  0.8371  0.4391  1.6461
16979SOL    HW260868   8.427  12.445   9.811  0.6791  0.0339  2.1741
16980SOL     OW60869   9.938   2.202  10.965  0.1755 -0.0245 -0.1996
16980SOL    HW160870   9.940   2.137  11.036  0.7317  0.1548 -0.0457
16980SOL    HW260871   9.847   2.203  10.936 -0.1060  0.0434  0.6487
16981SOL     OW60872   6.317  12.845  10.531 -0.7722  0.0452  0.3019
16981SOL    HW160873   6.284  12.912  10.470  1.8274 -0.5414 -1.9525
16981SOL    HW260874   6.252  12.775  10.526 -0.8519  0.1879 -1.5731
16982SOL     OW60875  10.682   4.837   9.088  0.2433  0.1234 -0.1991
16982SOL    HW160876  10.657   4.747   9.068  0.5347 -0.1507  0.6486
16982SOL    HW260877  10.611   4.871   9.142  0.1300  0.4066 -0.5252
16983SOL     OW60878  11.552   3.971  12.108  0.1315  0.0213 -0.1560
16983SOL    HW160879  11.527   4.035  12.042  0.5973  0.4967  0.1192
16983SOL    HW260880  11.616   3.914  12.064 -0.9399 -0.8233 -0.6733
16984SOL     OW60881   6.153   4.747   9.613  0.3466 -0.0931 -0.1887
16984SOL    HW160882   6.101   4.677   9.572 -0.5470 -1.1951  2.5803
16984SOL    HW260883   6.243   4.728   9.586 -0.0364 -1.5569 -0.5466
16985SOL     OW60884   7.305   2.253   3.994 -0.3140  0.3172 -0.3569
16985SOL    HW160885   7.398   2.238   3.982 -0.5562 -0.9233 -0.8103
16985SOL    HW260886   7.267   2.243   3.906 -1.1749 -1.6160  0.1929
16986SOL     OW60887   6.322   2.796   4.181  0.0811  0.3216  0.2868
16986SOL    HW160888   6.323   2.892   4.173 -0.1932  0.2003 -1.6887
16986SOL    HW260889   6.355   2.780   4.269  0.4073  2.2276  0.5747
16987SOL     OW60890   2.719  12.435   1.155 -0.1597 -0.1268 -0.0991
16987SOL    HW160891   2.692  12.382   1.080 -3.3207  0.1632  0.6693
16987SOL    HW260892   2.718  12.525   1.123  2.1096 -0.2133 -0.5779
16988SOL     OW60893   5.591   0.276   2.216 -0.0913 -0.5308  0.2274
16988SOL    HW160894   5.548   0.203   2.260 -0.1636 -0.7354 -0.1825
16988SOL    HW260895   5.586   0.254   2.123  1.7985 -1.0559  0.2174
16989SOL     OW60896  11.554   4.677   8.487  0.0372 -0.2876 -0.5055
16989SOL    HW160897  11.552   4.763   8.445  0.8760  0.5333  1.0575
16989SOL    HW260898  11.647   4.660   8.502 -0.2609 -0.0541  1.9246
16990SOL     OW60899  12.713   6.193   2.425  0.7857  0.3153  0.4903
16990SOL    HW160900  12.624   6.212   2.394  1.0957 -1.2545 -1.6502
16990SOL    HW260901  12.767   6.258   2.381  1.0395 -0.9140 -1.1187
16991SOL     OW60902   3.510  11.708   5.319  0.0183  0.3128  0.1305
16991SOL    HW160903   3.588  11.703   5.375  0.1610 -0.5186 -0.1280
16991SOL    HW260904   3.518  11.632   5.261  0.4052  1.7155 -1.7279
16992SOL     OW60905   0.453   6.648   2.780 -0.0676  0.0142  0.7596
16992SOL    HW160906   0.425   6.631   2.690 -1.3425  1.5550  0.8286
16992SOL    HW260907   0.534   6.597   2.789  0.3553  0.1684 -1.4078
16993SOL     OW60908   3.694   0.791   4.699 -0.1037  0.4359 -0.0511
16993SOL    HW160909   3.768   0.737   4.725 -1.0195 -1.2116 -0.6795
16993SOL    HW260910   3.680   0.770   4.607 -1.0506  1.0781 -0.0717
16994SOL     OW60911  10.253  10.741   1.887  0.1147  0.3930 -0.0531
16994SOL    HW160912  10.341  10.776   1.901  0.3233 -0.8713  2.2248
16994SOL    HW260913  10.255  10.654   1.926 -1.9415  0.0123 -0.6582
16995SOL     OW60914   5.867   6.385  12.869 -0.2987  0.4654 -0.5123
16995SOL    HW160915   5.816   6.304  12.877  0.9003 -0.2278  0.6858
16995SOL    HW260916   5.844   6.436  12.947  1.8050 -0.5104  0.8663
16996SOL     OW60917  10.581   0.448   7.904  0.0285 -0.0058  0.0775
16996SOL    HW160918  10.550   0.383   7.840  1.6561 -1.5624  0.7849
16996SOL    HW260919  10.543   0.421   7.987 -0.6634  0.9796  0.0946
16997SOL     OW60920  13.208   7.322   5.286  0.3242 -0.3976  0.5190
16997SOL    HW160921  13.176   7.316   5.376  1.1195 -1.8614  0.7325
16997SOL    HW260922  13.145   7.380   5.242 -2.7818 -3.1778  0.8534
16998SOL     OW60923  11.031  11.053   3.493 -0.3401  0.1975 -0.1548
16998SOL    HW160924  11.014  10.959   3.495 -2.4887  0.4196 -2.6719
16998SOL    HW260925  10.974  11.089   3.562  0.2292 -0.2760  0.5786
16999SOL     OW60926   0.021  13.036   0.119 -0.1830  0.3719 -0.2068
16999SOL    HW160927  -0.024  13.070   0.196  0.1068 -0.3851  0.3047
16999SOL    HW260928   0.069  13.111   0.084 -2.3725  1.4083 -1.2010
17000SOL     OW60929   3.451   9.276  13.228  0.2059  0.2103 -0.2866
17000SOL    HW160930   3.381   9.210  13.232 -0.8711  1.3857  1.9073
17000SOL    HW260931   3.493   9.260  13.143  0.2787 -3.5298  0.2696
17001SOL     OW60932   7.941  13.234  10.912 -0.1496 -0.5899 -0.5011
17001SOL    HW160933   7.884  13.181  10.857  0.2574  0.4426 -1.9927
17001SOL    HW260934   7.895  13.318  10.921  0.2985 -0.3684 -0.1963
17002SOL     OW60935   9.854  11.440   4.685  0.4242  0.4234 -0.5205
17002SOL    HW160936   9.799  11.499   4.737 -0.2601  0.6560 -1.4892
17002SOL    HW260937   9.805  11.427   4.604  0.9531 -0.8281 -0.6584
17003SOL     OW60938   6.580   1.841  12.083  0.2954  0.3898  0.2183
17003SOL    HW160939   6.564   1.747  12.077  0.0412  0.4254  0.3364
17003SOL    HW260940   6.635   1.851  12.161  2.6186  0.0532 -1.2882
17004SOL     OW60941   1.602  12.441   9.114 -0.0699  0.1217  0.0301
17004SOL    HW160942   1.639  12.409   9.032  0.9758 -0.0664  0.5513
17004SOL    HW260943   1.614  12.536   9.111 -0.3243  0.1494 -0.1639
17005SOL     OW60944   0.037   0.369   7.047 -0.1220 -0.0113  0.4134
17005SOL    HW160945  -0.025   0.369   7.120 -0.2299  0.2118  0.3218
17005SOL    HW260946  -0.007   0.322   6.977  0.7129 -1.9201  1.1073
17006SOL     OW60947  11.996   3.997   3.061 -0.0524  0.1298  0.5662
17006SOL    HW160948  11.966   4.085   3.087 -0.6106  0.2343 -0.3929
17006SOL    HW260949  12.062   4.013   2.994 -0.8456 -0.1898 -0.3090
17007SOL     OW60950  12.911  10.693  13.164  0.5947  0.0288  0.2993
17007SOL    HW160951  12.911  10.598  13.158  0.3375 -0.0203  1.0410
17007SOL    HW260952  12.822  10.716  13.190  0.8059  0.4335  0.6848
17008SOL     OW60953   1.717   7.005   6.895 -0.0445 -0.0322 -0.5306
17008SOL    HW160954   1.770   6.945   6.947 -0.7193 -0.5444 -0.4234
17008SOL    HW260955   1.763   7.089   6.901  0.8888 -0.5239 -0.6542
17009SOL     OW60956   1.403   3.212   6.961  0.1951 -0.1239 -0.2340
17009SOL    HW160957   1.493   3.215   6.930  0.5240 -3.0378  0.1412
17009SOL    HW260958   1.369   3.128   6.929 -2.1573  0.5680  0.2334
17010SOL     OW60959   9.321   7.129   7.095  0.1187 -0.2310  0.1701
17010SOL    HW160960   9.404   7.172   7.114  0.6793 -1.8023  1.5116
17010SOL    HW260961   9.344   7.054   7.042 -0.9137  1.3068 -2.6605
17011SOL     OW60962   5.245  13.030   1.213 -0.1966 -0.3796  0.1539
17011SOL    HW160963   5.339  13.033   1.232 -0.2869  0.6395  0.4803
17011SOL    HW260964   5.209  12.973   1.281 -0.0649  0.7408  1.1979
17012SOL     OW60965   6.271  10.502   9.108 -0.3374  0.3739 -0.0801
17012SOL    HW160966   6.195  10.504   9.166  0.0807 -1.8720  0.6772
17012SOL    HW260967   6.242  10.452   9.031  0.3560 -0.6650  0.2954
17013SOL     OW60968   7.384   9.778  11.410  0.3404  0.3806  0.3404
17013SOL    HW160969   7.323   9.723  11.360 -1.2008  3.2825 -1.2339
17013SOL    HW260970   7.339   9.792  11.494  1.5146 -1.9837  1.4458
17014SOL     OW60971   9.146   7.272   5.655 -0.2269  0.5166  0.6286
17014SOL    HW160972   9.108   7.331   5.590  0.2700 -0.2244 -0.3838
17014SOL    HW260973   9.239   7.294   5.656 -0.3195  0.9021  1.5258
17015SOL     OW60974   1.875   4.314   1.511 -0.6031  0.2593 -0.4412
17015SOL    HW160975   1.812   4.337   1.443  0.8158  2.9955 -0.9727
17015SOL    HW260976   1.822   4.280   1.583 -2.4908  0.8956 -1.4661
17016SOL     OW60977   2.606   3.707   6.951  0.2133  0.1727  0.3694
17016SOL    HW160978   2.692   3.685   6.985 -0.1305 -2.3042 -0.1655
17016SOL    HW260979   2.547   3.642   6.990 -1.0038  0.3514 -1.0573
17017SOL     OW60980   4.088   6.123   4.160 -0.3671  0.1382  0.5453
17017SOL    HW160981   4.115   6.039   4.122 -1.9109 -1.3799  2.5756
17017SOL    HW260982   3.998   6.135   4.128 -0.5940  0.3840  1.2592
17018SOL     OW60983   6.405   0.102  11.371 -0.1186  0.1817  0.1344
17018SOL    HW160984   6.349   0.027  11.351  0.8599 -0.4492 -0.3423
17018SOL    HW260985   6.437   0.085  11.460 -0.3952  0.3555  0.2668
17019SOL     OW60986   4.933   9.535   2.044  0.8389  0.4793 -0.3800
17019SOL    HW160987   4.984   9.596   2.098 -0.3514  0.2955  1.0184
17019SOL    HW260988   4.997   9.471   2.012  1.4296 -0.1520  1.9020
17020SOL     OW60989   9.004   1.980   3.286 -0.2862 -0.0482 -0.3758
17020SOL    HW160990   8.973   2.052   3.340  0.7088  1.0287 -1.1875
17020SOL    HW260991   9.027   2.021   3.203  0.8883 -1.2054 -0.6467
17021SOL     OW60992   1.354  10.364   6.483 -0.4740 -0.2238  0.2371
17021SOL    HW160993   1.445  10.373   6.456 -0.8225  1.3750 -0.4798
17021SOL    HW260994   1.341  10.269   6.492  1.3879 -0.4509  0.8939
17022SOL     OW60995   9.243   7.111   5.142 -0.1749  0.6148 -0.4163
17022SOL    HW160996   9.289   7.183   5.098 -0.8851  1.0268 -0.4954
17022SOL    HW260997   9.197   7.153   5.214  0.4089  0.0441  0.3036
17023SOL     OW60998   8.162  11.567   5.934  0.0377 -0.2043 -0.3362
17023SOL    HW160999   8.086  11.625   5.934 -0.0134 -0.2371 -1.8546
17023SOL    HW261000   8.128  11.483   5.905  0.5736 -0.3471 -0.5569
17024SOL     OW61001   4.312   8.447   8.909 -0.2016  0.4271 -0.2037
17024SOL    HW161002   4.236   8.399   8.940  0.6522 -2.0635 -1.6439
17024SOL    HW261003   4.316   8.428   8.815  2.7286 -0.4216 -0.0035
17025SOL     OW61004  11.262   7.881   3.327 -0.1742 -0.3143 -0.0461
17025SOL    HW161005  11.193   7.857   3.388  1.1873 -1.5899  1.0503
17025SOL    HW261006  11.230   7.850   3.242 -0.5334 -1.7897  0.6023
17026SOL     OW61007  13.111   5.120   4.691  0.2169 -0.4710  0.0877
17026SOL    HW161008  13.102   5.211   4.722 -0.0858 -0.5136  0.1288
17026SOL    HW261009  13.075   5.067   4.762  0.9616 -0.6616  0.3277
17027SOL     OW61010  11.976   5.173   6.651  0.3217  0.5942 -0.5329
17027SOL    HW161011  11.964   5.232   6.576  0.4889 -0.2704 -1.2572
17027SOL    HW261012  11.920   5.098   6.632  0.4631  0.3031  0.1576
17028SOL     OW61013   4.552   0.529   1.433  0.1697  0.4200 -0.4002
17028SOL    HW161014   4.544   0.483   1.349  0.2242  0.1205 -0.2414
17028SOL    HW261015   4.507   0.473   1.496  1.5365 -0.2003  0.0816
17029SOL     OW61016   4.798  13.038   2.423  0.8592  0.5432 -0.1876
17029SOL    HW161017   4.790  12.973   2.353  0.8806  0.5886 -0.2316
17029SOL    HW261018   4.832  13.116   2.380  0.2749  0.7693 -0.2409
17030SOL     OW61019   4.827  11.417   0.453  0.1764 -0.1641  1.1435
17030SOL    HW161020   4.787  11.467   0.524  0.9181  0.6873  0.9720
17030SOL    HW261021   4.913  11.458   0.440  0.0073 -0.2383 -0.3245
17031SOL     OW61022   1.949   6.915  10.037 -0.2859  0.3932 -0.0310
17031SOL    HW161023   2.017   6.870  10.087  1.3383 -1.2443 -3.4112
17031SOL    HW261024   1.990   6.938   9.954 -3.3870  0.8320 -1.6183
17032SOL     OW61025   7.198  11.405   0.229 -0.3429  0.1418  0.2066
17032SOL    HW161026   7.150  11.396   0.311 -1.0068  1.1563 -0.0523
17032SOL    HW261027   7.222  11.315   0.205 -1.7236 -0.3538  0.5817
17033SOL     OW61028   5.670   4.455  11.641 -0.6031  0.1396  0.2081
17033SOL    HW161029   5.582   4.468  11.677 -0.8008 -1.8552  0.5753
17033SOL    HW261030   5.712   4.540  11.649 -2.4312  1.1000  0.2107
17034SOL     OW61031   5.743   4.424   0.506  0.0922 -0.4799 -0.2777
17034SOL    HW161032   5.706   4.345   0.466 -0.0767 -1.1953  1.2121
17034SOL    HW261033   5.683   4.445   0.578 -0.4329  1.6282 -1.2446
17035SOL     OW61034   3.780  10.501   7.884 -0.4175  0.1772  0.1502
17035SOL    HW161035   3.748  10.414   7.861 -0.2415 -0.0165  0.6416
17035SOL    HW261036   3.761  10.511   7.977  0.4674  0.2646  0.3332
17036SOL     OW61037   2.716   9.084   4.553 -1.0237  0.6127 -0.1076
17036SOL    HW161038   2.799   9.127   4.533  0.1485 -0.8530  1.3091
17036SOL    HW261039   2.700   9.028   4.477  1.2893 -1.8839  1.0704
17037SOL     OW61040  10.643   6.490   9.651  0.1881 -0.3695  0.1770
17037SOL    HW161041  10.637   6.396   9.664  0.4348 -0.3486  0.4515
17037SOL    HW261042  10.737   6.507   9.643  0.2689  0.0585  1.6955
17038SOL     OW61043   1.671   3.678   6.096  0.4923 -0.0867  0.2890
17038SOL    HW161044   1.656   3.747   6.031  0.8336  0.7389  1.0755
17038SOL    HW261045   1.598   3.686   6.157  0.2243 -0.8005  0.0764
17039SOL     OW61046   1.676   7.795   9.983  0.4759  0.5722 -0.3911
17039SOL    HW161047   1.667   7.889   9.966  0.9749  0.5235 -0.9347
17039SOL    HW261048   1.770   7.779   9.984  0.4094  0.1804  0.3136
17040SOL     OW61049   6.870   1.599   6.147  0.1002 -0.4602 -0.0903
17040SOL    HW161050   6.798   1.621   6.206 -0.8317 -1.2648 -0.8985
17040SOL    HW261051   6.929   1.675   6.153 -1.7032  1.0797 -0.7947
17041SOL     OW61052   1.621   5.452   0.181 -0.8989 -0.5968 -0.5692
17041SOL    HW161053   1.574   5.409   0.110 -0.2661  1.1349 -2.1052
17041SOL    HW261054   1.571   5.532   0.198 -1.1262 -1.0390  1.0839
17042SOL     OW61055   0.850   7.671   1.733 -0.1888 -0.4143  0.0317
17042SOL    HW161056   0.945   7.665   1.741 -0.0973  1.8080  1.9423
17042SOL    HW261057   0.835   7.707   1.645  0.6782 -1.3713 -0.5183
17043SOL     OW61058  10.609   4.496   0.743  0.1557 -0.1062  0.1138
17043SOL    HW161059  10.702   4.483   0.758  0.2293  1.1022  0.7808
17043SOL    HW261060  10.567   4.470   0.825 -0.1612 -1.1127 -0.3437
17044SOL     OW61061   7.979   1.579  11.348  0.2240  0.1415 -0.2799
17044SOL    HW161062   7.978   1.525  11.269 -0.4249  2.8781 -2.2918
17044SOL    HW261063   8.041   1.535  11.406  0.9156 -1.8730 -2.3821
17045SOL     OW61064  10.856  11.009   7.545  0.2672  0.4127 -0.7125
17045SOL    HW161065  10.884  10.969   7.463  1.8567  1.5517 -0.7636
17045SOL    HW261066  10.813  11.090   7.519 -1.2987 -0.3160 -0.5105
17046SOL     OW61067   4.387   3.970   5.907  0.6550 -0.0784 -0.1818
17046SOL    HW161068   4.429   3.940   5.988  1.9443 -0.3663 -0.9359
17046SOL    HW261069   4.429   4.053   5.888  1.7784 -0.9384 -1.5912
17047SOL     OW61070   2.040   0.572  11.666 -0.0403  0.0096 -0.1318
17047SOL    HW161071   2.084   0.646  11.624 -0.3287  0.8461  1.0085
17047SOL    HW261072   1.950   0.575  11.631 -0.0772  0.2580 -0.0184
17048SOL     OW61073  12.643   4.444  11.494 -0.1895 -0.5604 -0.1176
17048SOL    HW161074  12.629   4.418  11.403  1.2785 -1.3385 -0.1586
17048SOL    HW261075  12.617   4.368  11.546 -0.2062 -0.4374  0.0571
17049SOL     OW61076  10.907  12.249   5.519 -0.2721  0.2365 -0.6537
17049SOL    HW161077  10.956  12.306   5.461 -1.1131  0.4923 -1.1310
17049SOL    HW261078  10.973  12.206   5.573  0.4152  1.1130 -0.7893
17050SOL     OW61079   1.588   0.071   7.565 -0.2930 -0.0414  0.8770
17050SOL    HW161080   1.632   0.074   7.480 -1.2614  1.4059  0.3799
17050SOL    HW261081   1.584  -0.022   7.587  0.5916 -0.3921 -0.3344
17051SOL     OW61082   2.321   7.599  12.124 -0.0070 -0.7646 -0.5220
17051SOL    HW161083   2.258   7.564  12.061  0.3496 -1.1978 -0.6405
17051SOL    HW261084   2.300   7.554  12.206  0.3243 -1.1057 -0.6260
17052SOL     OW61085  10.445  11.098  11.303  0.6441  0.2016 -0.2445
17052SOL    HW161086  10.505  11.116  11.230  0.4764 -0.9064 -0.6641
17052SOL    HW261087  10.365  11.067  11.262  0.7475 -1.0084  0.4294
17053SOL     OW61088  11.726  13.270   6.053 -0.2912 -0.1544 -0.4733
17053SOL    HW161089  11.655  13.331   6.034  0.4191  0.6385 -0.6417
17053SOL    HW261090  11.803  13.310   6.012  0.0705 -1.4821 -1.1454
17054SOL     OW61091   0.994   9.144   0.021 -0.0741  0.2379 -0.2018
17054SOL    HW161092   0.989   9.135  -0.074  0.8005 -0.0982 -0.2253
17054SOL    HW261093   0.962   9.061   0.056 -1.0210  0.6020 -0.1784
17055SOL     OW61094   9.751   0.953   1.312 -0.2727  0.7567  0.2322
17055SOL    HW161095   9.830   0.900   1.320 -1.5397 -1.0777  1.4895
17055SOL    HW261096   9.760   0.996   1.227  1.1142 -1.0696 -0.6316
17056SOL     OW61097  11.463   4.654  10.059 -0.0079 -0.0731  0.0052
17056SOL    HW161098  11.496   4.739  10.089  0.9381 -0.5207  0.2515
17056SOL    HW261099  11.493   4.647   9.969 -1.9359  0.7928 -0.7615
17057SOL     OW61100  11.619  12.452   8.518 -0.2704  0.1137 -0.0620
17057SOL    HW161101  11.681  12.519   8.489 -0.3338  0.2307  0.0696
17057SOL    HW261102  11.582  12.488   8.599 -0.9853  0.3332 -0.4822
17058SOL     OW61103   2.433   4.990   1.739  0.0405  0.0593 -0.2464
17058SOL    HW161104   2.373   4.992   1.814  3.1288 -1.1135  2.5270
17058SOL    HW261105   2.443   5.082   1.715 -1.2117  0.4556  0.6436
17059SOL     OW61106   6.449   2.196  10.645  0.0271 -0.1643  0.2439
17059SOL    HW161107   6.355   2.180  10.633  0.0010 -0.2375  0.5424
17059SOL    HW261108   6.454   2.290  10.665  0.2229  0.3344 -1.9587
17060SOL     OW61109   6.148   7.516   0.790  0.2442  0.1152 -0.6537
17060SOL    HW161110   6.223   7.572   0.772 -0.1336 -0.0152 -3.0124
17060SOL    HW261111   6.169   7.433   0.747 -0.5084 -0.5200  0.1667
17061SOL     OW61112   9.484   9.046  10.192  0.2392  0.5740  0.5955
17061SOL    HW161113   9.559   9.105  10.194 -0.0564  0.9406  1.2812
17061SOL    HW261114   9.423   9.086  10.130  0.7484  0.0880 -0.2355
17062SOL     OW61115   6.352   7.366  10.488  0.2096 -0.1231  0.4452
17062SOL    HW161116   6.423   7.348  10.549 -0.3594 -0.9773  0.8743
17062SOL    HW261117   6.277   7.387  10.543  0.1184  0.8255 -0.0039
17063SOL     OW61118   2.411   4.198   1.618 -0.6132 -0.4898 -0.2170
17063SOL    HW161119   2.329   4.193   1.667 -1.1557 -0.0467 -1.0608
17063SOL    HW261120   2.458   4.271   1.658 -2.1941  1.6323 -1.9659
17064SOL     OW61121   6.031  11.427   1.085 -0.4233 -0.3177  0.4222
17064SOL    HW161122   6.070  11.442   1.172  0.5145  0.8162 -0.1645
17064SOL    HW261123   6.102  11.388   1.034 -0.7755 -0.3795 -0.0200
17065SOL     OW61124   3.096  11.201   5.882  0.1052 -0.2607  0.6140
17065SOL    HW161125   3.045  11.240   5.954 -4.8587 -0.8230 -2.1322
17065SOL    HW261126   3.126  11.277   5.831  0.5271  0.0704  1.3357
17066SOL     OW61127   2.422   8.071   9.207 -0.1616  0.6871  0.1365
17066SOL    HW161128   2.512   8.101   9.223  0.0335  0.4328 -0.4762
17066SOL    HW261129   2.430   8.009   9.135 -0.9819  1.5118 -0.6766
17067SOL     OW61130  12.107   9.177  11.959  0.0655  0.2543 -0.2020
17067SOL    HW161131  12.063   9.092  11.960 -0.2943  0.4444  0.2542
17067SOL    HW261132  12.075   9.219  11.880  0.8479 -0.3391 -0.8616
17068SOL     OW61133  12.576  12.350   3.903  0.9563 -0.1671 -0.1531
17068SOL    HW161134  12.572  12.329   3.996  2.3299 -2.5069 -0.5198
17068SOL    HW261135  12.649  12.297   3.870  0.1192  0.1086 -2.6750
17069SOL     OW61136   6.209   1.634  13.235 -0.2366 -0.1973 -0.2132
17069SOL    HW161137   6.300   1.624  13.263 -0.7203  1.6778  2.3732
17069SOL    HW261138   6.165   1.556  13.268  0.0958 -0.2313  0.1530
17070SOL     OW61139  11.872   6.219   8.351 -0.5915  0.1817  0.0157
17070SOL    HW161140  11.803   6.191   8.291 -1.1292  1.5326 -0.0244
17070SOL    HW261141  11.912   6.295   8.308  0.9274 -0.5606  0.0449
17071SOL     OW61142   6.341   1.760   2.207 -0.0457  0.4391  0.2765
17071SOL    HW161143   6.336   1.689   2.143  1.8818  0.2074  0.3080
17071SOL    HW261144   6.377   1.720   2.286  2.4519  1.6457 -0.1477
17072SOL     OW61145  10.630  12.915  10.389 -0.0464 -0.4793 -0.0180
17072SOL    HW161146  10.604  12.850  10.454  0.7077  0.7051  1.5218
17072SOL    HW261147  10.585  12.995  10.415  0.3639  0.0589 -0.8927
17073SOL     OW61148   8.028   5.672   3.237  0.1800  0.3339 -0.1811
17073SOL    HW161149   8.111   5.643   3.275  0.9315  2.1196 -0.3512
17073SOL    HW261150   7.970   5.680   3.313  0.1304 -0.9394 -0.0608
17074SOL     OW61151  10.670  10.392   0.217  0.1937 -0.1222 -0.1258
17074SOL    HW161152  10.726  10.465   0.244  0.5623 -1.2369  2.3997
17074SOL    HW261153  10.594  10.397   0.276 -1.4505  0.1395 -2.1362
17075SOL     OW61154   2.536  11.091   7.134 -0.1798 -0.6955  0.6848
17075SOL    HW161155   2.505  11.096   7.044  0.8151  0.3721  0.3815
17075SOL    HW261156   2.553  10.998   7.149  0.8045 -0.7373 -0.6270
17076SOL     OW61157   1.891   7.689   6.396 -0.8216  0.2004  0.0904
17076SOL    HW161158   1.948   7.643   6.458  0.7590  0.7272 -0.9225
17076SOL    HW261159   1.894   7.635   6.317  2.7553  2.8191 -1.8947
17077SOL     OW61160   0.933   8.964  10.742 -0.1305 -0.3131 -0.6502
17077SOL    HW161161   0.900   8.967  10.652 -2.6009 -0.4942  0.1668
17077SOL    HW261162   0.937   8.870  10.762 -1.8640 -0.2613  0.1287
17078SOL     OW61163   1.290  11.623   1.587  0.3187 -0.8077  0.1006
17078SOL    HW161164   1.365  11.623   1.647  0.6206  0.6094 -0.2333
17078SOL    HW261165   1.279  11.531   1.563  1.0276 -1.2351  1.2807
17079SOL     OW61166   6.790  13.033   3.487 -0.6706  0.1377 -0.1310
17079SOL    HW161167   6.872  13.079   3.504  0.3879 -1.4033 -0.8635
17079SOL    HW261168   6.773  13.048   3.393 -1.1821  0.3662 -0.0072
17080SOL     OW61169  10.258   6.088   5.517  0.1719  0.1574  0.0393
17080SOL    HW161170  10.318   6.139   5.571  0.6481  0.0414 -0.3720
17080SOL    HW261171  10.234   6.146   5.445  0.5182 -0.1098 -0.2951
17081SOL     OW61172   8.194   8.810  10.348  0.0151  0.3141 -0.1614
17081SOL    HW161173   8.236   8.833  10.431  1.3068 -0.9770 -0.4221
17081SOL    HW261174   8.178   8.894  10.305  1.4208  0.8956  0.4090
17082SOL     OW61175   2.867   1.509   7.634 -0.0190  0.2868 -0.2741
17082SOL    HW161176   2.848   1.548   7.549 -0.0686 -0.6997 -0.7236
17082SOL    HW261177   2.962   1.512   7.641  0.0739 -0.7056 -0.9013
17083SOL     OW61178   6.018   7.720   3.292 -0.0803 -0.3442 -0.3217
17083SOL    HW161179   6.073   7.789   3.254 -0.0186  0.5664  1.3353
17083SOL    HW261180   6.026   7.733   3.387 -3.5199  0.1585  0.0120
17084SOL     OW61181   1.915  10.731   6.083 -0.0912  0.0534 -0.3444
17084SOL    HW161182   1.898  10.650   6.034 -0.0306 -0.8512  1.0840
17084SOL    HW261183   2.007  10.750   6.067  0.3950 -1.2056  0.7630
17085SOL     OW61184   1.692   8.685   9.942  0.3657 -0.2504 -0.5246
17085SOL    HW161185   1.599   8.664   9.946  0.2208  0.3925 -0.4298
17085SOL    HW261186   1.705   8.720   9.854  0.3197  0.5555 -0.2167
17086SOL     OW61187   4.271  10.309   8.886 -0.4472 -0.0524 -0.1559
17086SOL    HW161188   4.328  10.290   8.961 -0.2092  0.7805 -0.1162
17086SOL    HW261189   4.186  10.327   8.925 -0.7817 -1.3607 -0.2189
17087SOL     OW61190  12.447  12.841   1.319  0.7074 -0.1943 -0.4692
17087SOL    HW161191  12.496  12.793   1.386  1.6053 -0.7714 -1.5151
17087SOL    HW261192  12.424  12.924   1.361 -1.6718 -1.7960  1.7122
17088SOL     OW61193   7.959   1.568   4.723  0.0612 -0.0225  0.2223
17088SOL    HW161194   7.902   1.543   4.651 -0.0450  0.2065  0.2271
17088SOL    HW261195   7.940   1.660   4.739 -1.7426 -0.6603  2.1998
17089SOL     OW61196   8.512   0.816   4.163  0.3873 -0.2425 -0.1974
17089SOL    HW161197   8.455   0.821   4.239 -1.0428 -0.3342 -1.2139
17089SOL    HW261198   8.511   0.724   4.138 -0.8357  0.0992 -1.5184
17090SOL     OW61199   9.788   7.476   0.881  0.5172 -0.0505 -0.3871
17090SOL    HW161200   9.866   7.449   0.832  0.5767  0.2155 -0.4435
17090SOL    HW261201   9.814   7.559   0.922  0.7812 -0.7094  0.8268
17091SOL     OW61202   8.487   2.120  11.051 -0.2716  0.1747 -0.3977
17091SOL    HW161203   8.457   2.035  11.018 -0.8150 -0.1979  1.0226
17091SOL    HW261204   8.435   2.136  11.129  1.4945  0.6775  0.7454
17092SOL     OW61205   0.602   1.480  11.104 -0.0677 -0.2898  0.1399
17092SOL    HW161206   0.530   1.540  11.085 -0.5402 -0.1926  2.0161
17092SOL    HW261207   0.680   1.527  11.075 -0.5084  0.9194  0.8273
17093SOL     OW61208   5.024   9.409   4.451 -0.3956 -0.7449 -0.0849
17093SOL    HW161209   5.038   9.492   4.496 -0.8103 -0.8038  0.1594
17093SOL    HW261210   4.936   9.418   4.413 -0.5838 -1.1993  0.2347
17094SOL     OW61211   6.943   6.186   4.325 -0.0593 -0.9654  0.1918
17094SOL    HW161212   6.880   6.129   4.282  2.6568 -2.0779 -2.7577
17094SOL    HW261213   6.967   6.140   4.405 -1.0670 -1.8197  0.0165
17095SOL     OW61214   1.278   2.801   1.543 -0.2416  0.0809  0.1417
17095SOL    HW161215   1.294   2.824   1.634 -1.7328  0.0261  0.4420
17095SOL    HW261216   1.194   2.755   1.544 -0.7560  0.9116 -1.3619
17096SOL     OW61217   4.970  11.699   7.289  0.1184 -0.2795  0.3141
17096SOL    HW161218   5.039  11.635   7.271  0.5720 -0.0860  1.3363
17096SOL    HW261219   5.009  11.762   7.349 -0.2034  1.2072 -0.9670
17097SOL     OW61220  11.478  10.638   9.650 -0.0041 -0.3227 -0.4823
17097SOL    HW161221  11.505  10.705   9.588  2.4847 -0.6891  0.1166
17097SOL    HW261222  11.558  10.612   9.695 -1.4366 -1.3075  1.6894
17098SOL     OW61223   6.570   8.037   5.549  0.4113  0.0987 -0.1027
17098SOL    HW161224   6.518   8.090   5.489  0.4752  0.7153  0.3792
17098SOL    HW261225   6.579   8.090   5.627 -1.8663 -1.6988  1.5089
17099SOL     OW61226   1.148   5.726   5.916  0.2117 -0.0204 -0.7480
17099SOL    HW161227   1.055   5.735   5.894  0.0539 -2.1903 -1.1056
17099SOL    HW261228   1.189   5.692   5.836  0.9948 -0.7962 -0.0367
17100SOL     OW61229   1.008   5.942   8.747  0.0260  0.5105 -0.6863
17100SOL    HW161230   0.928   5.890   8.737 -0.5142  1.2770 -0.4006
17100SOL    HW261231   1.076   5.889   8.705 -0.5769 -0.2705 -0.6962
17101SOL     OW61232   8.948  10.458   9.239  0.0087 -0.4356 -0.3056
17101SOL    HW161233   8.962  10.537   9.291 -0.2923  0.7881 -2.0048
17101SOL    HW261234   8.862  10.425   9.268 -0.8733  1.1053 -1.0689
17102SOL     OW61235   7.747   8.527   6.822  0.5524  0.4321 -0.3786
17102SOL    HW161236   7.767   8.543   6.914  1.6678 -0.5666 -0.4402
17102SOL    HW261237   7.653   8.549   6.815  0.2756 -0.1275  1.1314
17103SOL     OW61238   1.215   4.411   1.724  0.1272  0.3187  0.0037
17103SOL    HW161239   1.252   4.338   1.673  2.4495  2.4470 -1.6650
17103SOL    HW261240   1.221   4.382   1.815 -0.1291 -1.9926 -0.6441
17104SOL     OW61241   3.913   2.635   7.990 -0.5024 -0.2957 -0.2549
17104SOL    HW161242   3.971   2.687   8.046 -0.8615  0.3716 -0.5035
17104SOL    HW261243   3.964   2.556   7.971 -0.4183 -0.5903  1.1001
17105SOL     OW61244   8.632   0.511   6.608  0.7482  0.2327  0.3207
17105SOL    HW161245   8.697   0.482   6.545  2.2912  0.8711  1.5421
17105SOL    HW261246   8.663   0.598   6.636 -1.0707  0.9144  0.3528
17106SOL     OW61247   1.268   9.028   7.899  0.1466  0.1836  0.0885
17106SOL    HW161248   1.208   8.979   7.955  3.1388 -1.7931  1.7975
17106SOL    HW261249   1.331   8.964   7.868  0.6587  1.8943 -2.8292
17107SOL     OW61250  10.676   5.560  12.140 -0.1542 -0.0317  0.5435
17107SOL    HW161251  10.754   5.549  12.086 -0.0699  2.4313  0.0351
17107SOL    HW261252  10.603   5.538  12.082  0.0899 -0.7669  0.5150
17108SOL     OW61253  12.173   4.547   1.635  0.5660  0.3023  0.0387
17108SOL    HW161254  12.189   4.487   1.562 -2.4426  0.4795 -0.8954
17108SOL    HW261255  12.097   4.599   1.608  0.2193  1.3597  2.7043
17109SOL     OW61256  11.447   5.930   4.280  0.1368 -0.0087  0.2870
17109SOL    HW161257  11.429   6.005   4.224 -3.6317 -1.5561 -0.8964
17109SOL    HW261258  11.522   5.887   4.239  0.5529  1.5325 -0.6507
17110SOL     OW61259   9.504  10.399   9.369 -0.0939 -0.1547  0.3332
17110SOL    HW161260   9.480  10.403   9.461  1.5847 -0.0040  0.7867
17110SOL    HW261261   9.513  10.490   9.342  1.2356 -0.2049  0.5437
17111SOL     OW61262  11.497   2.642   4.016 -0.5145  1.0343 -0.3922
17111SOL    HW161263  11.545   2.600   3.944  1.9346  0.3567  1.4827
17111SOL    HW261264  11.546   2.722   4.034 -2.1201  2.0960 -0.5359
17112SOL     OW61265   5.073   0.001  13.217  0.1226 -0.4373  0.2066
17112SOL    HW161266   5.038   0.074  13.268  0.7441 -0.2621  0.3908
17112SOL    HW261267   5.153   0.036  13.178 -0.4903 -0.4686 -1.1426
17113SOL     OW61268  10.654   0.862  13.264 -0.1450 -0.3991  0.2020
17113SOL    HW161269  10.656   0.807  13.342 -0.3705  0.9979  1.2176
17113SOL    HW261270  10.573   0.913  13.272 -0.5754 -0.7791 -1.3436
17114SOL     OW61271   1.626   8.634   2.932  0.2046  0.1358 -0.1099
17114SOL    HW161272   1.648   8.688   3.008 -1.8206  1.3475 -0.3001
17114SOL    HW261273   1.641   8.544   2.961  2.5613  0.7019  0.6054
17115SOL     OW61274  12.530   7.269   2.018  0.3959 -0.6043  0.5121
17115SOL    HW161275  12.608   7.247   1.967  1.6809  2.0644  1.1015
17115SOL    HW261276  12.558   7.262   2.109  0.4347  1.6052  0.7328
17116SOL     OW61277   4.474  12.177  12.957 -0.3795  0.0982  0.0450
17116SOL    HW161278   4.478  12.261  12.911 -0.0778  0.5446  0.8764
17116SOL    HW261279   4.545  12.126  12.918 -1.1570 -0.1322 -1.1294
17117SOL     OW61280   2.803   3.413   5.490 -0.1987  0.5144  0.5563
17117SOL    HW161281   2.829   3.375   5.406 -1.4942  0.2884  0.2340
17117SOL    HW261282   2.847   3.498   5.492 -2.0687  1.6620 -1.5273
17118SOL     OW61283  10.792   0.390  11.777  0.3682  0.1244  0.0473
17118SOL    HW161284  10.744   0.433  11.706 -0.2525  0.6077  0.7403
17118SOL    HW261285  10.884   0.409  11.758  0.2046  0.2976 -0.5950
17119SOL     OW61286   1.914  12.459   4.110 -0.3651 -0.0562 -0.1662
17119SOL    HW161287   1.841  12.399   4.093 -0.3277  0.3370 -1.9729
17119SOL    HW261288   1.981  12.404   4.150 -1.9451 -0.2196  2.4664
17120SOL     OW61289   7.736  10.413   9.709  0.2272  0.2700  0.1428
17120SOL    HW161290   7.762  10.479   9.774 -0.8154  0.9642 -0.1130
17120SOL    HW261291   7.669  10.361   9.754  1.9153 -1.4550  0.7783
17121SOL     OW61292   4.162   7.519  10.407 -0.4210  0.2264  0.0123
17121SOL    HW161293   4.099   7.497  10.476 -1.3881 -1.1251 -1.2526
17121SOL    HW261294   4.115   7.505  10.326  1.2726 -0.0280 -0.9720
17122SOL     OW61295  12.327  10.347   0.267  0.1274  0.4626 -0.3149
17122SOL    HW161296  12.362  10.280   0.208  2.3264  1.9972 -0.8999
17122SOL    HW261297  12.404  10.395   0.297 -1.1983  1.5226  1.6161
17123SOL     OW61298  13.180   7.524   1.836  0.0279 -0.0646 -0.2026
17123SOL    HW161299  13.199   7.451   1.895  1.6367 -0.0308 -0.6249
17123SOL    HW261300  13.089   7.547   1.855 -0.1845 -1.4882  0.6791
17124SOL     OW61301  12.069   7.950  10.949  0.0993  0.4984  0.0164
17124SOL    HW161302  12.036   7.962  11.038  1.3985 -2.1422  0.9663
17124SOL    HW261303  12.160   7.981  10.952 -0.2697  1.7421 -0.8271
17125SOL     OW61304   5.972   5.237   0.662 -0.2040  0.0514  0.4728
17125SOL    HW161305   5.916   5.276   0.595 -0.0761 -1.2390 -0.4110
17125SOL    HW261306   6.060   5.273   0.644  0.0317 -1.0636 -0.7126
17126SOL     OW61307   3.091   9.455  12.528  0.4838  0.2848 -1.0012
17126SOL    HW161308   3.061   9.436  12.617  1.8466 -1.6088 -0.8840
17126SOL    HW261309   3.011   9.467  12.478 -0.3150  1.0611  0.3875
17127SOL     OW61310   5.930  11.427   1.421  0.0943  0.6577 -0.2754
17127SOL    HW161311   5.860  11.411   1.358  0.7876  1.2405 -1.2252
17127SOL    HW261312   5.885  11.449   1.502 -0.8734 -3.2114  0.4004
17128SOL     OW61313   9.226   6.545  10.303  0.3553  0.0417  0.2065
17128SOL    HW161314   9.232   6.640  10.291  1.1773 -0.0106  0.1233
17128SOL    HW261315   9.183   6.534  10.388  1.9172  0.5386  1.1212
17129SOL     OW61316   2.427  11.934   6.721 -0.2140  0.6826  0.7893
17129SOL    HW161317   2.423  11.926   6.817  0.4206 -0.4023  0.7362
17129SOL    HW261318   2.505  11.987   6.705  0.5719 -0.4213  0.8363
17130SOL     OW61319   9.489  11.220   3.906  0.9034 -0.0017 -0.0863
17130SOL    HW161320   9.563  11.273   3.877  1.4236 -0.1340  0.9618
17130SOL    HW261321   9.427  11.283   3.941  0.4388  0.1217 -1.0844
17131SOL     OW61322  12.758   0.644   5.350 -0.5028 -0.4001  0.6121
17131SOL    HW161323  12.738   0.644   5.443  2.3788  0.7705  1.3559
17131SOL    HW261324  12.748   0.553   5.323 -2.1857 -0.6171  1.8238
17132SOL     OW61325   1.472   4.087   2.463 -0.5159  0.0512  0.2563
17132SOL    HW161326   1.521   4.165   2.438 -1.8297  0.9236  0.3469
17132SOL    HW261327   1.533   4.038   2.519  1.3329 -0.4068 -1.9912
17133SOL     OW61328   0.463   9.451  11.674  0.4316  0.1541 -0.3492
17133SOL    HW161329   0.498   9.539  11.667  1.2062 -0.1061  0.1073
17133SOL    HW261330   0.446   9.425  11.583  1.0342  0.4483 -0.5561
17134SOL     OW61331  12.341  11.354   2.959 -0.8405 -1.3607  0.4036
17134SOL    HW161332  12.289  11.324   2.884 -0.9907  1.4843 -0.7362
17134SOL    HW261333  12.432  11.344   2.931 -0.8959 -0.2584 -0.2375
17135SOL     OW61334  11.903   0.369  12.682 -0.5195  0.3548 -0.1061
17135SOL    HW161335  11.899   0.274  12.685  0.3926  0.3212  0.6060
17135SOL    HW261336  11.870   0.397  12.767 -0.0034  0.6356  0.0038
17136SOL     OW61337   4.436   0.066  10.918  0.0135  0.3306 -0.3379
17136SOL    HW161338   4.491   0.001  10.875  0.1105  0.2320 -0.0666
17136SOL    HW261339   4.444   0.144  10.863  0.9158  0.5054  0.0244
17137SOL     OW61340  10.232   0.769  10.805 -0.2860 -0.2384 -0.2292
17137SOL    HW161341  10.316   0.736  10.773  0.8641  1.7850  0.5316
17137SOL    HW261342  10.210   0.840  10.745 -0.7089  0.1761  0.4031
17138SOL     OW61343  10.154   7.761   0.062  0.2397  0.0288  0.0812
17138SOL    HW161344  10.177   7.776  -0.029 -0.9447  0.4839 -0.1471
17138SOL    HW261345  10.205   7.683   0.087 -0.4624 -0.9206 -1.3595
17139SOL     OW61346   3.857   8.558   2.210  0.2478  0.4111  0.8994
17139SOL    HW161347   3.815   8.474   2.196  0.3147  0.3579  1.0249
17139SOL    HW261348   3.821   8.614   2.141 -0.2335  0.4427  1.1709
17140SOL     OW61349  12.933   2.540  10.045 -0.3167  0.5370  0.5104
17140SOL    HW161350  13.020   2.580  10.043 -0.4335  0.7898  0.5262
17140SOL    HW261351  12.905   2.538   9.954 -0.7673  1.4882  0.6202
17141SOL     OW61352  10.633  12.099   0.483 -0.1550  0.0677  0.1929
17141SOL    HW161353  10.626  12.195   0.479 -0.4792  0.0350 -0.0635
17141SOL    HW261354  10.664  12.081   0.571 -0.6846  0.3752  0.4434
17142SOL     OW61355   1.954   4.762   1.922 -0.0906  0.1849 -0.4135
17142SOL    HW161356   1.972   4.750   1.828 -0.5193 -0.9830 -0.3588
17142SOL    HW261357   1.871   4.718   1.936  0.3276 -0.2860  0.6665
17143SOL     OW61358   0.757  12.215   2.930  0.2770 -0.5491 -0.0818
17143SOL    HW161359   0.820  12.143   2.937  1.6456  0.1762 -3.2566
17143SOL    HW261360   0.681  12.175   2.886  1.1352 -0.1190 -2.0753
17144SOL     OW61361   0.823  12.769   5.790  0.1531 -0.3137 -0.3599
17144SOL    HW161362   0.799  12.862   5.785  1.1042 -0.0744 -0.6797
17144SOL    HW261363   0.881  12.764   5.866  1.8556 -0.2222 -1.5990
17145SOL     OW61364   7.075   1.735   0.074 -0.1258  0.3249  1.0143
17145SOL    HW161365   7.062   1.721  -0.020 -1.3048  1.5760  0.9545
17145SOL    HW261366   7.039   1.657   0.115  0.0104 -0.0461  0.4497
17146SOL     OW61367  10.968  13.070   9.303 -0.3498  0.7834 -0.4356
17146SOL    HW161368  10.903  13.083   9.234 -0.8083 -1.0697 -0.4091
17146SOL    HW261369  10.935  12.995   9.353  1.2702  0.4893  0.2584
17147SOL     OW61370   6.583   0.961  12.622  0.3972 -0.3717  0.3258
17147SOL    HW161371   6.502   0.911  12.624  0.1870 -0.0254  1.5212
17147SOL    HW261372   6.555   1.052  12.617  0.7486 -0.3047 -0.5702
17148SOL     OW61373  11.236   3.396   6.506  0.1296 -0.4686 -0.0953
17148SOL    HW161374  11.204   3.309   6.480  1.7490 -0.8199 -1.0662
17148SOL    HW261375  11.265   3.386   6.596 -0.2289 -0.7844 -0.0146
17149SOL     OW61376   9.414  12.463   9.964  0.2999 -0.2736  0.2492
17149SOL    HW161377   9.499  12.423   9.948  0.8471  0.6690  0.6614
17149SOL    HW261378   9.350  12.393   9.949  0.8496 -0.1551 -3.5348
17150SOL     OW61379  12.425  10.222   1.217 -0.1828 -0.6471 -0.0775
17150SOL    HW161380  12.511  10.253   1.188  0.8302 -0.6288  2.6594
17150SOL    HW261381  12.392  10.171   1.142  1.9971 -0.2781 -1.3849
17151SOL     OW61382   2.327   3.272   7.103 -0.2905  0.6076 -0.0221
17151SOL    HW161383   2.256   3.324   7.142 -1.5265  1.0447 -2.6249
17151SOL    HW261384   2.282   3.204   7.053  1.2051 -0.1722 -0.3578
17152SOL     OW61385  11.059   3.979   7.719 -0.1639  0.3800 -0.1830
17152SOL    HW161386  11.069   3.927   7.799 -1.5558 -0.1725 -0.3381
17152SOL    HW261387  11.149   4.002   7.694  0.4258 -1.0747  0.4780
17153SOL     OW61388   0.966   4.075   9.995 -0.2412  0.1918 -0.1754
17153SOL    HW161389   0.923   4.090  10.079  0.9607 -1.9917  0.9374
17153SOL    HW261390   0.895   4.063   9.932 -1.1779  0.6178  0.7870
17154SOL     OW61391  10.312   8.368  10.204  0.4697 -0.6918 -0.0341
17154SOL    HW161392  10.270   8.446  10.240 -0.5583 -1.2645  0.0427
17154SOL    HW261393  10.242   8.303  10.200  1.0947 -1.3246 -0.9877
17155SOL     OW61394  10.222   1.679   9.847 -0.0334  0.1225 -0.4472
17155SOL    HW161395  10.134   1.713   9.833 -0.4352 -1.1930 -1.2426
17155SOL    HW261396  10.259   1.670   9.759  0.5195 -0.2918 -0.1809
17156SOL     OW61397   1.777   0.876  12.875  0.2257 -0.3067 -0.1556
17156SOL    HW161398   1.744   0.849  12.960 -2.4805  0.7334 -0.7648
17156SOL    HW261399   1.760   0.801  12.817 -0.2520 -0.1076 -0.2781
17157SOL     OW61400   2.516   1.936  12.634 -0.3172  0.6321 -0.7159
17157SOL    HW161401   2.421   1.946  12.628 -0.2471  1.7203 -0.2187
17157SOL    HW261402   2.544   1.923  12.544 -0.9948 -0.3680 -0.7995
17158SOL     OW61403  11.716   2.038   7.224 -0.1604  0.1537 -0.3109
17158SOL    HW161404  11.732   2.123   7.184  0.0038  0.6093  0.6790
17158SOL    HW261405  11.637   2.052   7.278 -0.9354 -0.6929 -1.1918
17159SOL     OW61406   2.678  10.380   6.166  0.0950  0.4912 -0.5570
17159SOL    HW161407   2.719  10.458   6.202  1.2609 -0.8726  1.2753
17159SOL    HW261408   2.706  10.377   6.075  1.0323  1.5495 -0.3203
17160SOL     OW61409   8.972  11.001   3.842 -0.6165 -0.2055 -0.5047
17160SOL    HW161410   8.936  11.082   3.877 -2.2827 -0.6128 -1.1534
17160SOL    HW261411   9.005  11.025   3.755  1.0965  0.2464  0.2346
17161SOL     OW61412   2.774   9.217  12.279  0.2076  0.0822 -0.7278
17161SOL    HW161413   2.818   9.172  12.351  0.2239  1.3134  0.0662
17161SOL    HW261414   2.831   9.204  12.204  1.1889  0.3732 -0.0676
17162SOL     OW61415  13.189   8.004   2.895  0.6287 -0.2488 -0.4158
17162SOL    HW161416  13.170   7.965   2.810  0.8325 -2.1842  0.3612
17162SOL    HW261417  13.254   7.945   2.934  1.1734  1.0611  0.7408
17163SOL     OW61418   4.418   4.588  12.919  0.4070 -0.2526 -0.5966
17163SOL    HW161419   4.408   4.615  13.010 -1.6760 -0.0231 -0.8433
17163SOL    HW261420   4.335   4.545  12.897 -0.2138  1.9450 -3.1290
17164SOL     OW61421   9.342   8.274  10.426 -0.0499  0.0856  0.1628
17164SOL    HW161422   9.338   8.340  10.495 -0.2925  0.5377 -0.2761
17164SOL    HW261423   9.251   8.247  10.414  0.1847 -1.2767  1.2261
17165SOL     OW61424  12.491   8.387  10.629  0.0590 -0.2720 -0.1053
17165SOL    HW161425  12.452   8.302  10.607 -1.0108 -0.1804  1.3072
17165SOL    HW261426  12.536   8.372  10.712 -1.0332  0.7778  0.6972
17166SOL     OW61427   1.640   0.215  12.792 -0.3313 -0.0099 -0.2288
17166SOL    HW161428   1.633   0.147  12.725 -1.1632  1.6330 -1.8970
17166SOL    HW261429   1.589   0.288  12.758  1.3670  1.8598  0.9760
17167SOL     OW61430  10.969  11.492  12.350  0.6909  0.2453  0.1751
17167SOL    HW161431  10.917  11.445  12.415  0.5639  0.7607  0.4458
17167SOL    HW261432  10.982  11.428  12.279  1.6606 -0.6524  1.1185
17168SOL     OW61433   5.636   5.477  11.902 -0.1354  0.4121  0.4512
17168SOL    HW161434   5.584   5.405  11.934  0.3659  0.2666  0.9590
17168SOL    HW261435   5.663   5.451  11.814 -2.0043  1.0704 -0.3532
17169SOL     OW61436   4.783  11.830   7.916 -0.1876  0.4325 -0.5708
17169SOL    HW161437   4.871  11.803   7.942 -0.2055 -1.3709 -2.1359
17169SOL    HW261438   4.784  11.926   7.925  2.1560  0.5284 -1.1506
17170SOL     OW61439   6.608   8.952  12.552 -0.0951 -0.3245 -0.3689
17170SOL    HW161440   6.569   8.869  12.580  0.0005 -0.6350 -1.1317
17170SOL    HW261441   6.667   8.928  12.481  0.9044  0.2382  0.2489
17171SOL     OW61442   0.871   1.588   6.835 -0.5592 -0.3440 -0.3341
17171SOL    HW161443   0.834   1.508   6.798 -0.0740 -1.0086  0.5854
17171SOL    HW261444   0.927   1.558   6.906 -1.6498  0.8830  1.1184
17172SOL     OW61445   2.927   9.724   4.688 -0.2497  0.1095  0.1787
17172SOL    HW161446   3.007   9.772   4.664 -0.6054  0.8669  0.4793
17172SOL    HW261447   2.856   9.783   4.663 -0.6943 -0.2133  0.6718
17173SOL     OW61448   7.963   7.323   7.757 -0.0630  0.1879  0.1087
17173SOL    HW161449   7.895   7.281   7.704 -0.0135 -0.7079  0.7231
17173SOL    HW261450   7.931   7.411   7.772  0.0451  0.5655 -1.6338
17174SOL     OW61451  12.084   7.687   7.222  0.0841 -0.1391 -0.0629
17174SOL    HW161452  12.151   7.737   7.176  0.6337  0.6860  1.5338
17174SOL    HW261453  12.105   7.595   7.205  0.3846  0.1384 -1.2373
17175SOL     OW61454   1.998   1.077   6.346  0.0768 -0.1815  0.0606
17175SOL    HW161455   1.922   1.104   6.294  0.1669 -0.0467  0.0012
17175SOL    HW261456   2.009   0.984   6.325 -0.6489 -0.4463  0.7799
17176SOL     OW61457  12.007   0.132   8.749  0.1902 -0.2244  0.1982
17176SOL    HW161458  11.931   0.108   8.696 -0.1360 -0.9181  0.9609
17176SOL    HW261459  12.010   0.227   8.745 -0.3878 -0.2216 -0.2917
17177SOL     OW61460   1.809  11.548   5.362 -0.3494 -0.3382 -0.2028
17177SOL    HW161461   1.883  11.608   5.375 -1.3664  0.7576  0.8598
17177SOL    HW261462   1.844  11.462   5.385  1.2225 -0.2643 -2.0010
17178SOL     OW61463  11.499   2.184   2.606  0.3292 -0.2667  0.9501
17178SOL    HW161464  11.588   2.176   2.571  0.4583  1.1439  0.9126
17178SOL    HW261465  11.457   2.247   2.548 -1.0035 -1.6037  0.4072
17179SOL     OW61466   6.142   0.175   5.271  0.3553  0.1315 -0.2177
17179SOL    HW161467   6.148   0.080   5.282 -0.5253  0.0498 -0.3179
17179SOL    HW261468   6.220   0.209   5.313  0.7681 -0.6509 -0.3258
17180SOL     OW61469   4.659   5.045   0.781  0.6474  0.3157  0.1671
17180SOL    HW161470   4.707   5.067   0.861  2.0015 -2.2267  0.1803
17180SOL    HW261471   4.671   5.120   0.724  1.9355  1.0818  1.3884
17181SOL     OW61472  12.461   3.043  11.474 -0.2012  0.3290  0.3728
17181SOL    HW161473  12.437   3.063  11.565 -0.6640 -0.7245  0.5004
17181SOL    HW261474  12.436   3.121  11.425 -1.8790  0.1351  0.8400
17182SOL     OW61475   6.054   1.708   4.302  0.3208 -0.0738  0.4919
17182SOL    HW161476   6.052   1.613   4.310  2.0212 -0.1350  0.5520
17182SOL    HW261477   6.121   1.725   4.236 -0.7952  1.0690 -0.4175
17183SOL     OW61478   4.312  13.075   4.893  0.2697  0.2316  0.0068
17183SOL    HW161479   4.334  12.982   4.899 -1.4848 -0.1476  1.0248
17183SOL    HW261480   4.317  13.095   4.799  3.1283 -0.1992 -0.0299
17184SOL     OW61481   0.870   1.791   5.600  0.5402  0.2893 -0.0615
17184SOL    HW161482   0.821   1.743   5.534  0.9754  0.3069 -0.4075
17184SOL    HW261483   0.895   1.873   5.556 -0.2017  0.8425  0.5249
17185SOL     OW61484  12.627  10.339  12.129 -0.3080  0.2197 -0.3558
17185SOL    HW161485  12.640  10.333  12.224  2.3826  0.8071 -0.6178
17185SOL    HW261486  12.670  10.261  12.094 -1.5987 -0.1883 -1.1257
17186SOL     OW61487   4.825   4.643  10.791 -0.3452  0.3174  0.1653
17186SOL    HW161488   4.881   4.567  10.804 -0.6349  0.1230  0.2884
17186SOL    HW261489   4.838   4.668  10.700  0.8373  0.9905  0.4884
17187SOL     OW61490   3.884   6.808   0.696  0.0307  0.3760 -0.3737
17187SOL    HW161491   3.805   6.808   0.750  0.3608  0.5273  0.1141
17187SOL    HW261492   3.956   6.806   0.759  0.4291 -2.6994 -0.7929
17188SOL     OW61493  11.567   6.816   4.651 -0.3574  0.3473 -0.6591
17188SOL    HW161494  11.531   6.865   4.725  0.8938  0.4431 -0.0968
17188SOL    HW261495  11.547   6.724   4.672 -0.5322  0.4181 -0.5058
17189SOL     OW61496   3.135   3.505   9.515  0.2882  0.4273 -0.2312
17189SOL    HW161497   3.171   3.555   9.443  0.9316  0.2126 -0.0607
17189SOL    HW261498   3.164   3.551   9.594  1.1192 -0.3551 -0.0651
17190SOL     OW61499   2.994   9.341   2.132 -0.2679 -0.2634 -0.1122
17190SOL    HW161500   3.045   9.266   2.104 -1.8877 -0.9234 -1.4259
17190SOL    HW261501   3.020   9.355   2.224  0.8013 -1.7635 -0.1631
17191SOL     OW61502  12.786   8.050   2.773 -0.4530  0.4477 -0.2715
17191SOL    HW161503  12.790   8.044   2.678 -0.0750  0.6593 -0.2717
17191SOL    HW261504  12.702   8.012   2.796 -0.8592  1.0334 -0.7460
17192SOL     OW61505   6.498   1.319   9.600 -0.0352 -0.4769  0.3070
17192SOL    HW161506   6.482   1.254   9.532 -1.1118 -0.3653  0.4293
17192SOL    HW261507   6.516   1.400   9.552  3.2878 -1.1837  0.0976
17193SOL     OW61508  10.208   0.716   2.656 -0.1596 -0.0096  0.3634
17193SOL    HW161509  10.174   0.627   2.642  1.0471 -0.5682  0.8348
17193SOL    HW261510  10.135   0.764   2.695 -1.5566 -0.1457 -1.9551
17194SOL     OW61511   5.870   6.182   9.079  0.7257  0.1747 -0.5828
17194SOL    HW161512   5.916   6.261   9.106  0.9418 -0.2011  0.1838
17194SOL    HW261513   5.890   6.118   9.147  0.3164 -0.4541 -1.0390
17195SOL     OW61514   1.155   2.276  10.466 -0.0507 -0.4513 -0.1104
17195SOL    HW161515   1.138   2.321  10.549 -1.1447 -0.3450 -0.3766
17195SOL    HW261516   1.070   2.275  10.422  0.5562 -0.3267 -1.3241
17196SOL     OW61517   0.488   8.167   5.527  0.0775  0.4375 -0.6843
17196SOL    HW161518   0.445   8.248   5.554 -1.2135 -1.0048  1.8479
17196SOL    HW261519   0.545   8.194   5.454  1.1268  3.9736  1.2239
17197SOL     OW61520   7.337  10.502  10.054 -0.2419  0.2217  0.2154
17197SOL    HW161521   7.254  10.468  10.088  0.0480 -0.4493  0.2647
17197SOL    HW261522   7.397  10.498  10.128 -0.2827  1.1791  0.3225
17198SOL     OW61523   5.928   7.476   2.847  0.0252  0.0801  0.3432
17198SOL    HW161524   5.985   7.513   2.780 -0.5152  1.3100  0.5437
17198SOL    HW261525   5.859   7.431   2.798  0.8380 -0.9643  0.1032
17199SOL     OW61526  12.745   8.294   7.345 -0.5720  0.1062 -0.0555
17199SOL    HW161527  12.787   8.379   7.336 -2.7786  1.3997  0.9829
17199SOL    HW261528  12.751   8.274   7.439 -0.6182 -0.5678 -0.1938
17200SOL     OW61529   5.087   7.931   3.305 -0.3357  0.3480 -0.2241
17200SOL    HW161530   5.169   7.899   3.268 -0.3224  1.0726 -0.8480
17200SOL    HW261531   5.049   7.855   3.349  0.8389  0.0975  0.3867
17201SOL     OW61532   7.083   3.678   4.904 -0.2210  0.2321  0.6104
17201SOL    HW161533   7.150   3.732   4.864 -0.4002  0.8716  1.1555
17201SOL    HW261534   7.126   3.637   4.979  0.3391 -1.5860 -0.6392
17202SOL     OW61535   5.746   1.327  10.516  0.1212 -0.0817  0.3553
17202SOL    HW161536   5.785   1.351  10.432  0.1761  0.5734  0.5660
17202SOL    HW261537   5.754   1.231  10.519  0.3087 -0.0926 -0.2888
17203SOL     OW61538   6.068  10.510   3.710  0.4296 -0.0859 -0.2211
17203SOL    HW161539   6.071  10.489   3.804 -0.0410  3.1521  0.6244
17203SOL    HW261540   5.976  10.528   3.692  0.3714 -1.5236 -1.5873
17204SOL     OW61541   0.975   3.562  11.596 -0.0726 -0.0493  0.0233
17204SOL    HW161542   0.946   3.592  11.510  0.5891 -0.7089 -0.4510
17204SOL    HW261543   1.060   3.520  11.579 -0.2648 -0.8297  0.8817
17205SOL     OW61544   8.870   7.428  12.097  0.4157  0.0390 -0.0359
17205SOL    HW161545   8.785   7.411  12.057  0.5025  0.5795 -0.4633
17205SOL    HW261546   8.923   7.352  12.075 -0.3662 -1.0047  1.4523
17206SOL     OW61547   3.678   1.302   9.059 -0.0930 -0.3134  0.0084
17206SOL    HW161548   3.700   1.228   9.116 -1.9762 -0.3908  0.7120
17206SOL    HW261549   3.653   1.372   9.120  0.1529  0.3921 -0.6866
17207SOL     OW61550   4.754   8.183   9.372  0.2623  0.0485  0.1738
17207SOL    HW161551   4.797   8.217   9.450 -1.8113  0.3647  1.2606
17207SOL    HW261552   4.722   8.260   9.326 -0.3010 -0.2163  0.1054
17208SOL     OW61553   3.337   5.897   7.527 -0.0377 -0.0108 -0.0428
17208SOL    HW161554   3.288   5.975   7.501  1.9849  0.9457 -1.1953
17208SOL    HW261555   3.384   5.924   7.605  0.4918 -0.1446 -0.3148
17209SOL     OW61556   3.531  12.195   5.070  0.0810  0.0252  0.6017
17209SOL    HW161557   3.576  12.280   5.076 -1.0315  0.5588  1.9119
17209SOL    HW261558   3.584  12.137   5.124  0.9411 -0.1900 -0.4343
17210SOL     OW61559   9.054   4.666   2.814  0.5557  0.3140 -0.1471
17210SOL    HW161560   9.060   4.717   2.733 -2.9091  0.5997 -0.3518
17210SOL    HW261561   9.014   4.583   2.787  0.5210 -0.1043  1.1180
17211SOL     OW61562   7.850   8.608   2.450 -0.2093  0.3743  0.2070
17211SOL    HW161563   7.853   8.513   2.450 -1.3207  0.2620 -2.0500
17211SOL    HW261564   7.777   8.630   2.509 -0.9874 -0.2779 -0.4870
17212SOL     OW61565   5.184  11.309  11.213  0.0572 -0.0970 -0.2951
17212SOL    HW161566   5.184  11.294  11.307  2.2791  0.3073 -0.1796
17212SOL    HW261567   5.273  11.288  11.185 -0.5150 -0.0739 -2.2931
17213SOL     OW61568   3.232   5.813   2.917 -0.3863  0.2466 -0.6365
17213SOL    HW161569   3.266   5.883   2.861 -0.9670  2.8793  2.0465
17213SOL    HW261570   3.298   5.803   2.985 -2.0146  1.0034  1.1543
17214SOL     OW61571   7.826  13.113  10.209 -0.2138 -0.7282  0.5018
17214SOL    HW161572   7.860  13.028  10.236 -0.0155 -1.7632 -2.6740
17214SOL    HW261573   7.782  13.097  10.126 -0.3526  2.2629 -0.1276
17215SOL     OW61574   2.702   8.309   8.914 -0.0152  0.3652  0.2436
17215SOL    HW161575   2.672   8.308   8.823  0.3993 -0.1343  0.1080
17215SOL    HW261576   2.623   8.296   8.966  0.0026 -1.4291 -0.1190
17216SOL     OW61577  13.182   2.783   1.778 -0.0309  0.2970  0.4921
17216SOL    HW161578  13.135   2.866   1.775 -3.2335 -1.3294  0.8579
17216SOL    HW261579  13.221   2.779   1.865  0.8558  1.7005  0.1855
17217SOL     OW61580   3.819   0.997   8.248  0.4251  0.5080  0.2251
17217SOL    HW161581   3.908   0.972   8.225  0.2083 -1.0400  0.9700
17217SOL    HW261582   3.823   1.092   8.259  2.0928  0.4121  0.7105
17218SOL     OW61583  11.112   8.073   5.115  0.3143  0.5751  0.8202
17218SOL    HW161584  11.059   8.014   5.062 -2.5907  1.4746  2.4995
17218SOL    HW261585  11.187   8.094   5.059 -2.0057  0.7202 -2.5897
17219SOL     OW61586   7.905   9.953   0.332 -0.1140 -0.1988  0.0318
17219SOL    HW161587   7.913   9.935   0.426 -0.1237 -0.6672 -0.0553
17219SOL    HW261588   7.945   9.878   0.289 -0.7809 -0.3491 -0.3468
17220SOL     OW61589   5.341   9.306  12.845 -0.0937  0.5036  0.1201
17220SOL    HW161590   5.288   9.299  12.765  0.7297  1.0267 -0.4845
17220SOL    HW261591   5.325   9.396  12.875 -1.2614 -0.0301  1.1751
17221SOL     OW61592   0.032   0.121   2.201 -0.2765 -0.1770  0.1495
17221SOL    HW161593   0.126   0.139   2.196 -0.0824 -1.2170 -0.5191
17221SOL    HW261594   0.024   0.050   2.265 -0.7386  0.6690  1.0378
17222SOL     OW61595  12.982   5.600   7.746  0.2570  0.3739 -0.2547
17222SOL    HW161596  13.016   5.585   7.658 -0.8759  1.5931 -0.9329
17222SOL    HW261597  13.043   5.554   7.804  0.1773 -1.7591 -1.7594
17223SOL     OW61598  11.702   7.836   9.093  0.0363  0.2846 -0.5030
17223SOL    HW161599  11.696   7.783   9.013 -1.8077  1.6016 -1.3096
17223SOL    HW261600  11.744   7.778   9.157 -0.2864 -1.5208 -1.8398
17224SOL     OW61601   4.451   1.983  10.456  0.4272 -0.1366 -0.1571
17224SOL    HW161602   4.547   1.982  10.463  0.4209  1.8545  1.1554
17224SOL    HW261603   4.421   1.954  10.542 -0.1108  0.2488 -0.2062
17225SOL     OW61604   5.211   8.165   5.659 -0.5011 -0.0448  0.5214
17225SOL    HW161605   5.207   8.071   5.675 -1.6149  0.0711  1.0154
17225SOL    HW261606   5.227   8.172   5.565  0.3878 -0.7194  0.6070
17226SOL     OW61607   1.907   0.197   1.762  0.3969 -0.2193  0.0637
17226SOL    HW161608   1.980   0.234   1.713  1.7498 -1.2689  1.1957
17226SOL    HW261609   1.925   0.103   1.764 -0.2377 -0.3386  1.5622
17227SOL     OW61610   1.597  13.143   1.198 -0.6744 -0.6720  0.1418
17227SOL    HW161611   1.659  13.152   1.270 -2.1010  1.4313  1.2089
17227SOL    HW261612   1.638  13.080   1.139  1.6744 -0.6172  1.5865
17228SOL     OW61613   2.586   5.626  13.239  0.0499  0.4243  0.5653
17228SOL    HW161614   2.523   5.667  13.179  2.3379 -0.2125 -2.5319
17228SOL    HW261615   2.649   5.695  13.259  3.0640 -0.7602 -3.4608
17229SOL     OW61616   9.229   3.392   2.857 -0.2573 -0.3151  0.6512
17229SOL    HW161617   9.233   3.476   2.903 -1.6297 -0.0792  0.3647
17229SOL    HW261618   9.315   3.385   2.814 -0.6024  1.6139 -0.4662
17230SOL     OW61619   8.133   9.816   6.155 -0.4123  0.6162 -0.0418
17230SOL    HW161620   8.100   9.728   6.171 -0.1823  0.3272 -1.0767
17230SOL    HW261621   8.219   9.818   6.196 -0.5216  0.4489  0.1993
17231SOL     OW61622   2.704   1.053   8.851  0.1578  0.4238 -0.0020
17231SOL    HW161623   2.683   1.029   8.762 -1.7919  4.4469 -0.8704
17231SOL    HW261624   2.663   0.986   8.905  1.6274 -2.2635 -2.0052
17232SOL     OW61625   6.293  10.626   5.751  0.0646 -0.2562  0.1456
17232SOL    HW161626   6.298  10.721   5.745  0.1416 -0.3375 -1.2681
17232SOL    HW261627   6.217  10.610   5.806 -1.6864  0.6179 -1.8885
17233SOL     OW61628   5.105  12.060   6.700  0.1523  0.4312  0.5286
17233SOL    HW161629   5.077  12.137   6.650  1.0674 -0.2132 -1.0364
17233SOL    HW261630   5.136  12.095   6.783  0.4229  1.7518 -0.1064
17234SOL     OW61631   7.969  12.019   0.729  0.6236  0.0774  0.2502
17234SOL    HW161632   7.910  11.983   0.663  1.7136 -1.3793  0.0124
17234SOL    HW261633   7.965  11.956   0.801 -1.7775  2.4287  2.3666
17235SOL     OW61634   0.896   1.654   2.589 -0.4888 -0.2272  0.2166
17235SOL    HW161635   0.989   1.634   2.594  0.1660  2.1641 -0.8518
17235SOL    HW261636   0.873   1.683   2.678  0.7051  2.3959 -0.2261
17236SOL     OW61637  12.775   2.976   5.968 -0.2276  0.2926 -0.7759
17236SOL    HW161638  12.852   2.938   5.927  1.7716  0.4346  2.4871
17236SOL    HW261639  12.704   2.915   5.946  1.3294 -1.2453 -1.8196
17237SOL     OW61640   7.900   3.640   5.743 -0.0848  0.1085 -0.1105
17237SOL    HW161641   7.868   3.634   5.653  1.3625  1.4011 -0.7576
17237SOL    HW261642   7.823   3.623   5.797 -1.0368 -0.4492 -1.5792
17238SOL     OW61643   8.844   8.541   2.573 -0.0682  0.1766  0.2704
17238SOL    HW161644   8.781   8.476   2.542 -2.3298  2.5463 -0.4615
17238SOL    HW261645   8.804   8.625   2.553  2.9085  1.8635  0.7627
17239SOL     OW61646  12.702   5.358   4.972 -0.1707 -0.5920 -1.0192
17239SOL    HW161647  12.611   5.386   4.975 -0.5086 -1.7146 -0.4744
17239SOL    HW261648  12.737   5.379   5.058 -0.2700 -1.2970 -0.7993
17240SOL     OW61649   0.450  11.288   6.163  0.2817 -0.1007 -0.1152
17240SOL    HW161650   0.492  11.232   6.228  1.2592 -0.2398 -0.8434
17240SOL    HW261651   0.453  11.375   6.201  2.6768  0.1807 -0.7705
17241SOL     OW61652  13.082   3.227   3.254  0.8848  0.6293  0.2068
17241SOL    HW161653  13.106   3.284   3.328 -0.3227  1.5262 -0.0646
17241SOL    HW261654  13.086   3.284   3.177 -1.0191  0.5934  0.0172
17242SOL     OW61655   3.698   6.803   2.501 -0.2959  0.5431 -0.4526
17242SOL    HW161656   3.746   6.840   2.575  0.5510  1.1335 -1.2734
17242SOL    HW261657   3.631   6.868   2.481 -0.7755  0.2045  0.0300
17243SOL     OW61658   2.790   5.138   6.965  0.0116  0.0911 -0.2503
17243SOL    HW161659   2.823   5.200   6.900 -0.6916  2.1178  1.2451
17243SOL    HW261660   2.866   5.084   6.987  0.9578  1.1832 -0.7374
17244SOL     OW61661   9.687  12.010   7.070  0.9994  0.5271 -0.4718
17244SOL    HW161662   9.715  11.919   7.071 -0.7715 -0.0615 -0.4483
17244SOL    HW261663   9.684  12.033   6.977  0.9105  0.3721 -0.5080
17245SOL     OW61664   3.411   2.856   7.663 -0.1560 -0.0170  0.1812
17245SOL    HW161665   3.489   2.861   7.609 -0.8638  1.3276 -0.7811
17245SOL    HW261666   3.338   2.862   7.601 -1.0192 -0.1494  1.1447
17246SOL     OW61667  12.782   4.512  10.577  0.0264  0.2695 -0.3798
17246SOL    HW161668  12.713   4.454  10.544  1.2390 -0.9575 -0.8570
17246SOL    HW261669  12.859   4.456  10.585  1.0027  1.6130  0.0780
17247SOL     OW61670   4.750   3.631   3.092  0.1863 -0.2326 -0.0740
17247SOL    HW161671   4.788   3.713   3.061  0.7194 -1.0200 -1.5808
17247SOL    HW261672   4.805   3.563   3.054 -0.6708 -1.3186  0.5684
17248SOL     OW61673  10.577   4.811  13.295  0.6253  0.3325  0.4128
17248SOL    HW161674  10.485   4.825  13.316  0.5162  1.5138 -0.7433
17248SOL    HW261675  10.587   4.716  13.297 -0.1670  0.2363  2.2763
17249SOL     OW61676   8.130  11.651   8.599 -0.0881  0.1635  0.4360
17249SOL    HW161677   8.177  11.608   8.671  1.4218 -0.1291 -0.6869
17249SOL    HW261678   8.138  11.745   8.617  2.2870  0.1935 -0.5010
17250SOL     OW61679   1.461   9.846   8.995  0.1933 -0.7572 -0.2201
17250SOL    HW161680   1.419   9.873   8.913  0.4976  2.6298  0.5985
17250SOL    HW261681   1.527   9.783   8.968 -0.4079 -0.5300 -2.4417
17251SOL     OW61682  11.041   5.118   4.236 -0.0977 -0.0795  0.1376
17251SOL    HW161683  11.062   5.102   4.329  1.8604 -1.8154 -0.5052
17251SOL    HW261684  11.090   5.197   4.214 -1.3439  0.9080  0.7750
17252SOL     OW61685  13.254   6.512   7.679 -0.2716 -0.2773 -0.1368
17252SOL    HW161686  13.343   6.496   7.711 -0.6975 -1.3786  0.5701
17252SOL    HW261687  13.220   6.580   7.737 -0.3909 -0.9225  0.5677
17253SOL     OW61688   2.628   7.346   6.565  0.2215 -0.4431  0.6083
17253SOL    HW161689   2.709   7.305   6.536 -0.2349 -1.0459  0.1512
17253SOL    HW261690   2.655   7.408   6.633  1.1382 -0.1674  0.0157
17254SOL     OW61691  12.741  10.704  12.878  0.3227 -0.5584 -0.0492
17254SOL    HW161692  12.812  10.693  12.815  1.4312  0.5753  0.9302
17254SOL    HW261693  12.786  10.713  12.963 -1.0701 -1.1771  0.7788
17255SOL     OW61694   4.794   6.756   8.084  0.7320 -0.6389 -0.6021
17255SOL    HW161695   4.849   6.830   8.060  0.3355 -0.4879 -1.0591
17255SOL    HW261696   4.709   6.775   8.044  0.3145 -0.8159  0.1667
17256SOL     OW61697  11.761   6.312   5.537  0.4340  0.2408  0.1885
17256SOL    HW161698  11.747   6.345   5.626  1.1300 -1.1749  0.8416
17256SOL    HW261699  11.673   6.287   5.507  0.4995 -1.6282  1.4447
17257SOL     OW61700   4.829  12.324   4.644 -0.3325 -0.4947  0.4057
17257SOL    HW161701   4.759  12.288   4.590 -0.9572 -0.5821  1.2615
17257SOL    HW261702   4.901  12.261   4.635 -0.9094 -1.2203  0.7487
17258SOL     OW61703   1.536   3.466   4.274  0.2886 -0.9394 -0.2798
17258SOL    HW161704   1.611   3.434   4.326  0.3556  0.1438  0.3241
17258SOL    HW261705   1.545   3.422   4.189  0.6351 -2.1334  0.3479
17259SOL     OW61706   1.178   5.153   7.406 -0.3026 -0.1799 -0.5248
17259SOL    HW161707   1.204   5.072   7.449  0.9247  0.6324  0.3354
17259SOL    HW261708   1.124   5.125   7.332  0.4483 -1.7937 -0.4936
17260SOL     OW61709   3.505   6.799   5.139 -0.5380  0.3866 -0.1500
17260SOL    HW161710   3.502   6.774   5.046 -0.3465  1.4402 -0.4508
17260SOL    HW261711   3.526   6.892   5.138  2.0936 -0.0779  0.9892
17261SOL     OW61712   8.314   6.808   2.369 -0.2059  0.3877 -0.6955
17261SOL    HW161713   8.269   6.724   2.372  0.3694 -0.0569 -2.8884
17261SOL    HW261714   8.249   6.869   2.334 -0.8303  1.0942  1.4696
17262SOL     OW61715   5.711   4.749  10.228  0.7081 -0.2936 -0.0011
17262SOL    HW161716   5.716   4.760  10.133  1.0779 -0.3094  0.0184
17262SOL    HW261717   5.617   4.741  10.245  0.6318 -0.1947 -0.3535
17263SOL     OW61718   3.164   9.936   7.154  0.6900 -0.1606 -0.1034
17263SOL    HW161719   3.244   9.924   7.206 -0.1530  0.7473  1.4929
17263SOL    HW261720   3.161  10.030   7.137 -0.4285 -0.0712  0.5230
17264SOL     OW61721   9.261   5.333   4.066  0.1498 -0.2708  0.0487
17264SOL    HW161722   9.343   5.294   4.034  0.6956 -0.9607  2.1177
17264SOL    HW261723   9.209   5.348   3.987  0.8408 -3.1199 -1.0547
17265SOL     OW61724   0.579   9.856   0.519 -0.0259  0.4027 -0.3825
17265SOL    HW161725   0.535   9.903   0.449 -0.1333  1.0770  0.1244
17265SOL    HW261726   0.529   9.775   0.529 -0.2034  0.4527 -0.8660
17266SOL     OW61727   1.047   1.277   0.255  0.1735 -0.1247  0.4602
17266SOL    HW161728   1.013   1.214   0.191  0.8890  1.8676 -2.0439
17266SOL    HW261729   1.123   1.234   0.293  0.3277 -1.0112 -0.7923
17267SOL     OW61730  12.389   8.384  10.302 -0.1107  0.4331  0.3085
17267SOL    HW161731  12.484   8.373  10.294 -0.0662 -0.1735  1.4778
17267SOL    HW261732  12.368   8.351  10.389 -1.1978  1.9976  0.6856
17268SOL     OW61733   2.318   9.291   5.539  0.6995  0.4062 -0.1658
17268SOL    HW161734   2.266   9.235   5.597  1.0516  0.5872  0.3264
17268SOL    HW261735   2.347   9.232   5.470 -0.7368  0.4386 -0.8477
17269SOL     OW61736   0.216   0.566  10.868  0.1756 -0.3477  0.3446
17269SOL    HW161737   0.194   0.620  10.944  0.2377  0.3322 -0.1100
17269SOL    HW261738   0.262   0.491  10.904  0.6156  0.2012  0.9445
17270SOL     OW61739  11.582   8.485   0.854 -0.4325 -0.4800  0.4267
17270SOL    HW161740  11.583   8.570   0.897 -2.2876 -0.9355  1.5103
17270SOL    HW261741  11.660   8.440   0.887  0.5346  0.7384 -0.1153
17271SOL     OW61742   9.743   2.134   0.028 -0.2216  0.1127 -0.6461
17271SOL    HW161743   9.752   2.067  -0.039 -1.9110 -0.9922  0.1739
17271SOL    HW261744   9.810   2.199   0.005  0.1754 -0.8849 -2.5718
17272SOL     OW61745  13.016   6.728   8.831 -0.5569 -0.4044 -0.1466
17272SOL    HW161746  13.049   6.647   8.870  0.8916  0.0913 -0.2914
17272SOL    HW261747  12.944   6.754   8.889  1.1480 -0.0045  1.9364
17273SOL     OW61748   7.554  10.775  10.879 -0.1343  0.3357  0.0852
17273SOL    HW161749   7.620  10.753  10.945  0.2582  1.0801 -0.0481
17273SOL    HW261750   7.597  10.759  10.795 -1.1637 -2.2006 -0.0501
17274SOL     OW61751   1.980   8.990  12.065 -0.1258  0.1539 -0.1664
17274SOL    HW161752   2.013   8.934  11.994 -1.6325 -0.7050 -0.2204
17274SOL    HW261753   1.941   9.065  12.020 -0.4264 -0.0267 -0.2030
17275SOL     OW61754   2.025   2.366   8.814 -0.0259  0.3616 -0.3214
17275SOL    HW161755   1.995   2.309   8.885  0.5899 -0.6956 -0.8835
17275SOL    HW261756   2.033   2.452   8.854  0.0777 -0.1622  0.8336
17276SOL     OW61757   9.739   8.755   6.367 -0.0051  0.0115  0.0412
17276SOL    HW161758   9.705   8.701   6.439  0.5566 -0.9234 -0.3771
17276SOL    HW261759   9.834   8.745   6.372  0.0204 -0.6599 -1.2631
17277SOL     OW61760   7.566   1.533  10.875 -0.2834 -0.6290 -0.2900
17277SOL    HW161761   7.538   1.624  10.882  0.8042 -0.2371 -0.7628
17277SOL    HW261762   7.619   1.518  10.954  0.4381 -0.5032 -0.7390
17278SOL     OW61763   3.232   3.668   9.775  0.3344 -0.4427  0.5026
17278SOL    HW161764   3.304   3.625   9.820 -0.0141 -1.3105  0.2535
17278SOL    HW261765   3.245   3.762   9.791  2.7837 -0.3623 -1.4220
17279SOL     OW61766  12.548   8.619   9.941 -0.2604 -0.0216 -0.3639
17279SOL    HW161767  12.572   8.619  10.033 -0.2045  0.4199 -0.3771
17279SOL    HW261768  12.631   8.635   9.895 -0.2789 -0.2892 -0.4921
17280SOL     OW61769   6.459   6.254  10.515 -0.2922 -0.3232 -0.5002
17280SOL    HW161770   6.466   6.238  10.421 -0.4637  1.2722 -0.8099
17280SOL    HW261771   6.366   6.269  10.531 -0.3777 -1.3490  0.0811
17281SOL     OW61772   4.339   9.483   2.295 -0.0337 -0.3091  0.6097
17281SOL    HW161773   4.301   9.570   2.307  0.8785 -0.0059  1.4133
17281SOL    HW261774   4.389   9.489   2.214 -1.3221 -0.5882 -0.2283
17282SOL     OW61775   8.847   1.487  12.702 -0.3575 -0.4144 -0.3648
17282SOL    HW161776   8.770   1.430  12.702 -0.4774 -0.2807  1.1307
17282SOL    HW261777   8.900   1.457  12.776 -1.1108  2.2348  1.3977
17283SOL     OW61778   0.920   1.982   2.964 -0.1026  0.1898 -0.3578
17283SOL    HW161779   0.858   1.943   3.025 -0.9249  0.5409 -0.9508
17283SOL    HW261780   1.006   1.960   2.999 -0.5542  0.7500  1.1479
17284SOL     OW61781  12.653   4.933   2.771 -0.0973 -0.5809  0.5669
17284SOL    HW161782  12.593   4.895   2.835 -0.0842  0.8700  1.4836
17284SOL    HW261783  12.694   4.858   2.729 -2.8287 -1.6780 -0.4037
17285SOL     OW61784   6.710   2.773  13.156  0.3974  0.0310  0.0198
17285SOL    HW161785   6.675   2.844  13.210 -0.8456  0.7881 -1.6656
17285SOL    HW261786   6.771   2.727  13.213  0.1173  1.5472  1.6378
17286SOL     OW61787  10.131   6.337   6.493 -0.0531 -0.2381  0.3302
17286SOL    HW161788  10.096   6.419   6.527 -0.9716 -0.7473  0.6568
17286SOL    HW261789  10.128   6.277   6.569 -0.3918 -0.8708 -0.1750
17287SOL     OW61790   1.758  10.710   9.734  0.4332  0.4636  0.3722
17287SOL    HW161791   1.798  10.713   9.820  0.8097  0.0488  0.2171
17287SOL    HW261792   1.823  10.748   9.675  0.1026  0.9193  0.2957
17288SOL     OW61793  13.193   2.150  11.417 -0.1909  0.5325 -0.5692
17288SOL    HW161794  13.186   2.241  11.447 -0.9323  0.3747 -0.2380
17288SOL    HW261795  13.103   2.119  11.414  0.1534 -1.1216  2.1918
17289SOL     OW61796   5.164  12.337   9.152  0.1664  0.2757  0.5163
17289SOL    HW161797   5.172  12.246   9.182  0.7030  0.8001  2.0483
17289SOL    HW261798   5.252  12.374   9.164 -0.1301  1.0955  0.2479
17290SOL     OW61799   6.819   5.178   4.377 -0.1379  0.2837  0.1760
17290SOL    HW161800   6.908   5.212   4.376 -0.4286  1.0528  0.2649
17290SOL    HW261801   6.801   5.155   4.286  0.0566  0.3596  0.1180
17291SOL     OW61802   4.797  13.087   1.672  0.5312 -0.1512  0.9742
17291SOL    HW161803   4.764  12.999   1.693  0.8174 -0.1583  1.4147
17291SOL    HW261804   4.889  13.085   1.698  0.3131  0.5650  1.8613
17292SOL     OW61805  11.458   9.797   1.504 -0.5160  0.4205  0.2171
17292SOL    HW161806  11.447   9.800   1.599  1.5260  0.9017  0.4791
17292SOL    HW261807  11.495   9.882   1.482  2.3955 -0.9078 -0.4880
17293SOL     OW61808   9.163   6.284   2.631  0.1464 -0.2604  0.4538
17293SOL    HW161809   9.255   6.259   2.632 -0.1806 -1.5933 -0.3195
17293SOL    HW261810   9.129   6.253   2.715  0.1841 -0.6962  0.3121
17294SOL     OW61811   6.468  12.895   7.098 -0.3947 -0.2512 -0.0090
17294SOL    HW161812   6.537  12.831   7.113 -1.3023 -1.1406  0.5686
17294SOL    HW261813   6.442  12.881   7.007  1.1105  1.0610 -0.6778
17295SOL     OW61814   4.618   2.025   1.710 -0.1267  0.0495 -0.3168
17295SOL    HW161815   4.699   1.998   1.753 -1.7659 -2.1910  1.6827
17295SOL    HW261816   4.629   1.999   1.618  1.6982  0.5447 -0.2564
17296SOL     OW61817  11.010   2.878   5.618  0.7685  0.2151 -0.0518
17296SOL    HW161818  11.065   2.951   5.647  0.1417  0.5075  0.4343
17296SOL    HW261819  11.019   2.813   5.687 -3.1620  2.1224  2.6383
17297SOL     OW61820   1.147  11.172  10.596  0.0952  0.0146  0.3473
17297SOL    HW161821   1.115  11.114  10.527 -1.3895  0.7690  0.3524
17297SOL    HW261822   1.240  11.183  10.577  0.0812 -1.1725 -0.5128
17298SOL     OW61823   9.234   6.880  11.058 -0.2590  0.0302 -0.0841
17298SOL    HW161824   9.182   6.824  11.116 -1.4725  2.2397  1.0880
17298SOL    HW261825   9.199   6.863  10.971 -0.5316 -1.0759  0.2258
17299SOL     OW61826   6.048   8.478  10.854 -0.5579 -0.0013  0.0852
17299SOL    HW161827   5.968   8.455  10.807  0.2033 -1.3903 -0.5823
17299SOL    HW261828   6.102   8.525  10.789 -0.6685  0.6266  0.4327
17300SOL     OW61829   4.736  10.446   9.296 -0.5081  0.0886  0.0144
17300SOL    HW161830   4.776  10.365   9.327  0.5918  0.9334  0.9256
17300SOL    HW261831   4.686  10.421   9.219  0.8100 -1.2447 -0.4564
17301SOL     OW61832   5.970  12.369   6.615 -0.3284  0.5061 -0.0934
17301SOL    HW161833   5.884  12.327   6.622  0.0585 -0.9798 -2.8528
17301SOL    HW261834   5.999  12.380   6.706 -1.3436 -3.4479  0.8980
17302SOL     OW61835  13.195   1.064   1.365  0.5195 -0.1265  0.0401
17302SOL    HW161836  13.269   1.073   1.305  0.5589 -0.2469  0.0693
17302SOL    HW261837  13.179   0.969   1.369 -0.5235 -0.0175 -1.0414
17303SOL     OW61838   5.804  11.684  12.089 -0.2141  0.9548 -0.8375
17303SOL    HW161839   5.862  11.752  12.056  1.5497 -0.2414 -0.3458
17303SOL    HW261840   5.772  11.718  12.173  0.7440  1.1540 -0.5441
17304SOL     OW61841   5.806   5.636   8.925 -0.1457  0.2744  0.3141
17304SOL    HW161842   5.734   5.656   8.866 -1.0742 -1.0760  0.9356
17304SOL    HW261843   5.832   5.547   8.903 -0.0056  0.0219  1.4137
17305SOL     OW61844  10.167   8.548   0.984 -0.6834 -0.0150 -0.3769
17305SOL    HW161845  10.081   8.564   1.025 -0.6156 -0.0963 -0.2008
17305SOL    HW261846  10.191   8.460   1.013 -0.4131  0.1154 -0.1988
17306SOL     OW61847  11.215  10.369   9.995  0.8404  0.0302  0.3128
17306SOL    HW161848  11.176  10.289  10.030  0.9786  0.0120  0.4255
17306SOL    HW261849  11.162  10.440  10.033  1.1103  0.0193  0.7132
17307SOL     OW61850   9.797  11.225   1.402  0.1471 -0.1399  0.5145
17307SOL    HW161851   9.719  11.280   1.397  1.0011  0.9882 -1.1713
17307SOL    HW261852   9.765  11.140   1.433 -1.8175  0.1348 -0.6439
17308SOL     OW61853   6.698   4.073  13.255  0.5869  0.0874 -0.1779
17308SOL    HW161854   6.657   4.071  13.169 -1.9729  0.3613  0.9488
17308SOL    HW261855   6.717   4.166  13.270  1.6040 -0.0290 -0.6605
17309SOL     OW61856   2.500   2.030   4.895  0.4082 -0.2885 -0.1296
17309SOL    HW161857   2.447   2.068   4.965  1.1775 -0.5140  0.5924
17309SOL    HW261858   2.564   1.976   4.941  2.2636  1.1950 -0.8694
17310SOL     OW61859  10.150   5.912   3.048 -0.2295 -0.4004  0.1376
17310SOL    HW161860  10.221   5.877   2.994 -0.7010 -0.8106 -0.2247
17310SOL    HW261861  10.126   5.994   3.005 -0.9831 -0.9988 -0.6255
17311SOL     OW61862   2.323   9.146   1.970 -0.3172 -0.3414  0.0157
17311SOL    HW161863   2.233   9.142   2.003 -0.3634  0.2319 -0.0261
17311SOL    HW261864   2.370   9.078   2.018 -0.9036 -1.0339 -0.3676
17312SOL     OW61865  10.736   5.426   7.893  0.4463  0.2266  0.3816
17312SOL    HW161866  10.778   5.370   7.828 -0.8282 -0.5509  0.1797
17312SOL    HW261867  10.756   5.385   7.977  0.7212  0.2945  0.3488
17313SOL     OW61868   6.258   1.535   8.198  0.4416  0.9687  0.0580
17313SOL    HW161869   6.226   1.518   8.287 -0.4433  1.6709 -0.1140
17313SOL    HW261870   6.315   1.611   8.207  2.0065 -0.1821  0.3364
17314SOL     OW61871   4.652   6.437   8.508 -0.4069 -0.1253 -0.1360
17314SOL    HW161872   4.735   6.397   8.534 -0.8666 -1.4761 -0.6922
17314SOL    HW261873   4.676   6.498   8.438  0.4429  1.4102  1.4172
17315SOL     OW61874   8.133   6.184   3.698 -0.0629 -0.2953  0.3492
17315SOL    HW161875   8.065   6.242   3.665  1.2324  1.8074  1.1981
17315SOL    HW261876   8.085   6.110   3.736 -1.9565  1.4935  1.6593
17316SOL     OW61877   2.923   3.656   5.114  0.0568 -0.4094  0.0329
17316SOL    HW161878   2.962   3.706   5.042  0.0865 -1.9703 -1.0926
17316SOL    HW261879   2.872   3.587   5.071 -0.5757 -0.9051  1.5064
17317SOL     OW61880   1.441   5.314   6.511 -0.0437  0.0684 -0.1446
17317SOL    HW161881   1.367   5.368   6.536 -0.9807 -1.4016  0.4100
17317SOL    HW261882   1.491   5.304   6.592  0.1445  0.1345 -0.2518
17318SOL     OW61883   2.834   3.031   0.514  0.1410  0.0129 -0.4869
17318SOL    HW161884   2.812   2.951   0.562  2.7587 -0.1591  0.5448
17318SOL    HW261885   2.815   3.102   0.574 -0.3610  0.0692 -0.7033
17319SOL     OW61886   2.937   0.817  10.337 -0.1267 -0.0647 -0.4492
17319SOL    HW161887   2.848   0.828  10.304  0.4665  0.1101 -2.0977
17319SOL    HW261888   2.988   0.794  10.259  1.1452 -0.8835  0.5897
17320SOL     OW61889   4.476   5.623   3.989  0.2835  0.4046  0.1703
17320SOL    HW161890   4.560   5.587   3.960  0.4572 -1.2852  2.4349
17320SOL    HW261891   4.474   5.603   4.083 -2.4436  0.8289  0.2651
17321SOL     OW61892   7.167   6.350   0.103  0.7793  0.3996 -0.1051
17321SOL    HW161893   7.098   6.288   0.078  1.5367  0.4177 -2.4264
17321SOL    HW261894   7.248   6.299   0.100  1.0090  0.5505  1.9540
17322SOL     OW61895   8.749   2.105   9.996  0.0854  0.1728 -0.5387
17322SOL    HW161896   8.716   2.174  10.054  0.4920  0.6901 -0.9045
17322SOL    HW261897   8.692   2.030  10.013  1.0340 -0.1489  1.5248
17323SOL     OW61898   2.761  10.999   6.465 -0.3074 -0.0150  0.0680
17323SOL    HW161899   2.763  10.931   6.398  0.2535  0.0380  0.0187
17323SOL    HW261900   2.781  10.954   6.547 -0.9101 -0.0650  0.1904
17324SOL     OW61901   9.512   9.333   2.110 -0.3626  0.0313 -0.5505
17324SOL    HW161902   9.558   9.266   2.160 -1.2432  0.0080  0.2652
17324SOL    HW261903   9.460   9.284   2.046 -0.9786 -0.0902  0.0216
17325SOL     OW61904   4.404  10.245  10.616 -0.7454  0.2391 -0.2675
17325SOL    HW161905   4.430  10.195  10.538 -0.4773 -1.1461  0.6751
17325SOL    HW261906   4.353  10.183  10.668 -1.1988  1.2471  0.5236
17326SOL     OW61907   4.695   1.005  13.205  0.0093  0.4893  0.0792
17326SOL    HW161908   4.671   1.034  13.117 -0.2722  0.7730  0.2484
17326SOL    HW261909   4.628   1.043  13.262  0.9565  1.4701  0.5815
17327SOL     OW61910   1.869   7.407  10.736 -0.6807 -0.1846 -0.0449
17327SOL    HW161911   1.851   7.397  10.830 -0.5209 -0.9673 -0.0913
17327SOL    HW261912   1.909   7.324  10.710 -1.3238 -0.2259 -0.9459
17328SOL     OW61913   8.711   1.626   2.084 -0.1319  0.3041  0.2978
17328SOL    HW161914   8.710   1.649   2.177  0.1874  0.0466  0.3670
17328SOL    HW261915   8.804   1.628   2.061 -0.2240  0.5472 -0.0611
17329SOL     OW61916   9.310   1.805   6.364 -0.1128  0.2866  0.2082
17329SOL    HW161917   9.345   1.884   6.324  1.2353  1.6649  3.6948
17329SOL    HW261918   9.387   1.755   6.390 -0.9434 -1.7214 -0.8988
17330SOL     OW61919  13.151  10.265   8.522  0.0704  0.1988  0.1745
17330SOL    HW161920  13.077  10.214   8.556 -0.4811  1.5246  1.0288
17330SOL    HW261921  13.210  10.274   8.597  0.3870  0.4058 -0.1012
17331SOL     OW61922   1.432   8.882   2.367 -0.1651  0.3102  0.0845
17331SOL    HW161923   1.495   8.855   2.433  0.3156  1.0730 -0.0465
17331SOL    HW261924   1.349   8.844   2.395  0.7570 -2.7047 -0.9678
17332SOL     OW61925   7.732   2.524   0.721 -0.3449 -0.2979 -0.6403
17332SOL    HW161926   7.698   2.499   0.807 -0.2119  1.0036 -0.1975
17332SOL    HW261927   7.702   2.454   0.663 -0.6486 -1.0688  0.4093
17333SOL     OW61928   3.006   8.485   1.399  0.6789 -0.1652  0.2704
17333SOL    HW161929   3.075   8.501   1.464 -1.0214  1.7126  1.7268
17333SOL    HW261930   2.934   8.448   1.448  0.1602 -0.9396 -1.0156
17334SOL     OW61931  10.479   6.058  10.317 -0.0789 -0.0746 -0.2252
17334SOL    HW161932  10.428   5.983  10.348  1.8214 -1.3880 -0.1367
17334SOL    HW261933  10.433   6.134  10.352  0.9691 -1.3295  4.5441
17335SOL     OW61934   9.445   3.850   5.574  0.0843  0.3964  0.2501
17335SOL    HW161935   9.461   3.935   5.534  0.8114 -0.2674 -0.9024
17335SOL    HW261936   9.531   3.809   5.579 -0.4699 -0.9404 -0.7499
17336SOL     OW61937  10.370   9.929  12.202 -0.3036 -0.0092 -0.1548
17336SOL    HW161938  10.435   9.915  12.271 -0.9176 -1.0140  0.2371
17336SOL    HW261939  10.361   9.844  12.159  2.0311  1.1325 -3.2984
17337SOL     OW61940   1.089   2.318   8.720  0.1853 -0.6474  0.8995
17337SOL    HW161941   1.106   2.406   8.754  0.7327 -0.4098  0.0501
17337SOL    HW261942   0.999   2.299   8.747  0.4374 -0.2930  2.0568
17338SOL     OW61943   8.811   1.231   0.632 -0.4560  0.7063  0.2457
17338SOL    HW161944   8.859   1.312   0.616 -1.2180  1.4499  1.5859
17338SOL    HW261945   8.719   1.258   0.634 -0.7633 -0.2875  0.1965
17339SOL     OW61946   1.764   5.458   9.094 -0.2034 -0.5192  0.6619
17339SOL    HW161947   1.836   5.460   9.156  1.5759  1.1000 -1.3409
17339SOL    HW261948   1.714   5.538   9.112  1.9830  1.5401 -1.7079
17340SOL     OW61949   3.618  11.743   3.620  0.0053  0.4080 -0.1495
17340SOL    HW161950   3.549  11.806   3.641 -0.3071  0.8823 -2.4190
17340SOL    HW261951   3.636  11.756   3.527  1.2690 -1.5724 -0.2490
17341SOL     OW61952   0.870  12.219  12.463 -0.3111 -0.3148 -0.1353
17341SOL    HW161953   0.954  12.225  12.418 -0.2943 -0.6244 -0.1469
17341SOL    HW261954   0.863  12.301  12.512 -0.0710 -0.2242 -0.2534
17342SOL     OW61955   3.607   0.593  10.305  0.0052  0.5778  0.4350
17342SOL    HW161956   3.669   0.525  10.334 -2.3800 -2.2113 -0.5758
17342SOL    HW261957   3.661   0.655  10.255  1.9407 -2.1342 -1.0944
17343SOL     OW61958   2.273   2.210   9.580 -0.3013 -0.6804 -0.1653
17343SOL    HW161959   2.282   2.302   9.554 -3.1583 -0.0035  0.8770
17343SOL    HW261960   2.337   2.199   9.650  1.7496 -0.2157 -1.8852
17344SOL     OW61961   0.713  11.190   9.380 -0.1035 -0.3846  0.2008
17344SOL    HW161962   0.700  11.116   9.440 -2.2741  0.3030  0.6617
17344SOL    HW261963   0.801  11.221   9.399  0.0182 -1.4623  1.5704
17345SOL     OW61964   3.084   4.444  10.447  0.1624 -0.5103 -0.5384
17345SOL    HW161965   3.158   4.383  10.444 -0.2914 -1.0682 -0.6327
17345SOL    HW261966   3.049   4.442  10.358  1.4044  1.4904 -1.1226
17346SOL     OW61967   5.948  11.279   3.638 -0.0439  0.7525  0.4301
17346SOL    HW161968   5.896  11.338   3.692 -1.6877  0.5556 -0.8487
17346SOL    HW261969   5.967  11.328   3.559  1.2813  0.6145  0.6334
17347SOL     OW61970  10.100   4.056   8.083  0.3709  0.5528  0.0629
17347SOL    HW161971  10.023   4.002   8.068 -0.4496  1.7609 -0.1978
17347SOL    HW261972  10.171   3.994   8.095 -0.5689 -0.5776 -0.0941
17348SOL     OW61973   0.716   9.887   4.297 -0.2540  0.3226 -0.0933
17348SOL    HW161974   0.688   9.970   4.257  0.9422 -0.0332 -1.7936
17348SOL    HW261975   0.735   9.909   4.388  0.0453  1.9282 -0.5188
17349SOL     OW61976   5.325   1.375   7.489  0.2192 -0.4114  0.1754
17349SOL    HW161977   5.234   1.400   7.475 -0.0207 -0.6219  1.3387
17349SOL    HW261978   5.359   1.441   7.549  1.3698  0.7436 -1.6538
17350SOL     OW61979   2.717   0.977   4.117 -0.3603  0.1773 -0.2351
17350SOL    HW161980   2.640   0.990   4.173  0.2371  1.8517  0.2491
17350SOL    HW261981   2.747   0.889   4.138 -1.0577  0.2060  0.9525
17351SOL     OW61982   3.564  13.311   4.118 -0.2464 -0.1152  0.3016
17351SOL    HW161983   3.641  13.332   4.171 -0.2596 -0.3632  0.4206
17351SOL    HW261984   3.493  13.303   4.181 -0.7238  1.7225  0.0491
17352SOL     OW61985   6.083  10.683   2.812  0.0663  0.6184 -0.1470
17352SOL    HW161986   6.145  10.718   2.749  2.1050 -2.6137 -0.1910
17352SOL    HW261987   6.128  10.689   2.896  0.5755 -1.8379 -0.1841
17353SOL     OW61988   8.507   8.969   6.783  0.1501  0.1300  0.0011
17353SOL    HW161989   8.459   8.933   6.859  0.9525 -1.3732 -0.1567
17353SOL    HW261990   8.569   9.031   6.821 -1.1957  1.3272  0.3032
17354SOL     OW61991   7.686   5.879   0.150 -0.0580 -0.8555  0.0855
17354SOL    HW161992   7.729   5.911   0.071 -1.1669  0.8529  0.1135
17354SOL    HW261993   7.757   5.847   0.205  1.0213  0.3750 -0.5213
17355SOL     OW61994   1.663   7.652   6.689 -0.9124 -0.4997 -0.2567
17355SOL    HW161995   1.585   7.597   6.693 -1.5483  0.4427  2.6946
17355SOL    HW261996   1.660   7.704   6.769  2.3052  0.2323 -0.4730
17356SOL     OW61997   6.970  10.839  10.148 -0.2688 -0.0154  0.4175
17356SOL    HW161998   6.912  10.837  10.224 -0.3738  0.0921  0.3407
17356SOL    HW261999   7.054  10.871  10.182 -0.2407 -0.2142  0.5363
17357SOL     OW62000   9.733   6.717  12.398 -0.4269 -0.0500 -0.1472
17357SOL    HW162001   9.765   6.627  12.389 -0.2520  0.1196 -1.4633
17357SOL    HW262002   9.682   6.732  12.318 -3.1636 -0.0136  1.4885
17358SOL     OW62003   5.887   2.732   8.501  0.6407 -0.0059 -0.5202
17358SOL    HW162004   5.832   2.801   8.537 -1.2484 -1.9466  0.5445
17358SOL    HW262005   5.915   2.681   8.577  0.7079 -1.3067 -1.3889
17359SOL     OW62006   9.168   3.771   8.074 -0.1506  0.3200  0.2844
17359SOL    HW162007   9.119   3.770   7.992  0.9968  2.7221 -0.5365
17359SOL    HW262008   9.150   3.858   8.111  0.6391 -0.1162  1.7832
17360SOL     OW62009   1.425   4.129  12.288 -0.0146  0.2047  0.1343
17360SOL    HW162010   1.463   4.047  12.320  1.7601  0.7953 -0.3301
17360SOL    HW262011   1.443   4.192  12.357 -0.4551  0.4305  0.0428
17361SOL     OW62012   3.989   2.138   4.630  0.2841  0.4441 -0.0936
17361SOL    HW162013   4.011   2.175   4.716  0.8361  1.2074 -0.5594
17361SOL    HW262014   4.063   2.161   4.574 -0.3483  0.4837 -0.9302
17362SOL     OW62015   4.767   0.283  11.232 -0.1810 -0.1580  1.2894
17362SOL    HW162016   4.704   0.212  11.218 -1.0695  0.1136  3.4725
17362SOL    HW262017   4.838   0.265  11.171 -2.3038 -0.5212 -1.2771
17363SOL     OW62018   2.008   8.238   1.389  0.2173  0.3135  0.2201
17363SOL    HW162019   1.957   8.214   1.467 -1.2155 -0.9235 -1.0481
17363SOL    HW262020   1.958   8.309   1.349 -0.0113 -0.2555 -0.5130
17364SOL     OW62021   9.185  12.719   1.008 -0.2244 -0.0760 -0.2481
17364SOL    HW162022   9.130  12.659   1.057  0.4879  0.3080  1.0711
17364SOL    HW262023   9.260  12.736   1.066  0.4968  0.6299 -1.3500
17365SOL     OW62024   5.279   9.913   5.493  0.0455 -0.0952 -0.5189
17365SOL    HW162025   5.234   9.858   5.558  0.8751 -0.5284 -0.2994
17365SOL    HW262026   5.296   9.853   5.420  0.9788 -0.1420 -0.2667
17366SOL     OW62027   0.627   6.593   0.595 -0.6947 -0.1353 -0.1228
17366SOL    HW162028   0.632   6.517   0.537  1.5487 -1.1127  1.1987
17366SOL    HW262029   0.711   6.638   0.583 -1.2089  1.0580  0.5395
17367SOL     OW62030   4.625  12.063   8.473  0.1062 -0.0356  0.4653
17367SOL    HW162031   4.590  12.152   8.468 -1.8605 -0.7968 -0.6115
17367SOL    HW262032   4.665  12.058   8.560  0.4015  1.9322  0.4872
17368SOL     OW62033  10.488   8.261   2.062  0.3992 -0.0145  0.9768
17368SOL    HW162034  10.516   8.225   1.978  0.3978  0.5522  0.7320
17368SOL    HW262035  10.553   8.329   2.082 -1.2999  2.0427 -0.0893
17369SOL     OW62036   6.215   8.296   5.094  0.6859  0.5310  1.1116
17369SOL    HW162037   6.279   8.281   5.024  1.7851 -0.2557  2.2294
17369SOL    HW262038   6.162   8.370   5.063  2.4498  1.5370  0.3325
17370SOL     OW62039   2.543  12.786   5.853  0.3389 -0.3289 -0.9047
17370SOL    HW162040   2.580  12.858   5.904 -1.1532  0.5595 -1.0073
17370SOL    HW262041   2.499  12.828   5.779 -2.6101 -1.0517  0.2804
17371SOL     OW62042  11.757   6.333   0.201  0.6143  0.0364 -0.3459
17371SOL    HW162043  11.731   6.380   0.280 -0.2055 -0.4685 -0.3082
17371SOL    HW262044  11.848   6.309   0.218 -0.0548 -1.6172  1.2265
17372SOL     OW62045   6.767   4.388   9.278 -0.0612 -0.6913  0.0427
17372SOL    HW162046   6.679   4.398   9.316 -0.1994  0.2425 -0.4839
17372SOL    HW262047   6.795   4.301   9.304 -0.4949 -0.4084  1.5669
17373SOL     OW62048   6.750   8.116  10.365  0.3263 -0.0505  0.6743
17373SOL    HW162049   6.738   8.068  10.446  2.7982 -0.1596  1.0666
17373SOL    HW262050   6.758   8.207  10.392 -0.9771  0.1999  0.2878
17374SOL     OW62051  10.393   2.920   1.586  0.0646 -0.8785  0.6338
17374SOL    HW162052  10.333   2.979   1.540  0.5256  1.3026  2.6173
17374SOL    HW262053  10.347   2.899   1.668  1.4522 -0.1957  1.6150
17375SOL     OW62054   3.126  10.261  10.636 -0.9990  0.1327  0.0638
17375SOL    HW162055   3.197  10.224  10.689 -1.4680  0.1480  0.7245
17375SOL    HW262056   3.151  10.242  10.546 -0.7307 -0.9035  0.3384
17376SOL     OW62057   5.672   1.714   7.496 -0.6014 -0.0292 -0.0501
17376SOL    HW162058   5.669   1.807   7.476  0.8650  0.1434  0.4031
17376SOL    HW262059   5.665   1.709   7.591  2.2835 -0.1160  0.2422
17377SOL     OW62060   0.010   1.610   9.188  0.4161 -0.2554  0.2176
17377SOL    HW162061   0.004   1.672   9.260 -1.2558  0.9593 -0.8714
17377SOL    HW262062  -0.045   1.536   9.215 -0.0322  0.1026  0.3054
17378SOL     OW62063   5.025  12.927   7.791 -0.0603 -0.6191  0.0732
17378SOL    HW162064   5.108  12.916   7.837 -0.3007 -2.2662  0.1696
17378SOL    HW262065   4.999  12.838   7.767 -0.3384  0.0763 -2.5392
17379SOL     OW62066   9.912  11.300  10.973 -0.1259 -0.5407 -0.0547
17379SOL    HW162067   9.960  11.219  10.990 -1.8027 -1.2994  1.3777
17379SOL    HW262068   9.953  11.336  10.894 -0.5914 -3.8555 -2.0329
17380SOL     OW62069   9.057  11.195   3.309 -0.4766 -0.4871  0.0660
17380SOL    HW162070   8.992  11.125   3.295 -0.4951 -1.1248  2.7622
17380SOL    HW262071   9.013  11.256   3.368  0.5631  0.3201  0.0149
17381SOL     OW62072   8.424   4.865   3.020  0.0286 -0.6746 -0.4225
17381SOL    HW162073   8.382   4.816   2.950 -0.0198 -1.0298 -0.1454
17381SOL    HW262074   8.380   4.950   3.019  0.8172 -0.2519 -1.5824
17382SOL     OW62075   1.032   8.361   5.917  0.3479 -0.4082 -0.5626
17382SOL    HW162076   1.077   8.430   5.966  2.2062 -1.4419 -0.7129
17382SOL    HW262077   0.959   8.336   5.973  0.1098  1.1072 -0.1455
17383SOL     OW62078   9.025   4.718   4.765 -0.2253  0.5714  0.0513
17383SOL    HW162079   9.013   4.686   4.855 -1.3226 -0.5838 -0.4686
17383SOL    HW262080   9.075   4.799   4.775  2.4379 -1.0913  1.4671
17384SOL     OW62081  10.231   6.511   9.048 -0.6386 -0.0820  0.1668
17384SOL    HW162082  10.163   6.576   9.067  0.9356  1.5197  0.6147
17384SOL    HW262083  10.249   6.470   9.133 -2.3259 -1.9226 -0.2794
17385SOL     OW62084  11.705   9.644   7.436 -0.2927  0.7217  0.2065
17385SOL    HW162085  11.718   9.674   7.526 -0.0216  0.0012  0.4132
17385SOL    HW262086  11.785   9.671   7.390  0.9046 -1.4499  0.8768
17386SOL     OW62087   6.511   0.612   9.227 -0.3857 -0.2510  0.0616
17386SOL    HW162088   6.543   0.694   9.265 -2.0804  0.2422  0.5073
17386SOL    HW262089   6.486   0.635   9.138  0.2415 -0.5770 -0.2055
17387SOL     OW62090  12.030   0.221  11.782 -0.4932  0.3099  0.1393
17387SOL    HW162091  12.022   0.298  11.838 -3.7069  0.0107  0.2770
17387SOL    HW262092  12.047   0.149  11.843 -1.7873  0.3110  0.5263
17388SOL     OW62093   3.106   4.060   0.155  0.1274 -0.2589  0.5275
17388SOL    HW162094   3.111   4.139   0.101  1.0866 -0.1675  0.7332
17388SOL    HW262095   3.069   3.993   0.097  1.5737 -0.2838 -0.4143
17389SOL     OW62096   1.583   1.756  12.277 -0.2610  0.1513 -0.3104
17389SOL    HW162097   1.528   1.720  12.208  1.1011 -1.8052 -0.4528
17389SOL    HW262098   1.534   1.741  12.358 -0.9339  0.5597 -0.6307
17390SOL     OW62099   4.392   4.116   8.667  0.5303 -0.0211 -0.0880
17390SOL    HW162100   4.308   4.078   8.693  0.7943  0.1895  1.1296
17390SOL    HW262101   4.440   4.043   8.627 -0.7005  0.1541 -2.0408
17391SOL     OW62102   8.931   8.735   6.718 -0.1333 -0.2841  0.2575
17391SOL    HW162103   8.901   8.753   6.629  0.3197 -1.2118 -0.0924
17391SOL    HW262104   8.941   8.640   6.722  1.5672 -0.1282  0.7184
17392SOL     OW62105   3.020   3.254  11.605  0.3873  0.6338 -0.3482
17392SOL    HW162106   3.114   3.268  11.617  0.4553 -0.0592 -0.0290
17392SOL    HW262107   2.978   3.325  11.655  0.7344  0.7882 -0.2766
17393SOL     OW62108   8.028   4.325  11.069 -0.5339 -0.4757 -0.5053
17393SOL    HW162109   8.053   4.235  11.089 -0.5646 -0.1343  1.2756
17393SOL    HW262110   7.937   4.332  11.098 -0.1828  0.4035  0.4725
17394SOL     OW62111   8.338   5.058  11.983  0.3224 -0.7414 -0.1402
17394SOL    HW162112   8.416   5.088  11.935  1.1985 -0.6218  1.2951
17394SOL    HW262113   8.359   5.073  12.075 -2.2202  1.2131  0.2265
17395SOL     OW62114   5.437  10.236  11.473  0.1111  0.0834 -0.2420
17395SOL    HW162115   5.365  10.297  11.454 -0.3699 -0.5060 -0.3460
17395SOL    HW262116   5.399  10.150  11.460 -0.7516 -0.5673  4.6625
17396SOL     OW62117  11.497  11.219  10.273  0.3654  0.3544 -0.8490
17396SOL    HW162118  11.512  11.199  10.180  1.5082  0.0365 -0.6124
17396SOL    HW262119  11.565  11.284  10.295  2.2724 -1.9332  0.5479
17397SOL     OW62120   9.507   0.921  12.779  0.1349 -0.3182 -0.4787
17397SOL    HW162121   9.543   1.010  12.787 -0.6740 -0.0812  0.6744
17397SOL    HW262122   9.444   0.928  12.707  1.0143 -0.2915 -1.2706
17398SOL     OW62123   5.977   9.915   8.333  0.1968  0.0475 -0.4917
17398SOL    HW162124   5.973   9.957   8.246 -0.2545 -1.5256 -1.2648
17398SOL    HW262125   5.911   9.961   8.385 -0.6895 -0.0608 -1.4820
17399SOL     OW62126   3.042   0.006   4.307  0.2465 -0.5848  0.2766
17399SOL    HW162127   3.023  -0.041   4.389 -0.3165 -3.3681 -1.3312
17399SOL    HW262128   2.956   0.021   4.268  0.6161 -1.2992 -0.8310
17400SOL     OW62129   3.873   5.714   5.072 -0.3205  0.0252 -0.0108
17400SOL    HW162130   3.919   5.797   5.087 -0.3048  0.2608 -1.2232
17400SOL    HW262131   3.787   5.728   5.111  0.2920 -0.0866  1.4641
17401SOL     OW62132   5.912   9.965   1.640 -0.6549  0.3726  0.5019
17401SOL    HW162133   5.970   9.898   1.602  0.9357  2.3312 -0.6998
17401SOL    HW262134   5.849   9.915   1.691  2.2631 -1.9100  2.2047
17402SOL     OW62135  10.487  12.327   5.384  1.2551 -0.7131 -0.4918
17402SOL    HW162136  10.419  12.262   5.369 -0.1835  0.5370  0.2395
17402SOL    HW262137  10.461  12.370   5.466 -0.3684  3.6684 -2.9675
17403SOL     OW62138  11.691  11.405  10.353  0.2420  0.2494  0.2534
17403SOL    HW162139  11.770  11.370  10.395  0.7217 -1.2171 -1.7211
17403SOL    HW262140  11.720  11.488  10.315  1.2066 -0.8159 -1.4386
17404SOL     OW62141   9.409   5.373   4.732 -0.0392  0.0259  0.3658
17404SOL    HW162142   9.460   5.449   4.706 -0.7929  0.8435  1.2219
17404SOL    HW262143   9.402   5.380   4.828  1.2242 -1.9773  0.6640
17405SOL     OW62144   3.563   5.783  12.539 -0.3410 -0.1726  0.1077
17405SOL    HW162145   3.630   5.751  12.478 -0.3826 -1.0887  0.5253
17405SOL    HW262146   3.614   5.824  12.609 -0.2426 -0.3160  0.1210
17406SOL     OW62147   9.375   1.795   4.092 -0.3231 -0.0351 -0.0141
17406SOL    HW162148   9.425   1.847   4.029 -0.0766 -0.7339 -0.4110
17406SOL    HW262149   9.305   1.853   4.122 -0.6996  0.1837 -1.2516
17407SOL     OW62150   1.409  10.793  11.074  0.3490  0.4894  0.1686
17407SOL    HW162151   1.316  10.776  11.081  0.7798 -2.8144 -0.6241
17407SOL    HW262152   1.431  10.840  11.154 -1.6430 -0.5085  1.3742
17408SOL     OW62153   5.255   7.339   2.290  0.1392 -0.1018  0.0442
17408SOL    HW162154   5.279   7.431   2.301 -0.3326 -0.2027  2.3327
17408SOL    HW262155   5.339   7.294   2.284  0.4226  0.2785  0.9813
17409SOL     OW62156   0.741   8.538   9.679 -0.3052 -0.1268 -0.9224
17409SOL    HW162157   0.680   8.611   9.683 -0.7206 -0.5275  1.6552
17409SOL    HW262158   0.806   8.557   9.747 -0.5098 -2.1694 -0.0597
17410SOL     OW62159   4.510   2.198   6.936 -0.3213 -0.4727  0.2614
17410SOL    HW162160   4.566   2.268   6.969 -0.3246  0.3410 -1.3581
17410SOL    HW262161   4.529   2.123   6.993  2.0796 -0.0872  0.0799
17411SOL     OW62162  10.944   8.303   9.107  0.3775  0.4179  0.7229
17411SOL    HW162163  11.037   8.316   9.091  0.9252 -0.4311  2.8092
17411SOL    HW262164  10.927   8.213   9.079  0.1371  0.6329  0.1743
17412SOL     OW62165   5.670   2.913   0.285 -0.2095 -0.2601 -0.0261
17412SOL    HW162166   5.603   2.979   0.263 -0.5113 -0.9880 -1.3735
17412SOL    HW262167   5.628   2.829   0.269 -0.2155 -0.9048  2.7666
17413SOL     OW62168   6.528  10.732   6.635  0.4324  0.0380 -0.3195
17413SOL    HW162169   6.503  10.808   6.688  0.9733  0.7685 -1.0777
17413SOL    HW262170   6.476  10.740   6.555 -1.1733 -1.6464  0.4976
17414SOL     OW62171  13.059   3.548   5.519 -0.3023 -0.3254  0.1234
17414SOL    HW162172  12.998   3.517   5.586 -0.7704  0.5302  0.1065
17414SOL    HW262173  13.004   3.591   5.454  0.4181  1.9604  0.9325
17415SOL     OW62174   3.587   2.836   9.424  0.1128 -0.2597 -0.0642
17415SOL    HW162175   3.542   2.920   9.414 -0.4318 -0.5387  0.0681
17415SOL    HW262176   3.518   2.772   9.436  0.5059 -0.7988 -0.6148
17416SOL     OW62177   7.188  12.987   6.127 -0.0177  0.3325 -0.3798
17416SOL    HW162178   7.155  12.913   6.177 -0.2342  1.6479  1.5347
17416SOL    HW262179   7.113  13.017   6.076 -0.1243 -0.3244 -0.6086
17417SOL     OW62180   7.863  11.494   1.097 -0.1536 -0.2461  0.2671
17417SOL    HW162181   7.861  11.471   1.190  0.0118  1.7053  0.7923
17417SOL    HW262182   7.935  11.441   1.061  1.0511  0.3486  1.6685
17418SOL     OW62183   4.967   0.598   5.650 -0.3006 -0.2400  0.1729
17418SOL    HW162184   4.887   0.614   5.700  0.1684  1.4368  0.4504
17418SOL    HW262185   4.945   0.626   5.561 -0.0606  0.1150  0.2244
17419SOL     OW62186   5.733   3.829   4.747 -0.1315  0.2030  0.1551
17419SOL    HW162187   5.719   3.913   4.791 -1.2793  0.6848 -1.0767
17419SOL    HW262188   5.756   3.852   4.657  0.1364 -0.8008 -0.0513
17420SOL     OW62189  12.687   6.681   8.412 -0.0330 -0.1388  0.1593
17420SOL    HW162190  12.730   6.689   8.327  2.8658 -1.7896  1.3461
17420SOL    HW262191  12.700   6.767   8.453  1.4573 -0.3295  0.1434
17421SOL     OW62192  10.159   6.878   8.403 -0.3301  0.8907 -0.2054
17421SOL    HW162193  10.168   6.936   8.327  0.4199  0.5692 -0.3652
17421SOL    HW262194  10.230   6.903   8.461 -0.2398  0.4005 -0.1010
17422SOL     OW62195   0.593   5.581   1.747  0.3220  0.4949 -0.0739
17422SOL    HW162196   0.553   5.494   1.749 -0.0984  0.6984  1.0703
17422SOL    HW262197   0.674   5.569   1.696 -0.3890 -0.2630 -1.0627
17423SOL     OW62198   9.948   5.425   7.665 -0.1493 -0.0976 -0.1443
17423SOL    HW162199   9.916   5.355   7.607  0.3387  0.3222 -0.9257
17423SOL    HW262200  10.027   5.457   7.623 -2.5524  3.8856 -2.1759
17424SOL     OW62201  10.145   1.259   2.297  0.0518 -1.0376  1.0239
17424SOL    HW162202  10.093   1.179   2.287  0.8884 -1.7089  1.8003
17424SOL    HW262203  10.218   1.233   2.353  0.5723  0.1778  0.9476
17425SOL     OW62204   9.418  10.529   2.274  0.5136  0.0859 -0.5621
17425SOL    HW162205   9.323  10.530   2.277  0.5126  1.2902 -0.5764
17425SOL    HW262206   9.444  10.486   2.356 -0.0339  1.5088  0.4148
17426SOL     OW62207  13.049   4.537   6.830 -0.0558 -0.3521  0.6648
17426SOL    HW162208  13.143   4.556   6.821 -0.0208 -1.0472 -0.6554
17426SOL    HW262209  13.006   4.610   6.787 -0.1035 -0.3727  0.6777
17427SOL     OW62210   9.718   7.538  12.368 -0.3001  0.1709 -0.2696
17427SOL    HW162211   9.739   7.563  12.278 -1.6596  0.6488 -0.4744
17427SOL    HW262212   9.641   7.589  12.390  0.6438  0.9070  1.5884
17428SOL     OW62213  12.204  10.242   9.452 -0.0386  0.2068 -0.1743
17428SOL    HW162214  12.142  10.258   9.522  0.3772 -1.4142  0.6312
17428SOL    HW262215  12.255  10.166   9.482  0.8600  0.1273 -1.7608
17429SOL     OW62216   7.183   9.331   7.583  0.4827 -0.6408  0.1189
17429SOL    HW162217   7.181   9.349   7.677 -0.3686  0.4930 -0.0896
17429SOL    HW262218   7.092   9.307   7.562  0.3822  0.3301 -0.6194
17430SOL     OW62219  13.101   5.351  12.853  0.7949  0.5230 -0.5430
17430SOL    HW162220  13.041   5.335  12.926 -0.1768  1.4493 -1.1138
17430SOL    HW262221  13.047   5.393  12.786  1.3937 -1.2738 -2.2542
17431SOL     OW62222   6.384   2.377  11.322 -0.0073 -0.5057 -0.4574
17431SOL    HW162223   6.479   2.386  11.311 -0.0267  0.6616  0.1470
17431SOL    HW262224   6.363   2.294  11.280  1.1433 -0.3302 -1.4566
17432SOL     OW62225   5.021   5.533   6.998  0.1558  0.4156 -0.0685
17432SOL    HW162226   5.034   5.439   6.983 -0.6032  0.1492  0.8159
17432SOL    HW262227   4.926   5.543   7.006  0.1005  1.5108 -1.5960
17433SOL     OW62228   6.366   8.766   9.082  0.4320 -0.3508  0.8994
17433SOL    HW162229   6.283   8.811   9.064  0.0937 -1.2167  0.2301
17433SOL    HW262230   6.421   8.833   9.122 -0.2188  0.5406  0.3481
17434SOL     OW62231   7.103  10.516   2.710  0.0824 -0.1083  0.1116
17434SOL    HW162232   7.174  10.560   2.755 -0.6655  0.6564  0.5634
17434SOL    HW262233   7.125  10.423   2.716  1.5003  0.1588 -0.5711
17435SOL     OW62234   6.101  12.801   1.193 -0.1298 -0.4005  0.1087
17435SOL    HW162235   6.152  12.876   1.223  0.7915 -0.0005 -2.1901
17435SOL    HW262236   6.132  12.728   1.246  1.3990  0.2354  0.1574
17436SOL     OW62237   6.446  12.163   6.726  0.1205 -0.0946  0.2396
17436SOL    HW162238   6.480  12.246   6.760  1.2727 -0.3803 -0.1683
17436SOL    HW262239   6.431  12.109   6.803 -1.2430  0.6796  0.5629
17437SOL     OW62240  12.254   7.069  11.142 -0.3924  0.0577  0.0291
17437SOL    HW162241  12.227   7.111  11.060  0.8950  0.7957 -0.0425
17437SOL    HW262242  12.312   7.132  11.183 -2.3743  0.4751  2.4259
17438SOL     OW62243   6.656   0.698   5.004 -0.2427 -1.0372  0.4016
17438SOL    HW162244   6.717   0.636   5.044  0.2040 -0.6573  0.3219
17438SOL    HW262245   6.711   0.772   4.978 -0.4492 -1.4367 -1.2944
17439SOL     OW62246   4.018   9.788   6.902  0.0717 -0.4818 -0.0827
17439SOL    HW162247   3.986   9.707   6.862 -0.4348  0.3387 -1.4256
17439SOL    HW262248   4.050   9.840   6.828 -0.2901  0.8438  0.6556
17440SOL     OW62249   7.998  12.397   5.746  0.1852  0.3138  0.2151
17440SOL    HW162250   8.016  12.352   5.664  0.2581 -0.0191  0.4138
17440SOL    HW262251   7.905  12.380   5.764 -0.0043  0.9411 -0.1374
17441SOL     OW62252   4.361  10.452   5.379 -0.1119 -0.2070  0.5246
17441SOL    HW162253   4.285  10.511   5.375 -0.6950 -0.9294  0.6976
17441SOL    HW262254   4.324  10.367   5.404  0.8399 -0.4183  1.2806
17442SOL     OW62255   7.590   1.802   0.041  0.5364  0.1547 -0.7335
17442SOL    HW162256   7.613   1.880  -0.008  0.6363  0.4836 -0.1732
17442SOL    HW262257   7.669   1.749   0.042  1.0145  0.8555  0.3879
17443SOL     OW62258  11.259  12.369   6.807 -0.2783 -0.1182 -0.1095
17443SOL    HW162259  11.306  12.329   6.734 -0.5331 -0.8006  0.0906
17443SOL    HW262260  11.287  12.319   6.884  0.1861  0.7566  0.3053
17444SOL     OW62261   2.966  12.262   6.003  0.3212  0.3443 -0.1958
17444SOL    HW162262   2.932  12.187   5.954 -0.0405  0.4588 -0.1302
17444SOL    HW262263   3.061  12.252   6.002  0.2613 -0.2819  0.0777
17445SOL     OW62264   4.539   2.644  11.987 -0.0900  0.1939  0.2754
17445SOL    HW162265   4.478   2.706  11.948  0.4729  1.0439  0.7233
17445SOL    HW262266   4.483   2.579  12.030 -0.7108  1.5552  1.6343
17446SOL     OW62267  12.107   1.964   5.332  0.2337  0.1645  0.1492
17446SOL    HW162268  12.146   1.923   5.408  0.4477 -1.6879 -0.9070
17446SOL    HW262269  12.180   1.981   5.273 -0.2071 -0.9421 -0.7567
17447SOL     OW62270   8.889  10.306   6.580 -0.3221 -0.1143  0.3002
17447SOL    HW162271   8.845  10.369   6.637 -0.5316 -0.7469  0.8663
17447SOL    HW262272   8.819  10.270   6.525 -0.6623 -1.4695  1.5280
17448SOL     OW62273   9.397  12.937   4.018  0.2651 -0.3232  0.1485
17448SOL    HW162274   9.368  12.957   4.107  0.7869 -0.5731  0.3803
17448SOL    HW262275   9.317  12.917   3.970 -0.1057  0.6209  0.3524
17449SOL     OW62276   2.029   9.184  13.133  0.1442 -0.0684  0.2153
17449SOL    HW162277   1.940   9.195  13.167 -0.2517  0.2895 -0.9108
17449SOL    HW262278   2.050   9.092  13.153 -0.5144 -0.1908  0.3905
17450SOL     OW62279   8.741   5.197   1.652  0.1831 -0.1696 -0.1766
17450SOL    HW162280   8.691   5.279   1.656 -2.5737 -1.7631  2.5844
17450SOL    HW262281   8.680   5.134   1.613  1.3561 -1.4661  0.0160
17451SOL     OW62282   3.251  10.254   5.417  0.2935  0.1006 -0.3856
17451SOL    HW162283   3.253  10.163   5.446  1.0351  0.6445  1.4177
17451SOL    HW262284   3.239  10.249   5.322 -0.7102 -1.8347 -0.2064
17452SOL     OW62285   1.979   5.003   5.737  0.0176 -0.1544 -0.3385
17452SOL    HW162286   2.044   4.941   5.704 -1.5542 -1.6548 -0.7354
17452SOL    HW262287   2.019   5.039   5.816  1.3662 -0.9549 -0.6217
17453SOL     OW62288  12.987   6.369  11.297  0.6521  0.4142 -0.1447
17453SOL    HW162289  12.978   6.392  11.389  3.0315 -1.0278  0.5379
17453SOL    HW262290  13.014   6.451  11.255 -0.3531  1.0580  0.4350
17454SOL     OW62291   6.141  12.267  11.762 -0.0361 -0.1501 -0.3489
17454SOL    HW162292   6.119  12.342  11.708  0.2219  0.3254  0.1951
17454SOL    HW262293   6.122  12.295  11.851  0.8063 -0.4507 -0.0617
17455SOL     OW62294   2.440   7.982   8.454 -0.7417 -1.0070 -0.1524
17455SOL    HW162295   2.393   7.994   8.371 -3.2411 -0.6183  1.2094
17455SOL    HW262296   2.490   7.901   8.443 -2.1394 -1.7199 -1.5538
17456SOL     OW62297   4.716   3.155  12.627 -0.5794  0.1051 -0.0540
17456SOL    HW162298   4.795   3.148  12.573  0.6728 -0.7301  1.7621
17456SOL    HW262299   4.681   3.066  12.629 -2.2459  0.6807 -1.7381
17457SOL     OW62300   7.221   9.042   4.627  0.1899  0.4285  0.8831
17457SOL    HW162301   7.183   9.017   4.711  2.2825 -1.5880  1.3131
17457SOL    HW262302   7.316   9.042   4.642  0.6122  0.2869 -1.4038
17458SOL     OW62303   3.704  10.237   8.820 -0.4669  0.4819 -0.0229
17458SOL    HW162304   3.702  10.269   8.910  0.7485  0.7567 -0.0771
17458SOL    HW262305   3.680  10.145   8.826  0.0297  0.3939  0.6313
17459SOL     OW62306   1.270   7.907  11.782 -0.4998 -0.0187 -0.4914
17459SOL    HW162307   1.355   7.913  11.825 -0.9062 -0.5385  0.4321
17459SOL    HW262308   1.260   7.990  11.736 -0.0221  0.5668  0.4183
17460SOL     OW62309   2.918  10.926   2.121 -0.3114  0.2439 -0.4110
17460SOL    HW162310   2.968  10.992   2.072  0.4563 -1.2542 -1.7056
17460SOL    HW262311   2.963  10.844   2.104  0.0294 -0.3979  2.8805
17461SOL     OW62312   0.328  10.265  11.877 -0.2066  0.0668  0.1474
17461SOL    HW162313   0.300  10.328  11.943  0.0240  1.5663 -1.1322
17461SOL    HW262314   0.247  10.235  11.836 -0.3087 -0.3818  0.6709
17462SOL     OW62315   7.443   3.762   6.435 -0.3488 -0.0426 -0.1881
17462SOL    HW162316   7.377   3.830   6.444  1.2277  1.4918  0.2403
17462SOL    HW262317   7.472   3.767   6.343  0.7917  0.8950  0.1989
17463SOL     OW62318   9.085   4.776   2.155  0.0562 -0.4203 -0.2278
17463SOL    HW162319   9.147   4.849   2.152 -0.7111  0.2313 -0.5984
17463SOL    HW262320   9.105   4.724   2.077  1.2854 -1.2042  0.5682
17464SOL     OW62321   4.707   3.594  10.453  0.2705 -0.3792  0.1624
17464SOL    HW162322   4.652   3.563  10.381 -0.5048  1.2660 -0.0146
17464SOL    HW262323   4.765   3.521  10.473  0.1136 -1.0736 -1.7436
17465SOL     OW62324   5.913   9.468  10.350 -1.0805 -0.0640  0.0767
17465SOL    HW162325   5.871   9.553  10.343 -1.0412 -0.0595 -0.0994
17465SOL    HW262326   6.004   9.484  10.328 -1.3350 -0.3921 -1.2762
17466SOL     OW62327   3.195  10.241   7.400  0.6118  0.5663  0.2010
17466SOL    HW162328   3.149  10.313   7.444  0.6845 -0.0462  1.3032
17466SOL    HW262329   3.191  10.264   7.307 -2.7534  0.0877  0.1156
17467SOL     OW62330   0.964   0.960   4.732  0.1999  0.0761 -0.2872
17467SOL    HW162331   0.919   0.881   4.760  1.6834 -1.2743 -1.5075
17467SOL    HW262332   1.033   0.973   4.797 -0.2134  0.5360  0.0635
17468SOL     OW62333   6.020   0.191   0.073 -0.7266  0.2473  0.2069
17468SOL    HW162334   6.013   0.198  -0.022 -2.2912 -3.8865 -0.2099
17468SOL    HW262335   6.092   0.130   0.088 -1.0153  0.2056  1.6348
17469SOL     OW62336   9.899   2.343  11.295 -0.1246 -0.1609  0.3457
17469SOL    HW162337   9.954   2.304  11.227 -0.6241 -0.6916  0.2308
17469SOL    HW262338   9.848   2.410  11.249 -2.1413 -2.0561 -0.3598
17470SOL     OW62339   9.932   1.427   2.329  0.7263  0.4351 -0.3436
17470SOL    HW162340   9.850   1.390   2.362 -0.0069  1.5846 -0.8034
17470SOL    HW262341   9.989   1.351   2.315  0.1212 -0.2982  0.9684
17471SOL     OW62342   5.133   2.018   3.252 -0.0879  0.5440 -0.1326
17471SOL    HW162343   5.105   2.098   3.298 -0.2215  0.7442 -0.5607
17471SOL    HW262344   5.059   1.996   3.195  0.0617  0.2708 -0.2220
17472SOL     OW62345   1.194  12.900   5.298 -0.3295  0.1128 -0.5393
17472SOL    HW162346   1.114  12.936   5.337 -0.9593  0.4011 -2.0189
17472SOL    HW262347   1.184  12.805   5.305 -0.1031  0.1682  0.6126
17473SOL     OW62348   2.317   7.454   5.357  0.6787  0.2333  0.3053
17473SOL    HW162349   2.393   7.494   5.399  0.1032 -0.0885  1.6837
17473SOL    HW262350   2.288   7.387   5.418  0.4348 -0.9674 -1.0851
17474SOL     OW62351   3.002   3.893   2.451 -0.3557 -0.2231  0.3869
17474SOL    HW162352   2.966   3.937   2.528  0.7209 -0.8486  1.2898
17474SOL    HW262353   2.979   3.801   2.463  0.3727 -0.4208  0.2988
17475SOL     OW62354   2.827   2.455   1.990  0.0016  0.2118  0.0401
17475SOL    HW162355   2.753   2.431   2.045 -0.4885 -2.3093 -1.5485
17475SOL    HW262356   2.788   2.495   1.913  0.2925 -0.6363 -0.5655
17476SOL     OW62357   3.423   1.700   6.695 -0.2353 -0.1743  0.3311
17476SOL    HW162358   3.374   1.720   6.615  0.4605  1.2180  0.2325
17476SOL    HW262359   3.357   1.703   6.764 -0.9167 -1.7658 -0.2065
17477SOL     OW62360  11.576   6.578   0.992  0.7389 -0.4985 -0.4982
17477SOL    HW162361  11.580   6.642   0.921  1.0537 -0.3502 -0.3512
17477SOL    HW262362  11.489   6.592   1.031  0.9246  0.0641 -0.2657
17478SOL     OW62363   6.165   2.229  10.621  0.1212  0.2989  0.0047
17478SOL    HW162364   6.151   2.323  10.612 -1.4177  0.1183  0.0925
17478SOL    HW262365   6.091   2.189  10.575  0.5560 -0.8576  0.2649
17479SOL     OW62366   0.134  12.019   5.290 -0.2074 -0.5192  0.3414
17479SOL    HW162367   0.159  12.106   5.257  2.5215 -1.2927  0.0831
17479SOL    HW262368   0.093  12.036   5.374  1.2304  1.0205  0.7908
17480SOL     OW62369   9.569   5.207   0.902  0.4814  0.0148 -0.0688
17480SOL    HW162370   9.558   5.160   0.985 -0.8085 -1.6135 -1.0880
17480SOL    HW262371   9.628   5.279   0.922  0.7297 -0.7361  2.1041
17481SOL     OW62372   3.404   9.225   8.914  0.1211 -0.4822 -0.0616
17481SOL    HW162373   3.388   9.132   8.932 -0.6859 -0.6657 -1.5109
17481SOL    HW262374   3.426   9.263   8.999  1.0180 -2.1015  0.4835
17482SOL     OW62375  13.031  11.087   6.438 -0.4034 -0.1344 -0.4102
17482SOL    HW162376  13.000  11.057   6.353 -5.5110  0.8357  0.7665
17482SOL    HW262377  13.082  11.166   6.419 -0.3536 -0.6454 -2.6016
17483SOL     OW62378   7.341   1.710  10.435  0.6581  0.0884  0.0085
17483SOL    HW162379   7.248   1.703  10.413  0.6168  1.3792 -0.3362
17483SOL    HW262380   7.352   1.655  10.512 -0.4691  0.1712  0.2426
17484SOL     OW62381   7.925   9.446  12.131  0.1410  0.0854  0.4738
17484SOL    HW162382   7.860   9.484  12.189 -0.6433  0.1813 -0.4382
17484SOL    HW262383   7.874   9.398  12.065  1.0397 -1.0549  0.5568
17485SOL     OW62384  13.186   1.523   9.787 -0.0147 -0.2002  0.0219
17485SOL    HW162385  13.188   1.582   9.862 -2.2878  1.1520 -0.8661
17485SOL    HW262386  13.104   1.474   9.797  0.6703 -1.5182 -0.5176
17486SOL     OW62387  12.075   2.489   2.817 -0.2005  0.3553  0.4833
17486SOL    HW162388  12.032   2.558   2.866 -1.4588 -0.3663  0.4456
17486SOL    HW262389  12.082   2.523   2.727  0.7159  1.0704  0.8099
17487SOL     OW62390   1.282   8.276   0.141  0.8405 -0.5549  0.1595
17487SOL    HW162391   1.353   8.255   0.201 -2.0541 -1.5084  3.5570
17487SOL    HW262392   1.273   8.371   0.147  0.2601 -0.6900  1.7026
17488SOL     OW62393   2.394   1.855   0.678 -0.3140 -0.8187 -0.1898
17488SOL    HW162394   2.462   1.829   0.616  0.3139 -0.8563  0.5045
17488SOL    HW262395   2.391   1.950   0.673 -1.1995 -0.8782 -1.2409
17489SOL     OW62396   4.383   8.383   0.213 -0.9441  1.0380  0.4901
17489SOL    HW162397   4.311   8.357   0.271 -1.2745 -0.0712 -0.3703
17489SOL    HW262398   4.341   8.396   0.128 -0.0322 -0.4480 -0.2254
17490SOL     OW62399   5.251   2.678   6.030 -0.3917  0.4188 -0.4642
17490SOL    HW162400   5.227   2.731   6.106 -0.9308 -3.6376  2.4808
17490SOL    HW262401   5.169   2.668   5.981 -1.4592 -1.2884  1.5052
17491SOL     OW62402   8.057  11.099   4.080 -0.4946 -0.1971  0.8281
17491SOL    HW162403   8.120  11.030   4.060  1.6109  0.8312  3.3952
17491SOL    HW262404   8.108  11.180   4.079 -1.9954  0.8253  2.0042
17492SOL     OW62405   3.513   4.497   1.909 -0.1338  0.2440 -0.8383
17492SOL    HW162406   3.540   4.440   1.838 -1.5260  1.3517 -2.3298
17492SOL    HW262407   3.435   4.456   1.946  1.6682 -1.3930  1.5087
17493SOL     OW62408   8.000   5.145   2.264  0.4385  0.4589  0.3099
17493SOL    HW162409   8.040   5.070   2.221 -0.4763 -0.6869  1.3921
17493SOL    HW262410   7.907   5.140   2.242  0.3764  1.3339  0.3226
17494SOL     OW62411   7.705   9.091   0.556  0.1512 -0.5095  0.1170
17494SOL    HW162412   7.627   9.077   0.609  1.1283  0.3525  1.8740
17494SOL    HW262413   7.749   9.005   0.555 -1.4349 -1.3687 -2.0386
17495SOL     OW62414  13.230   6.490   9.210  0.1824  0.5809  0.1566
17495SOL    HW162415  13.263   6.404   9.237  0.4495 -0.8175 -3.8795
17495SOL    HW262416  13.146   6.499   9.255 -0.1160 -2.0873  0.3092
17496SOL     OW62417   8.797   1.294  10.783  0.4154 -0.2791  0.2183
17496SOL    HW162418   8.832   1.372  10.826 -1.1846  1.0608 -0.8193
17496SOL    HW262419   8.865   1.267  10.722  1.1311  0.0676  0.8516
17497SOL     OW62420   0.853   7.810   8.327 -0.1864  0.0051 -0.0729
17497SOL    HW162421   0.842   7.732   8.381  2.5728 -0.4812 -0.0278
17497SOL    HW262422   0.945   7.805   8.299 -0.6438  1.9576 -2.1058
17498SOL     OW62423  10.969   8.406  11.972 -0.0742 -0.1584 -0.1935
17498SOL    HW162424  10.884   8.450  11.978 -1.1705 -2.0516 -0.9091
17498SOL    HW262425  11.022   8.446  12.040 -2.5453 -0.9693  2.3866
17499SOL     OW62426   7.138   1.353   2.158 -0.2829 -0.0416  0.4820
17499SOL    HW162427   7.149   1.390   2.245  0.8541  0.6359  0.0788
17499SOL    HW262428   7.193   1.275   2.158  0.2630  0.3336  0.1736
17500SOL     OW62429   7.701   0.997  11.581 -0.0256 -0.0463  0.0825
17500SOL    HW162430   7.653   1.044  11.649  0.3887 -0.0171  0.3553
17500SOL    HW262431   7.747   0.927  11.628  0.4456  0.1157 -0.1331
17501SOL     OW62432  12.531   1.111  10.877 -0.6395 -0.5863  0.1838
17501SOL    HW162433  12.481   1.192  10.868 -1.9908 -1.2874  0.9671
17501SOL    HW262434  12.503   1.057  10.804  0.7720 -0.1218 -0.7326
17502SOL     OW62435   2.967  10.573   1.578  0.2477  0.0981  0.0949
17502SOL    HW162436   2.903  10.549   1.511 -0.3694 -1.4975  1.2138
17502SOL    HW262437   3.020  10.641   1.536  0.7285 -1.7278 -2.5363
17503SOL     OW62438   2.186   8.367   9.041  0.1408  0.3497 -0.6774
17503SOL    HW162439   2.200   8.369   9.135 -0.9730  0.1575 -0.5009
17503SOL    HW262440   2.151   8.279   9.023 -0.0353  0.5202 -1.2070
17504SOL     OW62441   5.556   6.679   8.119 -0.3717  0.0925  0.2221
17504SOL    HW162442   5.573   6.654   8.210  0.5096 -0.2442 -0.0320
17504SOL    HW262443   5.525   6.599   8.077 -0.5856  0.1994  0.1750
17505SOL     OW62444  12.985  10.169   2.980 -0.0540  0.0239  0.1053
17505SOL    HW162445  13.037  10.110   3.034 -0.5066  0.5887  1.1719
17505SOL    HW262446  12.982  10.127   2.894  0.5442 -0.9559  0.5575
17506SOL     OW62447   9.243  11.413  10.960  0.5572 -0.5102  0.4972
17506SOL    HW162448   9.195  11.433  10.880  0.5297  0.0695  0.6545
17506SOL    HW262449   9.310  11.480  10.965  0.7652 -0.7378  0.7924
17507SOL     OW62450  11.202   8.302   9.042  0.3905 -0.3774  0.1805
17507SOL    HW162451  11.206   8.386   8.996 -0.7083 -1.1912 -1.4749
17507SOL    HW262452  11.266   8.247   8.997  0.3371 -0.7703  0.5768
17508SOL     OW62453  11.217  10.573   5.666 -0.1882  0.8133 -0.1983
17508SOL    HW162454  11.152  10.561   5.597 -0.0797 -2.8353  0.1318
17508SOL    HW262455  11.177  10.536   5.744  2.2923 -2.0532 -0.0835
17509SOL     OW62456   6.794  11.885   0.223 -0.1978  0.1611  0.0749
17509SOL    HW162457   6.867  11.828   0.199 -0.1754  0.4509 -0.5737
17509SOL    HW262458   6.764  11.922   0.139  0.4014  1.8608  0.5757
17510SOL     OW62459  12.536   6.908  10.770 -0.1778 -0.1448  0.1537
17510SOL    HW162460  12.480   6.873  10.701  1.6255  0.0777 -1.5110
17510SOL    HW262461  12.570   6.990  10.735  0.6673  0.0543  1.3613
17511SOL     OW62462  12.572  12.851  11.115  0.3901 -0.4840  0.2422
17511SOL    HW162463  12.627  12.862  11.193  0.6591  1.3884 -0.1530
17511SOL    HW262464  12.626  12.799  11.055  1.3239  0.4102  0.2737
17512SOL     OW62465   0.690   2.453   7.381  1.0040  0.2615 -0.0797
17512SOL    HW162466   0.757   2.461   7.312  0.9641  1.1612 -0.0296
17512SOL    HW262467   0.619   2.509   7.352  0.4418 -0.3610  0.0787
17513SOL     OW62468   0.508   3.351   8.623 -0.2080 -0.1398  0.5882
17513SOL    HW162469   0.512   3.336   8.718 -0.3979  1.3970  0.8663
17513SOL    HW262470   0.451   3.427   8.614 -0.5565 -0.5539 -0.8083
17514SOL     OW62471   9.198   0.445   9.759  0.7004 -0.2792  0.6014
17514SOL    HW162472   9.264   0.381   9.730  0.6666 -0.1119  0.1434
17514SOL    HW262473   9.164   0.409   9.841  0.5843 -0.9210  0.2783
17515SOL     OW62474  13.181   3.493  10.111 -0.5442  0.3160  0.0427
17515SOL    HW162475  13.097   3.486  10.156 -1.4947  2.5682 -1.2371
17515SOL    HW262476  13.207   3.585  10.123 -0.1758  0.6568 -2.7903
17516SOL     OW62477   4.150   6.832   6.502 -0.4641  0.0443  0.5914
17516SOL    HW162478   4.240   6.850   6.530 -0.7245  1.7925  0.4694
17516SOL    HW262479   4.098   6.899   6.547 -1.7854 -1.2589  1.0699
17517SOL     OW62480   5.940   9.794   2.324  0.2329  0.3064 -0.1830
17517SOL    HW162481   5.922   9.711   2.368  0.4061 -0.0565 -0.7805
17517SOL    HW262482   6.018   9.828   2.368 -0.6962  0.9087  1.0776
17518SOL     OW62483   1.796   6.192   9.910  0.2161  0.1703 -0.3381
17518SOL    HW162484   1.733   6.191   9.838  0.4460 -1.0808 -0.5477
17518SOL    HW262485   1.868   6.246   9.879  0.0457  0.1298 -0.8120
17519SOL     OW62486   9.821   4.652   9.851 -0.9100  0.3756 -0.4385
17519SOL    HW162487   9.754   4.603   9.803  0.7789 -1.9693 -0.5782
17519SOL    HW262488   9.892   4.663   9.787 -0.2465  0.8232  0.3619
17520SOL     OW62489   2.440   1.787   0.979 -0.5193  0.1844  0.3282
17520SOL    HW162490   2.422   1.693   0.966 -0.7948 -0.0396  2.0686
17520SOL    HW262491   2.409   1.828   0.898  0.9639 -1.3496 -1.1158
17521SOL     OW62492   6.722  10.155   7.812 -0.2438 -0.3577 -0.5912
17521SOL    HW162493   6.708  10.115   7.898 -0.3523  0.5380 -0.1804
17521SOL    HW262494   6.816  10.144   7.796 -0.0696  0.1841  0.0153
17522SOL     OW62495   7.846   6.628   4.660  0.0273  0.1005  0.3865
17522SOL    HW162496   7.758   6.647   4.691 -0.9351 -0.7646 -1.6339
17522SOL    HW262497   7.833   6.578   4.580  2.3647  0.7277 -0.4665
17523SOL     OW62498  11.602  12.203   1.010  0.0915 -0.3626 -0.3620
17523SOL    HW162499  11.623  12.269   1.077 -1.3027  1.1358 -1.3156
17523SOL    HW262500  11.508  12.192   1.017  0.1662 -1.4684 -0.9639
17524SOL     OW62501  10.933   1.236   0.366 -0.0591 -0.5031 -0.5788
17524SOL    HW162502  11.027   1.244   0.384 -0.2699  0.3995  0.1751
17524SOL    HW262503  10.918   1.290   0.289  0.1879 -1.3622 -1.2401
17525SOL     OW62504   0.538   2.983   0.854 -0.4253 -0.4832  0.0079
17525SOL    HW162505   0.571   2.894   0.867  0.3287 -0.3497 -0.8918
17525SOL    HW262506   0.451   2.971   0.815 -0.9251 -0.8282  1.2033
17526SOL     OW62507   2.662   6.863   3.685  0.1914 -0.4562  0.5124
17526SOL    HW162508   2.744   6.851   3.733 -0.3309 -2.3404  1.0043
17526SOL    HW262509   2.690   6.896   3.599  1.5738 -1.9122  0.3571
17527SOL     OW62510   4.941   8.331   9.563  0.3841 -0.1517  0.1350
17527SOL    HW162511   4.900   8.412   9.531 -2.1635 -2.0283 -1.7242
17527SOL    HW262512   5.026   8.328   9.517  1.1845  2.0703  1.3174
17528SOL     OW62513   1.425  11.061   6.336 -0.5120 -0.7465  0.4159
17528SOL    HW162514   1.360  10.991   6.341 -0.5472 -0.8303 -0.9326
17528SOL    HW262515   1.459  11.057   6.247  1.6058 -0.9018  1.1890
17529SOL     OW62516  10.767   5.235  10.543 -0.4522  0.2522 -0.2247
17529SOL    HW162517  10.779   5.254  10.450  0.7520  1.4448  0.1332
17529SOL    HW262518  10.758   5.321  10.584 -0.3165 -0.2193  0.8310
17530SOL     OW62519  10.243   1.801   7.368  0.5051  0.5107 -0.3451
17530SOL    HW162520  10.166   1.832   7.320 -0.6788 -0.8929  0.5841
17530SOL    HW262521  10.305   1.778   7.300 -0.0837  1.1759 -1.1312
17531SOL     OW62522  10.160   9.499   2.802  0.1754 -0.0079  0.1092
17531SOL    HW162523  10.236   9.552   2.776  0.7861 -0.8474  0.1480
17531SOL    HW262524  10.119   9.549   2.872  1.5806 -0.2520  1.1573
17532SOL     OW62525   3.052   2.911   0.169  0.4638 -0.9175  0.3815
17532SOL    HW162526   3.092   2.995   0.193 -2.1302  0.6457 -0.2624
17532SOL    HW262527   3.120   2.866   0.118  1.4900  1.4604 -0.5379
17533SOL     OW62528   3.713   1.297  13.011 -0.1638  0.6812  0.0319
17533SOL    HW162529   3.795   1.263  13.045 -0.4580 -1.3075 -1.1111
17533SOL    HW262530   3.730   1.315  12.919 -1.0177  0.2152 -0.2300
17534SOL     OW62531  12.583   3.777   8.176  0.7217  0.1209  0.0116
17534SOL    HW162532  12.654   3.819   8.127 -0.1054  1.5430 -0.0398
17534SOL    HW262533  12.504   3.824   8.148 -0.2764 -1.4840 -0.0198
17535SOL     OW62534   7.213   9.763   2.598 -0.6181  0.3957 -0.4948
17535SOL    HW162535   7.260   9.722   2.671 -0.7396 -0.2677 -0.7846
17535SOL    HW262536   7.184   9.847   2.633 -2.6281 -0.8326  0.9707
17536SOL     OW62537   2.220   2.628   4.945 -0.5363  0.4869 -0.0160
17536SOL    HW162538   2.278   2.602   5.017 -1.0150  1.7090  0.8456
17536SOL    HW262539   2.248   2.716   4.922 -0.5069  0.1742 -1.2299
17537SOL     OW62540  12.019   0.024   2.693  0.1767  0.4555 -0.5831
17537SOL    HW162541  11.932  -0.006   2.666  0.2521 -0.6971  0.3540
17537SOL    HW262542  12.031  -0.014   2.780  2.6676 -1.6411 -1.7024
17538SOL     OW62543  12.565  12.511   4.409  0.2484  0.7992  0.1881
17538SOL    HW162544  12.538  12.430   4.452  0.1811  1.1533  0.8247
17538SOL    HW262545  12.488  12.567   4.412  0.4074  1.0279  0.0987
17539SOL     OW62546   2.116  12.924   8.102  0.1270 -0.3942  0.5645
17539SOL    HW162547   2.118  12.998   8.162 -0.3997 -0.8569  1.1687
17539SOL    HW262548   2.121  12.963   8.014 -2.1767  0.4937  0.7685
17540SOL     OW62549  11.135  11.670   8.188 -0.0949 -0.0610  0.4844
17540SOL    HW162550  11.049  11.677   8.231 -1.2806  0.0862 -1.7593
17540SOL    HW262551  11.161  11.579   8.201 -1.1143 -0.3957  0.2515
17541SOL     OW62552   8.379  12.551   5.079  0.1233  0.0444 -0.1738
17541SOL    HW162553   8.448  12.615   5.060  0.5094 -0.8201 -1.9410
17541SOL    HW262554   8.321  12.557   5.003 -1.6918  0.6315  1.2059
17542SOL     OW62555   2.818  11.799  11.201  0.1627 -0.3526 -0.0295
17542SOL    HW162556   2.756  11.793  11.129  1.1802 -0.5899 -0.9175
17542SOL    HW262557   2.783  11.741  11.269 -0.6942 -0.2932 -0.4155
17543SOL     OW62558  10.045   9.445   1.141  0.3818 -0.3301  0.0258
17543SOL    HW162559  10.130   9.466   1.104  0.1708  0.6957  0.1031
17543SOL    HW262560  10.008   9.379   1.082  0.7928 -0.0119 -0.5893
17544SOL     OW62561   3.990   0.314  12.587  0.1137 -0.2327  0.5831
17544SOL    HW162562   4.018   0.292  12.676 -2.1671  0.0308  1.4407
17544SOL    HW262563   4.028   0.244  12.533  2.7204  0.3766  1.4849
17545SOL     OW62564   6.954   8.837   2.302  0.1903  0.2234  0.0218
17545SOL    HW162565   6.926   8.783   2.228 -0.1542  1.6725 -0.9538
17545SOL    HW262566   7.036   8.876   2.273  0.2053  0.5799  0.5341
17546SOL     OW62567  10.849   4.636   3.082  0.8434  0.1436 -0.1220
17546SOL    HW162568  10.866   4.636   3.176  0.7421  2.7146 -0.0463
17546SOL    HW262569  10.909   4.569   3.047  0.9672 -0.7735  1.7204
17547SOL     OW62570  10.410   2.109   2.288 -0.2280  0.0677 -0.9224
17547SOL    HW162571  10.359   2.128   2.209 -0.0508  1.7715 -0.6677
17547SOL    HW262572  10.361   2.150   2.359  0.8565  0.6950 -0.5073
17548SOL     OW62573   0.896   2.338   5.944 -0.0456  0.1057 -0.5536
17548SOL    HW162574   0.989   2.339   5.924 -0.2231 -1.2930 -1.6337
17548SOL    HW262575   0.890   2.293   6.029  0.2266 -0.3341 -0.7651
17549SOL     OW62576   6.871   5.921  11.433 -0.2266  0.4302  0.1082
17549SOL    HW162577   6.803   5.907  11.368  0.2365  1.6226 -0.6608
17549SOL    HW262578   6.827   5.908  11.517 -0.4507 -2.8501 -0.3948
17550SOL     OW62579   8.836   1.303  12.228 -0.9533  0.2859 -0.3432
17550SOL    HW162580   8.850   1.321  12.321 -3.8445  0.8421  0.0891
17550SOL    HW262581   8.771   1.368  12.200 -1.4308 -0.9391 -2.3157
17551SOL     OW62582   5.833   6.043   0.020  0.7385 -1.0344 -0.2531
17551SOL    HW162583   5.758   6.058   0.078  1.4901 -1.1108  0.7781
17551SOL    HW262584   5.853   5.950   0.030  2.3471 -0.5900  1.2735
17552SOL     OW62585   8.918   5.344  12.972 -0.3197  0.2613 -0.1063
17552SOL    HW162586   8.996   5.306  12.934  0.6154  1.3413  0.6667
17552SOL    HW262587   8.948   5.387  13.052 -2.0733 -1.3277  1.5343
17553SOL     OW62588  12.065   7.961   9.264  0.0546 -0.2245  0.0871
17553SOL    HW162589  12.059   7.911   9.345 -0.7785 -1.0778 -0.4786
17553SOL    HW262590  12.117   7.905   9.205  2.1258  1.1094  0.5198
17554SOL     OW62591  11.051   5.877  12.537 -0.0631  0.3372  0.0274
17554SOL    HW162592  11.045   5.972  12.534  2.8512  0.6579  1.4643
17554SOL    HW262593  11.057   5.851  12.445 -1.9307  1.3798 -0.4413
17555SOL     OW62594  11.447   5.279   8.811  0.3773 -0.5103 -0.1121
17555SOL    HW162595  11.444   5.309   8.721 -0.7468  0.4023  0.2044
17555SOL    HW262596  11.481   5.355   8.860  1.0281 -1.0144  0.2278
17556SOL     OW62597   9.469  11.119   4.460 -0.2274 -0.0994  0.1585
17556SOL    HW162598   9.464  11.030   4.494  0.6673 -0.4638 -0.5953
17556SOL    HW262599   9.474  11.175   4.537  0.1186 -0.7769  0.6349
17557SOL     OW62600  11.781   0.939   0.210  0.0780  0.1971  0.8901
17557SOL    HW162601  11.724   0.979   0.276 -1.2725 -0.1465 -0.0463
17557SOL    HW262602  11.856   0.999   0.205 -1.1698  1.8228  0.6426
17558SOL     OW62603   3.043   6.485   9.883 -0.3470 -0.1108  0.3708
17558SOL    HW162604   2.963   6.464   9.835  0.0855  0.9157 -0.8408
17558SOL    HW262605   3.020   6.562   9.935 -0.3128 -0.1611  0.4604
17559SOL     OW62606   9.841   3.937   7.821 -0.0808 -0.1721  0.2091
17559SOL    HW162607   9.770   3.916   7.761 -0.2061  2.7587 -0.8494
17559SOL    HW262608   9.919   3.940   7.766  0.4424 -0.9143  0.8888
17560SOL     OW62609   1.922   0.162   7.185  0.4267  0.0828 -0.0713
17560SOL    HW162610   1.885   0.230   7.129 -0.6181 -0.0114  0.4954
17560SOL    HW262611   1.959   0.210   7.259  0.6864  0.1125 -0.2191
17561SOL     OW62612  10.874   9.110   6.045  0.2567  0.0113  0.2555
17561SOL    HW162613  10.952   9.164   6.048 -0.2281  0.8216 -0.8715
17561SOL    HW262614  10.801   9.172   6.045 -0.3826 -0.7096  0.8870
17562SOL     OW62615   3.504  12.141   7.468 -0.1903 -0.8329 -0.2455
17562SOL    HW162616   3.592  12.114   7.495 -0.5494 -1.2439  0.5643
17562SOL    HW262617   3.509  12.236   7.461 -0.2774 -0.5638  2.2306
17563SOL     OW62618  10.915  12.979   2.107  0.2416 -0.2777 -0.2509
17563SOL    HW162619  10.825  12.974   2.074 -0.5350 -0.4057  1.7333
17563SOL    HW262620  10.923  13.067   2.143  1.4411  0.2516 -1.7178
17564SOL     OW62621   0.087   0.908   9.919  0.3360  0.1683  0.1413
17564SOL    HW162622   0.044   0.988   9.890 -0.1407  0.4883  1.6314
17564SOL    HW262623   0.017   0.858   9.962  0.9878 -0.2956  0.6759
17565SOL     OW62624  12.991   2.603   6.603 -0.6463 -0.4849  0.0063
17565SOL    HW162625  13.000   2.698   6.609 -2.8722 -0.2711  1.0105
17565SOL    HW262626  12.901   2.589   6.571 -0.8215 -2.2494  1.1264
17566SOL     OW62627  11.475   4.402  12.199  0.0043  0.0042 -0.1478
17566SOL    HW162628  11.455   4.333  12.262  0.3305  0.4008  0.3884
17566SOL    HW262629  11.553   4.444  12.233 -0.4221  0.9050 -0.2597
17567SOL     OW62630   9.003  13.126   5.108 -0.6952 -0.7882 -0.2654
17567SOL    HW162631   9.040  13.201   5.154  0.8847  0.0499 -2.7144
17567SOL    HW262632   9.065  13.055   5.124  0.9491  0.0230 -2.5339
17568SOL     OW62633  12.111   8.387   6.198  0.0252 -0.1065  0.2442
17568SOL    HW162634  12.077   8.446   6.131 -0.0444 -0.0299  0.3456
17568SOL    HW262635  12.109   8.301   6.158 -0.1869 -0.0856  0.2132
17569SOL     OW62636   2.097   0.807   4.606  0.0774  0.8735  0.2133
17569SOL    HW162637   2.066   0.879   4.551 -2.0600 -0.6634 -0.7576
17569SOL    HW262638   2.019   0.755   4.623  1.5349 -1.2740  0.7672
17570SOL     OW62639   2.755   9.378   0.153  0.0679 -0.1562 -0.4412
17570SOL    HW162640   2.722   9.293   0.127 -1.3756  0.6613 -1.4186
17570SOL    HW262641   2.724   9.438   0.085  0.5609  1.2445  0.5160
17571SOL     OW62642   6.650   1.920  12.985  0.0321  0.3435 -0.2307
17571SOL    HW162643   6.588   1.985  12.953 -2.2692 -1.7174 -0.2342
17571SOL    HW262644   6.698   1.965  13.054 -0.4281  2.4462 -1.1901
17572SOL     OW62645   6.832  12.160   5.825 -0.1281  0.4751 -0.1962
17572SOL    HW162646   6.917  12.187   5.789 -0.6188  1.8269 -0.4013
17572SOL    HW262647   6.844  12.168   5.920 -0.0851  0.8873 -0.2325
17573SOL     OW62648   7.814   6.925  11.078 -0.0888 -0.7164 -0.5518
17573SOL    HW162649   7.857   6.898  11.159 -0.1006 -0.4836 -0.4686
17573SOL    HW262650   7.883   6.969  11.028 -0.3038 -0.0795 -0.2944
17574SOL     OW62651   9.567  12.498   7.637 -0.6849  0.3379  0.7341
17574SOL    HW162652   9.535  12.566   7.577  0.0142  0.3016  0.3013
17574SOL    HW262653   9.611  12.546   7.707  0.5336  0.3455  0.0085
17575SOL     OW62654   7.055  10.120   4.127 -0.2100  0.1379  0.4002
17575SOL    HW162655   7.045  10.046   4.186  0.5198 -1.4708 -1.3713
17575SOL    HW262656   7.150  10.135   4.124  0.0006 -1.1453 -1.7918
17576SOL     OW62657   5.494  11.775   8.428 -0.3602  0.6171  0.2596
17576SOL    HW162658   5.438  11.797   8.503 -1.1208  1.6028 -0.5668
17576SOL    HW262659   5.471  11.685   8.406 -2.4311  1.3126 -0.7032
17577SOL     OW62660   7.384   0.999   0.634  0.0199 -0.6437 -0.2033
17577SOL    HW162661   7.339   0.997   0.719 -2.2807  0.3707 -1.3150
17577SOL    HW262662   7.419   0.911   0.623 -0.7990 -1.1697  1.1981
17578SOL     OW62663   1.939   7.889  13.305 -0.1573 -0.2832  0.5311
17578SOL    HW162664   1.975   7.869  13.391 -1.6633 -1.6055  0.9094
17578SOL    HW262665   1.858   7.839  13.301 -0.5242  0.3745 -1.3610
17579SOL     OW62666   4.756   0.600   6.371  0.0719  0.3909  0.3532
17579SOL    HW162667   4.773   0.653   6.293  1.5203 -0.1616  0.2746
17579SOL    HW262668   4.662   0.611   6.387  0.0979  1.9468 -0.4015
17580SOL     OW62669   4.635  11.201   6.451  0.2113  0.0223 -0.3323
17580SOL    HW162670   4.630  11.285   6.405  0.1982  0.0042 -0.3646
17580SOL    HW262671   4.724  11.170   6.434  0.5469  0.4958  0.5045
17581SOL     OW62672   3.333   6.623  13.225 -0.2106  0.8880  0.0323
17581SOL    HW162673   3.293   6.711  13.224 -0.1387  1.0080  2.0864
17581SOL    HW262674   3.422   6.638  13.255 -0.1263  0.1456  0.1620
17582SOL     OW62675  13.020  11.692   0.239 -0.0165  0.1490  0.5516
17582SOL    HW162676  13.031  11.615   0.294 -0.7810  0.4951  1.2182
17582SOL    HW262677  12.934  11.726   0.264 -0.2519  0.4815 -0.6540
17583SOL     OW62678   6.201   1.848   5.987 -0.4578  0.4371 -0.2602
17583SOL    HW162679   6.126   1.862   5.930  1.4506  0.6767 -2.9099
17583SOL    HW262680   6.248   1.932   5.986  1.8319 -0.7613 -1.8970
17584SOL     OW62681   3.410   0.595   8.017  0.2680  0.1232 -0.2755
17584SOL    HW162682   3.426   0.671   7.962 -1.2174 -0.7451 -2.0267
17584SOL    HW262683   3.448   0.522   7.969 -1.2528 -0.6858 -0.3050
17585SOL     OW62684  10.626   9.499   5.635 -0.0279 -0.2661 -0.4261
17585SOL    HW162685  10.583   9.511   5.550  0.6619 -0.1263 -0.7646
17585SOL    HW262686  10.691   9.431   5.619  0.2704 -0.0669 -0.0713
17586SOL     OW62687   4.839   2.109   8.191 -0.2139  0.7143  0.4817
17586SOL    HW162688   4.915   2.162   8.165 -0.2914  0.1967 -0.8803
17586SOL    HW262689   4.771   2.132   8.127  0.1170 -1.8313 -0.8931
17587SOL     OW62690  10.171   9.064  10.852  0.0626  0.1981 -0.0892
17587SOL    HW162691  10.126   9.003  10.794 -0.7080 -0.6879  1.3872
17587SOL    HW262692  10.252   9.019  10.876  0.9004  1.0086 -1.2575
17588SOL     OW62693   2.142   5.470   3.266  0.3637  0.1240 -0.6924
17588SOL    HW162694   2.091   5.551   3.261  0.7911  0.4231 -0.3058
17588SOL    HW262695   2.232   5.496   3.245  0.3364 -0.4284 -1.5193
17589SOL     OW62696  11.708   3.320   1.923  0.8354 -0.1605 -0.3761
17589SOL    HW162697  11.705   3.274   1.839  0.9265 -1.5749  0.3561
17589SOL    HW262698  11.726   3.251   1.987 -1.0849  0.5516  1.0430
17590SOL     OW62699   4.259  12.728  10.045  0.0508 -0.0555  0.2825
17590SOL    HW162700   4.315  12.666  10.092  0.7648  0.3027 -0.0762
17590SOL    HW262701   4.319  12.772   9.984 -1.2028 -2.0463 -2.6053
17591SOL     OW62702   3.708   7.420   2.614 -0.2358 -0.4271 -0.2638
17591SOL    HW162703   3.724   7.326   2.610  0.8013 -0.2757  0.0884
17591SOL    HW262704   3.795   7.460   2.616 -0.6565  0.5425 -0.3524
17592SOL     OW62705   8.081   0.838  13.125 -0.3296 -0.1459  0.5719
17592SOL    HW162706   8.136   0.864  13.199  0.5580 -1.3982  0.3788
17592SOL    HW262707   8.022   0.772  13.161 -0.3734 -0.2435  0.3250
17593SOL     OW62708   3.040  10.261  13.231  0.3545  0.7731 -0.7385
17593SOL    HW162709   2.970  10.195  13.231  0.7208  0.3749 -1.1584
17593SOL    HW262710   3.038  10.297  13.143  0.3681  1.1070 -0.6044
17594SOL     OW62711   9.524   2.313   2.508 -0.4295 -0.0047 -0.3543
17594SOL    HW162712   9.447   2.362   2.479  1.8759  2.5561 -2.7369
17594SOL    HW262713   9.528   2.327   2.603 -2.6131  0.1533 -0.2526
17595SOL     OW62714   2.545   2.709   6.867 -0.3014 -0.1568 -0.0423
17595SOL    HW162715   2.460   2.668   6.883  0.4653 -1.9598 -0.3502
17595SOL    HW262716   2.605   2.635   6.854  1.0977  1.0884 -0.9511
17596SOL     OW62717   4.845   1.055   1.138  0.8046 -0.4109 -0.4976
17596SOL    HW162718   4.795   0.985   1.095 -0.1791 -1.1310  1.6709
17596SOL    HW262719   4.922   1.011   1.174  1.4644  0.1246 -1.2278
17597SOL     OW62720   9.605   9.386   3.922 -0.0833  0.3345 -0.1643
17597SOL    HW162721   9.539   9.378   3.991 -0.2269 -0.3432 -0.3704
17597SOL    HW262722   9.562   9.351   3.844  0.8366 -1.0602 -0.0881
17598SOL     OW62723   9.818   8.037   9.738  0.4039 -0.1639  0.5751
17598SOL    HW162724   9.740   7.982   9.739  0.1309  0.2144  0.6578
17598SOL    HW262725   9.856   8.025   9.651 -0.5672  0.7659 -0.0028
17599SOL     OW62726   5.379   4.123   3.486 -0.3736 -0.5320  0.2774
17599SOL    HW162727   5.343   4.099   3.571 -0.1159 -0.5127  0.3950
17599SOL    HW262728   5.435   4.199   3.505  0.1194 -0.8665  0.1819
17600SOL     OW62729   9.016  12.572   3.887  0.1707 -0.2687 -0.3977
17600SOL    HW162730   9.015  12.499   3.825  0.8964  0.6690 -1.5620
17600SOL    HW262731   8.989  12.648   3.834  1.6168  0.7060  0.2122
17601SOL     OW62732  12.314   2.428   9.476  0.1789 -0.0026  0.0552
17601SOL    HW162733  12.376   2.356   9.465  0.1589  0.1198 -0.9235
17601SOL    HW262734  12.279   2.444   9.388  0.0907  1.1201  0.2728
17602SOL     OW62735   2.545   5.507   3.535 -0.3202  0.6181 -0.7353
17602SOL    HW162736   2.565   5.414   3.544  1.3816  0.9951 -0.2022
17602SOL    HW262737   2.607   5.539   3.469 -0.0082  1.6085  0.0118
17603SOL     OW62738   5.375   9.887   8.330 -0.4368 -0.0778 -0.6315
17603SOL    HW162739   5.456   9.881   8.380 -0.6237 -0.6821 -0.3921
17603SOL    HW262740   5.358   9.981   8.323 -0.1963  0.0267  0.0964
17604SOL     OW62741   1.979   0.874   8.048 -0.2916 -0.3815  0.2210
17604SOL    HW162742   1.896   0.907   8.084 -1.4725 -0.5221 -2.1585
17604SOL    HW262743   2.000   0.935   7.978  0.5750 -1.4355 -0.4676
17605SOL     OW62744   7.328   4.913  10.510 -0.2175  0.0040 -0.0559
17605SOL    HW162745   7.414   4.933  10.547  1.0595  0.1399 -2.8734
17605SOL    HW262746   7.289   4.999  10.492 -1.0714 -0.0529  1.3083
17606SOL     OW62747   4.783  12.628   0.430 -0.7437  0.2588  0.0064
17606SOL    HW162748   4.699  12.605   0.391 -0.2476 -1.7341  0.0256
17606SOL    HW262749   4.823  12.544   0.454  0.1075  1.2596  2.4273
17607SOL     OW62750  12.656   1.257   2.246  0.8759 -0.1117 -0.0309
17607SOL    HW162751  12.669   1.316   2.172 -0.1798  0.5558  0.2995
17607SOL    HW262752  12.682   1.308   2.323  0.8524 -0.3993  0.1720
17608SOL     OW62753  11.256   7.047   0.982 -0.3996 -0.0814 -0.1821
17608SOL    HW162754  11.256   7.139   1.007 -2.2985  0.3460 -1.5400
17608SOL    HW262755  11.308   7.044   0.901  1.6777 -0.6596  1.0941
17609SOL     OW62756   1.282   7.264   7.883 -0.2196 -0.2020  0.1229
17609SOL    HW162757   1.283   7.217   7.800 -0.7901  0.3397 -0.1982
17609SOL    HW262758   1.229   7.209   7.941 -1.5312  0.3847 -0.4723
17610SOL     OW62759   0.301   1.004  13.158  0.8871 -0.8437 -0.0285
17610SOL    HW162760   0.258   1.024  13.074 -0.3623  0.5350  0.9041
17610SOL    HW262761   0.385   0.966  13.133  1.2691  1.0804 -1.9273
17611SOL     OW62762  11.070   9.509   6.711  0.0709 -0.4129 -0.0749
17611SOL    HW162763  11.026   9.426   6.730 -1.2890 -0.0318 -1.4366
17611SOL    HW262764  11.114   9.495   6.628  0.8432 -0.1250  0.2727
17612SOL     OW62765  10.891   4.885   2.924 -0.5143 -0.2371  0.1207
17612SOL    HW162766  10.851   4.964   2.960  1.3778  0.3040  1.1534
17612SOL    HW262767  10.885   4.820   2.994  1.4681  0.2393  0.7859
17613SOL     OW62768   1.436  11.864  11.689  0.6229 -0.0385  0.3879
17613SOL    HW162769   1.489  11.804  11.741 -0.7941 -1.0705  0.7036
17613SOL    HW262770   1.411  11.934  11.750  3.1693  1.5559 -0.2450
17614SOL     OW62771  11.701   9.122   9.652 -0.2086  0.7746  0.1513
17614SOL    HW162772  11.774   9.106   9.593  0.6588  0.9181  1.1494
17614SOL    HW262773  11.716   9.063   9.726 -0.4002  1.6947  0.9541
17615SOL     OW62774   1.211   2.749   9.024 -0.2667  0.4920  0.5197
17615SOL    HW162775   1.232   2.688   9.095 -0.4683 -1.4071 -0.9650
17615SOL    HW262776   1.118   2.770   9.036  0.0856  1.4577  1.7000
17616SOL     OW62777   1.555  10.941   3.050 -0.6881 -0.4641  0.2109
17616SOL    HW162778   1.521  10.993   2.977  0.6236 -1.5376 -1.2106
17616SOL    HW262779   1.571  11.005   3.120 -0.1839  0.8844 -1.0955
17617SOL     OW62780   0.616   3.296   6.084 -0.2120  0.5333 -0.2039
17617SOL    HW162781   0.571   3.379   6.070  0.3462  1.5203  3.0653
17617SOL    HW262782   0.545   3.231   6.087 -0.7085  0.9176 -2.0897
17618SOL     OW62783   9.409   2.290   3.533 -0.3212  0.1401  0.2017
17618SOL    HW162784   9.465   2.231   3.583 -0.5021 -0.5637 -0.4202
17618SOL    HW262785   9.443   2.377   3.553  2.1286 -0.3210 -1.4415
17619SOL     OW62786   4.728   5.862   2.144  0.0861 -0.8293 -0.0416
17619SOL    HW162787   4.751   5.955   2.143  0.3408 -0.8694  1.2645
17619SOL    HW262788   4.811   5.816   2.145 -0.0402 -1.0826 -0.6802
17620SOL     OW62789   0.835   0.469   2.568 -0.6895  0.0781 -0.6704
17620SOL    HW162790   0.778   0.463   2.491 -2.8313 -0.6718  0.8848
17620SOL    HW262791   0.817   0.555   2.605 -0.4697  0.0151 -0.4144
17621SOL     OW62792  11.056  12.472   8.145 -0.2955  0.2959  0.3061
17621SOL    HW162793  11.138  12.516   8.122  0.3894  0.1157  2.2362
17621SOL    HW262794  11.053  12.474   8.241 -1.4387 -1.7102  0.3727
17622SOL     OW62795   9.859   4.435   1.588  0.0729  0.0313  0.3696
17622SOL    HW162796   9.927   4.404   1.529 -0.7316 -0.0358 -0.5413
17622SOL    HW262797   9.791   4.470   1.530 -1.3553 -1.2779  1.1773
17623SOL     OW62798   9.744   1.102  10.343  0.5476  0.2545 -0.6700
17623SOL    HW162799   9.678   1.108  10.274  1.3121 -0.0612 -1.4527
17623SOL    HW262800   9.781   1.015  10.334 -0.3359 -0.3395  1.1068
17624SOL     OW62801   5.063   8.126  10.952 -0.1471  0.3967 -0.3222
17624SOL    HW162802   5.125   8.196  10.972 -0.5913  0.7390 -0.1092
17624SOL    HW262803   5.117   8.048  10.940  0.5871  1.1555 -2.6451
17625SOL     OW62804   8.194   6.317   9.089 -0.5857 -0.7662 -0.3307
17625SOL    HW162805   8.116   6.330   9.035  0.6247 -1.7435 -2.4264
17625SOL    HW262806   8.206   6.223   9.091  0.9976 -0.5856 -0.7103
17626SOL     OW62807  10.533   9.812   0.955  0.3558  0.0914 -0.0911
17626SOL    HW162808  10.528   9.854   0.869  0.3622  1.0860  0.3732
17626SOL    HW262809  10.529   9.885   1.017 -0.3072 -0.6476  0.7701
17627SOL     OW62810   4.286   3.296  10.352 -0.4546  0.0201 -0.6391
17627SOL    HW162811   4.284   3.201  10.342 -1.2398  0.1427 -1.8404
17627SOL    HW262812   4.194   3.321  10.357 -0.2535  0.7226 -0.3901
17628SOL     OW62813  10.570   0.493   8.252 -0.4836  0.2540  0.0252
17628SOL    HW162814  10.534   0.422   8.199 -1.4649  0.1824  0.7745
17628SOL    HW262815  10.511   0.501   8.326  0.3474  0.9902  0.6307
17629SOL     OW62816   4.614   1.108   3.484 -0.1296  0.3039 -0.2979
17629SOL    HW162817   4.689   1.160   3.456  1.0853 -1.0485  0.3069
17629SOL    HW262818   4.645   1.018   3.482 -2.0570 -0.3916 -0.9529
17630SOL     OW62819  12.053  12.678   0.450  0.5825  0.7096 -0.6434
17630SOL    HW162820  12.103  12.604   0.482 -0.6482 -0.5258 -1.4340
17630SOL    HW262821  12.074  12.750   0.509  1.2469 -0.4694  0.5898
17631SOL     OW62822   5.192   7.554  11.586 -0.1735 -0.0880  0.3414
17631SOL    HW162823   5.142   7.626  11.624  0.3737 -0.1395  1.1875
17631SOL    HW262824   5.233   7.591  11.508 -0.9132  0.1561  0.0613
17632SOL     OW62825   2.175  11.655   3.649 -0.6320  0.5318 -0.3626
17632SOL    HW162826   2.156  11.562   3.662  0.2811  0.6496  2.5943
17632SOL    HW262827   2.089  11.696   3.643 -1.0628 -0.5703 -3.2092
17633SOL     OW62828   3.963   1.185  11.364 -0.6954 -0.0919 -0.2656
17633SOL    HW162829   3.934   1.138  11.286 -1.3789 -0.0406 -0.0477
17633SOL    HW262830   3.882   1.217  11.404 -0.4214 -0.9675  1.0108
17634SOL     OW62831   0.573   0.956   0.024  0.2821  0.9422  0.2878
17634SOL    HW162832   0.594   0.867   0.050 -0.6854  0.5761 -0.1299
17634SOL    HW262833   0.534   0.996   0.103 -0.6347  0.5223  0.0620
17635SOL     OW62834  13.142  11.842   2.651  0.2380  0.2531 -0.1772
17635SOL    HW162835  13.084  11.789   2.706 -0.6213  0.0698 -1.2217
17635SOL    HW262836  13.204  11.780   2.614 -1.1617 -0.2105 -1.9095
17636SOL     OW62837   9.188   9.775   2.435 -0.1996  0.0337  0.5246
17636SOL    HW162838   9.135   9.824   2.372  0.0080 -1.1983 -0.6489
17636SOL    HW262839   9.160   9.684   2.424  0.6401 -0.3516  1.4311
17637SOL     OW62840   9.761   6.334  12.133  0.8834  0.3690  0.6960
17637SOL    HW162841   9.716   6.363  12.213 -0.2490  2.3332 -0.5691
17637SOL    HW262842   9.773   6.240  12.146 -0.3918  0.4006  2.6452
17638SOL     OW62843   3.571  11.314   7.347  0.2583 -0.4613 -0.3251
17638SOL    HW162844   3.538  11.283   7.431 -0.8659  1.6538  0.0653
17638SOL    HW262845   3.510  11.383   7.320 -0.8864 -2.6034 -4.0835
17639SOL     OW62846  12.646  10.034   7.694  0.2194 -0.0342 -0.1868
17639SOL    HW162847  12.738  10.010   7.689  0.2326  0.1468 -0.9404
17639SOL    HW262848  12.622  10.057   7.604  0.0267  2.0551  0.3423
17640SOL     OW62849   9.344   9.215   1.948  0.0791 -0.3186  0.0842
17640SOL    HW162850   9.267   9.187   1.999  0.0077  1.3027  0.9505
17640SOL    HW262851   9.309   9.238   1.862 -0.1607 -0.9676  0.0030
17641SOL     OW62852   9.768   6.697   3.418  0.1713 -0.1588  0.1089
17641SOL    HW162853   9.842   6.659   3.466  0.0258 -1.5611 -0.7255
17641SOL    HW262854   9.808   6.743   3.344  0.2162 -1.3516 -0.6348
17642SOL     OW62855   7.144  12.054   0.139  0.1774  0.4859  0.2982
17642SOL    HW162856   7.111  12.133   0.096  1.0915 -0.2242 -1.7987
17642SOL    HW262857   7.220  12.084   0.189  0.0981  1.0642  0.0794
17643SOL     OW62858   9.638   8.571  12.655  0.5140  0.3840 -0.3317
17643SOL    HW162859   9.592   8.490  12.678 -0.9609  0.7016 -1.9680
17643SOL    HW262860   9.728   8.544  12.639  0.3498 -0.6898  0.4328
17644SOL     OW62861   4.800   6.415   1.024  0.3300 -0.1233 -0.3658
17644SOL    HW162862   4.760   6.483   0.969 -0.3823  0.9271  1.3752
17644SOL    HW262863   4.757   6.334   0.996 -0.1994  0.4179 -1.1730
17645SOL     OW62864  12.064   4.178  11.463  0.3587 -0.4576  0.4813
17645SOL    HW162865  12.047   4.194  11.371  1.0818  0.4433  0.4818
17645SOL    HW262866  12.142   4.122  11.464  0.2498 -0.6084  0.5432
17646SOL     OW62867  10.891   1.363   2.197  0.0182 -0.4593  0.2735
17646SOL    HW162868  10.811   1.311   2.190 -0.0394 -0.4761  1.0425
17646SOL    HW262869  10.928   1.361   2.108 -1.4251  0.5366 -0.3903
17647SOL     OW62870   0.792   1.412   2.963  0.1728 -0.4980  0.4823
17647SOL    HW162871   0.747   1.372   2.889  0.6444  0.5396 -0.3852
17647SOL    HW262872   0.871   1.359   2.974  1.9688  1.3964 -2.1172
17648SOL     OW62873   0.290   8.443   2.409 -0.4006  0.8799 -0.1789
17648SOL    HW162874   0.313   8.359   2.368  0.9529  1.2877 -0.2980
17648SOL    HW262875   0.203   8.463   2.375 -0.7135 -0.4267 -0.2203
17649SOL     OW62876  12.419   8.594  12.030  0.0608 -0.3245 -0.0278
17649SOL    HW162877  12.399   8.614  11.939  0.0992 -0.8161 -0.1444
17649SOL    HW262878  12.515   8.584  12.032  0.2118  0.9888  0.3272
17650SOL     OW62879   7.602   7.052  12.039  0.7060  0.4122  0.0271
17650SOL    HW162880   7.558   7.010  12.112  0.2947  0.8447  0.0334
17650SOL    HW262881   7.680   6.999  12.024  0.9741  0.5098  1.0011
17651SOL     OW62882   7.372   6.821   7.706  0.3954  0.0799  0.0465
17651SOL    HW162883   7.454   6.784   7.737  0.2518 -0.1693  0.1293
17651SOL    HW262884   7.332   6.751   7.653 -0.1561 -0.1019  0.6896
17652SOL     OW62885   1.578   6.265   3.194  0.0622  0.3325  0.2472
17652SOL    HW162886   1.596   6.344   3.143 -0.4111  0.1309 -0.2536
17652SOL    HW262887   1.560   6.296   3.282 -0.8753  0.8686 -0.1140
17653SOL     OW62888  10.883   6.955  12.392  0.1593 -0.3593  0.4281
17653SOL    HW162889  10.901   6.889  12.459 -0.5023 -1.4174 -0.4007
17653SOL    HW262890  10.815   6.915  12.337  0.4636  0.6079 -0.6852
17654SOL     OW62891  10.636   4.769   3.869  0.3581 -0.0645  0.1148
17654SOL    HW162892  10.645   4.696   3.808 -1.8071  0.3312 -0.7811
17654SOL    HW262893  10.545   4.765   3.898  0.1309  2.3099 -0.0411
17655SOL     OW62894   5.549  12.381   6.397  0.2033  0.2689  0.7513
17655SOL    HW162895   5.486  12.452   6.410 -2.6914 -2.0448  0.6176
17655SOL    HW262896   5.594  12.403   6.315 -0.7859  1.8226  0.5843
17656SOL     OW62897   7.865   6.651   4.348 -0.1603  0.0504  0.4488
17656SOL    HW162898   7.806   6.725   4.332  0.6979  1.2224  2.3905
17656SOL    HW262899   7.908   6.637   4.264 -3.0155 -0.7527 -1.0072
17657SOL     OW62900   6.388   1.771   0.522  0.5559 -0.0289  0.3061
17657SOL    HW162901   6.304   1.727   0.515  0.8500 -0.6572  0.6167
17657SOL    HW262902   6.443   1.729   0.457 -0.2083  2.4686 -2.1120
17658SOL     OW62903   4.347   9.119   0.395  0.3031  0.2660  0.9143
17658SOL    HW162904   4.427   9.067   0.387  1.0956  1.5883 -0.2115
17658SOL    HW262905   4.363   9.175   0.471  0.2243  0.1799  0.9953
17659SOL     OW62906  12.234   5.114   8.262 -0.2276 -0.0210 -0.9610
17659SOL    HW162907  12.251   5.145   8.172  3.3558 -1.9842 -1.1268
17659SOL    HW262908  12.235   5.019   8.255  1.6200 -0.2439  1.3261
17660SOL     OW62909   3.798   0.830   7.877  0.1609  0.5408  0.2510
17660SOL    HW162910   3.742   0.893   7.923 -0.1054 -0.1183  0.8514
17660SOL    HW262911   3.750   0.748   7.881  0.0005  0.5168 -1.4841
17661SOL     OW62912   3.770   4.392   2.728 -0.4595  0.3889  0.0390
17661SOL    HW162913   3.797   4.381   2.819 -0.7964 -1.0618 -0.0075
17661SOL    HW262914   3.750   4.485   2.720 -0.5674  0.5147  1.4887
17662SOL     OW62915   4.982   2.091  10.913  0.4335  0.2339 -0.3610
17662SOL    HW162916   5.046   2.064  10.978 -0.1260 -0.0141  0.0988
17662SOL    HW262917   4.972   2.185  10.927  1.2018  0.4011 -0.8968
17663SOL     OW62918   5.769   9.799  13.212  0.0649  0.1851 -0.0129
17663SOL    HW162919   5.781   9.837  13.299 -1.6787  1.8420 -0.4301
17663SOL    HW262920   5.834   9.843  13.158 -1.1854  1.8337 -0.2483
17664SOL     OW62921   2.272  12.957   0.080  0.3574 -0.5198  0.1892
17664SOL    HW162922   2.314  12.884   0.034  1.3543  0.4658 -0.4989
17664SOL    HW262923   2.178  12.944   0.064  0.6545 -0.3057 -1.9996
17665SOL     OW62924   4.452   0.294  13.304 -0.3712  0.4182 -0.5829
17665SOL    HW162925   4.404   0.305  13.386 -2.0095  0.1970 -1.4744
17665SOL    HW262926   4.528   0.352  13.313  0.2424 -0.6096  1.6039
17666SOL     OW62927   2.085   5.685   8.425 -0.1762 -0.3980  0.3904
17666SOL    HW162928   2.016   5.707   8.488 -1.3646  1.5836 -1.4518
17666SOL    HW262929   2.052   5.609   8.379 -0.0233 -0.8925  1.0802
17667SOL     OW62930  12.639   2.105   1.373  0.3994 -0.0785  0.4180
17667SOL    HW162931  12.609   2.194   1.356  1.3813  0.3765  0.9520
17667SOL    HW262932  12.729   2.116   1.404 -0.1191 -1.0814  2.5082
17668SOL     OW62933   4.223   0.413   2.171  0.0417 -0.5587 -0.0640
17668SOL    HW162934   4.280   0.422   2.248 -0.3914  0.5674  0.1362
17668SOL    HW262935   4.269   0.460   2.102 -0.7293  0.5276  0.1501
17669SOL     OW62936   9.467   6.579   2.899 -0.2277 -0.3466  0.7350
17669SOL    HW162937   9.463   6.556   2.806 -1.1210 -0.2669  0.7414
17669SOL    HW262938   9.413   6.513   2.942 -0.3424 -0.0086  1.1160
17670SOL     OW62939   2.304   1.299  11.935 -0.0584  0.2769 -0.4168
17670SOL    HW162940   2.380   1.318  11.991  0.0792 -1.8972  0.2311
17670SOL    HW262941   2.231   1.287  11.996  0.0571 -1.9492 -0.6303
17671SOL     OW62942   9.214  13.100  11.992  0.6481  0.0781  0.5825
17671SOL    HW162943   9.305  13.082  12.018  0.0494 -2.4910  1.1465
17671SOL    HW262944   9.201  13.192  12.014  2.5276  0.0069  2.2901
17672SOL     OW62945   5.899  12.516   7.069  0.4643  0.0100 -0.3030
17672SOL    HW162946   5.889  12.422   7.050  1.5424 -0.3599  0.8384
17672SOL    HW262947   5.817  12.541   7.111  0.3539 -0.5419 -0.1794
17673SOL     OW62948  11.632   2.961   2.845  0.0196  0.0775 -0.2667
17673SOL    HW162949  11.678   2.880   2.821 -1.4857 -0.9252  0.0693
17673SOL    HW262950  11.663   3.025   2.781  0.5602 -0.9963 -1.1400
17674SOL     OW62951   7.519   3.885   9.342 -0.4047 -0.7085 -0.4911
17674SOL    HW162952   7.432   3.923   9.331 -0.9085 -1.1761  1.5149
17674SOL    HW262953   7.579   3.956   9.319 -1.3032  0.0046 -0.6911
17675SOL     OW62954   1.875  10.078   9.259 -0.3505  0.2964 -0.0427
17675SOL    HW162955   1.960  10.071   9.217 -0.1199 -0.5107  0.5311
17675SOL    HW262956   1.874  10.008   9.324 -1.8770 -0.4619 -0.8029
17676SOL     OW62957   2.495   0.280   2.557 -0.1858  0.2287  0.1262
17676SOL    HW162958   2.478   0.346   2.490 -1.5976 -1.2111 -1.0219
17676SOL    HW262959   2.587   0.255   2.544 -0.2816  0.3834 -0.9043
17677SOL     OW62960   0.817  10.515   7.824  0.3167 -0.3039 -0.5508
17677SOL    HW162961   0.809  10.589   7.884  1.2873 -0.4423 -0.2295
17677SOL    HW262962   0.735  10.467   7.833 -0.6807  1.1728 -1.3752
17678SOL     OW62963  10.215  11.300   1.698  0.6327  0.6908  0.0845
17678SOL    HW162964  10.133  11.344   1.677  0.8510  0.8954 -0.3455
17678SOL    HW262965  10.281  11.370   1.700  1.0654  0.3352 -1.0614
17679SOL     OW62966   1.380  13.168   3.526 -0.0658  0.0670  0.0316
17679SOL    HW162967   1.420  13.084   3.549 -0.5549 -0.0693  0.4217
17679SOL    HW262968   1.433  13.201   3.454  0.9615  0.0713  0.7751
17680SOL     OW62969   1.810   5.922   7.868 -0.2197  0.0224 -0.1697
17680SOL    HW162970   1.903   5.927   7.892 -0.2967  0.2557  0.0815
17680SOL    HW262971   1.809   5.938   7.774 -0.1770  1.9747  0.1111
17681SOL     OW62972  10.067   8.145   0.135  0.2659  0.2810  0.2001
17681SOL    HW162973  10.150   8.106   0.164  0.3961  1.1775  1.0899
17681SOL    HW262974  10.010   8.070   0.117  0.7093 -0.3285  1.2569
17682SOL     OW62975   3.289   2.737   9.501  0.0239  0.2139  0.0182
17682SOL    HW162976   3.267   2.827   9.478  0.3509  0.0253 -1.0935
17682SOL    HW262977   3.311   2.741   9.594 -0.8555  1.1056  0.2064
17683SOL     OW62978  12.554  10.624   3.728 -0.2442  0.1714  0.7678
17683SOL    HW162979  12.571  10.531   3.711 -1.6395  0.4213 -2.7349
17683SOL    HW262980  12.613  10.670   3.668 -2.9322  1.3310 -1.1487
17684SOL     OW62981   8.345  12.248   3.156  0.3384  0.0423  0.1987
17684SOL    HW162982   8.371  12.286   3.240 -0.1099  0.8019 -0.0019
17684SOL    HW262983   8.370  12.314   3.091 -0.9310  0.2442 -0.1077
17685SOL     OW62984  11.190   2.501   3.146 -0.1237 -0.0064  0.1243
17685SOL    HW162985  11.174   2.441   3.218 -0.7715 -0.7907 -0.6478
17685SOL    HW262986  11.187   2.588   3.186  0.8734 -0.4713  1.2621
17686SOL     OW62987   1.485   9.525   8.667  0.2437 -0.4508 -0.3496
17686SOL    HW162988   1.398   9.487   8.675  1.1540 -2.6133  0.0119
17686SOL    HW262989   1.506   9.518   8.574 -0.2447  0.8131 -0.5761
17687SOL     OW62990   3.393  11.512   8.342  0.8473 -0.1613 -0.5420
17687SOL    HW162991   3.478  11.485   8.376  0.9487  0.2288 -0.4746
17687SOL    HW262992   3.338  11.435   8.350  0.4272  0.3105  1.9522
17688SOL     OW62993  12.480   4.133   9.019 -0.6054 -0.0510  0.1622
17688SOL    HW162994  12.557   4.103   8.971 -0.4886 -0.0293  0.3354
17688SOL    HW262995  12.481   4.083   9.101 -1.0545 -0.4133 -0.0509
17689SOL     OW62996   4.296   6.462  11.049 -0.1513 -0.0587  0.1005
17689SOL    HW162997   4.237   6.419  11.111 -0.3396 -1.9347 -1.2662
17689SOL    HW262998   4.359   6.394  11.025  0.9656  1.1299 -0.4639
17690SOL     OW62999   8.759   5.170   3.759 -0.3151 -0.3686 -0.2450
17690SOL    HW163000   8.667   5.145   3.753 -0.1616 -1.0766  0.1685
17690SOL    HW263001   8.794   5.115   3.830  0.1323  0.7720  0.4529
17691SOL     OW63002   6.810   8.931   3.968  0.5065 -0.5044  0.6644
17691SOL    HW163003   6.758   8.852   3.953 -0.5716  0.3836 -0.5282
17691SOL    HW263004   6.877   8.929   3.899  1.7398 -1.3383  1.8311
17692SOL     OW63005   5.415   5.434   9.014 -0.1525  0.1548  0.1221
17692SOL    HW163006   5.355   5.372   9.054 -0.1791  0.2049  0.1608
17692SOL    HW263007   5.498   5.388   9.009 -0.1425  0.1595  0.2615
17693SOL     OW63008   7.995   0.357   4.752 -0.1468 -0.1606 -0.2188
17693SOL    HW163009   7.990   0.331   4.660  0.5943 -0.6747 -0.1210
17693SOL    HW263010   7.942   0.436   4.757  0.1178  0.0889 -1.1687
17694SOL     OW63011   4.054   3.755   2.935 -0.1293 -0.3436  0.1045
17694SOL    HW163012   3.964   3.759   2.968 -0.0762  1.6474  0.1443
17694SOL    HW263013   4.053   3.683   2.872 -1.2793 -1.5318  1.3982
17695SOL     OW63014   6.948   5.030   1.485 -0.4551 -0.3808  0.2016
17695SOL    HW163015   6.927   4.948   1.529 -2.3826 -0.3937 -0.6440
17695SOL    HW263016   6.876   5.089   1.508  0.3548  0.7534 -0.0663
17696SOL     OW63017  11.784   3.310   8.100 -0.0511  0.3829 -0.0005
17696SOL    HW163018  11.714   3.245   8.113  0.0908  0.0890 -0.6450
17696SOL    HW263019  11.840   3.271   8.033  0.5796  0.7440  0.3141
17697SOL     OW63020   9.649  11.108  12.290 -0.3706 -0.3415  0.3820
17697SOL    HW163021   9.662  11.035  12.230  1.1972 -0.8357  1.2433
17697SOL    HW263022   9.609  11.069  12.368 -0.2898 -0.1365  0.5286
17698SOL     OW63023   5.598   8.606   1.184 -0.0493  0.2469  0.0683
17698SOL    HW163024   5.598   8.653   1.100 -0.6745 -0.9101 -0.6041
17698SOL    HW263025   5.689   8.612   1.214  0.2317  0.5056 -0.7895
17699SOL     OW63026   5.305   3.300   4.200 -0.6465  0.4724 -0.2338
17699SOL    HW163027   5.289   3.375   4.142  0.3123  0.9450  0.0980
17699SOL    HW263028   5.361   3.334   4.269  0.6845 -0.7889 -0.6354
17700SOL     OW63029  11.662  10.436   6.325 -0.4674 -0.1548 -0.2957
17700SOL    HW163030  11.725  10.499   6.290  0.9503 -1.3121  0.0333
17700SOL    HW263031  11.643  10.378   6.251  1.6414 -1.9047  0.3999
17701SOL     OW63032   8.893   0.967   9.908 -0.2410 -0.2510  0.3986
17701SOL    HW163033   8.860   0.964   9.818 -0.8899 -0.0247  0.6306
17701SOL    HW263034   8.987   0.985   9.897  0.1580 -2.4383 -0.3136
17702SOL     OW63035   5.629  13.006   0.990 -0.3665  0.1592 -0.7350
17702SOL    HW163036   5.647  12.979   0.899 -0.7643 -0.3643 -0.6629
17702SOL    HW263037   5.716  13.018   1.028 -0.1843 -0.3123 -0.9876
17703SOL     OW63038   4.106   5.355   2.822  0.1597 -0.3120  0.0981
17703SOL    HW163039   4.146   5.337   2.907 -1.3104 -1.3208  0.6213
17703SOL    HW263040   4.016   5.380   2.843  0.4623  2.0400 -1.0162
17704SOL     OW63041   2.804  11.103  10.341  0.0072  0.4242 -0.0291
17704SOL    HW163042   2.781  11.076  10.431 -1.6637 -0.6679 -0.7238
17704SOL    HW263043   2.893  11.071  10.329  0.2153  0.4715  1.1902
17705SOL     OW63044   9.095   5.021   1.649 -0.2697  0.4571  0.2165
17705SOL    HW163045   9.189   5.004   1.648 -0.3344  0.0765 -0.1657
17705SOL    HW263046   9.062   4.968   1.722 -0.4404 -0.9820 -0.8437
17706SOL     OW63047  12.901  13.314   2.770  0.2087 -0.0936 -0.6975
17706SOL    HW163048  12.865  13.396   2.735  0.2087  1.6804  3.0005
17706SOL    HW263049  12.890  13.251   2.699 -0.6495  2.8460 -3.4091
17707SOL     OW63050   4.177   6.612   8.140  0.0621  0.3399  0.1977
17707SOL    HW163051   4.270   6.607   8.158 -0.1002  0.6436  1.2335
17707SOL    HW263052   4.140   6.655   8.218 -1.0251 -0.4048  0.1239
17708SOL     OW63053   8.836  12.838   9.565 -0.3786 -0.1035  0.1146
17708SOL    HW163054   8.910  12.792   9.526  1.1872  1.5633  0.9450
17708SOL    HW263055   8.817  12.909   9.504  0.4686  1.0325  1.1157
17709SOL     OW63056   0.724   5.904   9.281  0.1110  0.6591  0.4828
17709SOL    HW163057   0.801   5.913   9.225  0.0998  2.6066  0.7421
17709SOL    HW263058   0.699   5.812   9.271  2.3053  0.0199  0.1994
17710SOL     OW63059   5.297   8.339   3.497 -0.0250  0.2238 -0.1330
17710SOL    HW163060   5.239   8.412   3.520 -1.1387 -0.0799 -1.7711
17710SOL    HW263061   5.239   8.274   3.457  0.8320 -1.8799  1.8425
17711SOL     OW63062   3.373   8.552   3.894  0.5324 -0.2342  0.4685
17711SOL    HW163063   3.403   8.475   3.845  2.0192  0.0257  0.9181
17711SOL    HW263064   3.383   8.625   3.833  2.2327  0.0652  1.0460
17712SOL     OW63065   2.765   8.593  12.517 -0.1473 -0.2109  0.2076
17712SOL    HW163066   2.803   8.627  12.599 -0.3640  2.2214 -0.6075
17712SOL    HW263067   2.818   8.634  12.448 -1.4946 -0.2604 -0.8963
17713SOL     OW63068   8.507   7.213   1.487 -0.0203 -0.4563 -0.2001
17713SOL    HW163069   8.581   7.271   1.506  0.0439 -0.3931 -0.6324
17713SOL    HW263070   8.462   7.255   1.414  0.4682 -1.3491 -1.0266
17714SOL     OW63071   1.257   1.729   1.970  0.0939 -0.2904 -0.7560
17714SOL    HW163072   1.198   1.693   2.036  2.8522 -2.2628  0.8061
17714SOL    HW263073   1.299   1.804   2.013 -1.1517  1.1248 -1.8714
17715SOL     OW63074   9.504   7.058   4.300 -0.2049  0.4549 -0.3043
17715SOL    HW163075   9.499   7.153   4.286 -2.3032  0.3735 -0.4231
17715SOL    HW263076   9.509   7.022   4.211 -0.0912  0.4429 -0.2923
17716SOL     OW63077  12.626   1.879   7.909  0.3727  0.2086  0.6294
17716SOL    HW163078  12.620   1.819   7.984 -1.2401 -0.7346 -0.1932
17716SOL    HW263079  12.561   1.946   7.928  1.1555  0.9204  0.8489
17717SOL     OW63080   2.291   8.599  12.686 -0.1015  0.3089 -0.0769
17717SOL    HW163081   2.343   8.619  12.609 -2.0346 -0.5283 -1.6999
17717SOL    HW263082   2.264   8.507  12.674 -2.0044  0.7262  0.6013
17718SOL     OW63083   0.605   9.253   3.163  0.0589 -0.3057 -0.0497
17718SOL    HW163084   0.514   9.249   3.191  0.3757  2.6794  1.8933
17718SOL    HW263085   0.605   9.312   3.087  0.2670 -1.3214 -0.8637
17719SOL     OW63086   9.524  10.338   6.563  0.1755 -0.1983  0.6667
17719SOL    HW163087   9.541  10.432   6.559 -2.8048  0.4162 -2.7302
17719SOL    HW263088   9.610  10.297   6.552  1.1580  2.2475 -1.9865
17720SOL     OW63089  11.951  10.533   0.610  0.4438 -0.2832 -0.1152
17720SOL    HW163090  12.045  10.542   0.595  0.3242  1.7823  0.1690
17720SOL    HW263091  11.936  10.438   0.605  2.3502 -0.5927 -1.1538
17721SOL     OW63092  11.876  12.920   4.205  0.2884 -0.2284 -0.1705
17721SOL    HW163093  11.928  12.995   4.237  2.9742 -1.6221 -0.9769
17721SOL    HW263094  11.858  12.941   4.113 -0.6575  0.2733  0.1198
17722SOL     OW63095  11.282   8.247   4.043  0.1610  0.1065 -0.2973
17722SOL    HW163096  11.259   8.175   4.102 -1.0798 -0.1097 -1.0131
17722SOL    HW263097  11.198   8.291   4.025  0.7493  1.0987 -0.6860
17723SOL     OW63098   6.473  10.137   7.383 -0.2956  0.1751 -0.4266
17723SOL    HW163099   6.411  10.098   7.323  0.2369 -0.3982 -0.6141
17723SOL    HW263100   6.556  10.093   7.364 -0.0091  0.3512  0.3705
17724SOL     OW63101   4.347   8.074  13.125 -0.2703 -0.0550  0.4887
17724SOL    HW163102   4.368   8.055  13.217  1.6240  0.2425  0.1542
17724SOL    HW263103   4.350   7.989  13.081  0.8726  0.0390  0.3505
17725SOL     OW63104  10.529   4.894   1.926  0.3126 -0.8079 -0.0118
17725SOL    HW163105  10.538   4.921   1.834  2.3055 -0.5220  0.2232
17725SOL    HW263106  10.446   4.933   1.954  0.5550  0.6605 -1.1905
17726SOL     OW63107   1.571   9.874   3.353 -0.7389 -0.0280  0.2091
17726SOL    HW163108   1.499   9.822   3.390  0.8549 -2.7906 -0.2488
17726SOL    HW263109   1.619   9.905   3.430 -0.9071 -0.4539  0.4913
17727SOL     OW63110  10.288   2.123   3.568  0.1649  0.1860  0.7244
17727SOL    HW163111  10.273   2.121   3.474  0.3701 -2.1328  0.6762
17727SOL    HW263112  10.379   2.149   3.578  0.0251  0.8501  0.3143
17728SOL     OW63113   5.098   9.872   6.787 -0.0855 -0.6123 -0.3570
17728SOL    HW163114   5.103   9.965   6.811 -1.2750 -0.7592  0.5502
17728SOL    HW263115   5.004   9.854   6.782  0.1138 -2.0074  0.4718
17729SOL     OW63116   9.112   4.351  11.077  0.1842  0.9339  0.3245
17729SOL    HW163117   9.164   4.317  11.004  0.0496  1.6049 -0.0940
17729SOL    HW263118   9.047   4.283  11.093  0.3339  0.6952 -0.0522
17730SOL     OW63119  12.756   0.985   5.562 -0.3360 -0.4246 -0.1387
17730SOL    HW163120  12.718   1.071   5.540 -0.3542 -0.3378  0.2213
17730SOL    HW263121  12.831   0.977   5.504 -1.7325 -1.2468 -1.9261
17731SOL     OW63122  11.680   3.411   0.534 -0.1613 -0.4433 -0.3027
17731SOL    HW163123  11.605   3.460   0.499  0.2628 -1.7452 -3.3965
17731SOL    HW263124  11.641   3.340   0.584 -1.0144 -0.9358 -1.6288
17732SOL     OW63125   2.632   3.896   6.495 -0.0908  0.6407 -0.1145
17732SOL    HW163126   2.689   3.910   6.571 -0.4210 -0.5123  0.3719
17732SOL    HW263127   2.613   3.802   6.497 -1.3056  0.8584 -0.7711
17733SOL     OW63128  12.045   3.474   7.744  0.2356 -0.0425 -0.4805
17733SOL    HW163129  12.077   3.493   7.833 -0.5917  0.8397 -0.3513
17733SOL    HW263130  12.107   3.410   7.709  1.1480  0.3467  0.3738
17734SOL     OW63131  11.197  11.154  11.796 -0.2329 -0.2773 -0.1346
17734SOL    HW163132  11.252  11.076  11.806 -0.1986 -0.1551  0.7477
17734SOL    HW263133  11.132  11.130  11.731  0.1252 -0.8458 -0.2888
17735SOL     OW63134   2.803   9.926   6.815  0.0553 -0.0997 -0.1313
17735SOL    HW163135   2.837   9.968   6.736  1.3036  0.4841  0.6875
17735SOL    HW263136   2.876   9.872   6.847 -0.1073  0.3799  1.1074
17736SOL     OW63137   0.424  12.746   9.538  0.5762 -0.4589 -0.3362
17736SOL    HW163138   0.490  12.716   9.475  0.0287  0.5111 -1.4075
17736SOL    HW263139   0.352  12.779   9.483 -0.3197 -0.4664  0.8076
17737SOL     OW63140   5.299   8.322   7.983 -0.2147 -0.4938  0.7329
17737SOL    HW163141   5.209   8.332   7.952  0.1262  0.0437 -0.1049
17737SOL    HW263142   5.292   8.260   8.056 -1.3969  0.3235  1.3444
17738SOL     OW63143   4.518   8.698   1.692 -0.8361  0.5074  0.3639
17738SOL    HW163144   4.535   8.726   1.782  0.2584  0.8825  0.0600
17738SOL    HW263145   4.528   8.777   1.640 -0.5484  0.1161 -0.1890
17739SOL     OW63146   0.847   5.921  10.442  0.1316  0.0293 -0.1019
17739SOL    HW163147   0.835   6.003  10.490 -0.3970  0.5076 -1.0300
17739SOL    HW263148   0.937   5.925  10.409 -0.0484  0.4632 -0.5500
17740SOL     OW63149   1.410   2.988   9.031  0.2267  0.2174 -0.2582
17740SOL    HW163150   1.429   2.938   8.952  0.7425  0.3941 -0.2497
17740SOL    HW263151   1.318   3.012   9.023 -0.2533 -1.3860  0.0988
17741SOL     OW63152   6.096  13.274   1.070  0.3004  0.0929  0.6980
17741SOL    HW163153   6.052  13.358   1.057  0.7766  0.4758  1.4696
17741SOL    HW263154   6.026  13.209   1.069 -0.0288  0.4440 -0.3189
17742SOL     OW63155   9.313   9.201   9.233  0.2214 -0.1477 -0.2902
17742SOL    HW163156   9.338   9.138   9.302 -0.0311 -0.0367 -0.0955
17742SOL    HW263157   9.277   9.146   9.163 -1.4133 -0.1471  0.4801
17743SOL     OW63158   1.134  10.182   0.706  0.4602 -0.2107 -0.1486
17743SOL    HW163159   1.087  10.192   0.789 -0.4061  1.8258 -0.8057
17743SOL    HW263160   1.151  10.089   0.699  0.0391 -0.5098  2.0345
17744SOL     OW63161  11.331   0.790  11.714 -0.1114 -0.0822 -0.3766
17744SOL    HW163162  11.415   0.780  11.760 -0.5047 -2.9112 -0.1023
17744SOL    HW263163  11.352   0.773  11.622 -0.2047  0.2989 -0.4682
17745SOL     OW63164   6.625   9.289  12.322  0.1227  0.4405  0.2142
17745SOL    HW163165   6.634   9.325  12.233  0.0602 -0.5076 -0.1847
17745SOL    HW263166   6.593   9.200  12.309 -0.0631  0.3524  1.2033
17746SOL     OW63167   4.859   8.178  10.212  0.2192 -0.0940 -0.2249
17746SOL    HW163168   4.909   8.109  10.255  0.5989 -0.5004 -1.2886
17746SOL    HW263169   4.899   8.186  10.125  0.8222  2.1240  0.1848
17747SOL     OW63170  12.709   3.978   1.532  0.3355  0.1507  0.0555
17747SOL    HW163171  12.769   4.048   1.506 -1.0000  1.3714  0.1831
17747SOL    HW263172  12.723   3.968   1.626  1.8016 -1.0263 -0.2482
17748SOL     OW63173   3.429   7.807   3.354  0.0386  0.1084 -0.7055
17748SOL    HW163174   3.334   7.809   3.344 -0.0618 -2.1435 -0.5424
17748SOL    HW263175   3.446   7.866   3.428 -1.1183  1.1165 -1.1951
17749SOL     OW63176  13.174   7.556   5.538  0.2937 -0.1702  0.0651
17749SOL    HW163177  13.122   7.633   5.563 -0.0764  1.2144 -4.1397
17749SOL    HW263178  13.264   7.588   5.539  0.1716  0.2850 -1.3257
17750SOL     OW63179   3.590   7.997   5.345 -0.2686  0.1343  0.0282
17750SOL    HW163180   3.640   8.064   5.300 -0.9735  0.8647  0.3190
17750SOL    HW263181   3.629   7.993   5.433  0.3202 -0.4387 -0.2544
17751SOL     OW63182   0.405  11.653   9.495  0.3904  0.0240 -0.1645
17751SOL    HW163183   0.487  11.701   9.486  0.4123  0.0196  0.0077
17751SOL    HW263184   0.431  11.561   9.501  0.2991 -0.0876 -1.3268
17752SOL     OW63185  10.140   3.485  12.051 -0.2993 -0.5367 -0.0582
17752SOL    HW163186  10.141   3.581  12.047 -1.3945 -0.5604 -1.7942
17752SOL    HW263187  10.232   3.460  12.062 -0.0566  0.7106  0.9379
17753SOL     OW63188   4.692   3.261   6.123  0.1975  0.3075 -0.6983
17753SOL    HW163189   4.684   3.344   6.076 -1.7614  0.8884  0.5294
17753SOL    HW263190   4.637   3.273   6.200  2.1032 -1.1493  0.9754
17754SOL     OW63191   2.798  11.719   7.445  0.2033 -0.1955 -0.7068
17754SOL    HW163192   2.776  11.627   7.462  3.2226 -0.9604 -0.2715
17754SOL    HW263193   2.819  11.721   7.351  0.7426 -0.1025 -0.5863
17755SOL     OW63194  12.721   1.149  13.194 -0.7657 -0.3510  0.3505
17755SOL    HW163195  12.738   1.143  13.289 -1.7287  0.7101  0.6132
17755SOL    HW263196  12.632   1.117  13.184 -1.0950  0.6245 -0.0139
17756SOL     OW63197   1.077  11.672   3.547 -0.2486 -0.4541 -0.6669
17756SOL    HW163198   1.155  11.617   3.541 -0.8913 -1.5915  0.6599
17756SOL    HW263199   1.012  11.616   3.590 -0.7958  1.4717  1.1731
17757SOL     OW63200  11.042   9.437   7.248  0.4683  0.1271 -0.0970
17757SOL    HW163201  11.016   9.387   7.170 -0.2219  0.4404 -0.0758
17757SOL    HW263202  11.120   9.392   7.280 -0.3594 -1.1830  0.1521
17758SOL     OW63203   6.113  12.655  11.008 -0.3466  0.0049  0.5529
17758SOL    HW163204   6.134  12.607  10.927  2.1744 -0.3238  1.3254
17758SOL    HW263205   6.099  12.586  11.073  0.1742  0.2904  0.9669
17759SOL     OW63206   4.785   1.233  11.929  0.3272  0.0590  0.0688
17759SOL    HW163207   4.795   1.323  11.898 -2.3439  0.8514  1.2234
17759SOL    HW263208   4.795   1.179  11.851  1.1821  1.3982 -0.7852
17760SOL     OW63209   9.266   6.303   8.334 -0.1042 -0.1964 -0.0788
17760SOL    HW163210   9.205   6.247   8.285 -1.5395 -0.1950  1.6137
17760SOL    HW263211   9.253   6.279   8.425 -0.7774  2.8498  0.7497
17761SOL     OW63212   9.868   2.451   0.218  0.2162 -0.5047  0.0077
17761SOL    HW163213   9.934   2.438   0.285 -0.1499  0.8124  0.6541
17761SOL    HW263214   9.785   2.425   0.260  0.1255 -0.7186 -0.2980
17762SOL     OW63215   1.574   5.874   6.890 -0.0610  0.2107  0.2771
17762SOL    HW163216   1.551   5.799   6.946 -0.6001 -0.3758 -0.6921
17762SOL    HW263217   1.493   5.892   6.841  0.5079  0.4401 -0.6018
17763SOL     OW63218   5.514   7.272   9.520  0.0571  0.5629 -0.6436
17763SOL    HW163219   5.546   7.184   9.538 -0.6535 -0.1687 -2.7066
17763SOL    HW263220   5.593   7.327   9.519  0.7124 -0.3644 -1.0422
17764SOL     OW63221  12.322  13.009  10.910  0.0818 -0.0590  0.2925
17764SOL    HW163222  12.357  13.043  10.827  0.9492  0.9558  1.0470
17764SOL    HW263223  12.330  12.914  10.902 -1.0095 -0.0472 -1.2745
17765SOL     OW63224   2.112  11.019   8.119 -0.1664 -0.2464 -0.4429
17765SOL    HW163225   2.053  11.079   8.166  0.7753 -1.3411  2.3502
17765SOL    HW263226   2.199  11.043   8.150  0.5417 -0.9524 -1.8188
17766SOL     OW63227  11.111   5.661   7.824 -0.3872  0.0752  0.1222
17766SOL    HW163228  11.142   5.726   7.761 -1.2284  1.7716  1.3697
17766SOL    HW263229  11.181   5.654   7.888 -1.1618  1.5238  1.2085
17767SOL     OW63230   6.976  10.131   7.214 -0.4052  0.2946  0.2851
17767SOL    HW163231   7.023  10.054   7.183 -1.2212 -1.0382  2.2032
17767SOL    HW263232   6.945  10.108   7.301 -2.2902  2.1206  0.1924
17768SOL     OW63233   7.157   3.248  10.939 -0.3767  0.6563 -0.2679
17768SOL    HW163234   7.075   3.279  10.901 -0.1387  0.5528 -0.8799
17768SOL    HW263235   7.224   3.302  10.898  0.1224 -1.0880 -1.9087
17769SOL     OW63236   0.961   9.053   2.978  0.1720  0.1061  0.0911
17769SOL    HW163237   1.048   9.017   2.992 -0.1687 -0.8019 -0.0600
17769SOL    HW263238   0.937   9.023   2.890 -1.3343 -1.9062  1.1098
17770SOL     OW63239  10.447  12.503   1.212  0.0650 -0.0561  0.3461
17770SOL    HW163240  10.431  12.502   1.306  1.3579  1.6002  0.6211
17770SOL    HW263241  10.407  12.583   1.181  2.2152  0.9782  0.0405
17771SOL     OW63242  12.723   0.539  11.873  0.3626  0.2167 -0.1799
17771SOL    HW163243  12.738   0.521  11.966  0.9715 -0.8500 -0.4781
17771SOL    HW263244  12.627   0.537  11.864  0.3129 -0.0128  0.3515
17772SOL     OW63245  13.282  10.029   1.574 -0.4344 -0.2767 -0.1462
17772SOL    HW163246  13.298   9.953   1.518  0.5402  0.2783 -0.6551
17772SOL    HW263247  13.258   9.992   1.659 -0.6726 -1.1454 -0.5840
17773SOL     OW63248   5.625   9.350   5.835  0.3225 -1.0323  0.6347
17773SOL    HW163249   5.559   9.419   5.833 -0.3545 -1.6626  0.8672
17773SOL    HW263250   5.681   9.367   5.760 -0.9318 -1.2992 -0.3817
17774SOL     OW63251   3.596   2.236   7.896 -0.2399 -0.1763 -0.2466
17774SOL    HW163252   3.521   2.293   7.914 -0.0154  0.2631 -0.6768
17774SOL    HW263253   3.609   2.241   7.802  1.0211  0.6622 -0.0663
17775SOL     OW63254   1.395  12.960   2.915  0.2386  0.0038  0.0934
17775SOL    HW163255   1.488  12.943   2.901  0.3521  1.7941 -1.6412
17775SOL    HW263256   1.353  12.874   2.903  1.4930 -0.5123 -0.7640
17776SOL     OW63257   8.205   8.466   3.671 -0.0835 -0.1380 -0.5681
17776SOL    HW163258   8.298   8.447   3.679 -0.1586 -0.8152 -1.2614
17776SOL    HW263259   8.202   8.560   3.651  0.4394 -0.0715 -0.3584
17777SOL     OW63260   0.611   8.372   6.812 -0.0566 -0.5335  0.0616
17777SOL    HW163261   0.649   8.304   6.867  1.2258 -0.2093 -0.3806
17777SOL    HW263262   0.658   8.452   6.836 -0.5858 -0.0806 -0.3845
17778SOL     OW63263   8.580   0.401  10.329 -0.1669 -0.9703 -1.0333
17778SOL    HW163264   8.640   0.419  10.402 -1.4490  1.7855 -0.5188
17778SOL    HW263265   8.534   0.321  10.355  1.9516 -2.1082 -0.5979
17779SOL     OW63266   9.857   5.162   7.973 -0.2615 -0.2808  0.2445
17779SOL    HW163267   9.883   5.165   7.881  0.5015 -0.6769  0.4394
17779SOL    HW263268   9.889   5.078   8.005 -0.1844  0.0107  0.9653
17780SOL     OW63269   3.660   4.646   7.280  0.4004 -0.3267 -0.0462
17780SOL    HW163270   3.661   4.586   7.355  0.7441 -1.5830 -1.0043
17780SOL    HW263271   3.703   4.725   7.311 -0.1025 -0.5537  1.2831
17781SOL     OW63272  10.991   9.646   8.040 -0.1566 -0.1317 -0.2426
17781SOL    HW163273  11.018   9.697   7.963 -0.3912  0.9723  0.3870
17781SOL    HW263274  10.978   9.711   8.108 -0.8309 -1.0156  0.4903
17782SOL     OW63275   5.646   9.756   4.631 -0.1730 -0.2767  0.0892
17782SOL    HW163276   5.634   9.690   4.700 -0.8673 -1.0843 -0.7873
17782SOL    HW263277   5.741   9.771   4.629 -0.0413 -0.9726  0.5610
17783SOL     OW63278  12.913  10.414  11.189 -0.2963 -0.3688 -0.1863
17783SOL    HW163279  12.830  10.408  11.236 -0.5843  2.2704 -0.2457
17783SOL    HW263280  12.889  10.444  11.101  0.6177 -1.0596 -0.6908
17784SOL     OW63281  13.211  13.313   3.601  0.0197 -0.0371  0.1266
17784SOL    HW163282  13.255  13.242   3.648 -0.2115 -0.6557 -0.5755
17784SOL    HW263283  13.147  13.347   3.664 -0.6924 -1.2393  0.0780
17785SOL     OW63284   8.156   3.551  12.353 -0.1398  0.4924  0.1605
17785SOL    HW163285   8.223   3.526  12.290 -0.3785  2.6605 -1.0458
17785SOL    HW263286   8.157   3.647  12.352 -1.9296  0.5735  1.5516
17786SOL     OW63287   6.997   0.655  10.276 -0.1537  0.3104 -0.3191
17786SOL    HW163288   7.027   0.579  10.227 -1.3163 -0.5117  0.2095
17786SOL    HW263289   7.068   0.672  10.339  0.5721  0.3203 -1.1269
17787SOL     OW63290   2.885   9.966  10.147  0.4269  0.5188 -0.1302
17787SOL    HW163291   2.913   9.995  10.234  1.3763  1.6562 -0.7752
17787SOL    HW263292   2.929  10.027  10.087  1.3171 -1.3799 -1.4961
17788SOL     OW63293   3.680   1.053   4.793 -0.0388 -0.2246 -0.3060
17788SOL    HW163294   3.640   1.112   4.729  2.4743  0.7595 -1.1036
17788SOL    HW263295   3.680   0.967   4.750 -1.3591 -0.2857 -0.2210
17789SOL     OW63296   7.480   3.145   2.895  0.1688  0.2914 -0.2072
17789SOL    HW163297   7.392   3.120   2.920 -0.1330  1.1621 -0.3881
17789SOL    HW263298   7.494   3.230   2.935  0.9856  0.0957 -0.0567
17790SOL     OW63299  10.591  12.744   6.268 -0.4484  0.0107 -0.2449
17790SOL    HW163300  10.685  12.727   6.276  0.1230  2.4072 -0.9309
17790SOL    HW263301  10.557  12.736   6.358  0.3921 -0.8852  0.0063
17791SOL     OW63302   2.139   8.598   2.079 -0.6178 -0.0077  0.1613
17791SOL    HW163303   2.120   8.505   2.087 -1.0989  0.0717 -0.0379
17791SOL    HW263304   2.076   8.631   2.016  0.1677  0.2730 -0.5022
17792SOL     OW63305   2.889  10.606   8.641  0.4008  0.6200  0.0736
17792SOL    HW163306   2.913  10.671   8.707 -0.4094  0.1628  0.8426
17792SOL    HW263307   2.852  10.534   8.691 -2.9361  1.4134 -0.9715
17793SOL     OW63308   4.443   9.149   1.452 -0.4560 -0.0246 -0.5074
17793SOL    HW163309   4.487   9.187   1.376 -1.1140  1.9061  0.0419
17793SOL    HW263310   4.508   9.156   1.522 -0.0834 -1.2272 -0.7012
17794SOL     OW63311   7.414   8.758   4.573  0.2617 -0.0597  0.8745
17794SOL    HW163312   7.384   8.731   4.660  0.5077 -0.9113  0.7041
17794SOL    HW263313   7.358   8.709   4.513  1.9913 -1.7858  0.5403
17795SOL     OW63314   1.026  12.163   9.516  0.1029  0.0316 -0.7953
17795SOL    HW163315   1.023  12.087   9.456 -1.3441 -1.3646  0.9562
17795SOL    HW263316   1.090  12.137   9.582 -0.0063  0.5831 -0.4766
17796SOL     OW63317   8.620  11.754  10.375  0.6736 -0.1522 -0.1593
17796SOL    HW163318   8.702  11.716  10.405 -0.1912 -1.6778  0.3527
17796SOL    HW263319   8.580  11.686  10.321 -1.8678 -0.9279  2.4210
17797SOL     OW63320   5.226   5.754   8.987 -0.1946 -0.1401 -0.1247
17797SOL    HW163321   5.205   5.667   9.021  2.0125 -1.3162 -1.5536
17797SOL    HW263322   5.320   5.763   9.000  0.0278  1.0312 -2.1342
17798SOL     OW63323  12.088   4.651   2.407 -0.2408 -0.0504  0.1926
17798SOL    HW163324  12.031   4.661   2.483 -2.9531  1.2669 -1.8580
17798SOL    HW263325  12.152   4.721   2.415 -1.5839  1.1887  0.4305
17799SOL     OW63326   4.662   6.395   9.064  0.0574  0.6431  0.3223
17799SOL    HW163327   4.637   6.409   8.973  1.7273  1.9827  0.0210
17799SOL    HW263328   4.580   6.375   9.109 -0.9673  1.1656 -1.2419
17800SOL     OW63329   4.942   4.524   5.507 -0.4457  0.2504  0.0938
17800SOL    HW163330   4.954   4.613   5.541 -0.7292 -0.4028  1.9849
17800SOL    HW263331   4.895   4.478   5.576  1.2107 -1.8675 -0.1065
17801SOL     OW63332  13.063   9.101   9.881 -0.2799  0.1070  0.2911
17801SOL    HW163333  13.049   9.098   9.975 -0.6419 -0.3415  0.2235
17801SOL    HW263334  13.157   9.114   9.871 -0.1135 -0.7318  0.7056
17802SOL     OW63335  11.977   9.434  11.121 -0.3307 -0.1330 -0.5600
17802SOL    HW163336  11.897   9.456  11.168 -1.2237 -3.3021 -0.3904
17802SOL    HW263337  12.010   9.355  11.164  2.9528  1.0421 -0.6265
17803SOL     OW63338   8.349   8.472   2.594  0.1933 -0.3936  0.1992
17803SOL    HW163339   8.296   8.539   2.637 -2.3136 -0.8832 -1.8481
17803SOL    HW263340   8.406   8.521   2.534 -1.2833  0.0148 -0.9334
17804SOL     OW63341  11.441   6.047   3.463 -0.5300  0.1750  0.1836
17804SOL    HW163342  11.441   5.969   3.519 -1.9968  0.0939  0.0987
17804SOL    HW263343  11.350   6.057   3.435  0.3225 -0.4707 -3.1955
17805SOL     OW63344   9.178   3.347   9.781  0.5047  0.4880 -0.3384
17805SOL    HW163345   9.102   3.330   9.726 -0.9841  1.5724  1.2721
17805SOL    HW263346   9.166   3.437   9.811  0.7045 -0.3277  2.4711
17806SOL     OW63347   4.229  10.272   5.560 -0.3778  0.0684  0.2530
17806SOL    HW163348   4.287  10.212   5.606 -0.9592 -1.3725 -0.8111
17806SOL    HW263349   4.141  10.250   5.592 -0.6127  0.2244 -0.2722
17807SOL     OW63350   6.955  12.331   6.439 -0.1632 -0.1693 -0.0265
17807SOL    HW163351   6.954  12.281   6.521 -2.4584  0.9148  0.7123
17807SOL    HW263352   7.036  12.306   6.396  0.5199 -1.7186  2.0068
17808SOL     OW63353   8.943  12.643   2.935 -0.7202 -0.6131  0.2122
17808SOL    HW163354   8.919  12.735   2.943 -2.7266 -0.9549 -1.0950
17808SOL    HW263355   8.939  12.609   3.024 -0.7146  0.3836  0.6005
17809SOL     OW63356  11.429  13.024  11.606  0.0936 -0.6856 -0.4318
17809SOL    HW163357  11.374  13.102  11.616  0.7027 -0.3642  0.6311
17809SOL    HW263358  11.518  13.058  11.598  0.3047 -1.2544 -0.5161
17810SOL     OW63359   7.147   9.205   1.702 -0.0870 -0.4937  0.3202
17810SOL    HW163360   7.216   9.252   1.656 -0.3920  0.4364  0.7886
17810SOL    HW263361   7.149   9.117   1.665  1.4855 -0.5543  0.4644
17811SOL     OW63362   6.104   9.071   8.018 -0.3370 -0.2461  0.1230
17811SOL    HW163363   6.086   9.122   7.939  0.1738 -1.5919 -0.9054
17811SOL    HW263364   6.186   9.108   8.052  0.1986 -0.5461 -0.7930
17812SOL     OW63365   1.912   7.923   7.363 -0.6756 -0.1990  0.1553
17812SOL    HW163366   1.865   7.976   7.428 -1.0457  1.0580 -1.0849
17812SOL    HW263367   1.843   7.886   7.308 -0.3643 -1.2830  0.4733
17813SOL     OW63368  10.805  12.845   5.811 -0.0014  0.4803 -0.0785
17813SOL    HW163369  10.793  12.940   5.806 -1.2686  0.5029  1.9844
17813SOL    HW263370  10.737  12.809   5.754  1.2222  0.7777 -1.7883
17814SOL     OW63371   4.511   2.885   6.844 -0.0795  0.1889  0.3271
17814SOL    HW163372   4.465   2.802   6.834 -0.2140  0.0026  2.1185
17814SOL    HW263373   4.460   2.933   6.910  0.3162  1.4699 -0.2619
17815SOL     OW63374   1.253  11.759   4.457  0.2161 -0.5382  0.2183
17815SOL    HW163375   1.224  11.727   4.542  1.0650  0.1954  0.8040
17815SOL    HW263376   1.187  11.824   4.433 -0.1322 -0.8886  0.2176
17816SOL     OW63377   9.235   1.315  13.189 -0.3065 -0.1357  0.5003
17816SOL    HW163378   9.148   1.352  13.177  0.0170  0.2041 -0.8948
17816SOL    HW263379   9.224   1.222  13.169 -0.0871  0.1516 -1.0549
17817SOL     OW63380   3.057   6.687   1.509 -0.3669 -0.5708  0.2891
17817SOL    HW163381   3.151   6.701   1.494 -0.2536  0.4954  1.8082
17817SOL    HW263382   3.014   6.757   1.459 -0.2969 -0.4448  0.4052
17818SOL     OW63383   0.304  10.796   4.849 -0.3245  0.4808 -0.2698
17818SOL    HW163384   0.313  10.773   4.942 -0.7024  1.1666 -0.0512
17818SOL    HW263385   0.258  10.722   4.811  0.7676 -0.2898 -0.1407
17819SOL     OW63386  12.862   9.857   9.465 -0.0799  0.2584 -0.1234
17819SOL    HW163387  12.928   9.927   9.463 -0.6418  0.7881 -1.6151
17819SOL    HW263388  12.874   9.811   9.382 -0.8125 -0.3759  0.1152
17820SOL     OW63389   9.994  12.587   9.430  0.8307  0.8056  0.5541
17820SOL    HW163390   9.923  12.568   9.491  1.5599  2.5517  2.0312
17820SOL    HW263391   9.953  12.635   9.359  0.2406  0.1225  0.4215
17821SOL     OW63392   4.169   2.702   6.971 -0.4366 -0.5883 -0.9429
17821SOL    HW163393   4.133   2.617   6.995  0.3392 -0.1820  2.1603
17821SOL    HW263394   4.095   2.751   6.937 -2.1812 -0.9225  2.0100
17822SOL     OW63395   1.013   1.333   0.964  0.9329 -0.2704  0.1462
17822SOL    HW163396   1.039   1.420   0.992  1.6187 -0.8291  1.3362
17822SOL    HW263397   1.049   1.274   1.031  0.1885 -1.4381 -0.4364
17823SOL     OW63398   6.551  11.658  10.526 -0.2698  0.1279 -0.0348
17823SOL    HW163399   6.527  11.626  10.613 -1.9851  5.2438  1.7317
17823SOL    HW263400   6.641  11.689  10.535 -0.5479  0.9276  0.0079
17824SOL     OW63401  10.109  12.321   3.723 -0.2385 -0.5582 -0.5647
17824SOL    HW163402  10.154  12.237   3.737  0.3669 -0.0103  0.9920
17824SOL    HW263403  10.164  12.368   3.661 -0.5629 -1.2817 -1.4236
17825SOL     OW63404  13.300   0.132   8.452  0.0430  0.1849  0.6362
17825SOL    HW163405  13.284   0.038   8.463 -3.9865  0.8035  1.8946
17825SOL    HW263406  13.328   0.142   8.362  0.5795 -2.2206  0.4766
17826SOL     OW63407   1.288   2.270  11.049  0.0943  0.0587  0.2042
17826SOL    HW163408   1.374   2.237  11.025 -0.0454  0.5832 -1.1208
17826SOL    HW263409   1.267   2.226  11.132  0.8861 -1.4112 -0.3321
17827SOL     OW63410   9.648  10.761   2.872  0.0004  0.0523  0.1643
17827SOL    HW163411   9.661  10.854   2.849  2.2086 -0.0212  0.8495
17827SOL    HW263412   9.678  10.714   2.795  2.6938 -0.0907  1.1717
17828SOL     OW63413   1.664  11.337   6.076 -0.0430 -0.2915 -0.3902
17828SOL    HW163414   1.592  11.400   6.083 -0.7530 -1.1732  0.5251
17828SOL    HW263415   1.743  11.389   6.091 -0.6692  0.2650  1.1718
17829SOL     OW63416  10.608   9.385   9.794  0.5819 -0.2834 -0.1814
17829SOL    HW163417  10.550   9.362   9.721 -0.5696  0.5660  0.4349
17829SOL    HW263418  10.653   9.464   9.766  0.8213 -0.4665 -0.3213
17830SOL     OW63419   3.317  10.385   7.171  0.3739 -0.1970 -0.5052
17830SOL    HW163420   3.275  10.470   7.183  0.5534 -0.0626 -0.8084
17830SOL    HW263421   3.381  10.400   7.101  1.8968 -0.0567  0.8787
17831SOL     OW63422  10.511   9.268   8.758 -0.1863 -0.0163 -0.2276
17831SOL    HW163423  10.551   9.355   8.766 -0.8957  0.3368 -0.3763
17831SOL    HW263424  10.419   9.283   8.780 -0.2381 -0.8075  0.1034
17832SOL     OW63425  11.409  11.598   8.441  0.1565 -0.4792 -0.1409
17832SOL    HW163426  11.459  11.662   8.492 -0.1856  0.4872 -0.9904
17832SOL    HW263427  11.318  11.629   8.445 -0.1352 -1.3137  0.0239
17833SOL     OW63428   9.505   7.987   2.156 -0.0583  0.0578  0.2246
17833SOL    HW163429   9.552   8.047   2.214  1.4402  0.1082 -0.9883
17833SOL    HW263430   9.530   7.899   2.186 -0.1309  0.0631  0.3036
17834SOL     OW63431   6.260   7.385   9.123 -0.4016  0.4103  0.1269
17834SOL    HW163432   6.288   7.465   9.169  2.3654 -1.0008  1.1463
17834SOL    HW263433   6.259   7.318   9.191 -0.5629 -0.8541 -1.0898
17835SOL     OW63434  12.251  10.626   6.206 -0.1259 -0.1626  0.3910
17835SOL    HW163435  12.188  10.571   6.253 -0.3587 -0.6563 -0.4688
17835SOL    HW263436  12.317  10.565   6.174  1.7411  0.5123  2.6335
17836SOL     OW63437  13.134   0.006   1.169  0.0323 -0.1309  0.2941
17836SOL    HW163438  13.224  -0.019   1.191  0.1686  0.9159  1.0422
17836SOL    HW263439  13.143   0.091   1.125 -0.5936  0.0428  0.4880
17837SOL     OW63440   6.412   4.832   1.195  0.1045  0.1930 -0.1120
17837SOL    HW163441   6.357   4.899   1.155 -0.6825 -0.6937 -0.5538
17837SOL    HW263442   6.380   4.824   1.284  1.6941  1.9903  0.6927
17838SOL     OW63443  11.891   1.379   6.573  0.4600 -0.0770 -0.0141
17838SOL    HW163444  11.837   1.390   6.652  0.0956 -2.5481  0.1781
17838SOL    HW263445  11.828   1.368   6.502  0.7278 -0.6075 -0.1790
17839SOL     OW63446   9.619   8.664   0.056  0.0829 -0.4356  0.7100
17839SOL    HW163447   9.545   8.720   0.033 -0.5807 -1.5935 -0.0876
17839SOL    HW263448   9.593   8.623   0.139 -0.1635 -0.7964  0.4601
17840SOL     OW63449   9.299   8.315  10.863 -0.2998 -0.3668  0.0996
17840SOL    HW163450   9.325   8.394  10.816  2.2398 -0.3999  1.2649
17840SOL    HW263451   9.305   8.245  10.799  1.0064 -0.1161 -0.0615
17841SOL     OW63452  11.988   2.703   4.232  0.1916 -0.5284  0.0021
17841SOL    HW163453  11.935   2.654   4.169  2.6634 -1.8103 -1.2415
17841SOL    HW263454  12.029   2.637   4.287  2.7734  0.0890 -1.0191
17842SOL     OW63455  11.104  10.807   3.832  0.1075  0.4887  0.1865
17842SOL    HW163456  11.027  10.801   3.775  1.5064 -1.7444 -1.6461
17842SOL    HW263457  11.104  10.725   3.880  1.7191  0.0885 -0.4299
17843SOL     OW63458   3.527  13.258   1.481 -0.5063 -0.4366  0.0327
17843SOL    HW163459   3.441  13.270   1.521 -0.3393 -0.2663  0.3456
17843SOL    HW263460   3.509  13.236   1.389 -0.8784 -0.2683  0.0671
17844SOL     OW63461   6.632   9.798  11.256 -0.8759 -0.2730 -0.1346
17844SOL    HW163462   6.551   9.839  11.290  0.1103  1.0872  0.6909
17844SOL    HW263463   6.688   9.872  11.234  0.8567 -1.1556  1.0664
17845SOL     OW63464   4.088  13.296   0.551 -0.1731  0.4736 -0.1678
17845SOL    HW163465   4.079  13.334   0.639 -0.7627  1.0211 -0.4571
17845SOL    HW263466   4.045  13.358   0.494 -0.2794 -0.1579 -0.7832
17846SOL     OW63467  10.231   1.959   4.389  0.4604  0.0656  0.1306
17846SOL    HW163468  10.302   2.017   4.363 -0.4504  1.1367 -0.0331
17846SOL    HW263469  10.239   1.883   4.331  1.5357  0.1086  0.2080
17847SOL     OW63470  10.665  12.091  11.893  0.1119 -0.0557  0.5265
17847SOL    HW163471  10.592  12.045  11.852  0.2406  0.1278  0.0882
17847SOL    HW263472  10.625  12.158  11.947 -0.0318  0.4000 -0.1382
17848SOL     OW63473   5.054   9.652   0.605 -0.0397 -0.1433 -0.2570
17848SOL    HW163474   5.022   9.702   0.680  0.0854 -1.5188  0.7359
17848SOL    HW263475   5.103   9.716   0.553  0.7604  0.6067  1.3620
17849SOL     OW63476   7.951   7.550   7.473  1.1067 -0.0616  0.4805
17849SOL    HW163477   7.981   7.632   7.433  0.0677  0.0845 -0.0326
17849SOL    HW263478   7.941   7.489   7.400 -1.0442  0.2831  0.4111
17850SOL     OW63479  12.770   2.745  12.321  0.1560 -0.0030 -0.0814
17850SOL    HW163480  12.690   2.784  12.288  0.8768  1.9625  0.3678
17850SOL    HW263481  12.761   2.651  12.303 -2.5451  0.0534  0.6335
17851SOL     OW63482   5.453  10.190  12.266  0.6401  0.1605  0.0942
17851SOL    HW163483   5.471  10.107  12.309 -0.3771 -1.4823 -2.3662
17851SOL    HW263484   5.503  10.186  12.184  1.1779  2.3398  0.2545
17852SOL     OW63485   1.934   1.612  10.561  0.0786  0.1408  0.3109
17852SOL    HW163486   2.030   1.621  10.560  0.1110  0.0380  1.2830
17852SOL    HW263487   1.910   1.606  10.469  0.8610  1.7013 -0.0406
17853SOL     OW63488   4.623   6.429   9.414 -0.7272  1.0222  0.3991
17853SOL    HW163489   4.676   6.471   9.346 -0.9840  0.9288  0.1405
17853SOL    HW263490   4.659   6.462   9.496 -0.8432  1.6500  0.2015
17854SOL     OW63491   0.981   7.233   1.559  0.2038 -0.3572  0.0320
17854SOL    HW163492   1.055   7.173   1.562  0.4187 -0.0989 -0.0062
17854SOL    HW263493   0.975   7.258   1.466  0.7339  0.4325  0.1994
17855SOL     OW63494   5.692   5.421   0.256 -0.2272 -0.1795  0.1278
17855SOL    HW163495   5.670   5.336   0.219 -2.0971 -0.3784  1.5564
17855SOL    HW263496   5.680   5.482   0.183  1.5510 -1.1145 -1.0313
17856SOL     OW63497   2.023   6.817   8.191  0.5540 -0.0323  0.2078
17856SOL    HW163498   2.068   6.895   8.159  2.0552  0.6085  3.4572
17856SOL    HW263499   2.077   6.744   8.162  0.8954  0.3696 -0.1767
17857SOL     OW63500   9.880   8.804   9.217  0.5833  0.2426 -1.2542
17857SOL    HW163501   9.901   8.863   9.289 -1.1816 -2.1673  1.4489
17857SOL    HW263502   9.808   8.847   9.172 -0.0714  0.6234  0.1040
17858SOL     OW63503   0.208   3.329   5.355 -0.3220 -0.1747  0.2413
17858SOL    HW163504   0.118   3.359   5.364 -0.4970 -0.3952 -0.7070
17858SOL    HW263505   0.258   3.407   5.331 -0.8074 -0.5964 -2.4184
17859SOL     OW63506   3.734   3.991   2.731  0.4900 -0.1694 -1.1483
17859SOL    HW163507   3.712   3.923   2.667 -0.7233  0.4322 -1.4103
17859SOL    HW263508   3.661   4.053   2.726  1.0275  0.5829 -0.1245
17860SOL     OW63509   8.935  10.493   8.303  0.2986 -0.0066 -0.0425
17860SOL    HW163510   8.898  10.554   8.240  1.2635  1.4223  0.7320
17860SOL    HW263511   8.980  10.548   8.367  1.6665 -1.5466  0.3856
17861SOL     OW63512   3.661   3.798  12.053  0.2942 -0.2623 -0.1421
17861SOL    HW163513   3.646   3.892  12.057 -1.1845 -0.4674  0.0363
17861SOL    HW263514   3.574   3.760  12.069  1.2352 -1.6772  2.1547
17862SOL     OW63515   0.139   1.660   5.527 -0.4283  0.2751  0.2256
17862SOL    HW163516   0.155   1.720   5.454 -1.2495 -1.7085 -1.6727
17862SOL    HW263517   0.227   1.637   5.558 -0.0991  2.1960  0.8194
17863SOL     OW63518   4.443  11.708   0.639 -0.0125 -0.0704 -0.0534
17863SOL    HW163519   4.395  11.642   0.688 -0.1091  1.3535  1.9128
17863SOL    HW263520   4.429  11.685   0.548 -1.0842 -2.0001  0.5287
17864SOL     OW63521   4.608  12.358  11.549  0.5220 -0.0951  0.3330
17864SOL    HW163522   4.682  12.320  11.596 -0.2214 -0.1554  1.4890
17864SOL    HW263523   4.592  12.442  11.592 -1.1709 -0.8505  1.2664
17865SOL     OW63524   8.436   4.963  10.207 -0.6088 -0.4559  0.0118
17865SOL    HW163525   8.366   5.028  10.206  0.6988  0.9976 -0.4047
17865SOL    HW263526   8.461   4.952  10.115  0.4704 -0.0684  0.2388
17866SOL     OW63527  12.955   5.677   8.512 -0.2282 -0.3784  0.1880
17866SOL    HW163528  12.977   5.744   8.577 -0.8198  1.0113 -0.9614
17866SOL    HW263529  12.938   5.598   8.563  0.6907  0.2842  1.5951
17867SOL     OW63530   5.456  12.905  10.824  0.4182  0.2002  0.3156
17867SOL    HW163531   5.507  12.970  10.776  4.3702 -2.8422 -0.0744
17867SOL    HW263532   5.489  12.909  10.914 -0.2915 -0.3638  0.6201
17868SOL     OW63533  10.735  10.724   2.481  0.3824  0.0508 -0.3329
17868SOL    HW163534  10.642  10.743   2.472 -0.2200 -0.6957  2.9783
17868SOL    HW263535  10.759  10.761   2.566  1.6783 -4.3429  1.5117
17869SOL     OW63536   1.380   0.741   8.385  0.4144  0.4309 -0.4195
17869SOL    HW163537   1.363   0.818   8.440 -1.6124 -0.7665  0.7817
17869SOL    HW263538   1.339   0.669   8.433  0.5509 -1.0659 -2.4520
17870SOL     OW63539   0.739   7.175   7.533  0.3102  0.0019  0.1347
17870SOL    HW163540   0.792   7.130   7.598  2.3759  0.1236 -1.3711
17870SOL    HW263541   0.701   7.249   7.581  0.0964 -1.0370  1.6522
17871SOL     OW63542   4.331   5.815   1.975  0.1294  0.4900 -0.5481
17871SOL    HW163543   4.346   5.757   1.901 -0.0281 -0.5764  0.2320
17871SOL    HW263544   4.363   5.766   2.051 -0.6251  1.1509  0.2158
17872SOL     OW63545   9.859   4.478   2.332  0.5195 -0.0910  0.5768
17872SOL    HW163546   9.829   4.430   2.256  0.8160 -1.7470  1.4610
17872SOL    HW263547   9.778   4.505   2.377  0.3472 -1.0669  0.8589
17873SOL     OW63548  12.107  12.322   4.085 -0.9719  0.5021 -0.4552
17873SOL    HW163549  12.146  12.401   4.047 -1.4237  1.6062  1.2472
17873SOL    HW263550  12.027  12.308   4.036 -0.4118  0.5375 -1.3934
17874SOL     OW63551   4.625  11.747  10.414  0.1430  0.8442 -0.3599
17874SOL    HW163552   4.620  11.802  10.336  1.5460 -0.0919 -1.1799
17874SOL    HW263553   4.612  11.658  10.381 -0.9323  0.5648  0.7531
17875SOL     OW63554   1.836   0.432   5.047  0.4831 -0.5250  0.3679
17875SOL    HW163555   1.826   0.478   5.131 -1.4207  0.5955 -0.4217
17875SOL    HW263556   1.805   0.343   5.065  0.1879 -0.3259  0.8797
17876SOL     OW63557   8.891   6.231   4.970 -0.6243 -0.2553 -0.4852
17876SOL    HW163558   8.801   6.261   4.955 -1.4494 -1.4780  1.4632
17876SOL    HW263559   8.902   6.159   4.908 -0.5811  0.5844 -1.4711
17877SOL     OW63560  11.175   6.254   9.787 -0.5133  0.0067  0.0829
17877SOL    HW163561  11.192   6.165   9.818  0.8778  0.6477  1.2644
17877SOL    HW263562  11.163   6.244   9.692 -0.0343 -1.3897  0.1430
17878SOL     OW63563   4.403   9.439   1.254  0.1234 -0.2090 -0.0916
17878SOL    HW163564   4.379   9.512   1.313 -2.1376 -1.6696  0.9478
17878SOL    HW263565   4.488   9.410   1.286 -0.0087  0.5177  1.0083
17879SOL     OW63566   2.219  10.960   4.095  0.1733 -0.2518 -0.8126
17879SOL    HW163567   2.276  11.011   4.153 -0.6931 -0.0430 -0.1188
17879SOL    HW263568   2.248  10.869   4.106 -0.9449 -0.4363  1.1713
17880SOL     OW63569  12.889   5.631  11.153 -0.6171 -0.8028 -0.0884
17880SOL    HW163570  12.963   5.571  11.162 -1.5509 -1.7005  2.6149
17880SOL    HW263571  12.811   5.574  11.154 -1.4811  0.3403  1.4104
17881SOL     OW63572   6.342   0.831  11.330 -0.4478  0.1625  0.9456
17881SOL    HW163573   6.324   0.922  11.351 -1.8025 -0.1626  1.2824
17881SOL    HW263574   6.359   0.831  11.236  2.7621  1.2029  1.4176
17882SOL     OW63575   5.974   2.422   5.339 -0.4216  0.1290 -0.2040
17882SOL    HW163576   5.939   2.401   5.253 -1.1900 -0.1385  0.1724
17882SOL    HW263577   6.036   2.493   5.322  0.8575 -1.1496 -1.2379
17883SOL     OW63578   4.793   4.034  12.584 -0.4634  0.2670  0.0497
17883SOL    HW163579   4.738   4.043  12.661 -2.5018  1.9652 -1.4825
17883SOL    HW263580   4.736   3.994  12.518  0.9035 -0.2369 -0.8799
17884SOL     OW63581  11.644   3.110   6.888  0.1460 -0.2993 -0.3080
17884SOL    HW163582  11.634   3.118   6.794  0.6948 -0.0394 -0.3472
17884SOL    HW263583  11.712   3.174   6.911  0.5728 -0.9100  0.1558
17885SOL     OW63584  13.127   6.667   2.586 -0.0777 -0.1857  0.4288
17885SOL    HW163585  13.137   6.718   2.667  2.3768  0.3165 -0.0948
17885SOL    HW263586  13.138   6.576   2.613 -0.8499 -0.1611  0.8567
17886SOL     OW63587   4.609   0.369   3.721  0.4454 -0.0844  0.7430
17886SOL    HW163588   4.624   0.397   3.811 -0.7167  1.0000  0.6203
17886SOL    HW263589   4.534   0.309   3.727 -0.3352  0.8255  0.3966
17887SOL     OW63590   2.703  11.164   2.732 -0.2033 -0.6359 -0.6184
17887SOL    HW163591   2.713  11.135   2.823  0.6950 -0.4412 -0.6537
17887SOL    HW263592   2.718  11.259   2.735 -0.1068 -0.6392 -0.9827
17888SOL     OW63593  11.533   6.892   4.107  0.2729 -0.4344  0.1011
17888SOL    HW163594  11.553   6.813   4.056  2.4388 -1.7182  2.6902
17888SOL    HW263595  11.572   6.963   4.055  2.7488 -1.7278 -0.0035
17889SOL     OW63596   7.836  12.817  12.145  0.5473 -0.1134  0.1401
17889SOL    HW163597   7.758  12.791  12.095 -2.7088 -1.9806  5.4345
17889SOL    HW263598   7.819  12.908  12.170  0.8891 -0.0319  0.0876
17890SOL     OW63599  13.122  12.669   7.628  0.4711 -0.7727  0.1028
17890SOL    HW163600  13.127  12.748   7.682  0.5553 -0.9173  0.3055
17890SOL    HW263601  13.030  12.661   7.604  0.2571 -1.2875  1.0749
17891SOL     OW63602  10.894   0.256   1.982  0.4451  0.0880 -0.1019
17891SOL    HW163603  10.937   0.201   1.916 -0.4254 -1.4871  0.5748
17891SOL    HW263604  10.944   0.241   2.062 -0.2553 -0.3342  0.2640
17892SOL     OW63605   5.041   1.627  11.805 -0.0052  0.3101  0.2958
17892SOL    HW163606   5.073   1.608  11.893 -0.0836  1.0425  0.4890
17892SOL    HW263607   5.097   1.698  11.773  0.5941 -0.5435 -0.5950
17893SOL     OW63608   4.684   3.791   1.424  0.4033 -0.1551  0.1429
17893SOL    HW163609   4.646   3.810   1.509 -1.0356 -0.7606 -0.3287
17893SOL    HW263610   4.736   3.868   1.403  1.7332 -0.4590  2.0473
17894SOL     OW63611   6.392  11.119   6.981  0.0987  0.3078  0.6662
17894SOL    HW163612   6.347  11.139   7.063  3.1450  1.4670  2.2202
17894SOL    HW263613   6.376  11.196   6.925  2.7157  2.3335  2.4795
17895SOL     OW63614  12.876   3.000   4.463  0.0348 -0.0245  0.2376
17895SOL    HW163615  12.863   3.093   4.484 -0.0521 -0.0578  0.3300
17895SOL    HW263616  12.812   2.954   4.517  0.7028 -0.2091  0.8928
17896SOL     OW63617   8.755   7.229   5.874 -0.5383 -0.4690  0.0374
17896SOL    HW163618   8.731   7.320   5.891 -2.0377 -0.4751 -1.6337
17896SOL    HW263619   8.741   7.219   5.779  0.5223 -2.1850  0.0269
17897SOL     OW63620   9.147   3.316   2.597  0.4255  0.6434  0.2120
17897SOL    HW163621   9.216   3.352   2.542 -0.0287  1.4259  0.1298
17897SOL    HW263622   9.177   3.332   2.687  2.0490 -2.3034  0.3109
17898SOL     OW63623   4.197   6.312   8.679  0.6989 -0.2462 -0.1633
17898SOL    HW163624   4.277   6.288   8.633  1.1089  0.7339  0.0120
17898SOL    HW263625   4.127   6.291   8.617  0.9855 -2.1153  0.0977
17899SOL     OW63626   2.684  11.968   8.241  0.5845  0.2567  0.1382
17899SOL    HW163627   2.596  12.000   8.261  0.6293 -0.0019  0.7586
17899SOL    HW263628   2.679  11.873   8.257  0.7373  0.1006 -0.6680
17900SOL     OW63629   7.665   2.435   3.834  0.2144 -0.3944  0.5267
17900SOL    HW163630   7.626   2.518   3.806  0.7376 -0.1943  0.3644
17900SOL    HW263631   7.746   2.429   3.783 -0.3341 -1.5197 -0.2471
17901SOL     OW63632   5.091   8.110  12.175 -0.4583 -0.1958 -0.4651
17901SOL    HW163633   5.156   8.041  12.164  0.3581  0.5206 -0.2820
17901SOL    HW263634   5.040   8.109  12.094 -0.2588 -0.8100 -0.5844
17902SOL     OW63635   3.730   9.838   0.044  0.7757 -0.3715 -0.5442
17902SOL    HW163636   3.777   9.778  -0.013  0.5196  0.3390 -1.5211
17902SOL    HW263637   3.798   9.898   0.076  0.7861 -0.2919 -0.7177
17903SOL     OW63638  12.094   0.702  11.274 -0.0119  0.2621  0.1405
17903SOL    HW163639  12.071   0.719  11.366  2.7554  1.0570  0.7659
17903SOL    HW263640  12.178   0.656  11.278  0.4894  0.8755 -2.0000
17904SOL     OW63641  10.423   3.088  11.052  0.5570 -0.5302  0.0614
17904SOL    HW163642  10.358   3.065  10.985  1.9695 -1.2482 -1.1301
17904SOL    HW263643  10.382   3.061  11.134 -0.3277 -1.7476 -0.7314
17905SOL     OW63644   7.281   2.845   2.734  0.4939 -0.1039  0.2002
17905SOL    HW163645   7.278   2.927   2.684  3.1430 -0.3455 -0.4965
17905SOL    HW263646   7.279   2.776   2.668  0.5341 -0.5328  0.6381
17906SOL     OW63647   7.802   6.857  12.104 -0.9527  0.4961 -0.0438
17906SOL    HW163648   7.785   6.784  12.163 -1.4696  0.7279  0.1041
17906SOL    HW263649   7.869   6.909  12.148 -0.7155  0.2078 -0.0650
17907SOL     OW63650  11.527   6.193   5.154 -0.4312  0.2432 -0.0560
17907SOL    HW163651  11.622   6.188   5.143 -0.4440  1.1878 -0.7769
17907SOL    HW263652  11.498   6.102   5.151  0.5910 -0.1826  1.6914
17908SOL     OW63653  11.088  11.206   4.987 -0.6440  0.1179 -0.4641
17908SOL    HW163654  11.004  11.202   4.942 -0.5009 -1.1820 -0.6327
17908SOL    HW263655  11.073  11.164   5.071 -0.4969  1.1063  0.0790
17909SOL     OW63656   4.986   7.760  11.069  0.5229  0.6107 -0.4274
17909SOL    HW163657   4.963   7.822  11.138  0.8405 -0.3768  0.6028
17909SOL    HW263658   5.027   7.814  11.001  0.3128  1.5935  0.2068
17910SOL     OW63659   9.631   5.456   8.449  0.5506  0.2779  0.0606
17910SOL    HW163660   9.705   5.508   8.417  0.3887  0.4034 -0.1183
17910SOL    HW263661   9.669   5.395   8.512  1.2686 -1.4086 -1.8547
17911SOL     OW63662   0.755  12.927  12.793  0.0894  0.1423  0.2442
17911SOL    HW163663   0.758  12.833  12.807  2.5758 -0.0941 -1.1940
17911SOL    HW263664   0.703  12.939  12.713  0.6655 -0.1333 -0.1785
17912SOL     OW63665   1.970   1.467   2.513 -0.3267  0.3532  0.1318
17912SOL    HW163666   1.937   1.423   2.435 -1.1861  3.1001 -1.1505
17912SOL    HW263667   2.057   1.498   2.489  1.8403 -3.4184  2.2022
17913SOL     OW63668   3.012   9.996   5.084 -0.1135  0.3622  0.2907
17913SOL    HW163669   2.932   9.944   5.094 -0.7195  0.9002 -1.4209
17913SOL    HW263670   3.074   9.936   5.044 -0.2608  0.4760 -0.1065
17914SOL     OW63671   6.276   0.640   5.011  0.3973  0.2307  0.3074
17914SOL    HW163672   6.193   0.651   5.058  0.4850 -1.7676  0.9886
17914SOL    HW263673   6.342   0.633   5.080  1.5472  3.7572 -0.1861
17915SOL     OW63674   3.393   0.229   6.906 -0.2467  0.0545 -0.5448
17915SOL    HW163675   3.407   0.167   6.835  0.0259  1.5514 -1.8503
17915SOL    HW263676   3.426   0.312   6.873 -1.1421  1.0501  0.9133
17916SOL     OW63677   2.588  12.585   2.588  0.5094  0.0967  0.6571
17916SOL    HW163678   2.543  12.650   2.641 -0.0424 -0.7871  1.3089
17916SOL    HW263679   2.679  12.614   2.586  0.2954  0.8136  1.0504
17917SOL     OW63680  10.664   2.602   4.639 -0.0258  0.2578 -0.9905
17917SOL    HW163681  10.691   2.676   4.584  1.4115  0.7275  0.2954
17917SOL    HW263682  10.706   2.618   4.723 -3.4853  0.4613  0.8775
17918SOL     OW63683   9.446  10.976  11.574  0.5245 -0.1770  0.0226
17918SOL    HW163684   9.378  11.007  11.514  1.7094  0.1683 -1.2065
17918SOL    HW263685   9.398  10.941  11.649 -0.9630  1.0246 -0.3205
17919SOL     OW63686   6.300   3.867   4.288 -0.1244 -0.0757  0.1392
17919SOL    HW163687   6.271   3.904   4.372  0.1510 -0.2988  0.3335
17919SOL    HW263688   6.324   3.777   4.309  0.6563  0.0869 -0.0344
17920SOL     OW63689  10.349   4.829   3.601 -0.0651 -0.5678 -0.6587
17920SOL    HW163690  10.276   4.856   3.656 -1.2653  1.5141 -3.0469
17920SOL    HW263691  10.383   4.750   3.643 -2.0072 -0.1429  1.9672
17921SOL     OW63692   9.740   8.736   9.765  0.7409  0.2962 -0.3915
17921SOL    HW163693   9.675   8.667   9.760  1.0092 -0.2488  2.0766
17921SOL    HW263694   9.709   8.794   9.835  3.2926 -0.5579  1.6493
17922SOL     OW63695   4.917   8.464   8.139  0.0231  0.3061  0.0160
17922SOL    HW163696   4.834   8.507   8.159  0.1108  1.6825 -2.2905
17922SOL    HW263697   4.898   8.370   8.146 -0.8413  0.5819  2.5970
17923SOL     OW63698   5.636   0.915   4.018 -0.4618  0.0536 -0.2447
17923SOL    HW163699   5.651   0.917   3.924 -0.7452  0.4297 -0.2816
17923SOL    HW263700   5.718   0.880   4.054  0.4174  1.7560 -0.4758
17924SOL     OW63701  10.546   7.301   3.490  0.8636  0.3513 -0.2674
17924SOL    HW163702  10.471   7.342   3.449  0.5724  0.1271  0.0322
17924SOL    HW263703  10.615   7.303   3.423  0.3899 -0.0399 -0.7718
17925SOL     OW63704   8.246  12.351   6.477  0.0389 -0.3159  0.0773
17925SOL    HW163705   8.186  12.347   6.402  1.3956 -0.6210 -1.0347
17925SOL    HW263706   8.302  12.427   6.458  0.4348 -0.4332  0.7623
17926SOL     OW63707   8.817   9.349   5.222 -0.2135  0.3258  0.3579
17926SOL    HW163708   8.755   9.421   5.237 -0.1999  0.4674 -0.2330
17926SOL    HW263709   8.799   9.286   5.292 -2.4358 -0.6000 -0.9549
17927SOL     OW63710   5.687  11.807   6.038  0.4767 -0.2281  0.4425
17927SOL    HW163711   5.607  11.792   5.987 -0.0005 -1.6537  1.5340
17927SOL    HW263712   5.663  11.780   6.127  2.0112 -0.1296  0.9039
17928SOL     OW63713   8.266   8.177   7.987  0.0599 -0.4709  0.2114
17928SOL    HW163714   8.321   8.222   7.923 -0.9705  0.5385 -0.0087
17928SOL    HW263715   8.312   8.096   8.007  0.8752 -0.3423 -1.0712
17929SOL     OW63716   6.355  10.731  12.256 -0.1143 -0.1488 -0.0332
17929SOL    HW163717   6.380  10.805  12.199  0.4560  0.1331  0.5666
17929SOL    HW263718   6.284  10.688  12.209 -1.1254  1.3556  0.0404
17930SOL     OW63719  13.074  13.145   1.394  0.1138  0.0001  0.3567
17930SOL    HW163720  13.002  13.204   1.371  1.4961  1.1525 -1.2251
17930SOL    HW263721  13.149  13.178   1.345  0.7784 -3.6420 -1.3689
17931SOL     OW63722   5.306  12.506   7.182  0.4747  0.4762  0.0430
17931SOL    HW163723   5.234  12.444   7.190  1.0219 -0.4526 -1.6225
17931SOL    HW263724   5.267  12.585   7.146  0.3531 -0.2636 -1.5293
17932SOL     OW63725  10.997   2.831  11.649 -0.5737 -0.3306  0.5574
17932SOL    HW163726  11.037   2.814  11.734 -1.6290  0.2963  1.2049
17932SOL    HW263727  11.053   2.786  11.586  1.2277  0.6590  1.3955
17933SOL     OW63728  12.813   7.659   5.098 -0.1165 -0.3239  0.3194
17933SOL    HW163729  12.720   7.653   5.080 -0.4176 -0.1120  1.7168
17933SOL    HW263730  12.823   7.736   5.154  0.7945 -0.7857  0.8217
17934SOL     OW63731   3.475   7.555   9.155 -0.3760  0.5440  0.2903
17934SOL    HW163732   3.386   7.557   9.192 -0.8920 -0.9587 -0.7503
17934SOL    HW263733   3.497   7.647   9.142 -1.5668  0.9717  1.0544
17935SOL     OW63734   5.240   3.238   2.350 -0.1836  0.6942  0.2629
17935SOL    HW163735   5.270   3.272   2.266 -0.4533  0.6974  0.1688
17935SOL    HW263736   5.239   3.314   2.408 -2.2046  1.1801 -0.3236
17936SOL     OW63737   7.241   7.313   4.208  0.1689  0.0299 -0.3032
17936SOL    HW163738   7.327   7.320   4.167  0.4154 -2.2094 -0.2767
17936SOL    HW263739   7.239   7.225   4.245 -1.6112  0.5390  0.9383
17937SOL     OW63740   2.355   7.854  12.025 -0.1067  0.0834  0.1346
17937SOL    HW163741   2.302   7.844  11.947 -1.5566 -0.6565  1.1708
17937SOL    HW263742   2.343   7.772  12.073  1.2006  0.2972  0.8722
17938SOL     OW63743   4.718   1.845   1.164 -0.0554  0.4776 -0.2943
17938SOL    HW163744   4.655   1.822   1.097  1.2298  1.5235 -1.9413
17938SOL    HW263745   4.768   1.765   1.179 -2.0649 -0.5450  1.4865
17939SOL     OW63746   0.533   1.103   5.907  0.2248 -0.3813  0.0502
17939SOL    HW163747   0.555   1.071   5.820  0.9813  0.2667 -0.0033
17939SOL    HW263748   0.616   1.100   5.955  0.0857  0.4811  0.3577
17940SOL     OW63749   5.245   0.316   5.827  0.4994  0.0516  0.4960
17940SOL    HW163750   5.263   0.410   5.833  0.9454  0.1642 -1.6345
17940SOL    HW263751   5.235   0.300   5.733  2.5157 -2.4155  0.6073
17941SOL     OW63752   0.461   5.769   3.380 -0.1602  0.1237  0.1691
17941SOL    HW163753   0.399   5.710   3.422 -0.3788  1.6215  2.1274
17941SOL    HW263754   0.526   5.788   3.448 -1.0628  3.4383  0.2711
17942SOL     OW63755   7.414  12.296  11.994 -0.0518  0.2526 -0.0290
17942SOL    HW163756   7.323  12.292  12.021 -0.2739 -3.6986 -0.7703
17942SOL    HW263757   7.464  12.277  12.074 -0.0286 -0.2198 -0.1571
17943SOL     OW63758   2.932  10.625   3.018  0.5640  0.2274  0.0052
17943SOL    HW163759   2.888  10.608   2.935 -0.0347  0.4250  0.2789
17943SOL    HW263760   2.889  10.704   3.052 -0.1465 -0.6253  1.1588
17944SOL     OW63761   8.270   9.256  11.993 -0.2357  0.5746  0.4006
17944SOL    HW163762   8.182   9.220  12.002 -0.1290  0.6797  2.1789
17944SOL    HW263763   8.299   9.271  12.083  1.9052 -0.1522 -0.1160
17945SOL     OW63764  10.328   8.736   5.675  0.2469 -0.1707  0.4955
17945SOL    HW163765  10.286   8.734   5.589  1.1332 -0.0378  0.0576
17945SOL    HW263766  10.380   8.656   5.678 -0.9758 -0.9720  1.5321
17946SOL     OW63767   8.367   8.372   8.606  0.4331 -0.0768  0.1766
17946SOL    HW163768   8.334   8.438   8.545 -0.0592 -0.8139 -0.3766
17946SOL    HW263769   8.462   8.380   8.602  0.3934  0.1041 -0.4505
17947SOL     OW63770   7.555   0.996   3.253  0.2426  0.1054 -0.4287
17947SOL    HW163771   7.644   0.960   3.262  0.4931  0.6676 -0.6370
17947SOL    HW263772   7.499   0.918   3.249  0.5134 -0.2415  1.6165
17948SOL     OW63773   4.016   1.972   2.690 -0.3277  0.1662 -0.1954
17948SOL    HW163774   3.976   2.056   2.713  0.7353  0.8916 -0.8855
17948SOL    HW263775   4.018   1.923   2.772 -0.8905  0.8571  0.2373
17949SOL     OW63776   0.490   7.983  10.518 -0.0470  0.1158 -0.7018
17949SOL    HW163777   0.418   7.930  10.551 -0.4912  0.6093 -0.8514
17949SOL    HW263778   0.487   8.063  10.570  0.6324 -0.0075 -0.4550
17950SOL     OW63779   8.881   6.703  11.720 -0.1507 -0.1136  0.2905
17950SOL    HW163780   8.885   6.757  11.799 -1.9290  1.9260 -0.8831
17950SOL    HW263781   8.879   6.766  11.648  1.4707 -1.8986 -1.4500
17951SOL     OW63782   0.689   5.824   0.483 -0.4599 -0.0160 -0.0921
17951SOL    HW163783   0.675   5.729   0.483  0.8394 -0.2439 -0.9308
17951SOL    HW263784   0.718   5.843   0.393 -0.8723  1.2046  0.0187
17952SOL     OW63785   9.216   4.414   3.542  0.2386 -0.5561 -0.0600
17952SOL    HW163786   9.295   4.392   3.492  0.8851 -2.3366  1.5680
17952SOL    HW263787   9.151   4.350   3.513 -0.2583  0.1813 -0.5869
17953SOL     OW63788   8.056   6.844   6.644 -0.4169 -0.7515 -0.8509
17953SOL    HW163789   8.067   6.939   6.639  0.8422 -0.9017 -1.4862
17953SOL    HW263790   7.962   6.831   6.655 -0.4059  0.6160  1.4780
17954SOL     OW63791   4.315   2.444   3.557 -0.3833 -0.3237  0.2872
17954SOL    HW163792   4.402   2.485   3.554 -0.1172 -0.8663  0.2937
17954SOL    HW263793   4.254   2.515   3.544  0.0116  0.2952  1.6514
17955SOL     OW63794   5.856  12.756   4.330 -0.0374 -0.1825  0.4080
17955SOL    HW163795   5.800  12.822   4.370 -0.2882 -0.0556 -0.1374
17955SOL    HW263796   5.938  12.760   4.379  0.2137  1.0325 -0.0898
17956SOL     OW63797  11.017  13.219   5.618 -0.4812  0.0258 -0.0897
17956SOL    HW163798  11.034  13.303   5.573  1.7208  0.5297  1.5208
17956SOL    HW263799  11.077  13.158   5.575  0.0143 -0.0113  0.6426
17957SOL     OW63800   8.593   9.580   0.196 -0.0083 -0.0882 -0.6305
17957SOL    HW163801   8.651   9.631   0.252  1.2436 -0.6700 -1.3759
17957SOL    HW263802   8.536   9.645   0.155  0.7155  0.5866 -0.5852
17958SOL     OW63803  12.410  11.367   1.729  0.6049 -0.1852  0.2028
17958SOL    HW163804  12.432  11.283   1.771 -1.2404 -0.8364  0.0028
17958SOL    HW263805  12.457  11.366   1.646  0.6292 -1.0385  0.2130
17959SOL     OW63806  11.828   4.079   8.723  0.6575 -0.0740  0.1696
17959SOL    HW163807  11.916   4.114   8.736 -0.7877  4.1617  0.2019
17959SOL    HW263808  11.778   4.110   8.798 -1.3056 -0.6831 -0.8129
17960SOL     OW63809   6.049   7.095   8.980  0.9018 -0.1201  0.2431
17960SOL    HW163810   5.985   7.054   9.039 -0.0499 -0.6908 -1.1210
17960SOL    HW263811   6.134   7.063   9.010  0.2089 -3.3726 -0.8743
17961SOL     OW63812   7.121   7.078   0.306  0.8383 -0.0914  0.6073
17961SOL    HW163813   7.078   6.994   0.325 -1.0475  0.6720 -0.0381
17961SOL    HW263814   7.188   7.057   0.242 -1.6074 -0.7559 -1.9023
17962SOL     OW63815  11.227   1.460   0.948 -0.0766 -0.2893 -0.2405
17962SOL    HW163816  11.178   1.524   0.897  0.5032  1.7695  1.6420
17962SOL    HW263817  11.166   1.432   1.016  0.1242 -0.6736 -0.2154
17963SOL     OW63818   8.718   7.066  11.889 -0.3615  0.6658 -0.0863
17963SOL    HW163819   8.656   7.040  11.820 -0.9454 -0.7906  0.9414
17963SOL    HW263820   8.699   7.158  11.904 -0.9784  0.7236 -1.1074
17964SOL     OW63821  11.005   9.516   8.750 -0.4133 -0.2453 -0.3689
17964SOL    HW163822  10.963   9.439   8.714  0.3157 -1.4928  1.3113
17964SOL    HW263823  11.074   9.482   8.807  1.5831  1.6634 -1.4512
17965SOL     OW63824   1.298   5.376  11.186 -0.1040 -0.1330 -0.3872
17965SOL    HW163825   1.348   5.347  11.109 -1.2338 -1.6893 -0.5828
17965SOL    HW263826   1.207   5.361  11.162 -0.6793  2.1104  0.1873
17966SOL     OW63827   9.276   5.872   4.940 -0.1771  0.1837 -0.3332
17966SOL    HW163828   9.341   5.825   4.992  0.1470  1.2085  0.2214
17966SOL    HW263829   9.276   5.961   4.976  0.1039  0.9484 -2.0902
17967SOL     OW63830  13.240   0.676   3.346  0.0660 -0.4015 -0.0041
17967SOL    HW163831  13.150   0.646   3.339  0.4336 -1.7503  0.7376
17967SOL    HW263832  13.284   0.637   3.270 -0.1454  1.0185 -0.8959
17968SOL     OW63833  11.770  12.432   7.411  0.5783 -0.0246 -0.1632
17968SOL    HW163834  11.812  12.348   7.427  0.4294 -0.2881 -1.1077
17968SOL    HW263835  11.740  12.428   7.320 -2.6354 -0.3787  0.7546
17969SOL     OW63836   5.930  10.850   2.407  0.3464 -0.0601 -0.5609
17969SOL    HW163837   5.843  10.813   2.417  1.1153 -1.3452  2.2827
17969SOL    HW263838   5.938  10.913   2.478  1.3085  1.0293 -1.5813
17970SOL     OW63839  11.539  12.557   0.884  0.3692  0.0295 -0.0073
17970SOL    HW163840  11.541  12.604   0.967  0.9798  1.0885 -0.5889
17970SOL    HW263841  11.571  12.621   0.820  0.3652 -0.9117 -0.9797
17971SOL     OW63842  13.193   9.055   8.092 -0.2280  0.8322  0.2456
17971SOL    HW163843  13.245   9.037   8.013 -0.1657 -1.8419  0.7821
17971SOL    HW263844  13.258   9.059   8.163 -0.5754 -1.8965  0.8267
17972SOL     OW63845  11.869   6.669   9.354 -0.3424 -0.1142  0.0250
17972SOL    HW163846  11.904   6.604   9.415  0.8977 -0.2323 -0.7840
17972SOL    HW263847  11.923   6.661   9.276 -1.9974 -0.0678 -1.1796
17973SOL     OW63848  12.805   6.285   8.562  0.3264 -0.2028 -0.5193
17973SOL    HW163849  12.892   6.280   8.522  0.8296  0.3303  0.4631
17973SOL    HW263850  12.799   6.375   8.594 -0.9677  0.0409 -1.3972
17974SOL     OW63851   8.198   9.315   5.202  0.0827  0.1659 -0.5496
17974SOL    HW163852   8.255   9.269   5.142 -0.7521 -0.5999 -0.7788
17974SOL    HW263853   8.250   9.328   5.281  1.4557  1.8673 -1.6686
17975SOL     OW63854   1.398   4.791   7.529  0.0965 -0.7838 -0.3422
17975SOL    HW163855   1.446   4.812   7.609  1.0865 -0.2433 -1.0592
17975SOL    HW263856   1.315   4.839   7.538 -1.3660 -3.4083  1.8956
17976SOL     OW63857   2.707   0.627  10.310  0.1840  0.6936 -0.1371
17976SOL    HW163858   2.668   0.576  10.381  1.8140  0.9029  0.9726
17976SOL    HW263859   2.633   0.656  10.257 -1.0568  0.2027  1.2725
17977SOL     OW63860   4.003   8.275   7.178 -0.3308  0.0641 -0.3893
17977SOL    HW163861   3.915   8.239   7.186 -0.2068 -0.2592 -0.4724
17977SOL    HW263862   4.031   8.290   7.268 -0.4823  0.1998 -0.3636
17978SOL     OW63863  12.487   8.469   4.017 -0.1487  0.5756 -0.4562
17978SOL    HW163864  12.451   8.413   3.948  1.0896  1.5203 -1.9496
17978SOL    HW263865  12.579   8.480   3.992  0.3070  1.0403  1.3199
17979SOL     OW63866   4.976   4.028   5.295 -0.3165  0.1188 -0.1562
17979SOL    HW163867   4.984   4.115   5.255  1.0814 -0.5148 -1.3035
17979SOL    HW263868   5.040   4.028   5.366  0.0879 -0.1538 -0.5150
17980SOL     OW63869  12.308   8.282   6.834 -0.5942  0.7352 -0.0673
17980SOL    HW163870  12.253   8.229   6.893  0.3557 -0.0115  0.1724
17980SOL    HW263871  12.303   8.236   6.750  2.8178 -1.7844  0.8706
17981SOL     OW63872   1.875   9.400   6.957  0.0778 -0.1998 -0.1734
17981SOL    HW163873   1.806   9.462   6.981  1.5341  0.3507  3.1850
17981SOL    HW263874   1.842   9.315   6.987 -0.1003 -0.3344 -0.7409
17982SOL     OW63875   8.395   0.835   4.425 -0.7073  0.5294 -0.0888
17982SOL    HW163876   8.304   0.855   4.401 -1.1142  1.0603  1.7843
17982SOL    HW263877   8.401   0.854   4.518  0.8850 -1.1393  0.2140
17983SOL     OW63878   3.369   4.241  12.309 -0.1330 -0.0701 -0.3228
17983SOL    HW163879   3.337   4.291  12.385 -5.4260  1.8943 -3.3668
17983SOL    HW263880   3.297   4.184  12.285  1.3597 -0.7549 -3.7915
17984SOL     OW63881   8.111   9.547   6.194  0.0624 -0.0275 -0.1047
17984SOL    HW163882   8.141   9.540   6.103  0.5491 -0.9147  0.1004
17984SOL    HW263883   8.180   9.502   6.244 -0.2363  0.3931  0.6903
17985SOL     OW63884   2.423   4.409   5.430  0.5861  0.0556  0.8520
17985SOL    HW163885   2.334   4.389   5.400  1.0818 -3.8188  1.4258
17985SOL    HW263886   2.452   4.481   5.374 -2.3670  0.4447 -0.3402
17986SOL     OW63887   1.389   9.869   1.888  0.1147 -0.0940 -0.1892
17986SOL    HW163888   1.480   9.837   1.885 -0.3583 -1.4980 -0.4298
17986SOL    HW263889   1.361   9.868   1.796 -0.3142 -0.2063 -0.0575
17987SOL     OW63890   8.871   4.970   4.855 -0.2868 -0.2950 -0.1868
17987SOL    HW163891   8.950   4.959   4.803 -0.1526 -1.8448  0.2900
17987SOL    HW263892   8.903   4.996   4.942 -0.2389 -1.5169  0.1756
17988SOL     OW63893  10.295  12.115   5.047 -0.1554 -0.0624 -0.0287
17988SOL    HW163894  10.312  12.093   4.955  1.2875  0.9622 -0.0435
17988SOL    HW263895  10.201  12.137   5.049 -0.3479 -0.6967 -1.1215
17989SOL     OW63896   1.756   0.193   2.314  0.1385  0.1918 -0.7988
17989SOL    HW163897   1.740   0.274   2.362  0.0485 -0.0510 -0.4159
17989SOL    HW263898   1.849   0.196   2.293  0.2424  0.1672 -0.3575
17990SOL     OW63899   9.189   6.502   9.374  0.3454 -0.1608  0.1559
17990SOL    HW163900   9.124   6.454   9.323 -2.5941  1.4050  2.1219
17990SOL    HW263901   9.208   6.445   9.449  0.1612 -0.0456  0.2913
17991SOL     OW63902   3.206   8.488   1.594  0.0029  0.3906  0.5906
17991SOL    HW163903   3.180   8.435   1.670 -1.0500 -2.9457 -1.8538
17991SOL    HW263904   3.283   8.442   1.559  0.5958  1.9909 -0.2941
17992SOL     OW63905   2.518  12.992   8.640  0.2063  0.3426  0.4809
17992SOL    HW163906   2.607  12.979   8.673  1.7067  0.3616 -3.0859
17992SOL    HW263907   2.482  12.904   8.633  1.1784 -0.0037 -0.8349
17993SOL     OW63908   4.589   7.511   9.727 -0.2421  0.1907 -0.0218
17993SOL    HW163909   4.625   7.500   9.638  1.0013 -1.8275  0.6642
17993SOL    HW263910   4.656   7.473   9.784 -2.5285 -1.7880  1.5101
17994SOL     OW63911   2.372   7.607   6.683 -0.1139  0.3503 -0.5499
17994SOL    HW163912   2.351   7.578   6.772 -2.2705  0.6074 -0.9109
17994SOL    HW263913   2.376   7.527   6.631  0.2943  0.2632 -0.3880
17995SOL     OW63914  10.536   5.605   0.813 -0.1188  0.0644 -0.0244
17995SOL    HW163915  10.622   5.610   0.857  0.0632  1.5434 -0.5020
17995SOL    HW263916  10.517   5.695   0.788 -1.3624 -0.4024 -0.8211
17996SOL     OW63917   2.997   8.129   1.565  0.6849  1.1299 -0.1275
17996SOL    HW163918   2.993   8.047   1.614 -0.5476  1.6619  0.7081
17996SOL    HW263919   3.087   8.158   1.574  0.7427  0.6731  0.9452
17997SOL     OW63920  11.409   9.535  11.989 -0.0015 -0.1486  0.0370
17997SOL    HW163921  11.461   9.560  11.913  1.0800  0.1523  0.8402
17997SOL    HW263922  11.361   9.457  11.961  1.4230 -0.8593 -0.5500
17998SOL     OW63923   3.478   3.972  10.391 -0.1229  0.6525  0.2729
17998SOL    HW163924   3.415   4.026  10.343 -0.3359 -0.1345 -0.3429
17998SOL    HW263925   3.448   3.976  10.482 -0.2878  1.3492  0.1974
17999SOL     OW63926   3.774  12.085  12.342  0.1663  0.5710  0.6923
17999SOL    HW163927   3.681  12.067  12.350  0.3148 -1.9335 -1.7394
17999SOL    HW263928   3.785  12.120  12.254  1.5864  0.1073  0.6464
18000SOL     OW63929   3.219   6.914   9.246  0.0513  0.3320 -0.2821
18000SOL    HW163930   3.204   6.867   9.164  1.6444 -1.7148  0.4959
18000SOL    HW263931   3.242   7.003   9.219 -0.1960 -0.0873 -2.0064
18001SOL     OW63932   5.101  10.841   6.862  0.6051  0.2266  0.6086
18001SOL    HW163933   5.089  10.850   6.956  2.4354  2.6073  0.7160
18001SOL    HW263934   5.035  10.899   6.823 -1.0659 -1.7894  0.2960
18002SOL     OW63935  11.617   3.591   7.134 -0.5394 -0.4228  0.2450
18002SOL    HW163936  11.682   3.660   7.151 -1.5299  0.6518 -0.1773
18002SOL    HW263937  11.633   3.525   7.201  1.6294 -0.6766 -0.4210
18003SOL     OW63938   4.046  10.470  12.266  0.2876 -0.2373 -0.0292
18003SOL    HW163939   3.986  10.450  12.195 -0.6114  0.0879  0.6257
18003SOL    HW263940   4.092  10.387  12.283  0.2955 -0.3908 -0.7714
18004SOL     OW63941   8.636  13.268   3.588  0.4804 -0.2882  0.3853
18004SOL    HW163942   8.652  13.318   3.508 -0.4980 -1.6696 -0.7111
18004SOL    HW263943   8.622  13.335   3.655  2.6687  0.9232 -0.2594
18005SOL     OW63944  13.309   0.598  10.700  0.1276  0.2536  0.3646
18005SOL    HW163945  13.374   0.578  10.768 -0.8177  0.3155  1.3184
18005SOL    HW263946  13.312   0.694  10.692  0.2694  0.2431  0.2753
18006SOL     OW63947  13.274   4.865   4.216  0.8947 -0.3215  0.1695
18006SOL    HW163948  13.201   4.837   4.271  0.8932 -1.6582 -0.4557
18006SOL    HW263949  13.252   4.832   4.129  2.1293 -0.5373 -0.0782
18007SOL     OW63950   4.867  12.902   1.103  0.8457  0.2969  0.4523
18007SOL    HW163951   4.864  12.988   1.063 -0.0596 -0.6416 -1.6580
18007SOL    HW263952   4.832  12.914   1.191 -0.2888  1.8793 -0.1942
18008SOL     OW63953   5.265   9.565   3.427  0.5089 -0.4986 -0.2706
18008SOL    HW163954   5.287   9.576   3.520 -0.1005 -1.8277  0.0558
18008SOL    HW263955   5.310   9.484   3.402  0.0113 -0.5755 -0.9237
18009SOL     OW63956   4.713   7.061  12.193  0.2480 -0.0832  0.7810
18009SOL    HW163957   4.720   7.125  12.122  0.6280  1.1089  1.8459
18009SOL    HW263958   4.647   6.998  12.163  1.8686 -0.8474 -1.5315
18010SOL     OW63959   9.245   7.068   9.510 -0.3342 -0.8144  0.9598
18010SOL    HW163960   9.171   7.116   9.546 -0.0090  0.3807  0.1223
18010SOL    HW263961   9.216   6.977   9.507 -2.4636 -0.1700 -0.9733
18011SOL     OW63962   4.732   2.491  10.554  0.7251  0.4276  0.6400
18011SOL    HW163963   4.747   2.398  10.535 -0.2178  0.5438 -0.8353
18011SOL    HW263964   4.751   2.536  10.472  0.1062  1.4176  1.0221
18012SOL     OW63965   7.256   0.511  10.045 -0.2968  0.4784  0.0277
18012SOL    HW163966   7.269   0.602  10.017  2.8509  0.0693 -0.2136
18012SOL    HW263967   7.274   0.513  10.139  1.3795 -0.0647 -0.2401
18013SOL     OW63968   8.397   2.164   0.192  0.5311  0.4537 -0.3724
18013SOL    HW163969   8.371   2.226   0.261  0.7912  0.3529 -0.1799
18013SOL    HW263970   8.315   2.123   0.165  0.3790  0.7546 -0.3781
18014SOL     OW63971   7.173   7.481   3.098 -0.5325 -0.0820  0.6556
18014SOL    HW163972   7.212   7.431   3.027  1.9436  2.3612  0.1027
18014SOL    HW263973   7.096   7.431   3.124  0.9984 -3.3888 -0.6729
18015SOL     OW63974   9.616   8.469   5.899  0.0662  0.8196 -0.1699
18015SOL    HW163975   9.620   8.517   5.816  2.1002  0.8907 -0.0619
18015SOL    HW263976   9.643   8.533   5.965  2.9763 -0.4124 -0.0382
18016SOL     OW63977   1.889   4.218   0.569 -0.1857  0.1460 -0.6491
18016SOL    HW163978   1.928   4.282   0.629 -0.4569 -0.0160 -0.2912
18016SOL    HW263979   1.951   4.144   0.571 -0.4857 -0.1011 -0.0998
18017SOL     OW63980  12.424   4.848   7.373 -0.1046  0.5932  0.1086
18017SOL    HW163981  12.376   4.825   7.453  0.4980 -0.1640  0.2582
18017SOL    HW263982  12.379   4.927   7.341 -0.6785  0.6092  0.9052
18018SOL     OW63983   8.856   9.064   2.792  0.2177 -0.2272 -0.4715
18018SOL    HW163984   8.876   9.010   2.715 -0.1808 -0.0082 -0.7376
18018SOL    HW263985   8.924   9.043   2.855  0.4353 -0.5628 -0.8130
18019SOL     OW63986   1.454  11.388   9.554  0.8473 -0.7955  0.5894
18019SOL    HW163987   1.479  11.420   9.467 -0.0845 -1.3343  0.1048
18019SOL    HW263988   1.511  11.313   9.569  1.5836 -0.2025  0.8151
18020SOL     OW63989   9.232  12.685  10.816 -0.3088  0.0204  0.8308
18020SOL    HW163990   9.281  12.634  10.752 -0.0169  0.8757  0.3664
18020SOL    HW263991   9.265  12.654  10.901  0.0523 -0.3695  0.5505
18021SOL     OW63992  12.068   3.262   8.960 -0.1164 -0.4530  0.6501
18021SOL    HW163993  12.125   3.206   9.013 -0.5529 -2.1532 -0.5795
18021SOL    HW263994  11.981   3.248   8.997 -0.0912  0.2909  1.0157
18022SOL     OW63995   2.264   2.852  10.571  0.2280 -0.7408  0.1271
18022SOL    HW163996   2.327   2.923  10.587 -0.0496 -0.2466 -0.8772
18022SOL    HW263997   2.179   2.896  10.569 -0.2563 -1.4935  2.1044
18023SOL     OW63998   6.439   4.365  10.632 -0.2486 -0.1628  0.2583
18023SOL    HW163999   6.520   4.377  10.582 -0.3307  1.3735  0.4416
18023SOL    HW264000   6.469   4.357  10.723 -0.2272 -1.0195  0.1844
18024SOL     OW64001   5.104   4.670   4.244  0.0015  0.2623 -0.8656
18024SOL    HW164002   5.159   4.592   4.253 -0.3550  0.0249 -0.6708
18024SOL    HW264003   5.017   4.635   4.225 -0.2102  0.6049 -0.5470
18025SOL     OW64004   1.763   1.733   5.801  0.0943  0.8057 -0.3792
18025SOL    HW164005   1.703   1.798   5.765  1.1393  2.2218  0.3441
18025SOL    HW264006   1.772   1.756   5.893 -1.1099 -1.6606  0.4415
18026SOL     OW64007   2.654   0.764   8.688  0.1207  0.5674  0.2884
18026SOL    HW164008   2.640   0.770   8.782  1.1861 -0.8235  0.5614
18026SOL    HW264009   2.599   0.691   8.660 -1.2653  1.8438 -0.4312
18027SOL     OW64010   5.127   1.092   9.702 -0.0650  0.3688  0.1975
18027SOL    HW164011   5.196   1.026   9.709 -0.1585  0.1287 -0.9772
18027SOL    HW264012   5.085   1.092   9.789  0.0032 -1.0348  0.2569
18028SOL     OW64013  10.053  12.451   6.846  0.1549 -0.4364 -0.0634
18028SOL    HW164014   9.976  12.423   6.897  0.1231 -0.1186  0.0627
18028SOL    HW264015  10.122  12.459   6.911  0.4596 -1.3188 -0.2613
18029SOL     OW64016   4.865   9.709   3.732 -0.2595  0.5160  0.2939
18029SOL    HW164017   4.782   9.683   3.772 -1.6092  0.3679 -2.3550
18029SOL    HW264018   4.930   9.655   3.776 -1.8975 -1.1324  0.8518
18030SOL     OW64019   1.335   6.082   4.525 -0.4017 -0.7429 -0.2564
18030SOL    HW164020   1.374   6.161   4.487 -0.6207 -0.0886  0.8547
18030SOL    HW264021   1.278   6.113   4.595  1.0703 -1.9542  1.5936
18031SOL     OW64022  12.451   9.434   3.632 -0.5465 -0.0405  0.3473
18031SOL    HW164023  12.486   9.376   3.701 -1.4892  0.4339  1.2559
18031SOL    HW264024  12.508   9.510   3.634  0.1514 -0.5330 -0.2340
18032SOL     OW64025   9.536   9.777   9.760  0.0054 -0.6065 -0.1953
18032SOL    HW164026   9.565   9.705   9.704  2.2554  0.9016 -1.1050
18032SOL    HW264027   9.604   9.843   9.751 -0.9644  0.8396  2.1930
18033SOL     OW64028   3.286  11.711   2.014 -0.4439 -0.5328  0.4787
18033SOL    HW164029   3.236  11.682   2.090 -1.3098  1.5585  0.7788
18033SOL    HW264030   3.229  11.695   1.939 -0.0816 -1.4695  0.3949
18034SOL     OW64031  11.194  10.301   1.305  0.5533 -0.2865  0.7372
18034SOL    HW164032  11.261  10.356   1.265  0.0240  0.2325  0.5589
18034SOL    HW264033  11.165  10.350   1.381 -2.2266  1.2679 -1.1810
18035SOL     OW64034  12.337   2.705   0.700 -0.0377  0.2612 -0.2689
18035SOL    HW164035  12.324   2.731   0.609 -1.2343  0.2805 -0.1003
18035SOL    HW264036  12.251   2.677   0.730  0.6483 -1.2406  0.4082
18036SOL     OW64037   0.021  10.432  10.622  0.0888  0.1937 -0.1274
18036SOL    HW164038   0.021  10.365  10.690  0.2775  0.5085  0.1885
18036SOL    HW264039   0.058  10.388  10.545  0.5686  0.0391  0.1869
18037SOL     OW64040   6.825  11.539  10.822 -0.1117 -0.4066 -0.0965
18037SOL    HW164041   6.792  11.562  10.908 -0.3345 -3.1503  0.6692
18037SOL    HW264042   6.755  11.486  10.783  0.6646 -0.6257 -1.2366
18038SOL     OW64043   1.920   4.015   4.977  0.0225 -0.1702  0.1086
18038SOL    HW164044   1.835   3.993   4.938  0.2180 -0.6290 -0.0711
18038SOL    HW264045   1.969   4.055   4.905  0.9346 -2.4163 -0.5922
18039SOL     OW64046   1.044   1.801  12.644 -0.0364  0.1922  0.2931
18039SOL    HW164047   0.983   1.786  12.572  1.9438 -1.4356 -1.1698
18039SOL    HW264048   1.061   1.713  12.679 -2.9162  1.0123  4.6974
18040SOL     OW64049  11.227  12.215  11.684 -0.6723 -0.3079  0.5368
18040SOL    HW164050  11.303  12.229  11.627 -1.2960 -0.6336 -0.4085
18040SOL    HW264051  11.255  12.245  11.770 -0.2391  1.8484 -0.2931
18041SOL     OW64052   6.245   8.903  10.475  0.1433 -0.5516 -0.4326
18041SOL    HW164053   6.292   8.939  10.550 -0.4326 -0.3978 -0.1343
18041SOL    HW264054   6.242   8.974  10.411 -1.6559  0.2282  0.4570
18042SOL     OW64055   2.332   0.834   2.698 -0.0522  0.7085  0.1216
18042SOL    HW164056   2.323   0.771   2.769  1.0606  0.5791  0.1647
18042SOL    HW264057   2.422   0.823   2.667 -0.7459  0.1975 -1.8588
18043SOL     OW64058   2.769  12.345  12.862  0.3053  1.1086  0.0907
18043SOL    HW164059   2.752  12.259  12.899  0.8130  0.1865 -1.7036
18043SOL    HW264060   2.838  12.330  12.798 -0.3218  2.6543 -1.0000
18044SOL     OW64061   1.040   1.261   4.413  0.3784 -0.0540  0.3767
18044SOL    HW164062   0.975   1.204   4.453  0.1501 -0.2032 -0.2016
18044SOL    HW264063   1.099   1.284   4.485 -0.0051 -0.3443  0.7899
18045SOL     OW64064   4.156   9.586   4.254  0.1337 -0.2970 -0.2906
18045SOL    HW164065   4.067   9.555   4.271  0.3060 -0.1490  0.9409
18045SOL    HW264066   4.206   9.506   4.238 -0.2913 -0.3562 -1.4331
18046SOL     OW64067   7.396   7.352   7.504  1.0494 -0.0874 -0.1542
18046SOL    HW164068   7.436   7.418   7.448 -0.8736  0.7680 -0.5731
18046SOL    HW264069   7.405   7.270   7.455 -1.3581  0.7725 -2.2256
18047SOL     OW64070  11.815   9.198   2.552  0.1793 -0.3243 -0.1166
18047SOL    HW164071  11.761   9.183   2.630  1.4101  0.4898  0.9376
18047SOL    HW264072  11.865   9.277   2.572  0.7897 -0.3077 -1.5964
18048SOL     OW64073  10.036   8.367   5.467 -0.3478 -0.1605  0.0549
18048SOL    HW164074  10.040   8.419   5.547  1.5260  0.4964 -0.4069
18048SOL    HW264075   9.946   8.334   5.463 -0.7770  0.7143  1.8283
18049SOL     OW64076  11.549  12.440   1.219 -0.2363 -0.2979  0.0191
18049SOL    HW164077  11.592  12.525   1.212 -1.4261  0.2988 -0.3277
18049SOL    HW264078  11.571  12.409   1.306 -2.3866  1.8799  1.5069
18050SOL     OW64079  11.873   8.838   1.608 -0.5124  0.3699 -0.4236
18050SOL    HW164080  11.942   8.860   1.671 -0.8459 -0.4048  0.2321
18050SOL    HW264081  11.831   8.760   1.645 -2.6031  1.5627 -0.1177
18051SOL     OW64082   2.564  13.188   1.578  0.0522  0.1730 -0.4433
18051SOL    HW164083   2.591  13.105   1.618 -0.1915 -0.7664 -2.1369
18051SOL    HW264084   2.470  13.193   1.593  0.1880  0.5748  0.3639
18052SOL     OW64085   8.033  12.614  11.687  0.2730 -0.1060  0.0249
18052SOL    HW164086   8.087  12.545  11.727 -1.7541 -1.8264 -0.0097
18052SOL    HW264087   7.953  12.568  11.660 -1.5832  2.4621  0.8665
18053SOL     OW64088   6.772   4.902  11.981 -0.2611  0.2258 -0.2089
18053SOL    HW164089   6.745   4.880  12.071  1.5135  0.1886  0.3428
18053SOL    HW264090   6.705   4.860  11.926 -0.3130 -1.4187  1.0330
18054SOL     OW64091   5.584  11.016   7.083 -0.5819 -0.1987 -0.1958
18054SOL    HW164092   5.554  11.002   7.173 -0.9371  0.2148 -0.2496
18054SOL    HW264093   5.680  11.014   7.089 -0.4195  3.4882  0.8407
18055SOL     OW64094  12.328   0.790   5.706 -0.1895 -0.2632 -0.0497
18055SOL    HW164095  12.412   0.789   5.751 -0.8740  2.0615  1.4266
18055SOL    HW264096  12.273   0.730   5.757  0.2406 -0.9470 -0.3782
18056SOL     OW64097  13.087   8.918   2.259  0.0296  0.5880 -0.5804
18056SOL    HW164098  13.118   8.829   2.244  1.1434  1.0100 -0.8512
18056SOL    HW264099  13.042   8.914   2.344 -1.6040 -0.6239 -1.4475
18057SOL     OW64100   6.567  10.541  11.703 -0.8082  0.1050 -0.4411
18057SOL    HW164101   6.558  10.450  11.676  1.8924 -0.0493 -1.1865
18057SOL    HW264102   6.526  10.546  11.789 -0.4696 -1.9735 -0.1186
18058SOL     OW64103   6.963  10.888   1.679  0.0440 -0.1123 -0.0543
18058SOL    HW164104   6.873  10.920   1.674 -0.2432 -1.0083 -1.1031
18058SOL    HW264105   7.015  10.952   1.631 -0.5583 -1.2224 -2.3388
18059SOL     OW64106   6.503   4.884  10.815  0.0314  0.0661 -0.2277
18059SOL    HW164107   6.433   4.873  10.879  0.8954 -0.1351  0.6944
18059SOL    HW264108   6.535   4.795  10.799  0.4242  0.2064 -0.2418
18060SOL     OW64109   1.873  10.936   7.867  0.4525 -0.1295 -0.3641
18060SOL    HW164110   1.794  10.980   7.899  1.1059  0.7216  0.1121
18060SOL    HW264111   1.877  10.854   7.916 -1.2658 -1.2202 -1.8946
18061SOL     OW64112   6.032   5.684   9.397  0.2903 -0.5858 -0.3274
18061SOL    HW164113   6.020   5.772   9.431  1.0768 -0.2789 -0.8010
18061SOL    HW264114   6.042   5.629   9.475 -2.2862 -0.6312  0.0438
18062SOL     OW64115   3.296   3.174   9.196  0.4211  0.0118 -0.1564
18062SOL    HW164116   3.332   3.247   9.146  1.7903  0.4747  1.3991
18062SOL    HW264117   3.305   3.099   9.137  0.0799  0.8687 -1.3433
18063SOL     OW64118  10.893  10.904   7.981 -1.0642 -0.0785 -0.3495
18063SOL    HW164119  10.844  10.962   7.923 -0.6943  1.0256  0.4082
18063SOL    HW264120  10.847  10.909   8.065 -1.0300 -0.9043 -0.2668
18064SOL     OW64121  12.900   3.970   1.849 -0.0596 -0.1174  0.2237
18064SOL    HW164122  12.818   3.925   1.829 -0.3150  0.9598 -1.3499
18064SOL    HW264123  12.879   4.063   1.841  0.7655  0.2983  2.1477
18065SOL     OW64124  11.630  12.442  13.199  0.1521  0.2487  0.2368
18065SOL    HW164125  11.680  12.470  13.122  0.4420  2.0283  1.0223
18065SOL    HW264126  11.695  12.407  13.259  0.6630  3.1040  1.5005
18066SOL     OW64127  10.653   0.486   0.605 -0.0030 -0.2462  0.1413
18066SOL    HW164128  10.599   0.419   0.646 -0.6206  0.1943  0.0569
18066SOL    HW264129  10.715   0.512   0.673 -0.4780 -0.1130  0.5254
18067SOL     OW64130   5.312   7.136   0.823 -0.3442  0.1320  0.2424
18067SOL    HW164131   5.254   7.208   0.800 -1.6020 -0.7146  0.6240
18067SOL    HW264132   5.401   7.171   0.813 -0.9200  1.4639 -0.3485
18068SOL     OW64133  11.466  10.071  12.893 -0.0870  0.5037 -0.0376
18068SOL    HW164134  11.416   9.996  12.860 -1.2570  1.0819  0.3549
18068SOL    HW264135  11.399  10.134  12.919  0.7649  0.4551  2.5606
18069SOL     OW64136  12.731  10.566  12.024  0.0191  0.4147  0.4293
18069SOL    HW164137  12.703  10.481  12.059  0.4596 -0.2727 -0.8202
18069SOL    HW264138  12.650  10.612  12.003 -0.2045 -0.2082 -0.0706
18070SOL     OW64139   1.236   0.140   8.525  0.2474  0.7996  0.4133
18070SOL    HW164140   1.200   0.133   8.613  1.6456  0.5551  0.9824
18070SOL    HW264141   1.297   0.214   8.530  0.8013  0.3884 -0.1829
18071SOL     OW64142   2.747   9.839  10.719  1.1572  0.1601 -0.4353
18071SOL    HW164143   2.827   9.801  10.756  0.5897  0.7201  1.5181
18071SOL    HW264144   2.679   9.815  10.782  0.1266  1.2252 -1.1132
18072SOL     OW64145   6.616   1.986  11.863  0.0085  0.1763  0.0183
18072SOL    HW164146   6.558   2.061  11.879 -0.1878  0.3607 -1.3858
18072SOL    HW264147   6.613   1.936  11.944 -0.1353  1.5027  0.8666
18073SOL     OW64148   1.434  10.191   5.183  0.1652  0.2298  0.3442
18073SOL    HW164149   1.529  10.190   5.187  0.4096 -0.9569 -2.7252
18073SOL    HW264150   1.406  10.119   5.240  1.4259 -1.7948 -1.4276
18074SOL     OW64151   3.020  12.041   0.815 -0.3229  0.4325  0.3086
18074SOL    HW164152   3.077  11.965   0.829  1.1717  1.3384 -0.5544
18074SOL    HW264153   2.971  12.049   0.897 -0.1009 -1.0991  0.6381
18075SOL     OW64154  11.414  12.499  10.167 -0.2234 -0.4043  0.1453
18075SOL    HW164155  11.501  12.506  10.127 -0.8299 -2.3310 -1.7074
18075SOL    HW264156  11.377  12.587  10.159 -0.2288 -0.5644 -3.6029
18076SOL     OW64157  10.481   0.823   4.137 -0.2476 -0.1356 -0.0620
18076SOL    HW164158  10.452   0.763   4.069 -0.0032 -0.8286  0.4314
18076SOL    HW264159  10.496   0.767   4.213 -1.2071  0.7059  0.7770
18077SOL     OW64160   2.156  10.155   8.681 -0.3527 -0.1480  0.2843
18077SOL    HW164161   2.173  10.188   8.769  0.9598 -1.9338  0.7417
18077SOL    HW264162   2.222  10.199   8.627  0.8925 -1.3794  0.7592
18078SOL     OW64163   4.873   6.173   1.409 -0.2187  0.1854  0.0607
18078SOL    HW164164   4.899   6.170   1.501 -1.3496  2.4039  0.5275
18078SOL    HW264165   4.823   6.254   1.401  0.6043  0.5129 -2.7409
18079SOL     OW64166  10.301   6.495  11.063 -0.3438  0.3369 -0.3702
18079SOL    HW164167  10.239   6.530  10.999 -0.1086 -1.5969 -1.7634
18079SOL    HW264168  10.247   6.454  11.130 -0.6054 -0.5134 -1.0856
18080SOL     OW64169  11.549   7.684  12.488 -0.1433  0.2270 -0.1119
18080SOL    HW164170  11.566   7.638  12.405  1.0973 -1.0099  0.7902
18080SOL    HW264171  11.561   7.777  12.466  0.2830 -0.0851 -1.2905
18081SOL     OW64172   3.041  12.200  12.388 -0.1925  0.2799  0.4306
18081SOL    HW164173   3.122  12.251  12.388 -0.8151  1.3012 -0.1711
18081SOL    HW264174   3.016  12.195  12.296 -1.1337  0.5084  0.6628
18082SOL     OW64175   1.042   3.041  12.436  0.4447  0.6989 -0.4967
18082SOL    HW164176   0.966   3.009  12.485 -0.1075  1.5111 -0.7956
18082SOL    HW264177   1.005   3.077  12.355  1.3407 -0.5808 -1.5149
18083SOL     OW64178   1.123  11.056   3.724 -0.5076 -0.2827  0.4620
18083SOL    HW164179   1.118  11.111   3.646 -2.3033  0.1196  0.8100
18083SOL    HW264180   1.163  11.113   3.790  1.3350 -0.7338 -0.2089
18084SOL     OW64181   1.390   1.575   2.267  0.0460  0.0521 -0.7241
18084SOL    HW164182   1.366   1.662   2.234  1.7727  0.5926 -0.6290
18084SOL    HW264183   1.449   1.593   2.340 -0.3951 -1.2026 -0.0363
18085SOL     OW64184   9.558  10.391   3.713 -0.8104  0.0221  0.4118
18085SOL    HW164185   9.571  10.402   3.808  1.1975  1.5837  0.0244
18085SOL    HW264186   9.633  10.339   3.685 -1.5717 -0.7230 -0.3112
18086SOL     OW64187  13.032   7.090   1.603  0.4465 -0.1570 -0.1581
18086SOL    HW164188  13.114   7.054   1.637 -0.6904 -1.9009  0.9602
18086SOL    HW264189  13.009   7.032   1.530  1.0312  1.3751 -1.6197
18087SOL     OW64190   2.108   5.390  10.395  0.4935 -0.0676 -0.0506
18087SOL    HW164191   2.056   5.369  10.317  1.2286 -0.6181 -0.4012
18087SOL    HW264192   2.133   5.482  10.383  0.2344 -0.0194 -0.2442
18088SOL     OW64193  12.280   7.719   9.709  0.5426  0.2182  0.3144
18088SOL    HW164194  12.317   7.684   9.790 -0.6919  1.7035  1.5989
18088SOL    HW264195  12.352   7.766   9.668  1.1325 -0.3857  0.6448
18089SOL     OW64196   8.349  13.236   4.347 -0.0913  0.0310 -0.4281
18089SOL    HW164197   8.301  13.226   4.430  1.5125 -0.0297  0.5507
18089SOL    HW264198   8.296  13.296   4.295 -0.7679  0.6765  0.9568
18090SOL     OW64199  11.581   4.898   2.220 -0.1341  0.0439  0.2055
18090SOL    HW164200  11.623   4.872   2.302 -1.1025  0.2666  0.7907
18090SOL    HW264201  11.491   4.920   2.245 -0.1280  1.2104 -0.7311
18091SOL     OW64202   5.228   3.466   1.632  0.4643 -0.2063 -0.2137
18091SOL    HW164203   5.245   3.439   1.722 -2.0168 -2.2698 -0.2653
18091SOL    HW264204   5.238   3.561   1.633  0.5184 -0.1874  2.2084
18092SOL     OW64205   1.954   0.842   1.198 -0.2473  0.9527  0.1595
18092SOL    HW164206   1.932   0.832   1.105 -1.9476 -0.8122  0.6691
18092SOL    HW264207   1.966   0.752   1.229  2.5019  1.5952  1.2305
18093SOL     OW64208   0.857  10.321   6.857 -0.3218  0.6938  0.8619
18093SOL    HW164209   0.915  10.253   6.824 -0.9504 -0.4534  2.0372
18093SOL    HW264210   0.913  10.398   6.865  0.6419  0.0594  0.4184
18094SOL     OW64211   2.822   1.062   9.732  0.3573  0.3123 -0.1397
18094SOL    HW164212   2.785   0.989   9.683 -0.6436  0.4110  0.4492
18094SOL    HW264213   2.904   1.082   9.686  0.9874 -1.5829  0.0733
18095SOL     OW64214   5.025   1.231   1.015  0.1381  0.7974 -0.1185
18095SOL    HW164215   4.994   1.278   0.937 -0.9500  0.2895 -0.0156
18095SOL    HW264216   4.957   1.165   1.031  0.0373  1.2877  1.6238
18096SOL     OW64217  12.945   9.622   3.975 -0.0380 -0.4570 -0.0852
18096SOL    HW164218  12.902   9.579   4.049  0.4998  0.3054  0.6808
18096SOL    HW264219  12.884   9.692   3.950  0.7264  0.6272  1.0039
18097SOL     OW64220   7.072   0.570   6.304 -0.5353  0.4871 -0.9176
18097SOL    HW164221   7.088   0.575   6.399  0.5737  1.9132 -1.1491
18097SOL    HW264222   7.107   0.484   6.280 -0.6347  0.1916 -0.0662
18098SOL     OW64223   4.414   2.600  12.482 -0.3171  0.2469 -0.7826
18098SOL    HW164224   4.321   2.581  12.493 -0.0913 -0.0239  0.9694
18098SOL    HW264225   4.457   2.514  12.486  0.0875  0.4575 -0.4591
18099SOL     OW64226   8.957   4.426   0.510  0.1831 -0.1425  0.4447
18099SOL    HW164227   8.879   4.409   0.562 -1.3007 -0.4759 -1.7468
18099SOL    HW264228   9.027   4.378   0.554 -0.8405  0.0361  2.3815
18100SOL     OW64229   1.439   7.723   6.940  0.0265 -0.4734  0.0439
18100SOL    HW164230   1.527   7.756   6.958 -0.0278 -0.6064  0.5741
18100SOL    HW264231   1.423   7.744   6.848  1.3632 -2.1584 -0.6257
18101SOL     OW64232   1.407   8.776   0.878  0.2192 -0.1216  0.1988
18101SOL    HW164233   1.469   8.709   0.849 -0.5814 -0.8405  0.1035
18101SOL    HW264234   1.395   8.832   0.801  0.4135 -0.2366  0.0815
18102SOL     OW64235  10.344   7.320   7.808  0.2121  0.0046 -0.4840
18102SOL    HW164236  10.258   7.359   7.792 -0.2616 -0.8460 -0.0502
18102SOL    HW264237  10.406   7.390   7.787 -0.6272  1.1787  0.8203
18103SOL     OW64238  12.840  11.439   5.185 -0.0606  0.6372  1.0813
18103SOL    HW164239  12.922  11.390   5.179  0.1487  0.8711  1.8471
18103SOL    HW264240  12.809  11.422   5.274 -0.6292  0.8871  0.9339
18104SOL     OW64241   1.937  10.946   1.277  0.6778 -0.3161 -0.5725
18104SOL    HW164242   1.873  11.015   1.260  0.1821 -0.2473  1.3659
18104SOL    HW264243   1.953  10.950   1.372  1.7800 -1.8707 -0.6470
18105SOL     OW64244   4.938  12.137  10.188 -0.2546  0.2579  0.7152
18105SOL    HW164245   4.964  12.136  10.096 -1.7693 -2.5339  0.2096
18105SOL    HW264246   4.968  12.054  10.223  0.9070  1.5603  3.0059
18106SOL     OW64247   9.914  11.853   1.717  0.8751 -0.1339 -0.5592
18106SOL    HW164248   9.889  11.770   1.676 -0.7480 -0.1547  0.3698
18106SOL    HW264249   9.840  11.911   1.699  1.9930  1.1398 -1.2092
18107SOL     OW64250   5.205   1.818   7.529  0.3989 -0.3101  0.0504
18107SOL    HW164251   5.117   1.798   7.560  0.5711  2.0846  2.4289
18107SOL    HW264252   5.195   1.899   7.479  1.3244  0.3525  0.9055
18108SOL     OW64253   5.037   2.476   9.051  0.1302 -0.4112 -0.2049
18108SOL    HW164254   5.064   2.536   8.982 -0.5261 -1.5471 -1.4985
18108SOL    HW264255   5.063   2.389   9.018  0.2232 -0.9392  1.1877
18109SOL     OW64256   1.888  12.199  10.001 -0.2435 -0.3510  0.0205
18109SOL    HW164257   1.878  12.294   9.993  0.2648 -0.3861 -1.2663
18109SOL    HW264258   1.980  12.183   9.980  0.1645 -0.9679  2.0696
18110SOL     OW64259  12.499   3.591  11.089  0.3591 -0.1879 -0.1452
18110SOL    HW164260  12.419   3.640  11.108 -0.7079 -1.4993 -1.0881
18110SOL    HW264261  12.548   3.648  11.030  0.6960  1.1079  1.2847
18111SOL     OW64262   5.089   0.933   8.587 -0.2215 -0.2271 -0.2276
18111SOL    HW164263   5.030   0.939   8.662 -1.8983  0.5060 -1.5473
18111SOL    HW264264   5.091   1.022   8.551  1.9303 -0.1483 -0.0942
18112SOL     OW64265   2.221  12.497   0.747  0.0986  0.1776  0.3959
18112SOL    HW164266   2.183  12.483   0.660  1.0608 -1.1613  0.1682
18112SOL    HW264267   2.194  12.586   0.770 -0.3263  0.4964 -1.1875
18113SOL     OW64268  11.243   0.225   2.049 -0.4055  0.4854  0.3307
18113SOL    HW164269  11.314   0.242   2.111  0.2706  1.6837 -0.7239
18113SOL    HW264270  11.274   0.261   1.966 -1.4301 -0.7563 -0.6432
18114SOL     OW64271   0.402   2.772   8.657  0.3446  0.3661 -0.0500
18114SOL    HW164272   0.496   2.754   8.666  0.2266  0.3545  1.2586
18114SOL    HW264273   0.376   2.806   8.742 -0.4320  2.3070 -1.0055
18115SOL     OW64274   0.520   4.632   6.363 -0.0869 -0.0866  0.2637
18115SOL    HW164275   0.503   4.633   6.269 -1.2415 -0.5037  0.4563
18115SOL    HW264276   0.609   4.596   6.370  0.1106  0.1769 -0.6656
18116SOL     OW64277   2.000  12.510   2.917  0.1307 -0.0791 -0.5188
18116SOL    HW164278   2.054  12.486   2.992  0.3800 -0.6995 -0.8880
18116SOL    HW264279   2.010  12.437   2.856 -2.8721 -1.3374  0.2882
18117SOL     OW64280   2.521  11.426   6.196 -0.1886 -0.2229  0.2516
18117SOL    HW164281   2.497  11.489   6.263 -2.1422 -0.6911  0.0615
18117SOL    HW264282   2.595  11.466   6.150  0.7450  0.4127  2.1859
18118SOL     OW64283   9.048   9.931  10.396  0.5810  0.7620  0.4005
18118SOL    HW164284   9.094   9.903  10.317  0.3481 -3.3207  1.5053
18118SOL    HW264285   9.113   9.924  10.466 -0.2343  0.4759  1.1526
18119SOL     OW64286  10.230   8.515  12.020 -0.4427 -0.6360 -0.5391
18119SOL    HW164287  10.299   8.454  11.992 -1.2359 -0.4356 -3.1943
18119SOL    HW264288  10.248   8.531  12.112  1.8721 -2.1399 -0.6563
18120SOL     OW64289  11.479   9.295   7.001 -0.6409 -0.2574  0.1311
18120SOL    HW164290  11.471   9.356   7.074  1.0970 -0.6037  0.6680
18120SOL    HW264291  11.434   9.216   7.030 -1.7499  0.3003 -0.0347
18121SOL     OW64292  12.897   2.273   2.014 -0.7075 -0.2383 -0.0503
18121SOL    HW164293  12.858   2.325   2.084 -1.0732  0.5379 -0.8186
18121SOL    HW264294  12.903   2.332   1.939  3.1772  0.1519  0.3566
18122SOL     OW64295   2.145   6.189   8.525 -0.4543 -0.0326 -0.3295
18122SOL    HW164296   2.190   6.207   8.442 -0.7396  1.2809 -0.2149
18122SOL    HW264297   2.063   6.147   8.498 -1.0847  1.4347 -0.8232
18123SOL     OW64298   0.237   6.789   7.606  0.5549  0.3967  0.2954
18123SOL    HW164299   0.239   6.750   7.519  0.4350  0.9400  0.0435
18123SOL    HW264300   0.279   6.724   7.663 -0.5424 -0.5432  0.0719
18124SOL     OW64301  10.707   9.379   8.438 -0.1087 -0.0289  0.6449
18124SOL    HW164302  10.631   9.436   8.452 -0.8020 -0.6285 -0.5295
18124SOL    HW264303  10.734   9.397   8.348 -0.4783 -1.6994  0.1673
18125SOL     OW64304  11.114  10.035   1.319 -0.5147 -0.1210 -0.3144
18125SOL    HW164305  11.206  10.016   1.302  0.0833 -0.6646  2.8867
18125SOL    HW264306  11.110  10.130   1.327  0.2072 -0.1786  1.2328
18126SOL     OW64307   4.984   5.273   7.804 -0.4779  0.2121  0.3843
18126SOL    HW164308   4.983   5.369   7.796 -0.3340  0.1436 -0.5088
18126SOL    HW264309   4.916   5.243   7.743  1.1148 -0.3626 -1.2026
18127SOL     OW64310  12.267   7.807  12.599 -0.1380  0.4177 -0.4278
18127SOL    HW164311  12.188   7.859  12.582  0.5310  1.1011 -1.5827
18127SOL    HW264312  12.233   7.719  12.617 -1.1570  0.4319 -1.9906
18128SOL     OW64313   1.474  10.580  12.174  0.3534  0.7266  0.2752
18128SOL    HW164314   1.529  10.508  12.143 -1.3277  0.6570 -2.9522
18128SOL    HW264315   1.435  10.548  12.255  4.1235  0.4054  2.1547
18129SOL     OW64316   0.885  13.119   6.508 -0.4160  0.6930 -0.4736
18129SOL    HW164317   0.868  13.037   6.462 -2.0172  1.2310 -0.9098
18129SOL    HW264318   0.942  13.168   6.448  2.1232 -0.7864  0.6056
18130SOL     OW64319   9.709   1.923   3.555 -0.0838 -0.0064 -0.0058
18130SOL    HW164320   9.744   1.834   3.557 -1.2138 -0.4595  1.3160
18130SOL    HW264321   9.784   1.978   3.532  0.2894 -1.4158 -2.4980
18131SOL     OW64322  10.609   5.912   3.279 -0.4397  0.0959 -0.0901
18131SOL    HW164323  10.609   5.816   3.284  1.1251  0.1255  1.2261
18131SOL    HW264324  10.570   5.941   3.361 -1.6328  0.6237 -0.8105
18132SOL     OW64325   6.924  12.181   8.585 -0.1454  0.2601  0.6106
18132SOL    HW164326   6.897  12.091   8.604 -1.2494  0.3215 -0.5537
18132SOL    HW264327   7.016  12.184   8.611  0.3790 -1.6883 -0.7826
18133SOL     OW64328   6.088   7.449  11.736  0.0253  0.0852 -0.1946
18133SOL    HW164329   6.136   7.527  11.762  1.3394 -0.1950 -1.5980
18133SOL    HW264330   5.999   7.462  11.769  0.8074  1.0925  1.6002
18134SOL     OW64331   4.752   8.235   7.228 -0.2029 -0.2760  0.1666
18134SOL    HW164332   4.789   8.235   7.139 -3.1310  0.4309 -1.1890
18134SOL    HW264333   4.730   8.143   7.245 -1.6347 -0.1435 -0.8173
18135SOL     OW64334  12.305   1.816   1.525 -0.7109 -0.0082  0.3638
18135SOL    HW164335  12.394   1.821   1.491 -0.7490 -0.6576  0.1665
18135SOL    HW264336  12.249   1.827   1.448 -0.7998 -2.0306  0.0976
18136SOL     OW64337   6.986   5.859  11.823  0.2118  0.3857 -0.1430
18136SOL    HW164338   7.028   5.820  11.900  1.4131  0.8516 -0.5395
18136SOL    HW264339   6.984   5.789  11.758  1.3742  0.6381 -0.4809
18137SOL     OW64340   9.526  12.422  10.718 -0.5599  0.0889 -0.5846
18137SOL    HW164341   9.598  12.424  10.655  0.0230 -1.2782 -0.0206
18137SOL    HW264342   9.454  12.466  10.673  1.0905  3.1491 -0.4844
18138SOL     OW64343   4.912   6.804   4.117 -0.5487 -0.2474 -0.3011
18138SOL    HW164344   4.980   6.835   4.059 -1.0536 -0.6334 -1.1115
18138SOL    HW264345   4.846   6.873   4.116 -1.4713 -1.0944 -1.7650
18139SOL     OW64346   3.669   3.623   3.903 -0.0491  0.0044 -0.4669
18139SOL    HW164347   3.683   3.528   3.911 -0.7819 -0.0368  0.6131
18139SOL    HW264348   3.677   3.655   3.993  2.5715  1.3471 -1.0973
18140SOL     OW64349  12.713   5.788   3.023 -0.6946  0.0704  0.8586
18140SOL    HW164350  12.772   5.863   3.018 -1.4690  0.7162  1.0838
18140SOL    HW264351  12.627   5.825   3.001 -0.9777 -0.8878  0.3364
18141SOL     OW64352   7.959   7.907  12.907 -0.2773 -0.3779  0.4874
18141SOL    HW164353   7.970   7.859  12.825 -0.3988 -0.2403  0.3907
18141SOL    HW264354   8.046   7.940  12.927 -0.1849 -0.6640  0.5704
18142SOL     OW64355  11.358  12.724  10.654 -0.0330  0.0002 -0.3430
18142SOL    HW164356  11.360  12.708  10.560  0.5312 -0.3495 -0.2743
18142SOL    HW264357  11.410  12.654  10.692  2.1531  1.6879 -0.0047
18143SOL     OW64358   6.565   0.231   2.280  0.1617  0.1896 -0.3022
18143SOL    HW164359   6.522   0.171   2.220 -1.6573  1.1023  0.0340
18143SOL    HW264360   6.558   0.190   2.366 -2.2724  1.3779  0.1555
18144SOL     OW64361   3.667   5.095  10.689  0.1142 -0.1780  0.7240
18144SOL    HW164362   3.640   5.186  10.678 -0.2983 -0.5132 -1.3292
18144SOL    HW264363   3.761   5.096  10.673  0.3548  0.0493  1.9941
18145SOL     OW64364  13.123   9.164   4.302  0.2592 -0.0571 -0.0642
18145SOL    HW164365  13.040   9.212   4.295 -0.2872 -1.1911 -3.0289
18145SOL    HW264366  13.100   9.084   4.350 -0.5130 -0.5483 -1.2002
18146SOL     OW64367  12.720  11.513  10.766 -0.5239  0.1139 -0.4431
18146SOL    HW164368  12.625  11.513  10.752 -0.4862  0.1051 -0.7095
18146SOL    HW264369  12.732  11.549  10.853 -0.7926 -0.1933 -0.2760
18147SOL     OW64370   3.813  10.026   8.572 -0.1038 -0.3691 -0.3939
18147SOL    HW164371   3.720  10.033   8.548 -0.4482 -1.3156  0.5867
18147SOL    HW264372   3.812   9.998   8.663  1.1612 -0.1457 -0.2930
18148SOL     OW64373   6.465   8.414   1.252  0.0631  0.0968  0.7226
18148SOL    HW164374   6.453   8.356   1.327 -0.1092 -0.9451 -0.0909
18148SOL    HW264375   6.554   8.396   1.222  0.2026  0.6551  0.7902
18149SOL     OW64376   3.674   1.971   0.593 -0.0406  0.2522  0.0558
18149SOL    HW164377   3.602   1.972   0.529 -0.9085  1.8561  0.9972
18149SOL    HW264378   3.729   2.045   0.568 -0.1644  0.6375  0.8971
18150SOL     OW64379   0.019   1.366   3.625  0.2769 -0.1985 -0.5887
18150SOL    HW164380  -0.033   1.303   3.575  1.2855 -0.3326 -1.5016
18150SOL    HW264381   0.098   1.318   3.649  0.3863  0.2703  0.0085
18151SOL     OW64382   6.681  11.882   6.988 -0.5614  0.0987  0.1304
18151SOL    HW164383   6.669  11.900   7.082 -1.2272 -0.9299  0.2483
18151SOL    HW264384   6.659  11.790   6.978 -0.2886  0.1481 -1.0144
18152SOL     OW64385   6.428  11.007   1.492 -0.0640 -0.2788  0.3070
18152SOL    HW164386   6.520  10.985   1.477 -0.6928 -2.8396 -0.2028
18152SOL    HW264387   6.402  11.055   1.414  0.7048  0.0521  0.2441
18153SOL     OW64388  11.549  10.957  10.012 -0.5393  0.9989 -0.1076
18153SOL    HW164389  11.481  10.946  10.078 -1.4164  0.2786 -1.0962
18153SOL    HW264390  11.572  11.050  10.015 -2.1117  1.4178 -0.2669
18154SOL     OW64391   6.768   1.850   8.385 -0.0133  0.3270 -0.6586
18154SOL    HW164392   6.713   1.838   8.308 -0.0982 -0.4078 -0.4943
18154SOL    HW264393   6.806   1.764   8.401  1.6117  0.9371 -1.0822
18155SOL     OW64394   5.532   2.384   2.321  0.1017 -0.2322 -0.1002
18155SOL    HW164395   5.542   2.430   2.404  0.5971  0.9096 -0.7685
18155SOL    HW264396   5.621   2.359   2.296  0.1116  0.5101 -0.8609
18156SOL     OW64397   8.910   6.055  11.897  0.0615  0.2374  0.2447
18156SOL    HW164398   8.852   6.112  11.947  1.6814  2.0043  0.2302
18156SOL    HW264399   8.991   6.052  11.948  1.4471  1.3791 -1.7326
18157SOL     OW64400   4.140   4.440   4.487 -0.5450  0.5614  0.2233
18157SOL    HW164401   4.184   4.442   4.571  0.8759  0.5898 -0.4933
18157SOL    HW264402   4.157   4.352   4.453 -1.7202  0.3025  0.2649
18158SOL     OW64403   9.566   8.014   6.566 -0.1849  0.2996  0.1633
18158SOL    HW164404   9.497   7.988   6.627  1.0923 -0.1851  1.4536
18158SOL    HW264405   9.611   7.933   6.545  0.9444  0.8052  0.5733
18159SOL     OW64406   5.756   4.016   3.107 -0.2939 -0.0342 -0.3393
18159SOL    HW164407   5.670   3.981   3.128 -1.0738  0.6930 -2.0980
18159SOL    HW264408   5.805   4.013   3.190 -2.7778  1.7674  1.3427
18160SOL     OW64409   4.602   8.598  11.840 -0.5151  0.2888  0.1079
18160SOL    HW164410   4.533   8.568  11.899 -1.3743  0.7471 -0.6483
18160SOL    HW264411   4.598   8.539  11.765 -0.3186  0.5310 -0.0990
18161SOL     OW64412  11.595   2.722   5.370 -0.2981 -0.0816 -0.0122
18161SOL    HW164413  11.560   2.669   5.299  3.7740 -0.2283 -2.1812
18161SOL    HW264414  11.553   2.807   5.359 -1.3025 -0.7022 -1.2377
18162SOL     OW64415   7.360  12.665   5.818 -0.0493  0.1481  0.0940
18162SOL    HW164416   7.319  12.624   5.895 -0.0900  1.5614  0.8753
18162SOL    HW264417   7.381  12.592   5.760 -1.1319 -0.8636  0.9106
18163SOL     OW64418  12.298   3.221   4.505  0.1599  0.2026  0.0386
18163SOL    HW164419  12.277   3.128   4.499  0.2358  0.1819  0.0937
18163SOL    HW264420  12.328   3.244   4.417 -0.1949  0.2570 -0.0695
18164SOL     OW64421   4.080   6.243   7.834 -0.4683 -0.0559 -0.2453
18164SOL    HW164422   3.999   6.281   7.801  0.0052  1.3822  0.1798
18164SOL    HW264423   4.056   6.202   7.917 -0.6962  0.7502  0.0996
18165SOL     OW64424   4.340   2.036   5.128 -0.0336 -0.1567 -0.1349
18165SOL    HW164425   4.252   2.050   5.162  0.8859 -0.8620  2.8286
18165SOL    HW264426   4.370   2.124   5.104 -0.6014  0.4982  1.4272
18166SOL     OW64427   4.273   7.936   2.295  0.1559  0.0646 -0.5561
18166SOL    HW164428   4.272   8.032   2.297  0.7787  0.1204  3.1193
18166SOL    HW264429   4.205   7.910   2.357  1.1319 -1.8051 -0.2056
18167SOL     OW64430  12.673  13.264   5.338  0.1665 -0.8639  0.7956
18167SOL    HW164431  12.738  13.300   5.398  0.4459 -0.3114  0.1682
18167SOL    HW264432  12.713  13.272   5.252 -1.5569  1.5301  0.1025
18168SOL     OW64433  11.434   4.290  11.415 -0.4098 -0.1340  0.3857
18168SOL    HW164434  11.366   4.344  11.374 -1.2289  0.4664  2.4511
18168SOL    HW264435  11.500   4.353  11.443  0.2393 -0.5642 -0.1307
18169SOL     OW64436   6.167  10.337  10.328 -0.8765  0.0415  0.3663
18169SOL    HW164437   6.244  10.281  10.315 -0.9896 -0.0099 -0.1050
18169SOL    HW264438   6.198  10.424  10.305 -1.3942 -0.2258 -1.4601
18170SOL     OW64439   2.992   6.821   5.552 -0.4334  0.2680 -0.0500
18170SOL    HW164440   2.900   6.798   5.566 -0.7551  1.0496 -0.8143
18170SOL    HW264441   3.039   6.776   5.623 -1.2996 -0.7903 -0.1212
18171SOL     OW64442  10.515   8.000   1.534 -0.4325  0.0704  0.5715
18171SOL    HW164443  10.472   8.040   1.609  0.1249  1.1013  0.3650
18171SOL    HW264444  10.450   7.941   1.497 -0.6338 -0.6243  1.9872
18172SOL     OW64445   6.536   2.337   3.185  0.0672  0.2980 -0.4870
18172SOL    HW164446   6.470   2.373   3.244  0.3799 -0.1973  0.1782
18172SOL    HW264447   6.490   2.327   3.102 -1.4867 -2.4328  0.5812
18173SOL     OW64448   2.558   9.195   9.656  0.0689 -0.5463 -0.4629
18173SOL    HW164449   2.514   9.129   9.708  1.5299 -0.9271  0.3548
18173SOL    HW264450   2.642   9.155   9.631  0.2014  0.3200 -1.5240
18174SOL     OW64451   8.792   0.089  12.061 -0.2100  0.0132 -0.0459
18174SOL    HW164452   8.798   0.030  12.136 -0.5275  0.0292 -0.0062
18174SOL    HW264453   8.859   0.156  12.077  0.5168 -0.6152 -0.3463
18175SOL     OW64454  12.562  11.826  12.509  0.1355 -0.5691  0.3088
18175SOL    HW164455  12.491  11.889  12.518  0.3168 -0.4428  0.9040
18175SOL    HW264456  12.582  11.825  12.416 -0.6240 -0.5833  0.1369
18176SOL     OW64457  12.941   4.964   2.657 -0.1310  0.5221  0.3175
18176SOL    HW164458  12.891   4.882   2.658  0.8601 -0.1689 -1.6469
18176SOL    HW264459  12.877   5.029   2.627 -0.6695  0.2813  0.9155
18177SOL     OW64460   9.772   9.587  11.903 -0.2081  0.3008 -0.2875
18177SOL    HW164461   9.706   9.544  11.957 -0.5752  0.8537 -0.2819
18177SOL    HW264462   9.737   9.584  11.815  0.5027 -0.8161 -0.5593
18178SOL     OW64463  10.769   0.945  11.024 -0.0779 -0.2336  0.4295
18178SOL    HW164464  10.780   0.919  11.116  0.8638 -0.5526  0.2411
18178SOL    HW264465  10.757   1.040  11.027 -0.5748 -0.3044  0.9164
18179SOL     OW64466   4.126  11.457   7.016 -0.3803 -0.2635 -0.2051
18179SOL    HW164467   4.221  11.444   7.024 -0.1478  1.3208  0.0288
18179SOL    HW264468   4.097  11.474   7.106 -0.7618 -0.0013 -0.3764
18180SOL     OW64469   6.534   4.827  11.444 -0.0707 -0.0666  0.4282
18180SOL    HW164470   6.601   4.894  11.453  1.4263 -1.5291  0.6743
18180SOL    HW264471   6.510   4.828  11.351 -0.2356  0.9224  0.4722
18181SOL     OW64472  11.745   8.804  11.661 -0.0068  0.1606  0.5683
18181SOL    HW164473  11.743   8.768  11.572  0.3465 -0.4995  0.8238
18181SOL    HW264474  11.766   8.730  11.717  1.2540  0.8560  1.0547
18182SOL     OW64475  10.460   6.713   2.748 -1.0366  0.3758  0.3004
18182SOL    HW164476  10.527   6.645   2.737 -0.5896  1.0293 -1.2397
18182SOL    HW264477  10.498   6.775   2.809 -1.1850 -0.4130  1.2140
18183SOL     OW64478  11.404  10.804   8.489  0.2741  0.1012 -0.1762
18183SOL    HW164479  11.441  10.835   8.571  0.3825  0.1144 -0.2292
18183SOL    HW264480  11.479  10.773   8.439  0.0826 -1.1016  0.2390
18184SOL     OW64481  12.848   1.950  13.270 -0.2945 -0.1923 -0.0657
18184SOL    HW164482  12.833   1.856  13.275 -1.5425 -0.0221 -0.3709
18184SOL    HW264483  12.789   1.980  13.201 -2.6464  1.3424  2.4137
18185SOL     OW64484   6.045   5.234   1.004 -0.0928  0.9911 -0.1507
18185SOL    HW164485   5.981   5.257   1.072 -2.2585  1.4836 -2.2002
18185SOL    HW264486   6.044   5.310   0.946 -0.6648 -0.6066 -2.3403
18186SOL     OW64487   6.224   7.863  12.765 -0.5381 -0.5454  0.6316
18186SOL    HW164488   6.281   7.802  12.718 -1.6630 -1.6578  0.6410
18186SOL    HW264489   6.224   7.830  12.855 -1.2479 -0.6143  0.6108
18187SOL     OW64490   7.601   6.345   1.426  0.7649  0.3545 -0.9895
18187SOL    HW164491   7.666   6.362   1.358  1.6832 -2.0094 -0.7827
18187SOL    HW264492   7.639   6.276   1.480 -0.9464  0.5112  0.5399
18188SOL     OW64493   7.084   3.796   3.603 -0.3748  0.1793  0.0755
18188SOL    HW164494   7.170   3.757   3.617 -0.4288  0.1210  0.2527
18188SOL    HW264495   7.033   3.770   3.680 -0.3012  0.9003  0.3723
18189SOL     OW64496  11.491   0.901   2.477  0.0167 -0.2395 -0.0267
18189SOL    HW164497  11.563   0.957   2.447  0.2025  0.2937  1.3270
18189SOL    HW264498  11.420   0.962   2.496 -1.0017 -0.8030 -1.8029
18190SOL     OW64499   9.267   9.850   3.213  0.2274  0.3464  0.4029
18190SOL    HW164500   9.317   9.924   3.245 -0.9048  0.2478  2.5955
18190SOL    HW264501   9.182   9.858   3.255 -0.5562 -1.2003 -0.7609
18191SOL     OW64502   9.179   4.326   0.692 -0.0396 -0.1089  0.1537
18191SOL    HW164503   9.262   4.287   0.666 -0.6606 -0.5918 -1.2444
18191SOL    HW264504   9.201   4.383   0.765  1.4838 -0.3766 -0.0541
18192SOL     OW64505  11.228   9.527   3.997  0.5513 -0.1284  0.1925
18192SOL    HW164506  11.299   9.588   3.977 -0.1678  0.7744  0.3526
18192SOL    HW264507  11.272   9.449   4.031  1.4404  0.5702  0.6568
18193SOL     OW64508  11.277   9.076   0.090  0.5456 -0.0605  0.2588
18193SOL    HW164509  11.210   9.140   0.116  1.4793  2.0233 -2.0687
18193SOL    HW264510  11.244   9.037   0.010  0.9856 -0.9390  0.4892
18194SOL     OW64511   5.901   3.860   2.428  0.5070  0.1558 -0.0620
18194SOL    HW164512   5.873   3.841   2.517 -1.5756  2.3068 -0.1780
18194SOL    HW264513   5.860   3.791   2.375  0.3181 -0.1128  0.4278
18195SOL     OW64514   0.932   0.080   7.650 -0.5760 -0.5133 -0.2000
18195SOL    HW164515   0.865   0.079   7.718 -0.4905 -0.7270 -0.1166
18195SOL    HW264516   0.991   0.008   7.674 -1.3306 -1.5412 -1.2829
18196SOL     OW64517  12.268   9.573   4.461  0.3883  0.2835  0.1855
18196SOL    HW164518  12.338   9.601   4.403 -0.1286  0.7732 -0.2172
18196SOL    HW264519  12.188   9.588   4.411  0.0362 -1.2528  0.2346
18197SOL     OW64520   7.273   2.120   7.065 -0.3158 -0.2213  0.2751
18197SOL    HW164521   7.184   2.132   7.096  0.7553  0.4214  3.3741
18197SOL    HW264522   7.278   2.026   7.043 -1.3702 -0.5547  1.3810
18198SOL     OW64523   1.516   4.249  11.984 -0.3392 -0.4379 -0.4289
18198SOL    HW164524   1.565   4.168  11.994  0.7647  0.2420 -0.2034
18198SOL    HW264525   1.433   4.231  12.028 -0.2220 -1.5199 -0.6041
18199SOL     OW64526  12.796   2.258   7.234 -0.1624  0.6113 -0.0033
18199SOL    HW164527  12.764   2.201   7.165  0.1942 -0.5914  0.8038
18199SOL    HW264528  12.892   2.250   7.230 -0.0581 -3.2744  3.5787
18200SOL     OW64529   3.972   1.058   7.611 -0.1644  0.1391  0.1840
18200SOL    HW164530   3.993   1.124   7.545  3.7815 -0.6567  0.4451
18200SOL    HW264531   3.983   0.974   7.566 -2.2750 -0.4658  0.6423
18201SOL     OW64532  11.250   1.262   4.204  0.1784 -0.0388 -0.3024
18201SOL    HW164533  11.314   1.329   4.226 -0.4088  0.1432  0.9177
18201SOL    HW264534  11.187   1.307   4.147  0.4282  0.1285 -0.4471
18202SOL     OW64535   7.436   7.258   0.211 -0.5448 -0.4643 -0.7871
18202SOL    HW164536   7.466   7.266   0.302 -2.0585  0.4158 -0.3283
18202SOL    HW264537   7.491   7.320   0.162 -1.6185  1.2455  0.0594
18203SOL     OW64538  13.058  10.324   0.926  0.3542 -0.4144  0.0680
18203SOL    HW164539  13.076  10.243   0.973  0.2558  0.3224  1.4477
18203SOL    HW264540  13.040  10.297   0.836  1.9395 -1.7582  0.1208
18204SOL     OW64541   9.459  12.191   4.257  0.0972 -0.4049  0.1942
18204SOL    HW164542   9.479  12.266   4.201 -1.4689 -0.0985 -0.0122
18204SOL    HW264543   9.517  12.122   4.226  1.3428  0.6155  0.1714
18205SOL     OW64544   5.551   2.475  11.563 -0.2045  0.2807 -0.2218
18205SOL    HW164545   5.495   2.477  11.641 -0.0419  1.9768 -0.1039
18205SOL    HW264546   5.491   2.488  11.490 -0.3342 -1.1323 -0.3885
18206SOL     OW64547   1.504   7.349  12.400 -0.3872 -0.2501  0.3455
18206SOL    HW164548   1.432   7.376  12.344  0.4405  0.4189 -0.4283
18206SOL    HW264549   1.567   7.308  12.341 -0.2403 -1.0682  1.0484
18207SOL     OW64550   6.321   0.112   1.969 -0.0891 -0.9577  0.5837
18207SOL    HW164551   6.288   0.201   1.962 -0.2332 -1.0170  0.5060
18207SOL    HW264552   6.396   0.109   1.909 -0.8008 -1.2205 -0.3116
18208SOL     OW64553   2.010   1.679  11.197 -0.1894 -0.6377 -0.5484
18208SOL    HW164554   1.982   1.666  11.288  1.4894 -0.2379  0.0552
18208SOL    HW264555   1.931   1.661  11.145 -1.8296  1.3084  1.1000
18209SOL     OW64556   2.777   3.186   2.372  0.2801 -0.1446  0.0101
18209SOL    HW164557   2.690   3.149   2.389  0.5155 -2.0365 -2.3267
18209SOL    HW264558   2.835   3.140   2.432  0.0574 -1.0428 -0.4457
18210SOL     OW64559   9.028   8.700   3.568  0.1477 -0.0899  0.1394
18210SOL    HW164560   8.986   8.772   3.522  0.0971 -0.8245 -1.0067
18210SOL    HW264561   8.965   8.629   3.566  1.5251 -1.3571 -2.0029
18211SOL     OW64562   2.494  11.155   4.582  0.6141 -0.4419 -0.0552
18211SOL    HW164563   2.437  11.092   4.627 -1.0007  1.5974  0.9664
18211SOL    HW264564   2.555  11.184   4.650 -1.1126  1.8191  0.6539
18212SOL     OW64565   8.644   9.469  10.040  0.2748 -1.1935  0.2191
18212SOL    HW164566   8.586   9.545  10.040 -1.3252 -2.2028  3.4487
18212SOL    HW264567   8.718   9.496  10.095 -0.7505 -2.1416  2.1692
18213SOL     OW64568  11.973   0.376   9.514  0.1038  0.6152  0.2768
18213SOL    HW164569  11.882   0.356   9.535  0.3491  1.3963  2.3438
18213SOL    HW264570  11.992   0.456   9.563  1.4530  1.4114 -1.4112
18214SOL     OW64571   4.984   5.436   9.373  0.0503  0.0726 -0.1258
18214SOL    HW164572   5.065   5.480   9.400  0.1115 -0.5075  0.6420
18214SOL    HW264573   4.992   5.347   9.407 -2.2477  0.7880  2.7024
18215SOL     OW64574  12.863  11.891  11.265  0.2786  0.8214 -0.2634
18215SOL    HW164575  12.788  11.916  11.318  0.4012  0.2879  0.1730
18215SOL    HW264576  12.919  11.841  11.325  0.7343  0.7799 -0.7189
18216SOL     OW64577   5.790   0.263   7.248 -0.8783 -0.1603 -0.0782
18216SOL    HW164578   5.757   0.321   7.179  1.5407  1.6207  0.1424
18216SOL    HW264579   5.777   0.312   7.329 -0.9877 -0.9937  0.4242
18217SOL     OW64580   4.322  11.734  10.320 -0.6309 -0.3028  0.2477
18217SOL    HW164581   4.379  11.810  10.326 -2.3161  0.8839  2.4672
18217SOL    HW264582   4.363  11.679  10.253  0.4644  2.6516 -1.6977
18218SOL     OW64583   3.758   9.353   7.398 -0.5779  0.4448 -0.1162
18218SOL    HW164584   3.765   9.445   7.373  0.4222  0.2870 -0.4552
18218SOL    HW264585   3.709   9.313   7.326 -3.3862  1.1614  1.2604
18219SOL     OW64586   8.095   2.246  12.332  0.4262  0.7678  0.1120
18219SOL    HW164587   8.133   2.333  12.323  0.9678  0.5310  0.0162
18219SOL    HW264588   8.006   2.261  12.361  0.7655  1.3277  0.8925
18220SOL     OW64589   8.984   0.434   6.721 -0.1455  0.0058 -0.1539
18220SOL    HW164590   9.028   0.407   6.802 -0.9167  0.7151  0.5253
18220SOL    HW264591   8.964   0.352   6.676  1.5693 -0.3413 -0.3338
18221SOL     OW64592   7.611   3.050   7.424 -0.1495 -0.3088 -0.0647
18221SOL    HW164593   7.607   2.958   7.398  1.2630 -0.8968  1.6296
18221SOL    HW264594   7.689   3.056   7.478 -0.8868  1.6408  0.8534
18222SOL     OW64595   4.408   8.095   8.684 -0.0288  0.2140  0.0579
18222SOL    HW164596   4.383   8.187   8.695  1.3563  0.4688  1.3691
18222SOL    HW264597   4.329   8.047   8.710 -0.8809  1.0082 -0.9598
18223SOL     OW64598   0.121   3.269   9.238  0.1254 -0.0216  0.2970
18223SOL    HW164599   0.209   3.295   9.210 -0.2846 -0.2631 -1.3268
18223SOL    HW264600   0.085   3.346   9.281  2.6933 -1.1812  5.2635
18224SOL     OW64601   9.215   1.596   1.894 -0.3845 -0.1822  0.1983
18224SOL    HW164602   9.176   1.529   1.951 -0.3290  0.6626  1.2496
18224SOL    HW264603   9.234   1.549   1.812 -0.3651 -1.4481  0.8995
18225SOL     OW64604   3.744  13.045   3.107 -0.0357  0.2489  0.1329
18225SOL    HW164605   3.651  13.027   3.121 -0.9230  4.3691  0.7283
18225SOL    HW264606   3.748  13.079   3.018  1.0558 -0.4668 -0.1075
18226SOL     OW64607   6.146   2.288   0.940 -0.7099  0.7890 -0.6052
18226SOL    HW164608   6.232   2.327   0.923 -0.5903  1.1842  0.7610
18226SOL    HW264609   6.151   2.201   0.902  1.0502  0.0240  1.2048
18227SOL     OW64610   8.260   7.818   9.249  0.2403  0.8131  0.2278
18227SOL    HW164611   8.206   7.768   9.187 -1.2109 -1.0702  2.7825
18227SOL    HW264612   8.349   7.788   9.232 -0.3542 -1.1612  0.2876
18228SOL     OW64613   3.276   4.936   7.639 -0.2109  0.7109 -0.0230
18228SOL    HW164614   3.241   4.866   7.585 -1.1793  1.7054 -0.7285
18228SOL    HW264615   3.199   4.977   7.679  0.4232  0.6037  1.3749
18229SOL     OW64616   7.974   1.959   0.692  0.3177  0.2232 -0.2758
18229SOL    HW164617   7.974   1.897   0.765  0.0152 -1.1699 -1.4095
18229SOL    HW264618   8.008   1.909   0.617 -0.4647  1.2474 -1.3614
18230SOL     OW64619   4.867   5.761  11.133 -0.7355 -0.8674  0.8351
18230SOL    HW164620   4.850   5.751  11.039  0.7520 -0.9332  0.5522
18230SOL    HW264621   4.898   5.675  11.161  0.0858 -0.4954  1.0945
18231SOL     OW64622   2.015   1.371  12.718  0.1873  0.2038 -0.4488
18231SOL    HW164623   2.037   1.462  12.695  0.0290  0.1251 -0.9123
18231SOL    HW264624   1.979   1.334  12.638 -0.3805 -0.0703 -0.0696
18232SOL     OW64625   4.653   2.777   9.323 -0.5393  0.1325 -0.0478
18232SOL    HW164626   4.701   2.768   9.405 -1.3646 -0.5995  0.3670
18232SOL    HW264627   4.662   2.693   9.279  1.6233  1.1266 -1.7232
18233SOL     OW64628   1.301  12.377   0.299  0.2545  0.0563  0.2187
18233SOL    HW164629   1.268  12.364   0.388  0.7034 -2.4028  0.1086
18233SOL    HW264630   1.349  12.296   0.280 -2.1133 -0.7392 -3.2667
18234SOL     OW64631  11.046   4.741   4.413  0.1627  0.5187  0.4052
18234SOL    HW164632  10.958   4.741   4.377  0.4851 -1.0398 -0.4996
18234SOL    HW264633  11.063   4.649   4.434  2.0715  0.5178 -0.8213
18235SOL     OW64634   8.053  11.376   3.918  0.0521 -0.1160  0.4362
18235SOL    HW164635   8.090  11.423   3.993 -0.7641 -1.5337  1.7857
18235SOL    HW264636   7.963  11.408   3.911  0.6223  1.3369 -1.1449
18236SOL     OW64637   2.548   7.740   1.746  0.0520 -0.5619 -0.3251
18236SOL    HW164638   2.562   7.754   1.840  3.1494 -0.3861 -0.7320
18236SOL    HW264639   2.545   7.645   1.736  1.9911 -0.6524 -0.2807
18237SOL     OW64640   4.059   5.830   5.563  0.3037 -0.4059 -0.2426
18237SOL    HW164641   3.992   5.781   5.611  1.9945 -1.3450  1.2496
18237SOL    HW264642   4.115   5.763   5.525  1.5869  0.3380  0.2719
18238SOL     OW64643  13.099   8.724   1.401 -0.3737 -0.0232 -0.0318
18238SOL    HW164644  13.035   8.722   1.330 -0.5720 -0.6189  0.1584
18238SOL    HW264645  13.079   8.805   1.448  0.4578  0.9576 -1.2724
18239SOL     OW64646   1.195   9.061  12.307 -0.5575 -0.2717  0.2332
18239SOL    HW164647   1.138   8.996  12.264 -0.4463 -1.3372  1.6268
18239SOL    HW264648   1.223   9.018  12.388  0.8348  0.9199  0.4119
18240SOL     OW64649  11.180   6.802   1.751 -0.1915  0.4080  0.3608
18240SOL    HW164650  11.121   6.738   1.790  0.8276 -0.2377  0.8909
18240SOL    HW264651  11.147   6.815   1.662  0.0613 -1.4887 -0.0451
18241SOL     OW64652   5.059  12.206   3.508  0.1606  0.6868  0.4374
18241SOL    HW164653   5.080  12.276   3.446 -2.3401  0.8620 -0.3295
18241SOL    HW264654   4.997  12.247   3.569 -2.0205 -1.0124 -0.5217
18242SOL     OW64655  10.004   9.303  10.838  0.7174  0.2987  0.2503
18242SOL    HW164656   9.918   9.268  10.815  0.6956  0.7555 -0.3874
18242SOL    HW264657  10.064   9.230  10.825  0.7374  0.5874 -1.5080
18243SOL     OW64658   6.179  11.001   4.524 -0.2991 -0.1887  0.2357
18243SOL    HW164659   6.194  10.958   4.609 -2.3347 -1.2564  0.1084
18243SOL    HW264660   6.187  10.930   4.460  4.0648  1.0535 -0.9224
18244SOL     OW64661  11.317   7.505   6.675  0.2398 -0.2586 -0.8106
18244SOL    HW164662  11.281   7.594   6.684  1.0480 -0.0606  0.9462
18244SOL    HW264663  11.354   7.486   6.761  1.6449 -1.6235 -1.6684
18245SOL     OW64664  10.039   9.579   8.467  0.3272  0.3291 -0.0585
18245SOL    HW164665  10.083   9.539   8.392 -0.5652 -0.4337 -0.1987
18245SOL    HW264666   9.948   9.551   8.459 -0.2330  1.9968  0.1380
18246SOL     OW64667   9.872   2.843  13.300  0.2373  0.1358  0.3822
18246SOL    HW164668   9.810   2.778  13.266  0.6823  0.0802 -0.3316
18246SOL    HW264669   9.929   2.793  13.358  0.3229 -0.0364  0.1524
18247SOL     OW64670  13.144   5.362  10.390  0.5846  0.1958  0.2239
18247SOL    HW164671  13.234   5.369  10.360  0.5987  1.2159  0.4470
18247SOL    HW264672  13.128   5.268  10.400  0.5157 -0.2521 -3.0811
18248SOL     OW64673  11.021  11.624   9.732  0.3371 -0.3975 -0.5306
18248SOL    HW164674  11.095  11.655   9.681  1.9294 -1.7857  0.8159
18248SOL    HW264675  11.033  11.529   9.736  0.0742 -0.3859  2.0551
18249SOL     OW64676  13.218  10.895   3.404 -0.2333 -0.3239  0.3099
18249SOL    HW164677  13.266  10.815   3.383  0.7319 -0.0639  1.4313
18249SOL    HW264678  13.286  10.958   3.426 -1.0319  0.5327  0.3560
18250SOL     OW64679  10.293   4.842  10.867  0.1478 -0.8918 -0.2469
18250SOL    HW164680  10.299   4.932  10.833  0.1648 -0.5959  0.5113
18250SOL    HW264681  10.248   4.793  10.798 -0.7065 -0.0877 -0.2815
18251SOL     OW64682   5.990   8.240  11.010 -0.2300  0.6983 -0.6321
18251SOL    HW164683   5.896   8.257  11.000 -0.4184  1.9708  2.2122
18251SOL    HW264684   6.032   8.317  10.972 -0.4106  0.6962 -0.8374
18252SOL     OW64685  11.423   6.864   4.950 -0.1982  0.0045 -0.2922
18252SOL    HW164686  11.381   6.950   4.957 -2.9423 -1.0837 -1.7941
18252SOL    HW264687  11.362   6.805   4.994  0.6715 -1.4526 -1.0007
18253SOL     OW64688   8.240  13.036   8.750 -0.3129  0.5898  0.3527
18253SOL    HW164689   8.152  13.016   8.781 -0.0580 -0.2593  0.5706
18253SOL    HW264690   8.275  13.098   8.814  0.3284 -1.3870  2.0496
18254SOL     OW64691  11.908   3.867  11.766  0.3428  0.1688 -0.2512
18254SOL    HW164692  11.939   3.789  11.813 -0.3413 -0.0215 -0.1085
18254SOL    HW264693  11.949   3.940  11.813 -1.1796  0.0578  1.3576
18255SOL     OW64694   2.137   1.123  12.353  0.9455  0.1674  0.1092
18255SOL    HW164695   2.232   1.133  12.360  0.7894  1.4472  0.7522
18255SOL    HW264696   2.102   1.176  12.425 -0.2658  0.0776 -0.3904
18256SOL     OW64697   8.293   0.610  10.319  0.3716 -0.0514 -0.0877
18256SOL    HW164698   8.351   0.542  10.356  0.3150 -0.0489  0.0066
18256SOL    HW264699   8.274   0.667  10.393  1.8501  1.0892 -0.5441
18257SOL     OW64700   6.214   7.944  10.422  0.1408 -0.1309 -0.3495
18257SOL    HW164701   6.187   8.027  10.461 -1.2556  0.3066 -2.0952
18257SOL    HW264702   6.150   7.881  10.455  1.3929 -0.6196  1.2312
18258SOL     OW64703   7.544   0.166   9.168 -0.2205 -0.1946  0.2218
18258SOL    HW164704   7.502   0.251   9.157 -1.6173 -0.9517 -0.4406
18258SOL    HW264705   7.595   0.154   9.088  0.1628  0.1030  0.4149
18259SOL     OW64706   3.703   2.669   8.565  0.3582 -0.0190  0.2157
18259SOL    HW164707   3.750   2.587   8.583  0.7273  0.0290 -0.4907
18259SOL    HW264708   3.698   2.673   8.470 -1.4471 -0.2208  0.2688
18260SOL     OW64709   9.920   3.521  12.779  0.0133  0.3428 -0.5416
18260SOL    HW164710   9.997   3.547  12.728 -0.2094  0.3290 -0.8830
18260SOL    HW264711   9.892   3.438  12.741  0.8944 -0.5938  0.7260
18261SOL     OW64712   8.629  12.514   7.796  0.2418 -0.4060 -0.5646
18261SOL    HW164713   8.650  12.598   7.754 -1.0880  0.2968  0.1207
18261SOL    HW264714   8.558  12.478   7.743  0.3281 -0.7654 -0.4381
18262SOL     OW64715   6.372   9.440  11.499  0.1745 -0.2238 -0.7371
18262SOL    HW164716   6.377   9.350  11.531 -1.1342 -0.0482  0.0011
18262SOL    HW264717   6.284   9.449  11.463 -0.5683  1.4134  1.2861
18263SOL     OW64718   6.815   3.381   7.693  0.3678  0.1780  0.0579
18263SOL    HW164719   6.725   3.367   7.664  0.6208 -0.8230 -0.2555
18263SOL    HW264720   6.806   3.412   7.783 -0.2808 -0.2756  0.1571
18264SOL     OW64721  10.223   7.374   8.207  0.1772 -0.0157  0.1745
18264SOL    HW164722  10.198   7.465   8.222  0.1881 -0.1581  1.1277
18264SOL    HW264723  10.148   7.323   8.236  0.3994 -0.3319  0.2036
18265SOL     OW64724   3.727   6.865   4.249  0.1841  0.4709  0.1496
18265SOL    HW164725   3.758   6.847   4.160  1.8835  1.4358  0.5071
18265SOL    HW264726   3.667   6.939   4.239 -0.8092 -0.3704 -0.3479
18266SOL     OW64727  11.056  10.474   6.504 -0.3574 -0.7272 -0.0558
18266SOL    HW164728  10.987  10.452   6.442 -1.4436 -0.2932  0.9580
18266SOL    HW264729  11.041  10.416   6.579  0.8549 -1.1656 -0.1358
18267SOL     OW64730   0.484  10.676   9.031  0.4325 -0.0859 -0.0499
18267SOL    HW164731   0.530  10.668   9.114  0.6139 -0.0248 -0.1424
18267SOL    HW264732   0.413  10.612   9.035  0.7618 -0.4500 -0.0629
18268SOL     OW64733  11.520   7.193   9.429 -0.5085  0.0900 -0.1515
18268SOL    HW164734  11.437   7.223   9.466 -0.3423  0.0589  0.2447
18268SOL    HW264735  11.528   7.241   9.346 -2.2978 -1.9403 -1.6378
18269SOL     OW64736   0.340  10.983   0.070  0.2741 -0.5054 -0.3980
18269SOL    HW164737   0.281  11.015   0.002  0.2670 -0.5918 -0.4334
18269SOL    HW264738   0.326  10.888   0.071  0.7999 -0.5888 -0.7716
18270SOL     OW64739  11.168   1.470   1.996 -0.0283 -0.5612 -0.1347
18270SOL    HW164740  11.244   1.431   2.040  0.2214 -1.4222 -1.2701
18270SOL    HW264741  11.206   1.521   1.924 -0.4564  0.3991  0.3083
18271SOL     OW64742   4.993  12.185   9.923  0.0482  0.4666 -0.0931
18271SOL    HW164743   5.001  12.132   9.844 -2.5754  0.9103 -0.7800
18271SOL    HW264744   5.031  12.269   9.900 -3.6389  1.7934 -2.3130
18272SOL     OW64745  12.267   9.039   9.107 -0.4507  0.7075  0.0482
18272SOL    HW164746  12.337   9.101   9.087  2.2535 -1.8946  0.7472
18272SOL    HW264747  12.243   9.001   9.022 -0.2326  0.8408 -0.0725
18273SOL     OW64748   0.022   8.480  13.231 -0.1981  0.2664 -0.1490
18273SOL    HW164749   0.026   8.417  13.160  0.0756  0.0705  0.0356
18273SOL    HW264750   0.113   8.486  13.263 -0.4905 -0.4593  0.8763
18274SOL     OW64751  10.336   1.546   2.419  0.1487 -0.2720  0.0111
18274SOL    HW164752  10.394   1.621   2.432  1.6706 -1.1806 -1.1044
18274SOL    HW264753  10.298   1.561   2.332 -2.1556  0.7917  1.0872
18275SOL     OW64754  10.010  11.613  11.379 -0.4998  0.3210 -0.2083
18275SOL    HW164755  10.093  11.645  11.414 -0.0127 -0.8852 -0.2122
18275SOL    HW264756   9.951  11.610  11.454 -0.2732  0.3479 -0.0297
18276SOL     OW64757   4.417   4.442   0.749 -0.1585  0.3089  0.0030
18276SOL    HW164758   4.354   4.400   0.691 -0.6879  2.8525 -1.4216
18276SOL    HW264759   4.363   4.485   0.816  0.3290 -0.6678  1.0613
18277SOL     OW64760   4.029  11.243   7.724  0.1798  0.3029 -0.4424
18277SOL    HW164761   4.103  11.300   7.705 -0.4824  1.0401 -0.8971
18277SOL    HW264762   4.056  11.192   7.800  2.0028 -1.0064 -1.8494
18278SOL     OW64763   3.510   7.998  10.238 -0.0863  0.0025  0.1213
18278SOL    HW164764   3.552   8.055  10.174 -0.3425  0.3876  0.2954
18278SOL    HW264765   3.576   7.985  10.306  0.3902 -0.8573 -0.4776
18279SOL     OW64766   5.132   3.638  10.403  0.5077  0.0710 -0.2210
18279SOL    HW164767   5.184   3.569  10.444  0.8666  1.0962  1.1022
18279SOL    HW264768   5.078   3.592  10.338  2.5859 -1.1070 -1.2158
18280SOL     OW64769   4.437  11.878   6.231 -0.1612  0.1361 -0.0822
18280SOL    HW164770   4.369  11.927   6.277  0.1402  1.1341 -0.6726
18280SOL    HW264771   4.393  11.841   6.155 -0.1263  0.5174 -0.2926
18281SOL     OW64772  11.174   6.391  11.924  0.3650  0.2883  0.4079
18281SOL    HW164773  11.229   6.340  11.864 -1.3564 -0.0381 -0.9536
18281SOL    HW264774  11.183   6.347  12.008  1.3244 -0.3975 -0.0335
18282SOL     OW64775  11.870   2.120   2.171  0.1715  0.3511  0.0131
18282SOL    HW164776  11.778   2.094   2.163 -0.0360  0.4718  1.6616
18282SOL    HW264777  11.907   2.103   2.085 -0.8899 -1.7156 -0.1075
18283SOL     OW64778  12.632   6.531   4.142  0.2949 -0.1072  0.1703
18283SOL    HW164779  12.604   6.465   4.079 -2.1398  0.8451  0.1181
18283SOL    HW264780  12.673   6.599   4.089  1.1234 -0.7010  0.0209
18284SOL     OW64781   0.962   4.293  12.723 -0.0396  0.2448  0.3609
18284SOL    HW164782   0.921   4.278  12.638  0.2432  1.1163  0.0557
18284SOL    HW264783   0.917   4.370  12.758 -0.1259 -0.0841  0.9800
18285SOL     OW64784   1.952   2.237   1.359  0.1778 -0.6444  0.0838
18285SOL    HW164785   1.966   2.331   1.369 -0.5671 -0.4846 -0.2967
18285SOL    HW264786   2.014   2.210   1.290  0.0787 -0.3436 -0.1246
18286SOL     OW64787  12.197   8.525   8.032 -0.1045  0.3281 -0.1960
18286SOL    HW164788  12.134   8.560   8.095 -0.4553 -0.2010 -0.2469
18286SOL    HW264789  12.157   8.541   7.947 -0.4731 -0.5542 -0.2064
18287SOL     OW64790   0.046  10.432   6.910  0.0581  0.2402  0.5891
18287SOL    HW164791   0.006  10.412   6.995 -0.9825  2.9377  0.8488
18287SOL    HW264792   0.127  10.477   6.932  0.9340 -1.0349  0.0797
18288SOL     OW64793   5.926   1.732  10.631  1.1797 -0.5511 -0.6711
18288SOL    HW164794   5.979   1.805  10.662  2.0501 -0.8601 -1.4006
18288SOL    HW264795   5.907   1.752  10.539 -1.2628  0.2954 -0.0590
18289SOL     OW64796  11.464  12.115  12.618  0.2849  0.2510  0.6412
18289SOL    HW164797  11.431  12.151  12.701 -0.7914  3.6268 -1.0778
18289SOL    HW264798  11.548  12.158  12.605 -0.2811  0.9865 -0.7352
18290SOL     OW64799  10.030   5.564   4.409  0.3814  0.9496 -0.2706
18290SOL    HW164800   9.963   5.507   4.444  1.6074 -0.3591  0.0413
18290SOL    HW264801   9.986   5.615   4.341 -1.1494  0.8873  0.6462
18291SOL     OW64802   7.230   0.266   7.636 -0.0647  0.5338 -0.3646
18291SOL    HW164803   7.213   0.338   7.696  0.3114 -1.2386  1.9812
18291SOL    HW264804   7.298   0.214   7.679  0.0434 -0.9845 -2.2223
18292SOL     OW64805   5.464   8.985  11.149 -0.2123  0.2252  0.0310
18292SOL    HW164806   5.481   9.079  11.142  0.9453 -0.0419 -1.2108
18292SOL    HW264807   5.495   8.961  11.236  0.2948  0.8379  0.0265
18293SOL     OW64808   1.713  12.099   4.721 -0.0584  0.1390 -0.4707
18293SOL    HW164809   1.679  12.010   4.726  2.2176 -0.7188  0.9392
18293SOL    HW264810   1.636  12.153   4.701 -1.6624 -1.9881 -0.3560
18294SOL     OW64811   1.211   5.871  10.160 -0.2087  0.0097 -0.1791
18294SOL    HW164812   1.168   5.928  10.096  0.1065  0.0444 -0.3625
18294SOL    HW264813   1.164   5.788  10.153 -0.2979  0.0718 -0.3222
18295SOL     OW64814   7.460  11.612   7.789 -0.2463  0.4354  0.1430
18295SOL    HW164815   7.369  11.599   7.764 -0.1033 -1.0841  0.3075
18295SOL    HW264816   7.504  11.533   7.758  1.0854  1.2793 -0.2092
18296SOL     OW64817  11.257  10.553   9.218 -0.4232  0.1221  0.4523
18296SOL    HW164818  11.245  10.646   9.238 -0.4335 -0.0000  1.0365
18296SOL    HW264819  11.337  10.529   9.265  0.3578  0.1634 -0.8239
18297SOL     OW64820   5.894   1.829  11.498  0.4629 -0.0215  0.2978
18297SOL    HW164821   5.860   1.892  11.434  0.4906  0.8227  1.0960
18297SOL    HW264822   5.898   1.746  11.450 -0.2599  0.4245 -0.5652
18298SOL     OW64823  10.091   7.162   8.005  0.4301 -0.3238  0.4335
18298SOL    HW164824  10.135   7.239   7.971  1.7147 -1.6712 -1.1179
18298SOL    HW264825  10.079   7.105   7.929  0.4146 -2.0620  1.6670
18299SOL     OW64826   6.806   7.387   0.248  0.0281 -0.0269  0.0161
18299SOL    HW164827   6.838   7.320   0.309 -0.2677  0.5096  0.7577
18299SOL    HW264828   6.823   7.348   0.162  0.2092 -0.9018  0.4242
18300SOL     OW64829   6.217  12.695  12.762 -0.4139  0.4221 -0.0021
18300SOL    HW164830   6.263  12.658  12.687  2.9647  0.9547  1.5784
18300SOL    HW264831   6.191  12.783  12.734 -1.3587 -0.2417 -1.2562
18301SOL     OW64832   9.701  11.087   3.300 -0.2433  0.2752 -0.0585
18301SOL    HW164833   9.794  11.068   3.284  0.4861  2.2009  1.4675
18301SOL    HW264834   9.667  11.006   3.339  0.1801 -1.2277 -2.6130
18302SOL     OW64835   2.722   2.796  12.335 -0.3020 -0.2679  0.2134
18302SOL    HW164836   2.652   2.851  12.371  0.8927  0.2400  1.8982
18302SOL    HW264837   2.684   2.708  12.333 -0.9034 -0.0640  1.4234
18303SOL     OW64838  12.308   0.382   5.872  0.1108 -0.3014 -0.1716
18303SOL    HW164839  12.368   0.330   5.926  0.5217  0.8470  0.5026
18303SOL    HW264840  12.222   0.367   5.910  0.3576  0.2616  0.6312
18304SOL     OW64841  12.436   7.406   1.595  0.4304  0.6545  0.4422
18304SOL    HW164842  12.453   7.496   1.568 -0.2938  1.1956  1.7004
18304SOL    HW264843  12.517   7.378   1.638  0.6106  0.7327  0.1606
18305SOL     OW64844   9.910   2.877   3.946 -0.1282  0.1150  0.2195
18305SOL    HW164845   9.912   2.973   3.941  2.1155  0.0561 -1.5096
18305SOL    HW264846   9.889   2.849   3.857  0.8641 -1.0003  0.3196
18306SOL     OW64847   5.747   6.677  12.088  0.0856  0.2315  0.3635
18306SOL    HW164848   5.688   6.739  12.130  0.2137  1.2088 -0.8172
18306SOL    HW264849   5.721   6.679  11.996  1.4347  0.0922 -0.0441
18307SOL     OW64850   1.194   5.752   3.701  0.5779 -0.2059  0.4245
18307SOL    HW164851   1.104   5.777   3.683  0.4400  0.8107  2.2658
18307SOL    HW264852   1.189   5.695   3.778  1.5191  0.1707  0.7907
18308SOL     OW64853  12.814   8.128   2.508  0.3278  0.2315  0.1893
18308SOL    HW164854  12.789   8.109   2.417 -0.6424  0.7063  0.3349
18308SOL    HW264855  12.899   8.170   2.502  1.3017 -1.7300 -0.3283
18309SOL     OW64856   5.381   6.916   1.171 -0.4754 -0.0482  0.3482
18309SOL    HW164857   5.330   6.870   1.105 -0.4512  1.4936 -0.7908
18309SOL    HW264858   5.456   6.950   1.123 -0.2312  0.7338  1.2673
18310SOL     OW64859  13.060   1.384  11.545 -0.5316  0.9880 -0.1165
18310SOL    HW164860  13.067   1.479  11.544 -0.4274  0.9966  0.9094
18310SOL    HW264861  13.002   1.364  11.618 -0.0888  0.2309  0.0418
18311SOL     OW64862   3.412  11.978  10.334  0.5792 -0.3724  0.9747
18311SOL    HW164863   3.433  12.071  10.341 -0.9095  0.1744 -0.9630
18311SOL    HW264864   3.495  11.937  10.310  1.1244  0.5417  1.2506
18312SOL     OW64865   9.245   4.977  10.734 -0.1803  0.5631 -0.3285
18312SOL    HW164866   9.311   4.971  10.804 -1.1028 -1.3626  0.4668
18312SOL    HW264867   9.262   4.901  10.679 -1.6412  0.0821 -0.1582
18313SOL     OW64868  10.956   0.946   6.561 -0.3757 -0.6917  0.6498
18313SOL    HW164869  10.906   1.022   6.532  0.2549 -0.8290 -0.8862
18313SOL    HW264870  10.891   0.890   6.605 -0.7757  0.8570  2.1270
18314SOL     OW64871  10.304   9.345   2.057 -0.3319  0.2567 -0.0601
18314SOL    HW164872  10.304   9.398   2.136 -0.2207  1.1687 -0.6494
18314SOL    HW264873  10.221   9.298   2.059 -0.5425  0.6371  0.3625
18315SOL     OW64874   7.978   2.702   2.073  0.1508 -0.2713  0.1754
18315SOL    HW164875   7.951   2.793   2.078  0.6864  0.0638 -2.0157
18315SOL    HW264876   8.067   2.701   2.108  0.2866  0.1401 -0.1523
18316SOL     OW64877   1.502   8.320   6.994 -0.0516 -0.2837  0.4577
18316SOL    HW164878   1.509   8.315   6.899 -0.3145  0.7263  0.3715
18316SOL    HW264879   1.444   8.247   7.018  0.1826 -0.6675 -0.1271
18317SOL     OW64880  11.722   8.130   8.439  0.2610  0.3458 -0.0680
18317SOL    HW164881  11.760   8.122   8.351  0.5763  1.3723 -0.0407
18317SOL    HW264882  11.766   8.062   8.490  2.3651  1.6824  0.0340
18318SOL     OW64883   6.040   1.496   9.034  0.4810 -0.2247  0.2120
18318SOL    HW164884   6.098   1.437   9.082  1.3080  0.2995 -0.1250
18318SOL    HW264885   6.046   1.579   9.081 -0.9585 -0.4625  0.9019
18319SOL     OW64886   1.829   1.191   7.641 -0.4330 -0.3870 -0.7857
18319SOL    HW164887   1.808   1.276   7.680  0.9725 -0.7118  0.7892
18319SOL    HW264888   1.856   1.211   7.552 -1.2319  0.6714 -0.8099
18320SOL     OW64889   8.995   4.022  11.492  0.1857  0.6813  0.0943
18320SOL    HW164890   9.077   4.003  11.536 -0.4943  0.2028  1.2126
18320SOL    HW264891   8.934   3.956  11.526 -0.7904  1.3678 -0.2769
18321SOL     OW64892   4.626   3.880   0.798 -0.1654 -0.4353  0.4837
18321SOL    HW164893   4.676   3.953   0.760  1.3078 -0.0353  2.9791
18321SOL    HW264894   4.658   3.803   0.751  1.1171  0.1017  0.4240
18322SOL     OW64895   9.493   4.567   0.071  0.5763  0.4133  0.2983
18322SOL    HW164896   9.435   4.557   0.147  1.9762  1.7470  1.6127
18322SOL    HW264897   9.436   4.607   0.004 -0.7253 -0.9425  0.5382
18323SOL     OW64898  10.583   9.425  12.104  0.3836  0.1377  0.2048
18323SOL    HW164899  10.564   9.340  12.144 -0.7049  0.3694  0.1902
18323SOL    HW264900  10.507   9.443  12.049  1.5577  0.1249 -1.4967
18324SOL     OW64901  12.901   2.931   7.342  0.7530  0.4684  0.2242
18324SOL    HW164902  12.919   2.890   7.426  1.2124 -3.6858 -1.6574
18324SOL    HW264903  12.986   2.962   7.312  1.0937 -0.4858  0.1738
18325SOL     OW64904  11.121  11.328   3.469 -0.3317 -0.4456  0.1232
18325SOL    HW164905  11.189  11.273   3.508 -0.6403 -1.1513 -0.2973
18325SOL    HW264906  11.110  11.293   3.380 -0.0350  0.7680 -0.4039
18326SOL     OW64907   0.247   3.293   3.525  0.1676 -0.3486 -0.5861
18326SOL    HW164908   0.200   3.373   3.550 -0.3915 -1.1403  1.0171
18326SOL    HW264909   0.178   3.228   3.515  0.6934 -0.8278 -1.1693
18327SOL     OW64910   4.198   5.075   7.283  1.0601  0.0083  0.3620
18327SOL    HW164911   4.105   5.098   7.285  1.2898  1.0081  0.0563
18327SOL    HW264912   4.199   4.979   7.277  0.0470  0.0259 -0.3094
18328SOL     OW64913  10.649   2.668   3.243 -0.1709  0.0319  0.5882
18328SOL    HW164914  10.729   2.719   3.254 -0.5124  0.3544  1.8008
18328SOL    HW264915  10.656   2.630   3.156  0.2759  1.8490 -0.2233
18329SOL     OW64916   0.597   1.662   8.710 -0.5703 -0.1699 -0.1018
18329SOL    HW164917   0.548   1.618   8.779 -0.6528 -0.1070 -0.1216
18329SOL    HW264918   0.539   1.731   8.679 -0.0604  0.6071  0.6113
18330SOL     OW64919   4.723  12.647   6.489  0.2826 -0.1834 -0.1089
18330SOL    HW164920   4.666  12.710   6.445  1.1665 -0.3092 -1.4986
18330SOL    HW264921   4.780  12.700   6.544  1.4105  0.3404 -1.7055
18331SOL     OW64922   0.233   0.980  10.896  0.2677 -0.1586 -0.0666
18331SOL    HW164923   0.315   1.028  10.909  0.7259 -0.9555  0.0604
18331SOL    HW264924   0.165   1.036  10.933  1.0008 -0.3787  1.6838
18332SOL     OW64925  12.886  13.030  12.176  0.4736 -0.3069  0.3777
18332SOL    HW164926  12.955  13.016  12.112  1.0062  0.3868  0.7728
18332SOL    HW264927  12.914  12.980  12.253  1.5857  1.5272  1.2398
18333SOL     OW64928   5.276   8.311   6.876  0.1334 -0.2044 -0.1133
18333SOL    HW164929   5.366   8.280   6.887  0.1867  0.3286  1.0388
18333SOL    HW264930   5.285   8.400   6.842  0.1088  0.6152  1.9227
18334SOL     OW64931   0.261   6.022   2.686 -0.1957  0.1643  0.6707
18334SOL    HW164932   0.198   6.051   2.620  1.2805  1.1790 -0.3416
18334SOL    HW264933   0.250   5.927   2.689  0.5328 -0.0781 -1.9915
18335SOL     OW64934   3.023   4.011   6.609 -0.1540 -0.0641 -0.2397
18335SOL    HW164935   3.045   4.013   6.516 -0.4453  0.6596 -0.2985
18335SOL    HW264936   3.052   4.096   6.643 -0.1369 -0.2842  0.3052
18336SOL     OW64937   5.866   2.397   1.353 -0.2033  0.7183 -0.6696
18336SOL    HW164938   5.799   2.443   1.404 -0.8930 -1.8304  0.8845
18336SOL    HW264939   5.870   2.445   1.270 -1.5869  2.8863  0.4235
18337SOL     OW64940   9.304  13.251  12.390  0.1268 -0.0961  0.3367
18337SOL    HW164941   9.386  13.201  12.384 -0.8579 -1.6098 -2.5267
18337SOL    HW264942   9.332  13.342  12.396  2.0724 -0.5412 -0.9359
18338SOL     OW64943   8.929   4.830  10.769 -0.3322  0.2518 -0.2905
18338SOL    HW164944   8.984   4.831  10.690  2.8442  0.2691  1.7205
18338SOL    HW264945   8.891   4.918  10.773  0.1788  0.5430 -1.3078
18339SOL     OW64946   6.620  12.258   6.239  0.1653 -0.3942 -0.0825
18339SOL    HW164947   6.641  12.214   6.321 -0.7609 -1.5877 -0.4601
18339SOL    HW264948   6.544  12.312   6.260  1.5584  1.4429  0.4890
18340SOL     OW64949   5.506   7.586   1.503  0.1317  0.2631  0.7050
18340SOL    HW164950   5.577   7.526   1.526 -0.3034 -0.5034  0.0894
18340SOL    HW264951   5.508   7.591   1.407 -2.7787 -2.5500  0.3138
18341SOL     OW64952   0.374   4.737   0.171  0.6925  0.2692 -0.5200
18341SOL    HW164953   0.358   4.728   0.265 -0.3490 -0.1307 -0.7158
18341SOL    HW264954   0.417   4.821   0.161  1.3242  0.0606  0.3719
18342SOL     OW64955   9.128  12.599   9.383  0.3480  0.1108  0.0220
18342SOL    HW164956   9.088  12.646   9.310  1.2710  1.1707  0.1688
18342SOL    HW264957   9.107  12.651   9.460  0.3099 -0.4085  0.3712
18343SOL     OW64958  12.374   6.722   9.520  0.1113  0.1457  0.3714
18343SOL    HW164959  12.462   6.752   9.499 -0.1231  1.4959  1.2096
18343SOL    HW264960  12.348   6.668   9.445  1.1318  0.8127 -0.4826
18344SOL     OW64961   4.448   0.855   7.520  0.0448 -0.4358 -0.1592
18344SOL    HW164962   4.478   0.946   7.511  0.2388 -0.2921  1.5177
18344SOL    HW264963   4.425   0.828   7.432 -2.3345  2.0378 -0.4223
18345SOL     OW64964   9.224   2.300   2.158 -0.2832 -0.8143  0.1077
18345SOL    HW164965   9.168   2.375   2.180 -0.2556 -0.5168 -0.7901
18345SOL    HW264966   9.167   2.224   2.169 -0.6821 -0.5607 -0.1792
18346SOL     OW64967   8.700   2.382  13.120 -0.4891 -0.0357  0.3385
18346SOL    HW164968   8.643   2.308  13.139 -0.9758  0.6052  1.5191
18346SOL    HW264969   8.708   2.383  13.024 -2.7894  0.0738  0.0904
18347SOL     OW64970   8.455   6.387   3.864  0.5186  0.5216 -0.8606
18347SOL    HW164971   8.523   6.381   3.797  1.4986 -0.6176  0.1923
18347SOL    HW264972   8.462   6.477   3.897  2.2464  0.1476 -0.0687
18348SOL     OW64973   1.082   5.284  11.956 -0.2739  0.7073  0.0255
18348SOL    HW164974   1.170   5.259  11.983  0.3776  0.5195 -2.1274
18348SOL    HW264975   1.050   5.341  12.027  1.1190 -0.1157  1.3627
18349SOL     OW64976  11.168   8.874   5.842 -0.0482 -0.2267 -0.0624
18349SOL    HW164977  11.085   8.827   5.837 -0.8622  1.2700 -1.5654
18349SOL    HW264978  11.158   8.948   5.783  2.5692 -0.2815 -0.7239
18350SOL     OW64979   8.077   0.625   3.936 -0.1898 -0.0913  0.0088
18350SOL    HW164980   7.984   0.647   3.921  0.0812  0.2002 -1.4505
18350SOL    HW264981   8.123   0.671   3.866  1.1574  0.3938  1.1758
18351SOL     OW64982   4.368   8.068  10.747 -0.0396 -0.2057  1.0195
18351SOL    HW164983   4.357   8.118  10.667  1.0146 -0.2073  0.8586
18351SOL    HW264984   4.390   8.133  10.814 -1.6535 -0.1095  1.5022
18352SOL     OW64985   5.727  12.869   4.591 -0.5428 -0.5838 -0.2716
18352SOL    HW164986   5.728  12.965   4.591  0.8546 -0.5175 -2.8397
18352SOL    HW264987   5.779  12.845   4.668  2.8683  0.9026 -1.8687
18353SOL     OW64988   2.053   8.830   0.207 -0.6642 -0.2313  0.2925
18353SOL    HW164989   2.139   8.873   0.207  0.0543 -1.5628 -1.2610
18353SOL    HW264990   1.991   8.901   0.190  0.1557  0.6861  1.0213
18354SOL     OW64991   6.808  11.507   1.770 -0.3335  0.0069  0.1887
18354SOL    HW164992   6.804  11.445   1.844 -2.5210  1.7098  1.6090
18354SOL    HW264993   6.902  11.522   1.758  0.1586 -1.6452  1.4461
18355SOL     OW64994   1.820   5.900   2.058  0.0863 -0.1474 -0.2280
18355SOL    HW164995   1.846   5.819   2.102  0.2994  0.0246 -0.0359
18355SOL    HW264996   1.897   5.926   2.007  0.8673  1.1754  1.5192
18356SOL     OW64997  10.465   9.834   9.053 -0.2810  0.4155 -0.3783
18356SOL    HW164998  10.532   9.903   9.053 -0.8501  0.9769 -0.5898
18356SOL    HW264999  10.382   9.881   9.041 -0.4653 -0.5006 -4.1060
18357SOL     OW65000  11.100   9.649   2.550 -0.4453  0.1355  0.8152
18357SOL    HW165001  11.073   9.607   2.468 -0.3373 -1.6770  1.6620
18357SOL    HW265002  11.166   9.590   2.586  0.6447  1.6945  1.4853
18358SOL     OW65003  10.930   9.189  10.619  0.0313 -0.2454  0.1390
18358SOL    HW165004  10.887   9.153  10.697  0.5720 -0.4994  0.3234
18358SOL    HW265005  10.946   9.281  10.642 -0.1394 -0.2271  0.1860
18359SOL     OW65006  12.960   1.491   5.875  0.1092  0.2782  0.2862
18359SOL    HW165007  13.019   1.477   5.949 -0.2702 -2.5784  0.1330
18359SOL    HW265008  12.886   1.432   5.891 -1.2062  1.4202 -1.1524
18360SOL     OW65009   2.606   6.157   5.785 -0.2713 -0.3364  0.2131
18360SOL    HW165010   2.568   6.081   5.743 -1.9025  1.4823 -1.8492
18360SOL    HW265011   2.589   6.229   5.725  1.7040  1.5903  1.7801
18361SOL     OW65012   5.655   8.008  12.215  0.0367  0.0802  0.0357
18361SOL    HW165013   5.682   7.934  12.269  2.3343  0.8841  0.0868
18361SOL    HW265014   5.615   8.069  12.277  2.9272  1.1314  1.0308
18362SOL     OW65015   7.893   6.691   6.193  0.2180 -0.2407 -0.1961
18362SOL    HW165016   7.820   6.753   6.185 -0.8798 -1.1066  2.2027
18362SOL    HW265017   7.881   6.631   6.119 -0.8820  0.2626 -0.4557
18363SOL     OW65018   1.909   4.761   1.392  0.1864  0.3391 -0.2538
18363SOL    HW165019   1.945   4.674   1.377  2.5530  1.1937  0.0404
18363SOL    HW265020   1.857   4.780   1.314  2.0922 -0.1782 -1.7207
18364SOL     OW65021   4.549  11.573   3.279 -0.0604 -0.2018 -0.2644
18364SOL    HW165022   4.600  11.591   3.200  2.9921 -1.7033  1.2314
18364SOL    HW265023   4.531  11.479   3.275  1.9855 -0.7683  1.7186
18365SOL     OW65024  11.986   0.618   6.948 -0.0224  0.3152 -0.2171
18365SOL    HW165025  12.070   0.611   6.902 -0.3356 -0.1529 -0.7459
18365SOL    HW265026  12.008   0.616   7.041  0.5371  0.0223 -0.3551
18366SOL     OW65027  10.634   9.425   2.874 -0.1247 -0.2811 -0.6493
18366SOL    HW165028  10.583   9.347   2.896 -0.8806  0.7492  1.7005
18366SOL    HW265029  10.688   9.439   2.952 -1.0095  2.2324 -0.3945
18367SOL     OW65030  12.182   3.374  11.096  0.3163  0.6708 -0.0605
18367SOL    HW165031  12.130   3.301  11.129  1.7413  0.3363  1.6050
18367SOL    HW265032  12.211   3.421  11.174  0.1543  2.5528 -1.0551
18368SOL     OW65033  11.745   8.611   1.716  0.1653 -0.2379 -0.6617
18368SOL    HW165034  11.652   8.600   1.694  0.1332 -2.1772  0.2605
18368SOL    HW265035  11.789   8.538   1.673  1.0438 -0.2079  0.1549
18369SOL     OW65036   2.967   2.374  10.113 -0.6234 -0.4535  0.1966
18369SOL    HW165037   3.013   2.455  10.092  0.0660 -0.5243  1.3407
18369SOL    HW265038   2.877   2.390  10.085  0.0863 -0.3980 -2.3233
18370SOL     OW65039  11.653   9.812  11.447 -0.0709  0.1937 -0.5447
18370SOL    HW165040  11.651   9.741  11.383  0.6553 -0.4472  0.1192
18370SOL    HW265041  11.712   9.876  11.408 -0.1789  0.1232 -0.8320
18371SOL     OW65042   7.128  12.012   8.945 -0.3039 -0.1027  0.4307
18371SOL    HW165043   7.095  12.096   8.975 -3.2157 -0.5060 -1.2672
18371SOL    HW265044   7.087  11.948   9.003 -1.2375 -0.5320 -0.6697
18372SOL     OW65045   9.013  11.028   2.132 -0.1667  0.1006 -0.4155
18372SOL    HW165046   9.092  11.071   2.100  0.0045 -0.4985 -0.8130
18372SOL    HW265047   9.035  10.935   2.135 -0.8821 -0.0878 -0.6280
18373SOL     OW65048  11.640   1.533   9.247 -0.5742 -0.3385 -0.5838
18373SOL    HW165049  11.589   1.485   9.313  0.8791 -0.4520  0.4881
18373SOL    HW265050  11.645   1.622   9.282  1.0977 -0.6424  0.0328
18374SOL     OW65051   9.090  11.892   0.422  0.1157 -0.4106  0.4223
18374SOL    HW165052   9.184  11.876   0.430  0.2107 -0.3193 -0.4132
18374SOL    HW265053   9.069  11.948   0.496  0.6969 -0.5436  0.6907
18375SOL     OW65054   5.955   8.709   0.953  0.4700 -0.1191  0.1339
18375SOL    HW165055   6.040   8.669   0.971  0.4626  0.0520  0.5730
18375SOL    HW265056   5.956   8.729   0.860 -0.1216 -2.5757 -0.4788
18376SOL     OW65057   0.924   9.116   9.072 -0.3931  0.5046  0.2066
18376SOL    HW165058   1.003   9.065   9.056 -0.0790  1.3944 -1.2841
18376SOL    HW265059   0.947   9.175   9.144 -0.0260  0.1161  0.4098
18377SOL     OW65060   6.439   6.703   7.464  0.1267 -0.3128  0.5757
18377SOL    HW165061   6.470   6.636   7.526  0.2145  0.6125  1.5523
18377SOL    HW265062   6.443   6.785   7.514  2.7718  0.9307 -1.4288
18378SOL     OW65063   1.132  12.194   4.385  0.3946 -0.4831 -0.3322
18378SOL    HW165064   1.080  12.274   4.395 -0.3604 -1.0973  1.0362
18378SOL    HW265065   1.216  12.224   4.352  1.2714  1.3452  3.0523
18379SOL     OW65066  12.425   2.724  11.985  0.6727 -0.2644 -0.1077
18379SOL    HW165067  12.434   2.643  12.035  1.0857  0.8512  1.7308
18379SOL    HW265068  12.479   2.787  12.032 -0.9837  1.5144 -0.4396
18380SOL     OW65069  13.065  10.671  11.303  0.3845 -0.0020 -0.2346
18380SOL    HW165070  12.989  10.615  11.292  1.1057 -1.0654  0.0373
18380SOL    HW265071  13.096  10.652  11.392  0.8808  0.5188 -0.2909
18381SOL     OW65072   1.994   0.422   2.264  0.2232 -0.1895 -0.1985
18381SOL    HW165073   2.026   0.393   2.178  2.1970  0.1578  0.3734
18381SOL    HW265074   2.071   0.457   2.307 -1.0539  1.0357  1.1668
18382SOL     OW65075   6.026   0.335  11.572  0.3539 -0.0826  0.2691
18382SOL    HW165076   6.027   0.243  11.600 -0.9623 -0.2422 -0.1422
18382SOL    HW265077   5.984   0.382  11.644 -0.2239 -0.0292 -0.0917
18383SOL     OW65078   0.680   6.845   7.772 -0.0143  0.2050 -0.0743
18383SOL    HW165079   0.689   6.851   7.677 -0.6837 -0.7389 -0.2070
18383SOL    HW265080   0.757   6.795   7.800 -0.0225  0.1417 -0.1653
18384SOL     OW65081   0.233  13.034   7.392  0.6264  0.5801 -0.9588
18384SOL    HW165082   0.152  13.021   7.342 -0.1060  0.6745  0.1695
18384SOL    HW265083   0.207  13.087   7.467  1.6950  0.4381 -0.4690
18385SOL     OW65084  11.235   4.791   3.019  0.0705 -0.2093  0.2950
18385SOL    HW165085  11.321   4.757   3.045  1.0332  0.4456 -1.7788
18385SOL    HW265086  11.191   4.717   2.978 -1.5165 -1.2911  3.6204
18386SOL     OW65087   4.023   4.835   4.811 -0.5299  0.1248 -0.3186
18386SOL    HW165088   3.939   4.829   4.766 -1.8748  0.7755  1.9486
18386SOL    HW265089   4.039   4.929   4.819  1.2435  0.0497 -2.0303
18387SOL     OW65090   4.581   5.428   7.296 -0.3089 -0.2434 -0.2358
18387SOL    HW165091   4.614   5.442   7.385 -1.6402 -1.7546  0.5469
18387SOL    HW265092   4.573   5.333   7.289 -0.5438 -0.1238 -1.8802
18388SOL     OW65093   0.339   4.697   7.997  0.0568  0.4831  0.0563
18388SOL    HW165094   0.428   4.662   7.993 -0.7256 -1.6396  0.0115
18388SOL    HW265095   0.310   4.678   8.087  0.0742  2.3712  0.5041
18389SOL     OW65096   7.203  10.571   6.634 -0.0093  0.0818  0.0287
18389SOL    HW165097   7.244  10.586   6.719  0.8967 -0.6455 -0.2624
18389SOL    HW265098   7.112  10.599   6.646  0.1389  0.1191  1.1928
18390SOL     OW65099   4.871  13.208   5.970 -0.6614 -0.0501  0.1710
18390SOL    HW165100   4.916  13.292   5.966 -0.9611  0.1162  0.2583
18390SOL    HW265101   4.778  13.230   5.969 -0.7618 -0.2970  1.5613
18391SOL     OW65102  11.975   9.466   3.084  0.4436 -0.2256  0.1364
18391SOL    HW165103  11.942   9.543   3.131  1.0668  0.6413 -0.8163
18391SOL    HW265104  12.005   9.407   3.153  1.2799  0.9924  0.8392
18392SOL     OW65105   7.415   9.218   2.241  0.0787 -1.3004  0.2343
18392SOL    HW165106   7.415   9.123   2.229  0.0613 -1.4334  1.2272
18392SOL    HW265107   7.493   9.237   2.292 -0.9823 -1.0471  1.8475
18393SOL     OW65108   7.572   4.432   2.299 -0.8512  0.1179  0.2017
18393SOL    HW165109   7.619   4.489   2.360 -3.0635 -0.7232  2.9116
18393SOL    HW265110   7.639   4.403   2.237  1.8574  0.2360  2.8242
18394SOL     OW65111   9.696   6.725   3.006 -0.1772  0.3652 -0.5338
18394SOL    HW165112   9.633   6.666   2.965 -0.1293 -1.0117  1.2417
18394SOL    HW265113   9.771   6.724   2.947  0.3185 -2.3957 -0.0101
18395SOL     OW65114   0.862   1.142   7.045  0.0893  0.4779  0.0897
18395SOL    HW165115   0.783   1.196   7.047 -1.4240 -1.6538  0.9279
18395SOL    HW265116   0.892   1.147   6.954 -0.9142  1.4248 -0.2129
18396SOL     OW65117   5.829  10.365   5.178 -0.2808 -0.2877  0.6920
18396SOL    HW165118   5.795  10.393   5.093  0.2289  2.9924  1.4243
18396SOL    HW265119   5.753  10.326   5.222 -1.1168 -0.0559 -0.4837
18397SOL     OW65120   8.994  11.771   6.807  0.0970  0.3398  0.0591
18397SOL    HW165121   8.994  11.790   6.713 -1.9805 -1.0611 -0.2957
18397SOL    HW265122   8.926  11.705   6.818  1.6754 -1.0608  2.2808
18398SOL     OW65123  12.412   6.143   2.645  0.4445  0.2161 -0.3301
18398SOL    HW165124  12.370   6.094   2.574 -0.9350  0.0634  0.5542
18398SOL    HW265125  12.457   6.077   2.697  0.6473  0.2077 -0.5149
18399SOL     OW65126  12.700   5.653   6.728 -0.1828 -0.1539 -0.1243
18399SOL    HW165127  12.696   5.559   6.711 -0.0063  0.0826 -1.6494
18399SOL    HW265128  12.793   5.672   6.738 -0.1601 -0.0274 -0.5700
18400SOL     OW65129   4.560  12.615  13.248 -0.3590  0.4902  0.2521
18400SOL    HW165130   4.509  12.550  13.199 -0.1492 -0.7153  1.5719
18400SOL    HW265131   4.495  12.678  13.277 -0.4948  1.2331 -1.5039
18401SOL     OW65132  11.954  10.597   4.424 -0.2319  0.5632  0.0262
18401SOL    HW165133  11.977  10.657   4.495  0.1802 -0.0871  0.4565
18401SOL    HW265134  12.033  10.543   4.412 -1.3542 -1.4636  1.2462
18402SOL     OW65135   0.885   3.740   4.257  0.1211 -0.0037 -0.3528
18402SOL    HW165136   0.955   3.712   4.316 -1.3256  0.5055  1.7391
18402SOL    HW265137   0.851   3.658   4.221 -0.0827 -0.5065  0.9119
18403SOL     OW65138   3.528  10.061   8.534 -0.5600  0.4128  0.0418
18403SOL    HW165139   3.508  10.033   8.623 -0.1513  0.7324  0.2339
18403SOL    HW265140   3.488  10.148   8.527 -2.6439 -0.5502 -0.8531
18404SOL     OW65141  11.478   6.263   6.249 -0.0170 -0.3702  0.1459
18404SOL    HW165142  11.445   6.339   6.202 -0.3425  0.9756  2.4155
18404SOL    HW265143  11.471   6.191   6.186 -0.3895  1.2956 -1.8286
18405SOL     OW65144   0.347   8.762  12.891  0.5028  0.0285 -0.2640
18405SOL    HW165145   0.424   8.713  12.863 -0.5437 -0.9361 -1.5530
18405SOL    HW265146   0.290   8.696  12.930 -0.6574  0.2938 -1.4489
18406SOL     OW65147  10.550  10.196   5.991  0.4972  0.3966  0.4927
18406SOL    HW165148  10.493  10.203   5.914 -0.2467  1.6433  1.1341
18406SOL    HW265149  10.546  10.103   6.015 -0.0474  0.1798 -0.3824
18407SOL     OW65150   0.087   4.674   7.253  0.0203  0.2303  0.3229
18407SOL    HW165151   0.036   4.725   7.317 -0.8050 -0.7577  0.4898
18407SOL    HW265152   0.021   4.638   7.194  0.4966 -1.1342  0.5814
18408SOL     OW65153   9.672   8.664   9.318  0.8389 -0.0964  0.4841
18408SOL    HW165154   9.756   8.692   9.283  1.3748 -1.5015  0.5794
18408SOL    HW265155   9.614   8.660   9.241  2.0083 -3.1614 -0.3754
18409SOL     OW65156   5.321  12.953   0.707 -0.0826  1.1952  0.0074
18409SOL    HW165157   5.387  13.020   0.727  0.9229  0.2673 -0.0595
18409SOL    HW265158   5.366  12.870   0.724 -1.3118  0.5353  0.1376
18410SOL     OW65159   5.205   3.950   3.315 -0.5341  0.2860 -0.4785
18410SOL    HW165160   5.230   3.961   3.223  0.5602 -0.3682 -0.2705
18410SOL    HW265161   5.269   4.001   3.364  1.2899 -2.3538  0.1317
18411SOL     OW65162   6.101   5.960   1.225  0.2574 -0.0140 -0.4696
18411SOL    HW165163   6.032   5.945   1.161  0.0692  1.8290 -0.7585
18411SOL    HW265164   6.084   6.048   1.259  1.7518 -0.0055  0.3492
18412SOL     OW65165   1.378   4.152  11.598 -0.6925  0.4015 -0.1647
18412SOL    HW165166   1.445   4.212  11.564 -0.3154  0.2134  0.2418
18412SOL    HW265167   1.398   4.068  11.556  1.0422 -0.3689  2.0112
18413SOL     OW65168   7.339   6.543   5.407 -0.0997 -0.3917 -0.3555
18413SOL    HW165169   7.274   6.596   5.453  0.7229  0.5604 -0.2518
18413SOL    HW265170   7.305   6.454   5.411 -0.0890 -0.3475  2.0653
18414SOL     OW65171  10.105  10.957  10.024 -0.0930 -0.4517 -0.0769
18414SOL    HW165172  10.052  11.035  10.011  0.5510 -0.2259 -1.6266
18414SOL    HW265173  10.195  10.987  10.010  0.1258 -1.5458 -1.1620
18415SOL     OW65174   5.427   9.467   0.083 -0.0462 -0.1361 -0.0491
18415SOL    HW165175   5.361   9.531   0.109 -0.1194  0.1557 -0.9321
18415SOL    HW265176   5.478   9.510   0.015  0.7976 -0.5152  0.3324
18416SOL     OW65177  12.983   9.637   0.676 -0.4087 -0.4315  0.3997
18416SOL    HW165178  12.898   9.681   0.683 -0.4818 -0.4381 -0.3704
18416SOL    HW265179  12.965   9.546   0.699 -0.1259  0.0401  2.7058
18417SOL     OW65180  11.198  11.558   2.939 -0.2329  0.4704  0.0203
18417SOL    HW165181  11.205  11.650   2.961  1.0015  0.4283 -0.0901
18417SOL    HW265182  11.204  11.512   3.023  1.2380  0.4341 -0.0735
18418SOL     OW65183   5.927   1.110   8.898 -0.5563  0.5064 -0.0905
18418SOL    HW165184   5.933   1.020   8.931  1.1412 -0.0570 -1.7689
18418SOL    HW265185   5.998   1.156   8.943 -0.1317  0.4784 -0.7244
18419SOL     OW65186   8.778  11.527   8.416 -1.1474 -0.1421  0.3599
18419SOL    HW165187   8.749  11.557   8.502 -1.0211  2.1819 -0.3442
18419SOL    HW265188   8.873  11.537   8.418 -0.9297 -1.9213  0.5634
18420SOL     OW65189   1.296  13.197   8.828  0.1070  0.6792  0.5247
18420SOL    HW165190   1.281  13.172   8.737 -0.7481 -0.1960  0.8837
18420SOL    HW265191   1.319  13.290   8.824  0.1465  0.6364 -0.5848
18421SOL     OW65192   0.345   2.951   3.124  0.1693 -0.4398  0.2003
18421SOL    HW165193   0.398   2.878   3.156  1.0811 -0.5662 -1.4997
18421SOL    HW265194   0.393   3.030   3.149 -1.2041 -0.2979  2.7403
18422SOL     OW65195  11.910  11.510   8.483 -0.8432 -0.4259  0.4927
18422SOL    HW165196  11.920  11.604   8.499 -0.0918 -0.5338  0.6747
18422SOL    HW265197  11.998  11.479   8.462 -0.9263 -1.2642  1.3107
18423SOL     OW65198  13.021   5.822  10.992 -0.0649 -0.6055 -0.5416
18423SOL    HW165199  12.985   5.788  11.074 -1.6068  1.7581 -0.1475
18423SOL    HW265200  12.955   5.800  10.926 -0.7593  0.9317 -0.3950
18424SOL     OW65201   8.065   9.441   9.697 -0.6183 -0.1708  0.2271
18424SOL    HW165202   8.158   9.420   9.687 -0.7176 -0.2601 -0.5830
18424SOL    HW265203   8.037   9.389   9.773 -0.0104 -0.1427  0.4753
18425SOL     OW65204   5.709   7.809  10.846  0.3556 -0.3429  0.0964
18425SOL    HW165205   5.795   7.851  10.840  0.6673 -0.7744  1.2676
18425SOL    HW265206   5.647   7.876  10.818  1.1110 -0.2632 -1.5199
18426SOL     OW65207   0.002  12.621   6.974  0.7108  0.2191 -0.4118
18426SOL    HW165208  -0.025  12.683   6.906 -1.7375 -1.9722 -1.5752
18426SOL    HW265209   0.050  12.553   6.928  0.7224 -0.3298  0.3910
18427SOL     OW65210   7.003   8.567   9.254 -0.2466 -0.6307  0.8562
18427SOL    HW165211   6.937   8.543   9.319  0.3439  1.0223  2.1574
18427SOL    HW265212   7.013   8.662   9.264  0.9972 -0.5671 -0.5987
18428SOL     OW65213   0.305   0.840   0.747 -0.5882 -0.2941 -0.7144
18428SOL    HW165214   0.255   0.765   0.780 -0.9669  0.4319  0.3916
18428SOL    HW265215   0.284   0.912   0.807  0.3832  0.4981 -1.2945
18429SOL     OW65216   1.618  11.333   1.766 -0.0310  0.1004 -0.0811
18429SOL    HW165217   1.640  11.247   1.803  1.5909  0.3358 -0.4023
18429SOL    HW265218   1.611  11.318   1.672  0.0622  0.2692 -0.1165
18430SOL     OW65219   3.374   5.195   8.300 -0.0586  0.3377 -0.1525
18430SOL    HW165220   3.331   5.123   8.253 -1.9526  0.3071  1.5071
18430SOL    HW265221   3.340   5.274   8.261  0.7157  0.3462 -0.8345
18431SOL     OW65222   7.919   9.914   6.378  0.1735 -0.0238 -0.6068
18431SOL    HW165223   7.956   9.829   6.358 -0.1246  0.0667 -1.5837
18431SOL    HW265224   7.839   9.919   6.326 -0.4199  0.3969  0.3046
18432SOL     OW65225   6.861   9.254   9.997  0.0822 -0.1149  0.2217
18432SOL    HW165226   6.768   9.232   9.986 -0.1961  1.3016 -0.4534
18432SOL    HW265227   6.907   9.176   9.966 -0.8773 -0.4989 -0.2986
18433SOL     OW65228   3.046   2.858  12.154  0.2665 -0.1815  0.3560
18433SOL    HW165229   3.057   2.880  12.247 -0.4765  0.1112  0.3869
18433SOL    HW265230   2.967   2.906  12.128  0.4974 -0.2266 -0.4391
18434SOL     OW65231   5.383   0.794   6.706  0.1130 -0.2517 -0.0110
18434SOL    HW165232   5.473   0.823   6.696 -0.0865 -0.0829 -1.6064
18434SOL    HW265233   5.348   0.846   6.778  0.6121  1.3615 -0.8999
18435SOL     OW65234   6.721   2.138   4.825 -0.0010  0.1737 -0.3700
18435SOL    HW165235   6.688   2.183   4.747 -2.2682  0.3665  0.6113
18435SOL    HW265236   6.703   2.199   4.896  1.5989 -0.2012  0.4010
18436SOL     OW65237  11.645   7.354   6.430 -0.1672  0.0592  0.3565
18436SOL    HW165238  11.701   7.406   6.373 -0.4745 -1.7088 -1.6905
18436SOL    HW265239  11.692   7.350   6.513  2.1353 -0.2860 -0.8828
18437SOL     OW65240   1.848   8.437   4.038 -0.1097  0.3072 -0.0540
18437SOL    HW165241   1.869   8.493   4.112 -0.6757  1.2576 -0.5809
18437SOL    HW265242   1.931   8.395   4.014  0.3176  0.8963  0.3835
18438SOL     OW65243   6.556   6.285   4.742  0.7029  0.1795 -0.1486
18438SOL    HW165244   6.505   6.205   4.752  2.2160 -0.5802  2.5142
18438SOL    HW265245   6.519   6.345   4.806 -1.1003  2.1417 -2.8035
18439SOL     OW65246   3.968   3.048  12.240 -0.6407 -0.4513 -0.1613
18439SOL    HW165247   3.977   3.092  12.325 -0.9284 -1.0308  0.1778
18439SOL    HW265248   3.907   2.977  12.257  0.0100 -1.1389 -0.6385
18440SOL     OW65249   8.391  12.578   8.975  0.1452 -0.7075 -0.2261
18440SOL    HW165250   8.392  12.628   9.057  1.3316 -1.2598  0.1128
18440SOL    HW265251   8.386  12.644   8.907  1.7570 -0.1012  0.2108
18441SOL     OW65252   6.223   0.292   2.204 -0.1367  0.7650  0.3391
18441SOL    HW165253   6.184   0.213   2.167 -0.6166  1.6527 -1.1530
18441SOL    HW265254   6.228   0.275   2.298  2.7335 -2.2829 -0.1796
18442SOL     OW65255  11.093   1.747   0.131 -0.3742  0.0506 -0.6913
18442SOL    HW165256  11.122   1.812   0.194  0.6154 -0.7689 -0.2632
18442SOL    HW265257  11.174   1.706   0.100 -0.8753  0.0670 -2.1018
18443SOL     OW65258   8.937  11.957  12.829 -0.0715  0.6094 -0.7379
18443SOL    HW165259   8.898  12.032  12.875  0.1246  0.4181 -0.2490
18443SOL    HW265260   8.865  11.894  12.822  0.3205 -0.0911  0.9225
18444SOL     OW65261   5.028   1.154   9.992 -0.1877 -0.5523  0.0203
18444SOL    HW165262   5.079   1.224  10.034  0.7113 -0.6569 -0.8715
18444SOL    HW265263   4.952   1.143  10.049  0.6880 -0.2597  1.2776
18445SOL     OW65264   9.570   6.671   1.153 -0.2790  0.5372 -0.0883
18445SOL    HW165265   9.476   6.665   1.172 -0.1046  0.7008  0.9278
18445SOL    HW265266   9.606   6.716   1.230  0.8889 -1.1867  0.4371
18446SOL     OW65267  10.807   6.974   1.119 -0.5736 -0.6196 -0.0215
18446SOL    HW165268  10.826   7.067   1.134 -0.1849 -0.5393 -0.9442
18446SOL    HW265269  10.892   6.935   1.099 -0.9289 -0.8956 -1.0103
18447SOL     OW65270  11.303   7.030   4.213 -0.1322  0.2178 -0.1447
18447SOL    HW165271  11.296   7.070   4.300 -1.6355  0.4273 -0.3263
18447SOL    HW265272  11.392   6.995   4.210  0.9464  2.6481  0.4048
18448SOL     OW65273   0.693   8.158   8.719  0.3403  0.0296  0.4349
18448SOL    HW165274   0.692   8.105   8.798  0.9465  0.3641  0.6717
18448SOL    HW265275   0.600   8.169   8.697  0.1469  0.2279  1.3015
18449SOL     OW65276   9.771   7.550   2.969  0.3356 -0.5145 -0.2495
18449SOL    HW165277   9.767   7.553   3.065  1.2811 -0.6799 -0.1952
18449SOL    HW265278   9.705   7.614   2.940 -0.7347 -1.2625  0.4870
18450SOL     OW65279   2.884   2.893  11.223 -0.0742  0.1797  0.1150
18450SOL    HW165280   2.933   2.905  11.304 -0.4727 -0.8158  0.5256
18450SOL    HW265281   2.796   2.868  11.252 -0.1990 -0.2652 -0.6137
18451SOL     OW65282  12.272  10.857   3.545  0.2357  0.3229  0.0496
18451SOL    HW165283  12.278  10.938   3.596 -2.2138  0.2617  0.5777
18451SOL    HW265284  12.207  10.876   3.478 -2.2810 -1.8059  1.6497
18452SOL     OW65285   4.794   3.767   7.019  0.3075 -0.1883 -0.5292
18452SOL    HW165286   4.772   3.676   7.035 -0.3607 -0.1104 -0.9608
18452SOL    HW265287   4.719   3.817   7.053  0.3899  0.1606 -0.8449
18453SOL     OW65288   1.106   4.697   2.308  0.5500 -0.5703 -0.1901
18453SOL    HW165289   1.106   4.746   2.391 -1.7751 -1.1614  0.2304
18453SOL    HW265290   1.030   4.640   2.314 -0.0153 -0.2555 -2.9599
18454SOL     OW65291   3.087   5.224   0.191  0.1580 -0.8923  0.0600
18454SOL    HW165292   2.995   5.232   0.169  0.0293 -0.1209  0.8093
18454SOL    HW265293   3.132   5.282   0.128 -0.0577  0.1128  0.8007
18455SOL     OW65294   6.392   1.148   1.011 -0.1405 -0.7920 -0.0598
18455SOL    HW165295   6.329   1.193   1.067  0.0030  1.6243 -1.6907
18455SOL    HW265296   6.474   1.151   1.060 -0.6127 -1.1419  0.7515
18456SOL     OW65297  10.048  13.163  12.419  0.4261  0.7115 -0.1728
18456SOL    HW165298  10.016  13.096  12.358 -0.8487  0.4878  0.6958
18456SOL    HW265299  10.015  13.135  12.505  1.8990  1.1946  0.5822
18457SOL     OW65300   6.884  10.921   6.449 -0.2438  0.2303 -0.1829
18457SOL    HW165301   6.804  10.954   6.489 -1.0186  0.1983 -1.6494
18457SOL    HW265302   6.910  10.989   6.387  0.5662 -0.0186 -0.1343
18458SOL     OW65303  11.011  10.055  12.489 -0.2227  0.3522  0.0628
18458SOL    HW165304  11.041   9.998  12.559 -1.6068  0.6118  0.8828
18458SOL    HW265305  11.066  10.133  12.497 -0.2248  0.2865  0.7112
18459SOL     OW65306  10.046   8.090  11.279  0.2878 -0.1787  0.3687
18459SOL    HW165307  10.115   8.025  11.267  1.0156  0.8500 -1.4060
18459SOL    HW265308  10.091   8.169  11.309  0.1512  0.9123 -2.1031
18460SOL     OW65309   7.208   7.791   5.436 -0.1921  0.6742  0.5474
18460SOL    HW165310   7.140   7.758   5.495 -0.2694 -1.1892 -0.4873
18460SOL    HW265311   7.161   7.813   5.356  0.3725 -0.6708 -0.1933
18461SOL     OW65312   2.166   1.496   8.990  0.2849 -0.3507 -0.0964
18461SOL    HW165313   2.133   1.540   8.912 -1.5088 -0.6122  0.4593
18461SOL    HW265314   2.227   1.430   8.957 -0.1745 -0.2212 -1.2527
18462SOL     OW65315   1.939  13.158   9.622 -0.5016 -0.4699 -0.6524
18462SOL    HW165316   1.975  13.246   9.612 -1.7301 -0.0724 -1.8511
18462SOL    HW265317   1.910  13.154   9.713  0.3340  0.0566 -0.3552
18463SOL     OW65318   3.847  12.149   8.398  0.0123 -0.5421 -0.1284
18463SOL    HW165319   3.858  12.201   8.319 -2.2775  0.7646  0.3152
18463SOL    HW265320   3.930  12.159   8.445 -0.2613  2.6986 -0.1160
18464SOL     OW65321   2.387   6.504   5.051  0.1162 -0.4711 -0.8500
18464SOL    HW165322   2.335   6.428   5.078  0.4933 -0.0435  1.2812
18464SOL    HW265323   2.380   6.565   5.125  0.4807  1.2455 -2.1638
18465SOL     OW65324   6.395  10.284  10.691 -0.1203 -0.3864  0.0843
18465SOL    HW165325   6.358  10.207  10.648  1.3751 -0.7806 -0.5892
18465SOL    HW265326   6.424  10.252  10.776  1.5936 -0.9360 -0.6461
18466SOL     OW65327   5.972   8.839   5.478  0.1197  0.5014 -0.2073
18466SOL    HW165328   6.057   8.857   5.519  0.9672  0.7086 -1.9521
18466SOL    HW265329   5.993   8.782   5.404 -1.4486 -0.5310  0.1000
18467SOL     OW65330   1.611   9.043   7.821 -0.2961  0.7358  0.1866
18467SOL    HW165331   1.659   9.041   7.738  1.8324  0.8998  1.3341
18467SOL    HW265332   1.557   8.964   7.820  0.5411  0.1481 -0.8778
18468SOL     OW65333   2.637   2.204  10.374  0.3013 -0.0718 -0.0965
18468SOL    HW165334   2.564   2.248  10.330 -1.8970 -0.4576  2.8141
18468SOL    HW265335   2.669   2.270  10.436  0.0956 -1.0119  1.0369
18469SOL     OW65336  10.199   3.238  10.779  0.3279  0.3103  0.1023
18469SOL    HW165337  10.209   3.145  10.799 -3.9150 -0.5860 -1.0318
18469SOL    HW265338  10.221   3.282  10.861  1.8277 -1.6735  0.8683
18470SOL     OW65339  11.944   5.957  12.936  0.4937 -0.3914  0.4226
18470SOL    HW165340  11.965   5.873  12.977  0.1565 -0.6982 -0.0303
18470SOL    HW265341  11.880   5.997  12.996 -0.9069 -1.3547 -0.3558
18471SOL     OW65342   0.500   0.364   5.459  0.3243  0.4980  0.2549
18471SOL    HW165343   0.515   0.315   5.378 -0.6345 -1.5208  1.2204
18471SOL    HW265344   0.562   0.437   5.455  0.2880  0.4847 -2.2796
18472SOL     OW65345   9.879   7.669   8.783 -0.0643 -0.1823  0.1327
18472SOL    HW165346   9.956   7.678   8.839  0.6811 -0.6036 -0.7813
18472SOL    HW265347   9.836   7.754   8.786 -0.4013 -0.3840  1.8258
18473SOL     OW65348   4.399  10.382  10.293 -0.2378  0.4996 -0.5265
18473SOL    HW165349   4.314  10.421  10.314 -0.5312  2.3658 -4.3777
18473SOL    HW265350   4.463  10.441  10.334 -0.7987  1.4581 -0.9797
18474SOL     OW65351  10.837   6.178  12.834 -0.3396 -0.3630  0.1596
18474SOL    HW165352  10.751   6.219  12.828 -0.7475 -1.3267 -3.4937
18474SOL    HW265353  10.825   6.105  12.894 -1.4324  0.8144  1.4224
18475SOL     OW65354   5.421   6.431   9.967 -0.5145 -0.2079 -0.3502
18475SOL    HW165355   5.453   6.414  10.056  0.4383  0.0839 -0.6295
18475SOL    HW265356   5.325   6.425   9.975 -0.4879  0.5554  0.8543
18476SOL     OW65357   2.209   8.739   6.608 -0.1956 -0.3525 -0.5110
18476SOL    HW165358   2.142   8.738   6.676  1.8821 -0.9378  1.6997
18476SOL    HW265359   2.200   8.824   6.566 -1.8628 -0.1483  0.1770
18477SOL     OW65360   1.200  10.800  10.060  0.0554  0.9595  0.0579
18477SOL    HW165361   1.228  10.731  10.119  2.7825  1.3829 -0.5738
18477SOL    HW265362   1.218  10.881  10.108 -1.3986  1.2891  0.0940
18478SOL     OW65363   2.971   3.011  10.038 -0.0592  0.6256  0.4963
18478SOL    HW165364   2.905   3.076  10.015 -0.8949  0.0542  1.2005
18478SOL    HW265365   2.924   2.947  10.092  1.1841  0.4839  1.4696
18479SOL     OW65366   4.748   5.743   2.865  0.3187  0.4468  0.1473
18479SOL    HW165367   4.788   5.656   2.866  0.2360  0.3692 -1.3311
18479SOL    HW265368   4.665   5.731   2.912  1.5617  0.4210  2.4776
18480SOL     OW65369   3.687  11.825   2.730 -0.1885  0.1349 -0.1902
18480SOL    HW165370   3.773  11.789   2.754 -0.3166 -0.1673 -0.1761
18480SOL    HW265371   3.630  11.748   2.726 -0.2165  0.2087 -1.2678
18481SOL     OW65372   3.528   7.230  13.031  0.1787  0.4528 -0.3012
18481SOL    HW165373   3.513   7.284  13.109 -0.5612 -0.8254  0.4771
18481SOL    HW265374   3.569   7.289  12.968 -0.2290  1.8061  0.6658
18482SOL     OW65375   6.685  13.290   5.428  0.6327  0.4579  0.5054
18482SOL    HW165376   6.682  13.378   5.390  0.1282 -0.5225 -1.8914
18482SOL    HW265377   6.711  13.233   5.356 -2.8606 -1.8922  0.8157
18483SOL     OW65378   7.038   2.088   4.018  0.0395  0.0437  0.2675
18483SOL    HW165379   7.095   2.163   3.997  1.2543 -0.8173  0.3648
18483SOL    HW265380   6.956   2.107   3.973  0.8280  0.7338 -0.9258
18484SOL     OW65381   5.148  13.126   1.491 -0.3163  0.2317  0.1019
18484SOL    HW165382   5.069  13.180   1.484 -0.2537  0.3946  0.6461
18484SOL    HW265383   5.219  13.183   1.463 -0.1846  0.5978  1.1393
18485SOL     OW65384   5.868   2.194   6.773 -0.0512 -0.0280  0.1946
18485SOL    HW165385   5.812   2.257   6.818 -1.5809 -0.4471 -1.0322
18485SOL    HW265386   5.846   2.109   6.812 -2.8818 -0.7232 -2.4473
18486SOL     OW65387  11.309  11.411   1.791  0.1283  0.5219  0.6869
18486SOL    HW165388  11.322  11.326   1.748  0.4678  0.7704  0.3003
18486SOL    HW265389  11.373  11.469   1.750 -0.2002  1.0045  0.8553
18487SOL     OW65390   0.988  11.933   3.775 -0.8410  0.0183 -0.3007
18487SOL    HW165391   1.023  11.844   3.785 -0.5883  0.0628 -0.7803
18487SOL    HW265392   1.005  11.956   3.684 -0.6010  0.6932 -0.0907
18488SOL     OW65393   3.621   5.757   5.447 -0.4619 -0.3098 -0.6563
18488SOL    HW165394   3.637   5.669   5.413 -0.1750  0.0360 -1.4428
18488SOL    HW265395   3.629   5.814   5.370  0.2071  0.5000 -0.0084
18489SOL     OW65396  10.449   8.322   2.887  0.3503 -0.2256 -0.0813
18489SOL    HW165397  10.449   8.382   2.813 -0.4355  0.1810  0.2340
18489SOL    HW265398  10.368   8.342   2.934 -0.0175 -1.6422 -0.0629
18490SOL     OW65399   9.779   3.311   0.410 -0.4863  0.7270  0.2189
18490SOL    HW165400   9.823   3.346   0.488 -0.0911 -0.1151  0.3835
18490SOL    HW265401   9.692   3.286   0.441 -0.0500 -0.3811  0.6047
18491SOL     OW65402   9.120   5.191   3.850 -0.7003 -0.2302 -0.2808
18491SOL    HW165403   9.041   5.184   3.904  0.2110  0.5574  1.2001
18491SOL    HW265404   9.164   5.107   3.862  0.0873  0.3591  1.2056
18492SOL     OW65405   1.824   7.321   8.573  0.3031 -0.4787 -0.0396
18492SOL    HW165406   1.791   7.352   8.489 -1.2594 -1.8288  0.0305
18492SOL    HW265407   1.903   7.373   8.588 -0.6291  1.4005 -1.2310
18493SOL     OW65408  11.770   8.544   7.577  0.1690 -0.2078  0.3545
18493SOL    HW165409  11.783   8.574   7.667 -0.6800 -1.5965  0.9845
18493SOL    HW265410  11.760   8.449   7.585  2.8966 -0.7606 -1.5281
18494SOL     OW65411   8.551   8.388   6.729 -0.9215  0.1387 -0.1411
18494SOL    HW165412   8.567   8.459   6.790  1.6065 -0.1530 -0.3807
18494SOL    HW265413   8.516   8.317   6.783 -0.2477  0.4304  0.7035
18495SOL     OW65414   4.677   7.764   5.872 -0.0556  0.4212  0.1141
18495SOL    HW165415   4.717   7.792   5.954 -0.5655 -0.6291  0.7423
18495SOL    HW265416   4.625   7.687   5.895 -3.0480  2.1009 -0.4685
18496SOL     OW65417   1.895   1.803   4.127  0.3849  0.0209  0.0061
18496SOL    HW165418   1.964   1.848   4.174 -1.6347 -0.7197  4.1636
18496SOL    HW265419   1.815   1.850   4.150 -0.8962 -0.8866 -2.2127
18497SOL     OW65420   8.921   1.465  11.542 -0.2941  0.0121  0.4050
18497SOL    HW165421   8.939   1.371  11.543 -0.3834 -0.0095  0.0627
18497SOL    HW265422   8.891   1.483  11.453  0.3378  0.4808  0.2794
18498SOL     OW65423   9.096  11.968   2.455 -0.6606  0.0508  0.1005
18498SOL    HW165424   9.143  11.992   2.376 -1.0123 -0.2835 -0.2150
18498SOL    HW265425   9.103  11.873   2.459 -1.0524  0.0249  0.2134
18499SOL     OW65426  12.318   6.154   3.470  0.6141 -0.3521  0.0690
18499SOL    HW165427  12.234   6.116   3.498  0.8731  0.5949  2.2698
18499SOL    HW265428  12.295   6.212   3.397 -0.1419 -2.5619 -1.5864
18500SOL     OW65429   5.737   0.745   2.973 -0.1126  0.6376 -0.1142
18500SOL    HW165430   5.689   0.737   2.891 -1.8430  3.0754  0.5405
18500SOL    HW265431   5.668   0.749   3.040  1.0693  2.0796  1.0882
18501SOL     OW65432   2.781   4.484  12.870  0.4422 -0.0845  0.2869
18501SOL    HW165433   2.816   4.541  12.801  1.7649  0.2129  1.1617
18501SOL    HW265434   2.795   4.395  12.837 -0.6394  0.0499 -0.6113
18502SOL     OW65435   2.722  12.252  12.156  0.0534  0.1552 -0.0580
18502SOL    HW165436   2.761  12.338  12.142  1.2391 -0.5029 -0.9958
18502SOL    HW265437   2.660  12.265  12.228  1.3278  1.4706  0.8641
18503SOL     OW65438   9.338   4.979   3.296  0.2835 -0.0095 -0.1123
18503SOL    HW165439   9.373   5.034   3.366  0.3079  0.9333 -0.8408
18503SOL    HW265440   9.349   4.889   3.328 -0.9911  0.4260  1.6768
18504SOL     OW65441   2.804   7.309   2.404 -0.1856  0.3925 -0.1462
18504SOL    HW165442   2.786   7.264   2.321  0.5566 -0.4235  0.1155
18504SOL    HW265443   2.887   7.353   2.390  0.8019 -1.1359  0.6770
18505SOL     OW65444  10.914  12.785  11.570 -0.4989  0.0599  0.0656
18505SOL    HW165445  10.961  12.861  11.606 -0.5566 -0.8642  2.2876
18505SOL    HW265446  10.975  12.749  11.505  0.4826  0.7476  0.5633
18506SOL     OW65447   3.091   1.299   4.682 -0.3267  0.0835 -0.1590
18506SOL    HW165448   3.037   1.354   4.740 -0.8961  2.3239 -2.6031
18506SOL    HW265449   3.044   1.216   4.677 -0.2315 -0.2057  2.5212
18507SOL     OW65450   9.848   1.773   0.170 -0.0145  0.4632 -0.0823
18507SOL    HW165451   9.803   1.856   0.161  0.6866  0.7158 -1.6004
18507SOL    HW265452   9.935   1.789   0.134  0.4866 -0.6485  0.5816
18508SOL     OW65453   5.192  11.695   4.920 -0.4887 -0.0368 -0.0580
18508SOL    HW165454   5.109  11.648   4.925  0.4741 -1.6803  1.6263
18508SOL    HW265455   5.185  11.749   4.841 -2.2120 -1.9540 -1.2800
18509SOL     OW65456  11.951  12.893   0.869  0.3938  0.2414 -0.0995
18509SOL    HW165457  11.942  12.840   0.948 -3.3112 -1.3807 -1.4061
18509SOL    HW265458  11.996  12.836   0.806  0.8699  0.5183 -0.0159
18510SOL     OW65459  10.091  12.452   3.049  0.3048  0.0954  0.0477
18510SOL    HW165460  10.059  12.474   3.137  0.3694  0.2791  0.0240
18510SOL    HW265461  10.172  12.501   3.040  1.4444 -1.5796  0.7216
18511SOL     OW65462  11.591   9.012   9.037 -0.1974  0.3504 -0.5762
18511SOL    HW165463  11.664   9.062   9.000 -0.3391  0.2800 -0.9574
18511SOL    HW265464  11.578   9.048   9.124 -0.1750  0.8461 -0.7770
18512SOL     OW65465   2.746   1.934   4.608 -0.2398 -0.2436 -0.6208
18512SOL    HW165466   2.762   1.890   4.524  0.3762 -1.5009  0.1234
18512SOL    HW265467   2.826   1.919   4.658 -0.9685 -0.3715  0.5451
18513SOL     OW65468   7.900   5.612   9.694  0.2015 -0.1754 -0.0353
18513SOL    HW165469   7.948   5.540   9.652 -0.7645 -1.7614  1.4138
18513SOL    HW265470   7.810   5.601   9.662 -0.3723 -0.9004  1.6973
18514SOL     OW65471   7.837   8.874  10.206 -0.3313  0.4132  0.2829
18514SOL    HW165472   7.806   8.944  10.263  1.7855  0.6575  1.2448
18514SOL    HW265473   7.855   8.801  10.265 -0.7370 -0.3019 -0.4633
18515SOL     OW65474   9.693  10.671   8.873  0.5962  0.2319 -0.4134
18515SOL    HW165475   9.729  10.622   8.799 -0.7164  0.9274 -1.5533
18515SOL    HW265476   9.649  10.604   8.926  0.4344 -0.0990 -0.9511
18516SOL     OW65477   8.594  11.211  11.967 -0.7345  0.2634 -0.3855
18516SOL    HW165478   8.575  11.118  11.981 -0.6075  0.1932 -0.6682
18516SOL    HW265479   8.676  11.211  11.918  0.4257  0.5729  1.4641
18517SOL     OW65480  11.159   1.816  10.588  0.1052 -0.1974  0.0912
18517SOL    HW165481  11.164   1.738  10.644  0.3189 -0.4072 -0.2154
18517SOL    HW265482  11.227   1.802  10.522  1.3507  1.0695  1.0531
18518SOL     OW65483  12.735   1.946   6.410  0.2662 -0.1974 -0.3871
18518SOL    HW165484  12.739   2.025   6.356 -2.9170  1.3027  1.3222
18518SOL    HW265485  12.660   1.897   6.377 -0.3301 -0.3979  1.1850
18519SOL     OW65486   2.591   9.983   9.441 -0.6246  0.0047  0.7627
18519SOL    HW165487   2.562  10.011   9.528  1.0340 -0.5082  1.5335
18519SOL    HW265488   2.590   9.887   9.445  0.0007 -0.0260  0.4342
18520SOL     OW65489   6.053   7.128   1.795  0.3378 -0.4557 -0.1741
18520SOL    HW165490   6.025   7.117   1.704  1.4464 -0.3973 -0.5418
18520SOL    HW265491   6.123   7.194   1.791 -0.4573  0.4969  0.8985
18521SOL     OW65492   4.255   6.651   4.626 -0.0275 -0.3592 -0.3157
18521SOL    HW165493   4.184   6.714   4.619 -1.7702 -1.9785  1.6332
18521SOL    HW265494   4.329   6.701   4.660 -1.2886  0.7145  0.9460
18522SOL     OW65495   9.417   0.320   9.733 -0.6555 -0.1742  0.0772
18522SOL    HW165496   9.386   0.277   9.654 -2.6428 -0.8348  1.1686
18522SOL    HW265497   9.509   0.295   9.739  0.1339  1.4760 -3.0260
18523SOL     OW65498  12.491   5.242   7.455  0.1618  0.2490  0.3706
18523SOL    HW165499  12.466   5.194   7.376  0.0380  0.8793  0.0233
18523SOL    HW265500  12.584   5.221   7.466 -0.1811 -1.0553  0.9300
18524SOL     OW65501   5.701  12.364   8.726 -0.7737  0.4300 -0.2169
18524SOL    HW165502   5.666  12.313   8.653  0.6280 -0.5056 -0.2642
18524SOL    HW265503   5.623  12.391   8.776 -1.5851 -2.7243  0.4481
18525SOL     OW65504   6.895   2.983  13.116  0.1117 -0.1207  0.2960
18525SOL    HW165505   6.806   2.951  13.100 -1.3208  3.2616  0.6624
18525SOL    HW265506   6.916   3.038  13.041  3.1947 -3.0064 -1.2085
18526SOL     OW65507   0.413  13.213   0.596 -0.5648  0.0727  0.2532
18526SOL    HW165508   0.492  13.200   0.649 -0.0635 -0.4885 -0.6186
18526SOL    HW265509   0.383  13.301   0.620  0.0141  0.0864  0.9880
18527SOL     OW65510   7.057   1.994   6.889 -0.2606 -1.0001  0.2106
18527SOL    HW165511   7.104   2.012   6.807 -1.0876 -1.8112 -0.4642
18527SOL    HW265512   7.094   1.912   6.921 -0.3657 -1.0013  0.3312
18528SOL     OW65513   7.857  13.164   0.898  0.1294  0.2787  0.3090
18528SOL    HW165514   7.862  13.071   0.880  1.1074  0.3085  0.3734
18528SOL    HW265515   7.832  13.204   0.814  1.5426  0.1227 -0.2081
18529SOL     OW65516  11.306   7.228   5.086 -0.1041  0.1440  0.1247
18529SOL    HW165517  11.279   7.191   5.002 -1.8837  0.6537  0.4193
18529SOL    HW265518  11.260   7.175   5.151 -0.9820  1.4849  0.6411
18530SOL     OW65519   3.969   7.468  10.219  0.2680 -0.1975  0.0903
18530SOL    HW165520   3.999   7.396  10.164 -0.6600  0.6607 -1.6060
18530SOL    HW265521   3.873   7.459  10.219  0.1883  0.5793  0.4999
18531SOL     OW65522   9.997  12.495   6.417 -0.1664  0.4513 -0.0902
18531SOL    HW165523  10.074  12.522   6.467 -0.0690  0.3637 -0.1904
18531SOL    HW265524   9.923  12.517   6.473 -0.1319  1.5506 -0.4516
18532SOL     OW65525   5.174  11.818   9.194 -0.4798  0.1613 -0.1935
18532SOL    HW165526   5.191  11.759   9.267  0.2901 -0.4256 -0.8369
18532SOL    HW265527   5.088  11.791   9.161 -0.8645  0.4777  0.5300
18533SOL     OW65528  13.280  10.955   6.765  0.2025 -0.3015  0.0265
18533SOL    HW165529  13.353  10.964   6.827  0.7416  0.0913 -0.6550
18533SOL    HW265530  13.229  10.882   6.799  1.2220 -0.9463  0.2070
18534SOL     OW65531   2.126   1.411   3.121  0.4309  0.1102  0.5790
18534SOL    HW165532   2.078   1.458   3.053 -0.2652 -2.5353 -0.8892
18534SOL    HW265533   2.202   1.374   3.077 -0.1170 -1.7913  1.1591
18535SOL     OW65534   6.278   8.400   3.557 -1.0744 -0.2622 -0.9853
18535SOL    HW165535   6.224   8.407   3.636  0.5743 -0.5865  0.2341
18535SOL    HW265536   6.315   8.488   3.547  1.2080 -0.9527  0.5431
18536SOL     OW65537   3.148  10.470   4.475 -0.3723  0.2399  0.4347
18536SOL    HW165538   3.222  10.499   4.529  1.4096  1.4128 -2.3619
18536SOL    HW265539   3.170  10.501   4.387 -4.0944  0.3579 -0.6296
18537SOL     OW65540   1.829  11.249   3.007  0.1879  0.0178  0.0800
18537SOL    HW165541   1.748  11.247   2.957 -0.9097  1.3108  1.7314
18537SOL    HW265542   1.892  11.201   2.952 -1.9156 -1.9558 -0.7682
18538SOL     OW65543   8.960   9.597   3.807 -0.2970 -0.3259 -0.1952
18538SOL    HW165544   8.950   9.503   3.790 -0.7251 -0.0877 -1.2615
18538SOL    HW265545   8.913   9.611   3.890 -0.2303 -1.0429 -0.0265
18539SOL     OW65546   5.751   2.989   0.969  0.4094  0.2842 -0.2250
18539SOL    HW165547   5.688   3.030   0.909 -0.3350  1.0765  1.0547
18539SOL    HW265548   5.703   2.914   1.005  0.8405 -0.1683 -0.5915
18540SOL     OW65549   0.028   4.019   6.152 -0.6543  0.6292  0.1178
18540SOL    HW165550   0.110   3.994   6.195 -0.6321  2.0189  0.9375
18540SOL    HW265551  -0.034   3.950   6.177  0.0556 -0.0371  0.0973
18541SOL     OW65552  10.422   7.343   4.665 -0.0998 -0.2875 -0.0149
18541SOL    HW165553  10.494   7.383   4.713  1.1705 -2.5555  0.1415
18541SOL    HW265554  10.353   7.331   4.730  0.9584 -1.7593  0.9247
18542SOL     OW65555   6.598   7.799   4.616  0.0832 -0.0107 -0.1228
18542SOL    HW165556   6.550   7.743   4.677  0.6095  0.7164  0.9829
18542SOL    HW265557   6.664   7.742   4.577 -2.2855 -1.3475 -2.5290
18543SOL     OW65558   8.664   0.707   5.684  0.0704  0.2587  0.0133
18543SOL    HW165559   8.632   0.618   5.701 -0.3518  0.2985 -0.5340
18543SOL    HW265560   8.687   0.706   5.591 -2.1109  1.3684 -0.5970
18544SOL     OW65561   5.508  10.929   8.685 -0.3021  0.6545 -0.4959
18544SOL    HW165562   5.486  10.841   8.655  0.5890  0.4755 -0.6489
18544SOL    HW265563   5.492  10.985   8.609 -2.8136  0.9682  0.1648
18545SOL     OW65564   0.284   0.126  12.626  0.5137  0.4915  0.6596
18545SOL    HW165565   0.277   0.128  12.721 -1.6886 -0.1650  0.5663
18545SOL    HW265566   0.363   0.075  12.609  0.2410 -0.4957  2.1518
18546SOL     OW65567   0.314   5.039  12.599  0.2009 -0.4322 -0.0258
18546SOL    HW165568   0.239   5.007  12.549  0.8758 -2.1188 -0.0513
18546SOL    HW265569   0.283   5.041  12.689  0.3676 -2.1023  0.1080
18547SOL     OW65570   9.300   8.220   8.722  0.3253 -0.2375 -0.3986
18547SOL    HW165571   9.257   8.221   8.637 -0.7489 -0.6509  0.1221
18547SOL    HW265572   9.307   8.128   8.745 -0.8130 -0.0994  0.6291
18548SOL     OW65573   0.996   7.364  12.611 -0.5673  0.5935 -0.1613
18548SOL    HW165574   1.089   7.351  12.631 -0.6795  0.4538  0.2776
18548SOL    HW265575   0.968   7.431  12.673 -0.9231  0.1427  0.1746
18549SOL     OW65576   0.537   2.112   6.170  0.4943  0.2064  0.2436
18549SOL    HW165577   0.617   2.089   6.123  0.4473  0.3707  0.0800
18549SOL    HW265578   0.551   2.082   6.259  1.5623  2.0912  0.7368
18550SOL     OW65579  12.172  13.062  10.391  0.2590 -0.0808 -0.1545
18550SOL    HW165580  12.077  13.050  10.389  0.2526 -0.6242  1.5724
18550SOL    HW265581  12.207  12.981  10.354  0.0770  0.6019 -1.9253
18551SOL     OW65582   4.886   4.867  11.892 -0.1539 -0.0334  0.3225
18551SOL    HW165583   4.977   4.839  11.899 -0.1238 -0.0326 -0.0585
18551SOL    HW265584   4.836   4.785  11.887 -0.1620 -0.0309  0.3608
18552SOL     OW65585   7.076   5.009  13.042  0.7305  0.4866  0.1438
18552SOL    HW165586   7.115   4.927  13.010  2.5510  1.1926  0.4363
18552SOL    HW265587   7.029   4.984  13.121  2.4656 -0.0811  1.0373
18553SOL     OW65588   9.837   6.548   0.777  0.6819 -0.2083 -0.1573
18553SOL    HW165589   9.795   6.522   0.860 -0.4930  1.2592 -0.2433
18553SOL    HW265590   9.911   6.602   0.804  1.3614 -1.1475 -0.0590
18554SOL     OW65591   9.509  12.987   2.242  0.1753  0.1237  0.4191
18554SOL    HW165592   9.585  12.930   2.230  0.9375  1.5163 -2.0497
18554SOL    HW265593   9.530  13.037   2.321  1.0249 -0.7050  0.7417
18555SOL     OW65594  12.478  10.512   0.455 -0.1713 -0.8785  0.1582
18555SOL    HW165595  12.411  10.577   0.477  1.8841  1.5348 -0.2756
18555SOL    HW265596  12.499  10.470   0.538 -1.8849 -1.4350  0.3678
18556SOL     OW65597  12.942   7.754   7.592  0.0305 -0.3151  0.2976
18556SOL    HW165598  13.035   7.755   7.570 -0.2283 -0.4757 -0.8755
18556SOL    HW265599  12.930   7.675   7.645  0.8590  0.6012  1.9173
18557SOL     OW65600   3.487   6.612   6.293  0.1221 -0.2289  0.2719
18557SOL    HW165601   3.430   6.537   6.280  0.2458 -0.3682  0.5440
18557SOL    HW265602   3.432   6.688   6.271  0.2526 -0.4437 -0.8769
18558SOL     OW65603   8.418   9.398   3.509  0.3438 -0.0620 -0.1114
18558SOL    HW165604   8.463   9.437   3.434  1.4908 -0.7132  0.2091
18558SOL    HW265605   8.488   9.360   3.562 -0.3960  0.7212  1.4995
18559SOL     OW65606   6.534   8.499  11.183 -0.6336  0.4763 -0.1211
18559SOL    HW165607   6.534   8.540  11.270 -1.9785 -0.9604  0.5895
18559SOL    HW265608   6.449   8.521  11.146  0.2175  1.7404 -1.4666
18560SOL     OW65609   4.640   6.717   6.334 -0.2012 -0.3228 -0.0643
18560SOL    HW165610   4.732   6.726   6.357 -0.2264  0.4098 -0.2167
18560SOL    HW265611   4.618   6.626   6.356  0.5997 -0.5565 -0.1995
18561SOL     OW65612  12.360   3.039  13.225  0.1032  0.1302  0.3533
18561SOL    HW165613  12.294   3.019  13.159  1.0579 -0.4345 -0.4572
18561SOL    HW265614  12.310   3.056  13.305 -1.0107 -0.2790 -0.2399
18562SOL     OW65615   6.291   4.898   0.292 -0.0030 -0.3456 -0.1053
18562SOL    HW165616   6.255   4.839   0.227 -1.5915 -0.0352  0.4229
18562SOL    HW265617   6.339   4.842   0.353  2.5219 -0.5064 -2.1069
18563SOL     OW65618   5.384   6.446   2.215  0.3178 -0.1604  0.1000
18563SOL    HW165619   5.384   6.352   2.197  1.1150 -0.1105 -0.2196
18563SOL    HW265620   5.463   6.478   2.172  1.1584  0.3113  1.9043
18564SOL     OW65621   9.230   3.901   3.013 -0.3431 -0.0689 -0.2785
18564SOL    HW165622   9.265   3.850   3.087 -0.1236  0.6741  0.1443
18564SOL    HW265623   9.203   3.835   2.950 -0.1100 -0.7159  0.2740
18565SOL     OW65624   4.837   3.266   1.443 -0.0979 -0.2498  0.0460
18565SOL    HW165625   4.891   3.333   1.486 -1.1641  0.7627 -0.1458
18565SOL    HW265626   4.789   3.313   1.376  1.4717 -1.7943 -2.3004
18566SOL     OW65627   4.778   1.324  12.720 -0.8220  0.5699 -0.1006
18566SOL    HW165628   4.705   1.276  12.680 -1.2851  0.5956  0.6849
18566SOL    HW265629   4.837   1.343  12.648 -0.8821 -0.7360 -0.5118
18567SOL     OW65630  12.403  12.102   8.020 -0.0881  0.6768 -0.3999
18567SOL    HW165631  12.320  12.056   8.033 -0.3710  1.2955  0.0115
18567SOL    HW265632  12.415  12.101   7.925  0.1692 -0.6840 -0.3709
18568SOL     OW65633   4.926   4.005   4.619  0.2191 -0.5907 -0.8840
18568SOL    HW165634   4.927   4.080   4.560  0.5741 -1.4339 -1.9753
18568SOL    HW265635   4.898   4.042   4.703  0.4223  0.7628 -1.3776
18569SOL     OW65636   5.668  13.102   2.618 -0.3166 -0.4658  0.2118
18569SOL    HW165637   5.750  13.120   2.664 -1.0596  0.9065  1.0718
18569SOL    HW265638   5.600  13.118   2.683 -1.4048  1.2293 -1.2622
18570SOL     OW65639   2.133   8.904   4.227  0.3796 -0.0897 -1.0214
18570SOL    HW165640   2.071   8.890   4.156 -0.2325 -0.5725 -0.4081
18570SOL    HW265641   2.219   8.890   4.188  0.0726  0.0471 -1.7532
18571SOL     OW65642   5.185   7.573   7.393 -0.2115  0.5621 -0.0938
18571SOL    HW165643   5.102   7.546   7.431  0.2701  0.1646  0.7106
18571SOL    HW265644   5.162   7.610   7.308 -1.0455 -1.1401 -0.6633
18572SOL     OW65645   7.899   9.352   4.595 -0.2390 -0.5969  0.0387
18572SOL    HW165646   7.928   9.428   4.646  1.8031 -0.7731 -0.8028
18572SOL    HW265647   7.930   9.276   4.644  2.7260 -0.7578 -1.9016
18573SOL     OW65648   4.543   6.166   2.705 -0.0707  0.2819 -0.5119
18573SOL    HW165649   4.552   6.103   2.634  0.6374  1.1841 -1.2396
18573SOL    HW265650   4.548   6.113   2.785 -1.4061 -0.7989 -1.1199
18574SOL     OW65651   5.135   3.414  10.917  0.5816  0.2231 -0.3568
18574SOL    HW165652   5.130   3.487  10.856 -0.1898  0.0774 -0.4735
18574SOL    HW265653   5.228   3.390  10.917  0.9231  1.4845  0.0333
18575SOL     OW65654  12.796   6.536   8.658  0.0766 -0.4182  0.5027
18575SOL    HW165655  12.751   6.595   8.719  0.6160  0.6816 -0.1369
18575SOL    HW265656  12.776   6.571   8.572 -0.3273 -1.7168  0.0462
18576SOL     OW65657   6.702  13.251   1.138  0.0979 -0.3392  0.0221
18576SOL    HW165658   6.759  13.255   1.215  1.3346 -0.6139 -0.8339
18576SOL    HW265659   6.684  13.342   1.115  0.1229 -0.2507  0.3622
18577SOL     OW65660   1.043  12.769   8.519 -0.4602 -0.0869  0.1774
18577SOL    HW165661   0.963  12.804   8.479 -0.0232  1.5893  0.6507
18577SOL    HW265662   1.013  12.725   8.598 -0.9256  0.8415  0.5440
18578SOL     OW65663   1.344   3.885   2.238 -0.3953  0.5702 -0.2298
18578SOL    HW165664   1.366   3.961   2.292 -0.6285  1.6598 -1.6055
18578SOL    HW265665   1.407   3.888   2.166 -1.3987  0.3708 -1.1340
18579SOL     OW65666   0.643   2.767   8.187  0.6180 -0.9887 -0.1454
18579SOL    HW165667   0.591   2.723   8.254  0.5357 -2.1833 -0.9644
18579SOL    HW265668   0.709   2.703   8.162  0.9979 -0.3528 -0.8097
18580SOL     OW65669  11.458  12.264   6.070  0.2881 -0.5431 -0.0154
18580SOL    HW165670  11.532  12.313   6.109  0.2987  0.0802 -0.7916
18580SOL    HW265671  11.470  12.275   5.976 -0.0722 -1.5436 -0.1824
18581SOL     OW65672  11.405   9.763   2.825  0.5253 -0.2776 -0.4562
18581SOL    HW165673  11.309   9.754   2.827  0.4424  0.3958 -1.2963
18581SOL    HW265674  11.432   9.739   2.914 -0.3621 -1.0982 -0.3860
18582SOL     OW65675   0.124   0.308   3.116  0.3890 -0.0305 -0.1459
18582SOL    HW165676   0.101   0.229   3.068 -3.5120  0.3334  0.7462
18582SOL    HW265677   0.208   0.288   3.157 -0.5886 -3.8824  0.3808
18583SOL     OW65678   4.604  13.250   5.997  0.4283 -0.6537 -0.5007
18583SOL    HW165679   4.573  13.221   6.083  0.4099  0.5519 -0.0847
18583SOL    HW265680   4.528  13.236   5.940 -0.6467  1.3764  0.3207
18584SOL     OW65681  11.872  13.041   9.996  0.7893  0.2998 -0.0479
18584SOL    HW165682  11.939  13.104  10.019  0.2913  0.8171  0.0146
18584SOL    HW265683  11.794  13.070  10.044 -0.4180  1.6572 -2.6362
18585SOL     OW65684  12.861   4.672  10.317  0.5600  0.0573  0.0536
18585SOL    HW165685  12.800   4.667  10.244 -0.9670  0.5926  1.2502
18585SOL    HW265686  12.815   4.632  10.390  1.6226  0.5309  1.0180
18586SOL     OW65687   0.837   3.015   0.873 -0.0072 -0.1686 -0.2294
18586SOL    HW165688   0.846   2.925   0.841 -1.8807 -0.5888  0.3156
18586SOL    HW265689   0.752   3.044   0.839 -0.9268  0.2266  2.2444
18587SOL     OW65690   6.040  10.190   4.520  0.0202  0.1180  0.8608
18587SOL    HW165691   6.065  10.190   4.612  0.8504  3.0194  0.7332
18587SOL    HW265692   6.121  10.211   4.473 -0.7318  0.3642 -0.3795
18588SOL     OW65693   2.077  13.103   0.254 -0.3635  0.3519  0.4967
18588SOL    HW165694   2.171  13.093   0.267  0.0083  3.2381  0.7217
18588SOL    HW265695   2.070  13.151   0.171 -1.6949 -0.2354  0.2407
18589SOL     OW65696   4.356  11.212   3.875  0.0221  0.1094 -0.0900
18589SOL    HW165697   4.320  11.285   3.824 -1.9085  0.5187  1.7544
18589SOL    HW265698   4.449  11.234   3.884  0.1378  0.7483 -2.1239
18590SOL     OW65699   4.474  12.908   2.868 -0.2569  0.3656 -0.3201
18590SOL    HW165700   4.532  12.932   2.795  0.1469  1.0697  0.2143
18590SOL    HW265701   4.472  12.986   2.923 -1.9242  0.4562 -0.4453
18591SOL     OW65702   0.578   0.845  10.420  0.4431  0.1904 -0.1102
18591SOL    HW165703   0.572   0.921  10.362  0.7870  0.8247  0.6657
18591SOL    HW265704   0.646   0.869  10.484 -0.5966 -0.0645  1.1501
18592SOL     OW65705   0.167   9.366   6.076  0.1111 -0.2346 -0.7387
18592SOL    HW165706   0.197   9.351   6.165  0.3436 -0.3893 -0.8427
18592SOL    HW265707   0.170   9.280   6.034  0.2196 -0.1263 -0.9602
18593SOL     OW65708   0.409   6.472   4.442  0.6747 -0.3254  0.0087
18593SOL    HW165709   0.393   6.505   4.353  0.1052  0.0043  0.2240
18593SOL    HW265710   0.364   6.388   4.445  1.3710 -0.7103 -0.2624
18594SOL     OW65711  12.934  10.870  10.012  0.2732  0.1566  0.5770
18594SOL    HW165712  12.857  10.855   9.957  0.8928 -3.0076  0.3716
18594SOL    HW265713  12.974  10.949   9.977 -1.5582  0.4993 -0.8818
18595SOL     OW65714   8.189  12.132  12.956 -0.4801 -0.2732 -0.1027
18595SOL    HW165715   8.200  12.200  13.023 -2.0160 -0.4862  0.4161
18595SOL    HW265716   8.196  12.178  12.873 -0.8004  0.4063  0.2394
18596SOL     OW65717  12.434  11.184  10.004 -0.2582 -0.3980 -0.3849
18596SOL    HW165718  12.433  11.274  10.035  0.6217 -0.1857 -0.9644
18596SOL    HW265719  12.360  11.143  10.050  0.0708  0.2880  0.8079
18597SOL     OW65720  11.926   3.654   1.699 -0.3751  0.7768 -0.3860
18597SOL    HW165721  11.924   3.651   1.795 -2.5844  0.5935 -0.4003
18597SOL    HW265722  12.002   3.709   1.679 -0.6279  1.9163  1.5141
18598SOL     OW65723   8.410   0.479   1.625 -0.0404 -0.3843  0.2410
18598SOL    HW165724   8.421   0.403   1.683 -2.0754 -1.2171 -0.3848
18598SOL    HW265725   8.393   0.441   1.539 -2.4835  0.6847  0.1733
18599SOL     OW65726  10.547   1.040   6.280  0.4133 -0.1000 -0.3498
18599SOL    HW165727  10.492   1.017   6.205 -0.4846  1.0910 -0.0853
18599SOL    HW265728  10.486   1.073   6.346  1.0660 -1.9709  1.2919
18600SOL     OW65729   2.846  12.415  10.054  0.2269 -0.0328 -0.4747
18600SOL    HW165730   2.877  12.333  10.017  1.9344 -0.4065  1.5573
18600SOL    HW265731   2.908  12.481  10.022  0.6866 -0.0765  0.2979
18601SOL     OW65732   4.594   8.388   5.603  0.3179 -0.1130 -0.0473
18601SOL    HW165733   4.688   8.378   5.593  0.2849 -0.2487 -0.2256
18601SOL    HW265734   4.582   8.423   5.692  0.7428  2.7723 -1.0177
18602SOL     OW65735   5.946   1.057   6.223  0.0240 -0.5541 -1.0592
18602SOL    HW165736   6.028   1.010   6.239 -1.1140 -2.0637  0.8584
18602SOL    HW265737   5.886   1.024   6.291 -1.3625  2.5311 -0.6343
18603SOL     OW65738   1.981   5.132   6.161  0.3210  0.6484 -0.9074
18603SOL    HW165739   2.048   5.137   6.093  0.4991 -0.2049 -0.8071
18603SOL    HW265740   1.942   5.045   6.151  0.4681  0.4374  0.1817
18604SOL     OW65741   0.592   0.621   1.639 -0.1468  0.3115  0.2319
18604SOL    HW165742   0.620   0.713   1.645 -1.1635  0.6133  0.5709
18604SOL    HW265743   0.638   0.587   1.562  0.0753  1.1740 -0.0318
18605SOL     OW65744   6.148   7.080   5.551  0.0138  0.6248 -0.0240
18605SOL    HW165745   6.054   7.068   5.561  0.1346 -0.1789  0.2007
18605SOL    HW265746   6.175   7.012   5.490  0.3479  1.2950 -0.6410
18606SOL     OW65747  12.312   0.347   0.476  0.1002  0.0097  0.2890
18606SOL    HW165748  12.280   0.280   0.537 -1.8684  0.5223 -0.1251
18606SOL    HW265749  12.286   0.430   0.515 -0.0385  0.4051 -0.6249
18607SOL     OW65750  11.630   8.397   0.216  0.1964  0.0144 -0.3455
18607SOL    HW165751  11.629   8.332   0.145  0.8430 -0.2143 -0.1545
18607SOL    HW265752  11.635   8.481   0.170 -3.6469  0.2081 -0.7237
18608SOL     OW65753   8.176  10.833   4.034  0.4705  0.1488 -0.3640
18608SOL    HW165754   8.136  10.758   4.078 -0.4633 -0.6015 -2.3795
18608SOL    HW265755   8.270  10.816   4.039  0.3851  0.0755  1.2632
18609SOL     OW65756  13.161   7.056  13.062 -0.2673 -0.1268 -0.2438
18609SOL    HW165757  13.075   7.075  13.100  0.2941  1.6714  0.2191
18609SOL    HW265758  13.220   7.118  13.103  1.0752 -0.6354 -1.3194
18610SOL     OW65759   4.406  12.920   3.592 -0.3032  0.1545  0.5512
18610SOL    HW165760   4.451  12.943   3.673 -0.1220  0.8284  0.2651
18610SOL    HW265761   4.471  12.869   3.542 -0.6220 -0.7977  1.0792
18611SOL     OW65762   7.066   7.849   4.489 -0.2919 -1.2139 -0.5379
18611SOL    HW165763   6.975   7.823   4.498 -0.4099 -0.2073  1.8239
18611SOL    HW265764   7.076   7.871   4.396 -2.2896 -1.8091 -0.9369
18612SOL     OW65765  13.035   9.029   3.854 -0.2369 -0.1686 -0.1740
18612SOL    HW165766  13.042   9.092   3.782 -3.1100 -1.0187 -1.3574
18612SOL    HW265767  13.011   9.082   3.930 -0.2834  0.4416 -0.6039
18613SOL     OW65768   8.978   9.203  10.416 -1.3793  0.1483 -0.2775
18613SOL    HW165769   9.028   9.146  10.357  0.2676  2.2708 -1.0732
18613SOL    HW265770   8.995   9.168  10.503  1.8554  0.9542 -0.4831
18614SOL     OW65771  10.799   4.052   7.249 -0.3972 -0.3907  0.2288
18614SOL    HW165772  10.861   3.987   7.281 -0.2442 -0.1231  0.4837
18614SOL    HW265773  10.815   4.057   7.154 -0.1508 -0.4481  0.2680
18615SOL     OW65774   7.511   5.370   5.980  0.2055 -0.0112  0.0924
18615SOL    HW165775   7.459   5.448   5.962  0.5315  0.0651 -0.5574
18615SOL    HW265776   7.594   5.385   5.934  0.7779 -0.1597  1.0557
18616SOL     OW65777   7.971   7.195  11.497 -0.3978 -0.0971  0.1493
18616SOL    HW165778   7.910   7.124  11.476 -1.0264  0.0741  1.2951
18616SOL    HW265779   7.922   7.252  11.556  1.4733 -0.9771  2.7286
18617SOL     OW65780   9.359   1.337   2.468  0.0574 -0.1446  0.3231
18617SOL    HW165781   9.292   1.394   2.430  0.9466  0.5788 -0.1945
18617SOL    HW265782   9.415   1.395   2.519 -0.3166 -0.9078  1.6459
18618SOL     OW65783   4.820   9.330   2.382 -0.0247 -0.1381 -0.0180
18618SOL    HW165784   4.747   9.277   2.414  0.8668 -1.2067  0.3278
18618SOL    HW265785   4.840   9.293   2.295 -0.1681  0.4230 -0.2897
18619SOL     OW65786   4.210   9.785   4.117 -0.0729 -0.3525 -0.1700
18619SOL    HW165787   4.180   9.701   4.151  0.9834 -0.8175 -0.3492
18619SOL    HW265788   4.223   9.770   4.023 -1.1033  0.3812 -0.4547
18620SOL     OW65789  10.662   1.275   2.510  0.1229  0.2154 -0.6431
18620SOL    HW165790  10.689   1.305   2.597 -1.4097 -0.2071  0.0025
18620SOL    HW265791  10.686   1.183   2.507 -0.4833  0.0444 -0.3768
18621SOL     OW65792   0.840   6.548   0.278 -0.3396 -0.3387 -0.2974
18621SOL    HW165793   0.883   6.587   0.355  0.1924 -0.8382 -0.3402
18621SOL    HW265794   0.905   6.555   0.208 -0.5199 -0.6382 -0.4950
18622SOL     OW65795   6.598   0.096  10.896  0.9422  0.5544 -0.0860
18622SOL    HW165796   6.538   0.069  10.826  1.3410 -2.2174  0.5119
18622SOL    HW265797   6.541   0.128  10.966  0.1405 -1.2007  0.1315
18623SOL     OW65798   7.150   4.254   4.143  0.1453 -0.1664 -0.1430
18623SOL    HW165799   7.111   4.169   4.123 -0.3519 -0.1425  0.6594
18623SOL    HW265800   7.168   4.250   4.237  0.8174  0.3388 -0.2469
18624SOL     OW65801   5.847   7.134   4.335  0.1927  0.4906 -0.1692
18624SOL    HW165802   5.926   7.080   4.334  0.8354  1.3812  1.0079
18624SOL    HW265803   5.851   7.184   4.253  0.8795  0.5737 -0.0896
18625SOL     OW65804  11.174   5.226   0.598 -0.0806  0.0838 -0.0350
18625SOL    HW165805  11.261   5.264   0.606 -0.0679  0.0459  0.0090
18625SOL    HW265806  11.122   5.294   0.554 -0.2999  0.5330  0.8886
18626SOL     OW65807   4.565   4.562   5.451 -0.2161  0.2465  0.1421
18626SOL    HW165808   4.523   4.476   5.447 -0.1773  0.2794 -1.9013
18626SOL    HW265809   4.630   4.554   5.521 -0.3188 -1.3249  0.0894
18627SOL     OW65810   0.048   3.669   9.662  0.0213 -0.0920 -0.0089
18627SOL    HW165811   0.069   3.619   9.740 -2.3903 -0.1494  0.7027
18627SOL    HW265812   0.096   3.626   9.591  0.4935 -1.4340  1.0945
18628SOL     OW65813   0.323   0.307   6.082 -0.4702  0.0080 -0.3278
18628SOL    HW165814   0.383   0.273   6.015 -0.6895 -0.5605 -0.2431
18628SOL    HW265815   0.297   0.393   6.049 -0.9208 -0.4439 -1.2156
18629SOL     OW65816   2.209  11.854  12.311  0.0821  0.2188 -0.0881
18629SOL    HW165817   2.273  11.845  12.381  0.7197 -1.4296 -0.8608
18629SOL    HW265818   2.259  11.883  12.235  0.0509 -1.6194 -0.8475
18630SOL     OW65819   1.311  10.085   6.451  0.2853  0.0367 -0.4069
18630SOL    HW165820   1.339  10.039   6.530  0.5695  1.1433  0.1533
18630SOL    HW265821   1.239  10.032   6.418 -0.1780 -0.1941  0.8841
18631SOL     OW65822   8.674   0.291  10.892  0.1353  0.1580  0.1639
18631SOL    HW165823   8.751   0.237  10.912  1.2736  1.5484 -0.2389
18631SOL    HW265824   8.651   0.331  10.976  0.2944  0.2826  0.1491
18632SOL     OW65825  11.295  13.269  11.788  0.6344 -0.3985 -0.3512
18632SOL    HW165826  11.337  13.301  11.709 -2.2686 -1.4547 -2.5226
18632SOL    HW265827  11.229  13.335  11.809  1.2200 -0.2384  1.1089
18633SOL     OW65828   6.017   4.015   3.402  0.4855 -0.0856 -0.5139
18633SOL    HW165829   6.016   4.007   3.498  0.9220 -0.4269 -0.5310
18633SOL    HW265830   6.014   3.924   3.371 -2.2119  0.0597 -0.8831
18634SOL     OW65831   4.415  11.482  10.910 -0.2070 -0.4416 -0.2837
18634SOL    HW165832   4.437  11.545  10.841  0.3704 -0.9863 -0.6088
18634SOL    HW265833   4.319  11.482  10.912 -0.2572 -0.8799 -1.5429
18635SOL     OW65834  13.038   1.730   9.659 -0.0325 -0.6399 -0.6474
18635SOL    HW165835  13.104   1.734   9.589  0.4899 -2.6052 -0.3064
18635SOL    HW265836  13.081   1.683   9.730 -1.1832 -0.2699  0.3323
18636SOL     OW65837   4.266   2.205   9.427 -0.1122 -0.1470  0.0482
18636SOL    HW165838   4.177   2.185   9.398 -0.2781  1.3804 -0.6190
18636SOL    HW265839   4.269   2.174   9.517 -1.1370 -0.7184 -0.0939
18637SOL     OW65840   9.068   1.493   2.640  0.1063 -0.9437 -0.1169
18637SOL    HW165841   9.028   1.418   2.685  0.3867 -1.6514 -1.0014
18637SOL    HW265842   9.029   1.570   2.681 -0.2144 -1.5736  0.7958
18638SOL     OW65843   0.056  11.698   5.481 -0.2466 -0.3372 -0.1749
18638SOL    HW165844   0.106  11.632   5.529  0.7139  0.3658 -0.1859
18638SOL    HW265845   0.085  11.782   5.517 -1.0571  0.1132 -0.5310
18639SOL     OW65846   1.802   5.999   1.716  0.0252  0.3552  0.3176
18639SOL    HW165847   1.786   6.093   1.710 -1.1457  0.0969 -1.2638
18639SOL    HW265848   1.733   5.959   1.662  1.2435 -1.3356 -0.0734
18640SOL     OW65849   3.293  12.151   6.589 -0.2121  0.1853  0.1440
18640SOL    HW165850   3.348  12.169   6.665  1.0740 -0.5694 -0.5686
18640SOL    HW265851   3.317  12.218   6.525 -0.7409  0.3567  0.1163
18641SOL     OW65852   3.268   2.164  11.431  0.0410 -0.2873 -0.2449
18641SOL    HW165853   3.194   2.160  11.492  0.4709 -0.1131  0.3081
18641SOL    HW265854   3.325   2.092  11.459  0.4563  0.0753 -0.1433
18642SOL     OW65855  12.307   2.304  13.201  0.1683  0.3638  0.2990
18642SOL    HW165856  12.378   2.325  13.261 -0.6830 -0.8091  1.7979
18642SOL    HW265857  12.350   2.287  13.117  1.4974  0.9812  0.8395
18643SOL     OW65858  11.858  12.446   9.350 -0.5231 -0.7337 -0.3242
18643SOL    HW165859  11.826  12.377   9.292 -2.8531  0.1182 -0.1659
18643SOL    HW265860  11.792  12.452   9.419  0.5633  0.4117  0.6679
18644SOL     OW65861  13.061   9.931   9.687  0.5531 -0.2156  0.0091
18644SOL    HW165862  12.985   9.880   9.656 -0.2080  0.4402  0.7391
18644SOL    HW265863  13.086   9.889   9.769  0.1076  0.3851  0.4639
18645SOL     OW65864   0.829   5.444   6.996 -0.1132 -0.1939  0.2502
18645SOL    HW165865   0.913   5.462   6.954 -0.7792  1.0985 -0.6071
18645SOL    HW265866   0.851   5.425   7.088  1.2615 -1.9231 -0.3858
18646SOL     OW65867   5.412   1.115  12.708  0.8128  0.4845 -0.1146
18646SOL    HW165868   5.464   1.185  12.747 -0.4302  2.2598 -1.4667
18646SOL    HW265869   5.322   1.134  12.735  0.4857 -0.7922 -0.2401
18647SOL     OW65870   0.872   1.085   4.514  0.2713  0.3856  0.3284
18647SOL    HW165871   0.801   1.039   4.469 -0.3067  1.4337  0.1237
18647SOL    HW265872   0.876   1.045   4.601 -1.9199  1.5615  1.0679
18648SOL     OW65873   2.413   4.611   8.012  0.0241 -0.0435 -0.0291
18648SOL    HW165874   2.402   4.516   8.020 -1.5950 -0.0682 -1.9345
18648SOL    HW265875   2.489   4.630   8.067 -0.3184 -2.2524  1.3522
18649SOL     OW65876   5.087   2.817   0.236  0.4806 -0.1037  0.3339
18649SOL    HW165877   5.045   2.735   0.262 -0.2390 -0.4155 -1.6380
18649SOL    HW265878   5.113   2.858   0.319 -1.6796 -0.9828  1.5271
18650SOL     OW65879   3.432   3.136  10.456 -0.0417 -0.0031 -0.4865
18650SOL    HW165880   3.427   3.182  10.540  0.0916 -0.5911 -0.1480
18650SOL    HW265881   3.394   3.049  10.474 -0.2471 -0.0468 -1.0994
18651SOL     OW65882   1.475   7.824   8.812  0.0851  0.1441  0.3654
18651SOL    HW165883   1.561   7.838   8.771  1.4540  0.6107  3.1711
18651SOL    HW265884   1.473   7.887   8.884 -2.0277 -0.8754  1.2614
18652SOL     OW65885   8.022   3.691   0.014 -0.2550 -0.6368  0.7061
18652SOL    HW165886   7.934   3.696  -0.023  0.1346 -0.8769 -0.2932
18652SOL    HW265887   8.050   3.782   0.023 -1.0122 -0.5079  2.0998
18653SOL     OW65888   8.683   1.986   4.417 -0.1177 -0.2412  0.1131
18653SOL    HW165889   8.714   1.907   4.461 -0.2483 -0.4868 -0.2298
18653SOL    HW265890   8.746   2.001   4.347 -0.0369  0.0207  0.2381
18654SOL     OW65891   9.311   4.257  13.203  0.1142 -0.0046  0.6494
18654SOL    HW165892   9.360   4.176  13.218 -1.2979 -1.0569 -0.1533
18654SOL    HW265893   9.243   4.257  13.270 -0.5281 -0.0141  0.0037
18655SOL     OW65894  12.010   7.608   5.875 -0.3911 -0.3800 -0.3813
18655SOL    HW165895  12.033   7.616   5.968 -1.5972 -1.5900  0.0753
18655SOL    HW265896  11.983   7.696   5.849  2.1234  0.4927 -0.2626
18656SOL     OW65897   5.138  11.806   7.496  0.1126  0.2821 -0.1108
18656SOL    HW165898   5.099  11.770   7.575 -1.2832 -0.2170 -0.9764
18656SOL    HW265899   5.216  11.851   7.526  1.1020 -2.1403  1.2227
18657SOL     OW65900   4.122   2.198  12.488 -0.0354 -0.1707  0.0976
18657SOL    HW165901   4.117   2.149  12.570 -4.4688 -0.0073  0.1391
18657SOL    HW265902   4.187   2.150  12.436  1.5766 -1.3260  2.9373
18658SOL     OW65903   9.435   4.794   2.004 -0.3953 -0.1715 -0.3936
18658SOL    HW165904   9.454   4.882   2.037  2.8901 -0.7964 -0.2628
18658SOL    HW265905   9.488   4.736   2.059 -0.5580 -1.9737 -2.0472
18659SOL     OW65906  11.586   3.847  10.184 -0.2879  0.3833  0.0331
18659SOL    HW165907  11.523   3.844  10.256 -1.0593  0.4066 -0.6296
18659SOL    HW265908  11.657   3.789  10.212  0.4073  1.9391  1.7069
18660SOL     OW65909   1.145   9.280   3.220  0.4303  0.1525  0.0986
18660SOL    HW165910   1.085   9.233   3.277  1.5129 -1.0691  0.2757
18660SOL    HW265911   1.163   9.219   3.148  1.4938  0.4612  0.0781
18661SOL     OW65912   2.489   1.208  10.288  0.0023 -0.5095 -0.5488
18661SOL    HW165913   2.476   1.159  10.207  0.4054 -1.0774 -0.2727
18661SOL    HW265914   2.583   1.217  10.297  0.1220 -2.5168  1.0465
18662SOL     OW65915   1.586   2.006   3.830 -0.4308 -0.3273  0.2319
18662SOL    HW165916   1.656   1.957   3.786 -0.8274  0.5174 -1.3884
18662SOL    HW265917   1.573   2.084   3.776 -2.4715 -0.3476  0.6375
18663SOL     OW65918  12.590   4.764   3.365 -0.5614  0.0817  0.0722
18663SOL    HW165919  12.539   4.829   3.316  0.0750  1.9736  1.7744
18663SOL    HW265920  12.528   4.728   3.428 -0.1814  1.4045  1.2453
18664SOL     OW65921   3.786  10.868   3.991  0.1972  0.1162 -0.0677
18664SOL    HW165922   3.866  10.881   4.041  0.6440  1.4126 -1.0631
18664SOL    HW265923   3.807  10.798   3.930  0.2048 -0.3057  0.4161
18665SOL     OW65924   2.922   7.933   1.121  0.3803 -0.1060  0.8456
18665SOL    HW165925   2.833   7.902   1.138  0.0750  0.9294  1.2254
18665SOL    HW265926   2.928   8.016   1.169  0.7618  1.0025 -0.9864
18666SOL     OW65927  11.661   9.342   1.239  0.0310  0.3763 -0.3324
18666SOL    HW165928  11.748   9.376   1.258  0.6090 -0.0705 -2.0388
18666SOL    HW265929  11.639   9.378   1.153 -1.0931 -0.2175 -0.3116
18667SOL     OW65930  12.208   8.159  12.573  0.1440 -0.2814  0.2282
18667SOL    HW165931  12.237   8.143  12.663 -0.0842 -0.3747  0.2864
18667SOL    HW265932  12.140   8.094  12.558 -2.1322  1.7531  1.1099
18668SOL     OW65933  10.646   0.143   8.595 -0.2616  0.4530 -0.1914
18668SOL    HW165934  10.614   0.094   8.520 -1.6735  1.0854 -0.0433
18668SOL    HW265935  10.736   0.167   8.572 -0.7952  0.9837 -1.8413
18669SOL     OW65936   2.832   1.232   3.808  0.1366 -0.2865 -0.1731
18669SOL    HW165937   2.810   1.315   3.766  0.7262  0.1424  0.3488
18669SOL    HW265938   2.909   1.201   3.761  0.2609 -0.2468  0.0012
18670SOL     OW65939   2.438   9.721   0.130  0.5036 -0.1735  0.3633
18670SOL    HW165940   2.427   9.660   0.056  0.4031 -0.4309  0.5874
18670SOL    HW265941   2.477   9.668   0.199  0.5801  0.0634  0.5029
18671SOL     OW65942   2.353   0.576   4.253  0.0205 -0.2204 -0.3613
18671SOL    HW165943   2.258   0.565   4.248  0.1144 -0.5547 -1.9738
18671SOL    HW265944   2.384   0.500   4.301 -0.4366 -0.6932 -0.8075
18672SOL     OW65945   4.798   7.393  12.365  0.0591 -0.2475  0.7798
18672SOL    HW165946   4.752   7.385  12.449 -0.7903 -2.3784  0.1615
18672SOL    HW265947   4.879   7.344  12.377  0.3611  0.2045  0.6216
18673SOL     OW65948   3.084   2.762   4.984 -0.4263  0.3101  0.2017
18673SOL    HW165949   3.075   2.824   4.911 -0.6301 -1.0182 -0.9375
18673SOL    HW265950   2.994   2.738   5.006 -0.4518  1.6496  1.7893
18674SOL     OW65951   7.836   4.941  10.163 -0.4355  0.1714 -0.1809
18674SOL    HW165952   7.889   4.877  10.210 -1.2917 -1.1520 -0.9563
18674SOL    HW265953   7.889   4.964  10.087 -0.1904  0.2541  0.0150
18675SOL     OW65954  12.449   1.344   7.278 -0.1654  0.2655 -0.1478
18675SOL    HW165955  12.378   1.292   7.239 -0.3337  0.5305 -0.2016
18675SOL    HW265956  12.520   1.282   7.290 -0.6197 -0.1482  0.4866
18676SOL     OW65957   0.753   6.696  12.996  0.2165  0.4588  0.1102
18676SOL    HW165958   0.834   6.733  13.031 -0.3283  1.0886  0.7558
18676SOL    HW265959   0.703   6.772  12.966 -1.0528  0.3181  1.7411
18677SOL     OW65960   6.326  10.661   4.714  0.1469 -0.7334  0.4736
18677SOL    HW165961   6.308  10.572   4.744  0.1541 -1.0506 -0.4220
18677SOL    HW265962   6.334  10.653   4.619  1.4184  0.0080  0.4917
18678SOL     OW65963   3.815  10.954   6.438 -0.2259  0.1269 -0.0430
18678SOL    HW165964   3.819  11.050   6.435  1.1915  0.0691 -0.6943
18678SOL    HW265965   3.728  10.933   6.404 -0.2344  1.1630 -0.7059
18679SOL     OW65966   7.994   6.618   3.597  0.0812  0.3637  0.3544
18679SOL    HW165967   7.913   6.667   3.613  0.3395  0.4571  1.5210
18679SOL    HW265968   8.062   6.686   3.595  0.2163  0.2213  0.0717
18680SOL     OW65969   7.213   5.573  10.276  0.9391 -0.1373 -0.2061
18680SOL    HW165970   7.214   5.564  10.181  2.4056 -0.1819 -0.2103
18680SOL    HW265971   7.160   5.650  10.293  0.1633 -0.4847 -1.0243
18681SOL     OW65972   3.450  11.921   0.738 -0.2386 -0.9338 -0.1763
18681SOL    HW165973   3.394  11.972   0.679  0.4440 -0.5515 -0.5086
18681SOL    HW265974   3.512  11.877   0.680 -0.7242 -2.0387  0.1201
18682SOL     OW65975   6.128  10.836   8.376  0.7132 -0.0574 -0.2071
18682SOL    HW165976   6.049  10.848   8.428 -0.1709  0.9047 -1.6914
18682SOL    HW265977   6.194  10.807   8.439 -0.5323  0.1448  1.2541
18683SOL     OW65978   0.259   0.345   3.393 -0.0672  0.3292  0.3594
18683SOL    HW165979   0.203   0.329   3.469  0.4362  1.5212  1.0046
18683SOL    HW265980   0.260   0.440   3.384  2.8317  0.4666  1.1511
18684SOL     OW65981   2.677   3.756   0.740 -0.0024 -0.1465 -0.1508
18684SOL    HW165982   2.667   3.797   0.826 -1.5315 -0.3303 -0.2152
18684SOL    HW265983   2.613   3.685   0.739  0.8963 -0.9865 -0.9659
18685SOL     OW65984  13.269   3.170   9.044  0.3285 -0.6468 -0.0529
18685SOL    HW165985  13.231   3.245   8.998 -2.5290 -2.3700 -0.7556
18685SOL    HW265986  13.335   3.208   9.102  0.2453  2.1886 -1.6499
18686SOL     OW65987   3.746   4.727  11.858  0.2919  0.1978  0.2763
18686SOL    HW165988   3.773   4.787  11.789  0.3211  0.0240  0.1357
18686SOL    HW265989   3.724   4.646  11.812 -0.9771  0.4909  0.3254
18687SOL     OW65990   5.727   0.096   0.776  0.3455  0.3274  0.4272
18687SOL    HW165991   5.641   0.113   0.736  1.0193  0.9049 -0.8152
18687SOL    HW265992   5.706   0.054   0.859 -1.1054 -1.2925 -0.6875
18688SOL     OW65993   7.312  10.269   3.276  0.2467  0.3464 -0.1184
18688SOL    HW165994   7.309  10.358   3.241 -3.7192  0.5576  0.2829
18688SOL    HW265995   7.299  10.280   3.370 -1.2561 -0.6244 -0.1801
18689SOL     OW65996   0.382  11.750   1.242 -0.4395  0.3546  0.2822
18689SOL    HW165997   0.396  11.829   1.294  0.3546  1.1024 -0.9984
18689SOL    HW265998   0.408  11.775   1.153 -0.6812 -1.1981 -0.2622
18690SOL     OW65999   9.645   9.554   2.025  0.3907 -0.0420 -0.1717
18690SOL    HW166000   9.588   9.489   2.067 -0.6669 -0.7037 -2.4810
18690SOL    HW266001   9.734   9.520   2.038 -0.1478 -2.2404 -1.6474
18691SOL     OW66002   4.631   5.735   1.658 -0.6081  0.0958 -0.4296
18691SOL    HW166003   4.703   5.789   1.624 -1.5420  2.7607  1.5219
18691SOL    HW266004   4.647   5.728   1.752 -0.9396 -2.5442 -0.4758
18692SOL     OW66005   0.001  11.653   4.044 -0.0174 -0.3286  0.5641
18692SOL    HW166006   0.014  11.708   3.967  0.1747 -1.5364 -0.2846
18692SOL    HW266007  -0.065  11.700   4.096  0.7065  1.0812  0.2541
18693SOL     OW66008  10.079   7.238   0.727  0.4951  0.5963 -0.2880
18693SOL    HW166009  10.158   7.214   0.776  0.0980 -0.0641  0.0419
18693SOL    HW266010  10.071   7.333   0.740  0.2875  0.4062  1.1253
18694SOL     OW66011  10.899  11.243   8.998 -0.0485  0.4326  0.2723
18694SOL    HW166012  10.955  11.272   8.927  1.2456 -2.3326  0.0054
18694SOL    HW266013  10.818  11.293   8.988  0.5032  0.9238 -2.4694
18695SOL     OW66014   4.530   3.932   9.035 -0.1511 -0.6533 -0.1815
18695SOL    HW166015   4.537   3.974   9.121  0.0161 -2.9276  0.9829
18695SOL    HW266016   4.439   3.946   9.009  0.3285  1.9731 -0.7536
18696SOL     OW66017   4.164  12.096   1.130  0.3940  0.3390  0.0369
18696SOL    HW166018   4.243  12.049   1.156 -0.5265 -1.7346 -0.7300
18696SOL    HW266019   4.114  12.106   1.211  0.1807 -0.8561  0.0599
18697SOL     OW66020   3.608  12.249  11.939 -0.3803  0.1896 -0.0637
18697SOL    HW166021   3.570  12.337  11.945 -0.7522  0.2172 -2.1653
18697SOL    HW266022   3.577  12.216  11.855  0.1577 -1.7804  0.4739
18698SOL     OW66023  10.275   4.841   0.958  0.0532  0.5496 -0.0120
18698SOL    HW166024  10.279   4.806   1.047  0.8028  1.8137  0.4803
18698SOL    HW266025  10.346   4.797   0.912 -0.5744 -0.3925 -0.1126
18699SOL     OW66026   9.230   9.688   1.636  0.8010  0.1594 -0.0302
18699SOL    HW166027   9.287   9.626   1.592  0.1127  1.5621 -3.1612
18699SOL    HW266028   9.142   9.650   1.628  0.5088  1.0080 -1.0762
18700SOL     OW66029   6.346   0.060  12.362  0.1425 -0.1960 -0.1893
18700SOL    HW166030   6.325   0.139  12.412 -0.8453  0.2524 -1.2637
18700SOL    HW266031   6.441   0.061  12.353  0.0230  2.0310 -1.9887
18701SOL     OW66032   1.496   1.525  11.110 -0.1485 -0.3452  0.2230
18701SOL    HW166033   1.555   1.597  11.132 -0.4346  0.2029 -0.7350
18701SOL    HW266034   1.415   1.544  11.158  0.1422 -0.6090  0.8188
18702SOL     OW66035   2.032   9.893   5.175  0.3165  0.2680  0.4658
18702SOL    HW166036   2.044   9.812   5.225  1.3334  0.8281  1.1700
18702SOL    HW266037   2.114   9.904   5.128 -0.0841  0.5302 -0.1867
18703SOL     OW66038  10.253   8.057  13.126 -0.0398 -0.0122  0.3592
18703SOL    HW166039  10.344   8.029  13.138 -0.0010  0.5602  1.6377
18703SOL    HW266040  10.202   7.976  13.123  0.5093 -0.3379 -0.3948
18704SOL     OW66041   4.166  12.017   6.289  0.0943 -0.2016 -0.3307
18704SOL    HW166042   4.174  12.032   6.383  1.6813  0.1787 -0.5093
18704SOL    HW266043   4.103  11.945   6.281  0.4692 -0.6984  1.0349
18705SOL     OW66044   2.801   0.185  10.897 -0.1073  0.1298 -0.6696
18705SOL    HW166045   2.893   0.187  10.873 -0.0292 -1.0276 -0.5016
18705SOL    HW266046   2.791   0.257  10.960  1.3627 -1.5371  1.6123
18706SOL     OW66047   4.228   5.004   3.764  0.5886 -0.0823  0.0193
18706SOL    HW166048   4.259   5.039   3.681  1.3521 -1.8655 -0.4908
18706SOL    HW266049   4.293   4.937   3.788 -0.9440 -1.3767  0.7624
18707SOL     OW66050   1.766   9.270   2.943  0.4773  0.6136 -0.0817
18707SOL    HW166051   1.753   9.356   2.903 -0.0921  0.3893 -0.3939
18707SOL    HW266052   1.813   9.288   3.025 -0.5197  1.3360  0.3586
18708SOL     OW66053  12.803  11.602   3.242 -0.4351 -0.4543 -0.5639
18708SOL    HW166054  12.745  11.658   3.294 -0.4479 -0.8684 -0.1322
18708SOL    HW266055  12.799  11.639   3.153 -1.0468 -0.2429 -0.4481
18709SOL     OW66056  10.389   9.789   5.861  0.7172 -0.0357 -0.4528
18709SOL    HW166057  10.308   9.748   5.891  1.0085 -0.5069 -0.3052
18709SOL    HW266058  10.365   9.832   5.779  0.5007 -0.8690 -0.8381
18710SOL     OW66059  12.267  12.091   1.187 -0.0563 -0.1652 -0.6321
18710SOL    HW166060  12.349  12.099   1.236  0.2616  1.2538 -1.3394
18710SOL    HW266061  12.218  12.023   1.233 -1.3253  3.3704  3.9271
18711SOL     OW66062  12.815   5.279  12.399 -0.3959  0.1957  0.4832
18711SOL    HW166063  12.742   5.224  12.426  1.6379 -1.7491  2.4937
18711SOL    HW266064  12.879   5.217  12.364  0.6483  1.7160 -0.3700
18712SOL     OW66065   8.124   2.359  11.982  0.0752 -0.6784 -0.5015
18712SOL    HW166066   8.193   2.419  12.011 -1.3085  1.8813 -2.0552
18712SOL    HW266067   8.086   2.324  12.063  0.5210  1.1167  0.5421
18713SOL     OW66068  11.784   1.741   2.037  0.0161  0.6623  0.3192
18713SOL    HW166069  11.867   1.764   1.995 -0.8474  1.4082 -1.0753
18713SOL    HW266070  11.776   1.647   2.023  0.6211  0.5788  0.4783
18714SOL     OW66071   8.429   1.746   2.905  0.1403  0.3458 -0.1867
18714SOL    HW166072   8.380   1.668   2.934  0.1045  0.8964  1.3422
18714SOL    HW266073   8.419   1.747   2.810 -0.4862 -1.1006 -0.1611
18715SOL     OW66074  11.688   6.955   8.276 -0.3217  0.1215 -0.9913
18715SOL    HW166075  11.598   6.987   8.275 -0.4956 -0.1532  1.0400
18715SOL    HW266076  11.679   6.861   8.259 -0.5481 -0.0832  0.1631
18716SOL     OW66077   9.470   8.304   8.942  0.5555 -0.4184 -0.1140
18716SOL    HW166078   9.429   8.263   8.866  0.9715  0.3126 -0.7355
18716SOL    HW266079   9.497   8.230   8.997  1.1895 -0.9906 -1.1657
18717SOL     OW66080   5.234   2.291   5.632  0.7949  0.4647  0.2307
18717SOL    HW166081   5.298   2.320   5.568  1.1919  0.6187  0.6866
18717SOL    HW266082   5.286   2.274   5.711  0.4410 -0.5791  0.2520
18718SOL     OW66083   6.745   4.777   9.496 -0.8808 -0.0743 -0.3714
18718SOL    HW166084   6.651   4.765   9.483 -1.1678 -0.7315  1.9543
18718SOL    HW266085   6.783   4.689   9.488 -0.8726 -0.2619  1.3722
18719SOL     OW66086  12.423   9.960   4.466 -0.4533 -0.7724 -0.3434
18719SOL    HW166087  12.374   9.953   4.384  0.7570 -1.1162 -1.0613
18719SOL    HW266088  12.452  10.051   4.469  0.2754 -0.9857 -0.7636
18720SOL     OW66089  11.863   1.828   6.491  0.2941 -0.4656 -0.2381
18720SOL    HW166090  11.897   1.917   6.501 -2.0015  0.4391  0.0652
18720SOL    HW266091  11.849   1.797   6.581  0.1132 -0.7381 -0.3580
18721SOL     OW66092   5.143   8.332  12.344 -0.4180 -0.3151  0.0105
18721SOL    HW166093   5.084   8.389  12.295  0.5751  0.2830 -0.5389
18721SOL    HW266094   5.172   8.267  12.280 -0.0748 -0.2781  0.1245
18722SOL     OW66095   6.769   9.985   5.713  0.0910  0.0095  0.3303
18722SOL    HW166096   6.692  10.011   5.763 -0.4570 -2.3648  0.8293
18722SOL    HW266097   6.793   9.899   5.749  3.4161  0.9293  0.7028
18723SOL     OW66098  12.109   5.122   2.063 -0.3488  0.5208  0.3782
18723SOL    HW166099  12.172   5.169   2.118  0.1134 -1.4670  1.6709
18723SOL    HW266100  12.115   5.164   1.977  2.8622  0.3196  0.4105
18724SOL     OW66101   7.634  11.141   0.649 -0.1245 -0.0234 -0.0236
18724SOL    HW166102   7.691  11.137   0.572 -0.8624 -0.2223 -0.5629
18724SOL    HW266103   7.616  11.235   0.661 -0.2746 -0.0217 -0.2802
18725SOL     OW66104   3.572   5.527   6.000  0.0154 -0.4767 -0.3184
18725SOL    HW166105   3.582   5.612   5.957  1.8616 -1.0621 -1.1723
18725SOL    HW266106   3.513   5.478   5.943 -0.7979  0.1144  0.0056
18726SOL     OW66107   0.845   5.655   9.481  0.1846  0.3161 -0.2702
18726SOL    HW166108   0.764   5.612   9.454  2.2507 -4.0837 -0.2539
18726SOL    HW266109   0.854   5.634   9.574  1.3574  0.6804 -0.2791
18727SOL     OW66110   0.079   5.056  13.062  0.0670  0.3372  1.0002
18727SOL    HW166111   0.007   5.119  13.055  0.7019  0.8980 -1.4374
18727SOL    HW266112   0.071   5.001  12.984  1.4393 -0.5002  1.4163
18728SOL     OW66113   1.896   3.163   4.428  0.3079  0.3859  0.1866
18728SOL    HW166114   1.958   3.206   4.487  0.1788  0.2624  0.4122
18728SOL    HW266115   1.861   3.090   4.479 -0.4219  0.7714  0.2481
18729SOL     OW66116   9.428   7.667   6.365 -0.6172 -0.6528  0.1278
18729SOL    HW166117   9.508   7.686   6.415 -0.1958 -0.2926 -0.6747
18729SOL    HW266118   9.410   7.575   6.385 -0.1228 -0.6812  0.4804
18730SOL     OW66119  10.572   7.546   4.482 -0.2086 -0.2764 -0.1745
18730SOL    HW166120  10.591   7.608   4.552  1.8918 -0.6200 -0.3839
18730SOL    HW266121  10.601   7.590   4.402  0.4243 -1.1476 -0.4381
18731SOL     OW66122   9.561   2.064  10.356  0.4816 -0.2045 -0.0268
18731SOL    HW166123   9.573   2.007  10.432 -1.5725  0.9743  1.2688
18731SOL    HW266124   9.604   2.146  10.381 -1.2300  0.5952  0.4296
18732SOL     OW66125   9.950  13.301   6.052  0.6453  0.4226  0.7034
18732SOL    HW166126   9.898  13.221   6.049 -0.5549  1.2157 -0.2433
18732SOL    HW266127   9.894  13.365   6.097  0.8938  1.2112 -0.0832
18733SOL     OW66128   0.403   7.246  12.713  0.4766  0.0686  0.3377
18733SOL    HW166129   0.373   7.183  12.648 -0.8794 -0.1957  1.1777
18733SOL    HW266130   0.375   7.331  12.678 -0.3480 -0.0826  0.5960
18734SOL     OW66131   8.874  11.497   4.993  0.4459 -0.0356  0.0203
18734SOL    HW166132   8.937  11.559   5.029  0.3539  0.2476 -0.3052
18734SOL    HW266133   8.810  11.484   5.063  0.6173  0.0284  0.1872
18735SOL     OW66134   0.019   0.257   9.859 -0.4117 -0.1162  0.0565
18735SOL    HW166135   0.038   0.168   9.889 -1.7782 -0.9685 -1.4698
18735SOL    HW266136   0.027   0.311   9.938  0.1418 -1.6249  1.0776
18736SOL     OW66137  11.883   9.431   1.404 -0.0547 -0.1849  0.0663
18736SOL    HW166138  11.868   9.525   1.410 -2.1485 -0.5775  2.4113
18736SOL    HW266139  11.909   9.405   1.492 -7.1231 -2.7404  2.1120
18737SOL     OW66140   0.764  10.383  11.652 -0.5349  0.3742 -0.2857
18737SOL    HW166141   0.734  10.470  11.626 -0.5514  0.3620 -0.3076
18737SOL    HW266142   0.683  10.332  11.663 -0.7121  1.0922  2.3199
18738SOL     OW66143   0.430   1.915   9.657  0.0134 -0.4342  0.2671
18738SOL    HW166144   0.483   1.968   9.598 -3.4590  1.1747 -1.7256
18738SOL    HW266145   0.494   1.868   9.711  3.3813  2.6056 -0.6399
18739SOL     OW66146   6.574  10.017   8.747 -0.0480  0.3628 -0.0261
18739SOL    HW166147   6.610  10.059   8.669  0.2106  0.1608 -0.0189
18739SOL    HW266148   6.550  10.090   8.805 -1.1073  0.5386 -0.6648
18740SOL     OW66149   5.229   2.452   6.921 -0.2975  0.2809 -0.2419
18740SOL    HW166150   5.253   2.495   6.839 -0.1360  1.2800  0.3192
18740SOL    HW266151   5.138   2.478   6.936 -0.7687 -0.9640 -0.7560
18741SOL     OW66152   1.192   1.256   1.781  0.3095 -0.2152 -0.3547
18741SOL    HW166153   1.287   1.242   1.777  0.4475  0.3806  0.5755
18741SOL    HW266154   1.170   1.247   1.873 -0.4813  0.0500 -0.5104
18742SOL     OW66155   8.276   9.866   8.824  0.4473  0.9379  0.3956
18742SOL    HW166156   8.259   9.880   8.731  1.4826  0.1037  0.0700
18742SOL    HW266157   8.219   9.792   8.848  0.6215  0.7662  0.2817
18743SOL     OW66158   7.729   5.664   2.634 -0.2095  0.5279 -0.1156
18743SOL    HW166159   7.639   5.682   2.661 -0.6361 -0.3274 -0.9040
18743SOL    HW266160   7.781   5.673   2.714 -0.8575  1.8585  0.1773
18744SOL     OW66161  10.719   5.417   6.419  0.3991 -0.0396  0.0204
18744SOL    HW166162  10.641   5.469   6.402  0.5837 -0.3395 -1.9358
18744SOL    HW266163  10.769   5.420   6.337  2.5979  0.3844  1.2971
18745SOL     OW66164   0.965   3.085   1.561 -0.3270  0.0288 -1.0308
18745SOL    HW166165   0.988   3.065   1.651 -0.3069  1.7377 -0.6137
18745SOL    HW266166   1.034   3.045   1.508 -0.1530 -0.6884 -0.2758
18746SOL     OW66167  13.061   1.312   0.062 -0.0391 -0.2875 -0.0717
18746SOL    HW166168  13.004   1.318   0.140  0.5150 -0.8617  0.3840
18746SOL    HW266169  13.040   1.391   0.012 -0.0988  0.3171  0.8765
18747SOL     OW66170   3.592   4.375   8.428 -0.0220 -0.1504  0.0691
18747SOL    HW166171   3.613   4.429   8.504  0.4125 -0.0522 -0.1216
18747SOL    HW266172   3.677   4.349   8.392 -0.1216 -3.4705  1.9172
18748SOL     OW66173   0.693   7.283   4.189  0.1115  0.0652  0.4362
18748SOL    HW166174   0.612   7.245   4.222  0.8344 -1.2265  0.7695
18748SOL    HW266175   0.754   7.210   4.181  0.8997  0.8149 -0.9397
18749SOL     OW66176   1.246  12.328   9.082  0.1910  0.3236 -0.4824
18749SOL    HW166177   1.264  12.421   9.073 -1.9996  1.3374  3.2532
18749SOL    HW266178   1.303  12.299   9.153 -0.3586 -0.7493 -0.4624
18750SOL     OW66179   1.333  12.072   0.311 -0.5267  0.2749 -0.3301
18750SOL    HW166180   1.421  12.049   0.281 -1.0480  0.0994 -1.8046
18750SOL    HW266181   1.323  12.025   0.394  0.6925  0.1465 -0.2381
18751SOL     OW66182   6.292   7.209   4.898 -0.4422  0.0581 -0.1812
18751SOL    HW166183   6.235   7.156   4.954 -0.6829 -0.0065 -0.4846
18751SOL    HW266184   6.371   7.157   4.888 -0.8113 -0.4139 -0.7597
18752SOL     OW66185   3.805   6.089  11.368 -0.3080 -0.4905  0.2288
18752SOL    HW166186   3.812   6.172  11.415 -2.7535 -0.9296  1.5271
18752SOL    HW266187   3.875   6.035  11.404  0.9652  0.7698 -0.2294
18753SOL     OW66188   5.541  10.678  10.764 -0.3959 -0.2870  0.0728
18753SOL    HW166189   5.525  10.659  10.856 -2.5266 -0.4277 -0.2808
18753SOL    HW266190   5.544  10.593  10.721 -0.6099 -0.1846 -0.1521
18754SOL     OW66191   7.327   2.930  12.899 -0.0978  0.2733  0.7181
18754SOL    HW166192   7.242   2.886  12.903 -1.3712  2.5804  0.7784
18754SOL    HW266193   7.383   2.869  12.851 -1.4226 -1.8268  1.6989
18755SOL     OW66194   1.244  12.347   8.682  0.6819  0.1113 -0.1676
18755SOL    HW166195   1.291  12.408   8.625  2.1121  0.2086  1.0669
18755SOL    HW266196   1.311  12.310   8.739 -0.2145 -2.3053 -0.5595
18756SOL     OW66197   8.873   6.766   4.180  0.5512 -0.1890 -0.0722
18756SOL    HW166198   8.928   6.844   4.192  0.8643 -0.6571  1.9298
18756SOL    HW266199   8.926   6.708   4.126  1.2171  0.1614  0.1882
18757SOL     OW66200  13.076   8.337  12.631  0.0540  0.1880  0.1016
18757SOL    HW166201  12.990   8.375  12.651  0.5704  0.4230  2.1310
18757SOL    HW266202  13.058   8.247  12.606 -0.7380 -0.1850  1.8449
18758SOL     OW66203   4.691   3.154   6.864 -0.3142  0.1502 -0.6187
18758SOL    HW166204   4.653   3.149   6.951  0.4897  1.2812 -0.1805
18758SOL    HW266205   4.629   3.108   6.808 -1.1640 -0.0235  0.4361
18759SOL     OW66206   0.177   0.440   0.296  0.2720  0.5110  0.0305
18759SOL    HW166207   0.085   0.440   0.323  0.5581 -0.5783  1.1127
18759SOL    HW266208   0.175   0.460   0.203 -1.0506  0.6588  0.0777
18760SOL     OW66209   6.686   8.178   9.709 -1.3098 -0.0593  0.1610
18760SOL    HW166210   6.738   8.154   9.786  1.9192  3.1734 -0.6940
18760SOL    HW266211   6.600   8.200   9.744 -1.2399 -2.5206  2.1725
18761SOL     OW66212   3.469   2.842  10.985 -0.0949  0.2567 -0.0605
18761SOL    HW166213   3.414   2.809  11.056 -0.5657 -1.3842 -1.1291
18761SOL    HW266214   3.527   2.905  11.027 -0.8374 -0.1307  1.6406
18762SOL     OW66215   4.150   5.059   0.894 -0.4467  0.1154 -0.3139
18762SOL    HW166216   4.146   4.964   0.885 -1.8718  0.1619 -0.3618
18762SOL    HW266217   4.239   5.081   0.868  0.6075 -1.4062  1.7086
18763SOL     OW66218  12.047   5.256   9.484 -0.6256  0.9456  0.2524
18763SOL    HW166219  12.116   5.313   9.451  0.2522  1.5780  2.9827
18763SOL    HW266220  11.966   5.306   9.471 -0.2553  1.3954 -0.3645
18764SOL     OW66221   3.848   2.035   8.385  0.5108 -0.0395  0.3747
18764SOL    HW166222   3.843   1.949   8.342 -1.5172  0.8141 -1.2446
18764SOL    HW266223   3.780   2.032   8.453  0.6150  0.2010  0.4905
18765SOL     OW66224   2.073   7.574   1.473 -0.4311  0.0109 -0.0297
18765SOL    HW166225   2.158   7.604   1.440  0.5404 -0.6738  1.7168
18765SOL    HW266226   2.056   7.492   1.427  0.9183 -0.9490  1.0919
18766SOL     OW66227   4.768   3.563   4.945  0.1738  0.2214 -0.0679
18766SOL    HW166228   4.706   3.575   5.016 -0.2282  0.2132 -0.4133
18766SOL    HW266229   4.729   3.610   4.871 -1.3274 -2.8450 -1.4143
18767SOL     OW66230   6.663   1.241  12.934  0.6343 -0.1488 -0.2747
18767SOL    HW166231   6.667   1.336  12.921  0.7196 -0.2787 -1.3198
18767SOL    HW266232   6.619   1.209  12.855  0.2345 -0.9414  0.2632
18768SOL     OW66233   9.015   2.877   0.063  0.1918 -0.7713 -0.4069
18768SOL    HW166234   9.000   2.896  -0.030  3.2656 -0.5232 -0.9703
18768SOL    HW266235   9.058   2.791   0.063  1.6353 -0.0948  0.6023
18769SOL     OW66236  11.479   4.376   4.945  0.3273  0.4526  0.2834
18769SOL    HW166237  11.471   4.308   4.879  0.1465  0.6661  0.0816
18769SOL    HW266238  11.460   4.457   4.897  3.8712  1.0774 -0.3562
18770SOL     OW66239   1.518   9.247   1.619  0.0040  0.0197 -0.2838
18770SOL    HW166240   1.457   9.252   1.692 -1.3304 -1.7283 -1.2210
18770SOL    HW266241   1.550   9.157   1.620  1.9432  0.6533 -0.3659
18771SOL     OW66242   2.402   0.703   9.744 -0.1820 -0.0070 -0.5262
18771SOL    HW166243   2.439   0.710   9.832 -1.1608 -2.4839  0.1735
18771SOL    HW266244   2.340   0.775   9.738  0.1688  0.4189  0.6863
18772SOL     OW66245   4.510   2.917  11.356  0.6408 -0.0342  0.5195
18772SOL    HW166246   4.531   2.897  11.447 -0.7958 -1.5780  0.5587
18772SOL    HW266247   4.595   2.933  11.315  1.4929 -1.4423  1.6454
18773SOL     OW66248   0.502  11.460   3.004  0.1914  0.2582  0.1715
18773SOL    HW166249   0.499  11.547   2.965  1.6536  0.0299 -0.5266
18773SOL    HW266250   0.491  11.400   2.930  1.2930 -0.1584  0.3192
18774SOL     OW66251   0.418   8.237   7.586 -0.0670  0.0998  0.1125
18774SOL    HW166252   0.430   8.175   7.658 -1.2261  0.1345  0.3544
18774SOL    HW266253   0.384   8.316   7.628 -2.2576 -0.3907 -0.6132
18775SOL     OW66254   8.430  13.014  12.800  0.4751 -0.0669  0.1799
18775SOL    HW166255   8.469  12.928  12.787 -0.6948 -0.5721 -0.1293
18775SOL    HW266256   8.488  13.057  12.863  0.6400 -1.3909  0.9838
18776SOL     OW66257  12.948   1.506   7.279 -0.3117  0.2713 -0.2308
18776SOL    HW166258  12.853   1.513   7.287 -0.4020 -0.0886 -0.9435
18776SOL    HW266259  12.982   1.560   7.351 -1.0505 -0.3482  0.6040
18777SOL     OW66260  11.622   2.888  11.137  0.4915  0.0958 -0.3137
18777SOL    HW166261  11.530   2.910  11.146  0.1479 -1.6306  1.0455
18777SOL    HW266262  11.639   2.893  11.043 -0.9085  0.7238 -0.5547
18778SOL     OW66263   1.756   4.213  12.666  0.4385  0.5616  0.0178
18778SOL    HW166264   1.772   4.133  12.616  1.5231 -0.1917  1.4775
18778SOL    HW266265   1.664   4.235  12.648  0.4687 -0.3059 -1.3561
18779SOL     OW66266  11.042   3.798   7.253 -0.0485 -0.8596 -0.2292
18779SOL    HW166267  11.127   3.842   7.255 -0.3665 -0.2172 -0.5870
18779SOL    HW266268  11.021   3.793   7.160 -0.8983 -0.0494 -0.0883
18780SOL     OW66269   8.527   2.740   0.559  0.0679  0.1702 -0.0850
18780SOL    HW166270   8.475   2.752   0.479 -0.5843  2.7154  0.6378
18780SOL    HW266271   8.462   2.726   0.628  0.5800 -0.8191  0.2221
18781SOL     OW66272   3.783   6.349  11.493  0.1829  0.4333 -0.3761
18781SOL    HW166273   3.863   6.395  11.469 -0.1080  0.6961 -0.8663
18781SOL    HW266274   3.730   6.414  11.539  1.4232 -0.4914  2.6156
18782SOL     OW66275  10.961  13.162   3.210 -0.1577 -0.9185 -0.2410
18782SOL    HW166276  10.946  13.194   3.121 -1.5076  0.6877  0.5188
18782SOL    HW266277  11.056  13.166   3.222 -0.0757  0.1588 -1.1395
18783SOL     OW66278  10.770   7.761   3.128 -0.7590 -0.9107 -0.2272
18783SOL    HW166279  10.742   7.721   3.045 -0.0461 -0.3071 -0.7720
18783SOL    HW266280  10.806   7.845   3.102  0.7425 -1.2919  0.5501
18784SOL     OW66281   6.537   2.891   9.682  0.4446  0.7564 -0.0405
18784SOL    HW166282   6.629   2.915   9.669  0.5546  0.5509  0.3582
18784SOL    HW266283   6.488   2.966   9.647  0.7891  1.6543  1.3224
18785SOL     OW66284   1.069   9.892  13.194 -0.2600 -0.0240  0.3805
18785SOL    HW166285   1.068   9.900  13.290 -0.1284  0.0290  0.3789
18785SOL    HW266286   1.063   9.798  13.178  0.6453 -0.1096  0.4651
18786SOL     OW66287   1.103   5.605  10.248  0.1415 -0.0176  0.0377
18786SOL    HW166288   1.142   5.588  10.333  1.4342 -0.2669 -0.5758
18786SOL    HW266289   1.117   5.524  10.198 -1.1506 -0.0974 -0.2142
18787SOL     OW66290   1.635   1.937  10.239 -0.2141 -0.2953  0.4557
18787SOL    HW166291   1.725   1.940  10.209 -1.5093  0.4114 -4.0908
18787SOL    HW266292   1.610   2.029  10.251 -1.4626 -0.0634 -2.9236
18788SOL     OW66293  11.547  10.025  11.089  0.9164 -0.0909 -0.2583
18788SOL    HW166294  11.481   9.978  11.037  1.8800 -1.5887 -0.1715
18788SOL    HW266295  11.512  10.023  11.178  0.8663 -0.5008 -0.2838
18789SOL     OW66296  13.117   0.345   2.757 -0.4397  0.3883  0.0301
18789SOL    HW166297  13.203   0.314   2.731 -0.6208 -0.1852  0.0874
18789SOL    HW266298  13.090   0.285   2.827 -0.8553  0.5953  0.0528
18790SOL     OW66299   6.999  13.116   2.643  0.3814 -0.0550  0.2261
18790SOL    HW166300   7.088  13.092   2.617  1.2708  2.5281  0.5247
18790SOL    HW266301   7.011  13.173   2.719 -1.5957 -0.2913  0.7810
18791SOL     OW66302   3.924   0.492   8.641 -0.1194  0.5254  0.3650
18791SOL    HW166303   3.999   0.465   8.694 -0.4768  0.1734  0.6944
18791SOL    HW266304   3.919   0.586   8.652  0.9967  0.7234 -0.5946
18792SOL     OW66305  11.429  13.260   1.839  0.4714 -0.5506  0.1620
18792SOL    HW166306  11.473  13.345   1.830 -0.0731 -0.3501 -0.7390
18792SOL    HW266307  11.366  13.273   1.909 -2.6872  1.2019 -2.6985
18793SOL     OW66308   3.507  11.084  10.133 -0.0088 -0.4526  0.0302
18793SOL    HW166309   3.483  10.993  10.148  0.4290 -0.3165  1.7038
18793SOL    HW266310   3.459  11.133  10.199  0.1155  0.4821 -0.5550
18794SOL     OW66311  12.007   3.970   2.017  0.1115 -0.3005  0.0922
18794SOL    HW166312  12.017   4.032   1.945 -0.3338 -1.8414 -1.3799
18794SOL    HW266313  12.039   4.016   2.095  2.7912  0.6449 -1.4542
18795SOL     OW66314   0.005  12.382   9.795  0.4391 -0.1731 -0.2503
18795SOL    HW166315   0.046  12.296   9.785  0.8004 -0.1090  0.5979
18795SOL    HW266316   0.070  12.444   9.762 -0.1664 -0.2620 -1.6988
18796SOL     OW66317   9.817   8.678   0.627 -0.0307 -0.0018 -0.4284
18796SOL    HW166318   9.858   8.661   0.542  0.4583 -0.7512 -0.0487
18796SOL    HW266319   9.743   8.618   0.630 -0.7749  0.8633 -0.8169
18797SOL     OW66320   0.079   3.009   3.168 -0.2891 -0.3526 -0.5170
18797SOL    HW166321   0.053   2.947   3.100 -0.8821 -0.7313  0.0420
18797SOL    HW266322   0.175   3.013   3.162 -0.1749 -1.8495 -0.1340
18798SOL     OW66323   7.435   2.340   2.084 -0.3307 -0.4965  0.1027
18798SOL    HW166324   7.417   2.322   2.176 -2.8149  0.7060 -0.0679
18798SOL    HW266325   7.448   2.435   2.081 -1.3854 -0.3734 -0.9230
18799SOL     OW66326   5.087   5.472  12.258  0.0835 -0.2283  0.2401
18799SOL    HW166327   5.002   5.516  12.256  0.1645 -0.0946 -0.3873
18799SOL    HW266328   5.109   5.457  12.166  0.2248 -1.2618  0.4227
18800SOL     OW66329   2.871   5.203   8.771 -0.4330 -0.4483  0.1695
18800SOL    HW166330   2.919   5.131   8.812  0.4900 -0.4278 -0.8249
18800SOL    HW266331   2.880   5.276   8.831 -0.2231 -0.7834  0.5493
18801SOL     OW66332   8.570   4.781   1.763 -0.4627 -0.2599  0.7457
18801SOL    HW166333   8.662   4.782   1.737 -0.7224 -0.0915 -0.1674
18801SOL    HW266334   8.555   4.867   1.802 -1.0612  1.0119 -2.0700
18802SOL     OW66335  12.612   9.536   6.905 -0.3437  0.2421  0.2257
18802SOL    HW166336  12.673   9.557   6.835 -1.5722  2.0604 -0.3593
18802SOL    HW266337  12.564   9.460   6.873 -0.4869  0.6929 -0.6302
18803SOL     OW66338  11.089   4.932  10.165 -0.4175 -0.0156 -0.7190
18803SOL    HW166339  11.089   4.842  10.133  2.7513 -1.0619  1.6724
18803SOL    HW266340  11.122   4.983  10.091  1.7214 -1.5218 -0.9080
18804SOL     OW66341   6.261  11.323   0.637  0.2896  0.7536 -0.0311
18804SOL    HW166342   6.331  11.345   0.575  2.1771 -1.9290  0.9488
18804SOL    HW266343   6.236  11.407   0.675  3.1549  1.8615 -0.3014
18805SOL     OW66344   6.915   7.061  12.517 -0.4679  0.5756 -0.5796
18805SOL    HW166345   6.859   7.129  12.480 -0.4284 -0.5232 -2.8042
18805SOL    HW266346   6.900   7.067  12.612 -1.3689  2.8395 -0.7961
18806SOL     OW66347   0.064   1.866   1.646  0.0564 -0.4655  0.5088
18806SOL    HW166348  -0.021   1.846   1.607  0.0660  0.3915  0.0122
18806SOL    HW266349   0.106   1.781   1.658  0.1774 -0.7763 -1.7082
18807SOL     OW66350   1.232   3.196   7.941 -0.6647  0.7342  0.4283
18807SOL    HW166351   1.203   3.227   7.856 -0.4517 -0.7033 -0.1963
18807SOL    HW266352   1.173   3.122   7.961  0.5892 -0.2589  0.5544
18808SOL     OW66353   6.742   6.680  11.761  0.3245  0.0426 -0.0848
18808SOL    HW166354   6.723   6.742  11.830 -0.0662  0.1517 -0.2881
18808SOL    HW266355   6.657   6.658  11.723  0.6188  0.8646 -1.2955
18809SOL     OW66356  10.695   0.767   6.434 -0.3095  0.4235  0.6136
18809SOL    HW166357  10.604   0.787   6.457 -0.7423 -0.1750 -0.4940
18809SOL    HW266358  10.712   0.683   6.476  0.4129  1.4340  2.4684
18810SOL     OW66359   1.650   1.029   2.434  0.5483  0.2327 -0.0826
18810SOL    HW166360   1.683   1.099   2.491 -0.7774  0.3524  0.5947
18810SOL    HW266361   1.610   1.076   2.360 -0.4804  0.2364  0.4488
18811SOL     OW66362   9.075   3.132  12.853 -0.1726 -0.9638 -0.0019
18811SOL    HW166363   9.089   3.220  12.888 -1.1045 -0.6046 -0.5021
18811SOL    HW266364   9.156   3.112  12.805  0.2905 -0.6439  0.6344
18812SOL     OW66365   5.592  10.938   6.166 -0.3380  0.0712 -0.1347
18812SOL    HW166366   5.619  10.851   6.139  1.1219 -0.1239  1.7429
18812SOL    HW266367   5.667  10.994   6.143 -1.6128  1.0705 -2.1705
18813SOL     OW66368  11.182   4.626   7.958 -0.0101 -0.1436  0.3896
18813SOL    HW166369  11.174   4.556   7.894  0.1721  0.1945 -0.0102
18813SOL    HW266370  11.098   4.671   7.957 -0.1996 -0.4812  0.7981
18814SOL     OW66371  12.729   4.871   4.794  1.0088 -0.8896 -0.0208
18814SOL    HW166372  12.760   4.944   4.740 -0.4621 -0.5530 -0.4396
18814SOL    HW266373  12.692   4.913   4.872 -0.7917 -1.0720 -0.7241
18815SOL     OW66374   9.808  10.505   2.635  0.2669  0.0260 -0.1197
18815SOL    HW166375   9.792  10.483   2.727  2.7492  0.3916  0.4690
18815SOL    HW266376   9.880  10.569   2.637 -0.2768  0.8262 -2.2853
18816SOL     OW66377   4.429   8.671   1.327 -0.0216  0.0216  0.8019
18816SOL    HW166378   4.339   8.678   1.293 -0.2375 -1.3425  1.0282
18816SOL    HW266379   4.442   8.752   1.376 -0.5575  0.9544 -0.5449
18817SOL     OW66380   0.578   6.330   7.488 -0.0675  0.0853 -0.2360
18817SOL    HW166381   0.629   6.262   7.532  1.0499  0.3925 -1.0066
18817SOL    HW266382   0.635   6.407   7.487 -0.6284  0.5113 -0.9160
18818SOL     OW66383   9.344  10.796   1.016 -0.0974  0.3139  0.5210
18818SOL    HW166384   9.382  10.845   0.943 -1.3277  0.5828  0.0246
18818SOL    HW266385   9.249  10.805   1.004 -0.3314  0.0846  1.9705
18819SOL     OW66386   7.139  10.274  11.591  0.4763 -0.2525 -0.1098
18819SOL    HW166387   7.105  10.185  11.603  0.3802 -0.5008 -1.9264
18819SOL    HW266388   7.228  10.270  11.626  0.7094 -1.2695 -0.7732
18820SOL     OW66389   7.690   2.142   3.901 -0.0577  0.0568 -0.1624
18820SOL    HW166390   7.678   2.234   3.875  0.4905  0.1511 -0.0893
18820SOL    HW266391   7.770   2.115   3.857  0.1140 -0.2029  0.3040
18821SOL     OW66392  10.112   3.918   4.933 -0.0276  0.2805 -0.0931
18821SOL    HW166393  10.046   3.869   4.884 -1.0980  0.2339  1.3477
18821SOL    HW266394  10.116   4.003   4.890 -1.1869  0.3634 -0.0473
18822SOL     OW66395   8.060   6.866   2.328 -0.3760 -0.7632 -0.0385
18822SOL    HW166396   8.011   6.822   2.259  0.1589 -2.3226  0.5321
18822SOL    HW266397   8.060   6.804   2.401 -0.9819  0.8547  1.4228
18823SOL     OW66398   7.784  12.793  10.143  0.4651 -0.3535  0.5785
18823SOL    HW166399   7.869  12.823  10.175  0.7717 -1.0489  0.4244
18823SOL    HW266400   7.795  12.786  10.048  0.2264 -0.4149  0.5549
18824SOL     OW66401   5.722   5.052   5.317  0.0278 -0.0245  0.2000
18824SOL    HW166402   5.740   5.121   5.381 -2.6651 -0.6727  1.8011
18824SOL    HW266403   5.703   4.975   5.369  0.5126 -1.3671 -1.5064
18825SOL     OW66404   9.307   7.436  12.813 -0.1763 -0.2549  0.0017
18825SOL    HW166405   9.357   7.394  12.742  0.8060 -0.7471  0.9494
18825SOL    HW266406   9.236   7.374  12.831 -0.8601  0.2070 -1.0118
18826SOL     OW66407   3.966   9.569   2.239  0.3348 -0.2814  0.1300
18826SOL    HW166408   4.028   9.556   2.166 -0.2901  1.6724 -0.8335
18826SOL    HW266409   4.016   9.621   2.303  0.4106 -0.7135  0.4249
18827SOL     OW66410   3.012   4.960   4.998  0.2019  0.1044 -0.1723
18827SOL    HW166411   3.009   5.055   5.007  3.4907  0.5419 -2.1319
18827SOL    HW266412   3.044   4.929   5.083 -0.1125  0.7877  0.2055
18828SOL     OW66413   1.185   3.967   0.853  0.1141  0.6328  0.2320
18828SOL    HW166414   1.221   4.005   0.934 -1.2811  2.2714  0.1396
18828SOL    HW266415   1.222   4.020   0.783 -0.7452  0.9360 -0.0049
18829SOL     OW66416  11.058   4.340   3.677 -0.0943 -0.1824 -0.0106
18829SOL    HW166417  11.089   4.429   3.696  1.5035 -0.9580  1.2803
18829SOL    HW266418  11.055   4.336   3.581  1.8518  0.6506 -0.1533
18830SOL     OW66419   1.296   6.968   3.111  0.0122 -0.2534  0.1731
18830SOL    HW166420   1.336   7.006   3.032  1.3012 -1.0188  0.4252
18830SOL    HW266421   1.220   6.920   3.078  1.4525 -1.9621 -0.8966
18831SOL     OW66422   2.887   3.289  13.314 -0.1765 -0.2577  0.0151
18831SOL    HW166423   2.830   3.249  13.248  0.4694  0.8343 -1.2210
18831SOL    HW266424   2.975   3.273  13.282  0.1101  1.8776 -0.3743
18832SOL     OW66425   5.044  13.052   6.318 -0.1236  0.0453  0.4132
18832SOL    HW166426   5.115  13.019   6.263  0.0247  2.0004 -0.6628
18832SOL    HW266427   4.965  13.043   6.265 -0.0562  1.4784  0.0368
18833SOL     OW66428   5.398   8.107   9.043  0.1679 -0.5149 -0.1414
18833SOL    HW166429   5.421   8.169   8.973  2.1625 -0.7134  0.2810
18833SOL    HW266430   5.424   8.151   9.124  1.2452 -1.7107  0.1927
18834SOL     OW66431   5.977   6.839   2.936 -0.2703 -0.5502 -0.2822
18834SOL    HW166432   6.019   6.916   2.896 -2.2028 -0.2330 -1.8592
18834SOL    HW266433   5.912   6.875   2.996  0.7878 -1.0260  1.2056
18835SOL     OW66434   9.816  10.788   4.590 -0.6253 -0.1519  0.0003
18835SOL    HW166435   9.790  10.874   4.556 -1.7537 -0.4010  0.1999
18835SOL    HW266436   9.752  10.770   4.659 -0.9196 -1.5270 -0.6130
18836SOL     OW66437   7.040   5.357   9.650 -0.0174  0.2706 -0.2699
18836SOL    HW166438   6.987   5.436   9.647 -0.1142  0.2316 -3.6197
18836SOL    HW266439   7.018   5.310   9.569  2.6557 -1.3937 -0.1634
18837SOL     OW66440   9.996   3.909   1.083 -0.3437 -0.5874 -0.0703
18837SOL    HW166441  10.058   3.976   1.055 -0.8850 -0.4780 -1.0287
18837SOL    HW266442   9.993   3.847   1.010 -1.8389 -0.2595 -0.3094
18838SOL     OW66443   1.424   2.096   0.990 -0.6629 -0.2308  0.0781
18838SOL    HW166444   1.397   2.113   0.899  0.0333  0.2675 -0.0420
18838SOL    HW266445   1.376   2.162   1.041 -0.5161 -0.0550 -0.0094
18839SOL     OW66446   3.203   1.822   5.494 -0.5238 -0.3149 -0.1781
18839SOL    HW166447   3.108   1.811   5.487 -0.6717  0.6702  0.2027
18839SOL    HW266448   3.215   1.914   5.515  0.4871 -0.5700  0.4248
18840SOL     OW66449   8.617   6.952   7.681  0.0274  0.2432  0.0936
18840SOL    HW166450   8.656   6.869   7.658 -0.9409 -0.6377  1.4654
18840SOL    HW266451   8.672   7.018   7.639  1.4407 -1.0383 -0.1135
18841SOL     OW66452   2.791   7.350  10.284 -0.3846  0.4195  0.4498
18841SOL    HW166453   2.845   7.417  10.241 -1.2674  0.6038 -0.3949
18841SOL    HW266454   2.762   7.293  10.213 -3.1873  1.6542  0.4566
18842SOL     OW66455   7.983  12.247   6.013 -0.5453  0.4170 -0.5205
18842SOL    HW166456   8.046  12.187   5.973  0.9618  0.7903  1.1431
18842SOL    HW266457   7.980  12.322   5.954  1.0976  0.6586 -0.3526
18843SOL     OW66458   4.346   5.034   5.272  0.5356  0.2627 -0.3690
18843SOL    HW166459   4.341   5.007   5.364  0.0851  2.2382  0.2569
18843SOL    HW266460   4.281   5.104   5.265  0.2327 -0.1580 -2.3320
18844SOL     OW66461   8.885   9.652   7.972  0.2040 -0.7578  0.2173
18844SOL    HW166462   8.901   9.697   8.055 -2.0815 -0.8108  0.7560
18844SOL    HW266463   8.897   9.559   7.993 -1.3723 -0.8651  0.8268
18845SOL     OW66464   2.502   4.472   6.920 -0.0772  0.0825  0.0690
18845SOL    HW166465   2.421   4.523   6.922 -0.0261  0.1658  0.0205
18845SOL    HW266466   2.483   4.401   6.859  0.0367  0.3619 -0.3001
18846SOL     OW66467   7.930  12.474  12.835 -0.1099 -0.3977 -0.4625
18846SOL    HW166468   7.932  12.421  12.755 -1.0572 -2.0650  0.5580
18846SOL    HW266469   7.929  12.410  12.906 -1.0293  0.9952  0.8501
18847SOL     OW66470   7.389   1.737   0.510 -0.6447 -0.3633  0.1969
18847SOL    HW166471   7.365   1.788   0.433 -0.1031 -1.0666 -0.4517
18847SOL    HW266472   7.445   1.667   0.476  0.7055  0.0804  1.3785
18848SOL     OW66473   1.029  11.938   4.390  0.0253  0.0360  0.3534
18848SOL    HW166474   0.937  11.954   4.411  0.3079  0.1243  1.5914
18848SOL    HW266475   1.069  12.024   4.392  0.5111 -0.1879  1.8288
18849SOL     OW66476   0.863   6.583   1.449  0.3227 -0.2142 -0.5239
18849SOL    HW166477   0.866   6.665   1.400  1.4280 -0.0469 -0.2189
18849SOL    HW266478   0.935   6.531   1.412 -0.8359 -1.3699 -1.2399
18850SOL     OW66479  10.319   6.489  12.298  0.7931  0.0706  0.1760
18850SOL    HW166480  10.360   6.536  12.370  0.8678  0.5899 -0.2047
18850SOL    HW266481  10.391   6.449  12.251  0.8063  0.3745 -0.0635
18851SOL     OW66482   9.716   2.496   1.817 -0.2270 -0.0210  0.1044
18851SOL    HW166483   9.726   2.407   1.785  1.3147  0.4114 -0.7011
18851SOL    HW266484   9.796   2.515   1.865  0.3693  1.5404 -1.3662
18852SOL     OW66485   3.782   1.630   1.175 -0.2024  0.2761 -0.0891
18852SOL    HW166486   3.835   1.613   1.098  0.2259  0.5215  0.1438
18852SOL    HW266487   3.692   1.613   1.148 -0.4115  2.9624 -1.4634
18853SOL     OW66488  11.915   5.495   5.457 -0.1156 -0.0082  0.1388
18853SOL    HW166489  11.949   5.528   5.374  0.3150  0.2823  0.4223
18853SOL    HW266490  11.822   5.479   5.441 -0.4260  1.6748  0.0829
18854SOL     OW66491   8.870  11.045   1.198 -0.8872  0.3812  0.2737
18854SOL    HW166492   8.800  11.098   1.237 -1.8620 -0.5630 -0.1366
18854SOL    HW266493   8.872  10.965   1.250  0.1452  0.5386  0.4995
18855SOL     OW66494   5.728   7.775   4.356  0.0641  0.7863 -0.1181
18855SOL    HW166495   5.755   7.838   4.423 -1.6559  1.2318  0.1980
18855SOL    HW266496   5.720   7.692   4.403  0.6394  0.6973 -0.1704
18856SOL     OW66497  11.352  12.751   7.744 -0.1408 -0.1583 -0.0055
18856SOL    HW166498  11.432  12.791   7.711 -0.8723 -0.2263 -2.0169
18856SOL    HW266499  11.357  12.660   7.716 -0.0811 -0.6497  1.5173
18857SOL     OW66500  12.017   0.073   1.711 -0.7044 -0.1127  0.0664
18857SOL    HW166501  12.016   0.025   1.794  0.2939  3.0318  2.0618
18857SOL    HW266502  11.926   0.069   1.680 -0.6533 -3.2926 -0.0277
18858SOL     OW66503  11.820   6.934   4.746 -0.1446 -0.1031  0.0597
18858SOL    HW166504  11.804   7.028   4.744 -1.2932 -0.2625  0.8172
18858SOL    HW266505  11.898   6.925   4.801 -1.6067  0.2659  2.3461
18859SOL     OW66506   3.901   9.438  10.295 -0.7873 -0.0843  0.0054
18859SOL    HW166507   3.966   9.368  10.284 -0.9208  0.0757 -2.3951
18859SOL    HW266508   3.836   9.401  10.355 -0.5289 -1.8237 -0.7193
18860SOL     OW66509  11.834   1.082   5.084  0.3030 -0.0678  0.6569
18860SOL    HW166510  11.783   1.004   5.061  1.3637 -0.9275  1.1327
18860SOL    HW266511  11.924   1.050   5.095  1.0204  1.4603 -0.4479
18861SOL     OW66512  12.859   8.615  11.418  1.0350  0.1719  0.2405
18861SOL    HW166513  12.909   8.538  11.445  2.5809  1.2953  0.7166
18861SOL    HW266514  12.899   8.688  11.465 -0.0812  1.3515 -0.5530
18862SOL     OW66515   9.006   0.975   7.582 -0.2578  0.1126 -0.3200
18862SOL    HW166516   8.978   1.042   7.520 -0.6020 -1.4477 -1.9124
18862SOL    HW266517   9.096   0.955   7.556  0.1631  0.5988  0.7330
18863SOL     OW66518   6.539   1.478   0.694  0.4216  0.0544  0.1736
18863SOL    HW166519   6.607   1.546   0.695  2.8082 -2.1972  0.2960
18863SOL    HW266520   6.488   1.494   0.773  3.0282 -0.1978  2.0505
18864SOL     OW66521   8.713  10.443   0.207 -0.4714 -0.2357  0.0039
18864SOL    HW166522   8.765  10.436   0.127 -0.5604  1.2403 -0.2248
18864SOL    HW266523   8.629  10.477   0.177 -1.4565 -2.1619  0.4235
18865SOL     OW66524  11.632   2.888   3.983 -0.3479  0.4332 -0.3299
18865SOL    HW166525  11.675   2.875   4.068  1.5717  0.6042 -1.2192
18865SOL    HW266526  11.585   2.971   3.993 -3.3113 -1.3084  1.7064
18866SOL     OW66527  11.661  11.200   9.672  0.0516 -0.1329 -0.0632
18866SOL    HW166528  11.650  11.288   9.636  0.0461  0.1359  0.5812
18866SOL    HW266529  11.575  11.179   9.709 -1.3139 -2.0859 -3.7446
18867SOL     OW66530   0.781   2.063   6.092  0.1206 -0.2259  0.9535
18867SOL    HW166531   0.816   1.995   6.151 -0.4250 -0.6745  0.7704
18867SOL    HW266532   0.807   2.034   6.005  1.0749  0.5272  0.9621
18868SOL     OW66533   0.901  11.877   7.335  0.9494  1.0782  0.0224
18868SOL    HW166534   0.931  11.817   7.403  1.4193  0.3672 -0.8052
18868SOL    HW266535   0.955  11.858   7.259 -0.4970  0.8656 -1.0102
18869SOL     OW66536   4.267   5.642   3.681  0.1654  0.8466 -0.4873
18869SOL    HW166537   4.239   5.719   3.731  1.8208 -0.1251  2.1373
18869SOL    HW266538   4.199   5.577   3.697  1.0401  0.2926  1.2879
18870SOL     OW66539   7.025   9.771  11.727 -0.2519  0.4424 -0.1158
18870SOL    HW166540   7.009   9.857  11.688 -1.5346  1.3260  2.1562
18870SOL    HW266541   6.938   9.735  11.742  0.2264 -0.4297  0.7008
18871SOL     OW66542   4.900   3.931   6.144 -0.6365 -0.0334  0.0503
18871SOL    HW166543   4.840   3.868   6.104  1.6567 -0.2528 -3.3851
18871SOL    HW266544   4.876   4.015   6.106 -0.0176  0.1894  0.1366
18872SOL     OW66545  10.700   9.577  12.796 -0.4805 -0.4607  0.1767
18872SOL    HW166546  10.704   9.482  12.800  0.2874 -0.4121  0.9055
18872SOL    HW266547  10.710   9.605  12.887  0.3454  0.3450 -0.1506
18873SOL     OW66548   0.289   8.801   0.166 -0.1427 -0.6392  0.7021
18873SOL    HW166549   0.249   8.849   0.093 -0.4498  0.6161  1.6742
18873SOL    HW266550   0.235   8.822   0.241  1.3072 -0.3257  1.6983
18874SOL     OW66551   5.643   9.428   3.061 -0.0210 -0.0734 -0.1709
18874SOL    HW166552   5.678   9.434   2.972  2.4619 -0.4813  0.7107
18874SOL    HW266553   5.689   9.495   3.110 -3.7619  2.5077  0.2253
18875SOL     OW66554   0.705   9.025   4.088  0.4225  0.5692 -0.7462
18875SOL    HW166555   0.738   9.097   4.142 -2.3803  1.6236 -0.2238
18875SOL    HW266556   0.712   8.948   4.143  1.5703  0.8118 -0.5281
18876SOL     OW66557   5.671   1.784  12.807  0.1046 -0.3909 -0.0731
18876SOL    HW166558   5.626   1.798  12.891  2.6803 -0.2550  1.3811
18876SOL    HW266559   5.656   1.692  12.787 -2.4390  0.0779 -0.7386
18877SOL     OW66560  11.489   8.960   1.664 -0.8700 -0.4023 -0.1393
18877SOL    HW166561  11.569   9.003   1.634 -1.1122 -1.3117 -2.2612
18877SOL    HW266562  11.519   8.898   1.731  0.4691 -1.7513 -1.8935
18878SOL     OW66563   4.515   1.782   0.982 -0.7074  0.0719  0.1124
18878SOL    HW166564   4.497   1.860   0.931  0.1887 -0.2849 -0.7916
18878SOL    HW266565   4.433   1.732   0.981 -0.2678 -0.7400 -2.4755
18879SOL     OW66566   0.595  12.253   5.724 -0.1510 -0.1935  0.2118
18879SOL    HW166567   0.557  12.320   5.667  2.0090  1.7545  0.9128
18879SOL    HW266568   0.522  12.194   5.742 -1.7941  1.1140 -1.6533
18880SOL     OW66569  10.440   1.723   0.832 -0.4040 -0.5683 -0.2792
18880SOL    HW166570  10.522   1.695   0.872 -0.7026 -0.8959  0.1086
18880SOL    HW266571  10.460   1.732   0.739 -0.2010 -1.6949 -0.3543
18881SOL     OW66572   4.922   5.059  12.615  0.0869  0.0892 -0.1776
18881SOL    HW166573   5.011   5.031  12.633 -0.2181 -2.4038 -1.9375
18881SOL    HW266574   4.870   5.021  12.685  0.1430 -0.5909 -0.4950
18882SOL     OW66575  11.092   9.011   9.542 -0.2374  0.1490  0.6406
18882SOL    HW166576  11.110   9.104   9.527  0.4911  0.1691  1.4918
18882SOL    HW266577  11.179   8.972   9.552 -0.3203 -1.2407 -2.8719
18883SOL     OW66578   4.440   6.303  12.599  0.2685  0.7551  0.4929
18883SOL    HW166579   4.407   6.322  12.512  1.2794  0.6804  0.0758
18883SOL    HW266580   4.362   6.292  12.653 -0.4473 -1.4151 -0.8511
18884SOL     OW66581   4.971   5.515  11.238  0.4528  0.2990 -0.3383
18884SOL    HW166582   5.047   5.507  11.180  0.1208  0.7060 -0.8330
18884SOL    HW266583   4.907   5.453  11.203  1.6013 -2.3352  1.8227
18885SOL     OW66584   0.199   1.943   0.263 -0.0078  0.1614  0.0465
18885SOL    HW166585   0.183   2.036   0.247  1.5254  0.2246 -1.5167
18885SOL    HW266586   0.124   1.899   0.223 -1.0458  0.7260  1.3306
18886SOL     OW66587   8.216   5.037   1.799  0.0551  0.2531  0.1811
18886SOL    HW166588   8.244   4.987   1.722 -1.6102 -1.9105  0.8716
18886SOL    HW266589   8.184   5.119   1.763 -0.2619 -0.5213 -1.4103
18887SOL     OW66590   5.021   9.350   9.105 -0.8683  0.5203 -0.7059
18887SOL    HW166591   5.079   9.412   9.060  0.0351  0.0615 -0.1937
18887SOL    HW266592   5.079   9.296   9.159 -1.9416  1.3619  1.4215
18888SOL     OW66593  11.103   2.255   5.005 -0.3498 -0.1150 -0.1126
18888SOL    HW166594  11.119   2.206   4.924  0.3502  1.6138 -1.0987
18888SOL    HW266595  11.167   2.326   5.003 -1.5831  1.1068  0.9912
18889SOL     OW66596   2.625   6.732   7.479 -0.6777 -0.1499  0.6483
18889SOL    HW166597   2.592   6.806   7.428 -0.8707 -0.1477  0.7785
18889SOL    HW266598   2.706   6.706   7.434 -1.0285 -0.3665  0.1391
18890SOL     OW66599  13.204   5.964   7.776 -0.1112  0.0092  0.3240
18890SOL    HW166600  13.122   5.942   7.819 -1.6072  1.3667 -1.6318
18890SOL    HW266601  13.192   5.936   7.685  1.4207  0.6269 -0.1109
18891SOL     OW66602   7.115  12.511   2.249 -0.5142  0.0202 -0.0528
18891SOL    HW166603   7.110  12.515   2.153  1.6049  0.5570 -0.1771
18891SOL    HW266604   7.170  12.436   2.267  0.8214  1.1280  0.6539
18892SOL     OW66605   8.463  12.891  10.329 -0.1448  0.1902 -0.9919
18892SOL    HW166606   8.485  12.800  10.351 -1.0107  0.4531  1.2642
18892SOL    HW266607   8.546  12.937  10.333 -0.1215  0.1163  1.6690
18893SOL     OW66608   6.214   9.458   6.943  0.4600  0.3084 -0.1887
18893SOL    HW166609   6.213   9.371   6.901  1.2566 -1.1425  2.5372
18893SOL    HW266610   6.305   9.470   6.968 -0.3550 -0.2956  3.5778
18894SOL     OW66611   7.554  11.489   1.997  0.2326 -0.4121  0.4556
18894SOL    HW166612   7.561  11.477   2.092 -1.0171  0.9499  0.7436
18894SOL    HW266613   7.626  11.548   1.975  1.4164 -1.8516  0.2888
18895SOL     OW66614   2.345   1.353   8.804 -0.2125  0.0573  0.1606
18895SOL    HW166615   2.268   1.343   8.748 -0.3148 -0.4711  0.3874
18895SOL    HW266616   2.413   1.389   8.746 -0.2169 -0.7875 -0.3837
18896SOL     OW66617   4.921   3.487   8.686 -0.2485 -0.3609 -0.0011
18896SOL    HW166618   4.949   3.437   8.762 -1.9769  0.3764  1.1930
18896SOL    HW266619   4.897   3.573   8.722  1.0020  0.7771 -1.7302
18897SOL     OW66620   6.135   1.813   0.349  0.2812 -0.3734 -0.1209
18897SOL    HW166621   6.052   1.777   0.317 -0.5620 -1.0812  2.5827
18897SOL    HW266622   6.122   1.822   0.443  2.5578  1.5564  0.1001
18898SOL     OW66623   2.068   3.703   9.332 -0.2415  0.0307  0.2015
18898SOL    HW166624   2.031   3.778   9.379  0.0522  0.1044  0.3191
18898SOL    HW266625   2.126   3.742   9.266 -0.2619 -0.0857  0.1145
18899SOL     OW66626   1.906   2.974   6.728 -0.1447  0.1360 -0.3934
18899SOL    HW166627   1.922   2.891   6.773 -0.3666  0.2938 -0.0206
18899SOL    HW266628   1.881   2.947   6.639 -2.3429 -0.3311  0.2932
18900SOL     OW66629   9.028   2.393   4.285  0.1621 -0.5729  0.1119
18900SOL    HW166630   8.957   2.418   4.226  2.0574 -0.5399 -2.3164
18900SOL    HW266631   9.073   2.476   4.305  0.5834 -0.8011  0.1286
18901SOL     OW66632   0.321   2.081   2.838 -0.1303 -0.5082  0.4149
18901SOL    HW166633   0.348   1.992   2.815  1.8250  0.1282  0.0635
18901SOL    HW266634   0.313   2.125   2.753  0.8239  0.1377  0.6396
18902SOL     OW66635  12.943   4.738   5.466 -0.6134 -0.3210 -0.2854
18902SOL    HW166636  12.883   4.800   5.507  1.2511 -0.3308  2.7480
18902SOL    HW266637  13.016   4.793   5.436  0.7430 -0.8425  1.8314
18903SOL     OW66638  11.222   3.823  11.139  0.7019  0.2166 -0.1428
18903SOL    HW166639  11.236   3.864  11.054  1.5228  0.4366  0.0900
18903SOL    HW266640  11.310   3.803  11.171  0.4176  0.4391  0.8027
18904SOL     OW66641   4.408  10.863   4.192  0.1233 -0.0567 -0.4665
18904SOL    HW166642   4.363  10.848   4.108 -0.7938  1.5730 -0.3053
18904SOL    HW266643   4.456  10.782   4.207  0.6025 -0.2773 -2.7485
18905SOL     OW66644   7.578   1.019   3.741  0.2052  0.2847  0.3519
18905SOL    HW166645   7.525   0.945   3.712  0.4868  0.6336 -1.1592
18905SOL    HW266646   7.516   1.092   3.749  0.2624  0.4212 -0.3505
18906SOL     OW66647   2.920   9.383   9.472  0.0778 -0.0432 -0.1511
18906SOL    HW166648   2.962   9.439   9.407 -0.2079 -0.4564 -0.7028
18906SOL    HW266649   2.991   9.357   9.531  0.2093  0.8846  0.1063
18907SOL     OW66650   1.651   0.376  10.497 -0.7672  0.4460  0.3047
18907SOL    HW166651   1.643   0.461  10.540  0.5163 -0.0269  1.5786
18907SOL    HW266652   1.731   0.338  10.533 -1.0199 -1.0839 -0.6287
18908SOL     OW66653   5.763   0.870   3.465  0.4566 -0.0689 -0.3882
18908SOL    HW166654   5.838   0.895   3.519  0.4056  2.7250 -1.4072
18908SOL    HW266655   5.789   0.895   3.376 -0.9538 -0.8651 -1.0509
18909SOL     OW66656  11.732  12.731  12.634  0.5727  0.4837 -0.2865
18909SOL    HW166657  11.673  12.777  12.575  2.7934  2.6513 -0.9589
18909SOL    HW266658  11.681  12.720  12.715 -2.1732 -1.6428 -2.0951
18910SOL     OW66659  12.870   8.986   9.352 -0.1497 -0.4231 -0.5282
18910SOL    HW166660  12.858   9.034   9.270 -1.3500  0.9112  0.3726
18910SOL    HW266661  12.781   8.974   9.386  0.3549 -0.5448  0.8117
18911SOL     OW66662   4.928   3.598   8.181  0.3400  0.0631  0.0376
18911SOL    HW166663   5.014   3.555   8.179  1.0608  1.4637 -0.2612
18911SOL    HW266664   4.898   3.596   8.090  0.4244  0.2787  0.0043
18912SOL     OW66665   6.832  10.836   8.764 -0.0744 -0.2228  0.2798
18912SOL    HW166666   6.753  10.784   8.751  0.0418 -0.6338  1.1457
18912SOL    HW266667   6.877  10.832   8.679 -0.0592 -1.5589  0.3283
18913SOL     OW66668   5.590   6.910   9.077 -0.0821  0.5107  0.1054
18913SOL    HW166669   5.612   6.947   9.163  0.6182 -0.5239  0.3926
18913SOL    HW266670   5.510   6.859   9.093 -0.0461  0.4556  0.1101
18914SOL     OW66671   3.952   1.591   0.955  0.5329  0.1220  0.0220
18914SOL    HW166672   3.929   1.595   0.862 -1.3737  0.2229  0.4691
18914SOL    HW266673   4.014   1.518   0.961 -0.0883 -0.5345 -1.1979
18915SOL     OW66674   6.625  10.888   4.981 -0.2423 -0.1818  0.5415
18915SOL    HW166675   6.529  10.888   4.983 -0.2951  0.3523 -0.6776
18915SOL    HW266676   6.649  10.972   5.020 -0.3184  0.0488  0.1062
18916SOL     OW66677   5.701   0.717   7.849 -0.1955  0.1844 -0.0539
18916SOL    HW166678   5.669   0.782   7.787 -1.3334  0.0408  0.3639
18916SOL    HW266679   5.714   0.766   7.930 -1.3509 -0.1621  0.3481
18917SOL     OW66680   6.033   0.359  12.495 -0.0786 -0.1631  0.7151
18917SOL    HW166681   6.114   0.359  12.545 -0.8855  1.2581  2.1233
18917SOL    HW266682   6.061   0.365  12.403  1.3970  0.6441  1.1859
18918SOL     OW66683   7.403  10.097   8.046  0.4384 -0.0478 -0.0920
18918SOL    HW166684   7.478  10.155   8.057 -0.1288  0.7795 -0.5118
18918SOL    HW266685   7.342  10.146   7.992 -1.2004  0.0578  1.7630
18919SOL     OW66686  11.042   9.598   7.597  0.0286 -0.4498  0.1502
18919SOL    HW166687  10.977   9.544   7.643 -0.0389 -0.5338 -0.0440
18919SOL    HW266688  11.038   9.682   7.642 -1.3866  0.0692 -0.8952
18920SOL     OW66689   4.717   6.480   7.902 -0.3599  0.5369 -0.3739
18920SOL    HW166690   4.666   6.554   7.870 -2.2493  0.2165  1.5946
18920SOL    HW266691   4.675   6.403   7.863 -0.9288  0.3133  0.6461
18921SOL     OW66692   2.655   6.092   8.084  0.5778 -0.7944  0.2948
18921SOL    HW166693   2.625   6.179   8.109  2.3519 -0.5099  1.6785
18921SOL    HW266694   2.581   6.034   8.101 -0.1178  0.2303  0.8437
18922SOL     OW66695   7.872   2.399   3.672  0.1407 -0.2588  0.4688
18922SOL    HW166696   7.958   2.438   3.655 -0.9410  0.9141 -3.0684
18922SOL    HW266697   7.868   2.323   3.613 -1.7797  0.6214 -0.6174
18923SOL     OW66698  13.240   7.083   1.259 -0.5696  0.7465  0.1461
18923SOL    HW166699  13.268   6.995   1.285 -1.3457  0.8685  1.4353
18923SOL    HW266700  13.209   7.124   1.339  0.8538  2.6431 -0.2046
18924SOL     OW66701  12.343   4.977   4.486  0.0144 -0.0604  0.1070
18924SOL    HW166702  12.401   4.932   4.546 -1.2705 -1.1072  0.5920
18924SOL    HW266703  12.400   5.039   4.440  1.7010 -1.6885 -0.1135
18925SOL     OW66704  10.044  11.042   4.809  0.2136  0.3743  0.4174
18925SOL    HW166705  10.131  11.025   4.773  0.2119 -1.3527  1.1441
18925SOL    HW266706   9.995  11.082   4.737  1.5558  1.3023 -0.0221
18926SOL     OW66707  10.061  12.302  12.532  0.8028  0.9924 -0.1756
18926SOL    HW166708  10.090  12.369  12.470  2.3559  0.2146 -0.3272
18926SOL    HW266709  10.019  12.351  12.603  0.6503  2.0158 -0.9578
18927SOL     OW66710  12.594  11.546   0.155  0.3416 -0.2098 -0.1625
18927SOL    HW166711  12.650  11.471   0.175  1.0131 -0.1795 -1.7347
18927SOL    HW266712  12.648  11.602   0.099 -0.2969  1.2596  0.6410
18928SOL     OW66713   3.374   0.160   7.238 -0.1157  0.3707  0.1375
18928SOL    HW166714   3.465   0.135   7.219 -0.4621 -1.4653  0.6990
18928SOL    HW266715   3.328   0.146   7.155 -0.0111  0.7728  0.0056
18929SOL     OW66716  10.045  10.450   2.289 -0.1024  0.0163  0.2168
18929SOL    HW166717   9.967  10.473   2.340 -0.9054  0.2217 -1.0382
18929SOL    HW266718  10.059  10.357   2.307 -1.6715 -0.4666 -0.7753
18930SOL     OW66719   4.827   2.122   0.030  0.4581  0.1859 -0.0078
18930SOL    HW166720   4.812   2.184  -0.042 -0.3893  1.1444  0.9693
18930SOL    HW266721   4.740   2.099   0.060  0.7744 -1.2533 -0.1255
18931SOL     OW66722   0.471   0.041   9.753  0.0536  0.0415  0.1579
18931SOL    HW166723   0.404   0.107   9.736  0.1823 -0.0614 -0.8682
18931SOL    HW266724   0.428  -0.026   9.806 -0.3766  0.4400  0.3112
18932SOL     OW66725   9.308   6.706   7.198 -0.5616  0.4289 -0.3063
18932SOL    HW166726   9.385   6.728   7.251 -0.3328 -0.8863 -0.0587
18932SOL    HW266727   9.344   6.669   7.118 -0.8840 -1.7363  0.4723
18933SOL     OW66728   2.426  10.115   0.421  0.3082 -0.0439 -0.6715
18933SOL    HW166729   2.511  10.073   0.403 -0.4322 -1.8095 -0.2872
18933SOL    HW266730   2.430  10.137   0.514  0.3221 -0.1811 -0.6390
18934SOL     OW66731   2.066   6.006   8.225  0.3934  0.2973 -0.2142
18934SOL    HW166732   1.983   6.030   8.266  0.5328 -1.2914  1.0664
18934SOL    HW266733   2.042   5.981   8.135 -0.4268  0.4057 -0.0328
18935SOL     OW66734   0.150   2.375   5.911  0.1294  0.0254  0.7377
18935SOL    HW166735   0.230   2.421   5.888  0.0507 -0.9059 -1.7374
18935SOL    HW266736   0.175   2.318   5.984  2.2031 -1.4037 -0.9667
18936SOL     OW66737  11.621   7.673   3.842 -0.2673  0.2307 -0.0044
18936SOL    HW166738  11.625   7.744   3.907  0.8851 -0.1370  0.3507
18936SOL    HW266739  11.557   7.611   3.878 -0.5365  0.6024  0.1716
18937SOL     OW66740   1.899   3.489   3.297  0.2416  0.1234  0.4241
18937SOL    HW166741   1.859   3.448   3.220  0.8119  0.4686 -0.0594
18937SOL    HW266742   1.927   3.575   3.267 -1.8367  1.3153  1.6823
18938SOL     OW66743   0.181  12.634   1.712 -0.0911 -0.6332  0.2470
18938SOL    HW166744   0.157  12.543   1.728 -0.4238 -0.6436 -0.2964
18938SOL    HW266745   0.184  12.674   1.799 -0.1989 -1.0979  0.4647
18939SOL     OW66746   0.326   6.439   0.558 -0.0824 -0.3328 -0.0935
18939SOL    HW166747   0.366   6.497   0.622  1.4982 -2.3496  0.8855
18939SOL    HW266748   0.386   6.440   0.483 -1.7691  1.7849 -1.5172
18940SOL     OW66749   5.492  10.877  11.078  0.0366 -0.3547  0.4147
18940SOL    HW166750   5.493  10.856  11.171 -0.4023 -1.0088  0.2797
18940SOL    HW266751   5.514  10.795  11.034 -1.1116 -0.3969 -0.1082
18941SOL     OW66752   3.559   0.575   3.247 -0.0807  0.5503 -0.3184
18941SOL    HW166753   3.555   0.543   3.157  1.4065  1.2114 -0.6663
18941SOL    HW266754   3.628   0.642   3.244  1.0187 -0.4257  1.6044
18942SOL     OW66755   3.808   5.156  11.394 -0.4859  0.1931 -0.4140
18942SOL    HW166756   3.754   5.208  11.453 -0.2639  1.3575 -1.2173
18942SOL    HW266757   3.749   5.129  11.324 -0.2025  0.8605 -0.9180
18943SOL     OW66758  13.258   7.398   3.234  0.2041 -0.0956  0.2240
18943SOL    HW166759  13.205   7.442   3.168 -2.2552 -0.8993  1.5402
18943SOL    HW266760  13.278   7.313   3.196 -1.6715 -0.7754  0.6356
18944SOL     OW66761   6.109   7.856   4.370 -0.3905  0.3838  0.4326
18944SOL    HW166762   6.082   7.852   4.462 -1.5551 -1.1165  0.0671
18944SOL    HW266763   6.169   7.783   4.359 -2.1052 -0.9474 -0.5162
18945SOL     OW66764   9.079   9.835  13.299 -0.2233 -0.2065  0.0255
18945SOL    HW166765   9.068   9.839  13.204 -0.7830 -1.4558  0.0285
18945SOL    HW266766   9.050   9.921  13.330 -1.3288 -0.2610 -0.8102
18946SOL     OW66767   1.103   5.548   4.419 -0.5089 -0.3320 -0.3319
18946SOL    HW166768   1.091   5.570   4.511  1.1066  0.2828 -0.2420
18946SOL    HW266769   1.055   5.466   4.407 -0.4795 -0.5829  1.1236
18947SOL     OW66770  11.525  12.843   3.384 -0.5146  0.2869 -0.6640
18947SOL    HW166771  11.597  12.892   3.425 -0.3664 -0.3716 -0.1095
18947SOL    HW266772  11.532  12.755   3.422 -1.1148 -0.0076 -1.2234
18948SOL     OW66773   7.380   6.817   6.318 -0.4389 -0.1121  0.3191
18948SOL    HW166774   7.327   6.897   6.310  0.5381  0.4600 -0.6748
18948SOL    HW266775   7.367   6.789   6.409  1.3550  2.7436  1.5886
18949SOL     OW66776  11.422   1.196   2.306  0.0180  0.5838 -0.6280
18949SOL    HW166777  11.442   1.122   2.248 -1.3984  0.1452 -0.5901
18949SOL    HW266778  11.329   1.187   2.326  0.1862  1.4433  0.7148
18950SOL     OW66779   8.264   8.403   6.555 -0.0209 -0.0865  0.3628
18950SOL    HW166780   8.353   8.388   6.588 -0.1668 -3.6111 -0.3705
18950SOL    HW266781   8.211   8.414   6.633  0.7520 -0.2856  0.9264
18951SOL     OW66782   2.620   3.104   8.164  0.2688  0.1673 -1.0912
18951SOL    HW166783   2.567   3.072   8.238  0.2824  1.3124 -0.5678
18951SOL    HW266784   2.616   3.033   8.100 -1.1557 -0.1418 -0.6955
18952SOL     OW66785   4.526   3.651   3.864 -0.2191  0.0101  0.1778
18952SOL    HW166786   4.520   3.713   3.936 -1.3454  0.3171 -0.1727
18952SOL    HW266787   4.467   3.684   3.797  1.2441  0.0604 -1.1680
18953SOL     OW66788   6.479   7.366  12.884  0.0340  0.3791 -0.8358
18953SOL    HW166789   6.395   7.406  12.860 -0.3598  0.8941  1.2277
18953SOL    HW266790   6.524   7.355  12.801 -1.9013  0.4762 -1.9663
18954SOL     OW66791  10.749   4.767   4.903  0.1962 -0.7875  0.0080
18954SOL    HW166792  10.777   4.772   4.995  1.5978  1.7229 -0.4527
18954SOL    HW266793  10.658   4.797   4.904  1.2453  2.9055  0.3128
18955SOL     OW66794  12.115  11.307  10.807  0.6913  0.1652 -0.7953
18955SOL    HW166795  12.038  11.302  10.751  0.2902  2.2588 -0.5125
18955SOL    HW266796  12.175  11.242  10.771 -0.6250 -0.4966 -1.9063
18956SOL     OW66797  10.932   1.483   2.460  0.1547 -0.0438 -0.2524
18956SOL    HW166798  10.908   1.445   2.376  1.2004 -0.1323 -0.5255
18956SOL    HW266799  10.863   1.454   2.520 -0.5969  0.0155 -1.0651
18957SOL     OW66800  11.472   0.753   0.588 -0.1724 -0.4359  0.4291
18957SOL    HW166801  11.476   0.753   0.683  1.2116 -0.9919  0.3947
18957SOL    HW266802  11.491   0.662   0.563 -1.1069 -0.4247 -0.3595
18958SOL     OW66803   0.505   0.316   2.813  0.0162  0.5230  0.0548
18958SOL    HW166804   0.556   0.254   2.761  0.1769 -0.5771  1.4702
18958SOL    HW266805   0.419   0.276   2.821 -0.0073  0.6784  0.6199
18959SOL     OW66806   1.435   7.903   9.297  0.1917 -0.3759 -0.1420
18959SOL    HW166807   1.453   7.862   9.382 -1.3934  0.6700  0.7518
18959SOL    HW266808   1.489   7.981   9.296 -0.9366  0.4497  0.6363
18960SOL     OW66809   3.787  12.986   5.065  0.1839  0.6994 -0.3838
18960SOL    HW166810   3.781  13.054   5.132  0.8061  1.1603 -0.7891
18960SOL    HW266811   3.841  12.918   5.105  0.1420  0.7556 -0.2308
18961SOL     OW66812  13.211  10.925   7.928 -0.6238 -0.0444 -0.0647
18961SOL    HW166813  13.218  10.971   8.012 -2.5853 -0.6800  0.4949
18961SOL    HW266814  13.191  10.835   7.952 -0.0689 -0.4801 -1.2160
18962SOL     OW66815   1.419   9.560   4.372 -0.6612 -0.9984 -0.1709
18962SOL    HW166816   1.512   9.570   4.351 -0.2745 -2.4740  0.7399
18962SOL    HW266817   1.394   9.478   4.332 -1.0112 -1.6727  1.3674
18963SOL     OW66818  11.795   8.181   1.041 -0.8310  0.2724 -0.0238
18963SOL    HW166819  11.854   8.140   1.104 -1.0200 -1.2863 -0.8040
18963SOL    HW266820  11.720   8.121   1.035 -1.7082  1.3488 -0.3275
18964SOL     OW66821   6.696  12.721   7.164 -0.2634  0.1730  0.8806
18964SOL    HW166822   6.693  12.701   7.258 -0.4521 -1.0350  0.6321
18964SOL    HW266823   6.785  12.753   7.149  0.1799 -0.8484  1.2474
18965SOL     OW66824  11.266   4.791   3.582 -0.4943 -0.1995 -0.1517
18965SOL    HW166825  11.249   4.752   3.497  2.7725 -0.4348 -0.8486
18965SOL    HW266826  11.302   4.720   3.635  1.6905  0.8360 -0.1109
18966SOL     OW66827  13.295   5.078  11.414 -0.1899 -0.0079  0.5240
18966SOL    HW166828  13.389   5.083  11.434 -0.3255  0.7467  1.0108
18966SOL    HW266829  13.288   5.009  11.349  0.9362  1.1302 -0.8595
18967SOL     OW66830   9.524   8.919  12.164 -0.0944 -0.0958 -0.4231
18967SOL    HW166831   9.602   8.864  12.160 -1.1827 -1.7078 -0.4721
18967SOL    HW266832   9.455   8.866  12.124 -1.1543  1.4262 -0.7348
18968SOL     OW66833  12.949   0.907   5.366  0.1057 -0.3413  0.0778
18968SOL    HW166834  12.907   0.822   5.382 -0.7779  0.1054  0.2093
18968SOL    HW266835  12.922   0.930   5.277 -0.6372  0.3413  0.4705
18969SOL     OW66836   5.456   4.117   9.635 -0.6475  0.3037  0.9023
18969SOL    HW166837   5.493   4.105   9.548  1.1066  0.0482  1.6392
18969SOL    HW266838   5.361   4.120   9.621 -0.3974  0.4101 -1.0114
18970SOL     OW66839   1.038   5.523  12.589 -0.3051  0.0282 -0.0259
18970SOL    HW166840   1.102   5.585  12.625 -0.0239  0.7933 -1.7591
18970SOL    HW266841   0.982   5.501  12.664  3.4375 -2.7385  2.3588
18971SOL     OW66842   5.832  11.540  11.041 -0.4609 -0.9759  0.0934
18971SOL    HW166843   5.901  11.602  11.019  0.7765 -2.4861 -0.4563
18971SOL    HW266844   5.802  11.567  11.128  0.4067  0.0642  0.0920
18972SOL     OW66845   9.492   2.161  11.984 -0.2406  0.0589 -0.3538
18972SOL    HW166846   9.464   2.171  11.892  0.5724 -0.5108 -0.6699
18972SOL    HW266847   9.526   2.247  12.008 -0.1661  0.1255 -0.6893
18973SOL     OW66848   1.472   1.258   0.468 -0.5519 -0.7944  0.0412
18973SOL    HW166849   1.417   1.335   0.460  0.3935 -0.0391  0.4932
18973SOL    HW266850   1.471   1.238   0.562 -0.2517 -0.9022  0.0236
18974SOL     OW66851   9.348   8.116  11.675  0.5152  0.2401  0.3919
18974SOL    HW166852   9.402   8.048  11.636 -0.8930  0.4154 -2.0743
18974SOL    HW266853   9.398   8.197  11.663  0.4526  0.1734 -0.3214
18975SOL     OW66854  12.132  11.436   1.755  0.3231  0.2363  0.0739
18975SOL    HW166855  12.123  11.471   1.844 -0.9499 -3.5253  1.6196
18975SOL    HW266856  12.218  11.393   1.755 -0.1568 -0.7310 -0.1322
18976SOL     OW66857  10.763   6.622   0.050  0.6277 -0.1083 -0.5558
18976SOL    HW166858  10.818   6.545   0.048  1.2531  0.2849  0.3938
18976SOL    HW266859  10.813   6.686   0.102 -1.3308 -0.2626  1.7081
18977SOL     OW66860   2.360   1.728   1.260 -0.3787 -0.2170  0.8176
18977SOL    HW166861   2.363   1.824   1.261  0.0704 -0.1968 -0.7404
18977SOL    HW266862   2.452   1.702   1.252 -0.5623 -0.7666  0.5294
18978SOL     OW66863  10.381   4.557  13.214  0.2303  0.1012  0.3350
18978SOL    HW166864  10.376   4.578  13.308  0.1483  1.9859 -0.0501
18978SOL    HW266865  10.328   4.625  13.172  0.6346 -0.4569 -1.1149
18979SOL     OW66866   6.258   2.685  11.612 -0.7449 -0.1120  0.0347
18979SOL    HW166867   6.281   2.765  11.660  0.9263  0.7557 -2.0023
18979SOL    HW266868   6.163   2.677  11.621 -0.8016  1.4569  1.2295
18980SOL     OW66869   8.944   9.997   6.394 -0.8166 -0.4410 -0.6025
18980SOL    HW166870   8.943   9.994   6.490 -0.8204  0.0725 -0.5875
18980SOL    HW266871   8.881  10.065   6.371  0.0913  0.3015 -0.9335
18981SOL     OW66872   1.614   3.083   2.147 -0.3478  0.3273  0.3650
18981SOL    HW166873   1.531   3.125   2.122 -0.3038  0.4501  0.4261
18981SOL    HW266874   1.632   3.023   2.075 -0.7300 -0.0465  0.5748
18982SOL     OW66875  11.958   4.676   3.066  0.0369  0.3049 -0.2103
18982SOL    HW166876  11.934   4.590   3.100  0.2709  0.3360  0.0473
18982SOL    HW266877  12.006   4.717   3.138  1.2937  0.0467 -0.8703
18983SOL     OW66878   3.720  12.511   4.822 -0.3027 -0.1964  0.1085
18983SOL    HW166879   3.633  12.549   4.832 -0.8275 -1.1369 -0.6977
18983SOL    HW266880   3.774  12.582   4.789 -1.1995 -0.0785 -1.1491
18984SOL     OW66881   3.000  10.416   4.177  0.2859 -0.4091  0.1828
18984SOL    HW166882   3.085  10.423   4.220 -0.6764  0.0402  2.1572
18984SOL    HW266883   2.962  10.504   4.186 -0.0564 -0.3542 -1.4789
18985SOL     OW66884   9.049   4.559   4.505 -0.1271  0.3697 -0.0920
18985SOL    HW166885   9.030   4.615   4.580 -1.5227  1.2766 -1.0626
18985SOL    HW266886   9.132   4.593   4.470 -0.8692  1.8021 -0.5757
18986SOL     OW66887   8.218   1.770   4.744  0.0804 -0.3204 -0.8345
18986SOL    HW166888   8.128   1.776   4.712  0.6222 -0.4735 -2.5081
18986SOL    HW266889   8.244   1.679   4.726  1.0194  0.0976 -1.7116
18987SOL     OW66890   0.115  12.081   6.668 -0.0134 -0.4586  0.3301
18987SOL    HW166891   0.162  12.002   6.644 -0.6313 -0.9251  0.6480
18987SOL    HW266892   0.105  12.128   6.585  0.8911 -0.4075  0.2395
18988SOL     OW66893   0.241  10.220   1.123 -0.4256  0.6106  0.9854
18988SOL    HW166894   0.220  10.227   1.030 -0.3528  1.3831  1.0217
18988SOL    HW266895   0.220  10.129   1.146  0.3242  0.1853  0.0304
18989SOL     OW66896   0.670   9.265   8.953  0.1431  0.4779 -0.2507
18989SOL    HW166897   0.612   9.206   8.905 -0.3171  0.6471  0.0862
18989SOL    HW266898   0.734   9.208   8.995 -1.5295 -0.0283  1.8065
18990SOL     OW66899  11.219   6.805   7.409 -0.3863  0.5426 -0.0901
18990SOL    HW166900  11.231   6.719   7.448  1.0233  0.3405 -0.8989
18990SOL    HW266901  11.154   6.848   7.464 -1.8140 -1.3530 -0.2040
18991SOL     OW66902  11.251  11.603   6.341  0.0407 -0.6595 -0.8137
18991SOL    HW166903  11.193  11.660   6.391 -0.0560 -0.7896 -0.7766
18991SOL    HW266904  11.199  11.525   6.325 -0.6135  0.1201 -2.7549
18992SOL     OW66905   7.861   1.107   7.847  0.2128 -0.3654  0.1502
18992SOL    HW166906   7.818   1.110   7.933 -1.3434 -0.8871 -0.5830
18992SOL    HW266907   7.799   1.149   7.787  1.7684  1.0571 -0.5660
18993SOL     OW66908   0.500   0.353   7.026  0.1204  0.2213  0.9432
18993SOL    HW166909   0.530   0.283   7.084  1.4462  1.6554  2.0779
18993SOL    HW266910   0.439   0.404   7.079  0.4660  0.8942  0.7105
18994SOL     OW66911   7.042   3.222   2.119 -0.1190  0.4121 -0.1463
18994SOL    HW166912   7.020   3.311   2.148  0.5701 -0.0750  2.1007
18994SOL    HW266913   7.046   3.228   2.024 -2.6774  2.1659 -0.2434
18995SOL     OW66914   8.471  13.029  10.755  0.1493  0.3363 -0.5593
18995SOL    HW166915   8.454  12.938  10.780  0.9811  0.3265 -0.0204
18995SOL    HW266916   8.546  13.023  10.695 -1.5261  0.3963 -2.8019
18996SOL     OW66917   4.513   8.915   5.796 -0.2920 -0.0320 -0.2917
18996SOL    HW166918   4.517   8.882   5.885  0.1785  0.4688 -0.1178
18996SOL    HW266919   4.541   9.007   5.803 -1.1139  0.2787 -0.8189
18997SOL     OW66920   4.999   8.814   6.084  0.0343 -0.0218 -0.4457
18997SOL    HW166921   4.964   8.772   6.163 -0.3916  1.7416  0.3573
18997SOL    HW266922   4.924   8.823   6.026 -0.2633  1.1241  0.0861
18998SOL     OW66923   9.442  11.110  10.982  0.1539  0.3955 -0.3461
18998SOL    HW166924   9.473  11.130  11.070 -0.1246 -1.1980  0.1372
18998SOL    HW266925   9.522  11.100  10.930  0.4008 -0.6145  0.1958
18999SOL     OW66926   3.292   0.730  10.718 -0.6535  0.4552  0.1695
18999SOL    HW166927   3.275   0.642  10.685 -1.6719  1.8531 -3.4099
18999SOL    HW266928   3.220   0.748  10.779 -1.9847 -0.2277 -1.1548
19000SOL     OW66929   1.722   8.112  11.405 -0.6790 -0.2072  0.1694
19000SOL    HW166930   1.631   8.083  11.413 -0.8439  0.4237  0.6554
19000SOL    HW266931   1.717   8.207  11.412  0.1652 -0.2489  1.7196
19001SOL     OW66932  10.994   6.452  12.624 -0.3543 -0.0098 -0.2401
19001SOL    HW166933  11.016   6.480  12.535 -1.1915 -1.2636 -0.8666
19001SOL    HW266934  11.001   6.532  12.676 -0.9311  0.9987 -1.6381
19002SOL     OW66935  10.561   7.901  12.892  0.2908 -0.1642 -0.3650
19002SOL    HW166936  10.513   7.939  12.818 -0.7567 -0.2661  0.2480
19002SOL    HW266937  10.559   7.970  12.959  0.5871 -0.3541 -0.1594
19003SOL     OW66938   7.589   0.726  11.939 -0.0776  0.2079  0.1628
19003SOL    HW166939   7.599   0.634  11.917 -0.2868 -0.2337  1.7728
19003SOL    HW266940   7.542   0.726  12.022  0.4524  1.7369  0.5013
19004SOL     OW66941   4.640  10.042   9.749  0.4945  0.2438  0.3222
19004SOL    HW166942   4.722  10.004   9.717 -0.6195 -1.7101 -0.4452
19004SOL    HW266943   4.621  10.114   9.689  1.6795  0.7787  0.5721
19005SOL     OW66944   6.196  10.527  13.117 -0.3040  0.0753 -0.2698
19005SOL    HW166945   6.159  10.586  13.182 -0.0954  0.8233 -0.8153
19005SOL    HW266946   6.290  10.545  13.119 -0.0852 -1.0285  0.3274
19006SOL     OW66947   9.966  10.286  12.557  0.2668  0.1631 -0.1958
19006SOL    HW166948   9.896  10.314  12.499 -1.5810 -2.7673  0.4287
19006SOL    HW266949   9.926  10.221  12.614  2.9347  0.1577  1.8870
19007SOL     OW66950   4.469  12.208   6.137  0.6437  0.3926 -0.1817
19007SOL    HW166951   4.561  12.188   6.125  0.6984  0.5806 -0.0793
19007SOL    HW266952   4.464  12.251   6.222  0.5116  0.6860 -0.3347
19008SOL     OW66953   7.179   0.124  12.064 -0.3391  0.0968 -0.1007
19008SOL    HW166954   7.271   0.122  12.092 -0.2663  0.3888 -0.3213
19008SOL    HW266955   7.170   0.047  12.008 -0.0569  0.4350 -0.6173
19009SOL     OW66956   8.972   3.335   2.369  0.4841  0.7394 -0.2949
19009SOL    HW166957   8.954   3.430   2.368 -3.8424  0.1782  1.3834
19009SOL    HW266958   9.020   3.321   2.450  3.1860  1.6075 -1.6210
19010SOL     OW66959   4.103   6.444   7.004  0.6580  0.9260  0.5584
19010SOL    HW166960   4.018   6.464   7.042  0.0383  1.6239 -1.1135
19010SOL    HW266961   4.141   6.378   7.062 -1.7718 -0.7503  0.3404
19011SOL     OW66962  13.033  11.844   1.158 -0.3986 -0.5606 -0.4602
19011SOL    HW166963  13.041  11.913   1.223 -1.1556 -1.5011  0.6659
19011SOL    HW266964  13.105  11.861   1.096  0.4297  0.2680  0.6839
19012SOL     OW66965   9.246  12.006   7.519  0.1775  0.1097  0.5075
19012SOL    HW166966   9.237  11.937   7.585 -0.9027 -1.0967 -0.8187
19012SOL    HW266967   9.201  12.081   7.556  0.9377 -0.0214  1.7765
19013SOL     OW66968  12.947   1.077   0.625  0.0219  0.0283 -0.0333
19013SOL    HW166969  12.907   1.076   0.711 -0.7345 -1.3420 -0.3650
19013SOL    HW266970  12.931   0.989   0.590  3.0787 -0.5407 -0.3130
19014SOL     OW66971   9.766   3.843   8.963  0.0441  0.4475  0.0452
19014SOL    HW166972   9.679   3.861   8.926  0.4129  0.4975 -0.8116
19014SOL    HW266973   9.783   3.917   9.022 -0.8617 -0.0050  0.9143
19015SOL     OW66974  10.122   9.807   0.041 -0.2680  0.4945  0.2663
19015SOL    HW166975  10.145   9.715   0.049  1.6505  0.9042 -0.1428
19015SOL    HW266976  10.082   9.830   0.125  0.7560 -0.2917  0.9759
19016SOL     OW66977   8.726   0.367   5.165 -0.2774 -0.3764  0.1449
19016SOL    HW166978   8.793   0.300   5.182  0.1167 -0.4533 -1.5430
19016SOL    HW266979   8.742   0.394   5.074 -1.3443  0.9847  0.3351
19017SOL     OW66980   4.458   8.711   4.486 -0.6812  0.0175  0.4027
19017SOL    HW166981   4.518   8.722   4.560 -0.5179  0.4479  0.2083
19017SOL    HW266982   4.396   8.784   4.494  0.0632  0.7763 -0.5676
19018SOL     OW66983   7.489   2.998  12.128 -0.7211 -0.4655 -0.1284
19018SOL    HW166984   7.454   2.959  12.208  2.3359 -2.6080  0.3359
19018SOL    HW266985   7.480   2.929  12.062 -1.0096  0.3977 -1.0133
19019SOL     OW66986   7.663   4.083   2.312  0.4945 -0.4980 -0.1484
19019SOL    HW166987   7.670   4.115   2.222 -0.6830 -0.9905 -0.4322
19019SOL    HW266988   7.670   3.988   2.305 -0.7294 -0.6304  0.1284
19020SOL     OW66989   7.823   7.868   3.346 -0.1906  0.1794  0.0749
19020SOL    HW166990   7.775   7.835   3.271 -0.7652 -1.3180  1.0556
19020SOL    HW266991   7.805   7.962   3.348 -0.1966  0.2318 -1.6021
19021SOL     OW66992   8.728   7.433   8.232 -0.0745  0.2647 -0.6985
19021SOL    HW166993   8.661   7.378   8.192  0.3186 -0.6834 -0.0893
19021SOL    HW266994   8.745   7.502   8.167 -0.9794 -0.0022 -1.2308
19022SOL     OW66995   2.278   5.721   2.907  0.8070 -0.3022  0.4646
19022SOL    HW166996   2.357   5.772   2.889 -0.8582  2.2331 -0.3335
19022SOL    HW266997   2.280   5.650   2.842  2.6822 -0.6927  0.8844
19023SOL     OW66998   4.634   0.677   2.145  0.2864 -0.1135 -1.0888
19023SOL    HW166999   4.687   0.731   2.204  0.4818  0.4770 -1.7855
19023SOL    HW267000   4.681   0.678   2.062 -0.7034  0.2760 -1.6747
19024SOL     OW67001   6.963   3.257  12.538 -0.1404  0.1887 -0.0842
19024SOL    HW167002   6.954   3.307  12.457 -0.5745  0.8362  0.3620
19024SOL    HW267003   6.989   3.169  12.509 -1.7862 -0.0245 -1.0354
19025SOL     OW67004   1.846   2.034  11.890 -0.1314  0.3063 -0.3017
19025SOL    HW167005   1.827   1.953  11.938 -1.1063  0.0739 -1.0426
19025SOL    HW267006   1.907   2.082  11.947  0.4392 -0.9256  0.1632
19026SOL     OW67007   7.512  10.656   9.510  0.2755 -0.4034  0.1623
19026SOL    HW167008   7.550  10.700   9.587 -2.2840 -1.8465  2.4524
19026SOL    HW267009   7.560  10.573   9.505  0.3463 -0.3728  0.3109
19027SOL     OW67010   2.461   4.614  10.091 -0.4713  0.6417 -0.5985
19027SOL    HW167011   2.455   4.564  10.173  0.1826 -0.2810 -1.1005
19027SOL    HW267012   2.439   4.551  10.023  2.7233  0.2694 -1.4784
19028SOL     OW67013   2.028   2.106   9.494  0.2676  0.1336  0.1928
19028SOL    HW167014   2.110   2.142   9.529  0.5630  0.3411 -0.7094
19028SOL    HW267015   1.969   2.103   9.570  1.7864 -2.0956  1.3945
19029SOL     OW67016   5.784  10.165   7.261  0.4097  0.4685 -0.0924
19029SOL    HW167017   5.708  10.145   7.205  0.4899 -1.5880  0.4550
19029SOL    HW267018   5.755  10.238   7.315 -1.7238 -1.0653  1.0111
19030SOL     OW67019  10.514   9.247   9.353  0.0211  1.0439  0.1423
19030SOL    HW167020  10.541   9.282   9.269 -0.0646  0.6630 -0.0474
19030SOL    HW267021  10.557   9.161   9.358 -2.2846 -0.2736 -0.8294
19031SOL     OW67022   5.245  12.266  11.094 -0.5117  0.1526 -0.0477
19031SOL    HW167023   5.205  12.353  11.098  0.7060  0.7482 -0.5227
19031SOL    HW267024   5.323  12.278  11.041  1.7096 -0.4022  2.8485
19032SOL     OW67025   0.850   8.078   1.426  0.2537 -0.3396 -0.7717
19032SOL    HW167026   0.832   8.037   1.342  0.6141 -0.8692 -0.5934
19032SOL    HW267027   0.931   8.037   1.456 -0.2187 -0.6347  0.1377
19033SOL     OW67028   0.535   4.571   3.036  0.0655 -0.0422  0.0493
19033SOL    HW167029   0.617   4.581   3.084  0.6433 -1.9665 -0.4421
19033SOL    HW267030   0.561   4.537   2.950 -1.2513 -1.0349  0.0051
19034SOL     OW67031   7.422   0.137  11.148 -0.3032  0.1656 -0.4502
19034SOL    HW167032   7.350   0.108  11.091 -0.9015  0.5871  0.0840
19034SOL    HW267033   7.449   0.221  11.111  0.5067 -0.3898 -1.1672
19035SOL     OW67034   1.694   0.218   3.054  0.4545 -0.0025 -0.2690
19035SOL    HW167035   1.703   0.265   2.971  2.9471  2.0336  1.0101
19035SOL    HW267036   1.648   0.279   3.111 -1.5100 -1.5003 -0.1679
19036SOL     OW67037   6.909   9.893   4.291  0.1123  0.5777 -0.5129
19036SOL    HW167038   6.928   9.810   4.247  2.2517  0.7023  0.0279
19036SOL    HW267039   6.870   9.867   4.375 -1.8980  0.2681 -1.5022
19037SOL     OW67040   7.556   2.994  12.591  0.5439  0.4092  0.4641
19037SOL    HW167041   7.532   3.084  12.566  0.0112 -0.1859 -1.3229
19037SOL    HW267042   7.652   2.994  12.591  0.5524  1.0729  0.8887
19038SOL     OW67043  10.554   2.199   3.594  0.0055  0.0110 -0.3633
19038SOL    HW167044  10.535   2.271   3.654 -1.8012 -0.7491  0.0639
19038SOL    HW267045  10.609   2.237   3.526  3.0821  0.6925  2.2379
19039SOL     OW67046   4.091   7.227   0.281  0.4470  0.3399 -0.0609
19039SOL    HW167047   4.182   7.256   0.284  0.6790 -0.3899  0.4496
19039SOL    HW267048   4.066   7.236   0.190  0.9638  0.7526 -0.1664
19040SOL     OW67049   7.237  12.800   0.776  0.4216  0.2342  0.0959
19040SOL    HW167050   7.235  12.859   0.851 -0.1202 -0.3030  0.5146
19040SOL    HW267051   7.177  12.730   0.799 -1.7628  1.3165 -1.8775
19041SOL     OW67052   0.849  12.090  12.764  0.5583 -0.0321  0.1058
19041SOL    HW167053   0.801  12.118  12.687  1.5614 -0.4605 -0.6985
19041SOL    HW267054   0.787  12.037  12.814 -0.4003  1.0499  0.1055
19042SOL     OW67055   7.561   7.861   2.696  0.1700  0.0212 -0.6386
19042SOL    HW167056   7.478   7.868   2.744  0.7746 -0.5432  0.5186
19042SOL    HW267057   7.551   7.782   2.643  0.8169 -1.3927  1.2606
19043SOL     OW67058   3.387   4.921   5.229 -0.4747 -0.0887 -0.8357
19043SOL    HW167059   3.460   4.865   5.255 -0.9925 -0.1973  0.4416
19043SOL    HW267060   3.336   4.867   5.169 -1.2979 -1.2724  0.8437
19044SOL     OW67061   6.563   9.685   6.753  0.1388  0.5574 -0.1517
19044SOL    HW167062   6.541   9.624   6.683  0.4290 -0.5951  0.7331
19044SOL    HW267063   6.518   9.766   6.729  0.7033  0.3934 -1.9719
19045SOL     OW67064   5.350   8.064  12.570  0.5208 -0.1588 -0.0568
19045SOL    HW167065   5.340   7.973  12.598  0.0240 -0.3939 -0.9520
19045SOL    HW267066   5.318   8.116  12.644  0.3559 -0.7279  0.2738
19046SOL     OW67067   1.626   8.044  12.839  0.3283 -0.6029  0.0767
19046SOL    HW167068   1.681   8.109  12.882 -1.2385 -0.2705  1.6610
19046SOL    HW267069   1.601   8.085  12.756 -0.7797  0.9353  1.1206
19047SOL     OW67070  10.372   1.509   8.917  0.3413  0.2282  0.6788
19047SOL    HW167071  10.335   1.437   8.968 -0.6843  1.8465  2.3819
19047SOL    HW267072  10.295   1.558   8.886  1.0145  1.1532  0.4344
19048SOL     OW67073   7.589  10.024   5.150 -0.2678  0.0712 -0.0023
19048SOL    HW167074   7.530  10.080   5.201  0.0726  0.2008  0.2466
19048SOL    HW267075   7.530   9.960   5.109 -0.5705  0.1243  0.3408
19049SOL     OW67076   3.022   5.485   2.628  0.3187  0.3710  1.1934
19049SOL    HW167077   3.015   5.580   2.618  0.3573  0.2543 -0.0714
19049SOL    HW267078   2.975   5.449   2.552  1.2397 -0.6049  1.0626
19050SOL     OW67079   7.718   9.382   3.071 -0.1860 -0.3851  0.1773
19050SOL    HW167080   7.751   9.319   3.135  1.6620  1.5716  1.3021
19050SOL    HW267081   7.632   9.408   3.105 -0.6406 -1.7075  0.0913
19051SOL     OW67082  10.799   2.698   3.595  0.6911  0.7620  0.1838
19051SOL    HW167083  10.849   2.692   3.514  0.7923  1.2652  0.2051
19051SOL    HW267084  10.843   2.767   3.645  0.5605  0.5362  0.6172
19052SOL     OW67085  11.991   5.764  12.464 -0.0660 -0.1175 -0.2421
19052SOL    HW167086  12.054   5.830  12.437  0.5636 -0.4412  0.4029
19052SOL    HW267087  11.941   5.804  12.535 -0.6318  0.1532 -0.7784
19053SOL     OW67088   8.751   4.964   9.581  0.1282  0.1897  0.3322
19053SOL    HW167089   8.686   4.981   9.649 -1.1072 -1.4796 -0.3604
19053SOL    HW267090   8.831   4.943   9.630 -0.1378  1.1548  1.2216
19054SOL     OW67091  10.617   1.973   0.085  0.0783 -0.0233  0.3664
19054SOL    HW167092  10.573   1.931   0.011  1.2256  2.0917 -1.6651
19054SOL    HW267093  10.545   2.010   0.137 -0.7426 -1.1441  0.0753
19055SOL     OW67094   9.111  11.915   5.144  0.3375  0.1226  0.3795
19055SOL    HW167095   9.145  11.900   5.232 -0.6861  1.5160  1.0529
19055SOL    HW267096   9.033  11.861   5.139  1.1552 -1.0269 -0.1957
19056SOL     OW67097   9.836  10.408  11.195  0.0891 -0.2143  0.3855
19056SOL    HW167098   9.894  10.420  11.120  0.4993 -0.8986  0.5866
19056SOL    HW267099   9.776  10.483  11.191  0.8669  0.4123  0.0636
19057SOL     OW67100  12.367   4.352   7.638  0.0593 -0.3108 -0.0176
19057SOL    HW167101  12.397   4.268   7.602 -1.3521 -0.7511 -0.2366
19057SOL    HW267102  12.446   4.404   7.646  0.7529 -1.0791 -1.4528
19058SOL     OW67103   2.472   7.536  11.541 -0.2913 -0.3769 -0.3524
19058SOL    HW167104   2.510   7.553  11.627 -2.7533 -0.8176  0.9003
19058SOL    HW267105   2.420   7.614  11.522  1.8865  0.6949 -2.5351
19059SOL     OW67106  10.759   8.569   3.810  0.0033  0.4271 -0.3792
19059SOL    HW167107  10.692   8.580   3.742  0.0026  0.4145 -0.3803
19059SOL    HW267108  10.724   8.500   3.866 -0.4391  1.0929  0.1778
19060SOL     OW67109   6.851   1.374   9.484  0.0027  0.4575 -0.2280
19060SOL    HW167110   6.923   1.359   9.545  0.6509  2.3375 -0.4827
19060SOL    HW267111   6.796   1.440   9.527 -0.4445  0.5669 -0.9425
19061SOL     OW67112   1.998   4.430   6.884 -0.5656 -0.1022 -0.6674
19061SOL    HW167113   2.050   4.465   6.956 -1.0977  1.2871 -0.9221
19061SOL    HW267114   1.922   4.391   6.927 -0.9944  0.9205 -0.4488
19062SOL     OW67115   5.192   8.401   5.824 -0.4651 -0.1287 -0.8096
19062SOL    HW167116   5.173   8.337   5.756  1.7372 -1.1025 -0.5855
19062SOL    HW267117   5.287   8.398   5.834 -0.5765  1.1438  1.1979
19063SOL     OW67118   6.274  11.694   0.319 -0.6841  0.1865  0.1403
19063SOL    HW167119   6.366  11.707   0.295 -0.6371 -0.9438 -0.3505
19063SOL    HW267120   6.278  11.647   0.403 -0.8383  1.2328  0.7569
19064SOL     OW67121  13.076   1.676   0.416  0.6416 -0.4425 -1.3918
19064SOL    HW167122  13.040   1.654   0.330  0.3117 -2.0567 -0.8699
19064SOL    HW267123  13.101   1.592   0.454 -1.3450 -0.0531  1.0495
19065SOL     OW67124   3.497   3.892   9.871 -0.3174  0.3711 -0.5528
19065SOL    HW167125   3.412   3.895   9.827 -0.7874  1.5444  0.3827
19065SOL    HW267126   3.494   3.964   9.935  0.5064 -0.9582  1.0710
19066SOL     OW67127  10.487  12.008   5.645 -0.2361 -0.9890 -0.2304
19066SOL    HW167128  10.391  12.010   5.640 -0.2494  1.2681 -0.0775
19066SOL    HW267129  10.516  12.063   5.573  1.0620 -2.7125 -1.1113
19067SOL     OW67130   0.775   1.485   9.926 -0.8783  0.0003  0.2583
19067SOL    HW167131   0.764   1.390   9.916 -2.6229  0.3374 -1.7082
19067SOL    HW267132   0.712   1.523   9.865 -0.1688  2.4529  0.9407
19068SOL     OW67133   3.132   8.468   0.409  0.0066 -0.3998 -0.4914
19068SOL    HW167134   3.096   8.410   0.476 -0.0738 -1.2613 -1.2666
19068SOL    HW267135   3.055   8.498   0.360  0.2543 -1.7272 -1.7396
19069SOL     OW67136   8.633  11.701  11.287  0.1504  0.2311  0.5034
19069SOL    HW167137   8.709  11.703  11.229 -0.3051  0.4935 -0.0939
19069SOL    HW267138   8.630  11.611  11.320  0.5397  0.1398  0.3019
19070SOL     OW67139  12.538   3.791   4.091 -0.6254 -0.3352  0.0910
19070SOL    HW167140  12.523   3.761   4.181 -0.1331 -0.5118  0.1139
19070SOL    HW267141  12.621   3.837   4.094  0.2383 -1.7883 -0.6046
19071SOL     OW67142   3.804   4.942  12.288  0.7392 -0.2174  0.1540
19071SOL    HW167143   3.740   4.936  12.218  0.2926  1.3563  0.4062
19071SOL    HW267144   3.774   4.877  12.353 -0.5431  0.4150  0.2203
19072SOL     OW67145   5.542   0.018   2.124  0.0773 -0.1358  0.4850
19072SOL    HW167146   5.450   0.021   2.150 -0.3194  1.3832 -0.9044
19072SOL    HW267147   5.540  -0.007   2.032  1.2071 -1.9760  0.9168
19073SOL     OW67148  10.727   0.214   0.497  0.4270  0.6571  0.1031
19073SOL    HW167149  10.798   0.150   0.493 -0.1646  0.0225 -1.0783
19073SOL    HW267150  10.732   0.251   0.585  0.3516 -1.5476  1.1001
19074SOL     OW67151   5.044   5.858   4.651  0.0173 -0.1625 -0.2556
19074SOL    HW167152   5.105   5.931   4.639  1.2715 -1.0308  0.7112
19074SOL    HW267153   4.983   5.889   4.718  1.0102 -0.2780  0.7091
19075SOL     OW67154   2.886  10.025   4.208 -0.3352 -0.6127  0.1882
19075SOL    HW167155   2.826   9.961   4.170 -1.5531  0.6200 -0.0591
19075SOL    HW267156   2.874  10.104   4.155  1.1793 -0.1836  0.4277
19076SOL     OW67157  12.121   1.511   0.451  0.3432  0.2915  0.0453
19076SOL    HW167158  12.152   1.532   0.539 -1.4315  0.0932  0.7686
19076SOL    HW267159  12.072   1.429   0.462  1.6193 -0.7620 -1.5037
19077SOL     OW67160  11.518   2.453   0.518 -0.1853 -0.0100  0.3491
19077SOL    HW167161  11.452   2.390   0.491 -0.2961  0.8541 -1.6273
19077SOL    HW267162  11.589   2.441   0.455  0.4760  0.7467  0.9274
19078SOL     OW67163  12.383   6.826   8.685  0.4095  0.1824 -0.3637
19078SOL    HW167164  12.387   6.753   8.623 -2.5134  0.8629 -1.5079
19078SOL    HW267165  12.383   6.904   8.630  0.9613  0.9626  0.7151
19079SOL     OW67166   5.362  12.275  12.119  0.1010  0.1497 -0.0213
19079SOL    HW167167   5.325  12.213  12.182  0.9470 -0.5959 -0.2429
19079SOL    HW267168   5.360  12.359  12.165  1.3581 -0.5014  1.2966
19080SOL     OW67169   9.176   4.461   1.016 -0.6401  0.5891  0.1798
19080SOL    HW167170   9.082   4.449   1.008 -1.0506  1.8358  2.4130
19080SOL    HW267171   9.211   4.372   1.025 -1.6388  0.1337 -0.3040
19081SOL     OW67172  11.716   9.081   6.391  0.1743 -0.6068 -0.2178
19081SOL    HW167173  11.726   9.133   6.311  0.1593 -0.1186  0.0931
19081SOL    HW267174  11.655   9.131   6.445 -0.8851 -1.6165 -0.4595
19082SOL     OW67175   5.628   0.342   7.742 -0.5185  0.2575  0.0659
19082SOL    HW167176   5.641   0.248   7.756  0.6610  0.2320 -1.0063
19082SOL    HW267177   5.553   0.365   7.797 -1.4628 -1.5148 -0.4125
19083SOL     OW67178   3.057   5.265   0.831  0.2270  0.5086  0.8817
19083SOL    HW167179   3.090   5.177   0.814  0.8785  1.0231 -0.5874
19083SOL    HW267180   3.098   5.291   0.914  0.2767 -0.4277  1.1595
19084SOL     OW67181  10.403   3.858   4.239  0.0383  0.1936 -0.5642
19084SOL    HW167182  10.452   3.800   4.297  1.0724  0.5819 -1.0233
19084SOL    HW267183  10.396   3.940   4.287 -0.4611  0.0416 -0.3678
19085SOL     OW67184  10.801  11.385  12.784 -0.1895 -0.2803 -0.2147
19085SOL    HW167185  10.706  11.389  12.773 -0.1937 -2.3573 -1.4579
19085SOL    HW267186  10.814  11.337  12.865 -0.1532  1.3900  0.8133
19086SOL     OW67187   3.044   8.599   2.558 -1.0196  0.5802  0.2285
19086SOL    HW167188   3.112   8.567   2.617 -1.0817  0.6580  0.3438
19086SOL    HW267189   2.988   8.654   2.614 -1.2477  0.4153  0.1644
19087SOL     OW67190   5.037   9.695   3.330 -0.1970  0.0739 -0.0465
19087SOL    HW167191   5.120   9.656   3.359  0.0777  0.7102  0.0269
19087SOL    HW267192   4.971   9.655   3.387  0.3221  1.2662  1.4524
19088SOL     OW67193   7.408   6.057   1.001  0.3564  0.0519  0.0572
19088SOL    HW167194   7.333   5.997   1.004  0.3173  0.0213 -1.0323
19088SOL    HW267195   7.373   6.136   0.960  1.3338 -0.6492 -2.2922
19089SOL     OW67196  10.184  13.234   6.957  0.2211  0.4434  0.5279
19089SOL    HW167197  10.122  13.170   6.991  0.9234 -0.2488  0.5303
19089SOL    HW267198  10.210  13.201   6.871  0.6079  0.7115  0.5347
19090SOL     OW67199  10.160   8.787  11.917 -0.1989  0.2300 -0.6989
19090SOL    HW167200  10.245   8.752  11.942 -0.1920  0.8670  0.2120
19090SOL    HW267201  10.126   8.724  11.854 -0.0469 -1.2407  0.6256
19091SOL     OW67202   0.027  12.003   5.566 -0.2951 -1.0540 -0.2039
19091SOL    HW167203   0.110  12.027   5.607 -0.6891 -0.8676  0.5066
19091SOL    HW267204  -0.037  12.064   5.604 -0.8462 -1.5453 -0.3321
19092SOL     OW67205   3.532   4.132  11.100 -0.0820 -0.3626  0.3120
19092SOL    HW167206   3.515   4.048  11.057 -1.8297  0.0002  0.2300
19092SOL    HW267207   3.446   4.162  11.130  0.7213  0.6869  1.6880
19093SOL     OW67208   1.567   3.734  10.834  0.4894  0.2762  0.0607
19093SOL    HW167209   1.599   3.645  10.815  1.4614  0.6812 -0.2600
19093SOL    HW267210   1.644   3.780  10.867 -0.0712  0.9378  0.4698
19094SOL     OW67211   4.677   0.356   8.417 -0.4993 -0.2799 -0.0737
19094SOL    HW167212   4.756   0.355   8.363 -1.4944  0.9032 -1.6051
19094SOL    HW267213   4.631   0.435   8.392 -2.1477 -0.8974  0.8537
19095SOL     OW67214   3.039   1.371  12.454  0.6137  0.0196  1.0592
19095SOL    HW167215   3.113   1.393  12.511  0.4404  0.6970  1.0338
19095SOL    HW267216   3.079   1.326  12.380  0.7113 -2.0397  2.2885
19096SOL     OW67217   9.676  13.294   0.231 -0.4746 -0.1863 -0.5260
19096SOL    HW167218   9.647  13.294   0.140 -1.1461 -0.7276 -0.3139
19096SOL    HW267219   9.597  13.276   0.282 -0.1892  0.5593  0.1951
19097SOL     OW67220   8.172   9.744  12.939  0.0170 -0.2867 -0.7908
19097SOL    HW167221   8.124   9.667  12.967 -0.9391  0.8572  0.9125
19097SOL    HW267222   8.257   9.736  12.982 -1.1366  1.0217  1.9854
19098SOL     OW67223   8.265   2.643  12.546  0.2274  0.0809 -0.2533
19098SOL    HW167224   8.299   2.608  12.628 -0.9230  1.0304  0.6525
19098SOL    HW267225   8.336   2.696  12.511  1.3166 -1.6156 -0.7121
19099SOL     OW67226  13.111   2.837  12.458  0.1039 -0.2611  0.0741
19099SOL    HW167227  13.074   2.812  12.542 -0.3461  3.6906  1.2367
19099SOL    HW267228  13.041   2.885  12.414  0.2676 -2.3531 -2.7521
19100SOL     OW67229  12.439   2.992   4.232 -0.0158 -0.4381 -0.2041
19100SOL    HW167230  12.435   3.084   4.258  0.5000 -0.4605 -0.0396
19100SOL    HW267231  12.522   2.984   4.185 -0.1674 -0.7699 -0.4184
19101SOL     OW67232   1.195  10.804   4.015 -0.7897 -0.4322 -0.0529
19101SOL    HW167233   1.113  10.796   3.965 -1.1617  1.2165  0.2230
19101SOL    HW267234   1.227  10.891   3.994  0.7170 -0.9144  0.1545
19102SOL     OW67235   3.307   4.974   0.118 -0.3226  0.1516  0.0603
19102SOL    HW167236   3.395   5.011   0.121 -0.3878  0.4141  3.5171
19102SOL    HW267237   3.321   4.880   0.131 -0.5050  0.4473  3.1296
19103SOL     OW67238  10.620  10.880   6.675  0.4918  0.1391  0.0666
19103SOL    HW167239  10.709  10.877   6.639  0.6855 -0.6193  0.5701
19103SOL    HW267240  10.611  10.796   6.722 -0.1701  0.5933  0.7693
19104SOL     OW67241   8.214   1.028   2.505 -0.3215 -0.4320  0.1993
19104SOL    HW167242   8.264   0.988   2.433  1.3477  0.7189  0.6514
19104SOL    HW267243   8.224   0.967   2.578 -0.5501 -0.7651 -0.0483
19105SOL     OW67244   4.810   6.191   4.758  0.0457 -0.2113  0.3811
19105SOL    HW167245   4.782   6.187   4.667 -0.0123 -1.6529  0.4436
19105SOL    HW267246   4.871   6.265   4.761 -1.4560  1.1441 -0.3694
19106SOL     OW67247   6.875   0.500   2.921 -0.0317 -0.1147  0.5734
19106SOL    HW167248   6.944   0.518   2.984  0.3301 -1.2981  0.5349
19106SOL    HW267249   6.813   0.573   2.931  1.2778  1.0486  0.4879
19107SOL     OW67250   3.596   5.943   8.782  0.1410 -0.7003  0.1106
19107SOL    HW167251   3.585   5.850   8.805  0.0940 -1.0716 -1.3083
19107SOL    HW267252   3.514   5.984   8.810 -0.0962 -1.2080  0.1854
19108SOL     OW67253   8.755   7.159  10.019 -0.4565 -0.2106 -0.5279
19108SOL    HW167254   8.752   7.116  10.104 -2.0950 -0.3699 -0.6322
19108SOL    HW267255   8.712   7.243  10.033  0.0550  0.1377 -1.0052
19109SOL     OW67256   8.511  11.633   6.628  0.3350  0.0485  0.0547
19109SOL    HW167257   8.566  11.560   6.599  1.1035  1.4102 -2.1677
19109SOL    HW267258   8.454  11.651   6.553  0.2963  1.8225  0.4726
19110SOL     OW67259  11.076   1.221   1.339 -0.3218  0.1098  0.2401
19110SOL    HW167260  11.136   1.239   1.411 -1.6998  2.6806  0.8533
19110SOL    HW267261  11.004   1.171   1.379  0.0552 -0.5695  0.0901
19111SOL     OW67262   2.599  11.221   9.916 -0.8149 -0.1618  0.4754
19111SOL    HW167263   2.574  11.147   9.860  2.4445 -0.7567 -0.4108
19111SOL    HW267264   2.587  11.188  10.006 -2.3401 -0.6287  0.1157
19112SOL     OW67265   9.718   7.593   3.251  0.2703  0.3362  0.0184
19112SOL    HW167266   9.643   7.650   3.235  0.5347  0.4319 -0.8917
19112SOL    HW267267   9.714   7.575   3.345 -2.5485 -1.9956 -0.4358
19113SOL     OW67268  11.059   4.325   3.124 -0.2644  0.2919 -0.6644
19113SOL    HW167269  11.140   4.335   3.074  0.0742  0.7364 -0.0505
19113SOL    HW267270  11.016   4.249   3.085  1.0803 -0.7704 -0.1748
19114SOL     OW67271   3.802   0.840  10.133  0.2604 -0.2753  0.2978
19114SOL    HW167272   3.865   0.802  10.194 -0.9426 -1.7853  0.6790
19114SOL    HW267273   3.772   0.921  10.175  2.2230  0.7092 -0.1035
19115SOL     OW67274   2.548   4.409   9.457  0.2295 -0.3599  0.1283
19115SOL    HW167275   2.531   4.318   9.481 -0.6989 -0.1675  0.2198
19115SOL    HW267276   2.462   4.449   9.452  0.5944  0.3627 -0.5389
19116SOL     OW67277  10.923  11.554  10.188  0.2597  0.3643  0.0027
19116SOL    HW167278  10.930  11.649  10.181  0.0329  0.4229  0.5043
19116SOL    HW267279  10.882  11.539  10.274 -0.5259 -0.1458 -0.4404
19117SOL     OW67280  12.837   4.033   5.903  0.1862 -0.4318 -0.3294
19117SOL    HW167281  12.932   4.017   5.902  0.0910 -0.9542 -1.1540
19117SOL    HW267282  12.805   3.994   5.822 -0.3007  2.4711 -1.6654
19118SOL     OW67283   0.283  10.167  12.637 -0.6198  0.1618  0.3812
19118SOL    HW167284   0.323  10.153  12.723  1.6603  1.5301 -0.3724
19118SOL    HW267285   0.305  10.088  12.587  2.4206  1.3486 -0.3918
19119SOL     OW67286   0.953   9.328   6.679  0.1057  0.3387  0.0070
19119SOL    HW167287   0.965   9.362   6.590 -0.2723  1.3201  0.3207
19119SOL    HW267288   0.894   9.254   6.668  0.0724  0.4431 -0.5655
19120SOL     OW67289   5.751   7.760   0.138 -0.5699 -0.0053  0.4121
19120SOL    HW167290   5.683   7.738   0.074  1.1528 -0.0436 -1.4957
19120SOL    HW267291   5.804   7.827   0.095  1.4010 -0.9318  1.2663
19121SOL     OW67292   7.939   1.293   2.167 -0.1641  0.4505 -0.4916
19121SOL    HW167293   8.013   1.304   2.108  0.4065 -0.6931 -0.0333
19121SOL    HW267294   7.978   1.288   2.254 -1.0115  2.3641  0.0525
19122SOL     OW67295   6.721  10.354   2.348  0.6579  0.3619  0.3421
19122SOL    HW167296   6.691  10.444   2.364 -1.4816  0.0412 -1.3340
19122SOL    HW267297   6.768  10.330   2.428 -0.2084  2.3645  1.5509
19123SOL     OW67298   1.554   4.516   6.794  0.0694  0.5494  0.5027
19123SOL    HW167299   1.483   4.488   6.736 -0.4963  2.3579  0.2483
19123SOL    HW267300   1.528   4.486   6.881  0.8146 -2.0022 -0.0796
19124SOL     OW67301   7.720  10.906   7.321  0.4884  0.0702 -0.2797
19124SOL    HW167302   7.792  10.848   7.296  0.1527  0.3654 -2.0447
19124SOL    HW267303   7.648  10.880   7.264  0.0593  1.6220 -0.4814
19125SOL     OW67304   7.315   9.406   2.526  0.6590  0.1614  0.7308
19125SOL    HW167305   7.299   9.405   2.620 -0.7822  0.2461  0.5099
19125SOL    HW267306   7.377   9.477   2.512  0.5601  0.4165  1.5697
19126SOL     OW67307   5.064  12.995   9.851 -0.1560  0.3202 -0.1688
19126SOL    HW167308   5.130  12.926   9.857  0.2815  0.7324 -0.2243
19126SOL    HW267309   5.106  13.072   9.890 -0.4397  0.7003 -0.6112
19127SOL     OW67310   6.869   1.633   4.864  0.6558  0.3139  0.3228
19127SOL    HW167311   6.843   1.584   4.942  0.7616 -0.0037  0.1571
19127SOL    HW267312   6.815   1.712   4.868  1.0843  0.5878  1.0380
19128SOL     OW67313  10.878  12.808  10.989 -0.3535  0.1989  0.0110
19128SOL    HW167314  10.956  12.855  11.019  0.8539 -1.4781 -0.3851
19128SOL    HW267315  10.908  12.760  10.912 -1.2001 -2.1091  1.0432
19129SOL     OW67316   9.711   7.201   2.412 -0.1792  0.1702  0.4976
19129SOL    HW167317   9.656   7.134   2.371 -0.5554  0.7910 -0.0365
19129SOL    HW267318   9.800   7.172   2.396 -0.3343  0.0238 -0.1313
19130SOL     OW67319   7.199   7.404  10.366  0.1250  0.1068  0.0479
19130SOL    HW167320   7.122   7.348  10.366 -0.8230  1.3388  0.9449
19130SOL    HW267321   7.237   7.393  10.453  0.0239  0.7190  0.1728
19131SOL     OW67322  11.552   8.430   5.521 -0.2366  0.1998 -0.2630
19131SOL    HW167323  11.641   8.464   5.516 -0.2290  0.1135 -0.8356
19131SOL    HW267324  11.536   8.416   5.614  0.6708 -0.6330 -0.2211
19132SOL     OW67325   8.353   7.168  11.275 -0.0063  0.0024  0.3671
19132SOL    HW167326   8.381   7.107  11.208 -1.3736 -0.5978  0.3034
19132SOL    HW267327   8.374   7.125  11.358  1.0644  0.4480  0.3431
19133SOL     OW67328   4.792  13.312   2.816  0.2122 -0.6695  0.3699
19133SOL    HW167329   4.717  13.274   2.771  0.6930 -4.4521  2.3821
19133SOL    HW267330   4.756  13.345   2.898  0.7280 -4.0777  2.1621
19134SOL     OW67331  11.049   6.165  12.289  0.3807  0.0203  0.5447
19134SOL    HW167332  11.120   6.198  12.345 -0.6061  2.8909  0.2536
19134SOL    HW267333  10.971   6.169  12.345  0.0199 -0.7184  0.1017
19135SOL     OW67334   5.060   4.675   9.101  0.0642 -0.1914  0.2207
19135SOL    HW167335   4.971   4.702   9.125 -1.0850 -2.2008 -1.3935
19135SOL    HW267336   5.070   4.705   9.011  1.2391  0.4574  0.5565
19136SOL     OW67337   4.265   1.264   2.758 -0.0187 -0.0975  0.0826
19136SOL    HW167338   4.254   1.308   2.674  0.0139  1.2947  0.7829
19136SOL    HW267339   4.177   1.233   2.781  0.1503 -1.4115 -0.9296
19137SOL     OW67340  12.298   9.384   4.720 -0.0111 -0.0464 -0.3548
19137SOL    HW167341  12.388   9.417   4.728  0.9784 -2.8696  1.7602
19137SOL    HW267342  12.265   9.424   4.639  1.5751  4.4227  0.9201
19138SOL     OW67343   2.119   5.718   6.361  0.1529  0.3282 -0.1293
19138SOL    HW167344   2.077   5.636   6.336 -0.5287  0.0836  1.7233
19138SOL    HW267345   2.067   5.751   6.434  0.9783  1.9381 -0.2285
19139SOL     OW67346   9.530  12.215  12.979  0.4220 -0.3846  0.3616
19139SOL    HW167347   9.561  12.303  12.955 -0.1058  0.0198  1.0953
19139SOL    HW267348   9.464  12.231  13.046 -1.2809 -1.2358 -1.0360
19140SOL     OW67349   0.417   4.599  11.663  0.4955 -0.0039  0.0820
19140SOL    HW167350   0.445   4.625  11.751  0.5093 -0.5776  0.2534
19140SOL    HW267351   0.377   4.678  11.626 -2.1094 -0.4580  1.6537
19141SOL     OW67352   3.479  11.235   0.763 -0.1760  0.3062 -0.1300
19141SOL    HW167353   3.556  11.252   0.710  0.7485 -1.2416  0.6439
19141SOL    HW267354   3.414  11.202   0.701 -0.6868  2.7099 -0.9851
19142SOL     OW67355   3.888  10.069   4.575 -0.3489 -0.3306 -0.2309
19142SOL    HW167356   3.860  10.018   4.500  0.6031  0.2733 -1.0113
19142SOL    HW267357   3.947  10.012   4.623  3.2176  0.9197 -2.7417
19143SOL     OW67358   0.840   5.622  11.050  0.3583 -0.8305  0.1316
19143SOL    HW167359   0.915   5.566  11.032 -0.3740 -1.8714  0.2454
19143SOL    HW267360   0.837   5.682  10.975  0.5241 -1.6407 -0.5457
19144SOL     OW67361   8.052   6.036  10.324 -0.6456 -0.5048  0.2642
19144SOL    HW167362   7.996   6.079  10.259 -0.5895 -0.5915  0.1580
19144SOL    HW267363   8.124   6.000  10.273 -0.2407  0.0157  0.4515
19145SOL     OW67364   4.718  12.335   5.431 -0.2688  0.0930  0.3121
19145SOL    HW167365   4.689  12.338   5.522 -0.3788 -1.3563  0.3533
19145SOL    HW267366   4.644  12.368   5.381 -0.8619 -0.6798  0.6476
19146SOL     OW67367   4.216   2.729   2.072  0.3707 -0.2889  0.0715
19146SOL    HW167368   4.224   2.817   2.035 -1.8608 -0.3304 -0.6305
19146SOL    HW267369   4.262   2.734   2.156  1.6788  1.0629 -0.6779
19147SOL     OW67370   8.847   7.887   4.585  0.7459  0.0390 -0.3582
19147SOL    HW167371   8.779   7.919   4.526  0.6228 -0.1312 -0.3122
19147SOL    HW267372   8.878   7.965   4.631 -0.9026 -0.1154  1.1516
19148SOL     OW67373   6.391   9.422  12.474  0.3192 -0.2502 -0.0124
19148SOL    HW167374   6.459   9.440  12.409 -0.5183  0.0012 -0.8485
19148SOL    HW267375   6.403   9.490  12.541  0.8133 -0.1346 -0.2117
19149SOL     OW67376   7.063  10.059   5.289  0.2403  0.3806  0.0243
19149SOL    HW167377   7.052  10.144   5.330 -0.3608  0.4376 -0.2541
19149SOL    HW267378   7.033   9.996   5.355  0.0541  0.4200 -0.0249
19150SOL     OW67379   2.786   9.037   5.723  0.1117 -0.1244 -0.0945
19150SOL    HW167380   2.783   9.015   5.630 -1.5295 -2.8718  0.5010
19150SOL    HW267381   2.694   9.051   5.747  0.2824 -1.3841  1.4575
19151SOL     OW67382   4.921   8.992   2.467  0.0819  0.1278  0.5105
19151SOL    HW167383   4.943   8.900   2.480 -1.7406 -0.2774  1.1626
19151SOL    HW267384   4.871   9.015   2.546  0.1533  1.5559  0.1643
19152SOL     OW67385   5.848  10.264   2.080 -0.7472  0.0537 -0.2770
19152SOL    HW167386   5.901  10.339   2.053  0.3590 -0.5236  0.2267
19152SOL    HW267387   5.821  10.223   1.997 -1.8353  1.2965 -0.5697
19153SOL     OW67388   6.665  13.097   9.200 -0.4409 -0.1916  0.0909
19153SOL    HW167389   6.626  13.011   9.189 -1.4622  0.2012  0.5469
19153SOL    HW267390   6.694  13.098   9.292  0.3771 -0.3683 -0.1598
19154SOL     OW67391   8.446   1.019  10.239 -0.3032  0.2511  0.3461
19154SOL    HW167392   8.487   0.951  10.292  0.8699  0.1721 -0.6213
19154SOL    HW267393   8.482   1.101  10.272  1.2836  0.1409 -0.9774
19155SOL     OW67394   0.530   0.220  11.878  0.2580  0.5592  0.3212
19155SOL    HW167395   0.516   0.135  11.920 -1.1753 -0.0844 -1.3291
19155SOL    HW267396   0.609   0.208  11.826  1.7991  1.2314  2.3774
19156SOL     OW67397   0.059  12.445   0.426  0.3423  0.1032 -0.0293
19156SOL    HW167398   0.006  12.478   0.353 -2.4304 -2.4836  0.5838
19156SOL    HW267399   0.019  12.484   0.504 -0.3911 -1.4454  0.4114
19157SOL     OW67400   1.305   4.487   4.483  0.0913 -0.2708  0.4339
19157SOL    HW167401   1.313   4.567   4.432 -0.4102 -0.2581  0.3637
19157SOL    HW267402   1.302   4.517   4.574  1.8254 -0.3515  0.5449
19158SOL     OW67403   3.513   8.473  11.408 -0.5935 -0.5611 -0.7764
19158SOL    HW167404   3.470   8.554  11.382  0.0853 -0.6580 -2.3482
19158SOL    HW267405   3.464   8.442  11.484 -0.1061  1.9223  0.6516
19159SOL     OW67406  11.859   9.944   9.036 -0.1590  0.1507 -0.0918
19159SOL    HW167407  11.866  10.014   8.970  2.0531 -0.3803 -0.4898
19159SOL    HW267408  11.796   9.978   9.099  0.2841  2.2115 -0.6607
19160SOL     OW67409   3.261   0.002   9.185  0.1541 -0.1039  0.8362
19160SOL    HW167410   3.176   0.001   9.229  0.2603 -1.0605  1.0464
19160SOL    HW267411   3.258  -0.074   9.126  0.0893  1.0268 -0.6822
19161SOL     OW67412  13.058   9.173   3.358  0.1793 -0.8068  0.3660
19161SOL    HW167413  13.022   9.221   3.284 -0.7922 -1.4744  0.3821
19161SOL    HW267414  13.153   9.173   3.344 -0.0318 -1.4873 -1.2434
19162SOL     OW67415  10.616  11.243   5.785  0.6659 -0.3358 -0.1532
19162SOL    HW167416  10.688  11.270   5.729  0.4616  0.7048  0.0659
19162SOL    HW267417  10.545  11.222   5.725  0.3201  1.1414 -0.3113
19163SOL     OW67418   1.718   6.840   3.704  0.1637  0.2197 -0.0678
19163SOL    HW167419   1.646   6.903   3.711  1.2081  1.4283  0.3020
19163SOL    HW267420   1.721   6.797   3.789 -1.5105 -1.4609 -0.8099
19164SOL     OW67421  11.162   2.592   6.066 -0.0684  0.2896  0.1566
19164SOL    HW167422  11.148   2.519   6.126  2.4790 -0.1370  0.3390
19164SOL    HW267423  11.114   2.665   6.106 -1.7760 -0.9729  0.5147
19165SOL     OW67424  11.558  11.971   5.879  0.3001  0.0222  0.0971
19165SOL    HW167425  11.652  11.988   5.868  0.2669  0.4464  0.4403
19165SOL    HW267426  11.546  11.965   5.974  0.2280 -1.5012  0.0107
19166SOL     OW67427   2.781   2.047   6.233  0.5394  0.2392 -0.5994
19166SOL    HW167428   2.875   2.059   6.249  0.9181 -1.1417 -1.5282
19166SOL    HW267429   2.762   1.961   6.271 -0.8915  1.4240  1.5517
19167SOL     OW67430   4.454  12.879   9.920  0.1701 -0.1081  1.2751
19167SOL    HW167431   4.509  12.811   9.882  1.2231 -0.0095  2.5462
19167SOL    HW267432   4.447  12.946   9.853 -0.9659 -1.4712 -0.0482
19168SOL     OW67433  13.173  12.511  12.264  0.0471 -0.0472 -0.0596
19168SOL    HW167434  13.252  12.458  12.274  0.7081  0.6514 -1.3314
19168SOL    HW267435  13.101  12.451  12.286  0.8717 -0.9702  0.2082
19169SOL     OW67436  12.550  11.863  10.280  0.4975  0.5138 -0.5145
19169SOL    HW167437  12.495  11.841  10.355  1.6322  0.3960  0.3153
19169SOL    HW267438  12.515  11.810  10.209  1.5206 -2.1319  0.7914
19170SOL     OW67439   0.982  11.603   1.912  1.0237 -0.7244  0.4702
19170SOL    HW167440   1.003  11.696   1.917 -0.7401 -0.1691 -1.2070
19170SOL    HW267441   1.060  11.563   1.874  1.4665  0.2199  0.3505
19171SOL     OW67442   2.493  12.732  11.981 -0.7686  0.2732  0.4260
19171SOL    HW167443   2.564  12.689  11.933 -1.5419 -0.7321  0.1722
19171SOL    HW267444   2.533  12.757  12.064 -0.6896 -2.3966  1.2703
19172SOL     OW67445   4.423  10.583  11.853 -0.1668 -0.3403  0.4836
19172SOL    HW167446   4.344  10.634  11.870  0.2999  0.3474  0.6220
19172SOL    HW267447   4.415  10.506  11.908  0.2821  0.7782  2.1815
19173SOL     OW67448  12.900  12.029   8.050 -0.2110  0.6828 -0.2696
19173SOL    HW167449  12.995  12.023   8.048 -0.0850  2.3040 -0.4180
19173SOL    HW267450  12.879  12.052   8.141 -0.6400 -1.5847  0.2683
19174SOL     OW67451   2.065   4.064   8.394  0.0391  0.0169 -0.3722
19174SOL    HW167452   1.997   4.106   8.341  0.2999  2.7179  1.2538
19174SOL    HW267453   2.144   4.068   8.339 -0.1807  0.7694 -0.6438
19175SOL     OW67454   5.964  12.162   5.964 -0.5805 -0.1474  0.0295
19175SOL    HW167455   6.017  12.231   6.005 -1.0727  1.2179 -1.5050
19175SOL    HW267456   6.017  12.130   5.892 -2.1740  2.1277 -2.3377
19176SOL     OW67457   9.442   8.700   1.694  0.3298  0.0922  0.0567
19176SOL    HW167458   9.536   8.708   1.710  0.6203  0.9784 -1.7595
19176SOL    HW267459   9.409   8.645   1.765  2.3877 -1.0720  0.1679
19177SOL     OW67460   0.917   9.087   5.600 -0.3610 -0.0633 -0.1353
19177SOL    HW167461   0.975   9.011   5.604 -1.2449 -0.8270 -1.2255
19177SOL    HW267462   0.842   9.058   5.548 -0.5469  1.6731 -0.9331
19178SOL     OW67463   2.753   3.635   2.278  0.2275 -1.0703  0.4566
19178SOL    HW167464   2.745   3.566   2.344  0.4357 -0.2359  1.3990
19178SOL    HW267465   2.670   3.682   2.283  1.3247  0.9321  2.4605
19179SOL     OW67466   9.116   9.948   9.623 -0.5708  0.5494  0.3624
19179SOL    HW167467   9.110   9.910   9.535 -1.3017  0.3957  0.4758
19179SOL    HW267468   9.209   9.965   9.635  0.0294 -2.6600  0.9257
19180SOL     OW67469  10.095  10.415   9.131 -0.0066 -0.2928  0.1336
19180SOL    HW167470  10.172  10.425   9.187 -0.4101 -0.4973  0.7351
19180SOL    HW267471  10.066  10.504   9.112 -1.0037 -0.2064  1.8543
19181SOL     OW67472   1.536   8.908   3.795  0.0510 -0.1251  0.4237
19181SOL    HW167473   1.466   8.934   3.735 -3.2745 -1.2546  3.4445
19181SOL    HW267474   1.546   8.814   3.782  0.8487 -0.0203  0.2151
19182SOL     OW67475  13.065   3.805  11.345  0.3693 -0.3655  1.0168
19182SOL    HW167476  13.123   3.751  11.292 -1.6128 -0.6219 -1.0667
19182SOL    HW267477  12.982   3.759  11.345 -0.8272  1.6512  0.8968
19183SOL     OW67478   6.434   1.229   8.015 -0.2097 -0.2358  0.0415
19183SOL    HW167479   6.524   1.225   8.047  0.1685  0.8604 -0.8331
19183SOL    HW267480   6.416   1.141   7.983 -0.0018 -0.8885  1.5966
19184SOL     OW67481   0.527   1.279   3.882 -0.2140 -0.3305 -0.7775
19184SOL    HW167482   0.440   1.297   3.918  0.6704 -0.1605  1.5089
19184SOL    HW267483   0.533   1.334   3.804 -1.7706  0.4703 -0.3737
19185SOL     OW67484   4.684  10.305  12.196 -0.0545  0.8306  0.9389
19185SOL    HW167485   4.762  10.253  12.176  1.0164  2.6499  0.1527
19185SOL    HW267486   4.621  10.241  12.229  0.7088 -1.1758 -1.1967
19186SOL     OW67487   9.954   5.008   2.785 -0.4570 -0.8264 -0.2663
19186SOL    HW167488   9.919   5.046   2.866 -1.4340 -1.5306 -0.3424
19186SOL    HW267489   9.878   4.968   2.743 -0.3345  0.9146 -2.3494
19187SOL     OW67490   0.520   8.298   4.601 -0.0479  0.2376 -0.2441
19187SOL    HW167491   0.499   8.378   4.649  0.0322  0.6519 -0.8766
19187SOL    HW267492   0.466   8.304   4.522 -0.0379 -0.3336 -0.2953
19188SOL     OW67493   5.723   6.156   7.278  0.2920  0.0415 -0.2359
19188SOL    HW167494   5.814   6.158   7.310  0.1533  0.1946  0.1498
19188SOL    HW267495   5.716   6.073   7.231  0.7807  0.2569 -0.7034
19189SOL     OW67496   4.187  10.357   7.479 -0.3150 -0.1100 -0.2294
19189SOL    HW167497   4.239  10.352   7.559 -0.7328  0.8444  0.1198
19189SOL    HW267498   4.165  10.266   7.459 -0.1670 -0.3664  0.7185
19190SOL     OW67499  10.112   7.702   5.793  0.2492 -0.3964  0.4196
19190SOL    HW167500  10.095   7.796   5.798  1.0053 -0.3254  3.0197
19190SOL    HW267501  10.200   7.696   5.757 -0.5840 -0.2925 -1.8604
19191SOL     OW67502   6.973  11.526   5.859 -0.0221 -0.7949  0.3463
19191SOL    HW167503   7.007  11.557   5.775  0.3564  1.0110  1.1176
19191SOL    HW267504   6.917  11.598   5.890  0.6326 -0.9886  2.0740
19192SOL     OW67505   5.977   9.803   4.344 -0.7769  0.2506 -0.0369
19192SOL    HW167506   6.058   9.832   4.385 -1.3686  0.6219  0.8957
19192SOL    HW267507   5.931   9.754   4.412 -1.4596  0.2851 -0.4558
19193SOL     OW67508  12.168   1.358   6.634 -0.5490  0.1507 -0.0007
19193SOL    HW167509  12.214   1.435   6.602 -1.2612  0.7456  0.3892
19193SOL    HW267510  12.077   1.385   6.642 -1.1079 -1.1777 -1.3256
19194SOL     OW67511   9.159  10.550   0.837  0.0062  0.0490 -0.0345
19194SOL    HW167512   9.222  10.613   0.801  0.8932 -0.7737  0.0392
19194SOL    HW267513   9.157  10.479   0.773 -0.3736 -0.2206  0.2752
19195SOL     OW67514   3.679   7.506   7.176  0.3020 -0.0431 -0.5512
19195SOL    HW167515   3.689   7.542   7.088  1.5420  0.4815 -0.2221
19195SOL    HW267516   3.752   7.444   7.186  1.2461  1.1836  0.6874
19196SOL     OW67517  12.293   2.938   8.377  0.0243 -0.5397 -0.5679
19196SOL    HW167518  12.355   2.911   8.445 -1.7821  1.0401  1.8809
19196SOL    HW267519  12.235   2.862   8.367 -1.6656  0.2566  2.1896
19197SOL     OW67520   0.011   5.973  10.120  0.0913 -0.0009 -0.1589
19197SOL    HW167521   0.066   6.006  10.050  0.9385 -1.5546 -0.2694
19197SOL    HW267522   0.059   5.897  10.155 -1.1563 -0.3441  0.8906
19198SOL     OW67523  10.192  11.656  11.943  0.4897  0.0247  0.5698
19198SOL    HW167524  10.154  11.682  11.859 -0.3266 -0.4072  0.8032
19198SOL    HW267525  10.267  11.601  11.920  0.6055  0.3676  0.1200
19199SOL     OW67526   1.405   5.104   9.796 -1.1091 -0.0804  0.5314
19199SOL    HW167527   1.408   5.015   9.831  0.1976 -0.1626  0.2701
19199SOL    HW267528   1.331   5.145   9.841 -0.9495 -0.9178  1.6022
19200SOL     OW67529   7.644   2.538   9.745  0.4366  0.6771  0.0687
19200SOL    HW167530   7.580   2.471   9.768  0.0682  0.2539 -1.9278
19200SOL    HW267531   7.593   2.620   9.744  0.8488  1.0279  2.3307
19201SOL     OW67532   7.492   3.773   0.050  0.5992  0.5495 -0.4261
19201SOL    HW167533   7.569   3.829   0.053  1.0439 -0.0732  0.1951
19201SOL    HW267534   7.524   3.687   0.076 -0.2215  0.1745 -0.6098
19202SOL     OW67535   1.974   4.033   5.571 -0.4860 -0.0771  0.0929
19202SOL    HW167536   2.029   4.060   5.645  0.9207  2.3180 -1.6840
19202SOL    HW267537   1.901   4.096   5.572 -0.4746 -0.0520 -0.5416
19203SOL     OW67538   0.755   5.159   1.089 -0.0167 -0.0121  0.4910
19203SOL    HW167539   0.824   5.215   1.124  0.0745  0.2115 -0.0432
19203SOL    HW267540   0.724   5.109   1.165 -0.7240  1.3908  1.1612
19204SOL     OW67541   9.564  12.512   1.675 -0.0492 -0.4289 -0.2710
19204SOL    HW167542   9.562  12.607   1.659  1.2656 -0.0587  1.3712
19204SOL    HW267543   9.474  12.489   1.694 -0.3492  0.5723 -0.4017
19205SOL     OW67544   2.038   2.757   2.366 -0.7129  0.0461 -1.1699
19205SOL    HW167545   1.971   2.813   2.326 -0.6586 -0.6709 -2.3217
19205SOL    HW267546   2.047   2.684   2.305  0.6350 -0.2096 -0.6969
19206SOL     OW67547   5.582   4.665   3.954  0.4973  0.3618 -0.1903
19206SOL    HW167548   5.570   4.579   3.993  0.0263  0.4419 -0.1570
19206SOL    HW267549   5.608   4.721   4.027  0.5201  0.3111 -0.1598
19207SOL     OW67550   0.218  13.063  10.872 -0.0962  0.2211  0.0370
19207SOL    HW167551   0.131  13.091  10.845 -0.9112 -0.6495  1.6817
19207SOL    HW267552   0.265  13.050  10.789 -1.5559  0.5519 -0.8799
19208SOL     OW67553   2.476   6.865   1.450 -0.4616  0.2853 -0.1558
19208SOL    HW167554   2.517   6.815   1.379  0.9451  0.5966  0.4074
19208SOL    HW267555   2.464   6.800   1.520 -1.0386  0.1730 -0.3547
19209SOL     OW67556   1.298   5.658   4.284  0.1874  0.2924 -0.3509
19209SOL    HW167557   1.241   5.592   4.325  0.0252  0.8293  0.3059
19209SOL    HW267558   1.300   5.730   4.347  1.4101  0.3798 -0.4675
19210SOL     OW67559   0.388   9.415   3.455  0.6763  0.2301 -0.1864
19210SOL    HW167560   0.371   9.416   3.361  0.2543  0.1102 -0.1121
19210SOL    HW267561   0.321   9.357   3.491  0.4839  0.7194  0.2576
19211SOL     OW67562  10.957   7.042   9.577  0.1886 -0.2205 -0.1555
19211SOL    HW167563  11.046   7.036   9.612  0.1759 -1.3130 -0.2971
19211SOL    HW267564  10.903   6.994   9.640 -0.5508  1.5498  0.6560
19212SOL     OW67565   0.239   0.900   9.704  0.3060 -0.1878 -0.2391
19212SOL    HW167566   0.195   0.932   9.625  0.5307  1.0944  0.1339
19212SOL    HW267567   0.170   0.899   9.771  0.1539 -1.1160 -0.3961
19213SOL     OW67568   6.627  11.722   8.515  0.1314 -0.2851 -0.3204
19213SOL    HW167569   6.539  11.736   8.551  0.4074 -0.7742  0.5622
19213SOL    HW267570   6.671  11.667   8.579  0.7056 -1.0318 -1.3261
19214SOL     OW67571  11.433  11.684  12.762 -0.6200 -0.3364  0.8834
19214SOL    HW167572  11.368  11.636  12.711 -1.2859  0.3810  1.0332
19214SOL    HW267573  11.510  11.686  12.706  0.5177 -4.1330  2.0335
19215SOL     OW67574   0.332   3.690  13.174 -0.3569 -0.3997  0.1998
19215SOL    HW167575   0.271   3.748  13.220  0.0267 -0.2132  0.4746
19215SOL    HW267576   0.418   3.717  13.204 -0.2117 -1.7917  1.1379
19216SOL     OW67577   0.226  11.707   5.962  0.7252 -0.2249  0.4743
19216SOL    HW167578   0.262  11.618   5.967 -0.2606 -0.6621 -0.0393
19216SOL    HW267579   0.266  11.745   5.883 -0.4565 -0.9605 -0.5051
19217SOL     OW67580  13.112   3.684  12.750 -0.1015  0.1494 -0.5196
19217SOL    HW167581  13.084   3.647  12.834  1.6452  0.0164  0.0276
19217SOL    HW267582  13.056   3.640  12.686 -1.2741  0.0370  0.5289
19218SOL     OW67583  12.453  12.758   6.022  0.2782 -0.3040  0.1560
19218SOL    HW167584  12.389  12.827   6.043  1.4589  0.8612  0.0838
19218SOL    HW267585  12.447  12.697   6.096  2.1289  2.0830  2.4545
19219SOL     OW67586   8.793   8.013   8.328 -0.2883  0.1066 -0.0300
19219SOL    HW167587   8.783   8.082   8.394  1.0193  3.1665 -2.6963
19219SOL    HW267588   8.708   7.971   8.324 -0.7166  0.5144  2.7709
19220SOL     OW67589  13.218  12.603   8.685  0.0475  0.3241 -0.1288
19220SOL    HW167590  13.156  12.616   8.756 -1.1016 -0.9896 -0.8292
19220SOL    HW267591  13.163  12.591   8.607  1.1740 -0.6954 -0.8094
19221SOL     OW67592  11.180   5.202   3.542  0.0992 -0.2079 -0.1091
19221SOL    HW167593  11.245   5.135   3.561 -0.2260 -0.4839  0.0256
19221SOL    HW267594  11.096   5.156   3.542 -0.4880  0.6471  2.8204
19222SOL     OW67595   1.972   0.648   2.942  0.0761 -0.4167  0.0811
19222SOL    HW167596   1.882   0.658   2.910  0.3066 -0.1812 -0.5220
19222SOL    HW267597   2.025   0.695   2.878  0.5401  0.3220  0.9897
19223SOL     OW67598   4.391   2.281  12.801 -0.5296 -0.1120  0.0772
19223SOL    HW167599   4.402   2.187  12.816 -0.5270 -0.2823 -0.9171
19223SOL    HW267600   4.311   2.303  12.849 -0.0678 -0.4418  1.0142
19224SOL     OW67601   2.441   8.297   1.059  0.3493  0.0006  0.3040
19224SOL    HW167602   2.474   8.305   1.149  1.6418  0.4658 -0.1926
19224SOL    HW267603   2.475   8.212   1.029  1.3353  0.5825 -0.2866
19225SOL     OW67604   7.779  10.552   8.468  0.4030 -0.4790  0.3029
19225SOL    HW167605   7.863  10.587   8.439  0.2868  0.3938  1.0090
19225SOL    HW267606   7.715  10.595   8.411  0.2639  0.4713  1.1466
19226SOL     OW67607   1.145   7.707   9.986  0.3268  0.1064 -0.1130
19226SOL    HW167608   1.051   7.722   9.973  0.3204  0.5588  0.4327
19226SOL    HW267609   1.152   7.664  10.071  0.5574 -0.6649 -0.5127
19227SOL     OW67610  12.802   1.406   2.477 -0.0674 -0.0735 -0.1589
19227SOL    HW167611  12.888   1.400   2.434 -0.8680 -1.8497 -1.6457
19227SOL    HW267612  12.761   1.483   2.438  1.2537  1.5596  1.4768
19228SOL     OW67613   0.678  11.586   8.238  0.0384 -0.1225  0.0659
19228SOL    HW167614   0.655  11.635   8.160  0.4532  0.4747  0.3166
19228SOL    HW267615   0.616  11.616   8.305 -0.0090 -0.2849  0.0965
19229SOL     OW67616  10.023   4.029   6.166  0.3556 -0.1785 -0.7538
19229SOL    HW167617  10.061   4.068   6.087  0.2267  1.3240 -0.1068
19229SOL    HW267618   9.937   3.996   6.137  0.4358  0.0877 -1.3023
19230SOL     OW67619   0.739   3.113   6.240  0.0767  0.4630  0.0550
19230SOL    HW167620   0.816   3.084   6.192 -0.0789  2.7153 -1.7544
19230SOL    HW267621   0.705   3.186   6.188 -3.1171 -0.2405  0.9322
19231SOL     OW67622   6.076   5.531   5.022 -0.3711 -0.1325 -0.1141
19231SOL    HW167623   6.004   5.584   4.986  0.3375 -0.4415 -2.0798
19231SOL    HW267624   6.129   5.508   4.946  0.7393 -1.5660  1.0490
19232SOL     OW67625   3.310   4.974   6.358 -0.3690 -0.2032 -0.0531
19232SOL    HW167626   3.366   4.970   6.435  0.3316  0.0752 -0.5312
19232SOL    HW267627   3.249   4.901   6.368  0.9336 -1.3512 -0.1528
19233SOL     OW67628   4.559   5.863   4.251  0.2950  0.1809  0.4537
19233SOL    HW167629   4.479   5.819   4.282 -0.5107  1.8799  0.9318
19233SOL    HW267630   4.600   5.896   4.331  0.2177  1.3243  0.0451
19234SOL     OW67631   0.583  10.224   0.733 -0.2623  0.4450 -0.4482
19234SOL    HW167632   0.661  10.263   0.773 -0.1940  1.1197 -1.2118
19234SOL    HW267633   0.603  10.220   0.640 -1.2641  0.9489 -0.7046
19235SOL     OW67634  13.015  11.185  11.419  0.2238 -0.4285 -0.0487
19235SOL    HW167635  13.005  11.261  11.361  0.3572 -0.0809  0.3825
19235SOL    HW267636  13.110  11.171  11.424  0.1879 -0.8614 -0.4244
19236SOL     OW67637  11.154   6.495   8.592  0.3550  0.5685  0.8320
19236SOL    HW167638  11.084   6.446   8.635 -0.0309 -0.7801 -1.1748
19236SOL    HW267639  11.121   6.585   8.587 -0.1822  0.4589  2.0081
19237SOL     OW67640   1.046   8.878   6.325 -0.4840  0.3050 -0.4483
19237SOL    HW167641   1.019   8.851   6.412  0.0036 -2.1836 -0.9826
19237SOL    HW267642   0.975   8.849   6.267 -0.3498  1.0254 -0.9952
19238SOL     OW67643   2.955   4.539   2.551  0.3023 -0.5766 -0.1362
19238SOL    HW167644   3.041   4.554   2.511  0.0914  0.0142 -0.3779
19238SOL    HW267645   2.896   4.527   2.477  0.0404 -0.1908  0.0027
19239SOL     OW67646  11.436   9.740   7.541 -0.5905  0.0316  0.1057
19239SOL    HW167647  11.349   9.723   7.504 -1.3196 -0.7340  2.0495
19239SOL    HW267648  11.496   9.701   7.478 -1.5585  1.1975 -1.6464
19240SOL     OW67649   9.924   4.990  10.589  0.1537  0.0755 -0.0297
19240SOL    HW167650   9.923   5.042  10.669  2.4948 -1.7283  1.2987
19240SOL    HW267651   9.932   5.055  10.519  0.5961  1.6110  1.3669
19241SOL     OW67652   7.196  11.624  12.339 -0.3771 -0.3639 -0.4653
19241SOL    HW167653   7.133  11.684  12.300 -0.5799  0.4249  1.0268
19241SOL    HW267654   7.279  11.646  12.295 -0.4372  1.0543  0.0786
19242SOL     OW67655   6.647  10.546   3.463  0.1515 -0.7970 -0.1080
19242SOL    HW167656   6.570  10.549   3.406 -0.6156 -0.1168  0.9303
19242SOL    HW267657   6.611  10.536   3.551  1.0505  2.1321  0.7137
19243SOL     OW67658   5.524  12.836  11.371 -0.1249 -0.0764  0.3420
19243SOL    HW167659   5.564  12.756  11.407  2.6368  0.7569 -0.6028
19243SOL    HW267660   5.515  12.893  11.447  1.1454 -0.0750  0.5250
19244SOL     OW67661   9.227   8.798  10.502 -0.0919  0.6347  0.7523
19244SOL    HW167662   9.144   8.797  10.551  0.8109  2.2857  2.4855
19244SOL    HW267663   9.280   8.731  10.545  0.1809  1.0459  1.0669
19245SOL     OW67664   6.780   6.612   7.669  0.1828  0.1142 -0.2663
19245SOL    HW167665   6.761   6.669   7.595  0.3779 -0.8759 -1.1129
19245SOL    HW267666   6.743   6.527   7.643  1.3916 -0.5775  0.1979
19246SOL     OW67667   5.533   0.125  11.268  0.2075 -0.1475 -0.1216
19246SOL    HW167668   5.597   0.183  11.309  0.4850 -1.2821  1.0924
19246SOL    HW267669   5.578   0.090  11.192  0.6549 -0.1324  0.1341
19247SOL     OW67670   1.947  12.229  10.528  0.1638 -0.1846 -0.5243
19247SOL    HW167671   1.973  12.261  10.615 -1.1639  0.5803 -0.3779
19247SOL    HW267672   2.023  12.248  10.472 -0.5340  3.4500 -0.4756
19248SOL     OW67673   7.764   7.311   4.134 -0.2096  0.0227 -0.6093
19248SOL    HW167674   7.768   7.347   4.223  0.1050 -2.9315  0.6932
19248SOL    HW267675   7.671   7.305   4.114 -0.4151 -1.6314  0.6338
19249SOL     OW67676   5.539   6.707   0.737  0.0296  0.3691 -0.5616
19249SOL    HW167677   5.450   6.741   0.730  0.0567  1.2712  2.3118
19249SOL    HW267678   5.529   6.613   0.749 -0.5293  0.4598 -0.3338
19250SOL     OW67679   0.399   5.067   2.421  0.0250  0.3478 -0.3231
19250SOL    HW167680   0.384   5.158   2.397 -0.0950  0.6462  0.8231
19250SOL    HW267681   0.477   5.069   2.477 -1.2621  0.0963  1.6057
19251SOL     OW67682  11.761   5.753   3.785 -0.1828 -0.1705  0.1059
19251SOL    HW167683  11.841   5.803   3.772  0.1700 -0.4470  1.1703
19251SOL    HW267684  11.732   5.732   3.696  2.3198 -2.2873 -0.3275
19252SOL     OW67685   7.709   6.365   2.947  0.2113 -0.4938  1.0118
19252SOL    HW167686   7.649   6.378   3.020  0.7217 -0.0665  1.3722
19252SOL    HW267687   7.727   6.454   2.915 -0.1162 -0.6884  0.2768
19253SOL     OW67688   4.430   0.238   2.234  0.3425 -0.3135 -0.2247
19253SOL    HW167689   4.344   0.246   2.193  1.6367  0.5118 -2.9709
19253SOL    HW267690   4.413   0.185   2.313 -2.9887  1.5416  0.5133
19254SOL     OW67691   8.952   1.247   4.054  0.1347 -0.0121  0.3527
19254SOL    HW167692   8.958   1.162   4.010  2.0150  0.6391 -0.7415
19254SOL    HW267693   9.042   1.270   4.074 -0.5014  0.5970  2.9785
19255SOL     OW67694   1.183  12.724   0.274 -0.6437  0.5025 -0.0475
19255SOL    HW167695   1.188  12.632   0.248 -1.8190  0.3605  0.1701
19255SOL    HW267696   1.154  12.770   0.196 -3.0324  0.2367  0.6016
19256SOL     OW67697   2.356  11.130  11.624  0.0924  0.1929 -0.2296
19256SOL    HW167698   2.289  11.128  11.692 -1.4580  0.6501 -1.6684
19256SOL    HW267699   2.426  11.074  11.658 -0.2361  1.0706  2.0759
19257SOL     OW67700   4.590  12.886   8.028 -0.2940 -0.0950  0.5294
19257SOL    HW167701   4.642  12.869   8.106  0.5128  0.9683  0.2556
19257SOL    HW267702   4.651  12.874   7.955 -0.9026 -0.5689  0.0830
19258SOL     OW67703   9.656   3.809   8.138  0.1212  0.1685 -0.2009
19258SOL    HW167704   9.663   3.898   8.105  0.0348  0.1727 -0.2096
19258SOL    HW267705   9.567   3.782   8.115 -0.1031  0.3414  0.4467
19259SOL     OW67706   5.710  10.244   0.359 -0.0550 -0.7547 -0.5324
19259SOL    HW167707   5.732  10.337   0.348 -1.5007 -0.3415 -0.1805
19259SOL    HW267708   5.641  10.228   0.295 -1.0765 -1.1027  0.6167
19260SOL     OW67709   7.624   7.334  12.240  0.2720  0.1856 -0.1256
19260SOL    HW167710   7.622   7.289  12.155  0.3172  0.5700 -0.3289
19260SOL    HW267711   7.533   7.362  12.254  0.0520 -0.7210  0.4105
19261SOL     OW67712   9.489   4.574  11.810  0.5890  0.0554 -0.2153
19261SOL    HW167713   9.435   4.554  11.734  1.8610 -0.0922 -1.1187
19261SOL    HW267714   9.579   4.571  11.777  1.1283  1.0058  1.0623
19262SOL     OW67715  12.003   3.011  10.684  0.3604  0.0231 -0.0722
19262SOL    HW167716  11.920   3.057  10.701 -0.9202 -1.2235 -2.5066
19262SOL    HW267717  12.009   2.947  10.755 -1.4018 -0.6468 -0.4766
19263SOL     OW67718  12.575   8.459   9.389 -0.3572  0.2425 -0.4194
19263SOL    HW167719  12.634   8.422   9.454 -1.4891 -2.6048 -0.8825
19263SOL    HW267720  12.608   8.428   9.305  0.0910  2.4683 -1.1444
19264SOL     OW67721  10.361   5.567   0.504 -0.4542  0.0354 -0.1248
19264SOL    HW167722  10.388   5.512   0.431 -0.1419 -0.6356  0.4907
19264SOL    HW267723  10.443   5.589   0.548 -0.3271  2.5926 -1.4429
19265SOL     OW67724   1.779   5.953   7.182 -0.3419 -0.2893  0.0300
19265SOL    HW167725   1.788   6.003   7.263  2.4828 -0.5040 -0.0520
19265SOL    HW267726   1.795   6.017   7.112  3.0383 -1.0972 -0.0816
19266SOL     OW67727   9.396   8.998   4.242 -0.4456  0.7818 -0.0262
19266SOL    HW167728   9.348   9.081   4.241 -1.3698  0.2536  0.0575
19266SOL    HW267729   9.329   8.931   4.238  0.2097 -0.0033  1.2873
19267SOL     OW67730   1.827   4.946   6.406 -0.5137  0.0179  0.7033
19267SOL    HW167731   1.783   4.862   6.393 -0.6487 -0.1252  1.9907
19267SOL    HW267732   1.757   5.011   6.401 -0.9986 -0.2443  3.2029
19268SOL     OW67733   3.176   3.897   3.509 -0.6430 -0.2967  0.3979
19268SOL    HW167734   3.107   3.931   3.565  1.1847  0.9647  2.0434
19268SOL    HW267735   3.151   3.806   3.492 -1.2129 -0.8380  3.5062
19269SOL     OW67736   6.842   7.905   0.004 -0.0688 -0.0466  0.1420
19269SOL    HW167737   6.749   7.889   0.018 -0.0465  1.4362  2.6127
19269SOL    HW267738   6.886   7.829   0.042 -0.2195 -1.0247 -1.5396
19270SOL     OW67739   9.467   8.811  11.210  0.7028  0.7090 -0.1468
19270SOL    HW167740   9.483   8.822  11.117 -0.5570  0.3571 -0.4197
19270SOL    HW267741   9.517   8.733  11.235  0.1447  0.1389 -0.7802
19271SOL     OW67742   2.518   4.065   8.845  0.1908  0.2308 -0.8322
19271SOL    HW167743   2.588   4.126   8.822  1.3892 -1.3439 -1.5772
19271SOL    HW267744   2.503   4.079   8.938  3.4325 -1.1915  0.0234
19272SOL     OW67745   6.775   0.125   7.181  0.1166  0.8027 -0.1014
19272SOL    HW167746   6.719   0.161   7.112  0.3219  1.4173  0.0503
19272SOL    HW267747   6.857   0.173   7.174  0.6853 -0.1895 -0.4050
19273SOL     OW67748   3.419   7.573   4.355 -0.3186  0.8207  0.1139
19273SOL    HW167749   3.465   7.540   4.432 -1.1999  1.5186  0.9676
19273SOL    HW267750   3.379   7.655   4.385  0.1279  1.6134 -1.3646
19274SOL     OW67751   9.262   6.893   4.430  0.9924  0.0084 -0.0224
19274SOL    HW167752   9.339   6.932   4.389  0.9724  0.0921  0.0203
19274SOL    HW267753   9.233   6.825   4.369  0.9986  0.0919 -0.1167
19275SOL     OW67754   5.402   5.157   5.223 -0.3545  0.4762 -0.2530
19275SOL    HW167755   5.394   5.105   5.303 -0.6606  0.5936 -0.2041
19275SOL    HW267756   5.448   5.236   5.250  0.3109  0.1310 -0.3745
19276SOL     OW67757   4.013   7.145   5.993  0.1114  0.3839 -0.6671
19276SOL    HW167758   4.049   7.079   5.934 -1.0274 -1.0246  0.1507
19276SOL    HW267759   4.021   7.106   6.080  0.7230  1.9531  0.0208
19277SOL     OW67760  10.171   9.743   8.627 -0.9937 -0.1996  0.5007
19277SOL    HW167761  10.136   9.664   8.585  0.9417 -1.2509  0.7518
19277SOL    HW267762  10.136   9.741   8.716 -0.8429 -0.8896  0.5532
19278SOL     OW67763   9.657   7.760   2.830  0.6167 -0.0785  0.2773
19278SOL    HW167764   9.612   7.730   2.751  3.0220 -1.0410 -0.8259
19278SOL    HW267765   9.748   7.772   2.803  1.4578 -0.1385  2.8249
19279SOL     OW67766  11.544   7.244   2.308  0.3545 -0.0416  0.2047
19279SOL    HW167767  11.475   7.310   2.302  1.1436  0.8520  0.7061
19279SOL    HW267768  11.507   7.174   2.361 -0.7193 -0.3183 -0.8641
19280SOL     OW67769   9.571   1.734   6.409 -0.3719  0.4716 -0.7291
19280SOL    HW167770   9.638   1.773   6.465  0.3296  0.5498 -1.6180
19280SOL    HW267771   9.601   1.750   6.320 -1.0387 -0.4336 -1.1296
19281SOL     OW67772  12.366   4.522   8.121 -0.3885  0.2097  0.0218
19281SOL    HW167773  12.310   4.541   8.046 -0.5607  0.5033  0.2175
19281SOL    HW267774  12.335   4.438   8.154 -0.7620  0.3970  0.1633
19282SOL     OW67775   4.515  12.562   7.786  0.5305 -0.2214  0.2048
19282SOL    HW167776   4.547  12.575   7.875 -3.4253  0.9133  1.6732
19282SOL    HW267777   4.462  12.482   7.791 -2.0819  1.3674 -0.2555
19283SOL     OW67778  13.271  10.952  10.607  0.3657 -0.4681  0.2937
19283SOL    HW167779  13.254  11.025  10.548  0.5545 -1.8797 -1.6321
19283SOL    HW267780  13.323  10.891  10.554 -0.0948 -2.1517  1.6951
19284SOL     OW67781  12.675   3.838   5.138  0.9436  0.1677  0.0444
19284SOL    HW167782  12.583   3.847   5.112  0.4505 -2.5020  0.6093
19284SOL    HW267783  12.684   3.898   5.212 -1.3204 -1.7677  2.0868
19285SOL     OW67784   5.264  12.109  10.017 -0.0057  0.1300  0.4314
19285SOL    HW167785   5.197  12.154   9.966  0.0688  1.1904  1.2336
19285SOL    HW267786   5.215  12.061  10.084 -0.1176 -1.4539 -0.7468
19286SOL     OW67787  12.995   0.399   7.138  0.1616  0.7866  0.1530
19286SOL    HW167788  12.910   0.398   7.183  0.1878 -0.8645  0.2201
19286SOL    HW267789  13.053   0.350   7.196 -0.0225 -2.2533 -2.0014
19287SOL     OW67790   7.301   8.453  12.422 -0.0322 -0.1531  0.4752
19287SOL    HW167791   7.278   8.450  12.330  0.9173  0.1407  0.2184
19287SOL    HW267792   7.350   8.372  12.437  1.2877  0.5910  0.2991
19288SOL     OW67793   1.681   7.942   5.213  0.6956  0.2664  0.5290
19288SOL    HW167794   1.668   7.874   5.279  0.8019  0.0911  0.3683
19288SOL    HW267795   1.650   8.022   5.256  0.5764  0.1208  0.7200
19289SOL     OW67796   5.417   6.776  11.642 -0.9118 -0.3671  0.3254
19289SOL    HW167797   5.435   6.688  11.609  0.9644 -0.1129  0.5861
19289SOL    HW267798   5.448   6.835  11.573 -0.7267  0.1005  0.7990
19290SOL     OW67799   3.400  11.335  10.377 -0.1136  0.0110  0.1663
19290SOL    HW167800   3.478  11.286  10.402  2.2170  2.4432 -1.7231
19290SOL    HW267801   3.420  11.425  10.401 -2.2034  0.7770 -0.7441
19291SOL     OW67802   1.082   1.572   9.674 -0.4845 -0.0509 -0.1460
19291SOL    HW167803   1.050   1.542   9.759  2.4260 -4.6310 -0.3391
19291SOL    HW267804   1.173   1.598   9.691  0.6272 -2.4259 -1.9135
19292SOL     OW67805  11.434   0.517   1.871  0.5973 -0.0935 -0.0686
19292SOL    HW167806  11.487   0.438   1.862 -0.5866 -0.9672  0.3211
19292SOL    HW267807  11.396   0.511   1.959 -0.2003  0.4621 -0.3582
19293SOL     OW67808   9.903   2.081   1.269  0.2062  0.3125 -0.6506
19293SOL    HW167809   9.963   2.096   1.342  0.4628 -0.8121 -0.6059
19293SOL    HW267810   9.959   2.054   1.196 -0.1218  0.6419 -1.0269
19294SOL     OW67811   2.253   1.372   9.966  0.2811  0.5911 -0.3529
19294SOL    HW167812   2.243   1.277   9.975  0.4647  0.6312  0.2850
19294SOL    HW267813   2.317   1.396  10.032  0.9477  1.0347 -1.1385
19295SOL     OW67814   1.726   2.133   1.463 -0.3624  0.2833 -0.1396
19295SOL    HW167815   1.804   2.177   1.429 -0.4368 -0.1958 -0.9764
19295SOL    HW267816   1.653   2.176   1.419 -0.4692 -0.2704 -0.5166
19296SOL     OW67817   6.302   8.361   9.449  0.0069  0.3782 -0.0380
19296SOL    HW167818   6.334   8.447   9.420  1.0140  0.4886  1.3070
19296SOL    HW267819   6.341   8.299   9.387 -0.3269  0.8419 -0.7248
19297SOL     OW67820   4.496   1.731  12.692  0.3177 -0.3057  0.1407
19297SOL    HW167821   4.529   1.688  12.771  0.3789 -0.3308  0.1019
19297SOL    HW267822   4.452   1.661  12.643 -0.1219 -0.1957  0.3692
19298SOL     OW67823   0.206  11.509   3.046  0.0231  0.2624  0.1240
19298SOL    HW167824   0.115  11.498   3.073 -0.2084 -0.0863 -0.7713
19298SOL    HW267825   0.258  11.473   3.118 -0.5509  0.2170  0.5168
19299SOL     OW67826   7.907   2.961   0.914  0.0369 -0.1342  0.0278
19299SOL    HW167827   7.984   2.972   0.858  0.8666 -0.0776  1.1439
19299SOL    HW267828   7.931   3.003   0.996 -1.8729  1.4672 -0.1601
19300SOL     OW67829   0.357   4.887   4.986  0.1119 -0.2833  0.7215
19300SOL    HW167830   0.341   4.974   4.949 -1.7491 -1.2376 -0.8502
19300SOL    HW267831   0.288   4.832   4.950 -0.0549 -1.9668  3.3891
19301SOL     OW67832   4.603   8.784   5.565  0.0268 -0.6017 -0.0390
19301SOL    HW167833   4.519   8.771   5.522  0.0614 -0.6854 -0.0823
19301SOL    HW267834   4.583   8.834   5.644 -0.4346 -2.8218  1.3248
19302SOL     OW67835   0.793   6.110   5.869  0.3258  0.3337 -0.4025
19302SOL    HW167836   0.796   6.117   5.964  0.4715  0.2991 -0.4033
19302SOL    HW267837   0.716   6.055   5.851  0.6982 -0.2465 -0.2659
19303SOL     OW67838   4.912   4.321   9.194  0.3007  0.4105  0.1886
19303SOL    HW167839   4.962   4.393   9.234 -2.7594  1.9934  1.4679
19303SOL    HW267840   4.901   4.258   9.265 -0.9986  0.9414  0.4861
19304SOL     OW67841   4.688   9.194   6.632  0.1376 -0.2403  0.5203
19304SOL    HW167842   4.643   9.192   6.717  2.2395  2.8969  1.8872
19304SOL    HW267843   4.760   9.132   6.642  0.3947  0.1360  1.0576
19305SOL     OW67844  12.056   4.182   1.425  0.5842  0.2997 -0.3640
19305SOL    HW167845  11.983   4.217   1.477  0.3392 -0.2042 -0.3652
19305SOL    HW267846  12.031   4.092   1.406  1.1826  0.1390 -0.4130
19306SOL     OW67847   9.202  10.095   7.109 -0.4414  0.2742 -0.1193
19306SOL    HW167848   9.296  10.076   7.102 -0.4902  0.5501 -1.9199
19306SOL    HW267849   9.173  10.109   7.019 -2.2670  0.0087  0.3822
19307SOL     OW67850   5.431  11.531   3.373  0.2219 -0.3119  0.7246
19307SOL    HW167851   5.368  11.603   3.386  0.1357 -0.0372 -0.9343
19307SOL    HW267852   5.492  11.538   3.446 -0.9894  0.1589  1.7197
19308SOL     OW67853  10.539   6.643  13.208  0.4537 -0.1015  0.2468
19308SOL    HW167854  10.618   6.634  13.261  0.1677 -0.8511  0.5559
19308SOL    HW267855  10.572   6.665  13.121  0.9467  0.7023  0.6192
19309SOL     OW67856  10.641   9.052   3.417 -0.7484  0.2953  0.3715
19309SOL    HW167857  10.591   9.051   3.336 -1.1962  0.8032  0.6368
19309SOL    HW267858  10.595   8.992   3.475  0.4191 -1.2490 -0.2295
19310SOL     OW67859   5.109  11.337   5.537 -0.5326  0.2361  0.2000
19310SOL    HW167860   5.116  11.258   5.591  1.4401  0.5945  0.5305
19310SOL    HW267861   5.038  11.317   5.475 -2.5973 -0.3712  2.5694
19311SOL     OW67862  12.030   6.792   5.728  0.0404  0.2359  0.2970
19311SOL    HW167863  12.016   6.743   5.809  0.2015  0.3997  0.4283
19311SOL    HW267864  11.992   6.878   5.745 -1.7388 -0.3493 -0.5280
19312SOL     OW67865   7.966   9.348   5.489  0.4128 -0.2719 -0.8161
19312SOL    HW167866   7.951   9.441   5.475  0.5558 -0.3631 -1.6029
19312SOL    HW267867   8.047   9.344   5.541 -0.6296  0.0995  0.8970
19313SOL     OW67868   4.083   6.519   5.127  1.2562  0.0079 -0.0751
19313SOL    HW167869   4.132   6.562   5.057 -0.4331 -0.1647 -1.4616
19313SOL    HW267870   4.107   6.427   5.120  2.3901  0.2344  0.7229
19314SOL     OW67871   8.068   1.473  12.636  0.2613 -0.2227 -0.1441
19314SOL    HW167872   7.983   1.454  12.596  0.4402 -0.4384 -0.4372
19314SOL    HW267873   8.131   1.452  12.567  0.4990  1.0944 -0.3439
19315SOL     OW67874   4.638   5.099   8.127 -0.5166  0.0550 -0.2261
19315SOL    HW167875   4.564   5.075   8.070 -1.6799  1.4890  0.6207
19315SOL    HW267876   4.604   5.086   8.215  0.2089  0.8514  0.1729
19316SOL     OW67877   0.925   7.652  11.738  0.0060 -0.3918 -0.1421
19316SOL    HW167878   0.845   7.622  11.695 -0.5951 -0.1975  0.7968
19316SOL    HW267879   0.937   7.591  11.810 -1.6361  1.8581  2.2486
19317SOL     OW67880   8.251   8.429   5.797  0.4103  0.3203  0.3153
19317SOL    HW167881   8.268   8.412   5.890 -0.3054  1.3344  0.6549
19317SOL    HW267882   8.156   8.419   5.789  0.0922  2.7319  0.2836
19318SOL     OW67883   7.444   4.760   9.838  0.0290  0.3843  0.5406
19318SOL    HW167884   7.537   4.766   9.861  0.2484 -0.3773 -0.1377
19318SOL    HW267885   7.400   4.743   9.922  0.4362  1.1738  0.9367
19319SOL     OW67886   9.970   9.155   2.899 -0.2505  0.5829 -0.6682
19319SOL    HW167887   9.937   9.084   2.844 -1.5725  0.1192  0.6540
19319SOL    HW267888   9.902   9.169   2.964  0.8641  1.7213  0.3234
19320SOL     OW67889   2.371   7.957  13.013  0.0908 -0.4537 -0.0046
19320SOL    HW167890   2.329   8.022  13.069  0.6245 -0.2036  0.1121
19320SOL    HW267891   2.358   7.874  13.058  0.4870 -0.2600  0.4779
19321SOL     OW67892  11.429   1.055   6.392  0.2630  0.5483  0.0645
19321SOL    HW167893  11.362   1.025   6.454  1.7402 -0.1234  1.4171
19321SOL    HW267894  11.448   1.145   6.421  3.1513 -0.7311  2.7658
19322SOL     OW67895   4.021   2.446   0.464 -0.1801  0.1892 -0.0978
19322SOL    HW167896   3.932   2.470   0.436  0.3675  0.7647 -1.4348
19322SOL    HW267897   4.070   2.528   0.459  0.3363 -0.0385  1.0683
19323SOL     OW67898   9.742   4.577   1.785 -0.3338 -0.2128  0.1337
19323SOL    HW167899   9.753   4.526   1.705 -1.6030  0.2113 -0.3310
19323SOL    HW267900   9.657   4.620   1.775  0.0548  0.8504  1.1528
19324SOL     OW67901  11.524   6.191   9.403 -0.3272 -0.3420  0.3517
19324SOL    HW167902  11.513   6.156   9.491 -1.7941 -0.9986 -0.0653
19324SOL    HW267903  11.560   6.118   9.352 -0.6528 -0.3470  0.1278
19325SOL     OW67904   5.197   1.625   9.613 -0.1211 -0.0830  0.6146
19325SOL    HW167905   5.102   1.634   9.624 -0.5415 -1.3872 -1.5450
19325SOL    HW267906   5.215   1.660   9.526  1.3395 -0.2216  0.8389
19326SOL     OW67907   9.018  11.901   3.017 -0.0928 -0.0318  0.1656
19326SOL    HW167908   9.092  11.936   2.967 -0.9020  1.0954 -0.2775
19326SOL    HW267909   9.055  11.881   3.103  0.1015  3.5932  1.0677
19327SOL     OW67910  11.528  13.255   2.685  0.4276  0.1792  0.1991
19327SOL    HW167911  11.599  13.210   2.730  1.0531 -0.4629 -1.3521
19327SOL    HW267912  11.568  13.334   2.650 -0.2028  0.9917  1.2701
19328SOL     OW67913  11.007   7.840   5.955  0.0105 -0.2149 -0.2642
19328SOL    HW167914  11.021   7.787   5.877 -0.1445 -0.7481  0.0599
19328SOL    HW267915  11.041   7.786   6.027 -0.0999  0.1491  0.0648
19329SOL     OW67916  10.225   8.982   3.080 -0.6364  0.6859 -0.0958
19329SOL    HW167917  10.257   9.037   3.009 -2.2464  0.4087 -1.0980
19329SOL    HW267918  10.166   9.039   3.130 -0.5835  0.4915  0.1926
19330SOL     OW67919   8.111   1.723   1.403 -0.0922  0.3550 -0.0364
19330SOL    HW167920   8.058   1.782   1.457  2.4059  2.6191  0.1672
19330SOL    HW267921   8.056   1.703   1.328 -1.7222  1.4721  0.7995
19331SOL     OW67922   4.213   0.981   0.110  0.2051 -0.1223  0.3434
19331SOL    HW167923   4.181   0.913   0.169 -1.1782 -1.1439 -1.4774
19331SOL    HW267924   4.256   0.933   0.039 -1.1577  0.8210 -1.2008
19332SOL     OW67925   6.006   9.089   0.809 -0.3772  0.3022 -0.1418
19332SOL    HW167926   5.940   9.020   0.817  0.2954 -1.0443 -3.9080
19332SOL    HW267927   5.955   9.169   0.795 -1.1519  0.1314  1.4901
19333SOL     OW67928   3.821   4.642   0.239 -0.5422 -0.3743  0.7440
19333SOL    HW167929   3.742   4.610   0.196 -0.1849 -1.4112  0.8259
19333SOL    HW267930   3.890   4.628   0.175 -0.3672  0.2372  0.7938
19334SOL     OW67931   2.034  12.653   6.403 -0.1857 -0.5482  0.2470
19334SOL    HW167932   1.968  12.718   6.380 -0.5583 -1.4753 -1.4530
19334SOL    HW267933   2.046  12.601   6.324  0.9557 -1.8283  1.2002
19335SOL     OW67934   2.912  12.010   0.233  0.3986  0.1357  0.6752
19335SOL    HW167935   2.845  11.948   0.262 -1.7224  1.3912 -1.2524
19335SOL    HW267936   2.883  12.095   0.267  1.7620  0.5111  0.9437
19336SOL     OW67937   3.612  12.764   8.879 -0.6695 -0.3281 -0.0244
19336SOL    HW167938   3.690  12.709   8.877 -0.6843 -0.3574 -2.5552
19336SOL    HW267939   3.641  12.845   8.921  0.5922 -0.5179 -0.4932
19337SOL     OW67940  10.334   5.022  12.820  0.4873 -0.5585  0.4184
19337SOL    HW167941  10.282   5.027  12.900  1.0315 -0.1993  0.7555
19337SOL    HW267942  10.307   4.940  12.779  0.4659 -0.9262  1.1534
19338SOL     OW67943  10.619   2.579   1.635  0.2285  0.3101  0.3074
19338SOL    HW167944  10.658   2.507   1.586 -0.1060  0.4186 -0.1321
19338SOL    HW267945  10.524   2.565   1.626  0.1620  0.8690  0.1118
19339SOL     OW67946  10.787   8.244   7.720  0.3260 -0.1589  0.7901
19339SOL    HW167947  10.740   8.239   7.803  0.3935  0.9357  0.9125
19339SOL    HW267948  10.717   8.251   7.654  0.2604 -1.4383  0.6982
19340SOL     OW67949   0.501   4.394  12.977  0.2390 -0.1169  0.0400
19340SOL    HW167950   0.423   4.418  13.027  0.0997  0.2628 -0.3498
19340SOL    HW267951   0.503   4.457  12.905 -0.5677 -1.7100 -1.4699
19341SOL     OW67952   5.465   3.942   9.837  0.5001  0.0897  0.4595
19341SOL    HW167953   5.482   3.999   9.762  0.3932  0.4516  0.7083
19341SOL    HW267954   5.375   3.911   9.823  0.4518  0.2199  0.4795
19342SOL     OW67955  10.440  13.266   4.649 -0.3334 -0.3814  0.8794
19342SOL    HW167956  10.344  13.264   4.659 -0.3443  0.7372  1.0364
19342SOL    HW267957  10.473  13.228   4.730 -0.5969  1.6423  1.9844
19343SOL     OW67958   4.720   5.502   6.496 -0.1724 -0.2942 -0.1706
19343SOL    HW167959   4.740   5.585   6.451  1.7390 -0.9335 -0.6033
19343SOL    HW267960   4.625   5.504   6.508 -0.3906  1.2155 -1.6530
19344SOL     OW67961   7.220   4.772   1.045 -0.5782 -0.5958  0.4128
19344SOL    HW167962   7.204   4.787   0.952 -0.0574 -0.4640  0.3401
19344SOL    HW267963   7.134   4.777   1.086 -0.9569 -1.6788 -0.2011
19345SOL     OW67964   3.311   9.370   1.123  0.3350 -0.2243  0.2149
19345SOL    HW167965   3.373   9.337   1.059 -1.6054 -1.3667 -1.2068
19345SOL    HW267966   3.340   9.458   1.144  1.5186 -0.1658 -1.5777
19346SOL     OW67967   1.219   8.433  10.080  0.0520 -0.7214 -0.0035
19346SOL    HW167968   1.233   8.362  10.142 -0.8611  0.1648  1.2741
19346SOL    HW267969   1.129   8.423  10.051  0.0890 -0.4097 -0.2354
19347SOL     OW67970   6.894   0.810   6.305 -0.2317  0.2767 -0.2550
19347SOL    HW167971   6.961   0.811   6.374 -0.3830 -0.0382 -0.1012
19347SOL    HW267972   6.852   0.724   6.314  0.2691 -0.0823 -1.2509
19348SOL     OW67973   1.622   2.810  11.997 -0.1930 -0.1203 -0.3885
19348SOL    HW167974   1.699   2.754  11.991 -0.8954 -1.1736 -0.0029
19348SOL    HW267975   1.548   2.751  11.979 -1.0675  0.3011  1.4913
19349SOL     OW67976   6.036   1.125   5.155 -0.7608  0.2931  0.8898
19349SOL    HW167977   6.011   1.198   5.099 -0.6914 -0.8578 -0.6952
19349SOL    HW267978   5.955   1.078   5.172 -0.8056  0.6939  1.9116
19350SOL     OW67979   2.471   7.114   3.906  0.2751 -0.4263  0.2131
19350SOL    HW167980   2.420   7.109   3.987 -0.7673 -2.3113 -0.5099
19350SOL    HW267981   2.485   7.023   3.880  0.1285  0.1209 -1.9930
19351SOL     OW67982   8.788   6.121  12.954 -0.0981 -0.2453 -0.0253
19351SOL    HW167983   8.864   6.178  12.964 -0.1908 -0.0850 -0.2300
19351SOL    HW267984   8.788   6.066  13.033  0.3373 -0.3759 -0.1139
19352SOL     OW67985  12.149   9.648   7.983  0.6785 -0.4406  0.4858
19352SOL    HW167986  12.060   9.667   8.014  0.4888 -0.2434 -0.1720
19352SOL    HW267987  12.162   9.709   7.911  0.7850 -1.4951 -0.4037
19353SOL     OW67988   2.081  10.667   3.889 -0.5938  0.4612  0.1322
19353SOL    HW167989   2.167  10.674   3.931 -1.5213 -0.8097  2.4329
19353SOL    HW267990   2.028  10.735   3.931 -1.6072 -0.9839  1.3264
19354SOL     OW67991   2.502   0.474   8.290 -0.1499 -0.3213 -0.4195
19354SOL    HW167992   2.539   0.541   8.347  1.0676 -0.8263 -0.5944
19354SOL    HW267993   2.408   0.493   8.288  0.0099  0.6166  0.5219
19355SOL     OW67994   2.797  12.948   3.706  0.0455  0.3284 -0.1774
19355SOL    HW167995   2.839  12.871   3.746 -0.1471 -0.1612 -0.8986
19355SOL    HW267996   2.785  13.009   3.779 -0.5698 -0.6570  0.5833
19356SOL     OW67997  12.237   5.614   1.161  0.8411 -0.6381 -0.3950
19356SOL    HW167998  12.203   5.641   1.246  0.3313  2.0854 -1.3486
19356SOL    HW267999  12.323   5.576   1.179 -0.5791 -3.2268  1.5925
19357SOL     OW68000   6.477   1.078   4.763  0.0092  0.0134  0.1669
19357SOL    HW168001   6.500   1.110   4.675  0.9649 -0.8729  0.0808
19357SOL    HW268002   6.424   1.000   4.747  1.0349 -0.7492  0.3437
19358SOL     OW68003   7.073   8.386   4.451  0.0585 -0.1656  0.5818
19358SOL    HW168004   7.010   8.457   4.439 -0.5181 -0.8729 -0.8211
19358SOL    HW268005   7.062   8.357   4.541 -1.2100  0.1132  0.5264
19359SOL     OW68006   4.484   5.110  10.002 -0.0206  0.2419  0.2408
19359SOL    HW168007   4.547   5.173   9.966  0.1969 -0.5249 -0.7577
19359SOL    HW268008   4.404   5.127   9.954  0.9903 -2.6449 -2.8123
19360SOL     OW68009  11.529   8.431   5.783  0.1011  0.1225  0.1621
19360SOL    HW168010  11.602   8.461   5.838  0.0157  1.5765 -0.4810
19360SOL    HW268011  11.464   8.399   5.845  1.2587 -1.2313  0.7528
19361SOL     OW68012   9.888   6.435   1.856 -0.3565 -0.6406 -0.2542
19361SOL    HW168013   9.908   6.497   1.926  1.1455 -0.4328 -0.8249
19361SOL    HW268014   9.920   6.351   1.890  0.1740 -0.5777 -0.5769
19362SOL     OW68015   9.179   9.595  10.823 -0.9936  0.5716 -0.5140
19362SOL    HW168016   9.099   9.640  10.795 -2.0775 -1.1458 -0.3477
19362SOL    HW268017   9.198   9.534  10.752  0.4601  1.2575 -0.7490
19363SOL     OW68018   9.775  13.266  11.924 -0.2650  0.0525 -0.3421
19363SOL    HW168019   9.758  13.331  11.855  2.1172  0.7373 -0.3912
19363SOL    HW268020   9.690  13.227  11.942 -1.3354  1.3894 -2.1392
19364SOL     OW68021   6.390   4.045   1.864 -0.2358 -0.3931  0.0201
19364SOL    HW168022   6.437   4.089   1.935  1.9367 -0.1586 -1.4519
19364SOL    HW268023   6.365   4.116   1.805  1.1769 -0.8511 -1.1841
19365SOL     OW68024   9.451   1.116   3.895 -0.1344 -0.3486  0.0876
19365SOL    HW168025   9.518   1.175   3.863  0.3991 -0.8524  0.2605
19365SOL    HW268026   9.460   1.036   3.843 -2.2819  0.4575 -1.6697
19366SOL     OW68027   9.775  10.732   0.274 -0.3506 -0.6188 -0.4095
19366SOL    HW168028   9.763  10.663   0.209 -0.7013 -1.0243  0.0786
19366SOL    HW268029   9.865  10.720   0.304 -0.2652 -0.5812 -0.6506
19367SOL     OW68030   5.799   7.811  13.040  0.2700  0.0403 -0.3328
19367SOL    HW168031   5.886   7.771  13.042  0.0844 -0.4588 -1.4808
19367SOL    HW268032   5.816   7.905  13.048  0.7295 -0.1768  2.0133
19368SOL     OW68033   6.300  11.326   6.809 -0.3076 -0.3331 -0.2635
19368SOL    HW168034   6.244  11.327   6.731 -0.2324 -1.0557 -0.3333
19368SOL    HW268035   6.295  11.415   6.843 -3.0083 -0.7800  0.8039
19369SOL     OW68036  13.191   0.913   1.699  0.2822  0.4159  0.3301
19369SOL    HW168037  13.178   0.936   1.607 -2.1827 -0.6449  0.3348
19369SOL    HW268038  13.280   0.941   1.719  1.1057  0.1066 -2.5509
19370SOL     OW68039   1.287  11.796   6.708  0.0491  0.1708 -0.1253
19370SOL    HW168040   1.236  11.819   6.631  1.1742 -1.0041 -1.2814
19370SOL    HW268041   1.269  11.704   6.722  0.9642  0.0167  0.1192
19371SOL     OW68042   9.821   3.441   1.106 -0.1094  0.3131 -0.0912
19371SOL    HW168043   9.830   3.483   1.192  0.6568 -3.2553  1.7522
19371SOL    HW268044   9.754   3.374   1.118  1.0422 -1.2624 -1.8070
19372SOL     OW68045   4.023   0.774  11.841  0.0949 -0.3656 -0.2791
19372SOL    HW168046   4.095   0.748  11.783 -1.1030 -0.1040 -1.9477
19372SOL    HW268047   4.061   0.772  11.929  2.1766 -0.0628 -1.1269
19373SOL     OW68048  12.718  10.919   2.888  0.0729 -0.0202 -0.5431
19373SOL    HW168049  12.732  10.842   2.943 -2.9843  1.0933  2.1195
19373SOL    HW268050  12.636  10.902   2.843  0.1647  1.0508 -1.1544
19374SOL     OW68051   1.554   9.570   0.379  0.2476 -0.0689  0.4830
19374SOL    HW168052   1.628   9.558   0.319 -2.0447  1.3361 -2.9924
19374SOL    HW268053   1.544   9.486   0.423  2.1602 -1.1962 -1.0674
19375SOL     OW68054   5.649   6.061   4.766 -0.5797  0.3453  0.2655
19375SOL    HW168055   5.641   5.966   4.756 -0.5698  0.4217 -0.5254
19375SOL    HW268056   5.631   6.096   4.679  1.7072  0.9170 -0.0366
19376SOL     OW68057   5.787   2.237   4.891  1.0753  0.1338 -0.4037
19376SOL    HW168058   5.832   2.284   4.961  1.1766  1.4575 -1.3112
19376SOL    HW268059   5.731   2.174   4.936  1.4512  0.6546  0.8418
19377SOL     OW68060   4.983  10.848   3.945 -0.1703 -0.3957 -0.3956
19377SOL    HW168061   5.058  10.847   3.886 -0.1921 -0.3491 -0.4244
19377SOL    HW268062   5.003  10.918   4.007  0.1860 -0.9192  0.0875
19378SOL     OW68063   4.557   3.883   6.102 -0.5854  0.6509  0.2095
19378SOL    HW168064   4.640   3.845   6.070 -0.2831  1.6923 -0.2728
19378SOL    HW268065   4.556   3.863   6.195 -0.6086 -0.8556 -0.0869
19379SOL     OW68066  10.412   7.795   6.019 -0.1091 -0.5725  0.0269
19379SOL    HW168067  10.506   7.802   6.006  0.4880  0.0019  3.6488
19379SOL    HW268068  10.380   7.885   6.016 -0.2327 -0.5981  0.4691
19380SOL     OW68069   0.446   4.271   7.800  0.2155 -0.0834 -0.4374
19380SOL    HW168070   0.378   4.261   7.734  0.9765 -0.0184 -1.2517
19380SOL    HW268071   0.398   4.281   7.882 -0.7536  0.1315 -1.0085
19381SOL     OW68072   4.908  12.476   4.879  0.1403 -0.1524 -0.2853
19381SOL    HW168073   4.883  12.436   4.795 -1.2363 -0.7704  0.3903
19381SOL    HW268074   4.919  12.402   4.938 -0.9629  0.3784  0.6075
19382SOL     OW68075   3.451  10.923  13.255 -0.1273  0.1859  0.1473
19382SOL    HW168076   3.533  10.879  13.230 -0.4280 -0.2743 -0.0317
19382SOL    HW268077   3.474  11.016  13.254  0.0367  0.1608 -1.2851
19383SOL     OW68078   4.664  12.692   9.860 -0.4794  0.5003  0.2729
19383SOL    HW168079   4.695  12.664   9.774  0.2145  0.6458  0.4745
19383SOL    HW268080   4.717  12.768   9.882  1.2349 -1.0926  1.9855
19384SOL     OW68081   8.936   0.961   1.526  0.4253 -0.5236 -0.1010
19384SOL    HW168082   8.932   0.954   1.430  0.4258 -1.1622 -0.0637
19384SOL    HW268083   8.848   0.940   1.555  0.9458 -2.6029  0.1367
19385SOL     OW68084  11.440   1.311   1.005  0.1223  0.1939 -0.1011
19385SOL    HW168085  11.511   1.347   0.952 -0.0969  0.6671 -0.0808
19385SOL    HW268086  11.364   1.367   0.985 -0.3043 -0.4515 -0.3030
19386SOL     OW68087  10.821  11.431   2.544 -0.1198  0.0188  0.3076
19386SOL    HW168088  10.737  11.468   2.516  1.5227  1.9151 -2.5720
19386SOL    HW268089  10.875  11.507   2.564  1.0750 -1.1525  1.8064
19387SOL     OW68090   3.180  11.039   7.801 -0.0580 -0.1790 -0.1080
19387SOL    HW168091   3.250  11.053   7.737 -0.6464  1.1156 -0.5170
19387SOL    HW268092   3.144  10.954   7.778  0.0258  0.0667 -1.2607
19388SOL     OW68093   7.301  10.307   2.386 -0.8013  0.0438  0.0510
19388SOL    HW168094   7.319  10.235   2.326 -2.5770 -0.5263  0.1400
19388SOL    HW268095   7.291  10.384   2.329  0.6720  0.1721 -0.0780
19389SOL     OW68096  10.928  10.565  12.912  0.5106  0.8069 -0.3012
19389SOL    HW168097  10.951  10.566  12.819 -0.7555  1.2796 -0.6311
19389SOL    HW268098  10.930  10.472  12.936  0.1020  0.6113 -0.9991
19390SOL     OW68099   5.496   8.106  11.952 -0.2452  0.3185  0.9846
19390SOL    HW168100   5.507   8.066  11.866  0.4222 -2.7507  2.3704
19390SOL    HW268101   5.406   8.139  11.952 -0.6691 -0.7642 -0.4727
19391SOL     OW68102  11.703   1.393  13.146 -0.4592  0.0368 -0.1747
19391SOL    HW168103  11.785   1.442  13.147  0.5698 -1.4959  2.5370
19391SOL    HW268104  11.729   1.301  13.155 -2.4403 -0.4690  1.2013
19392SOL     OW68105   8.079   9.453   0.587  0.0920  0.0027  0.4076
19392SOL    HW168106   7.991   9.457   0.626 -0.1937  0.8489 -0.2848
19392SOL    HW268107   8.101   9.360   0.586  0.1500 -0.0616  2.6624
19393SOL     OW68108   7.991   5.188  10.938  0.4212  0.0996 -0.1544
19393SOL    HW168109   7.927   5.120  10.958 -0.8025  0.9360 -1.0454
19393SOL    HW268110   8.072   5.158  10.979 -0.6900 -0.6654  1.5743
19394SOL     OW68111  10.971   5.100   5.683 -0.3740  0.5366 -0.6462
19394SOL    HW168112  10.957   5.167   5.615 -0.4311 -0.7195 -1.9054
19394SOL    HW268113  10.962   5.017   5.637 -2.3504 -0.4091  1.2691
19395SOL     OW68114   4.146   0.600   9.355  0.0379  0.5188  0.8382
19395SOL    HW168115   4.132   0.682   9.308  2.3525  1.1837  1.1908
19395SOL    HW268116   4.162   0.535   9.286 -0.1338  0.6989  0.6259
19396SOL     OW68117   1.054   0.765   1.016  0.0374 -0.8253 -0.7597
19396SOL    HW168118   1.045   0.671   0.997  1.6096 -1.2323  0.3241
19396SOL    HW268119   1.148   0.778   1.024 -0.2689  0.2782  1.8162
19397SOL     OW68120  10.013   8.490   2.721  0.6571  0.0570  0.3011
19397SOL    HW168121  10.096   8.496   2.675  0.2910  0.2124 -0.3611
19397SOL    HW268122  10.028   8.534   2.805  1.7943 -1.6330  1.0333
19398SOL     OW68123  12.786  13.108   1.139  0.0434  0.4423  0.3484
19398SOL    HW168124  12.793  13.198   1.106 -0.3998 -0.5160 -2.6445
19398SOL    HW268125  12.873  13.070   1.124 -0.2443 -0.1085  0.0696
19399SOL     OW68126   7.196   4.313  11.655  0.8633  0.8075  0.1324
19399SOL    HW168127   7.279   4.266  11.645  0.7177  0.6233 -0.2256
19399SOL    HW268128   7.200   4.383  11.590  0.9982  1.1779  0.5336
19400SOL     OW68129   4.642   0.905   9.474 -0.4679  0.2636  0.2720
19400SOL    HW168130   4.551   0.899   9.502 -0.3469 -3.4189  0.4170
19400SOL    HW268131   4.686   0.834   9.521  2.5820  2.0972  0.4135
19401SOL     OW68132   7.999   6.404   2.678  0.3591 -0.1872 -0.2147
19401SOL    HW168133   7.933   6.464   2.713  0.5245 -0.0990 -0.0521
19401SOL    HW268134   8.017   6.343   2.750  0.2875 -0.3533 -0.3356
19402SOL     OW68135   5.052   8.141   6.938 -0.1921 -0.4363  0.4740
19402SOL    HW168136   5.082   8.123   7.027 -1.5222 -2.6500  0.5427
19402SOL    HW268137   5.124   8.190   6.898  0.3075  0.8870  2.8301
19403SOL     OW68138   9.853  11.545   8.332  0.5615  0.1109 -0.3074
19403SOL    HW168139   9.858  11.584   8.245 -1.1639  0.0082 -0.4991
19403SOL    HW268140   9.761  11.555   8.357  0.4790 -2.0140  0.4611
19404SOL     OW68141   6.600   7.552   5.242  0.1407 -0.7142 -0.3190
19404SOL    HW168142   6.542   7.616   5.283 -0.4126 -0.9641 -0.7120
19404SOL    HW268143   6.617   7.487   5.310 -0.5250 -0.9593 -0.3792
19405SOL     OW68144  11.286  11.704  10.164  0.4800 -0.3897 -0.2490
19405SOL    HW168145  11.284  11.644  10.239 -0.3075  0.5822  0.5412
19405SOL    HW268146  11.299  11.647  10.088  0.7053 -1.4604  0.5640
19406SOL     OW68147   8.053   9.118   4.342  0.3147  0.2636  0.0969
19406SOL    HW168148   8.028   9.117   4.434  0.8720  2.7909  0.3508
19406SOL    HW268149   7.974   9.146   4.296  0.2640 -0.1974 -0.0995
19407SOL     OW68150   2.802  13.262  12.944  0.7869  0.0460 -0.2375
19407SOL    HW168151   2.791  13.355  12.922 -2.3840 -0.1366  0.0738
19407SOL    HW268152   2.878  13.234  12.894  1.7624  2.7764 -0.4280
19408SOL     OW68153   4.457   6.559  12.434 -0.1303 -0.9022  0.4841
19408SOL    HW168154   4.397   6.582  12.505 -0.9854  1.2256 -0.8172
19408SOL    HW268155   4.543   6.587  12.465 -0.5742  0.4951  0.5336
19409SOL     OW68156  10.925   6.225   9.497  0.3154 -0.0103 -0.0795
19409SOL    HW168157  10.972   6.295   9.452 -0.8406  0.5327 -0.4759
19409SOL    HW268158  10.915   6.156   9.431 -0.2102  0.2393 -0.2655
19410SOL     OW68159   3.611   7.588   3.810 -0.3085 -0.1747  0.2822
19410SOL    HW168160   3.625   7.680   3.832  0.0971 -0.3041  0.5986
19410SOL    HW268161   3.619   7.542   3.894 -2.6714 -0.2852  0.4966
19411SOL     OW68162   3.172   5.735   1.465  0.3556 -0.5898  0.1124
19411SOL    HW168163   3.166   5.830   1.458 -1.0443 -0.7526 -1.6475
19411SOL    HW268164   3.195   5.719   1.556  0.1538  1.4044  0.5558
19412SOL     OW68165   3.938   0.625  10.394  0.3022 -0.1861 -0.2214
19412SOL    HW168166   3.976   0.663  10.473 -1.5157  1.6878 -0.1694
19412SOL    HW268167   3.870   0.565  10.425 -0.6145  0.7713 -0.3148
19413SOL     OW68168   7.431   4.159   3.483 -0.3404 -0.7411  0.4880
19413SOL    HW168169   7.458   4.235   3.533  0.6971 -1.7597  1.5462
19413SOL    HW268170   7.349   4.131   3.524 -0.2174 -0.7539  0.7292
19414SOL     OW68171   9.165   1.747  11.877 -0.1319 -0.1464 -0.0027
19414SOL    HW168172   9.117   1.739  11.795  0.4673 -1.5277 -0.2360
19414SOL    HW268173   9.140   1.670  11.928  1.4577 -0.6553  0.0568
19415SOL     OW68174   0.727   2.478   9.848 -0.0073 -0.3212 -0.0729
19415SOL    HW168175   0.662   2.503   9.783  0.8546  0.5324 -0.6365
19415SOL    HW268176   0.677   2.433   9.916 -0.9418 -1.0962 -1.2372
19416SOL     OW68177   4.341   4.228   5.263  0.2121  0.1624  0.1897
19416SOL    HW168178   4.357   4.298   5.199 -0.7671  0.5472  0.3422
19416SOL    HW268179   4.280   4.169   5.219 -0.3815  0.3736  0.7086
19417SOL     OW68180  10.158   9.541  11.745  0.1837  0.1793 -0.3056
19417SOL    HW168181  10.081   9.549  11.687 -0.3930  0.8677  0.5368
19417SOL    HW268182  10.124   9.494  11.822  0.7229  0.0948 -0.1202
19418SOL     OW68183  10.925   7.983   0.421  0.0317 -0.5148 -0.1212
19418SOL    HW168184  10.891   7.922   0.356 -1.6422 -1.7965  1.8454
19418SOL    HW268185  11.003   7.940   0.455  0.7171  0.0025 -0.9961
19419SOL     OW68186  12.366  12.388   8.179  0.1318  0.2982 -0.1351
19419SOL    HW168187  12.451  12.431   8.172  0.2315  0.1187 -0.0244
19419SOL    HW268188  12.362  12.329   8.104 -0.4726  1.3121 -0.9272
19420SOL     OW68189  11.358   3.790   5.502 -0.1035 -0.0151 -0.2347
19420SOL    HW168190  11.366   3.724   5.571 -2.2712  0.4800  0.5838
19420SOL    HW268191  11.352   3.738   5.421  0.4874 -0.6950  0.1407
19421SOL     OW68192   9.096   6.250   7.887 -0.8102  0.0929  1.1204
19421SOL    HW168193   9.063   6.172   7.841 -0.7921 -0.2555  1.6920
19421SOL    HW268194   9.185   6.262   7.852 -1.2337  0.5642  0.1640
19422SOL     OW68195   0.247   2.204   7.646  0.1215  0.4091  0.2000
19422SOL    HW168196   0.285   2.116   7.653 -0.2903  0.2518  0.4900
19422SOL    HW268197   0.323   2.261   7.635  0.4917  0.1601  1.3358
19423SOL     OW68198   9.910  11.656   0.495 -0.3989 -0.5634 -0.5225
19423SOL    HW168199   9.863  11.573   0.482  0.4058 -0.9628 -0.9627
19423SOL    HW268200   9.872  11.716   0.431 -0.0280 -1.0050 -1.1639
19424SOL     OW68201   5.717   7.682   3.913 -0.2835  0.3492 -0.1683
19424SOL    HW168202   5.756   7.678   3.825 -0.6511 -1.3518 -0.2795
19424SOL    HW268203   5.759   7.758   3.953  0.2463  0.8812 -1.6500
19425SOL     OW68204  12.098   2.344   1.182 -0.2193  0.0533 -0.8540
19425SOL    HW168205  12.166   2.311   1.123 -0.3470 -0.7978 -0.5446
19425SOL    HW268206  12.031   2.275   1.181 -0.0058 -0.2078  0.6511
19426SOL     OW68207   5.299  12.668   1.381 -0.2499 -0.3089 -0.0398
19426SOL    HW168208   5.211  12.704   1.392 -0.1281 -0.4861  1.6388
19426SOL    HW268209   5.348  12.698   1.457  1.2242 -0.0585 -1.0275
19427SOL     OW68210  11.035   5.893   7.065  0.4012 -0.3985  0.1499
19427SOL    HW168211  11.107   5.945   7.030 -0.0683  1.3221  1.5891
19427SOL    HW268212  10.958   5.948   7.053 -0.4081 -1.4806  0.2050
19428SOL     OW68213  11.843  11.648   4.775  0.0074  0.6189  0.2499
19428SOL    HW168214  11.846  11.601   4.858 -0.3149  0.6392  0.2771
19428SOL    HW268215  11.764  11.702   4.781 -1.1328 -0.8549 -0.8424
19429SOL     OW68216   1.396   1.446   1.590 -0.0591  0.1567  0.1209
19429SOL    HW168217   1.318   1.394   1.570 -0.8977  0.7178  1.7368
19429SOL    HW268218   1.370   1.536   1.572  0.0679  0.3825  1.0050
19430SOL     OW68219   0.123   9.150  10.032 -0.0832  0.4500  0.1579
19430SOL    HW168220   0.166   9.080  10.080  0.6420  0.6195 -0.2312
19430SOL    HW268221   0.140   9.131   9.940  0.2630  1.2259  0.0520
19431SOL     OW68222  10.414   0.681   2.495 -0.0937 -0.4195  0.0443
19431SOL    HW168223  10.329   0.681   2.539  0.3634 -0.6864  0.9394
19431SOL    HW268224  10.469   0.624   2.548  1.5539  2.1199  1.2703
19432SOL     OW68225  13.273   5.072  11.798 -0.0416 -0.2703  0.5199
19432SOL    HW168226  13.288   4.980  11.776  0.8217 -0.4819  1.8272
19432SOL    HW268227  13.179   5.085  11.787  0.1847 -0.5325 -2.3545
19433SOL     OW68228  10.568   1.281   8.907 -0.7414 -0.1905 -0.4448
19433SOL    HW168229  10.500   1.243   8.962 -1.2377 -0.2698 -1.0997
19433SOL    HW268230  10.534   1.366   8.880 -0.1987  0.1543 -0.0578
19434SOL     OW68231  11.684   7.766   7.541 -0.3833 -0.7483  0.6445
19434SOL    HW168232  11.596   7.783   7.507 -0.8392 -0.4528  1.9406
19434SOL    HW268233  11.726   7.716   7.471 -0.5117  1.7413 -1.3982
19435SOL     OW68234  11.239   6.203   6.680  0.4663  0.2633  0.1705
19435SOL    HW168235  11.235   6.135   6.746  0.1416 -2.4905 -2.4834
19435SOL    HW268236  11.308   6.175   6.620  1.3413  3.0572 -0.3049
19436SOL     OW68237  11.070  11.540   8.860  0.3287 -0.4726 -0.1343
19436SOL    HW168238  11.068  11.444   8.864  1.6567 -0.9110 -4.4737
19436SOL    HW268239  10.978  11.564   8.847  0.0417 -1.1909  0.4669
19437SOL     OW68240   5.297   8.718  11.085 -0.1227 -0.0125 -0.1329
19437SOL    HW168241   5.278   8.808  11.114  0.3203  0.2245 -0.5459
19437SOL    HW268242   5.211   8.678  11.074 -0.3249  0.3178  0.1926
19438SOL     OW68243   3.771   2.471  10.134  0.2947  0.5555 -0.1414
19438SOL    HW168244   3.800   2.475  10.225  2.3985 -0.9868 -0.6641
19438SOL    HW268245   3.740   2.381  10.123 -0.4049  0.8709 -0.8601
19439SOL     OW68246  10.968   3.583   7.660  0.2732  0.3402 -0.3227
19439SOL    HW168247  11.060   3.577   7.687  0.1583 -1.8159 -0.2655
19439SOL    HW268248  10.926   3.633   7.729  1.6061  2.6232 -1.0281
19440SOL     OW68249   2.540  11.341   4.357 -0.2584  0.7569  0.6225
19440SOL    HW168250   2.611  11.367   4.417  0.3184  1.0494 -0.1670
19440SOL    HW268251   2.572  11.366   4.271 -0.6787 -0.4901  0.0786
19441SOL     OW68252   3.733   7.893  13.277  0.1601 -0.0671 -0.3182
19441SOL    HW168253   3.709   7.956  13.345 -0.9479  0.4151 -1.1415
19441SOL    HW268254   3.804   7.842  13.317 -1.5517 -0.9330  1.8562
19442SOL     OW68255   1.349  10.778   3.020  0.3031  0.2928  0.0187
19442SOL    HW168256   1.436  10.806   3.048 -0.2261  0.7489  1.3015
19442SOL    HW268257   1.349  10.683   3.031 -0.0210  0.4929  2.0955
19443SOL     OW68258   5.542   1.468   8.186 -0.1706 -0.0369  0.8604
19443SOL    HW168259   5.627   1.495   8.219 -0.8268 -0.5077  3.1405
19443SOL    HW268260   5.479   1.516   8.240 -1.3323 -0.7925  0.2129
19444SOL     OW68261   9.165  11.555  13.032 -0.3693  0.1578 -0.0570
19444SOL    HW168262   9.104  11.623  13.060  0.7615  0.6644  1.3052
19444SOL    HW268263   9.113  11.497  12.975 -1.6024  1.5980 -0.4496
19445SOL     OW68264   1.750   9.048  12.952 -0.6469  0.6005  0.7370
19445SOL    HW168265   1.782   8.972  13.000 -1.4245  0.8088  1.6075
19445SOL    HW268266   1.655   9.037  12.949 -0.5727 -0.4207 -2.5066
19446SOL     OW68267  12.770   3.754   6.665 -0.3842  0.3665 -0.3345
19446SOL    HW168268  12.758   3.695   6.740 -1.1728 -0.0524 -0.7816
19446SOL    HW268269  12.687   3.800   6.656  0.3952  1.9914  0.3486
19447SOL     OW68270   3.962   0.262   6.213 -0.8912 -0.3006  0.2080
19447SOL    HW168271   3.867   0.265   6.218 -0.9729 -2.1521  0.3280
19447SOL    HW268272   3.990   0.242   6.302 -0.2131  2.3486  0.6764
19448SOL     OW68273   3.494   7.002  11.431  0.2508 -0.2188 -0.3757
19448SOL    HW168274   3.446   6.924  11.403  0.7562 -0.3729 -0.8278
19448SOL    HW268275   3.434   7.075  11.414 -0.6057 -0.5821  0.9475
19449SOL     OW68276   6.287  12.034  11.802  0.0545  0.0770 -0.1990
19449SOL    HW168277   6.243  12.119  11.802 -2.9103 -1.2944 -1.4513
19449SOL    HW268278   6.370  12.050  11.758 -1.0390  2.0892 -1.6976
19450SOL     OW68279   0.047   3.445   5.077 -0.6562  0.2054  0.5838
19450SOL    HW168280   0.132   3.429   5.118 -0.7521  0.0753  0.7352
19450SOL    HW268281   0.055   3.533   5.039 -0.4222  0.1551  0.5108
19451SOL     OW68282  11.906  10.852  10.658  0.6021  0.3838  0.3819
19451SOL    HW168283  11.908  10.948  10.662  0.7892  0.3462  2.1752
19451SOL    HW268284  11.817  10.829  10.685  0.8397  0.0385  0.8786
19452SOL     OW68285   8.219   2.468   1.012 -0.4491 -0.4516  0.1598
19452SOL    HW168286   8.237   2.431   0.926 -1.3228  1.7066 -1.0440
19452SOL    HW268287   8.165   2.402   1.056  1.6049 -2.4313 -0.1415
19453SOL     OW68288   5.885   7.321   1.487  0.1998 -0.1152  0.3678
19453SOL    HW168289   5.793   7.335   1.510  0.3893 -0.8174  1.6495
19453SOL    HW268290   5.934   7.361   1.559  0.8628 -1.0279  0.4378
19454SOL     OW68291   6.346   8.227   2.421 -0.4175 -0.4264  0.0323
19454SOL    HW168292   6.430   8.254   2.459  1.9827 -0.3081 -4.6150
19454SOL    HW268293   6.307   8.308   2.389 -2.0634 -0.5896  1.4495
19455SOL     OW68294   1.514   0.232  12.103 -0.3289  0.2039  0.0470
19455SOL    HW168295   1.496   0.290  12.029  2.7190 -0.6847 -1.5372
19455SOL    HW268296   1.563   0.287  12.164  0.1501  0.0327 -0.1822
19456SOL     OW68297   0.331   1.739  11.642  0.1341 -0.6781  0.0362
19456SOL    HW168298   0.340   1.669  11.706 -0.0388 -1.5028 -0.8155
19456SOL    HW268299   0.237   1.753  11.634  0.1633  1.6928  2.3042
19457SOL     OW68300   9.533  11.574   7.733 -0.2576  0.4907 -0.4895
19457SOL    HW168301   9.587  11.547   7.808 -2.1484  3.4334  2.1527
19457SOL    HW268302   9.445  11.547   7.757 -0.8400  1.0691 -1.9099
19458SOL     OW68303   0.027   2.686  12.492 -0.0239 -0.0002  0.0722
19458SOL    HW168304  -0.053   2.735  12.471 -0.5141 -0.8476 -0.0686
19458SOL    HW268305   0.015   2.601  12.449  1.5856  0.3620 -1.1829
19459SOL     OW68306   2.007   9.837  10.988  0.4616 -0.3021 -0.2622
19459SOL    HW168307   2.014   9.742  10.979  1.6119 -0.2516 -0.0418
19459SOL    HW268308   1.913   9.854  10.986  0.1860 -1.5434  0.6707
19460SOL     OW68309   7.930  11.116   9.761 -0.3937  0.5155 -0.2402
19460SOL    HW168310   7.835  11.119   9.748 -0.4322  0.1340 -0.0666
19460SOL    HW268311   7.964  11.186   9.705 -0.8963  1.7436  0.9344
19461SOL     OW68312   6.723   9.254   5.776 -0.0274  0.4788 -1.0492
19461SOL    HW168313   6.678   9.303   5.845 -0.8244 -0.8842 -0.5605
19461SOL    HW268314   6.669   9.176   5.762  3.3182 -2.6622  1.4184
19462SOL     OW68315   7.885   0.095   7.673  0.4211  0.7307 -0.1427
19462SOL    HW168316   7.977   0.121   7.666  0.6945 -0.1043  0.2231
19462SOL    HW268317   7.886   0.017   7.728 -0.4399  0.3070 -0.7017
19463SOL     OW68318   1.229  10.390   0.034  0.0669  0.3639 -0.2913
19463SOL    HW168319   1.318  10.365   0.061 -0.8919 -0.0105  2.9041
19463SOL    HW268320   1.196  10.314  -0.013 -0.0474 -1.4123  2.4535
19464SOL     OW68321   3.999   3.796  10.370  0.0357  0.0143 -0.3947
19464SOL    HW168322   4.000   3.727  10.436 -0.4723  0.4085  0.0269
19464SOL    HW268323   3.998   3.878  10.420 -0.6803  0.3112 -0.8791
19465SOL     OW68324  12.141   5.445  13.032 -0.0518 -0.0134 -0.4037
19465SOL    HW168325  12.151   5.532  12.992  0.9588  0.3185  0.5316
19465SOL    HW268326  12.119   5.463  13.123 -2.9500 -0.7685 -0.8616
19466SOL     OW68327   9.999   8.303   3.622 -0.3860  0.0878  0.1450
19466SOL    HW168328   9.937   8.351   3.568 -1.3111 -0.9199  0.2728
19466SOL    HW268329  10.008   8.357   3.701  0.8219  1.4654 -0.8754
19467SOL     OW68330  10.487   3.048   9.827  0.2969 -0.2855  0.1517
19467SOL    HW168331  10.575   3.085   9.817  0.3807 -0.9341 -2.1451
19467SOL    HW268332  10.502   2.956   9.851  0.2004 -0.1243  0.8547
19468SOL     OW68333  11.317  12.521   4.690 -0.0319 -0.0958  0.0425
19468SOL    HW168334  11.402  12.515   4.647  0.3899  0.8210  0.7263
19468SOL    HW268335  11.265  12.450   4.651  1.3946 -1.3917  0.4052
19469SOL     OW68336   1.153  11.414  12.091 -0.0176 -0.4540  0.3097
19469SOL    HW168337   1.183  11.366  12.168 -1.3213  0.0099  1.1399
19469SOL    HW268338   1.231  11.422  12.036  0.6192 -2.0129  0.9244
19470SOL     OW68339  11.262   1.988   2.400 -0.8543 -0.2215  0.0778
19470SOL    HW168340  11.183   1.970   2.349 -0.2857  0.0991 -0.9552
19470SOL    HW268341  11.275   2.082   2.391 -0.6887 -0.1780  0.7466
19471SOL     OW68342  10.353   3.071   5.905  0.0851  0.3749  0.2977
19471SOL    HW168343  10.361   2.978   5.882  1.7101  0.2286  1.3252
19471SOL    HW268344  10.274   3.100   5.860  0.4784 -1.0852 -1.4431
19472SOL     OW68345   1.059  11.064  12.131  0.3396  0.0709  0.1688
19472SOL    HW168346   1.031  11.054  12.222 -0.6363 -0.4634 -0.1815
19472SOL    HW268347   1.119  11.139  12.133  0.1959  0.1757  1.2161
19473SOL     OW68348  11.133  11.564   4.325 -0.0734 -0.1285  0.1709
19473SOL    HW168349  11.047  11.573   4.284 -1.8803  0.4556  3.6656
19473SOL    HW268350  11.170  11.652   4.324  0.0369 -0.1821 -0.4556
19474SOL     OW68351   1.699  13.115  10.743  0.7340  0.3238  0.2302
19474SOL    HW168352   1.786  13.079  10.763  0.0129 -0.9496  1.2469
19474SOL    HW268353   1.683  13.090  10.652  0.6771 -1.1221  0.6047
19475SOL     OW68354  12.084   4.023   8.241  0.6698 -0.1744 -0.2391
19475SOL    HW168355  11.995   4.054   8.251  0.7016  0.4139 -1.6103
19475SOL    HW268356  12.076   3.940   8.193  0.8784  0.0929 -0.7434
19476SOL     OW68357   5.005   6.366  10.671 -0.4997 -0.0593  0.1664
19476SOL    HW168358   5.011   6.396  10.762 -1.1751  0.3061  0.0951
19476SOL    HW268359   5.018   6.445  10.619  0.5415 -0.3722 -0.0771
19477SOL     OW68360   5.283   3.741  11.879  0.1102 -0.2822 -0.0634
19477SOL    HW168361   5.316   3.706  11.797 -0.0634 -3.4396  1.0630
19477SOL    HW268362   5.194   3.770  11.860  0.0375 -1.0812 -0.9839
19478SOL     OW68363  12.389  10.595   2.170  0.9388 -0.2680  0.1700
19478SOL    HW168364  12.360  10.551   2.250  1.7664 -0.1767  0.5269
19478SOL    HW268365  12.314  10.587   2.110  0.5484 -0.8954  0.7270
19479SOL     OW68366   1.490  10.370   8.021  0.0451 -0.1351  0.4259
19479SOL    HW168367   1.474  10.278   8.043 -0.5541  0.0898  0.9718
19479SOL    HW268368   1.585  10.377   8.015  0.3007 -0.2504  2.9879
19480SOL     OW68369   4.660   8.758  12.260  0.2410  0.0338  0.1352
19480SOL    HW168370   4.618   8.761  12.346 -1.2574  0.5471 -0.5799
19480SOL    HW268371   4.593   8.790  12.200  0.8279 -1.4825 -1.3986
19481SOL     OW68372  10.327  13.024  13.289  0.2468 -0.3398  0.3645
19481SOL    HW168373  10.370  12.999  13.371  0.1113 -0.5946  0.3590
19481SOL    HW268374  10.238  13.049  13.315  0.3958  0.1945  0.3761
19482SOL     OW68375   5.674   0.955   8.846  0.9174  0.9453  0.4188
19482SOL    HW168376   5.600   1.010   8.820  0.1900  0.2194  0.8593
19482SOL    HW268377   5.738   1.015   8.883  0.0546  1.4870  1.0754
19483SOL     OW68378  10.184   6.738   1.424 -0.5664  0.2781  0.1475
19483SOL    HW168379  10.226   6.682   1.359  1.7724  1.5816  0.4066
19483SOL    HW268380  10.156   6.816   1.375 -1.4611  0.0150  0.2241
19484SOL     OW68381  10.442  12.266  11.974 -0.0710 -0.1690 -0.1666
19484SOL    HW168382  10.387  12.217  12.035  1.2737 -1.2704  0.2337
19484SOL    HW268383  10.485  12.332  12.028  0.4233 -0.5462 -0.0921
19485SOL     OW68384   3.763   7.135   7.696  0.5407  0.2339  0.2787
19485SOL    HW168385   3.844   7.128   7.645 -0.1617  1.0890 -1.0182
19485SOL    HW268386   3.722   7.215   7.664 -0.7529 -0.1134  1.0201
19486SOL     OW68387   7.148   6.813   1.669 -0.3247  0.0007  0.4162
19486SOL    HW168388   7.103   6.783   1.590  1.8984  1.1533 -1.4156
19486SOL    HW268389   7.101   6.892   1.695 -1.5265 -0.7878  0.7384
19487SOL     OW68390   1.457   8.194   9.609  0.2876  0.1592  0.1651
19487SOL    HW168391   1.447   8.099   9.617 -2.4985  0.4829  2.3140
19487SOL    HW268392   1.388   8.220   9.549  0.0087  0.9308  0.8055
19488SOL     OW68393   4.819   3.143  10.297 -0.0528 -0.5825  0.3335
19488SOL    HW168394   4.823   3.224  10.348  0.1582 -0.1621 -0.3382
19488SOL    HW268395   4.817   3.172  10.205 -2.0670 -1.2563  0.1096
19489SOL     OW68396   9.428  13.197   3.321  0.4693  0.3331  0.1191
19489SOL    HW168397   9.440  13.292   3.312  1.2925  0.0847 -1.6633
19489SOL    HW268398   9.500  13.170   3.378  0.0734  0.7980  0.8586
19490SOL     OW68399  10.066   5.179   4.969 -0.1923  0.2601  0.4572
19490SOL    HW168400  10.018   5.230   5.034 -1.4494  1.1364 -1.1010
19490SOL    HW268401  10.127   5.241   4.929  1.4567 -0.5619  1.5807
19491SOL     OW68402   0.518   3.331   7.393 -0.5176  0.2210  0.3955
19491SOL    HW168403   0.425   3.321   7.412 -0.5943 -0.7488 -0.3899
19491SOL    HW268404   0.529   3.425   7.375 -1.2589  0.4063  0.8703
19492SOL     OW68405   0.947  11.577   3.298  0.2614  0.1701 -0.0776
19492SOL    HW168406   1.020  11.515   3.290 -0.6176 -1.2819  2.1168
19492SOL    HW268407   0.962  11.621   3.381 -1.3732 -0.2475  0.4828
19493SOL     OW68408   2.122  10.027  11.151 -0.2646 -0.0059  0.4399
19493SOL    HW168409   2.120   9.947  11.099  0.4948  1.1479 -1.5187
19493SOL    HW268410   2.058  10.014  11.220 -0.9849 -1.8324 -0.5196
19494SOL     OW68411   6.826   1.586   0.470 -0.1380 -0.1749 -0.2411
19494SOL    HW168412   6.809   1.660   0.412  0.7827  1.4545  1.4735
19494SOL    HW268413   6.921   1.575   0.469 -0.0272  0.3622  1.4806
19495SOL     OW68414   5.239  11.288   2.481 -0.0045 -0.3524  0.0688
19495SOL    HW168415   5.258  11.196   2.462  1.2444 -0.8234  3.0851
19495SOL    HW268416   5.170  11.285   2.547  0.1345  0.8804  0.2895
19496SOL     OW68417   5.146   1.593  11.468 -0.0592 -0.2348  0.5740
19496SOL    HW168418   5.066   1.541  11.481  0.5774 -1.8745 -1.4236
19496SOL    HW268419   5.114   1.680  11.444 -1.2335 -0.5459  0.9272
19497SOL     OW68420   6.928  10.660   6.422 -0.0753 -0.5659  0.2235
19497SOL    HW168421   6.866  10.627   6.488  0.4579  0.7541  1.4231
19497SOL    HW268422   6.911  10.754   6.418  0.7847 -0.4311 -0.5996
19498SOL     OW68423  10.812   9.147   0.992 -0.4498 -0.0085  0.4586
19498SOL    HW168424  10.874   9.220   0.998 -1.5812  0.9819  0.6065
19498SOL    HW268425  10.857   9.081   0.940 -0.0600  1.5278 -1.2660
19499SOL     OW68426   5.303   0.596   6.054 -0.4726  0.0511  0.1409
19499SOL    HW168427   5.254   0.676   6.034 -1.5518 -0.4705  0.6714
19499SOL    HW268428   5.286   0.580   6.146 -0.7195 -1.1076 -0.0982
19500SOL     OW68429   7.791  10.860   3.512 -0.2581  0.0761  0.7378
19500SOL    HW168430   7.777  10.902   3.597  1.0080  0.3633  0.8324
19500SOL    HW268431   7.880  10.886   3.487  0.0040 -1.3333  0.0949
19501SOL     OW68432   2.918   6.735   8.461 -0.0583 -0.0832 -0.8400
19501SOL    HW168433   3.005   6.726   8.501  0.6976  0.4687 -2.2983
19501SOL    HW268434   2.875   6.803   8.513  0.3708 -0.3496 -0.1146
19502SOL     OW68435  10.628   8.337   4.845 -0.2801 -0.3279 -0.4892
19502SOL    HW168436  10.723   8.342   4.855 -0.4244  0.2166  0.6982
19502SOL    HW268437  10.601   8.426   4.822 -0.2264 -1.0392 -3.7678
19503SOL     OW68438   1.722   0.194   5.118 -0.3879  0.2590  0.7540
19503SOL    HW168439   1.663   0.121   5.099 -1.1089  0.4172  2.2105
19503SOL    HW268440   1.724   0.199   5.214 -0.4207  2.1761  0.6939
19504SOL     OW68441   9.524   8.171  12.958  0.2298  0.2489 -0.2150
19504SOL    HW168442   9.541   8.135  13.045  0.7175 -0.2072 -0.4998
19504SOL    HW268443   9.609   8.204  12.928  0.1415  0.0623 -0.6776
19505SOL     OW68444  12.553   4.316  11.846  0.1439  0.1479  0.0274
19505SOL    HW168445  12.513   4.257  11.910 -0.3912  1.5568  1.0625
19505SOL    HW268446  12.521   4.285  11.761 -0.3471 -0.8628  0.5562
19506SOL     OW68447   3.894   7.804   3.451 -0.6821 -0.4854 -0.3190
19506SOL    HW168448   3.973   7.797   3.505  0.2154 -0.8609 -1.6348
19506SOL    HW268449   3.926   7.808   3.361 -1.9972  2.4319 -0.7817
19507SOL     OW68450   6.383   3.218  11.469  0.4752 -0.2937  0.0936
19507SOL    HW168451   6.381   3.304  11.510 -0.3237 -0.6110  0.7452
19507SOL    HW268452   6.302   3.175  11.498  0.6709 -1.1144 -0.5356
19508SOL     OW68453  12.844   8.758  10.174  0.2550 -0.4991 -0.0084
19508SOL    HW168454  12.934   8.759  10.205  0.5463  0.3834 -0.8546
19508SOL    HW268455  12.849   8.786  10.083 -0.8989 -0.1909  0.0068
19509SOL     OW68456   5.393   7.542  13.111 -0.5368  0.2604  0.1439
19509SOL    HW168457   5.393   7.613  13.175  1.3013 -0.8104  1.4305
19509SOL    HW268458   5.304   7.506  13.114 -0.3527 -0.1515  2.6237
19510SOL     OW68459  12.914  10.876  11.510 -0.2828  0.2447 -0.2700
19510SOL    HW168460  12.984  10.936  11.485 -0.2478  0.1343 -0.4344
19510SOL    HW268461  12.959  10.796  11.539 -0.3512  0.0661 -0.6581
19511SOL     OW68462   1.688   4.149   2.158 -0.0214  0.4807  0.6601
19511SOL    HW168463   1.740   4.111   2.229  3.3009  2.5904 -0.3950
19511SOL    HW268464   1.696   4.087   2.086 -0.2949  0.0803  0.9688
19512SOL     OW68465   9.227   9.556   0.738  0.5261 -0.0390  0.4387
19512SOL    HW168466   9.189   9.625   0.792 -0.2347  0.3337 -0.5309
19512SOL    HW268467   9.187   9.569   0.652  1.4563 -0.8112 -0.1258
19513SOL     OW68468   5.824   3.935  10.900 -0.0051  0.3184 -0.1614
19513SOL    HW168469   5.844   3.889  10.982 -2.3882 -2.3280 -0.9089
19513SOL    HW268470   5.736   3.969  10.912 -0.3869 -0.1017 -1.6298
19514SOL     OW68471   5.345   9.905   8.986  0.2364 -0.0316 -0.6679
19514SOL    HW168472   5.379   9.831   9.038 -2.0143  0.2776  1.4570
19514SOL    HW268473   5.363   9.982   9.040 -1.8517  0.3529 -0.4509
19515SOL     OW68474   4.109   4.484   7.249 -0.0785  0.4891 -0.3381
19515SOL    HW168475   4.193   4.505   7.207  0.4245 -0.4246  0.1849
19515SOL    HW268476   4.133   4.447   7.334 -0.9623 -0.9236 -0.6701
19516SOL     OW68477  10.463  10.430   8.833  0.0901  0.1466  0.3505
19516SOL    HW168478  10.541  10.453   8.783  0.8737 -1.1249  0.9294
19516SOL    HW268479  10.472  10.481   8.914  0.9707 -0.8974  0.9339
19517SOL     OW68480   6.281   1.933   7.017  0.2403 -0.0783 -0.3429
19517SOL    HW168481   6.233   1.909   7.096 -1.4337  0.8802 -1.0174
19517SOL    HW268482   6.215   1.931   6.947  1.0382  1.7837 -1.2224
19518SOL     OW68483   8.446   6.280  11.431  0.2016 -0.1763 -0.0778
19518SOL    HW168484   8.515   6.347  11.424 -0.3929  0.6285  1.3225
19518SOL    HW268485   8.466   6.233  11.512 -0.9783  0.1858  0.4457
19519SOL     OW68486  11.054   9.707   8.558  0.2329 -0.1319 -0.4183
19519SOL    HW168487  11.037   9.633   8.615 -2.9353  1.6056  1.1579
19519SOL    HW268488  11.140   9.740   8.586 -0.1546 -0.7925  1.6955
19520SOL     OW68489   3.062   8.331   1.769 -0.3608  0.3648  1.0805
19520SOL    HW168490   2.987   8.351   1.714  0.9140 -3.0250 -2.3231
19520SOL    HW268491   3.046   8.243   1.803  1.0194  0.5304  2.2960
19521SOL     OW68492   8.921   2.682  10.525  0.5405 -0.0501  0.6368
19521SOL    HW168493   8.886   2.730  10.449  0.2112  0.7090  1.2441
19521SOL    HW268494   8.862   2.607  10.534  1.9117 -1.4417 -1.2029
19522SOL     OW68495   1.734   9.416  12.026  0.3328  0.3907  0.5919
19522SOL    HW168496   1.661   9.385  11.973 -0.6996  0.4911  1.9137
19522SOL    HW268497   1.726   9.511  12.024  1.4942  0.5074 -0.6684
19523SOL     OW68498  12.979   5.010   3.993 -0.1533 -0.2933 -0.5474
19523SOL    HW168499  12.900   4.979   4.037  1.0797  0.2264  2.2027
19523SOL    HW268500  12.957   5.099   3.966 -0.5128 -0.1399  0.2258
19524SOL     OW68501   1.949   6.227   7.380 -0.7483  0.0373 -0.4253
19524SOL    HW168502   2.043   6.211   7.391 -0.5416  0.6901 -1.1028
19524SOL    HW268503   1.912   6.215   7.467  0.1024  0.6188  0.0381
19525SOL     OW68504   9.289  11.323   8.743  0.2415 -0.0116  0.0914
19525SOL    HW168505   9.279  11.348   8.835 -3.2329 -0.5509 -0.0070
19525SOL    HW268506   9.278  11.228   8.743 -1.3673  0.1315 -0.9627
19526SOL     OW68507   8.494   6.465  10.527 -0.5616  0.5297 -0.1788
19526SOL    HW168508   8.407   6.503  10.514 -0.7613  0.0084 -0.3834
19526SOL    HW268509   8.553   6.524  10.478 -0.8393  0.6963 -0.3180
19527SOL     OW68510  13.164   6.762  10.496 -0.2600 -0.3122 -0.3668
19527SOL    HW168511  13.198   6.708  10.567 -2.0315  0.5784  1.2668
19527SOL    HW268512  13.108   6.826  10.539 -2.1146 -0.2493 -2.6539
19528SOL     OW68513  10.751   6.214  11.156  0.6949  0.0362  0.1980
19528SOL    HW168514  10.706   6.132  11.177  1.3451 -0.2158  0.6530
19528SOL    HW268515  10.686   6.266  11.108  0.3173 -0.7985 -0.2178
19529SOL     OW68516   0.282  12.913  12.407  0.3024  0.1219 -0.1784
19529SOL    HW168517   0.260  12.987  12.464  2.1310  1.3712 -0.9900
19529SOL    HW268518   0.360  12.875  12.447  0.5699 -0.0918 -0.9043
19530SOL     OW68519  11.913   5.954  10.612  0.0847  0.1563 -0.1098
19530SOL    HW168520  11.958   6.034  10.639  0.9171 -0.2809 -0.1689
19530SOL    HW268521  11.895   5.966  10.519  0.4000  0.1882 -0.1672
19531SOL     OW68522  11.923   1.636   4.402 -0.3838 -0.4461 -0.1449
19531SOL    HW168523  11.959   1.667   4.318 -0.2277 -0.7249 -0.1782
19531SOL    HW268524  11.917   1.715   4.455  0.2166 -0.3907 -0.1588
19532SOL     OW68525   4.779   1.718   8.634  0.3213  0.6037 -0.3501
19532SOL    HW168526   4.702   1.670   8.602  1.3066  0.3033 -2.4089
19532SOL    HW268527   4.742   1.791   8.685 -1.2301 -1.4034  1.5717
19533SOL     OW68528   0.879   8.670   4.892  0.0350 -0.2902 -0.4350
19533SOL    HW168529   0.783   8.672   4.891 -0.0036  2.0902  0.9080
19533SOL    HW268530   0.905   8.737   4.829  0.8069 -0.3878 -0.2304
19534SOL     OW68531  10.751   5.744  11.431 -0.3397 -0.1766 -0.3334
19534SOL    HW168532  10.791   5.679  11.488 -1.0664 -1.2861 -1.0681
19534SOL    HW268533  10.802   5.740  11.350 -0.2389  0.3529 -0.3051
19535SOL     OW68534   6.115   2.552  12.043 -0.3897  1.0741  0.2338
19535SOL    HW168535   6.083   2.464  12.021 -1.3328  1.1708  1.1285
19535SOL    HW268536   6.207   2.550  12.018 -1.0567  0.8342 -2.6173
19536SOL     OW68537   7.517   6.606   7.317  0.2817  0.2954  0.5590
19536SOL    HW168538   7.603   6.575   7.345 -0.0803  0.3885  1.8451
19536SOL    HW268539   7.500   6.683   7.371 -1.2013 -0.5300  1.3255
19537SOL     OW68540  12.567   2.236   4.957  0.7310 -0.1089  0.6304
19537SOL    HW168541  12.610   2.317   4.931  1.0227 -0.2401  0.6939
19537SOL    HW268542  12.497   2.224   4.893  1.3954 -0.3879 -0.0643
19538SOL     OW68543   0.422   7.666  10.721 -0.3516  0.0830 -0.6741
19538SOL    HW168544   0.343   7.706  10.683 -0.5619 -1.1841 -1.6283
19538SOL    HW268545   0.451   7.603  10.656  0.0035 -1.2862  0.7543
19539SOL     OW68546   3.091  11.971   1.843 -0.1726 -0.0803 -0.3350
19539SOL    HW168547   3.028  11.899   1.848  0.7926 -0.9865 -0.7314
19539SOL    HW268548   3.042  12.043   1.805 -0.6766 -1.1304 -1.7812
19540SOL     OW68549  13.097   3.173   2.207 -0.0535 -0.1408 -0.0402
19540SOL    HW168550  13.090   3.256   2.253 -2.5430  0.3035 -1.0857
19540SOL    HW268551  13.170   3.128   2.251  1.1892  2.4086  0.7480
19541SOL     OW68552   0.990   4.950  11.551  0.0624 -0.6822  0.1637
19541SOL    HW168553   1.047   5.016  11.589  0.3519 -1.1869  0.6124
19541SOL    HW268554   1.047   4.897  11.497 -0.6213  1.1409 -2.5797
19542SOL     OW68555   9.260   1.051  13.139  0.3680  0.4030  0.3052
19542SOL    HW168556   9.348   1.023  13.112  0.4277  1.0950 -0.2427
19542SOL    HW268557   9.236   0.989  13.208  0.7677 -0.5902 -0.4074
19543SOL     OW68558   5.003   1.659   3.007 -0.3961  0.2820 -0.3663
19543SOL    HW168559   5.004   1.752   3.030  0.9539  0.4175 -0.9276
19543SOL    HW268560   4.971   1.615   3.086 -0.3924  1.1650  0.1306
19544SOL     OW68561   7.954   7.076  11.918  0.0733  0.1066  0.1409
19544SOL    HW168562   8.024   7.043  11.862 -0.0851  0.3925 -0.2253
19544SOL    HW268563   7.973   7.038  12.004  0.6015  0.0699  0.0152
19545SOL     OW68564   0.842   0.054   3.547  0.0807 -0.8677  0.4594
19545SOL    HW168565   0.829  -0.006   3.474 -0.5664 -1.2553  0.8898
19545SOL    HW268566   0.905   0.119   3.514  2.0490 -2.6592  0.5023
19546SOL     OW68567  11.244   2.081   6.443 -0.4647 -0.2799 -0.2383
19546SOL    HW168568  11.214   2.003   6.490  1.6266  0.2171  2.1874
19546SOL    HW268569  11.331   2.057   6.410 -0.3051  0.6174 -0.5059
19547SOL     OW68570  11.368   7.212   9.057  0.1009 -0.1537 -0.0548
19547SOL    HW168571  11.411   7.128   9.042  0.4113 -0.1791  0.9350
19547SOL    HW268572  11.438   7.269   9.088 -0.3277  0.1661  0.3209
19548SOL     OW68573  10.407   5.457  13.293 -1.1421 -0.0287  0.1547
19548SOL    HW168574  10.409   5.552  13.281 -0.6691 -0.1032 -0.4161
19548SOL    HW268575  10.471   5.440  13.362 -0.3621 -0.0370 -0.5589
19549SOL     OW68576   9.128  11.513  10.701 -0.3527  0.2323 -0.4513
19549SOL    HW168577   9.215  11.521  10.662 -0.0991  3.3211  0.4948
19549SOL    HW268578   9.078  11.462  10.637  1.5726  0.1678 -2.0089
19550SOL     OW68579   5.690  12.679  11.813  0.4579  0.0636 -0.1474
19550SOL    HW168580   5.702  12.761  11.862  1.1916  0.2647 -0.6495
19550SOL    HW268581   5.742  12.615  11.862 -0.4225 -0.2068  0.4644
19551SOL     OW68582  11.838   7.146  13.060 -0.3030  0.0220  0.5454
19551SOL    HW168583  11.844   7.051  13.048 -1.3859 -0.0903  0.8073
19551SOL    HW268584  11.884   7.182  12.984  0.1447 -0.7087  0.4583
19552SOL     OW68585   8.026   8.929  10.005  0.0831 -0.2023  0.5010
19552SOL    HW168586   7.983   8.904  10.087 -0.3923  0.5159  0.4752
19552SOL    HW268587   7.984   8.874   9.939  0.6295 -0.9515  0.7562
19553SOL     OW68588  10.159   7.493   3.898  0.0073 -0.3189 -0.1799
19553SOL    HW168589  10.121   7.463   3.816  0.2502  0.5738 -0.6304
19553SOL    HW268590  10.182   7.412   3.945  0.4334 -0.8324 -1.2533
19554SOL     OW68591   4.302   0.077  11.900  0.3420 -0.3812  0.5959
19554SOL    HW168592   4.222   0.124  11.876 -0.4614 -2.3239 -0.8071
19554SOL    HW268593   4.344   0.058  11.816  1.0416 -1.4595  1.1796
19555SOL     OW68594   1.670  12.604   7.490 -0.4548  0.3908 -0.1451
19555SOL    HW168595   1.607  12.583   7.559  0.2421 -0.8818  0.1295
19555SOL    HW268596   1.746  12.549   7.509  0.4782  1.3962 -0.8668
19556SOL     OW68597   8.654  10.748  11.417 -0.4275 -0.1312 -0.2408
19556SOL    HW168598   8.561  10.751  11.441  0.0024 -0.8117  1.6273
19556SOL    HW268599   8.676  10.655  11.419  0.5586  0.1009  0.4015
19557SOL     OW68600   5.611   3.148   8.496 -0.7913  0.1029  0.3215
19557SOL    HW168601   5.592   3.239   8.518 -0.0277  0.7777 -1.5854
19557SOL    HW268602   5.552   3.128   8.423  0.3987 -0.2757 -0.5671
19558SOL     OW68603   9.935   7.292   7.441  0.2072 -0.0351  0.3888
19558SOL    HW168604   9.969   7.220   7.388  0.1334  0.4635 -0.3434
19558SOL    HW268605   9.900   7.250   7.519  1.8690 -0.6404  0.8625
19559SOL     OW68606   1.670   5.176   9.766  0.2958  0.3166 -0.8542
19559SOL    HW168607   1.689   5.197   9.858  0.2818  0.6863 -0.9353
19559SOL    HW268608   1.580   5.144   9.767  1.2962 -2.7978 -0.2479
19560SOL     OW68609  11.346  12.586   9.570  0.4311  0.3786 -0.0797
19560SOL    HW168610  11.347  12.565   9.477  0.7481 -1.2213  0.2557
19560SOL    HW268611  11.303  12.511   9.611  1.4156  0.4866  1.1953
19561SOL     OW68612   7.525   3.388   3.075 -0.4230 -0.1177 -0.3728
19561SOL    HW168613   7.620   3.380   3.079 -0.4948 -1.1765 -0.3733
19561SOL    HW268614   7.508   3.482   3.071  0.6466  0.0673 -0.9155
19562SOL     OW68615   6.311  10.089  12.628  0.0514  0.2077  0.1011
19562SOL    HW168616   6.324  10.173  12.672  3.2196  0.7926 -1.6259
19562SOL    HW268617   6.379  10.033  12.665  1.7926  0.2628 -2.7764
19563SOL     OW68618  12.565   5.172   6.502  0.6453 -0.3250 -0.1936
19563SOL    HW168619  12.486   5.140   6.457  0.4247 -0.4649  0.2858
19563SOL    HW268620  12.628   5.100   6.493  0.4385 -0.5512  0.1319
19564SOL     OW68621   7.747  10.700  10.277  0.6438  0.1972  0.5583
19564SOL    HW168622   7.769  10.761  10.349  1.2743  0.1744  0.3952
19564SOL    HW268623   7.826  10.647  10.267  1.1557  1.2016 -1.1595
19565SOL     OW68624   4.684  12.250   9.734  0.4167 -0.3026 -0.1636
19565SOL    HW168625   4.678  12.242   9.829 -0.3196  2.0471  0.0601
19565SOL    HW268626   4.775  12.275   9.717 -0.0377  1.7892  0.2262
19566SOL     OW68627   4.861   3.222  10.056 -0.0509 -0.4893  0.1423
19566SOL    HW168628   4.863   3.304  10.006  0.0406  0.2849  1.3848
19566SOL    HW268629   4.831   3.156   9.992 -2.4416  0.9121 -0.3165
19567SOL     OW68630   3.148   1.283  10.719  0.1045 -0.1911 -0.5462
19567SOL    HW168631   3.071   1.311  10.769  0.3716 -0.4510  0.0126
19567SOL    HW268632   3.219   1.341  10.748 -0.0025  0.4464 -1.4979
19568SOL     OW68633  12.034   7.132  10.595  0.4312  0.5016 -0.2090
19568SOL    HW168634  12.041   7.221  10.629  0.0794  0.2850  0.4401
19568SOL    HW268635  12.082   7.135  10.512 -1.1984  1.8108 -1.1920
19569SOL     OW68636   0.310   7.448  12.495  0.2075 -0.3976  0.1312
19569SOL    HW168637   0.361   7.528  12.486  0.0463 -0.5110 -3.4978
19569SOL    HW268638   0.219   7.477  12.505  0.2146 -0.0875 -0.6303
19570SOL     OW68639  12.264  11.904   2.690 -0.4713 -0.1715  0.1281
19570SOL    HW168640  12.261  11.988   2.644 -1.3309  0.1471  0.7471
19570SOL    HW268641  12.337  11.913   2.752 -0.0183 -0.1975 -0.3992
19571SOL     OW68642   5.768   1.597   8.227 -0.0102  0.7087  0.0952
19571SOL    HW168643   5.723   1.677   8.199 -1.5213 -0.4210 -0.8826
19571SOL    HW268644   5.852   1.599   8.180 -0.7374  0.9288 -1.2559
19572SOL     OW68645   6.211   9.278  11.006 -0.0187  0.5705  0.0163
19572SOL    HW168646   6.155   9.352  11.027 -1.0070 -0.7876  2.5778
19572SOL    HW268647   6.152   9.202  11.008  1.6296 -0.7636  1.5959
19573SOL     OW68648   4.745   5.290   6.732 -0.3096  0.0110  0.5331
19573SOL    HW168649   4.833   5.252   6.731 -1.2625 -2.3782  0.9720
19573SOL    HW268650   4.720   5.293   6.639 -0.8584 -2.1859  0.5561
19574SOL     OW68651   7.696   1.418  11.104  0.4101 -0.2688 -0.0246
19574SOL    HW168652   7.772   1.406  11.046  0.7404 -1.1694  0.5777
19574SOL    HW268653   7.705   1.350  11.170 -0.3470  0.3066  0.6902
19575SOL     OW68654   0.474   9.415  11.126  0.3983  0.1319 -0.8948
19575SOL    HW168655   0.550   9.368  11.092 -0.1211  0.1170 -2.1079
19575SOL    HW268656   0.485   9.414  11.221  1.8985  0.1206 -1.0496
19576SOL     OW68657   4.125   4.385   8.904 -0.0071 -0.6355 -0.0651
19576SOL    HW168658   4.215   4.380   8.935 -0.0603 -0.0075  0.2102
19576SOL    HW268659   4.132   4.390   8.809  0.3683  1.3917  0.0115
19577SOL     OW68660   8.626  12.969   0.000 -0.1297 -0.1813 -0.8121
19577SOL    HW168661   8.579  12.944  -0.080 -0.9295  0.6738 -0.6342
19577SOL    HW268662   8.692  13.032  -0.029  1.2847 -1.7306 -1.1308
19578SOL     OW68663   4.140   9.267  10.355  0.3877 -0.4313  0.3673
19578SOL    HW168664   4.164   9.352  10.319 -0.0634  0.1991  1.5162
19578SOL    HW268665   4.217   9.239  10.405  0.9460 -1.2238 -0.8721
19579SOL     OW68666   4.220  11.202  12.258 -0.3192 -0.1828 -0.2075
19579SOL    HW168667   4.268  11.215  12.176 -0.5384 -1.3836 -0.5514
19579SOL    HW268668   4.258  11.122  12.295  1.8279  1.8383  2.3764
19580SOL     OW68669   0.875  10.186  11.860 -0.3634  0.6991 -0.8577
19580SOL    HW168670   0.780  10.195  11.854 -0.7073 -1.7480 -0.3913
19580SOL    HW268671   0.895  10.115  11.799  0.6522 -1.1486  1.4845
19581SOL     OW68672   4.582   7.582   4.016 -0.1820  0.3512 -0.1950
19581SOL    HW168673   4.489   7.561   4.025 -0.3123  0.4490 -1.2158
19581SOL    HW268674   4.587   7.641   3.942  0.6807  0.5179 -0.0207
19582SOL     OW68675   9.980   5.623   7.851  0.8465  0.2297  0.1252
19582SOL    HW168676   9.914   5.689   7.832  2.6342  2.0231 -0.2646
19582SOL    HW268677   9.975   5.562   7.777  1.9352  2.3389 -1.8395
19583SOL     OW68678   8.187   9.344   6.477  0.0337 -0.1834 -0.2126
19583SOL    HW168679   8.229   9.332   6.391 -1.6744  0.9239 -1.2509
19583SOL    HW268680   8.161   9.256   6.503  1.8493 -0.7305 -0.1211
19584SOL     OW68681   1.560   7.749   1.779  0.0238  0.2509  0.2320
19584SOL    HW168682   1.572   7.714   1.867  1.1523 -0.7647 -0.3019
19584SOL    HW268683   1.558   7.671   1.723 -2.7451  0.7140 -0.4657
19585SOL     OW68684   4.421   9.983   8.429 -0.2720  0.4063  0.4399
19585SOL    HW168685   4.335   9.986   8.388 -0.5486  2.2269  1.0736
19585SOL    HW268686   4.455   9.896   8.409 -2.5548 -0.6201  0.7989
19586SOL     OW68687   0.568   2.437   4.423  0.5558 -0.5398  0.3421
19586SOL    HW168688   0.598   2.434   4.333  0.4688  0.3290  0.2717
19586SOL    HW268689   0.492   2.379   4.426 -0.2821  0.4868 -0.4757
19587SOL     OW68690  13.094   7.317   5.519 -0.0136 -0.0132 -0.2632
19587SOL    HW168691  13.065   7.288   5.606 -2.9976  0.3417 -1.0369
19587SOL    HW268692  13.129   7.405   5.535 -1.8941  0.6600  0.4330
19588SOL     OW68693   0.155   7.214   0.686 -0.1715  0.4247  0.1471
19588SOL    HW168694   0.060   7.216   0.678 -0.1084 -0.0823 -0.9338
19588SOL    HW268695   0.172   7.157   0.761 -0.7050 -0.5311 -0.4398
19589SOL     OW68696   7.290   5.611   4.169 -0.3992 -0.2890 -0.0985
19589SOL    HW168697   7.257   5.521   4.169 -2.6435  0.3236  3.6353
19589SOL    HW268698   7.223   5.661   4.123  0.1971 -0.3238 -1.0189
19590SOL     OW68699   3.074   7.973   7.429  0.5615  0.4848  0.0962
19590SOL    HW168700   3.072   7.919   7.508  0.2412  0.1520 -0.1297
19590SOL    HW268701   3.021   7.923   7.366  1.5301  0.3180 -0.5993
19591SOL     OW68702   8.418   9.771  13.024 -0.1466  0.0889  0.2796
19591SOL    HW168703   8.495   9.749  12.972  0.2136 -1.8828  1.5195
19591SOL    HW268704   8.417   9.866  13.027  2.5700  0.1976  0.6190
19592SOL     OW68705   2.769   7.245  12.314 -0.3433 -0.3881  0.5486
19592SOL    HW168706   2.817   7.298  12.377 -0.2620 -2.4746  2.3783
19592SOL    HW268707   2.772   7.295  12.233  0.9949  1.6447  1.7629
19593SOL     OW68708   1.437   2.509  12.325 -0.4457  0.3212 -0.2452
19593SOL    HW168709   1.409   2.574  12.261 -0.1911  0.9881  0.3132
19593SOL    HW268710   1.377   2.435  12.312  0.2679 -0.0091 -1.9854
19594SOL     OW68711   8.139   0.343   2.912  0.5251  0.4640 -0.2097
19594SOL    HW168712   8.063   0.288   2.930  0.0472  1.4464  0.9135
19594SOL    HW268713   8.174   0.365   2.998  1.9452  0.2487 -0.6991
19595SOL     OW68714   8.205   2.093   2.429 -0.1323  0.9909 -0.2506
19595SOL    HW168715   8.139   2.076   2.361  0.1157 -0.5964 -0.1266
19595SOL    HW268716   8.171   2.048   2.506  0.3451  1.5038  0.2698
19596SOL     OW68717   1.271   9.532  11.258  0.0807  0.1129 -0.1410
19596SOL    HW168718   1.299   9.510  11.169 -1.6612  0.2132 -0.7565
19596SOL    HW268719   1.254   9.448  11.300  1.9621  0.0166  0.4975
19597SOL     OW68720  10.818   2.054  12.597  0.0003 -0.5733 -0.0188
19597SOL    HW168721  10.832   2.148  12.586 -1.0137 -0.5082 -0.8677
19597SOL    HW268722  10.733   2.047  12.640 -0.1212 -1.1072 -0.3338
19598SOL     OW68723   1.674   0.014   4.235  0.5404 -0.3080 -0.3115
19598SOL    HW168724   1.641   0.069   4.165  0.9480 -0.2614 -0.4725
19598SOL    HW268725   1.769   0.014   4.223  0.5169 -1.4792 -0.6481
19599SOL     OW68726  11.353   8.605   2.307 -0.0081 -0.0219 -0.3152
19599SOL    HW168727  11.419   8.669   2.333  0.5539 -0.7967  0.2067
19599SOL    HW268728  11.324   8.634   2.221 -1.3787  2.1987  0.7966
19600SOL     OW68729  11.380   9.381  11.622 -0.1492  0.1240 -0.9573
19600SOL    HW168730  11.324   9.368  11.699 -0.0732 -0.4506 -0.9951
19600SOL    HW268731  11.388   9.294  11.584  0.1552  0.3388 -1.3818
19601SOL     OW68732   7.800   0.986  11.841 -0.0237 -0.3784 -0.5682
19601SOL    HW168733   7.731   1.052  11.832 -0.6636 -1.2868 -3.2548
19601SOL    HW268734   7.867   1.013  11.778  2.5691  0.8834  2.4525
19602SOL     OW68735   8.660   8.655  11.881  0.5306  0.1129  0.0280
19602SOL    HW168736   8.599   8.722  11.910 -0.0435 -1.2762  2.3164
19602SOL    HW268737   8.725   8.648  11.951  0.8512 -1.3636 -0.3690
19603SOL     OW68738  10.288   3.658  10.560 -0.0199  0.0124 -0.0573
19603SOL    HW168739  10.271   3.659  10.465 -1.0442  1.5359  0.1277
19603SOL    HW268740  10.223   3.716  10.597 -0.3496 -1.4169  1.7454
19604SOL     OW68741   3.988   8.941   2.126  0.2055 -0.2765 -0.0548
19604SOL    HW168742   3.920   8.989   2.079  0.2968  0.4047  0.4959
19604SOL    HW268743   4.064   8.943   2.069 -0.0415 -0.4771 -0.3908
19605SOL     OW68744  12.217   9.947   3.121  0.1837 -0.5308 -0.0308
19605SOL    HW168745  12.133   9.928   3.080 -0.7710  1.5304  0.8318
19605SOL    HW268746  12.198   9.952   3.214  1.1728  0.3831  0.1404
19606SOL     OW68747   2.548   3.596  12.187  0.1379  0.3558  0.2294
19606SOL    HW168748   2.562   3.641  12.103  1.3673  0.2634  0.3575
19606SOL    HW268749   2.569   3.662  12.253  0.7027 -0.0203  0.4341
19607SOL     OW68750   4.811  11.400   6.320  0.2269 -0.5400 -0.1893
19607SOL    HW168751   4.763  11.467   6.271  0.8668  0.0836  0.0295
19607SOL    HW268752   4.851  11.345   6.253  0.7000  0.0234 -0.3717
19608SOL     OW68753  10.425   2.194   1.136  0.0061  0.3113 -0.3886
19608SOL    HW168754  10.388   2.110   1.162  2.6477 -0.6388  0.5903
19608SOL    HW268755  10.388   2.257   1.198  1.2648 -0.8947  1.6862
19609SOL     OW68756   4.417   6.422   3.533  0.3067 -0.4238 -0.1405
19609SOL    HW168757   4.425   6.329   3.510 -0.3018 -0.7955  1.0640
19609SOL    HW268758   4.326   6.444   3.512 -0.0289 -0.5598  1.0994
19610SOL     OW68759   5.515   4.177  10.566  0.0676  0.3320 -0.9394
19610SOL    HW168760   5.598   4.130  10.576  1.5118  3.1697  2.2229
19610SOL    HW268761   5.533   4.244  10.500  0.7582  1.6264  0.4945
19611SOL     OW68762   1.246   5.462  11.621 -0.0358  0.1405 -0.5023
19611SOL    HW168763   1.311   5.410  11.668  0.4902  1.5295  0.3466
19611SOL    HW268764   1.290   5.488  11.540 -1.1073 -2.6727 -2.1443
19612SOL     OW68765   8.430  10.649   3.431  0.5368 -0.2594 -0.0049
19612SOL    HW168766   8.404  10.665   3.522  1.8901  1.9110  0.0796
19612SOL    HW268767   8.350  10.663   3.381  0.1703  0.3101  0.7090
19613SOL     OW68768   0.231   0.590  12.811 -0.1435  0.4429  0.3366
19613SOL    HW168769   0.259   0.500  12.829 -2.9372 -1.3464 -2.9670
19613SOL    HW268770   0.296   0.622  12.749  0.6127  0.5678  1.1759
19614SOL     OW68771   9.813   0.320   4.434 -0.1186  0.3897 -0.4916
19614SOL    HW168772   9.793   0.411   4.411 -0.5734 -0.2232 -2.7439
19614SOL    HW268773   9.909   0.315   4.431  0.0226  1.1619  1.3622
19615SOL     OW68774  12.816   8.687   8.975  0.2888  0.2390  0.3280
19615SOL    HW168775  12.783   8.706   8.887  0.5350  2.6379  0.6942
19615SOL    HW268776  12.910   8.707   8.970  0.2005  0.9336  1.2584
19616SOL     OW68777   8.990   8.021  10.011  0.3523 -0.0089 -0.1872
19616SOL    HW168778   8.971   8.031  10.104 -0.7676  1.6504 -0.5584
19616SOL    HW268779   9.054   7.949  10.008  0.4755 -0.0607  1.8470
19617SOL     OW68780   2.439   9.354   8.732  0.4137  0.4512  0.6253
19617SOL    HW168781   2.530   9.324   8.727 -0.0963 -1.2745  0.9093
19617SOL    HW268782   2.445   9.449   8.729  2.2701  0.4023  1.3511
19618SOL     OW68783   9.047   7.075   1.624 -0.4217  0.2352  0.3696
19618SOL    HW168784   9.007   7.152   1.663 -1.0819  0.4172 -0.6312
19618SOL    HW268785   8.973   7.017   1.605  0.1439 -1.2571  2.3071
19619SOL     OW68786   5.502   9.056   2.706 -0.1316 -0.2566 -0.4227
19619SOL    HW168787   5.468   9.139   2.739  0.3400 -0.3919  0.4288
19619SOL    HW268788   5.424   9.006   2.683 -0.4033  0.5652 -1.3114
19620SOL     OW68789  10.165   9.547   8.143  0.3334 -0.0335  0.0217
19620SOL    HW168790  10.220   9.625   8.130  0.8350 -0.1606  1.2356
19620SOL    HW268791  10.223   9.485   8.187 -0.4224 -0.6558  0.1499
19621SOL     OW68792   2.228   1.977  10.085  0.0578  0.4329 -0.4854
19621SOL    HW168793   2.156   1.936  10.132  0.2841  1.2762  0.6572
19621SOL    HW268794   2.190   2.003  10.001 -0.9620  0.7727  0.0542
19622SOL     OW68795   2.817   0.218   6.014  0.1957  0.8565  0.1170
19622SOL    HW168796   2.785   0.180   5.933  0.7269  1.2935 -0.3019
19622SOL    HW268797   2.804   0.312   6.004  0.4082  0.9289  0.4745
19623SOL     OW68798  11.259  11.105   3.006  0.7877  0.0702  0.0629
19623SOL    HW168799  11.276  11.056   2.926 -0.7215 -0.6594  0.1611
19623SOL    HW268800  11.182  11.064   3.044  0.1384  1.8168  0.7358
19624SOL     OW68801   5.049   4.798   0.688  0.0528  0.0742  0.6615
19624SOL    HW168802   4.970   4.806   0.634 -0.5404  1.3895  1.6692
19624SOL    HW268803   5.084   4.712   0.666 -0.4725  0.3236 -1.3839
19625SOL     OW68804   1.424   5.336   2.964  0.4406 -0.0453 -0.0168
19625SOL    HW168805   1.333   5.342   2.991  0.4813  0.6610 -0.0114
19625SOL    HW268806   1.474   5.364   3.040  0.6775 -0.6575  0.0594
19626SOL     OW68807  12.719   1.478   5.181  0.6171 -0.1870 -0.0742
19626SOL    HW168808  12.734   1.430   5.100  2.5827  0.1284  0.0683
19626SOL    HW268809  12.684   1.563   5.153  0.5383 -0.3698 -0.5340
19627SOL     OW68810   5.781  11.166  13.235 -0.1194  0.0861 -0.5635
19627SOL    HW168811   5.855  11.215  13.199 -0.5036 -0.5847 -2.3761
19627SOL    HW268812   5.710  11.230  13.240 -0.2400  0.0464 -1.6408
19628SOL     OW68813   7.594   2.462   4.503 -0.0061 -0.1533  0.2124
19628SOL    HW168814   7.657   2.504   4.444  0.5488 -0.4037  0.6241
19628SOL    HW268815   7.590   2.371   4.473 -2.8584  0.5776 -2.1134
19629SOL     OW68816  10.163   2.163   2.424  0.7374  0.6373  0.5541
19629SOL    HW168817  10.133   2.175   2.334  2.9570 -0.7378 -0.4383
19629SOL    HW268818  10.087   2.126   2.469  0.2594 -0.9371 -1.3784
19630SOL     OW68819   6.892   5.406   4.882 -0.6632  0.9587  0.1203
19630SOL    HW168820   6.815   5.430   4.831 -0.9100  1.3082  0.6400
19630SOL    HW268821   6.870   5.431   4.972 -0.3726  0.0393  0.4546
19631SOL     OW68822  11.101   8.226   9.596 -0.6972 -0.0463  0.5091
19631SOL    HW168823  11.090   8.290   9.666 -0.3738  0.8486 -0.2447
19631SOL    HW268824  11.157   8.158   9.634  0.9302  1.2777  0.6073
19632SOL     OW68825   6.206  11.142   8.285  0.2120  0.2888 -0.2099
19632SOL    HW168826   6.265  11.186   8.346  2.1284 -2.3683 -0.0283
19632SOL    HW268827   6.118  11.165   8.317  1.1109  2.1810  1.0995
19633SOL     OW68828   6.452   7.025   1.425 -0.0806 -0.5158 -0.2743
19633SOL    HW168829   6.394   7.016   1.349 -1.7526 -0.4766  0.9420
19633SOL    HW268830   6.506   6.946   1.424  0.5718 -0.1002 -1.9854
19634SOL     OW68831   8.492   2.826   3.513  0.6386 -0.0538  0.3820
19634SOL    HW168832   8.566   2.874   3.476 -1.0513  2.0700 -0.4708
19634SOL    HW268833   8.440   2.893   3.556 -0.7610 -1.4961  1.0186
19635SOL     OW68834   6.993   8.524   4.188  0.0728  0.0488  0.9482
19635SOL    HW168835   7.039   8.599   4.150 -0.6901  1.0429  1.9087
19635SOL    HW268836   6.922   8.563   4.240 -0.5296 -1.3548  1.2321
19636SOL     OW68837   8.979   0.292  10.310  0.4713  0.3078 -0.2344
19636SOL    HW168838   8.925   0.213  10.315 -1.1673  1.3896 -0.2450
19636SOL    HW268839   8.960   0.328  10.223 -0.1003  1.6183  0.4246
19637SOL     OW68840   9.476  11.012   6.426  0.0394 -0.1672 -0.0613
19637SOL    HW168841   9.506  11.009   6.335 -0.7909 -1.2868 -0.3241
19637SOL    HW268842   9.520  11.088   6.463  1.3013 -0.3662 -1.0687
19638SOL     OW68843   0.972   7.485   5.158 -0.6329 -0.6121  0.0641
19638SOL    HW168844   0.907   7.554   5.144  0.0316  0.0335  0.0619
19638SOL    HW268845   1.055   7.525   5.132 -0.2462 -1.4518 -0.0245
19639SOL     OW68846   0.993   4.016   8.371  0.0127 -0.4452 -0.1250
19639SOL    HW168847   0.997   4.111   8.381 -0.2248 -0.2824 -1.4606
19639SOL    HW268848   1.063   3.983   8.428  0.3496  0.5498  0.0519
19640SOL     OW68849   9.282   6.395  10.093  0.1492 -0.0099 -0.3750
19640SOL    HW168850   9.370   6.379  10.129  0.2202  0.0610 -0.5150
19640SOL    HW268851   9.241   6.455  10.156  0.3226  0.2230 -0.4830
19641SOL     OW68852   3.601   9.412   2.018  0.5474  0.4055 -0.5798
19641SOL    HW168853   3.597   9.327   2.061 -0.5220 -0.0932 -1.6261
19641SOL    HW268854   3.695   9.431   2.011  0.7690  0.4156  1.7312
19642SOL     OW68855   3.778   4.657   0.848 -0.1397 -0.8409  0.2130
19642SOL    HW168856   3.775   4.664   0.943  0.2764  1.1378  0.1313
19642SOL    HW268857   3.861   4.615   0.829  0.6581  0.4718  0.6928
19643SOL     OW68858   9.002  11.039   4.248 -0.0726  0.1815  0.1181
19643SOL    HW168859   8.927  11.080   4.291  0.3742  0.1202  0.9730
19643SOL    HW268860   8.973  10.949   4.231  0.1348 -0.1494  1.3713
19644SOL     OW68861  10.519   5.856   4.152 -0.0053 -0.0812 -0.5850
19644SOL    HW168862  10.568   5.780   4.184 -0.2729 -1.0322 -2.2568
19644SOL    HW268863  10.435   5.819   4.122 -0.0760  0.8325 -1.5857
19645SOL     OW68864  12.306   2.427  11.552  0.0220  0.1455 -1.1095
19645SOL    HW168865  12.304   2.357  11.487  0.0410 -2.5485  1.5692
19645SOL    HW268866  12.335   2.384  11.632 -1.5635  2.8820  1.1040
19646SOL     OW68867  12.754   6.631  11.199 -0.3749  0.0768 -0.3376
19646SOL    HW168868  12.743   6.573  11.275  0.9985  0.8497  0.4988
19646SOL    HW268869  12.695   6.704  11.215  1.0111  0.9923  0.8033
19647SOL     OW68870   4.516   0.266  10.040 -0.4990  0.3727 -0.5896
19647SOL    HW168871   4.599   0.261   9.992  0.1702  1.0458  0.4650
19647SOL    HW268872   4.521   0.348  10.089 -0.7044 -0.7891  1.4680
19648SOL     OW68873  11.861  10.856   1.847  0.5411 -0.2834  0.2872
19648SOL    HW168874  11.877  10.925   1.783 -1.2572  0.8863  1.0303
19648SOL    HW268875  11.788  10.806   1.810  0.9752 -0.9977  0.3800
19649SOL     OW68876   4.849   8.559   9.450 -0.2460 -0.4092 -0.7505
19649SOL    HW168877   4.823   8.643   9.489 -2.0693 -0.3546 -1.9995
19649SOL    HW268878   4.936   8.576   9.414  0.8744 -0.0459  1.8562
19650SOL     OW68879   9.255   6.975   3.460 -0.3021 -0.2432 -0.3117
19650SOL    HW168880   9.204   6.925   3.396 -0.7113 -0.3360  0.0750
19650SOL    HW268881   9.273   6.912   3.530 -1.2547  0.2585  0.4130
19651SOL     OW68882   9.084   8.933   9.603  0.5442 -0.3313  0.3728
19651SOL    HW168883   9.048   9.010   9.559 -0.6073 -1.3271 -0.5297
19651SOL    HW268884   9.014   8.868   9.596  1.0261 -1.0945  2.1580
19652SOL     OW68885   2.235  11.215   5.857 -0.1595 -0.2767 -0.1303
19652SOL    HW168886   2.265  11.124   5.863  1.5214  0.0240 -2.5421
19652SOL    HW268887   2.141  11.208   5.840 -0.5185 -1.4262  1.9272
19653SOL     OW68888   2.569   9.181   3.956 -0.6048  0.1941  0.2700
19653SOL    HW168889   2.581   9.088   3.938  1.0589  0.5115 -0.4171
19653SOL    HW268890   2.656   9.213   3.979 -1.3350  1.3801  1.5564
19654SOL     OW68891   3.215  12.763   4.967  0.1674  0.1970 -0.3126
19654SOL    HW168892   3.266  12.828   5.015 -1.2010  1.1853 -0.1534
19654SOL    HW268893   3.207  12.798   4.878  1.6876 -1.0706 -1.0172
19655SOL     OW68894   4.763  12.425   6.336  0.0233  0.0916  0.3153
19655SOL    HW168895   4.738  12.361   6.403 -1.7561  1.6807  1.2690
19655SOL    HW268896   4.763  12.508   6.383 -1.0357  1.2248 -1.6056
19656SOL     OW68897   4.883  11.684  11.293 -0.0998  0.2282 -0.0935
19656SOL    HW168898   4.836  11.627  11.233  1.3657 -1.4392  0.2393
19656SOL    HW268899   4.853  11.657  11.380  0.3793  0.1509  0.0539
19657SOL     OW68900   3.250   8.974   7.682 -0.1621 -0.2304 -0.3311
19657SOL    HW168901   3.182   8.942   7.622  0.8714 -1.0211 -1.1251
19657SOL    HW268902   3.296   8.895   7.710 -0.0854  0.2152  0.8609
19658SOL     OW68903  12.504   4.428   1.095 -0.0700  0.3419 -0.2334
19658SOL    HW168904  12.451   4.379   1.158 -1.3892  0.7453 -0.9754
19658SOL    HW268905  12.443   4.492   1.057  1.2672  1.6838 -0.2359
19659SOL     OW68906   0.514   4.206  12.788  0.4929  0.0018  0.1101
19659SOL    HW168907   0.522   4.272  12.857  0.5827 -0.7312  0.8283
19659SOL    HW268908   0.469   4.133  12.831  1.4220 -0.8509 -0.3174
19660SOL     OW68909   0.102   2.350   3.437 -0.4416  0.3728 -0.1432
19660SOL    HW168910   0.066   2.383   3.519  0.6764  1.7774 -0.1742
19660SOL    HW268911   0.051   2.393   3.368  0.1897  1.0792 -0.1793
19661SOL     OW68912   6.510  10.052   6.113 -0.4430  0.2135  0.0119
19661SOL    HW168913   6.571  10.071   6.184  0.3580 -0.2688 -0.5270
19661SOL    HW268914   6.425  10.042   6.156  0.0348 -0.1075  0.8995
19662SOL     OW68915   5.636   2.468   7.079  0.2486  0.5846 -0.5374
19662SOL    HW168916   5.684   2.426   7.150  0.2825  0.3141 -0.7188
19662SOL    HW268917   5.685   2.445   7.000 -1.5062 -1.7812 -1.0365
19663SOL     OW68918  12.124   1.036   8.099 -0.4233  0.3232  0.0780
19663SOL    HW168919  12.098   1.013   8.189  2.3934 -0.7196  0.7501
19663SOL    HW268920  12.181   1.112   8.110  0.6378 -0.3371 -0.7055
19664SOL     OW68921   8.198   7.246   7.390 -0.2100 -0.2492  0.3490
19664SOL    HW168922   8.278   7.252   7.339 -0.0562  0.6206  0.6887
19664SOL    HW268923   8.227   7.224   7.479 -0.3206  0.3966  0.5482
19665SOL     OW68924  12.661   7.132   4.035 -0.2702 -0.1482  0.8366
19665SOL    HW168925  12.721   7.063   4.064 -1.7978 -0.3596  3.9055
19665SOL    HW268926  12.622   7.098   3.954  1.9447 -1.0108  0.0606
19666SOL     OW68927   0.103   5.449  10.378  0.0429 -0.3940  0.0198
19666SOL    HW168928   0.067   5.533  10.407 -0.3833 -0.5230 -0.1212
19666SOL    HW268929   0.188   5.443  10.420 -0.4176 -0.4272  0.9624
19667SOL     OW68930   8.371   1.222   5.661 -0.1067  0.8163 -0.0577
19667SOL    HW168931   8.427   1.154   5.623 -0.6508  0.8213 -0.9188
19667SOL    HW268932   8.420   1.303   5.649  1.4798  0.4181  2.8209
19668SOL     OW68933   5.984  12.183   9.774  0.2157 -0.2521  0.2404
19668SOL    HW168934   6.033  12.244   9.830  0.8330  0.2101 -0.7789
19668SOL    HW268935   5.902  12.169   9.821 -0.2271  1.8897  0.2309
19669SOL     OW68936   7.469  12.860   4.188  0.4027  0.2888 -0.4653
19669SOL    HW168937   7.398  12.798   4.174  1.1891 -0.8174  0.2125
19669SOL    HW268938   7.429  12.935   4.231 -0.7935  0.8100 -2.3755
19670SOL     OW68939   3.295   8.293   2.199 -0.3568 -0.0474  0.3803
19670SOL    HW168940   3.371   8.234   2.194 -1.0038 -0.8458 -0.1874
19670SOL    HW268941   3.314   8.362   2.135 -0.9976 -1.3270 -1.2718
19671SOL     OW68942  11.005   5.968   9.784 -0.0694  0.3890  0.2918
19671SOL    HW168943  10.934   6.029   9.766 -0.8969 -0.4354  0.6635
19671SOL    HW268944  11.025   5.928   9.699 -0.0197  0.6602  0.1774
19672SOL     OW68945  11.557  11.946   8.337 -0.1779 -0.2300  0.0520
19672SOL    HW168946  11.548  12.041   8.336  1.4113 -0.0030 -2.6693
19672SOL    HW268947  11.499  11.916   8.267  1.8568 -0.8647 -1.4538
19673SOL     OW68948   0.109   2.432   1.704 -0.5326 -0.1120 -0.0417
19673SOL    HW168949   0.111   2.377   1.625 -3.2856 -0.8389  0.3103
19673SOL    HW268950   0.043   2.498   1.685  0.0156  0.7626  1.0268
19674SOL     OW68951  11.260   4.925  12.752 -0.0312 -0.1090  0.0290
19674SOL    HW168952  11.205   5.001  12.776 -1.1692 -1.4846  2.1691
19674SOL    HW268953  11.222   4.893  12.670  0.4178  1.5428 -0.8673
19675SOL     OW68954  11.267  12.796   2.868 -0.6623  0.4301  0.7552
19675SOL    HW168955  11.207  12.770   2.799  1.3177 -1.5268 -0.3379
19675SOL    HW268956  11.237  12.749   2.946 -0.6738 -0.3444  0.2824
19676SOL     OW68957   4.995   2.604   3.447  0.3114 -0.3119 -0.1426
19676SOL    HW168958   5.050   2.675   3.479  1.5800 -1.5732  0.5652
19676SOL    HW268959   5.002   2.536   3.514 -0.7271 -1.1891 -0.8953
19677SOL     OW68960   8.455  12.574   3.381  0.3412 -0.6183 -0.0083
19677SOL    HW168961   8.420  12.633   3.447  1.9140  0.1052  0.2371
19677SOL    HW268962   8.440  12.486   3.416 -1.4469 -0.3822 -0.0776
19678SOL     OW68963   3.625   4.588  12.654  0.1115 -0.1839 -0.5061
19678SOL    HW168964   3.671   4.545  12.582  1.9294 -0.7445  0.9010
19678SOL    HW268965   3.625   4.681  12.631 -1.0077 -0.5349 -2.0741
19679SOL     OW68966   9.812   8.153   6.573 -0.1616  0.2686 -0.0632
19679SOL    HW168967   9.725   8.113   6.572 -0.8882  1.5785  2.4424
19679SOL    HW268968   9.833   8.163   6.666  1.8820  1.6925 -0.6043
19680SOL     OW68969  13.044   6.242   6.340  0.3853  0.5421 -0.4660
19680SOL    HW168970  13.081   6.232   6.252 -1.5098 -1.7151 -1.1157
19680SOL    HW268971  12.986   6.318   6.333  0.0385  0.2205 -1.2917
19681SOL     OW68972   6.567   8.578   1.537  0.0086 -0.1765  0.4579
19681SOL    HW168973   6.535   8.489   1.520 -0.1579  0.2762 -1.8048
19681SOL    HW268974   6.581   8.616   1.451 -1.9310  2.7641  1.2944
19682SOL     OW68975   2.674   7.880   5.828  0.0848 -0.0375 -0.1425
19682SOL    HW168976   2.716   7.794   5.828 -1.5939 -0.8842 -0.7399
19682SOL    HW268977   2.742   7.939   5.861  0.8464 -1.7916  1.6485
19683SOL     OW68978   2.486   0.106  12.684 -0.0921 -0.0859 -0.2979
19683SOL    HW168979   2.571   0.133  12.649 -0.7306  0.3558 -1.5688
19683SOL    HW268980   2.498   0.105  12.779  1.4276 -0.3830 -0.4720
19684SOL     OW68981   3.012   5.575   3.956  0.0737 -0.2576 -0.2408
19684SOL    HW168982   3.040   5.667   3.949  0.7776 -0.5499 -1.6586
19684SOL    HW268983   3.019   5.555   4.049  0.8315  0.8582 -0.0326
19685SOL     OW68984   1.391   9.282   4.221  0.1171 -0.0104  0.0510
19685SOL    HW168985   1.439   9.302   4.141  0.1598  1.6722  0.4569
19685SOL    HW268986   1.450   9.227   4.272  0.4585 -0.3201 -0.6745
19686SOL     OW68987   6.148   8.058  10.203  0.0438  0.1788  0.0795
19686SOL    HW168988   6.139   7.989  10.137  1.8885 -0.8449  0.8380
19686SOL    HW268989   6.169   8.012  10.284 -0.3577  1.5400  0.9986
19687SOL     OW68990   5.748   0.782   2.042  0.1544 -0.2108  0.3383
19687SOL    HW168991   5.662   0.750   2.068  0.8563 -1.3241  1.3649
19687SOL    HW268992   5.755   0.759   1.949 -1.0246  0.7987 -0.0339
19688SOL     OW68993   9.156  11.344   7.220  0.0672 -0.1841  0.7975
19688SOL    HW168994   9.147  11.332   7.314 -0.0075 -1.4983  0.6327
19688SOL    HW268995   9.072  11.381   7.192 -0.0507 -0.1515  1.1910
19689SOL     OW68996   3.795   8.243   3.410  0.0767  0.3630 -0.1089
19689SOL    HW168997   3.852   8.251   3.333  0.3340  0.9651  0.1448
19689SOL    HW268998   3.785   8.148   3.422 -0.5158  0.2557 -1.2922
19690SOL     OW68999   3.659   9.873   0.797 -0.1308 -0.6667  0.1991
19690SOL    HW169000   3.714   9.800   0.768  0.7218 -0.7621  1.9676
19690SOL    HW269001   3.630   9.849   0.885  0.3666  1.1999  0.9333
19691SOL     OW69002   0.783   3.427   1.794 -0.2815  1.0745 -0.6419
19691SOL    HW169003   0.834   3.414   1.873  0.7866  3.5561 -0.8175
19691SOL    HW269004   0.849   3.438   1.725 -1.1512  0.7973 -1.5328
19692SOL     OW69005   5.927   7.936   4.977  0.0613 -0.1801 -0.2837
19692SOL    HW169006   5.949   7.982   5.058 -0.6752  1.0057 -0.7421
19692SOL    HW269007   5.905   7.847   5.006  1.1855 -0.1938  0.6455
19693SOL     OW69008   3.917   7.988   6.508  0.0235  0.0894 -0.4470
19693SOL    HW169009   3.905   8.075   6.546 -2.5993 -0.1131 -0.6321
19693SOL    HW269010   3.878   7.993   6.421 -0.0104 -1.2196 -0.5379
19694SOL     OW69011   2.702   8.751   8.519 -0.1065  0.9658  0.0704
19694SOL    HW169012   2.781   8.790   8.482  0.0505  1.3995  0.8328
19694SOL    HW269013   2.690   8.669   8.471  0.2015  1.4102 -0.7776
19695SOL     OW69014   4.022   6.088  12.405 -0.7840  0.1786 -0.2169
19695SOL    HW169015   3.955   6.058  12.466 -0.9788 -0.1102 -0.5677
19695SOL    HW269016   3.986   6.170  12.370 -1.8198 -0.8673 -1.7536
19696SOL     OW69017   7.635   8.477  11.866 -0.0327 -0.5114 -0.1051
19696SOL    HW169018   7.571   8.424  11.820 -0.1467 -0.0790 -0.4512
19696SOL    HW269019   7.693   8.414  11.909 -0.3006 -0.9074 -0.3269
19697SOL     OW69020  12.513   7.925   7.131 -0.5102  0.5760 -0.0360
19697SOL    HW169021  12.534   8.004   7.180  2.1486 -0.8167  1.3168
19697SOL    HW269022  12.527   7.948   7.039  2.0492  1.2789  0.4514
19698SOL     OW69023   6.645   2.412   8.352  0.3095 -0.5983 -0.7631
19698SOL    HW169024   6.577   2.470   8.385  0.2285 -1.1445  0.0551
19698SOL    HW269025   6.652   2.433   8.259 -0.6274 -0.1955 -0.7492
19699SOL     OW69026   3.857   3.369   3.534  0.3163 -0.0109  0.0971
19699SOL    HW169027   3.861   3.331   3.446  0.6032 -1.8678  0.8641
19699SOL    HW269028   3.790   3.317   3.579 -0.9962  1.9597  0.5397
19700SOL     OW69029  10.571   6.404   2.236  0.2551 -0.0182 -0.3675
19700SOL    HW169030  10.536   6.316   2.248  1.2120 -0.1989  1.4668
19700SOL    HW269031  10.514   6.444   2.171 -2.1664 -0.9133  1.0769
19701SOL     OW69032   0.779   5.993   2.446 -0.4115 -0.7017 -0.0978
19701SOL    HW169033   0.871   6.014   2.463 -0.1917  1.2783 -2.9053
19701SOL    HW269034   0.782   5.933   2.372 -1.2876  1.3927 -1.9522
19702SOL     OW69035   1.960   4.728   9.091  0.9428 -0.4139  0.4237
19702SOL    HW169036   2.028   4.778   9.046  0.9947 -0.4515  0.4614
19702SOL    HW269037   1.878   4.770   9.064  1.0139 -0.0203  0.8117
19703SOL     OW69038   5.591   9.943   2.092 -0.3888  0.3899  0.2071
19703SOL    HW169039   5.654   9.962   2.162  0.5083  0.7133 -0.6737
19703SOL    HW269040   5.594   9.848   2.083 -2.8178 -0.0640  2.6967
19704SOL     OW69041   0.543   2.969   8.452  0.1523  0.2527  0.2858
19704SOL    HW169042   0.568   2.879   8.473 -0.6581 -0.5012 -1.7087
19704SOL    HW269043   0.450   2.964   8.430  0.5029  1.1918 -1.6251
19705SOL     OW69044   7.163  11.305  10.818 -0.0404  0.0254  0.3110
19705SOL    HW169045   7.236  11.250  10.790 -0.4559 -0.5490  0.3476
19705SOL    HW269046   7.204  11.377  10.866  0.5980  0.4198 -0.7913
19706SOL     OW69047   7.907   5.498  12.774 -0.0717  0.0988  0.2691
19706SOL    HW169048   7.891   5.592  12.779  0.7505  0.3553 -1.3530
19706SOL    HW269049   7.867   5.470  12.692  1.9675 -0.4256 -0.6199
19707SOL     OW69050  13.257   1.338  12.373 -0.0155 -0.4833 -0.3953
19707SOL    HW169051  13.275   1.424  12.335  1.3381 -0.8769 -0.7049
19707SOL    HW269052  13.285   1.275  12.306  0.2286 -1.1704  0.3355
19708SOL     OW69053  12.806   0.402   0.161 -0.2756 -0.0311 -0.5137
19708SOL    HW169054  12.800   0.496   0.142  0.2849 -0.1201 -1.1735
19708SOL    HW269055  12.824   0.362   0.076 -0.3334 -0.7165 -0.2051
19709SOL     OW69056   7.639   1.366   2.498  0.0624 -0.3417 -0.7928
19709SOL    HW169057   7.609   1.410   2.418 -2.6599  2.3642  1.4695
19709SOL    HW269058   7.582   1.289   2.506  0.6438 -0.8809 -1.5910
19710SOL     OW69059   4.918   1.967   3.079  0.1641  0.3097 -0.1526
19710SOL    HW169060   4.947   1.961   2.988  1.0920 -0.8550  0.1928
19710SOL    HW269061   4.829   1.932   3.077  0.6058 -0.8804 -0.4518
19711SOL     OW69062  13.255   2.349   6.374  0.0990 -0.1227  0.8739
19711SOL    HW169063  13.335   2.352   6.426  1.3929 -1.7944 -0.8844
19711SOL    HW269064  13.281   2.381   6.287 -0.7102 -2.0471 -0.1492
19712SOL     OW69065   9.915   5.674  10.254  0.0046  0.1436  0.4358
19712SOL    HW169066   9.890   5.686  10.163  0.0790 -0.6258  0.3147
19712SOL    HW269067   9.899   5.760  10.295  1.6178  1.0348 -0.6831
19713SOL     OW69068   1.012   3.741   6.649  0.4902  0.4197 -0.1146
19713SOL    HW169069   1.019   3.687   6.727 -1.1031  0.9132  0.4036
19713SOL    HW269070   0.954   3.691   6.591  0.9731  0.4575 -0.6391
19714SOL     OW69071   4.823  12.452   8.877  0.2362 -0.5679 -0.1618
19714SOL    HW169072   4.805  12.461   8.783 -1.3375 -0.3243  0.1369
19714SOL    HW269073   4.831  12.542   8.908 -0.1779 -0.6220  0.1023
19715SOL     OW69074   6.782   4.996   8.462 -0.1227 -0.6294  0.0381
19715SOL    HW169075   6.693   4.996   8.426  0.5015  0.2920 -1.6413
19715SOL    HW269076   6.821   4.915   8.429 -0.1811 -0.7956  0.3726
19716SOL     OW69077   9.456   4.037   4.933 -0.0553 -0.0554 -0.2814
19716SOL    HW169078   9.530   3.994   4.975  0.5336  0.9297 -0.2767
19716SOL    HW269079   9.475   4.130   4.941  0.2194  0.2083 -2.9331
19717SOL     OW69080   7.628  11.362   9.739 -0.1410 -0.3681  0.2334
19717SOL    HW169081   7.682  11.377   9.816 -1.7296 -2.4051  1.8645
19717SOL    HW269082   7.546  11.407   9.757 -0.5803 -0.9778 -0.1854
19718SOL     OW69083   6.852   8.620   0.542 -0.1848  0.1882 -0.5327
19718SOL    HW169084   6.934   8.656   0.508 -0.7883  1.4691 -0.6897
19718SOL    HW269085   6.810   8.694   0.586 -1.1283 -0.5217 -0.2090
19719SOL     OW69086  12.806  11.575  11.946  0.0111  0.2741  0.4320
19719SOL    HW169087  12.899  11.555  11.957  0.0922  0.5116  0.1761
19719SOL    HW269088  12.776  11.511  11.881  0.1836  0.7314 -0.1001
19720SOL     OW69089  13.206   2.964   0.088 -0.2801 -0.3837 -0.0134
19720SOL    HW169090  13.290   2.921   0.103 -0.2338  0.4279  2.5487
19720SOL    HW269091  13.140   2.899   0.111 -0.2689 -0.1014  0.8514
19721SOL     OW69092   6.491  10.095   1.888  0.2867 -0.5664 -0.2417
19721SOL    HW169093   6.472  10.047   1.807 -3.0382  0.1225  0.0115
19721SOL    HW269094   6.512  10.184   1.859  0.5158 -0.6747 -0.4133
19722SOL     OW69095  11.619   7.281   1.750 -0.0888 -0.0927 -0.1977
19722SOL    HW169096  11.680   7.210   1.767  0.5862  0.1481 -1.5340
19722SOL    HW269097  11.649   7.321   1.669 -0.6204  1.5495  0.3657
19723SOL     OW69098   1.974   3.551   5.944 -0.7393  0.4017 -0.2125
19723SOL    HW169099   1.958   3.645   5.950  1.0703  0.6762  1.0026
19723SOL    HW269100   1.916   3.512   6.010 -0.9756  0.7194 -0.2331
19724SOL     OW69101   2.737  12.713   8.400  0.2554 -0.1925 -0.3077
19724SOL    HW169102   2.803  12.644   8.394 -0.0779 -0.4301 -1.9197
19724SOL    HW269103   2.783  12.789   8.435  1.0570 -0.7305 -0.1818
19725SOL     OW69104   5.452   8.625   5.175  0.5033  0.4972  0.1075
19725SOL    HW169105   5.521   8.677   5.215  0.1838  1.2844 -0.3350
19725SOL    HW269106   5.411   8.579   5.248  0.2719  1.4894  0.6193
19726SOL     OW69107   2.779  12.435   9.300 -0.5892 -0.0037  0.4287
19726SOL    HW169108   2.704  12.381   9.276  0.4706 -1.0001 -0.8111
19726SOL    HW269109   2.789  12.422   9.394 -0.8163 -1.4033  0.2852
19727SOL     OW69110  12.825   6.521   2.825 -0.3426 -0.2473  0.8192
19727SOL    HW169111  12.735   6.492   2.807 -0.8570  0.7251  1.6725
19727SOL    HW269112  12.863   6.451   2.878 -0.8313 -0.3558  1.0314
19728SOL     OW69113   1.583   0.945   2.721  0.0394  0.4288  0.2884
19728SOL    HW169114   1.636   0.987   2.788  0.0951 -1.6015  1.6069
19728SOL    HW269115   1.551   1.017   2.666  3.2515  1.8319  0.0484
19729SOL     OW69116   3.964  11.068  11.553  0.0244  0.2662 -0.1931
19729SOL    HW169117   3.884  11.088  11.504 -0.8640 -0.9501  0.6953
19729SOL    HW269118   3.975  11.144  11.611 -0.6152  0.3527 -0.1734
19730SOL     OW69119  13.179   9.086  11.732 -0.3014  0.2888  0.2881
19730SOL    HW169120  13.216   9.085  11.821 -1.7863 -0.1708  0.9281
19730SOL    HW269121  13.253   9.064  11.675  0.2451 -1.5539  1.6045
19731SOL     OW69122  10.154   7.760   3.988  0.4528  0.2039  0.1650
19731SOL    HW169123  10.151   7.666   3.969 -0.8724  0.0188  1.1730
19731SOL    HW269124  10.075   7.796   3.949 -0.0435  0.5518  1.4268
19732SOL     OW69125   5.871   6.776   5.893  0.2817  0.5832  0.3561
19732SOL    HW169126   5.850   6.683   5.906 -0.0182  0.8842  2.4315
19732SOL    HW269127   5.956   6.775   5.848  1.0076 -0.7359  1.6469
19733SOL     OW69128   0.791   2.944  10.226  0.4221  0.1769  0.0387
19733SOL    HW169129   0.738   2.940  10.306  1.6386  0.8562  0.9133
19733SOL    HW269130   0.736   2.993  10.164 -0.7937 -0.8998  0.2306
19734SOL     OW69131  12.521   5.987   0.607 -0.4093 -0.2933  0.3359
19734SOL    HW169132  12.465   6.032   0.670  0.3605 -0.6211  1.2614
19734SOL    HW269133  12.607   6.028   0.617 -0.3336 -0.1470 -0.7183
19735SOL     OW69134  12.009  13.201   5.148 -0.4659 -0.7411  0.0785
19735SOL    HW169135  11.980  13.145   5.075 -0.1960  0.5995 -1.1037
19735SOL    HW269136  11.944  13.270   5.153 -0.2285 -0.5693  0.8054
19736SOL     OW69137   2.106   7.273   7.020 -0.0457 -0.0519 -0.0953
19736SOL    HW169138   2.012   7.290   7.014 -0.1005 -0.3060  0.0571
19736SOL    HW269139   2.114   7.198   7.078  0.3119  0.6295  0.7703
19737SOL     OW69140   3.826   3.153   8.688 -0.4857 -0.3994 -0.0091
19737SOL    HW169141   3.783   3.179   8.606 -1.7398 -1.8223  0.1443
19737SOL    HW269142   3.832   3.057   8.682 -0.8527 -0.5547  1.6615
19738SOL     OW69143  12.884   0.068   3.463  0.2255  0.3711 -0.1427
19738SOL    HW169144  12.842   0.125   3.528  0.2472  0.6814 -0.3997
19738SOL    HW269145  12.963   0.036   3.507 -1.1438 -1.6663  1.0323
19739SOL     OW69146  10.698  12.209   8.621  0.2881  0.4474 -0.1041
19739SOL    HW169147  10.619  12.259   8.600  1.2820  1.1934 -2.4267
19739SOL    HW269148  10.756  12.225   8.547  2.5837 -0.1813  1.4682
19740SOL     OW69149   3.622   8.456   4.686 -0.2679 -0.2918  0.0820
19740SOL    HW169150   3.602   8.363   4.680 -0.0746 -0.2587 -1.6321
19740SOL    HW269151   3.717   8.461   4.679 -0.3420  0.0787 -0.7386
19741SOL     OW69152   4.456  10.213   7.240 -0.3271  0.4275  0.2805
19741SOL    HW169153   4.550  10.206   7.256 -0.4213 -0.2857  0.5544
19741SOL    HW269154   4.437  10.307   7.250  0.8647  1.0830 -2.6864
19742SOL     OW69155   9.680  11.550   8.057  0.0590 -0.0665  0.5939
19742SOL    HW169156   9.749  11.510   8.004  0.3584  0.0458  0.8952
19742SOL    HW269157   9.680  11.642   8.032 -1.8335 -0.5136 -1.4274
19743SOL     OW69158   7.921   2.016  10.206  0.4857  0.5880 -0.6962
19743SOL    HW169159   7.950   1.954  10.272 -1.3311 -0.9034 -1.1890
19743SOL    HW269160   7.827   1.998  10.196 -0.0256  3.1295 -1.2052
19744SOL     OW69161   4.371  11.691   9.961 -0.1161  0.3446  0.3564
19744SOL    HW169162   4.338  11.606   9.992  0.3064  0.0482  0.0032
19744SOL    HW269163   4.335  11.754  10.023  1.8245 -0.3550  2.3262
19745SOL     OW69164   7.542  10.948   7.932 -0.3328 -0.1436  0.4774
19745SOL    HW169165   7.530  10.907   7.846  0.4381  0.6631 -0.0263
19745SOL    HW269166   7.508  11.037   7.921 -0.9190 -0.2634  1.2325
19746SOL     OW69167   4.214  11.235   5.560  0.1667  0.1034  0.3027
19746SOL    HW169168   4.263  11.283   5.627  2.7972 -0.5470 -1.0092
19746SOL    HW269169   4.122  11.244   5.586  0.7776  3.0486  1.8836
19747SOL     OW69170   0.900   4.388   8.762  0.1903 -0.0742  0.3499
19747SOL    HW169171   0.821   4.360   8.715  0.1066 -2.1281  1.5820
19747SOL    HW269172   0.971   4.377   8.698 -0.2416 -0.3895 -0.0822
19748SOL     OW69173   4.009   8.842   4.331 -0.1904  0.3616 -0.1397
19748SOL    HW169174   3.990   8.852   4.238 -1.5776 -1.5943 -0.1253
19748SOL    HW269175   3.928   8.869   4.375 -0.2017 -0.4698  0.3813
19749SOL     OW69176   9.205   5.192   0.988  0.3207 -0.4756 -0.6218
19749SOL    HW169177   9.215   5.256   1.059 -1.8133  0.8744 -1.4228
19749SOL    HW269178   9.170   5.114   1.031 -0.5791  0.1938 -0.0939
19750SOL     OW69179  10.372  13.012   7.255 -0.8176  0.2167 -0.0924
19750SOL    HW169180  10.280  12.999   7.278 -0.5764 -0.8021  0.4118
19750SOL    HW269181  10.376  13.100   7.219 -2.2357 -0.2152 -1.4193
19751SOL     OW69182   6.006  11.540   7.681  0.4142  1.0497  0.2538
19751SOL    HW169183   5.931  11.506   7.632  0.2039  0.6617  0.8259
19751SOL    HW269184   6.079  11.483   7.655  0.5826  1.5923 -0.5021
19752SOL     OW69185   6.288  11.824   1.270 -0.0846 -0.2587 -0.8531
19752SOL    HW169186   6.244  11.885   1.211  1.2636  1.5153 -0.1225
19752SOL    HW269187   6.283  11.866   1.356 -0.8540 -2.1626  0.0894
19753SOL     OW69188   1.274   2.589  12.619  0.0662  0.1497  0.6829
19753SOL    HW169189   1.304   2.515  12.672  0.5935 -0.4754 -0.4567
19753SOL    HW269190   1.355   2.631  12.588 -0.2327  0.1639 -0.0873
19754SOL     OW69191   8.500   9.039  10.423  0.2356 -0.2372  0.7971
19754SOL    HW169192   8.408   9.029  10.449 -0.1295  1.2815  0.1417
19754SOL    HW269193   8.527   8.951  10.397 -1.2567 -0.5691  0.2906
19755SOL     OW69194   5.319   5.549  12.337 -0.1528  0.0921  0.0953
19755SOL    HW169195   5.238   5.535  12.286 -0.4190  0.2914  0.4600
19755SOL    HW269196   5.328   5.470  12.389 -1.8839  1.3377  2.4726
19756SOL     OW69197   8.006  12.458  10.771 -0.0515 -0.0626 -0.1613
19756SOL    HW169198   8.012  12.493  10.682 -2.3631  0.1777 -0.2866
19756SOL    HW269199   8.040  12.528  10.826 -1.1225  0.9125 -0.6917
19757SOL     OW69200   4.366   1.330   7.843 -0.2472  0.1542 -0.1097
19757SOL    HW169201   4.457   1.332   7.815 -0.1870  1.2224  0.1219
19757SOL    HW269202   4.321   1.277   7.776  0.3215  0.6264 -0.8779
19758SOL     OW69203   5.296  10.372   3.214  0.0943 -0.5932 -0.2264
19758SOL    HW169204   5.353  10.438   3.254 -0.1736 -0.8929  0.6764
19758SOL    HW269205   5.349  10.293   3.211 -0.4160 -1.0144  1.1035
19759SOL     OW69206   9.477   5.917   3.066  0.5355 -0.4862 -0.4996
19759SOL    HW169207   9.438   5.859   3.001  0.7309  0.7188 -1.7249
19759SOL    HW269208   9.537   5.860   3.116  0.9779 -1.2695 -1.8770
19760SOL     OW69209   7.099  10.892  11.172 -0.4345  0.6775 -0.1978
19760SOL    HW169210   7.008  10.910  11.194  0.1674  1.4809  1.8759
19760SOL    HW269211   7.143  10.977  11.180  1.0816 -0.2322  2.2250
19761SOL     OW69212  12.027   1.684  10.641 -0.4588  0.0015 -0.0933
19761SOL    HW169213  12.019   1.628  10.718  0.1771 -0.6473 -0.4816
19761SOL    HW269214  11.946   1.671  10.592 -0.8581  0.4037  0.4503
19762SOL     OW69215   1.094   7.646   2.421 -0.1683 -0.5860 -0.0579
19762SOL    HW169216   1.032   7.653   2.493 -1.1190 -0.1237 -0.8961
19762SOL    HW269217   1.134   7.733   2.415  1.2816 -1.1277  1.0671
19763SOL     OW69218   9.613  12.097   3.510  0.0380 -0.5154 -0.2227
19763SOL    HW169219   9.707  12.081   3.521  0.0009 -0.9283 -0.4632
19763SOL    HW269220   9.572  12.038   3.573 -0.0291  0.7619  0.9842
19764SOL     OW69221   1.523  10.900   7.322  0.3611  0.0503  0.1720
19764SOL    HW169222   1.519  10.996   7.318 -0.3001  0.0391  0.4718
19764SOL    HW269223   1.453  10.876   7.381  0.1464 -0.6598 -0.3626
19765SOL     OW69224   2.300  12.410  10.000  0.2622 -0.3712  0.3482
19765SOL    HW169225   2.395  12.409  10.012  0.2664 -0.3935  0.3145
19765SOL    HW269226   2.271  12.493  10.038  0.2789 -0.4232  0.4750
19766SOL     OW69227   9.654   0.311   4.667 -0.6815  0.4751  0.0169
19766SOL    HW169228   9.589   0.368   4.624 -0.4347  0.9267  0.2306
19766SOL    HW269229   9.720   0.295   4.599 -0.2308  1.2852  0.2494
19767SOL     OW69230   8.171   8.886   1.904 -0.1452 -0.0316  0.0614
19767SOL    HW169231   8.148   8.947   1.833  1.4893 -0.0706 -0.5557
19767SOL    HW269232   8.262   8.908   1.925  0.0018 -1.2989  0.8324
19768SOL     OW69233   9.355   7.351   7.787  0.5115 -0.2990  0.1878
19768SOL    HW169234   9.331   7.443   7.795 -0.7690 -0.4587 -1.3685
19768SOL    HW269235   9.330   7.312   7.871  3.2359  1.1446  1.8021
19769SOL     OW69236   8.946   8.535   1.973  0.0732 -0.8626  0.3362
19769SOL    HW169237   8.967   8.484   1.895 -1.8127 -1.9466  0.4758
19769SOL    HW269238   8.939   8.625   1.942 -2.0375 -1.4504 -1.0912
19770SOL     OW69239   8.735   9.611   7.698 -0.3242  0.3839 -0.4897
19770SOL    HW169240   8.816   9.647   7.734 -0.4037 -0.3512  0.4594
19770SOL    HW269241   8.748   9.614   7.603  0.2900  1.4469 -0.3875
19771SOL     OW69242   6.395   6.343  12.778 -0.4050 -0.2855  0.4359
19771SOL    HW169243   6.404   6.378  12.689 -0.9682 -2.7848 -0.7048
19771SOL    HW269244   6.302   6.323  12.786 -0.2604 -0.5898  1.3890
19772SOL     OW69245  12.286   8.703   5.108 -0.0160  0.4707 -0.2666
19772SOL    HW169246  12.353   8.755   5.063  0.7300 -0.3675 -0.1444
19772SOL    HW269247  12.303   8.613   5.081 -0.4340  0.1203  0.5861
19773SOL     OW69248   5.438  12.032   6.142  0.2598  0.5849 -0.0815
19773SOL    HW169249   5.483  12.107   6.104  0.4514 -0.1303 -1.2864
19773SOL    HW269250   5.463  12.035   6.235 -0.0945  2.2561  0.0029
19774SOL     OW69251  10.866   5.945   0.712 -0.1757 -0.0252  0.1933
19774SOL    HW169252  10.916   5.948   0.793 -0.7089 -1.8101  0.6413
19774SOL    HW269253  10.912   6.004   0.652 -0.3264  2.0878  2.0611
19775SOL     OW69254   9.821  13.116   9.064 -0.5507 -0.0847 -0.6291
19775SOL    HW169255   9.752  13.097   9.127 -0.7755 -0.5380 -1.0093
19775SOL    HW269256   9.774  13.131   8.981 -0.2048 -0.2060 -0.8468
19776SOL     OW69257   6.984   2.365   4.378  0.1620 -0.3653  0.1429
19776SOL    HW169258   7.058   2.393   4.323 -0.0317 -1.5899 -0.7850
19776SOL    HW269259   7.025   2.322   4.453  0.4813 -2.9891 -1.3923
19777SOL     OW69260   1.108   8.430  12.827 -0.5660  0.4048  0.1549
19777SOL    HW169261   1.091   8.347  12.871 -0.2957  0.4263  0.3037
19777SOL    HW269262   1.121   8.493  12.898 -0.3010  0.4749  0.0470
19778SOL     OW69263   3.017   6.594   8.219 -0.0249  0.0569 -0.3628
19778SOL    HW169264   2.997   6.644   8.298  0.5666  0.1168 -0.2489
19778SOL    HW269265   2.933   6.587   8.173 -0.4013 -0.1072  0.3419
19779SOL     OW69266  10.843   0.608   3.089  0.0462 -0.0622  0.1683
19779SOL    HW169267  10.870   0.608   2.997  2.0745  0.9657  0.7067
19779SOL    HW269268  10.925   0.607   3.138 -0.9610  0.7248  1.9583
19780SOL     OW69269   5.070  11.433   5.003  0.1350  0.2685  0.2821
19780SOL    HW169270   5.078  11.352   5.052  3.4891  0.1636 -0.2159
19780SOL    HW269271   5.062  11.501   5.070  1.3571 -0.1540  0.8810
19781SOL     OW69272   2.061   2.790   8.652 -0.9414  0.1137  0.1757
19781SOL    HW169273   2.050   2.729   8.725 -2.6628  0.0724 -0.0841
19781SOL    HW269274   2.116   2.860   8.687 -0.9914 -0.3584  1.2252
19782SOL     OW69275   2.467   4.320   1.863  0.0289  0.0987  0.1672
19782SOL    HW169276   2.402   4.255   1.890  1.5577 -2.1816 -1.2155
19782SOL    HW269277   2.551   4.277   1.879  1.0861  1.4019 -1.5514
19783SOL     OW69278   2.566   5.666   0.327 -0.8150  0.3448  0.1185
19783SOL    HW169279   2.483   5.689   0.286 -1.9405 -2.6028  0.5459
19783SOL    HW269280   2.627   5.657   0.254 -1.8442 -1.1321 -0.5905
19784SOL     OW69281  12.337   4.707   7.612 -0.3632 -0.2805  0.3087
19784SOL    HW169282  12.417   4.657   7.631 -0.6741 -0.8272  0.1795
19784SOL    HW269283  12.347   4.787   7.664  1.4127  0.8040 -1.5860
19785SOL     OW69284   2.694   9.787   3.758 -0.0946 -0.4298 -0.4252
19785SOL    HW169285   2.690   9.784   3.853  1.6664  0.2372 -0.2855
19785SOL    HW269286   2.604   9.804   3.730 -0.8084 -1.6135  1.0478
19786SOL     OW69287   0.616   1.067   0.706  0.9158 -0.5348  0.1016
19786SOL    HW169288   0.711   1.069   0.714  0.8254 -0.6652  1.5781
19786SOL    HW269289   0.596   0.977   0.680  1.3054  0.1562 -2.9539
19787SOL     OW69290   6.462   3.074   5.937  0.0477  0.1882 -0.4450
19787SOL    HW169291   6.443   3.143   5.873 -0.2729  0.2034 -0.3347
19787SOL    HW269292   6.390   3.011   5.926 -1.0777  1.1235  1.2270
19788SOL     OW69293  10.857  11.126   2.875  0.4989  0.2590  0.3450
19788SOL    HW169294  10.918  11.135   2.949  0.6198 -0.7142  0.3695
19788SOL    HW269295  10.817  11.040   2.886  1.1920 -0.3053 -1.2146
19789SOL     OW69296  12.804   5.839   5.021  0.1894  0.0229 -0.3831
19789SOL    HW169297  12.836   5.928   5.033  0.0409  0.1624 -1.0210
19789SOL    HW269298  12.873   5.784   5.060  0.0042  0.4346  0.5352
19790SOL     OW69299  10.241   9.198   5.170  0.0461  0.6961  0.0705
19790SOL    HW169300  10.294   9.122   5.195  0.5225  1.4320  1.3871
19790SOL    HW269301  10.303   9.271   5.170 -0.5098  1.1859 -0.6983
19791SOL     OW69302  10.366  11.187   9.127 -0.1532 -0.3937 -0.1241
19791SOL    HW169303  10.287  11.199   9.181 -0.0500  0.0524 -0.0684
19791SOL    HW269304  10.437  11.225   9.179  0.2448 -1.5165  0.1779
19792SOL     OW69305   2.940  11.339   2.854  0.1002  0.2646  0.2708
19792SOL    HW169306   2.933  11.304   2.943  0.4128 -0.8719 -0.1368
19792SOL    HW269307   3.001  11.280   2.809 -1.1053 -0.0129 -1.0894
19793SOL     OW69308  11.734   6.608  12.038  0.1848 -0.0493 -0.2602
19793SOL    HW169309  11.735   6.648  12.124 -0.5744  0.0604 -0.2962
19793SOL    HW269310  11.714   6.515  12.054  0.6152 -0.1468 -0.2771
19794SOL     OW69311   9.332   2.922  11.492  0.1567  0.6158  0.0256
19794SOL    HW169312   9.406   2.860  11.491  0.1482  0.6098 -0.2240
19794SOL    HW269313   9.349   2.981  11.419 -0.3104  0.3482 -0.3020
19795SOL     OW69314   9.219   8.500   6.728  0.4969 -0.0777  0.3424
19795SOL    HW169315   9.130   8.468   6.744  0.7968 -1.0395  0.1620
19795SOL    HW269316   9.268   8.422   6.702  1.3184  0.4997  0.1173
19796SOL     OW69317   1.835   3.967  12.075  0.0771  0.0724  0.3236
19796SOL    HW169318   1.757   3.989  12.024 -1.4811 -0.8588  2.1826
19796SOL    HW269319   1.870   4.052  12.102 -0.0185  0.5173 -0.8998
19797SOL     OW69320  11.987   1.271  13.004 -0.4537  0.4279 -0.7157
19797SOL    HW169321  12.006   1.252  12.912 -0.2971 -0.3295 -0.5313
19797SOL    HW269322  11.975   1.366  13.006  2.1871  0.8312 -1.0411
19798SOL     OW69323   1.659  10.005   8.674 -0.4141 -0.1181  0.2686
19798SOL    HW169324   1.715  10.055   8.734 -1.6606  1.1076  0.4526
19798SOL    HW269325   1.602   9.954   8.732  0.6177 -1.5528  0.0817
19799SOL     OW69326  10.356   9.298   2.630  0.3404 -0.3681 -0.1417
19799SOL    HW169327  10.270   9.312   2.590 -0.0879 -3.3073 -0.4460
19799SOL    HW269328  10.375   9.381   2.674 -2.8578  0.2471  0.3266
19800SOL     OW69329   9.971   0.497   1.140 -0.2808  0.2671 -0.1044
19800SOL    HW169330   9.968   0.588   1.170 -0.4856 -0.0720  0.9265
19800SOL    HW269331   9.894   0.456   1.179 -0.1455 -0.3780 -0.4945
19801SOL     OW69332   6.630   0.474   5.399  0.6794  0.4248  0.0655
19801SOL    HW169333   6.612   0.413   5.471 -1.1709  0.2175 -0.5085
19801SOL    HW269334   6.615   0.422   5.320  0.7119  1.1820 -0.4505
19802SOL     OW69335   4.469   1.677  10.083  0.5508  0.5723 -0.6336
19802SOL    HW169336   4.393   1.627  10.054 -0.5716  1.3449  0.8189
19802SOL    HW269337   4.505   1.626  10.156 -0.8121  1.9141  1.0935
19803SOL     OW69338  10.814   8.506   4.331  0.2266 -0.1353  0.1039
19803SOL    HW169339  10.901   8.545   4.336 -0.5754  1.6020  1.1332
19803SOL    HW269340  10.804   8.460   4.414  0.1702 -0.3858 -0.0402
19804SOL     OW69341   0.589   9.916   6.566 -0.1156  0.6763 -0.1881
19804SOL    HW169342   0.588   9.843   6.628  2.0837 -0.2502 -1.1376
19804SOL    HW269343   0.679   9.950   6.571  0.0806  0.6938 -2.6576
19805SOL     OW69344   8.668   0.481   6.110 -0.3715  0.5362  0.3212
19805SOL    HW169345   8.710   0.425   6.045 -0.9427  0.7300 -0.2192
19805SOL    HW269346   8.599   0.427   6.147 -0.4205  0.6242  0.3565
19806SOL     OW69347   9.809   8.256   3.034 -0.3499 -0.5135  0.4841
19806SOL    HW169348   9.791   8.162   3.029  1.0349 -0.7657 -0.3161
19806SOL    HW269349   9.790   8.288   2.946  1.7982 -0.5764 -0.0372
19807SOL     OW69350   4.131   2.619   0.146 -0.3118  0.0613 -0.1815
19807SOL    HW169351   4.077   2.677   0.093 -0.3266  0.3616  0.1556
19807SOL    HW269352   4.101   2.633   0.236 -0.1345 -0.2716 -0.0672
19808SOL     OW69353   1.106   4.026   1.559  0.4143  0.0330 -0.0883
19808SOL    HW169354   1.148   4.059   1.638  1.1773  1.6998 -1.1391
19808SOL    HW269355   1.059   4.102   1.524  0.6342 -0.5014 -1.5870
19809SOL     OW69356  12.733  12.738   3.182  0.3222 -0.0805 -0.6076
19809SOL    HW169357  12.784  12.760   3.259  1.6046 -1.4472 -1.0159
19809SOL    HW269358  12.644  12.767   3.202  0.4167 -1.2288  1.7541
19810SOL     OW69359   8.157   8.928   5.077 -0.1898 -0.1473 -0.3947
19810SOL    HW169360   8.240   8.923   5.125  0.6308  0.9895 -1.6296
19810SOL    HW269361   8.090   8.937   5.145  0.8781  0.9048  0.5576
19811SOL     OW69362   7.729   4.799   2.350 -0.2613  0.3755 -0.3352
19811SOL    HW169363   7.674   4.820   2.275  0.0748  1.3956 -0.3076
19811SOL    HW269364   7.808   4.760   2.312 -0.9193 -0.9953 -0.3794
19812SOL     OW69365   1.162   8.316   5.201 -0.7434 -0.0391  0.1088
19812SOL    HW169366   1.230   8.318   5.134 -0.2974  0.2642  0.5752
19812SOL    HW269367   1.116   8.233   5.184 -2.3699  1.2200 -2.2727
19813SOL     OW69368   9.677  12.063   5.598 -0.0219  0.1230  0.2981
19813SOL    HW169369   9.716  12.073   5.684  2.9908 -1.8858 -0.6478
19813SOL    HW269370   9.608  11.997   5.610 -0.4272  0.7122  1.3176
19814SOL     OW69371   0.761   1.511   2.128  0.7448 -0.5799 -0.0546
19814SOL    HW169372   0.765   1.415   2.127  0.0408 -0.6635  1.6391
19814SOL    HW269373   0.745   1.533   2.220 -0.9191  1.0830 -0.6756
19815SOL     OW69374   1.355   0.642   9.805  0.2429  0.3073  0.2539
19815SOL    HW169375   1.314   0.679   9.883  0.2822 -0.5468  0.7001
19815SOL    HW269376   1.326   0.550   9.805 -1.3719  0.7293 -1.8148
19816SOL     OW69377   7.682  11.958  11.034 -0.1911 -0.1976 -0.8156
19816SOL    HW169378   7.777  11.966  11.041  0.0146  0.1762 -3.0888
19816SOL    HW269379   7.656  11.914  11.115  1.7624  0.6646  0.3692
19817SOL     OW69380  10.551   2.803   5.576  0.4686 -0.1742 -0.9959
19817SOL    HW169381  10.587   2.884   5.540  1.3638  0.4540  1.1052
19817SOL    HW269382  10.628   2.756   5.610 -0.2832 -0.7194  0.0135
19818SOL     OW69383   6.863   5.818   4.056  0.6765  0.1456  0.5192
19818SOL    HW169384   6.953   5.793   4.077  1.1239  0.9347 -0.3684
19818SOL    HW269385   6.857   5.809   3.961 -0.2135  0.0164  0.5801
19819SOL     OW69386   2.092  12.328  12.811  0.4606 -0.2884 -0.7889
19819SOL    HW169387   2.094  12.261  12.742 -0.1619 -3.4636  2.0558
19819SOL    HW269388   2.003  12.323  12.847  1.1118  0.4923  1.0019
19820SOL     OW69389   8.652   3.106   1.892 -0.1347  0.3899  0.1039
19820SOL    HW169390   8.606   3.170   1.946 -0.5047  0.1334  0.0973
19820SOL    HW269391   8.695   3.048   1.955 -0.9841 -0.2134  0.1401
19821SOL     OW69392   9.629   4.779   3.505 -0.3800  0.4864 -0.3863
19821SOL    HW169393   9.593   4.806   3.589  0.8456  1.4554 -0.1570
19821SOL    HW269394   9.553   4.775   3.447 -1.0737  0.9711  0.4675
19822SOL     OW69395   1.358  11.850   6.974 -0.6344  0.2739  0.1780
19822SOL    HW169396   1.337  11.855   6.881 -0.2887  0.5742  0.1132
19822SOL    HW269397   1.289  11.795   7.011 -0.5040 -0.2408 -0.3315
19823SOL     OW69398   3.893   0.441   2.444 -0.6177  0.6484  0.4666
19823SOL    HW169399   3.935   0.510   2.392 -0.4211 -0.3172 -0.7062
19823SOL    HW269400   3.849   0.386   2.379  0.2082 -1.0014  1.2377
19824SOL     OW69401  12.186   9.679  12.541  0.3507 -0.2584 -0.5306
19824SOL    HW169402  12.238   9.612  12.496  3.2886  1.8209 -0.5137
19824SOL    HW269403  12.191   9.756  12.484  0.8447  1.2474  1.4296
19825SOL     OW69404  10.628   7.874   8.324  0.2564 -0.1604 -0.2784
19825SOL    HW169405  10.647   7.858   8.231 -1.1614 -1.0894 -0.4291
19825SOL    HW269406  10.540   7.910   8.325  0.5662  0.6002  0.6615
19826SOL     OW69407   7.471  10.021   9.166  0.5604  0.2491  0.3370
19826SOL    HW169408   7.494  10.112   9.184  0.1876  0.2870  0.6368
19826SOL    HW269409   7.446  10.021   9.074 -2.3402  1.0801  1.0252
19827SOL     OW69410  11.885  12.738   5.684 -0.2579  0.2811 -0.2411
19827SOL    HW169411  11.971  12.696   5.678 -0.6839 -0.7296  0.3447
19827SOL    HW269412  11.901  12.819   5.732  0.4655  0.4010 -0.6783
19828SOL     OW69413   8.951   3.096   1.036 -0.5068 -0.6446 -0.9623
19828SOL    HW169414   8.981   3.054   1.117 -0.5588  2.5629  0.8954
19828SOL    HW269415   9.029   3.137   0.999 -1.0519  0.6952 -0.6817
19829SOL     OW69416  12.839   1.878   3.814 -0.0677 -1.0528 -0.0068
19829SOL    HW169417  12.804   1.863   3.726  0.3938  1.5256 -0.7236
19829SOL    HW269418  12.934   1.874   3.803  0.0177  0.0584  0.1619
19830SOL     OW69419   9.401  12.733   4.823  0.1059 -0.1435 -0.0098
19830SOL    HW169420   9.430  12.797   4.759  0.4417 -0.7467 -0.4631
19830SOL    HW269421   9.422  12.648   4.785  0.4605 -0.5121  0.9656
19831SOL     OW69422   8.182   8.754   7.208 -0.1611 -0.6463 -0.1793
19831SOL    HW169423   8.120   8.681   7.202  0.1905 -0.8374 -2.0966
19831SOL    HW269424   8.128   8.832   7.198 -0.3464 -0.7043  0.3337
19832SOL     OW69425   8.719   4.815   0.644  0.1258  0.0728  0.5131
19832SOL    HW169426   8.792   4.791   0.701  0.1067 -1.6411 -0.1203
19832SOL    HW269427   8.734   4.907   0.623  1.1757  0.2089  1.7259
19833SOL     OW69428   4.349   0.118   7.214  0.0914  0.8264  0.1604
19833SOL    HW169429   4.277   0.156   7.164 -2.6706 -2.0556  1.6371
19833SOL    HW269430   4.310   0.090   7.296  3.0436 -0.4129  1.2813
19834SOL     OW69431  13.102   1.476   3.322  1.0404 -0.0377  0.1694
19834SOL    HW169432  13.158   1.501   3.248  0.0823  1.9295  0.0140
19834SOL    HW269433  13.024   1.439   3.281  0.1175  1.8848  0.0763
19835SOL     OW69434   7.094   8.019   2.749 -0.6117  0.2487 -0.2245
19835SOL    HW169435   7.171   8.017   2.807  0.4876  1.1017 -1.5885
19835SOL    HW269436   7.041   8.091   2.783  0.7614  1.7446 -1.1067
19836SOL     OW69437  10.112   9.325   0.163  0.0030  0.5200  0.0364
19836SOL    HW169438  10.074   9.408   0.192 -0.6273  0.2632 -0.0440
19836SOL    HW269439  10.039   9.263   0.166  0.1261  0.2807 -1.2308
19837SOL     OW69440   8.205   7.064   1.885 -0.2419  0.1083 -0.1628
19837SOL    HW169441   8.158   7.112   1.954  3.2315  1.4632  1.5245
19837SOL    HW269442   8.206   6.974   1.915  0.4653  0.5315  1.1671
19838SOL     OW69443   6.264   1.109   3.036  0.0320 -0.7864 -0.3335
19838SOL    HW169444   6.215   1.030   3.012 -1.8271  0.5827 -1.2032
19838SOL    HW269445   6.245   1.122   3.129 -1.1274 -0.3742 -0.6210
19839SOL     OW69446   9.283   5.314   1.233  0.1622  0.0646 -0.2291
19839SOL    HW169447   9.329   5.251   1.288  0.4434  0.3423 -0.1512
19839SOL    HW269448   9.224   5.360   1.293 -1.3084 -1.2921 -0.5585
19840SOL     OW69449  11.337   9.877  10.946  0.8203  0.3694 -0.0157
19840SOL    HW169450  11.374   9.804  10.995  0.2771 -0.0577 -0.2225
19840SOL    HW269451  11.243   9.857  10.942  0.2497  2.2994  2.0037
19841SOL     OW69452   1.190  12.909   3.614 -0.0518 -0.3673 -0.6092
19841SOL    HW169453   1.159  12.943   3.530 -0.3818  1.6403  0.2823
19841SOL    HW269454   1.160  12.973   3.678  1.7602 -0.9183  0.8501
19842SOL     OW69455   3.800  11.538   7.827  0.0682  0.0330 -0.3275
19842SOL    HW169456   3.812  11.448   7.857  0.5718 -0.0996 -0.8988
19842SOL    HW269457   3.747  11.530   7.748 -0.5093  0.3045  0.0231
19843SOL     OW69458   5.114   8.014   7.190  0.0717  0.0082  0.5038
19843SOL    HW169459   5.066   8.008   7.273 -0.3967  2.2631  0.4611
19843SOL    HW269460   5.203   8.035   7.216 -0.3557  2.0640  0.4644
19844SOL     OW69461   9.567   3.698   1.383 -0.0572 -0.6690  0.1497
19844SOL    HW169462   9.615   3.765   1.336 -0.4303  1.6546  2.7797
19844SOL    HW269463   9.476   3.711   1.357 -0.3105  0.8434  1.5995
19845SOL     OW69464   1.018   9.430   4.656  0.0966 -0.0061 -0.1212
19845SOL    HW169465   1.030   9.351   4.604 -0.3184 -1.1149  1.3810
19845SOL    HW269466   1.107   9.458   4.678  0.2681 -1.5218  1.3682
19846SOL     OW69467   8.423   6.647   3.941  0.3998 -0.3665 -0.4186
19846SOL    HW169468   8.382   6.674   3.859 -2.9599 -1.0957  0.8697
19846SOL    HW269469   8.425   6.727   3.994  0.7148 -0.3189 -0.5019
19847SOL     OW69470   4.450  12.773   6.968 -0.0087  0.1608  0.2709
19847SOL    HW169471   4.418  12.779   7.058  0.9375 -0.3441  0.6527
19847SOL    HW269472   4.439  12.861   6.933  1.8350  1.0059  1.6626
19848SOL     OW69473  12.077   3.374   4.542 -0.2581  0.2392  0.1841
19848SOL    HW169474  12.158   3.324   4.535 -0.0533  0.5886 -0.0046
19848SOL    HW269475  12.046   3.382   4.451 -0.5105  0.0974  0.2566
19849SOL     OW69476   0.681   7.922   6.730  0.4421  0.4831  0.0148
19849SOL    HW169477   0.700   7.850   6.670  0.4193  0.0511  0.5109
19849SOL    HW269478   0.585   7.925   6.733  0.4178 -0.4972  1.1680
19850SOL     OW69479  13.086   9.784  11.680 -0.4505  0.3359 -0.3762
19850SOL    HW169480  13.075   9.762  11.773 -0.2171  1.2633 -0.1160
19850SOL    HW269481  13.081   9.880  11.678  1.0748  0.4284 -1.1097
19851SOL     OW69482   4.543   0.577   8.347 -0.3290 -0.3296 -0.4832
19851SOL    HW169483   4.465   0.561   8.400 -0.8377 -5.9558 -2.2332
19851SOL    HW269484   4.509   0.600   8.260  0.2049  1.3835 -0.2647
19852SOL     OW69485  11.398   8.432  10.298  0.1190 -0.1359  0.0114
19852SOL    HW169486  11.420   8.517  10.336 -0.0268  0.3933 -1.0391
19852SOL    HW269487  11.473   8.411  10.242  0.3845 -0.9526  0.6663
19853SOL     OW69488   7.604   1.001   4.219 -0.3658  0.3088  0.2394
19853SOL    HW169489   7.594   0.945   4.142  1.1614  0.5689 -0.1888
19853SOL    HW269490   7.622   1.088   4.182  1.0823  0.3014  0.8713
19854SOL     OW69491   7.777   4.234  12.003 -0.7496  0.0702  0.4510
19854SOL    HW169492   7.866   4.219  12.037 -0.3630  0.5080 -0.3499
19854SOL    HW269493   7.758   4.325  12.026 -0.6583  0.2356 -0.1238
19855SOL     OW69494   3.814   1.634   4.774  0.0149  0.1716 -0.3687
19855SOL    HW169495   3.809   1.538   4.767  0.1826  0.2267 -1.3237
19855SOL    HW269496   3.878   1.649   4.844 -0.6933 -0.4125  0.4322
19856SOL     OW69497   6.276   7.516  10.877  0.0431  0.5852 -0.0316
19856SOL    HW169498   6.355   7.561  10.848  0.5678  0.0012  0.4729
19856SOL    HW269499   6.230   7.581  10.930 -0.6064  1.4443 -1.5734
19857SOL     OW69500  13.070  13.161   4.854 -0.4743  0.1718  0.1010
19857SOL    HW169501  13.069  13.089   4.792 -0.7615  0.8800 -0.7443
19857SOL    HW269502  13.001  13.220   4.824 -0.3280  0.7378  0.8384
19858SOL     OW69503   6.669  12.554   1.953 -0.0655 -0.3833  0.0180
19858SOL    HW169504   6.637  12.616   2.018  1.5684 -0.2212  0.7092
19858SOL    HW269505   6.748  12.595   1.917  0.6183 -1.7130 -0.0675
19859SOL     OW69506   6.744  12.912   1.706 -0.7521  0.3374  0.0743
19859SOL    HW169507   6.712  12.894   1.618 -0.5203 -0.4138  0.1345
19859SOL    HW269508   6.736  12.829   1.752  1.9814 -0.1388 -0.1456
19860SOL     OW69509  10.016  11.737   5.473 -0.2089  0.1412 -0.1880
19860SOL    HW169510  10.097  11.723   5.521 -0.0772 -2.1080 -0.9112
19860SOL    HW269511   9.953  11.678   5.515 -0.8124  0.1368 -1.0736
19861SOL     OW69512   9.069   1.524   9.903  0.2587 -0.1022  0.1148
19861SOL    HW169513   9.061   1.602   9.849  0.2269 -0.2676 -0.1220
19861SOL    HW269514   9.063   1.451   9.841  0.1854 -0.2938  0.3449
19862SOL     OW69515   0.149   9.638   2.086 -0.3170 -0.1144 -0.6891
19862SOL    HW169516   0.130   9.650   1.993 -1.1066  1.0255 -0.4011
19862SOL    HW269517   0.196   9.555   2.091 -2.4987 -1.4780 -1.8166
19863SOL     OW69518   7.215   2.299   5.177 -0.1969 -0.2866  0.0478
19863SOL    HW169519   7.268   2.375   5.151 -0.3997 -0.3540 -0.5989
19863SOL    HW269520   7.127   2.319   5.144  0.2380 -1.8420 -2.3459
19864SOL     OW69521   1.301   7.453  10.116 -0.4618 -0.2418  0.4459
19864SOL    HW169522   1.215   7.467  10.157 -0.2398 -1.3464  1.3376
19864SOL    HW269523   1.314   7.359  10.120  1.0746 -0.0321  0.8983
19865SOL     OW69524   6.310   5.081   0.585  0.8735 -0.9648 -0.5334
19865SOL    HW169525   6.250   5.063   0.513 -0.1192 -0.2296  0.0794
19865SOL    HW269526   6.297   5.174   0.604 -1.5394 -1.8094  2.8624
19866SOL     OW69527  11.163  10.211   8.253  0.1618  0.1099 -0.0818
19866SOL    HW169528  11.237  10.270   8.240  0.0926 -0.1023 -1.6344
19866SOL    HW269529  11.175  10.142   8.187 -0.1193 -1.2632  1.2371
19867SOL     OW69530   9.980   1.874   5.461 -0.0042 -0.3729 -0.4696
19867SOL    HW169531   9.960   1.866   5.555 -0.7633 -1.2609 -0.6892
19867SOL    HW269532  10.075   1.861   5.456  0.1883  0.6177  0.2660
19868SOL     OW69533   5.795   1.832   9.150  0.2935 -0.4164 -0.1958
19868SOL    HW169534   5.824   1.777   9.078 -0.9245 -0.7829 -0.4438
19868SOL    HW269535   5.822   1.920   9.126  2.3073 -0.8754  0.2253
19869SOL     OW69536   4.643   2.472   5.326 -0.2353 -0.2436 -0.0715
19869SOL    HW169537   4.578   2.409   5.355  0.1549 -1.2530 -1.2847
19869SOL    HW269538   4.593   2.544   5.289 -0.6817  0.0969  1.1454
19870SOL     OW69539   6.582   9.682   0.955 -0.2954 -0.0270 -0.3486
19870SOL    HW169540   6.583   9.588   0.938 -1.1046 -0.1639  0.3170
19870SOL    HW269541   6.545   9.691   1.043  0.5614  0.8700 -0.0600
19871SOL     OW69542   4.578   8.502   1.469 -0.2844 -0.0596 -0.0157
19871SOL    HW169543   4.584   8.543   1.556  0.0504  1.2395 -0.6269
19871SOL    HW269544   4.509   8.551   1.424  1.1617  0.9307 -1.2963
19872SOL     OW69545  12.142   0.229   5.306 -0.4066  0.0561  0.4451
19872SOL    HW169546  12.156   0.259   5.216  0.4335 -0.9422  0.2207
19872SOL    HW269547  12.064   0.173   5.301  0.7021 -1.4871 -0.0419
19873SOL     OW69548   3.551  12.604   9.529  0.2200  0.0479 -0.3796
19873SOL    HW169549   3.636  12.597   9.573 -0.1272 -1.3251  0.1399
19873SOL    HW269550   3.563  12.559   9.446  0.1801  0.4578 -0.6122
19874SOL     OW69551   6.571   4.563   2.576  0.2631  0.1360  0.2059
19874SOL    HW169552   6.552   4.633   2.640 -1.6174 -0.9537  0.9212
19874SOL    HW269553   6.485   4.534   2.546  1.0661 -0.7621 -1.3372
19875SOL     OW69554   4.354   3.130   2.362  0.4398  0.1873  0.0013
19875SOL    HW169555   4.445   3.127   2.330  0.0152  0.5779 -1.3000
19875SOL    HW269556   4.312   3.199   2.310 -0.1680  1.2414  1.8215
19876SOL     OW69557   7.770  10.108  10.801 -0.1611 -0.0244 -0.2110
19876SOL    HW169558   7.749  10.105  10.895  1.0143 -0.3854  0.0600
19876SOL    HW269559   7.707  10.170  10.765 -1.5970 -0.9883  0.5412
19877SOL     OW69560   1.784   9.017   8.047  0.3046  0.2028 -0.8655
19877SOL    HW169561   1.750   9.026   7.958 -0.1987 -0.2066 -0.7190
19877SOL    HW269562   1.812   8.926   8.053  1.3775  0.5124 -0.9551
19878SOL     OW69563   2.885   8.560   0.018  0.2326 -0.4163  0.3048
19878SOL    HW169564   2.862   8.508  -0.060  0.0042  0.8346 -0.4982
19878SOL    HW269565   2.978   8.581   0.007  0.3555 -0.7558  0.6877
19879SOL     OW69566   1.271  11.968  11.933  0.4349 -0.1954 -0.1012
19879SOL    HW169567   1.181  11.951  11.905  0.7028 -2.0121 -0.0034
19879SOL    HW269568   1.277  12.063  11.939 -0.9862  0.0484 -1.7421
19880SOL     OW69569  11.104   4.451   1.238 -0.2222  0.5144 -0.1248
19880SOL    HW169570  11.189   4.411   1.259 -1.0123 -0.7323  0.7727
19880SOL    HW269571  11.085   4.507   1.313 -0.8864 -0.3773  0.3859
19881SOL     OW69572  12.095  12.716  11.893 -0.4403 -0.3202  0.1101
19881SOL    HW169573  12.006  12.688  11.914 -1.4290  0.8232 -2.2137
19881SOL    HW269574  12.118  12.668  11.813  0.9435 -0.3807  0.5074
19882SOL     OW69575   8.610   2.408   1.909  0.0481 -0.0645 -0.4079
19882SOL    HW169576   8.615   2.471   1.981  0.2665 -1.2806  0.6548
19882SOL    HW269577   8.698   2.406   1.872  0.7024 -1.5540  1.1437
19883SOL     OW69578   3.619   8.063  11.315  0.2863  0.0032  0.3087
19883SOL    HW169579   3.558   8.036  11.384  0.2447  2.0398  1.1426
19883SOL    HW269580   3.704   8.070  11.359  0.3901  0.6909  0.0104
19884SOL     OW69581   5.375   4.974   0.005  0.1986  0.2098  0.0513
19884SOL    HW169582   5.316   4.917  -0.044  0.3476 -1.0225  1.2424
19884SOL    HW269583   5.317   5.039   0.046 -0.2419 -0.4901  0.5459
19885SOL     OW69584   7.482   2.142   1.610  0.3414 -0.4111 -0.0301
19885SOL    HW169585   7.460   2.216   1.553  0.5894 -1.1355 -1.1059
19885SOL    HW269586   7.488   2.179   1.697  1.7915  1.1189 -0.7230
19886SOL     OW69587  11.462   0.917   3.284  0.2936 -0.2016  0.1511
19886SOL    HW169588  11.407   0.883   3.355 -1.1074 -0.4335 -1.0054
19886SOL    HW269589  11.420   0.999   3.259  0.9983  0.0650 -0.1795
19887SOL     OW69590   9.198   9.365   7.946 -0.4378  0.4863 -0.3496
19887SOL    HW169591   9.214   9.411   7.864 -1.8850  0.8272 -0.4755
19887SOL    HW269592   9.242   9.418   8.012  1.9593 -0.5471 -1.0134
19888SOL     OW69593   6.210   2.176   3.458  0.1665 -0.2221  0.7190
19888SOL    HW169594   6.220   2.146   3.548 -0.7382 -0.6122  0.6957
19888SOL    HW269595   6.122   2.213   3.454 -0.5067 -1.8409 -0.4451
19889SOL     OW69596   5.433   9.336   2.859 -0.1560 -0.1754  0.1322
19889SOL    HW169597   5.466   9.420   2.891  0.0125 -0.5864  1.0585
19889SOL    HW269598   5.373   9.360   2.788 -1.0017  0.8054  1.1450
19890SOL     OW69599   7.230  13.085   6.671 -0.6106 -0.0167 -0.8569
19890SOL    HW169600   7.251  13.175   6.696 -0.4446 -0.1504 -0.5216
19890SOL    HW269601   7.209  13.041   6.753 -2.7422  0.2500 -1.2039
19891SOL     OW69602   3.232   4.548  11.026  0.2581 -0.4000 -0.0348
19891SOL    HW169603   3.146   4.546  10.985 -0.1301 -2.0533  0.7635
19891SOL    HW269604   3.247   4.640  11.046 -1.3510 -0.0873 -0.1364
19892SOL     OW69605   0.294   5.316   2.026  0.2062 -0.4412 -0.1039
19892SOL    HW169606   0.261   5.316   1.936 -3.7569 -0.2683  1.1747
19892SOL    HW269607   0.325   5.226   2.040  1.4472 -0.3175 -1.7495
19893SOL     OW69608   6.782   3.718  12.269 -0.2133  0.3852  0.0089
19893SOL    HW169609   6.709   3.740  12.212  1.4604  0.0898 -2.3772
19893SOL    HW269610   6.820   3.639  12.230  0.2208 -0.6284  2.3247
19894SOL     OW69611   8.341  12.754   8.771  0.3780 -0.2434  1.1845
19894SOL    HW169612   8.288  12.711   8.704  2.7466  1.2936 -1.9359
19894SOL    HW269613   8.319  12.847   8.764  2.5067  0.2665  0.6448
19895SOL     OW69614   3.367   3.634   4.529 -0.6609 -0.2386 -0.3125
19895SOL    HW169615   3.337   3.622   4.619 -1.2790 -1.3790 -0.6407
19895SOL    HW269616   3.355   3.727   4.511  1.0699  0.3460  1.3159
19896SOL     OW69617  11.270   1.908   4.472  0.1842  0.3215 -0.2736
19896SOL    HW169618  11.300   1.971   4.539 -0.3495  2.3871 -1.8676
19896SOL    HW269619  11.178   1.892   4.495  0.8467 -1.5498  1.3095
19897SOL     OW69620   4.475  11.669   4.682 -0.8592 -0.4439 -0.2458
19897SOL    HW169621   4.482  11.595   4.742 -2.2019 -0.6413 -0.2983
19897SOL    HW269622   4.536  11.734   4.718 -0.3396 -1.2192  0.3193
19898SOL     OW69623   5.106   4.408   6.988 -0.1082 -0.1502 -0.2402
19898SOL    HW169624   5.043   4.479   6.975  0.6224  0.5820  0.0900
19898SOL    HW269625   5.175   4.425   6.924  0.9209  0.4550  0.9819
19899SOL     OW69626   3.043   2.277  10.358  0.2284 -0.3420  0.3786
19899SOL    HW169627   3.028   2.293  10.264  1.2887 -1.0007  0.0837
19899SOL    HW269628   3.054   2.364  10.395  0.3998 -0.1006 -0.2156
19900SOL     OW69629   2.821   8.690   9.615  0.5430 -0.0337  0.2535
19900SOL    HW169630   2.910   8.717   9.638  0.4433  0.6650 -0.1584
19900SOL    HW269631   2.821   8.689   9.519  0.4408 -1.1785  0.2543
19901SOL     OW69632  10.181   6.461   4.463 -0.2275 -0.4677 -0.4467
19901SOL    HW169633  10.110   6.437   4.522 -0.6749  0.2137 -0.6948
19901SOL    HW269634  10.240   6.514   4.516  0.2471 -1.2723 -0.1643
19902SOL     OW69635  10.110   6.287   0.952 -0.1575 -0.2756  0.3054
19902SOL    HW169636  10.163   6.364   0.933  0.2852 -0.2485  1.5782
19902SOL    HW269637  10.090   6.250   0.866  0.7305  0.5085 -0.2586
19903SOL     OW69638   1.288   4.613   2.098 -0.1130 -0.5828 -0.2433
19903SOL    HW169639   1.233   4.648   2.168 -0.3887 -0.2361 -0.6239
19903SOL    HW269640   1.347   4.551   2.141  0.4964  0.4733  0.4881
19904SOL     OW69641   5.285   6.523   0.390  0.1289 -0.0189 -0.1802
19904SOL    HW169642   5.325   6.491   0.309  0.9224  2.0317 -0.6618
19904SOL    HW269643   5.275   6.444   0.444  1.1154 -1.1942 -1.6120
19905SOL     OW69644   4.931  12.862  12.958 -0.2931 -0.0975 -0.6406
19905SOL    HW169645   4.837  12.870  12.973 -0.0211 -0.4700  1.6583
19905SOL    HW269646   4.961  12.952  12.945 -0.8199  0.1199 -0.3657
19906SOL     OW69647   8.601   0.374   7.961 -0.0449 -0.5669 -0.1835
19906SOL    HW169648   8.625   0.338   7.875 -1.0997 -1.0829 -0.2860
19906SOL    HW269649   8.516   0.416   7.946 -0.7833 -1.6286  0.8231
19907SOL     OW69650   0.777   8.638   1.280  0.1418  0.0482  0.2559
19907SOL    HW169651   0.808   8.557   1.321 -0.5521 -0.4039 -0.0841
19907SOL    HW269652   0.802   8.629   1.188  2.4412  1.4325  0.6806
19908SOL     OW69653   9.406  12.225   6.940 -0.4736 -0.3323 -0.4515
19908SOL    HW169654   9.418  12.136   6.907  2.0423 -0.9955  1.8665
19908SOL    HW269655   9.337  12.218   7.005  0.1163 -0.7361  0.1371
19909SOL     OW69656   3.298   6.887  10.019  0.0274 -0.1299 -0.6373
19909SOL    HW169657   3.280   6.949   9.949 -1.2701 -2.1532 -2.1892
19909SOL    HW269658   3.393   6.892  10.032  0.3731  0.0269 -2.8470
19910SOL     OW69659   9.544  13.251   5.209  0.3759 -0.0893 -0.4452
19910SOL    HW169660   9.550  13.189   5.137  0.1243 -0.9415  0.2531
19910SOL    HW269661   9.512  13.332   5.169 -1.4249 -1.0420 -1.0202
19911SOL     OW69662  10.620   0.061   8.321  0.1946  0.5354  0.6251
19911SOL    HW169663  10.714   0.074   8.336 -0.0083  1.7758  0.9047
19911SOL    HW269664  10.610   0.068   8.226  0.5017 -0.5171  0.5014
19912SOL     OW69665   9.875  11.900  12.347  0.1186 -0.1999 -0.5359
19912SOL    HW169666   9.947  11.950  12.307 -0.3828  0.5869 -0.4898
19912SOL    HW269667   9.915  11.858  12.424  0.1793  1.6200  0.5020
19913SOL     OW69668   2.317   6.740   7.300  0.3524  0.2266 -0.0296
19913SOL    HW169669   2.345   6.809   7.361 -0.3688  1.6236 -1.2178
19913SOL    HW269670   2.358   6.660   7.335  1.2127  1.2258  1.4025
19914SOL     OW69671   2.651   5.182   4.834  0.2697 -0.1777  0.3879
19914SOL    HW169672   2.656   5.086   4.840 -1.3524 -0.4552 -1.8237
19914SOL    HW269673   2.579   5.199   4.775 -0.4454  2.5048  1.8731
19915SOL     OW69674  12.906   5.201   4.901 -0.1346 -0.0960 -0.0354
19915SOL    HW169675  12.861   5.173   4.822  0.6818 -0.2528 -0.4576
19915SOL    HW269676  12.845   5.260   4.945 -1.1338 -1.0544 -0.0985
19916SOL     OW69677   5.018   6.101  12.199 -0.2583  0.0972 -0.0112
19916SOL    HW169678   4.944   6.049  12.168  0.1670 -0.0409 -0.8101
19916SOL    HW269679   5.094   6.061  12.157  0.3910 -0.3341  1.5002
19917SOL     OW69680   0.212   7.917   0.059 -0.6037  0.0929  0.3070
19917SOL    HW169681   0.138   7.967   0.094 -1.0887  0.8007 -1.6370
19917SOL    HW269682   0.258   7.978   0.001 -0.4092 -1.2862 -1.0490
19918SOL     OW69683   7.934   9.089   7.569 -0.1846 -0.1529  0.1027
19918SOL    HW169684   8.007   9.051   7.521 -0.2804  0.6878 -0.7488
19918SOL    HW269685   7.889   9.143   7.505 -0.7492  0.4370  0.9695
19919SOL     OW69686   5.738   1.394   3.586 -0.0128 -0.2359 -0.4849
19919SOL    HW169687   5.662   1.349   3.623  0.0727  1.8669  2.6648
19919SOL    HW269688   5.812   1.337   3.607 -0.3332 -0.6334 -0.4121
19920SOL     OW69689  11.035   2.813  10.525  0.4153  0.0454  0.0889
19920SOL    HW169690  11.106   2.759  10.490 -0.3585 -0.1981 -1.1642
19920SOL    HW269691  11.025   2.784  10.615 -0.3071 -2.2767 -0.6791
19921SOL     OW69692  12.644   3.639   0.774  0.1692 -0.1154 -0.3877
19921SOL    HW169693  12.658   3.588   0.694  0.3105  1.1509 -1.1827
19921SOL    HW269694  12.657   3.730   0.748 -0.0433  0.3442  1.0218
19922SOL     OW69695   9.366   2.851  12.874  0.5652 -0.1505 -0.1461
19922SOL    HW169696   9.291   2.818  12.923  0.2314  2.8828  1.6342
19922SOL    HW269697   9.332   2.867  12.786 -0.6082  0.2001  0.3581
19923SOL     OW69698   8.164   4.828   4.441 -0.8373  0.6718  0.1923
19923SOL    HW169699   8.226   4.811   4.512 -1.2957  1.2054  0.7236
19923SOL    HW269700   8.117   4.906   4.468  0.2273  1.9736 -1.5567
19924SOL     OW69701   5.195   3.673   2.602 -0.4068  0.4633 -0.4733
19924SOL    HW169702   5.200   3.704   2.693  1.8360 -0.9572 -0.0533
19924SOL    HW269703   5.214   3.751   2.550 -0.6947  1.0660  0.2855
19925SOL     OW69704   9.093   7.559   0.190 -0.0072 -0.7299 -0.1648
19925SOL    HW169705   9.075   7.515   0.107  0.1990 -0.5286 -0.3220
19925SOL    HW269706   9.122   7.490   0.249  1.3154 -0.6753 -0.7129
19926SOL     OW69707   4.496   1.514   2.696 -0.1803 -0.1163 -0.0675
19926SOL    HW169708   4.541   1.585   2.741 -1.3990 -0.2004  1.3835
19926SOL    HW269709   4.416   1.554   2.661 -0.7988 -0.7062  0.6298
19927SOL     OW69710  13.307  11.224   1.548  0.4925  0.2073 -0.5024
19927SOL    HW169711  13.363  11.194   1.620  0.0926  1.0184  0.1724
19927SOL    HW269712  13.363  11.223   1.471  0.6370 -1.7515 -0.4190
19928SOL     OW69713   9.105  10.756   8.318  0.1811  0.4633 -0.3132
19928SOL    HW169714   9.088  10.747   8.225 -1.8066  2.1823 -0.1914
19928SOL    HW269715   9.188  10.803   8.323  0.0171  0.8656 -1.2373
19929SOL     OW69716  10.483   1.609   5.947  0.3972  0.0806  0.1059
19929SOL    HW169717  10.432   1.671   5.998  2.8776  1.6218  0.8676
19929SOL    HW269718  10.519   1.548   6.011  2.9428  1.5975  0.2469
19930SOL     OW69719  10.826   9.432   8.166  0.5753  0.5974 -0.4782
19930SOL    HW169720  10.840   9.341   8.144 -1.5983  0.7156 -2.8076
19930SOL    HW269721  10.885   9.481   8.109  1.1497  0.7115  0.1924
19931SOL     OW69722  10.130   0.919   2.063 -0.4265 -0.0110  0.1900
19931SOL    HW169723  10.045   0.927   2.021 -2.1021 -2.3017  2.7958
19931SOL    HW269724  10.163   0.833   2.035 -0.5028 -0.5440  1.6455
19932SOL     OW69725   7.830   0.345  10.095  0.1680 -0.4759  0.3887
19932SOL    HW169726   7.752   0.394  10.069  0.5390  1.5255  2.6545
19932SOL    HW269727   7.903   0.396  10.061  0.5930 -2.3496 -1.7459
19933SOL     OW69728   9.104   6.444  13.248  0.8141 -0.2533 -0.2723
19933SOL    HW169729   9.043   6.518  13.248  0.3964 -0.5758  0.8076
19933SOL    HW269730   9.120   6.426  13.340  1.1146 -1.3432 -0.5215
19934SOL     OW69731   5.315   0.057   5.897 -0.0525  0.1782 -0.5858
19934SOL    HW169732   5.275   0.143   5.886  1.2142  1.1056  1.4234
19934SOL    HW269733   5.259  -0.003   5.847 -2.5433  1.7257  0.2114
19935SOL     OW69734   0.582   8.357   3.776 -0.7345  0.2770  0.4769
19935SOL    HW169735   0.576   8.401   3.691 -0.3862  1.9510  1.2710
19935SOL    HW269736   0.628   8.275   3.758  1.5818  1.7277 -0.5795
19936SOL     OW69737   0.735  11.617   1.358 -0.6562 -0.6336  0.0688
19936SOL    HW169738   0.790  11.639   1.434  0.0099 -0.4288 -0.4611
19936SOL    HW269739   0.679  11.694   1.347 -1.0380 -0.8288  0.5910
19937SOL     OW69740   8.993   6.903   9.968  0.0245 -0.0844  0.2512
19937SOL    HW169741   9.021   6.915  10.059  0.1948 -0.4902  0.2541
19937SOL    HW269742   8.963   6.990   9.940  0.4799  0.1592  0.5202
19938SOL     OW69743   7.628  11.290   8.396  0.4862  0.0351  0.0275
19938SOL    HW169744   7.557  11.285   8.332  0.7919 -1.0434 -0.2490
19938SOL    HW269745   7.696  11.340   8.352  0.3729  0.0190 -0.1703
19939SOL     OW69746  11.942  10.157   2.775 -0.2377  0.2976  0.3438
19939SOL    HW169747  11.973  10.070   2.750 -0.6417 -0.2982  1.8186
19939SOL    HW269748  12.023  10.207   2.789  0.0026  0.6202 -1.8855
19940SOL     OW69749   6.392   8.442   6.526 -0.0163 -0.1322  0.3949
19940SOL    HW169750   6.448   8.519   6.521 -0.2112  0.0064  0.3319
19940SOL    HW269751   6.394   8.417   6.619  0.9140 -0.7016  0.2331
19941SOL     OW69752   2.509  10.436   6.383  0.3682 -0.0828  0.1535
19941SOL    HW169753   2.550  10.419   6.298 -1.4000  2.3136 -1.2998
19941SOL    HW269754   2.434  10.377   6.386 -1.0710  1.5743 -1.2103
19942SOL     OW69755   2.111  12.146   7.104 -0.5273  0.5076  0.5062
19942SOL    HW169756   2.116  12.167   7.011 -2.3305  2.5288  0.7833
19942SOL    HW269757   2.197  12.168   7.138 -0.6093  2.1623 -0.2725
19943SOL     OW69758   1.206   6.492   7.664 -0.3035 -0.1894 -0.1779
19943SOL    HW169759   1.136   6.433   7.637  0.1619 -0.1873 -1.4960
19943SOL    HW269760   1.246   6.520   7.582  1.7417 -0.8068  0.5442
19944SOL     OW69761   6.781   7.885   5.204  0.2103  0.0918  0.2500
19944SOL    HW169762   6.726   7.822   5.158  0.0396 -0.1466  0.7761
19944SOL    HW269763   6.723   7.960   5.219  0.0385 -0.1388  0.7583
19945SOL     OW69764  10.251   9.640   9.256 -0.4785 -0.6548 -0.0787
19945SOL    HW169765  10.205   9.724   9.254  1.4101  0.5377  1.9228
19945SOL    HW269766  10.285   9.629   9.167 -1.0954  0.4821 -0.4768
19946SOL     OW69767   4.580   3.486   3.655  0.2577  0.1330  0.5358
19946SOL    HW169768   4.548   3.404   3.694 -1.1889  1.3012  1.9575
19946SOL    HW269769   4.608   3.539   3.730  2.0833  0.6049 -0.4243
19947SOL     OW69770   6.798   7.001   1.285 -0.1057  0.3594  0.4114
19947SOL    HW169771   6.865   7.010   1.353 -0.1759  1.8945  0.3049
19947SOL    HW269772   6.761   7.088   1.276  1.6005  0.9045 -3.3332
19948SOL     OW69773   6.446  12.731   0.193 -0.0182  0.2760  0.2134
19948SOL    HW169774   6.377  12.668   0.211 -0.0473  0.1853 -0.2082
19948SOL    HW269775   6.457  12.729   0.098 -1.9757  2.9699 -0.1802
19949SOL     OW69776  11.408   2.849   6.907  0.1519 -0.0149  0.3524
19949SOL    HW169777  11.484   2.891   6.867  0.3016 -0.7202 -0.1358
19949SOL    HW269778  11.427   2.850   7.001 -0.9971  3.2442  0.6793
19950SOL     OW69779  11.491  11.292   5.224 -0.3210  0.6231 -0.3479
19950SOL    HW169780  11.403  11.295   5.259 -0.3925 -2.7317  0.0700
19950SOL    HW269781  11.480  11.305   5.130 -1.1023  1.2550 -0.1785
19951SOL     OW69782   3.328   3.875   6.385 -0.9217  0.0365  0.0850
19951SOL    HW169783   3.355   3.870   6.293  1.1628 -0.0825  0.6421
19951SOL    HW269784   3.247   3.926   6.384 -1.2435 -0.4425 -1.8558
19952SOL     OW69785  11.469   7.091   2.682 -0.4129  0.8023 -0.2972
19952SOL    HW169786  11.383   7.069   2.717  0.7743 -2.0857  1.1593
19952SOL    HW269787  11.475   7.042   2.600 -0.1532  0.9834 -0.3899
19953SOL     OW69788   7.527   7.549   8.242  0.0023 -0.4841 -0.2532
19953SOL    HW169789   7.485   7.581   8.162  0.6840 -0.7929 -0.7429
19953SOL    HW269790   7.490   7.604   8.312 -1.0605 -0.6189 -0.6854
19954SOL     OW69791   6.161   8.554   2.870 -0.9493 -0.2855 -0.0114
19954SOL    HW169792   6.180   8.623   2.806 -0.1862 -0.4938 -0.0159
19954SOL    HW269793   6.185   8.473   2.825  2.1153 -0.3019  1.3850
19955SOL     OW69794  10.438  10.721   2.713 -0.0248 -0.1166 -0.0878
19955SOL    HW169795  10.432  10.773   2.793  0.0586  0.6720 -0.5865
19955SOL    HW269796  10.494  10.647   2.737 -0.3905 -0.1460  0.7095
19956SOL     OW69797  11.530  11.823   8.597  0.2104 -0.2225  0.2946
19956SOL    HW169798  11.525  11.887   8.525  0.5403 -0.2145  0.2769
19956SOL    HW269799  11.623  11.799   8.601 -0.0442 -1.3430 -0.2531
19957SOL     OW69800   4.014  13.180  10.737  0.2803  0.0923 -0.0426
19957SOL    HW169801   3.996  13.174  10.643 -1.7035  0.9141  0.2293
19957SOL    HW269802   3.949  13.121  10.777  0.3351  0.6213  0.8614
19958SOL     OW69803  12.474   6.809  12.215 -0.0736  0.2314  0.1154
19958SOL    HW169804  12.409   6.792  12.284  1.5719 -0.7667  1.5068
19958SOL    HW269805  12.543   6.858  12.259  1.3924 -1.1103 -0.6045
19959SOL     OW69806   1.651   1.844   6.579 -0.4518  0.3682 -0.1635
19959SOL    HW169807   1.678   1.753   6.575  0.8618  0.7531 -0.7370
19959SOL    HW269808   1.566   1.843   6.623 -0.8468 -1.1970 -0.9118
19960SOL     OW69809   2.230   6.403   0.560 -0.0554 -0.9057 -0.6477
19960SOL    HW169810   2.275   6.487   0.553  0.3289 -1.0668 -0.2107
19960SOL    HW269811   2.144   6.418   0.520 -0.5996  0.1543  0.8186
19961SOL     OW69812   4.494   8.801   6.853  0.3115  0.1667  0.9550
19961SOL    HW169813   4.519   8.876   6.907 -0.8596  1.4321 -0.2138
19961SOL    HW269814   4.414   8.768   6.894  0.5555 -0.1526  1.1794
19962SOL     OW69815  10.535  10.732   8.300 -0.3757 -0.1387  0.1720
19962SOL    HW169816  10.460  10.720   8.242 -1.0104  0.5210  0.8447
19962SOL    HW269817  10.506  10.698   8.385  0.5569 -1.1362  0.1219
19963SOL     OW69818   5.632   1.769   1.746 -0.1233 -0.1137 -0.3294
19963SOL    HW169819   5.572   1.843   1.749  0.3172  0.2793 -0.9793
19963SOL    HW269820   5.697   1.794   1.680  1.0756 -0.2622  0.7458
19964SOL     OW69821   2.173   7.431   3.356  0.2272  0.4392 -0.0120
19964SOL    HW169822   2.208   7.508   3.399  0.9414 -0.1125  0.4346
19964SOL    HW269823   2.251   7.388   3.318  0.0849 -0.9188  1.1534
19965SOL     OW69824   4.754   2.718   0.539 -0.3757  0.2757  0.2017
19965SOL    HW169825   4.726   2.701   0.450  0.4141  0.6505 -0.1309
19965SOL    HW269826   4.697   2.788   0.570 -0.7973 -0.0077  0.0708
19966SOL     OW69827  11.699   4.565   2.780 -0.5440  0.0617  0.1201
19966SOL    HW169828  11.660   4.478   2.766  0.1819 -0.1066 -0.9400
19966SOL    HW269829  11.746   4.556   2.863 -0.1775 -0.6775 -0.1548
19967SOL     OW69830   6.462   8.517   9.017  0.1049 -0.0658  0.0648
19967SOL    HW169831   6.417   8.598   9.041  0.6377 -0.2043  1.6146
19967SOL    HW269832   6.545   8.545   8.979 -0.6014  0.1484 -1.3656
19968SOL     OW69833   6.312   8.900   7.745  0.0844  0.3106 -0.4224
19968SOL    HW169834   6.309   8.977   7.688 -0.1352  0.4505 -0.2251
19968SOL    HW269835   6.355   8.930   7.825 -0.7105  0.4427 -0.0320
19969SOL     OW69836  11.792  10.648   3.670  0.1633 -0.1251  0.6557
19969SOL    HW169837  11.708  10.604   3.688 -0.2392  0.5042  0.3398
19969SOL    HW269838  11.848  10.579   3.636 -0.0101 -0.7019  1.5021
19970SOL     OW69839  12.926   1.179  12.097  0.0990  0.4208 -0.2199
19970SOL    HW169840  12.959   1.172  12.008 -0.5923 -0.0162 -0.4455
19970SOL    HW269841  12.831   1.181  12.088  0.0339  0.8981  0.4728
19971SOL     OW69842  10.156   9.552   5.527 -0.0462  0.3748 -0.3832
19971SOL    HW169843  10.093   9.575   5.595  0.1113 -0.9549  0.2359
19971SOL    HW269844  10.217   9.626   5.525 -2.6540  2.7141 -2.4149
19972SOL     OW69845   7.773   8.283   6.239 -0.1971  0.7418  0.1084
19972SOL    HW169846   7.704   8.270   6.174  0.0868  0.6027 -0.1685
19972SOL    HW269847   7.824   8.202   6.236  0.1448  0.9592  0.1130
19973SOL     OW69848  13.190   5.099   6.723  0.2561 -0.0792  0.7422
19973SOL    HW169849  13.199   5.193   6.739 -0.6782  0.7395 -2.7816
19973SOL    HW269850  13.278   5.068   6.705  0.5633  0.0740  1.9076
19974SOL     OW69851   5.670   7.669  11.814 -0.3591  0.0589  0.0360
19974SOL    HW169852   5.695   7.748  11.862 -0.5954  0.1176  0.0629
19974SOL    HW269853   5.672   7.694  11.722 -0.4338  0.0980  0.0442
19975SOL     OW69854   3.028   9.996   1.570  0.2537  0.0969 -0.0612
19975SOL    HW169855   3.061   9.987   1.480  0.5256  1.1724 -0.0780
19975SOL    HW269856   3.016   9.905   1.600 -0.6828 -0.2803 -1.4746
19976SOL     OW69857   3.588   0.540   7.185  0.5718 -0.1438 -0.0236
19976SOL    HW169858   3.510   0.544   7.130 -0.2892 -0.7416  1.1053
19976SOL    HW269859   3.656   0.504   7.128  0.6827  2.4914 -1.7083
19977SOL     OW69860  10.316   0.104  10.960 -0.3297  0.0192 -0.8339
19977SOL    HW169861  10.393   0.117  10.906  0.1477 -3.2073 -1.1695
19977SOL    HW269862  10.243   0.134  10.906  0.4431  0.1355 -1.8420
19978SOL     OW69863   7.423   5.262   1.067  0.5985 -0.0650  0.4077
19978SOL    HW169864   7.389   5.298   0.985  0.7653  1.4582  0.9737
19978SOL    HW269865   7.418   5.335   1.129 -0.8790 -1.5484  2.1753
19979SOL     OW69866   9.856   0.774  11.245  0.5605  0.2331 -0.0092
19979SOL    HW169867   9.778   0.723  11.263  1.3925 -1.1563 -0.2252
19979SOL    HW269868   9.858   0.784  11.150 -0.3252  1.9071  0.1046
19980SOL     OW69869  13.266   5.534   5.466  0.0949  0.1848  0.2068
19980SOL    HW169870  13.289   5.611   5.415 -0.5079 -1.2013 -2.3198
19980SOL    HW269871  13.349   5.490   5.484  0.1784 -0.7211 -2.0609
19981SOL     OW69872   9.934  12.790  12.009 -0.2702  0.1070 -0.5436
19981SOL    HW169873   9.872  12.717  12.016 -0.3877  0.2110 -0.4767
19981SOL    HW269874   9.895  12.848  11.943  0.0092 -0.0709 -0.8630
19982SOL     OW69875   3.441  10.518   3.035  0.5018 -0.1764 -0.5048
19982SOL    HW169876   3.499  10.473   2.972 -0.1730 -1.0078 -0.5531
19982SOL    HW269877   3.355  10.514   2.994  0.4702  1.4544 -0.6388
19983SOL     OW69878   6.581  12.973   4.273  0.6302 -0.1046 -0.4358
19983SOL    HW169879   6.614  13.029   4.203  2.0026  0.4182  0.5677
19983SOL    HW269880   6.592  12.884   4.239  2.6650  0.0675 -0.3956
19984SOL     OW69881   8.614  11.469   8.172  0.5396 -0.1205 -0.3230
19984SOL    HW169882   8.615  11.555   8.130  0.0605  0.2579  0.4011
19984SOL    HW269883   8.622  11.488   8.266  0.5044 -0.8705 -0.1591
19985SOL     OW69884   8.730   9.915   3.541  0.3054  0.0840 -0.0802
19985SOL    HW169885   8.726   9.989   3.602 -0.1371  2.2214 -2.5205
19985SOL    HW269886   8.823   9.889   3.542  0.4786  0.6798  0.7869
19986SOL     OW69887  10.814  10.023  12.314 -0.3999  0.0326  0.1022
19986SOL    HW169888  10.741   9.971  12.347 -0.6456  0.6151  0.4895
19986SOL    HW269889  10.882  10.015  12.381  0.2925 -1.2996 -0.6944
19987SOL     OW69890   6.562   0.650  12.830 -0.0663  0.2830  0.1377
19987SOL    HW169891   6.473   0.621  12.807 -0.2643 -0.4904  1.7443
19987SOL    HW269892   6.614   0.630  12.753 -1.0709 -0.3191 -0.4117
19988SOL     OW69893  12.109  12.205  12.678  1.0428  0.1868  0.6735
19988SOL    HW169894  12.088  12.192  12.585  0.6112  0.2447  0.7593
19988SOL    HW269895  12.057  12.139  12.724  1.9225 -0.4110  0.8176
19989SOL     OW69896   8.128   2.725   4.372  0.6256 -0.6173 -0.3994
19989SOL    HW169897   8.133   2.797   4.435  0.5257 -0.7159 -0.2783
19989SOL    HW269898   8.220   2.709   4.348  0.7027 -0.8466  0.0307
19990SOL     OW69899   1.294  12.346  12.787  0.5413  0.7085  0.0006
19990SOL    HW169900   1.225  12.407  12.760  1.8912  1.4326 -2.0290
19990SOL    HW269901   1.249  12.281  12.842 -1.3947  2.1212  0.1770
19991SOL     OW69902   9.155  10.024   7.377 -0.6363  0.3520 -0.5780
19991SOL    HW169903   9.247  10.013   7.402 -0.8293 -0.1690 -0.0948
19991SOL    HW269904   9.157  10.026   7.281 -0.1243  0.3370 -0.5719
19992SOL     OW69905   1.337   6.528   7.400  0.2850 -0.0436  0.0536
19992SOL    HW169906   1.360   6.618   7.422 -2.9173  1.1800 -0.9809
19992SOL    HW269907   1.335   6.526   7.304 -2.1330 -0.3959  0.0432
19993SOL     OW69908   2.820  12.763   7.665  0.2677 -0.3389 -0.1198
19993SOL    HW169909   2.875  12.815   7.724  0.6988 -0.3872 -0.4725
19993SOL    HW269910   2.869  12.761   7.583 -1.2961  1.5291 -1.1859
19994SOL     OW69911   8.354   7.837  12.662  0.1235 -0.5458  0.3518
19994SOL    HW169912   8.302   7.903  12.707 -1.0510 -0.0018 -1.6741
19994SOL    HW269913   8.420   7.887  12.615  0.7197 -1.0251  0.6665
19995SOL     OW69914   2.162   4.053  12.378 -0.0025  0.3467  0.6638
19995SOL    HW169915   2.210   4.133  12.358 -0.1921  0.0623 -1.0390
19995SOL    HW269916   2.144   4.059  12.472  0.2464  2.1518  0.6251
19996SOL     OW69917   7.194   7.780   9.988 -0.1383 -0.3603 -0.0605
19996SOL    HW169918   7.234   7.767  10.074  1.2925  0.7715 -0.5265
19996SOL    HW269919   7.162   7.693   9.963 -0.6959 -0.6912  1.6456
19997SOL     OW69920  12.891   4.252   1.007 -0.1280 -0.8044  0.2122
19997SOL    HW169921  12.818   4.293   1.053  1.9518  1.4310  1.8068
19997SOL    HW269922  12.954   4.230   1.076  2.0194  0.3025 -1.2469
19998SOL     OW69923   2.229   0.699   8.811  0.1747  0.2789 -0.1210
19998SOL    HW169924   2.186   0.720   8.894  0.5462  1.2975 -0.1653
19998SOL    HW269925   2.182   0.622   8.778 -1.1047  0.8904  0.2060
19999SOL     OW69926  10.932   9.172  12.283  0.4317  0.2089 -0.2589
19999SOL    HW169927  10.886   9.208  12.360  0.4898 -0.3693  0.0469
19999SOL    HW269928  10.866   9.119  12.239 -0.0800  1.7740 -1.4990
20000SOL     OW69929   0.462  11.898  12.806 -0.1471 -0.2111 -0.3487
20000SOL    HW169930   0.519  11.845  12.862 -1.8074  0.8102  2.4683
20000SOL    HW269931   0.523  11.950  12.753  1.5878  0.2618  1.9493
20001SOL     OW69932   6.229   1.863  12.635 -0.0908  0.1560 -0.2948
20001SOL    HW169933   6.297   1.848  12.701 -1.1602 -0.4573  0.7128
20001SOL    HW269934   6.187   1.778  12.625 -2.2850  1.0159  0.9242
20002SOL     OW69935   2.220   6.789  10.149  0.0412 -0.2945 -0.3560
20002SOL    HW169936   2.254   6.700  10.155  0.7751 -0.0109 -0.1502
20002SOL    HW269937   2.196   6.813  10.238 -2.8508 -1.2787 -0.7890
20003SOL     OW69938   2.966   2.716  10.348 -0.2505 -0.6721  0.4798
20003SOL    HW169939   3.028   2.647  10.371 -0.5652 -0.8161  0.9027
20003SOL    HW269940   2.946   2.759  10.431  2.6708  2.2949 -0.1549
20004SOL     OW69941   3.621   9.189   4.349 -0.3227  0.0472  0.8689
20004SOL    HW169942   3.613   9.105   4.303  1.3641  0.5831 -0.4874
20004SOL    HW269943   3.710   9.189   4.384 -0.1613  1.4299  0.5063
20005SOL     OW69944   6.002   7.004  12.255  0.9322 -0.9864 -0.2924
20005SOL    HW169945   5.946   7.015  12.332 -1.3879 -1.0434 -1.8801
20005SOL    HW269946   6.036   6.915  12.263  1.0800 -0.8470  0.8662
20006SOL     OW69947   1.657  11.571   7.194 -0.3161  0.6218 -0.0664
20006SOL    HW169948   1.611  11.568   7.278 -1.4681  0.9736 -0.6687
20006SOL    HW269949   1.725  11.504   7.202 -0.9014  0.1151  0.8695
20007SOL     OW69950  11.857   4.506  12.859 -0.0190  0.4118 -0.0914
20007SOL    HW169951  11.830   4.589  12.898 -0.5595  0.1836  0.0384
20007SOL    HW269952  11.781   4.478  12.808 -0.5449 -0.9019  1.3448
20008SOL     OW69953   7.277   7.590   8.682 -0.3366 -0.3264 -0.1998
20008SOL    HW169954   7.187   7.591   8.650 -1.0288  1.4755  1.6133
20008SOL    HW269955   7.280   7.515   8.742 -0.6049 -0.4330 -0.3169
20009SOL     OW69956   6.507   5.925  11.907 -0.2220 -0.2739 -1.0378
20009SOL    HW169957   6.539   6.013  11.926 -0.2670 -0.3906 -0.4278
20009SOL    HW269958   6.543   5.906  11.820 -1.7921  1.1089 -2.0736
20010SOL     OW69959   8.861   8.000   6.906 -0.1306  0.1470 -0.0488
20010SOL    HW169960   8.862   7.935   6.976  0.2760 -0.0072 -0.1991
20010SOL    HW269961   8.786   7.976   6.852  1.6018 -1.9040 -1.7055
20011SOL     OW69962   4.189  10.964   8.634  0.3889  0.1220 -0.0246
20011SOL    HW169963   4.187  11.027   8.707  0.5833 -2.0597  2.0060
20011SOL    HW269964   4.105  10.976   8.590  0.6602  2.1533 -0.0911
20012SOL     OW69965   4.686   6.813   0.496 -0.0597  0.6505 -0.4234
20012SOL    HW169966   4.725   6.886   0.447  0.7849 -0.0643 -0.8316
20012SOL    HW269967   4.671   6.746   0.430 -1.5913  0.7382 -0.1944
20013SOL     OW69968   7.502   9.768  13.310 -0.6706  0.5238 -0.2594
20013SOL    HW169969   7.594   9.790  13.325 -0.8281  1.3812 -0.4987
20013SOL    HW269970   7.482   9.806  13.224 -1.0045 -0.4602 -0.6423
20014SOL     OW69971  11.592   5.478   6.852 -0.2856 -0.2625 -0.4352
20014SOL    HW169972  11.655   5.539   6.893 -0.7699  0.2787 -0.4844
20014SOL    HW269973  11.642   5.436   6.782  0.7914 -1.7726  1.1624
20015SOL     OW69974   5.259   4.457   4.301  0.0588  0.8826 -0.5967
20015SOL    HW169975   5.301   4.420   4.224 -0.7992 -0.5336 -0.4185
20015SOL    HW269976   5.296   4.408   4.375 -1.7412 -0.3271 -0.4278
20016SOL     OW69977   6.980   5.797   0.097 -0.2700  0.3881  0.5165
20016SOL    HW169978   6.936   5.745   0.165 -2.0158 -0.0119 -0.8635
20016SOL    HW269979   7.048   5.738   0.064  1.4564  1.0286  2.6973
20017SOL     OW69980   2.162  12.867   4.951  0.0855 -0.6625  0.5795
20017SOL    HW169981   2.127  12.907   4.871  0.5216  0.6594  1.0333
20017SOL    HW269982   2.237  12.816   4.921  0.4204  0.0517  0.1621
20018SOL     OW69983   2.387  10.656   6.664  0.3293 -0.2505 -0.7908
20018SOL    HW169984   2.298  10.672   6.696  0.3300 -1.3399 -0.2169
20018SOL    HW269985   2.421  10.744   6.643 -0.3465  0.3235  0.4165
20019SOL     OW69986   6.912   8.321  10.689 -0.1694  0.1982  0.1582
20019SOL    HW169987   6.857   8.278  10.755  0.4476  0.5223  0.9049
20019SOL    HW269988   6.857   8.324  10.611 -1.1309  0.2886  0.8098
20020SOL     OW69989   3.644  10.296   2.222 -0.4447  0.0483  0.0060
20020SOL    HW169990   3.602  10.211   2.209 -1.4077  0.1685  1.9941
20020SOL    HW269991   3.726  10.276   2.267 -0.4381  0.1291  0.0310
20021SOL     OW69992  10.293  12.710   4.592 -0.7285  0.3352  0.0080
20021SOL    HW169993  10.324  12.743   4.508 -1.3314  2.2817  0.4906
20021SOL    HW269994  10.362  12.734   4.654 -1.2363  0.8236  0.3923
20022SOL     OW69995  11.011   0.420   2.857  0.2065 -0.5162  0.0969
20022SOL    HW169996  11.093   0.397   2.900  0.5249 -0.4634 -0.4753
20022SOL    HW269997  11.013   0.515   2.851  1.7016 -0.6133 -2.9288
20023SOL     OW69998   8.456  11.287   7.683  0.6139  0.3832  0.5027
20023SOL    HW169999   8.491  11.374   7.663 -0.4628  1.0627  1.4563
20023SOL    HW270000   8.366  11.303   7.713 -0.0629 -1.1806 -0.5407
20024SOL     OW70001  13.299   1.617  11.087  0.5954  0.1631  0.8154
20024SOL    HW170002  13.374   1.637  11.143 -0.6605  1.6225  2.0460
20024SOL    HW270003  13.247   1.555  11.138  1.4374 -1.7371 -0.4948
20025SOL     OW70004   2.237   3.873   7.043  0.5621 -0.1019 -0.2234
20025SOL    HW170005   2.329   3.890   7.022  0.4790  0.3160 -0.2449
20025SOL    HW270006   2.222   3.783   7.013  0.8482 -0.0237 -0.6020
20026SOL     OW70007  10.511  10.986  12.604  0.1660 -0.6774  0.3831
20026SOL    HW170008  10.466  10.998  12.520  1.3027  0.2436 -0.1354
20026SOL    HW270009  10.464  11.043  12.665 -0.7237 -1.4224  0.4146
20027SOL     OW70010   9.097  10.391   3.327  0.0726  1.1822  0.2452
20027SOL    HW170011   9.104  10.298   3.348 -0.0169  0.8691 -1.0263
20027SOL    HW270012   9.124  10.397   3.235  1.2029  2.5876  0.6304
20028SOL     OW70013   7.754   0.476   4.102 -0.0044  0.1105  0.6530
20028SOL    HW170014   7.684   0.428   4.146 -0.4917  1.1204  0.9834
20028SOL    HW270015   7.814   0.502   4.172  1.4878 -1.9348  0.2462
20029SOL     OW70016   2.160  12.627   4.710 -0.1462 -0.2152  0.6270
20029SOL    HW170017   2.067  12.636   4.689 -0.0631 -1.1687 -0.2431
20029SOL    HW270018   2.201  12.705   4.674 -0.2680 -0.9872 -1.2853
20030SOL     OW70019  11.398   4.976   0.865 -0.0144 -0.4219 -0.4195
20030SOL    HW170020  11.330   4.965   0.798 -1.0565 -0.4067  0.5994
20030SOL    HW270021  11.442   5.058   0.841 -1.6749  0.6526 -0.0269
20031SOL     OW70022  12.196  11.282  12.232 -0.0884  0.7377 -0.4508
20031SOL    HW170023  12.188  11.375  12.210  1.9450  1.5239  1.6252
20031SOL    HW270024  12.288  11.271  12.255 -0.1417 -1.9838 -1.2607
20032SOL     OW70025  11.930   2.927  13.157 -0.3659 -0.1830  0.2191
20032SOL    HW170026  12.003   2.911  13.097  0.2259 -0.5549  1.0191
20032SOL    HW270027  11.914   3.021  13.151 -1.1912 -0.3879 -1.4861
20033SOL     OW70028   7.077  11.429  12.830  0.2605 -0.9370 -0.0604
20033SOL    HW170029   7.151  11.444  12.889  0.0634 -0.7768  0.1452
20033SOL    HW270030   7.101  11.475  12.750 -0.3154  0.4677  0.5378
20034SOL     OW70031   4.389   4.939   6.620 -0.0719  0.4166 -0.2169
20034SOL    HW170032   4.301   4.976   6.607  0.3937  2.6371  2.1042
20034SOL    HW270033   4.397   4.930   6.715  1.6053 -1.4800 -0.4753
20035SOL     OW70034   4.445   4.963   3.570  0.0117  0.9523  0.4077
20035SOL    HW170035   4.530   4.965   3.615  0.9330  1.0677 -1.2465
20035SOL    HW270036   4.437   4.873   3.538 -0.2948  1.0516  0.1998
20036SOL     OW70037   2.617   5.738  11.409 -0.2041  0.2834 -0.2571
20036SOL    HW170038   2.644   5.822  11.447 -1.7395  0.3218  0.8418
20036SOL    HW270039   2.697   5.703  11.370 -0.0189  3.6080 -3.4377
20037SOL     OW70040  12.593  12.395   8.961  0.1685 -0.3094  0.5641
20037SOL    HW170041  12.510  12.438   8.939  0.1085 -1.6336 -2.2838
20037SOL    HW270042  12.569  12.330   9.028 -0.8782  0.0468  0.5546
20038SOL     OW70043   6.252  11.134   6.534 -0.8785 -0.5299 -0.1426
20038SOL    HW170044   6.159  11.112   6.530 -0.9390 -0.2157 -0.6219
20038SOL    HW270045   6.259  11.216   6.484 -0.3216 -0.6365 -0.2406
20039SOL     OW70046   4.075   4.116  11.021 -0.2848  0.7443  0.4962
20039SOL    HW170047   4.088   4.168  11.100  0.3678 -2.1270  2.4354
20039SOL    HW270048   3.982   4.093  11.022  0.0138 -0.5538  1.3637
20040SOL     OW70049  10.842  12.940   5.054 -0.1257  0.0306  0.2327
20040SOL    HW170050  10.837  13.034   5.070 -1.2317 -0.4246  3.3828
20040SOL    HW270051  10.931  12.916   5.079  0.4849  0.3190 -1.5376
20041SOL     OW70052   4.429   0.861   6.868 -0.0355  0.3238  0.2936
20041SOL    HW170053   4.380   0.940   6.890  0.5383  1.4037 -2.0163
20041SOL    HW270054   4.466   0.832   6.952 -3.4729  0.1479  1.9427
20042SOL     OW70055  12.672   8.318   0.510 -0.1228  0.2713  0.0766
20042SOL    HW170056  12.699   8.381   0.443  1.6655 -1.3830 -0.8562
20042SOL    HW270057  12.582   8.344   0.532  0.7068  3.4441  0.1775
20043SOL     OW70058  10.154  12.897   4.880 -0.4296 -0.6482  0.1369
20043SOL    HW170059  10.248  12.910   4.868 -0.5121  0.1103  0.2458
20043SOL    HW270060  10.119  12.891   4.792  0.0575 -3.8696  0.0228
20044SOL     OW70061  12.373   3.604  12.269  0.3620  0.4028  0.2644
20044SOL    HW170062  12.301   3.662  12.294  0.9059  0.2447  2.4261
20044SOL    HW270063  12.370   3.533  12.334  1.1584 -0.7422 -0.9093
20045SOL     OW70064   4.894   2.753   8.166 -0.7651 -0.4301  0.1805
20045SOL    HW170065   4.937   2.814   8.225  2.6378 -1.1487 -1.3101
20045SOL    HW270066   4.850   2.690   8.224 -1.7834  1.5990  1.7532
20046SOL     OW70067   9.532  11.660   8.352 -0.1562  0.2228  0.2998
20046SOL    HW170068   9.540  11.564   8.347  0.1652  0.2606  0.0709
20046SOL    HW270069   9.449  11.679   8.308  1.3922  0.3329 -2.8358
20047SOL     OW70070  11.254   4.830   9.916  0.0723  0.3044  0.4485
20047SOL    HW170071  11.255   4.741   9.882 -0.4746  0.0973  0.9721
20047SOL    HW270072  11.344   4.862   9.902  0.2808 -0.3386  0.2978
20048SOL     OW70073   1.882   9.018   6.862  0.6430 -0.2644  0.4098
20048SOL    HW170074   1.973   9.049   6.858  0.2879  0.6475 -1.3236
20048SOL    HW270075   1.873   8.985   6.952  1.6240  2.9894  1.8756
20049SOL     OW70076   9.938   5.444   2.912  0.1849  0.2832 -0.3616
20049SOL    HW170077   9.954   5.530   2.951  0.2214 -0.6726  1.8343
20049SOL    HW270078  10.025   5.404   2.905 -0.1004 -0.8070  1.7015
20050SOL     OW70079   4.051   8.732   2.554  0.3577  0.3846 -0.0782
20050SOL    HW170080   4.116   8.730   2.624  0.7525 -0.2044 -0.4427
20050SOL    HW270081   3.978   8.681   2.587  1.7539 -2.5905 -1.1849
20051SOL     OW70082  12.857   3.258   5.902 -0.3623  0.3330  0.5487
20051SOL    HW170083  12.932   3.243   5.959  1.0249 -0.5098 -1.3919
20051SOL    HW270084  12.801   3.181   5.914  0.3536 -0.2568  0.1361
20052SOL     OW70085   3.913   8.255  10.278 -0.7409 -0.6925 -0.3274
20052SOL    HW170086   3.884   8.308  10.203 -1.2382  0.7413  0.8354
20052SOL    HW270087   3.836   8.248  10.334  0.2776  0.5261  1.3231
20053SOL     OW70088   4.186  12.820   3.722  0.3921 -0.8574  0.1063
20053SOL    HW170089   4.201  12.847   3.812  0.2702 -2.9587  0.8157
20053SOL    HW270090   4.252  12.868   3.671 -0.1081  1.0247  1.1486
20054SOL     OW70091   5.183   3.618   3.622  0.6299  0.1021  0.0356
20054SOL    HW170092   5.113   3.558   3.648  1.7974 -2.4233 -2.1100
20054SOL    HW270093   5.258   3.594   3.677  1.4704 -1.4150 -1.6646
20055SOL     OW70094   2.387   1.533   0.910 -0.9108  0.4432  0.0098
20055SOL    HW170095   2.399   1.447   0.949 -2.2768  0.8401  1.3977
20055SOL    HW270096   2.394   1.518   0.816  1.4191 -0.7277  0.2846
20056SOL     OW70097   7.070   3.518   2.885  0.4441  0.1701 -0.2574
20056SOL    HW170098   7.143   3.524   2.946  0.0567 -0.0029  0.2335
20056SOL    HW270099   7.101   3.562   2.806  1.2279 -0.2686 -0.2040
20057SOL     OW70100   7.630   8.738   8.399  0.5044  0.0443  0.1825
20057SOL    HW170101   7.605   8.830   8.408  0.7496  0.1921 -0.5967
20057SOL    HW270102   7.576   8.692   8.463  1.0752  0.8438  1.2563
20058SOL     OW70103  10.603   9.706   9.480  0.5182 -0.8028 -0.0094
20058SOL    HW170104  10.600   9.773   9.412  0.8759 -0.0989  0.6464
20058SOL    HW270105  10.514   9.671   9.484 -0.0738  0.6933  0.6468
20059SOL     OW70106  10.309   5.451   3.007 -0.7068  0.5688 -0.1031
20059SOL    HW170107  10.292   5.377   2.950 -0.5870 -0.1285  0.7351
20059SOL    HW270108  10.348   5.517   2.950 -0.2172 -0.2555 -0.7453
20060SOL     OW70109   2.551  12.965   9.300 -0.0497 -0.1273  0.1138
20060SOL    HW170110   2.635  12.921   9.288 -0.2719 -0.6469  0.3954
20060SOL    HW270111   2.488  12.894   9.312 -0.6171  0.2421 -0.5887
20061SOL     OW70112   4.391   5.763  13.194  0.5802 -0.0122  0.5225
20061SOL    HW170113   4.367   5.784  13.284  0.1097 -0.2281  0.4502
20061SOL    HW270114   4.350   5.832  13.142  0.6731 -0.0049  0.4596
20062SOL     OW70115   0.329   6.272   4.684 -0.8520  0.5260 -0.1946
20062SOL    HW170116   0.318   6.268   4.589 -0.1302  0.4487 -0.2783
20062SOL    HW270117   0.240   6.283   4.718 -1.1996 -0.2101 -0.8376
20063SOL     OW70118   7.047   5.777   4.676 -0.0816  0.4389  0.4692
20063SOL    HW170119   6.992   5.748   4.749 -0.5547  2.2187  0.8686
20063SOL    HW270120   7.125   5.815   4.717 -0.2415  1.2399  0.0551
20064SOL     OW70121   3.383   8.131   7.174 -0.4905 -0.2360  0.1104
20064SOL    HW170122   3.312   8.074   7.143 -0.7182 -0.5212  1.0872
20064SOL    HW270123   3.352   8.162   7.260  0.5437 -0.3345  0.5351
20065SOL     OW70124   3.548   9.230  12.961 -0.1488 -0.0312  0.4357
20065SOL    HW170125   3.584   9.157  12.911 -0.7773 -1.3448  1.8442
20065SOL    HW270126   3.501   9.283  12.897 -1.8701 -2.2583 -0.2347
20066SOL     OW70127  12.603   8.231  12.379 -0.2804 -0.0585 -0.0142
20066SOL    HW170128  12.627   8.208  12.289  0.3651 -0.5705  0.2796
20066SOL    HW270129  12.516   8.192  12.391 -0.1027 -0.5283 -0.2169
20067SOL     OW70130   3.286   0.556   7.345 -0.6090 -0.2651 -0.4194
20067SOL    HW170131   3.280   0.464   7.370 -1.8908 -0.2054 -0.4433
20067SOL    HW270132   3.328   0.554   7.259 -0.5454 -0.8270 -0.3806
20068SOL     OW70133  11.422   6.615   9.400 -0.1128  0.0586  0.3749
20068SOL    HW170134  11.462   6.577   9.478  0.1185  1.5834  1.0347
20068SOL    HW270135  11.385   6.540   9.353  2.5216 -1.3092  0.2870
20069SOL     OW70136   2.038   3.908   0.346  0.1811 -0.1858 -0.2864
20069SOL    HW170137   2.063   3.956   0.425  2.1200  0.3590 -1.1546
20069SOL    HW270138   2.121   3.873   0.312 -0.6003 -0.4482 -2.0482
20070SOL     OW70139   0.979   2.108  13.017  0.5809 -0.2528  0.5431
20070SOL    HW170140   0.958   2.114  12.924  2.8015 -0.7835 -0.0447
20070SOL    HW270141   0.940   2.186  13.056  1.0110  0.8269 -1.1133
20071SOL     OW70142   5.739   1.529   6.097  0.3550  0.0345 -0.0297
20071SOL    HW170143   5.720   1.618   6.124  0.7813 -0.1600  0.9388
20071SOL    HW270144   5.734   1.531   6.001  1.4342  1.3442 -0.0860
20072SOL     OW70145   7.113  12.321   9.823 -0.2496  0.5377  0.2022
20072SOL    HW170146   7.199  12.298   9.788  2.1790  0.8826  5.0674
20072SOL    HW270147   7.069  12.237   9.836  0.4945  0.1335  0.1414
20073SOL     OW70148   6.739  13.110   7.615 -0.6953 -0.2868  0.5513
20073SOL    HW170149   6.733  13.185   7.557 -1.0009 -0.4754  0.3337
20073SOL    HW270150   6.650  13.099   7.649 -1.2062 -1.8750 -1.1128
20074SOL     OW70151   1.443   7.223  10.270  0.4423 -0.5968  0.2138
20074SOL    HW170152   1.525   7.272  10.269 -0.5607  1.1567  0.7747
20074SOL    HW270153   1.446   7.173  10.351  0.7870 -0.2398  0.4242
20075SOL     OW70154  12.573   6.355   5.816  0.1386 -0.2817 -0.1033
20075SOL    HW170155  12.629   6.430   5.839 -0.4136  0.2281 -0.3792
20075SOL    HW270156  12.534   6.380   5.732 -0.6058 -0.5631  0.1492
20076SOL     OW70157   4.276   2.501  10.609  0.3444  0.1132  0.0779
20076SOL    HW170158   4.308   2.471  10.694  0.3209  0.6461  0.2764
20076SOL    HW270159   4.328   2.579  10.589  0.0722  0.2247 -0.2073
20077SOL     OW70160  13.228   1.646   1.826  0.4406 -0.2244  0.4951
20077SOL    HW170161  13.322   1.631   1.817  0.5460  1.2864 -1.8383
20077SOL    HW270162  13.193   1.637   1.738 -1.6772 -0.8790  1.3250
20078SOL     OW70163   3.016   6.126  10.110 -0.2870 -0.0116  0.1137
20078SOL    HW170164   3.074   6.055  10.136 -0.6908 -0.0767  0.8578
20078SOL    HW270165   3.058   6.166  10.034 -0.8357 -2.0766 -1.3539
20079SOL     OW70166   3.724  12.553   8.534 -0.3138  0.2326  0.1639
20079SOL    HW170167   3.721  12.491   8.607  0.1471 -1.4928 -1.2056
20079SOL    HW270168   3.646  12.607   8.545 -0.6750 -0.5036  1.4867
20080SOL     OW70169   2.491   4.683  11.074  0.6990  0.3630 -0.4178
20080SOL    HW170170   2.500   4.778  11.082  1.1775  0.4273 -1.4990
20080SOL    HW270171   2.421   4.671  11.010  0.7233  0.0008 -0.3753
20081SOL     OW70172   0.043   7.856   2.310  0.1078  0.7998 -0.3937
20081SOL    HW170173   0.049   7.943   2.348  1.9350  0.4479  0.2648
20081SOL    HW270174  -0.030   7.861   2.249 -0.9624  2.2585  0.9355
20082SOL     OW70175   6.904   8.978   8.987  0.4887  0.0412  0.4900
20082SOL    HW170176   6.862   8.895   8.965  0.8050  0.2466 -0.9678
20082SOL    HW270177   6.992   8.970   8.952  0.2478  1.3155 -0.4819
20083SOL     OW70178   8.462   8.891   1.036 -0.0619 -0.7243  0.4203
20083SOL    HW170179   8.528   8.960   1.035 -0.3027 -0.4089  2.4313
20083SOL    HW270180   8.478   8.844   1.118  0.1544 -3.1337 -0.9186
20084SOL     OW70181  13.188   9.661   9.394 -0.0758  0.3988  0.1561
20084SOL    HW170182  13.093   9.649   9.384  0.2466 -0.5834 -2.2068
20084SOL    HW270183  13.196   9.745   9.440 -2.0890  0.3442  0.7007
20085SOL     OW70184   6.108   1.689   2.953  0.0610 -1.0136  0.5152
20085SOL    HW170185   6.121   1.783   2.965 -1.8911 -0.6936  0.3996
20085SOL    HW270186   6.163   1.649   3.021 -0.2866  0.2715  1.5982
20086SOL     OW70187   1.295   2.747   0.549 -0.5557 -0.5253  0.0043
20086SOL    HW170188   1.291   2.842   0.537  0.9036 -0.7381 -3.2802
20086SOL    HW270189   1.232   2.713   0.485 -0.5112 -1.8004  0.6216
20087SOL     OW70190  10.352   9.381  10.872  0.3116  0.2487 -0.1439
20087SOL    HW170191  10.394   9.304  10.833 -2.3544 -0.8005 -1.1783
20087SOL    HW270192  10.338   9.357  10.963 -1.0972 -0.8422 -0.6082
20088SOL     OW70193  12.023   2.470   7.752  0.0502 -0.3927 -0.4692
20088SOL    HW170194  12.005   2.377   7.746 -1.9659 -0.0618 -0.2204
20088SOL    HW270195  12.031   2.499   7.661 -1.5159 -0.4395 -0.6377
20089SOL     OW70196   1.372   8.992  11.793 -0.1446 -0.1129 -0.1095
20089SOL    HW170197   1.332   8.908  11.772 -1.1639  0.3165  0.0597
20089SOL    HW270198   1.358   9.003  11.887  0.4336  0.0138 -0.0339
20090SOL     OW70199   7.121  12.378   5.324  0.1903 -0.1585 -0.2743
20090SOL    HW170200   7.177  12.347   5.253  1.0329 -0.0103  0.3150
20090SOL    HW270201   7.067  12.446   5.283  0.1977 -0.5271 -0.9238
20091SOL     OW70202   4.218   9.493  11.119  0.0439  0.5914  0.0899
20091SOL    HW170203   4.257   9.431  11.058  0.3822 -0.2861  1.1596
20091SOL    HW270204   4.145   9.445  11.159 -0.4385  1.2960  0.0781
20092SOL     OW70205   2.411   0.101   1.843 -0.0651 -0.2791  0.0435
20092SOL    HW170206   2.389   0.192   1.859 -2.8954 -0.8141 -0.3981
20092SOL    HW270207   2.406   0.090   1.748  0.0551 -0.9553  0.1071
20093SOL     OW70208   2.965   4.501  12.592 -0.7169  0.5161  0.1413
20093SOL    HW170209   2.937   4.583  12.551 -0.2778 -0.2371 -1.7855
20093SOL    HW270210   2.956   4.436  12.523 -0.9428 -1.0642  1.5844
20094SOL     OW70211   3.570   4.165   9.094 -0.3205 -0.1510  0.5811
20094SOL    HW170212   3.528   4.103   9.034  1.3757 -0.2184 -0.6153
20094SOL    HW270213   3.549   4.251   9.059  0.3968 -0.1815  0.0546
20095SOL     OW70214  12.334   0.702   0.422 -0.5272 -0.4148 -0.1139
20095SOL    HW170215  12.272   0.773   0.441  1.5835  1.4586  0.1748
20095SOL    HW270216  12.383   0.691   0.504  0.9321 -0.3459 -0.9531
20096SOL     OW70217   0.888   8.688   7.629 -0.3656 -0.1166  0.0714
20096SOL    HW170218   0.953   8.629   7.667 -0.6350  0.9467  2.3874
20096SOL    HW270219   0.937   8.768   7.609 -0.6857  0.2278  0.6182
20097SOL     OW70220   9.545  13.116   4.925 -0.2155  0.6404 -0.1033
20097SOL    HW170221   9.499  13.105   4.842  1.0440 -0.9075 -0.6492
20097SOL    HW270222   9.578  13.206   4.922  0.1708  0.4794 -1.5017
20098SOL     OW70223  11.192   2.220  10.715  0.3505 -0.0471 -0.0569
20098SOL    HW170224  11.141   2.301  10.711  0.7737  0.1930 -0.6899
20098SOL    HW270225  11.240   2.217  10.632 -1.9539 -2.4658 -1.4528
20099SOL     OW70226   4.019   6.928  13.198 -0.5785 -0.1118 -0.0448
20099SOL    HW170227   3.979   6.847  13.227  0.6615 -0.8361 -0.3095
20099SOL    HW270228   3.955   6.966  13.137 -0.1528 -2.1322 -1.8670
20100SOL     OW70229   0.369   9.142   0.047 -0.1268 -0.3281  0.3913
20100SOL    HW170230   0.300   9.089   0.007 -0.4251  0.7382 -0.5737
20100SOL    HW270231   0.393   9.206  -0.021  0.7115  0.3162  1.2585
20101SOL     OW70232  12.824   3.226   2.800 -0.2206 -0.2045 -0.0825
20101SOL    HW170233  12.919   3.238   2.804 -0.3003  2.1725 -2.3643
20101SOL    HW270234  12.811   3.163   2.729 -0.3471 -0.0917 -0.1608
20102SOL     OW70235  10.686   1.508  10.238  0.4602  0.0597 -0.7553
20102SOL    HW170236  10.619   1.569  10.269 -0.7417 -1.8104  0.5543
20102SOL    HW270237  10.735   1.558  10.172 -2.4766  1.4188 -2.1295
20103SOL     OW70238   8.948   3.669   3.165  0.2514 -0.0333  0.0845
20103SOL    HW170239   8.972   3.601   3.101 -0.3427 -0.4923  0.3404
20103SOL    HW270240   8.922   3.620   3.243 -1.8697  0.3963 -0.2838
20104SOL     OW70241   9.317   8.556   9.970 -0.2978 -0.1716 -0.3460
20104SOL    HW170242   9.378   8.610  10.020 -1.8745  1.0015  0.4364
20104SOL    HW270243   9.346   8.466   9.984 -0.5501  0.1074  2.5800
20105SOL     OW70244   8.787   1.185   5.162 -0.2912 -0.0676 -0.0234
20105SOL    HW170245   8.785   1.248   5.234 -0.9632 -1.0171  0.8192
20105SOL    HW270246   8.695   1.159   5.150 -0.0941 -0.4827 -0.7309
20106SOL     OW70247   9.957  11.780   3.989 -0.5661  0.3041 -0.1677
20106SOL    HW170248   9.959  11.765   3.894 -0.3676  2.4840 -0.5601
20106SOL    HW270249   9.864  11.776   4.012 -0.7059  0.7774 -0.6392
20107SOL     OW70250  10.348   8.789  13.043 -0.0305  0.1746 -0.3575
20107SOL    HW170251  10.326   8.805  13.135 -1.0631 -0.5063 -0.4739
20107SOL    HW270252  10.422   8.848  13.026 -0.9360  1.6004  0.4266
20108SOL     OW70253  10.047   3.003   2.886 -0.1191  0.0131 -0.1894
20108SOL    HW170254  10.118   3.066   2.897 -0.9427  0.9518 -0.1689
20108SOL    HW270255  10.091   2.922   2.860  0.8783  0.8927 -1.3387
20109SOL     OW70256   2.062   8.878   1.685 -0.0275 -0.4571 -0.3864
20109SOL    HW170257   2.048   8.811   1.752  0.5282 -0.7475 -0.5592
20109SOL    HW270258   2.028   8.839   1.605  1.7164 -1.1853 -0.8211
20110SOL     OW70259  10.538  11.391   9.249  0.2646 -0.2616  0.5205
20110SOL    HW170260  10.609  11.447   9.282  0.9558  0.7153 -2.3128
20110SOL    HW270261  10.459  11.430   9.286  1.0472 -0.4963  2.5968
20111SOL     OW70262   2.516   4.006   9.518  0.0099  0.4588  0.1761
20111SOL    HW170263   2.424   3.985   9.533  0.2032 -0.5580  0.0198
20111SOL    HW270264   2.564   3.941   9.569  0.6357  0.2859 -0.6095
20112SOL     OW70265   0.032  13.103   6.976 -0.5437 -0.3123  0.2600
20112SOL    HW170266   0.020  13.159   6.899 -0.7654 -0.7319 -0.0158
20112SOL    HW270267   0.117  13.129   7.012 -0.1045 -0.6002 -0.5393
20113SOL     OW70268   4.401   8.587   7.715 -0.0682  0.2403 -0.1353
20113SOL    HW170269   4.433   8.498   7.731  1.0816  0.5979 -0.3167
20113SOL    HW270270   4.478   8.633   7.680 -0.9781  0.9670 -1.2455
20114SOL     OW70271   1.491   5.341   4.467  0.9274 -0.6285 -0.5160
20114SOL    HW170272   1.514   5.382   4.550  3.2301 -1.6490 -0.5895
20114SOL    HW270273   1.407   5.299   4.484  0.4869  0.6725  0.7353
20115SOL     OW70274  13.019  13.204   5.243  0.0658 -0.1135 -0.3628
20115SOL    HW170275  13.069  13.285   5.231 -1.2522  0.6633 -0.8332
20115SOL    HW270276  12.962  13.222   5.317 -0.0063 -0.7302 -0.2700
20116SOL     OW70277  12.755  10.963   4.360  0.0449 -0.5811  0.5236
20116SOL    HW170278  12.680  10.909   4.387 -1.0527  0.8326  0.4230
20116SOL    HW270279  12.725  11.053   4.373  1.2492  0.0381 -0.8031
20117SOL     OW70280   5.222   0.015   7.973  0.4347  0.4067 -0.2302
20117SOL    HW170281   5.244   0.045   7.885  1.1889  0.4595 -0.0301
20117SOL    HW270282   5.133  -0.020   7.965  0.8259 -0.4351 -1.2169
20118SOL     OW70283   3.850   0.668   6.961 -0.3356 -0.0322 -0.3597
20118SOL    HW170284   3.842   0.587   6.910  0.4311 -0.6508  0.4624
20118SOL    HW270285   3.928   0.711   6.925 -0.1053 -0.2058 -0.0715
20119SOL     OW70286   5.358  11.997   8.291 -0.4552  0.1516 -0.4805
20119SOL    HW170287   5.405  11.916   8.308 -1.6081 -0.1431  1.5794
20119SOL    HW270288   5.277  11.970   8.248 -0.8633  0.1710  0.2521
20120SOL     OW70289   3.542   3.621   4.155  0.1633  0.1867 -0.0201
20120SOL    HW170290   3.447   3.628   4.145  0.1905  2.2490  0.6281
20120SOL    HW270291   3.555   3.581   4.241 -0.1485  1.1231  0.4739
20121SOL     OW70292  10.417  11.993   0.653  0.0350  1.1151  0.6959
20121SOL    HW170293  10.409  11.967   0.561  0.6551  1.9504  0.3952
20121SOL    HW270294  10.494  12.050   0.655  0.3219  0.6999  1.8304
20122SOL     OW70295   3.240   0.448   8.375  0.0016  0.5033 -0.0568
20122SOL    HW170296   3.330   0.428   8.351  0.0414  0.1773  0.3422
20122SOL    HW270297   3.188   0.382   8.330  0.1578 -0.7434  1.5012
20123SOL     OW70298  10.803  11.152   7.230 -0.3386 -0.3834 -0.1812
20123SOL    HW170299  10.845  11.067   7.244  1.3775  0.6471  1.1706
20123SOL    HW270300  10.786  11.185   7.318 -0.9505  0.7137 -0.6982
20124SOL     OW70301  10.492   5.360   6.732  0.0542  0.3351  0.4025
20124SOL    HW170302  10.532   5.347   6.646  1.2722  0.7852  0.8760
20124SOL    HW270303  10.487   5.273   6.770 -2.7185 -0.2411 -1.0109
20125SOL     OW70304   8.211   4.547   0.588 -0.3872  0.0512  0.1322
20125SOL    HW170305   8.239   4.615   0.527 -0.4342 -0.6700 -0.7257
20125SOL    HW270306   8.121   4.527   0.562  0.0177 -1.1729 -0.4457
20126SOL     OW70307   6.974   3.323  13.166  0.0281  0.1928 -0.2269
20126SOL    HW170308   6.930   3.397  13.207 -0.5788  0.9048 -2.0826
20126SOL    HW270309   6.904   3.267  13.134  0.4173  0.5721 -1.8540
20127SOL     OW70310   4.539   1.142  11.997 -0.1378 -0.8525  0.3337
20127SOL    HW170311   4.485   1.202  11.946 -2.2323 -1.9226  1.1342
20127SOL    HW270312   4.629   1.164  11.974 -0.8513  1.7131 -0.3213
20128SOL     OW70313  10.514   1.704   4.266 -0.5524 -0.2406 -0.5992
20128SOL    HW170314  10.609   1.707   4.263 -0.3302 -0.7626  2.4475
20128SOL    HW270315  10.486   1.785   4.223  1.4161  1.3207  0.8536
20129SOL     OW70316   4.755   4.722  12.185 -0.3778 -0.4325  0.0623
20129SOL    HW170317   4.806   4.668  12.246  0.4402 -0.8079 -0.9214
20129SOL    HW270318   4.675   4.672  12.170 -0.2997 -0.6434  0.3410
20130SOL     OW70319   8.940   2.223  10.599  0.2321 -0.0286  0.4831
20130SOL    HW170320   8.886   2.162  10.549  1.2145 -0.8287  0.3806
20130SOL    HW270321   9.027   2.218  10.558 -0.0115  2.6481 -0.6193
20131SOL     OW70322   7.072   1.897   1.151  0.0168  0.1553 -0.6888
20131SOL    HW170323   7.118   1.855   1.078  1.5151 -0.5185  0.5807
20131SOL    HW270324   7.053   1.825   1.212  1.2424  1.0146  0.8044
20132SOL     OW70325  11.048   9.645   4.169  0.1505  0.1972  0.4071
20132SOL    HW170326  11.094   9.607   4.094 -1.5384 -0.6972 -0.2208
20132SOL    HW270327  11.104   9.718   4.197  1.7452 -0.6135 -0.5231
20133SOL     OW70328   5.621   3.851   1.751 -0.0340 -0.4630  0.3658
20133SOL    HW170329   5.679   3.791   1.799 -0.6635  0.5110  2.4980
20133SOL    HW270330   5.661   3.937   1.764 -0.4556 -0.1288 -0.5442
20134SOL     OW70331  10.330   3.560  13.188 -0.6851 -0.0361 -0.0153
20134SOL    HW170332  10.336   3.631  13.124  1.6973 -0.5131 -0.4135
20134SOL    HW270333  10.304   3.483  13.138  0.2976 -0.2139 -0.2626
20135SOL     OW70334   3.111   7.365  12.361 -0.3772  0.2446 -0.0708
20135SOL    HW170335   3.204   7.389  12.369  0.0043 -1.6139  2.0319
20135SOL    HW270336   3.072   7.392  12.443 -1.1572 -1.1106  0.0364
20136SOL     OW70337   1.394   2.815   8.168  0.2992 -0.4846  0.0652
20136SOL    HW170338   1.394   2.757   8.244  0.8055 -0.4381  0.1047
20136SOL    HW270339   1.424   2.760   8.096  0.5485 -0.3355  0.0544
20137SOL     OW70340   2.655   6.708   1.678  0.6765 -0.0279 -0.0395
20137SOL    HW170341   2.709   6.633   1.654  1.5906  0.4568  0.4540
20137SOL    HW270342   2.697   6.783   1.635 -0.6854  0.1175 -1.2061
20138SOL     OW70343   1.626  11.791   2.007 -0.0915 -0.6700 -0.0732
20138SOL    HW170344   1.667  11.727   1.949 -0.7436 -0.0442 -1.2445
20138SOL    HW270345   1.536  11.760   2.018  0.4198 -1.6708  1.9536
20139SOL     OW70346   9.884   1.078   1.521 -0.2570  0.0270 -0.8046
20139SOL    HW170347   9.902   1.138   1.449 -0.3318  1.2184  0.1515
20139SOL    HW270348   9.797   1.103   1.552  0.1887  0.2123  0.3495
20140SOL     OW70349   7.982   2.278  10.317  0.0285 -0.3739 -0.5579
20140SOL    HW170350   7.985   2.341  10.245  1.6970 -1.3734 -1.4441
20140SOL    HW270351   8.007   2.194  10.276 -1.9402 -1.6073  0.6029
20141SOL     OW70352   7.526   6.345   3.949  0.0576  0.1836 -0.1914
20141SOL    HW170353   7.534   6.341   3.854 -0.6929 -1.2191 -0.2153
20141SOL    HW270354   7.486   6.262   3.974  0.3638  0.4672  1.3717
20142SOL     OW70355   7.037   7.695   6.457 -0.1414  0.1193  0.0741
20142SOL    HW170356   6.989   7.629   6.407 -0.0903  0.2540 -0.1543
20142SOL    HW270357   6.974   7.765   6.472  0.0233  0.3636 -0.3570
20143SOL     OW70358  10.761   6.116   4.617  0.5571  0.1542 -0.1875
20143SOL    HW170359  10.789   6.172   4.689 -1.2291  0.1169  0.5952
20143SOL    HW270360  10.740   6.177   4.546  0.4585  0.3444  0.0023
20144SOL     OW70361  11.509   9.438   6.021  0.3453 -0.1626 -0.2000
20144SOL    HW170362  11.449   9.507   5.991  0.1133 -0.4094 -0.3169
20144SOL    HW270363  11.460   9.357   6.008  0.9080 -0.4151 -0.8118
20145SOL     OW70364   5.591   7.660   4.154 -0.1046 -0.0440  0.2651
20145SOL    HW170365   5.627   7.670   4.066  0.4378 -1.5937  0.2745
20145SOL    HW270366   5.659   7.694   4.212  0.6613 -1.3568  0.1869
20146SOL     OW70367   3.839   0.806   8.514  0.1789 -0.4959  0.3114
20146SOL    HW170368   3.812   0.896   8.496 -2.8278 -1.0741  1.2885
20146SOL    HW270369   3.790   0.754   8.451  2.7676 -1.4672 -1.0338
20147SOL     OW70370   3.392   4.867   6.007 -0.0290  0.2900 -0.0074
20147SOL    HW170371   3.375   4.883   5.914 -0.8568 -0.5940 -0.0253
20147SOL    HW270372   3.305   4.849   6.044  0.3578  0.1174  0.8324
20148SOL     OW70373   9.680   4.462   0.983  0.6084  0.0284 -0.0894
20148SOL    HW170374   9.746   4.498   0.923 -0.5995 -0.7515 -1.9429
20148SOL    HW270375   9.718   4.380   1.014  0.5595 -0.4046 -1.1300
20149SOL     OW70376   8.228   9.628  12.122  0.5067 -0.4091 -0.2011
20149SOL    HW170377   8.281   9.689  12.071  0.5791  0.4239  0.8380
20149SOL    HW270378   8.139   9.662  12.116  0.2713 -1.1368 -0.9655
20150SOL     OW70379   3.303   8.513   1.915 -0.0723  0.1746 -0.6937
20150SOL    HW170380   3.246   8.442   1.945 -0.0917  1.0749  1.6032
20150SOL    HW270381   3.246   8.590   1.913  0.6207  0.7208 -0.1156
20151SOL     OW70382   7.158   5.389  12.479 -0.0473  0.1026  0.0854
20151SOL    HW170383   7.142   5.483  12.486  0.3604  0.1688  0.1466
20151SOL    HW270384   7.099   5.350  12.544  0.2517  0.3628  0.5160
20152SOL     OW70385   8.990   3.429   7.680 -0.1267  0.0906  0.4580
20152SOL    HW170386   8.987   3.442   7.585  0.0724  0.1003  0.4512
20152SOL    HW270387   8.916   3.372   7.699  0.1981 -0.4196  0.2156
20153SOL     OW70388  12.988  11.067   3.766  0.1176  0.2815 -0.0478
20153SOL    HW170389  13.044  11.045   3.840 -1.1423 -0.6450  0.6704
20153SOL    HW270390  13.006  11.159   3.748  1.2608  0.2167  0.6653
20154SOL     OW70391   5.627   6.728   6.939 -0.2594 -0.0672  0.6620
20154SOL    HW170392   5.563   6.780   6.988 -2.4866 -2.3344  0.3626
20154SOL    HW270393   5.657   6.662   7.002 -0.7339 -1.0204 -0.0711
20155SOL     OW70394   9.203   9.172   1.717  0.0996 -0.4141 -0.0633
20155SOL    HW170395   9.225   9.079   1.703 -0.3779 -0.5654  0.1771
20155SOL    HW270396   9.112   9.180   1.687  0.5368  0.2703 -1.3067
20156SOL     OW70397  12.376   6.560  10.632 -0.2683 -0.0054  0.1150
20156SOL    HW170398  12.366   6.655  10.631 -0.4877 -0.0122 -1.9062
20156SOL    HW270399  12.428   6.542  10.711 -0.3849  1.7608  0.6256
20157SOL     OW70400   4.071   4.690   6.852  0.0358  0.7815  0.6681
20157SOL    HW170401   4.106   4.766   6.899 -1.5159  1.0319  1.4804
20157SOL    HW270402   3.999   4.725   6.799 -1.2293 -0.1904  1.6663
20158SOL     OW70403  11.391   0.751  11.461  0.1109 -0.3975 -0.2387
20158SOL    HW170404  11.332   0.826  11.453  2.0152  1.3700  1.1463
20158SOL    HW270405  11.466   0.773  11.406  0.6475 -1.3345  0.0863
20159SOL     OW70406   3.845   5.902   8.647 -0.3137  0.2363  0.3422
20159SOL    HW170407   3.759   5.915   8.687 -0.2267  0.1585  0.5566
20159SOL    HW270408   3.830   5.840   8.575 -0.7654  1.6039 -0.7953
20160SOL     OW70409   1.784   6.874   7.152 -0.1336 -0.2694 -0.2013
20160SOL    HW170410   1.692   6.886   7.129  0.0804  0.7410 -0.6048
20160SOL    HW270411   1.802   6.944   7.215  0.2967 -0.6189  0.0689
20161SOL     OW70412  11.671  10.123   2.637 -0.3390  0.0804 -0.5079
20161SOL    HW170413  11.749  10.150   2.587 -0.0422 -0.4552 -0.3436
20161SOL    HW270414  11.707  10.085   2.717 -0.6225 -2.7191 -1.6073
20162SOL     OW70415   0.404   4.446   5.766 -0.2602 -0.0051 -0.0238
20162SOL    HW170416   0.348   4.436   5.689  0.6888 -0.0633 -0.7366
20162SOL    HW270417   0.351   4.415   5.839 -0.7495 -1.1420 -0.8341
20163SOL     OW70418   0.674   6.144   4.503 -0.1935 -0.1855  0.1662
20163SOL    HW170419   0.603   6.093   4.465 -1.2003 -0.6109  2.4677
20163SOL    HW270420   0.715   6.187   4.428 -2.2222 -0.7206 -1.3446
20164SOL     OW70421   1.599   4.314   9.340 -0.3699  0.0033 -0.1217
20164SOL    HW170422   1.559   4.338   9.424 -1.1803 -0.3221 -0.4018
20164SOL    HW270423   1.590   4.392   9.286  0.7765  0.4467  0.3066
20165SOL     OW70424   4.588   5.899  11.951  0.5188  0.5376 -0.1290
20165SOL    HW170425   4.547   5.986  11.945  0.6309  0.5785 -0.3119
20165SOL    HW270426   4.514   5.838  11.947  0.4484  0.6221 -0.1176
20166SOL     OW70427  11.063   9.088   5.691 -0.1234 -0.5681 -0.7573
20166SOL    HW170428  10.973   9.057   5.684 -0.0603 -1.0000  0.2445
20166SOL    HW270429  11.057   9.183   5.676 -0.7425 -0.5925 -0.6672
20167SOL     OW70430  11.028   0.685   5.424 -0.2763  0.6771 -0.4647
20167SOL    HW170431  11.046   0.771   5.386  0.1761  1.7612  2.0344
20167SOL    HW270432  11.114   0.648   5.442 -0.3690  1.5483  2.2354
20168SOL     OW70433   4.456  11.840   6.545  0.7978 -0.2400 -0.0736
20168SOL    HW170434   4.399  11.916   6.550  0.2503 -0.6326 -0.2073
20168SOL    HW270435   4.526  11.866   6.485 -0.1821 -0.3329 -1.3226
20169SOL     OW70436   9.973   5.781  12.881  0.0666  0.2015 -0.1190
20169SOL    HW170437   9.942   5.725  12.953 -3.3899  0.1791 -1.4311
20169SOL    HW270438   9.949   5.733  12.802  0.3902  1.9009 -1.2837
20170SOL     OW70439   4.990   9.417   0.692  0.2022  0.4394  0.0186
20170SOL    HW170440   5.027   9.497   0.655  2.0621  0.9920  2.8371
20170SOL    HW270441   5.062   9.377   0.739 -1.7943 -0.5664  2.3958
20171SOL     OW70442   4.076  11.410  12.081 -0.5526 -0.0576 -0.5771
20171SOL    HW170443   4.159  11.457  12.073 -1.0353  1.0411  0.5100
20171SOL    HW270444   4.099  11.330  12.129 -0.2736  0.7843  0.7582
20172SOL     OW70445  12.255   4.097   5.153 -0.3637  0.4973 -0.6948
20172SOL    HW170446  12.287   4.176   5.109  2.5836 -0.0966  0.1639
20172SOL    HW270447  12.251   4.121   5.245 -1.7140  0.2818 -0.6805
20173SOL     OW70448   6.748   5.546   5.711 -0.2733 -0.3871 -0.1336
20173SOL    HW170449   6.703   5.503   5.638 -0.7534  0.7468 -0.5356
20173SOL    HW270450   6.724   5.639   5.702 -1.6299 -0.4112  2.3555
20174SOL     OW70451   1.680   1.136   1.430 -0.2612 -0.0565 -0.0278
20174SOL    HW170452   1.652   1.227   1.417 -1.9060 -0.3494  1.1027
20174SOL    HW270453   1.627   1.086   1.369  1.1435 -0.2149 -1.1457
20175SOL     OW70454  12.720  12.438   5.413 -0.5196 -0.3013 -0.0290
20175SOL    HW170455  12.667  12.363   5.441  0.0317 -0.9278 -0.6428
20175SOL    HW270456  12.757  12.473   5.494  0.3785 -1.5729  0.1291
20176SOL     OW70457   5.604   2.661   8.378  0.2443  0.4038 -0.0419
20176SOL    HW170458   5.620   2.587   8.319 -1.1041 -1.4981  1.8183
20176SOL    HW270459   5.677   2.658   8.440 -0.7842 -0.6584  1.1835
20177SOL     OW70460  12.564   5.528  12.837 -0.1956  0.2509  0.4064
20177SOL    HW170461  12.499   5.470  12.878  0.8326 -1.1208  0.1964
20177SOL    HW270462  12.637   5.470  12.817  1.0039  1.7038  0.4082
20178SOL     OW70463   9.298   9.983   5.663  0.1771 -1.0258  0.2888
20178SOL    HW170464   9.376   9.929   5.671  0.8448 -0.3784 -1.3704
20178SOL    HW270465   9.316  10.041   5.589 -0.8003  0.9748  1.5183
20179SOL     OW70466   3.761   8.045   1.782 -0.0359 -0.0451  0.3379
20179SOL    HW170467   3.822   8.033   1.709  0.9319 -1.4678  1.3203
20179SOL    HW270468   3.810   8.015   1.859 -0.7690  2.0288  1.7073
20180SOL     OW70469   8.067  10.652  12.414 -0.5066  0.2706 -0.1575
20180SOL    HW170470   7.987  10.617  12.374 -1.7143  2.0755  0.5282
20180SOL    HW270471   8.036  10.721  12.473  1.4189 -0.3716  1.7389
20181SOL     OW70472  12.979  13.076   0.546 -0.4387  0.0600 -0.4384
20181SOL    HW170473  12.966  13.010   0.614  2.2867 -0.2391 -0.1021
20181SOL    HW270474  13.043  13.137   0.583 -0.9875  1.4748 -1.6974
20182SOL     OW70475  11.945   7.292  12.813  0.0986 -0.0421  0.2726
20182SOL    HW170476  11.868   7.335  12.775  0.7590  1.6239  0.7097
20182SOL    HW270477  11.992   7.255  12.738 -0.5896 -0.1806 -0.0992
20183SOL     OW70478  11.736   3.986  10.449 -0.6282  0.3379 -0.0667
20183SOL    HW170479  11.776   3.900  10.450 -2.2199 -0.4833 -1.6089
20183SOL    HW270480  11.652   3.973  10.405 -0.9303  2.6643 -0.3074
20184SOL     OW70481   1.699   5.589   4.609  0.1706 -0.4800 -0.1082
20184SOL    HW170482   1.677   5.679   4.584  0.2575  0.4797  2.8371
20184SOL    HW270483   1.627   5.561   4.666  2.1548 -0.5410  2.5786
20185SOL     OW70484   4.005   4.803   5.449 -0.2554 -0.1170 -0.6889
20185SOL    HW170485   4.025   4.725   5.397 -0.1824 -1.3695  1.1287
20185SOL    HW270486   4.055   4.792   5.529 -2.8366  0.1120  1.0672
20186SOL     OW70487   6.089  13.220   5.360 -0.1815 -0.0522  0.1319
20186SOL    HW170488   6.078  13.155   5.429  0.3974 -1.1301 -0.7654
20186SOL    HW270489   6.140  13.176   5.293 -0.3959  1.1007 -0.8246
20187SOL     OW70490  11.281   7.323   3.237 -0.2619 -0.9668  0.1731
20187SOL    HW170491  11.197   7.279   3.246 -1.0205 -0.0316 -1.6960
20187SOL    HW270492  11.275   7.399   3.296 -1.8296  0.5339 -1.7538
20188SOL     OW70493   2.796   6.119   1.078  0.1618 -0.6845  0.0015
20188SOL    HW170494   2.706   6.099   1.054  0.5163 -2.1499 -0.1878
20188SOL    HW270495   2.819   6.194   1.023 -0.0981 -1.9578 -1.9584
20189SOL     OW70496   1.549  11.888   5.402  0.7122  0.5253 -0.1124
20189SOL    HW170497   1.553  11.979   5.433  1.3163  0.1122  1.0809
20189SOL    HW270498   1.471  11.885   5.347  0.7133  1.7805 -0.2127
20190SOL     OW70499  12.642  12.804  13.153  0.3805  0.2945  0.0505
20190SOL    HW170500  12.603  12.765  13.075 -0.6844  0.9527  0.2282
20190SOL    HW270501  12.650  12.897  13.132  2.2599  0.1427 -0.1217
20191SOL     OW70502  10.802   8.936   6.983 -0.0522  0.4009 -0.2767
20191SOL    HW170503  10.771   8.999   6.917  0.3578  1.4076  0.4568
20191SOL    HW270504  10.895   8.923   6.961 -0.1275  0.0715 -0.4044
20192SOL     OW70505  10.041   8.296   9.789  0.5675  0.1464 -0.0280
20192SOL    HW170506  10.120   8.264   9.746  0.3103  2.0509 -2.0763
20192SOL    HW270507   9.970   8.243   9.753  0.6953 -0.4141  0.5245
20193SOL     OW70508  11.132   4.967   8.991 -0.3422  0.7808  0.4755
20193SOL    HW170509  11.037   4.971   8.977 -0.5550 -1.2955  0.9760
20193SOL    HW270510  11.169   4.979   8.903 -1.1673 -0.2272 -0.0472
20194SOL     OW70511  11.856   2.499   9.997  0.1584 -0.5177 -0.2560
20194SOL    HW170512  11.863   2.430   9.931 -1.3556 -0.5569 -0.4023
20194SOL    HW270513  11.943   2.540   9.998  0.1418 -0.2982 -2.5205
20195SOL     OW70514   7.411   7.928   5.772  0.3783  0.7227  0.6081
20195SOL    HW170515   7.373   7.994   5.714  0.1400 -0.0204 -0.1006
20195SOL    HW270516   7.500   7.959   5.789 -0.0041  1.6516  0.9773
20196SOL     OW70517   7.314   9.690   3.620 -0.2691  0.0936  0.0860
20196SOL    HW170518   7.409   9.692   3.608 -0.3067 -0.7172 -0.4174
20196SOL    HW270519   7.291   9.598   3.610 -1.2977  0.4697 -1.2312
20197SOL     OW70520   1.604   6.265   0.891 -0.2587 -0.6544  0.0421
20197SOL    HW170521   1.649   6.348   0.905  0.9314 -1.3568  0.4670
20197SOL    HW270522   1.550   6.254   0.970 -2.1139  0.7107 -0.9369
20198SOL     OW70523   8.256   8.224   2.754 -0.1888 -0.2530  0.7254
20198SOL    HW170524   8.256   8.294   2.688  0.8352 -2.2233 -1.5037
20198SOL    HW270525   8.187   8.164   2.725  0.2252 -1.1229  1.4805
20199SOL     OW70526   1.467   9.075   7.374 -0.5299  0.0955 -0.6715
20199SOL    HW170527   1.454   9.103   7.464  0.1150 -0.0669 -0.5227
20199SOL    HW270528   1.476   9.156   7.324  0.4963  0.1774 -0.3727
20200SOL     OW70529   1.893   3.878   6.710 -0.3402 -0.4675 -0.3219
20200SOL    HW170530   1.910   3.919   6.626  1.0838 -0.6772 -0.1562
20200SOL    HW270531   1.909   3.784   6.696 -0.1860 -0.5185  0.1498
20201SOL     OW70532   5.088   4.832  10.808 -0.3355 -0.3233  0.0311
20201SOL    HW170533   5.172   4.836  10.763 -0.0202  2.5367  0.7248
20201SOL    HW270534   5.077   4.918  10.848 -2.1668 -1.5895  2.5679
20202SOL     OW70535  13.232   5.515   9.947 -0.5109  0.1642 -0.4155
20202SOL    HW170536  13.172   5.589   9.960 -0.1549  0.8679 -2.4468
20202SOL    HW270537  13.319   5.556   9.939 -0.3335 -0.4466 -1.7781
20203SOL     OW70538   7.892  10.280  12.814  0.1221  0.4436  0.0435
20203SOL    HW170539   7.922  10.305  12.902  1.2369 -1.6146  0.3138
20203SOL    HW270540   7.849  10.196  12.827  1.4351 -0.5243 -1.5197
20204SOL     OW70541   4.833  11.969   3.149  0.1602 -0.0334 -0.0808
20204SOL    HW170542   4.820  11.992   3.057  1.2736  0.0372 -0.2331
20204SOL    HW270543   4.921  12.001   3.169 -0.0988  0.0091  1.0293
20205SOL     OW70544   4.882  11.156   3.623  0.0092  0.5791 -0.2330
20205SOL    HW170545   4.942  11.133   3.694  0.7274  2.1441 -0.2789
20205SOL    HW270546   4.937  11.204   3.561 -0.3160 -1.6835 -2.4583
20206SOL     OW70547   3.825   8.945   8.328 -0.1047  0.4147  0.0574
20206SOL    HW170548   3.816   8.968   8.420 -0.3937  0.0698  0.1158
20206SOL    HW270549   3.805   8.852   8.324 -0.1484  0.4390 -0.3642
20207SOL     OW70550   7.077  10.389  11.329  0.0003  0.0752 -0.4595
20207SOL    HW170551   7.074  10.307  11.281 -1.0201  0.7993 -1.7034
20207SOL    HW270552   7.097  10.364  11.419  0.4884 -1.4531 -0.9714
20208SOL     OW70553   1.057  12.823   6.812  0.1802 -0.5825 -0.2159
20208SOL    HW170554   1.051  12.782   6.897  0.1093  1.4331  0.8223
20208SOL    HW270555   1.148  12.851   6.805  0.1089 -0.4456 -0.6541
20209SOL     OW70556   5.729   7.239   5.073 -0.0613  0.0035  0.2998
20209SOL    HW170557   5.689   7.229   4.986 -0.8733  1.1070  0.5348
20209SOL    HW270558   5.745   7.149   5.102 -1.2473 -0.4369 -0.3270
20210SOL     OW70559   7.624   5.569   2.055 -0.3330 -0.3018  0.2281
20210SOL    HW170560   7.691   5.548   1.989  0.2175 -0.1647  0.7422
20210SOL    HW270561   7.542   5.562   2.007  0.0255 -0.7478 -0.3461
20211SOL     OW70562  12.467   1.116  12.526 -0.0347  0.2049  0.0197
20211SOL    HW170563  12.544   1.130  12.471  0.6048 -0.5046  0.7053
20211SOL    HW270564  12.503   1.095  12.612 -1.0078  1.9494  0.9145
20212SOL     OW70565   6.534  12.930  11.585 -0.1589 -0.5189 -0.8875
20212SOL    HW170566   6.509  12.844  11.619 -1.1401 -0.4522 -1.4097
20212SOL    HW270567   6.591  12.967  11.653 -1.9667 -0.4180  0.6643
20213SOL     OW70568   8.267  11.679  12.925  0.8614  0.3809  0.3272
20213SOL    HW170569   8.307  11.703  12.842  0.3121 -0.4551 -0.1899
20213SOL    HW270570   8.210  11.753  12.947  0.0319  0.0702 -0.6928
20214SOL     OW70571   8.715   5.772   2.222  0.2545  0.2100  0.4337
20214SOL    HW170572   8.695   5.835   2.291  0.7479  0.3879  0.4181
20214SOL    HW270573   8.652   5.792   2.152 -3.1051 -2.5730  2.3233
20215SOL     OW70574  11.255   2.616   6.928 -0.6378  0.3065 -0.7702
20215SOL    HW170575  11.163   2.641   6.936 -0.7365  0.4158 -2.0221
20215SOL    HW270576  11.302   2.698   6.916 -0.5941  0.1430 -1.8290
20216SOL     OW70577   1.863   3.916   9.372  0.3985  0.2403 -0.4271
20216SOL    HW170578   1.835   3.884   9.458  2.5324  0.8594  0.5602
20216SOL    HW270579   1.792   3.974   9.344  0.6163  1.8131  1.9808
20217SOL     OW70580   8.636   5.038   7.302  0.3940 -0.4464  0.7239
20217SOL    HW170581   8.567   4.986   7.343 -0.2951  0.7439  1.1130
20217SOL    HW270582   8.599   5.065   7.218 -0.0711  1.1252  1.4090
20218SOL     OW70583   1.089   2.358  11.277  0.5384  0.2266 -0.0304
20218SOL    HW170584   1.130   2.273  11.265 -0.3183 -0.1483 -0.4458
20218SOL    HW270585   1.161   2.421  11.280  1.1704 -0.5048  0.1919
20219SOL     OW70586  10.735   7.496   9.961  0.3478 -0.0076 -0.2002
20219SOL    HW170587  10.821   7.525   9.932 -0.0764  1.4218 -0.0875
20219SOL    HW270588  10.751   7.457  10.047  0.8284  0.5752 -0.0216
20220SOL     OW70589   5.125  10.590   0.318  0.4201  0.1759  0.1202
20220SOL    HW170590   5.141  10.512   0.372 -0.3818  1.2221  1.9573
20220SOL    HW270591   5.046  10.569   0.268  0.6493 -0.4613  0.0102
20221SOL     OW70592   1.339  10.840   4.465  0.3501 -0.2860 -0.0390
20221SOL    HW170593   1.406  10.805   4.406 -0.6688 -1.0784 -0.7614
20221SOL    HW270594   1.260  10.845   4.411  0.2252  2.3265  0.2966
20222SOL     OW70595   7.849  13.057   0.315 -0.1684  0.0351 -0.5408
20222SOL    HW170596   7.774  13.094   0.360 -0.6793 -1.1232 -0.4081
20222SOL    HW270597   7.904  13.021   0.385  0.7500  1.2351 -0.5973
20223SOL     OW70598  10.642   9.193   4.598  0.5884  0.3480 -0.7215
20223SOL    HW170599  10.682   9.241   4.525  1.9911  0.3080 -0.0197
20223SOL    HW270600  10.655   9.101   4.576  0.1250  0.3231 -0.8910
20224SOL     OW70601   6.348   8.540  10.008 -0.5050  0.0891  0.2509
20224SOL    HW170602   6.284   8.498   9.950 -0.8600 -0.5599  1.0859
20224SOL    HW270603   6.389   8.467  10.054 -1.0717  0.6290  1.6714
20225SOL     OW70604   3.391   5.658  12.725  0.1291  0.0224 -0.1316
20225SOL    HW170605   3.403   5.569  12.691  0.0820  0.1900 -0.5958
20225SOL    HW270606   3.456   5.710  12.678 -1.2697  0.6446 -1.4887
20226SOL     OW70607  11.931   8.008   4.245  0.0122  0.3351  0.2884
20226SOL    HW170608  11.923   7.956   4.166  0.8444  1.0054 -0.2576
20226SOL    HW270609  12.000   8.071   4.226  0.2458  0.5044  1.5557
20227SOL     OW70610   9.331  10.493  12.466 -0.0059  0.2997 -0.4304
20227SOL    HW170611   9.254  10.436  12.464 -0.3281  0.6305  1.2295
20227SOL    HW270612   9.400  10.439  12.505 -0.5776  1.2702  2.0864
20228SOL     OW70613   6.406   0.721   9.016  0.4975 -0.3018 -0.3669
20228SOL    HW170614   6.325   0.674   9.034  0.5133 -0.2755 -0.2237
20228SOL    HW270615   6.398   0.749   8.925  0.3102 -0.2267 -0.3269
20229SOL     OW70616   5.250   5.806   4.073  0.6252 -0.3312 -0.2572
20229SOL    HW170617   5.229   5.893   4.041  2.5255  0.5491  0.7117
20229SOL    HW270618   5.218   5.747   4.005  0.7942  1.2004 -1.7343
20230SOL     OW70619   5.829  10.457  11.318  0.4348 -0.0311  0.2050
20230SOL    HW170620   5.918  10.491  11.318  0.1095  1.1887  3.6332
20230SOL    HW270621   5.836  10.369  11.354  0.2551  0.1247  0.6277
20231SOL     OW70622   8.998   9.806   3.637 -0.0349  0.3498 -0.5567
20231SOL    HW170623   8.976   9.874   3.701 -0.3104  1.1529 -1.4731
20231SOL    HW270624   8.979   9.724   3.682  0.0689  0.8827  0.4965
20232SOL     OW70625   3.845  11.035   5.513  0.3636 -0.1848 -0.6375
20232SOL    HW170626   3.899  10.960   5.488  0.6870  0.1406 -0.9268
20232SOL    HW270627   3.901  11.087   5.570 -0.1849 -0.6435  0.3357
20233SOL     OW70628   3.331  10.415   8.455 -0.3752  0.6170  0.8143
20233SOL    HW170629   3.306  10.396   8.545 -0.1009 -2.3980  0.3654
20233SOL    HW270630   3.266  10.367   8.402  0.3261  1.1342 -0.5565
20234SOL     OW70631  11.206   2.743   5.474 -0.5657  0.1301 -0.5233
20234SOL    HW170632  11.243   2.758   5.561 -0.2546 -0.9222 -0.4629
20234SOL    HW270633  11.115   2.771   5.482 -0.5431  0.0307  0.1492
20235SOL     OW70634   2.629   7.372   5.745 -0.4592 -0.0657 -0.0818
20235SOL    HW170635   2.689   7.314   5.698  1.6274  1.0778  0.9964
20235SOL    HW270636   2.583   7.314   5.805 -0.8246 -1.0531 -1.2687
20236SOL     OW70637   8.913   6.801   2.879 -0.4763  0.2808 -0.1127
20236SOL    HW170638   8.958   6.744   2.817  0.1457  0.6727 -0.0337
20236SOL    HW270639   8.827   6.760   2.892 -0.6326  0.2214 -1.2639
20237SOL     OW70640   0.851   8.129  12.446  0.4889  0.5923  0.1246
20237SOL    HW170641   0.798   8.176  12.382 -0.3972  0.5150  0.7875
20237SOL    HW270642   0.883   8.196  12.505 -0.4451  0.4249  0.8357
20238SOL     OW70643   1.757   6.463  11.076 -0.3094  0.0706 -0.3793
20238SOL    HW170644   1.734   6.422  11.160 -1.1409  0.0225 -0.6257
20238SOL    HW270645   1.805   6.395  11.029  0.2787  0.1411  0.1113
20239SOL     OW70646   1.293   8.539   2.334 -0.0402 -0.1629 -0.0350
20239SOL    HW170647   1.254   8.599   2.397 -0.1842 -0.4328  0.1386
20239SOL    HW270648   1.217   8.495   2.294  0.0858 -0.7673  0.3774
20240SOL     OW70649   4.373   4.872   8.949 -0.4445  0.7464  0.0264
20240SOL    HW170650   4.350   4.873   8.856 -1.4113  2.3643  0.2473
20240SOL    HW270651   4.390   4.964   8.971 -1.3024  0.5580  1.6831
20241SOL     OW70652   9.605   4.240   0.096  0.3843  0.1281 -0.4829
20241SOL    HW170653   9.573   4.173   0.035  0.3310  0.2539 -0.5952
20241SOL    HW270654   9.539   4.309   0.091  0.4991  0.2400 -0.4565
20242SOL     OW70655  10.925  12.661  12.338 -0.0501  0.3185 -0.2968
20242SOL    HW170656  10.954  12.595  12.275  0.3862  1.2967 -1.1632
20242SOL    HW270657  10.919  12.615  12.421 -1.3055 -1.1777 -1.1713
20243SOL     OW70658   4.393   7.694   5.587 -0.6686 -0.0965  0.1745
20243SOL    HW170659   4.368   7.718   5.676 -0.4052  0.9550 -0.0151
20243SOL    HW270660   4.489   7.690   5.590 -0.6805 -0.4993  0.0402
20244SOL     OW70661   1.786  12.933  12.528 -0.2969  0.0657 -0.0912
20244SOL    HW170662   1.813  12.841  12.527 -0.5849 -0.0429  0.8170
20244SOL    HW270663   1.812  12.964  12.615 -1.9939  0.2746  0.3765
20245SOL     OW70664   2.322  10.039  13.267 -0.1526  0.0920  0.0787
20245SOL    HW170665   2.313  10.070  13.357  0.1871 -1.1428  0.5528
20245SOL    HW270666   2.236  10.055  13.228 -0.5063  0.0453  0.8157
20246SOL     OW70667   6.110   9.097   9.082 -0.6329  0.2203 -0.0117
20246SOL    HW170668   6.116   9.113   9.176  0.3076  0.3425 -0.0765
20246SOL    HW270669   6.155   9.171   9.043 -0.9774  0.1443 -0.5602
20247SOL     OW70670   0.305   7.974   9.692  0.0210  0.4836 -0.2365
20247SOL    HW170671   0.247   7.904   9.663  2.3090 -1.0570 -1.3909
20247SOL    HW270672   0.326   7.952   9.783 -2.9468  2.3998  1.0846
20248SOL     OW70673   6.137   4.556  10.852 -0.4680  0.1157 -0.7578
20248SOL    HW170674   6.089   4.618  10.797 -2.0746 -1.3653 -1.0978
20248SOL    HW270675   6.206   4.609  10.893  1.1767  1.2239 -4.5162
20249SOL     OW70676   5.155   6.309   5.152 -0.8098 -0.3962 -0.0418
20249SOL    HW170677   5.107   6.283   5.232  1.5984  1.0202  1.9967
20249SOL    HW270678   5.133   6.401   5.140  1.0407  0.1734  0.7157
20250SOL     OW70679   7.708   5.828   4.992  0.2680  0.1402  0.3658
20250SOL    HW170680   7.625   5.872   5.009 -1.1142 -1.7927 -0.9635
20250SOL    HW270681   7.765   5.897   4.958 -0.4451  1.6995  2.1971
20251SOL     OW70682   2.967   8.899   0.820  0.0029  0.1374 -0.2637
20251SOL    HW170683   2.948   8.806   0.815  1.4703 -0.2337  0.6613
20251SOL    HW270684   3.007   8.912   0.906  1.4183  1.3059 -1.0452
20252SOL     OW70685   6.052   9.653   8.683  0.1719 -0.0933  0.0407
20252SOL    HW170686   6.025   9.740   8.713  0.7870 -0.9940  3.7820
20252SOL    HW270687   5.970   9.604   8.676 -0.0219  0.2241  0.0660
20253SOL     OW70688   4.285   5.423   9.185 -0.0315  0.2639 -0.0399
20253SOL    HW170689   4.224   5.380   9.125  0.9856 -0.0527 -0.8690
20253SOL    HW270690   4.243   5.414   9.271  0.0050 -2.2390 -0.1947
20254SOL     OW70691   2.252  10.271  11.096 -0.3961 -0.3058 -0.3143
20254SOL    HW170692   2.271  10.300  11.185  1.2389  0.6339 -0.9302
20254SOL    HW270693   2.232  10.178  11.104  0.6638 -0.4428  0.9069
20255SOL     OW70694   9.969   6.419  11.925  0.2257  0.2526  0.1698
20255SOL    HW170695  10.034   6.474  11.969  2.3634 -1.1881 -0.9609
20255SOL    HW270696   9.982   6.332  11.965 -1.4245  0.0329  0.2792
20256SOL     OW70697   6.085   6.439   1.822  0.4341 -0.8148  0.3420
20256SOL    HW170698   6.058   6.530   1.836 -1.4401 -1.0329 -1.3260
20256SOL    HW270699   6.093   6.431   1.727  2.7570 -1.8609  0.5506
20257SOL     OW70700   6.515   3.952  12.782 -0.3514 -0.2860 -0.0137
20257SOL    HW170701   6.607   3.950  12.756 -0.1506 -1.2567  0.7126
20257SOL    HW270702   6.486   4.041  12.761  0.3439 -0.3934 -1.5843
20258SOL     OW70703   8.616   1.832  13.272  0.2067 -0.5389  0.0089
20258SOL    HW170704   8.660   1.902  13.320 -0.7391  0.4608 -0.5424
20258SOL    HW270705   8.687   1.780  13.235  0.9468  0.9179 -0.6988
20259SOL     OW70706  11.157   8.761   2.101  0.2438  0.2120 -0.1678
20259SOL    HW170707  11.198   8.837   2.059 -0.4775  1.7045  1.6870
20259SOL    HW270708  11.127   8.707   2.028  1.2004  1.4476 -1.5544
20260SOL     OW70709   0.771   9.969   9.141  0.3599  0.0135 -0.3667
20260SOL    HW170710   0.814   9.906   9.083  0.3321 -0.0172 -0.3541
20260SOL    HW270711   0.759   9.922   9.223  1.0938  0.3029 -0.0874
20261SOL     OW70712  12.959   1.634   0.147  0.5026  0.5351  0.5894
20261SOL    HW170713  13.010   1.655   0.068  0.1497  0.8996  0.4575
20261SOL    HW270714  12.869   1.629   0.117  0.4800 -0.3428  0.7829
20262SOL     OW70715   8.735   6.398   1.646  0.2455 -0.3684 -0.1147
20262SOL    HW170716   8.740   6.364   1.557 -0.1758  0.6776 -0.5504
20262SOL    HW270717   8.667   6.345   1.688  0.5141 -0.9295 -0.3759
20263SOL     OW70718   4.247   2.376   3.829 -0.1662  0.0415  0.6152
20263SOL    HW170719   4.249   2.367   3.734 -0.5776  0.5481  0.5552
20263SOL    HW270720   4.173   2.321   3.857 -1.5878  1.7561  0.4051
20264SOL     OW70721   7.312   2.230  12.444 -0.0552  0.3918  0.4350
20264SOL    HW170722   7.283   2.250  12.533 -0.5765 -1.8130  0.8243
20264SOL    HW270723   7.234   2.241  12.390 -0.7538 -1.8570  0.8880
20265SOL     OW70724   4.691   1.741   9.522 -0.0861  0.1797  0.4472
20265SOL    HW170725   4.612   1.689   9.507 -0.3666  0.7222  0.0246
20265SOL    HW270726   4.669   1.828   9.489  0.4510  0.5171  0.9581
20266SOL     OW70727  11.899  10.797   6.037  0.5366  0.4829  0.6009
20266SOL    HW170728  11.949  10.758   5.964  0.9420 -1.1106  1.6711
20266SOL    HW270729  11.965  10.833   6.095  0.1487  3.6065 -0.7016
20267SOL     OW70730   9.815   6.107  10.997 -0.0577 -0.5878  0.2050
20267SOL    HW170731   9.784   6.129  11.085  0.7815 -0.9438  0.5977
20267SOL    HW270732   9.896   6.059  11.011 -0.8476 -2.2756 -0.7026
20268SOL     OW70733   8.352   6.130   0.545 -0.1583  0.3569 -0.0283
20268SOL    HW170734   8.256   6.135   0.543 -0.2392 -0.9155 -2.0091
20268SOL    HW270735   8.370   6.052   0.598 -0.2423  0.2171 -0.2053
20269SOL     OW70736   2.020   2.099  10.321  0.0572 -0.3164 -0.2263
20269SOL    HW170737   1.977   2.087  10.236 -1.0257 -0.2042  0.2937
20269SOL    HW270738   2.071   2.180  10.310  0.3946 -0.6155 -0.9452
20270SOL     OW70739   0.783   7.547   2.121 -0.1290 -0.4093  0.1747
20270SOL    HW170740   0.748   7.622   2.072 -0.3426 -0.3209  0.4584
20270SOL    HW270741   0.875   7.542   2.095 -0.2404 -0.3630 -0.2353
20271SOL     OW70742   8.354   8.945  12.302 -0.2222  0.0025 -0.6784
20271SOL    HW170743   8.327   9.015  12.361  0.4069 -0.3218  0.0212
20271SOL    HW270744   8.274   8.897  12.282 -0.4010 -0.0983  0.2188
20272SOL     OW70745   2.883  12.779  12.235 -0.5186  0.4310 -0.2692
20272SOL    HW170746   2.916  12.831  12.308 -1.4367  2.8420 -1.4632
20272SOL    HW270747   2.958  12.727  12.206  0.4948  1.2096  0.8651
20273SOL     OW70748  11.143   2.178   1.749  0.1409 -0.1726 -0.0693
20273SOL    HW170749  11.164   2.265   1.716  2.0520 -0.8143 -0.6628
20273SOL    HW270750  11.058   2.158   1.711 -0.8770  1.8593  0.9910
20274SOL     OW70751  10.378   5.588   6.828  0.0527 -0.5097  0.2183
20274SOL    HW170752  10.422   5.519   6.778  1.1707  1.8291 -2.2651
20274SOL    HW270753  10.449   5.645   6.858 -0.9039  0.2841  1.0364
20275SOL     OW70754   7.453   5.142  10.243  0.5158 -0.1596  0.1329
20275SOL    HW170755   7.490   5.078  10.182 -1.6592  0.9088 -2.5313
20275SOL    HW270756   7.366   5.162  10.207  0.2988  2.7964  1.9663
20276SOL     OW70757   5.361   1.424   9.003  0.6273  0.0829  0.6019
20276SOL    HW170758   5.411   1.476   9.066 -0.3659 -0.1327  1.5913
20276SOL    HW270759   5.368   1.334   9.035 -2.7179  0.3493  2.4601
20277SOL     OW70760   0.178   1.825   0.933  0.6806 -0.3278 -0.2888
20277SOL    HW170761   0.190   1.910   0.890  0.6376 -0.2417 -0.1306
20277SOL    HW270762   0.154   1.766   0.861  0.6552 -0.1944 -0.3915
20278SOL     OW70763   7.095   0.500  11.275  0.0338 -0.1508 -0.0057
20278SOL    HW170764   7.104   0.430  11.210 -2.0894 -0.3464 -0.1354
20278SOL    HW270765   7.114   0.458  11.359 -1.0896 -0.8842 -0.0976
20279SOL     OW70766   4.583   0.760  13.191  0.0177 -0.2685 -0.2815
20279SOL    HW170767   4.590   0.739  13.098 -0.0093 -0.9480 -0.1336
20279SOL    HW270768   4.623   0.846  13.199 -2.2183  0.9596 -1.3446
20280SOL     OW70769   5.544   4.831  11.733  0.3462 -0.0651 -0.4070
20280SOL    HW170770   5.634   4.846  11.762  0.2889  0.1323 -0.3236
20280SOL    HW270771   5.552   4.797  11.645  0.6038 -2.7451  0.5766
20281SOL     OW70772   1.208   0.774   2.465 -0.4595  0.0238  0.1855
20281SOL    HW170773   1.269   0.754   2.394  0.7227  1.0169  0.8690
20281SOL    HW270774   1.264   0.807   2.536 -1.7853  0.8566  0.8906
20282SOL     OW70775   6.883  10.326   9.485  0.2528  0.0619 -0.6046
20282SOL    HW170776   6.803  10.274   9.492 -0.6284  1.4970  0.6537
20282SOL    HW270777   6.949  10.275   9.531 -0.7846  0.3435  1.3070
20283SOL     OW70778   2.601   9.407  11.607 -0.0541 -0.0556  0.1132
20283SOL    HW170779   2.581   9.382  11.517 -2.0045  0.1903  0.4334
20283SOL    HW270780   2.688   9.370  11.624 -0.1453 -1.0884 -1.4886
20284SOL     OW70781   9.999   2.115   6.817  0.5677  0.1952  0.4766
20284SOL    HW170782  10.094   2.114   6.824  0.7226  3.5184  0.5318
20284SOL    HW270783   9.968   2.095   6.905  1.2778  0.2615  0.7527
20285SOL     OW70784   7.010   4.597   2.624 -0.4092 -0.5801  0.1111
20285SOL    HW170785   6.928   4.620   2.581 -0.5236 -2.1416 -0.5897
20285SOL    HW270786   6.993   4.512   2.665  0.4547 -0.2920  1.1189
20286SOL     OW70787  12.604   6.380  10.598  0.0273 -0.5704 -0.1621
20286SOL    HW170788  12.529   6.435  10.575 -0.0197 -0.1951  0.8740
20286SOL    HW270789  12.594   6.362  10.691  2.1149  0.8639  0.4002
20287SOL     OW70790   5.948  10.463  10.153  0.4663 -0.1326  0.3458
20287SOL    HW170791   5.995  10.545  10.170  0.9174  0.1097 -1.7804
20287SOL    HW270792   6.011  10.394  10.173  0.7631  0.1080  0.2483
20288SOL     OW70793   4.068   4.386  10.481  0.3913  0.6391 -0.0096
20288SOL    HW170794   4.099   4.441  10.552 -0.1065  0.9256 -0.0024
20288SOL    HW270795   3.980   4.420  10.462 -0.2607 -0.6773  0.5388
20289SOL     OW70796  11.607   0.063   1.315  0.1878 -0.1030 -0.0767
20289SOL    HW170797  11.680   0.093   1.370  0.7689 -0.0023 -0.8853
20289SOL    HW270798  11.556   0.143   1.299 -0.1136 -0.1763  0.5050
20290SOL     OW70799   1.341  12.248   1.243 -0.3389 -0.8359 -0.1727
20290SOL    HW170800   1.346  12.221   1.152 -0.0625  0.9523 -0.7242
20290SOL    HW270801   1.324  12.342   1.240 -1.8963 -0.9876  1.6316
20291SOL     OW70802   1.133   3.164   0.384 -0.4693  0.5414  0.6043
20291SOL    HW170803   1.082   3.229   0.433 -0.9918  1.4422 -1.0790
20291SOL    HW270804   1.208   3.213   0.351 -0.1366 -0.0502  0.4782
20292SOL     OW70805   1.827   4.951   0.788 -0.2132  0.2174 -0.3829
20292SOL    HW170806   1.895   4.899   0.743  0.6079  0.9336  0.0055
20292SOL    HW270807   1.870   5.033   0.809 -1.6612  1.3033 -1.4806
20293SOL     OW70808  11.148   6.193   7.054  0.2520 -0.1556 -0.0815
20293SOL    HW170809  11.216   6.197   7.121  2.8706  0.9268 -2.5552
20293SOL    HW270810  11.132   6.285   7.031 -1.0012 -0.4769 -0.5752
20294SOL     OW70811   1.458   2.579   5.634  0.7298 -0.5645 -0.1226
20294SOL    HW170812   1.452   2.499   5.582 -0.8747 -0.0414 -0.7949
20294SOL    HW270813   1.552   2.592   5.647  1.2114 -0.6218 -3.0212
20295SOL     OW70814  10.546   6.627   8.975 -0.6517 -0.3133  0.3849
20295SOL    HW170815  10.503   6.687   8.914 -1.2336 -1.9107 -0.8436
20295SOL    HW270816  10.542   6.542   8.932  1.2626 -1.0371  1.5131
20296SOL     OW70817   9.179   0.583   4.505  0.5055 -0.3904  0.3767
20296SOL    HW170818   9.211   0.556   4.419  1.4942 -0.1099  0.6395
20296SOL    HW270819   9.258   0.591   4.558  0.0613  0.9445  0.8799
20297SOL     OW70820  10.520  11.904  11.742 -0.2114  0.0802  0.1977
20297SOL    HW170821  10.447  11.842  11.747  0.0611 -0.2531  0.1059
20297SOL    HW270822  10.502  11.957  11.664  0.9964 -1.7716 -1.4568
20298SOL     OW70823   2.146   0.603   5.009 -0.2130 -0.3460  0.0845
20298SOL    HW170824   2.144   0.691   4.973  0.3567 -0.5956 -0.5668
20298SOL    HW270825   2.118   0.614   5.100  2.1773  0.8739  0.7509
20299SOL     OW70826   7.903   9.628   7.970 -0.2766 -0.2135  0.4082
20299SOL    HW170827   7.807   9.625   7.978 -0.1740 -1.3220  1.5291
20299SOL    HW270828   7.926   9.549   7.922  0.0105  0.6761 -0.9648
20300SOL     OW70829   1.993  12.811  12.790  0.0903  0.0819 -0.0921
20300SOL    HW170830   2.022  12.829  12.880  1.0415  2.5388 -0.8043
20300SOL    HW270831   2.064  12.759  12.753 -0.0601 -0.4941  0.4108
20301SOL     OW70832   0.857   9.884   3.118 -0.3798 -0.1992  0.6219
20301SOL    HW170833   0.847   9.791   3.135  0.6270 -0.1729  1.4828
20301SOL    HW270834   0.768   9.917   3.107 -0.7424 -1.2576  0.3060
20302SOL     OW70835   8.647   8.219   3.589  0.2077 -0.0756 -0.0807
20302SOL    HW170836   8.592   8.298   3.584 -0.0439 -0.3011 -1.0896
20302SOL    HW270837   8.594   8.157   3.639  1.0441  0.8788  2.0958
20303SOL     OW70838  10.880  11.311   0.586 -0.1388 -0.0514 -0.1483
20303SOL    HW170839  10.919  11.288   0.671 -0.4638  0.8279  0.2572
20303SOL    HW270840  10.808  11.249   0.575  0.3937 -0.6788 -0.1630
20304SOL     OW70841  10.538  10.868   0.496 -0.9277 -0.1836 -0.6382
20304SOL    HW170842  10.550  10.958   0.465 -1.5559  0.2021  0.1916
20304SOL    HW270843  10.498  10.878   0.582 -0.2795 -1.2475 -0.2011
20305SOL     OW70844   8.225   8.577  13.073 -0.0896  0.0132  0.6616
20305SOL    HW170845   8.275   8.629  13.135 -2.9334  2.4914  1.1073
20305SOL    HW270846   8.155   8.635  13.043  1.5362 -0.5725 -5.7490
20306SOL     OW70847   8.236  11.825   5.224 -0.1062 -0.0019 -0.0065
20306SOL    HW170848   8.195  11.759   5.280 -0.0288 -2.5231 -2.6296
20306SOL    HW270849   8.167  11.852   5.164  0.3469  0.9321 -0.1262
20307SOL     OW70850   5.619   2.323   9.713  0.2424 -0.2857 -0.1143
20307SOL    HW170851   5.604   2.266   9.638 -0.0706 -1.4285  0.7889
20307SOL    HW270852   5.654   2.265   9.781 -0.3039  0.5384  0.9057
20308SOL     OW70853  11.848   9.769   9.280 -0.2591 -0.4850 -0.1199
20308SOL    HW170854  11.774   9.824   9.306 -0.6401 -1.1631  0.2520
20308SOL    HW270855  11.897   9.755   9.361  0.0537 -0.3833 -0.2885
20309SOL     OW70856   2.016   3.852   6.184 -0.5088 -0.6730 -0.0092
20309SOL    HW170857   2.077   3.925   6.184  0.9811 -1.8757  0.2255
20309SOL    HW270858   1.977   3.853   6.097 -0.6684  0.5085  0.0612
20310SOL     OW70859   8.713   9.281   6.143 -0.4564  0.5932  0.0104
20310SOL    HW170860   8.631   9.284   6.093  0.3919  0.5077 -1.4420
20310SOL    HW270861   8.778   9.319   6.083  0.7486 -0.2302  0.7684
20311SOL     OW70862   9.185   8.803  10.906  0.0595  0.4292 -0.4358
20311SOL    HW170863   9.270   8.759  10.901  0.2223  0.8317 -4.3417
20311SOL    HW270864   9.127   8.749  10.853 -1.7156  1.0453  0.7982
20312SOL     OW70865   5.747   7.108   2.609 -0.1911 -0.0272  0.1615
20312SOL    HW170866   5.807   7.123   2.682 -1.2963  2.2000  0.6815
20312SOL    HW270867   5.707   7.023   2.628  2.7344 -1.6116 -0.2230
20313SOL     OW70868  10.553   0.174   6.115  0.4922  0.1928  0.6092
20313SOL    HW170869  10.544   0.154   6.208 -1.7292  1.4431  0.7205
20313SOL    HW270870  10.527   0.265   6.106  1.8334  0.4641 -1.0929
20314SOL     OW70871   2.127  12.086   5.021 -0.0625  0.7132 -0.3366
20314SOL    HW170872   2.073  12.148   4.972  1.0558 -0.1030 -2.7524
20314SOL    HW270873   2.216  12.100   4.989  0.1471 -2.5053 -1.4902
20315SOL     OW70874   3.140   4.755   5.967  0.3327 -0.2815 -0.0627
20315SOL    HW170875   3.106   4.794   5.887  0.4662 -0.4665 -0.2104
20315SOL    HW270876   3.070   4.767   6.031 -0.0331 -0.6948 -0.3747
20316SOL     OW70877   1.086   7.086   9.053 -0.0682  0.5397  0.1365
20316SOL    HW170878   1.074   7.000   9.094  0.3621  0.9881  1.2310
20316SOL    HW270879   1.007   7.098   9.000  1.1958 -1.8365 -2.5076
20317SOL     OW70880   2.992   5.637   6.839 -0.2525 -0.2336  0.1107
20317SOL    HW170881   3.050   5.607   6.770  2.7624  1.0661  1.8878
20317SOL    HW270882   2.977   5.729   6.820 -0.3954 -0.1668  0.5201
20318SOL     OW70883   6.261   1.860   5.001 -0.9676 -0.1896 -0.2043
20318SOL    HW170884   6.329   1.879   5.066 -1.2102 -1.6459  0.5043
20318SOL    HW270885   6.309   1.819   4.929 -0.8604  0.3809 -0.4624
20319SOL     OW70886   7.265  11.620   9.159  0.1541 -0.0651 -0.0752
20319SOL    HW170887   7.334  11.678   9.193 -1.0058  1.5366 -0.3572
20319SOL    HW270888   7.251  11.556   9.228  1.8123 -0.3467  0.0489
20320SOL     OW70889   5.522   2.677   6.552  0.0044  0.8271 -0.3559
20320SOL    HW170890   5.549   2.700   6.640  2.8950 -0.6445 -0.7574
20320SOL    HW270891   5.480   2.591   6.561  3.4730 -1.0980 -0.6510
20321SOL     OW70892   2.784   6.304   4.690  0.1597 -0.2822 -0.0471
20321SOL    HW170893   2.722   6.373   4.712  0.5333  0.0766 -0.1224
20321SOL    HW270894   2.863   6.350   4.663 -0.2982 -0.6775 -2.2721
20322SOL     OW70895   3.831   8.805   9.976 -0.1629 -1.2200 -0.2556
20322SOL    HW170896   3.746   8.843   9.953 -0.7473 -2.2704  0.1272
20322SOL    HW270897   3.884   8.880  10.003  0.1047 -0.0568 -3.5248
20323SOL     OW70898   6.182  11.724   9.260 -0.3299  0.5801 -0.1959
20323SOL    HW170899   6.131  11.796   9.224 -1.4325 -0.3078 -0.4784
20323SOL    HW270900   6.132  11.646   9.237  0.9279 -0.2931 -0.0610
20324SOL     OW70901   9.565  11.991   1.977 -0.0301  0.2230 -0.3581
20324SOL    HW170902   9.512  12.057   1.932 -1.2990 -1.0576 -0.8398
20324SOL    HW270903   9.647  12.036   1.999 -0.7143  1.8350 -0.9626
20325SOL     OW70904   4.969   4.199   3.427  0.2361  0.2704 -0.4020
20325SOL    HW170905   4.969   4.156   3.342  0.5321  2.4919 -1.5906
20325SOL    HW270906   4.999   4.131   3.488  0.1471 -1.3315 -2.0625
20326SOL     OW70907   4.065   2.213   7.504 -0.0386  0.6711  0.0577
20326SOL    HW170908   4.130   2.260   7.556 -0.2639  0.0257  0.9508
20326SOL    HW270909   4.111   2.136   7.471 -0.0940  0.7046 -0.0999
20327SOL     OW70910   3.758   8.651  13.017 -0.2456 -0.1340 -0.1848
20327SOL    HW170911   3.760   8.701  12.935  1.6670  0.1925  0.0064
20327SOL    HW270912   3.825   8.691  13.071  0.2369 -1.8843  0.5959
20328SOL     OW70913   3.824   4.675   2.645  0.4502 -0.3556 -0.1228
20328SOL    HW170914   3.793   4.707   2.560 -1.6686 -1.6804  0.0668
20328SOL    HW270915   3.875   4.597   2.624 -1.6655 -1.8187 -0.1755
20329SOL     OW70916  11.043   0.908   9.386 -0.2375  0.0830 -0.2388
20329SOL    HW170917  11.043   0.913   9.481  1.2172 -0.8489 -0.1605
20329SOL    HW270918  11.000   0.825   9.366 -2.4508  1.2199 -0.5261
20330SOL     OW70919   4.757  11.704   2.461  0.5164  0.3869 -0.4141
20330SOL    HW170920   4.773  11.667   2.374  0.5376  0.8124 -0.5945
20330SOL    HW270921   4.827  11.668   2.515 -1.0990 -2.1987  0.1541
20331SOL     OW70922   0.043   0.285  12.121  0.3402  0.2745 -0.0630
20331SOL    HW170923   0.035   0.251  12.031 -0.6176  0.0483  0.0977
20331SOL    HW270924   0.134   0.314  12.127  0.5599 -0.1779 -0.9446
20332SOL     OW70925  12.957   4.630   3.980 -0.4563 -0.0461 -0.2983
20332SOL    HW170926  12.906   4.697   4.025 -1.3419  0.1168 -1.4900
20332SOL    HW270927  12.907   4.612   3.900  0.4521 -1.1730 -0.6350
20333SOL     OW70928   5.026   8.394   6.627 -0.7948  0.4496 -0.5660
20333SOL    HW170929   5.089   8.456   6.591 -0.5277 -0.3616 -1.5412
20333SOL    HW270930   5.006   8.428   6.714  0.7298  0.8939 -0.3649
20334SOL     OW70931   2.461   5.292   8.725  0.7328  0.2686 -0.1951
20334SOL    HW170932   2.410   5.222   8.684 -0.0300  0.3295  0.6285
20334SOL    HW270933   2.428   5.297   8.814 -0.3917  2.7605 -0.6603
20335SOL     OW70934   1.823   7.415   3.440  0.7449  0.0187  0.2590
20335SOL    HW170935   1.904   7.408   3.389  1.8316  0.8672  1.7826
20335SOL    HW270936   1.833   7.495   3.492 -1.1889  0.2732  0.3253
20336SOL     OW70937   3.164   7.993   9.195  0.4998  0.2379  0.2372
20336SOL    HW170938   3.088   7.959   9.242 -0.9501  1.6738 -0.9277
20336SOL    HW270939   3.191   8.070   9.245  0.8065  0.0972  0.2945
20337SOL     OW70940   7.070   2.106   3.565  0.2490  0.1167 -0.3199
20337SOL    HW170941   7.065   2.136   3.474  1.1939 -1.4654 -0.9373
20337SOL    HW270942   6.991   2.052   3.576  0.4745 -0.2297 -0.4086
20338SOL     OW70943   5.114   1.955  12.257  0.3250  0.4780 -0.0063
20338SOL    HW170944   5.199   1.955  12.300 -0.0006 -1.5263  0.7237
20338SOL    HW270945   5.126   1.902  12.178 -0.1427  0.5914 -0.1591
20339SOL     OW70946   4.200   9.539   2.650 -0.4417 -0.3536  0.1625
20339SOL    HW170947   4.268   9.578   2.595 -1.9665  0.3079 -1.3578
20339SOL    HW270948   4.134   9.608   2.658 -0.1151 -0.2672  3.2674
20340SOL     OW70949  12.576   1.138   4.951  0.1248 -0.2661 -0.1718
20340SOL    HW170950  12.508   1.160   4.887 -0.6330  1.4295  1.1333
20340SOL    HW270951  12.658   1.162   4.909 -0.1882 -0.9311 -1.1966
20341SOL     OW70952  10.873   4.395  10.369  0.5674 -0.0505 -0.2444
20341SOL    HW170953  10.880   4.445  10.287 -2.0459  1.2101  0.1984
20341SOL    HW270954  10.888   4.460  10.437 -0.0006 -0.4948  0.3124
20342SOL     OW70955   1.442   0.725   1.356  0.4520  0.3216  0.0263
20342SOL    HW170956   1.405   0.644   1.393 -0.3655  0.8525  0.3906
20342SOL    HW270957   1.531   0.700   1.328  0.5001 -0.5003  0.8650
20343SOL     OW70958  13.302   5.236   9.969  0.1653 -0.2460  0.4016
20343SOL    HW170959  13.336   5.280  10.046  0.0076  0.7904 -0.0998
20343SOL    HW270960  13.231   5.292   9.939 -0.3374 -1.0815 -0.0072
20344SOL     OW70961  13.101   7.352  10.831  0.4441 -0.5043  0.0723
20344SOL    HW170962  13.159   7.275  10.835  2.2682  0.6972 -1.2996
20344SOL    HW270963  13.056   7.342  10.747  0.1509 -0.4305  0.2219
20345SOL     OW70964   6.032   2.330  10.114  0.1468  0.1168 -0.0127
20345SOL    HW170965   5.960   2.363  10.169 -0.4816 -2.2627  0.7261
20345SOL    HW270966   5.990   2.308  10.031  0.2855 -0.0777 -0.0314
20346SOL     OW70967   7.455   1.873   0.261 -0.4678  0.1232 -0.2731
20346SOL    HW170968   7.514   1.913   0.325  0.1875  1.0311 -1.4156
20346SOL    HW270969   7.513   1.839   0.193 -1.2477  1.4058 -1.6382
20347SOL     OW70970   9.788   3.157   8.621  0.0141  0.2699 -0.2784
20347SOL    HW170971   9.789   3.133   8.529 -0.3479  0.2246 -0.2750
20347SOL    HW270972   9.765   3.250   8.623 -0.0497  0.2536 -0.2324
20348SOL     OW70973  10.771   8.129   2.807 -0.6345 -0.0932  0.2025
20348SOL    HW170974  10.689   8.117   2.855 -0.5481  0.2327  0.4320
20348SOL    HW270975  10.758   8.209   2.756 -0.2696  0.2489  0.6393
20349SOL     OW70976   9.245  11.762   7.667 -0.3924  0.3263 -0.2204
20349SOL    HW170977   9.188  11.697   7.626  0.6838 -0.4439 -0.5444
20349SOL    HW270978   9.315  11.711   7.708 -0.4591  1.1921  1.0366
20350SOL     OW70979   8.903   5.724  10.543  0.1405 -0.3947 -0.0883
20350SOL    HW170980   8.957   5.799  10.518  0.7248 -1.1602 -1.1928
20350SOL    HW270981   8.949   5.687  10.619 -0.7363  0.9611  1.1517
20351SOL     OW70982   6.611  11.003   3.844  0.2814 -0.9036 -0.0324
20351SOL    HW170983   6.622  11.089   3.884 -0.7085  0.0109 -1.6517
20351SOL    HW270984   6.660  10.944   3.902  0.2821  0.5904  1.5724
20352SOL     OW70985   0.109   0.270   8.763 -0.5413  0.0091  0.8940
20352SOL    HW170986   0.014   0.262   8.764 -0.6741  1.3182  0.4799
20352SOL    HW270987   0.127   0.335   8.695  0.6639 -0.3398  0.8536
20353SOL     OW70988   7.084   2.081   1.519  0.0767  0.1705  0.1644
20353SOL    HW170989   7.167   2.058   1.476 -1.2991  1.1954 -3.3656
20353SOL    HW270990   7.020   2.020   1.483 -1.5052  2.2374 -0.7028
20354SOL     OW70991   6.670  11.028   5.405  0.1456  0.3509  0.0958
20354SOL    HW170992   6.667  11.123   5.405  0.5386  0.3628 -0.0307
20354SOL    HW270993   6.700  11.005   5.493 -0.9902  0.3066  0.4873
20355SOL     OW70994  11.003   5.141   1.897 -0.3174  0.0770 -0.2603
20355SOL    HW170995  11.059   5.070   1.930 -0.2085  0.2774 -0.0059
20355SOL    HW270996  10.914   5.114   1.921 -0.1305  0.9589  1.6620
20356SOL     OW70997   8.316  11.466   4.562  0.4843  0.2658 -0.0750
20356SOL    HW170998   8.343  11.558   4.564  0.2770  0.3723 -1.4814
20356SOL    HW270999   8.221  11.469   4.563  0.4711  0.0085  1.0703
20357SOL     OW71000  10.843  12.805   9.155 -0.0607  0.2681  0.3707
20357SOL    HW171001  10.762  12.786   9.107 -0.2510 -2.4082  1.5434
20357SOL    HW271002  10.813  12.840   9.239  0.0881  0.8146  0.2012
20358SOL     OW71003  12.868   9.795   8.822  0.4400 -0.2686  0.1530
20358SOL    HW171004  12.823   9.831   8.746  1.6889  0.8997 -0.0667
20358SOL    HW271005  12.799   9.782   8.886 -0.3747  0.4800 -0.5423
20359SOL     OW71006  10.059  10.829   7.013 -0.1678 -0.2434  0.0903
20359SOL    HW171007  10.138  10.812   6.962  0.5611  2.0673  0.3443
20359SOL    HW271008  10.063  10.767   7.085  1.9934  0.4906  0.6760
20360SOL     OW71009   4.700   6.195   4.214 -0.2852 -0.3908  0.0562
20360SOL    HW171010   4.650   6.276   4.203 -2.7233 -1.6912  0.8170
20360SOL    HW271011   4.654   6.131   4.161  0.3132 -1.7649  1.1224
20361SOL     OW71012   5.685   0.287   4.941  1.0565  0.1043 -0.4957
20361SOL    HW171013   5.633   0.221   4.985 -0.6527  0.5591 -1.7034
20361SOL    HW271014   5.701   0.354   5.007  0.7194 -0.3914  0.0945
20362SOL     OW71015  10.180  12.523   6.609  0.3337  0.2451 -0.4284
20362SOL    HW171016  10.119  12.508   6.681 -0.2529 -1.3055 -1.2077
20362SOL    HW271017  10.256  12.470   6.631 -0.1959 -0.9459 -1.3189
20363SOL     OW71018  11.548   5.558   8.836  0.2630  0.1226 -0.0010
20363SOL    HW171019  11.572   5.609   8.758 -0.3171  1.4825  0.6921
20363SOL    HW271020  11.623   5.500   8.849  0.4939  0.0501 -1.4058
20364SOL     OW71021  12.884   8.930  13.231 -0.3251 -0.3819 -0.4376
20364SOL    HW171022  12.975   8.945  13.205 -0.4133 -0.6136 -0.8753
20364SOL    HW271023  12.848   8.874  13.163 -1.3889  1.3198 -1.3310
20365SOL     OW71024   6.758   7.875   9.320 -0.3587 -0.4445  0.4382
20365SOL    HW171025   6.845   7.837   9.319 -0.4496 -0.6658  0.7882
20365SOL    HW271026   6.710   7.824   9.386 -0.1506  0.9678  1.7419
20366SOL     OW71027  11.647   4.962   4.936 -0.2516  0.3646  0.4596
20366SOL    HW171028  11.715   5.013   4.892 -0.4445 -0.6014 -1.0134
20366SOL    HW271029  11.695   4.897   4.988  0.0671 -1.5023 -1.9665
20367SOL     OW71030   2.151   9.762   0.187 -0.2474 -0.8794  0.3620
20367SOL    HW171031   2.105   9.711   0.121 -0.1668 -0.3078 -0.1523
20367SOL    HW271032   2.235   9.784   0.146  0.3832 -1.6895  1.1866
20368SOL     OW71033   0.392  11.706   8.684  0.2337 -0.2085  0.0855
20368SOL    HW171034   0.466  11.766   8.675  0.5820 -0.4800  0.9582
20368SOL    HW271035   0.420  11.644   8.752 -1.7001  1.0808  2.1918
20369SOL     OW71036  10.439  13.168   3.961  0.0915 -0.0598  0.2183
20369SOL    HW171037  10.379  13.103   3.995  1.2475 -0.4192  1.6727
20369SOL    HW271038  10.522  13.122   3.952  0.8777  1.1405  1.0783
20370SOL     OW71039   8.969  11.103  10.280  0.1220 -0.3198  0.4982
20370SOL    HW171040   9.012  11.158  10.346 -0.0468 -0.3886  0.6695
20370SOL    HW271041   8.909  11.163  10.235 -1.7404 -0.8043  2.1967
20371SOL     OW71042  12.881   8.710   0.506  0.0955  0.8275  0.3309
20371SOL    HW171043  12.820   8.655   0.455  0.0699  1.9538 -0.9005
20371SOL    HW271044  12.827   8.746   0.576 -0.3157  0.7021  0.0835
20372SOL     OW71045   1.094  13.245   3.202 -0.3290 -1.2299  0.0109
20372SOL    HW171046   1.157  13.201   3.145 -1.2758 -1.6013 -0.7904
20372SOL    HW271047   1.084  13.332   3.165  1.2707 -0.4217  1.3831
20373SOL     OW71048   2.040   7.080   8.806  0.1668 -0.0994 -0.1660
20373SOL    HW171049   2.039   7.061   8.712  0.4237  2.2821 -0.7203
20373SOL    HW271050   2.124   7.045   8.836  0.8158  0.5326 -1.1858
20374SOL     OW71051   2.469  10.842   3.329  0.0791 -0.0463  0.0219
20374SOL    HW171052   2.507  10.755   3.341  0.3220 -0.0024 -0.3971
20374SOL    HW271053   2.416  10.856   3.407  2.3351  0.6178  1.5297
20375SOL     OW71054  10.380   3.918   1.018  0.1143  0.4125  0.0089
20375SOL    HW171055  10.362   3.995   0.965 -0.1809  0.7313  0.5622
20375SOL    HW271056  10.378   3.950   1.108  2.0642  0.1755  0.1740
20376SOL     OW71057  12.681  13.188   7.837  0.3188 -0.3452  0.1652
20376SOL    HW171058  12.588  13.204   7.817  0.1245 -1.5141  0.0190
20376SOL    HW271059  12.722  13.273   7.830 -0.3587 -0.1280 -1.9639
20377SOL     OW71060   1.971  12.107  11.581 -0.4385 -0.1860  0.4425
20377SOL    HW171061   1.958  12.188  11.631  1.4056  0.5604 -0.1744
20377SOL    HW271062   1.904  12.110  11.513 -1.0622  0.2932  1.0584
20378SOL     OW71063   7.269   0.595   5.484 -0.3711 -0.0652 -0.0031
20378SOL    HW171064   7.294   0.668   5.540 -0.9020 -0.9911  1.5146
20378SOL    HW271065   7.175   0.583   5.500 -0.3325 -0.9648 -0.3605
20379SOL     OW71066  10.146   9.972   1.738  0.1306  0.6347  0.3956
20379SOL    HW171067  10.076   9.968   1.803  0.2658  2.4338  0.7020
20379SOL    HW271068  10.226   9.980   1.789  0.1962  2.6339  0.0663
20380SOL     OW71069  11.946   1.885  12.117 -0.3026 -0.2193  0.0477
20380SOL    HW171070  11.970   1.855  12.029 -1.2408  0.3522 -0.4155
20380SOL    HW271071  12.022   1.935  12.146 -0.2151  0.0962 -0.6898
20381SOL     OW71072  10.488   4.973   0.727  0.1418 -0.1800 -0.4114
20381SOL    HW171073  10.426   5.037   0.692  0.9964  0.7685 -0.2477
20381SOL    HW271074  10.540   5.023   0.790  0.3653 -1.2226  0.2439
20382SOL     OW71075   2.191   8.264   7.931 -0.2999 -0.6919  0.4248
20382SOL    HW171076   2.133   8.294   7.861 -0.0353 -0.4273  0.3192
20382SOL    HW271077   2.202   8.170   7.915 -0.6691 -0.7359  0.4228
20383SOL     OW71078   0.102   8.089  10.429  0.1683  0.1265 -0.1650
20383SOL    HW171079   0.149   8.139  10.496 -0.6793  0.3075  0.2993
20383SOL    HW271080   0.040   8.035  10.478 -2.6419  2.4595 -0.8870
20384SOL     OW71081   7.551   8.264   5.432 -0.6093 -0.4635  0.3876
20384SOL    HW171082   7.596   8.348   5.428 -1.0034 -0.2965 -1.6300
20384SOL    HW271083   7.596   8.210   5.367 -1.0480 -1.4590  0.8945
20385SOL     OW71084   3.525  12.291  12.691 -0.3124 -0.4346 -0.1501
20385SOL    HW171085   3.591  12.222  12.701 -1.9704 -1.8755  1.4103
20385SOL    HW271086   3.442  12.245  12.684 -1.2522  1.3504 -1.7176
20386SOL     OW71087   4.400   5.793  10.554 -0.3128 -0.3077 -0.4272
20386SOL    HW171088   4.441   5.707  10.560  1.5514  0.6171  3.8533
20386SOL    HW271089   4.309   5.779  10.577 -0.2122 -1.2463 -0.5701
20387SOL     OW71090   4.194   7.868   3.443 -0.4260  0.4220  0.1427
20387SOL    HW171091   4.216   7.950   3.399 -1.3671  1.0727  0.8500
20387SOL    HW271092   4.228   7.878   3.532  1.2087 -0.7740 -0.2885
20388SOL     OW71093   5.748   9.794   5.060  0.9752 -0.1166  0.5945
20388SOL    HW171094   5.717   9.804   4.970 -1.4335  0.5974  1.4388
20388SOL    HW271095   5.797   9.874   5.078  0.7646  0.1114  0.1653
20389SOL     OW71096   7.243   1.651  11.373  0.0104 -0.2489  0.1107
20389SOL    HW171097   7.148   1.645  11.382  0.1471 -0.3118  1.7419
20389SOL    HW271098   7.271   1.562  11.355 -0.1264 -0.4574  0.9062
20390SOL     OW71099   2.389   1.457   9.716  0.3349 -0.0412  0.1467
20390SOL    HW171100   2.326   1.488   9.651 -0.7140 -1.2965  0.5170
20390SOL    HW271101   2.339   1.455   9.798  0.5976 -1.7764  0.3042
20391SOL     OW71102   6.460   9.787   1.440  0.0282  0.2178 -0.0358
20391SOL    HW171103   6.455   9.856   1.373  1.7594  0.8572  0.4401
20391SOL    HW271104   6.523   9.725   1.404 -2.1856 -1.6825 -0.8822
20392SOL     OW71105   9.638   6.605   4.711  0.2043  0.2115 -0.4122
20392SOL    HW171106   9.628   6.565   4.624 -1.5561  0.8189 -0.5269
20392SOL    HW271107   9.548   6.622   4.740  0.7218 -0.2982  1.6972
20393SOL     OW71108   6.082  12.773   0.931 -0.2501  0.7960 -0.6415
20393SOL    HW171109   6.080  12.811   1.019  0.6614  0.4433 -0.4554
20393SOL    HW271110   6.174  12.780   0.904 -0.4069  0.3391 -1.3147
20394SOL     OW71111   1.155  12.981  13.235 -0.0919  0.2787  0.3005
20394SOL    HW171112   1.193  12.895  13.252 -1.6557 -0.8989 -1.5986
20394SOL    HW271113   1.110  13.005  13.316  0.6417 -0.5282  0.9569
20395SOL     OW71114   3.275   2.924   2.841  0.0023 -0.3355  1.1862
20395SOL    HW171115   3.295   2.916   2.935 -1.1863 -0.5657  1.4355
20395SOL    HW271116   3.184   2.952   2.838 -0.0847 -0.6822  0.0906
20396SOL     OW71117   9.683   0.634   0.629  0.5299  0.0259  0.4063
20396SOL    HW171118   9.656   0.577   0.557  0.0119 -1.5405  1.7526
20396SOL    HW271119   9.626   0.710   0.623 -0.0949 -0.4825 -0.3394
20397SOL     OW71120  10.845   0.205  12.192  0.3559  0.2205  0.1529
20397SOL    HW171121  10.846   0.274  12.258  0.6326  0.1903  0.1779
20397SOL    HW271122  10.807   0.247  12.114 -0.6648  0.0615  0.5415
20398SOL     OW71123  12.196  13.116  12.625 -0.1093 -0.4341 -0.0174
20398SOL    HW171124  12.160  13.027  12.633  1.6278 -1.1031  0.8636
20398SOL    HW271125  12.182  13.139  12.533  1.0337 -2.3941 -0.7507
20399SOL     OW71126   2.106  10.455   0.200  0.1679  0.0243 -0.4364
20399SOL    HW171127   2.154  10.392   0.253  0.6008 -0.2891 -1.1893
20399SOL    HW271128   2.124  10.540   0.242 -1.2931 -0.4238  1.2265
20400SOL     OW71129   6.962   6.546   3.375 -0.0547 -0.3057  0.4212
20400SOL    HW171130   6.932   6.485   3.308 -0.0687  0.5725 -0.3888
20400SOL    HW271131   6.888   6.553   3.436  0.6779 -2.7222  1.7695
20401SOL     OW71132  10.903   8.433   6.293 -0.2661 -0.8660 -0.3052
20401SOL    HW171133  10.918   8.430   6.388 -1.4576 -2.7480 -0.1234
20401SOL    HW271134  10.841   8.505   6.281  1.2992  0.6132  0.0689
20402SOL     OW71135   4.383   8.888   1.515 -0.0992  0.4137 -0.4252
20402SOL    HW171136   4.387   8.980   1.488  0.4506  0.5099 -0.0336
20402SOL    HW271137   4.294   8.877   1.549 -0.5887  0.4491 -1.6778
20403SOL     OW71138   5.122   6.343  12.382 -0.1188 -0.2086 -0.2239
20403SOL    HW171139   5.174   6.317  12.307 -1.0968 -1.0154 -0.6510
20403SOL    HW271140   5.130   6.271  12.444  0.0651  0.1048  0.1218
20404SOL     OW71141  11.880   2.274   7.149 -0.4904 -0.6365  0.1815
20404SOL    HW171142  11.949   2.215   7.181 -0.0006  0.3736  1.0549
20404SOL    HW271143  11.918   2.314   7.070  1.1282  1.9151  2.0647
20405SOL     OW71144  11.307   7.462   4.902 -0.2410 -0.1999 -0.2658
20405SOL    HW171145  11.281   7.389   4.958  1.4772  0.0007  0.8529
20405SOL    HW271146  11.369   7.512   4.955 -0.6094  1.5233 -1.3757
20406SOL     OW71147   8.307   6.476   0.875 -0.5974 -0.6753 -0.0407
20406SOL    HW171148   8.340   6.566   0.865  0.7040 -1.3161 -2.4721
20406SOL    HW271149   8.385   6.424   0.892 -1.1034 -1.5457 -0.3186
20407SOL     OW71150   4.911  12.408   9.271  0.1069  0.8115  0.4076
20407SOL    HW171151   4.857  12.340   9.311 -0.4506  1.3027  0.5109
20407SOL    HW271152   4.997  12.368   9.259 -0.4422 -0.1981 -0.3357
20408SOL     OW71153   1.107   9.898   6.351 -0.4906 -0.2159 -0.0126
20408SOL    HW171154   1.075   9.882   6.262 -0.4689  1.1557 -0.2939
20408SOL    HW271155   1.164   9.823   6.370  1.8629  0.8273 -2.3238
20409SOL     OW71156   3.507   0.729   0.760  0.1026 -0.1001  0.4056
20409SOL    HW171157   3.434   0.790   0.768  0.2894  0.0152  1.3036
20409SOL    HW271158   3.475   0.660   0.701 -0.4373  0.3695  0.1432
20410SOL     OW71159   6.679  10.166  11.195 -0.0223 -0.6630 -0.1930
20410SOL    HW171160   6.690  10.258  11.221 -2.5445  0.0662 -1.3894
20410SOL    HW271161   6.644  10.170  11.106 -0.8565 -2.7689 -0.0229
20411SOL     OW71162   6.516   0.472   2.798  0.3602  0.0499 -0.1062
20411SOL    HW171163   6.423   0.463   2.816  0.0134  1.4082 -1.0634
20411SOL    HW271164   6.551   0.383   2.803 -0.7917 -0.3530  1.2231
20412SOL     OW71165  12.837   8.333   3.608  0.0136  0.2525  0.2274
20412SOL    HW171166  12.781   8.256   3.609  0.9256 -0.4825  2.4379
20412SOL    HW271167  12.923   8.300   3.583  0.3279  0.5798  0.8328
20413SOL     OW71168   0.098  10.409   5.842  0.3161  0.4386  0.0192
20413SOL    HW171169   0.047  10.489   5.856 -1.1609 -0.6958  1.5828
20413SOL    HW271170   0.182  10.426   5.885  0.2498  1.3614 -0.1968
20414SOL     OW71171   6.282   8.164   7.322 -0.0621  0.0038 -0.6440
20414SOL    HW171172   6.234   8.106   7.263 -0.2226 -1.6685  1.0368
20414SOL    HW271173   6.217   8.189   7.389  0.6327  0.1226  0.0018
20415SOL     OW71174  12.341  12.488  11.776 -0.1118 -0.3979 -0.3033
20415SOL    HW171175  12.350  12.582  11.761  0.9355 -0.5123 -0.4818
20415SOL    HW271176  12.335  12.450  11.688  1.1006 -0.6314 -0.3007
20416SOL     OW71177   5.406   7.825   9.056  0.6276  0.3607  0.1160
20416SOL    HW171178   5.320   7.790   9.035  1.0000 -0.2010 -0.5208
20416SOL    HW271179   5.406   7.913   9.020 -0.4211  1.1642  1.9725
20417SOL     OW71180   8.934   0.306  10.732 -0.5434 -0.2755 -0.2374
20417SOL    HW171181   8.950   0.306  10.826 -0.2071  0.6752 -0.2831
20417SOL    HW271182   8.898   0.219  10.714  0.2975 -0.8262  0.6032
20418SOL     OW71183   2.768   6.826  12.309 -0.9026 -0.0841  0.3847
20418SOL    HW171184   2.725   6.747  12.277 -1.2778  0.4882 -0.5556
20418SOL    HW271185   2.856   6.823  12.272 -0.6929 -0.3940  0.9018
20419SOL     OW71186   3.525  11.402   3.147 -0.1962  0.4450 -0.5172
20419SOL    HW171187   3.564  11.481   3.109  0.7393  0.2397 -0.0207
20419SOL    HW271188   3.600  11.347   3.170 -0.8253 -0.4905 -0.6279
20420SOL     OW71189   7.853   6.926   8.230  0.3440 -0.5720 -0.7279
20420SOL    HW171190   7.939   6.921   8.190  1.1644 -2.0807  1.0646
20420SOL    HW271191   7.796   6.876   8.172  1.0265 -0.8785 -1.1422
20421SOL     OW71192   4.936  11.340  13.001 -0.2835  0.7539 -0.4583
20421SOL    HW171193   4.952  11.432  12.978  0.1857  0.7740 -0.0784
20421SOL    HW271194   4.948  11.337  13.096 -0.4180  0.3236 -0.4537
20422SOL     OW71195   7.129   6.896  11.369  0.1465  0.2185 -0.4765
20422SOL    HW171196   7.150   6.864  11.282  0.1250 -0.0535 -0.3839
20422SOL    HW271197   7.034   6.907  11.369  0.1541  0.2797 -0.5091
20423SOL     OW71198   3.712   1.646   7.268 -0.3951 -0.3710 -0.4530
20423SOL    HW171199   3.655   1.587   7.317 -1.0160  0.0593 -0.6458
20423SOL    HW271200   3.700   1.620   7.176 -2.2705  1.3431 -0.7715
20424SOL     OW71201   2.840   6.568   2.083 -0.4933  0.0719 -0.4502
20424SOL    HW171202   2.881   6.635   2.028 -0.4286  0.3310 -0.0890
20424SOL    HW271203   2.843   6.489   2.030  1.1630 -0.1038 -0.1502
20425SOL     OW71204   2.932   1.625  12.779  0.2311  0.0956  0.0680
20425SOL    HW171205   2.921   1.616  12.685  1.3084 -0.0399 -0.0527
20425SOL    HW271206   2.854   1.673  12.808 -1.2120 -1.7120 -0.5772
20426SOL     OW71207   6.119  10.130  10.544  0.8282 -0.6812 -0.3868
20426SOL    HW171208   6.143  10.180  10.466 -1.2936  1.0439 -0.0303
20426SOL    HW271209   6.091  10.045  10.510 -2.7805  0.9322 -1.9879
20427SOL     OW71210   3.863  13.010  10.907  0.2487  0.2553 -0.5112
20427SOL    HW171211   3.927  12.945  10.878 -1.2696 -0.1107 -3.3611
20427SOL    HW271212   3.782  12.961  10.919 -0.4913  1.3302 -0.9638
20428SOL     OW71213  11.240   2.342   0.069 -0.2776 -0.6272 -0.0597
20428SOL    HW171214  11.253   2.416   0.129 -0.0709 -0.9208  0.2602
20428SOL    HW271215  11.150   2.313   0.086  0.2728 -1.6899  1.2338
20429SOL     OW71216   9.082  10.660   5.283  0.0479  0.0490 -0.7316
20429SOL    HW171217   9.146  10.604   5.327  0.8769  1.3456 -0.2381
20429SOL    HW271218   9.133  10.706   5.217 -0.3361  1.2321 -0.2155
20430SOL     OW71219  11.083   6.470   2.273  0.1243  0.2763 -0.4217
20430SOL    HW171220  11.014   6.426   2.321  0.0114  0.4507 -0.4216
20430SOL    HW271221  11.057   6.463   2.181 -1.5774  3.0840 -0.2713
20431SOL     OW71222   2.469   7.343  11.755  0.2289  0.1698  0.0286
20431SOL    HW171223   2.419   7.266  11.781 -0.1710  0.3811 -0.1153
20431SOL    HW271224   2.433   7.368  11.670 -0.7329  1.4499  0.7728
20432SOL     OW71225   1.007  11.184   6.952  0.0659  0.0954 -0.2758
20432SOL    HW171226   0.942  11.114   6.953  0.3784 -0.2202  1.7774
20432SOL    HW271227   0.972  11.248   6.889 -2.7036  0.3601  1.3829
20433SOL     OW71228   1.863   7.090  10.841 -0.1371  0.5318 -0.0580
20433SOL    HW171229   1.921   7.025  10.802 -0.5666 -0.4546  0.8883
20433SOL    HW271230   1.919   7.139  10.902  0.1344  0.9223 -0.6068
20434SOL     OW71231   5.739  12.087   4.508 -0.4457  0.5090 -0.1239
20434SOL    HW171232   5.793  12.164   4.490 -0.3414  0.1659 -1.4043
20434SOL    HW271233   5.779  12.017   4.456 -1.9996  0.1963 -0.9636
20435SOL     OW71234   5.716  12.150   1.422  0.1679  0.1977 -0.2412
20435SOL    HW171235   5.682  12.135   1.510 -0.0158  0.2524 -0.3024
20435SOL    HW271236   5.639  12.147   1.365  0.6484 -3.8805 -0.9650
20436SOL     OW71237   4.350   0.021   5.051 -0.4992 -0.2669  0.1311
20436SOL    HW171238   4.311  -0.066   5.049  0.2256 -0.5821 -1.1262
20436SOL    HW271239   4.385   0.035   4.963  1.1753  0.4565  0.8552
20437SOL     OW71240  13.080   6.280   6.612  0.1987 -0.2240 -0.3179
20437SOL    HW171241  13.131   6.361   6.619  0.7990 -0.4926 -1.3467
20437SOL    HW271242  13.071   6.265   6.518  1.9885 -2.5078 -0.2128
20438SOL     OW71243  10.938   8.773  11.769  0.2586 -0.2392 -0.4063
20438SOL    HW171244  10.869   8.825  11.812  1.8594  0.8158  1.0443
20438SOL    HW271245  10.906   8.760  11.680 -2.8314 -1.7395  0.7720
20439SOL     OW71246  11.424   8.181  12.443  0.0533  0.6110  0.3345
20439SOL    HW171247  11.513   8.176  12.476 -0.4303 -1.0504  1.5277
20439SOL    HW271248  11.378   8.234  12.509  0.2643  1.9716 -0.5859
20440SOL     OW71249  12.566   8.191   6.624  0.2199 -0.9218 -0.0482
20440SOL    HW171250  12.536   8.268   6.577  1.6003 -0.7263 -0.6447
20440SOL    HW271251  12.550   8.211   6.716  1.3885  0.4793 -0.1209
20441SOL     OW71252  10.122   2.744   4.887 -0.0772 -0.1746 -0.2984
20441SOL    HW171253  10.121   2.687   4.810  0.1122  0.5245 -0.8299
20441SOL    HW271254  10.198   2.716   4.938 -0.0888 -0.5081 -0.4655
20442SOL     OW71255   3.396   1.590   1.600 -0.3244  0.1156  0.1505
20442SOL    HW171256   3.386   1.568   1.507 -0.1024  0.0260  0.1490
20442SOL    HW271257   3.381   1.684   1.603  1.4624  0.4526 -0.2489
20443SOL     OW71258  11.277  10.979   7.723  0.2354 -0.7423 -1.0101
20443SOL    HW171259  11.356  10.968   7.670  1.4131 -1.7937  0.8384
20443SOL    HW271260  11.260  11.073   7.723  2.8540 -0.1644  0.3267
20444SOL     OW71261  12.931   3.285  13.082 -0.1046 -0.5653 -0.4722
20444SOL    HW171262  12.880   3.365  13.098 -0.9411 -0.6602 -2.3957
20444SOL    HW271263  12.929   3.274  12.987  0.4872 -2.5594 -0.2992
20445SOL     OW71264   8.138   0.202  11.629 -0.5419  0.4007 -0.1524
20445SOL    HW171265   8.229   0.220  11.649 -0.9764  1.2176  1.2267
20445SOL    HW271266   8.104   0.284  11.593 -0.7753  0.1437 -0.5346
20446SOL     OW71267   9.359   4.971  12.730 -0.3165  0.1383 -0.1450
20446SOL    HW171268   9.292   4.920  12.685  0.0668  1.8801 -2.9310
20446SOL    HW271269   9.320   4.991  12.815 -2.0613 -1.4141 -0.5126
20447SOL     OW71270  11.793   6.630   5.471  0.0157  0.3690 -0.1300
20447SOL    HW171271  11.845   6.711   5.473  1.8647 -0.7627  1.2317
20447SOL    HW271272  11.848   6.567   5.426  0.4645 -1.2120  2.4139
20448SOL     OW71273   9.181   8.506   5.674  0.1899  0.0387 -0.3030
20448SOL    HW171274   9.232   8.540   5.747 -1.2873 -0.7626  1.1785
20448SOL    HW271275   9.095   8.486   5.712 -0.4649 -0.9006 -2.1407
20449SOL     OW71276  13.060  13.229   8.959  0.2034 -0.4129  0.7945
20449SOL    HW171277  13.136  13.201   8.907 -0.9049 -0.8857 -0.6367
20449SOL    HW271278  12.991  13.166   8.937 -1.0253  0.8217  0.9706
20450SOL     OW71279   4.484   6.427   4.090 -0.7133 -0.0247 -0.5622
20450SOL    HW171280   4.389   6.424   4.098 -0.7676  0.3723 -1.0278
20450SOL    HW271281   4.506   6.358   4.028 -0.6499 -0.4568 -0.0618
20451SOL     OW71282   6.061   8.375   3.341 -0.4139  0.6687 -0.9094
20451SOL    HW171283   6.049   8.399   3.433  1.6083  0.0080 -0.4063
20451SOL    HW271284   6.139   8.423   3.314 -0.5400  0.2556 -2.0584
20452SOL     OW71285   8.504   4.812   1.222  0.5075 -0.3521  0.3771
20452SOL    HW171286   8.532   4.801   1.132  2.4605  0.7250  0.7996
20452SOL    HW271287   8.567   4.762   1.274  0.1669  0.0629  1.2155
20453SOL     OW71288   2.123   3.303   5.545  0.0765 -0.0255  0.3940
20453SOL    HW171289   2.046   3.283   5.599  0.0122 -0.3727  0.1736
20453SOL    HW271290   2.193   3.318   5.609  0.0483 -0.6265  0.5777
20454SOL     OW71291   9.492  11.531   1.500 -0.2709  0.2608  0.0619
20454SOL    HW171292   9.547  11.457   1.473 -1.8605 -0.4236 -1.4570
20454SOL    HW271293   9.460  11.569   1.419 -1.1142  1.3815  0.8846
20455SOL     OW71294  12.827  11.478  13.255 -0.3277  0.5179  0.0289
20455SOL    HW171295  12.815  11.570  13.279 -1.5346  0.2298  0.5668
20455SOL    HW271296  12.760  11.461  13.189 -2.6744 -0.9384  2.5932
20456SOL     OW71297   9.615   6.297   1.787 -0.3256 -0.1956 -0.3275
20456SOL    HW171298   9.633   6.278   1.879  1.0269  0.1602 -0.5071
20456SOL    HW271299   9.699   6.323   1.751 -1.0882  0.9291 -1.3607
20457SOL     OW71300  11.576   2.348  10.839  0.6697 -0.3891 -0.0488
20457SOL    HW171301  11.536   2.434  10.850  1.2579 -0.0355 -0.6838
20457SOL    HW271302  11.628   2.355  10.759  1.1979 -1.1532  0.2195
20458SOL     OW71303  11.365   3.237  11.255  0.0701 -0.4491 -0.0069
20458SOL    HW171304  11.430   3.242  11.325  0.6591  2.3721 -0.6512
20458SOL    HW271305  11.286   3.273  11.294 -0.5369 -1.8320  0.1019
20459SOL     OW71306   8.946   0.740   5.692  0.6843 -0.3809  0.3172
20459SOL    HW171307   8.850   0.735   5.684  0.7193  0.4917 -1.1481
20459SOL    HW271308   8.978   0.673   5.631  0.9815  0.6496 -0.7108
20460SOL     OW71309   1.605   8.877  13.136 -0.1114  0.0358 -0.2584
20460SOL    HW171310   1.530   8.821  13.116 -1.5716  1.6438  0.4050
20460SOL    HW271311   1.633   8.850  13.223  0.5622 -1.0460 -0.7957
20461SOL     OW71312   2.315   5.589   7.702 -0.1681  0.2803 -0.3469
20461SOL    HW171313   2.407   5.606   7.719 -0.4176  2.4754 -0.9467
20461SOL    HW271314   2.300   5.619   7.612 -1.3141 -0.7392 -0.5303
20462SOL     OW71315   5.536   8.464   3.439  0.0991  0.1154 -0.1799
20462SOL    HW171316   5.587   8.523   3.495  0.5495 -0.4170 -0.0224
20462SOL    HW271317   5.451   8.456   3.484 -0.5748  1.9085 -1.0260
20463SOL     OW71318  11.227   3.613   7.757  0.1879  0.7553  0.6647
20463SOL    HW171319  11.241   3.681   7.823  0.1341  0.5644  0.8732
20463SOL    HW271320  11.310   3.566   7.753  0.5201  1.3779 -0.1090
20464SOL     OW71321  12.615  11.330   8.311  0.6613  0.0344 -0.7608
20464SOL    HW171322  12.620  11.396   8.243  3.0808  0.3858 -0.3330
20464SOL    HW271323  12.661  11.254   8.275  1.7813  0.1514  0.3318
20465SOL     OW71324   0.889  10.203   4.755  0.4840 -0.2788 -0.1844
20465SOL    HW171325   0.970  10.247   4.730 -0.2112  0.2272 -1.5982
20465SOL    HW271326   0.874  10.230   4.846  0.9451  1.0745 -0.4986
20466SOL     OW71327   0.954   8.104   0.084 -0.3118 -0.1470 -0.3072
20466SOL    HW171328   1.027   8.066   0.035 -0.3633  1.3758 -1.6558
20466SOL    HW271329   0.919   8.031   0.135 -0.4638 -1.9457 -2.8071
20467SOL     OW71330   3.131   0.381   5.248 -0.0883  0.1005 -0.7327
20467SOL    HW171331   3.084   0.457   5.284  0.9112  0.7972 -0.8611
20467SOL    HW271332   3.144   0.403   5.156 -0.2670 -0.4738 -0.8958
20468SOL     OW71333   0.609   1.653   6.616  0.0398  0.0688  0.1403
20468SOL    HW171334   0.619   1.734   6.667  0.2474 -0.3144  0.7126
20468SOL    HW271335   0.561   1.594   6.674 -0.0059 -0.2586 -0.2317
20469SOL     OW71336   3.560  10.746   5.917  0.4016 -0.6646  0.4013
20469SOL    HW171337   3.465  10.736   5.929  0.1838  1.8416  1.2618
20469SOL    HW271338   3.598  10.707   5.996  0.0580 -0.9500  0.4295
20470SOL     OW71339   3.920   9.677   9.237 -0.0796  0.2971  0.2593
20470SOL    HW171340   3.994   9.730   9.267 -0.0854  0.4809 -0.0427
20470SOL    HW271341   3.894   9.718   9.154  0.4371 -0.6722 -0.3928
20471SOL     OW71342   9.085  13.218   1.702  0.1812 -0.2892  0.4149
20471SOL    HW171343   9.165  13.176   1.668  1.7159  0.2508  3.1014
20471SOL    HW271344   9.016  13.155   1.684  1.3439 -1.2311 -1.0905
20472SOL     OW71345   4.449   0.626   6.421 -0.2208 -0.4647 -0.6076
20472SOL    HW171346   4.361   0.612   6.388 -0.4081  0.9846 -0.7783
20472SOL    HW271347   4.448   0.591   6.510 -1.2367  0.3277 -0.2912
20473SOL     OW71348  12.915   9.933   0.866 -0.1259 -0.3940  0.1738
20473SOL    HW171349  12.898   9.915   0.958 -2.0025 -0.2536 -0.1047
20473SOL    HW271350  12.854   9.876   0.818  0.7124 -0.3649 -0.9738
20474SOL     OW71351   8.784   1.904   3.044  0.0574 -0.8872 -0.3312
20474SOL    HW171352   8.828   1.988   3.029 -1.5775  0.1314  0.3298
20474SOL    HW271353   8.777   1.864   2.958 -0.4484  0.3306 -0.8665
20475SOL     OW71354   7.608   7.746   3.184  0.0912  0.1011 -0.2239
20475SOL    HW171355   7.547   7.806   3.142 -1.0344 -1.2614 -0.6478
20475SOL    HW271356   7.571   7.659   3.167  3.3971 -1.0516 -2.6439
20476SOL     OW71357   7.410  12.021   6.305  0.0410 -0.0551 -0.6226
20476SOL    HW171358   7.431  12.093   6.364  0.2665 -0.3973 -0.2738
20476SOL    HW271359   7.314  12.015   6.307  0.0956 -1.1821  1.1174
20477SOL     OW71360   2.175  11.778   9.864 -0.6910 -0.5030 -0.2613
20477SOL    HW171361   2.237  11.718   9.906 -0.9596 -0.4469  0.2221
20477SOL    HW271362   2.211  11.792   9.777  1.9857  2.3404  1.0716
20478SOL     OW71363   4.198  11.860   7.392 -0.7886  0.0402 -0.2700
20478SOL    HW171364   4.289  11.854   7.364 -0.2267 -2.1847  1.7031
20478SOL    HW271365   4.193  11.941   7.442 -0.6418  1.5910 -2.6473
20479SOL     OW71366   2.607   2.676   1.332  0.7146  0.2332  0.5061
20479SOL    HW171367   2.696   2.707   1.353  0.4002  0.8638  0.9513
20479SOL    HW271368   2.609   2.583   1.353  0.9415  0.4775  1.6334
20480SOL     OW71369   5.997  10.002  13.145 -0.5139  0.2313  0.0888
20480SOL    HW171370   6.029  10.063  13.211 -0.0098 -0.2410  0.2892
20480SOL    HW271371   6.037  10.032  13.063 -0.9333  0.6627  0.0418
20481SOL     OW71372   7.906   2.749   3.244 -0.0584  0.2777 -0.4252
20481SOL    HW171373   7.820   2.720   3.213  0.9401 -1.7365 -1.4759
20481SOL    HW271374   7.965   2.731   3.171  1.5040  0.3651  0.7692
20482SOL     OW71375   6.651   8.796   3.242 -0.3952 -0.1082 -0.5413
20482SOL    HW171376   6.557   8.815   3.231 -0.3101  0.1365 -0.8637
20482SOL    HW271377   6.671   8.828   3.329 -0.9256 -1.4403  0.1006
20483SOL     OW71378   5.505   2.786  10.994 -0.3249 -0.1578  0.1720
20483SOL    HW171379   5.476   2.733  10.920  0.2079  0.4612 -0.4860
20483SOL    HW271380   5.518   2.874  10.958 -1.5812  0.5282  1.3420
20484SOL     OW71381  10.451   9.305  13.259 -0.1229  0.0611  0.3268
20484SOL    HW171382  10.433   9.298  13.165  0.7889  0.7281  0.0825
20484SOL    HW271383  10.424   9.394  13.283 -0.3777 -0.1145  0.7000
20485SOL     OW71384  11.184   9.636  10.024  0.0612 -0.2114  0.7186
20485SOL    HW171385  11.203   9.698  10.095  0.0215  0.4142  0.2018
20485SOL    HW271386  11.089   9.645  10.011 -0.0142 -0.7006  0.9245
20486SOL     OW71387   6.096  13.024  10.428 -0.0293 -0.0999  0.1021
20486SOL    HW171388   6.075  13.085  10.357  0.5377 -1.3626 -1.1935
20486SOL    HW271389   6.011  12.992  10.458 -0.2572 -0.1081 -0.5254
20487SOL     OW71390   6.384   8.048  12.325  0.2736 -0.3225 -0.2024
20487SOL    HW171391   6.307   8.056  12.382  0.5826  0.8844  0.0706
20487SOL    HW271392   6.347   8.045  12.236 -0.3092 -3.5861  0.0114
20488SOL     OW71393   7.548   7.518   1.156 -0.1697 -0.4241  0.0846
20488SOL    HW171394   7.544   7.494   1.249 -1.4205 -0.6730 -0.0166
20488SOL    HW271395   7.602   7.449   1.116  1.9504  0.6812  0.8888
20489SOL     OW71396   0.619  11.941   4.417 -0.0253  0.3005 -0.1560
20489SOL    HW171397   0.685  12.003   4.449  0.3824 -0.0147 -0.3802
20489SOL    HW271398   0.628  11.865   4.474  0.1016  0.0838 -0.4621
20490SOL     OW71399   6.202   9.611  13.045 -0.5655  0.0343 -0.7943
20490SOL    HW171400   6.164   9.685  12.997  0.7218  0.4408 -1.2380
20490SOL    HW271401   6.127   9.559  13.073 -1.4268  0.7136 -1.7794
20491SOL     OW71402   1.042   9.202   0.683 -0.3202 -0.2275  0.2676
20491SOL    HW171403   1.097   9.123   0.683  1.2148  0.7881 -0.3904
20491SOL    HW271404   1.099   9.271   0.717 -0.9618  1.0112 -1.0499
20492SOL     OW71405   2.690  13.243  10.777  0.3223  0.0004  0.5090
20492SOL    HW171406   2.767  13.297  10.794 -1.2794  2.5972 -0.0311
20492SOL    HW271407   2.624  13.275  10.837 -1.5565  0.7164 -1.7764
20493SOL     OW71408   2.092   1.382   8.689  0.2807  0.1741 -0.3769
20493SOL    HW171409   2.107   1.475   8.701  2.1651  0.0112 -1.1106
20493SOL    HW271410   2.016   1.377   8.631 -2.7450  1.0887  3.1212
20494SOL     OW71411   6.066   1.873   6.846  0.1146  0.0932 -0.2984
20494SOL    HW171412   5.998   1.808   6.866  1.6808 -1.6024 -0.2069
20494SOL    HW271413   6.057   1.888   6.752  0.8638 -1.7125 -0.7073
20495SOL     OW71414   5.240  10.507   9.206  0.0176  0.4938 -0.2481
20495SOL    HW171415   5.167  10.478   9.262  1.1900 -1.6835  0.2665
20495SOL    HW271416   5.198  10.558   9.137 -2.2290 -1.7108 -0.6903
20496SOL     OW71417   0.676   0.456  11.893 -0.8352  0.0212  0.0368
20496SOL    HW171418   0.710   0.417  11.812 -3.6850 -2.6635 -0.0279
20496SOL    HW271419   0.596   0.407  11.912 -2.4856  3.2436  2.3200
20497SOL     OW71420   0.252  11.991   8.300  0.1425 -0.0506 -0.3679
20497SOL    HW171421   0.187  11.952   8.242 -0.8609  0.2862  0.4980
20497SOL    HW271422   0.248  11.937   8.379  2.1779 -1.1022 -0.9256
20498SOL     OW71423   1.942  12.683   3.205  0.4130 -0.2802 -0.1348
20498SOL    HW171424   1.985  12.618   3.261  0.6204 -0.1287 -0.1179
20498SOL    HW271425   2.013  12.728   3.161  0.4390  1.5297  1.5966
20499SOL     OW71426   4.558  11.631  10.695 -0.0202  0.3946  0.4455
20499SOL    HW171427   4.603  11.676  10.767 -2.3428  0.3056  2.0378
20499SOL    HW271428   4.526  11.702  10.639  0.0934  0.5490  0.5752
20500SOL     OW71429  11.258   8.433   7.213 -0.1423  0.3456  0.2879
20500SOL    HW171430  11.193   8.397   7.274 -0.6291  0.0016 -0.4200
20500SOL    HW271431  11.260   8.370   7.141  0.6841  0.5721  0.1074
20501SOL     OW71432   9.188   6.082  12.631  0.3315 -0.5761 -0.0452
20501SOL    HW171433   9.118   6.020  12.652 -0.6674  0.1851 -1.0013
20501SOL    HW271434   9.250   6.074  12.703 -1.3973 -0.2955  1.5296
20502SOL     OW71435   1.089  12.303   7.409 -0.1949 -0.7422 -0.4779
20502SOL    HW171436   1.002  12.265   7.413 -0.4209 -0.0876  2.3275
20502SOL    HW271437   1.148  12.232   7.435 -0.4135  0.0462  2.4860
20503SOL     OW71438   2.716   8.432   2.281  0.2868  0.2109 -0.1432
20503SOL    HW171439   2.786   8.373   2.254  0.6112  0.8324 -0.6873
20503SOL    HW271440   2.692   8.403   2.369  1.8351  0.5434  0.4156
20504SOL     OW71441   1.393   1.644  11.367  0.2337  0.2384  0.4851
20504SOL    HW171442   1.317   1.696  11.341  0.7176  0.4623 -0.5714
20504SOL    HW271443   1.448   1.705  11.416  0.8374  0.8000 -0.8184
20505SOL     OW71444  12.624   8.622  11.597  0.5278  0.2226  0.2958
20505SOL    HW171445  12.706   8.671  11.606  1.2232 -0.8298 -0.0082
20505SOL    HW271446  12.629   8.584  11.509 -0.0226 -0.3044  0.4891
20506SOL     OW71447   9.207   8.531   3.257  0.1966 -0.0386 -0.1578
20506SOL    HW171448   9.133   8.481   3.290  0.0385 -1.0702 -1.9703
20506SOL    HW271449   9.230   8.589   3.329 -0.9845 -1.2118  1.2378
20507SOL     OW71450   2.340   7.983   8.192 -0.8496  0.2623  0.4895
20507SOL    HW171451   2.253   8.016   8.213 -1.4129 -1.2064  0.5169
20507SOL    HW271452   2.327   7.924   8.118  0.4447  1.6937 -0.9878
20508SOL     OW71453  13.068   5.198  11.097  0.0127 -0.3334  0.1808
20508SOL    HW171454  13.114   5.269  11.142  0.6429  0.1674 -1.2065
20508SOL    HW271455  12.975   5.222  11.104  0.2241  0.7304 -0.3829
20509SOL     OW71456  11.576  10.466   0.278 -0.2751  0.2416  0.7679
20509SOL    HW171457  11.580  10.460   0.182 -0.8211 -0.3282  0.7707
20509SOL    HW271458  11.646  10.526   0.301  0.0337  0.1815  0.0272
20510SOL     OW71459  13.309   5.629   5.018 -0.4600 -0.2772  0.1954
20510SOL    HW171460  13.368   5.636   4.944  0.4952  0.1184  0.9725
20510SOL    HW271461  13.314   5.537   5.044 -0.6526 -0.3745 -0.1068
20511SOL     OW71462  10.778   7.505  12.357  0.3552  0.7015  0.2289
20511SOL    HW171463  10.869   7.483  12.375  0.3066  0.5135  0.2480
20511SOL    HW271464  10.774   7.600  12.365  0.4172  0.6605  0.8409
20512SOL     OW71465  10.722  10.538  11.241  0.1281  0.2333  0.4214
20512SOL    HW171466  10.776  10.564  11.166 -0.9906 -0.1394 -0.5471
20512SOL    HW271467  10.705  10.445  11.228  0.1991  0.0825  1.3334
20513SOL     OW71468   9.414   3.499   7.492  0.1098  0.3031 -0.0493
20513SOL    HW171469   9.365   3.421   7.519  0.3823  0.3950  0.7282
20513SOL    HW271470   9.469   3.520   7.567  1.3754  0.1897 -0.9080
20514SOL     OW71471   9.435   4.227   4.165 -0.4156 -0.0667  0.0799
20514SOL    HW171472   9.344   4.257   4.172 -0.5736  0.3708 -2.5479
20514SOL    HW271473   9.488   4.306   4.175 -0.4743  0.0623 -0.5768
20515SOL     OW71474   7.199  10.792   4.187 -0.3438 -0.6471  0.2987
20515SOL    HW171475   7.134  10.825   4.249 -0.3130 -2.3018  1.2894
20515SOL    HW271476   7.228  10.709   4.225  0.6381 -1.0884 -1.3003
20516SOL     OW71477   3.743   7.141   5.181 -0.6475 -0.0530  0.5794
20516SOL    HW171478   3.769   7.049   5.182  0.6316  0.2815  2.3273
20516SOL    HW271479   3.823   7.189   5.161 -1.1865  0.7223  0.2133
20517SOL     OW71480  10.531  11.279  10.300  0.3625 -0.1948 -0.2200
20517SOL    HW171481  10.495  11.344  10.361  2.2740  1.1351 -0.4285
20517SOL    HW271482  10.556  11.330  10.223 -0.5613 -1.6263 -1.5261
20518SOL     OW71483   1.229   6.466   8.478 -0.7562 -0.3077  0.1537
20518SOL    HW171484   1.292   6.530   8.445 -0.6761 -1.5784 -2.4444
20518SOL    HW271485   1.248   6.459   8.571  2.0092  0.4222 -0.2560
20519SOL     OW71486   2.955  12.548   9.678  0.3362  0.5438 -0.2305
20519SOL    HW171487   3.011  12.479   9.643  0.7569  0.0568  1.3013
20519SOL    HW271488   2.996  12.630   9.650  0.1588  0.2009 -1.5624
20520SOL     OW71489  12.441  10.126   7.852 -0.7414  0.1581 -0.2372
20520SOL    HW171490  12.389  10.178   7.790  0.4521  1.4331 -0.2244
20520SOL    HW271491  12.505  10.081   7.797  0.1349  1.0639  0.0105
20521SOL     OW71492   5.489   1.465   4.082  0.0105  0.0152  0.3613
20521SOL    HW171493   5.552   1.394   4.089 -0.1713 -0.1142  0.6623
20521SOL    HW271494   5.409   1.432   4.123 -0.5608 -0.1723 -0.8333
20522SOL     OW71495  10.245   9.149   4.519  0.0337  0.0498 -0.4333
20522SOL    HW171496  10.190   9.155   4.597 -0.6850  0.8667 -0.9843
20522SOL    HW271497  10.302   9.227   4.524  0.4975 -0.2898 -0.3495
20523SOL     OW71498   2.631   2.224   2.711  0.1805  0.1088  0.2793
20523SOL    HW171499   2.686   2.227   2.789 -0.1993  1.0349  0.5316
20523SOL    HW271500   2.541   2.226   2.746 -0.1164 -2.8915 -0.0437
20524SOL     OW71501   2.345   6.186   1.958  0.0550  0.0416 -0.1140
20524SOL    HW171502   2.384   6.111   2.003  0.3152  0.4655  0.3825
20524SOL    HW271503   2.251   6.171   1.964  0.1033 -0.2381 -0.0082
20525SOL     OW71504   2.729  10.737  10.737  0.2045 -0.0227 -0.0121
20525SOL    HW171505   2.811  10.779  10.764  2.1825 -2.8009 -1.1945
20525SOL    HW271506   2.736  10.732  10.641 -1.2158 -0.5961 -0.0949
20526SOL     OW71507   0.837   1.332  11.573 -0.4541  0.3655  0.6080
20526SOL    HW171508   0.904   1.332  11.505 -0.3483  0.1553  0.7117
20526SOL    HW271509   0.771   1.395  11.543 -0.7870 -0.2952 -0.0588
20527SOL     OW71510  11.165   9.726   9.757 -0.2911  0.0894  0.0710
20527SOL    HW171511  11.183   9.702   9.848  1.4596 -0.2894 -0.3471
20527SOL    HW271512  11.219   9.667   9.705  0.4507  1.7462 -1.1469
20528SOL     OW71513   0.456  12.351   8.985  0.1013  0.4353 -0.5843
20528SOL    HW171514   0.459  12.416   8.916  1.2328  0.6279 -0.3798
20528SOL    HW271515   0.494  12.395   9.062  0.0958 -0.1891 -0.2131
20529SOL     OW71516  10.284   3.581   9.473  0.5557 -0.4820  1.0916
20529SOL    HW171517  10.230   3.595   9.395 -1.5921 -0.4652  2.4826
20529SOL    HW271518  10.304   3.669   9.505 -1.3869 -0.4188  2.3147
20530SOL     OW71519   5.560   9.317   4.416 -0.1519 -0.3926  0.4131
20530SOL    HW171520   5.500   9.352   4.351  0.3851  1.1853  0.7401
20530SOL    HW271521   5.561   9.222   4.399  1.2117  0.0976 -2.9644
20531SOL     OW71522   8.568  10.500   7.787 -0.4938 -0.7194 -0.0296
20531SOL    HW171523   8.547  10.591   7.762 -0.2146 -0.6366  0.0361
20531SOL    HW271524   8.485  10.464   7.816 -1.4108 -1.5439 -3.2293
20532SOL     OW71525   4.569   4.639  12.548 -0.0459  0.1981  0.1484
20532SOL    HW171526   4.576   4.637  12.452  0.2615  0.5923  0.1562
20532SOL    HW271527   4.571   4.547  12.574 -1.5540  0.0024 -0.3074
20533SOL     OW71528   0.127   1.329   6.152 -0.5683  0.9238 -0.1979
20533SOL    HW171529   0.072   1.313   6.075  0.3124  0.5599 -0.7649
20533SOL    HW271530   0.066   1.324   6.226 -1.4116  1.2080 -0.8601
20534SOL     OW71531   7.006  11.364   3.319 -0.4097  0.2024  0.0800
20534SOL    HW171532   7.069  11.436   3.311 -0.2169  0.2369  1.5860
20534SOL    HW271533   6.941  11.382   3.252  0.3693  1.0181 -0.4887
20535SOL     OW71534   3.544  12.240   6.147 -0.3360 -0.0883 -0.4570
20535SOL    HW171535   3.572  12.252   6.238 -0.8340 -0.5941 -0.2301
20535SOL    HW271536   3.454  12.209   6.154  0.1118 -1.6153 -1.0633
20536SOL     OW71537   1.578  13.045   3.699  0.2331  0.2981  0.0026
20536SOL    HW171538   1.565  12.952   3.716  0.9324  0.1095 -0.4583
20536SOL    HW271539   1.568  13.087   3.784  2.1114 -0.4399  0.6183
20537SOL     OW71540   5.440   9.229  11.810 -0.1703  0.4696 -0.0366
20537SOL    HW171541   5.350   9.211  11.780 -0.0563 -0.0971 -0.0580
20537SOL    HW271542   5.478   9.142  11.823  0.0055  0.7042  1.0931
20538SOL     OW71543   0.956  10.746  11.596 -0.4477  0.5077  0.0342
20538SOL    HW171544   1.003  10.705  11.669 -0.2636 -0.2921 -0.5210
20538SOL    HW271545   1.015  10.815  11.566  1.2456 -1.5268 -1.7284
20539SOL     OW71546   9.159   9.237   8.580 -0.2419  0.4055  0.3110
20539SOL    HW171547   9.235   9.288   8.551 -0.0161  0.3298  0.7632
20539SOL    HW271548   9.086   9.300   8.579 -0.6760 -0.0321 -2.2636
20540SOL     OW71549   1.463   1.646   5.847 -0.1496  0.1520  0.2042
20540SOL    HW171550   1.551   1.613   5.832 -1.3548 -2.0801 -2.9661
20540SOL    HW271551   1.421   1.579   5.900 -0.6954 -0.1019 -0.5452
20541SOL     OW71552   3.622   4.081  11.811  0.1799 -0.5316  0.2877
20541SOL    HW171553   3.631   4.132  11.731 -0.4816  0.7730  1.0058
20541SOL    HW271554   3.538   4.036  11.802 -0.9299  1.2702  1.0942
20542SOL     OW71555   9.036   5.752  10.299  0.2244 -0.0696  0.5656
20542SOL    HW171556   8.956   5.790  10.262  0.5003 -0.3640 -0.3733
20542SOL    HW271557   9.026   5.658  10.283 -1.2018 -0.7357  4.2738
20543SOL     OW71558  11.347   9.102   6.403 -0.5513  0.0911 -0.0333
20543SOL    HW171559  11.327   9.053   6.324 -0.1568  0.0918 -0.1384
20543SOL    HW271560  11.427   9.151   6.381  0.4077 -1.0265  0.8386
20544SOL     OW71561   4.120  12.689   6.471 -0.0866 -0.1349  0.0391
20544SOL    HW171562   4.156  12.646   6.394 -0.4487 -0.2311 -0.0745
20544SOL    HW271563   4.193  12.741   6.505  0.2975 -0.6922  0.0780
20545SOL     OW71564   3.173  10.982   5.205 -0.1896  0.4357  0.2725
20545SOL    HW171565   3.196  11.032   5.284  0.8943 -0.1237  0.3240
20545SOL    HW271566   3.093  10.936   5.229  0.3052  0.0159  1.1771
20546SOL     OW71567  10.223   6.039   0.848 -0.2710 -0.3651  0.5108
20546SOL    HW171568  10.137   6.000   0.838  0.6702 -2.7194  0.8572
20546SOL    HW271569  10.218   6.091   0.929 -1.7687  0.9308 -0.3581
20547SOL     OW71570   1.752   7.840   2.112 -0.5110  0.3227 -0.3813
20547SOL    HW171571   1.799   7.838   2.195 -1.2267  0.7578  0.0491
20547SOL    HW271572   1.660   7.850   2.137 -0.6944  0.8582 -1.2393
20548SOL     OW71573   9.122  12.964   6.028 -0.1243 -0.0263 -0.2371
20548SOL    HW171574   9.079  13.034   6.077 -0.0447 -0.2490  0.1542
20548SOL    HW271575   9.124  12.890   6.089  0.4791 -0.1294 -0.3752
20549SOL     OW71576   5.587   2.994  10.170  0.2674 -0.4467 -0.4381
20549SOL    HW171577   5.518   3.056  10.146  1.0965  0.4757 -0.5052
20549SOL    HW271578   5.657   3.010  10.106  1.5645  0.4295  1.1221
20550SOL     OW71579   1.583   8.490  12.572 -0.2085 -0.4064 -0.2753
20550SOL    HW171580   1.537   8.534  12.643  0.0392 -0.3581 -0.1446
20550SOL    HW271581   1.586   8.554  12.502 -0.3197 -0.4007 -0.2746
20551SOL     OW71582   0.922   0.326   7.050 -0.0083  0.9117  0.1250
20551SOL    HW171583   0.965   0.347   7.133 -0.8231 -1.2144  1.1651
20551SOL    HW271584   0.989   0.281   6.998  0.0265  0.7521  0.3096
20552SOL     OW71585   3.483   6.936   9.380  0.2833  0.0919 -0.0117
20552SOL    HW171586   3.411   6.944   9.443 -0.5194  0.8341 -0.9834
20552SOL    HW271587   3.539   7.012   9.397  0.6267 -0.2709  0.4838
20553SOL     OW71588   7.967  10.508   0.230 -0.0857 -0.4307 -0.1597
20553SOL    HW171589   7.924  10.423   0.232 -2.0412  0.4610  1.8893
20553SOL    HW271590   8.038  10.501   0.293 -0.2575 -0.5599  0.0205
20554SOL     OW71591  12.775   1.076   8.449  0.6916 -0.0216  0.2906
20554SOL    HW171592  12.692   1.059   8.495  0.8432 -0.6173  0.3578
20554SOL    HW271593  12.756   1.059   8.357  0.3805  1.1973  0.1085
20555SOL     OW71594   9.797   0.644  11.961 -0.0825  0.2525 -0.0638
20555SOL    HW171595   9.776   0.559  11.923 -1.3814 -0.5545  2.2820
20555SOL    HW271596   9.844   0.624  12.042  1.5355  1.8693 -0.5170
20556SOL     OW71597   8.861   5.561  11.476 -0.2020 -0.4360 -0.0047
20556SOL    HW171598   8.816   5.615  11.411 -0.4881  0.5692  0.9815
20556SOL    HW271599   8.797   5.496  11.503 -1.2178  1.1092  1.5413
20557SOL     OW71600   7.480   6.257   8.719 -0.4115 -0.1979  0.7276
20557SOL    HW171601   7.553   6.205   8.754 -3.0046 -2.1778  3.7409
20557SOL    HW271602   7.404   6.200   8.726 -2.6589  2.4256 -0.3608
20558SOL     OW71603   2.463   5.970  12.966  0.6245 -0.1351  0.1217
20558SOL    HW171604   2.387   6.028  12.971 -0.4457 -1.5147  0.6818
20558SOL    HW271605   2.451   5.922  12.884  0.2014 -1.2029  0.7759
20559SOL     OW71606   3.886   3.330   5.545 -0.0436  0.3831 -0.1754
20559SOL    HW171607   3.904   3.396   5.479 -1.3296  1.3125  0.3622
20559SOL    HW271608   3.951   3.262   5.529  1.1785  1.6667 -0.8785
20560SOL     OW71609   7.369   4.151   3.788 -0.7434  0.0615 -1.0074
20560SOL    HW171610   7.297   4.093   3.764 -0.2021 -1.2323  0.3668
20560SOL    HW271611   7.447   4.108   3.753 -0.4866  0.7660 -1.3161
20561SOL     OW71612   1.111  10.118  12.520 -0.4078 -0.0368  0.2354
20561SOL    HW171613   1.037  10.057  12.524 -2.0705  1.8560  0.0555
20561SOL    HW271614   1.146  10.109  12.432  0.5058 -1.9115  0.7345
20562SOL     OW71615  11.357   2.817   5.154 -0.3403 -0.3751 -0.0991
20562SOL    HW171616  11.399   2.739   5.118  2.9892  1.6686 -1.0974
20562SOL    HW271617  11.347   2.875   5.079 -0.2400  1.1823  1.0557
20563SOL     OW71618   7.966   3.195  12.767  0.0544  0.3126  0.6691
20563SOL    HW171619   8.048   3.245  12.759  0.9162 -0.9241  1.4719
20563SOL    HW271620   7.901   3.250  12.723  1.9687 -0.3283 -3.5075
20564SOL     OW71621   1.622   4.921   3.990 -0.1220  0.1441  0.5688
20564SOL    HW171622   1.565   4.954   4.060  0.9515 -0.3043  1.6769
20564SOL    HW271623   1.703   4.971   3.999  0.1780 -0.2013 -0.1162
20565SOL     OW71624   2.563  10.436   3.796 -0.1773 -0.2229  0.5931
20565SOL    HW171625   2.468  10.443   3.798 -0.1440  0.1393  2.8711
20565SOL    HW271626   2.585  10.386   3.874  1.4101 -2.1520 -0.9662
20566SOL     OW71627  13.157   2.408  11.462 -0.9293  0.6427  0.1899
20566SOL    HW171628  13.067   2.403  11.431 -0.1133  0.3659 -2.3871
20566SOL    HW271629  13.206   2.439  11.386  0.9748  2.1543  1.9286
20567SOL     OW71630   8.063  11.720   1.140  0.2449 -0.2249  0.1776
20567SOL    HW171631   8.038  11.748   1.228 -0.4564 -0.8616  0.1859
20567SOL    HW271632   8.055  11.625   1.141  0.1336 -0.2335 -0.6099
20568SOL     OW71633   9.905  11.084   7.683  0.3674 -0.6626 -0.4472
20568SOL    HW171634   9.912  11.173   7.648  0.0216 -1.2635 -2.1682
20568SOL    HW271635   9.868  11.033   7.610 -3.0279 -1.5050  1.6358
20569SOL     OW71636   4.504   2.774   8.056 -0.4437 -0.7024 -0.0539
20569SOL    HW171637   4.480   2.688   8.022 -2.8259 -0.8405  1.6987
20569SOL    HW271638   4.543   2.819   7.982 -0.8292 -2.6373 -1.5268
20570SOL     OW71639   7.254   1.807   5.363  0.3261  0.3543 -0.7006
20570SOL    HW171640   7.238   1.804   5.269  0.2034 -2.2151 -0.6449
20570SOL    HW271641   7.257   1.716   5.391 -1.5498  1.0093  2.1204
20571SOL     OW71642   0.088   2.045   9.010 -0.5307 -0.3647  0.2428
20571SOL    HW171643   0.159   2.085   9.060 -0.0973 -0.1991 -0.4872
20571SOL    HW271644   0.127   1.967   8.971 -1.2466 -1.2628  1.2821
20572SOL     OW71645  11.918  10.027  10.904  0.3143 -0.2093  0.4001
20572SOL    HW171646  11.886  10.079  10.979  1.6351 -0.7038  1.3399
20572SOL    HW271647  12.007  10.003  10.928 -0.2218 -2.9099 -0.0105
20573SOL     OW71648   3.733   2.593   5.788 -0.3800 -0.0189 -0.3683
20573SOL    HW171649   3.700   2.639   5.710  0.1047  2.1026  0.6069
20573SOL    HW271650   3.666   2.608   5.855  0.9967  1.6911  0.7345
20574SOL     OW71651   7.818   7.091   4.663  0.7154 -0.5322 -1.0632
20574SOL    HW171652   7.859   7.156   4.720  1.2270  0.2475 -2.2733
20574SOL    HW271653   7.880   7.018   4.660  0.6720 -0.5916 -0.6229
20575SOL     OW71654   2.718   9.894   4.656 -0.3525 -0.0956 -0.3471
20575SOL    HW171655   2.699   9.968   4.598  0.4938  0.0309 -0.4759
20575SOL    HW271656   2.709   9.929   4.744 -2.6182 -0.5275 -0.3426
20576SOL     OW71657   5.973   1.618   1.860 -0.7955 -0.1417  0.2530
20576SOL    HW171658   5.961   1.711   1.879  0.1609  0.2188 -0.7856
20576SOL    HW271659   5.991   1.615   1.766  2.9106 -0.9428  0.8262
20577SOL     OW71660  12.049   4.985   5.921 -0.1169 -0.0857 -0.0297
20577SOL    HW171661  11.969   5.026   5.954  0.7125  0.2456  1.7204
20577SOL    HW271662  12.099   5.058   5.883 -0.9290 -0.4132 -1.8038
20578SOL     OW71663   7.129   0.507  11.929  0.4998  0.1035  0.1751
20578SOL    HW171664   7.093   0.594  11.915 -0.8087 -0.7439 -2.1876
20578SOL    HW271665   7.062   0.447  11.898  1.3975 -1.7983  1.6380
20579SOL     OW71666   7.005  11.079  11.609  0.4092  0.1372  0.5601
20579SOL    HW171667   6.940  11.077  11.539 -0.4366  1.1222  1.2861
20579SOL    HW271668   7.088  11.098  11.563 -0.3564  2.3337 -0.0803
20580SOL     OW71669  10.189   8.894   0.535  0.1556 -0.0057  0.4663
20580SOL    HW171670  10.115   8.873   0.593 -0.6020 -4.2877 -1.6414
20580SOL    HW271671  10.264   8.852   0.576  0.7882  1.5885  0.9844
20581SOL     OW71672   3.352  10.735   0.265  0.4140 -0.5358  0.4375
20581SOL    HW171673   3.388  10.684   0.193 -0.9958 -2.1022  0.7993
20581SOL    HW271674   3.315  10.671   0.325 -0.9395  0.8576  1.1834
20582SOL     OW71675  12.152  11.253  11.074  0.3874  0.2344 -0.2413
20582SOL    HW171676  12.074  11.308  11.082  0.8773  1.0767 -1.1049
20582SOL    HW271677  12.169  11.249  10.980  0.1277 -1.7589 -0.2518
20583SOL     OW71678   9.112  13.215  10.837  0.1459 -0.0662 -0.2142
20583SOL    HW171679   9.157  13.143  10.793 -0.7878 -0.5045 -0.4996
20583SOL    HW271680   9.179  13.259  10.888  0.8762 -0.7070 -0.6056
20584SOL     OW71681   1.555   5.461   2.554 -0.3783 -0.2209  0.1496
20584SOL    HW171682   1.566   5.552   2.527  0.5383 -0.5442 -0.6167
20584SOL    HW271683   1.467   5.458   2.593 -0.1354  1.1419  0.8668
20585SOL     OW71684  11.193   7.675   7.218 -0.3803 -0.1928  0.5026
20585SOL    HW171685  11.190   7.758   7.266  1.1350 -0.1544  0.5750
20585SOL    HW271686  11.154   7.695   7.133  0.6533  0.7994  0.2478
20586SOL     OW71687  11.325   7.565  11.539  0.4670  0.0742 -0.1513
20586SOL    HW171688  11.407   7.539  11.581  0.9213  0.8631 -0.5267
20586SOL    HW271689  11.352   7.606  11.457 -0.3448 -0.2893 -0.6114
20587SOL     OW71690   4.610   7.379   7.988 -0.3124  0.2619  0.2778
20587SOL    HW171691   4.581   7.412   8.073  1.7011  1.9436  0.4040
20587SOL    HW271692   4.685   7.323   8.010  0.3902  0.9311 -0.3983
20588SOL     OW71693  10.384   9.926   2.316 -0.6918  0.3102 -0.1463
20588SOL    HW171694  10.444   9.938   2.243  0.2252  0.2114  0.5700
20588SOL    HW271695  10.298   9.912   2.275  0.0606 -1.2908 -1.2346
20589SOL     OW71696  11.135   5.792   0.537 -0.2848  0.5354 -0.4109
20589SOL    HW171697  11.134   5.736   0.460  0.5420  0.8578 -0.6607
20589SOL    HW271698  11.051   5.774   0.581 -1.1814  1.0143 -1.8522
20590SOL     OW71699   0.026   4.028   8.626  0.4526  0.2375 -0.4696
20590SOL    HW171700   0.002   3.952   8.572  0.7663  0.8895 -1.5676
20590SOL    HW271701   0.090   4.075   8.572 -0.8742  2.1094 -0.4849
20591SOL     OW71702   4.363   1.468   1.616  0.1902  0.2927  0.0201
20591SOL    HW171703   4.400   1.425   1.693 -1.0387  0.1570  0.5741
20591SOL    HW271704   4.343   1.396   1.556  2.3042  0.4986 -0.9888
20592SOL     OW71705   0.722   1.575  11.385 -0.1082  0.0430  0.0505
20592SOL    HW171706   0.659   1.511  11.352  1.5574 -2.5600  1.5654
20592SOL    HW271707   0.670   1.635  11.439 -1.5648 -0.5944 -0.5766
20593SOL     OW71708   9.934   2.124   0.366 -0.4768 -0.3094  0.4141
20593SOL    HW171709   9.841   2.104   0.352 -0.7426  2.0863 -2.3498
20593SOL    HW271710   9.934   2.208   0.412  0.3478 -0.6757  1.1076
20594SOL     OW71711   1.748   5.309  11.574  0.1991  0.5371 -0.2106
20594SOL    HW171712   1.696   5.232  11.552 -0.1884  0.5340  0.6606
20594SOL    HW271713   1.838   5.277  11.579  0.2288  0.4417 -1.2421
20595SOL     OW71714  12.615  11.201  12.168  0.6324 -0.2653  0.0519
20595SOL    HW171715  12.695  11.254  12.175  0.2626  0.2967  0.1146
20595SOL    HW271716  12.623  11.156  12.085 -0.0181  1.5395 -1.0483
20596SOL     OW71717   3.796  11.558  10.162 -0.3879  0.2681 -0.1717
20596SOL    HW171718   3.835  11.569  10.076 -2.8335  1.2969 -1.2327
20596SOL    HW271719   3.768  11.467  10.165 -0.7638  0.3666 -0.6698
20597SOL     OW71720   6.648   5.313   0.477  0.1118 -0.2075 -0.1883
20597SOL    HW171721   6.673   5.275   0.393  0.5354  0.7882 -0.5296
20597SOL    HW271722   6.701   5.267   0.542 -1.0580 -1.8026 -0.3144
20598SOL     OW71723  13.304   6.858   0.875  0.1325 -0.7071 -0.0060
20598SOL    HW171724  13.311   6.778   0.822  0.6782 -0.3934 -0.4157
20598SOL    HW271725  13.237   6.837   0.940 -0.6604 -1.0560 -0.9062
20599SOL     OW71726  12.366   1.536   3.347 -0.3348  0.1208 -0.3175
20599SOL    HW171727  12.297   1.598   3.325  0.0679  0.3801 -0.8806
20599SOL    HW271728  12.342   1.455   3.302 -0.3908  0.1412 -0.3231
20600SOL     OW71729   7.261   5.051   2.147  0.1023  0.3329  0.1143
20600SOL    HW171730   7.328   4.997   2.106 -1.5433 -2.3027  0.6113
20600SOL    HW271731   7.213   5.090   2.074  1.8238  1.9040 -0.2418
20601SOL     OW71732   4.081   5.474   6.648 -0.1966  0.1346  0.1646
20601SOL    HW171733   4.098   5.492   6.741  0.7424  1.3990 -0.2345
20601SOL    HW271734   4.108   5.383   6.637  1.8184  0.6191  0.6611
20602SOL     OW71735   7.409   3.204   1.048 -0.2592 -0.3676 -0.8014
20602SOL    HW171736   7.416   3.112   1.020  0.8885 -0.3335 -0.7014
20602SOL    HW271737   7.500   3.231   1.063 -0.7145 -0.0268  1.8569
20603SOL     OW71738   8.193   2.652  10.877  0.2660  0.5385 -0.3295
20603SOL    HW171739   8.212   2.570  10.922 -2.5261 -0.0494 -0.0128
20603SOL    HW271740   8.278   2.684  10.848  1.8405 -0.7399  2.4496
20604SOL     OW71741   9.643   7.580   8.611  0.0042  0.1424 -0.0235
20604SOL    HW171742   9.725   7.604   8.653 -0.6325  1.2029  0.6352
20604SOL    HW271743   9.580   7.575   8.682 -0.5204 -0.6208 -0.5330
20605SOL     OW71744   6.123   9.865   7.806  0.0187 -0.1939  0.0474
20605SOL    HW171745   6.073   9.784   7.802  0.3197 -0.3155 -2.2297
20605SOL    HW271746   6.201   9.842   7.856 -0.3159 -1.0560  0.1933
20606SOL     OW71747   6.774   3.756   2.209  0.0759  0.6195 -0.1105
20606SOL    HW171748   6.768   3.688   2.141  0.5073 -1.2035  1.6051
20606SOL    HW271749   6.848   3.809   2.182 -0.2752  0.4681 -1.5050
20607SOL     OW71750  12.197   1.348   4.881 -0.2456  0.0460 -0.1424
20607SOL    HW171751  12.224   1.429   4.924  1.0638  0.1592 -1.1311
20607SOL    HW271752  12.206   1.281   4.949  3.1387 -0.0171 -0.5058
20608SOL     OW71753   6.437   7.519  13.132 -0.2120  0.0454 -0.3802
20608SOL    HW171754   6.470   7.466  13.205 -0.5015  0.7657  0.2978
20608SOL    HW271755   6.462   7.471  13.054  1.5484  0.0349  0.1376
20609SOL     OW71756   6.616  10.240  11.650 -0.4241 -0.6158  0.7940
20609SOL    HW171757   6.668  10.163  11.672  0.3530 -0.0253  1.0768
20609SOL    HW271758   6.681  10.305  11.623 -1.0851 -0.1227  0.3820
20610SOL     OW71759   6.143   2.371   7.803 -0.1410 -0.0362 -0.1854
20610SOL    HW171760   6.199   2.347   7.876 -0.9517 -0.4321  0.3247
20610SOL    HW271761   6.117   2.288   7.764 -0.4476  0.1389 -0.3611
20611SOL     OW71762   1.431   0.222  12.496 -0.4635 -0.8284 -0.0700
20611SOL    HW171763   1.368   0.265  12.439 -0.6161 -0.0731  0.6543
20611SOL    HW271764   1.449   0.138  12.453 -1.3698 -0.7243 -0.6737
20612SOL     OW71765   3.154   5.371   3.160 -0.1872 -0.2952 -0.5309
20612SOL    HW171766   3.189   5.287   3.129 -0.3526 -0.1249 -1.1871
20612SOL    HW271767   3.061   5.366   3.142 -0.5242 -0.7193  1.1540
20613SOL     OW71768  12.158  12.352   1.928 -0.2493 -0.0066 -0.0691
20613SOL    HW171769  12.183  12.260   1.938 -1.0000 -0.3137 -0.8181
20613SOL    HW271770  12.114  12.355   1.843 -0.7478  0.9353  0.2107
20614SOL     OW71771   8.072   6.974   6.168 -0.2409  0.3305  0.5026
20614SOL    HW171772   7.980   6.946   6.167 -0.6928  1.6774  0.7683
20614SOL    HW271773   8.068   7.064   6.202  1.0861  0.7491 -0.4022
20615SOL     OW71774   2.583   7.597  11.996 -0.2967 -0.0953  0.2822
20615SOL    HW171775   2.602   7.503  11.999  0.7367  0.0178 -1.3789
20615SOL    HW271776   2.496   7.605  12.036 -1.6358 -2.1218 -1.9267
20616SOL     OW71777  11.704  10.104   7.274 -0.0688 -0.6679  0.3638
20616SOL    HW171778  11.635  10.139   7.218  1.2813  0.9666 -0.3899
20616SOL    HW271779  11.659  10.045   7.334 -1.9341 -0.5229 -0.8048
20617SOL     OW71780   2.900   5.780  11.068  0.4297 -0.3161  0.0405
20617SOL    HW171781   2.921   5.775  10.975  3.6064  1.2808  0.5418
20617SOL    HW271782   2.881   5.873  11.083  0.3431 -0.4942  1.0637
20618SOL     OW71783  11.153   2.779   0.872 -0.2603 -0.1852 -0.4471
20618SOL    HW171784  11.210   2.810   0.942 -0.2228 -0.5257 -0.3229
20618SOL    HW271785  11.159   2.684   0.876 -0.7648 -0.2247 -0.4925
20619SOL     OW71786  12.753   9.712  12.452  0.0637 -0.1439  0.0944
20619SOL    HW171787  12.718   9.784  12.505  3.2420  2.5880 -1.1076
20619SOL    HW271788  12.715   9.725  12.365 -0.4413 -0.8284  0.2067
20620SOL     OW71789   0.637   5.210   6.445 -0.2010 -0.0551 -0.2479
20620SOL    HW171790   0.634   5.122   6.405 -0.2352 -0.4531  0.6140
20620SOL    HW271791   0.604   5.197   6.533 -0.4098  0.8787 -0.1873
20621SOL     OW71792   4.991   8.008  11.801 -0.0388  0.0679  0.4934
20621SOL    HW171793   4.967   8.095  11.835  0.1975 -0.0272  0.9059
20621SOL    HW271794   4.986   7.950  11.877 -0.5089 -0.3463  0.1576
20622SOL     OW71795   8.564  12.281  13.110 -0.4592  0.1643  0.5666
20622SOL    HW171796   8.617  12.308  13.035  0.2153 -0.1052  0.9358
20622SOL    HW271797   8.487  12.338  13.108 -1.3308 -0.9881 -1.3546
20623SOL     OW71798   6.450   0.848   5.499 -0.0808  0.7662 -0.1723
20623SOL    HW171799   6.516   0.795   5.544  0.3465  0.6480 -0.9166
20623SOL    HW271800   6.484   0.857   5.410  0.0342  2.5954  0.0123
20624SOL     OW71801   2.712   4.020   7.911  0.4664  0.0804 -0.4293
20624SOL    HW171802   2.724   3.927   7.928  0.0296  0.2047  0.6535
20624SOL    HW271803   2.795   4.060   7.939  0.2003  0.1474  0.2763
20625SOL     OW71804   3.877   6.084   9.767  0.1909  0.3453 -0.2545
20625SOL    HW171805   3.853   6.006   9.818  2.3217 -0.4553 -0.3567
20625SOL    HW271806   3.945   6.126   9.819  0.5942  0.9342 -1.2335
20626SOL     OW71807  12.627  10.748   2.346 -0.4305 -0.1643 -0.7348
20626SOL    HW171808  12.588  10.749   2.258 -1.2155 -0.1717 -0.3968
20626SOL    HW271809  12.665  10.661   2.355  1.9277  0.6447 -2.0167
20627SOL     OW71810   8.346  11.129   0.664 -0.4172 -0.0684 -0.2818
20627SOL    HW171811   8.419  11.108   0.605  1.1461  1.5818  0.9561
20627SOL    HW271812   8.271  11.082   0.627  0.7787 -0.1521 -2.8001
20628SOL     OW71813   9.624   7.376  10.961 -0.1498 -0.2385  0.1190
20628SOL    HW171814   9.587   7.296  10.998  0.2832 -0.1998  0.6432
20628SOL    HW271815   9.582   7.384  10.875 -1.3387 -0.2057  0.6810
20629SOL     OW71816   4.689   6.000   5.227 -0.7937  0.3638  0.4934
20629SOL    HW171817   4.715   6.065   5.163 -0.8393  0.7904  0.9013
20629SOL    HW271818   4.683   6.048   5.310  0.4836 -0.4169  1.0635
20630SOL     OW71819   4.548   9.219  10.143  0.4114 -0.1642 -0.0354
20630SOL    HW171820   4.581   9.165  10.216  0.7858 -0.2247 -0.2470
20630SOL    HW271821   4.556   9.309  10.175 -0.2635 -0.2274  0.3387
20631SOL     OW71822   5.496  11.852   0.013  0.2397  0.0233 -0.8613
20631SOL    HW171823   5.483  11.772  -0.038 -0.5212  0.7570 -1.8604
20631SOL    HW271824   5.523  11.822   0.100 -1.4722 -1.3717 -0.7727
20632SOL     OW71825   0.950   8.713   1.915 -0.1981  0.7568 -0.3217
20632SOL    HW171826   0.891   8.640   1.897  1.2978 -1.2976  2.3207
20632SOL    HW271827   0.898   8.774   1.968 -1.2646  1.3764 -2.0058
20633SOL     OW71828   4.561   6.700   4.543 -0.1702  0.0750  0.4711
20633SOL    HW171829   4.546   6.685   4.450 -1.0911 -0.6603  0.7335
20633SOL    HW271830   4.543   6.616   4.585  2.1582 -0.1810  1.1182
20634SOL     OW71831   3.634   1.399   8.750  0.1036  0.2049  0.2437
20634SOL    HW171832   3.716   1.359   8.722  0.3182  1.2442 -0.6795
20634SOL    HW271833   3.613   1.357   8.834  1.3119 -0.4235  0.2384
20635SOL     OW71834   5.824   6.257  12.313  0.1943 -0.5438  0.1162
20635SOL    HW171835   5.906   6.213  12.335  0.5450 -0.5244 -1.0651
20635SOL    HW271836   5.785   6.202  12.245 -1.5956 -1.4377  1.7775
20636SOL     OW71837   3.545  10.046  12.453  0.4822  0.0531  0.2358
20636SOL    HW171838   3.624  10.078  12.495 -0.1902  1.0171  0.8024
20636SOL    HW271839   3.515  10.117  12.397  0.5078 -0.6445 -0.6983
20637SOL     OW71840   7.206  10.227   9.053 -0.2084 -0.2289  0.4602
20637SOL    HW171841   7.292  10.192   9.030 -0.1345 -0.2524  0.7606
20637SOL    HW271842   7.185  10.288   8.982 -0.2638 -0.7527  0.0217
20638SOL     OW71843   3.379   2.194   3.064 -0.1661  0.1351  0.6388
20638SOL    HW171844   3.328   2.276   3.066  1.9066  1.6004 -1.3060
20638SOL    HW271845   3.395   2.174   3.157  0.5269  2.8338  1.1969
20639SOL     OW71846   2.115   1.032   7.402 -0.3843 -0.0790  0.1811
20639SOL    HW171847   2.032   1.066   7.368 -0.3418  1.0613  1.1367
20639SOL    HW271848   2.161   1.110   7.434  0.5105 -0.8439  0.8199
20640SOL     OW71849   3.272   1.850   9.593 -0.3289  0.4696  0.5368
20640SOL    HW171850   3.221   1.828   9.515  1.1698 -0.3398 -0.2656
20640SOL    HW271851   3.231   1.801   9.663 -1.2924  0.6761  0.1324
20641SOL     OW71852   7.646   1.240  11.310 -0.3426  0.5151 -0.1780
20641SOL    HW171853   7.723   1.190  11.337 -1.3150 -0.5097  0.7662
20641SOL    HW271854   7.574   1.206  11.363 -1.0028  3.1720  0.8134
20642SOL     OW71855   6.239   2.878  11.169  0.2952 -0.1768  0.5842
20642SOL    HW171856   6.242   2.783  11.156  0.4847  0.0841 -1.5490
20642SOL    HW271857   6.330   2.906  11.166  0.1210  0.5793 -3.8604
20643SOL     OW71858  11.665   0.514   3.649 -0.6850  0.0907 -0.5362
20643SOL    HW171859  11.576   0.486   3.627 -0.4854 -1.2460  0.3006
20643SOL    HW271860  11.691   0.459   3.722  0.7046  0.7309 -0.5108
20644SOL     OW71861  10.620   5.648   3.362  0.0731 -0.2562  0.0571
20644SOL    HW171862  10.564   5.670   3.436  0.0990 -0.0262  0.0101
20644SOL    HW271863  10.570   5.583   3.312  0.5795 -1.3651  0.9434
20645SOL     OW71864  11.955   1.279   9.093 -0.1047 -0.5891 -0.2215
20645SOL    HW171865  12.025   1.344   9.086  0.8626 -1.7173 -1.5265
20645SOL    HW271866  11.938   1.271   9.187  1.7105 -0.4986  0.1343
20646SOL     OW71867   4.599   6.073  11.235 -0.2903  0.5910 -0.3454
20646SOL    HW171868   4.562   6.131  11.301  0.6698 -1.2336  1.9682
20646SOL    HW271869   4.567   5.986  11.259  2.3382 -0.5314 -0.5358
20647SOL     OW71870   0.490   5.568   4.182 -0.8227  0.3260  0.4580
20647SOL    HW171871   0.474   5.606   4.268 -2.4818 -1.6375  1.0990
20647SOL    HW271872   0.553   5.498   4.198 -3.5504 -2.2633  0.8331
20648SOL     OW71873  11.271   8.118   2.254 -0.0012 -0.2586 -0.6034
20648SOL    HW171874  11.227   8.132   2.338 -0.7929  0.2233 -1.0837
20648SOL    HW271875  11.225   8.043   2.216 -1.6553  1.3133 -1.8832
20649SOL     OW71876  10.497   7.367   7.304  0.4391  0.2300  0.2177
20649SOL    HW171877  10.431   7.408   7.248 -1.3269 -1.7381  0.7491
20649SOL    HW271878  10.580   7.383   7.258 -0.8245 -0.4582 -2.4826
20650SOL     OW71879   5.827  13.262   9.811 -0.5162 -0.6210  0.1713
20650SOL    HW171880   5.874  13.288   9.731 -0.5962  0.3400  0.4265
20650SOL    HW271881   5.809  13.344   9.856 -0.5399 -1.1575  1.1524
20651SOL     OW71882   6.250   3.588   4.663  0.5171 -0.0886  0.6520
20651SOL    HW171883   6.202   3.616   4.741  1.2236  0.5329  0.8778
20651SOL    HW271884   6.278   3.499   4.684 -1.2062 -0.7806  0.1822
20652SOL     OW71885   3.300   7.976   9.846 -0.1410  0.0724 -0.1869
20652SOL    HW171886   3.283   7.957   9.938  0.4677 -1.0833 -0.2908
20652SOL    HW271887   3.226   8.029   9.818  0.1755  1.3272  1.2243
20653SOL     OW71888  10.563   7.115   3.690  0.0492  0.6178  0.2949
20653SOL    HW171889  10.539   7.186   3.630  0.4513 -0.1926 -0.8594
20653SOL    HW271890  10.657   7.102   3.676  0.3670  1.0145  1.7962
20654SOL     OW71891   1.811   3.462   7.169 -0.2274 -0.4287 -0.2964
20654SOL    HW171892   1.854   3.378   7.185  2.9547  1.2964  1.1965
20654SOL    HW271893   1.754   3.474   7.245 -0.1097 -0.8738 -0.1341
20655SOL     OW71894  13.052   4.944   7.538  0.8539 -0.1002  0.0233
20655SOL    HW171895  13.120   4.998   7.578  0.7961 -0.7351  1.0157
20655SOL    HW271896  13.039   4.982   7.452  2.1919  0.2708 -0.0391
20656SOL     OW71897   7.937  13.057  12.270  0.3287  0.1657 -0.3135
20656SOL    HW171898   7.995  13.132  12.272 -1.4483  1.6175 -0.7398
20656SOL    HW271899   7.970  13.000  12.340  0.7327  2.1253  1.1969
20657SOL     OW71900   3.833   7.816  10.750 -0.1856  0.2328  0.2907
20657SOL    HW171901   3.834   7.910  10.729 -0.5077  0.2620  0.4025
20657SOL    HW271902   3.920   7.785  10.725  0.2379  0.7478  1.0888
20658SOL     OW71903   0.078   6.785  10.136 -0.6921  0.1270  0.0222
20658SOL    HW171904   0.087   6.839  10.057  0.0713 -1.6167 -1.1475
20658SOL    HW271905   0.061   6.848  10.206  0.9260  1.9450 -1.1210
20659SOL     OW71906   9.961   8.834   5.297 -0.8939 -0.2405  0.1138
20659SOL    HW171907   9.950   8.740   5.290  3.2803 -1.0113  1.3880
20659SOL    HW271908   9.982   8.863   5.208 -0.6244 -0.7924 -0.0024
20660SOL     OW71909  12.628   5.533   5.862  0.0132  0.1436 -0.6915
20660SOL    HW171910  12.694   5.595   5.893  2.7634 -1.5565 -2.7153
20660SOL    HW271911  12.617   5.554   5.770 -0.1012 -1.3942 -1.0511
20661SOL     OW71912   3.872  12.929   4.155 -0.3430 -0.0726  0.0881
20661SOL    HW171913   3.884  12.925   4.250 -0.9275  1.1565  0.2342
20661SOL    HW271914   3.881  12.838   4.126 -1.6171 -0.7036  1.5174
20662SOL     OW71915  10.457   8.320   5.593  0.2070 -1.1659  0.5113
20662SOL    HW171916  10.378   8.275   5.563 -0.2247  0.0699 -0.3021
20662SOL    HW271917  10.481   8.275   5.674 -2.1811 -0.6688  1.5930
20663SOL     OW71918   6.384   9.033   1.271 -0.0884 -0.8725 -0.0338
20663SOL    HW171919   6.324   9.108   1.268  0.6230 -0.3090 -1.4822
20663SOL    HW271920   6.329   8.958   1.290 -0.8965 -0.0565  0.9602
20664SOL     OW71921  10.424  11.783   2.199  0.0669  0.2611  0.3558
20664SOL    HW171922  10.430  11.779   2.295 -0.0196  2.1219  0.4750
20664SOL    HW271923  10.458  11.870   2.177  2.6809 -1.0839 -1.5449
20665SOL     OW71924   1.678  13.087  11.558 -0.1198  0.0812  0.7390
20665SOL    HW171925   1.696  13.166  11.610  1.8894  0.5295 -0.5226
20665SOL    HW271926   1.586  13.096  11.533 -0.2970  1.3395  1.7300
20666SOL     OW71927   0.117   6.523   0.938  0.4735  0.3119 -0.1490
20666SOL    HW171928   0.183   6.528   0.868  0.1798  1.7020 -0.3689
20666SOL    HW271929   0.034   6.526   0.891  0.2713  0.4647  0.2223
20667SOL     OW71930   3.353   8.513   6.137 -0.0489 -0.3720  0.5604
20667SOL    HW171931   3.307   8.597   6.126  0.2079 -0.2672  0.2496
20667SOL    HW271932   3.335   8.488   6.227  0.8397  0.6075  1.0303
20668SOL     OW71933   3.579   7.933   7.820 -0.1179  0.7839  0.1719
20668SOL    HW171934   3.587   7.950   7.726  0.3508 -0.9364 -0.1341
20668SOL    HW271935   3.668   7.909   7.847 -0.7625 -1.5704  0.4075
20669SOL     OW71936   4.703  12.844   8.273 -0.5639 -0.5672 -0.5220
20669SOL    HW171937   4.704  12.880   8.361  0.0658 -0.6090 -0.5051
20669SOL    HW271938   4.789  12.866   8.237 -0.1400 -2.0821 -0.4972
20670SOL     OW71939  12.452  10.845  11.745 -0.2340 -0.3426  0.1184
20670SOL    HW171940  12.520  10.862  11.681  0.8279  0.5370  1.4230
20670SOL    HW271941  12.380  10.903  11.721 -1.0805 -2.1024 -1.9620
20671SOL     OW71942   6.600  12.376   8.639 -0.1120 -0.2620  0.5220
20671SOL    HW171943   6.636  12.440   8.578 -0.3386  0.0412  0.7047
20671SOL    HW271944   6.532  12.331   8.590 -0.4892  0.1782  0.6387
20672SOL     OW71945  13.246   7.632   9.529 -0.2908 -0.8765 -0.3823
20672SOL    HW171946  13.200   7.711   9.556  2.3201  0.8283 -0.4872
20672SOL    HW271947  13.202   7.605   9.448 -0.7361  1.0158 -0.8343
20673SOL     OW71948  10.432   7.409  11.080  0.0847  0.9280  0.0831
20673SOL    HW171949  10.485   7.377  11.152 -0.2732  0.5791  0.1968
20673SOL    HW271950  10.469   7.367  11.002  0.2316  1.0048  0.1134
20674SOL     OW71951   5.149   6.727  10.862  0.1321 -0.0050 -0.0421
20674SOL    HW171952   5.169   6.726  10.956  1.0123  0.8263 -0.1949
20674SOL    HW271953   5.108   6.642  10.845 -0.3904 -0.0198  1.1604
20675SOL     OW71954   3.168   7.489   9.093 -0.2385  0.1565 -0.1967
20675SOL    HW171955   3.142   7.575   9.125  2.6325  0.5974  1.2044
20675SOL    HW271956   3.210   7.505   9.009  1.1330  0.2825  0.4937
20676SOL     OW71957   8.590   7.373   0.081 -0.1926  0.1845  0.1918
20676SOL    HW171958   8.546   7.456   0.098  1.1615  0.9771  0.0256
20676SOL    HW271959   8.648   7.361   0.157  0.1911 -0.2063 -0.1539
20677SOL     OW71960   5.218  11.990   1.830 -0.3547  0.2591  0.0890
20677SOL    HW171961   5.155  11.939   1.880  0.1850  0.1807  0.7117
20677SOL    HW271962   5.286  12.014   1.894  1.5375 -1.7407 -1.0179
20678SOL     OW71963   5.475   8.947   9.613  0.5942 -0.3181 -0.7007
20678SOL    HW171964   5.559   8.928   9.571  0.0959  0.6655 -2.2188
20678SOL    HW271965   5.466   9.042   9.607 -0.1427 -0.2960  0.4333
20679SOL     OW71966   0.148   1.664   2.719 -0.1711  0.0896 -0.3234
20679SOL    HW171967   0.148   1.725   2.793  0.7013 -1.1339  0.7363
20679SOL    HW271968   0.057   1.635   2.712 -0.1037 -0.4410  0.8473
20680SOL     OW71969   6.071  10.605   5.926  0.3445  0.3556  0.1813
20680SOL    HW171970   6.028  10.687   5.951 -0.4167  0.4087 -1.1900
20680SOL    HW271971   5.999  10.549   5.894  0.9795 -0.4999  0.2061
20681SOL     OW71972   3.421  12.249  10.381  0.1226  0.0741 -0.3349
20681SOL    HW171973   3.372  12.262  10.463  0.2583 -1.2533 -0.0057
20681SOL    HW271974   3.435  12.337  10.346  0.9957  0.7642  1.6215
20682SOL     OW71975   1.085  10.729   9.157 -0.3110 -0.0246 -0.7729
20682SOL    HW171976   1.137  10.807   9.139  1.1914 -0.9548 -0.6388
20682SOL    HW271977   1.146  10.657   9.147 -1.5002 -1.1472 -0.2234
20683SOL     OW71978   9.479  10.475   4.333  0.2427  1.0136  0.4508
20683SOL    HW171979   9.531  10.482   4.413  1.2660  0.7375 -0.1796
20683SOL    HW271980   9.490  10.384   4.305 -0.8062  0.8731  0.4455
20684SOL     OW71981   8.793  12.349   1.851 -0.5925 -0.3462 -0.2399
20684SOL    HW171982   8.787  12.291   1.927  0.2094  2.0014  1.7256
20684SOL    HW271983   8.799  12.289   1.776 -0.3011 -2.7777  1.6007
20685SOL     OW71984  11.750   9.433  12.280 -0.2131  0.6291  0.0686
20685SOL    HW171985  11.664   9.469  12.259 -0.9236 -1.3122 -0.6345
20685SOL    HW271986  11.738   9.338  12.273  1.7371  0.2733  0.9838
20686SOL     OW71987   1.210  13.202  12.816 -0.2636 -0.0779  0.7154
20686SOL    HW171988   1.265  13.170  12.887 -0.3008  0.1364  0.8400
20686SOL    HW271989   1.122  13.169  12.837 -0.3886  0.4782  1.0792
20687SOL     OW71990   3.451  10.692   1.765 -0.0395 -0.1165 -0.4305
20687SOL    HW171991   3.503  10.771   1.754  0.5431 -0.5759 -1.0449
20687SOL    HW271992   3.414  10.700   1.853 -0.0755  0.8809 -0.5207
20688SOL     OW71993   3.616  10.538   8.991 -0.3335 -0.3583 -0.1344
20688SOL    HW171994   3.570  10.545   8.907  0.3419 -0.8229 -0.5542
20688SOL    HW271995   3.696  10.588   8.979 -0.4934  0.0412  0.4278
20689SOL     OW71996   7.109  10.433   1.974 -0.3470  0.3628  0.4342
20689SOL    HW171997   7.041  10.401   2.033 -0.4317 -0.0957  0.0873
20689SOL    HW271998   7.063  10.492   1.914 -0.4362  0.0868  0.2270
20690SOL     OW71999   0.747   1.494   2.400  0.0079 -0.5284  0.0936
20690SOL    HW172000   0.673   1.526   2.451  1.0871  1.6900  0.3887
20690SOL    HW272001   0.824   1.532   2.442  1.2287 -1.6709 -1.0029
20691SOL     OW72002   5.412   1.854   6.074  0.0504 -0.4067  0.0222
20691SOL    HW172003   5.454   1.932   6.039 -1.3334  0.7867  0.9372
20691SOL    HW272004   5.363   1.818   6.000  1.3296 -0.9008 -0.6165
20692SOL     OW72005   7.902   2.638  11.912  0.8141  0.5391 -0.4336
20692SOL    HW172006   7.890   2.712  11.853  2.0510 -0.6237 -2.2502
20692SOL    HW272007   7.996   2.633  11.926  1.1116 -2.0887 -2.4228
20693SOL     OW72008   9.816   2.320  12.205  0.5776  0.4114  0.1631
20693SOL    HW172009   9.902   2.356  12.183  0.9544 -0.1799  0.6304
20693SOL    HW272010   9.827   2.225  12.195  0.2440  0.2680  1.1133
20694SOL     OW72011   9.770   0.249   5.407  0.4033 -0.5632 -0.3412
20694SOL    HW172012   9.695   0.190   5.407  1.2859 -1.7263 -1.3270
20694SOL    HW272013   9.840   0.200   5.364  1.1804  1.1826 -1.1908
20695SOL     OW72014   0.887   7.166   0.780  0.3483  0.0023  0.0167
20695SOL    HW172015   0.982   7.166   0.779  0.3686  1.1835  0.3703
20695SOL    HW272016   0.862   7.118   0.701  1.2308 -0.2713 -0.1035
20696SOL     OW72017   6.939   3.351   1.401 -0.6298 -0.3386 -0.5544
20696SOL    HW172018   6.988   3.271   1.383 -0.5673 -0.5758  0.5917
20696SOL    HW272019   6.889   3.332   1.480 -2.3939 -0.0008 -1.5328
20697SOL     OW72020   5.081   9.464   2.369  0.2008  0.2258  0.0252
20697SOL    HW172021   5.096   9.518   2.447  0.4762 -1.0352  0.8727
20697SOL    HW272022   4.999   9.417   2.389  0.0286  0.2358 -0.6479
20698SOL     OW72023   5.355   8.959  12.660  0.4319 -0.1451  0.4688
20698SOL    HW172024   5.329   8.918  12.577  2.8869 -1.7643  0.4167
20698SOL    HW272025   5.368   8.886  12.720  1.8921  0.7719  1.3111
20699SOL     OW72026   9.169  13.168   1.949  0.1566 -0.9392 -0.1945
20699SOL    HW172027   9.132  13.193   1.865 -0.0731 -1.9235 -0.4034
20699SOL    HW272028   9.104  13.109   1.988  0.3153 -0.5918  0.6189
20700SOL     OW72029   0.718   7.769   1.936 -0.2556 -0.1804 -0.3582
20700SOL    HW172030   0.765   7.728   1.863  0.3113 -0.4264  0.1407
20700SOL    HW272031   0.712   7.861   1.912  0.6394 -0.1167 -0.3371
20701SOL     OW72032   1.675  13.178   0.321  0.0137 -0.0354  0.0933
20701SOL    HW172033   1.752  13.194   0.374  0.4068 -0.6106 -0.2915
20701SOL    HW272034   1.602  13.175   0.383  0.4897 -0.8951  0.6224
20702SOL     OW72035   6.683   2.902  11.808  0.2440 -0.2073  0.1174
20702SOL    HW172036   6.744   2.975  11.817 -0.0783  0.2305 -0.9702
20702SOL    HW272037   6.597   2.944  11.800 -0.1630 -0.7924  1.2420
20703SOL     OW72038   4.206  10.616   7.750  0.2744  0.5324  0.4103
20703SOL    HW172039   4.244  10.644   7.833 -0.5366  1.0819  0.6058
20703SOL    HW272040   4.116  10.648   7.753 -0.5370 -1.5647  0.3856
20704SOL     OW72041   2.076   2.956   3.636 -0.6210  0.3779 -0.0683
20704SOL    HW172042   2.128   2.877   3.646 -1.7241 -0.4341 -0.6057
20704SOL    HW272043   2.056   2.983   3.726 -1.2062 -0.6128  0.1096
20705SOL     OW72044   1.173   8.583  10.597  0.1674 -0.3631  0.5705
20705SOL    HW172045   1.132   8.645  10.536 -0.5107 -0.7998  0.5716
20705SOL    HW272046   1.103   8.523  10.621  1.0963 -1.9193 -0.4049
20706SOL     OW72047   5.404   8.256   1.539 -0.0078 -0.2721 -0.0856
20706SOL    HW172048   5.455   8.325   1.496 -1.4102 -0.1468 -1.6341
20706SOL    HW272049   5.413   8.180   1.481 -0.8324 -0.5141  0.0961
20707SOL     OW72050   4.987   7.530  12.878  0.1549 -0.2974  0.6337
20707SOL    HW172051   4.970   7.530  12.972 -1.3275  0.7887  0.3947
20707SOL    HW272052   5.021   7.617  12.859 -1.1050  0.0709 -0.0663
20708SOL     OW72053   6.264   6.655  11.056 -0.1451 -0.6084 -0.0026
20708SOL    HW172054   6.176   6.655  11.018 -0.4039  1.4271  0.4662
20708SOL    HW272055   6.303   6.738  11.028  1.4794 -1.2736  0.1496
20709SOL     OW72056   1.270   2.775  12.263 -0.1544  0.0965 -0.2268
20709SOL    HW172057   1.278   2.870  12.266  2.0928  0.0075 -1.3382
20709SOL    HW272058   1.287   2.747  12.353  1.3095  0.6668 -0.2988
20710SOL     OW72059   0.508  12.683   2.718  0.1129  0.7218 -0.2121
20710SOL    HW172060   0.460  12.654   2.796 -0.3546  0.1352 -0.7169
20710SOL    HW272061   0.548  12.604   2.683  0.9761  1.1112 -0.1326
20711SOL     OW72062  12.598  10.508   7.002 -0.2082 -0.0127 -0.0983
20711SOL    HW172063  12.588  10.600   7.025  0.8255  0.4461 -1.3830
20711SOL    HW272064  12.674  10.478   7.051  0.5436  0.3166 -1.0442
20712SOL     OW72065   0.569  12.469  13.289  0.0651 -0.2026 -0.1174
20712SOL    HW172066   0.479  12.480  13.321  0.1380 -0.5670  0.2249
20712SOL    HW272067   0.613  12.421  13.359  0.6550  0.3822 -0.0744
20713SOL     OW72068  11.119  10.563   3.557  0.0328  0.5183 -0.3748
20713SOL    HW172069  11.064  10.526   3.488  0.5404 -0.0789 -0.4698
20713SOL    HW272070  11.065  10.559   3.636  0.1948 -0.7928 -0.3013
20714SOL     OW72071   6.466  12.061   0.732 -0.5853  0.1766 -0.4295
20714SOL    HW172072   6.469  12.058   0.636 -0.5160 -1.9779 -0.4045
20714SOL    HW272073   6.496  12.150   0.754  1.4036  0.0648 -2.3367
20715SOL     OW72074   7.981   6.789   7.687  0.2511  0.2323  0.1287
20715SOL    HW172075   8.010   6.733   7.615 -1.1864  0.6326 -0.8157
20715SOL    HW272076   7.915   6.846   7.647 -0.6794  0.3889  1.7999
20716SOL     OW72077  12.142  10.805  10.548  0.5156  0.4432  0.4869
20716SOL    HW172078  12.061  10.843  10.581  0.3304  1.2679 -0.8551
20716SOL    HW272079  12.121  10.712  10.532 -0.3754  0.7881 -0.4586
20717SOL     OW72080   7.778   0.555   4.385 -0.7138  0.4751  0.0796
20717SOL    HW172081   7.767   0.470   4.426 -0.9716  0.2861 -0.3685
20717SOL    HW272082   7.793   0.616   4.458 -0.1024 -0.0141  0.3693
20718SOL     OW72083   3.585   7.787   9.128  0.4567 -0.1701  0.2006
20718SOL    HW172084   3.609   7.879   9.134 -0.9925  0.1816  0.9799
20718SOL    HW272085   3.662   7.740   9.162  1.1558  0.7359 -0.0890
20719SOL     OW72086   0.582   5.621   5.716  0.4495 -0.6512  0.4629
20719SOL    HW172087   0.546   5.532   5.720  0.7932 -0.8713 -0.8205
20719SOL    HW272088   0.558   5.652   5.629  0.2998  0.5466  0.9151
20720SOL     OW72089   2.631   4.360   7.782  0.2064  0.2622 -0.0565
20720SOL    HW172090   2.579   4.309   7.844  0.4156 -1.1696 -1.0089
20720SOL    HW272091   2.566   4.408   7.729  0.0074  0.9780  0.8142
20721SOL     OW72092   7.328   9.586   9.381  0.0271  0.4266 -0.2661
20721SOL    HW172093   7.239   9.554   9.395  0.0784  0.4992  0.2549
20721SOL    HW272094   7.342   9.649   9.452  0.4535  0.4991 -0.4130
20722SOL     OW72095   0.572   8.780   3.740 -0.5508  0.2684  0.3147
20722SOL    HW172096   0.650   8.780   3.685  0.6253  1.8275  1.8554
20722SOL    HW272097   0.505   8.735   3.688  0.9447  0.1955 -1.6483
20723SOL     OW72098   0.155   5.808  10.745 -0.0791  0.0358 -0.3296
20723SOL    HW172099   0.193   5.754  10.815 -1.0608 -0.6642 -0.3042
20723SOL    HW272100   0.089   5.751  10.705  0.0975  0.6172 -1.4795
20724SOL     OW72101   1.840   5.921   4.779  0.5116 -0.1038  0.5445
20724SOL    HW172102   1.896   5.858   4.824  0.3658 -0.0529  0.8038
20724SOL    HW272103   1.808   5.978   4.850 -1.2280 -1.1533  0.6545
20725SOL     OW72104  11.794   6.138   4.976  0.1669 -0.1924  0.2510
20725SOL    HW172105  11.734   6.092   4.917  0.6143 -0.1148 -0.2771
20725SOL    HW272106  11.833   6.207   4.922  0.1259  0.2769  0.8112
20726SOL     OW72107   8.637   0.376   8.239  0.0433 -0.1820 -0.0302
20726SOL    HW172108   8.688   0.457   8.242 -0.1612 -0.0176 -0.8347
20726SOL    HW272109   8.608   0.369   8.148  0.6506 -1.5402 -0.1361
20727SOL     OW72110   1.356   9.415  11.972 -0.1920 -0.6046 -0.1767
20727SOL    HW172111   1.409   9.407  11.892  0.4125  0.1571  0.1370
20727SOL    HW272112   1.270   9.441  11.940 -0.0570 -0.6650 -0.6082
20728SOL     OW72113   4.075   6.793   0.901 -0.1705 -0.1673  0.2414
20728SOL    HW172114   4.129   6.714   0.895  0.9257  0.4328  1.5458
20728SOL    HW272115   4.023   6.780   0.981 -1.1700 -0.2399 -0.3956
20729SOL     OW72116   2.332   1.587  12.689  0.2027  0.3925 -0.1677
20729SOL    HW172117   2.393   1.513  12.688 -0.9969 -0.6171 -1.0112
20729SOL    HW272118   2.326   1.614  12.598 -0.2733  0.7781 -0.0250
20730SOL     OW72119  11.413   1.582   6.913  0.0164 -0.0989  0.1114
20730SOL    HW172120  11.430   1.644   6.984 -0.7326 -0.2330  0.4144
20730SOL    HW272121  11.341   1.621   6.863  0.3459 -0.1465 -0.4080
20731SOL     OW72122   0.583   0.844   7.978 -0.2182 -0.6257  0.3689
20731SOL    HW172123   0.510   0.872   7.922  0.2985 -0.7248 -0.3770
20731SOL    HW272124   0.628   0.925   8.001 -0.6563 -0.5490  0.9680
20732SOL     OW72125   1.660   2.172   1.717 -0.3294 -0.0504  0.1156
20732SOL    HW172126   1.571   2.203   1.703 -0.5651 -1.3202 -1.5222
20732SOL    HW272127   1.694   2.153   1.629  1.4807  0.1816  0.7111
20733SOL     OW72128   6.137   6.959   6.777 -0.2668  0.5042  0.3574
20733SOL    HW172129   6.094   6.899   6.716  0.1364 -0.3900  0.9285
20733SOL    HW272130   6.079   6.962   6.853  0.0451  0.3105  0.6043
20734SOL     OW72131   9.442  10.651   0.055 -0.2223 -0.5428  0.1385
20734SOL    HW172132   9.497  10.573   0.054 -0.6214 -0.8316  0.5223
20734SOL    HW272133   9.478  10.707  -0.013  1.4535 -0.1087  1.3208
20735SOL     OW72134  12.870   5.454   8.675 -0.3007  0.2505 -0.0098
20735SOL    HW172135  12.775   5.447   8.668 -0.3117 -0.5588  0.8057
20735SOL    HW272136  12.885   5.491   8.763  0.1757 -1.1289  0.5091
20736SOL     OW72137   9.927   7.619  12.571  0.4518  0.2334 -0.2200
20736SOL    HW172138  10.009   7.572  12.587  0.9955  0.5175 -1.9489
20736SOL    HW272139   9.887   7.573  12.497  0.1814  1.4583 -0.8578
20737SOL     OW72140   4.678  12.989  13.032 -0.0719  0.0988  0.6111
20737SOL    HW172141   4.693  13.074  12.990  0.7157  0.4515  1.5593
20737SOL    HW272142   4.585  12.972  13.020  0.1979 -0.1125 -1.7794
20738SOL     OW72143   3.759   3.479  11.216  0.4351  0.5493 -0.2267
20738SOL    HW172144   3.794   3.535  11.146  1.1351  0.3653 -0.0393
20738SOL    HW272145   3.679   3.442  11.180  0.2263  1.2857 -0.5380
20739SOL     OW72146   6.396  11.555   7.065  0.5565 -0.1627 -0.2507
20739SOL    HW172147   6.327  11.489   7.066 -0.3269  0.7301 -0.9644
20739SOL    HW272148   6.428  11.557   7.156  0.6664 -1.6211 -0.2347
20740SOL     OW72149  10.927   7.286   8.250  0.0081 -0.0340  0.0667
20740SOL    HW172150  10.857   7.350   8.264 -0.5105 -0.8239  1.2126
20740SOL    HW272151  11.004   7.326   8.290 -0.4333 -0.3235  1.2426
20741SOL     OW72152   0.142   4.314   6.433  0.2890  0.2074  0.2794
20741SOL    HW172153   0.200   4.267   6.493  0.1252  0.6080  0.7496
20741SOL    HW272154   0.062   4.330   6.483  0.3688  1.0583  0.1497
20742SOL     OW72155   6.526   3.462  12.459 -0.2324 -0.1527  0.1477
20742SOL    HW172156   6.558   3.376  12.432 -1.2866 -0.1237 -1.3689
20742SOL    HW272157   6.433   3.447  12.477 -0.1798  0.4616  0.9560
20743SOL     OW72158   6.404   3.554  12.806 -0.7160 -0.1499  0.0646
20743SOL    HW172159   6.453   3.625  12.849 -2.4620 -0.4731  2.8389
20743SOL    HW272160   6.323   3.594  12.778 -0.5472 -0.4701 -0.9009
20744SOL     OW72161   7.491   8.286  12.051 -0.4795 -0.1732 -0.0485
20744SOL    HW172162   7.570   8.331  12.082 -1.3465  1.7779 -0.5209
20744SOL    HW272163   7.501   8.282  11.956 -0.8014 -0.1948 -0.0829
20745SOL     OW72164  12.743  10.542   8.878 -0.4686 -0.4912  0.2278
20745SOL    HW172165  12.826  10.529   8.924 -0.5319  0.2020  0.5575
20745SOL    HW272166  12.769  10.563   8.788 -0.0206  3.3286  1.0483
20746SOL     OW72167   0.175  12.163  10.321  0.5613  0.3330  0.5227
20746SOL    HW172168   0.135  12.130  10.241  1.4087 -0.2539  0.3319
20746SOL    HW272169   0.254  12.111  10.332  0.0697 -0.1324  2.1686
20747SOL     OW72170   4.462  11.075  11.100 -0.1865  0.5643  1.1153
20747SOL    HW172171   4.474  11.046  11.190  0.8124 -3.0445 -0.0172
20747SOL    HW272172   4.547  11.060  11.058 -1.4327 -0.8632 -1.1101
20748SOL     OW72173   7.900  12.830  13.003  0.7295  0.2367  0.2344
20748SOL    HW172174   7.927  12.749  13.046 -0.8694  0.4069  1.7169
20748SOL    HW272175   7.809  12.813  12.976  1.1816  0.7082 -1.6900
20749SOL     OW72176   0.287  12.781   2.252  0.4947  0.2109  0.2667
20749SOL    HW172177   0.248  12.862   2.284 -1.2857 -0.3877 -0.2745
20749SOL    HW272178   0.378  12.785   2.281  0.0403  1.6593  1.6201
20750SOL     OW72179   4.319  13.196   8.823  0.8537 -0.1947 -0.6452
20750SOL    HW172180   4.248  13.157   8.772 -0.2584 -0.7041  1.2053
20750SOL    HW272181   4.323  13.287   8.793 -2.2978  0.5805  0.8568
20751SOL     OW72182   5.489  11.326   5.103  0.6184  0.3915  0.0217
20751SOL    HW172183   5.453  11.383   5.171  1.4610  1.4174 -0.3485
20751SOL    HW272184   5.431  11.341   5.027 -0.2288 -0.6357  0.4438
20752SOL     OW72185   2.608   2.646  10.229 -0.2998  0.1188  0.0381
20752SOL    HW172186   2.626   2.587  10.302 -2.7310 -0.7257  0.0385
20752SOL    HW272187   2.541   2.706  10.262  0.3706  1.3487 -0.7388
20753SOL     OW72188  13.157   1.994  10.859 -0.3328  0.2179 -0.0982
20753SOL    HW172189  13.214   1.917  10.861 -0.5927 -0.0004  2.8564
20753SOL    HW272190  13.107   1.984  10.778  0.7500 -1.8566 -0.5907
20754SOL     OW72191  10.941   7.137   6.345  0.6077  0.0405 -0.1366
20754SOL    HW172192  10.871   7.202   6.351  0.5546  0.1289 -1.3833
20754SOL    HW272193  11.011   7.182   6.298  0.8650 -0.5657 -0.3395
20755SOL     OW72194   0.867   7.486   7.285 -0.3942  0.3200 -1.0450
20755SOL    HW172195   0.907   7.494   7.199 -0.1184  0.1884 -0.9305
20755SOL    HW272196   0.781   7.448   7.269  0.3391 -1.4047 -1.1130
20756SOL     OW72197   2.682   9.509  11.846  0.5456  0.8453 -0.3898
20756SOL    HW172198   2.637   9.518  11.762  1.2894  1.6464 -0.7193
20756SOL    HW272199   2.683   9.415  11.863  0.3249  0.6808 -1.2472
20757SOL     OW72200   9.140   7.334   9.557 -0.2757  0.2236 -0.6441
20757SOL    HW172201   9.118   7.408   9.613 -1.4723 -0.4860 -0.1316
20757SOL    HW272202   9.066   7.274   9.567 -0.3720 -0.0790 -2.7117
20758SOL     OW72203   5.958   1.257   4.856 -0.0496  0.1314 -0.2223
20758SOL    HW172204   6.053   1.250   4.848 -0.1145 -2.1343  0.3226
20758SOL    HW272205   5.944   1.322   4.925  1.2518 -1.4265  1.6338
20759SOL     OW72206   8.672   9.764   6.474  0.3988 -0.1900  0.2777
20759SOL    HW172207   8.727   9.835   6.441  0.3631 -0.0140  0.5995
20759SOL    HW272208   8.716   9.734   6.553 -0.0461  0.0519  0.6197
20760SOL     OW72209   7.632   7.039   7.690  0.1547 -0.4422  0.2123
20760SOL    HW172210   7.649   6.953   7.728  0.1280 -0.1175  0.9827
20760SOL    HW272211   7.548   7.065   7.726  2.2693  2.0304  4.0893
20761SOL     OW72212   8.903   8.836  13.041  0.2433  0.6418 -0.4241
20761SOL    HW172213   8.892   8.900  12.970 -0.3029 -0.3013 -1.2179
20761SOL    HW272214   8.830   8.775  13.029  1.3183 -0.7122 -0.3187
20762SOL     OW72215   0.698  10.907   8.309  0.0271 -0.7663  0.0774
20762SOL    HW172216   0.666  10.896   8.398  0.4670 -0.3171  0.2959
20762SOL    HW272217   0.793  10.901   8.317  0.1815  1.0354 -0.0965
20763SOL     OW72218   2.324   2.481   9.602 -0.1474  0.2396  0.2930
20763SOL    HW172219   2.346   2.483   9.695  1.5999  0.0918 -0.0804
20763SOL    HW272220   2.242   2.530   9.595 -0.6568 -0.3020  1.9802
20764SOL     OW72221   5.856  11.891   2.289 -0.0183  0.1606  0.3102
20764SOL    HW172222   5.857  11.985   2.270 -1.3875 -0.1905 -1.9965
20764SOL    HW272223   5.948  11.864   2.281  0.3168  1.2015  0.4627
20765SOL     OW72224   9.900  10.267   8.299 -0.2054  0.8272  0.3228
20765SOL    HW172225   9.951  10.244   8.221 -0.4721  1.7561 -0.1328
20765SOL    HW272226   9.953  10.235   8.372  0.3632  0.5405 -0.2038
20766SOL     OW72227   3.527   5.787   5.946 -0.1429 -0.9003 -0.3093
20766SOL    HW172228   3.594   5.850   5.975 -0.6139 -0.7329  0.4475
20766SOL    HW272229   3.520   5.801   5.852 -0.4032  0.3523 -0.1244
20767SOL     OW72230   7.361  13.075   4.541 -0.9121  0.4488  0.0728
20767SOL    HW172231   7.369  13.052   4.449  0.5594 -0.0523  0.3065
20767SOL    HW272232   7.298  13.148   4.542 -0.9882  0.4273 -1.3006
20768SOL     OW72233   7.274   9.399   9.200 -0.0928 -0.1183  0.4851
20768SOL    HW172234   7.204   9.458   9.174 -2.8065 -2.3982  2.0780
20768SOL    HW272235   7.331   9.452   9.256 -1.0487  1.5585 -0.0738
20769SOL     OW72236   6.224   2.900   2.972  0.9343 -0.0167  0.0239
20769SOL    HW172237   6.260   2.940   3.051 -0.1270 -0.0190  0.5234
20769SOL    HW272238   6.292   2.840   2.942  1.3735  0.0379  0.8950
20770SOL     OW72239   0.858   3.620   0.555  0.4588  0.4769  0.2846
20770SOL    HW172240   0.827   3.683   0.490 -1.1355  1.0391  1.5487
20770SOL    HW272241   0.928   3.666   0.602  0.7471  0.5162 -0.1750
20771SOL     OW72242   1.733  11.723   2.684  0.3576 -0.1656 -0.0805
20771SOL    HW172243   1.766  11.738   2.596  0.8233 -0.3422  0.0581
20771SOL    HW272244   1.693  11.636   2.680  0.2585 -0.1169 -0.1501
20772SOL     OW72245   6.516   7.781  12.194 -0.2596  0.1355  0.0700
20772SOL    HW172246   6.574   7.851  12.166 -0.9175  0.6546 -0.0179
20772SOL    HW272247   6.535   7.771  12.288 -1.4498  1.7362  0.5411
20773SOL     OW72248   4.846   8.877   5.488 -0.0975 -0.6363 -0.0679
20773SOL    HW172249   4.765   8.844   5.528  0.0375 -1.3366 -0.3572
20773SOL    HW272250   4.916   8.836   5.540  0.1142 -2.7480 -1.8577
20774SOL     OW72251  13.167  10.132   4.691 -0.0443 -0.3244 -0.2816
20774SOL    HW172252  13.205  10.052   4.729  0.7675 -0.4052 -1.2213
20774SOL    HW272253  13.086  10.146   4.742 -0.2004 -1.7301 -0.0793
20775SOL     OW72254   7.294   0.499  11.659 -0.2918 -0.0135  0.3342
20775SOL    HW172255   7.237   0.435  11.616  1.4964 -0.4216 -1.5938
20775SOL    HW272256   7.259   0.507  11.747 -1.7210 -2.2166  0.0425
20776SOL     OW72257  12.020   0.558  10.511  0.7132 -0.1900  0.2038
20776SOL    HW172258  12.046   0.637  10.557 -1.4028 -0.0461  1.2372
20776SOL    HW272259  12.059   0.487  10.561  0.3494  0.0828  0.8806
20777SOL     OW72260  10.453  11.804   5.052 -0.0958  0.0263  0.3115
20777SOL    HW172261  10.461  11.882   4.997 -1.9385  0.1185  0.0831
20777SOL    HW272262  10.363  11.774   5.036  0.5871 -2.1792  0.3555
20778SOL     OW72263   5.996   5.358   8.920  0.1030  0.6241 -0.4676
20778SOL    HW172264   6.000   5.347   9.015 -1.7874  2.9674 -0.0355
20778SOL    HW272265   5.913   5.317   8.894  0.1226  0.8816 -0.9581
20779SOL     OW72266   2.161   7.324   0.718 -0.0842 -0.2344  1.0579
20779SOL    HW172267   2.070   7.303   0.697  0.7815 -1.5149 -2.1115
20779SOL    HW272268   2.182   7.268   0.792 -1.0431 -2.3227 -0.1529
20780SOL     OW72269   0.574  12.740   0.178 -0.0781 -0.2534  0.5556
20780SOL    HW172270   0.646  12.733   0.240  0.1089  0.0808  0.3749
20780SOL    HW272271   0.591  12.673   0.112  0.4140  0.2582  0.1584
20781SOL     OW72272  11.674   5.854   4.142  0.3252  0.5694 -0.0319
20781SOL    HW172273  11.671   5.915   4.068 -1.7312  0.6304  0.0394
20781SOL    HW272274  11.728   5.781   4.111 -1.1714  0.1949 -1.9439
20782SOL     OW72275  11.345   1.037   8.710  0.1444  0.1021  0.4055
20782SOL    HW172276  11.263   1.071   8.746 -0.2326 -1.9523  1.6524
20782SOL    HW272277  11.318   0.974   8.643  0.8051  1.2966 -1.0611
20783SOL     OW72278   9.809   1.970   3.119 -0.5386 -0.2440  0.1674
20783SOL    HW172279   9.867   1.945   3.046 -1.8435  0.8082 -1.3008
20783SOL    HW272280   9.867   2.014   3.181  0.2601  0.8153 -1.2822
20784SOL     OW72281   5.436   2.568   7.395  0.8928  0.4536 -0.7126
20784SOL    HW172282   5.370   2.620   7.441  0.8009 -0.2585 -0.0028
20784SOL    HW272283   5.425   2.589   7.303 -0.2249  0.4552 -0.5833
20785SOL     OW72284   7.039   3.722   5.199  0.4607  0.5473 -0.6200
20785SOL    HW172285   7.088   3.642   5.177 -1.0984 -0.9678  1.0123
20785SOL    HW272286   6.962   3.719   5.143 -0.2409  0.1853  0.3409
20786SOL     OW72287   6.287  10.664   9.774 -0.1342  0.2777  0.1513
20786SOL    HW172288   6.241  10.631   9.697 -0.1580  1.9077 -0.5611
20786SOL    HW272289   6.273  10.758   9.772  1.8669  0.6282  0.8248
20787SOL     OW72290  12.948  13.078   5.999 -0.0499 -0.2680 -0.0898
20787SOL    HW172291  13.010  13.127   5.943  0.8243 -1.5972 -0.3313
20787SOL    HW272292  12.866  13.126   5.990  0.9309  1.5794  0.2597
20788SOL     OW72293  12.761   5.756   7.811 -0.2608 -0.0005  0.1574
20788SOL    HW172294  12.729   5.718   7.893  1.0390 -1.4918  0.0202
20788SOL    HW272295  12.818   5.689   7.774  0.2974  1.2087 -1.2818
20789SOL     OW72296   4.118   2.775   4.956 -0.5264  0.5161  0.2740
20789SOL    HW172297   4.204   2.815   4.971 -0.0756 -0.4554  0.3533
20789SOL    HW272298   4.114   2.761   4.862 -0.3742  0.1047  0.3233
20790SOL     OW72299   5.671  11.592  11.312 -0.4722  0.1982 -0.3716
20790SOL    HW172300   5.661  11.503  11.345 -1.9515  0.6420  0.4589
20790SOL    HW272301   5.596  11.603  11.252 -1.7240  1.6377  1.3540
20791SOL     OW72302   0.411  10.550   9.423  0.4379  0.2969 -0.2424
20791SOL    HW172303   0.451  10.620   9.474  1.1020 -1.0649  1.1840
20791SOL    HW272304   0.482  10.490   9.404 -0.1162  0.0017 -1.4643
20792SOL     OW72305   5.159   6.032   8.974  0.3109  0.0534  0.1732
20792SOL    HW172306   5.142   6.035   8.880 -0.1372  1.6069  0.2750
20792SOL    HW272307   5.161   5.939   8.995 -0.9995 -0.2964 -1.1124
20793SOL     OW72308   6.583   3.770  12.102 -0.0392 -0.1956  0.2543
20793SOL    HW172309   6.519   3.722  12.049  1.0680 -1.1720 -0.2516
20793SOL    HW272310   6.617   3.838  12.044  1.7222 -1.7307 -0.6458
20794SOL     OW72311  11.676  13.304  11.212  0.3482  0.6052 -0.0420
20794SOL    HW172312  11.594  13.311  11.261  1.2655  0.6038  1.5859
20794SOL    HW272313  11.695  13.210  11.212  1.1479  0.7456  1.0408
20795SOL     OW72314   9.210   0.058   3.803 -0.6034 -0.2715  0.2105
20795SOL    HW172315   9.158   0.055   3.883 -0.0878 -0.3544  0.5514
20795SOL    HW272316   9.300   0.070   3.834 -0.3692 -0.5520 -0.3472
20796SOL     OW72317   5.859  12.314   4.441 -0.4078 -0.0692 -0.5508
20796SOL    HW172318   5.800  12.378   4.403 -0.1274  0.3511 -0.2857
20796SOL    HW272319   5.945  12.335   4.405 -0.2536 -0.0683 -0.1921
20797SOL     OW72320  12.557   8.400   3.160  0.6665 -0.0915 -0.3824
20797SOL    HW172321  12.498   8.352   3.102  1.1510 -0.1771 -0.8125
20797SOL    HW272322  12.537   8.367   3.248  0.0767 -0.1124 -0.5199
20798SOL     OW72323   1.171   6.739   6.404 -0.1977 -0.5323  0.1372
20798SOL    HW172324   1.247   6.797   6.396 -0.8437  0.2073 -0.8829
20798SOL    HW272325   1.095   6.796   6.389 -0.9112 -1.4314  0.2274
20799SOL     OW72326  12.079  11.039   4.611 -0.6879 -0.5408 -0.1616
20799SOL    HW172327  12.091  11.126   4.574 -1.3018 -0.5912 -0.4896
20799SOL    HW272328  12.165  11.017   4.648 -0.1596 -0.3247 -1.2162
20800SOL     OW72329   9.319  11.331   1.051  0.1472  0.4207  0.4395
20800SOL    HW172330   9.261  11.262   1.082 -0.0758  0.6091  0.4473
20800SOL    HW272331   9.350  11.300   0.966 -0.1985  0.4493  0.3007
20801SOL     OW72332   2.912   6.665   9.527 -0.1481 -0.2191  0.4741
20801SOL    HW172333   2.864   6.706   9.455  0.1506 -1.0713 -0.2237
20801SOL    HW272334   2.965   6.597   9.485  1.4154  0.4524  1.2692
20802SOL     OW72335   8.260  13.260   5.225  0.5466 -0.2189  0.1347
20802SOL    HW172336   8.166  13.273   5.219  0.3791 -0.8714  1.2263
20802SOL    HW272337   8.297  13.348   5.214 -0.3396  0.5589  2.7803
20803SOL     OW72338   6.235  10.168   7.198 -0.4524  0.0199  0.2139
20803SOL    HW172339   6.264  10.125   7.118 -1.6937  1.1183 -0.8818
20803SOL    HW272340   6.164  10.112   7.231 -0.5822  0.0640  0.0128
20804SOL     OW72341  11.829  12.992   6.299  0.3241 -0.1457  0.3772
20804SOL    HW172342  11.738  12.965   6.309  0.9261 -2.0328  1.1156
20804SOL    HW272343  11.839  13.010   6.206 -0.9709  0.7955  0.3939
20805SOL     OW72344   9.377  10.142  10.802  0.3302 -0.2930  0.8420
20805SOL    HW172345   9.376  10.047  10.789  0.5491 -0.0869 -0.8360
20805SOL    HW272346   9.453  10.158  10.857  2.2448 -0.8377 -1.4733
20806SOL     OW72347   1.627   5.039   0.140  0.2506  0.0864  0.2243
20806SOL    HW172348   1.619   5.050   0.045  2.6606  0.9519  0.0454
20806SOL    HW272349   1.643   4.945   0.152 -1.0374 -0.1961 -0.0976
20807SOL     OW72350   6.872   7.424   9.317  0.0432  0.1111  0.0071
20807SOL    HW172351   6.925   7.492   9.274 -1.8798  1.4020 -0.4297
20807SOL    HW272352   6.782   7.456   9.311 -0.8843 -2.2592  0.2583
20808SOL     OW72353   6.794   3.602   1.994  0.2650  0.0845 -0.0341
20808SOL    HW172354   6.829   3.541   1.930 -0.0982  1.0754 -1.2134
20808SOL    HW272355   6.772   3.680   1.944  0.9036  1.2802  1.4553
20809SOL     OW72356   7.340  12.774   8.430  0.7095 -0.1563 -0.7330
20809SOL    HW172357   7.371  12.786   8.340 -0.4188  0.0271 -1.1183
20809SOL    HW272358   7.260  12.827   8.434  1.0027  0.2132  0.5221
20810SOL     OW72359  12.131   1.386   5.840 -0.0495  0.3403  0.1107
20810SOL    HW172360  12.184   1.307   5.848  0.9473  1.0381  0.5317
20810SOL    HW272361  12.041   1.354   5.836  0.1370 -0.7237  2.6157
20811SOL     OW72362  10.604   4.665  10.264  0.4152  0.6495 -0.0037
20811SOL    HW172363  10.528   4.694  10.214 -0.1782 -2.5448 -1.1499
20811SOL    HW272364  10.568   4.617  10.338  1.3359  1.2280  0.8439
20812SOL     OW72365   6.266   0.959   8.835  0.4017 -0.3094 -0.4316
20812SOL    HW172366   6.325   0.897   8.792  0.8282 -0.8482  0.8799
20812SOL    HW272367   6.209   0.990   8.765  1.1020 -1.1039 -1.3907
20813SOL     OW72368   2.103   9.580   3.164 -0.3117 -0.1013  0.3547
20813SOL    HW172369   2.100   9.614   3.074  1.8096 -0.6019  0.0376
20813SOL    HW272370   2.072   9.489   3.156 -0.4387 -0.0428  0.1804
20814SOL     OW72371   0.685   9.633  12.034  0.4872  0.0930 -0.4153
20814SOL    HW172372   0.671   9.569  12.104  0.8699  0.4701  0.0120
20814SOL    HW272373   0.603   9.632  11.984 -0.3644  0.8944  0.9260
20815SOL     OW72374   6.865   3.429   1.760 -0.3544 -0.4087 -0.5269
20815SOL    HW172375   6.873   3.334   1.747  0.3719 -0.0254 -3.8474
20815SOL    HW272376   6.785   3.452   1.712 -2.3244  0.4150  2.7793
20816SOL     OW72377  10.045   3.960   7.665 -0.2255 -0.5620  0.5194
20816SOL    HW172378  10.109   4.024   7.695 -1.1681  0.0946  1.2137
20816SOL    HW272379  10.080   3.927   7.582  0.7609  0.1199  0.6522
20817SOL     OW72380   3.472   7.667   8.554  0.1400 -0.5679  0.4033
20817SOL    HW172381   3.517   7.594   8.597 -0.6646 -1.1180  0.3391
20817SOL    HW272382   3.504   7.745   8.599  1.3637 -0.9136  0.1656
20818SOL     OW72383   2.645   2.850  11.331  0.1499 -0.0112  0.2079
20818SOL    HW172384   2.621   2.790  11.402 -0.8559 -0.9375 -0.8756
20818SOL    HW272385   2.571   2.846  11.270  1.0308  0.6752 -0.9513
20819SOL     OW72386   2.445   9.959   0.846 -0.5035 -0.2609 -0.0646
20819SOL    HW172387   2.501  10.031   0.816 -0.2393 -0.9400 -1.2613
20819SOL    HW272388   2.370   9.961   0.786 -0.5025 -0.9677 -0.0922
20820SOL     OW72389   3.528   8.385   1.787 -0.0543  0.1689 -0.2635
20820SOL    HW172390   3.509   8.299   1.750  1.4504  0.4135 -1.7248
20820SOL    HW272391   3.443   8.420   1.814 -0.7328 -1.5799 -0.0583
20821SOL     OW72392   2.524   3.325   5.887 -0.1034 -0.5636 -0.1770
20821SOL    HW172393   2.467   3.303   5.961 -1.0438 -0.3687 -0.8298
20821SOL    HW272394   2.569   3.243   5.866 -0.2210 -0.7444  0.2723
20822SOL     OW72395   1.019   2.575   1.820 -0.5242 -0.0246 -0.2238
20822SOL    HW172396   1.003   2.669   1.824  0.9941  0.2163  0.5869
20822SOL    HW272397   0.933   2.538   1.797 -1.0940  1.5486 -0.7843
20823SOL     OW72398   4.717   1.961  10.437  0.1303  0.3228  0.1914
20823SOL    HW172399   4.776   1.889  10.460 -1.7180 -0.8424  1.5379
20823SOL    HW272400   4.767   2.013  10.374  2.0640 -1.3454  0.2324
20824SOL     OW72401   3.975   4.430   5.071 -0.4530  0.0927 -0.4811
20824SOL    HW172402   4.037   4.502   5.084 -0.2940  0.2215 -1.7532
20824SOL    HW272403   3.984   4.375   5.148  1.1427  0.1890 -0.5607
20825SOL     OW72404   9.976   1.042   2.622  0.2435 -0.9643  0.3225
20825SOL    HW172405   9.958   1.060   2.530  2.2632 -2.3969 -0.4438
20825SOL    HW272406  10.069   1.064   2.633 -0.2917  0.5996  2.4546
20826SOL     OW72407  11.951   2.683  12.353 -0.0859 -0.0307  0.1498
20826SOL    HW172408  11.943   2.776  12.333 -0.8154 -0.3261 -1.0516
20826SOL    HW272409  11.985   2.644  12.272  2.1988 -0.5417  1.2823
20827SOL     OW72410   2.931   3.039   7.877  0.1865 -0.2081  0.2237
20827SOL    HW172411   2.922   3.040   7.972  0.2015 -1.3036  0.2427
20827SOL    HW272412   2.941   2.947   7.854  0.6418  0.0807 -0.7995
20828SOL     OW72413   5.248  11.603   9.380 -0.7734 -0.2302 -0.3516
20828SOL    HW172414   5.227  11.565   9.294  1.5901  0.8411 -1.4852
20828SOL    HW272415   5.222  11.536   9.442 -1.6766 -1.4520 -1.9631
20829SOL     OW72416   9.071  10.921   6.212 -0.0529 -0.2853 -0.6605
20829SOL    HW172417   9.096  10.958   6.127 -0.7897 -1.0681 -1.2278
20829SOL    HW272418   9.001  10.860   6.192 -0.6353 -0.0521  0.5937
20830SOL     OW72419  12.893   1.795   6.199 -0.2747 -0.7450 -0.5001
20830SOL    HW172420  12.837   1.870   6.218 -2.3743 -2.4945  0.7616
20830SOL    HW272421  12.889   1.785   6.104  0.5072  0.9924 -0.7627
20831SOL     OW72422  10.747   0.933  12.291 -0.4785  0.5596  0.0993
20831SOL    HW172423  10.665   0.922  12.242 -0.6996 -1.4493  0.8224
20831SOL    HW272424  10.808   0.969  12.227 -1.5914  0.9695 -0.7774
20832SOL     OW72425  11.452   4.016  12.371 -0.4495 -0.3143 -0.1043
20832SOL    HW172426  11.478   3.990  12.283  0.1251 -0.1271  0.0032
20832SOL    HW272427  11.462   3.936  12.423  1.2606  0.0671  0.2131
20833SOL     OW72428  13.244   3.314   1.653 -0.5610  0.0163 -0.0592
20833SOL    HW172429  13.218   3.302   1.561 -2.0079 -0.5504  0.4096
20833SOL    HW272430  13.168   3.355   1.694  0.4747  1.3035  0.6770
20834SOL     OW72431   0.537   6.277   8.649  0.6090 -0.1463 -0.0791
20834SOL    HW172432   0.609   6.335   8.623  0.5284  0.2919  0.6589
20834SOL    HW272433   0.544   6.203   8.589  1.2257  0.2348 -0.4955
20835SOL     OW72434   4.663   7.465   3.193 -0.4423 -0.0182 -0.3176
20835SOL    HW172435   4.626   7.439   3.108  1.6973 -1.4556 -0.8881
20835SOL    HW272436   4.718   7.390   3.219  0.9414  1.4225  1.1170
20836SOL     OW72437  10.887   7.552   6.928  0.3803  0.0884  0.1256
20836SOL    HW172438  10.850   7.564   6.841 -1.5383  0.3555  0.9055
20836SOL    HW272439  10.907   7.459   6.934 -1.8867 -0.4540  0.2143
20837SOL     OW72440  12.344  11.493   1.145 -0.3051  0.5210 -0.5948
20837SOL    HW172441  12.360  11.412   1.194  1.2527  1.7075  0.9422
20837SOL    HW272442  12.427  11.512   1.102 -0.0357  2.3280  0.6507
20838SOL     OW72443  11.871  12.270   1.918 -0.2261  0.7590  0.2726
20838SOL    HW172444  11.937  12.290   1.852 -0.4920  0.8140  0.0217
20838SOL    HW272445  11.814  12.205   1.877  0.1712  0.0663  0.7991
20839SOL     OW72446   2.954   5.580   9.939  0.1317  0.3406 -0.5216
20839SOL    HW172447   2.934   5.540  10.023  1.5634 -1.9979 -1.1988
20839SOL    HW272448   3.045   5.557   9.922  0.4961  2.4350 -1.8453
20840SOL     OW72449   9.981   8.833  11.348 -0.2583 -0.2018 -0.3528
20840SOL    HW172450  10.037   8.839  11.271 -1.9760  1.2971 -1.5564
20840SOL    HW272451   9.918   8.764  11.326 -0.6450  0.1081 -0.2163
20841SOL     OW72452  12.765  11.796   0.274 -0.4291  0.2703 -0.3802
20841SOL    HW172453  12.676  11.763   0.263 -0.2231 -0.0669 -1.0436
20841SOL    HW272454  12.763  11.841   0.359 -1.3400  0.6186 -0.5689
20842SOL     OW72455   6.007   9.390   4.662 -0.4736 -0.0554 -0.4461
20842SOL    HW172456   5.996   9.302   4.696 -1.7028  0.1612 -0.2544
20842SOL    HW272457   5.950   9.394   4.585  3.4179 -1.0631 -3.7350
20843SOL     OW72458   1.830   2.450  11.630 -0.2173  0.3682  0.3911
20843SOL    HW172459   1.860   2.367  11.593 -1.6595  0.1002 -0.2610
20843SOL    HW272460   1.753   2.426  11.683 -2.1559  1.4806 -1.7105
20844SOL     OW72461   6.855   8.063   5.849  0.1140  0.1498  0.1938
20844SOL    HW172462   6.894   8.150   5.857  0.4138  0.2584 -1.9030
20844SOL    HW272463   6.895   8.013   5.921  0.4581  1.5366  1.0110
20845SOL     OW72464  11.402   5.255  10.131  0.3647  0.4094 -0.8821
20845SOL    HW172465  11.424   5.323  10.194  2.0050  0.7863 -1.7906
20845SOL    HW272466  11.386   5.177  10.184  3.5910  0.2039  0.0139
20846SOL     OW72467   3.292   1.044   1.070 -0.6192  0.3721  0.1307
20846SOL    HW172468   3.380   1.056   1.035 -1.0185  2.4708 -0.3227
20846SOL    HW272469   3.303   1.052   1.165 -0.4056  1.5942  0.0264
20847SOL     OW72470  12.611   7.662   6.855  0.1241 -0.4057  0.3326
20847SOL    HW172471  12.590   7.575   6.819  0.3951  0.1903 -1.3658
20847SOL    HW272472  12.605   7.720   6.780  1.6186  0.7900  1.1028
20848SOL     OW72473   5.400  10.441   6.728 -0.4985 -0.0349  0.6037
20848SOL    HW172474   5.485  10.468   6.762 -0.8101  2.2824 -0.2864
20848SOL    HW272475   5.343  10.439   6.805 -0.6276  2.7612  0.6671
20849SOL     OW72476   0.226   3.297   3.939 -0.0698  0.2224  0.2417
20849SOL    HW172477   0.137   3.313   3.970 -0.8587 -1.2273 -1.1089
20849SOL    HW272478   0.214   3.252   3.855  1.9365 -0.8742  0.4884
20850SOL     OW72479   3.815   2.786   3.997  0.4243 -0.3957  0.0588
20850SOL    HW172480   3.846   2.757   4.083  1.6514  2.9123  0.8958
20850SOL    HW272481   3.725   2.754   3.991  0.5832 -1.4045  2.2155
20851SOL     OW72482   8.465   3.374   0.208  0.1226 -0.2010 -0.3494
20851SOL    HW172483   8.413   3.455   0.206  1.4524  0.6878 -0.0849
20851SOL    HW272484   8.436   3.326   0.131 -1.8707 -0.2495  0.3733
20852SOL     OW72485  11.257   0.246   1.756  0.0201  1.1593 -0.5779
20852SOL    HW172486  11.172   0.209   1.731 -0.2509  1.9471 -0.8407
20852SOL    HW272487  11.316   0.217   1.686  0.4419 -1.0608  0.6018
20853SOL     OW72488  11.301   6.906  11.639  0.4500 -0.1403  0.4245
20853SOL    HW172489  11.303   6.876  11.730  0.3887  1.0110  0.8211
20853SOL    HW272490  11.384   6.953  11.628  0.1398  0.3369  0.1015
20854SOL     OW72491   8.107   8.186   0.472 -0.3458 -0.5410 -0.6016
20854SOL    HW172492   8.130   8.268   0.427  0.6961  0.3251  1.4002
20854SOL    HW272493   8.113   8.119   0.404  0.6613  0.7749 -1.8620
20855SOL     OW72494   5.118  10.485   5.083 -0.1868  0.5280 -0.1328
20855SOL    HW172495   5.031  10.514   5.112 -1.6870 -2.0372 -1.7837
20855SOL    HW272496   5.136  10.539   5.006 -0.5814  0.6526 -0.1453
20856SOL     OW72497   1.486  10.292   2.946 -0.1867  0.4872  0.5773
20856SOL    HW172498   1.555  10.243   2.991  0.1194  0.7072  0.3551
20856SOL    HW272499   1.442  10.227   2.892  1.0068  0.6626 -0.6643
20857SOL     OW72500   2.872   0.749  12.027 -0.1545 -0.3297 -0.3843
20857SOL    HW172501   2.815   0.745  11.950  1.5683 -1.4354 -1.6981
20857SOL    HW272502   2.945   0.691  12.005  2.1653  2.0172  0.6063
20858SOL     OW72503   4.758  11.194   0.341 -0.1019  0.0468 -0.2659
20858SOL    HW172504   4.793  11.270   0.387  0.0287 -0.9333  1.3448
20858SOL    HW272505   4.834  11.139   0.323 -0.1473  0.4274 -1.7493
20859SOL     OW72506   6.465   5.926   0.178  0.3737  0.6901 -0.0704
20859SOL    HW172507   6.554   5.953   0.156  0.3717 -0.1575 -1.2477
20859SOL    HW272508   6.471   5.832   0.194  0.0786  1.0080  2.2291
20860SOL     OW72509  10.866   3.325   6.020 -0.0305 -0.6922  0.9336
20860SOL    HW172510  10.931   3.271   6.065  0.3585 -1.4900 -0.5226
20860SOL    HW272511  10.790   3.325   6.079  1.2807  0.3716  2.7303
20861SOL     OW72512   8.857   1.501   1.495 -0.1953 -0.4658 -0.2124
20861SOL    HW172513   8.893   1.447   1.425 -0.8063 -1.9576  0.5913
20861SOL    HW272514   8.819   1.577   1.450  1.7873 -0.0254 -1.2659
20862SOL     OW72515   4.043  11.917  11.118 -0.2882  0.2185 -0.2605
20862SOL    HW172516   4.049  12.012  11.129  1.0315  0.1241 -0.0310
20862SOL    HW272517   4.127  11.884  11.149 -0.4444 -0.9660 -1.0307
20863SOL     OW72518   0.202   6.326   1.939 -0.4651 -0.1293 -0.6510
20863SOL    HW172519   0.179   6.258   1.875  2.2291 -1.4119 -0.4042
20863SOL    HW272520   0.298   6.323   1.943 -0.4817  0.7283  2.5878
20864SOL     OW72521  11.701   1.819   2.278 -0.3153  0.6087  0.0272
20864SOL    HW172522  11.607   1.809   2.266 -0.0358  0.6315 -3.1850
20864SOL    HW272523  11.735   1.830   2.189  2.8553 -0.4860  0.9659
20865SOL     OW72524   0.831  11.147  13.272  0.7798 -0.4325  0.3992
20865SOL    HW172525   0.742  11.114  13.280  0.4397 -0.0318 -1.3842
20865SOL    HW272526   0.850  11.185  13.358 -1.1146  0.2997  0.5396
20866SOL     OW72527  13.280   7.977   5.631 -0.2243  0.3461  0.6089
20866SOL    HW172528  13.226   7.969   5.553 -0.9239  1.0832  1.0032
20866SOL    HW272529  13.228   8.032   5.691  0.8508  0.8820  1.0812
20867SOL     OW72530  11.548  10.854   9.501 -0.0092 -0.1613  0.2893
20867SOL    HW172531  11.484  10.912   9.541 -0.0761  0.6579 -0.9540
20867SOL    HW272532  11.610  10.913   9.458  0.4208 -0.9911 -0.2588
20868SOL     OW72533   2.229   2.511   8.179  0.0735 -0.6410 -1.2494
20868SOL    HW172534   2.310   2.502   8.228 -0.6970  0.7238  0.3525
20868SOL    HW272535   2.182   2.428   8.193 -0.1954 -0.2209  0.4862
20869SOL     OW72536   2.565   8.775   6.197  0.5541  0.0482 -0.5621
20869SOL    HW172537   2.484   8.755   6.151 -0.0914 -2.5095  1.4349
20869SOL    HW272538   2.633   8.765   6.130 -0.6321  0.7080 -1.9088
20870SOL     OW72539   0.163   8.460   8.699 -0.2677  0.6158  0.4139
20870SOL    HW172540   0.094   8.446   8.764  0.4012 -1.8780  0.7207
20870SOL    HW272541   0.149   8.390   8.635  1.9251  0.0618  0.4702
20871SOL     OW72542   5.447   6.472   7.986  0.3183 -0.0202 -0.0003
20871SOL    HW172543   5.435   6.492   7.893 -0.0867 -2.6306 -0.5949
20871SOL    HW272544   5.507   6.397   7.987  2.1300  1.3501  2.0222
20872SOL     OW72545   4.771   3.213   0.178 -0.3227  0.1345 -0.1383
20872SOL    HW172546   4.841   3.268   0.215  1.0573 -0.0593 -2.2996
20872SOL    HW272547   4.807   3.124   0.181 -1.2184 -0.2177  0.3479
20873SOL     OW72548   1.797   6.534   2.778 -0.2733  0.2251  0.3604
20873SOL    HW172549   1.834   6.622   2.768  0.4258 -0.1514 -0.4904
20873SOL    HW272550   1.863   6.486   2.828 -0.1918 -0.0857 -0.0377
20874SOL     OW72551   6.099  11.945   8.070  0.2631  0.3417 -0.0096
20874SOL    HW172552   6.129  11.906   7.988 -1.1695  0.6766 -0.7181
20874SOL    HW272553   6.004  11.943   8.065  0.1444  0.3832  1.6543
20875SOL     OW72554   2.597  10.392  12.966 -0.2977 -0.3249  0.1995
20875SOL    HW172555   2.623  10.324  13.029 -1.5006  0.3808  1.5107
20875SOL    HW272556   2.528  10.441  13.010 -3.2602 -1.5010 -2.7201
20876SOL     OW72557  11.911   6.619   9.699 -0.4049 -0.4392  0.0963
20876SOL    HW172558  11.943   6.574   9.621 -2.3686 -2.6961  0.4569
20876SOL    HW272559  11.968   6.590   9.770  0.5062  0.4973 -0.2325
20877SOL     OW72560   2.193   6.080   5.318 -0.5192 -0.6397  0.0579
20877SOL    HW172561   2.121   6.126   5.360 -1.3354 -0.6115 -1.3386
20877SOL    HW272562   2.209   6.004   5.375  0.5715  1.0531  2.1593
20878SOL     OW72563   4.803   1.645  12.036 -0.1846 -0.4229 -0.0050
20878SOL    HW172564   4.771   1.577  11.977  1.5237 -1.5529  0.2830
20878SOL    HW272565   4.836   1.598  12.112  1.9253  0.5868 -0.1963
20879SOL     OW72566   7.655   2.661   3.181 -0.1918 -0.7291  0.4635
20879SOL    HW172567   7.575   2.710   3.198  0.0883 -0.9830  2.7828
20879SOL    HW272568   7.643   2.626   3.093 -1.0661  2.1518 -0.6850
20880SOL     OW72569  11.417   5.055   9.080  0.4071  0.5457 -0.6039
20880SOL    HW172570  11.333   5.027   9.044  0.7079 -1.0213 -0.1576
20880SOL    HW272571  11.482   5.020   9.019  0.8021  0.2374 -0.0178
20881SOL     OW72572  12.566  12.843   4.223 -0.5703  0.2128 -0.3355
20881SOL    HW172573  12.549  12.776   4.156  1.0107 -0.3985 -0.1658
20881SOL    HW272574  12.479  12.870   4.252 -1.3080 -2.6339  0.4289
20882SOL     OW72575   4.823  10.952  12.473  0.3690  0.0081  0.2818
20882SOL    HW172576   4.761  10.882  12.454  2.1194 -1.4209 -0.5820
20882SOL    HW272577   4.875  10.960  12.392 -0.8484  3.5578 -0.3061
20883SOL     OW72578   7.380   6.367  11.870 -0.0733  0.0586  0.2773
20883SOL    HW172579   7.452   6.371  11.807 -0.2844 -2.2645 -0.1955
20883SOL    HW272580   7.355   6.459  11.884  3.4723  1.0478  1.1072
20884SOL     OW72581   3.628   7.799  12.762 -0.2501 -0.1128 -0.2324
20884SOL    HW172582   3.536   7.780  12.745 -0.1301 -0.2999 -0.6750
20884SOL    HW272583   3.639   7.782  12.856 -1.0204  1.3413  0.1652
20885SOL     OW72584   0.415   0.079   2.461  0.5598 -0.0350 -0.5456
20885SOL    HW172585   0.341   0.138   2.451 -1.1271 -1.4522  2.3059
20885SOL    HW272586   0.377  -0.009   2.463  2.3356 -0.8534  0.5101
20886SOL     OW72587  11.442  13.282   6.334 -0.1253 -0.6220  0.4371
20886SOL    HW172588  11.526  13.256   6.372  0.8535  1.4641 -0.1603
20886SOL    HW272589  11.400  13.199   6.312  1.1258 -1.7764  2.0499
20887SOL     OW72590   6.974  12.109  11.961  0.4529 -0.4253 -0.3576
20887SOL    HW172591   6.999  12.026  11.920  0.4003 -0.6525  0.0637
20887SOL    HW272592   7.027  12.113  12.041  1.8220  0.8251 -1.2816
20888SOL     OW72593   5.949   0.405   4.023 -0.0053  0.2711  0.7056
20888SOL    HW172594   5.952   0.495   3.990 -0.1402  0.6682  1.7301
20888SOL    HW272595   5.856   0.383   4.023  0.0693 -0.0706 -0.0453
20889SOL     OW72596   4.900  11.625   5.460  0.3241 -0.5252 -0.0828
20889SOL    HW172597   4.874  11.543   5.503  0.0330  0.0678  0.8826
20889SOL    HW272598   4.839  11.632   5.386  0.5534 -1.3314 -0.3635
20890SOL     OW72599   8.107   9.675   4.597  0.0442  0.0137 -0.3224
20890SOL    HW172600   8.060   9.697   4.517 -1.5682 -0.6279  0.4250
20890SOL    HW272601   8.040   9.649   4.659  1.4328 -1.8179  0.5185
20891SOL     OW72602  11.563   5.248   9.871  0.8093  0.6477  0.0695
20891SOL    HW172603  11.535   5.320   9.815 -0.0914  0.5739  0.4100
20891SOL    HW272604  11.516   5.261   9.953  2.3214  0.9103  0.9264
20892SOL     OW72605   9.020  13.151   6.219 -0.1965  0.7135 -0.7861
20892SOL    HW172606   9.037  13.197   6.137 -0.3204 -1.2459 -1.9820
20892SOL    HW272607   8.924  13.144   6.223 -0.2984  2.2736  0.4296
20893SOL     OW72608   8.471   4.856  11.265 -0.3021  0.7181 -0.2146
20893SOL    HW172609   8.563   4.870  11.243 -0.0016 -1.0119 -0.2356
20893SOL    HW272610   8.432   4.822  11.184 -0.0735 -1.9944  0.6856
20894SOL     OW72611   7.241  11.352   3.148 -0.3213  0.2494 -0.2104
20894SOL    HW172612   7.195  11.389   3.073  0.4515 -0.2948 -0.9862
20894SOL    HW272613   7.195  11.386   3.224 -0.8110  1.2362 -0.9225
20895SOL     OW72614   0.205   3.570   8.560 -0.5440 -0.4792 -0.4622
20895SOL    HW172615   0.200   3.549   8.467 -0.8744 -1.3376 -0.2510
20895SOL    HW272616   0.295   3.602   8.572 -0.0039 -1.8134 -0.7858
20896SOL     OW72617   4.073   9.384  12.346 -0.1043 -0.0576 -0.2693
20896SOL    HW172618   4.159   9.352  12.320  1.2597  1.6187  1.8526
20896SOL    HW272619   4.037   9.424  12.267  0.7361 -1.3489 -1.3503
20897SOL     OW72620   5.648  10.905   3.025  0.2730 -0.7506  0.4505
20897SOL    HW172621   5.586  10.964   2.982 -0.8582 -0.5975  2.1739
20897SOL    HW272622   5.709  10.880   2.956  0.3979  1.9024 -0.5293
20898SOL     OW72623   4.754   2.046   5.490  0.1967 -0.0790 -0.1033
20898SOL    HW172624   4.770   2.107   5.562 -0.4301  0.2841 -0.2663
20898SOL    HW272625   4.659   2.045   5.480  0.2189 -0.8259 -0.3292
20899SOL     OW72626   2.549   0.839   7.756  0.3882 -0.5629  0.0741
20899SOL    HW172627   2.531   0.745   7.753 -0.6337 -0.3902  0.1262
20899SOL    HW272628   2.632   0.846   7.803  1.5857 -1.5396 -1.7629
20900SOL     OW72629  11.619   3.758  11.312  0.0021 -0.4686  0.0360
20900SOL    HW172630  11.701   3.715  11.334 -0.3236 -0.9266  0.3896
20900SOL    HW272631  11.633   3.850  11.335  0.8116 -0.3029 -1.0227
20901SOL     OW72632  12.367  11.260   6.997 -0.0092 -0.9162 -0.0992
20901SOL    HW172633  12.295  11.246   7.058 -1.3936 -0.9058 -1.6750
20901SOL    HW272634  12.346  11.206   6.921  0.6588  0.5481 -1.3816
20902SOL     OW72635   0.487   9.605   6.663  0.5247 -0.0721  0.8875
20902SOL    HW172636   0.426   9.675   6.688 -0.0530 -0.5372  0.8073
20902SOL    HW272637   0.562   9.616   6.721  0.0379  0.0517  1.5076
20903SOL     OW72638   6.382   4.688  11.185 -0.2262  0.2711  0.3329
20903SOL    HW172639   6.396   4.783  11.178 -2.4211  0.5894 -0.4074
20903SOL    HW272640   6.288   4.678  11.194 -0.0777 -1.8904 -0.0443
20904SOL     OW72641   1.485   8.121   7.759  0.5130  0.6264 -0.8745
20904SOL    HW172642   1.552   8.066   7.718  1.7866  2.6155 -1.5857
20904SOL    HW272643   1.417   8.129   7.693 -0.1442 -0.8083 -0.4170
20905SOL     OW72644  10.765   6.027  12.585 -0.0097 -0.1749 -0.2277
20905SOL    HW172645  10.854   6.062  12.590 -0.0575 -0.2007  1.4020
20905SOL    HW272646  10.776   5.932  12.582  0.0231 -0.1809  0.0500
20906SOL     OW72647   7.552   6.818  11.409  0.1690 -0.1594 -0.4123
20906SOL    HW172648   7.567   6.771  11.326  0.2360  0.3221 -0.6751
20906SOL    HW272649   7.457   6.816  11.420  0.2619 -1.9092  0.4972
20907SOL     OW72650   9.679  11.797   9.433  0.6705  0.2004 -0.0267
20907SOL    HW172651   9.705  11.727   9.493  1.8845 -1.2410 -2.0924
20907SOL    HW272652   9.748  11.863   9.441  0.8551 -0.0071  0.0960
20908SOL     OW72653   7.616   4.845  10.816  0.1420  0.3098  0.2780
20908SOL    HW172654   7.681   4.791  10.769 -0.7694 -2.2728  1.7570
20908SOL    HW272655   7.565   4.886  10.746  0.9332 -0.6897 -0.9569
20909SOL     OW72656   5.865  13.119   4.339 -0.7862 -0.1914 -0.2408
20909SOL    HW172657   5.891  13.124   4.431  0.0046  1.7206 -0.5281
20909SOL    HW272658   5.792  13.057   4.339 -0.9306 -0.1047  1.6942
20910SOL     OW72659  12.854   3.849   3.748 -0.1512  0.5166  0.2613
20910SOL    HW172660  12.770   3.804   3.763 -0.7718  1.2269 -0.9606
20910SOL    HW272661  12.838   3.905   3.673  2.2311 -1.4181 -1.8838
20911SOL     OW72662  10.853   9.932   1.297 -0.4895 -0.1091  0.2317
20911SOL    HW172663  10.801  10.012   1.286 -0.3126 -0.1102 -0.6544
20911SOL    HW272664  10.944   9.964   1.303 -0.5346 -0.1434  1.2989
20912SOL     OW72665  11.789  10.937   6.757 -0.1171 -0.7385  0.1614
20912SOL    HW172666  11.820  10.850   6.732 -0.1061 -0.5336 -0.5306
20912SOL    HW272667  11.761  10.978   6.675 -1.2569 -0.5375  0.6266
20913SOL     OW72668   4.640   0.894  11.567 -0.5505  0.0092 -0.1167
20913SOL    HW172669   4.699   0.839  11.516  0.8928  2.1191 -0.8492
20913SOL    HW272670   4.609   0.960  11.506 -1.5295  0.5690  0.9404
20914SOL     OW72671   1.586  12.746   0.780  0.4714  0.1525  0.2219
20914SOL    HW172672   1.625  12.700   0.705  0.0222  0.1110  0.0065
20914SOL    HW272673   1.571  12.835   0.748  0.8386  0.3023  0.4626
20915SOL     OW72674   5.846   3.135   8.985 -0.2587 -0.3478 -0.4454
20915SOL    HW172675   5.811   3.164   8.900  0.5319 -0.0275 -0.6669
20915SOL    HW272676   5.919   3.078   8.963 -1.7267 -2.5278 -0.0163
20916SOL     OW72677   1.948   9.073   7.780  1.1361  0.2729  0.2963
20916SOL    HW172678   1.940   9.099   7.688  0.3332 -0.9000  0.0118
20916SOL    HW272679   1.951   8.978   7.778  1.6284  0.2465  1.4652
20917SOL     OW72680   7.059   7.568   5.629  0.1605  0.6748 -0.6960
20917SOL    HW172681   7.031   7.560   5.537 -2.7931 -1.1645  0.2283
20917SOL    HW272682   6.981   7.601   5.674  0.4032 -1.6414  1.6247
20918SOL     OW72683   4.237   8.320   3.421  0.0027 -0.6204  0.6776
20918SOL    HW172684   4.307   8.355   3.476  1.0336 -1.7799  0.1332
20918SOL    HW272685   4.217   8.391   3.360  0.3664 -0.1015  1.1528
20919SOL     OW72686   3.501   8.767   6.522  0.0182  0.1752 -0.3825
20919SOL    HW172687   3.425   8.710   6.538 -1.1055  2.0275  1.3920
20919SOL    HW272688   3.474   8.823   6.449  0.1412  0.0653 -0.5124
20920SOL     OW72689   9.634  11.245   0.224  0.4399 -0.5137 -0.4484
20920SOL    HW172690   9.596  11.266   0.139  1.5706  2.3113 -0.3630
20920SOL    HW272691   9.696  11.175   0.205  0.5124 -0.0959 -1.9371
20921SOL     OW72692   8.035   9.154   4.686  0.1682  0.2036 -0.1697
20921SOL    HW172693   8.084   9.165   4.768 -1.4338 -0.0914  0.8846
20921SOL    HW272694   8.032   9.059   4.673  0.3946  0.2490 -0.5602
20922SOL     OW72695  13.179  10.517   8.640 -0.2872 -0.2425 -0.3779
20922SOL    HW172696  13.164  10.459   8.565  2.1931 -0.9051 -0.4279
20922SOL    HW272697  13.178  10.459   8.716 -3.9789  0.5702  0.3930
20923SOL     OW72698   6.821   6.421  11.636  0.2910 -0.2016  0.2408
20923SOL    HW172699   6.807   6.508  11.674 -0.8788 -0.2525 -0.0464
20923SOL    HW272700   6.906   6.394  11.670 -0.6948 -0.2768  2.9114
20924SOL     OW72701   6.581   9.952   5.493 -0.4740  0.9751  1.0150
20924SOL    HW172702   6.644   9.977   5.560 -1.8221 -0.9505  3.1355
20924SOL    HW272703   6.531   9.881   5.532 -1.4346 -0.1901 -2.0170
20925SOL     OW72704   6.511   7.399   4.187 -0.7400 -0.7604 -0.1489
20925SOL    HW172705   6.588   7.440   4.227 -0.3797 -0.0030 -1.5426
20925SOL    HW272706   6.492   7.323   4.242  0.5027 -0.4906  0.6851
20926SOL     OW72707   1.278   1.631   8.712 -0.0274  0.5701  0.1006
20926SOL    HW172708   1.331   1.566   8.758 -0.8419 -0.3730 -0.2402
20926SOL    HW272709   1.316   1.637   8.625 -0.8677 -0.6565 -0.3899
20927SOL     OW72710   0.371   8.810   5.301  0.6679 -0.1617 -0.5203
20927SOL    HW172711   0.442   8.844   5.248  0.8490  0.8564  0.3355
20927SOL    HW272712   0.323   8.751   5.243  1.1398  0.5394 -1.6486
20928SOL     OW72713   8.499   9.765   8.049 -0.5482  0.6319 -0.3693
20928SOL    HW172714   8.439   9.692   8.033 -0.1331  0.5204 -1.4578
20928SOL    HW272715   8.581   9.724   8.075 -0.3597  0.7193 -0.8298
20929SOL     OW72716   5.906   6.427  12.104 -0.6088  0.5854 -0.2589
20929SOL    HW172717   5.879   6.515  12.130 -0.3941  0.7088 -0.4602
20929SOL    HW272718   5.904   6.377  12.186 -1.5689  0.5612 -0.2874
20930SOL     OW72719   9.807  12.540   7.269 -0.6233 -0.6293  0.0429
20930SOL    HW172720   9.795  12.477   7.340 -0.8566 -1.1293 -0.4258
20930SOL    HW272721   9.718  12.563   7.242 -0.5433 -0.9743 -0.5379
20931SOL     OW72722   6.679   4.420   2.770 -0.1857 -0.5912  0.1593
20931SOL    HW172723   6.591   4.393   2.797  0.3798 -2.2609  0.4362
20931SOL    HW272724   6.666   4.460   2.683 -1.0166 -2.5077 -0.6622
20932SOL     OW72725   9.635  10.211   1.558  0.1403 -0.0236 -0.1322
20932SOL    HW172726   9.714  10.246   1.600 -0.1537  1.0797 -0.4744
20932SOL    HW272727   9.606  10.141   1.616  0.5617  0.5280  0.7641
20933SOL     OW72728  12.399   1.298  13.122 -0.0064 -0.2201 -0.1038
20933SOL    HW172729  12.339   1.226  13.142 -0.5689  0.2705 -0.0021
20933SOL    HW272730  12.355   1.346  13.051 -0.1688  0.6650  0.5779
20934SOL     OW72731   3.481   9.334   1.764  0.3015  1.2639 -0.7271
20934SOL    HW172732   3.418   9.406   1.760 -0.2952  0.7352 -1.0621
20934SOL    HW272733   3.541   9.358   1.835 -1.2600  1.0021  0.7707
20935SOL     OW72734   8.285  11.278   5.632  0.3919  0.2024  0.1681
20935SOL    HW172735   8.342  11.341   5.587  0.3168 -0.0078 -0.2272
20935SOL    HW272736   8.197  11.311   5.617  0.2628 -0.7009 -1.1605
20936SOL     OW72737   0.686  10.836   8.037 -0.0661 -0.5452 -0.2313
20936SOL    HW172738   0.595  10.858   8.015  0.1764  1.9690  0.9128
20936SOL    HW272739   0.691  10.848   8.132  1.9734  1.8092 -0.5274
20937SOL     OW72740   8.769   3.627  10.020 -0.1753 -0.0330  0.1715
20937SOL    HW172741   8.760   3.582  10.104 -0.7970  0.0342  0.1438
20937SOL    HW272742   8.734   3.715  10.037  0.9605  0.4344  0.2072
20938SOL     OW72743   3.911   1.797   0.010 -0.1267 -0.2433  0.4387
20938SOL    HW172744   3.835   1.828  -0.039 -0.7657 -1.9371  0.2811
20938SOL    HW272745   3.983   1.851  -0.020 -0.5735 -0.9494 -2.1309
20939SOL     OW72746  10.629  10.352   1.838  0.3637  0.2659  0.6265
20939SOL    HW172747  10.719  10.362   1.807  0.1480  1.4827  0.3606
20939SOL    HW272748  10.638  10.317   1.927  1.1253  1.1986  0.9298
20940SOL     OW72749   5.827   1.675   3.214  0.0259 -0.2260  0.4209
20940SOL    HW172750   5.741   1.636   3.197 -0.2754  0.6835 -0.2437
20940SOL    HW272751   5.828   1.691   3.308 -0.0932 -1.2355  0.6005
20941SOL     OW72752   1.715   3.709   4.212  0.2857 -0.3086 -0.6556
20941SOL    HW172753   1.664   3.790   4.217  1.6947  0.7061 -1.7684
20941SOL    HW272754   1.658   3.642   4.249 -1.6111  0.8630 -1.3077
20942SOL     OW72755   9.700   5.980   5.426 -0.0999 -0.4797  0.2211
20942SOL    HW172756   9.739   6.065   5.445  2.1306 -1.6340  1.1974
20942SOL    HW272757   9.612   6.001   5.393  0.9171  2.2415 -1.1018
20943SOL     OW72758   6.649   6.453   2.621 -0.1504 -0.4229 -0.1926
20943SOL    HW172759   6.610   6.473   2.535 -2.1445 -1.5096  0.3825
20943SOL    HW272760   6.619   6.525   2.677 -2.9979 -2.0937  0.6579
20944SOL     OW72761   0.219   0.272   2.428  0.6245 -0.4592 -0.3706
20944SOL    HW172762   0.267   0.307   2.353  0.0956  2.5615  0.5371
20944SOL    HW272763   0.164   0.345   2.456 -0.2498 -1.9528  2.0959
20945SOL     OW72764   4.364  11.894   8.454 -0.2387 -0.0036  0.6507
20945SOL    HW172765   4.414  11.836   8.511  0.7533  0.2721  0.0945
20945SOL    HW272766   4.378  11.981   8.491  0.7488  0.2293 -0.2154
20946SOL     OW72767   6.861   1.256  10.888 -0.2779 -0.7965 -0.2262
20946SOL    HW172768   6.846   1.163  10.907 -1.5409 -0.5820 -0.0715
20946SOL    HW272769   6.830   1.301  10.967  0.0876 -0.2341 -0.4033
20947SOL     OW72770   8.035   5.305   7.027 -0.1310  0.3893 -0.1369
20947SOL    HW172771   8.117   5.261   7.049 -0.3615 -0.1466 -0.3151
20947SOL    HW272772   7.981   5.236   6.987  0.1026  1.1843 -1.9459
20948SOL     OW72773   8.432  10.032  13.038 -0.2101  0.1378  0.4220
20948SOL    HW172774   8.463  10.066  12.954  0.1112 -0.8569  0.1255
20948SOL    HW272775   8.418  10.110  13.091 -1.9643  0.9169 -1.0574
20949SOL     OW72776   2.979   5.500   2.206 -0.4959  0.3083  0.2864
20949SOL    HW172777   3.060   5.467   2.169  0.0174  1.1669  0.6248
20949SOL    HW272778   2.986   5.595   2.201 -0.7932  0.4379  1.7336
20950SOL     OW72779  10.189  12.804   4.248 -0.6021  0.7723 -0.1713
20950SOL    HW172780  10.284  12.794   4.255 -0.2504  1.3512 -2.9227
20950SOL    HW272781  10.155  12.715   4.263  0.3536  0.5344  0.7257
20951SOL     OW72782   4.064   9.123   5.868 -0.4933  0.0115  0.4560
20951SOL    HW172783   4.119   9.071   5.926 -1.1293 -1.8813 -0.5761
20951SOL    HW272784   3.975   9.092   5.884 -0.9829  1.2194  0.2377
20952SOL     OW72785   3.397   4.278   3.666 -0.0044  0.0792  0.0548
20952SOL    HW172786   3.386   4.215   3.595  1.5942 -0.1133 -0.0473
20952SOL    HW272787   3.309   4.314   3.680 -0.5115 -0.5411 -1.3977
20953SOL     OW72788   6.945   3.752  11.737 -0.2533 -0.2640  0.6927
20953SOL    HW172789   6.850   3.752  11.750 -0.3040 -1.0834  0.4324
20953SOL    HW272790   6.957   3.712  11.651  0.3880 -1.8198  1.4566
20954SOL     OW72791  11.802  11.275  12.077 -0.2791 -0.8735 -0.3720
20954SOL    HW172792  11.852  11.204  12.118 -0.0411 -0.3279  0.3083
20954SOL    HW272793  11.749  11.310  12.148 -1.1677 -1.0371 -0.9508
20955SOL     OW72794  10.045   3.248   0.015 -0.0626 -0.0354 -0.1329
20955SOL    HW172795   9.953   3.227   0.002 -0.8000 -0.0967  3.7687
20955SOL    HW272796  10.051   3.342  -0.001 -0.4106 -0.2696 -1.8227
20956SOL     OW72797  11.637   6.490   6.552 -0.1112  0.5161 -0.2457
20956SOL    HW172798  11.694   6.535   6.615 -0.2070  0.2775  0.0139
20956SOL    HW272799  11.559   6.467   6.603 -0.1193  0.1742 -0.4091
20957SOL     OW72800   3.184  10.219  10.370  0.3944 -0.0170 -0.4313
20957SOL    HW172801   3.266  10.266  10.379 -0.0690  0.6536  0.4646
20957SOL    HW272802   3.126  10.280  10.325  0.1721 -0.2313 -0.4410
20958SOL     OW72803   3.110   2.290   9.358 -0.0381 -0.0686  0.3087
20958SOL    HW172804   3.121   2.380   9.326 -3.8588 -0.2015 -1.9303
20958SOL    HW272805   3.116   2.299   9.454 -1.3620  2.7944  0.2403
20959SOL     OW72806   7.099   5.422   2.173 -0.2727  0.2910 -0.4582
20959SOL    HW172807   7.049   5.499   2.200  1.1985  1.5138 -1.0878
20959SOL    HW272808   7.055   5.348   2.217 -1.7778  1.4487  0.0715
20960SOL     OW72809   3.744   8.464   6.343 -0.1458 -0.1281  0.0804
20960SOL    HW172810   3.820   8.423   6.303  0.1727  0.4819  0.0545
20960SOL    HW272811   3.669   8.415   6.308  0.2166 -0.6147 -0.0259
20961SOL     OW72812   5.270   2.596  11.670 -0.2810  0.3560 -0.5437
20961SOL    HW172813   5.279   2.569  11.578  0.6112  1.6865 -0.8790
20961SOL    HW272814   5.203   2.664  11.669 -1.1466 -0.4795 -0.0087
20962SOL     OW72815  11.804   1.793   7.069  0.3550 -0.7793 -0.1068
20962SOL    HW172816  11.795   1.854   7.143  0.5794 -0.3688 -0.4168
20962SOL    HW272817  11.763   1.712   7.100 -2.2428  0.2621 -0.5646
20963SOL     OW72818   4.596   8.812   2.768  0.5293 -0.5832 -0.4556
20963SOL    HW172819   4.572   8.720   2.780 -0.6329 -0.1049  1.3388
20963SOL    HW272820   4.590   8.850   2.856  2.5372  0.8827 -0.8826
20964SOL     OW72821   5.196   9.010   0.027  0.5305  0.3395 -0.4824
20964SOL    HW172822   5.189   9.035   0.119 -1.1971 -2.2327  0.1929
20964SOL    HW272823   5.289   9.017   0.007  1.3834 -1.5087  2.2618
20965SOL     OW72824   5.703  12.455   6.164  0.0610 -0.0490 -0.1712
20965SOL    HW172825   5.657  12.531   6.127 -1.0465 -0.3881  0.4572
20965SOL    HW272826   5.754  12.420   6.090  0.1203  0.9482 -0.6172
20966SOL     OW72827   5.389   9.576   2.952  0.1015  0.2707 -0.2221
20966SOL    HW172828   5.405   9.614   3.038 -1.8422 -2.0132  1.2987
20966SOL    HW272829   5.305   9.613   2.924  0.0341 -0.0586 -0.4666
20967SOL     OW72830   5.318   1.462   2.135  0.2935  0.0064  0.0457
20967SOL    HW172831   5.334   1.540   2.081 -0.3527  1.0497  1.3206
20967SOL    HW272832   5.360   1.482   2.218  0.4424 -1.1786  0.2613
20968SOL     OW72833   4.780   4.592   6.473 -0.4755  0.1451 -0.3452
20968SOL    HW172834   4.817   4.634   6.551 -0.5999 -1.4947  0.6431
20968SOL    HW272835   4.794   4.656   6.403  0.6331  1.2160  0.7900
20969SOL     OW72836   9.844   5.365  11.182 -0.3691  0.5434  0.0563
20969SOL    HW172837   9.894   5.364  11.264  0.9713  0.5200 -0.7328
20969SOL    HW272838   9.911   5.364  11.113 -1.4467  1.6943 -1.0446
20970SOL     OW72839   2.780  10.542   1.406 -0.1903  0.6982  0.3794
20970SOL    HW172840   2.717  10.600   1.363 -0.6023  0.1711  0.2640
20970SOL    HW272841   2.763  10.456   1.369  1.4457  0.7424 -0.6181
20971SOL     OW72842   6.604   5.036  12.334 -0.5611 -0.3470 -0.2863
20971SOL    HW172843   6.595   4.959  12.278 -1.0746 -0.1750 -0.4425
20971SOL    HW272844   6.516   5.071  12.342 -0.1399  1.0493 -1.4002
20972SOL     OW72845  11.366  11.937   8.780 -0.0796  0.0061  0.3198
20972SOL    HW172846  11.333  11.874   8.843 -1.0414 -0.5874 -0.7341
20972SOL    HW272847  11.414  11.885   8.716 -1.7095  0.1484 -1.1035
20973SOL     OW72848   7.447  12.045   3.901 -0.4315  0.8082 -0.6954
20973SOL    HW172849   7.418  11.973   3.845  0.5522  0.7999 -1.2126
20973SOL    HW272850   7.536  12.020   3.927 -0.0093  1.9086 -1.0310
20974SOL     OW72851   1.526   2.843   2.883 -0.4686 -0.2604  0.2334
20974SOL    HW172852   1.465   2.772   2.906 -0.6324 -1.5333 -3.5138
20974SOL    HW272853   1.495   2.874   2.798  0.9962  2.8405  0.7088
20975SOL     OW72854   0.050  10.479  12.994 -0.2227  0.4517 -0.6956
20975SOL    HW172855   0.019  10.560  13.034 -0.2157  0.3544 -0.4934
20975SOL    HW272856   0.133  10.460  13.038 -1.5347 -1.1426  1.2315
20976SOL     OW72857   3.798   5.389   4.008  0.0054 -0.4480  0.3335
20976SOL    HW172858   3.770   5.453   3.944  2.5580 -0.5669 -1.0588
20976SOL    HW272859   3.764   5.421   4.092  1.1236  2.7274 -0.2969
20977SOL     OW72860  11.563   8.900  11.310 -0.2402  1.1285  0.2262
20977SOL    HW172861  11.483   8.876  11.357 -0.9119  0.9473 -0.9576
20977SOL    HW272862  11.533   8.921  11.221  1.2967 -1.2785 -0.9624
20978SOL     OW72863   0.780   2.569   8.696  0.1663  0.5104 -0.6175
20978SOL    HW172864   0.691   2.533   8.703 -0.6342  2.6716  1.7732
20978SOL    HW272865   0.768   2.659   8.667  1.4647  1.1344  0.6299
20979SOL     OW72866  10.248   0.970   4.183 -1.0999 -0.2773 -0.4376
20979SOL    HW172867  10.268   0.877   4.185  1.1333  0.0414  3.4516
20979SOL    HW272868  10.332   1.014   4.199 -2.0548  2.4535 -2.1588
20980SOL     OW72869  12.252   1.023  10.109 -0.2785 -0.0070  0.5071
20980SOL    HW172870  12.247   0.983  10.021 -0.3845  1.1121 -0.0134
20980SOL    HW272871  12.333   0.988  10.146  0.0440 -0.0940 -0.2470
20981SOL     OW72872   3.241   8.878  12.973  0.1441 -0.4409 -0.1757
20981SOL    HW172873   3.312   8.816  12.954  0.3603  0.1375 -1.3475
20981SOL    HW272874   3.168   8.823  13.001  0.5127 -1.1891 -0.6570
20982SOL     OW72875  10.356   9.978   3.063  0.4627 -0.9004  1.0486
20982SOL    HW172876  10.301  10.053   3.041  1.9238  0.2884  1.2648
20982SOL    HW272877  10.330   9.956   3.153  0.5712 -0.1048  1.2898
20983SOL     OW72878   1.177  11.047   2.052 -0.6386 -0.5306  0.2802
20983SOL    HW172879   1.111  11.062   2.120 -1.0618 -1.4667  0.1102
20983SOL    HW272880   1.129  11.061   1.970 -0.0363  0.9583  0.1581
20984SOL     OW72881   1.768   8.056   7.982  0.0579  0.1173  0.2293
20984SOL    HW172882   1.734   8.100   8.060  0.4319  0.2693  0.3085
20984SOL    HW272883   1.858   8.033   8.005 -0.3834 -1.4850  0.5221
20985SOL     OW72884  13.072   5.741   4.082 -0.1621  0.7233  0.5935
20985SOL    HW172885  12.992   5.690   4.066 -1.4573  2.6818  0.3967
20985SOL    HW272886  13.141   5.691   4.040 -1.3064 -0.9673  0.6221
20986SOL     OW72887  12.985  12.960   3.135 -0.0574  0.1382 -0.5052
20986SOL    HW172888  13.035  13.027   3.183  0.1814  0.9443 -1.8349
20986SOL    HW272889  12.915  13.008   3.092 -0.9360 -0.7397 -0.1079
20987SOL     OW72890   5.905   7.674   2.071 -0.3049  0.1422  0.0154
20987SOL    HW172891   5.938   7.760   2.101 -0.1989  0.5387 -1.2031
20987SOL    HW272892   5.984   7.626   2.047 -0.4414  0.1549 -0.4663
20988SOL     OW72893   8.052   4.064   0.121 -0.1218  0.5120 -0.2068
20988SOL    HW172894   7.995   4.016   0.181  0.5253 -1.3821 -1.0477
20988SOL    HW272895   8.013   4.151   0.116 -1.4815  0.0231  1.1896
20989SOL     OW72896  10.061   3.325   3.511  0.5041  0.4091  0.1733
20989SOL    HW172897  10.143   3.369   3.492  0.3185  0.8167  0.3029
20989SOL    HW272898  10.072   3.236   3.476 -0.5444  1.6380 -3.7850
20990SOL     OW72899   0.793   8.463   8.936 -0.3455 -0.0383 -0.4512
20990SOL    HW172900   0.725   8.404   8.904 -2.1262  1.7921 -0.2287
20990SOL    HW272901   0.751   8.513   9.005  1.1109  1.4683 -0.5958
20991SOL     OW72902  13.023   8.320   7.792 -0.0747 -0.2715 -0.9702
20991SOL    HW172903  12.959   8.317   7.863 -0.8906  0.4404 -1.6594
20991SOL    HW272904  13.000   8.398   7.741  1.5045  0.1483 -1.0877
20992SOL     OW72905   2.245   4.825   8.002 -0.4140 -0.2017 -0.0966
20992SOL    HW172906   2.228   4.834   7.908  0.6174  2.0100 -0.1153
20992SOL    HW272907   2.292   4.742   8.010 -0.1280 -0.2124 -1.5963
20993SOL     OW72908   4.376   7.501   9.275 -0.1218 -0.1240  0.2295
20993SOL    HW172909   4.353   7.473   9.364 -2.0348 -0.1128 -0.2194
20993SOL    HW272910   4.416   7.423   9.235 -0.1164 -0.4208  0.8050
20994SOL     OW72911   2.666   2.849  13.156  0.1734  0.3232  0.0423
20994SOL    HW172912   2.593   2.820  13.211  0.2213  2.5204  1.4154
20994SOL    HW272913   2.673   2.783  13.087 -2.8083 -0.2133  0.1204
20995SOL     OW72914   8.295   8.903  12.771 -0.0718  0.3986 -0.0740
20995SOL    HW172915   8.385   8.872  12.776  0.4815  1.6768 -1.4781
20995SOL    HW272916   8.258   8.883  12.857  1.6653  0.2154  0.6660
20996SOL     OW72917   6.670  11.053  12.708  0.0846 -0.0634  0.5758
20996SOL    HW172918   6.744  11.079  12.763  0.9071 -2.4338  0.7079
20996SOL    HW272919   6.669  10.957  12.713 -1.9596 -0.1759 -0.7964
20997SOL     OW72920  11.428  10.923   4.232  0.2416  0.2478 -0.1700
20997SOL    HW172921  11.340  10.909   4.196  0.3545  2.7389 -1.7131
20997SOL    HW272922  11.413  10.960   4.319 -0.1947 -0.2071 -0.0458
20998SOL     OW72923   6.374   5.123  10.055 -0.0422 -0.5558  0.4203
20998SOL    HW172924   6.310   5.057  10.031 -1.3534  1.0936 -0.8496
20998SOL    HW272925   6.342   5.158  10.138 -1.2910  0.7946 -0.5847
20999SOL     OW72926  11.816   7.413  10.807 -0.3914 -0.7475  0.4909
20999SOL    HW172927  11.733   7.429  10.763 -0.7563 -0.0913  1.3901
20999SOL    HW272928  11.877   7.477  10.768 -0.4068 -0.9618  0.1130
21000SOL     OW72929  10.311   1.750   3.832 -0.2747  0.2393 -0.1969
21000SOL    HW172930  10.395   1.796   3.831 -0.2614  0.2159 -0.1070
21000SOL    HW272931  10.265   1.783   3.755  0.2636 -0.5758 -0.8872
21001SOL     OW72932   2.300   5.093   8.637 -0.1131  0.6008 -0.3450
21001SOL    HW172933   2.239   5.141   8.580 -0.6057 -0.9719 -1.2060
21001SOL    HW272934   2.255   5.011   8.655  1.8213 -0.7140 -1.1789
21002SOL     OW72935   3.536  10.098   9.274  0.3114 -0.7741  0.1953
21002SOL    HW172936   3.594  10.051   9.214 -0.5876 -0.3359 -1.0549
21002SOL    HW272937   3.591  10.119   9.349  1.6485 -0.7874 -0.7433
21003SOL     OW72938   9.238  12.396   2.412 -0.2968  0.2856  0.1274
21003SOL    HW172939   9.227  12.478   2.460 -2.0334  0.1036  0.0841
21003SOL    HW272940   9.149  12.366   2.395  0.3075 -0.9642 -0.9756
21004SOL     OW72941   1.627   8.510   8.258 -0.2789 -0.2252 -0.2193
21004SOL    HW172942   1.585   8.436   8.302  1.0690 -0.3823  0.8519
21004SOL    HW272943   1.621   8.582   8.320  2.6638 -0.7501  0.8447
21005SOL     OW72944   2.805   9.488  11.295 -0.0645  0.0006  0.3615
21005SOL    HW172945   2.869   9.549  11.333  1.1659 -0.3907 -0.9818
21005SOL    HW272946   2.722   9.535  11.300  0.4501  0.8583  1.4158
21006SOL     OW72947   6.976  10.996   2.028 -0.1976  0.0300  0.0086
21006SOL    HW172948   6.881  11.003   2.037  0.0006  2.2336  0.9245
21006SOL    HW272949   6.999  11.062   1.963  0.7243 -0.5513 -0.2808
21007SOL     OW72950   7.512  10.520  11.565  0.7698 -0.2590 -0.3728
21007SOL    HW172951   7.470  10.596  11.606 -0.7210 -0.5358 -1.3030
21007SOL    HW272952   7.514  10.541  11.472  0.6140 -1.2111 -0.6039
21008SOL     OW72953   9.619  10.508  10.298 -0.2835 -0.1312 -0.0071
21008SOL    HW172954   9.597  10.510  10.204 -1.4071 -0.2450  0.2322
21008SOL    HW272955   9.604  10.417  10.323 -1.1804  0.1553  0.5348
21009SOL     OW72956   4.896   0.079   9.739 -0.6025  0.7076 -0.4849
21009SOL    HW172957   4.989   0.072   9.722 -0.9161  1.3914 -2.7938
21009SOL    HW272958   4.857   0.099   9.654 -2.7301  1.6248  0.6248
21010SOL     OW72959   9.209   8.484   7.515 -0.7453  0.4374  0.3333
21010SOL    HW172960   9.180   8.475   7.424 -0.2076 -0.0413  0.2057
21010SOL    HW272961   9.298   8.449   7.515 -0.9881 -0.1926  1.1825
21011SOL     OW72962  10.397   4.610  10.624 -0.2695 -0.2976 -0.0851
21011SOL    HW172963  10.407   4.559  10.544  1.8251  2.0167 -1.4350
21011SOL    HW272964  10.340   4.683  10.600 -1.1585 -0.5513  1.1096
21012SOL     OW72965   7.389  10.373   1.140  0.2402  0.1889  1.0533
21012SOL    HW172966   7.434  10.456   1.134  0.7400 -0.0986  0.7555
21012SOL    HW272967   7.412  10.339   1.226  1.6837 -0.5641  0.4019
21013SOL     OW72968  12.852  11.113   9.194  1.0677 -0.3552 -0.0478
21013SOL    HW172969  12.848  11.129   9.100 -1.0244 -0.5709 -0.0411
21013SOL    HW272970  12.904  11.033   9.203 -0.2452 -1.3730 -1.1790
21014SOL     OW72971   4.181   5.104   8.176 -0.7241 -0.2727  0.5155
21014SOL    HW172972   4.275   5.088   8.174 -0.8276 -0.8914  0.2146
21014SOL    HW272973   4.159   5.105   8.269 -0.0751  2.1496  0.7103
21015SOL     OW72974  10.991   5.402   3.702  0.2593 -0.1146  0.1485
21015SOL    HW172975  10.952   5.346   3.769 -0.4023 -2.3771 -1.9596
21015SOL    HW272976  10.934   5.391   3.626  1.7520  1.2073 -1.2388
21016SOL     OW72977   3.932   8.232   6.634  0.0144  0.1155 -0.0021
21016SOL    HW172978   3.933   8.249   6.729  0.8873 -0.5304  0.1145
21016SOL    HW272979   3.876   8.301   6.598 -0.3148  0.3786  0.9822
21017SOL     OW72980   9.401  11.027   8.065  0.8510 -0.5044 -0.2693
21017SOL    HW172981   9.467  11.072   8.012  0.7834 -0.1896 -0.0866
21017SOL    HW272982   9.323  11.025   8.009  0.3368  1.1018  0.3322
21018SOL     OW72983   8.864  12.181   0.559  0.2020  0.4650 -0.1031
21018SOL    HW172984   8.939  12.209   0.610 -0.4155  1.8611  0.0656
21018SOL    HW272985   8.866  12.235   0.480 -1.0639  1.0945  0.2674
21019SOL     OW72986   2.563  11.987  12.579 -0.3450  0.2990 -0.0830
21019SOL    HW172987   2.563  11.892  12.570 -1.0679  0.3626 -0.8886
21019SOL    HW272988   2.505  12.005  12.653 -0.0035  0.1092  0.2352
21020SOL     OW72989  12.265  11.318   3.328 -0.3877  0.0667 -0.2954
21020SOL    HW172990  12.214  11.300   3.407  1.7203 -0.3803  1.0582
21020SOL    HW272991  12.336  11.254   3.331  0.0609  0.4036 -2.3000
21021SOL     OW72992   1.435   4.975   4.172  0.3417 -0.1297  0.5292
21021SOL    HW172993   1.342   4.995   4.171  0.4853  0.8222 -2.1871
21021SOL    HW272994   1.468   5.019   4.250 -1.1835  1.1622  0.4949
21022SOL     OW72995   6.672   3.675   3.879  0.0872  0.4591  0.4433
21022SOL    HW172996   6.682   3.748   3.818 -1.5403 -1.0294 -1.7735
21022SOL    HW272997   6.693   3.597   3.828  0.9735 -0.7373  2.4878
21023SOL     OW72998   0.907   0.777   5.573 -0.3218  0.0083  0.1731
21023SOL    HW172999   0.991   0.819   5.555  0.5203 -1.5068  0.4236
21023SOL    HW273000   0.879   0.813   5.657  1.0781 -0.9224  1.0787
21024SOL     OW73001   2.634  10.832   5.780  0.9519  0.1907  0.2478
21024SOL    HW173002   2.580  10.901   5.743 -0.4461 -0.5527  0.8006
21024SOL    HW273003   2.653  10.774   5.706  3.7327  2.0347 -0.6552
21025SOL     OW73004   2.793   6.197   3.789  0.4341  0.0980  0.3443
21025SOL    HW173005   2.750   6.243   3.717  0.3023 -0.3618  0.1208
21025SOL    HW273006   2.876   6.243   3.801 -0.0913  0.9532  0.7406
21026SOL     OW73007   3.994   7.488  12.638  0.4905 -0.0883 -0.0715
21026SOL    HW173008   4.047   7.524  12.567  0.3172 -0.6472 -0.4869
21026SOL    HW273009   4.054   7.484  12.713  0.5714  0.8584 -0.0728
21027SOL     OW73010   4.040   4.452   2.344  0.2570  0.3482 -0.0380
21027SOL    HW173011   4.042   4.448   2.440 -0.6985 -0.6811 -0.0367
21027SOL    HW273012   3.949   4.434   2.322 -0.0885  2.9433 -1.0773
21028SOL     OW73013   0.168  10.741   5.649 -0.7713  0.2815 -0.2833
21028SOL    HW173014   0.200  10.675   5.587 -2.5399 -0.1847 -0.7514
21028SOL    HW273015   0.084  10.768   5.613 -0.2174  2.6485  0.0319
21029SOL     OW73016   6.985   0.372   5.808 -0.0956 -0.1569 -0.7817
21029SOL    HW173017   6.938   0.450   5.837  3.2972  1.0580  2.2280
21029SOL    HW273018   7.034   0.401   5.731 -2.0340 -0.6909 -2.3058
21030SOL     OW73019   0.340   5.721   5.017  0.3729  0.0686 -0.1503
21030SOL    HW173020   0.431   5.750   5.026 -0.4165  2.2079  2.0688
21030SOL    HW273021   0.288   5.799   5.035 -1.9443 -1.4598  0.2407
21031SOL     OW73022   9.249   9.620   1.319 -0.5210 -0.0916 -0.3090
21031SOL    HW173023   9.283   9.614   1.230  0.1118 -0.1845 -0.0709
21031SOL    HW273024   9.326   9.641   1.372 -1.2279  2.0817 -0.0422
21032SOL     OW73025   2.005   6.969  12.302  0.5312 -0.7399 -0.4824
21032SOL    HW173026   2.027   6.994  12.212  2.1736  1.4011  0.4173
21032SOL    HW273027   2.090   6.951  12.343  0.2663  1.9442  1.5564
21033SOL     OW73028  10.137  11.846   1.864 -0.3077  0.4417 -0.0336
21033SOL    HW173029  10.150  11.752   1.869  0.1137  0.3191 -2.4349
21033SOL    HW273030  10.045  11.856   1.838 -0.7065  0.7830  1.3898
21034SOL     OW73031   2.412   1.020   9.043  0.9052 -0.2658 -0.4290
21034SOL    HW173032   2.491   1.000   9.093  0.5335 -2.1421 -0.5471
21034SOL    HW273033   2.339   1.001   9.102  0.4933 -0.9902 -1.1469
21035SOL     OW73034  11.878  13.094   1.736  0.0967 -0.4769  0.1302
21035SOL    HW173035  11.847  13.003   1.737 -1.1684 -0.0714  0.3372
21035SOL    HW273036  11.905  13.109   1.646 -1.5015 -0.5023 -0.3831
21036SOL     OW73037   5.384   5.640  12.061 -0.0679 -0.3899 -0.0781
21036SOL    HW173038   5.326   5.572  12.026 -1.3535 -0.0915  1.3806
21036SOL    HW273039   5.332   5.684  12.128  0.5072  2.4695 -1.3553
21037SOL     OW73040   5.657   6.654   6.667  0.0278  0.1920 -0.9429
21037SOL    HW173041   5.637   6.651   6.761 -1.1747 -0.0398 -1.1985
21037SOL    HW273042   5.742   6.610   6.660 -0.0735 -0.1848 -0.0179
21038SOL     OW73043   0.918   2.398  12.789 -0.2276  0.1476 -0.0049
21038SOL    HW173044   0.882   2.477  12.749  1.4932  1.4619  0.8851
21038SOL    HW273045   0.870   2.326  12.749 -0.7337  1.5562 -2.0509
21039SOL     OW73046   5.126   1.360  10.901 -0.2276  0.0612 -0.1928
21039SOL    HW173047   5.205   1.360  10.955  0.4858 -0.8881 -1.2086
21039SOL    HW273048   5.056   1.383  10.963  0.7493  0.3922  0.8362
21040SOL     OW73049   4.115  10.238   2.939 -0.2083 -0.2771 -0.0615
21040SOL    HW173050   4.153  10.270   2.858 -2.1294 -0.9082 -1.2903
21040SOL    HW273051   4.087  10.318   2.985 -1.5312  0.0328 -1.3183
21041SOL     OW73052  10.755  10.011   1.577  0.6948 -0.0482  0.8512
21041SOL    HW173053  10.724  10.029   1.666 -0.9190  0.1103  0.3025
21041SOL    HW273054  10.681   9.967   1.535  1.0844  0.6855 -0.6733
21042SOL     OW73055   9.129  10.285   6.488  0.3576 -0.9132  0.1762
21042SOL    HW173056   9.039  10.275   6.519  0.0612  0.5970 -0.1199
21042SOL    HW273057   9.177  10.216   6.532 -1.0235 -2.0139  0.0167
21043SOL     OW73058   4.131   2.812   1.026  0.2387 -0.8465 -0.2381
21043SOL    HW173059   4.192   2.739   1.013  0.1192 -0.9613 -0.1632
21043SOL    HW273060   4.186   2.890   1.028  0.6316 -1.1322  1.9869
21044SOL     OW73061   0.224   7.089   7.258 -0.1382 -0.8990 -0.8337
21044SOL    HW173062   0.156   7.064   7.321  1.9351 -0.9459  1.5164
21044SOL    HW273063   0.268   7.006   7.237  1.1036 -0.4931  0.0724
21045SOL     OW73064   3.687   6.942   2.777  0.4367 -0.6417  0.4402
21045SOL    HW173065   3.746   6.926   2.851  0.6559 -0.0370  0.3966
21045SOL    HW273066   3.603   6.906   2.806  0.8956 -1.8209  0.3668
21046SOL     OW73067   3.801   4.969   2.592  0.0464  0.1415  0.0387
21046SOL    HW173068   3.708   4.990   2.578  0.0337 -0.4148 -0.8094
21046SOL    HW273069   3.849   5.041   2.552 -0.0156  0.5665  0.7179
21047SOL     OW73070   1.839  10.401  12.402 -0.2543  0.2255 -0.0544
21047SOL    HW173071   1.888  10.412  12.483 -1.5100  1.0498  0.6254
21047SOL    HW273072   1.898  10.432  12.333  0.4027  0.6101  0.6719
21048SOL     OW73073  12.445  11.240  12.370 -0.1009  0.2138  0.5429
21048SOL    HW173074  12.518  11.237  12.309  0.1226 -2.2670  0.8229
21048SOL    HW273075  12.482  11.277  12.450  0.5449  0.1059  0.2971
21049SOL     OW73076  12.757   3.318   0.802 -0.2055 -0.0662  0.4137
21049SOL    HW173077  12.800   3.235   0.785  0.8244  0.4170  0.6050
21049SOL    HW273078  12.786   3.344   0.889 -0.6165  0.4303  0.4123
21050SOL     OW73079   4.824   3.992  11.811 -0.4731  0.1204 -0.0423
21050SOL    HW173080   4.739   3.986  11.855 -0.1496 -3.1100  0.3895
21050SOL    HW273081   4.884   3.946  11.870  0.9130 -0.3758 -1.7773
21051SOL     OW73082   7.433   1.548   8.446 -0.5431 -0.0503  0.0503
21051SOL    HW173083   7.522   1.525   8.470 -0.6205  0.5790  1.0069
21051SOL    HW273084   7.441   1.587   8.359 -0.2172 -2.1408 -0.8980
21052SOL     OW73085  12.570   3.783   3.802  0.0036 -0.0282  0.7096
21052SOL    HW173086  12.538   3.795   3.891 -1.1908  1.0326  0.1691
21052SOL    HW273087  12.551   3.866   3.758 -0.5418 -0.9458 -0.8668
21053SOL     OW73088   4.818  11.020   5.563  0.6903  0.1836 -0.4978
21053SOL    HW173089   4.760  11.083   5.607  1.3155  0.0665  0.5409
21053SOL    HW273090   4.840  11.061   5.480 -1.2988 -0.0026 -1.1556
21054SOL     OW73091   8.206   0.384   6.957  0.1094  0.1304  0.1440
21054SOL    HW173092   8.192   0.298   6.997 -0.5511  0.0550 -0.2344
21054SOL    HW273093   8.301   0.390   6.944  0.0258 -1.2314 -1.3419
21055SOL     OW73094   0.866  11.032   5.146  0.0413 -0.1791  0.0966
21055SOL    HW173095   0.789  11.007   5.197 -1.5085  1.3238 -1.3889
21055SOL    HW273096   0.895  10.950   5.107 -0.2960 -0.9059  1.3075
21056SOL     OW73097  12.485  10.722   8.796 -0.0341 -0.1240 -0.0466
21056SOL    HW173098  12.552  10.667   8.755 -0.9673 -1.8471  0.6547
21056SOL    HW273099  12.474  10.684   8.883 -1.4721  0.5265  0.0756
21057SOL     OW73100   2.551   4.613   7.391 -0.0327 -1.0075 -0.1313
21057SOL    HW173101   2.605   4.534   7.390 -0.1309 -1.1651  2.2962
21057SOL    HW273102   2.609   4.681   7.356  0.7277 -1.7544 -0.3580
21058SOL     OW73103   0.154   4.101  11.753 -0.1779 -0.5485  0.2759
21058SOL    HW173104   0.118   4.047  11.824 -0.3728 -0.3600  0.3245
21058SOL    HW273105   0.222   4.154  11.795 -0.8682  0.1760  0.5130
21059SOL     OW73106   1.305  12.510   4.588 -0.2153  0.4360  0.1808
21059SOL    HW173107   1.324  12.457   4.666  3.1583  1.0483 -0.0684
21059SOL    HW273108   1.333  12.456   4.515 -0.5958  1.0008 -0.3942
21060SOL     OW73109  11.674  13.283  10.532 -0.2164 -0.2881  0.0665
21060SOL    HW173110  11.599  13.339  10.551  0.2409  0.0370  0.9550
21060SOL    HW273111  11.750  13.333  10.563  0.3618 -0.6520 -0.7342
21061SOL     OW73112  13.177   5.162   4.164  0.0098 -0.0240 -0.2718
21061SOL    HW173113  13.222   5.129   4.241 -0.0972  1.5201  0.4982
21061SOL    HW273114  13.128   5.087   4.130  0.6473 -0.9105  0.7195
21062SOL     OW73115   1.352   4.671   5.942 -0.3556 -0.3496  0.7793
21062SOL    HW173116   1.387   4.728   6.010 -1.8878  0.5353  0.8624
21062SOL    HW273117   1.306   4.730   5.882 -0.3989 -1.2941 -0.1532
21063SOL     OW73118  12.355   5.113   7.259  0.8232  0.3900 -0.3766
21063SOL    HW173119  12.310   5.179   7.207  0.5694  0.9154  0.4940
21063SOL    HW273120  12.414   5.069   7.197  0.2361  0.7279 -1.1830
21064SOL     OW73121   5.208   3.728   0.855  0.0405  0.3504  0.3172
21064SOL    HW173122   5.242   3.720   0.766  1.5709 -0.4362  0.9313
21064SOL    HW273123   5.234   3.817   0.882 -1.1943  0.9204 -0.2949
21065SOL     OW73124   7.649   8.787   9.984  0.3503  0.2807 -0.0544
21065SOL    HW173125   7.718   8.802  10.048  1.5807  0.9319 -1.4944
21065SOL    HW273126   7.695   8.761   9.904 -1.2392 -2.8882 -0.1070
21066SOL     OW73127   2.274  10.679  10.759 -0.4055  0.0568 -0.0704
21066SOL    HW173128   2.264  10.590  10.793  1.0331 -0.4895 -0.9708
21066SOL    HW273129   2.184  10.709  10.745 -0.9645 -0.5371  1.9725
21067SOL     OW73130   9.343   1.289   5.263  0.1596  0.3403 -0.1761
21067SOL    HW173131   9.356   1.280   5.357 -1.4631  1.8976  0.2415
21067SOL    HW273132   9.324   1.382   5.250 -1.6012 -0.1911 -1.7634
21068SOL     OW73133   6.916   1.156   6.980 -0.0777  0.3467  0.6178
21068SOL    HW173134   6.872   1.184   7.059 -0.9445 -0.5341  0.4605
21068SOL    HW273135   6.873   1.205   6.910  0.2259  0.6151  0.6161
21069SOL     OW73136   0.672  12.232   5.219 -0.0160 -0.1944 -0.0374
21069SOL    HW173137   0.741  12.225   5.285 -0.2491 -1.0236  0.1281
21069SOL    HW273138   0.614  12.158   5.237 -1.2298  0.7812  0.1420
21070SOL     OW73139   8.599   4.156   2.636 -0.4009 -0.0539  0.0264
21070SOL    HW173140   8.550   4.094   2.690  0.1865  0.1194  0.7733
21070SOL    HW273141   8.623   4.226   2.696  2.1996 -0.9297  0.1035
21071SOL     OW73142   2.073   1.904  10.483  0.8694 -0.1905  0.0519
21071SOL    HW173143   2.168   1.897  10.472  0.8006  0.0334 -0.7766
21071SOL    HW273144   2.047   1.974  10.423  0.0445 -0.9455 -0.4899
21072SOL     OW73145  10.972   8.308   2.347 -0.2535  0.8013 -0.1089
21072SOL    HW173146  10.926   8.261   2.278  0.6047  0.2212 -0.3097
21072SOL    HW273147  11.060   8.322   2.312  1.0086 -1.6958  1.7670
21073SOL     OW73148   4.770   5.041   3.318  0.1841  0.2868  1.0015
21073SOL    HW173149   4.852   5.033   3.270 -0.5305 -1.2957 -0.0495
21073SOL    HW273150   4.765   4.960   3.370 -0.8816  0.1610  0.7267
21074SOL     OW73151   3.105   2.155   1.633  0.4138  0.6022  0.2995
21074SOL    HW173152   3.153   2.233   1.605  0.0782  0.9000  0.5428
21074SOL    HW273153   3.072   2.177   1.720  1.0938 -0.1539  0.7717
21075SOL     OW73154   1.427   3.039  11.446 -0.5061  0.1244  0.1046
21075SOL    HW173155   1.484   3.099  11.398 -0.9075  0.7311  0.3676
21075SOL    HW273156   1.437   2.955  11.402 -1.4231  0.8282 -1.5357
21076SOL     OW73157  12.187   4.246  10.832  0.0444 -0.0216  0.2736
21076SOL    HW173158  12.211   4.180  10.897 -0.7039  0.3436  0.9420
21076SOL    HW273159  12.219   4.211  10.749  1.7928 -0.1134  0.9344
21077SOL     OW73160  12.494   4.414   9.284 -0.2757  0.5268  0.2605
21077SOL    HW173161  12.536   4.439   9.366 -0.1132  0.3445  0.2350
21077SOL    HW273162  12.566   4.381   9.230 -0.3933  0.5782  0.0723
21078SOL     OW73163   4.502   2.454   7.178  0.1605 -0.2531  0.7832
21078SOL    HW173164   4.491   2.461   7.083 -0.5869  0.8896  0.9376
21078SOL    HW273165   4.461   2.533   7.213  1.2098 -0.2217  2.0133
21079SOL     OW73166   0.757   7.630  12.974  0.3626  0.1466 -0.1200
21079SOL    HW173167   0.727   7.569  13.042 -1.5375 -0.2165 -1.1986
21079SOL    HW273168   0.752   7.716  13.016  0.8474 -0.2274  0.7182
21080SOL     OW73169   3.616   5.699   1.739  0.5826  0.8907  0.3991
21080SOL    HW173170   3.600   5.758   1.665 -0.7399  1.0338  0.7594
21080SOL    HW273171   3.692   5.648   1.714 -0.5585  0.0761 -1.6216
21081SOL     OW73172   1.050  11.465   3.786 -0.4705 -0.3882  0.3300
21081SOL    HW173173   1.038  11.542   3.842 -0.1079  0.2416 -0.4297
21081SOL    HW273174   0.984  11.474   3.718  1.5547  0.9997 -1.5959
21082SOL     OW73175   6.688   9.348   6.778 -0.0104  0.1190 -0.3858
21082SOL    HW173176   6.688   9.256   6.752 -0.9579  0.7131 -2.7445
21082SOL    HW273177   6.597   9.377   6.764  0.4546  1.5998 -0.5104
21083SOL     OW73178  12.050   5.389   7.417 -0.5836 -0.5010 -0.0419
21083SOL    HW173179  12.138   5.427   7.418 -1.1266  0.8728 -1.2892
21083SOL    HW273180  12.046   5.340   7.335 -0.9895 -0.5671  0.0136
21084SOL     OW73181   9.287   6.346  11.299 -0.2501 -0.3928 -0.0047
21084SOL    HW173182   9.201   6.309  11.280 -0.7717  1.1884 -0.9847
21084SOL    HW273183   9.325   6.363  11.213  0.9349 -0.8155  0.4223
21085SOL     OW73184   6.077  11.391   4.284 -0.4707  0.6272 -0.0046
21085SOL    HW173185   6.001  11.334   4.296 -0.3835  0.7848  1.4029
21085SOL    HW273186   6.131  11.376   4.361  1.7729 -0.6878 -1.6720
21086SOL     OW73187   6.078  10.440   4.021 -0.0455  0.1709  0.7569
21086SOL    HW173188   6.052  10.350   4.040  0.3118 -0.3944 -1.1859
21086SOL    HW273189   5.996  10.488   4.013 -0.3140 -0.4029  0.0023
21087SOL     OW73190   5.022   9.269   7.102  0.3700 -0.1545 -0.1521
21087SOL    HW173191   5.096   9.314   7.143 -0.7555  2.1238 -0.4231
21087SOL    HW273192   4.962   9.340   7.078 -1.2099 -1.7971 -1.3221
21088SOL     OW73193   6.472   1.808   6.223 -0.0428 -0.0868  0.0108
21088SOL    HW173194   6.424   1.753   6.161 -1.0565 -0.4180  1.0704
21088SOL    HW273195   6.550   1.757   6.245 -0.7122 -0.8985  0.5748
21089SOL     OW73196   1.106  10.853   4.288  0.5984 -0.3059  0.1517
21089SOL    HW173197   1.017  10.824   4.268  1.2493 -2.4718  0.1127
21089SOL    HW273198   1.145  10.871   4.202 -0.6113  3.6636  0.2398
21090SOL     OW73199  12.050  10.025   6.269  0.4837 -0.5796  0.2138
21090SOL    HW173200  12.141  10.041   6.242  0.2486  1.4147  0.4321
21090SOL    HW273201  11.998  10.084   6.215 -0.5104 -0.4405  1.2748
21091SOL     OW73202   6.384  12.486   6.808  0.3421  0.3042 -0.0292
21091SOL    HW173203   6.434  12.495   6.726  1.3348 -1.1835  0.3747
21091SOL    HW273204   6.447  12.509   6.877  0.1172 -0.4403  0.4256
21092SOL     OW73205  12.931   2.382  12.450 -0.4232 -0.5714 -0.5809
21092SOL    HW173206  12.871   2.310  12.471 -0.6929 -0.0875  0.3629
21092SOL    HW273207  12.925   2.441  12.525 -0.0215  0.3228 -1.2329
21093SOL     OW73208   8.358  11.254   5.100 -0.8442 -0.3542  0.0568
21093SOL    HW173209   8.352  11.261   5.005 -0.4279  0.4765  0.0842
21093SOL    HW273210   8.390  11.339   5.129  1.3359 -1.3190  0.7377
21094SOL     OW73211   7.891   9.388   5.779  0.1665  0.1650  0.2819
21094SOL    HW173212   7.881   9.315   5.840 -1.0902 -1.3332 -1.5983
21094SOL    HW273213   7.985   9.407   5.779  0.0718  1.6692  4.1485
21095SOL     OW73214  11.224  11.946  11.570  0.2401 -0.2346 -0.2524
21095SOL    HW173215  11.188  12.004  11.637  0.1006 -1.0222  0.3693
21095SOL    HW273216  11.148  11.901  11.533  0.3666 -0.1705 -0.6043
21096SOL     OW73217   1.189   1.955   9.373 -0.4794  0.1203  0.0854
21096SOL    HW173218   1.265   2.011   9.355 -1.1100  0.1432 -3.0860
21096SOL    HW273219   1.224   1.866   9.369 -0.6273  0.1102 -1.8632
21097SOL     OW73220  11.161   4.817  12.518  1.0020  0.0084  0.1676
21097SOL    HW173221  11.097   4.758  12.477  1.2256  1.6519 -2.7738
21097SOL    HW273222  11.246   4.776  12.502  0.9367 -0.6742  1.4377
21098SOL     OW73223  11.599  10.372   7.378 -0.3941 -0.4434 -0.2038
21098SOL    HW173224  11.608  10.291   7.428  0.8742 -0.4582 -0.4059
21098SOL    HW273225  11.610  10.345   7.287 -1.0937 -0.1960 -0.3633
21099SOL     OW73226  11.365   1.322   6.983  0.4689 -0.2379  0.0979
21099SOL    HW173227  11.418   1.320   7.063 -1.0000 -0.0934  1.1336
21099SOL    HW273228  11.369   1.413   6.954 -1.6577  0.5564  1.9799
21100SOL     OW73229  10.375   1.107   5.477  0.0944  0.3645 -0.0049
21100SOL    HW173230  10.387   1.188   5.527 -0.5151  1.3036 -1.3193
21100SOL    HW273231  10.357   1.136   5.387 -0.6640 -1.2220 -0.4116
21101SOL     OW73232  10.757  11.877   0.683 -0.0794  0.5992  0.3447
21101SOL    HW173233  10.830  11.856   0.741 -0.0571  0.3511  0.2286
21101SOL    HW273234  10.687  11.907   0.741  0.1260  0.8787  0.4545
21102SOL     OW73235  10.188   1.858   3.631  0.0268 -0.3512 -0.5450
21102SOL    HW173236  10.216   1.836   3.543 -0.5121 -0.9858 -0.5708
21102SOL    HW273237  10.216   1.948   3.644  0.2466 -0.3060 -1.3028
21103SOL     OW73238   0.055  10.936   7.414 -0.7522  0.1126 -0.1079
21103SOL    HW173239   0.046  10.843   7.392 -0.6300 -0.0086  0.3390
21103SOL    HW273240   0.110  10.972   7.344  0.5036 -0.4867  0.5510
21104SOL     OW73241  10.094   6.127  12.724 -0.3529  0.2070  0.2587
21104SOL    HW173242  10.172   6.180  12.743  1.4332 -2.2871  0.3768
21104SOL    HW273243  10.120   6.038  12.745 -2.6150 -1.0131 -1.6202
21105SOL     OW73244  10.590  11.104   0.100  0.0050  0.5104  0.4719
21105SOL    HW173245  10.515  11.083   0.044  0.0192 -0.9112  0.9286
21105SOL    HW273246  10.558  11.172   0.159 -0.8280  0.1886  0.4119
21106SOL     OW73247  12.072  11.483   2.476 -0.5121  0.7354 -0.2760
21106SOL    HW173248  12.125  11.556   2.508 -1.4337  1.4792 -0.3816
21106SOL    HW273249  12.037  11.442   2.555  0.7939 -0.2384 -0.1666
21107SOL     OW73250   6.267   1.001  10.397  0.1994 -0.2519 -0.4464
21107SOL    HW173251   6.323   1.078  10.385  0.7493 -0.7405 -1.1655
21107SOL    HW273252   6.326   0.935  10.434 -0.2994 -0.2921  0.2859
21108SOL     OW73253  10.292   5.891   3.942  0.2901  0.2219  0.1601
21108SOL    HW173254  10.267   5.814   3.994 -0.2508  0.6820  0.5921
21108SOL    HW273255  10.339   5.855   3.867  0.5371 -0.4938  0.6487
21109SOL     OW73256  12.858  10.787   7.807  0.2552 -0.0749  0.3967
21109SOL    HW173257  12.911  10.735   7.868  2.8460  0.3506 -1.3374
21109SOL    HW273258  12.878  10.752   7.721 -2.4887  0.0399 -0.3892
21110SOL     OW73259   2.528  10.624  10.847 -0.6322  0.3041 -0.5211
21110SOL    HW173260   2.462  10.659  10.788  0.5924  0.9025 -1.5837
21110SOL    HW273261   2.611  10.645  10.805  0.2184 -1.4368  0.1959
21111SOL     OW73262   0.543   6.945   6.859 -0.2585  0.0207 -0.2833
21111SOL    HW173263   0.511   6.857   6.839 -0.4400  0.3740 -1.6275
21111SOL    HW273264   0.465   7.000   6.858 -0.0891  0.2736  0.1298
21112SOL     OW73265  11.134   5.697   0.289  0.3787  0.0543  0.0232
21112SOL    HW173266  11.154   5.668   0.200  1.2146 -0.9263  0.5100
21112SOL    HW273267  11.106   5.788   0.278 -1.0937 -0.5213 -1.4101
21113SOL     OW73268   0.185   7.060  11.755  0.0820 -0.1596 -0.3983
21113SOL    HW173269   0.161   6.980  11.707 -1.4674 -1.4979  2.3838
21113SOL    HW273270   0.243   7.030  11.825 -1.6346  0.8298  1.5669
21114SOL     OW73271   9.291   8.280   0.303 -0.1323 -0.2267  0.5561
21114SOL    HW173272   9.316   8.348   0.366  0.9212 -1.4342  1.4890
21114SOL    HW273273   9.199   8.261   0.324  0.7658 -2.1247  3.2730
21115SOL     OW73274   3.722  10.720   5.248 -0.1238  0.3822 -0.0897
21115SOL    HW173275   3.713  10.635   5.291 -1.6814  1.2380  1.4328
21115SOL    HW273276   3.657  10.719   5.178  0.3768  0.0755 -0.5630
21116SOL     OW73277   0.916  10.120   6.027  0.0952 -0.1329 -0.3505
21116SOL    HW173278   0.827  10.152   6.019  0.0925  0.3328  1.1691
21116SOL    HW273279   0.960  10.184   6.083  1.0801 -0.9182 -0.1843
21117SOL     OW73280   4.068   9.893   9.855  0.0141  0.1961 -0.2071
21117SOL    HW173281   4.119   9.973   9.863 -1.2980  1.0210  0.1349
21117SOL    HW273282   3.991   9.908   9.909  1.0117 -2.3803  2.1464
21118SOL     OW73283  10.959   7.611  12.723 -0.5798  0.2938  0.6218
21118SOL    HW173284  10.952   7.668  12.646 -0.0882  2.3713  2.0240
21118SOL    HW273285  10.870   7.577  12.735 -0.9578  0.9816 -0.1083
21119SOL     OW73286  10.783   0.826   6.731 -0.3424  0.2258  1.0596
21119SOL    HW173287  10.814   0.866   6.812 -3.0546  2.6268  1.0892
21119SOL    HW273288  10.728   0.753   6.760 -0.4796  0.4418  1.3459
21120SOL     OW73289  12.708   8.593   3.072 -0.6710 -0.6233  0.1100
21120SOL    HW173290  12.803   8.587   3.083 -0.3862 -2.0819 -2.3672
21120SOL    HW273291  12.673   8.530   3.135  0.0245 -0.4590  0.6769
21121SOL     OW73292  12.384   2.225   4.268 -0.3521  0.3300  0.2512
21121SOL    HW173293  12.368   2.145   4.319  2.5744 -0.0963  0.7161
21121SOL    HW273294  12.391   2.294   4.333 -0.6273  0.5525  0.0467
21122SOL     OW73295  12.835   1.863   4.912  0.1038  0.5039 -0.6728
21122SOL    HW173296  12.883   1.784   4.938 -1.3567 -0.5776 -1.1705
21122SOL    HW273297  12.761   1.868   4.972  2.7065  4.3760  2.7889
21123SOL     OW73298   9.175   8.374   2.204 -0.2130  0.4051  0.6614
21123SOL    HW173299   9.171   8.348   2.112  0.3753  1.1223  0.4201
21123SOL    HW273300   9.226   8.455   2.204 -0.7585  0.7685  1.5505
21124SOL     OW73301   0.639   0.758   7.376 -0.2731  0.4125 -0.0525
21124SOL    HW173302   0.583   0.752   7.454 -0.2930  0.9516 -0.0236
21124SOL    HW273303   0.668   0.849   7.374 -1.8229  0.9333 -1.7293
21125SOL     OW73304   8.591   2.537   1.397  0.4915 -0.2569 -0.1663
21125SOL    HW173305   8.539   2.483   1.337  1.5795  0.3661 -1.7140
21125SOL    HW273306   8.559   2.626   1.383  0.3961 -0.1703  0.5729
21126SOL     OW73307  12.688   1.976   9.432  0.5343 -0.0216 -0.2606
21126SOL    HW173308  12.715   2.014   9.349  0.8269  2.6791  0.9702
21126SOL    HW273309  12.768   1.971   9.484 -0.0106  0.5919  0.6740
21127SOL     OW73310   7.735   9.197   3.291  0.0996 -0.1624  0.6938
21127SOL    HW173311   7.714   9.217   3.382 -1.8715 -1.3460  0.5790
21127SOL    HW273312   7.705   9.107   3.279  2.6759 -0.9513 -0.4776
21128SOL     OW73313  12.519   7.580   8.661 -0.4159 -0.1239 -0.0248
21128SOL    HW173314  12.587   7.522   8.695  0.3400  0.5560 -0.3291
21128SOL    HW273315  12.438   7.547   8.698 -0.1650 -2.0279 -1.0381
21129SOL     OW73316  12.428   1.881   5.424  0.0230  0.0230  0.1968
21129SOL    HW173317  12.374   1.805   5.403  1.1651 -0.7389 -0.1055
21129SOL    HW273318  12.376   1.931   5.487 -1.0680 -0.6117 -0.1633
21130SOL     OW73319   6.417   4.878   3.268 -0.2553 -0.3281 -0.1725
21130SOL    HW173320   6.453   4.792   3.248 -2.6895 -1.2937 -0.6820
21130SOL    HW273321   6.338   4.861   3.320 -0.7293  1.6047 -0.1476
21131SOL     OW73322   4.600   8.029   5.467  0.8112  0.2760  0.1487
21131SOL    HW173323   4.628   7.968   5.399  1.4528 -0.5076  1.0940
21131SOL    HW273324   4.677   8.042   5.521  0.3352  0.9720  0.6778
21132SOL     OW73325   9.737   1.428  10.441 -0.4463  0.1151  0.8222
21132SOL    HW173326   9.676   1.367  10.481 -1.7284  1.0166  0.3124
21132SOL    HW273327   9.681   1.491  10.395  0.8963 -0.5717 -1.9860
21133SOL     OW73328   4.217   6.951   8.760 -0.4853 -0.1105 -0.3668
21133SOL    HW173329   4.144   6.905   8.801 -0.7948  2.8163  2.8832
21133SOL    HW273330   4.294   6.902   8.786 -1.0320 -0.8242 -0.0571
21134SOL     OW73331   6.863  11.867  13.003 -0.1045 -0.1949 -0.0952
21134SOL    HW173332   6.909  11.788  13.032 -0.3431 -0.7200 -1.1302
21134SOL    HW273333   6.933  11.931  12.988  0.1368 -0.4002  0.1355
21135SOL     OW73334   2.104   1.243   2.310 -0.1861 -0.0365  0.3634
21135SOL    HW173335   2.185   1.280   2.276  0.2853  0.8666  2.3250
21135SOL    HW273336   2.131   1.191   2.386 -1.1510 -2.2360 -0.6837
21136SOL     OW73337   1.578   5.679   7.066 -0.2348 -0.9705  0.0576
21136SOL    HW173338   1.550   5.593   7.096  1.7319 -1.7763 -0.2124
21136SOL    HW273339   1.673   5.680   7.082 -0.1784  1.0737 -0.1274
21137SOL     OW73340  12.884  13.057   0.097  0.1005 -0.0250 -0.4493
21137SOL    HW173341  12.909  12.966   0.080 -1.3110 -0.1726 -2.0560
21137SOL    HW273342  12.835  13.054   0.179 -0.3189 -0.7944 -0.7181
21138SOL     OW73343   2.033  10.467  11.381 -0.4245  0.0366  0.4389
21138SOL    HW173344   2.021  10.467  11.476  0.8517  1.7273  0.6513
21138SOL    HW273345   2.022  10.558  11.355 -2.5130 -0.6431 -1.3419
21139SOL     OW73346  10.102   3.341   6.553 -0.7513  0.2616  0.6821
21139SOL    HW173347  10.140   3.254   6.560  1.3611  1.0533 -0.2237
21139SOL    HW273348  10.071   3.347   6.463  1.6864  1.3585 -0.1635
21140SOL     OW73349   5.085  11.763   5.631 -0.6571 -0.6806  0.0247
21140SOL    HW173350   5.014  11.761   5.567 -0.7035 -0.4760  0.0686
21140SOL    HW273351   5.074  11.847   5.676 -0.8580 -0.9897  0.5572
21141SOL     OW73352   7.474   6.929  10.454 -0.3012 -0.0678 -0.3052
21141SOL    HW173353   7.429   7.010  10.479  0.1058  0.2267 -0.5022
21141SOL    HW273354   7.494   6.941  10.361  0.2274 -0.1685 -0.2050
21142SOL     OW73355   5.917   7.967   0.293 -0.0298  0.1547 -0.0946
21142SOL    HW173356   5.907   7.873   0.306 -2.2610  0.4822  0.9297
21142SOL    HW273357   5.995   7.990   0.343  0.8258 -1.1938 -0.7469
21143SOL     OW73358  10.578   0.018   7.334  0.2626 -0.8354 -0.5518
21143SOL    HW173359  10.524  -0.002   7.258  0.0455 -0.6630 -0.4455
21143SOL    HW273360  10.667   0.022   7.300  0.2172 -1.1956 -0.7152
21144SOL     OW73361   9.922   7.824   2.728  0.2700  0.1632  0.1989
21144SOL    HW173362   9.909   7.881   2.653  1.9864  2.4810  1.4959
21144SOL    HW273363  10.013   7.840   2.754 -0.5215  0.2759  3.3259
21145SOL     OW73364   0.631   1.283   7.060 -0.4349 -0.0145 -0.1699
21145SOL    HW173365   0.546   1.239   7.056 -1.3882  1.7957 -0.4591
21145SOL    HW273366   0.611   1.376   7.063  1.5512  0.5471 -1.6532
21146SOL     OW73367   2.342   5.626  12.125 -0.3759  0.0422 -0.3420
21146SOL    HW173368   2.342   5.558  12.191  1.7824 -0.4820 -0.8117
21146SOL    HW273369   2.307   5.703  12.170 -0.7119 -0.7821  0.8503
21147SOL     OW73370   6.779  10.989   1.206 -0.4202  0.7452  0.2918
21147SOL    HW173371   6.740  11.044   1.138 -0.7334  0.1030 -0.0546
21147SOL    HW273372   6.871  11.017   1.209 -0.7765  1.9338  0.7797
21148SOL     OW73373  10.768   8.673   7.022  0.6974 -0.2151  0.3810
21148SOL    HW173374  10.771   8.768   7.013  1.4468 -0.2607  0.1008
21148SOL    HW273375  10.677   8.654   7.047  0.1592  0.4428 -0.9874
21149SOL     OW73376  10.832   7.026   1.440  0.3711 -0.4735  0.2196
21149SOL    HW173377  10.823   6.944   1.488 -1.2966 -0.2595  0.3505
21149SOL    HW273378  10.788   7.009   1.356  1.8033 -0.3283 -0.5994
21150SOL     OW73379   2.538   9.240  12.389  0.5916 -0.6066  0.6802
21150SOL    HW173380   2.628   9.241  12.355  0.4783 -1.8966  0.2897
21150SOL    HW273381   2.549   9.226  12.484  0.8033 -2.2938  0.4473
21151SOL     OW73382   2.081  12.524   2.134  0.1644 -0.2403  0.5952
21151SOL    HW173383   2.102  12.490   2.221  0.7765  0.3825  0.7001
21151SOL    HW273384   2.074  12.619   2.147 -1.2700 -0.2859  0.2648
21152SOL     OW73385  10.840  12.261   0.853  0.2438  0.0995  0.1490
21152SOL    HW173386  10.856  12.198   0.924 -0.6461  1.8922  2.0586
21152SOL    HW273387  10.924  12.306   0.843  1.2378 -2.0034 -2.0207
21153SOL     OW73388  12.821   8.187  10.749 -0.6242 -0.0025 -0.4327
21153SOL    HW173389  12.881   8.255  10.781 -1.9885 -0.6448  4.3437
21153SOL    HW273390  12.872   8.138  10.685  1.9992  2.7022 -0.6474
21154SOL     OW73391   0.386   9.166   2.202 -0.3850  0.0360  0.4892
21154SOL    HW173392   0.310   9.141   2.255 -0.2546 -0.7957  0.3050
21154SOL    HW273393   0.355   9.238   2.148 -1.0171 -0.2380  0.4814
21155SOL     OW73394  13.196   1.077   0.736  0.1454  0.0301  0.2538
21155SOL    HW173395  13.109   1.095   0.700  0.4332  1.3930  0.1730
21155SOL    HW273396  13.217   0.989   0.705 -0.9644 -0.0953 -0.2001
21156SOL     OW73397   2.885   2.002   8.330  0.9436  0.0183 -0.0313
21156SOL    HW173398   2.872   2.097   8.326 -1.7553 -0.2211  0.8677
21156SOL    HW273399   2.850   1.977   8.415 -1.5959 -2.1249 -1.5462
21157SOL     OW73400   0.286  12.908   1.025 -0.2114  0.1375 -0.0507
21157SOL    HW173401   0.292  12.814   1.006  0.2573  0.2656 -0.5998
21157SOL    HW273402   0.375  12.932   1.051 -0.4441  0.3345  0.5700
21158SOL     OW73403   6.964   0.701   4.949  0.1163  0.0802  0.1165
21158SOL    HW173404   7.015   0.719   5.028  0.9664  0.4298 -0.4930
21158SOL    HW273405   7.026   0.714   4.878 -0.7503  0.1870 -0.6335
21159SOL     OW73406   4.556  13.014   7.266 -0.1406  0.1691  0.3589
21159SOL    HW173407   4.478  13.048   7.310 -0.5180 -0.4728  0.1981
21159SOL    HW273408   4.551  12.919   7.278  0.3021  0.0718 -0.1621
21160SOL     OW73409   4.051   7.154   6.315 -0.0664  0.5779 -0.1293
21160SOL    HW173410   4.043   7.080   6.375  2.3276 -0.4330 -0.9252
21160SOL    HW273411   4.083   7.226   6.369  3.9320 -0.8146 -0.2552
21161SOL     OW73412   1.935   8.559   6.174 -0.4387  0.0971 -0.1900
21161SOL    HW173413   1.887   8.479   6.197 -1.4180  0.5524 -0.5875
21161SOL    HW273414   1.962   8.596   6.257 -2.3761  0.7814  0.1870
21162SOL     OW73415  11.324  12.601   6.097 -0.0917 -0.3875 -0.0040
21162SOL    HW173416  11.403  12.609   6.043 -0.7852 -1.5863 -1.2829
21162SOL    HW273417  11.325  12.510   6.127 -1.0505 -0.4571 -0.1502
21163SOL     OW73418   3.637   6.818   9.680 -0.0197  0.0045  0.0141
21163SOL    HW173419   3.702   6.749   9.696  1.5590  0.7123 -2.5195
21163SOL    HW273420   3.666   6.857   9.597 -2.6357  1.6707 -0.2072
21164SOL     OW73421   7.215  11.604  10.419  0.0460 -0.2996  0.2498
21164SOL    HW173422   7.169  11.588  10.501 -1.5410 -1.0770 -0.7382
21164SOL    HW273423   7.202  11.697  10.402 -0.2783 -0.2952  0.5034
21165SOL     OW73424   8.045   7.652   3.893 -0.0275  0.1706  0.5937
21165SOL    HW173425   8.132   7.690   3.882 -0.4737  0.9138 -0.5633
21165SOL    HW273426   8.005   7.704   3.963  0.8013 -0.8502  1.8717
21166SOL     OW73427   6.761   5.379   2.718  0.3412  0.2549  0.6126
21166SOL    HW173428   6.770   5.432   2.798  0.0359  0.9890  0.1772
21166SOL    HW273429   6.828   5.311   2.726  1.4300  1.2940  0.7515
21167SOL     OW73430  13.059   0.711   1.861 -0.5574  0.1783  0.1454
21167SOL    HW173431  13.140   0.715   1.911  1.3124 -0.5027 -2.6287
21167SOL    HW273432  13.060   0.790   1.807 -0.7750 -0.7192 -1.2255
21168SOL     OW73433   0.178  10.642  10.698 -0.6527  0.2977  0.4564
21168SOL    HW173434   0.176  10.653  10.793 -0.9173  2.6623  0.2249
21168SOL    HW273435   0.115  10.572  10.681 -1.2370  0.4249  1.9514
21169SOL     OW73436   7.536   5.632  13.074 -0.3309  0.7250 -0.1182
21169SOL    HW173437   7.504   5.542  13.085  0.7480  0.4869  1.3807
21169SOL    HW273438   7.607   5.624  13.011  0.8333  0.2283  1.2104
21170SOL     OW73439   4.170   3.874   6.272 -0.6600 -0.0526  0.1134
21170SOL    HW173440   4.116   3.799   6.248  1.0951 -1.0515 -1.0113
21170SOL    HW273441   4.158   3.937   6.200 -0.8135  0.0016  0.1865
21171SOL     OW73442   3.050  10.960   1.884  0.1819  0.2868 -0.0702
21171SOL    HW173443   3.140  10.971   1.913 -0.3751  2.7631  0.9654
21171SOL    HW273444   3.043  11.015   1.806 -0.7129  1.0849  0.5508
21172SOL     OW73445  10.217  12.472   7.307 -0.2117 -0.1840 -0.7028
21172SOL    HW173446  10.291  12.412   7.301  1.4498  1.5381  1.0614
21172SOL    HW273447  10.184  12.461   7.397 -0.7299  0.5626 -0.7872
21173SOL     OW73448   3.520   9.355  11.668 -0.1111 -0.0041  0.0620
21173SOL    HW173449   3.537   9.430  11.724 -0.6882 -0.6114  1.0809
21173SOL    HW273450   3.505   9.392  11.581  2.7509  0.8200 -0.1549
21174SOL     OW73451  11.984  12.581   7.645  0.0514  0.4067 -0.1422
21174SOL    HW173452  12.072  12.617   7.630 -0.8771  2.6803 -0.4806
21174SOL    HW273453  11.993  12.530   7.726  1.6665  0.5789 -0.1737
21175SOL     OW73454   2.649   3.179   2.090  0.1350 -0.5484  1.3386
21175SOL    HW173455   2.582   3.111   2.082  0.0551 -0.3543  0.2466
21175SOL    HW273456   2.606   3.249   2.139 -1.2589  0.5103 -1.2182
21176SOL     OW73457   1.236   4.517   0.434 -0.3558  0.4725 -0.1684
21176SOL    HW173458   1.166   4.582   0.428 -0.5492  0.2915  0.0893
21176SOL    HW273459   1.234   4.488   0.526 -1.0193 -0.7243 -0.5428
21177SOL     OW73460  10.785   4.507  12.074 -0.0580 -0.2300 -0.4619
21177SOL    HW173461  10.843   4.568  12.030  0.0085  0.3721  0.4476
21177SOL    HW273462  10.740   4.559  12.140  1.6550 -1.5775  1.9008
21178SOL     OW73463   7.352   8.422  13.156  0.2472  0.6067  0.1054
21178SOL    HW173464   7.403   8.377  13.089  1.6157  0.8430  0.9555
21178SOL    HW273465   7.261   8.415  13.126  0.7208 -0.2475 -1.1956
21179SOL     OW73466   1.820   3.115  12.020  0.1400  0.0860  0.0721
21179SOL    HW173467   1.876   3.088  11.947 -1.7776 -1.3644 -0.9960
21179SOL    HW273468   1.731   3.105  11.986 -0.8897 -1.5946  2.8932
21180SOL     OW73469  11.037  13.286   7.495 -0.5032 -0.2846  0.6461
21180SOL    HW173470  11.085  13.286   7.577  0.3445  0.7291  0.1696
21180SOL    HW273471  11.085  13.224   7.439  0.0874  0.4886  0.2770
21181SOL     OW73472   4.669   8.177   6.605 -0.3779  0.0056  0.4548
21181SOL    HW173473   4.752   8.180   6.558 -1.1987  2.7631 -1.0691
21181SOL    HW273474   4.687   8.218   6.689  0.2728 -1.5793  1.1263
21182SOL     OW73475   4.167  13.083   4.428 -0.3675  0.4309 -0.0290
21182SOL    HW173476   4.220  13.032   4.367 -0.5873 -1.0242  0.9479
21182SOL    HW273477   4.078  13.080   4.391 -0.1050  1.4646 -0.7915
21183SOL     OW73478   6.112  12.637   4.922 -0.7460  0.2006 -0.2425
21183SOL    HW173479   6.019  12.646   4.897 -0.7326  0.2549 -0.2725
21183SOL    HW273480   6.125  12.542   4.929 -0.4785  0.1202 -1.4978
21184SOL     OW73481   6.541  11.826  11.851 -0.2356  0.1849 -0.3191
21184SOL    HW173482   6.484  11.885  11.802 -0.5185 -0.0102 -0.2337
21184SOL    HW273483   6.552  11.750  11.793 -0.7099 -0.1212 -0.0233
21185SOL     OW73484  13.201   2.965   3.681  0.7750 -1.0969  0.3387
21185SOL    HW173485  13.238   3.046   3.647  0.5218 -0.4672  1.4918
21185SOL    HW273486  13.171   2.917   3.604 -1.9849  1.3148 -0.2432
21186SOL     OW73487   9.506   0.052  12.071 -0.0815 -0.0128  0.0375
21186SOL    HW173488   9.498  -0.044  12.069 -0.1679 -0.0412  1.1928
21186SOL    HW273489   9.567   0.069  12.143 -0.2448  0.8180 -0.0142
21187SOL     OW73490   3.118   6.684   5.772 -0.2871  0.6371 -0.4432
21187SOL    HW173491   3.176   6.609   5.761  1.0014  1.4658  0.3175
21187SOL    HW273492   3.031   6.646   5.785  0.4749 -0.7651  0.8657
21188SOL     OW73493  11.379   3.587   5.664  0.4208  0.1104 -0.0967
21188SOL    HW173494  11.362   3.496   5.639  1.0182  0.3145 -1.3425
21188SOL    HW273495  11.336   3.597   5.748  0.7788 -1.4789  0.3180
21189SOL     OW73496  11.758   3.558  12.649  0.3929  0.0730 -0.0350
21189SOL    HW173497  11.725   3.626  12.707  0.9430 -0.2810  0.7206
21189SOL    HW273498  11.838   3.594  12.613 -0.1417  0.4365 -0.8736
21190SOL     OW73499  11.393   3.876   7.566  0.2113 -0.6244  0.3052
21190SOL    HW173500  11.342   3.899   7.488 -1.0455  0.5861  1.4184
21190SOL    HW273501  11.342   3.912   7.639  2.2624 -0.0941  1.5553
21191SOL     OW73502   5.681   9.599  12.467  0.5056  0.4269 -0.0694
21191SOL    HW173503   5.705   9.689  12.488 -0.7249  0.4388  1.5319
21191SOL    HW273504   5.585   9.601  12.462  0.4468 -0.8349  0.2648
21192SOL     OW73505   7.150  12.449  11.967  0.1000 -0.1566  0.1062
21192SOL    HW173506   7.056  12.437  11.955 -0.0417 -1.1877  1.9132
21192SOL    HW273507   7.174  12.386  12.035  2.1534 -0.1055 -0.4940
21193SOL     OW73508   2.369   2.919   5.549  0.1202 -0.5225 -0.5279
21193SOL    HW173509   2.274   2.930   5.555  0.0517 -1.1146 -0.4189
21193SOL    HW273510   2.382   2.862   5.473  0.4372  0.0780 -0.9331
21194SOL     OW73511  11.119   6.820  13.186  0.0980  0.1570 -0.7410
21194SOL    HW173512  11.026   6.818  13.164 -0.1824 -1.9562  0.3780
21194SOL    HW273513  11.160   6.763  13.121  0.6523  1.0987 -1.2436
21195SOL     OW73514   5.400   6.913   8.169  0.3796 -1.2181 -0.1208
21195SOL    HW173515   5.370   6.935   8.081 -2.1633 -2.2163  0.4065
21195SOL    HW273516   5.468   6.847   8.156  0.3012 -1.0781 -1.3360
21196SOL     OW73517   8.671   9.237   3.664 -0.1726 -0.4767 -0.1534
21196SOL    HW173518   8.763   9.248   3.686 -0.4407 -1.0904  1.3521
21196SOL    HW273519   8.647   9.151   3.699 -1.2940 -0.3737 -0.6050
21197SOL     OW73520   0.170   9.713   1.819  0.2057 -0.2596 -0.0106
21197SOL    HW173521   0.224   9.786   1.788  0.7426  0.3475  2.1699
21197SOL    HW273522   0.231   9.640   1.826  0.7609  0.3467  2.1644
21198SOL     OW73523  10.619   0.089   2.178 -0.2480 -0.3720  0.2621
21198SOL    HW173524  10.570   0.031   2.237 -0.1295 -1.1918 -0.4218
21198SOL    HW273525  10.701   0.043   2.163  0.4757  0.6803  0.8646
21199SOL     OW73526   2.081   2.041   7.717 -0.5736 -0.4561 -0.1575
21199SOL    HW173527   1.988   2.064   7.714 -0.3618  0.3209 -0.9233
21199SOL    HW273528   2.084   1.962   7.772 -1.6995 -0.5894 -0.2663
21200SOL     OW73529   2.872  11.277   6.136 -0.1605  0.1218 -0.1576
21200SOL    HW173530   2.794  11.225   6.117 -0.8487  0.5799  1.2363
21200SOL    HW273531   2.879  11.275   6.232  0.1011  2.1141 -0.0907
21201SOL     OW73532   0.352   6.527   9.257 -0.1076  0.1014 -0.5960
21201SOL    HW173533   0.435   6.522   9.210 -0.3679 -3.0905 -0.9095
21201SOL    HW273534   0.286   6.540   9.189 -0.0497  0.7219 -0.5399
21202SOL     OW73535   3.200   2.185   3.548 -0.7517 -0.3865  0.3500
21202SOL    HW173536   3.248   2.157   3.626  0.0299 -0.1348 -0.0291
21202SOL    HW273537   3.152   2.263   3.575  2.1812  1.7710 -0.2422
21203SOL     OW73538   6.408   6.801   7.766 -0.2605  0.5841 -0.7151
21203SOL    HW173539   6.331   6.820   7.713 -0.0762  1.1362 -0.7919
21203SOL    HW273540   6.373   6.763   7.846 -0.5531 -0.0613 -1.1387
21204SOL     OW73541  12.655  10.122   7.424  0.7225 -0.2277  0.3056
21204SOL    HW173542  12.601  10.098   7.348  0.0567 -0.8827  0.9599
21204SOL    HW273543  12.733  10.162   7.387 -0.2443  0.8230 -0.6794
21205SOL     OW73544  10.100  10.213   0.129 -0.5158  0.3953  0.2676
21205SOL    HW173545  10.130  10.268   0.056 -0.0986  0.2322  0.3152
21205SOL    HW273546  10.175  10.158   0.150 -1.2582 -0.9727 -0.4971
21206SOL     OW73547   6.172   3.251   2.581  0.3992 -0.2776 -0.4128
21206SOL    HW173548   6.216   3.328   2.544 -0.2771  0.0593 -0.5457
21206SOL    HW273549   6.193   3.253   2.674  1.4723 -0.6848 -0.6401
21207SOL     OW73550   2.858   1.560  11.693  0.1606  0.9079 -0.2696
21207SOL    HW173551   2.926   1.552  11.625 -0.8694 -0.3038 -1.2048
21207SOL    HW273552   2.809   1.638  11.668 -0.7755 -0.0242 -1.5025
21208SOL     OW73553  10.975   5.877   3.281  0.2020 -0.3503 -0.8347
21208SOL    HW173554  10.933   5.923   3.209  2.4017  1.4634 -1.0467
21208SOL    HW273555  11.061   5.918   3.290 -0.1594 -0.0221  3.2045
21209SOL     OW73556   2.344   4.679   6.800  0.0540 -0.0396 -0.0905
21209SOL    HW173557   2.314   4.740   6.867  0.1009  1.7063 -1.5845
21209SOL    HW273558   2.423   4.718   6.765 -0.1242 -0.7639 -1.3611
21210SOL     OW73559   2.462   5.088   6.299  0.5881  0.1194  0.2991
21210SOL    HW173560   2.531   5.028   6.328  1.1695  1.2967  1.4311
21210SOL    HW273561   2.386   5.032   6.286  1.2769 -0.9558  0.7509
21211SOL     OW73562   0.605   9.037  10.078  0.4119 -0.0453 -0.5968
21211SOL    HW173563   0.612   8.942  10.070 -0.1284 -0.0845 -0.6081
21211SOL    HW273564   0.656   9.058  10.157 -1.0682 -0.5614  0.5445
21212SOL     OW73565   8.996   3.825   8.727  0.2400  0.0462 -0.4440
21212SOL    HW173566   9.057   3.850   8.797  0.3954  0.4667 -0.7235
21212SOL    HW273567   8.909   3.838   8.765  0.3231  0.7009 -0.4745
21213SOL     OW73568   0.513   1.571  12.367  0.4929 -0.2620  0.0620
21213SOL    HW173569   0.457   1.632  12.414 -0.7741 -0.0723 -1.5944
21213SOL    HW273570   0.567   1.531  12.435 -1.0311  0.1865  1.6108
21214SOL     OW73571   2.841  10.166   3.979  0.4474 -0.6959  0.1458
21214SOL    HW173572   2.909  10.122   3.928  1.1597  1.6946 -1.1337
21214SOL    HW273573   2.764  10.165   3.921  0.4266 -0.3845  0.1679
21215SOL     OW73574  10.813   7.823  10.205 -0.6297  0.1720 -0.4718
21215SOL    HW173575  10.774   7.844  10.120 -0.1540  0.7040 -0.5638
21215SOL    HW273576  10.898   7.784  10.184 -0.0097  1.3341 -0.2379
21216SOL     OW73577   7.726  12.418  13.235  0.0522 -0.5158 -1.3916
21216SOL    HW173578   7.732  12.464  13.318 -0.7113  2.0618 -2.6374
21216SOL    HW273579   7.632  12.414  13.216  0.1240 -2.3425 -1.4998
21217SOL     OW73580   1.275   8.589   3.736  0.1211 -0.0135  0.2959
21217SOL    HW173581   1.211   8.616   3.803  2.9014  2.2945  2.2667
21217SOL    HW273582   1.304   8.502   3.764 -0.9316 -0.3792  0.2962
21218SOL     OW73583   4.587  12.581   9.540 -0.0605 -0.0372 -0.2118
21218SOL    HW173584   4.666  12.628   9.566 -0.1185  0.9437 -1.7027
21218SOL    HW273585   4.515  12.643   9.555 -0.7172 -1.1800  1.8733
21219SOL     OW73586   6.012   0.411   7.488 -0.4849 -0.1028  0.4899
21219SOL    HW173587   5.973   0.482   7.539  3.1984  1.0984  1.9223
21219SOL    HW273588   5.986   0.331   7.535 -1.2133  0.6022  1.3254
21220SOL     OW73589   5.002   7.283   1.183  1.0658 -0.1481 -0.5622
21220SOL    HW173590   5.040   7.203   1.146 -0.0204 -1.9387  1.9052
21220SOL    HW273591   4.911   7.281   1.152  1.1354  0.3749 -0.8075
21221SOL     OW73592  11.187  11.385  10.276  0.1799  0.3214  0.5035
21221SOL    HW173593  11.229  11.459  10.320 -0.1877  1.5471 -1.0888
21221SOL    HW273594  11.117  11.358  10.334  1.1491  0.3505  1.7162
21222SOL     OW73595   5.767   5.869   6.534 -0.0409  0.4871  0.5930
21222SOL    HW173596   5.681   5.910   6.544 -0.3544 -0.1731  0.6715
21222SOL    HW273597   5.815   5.893   6.613 -1.2260 -1.6588  2.0778
21223SOL     OW73598   1.129   8.133   5.784 -0.4043  0.3621 -0.5087
21223SOL    HW173599   1.105   8.214   5.830  0.2818  0.7169 -0.7669
21223SOL    HW273600   1.058   8.120   5.721 -0.0086  1.3342 -1.1768
21224SOL     OW73601   7.158   7.871   8.952  0.1729 -0.7304 -0.5587
21224SOL    HW173602   7.090   7.808   8.927 -0.2778 -0.0390 -1.0731
21224SOL    HW273603   7.167   7.929   8.877  0.3512  0.0315  0.0398
21225SOL     OW73604   0.926   6.366  11.574  0.2840  0.0552  0.0153
21225SOL    HW173605   0.902   6.421  11.500 -1.3858  0.7814  1.0419
21225SOL    HW273606   0.908   6.420  11.651  0.6258 -1.1773  0.9917
21226SOL     OW73607   1.767   2.614  10.751  0.0539 -0.1602  0.5669
21226SOL    HW173608   1.834   2.610  10.819  1.2277 -1.0690 -0.5813
21226SOL    HW273609   1.816   2.605  10.669 -1.4577 -0.7036 -0.3146
21227SOL     OW73610  10.592   2.826   6.606  0.4689  0.2218 -0.0655
21227SOL    HW173611  10.660   2.764   6.633  0.2133  0.3647  0.9829
21227SOL    HW273612  10.581   2.883   6.683 -1.7355 -0.5931  0.2948
21228SOL     OW73613   8.672   3.341  11.572  0.1620 -0.0715  0.3650
21228SOL    HW173614   8.608   3.287  11.619 -1.2635  0.8621 -0.3989
21228SOL    HW273615   8.703   3.284  11.501 -0.9407 -0.1063 -0.1220
21229SOL     OW73616   8.396  12.104   4.437  0.2050  0.7154 -0.4071
21229SOL    HW173617   8.379  12.161   4.513 -1.9519 -0.7949  0.3564
21229SOL    HW273618   8.420  12.020   4.475 -2.9692 -0.6930 -1.2023
21230SOL     OW73619   1.352   3.611   3.340  0.1315  0.0804  0.0693
21230SOL    HW173620   1.290   3.584   3.408  1.0848  0.4592  1.1242
21230SOL    HW273621   1.438   3.604   3.382  0.8117 -0.4597 -1.3682
21231SOL     OW73622   7.566   4.752  11.439  0.1124 -0.0936 -0.2444
21231SOL    HW173623   7.501   4.785  11.376  1.0103 -0.2802 -1.3093
21231SOL    HW273624   7.571   4.819  11.507 -2.4419 -0.8630  0.8042
21232SOL     OW73625  11.311   4.372   8.105 -0.1816  0.0820  0.2452
21232SOL    HW173626  11.245   4.441   8.095  1.8805  2.0605 -0.5169
21232SOL    HW273627  11.299   4.316   8.029 -0.8118  0.5796 -0.0339
21233SOL     OW73628   3.095   8.652  10.546  0.4843  0.3109  0.1739
21233SOL    HW173629   3.109   8.744  10.525  1.6486 -0.3187 -2.1590
21233SOL    HW273630   3.183   8.617  10.560 -0.0214 -0.1853  2.6368
21234SOL     OW73631   9.564   6.454   7.350  0.3067 -0.0997  0.0705
21234SOL    HW173632   9.571   6.424   7.259 -0.2729 -0.7604  0.2360
21234SOL    HW273633   9.624   6.528   7.355 -1.1447  1.2583 -1.4048
21235SOL     OW73634   9.465  12.292   2.099 -0.9037  0.3662  0.2558
21235SOL    HW173635   9.382  12.324   2.136 -0.6934  2.0134 -0.6000
21235SOL    HW273636   9.523  12.284   2.174 -1.9651 -1.3354  0.9510
21236SOL     OW73637   7.255   3.325  12.506  0.4602 -0.7994 -0.0102
21236SOL    HW173638   7.275   3.322  12.413 -0.4818 -2.8603 -0.1993
21236SOL    HW273639   7.162   3.350  12.510  0.1054 -2.0851  0.2655
21237SOL     OW73640   4.720   2.390   7.848 -0.6520 -0.2412 -0.1552
21237SOL    HW173641   4.671   2.372   7.768  1.0312  1.6517 -1.7354
21237SOL    HW273642   4.782   2.318   7.856 -0.5808 -0.2519 -0.7829
21238SOL     OW73643   1.623   4.038   6.195  0.0408  0.1416  0.0367
21238SOL    HW173644   1.556   3.970   6.195  1.7886 -1.6637 -0.9612
21238SOL    HW273645   1.669   4.026   6.278  1.7251 -1.3748 -1.0680
21239SOL     OW73646   4.865  13.285   3.125 -0.2797  0.4478  0.9655
21239SOL    HW173647   4.906  13.265   3.209  1.7735 -1.2594 -0.3387
21239SOL    HW273648   4.870  13.203   3.076 -1.8028  1.2853 -0.6946
21240SOL     OW73649   5.294   8.750   3.499 -0.6900  0.1116  0.0905
21240SOL    HW173650   5.347   8.723   3.424  0.7764 -0.6067  1.3252
21240SOL    HW273651   5.280   8.844   3.486 -0.4952 -0.0072 -1.0842
21241SOL     OW73652   3.197   5.591  10.679  0.3379 -0.3879  0.5498
21241SOL    HW173653   3.281   5.604  10.635  1.8676 -0.0964  3.3420
21241SOL    HW273654   3.219   5.582  10.772 -2.7642  0.2791  1.4804
21242SOL     OW73655  12.962   3.026   2.675 -0.3940 -0.2333 -0.3700
21242SOL    HW173656  13.020   3.097   2.703 -2.1278  1.1834 -0.2032
21242SOL    HW273657  12.982   3.015   2.582 -0.5377  0.9357 -0.5620
21243SOL     OW73658  10.980  11.093   0.320  0.6425  0.1271 -0.0078
21243SOL    HW173659  10.926  11.170   0.333  0.8865  0.4987 -1.0690
21243SOL    HW273660  11.053  11.124   0.266  0.6099 -0.8857 -0.6697
21244SOL     OW73661   8.458   3.511   8.009  0.3456  0.0536 -0.2906
21244SOL    HW173662   8.407   3.479   7.936 -0.5889  0.0191  0.3556
21244SOL    HW273663   8.483   3.432   8.058 -1.7950  0.2103  1.1950
21245SOL     OW73664   3.555   1.426   2.984  0.7297  0.3248 -0.3067
21245SOL    HW173665   3.491   1.369   3.027  1.5181 -0.5109 -0.2031
21245SOL    HW273666   3.591   1.372   2.914  0.4031  1.2312 -1.1894
21246SOL     OW73667   5.074   0.459  11.415 -0.2665 -0.0750 -0.3709
21246SOL    HW173668   4.990   0.464  11.460 -0.8095 -0.8098 -1.2675
21246SOL    HW273669   5.084   0.366  11.394  0.9528 -0.0531  0.0650
21247SOL     OW73670   9.424   6.524   0.221 -0.3163 -0.2280 -0.0219
21247SOL    HW173671   9.468   6.439   0.230  1.6400  0.7156 -0.2481
21247SOL    HW273672   9.480   6.585   0.269 -0.9494  1.1819 -1.0319
21248SOL     OW73673   4.505   3.595   9.119 -0.0965  0.3254 -0.3464
21248SOL    HW173674   4.514   3.500   9.115  0.5432  0.2639  1.4564
21248SOL    HW273675   4.528   3.625   9.031 -0.6620 -1.1968 -1.0435
21249SOL     OW73676  11.985  11.381   5.802 -1.0437  0.1370  0.4023
21249SOL    HW173677  11.957  11.467   5.770 -1.9113  0.4120  1.8009
21249SOL    HW273678  11.913  11.322   5.777 -0.8394 -0.0173  0.1789
21250SOL     OW73679   5.035   5.189   3.645  0.2082 -0.0200 -0.8100
21250SOL    HW173680   5.027   5.094   3.652  2.2534 -0.1702 -0.0752
21250SOL    HW273681   4.971   5.213   3.577 -0.4995 -1.8648 -0.8529
21251SOL     OW73682   5.238   3.940   2.510  0.2626  0.2901  0.1139
21251SOL    HW173683   5.165   3.930   2.449  1.8036 -3.6009 -1.3919
21251SOL    HW273684   5.303   3.990   2.462  0.8712 -1.4607 -0.9801
21252SOL     OW73685   0.773   8.295   4.153  0.0312  0.4245  0.4999
21252SOL    HW173686   0.816   8.219   4.193  0.0030  0.5797  0.8249
21252SOL    HW273687   0.843   8.360   4.145  0.1772  0.1840 -0.2595
21253SOL     OW73688  12.965  11.009  11.100 -0.0516 -0.5813 -0.5819
21253SOL    HW173689  13.040  10.962  11.137  0.1890 -0.4927 -0.9440
21253SOL    HW273690  12.897  10.942  11.090 -0.1316 -0.5996  0.0345
21254SOL     OW73691   0.414   8.724  11.593  0.2546  0.0554 -0.2436
21254SOL    HW173692   0.350   8.749  11.659  1.2919  0.4182  0.6670
21254SOL    HW273693   0.469   8.802  11.582  1.2987 -0.6298 -0.0679
21255SOL     OW73694   6.496   8.561   2.171 -0.1586  0.3228  0.2228
21255SOL    HW173695   6.551   8.573   2.094 -0.8361  1.1576 -0.1473
21255SOL    HW273696   6.424   8.505   2.141  0.8405 -1.3732  0.8914
21256SOL     OW73697   4.965  11.883   5.213  0.2186  0.4075 -0.4370
21256SOL    HW173698   5.060  11.882   5.219  0.2001 -2.2431  0.9433
21256SOL    HW273699   4.937  11.933   5.290  0.5254 -1.6227  1.0686
21257SOL     OW73700   6.159  10.534   8.651  0.1719 -0.5824  0.5847
21257SOL    HW173701   6.195  10.463   8.704  0.2178  0.2770  1.7473
21257SOL    HW273702   6.102  10.582   8.711  1.7757  1.6164  0.4816
21258SOL     OW73703   3.713   0.449   6.226  0.1419  0.5356 -0.2698
21258SOL    HW173704   3.671   0.483   6.147 -0.3531  1.6643  0.4628
21258SOL    HW273705   3.658   0.480   6.298 -1.6391 -3.5663  0.4312
21259SOL     OW73706  13.276   6.519  11.699  0.1421 -0.3946  0.5143
21259SOL    HW173707  13.194   6.521  11.749 -0.4669 -0.1804 -0.4677
21259SOL    HW273708  13.324   6.444  11.735 -1.7845 -2.4057 -0.8459
21260SOL     OW73709   7.697   3.639   0.616  0.1972 -0.2194  0.6276
21260SOL    HW173710   7.732   3.706   0.674  1.6152 -0.5981  0.2585
21260SOL    HW273711   7.652   3.578   0.674  0.2765  0.2163  1.1546
21261SOL     OW73712   1.389   1.350   7.557  0.4623  0.0531 -0.4999
21261SOL    HW173713   1.405   1.329   7.465 -0.0228  0.9722 -0.8122
21261SOL    HW273714   1.395   1.266   7.602 -1.7540 -0.8512 -1.7278
21262SOL     OW73715   2.480  12.671   4.572 -0.2560  0.1733 -0.2188
21262SOL    HW173716   2.439  12.755   4.593  0.8643  0.6316  0.2131
21262SOL    HW273717   2.459  12.656   4.480  2.0822  2.4846 -1.2496
21263SOL     OW73718  10.962   6.190   2.647  0.0920  0.0096  0.3261
21263SOL    HW173719  10.924   6.239   2.719 -0.0142 -0.6774  0.7468
21263SOL    HW273720  10.978   6.103   2.683  0.4890 -0.1981 -0.3386
21264SOL     OW73721   9.332  11.817   5.552  0.4418  0.6118 -0.0446
21264SOL    HW173722   9.356  11.899   5.596  1.5942  1.0553 -1.4297
21264SOL    HW273723   9.416  11.774   5.534  0.2496  1.5343 -3.8150
21265SOL     OW73724   6.686   0.421  11.019 -0.0172 -0.3275 -0.1730
21265SOL    HW173725   6.646   0.490  10.966  1.1514  0.3029 -0.2633
21265SOL    HW273726   6.614   0.360  11.037 -0.4005 -0.7320 -2.7064
21266SOL     OW73727   5.275   0.433  10.683  0.1454 -0.1660  0.5921
21266SOL    HW173728   5.257   0.346  10.719 -1.8315 -0.2302 -0.4398
21266SOL    HW273729   5.212   0.490  10.728 -0.6696  0.1707 -0.9111
21267SOL     OW73730   5.299   4.820   9.820 -0.1785  0.6695  0.3924
21267SOL    HW173731   5.209   4.823   9.787  0.7832 -1.2992 -2.7908
21267SOL    HW273732   5.313   4.729   9.844  0.8945  1.0358  1.2367
21268SOL     OW73733   8.730   9.939   6.171 -0.3575  0.3071 -0.1439
21268SOL    HW173734   8.788   9.868   6.198 -1.8673  0.3123  3.6693
21268SOL    HW273735   8.781  10.018   6.187 -0.4363  0.2266  0.5283
21269SOL     OW73736  10.366   5.287   2.697 -0.5103  0.1240  0.2400
21269SOL    HW173737  10.457   5.277   2.669 -1.0506 -3.8418 -0.7361
21269SOL    HW273738  10.318   5.306   2.616 -0.8538 -0.8934  0.1860
21270SOL     OW73739   5.444  11.584   1.116  0.5387  0.8120  0.6027
21270SOL    HW173740   5.409  11.576   1.205  0.5101  0.2083  0.5426
21270SOL    HW273741   5.534  11.554   1.123  0.1973 -0.3867  0.2176
21271SOL     OW73742  10.375   8.874   1.135  0.6873  0.0022  0.1532
21271SOL    HW173743  10.447   8.933   1.157  0.4363  0.1350  0.6240
21271SOL    HW273744  10.318   8.925   1.079  0.2967  0.3194  0.8367
21272SOL     OW73745   4.098   8.958   8.433  0.1159 -0.5154  0.5976
21272SOL    HW173746   4.024   8.897   8.429  1.1401 -1.8516  0.8681
21272SOL    HW273747   4.175   8.901   8.421  1.0461  0.9735 -0.8695
21273SOL     OW73748   4.928  12.595   8.121 -0.0351  0.0118  0.4083
21273SOL    HW173749   4.932  12.556   8.209 -1.5049  0.6905  0.8009
21273SOL    HW273750   4.836  12.618   8.109  0.0553 -0.4225 -1.4887
21274SOL     OW73751   0.747  11.508   1.695  0.2952 -0.1700  0.2445
21274SOL    HW173752   0.825  11.561   1.680  0.2522 -0.4961 -1.2808
21274SOL    HW273753   0.782  11.421   1.714  0.3123 -0.4026 -0.8097
21275SOL     OW73754   2.867   7.670  11.769  0.4057  0.1664 -0.3628
21275SOL    HW173755   2.887   7.754  11.809 -0.8977 -0.0455  0.8231
21275SOL    HW273756   2.772   7.673  11.752  0.1742 -1.3410  0.4551
21276SOL     OW73757   5.560   9.219   4.705 -0.3127  0.2027 -0.2211
21276SOL    HW173758   5.488   9.156   4.707 -0.5754  0.3966 -1.9514
21276SOL    HW273759   5.563   9.249   4.614  0.7406  1.6148  0.2436
21277SOL     OW73760   1.111   7.765   8.099 -0.0748  0.1700 -0.4129
21277SOL    HW173761   1.159   7.682   8.097 -1.4619 -0.6482 -2.2845
21277SOL    HW273762   1.116   7.793   8.191  1.1670 -1.5160  0.0859
21278SOL     OW73763   2.060   2.789  12.538  0.6149 -0.7039 -0.7878
21278SOL    HW173764   2.081   2.817  12.448  0.6110 -1.4766 -1.0390
21278SOL    HW273765   1.974   2.749  12.530 -0.0411  0.5412 -0.1553
21279SOL     OW73766   2.087  11.209  12.295  0.0611 -0.0927 -0.1089
21279SOL    HW173767   2.096  11.158  12.214  0.5505  0.2973 -0.3094
21279SOL    HW273768   2.165  11.264  12.297 -0.2130  0.2882  0.3616
21280SOL     OW73769  11.420  10.341   0.449  0.3147  0.7469  0.5085
21280SOL    HW173770  11.472  10.397   0.392 -1.0563  2.2424  0.6395
21280SOL    HW273771  11.369  10.287   0.389 -0.0529  1.2972  0.3099
21281SOL     OW73772   0.804  10.388   0.829  0.0820 -0.1358 -0.4789
21281SOL    HW173773   0.719  10.430   0.818 -1.2774 -2.2066  1.3183
21281SOL    HW273774   0.819  10.389   0.923  1.7388 -0.4210 -0.7217
21282SOL     OW73775   8.643   6.994  12.633 -0.5237  0.1081  0.1251
21282SOL    HW173776   8.675   7.002  12.723  1.4997 -2.2434 -0.2734
21282SOL    HW273777   8.625   7.084  12.606  0.1785  1.0082  2.4065
21283SOL     OW73778   6.568   8.211   1.697  0.1461  0.0358  0.2105
21283SOL    HW173779   6.651   8.212   1.745 -0.2053  0.5591  0.8199
21283SOL    HW273780   6.589   8.248   1.612  1.1020 -2.2380 -0.6310
21284SOL     OW73781   3.726   4.184   0.394 -0.3557  0.3991 -0.4940
21284SOL    HW173782   3.760   4.247   0.331 -1.4090  1.2789 -0.2271
21284SOL    HW273783   3.667   4.128   0.344 -0.6024  0.6115 -0.4439
21285SOL     OW73784   3.700  12.659  10.064  0.2645  0.2528 -0.4914
21285SOL    HW173785   3.683  12.569  10.035  2.6959 -0.6530  0.6115
21285SOL    HW273786   3.614  12.693  10.087 -0.5888 -2.4042  0.6852
21286SOL     OW73787   2.002   5.246  10.158  0.2259  0.1773  0.4256
21286SOL    HW173788   2.030   5.157  10.177  0.4263 -0.6843 -3.2273
21286SOL    HW273789   1.917   5.237  10.117  1.2792  1.3243 -2.2313
21287SOL     OW73790   0.979  13.073   1.797  0.6459 -0.7727 -0.7197
21287SOL    HW173791   0.979  13.155   1.747 -0.1345 -0.1972  0.1900
21287SOL    HW273792   1.063  13.073   1.843 -1.1201  1.8597  2.9039
21288SOL     OW73793   0.276   8.047   6.957 -0.5133  0.4356 -0.2714
21288SOL    HW173794   0.183   8.033   6.972 -0.8269  1.2507 -1.3014
21288SOL    HW273795   0.285   8.143   6.953 -0.6776  0.5584 -5.6952
21289SOL     OW73796   6.837   6.286   9.911 -0.0820 -0.0468  0.1800
21289SOL    HW173797   6.846   6.193   9.931 -1.9125 -0.5622 -1.1766
21289SOL    HW273798   6.744   6.298   9.891  0.0736  2.1248  0.4918
21290SOL     OW73799   4.763   3.280   4.892 -0.0041  0.1688 -0.4449
21290SOL    HW173800   4.684   3.300   4.840 -0.4881 -0.5036  0.0152
21290SOL    HW273801   4.789   3.364   4.929 -1.5124  0.1445  0.7695
21291SOL     OW73802   3.079   6.611  11.007 -0.0030  0.2745  0.1115
21291SOL    HW173803   3.161   6.650  11.039  0.8157 -0.0818 -1.4658
21291SOL    HW273804   3.073   6.527  11.053  1.6975 -0.7049 -1.3146
21292SOL     OW73805   2.391  13.042   9.881 -0.1580 -0.2273 -0.0337
21292SOL    HW173806   2.407  13.103   9.808  1.3966  0.2571  0.6843
21292SOL    HW273807   2.302  13.063   9.910 -0.1431  0.7766 -0.6578
21293SOL     OW73808  12.818  10.064   6.999  0.2969 -0.2455  0.0050
21293SOL    HW173809  12.786  10.126   6.934 -2.5401 -1.4762  0.0891
21293SOL    HW273810  12.764   9.985   6.985  2.1924 -1.8897  1.3868
21294SOL     OW73811   6.301   7.703  10.013 -0.4866  0.5455  0.4474
21294SOL    HW173812   6.292   7.798  10.014  0.5714  0.6673  1.9450
21294SOL    HW273813   6.226   7.672  10.064 -1.3320  0.4943 -0.7907
21295SOL     OW73814   5.288   8.201   6.238  0.4823 -0.4502  0.1464
21295SOL    HW173815   5.354   8.247   6.184 -0.9871  0.5510 -0.8913
21295SOL    HW273816   5.297   8.240   6.325  0.5769  0.4281 -0.2461
21296SOL     OW73817   9.133   8.189   9.275  0.5870  0.8851  0.3951
21296SOL    HW173818   9.074   8.224   9.341 -0.7138  1.4538 -1.0160
21296SOL    HW273819   9.086   8.115   9.237  1.0506  0.9473 -0.3204
21297SOL     OW73820   5.397   2.579   0.629 -0.2708 -0.2935  0.0327
21297SOL    HW173821   5.303   2.561   0.621 -0.5903  1.7877 -1.7887
21297SOL    HW273822   5.439   2.511   0.577 -1.1642  1.3198 -3.0943
21298SOL     OW73823   3.771  10.290  13.188 -0.6427 -0.0296  0.3698
21298SOL    HW173824   3.769  10.267  13.281 -0.9089 -1.2881  0.0737
21298SOL    HW273825   3.792  10.207  13.144  1.1168  0.8547 -0.5888
21299SOL     OW73826  11.241  11.268   1.461 -0.2825 -0.6739  0.7673
21299SOL    HW173827  11.327  11.244   1.498 -0.0631  0.4107  0.9980
21299SOL    HW273828  11.238  11.363   1.468 -0.8006 -0.5484 -0.8185
21300SOL     OW73829   0.641   9.871   2.309 -0.0312 -0.4245 -0.4885
21300SOL    HW173830   0.728   9.840   2.286 -0.1067 -0.3808 -0.8376
21300SOL    HW273831   0.656   9.942   2.371  0.2391  0.5302 -1.6215
21301SOL     OW73832   7.545   5.276   3.630 -0.4115  0.1118 -0.3415
21301SOL    HW173833   7.507   5.267   3.718  1.9505 -0.6368  0.6632
21301SOL    HW273834   7.554   5.186   3.599  0.4110  0.2798 -0.6074
21302SOL     OW73835   2.804   4.359   1.909  0.2344  0.0549  0.1246
21302SOL    HW173836   2.846   4.381   1.827 -1.2671  0.6072 -0.5401
21302SOL    HW273837   2.759   4.276   1.891 -1.4191  0.9682 -0.1513
21303SOL     OW73838   9.115   4.339   8.180 -0.6899 -0.2884  0.2012
21303SOL    HW173839   9.079   4.421   8.213 -0.8364 -0.0768 -0.4800
21303SOL    HW273840   9.196   4.363   8.136 -1.5543 -0.2780 -1.4292
21304SOL     OW73841   1.994  12.625   5.047  0.5938 -0.7161 -0.5736
21304SOL    HW173842   2.054  12.688   5.007  1.4225 -2.0174 -1.4582
21304SOL    HW273843   2.038  12.599   5.128 -0.8231  1.4963  1.0209
21305SOL     OW73844  12.371  10.614  10.258  0.2502 -0.8062 -0.5708
21305SOL    HW173845  12.285  10.625  10.216  0.3071 -1.2146 -0.7911
21305SOL    HW273846  12.360  10.656  10.344 -0.6172 -2.1231 -0.0119
21306SOL     OW73847   3.253  10.298  12.515  0.2139  0.1301  0.4614
21306SOL    HW173848   3.234  10.380  12.561  2.1056 -0.1044  1.7594
21306SOL    HW273849   3.340  10.273  12.545  1.0983 -0.6725 -2.3894
21307SOL     OW73850   5.136   8.532   3.584 -0.7091  0.4976 -0.0571
21307SOL    HW173851   5.094   8.545   3.499  1.4726 -0.4362 -1.3544
21307SOL    HW273852   5.179   8.616   3.603  0.7602  0.0043 -1.0642
21308SOL     OW73853  12.183   9.559   1.825 -0.2132 -0.5178  0.7016
21308SOL    HW173854  12.116   9.546   1.892  0.0829  0.7390  1.2668
21308SOL    HW273855  12.236   9.480   1.827 -1.8930 -1.7169 -0.0194
21309SOL     OW73856   0.111   1.588   9.603 -0.5698  0.0943 -0.1189
21309SOL    HW173857   0.056   1.563   9.677  2.7819  0.7111  2.8939
21309SOL    HW273858   0.130   1.505   9.558 -3.2915 -0.1868 -0.9111
21310SOL     OW73859   5.780   2.154   9.846  0.2577 -0.4666  0.6078
21310SOL    HW173860   5.875   2.141   9.855  0.4446  1.1417  1.1727
21310SOL    HW273861   5.748   2.070   9.811  1.9253 -0.9297  0.0892
21311SOL     OW73862   5.023   9.667   9.361 -0.5565 -0.3283 -0.4660
21311SOL    HW173863   4.936   9.639   9.387 -0.1711  0.2603  1.6218
21311SOL    HW273864   5.053   9.724   9.432  1.4561 -0.3515 -1.2122
21312SOL     OW73865  12.098   4.880   7.285  0.2597  0.2317  0.1043
21312SOL    HW173866  12.097   4.976   7.281  2.3624  0.3154  0.2279
21312SOL    HW273867  12.135   4.853   7.201 -0.9782 -0.5346 -0.2130
21313SOL     OW73868  12.029   5.147   7.252 -0.1834  0.1936 -1.2987
21313SOL    HW173869  12.035   5.142   7.157 -1.4879  1.1977 -1.4649
21313SOL    HW273870  11.938   5.169   7.269  0.3881  1.7165  0.0917
21314SOL     OW73871   1.962   0.174   3.878 -0.8579  0.0974  0.5431
21314SOL    HW173872   1.932   0.168   3.787  1.4345 -1.1790 -0.2083
21314SOL    HW273873   2.010   0.257   3.882 -1.6615  0.5574  0.8428
21315SOL     OW73874  10.914   4.475   9.231  0.1213  0.7786  0.5246
21315SOL    HW173875  10.973   4.401   9.242  0.2359  0.9662  1.2262
21315SOL    HW273876  10.956   4.529   9.164  1.3894  1.5183  1.8556
21316SOL     OW73877   0.717   2.051  12.264 -0.6082  0.0561  0.0860
21316SOL    HW173878   0.811   2.069  12.267 -0.3621 -0.7437 -1.5764
21316SOL    HW273879   0.679   2.132  12.231 -0.3069 -0.1236 -0.7310
21317SOL     OW73880   7.524   1.510   0.384  0.0607 -0.6796 -0.3032
21317SOL    HW173881   7.490   1.426   0.415  1.9077 -1.5524 -0.5121
21317SOL    HW273882   7.541   1.495   0.291 -0.5929  0.2935 -0.5979
21318SOL     OW73883   5.618   3.730   2.157 -0.1696  0.0872  0.6649
21318SOL    HW173884   5.672   3.809   2.162  1.1741 -0.8338  1.7565
21318SOL    HW273885   5.665   3.666   2.212 -1.1822 -1.4773 -0.2154
21319SOL     OW73886   0.203   5.890   0.074 -0.1789  0.3887 -0.1859
21319SOL    HW173887   0.131   5.946   0.046 -0.6507  0.0859  0.3986
21319SOL    HW273888   0.252   5.943   0.135 -0.4767  0.2609  0.1686
21320SOL     OW73889   0.652   1.782   0.518  0.2751 -0.0141 -0.3617
21320SOL    HW173890   0.667   1.800   0.610  0.6710 -0.2020 -0.3881
21320SOL    HW273891   0.588   1.848   0.491 -0.2067 -0.2595  0.1609
21321SOL     OW73892  12.226  11.611   5.915  0.0331 -0.1303  0.1574
21321SOL    HW173893  12.145  11.633   5.868  0.2675  0.1969 -0.0930
21321SOL    HW273894  12.272  11.694   5.925 -0.0999 -0.1689  1.1344
21322SOL     OW73895   5.944   3.187  10.165 -0.0456  0.0342 -0.0592
21322SOL    HW173896   5.882   3.228  10.104  1.0293 -1.4412 -2.2668
21322SOL    HW273897   5.888   3.145  10.230 -1.3009  0.5756 -0.7357
21323SOL     OW73898   3.776  13.241   1.854  0.0386  0.1733 -0.0375
21323SOL    HW173899   3.747  13.331   1.866 -2.8251 -0.9437  2.7671
21323SOL    HW273900   3.729  13.210   1.776 -0.8357  0.4479  0.3724
21324SOL     OW73901   1.930   7.855   6.768 -0.0969  0.5868 -0.1839
21324SOL    HW173902   1.997   7.788   6.783  0.7928  1.5629  0.2958
21324SOL    HW273903   1.942   7.881   6.677  0.7599  1.3670  0.1408
21325SOL     OW73904   7.325   0.067  13.091  0.4580  0.2077 -0.0395
21325SOL    HW173905   7.355  -0.020  13.064  1.3247  1.2256 -2.6959
21325SOL    HW273906   7.404   0.110  13.123  0.2492  0.3418  0.2943
21326SOL     OW73907   1.204  11.385  11.306  0.0365  1.1381  0.0783
21326SOL    HW173908   1.284  11.435  11.288 -0.6376  1.6946 -1.5509
21326SOL    HW273909   1.236  11.302  11.341  1.3131  1.5198 -0.1145
21327SOL     OW73910   5.136   4.884  12.215 -0.4205  0.2810  0.2053
21327SOL    HW173911   5.051   4.861  12.178 -0.9534  0.6734  1.1524
21327SOL    HW273912   5.161   4.964  12.169  0.4431 -0.9567 -1.5713
21328SOL     OW73913  13.002   6.641   2.361 -0.2504  0.3946  0.4872
21328SOL    HW173914  13.025   6.710   2.298  0.6059  0.0697  0.4373
21328SOL    HW273915  13.056   6.660   2.438  1.7675 -1.5085 -0.3422
21329SOL     OW73916   1.278   3.149  10.845  0.3311 -0.0844 -1.0061
21329SOL    HW173917   1.238   3.189  10.922  0.8567 -0.1418 -0.6967
21329SOL    HW273918   1.307   3.224  10.792  0.6519 -0.0435 -0.7788
21330SOL     OW73919  11.573   4.322   2.820 -0.2694 -0.0481  0.4067
21330SOL    HW173920  11.622   4.271   2.756 -0.9196  1.6977 -1.6096
21330SOL    HW273921  11.541   4.257   2.884 -1.2562 -2.2213 -2.1097
21331SOL     OW73922  11.985   3.642  12.553 -0.2084 -0.1486  0.1794
21331SOL    HW173923  12.039   3.622  12.629 -0.8667 -0.1316  0.6638
21331SOL    HW273924  12.047   3.661  12.483  0.4090 -1.3640  0.3813
21332SOL     OW73925  10.645   6.508   3.245 -0.1050 -0.4134  0.2153
21332SOL    HW173926  10.737   6.516   3.267  0.0588 -0.8409 -0.2838
21332SOL    HW273927  10.609   6.450   3.312  0.5395 -2.2898 -0.9849
21333SOL     OW73928   0.497  12.435   0.285 -0.2947 -0.0836 -0.9410
21333SOL    HW173929   0.542  12.516   0.261  1.1824 -0.8124 -0.7586
21333SOL    HW273930   0.442  12.458   0.359  1.0427  0.5110 -0.1023
21334SOL     OW73931   3.199   2.115   4.747  0.1299  0.2637 -0.3805
21334SOL    HW173932   3.146   2.063   4.687 -0.6558  1.2906 -0.6025
21334SOL    HW273933   3.136   2.158   4.804  0.5996  2.4994 -1.4420
21335SOL     OW73934   0.940   0.300  12.930  0.1248  0.9796 -0.2170
21335SOL    HW173935   0.999   0.324  12.858  0.5040 -0.1340 -0.2928
21335SOL    HW273936   0.990   0.323  13.009  0.8221 -0.2507 -0.2740
21336SOL     OW73937   0.786  12.075   7.690  0.0107  0.1515 -0.6045
21336SOL    HW173938   0.827  12.065   7.604 -1.3927 -0.7272 -1.2135
21336SOL    HW273939   0.755  12.165   7.691  0.3055  0.2590 -0.8862
21337SOL     OW73940   7.467   8.764   0.617  0.8298 -0.6811  0.8746
21337SOL    HW173941   7.560   8.784   0.611  0.9724 -0.0340  3.7709
21337SOL    HW273942   7.424   8.849   0.624 -0.0553 -0.9570 -0.7894
21338SOL     OW73943   2.526  13.228  11.423 -0.0864 -0.1634 -0.1111
21338SOL    HW173944   2.440  13.233  11.464  0.1344  0.2726  0.3052
21338SOL    HW273945   2.564  13.147  11.457 -0.6210 -0.7479 -0.8753
21339SOL     OW73946   2.894   9.999   0.849  0.7383 -0.1496  0.5375
21339SOL    HW173947   2.946  10.079   0.840 -0.4905  0.4873 -1.3416
21339SOL    HW273948   2.804  10.027   0.834  0.3438 -1.9911 -0.7890
21340SOL     OW73949   2.947   4.508   2.859  0.3546  0.2715 -0.2708
21340SOL    HW173950   2.951   4.510   2.764  1.5485  0.6477 -0.2312
21340SOL    HW273951   2.930   4.599   2.884 -1.3671 -0.0488 -0.1447
21341SOL     OW73952   0.850  10.204   9.518  0.0229 -0.1919  0.0595
21341SOL    HW173953   0.911  10.130   9.516 -0.8379 -0.9308  0.3727
21341SOL    HW273954   0.768  10.167   9.550 -0.6745  0.7190 -0.5962
21342SOL     OW73955   5.848   6.897   1.318  0.6930 -0.6321 -0.6268
21342SOL    HW173956   5.798   6.816   1.304 -0.2209 -0.0892 -0.5952
21342SOL    HW273957   5.872   6.926   1.230  0.8728 -0.8434 -0.6485
21343SOL     OW73958   3.052  10.193   6.750 -0.6150 -0.0013 -0.1562
21343SOL    HW173959   3.067  10.242   6.670  0.4375  1.1406  0.6963
21343SOL    HW273960   3.109  10.117   6.743 -1.7874 -0.8250 -1.2071
21344SOL     OW73961   2.262  12.630   7.796 -0.0517  0.1611 -0.3564
21344SOL    HW173962   2.326  12.683   7.844  0.5772 -0.7940 -0.1169
21344SOL    HW273963   2.179  12.677   7.808  0.1527  0.1617  1.3630
21345SOL     OW73964   6.485  12.573   2.311  0.2505 -0.5110  0.6800
21345SOL    HW173965   6.460  12.625   2.388 -0.4760  0.1472  0.0256
21345SOL    HW273966   6.412  12.512   2.299 -0.9853  1.1814 -1.0330
21346SOL     OW73967   6.104  12.725  10.188  0.1648  0.3080 -0.4127
21346SOL    HW173968   6.159  12.692  10.117 -0.0595  1.3797 -1.1054
21346SOL    HW273969   6.016  12.726  10.151  0.0125  0.6611 -0.0414
21347SOL     OW73970   9.922  12.442  10.059 -0.5175  0.1125  0.2265
21347SOL    HW173971   9.909  12.513   9.996 -2.0185 -0.9905 -0.7734
21347SOL    HW273972   9.970  12.375  10.011  0.4174  0.2142  0.9993
21348SOL     OW73973   1.699   1.860   0.039  0.0281  0.0786 -0.1886
21348SOL    HW173974   1.680   1.820  -0.046 -0.2196 -0.4206  0.0996
21348SOL    HW273975   1.730   1.788   0.094  0.7593  0.5097 -0.0289
21349SOL     OW73976  11.140  10.332   9.647  0.5973  0.1269  0.4328
21349SOL    HW173977  11.197  10.296   9.715 -0.6611 -2.6260  0.1678
21349SOL    HW273978  11.164  10.283   9.568 -0.5877  0.5490 -0.2058
21350SOL     OW73979  11.478  12.920  13.297  0.0956  0.2067  0.0894
21350SOL    HW173980  11.534  12.888  13.367 -1.3274 -1.5535  0.5169
21350SOL    HW273981  11.452  12.841  13.249  0.5074  1.2926 -2.0464
21351SOL     OW73982   2.725   4.446   4.595 -0.1675  0.0395 -0.1882
21351SOL    HW173983   2.817   4.465   4.575 -0.3119 -0.7453 -1.7111
21351SOL    HW273984   2.724   4.430   4.689  1.7674 -2.6086 -0.4966
21352SOL     OW73985  12.532   7.608   6.472  0.8895 -0.1871 -0.2178
21352SOL    HW173986  12.522   7.540   6.538 -2.9357 -0.3244 -0.7006
21352SOL    HW273987  12.592   7.571   6.407  0.8051 -2.0825  0.7401
21353SOL     OW73988  10.985   1.884   3.682  0.2405  0.0485  0.2095
21353SOL    HW173989  10.979   1.955   3.619 -0.2404  1.1826  1.4771
21353SOL    HW273990  11.078   1.875   3.700  0.4681 -0.8605 -1.2415
21354SOL     OW73991  11.942   5.343   2.234 -0.3412  0.0817  0.3574
21354SOL    HW173992  12.016   5.356   2.292  0.4377 -0.4411 -0.4906
21354SOL    HW273993  11.866   5.336   2.292  0.1509  1.3696  1.1877
21355SOL     OW73994   9.328  10.680   1.603  0.0551 -0.7442  0.4180
21355SOL    HW173995   9.298  10.630   1.527 -0.6209 -0.1119  0.2555
21355SOL    HW273996   9.265  10.660   1.672 -0.6141  0.3737  0.1603
21356SOL     OW73997   8.530   8.232  12.586  0.2533 -0.4150  0.7909
21356SOL    HW173998   8.587   8.266  12.655 -0.8883  1.8687  0.6788
21356SOL    HW273999   8.526   8.302  12.521 -0.8052 -1.4770 -0.3345
21357SOL     OW74000   2.921   6.190   7.052  0.1960  0.2772  0.2544
21357SOL    HW174001   3.015   6.188   7.070  0.0598 -0.3263  0.9832
21357SOL    HW274002   2.889   6.107   7.088 -0.6440  0.5668  0.1882
21358SOL     OW74003   8.262   2.997   2.413  0.0518  0.2617  0.4075
21358SOL    HW174004   8.294   3.041   2.492 -1.1933  0.2198  0.9700
21358SOL    HW274005   8.297   3.048   2.340  0.7538  0.6380  0.9968
21359SOL     OW74006   7.912   9.033   6.855 -0.1990 -0.3683 -0.2518
21359SOL    HW174007   7.835   9.084   6.830  1.1395  1.4224 -0.8807
21359SOL    HW274008   7.932   8.980   6.778 -1.2717 -1.4965  0.2140
21360SOL     OW74009   5.461  12.693   0.888 -0.5380  0.0225 -0.3451
21360SOL    HW174010   5.555  12.677   0.897 -0.0760  2.8376  0.8952
21360SOL    HW274011   5.423  12.666   0.972 -0.6215  0.1375 -0.3451
21361SOL     OW74012  10.345   8.132   1.305  0.1974 -0.3823  0.0580
21361SOL    HW174013  10.338   8.211   1.358 -1.3250 -0.8383  0.5812
21361SOL    HW274014  10.316   8.061   1.362  0.2223 -1.1358 -0.8318
21362SOL     OW74015   2.741   0.357   9.226 -0.6703 -0.7630  0.6243
21362SOL    HW174016   2.693   0.280   9.196 -0.1208 -1.1014  0.5931
21362SOL    HW274017   2.676   0.411   9.271 -0.5660 -2.4938  3.0384
21363SOL     OW74018   1.468   9.333   5.070  0.0711  0.1087 -0.1426
21363SOL    HW174019   1.395   9.292   5.022  0.5870 -1.5322  0.3987
21363SOL    HW274020   1.534   9.263   5.076  0.8937  0.9590  1.0640
21364SOL     OW74021   8.794   1.761   4.537 -0.1344 -0.0145  0.2692
21364SOL    HW174022   8.752   1.736   4.619  2.5329 -0.0164  1.7491
21364SOL    HW274023   8.811   1.677   4.493 -1.9934  0.0118 -0.5737
21365SOL     OW74024   1.667  10.897   9.268 -0.4574  0.2306 -0.8649
21365SOL    HW174025   1.740  10.863   9.217 -0.3114  3.1305 -2.7645
21365SOL    HW274026   1.589  10.868   9.221 -0.3710  1.1085 -1.5737
21366SOL     OW74027   6.559   6.028   3.845 -0.0095  0.0299 -0.4969
21366SOL    HW174028   6.642   5.980   3.847  0.9601  1.6568 -0.2947
21366SOL    HW274029   6.550   6.056   3.754  0.1151  0.5739 -0.3484
21367SOL     OW74030  11.966   6.691   9.094 -0.5794 -0.8279  0.0544
21367SOL    HW174031  11.917   6.761   9.050 -1.0471 -0.9177  0.4251
21367SOL    HW274032  11.987   6.629   9.024  1.7830  0.7361 -0.7159
21368SOL     OW74033   7.658  12.137   1.560 -0.8830  0.2589  0.1340
21368SOL    HW174034   7.705  12.181   1.630 -0.2610  1.5526 -1.0483
21368SOL    HW274035   7.693  12.048   1.560  0.3671  0.7275  0.3660
21369SOL     OW74036  10.580   2.275   0.921  0.1472 -0.1700 -0.0074
21369SOL    HW174037  10.640   2.331   0.971 -2.3436  1.1285  1.7503
21369SOL    HW274038  10.524   2.234   0.988 -1.9624 -0.0264 -1.5688
21370SOL     OW74039   4.408  11.975  12.332  1.3297  0.5004 -0.4581
21370SOL    HW174040   4.464  11.943  12.403  0.3549 -0.1670  0.0405
21370SOL    HW274041   4.332  12.012  12.377  1.0800  0.8098 -1.1360
21371SOL     OW74042   7.437  11.721   3.368  0.2620 -0.3784  1.0678
21371SOL    HW174043   7.521  11.764   3.352 -0.1940 -0.1514 -1.0658
21371SOL    HW274044   7.375  11.792   3.381 -0.4654 -0.2003 -2.3255
21372SOL     OW74045   8.914   3.598   2.283  0.2047 -0.2822  0.4777
21372SOL    HW174046   8.890   3.679   2.328  1.3883  0.8436 -0.7985
21372SOL    HW274047   8.994   3.621   2.235 -2.2996 -0.5008 -4.3775
21373SOL     OW74048   3.616   0.087   0.324  0.1092  0.0565  0.5581
21373SOL    HW174049   3.646  -0.001   0.303 -4.0153 -1.6367  0.9193
21373SOL    HW274050   3.617   0.133   0.240 -2.1301 -1.9452 -0.6912
21374SOL     OW74051  10.557   8.608   6.411  0.1279 -0.0068  0.1949
21374SOL    HW174052  10.469   8.620   6.376 -0.5817 -1.1646  1.4796
21374SOL    HW274053  10.592   8.697   6.418  0.1341  0.3244 -2.8339
21375SOL     OW74054   2.470   4.935   5.171 -0.3282  0.0969  0.1581
21375SOL    HW174055   2.429   4.990   5.237 -1.1111 -0.5372  0.2205
21375SOL    HW274056   2.519   4.869   5.221 -0.2874  0.0770  0.0934
21376SOL     OW74057   4.029   4.051   9.412 -0.3071  0.1019  0.0077
21376SOL    HW174058   4.096   4.057   9.480  1.2750 -0.1689 -1.4427
21376SOL    HW274059   4.030   3.959   9.386 -0.0346  0.4070 -1.1432
21377SOL     OW74060  10.119   8.870   0.949  0.2198  0.3309  0.1940
21377SOL    HW174061  10.064   8.862   0.871  1.0383 -0.6829 -0.3057
21377SOL    HW274062  10.105   8.789   0.998  0.1674  0.7006  0.8069
21378SOL     OW74063   5.045   4.674   7.142  1.0109 -0.9041 -0.4833
21378SOL    HW174064   5.094   4.710   7.215 -2.9834 -0.2910  2.2048
21378SOL    HW274065   5.024   4.749   7.087  0.8184 -0.7326 -0.1747
21379SOL     OW74066   6.546   5.859  11.108  0.2354  0.0877 -0.0016
21379SOL    HW174067   6.469   5.892  11.062 -1.1872  2.8975  3.8551
21379SOL    HW274068   6.530   5.766  11.119 -1.2065  0.0857 -1.6965
21380SOL     OW74069  12.674   5.758   6.197  0.0088  0.0489 -0.2011
21380SOL    HW174070  12.667   5.838   6.145 -0.0814  0.3647  0.2922
21380SOL    HW274071  12.651   5.785   6.286 -0.2462 -0.5724 -0.0740
21381SOL     OW74072  13.101   2.907  13.141 -0.6750  0.7197  0.3480
21381SOL    HW174073  13.063   2.870  13.062 -0.5778 -0.2511  0.7356
21381SOL    HW274074  13.031   2.959  13.180 -1.3621 -0.3689  0.6209
21382SOL     OW74075  12.926   8.362   0.286  0.4439 -0.0826  0.2812
21382SOL    HW174076  12.886   8.448   0.303 -1.0948 -0.6915 -0.0699
21382SOL    HW274077  12.969   8.373   0.201  0.8050  0.5201  0.5364
21383SOL     OW74078   5.017   5.776  12.782  0.4262 -0.3300 -0.2780
21383SOL    HW174079   5.099   5.807  12.823  1.2982  0.9244 -2.7510
21383SOL    HW274080   4.976   5.856  12.748 -1.2953 -1.0821 -0.0511
21384SOL     OW74081   8.562  12.591  10.419  0.2621  0.0598  0.1263
21384SOL    HW174082   8.535  12.553  10.502 -1.2240 -0.1111 -0.4094
21384SOL    HW274083   8.566  12.517  10.358  2.1542  0.0494  0.2048
21385SOL     OW74084   7.933   9.721   1.269 -0.1942  0.0917 -0.8870
21385SOL    HW174085   8.007   9.779   1.251 -0.1768  0.3868  0.0875
21385SOL    HW274086   7.930   9.715   1.364 -1.9665  0.7675 -0.8763
21386SOL     OW74087  12.500   7.524   8.980  0.3140  0.1658  0.0382
21386SOL    HW174088  12.471   7.513   9.071 -0.6775 -0.4385 -0.3318
21386SOL    HW274089  12.420   7.540   8.931  0.6160 -1.1796 -0.9710
21387SOL     OW74090   2.609   5.157  12.154  0.0476 -0.5076 -0.0533
21387SOL    HW174091   2.521   5.186  12.177  0.0718  0.4979 -1.1161
21387SOL    HW274092   2.610   5.153  12.059  0.6902 -2.0816 -0.0101
21388SOL     OW74093  11.632   1.714   2.620  0.2092  0.1152 -0.0198
21388SOL    HW174094  11.692   1.757   2.559 -0.2788 -3.1609 -3.1154
21388SOL    HW274095  11.546   1.751   2.600  0.2130 -0.1518 -0.5357
21389SOL     OW74096   4.348  13.152   4.642 -0.2243  0.0202 -0.5177
21389SOL    HW174097   4.435  13.142   4.604 -0.1142 -0.8888 -0.0488
21389SOL    HW274098   4.288  13.140   4.567 -0.0068 -1.6959 -0.4641
21390SOL     OW74099   6.309  11.385   1.772 -0.0811  0.0668  0.1935
21390SOL    HW174100   6.237  11.349   1.720 -0.2522  0.2085  0.3306
21390SOL    HW274101   6.271  11.461   1.816 -0.1482 -0.4598  1.0894
21391SOL     OW74102   2.084   7.760   3.885 -0.3883  0.0648  0.4140
21391SOL    HW174103   1.994   7.779   3.915 -0.3895 -0.6868  0.8892
21391SOL    HW274104   2.116   7.693   3.944  0.8043  0.9116  0.7735
21392SOL     OW74105   3.917   3.111   2.269 -0.0368 -0.0345  0.1620
21392SOL    HW174106   4.010   3.091   2.255 -0.3858 -2.9434  1.4760
21392SOL    HW274107   3.873   3.071   2.194 -0.3106  0.9954 -0.2465
21393SOL     OW74108   3.778   7.554   3.605  0.1956  0.1170  0.2700
21393SOL    HW174109   3.741   7.569   3.691 -0.7498  0.5011 -0.1892
21393SOL    HW274110   3.776   7.639   3.562 -0.8240 -0.3580 -0.6814
21394SOL     OW74111  11.568   6.803   0.811  0.3202  0.5451 -0.0782
21394SOL    HW174112  11.598   6.888   0.779  0.6516 -0.1137 -1.5839
21394SOL    HW274113  11.478   6.796   0.780  0.7165 -0.1945 -1.1228
21395SOL     OW74114  12.022  11.061   2.969 -0.0492  0.0852 -0.3160
21395SOL    HW174115  11.961  11.069   3.042  0.3097  1.5292 -0.1386
21395SOL    HW274116  12.095  11.119   2.992 -0.0915  0.8544 -1.9551
21396SOL     OW74117  11.516   8.130   1.490  0.5130  0.5620 -0.4755
21396SOL    HW174118  11.567   8.210   1.500  0.3129  0.7465 -0.8978
21396SOL    HW274119  11.540   8.096   1.404 -0.7487  1.1559 -1.0958
21397SOL     OW74120   2.407   6.500   8.279 -0.5359  0.2233 -0.2854
21397SOL    HW174121   2.436   6.438   8.345  1.9033 -0.2307 -1.6696
21397SOL    HW274122   2.441   6.585   8.308 -0.1049  0.1475 -0.5527
21398SOL     OW74123   3.305   5.544   2.605  0.0676 -0.5363 -0.1536
21398SOL    HW174124   3.220   5.516   2.639  0.6794 -0.9355  1.1335
21398SOL    HW274125   3.286   5.583   2.520 -1.5261  0.2409  0.5166
21399SOL     OW74126   1.824   2.498   1.733  0.4968  0.3101  0.0364
21399SOL    HW174127   1.871   2.419   1.704 -0.7727 -0.3256 -0.3629
21399SOL    HW274128   1.792   2.476   1.820 -0.6583 -0.0108 -0.4400
21400SOL     OW74129  10.064   7.579   1.584  0.2901  0.4922  0.7887
21400SOL    HW174130  10.132   7.520   1.616  1.0669  1.5995  1.2110
21400SOL    HW274131  10.018   7.607   1.663 -1.1211 -0.7463  0.4668
21401SOL     OW74132   7.466   9.888  11.888  0.0889  0.1257  0.1428
21401SOL    HW174133   7.550   9.873  11.931  1.0302  3.3150 -0.2714
21401SOL    HW274134   7.484   9.876  11.795 -0.1996 -0.2699  0.1379
21402SOL     OW74135  12.871  11.012  10.647 -0.1593 -0.0701 -0.1022
21402SOL    HW174136  12.854  10.958  10.570 -1.7039 -0.6532  0.5911
21402SOL    HW274137  12.965  11.031  10.644 -0.4020  1.1149 -2.8625
21403SOL     OW74138   2.527   0.713  13.064 -0.4279 -0.8966 -0.3567
21403SOL    HW174139   2.455   0.770  13.035 -0.7791  0.5428  2.9399
21403SOL    HW274140   2.484   0.630  13.087 -0.8100 -0.5649  0.1454
21404SOL     OW74141   7.767   0.854   6.288 -0.2790  0.0944  0.5013
21404SOL    HW174142   7.842   0.821   6.238  0.3522  0.0170  1.4765
21404SOL    HW274143   7.806   0.908   6.357 -1.1786  0.8649  0.4303
21405SOL     OW74144  10.353   3.466   4.159  0.6335  0.1116  0.5922
21405SOL    HW174145  10.371   3.468   4.253  0.6258  0.3994  0.5894
21405SOL    HW274146  10.420   3.523   4.121  1.1561 -0.6587  0.3342
21406SOL     OW74147   6.242   6.093   8.770  0.3031 -0.1676  0.4395
21406SOL    HW174148   6.285   6.137   8.697 -1.3741  1.0854  0.1414
21406SOL    HW274149   6.246   6.156   8.842  0.0697 -0.5291  0.7747
21407SOL     OW74150   4.040   5.961   1.671 -0.1419  0.1061 -0.0135
21407SOL    HW174151   4.073   5.964   1.761 -2.4093  0.2687  0.8753
21407SOL    HW274152   4.043   5.869   1.647  2.4633  0.2697 -0.6357
21408SOL     OW74153   2.936  11.438   7.134 -0.1210  0.2571 -0.1895
21408SOL    HW174154   2.871  11.370   7.152 -0.1505  0.2672 -0.2606
21408SOL    HW274155   3.019  11.391   7.125 -0.2731  0.1464 -1.0458
21409SOL     OW74156   3.622  10.276   1.685  0.4547 -0.0492  0.0631
21409SOL    HW174157   3.641  10.187   1.657  1.1081 -0.6189  2.1476
21409SOL    HW274158   3.615  10.271   1.781  1.0766  2.2303  0.2941
21410SOL     OW74159   5.715   1.200   1.551  0.0155  0.2553  0.8933
21410SOL    HW174160   5.723   1.106   1.566  0.7066  0.2609  0.6019
21410SOL    HW274161   5.792   1.223   1.499  0.4651  1.1782  1.9124
21411SOL     OW74162  10.520   7.416   6.911 -0.1127  0.0963 -0.4317
21411SOL    HW174163  10.516   7.504   6.875 -1.6513  0.1255 -0.2723
21411SOL    HW274164  10.429   7.395   6.933  0.1522 -1.7242 -0.9176
21412SOL     OW74165  12.597   7.291   8.305 -0.5917 -0.4727  0.3787
21412SOL    HW174166  12.577   7.385   8.298 -1.2061 -0.6542 -0.6761
21412SOL    HW274167  12.676   7.287   8.357  0.8507  0.8165 -1.5589
21413SOL     OW74168   7.507   9.710   5.900  1.1087  0.2085 -1.0846
21413SOL    HW174169   7.597   9.687   5.879  1.4611  1.8488 -1.4704
21413SOL    HW274170   7.490   9.791   5.851  0.5723  1.8535  1.6180
21414SOL     OW74171   6.703   2.464  11.953  0.5120 -0.4076 -0.3118
21414SOL    HW174172   6.706   2.504  12.039 -0.2982  0.7969 -0.8222
21414SOL    HW274173   6.653   2.525  11.899 -1.4593 -2.4499 -0.9590
21415SOL     OW74174   5.993  11.730   3.147  0.8686  0.3099 -0.0235
21415SOL    HW174175   6.038  11.754   3.228  1.1363 -0.8646  0.1935
21415SOL    HW274176   6.061  11.736   3.079  0.6465  1.2852 -0.1814
21416SOL     OW74177  11.015   0.660  10.106  0.0064 -0.1266 -0.0216
21416SOL    HW174178  11.052   0.681  10.191  0.7024 -0.5574 -0.2071
21416SOL    HW274179  10.973   0.741  10.077  3.1711  1.3365 -1.0189
21417SOL     OW74180  10.587   6.521   1.495 -0.0824  0.1557 -0.1473
21417SOL    HW174181  10.533   6.447   1.467  0.6081 -0.2755 -0.3569
21417SOL    HW274182  10.676   6.487   1.497  0.2499  0.9861 -0.2631
21418SOL     OW74183  13.035  11.321  13.287  0.3261  0.2937 -0.0822
21418SOL    HW174184  13.065  11.285  13.204  0.1644 -1.5992  0.6481
21418SOL    HW274185  12.966  11.384  13.263  0.4605 -0.0402 -1.3745
21419SOL     OW74186  11.009  11.529  12.652  0.0438  0.5858  0.3110
21419SOL    HW174187  11.015  11.481  12.569 -0.5048  1.1169 -0.0429
21419SOL    HW274188  10.934  11.489  12.697  1.0914 -0.5400  1.1169
21420SOL     OW74189  12.591   3.954  12.575 -0.1819  0.2540  0.0726
21420SOL    HW174190  12.602   4.011  12.498  0.4640  1.3170  0.9234
21420SOL    HW274191  12.539   4.006  12.636  0.2552 -0.1408  0.7920
21421SOL     OW74192   1.408   4.246  10.448  0.3330  0.1817  0.4000
21421SOL    HW174193   1.429   4.235  10.355  0.0454 -0.8023  0.4292
21421SOL    HW274194   1.348   4.173  10.467  0.2795  0.4530  1.3219
21422SOL     OW74195   8.976  12.086   5.735 -0.2457 -0.2415 -0.0539
21422SOL    HW174196   8.919  12.150   5.778  0.8220  0.1739  0.7963
21422SOL    HW274197   8.975  12.111   5.643 -2.7859 -1.2909 -0.3980
21423SOL     OW74198  12.530   9.279   2.430 -0.5752  0.0356 -0.1480
21423SOL    HW174199  12.600   9.240   2.483 -0.6914  1.8437  1.4577
21423SOL    HW274200  12.452   9.274   2.485 -1.7410 -1.7483 -1.8280
21424SOL     OW74201   3.293  10.176   7.764 -0.2345  0.0351  0.1725
21424SOL    HW174202   3.227  10.244   7.781 -0.4312 -0.0729 -0.1374
21424SOL    HW274203   3.272  10.144   7.676 -1.2735 -1.7065  1.0006
21425SOL     OW74204   1.747  10.883   8.567 -0.2988  0.2018  0.4601
21425SOL    HW174205   1.842  10.880   8.561 -0.2710  1.6977 -0.1746
21425SOL    HW274206   1.716  10.847   8.484 -0.2162  1.7938 -0.3081
21426SOL     OW74207   8.825   5.219   5.544  0.5767  1.0322  0.4818
21426SOL    HW174208   8.766   5.196   5.472 -2.5176  2.1616  2.4324
21426SOL    HW274209   8.850   5.135   5.583  0.7009  0.5099 -0.6799
21427SOL     OW74210   6.800  10.252   0.719  1.1288 -0.8358 -0.2603
21427SOL    HW174211   6.842  10.284   0.799 -1.1310  1.1627  0.2295
21427SOL    HW274212   6.755  10.172   0.746  1.0765 -0.6328  0.2772
21428SOL     OW74213   8.860  12.585   0.182  0.0443  0.7484  0.1263
21428SOL    HW174214   8.824  12.564   0.096 -0.7204 -0.4204  0.7091
21428SOL    HW274215   8.816  12.666   0.208 -1.5090 -0.1520  0.4192
21429SOL     OW74216   9.878   4.334  11.104 -0.5598 -0.4572  0.5930
21429SOL    HW174217   9.894   4.360  11.195  1.3408 -0.9360  0.4492
21429SOL    HW274218   9.858   4.240  11.110  0.9803 -0.8185  0.4317
21430SOL     OW74219  10.499   1.264   3.119  0.2489  0.1658 -0.0185
21430SOL    HW174220  10.537   1.179   3.138 -0.4797 -0.3495 -0.7853
21430SOL    HW274221  10.574   1.323   3.110  0.7686 -0.4568  0.2069
21431SOL     OW74222   7.953   5.926  12.746 -0.0090 -0.2584  0.3262
21431SOL    HW174223   7.931   5.949  12.656 -1.1184 -0.3620  0.5637
21431SOL    HW274224   8.036   5.878  12.739 -0.3909 -0.7812 -0.6990
21432SOL     OW74225   9.223   2.251   4.820  0.5482 -0.5484  0.2585
21432SOL    HW174226   9.128   2.238   4.825  0.3252  0.6152 -0.4705
21432SOL    HW274227   9.233   2.329   4.765  1.9592 -1.0929 -0.2964
21433SOL     OW74228   7.939   6.203   8.556  0.8836  0.0230  0.7484
21433SOL    HW174229   7.939   6.113   8.589 -1.0067  0.0452  0.9164
21433SOL    HW274230   7.846   6.224   8.543  1.3531  1.5046 -0.5301
21434SOL     OW74231   1.560   9.117  13.309 -0.2229  0.0569  0.5252
21434SOL    HW174232   1.590   9.055  13.243  0.3656  0.3918  0.4650
21434SOL    HW274233   1.631   9.182  13.315 -0.3700  0.1589  1.3155
21435SOL     OW74234   4.411   9.627   0.060 -0.1920 -0.1796 -0.1154
21435SOL    HW174235   4.372   9.604  -0.025  0.9371 -0.8673 -0.4648
21435SOL    HW274236   4.357   9.581   0.124 -0.0546 -1.0125 -0.5807
21436SOL     OW74237   9.806   9.075   6.568  0.2732  0.3806 -0.2888
21436SOL    HW174238   9.801   9.171   6.573  0.5262  0.3281  1.7453
21436SOL    HW274239   9.716   9.047   6.549  0.2297  1.0081 -1.0741
21437SOL     OW74240   5.855   7.859   4.121  0.3188 -0.3483 -0.4355
21437SOL    HW174241   5.871   7.844   4.214  0.4002  0.1340 -0.3710
21437SOL    HW274242   5.866   7.953   4.109 -1.0155 -0.2007 -0.6717
21438SOL     OW74243   5.204   1.842   0.120 -0.2411 -0.3530  0.0005
21438SOL    HW174244   5.249   1.924   0.101  1.2821 -1.2253 -0.2629
21438SOL    HW274245   5.270   1.786   0.160 -1.0495 -1.7188 -0.4875
21439SOL     OW74246   0.817  12.425  12.635  0.3299  0.2063  0.0312
21439SOL    HW174247   0.730  12.390  12.653 -0.0237 -0.0443 -1.9772
21439SOL    HW274248   0.845  12.463  12.719 -2.9991  3.1424  0.0541
21440SOL     OW74249   8.019   6.699   5.296 -0.3691 -0.2338 -0.2463
21440SOL    HW174250   7.990   6.763   5.360 -3.2279 -0.5896 -1.0508
21440SOL    HW274251   8.059   6.751   5.226 -1.2749  0.5519 -0.1962
21441SOL     OW74252   1.053   6.532  10.895 -0.0817  0.1355  0.6005
21441SOL    HW174253   1.017   6.620  10.885  0.9335  0.4219 -0.7950
21441SOL    HW274254   1.072   6.525  10.989  1.4567  2.0899  0.4929
21442SOL     OW74255   2.434   7.605   9.255 -0.4728 -0.4978  0.0215
21442SOL    HW174256   2.495   7.561   9.195 -0.4768 -1.4426  0.6857
21442SOL    HW274257   2.417   7.540   9.323  1.6826  1.4033  2.5824
21443SOL     OW74258  12.610  10.206   2.881  0.0246 -0.0255 -0.4215
21443SOL    HW174259  12.644  10.226   2.969 -0.2957 -0.1456 -0.2673
21443SOL    HW274260  12.531  10.155   2.898 -0.0393 -0.0438 -0.7830
21444SOL     OW74261  10.321  10.845   1.602  0.3413 -0.1236 -0.1729
21444SOL    HW174262  10.274  10.762   1.590 -1.7447  0.9663 -0.1142
21444SOL    HW274263  10.404  10.821   1.641 -0.1221 -2.1999 -0.3589
21445SOL     OW74264  11.987   4.017   9.990 -0.5979 -0.4104  0.4892
21445SOL    HW174265  11.969   4.093   9.934  1.4003 -0.3528 -0.1321
21445SOL    HW274266  11.961   4.046  10.078 -0.1492  0.9112  0.2085
21446SOL     OW74267   0.720   3.785   7.992 -0.6456  0.4951 -0.2810
21446SOL    HW174268   0.693   3.876   7.978 -1.3058  0.3082 -0.2442
21446SOL    HW274269   0.761   3.785   8.078 -1.2438  0.6263  0.0041
21447SOL     OW74270  10.272  13.080   6.709  0.5603 -0.6170  0.3966
21447SOL    HW174271  10.300  12.989   6.698  1.6512 -0.2700  0.1857
21447SOL    HW274272  10.287  13.120   6.623  1.3051  0.0695  0.8304
21448SOL     OW74273  12.831   4.373  11.913 -0.2237 -0.5061  0.8519
21448SOL    HW174274  12.750   4.328  11.889  0.0458 -1.6921  2.0470
21448SOL    HW274275  12.892   4.302  11.934  1.7825  0.2685 -1.8679
21449SOL     OW74276  12.681   8.611  10.658 -0.9890  0.2791  0.4283
21449SOL    HW174277  12.588   8.591  10.663 -1.1344  0.0659 -1.8376
21449SOL    HW274278  12.704   8.595  10.566  0.9785  1.6434  0.6112
21450SOL     OW74279   6.248   6.271  13.165  0.4992 -0.1949  0.4367
21450SOL    HW174280   6.259   6.175  13.163  1.7117 -0.1000  1.4131
21450SOL    HW274281   6.328   6.304  13.124 -0.6013  0.4066 -1.3375
21451SOL     OW74282   1.953   2.171   4.334 -0.2191  0.2102 -0.7329
21451SOL    HW174283   1.961   2.097   4.394  1.6276  1.7576  1.1028
21451SOL    HW274284   1.983   2.137   4.249  1.3564 -0.9695  0.2411
21452SOL     OW74285  11.108   2.425   7.275 -0.4054  0.0442  0.4108
21452SOL    HW174286  11.071   2.501   7.319  1.1251  0.9930  0.1104
21452SOL    HW274287  11.031   2.379   7.240 -1.3812  1.2701  0.8479
21453SOL     OW74288   0.395   7.927   6.758  0.0930  0.0889  0.1184
21453SOL    HW174289   0.379   7.977   6.839 -1.0581  0.8640 -0.5638
21453SOL    HW274290   0.342   7.848   6.768 -1.3812  0.9435 -0.5434
21454SOL     OW74291   8.356   8.437  12.874  0.3672 -0.1187  1.2033
21454SOL    HW174292   8.309   8.492  12.936  1.4330  0.7842  1.2493
21454SOL    HW274293   8.357   8.488  12.793 -2.0526 -1.7826  0.0054
21455SOL     OW74294  11.072  12.481   6.231 -0.6516 -0.0147  0.1338
21455SOL    HW174295  11.133  12.408   6.233 -0.6414  0.0040  1.1537
21455SOL    HW274296  11.122  12.554   6.268 -0.6642  0.5075 -0.8712
21456SOL     OW74297   6.640   7.998   1.404  0.3891 -0.4734 -0.3126
21456SOL    HW174298   6.576   7.972   1.469 -0.3754  1.6725 -0.1169
21456SOL    HW274299   6.687   8.072   1.444  0.6903  0.1513 -1.7250
21457SOL     OW74300   6.423  12.215   8.507 -0.1762  0.2533  0.1141
21457SOL    HW174301   6.342  12.254   8.475 -1.1178 -1.4562  0.3556
21457SOL    HW274302   6.398  12.167   8.585  1.3318  0.7832  0.9822
21458SOL     OW74303   3.988   9.271   5.444 -0.4033 -0.0489  0.0969
21458SOL    HW174304   3.989   9.340   5.511 -0.5389  1.0089 -0.9372
21458SOL    HW274305   3.901   9.279   5.404  0.1042  0.2015 -1.0187
21459SOL     OW74306  10.862   3.531   1.765 -0.0223 -0.1699 -0.3765
21459SOL    HW174307  10.879   3.618   1.731  1.1546 -0.2159  0.0569
21459SOL    HW274308  10.947   3.499   1.794 -0.2983 -1.7388 -1.1680
21460SOL     OW74309  10.386  11.418   6.044  0.3995 -0.1468  0.5681
21460SOL    HW174310  10.324  11.409   6.117 -0.6061  0.0779 -0.2299
21460SOL    HW274311  10.365  11.345   5.986 -0.3895  0.9770 -0.6108
21461SOL     OW74312   7.680   4.395   0.828 -0.3597  0.1559  0.5929
21461SOL    HW174313   7.593   4.433   0.815 -0.5926 -0.8240 -0.8337
21461SOL    HW274314   7.702   4.418   0.919 -1.6118  1.3753  0.6258
21462SOL     OW74315   5.315   3.836   4.363 -0.7166 -0.3711 -0.6243
21462SOL    HW174316   5.266   3.754   4.373 -0.6303 -0.4714 -1.0119
21462SOL    HW274317   5.314   3.875   4.451 -1.2902 -0.4826 -0.5730
21463SOL     OW74318   2.064  10.362   3.657  0.0686  0.2287 -0.1148
21463SOL    HW174319   2.132  10.353   3.724  0.7300 -0.1823 -0.8107
21463SOL    HW274320   2.033  10.452   3.666 -0.7142 -0.1682  1.5137
21464SOL     OW74321  12.474   6.769  11.179 -0.2067 -0.9370 -0.2671
21464SOL    HW174322  12.398   6.713  11.163 -0.8286 -0.6004  1.3102
21464SOL    HW274323  12.481   6.773  11.274  0.4252  0.8814 -0.3547
21465SOL     OW74324   5.341   1.267  12.182 -0.2239 -0.1611 -0.2638
21465SOL    HW174325   5.313   1.311  12.262  0.0603  1.1013 -0.8251
21465SOL    HW274326   5.316   1.176  12.194  0.3770 -0.1268  1.5135
21466SOL     OW74327   3.551  10.996   4.684  0.2219 -0.4870 -0.4397
21466SOL    HW174328   3.513  11.026   4.601 -1.4898 -2.3768 -0.4063
21466SOL    HW274329   3.497  10.922   4.710  2.0683 -1.3226  1.2847
21467SOL     OW74330   3.952   6.566   3.882 -0.2359  0.5876 -0.3175
21467SOL    HW174331   3.970   6.472   3.889  1.4912  0.8809 -0.4189
21467SOL    HW274332   3.971   6.600   3.969  0.0942  0.9729 -0.5362
21468SOL     OW74333   5.987   8.549   0.224  0.3952 -0.2724 -0.0245
21468SOL    HW174334   6.027   8.536   0.138  0.6799 -0.7546  0.1783
21468SOL    HW274335   5.982   8.644   0.234 -3.8538  0.0191 -2.5405
21469SOL     OW74336   9.724   9.167   8.144  0.0353 -0.8920  0.3996
21469SOL    HW174337   9.632   9.192   8.137  0.2500 -0.3421 -0.7368
21469SOL    HW274338   9.765   9.238   8.194  0.0312 -0.5954 -0.0111
21470SOL     OW74339   9.352   2.270  11.436 -0.1428  0.1988 -0.4777
21470SOL    HW174340   9.259   2.281  11.414 -0.3881  2.3052  1.2860
21470SOL    HW274341   9.398   2.325  11.373  0.2426 -2.6936 -2.9410
21471SOL     OW74342   3.123   1.943   6.001  0.4121  0.0555 -0.2582
21471SOL    HW174343   3.068   1.930   5.925 -1.4707  1.2621  0.8151
21471SOL    HW274344   3.164   2.028   5.987  0.9031 -0.1999 -0.3982
21472SOL     OW74345  12.419   9.997   8.101 -0.1168  0.5402  0.0330
21472SOL    HW174346  12.513  10.013   8.102  0.0039  0.1361 -1.9364
21472SOL    HW274347  12.388  10.041   8.022 -1.5833  0.6188  0.6212
21473SOL     OW74348   0.146   4.043   0.899  0.1394 -0.4116  0.1093
21473SOL    HW174349   0.184   4.119   0.942 -0.0653 -0.3690  0.2140
21473SOL    HW274350   0.109   3.991   0.971  1.8073 -1.4840  0.2426
21474SOL     OW74351   7.189   3.416   0.074  0.4403 -0.0878  0.2077
21474SOL    HW174352   7.211   3.509   0.066 -0.4859  0.3421  2.0909
21474SOL    HW274353   7.141   3.396  -0.007  0.7940  1.0083 -0.2928
21475SOL     OW74354   2.587   0.362   6.665  0.1687  0.1521 -0.1271
21475SOL    HW174355   2.501   0.367   6.624 -0.8100 -1.1004  1.6317
21475SOL    HW274356   2.571   0.377   6.758  2.0652  1.2082  0.0969
21476SOL     OW74357   9.178   9.437   9.937  0.0653  0.2208 -0.5087
21476SOL    HW174358   9.166   9.502  10.006  1.8773  0.0591  0.0153
21476SOL    HW274359   9.225   9.484   9.868 -0.7849  0.0950 -1.1857
21477SOL     OW74360   5.758  10.101   0.748  0.0770  0.3642  0.2777
21477SOL    HW174361   5.825  10.033   0.751  0.3204  0.5591 -0.4977
21477SOL    HW274362   5.691  10.071   0.810 -1.3677 -2.2507 -2.3008
21478SOL     OW74363   4.146  10.172   6.645  0.4380 -0.3405 -0.0884
21478SOL    HW174364   4.160  10.230   6.570  0.1801 -2.0688 -1.5340
21478SOL    HW274365   4.117  10.230   6.716  1.6005  1.4533 -1.0400
21479SOL     OW74366  10.971   2.725   6.937  0.8086  0.2649 -0.7334
21479SOL    HW174367  11.018   2.807   6.926 -2.5649  2.6661  1.0039
21479SOL    HW274368  10.906   2.725   6.867 -0.7480  0.3094  0.6620
21480SOL     OW74369  11.657   0.500   9.627 -0.4314 -0.6446  0.4708
21480SOL    HW174370  11.694   0.544   9.550  1.5279  0.7417  2.0777
21480SOL    HW274371  11.599   0.565   9.666 -0.6626 -0.9751  0.6827
21481SOL     OW74372   3.005   1.673   2.010 -0.2496 -0.1954 -0.1796
21481SOL    HW174373   2.922   1.707   1.977 -0.7914 -0.4873  0.8324
21481SOL    HW274374   3.018   1.591   1.963 -0.3434  0.0424 -0.6186
21482SOL     OW74375   5.240   5.282   5.032 -0.5511 -0.2137 -0.1484
21482SOL    HW174376   5.253   5.377   5.036 -0.0019 -0.2213 -1.4904
21482SOL    HW274377   5.308   5.246   5.089 -0.4028  0.1737 -0.0812
21483SOL     OW74378   1.360   2.571   5.198 -0.0682 -0.4941  0.3125
21483SOL    HW174379   1.296   2.503   5.179 -0.2781  0.1615 -1.5477
21483SOL    HW274380   1.308   2.650   5.212  0.2464 -0.3688  0.7911
21484SOL     OW74381   1.312   0.831   7.723 -0.2353  0.6325 -0.2990
21484SOL    HW174382   1.226   0.828   7.681 -1.0032  0.7229  1.2198
21484SOL    HW274383   1.294   0.856   7.813  1.3154 -0.1022  0.2436
21485SOL     OW74384  12.400   3.004   4.932  0.0127 -0.8902 -0.0809
21485SOL    HW174385  12.427   2.932   4.875 -0.5164 -1.1538 -0.0039
21485SOL    HW274386  12.449   2.990   5.013  0.5074 -0.7088 -0.3415
21486SOL     OW74387   5.775  12.642  12.200 -0.2905 -0.3037  0.8143
21486SOL    HW174388   5.772  12.584  12.123 -1.3582  0.8895 -0.0966
21486SOL    HW274389   5.795  12.584  12.273  1.1289 -1.4325 -0.4011
21487SOL     OW74390   0.918   0.458   1.102 -0.1458 -0.2671  0.6512
21487SOL    HW174391   0.985   0.392   1.115 -0.4605 -1.3182 -2.2553
21487SOL    HW274392   0.937   0.495   1.015 -2.2565  0.6371  0.5020
21488SOL     OW74393  10.784   0.971   4.199 -0.1626 -0.3061 -0.2366
21488SOL    HW174394  10.777   1.024   4.119 -0.4800  0.3770  0.2248
21488SOL    HW274395  10.852   1.014   4.250  0.9828 -1.5154 -0.6902
21489SOL     OW74396  12.760   3.178   7.190 -0.0002 -0.0245 -0.8349
21489SOL    HW174397  12.759   3.142   7.101  1.5036 -1.0925 -0.4385
21489SOL    HW274398  12.721   3.109   7.244 -1.9939  1.0709 -0.7754
21490SOL     OW74399   6.173  12.360   4.457  0.0849 -0.3365 -0.0645
21490SOL    HW174400   6.219  12.279   4.438  0.8048 -0.3587  1.5917
21490SOL    HW274401   6.126  12.342   4.539 -1.4800  0.2496 -0.7897
21491SOL     OW74402   0.722   3.472   1.059  0.0135  0.2927  0.6965
21491SOL    HW174403   0.753   3.388   1.093 -2.7411 -1.1532 -0.0697
21491SOL    HW274404   0.699   3.522   1.138 -0.0973 -0.4273  1.1357
21492SOL     OW74405   5.134   1.654   8.391  0.8680  0.3114  0.1883
21492SOL    HW174406   5.073   1.580   8.394  1.6806 -0.3376  0.9775
21492SOL    HW274407   5.083   1.728   8.425  0.1296  0.0791 -0.3747
21493SOL     OW74408  13.024   8.914   4.402  0.1705 -0.0463 -0.0529
21493SOL    HW174409  12.997   8.830   4.365  0.4280  0.2564 -0.9705
21493SOL    HW274410  12.948   8.946   4.451  0.4325 -1.3122  1.2464
21494SOL     OW74411   4.474   6.681  10.768  0.2786 -0.0646 -0.1598
21494SOL    HW174412   4.490   6.701  10.676  2.5969  0.1401  0.2294
21494SOL    HW274413   4.536   6.612  10.789 -0.9578 -0.8798  1.0132
21495SOL     OW74414   1.031   9.615  13.115 -0.0694 -0.1187 -0.1175
21495SOL    HW174415   1.126   9.611  13.106 -0.0674 -1.5243  0.3080
21495SOL    HW274416   1.005   9.526  13.138 -1.5802  0.0613 -1.0089
21496SOL     OW74417   6.022   6.399   0.623  0.1813 -0.2070 -0.2109
21496SOL    HW174418   5.995   6.311   0.596 -0.2148 -0.1938  0.1311
21496SOL    HW274419   5.940   6.448   0.629  0.4486  0.3599 -0.9924
21497SOL     OW74420   2.226  11.843   4.911 -0.2722  0.3460  0.5797
21497SOL    HW174421   2.207  11.859   4.818  0.2211  0.7698  0.5490
21497SOL    HW274422   2.165  11.900   4.958 -0.4698  0.1895  0.5132
21498SOL     OW74423   1.597   8.124   0.622 -0.2485 -0.2950 -0.0891
21498SOL    HW174424   1.520   8.092   0.575 -0.3939 -0.8310  0.4862
21498SOL    HW274425   1.669   8.072   0.587  0.5536  2.6154 -3.2279
21499SOL     OW74426   2.657   9.839   1.143  0.6955  0.1492  0.4927
21499SOL    HW174427   2.665   9.803   1.231 -1.3295  1.7358  1.4168
21499SOL    HW274428   2.566   9.871   1.138  0.9733  0.8004 -1.8975
21500SOL     OW74429   3.190   7.407   6.332  0.1744  0.1791  0.1382
21500SOL    HW174430   3.210   7.334   6.274  0.0057  0.7570 -0.6697
21500SOL    HW274431   3.101   7.432   6.310  0.0039  0.2325  0.8515
21501SOL     OW74432   5.055   6.167   0.226 -0.7712 -0.1735 -0.2258
21501SOL    HW174433   5.107   6.135   0.299 -0.3562 -0.9266 -0.8420
21501SOL    HW274434   5.099   6.248   0.198  0.4626 -1.1246 -1.1423
21502SOL     OW74435   8.162   6.003   0.040  0.0341 -0.1433 -0.0977
21502SOL    HW174436   8.114   5.985  -0.041  2.1599 -0.2653 -1.3822
21502SOL    HW274437   8.237   5.944   0.038  1.7657  1.9010  0.4583
21503SOL     OW74438  11.200   2.949   2.847 -0.1139 -0.1501  0.5480
21503SOL    HW174439  11.210   2.863   2.806  0.5531 -0.2733  0.9688
21503SOL    HW274440  11.138   2.995   2.790  0.8537 -0.2953 -0.6475
21504SOL     OW74441   7.480   7.064  11.213  0.5070 -0.0653 -0.0835
21504SOL    HW174442   7.456   7.065  11.305 -1.4648  0.3808 -0.5603
21504SOL    HW274443   7.488   7.156  11.188  1.2100 -0.1845 -0.3250
21505SOL     OW74444  11.134   8.629   3.490  0.3005  0.3478 -0.6580
21505SOL    HW174445  11.125   8.591   3.403 -0.8302 -1.7710  0.3207
21505SOL    HW274446  11.046   8.626   3.527  0.8315  0.8482  0.7142
21506SOL     OW74447   7.921  12.297  12.596  0.0002  0.0515 -0.4340
21506SOL    HW174448   7.913  12.203  12.612 -2.1368  0.2691  0.1102
21506SOL    HW274449   7.960  12.303  12.509 -1.3807 -1.3977 -1.2164
21507SOL     OW74450  12.383   6.017   2.231  0.1521  0.1334  0.4814
21507SOL    HW174451  12.386   5.923   2.212  0.9708  0.4042 -0.8443
21507SOL    HW274452  12.351   6.022   2.321  0.0942 -1.4129  0.5770
21508SOL     OW74453  10.000   6.982   2.054 -0.3781 -0.0332  0.0830
21508SOL    HW174454   9.931   6.933   2.099 -0.4746  0.5356  0.5532
21508SOL    HW274455   9.954   7.052   2.008 -0.2286 -0.3226 -0.5190
21509SOL     OW74456   2.472   2.527  13.022 -0.0843  0.3232  0.4114
21509SOL    HW174457   2.546   2.515  13.082 -0.2457 -2.5587  0.1695
21509SOL    HW274458   2.495   2.475  12.945 -1.0799  1.8188 -0.9697
21510SOL     OW74459   3.355  11.106   6.997 -0.5358 -0.7462 -0.3434
21510SOL    HW174460   3.282  11.114   6.936 -1.4410  0.0832  0.7909
21510SOL    HW274461   3.313  11.091   7.082  0.6107 -0.3627  0.3079
21511SOL     OW74462   3.232   1.058  12.594 -0.8181  0.3227  0.3622
21511SOL    HW174463   3.151   1.102  12.619 -1.3737 -0.6169  0.2798
21511SOL    HW274464   3.213   0.965  12.605 -0.0391  0.0393 -0.5027
21512SOL     OW74465   0.651  11.499   4.004  0.0411 -0.3502 -0.1443
21512SOL    HW174466   0.641  11.417   4.053  1.9836 -0.9242 -0.6292
21512SOL    HW274467   0.737  11.492   3.963 -0.1147  1.5857 -0.8949
21513SOL     OW74468   0.641  12.073  12.277 -0.0703 -0.0235  0.5079
21513SOL    HW174469   0.713  12.102  12.334  0.1725 -0.7069  0.5657
21513SOL    HW274470   0.640  11.978  12.287 -1.5891  0.0415  1.2126
21514SOL     OW74471   0.800   6.179   9.100 -0.4276  0.3431  0.3580
21514SOL    HW174472   0.865   6.113   9.128 -0.2993 -0.5865 -1.9598
21514SOL    HW274473   0.778   6.226   9.181  0.4013 -1.7244  1.8724
21515SOL     OW74474  10.691  11.170  11.105  0.4984 -0.4328 -0.2821
21515SOL    HW174475  10.624  11.197  11.042 -0.0916 -2.9127 -0.8016
21515SOL    HW274476  10.767  11.224  11.083  0.0475 -0.6390 -2.5881
21516SOL     OW74477   6.678   0.826  11.538  0.6324 -0.1681 -0.6494
21516SOL    HW174478   6.652   0.791  11.623  1.5144 -1.4574 -0.8700
21516SOL    HW274479   6.647   0.761  11.475  1.6409 -0.1799 -1.1481
21517SOL     OW74480   2.671   2.832   6.459  0.4399  0.5534 -0.0587
21517SOL    HW174481   2.582   2.867   6.450  0.1877 -0.0216  0.1428
21517SOL    HW274482   2.664   2.766   6.528  1.0409  0.5544  0.0090
21518SOL     OW74483   2.877  12.600   1.538  0.4386 -0.7151 -0.0214
21518SOL    HW174484   2.944  12.622   1.473  0.2134 -1.4008 -0.4860
21518SOL    HW274485   2.911  12.522   1.582  0.6343 -0.2055  0.7580
21519SOL     OW74486   2.696  12.792  10.826  0.3347 -0.0400  0.4512
21519SOL    HW174487   2.687  12.700  10.800 -1.8836  0.5902 -1.3242
21519SOL    HW274488   2.655  12.798  10.912  0.7865 -0.7636  0.7199
21520SOL     OW74489   4.345   2.014   0.414 -0.0535 -0.0258 -0.3939
21520SOL    HW174490   4.397   2.066   0.476 -0.0636 -0.5206  0.0345
21520SOL    HW274491   4.354   1.924   0.444 -3.4224  0.0935  1.4387
21521SOL     OW74492   6.902   8.656   2.971  0.0099  0.7015 -0.1705
21521SOL    HW174493   6.824   8.634   2.921  1.0995 -0.6259 -1.3700
21521SOL    HW274494   6.888   8.616   3.057 -0.5601  0.3529 -0.4261
21522SOL     OW74495   6.572  10.369  12.041  0.1785 -0.3579  0.3731
21522SOL    HW174496   6.546  10.460  12.026  0.3773 -0.4610 -0.6533
21522SOL    HW274497   6.565  10.358  12.136 -1.4594  0.2408  0.3613
21523SOL     OW74498   5.099   9.160   4.505  0.5336  0.1003  0.1693
21523SOL    HW174499   5.067   9.140   4.417 -0.9429  1.9008  0.2334
21523SOL    HW274500   5.088   9.255   4.513  2.2798  0.2251  1.6854
21524SOL     OW74501   3.067   1.385   4.033  0.0164 -0.5946 -0.0459
21524SOL    HW174502   3.138   1.395   4.096  1.1108 -1.1428 -1.1531
21524SOL    HW274503   3.055   1.290   4.025 -1.7473 -0.5114  1.0832
21525SOL     OW74504   6.637  13.155   1.705  0.3724 -0.7368  0.4892
21525SOL    HW174505   6.585  13.157   1.624 -0.1185 -1.6896  0.7659
21525SOL    HW274506   6.671  13.066   1.710  1.7178 -0.2446  0.5333
21526SOL     OW74507   2.175   5.435   9.432 -0.2921  0.3246  0.3102
21526SOL    HW174508   2.143   5.346   9.448 -1.6533  0.8293  0.5357
21526SOL    HW274509   2.097   5.483   9.404  0.9191  0.7894 -2.6058
21527SOL     OW74510   0.974   9.705  12.137  0.1682 -0.2293 -0.5643
21527SOL    HW174511   0.955   9.745  12.052  0.1473 -2.6245 -1.7700
21527SOL    HW274512   1.049   9.647  12.121  0.2906 -0.5959  1.1035
21528SOL     OW74513   2.206   2.102   8.862 -0.0249 -0.0711  0.3703
21528SOL    HW174514   2.266   2.171   8.838  0.4118 -1.1992 -2.0293
21528SOL    HW274515   2.122   2.146   8.878  0.4905  1.0856 -0.0812
21529SOL     OW74516   2.296  13.230  12.971  0.0659 -0.2527  0.0259
21529SOL    HW174517   2.388  13.248  12.949  0.1045  0.7927  0.9499
21529SOL    HW274518   2.291  13.134  12.974  1.0054 -0.3357 -0.5312
21530SOL     OW74519  10.247   3.635   6.558  0.2513  0.9056  0.4513
21530SOL    HW174520  10.320   3.597   6.508 -0.8846 -0.8544  0.0337
21530SOL    HW274521  10.176   3.571   6.549 -1.4395  2.6464  0.6477
21531SOL     OW74522   5.403   6.732   6.346 -0.1757  0.1478  0.4040
21531SOL    HW174523   5.347   6.758   6.273  0.5930  1.5688  0.2654
21531SOL    HW274524   5.344   6.693   6.410 -1.0312 -0.0587 -0.5034
21532SOL     OW74525   5.036   9.109  10.655 -0.1064  0.0997  0.7059
21532SOL    HW174526   5.013   9.193  10.694  0.5192 -0.4887  2.4295
21532SOL    HW274527   4.952   9.067  10.637 -0.4058  0.6468  0.8133
21533SOL     OW74528   1.117   1.698   2.922  0.1179 -0.1112  0.4196
21533SOL    HW174529   1.139   1.732   3.009 -0.5178  0.5145  0.3491
21533SOL    HW274530   1.159   1.612   2.918  0.9086  0.2421  0.9967
21534SOL     OW74531   8.395   8.768   9.653 -0.2455  0.4058  0.2302
21534SOL    HW174532   8.379   8.861   9.635 -0.8098  0.3465  0.3865
21534SOL    HW274533   8.310   8.726   9.639  0.3042 -0.3004 -1.0868
21535SOL     OW74534  11.781  13.157   6.755  0.1786 -0.3572 -0.8002
21535SOL    HW174535  11.824  13.073   6.766  0.5739 -0.2075 -1.1514
21535SOL    HW274536  11.823  13.215   6.818 -0.2458 -0.4772 -0.4051
21536SOL     OW74537   4.273   0.161  10.544 -0.2264 -0.2011 -0.5234
21536SOL    HW174538   4.228   0.148  10.627 -0.4582  0.9419 -0.4509
21536SOL    HW274539   4.276   0.074  10.503  0.8280 -0.9906  1.1379
21537SOL     OW74540   6.811   6.203   9.350 -0.6251  0.5374 -0.4157
21537SOL    HW174541   6.775   6.270   9.291 -2.5718 -0.7882 -0.8232
21537SOL    HW274542   6.851   6.139   9.292  0.7829  1.0310 -0.0466
21538SOL     OW74543   6.817  11.496  12.463 -0.2523  0.3156 -0.1503
21538SOL    HW174544   6.824  11.560  12.534 -2.5482 -0.1803  0.6144
21538SOL    HW274545   6.797  11.413  12.507  2.1387 -0.8987 -1.1665
21539SOL     OW74546   6.437  10.164   6.581  0.1568  0.7388 -0.0032
21539SOL    HW174547   6.456  10.154   6.674 -1.9690  0.1366  0.4406
21539SOL    HW274548   6.359  10.219   6.578 -0.1630  0.2641 -1.3903
21540SOL     OW74549   1.260   1.921   3.795 -0.6383 -0.3966 -1.0567
21540SOL    HW174550   1.267   1.952   3.885 -1.3378 -1.2027 -0.7161
21540SOL    HW274551   1.348   1.933   3.759  0.0213 -1.3611  0.1606
21541SOL     OW74552  11.415   3.623   4.647  0.3415 -0.2514 -0.1461
21541SOL    HW174553  11.489   3.683   4.654  1.4231 -1.6653  1.4612
21541SOL    HW274554  11.455   3.536   4.645 -1.2423 -1.0855  1.3555
21542SOL     OW74555   6.731   6.349   7.552 -0.1715  0.9910 -0.7916
21542SOL    HW174556   6.689   6.355   7.466 -0.5079  3.0417 -0.5414
21542SOL    HW274557   6.692   6.272   7.593  0.0477 -0.0623 -2.4762
21543SOL     OW74558  12.500  12.195   6.347 -0.0528 -0.0587 -0.1226
21543SOL    HW174559  12.513  12.233   6.434 -1.9397  1.1570 -0.3171
21543SOL    HW274560  12.531  12.105   6.356  0.8661  0.3696  1.4668
21544SOL     OW74561   2.780   7.662   6.128  0.3874  0.1512  0.9630
21544SOL    HW174562   2.706   7.658   6.190 -0.4399  2.5064  0.2434
21544SOL    HW274563   2.746   7.624   6.047  0.4884 -0.2092  1.0892
21545SOL     OW74564   5.826   9.226  12.606  0.8837  0.4145 -0.2798
21545SOL    HW174565   5.863   9.315  12.607  0.7351  0.4957 -1.3650
21545SOL    HW274566   5.767   9.224  12.681  1.2324  1.0866  0.0220
21546SOL     OW74567   3.081   6.394  12.785 -0.0468  0.2978 -0.4757
21546SOL    HW174568   3.050   6.485  12.786 -0.6960  0.1025 -1.4534
21546SOL    HW274569   3.019   6.348  12.841  0.4241  0.4905  0.2168
21547SOL     OW74570   6.766   8.287   4.417 -0.3968 -0.3349 -0.2982
21547SOL    HW174571   6.808   8.363   4.456 -1.6121  1.2308 -1.8898
21547SOL    HW274572   6.839   8.230   4.391  0.6288  1.1503 -0.7774
21548SOL     OW74573   1.747   7.781   5.867  0.0214  0.2251 -0.8880
21548SOL    HW174574   1.677   7.813   5.809 -1.4551  0.8561  1.1272
21548SOL    HW274575   1.817   7.846   5.859 -0.7509  1.0711 -0.9158
21549SOL     OW74576   3.313   4.839   0.933  0.2202  0.5773 -0.5048
21549SOL    HW174577   3.292   4.768   0.872 -0.2722  1.0359 -0.8748
21549SOL    HW274578   3.362   4.796   1.004 -3.8414 -1.0620  1.6526
21550SOL     OW74579  11.584   5.068   6.564 -0.2492 -0.1760 -0.2854
21550SOL    HW174580  11.611   5.077   6.656 -0.7757 -0.5059 -0.0913
21550SOL    HW274581  11.544   4.981   6.560 -0.3526 -0.1054 -0.7991
21551SOL     OW74582  11.413   6.902  10.507  0.5402 -0.1280 -0.1413
21551SOL    HW174583  11.343   6.957  10.543 -0.3064 -1.2780  0.0049
21551SOL    HW274584  11.369   6.845  10.444  1.5317 -0.1404 -0.8456
21552SOL     OW74585   6.466   3.718   0.774  0.3127 -0.4559 -0.3316
21552SOL    HW174586   6.514   3.738   0.694  1.1858 -0.2121  0.2428
21552SOL    HW274587   6.468   3.799   0.825 -0.4876 -0.5199 -0.1798
21553SOL     OW74588   3.728   4.881   9.189 -0.1367  0.3697 -0.0532
21553SOL    HW174589   3.698   4.965   9.224  0.2463  0.6220 -0.3290
21553SOL    HW274590   3.755   4.831   9.267  0.0536  0.6672  0.0739
21554SOL     OW74591   0.330   5.933   6.849 -0.3939 -0.1117 -0.0777
21554SOL    HW174592   0.259   5.954   6.910 -0.8385  0.4420 -0.7723
21554SOL    HW274593   0.409   5.966   6.893 -0.7754  0.7714 -0.0285
21555SOL     OW74594   4.385   6.360  10.046  0.4794  0.3158 -0.2688
21555SOL    HW174595   4.318   6.317  10.100 -0.3511  0.5414 -1.0818
21555SOL    HW274596   4.419   6.291   9.989  0.1834  0.4120 -0.5700
21556SOL     OW74597   0.839  10.091   2.227  0.1476  0.3550 -0.5594
21556SOL    HW174598   0.827  10.036   2.150 -1.4330  0.2227 -0.2608
21556SOL    HW274599   0.855  10.029   2.298 -0.7013  0.3019 -0.3941
21557SOL     OW74600   2.057   8.534   5.019  0.5652  0.4420 -0.0068
21557SOL    HW174601   2.109   8.456   5.001  0.1940  0.0328  0.6302
21557SOL    HW274602   2.112   8.607   4.991  0.7076 -0.0676 -1.1016
21558SOL     OW74603   7.398   6.965   0.446 -0.1828 -0.2033  0.1048
21558SOL    HW174604   7.324   6.915   0.411 -0.1590  0.0826 -0.3591
21558SOL    HW274605   7.475   6.927   0.404 -0.1962  0.4711 -0.5592
21559SOL     OW74606   1.331  12.978   2.564  0.0522  0.1707 -0.0773
21559SOL    HW174607   1.338  13.064   2.604 -0.8016  0.0369  0.3869
21559SOL    HW274608   1.277  12.928   2.625  0.0395 -0.5109 -0.6371
21560SOL     OW74609   3.960  12.889   3.053 -0.2598 -0.7002  0.2237
21560SOL    HW174610   3.894  12.941   3.098  1.2654  1.6462 -0.0529
21560SOL    HW274611   4.044  12.922   3.086  0.8450 -1.0735 -1.9751
21561SOL     OW74612   3.567   5.776  11.937 -0.0029 -0.4430  0.3079
21561SOL    HW174613   3.574   5.691  11.893 -2.4539 -0.7357  0.3334
21561SOL    HW274614   3.546   5.838  11.867 -1.3753 -0.4610  0.6740
21562SOL     OW74615   9.939  12.572   5.259  0.2684  0.6153 -0.0207
21562SOL    HW174616  10.007  12.512   5.228 -0.2260  0.4981 -0.9229
21562SOL    HW274617   9.894  12.525   5.329 -0.7140 -0.4803 -1.3331
21563SOL     OW74618   9.074  11.322   5.330  0.0561  0.2943  0.0020
21563SOL    HW174619   9.097  11.414   5.313 -1.4126  1.1053  1.9583
21563SOL    HW274620   9.147  11.289   5.382  0.9296  0.1030 -1.3033
21564SOL     OW74621   6.470   5.211   2.920  1.1726 -0.1934 -0.2584
21564SOL    HW174622   6.518   5.219   2.838 -2.2551  0.2215 -2.4585
21564SOL    HW274623   6.430   5.297   2.932  0.2750 -0.7448  0.9288
21565SOL     OW74624   1.610   2.648   8.770 -0.1380 -0.3124 -0.4752
21565SOL    HW174625   1.692   2.690   8.743 -0.4443  2.0429  1.8672
21565SOL    HW274626   1.638   2.571   8.819  0.6581 -0.0303 -0.4628
21566SOL     OW74627   5.313   1.356   9.569  0.4658 -0.2022 -0.3198
21566SOL    HW174628   5.370   1.373   9.494  0.9983  0.5562  0.2361
21566SOL    HW274629   5.285   1.443   9.598  1.2889 -0.3909  1.1301
21567SOL     OW74630   2.423  12.521  12.748 -0.0750  0.0624 -0.4931
21567SOL    HW174631   2.438  12.434  12.785 -1.4381 -0.1053 -0.2955
21567SOL    HW274632   2.474  12.580  12.804 -1.0005 -0.3490  0.8289
21568SOL     OW74633   4.001   5.757   6.841  0.1279 -0.4324 -0.5786
21568SOL    HW174634   3.951   5.815   6.783 -0.7022  0.2561  0.7596
21568SOL    HW274635   3.962   5.671   6.829 -0.8346 -0.0633 -0.1954
21569SOL     OW74636   1.244   0.204   2.216  0.0092 -0.4042 -0.2327
21569SOL    HW174637   1.250   0.193   2.311 -0.6297 -0.7646 -0.2332
21569SOL    HW274638   1.289   0.287   2.199  0.5989 -0.6031  0.3186
21570SOL     OW74639   9.374   9.486   9.280 -0.2646  0.6441 -0.3981
21570SOL    HW174640   9.373   9.507   9.373 -0.8281  0.8486 -0.4513
21570SOL    HW274641   9.350   9.393   9.277 -0.7010  0.7567 -0.3737
21571SOL     OW74642   0.615   5.830   9.697  0.7887  0.5885  0.0433
21571SOL    HW174643   0.637   5.920   9.722 -0.3969  0.8083  0.3519
21571SOL    HW274644   0.639   5.824   9.604 -0.7697  1.7946 -0.4686
21572SOL     OW74645   0.993   2.609   9.946  0.1971 -0.0725 -0.3845
21572SOL    HW174646   0.901   2.583   9.946  0.0609  0.3873 -0.0186
21572SOL    HW274647   0.994   2.691   9.996  0.5109  0.9621 -1.9871
21573SOL     OW74648  13.107   6.701   1.461 -0.8908 -0.2108  0.1417
21573SOL    HW174649  13.096   6.655   1.545 -0.1929 -1.8244 -0.6077
21573SOL    HW274650  13.121   6.631   1.397  0.4729  1.0665 -1.0243
21574SOL     OW74651  12.029   9.887  11.914  0.6902  0.7379 -0.3808
21574SOL    HW174652  12.030   9.980  11.891  1.4011  0.6121 -0.8613
21574SOL    HW274653  11.990   9.844  11.838 -1.1973  0.7959  0.4895
21575SOL     OW74654  10.373   5.715   5.043 -0.4710 -0.0692  0.2868
21575SOL    HW174655  10.412   5.774   5.107 -1.0761  1.7807 -0.9838
21575SOL    HW274656  10.437   5.644   5.034  0.6198  0.7512  1.2995
21576SOL     OW74657   0.607   9.576   2.405  0.1496 -0.5186  0.1991
21576SOL    HW174658   0.540   9.589   2.472 -0.5994  0.9844 -0.7844
21576SOL    HW274659   0.678   9.635   2.431  1.8240 -3.1354  2.0317
21577SOL     OW74660   4.742   2.367   7.042  0.4657 -0.2249 -0.3168
21577SOL    HW174661   4.705   2.417   7.114 -0.0437  0.1963 -0.8575
21577SOL    HW274662   4.835   2.360   7.063  0.1769 -0.8648  0.8088
21578SOL     OW74663   3.786   6.954   2.066 -0.3543 -0.1478  0.8048
21578SOL    HW174664   3.701   6.946   2.110 -0.9435  0.9931 -0.0945
21578SOL    HW274665   3.818   7.040   2.092 -1.2256  1.0659 -1.7733
21579SOL     OW74666   8.909   8.462  11.499 -0.6871  0.2616  0.1880
21579SOL    HW174667   8.966   8.388  11.521 -0.9357 -0.2792 -0.9281
21579SOL    HW274668   8.924   8.526  11.569 -0.6412 -0.9376  1.3193
21580SOL     OW74669   8.432   7.844  10.333 -0.5859 -0.0372 -0.4522
21580SOL    HW174670   8.420   7.773  10.397 -0.6957  1.4519  1.2623
21580SOL    HW274671   8.361   7.906  10.351  0.3121  1.1847 -0.9487
21581SOL     OW74672  12.209   8.548   9.241 -0.5723 -0.1136 -0.2801
21581SOL    HW174673  12.135   8.585   9.288 -0.1057 -0.8062  1.0453
21581SOL    HW274674  12.286   8.576   9.291 -0.0705 -0.9417 -0.5659
21582SOL     OW74675   0.211   0.093   1.633 -0.8838  0.0105  0.1153
21582SOL    HW174676   0.199   0.013   1.684 -1.9598 -0.5838 -1.0093
21582SOL    HW274677   0.127   0.106   1.589 -0.3373  1.0883 -0.6566
21583SOL     OW74678   2.492   7.749   1.173 -0.1582  0.1619  0.4221
21583SOL    HW174679   2.409   7.721   1.211 -0.4533  0.0151 -0.3100
21583SOL    HW274680   2.474   7.754   1.079  0.6646  0.1209  0.2605
21584SOL     OW74681   2.772   6.585   2.952  0.3193 -0.4169  0.6156
21584SOL    HW174682   2.823   6.516   2.909  0.4943 -0.3151  0.6613
21584SOL    HW274683   2.730   6.633   2.880  0.8508 -0.0587  0.5413
21585SOL     OW74684   6.418  12.744  13.229  0.2876  0.0375  0.1026
21585SOL    HW174685   6.325  12.742  13.205 -0.3906 -3.0208  2.3098
21585SOL    HW274686   6.456  12.669  13.183  0.8821 -0.6795  1.7073
21586SOL     OW74687  11.037   7.848   9.448  0.3224  0.6708  0.2935
21586SOL    HW174688  11.016   7.931   9.406 -0.7887  0.9194  1.2908
21586SOL    HW274689  10.996   7.782   9.393 -0.7725  0.9635  0.7318
21587SOL     OW74690  12.669   1.052  11.105  0.2337  0.4626 -0.2396
21587SOL    HW174691  12.648   0.961  11.125  2.4333 -0.0058  0.2228
21587SOL    HW274692  12.622   1.071  11.024 -3.3325  0.1803  1.5676
21588SOL     OW74693   7.550   6.478   0.617  0.9109 -0.6664 -0.4248
21588SOL    HW174694   7.502   6.483   0.700  0.7266 -0.5619 -0.5377
21588SOL    HW274695   7.570   6.385   0.607 -2.1050 -1.2875 -1.9675
21589SOL     OW74696  11.759   5.556  12.482  0.7208  0.5298 -0.1152
21589SOL    HW174697  11.852   5.550  12.462  0.8243 -1.2191  0.6793
21589SOL    HW274698  11.716   5.531  12.400  1.0710 -2.0740  0.3839
21590SOL     OW74699   1.081  12.329   9.728  0.0569  0.6372  0.2124
21590SOL    HW174700   0.995  12.300   9.699  0.5023 -0.6418  0.1072
21590SOL    HW274701   1.128  12.350   9.647  0.7892 -1.4809  0.0079
21591SOL     OW74702   7.326   5.155   0.689 -0.0814  0.3422  0.1013
21591SOL    HW174703   7.351   5.076   0.737 -0.3883 -0.8540 -1.5909
21591SOL    HW274704   7.409   5.194   0.661  0.0696  0.5754  0.8702
21592SOL     OW74705   0.650  10.683   9.231 -0.5493 -0.0913  0.1135
21592SOL    HW174706   0.637  10.719   9.319  0.5192  0.7428 -0.0466
21592SOL    HW274707   0.717  10.739   9.192 -0.8855 -0.5519 -1.1822
21593SOL     OW74708   0.581   0.348   8.736 -0.2024  0.0768 -0.5194
21593SOL    HW174709   0.648   0.361   8.803  0.7881  0.0087 -1.4564
21593SOL    HW274710   0.498   0.348   8.784  0.5933 -2.5809  1.0580
21594SOL     OW74711   8.960   7.003  12.677  0.4870 -0.4852  0.2444
21594SOL    HW174712   8.905   7.081  12.686 -0.3013 -1.0673  0.5056
21594SOL    HW274713   9.049   7.038  12.672  0.0960  0.4759 -0.3414
21595SOL     OW74714   4.604   6.695   4.102 -0.6112  0.3339 -0.4190
21595SOL    HW174715   4.689   6.657   4.123 -0.4042  1.4419  0.8738
21595SOL    HW274716   4.544   6.620   4.103 -0.1658 -0.0614  1.7895
21596SOL     OW74717   2.743   5.934   3.706  0.1592  0.0537  0.0230
21596SOL    HW174718   2.829   5.906   3.674  0.1405 -2.4311  1.8390
21596SOL    HW274719   2.757   6.023   3.738  2.1018 -0.3226  0.3656
21597SOL     OW74720   7.090   3.242  11.594  0.1618  0.1522 -0.3212
21597SOL    HW174721   7.010   3.281  11.629 -0.5887 -1.1945 -0.4400
21597SOL    HW274722   7.148   3.234  11.670 -1.1487 -2.0017  0.5697
21598SOL     OW74723  12.622   5.097  12.477  0.0086 -0.4695 -0.0637
21598SOL    HW174724  12.555   5.139  12.532  1.1041  0.3930  0.6490
21598SOL    HW274725  12.621   5.005  12.505 -0.0856 -0.2273  0.7589
21599SOL     OW74726   2.798  11.707  10.695 -0.3021 -0.3293 -0.0108
21599SOL    HW174727   2.847  11.749  10.766  0.0036 -1.5160  0.5121
21599SOL    HW274728   2.848  11.727  10.616  0.2846 -0.3913  0.3370
21600SOL     OW74729  11.554  11.065   0.806 -0.2435 -0.3925  0.4916
21600SOL    HW174730  11.553  10.973   0.780  0.9280 -0.5397  0.9053
21600SOL    HW274731  11.631  11.101   0.762 -0.4110  0.2639  0.7347
21601SOL     OW74732   3.412  10.348   6.190 -0.4851 -0.5604  0.1602
21601SOL    HW174733   3.455  10.358   6.275 -1.2003 -0.8573  0.5674
21601SOL    HW274734   3.477  10.377   6.126  0.9138 -2.5316  0.6221
21602SOL     OW74735  11.870   1.055   1.065 -0.1777  0.3750 -0.1559
21602SOL    HW174736  11.946   1.060   1.007  0.3139 -0.1958  0.4191
21602SOL    HW274737  11.908   1.049   1.153 -0.8968  1.6852  0.2860
21603SOL     OW74738   4.891  12.901   8.790 -0.2075 -0.1351  0.6396
21603SOL    HW174739   4.980  12.926   8.814  1.0642 -2.3850 -1.2412
21603SOL    HW274740   4.875  12.821   8.840 -0.2183 -1.0126 -0.7235
21604SOL     OW74741   4.635   5.926   4.495  0.5247 -0.1545  0.3504
21604SOL    HW174742   4.642   6.014   4.532  2.6586 -0.2535  0.3025
21604SOL    HW274743   4.618   5.870   4.571 -1.6104  0.3373  0.2891
21605SOL     OW74744  12.186   3.377   3.191 -0.1262  0.0340  0.0867
21605SOL    HW174745  12.158   3.300   3.240  1.0364 -1.0489 -0.8971
21605SOL    HW274746  12.218   3.438   3.258 -1.3106 -0.1962  0.8931
21606SOL     OW74747   2.520   7.430   2.454 -0.5070  0.1465  0.4156
21606SOL    HW174748   2.447   7.467   2.504 -0.9991  0.2079 -0.3475
21606SOL    HW274749   2.483   7.354   2.410 -0.2167  0.4285 -0.3226
21607SOL     OW74750   9.698  10.984  12.624  0.4684 -0.5503 -0.2810
21607SOL    HW174751   9.790  10.987  12.649  0.3005  0.6017  0.2655
21607SOL    HW274752   9.664  11.071  12.646 -1.0644 -1.3574  0.6968
21608SOL     OW74753  10.546   1.710  11.080  0.1957  0.2856 -0.0381
21608SOL    HW174754  10.492   1.648  11.030  1.7271 -1.7727  0.7354
21608SOL    HW274755  10.488   1.744  11.147 -1.7018  2.5218 -2.5640
21609SOL     OW74756  11.211   5.960   9.217  0.1139  0.3588  0.3003
21609SOL    HW174757  11.295   5.982   9.176  0.0599 -0.7091 -0.4419
21609SOL    HW274758  11.145   5.997   9.158  0.0320 -1.3117 -0.7300
21610SOL     OW74759   8.881  12.726  11.126  0.0270 -0.1524 -0.5611
21610SOL    HW174760   8.882  12.670  11.049 -0.0745 -1.0861  0.0962
21610SOL    HW274761   8.964  12.708  11.170 -0.4753 -0.6295  0.2266
21611SOL     OW74762   7.720   2.633   0.072  0.0540 -0.6644  0.4123
21611SOL    HW174763   7.635   2.666   0.044  0.5409 -1.3765 -2.1336
21611SOL    HW274764   7.780   2.707   0.064 -0.1376 -0.3844  1.4132
21612SOL     OW74765   5.299  11.091   6.472  1.1636 -0.5377  0.2448
21612SOL    HW174766   5.388  11.116   6.497  1.8097  0.0711 -2.4226
21612SOL    HW274767   5.288  11.003   6.509  2.3850 -0.1627  1.6278
21613SOL     OW74768  12.545  13.220   3.074 -0.1470 -0.1140  0.1967
21613SOL    HW174769  12.503  13.209   2.989 -1.2022  0.2353  0.6530
21613SOL    HW274770  12.472  13.227   3.136  0.5164  2.4352  0.7878
21614SOL     OW74771   1.584   7.476   7.241 -0.1510  0.1576  0.2155
21614SOL    HW174772   1.521   7.422   7.287  1.2668 -1.3840  0.4650
21614SOL    HW274773   1.585   7.559   7.289 -0.2870 -0.6317  1.6327
21615SOL     OW74774   4.297   2.380   4.674 -0.1493  0.6090  0.3094
21615SOL    HW174775   4.241   2.376   4.751  0.7826 -0.0112  0.9769
21615SOL    HW274776   4.365   2.444   4.698  1.1410 -0.8495  0.7185
21616SOL     OW74777   5.122  10.611   2.535 -0.0678  0.1089 -0.2446
21616SOL    HW174778   5.121  10.538   2.475  1.3203 -1.7329  1.8216
21616SOL    HW274779   5.177  10.677   2.493  0.0691 -0.7252 -1.3939
21617SOL     OW74780   8.468   6.704   0.826  0.0262 -0.1591  0.2649
21617SOL    HW174781   8.512   6.761   0.890  0.4405  1.3145 -1.2715
21617SOL    HW274782   8.540   6.656   0.785  0.0497  0.7504 -0.8123
21618SOL     OW74783   9.830   0.079   0.483  0.4596 -0.0030 -0.0458
21618SOL    HW174784   9.921   0.055   0.464  0.4284  0.8151 -1.3891
21618SOL    HW274785   9.785   0.070   0.400 -0.1593  1.8447  0.0326
21619SOL     OW74786  11.560  10.246  12.369  0.2167 -0.2092  0.7702
21619SOL    HW174787  11.550  10.272  12.461 -1.1695 -0.7044  0.7787
21619SOL    HW274788  11.511  10.311  12.320  0.1631 -0.4884  0.4496
21620SOL     OW74789  12.263   8.284   8.331  0.7837 -0.2798  0.5131
21620SOL    HW174790  12.264   8.296   8.236  0.3842 -0.8539  0.4264
21620SOL    HW274791  12.173   8.305   8.357  0.8781 -0.1732  0.7525
21621SOL     OW74792  10.146   6.499   7.798 -0.1432 -0.0776  0.1324
21621SOL    HW174793  10.174   6.419   7.754  0.1954 -0.4190  0.9476
21621SOL    HW274794  10.052   6.486   7.813 -0.5705  0.6003 -1.6134
21622SOL     OW74795  12.551   6.520  12.146 -0.4411  0.1058 -0.4372
21622SOL    HW174796  12.523   6.611  12.154 -2.9017 -0.5498 -0.7910
21622SOL    HW274797  12.633   6.525  12.097  0.0587  2.1706  0.4945
21623SOL     OW74798   0.389   5.500  11.443 -0.0538  0.0529  0.1196
21623SOL    HW174799   0.415   5.575  11.497 -0.5226  0.3483 -0.0608
21623SOL    HW274800   0.463   5.487  11.384  0.0320  0.3738  0.1523
21624SOL     OW74801   4.495   2.416  10.210  0.4573  0.2279 -0.1073
21624SOL    HW174802   4.550   2.462  10.146  1.5221 -0.0658  0.5575
21624SOL    HW274803   4.467   2.336  10.165 -2.2183  1.9079 -1.6163
21625SOL     OW74804   2.268   5.095   0.795 -0.4226 -0.3706 -0.0691
21625SOL    HW174805   2.311   5.171   0.834 -0.6230 -0.3609  0.1344
21625SOL    HW274806   2.331   5.024   0.806 -1.0703 -0.7406  1.6786
21626SOL     OW74807   6.951   6.152  13.096 -0.0040  0.2798 -0.2699
21626SOL    HW174808   6.972   6.167  13.188 -2.4516  1.1955  0.2286
21626SOL    HW274809   6.886   6.220  13.075  0.1881 -0.1677 -2.5553
21627SOL     OW74810  11.172   8.046   4.207 -0.7225  0.8069  0.4126
21627SOL    HW174811  11.115   8.087   4.271 -0.7443  0.2030  0.7910
21627SOL    HW274812  11.238   8.000   4.260 -0.7971  0.2227  0.0036
21628SOL     OW74813   9.603   3.007   2.321 -0.0352 -0.7379 -0.6482
21628SOL    HW174814   9.534   3.019   2.255 -0.5566 -1.2862 -0.2135
21628SOL    HW274815   9.556   2.985   2.401  0.5905  0.0752 -0.0470
21629SOL     OW74816   5.792   7.062  12.432 -0.4316 -0.0042  0.1313
21629SOL    HW174817   5.707   7.053  12.474 -0.5308  0.1833 -0.0279
21629SOL    HW274818   5.847   7.106  12.497 -0.3136 -0.5748  0.4225
21630SOL     OW74819  12.244   8.352  11.149  0.3658  0.1563  0.2772
21630SOL    HW174820  12.320   8.318  11.197 -0.4243 -0.4278  1.1660
21630SOL    HW274821  12.178   8.367  11.217 -0.7009 -0.4285 -0.5878
21631SOL     OW74822   3.533   9.982  13.018 -0.2216  0.2785 -0.9479
21631SOL    HW174823   3.452  10.032  13.029  0.5536  1.3069  0.3689
21631SOL    HW274824   3.567   9.973  13.107  1.4752  0.4863 -1.5512
21632SOL     OW74825  12.849   3.547  10.556  0.5921 -0.4156 -0.0986
21632SOL    HW174826  12.890   3.465  10.530  1.4804  0.0379 -0.1761
21632SOL    HW274827  12.865   3.607  10.483  0.9897  0.1645  0.4468
21633SOL     OW74828   0.427   5.896  10.074 -0.3259  0.2947  0.1426
21633SOL    HW174829   0.340   5.882  10.110 -0.4941 -1.2492 -0.7898
21633SOL    HW274830   0.475   5.941  10.144 -1.1454 -1.0457  1.6310
21634SOL     OW74831   0.927   2.731  11.406  0.0794  0.0749 -0.7304
21634SOL    HW174832   0.869   2.695  11.340  0.2859 -1.2860 -0.2155
21634SOL    HW274833   0.920   2.670  11.480  2.5311 -0.4807 -0.8448
21635SOL     OW74834   9.314   8.961   1.418  0.4202 -0.4100  0.2370
21635SOL    HW174835   9.331   9.043   1.464  2.4435 -0.2396 -0.7159
21635SOL    HW274836   9.376   8.899   1.456  1.0732 -0.6600 -1.1660
21636SOL     OW74837   0.439   2.989   5.123 -0.5544 -0.2390  0.2126
21636SOL    HW174838   0.432   3.046   5.199 -0.1482  0.3025 -0.1495
21636SOL    HW274839   0.483   2.910   5.156  0.0074  0.1674  0.4516
21637SOL     OW74840  11.743   3.950   0.213  0.1723  0.1308 -0.1111
21637SOL    HW174841  11.703   4.036   0.215 -0.5582 -0.2197  0.8609
21637SOL    HW274842  11.779   3.943   0.124  0.0968  1.3563 -0.2528
21638SOL     OW74843   7.378  11.195  10.562  0.4424 -0.2977 -0.1388
21638SOL    HW174844   7.379  11.104  10.595  0.1616 -0.1071  0.4085
21638SOL    HW274845   7.286  11.218  10.559  0.5183 -0.0057 -0.2166
21639SOL     OW74846   7.291   9.835   7.781 -0.3241  0.2797 -0.0346
21639SOL    HW174847   7.356   9.892   7.740 -0.2633  1.2873  1.3725
21639SOL    HW274848   7.251   9.787   7.709  0.6736  1.0256 -1.1058
21640SOL     OW74849   8.536   9.037   8.174  0.4012 -0.0262 -0.1353
21640SOL    HW174850   8.514   9.032   8.082 -2.3212  1.0080  0.3805
21640SOL    HW274851   8.558   9.129   8.189 -1.4731  0.3453  0.6409
21641SOL     OW74852  10.733  12.309   2.843  0.1838 -0.6861  0.0243
21641SOL    HW174853  10.640  12.294   2.854 -0.1936  1.1342 -0.3948
21641SOL    HW274854  10.761  12.350   2.924  0.8641 -2.1369  0.5569
21642SOL     OW74855  10.107   5.226  11.712 -0.2788 -0.1022  0.5839
21642SOL    HW174856  10.172   5.156  11.719  0.0537 -0.0182 -1.1475
21642SOL    HW274857  10.160   5.305  11.695 -0.8058  0.0235 -0.5164
21643SOL     OW74858   8.424   2.776   2.461  0.5856  0.8019  0.0720
21643SOL    HW174859   8.424   2.737   2.374  1.8575 -0.7073  0.6849
21643SOL    HW274860   8.376   2.858   2.452 -0.7602 -0.1307 -1.6641
21644SOL     OW74861   1.953  11.998   3.414  0.3271  0.4529  0.2559
21644SOL    HW174862   2.027  12.034   3.365 -0.2240  0.0329 -0.9212
21644SOL    HW274863   1.902  12.075   3.439 -1.1460  0.5944 -2.7247
21645SOL     OW74864  12.235   6.752  12.037 -0.7397  0.1270 -0.1614
21645SOL    HW174865  12.200   6.785  12.120 -1.3141 -1.6285  0.3393
21645SOL    HW274866  12.239   6.657  12.049  0.2879 -0.0577 -1.7330
21646SOL     OW74867   5.935   1.212   1.325 -0.2164  0.1126  0.5006
21646SOL    HW174868   5.939   1.127   1.282  0.0953 -0.3013  1.3439
21646SOL    HW274869   5.882   1.266   1.265  1.0781 -0.1309 -0.9145
21647SOL     OW74870   0.190   4.077   7.836  0.2746 -0.1768  0.1921
21647SOL    HW174871   0.234   4.056   7.754 -1.1494  0.5635 -0.8071
21647SOL    HW274872   0.191   3.995   7.886 -0.3544 -1.1386 -1.3068
21648SOL     OW74873   4.137   8.668   1.300 -0.2678 -0.3750 -0.7752
21648SOL    HW174874   4.064   8.646   1.357 -1.1601  1.2968 -1.2258
21648SOL    HW274875   4.104   8.737   1.243  1.4055 -0.1726 -1.5707
21649SOL     OW74876   9.388   8.182   3.505 -0.6224  0.5614 -0.5170
21649SOL    HW174877   9.422   8.248   3.445  0.9612  0.3180  0.0865
21649SOL    HW274878   9.361   8.231   3.582  0.8916  0.5014  0.0783
21650SOL     OW74879  11.833   8.140   7.019  0.3014 -0.0481 -0.0273
21650SOL    HW174880  11.904   8.196   6.987 -0.8294  0.9969 -0.8465
21650SOL    HW274881  11.757   8.198   7.021 -0.2514 -0.7641  2.1747
21651SOL     OW74882   5.445   0.853   7.268 -0.0926  0.6925  0.3936
21651SOL    HW174883   5.398   0.896   7.340 -2.1755 -1.6938  0.6175
21651SOL    HW274884   5.480   0.773   7.306 -0.9784 -0.4754 -1.1121
21652SOL     OW74885   8.744   5.524   1.464 -0.3669 -0.3683 -0.0673
21652SOL    HW174886   8.818   5.567   1.505 -0.4121 -0.8761  0.5679
21652SOL    HW274887   8.781   5.477   1.389 -0.2288  0.2729 -0.4069
21653SOL     OW74888   2.535   7.333   7.158 -0.2953 -0.2063 -0.3070
21653SOL    HW174889   2.505   7.259   7.211 -1.1687 -0.3523 -0.9749
21653SOL    HW274890   2.491   7.321   7.074  0.8434  0.1790 -0.9698
21654SOL     OW74891   7.763  11.889   5.958  0.1625 -0.0366  0.0980
21654SOL    HW174892   7.723  11.934   6.032 -1.3097 -1.5612  0.2743
21654SOL    HW274893   7.776  11.958   5.893  0.5841  1.1432  1.3812
21655SOL     OW74894  11.992   9.839   1.738 -0.5909 -0.0733  0.3639
21655SOL    HW174895  11.961   9.781   1.808 -0.9566  1.5021  1.5564
21655SOL    HW274896  12.076   9.872   1.771 -0.0337 -0.4775 -0.6295
21656SOL     OW74897   6.609   7.796   1.072 -0.0894 -0.4522 -0.1683
21656SOL    HW174898   6.683   7.762   1.123  1.2473 -0.4370 -1.9681
21656SOL    HW274899   6.597   7.731   1.003 -0.8717  0.2237 -0.6768
21657SOL     OW74900   4.547   6.424   2.668 -0.0396  0.1520  0.7980
21657SOL    HW174901   4.578   6.474   2.743  1.3005 -1.2787  1.2503
21657SOL    HW274902   4.529   6.337   2.703 -1.1694 -0.0475 -0.2070
21658SOL     OW74903   9.980   5.123   1.589  0.2591  0.1231  0.1866
21658SOL    HW174904   9.908   5.126   1.525 -1.4266 -0.0016  1.9623
21658SOL    HW274905   9.959   5.193   1.651  1.4112 -0.2504  1.0157
21659SOL     OW74906   4.175  11.421   3.738 -0.0824  0.6159  0.3336
21659SOL    HW174907   4.163  11.488   3.806 -1.0522  2.6603 -1.7078
21659SOL    HW274908   4.086  11.399   3.710  0.3047  0.2055 -0.6165
21660SOL     OW74909   6.259   1.960   3.083 -0.7423 -0.4097 -0.3719
21660SOL    HW174910   6.172   1.942   3.048 -1.1546  0.3543  0.2401
21660SOL    HW274911   6.267   2.055   3.082  1.1465 -0.5004 -2.9395
21661SOL     OW74912  10.838   2.488   3.854 -0.0550  0.2019  0.2660
21661SOL    HW174913  10.912   2.437   3.822  0.8062  1.5392  0.0508
21661SOL    HW274914  10.854   2.497   3.948  0.4893  1.1359  0.0982
21662SOL     OW74915   8.250  11.183   0.915  0.5130 -0.0540 -0.0615
21662SOL    HW174916   8.301  11.154   0.839 -0.4305 -1.9746 -0.0183
21662SOL    HW274917   8.252  11.108   0.975 -0.9559  0.4551  0.6690
21663SOL     OW74918  11.944  12.893   8.495  0.4834 -0.0554  0.4881
21663SOL    HW174919  12.011  12.958   8.517 -0.7482  1.2662  0.4579
21663SOL    HW274920  11.908  12.867   8.580 -0.4969  0.9270  0.3839
21664SOL     OW74921   0.876   8.454  12.223 -0.0103  0.1290 -0.3196
21664SOL    HW174922   0.829   8.518  12.277 -0.1666 -0.7983  0.6630
21664SOL    HW274923   0.816   8.380  12.216 -0.0087  0.2401 -1.8110
21665SOL     OW74924  12.098   3.635   9.197 -0.1597  0.3270 -0.2764
21665SOL    HW174925  12.153   3.558   9.210 -0.3386  0.0941 -0.8476
21665SOL    HW274926  12.142   3.685   9.128  1.1711  1.9154  1.6285
21666SOL     OW74927   7.713   2.505  11.718 -0.2323 -0.5010  0.2602
21666SOL    HW174928   7.783   2.503  11.783 -0.7962 -0.4736  0.8728
21666SOL    HW274929   7.756   2.478  11.636  0.6259  0.1110  0.4944
21667SOL     OW74930  11.320   7.779   1.477  0.6369  0.2005 -0.9363
21667SOL    HW174931  11.412   7.766   1.499  0.2859 -1.3587 -0.2731
21667SOL    HW274932  11.299   7.706   1.419  0.0507  1.0854 -1.8784
21668SOL     OW74933   9.217   8.255   0.035  0.5503  0.5062  0.2854
21668SOL    HW174934   9.241   8.273   0.126 -0.2042  0.9720  0.4033
21668SOL    HW274935   9.239   8.163   0.023 -1.1862 -0.1454  1.5820
21669SOL     OW74936   9.782   3.225  11.962 -0.4088  0.2640 -0.4527
21669SOL    HW174937   9.796   3.285  12.035 -1.0241 -3.1049  2.7238
21669SOL    HW274938   9.865   3.177  11.954 -1.4573 -1.8855  0.6638
21670SOL     OW74939  10.378   9.757   5.420 -0.4541  0.4730 -0.3044
21670SOL    HW174940  10.345   9.840   5.454 -0.8849 -0.2265  1.0920
21670SOL    HW274941  10.403   9.776   5.330  0.5048  2.3987  0.3005
21671SOL     OW74942   3.058   7.586   0.028 -0.0417 -0.3472 -0.3428
21671SOL    HW174943   3.152   7.587   0.044 -0.1576  0.1552  0.3254
21671SOL    HW274944   3.024   7.661   0.077 -0.7759 -0.4551 -0.6711
21672SOL     OW74945   0.608   5.289   1.598 -0.1286  0.5604  0.7672
21672SOL    HW174946   0.542   5.250   1.541 -0.0824  1.0195  0.3827
21672SOL    HW274947   0.653   5.352   1.541 -0.1825  1.1399  1.3513
21673SOL     OW74948   7.082   0.087   3.474  0.6101 -0.3603 -0.1803
21673SOL    HW174949   7.118   0.166   3.514 -0.0758 -0.4619  0.6694
21673SOL    HW274950   7.143   0.065   3.404  1.3149  0.3831  0.1930
21674SOL     OW74951   5.147   3.183   7.539  0.0821  0.2650  0.2221
21674SOL    HW174952   5.143   3.176   7.444  0.3855  1.7597  0.0828
21674SOL    HW274953   5.177   3.096   7.568  1.0686  0.1254 -1.1150
21675SOL     OW74954  11.109   3.147   9.556 -0.2393  0.3032  0.4826
21675SOL    HW174955  11.029   3.173   9.511 -0.0760  2.2572  1.2184
21675SOL    HW274956  11.101   3.188   9.642  0.0407 -2.2513  1.8266
21676SOL     OW74957   6.341   6.869   5.689  0.2361  0.3093  0.4462
21676SOL    HW174958   6.363   6.913   5.607  0.7221  1.2212  1.0405
21676SOL    HW274959   6.320   6.941   5.749  0.9237 -0.2814  1.4154
21677SOL     OW74960   2.850   7.482  12.441 -0.4955  0.4925 -0.0834
21677SOL    HW174961   2.911   7.554  12.460 -0.0121  0.3077 -0.9055
21677SOL    HW274962   2.765   7.525  12.434 -0.4209  0.8012  0.7318
21678SOL     OW74963  13.021   8.523   3.765 -0.7106  0.1705  0.3174
21678SOL    HW174964  12.974   8.599   3.799 -0.7612 -0.1713  1.0142
21678SOL    HW274965  12.956   8.453   3.765 -0.0379 -0.4960  1.9752
21679SOL     OW74966  10.907   8.241   5.418 -0.4840  0.2721  0.0838
21679SOL    HW174967  11.002   8.238   5.405 -0.5242  0.5369 -0.3071
21679SOL    HW274968  10.896   8.246   5.513 -0.1079  0.1407  0.1358
21680SOL     OW74969  11.923   4.118   7.009  0.2032  0.3192 -0.1460
21680SOL    HW174970  11.993   4.177   6.984  0.7706  0.2412  1.2188
21680SOL    HW274971  11.853   4.136   6.946  0.0415  3.0026  0.7201
21681SOL     OW74972   8.209   9.079  10.192 -0.0132  0.8860  0.0218
21681SOL    HW174973   8.244   9.150  10.137 -1.7170  0.6246 -1.5121
21681SOL    HW274974   8.115   9.096  10.195 -0.3818 -0.9875  0.1130
21682SOL     OW74975   1.569  10.958   2.585  0.5008  0.5771 -0.3805
21682SOL    HW174976   1.659  10.941   2.557  0.8850  1.1179  0.5083
21682SOL    HW274977   1.526  10.994   2.507  0.8189 -0.4610 -1.0517
21683SOL     OW74978   5.111   7.033   2.934 -0.0416 -0.1096 -0.1990
21683SOL    HW174979   5.169   6.985   2.993  0.3630 -0.3074 -0.7427
21683SOL    HW274980   5.051   6.966   2.901 -0.0987 -0.0534 -0.2075
21684SOL     OW74981   4.653   0.127   4.100  0.1123 -0.3675  0.3456
21684SOL    HW174982   4.612   0.089   4.177 -0.3249 -0.2814  0.1583
21684SOL    HW274983   4.640   0.222   4.111  0.7734 -0.3014  0.5735
21685SOL     OW74984   7.379   0.062   9.704  0.0738 -0.0523 -0.0698
21685SOL    HW174985   7.308   0.062   9.769  0.4177 -1.0450  0.3259
21685SOL    HW274986   7.394  -0.031   9.686  2.6611 -0.0077  1.3930
21686SOL     OW74987   1.206  12.780  11.004 -0.1672  0.0214 -0.0586
21686SOL    HW174988   1.286  12.741  10.968 -0.4970 -0.3932 -0.3657
21686SOL    HW274989   1.236  12.856  11.053  0.4022 -0.0468 -0.2893
21687SOL     OW74990  10.392   6.916   8.600 -0.0897  0.1211  0.3644
21687SOL    HW174991  10.418   7.008   8.591 -1.1897  0.3866 -0.4139
21687SOL    HW274992  10.449   6.869   8.539 -1.8971  0.8096 -2.0002
21688SOL     OW74993   4.137   3.992   1.547 -0.2951  0.4337 -0.7305
21688SOL    HW174994   4.096   4.020   1.629 -0.1314 -0.0248 -0.4892
21688SOL    HW274995   4.219   4.041   1.543 -0.0358  0.0322 -0.3374
21689SOL     OW74996   2.993   8.955   9.627 -0.0435  0.5347 -0.6461
21689SOL    HW174997   3.015   8.887   9.691  1.1866  1.0500 -0.4934
21689SOL    HW274998   2.906   8.985   9.653 -0.2805 -0.4446 -0.2522
21690SOL     OW74999  10.021  11.175   5.826  0.5581  0.1056 -0.1905
21690SOL    HW175000  10.007  11.267   5.849  1.0671  0.2436 -0.4195
21690SOL    HW275001  10.093  11.147   5.882  2.0988  0.5615 -1.8474
21691SOL     OW75002  10.748   9.616   9.694  0.8733  0.0451  0.3827
21691SOL    HW175003  10.809   9.689   9.703 -0.5749  1.6728 -1.9693
21691SOL    HW275004  10.699   9.635   9.615  0.0832 -3.2988 -0.0878
21692SOL     OW75005   6.146   5.954   1.735  0.0782  0.0606  0.4364
21692SOL    HW175006   6.132   6.043   1.768  1.2038  0.6462 -0.5631
21692SOL    HW275007   6.152   5.900   1.814  2.0319  1.3132  1.2441
21693SOL     OW75008   7.615   5.794   2.962 -0.5203 -0.3997 -0.2715
21693SOL    HW175009   7.614   5.762   3.052  0.2116  0.2846 -0.0137
21693SOL    HW275010   7.675   5.868   2.963 -1.2129  0.1919 -1.1286
21694SOL     OW75011  11.665   9.203   5.065  0.5846 -0.0211  0.1221
21694SOL    HW175012  11.662   9.299   5.058  0.7941  0.1355  1.8233
21694SOL    HW275013  11.602   9.182   5.134 -0.5164 -1.2632 -1.1908
21695SOL     OW75014   8.855   2.132   2.864 -0.2006  0.0447 -0.3289
21695SOL    HW175015   8.760   2.129   2.854 -0.0646 -0.2476 -1.7625
21695SOL    HW275016   8.883   2.203   2.807  0.4458  0.2269  0.1943
21696SOL     OW75017  10.544  10.058   5.252  0.1724  0.0405 -0.2424
21696SOL    HW175018  10.540  10.088   5.161 -0.8940 -1.0248 -0.5812
21696SOL    HW275019  10.513   9.967   5.248  1.1210 -0.3688  1.0402
21697SOL     OW75020   6.520   0.191  10.016  0.6244  0.2859 -0.1883
21697SOL    HW175021   6.584   0.254  10.051  2.2121 -2.4050  2.2424
21697SOL    HW275022   6.435   0.228  10.040  1.3165  2.5586 -0.9159
21698SOL     OW75023  11.362   7.676   2.325 -0.1009 -0.4503  0.2447
21698SOL    HW175024  11.372   7.586   2.293  1.4504 -0.0670 -0.4330
21698SOL    HW275025  11.351   7.728   2.245  1.9488  0.2934  0.3888
21699SOL     OW75026   0.153   9.959   1.194 -0.2197 -0.6541 -0.3389
21699SOL    HW175027   0.088   9.894   1.220 -1.0572 -0.0791 -0.9728
21699SOL    HW275028   0.206   9.914   1.128 -1.5173 -0.3634 -1.6344
21700SOL     OW75029   4.495   4.366   0.155 -0.0660  0.1553 -0.2668
21700SOL    HW175030   4.474   4.383   0.064  0.3479  1.0970 -0.1999
21700SOL    HW275031   4.557   4.293   0.153  2.1980  1.9531 -0.9907
21701SOL     OW75032   1.842   7.765  10.602  0.2903 -0.7973 -0.0273
21701SOL    HW175033   1.785   7.772  10.525 -0.5142 -1.6305  0.4770
21701SOL    HW275034   1.812   7.833  10.661  0.5982 -0.4693 -0.2412
21702SOL     OW75035   2.240   0.929  12.611  0.0735  0.4153 -0.0701
21702SOL    HW175036   2.271   0.872  12.541 -1.3945  0.8828 -1.1549
21702SOL    HW275037   2.166   0.882  12.648  0.6296  0.3297  0.9653
21703SOL     OW75038   3.020   6.716   6.647 -0.8177  0.6344 -0.5220
21703SOL    HW175039   2.934   6.739   6.614 -1.3237  0.1212  0.3743
21703SOL    HW275040   3.002   6.655   6.719  0.2529  1.1991  0.2488
21704SOL     OW75041   4.763   0.616   5.826 -0.2289 -0.2990  0.3366
21704SOL    HW175042   4.674   0.651   5.834  0.2305  0.8359  0.6777
21704SOL    HW275043   4.786   0.590   5.916 -1.1093 -2.9612 -0.1199
21705SOL     OW75044   4.425   2.262   4.418 -0.3021  0.4821  0.1015
21705SOL    HW175045   4.365   2.198   4.378 -0.2472 -0.4277  1.4272
21705SOL    HW275046   4.369   2.319   4.470  0.0477 -1.5943  3.0011
21706SOL     OW75047  11.812   8.822   8.353 -0.4546  0.6264 -0.3824
21706SOL    HW175048  11.730   8.801   8.397 -0.7012  0.5044 -0.8999
21706SOL    HW275049  11.811   8.917   8.344 -1.1075  0.5309 -1.4761
21707SOL     OW75050   1.587   8.587   6.081 -0.1082  0.2375  0.3693
21707SOL    HW175051   1.638   8.528   6.026 -1.2664  0.0959 -0.5859
21707SOL    HW275052   1.640   8.598   6.160  1.1043 -0.3718 -0.3371
21708SOL     OW75053  11.080   8.928   2.564 -0.0310  0.0948  0.8586
21708SOL    HW175054  11.152   8.895   2.619  0.0360 -0.5835  0.3682
21708SOL    HW275055  11.067   8.860   2.498  0.1402  1.0645 -0.2054
21709SOL     OW75056   9.747   1.321   1.711 -0.2815 -0.1210 -0.3057
21709SOL    HW175057   9.714   1.387   1.650 -0.8991  1.3588  1.5358
21709SOL    HW275058   9.700   1.241   1.688 -1.9959  0.8993 -0.5108
21710SOL     OW75059   7.839   7.320  11.966  0.4095  0.5995  0.4033
21710SOL    HW175060   7.754   7.301  12.005  0.6290  0.3734  0.7848
21710SOL    HW275061   7.874   7.234  11.941  0.4871  0.6989  0.1671
21711SOL     OW75062   2.397   3.248   6.107 -0.0945  0.1748  0.6950
21711SOL    HW175063   2.312   3.291   6.100 -0.0728  0.0573 -0.6684
21711SOL    HW275064   2.381   3.157   6.082  0.4044  0.1342  0.4949
21712SOL     OW75065   2.542   5.056   0.074 -0.3035  0.1114 -0.7695
21712SOL    HW175066   2.621   5.004   0.060  1.0278  2.2907 -2.1293
21712SOL    HW275067   2.574   5.137   0.115 -1.7371  1.2284 -1.7418
21713SOL     OW75068  11.566   6.239  12.079  0.0053 -0.0491 -0.6000
21713SOL    HW175069  11.589   6.147  12.070  0.5707 -0.0101  0.4050
21713SOL    HW275070  11.549   6.268  11.989 -0.0433 -1.0874 -0.9385
21714SOL     OW75071  10.686   3.700  13.203 -0.1137  0.4088 -0.6134
21714SOL    HW175072  10.598   3.737  13.194 -0.7064 -0.7173  0.2850
21714SOL    HW275073  10.731   3.760  13.263 -0.4150  0.7356 -0.7058
21715SOL     OW75074   3.303   6.758  12.495 -0.5698 -0.1826 -0.0074
21715SOL    HW175075   3.349   6.755  12.411  2.5851 -1.5399  1.5884
21715SOL    HW275076   3.316   6.847  12.527  2.1290 -0.7779  0.8581
21716SOL     OW75077   4.681   5.941  13.071  0.5825  0.1820 -0.4690
21716SOL    HW175078   4.668   5.857  13.114 -0.6283  0.5233 -0.1502
21716SOL    HW275079   4.725   5.995  13.136 -0.3802  0.3951  0.0132
21717SOL     OW75080   5.269   9.476  10.369  0.2859 -0.1360 -0.1205
21717SOL    HW175081   5.213   9.536  10.418 -0.5933  0.0860 -1.3729
21717SOL    HW275082   5.268   9.396  10.421 -0.7806  0.0320  0.1482
21718SOL     OW75083   0.990   3.741   7.660 -0.3479 -0.0697 -0.6568
21718SOL    HW175084   1.066   3.720   7.714 -1.2110 -0.9371  0.2766
21718SOL    HW275085   0.986   3.837   7.660  1.0633 -0.0011 -1.2151
21719SOL     OW75086   9.932   4.843   4.724 -0.4175 -0.1747  0.0670
21719SOL    HW175087   9.839   4.853   4.747 -0.7226  0.3378 -1.3001
21719SOL    HW275088   9.965   4.932   4.716  0.2065 -0.3582  0.5757
21720SOL     OW75089  10.963   8.138   2.028  0.6074  0.0410 -0.0482
21720SOL    HW175090  10.911   8.098   2.098  1.5151 -0.5118  0.3280
21720SOL    HW275091  10.935   8.093   1.948 -0.8396  1.0627 -0.1579
21721SOL     OW75092   6.750  10.749  12.456  0.2153 -0.1181 -0.0939
21721SOL    HW175093   6.738  10.724  12.548  0.2416 -1.0324 -0.3320
21721SOL    HW275094   6.844  10.738  12.441  0.0915 -0.7871 -0.4479
21722SOL     OW75095   7.411   5.647   4.449  0.4115 -0.4396 -0.5363
21722SOL    HW175096   7.392   5.721   4.393 -1.9053 -0.5135  0.0766
21722SOL    HW275097   7.353   5.577   4.418  0.0753 -0.9078  1.0733
21723SOL     OW75098   9.543   8.092   7.181  0.0665  0.2172 -0.0060
21723SOL    HW175099   9.464   8.046   7.208 -1.3866  2.1757 -0.7167
21723SOL    HW275100   9.559   8.061   7.092  1.5102 -1.9057  0.9198
21724SOL     OW75101  11.900   7.996   6.293  0.0749 -0.4704  0.2663
21724SOL    HW175102  11.889   7.926   6.357  0.9540 -0.2176  0.6966
21724SOL    HW275103  11.994   8.010   6.287  0.1442 -1.4557 -2.1221
21725SOL     OW75104   3.525   7.426   2.852 -0.3825 -0.0551  0.1710
21725SOL    HW175105   3.603   7.414   2.799 -1.6606 -0.2798 -1.7829
21725SOL    HW275106   3.505   7.339   2.886  0.4295  0.0832  1.0286
21726SOL     OW75107   8.808   1.757   4.225 -0.2929  0.1348  0.2806
21726SOL    HW175108   8.871   1.734   4.156  1.5041  0.0341  1.8723
21726SOL    HW275109   8.787   1.673   4.266 -0.5149  0.3240  0.5529
21727SOL     OW75110   3.836   0.404   4.536 -0.1765 -0.4254 -0.3326
21727SOL    HW175111   3.913   0.462   4.544 -0.1234 -0.3668 -1.1536
21727SOL    HW275112   3.768   0.461   4.499 -0.2536 -0.7715 -0.7295
21728SOL     OW75113   1.722   9.714  12.316 -0.2051 -0.1043  0.1744
21728SOL    HW175114   1.654   9.731  12.251  0.1406 -0.8893 -0.4229
21728SOL    HW275115   1.704   9.774  12.388 -0.2641  1.1986 -0.8987
21729SOL     OW75116   0.134  11.185   2.686 -0.5300 -0.0145  0.0688
21729SOL    HW175117   0.199  11.247   2.718 -0.5874 -0.7095  1.6127
21729SOL    HW275118   0.067  11.182   2.754 -0.3321 -2.0323  0.2485
21730SOL     OW75119  10.443   2.062   5.337 -0.3891 -0.3502 -0.6624
21730SOL    HW175120  10.481   2.081   5.251 -1.8446  0.1563 -1.2369
21730SOL    HW275121  10.391   2.140   5.358 -0.1619 -0.5278  0.6219
21731SOL     OW75122   1.153  12.470   0.098  0.0298 -0.0835 -0.0702
21731SOL    HW175123   1.200  12.444   0.177 -1.1031 -1.3754  0.2292
21731SOL    HW275124   1.061  12.471   0.124 -0.1813  2.1521 -0.6930
21732SOL     OW75125   2.778   6.396  10.904  0.5852 -0.0747  0.1319
21732SOL    HW175126   2.853   6.427  10.853 -0.0897  0.1293 -0.7832
21732SOL    HW275127   2.812   6.323  10.955  1.7793  1.0110  0.9476
21733SOL     OW75128   2.017   5.984   4.560  0.4448 -0.2328 -0.0013
21733SOL    HW175129   2.056   5.961   4.645  1.4080  1.9710  0.2450
21733SOL    HW275130   1.955   6.054   4.581 -2.8760 -2.7327 -0.5726
21734SOL     OW75131  12.308  13.050  12.899 -0.1341 -0.0808 -0.1757
21734SOL    HW175132  12.265  13.091  12.824  0.4388 -1.2256 -1.1633
21734SOL    HW275133  12.246  13.060  12.971 -0.9641  0.4975 -0.9522
21735SOL     OW75134  10.540   7.735   5.439 -0.3735  0.1807 -0.2871
21735SOL    HW175135  10.570   7.738   5.348 -0.3507  1.7955 -0.2586
21735SOL    HW275136  10.566   7.648   5.470 -0.0667 -0.2652 -1.7121
21736SOL     OW75137   1.430   4.676   6.448  0.1618 -0.4490 -0.0420
21736SOL    HW175138   1.403   4.731   6.375 -0.3129 -1.4819 -0.6540
21736SOL    HW275139   1.351   4.665   6.501  0.4374  0.0674  0.4967
21737SOL     OW75140   2.768   6.666   6.865 -0.2946 -0.2418  0.3543
21737SOL    HW175141   2.673   6.659   6.860 -0.4145  1.7274 -2.7532
21737SOL    HW275142   2.785   6.700   6.952 -2.2632 -2.1047  1.5526
21738SOL     OW75143   3.483   7.080   5.164 -0.2363 -0.3483 -0.2760
21738SOL    HW175144   3.574   7.100   5.146 -0.0046 -1.1369  0.0028
21738SOL    HW275145   3.444   7.164   5.188  0.5687 -0.1315  0.2660
21739SOL     OW75146   4.185   8.313   2.966 -0.4406 -0.9753  0.4123
21739SOL    HW175147   4.139   8.241   3.010  1.3614 -1.1516  2.1643
21739SOL    HW275148   4.233   8.270   2.896 -0.9570 -1.1645  0.1676
21740SOL     OW75149   9.018  10.861   3.378  0.0282  0.1557 -0.0048
21740SOL    HW175150   9.106  10.830   3.355  0.3214 -0.1244  1.4202
21740SOL    HW275151   9.023  10.884   3.470 -1.3842  0.1899  0.0970
21741SOL     OW75152  11.019  13.038   7.152  0.0523 -0.2062  0.2012
21741SOL    HW175153  10.932  13.002   7.168  0.3791 -2.6358 -2.4853
21741SOL    HW275154  11.021  13.052   7.057  1.8379  2.0386  0.5061
21742SOL     OW75155   7.958   0.377  11.307 -0.6448 -0.6523 -0.2238
21742SOL    HW175156   7.982   0.328  11.386 -1.9596 -0.0315  0.6044
21742SOL    HW275157   7.965   0.313  11.236  2.3468 -0.7607  0.0642
21743SOL     OW75158   0.940   8.196   2.917  0.4913  0.3412 -0.0701
21743SOL    HW175159   0.954   8.111   2.957  1.4805  1.7488  2.8199
21743SOL    HW275160   1.016   8.209   2.860  0.2206 -0.7596 -0.7007
21744SOL     OW75161  12.728   4.319   3.473  0.1694 -0.1905  0.3420
21744SOL    HW175162  12.642   4.296   3.508 -0.7647 -0.1704 -1.7833
21744SOL    HW275163  12.710   4.384   3.405  2.0077  0.7290  0.6482
21745SOL     OW75164   4.029   0.514   1.836 -0.4991 -0.2059 -0.2073
21745SOL    HW175165   4.031   0.541   1.744  0.0381  3.4442  0.7245
21745SOL    HW275166   4.111   0.545   1.873 -1.0966 -0.7513  1.7134
21746SOL     OW75167   9.994  12.159  12.289  0.0696 -0.3522  0.5152
21746SOL    HW175168   9.912  12.152  12.240  0.5636 -0.2874 -0.3588
21746SOL    HW275169   9.968  12.182  12.378 -0.8421 -0.1041  0.1925
21747SOL     OW75170   5.678  10.420  12.673  0.0334  0.4161 -0.6016
21747SOL    HW175171   5.653  10.454  12.759 -0.5465  0.4572 -0.7860
21747SOL    HW275172   5.729  10.492  12.634  1.4127 -0.0787  0.1991
21748SOL     OW75173  10.556   7.725   4.702 -0.0627 -0.3661  0.6531
21748SOL    HW175174  10.511   7.809   4.698 -0.4416 -0.6041 -2.3470
21748SOL    HW275175  10.486   7.660   4.697  0.3816 -0.7568 -1.7528
21749SOL     OW75176  12.028   9.157   3.914 -0.2484 -0.1308 -0.2390
21749SOL    HW175177  11.995   9.247   3.924 -2.0142 -0.4059 -2.5832
21749SOL    HW275178  11.984   9.108   3.983 -0.2619  0.5730  0.2674
21750SOL     OW75179   6.124  12.366   6.822  0.3788 -0.4301  0.2375
21750SOL    HW175180   6.154  12.296   6.880  0.4848 -0.1018  0.5828
21750SOL    HW275181   6.181  12.440   6.842 -1.5655  0.7053  1.9766
21751SOL     OW75182   4.482  11.744   6.887  0.1617 -0.2344  0.0987
21751SOL    HW175183   4.387  11.740   6.877 -0.2162  1.8239  2.1631
21751SOL    HW275184   4.508  11.826   6.847  1.0137 -0.5373  0.0018
21752SOL     OW75185  11.102   4.352   4.092  0.0390 -0.3273 -0.2495
21752SOL    HW175186  11.017   4.309   4.085  0.8610 -2.0368 -0.1209
21752SOL    HW275187  11.148   4.305   4.162  0.9399  0.8457 -0.0152
21753SOL     OW75188   3.366   2.755   5.748 -0.1664  0.5436 -0.6799
21753SOL    HW175189   3.385   2.720   5.835  0.6979  1.0820 -0.6420
21753SOL    HW275190   3.447   2.745   5.699 -1.0282 -1.0453 -1.9056
21754SOL     OW75191   4.519   3.365   7.676  0.2977  0.5033 -0.2270
21754SOL    HW175192   4.540   3.456   7.700 -2.6323  1.0918  0.6375
21754SOL    HW275193   4.455   3.374   7.606  0.1697 -0.9099 -0.3094
21755SOL     OW75194   9.347   4.142   5.615 -0.5425  0.1412 -0.4536
21755SOL    HW175195   9.393   4.167   5.535 -0.6735 -1.0884 -0.9402
21755SOL    HW275196   9.264   4.105   5.585 -0.2926 -1.0017  0.1797
21756SOL     OW75197   4.074   5.887  13.196 -0.0817  0.6513 -0.0432
21756SOL    HW175198   4.099   5.808  13.148 -0.7381  0.2183  0.3144
21756SOL    HW275199   3.983   5.904  13.168 -0.7026  0.0257  1.5116
21757SOL     OW75200   7.953  10.496   3.896  0.1708 -0.1352 -0.2140
21757SOL    HW175201   8.029  10.466   3.846  1.4728 -0.1670  1.6463
21757SOL    HW275202   7.913  10.416   3.929 -0.0842 -0.0706 -0.3612
21758SOL     OW75203  11.926   6.628   5.957  0.1664 -0.0617  0.3005
21758SOL    HW175204  11.894   6.580   6.034 -1.3768 -0.2656 -0.4319
21758SOL    HW275205  12.001   6.577   5.926  0.2656 -0.4514  1.1435
21759SOL     OW75206   6.812   6.777   5.718  0.4527  0.0247 -0.8009
21759SOL    HW175207   6.812   6.717   5.644  0.2046  1.0881 -1.6853
21759SOL    HW275208   6.777   6.859   5.683  0.8298  0.7080  0.3555
21760SOL     OW75209   8.025  11.843   0.179 -0.4477  0.3182 -0.1192
21760SOL    HW175210   8.064  11.881   0.100  1.6960  0.4555  0.9265
21760SOL    HW275211   8.088  11.776   0.206 -0.6853  0.8726  1.9460
21761SOL     OW75212  12.718   0.609   6.399  0.4957  0.3899  0.2223
21761SOL    HW175213  12.645   0.641   6.346  0.3978  0.2994  0.3014
21761SOL    HW275214  12.731   0.676   6.465  1.0542  0.8266 -0.3185
21762SOL     OW75215  12.648   1.112   7.845 -0.2629 -0.0390 -0.3889
21762SOL    HW175216  12.656   1.187   7.786  3.6194 -0.9640 -1.3398
21762SOL    HW275217  12.684   1.143   7.928 -1.9117  0.0852  0.3074
21763SOL     OW75218   0.842   0.291  11.126 -0.3914 -0.2929 -0.3963
21763SOL    HW175219   0.840   0.221  11.191 -1.3619  0.5176  0.4770
21763SOL    HW275220   0.763   0.278  11.074 -0.7775  0.3672  0.0139
21764SOL     OW75221  11.602   7.483   7.890  0.1561 -0.3550 -0.4569
21764SOL    HW175222  11.592   7.387   7.894 -2.3067 -0.1640 -0.3626
21764SOL    HW275223  11.608   7.510   7.982  1.0205 -0.4115 -0.4895
21765SOL     OW75224   7.891   1.019  13.035  0.4759 -0.2151 -0.2008
21765SOL    HW175225   7.899   1.003  12.941  0.9657  1.3788 -0.4656
21765SOL    HW275226   7.949   0.954  13.075  0.7350 -0.5164 -1.0351
21766SOL     OW75227   8.924   5.711   3.242  0.6316 -0.5658  0.0181
21766SOL    HW175228   9.019   5.715   3.242  0.6279  0.0219  1.4894
21766SOL    HW275229   8.903   5.626   3.203  1.8317 -1.9302  2.1900
21767SOL     OW75230   5.782   0.211  11.989 -0.0338 -0.0588 -0.3863
21767SOL    HW175231   5.693   0.199  11.955  0.1327 -1.1432 -0.4917
21767SOL    HW275232   5.802   0.303  11.974  0.2695 -0.5664 -3.8386
21768SOL     OW75233   3.291   1.614   8.191 -0.2154  0.0993 -0.3405
21768SOL    HW175234   3.246   1.529   8.197 -2.0925  0.9970 -0.8153
21768SOL    HW275235   3.383   1.594   8.207 -0.4824 -2.1474 -1.2385
21769SOL     OW75236  10.347  11.271  12.919  0.0256  0.3266 -0.3301
21769SOL    HW175237  10.317  11.198  12.865  1.1942 -0.1712 -0.3356
21769SOL    HW275238  10.294  11.264  12.999  0.0209 -0.4432 -0.3875
21770SOL     OW75239  11.799   3.312  10.223 -0.8881  0.1587 -0.1018
21770SOL    HW175240  11.713   3.331  10.260  0.4198  0.1395  3.2748
21770SOL    HW275241  11.831   3.237  10.272  0.5754 -0.7025 -2.1964
21771SOL     OW75242   2.910   7.109   7.227 -0.0634 -0.7056  1.0927
21771SOL    HW175243   3.004   7.117   7.210 -0.4193 -0.5452 -1.0531
21771SOL    HW275244   2.878   7.200   7.227 -0.3820 -0.8161  0.7416
21772SOL     OW75245   3.498   8.975   6.023 -0.1723  0.1339  0.8374
21772SOL    HW175246   3.495   9.070   6.034  1.6232  0.1632  1.2858
21772SOL    HW275247   3.483   8.961   5.930  2.6909  1.0865  0.1599
21773SOL     OW75248   9.834   9.966   0.684  0.1646  0.0008  0.7471
21773SOL    HW175249   9.752  10.013   0.667 -0.1084 -1.0350 -1.0277
21773SOL    HW275250   9.900  10.035   0.689 -0.3142  0.6546 -1.1921
21774SOL     OW75251   0.719   2.919   9.820 -0.4039  0.0791 -0.6054
21774SOL    HW175252   0.656   2.862   9.863 -1.0438  0.6809 -0.7441
21774SOL    HW275253   0.804   2.890   9.854 -0.7993 -0.2796  0.0977
21775SOL     OW75254   3.546   8.863   8.724  0.1878 -0.0008  0.1202
21775SOL    HW175255   3.528   8.954   8.701  1.1474 -0.1252 -1.2530
21775SOL    HW275256   3.461   8.819   8.714 -0.2558  0.6964  0.6754
21776SOL     OW75257  13.156   9.987   0.156  0.3544 -0.2752 -0.2132
21776SOL    HW175258  13.200   9.981   0.072  1.8030  3.8201  0.0326
21776SOL    HW275259  13.227  10.002   0.219 -0.9145 -0.3924  1.3131
21777SOL     OW75260  13.180   0.751  10.023  0.1168 -0.3775  0.2022
21777SOL    HW175261  13.130   0.758  10.105  0.2064 -2.2036  0.4568
21777SOL    HW275262  13.256   0.699  10.046 -0.8537 -2.6999 -1.4201
21778SOL     OW75263   4.356   7.390   0.568 -0.0658 -0.4432 -0.4352
21778SOL    HW175264   4.427   7.387   0.632  1.2632 -0.8378 -1.8515
21778SOL    HW275265   4.282   7.426   0.616  0.9653 -0.3975  1.2176
21779SOL     OW75266  11.107   8.731   5.441 -0.3391 -0.1225 -0.2948
21779SOL    HW175267  11.157   8.712   5.521  0.6463 -0.2944 -0.9382
21779SOL    HW275268  11.018   8.747   5.472  0.1757  0.5239  0.9246
21780SOL     OW75269  12.611   0.507   9.467 -0.2754 -0.1124  0.0195
21780SOL    HW175270  12.652   0.544   9.389 -0.5623  0.5715  0.1869
21780SOL    HW275271  12.551   0.440   9.434  2.3758 -2.6210 -0.1572
21781SOL     OW75272  11.081   1.803  12.065 -0.1225  0.4991 -0.0315
21781SOL    HW175273  11.080   1.893  12.032  0.3771  1.3955  2.1679
21781SOL    HW275274  11.103   1.813  12.158 -0.2634 -1.8989  0.3090
21782SOL     OW75275  10.463   7.382   2.016 -0.2845  0.3426  0.6027
21782SOL    HW175276  10.473   7.380   2.112 -0.2399 -0.5211  0.5920
21782SOL    HW275277  10.540   7.429   1.985 -1.4419  2.7025  1.1081
21783SOL     OW75278   5.413   8.870   1.630 -0.1046 -0.0496  0.1736
21783SOL    HW175279   5.331   8.835   1.595 -0.2262 -1.3290  1.6321
21783SOL    HW275280   5.443   8.931   1.563 -2.8691  1.4380  0.1426
21784SOL     OW75281   7.233   6.958   9.998  0.0006 -0.6581  0.1823
21784SOL    HW175282   7.300   6.937  10.064 -0.2287 -0.3105  0.5260
21784SOL    HW275283   7.248   7.050   9.978 -0.8869 -0.3614  0.8502
21785SOL     OW75284   9.968   0.162   9.804  0.1089 -0.7871  0.0312
21785SOL    HW175285  10.059   0.190   9.815 -0.2277 -0.6886  3.7949
21785SOL    HW275286   9.967   0.072   9.837 -1.0612 -1.1003 -0.7844
21786SOL     OW75287  10.255   6.935   1.972 -0.2607 -0.1219  0.2265
21786SOL    HW175288  10.241   6.853   1.926 -0.9370 -0.0475  0.2917
21786SOL    HW275289  10.179   6.944   2.030  1.0577 -0.7291  2.1630
21787SOL     OW75290  11.183   7.880   2.178  0.5234 -0.5745 -0.1314
21787SOL    HW175291  11.192   7.910   2.088  1.6685 -1.4605 -0.3329
21787SOL    HW275292  11.130   7.800   2.171  1.2896 -1.0908 -0.1222
21788SOL     OW75293   8.600  11.779  13.256  0.5676  0.0443  0.3075
21788SOL    HW175294   8.679  11.778  13.310  0.0260 -0.8729  1.1251
21788SOL    HW275295   8.561  11.865  13.273  0.7269  0.0064  0.9148
21789SOL     OW75296   4.162   8.473   4.814  0.4895  0.1856 -0.2517
21789SOL    HW175297   4.221   8.522   4.756 -0.2757  1.4684  0.0101
21789SOL    HW275298   4.218   8.406   4.853  0.8577 -1.2941 -3.0566
21790SOL     OW75299  11.906   6.860   3.715 -0.7479  0.2906 -0.4546
21790SOL    HW175300  11.855   6.939   3.726  0.3023  0.8681  0.4683
21790SOL    HW275301  11.976   6.884   3.653 -0.5837  0.0129 -0.3813
21791SOL     OW75302   0.454   0.909   2.302  0.4341 -0.1533 -0.1939
21791SOL    HW175303   0.416   0.986   2.259  1.1600  0.0073 -0.5600
21791SOL    HW275304   0.383   0.876   2.359 -0.8821 -0.9469 -2.1891
21792SOL     OW75305  10.126   1.918  10.573  0.2406  0.2545  0.5910
21792SOL    HW175306  10.193   1.947  10.511 -1.1958 -0.9139 -1.6390
21792SOL    HW275307  10.133   1.979  10.646  1.2721  2.4724 -1.2358
21793SOL     OW75308   7.398  11.198   7.893 -0.7090  0.4448  0.2161
21793SOL    HW175309   7.322  11.191   7.951 -1.1987  0.9028 -0.3673
21793SOL    HW275310   7.372  11.260   7.826 -0.3137 -0.4379 -0.7809
21794SOL     OW75311   4.171   6.194  11.450 -0.0510  0.1149  0.4654
21794SOL    HW175312   4.137   6.106  11.437 -1.3451  0.5897  0.5149
21794SOL    HW275313   4.149   6.216  11.540  1.5377 -0.0237  0.9183
21795SOL     OW75314   0.065   2.009   1.289 -0.1962  0.0930 -0.3351
21795SOL    HW175315   0.049   1.960   1.369  2.6892  0.7054  0.7345
21795SOL    HW275316  -0.012   1.992   1.235 -1.2105 -2.1759  1.6279
21796SOL     OW75317   5.799  11.096   6.792  0.2246 -0.3141 -0.1041
21796SOL    HW175318   5.704  11.095   6.780  0.1228  1.4698  0.3552
21796SOL    HW275319   5.812  11.109   6.886  0.9236 -0.2584 -0.2030
21797SOL     OW75320   4.779   1.913   2.300  0.1812 -0.0012  0.1230
21797SOL    HW175321   4.873   1.930   2.297 -0.0800  1.6222  0.3487
21797SOL    HW275322   4.742   1.966   2.229 -0.5675 -0.7643 -0.0869
21798SOL     OW75323   8.803   0.887   0.185 -0.2259  0.4584  0.0012
21798SOL    HW175324   8.783   0.830   0.260  1.2432  0.9599  0.8038
21798SOL    HW275325   8.767   0.973   0.211  1.1366  0.8788  0.6033
21799SOL     OW75326   4.523   2.076   6.697  0.0801 -0.5920 -0.5353
21799SOL    HW175327   4.454   2.012   6.714  0.7326 -1.1191  0.1867
21799SOL    HW275328   4.524   2.132   6.774 -1.0314  0.8387 -1.5006
21800SOL     OW75329   2.077   5.833  11.105 -0.8248  0.3694 -0.5041
21800SOL    HW175330   2.132   5.834  11.027 -0.9059 -1.1732 -0.6056
21800SOL    HW275331   2.053   5.741  11.117  0.0048  0.3969  1.9294
21801SOL     OW75332   6.151   1.412  11.576 -0.2568  0.1846  0.3676
21801SOL    HW175333   6.215   1.346  11.552 -0.9620 -0.7884  1.0667
21801SOL    HW275334   6.066   1.372  11.557 -0.7974  0.0098  2.7758
21802SOL     OW75335   3.970   9.643   8.305  0.3020 -0.0690 -0.4478
21802SOL    HW175336   3.909   9.671   8.373 -1.4644  2.0308 -2.6934
21802SOL    HW275337   3.915   9.599   8.240  1.9579 -2.1997 -0.5305
21803SOL     OW75338   4.415  10.636  12.970 -0.4400  0.0997  0.8280
21803SOL    HW175339   4.418  10.704  12.903 -0.3786 -1.0164 -0.3307
21803SOL    HW275340   4.342  10.661  13.027  0.6927  2.0781  1.5015
21804SOL     OW75341  12.727   9.427   3.411  0.1242 -0.1549  0.0748
21804SOL    HW175342  12.650   9.480   3.430  0.8268  0.8629  0.1352
21804SOL    HW275343  12.721   9.352   3.470 -0.5736  0.1551  0.3963
21805SOL     OW75344  12.269  10.400   7.429 -0.1792 -0.7477  0.0829
21805SOL    HW175345  12.319  10.442   7.359  0.8170 -0.0494  1.1634
21805SOL    HW275346  12.189  10.453   7.436  0.2469 -0.1066  0.2244
21806SOL     OW75347  12.934   8.907   0.858  0.0002 -0.3311 -0.1414
21806SOL    HW175348  12.946   8.982   0.799  0.7375 -0.3806 -0.0637
21806SOL    HW275349  12.839   8.897   0.864 -0.1310  1.0711  0.4470
21807SOL     OW75350   7.576   6.621   6.010 -0.3306  0.5067 -0.2017
21807SOL    HW175351   7.494   6.665   6.033  0.4871  1.3839  1.1665
21807SOL    HW275352   7.613   6.594   6.094  1.3960  1.2742 -0.6873
21808SOL     OW75353   1.687   9.603   5.545  0.0067  0.0599 -0.5032
21808SOL    HW175354   1.698   9.508   5.538  2.7285  0.2617 -0.0588
21808SOL    HW275355   1.643   9.628   5.464 -2.5678 -1.7433  0.2164
21809SOL     OW75356  11.668   5.051   2.686 -1.2221  0.3510 -0.0603
21809SOL    HW175357  11.761   5.069   2.694 -1.5496  2.0840  0.2678
21809SOL    HW275358  11.632   5.069   2.772 -2.1142  1.5157 -0.6457
21810SOL     OW75359   3.798  11.831   1.480  0.5880  0.2590  0.6005
21810SOL    HW175360   3.715  11.859   1.520  0.8985  2.9822 -0.4736
21810SOL    HW275361   3.771  11.769   1.412 -0.1639 -2.1043  2.8788
21811SOL     OW75362  11.387   2.372   6.921  0.2904  0.0398 -0.2549
21811SOL    HW175363  11.342   2.457   6.916 -0.6576 -0.4473 -0.2146
21811SOL    HW275364  11.322   2.309   6.889  1.1832 -0.6096 -0.8313
21812SOL     OW75365   6.087  10.270   9.365 -0.1627  0.0280 -0.2696
21812SOL    HW175366   6.007  10.295   9.318  0.1193  0.9966 -0.2661
21812SOL    HW275367   6.108  10.347   9.418 -0.0185 -0.7435  0.8281
21813SOL     OW75368   8.564   2.750  11.357 -0.0488  0.1562  0.1613
21813SOL    HW175369   8.631   2.804  11.401 -1.0940  0.3780  1.5597
21813SOL    HW275370   8.526   2.698  11.428  1.3612 -2.9997 -1.2156
21814SOL     OW75371  12.235   5.682   4.296  0.3431  0.7796  0.2154
21814SOL    HW175372  12.149   5.644   4.276  0.3913 -0.2634  1.8050
21814SOL    HW275373  12.291   5.654   4.224 -0.3938  0.5523 -0.2788
21815SOL     OW75374  12.593  10.752   0.743 -0.1606 -0.0512  0.7224
21815SOL    HW175375  12.615  10.822   0.682  0.2990  0.4971  1.5070
21815SOL    HW275376  12.549  10.796   0.816 -0.5935 -0.6834  0.8561
21816SOL     OW75377   3.754   8.310   9.242  0.1037  0.1411  0.0632
21816SOL    HW175378   3.815   8.343   9.308 -0.1585 -0.3075  0.5346
21816SOL    HW275379   3.805   8.244   9.194  1.0799  2.1151 -1.7793
21817SOL     OW75380   9.407   9.212   1.544  0.7670  0.2708  0.2231
21817SOL    HW175381   9.339   9.189   1.607 -0.0741  0.1524 -0.7038
21817SOL    HW275382   9.385   9.301   1.516  2.0040  0.9143  1.1956
21818SOL     OW75383   3.965   9.368   3.533 -0.3803  0.7294  0.0239
21818SOL    HW175384   4.048   9.321   3.547  0.0653  1.0217 -1.4439
21818SOL    HW275385   3.933   9.387   3.621  0.8878  0.2118  0.6219
21819SOL     OW75386  10.776   9.266  12.760 -0.4128 -0.1199  0.1774
21819SOL    HW175387  10.780   9.285  12.854  0.3866  0.1347  0.0960
21819SOL    HW275388  10.745   9.176  12.755  0.9156 -0.6360  0.7464
21820SOL     OW75389   6.282   1.561   6.463 -0.8465  0.2390 -0.5552
21820SOL    HW175390   6.257   1.585   6.374  1.5819  0.7681 -1.1789
21820SOL    HW275391   6.364   1.512   6.453 -2.3517 -2.9132  1.1695
21821SOL     OW75392   4.057   3.488   8.210  0.7484  0.1122  0.1942
21821SOL    HW175393   4.088   3.434   8.138 -2.5637 -0.3327 -1.1059
21821SOL    HW275394   4.024   3.424   8.274 -0.7708  0.4709 -0.1733
21822SOL     OW75395   2.652   5.322   5.710 -0.2905  0.3529 -0.3945
21822SOL    HW175396   2.592   5.361   5.775 -2.4304 -1.8255 -0.9180
21822SOL    HW275397   2.637   5.228   5.717  3.0502 -0.3140 -0.7102
21823SOL     OW75398   3.149   1.439   2.719  0.2019 -0.2812  0.0499
21823SOL    HW175399   3.216   1.506   2.733  0.2240 -0.1706 -0.5337
21823SOL    HW275400   3.168   1.406   2.631 -1.1516  0.4916 -0.5647
21824SOL     OW75401  12.105   2.046  12.793 -0.0174  0.4538 -0.3231
21824SOL    HW175402  12.139   2.024  12.880 -1.3694  0.0403  0.1172
21824SOL    HW275403  12.016   2.013  12.793 -0.2935  1.1482 -1.6043
21825SOL     OW75404   0.737  12.126  11.590 -0.2233  0.1850 -0.6748
21825SOL    HW175405   0.755  12.089  11.503  3.1921  2.1073 -0.9514
21825SOL    HW275406   0.781  12.066  11.651  1.8874  1.5360 -0.7931
21826SOL     OW75407  12.456   6.527   1.888 -0.3663 -0.1687 -0.2138
21826SOL    HW175408  12.488   6.552   1.801 -0.7191  2.0095  0.2114
21826SOL    HW275409  12.453   6.432   1.887 -0.4125 -0.1899 -2.6020
21827SOL     OW75410  13.187  13.216   6.413 -0.0012  0.2415 -0.0989
21827SOL    HW175411  13.105  13.236   6.458 -0.3229 -1.6124  0.2113
21827SOL    HW275412  13.233  13.300   6.410 -1.2168  1.0080  1.1192
21828SOL     OW75413  10.875   0.664   9.343  0.0510  0.2552  0.3462
21828SOL    HW175414  10.832   0.582   9.318 -1.0559  1.6081 -2.5565
21828SOL    HW275415  10.811   0.710   9.397  1.3118 -1.3569  3.5183
21829SOL     OW75416  12.023   9.330   8.727 -0.0263  0.1103 -0.4121
21829SOL    HW175417  11.997   9.266   8.661  2.6537 -0.5073 -0.9617
21829SOL    HW275418  12.040   9.410   8.678 -1.2496  0.6452 -0.0000
21830SOL     OW75419  12.361   8.240   3.006  0.2856 -0.0193  0.0528
21830SOL    HW175420  12.353   8.203   2.918 -1.2164  0.9956 -0.2801
21830SOL    HW275421  12.314   8.177   3.062 -0.6489  0.4044 -0.2286
21831SOL     OW75422   5.343   5.232  12.788 -0.1880 -0.4939 -0.1329
21831SOL    HW175423   5.351   5.221  12.882  0.7168  0.8205 -0.0427
21831SOL    HW275424   5.413   5.179  12.751  0.0299 -0.2819 -0.0228
21832SOL     OW75425  12.912   2.486  12.025 -0.1441  0.2654  0.6142
21832SOL    HW175426  13.002   2.519  12.020  0.0990 -0.0617  2.2633
21832SOL    HW275427  12.922   2.392  12.040 -0.8057 -0.0913 -0.9735
21833SOL     OW75428  11.872  11.140   0.846  0.0012 -0.1237 -0.7289
21833SOL    HW175429  11.865  11.189   0.928  1.8484  0.9185 -1.1362
21833SOL    HW275430  11.892  11.050   0.873 -2.9238 -0.6493  0.0126
21834SOL     OW75431   1.187   4.287  11.271 -0.4840 -0.1270 -0.3650
21834SOL    HW175432   1.261   4.233  11.299 -0.0243 -0.0630 -1.4100
21834SOL    HW275433   1.183   4.357  11.336  0.4507 -0.0672 -0.3491
21835SOL     OW75434   0.454   8.462  11.598  0.5269 -0.4816  0.6350
21835SOL    HW175435   0.505   8.453  11.518  0.5484  1.2186  0.4206
21835SOL    HW275436   0.437   8.556  11.605 -0.0974 -0.6850  2.2421
21836SOL     OW75437  11.429   8.169   8.901  0.5541 -0.3188 -0.1328
21836SOL    HW175438  11.438   8.087   8.852 -1.2126 -2.2591  2.4992
21836SOL    HW275439  11.445   8.144   8.992  2.4300  2.8383  0.5438
21837SOL     OW75440   9.761   2.563   4.214  0.0140 -0.0110 -0.2767
21837SOL    HW175441   9.800   2.541   4.129 -0.3392  1.3018 -0.8092
21837SOL    HW275442   9.804   2.504   4.276  2.1841  0.7301 -0.9801
21838SOL     OW75443   7.327   7.557  12.081  0.3572  0.1547  0.1733
21838SOL    HW175444   7.364   7.539  12.167 -0.3822  0.7585  0.6329
21838SOL    HW275445   7.402   7.568  12.024  0.8572 -0.9616  0.5835
21839SOL     OW75446   1.307  12.600   2.220 -0.5836  0.3513 -0.2091
21839SOL    HW175447   1.292  12.544   2.144  2.1351  2.3054 -2.4012
21839SOL    HW275448   1.283  12.688   2.190  0.1724  1.1302  1.3334
21840SOL     OW75449   3.985   8.763   4.894 -0.4857  0.1050 -0.1351
21840SOL    HW175450   4.006   8.847   4.854 -1.8041  0.4605 -0.1047
21840SOL    HW275451   3.967   8.705   4.820  1.0448 -0.3590 -0.1870
21841SOL     OW75452  11.136  13.102  13.115 -0.3549  0.5084 -0.1727
21841SOL    HW175453  11.226  13.134  13.115  0.1725 -0.8636  1.4292
21841SOL    HW275454  11.096  13.143  13.192 -0.8706  0.4644 -0.4113
21842SOL     OW75455  11.149   1.658   0.577  0.0520  0.2309 -0.7870
21842SOL    HW175456  11.231   1.629   0.616 -2.1170 -1.4800  2.9477
21842SOL    HW275457  11.107   1.578   0.544 -1.9431  0.3212  1.3081
21843SOL     OW75458   5.145   1.378   3.048  0.1656  0.7757 -0.2425
21843SOL    HW175459   5.166   1.295   3.092 -1.8247  0.7794  0.8164
21843SOL    HW275460   5.229   1.424   3.044  0.9558 -0.4840  0.8888
21844SOL     OW75461   8.956   0.609   4.124  0.1171 -0.4267  0.5381
21844SOL    HW175462   8.984   0.518   4.137  1.4138 -0.1041  0.1847
21844SOL    HW275463   8.879   0.603   4.067  2.3909 -1.1806 -2.7371
21845SOL     OW75464   3.485  10.582   8.782  0.2933 -0.0434  0.1970
21845SOL    HW175465   3.427  10.507   8.767 -0.1166  0.1775  0.6609
21845SOL    HW275466   3.440  10.655   8.741 -0.2709  0.3346  1.4625
21846SOL     OW75467   5.752   7.812  10.326 -0.1614 -0.1742  0.5770
21846SOL    HW175468   5.678   7.856  10.368 -0.2059  1.2382 -0.8908
21846SOL    HW275469   5.745   7.835  10.234  1.1220 -1.4568  0.1253
21847SOL     OW75470   0.798   6.369   9.725  0.4973  0.2737 -0.6446
21847SOL    HW175471   0.880   6.319   9.725 -0.4339 -1.3177  0.2504
21847SOL    HW275472   0.820   6.450   9.771  1.5593 -0.1726 -0.3263
21848SOL     OW75473   1.220   4.615   8.460 -0.2139 -0.0918  0.5535
21848SOL    HW175474   1.272   4.594   8.383 -1.3988  0.3153 -0.4052
21848SOL    HW275475   1.175   4.697   8.437 -2.8492 -1.4491  0.4474
21849SOL     OW75476   8.543   5.038   4.251  0.0101  0.1248  0.0904
21849SOL    HW175477   8.454   5.033   4.216  0.6168 -0.2717 -1.5251
21849SOL    HW275478   8.556   4.954   4.295 -0.4393  0.2259  0.4253
21850SOL     OW75479   2.323   1.597   3.992 -0.7212 -0.7250  0.1898
21850SOL    HW175480   2.296   1.554   4.073 -0.0806 -1.8223 -0.1455
21850SOL    HW275481   2.394   1.541   3.959  0.0114  0.5063 -0.3780
21851SOL     OW75482   5.707   6.241   0.470 -0.4412  0.7436  0.6599
21851SOL    HW175483   5.752   6.206   0.547 -0.8114  0.2352  0.6530
21851SOL    HW275484   5.748   6.326   0.455  1.1003 -0.0538  0.1400
21852SOL     OW75485   3.132   4.344   0.015  0.3145  0.7179 -0.0467
21852SOL    HW175486   3.067   4.402  -0.024 -0.2569  0.2776  0.2323
21852SOL    HW275487   3.138   4.372   0.107 -2.4634 -1.6975  1.0619
21853SOL     OW75488   5.276   0.312   1.849 -0.1083  0.1612 -0.1307
21853SOL    HW175489   5.245   0.262   1.925 -0.1019 -0.8209 -0.7506
21853SOL    HW275490   5.269   0.403   1.876 -0.0142 -0.1691  1.0872
21854SOL     OW75491   6.018   0.717   0.977  0.2146 -0.2855 -0.1182
21854SOL    HW175492   6.029   0.711   0.882  1.2300  1.3414 -0.1480
21854SOL    HW275493   6.093   0.670   1.013 -0.7496 -1.8488 -0.0712
21855SOL     OW75494   8.400  12.500   7.116 -0.2657  0.4786 -0.4538
21855SOL    HW175495   8.372  12.592   7.117  0.1223  0.5952 -0.2220
21855SOL    HW275496   8.377  12.469   7.029  0.7253  1.1508 -0.9667
21856SOL     OW75497   4.709   3.851   2.369 -0.4525  0.2779  0.1843
21856SOL    HW175498   4.615   3.870   2.361 -0.3130  1.2937  0.9015
21856SOL    HW275499   4.715   3.786   2.439 -0.5908  0.3503  0.2618
21857SOL     OW75500   1.837   7.199   5.162 -0.9053 -0.6355  0.0796
21857SOL    HW175501   1.863   7.242   5.244 -1.9967 -0.9787  0.6206
21857SOL    HW275502   1.754   7.240   5.139 -1.0574 -1.1836 -0.3724
21858SOL     OW75503   1.050   4.318  10.466  0.4983  0.4924  0.1363
21858SOL    HW175504   0.992   4.355  10.400 -0.4081 -0.8566  0.1526
21858SOL    HW275505   1.127   4.375  10.464  0.3407  0.7028 -1.8191
21859SOL     OW75506   9.983  12.151   3.337 -1.0949  0.1754  0.3218
21859SOL    HW175507   9.946  12.099   3.408 -0.9095 -0.4677 -0.0514
21859SOL    HW275508  10.040  12.214   3.381  0.6746 -1.5583  0.6290
21860SOL     OW75509  10.466   8.977   5.156  0.4409 -0.4197  0.0514
21860SOL    HW175510  10.420   9.000   5.075 -1.5142  0.7390  1.4217
21860SOL    HW275511  10.444   8.885   5.170 -2.2267  0.2853  1.0600
21861SOL     OW75512   9.405   9.585   6.921 -0.2555 -0.1092 -0.5515
21861SOL    HW175513   9.427   9.498   6.889  0.6036  0.0466 -0.3942
21861SOL    HW275514   9.313   9.578   6.947 -1.3952  0.0597 -4.0148
21862SOL     OW75515   6.769   8.141   5.368 -0.0746 -0.0978 -0.6820
21862SOL    HW175516   6.830   8.211   5.390 -0.2250  0.1019 -0.8971
21862SOL    HW275517   6.792   8.069   5.428 -0.8430  0.6169  0.4946
21863SOL     OW75518   5.608   6.662   8.941  0.0227  0.6273 -0.1991
21863SOL    HW175519   5.539   6.644   9.005  2.0013  0.0938  1.8911
21863SOL    HW275520   5.647   6.745   8.969  0.5666  0.6660 -1.0339
21864SOL     OW75521   8.844   0.932   4.889  0.3518  1.1264 -0.2696
21864SOL    HW175522   8.860   0.980   4.971  1.4910  0.9867 -0.4037
21864SOL    HW275523   8.792   0.856   4.917 -1.8858  2.6060 -0.1176
21865SOL     OW75524   5.643  10.481   9.070 -0.2577 -0.9477  0.2485
21865SOL    HW175525   5.616  10.506   8.982  0.6441 -2.1076 -0.3774
21865SOL    HW275526   5.628  10.559   9.123  0.5664  0.2350 -1.2136
21866SOL     OW75527  10.581   4.243   3.004 -0.2780  0.6143 -0.2372
21866SOL    HW175528  10.573   4.312   2.938 -0.3425  0.3187 -0.5418
21866SOL    HW275529  10.613   4.288   3.082  1.4670  0.7095 -0.9460
21867SOL     OW75530   4.854   1.884   9.045 -0.1623 -0.4123  0.3075
21867SOL    HW175531   4.792   1.912   9.113 -0.4934  1.5463 -0.7242
21867SOL    HW275532   4.915   1.957   9.037  1.3850 -1.6697  0.2059
21868SOL     OW75533   4.491   3.289   2.837 -0.3624  0.1515 -0.0358
21868SOL    HW175534   4.402   3.266   2.812 -0.1047  0.1789 -1.0030
21868SOL    HW275535   4.544   3.272   2.759  0.9170 -2.2854  1.2400
21869SOL     OW75536   4.996   5.238   5.683  0.2503  0.0207 -0.7421
21869SOL    HW175537   5.059   5.292   5.731  0.5248 -0.9871  0.0450
21869SOL    HW275538   5.045   5.207   5.607  1.4929 -2.5652  0.9727
21870SOL     OW75539  13.001   8.759   1.166 -0.3084 -0.2602 -0.0871
21870SOL    HW175540  12.945   8.791   1.096  0.0770  1.2232  0.2498
21870SOL    HW275541  13.041   8.680   1.131  0.9997  1.2071 -2.1378
21871SOL     OW75542   4.744  10.429   1.266 -0.3732 -0.0280 -0.3524
21871SOL    HW175543   4.695  10.349   1.246 -0.2245 -0.0450 -0.6426
21871SOL    HW275544   4.751  10.475   1.182  0.0566  0.0066 -0.2976
21872SOL     OW75545   7.268   1.648   0.753  0.1388 -0.3713 -0.9358
21872SOL    HW175546   7.274   1.552   0.749  1.7686 -0.3164 -0.4125
21872SOL    HW275547   7.334   1.678   0.689  1.8583  0.3732  1.0734
21873SOL     OW75548  12.727   0.604   9.232  0.2637 -0.4436 -0.1244
21873SOL    HW175549  12.793   0.535   9.236 -0.9558 -1.6610 -0.3749
21873SOL    HW275550  12.710   0.615   9.138  1.8983  1.6740 -0.2486
21874SOL     OW75551  11.342  12.442  10.713  0.2608  0.7466 -0.5066
21874SOL    HW175552  11.312  12.428  10.623 -0.2953  0.3482 -0.2650
21874SOL    HW275553  11.269  12.487  10.756 -0.8554 -1.8945  0.6081
21875SOL     OW75554   7.837   4.365   5.893  0.4612  0.3125  0.6912
21875SOL    HW175555   7.827   4.364   5.989  1.4702  0.2788  0.8040
21875SOL    HW275556   7.909   4.426   5.877 -2.7802  4.3669 -0.3958
21876SOL     OW75557  10.899   4.082   3.547  0.5396  0.4256  0.4888
21876SOL    HW175558  10.905   4.165   3.499 -0.4801  0.8666  1.0903
21876SOL    HW275559  10.857   4.022   3.486 -0.2902  0.8418  0.6370
21877SOL     OW75560   9.056   3.767   7.159  0.0356  0.0337  0.2395
21877SOL    HW175561   9.063   3.734   7.249  0.3490 -0.9665 -0.1381
21877SOL    HW275562   8.963   3.758   7.138  0.3102 -1.9420 -0.3194
21878SOL     OW75563   8.355   6.969   9.710  0.1279 -0.0162 -0.2337
21878SOL    HW175564   8.319   7.056   9.693 -0.0283  0.2182  1.1511
21878SOL    HW275565   8.383   6.937   9.624  0.1425  1.3781 -0.7775
21879SOL     OW75566   2.008  11.135  10.744  0.0647 -0.2652  0.8538
21879SOL    HW175567   2.082  11.190  10.716 -1.8772  1.9222 -0.3100
21879SOL    HW275568   2.004  11.066  10.678  1.5701 -0.9529  1.4379
21880SOL     OW75569  11.408  10.048  11.798  0.1540 -0.3631 -0.7480
21880SOL    HW175570  11.443  10.082  11.880  1.9256 -0.2673 -1.5130
21880SOL    HW275571  11.340  10.111  11.773 -0.2427 -0.2728  0.5021
21881SOL     OW75572   8.082   3.285   7.479 -0.3905 -0.1158 -0.4524
21881SOL    HW175573   8.082   3.204   7.531 -0.1068  0.7395  0.9120
21881SOL    HW275574   7.992   3.317   7.484 -0.3744 -0.0577 -0.5332
21882SOL     OW75575   1.128   1.346   6.230  0.3763  0.9109  0.1675
21882SOL    HW175576   1.197   1.297   6.185 -0.8313 -1.3876  0.6667
21882SOL    HW275577   1.169   1.376   6.311 -0.0547 -4.1458  2.6841
21883SOL     OW75578   5.172   4.342   3.702 -0.5071  0.7669  0.3024
21883SOL    HW175579   5.251   4.364   3.752 -0.2314 -1.7434  1.1195
21883SOL    HW275580   5.184   4.387   3.618  2.4907 -0.5194 -0.1214
21884SOL     OW75581   4.118   3.902  10.716 -0.2737  0.4836 -0.7970
21884SOL    HW175582   4.057   3.974  10.697  0.3538  0.9954 -0.9369
21884SOL    HW275583   4.168   3.933  10.792 -0.8120 -0.3279 -0.1048
21885SOL     OW75584   7.783  11.123  11.667 -0.2161  0.1000 -0.3312
21885SOL    HW175585   7.720  11.076  11.612 -0.5629 -0.2529  0.3511
21885SOL    HW275586   7.744  11.210  11.679  0.3838  0.5560 -1.5244
21886SOL     OW75587   0.291  11.868  12.502 -0.3269  0.4396  0.1588
21886SOL    HW175588   0.293  11.848  12.595  1.3945 -0.1037  0.0227
21886SOL    HW275589   0.204  11.839  12.474  0.1363 -2.0551  1.0332
21887SOL     OW75590  11.733   3.102  10.729  0.2536  0.0763  0.1248
21887SOL    HW175591  11.664   3.168  10.721  1.9763  1.8855 -0.4402
21887SOL    HW275592  11.773   3.119  10.814  0.8835 -0.0786 -0.1390
21888SOL     OW75593   7.831   4.418   3.619  0.5046 -0.0659 -1.0848
21888SOL    HW175594   7.847   4.460   3.704 -0.5997  0.3440 -1.0596
21888SOL    HW275595   7.737   4.404   3.617  0.2694  1.3559 -2.8749
21889SOL     OW75596   0.827   3.284   3.477 -0.4286 -0.8373  0.7001
21889SOL    HW175597   0.741   3.325   3.468 -0.6449 -0.9914  1.9908
21889SOL    HW275598   0.871   3.305   3.395 -1.6881 -0.7594  0.0070
21890SOL     OW75599  12.898   7.002  11.008  0.2085 -0.2110 -0.0201
21890SOL    HW175600  12.909   6.934  11.075 -0.6790 -1.4319 -1.0502
21890SOL    HW275601  12.846   7.070  11.051 -1.2818 -1.4571  0.2805
21891SOL     OW75602  10.789   3.612  11.445 -0.1922  0.4703  0.1112
21891SOL    HW175603  10.822   3.563  11.371  2.7736  0.1213  1.5113
21891SOL    HW275604  10.844   3.691  11.449 -2.1970  1.9517  0.2848
21892SOL     OW75605  11.557   9.868   6.033  0.8903  0.0878 -0.2439
21892SOL    HW175606  11.539   9.774   6.024  2.6261 -0.3312  0.1740
21892SOL    HW275607  11.543   9.886   6.126  0.0037  0.3796 -0.4310
21893SOL     OW75608   7.812   9.928   8.840  0.1562 -0.7852  0.4844
21893SOL    HW175609   7.859   9.850   8.809  0.7142 -0.8457  1.4605
21893SOL    HW275610   7.724   9.918   8.804  0.6994 -0.9800 -0.8715
21894SOL     OW75611  10.397   8.109   8.838 -0.2604  0.0048 -0.4830
21894SOL    HW175612  10.486   8.074   8.839 -0.9305 -1.9947  2.2179
21894SOL    HW275613  10.409   8.204   8.828  2.3147 -0.0217  1.2459
21895SOL     OW75614   5.399  10.117   8.653 -0.4840 -0.1187 -0.1923
21895SOL    HW175615   5.369  10.180   8.718  1.4222  1.3783 -0.6691
21895SOL    HW275616   5.344  10.040   8.666 -1.3354  0.7969  1.9737
21896SOL     OW75617   0.213   5.312   7.804  0.6089  0.3213 -0.1888
21896SOL    HW175618   0.257   5.232   7.775  1.3207  1.0606 -1.2120
21896SOL    HW275619   0.193   5.296   7.896  2.4457 -0.3144  0.1441
21897SOL     OW75620   7.451   2.255   0.803  0.5157 -0.4784 -0.6939
21897SOL    HW175621   7.514   2.187   0.781  0.2624 -0.7516 -0.5806
21897SOL    HW275622   7.436   2.302   0.721 -0.8951 -1.8823 -1.2897
21898SOL     OW75623   3.284  11.593  13.148  0.0574  0.1463  0.8227
21898SOL    HW175624   3.337  11.583  13.227 -1.7175 -0.9179  1.9438
21898SOL    HW275625   3.288  11.687  13.129 -0.4307  0.6540  2.9158
21899SOL     OW75626   8.426   3.086   4.524  0.3780 -0.2202  0.2870
21899SOL    HW175627   8.456   3.120   4.609 -0.2910  0.5946  0.2119
21899SOL    HW275628   8.506   3.059   4.480  0.9706  1.2894  0.3630
21900SOL     OW75629   5.100  13.122  10.542 -0.5303 -0.6882  0.1399
21900SOL    HW175630   5.023  13.116  10.486 -1.0764  0.6322  0.7124
21900SOL    HW275631   5.106  13.037  10.585 -1.5146 -0.8823 -0.0987
21901SOL     OW75632   5.876  11.113  11.200 -0.3493 -0.5409 -0.0819
21901SOL    HW175633   5.893  11.080  11.288  1.1243 -0.2625 -0.2443
21901SOL    HW275634   5.935  11.063  11.144 -1.2556 -0.7009 -0.9296
21902SOL     OW75635   5.698  10.378   5.516  0.2281 -0.0209  0.2799
21902SOL    HW175636   5.691  10.399   5.609  1.9298 -0.7952  0.6199
21902SOL    HW275637   5.721  10.286   5.514  0.9149  0.1585 -0.8792
21903SOL     OW75638   4.965  12.231   5.030 -0.3663  0.5517  0.0775
21903SOL    HW175639   5.027  12.245   5.102  0.7582  0.7873 -0.9086
21903SOL    HW275640   5.006  12.163   4.976 -0.4356  1.4815 -1.1741
21904SOL     OW75641   1.668  12.672   1.958 -0.6404 -0.3748 -0.0980
21904SOL    HW175642   1.656  12.710   2.046 -0.1722  0.0198 -0.2013
21904SOL    HW275643   1.726  12.734   1.913 -2.4046  0.4621 -1.3348
21905SOL     OW75644   9.053   7.727   3.304  0.2738  0.1049 -0.0516
21905SOL    HW175645   9.137   7.761   3.335  0.0461  0.4760  0.1663
21905SOL    HW275646   9.072   7.637   3.278  0.2210 -0.7102  2.4372
21906SOL     OW75647   4.597   5.802   0.668  0.1510 -0.3524 -0.2128
21906SOL    HW175648   4.583   5.788   0.761  2.2019  1.4176  0.4328
21906SOL    HW275649   4.687   5.772   0.652 -0.0849 -0.4209 -1.5766
21907SOL     OW75650   9.977  10.694   1.817 -0.2337 -0.1801  0.2741
21907SOL    HW175651   9.951  10.626   1.879 -0.0093 -0.3319  0.2005
21907SOL    HW275652  10.065  10.720   1.845  0.5580 -1.4147 -0.9609
21908SOL     OW75653   5.255   6.887   1.843  0.8818  0.2148  0.1706
21908SOL    HW175654   5.171   6.846   1.865  0.4383  1.2371  0.4512
21908SOL    HW275655   5.259   6.964   1.899  1.6035  0.6644 -0.4800
21909SOL     OW75656   3.134   4.226   4.702 -0.0617  0.2775  0.1486
21909SOL    HW175657   3.088   4.192   4.625  0.8994 -2.3417  0.6100
21909SOL    HW275658   3.064   4.246   4.765 -0.7601  0.6416 -0.7245
21910SOL     OW75659  10.747  11.244   1.383 -0.3999  0.0571 -0.3754
21910SOL    HW175660  10.797  11.204   1.455 -0.8424  0.7599  0.3420
21910SOL    HW275661  10.656  11.225   1.404 -0.7948  2.7451  0.9161
21911SOL     OW75662   0.338   7.409   0.623  0.1184  0.1689  0.1724
21911SOL    HW175663   0.332   7.486   0.679  0.2065  0.6177 -0.4206
21911SOL    HW275664   0.263   7.355   0.649 -1.6061  1.7354 -1.2681
21912SOL     OW75665   1.604   4.755  12.744 -0.2532  0.5395  0.0920
21912SOL    HW175666   1.594   4.724  12.834 -2.4223  0.5587 -0.1019
21912SOL    HW275667   1.695   4.734  12.722 -0.4248 -1.9534  1.3571
21913SOL     OW75668   3.239   2.043   9.350  1.3277  0.5080 -0.6186
21913SOL    HW175669   3.194   2.126   9.338 -2.2045 -0.9682  0.9794
21913SOL    HW275670   3.242   2.004   9.263  1.1667  1.4259 -1.0397
21914SOL     OW75671   2.186   5.230   9.048  0.0423 -0.3350  0.0863
21914SOL    HW175672   2.249   5.168   9.011 -0.6607 -1.1479  0.1913
21914SOL    HW275673   2.238   5.289   9.102  0.7336 -0.8746  0.0297
21915SOL     OW75674  11.046   2.807  10.854 -0.4407  0.2046  0.3282
21915SOL    HW175675  11.030   2.895  10.889 -1.1779 -0.1697  0.9826
21915SOL    HW275676  11.010   2.748  10.921 -0.6174 -0.5722 -0.4297
21916SOL     OW75677   0.136  10.982   3.194 -0.0966 -0.0864  0.5476
21916SOL    HW175678   0.101  11.034   3.266 -1.5258  0.5840 -0.5982
21916SOL    HW275679   0.071  10.912   3.181  0.9071 -1.1191  0.8852
21917SOL     OW75680  11.805   8.415  11.497  0.0417  0.1365 -0.0046
21917SOL    HW175681  11.722   8.395  11.541  0.9370 -0.3363  1.5651
21917SOL    HW275682  11.805   8.510  11.487 -0.8515  0.1044 -0.3871
21918SOL     OW75683   5.924   6.452  10.721  0.2629  0.3399  0.1112
21918SOL    HW175684   5.980   6.520  10.685  1.0850  0.3815  1.4085
21918SOL    HW275685   5.976   6.413  10.791  0.0987 -2.0962 -1.0184
21919SOL     OW75686   0.167   5.789  12.953  0.3913  0.1045  0.3978
21919SOL    HW175687   0.101   5.720  12.963  1.0556 -0.7080 -0.5977
21919SOL    HW275688   0.240   5.760  13.008  1.4771 -1.0815 -1.5254
21920SOL     OW75689   7.159   6.829  11.108  0.5390 -0.2483  0.3694
21920SOL    HW175690   7.244   6.789  11.126  0.5080 -0.0975  0.8706
21920SOL    HW275691   7.118   6.770  11.045  0.8706 -0.5141  0.3983
21921SOL     OW75692   9.384   6.931   5.262 -0.5888  0.2674 -0.6950
21921SOL    HW175693   9.357   6.957   5.350 -0.7846 -1.3131 -0.2603
21921SOL    HW275694   9.346   6.998   5.205 -2.5559  0.0164  0.2119
21922SOL     OW75695   2.475   7.761  12.600 -0.2519  0.1593 -0.0636
21922SOL    HW175696   2.452   7.813  12.677  0.0207  0.0598  0.0868
21922SOL    HW275697   2.392   7.751  12.553 -0.4913 -0.0679  0.3910
21923SOL     OW75698   6.801   2.173   4.424 -0.4224 -0.3489 -0.1154
21923SOL    HW175699   6.861   2.246   4.407 -1.5515  0.8674  0.8362
21923SOL    HW275700   6.850   2.095   4.400  0.1658  0.8056 -3.0778
21924SOL     OW75701   5.785  12.794   2.748  0.7852 -0.0418 -0.0995
21924SOL    HW175702   5.804  12.704   2.721 -0.3066  0.1289 -1.5438
21924SOL    HW275703   5.812  12.847   2.673 -1.5450  0.5444 -0.5744
21925SOL     OW75704   5.259  12.041   2.990  0.1671  0.0381 -0.1682
21925SOL    HW175705   5.276  12.008   2.902 -1.6425 -1.5692  0.0067
21925SOL    HW275706   5.281  11.967   3.047  0.0151  0.5784  0.5980
21926SOL     OW75707  12.471  11.735   1.352  0.2914 -0.6086  0.4360
21926SOL    HW175708  12.513  11.777   1.427 -0.4049  0.2909  0.3488
21926SOL    HW275709  12.515  11.772   1.276  0.7835 -1.2829  0.3855
21927SOL     OW75710   3.547   8.386   0.222  0.1130  0.8321  0.2982
21927SOL    HW175711   3.642   8.384   0.229 -0.0283 -1.2205  2.8530
21927SOL    HW275712   3.527   8.328   0.148  0.7951  2.0226 -0.8773
21928SOL     OW75713  10.373   4.018   1.343  0.6214 -0.4862  0.1509
21928SOL    HW175714  10.311   3.948   1.361  0.4776 -0.5347 -0.5024
21928SOL    HW275715  10.445   4.004   1.405  0.4472 -1.0252  0.2305
21929SOL     OW75716   4.245   3.559  13.116 -0.4253 -0.7733 -0.5474
21929SOL    HW175717   4.302   3.546  13.192 -0.5710  2.1787  0.1781
21929SOL    HW275718   4.164   3.512  13.138 -0.2947 -0.3560  0.9219
21930SOL     OW75719   7.710   0.873  10.774  0.5232  0.3150 -0.3197
21930SOL    HW175720   7.687   0.793  10.727 -2.6389  1.3238 -0.7252
21930SOL    HW275721   7.678   0.859  10.863  0.9297  0.7485 -0.0954
21931SOL     OW75722   7.403   8.398   0.846 -0.0865 -0.1923  0.0368
21931SOL    HW175723   7.384   8.324   0.902 -1.0864 -0.0787 -0.1253
21931SOL    HW275724   7.324   8.452   0.850  0.1926  0.2954 -0.7155
21932SOL     OW75725  10.192   0.293   9.679  0.4249  0.8264  0.3171
21932SOL    HW175726  10.133   0.233   9.634 -0.1901  1.9185 -0.3795
21932SOL    HW275727  10.271   0.294   9.625  0.9604 -0.3441  1.0448
21933SOL     OW75728  13.284   9.618   8.141  0.4504 -0.2103 -0.0491
21933SOL    HW175729  13.308   9.578   8.057 -1.8396 -1.5249 -0.1492
21933SOL    HW275730  13.244   9.547   8.190 -1.2223  1.3041  0.8793
21934SOL     OW75731   6.059   9.514   5.920 -0.3231 -0.6423 -0.1725
21934SOL    HW175732   5.990   9.498   5.984  0.1898 -1.3825  0.2155
21934SOL    HW275733   6.032   9.593   5.874 -1.1134 -0.5742  0.3972
21935SOL     OW75734  12.614   5.656   8.995  0.0146  0.0256  0.0352
21935SOL    HW175735  12.573   5.581   8.953  1.7957 -1.8380  1.4346
21935SOL    HW275736  12.566   5.666   9.078  0.2190  0.0023  0.1559
21936SOL     OW75737  11.305   7.989   0.046  0.1280  0.2389 -0.3694
21936SOL    HW175738  11.253   7.911   0.064 -0.3671  0.6430 -0.0142
21936SOL    HW275739  11.332   8.021   0.132  0.9430  0.0527 -0.5475
21937SOL     OW75740   9.403   8.193   0.572 -0.0246 -0.4435 -0.2981
21937SOL    HW175741   9.468   8.185   0.641  0.2074 -0.9661 -0.5675
21937SOL    HW275742   9.418   8.116   0.516 -1.5612 -1.1665  0.2170
21938SOL     OW75743  13.244   8.048   7.313 -0.4083 -0.0573 -0.2605
21938SOL    HW175744  13.310   8.049   7.382  0.3360  0.7596 -0.9574
21938SOL    HW275745  13.264   8.125   7.259 -1.9818  0.2585 -0.4440
21939SOL     OW75746   4.504  13.126   5.627  0.2742  0.3050 -0.2939
21939SOL    HW175747   4.558  13.180   5.569 -1.3205  1.4889 -0.7475
21939SOL    HW275748   4.472  13.056   5.570  0.0739  0.5126 -0.4429
21940SOL     OW75749   0.997   8.369   9.902 -0.1023 -0.0904  0.1327
21940SOL    HW175750   1.020   8.322   9.822 -0.2738 -2.0198  1.1592
21940SOL    HW275751   0.961   8.453   9.872  1.9218  0.1906 -1.7100
21941SOL     OW75752   5.055   1.669  11.102  0.1166 -0.1188 -0.0955
21941SOL    HW175753   5.138   1.621  11.100  1.2728  1.5770  2.3358
21941SOL    HW275754   5.053   1.718  11.019  0.3520 -1.9357 -1.2269
21942SOL     OW75755   8.002   9.317  10.118 -0.1052  0.4747 -0.0291
21942SOL    HW175756   7.996   9.322  10.213 -0.9091 -0.4749 -0.0083
21942SOL    HW275757   8.096   9.324  10.099  0.0347  0.9351  0.8037
21943SOL     OW75758   1.033   2.794   7.354 -0.1212  0.1429 -0.5246
21943SOL    HW175759   0.950   2.792   7.306 -0.4806  0.0969  0.0792
21943SOL    HW275760   1.100   2.797   7.286 -0.6055 -0.1915 -1.0321
21944SOL     OW75761   6.051   2.125   2.089  0.4989  0.6849  0.2544
21944SOL    HW175762   6.133   2.149   2.132 -0.2304 -0.1482  2.2361
21944SOL    HW275763   5.983   2.168   2.140 -0.4285 -0.6557  0.2124
21945SOL     OW75764   8.568   6.824   2.867 -0.4357 -0.4468  0.0979
21945SOL    HW175765   8.613   6.789   2.790 -1.2536  0.7383 -0.9709
21945SOL    HW275766   8.547   6.748   2.920  1.6744 -1.1385  0.0067
21946SOL     OW75767   3.936  11.727   2.742  0.1389 -0.1636 -0.1175
21946SOL    HW175768   3.953  11.806   2.691 -0.2681  0.8680  1.2900
21946SOL    HW275769   4.014  11.673   2.730 -0.0420 -0.0720 -1.9948
21947SOL     OW75770   4.691   4.672   1.551 -0.7156  0.5946  0.3306
21947SOL    HW175771   4.783   4.667   1.574  0.0294  2.7027 -1.8353
21947SOL    HW275772   4.645   4.648   1.632  1.6951  0.0442  1.6214
21948SOL     OW75773  13.023   2.451   9.684  0.1551  0.0294 -1.0264
21948SOL    HW175774  12.946   2.436   9.739  0.4505 -3.6757 -1.3493
21948SOL    HW275775  13.096   2.455   9.745  0.0610  0.2882 -0.9279
21949SOL     OW75776   4.620   7.309  11.267  0.4103  0.1440 -0.2941
21949SOL    HW175777   4.687   7.314  11.335 -0.7688 -0.2050  0.9385
21949SOL    HW275778   4.541   7.282  11.313 -0.8755  1.6247 -1.4933
21950SOL     OW75779  11.743   7.356  12.657  0.0735  0.3012  0.1736
21950SOL    HW175780  11.656   7.320  12.640  0.4788 -0.3219 -0.7087
21950SOL    HW275781  11.784   7.360  12.570  1.5097 -0.9960  0.7495
21951SOL     OW75782   9.771  12.343   4.261 -0.0082  0.2972  0.0633
21951SOL    HW175783   9.683  12.355   4.225 -0.3863  2.6456  1.5640
21951SOL    HW275784   9.828  12.345   4.184 -1.0295  2.2113 -0.7221
21952SOL     OW75785   0.001   8.738   7.560  0.1164  0.0911 -0.0366
21952SOL    HW175786  -0.051   8.718   7.638  0.7108  0.2913  0.4190
21952SOL    HW275787  -0.038   8.684   7.491 -0.4828 -0.0113  0.3710
21953SOL     OW75788   2.493   5.009   9.298 -0.4270 -0.6694  0.1649
21953SOL    HW175789   2.480   5.080   9.361 -1.5681 -0.1072 -0.6715
21953SOL    HW275790   2.470   4.930   9.346 -0.0876 -0.3811  0.8174
21954SOL     OW75791   2.182   4.972   6.273 -0.2811 -0.6094 -0.7872
21954SOL    HW175792   2.096   4.989   6.234 -0.3766  0.2017 -0.2546
21954SOL    HW275793   2.167   4.897   6.330 -1.0372  0.4773  0.5024
21955SOL     OW75794   4.343   3.243   6.796 -1.0168 -0.4208 -0.1318
21955SOL    HW175795   4.255   3.247   6.761 -1.4215 -0.1208  0.8625
21955SOL    HW275796   4.379   3.331   6.781 -1.6911  0.1532  1.3885
21956SOL     OW75797   3.854   2.307   3.374  0.1873 -0.2548  0.2110
21956SOL    HW175798   3.935   2.274   3.411 -0.1017 -2.2931 -0.8249
21956SOL    HW275799   3.881   2.375   3.312  0.9442  0.2198  1.0324
21957SOL     OW75800   2.351  11.250   3.518  0.4533  0.7208  0.1182
21957SOL    HW175801   2.413  11.323   3.514  3.4294 -1.6248 -0.6352
21957SOL    HW275802   2.367  11.201   3.437 -0.7933 -1.2187  0.9894
21958SOL     OW75803   4.359   5.655   1.766 -0.0399  0.3732 -0.0217
21958SOL    HW175804   4.292   5.665   1.700 -0.7414  0.3572  0.6767
21958SOL    HW275805   4.439   5.689   1.725 -0.6128  1.0152 -0.6157
21959SOL     OW75806   5.727   9.960  11.369 -0.5436 -0.5523  0.2476
21959SOL    HW175807   5.699  10.044  11.407  0.8997  0.4197 -0.7438
21959SOL    HW275808   5.646   9.910  11.362 -1.6833  1.2600 -0.3551
21960SOL     OW75809   5.153   7.771   4.160 -0.1480  0.3472  0.2692
21960SOL    HW175810   5.132   7.705   4.225  0.4760  0.5940  0.7362
21960SOL    HW275811   5.108   7.850   4.190  0.3275  0.5226  0.5444
21961SOL     OW75812  10.096   1.835   7.647 -0.1904  0.7677 -0.2971
21961SOL    HW175813  10.070   1.752   7.686  0.1407  0.7701 -0.0688
21961SOL    HW275814  10.182   1.817   7.607  0.2750  1.2158  0.4802
21962SOL     OW75815  10.239   0.713   1.676  0.8750 -0.0904  0.4631
21962SOL    HW175816  10.155   0.744   1.643  0.4528 -0.9288  0.7278
21962SOL    HW275817  10.263   0.641   1.618  3.2945  2.4502 -2.0265
21963SOL     OW75818   5.227   7.616   2.393 -0.5166  0.0406 -0.1429
21963SOL    HW175819   5.175   7.696   2.403 -1.9603 -0.8808  0.0101
21963SOL    HW275820   5.251   7.592   2.483  1.7273  1.3866 -0.2979
21964SOL     OW75821   5.624   8.950   4.162 -0.1126 -0.6026 -0.0849
21964SOL    HW175822   5.687   9.011   4.123  0.3949 -2.5356 -2.5865
21964SOL    HW275823   5.539   8.989   4.145  0.2819  0.7786  0.9785
21965SOL     OW75824   9.327   8.635   5.907 -0.5310  0.0170  0.4366
21965SOL    HW175825   9.380   8.712   5.931 -0.9025  0.2359  0.5719
21965SOL    HW275826   9.246   8.645   5.959 -2.0022  1.2817 -1.9151
21966SOL     OW75827   1.984   9.155   2.811  0.5726  0.4054  0.6491
21966SOL    HW175828   2.055   9.218   2.802  0.2020  0.7867  0.3526
21966SOL    HW275829   1.920   9.199   2.867  0.3391  0.2667  0.4932
21967SOL     OW75830   4.007   7.328   1.526  0.1418 -0.2588  0.2805
21967SOL    HW175831   4.096   7.344   1.557 -0.1318 -0.5719  1.2734
21967SOL    HW275832   4.013   7.336   1.431  0.5443  3.0325  0.4790
21968SOL     OW75833  10.715   8.913  11.874 -0.1145  0.1566 -0.2390
21968SOL    HW175834  10.715   9.004  11.845  0.8508  0.1473 -0.3239
21968SOL    HW275835  10.740   8.917  11.967  0.3079 -0.0333 -0.3389
21969SOL     OW75836   0.343   1.258  10.000  0.4400  0.3792  0.2040
21969SOL    HW175837   0.296   1.230  10.079 -0.3550  0.5863 -0.1865
21969SOL    HW275838   0.369   1.177   9.956 -2.4906  0.1506 -1.3111
21970SOL     OW75839   9.876   7.146  10.371 -0.5738 -0.1257  0.0649
21970SOL    HW175840   9.970   7.145  10.357 -0.0526 -1.1438  2.9724
21970SOL    HW275841   9.851   7.238  10.363  0.7716  0.2449 -0.0548
21971SOL     OW75842   2.821   1.215   3.507 -0.3567  0.2492 -0.2776
21971SOL    HW175843   2.912   1.197   3.530 -1.0088  0.3571  2.8668
21971SOL    HW275844   2.770   1.154   3.560 -2.1609  0.9271 -1.1388
21972SOL     OW75845   7.028   6.066   9.504 -0.4609 -0.3828  0.3226
21972SOL    HW175846   6.999   6.142   9.453 -1.4233 -1.2578 -0.4709
21972SOL    HW275847   7.048   5.999   9.438  2.8345 -0.0965  0.8285
21973SOL     OW75848   9.003   5.598  11.712 -0.2210 -0.3151  0.1989
21973SOL    HW175849   8.984   5.692  11.720  0.9484 -0.0016 -0.5088
21973SOL    HW275850   8.921   5.560  11.680 -0.1635  0.7583 -1.3413
21974SOL     OW75851  10.953   9.339   4.143 -0.0086  0.0412 -0.1455
21974SOL    HW175852  11.013   9.365   4.074  0.9004 -0.1563  0.5426
21974SOL    HW275853  10.940   9.418   4.196 -1.7362  0.5471 -1.2448
21975SOL     OW75854   1.241  11.946   0.825 -0.3992 -0.3097 -0.5849
21975SOL    HW175855   1.148  11.935   0.805 -0.0238 -2.7047 -1.2865
21975SOL    HW275856   1.266  11.864   0.868  1.1650  0.7356  0.6134
21976SOL     OW75857   4.517   8.187   3.233  0.8060  0.5981  0.1241
21976SOL    HW175858   4.433   8.174   3.278  0.1109  0.2630 -1.2061
21976SOL    HW275859   4.581   8.140   3.287 -0.1486 -0.5459  0.2986
21977SOL     OW75860   2.859   9.656   5.327  0.0700 -0.2872  0.3640
21977SOL    HW175861   2.927   9.592   5.308  0.7317  0.7203 -0.8312
21977SOL    HW275862   2.879   9.686   5.416 -0.0024 -1.4128  0.7744
21978SOL     OW75863   1.858  12.972   7.564 -0.6853 -0.0933 -0.4677
21978SOL    HW175864   1.889  13.061   7.548 -0.3637 -0.1700 -0.2709
21978SOL    HW275865   1.860  12.930   7.478 -0.5370 -0.0066 -0.5057
21979SOL     OW75866   5.792  10.795  12.284  0.0356  0.7341  1.1549
21979SOL    HW175867   5.859  10.814  12.219 -0.9955  1.7599  0.3519
21979SOL    HW275868   5.782  10.700  12.282 -0.0719  0.7628 -0.2958
21980SOL     OW75869   1.632   3.742   4.677 -0.1866  0.5867  0.5377
21980SOL    HW175870   1.703   3.741   4.613 -0.1409  1.4743  0.5605
21980SOL    HW275871   1.645   3.662   4.729 -0.1987 -0.1189 -0.5138
21981SOL     OW75872   2.216   3.685   8.214  0.3814  0.2350  0.0246
21981SOL    HW175873   2.146   3.674   8.150  0.5390 -0.5286 -0.0192
21981SOL    HW275874   2.174   3.731   8.287 -0.3568 -0.8690  0.3118
21982SOL     OW75875   6.510   5.638   6.010 -0.7078 -0.1416  0.0073
21982SOL    HW175876   6.462   5.623   5.929  1.1908 -1.8789 -0.8948
21982SOL    HW275877   6.537   5.730   6.005 -0.6692 -0.2045 -1.3139
21983SOL     OW75878  13.293   8.453   8.328  0.1145  0.0278 -0.0885
21983SOL    HW175879  13.348   8.530   8.346  1.2585 -0.7705 -0.0922
21983SOL    HW275880  13.244   8.439   8.409  0.7529  0.0710  0.3080
21984SOL     OW75881   1.847   9.322  11.400 -0.4194  0.6512 -0.0780
21984SOL    HW175882   1.904   9.393  11.431  0.0302  0.2733 -0.0193
21984SOL    HW275883   1.862   9.251  11.462 -0.7136  0.4372 -0.2499
21985SOL     OW75884   4.765   7.010   3.012 -0.0806 -0.0535 -0.2884
21985SOL    HW175885   4.746   7.079   2.949 -0.1781  1.8392  1.7171
21985SOL    HW275886   4.764   6.929   2.959 -1.4366  1.2592 -2.4481
21986SOL     OW75887   2.309   0.448   3.287 -0.0330  0.1241  0.0949
21986SOL    HW175888   2.350   0.527   3.323 -0.9172  0.4538  0.3981
21986SOL    HW275889   2.228   0.480   3.247  0.5030 -0.3592 -1.4404
21987SOL     OW75890   2.389   0.691   3.372  0.0087  0.1092 -0.0081
21987SOL    HW175891   2.336   0.684   3.452  0.7134 -1.2268  0.3707
21987SOL    HW275892   2.379   0.783   3.345 -1.6415  0.1540  0.6266
21988SOL     OW75893   5.954   4.573   2.373 -0.6246 -0.0610 -0.1517
21988SOL    HW175894   5.943   4.667   2.381  0.9351  0.0437  1.3706
21988SOL    HW275895   5.920   4.552   2.286 -3.0379  1.5423  0.2879
21989SOL     OW75896   7.402   8.835   4.872  0.1322 -0.1955  0.1002
21989SOL    HW175897   7.312   8.805   4.860  0.3094 -0.1932 -1.4442
21989SOL    HW275898   7.395   8.908   4.933 -0.7509 -0.9841  0.9710
21990SOL     OW75899   2.127   7.416   5.819  0.1762  0.8483 -0.5350
21990SOL    HW175900   2.108   7.329   5.855 -0.0589  0.5660 -1.3258
21990SOL    HW275901   2.079   7.476   5.875 -1.4376  0.3010 -1.2804
21991SOL     OW75902   8.926  11.246   6.732  0.4428 -0.2951  0.5956
21991SOL    HW175903   8.909  11.273   6.822 -1.3733 -1.2908  0.5914
21991SOL    HW275904   8.855  11.186   6.711  0.3534  0.5259 -1.7676
21992SOL     OW75905  10.449  11.424   0.945  0.7830 -0.2100 -0.2183
21992SOL    HW175906  10.374  11.478   0.922 -0.0261 -1.5438 -0.8464
21992SOL    HW275907  10.448  11.353   0.881  1.7989 -0.9748  0.5801
21993SOL     OW75908   5.538   0.349   4.693  0.6103  0.3893 -0.0863
21993SOL    HW175909   5.590   0.363   4.772  0.2936 -2.7741  0.8214
21993SOL    HW275910   5.559   0.259   4.667 -0.3550  0.8723 -2.8444
21994SOL     OW75911   3.467   7.006   5.413  0.7604  0.1221  0.8601
21994SOL    HW175912   3.482   7.045   5.327 -0.4329  0.4458  0.7746
21994SOL    HW275913   3.421   6.924   5.394 -0.7618  0.8613  1.2315
21995SOL     OW75914   9.686   5.859   1.076 -0.1747 -0.0754  0.4708
21995SOL    HW175915   9.631   5.829   1.148  0.4997 -0.3222  0.8861
21995SOL    HW275916   9.730   5.780   1.045  1.4695  0.4108  1.4467
21996SOL     OW75917   5.324   9.345  11.373 -0.0068 -0.7334 -0.3735
21996SOL    HW175918   5.363   9.322  11.289 -0.9112 -1.0561 -0.7123
21996SOL    HW275919   5.282   9.430  11.358  0.3019 -0.5236 -0.0862
21997SOL     OW75920   5.081  13.289   3.994 -0.4922 -0.9955  0.7109
21997SOL    HW175921   5.008  13.326   4.044 -0.7918  0.1451 -0.5005
21997SOL    HW275922   5.143  13.258   4.061 -0.3196  1.5384  1.8707
21998SOL     OW75923   5.382   1.740   1.244 -0.0205 -0.5734  0.5080
21998SOL    HW175924   5.305   1.687   1.262 -0.4699 -0.5776 -1.2036
21998SOL    HW275925   5.358   1.792   1.167  1.9433 -1.1689 -0.5855
21999SOL     OW75926   7.863   1.155  10.118 -0.0911  0.5125 -0.0695
21999SOL    HW175927   7.926   1.090  10.148 -0.6311 -0.3026 -0.6418
21999SOL    HW275928   7.778   1.121  10.145 -0.3599  1.1601 -0.0717
22000SOL     OW75929   5.477   9.618   0.947 -0.0900  0.0235 -0.5402
22000SOL    HW175930   5.533   9.582   0.878  0.9175  0.4401  0.0495
22000SOL    HW275931   5.410   9.668   0.899  0.6169  0.3408 -1.2221
22001SOL     OW75932   6.666   3.937  11.910 -0.3229 -0.0501 -0.1769
22001SOL    HW175933   6.642   3.946  11.818  1.8286 -0.7896 -0.8506
22001SOL    HW275934   6.666   4.026  11.944  3.3986  0.8835 -2.1560
22002SOL     OW75935   7.930   1.761  10.748  0.5072  0.4976  0.2171
22002SOL    HW175936   7.970   1.768  10.834 -1.1573 -1.3224  1.2221
22002SOL    HW275937   7.902   1.669  10.742 -1.3308  1.1005 -1.3584
22003SOL     OW75938  12.525   5.592   2.397  0.3020 -0.3734  0.1165
22003SOL    HW175939  12.599   5.533   2.380 -0.2551 -0.9634 -0.3398
22003SOL    HW275940  12.468   5.581   2.321 -0.2466  0.0867  0.4535
22004SOL     OW75941  12.491   1.161   1.447 -0.7263 -0.1482  0.3900
22004SOL    HW175942  12.462   1.199   1.530  2.0751  1.7986  0.6427
22004SOL    HW275943  12.465   1.069   1.452 -1.6192  0.1627  2.9403
22005SOL     OW75944   8.303   7.082   7.614  0.0705 -0.2590 -0.1656
22005SOL    HW175945   8.373   7.143   7.590  0.6769 -0.8495  0.0850
22005SOL    HW275946   8.308   7.013   7.548  0.6635 -1.0334  0.6783
22006SOL     OW75947   5.294   4.547   4.864  0.0045 -0.1259  0.4746
22006SOL    HW175948   5.384   4.581   4.863  0.3253 -0.9357 -0.4551
22006SOL    HW275949   5.240   4.620   4.893  1.0436  0.1721  1.7370
22007SOL     OW75950   7.042  11.062   1.260  0.3680 -0.4843  0.2284
22007SOL    HW175951   7.045  10.970   1.233 -0.2871  0.1902 -2.3828
22007SOL    HW275952   7.107  11.106   1.206  0.5167  0.6647  1.2761
22008SOL     OW75953   9.464   8.198  12.345 -0.0800  0.2039  0.1708
22008SOL    HW175954   9.464   8.105  12.371  1.4586 -0.2411 -1.2043
22008SOL    HW275955   9.465   8.196  12.250 -0.1269  1.6583  0.1173
22009SOL     OW75956   2.726   2.575  11.274 -0.1697  0.0612 -0.0825
22009SOL    HW175957   2.787   2.547  11.342 -0.4117 -1.7023 -0.5524
22009SOL    HW275958   2.731   2.671  11.276  1.1654  0.0054  1.1769
22010SOL     OW75959   1.642   1.019   9.379 -0.3384  0.1462  0.0928
22010SOL    HW175960   1.652   0.937   9.428  0.8724  0.0960 -0.2075
22010SOL    HW275961   1.583   0.997   9.307  2.1453 -1.3001 -1.6795
22011SOL     OW75962   0.452   1.468   7.590  0.4413  0.7365 -0.4626
22011SOL    HW175963   0.517   1.521   7.636 -0.9694  1.0356  1.2958
22011SOL    HW275964   0.487   1.379   7.594  1.1511  1.0142 -0.3405
22012SOL     OW75965   4.386   7.192  13.018 -0.3218  0.2310 -0.6080
22012SOL    HW175966   4.295   7.207  13.044 -0.0832  2.7143 -1.0472
22012SOL    HW275967   4.384   7.106  12.975 -2.2791 -0.1487  0.1408
22013SOL     OW75968   4.056   4.019  11.771  0.8411 -0.5335  0.0745
22013SOL    HW175969   4.089   3.936  11.739 -0.0509 -0.7863 -0.1948
22013SOL    HW275970   4.026   4.066  11.693  0.5871 -0.2985  0.3078
22014SOL     OW75971   3.397   6.746   6.926  0.2127 -0.3098 -0.5250
22014SOL    HW175972   3.491   6.763   6.927  0.0965  0.3504 -0.2345
22014SOL    HW275973   3.370   6.767   6.837  0.1167  0.8001 -0.2413
22015SOL     OW75974   0.742   5.421   2.716 -0.4101  0.4696  0.7226
22015SOL    HW175975   0.740   5.385   2.627 -0.1367 -0.2017  0.9825
22015SOL    HW275976   0.685   5.498   2.712 -1.5987 -0.4078  0.3345
22016SOL     OW75977   7.129   9.207  10.385 -0.1648 -0.5349 -0.3704
22016SOL    HW175978   7.108   9.133  10.443 -0.8310 -1.9260 -2.2823
22016SOL    HW275979   7.046   9.228  10.342  0.4747 -0.0923 -1.4194
22017SOL     OW75980   8.624  10.613   9.810 -0.1595  0.0030 -0.2359
22017SOL    HW175981   8.684  10.543   9.785 -0.7255 -0.9012  0.8621
22017SOL    HW275982   8.547  10.600   9.755  0.1916  0.4887 -0.8571
22018SOL     OW75983   0.795   7.994  10.951 -0.1407  0.2557 -0.2525
22018SOL    HW175984   0.883   7.980  10.917  0.4669  0.1094  1.2680
22018SOL    HW275985   0.749   7.912  10.933 -0.1348  0.4970 -1.4626
22019SOL     OW75986   6.577   1.278  11.283  0.3460  0.1124 -0.1006
22019SOL    HW175987   6.523   1.356  11.296  0.1117  0.0692 -0.7324
22019SOL    HW275988   6.599   1.248  11.371  2.1564  2.0576  0.1877
22020SOL     OW75989   3.481  10.979   5.195  0.3963  0.2964  0.4912
22020SOL    HW175990   3.387  10.999   5.199  0.6518  1.6578  0.2176
22020SOL    HW275991   3.513  11.000   5.283  0.7630  1.6824  0.0515
22021SOL     OW75992  11.256  12.664   1.792  0.0404  0.2543 -0.1053
22021SOL    HW175993  11.279  12.750   1.827 -1.4994  0.4177  0.5829
22021SOL    HW275994  11.326  12.644   1.730  0.1302  2.2788 -0.7431
22022SOL     OW75995   4.123  12.339   2.910  0.2261 -0.1141 -0.0491
22022SOL    HW175996   4.145  12.412   2.967  0.8735 -0.8364  0.6445
22022SOL    HW275997   4.035  12.359   2.878 -0.8916 -0.4740  2.5299
22023SOL     OW75998   5.907   8.127   1.699 -0.2803  0.5656  0.3857
22023SOL    HW175999   5.977   8.124   1.764  1.3111  1.4868 -1.1868
22023SOL    HW276000   5.939   8.072   1.628 -2.6907 -1.7402  0.9513
22024SOL     OW76001   7.804   4.033   3.554 -0.0076  0.1197  0.4354
22024SOL    HW176002   7.747   4.082   3.614  0.6279  0.2713  0.9313
22024SOL    HW276003   7.883   4.016   3.606 -0.4657 -2.0204  0.5174
22025SOL     OW76004  12.269   7.341  10.965 -0.2180 -0.3400  0.0569
22025SOL    HW176005  12.285   7.405  11.034  2.4971 -0.9473  0.1164
22025SOL    HW276006  12.174   7.336  10.958 -0.5635  3.3571  0.3054
22026SOL     OW76007   1.539  11.165  10.267 -0.0266 -0.1845 -0.2869
22026SOL    HW176008   1.533  11.077  10.230  0.0353 -0.1688 -0.3350
22026SOL    HW276009   1.448  11.195  10.275 -0.0336 -0.1117 -0.6079
22027SOL     OW76010   7.721   9.566   5.220  0.0218  0.3302 -0.4791
22027SOL    HW176011   7.660   9.535   5.153  0.3662 -1.1115 -0.1594
22027SOL    HW276012   7.772   9.488   5.244  0.1871  0.9096  1.1677
22028SOL     OW76013  12.852   8.041   6.323  0.0618 -0.4844  0.4846
22028SOL    HW176014  12.846   8.007   6.412  1.1704 -1.6190  0.1548
22028SOL    HW276015  12.874   7.965   6.270 -1.6623 -0.0515 -0.9431
22029SOL     OW76016   0.843  12.522   2.419  0.0056  0.1671 -1.2460
22029SOL    HW176017   0.835  12.483   2.333 -0.1068  2.8096 -2.5459
22029SOL    HW276018   0.937  12.533   2.432 -0.0242  1.1846 -1.7750
22030SOL     OW76019   7.853  12.900   3.104 -0.1391 -0.2365 -0.2387
22030SOL    HW176020   7.809  12.941   3.029  1.0638  0.5833 -0.5262
22030SOL    HW276021   7.909  12.833   3.066  0.5372  0.2354 -0.1048
22031SOL     OW76022   9.744  12.530   5.810 -0.2087  0.2543 -0.2217
22031SOL    HW176023   9.669  12.553   5.756  0.5613 -0.8553 -1.8296
22031SOL    HW276024   9.819  12.570   5.765  0.7933 -2.7634 -1.5267
22032SOL     OW76025   4.570   1.013   1.893 -0.5826  0.2111 -0.5710
22032SOL    HW176026   4.662   1.023   1.916 -0.2951  0.3248 -1.6843
22032SOL    HW276027   4.523   1.018   1.976  0.5957 -2.5151  0.3949
22033SOL     OW76028   0.527   1.822   9.329  0.0126 -0.2638  0.5041
22033SOL    HW176029   0.606   1.768   9.331  0.8495  0.9104  0.1647
22033SOL    HW276030   0.549   1.898   9.382 -0.0391  1.1769 -1.4357
22034SOL     OW76031   6.132   5.011   9.586  0.3813 -0.3886 -0.2332
22034SOL    HW176032   6.137   4.915   9.589 -1.2242 -0.6173 -2.4374
22034SOL    HW276033   6.216   5.038   9.548  0.4976 -0.9983 -0.4242
22035SOL     OW76034  11.107   5.852   4.414  0.0800  0.1841  0.2328
22035SOL    HW176035  11.019   5.818   4.432 -0.2811  1.7007  1.6279
22035SOL    HW276036  11.094   5.946   4.400  1.5703  0.6408  1.5442
22036SOL     OW76037   8.903   2.293   0.070 -0.0226  0.1887  0.5179
22036SOL    HW176038   8.927   2.225   0.133  1.3405 -0.0109 -0.1676
22036SOL    HW276039   8.845   2.352   0.118 -0.9348 -1.2412  1.2359
22037SOL     OW76040   3.950   6.413   9.942  0.1594  0.1932  0.5271
22037SOL    HW176041   3.961   6.472   9.867  1.0840  0.2256  0.6753
22037SOL    HW276042   3.857   6.418   9.963  0.4966  3.2186  1.8374
22038SOL     OW76043   1.033   8.530  11.625 -0.4377  0.3489  0.3544
22038SOL    HW176044   1.094   8.534  11.699 -1.8505  0.3267  1.5629
22038SOL    HW276045   1.089   8.543  11.548  1.2758 -0.9566  1.2952
22039SOL     OW76046  11.342   7.740   8.801  0.0319 -0.0657  0.5697
22039SOL    HW176047  11.434   7.718   8.812  0.2996  1.1973  1.0266
22039SOL    HW276048  11.301   7.718   8.885  0.1978  0.6106  0.8401
22040SOL     OW76049   6.888   0.670  12.141 -0.5506  0.2238  0.1252
22040SOL    HW176050   6.902   0.583  12.105 -0.1049  0.6480 -0.7627
22040SOL    HW276051   6.965   0.686  12.196 -1.4466 -0.6067  1.7020
22041SOL     OW76052   0.248   0.319   1.272  0.4534 -0.5865 -0.3457
22041SOL    HW176053   0.198   0.302   1.193 -1.1109  2.1084 -0.0442
22041SOL    HW276054   0.182   0.329   1.341  1.1490  3.5200 -0.0210
22042SOL     OW76055   0.615   1.585   4.517  0.3514 -0.1547 -0.2034
22042SOL    HW176056   0.618   1.579   4.612  0.7036  0.3178 -0.1812
22042SOL    HW276057   0.648   1.500   4.487  3.2385  0.7459  0.1058
22043SOL     OW76058  10.572   0.870   1.070 -0.4954 -0.0306 -0.2726
22043SOL    HW176059  10.667   0.870   1.085 -0.3297  1.9542 -1.0919
22043SOL    HW276060  10.560   0.810   0.997  0.3871  1.1125 -1.3990
22044SOL     OW76061  10.909   4.469   8.195  0.1640  0.1409 -0.6044
22044SOL    HW176062  10.960   4.452   8.117 -1.2686  1.4837 -1.9143
22044SOL    HW276063  10.945   4.550   8.231 -0.9753  1.1331 -1.5734
22045SOL     OW76064   9.745   3.713   0.560  0.0166 -0.4381  0.2090
22045SOL    HW176065   9.702   3.643   0.511 -0.6974  1.2132 -1.6741
22045SOL    HW276066   9.747   3.787   0.499 -0.2546  1.5388  2.4543
22046SOL     OW76067   0.101   6.325  11.269  0.2959 -0.0651  0.7577
22046SOL    HW176068   0.061   6.389  11.328  0.3842 -1.1776  2.0819
22046SOL    HW276069   0.195   6.335  11.284  0.5857  2.0458 -1.8191
22047SOL     OW76070   7.728   8.144   9.917 -0.3755  0.2574  0.2821
22047SOL    HW176071   7.686   8.189   9.990 -1.4056  0.3548 -0.3566
22047SOL    HW276072   7.661   8.139   9.850  0.0392 -1.2892 -0.0672
22048SOL     OW76073   5.756   5.776   7.362 -0.1469 -0.6220  0.0735
22048SOL    HW176074   5.670   5.788   7.402  0.1102 -0.7965  0.6909
22048SOL    HW276075   5.745   5.807   7.272 -1.2453 -1.9538 -0.2920
22049SOL     OW76076  12.398   0.075   0.646  0.2288 -0.3403 -0.0630
22049SOL    HW176077  12.369   0.003   0.590 -1.7595  0.3787 -0.0532
22049SOL    HW276078  12.449   0.033   0.715 -1.1214 -1.7948  0.1001
22050SOL     OW76079   5.450   1.227  11.710  0.2327 -0.1421  0.5672
22050SOL    HW176080   5.534   1.217  11.754 -0.6097 -2.7542  1.8073
22050SOL    HW276081   5.468   1.210  11.618  1.3551  1.2628  0.5138
22051SOL     OW76082   1.435   5.675   4.048 -0.2599 -0.0062  0.5361
22051SOL    HW176083   1.395   5.666   4.135  0.9203  2.4292  1.4191
22051SOL    HW276084   1.490   5.753   4.055  0.1220  0.0820 -2.3395
22052SOL     OW76085   3.454   5.889   3.333 -0.2996 -0.2592 -0.7455
22052SOL    HW176086   3.541   5.851   3.326  0.6122  1.6487 -0.4245
22052SOL    HW276087   3.399   5.834   3.277  0.4826 -3.1100  1.1036
22053SOL     OW76088   4.632  12.982   2.641  0.1374 -0.2579 -0.6829
22053SOL    HW176089   4.659  12.975   2.549  2.8465  0.8119 -0.0852
22053SOL    HW276090   4.685  13.054   2.676 -1.8302  0.2930  1.4119
22054SOL     OW76091  12.274  11.100   3.699  0.6005  0.2821  0.1470
22054SOL    HW176092  12.246  11.161   3.631 -0.1419  1.9100  1.8139
22054SOL    HW276093  12.358  11.134   3.730  0.6026 -0.0385  0.5124
22055SOL     OW76094  11.939   0.885   3.057  0.2280  0.5070 -0.3370
22055SOL    HW176095  11.949   0.952   2.989  1.8725  1.9961  1.2609
22055SOL    HW276096  11.881   0.820   3.019 -0.6110  2.3426 -2.3634
22056SOL     OW76097   4.971   4.019   8.424  0.0503  0.3473 -0.3433
22056SOL    HW176098   4.877   4.007   8.412  0.1588  0.8101 -1.9521
22056SOL    HW276099   5.002   3.935   8.459 -0.8119 -0.1637 -0.7752
22057SOL     OW76100   8.995  10.939   9.088  0.5141  0.0532  0.3121
22057SOL    HW176101   8.919  10.997   9.076 -0.4499 -0.9881  1.1958
22057SOL    HW276102   9.027  10.923   9.000 -1.1176 -0.5386 -0.2195
22058SOL     OW76103  11.643  10.854   6.211 -0.1823  0.2299  0.0137
22058SOL    HW176104  11.550  10.838   6.224  0.1343 -1.4824  0.4605
22058SOL    HW276105  11.652  10.871   6.117 -0.9631  0.7209  0.0188
22059SOL     OW76106  12.583   5.714   1.199 -0.2212 -0.4197 -0.5007
22059SOL    HW176107  12.673   5.693   1.227 -0.7909 -0.4008  1.5317
22059SOL    HW276108  12.530   5.642   1.234 -1.2768  0.7293  0.3438
22060SOL     OW76109   8.159  10.905   3.767  0.2942  0.1550  0.1269
22060SOL    HW176110   8.208  10.986   3.782 -3.6975  2.6035  1.5027
22060SOL    HW276111   8.158  10.862   3.853  0.4078 -0.1173 -0.0082
22061SOL     OW76112   6.109   6.740   1.123 -0.3875 -0.0567 -0.2545
22061SOL    HW176113   6.151   6.760   1.206 -2.2795  0.5414  0.6128
22061SOL    HW276114   6.044   6.672   1.144 -0.2772 -0.5582 -1.4244
22062SOL     OW76115   4.710   8.171   0.500  0.6208  0.2825  0.7347
22062SOL    HW176116   4.630   8.127   0.473  1.3560 -1.2728  0.9412
22062SOL    HW276117   4.704   8.175   0.596  1.3501 -1.0543  0.8608
22063SOL     OW76118   0.245   4.993  10.824 -0.1981 -0.1366 -0.3593
22063SOL    HW176119   0.174   5.034  10.775 -0.6010 -0.0073  0.3343
22063SOL    HW276120   0.211   4.981  10.912  0.3792 -0.7609 -0.2123
22064SOL     OW76121   7.733   9.049   5.945 -0.5429 -0.4814 -0.1700
22064SOL    HW176122   7.811   9.104   5.950 -0.0707 -1.2526  1.5885
22064SOL    HW276123   7.721   9.017   6.035 -1.6785 -2.0308 -0.8454
22065SOL     OW76124   3.594   1.075   1.985 -0.4524  0.6656  0.7163
22065SOL    HW176125   3.645   1.116   1.915 -0.8038  1.9155  1.1501
22065SOL    HW276126   3.572   1.148   2.043 -0.5054 -0.2766  1.9163
22066SOL     OW76127   8.883   5.849   3.966 -0.3559 -0.3870 -0.5214
22066SOL    HW176128   8.801   5.825   4.011  0.3547 -1.1438  0.4090
22066SOL    HW276129   8.941   5.774   3.980  0.9287  0.6470 -0.1027
22067SOL     OW76130   8.982   6.371  12.272 -0.7013 -0.1872 -0.1971
22067SOL    HW176131   9.041   6.434  12.313 -1.5019  0.2126  0.3477
22067SOL    HW276132   9.022   6.286  12.290 -0.1305  0.0969 -0.1010
22068SOL     OW76133   0.224   3.241   8.310 -0.2792 -0.5560  0.7344
22068SOL    HW176134   0.235   3.182   8.384 -0.1371 -0.5772  0.6962
22068SOL    HW276135   0.199   3.184   8.237  0.7107 -0.6788  0.4845
22069SOL     OW76136   5.128   6.721   9.670 -0.0161  0.3039 -0.0852
22069SOL    HW176137   5.091   6.638   9.702 -0.9167  0.6727 -0.1662
22069SOL    HW276138   5.113   6.783   9.741  0.3621  0.4892 -0.1614
22070SOL     OW76139   4.949   0.322   1.908 -0.3879  0.4561 -0.0238
22070SOL    HW176140   4.861   0.327   1.944 -0.7900 -1.3968 -0.6696
22070SOL    HW276141   4.942   0.363   1.821 -0.2837  1.4908  0.4392
22071SOL     OW76142  10.568   9.174   5.333 -0.1338 -0.0984  0.2453
22071SOL    HW176143  10.577   9.266   5.307  1.9016  0.0782  1.3062
22071SOL    HW276144  10.574   9.125   5.251 -0.6179  0.6726 -0.2675
22072SOL     OW76145   4.226   1.305   8.522  0.1613 -0.2758 -0.0607
22072SOL    HW176146   4.162   1.304   8.593  0.7682 -0.4997  0.4790
22072SOL    HW276147   4.219   1.394   8.486 -2.0993 -0.9597 -1.5204
22073SOL     OW76148   3.908   0.643   8.094  0.6264 -0.7680  0.5397
22073SOL    HW176149   3.828   0.619   8.141 -0.1688  0.9969  0.1835
22073SOL    HW276150   3.932   0.729   8.129  1.3479 -0.4668 -0.6183
22074SOL     OW76151   6.461  12.986   9.425 -0.1844  0.1126  0.4712
22074SOL    HW176152   6.477  13.080   9.433 -0.3371  0.0935  1.0820
22074SOL    HW276153   6.494  12.949   9.507 -1.8055 -0.1271  1.0675
22075SOL     OW76154   5.576   5.575   4.117  0.4660  0.1132  0.0620
22075SOL    HW176155   5.630   5.496   4.118  1.8000  0.9967  0.1166
22075SOL    HW276156   5.523   5.566   4.038  0.8132 -0.7067 -0.0879
22076SOL     OW76157  12.972   8.746   5.939  0.4447 -0.3903  0.5085
22076SOL    HW176158  12.939   8.801   6.009 -3.9108  1.4435 -2.5187
22076SOL    HW276159  13.046   8.796   5.902 -1.8671  2.5311 -0.6181
22077SOL     OW76160   6.890   2.216   2.182  0.2880  0.1505  0.2358
22077SOL    HW176161   6.796   2.222   2.201 -0.1517 -0.6117 -1.5495
22077SOL    HW276162   6.921   2.146   2.239 -0.5206 -0.5108 -0.1021
22078SOL     OW76163   7.532   9.644   7.381  0.0551  0.2549 -0.0081
22078SOL    HW176164   7.447   9.601   7.386  0.4706 -0.7193 -0.8768
22078SOL    HW276165   7.584   9.605   7.451 -0.2584  1.0069  0.6634
22079SOL     OW76166   1.520  11.769   5.947  0.3961 -0.0773  0.1455
22079SOL    HW176167   1.507  11.851   5.900  1.9895  1.1113  1.6061
22079SOL    HW276168   1.604  11.737   5.915  0.3234 -0.5263  0.4001
22080SOL     OW76169   1.140   1.571   3.655  0.2666  0.5493 -0.5279
22080SOL    HW176170   1.176   1.554   3.742  0.4228 -0.7066 -0.8307
22080SOL    HW276171   1.099   1.489   3.629 -2.1593  1.6671 -0.5367
22081SOL     OW76172   3.213  13.040   2.192 -0.0062  0.0691 -0.2810
22081SOL    HW176173   3.253  13.077   2.114  0.4193  0.2953  0.0488
22081SOL    HW276174   3.130  13.004   2.161 -1.7675  3.6053 -0.1860
22082SOL     OW76175  12.851  10.722   8.356  0.0652  0.1155 -0.5431
22082SOL    HW176176  12.831  10.630   8.343 -0.8919  0.1145  0.7090
22082SOL    HW276177  12.916  10.724   8.427  0.6342  0.3791 -1.0607
22083SOL     OW76178   6.248   0.060   0.119  0.0039  0.1627 -0.1551
22083SOL    HW176179   6.301   0.138   0.135 -1.4324  0.9057  1.2749
22083SOL    HW276180   6.298   0.010   0.055  2.3805  0.8355  1.0556
22084SOL     OW76181  12.854   9.027  12.952  0.4502 -0.4394 -0.5045
22084SOL    HW176182  12.823   9.049  12.864  0.4576  0.5382 -0.2681
22084SOL    HW276183  12.776   9.028  13.006  0.3690 -1.5387 -0.5794
22085SOL     OW76184  10.619  10.841   0.197 -0.2832  0.1519  0.3439
22085SOL    HW176185  10.579  10.809   0.278 -1.2900  0.0427 -0.1812
22085SOL    HW276186  10.590  10.932   0.191 -0.4584  0.0682 -0.0500
22086SOL     OW76187  11.161   2.591   5.217  0.1582  0.0215 -0.4544
22086SOL    HW176188  11.186   2.511   5.262 -0.4211  0.1689  0.1384
22086SOL    HW276189  11.217   2.659   5.255 -0.2676  0.1297 -0.0130
22087SOL     OW76190   4.929  10.805   9.200 -0.3070 -0.3021 -0.1838
22087SOL    HW176191   4.903  10.865   9.130  1.7482  0.3836 -0.4440
22087SOL    HW276192   4.939  10.861   9.277  1.2332 -0.3435 -0.3283
22088SOL     OW76193  12.514  11.708   0.578  0.7212  0.4593  0.2582
22088SOL    HW176194  12.528  11.799   0.605  0.0025  0.4800  0.5750
22088SOL    HW276195  12.505  11.712   0.483  1.1177  0.6607  0.2268
22089SOL     OW76196   4.433   5.525   4.538  0.0842 -0.4119 -0.1862
22089SOL    HW176197   4.432   5.471   4.617  1.1558  0.8436  0.7477
22089SOL    HW276198   4.524   5.522   4.509 -0.3659 -1.1549 -1.6297
22090SOL     OW76199   2.890   0.415  12.178  0.2161 -0.4269 -0.6884
22090SOL    HW176200   2.830   0.422  12.104 -1.3109 -0.5105  0.4983
22090SOL    HW276201   2.892   0.503  12.216  0.7649 -0.4500 -0.6635
22091SOL     OW76202   9.192   2.697  13.013 -0.0140 -0.1264 -0.0962
22091SOL    HW176203   9.232   2.610  13.014  0.0059 -0.1189 -0.2483
22091SOL    HW276204   9.220   2.736  13.096  1.2733  0.3223 -0.7158
22092SOL     OW76205  11.707   3.504   8.829 -0.0294  0.2061  0.2825
22092SOL    HW176206  11.760   3.508   8.749 -0.4299 -0.4460 -0.0169
22092SOL    HW276207  11.772   3.502   8.900  0.3280  0.8206 -0.0138
22093SOL     OW76208   4.030   7.052   5.308 -0.6755 -0.4128 -0.7241
22093SOL    HW176209   4.035   7.119   5.377 -0.1524  1.0490 -2.1227
22093SOL    HW276210   3.978   6.982   5.347  0.3268 -0.0270  1.4677
22094SOL     OW76211  10.769  12.273   4.786  0.0442  0.0929 -0.4578
22094SOL    HW176212  10.712  12.326   4.842  0.0637  0.1235 -0.4661
22094SOL    HW276213  10.723  12.267   4.703  1.2643  2.4057 -1.3892
22095SOL     OW76214   0.633   0.096   8.639  0.1984 -0.0831  0.0352
22095SOL    HW176215   0.637   0.191   8.653  0.6373 -0.4542  3.0025
22095SOL    HW276216   0.540   0.075   8.648  0.3200 -0.1400  1.3057
22096SOL     OW76217   7.604   8.222   7.424 -0.0272  0.1180  0.1909
22096SOL    HW176218   7.572   8.185   7.341 -1.0066 -0.0451  0.6268
22096SOL    HW276219   7.568   8.164   7.491 -0.1042  0.8474  0.7861
22097SOL     OW76220   6.463   4.880   2.478  0.0971 -0.1594 -0.6102
22097SOL    HW176221   6.390   4.826   2.508 -0.4802  1.0436  0.2613
22097SOL    HW276222   6.521   4.819   2.433  0.9464 -2.1630  2.7837
22098SOL     OW76223   3.767   6.512   5.581  0.3427 -0.4473 -0.7979
22098SOL    HW176224   3.843   6.486   5.633 -0.3784 -1.4216 -0.2122
22098SOL    HW276225   3.804   6.538   5.496  1.1536 -3.0706 -1.3165
22099SOL     OW76226   3.963   6.075   4.546  0.0350  0.3609  0.0977
22099SOL    HW176227   3.926   6.151   4.500 -1.1910 -0.4826 -0.3349
22099SOL    HW276228   3.953   6.002   4.485 -0.4287 -0.5185  1.1953
22100SOL     OW76229   3.399   5.690   5.107  0.9587 -0.0001  0.1901
22100SOL    HW176230   3.464   5.620   5.118  3.5912  2.1987 -0.1639
22100SOL    HW276231   3.370   5.710   5.196  0.8535 -0.9601  0.3721
22101SOL     OW76232   2.505   8.494  12.063  0.2677 -0.1143 -0.8968
22101SOL    HW176233   2.488   8.402  12.042  1.4390 -0.5622 -0.0421
22101SOL    HW276234   2.588   8.492  12.112 -0.4650  1.2232  0.4700
22102SOL     OW76235   5.130   0.040   6.991 -0.0576  0.0947  0.0629
22102SOL    HW176236   5.072   0.096   6.940  0.6127  0.6783 -0.0913
22102SOL    HW276237   5.108  -0.049   6.965 -0.0800  0.3634 -0.8711
22103SOL     OW76238   7.873  11.701  12.063  0.2464 -0.6219  0.0047
22103SOL    HW176239   7.935  11.628  12.063 -0.3647 -1.1608 -0.9616
22103SOL    HW276240   7.927  11.777  12.042  0.9076 -0.7635  1.1084
22104SOL     OW76241   7.083   6.576  12.011 -0.5243  0.0002  0.3951
22104SOL    HW176242   7.080   6.603  11.919 -1.5074 -1.5754 -0.0664
22104SOL    HW276243   6.994   6.545  12.030 -0.1437 -0.3691  1.6774
22105SOL     OW76244   4.989  10.718   3.065  0.0911 -0.3316 -0.0823
22105SOL    HW176245   5.000  10.728   3.160  0.4356 -1.5242  0.0217
22105SOL    HW276246   5.063  10.767   3.028 -0.2858  0.5018  0.2361
22106SOL     OW76247   6.022   8.758   9.382  0.0147 -0.0282 -0.5427
22106SOL    HW176248   5.966   8.690   9.420 -0.3567  0.5936  0.0546
22106SOL    HW276249   6.098   8.763   9.440 -0.0526  0.1927 -0.4702
22107SOL     OW76250  11.708  12.927   0.114  0.2963 -0.6784 -0.1025
22107SOL    HW176251  11.773  12.857   0.110 -0.6789 -1.6561  0.6938
22107SOL    HW276252  11.753  12.999   0.156  0.1852 -2.1946  2.8562
22108SOL     OW76253  10.216  11.360  10.014 -0.1574  0.7482 -0.0457
22108SOL    HW176254  10.146  11.385  10.074 -0.0235  0.7041  0.1282
22108SOL    HW276255  10.295  11.396  10.053 -0.0561  0.6307 -0.1412
22109SOL     OW76256   5.084   4.189  12.323  0.1488  0.3256 -0.2185
22109SOL    HW176257   5.036   4.240  12.389  0.9492  0.3744  0.3481
22109SOL    HW276258   5.018   4.166  12.258 -0.6915  0.2062  0.6438
22110SOL     OW76259   0.626   5.812  11.280 -0.6755 -0.7709  0.5058
22110SOL    HW176260   0.662   5.760  11.353  0.8754  0.4564  0.6722
22110SOL    HW276261   0.703   5.842  11.232 -1.6822 -2.0757 -2.0773
22111SOL     OW76262   8.412   3.410   1.371 -0.1175 -0.0504  0.5750
22111SOL    HW176263   8.354   3.418   1.446 -0.0131 -0.6030  0.7234
22111SOL    HW276264   8.476   3.479   1.381 -0.2198 -0.0028  0.8918
22112SOL     OW76265   3.176  12.958   8.771  0.1676 -0.2520 -0.0117
22112SOL    HW176266   3.246  12.892   8.775 -0.9560 -1.4362  1.5860
22112SOL    HW276267   3.110  12.921   8.713  0.2812  0.2874 -0.5004
22113SOL     OW76268   6.237   4.441   2.761  0.2730 -0.4376 -0.3428
22113SOL    HW176269   6.155   4.392   2.759 -0.6048  0.9818 -0.5229
22113SOL    HW276270   6.216   4.525   2.720  1.9325 -0.1981 -0.8088
22114SOL     OW76271   8.712   8.020   5.590 -0.3853 -0.1493  0.1050
22114SOL    HW176272   8.678   7.966   5.662 -0.4770 -2.4989 -1.6003
22114SOL    HW276273   8.650   8.007   5.519  1.0521  0.0641 -1.2369
22115SOL     OW76274  12.294  12.036   0.529 -0.2425 -0.0178 -0.1994
22115SOL    HW176275  12.270  12.043   0.622 -2.3938 -0.9165 -0.6337
22115SOL    HW276276  12.390  12.035   0.530 -0.1782  1.1193  1.9062
22116SOL     OW76277   7.191   7.904  12.235  0.2217  0.2256  0.1452
22116SOL    HW176278   7.161   7.854  12.159  0.5463  1.0941 -0.5607
22116SOL    HW276279   7.118   7.898  12.297  0.0881 -0.7648 -0.0984
22117SOL     OW76280   2.950   2.673   4.548 -0.0445  0.7699  0.7864
22117SOL    HW176281   2.862   2.641   4.567  0.5623 -2.4670 -1.1048
22117SOL    HW276282   2.990   2.688   4.634 -1.5958 -0.2810  1.7241
22118SOL     OW76283   3.441   8.560   1.239 -0.3293 -0.5303 -0.3817
22118SOL    HW176284   3.433   8.514   1.155  2.9686  0.3259 -1.3482
22118SOL    HW276285   3.448   8.653   1.214 -2.0127  0.0529  1.1201
22119SOL     OW76286  10.499  11.605   8.199 -0.2789 -0.3378  0.0688
22119SOL    HW176287  10.435  11.563   8.140  0.1973  0.1783 -0.8347
22119SOL    HW276288  10.522  11.536   8.261 -3.3486  0.0486  1.8330
22120SOL     OW76289  12.087   0.376  12.007 -0.4520 -0.1305 -0.4702
22120SOL    HW176290  12.044   0.373  12.092 -1.7253 -0.1951 -1.0853
22120SOL    HW276291  12.179   0.395  12.027 -0.9593  1.1329  0.8486
22121SOL     OW76292  12.038   0.503  10.213 -0.0821  0.1676  0.3444
22121SOL    HW176293  11.972   0.439  10.186  1.7568 -2.2961  1.2567
22121SOL    HW276294  12.024   0.513  10.307  0.8329 -0.4662  0.5694
22122SOL     OW76295  10.376   3.210   4.491  0.1711  0.0987  0.1992
22122SOL    HW176296  10.433   3.141   4.456  0.2916  1.0591 -1.5779
22122SOL    HW276297  10.427   3.290   4.481 -1.3424  0.9369 -1.1224
22123SOL     OW76298   7.777   6.165   1.572 -0.2316 -0.1795  0.0706
22123SOL    HW176299   7.745   6.081   1.541  0.3741 -0.1232 -0.7460
22123SOL    HW276300   7.839   6.194   1.505  0.4540  0.3732  0.9072
22124SOL     OW76301   2.303   9.331   9.023 -0.1825 -0.2613 -0.0082
22124SOL    HW176302   2.290   9.331   8.928  0.9018 -2.4676 -0.1993
22124SOL    HW276303   2.274   9.244   9.052  1.9225 -0.5919  1.3020
22125SOL     OW76304   0.443   8.617   9.897  0.0563 -0.5298  0.0647
22125SOL    HW176305   0.461   8.652   9.810 -0.3787 -0.5635 -0.0385
22125SOL    HW276306   0.351   8.638   9.914  0.0546 -0.7830  0.3915
22126SOL     OW76307   2.652   4.667   6.735  0.5912  0.5467 -0.2378
22126SOL    HW176308   2.748   4.670   6.741  0.8500 -3.3430  0.3550
22126SOL    HW276309   2.635   4.641   6.644  0.2896 -0.9203  0.2098
22127SOL     OW76310   7.572   8.047  10.697 -0.2568  0.2076  0.5363
22127SOL    HW176311   7.525   7.965  10.712  0.3137 -0.1532  0.3729
22127SOL    HW276312   7.505   8.115  10.707 -0.8186 -0.3009  0.2618
22128SOL     OW76313   7.243   3.719   3.011  0.0312 -0.4092 -0.0260
22128SOL    HW176314   7.326   3.738   2.966  0.2325  0.1852  0.5647
22128SOL    HW276315   7.176   3.757   2.955  0.3145  0.7269  0.3732
22129SOL     OW76316   4.426   5.884   7.838  0.1117  0.4172  0.2961
22129SOL    HW176317   4.404   5.977   7.831  0.3653  0.4409 -0.2414
22129SOL    HW276318   4.438   5.855   7.747 -2.0795 -0.6753  0.2840
22130SOL     OW76319   2.710  11.492   9.975 -0.1920  0.2574 -0.5033
22130SOL    HW176320   2.651  11.420   9.951  0.4576 -0.5354  0.2137
22130SOL    HW276321   2.652  11.563  10.001 -0.8482  0.0251 -1.2706
22131SOL     OW76322   2.263  10.578   8.452 -0.2000 -0.0519  0.0713
22131SOL    HW176323   2.300  10.541   8.372 -2.2615  1.4650 -1.6935
22131SOL    HW276324   2.169  10.572   8.440 -0.5695  1.8751  1.5683
22132SOL     OW76325   7.776   3.541   4.122  0.1773  0.4559 -0.0199
22132SOL    HW176326   7.768   3.636   4.113  0.7546  0.5923  0.7519
22132SOL    HW276327   7.711   3.518   4.188 -0.9561  0.0998 -1.2279
22133SOL     OW76328  11.192   4.816   6.518 -0.2020  0.1698  0.0872
22133SOL    HW176329  11.206   4.769   6.437 -0.7776 -0.4062  0.3101
22133SOL    HW276330  11.280   4.835   6.551  0.0354 -0.4711 -0.1646
22134SOL     OW76331   3.053   5.773   0.825  0.0441  0.0842  0.4361
22134SOL    HW176332   3.053   5.677   0.831 -2.0282  0.0565  0.7475
22134SOL    HW276333   3.041   5.803   0.915 -0.6617  0.5956  0.1782
22135SOL     OW76334   1.382   3.402  11.110 -0.4504 -0.2604  0.3167
22135SOL    HW176335   1.291   3.377  11.094 -0.0981 -0.7228 -1.2160
22135SOL    HW276336   1.380   3.497  11.118 -1.1139 -0.3025  0.6985
22136SOL     OW76337   0.429  10.734   8.218  0.4525  0.5212 -0.1051
22136SOL    HW176338   0.414  10.800   8.286 -0.0928 -0.9766  1.2685
22136SOL    HW276339   0.425  10.784   8.136 -1.6915  1.9634  0.7692
22137SOL     OW76340  12.995   4.720   3.195  0.4497 -0.5057  0.6476
22137SOL    HW176341  12.990   4.815   3.183  1.1708 -0.4213  0.9596
22137SOL    HW276342  12.936   4.701   3.267 -0.2332 -0.3917  0.1336
22138SOL     OW76343  12.815   4.603   4.835 -0.4507 -0.7462  0.2389
22138SOL    HW176344  12.753   4.671   4.807 -0.4877 -0.7217  0.3808
22138SOL    HW276345  12.876   4.649   4.893  0.7819 -0.3582 -1.2715
22139SOL     OW76346  10.240  12.736   7.006  0.0544 -0.1069 -0.1700
22139SOL    HW176347  10.187  12.669   7.050 -1.0612  1.1526  0.4634
22139SOL    HW276348  10.290  12.687   6.940 -1.6331 -1.4121 -0.5646
22140SOL     OW76349   6.280   5.614  12.138  0.2003 -0.2563  0.1587
22140SOL    HW176350   6.334   5.596  12.062 -0.0958 -1.9193  0.3045
22140SOL    HW276351   6.284   5.709  12.149  3.3647 -0.3229  0.3759
22141SOL     OW76352  11.977  11.390   9.589  0.0750  0.2214 -0.5691
22141SOL    HW176353  12.061  11.383   9.635  0.1896 -1.2824 -0.9431
22141SOL    HW276354  11.925  11.449   9.644  1.3584  1.1784 -0.3257
22142SOL     OW76355   0.249   3.780  12.400  0.2027 -0.2725  0.0767
22142SOL    HW176356   0.330   3.732  12.415  0.2474 -0.3404 -0.3634
22142SOL    HW276357   0.271   3.841  12.329 -0.4086 -1.0102 -0.7734
22143SOL     OW76358   4.477   6.094   1.972  0.0874  0.4721 -0.3465
22143SOL    HW176359   4.501   6.068   1.883 -0.4279  0.0433 -0.3594
22143SOL    HW276360   4.382   6.087   1.975  0.1763 -0.6504  0.5832
22144SOL     OW76361   8.991   1.655  12.308  0.5754 -0.3727  0.4187
22144SOL    HW176362   9.068   1.600  12.323  0.8542 -0.7895 -2.1012
22144SOL    HW276363   9.023   1.728  12.254 -0.5121  0.2686  0.5992
22145SOL     OW76364   2.080   0.765   9.025 -0.1685 -0.3838  0.4488
22145SOL    HW176365   2.069   0.803   9.112  0.4497 -1.5070  1.0425
22145SOL    HW276366   2.001   0.714   9.011 -0.6470  0.4625 -0.0214
22146SOL     OW76367   9.104   1.149   2.056  0.3066  0.4818 -0.3505
22146SOL    HW176368   9.075   1.148   1.965 -0.1784 -3.1149 -0.3236
22146SOL    HW276369   9.023   1.148   2.107  0.5740  2.5306  0.1839
22147SOL     OW76370   3.599  12.908   9.532  0.4882  0.0061  0.2684
22147SOL    HW176371   3.556  12.823   9.520 -1.3343  0.5817  2.1297
22147SOL    HW276372   3.577  12.957   9.453  0.3529 -0.7589 -0.1831
22148SOL     OW76373  11.607  10.978  10.398  0.0835 -0.4512  0.2670
22148SOL    HW176374  11.602  11.016  10.486  1.9878  0.8614 -0.1239
22148SOL    HW276375  11.606  11.054  10.339 -1.9709 -1.3470 -0.9335
22149SOL     OW76376   9.484   5.028   0.722 -0.0513 -0.1486  0.1946
22149SOL    HW176377   9.564   5.052   0.675 -0.8684  1.7974 -0.3026
22149SOL    HW276378   9.488   5.077   0.804 -1.5383  1.5016 -0.6345
22150SOL     OW76379  13.264   2.919   9.553 -0.6616 -0.2419 -0.0559
22150SOL    HW176380  13.277   3.012   9.532  1.9203 -0.2826  0.9964
22150SOL    HW276381  13.235   2.919   9.644 -3.1206 -0.4258 -0.7801
22151SOL     OW76382   5.503  11.593   1.943  0.0712  0.3567 -0.1678
22151SOL    HW176383   5.451  11.597   2.023  1.5777  1.4954  0.8130
22151SOL    HW276384   5.588  11.557   1.971  0.6425  0.8375 -1.2113
22152SOL     OW76385   9.940  12.321   0.925 -0.4062  0.1248  0.1541
22152SOL    HW176386   9.985  12.313   1.008 -1.6646  0.7380  0.9197
22152SOL    HW276387   9.933  12.415   0.909 -1.5831  0.0645  0.1818
22153SOL     OW76388   2.553   2.432   0.151 -0.3273 -0.1621  0.0533
22153SOL    HW176389   2.582   2.469   0.067  0.4969  0.7244  0.6999
22153SOL    HW276390   2.619   2.366   0.172 -0.2571 -0.0351  0.2348
22154SOL     OW76391   3.236  12.374   1.310  0.0133  0.5670  0.0706
22154SOL    HW176392   3.236  12.347   1.402  0.0197 -1.1056 -0.3756
22154SOL    HW276393   3.145  12.360   1.281  0.2782 -0.1155 -0.4766
22155SOL     OW76394   0.039  11.084   5.198 -0.0921  0.0585  0.3977
22155SOL    HW176395   0.038  11.166   5.149  0.5347  0.0020  0.2906
22155SOL    HW276396   0.090  11.023   5.144 -0.6620 -0.4466  0.4107
22156SOL     OW76397   0.274  12.311   8.113  0.5372 -0.2450  0.3309
22156SOL    HW176398   0.325  12.297   8.193  0.0019  1.1412  0.9454
22156SOL    HW276399   0.302  12.396   8.081 -0.4916 -0.0179  0.0091
22157SOL     OW76400  13.073   2.712   0.428  0.3664  0.1757 -0.4291
22157SOL    HW176401  13.066   2.718   0.332 -0.0226  1.2447 -0.3538
22157SOL    HW276402  13.160   2.748   0.447  1.9096 -3.1639 -0.5897
22158SOL     OW76403  11.962  10.912  11.022  0.1150 -0.4782  0.3711
22158SOL    HW176404  11.993  10.843  10.963  0.8863  1.4392 -1.6421
22158SOL    HW276405  11.890  10.872  11.070  0.2333 -2.5367 -1.0139
22159SOL     OW76406   4.682   8.468   6.911  0.0189  0.3180 -0.2272
22159SOL    HW176407   4.615   8.407   6.941  1.1060 -1.2677 -0.8677
22159SOL    HW276408   4.651   8.501   6.827 -0.0486 -0.2636 -0.4301
22160SOL     OW76409   4.329   2.244   8.038  0.2610 -0.0549 -0.1995
22160SOL    HW176410   4.241   2.248   8.076 -0.3737  0.0459 -1.6222
22160SOL    HW276411   4.322   2.181   7.966  1.7487 -1.2101  0.6041
22161SOL     OW76412   5.345  10.561  12.803 -0.0951  0.3719  0.0313
22161SOL    HW176413   5.438  10.542  12.813  0.2532  2.3409  1.1229
22161SOL    HW276414   5.303  10.511  12.873 -0.1564 -1.9280 -1.5260
22162SOL     OW76415   6.378   1.936   8.514  0.0336 -0.0673  0.0343
22162SOL    HW176416   6.393   1.941   8.608 -1.3901  0.3466  0.2652
22162SOL    HW276417   6.421   2.014   8.479  0.7269 -0.3198  0.3061
22163SOL     OW76418  10.446   8.278  12.201 -0.4402 -0.0595  0.1995
22163SOL    HW176419  10.445   8.373  12.214  0.1267  0.0532 -0.5045
22163SOL    HW276420  10.508   8.245  12.267  1.9515  0.4402 -1.6483
22164SOL     OW76421  12.642   2.665   8.266  0.3310  0.1296  0.1579
22164SOL    HW176422  12.574   2.602   8.241 -0.7167  1.9683 -2.0054
22164SOL    HW276423  12.604   2.712   8.340 -0.8010  1.0669 -0.9628
22165SOL     OW76424   8.722   1.699   4.783 -0.0482  0.0429  0.1723
22165SOL    HW176425   8.765   1.768   4.833 -2.3254 -0.4597  3.0742
22165SOL    HW276426   8.777   1.622   4.798  1.7324  0.7809 -1.9454
22166SOL     OW76427   0.480   3.972   6.738  0.4676 -0.4890 -0.4922
22166SOL    HW176428   0.527   3.988   6.820  0.1376 -0.5492 -0.2899
22166SOL    HW276429   0.477   3.877   6.731  2.5169 -0.5180 -1.7469
22167SOL     OW76430   4.315   1.459   6.289  0.7082 -0.1352 -0.3863
22167SOL    HW176431   4.295   1.365   6.292 -0.2918  0.0843  2.3673
22167SOL    HW276432   4.402   1.466   6.328 -0.2192  0.2476  1.7129
22168SOL     OW76433   8.004   4.671  10.023  1.1664  0.0012 -0.1666
22168SOL    HW176434   8.015   4.754  10.069 -0.9774  1.0047 -1.2593
22168SOL    HW276435   7.953   4.617  10.082 -0.7464  0.9349 -0.8623
22169SOL     OW76436  12.038   3.956   5.093  0.2000 -0.2089 -0.4235
22169SOL    HW176437  11.981   3.958   5.170  0.9201 -2.7079  0.2754
22169SOL    HW276438  12.113   4.010   5.118  0.2883 -0.7476  0.5364
22170SOL     OW76439  13.296   4.634   6.790 -0.1304  0.1494 -0.0911
22170SOL    HW176440  13.341   4.719   6.786  0.4684 -0.1879 -1.1050
22170SOL    HW276441  13.278   4.613   6.698 -0.7876 -0.5520  0.1947
22171SOL     OW76442   7.460   8.464   7.375 -0.0814 -0.1154 -0.3407
22171SOL    HW176443   7.520   8.396   7.407  0.2410  0.2538 -0.1416
22171SOL    HW276444   7.465   8.457   7.280  0.4094  0.0165 -0.3306
22172SOL     OW76445   9.949   0.101   7.070 -0.1679  0.1865  0.5308
22172SOL    HW176446  10.040   0.085   7.095  0.0770  1.0597  0.2390
22172SOL    HW276447   9.944   0.073   6.978 -0.5029 -0.9732  0.8966
22173SOL     OW76448   2.326   5.314   1.604  0.1081  0.4164  0.2512
22173SOL    HW176449   2.317   5.241   1.542 -2.4876  0.8244  0.0600
22173SOL    HW276450   2.401   5.289   1.659 -1.0661 -2.7337  0.6040
22174SOL     OW76451   2.601   7.931   2.617 -0.1341 -0.5260  0.4006
22174SOL    HW176452   2.551   8.003   2.579 -1.7041 -0.2021  2.8333
22174SOL    HW276453   2.595   7.860   2.553 -1.9280  0.2284 -0.3279
22175SOL     OW76454   9.101   6.534  11.702 -0.1246 -0.6660  0.1835
22175SOL    HW176455   9.016   6.578  11.697  0.0276 -0.5368 -1.8759
22175SOL    HW276456   9.100   6.472  11.629  2.2605  0.6899 -1.1306
22176SOL     OW76457   3.856   3.603   2.171  0.2047 -0.4716 -0.2806
22176SOL    HW176458   3.945   3.638   2.160 -0.0761  1.2661  2.0908
22176SOL    HW276459   3.801   3.663   2.121 -0.0433  1.5205  2.1297
22177SOL     OW76460   3.112   7.592  10.357 -0.4764  0.4410  0.3381
22177SOL    HW176461   3.026   7.590  10.316 -1.0876  1.0242  1.5480
22177SOL    HW276462   3.135   7.685  10.360 -0.8200  0.5002  2.0452
22178SOL     OW76463   7.821   1.417   1.181 -0.2090  0.4328  0.1369
22178SOL    HW176464   7.805   1.323   1.190 -1.2782  0.4595 -1.1579
22178SOL    HW276465   7.734   1.456   1.183  0.1835  1.3318 -0.0570
22179SOL     OW76466   5.553   2.833   3.868 -0.3409 -0.0026 -0.1009
22179SOL    HW176467   5.566   2.802   3.958 -3.9085  0.2380  0.6619
22179SOL    HW276468   5.515   2.759   3.822 -0.9225  0.6489 -0.6917
22180SOL     OW76469   9.617  12.728   9.802  0.0524  0.0125  0.6837
22180SOL    HW176470   9.673  12.806   9.800 -2.1214  1.6671  0.4056
22180SOL    HW276471   9.606  12.704   9.710  0.5690 -0.5523  0.7590
22181SOL     OW76472  10.946   1.696   1.655  0.0299  0.4894  0.0931
22181SOL    HW176473  11.016   1.658   1.708  1.9831  2.4255 -0.8988
22181SOL    HW276474  10.965   1.669   1.566 -1.1666  0.1359 -0.0728
22182SOL     OW76475   0.123   3.520   2.204  0.1061 -0.2789 -0.1731
22182SOL    HW176476   0.155   3.461   2.272 -1.1374 -0.6805  0.0893
22182SOL    HW276477   0.097   3.462   2.132  0.6140  0.0819 -0.6475
22183SOL     OW76478   3.175  11.145   8.813 -0.1157  0.0654 -0.1532
22183SOL    HW176479   3.260  11.128   8.774 -0.4558 -3.6337  0.4166
22183SOL    HW276480   3.186  11.229   8.858  3.0931 -0.1441 -0.3133
22184SOL     OW76481  10.930  10.441   9.796 -0.3671  0.0267 -0.1039
22184SOL    HW176482  10.958  10.375   9.859 -1.7717 -0.2541  0.2521
22184SOL    HW276483  10.995  10.436   9.726  1.0844  0.1530  1.1575
22185SOL     OW76484   5.233   9.140  10.968 -0.0153  0.2276 -0.1469
22185SOL    HW176485   5.138   9.149  10.956 -0.0364  0.4956  0.1841
22185SOL    HW276486   5.257   9.063  10.918 -0.7326 -1.0131  1.3408
22186SOL     OW76487  10.473   4.966   5.748 -0.2543  0.3412 -0.8251
22186SOL    HW176488  10.554   4.929   5.783  0.5614  2.5069 -0.3180
22186SOL    HW276489  10.403   4.927   5.801  0.7317  1.1921  1.1652
22187SOL     OW76490   8.024   2.257   0.067  0.3110  0.0486  0.3905
22187SOL    HW176491   8.037   2.304   0.150  0.9389  0.0798  0.2737
22187SOL    HW276492   7.932   2.275   0.044  0.3339  0.6174  0.7201
22188SOL     OW76493  12.938   1.380   0.573  0.3214  0.8706  0.4580
22188SOL    HW176494  12.958   1.293   0.608 -0.4068  0.7149  0.5122
22188SOL    HW276495  12.978   1.440   0.635  1.7012  0.5853 -0.1115
22189SOL     OW76496  12.198   0.354   5.071  0.2683  0.3791  0.4737
22189SOL    HW176497  12.209   0.263   5.045  2.0584  0.4307  0.9647
22189SOL    HW276498  12.245   0.404   5.004 -0.5907  0.9617  0.2773
22190SOL     OW76499  11.590   7.753   1.562  0.1953  0.3150  0.1246
22190SOL    HW176500  11.562   7.713   1.644 -0.2388  0.3184 -0.0186
22190SOL    HW276501  11.603   7.680   1.502 -3.0591  0.4052 -0.9251
22191SOL     OW76502   9.658   2.521   1.164 -0.1818  0.6535  0.1114
22191SOL    HW176503   9.717   2.512   1.239 -0.4628  0.1589  0.2778
22191SOL    HW276504   9.571   2.505   1.201 -0.2890  0.0873 -0.3870
22192SOL     OW76505  11.359   6.605   6.958  0.1060  0.2157 -0.0727
22192SOL    HW176506  11.408   6.688   6.956  1.7943 -0.7515 -0.6642
22192SOL    HW276507  11.398   6.557   7.031  0.1174 -0.6172 -0.6215
22193SOL     OW76508   6.352   7.816   9.048 -0.1705 -0.0211 -0.7625
22193SOL    HW176509   6.371   7.845   8.959 -1.4191 -1.3120 -1.4870
22193SOL    HW276510   6.258   7.801   9.049 -0.3202  0.8281  1.0550
22194SOL     OW76511   5.793  10.646   9.315 -0.7330  0.0981  0.0273
22194SOL    HW176512   5.816  10.716   9.375  0.3184 -0.1167 -0.1027
22194SOL    HW276513   5.719  10.602   9.356 -1.2208  1.1114  0.2435
22195SOL     OW76514   0.414   4.186   2.792  0.0252 -0.1652  0.6494
22195SOL    HW176515   0.386   4.104   2.752 -0.7822  1.3512 -2.1114
22195SOL    HW276516   0.466   4.229   2.725  0.7931  1.4403  2.1905
22196SOL     OW76517  13.076   6.370   5.321 -0.1259  0.0632 -0.1298
22196SOL    HW176518  13.022   6.373   5.400  0.3365 -2.0826  0.3140
22196SOL    HW276519  13.166   6.368   5.354  0.0533 -1.6425 -0.6389
22197SOL     OW76520   0.826  12.006  11.354 -0.1513  0.9520  0.3070
22197SOL    HW176521   0.758  12.015  11.287 -0.5470  1.1942  0.7361
22197SOL    HW276522   0.838  11.912  11.364  1.2795  0.8949 -1.4771
22198SOL     OW76523   7.084  11.968   0.502  0.2559 -0.0497 -0.5493
22198SOL    HW176524   7.022  12.037   0.526  1.0335  0.7519 -0.8218
22198SOL    HW276525   7.068  11.899   0.566 -0.4552  0.4164 -0.2056
22199SOL     OW76526   7.364   2.252   8.691  0.0325  0.1907 -0.1520
22199SOL    HW176527   7.408   2.309   8.628  0.7602 -1.1178 -0.8743
22199SOL    HW276528   7.306   2.197   8.638 -0.6848  0.2803  0.5252
22200SOL     OW76529   9.318   2.009   1.257  0.1779  0.0240  0.2845
22200SOL    HW176530   9.297   2.056   1.338  0.6181  0.5723  0.0868
22200SOL    HW276531   9.369   2.072   1.206 -0.4258 -0.1860 -0.5889
22201SOL     OW76532   3.781  11.332   5.337  0.1987 -0.0140 -0.3481
22201SOL    HW176533   3.729  11.253   5.352  0.0571  0.2612  0.6886
22201SOL    HW276534   3.752  11.393   5.405  2.5597 -0.1748  0.8830
22202SOL     OW76535  11.198   2.731   3.257 -0.0872 -0.1894  0.0119
22202SOL    HW176536  11.231   2.722   3.346  0.4111  0.5509 -0.0886
22202SOL    HW276537  11.166   2.821   3.252 -0.0677 -0.2092 -0.5761
22203SOL     OW76538   1.474   1.649  10.421  0.6319 -0.6583 -0.3268
22203SOL    HW176539   1.465   1.621  10.512  1.9223 -1.7254 -0.5103
22203SOL    HW276540   1.511   1.737  10.426 -0.0508 -0.3853  0.1720
22204SOL     OW76541   2.988   5.744  10.816  0.0310  0.1736 -0.4200
22204SOL    HW176542   2.967   5.659  10.779 -2.0285  0.2305  0.4646
22204SOL    HW276543   3.079   5.760  10.790  0.0664 -1.7055 -1.6534
22205SOL     OW76544  10.747   4.509  12.742 -0.1448  0.3118  0.6416
22205SOL    HW176545  10.814   4.460  12.790  0.1054 -1.2227 -1.1734
22205SOL    HW276546  10.787   4.594  12.725  1.1346 -0.3732  0.1015
22206SOL     OW76547  12.152  10.422   8.496 -0.0033 -0.2709  0.3125
22206SOL    HW176548  12.168  10.344   8.444 -0.3079 -1.7438  2.3245
22206SOL    HW276549  12.083  10.397   8.557  0.3781  1.3532  1.4913
22207SOL     OW76550   7.367   3.181   8.065 -0.2768 -0.2799 -0.0185
22207SOL    HW176551   7.309   3.218   8.131 -0.2561  0.7212 -0.5328
22207SOL    HW276552   7.309   3.156   7.993 -0.0814  0.7689 -0.5539
22208SOL     OW76553   1.565   3.217  12.813  0.6037  0.5191 -0.0948
22208SOL    HW176554   1.497   3.159  12.848  1.7072 -1.3408 -0.8758
22208SOL    HW276555   1.557   3.297  12.865 -1.8856  0.2323  0.1036
22209SOL     OW76556   7.103   9.330   0.072  0.5712 -0.7350  0.5223
22209SOL    HW176557   7.185   9.338   0.120 -0.1664  1.9138  1.5169
22209SOL    HW276558   7.048   9.275   0.128  0.5855  0.2156  1.4974
22210SOL     OW76559   0.905  10.846   4.531  0.4411 -0.1995  0.2275
22210SOL    HW176560   0.840  10.883   4.590  0.3636 -1.5389  1.0158
22210SOL    HW276561   0.958  10.921   4.504  0.6276  0.4337  2.1897
22211SOL     OW76562  11.258   5.739   1.910  0.2233  0.1855 -0.6243
22211SOL    HW176563  11.298   5.826   1.906  1.7635 -0.4017  1.1117
22211SOL    HW276564  11.303   5.694   1.980 -0.3053 -2.1763 -1.6877
22212SOL     OW76565   5.233   6.190   9.881  0.1628  0.5160 -0.3911
22212SOL    HW176566   5.180   6.205   9.802 -0.0927 -1.5874 -0.6916
22212SOL    HW276567   5.190   6.242   9.949 -1.2371  0.2923 -1.0563
22213SOL     OW76568  12.676  10.680   6.664 -0.1968  1.3310 -0.3014
22213SOL    HW176569  12.622  10.601   6.675  2.2444 -0.2533  1.1749
22213SOL    HW276570  12.632  10.746   6.717 -0.9948  0.2401  0.4544
22214SOL     OW76571   3.007   2.665   6.087  0.2268 -0.4982  0.0007
22214SOL    HW176572   3.093   2.706   6.076  0.6533 -1.0352  1.1430
22214SOL    HW276573   2.946   2.739   6.092  1.0376  0.1000  2.4106
22215SOL     OW76574  10.628  12.091   1.294  0.2847  0.3002  0.7858
22215SOL    HW176575  10.722  12.109   1.286 -0.0815  1.3990 -2.8530
22215SOL    HW276576  10.587  12.177   1.291 -0.9466 -0.2641 -2.7766
22216SOL     OW76577  12.862   1.534   6.274 -0.1048 -0.2099 -0.3757
22216SOL    HW176578  12.917   1.487   6.211  0.9187 -0.4989  0.6956
22216SOL    HW276579  12.885   1.626   6.262 -1.5100  0.0013 -1.9007
22217SOL     OW76580   5.958   6.570   0.133 -0.7522 -0.9277  0.2416
22217SOL    HW176581   5.879   6.604   0.091  0.0321 -0.2317 -0.7176
22217SOL    HW276582   6.014   6.543   0.060  0.8446  0.7307  0.7781
22218SOL     OW76583   1.804  13.241   8.522  0.2770 -0.1505 -0.3241
22218SOL    HW176584   1.853  13.321   8.540  1.2597 -1.0714  1.3793
22218SOL    HW276585   1.730  13.245   8.583  0.4118 -0.6037 -0.1324
22219SOL     OW76586   4.990   9.553   0.279 -0.1353  0.4794  0.0160
22219SOL    HW176587   4.967   9.489   0.347  0.2016 -0.0830 -0.3934
22219SOL    HW276588   5.050   9.613   0.323 -1.3852  1.2443  0.7497
22220SOL     OW76589   6.481   6.869   4.776 -0.0698  0.1193  0.0373
22220SOL    HW176590   6.538   6.830   4.710 -0.2841  4.1176 -2.8956
22220SOL    HW276591   6.393   6.837   4.754  0.1332 -0.4236 -0.0144
22221SOL     OW76592   4.612   6.090  12.527  0.4938  0.4579 -0.2291
22221SOL    HW176593   4.540   6.149  12.550 -0.4387 -0.2687 -1.1792
22221SOL    HW276594   4.685   6.119  12.581  0.1802  2.7018 -0.8972
22222SOL     OW76595   1.743   3.281   2.711 -0.4102 -0.0382 -0.1245
22222SOL    HW176596   1.668   3.290   2.769 -1.4941  0.6531 -1.5824
22222SOL    HW276597   1.726   3.200   2.662  0.2747 -0.3853  0.1969
22223SOL     OW76598   0.660  13.083   9.126 -0.3321 -0.1274  0.1302
22223SOL    HW176599   0.632  13.092   9.035 -1.5706 -1.1304  0.3920
22223SOL    HW276600   0.750  13.116   9.127  0.5058 -2.1050 -1.9176
22224SOL     OW76601  12.794   3.818   9.294  0.0921  0.2371  0.0306
22224SOL    HW176602  12.716   3.870   9.314  0.5950  1.4494 -1.0315
22224SOL    HW276603  12.811   3.835   9.202  1.1098 -0.7047  0.0306
22225SOL     OW76604   6.703   7.528   1.198  0.2942  0.8788 -0.4307
22225SOL    HW176605   6.765   7.578   1.250  0.5387  0.0543  0.0853
22225SOL    HW276606   6.623   7.527   1.250  0.7248 -0.4742  0.2535
22226SOL     OW76607   3.322   5.179   5.137 -0.4623  0.1303 -0.6386
22226SOL    HW176608   3.355   5.096   5.170 -1.2250  0.0965  0.0783
22226SOL    HW276609   3.348   5.180   5.045 -1.5154 -1.4896 -1.0003
22227SOL     OW76610   5.778   9.777   1.814  0.2419 -0.2044  0.5842
22227SOL    HW176611   5.771   9.756   1.908  0.5477 -2.6535  0.1317
22227SOL    HW276612   5.697   9.823   1.794  0.4991  1.0436  2.1927
22228SOL     OW76613   7.953   2.557   4.628  0.3730 -0.0264  0.0013
22228SOL    HW176614   7.967   2.477   4.680 -0.3370  0.0043  0.2446
22228SOL    HW276615   7.994   2.626   4.680 -0.5604  0.0458  0.6693
22229SOL     OW76616  11.636   5.415   8.247  0.2186 -0.0793 -0.3045
22229SOL    HW176617  11.722   5.402   8.286  0.8644  0.9603 -1.3103
22229SOL    HW276618  11.650   5.482   8.180 -1.5890  0.8881  0.2293
22230SOL     OW76619   5.085   8.770   8.631 -0.1164  0.1920  0.1689
22230SOL    HW176620   4.992   8.782   8.614 -0.4188 -1.1324  0.7944
22230SOL    HW276621   5.095   8.677   8.650  1.5615  0.0311 -1.2271
22231SOL     OW76622   7.035   1.430  10.155 -0.2842 -0.0758 -0.1630
22231SOL    HW176623   7.113   1.374  10.155 -0.3566 -0.2298 -1.7305
22231SOL    HW276624   7.030   1.463  10.065 -2.4601 -0.7178 -0.3340
22232SOL     OW76625   0.294  12.213   4.261  0.2820  0.0147  0.3512
22232SOL    HW176626   0.266  12.273   4.193 -1.3892  1.2138  2.0037
22232SOL    HW276627   0.378  12.179   4.230 -0.7707 -0.1345 -2.6401
22233SOL     OW76628   5.744  13.254   7.575  0.3391 -0.0367  0.0180
22233SOL    HW176629   5.690  13.298   7.642  2.2604  0.5262  1.2859
22233SOL    HW276630   5.738  13.161   7.597  0.1859  0.0547  0.3831
22234SOL     OW76631   8.303   8.225  11.896  0.1879 -0.4867  0.4397
22234SOL    HW176632   8.365   8.297  11.903 -2.7863  2.2877  0.6827
22234SOL    HW276633   8.324   8.167  11.969  2.6531  0.1050  0.2665
22235SOL     OW76634   2.518   0.412   7.957 -0.5368 -0.1425  0.5614
22235SOL    HW176635   2.534   0.329   7.911  2.3428 -0.7144  2.3957
22235SOL    HW276636   2.462   0.388   8.031 -1.2986 -0.0516  0.0323
22236SOL     OW76637   2.446   3.215   5.268 -0.3882 -0.0392 -0.3160
22236SOL    HW176638   2.474   3.189   5.356  1.5361  0.3382 -0.7505
22236SOL    HW276639   2.502   3.164   5.210 -0.2834  1.1283 -1.2722
22237SOL     OW76640  11.934   0.247   3.927  0.1695 -0.2828 -0.2435
22237SOL    HW176641  11.970   0.308   3.991 -0.4888 -0.0141 -0.1237
22237SOL    HW276642  11.840   0.264   3.927  0.1883 -0.0029 -1.5524
22238SOL     OW76643   5.068   0.666   2.474 -0.2228 -0.3629 -0.2584
22238SOL    HW176644   5.148   0.615   2.484  1.3813  2.0603  0.0820
22238SOL    HW276645   5.016   0.617   2.411  2.3618 -1.1146 -1.9552
22239SOL     OW76646  12.117   5.519   8.549 -0.3326 -0.0915  0.2943
22239SOL    HW176647  12.189   5.495   8.608  0.9423  1.0781 -0.7154
22239SOL    HW276648  12.160   5.559   8.474 -2.0469  0.3411 -0.5055
22240SOL     OW76649   6.209  12.886   2.242 -0.1055 -0.0814 -0.1893
22240SOL    HW176650   6.231  12.956   2.181  1.6476 -0.4583 -0.0267
22240SOL    HW276651   6.124  12.854   2.211  0.0973  0.6438 -1.5926
22241SOL     OW76652   7.028   9.269   4.953 -0.1019  0.2630 -0.2023
22241SOL    HW176653   6.958   9.206   4.937 -0.3231  0.9242 -2.1346
22241SOL    HW276654   7.011   9.302   5.041 -2.6265  0.8272 -0.8076
22242SOL     OW76655  13.159   9.797  10.223  0.1815  0.1816  0.0603
22242SOL    HW176656  13.147   9.853  10.147 -0.3194  0.3312  0.2475
22242SOL    HW276657  13.166   9.708  10.187  4.1922  0.5327 -0.5853
22243SOL     OW76658   3.978   7.389   7.908 -0.0250  0.1856 -0.0464
22243SOL    HW176659   4.007   7.303   7.879 -0.3621 -0.3703  1.1856
22243SOL    HW276660   4.032   7.451   7.859  1.2667 -0.7525  0.1403
22244SOL     OW76661   1.575   1.644   3.125  0.3916  0.2194  0.0875
22244SOL    HW176662   1.533   1.722   3.160 -0.5724  0.5167 -1.6525
22244SOL    HW276663   1.605   1.669   3.038  3.4607 -0.2433  0.8729
22245SOL     OW76664   3.755   1.734  10.663  0.6667 -0.3243  0.1143
22245SOL    HW176665   3.776   1.674  10.591  0.2107 -1.3749  0.8392
22245SOL    HW276666   3.665   1.761  10.647  0.7373 -0.1469  0.0113
22246SOL     OW76667   9.310   9.674   1.042 -0.7084  0.0884  0.4621
22246SOL    HW176668   9.399   9.650   1.015 -1.3818 -0.8183 -1.0440
22246SOL    HW276669   9.312   9.769   1.047 -0.2261  0.2341 -1.7642
22247SOL     OW76670  10.884   4.924   8.935  0.1792  0.3049  0.0721
22247SOL    HW176671  10.807   4.888   8.981 -0.7199  1.9996 -0.0328
22247SOL    HW276672  10.862   4.916   8.842 -0.1198  1.2924  0.0534
22248SOL     OW76673   4.916   8.853   7.194  0.4574 -0.1095 -0.1783
22248SOL    HW176674   4.841   8.805   7.159  0.6097 -0.6635  0.2482
22248SOL    HW276675   4.985   8.787   7.202  0.2259 -0.1538  1.7869
22249SOL     OW76676   4.882   4.604   2.587  0.0171 -0.0704  0.5876
22249SOL    HW176677   4.976   4.587   2.594  0.2641  1.1168  0.3500
22249SOL    HW276678   4.871   4.694   2.618 -0.7838  0.4094 -0.9681
22250SOL     OW76679   9.687  12.618   5.105  0.6087 -0.2698  0.5182
22250SOL    HW176680   9.647  12.564   5.173 -0.1239 -0.7722 -0.2879
22250SOL    HW276681   9.779  12.626   5.131  0.5500 -1.2308  1.0660
22251SOL     OW76682   1.824   9.784  10.352 -0.1118  0.4271  0.1360
22251SOL    HW176683   1.888   9.720  10.382 -0.3807 -0.2526 -0.7060
22251SOL    HW276684   1.850   9.866  10.395 -0.5076 -0.4916  2.1992
22252SOL     OW76685   5.600   8.795   4.767  0.4219 -0.2015  0.2211
22252SOL    HW176686   5.574   8.812   4.858  2.2591 -0.5243  0.8362
22252SOL    HW276687   5.516   8.786   4.720 -0.5765  1.7915  1.4925
22253SOL     OW76688   5.452   3.964  13.126 -0.1373  0.3285  0.2017
22253SOL    HW176689   5.368   3.987  13.086 -0.5752 -3.0028 -1.1840
22253SOL    HW276690   5.518   4.006  13.071 -0.8486  0.5615 -0.4909
22254SOL     OW76691   9.932   0.553   3.407  0.1406  0.5152  0.0237
22254SOL    HW176692  10.026   0.535   3.412  0.3945  1.3943 -1.2400
22254SOL    HW276693   9.926   0.648   3.416 -0.6171  0.4830 -0.1276
22255SOL     OW76694   3.453   6.025   2.530 -0.1426  0.0380  0.1346
22255SOL    HW176695   3.419   6.044   2.618 -0.4107  1.3569 -0.2222
22255SOL    HW276696   3.548   6.029   2.540 -0.1686  1.9714  0.0606
22256SOL     OW76697   3.580   0.830   8.631  0.2214 -0.3500  0.1012
22256SOL    HW176698   3.597   0.920   8.604 -1.6126 -0.2539 -0.8837
22256SOL    HW276699   3.667   0.794   8.650  1.0568  1.3814 -0.2323
22257SOL     OW76700   2.361   1.345  10.598 -0.3238  0.2155  0.5316
22257SOL    HW176701   2.359   1.327  10.692 -0.3190 -1.2527  0.2724
22257SOL    HW276702   2.451   1.370  10.580 -0.8084  2.9004  1.2816
22258SOL     OW76703   5.528   4.253  10.827 -0.1347  0.1154  0.1021
22258SOL    HW176704   5.524   4.201  10.747  1.2253 -0.2999  0.2809
22258SOL    HW276705   5.564   4.338  10.799  0.5298 -0.0966  0.2862
22259SOL     OW76706   5.780  10.453   7.452  0.2861  0.1712  0.3356
22259SOL    HW176707   5.763  10.387   7.519 -1.3696 -0.2086 -0.4096
22259SOL    HW276708   5.741  10.533   7.486  0.8370  0.3717  0.5069
22260SOL     OW76709   9.089   4.560   2.395 -0.5078 -0.2153 -0.5893
22260SOL    HW176710   9.077   4.605   2.479 -6.5020  0.5299 -1.4297
22260SOL    HW276711   9.134   4.625   2.340  0.9493  0.3648  1.2023
22261SOL     OW76712   5.786   6.335   8.328 -0.3948  0.2385 -0.0707
22261SOL    HW176713   5.818   6.383   8.405  1.8934  1.1575 -1.4838
22261SOL    HW276714   5.769   6.247   8.361 -1.0070  0.9883  1.7902
22262SOL     OW76715   7.796   2.340   7.936 -0.2823  0.6674  0.2647
22262SOL    HW176716   7.806   2.349   7.841 -0.0380 -0.3244  0.1818
22262SOL    HW276717   7.857   2.270   7.960 -1.3040 -0.0266  0.9451
22263SOL     OW76718   0.475   4.323   9.554  0.2764  0.0361 -0.4613
22263SOL    HW176719   0.515   4.398   9.509  2.3200 -0.1114  0.9763
22263SOL    HW276720   0.386   4.353   9.574  0.5764  1.5411 -1.1806
22264SOL     OW76721  11.635   5.123   5.756 -0.2562  0.5621  0.0447
22264SOL    HW176722  11.689   5.190   5.712  1.9496 -0.9924  0.1935
22264SOL    HW276723  11.699   5.066   5.799 -2.1151 -0.9749  0.9004
22265SOL     OW76724  10.297  12.718   1.126  0.6206 -0.2346 -0.0482
22265SOL    HW176725  10.204  12.731   1.108  0.6748  2.0994  0.9775
22265SOL    HW276726  10.341  12.774   1.061  1.2886 -0.8475 -0.1288
22266SOL     OW76727   2.141   4.070   0.553  0.0757  0.4027 -0.9103
22266SOL    HW176728   2.178   4.086   0.639  0.0043  1.3029 -1.0427
22266SOL    HW276729   2.201   4.113   0.492  0.4616 -0.7427 -1.3729
22267SOL     OW76730   5.848   9.112   5.536  0.1868  0.3331 -0.1398
22267SOL    HW176731   5.831   9.047   5.468 -2.2972  1.3110 -0.5545
22267SOL    HW276732   5.847   9.061   5.617  0.5563 -0.4686 -0.6233
22268SOL     OW76733   6.411   3.953   3.696 -0.1080 -0.2243 -0.6101
22268SOL    HW176734   6.384   3.991   3.613 -0.2567 -0.7025 -0.7828
22268SOL    HW276735   6.499   3.987   3.710 -0.4882  0.7245 -0.4236
22269SOL     OW76736  11.301   1.070   1.108  0.0658  0.3786 -0.5043
22269SOL    HW176737  11.211   1.094   1.088  0.4512  1.3246 -1.2425
22269SOL    HW276738  11.351   1.151   1.094  0.9909 -0.0655  0.1166
22270SOL     OW76739   5.247   6.526   6.025 -0.0635 -0.0662  1.0982
22270SOL    HW176740   5.205   6.500   5.943  0.5282  0.3256  0.6592
22270SOL    HW276741   5.184   6.502   6.093 -0.1376 -1.3104  0.6098
22271SOL     OW76742  12.659  10.697  10.775  0.0852 -0.1575 -0.5707
22271SOL    HW176743  12.593  10.643  10.731 -2.5265  1.5939  0.8916
22271SOL    HW276744  12.639  10.786  10.745 -0.0427  0.7466  1.9656
22272SOL     OW76745   1.283   2.433   9.079  0.1513  0.0872  0.3852
22272SOL    HW176746   1.217   2.365   9.095 -0.9294  0.7535 -1.0576
22272SOL    HW276747   1.255   2.475   8.997  0.0244  3.1962  1.9019
22273SOL     OW76748   8.747   4.653   2.539  0.6890 -0.4143 -0.2227
22273SOL    HW176749   8.784   4.703   2.466  0.8448 -1.0453 -0.5843
22273SOL    HW276750   8.726   4.719   2.605  3.7722 -0.0876  0.5997
22274SOL     OW76751   8.552   9.233   8.495  0.1079  0.0845 -0.1534
22274SOL    HW176752   8.508   9.148   8.500  2.0498 -0.9692  0.0487
22274SOL    HW276753   8.492   9.293   8.540 -0.7083 -1.4524  0.9295
22275SOL     OW76754   6.734   7.035   7.787 -0.0838  0.5595  0.0965
22275SOL    HW176755   6.813   7.002   7.744 -1.4285 -1.4305 -0.9959
22275SOL    HW276756   6.684   7.078   7.717 -1.4448 -1.0869  0.0083
22276SOL     OW76757   8.881   1.837  10.160 -0.5057  0.4897  0.0750
22276SOL    HW176758   8.816   1.769  10.140 -1.7329  1.2079  1.4103
22276SOL    HW276759   8.888   1.836  10.255  1.6021  0.3454 -0.0403
22277SOL     OW76760   3.419   7.692  11.683  0.6110 -0.6352 -0.0004
22277SOL    HW176761   3.475   7.620  11.710  0.1810 -1.0295 -0.1354
22277SOL    HW276762   3.433   7.760  11.748  0.7349 -0.9868  0.3419
22278SOL     OW76763   5.722   1.994   3.824 -0.1779  0.1550 -0.7358
22278SOL    HW176764   5.679   1.944   3.894 -1.8795  1.3537 -0.8705
22278SOL    HW276765   5.708   1.942   3.745  0.9496 -0.7483 -0.3642
22279SOL     OW76766   8.023   6.698   1.357 -0.2285 -0.3072  0.9287
22279SOL    HW176767   8.056   6.703   1.447  1.9873 -0.7869  0.1996
22279SOL    HW276768   8.014   6.604   1.340  0.9857 -0.3055  0.1380
22280SOL     OW76769  11.440   8.319   9.879  0.1709 -0.0390 -0.1867
22280SOL    HW176770  11.514   8.343   9.936 -0.3635  1.6182 -0.1232
22280SOL    HW276771  11.461   8.360   9.795 -0.6820  0.4861 -0.1523
22281SOL     OW76772   8.609  10.728   5.876  0.2113  0.1700 -0.0992
22281SOL    HW176773   8.652  10.690   5.800 -0.0614  0.8495 -0.6058
22281SOL    HW276774   8.527  10.765   5.841  0.2315  0.7566  0.4606
22282SOL     OW76775   5.330   6.375  10.892  0.0547  0.0084 -0.2365
22282SOL    HW176776   5.314   6.282  10.878  2.2873 -0.5507  0.5071
22282SOL    HW276777   5.331   6.385  10.987 -1.5519  1.0921 -0.3096
22283SOL     OW76778   6.412   7.752   5.252  0.1389 -0.2554 -0.6479
22283SOL    HW176779   6.357   7.740   5.174 -2.9864 -0.2323  1.3636
22283SOL    HW276780   6.383   7.684   5.312  2.2401 -0.0752  0.6581
22284SOL     OW76781   7.182   1.035   5.787  0.6189 -0.4617  0.2952
22284SOL    HW176782   7.275   1.031   5.810  0.6103 -0.3260  0.3519
22284SOL    HW276783   7.144   1.097   5.849  0.3300 -1.1272  0.7957
22285SOL     OW76784  11.149   1.488  10.992 -0.1767  0.9988 -0.4998
22285SOL    HW176785  11.192   1.523  11.070 -0.0588 -0.4907  0.1510
22285SOL    HW276786  11.173   1.547  10.922  1.6209  1.0979  0.1601
22286SOL     OW76787   8.613   8.858   4.435  0.8906 -0.6942  0.2271
22286SOL    HW176788   8.559   8.812   4.499  1.6998 -1.3888  0.4371
22286SOL    HW276789   8.601   8.951   4.455  1.8606 -0.9181  2.0284
22287SOL     OW76790   7.081   9.293   2.087  0.0731  0.3667  0.1215
22287SOL    HW176791   7.084   9.282   2.182  0.1418 -0.7814 -0.0027
22287SOL    HW276792   6.995   9.331   2.070  0.3448  1.2733  0.6970
22288SOL     OW76793   8.331   7.531  11.612  0.1226 -0.0846 -0.5802
22288SOL    HW176794   8.390   7.486  11.551  1.3784  0.6156  0.0746
22288SOL    HW276795   8.357   7.623  11.606 -0.8404  0.2224 -0.1802
22289SOL     OW76796  10.910   0.438   0.444  0.5512  0.1469 -0.0667
22289SOL    HW176797  10.828   0.420   0.491 -0.8405  1.6155 -1.8213
22289SOL    HW276798  10.979   0.414   0.507 -1.2046 -0.3000  1.7871
22290SOL     OW76799   2.977   9.275  11.421  0.2763 -0.2101  0.4032
22290SOL    HW176800   2.922   9.344  11.385  1.1717  0.7309  0.7784
22290SOL    HW276801   3.048   9.322  11.465  1.3814 -1.3801 -0.0755
22291SOL     OW76802  10.732   0.416   8.953 -0.4025 -0.5047  0.3134
22291SOL    HW176803  10.717   0.506   8.981  1.1130 -0.1593  0.1505
22291SOL    HW276804  10.725   0.419   8.858  1.1170 -0.1933  0.1750
22292SOL     OW76805  12.794   1.524   3.115 -0.0637  0.1619 -0.3894
22292SOL    HW176806  12.826   1.434   3.121  0.9276  0.5140 -0.1449
22292SOL    HW276807  12.715   1.517   3.062  0.3077 -0.7884 -0.8658
22293SOL     OW76808   3.800   4.646  12.952 -0.0069 -0.6288 -0.3617
22293SOL    HW176809   3.876   4.678  12.999 -0.6238  1.1790 -0.5170
22293SOL    HW276810   3.832   4.571  12.902  1.5440 -0.2254 -0.0164
22294SOL     OW76811   4.483  10.398   4.656  0.0430 -0.1720 -0.9294
22294SOL    HW176812   4.411  10.460   4.669  0.3662  0.1305 -0.5591
22294SOL    HW276813   4.445  10.328   4.603 -1.2200 -1.2341  1.2372
22295SOL     OW76814  10.385   4.654  11.542  0.1723  0.3949 -0.0992
22295SOL    HW176815  10.395   4.714  11.616 -0.1486 -0.5422  0.7185
22295SOL    HW276816  10.343   4.708  11.474  1.4800  1.5714 -0.0267
22296SOL     OW76817   2.884   3.655  13.272  0.4853  0.0761  0.0909
22296SOL    HW176818   2.971   3.643  13.310  0.3849  1.9547  1.0222
22296SOL    HW276819   2.823   3.624  13.339  0.3987  0.3501  0.1415
22297SOL     OW76820   6.302   1.782  10.235  0.8483  0.1233  0.3585
22297SOL    HW176821   6.242   1.708  10.248  1.7779 -0.5934  0.7057
22297SOL    HW276822   6.250   1.859  10.256 -0.1700 -0.4266 -0.1003
22298SOL     OW76823   3.376   2.045   4.549 -1.0549  0.3718 -0.4002
22298SOL    HW176824   3.368   2.136   4.519  1.6785  1.0935  0.7280
22298SOL    HW276825   3.319   2.040   4.626  0.2974  1.8266  0.7774
22299SOL     OW76826  10.636  13.075   8.201  0.6342  0.0520 -0.0803
22299SOL    HW176827  10.644  13.045   8.110  0.5446  0.9950 -0.4083
22299SOL    HW276828  10.598  13.162   8.194  0.2405 -0.0330  0.8962
22300SOL     OW76829   1.156   8.629   1.346 -0.3842  0.1109 -0.4568
22300SOL    HW176830   1.150   8.537   1.371  1.2482  0.0380 -0.2266
22300SOL    HW276831   1.168   8.627   1.251  0.7550 -0.0002 -0.3299
22301SOL     OW76832  10.074   2.827  13.120  0.3241  0.0165  0.2701
22301SOL    HW176833  10.138   2.768  13.161  0.6716  0.8784  1.0018
22301SOL    HW276834  10.010   2.845  13.190  0.1001  0.3401 -0.0154
22302SOL     OW76835  10.220   5.418   7.924  0.5121 -0.3051 -0.3387
22302SOL    HW176836  10.172   5.423   7.842  0.5342 -1.4020 -0.4296
22302SOL    HW276837  10.305   5.460   7.905 -0.0377  0.7961 -0.4346
22303SOL     OW76838   1.881   6.216   1.345  0.3253  0.4823 -0.5603
22303SOL    HW176839   1.884   6.142   1.284  1.1591 -0.3934  0.4947
22303SOL    HW276840   1.929   6.285   1.301  0.5981 -0.0224 -1.0690
22304SOL     OW76841   9.677   6.538  13.302 -0.0933 -0.1834  0.4539
22304SOL    HW176842   9.698   6.551  13.209  0.2146  1.4193  0.7080
22304SOL    HW276843   9.584   6.518  13.303 -0.2005  0.2451 -0.1767
22305SOL     OW76844  11.361  12.499   9.322 -0.0808 -0.1613 -0.2231
22305SOL    HW176845  11.273  12.487   9.287 -0.0403  1.7088 -1.0799
22305SOL    HW276846  11.417  12.447   9.264 -0.5442 -0.9089 -0.0112
22306SOL     OW76847   4.557   3.874   7.093  0.2974  0.5496  0.4624
22306SOL    HW176848   4.579   3.935   7.163 -1.4257 -0.0327  1.5932
22306SOL    HW276849   4.511   3.927   7.028  0.6729  0.8344  0.4279
22307SOL     OW76850   3.717   3.930   3.566 -0.3259  0.4405  0.1734
22307SOL    HW176851   3.628   3.896   3.553 -0.7126  0.7463  1.7910
22307SOL    HW276852   3.748   3.886   3.645 -0.1169  2.3853  1.2236
22308SOL     OW76853   4.267   9.500   9.227  0.7807 -0.3625 -0.0496
22308SOL    HW176854   4.338   9.565   9.231  1.0214 -0.4221 -2.0258
22308SOL    HW276855   4.241   9.487   9.318  1.5782  1.5731  0.5163
22309SOL     OW76856   4.954  10.025   6.527 -0.5292 -0.3307  0.3815
22309SOL    HW176857   5.017   9.970   6.480 -0.0909  1.2941 -1.0411
22309SOL    HW276858   5.008  10.077   6.587 -0.4489  1.0650 -0.8392
22310SOL     OW76859   8.866   8.776   9.317  0.1960 -0.0815 -0.0010
22310SOL    HW176860   8.876   8.686   9.289  1.2355  0.3352 -1.0330
22310SOL    HW276861   8.873   8.828   9.236 -2.4879  0.8335  0.2205
22311SOL     OW76862   2.376   0.898   8.129 -0.1997 -0.0042 -0.0612
22311SOL    HW176863   2.358   0.822   8.074  0.5387  0.6018 -1.1828
22311SOL    HW276864   2.455   0.936   8.092  1.8064 -0.9424  2.9144
22312SOL     OW76865   4.985   7.604   5.886 -0.3550 -1.1886  0.5072
22312SOL    HW176866   4.995   7.642   5.973 -0.9752 -1.2754  0.6227
22312SOL    HW276867   4.959   7.677   5.831 -0.3728 -1.2125  0.4837
22313SOL     OW76868   6.720   7.961  11.795 -0.0505  0.6502 -0.4783
22313SOL    HW176869   6.650   8.013  11.756 -1.5555 -1.9272 -1.4899
22313SOL    HW276870   6.702   7.871  11.766 -0.8407 -1.5240  5.3344
22314SOL     OW76871   6.294   4.465  11.605  0.5621  0.1950 -0.4160
22314SOL    HW176872   6.356   4.500  11.669  0.4354  3.1291 -1.7423
22314SOL    HW276873   6.342   4.470  11.522  0.1104 -1.8929 -0.8563
22315SOL     OW76874   8.172   5.087   3.170 -0.3731  0.5874 -0.1790
22315SOL    HW176875   8.204   5.103   3.259  2.0095  0.6553 -0.9962
22315SOL    HW276876   8.087   5.045   3.183 -0.5576  1.4984  2.1056
22316SOL     OW76877   6.894  11.409   8.365 -0.3228  0.4237 -0.8669
22316SOL    HW176878   6.811  11.458   8.365  0.6495  2.1586 -0.4959
22316SOL    HW276879   6.955  11.466   8.411  1.6867  0.2611 -3.1425
22317SOL     OW76880   9.785   3.599   2.268  0.1263  0.2636  0.6436
22317SOL    HW176881   9.759   3.507   2.264  0.3235  0.2159  0.3783
22317SOL    HW276882   9.706   3.647   2.241 -0.0899  0.1934  1.1494
22318SOL     OW76883  10.903   9.379   9.896  0.0575 -0.0458 -0.7449
22318SOL    HW176884  10.813   9.368   9.866 -1.3717  0.1528  2.8590
22318SOL    HW276885  10.909   9.471   9.922  0.4251 -0.5680  1.2154
22319SOL     OW76886   2.121  13.277   1.762  0.0234  0.5984 -0.4507
22319SOL    HW176887   2.090  13.198   1.718  0.8011  0.8479 -1.4680
22319SOL    HW276888   2.197  13.305   1.712  1.0648  0.8008  1.1512
22320SOL     OW76889   4.667  12.327  10.739  0.1416  0.2561  0.4302
22320SOL    HW176890   4.718  12.395  10.782  0.8283  0.0523 -0.0415
22320SOL    HW276891   4.729  12.254  10.728 -0.0486  0.2583 -0.7715
22321SOL     OW76892   0.459   6.569  12.260  0.2069 -0.7681 -0.2088
22321SOL    HW176893   0.435   6.656  12.293  1.0099 -0.6841  0.2035
22321SOL    HW276894   0.426   6.567  12.171 -0.1697 -0.1865 -0.0872
22322SOL     OW76895   0.703   5.339   9.087  0.0531  0.1302  0.5464
22322SOL    HW176896   0.652   5.290   9.152 -2.0044 -0.0824 -1.0974
22322SOL    HW276897   0.646   5.412   9.062  0.9920  0.4897 -0.6252
22323SOL     OW76898   0.790   6.238   8.828 -0.2343  0.8792  0.0853
22323SOL    HW176899   0.803   6.221   8.921 -1.3047 -2.6075 -0.2525
22323SOL    HW276900   0.826   6.161   8.784 -2.1862  1.1079 -2.1606
22324SOL     OW76901   1.063  11.857   1.931 -0.1261  0.1955  0.8244
22324SOL    HW176902   1.124  11.906   1.875 -1.9532  1.4136 -0.1949
22324SOL    HW276903   1.051  11.912   2.008 -0.5836  0.3595  0.6368
22325SOL     OW76904   7.881   0.009   4.739  0.5638  0.2383  0.5484
22325SOL    HW176905   7.850   0.069   4.807  1.6198 -1.3488  2.5412
22325SOL    HW276906   7.840  -0.075   4.761 -2.2663  0.3679 -3.1438
22326SOL     OW76907   4.611   3.852   7.555 -0.3607  0.1142  0.3054
22326SOL    HW176908   4.590   3.759   7.556 -0.0842  0.0467 -0.0893
22326SOL    HW276909   4.528   3.895   7.536  0.0691 -0.2256 -2.7586
22327SOL     OW76910   0.689   1.969  10.741 -0.1738 -0.0955  0.1667
22327SOL    HW176911   0.662   2.061  10.741  0.4898  0.1222  1.4163
22327SOL    HW276912   0.772   1.968  10.695  0.0448  0.0154  0.5519
22328SOL     OW76913   1.917   6.572  12.391 -0.1281 -0.4323 -0.6445
22328SOL    HW176914   1.946   6.486  12.359 -0.5576 -0.4486 -1.0144
22328SOL    HW276915   1.936   6.571  12.484  0.0804 -0.8467 -0.6902
22329SOL     OW76916   1.222   7.136   7.639  0.3145 -0.7447  0.3431
22329SOL    HW176917   1.222   7.176   7.552 -0.4136 -0.1599  0.6025
22329SOL    HW276918   1.246   7.045   7.624 -2.6380 -1.4530 -0.8731
22330SOL     OW76919   2.981   9.184  12.482  0.3234  0.0900 -0.4360
22330SOL    HW176920   3.028   9.260  12.516 -1.2784  0.1684  1.8327
22330SOL    HW276921   3.009   9.111  12.539 -1.9506  0.0894  0.7976
22331SOL     OW76922   1.173   2.088   6.930  0.3606  0.4417  0.6667
22331SOL    HW176923   1.100   2.130   6.885  0.0587 -1.0874 -0.3205
22331SOL    HW276924   1.181   2.137   7.012 -1.1864  1.2136  0.3955
22332SOL     OW76925   3.919   8.853  10.468  0.1513  0.0672 -0.4079
22332SOL    HW176926   3.955   8.854  10.556 -0.7889  0.8307 -0.0090
22332SOL    HW276927   3.907   8.946  10.446  1.5746 -0.0421 -1.8650
22333SOL     OW76928  10.337   2.261  12.090  0.2291  0.3487  0.6284
22333SOL    HW176929  10.342   2.302  12.004  0.2806 -1.0902 -0.0723
22333SOL    HW276930  10.394   2.316  12.145 -0.1056  1.5098 -0.1350
22334SOL     OW76931  12.996   8.482   8.741  0.1346 -0.1033  0.1843
22334SOL    HW176932  13.005   8.438   8.826  1.2696 -2.7203 -1.1572
22334SOL    HW276933  12.902   8.485   8.726 -0.1878  1.6720  2.0712
22335SOL     OW76934   2.804   1.055  10.189  0.0344  0.2609 -0.0083
22335SOL    HW176935   2.769   1.008  10.113 -0.9866  2.2705 -0.8482
22335SOL    HW276936   2.898   1.064  10.170 -0.0431 -0.0866 -0.5794
22336SOL     OW76937  12.609   1.443   9.425 -0.2021 -0.6922  0.5540
22336SOL    HW176938  12.594   1.380   9.496 -0.3885  0.1567  1.2900
22336SOL    HW276939  12.703   1.460   9.428  0.1525 -2.1934 -0.7615
22337SOL     OW76940   9.406   0.966  10.275 -0.0937 -0.3486  0.0834
22337SOL    HW176941   9.448   0.885  10.245 -3.3724 -1.7913 -1.0760
22337SOL    HW276942   9.357   0.940  10.353  0.1124  0.9767  0.6781
22338SOL     OW76943  12.085  11.830   0.544  0.6061  0.0291  0.4150
22338SOL    HW176944  12.146  11.884   0.494  0.9280  0.0403  0.8098
22338SOL    HW276945  12.140  11.763   0.585  0.0372 -1.6814 -1.4045
22339SOL     OW76946  13.122  11.485   8.838  0.0523  0.1015 -0.0310
22339SOL    HW176947  13.045  11.431   8.820  1.3193 -1.5194 -0.8219
22339SOL    HW276948  13.138  11.474   8.932  0.2556 -0.8737 -0.1699
22340SOL     OW76949  10.368   6.127  12.318  0.6341  0.0398  0.2554
22340SOL    HW176950  10.421   6.160  12.245  1.5299 -1.8185  0.0026
22340SOL    HW276951  10.331   6.205  12.358  1.1251  1.1994 -1.4308
22341SOL     OW76952   4.585  11.638   6.238  0.1704  0.1262 -0.0528
22341SOL    HW176953   4.562  11.729   6.224  0.1310  0.0325 -0.5913
22341SOL    HW276954   4.553  11.619   6.326 -0.3487  0.4615 -0.1668
22342SOL     OW76955   9.292  12.550   9.695 -0.3555 -0.2344  0.2171
22342SOL    HW176956   9.365  12.577   9.639  0.1834 -0.8076  0.6224
22342SOL    HW276957   9.335  12.518   9.775 -1.1002  0.5579  0.9543
22343SOL     OW76958   7.314   7.256   3.390  0.1491 -0.3130 -0.1331
22343SOL    HW176959   7.359   7.257   3.306  2.1376  0.0966  0.8725
22343SOL    HW276960   7.343   7.337   3.433  0.1597 -1.1124  1.4225
22344SOL     OW76961  13.092  12.659   2.356  0.3798  1.0133 -0.9881
22344SOL    HW176962  13.094  12.746   2.317  2.1296  0.8832 -1.2644
22344SOL    HW276963  13.183  12.639   2.376 -0.1197 -0.2768  0.1699
22345SOL     OW76964   5.031   2.179   4.977  0.4308 -0.8258  0.3083
22345SOL    HW176965   4.963   2.113   4.984 -0.4022  0.0928  1.0751
22345SOL    HW276966   4.984   2.260   4.957  1.5738 -0.8209 -3.2133
22346SOL     OW76967   7.156   5.053   4.127  0.4475  0.0995  0.0308
22346SOL    HW176968   7.210   5.002   4.188 -1.1867 -0.1848  1.3219
22346SOL    HW276969   7.150   4.999   4.049  1.5952 -0.0880  0.0548
22347SOL     OW76970   7.520  11.009   6.173 -0.5390  0.2300  0.4419
22347SOL    HW176971   7.532  11.095   6.132 -1.4387 -0.5439 -1.5565
22347SOL    HW276972   7.443  11.019   6.228 -1.4364  0.3678 -0.8165
22348SOL     OW76973  11.956   8.618   7.088  0.1325  0.7934  0.0142
22348SOL    HW176974  11.927   8.674   7.016 -2.4482 -1.5179 -0.8923
22348SOL    HW276975  11.887   8.627   7.154 -0.4788 -1.3948 -0.2560
22349SOL     OW76976   0.215   4.545   1.076 -0.1515  0.2525 -0.0238
22349SOL    HW176977   0.207   4.607   1.003 -1.4646  1.3238  0.9820
22349SOL    HW276978   0.153   4.577   1.142 -0.7265 -2.0408  0.6251
22350SOL     OW76979   4.644   3.092   8.895 -0.6022 -0.3823 -0.9250
22350SOL    HW176980   4.570   3.057   8.944  0.9942 -0.0154  2.0020
22350SOL    HW276981   4.634   3.187   8.900 -0.7857 -0.3426 -1.9457
22351SOL     OW76982   2.034   1.345   6.106  0.2802  0.0575 -0.0707
22351SOL    HW176983   2.104   1.328   6.043 -0.2676 -1.5269 -0.3000
22351SOL    HW276984   2.075   1.334   6.192  0.8502  1.4844 -0.1343
22352SOL     OW76985   3.682   3.776   4.866  0.1743 -1.0475  0.8013
22352SOL    HW176986   3.601   3.798   4.819  0.6314 -0.3230  0.3463
22352SOL    HW276987   3.701   3.686   4.839 -1.0885 -1.6515  1.7945
22353SOL     OW76988   1.439   7.347   5.871  0.4269 -0.0240 -0.1683
22353SOL    HW176989   1.376   7.407   5.831 -0.6207 -0.6180  0.5487
22353SOL    HW276990   1.395   7.262   5.870  1.3711 -0.5296  0.0207
22354SOL     OW76991   4.063  13.151   5.370  1.0043 -0.3523 -0.0772
22354SOL    HW176992   3.993  13.214   5.353  0.0694 -1.2848  0.1962
22354SOL    HW276993   4.070  13.099   5.290  2.0560  0.3404 -0.4535
22355SOL     OW76994   2.168  10.299   8.094 -0.5662  0.2365  0.5250
22355SOL    HW176995   2.158  10.216   8.048 -0.0761 -0.2559  1.2892
22355SOL    HW276996   2.128  10.284   8.180  0.2501  0.5199  0.9672
22356SOL     OW76997   6.343   2.970   4.939 -0.0716  0.0943 -0.0851
22356SOL    HW176998   6.284   2.999   4.869  1.1335 -0.2070 -1.2642
22356SOL    HW276999   6.365   2.880   4.915 -0.4024 -0.3571  1.2356
22357SOL     OW77000  11.205   3.365   2.095  0.3919 -0.5529  0.9323
22357SOL    HW177001  11.287   3.369   2.046  1.1351 -0.8317  2.1070
22357SOL    HW277002  11.157   3.292   2.056  1.0685 -0.9193  0.7644
22358SOL     OW77003   2.197   9.961   4.083 -0.1815  0.0659 -0.0967
22358SOL    HW177004   2.189   9.948   4.177 -1.0797  0.1677 -0.1545
22358SOL    HW277005   2.151   9.887   4.044  1.5963 -0.8891 -0.4934
22359SOL     OW77006   6.865   1.735   7.355 -0.0959 -0.0413  0.1381
22359SOL    HW177007   6.784   1.689   7.336  0.3062  0.0725 -2.2203
22359SOL    HW277008   6.927   1.666   7.378 -0.3094 -0.3637 -0.2399
22360SOL     OW77009   0.940  12.433  11.809 -0.1192  0.2944  0.3663
22360SOL    HW177010   0.926  12.426  11.715  0.7417  1.0973  0.1735
22360SOL    HW277011   0.854  12.458  11.844 -0.0353  1.7930 -0.4202
22361SOL     OW77012   9.766   7.920   0.283  0.2275  0.1393 -0.6391
22361SOL    HW177013   9.753   7.944   0.192 -1.2541 -0.6926 -0.6721
22361SOL    HW277014   9.853   7.881   0.286  1.2446  2.2312 -1.2324
22362SOL     OW77015   0.213   4.301   5.191  0.0299  0.1217 -0.1644
22362SOL    HW177016   0.275   4.234   5.161 -0.4639  0.5242 -2.3006
22362SOL    HW277017   0.243   4.325   5.278  1.5239 -1.3127 -0.2367
22363SOL     OW77018   5.098   6.428   6.566 -0.3236  0.0869  0.0212
22363SOL    HW177019   5.145   6.349   6.594 -0.1704 -0.1168 -0.7580
22363SOL    HW277020   5.008   6.413   6.594 -0.1984 -0.1553  0.3005
22364SOL     OW77021   9.118   3.298  12.438 -0.2146 -0.0461  0.2930
22364SOL    HW177022   9.203   3.341  12.449  0.1990 -0.3862 -1.2681
22364SOL    HW277023   9.138   3.219  12.386 -1.3235 -0.7568  0.9074
22365SOL     OW77024   2.785   2.264   6.069 -1.4069 -0.0321 -0.2493
22365SOL    HW177025   2.783   2.195   6.135 -1.2352  0.7042  0.5467
22365SOL    HW277026   2.804   2.219   5.987 -0.9871 -0.8829  0.3068
22366SOL     OW77027   5.443   3.639   5.695 -0.3414  0.3929  0.7427
22366SOL    HW177028   5.531   3.625   5.729  0.0257 -2.7062 -1.1089
22366SOL    HW277029   5.456   3.666   5.604 -1.3212  0.9444  0.7466
22367SOL     OW77030  11.736   8.429  12.364 -0.0473  0.4418  1.2886
22367SOL    HW177031  11.761   8.370  12.435 -1.6419  0.9711  2.3565
22367SOL    HW277032  11.665   8.482  12.401  0.1956  1.8721 -0.1853
22368SOL     OW77033   6.801   0.580   9.997 -0.1629 -0.1658  0.1192
22368SOL    HW177034   6.830   0.660  10.042 -0.4549 -0.9519  1.8137
22368SOL    HW277035   6.880   0.545   9.956  0.3672  0.0348  0.9368
22369SOL     OW77036   3.879   2.108   6.091 -0.5092 -0.4846 -0.6535
22369SOL    HW177037   3.855   2.096   5.999 -0.9048 -0.5012 -0.5496
22369SOL    HW277038   3.855   2.199   6.110  0.8717 -0.0359 -0.9548
22370SOL     OW77039  11.083   1.564  11.493 -0.1522 -0.3899 -0.4333
22370SOL    HW177040  11.041   1.518  11.420 -1.5036 -0.7452  0.5273
22370SOL    HW277041  11.010   1.606  11.539  0.9210  1.6408 -0.5232
22371SOL     OW77042   4.015   1.456   1.573 -0.1409 -0.0356  0.0932
22371SOL    HW177043   3.937   1.509   1.586  0.9166  1.7431 -0.5090
22371SOL    HW277044   4.087   1.519   1.566  1.3027 -1.5810  0.1463
22372SOL     OW77045  12.627   8.477   4.418 -0.7277 -0.3394  0.0590
22372SOL    HW177046  12.671   8.397   4.386 -1.6663 -0.7397 -0.2676
22372SOL    HW277047  12.639   8.474   4.513 -1.6121 -1.4246  0.1681
22373SOL     OW77048   3.306  10.960   1.938  0.2291 -1.0986  0.4910
22373SOL    HW177049   3.373  11.002   1.991 -0.6693 -1.4032  1.9142
22373SOL    HW277050   3.294  10.874   1.977 -1.6334 -0.7086  0.8595
22374SOL     OW77051   8.191   6.346   1.720 -0.3773 -0.6759 -0.0793
22374SOL    HW177052   8.197   6.252   1.735  0.7035 -0.5393  0.3698
22374SOL    HW277053   8.236   6.359   1.636 -0.1090 -0.4979  0.0926
22375SOL     OW77054   7.762   9.986   7.942  0.3192  0.4629 -0.5050
22375SOL    HW177055   7.730   9.945   8.023  1.0135 -0.3034 -0.6070
22375SOL    HW277056   7.707  10.064   7.932 -2.7188 -1.6057 -1.5549
22376SOL     OW77057   1.826  11.362   7.144 -0.2806  0.0198  0.3217
22376SOL    HW177058   1.871  11.403   7.070 -1.0446  1.2677  0.5243
22376SOL    HW277059   1.748  11.322   7.105  0.5390 -1.4385  0.0999
22377SOL     OW77060   6.454  10.929  10.487 -0.1332  0.6311  0.2498
22377SOL    HW177061   6.484  10.890  10.569 -0.1465  1.5020  0.6703
22377SOL    HW277062   6.504  11.010  10.478 -0.2519  0.6326 -0.5183
22378SOL     OW77063   3.151   5.631   1.720  0.5476  0.5197 -0.3855
22378SOL    HW177064   3.196   5.628   1.804  0.7966  0.2841 -0.5256
22378SOL    HW277065   3.059   5.646   1.742  0.7179  1.1632 -0.1063
22379SOL     OW77066   8.433  12.362   8.764  0.2203  0.6920 -0.0144
22379SOL    HW177067   8.431  12.420   8.840 -0.4610  0.0314  0.4743
22379SOL    HW277068   8.429  12.274   8.800 -2.2263  0.3886 -0.8776
22380SOL     OW77069  10.976   2.035  10.646 -0.0602 -0.0393 -0.2713
22380SOL    HW177070  11.049   1.976  10.664  0.6927  1.5030  2.2467
22380SOL    HW277071  11.015   2.122  10.643 -1.6348  0.7176 -0.0574
22381SOL     OW77072   1.430   9.836  10.004 -0.7054  0.0447  0.2821
22381SOL    HW177073   1.477   9.824  10.086  0.9818 -0.1913 -0.6556
22381SOL    HW277074   1.360   9.898  10.024  0.2268  0.6960  1.6875
22382SOL     OW77075   0.062  12.172   1.223 -0.1049  0.1351  0.3766
22382SOL    HW177076  -0.005  12.239   1.238 -0.6685  0.0921 -1.6574
22382SOL    HW277077   0.135  12.219   1.183 -0.1496 -0.2950 -0.2309
22383SOL     OW77078   3.376   4.284   1.123 -0.0237  0.6041  0.6785
22383SOL    HW177079   3.281   4.292   1.130  0.1468  1.0865  4.0389
22383SOL    HW277080   3.391   4.202   1.076 -2.0618  0.7033 -0.2159
22384SOL     OW77081  10.082   8.260   1.815 -0.2939  0.0695  0.2769
22384SOL    HW177082  10.055   8.177   1.777  1.4243 -0.0229 -0.8619
22384SOL    HW277083  10.067   8.324   1.745 -0.4533  0.5156  0.7154
22385SOL     OW77084   5.823   1.026  10.183 -0.1041 -0.2373 -0.1045
22385SOL    HW177085   5.811   0.934  10.203 -0.0663  0.0462  1.3431
22385SOL    HW277086   5.909   1.048  10.220 -0.2409  0.4371 -0.1717
22386SOL     OW77087  11.618   1.741   0.884  0.0247 -0.2149 -0.2084
22386SOL    HW177088  11.557   1.756   0.956 -1.0142 -0.2371 -1.0397
22386SOL    HW277089  11.703   1.730   0.925 -0.5980 -0.5806  1.0368
22387SOL     OW77090   9.881   0.329   1.851 -0.0935  0.0743 -0.0290
22387SOL    HW177091   9.910   0.238   1.856  0.6825  0.3593  1.0776
22387SOL    HW277092   9.930   0.365   1.777  0.2172 -0.2017  0.0384
22388SOL     OW77093  13.189   2.526   3.724 -0.4319  0.1103 -0.7286
22388SOL    HW177094  13.274   2.498   3.690 -0.2811  1.8217 -1.8932
22388SOL    HW277095  13.210   2.591   3.791 -0.8094 -0.8161  0.3132
22389SOL     OW77096   4.644  13.297   2.305 -0.2217  0.4456  0.5281
22389SOL    HW177097   4.681  13.283   2.218 -0.2689 -0.9188  0.7127
22389SOL    HW277098   4.556  13.260   2.300  0.0379 -0.3279  1.3598
22390SOL     OW77099   8.010  12.507   8.556 -0.7059  0.4884 -0.0637
22390SOL    HW177100   7.922  12.470   8.564 -0.0122 -0.9127  1.4665
22390SOL    HW277101   8.060  12.439   8.510  0.0227  0.4672  0.7420
22391SOL     OW77102  12.181   0.113   2.504  0.8057  0.0677 -0.2801
22391SOL    HW177103  12.143   0.124   2.417  0.7589  0.3283 -0.2270
22391SOL    HW277104  12.118   0.059   2.551 -0.4053  2.0035  0.3898
22392SOL     OW77105  11.441   2.928   8.689  0.3585  0.2636  0.1728
22392SOL    HW177106  11.519   2.969   8.652 -0.3651  0.1196 -1.5770
22392SOL    HW277107  11.439   2.840   8.652 -2.0225  1.1205 -2.0593
22393SOL     OW77108   4.705   3.573   7.357 -0.5247  0.0274  0.0784
22393SOL    HW177109   4.614   3.549   7.343 -1.2485  1.7743  1.3705
22393SOL    HW277110   4.740   3.503   7.412 -1.0263 -0.7155 -0.5237
22394SOL     OW77111  10.152  11.660  12.981 -0.6962 -0.3501  0.4521
22394SOL    HW177112  10.164  11.638  13.074 -0.4339 -0.0181  0.4988
22394SOL    HW277113  10.227  11.717  12.960 -0.8295 -0.3138  0.0733
22395SOL     OW77114   0.863   5.521   0.577 -0.0539  0.3422  0.2589
22395SOL    HW177115   0.787   5.531   0.519 -0.2849  1.5101  0.7316
22395SOL    HW277116   0.920   5.595   0.554  0.7670 -0.2922  0.1905
22396SOL     OW77117  13.027   1.337  10.217  0.1529  0.4731 -0.3075
22396SOL    HW177118  13.007   1.249  10.248  0.3962  0.5768  0.1477
22396SOL    HW277119  12.944   1.384  10.224  0.5845  1.0291  2.0097
22397SOL     OW77120  13.133  10.585   3.240 -0.6573  0.3501 -0.4127
22397SOL    HW177121  13.109  10.528   3.167 -1.5688  1.7335 -1.2333
22397SOL    HW277122  13.197  10.646   3.202 -0.6512  0.6799  0.1211
22398SOL     OW77123  12.332   2.315   6.263 -0.2084  0.1115 -0.2578
22398SOL    HW177124  12.403   2.283   6.318 -2.0372 -0.5773  1.8575
22398SOL    HW277125  12.350   2.278   6.177  2.5319  0.8833 -0.1144
22399SOL     OW77126  12.126   0.803   3.226  0.3933  0.1459  0.6238
22399SOL    HW177127  12.057   0.825   3.163  0.7861  1.4498  0.6249
22399SOL    HW277128  12.102   0.851   3.305  0.7006 -0.3062  1.0002
22400SOL     OW77129   7.147   5.250   6.783 -0.3235  0.5866  0.3644
22400SOL    HW177130   7.202   5.315   6.827  1.2761 -0.2737 -0.2851
22400SOL    HW277131   7.122   5.189   6.853 -0.2727  0.8608  0.6268
22401SOL     OW77132  12.783  11.014   8.370 -0.0456 -0.7050  0.0082
22401SOL    HW177133  12.823  10.927   8.364  0.5106 -0.4595  0.1312
22401SOL    HW277134  12.777  11.044   8.279  0.3197 -0.6222  0.0113
22402SOL     OW77135   8.982  12.497  10.245 -0.0396  0.4726  0.3510
22402SOL    HW177136   8.999  12.515  10.152  0.6805 -3.4078 -0.4347
22402SOL    HW277137   8.887  12.490  10.251 -0.1669  1.8007  0.1956
22403SOL     OW77138   7.140  11.087   8.550 -0.2550 -0.3689 -0.3313
22403SOL    HW177139   7.231  11.062   8.569  0.2447  1.1190 -0.6253
22403SOL    HW277140   7.113  11.026   8.481  1.3911  0.7049 -2.0187
22404SOL     OW77141  10.913   6.034   1.798  0.1169  0.1898  0.1678
22404SOL    HW177142  10.950   6.094   1.863 -0.1038  0.9953 -0.4257
22404SOL    HW277143  10.932   6.076   1.714 -2.1827  0.6678 -0.1746
22405SOL     OW77144  13.308   4.687  12.460  0.5908  0.1099 -0.1119
22405SOL    HW177145  13.335   4.640  12.539  1.6276  1.2603  0.2417
22405SOL    HW277146  13.218   4.659  12.445  0.7805 -1.0507  0.7757
22406SOL     OW77147   8.837   2.220   4.496 -0.2135  0.2764  0.0238
22406SOL    HW177148   8.865   2.242   4.407  0.0628 -0.2344 -0.0193
22406SOL    HW277149   8.798   2.133   4.487 -1.2920  0.7290  0.1845
22407SOL     OW77150  10.235  11.796   7.432  0.2804  0.0106 -0.5436
22407SOL    HW177151  10.169  11.729   7.451  1.2333 -0.8381 -0.0642
22407SOL    HW277152  10.195  11.853   7.367 -1.4170  0.3025  0.6922
22408SOL     OW77153   7.473   0.420   9.199  0.2484  0.3209  0.7508
22408SOL    HW177154   7.536   0.456   9.137 -1.1807 -0.6065 -1.3498
22408SOL    HW277155   7.393   0.470   9.184 -0.9403 -1.7630 -0.2294
22409SOL     OW77156   3.215   1.876   1.398  0.0865 -0.6299 -0.3985
22409SOL    HW177157   3.243   1.933   1.327 -0.4457 -0.9777 -0.8911
22409SOL    HW277158   3.240   1.788   1.371 -0.8542 -0.8627 -0.5360
22410SOL     OW77159   4.096   1.525   6.888 -0.2226  0.4919  0.2629
22410SOL    HW177160   4.117   1.594   6.825 -0.7361  0.0576 -0.3973
22410SOL    HW277161   4.168   1.462   6.879  2.1213  2.4490  3.2559
22411SOL     OW77162  13.295   0.097   1.531 -0.3205 -0.3892  0.0082
22411SOL    HW177163  13.240   0.137   1.464 -0.8843 -1.1538 -0.0076
22411SOL    HW277164  13.235   0.074   1.602 -0.3070 -2.4976 -0.5868
22412SOL     OW77165  11.521  10.491   8.991 -0.5819  0.5127 -0.0454
22412SOL    HW177166  11.581  10.454   8.926 -0.8426  0.1061 -0.0607
22412SOL    HW277167  11.577  10.517   9.064 -0.3818  0.1098 -0.0494
22413SOL     OW77168  10.558   0.310  10.988  0.0288 -0.6011  0.2830
22413SOL    HW177169  10.563   0.373  11.059 -0.4644 -0.9953  0.6782
22413SOL    HW277170  10.473   0.328  10.946 -0.5678 -1.6201  1.0063
22414SOL     OW77171   1.528   2.924   1.050  0.2382 -0.0864  0.2361
22414SOL    HW177172   1.610   2.882   1.076  0.3218 -0.1703 -0.1501
22414SOL    HW277173   1.464   2.897   1.116  0.3653 -0.5650  0.1632
22415SOL     OW77174   5.203   6.845   8.358 -0.0812  0.5175  0.1453
22415SOL    HW177175   5.219   6.870   8.449 -0.6199 -0.3463  0.4916
22415SOL    HW277176   5.276   6.884   8.309  2.1253 -1.7114  1.4137
22416SOL     OW77177   7.722   9.444  11.597  0.3289  0.3760  0.8542
22416SOL    HW177178   7.772   9.506  11.544  0.8468 -0.8631 -0.1387
22416SOL    HW277179   7.785   9.410  11.660  0.6762 -0.8753 -0.1302
22417SOL     OW77180   7.399   7.630   3.966  0.0368 -0.8964 -0.4099
22417SOL    HW177181   7.414   7.599   4.055  1.7206 -2.5005 -1.1876
22417SOL    HW277182   7.485   7.662   3.937 -0.9380  1.6705 -0.7608
22418SOL     OW77183   8.876  10.733   6.111 -0.0682 -0.3982 -0.7094
22418SOL    HW177184   8.808  10.800   6.121  0.2339 -0.3317  1.2863
22418SOL    HW277185   8.888  10.725   6.016 -0.6403  1.8387 -1.0283
22419SOL     OW77186   4.667   9.721   9.839 -0.5263  0.2047  0.4857
22419SOL    HW177187   4.692   9.800   9.888  1.5068 -0.9358  1.3871
22419SOL    HW277188   4.589   9.689   9.885 -0.5098  0.8967  1.0142
22420SOL     OW77189   6.045   6.708   2.209  0.3281 -0.0185  0.3629
22420SOL    HW177190   6.008   6.789   2.244  0.9862  0.5657 -0.2470
22420SOL    HW277191   6.021   6.641   2.273 -0.5941  0.5782  0.6602
22421SOL     OW77192  10.571  11.226   7.085  0.8155  0.2412 -0.4499
22421SOL    HW177193  10.654  11.210   7.131  1.0349  0.5857 -0.7232
22421SOL    HW277194  10.583  11.186   6.999  1.3979  1.8914 -1.1726
22422SOL     OW77195  13.043   4.322   8.507  0.1228 -0.1981  0.1320
22422SOL    HW177196  12.952   4.316   8.477 -0.2433  4.3174 -0.4539
22422SOL    HW277197  13.039   4.297   8.599 -1.7704 -0.1119  0.1198
22423SOL     OW77198   7.715   6.658  11.607 -0.0774 -0.7055 -0.0279
22423SOL    HW177199   7.662   6.713  11.549  1.1127  1.6600  0.9732
22423SOL    HW277200   7.784   6.624  11.550  0.1024  0.1953 -0.3750
22424SOL     OW77201   5.198   9.941   6.063 -0.0383  0.2472  0.5237
22424SOL    HW177202   5.226  10.020   6.017  1.0594  0.4725  1.5162
22424SOL    HW277203   5.257   9.872   6.031 -0.9498 -0.1736 -0.2926
22425SOL     OW77204  11.762   2.177   0.344  0.3591  0.4997  0.0957
22425SOL    HW177205  11.700   2.233   0.297  1.0029  0.2439 -1.0917
22425SOL    HW277206  11.836   2.234   0.364  1.2557 -0.0183 -1.5986
22426SOL     OW77207  11.645   0.612   9.306 -0.0572  0.4405  0.5334
22426SOL    HW177208  11.621   0.618   9.214 -0.5602  0.0482  0.6355
22426SOL    HW277209  11.735   0.579   9.306  0.2706  1.2981  0.1637
22427SOL     OW77210   0.915  10.885   3.791 -0.1241  0.7120 -0.0307
22427SOL    HW177211   0.985  10.943   3.762 -1.2567  1.3377 -1.7083
22427SOL    HW277212   0.870  10.933   3.860  0.8306  0.4704  0.7764
22428SOL     OW77213   5.428   0.885   3.727  0.5867 -0.0290 -0.7391
22428SOL    HW177214   5.501   0.825   3.737  0.5294 -0.0743 -0.5848
22428SOL    HW277215   5.386   0.859   3.645 -0.7445 -1.6355  0.3743
22429SOL     OW77216   9.437   1.824  12.287  0.1641 -0.6088  0.4947
22429SOL    HW177217   9.430   1.742  12.335 -0.3887  0.3516  2.1231
22429SOL    HW277218   9.349   1.861  12.289  0.2475 -0.2607 -0.8061
22430SOL     OW77219   5.040  10.822   6.285 -0.0915  0.4916  0.1743
22430SOL    HW177220   5.114  10.761   6.284 -0.9770 -0.6181  0.2083
22430SOL    HW277221   4.973  10.775   6.335 -0.7850  1.5209  0.2148
22431SOL     OW77222   8.563   9.069   7.876  0.2028  0.2475 -0.0850
22431SOL    HW177223   8.584   9.157   7.843  1.3353 -1.1886 -3.7676
22431SOL    HW277224   8.484   9.044   7.827  0.7749 -1.3168 -0.2631
22432SOL     OW77225   7.242   3.595   8.016 -0.0608 -0.5407  0.2284
22432SOL    HW177226   7.293   3.573   7.938  1.3469 -1.0344  1.2593
22432SOL    HW277227   7.293   3.663   8.060 -1.5356  0.7628  0.0372
22433SOL     OW77228   3.391  13.310   8.481 -0.6488  0.4348 -0.4921
22433SOL    HW177229   3.448  13.308   8.404  1.9351  0.3049  1.3115
22433SOL    HW277230   3.304  13.288   8.447  0.8392 -2.2920 -2.9830
22434SOL     OW77231   4.684   2.802   8.402 -0.0791  0.4538 -0.1066
22434SOL    HW177232   4.666   2.847   8.485  1.7759 -0.3194  0.7846
22434SOL    HW277233   4.674   2.870   8.335 -4.2500  0.5190  0.3334
22435SOL     OW77234   4.390  13.314   2.760  0.4214 -0.1015  0.7928
22435SOL    HW177235   4.323  13.287   2.822 -0.9285 -0.6496 -0.8491
22435SOL    HW277236   4.415  13.402   2.788 -0.2250 -0.2949  2.0306
22436SOL     OW77237   6.166   0.637   1.972  0.3862  0.1571 -0.5126
22436SOL    HW177238   6.123   0.719   1.947  1.4175  1.5913  2.0468
22436SOL    HW277239   6.112   0.602   2.043  0.3226 -1.0686 -1.1431
22437SOL     OW77240  10.275   7.216   8.918 -0.0063  0.7224  0.0781
22437SOL    HW177241  10.313   7.137   8.956  1.6819  1.7599  0.6926
22437SOL    HW277242  10.240   7.188   8.833  3.7603 -0.1075 -1.4129
22438SOL     OW77243   3.113   7.477  11.225  0.3778 -0.2096  0.2930
22438SOL    HW177244   3.111   7.428  11.307  0.5314 -0.6987  0.0060
22438SOL    HW277245   3.196   7.524  11.227 -0.1216  0.6829  0.9320
22439SOL     OW77246  10.579   5.104   0.947  0.2800  0.0981 -0.3552
22439SOL    HW177247  10.537   5.185   0.918 -1.1936 -0.8450 -0.9343
22439SOL    HW277248  10.664   5.133   0.982 -1.0220  2.1641  1.4035
22440SOL     OW77249   4.445  11.946  11.416 -0.2153 -0.2957  0.0453
22440SOL    HW177250   4.481  11.880  11.476 -0.3303 -0.5565 -0.1703
22440SOL    HW277251   4.355  11.958  11.446 -0.5112 -0.9829 -0.5328
22441SOL     OW77252   5.928   4.661   4.988  0.6094 -0.6821  0.0391
22441SOL    HW177253   5.942   4.747   5.027 -1.0077 -0.8276  1.0021
22441SOL    HW277254   6.017   4.626   4.975  1.3515  1.5844 -1.5213
22442SOL     OW77255   4.411   6.659   9.134 -0.3584 -0.6380 -0.1529
22442SOL    HW177256   4.480   6.671   9.069 -1.1869  0.3056 -0.9054
22442SOL    HW277257   4.456   6.663   9.218  0.1831  3.5783 -0.4345
22443SOL     OW77258   6.894   0.120   8.753  0.0822  0.5501  0.2904
22443SOL    HW177259   6.913   0.169   8.673  0.9990  2.0294  1.3481
22443SOL    HW277260   6.831   0.174   8.801  0.0595  0.0267  0.8721
22444SOL     OW77261  13.102   5.946  11.784  0.4836  0.0774 -0.3246
22444SOL    HW177262  13.094   5.907  11.871  0.9908 -0.2722 -0.4366
22444SOL    HW277263  13.196   5.951  11.768  0.3967  0.3355 -0.7689
22445SOL     OW77264  12.747  13.175   5.823  0.3604 -0.0208 -0.2743
22445SOL    HW177265  12.670  13.119   5.833  1.0242 -0.8781  0.1590
22445SOL    HW277266  12.732  13.248   5.883 -0.4459  0.1912 -0.7299
22446SOL     OW77267   4.163  11.900  11.564 -0.5088  0.2673  0.4379
22446SOL    HW177268   4.180  11.875  11.654  1.5581 -0.0083  0.0181
22446SOL    HW277269   4.178  11.820  11.514 -0.2434  0.7640 -0.2918
22447SOL     OW77270   0.367   7.376   3.644 -0.7697 -0.4732  0.5648
22447SOL    HW177271   0.276   7.347   3.633 -1.5781  1.1386  2.2441
22447SOL    HW277272   0.409   7.306   3.693 -1.0791 -1.2693 -0.2833
22448SOL     OW77273   0.635   8.302   3.106 -0.4910  0.3946 -0.1560
22448SOL    HW177274   0.612   8.326   3.016  0.9574  1.3885 -0.2927
22448SOL    HW277275   0.713   8.247   3.096 -1.2500 -0.8037  0.4171
22449SOL     OW77276  12.283   4.239   6.434  0.3156  0.1488 -0.0278
22449SOL    HW177277  12.325   4.311   6.386  1.0452  0.4177  0.9963
22449SOL    HW277278  12.350   4.208   6.495 -0.6071 -0.1683  0.8435
22450SOL     OW77279  12.843   8.967   1.902  0.0841  0.0487  0.3721
22450SOL    HW177280  12.808   9.053   1.879  0.8166  0.3386  0.2958
22450SOL    HW277281  12.936   8.972   1.878  0.4592 -0.2782  1.6667
22451SOL     OW77282  12.391   5.699   4.710 -0.5623  0.2886  0.5394
22451SOL    HW177283  12.454   5.771   4.714  0.9128 -0.8683 -0.8210
22451SOL    HW277284  12.353   5.705   4.623 -2.1799  0.7892  1.2365
22452SOL     OW77285   2.846  10.989   3.752 -0.9413 -0.5217  0.0389
22452SOL    HW177286   2.902  10.921   3.791 -0.2174 -0.1171 -0.2775
22452SOL    HW277287   2.759  10.971   3.787 -1.0478 -2.4267 -1.0643
22453SOL     OW77288   0.046  11.412   9.607 -0.0348 -0.0332  0.1307
22453SOL    HW177289  -0.035  11.382   9.566 -0.6371  1.4389  0.1817
22453SOL    HW277290   0.116  11.375   9.553 -0.6192 -2.8365  1.1075
22454SOL     OW77291   2.432  11.260   9.432  0.6109  0.0940  0.1788
22454SOL    HW177292   2.397  11.225   9.514  0.2634 -0.0100 -0.0132
22454SOL    HW277293   2.504  11.201   9.410 -0.0962 -0.6287 -0.2474
22455SOL     OW77294   1.828  10.076  12.316  0.0400  0.5899 -0.9495
22455SOL    HW177295   1.897  10.118  12.368  0.9440 -2.1687  0.2502
22455SOL    HW277296   1.849  10.098  12.225  1.1280  1.6983 -0.4502
22456SOL     OW77297   1.517   0.424   3.834 -0.2276 -0.0810 -0.0778
22456SOL    HW177298   1.512   0.519   3.833  0.0966 -0.0493 -1.3480
22456SOL    HW277299   1.464   0.397   3.909  0.5346  1.1334  0.9271
22457SOL     OW77300   7.056   1.953   2.652 -0.5275  0.4080  0.3207
22457SOL    HW177301   6.989   2.009   2.692 -2.3418 -0.0810 -1.8292
22457SOL    HW277302   7.127   2.013   2.631 -1.7009  1.6281 -0.3438
22458SOL     OW77303   4.636   7.508   7.727 -0.0024  0.0088 -0.1163
22458SOL    HW177304   4.651   7.442   7.795 -0.0211  0.4896  0.3640
22458SOL    HW277305   4.724   7.536   7.702 -0.0140  0.6663  0.5488
22459SOL     OW77306   0.405   3.378   9.428 -0.1044 -0.4846  0.2875
22459SOL    HW177307   0.487   3.424   9.445  0.6208 -1.8496  0.5546
22459SOL    HW277308   0.404   3.365   9.333 -1.3831  1.9604 -0.1431
22460SOL     OW77309   9.366   9.853  11.147 -0.0810 -0.0230 -0.0542
22460SOL    HW177310   9.376   9.861  11.052 -1.0560  0.7435 -0.1008
22460SOL    HW277311   9.321   9.933  11.174 -1.5058 -1.0789  0.7997
22461SOL     OW77312  10.718   2.446   3.522  0.0521 -0.5657  0.2114
22461SOL    HW177313  10.748   2.532   3.550 -1.6291 -0.1985  1.0287
22461SOL    HW277314  10.777   2.421   3.451  0.5328  1.2703 -0.0734
22462SOL     OW77315  11.184   2.210   4.464  0.0743 -0.5220  0.1985
22462SOL    HW177316  11.117   2.146   4.442  0.3160 -0.7229  0.0422
22462SOL    HW277317  11.241   2.165   4.526 -0.7546  0.1315  1.4705
22463SOL     OW77318   8.312   0.848   2.053 -0.0956  0.3781 -0.1087
22463SOL    HW177319   8.291   0.932   2.011 -2.9573 -0.6158 -0.8886
22463SOL    HW277320   8.359   0.799   1.986  1.6105  1.2841  0.3574
22464SOL     OW77321  10.903  12.032   3.707  0.6816  0.9760 -0.0672
22464SOL    HW177322  10.822  12.000   3.747  0.7152  0.4355 -0.4212
22464SOL    HW277323  10.955  11.954   3.691  0.4383  1.0880 -1.6478
22465SOL     OW77324   5.580   7.914   4.552  0.1689  0.2595 -0.2033
22465SOL    HW177325   5.596   7.860   4.629  0.4217  0.2599 -0.2566
22465SOL    HW277326   5.540   7.994   4.587 -0.7820 -0.2063 -0.1783
22466SOL     OW77327  10.876   9.145  13.278  0.4175  0.0690  0.4535
22466SOL    HW177328  10.896   9.051  13.273 -1.8065 -0.3833 -2.9610
22466SOL    HW277329  10.785   9.148  13.304  0.3013  1.2469 -0.0530
22467SOL     OW77330   1.406   1.819  10.942 -0.2809  0.6968  0.4157
22467SOL    HW177331   1.496   1.809  10.973  0.1470  0.6628 -0.7812
22467SOL    HW277332   1.356   1.754  10.991  0.3472  0.6817  1.0506
22468SOL     OW77333   6.166   3.541   8.044  0.2642  0.5227  0.1949
22468SOL    HW177334   6.159   3.463   7.990  0.1243 -0.3841  1.4783
22468SOL    HW277335   6.118   3.608   7.996 -0.4179 -0.4300 -0.4792
22469SOL     OW77336   4.036   0.599   2.268 -0.5641  0.5929 -0.3328
22469SOL    HW177337   4.065   0.687   2.244 -0.8901  0.3874 -1.5948
22469SOL    HW277338   4.086   0.541   2.210 -0.2295 -0.0771  0.6009
22470SOL     OW77339  11.310   5.093   2.220  0.1588 -0.5985  0.2014
22470SOL    HW177340  11.350   5.044   2.292 -1.4066 -0.1714  1.4240
22470SOL    HW277341  11.216   5.079   2.230 -0.3078  1.8805  0.0954
22471SOL     OW77342   6.230   9.572   8.503  0.3830  0.0100 -0.3462
22471SOL    HW177343   6.253   9.484   8.530  1.9908 -0.4971 -2.9286
22471SOL    HW277344   6.170   9.604   8.570 -0.2677 -3.0233  0.6646
22472SOL     OW77345   3.873  11.214   2.380 -0.0881 -0.1222 -0.4403
22472SOL    HW177346   3.916  11.277   2.437 -1.0335  0.1545 -0.0273
22472SOL    HW277347   3.811  11.168   2.436  0.0059 -0.8635 -0.9186
22473SOL     OW77348  12.351   5.206   7.724 -0.1547 -0.1382 -0.3544
22473SOL    HW177349  12.256   5.207   7.740 -0.0645 -1.7901  0.4831
22473SOL    HW277350  12.360   5.241   7.635 -1.5258  0.2544 -0.3698
22474SOL     OW77351   3.353   9.025  12.131 -0.1251 -0.6891  0.5426
22474SOL    HW177352   3.292   9.095  12.107  0.2679 -0.5745 -0.1450
22474SOL    HW277353   3.308   8.944  12.105  1.0157 -0.5045 -2.3903
22475SOL     OW77354   5.870   3.233   0.361  0.1005  0.7855  0.3723
22475SOL    HW177355   5.853   3.172   0.289  0.6326 -0.4764  1.2704
22475SOL    HW277356   5.958   3.265   0.345  1.1756 -1.3145  1.6537
22476SOL     OW77357   5.165   5.296   5.924  0.1461 -0.0804 -0.1666
22476SOL    HW177358   5.217   5.321   6.001  1.1458 -1.7100 -0.2557
22476SOL    HW277359   5.109   5.371   5.908 -0.2094  0.2630  2.2531
22477SOL     OW77360   0.737   7.029   4.448  0.2832 -0.7331 -0.5594
22477SOL    HW177361   0.653   7.074   4.433  0.3380 -0.3075  0.3164
22477SOL    HW277362   0.799   7.077   4.393 -0.0668 -1.1492 -1.3359
22478SOL     OW77363   0.603  11.642   4.976 -0.7834 -0.0570  0.0643
22478SOL    HW177364   0.524  11.629   5.029 -2.1119 -1.0724 -2.0056
22478SOL    HW277365   0.587  11.591   4.896  1.1589  1.2332 -1.2542
22479SOL     OW77366   6.094   1.109  10.229 -0.4327 -0.6053  0.0327
22479SOL    HW177367   6.148   1.152  10.163 -0.1571  1.1730  1.3404
22479SOL    HW277368   6.156   1.068  10.289 -0.6289 -0.9198  0.0238
22480SOL     OW77369   5.595  11.508  12.884 -0.0925  0.1698  0.1290
22480SOL    HW177370   5.667  11.496  12.823 -1.4493  0.7226 -1.6952
22480SOL    HW277371   5.549  11.424  12.884 -0.2980  0.2819  0.1123
22481SOL     OW77372   6.173   5.005   9.864  0.2531 -0.1101 -0.4894
22481SOL    HW177373   6.140   4.983   9.777 -1.1192 -0.8164  0.1819
22481SOL    HW277374   6.123   5.082   9.890 -0.0783 -0.5222  0.0952
22482SOL     OW77375   6.238   5.658   0.997 -0.2105 -0.1687  0.1379
22482SOL    HW177376   6.314   5.715   1.002  0.2380 -0.6189 -1.0797
22482SOL    HW277377   6.166   5.716   0.971  0.1014 -0.0219 -0.4307
22483SOL     OW77378  11.766   5.884   5.196  0.1774 -0.1162  0.4100
22483SOL    HW177379  11.777   5.842   5.281  0.1943 -0.2740  0.3295
22483SOL    HW277380  11.740   5.813   5.137 -0.7285  0.1414  0.4772
22484SOL     OW77381  10.809   1.600   6.521 -0.8656  0.4116  0.0494
22484SOL    HW177382  10.785   1.681   6.474 -0.1076  0.3347 -0.4930
22484SOL    HW277383  10.780   1.615   6.611 -2.5372  0.4914 -0.4656
22485SOL     OW77384   9.022  11.321  12.914 -0.6057  0.5808  0.5040
22485SOL    HW177385   8.939  11.289  12.949 -0.1116 -0.6064  0.6302
22485SOL    HW277386   9.006  11.332  12.820 -1.4536  2.2190  0.8107
22486SOL     OW77387   4.026  12.930   1.523 -0.3274 -0.4158 -0.0966
22486SOL    HW177388   3.963  12.906   1.592 -0.8052 -1.2079 -0.7874
22486SOL    HW277389   4.036  13.024   1.531  1.4314 -0.7166  2.5899
22487SOL     OW77390   2.140   6.923   4.799  0.0698 -0.2985 -0.5033
22487SOL    HW177391   2.067   6.956   4.853 -1.1671 -2.8599 -0.4461
22487SOL    HW277392   2.195   6.875   4.861  0.2298 -0.8105 -1.0388
22488SOL     OW77393  11.903  11.559   7.870 -0.0807 -0.1998 -0.4950
22488SOL    HW177394  11.913  11.565   7.965 -3.2719 -0.4652 -0.0350
22488SOL    HW277395  11.897  11.650   7.841  0.8415 -0.1207 -0.4757
22489SOL     OW77396   5.203   4.647   2.712  0.4058  0.0104  0.5737
22489SOL    HW177397   5.233   4.734   2.740  0.5941 -0.3339  1.4722
22489SOL    HW277398   5.263   4.623   2.641 -0.7044  1.3281 -0.8943
22490SOL     OW77399   0.652   9.880   8.017 -0.4381  0.0659 -0.7747
22490SOL    HW177400   0.672   9.788   8.003 -0.1867  0.2601 -1.7210
22490SOL    HW277401   0.604   9.882   8.100 -0.7056 -0.9416 -0.9022
22491SOL     OW77402   2.121   8.920   2.811  0.3771  0.1740 -0.5801
22491SOL    HW177403   2.113   8.880   2.724 -0.8093  0.3732 -0.5823
22491SOL    HW277404   2.057   8.991   2.811 -0.2151 -0.3200  0.7258
22492SOL     OW77405   4.908  10.345  11.839 -0.0487  0.4117  0.4247
22492SOL    HW177406   4.923  10.308  11.752 -2.0753 -0.6411  0.4591
22492SOL    HW277407   4.957  10.288  11.898  0.2814  0.3546  0.0978
22493SOL     OW77408   8.184   1.769  12.394 -0.2155 -0.0393  0.7063
22493SOL    HW177409   8.183   1.856  12.434 -0.9522  1.4814 -2.3410
22493SOL    HW277410   8.264   1.768  12.341 -0.8029 -0.7202 -0.1967
22494SOL     OW77411  10.339   5.261  13.131 -0.0137  0.0504  0.5134
22494SOL    HW177412  10.287   5.314  13.071  0.8145 -0.4402 -0.6905
22494SOL    HW277413  10.371   5.323  13.197  1.3409  1.2011 -1.1389
22495SOL     OW77414   5.897   4.697   0.159 -0.1238 -0.4562  0.2455
22495SOL    HW177415   5.837   4.751   0.108  0.0431 -0.8530 -0.3848
22495SOL    HW277416   5.854   4.686   0.244 -0.0718  0.8093  0.4487
22496SOL     OW77417   6.920   1.992   2.349 -0.0488  0.2102 -0.1110
22496SOL    HW177418   6.856   1.983   2.419 -0.0775  0.3874 -0.1127
22496SOL    HW277419   6.979   1.917   2.360 -0.4628 -0.1461 -0.3301
22497SOL     OW77420  13.281   1.694   0.767 -0.0890  0.1835  0.3742
22497SOL    HW177421  13.222   1.769   0.764 -2.1423 -1.2754  1.4661
22497SOL    HW277422  13.269   1.650   0.683 -0.1550  0.1709  0.3904
22498SOL     OW77423   5.459  12.257   7.154 -0.1824 -0.2576 -0.2009
22498SOL    HW177424   5.402  12.207   7.213  0.5406 -1.2433 -0.3222
22498SOL    HW277425   5.444  12.348   7.179 -2.9711 -0.3121 -1.2193
22499SOL     OW77426   3.034   4.727   8.418 -0.5095 -0.3767  0.2665
22499SOL    HW177427   2.962   4.787   8.400 -0.4173 -0.5285 -0.6502
22499SOL    HW277428   3.003   4.672   8.489 -0.0737  1.6576  2.1341
22500SOL     OW77429   0.568  11.879   4.723 -0.0403 -0.1285  0.2359
22500SOL    HW177430   0.510  11.892   4.798  0.2691 -0.6857  0.5754
22500SOL    HW277431   0.637  11.822   4.756  0.1108 -0.3550 -0.4663
22501SOL     OW77432  11.228   0.627  12.689 -0.7814 -0.2571 -0.2826
22501SOL    HW177433  11.316   0.602  12.714 -0.5595 -0.2306 -0.9966
22501SOL    HW277434  11.224   0.722  12.704 -1.5781 -0.6299  2.2962
22502SOL     OW77435   5.734  12.732   0.075  0.2868  0.3388  0.2122
22502SOL    HW177436   5.646  12.750   0.108  0.8661  0.8796  1.5562
22502SOL    HW277437   5.726  12.649   0.028 -1.2195  1.0776 -0.9393
22503SOL     OW77438   4.734   9.575  13.006  0.4988  0.0900 -0.2900
22503SOL    HW177439   4.708   9.483  13.009 -0.2357  0.2202 -1.7559
22503SOL    HW277440   4.830   9.572  13.001  0.5531 -0.5387  0.8958
22504SOL     OW77441   5.017   5.890   7.288 -0.2346 -0.0811  0.3967
22504SOL    HW177442   5.090   5.944   7.317  0.4437  0.2126 -1.6651
22504SOL    HW277443   4.969   5.945   7.226  0.1959 -1.6123 -1.3915
22505SOL     OW77444   2.734   4.609  10.021 -0.2315 -0.0982 -0.0774
22505SOL    HW177445   2.641   4.607  10.042 -0.5601  1.3514 -1.2527
22505SOL    HW277446   2.740   4.660   9.940  1.6540  0.5094  0.3824
22506SOL     OW77447   3.254   0.222  10.763 -0.2981 -0.3812  0.3064
22506SOL    HW177448   3.234   0.316  10.762 -1.7313 -0.6629  0.6394
22506SOL    HW277449   3.267   0.201  10.855  1.1061 -0.3190  0.1441
22507SOL     OW77450   6.409   2.003   0.221  0.8397 -0.0555  0.2575
22507SOL    HW177451   6.355   2.050   0.285  0.8609  1.7183 -0.9371
22507SOL    HW277452   6.391   1.911   0.237 -1.1333  0.4257  1.1179
22508SOL     OW77453  11.311  12.766   4.138  0.2017  0.2113  0.6644
22508SOL    HW177454  11.245  12.835   4.141 -0.3479 -0.2388 -0.6108
22508SOL    HW277455  11.263  12.686   4.118  0.8811 -0.5020  1.7639
22509SOL     OW77456   0.505   1.330   1.374 -0.2265 -0.0477 -0.2039
22509SOL    HW177457   0.446   1.402   1.352 -1.4743 -1.6815 -2.6706
22509SOL    HW277458   0.472   1.296   1.457 -0.6013  1.1886  0.1716
22510SOL     OW77459  10.733   3.901   4.944  0.3258  0.1298 -0.3391
22510SOL    HW177460  10.685   3.869   5.020 -0.8577 -0.5200 -1.3278
22510SOL    HW277461  10.708   3.993   4.936 -1.1868 -0.3222 -1.1231
22511SOL     OW77462   0.063   0.682  10.174 -0.2016 -0.1080  0.5614
22511SOL    HW177463   0.028   0.681  10.263 -0.1167 -1.4853  0.6047
22511SOL    HW277464   0.153   0.714  10.183 -1.3230  3.4104  0.4574
22512SOL     OW77465   8.317   3.613   0.256 -0.3842  0.3144  0.7868
22512SOL    HW177466   8.259   3.632   0.331  1.4155  2.2993  1.8129
22512SOL    HW277467   8.322   3.696   0.209 -1.2858 -0.8460 -1.4709
22513SOL     OW77468   9.393   0.394   5.080  0.0575  0.5944  0.1426
22513SOL    HW177469   9.360   0.484   5.076  1.0248  0.9247 -0.8092
22513SOL    HW277470   9.471   0.395   5.024  1.3176 -0.3308  1.8212
22514SOL     OW77471   1.900   3.883   3.514  0.2132 -0.1042 -0.1304
22514SOL    HW177472   1.818   3.911   3.473 -0.5611 -1.3630  0.4840
22514SOL    HW277473   1.873   3.822   3.582  1.6234  0.1783  0.7206
22515SOL     OW77474  11.453   3.386   1.147 -0.6042  0.1087  0.3677
22515SOL    HW177475  11.427   3.434   1.068  0.9287  0.0219 -0.2261
22515SOL    HW277476  11.447   3.294   1.122 -1.2148  0.0465  0.7315
22516SOL     OW77477  10.989  10.306   8.546  0.5622 -0.2241  0.2058
22516SOL    HW177478  11.070  10.356   8.540 -0.5262  1.5123 -0.7272
22516SOL    HW277479  10.942  10.344   8.620  0.8149 -1.6376  1.1470
22517SOL     OW77480   5.339   5.733   1.134 -0.1262 -0.3876  0.2483
22517SOL    HW177481   5.433   5.718   1.126 -0.3767 -1.2711 -1.6211
22517SOL    HW277482   5.330   5.794   1.208  1.7590 -1.5155  1.4763
22518SOL     OW77483  11.353   5.936   4.953 -0.0059  0.0917  0.5680
22518SOL    HW177484  11.298   6.013   4.970  0.4092  0.3218  0.9115
22518SOL    HW277485  11.403   5.959   4.875 -1.4494 -0.7084 -0.6317
22519SOL     OW77486   2.389   8.804   8.522  0.3840 -0.4871 -0.5134
22519SOL    HW177487   2.404   8.735   8.457  0.2258 -0.8775 -0.1423
22519SOL    HW277488   2.431   8.771   8.601  2.2071  0.8075 -0.8769
22520SOL     OW77489   8.220   8.519   0.177 -0.1894 -0.3637  0.0623
22520SOL    HW177490   8.285   8.468   0.226 -0.7433 -0.2021  0.9828
22520SOL    HW277491   8.158   8.549   0.243 -1.9023 -1.5222 -0.9341
22521SOL     OW77492   8.272   5.030   0.365  0.1274 -0.0881  0.5688
22521SOL    HW177493   8.254   5.088   0.439  2.4894  1.6521 -0.0893
22521SOL    HW277494   8.364   5.045   0.345  0.2033 -2.3650 -1.1810
22522SOL     OW77495   4.993   4.858   2.401 -0.6937  0.0661 -0.0338
22522SOL    HW177496   4.994   4.953   2.388 -0.0066  0.0051 -0.4752
22522SOL    HW277497   4.969   4.846   2.493  0.6686  0.7203  0.4244
22523SOL     OW77498   0.055  11.215  12.391  0.0255  1.0128 -0.2273
22523SOL    HW177499   0.055  11.132  12.344  1.7696  0.2009  1.0773
22523SOL    HW277500   0.140  11.217  12.436  0.0388  3.5084 -0.2094
22524SOL     OW77501   8.366   2.155   0.573  0.0793 -0.0629 -0.6865
22524SOL    HW177502   8.360   2.238   0.526  1.3126  0.1886 -0.4034
22524SOL    HW277503   8.298   2.101   0.532 -0.8621  1.1219 -0.7523
22525SOL     OW77504  10.773   7.573   8.558  0.6170 -0.8471 -0.0681
22525SOL    HW177505  10.824   7.652   8.539 -0.0422  0.3717  2.7557
22525SOL    HW277506  10.683   7.596   8.536  0.5629 -1.2133 -0.2492
22526SOL     OW77507  11.046   7.098   2.257 -0.9271  0.1899  0.2947
22526SOL    HW177508  11.099   7.040   2.204  1.4141  1.6165  0.9334
22526SOL    HW277509  10.971   7.119   2.201  0.6454  0.4098 -1.8661
22527SOL     OW77510  12.666   5.356  10.768  0.2794  0.2115  0.0071
22527SOL    HW177511  12.625   5.287  10.716  1.0091  0.4825 -0.9762
22527SOL    HW277512  12.666   5.433  10.710 -1.1907  1.2825  1.3446
22528SOL     OW77513   7.788   6.605   8.238 -0.6278  0.2899 -0.1256
22528SOL    HW177514   7.763   6.553   8.315 -3.6522  2.2814  0.4162
22528SOL    HW277515   7.705   6.619   8.191  0.7201  1.3952 -2.3024
22529SOL     OW77516  12.990   4.928   0.601 -0.1136  0.5209 -0.4856
22529SOL    HW177517  12.968   4.836   0.585  0.4980  0.3268 -0.2491
22529SOL    HW277518  12.917   4.962   0.652  1.3802 -0.8936  2.8894
22530SOL     OW77519   8.540   4.895   0.337 -0.1019 -0.2480 -0.1399
22530SOL    HW177520   8.605   4.955   0.374  3.0296 -3.6036  0.3775
22530SOL    HW277521   8.566   4.886   0.245  0.3941 -1.7563  0.1159
22531SOL     OW77522  10.318   3.837   9.548  0.4917 -0.1442  0.5065
22531SOL    HW177523  10.361   3.882   9.475  0.7425 -2.2759 -0.7667
22531SOL    HW277524  10.266   3.905   9.591  0.2200  1.1992 -1.7466
22532SOL     OW77525   1.250  12.543   1.186  0.5023  0.1716  0.5692
22532SOL    HW177526   1.200  12.568   1.108  2.4095 -0.7162 -1.0413
22532SOL    HW277527   1.258  12.623   1.237  0.7880  1.2655 -1.1146
22533SOL     OW77528   4.698  11.464  11.383 -0.3053 -0.1095  0.4806
22533SOL    HW177529   4.650  11.426  11.457 -0.5030 -0.1779  0.3171
22533SOL    HW277530   4.634  11.470  11.313  0.0302 -0.6090  0.1251
22534SOL     OW77531   4.593   4.595   5.820 -0.0612 -0.0616 -0.6453
22534SOL    HW177532   4.618   4.647   5.896  1.4450 -1.7073  0.0688
22534SOL    HW277533   4.500   4.575   5.833 -0.1893  0.8867 -0.0255
22535SOL     OW77534  12.332   3.234   6.783 -0.0796  0.5364 -0.7174
22535SOL    HW177535  12.335   3.268   6.872  1.4534  0.9412 -0.9042
22535SOL    HW277536  12.367   3.305   6.728 -0.4754  0.0874 -1.5727
22536SOL     OW77537   7.711   2.383   0.248 -0.6386  0.9583  0.3796
22536SOL    HW177538   7.703   2.478   0.238 -0.9579  0.8585 -0.3640
22536SOL    HW277539   7.657   2.347   0.178  1.3505  0.2434 -0.8735
22537SOL     OW77540   5.397   1.106   3.493 -0.6303 -0.6886  0.5939
22537SOL    HW177541   5.416   1.014   3.473 -0.8838 -0.3209 -1.7353
22537SOL    HW277542   5.307   1.118   3.462 -0.1373  0.6431 -0.4026
22538SOL     OW77543   0.533   5.492  11.887 -0.2465  0.0556  0.1910
22538SOL    HW177544   0.544   5.568  11.944 -1.5247  0.5110 -0.1341
22538SOL    HW277545   0.567   5.521  11.802  2.7047 -0.9843  0.8934
22539SOL     OW77546   0.675  10.386   3.212  0.3269 -0.5269 -0.1130
22539SOL    HW177547   0.769  10.393   3.196  0.4742 -3.0064 -0.7671
22539SOL    HW277548   0.643  10.476   3.208  2.2152  0.1609 -2.9154
22540SOL     OW77549   8.367   0.476   5.414 -0.2787  0.1093 -0.0035
22540SOL    HW177550   8.420   0.527   5.354  1.6054 -1.2407  0.4262
22540SOL    HW277551   8.278   0.481   5.378  0.3491  1.3879 -1.4605
22541SOL     OW77552   7.207   2.066   8.585 -0.4868  0.0252 -0.3450
22541SOL    HW177553   7.180   2.035   8.499 -2.8506  0.9022  0.0116
22541SOL    HW277554   7.180   1.996   8.645  0.4415 -0.2337 -0.2073
22542SOL     OW77555   2.230   7.983   5.241 -0.1274  0.0855  0.4178
22542SOL    HW177556   2.138   7.956   5.239 -0.8045  2.2026  0.6328
22542SOL    HW277557   2.264   7.948   5.323 -0.6308 -1.0403  0.1557
22543SOL     OW77558   2.502  13.310  12.047  0.6249 -0.6509  0.2193
22543SOL    HW177559   2.585  13.317  12.093  1.6600 -0.4053 -1.5967
22543SOL    HW277560   2.461  13.396  12.058  1.2389 -0.3281 -0.0372
22544SOL     OW77561   0.147   2.461   7.018 -0.6465 -0.5550 -0.4130
22544SOL    HW177562   0.212   2.437   6.951 -0.9491 -2.0528 -0.1950
22544SOL    HW277563   0.177   2.418   7.098 -0.0039  1.6401  0.6205
22545SOL     OW77564   7.826  10.425   9.441  0.0867  0.1458 -0.0113
22545SOL    HW177565   7.800  10.424   9.533  1.3930 -1.3164  0.3738
22545SOL    HW277566   7.807  10.515   9.412  0.7334  0.9753  1.9941
22546SOL     OW77567   9.446   7.067   6.713  0.0952 -0.2521 -0.4946
22546SOL    HW177568   9.360   7.085   6.675  0.0192 -1.1456 -0.7608
22546SOL    HW277569   9.508   7.097   6.647 -0.0204 -0.3720 -0.6590
22547SOL     OW77570   2.902   0.694   6.220  0.9042  0.0587  0.1193
22547SOL    HW177571   2.948   0.686   6.304  0.8754 -0.9218  0.0529
22547SOL    HW277572   2.811   0.712   6.244  0.9762  0.1982  0.2887
22548SOL     OW77573   3.244  12.917   9.325 -0.6893  0.4039 -0.3999
22548SOL    HW177574   3.268  13.007   9.349  2.4452 -0.9913  2.5373
22548SOL    HW277575   3.327  12.875   9.302 -1.8975 -2.0049 -0.6824
22549SOL     OW77576   1.142   6.520   5.304 -0.2806 -0.0835  0.6058
22549SOL    HW177577   1.224   6.539   5.258  0.2283  0.5303  1.7234
22549SOL    HW277578   1.164   6.450   5.365 -0.1239  1.2155  2.1078
22550SOL     OW77579  12.768  11.224   9.584 -0.1423 -0.6001 -0.0671
22550SOL    HW177580  12.691  11.173   9.562 -0.6089  0.0815 -0.0546
22550SOL    HW277581  12.787  11.276   9.506  0.8344 -1.3893 -0.3825
22551SOL     OW77582   6.051   6.486   9.485 -0.3892 -0.3975  0.0408
22551SOL    HW177583   6.088   6.572   9.504 -0.4229 -0.3636 -0.0453
22551SOL    HW277584   6.102   6.426   9.540  2.0704 -0.7720 -2.3969
22552SOL     OW77585   3.989   1.001   9.515 -0.3683 -0.2178 -0.5751
22552SOL    HW177586   3.932   0.940   9.468 -1.5068 -0.1255  0.6206
22552SOL    HW277587   3.947   1.012   9.600  0.2130  1.6468 -0.4881
22553SOL     OW77588   0.237  10.416   3.011 -0.2736  0.1415 -0.3617
22553SOL    HW177589   0.260  10.498   3.054  0.3429  0.8504 -1.9747
22553SOL    HW277590   0.318  10.365   3.011 -0.1649  0.3043 -1.0011
22554SOL     OW77591   7.992   5.023  11.672  0.6133 -0.3097  0.5571
22554SOL    HW177592   7.984   4.928  11.666 -1.0239 -0.1281 -1.3905
22554SOL    HW277593   8.062   5.037  11.735 -1.2448 -2.7346  3.4887
22555SOL     OW77594   2.212   6.617   4.723  0.2494  0.7083  0.2449
22555SOL    HW177595   2.186   6.525   4.735 -0.1288  0.5339 -1.6085
22555SOL    HW277596   2.307   6.614   4.720  0.2570  0.4402  0.6185
22556SOL     OW77597   8.585  10.182   0.033 -0.2362 -0.9458 -0.1107
22556SOL    HW177598   8.605  10.275   0.040  0.4554 -1.0560 -0.4810
22556SOL    HW277599   8.508  10.178  -0.024 -0.2383 -0.6085 -0.1343
22557SOL     OW77600   3.233  13.206   0.137  0.3745  0.0844  0.1543
22557SOL    HW177601   3.188  13.253   0.066 -2.8915 -2.9761 -0.0741
22557SOL    HW277602   3.270  13.275   0.191 -3.0613  2.9603 -0.7394
22558SOL     OW77603   6.156   8.145   4.550  0.0794  0.1760  0.0285
22558SOL    HW177604   6.125   8.233   4.571  0.6486  0.2785  0.4532
22558SOL    HW277605   6.121   8.089   4.619  1.0946  0.3471  0.7097
22559SOL     OW77606  11.636  10.848   3.176  0.3897 -0.2827 -0.3215
22559SOL    HW177607  11.574  10.873   3.245 -0.1199 -0.8339 -0.5734
22559SOL    HW277608  11.666  10.931   3.139  0.2341  0.0005  0.1829
22560SOL     OW77609  11.849   0.093   6.954 -0.6181  0.6093  0.0642
22560SOL    HW177610  11.782   0.073   7.019  0.0799  1.6301  1.1328
22560SOL    HW277611  11.920   0.031   6.973 -0.1283  1.3603  0.7499
22561SOL     OW77612   8.608   3.979  12.510 -0.1618  0.2801 -0.2337
22561SOL    HW177613   8.678   4.039  12.536  0.0095  0.8262 -1.8336
22561SOL    HW277614   8.581   3.936  12.592  1.8354  0.2584  0.4627
22562SOL     OW77615   1.563   3.061   4.885  0.0889  0.4137  0.0671
22562SOL    HW177616   1.617   3.122   4.934 -2.1248  2.0364  0.6705
22562SOL    HW277617   1.501   3.027   4.950  0.4015 -1.4909 -0.5593
22563SOL     OW77618  11.335   0.807   3.502 -0.0713 -0.2358  0.1134
22563SOL    HW177619  11.260   0.852   3.540  0.3837  1.5360 -0.9612
22563SOL    HW277620  11.298   0.727   3.464 -1.4223  0.5624 -0.3430
22564SOL     OW77621   6.276   0.985  12.197 -0.4231 -0.7123 -0.3333
22564SOL    HW177622   6.315   1.069  12.173  0.8897 -1.2056  0.0164
22564SOL    HW277623   6.349   0.932  12.229 -1.4468 -1.5234  0.7678
22565SOL     OW77624   7.427   1.594   7.245 -0.6321 -0.4373  0.2494
22565SOL    HW177625   7.390   1.533   7.181 -1.6433 -1.0375  1.3759
22565SOL    HW277626   7.511   1.619   7.208 -1.3238 -0.5147 -1.4736
22566SOL     OW77627   2.997   9.648   4.325 -0.4071 -0.5559  0.0499
22566SOL    HW177628   2.905   9.662   4.303 -0.6416 -0.7899  0.8316
22566SOL    HW277629   3.028   9.734   4.353 -0.2059 -0.3369 -0.8118
22567SOL     OW77630   2.836   0.061   7.290 -0.6044 -0.8574 -0.7536
22567SOL    HW177631   2.891   0.019   7.356 -0.0119  0.0153 -0.6661
22567SOL    HW277632   2.817   0.147   7.327 -0.1355 -0.2934 -1.7791
22568SOL     OW77633   4.598   9.475  11.009  0.6204 -0.1478 -0.0502
22568SOL    HW177634   4.527   9.507  10.953 -1.1609 -0.1490  2.0390
22568SOL    HW277635   4.578   9.383  11.023  1.3058 -0.2646  0.2089
22569SOL     OW77636   6.537   3.491   0.861  0.8657 -0.0208 -0.0482
22569SOL    HW177637   6.527   3.583   0.839  1.6843  0.0787 -0.0163
22569SOL    HW277638   6.505   3.444   0.784  0.0079  0.2720  0.1131
22570SOL     OW77639  12.264  10.497   5.639  0.1474  0.2422 -0.1123
22570SOL    HW177640  12.172  10.522   5.629 -0.2900 -1.1041  0.3154
22570SOL    HW277641  12.284  10.446   5.561  0.0336 -0.8408  0.5501
22571SOL     OW77642  11.274  13.295   0.044  0.3476 -0.2526 -0.5081
22571SOL    HW177643  11.359  13.262   0.016  0.2721 -0.2175 -0.7811
22571SOL    HW277644  11.284  13.310   0.138  1.8135  3.2139 -1.0529
22572SOL     OW77645   2.209   0.616   3.572 -0.0056  0.1053 -0.4370
22572SOL    HW177646   2.145   0.684   3.590  0.6213  0.6272 -0.1475
22572SOL    HW277647   2.157   0.543   3.537 -0.6346  0.8562 -1.1123
22573SOL     OW77648   8.021   1.791   3.988  0.1385  0.0293 -0.2303
22573SOL    HW177649   8.063   1.877   3.982 -1.3537  0.6589 -2.8129
22573SOL    HW277650   8.092   1.728   3.974  0.7500  0.9459 -1.3305
22574SOL     OW77651   6.685   8.711   7.997  0.0359  0.2238  0.1003
22574SOL    HW177652   6.707   8.631   7.949 -0.0868  0.2235  0.0438
22574SOL    HW277653   6.600   8.694   8.036 -0.0771  0.3934 -0.0658
22575SOL     OW77654  10.572   6.316   3.428 -0.4166  0.3322 -0.2132
22575SOL    HW177655  10.502   6.258   3.457 -0.6796  0.7830  0.0715
22575SOL    HW277656  10.653   6.269   3.448 -0.6289  0.0249 -0.0832
22576SOL     OW77657   9.867   0.539   4.705  0.4514  0.4018  0.6443
22576SOL    HW177658   9.921   0.462   4.687 -1.6973 -1.0612  0.1162
22576SOL    HW277659   9.804   0.542   4.633 -2.0367  0.2806  2.6867
22577SOL     OW77660  12.695  12.284   8.565 -0.4292 -0.1655 -0.5215
22577SOL    HW177661  12.749  12.333   8.627 -0.4516 -0.3893 -0.3214
22577SOL    HW277662  12.719  12.318   8.479  2.2435 -2.2992 -0.7424
22578SOL     OW77663  10.269   3.579  11.771  0.1147 -0.3183 -0.4804
22578SOL    HW177664  10.175   3.567  11.785  0.0660 -1.0707 -1.3390
22578SOL    HW277665  10.280   3.674  11.766 -0.7213 -0.2414 -1.0905
22579SOL     OW77666  12.589   7.403   0.172  0.0330  0.4433  0.3232
22579SOL    HW177667  12.665   7.347   0.158  0.3111  0.9021 -0.0427
22579SOL    HW277668  12.575   7.402   0.267 -1.0340 -1.6110  0.1843
22580SOL     OW77669   8.848   7.222   0.885  0.1713  0.1617 -0.3368
22580SOL    HW177670   8.768   7.202   0.934 -0.2555  3.1610  0.3610
22580SOL    HW277671   8.918   7.182   0.937 -0.5032  1.1982  1.4496
22581SOL     OW77672   8.820   0.245   2.618  0.2326 -0.3462  0.2987
22581SOL    HW177673   8.730   0.233   2.649  0.4079 -2.6543  0.0959
22581SOL    HW277674   8.814   0.234   2.523  0.9360 -2.3327  0.4449
22582SOL     OW77675   3.485   2.023  11.838 -0.7956  0.5278 -0.0960
22582SOL    HW177676   3.547   2.071  11.893 -2.0760  0.7338  1.2253
22582SOL    HW277677   3.540   1.966  11.785  0.4988 -0.7586  2.4060
22583SOL     OW77678   8.910   2.763  10.907 -0.1477  0.1195  0.3069
22583SOL    HW177679   8.945   2.676  10.929  0.3133  0.5918  1.5103
22583SOL    HW277680   8.874   2.796  10.989 -0.1096  1.1617 -0.0807
22584SOL     OW77681   0.958  12.054   6.901 -0.5142  0.2753 -0.4946
22584SOL    HW177682   0.886  12.091   6.952 -0.2169 -0.2524  0.3120
22584SOL    HW277683   1.037  12.090   6.941 -0.2892  0.1832 -0.8466
22585SOL     OW77684   8.507  11.862  10.618 -0.3736 -0.0172  0.2216
22585SOL    HW177685   8.494  11.957  10.615  0.9314  0.3092  2.3966
22585SOL    HW277686   8.547  11.841  10.533 -0.8798  1.3176 -0.3793
22586SOL     OW77687   9.041  13.289   5.977 -0.1361  0.0437  1.1426
22586SOL    HW177688   8.998  13.270   5.894 -0.1648  0.7108  0.9953
22586SOL    HW277689   9.114  13.346   5.953  0.5932 -0.7472  1.4339
22587SOL     OW77690   6.113  13.021   6.086 -0.4132 -0.2812  0.4462
22587SOL    HW177691   6.092  12.943   6.136 -2.2004  0.6348  1.2086
22587SOL    HW277692   6.031  13.045   6.043  0.1667  1.0374  0.0142
22588SOL     OW77693   2.701   5.829   2.401  0.0937 -0.0471  0.5253
22588SOL    HW177694   2.680   5.745   2.361 -1.1465 -0.1303  1.3066
22588SOL    HW277695   2.651   5.893   2.352 -0.3410  0.0146  1.0353
22589SOL     OW77696   3.443   1.105   5.635  0.0593  0.3890 -0.0699
22589SOL    HW177697   3.460   1.153   5.716  1.4453 -0.1465 -0.0108
22589SOL    HW277698   3.521   1.052   5.622 -0.8533 -0.8239 -0.8569
22590SOL     OW77699   0.741   9.537   2.001 -0.1914 -0.5428  0.0164
22590SOL    HW177700   0.704   9.466   1.948 -0.6326 -1.1738  1.1319
22590SOL    HW277701   0.667   9.573   2.048  0.2688 -0.3323  0.5919
22591SOL     OW77702   7.604   5.369  12.889 -1.0822  0.1704 -0.2663
22591SOL    HW177703   7.667   5.416  12.835 -1.2609  2.1970  1.1382
22591SOL    HW277704   7.652   5.292  12.920  1.0051  1.8921  1.1741
22592SOL     OW77705   7.488   1.368  11.623 -0.3956  0.0878 -0.3428
22592SOL    HW177706   7.565   1.398  11.575 -0.8797  0.0607 -1.1433
22592SOL    HW277707   7.421   1.354  11.556 -0.9319 -0.4185  0.2836
22593SOL     OW77708  11.022   4.730   7.184  0.0867 -0.2693 -0.4222
22593SOL    HW177709  11.057   4.802   7.235 -1.9538  0.6989 -0.3096
22593SOL    HW277710  11.058   4.743   7.096 -0.6588  1.1989 -0.5300
22594SOL     OW77711   1.015   1.380  10.889 -0.7521 -0.5848  0.8590
22594SOL    HW177712   0.975   1.323  10.823  0.2004 -0.8102  0.4572
22594SOL    HW277713   1.029   1.322  10.965  0.7844 -1.0909  0.2375
22595SOL     OW77714   9.173  11.689  10.372 -0.2699  0.2110 -0.0051
22595SOL    HW177715   9.242  11.691  10.439  0.6641  4.3816 -0.8022
22595SOL    HW277716   9.093  11.714  10.419  0.1358  1.8998 -0.1743
22596SOL     OW77717   0.066   0.608   3.105 -0.1999  0.4740  0.2244
22596SOL    HW177718   0.039   0.517   3.093  0.4618  0.3807 -0.7073
22596SOL    HW277719   0.120   0.627   3.028 -2.3809  2.4496 -0.9195
22597SOL     OW77720   5.370  12.282   1.630  0.1247 -0.4465 -0.4725
22597SOL    HW177721   5.281  12.250   1.614 -0.2107 -0.2868  0.9847
22597SOL    HW277722   5.370  12.309   1.721  1.9368 -1.3032 -0.1785
22598SOL     OW77723   1.377   6.629   7.838 -0.5170 -0.3876  0.1017
22598SOL    HW177724   1.321   6.707   7.838 -1.4636 -1.0415 -0.6143
22598SOL    HW277725   1.316   6.556   7.835  0.3667 -1.1658  0.5347
22599SOL     OW77726   6.790  11.702  12.263  0.3930 -0.3588 -0.1998
22599SOL    HW177727   6.769  11.633  12.325  1.2235  0.6955  1.3371
22599SOL    HW277728   6.758  11.670  12.179  1.0828 -2.7678  0.3641
22600SOL     OW77729   5.146   1.585   9.343 -0.3398 -0.3941 -0.2507
22600SOL    HW177730   5.060   1.618   9.318 -0.8827 -2.1054 -0.7694
22600SOL    HW277731   5.138   1.490   9.340  0.9247 -0.6473  1.9589
22601SOL     OW77732   1.660   6.076   6.164  0.1294  0.0451  0.1950
22601SOL    HW177733   1.632   6.087   6.254 -0.2923  0.6090  0.0034
22601SOL    HW277734   1.722   6.003   6.166 -0.7466 -0.6865  0.7469
22602SOL     OW77735   4.368   4.613   3.191  0.3775  0.0192  0.4468
22602SOL    HW177736   4.356   4.533   3.140 -1.1999  0.6816 -0.3169
22602SOL    HW277737   4.448   4.598   3.241  0.9356 -1.4350 -0.7810
22603SOL     OW77738   0.279   2.810  12.430 -0.3759 -0.3752  0.5166
22603SOL    HW177739   0.192   2.778  12.453 -0.2396 -0.6815  0.6212
22603SOL    HW277740   0.263   2.881  12.368 -0.6875 -0.7302  0.1788
22604SOL     OW77741   0.462   2.732   6.242  0.0996  0.3944  0.4338
22604SOL    HW177742   0.367   2.729   6.230  0.2719  1.3111 -1.4367
22604SOL    HW277743   0.473   2.776   6.327 -1.1300  0.8922  0.3653
22605SOL     OW77744  13.244   3.139   4.341  0.1711 -0.4172  0.0961
22605SOL    HW177745  13.335   3.154   4.318  0.4637 -1.0277  0.8311
22605SOL    HW277746  13.195   3.196   4.282  1.1254  1.8682  1.3776
22606SOL     OW77747   2.175  12.600  12.722  0.1466 -0.0092 -0.0208
22606SOL    HW177748   2.263  12.583  12.753 -0.2218 -1.8529  0.0965
22606SOL    HW277749   2.151  12.523  12.670 -1.5941  0.1683  0.4332
22607SOL     OW77750   1.698  11.191   3.607  0.3495  0.0550 -0.6475
22607SOL    HW177751   1.735  11.279   3.611  1.1692 -0.2740 -0.8122
22607SOL    HW277752   1.642  11.185   3.684  2.2028 -0.1253  0.7258
22608SOL     OW77753  10.378   0.564   1.182  0.2893 -0.7044 -0.0257
22608SOL    HW177754  10.418   0.651   1.192  0.7359 -0.9403  0.2625
22608SOL    HW277755  10.334   0.568   1.097  0.5143 -0.2760 -0.1265
22609SOL     OW77756   6.112  11.735   6.754 -0.1041  0.1814 -0.3852
22609SOL    HW177757   6.074  11.718   6.668 -2.0365 -0.4400  0.5325
22609SOL    HW277758   6.187  11.676   6.759 -0.4578 -0.3638 -1.3296
22610SOL     OW77759  11.360   4.136  13.005  0.0291 -0.0724  0.2943
22610SOL    HW177760  11.368   4.183  12.922 -0.6171 -0.5021 -0.0211
22610SOL    HW277761  11.426   4.175  13.062  2.5312 -1.6861 -1.3119
22611SOL     OW77762  11.450   4.135   8.728  0.1440 -0.2098 -0.0344
22611SOL    HW177763  11.491   4.176   8.652  0.5004 -1.6910 -0.6721
22611SOL    HW277764  11.374   4.190   8.747 -0.4865 -0.3104 -2.0612
22612SOL     OW77765   3.818   9.215  12.410 -0.3642  0.0558  0.1319
22612SOL    HW177766   3.877   9.244  12.341 -0.9686  0.1045 -0.3733
22612SOL    HW277767   3.732   9.246  12.383 -0.7748 -0.8146  0.3942
22613SOL     OW77768   8.790   4.392  12.510  0.4954 -0.0074 -0.5371
22613SOL    HW177769   8.762   4.300  12.508 -1.2797  0.4712  0.0349
22613SOL    HW277770   8.872   4.391  12.560 -0.5002 -1.0784  1.2019
22614SOL     OW77771  11.810   8.617   7.829 -0.3263 -0.0784 -0.0688
22614SOL    HW177772  11.903   8.635   7.837 -0.4061  0.6211 -0.6236
22614SOL    HW277773  11.799   8.529   7.866  0.6536 -0.4492 -0.6336
22615SOL     OW77774  11.390   4.009   2.026  0.1456 -0.1622  0.0442
22615SOL    HW177775  11.403   4.104   2.025  1.2093 -0.2344  2.1806
22615SOL    HW277776  11.295   3.998   2.026 -0.0240  0.8012 -1.9892
22616SOL     OW77777   2.625  10.133  11.985 -0.5795 -0.0351  0.1246
22616SOL    HW177778   2.602  10.206  12.043 -1.8803  0.0374 -0.4463
22616SOL    HW277779   2.719  10.122  11.997 -0.7406  0.2521  1.9214
22617SOL     OW77780  10.972   7.600   4.277  0.3307 -0.2714 -0.2558
22617SOL    HW177781  10.918   7.658   4.223  0.7120 -1.3053 -1.8353
22617SOL    HW277782  10.913   7.531   4.306 -0.2194  1.0420  1.9689
22618SOL     OW77783   0.282  10.333  12.198 -0.4738 -0.6449  0.4163
22618SOL    HW177784   0.271  10.412  12.250 -0.8592 -0.7342  0.4716
22618SOL    HW277785   0.194  10.297  12.189 -0.5549 -0.1253 -1.1019
22619SOL     OW77786   6.256   8.991  10.817 -0.1057  0.2039 -0.2347
22619SOL    HW177787   6.167   8.975  10.787 -0.1410  0.5397 -0.3119
22619SOL    HW277788   6.267   9.086  10.812  0.3324  0.1463 -0.4405
22620SOL     OW77789   4.612   1.968   9.195  0.3826  0.1361 -0.1462
22620SOL    HW177790   4.576   1.904   9.133  0.3288  0.9016 -0.9151
22620SOL    HW277791   4.553   1.963   9.270  1.9639 -2.7709  1.0938
22621SOL     OW77792   5.701  11.627  12.413  0.3425 -0.1593  0.2210
22621SOL    HW177793   5.653  11.553  12.450 -1.2311  0.7223  0.0274
22621SOL    HW277794   5.638  11.699  12.415  1.3311  0.7720 -1.0459
22622SOL     OW77795   2.970  11.655   5.758 -0.0815  0.2076 -0.2838
22622SOL    HW177796   3.043  11.685   5.811 -1.2388  1.7649  0.5253
22622SOL    HW277797   2.921  11.734   5.736 -0.6530 -0.5944 -2.1764
22623SOL     OW77798   9.773   7.694   8.056  0.1350 -0.0200  0.1701
22623SOL    HW177799   9.845   7.704   8.119  0.8733 -0.5588 -0.5778
22623SOL    HW277800   9.764   7.600   8.046 -1.6619 -0.0175  1.3466
22624SOL     OW77801   3.711   2.725   9.194  0.0028  0.0465  0.0383
22624SOL    HW177802   3.660   2.774   9.258  1.4508  2.9293 -0.8250
22624SOL    HW277803   3.680   2.635   9.202 -1.9730  0.8339  2.6244
22625SOL     OW77804  13.202  10.466   8.309 -0.3513  0.6765  0.7145
22625SOL    HW177805  13.240  10.428   8.229 -3.1778 -1.1236  0.0451
22625SOL    HW277806  13.194  10.392   8.369  0.0426  1.6379  1.9938
22626SOL     OW77807   0.033   4.588  12.775 -0.3345 -0.6100  0.2692
22626SOL    HW177808  -0.028   4.534  12.724 -0.1891 -1.7520  1.2424
22626SOL    HW277809  -0.009   4.596  12.861  0.9492 -1.6313  1.0356
22627SOL     OW77810   0.678   0.501   0.039 -0.2253  0.1495  0.3651
22627SOL    HW177811   0.670   0.410   0.065 -0.3079  0.0033 -0.1617
22627SOL    HW277812   0.683   0.499  -0.056 -1.7163  0.7865  0.2428
22628SOL     OW77813   9.383   4.269  11.254 -0.0134  0.0969 -0.2889
22628SOL    HW177814   9.469   4.308  11.269  0.0580 -0.0266 -0.3795
22628SOL    HW277815   9.322   4.331  11.293  0.0379  0.7418 -1.1840
22629SOL     OW77816   0.667   2.011   4.072  0.2440 -0.4696 -0.1641
22629SOL    HW177817   0.708   1.926   4.085 -1.1731 -1.2603 -0.7356
22629SOL    HW277818   0.604   2.019   4.144  0.1733 -0.0026 -0.2706
22630SOL     OW77819   4.303  13.029   6.852 -0.2617 -0.4078  0.1343
22630SOL    HW177820   4.255  13.104   6.815 -1.6216 -0.8118  0.9995
22630SOL    HW277821   4.395  13.047   6.832 -0.8706 -0.5436 -3.3018
22631SOL     OW77822  12.546  10.852   9.160 -0.1582 -0.5654 -0.6276
22631SOL    HW177823  12.591  10.820   9.238 -0.3815  1.0890  0.2235
22631SOL    HW277824  12.580  10.798   9.089  1.3139 -0.9959  0.3561
22632SOL     OW77825  10.412   8.163  10.422  0.7259  0.5141  0.0982
22632SOL    HW177826  10.364   8.128  10.347  1.2922  1.1002 -0.5385
22632SOL    HW277827  10.435   8.252  10.398 -2.0129  1.9779  2.2821
22633SOL     OW77828   5.633   8.941   9.843 -0.3095 -0.2768 -0.1052
22633SOL    HW177829   5.597   9.011   9.897 -1.2398  0.8967 -2.1057
22633SOL    HW277830   5.583   8.947   9.761  0.1463 -2.7843 -0.6409
22634SOL     OW77831   7.867  12.168   4.611  0.1312 -0.2440  0.2541
22634SOL    HW177832   7.950  12.184   4.656 -0.2224  1.2564  0.4253
22634SOL    HW277833   7.827  12.095   4.658  1.3225 -0.9519  0.1986
22635SOL     OW77834   2.757   5.302   6.419  0.4828 -0.2600  0.2285
22635SOL    HW177835   2.769   5.219   6.373 -0.2336 -0.9410  1.2374
22635SOL    HW277836   2.684   5.344   6.373  0.1044 -0.7027  0.4164
22636SOL     OW77837   1.647   3.568   0.178  0.2436 -0.5076  0.4778
22636SOL    HW177838   1.641   3.499   0.244 -0.1521  0.0531  1.0300
22636SOL    HW277839   1.691   3.641   0.223  1.2533 -0.6159 -0.2881
22637SOL     OW77840   8.210   0.531   5.882 -0.1823  0.4316 -0.2876
22637SOL    HW177841   8.168   0.549   5.798 -1.1292  0.5779  0.2020
22637SOL    HW277842   8.177   0.598   5.941 -1.1198 -0.8560  0.7049
22638SOL     OW77843  10.902   2.495   2.677  0.5137  0.5679  0.0117
22638SOL    HW177844  10.856   2.436   2.736  2.1621 -0.3332  0.4677
22638SOL    HW277845  10.902   2.449   2.593 -1.0060  1.4245 -0.4977
22639SOL     OW77846   5.500   2.282  11.270 -0.3957  0.2722 -0.4274
22639SOL    HW177847   5.554   2.241  11.338 -2.1528 -1.6814 -0.1098
22639SOL    HW277848   5.410   2.264  11.297 -1.2923  3.3961 -0.9433
22640SOL     OW77849   2.880   6.388   2.672  0.3990  0.6792  0.3469
22640SOL    HW177850   2.790   6.391   2.638  0.1200  0.0783  1.0107
22640SOL    HW277851   2.925   6.327   2.615  0.0829  0.1214  0.6813
22641SOL     OW77852   3.724   2.794  13.059  0.1997 -0.4249 -0.1024
22641SOL    HW177853   3.750   2.881  13.089 -0.4991 -0.4209  0.5264
22641SOL    HW277854   3.784   2.734  13.104  2.0249 -0.1776 -2.1004
22642SOL     OW77855   7.067  12.913   1.737  0.0965  0.5469 -0.4917
22642SOL    HW177856   7.092  12.920   1.645  0.8031  2.9087 -0.1663
22642SOL    HW277857   6.987  12.860   1.735  1.0025 -0.8887 -2.2583
22643SOL     OW77858   6.201  11.985   0.895  0.1863  0.3835 -0.1596
22643SOL    HW177859   6.243  12.002   0.811  0.7724  0.8799  0.2259
22643SOL    HW277860   6.246  11.908   0.929  0.0417  0.2637 -0.2385
22644SOL     OW77861  12.558   3.604   2.373 -0.2529 -0.0140  0.8841
22644SOL    HW177862  12.505   3.526   2.358 -0.1921 -0.1197  1.2068
22644SOL    HW277863  12.584   3.633   2.285 -0.5015 -0.1983  0.7499
22645SOL     OW77864  12.188   1.277   7.159  0.1300 -0.1445 -0.2375
22645SOL    HW177865  12.098   1.309   7.160  1.1908  3.3290 -0.2971
22645SOL    HW277866  12.223   1.307   7.075  1.7913  0.2322  0.5374
22646SOL     OW77867   2.895  11.255   7.470  0.5966  0.0579  0.4016
22646SOL    HW177868   2.806  11.269   7.437  0.3966 -0.7397  0.5923
22646SOL    HW277869   2.939  11.339   7.456  0.0697  0.1985 -0.4885
22647SOL     OW77870   8.168   8.803   7.893  0.2445 -0.3635 -0.4760
22647SOL    HW177871   8.227   8.728   7.900 -0.3771 -0.7733  0.6678
22647SOL    HW277872   8.115   8.799   7.973 -1.8159 -0.4440 -1.7597
22648SOL     OW77873   5.086   6.206   4.883  0.1596 -0.6124  0.3957
22648SOL    HW177874   5.174   6.205   4.920  1.5292  0.7124 -2.4976
22648SOL    HW277875   5.054   6.295   4.898 -0.9437 -1.1891  1.7756
22649SOL     OW77876   2.436   5.410   2.192 -0.5002 -0.1668  0.3545
22649SOL    HW177877   2.403   5.456   2.115  0.6809 -0.7455 -0.5432
22649SOL    HW277878   2.527   5.439   2.199 -0.6293 -0.0357  1.6165
22650SOL     OW77879   0.860   0.482  10.277  0.7473 -0.2180 -0.1177
22650SOL    HW177880   0.775   0.475  10.235  1.5343 -1.6898 -1.5845
22650SOL    HW277881   0.861   0.409  10.340  0.3945  0.6851  0.9673
22651SOL     OW77882   5.795   8.665  11.289 -0.1799 -0.1249 -0.1463
22651SOL    HW177883   5.861   8.614  11.242 -0.0956  0.8006 -1.0651
22651SOL    HW277884   5.834   8.683  11.374  1.6154  2.0804 -1.3536
22652SOL     OW77885   2.995   4.243   2.651  0.3497 -0.5108 -0.2544
22652SOL    HW177886   2.941   4.274   2.578  0.7164  0.4512 -0.1378
22652SOL    HW277887   3.068   4.305   2.654  0.9387 -1.2113  0.2171
22653SOL     OW77888   8.855   0.039  10.718  0.2462  0.7584  0.3425
22653SOL    HW177889   8.940   0.003  10.743  0.3320  0.3487 -0.5300
22653SOL    HW277890   8.792  -0.009  10.772  0.2889 -1.2035 -1.2500
22654SOL     OW77891   7.978   9.417   7.114 -0.6513 -0.6143  0.4906
22654SOL    HW177892   7.910   9.456   7.169 -0.9718  0.8302 -0.8484
22654SOL    HW277893   7.930   9.369   7.046 -0.2632 -2.3792  1.4150
22655SOL     OW77894   5.092   6.195  11.060 -0.2956  0.1385  0.2031
22655SOL    HW177895   5.118   6.275  11.104  0.1511 -0.3622  0.8641
22655SOL    HW277896   5.006   6.174  11.096  0.3083 -0.5702  1.2715
22656SOL     OW77897   9.031   0.417   7.214  0.2942 -0.4164  0.2759
22656SOL    HW177898   9.087   0.486   7.249  1.7523 -1.8348  0.8697
22656SOL    HW277899   9.049   0.340   7.268  1.4511 -2.2774 -2.4863
22657SOL     OW77900  12.058   0.379   2.055  0.3119  0.7738 -0.0780
22657SOL    HW177901  12.151   0.402   2.045  0.8100 -0.0829  2.0465
22657SOL    HW277902  12.028   0.362   1.966  2.7927 -1.0616 -0.6786
22658SOL     OW77903  12.350   7.014   2.245 -0.2135 -0.4884  0.3375
22658SOL    HW177904  12.428   6.974   2.207  0.1474 -0.3034  0.8668
22658SOL    HW277905  12.365   7.009   2.339 -0.5770  0.0731  0.4248
22659SOL     OW77906   3.699   4.503   7.029 -0.2291  0.0929 -0.2319
22659SOL    HW177907   3.679   4.557   7.105  0.8837  0.0370  0.1228
22659SOL    HW277908   3.795   4.503   7.024 -0.2819  0.3505 -1.8156
22660SOL     OW77909   4.286   4.036  10.887 -0.4643  0.1400 -0.4957
22660SOL    HW177910   4.356   4.100  10.877 -0.6499  0.6513  1.2280
22660SOL    HW277911   4.219   4.080  10.939 -2.1373 -0.3187 -2.1496
22661SOL     OW77912   1.152  10.331   7.501 -0.1587 -0.5896  0.1251
22661SOL    HW177913   1.082  10.266   7.511  0.7888 -1.8111 -0.7987
22661SOL    HW277914   1.143  10.389   7.577 -2.1258 -0.7284  0.0562
22662SOL     OW77915   8.370  10.927   5.756  0.2347 -0.1932  0.5220
22662SOL    HW177916   8.312  10.950   5.684  1.2772 -0.4180 -0.4137
22662SOL    HW277917   8.312  10.918   5.832 -1.0011 -0.8553 -0.4738
22663SOL     OW77918  10.847   3.935  11.157 -0.0632 -0.2265 -0.2197
22663SOL    HW177919  10.902   4.012  11.146  0.4388 -0.5057  0.2562
22663SOL    HW277920  10.788   3.959  11.229  0.9784 -0.7438  0.8560
22664SOL     OW77921  12.218   4.254   4.856 -0.0092  0.1739 -0.4289
22664SOL    HW177922  12.278   4.284   4.924 -0.2113  0.8817 -0.5531
22664SOL    HW277923  12.159   4.327   4.842  0.3616  0.2627 -1.7549
22665SOL     OW77924   9.361   8.508   6.179 -0.0761 -0.2447  0.5744
22665SOL    HW177925   9.353   8.480   6.088 -2.0052  2.6100 -0.2714
22665SOL    HW277926   9.454   8.526   6.192  0.1340 -0.0469 -1.0672
22666SOL     OW77927   5.743   8.728   7.992  0.7286 -0.2768  0.3578
22666SOL    HW177928   5.800   8.777   8.051  1.5278  1.6654 -1.8759
22666SOL    HW277929   5.674   8.789   7.968  1.0362 -0.6078 -1.5353
22667SOL     OW77930   8.851   9.917   2.504  0.2340 -0.6374 -0.0127
22667SOL    HW177931   8.785   9.896   2.439  0.6753 -0.0704 -0.6632
22667SOL    HW277932   8.848   9.845   2.566 -2.1606  0.1704  0.9332
22668SOL     OW77933   1.922   3.015   9.890  0.3135 -0.5041  0.5091
22668SOL    HW177934   1.928   2.940   9.950  0.8828 -0.8692 -0.0049
22668SOL    HW277935   1.955   2.983   9.807 -2.5547 -0.6814 -0.6643
22669SOL     OW77936   4.165   8.592   5.534  0.0375 -0.2440 -0.1022
22669SOL    HW177937   4.115   8.643   5.471  0.3182  0.3619  0.1524
22669SOL    HW277938   4.192   8.656   5.601  1.6206 -0.4289 -0.5168
22670SOL     OW77939   8.500   4.041   1.867 -0.2137 -0.2982  1.0196
22670SOL    HW177940   8.518   4.062   1.775 -0.1697 -0.1371  1.0654
22670SOL    HW277941   8.586   4.040   1.909 -0.3310  0.8465  1.3168
22671SOL     OW77942   2.656  13.275   1.074 -0.6256 -0.0051  0.1113
22671SOL    HW177943   2.741  13.302   1.041  1.6628 -1.2142  4.2698
22671SOL    HW277944   2.632  13.200   1.021  0.3585  0.9442 -1.7695
22672SOL     OW77945   4.107  11.361  12.671  0.0101 -0.4024  0.1434
22672SOL    HW177946   4.196  11.335  12.695 -0.3424 -2.6227 -0.7145
22672SOL    HW277947   4.068  11.282  12.633 -2.3400  0.5129  0.4785
22673SOL     OW77948   9.884  12.837   5.224 -0.3709  0.4257  0.5251
22673SOL    HW177949   9.891  12.861   5.317  0.1926 -1.4891  1.0219
22673SOL    HW277950   9.917  12.747   5.220 -0.1794  0.5374 -1.5783
22674SOL     OW77951  11.408   7.190   3.596  0.6218  0.0391  0.0017
22674SOL    HW177952  11.450   7.161   3.515  0.4611  0.5167 -0.2583
22674SOL    HW277953  11.339   7.126   3.613  2.7430 -2.0008  1.5729
22675SOL     OW77954   1.238   1.975   7.656  0.2777  0.5515  0.0408
22675SOL    HW177955   1.304   2.012   7.715  0.1350  2.4004 -0.9008
22675SOL    HW277956   1.209   2.049   7.602 -0.8544 -0.7186 -1.1773
22676SOL     OW77957   4.107  12.569  12.592  0.0249 -0.2244 -0.2207
22676SOL    HW177958   4.056  12.491  12.616  1.9742 -1.0805  1.4115
22676SOL    HW277959   4.151  12.544  12.511 -1.1885  0.1190 -1.0274
22677SOL     OW77960   8.833   5.073   7.858  0.0472 -0.4128  0.1366
22677SOL    HW177961   8.846   5.043   7.768 -0.9346  0.2530 -0.2478
22677SOL    HW277962   8.778   5.006   7.898 -1.4332  0.3901 -0.4682
22678SOL     OW77963   3.567   2.664   3.681 -0.4656  0.1569 -0.6026
22678SOL    HW177964   3.566   2.632   3.771 -1.5297 -0.3861 -0.7974
22678SOL    HW277965   3.547   2.757   3.689  2.2672  0.8109 -0.0722
22679SOL     OW77966   5.630   0.696   4.898 -0.2573  0.3712  0.2874
22679SOL    HW177967   5.546   0.740   4.884 -0.5859 -0.3495 -0.0595
22679SOL    HW277968   5.631   0.625   4.834  0.2780 -0.1075  0.8146
22680SOL     OW77969  12.056   1.723   1.952  0.6075 -0.1318  0.2373
22680SOL    HW177970  12.102   1.807   1.956  0.5517 -0.1147  0.5884
22680SOL    HW277971  12.093   1.678   1.876 -0.5282  0.9082 -0.9828
22681SOL     OW77972   2.526   3.558   4.477  0.5070 -0.1545  0.0602
22681SOL    HW177973   2.524   3.634   4.418  0.9869  0.5114  0.8735
22681SOL    HW277974   2.434   3.539   4.494  0.3675  1.2918  1.1264
22682SOL     OW77975   9.105   1.638  10.986 -0.0602  0.1565 -0.1771
22682SOL    HW177976   9.051   1.609  11.060  0.3961 -1.0185 -0.2862
22682SOL    HW277977   9.192   1.601  11.003 -0.5988 -2.7484 -2.6874
22683SOL     OW77978   0.770   4.159   9.151  0.2042 -0.1038  0.2525
22683SOL    HW177979   0.722   4.157   9.069  0.2774 -0.1116  0.2098
22683SOL    HW277980   0.727   4.094   9.206 -0.0620  0.1489  0.3440
22684SOL     OW77981   3.557  11.089   8.299  0.0348  0.0026 -0.1597
22684SOL    HW177982   3.544  10.996   8.318  0.5939  0.0969  0.7545
22684SOL    HW277983   3.519  11.101   8.212  2.0842 -1.6064 -1.3780
22685SOL     OW77984  11.041   9.971  10.859 -0.2257  0.0322 -0.1782
22685SOL    HW177985  11.098   9.962  10.782  0.8392  1.1257  0.4534
22685SOL    HW277986  10.963  10.016  10.826  0.5314  1.1374 -0.4930
22686SOL     OW77987   9.378   0.535  10.614 -0.2859  0.1439 -0.4844
22686SOL    HW177988   9.312   0.467  10.598  0.0117  0.0794 -1.5355
22686SOL    HW277989   9.461   0.494  10.589  0.0509  0.4960  0.0428
22687SOL     OW77990   0.792   0.929  10.573  0.0048  0.2749  0.1029
22687SOL    HW177991   0.878   0.938  10.531 -0.4042  2.5321 -0.3991
22687SOL    HW277992   0.807   0.871  10.647  1.7157 -0.2673 -0.6260
22688SOL     OW77993   4.387   8.712   5.344 -0.0358  0.1322  0.3785
22688SOL    HW177994   4.384   8.807   5.356 -0.3846  0.1627  0.0567
22688SOL    HW277995   4.296   8.684   5.350 -0.0308 -0.0710 -0.4335
22689SOL     OW77996  12.853   9.267  11.273 -0.0655 -0.2731  0.3276
22689SOL    HW177997  12.887   9.238  11.188  0.5390 -0.2552  0.5555
22689SOL    HW277998  12.805   9.348  11.254 -0.1442 -0.4046 -0.0322
22690SOL     OW77999  10.462  11.086   7.503  0.0489  0.2968 -0.4477
22690SOL    HW178000  10.421  11.120   7.423 -0.7139 -1.1311 -0.7048
22690SOL    HW278001  10.424  11.139   7.574 -1.2281 -0.0747 -0.8201
22691SOL     OW78002   7.071  13.178   7.756  0.2328  0.0433 -0.6035
22691SOL    HW178003   7.115  13.101   7.792 -0.8427  0.7272  2.4331
22691SOL    HW278004   6.980  13.150   7.744  0.2496  0.3027 -1.4359
22692SOL     OW78005   6.773   7.434   2.916 -0.4240  0.1690 -0.1401
22692SOL    HW178006   6.753   7.373   2.845 -0.0962  1.0412 -1.0188
22692SOL    HW278007   6.778   7.519   2.872  0.1825  0.6724  0.8826
22693SOL     OW78008  10.753   5.784   0.405 -0.5351 -0.1089 -0.8555
22693SOL    HW178009  10.822   5.833   0.449  0.8515 -2.2056 -0.5430
22693SOL    HW278010  10.673   5.833   0.422  0.5813  1.3259  0.4819
22694SOL     OW78011  12.495   6.950   5.888  0.0744  0.3977 -0.2057
22694SOL    HW178012  12.422   6.922   5.833 -0.3381 -0.1978  0.6262
22694SOL    HW278013  12.483   7.044   5.899 -0.7769  0.2455  0.2217
22695SOL     OW78014   5.814   9.016  10.128  0.5038  0.8503  0.3441
22695SOL    HW178015   5.739   9.039  10.074  0.6265 -1.3719 -0.8733
22695SOL    HW278016   5.783   8.946  10.184  1.5096  0.2607  0.1829
22696SOL     OW78017   1.580   0.772   9.461  0.1795 -0.3192 -0.8808
22696SOL    HW178018   1.491   0.763   9.494  0.1052 -0.1672 -1.0421
22696SOL    HW278019   1.589   0.703   9.395 -0.2336  0.4656 -1.7721
22697SOL     OW78020   2.641   7.738  11.285  0.1876  0.3497  0.5203
22697SOL    HW178021   2.649   7.829  11.312 -0.0970  0.1677  1.2365
22697SOL    HW278022   2.729   7.714  11.257  0.2678  0.8402  0.3401
22698SOL     OW78023   1.917   9.216   5.590  0.4449 -0.3465 -0.0222
22698SOL    HW178024   1.985   9.281   5.606  0.3207  0.0231 -0.9400
22698SOL    HW278025   1.876   9.243   5.508  0.2683 -1.4700 -0.3292
22699SOL     OW78026   6.954   5.617  10.791 -0.4196 -0.1001  0.4843
22699SOL    HW178027   6.998   5.532  10.801  0.4049  0.0430 -1.4961
22699SOL    HW278028   7.024   5.681  10.787 -0.9638  0.5068  0.4602
22700SOL     OW78029  12.506   3.174  11.148 -0.3721  0.2218 -0.0788
22700SOL    HW178030  12.455   3.115  11.092  0.2505 -1.3875  0.9669
22700SOL    HW278031  12.543   3.238  11.088  1.6607 -2.3979 -1.8838
22701SOL     OW78032   5.473  11.655   8.784 -0.0386  0.4935 -0.5381
22701SOL    HW178033   5.564  11.628   8.794 -0.2453 -0.6139 -1.4437
22701SOL    HW278034   5.445  11.681   8.872  0.5016 -1.2955  0.1990
22702SOL     OW78035   0.959   2.259  10.773 -0.1932  0.7002 -0.1581
22702SOL    HW178036   0.920   2.303  10.697 -2.6715  0.4877  0.8765
22702SOL    HW278037   0.989   2.175  10.740  0.9997  1.5478 -1.3564
22703SOL     OW78038   1.854  10.943  10.536 -0.4364 -0.8544  0.4631
22703SOL    HW178039   1.807  10.880  10.483 -0.2039  0.7194 -1.7423
22703SOL    HW278040   1.785  10.996  10.577 -0.6324 -2.4387  2.3544
22704SOL     OW78041  11.814   0.186   3.656 -0.1347 -0.7425  0.0882
22704SOL    HW178042  11.882   0.193   3.723  0.3806 -1.1403 -0.3892
22704SOL    HW278043  11.856   0.141   3.583 -1.7541 -3.9577  0.9390
22705SOL     OW78044  10.176   6.480   0.722 -0.2888  0.2937  0.0617
22705SOL    HW178045  10.152   6.518   0.807 -0.5970 -1.9079  1.0261
22705SOL    HW278046  10.244   6.416   0.743  0.3393  0.4047 -1.5171
22706SOL     OW78047   2.010   8.261   9.241  0.3655 -0.2361  0.3069
22706SOL    HW178048   1.968   8.200   9.181  0.5243  1.3298 -1.5070
22706SOL    HW278049   1.938   8.297   9.294 -0.0305 -0.3782 -0.1329
22707SOL     OW78050  10.653  12.350   8.188  0.2940  0.1833 -0.1443
22707SOL    HW178051  10.576  12.392   8.225 -0.5452 -2.0226  0.7686
22707SOL    HW278052  10.664  12.390   8.102 -1.9176  0.4762 -0.3286
22708SOL     OW78053   5.452   1.759  11.606 -0.0370  0.2712  0.0170
22708SOL    HW178054   5.503   1.737  11.683 -0.7059  0.6845  0.5853
22708SOL    HW278055   5.515   1.755  11.534  0.5094 -0.4833  0.5216
22709SOL     OW78056   7.165   1.237   9.069 -0.0777  0.0455 -0.0030
22709SOL    HW178057   7.120   1.319   9.048  0.1318  0.2747  0.4358
22709SOL    HW278058   7.095   1.172   9.078 -0.1855 -0.0657 -1.3920
22710SOL     OW78059   6.247  12.537   0.292 -0.1647  0.3245 -0.7091
22710SOL    HW178060   6.176  12.528   0.229  0.1504 -2.3026 -0.8026
22710SOL    HW278061   6.203  12.565   0.373 -0.8089  1.9216 -1.5566
22711SOL     OW78062   1.590  10.179  11.506  0.6042  0.0732 -0.0019
22711SOL    HW178063   1.597  10.172  11.411  0.8579 -1.3225  0.1004
22711SOL    HW278064   1.502  10.150  11.526  0.1696  1.3943  0.1277
22712SOL     OW78065   9.887   9.949   1.111 -0.1199  0.2605  0.2064
22712SOL    HW178066   9.833   9.880   1.148  1.2925 -0.2551  1.3914
22712SOL    HW278067   9.897  10.014   1.181  0.1208  0.7451 -0.2602
22713SOL     OW78068   7.224   0.019   0.399  0.0117  0.1030 -0.4503
22713SOL    HW178069   7.215   0.099   0.452 -1.5386 -0.5753  0.3788
22713SOL    HW278070   7.141   0.012   0.352  1.0315  0.2017 -2.3391
22714SOL     OW78071  11.488  10.123   0.597  0.0637  0.5958  0.0433
22714SOL    HW178072  11.440  10.187   0.545  0.6298  0.7768 -0.2629
22714SOL    HW278073  11.426  10.051   0.610 -0.3723  0.9413 -0.1237
22715SOL     OW78074   5.296  10.700   6.207 -0.9315  0.1867  0.2293
22715SOL    HW178075   5.267  10.775   6.157 -1.1783 -0.2778 -0.3338
22715SOL    HW278076   5.326  10.637   6.142 -3.0133 -1.1834  0.5080
22716SOL     OW78077   0.801   3.641   5.012  0.5632  0.0478 -0.1645
22716SOL    HW178078   0.769   3.630   4.923 -0.5356  0.1113  0.2121
22716SOL    HW278079   0.861   3.567   5.025  0.2498 -0.3150 -0.7437
22717SOL     OW78080   5.580   8.927   1.083  0.2981  0.0247  0.2352
22717SOL    HW178081   5.563   8.874   1.161  1.6872 -0.2636  0.3661
22717SOL    HW278082   5.563   9.017   1.110 -0.3799 -0.1798  0.5149
22718SOL     OW78083   4.918  10.483  11.555  0.1940 -0.4093  0.1171
22718SOL    HW178084   4.910  10.444  11.468  1.0496  0.5415 -0.4107
22718SOL    HW278085   4.830  10.514  11.576  0.1723  0.2015 -0.8332
22719SOL     OW78086  11.243   0.492   5.943  0.1024 -0.0340 -0.6192
22719SOL    HW178087  11.303   0.566   5.952 -0.6530  0.6601 -1.0729
22719SOL    HW278088  11.237   0.455   6.030 -2.6224  2.9498  0.6668
22720SOL     OW78089   4.265  11.311   6.026  0.5038 -0.0698 -0.1721
22720SOL    HW178090   4.343  11.278   6.070  0.6884  1.5850  0.8320
22720SOL    HW278091   4.205  11.333   6.097  0.5540  2.0555 -0.7372
22721SOL     OW78092   0.313  12.791   2.551 -0.2704 -0.2019 -0.2514
22721SOL    HW178093   0.389  12.749   2.591  0.6608 -0.0533 -1.7803
22721SOL    HW278094   0.264  12.828   2.624 -0.0692 -2.2156  0.9558
22722SOL     OW78095   2.716   4.838   9.827  0.2062 -0.2183  0.6043
22722SOL    HW178096   2.731   4.905   9.761  1.3436 -0.0229  1.0539
22722SOL    HW278097   2.623   4.847   9.849  0.6040  2.1558  1.6505
22723SOL     OW78098   4.531   2.581   5.063  0.3599  0.2298  0.3133
22723SOL    HW178099   4.507   2.674   5.065 -0.9733 -0.0640 -0.8799
22723SOL    HW278100   4.457   2.536   5.104 -0.9998 -0.6274 -2.8005
22724SOL     OW78101   4.382   0.627   0.683  0.1525  0.5552 -0.0119
22724SOL    HW178102   4.360   0.636   0.590 -0.1920 -1.9208 -0.2277
22724SOL    HW278103   4.436   0.549   0.687 -0.6847  0.0231  1.9978
22725SOL     OW78104   0.354   6.064   7.404  0.4012 -0.1481  0.5426
22725SOL    HW178105   0.300   6.135   7.438  1.5328  1.0455 -0.0624
22725SOL    HW278106   0.433   6.066   7.458 -0.1036 -1.8819  1.4288
22726SOL     OW78107  10.425   9.722   3.015 -0.3768 -0.6007  0.3741
22726SOL    HW178108  10.441   9.719   2.921 -0.1990 -0.1405  0.3900
22726SOL    HW278109  10.424   9.815   3.036 -0.5239 -0.6999  0.8107
22727SOL     OW78110   7.228   3.195   2.321  0.0439  0.7839  0.4520
22727SOL    HW178111   7.166   3.197   2.248  0.3679 -0.3320  0.1255
22727SOL    HW278112   7.174   3.210   2.399 -0.0427  3.9742 -0.1108
22728SOL     OW78113  11.149  11.223   2.372 -0.0800  0.6172  0.0231
22728SOL    HW178114  11.192  11.309   2.375  1.4390 -0.1031 -0.0318
22728SOL    HW278115  11.217  11.163   2.343 -1.2186 -0.5646 -0.3117
22729SOL     OW78116   5.254   4.721  10.568 -0.0171 -0.1939  0.0563
22729SOL    HW178117   5.203   4.800  10.548  0.7316  0.6809  1.4314
22729SOL    HW278118   5.209   4.651  10.520 -1.5584  0.8121 -0.0628
22730SOL     OW78119   1.115   1.034   6.228 -0.3065 -0.1122 -0.1143
22730SOL    HW178120   1.158   0.980   6.294  0.3178 -0.5371 -0.8489
22730SOL    HW278121   1.164   1.017   6.147 -2.0986 -0.9770 -1.0895
22731SOL     OW78122   2.586  10.252   5.640 -0.1807 -0.9320  0.1983
22731SOL    HW178123   2.505  10.303   5.643  0.4364  0.0648  0.4470
22731SOL    HW278124   2.576  10.195   5.563 -1.5707 -1.6298  0.8562
22732SOL     OW78125   5.289   9.848   6.566 -0.1301 -0.4493 -0.0926
22732SOL    HW178126   5.229   9.861   6.639 -1.2225 -0.2812 -1.0103
22732SOL    HW278127   5.242   9.880   6.489  1.4498  0.4839 -0.7148
22733SOL     OW78128   1.685   8.639  10.950  0.4036  0.5162  0.1189
22733SOL    HW178129   1.728   8.641  10.864  0.6811 -0.0776  0.2399
22733SOL    HW278130   1.594   8.659  10.931  0.4865  0.5096 -0.3038
22734SOL     OW78131  10.620   5.908  11.170  0.3219 -0.5360  0.2094
22734SOL    HW178132  10.607   5.818  11.199 -2.2847 -0.1413  0.5171
22734SOL    HW278133  10.581   5.911  11.082 -0.7461  0.5422  0.6937
22735SOL     OW78134   1.179   5.907  11.848  0.1579 -0.1396 -0.7029
22735SOL    HW178135   1.235   5.831  11.862 -2.6428 -2.6245 -1.9591
22735SOL    HW278136   1.114   5.903  11.918 -1.9509 -0.9113 -2.5972
22736SOL     OW78137  12.816   7.938   3.052  0.0266 -0.1843 -0.0907
22736SOL    HW178138  12.832   7.970   2.963 -0.1991 -0.3995 -0.2099
22736SOL    HW278139  12.821   8.016   3.107 -1.3948  0.2060 -0.4829
22737SOL     OW78140   2.117   1.554   4.601  0.0277  0.1105 -0.9452
22737SOL    HW178141   2.026   1.529   4.591 -0.6897  1.8975  0.4955
22737SOL    HW278142   2.126   1.575   4.694  1.6903  0.7778 -1.2165
22738SOL     OW78143   3.162   7.198  10.259  0.4292  0.0352  0.1515
22738SOL    HW178144   3.089   7.143  10.228 -1.4934  2.8396 -0.7038
22738SOL    HW278145   3.162   7.187  10.354 -0.2864 -0.9666  0.0529
22739SOL     OW78146   1.694   4.179   3.354 -0.3874 -1.0895 -0.9956
22739SOL    HW178147   1.682   4.187   3.449 -1.9872 -0.6287 -1.2037
22739SOL    HW278148   1.712   4.087   3.340  1.0857 -0.9608 -0.1467
22740SOL     OW78149   5.198   3.527   5.794 -0.1600 -0.4699  1.2134
22740SOL    HW178150   5.280   3.577   5.798 -0.9717  0.9066  1.2834
22740SOL    HW278151   5.163   3.545   5.707 -0.4336 -1.0092  1.2056
22741SOL     OW78152  12.511   4.068  11.043  0.3693 -0.0257  0.0768
22741SOL    HW178153  12.598   4.033  11.062  0.6180  0.2688 -0.5171
22741SOL    HW278154  12.507   4.074  10.948  0.7844  2.6521  0.1409
22742SOL     OW78155   1.595   9.398   9.466  0.0195  0.3391  0.8802
22742SOL    HW178156   1.671   9.418   9.412  0.0386  1.2636  1.2416
22742SOL    HW278157   1.608   9.446   9.547  0.6030 -2.0329  2.2768
22743SOL     OW78158   2.407  11.995  13.105  0.4826  0.1944 -0.5239
22743SOL    HW178159   2.316  12.017  13.086  0.3508 -0.4554 -0.6413
22743SOL    HW278160   2.418  12.017  13.198 -0.2310 -1.1423 -0.1004
22744SOL     OW78161   2.107   4.102   5.829 -0.1425  0.3649  0.0415
22744SOL    HW178162   2.035   4.143   5.875 -0.9668 -1.0871  0.1176
22744SOL    HW278163   2.177   4.096   5.894 -0.0703  1.4470  0.0746
22745SOL     OW78164  11.116  13.137  11.348  0.0579 -0.0582  0.5043
22745SOL    HW178165  11.122  13.103  11.259 -0.5218  2.0410 -0.3998
22745SOL    HW278166  11.025  13.166  11.356  0.1499 -0.0572  1.7204
22746SOL     OW78167  10.733   5.369   9.750 -0.2098  0.0447  0.0864
22746SOL    HW178168  10.699   5.439   9.694 -1.2856 -0.7065 -0.2339
22746SOL    HW278169  10.820   5.351   9.716  0.0387  1.1305  0.0911
22747SOL     OW78170   5.221   2.869   3.132 -0.0920 -0.0397  0.3999
22747SOL    HW178171   5.163   2.793   3.128  0.8088 -0.8353  1.5720
22747SOL    HW278172   5.305   2.834   3.163  1.0576  1.0642 -1.2617
22748SOL     OW78173   5.737   7.784   9.544  0.3882 -0.4594 -0.1923
22748SOL    HW178174   5.783   7.732   9.609 -0.4333 -0.2399  0.5804
22748SOL    HW278175   5.682   7.844   9.594  0.1287  0.0744 -1.0807
22749SOL     OW78176  12.977   9.194   3.029 -0.1771  0.1444 -0.2174
22749SOL    HW178177  13.014   9.106   3.028 -0.4854 -0.0733  1.7338
22749SOL    HW278178  13.047   9.250   2.998  0.6319 -0.6219  0.1747
22750SOL     OW78179   1.481   5.154   6.795 -0.7812  0.0966  0.2592
22750SOL    HW178180   1.561   5.206   6.788 -0.3589 -0.1318  2.5427
22750SOL    HW278181   1.483   5.096   6.719  1.4570 -0.2073  0.4895
22751SOL     OW78182   5.028   7.822  12.031  0.1272  0.7052 -0.5381
22751SOL    HW178183   4.987   7.737  12.014 -0.7203  1.1760 -0.9027
22751SOL    HW278184   5.067   7.813  12.118  2.4088 -0.9379 -1.6073
22752SOL     OW78185   0.762   9.936   5.235 -0.1311 -0.1522 -0.1837
22752SOL    HW178186   0.745  10.015   5.183  0.1954 -1.8242 -3.0711
22752SOL    HW278187   0.678   9.914   5.273 -0.9878 -0.0228 -1.8836
22753SOL     OW78188  10.363   4.532   4.602 -0.3549  0.2742 -0.0273
22753SOL    HW178189  10.321   4.546   4.687  1.1085  0.6015  0.6726
22753SOL    HW278190  10.452   4.564   4.614 -0.5111  1.6241 -2.1232
22754SOL     OW78191   3.076   0.056   8.000 -0.5602 -0.5028 -0.0119
22754SOL    HW178192   2.984   0.081   7.998 -0.3407  0.3190 -0.5497
22754SOL    HW278193   3.076  -0.039   8.016 -1.4550 -0.3399  0.9795
22755SOL     OW78194   5.058   9.744   9.720  0.5545 -0.1910 -0.0428
22755SOL    HW178195   5.100   9.784   9.644 -0.3734 -0.4646 -0.7108
22755SOL    HW278196   5.131   9.724   9.779  1.2558  0.3403 -0.6968
22756SOL     OW78197   4.592  10.422  10.088  0.5579  0.6943 -0.3515
22756SOL    HW178198   4.615  10.510  10.117  0.4095  0.4426  0.5586
22756SOL    HW278199   4.519  10.396  10.144  0.1890  0.2291 -1.0312
22757SOL     OW78200   1.083   9.136  13.067 -0.5286  0.1958 -0.1981
22757SOL    HW178201   1.166   9.169  13.101 -0.0931  0.1816 -1.2097
22757SOL    HW278202   1.077   9.173  12.979 -0.9597 -0.8655 -0.6316
22758SOL     OW78203   4.425  11.137   4.262 -0.3489  0.0475  0.6443
22758SOL    HW178204   4.422  11.045   4.236 -0.9292  0.5051 -1.0032
22758SOL    HW278205   4.339  11.153   4.301 -0.8047  0.2491 -0.4148
22759SOL     OW78206  10.143   7.300   3.304  0.1563 -0.2401  0.1578
22759SOL    HW178207  10.149   7.366   3.235 -0.6869 -1.1079 -0.7769
22759SOL    HW278208  10.206   7.329   3.371  2.6000 -0.4562 -1.8764
22760SOL     OW78209  12.455  10.583   4.239  0.8206  0.3079 -0.2466
22760SOL    HW178210  12.395  10.657   4.237  0.4681  0.0194 -0.3287
22760SOL    HW278211  12.513  10.597   4.164  0.3833  0.1893 -0.6076
22761SOL     OW78212   7.914   8.526   1.782 -0.0460 -0.1018  0.3484
22761SOL    HW178213   7.872   8.541   1.698 -1.1665  2.2100  1.2261
22761SOL    HW278214   7.858   8.571   1.845  1.3422 -0.8247  2.1928
22762SOL     OW78215   2.944   3.192  10.672  0.2365  0.4988 -0.9056
22762SOL    HW178216   3.016   3.254  10.680 -0.2073  0.9598 -0.4157
22762SOL    HW278217   2.919   3.172  10.762  0.0305  0.0017 -1.0652
22763SOL     OW78218  10.916  11.129   2.239 -0.1392  0.3988  0.1926
22763SOL    HW178219  10.913  11.109   2.145  0.6776 -1.7465  0.5463
22763SOL    HW278220  11.009  11.142   2.257 -0.2732  0.6258  0.7349
22764SOL     OW78221   6.281   9.625   1.046  0.3454  0.1274 -0.2426
22764SOL    HW178222   6.277   9.688   1.118 -0.0942 -0.2832  0.1038
22764SOL    HW278223   6.208   9.650   0.989 -0.4057 -0.5971  0.3598
22765SOL     OW78224  11.411   7.497   6.937  0.0358  0.5790 -0.1583
22765SOL    HW178225  11.393   7.514   7.029  1.1988  3.9638 -0.4402
22765SOL    HW278226  11.451   7.410   6.936  1.4149  1.0743  2.7413
22766SOL     OW78227   9.954  12.971  10.935  0.0304  0.2174 -0.5701
22766SOL    HW178228   9.965  12.961  11.029  0.9481  0.7631 -0.6101
22766SOL    HW278229  10.017  13.039  10.910 -0.5444  0.4240 -1.5016
22767SOL     OW78230  11.136   8.603   0.972  0.0800 -0.4347  0.5579
22767SOL    HW178231  11.046   8.625   0.994  0.4718  4.1812 -1.4321
22767SOL    HW278232  11.189   8.650   1.037  1.0843 -0.4002 -0.2578
22768SOL     OW78233   2.645   8.411  11.138 -0.3430  0.1545 -0.2647
22768SOL    HW178234   2.632   8.506  11.138 -3.8140 -0.2115  0.7630
22768SOL    HW278235   2.681   8.391  11.224 -1.8515  0.3450  0.4316
22769SOL     OW78236   7.402  11.926   4.367 -0.4310  0.0110  0.2179
22769SOL    HW178237   7.485  11.878   4.361 -0.5190 -0.1030 -0.0869
22769SOL    HW278238   7.422  12.001   4.423 -0.1179 -0.0026  0.1267
22770SOL     OW78239  12.647   3.215  12.773 -0.5022 -0.1154  0.5637
22770SOL    HW178240  12.604   3.130  12.774  2.8424 -2.0090  0.4858
22770SOL    HW278241  12.643   3.245  12.864 -3.3510  0.6665  0.2504
22771SOL     OW78242  13.285   2.682   9.412 -0.6801 -0.0901  0.4168
22771SOL    HW178243  13.278   2.770   9.448  0.4876  0.4056 -0.5101
22771SOL    HW278244  13.230   2.684   9.334 -0.8814 -0.2697  0.5539
22772SOL     OW78245   8.544  11.888   6.220 -0.1502  0.5009 -0.1476
22772SOL    HW178246   8.603  11.812   6.224  1.6728  1.8941  0.6590
22772SOL    HW278247   8.457  11.852   6.240  0.7664 -1.2581  0.9143
22773SOL     OW78248  11.443   6.714   8.900  0.2796 -0.5919 -0.3392
22773SOL    HW178249  11.437   6.684   8.990  1.0338 -0.7759 -0.3441
22773SOL    HW278250  11.432   6.809   8.905  0.5464 -0.5751 -0.0250
22774SOL     OW78251   7.431   7.367   3.845  0.1111  0.4241  0.3731
22774SOL    HW178252   7.337   7.369   3.864  0.2446  2.7862  1.1465
22774SOL    HW278253   7.456   7.459   3.841  2.0779 -0.1328 -1.6594
22775SOL     OW78254   1.801   6.514  10.797  0.2950 -0.4709 -0.1938
22775SOL    HW178255   1.743   6.508  10.872 -0.4519 -0.6438 -0.7778
22775SOL    HW278256   1.809   6.425  10.764 -0.9951 -0.1440 -1.5120
22776SOL     OW78257   4.173   4.204   6.723 -0.0214 -0.0202  0.4471
22776SOL    HW178258   4.172   4.291   6.682 -2.1114 -0.1958  0.0277
22776SOL    HW278259   4.204   4.221   6.813  1.7668  0.7846 -0.2628
22777SOL     OW78260   5.082   4.485   5.794  0.0556 -0.0173 -0.2181
22777SOL    HW178261   5.143   4.535   5.740  1.0018 -0.6470  0.2262
22777SOL    HW278262   5.096   4.394   5.768 -0.9089 -0.1479 -0.3089
22778SOL     OW78263   3.833   9.180   8.803 -0.1670 -0.1524 -0.2860
22778SOL    HW178264   3.908   9.235   8.825 -1.5909  1.5292  0.5392
22778SOL    HW278265   3.854   9.095   8.842  1.2038  0.3495  0.1226
22779SOL     OW78266   4.079   2.919   7.774  0.0692  0.2721 -0.6770
22779SOL    HW178267   4.077   2.996   7.831 -1.0271  0.0059 -0.3403
22779SOL    HW278268   3.987   2.896   7.761  0.3809 -1.0070 -0.7390
22780SOL     OW78269   2.492   3.942   8.259 -0.1114  0.7668  0.0730
22780SOL    HW178270   2.512   3.867   8.203  0.3701  0.8114  0.1825
22780SOL    HW278271   2.561   4.005   8.240  1.6821 -0.2793  2.6883
22781SOL     OW78272   1.254   4.732  12.017 -0.9592 -0.1144  0.2660
22781SOL    HW178273   1.228   4.703  11.929 -0.4574  0.5712 -0.1221
22781SOL    HW278274   1.241   4.655  12.072  3.0545 -2.1386 -1.2040
22782SOL     OW78275   2.995   5.875   3.649 -0.0899 -0.2338 -0.0429
22782SOL    HW178276   3.077   5.925   3.649 -0.4165  0.3208 -0.1260
22782SOL    HW278277   3.017   5.790   3.612  0.9003 -0.8614  1.8341
22783SOL     OW78278   7.857   1.257   0.801 -0.2190 -0.5831 -0.0789
22783SOL    HW178279   7.848   1.260   0.897 -0.5135  0.8007 -0.1350
22783SOL    HW278280   7.769   1.235   0.769 -0.7701  1.5132 -0.1201
22784SOL     OW78281   7.405  12.833  12.628  0.1971  0.7556 -0.0123
22784SOL    HW178282   7.474  12.898  12.630 -0.4641  1.4801 -0.3334
22784SOL    HW278283   7.327  12.879  12.661 -0.2926  0.1593 -0.3107
22785SOL     OW78284  10.927   5.285   4.729 -0.3993 -0.0183  0.2869
22785SOL    HW178285  11.010   5.285   4.776  0.7991 -0.6987 -1.7095
22785SOL    HW278286  10.893   5.196   4.741 -1.1434  0.4062  1.5301
22786SOL     OW78287   6.943   0.546   8.951  0.1587  0.2341  0.0893
22786SOL    HW178288   6.956   0.615   9.016  3.7259 -0.8638  0.7884
22786SOL    HW278289   7.009   0.564   8.884  0.8424 -2.0973  0.0277
22787SOL     OW78290  12.594   7.085   9.424 -0.1302  0.0938 -0.2434
22787SOL    HW178291  12.507   7.118   9.447  1.2241  2.0542  2.7934
22787SOL    HW278292  12.614   7.126   9.340 -1.3382  1.3778  0.0558
22788SOL     OW78293   4.135  10.583  11.902  0.1290  0.6744 -0.3934
22788SOL    HW178294   4.108  10.607  11.990  0.6330  1.4476 -0.4430
22788SOL    HW278295   4.115  10.659  11.848 -0.5224  0.0762 -1.0328
22789SOL     OW78296  10.109  11.626  12.436  0.1998 -0.0794  0.1335
22789SOL    HW178297  10.143  11.654  12.351 -0.5367 -0.5690 -0.3315
22789SOL    HW278298  10.086  11.708  12.481  0.9291  0.1986  0.0194
22790SOL     OW78299   0.254  12.308   0.590  0.2576  0.1002  0.3966
22790SOL    HW178300   0.292  12.393   0.567 -0.4838  0.7862  1.6289
22790SOL    HW278301   0.167  12.310   0.549 -0.9285  1.1815  2.8042
22791SOL     OW78302   0.814   1.285   9.211 -0.0820 -0.0751  0.5226
22791SOL    HW178303   0.743   1.343   9.239 -1.7526 -1.3069 -0.9459
22791SOL    HW278304   0.879   1.343   9.172 -1.7173  0.8707 -0.9236
22792SOL     OW78305   0.099   3.896   8.851  0.3868  0.2239  0.3275
22792SOL    HW178306   0.090   3.979   8.899  2.8748  1.1324 -0.6123
22792SOL    HW278307   0.079   3.920   8.760  0.1859 -0.4524  0.1905
22793SOL     OW78308   0.280   0.417   0.904  0.2783  0.3516  0.3418
22793SOL    HW178309   0.204   0.372   0.868 -0.9654  2.6672 -0.1493
22793SOL    HW278310   0.338   0.347   0.935 -2.5918 -1.5240  1.8989
22794SOL     OW78311   1.364   7.591   8.713  0.4975  0.3780  0.7884
22794SOL    HW178312   1.401   7.667   8.760  2.8245 -1.2591  1.8102
22794SOL    HW278313   1.438   7.557   8.662 -0.7565 -0.6624 -0.3769
22795SOL     OW78314   8.373   7.114   3.764  0.0702 -0.0226  0.2931
22795SOL    HW178315   8.368   7.186   3.827 -1.8063 -0.1622  0.3613
22795SOL    HW278316   8.283   7.102   3.734  0.2672 -2.4910  0.4708
22796SOL     OW78317  11.534   9.670   5.501  0.0419 -0.0056  0.3070
22796SOL    HW178318  11.463   9.629   5.550 -0.5555  0.8062  0.1310
22796SOL    HW278319  11.612   9.655   5.555 -0.0687 -1.7302  0.0496
22797SOL     OW78320   2.121  13.063   1.613  0.0659  0.3608  0.1140
22797SOL    HW178321   2.176  13.108   1.549  0.3767  0.3382  0.3633
22797SOL    HW278322   2.110  12.975   1.577  0.2975  0.3272  0.1226
22798SOL     OW78323  10.517   5.098   3.557  0.3148 -0.6188  0.0082
22798SOL    HW178324  10.440   5.136   3.514  0.2256 -2.6537 -1.7813
22798SOL    HW278325  10.490   5.009   3.578  1.6054 -0.7853  1.0444
22799SOL     OW78326   4.133   7.631   7.758 -0.2558 -0.4935  0.1155
22799SOL    HW178327   4.185   7.623   7.838 -0.5156 -0.9649  0.2434
22799SOL    HW278328   4.193   7.607   7.687 -0.4701 -1.7274  0.3223
22800SOL     OW78329  10.065  12.815   0.020 -0.2130  0.0506 -0.5414
22800SOL    HW178330  10.069  12.908   0.042  2.3647  0.1405 -1.1304
22800SOL    HW278331  10.090  12.810  -0.072 -1.8125 -1.1354 -0.9653
22801SOL     OW78332   7.471   0.375   0.610 -0.1737  0.1779  0.2910
22801SOL    HW178333   7.496   0.431   0.684 -1.9571  0.0532  1.0374
22801SOL    HW278334   7.378   0.361   0.622 -0.4315 -0.1597 -1.7997
22802SOL     OW78335  12.420   5.168   5.312  0.0513 -0.4055 -0.4208
22802SOL    HW178336  12.328   5.165   5.284 -0.5972 -0.8696  1.5300
22802SOL    HW278337  12.415   5.163   5.408  2.1010  0.1924 -0.2353
22803SOL     OW78338  13.180   7.439   9.321  0.2692  0.0620  0.1267
22803SOL    HW178339  13.097   7.487   9.324  0.2387 -0.0375  1.0926
22803SOL    HW278340  13.178   7.394   9.236 -0.5503  0.2705  0.0255
22804SOL     OW78341   9.903   0.413  10.966  0.1996 -0.2659 -0.4971
22804SOL    HW178342   9.967   0.454  10.908  0.7651 -2.0308 -1.1639
22804SOL    HW278343   9.819   0.428  10.922  0.1763  1.5338  0.0821
22805SOL     OW78344  10.010   5.559   3.921 -0.2659 -0.0558  0.2651
22805SOL    HW178345  10.037   5.468   3.909 -0.4051 -0.0152 -0.3882
22805SOL    HW278346  10.022   5.599   3.835  0.0765  0.6202  0.6223
22806SOL     OW78347  11.283  10.117   1.686  0.1220 -0.3495 -0.1902
22806SOL    HW178348  11.305  10.074   1.769 -0.1075  0.8766  0.5302
22806SOL    HW278349  11.194  10.089   1.668 -0.4299  0.6739  0.8543
22807SOL     OW78350   5.222  11.654   6.684  0.0413 -0.3926 -0.8492
22807SOL    HW178351   5.262  11.577   6.644 -0.4187 -0.2465 -1.6205
22807SOL    HW278352   5.246  11.727   6.626  0.7831  0.1106  0.0756
22808SOL     OW78353   6.517   7.671   8.489  0.4597 -0.2664 -0.6904
22808SOL    HW178354   6.476   7.629   8.413 -2.3976 -0.5373  0.8649
22808SOL    HW278355   6.482   7.623   8.564  2.5018  0.5628  0.8811
22809SOL     OW78356   0.554  12.582   4.566  0.3269 -0.2902  0.3200
22809SOL    HW178357   0.532  12.516   4.500 -1.6336 -0.5203  1.1229
22809SOL    HW278358   0.473  12.632   4.577  0.7883  0.1199  2.1136
22810SOL     OW78359   9.003   0.056   9.122 -0.2725  0.1035 -0.0184
22810SOL    HW178360   8.936   0.124   9.132 -0.5353 -0.1760  0.1539
22810SOL    HW278361   9.031   0.038   9.211 -0.0648  0.1203 -0.0810
22811SOL     OW78362   6.333   0.861   4.848  0.8502 -0.5805  0.3987
22811SOL    HW178363   6.259   0.860   4.909 -0.4836 -0.0585 -1.1524
22811SOL    HW278364   6.392   0.794   4.882 -0.8085 -1.7484  1.1225
22812SOL     OW78365  12.556   1.636   5.539  0.1263 -0.0415  0.1159
22812SOL    HW178366  12.517   1.723   5.529  0.8320  0.5218  1.9055
22812SOL    HW278367  12.508   1.596   5.611  3.2123  1.0121  3.0158
22813SOL     OW78368   8.124   0.297   2.490  0.7046 -0.3516  0.3106
22813SOL    HW178369   8.127   0.351   2.568 -0.9971 -1.1265  0.9649
22813SOL    HW278370   8.215   0.287   2.463  1.1352  1.9401  0.7548
22814SOL     OW78371   3.893   2.880   2.654 -0.2868  0.6892  0.1928
22814SOL    HW178372   3.820   2.824   2.631  1.6693 -1.9689 -0.0120
22814SOL    HW278373   3.877   2.962   2.608 -1.1899 -1.1635 -3.0611
22815SOL     OW78374  11.826   5.437   3.767  0.4396  0.8671  0.2422
22815SOL    HW178375  11.767   5.508   3.793  1.1840  2.0845 -1.2355
22815SOL    HW278376  11.771   5.376   3.718  0.2019  1.4977 -0.2857
22816SOL     OW78377   1.183   3.973   4.830 -0.1044 -0.0701  0.1078
22816SOL    HW178378   1.097   3.931   4.825 -0.2901  0.4464 -1.2661
22816SOL    HW278379   1.243   3.910   4.791  0.2537 -0.6266  1.4745
22817SOL     OW78380   5.414   4.849   2.346 -0.2461  0.5240  1.2248
22817SOL    HW178381   5.502   4.813   2.344 -0.4340  0.0685  0.3724
22817SOL    HW278382   5.397   4.869   2.438  1.2123  1.8092  1.2405
22818SOL     OW78383   9.615   6.872   9.533  0.0054  0.0578 -0.3228
22818SOL    HW178384   9.532   6.866   9.580 -0.4457  2.9315 -0.5623
22818SOL    HW278385   9.591   6.909   9.448  1.2730 -1.3860 -1.3529
22819SOL     OW78386  12.415   0.587   5.524  0.3877 -0.0902  0.3408
22819SOL    HW178387  12.464   0.558   5.601 -3.0874 -0.6290  2.5694
22819SOL    HW278388  12.377   0.671   5.551  0.4319  0.5632 -1.4887
22820SOL     OW78389   1.827   6.808  13.168 -0.4208 -0.2621  0.3017
22820SOL    HW178390   1.844   6.774  13.256 -2.3670  0.9633  1.2130
22820SOL    HW278391   1.856   6.899  13.171 -0.9142 -0.0847 -0.1565
22821SOL     OW78392  12.325   2.720   9.868 -0.1764 -1.0670 -0.4258
22821SOL    HW178393  12.394   2.787   9.866 -2.0927  1.0589  0.0398
22821SOL    HW278394  12.317   2.692   9.776 -1.4729  1.8305 -1.3311
22822SOL     OW78395   8.362   0.208   6.522 -0.4332  0.3240  0.3466
22822SOL    HW178396   8.270   0.225   6.538 -0.8001 -1.2672  0.0520
22822SOL    HW278397   8.408   0.256   6.591 -1.2667  3.2955 -0.9921
22823SOL     OW78398   4.364   2.574   6.108  0.6494  0.1013 -0.1171
22823SOL    HW178399   4.280   2.602   6.071  0.5057  0.6957  0.6461
22823SOL    HW278400   4.429   2.612   6.048  0.3891 -0.3347 -0.6927
22824SOL     OW78401   5.579   0.721  10.026 -0.1217  0.2072 -0.5382
22824SOL    HW178402   5.573   0.797   9.968  1.4685  0.0628 -0.9589
22824SOL    HW278403   5.664   0.730  10.069 -0.1459 -1.0420 -0.1764
22825SOL     OW78404   7.522  11.914   2.410  0.8178  0.0593  0.1930
22825SOL    HW178405   7.568  11.838   2.374 -1.2311 -0.8858 -0.5822
22825SOL    HW278406   7.431  11.885   2.419 -0.2253  2.6990 -0.9595
22826SOL     OW78407   0.667   0.595   5.661 -0.1426 -0.1684 -0.4061
22826SOL    HW178408   0.742   0.546   5.694  0.2879  0.9041  0.2949
22826SOL    HW278409   0.699   0.636   5.580  0.1506  0.5267  0.0458
22827SOL     OW78410  11.675   6.276   7.656  0.2894  0.1557 -0.2218
22827SOL    HW178411  11.767   6.294   7.635  0.5574  0.2627  0.9831
22827SOL    HW278412  11.640   6.360   7.686  0.4116 -0.3452  1.4186
22828SOL     OW78413   1.279   3.373  12.886 -0.1029 -0.7823  0.3254
22828SOL    HW178414   1.213   3.411  12.945  1.4730 -0.3714  1.9449
22828SOL    HW278415   1.271   3.425  12.806  0.9940  2.1765  1.9563
22829SOL     OW78416   8.900  11.534  12.660 -0.0514 -0.4788 -0.0616
22829SOL    HW178417   8.919  11.514  12.569 -1.3815 -0.6163 -0.3234
22829SOL    HW278418   8.807  11.515  12.671 -0.5068  1.8084  0.6869
22830SOL     OW78419  10.979  12.653   4.789 -0.3343 -0.2967  0.8671
22830SOL    HW178420  10.886  12.665   4.810 -0.1184 -0.2156  1.7918
22830SOL    HW278421  11.000  12.565   4.819 -0.1110 -0.3229  0.6372
22831SOL     OW78422   8.079   6.591   4.144 -0.2862 -0.1092 -0.4533
22831SOL    HW178423   8.138   6.666   4.146  0.1371 -0.4271 -0.7037
22831SOL    HW278424   8.094   6.552   4.057  0.1517 -0.9981  0.0123
22832SOL     OW78425  10.563   7.194   0.490  0.1069 -0.1906 -0.4407
22832SOL    HW178426  10.484   7.248   0.498  0.8180  1.2769 -2.5353
22832SOL    HW278427  10.543   7.134   0.418 -0.1356 -1.8152  0.9337
22833SOL     OW78428  11.346  10.219   6.218  0.6877  0.0837  0.5055
22833SOL    HW178429  11.305  10.160   6.154  1.7260  2.4521 -2.5698
22833SOL    HW278430  11.283  10.290   6.230  1.4117  0.7670  0.3633
22834SOL     OW78431   0.244   2.749  10.392 -0.2175 -0.0866  0.2345
22834SOL    HW178432   0.336   2.763  10.371 -0.2241 -1.9954 -1.3766
22834SOL    HW278433   0.245   2.707  10.477  0.4185 -0.2402  0.1577
22835SOL     OW78434  10.283   5.462  10.774  0.1219 -0.5181 -0.0879
22835SOL    HW178435  10.238   5.543  10.750  0.2879  0.0916  1.5082
22835SOL    HW278436  10.322   5.431  10.692 -0.7618  0.4926 -0.9163
22836SOL     OW78437   4.941  11.682   6.311 -0.5705 -0.0271 -0.0539
22836SOL    HW178438   4.906  11.700   6.398 -1.6657 -0.0596 -0.4705
22836SOL    HW278439   5.000  11.607   6.324 -1.7935 -0.9402  0.4520
22837SOL     OW78440  11.133   5.133  12.882  0.3088  0.2865  0.2325
22837SOL    HW178441  11.039   5.121  12.879  0.2783  0.6978 -1.3278
22837SOL    HW278442  11.154   5.177  12.800  1.7279  1.1429  1.0099
22838SOL     OW78443  11.669  10.339  12.018 -0.2227  0.5548 -0.2808
22838SOL    HW178444  11.670  10.357  11.924  0.5556  1.8486 -0.0544
22838SOL    HW278445  11.709  10.253  12.027 -2.4977 -0.6998 -1.3017
22839SOL     OW78446   9.637  11.845   5.002 -0.2231 -0.0853 -0.2382
22839SOL    HW178447   9.721  11.889   5.016 -0.9189  0.7287  1.7175
22839SOL    HW278448   9.596  11.893   4.930  0.6955 -0.0689 -0.7596
22840SOL     OW78449  12.498  12.895  10.102 -0.7828  0.1050  0.6948
22840SOL    HW178450  12.588  12.876  10.075 -0.8504  1.8462 -1.0265
22840SOL    HW278451  12.480  12.832  10.172  1.3912 -0.9915  0.3687
22841SOL     OW78452   1.948   0.267  11.359  0.1649 -0.0735  0.6714
22841SOL    HW178453   1.940   0.194  11.298  0.3662 -0.3822  1.0189
22841SOL    HW278454   2.024   0.247  11.412  0.1171  0.3024  0.8876
22842SOL     OW78455   3.410   0.030   6.731  0.1864 -0.0023 -0.0790
22842SOL    HW178456   3.426   0.016   6.638 -1.0115 -0.4198 -0.2493
22842SOL    HW278457   3.328  -0.018   6.748  1.6582 -2.0809  1.7273
22843SOL     OW78458   0.829   1.013   1.789 -0.0946  0.3074  0.2230
22843SOL    HW178459   0.908   1.028   1.736  1.3613 -0.6281  1.9896
22843SOL    HW278460   0.832   1.081   1.856 -0.0008 -0.5769  1.1370
22844SOL     OW78461   1.831  11.061  10.244  0.0560  0.3159 -0.0067
22844SOL    HW178462   1.896  11.011  10.295 -1.3802 -0.5137  1.0859
22844SOL    HW278463   1.789  10.995  10.188 -1.2929  0.4250  0.8468
22845SOL     OW78464  12.150   4.118   7.205 -0.4829  0.0582 -0.0173
22845SOL    HW178465  12.063   4.118   7.165  0.2316  0.3999 -1.6410
22845SOL    HW278466  12.175   4.210   7.209 -0.4536  0.0140  1.0651
22846SOL     OW78467  11.644  12.771  11.206  0.2740 -0.1110  0.1125
22846SOL    HW178468  11.584  12.835  11.244 -0.1605 -1.6112  2.0779
22846SOL    HW278469  11.590  12.723  11.143 -0.0565 -0.1215  0.4001
22847SOL     OW78470  11.800  10.460  12.233 -0.0832 -0.8745 -0.1326
22847SOL    HW178471  11.761  10.414  12.159 -1.3946 -0.9400  0.5595
22847SOL    HW278472  11.759  10.546  12.232 -0.4912 -1.0379  0.7769
22848SOL     OW78473  11.687   0.426   8.227 -0.3620 -0.7010  0.0739
22848SOL    HW178474  11.675   0.521   8.229 -0.2151 -0.5581 -2.5580
22848SOL    HW278475  11.599   0.390   8.237 -0.5655 -0.2489 -0.0740
22849SOL     OW78476   5.913   6.459   4.073 -0.2994  0.0707 -0.2585
22849SOL    HW178477   5.831   6.418   4.104 -1.0386 -1.1853 -3.4751
22849SOL    HW278478   5.961   6.387   4.032  1.3619  1.2554 -0.4664
22850SOL     OW78479   1.654   5.732   9.554  0.0950 -0.3209  0.0661
22850SOL    HW178480   1.713   5.669   9.594  0.9821 -0.2304 -1.0696
22850SOL    HW278481   1.682   5.817   9.590  0.6502 -0.2802 -0.4519
22851SOL     OW78482  10.933   9.749  12.972 -0.4355  0.3899  1.0836
22851SOL    HW178483  10.903   9.700  12.897  1.2293 -0.3717  0.8717
22851SOL    HW278484  10.857   9.799  13.001 -1.3239  0.0464 -0.5751
22852SOL     OW78485   7.576   9.490   1.801  0.2145 -0.1093  0.1983
22852SOL    HW178486   7.513   9.419   1.786 -1.2982  0.9318  1.2789
22852SOL    HW278487   7.637   9.485   1.727 -0.5774 -1.7589 -0.3829
22853SOL     OW78488   9.324   9.287   2.793 -0.8753  0.3093 -0.2355
22853SOL    HW178489   9.337   9.231   2.869  1.2060  3.4276  1.9671
22853SOL    HW278490   9.413   9.306   2.761 -1.3821  2.7126 -0.4657
22854SOL     OW78491   6.586   2.452   7.564  0.4508 -0.4969 -0.6180
22854SOL    HW178492   6.508   2.485   7.519 -0.1588  1.2896  1.5498
22854SOL    HW278493   6.555   2.377   7.614  0.4060 -0.5584 -0.7380
22855SOL     OW78494   2.756   8.350   9.631 -0.1860 -0.1502 -0.3409
22855SOL    HW178495   2.849   8.362   9.612  0.3990  0.8635  2.6420
22855SOL    HW278496   2.712   8.383   9.553  1.9337  1.1681 -1.0847
22856SOL     OW78497   0.251   5.660  10.962  0.1882  0.0883  0.4430
22856SOL    HW178498   0.220   5.570  10.975  0.6705 -0.0327  0.7843
22856SOL    HW278499   0.267   5.693  11.050 -0.5728  0.7256  0.3519
22857SOL     OW78500  12.293   4.704   5.635 -0.3975 -0.4953  0.2050
22857SOL    HW178501  12.360   4.646   5.600  0.3203 -0.3280  1.2541
22857SOL    HW278502  12.311   4.789   5.595 -0.1853 -0.5241  0.2390
22858SOL     OW78503  10.765  13.073   3.712 -0.1355  0.8984  0.0561
22858SOL    HW178504  10.731  13.048   3.798  1.8485 -0.4828  0.5172
22858SOL    HW278505  10.828  13.143   3.730  1.4250 -0.4315 -0.0237
22859SOL     OW78506   5.747   1.168   7.431  0.5287 -0.2822  0.5350
22859SOL    HW178507   5.652   1.167   7.423  0.4379 -0.3525  1.5503
22859SOL    HW278508   5.764   1.161   7.525  1.5553 -1.0184  0.3084
22860SOL     OW78509   1.409   8.302   4.359 -0.2990 -0.4745 -0.2703
22860SOL    HW178510   1.453   8.219   4.342  1.2579 -0.2314  1.9530
22860SOL    HW278511   1.317   8.279   4.373 -0.4917 -1.3567 -2.5602
22861SOL     OW78512   5.191   3.997   1.868  0.0035 -0.2357 -0.1593
22861SOL    HW178513   5.105   4.000   1.826  0.8640  1.4195 -1.9942
22861SOL    HW278514   5.229   4.084   1.852  1.1020 -0.0708  2.7098
22862SOL     OW78515   5.823  10.569   4.013 -0.2451 -0.4418  0.3650
22862SOL    HW178516   5.741  10.570   4.062  0.0488 -0.3029  0.8666
22862SOL    HW278517   5.849  10.661   4.007 -0.3857 -0.4359 -0.2450
22863SOL     OW78518   0.263   3.178   8.579  0.3191  0.1953 -0.0523
22863SOL    HW178519   0.255   3.211   8.669 -0.2570  2.3260 -0.8288
22863SOL    HW278520   0.354   3.196   8.555  0.8107 -1.4529  0.4609
22864SOL     OW78521   8.066   2.080   3.621  0.4658  0.7202 -0.5600
22864SOL    HW178522   8.147   2.123   3.650 -0.1867  1.5101  0.1856
22864SOL    HW278523   8.083   1.986   3.631  1.5443  0.8452 -1.1495
22865SOL     OW78524   3.274  12.725   9.905 -0.0031  0.0128 -0.4635
22865SOL    HW178525   3.208  12.792   9.888  0.0350  0.0990 -0.2806
22865SOL    HW278526   3.357  12.767   9.880 -0.1074 -0.4084 -1.5389
22866SOL     OW78527  12.527   6.361   3.313 -0.0219  0.0348  0.1173
22866SOL    HW178528  12.545   6.364   3.407 -1.7822 -2.2492  0.5991
22866SOL    HW278529  12.433   6.373   3.307 -0.1180 -1.2206 -1.2314
22867SOL     OW78530   1.920   1.732   6.992 -0.7348  0.3945  0.5239
22867SOL    HW178531   1.965   1.788   6.928  1.0796 -1.3826  0.1442
22867SOL    HW278532   1.836   1.711   6.951 -0.8036  1.5955  0.0180
22868SOL     OW78533  11.923   9.536   8.462  0.1601 -0.1507  0.4211
22868SOL    HW178534  12.009   9.527   8.503  1.0959  1.1271 -1.1184
22868SOL    HW278535  11.897   9.446   8.440  0.8177 -0.6039  1.4073
22869SOL     OW78536   1.788   7.417  11.098 -0.0376  0.3712 -0.1096
22869SOL    HW178537   1.861   7.361  11.072 -0.7061 -0.1294 -0.9662
22869SOL    HW278538   1.778   7.402  11.192 -0.2444 -1.0125 -0.3265
22870SOL     OW78539   8.566   4.058   1.578  0.5656  0.3059 -0.5709
22870SOL    HW178540   8.649   4.028   1.615 -0.0417 -1.3638 -0.4868
22870SOL    HW278541   8.590   4.103   1.498  1.5058 -0.9686 -1.0317
22871SOL     OW78542   2.854  12.781   6.140  0.8517 -0.1718  0.3443
22871SOL    HW178543   2.909  12.780   6.062 -0.3411  0.7142 -0.5517
22871SOL    HW278544   2.772  12.739   6.112  0.4457  0.0676  1.1447
22872SOL     OW78545   9.255   3.965  11.569 -0.5479  0.1479  0.2396
22872SOL    HW178546   9.318   4.035  11.553 -0.5126 -0.4100 -2.5501
22872SOL    HW278547   9.309   3.888  11.584 -0.3314 -0.6437 -3.5600
22873SOL     OW78548  11.757   3.113  11.246  0.6675  0.1331  0.4719
22873SOL    HW178549  11.801   3.079  11.324  0.1623 -0.4882  0.4977
22873SOL    HW278550  11.708   3.038  11.212  1.7894  0.0843 -1.1078
22874SOL     OW78551   6.023   8.109   5.178 -0.0788 -0.1931 -0.3690
22874SOL    HW178552   5.955   8.175   5.161  0.2014  0.1102 -0.3184
22874SOL    HW278553   6.106   8.157   5.168  0.1307  0.0082  1.7665
22875SOL     OW78554   5.342   8.796   8.736  0.0653  0.2531 -0.5725
22875SOL    HW178555   5.248   8.807   8.724 -0.4464  0.1853  2.5945
22875SOL    HW278556   5.354   8.701   8.739  0.0234  0.2725  0.2869
22876SOL     OW78557  10.815   9.586  12.120  0.4432  0.7394 -0.3532
22876SOL    HW178558  10.754   9.515  12.101 -0.2603  0.8240  1.4114
22876SOL    HW278559  10.830   9.581  12.215  0.5827  2.7705 -0.2193
22877SOL     OW78560   9.248   2.009   1.885 -0.6113 -0.0426  0.4159
22877SOL    HW178561   9.251   1.930   1.831  0.8627 -0.7974  1.5381
22877SOL    HW278562   9.163   2.049   1.864 -0.0242 -0.1528 -2.6004
22878SOL     OW78563   6.391   5.687   2.667  0.5347 -0.1468  0.5445
22878SOL    HW178564   6.370   5.598   2.640  0.2952 -0.6964  2.4381
22878SOL    HW278565   6.474   5.680   2.713  0.0046  0.4087  1.6251
22879SOL     OW78566   0.303   5.004   6.142 -0.3325  0.0483 -0.6446
22879SOL    HW178567   0.324   4.914   6.117  1.7588  0.5486 -0.8469
22879SOL    HW278568   0.282   4.998   6.235 -0.1370 -0.6372 -0.6355
22880SOL     OW78569   5.594   0.307   6.069  0.0936  1.0406 -0.6670
22880SOL    HW178570   5.589   0.323   6.163  2.3199  0.6375 -0.4105
22880SOL    HW278571   5.608   0.394   6.030  1.8058  0.9714 -0.3079
22881SOL     OW78572   1.653   3.729   7.449 -0.2524 -0.3292  0.2696
22881SOL    HW178573   1.663   3.635   7.466 -0.2554 -0.3500  0.1571
22881SOL    HW278574   1.735   3.754   7.405  0.7618  0.1896  2.3009
22882SOL     OW78575   2.071  12.432  12.482  0.1356 -0.0384 -0.2371
22882SOL    HW178576   2.156  12.423  12.440  0.4527  1.4752  0.0068
22882SOL    HW278577   2.010  12.390  12.422  0.7311  1.0519 -1.6797
22883SOL     OW78578   9.910  12.901   0.266 -0.0586  0.1799  0.1481
22883SOL    HW178579   9.872  12.894   0.353  0.2936  1.9616  0.4890
22883SOL    HW278580  10.004  12.892   0.280 -0.1522 -2.6780 -0.4990
22884SOL     OW78581   1.820   1.791   0.811  0.5458  0.4575 -0.3125
22884SOL    HW178582   1.850   1.700   0.813 -0.2675  0.1828  1.7359
22884SOL    HW278583   1.727   1.787   0.832 -0.1634  1.5927 -2.8683
22885SOL     OW78584   7.323   7.851   9.502 -0.1338 -0.2135  0.1411
22885SOL    HW178585   7.283   7.851   9.415  1.8522 -0.9600 -0.8469
22885SOL    HW278586   7.398   7.792   9.494 -0.0396 -0.5114  2.4602
22886SOL     OW78587   5.282   2.483  11.436 -0.7043 -0.3134  0.8279
22886SOL    HW178588   5.261   2.551  11.373  2.2195  0.2704  0.3502
22886SOL    HW278589   5.255   2.402  11.393  0.2328  0.1678 -0.7566
22887SOL     OW78590   0.799   0.353  11.666 -0.1561  0.4186 -0.2861
22887SOL    HW178591   0.876   0.390  11.624  1.3306 -1.6836  0.3810
22887SOL    HW278592   0.741   0.328  11.594  0.6635  0.2781 -0.9082
22888SOL     OW78593   1.901   7.855   9.413 -0.0393  0.9576  0.2238
22888SOL    HW178594   1.924   7.851   9.506 -0.1954  2.3577  0.3538
22888SOL    HW278595   1.826   7.914   9.409 -0.0311  0.9222 -0.7910
22889SOL     OW78596   8.629   4.227   3.448 -0.0910  0.2064  0.0833
22889SOL    HW178597   8.540   4.263   3.447 -0.4292 -0.6126 -0.4495
22889SOL    HW278598   8.652   4.217   3.355  0.7741  0.8996  0.2073
22890SOL     OW78599   4.608   0.975  11.266  0.7439 -0.6912 -0.6287
22890SOL    HW178600   4.562   1.049  11.306  1.8357 -0.2178 -0.2336
22890SOL    HW278601   4.539   0.910  11.250 -0.0174 -0.1128  0.2175
22891SOL     OW78602   6.868   0.531   2.510  0.4357 -0.6405 -0.0499
22891SOL    HW178603   6.893   0.622   2.523 -0.0687 -0.4101 -0.6077
22891SOL    HW278604   6.813   0.533   2.431 -1.9085 -1.0110  1.4837
22892SOL     OW78605   2.849   1.973   4.095 -0.8261 -0.3220  0.5037
22892SOL    HW178606   2.831   1.955   4.003 -2.5147 -0.0744  0.7514
22892SOL    HW278607   2.815   2.061   4.109 -2.0475 -0.9619  1.7221
22893SOL     OW78608   6.240   3.571   3.037  0.1138  0.6528  0.1959
22893SOL    HW178609   6.179   3.565   3.110  1.5955 -0.9190  1.3803
22893SOL    HW278610   6.324   3.591   3.077  0.5451  2.1929 -1.3501
22894SOL     OW78611   3.507   8.009   4.119 -0.5248  0.3379 -0.2208
22894SOL    HW178612   3.426   8.034   4.075  0.4187  0.9053 -1.7246
22894SOL    HW278613   3.571   7.999   4.048  0.8542  0.4213  0.9590
22895SOL     OW78614  11.091   8.423   5.598 -0.2778 -0.0784  0.3183
22895SOL    HW178615  11.172   8.472   5.608 -2.1735  3.3270  0.5453
22895SOL    HW278616  11.081   8.376   5.681  0.2357  1.5309  1.3453
22896SOL     OW78617   6.281   8.197  10.807  0.4671  0.1155  0.2119
22896SOL    HW178618   6.312   8.259  10.872  0.3651  0.1659  0.2122
22896SOL    HW278619   6.309   8.235  10.723 -1.8752  1.5308 -0.0037
22897SOL     OW78620   1.451   6.578  11.856  0.2859  0.1930 -0.3988
22897SOL    HW178621   1.365   6.539  11.843 -0.2027  0.6741  1.1851
22897SOL    HW278622   1.446   6.664  11.813 -0.9932  1.3878  1.9509
22898SOL     OW78623  13.304   2.333   3.071 -0.0812 -0.1975  0.2376
22898SOL    HW178624  13.285   2.393   3.142 -1.0867  0.8655 -0.8858
22898SOL    HW278625  13.346   2.387   3.004 -0.1731 -0.9237 -0.4285
22899SOL     OW78626   6.790  13.170   8.715 -0.5028  0.0376 -0.0307
22899SOL    HW178627   6.839  13.144   8.793 -1.0373 -1.4122 -0.1521
22899SOL    HW278628   6.804  13.265   8.708 -0.7921  0.2691  2.0541
22900SOL     OW78629  12.313   2.683   2.755 -0.4548 -0.5600 -0.1145
22900SOL    HW178630  12.306   2.763   2.806 -1.4362 -0.3858 -0.4843
22900SOL    HW278631  12.347   2.618   2.816 -1.6143 -0.3646  0.7899
22901SOL     OW78632   2.368   9.357   0.952  0.0230 -0.1134 -0.0773
22901SOL    HW178633   2.444   9.374   1.008 -0.1551  1.1346 -0.1991
22901SOL    HW278634   2.296   9.339   1.012  0.1696 -0.2688  0.0534
22902SOL     OW78635   0.915  11.725  10.272  0.1433 -0.1675  1.1063
22902SOL    HW178636   0.910  11.780  10.193  0.5591 -0.1703  1.0746
22902SOL    HW278637   0.995  11.753  10.315 -0.2038 -0.0061  1.6550
22903SOL     OW78638  11.683   3.794   8.709 -0.8553 -0.5187 -0.2441
22903SOL    HW178639  11.693   3.862   8.642 -1.2520  0.4476  0.6349
22903SOL    HW278640  11.771   3.779   8.742 -0.8101 -0.1669 -0.2018
22904SOL     OW78641  12.317   5.505   1.548 -0.4362 -0.4371 -0.3484
22904SOL    HW178642  12.344   5.414   1.559 -0.0922 -0.1157  1.9445
22904SOL    HW278643  12.334   5.546   1.633 -0.9776  1.6759 -1.1877
22905SOL     OW78644   7.187  12.580   7.188  0.0211  0.1365 -0.1833
22905SOL    HW178645   7.120  12.527   7.145 -0.0553 -1.2553  1.5207
22905SOL    HW278646   7.137  12.638   7.246  0.2109  0.6505 -0.5231
22906SOL     OW78647   7.714  12.373   5.785 -0.0487  0.0538 -0.7032
22906SOL    HW178648   7.633  12.396   5.740  0.2309 -0.7451 -1.6442
22906SOL    HW278649   7.691  12.373   5.878 -1.7570 -2.3522 -1.0448
22907SOL     OW78650   8.368   0.057   2.824 -0.0543 -0.2044 -0.0544
22907SOL    HW178651   8.314   0.009   2.761  1.6040 -1.8086 -0.3402
22907SOL    HW278652   8.316   0.059   2.904 -1.6454  0.7071 -1.0678
22908SOL     OW78653   0.681   1.058   7.782 -0.0723 -0.2690  0.0499
22908SOL    HW178654   0.737   1.035   7.856  1.1874  0.6427 -0.5837
22908SOL    HW278655   0.698   0.989   7.717 -2.0137 -1.7000  0.9733
22909SOL     OW78656   7.805   2.625   8.327  0.3054 -0.1939  0.4859
22909SOL    HW178657   7.778   2.592   8.413  1.4376  2.1714  1.8272
22909SOL    HW278658   7.763   2.711   8.320  1.7949  0.4937 -0.4535
22910SOL     OW78659   0.078   8.787   6.539 -0.1416 -0.4591 -0.7273
22910SOL    HW178660   0.026   8.721   6.492 -1.0970  0.2753 -0.7389
22910SOL    HW278661   0.111   8.845   6.470  0.7824 -0.9634 -0.7277
22911SOL     OW78662   0.783   8.434   7.508 -0.3871 -0.3434 -0.2670
22911SOL    HW178663   0.753   8.459   7.595  1.7442  1.0536  0.1333
22911SOL    HW278664   0.827   8.349   7.521  0.5837  0.2151  0.1956
22912SOL     OW78665   0.412   1.231  11.914 -0.0376 -0.0622 -0.3300
22912SOL    HW178666   0.420   1.326  11.911 -0.2976 -0.0635 -1.0961
22912SOL    HW278667   0.424   1.203  11.824 -3.4556 -0.4872 -0.7669
22913SOL     OW78668   4.620   5.157   7.200 -0.5472  0.2128 -0.0191
22913SOL    HW178669   4.666   5.155   7.284 -2.7354 -1.0733  1.2636
22913SOL    HW278670   4.623   5.067   7.168 -2.0033  0.1124  0.0497
22914SOL     OW78671   2.944  10.963  12.888 -0.2130 -0.3169 -0.1788
22914SOL    HW178672   3.031  10.944  12.922  0.1582  0.4430 -0.6951
22914SOL    HW278673   2.957  11.030  12.822 -0.8752 -1.8796 -2.0189
22915SOL     OW78674   2.036   1.069   4.459 -0.7504  0.0469 -0.3236
22915SOL    HW178675   2.040   1.150   4.409 -1.6741  1.0245  1.0795
22915SOL    HW278676   2.046   1.096   4.550 -0.4543 -1.4965  0.1424
22916SOL     OW78677  10.200   1.826   0.930 -0.8063  0.0626  0.0736
22916SOL    HW178678  10.151   1.842   0.849 -1.8355 -2.2656  0.1409
22916SOL    HW278679  10.282   1.785   0.901 -0.1855  1.2360  0.1233
22917SOL     OW78680  11.093   0.884   1.316  0.0230 -0.5719 -0.3719
22917SOL    HW178681  11.155   0.853   1.382 -0.4401 -0.4756  0.1177
22917SOL    HW278682  11.039   0.949   1.362  2.3604  2.7139 -1.8842
22918SOL     OW78683  10.459   7.516  11.981 -0.3509 -0.3522  0.9665
22918SOL    HW178684  10.518   7.534  11.908 -0.7743  1.2303  0.9681
22918SOL    HW278685  10.390   7.461  11.944 -0.5485  0.4219  0.1600
22919SOL     OW78686   3.341   7.238  10.603 -0.5254  0.0651 -0.1266
22919SOL    HW178687   3.389   7.266  10.681 -0.7868 -1.4271  0.6008
22919SOL    HW278688   3.269   7.184  10.637 -0.5140 -0.7893 -1.4089
22920SOL     OW78689   7.028  12.293   4.640  0.4047  0.0781 -0.3207
22920SOL    HW178690   6.996  12.358   4.578  1.0024  0.1805 -0.5274
22920SOL    HW278691   6.971  12.217   4.627 -0.1687  0.4784 -0.2203
22921SOL     OW78692   2.374   0.769  12.437 -0.1924 -0.0848 -0.8427
22921SOL    HW178693   2.392   0.803  12.349 -0.1575  1.3712 -0.2968
22921SOL    HW278694   2.294   0.717  12.426  0.8759 -1.5465 -2.0930
22922SOL     OW78695  11.249   0.049  12.901 -0.1520  0.4146  0.0113
22922SOL    HW178696  11.217   0.102  12.827 -1.1686 -0.0330  0.1063
22922SOL    HW278697  11.183   0.061  12.969 -0.6354 -1.2754 -0.1083
22923SOL     OW78698   3.790  12.677   8.057  0.0224 -0.1947 -0.2049
22923SOL    HW178699   3.831  12.616   8.119 -1.0443  0.7574  1.4967
22923SOL    HW278700   3.742  12.621   7.996 -0.8525 -1.0985  1.2644
22924SOL     OW78701   7.333   6.717   6.074 -0.0506 -0.5863 -0.8060
22924SOL    HW178702   7.355   6.726   6.166 -1.2935  0.1503 -0.5510
22924SOL    HW278703   7.244   6.681   6.075 -0.8283  1.1929 -1.6551
22925SOL     OW78704  12.925  11.047   6.179  0.0522 -0.3248 -0.0958
22925SOL    HW178705  12.871  11.010   6.109 -0.0999 -0.0444 -0.1277
22925SOL    HW278706  13.014  11.048   6.142  0.1926 -1.3562  0.1824
22926SOL     OW78707   2.512   6.135   1.715  0.3799 -0.0733  0.5322
22926SOL    HW178708   2.469   6.111   1.633  0.5244 -1.4064  0.8078
22926SOL    HW278709   2.457   6.203   1.753 -1.3071 -1.4489  0.6928
22927SOL     OW78710   9.676   6.711  10.540  0.3312  0.0576 -0.0836
22927SOL    HW178711   9.644   6.706  10.450 -0.7941 -1.9611  0.3660
22927SOL    HW278712   9.760   6.666  10.538 -0.2552 -1.0709  0.0782
22928SOL     OW78713   5.714  11.561   9.815 -0.4736  0.7078  0.1824
22928SOL    HW178714   5.685  11.494   9.752  1.8196 -0.3294  0.1401
22928SOL    HW278715   5.741  11.635   9.760  2.1632 -0.4405 -0.2492
22929SOL     OW78716  10.440   7.604  12.939 -0.6635  0.2762 -0.0603
22929SOL    HW178717  10.477   7.692  12.928 -1.3034  0.6756  0.8189
22929SOL    HW278718  10.426   7.596  13.033  0.5852 -1.2858  0.0343
22930SOL     OW78719   7.153  12.476   5.600  0.5304 -0.1176 -0.0800
22930SOL    HW178720   7.167  12.440   5.512 -0.9065 -0.1687 -0.3003
22930SOL    HW278721   7.125  12.566   5.585 -1.4670 -0.6411  0.2095
22931SOL     OW78722  12.012   0.035   5.460  0.5605  0.1948  0.0489
22931SOL    HW178723  11.971   0.018   5.545  0.2427  0.9353  0.0574
22931SOL    HW278724  11.958  -0.012   5.397  0.5997 -0.0828  0.2211
22932SOL     OW78725  10.088   5.342   8.426  0.0585  0.4160 -0.1444
22932SOL    HW178726  10.102   5.422   8.477 -1.7745  0.5577  0.2234
22932SOL    HW278727  10.136   5.356   8.345  1.1699  1.1546  0.6183
22933SOL     OW78728   4.059  12.572  10.933 -0.0224 -0.5256  0.1137
22933SOL    HW178729   4.142  12.525  10.928 -0.3133 -0.9575 -0.8711
22933SOL    HW278730   3.995  12.505  10.959  0.1372  0.0833  2.2470
22934SOL     OW78731  11.337   3.268   3.182  0.3563 -0.5242  0.0866
22934SOL    HW178732  11.378   3.190   3.220 -1.4889 -1.1380  0.9052
22934SOL    HW278733  11.362   3.265   3.089  0.6504 -1.8618  0.1852
22935SOL     OW78734   0.461   7.242   2.357  0.3448  0.4419 -0.7283
22935SOL    HW178735   0.412   7.160   2.358 -1.3369  1.3725 -1.6455
22935SOL    HW278736   0.487   7.256   2.449  0.3066 -0.8789 -0.4989
22936SOL     OW78737  10.216   1.844   5.816 -0.0322 -0.3935 -0.6253
22936SOL    HW178738  10.265   1.926   5.825 -0.4234 -0.1996 -0.2250
22936SOL    HW278739  10.226   1.801   5.900  1.7396 -1.6599 -1.4284
22937SOL     OW78740  10.930  11.287  12.152  0.3025  0.0725 -0.3120
22937SOL    HW178741  10.856  11.321  12.101  0.4615  1.3737  0.2955
22937SOL    HW278742  11.006  11.301  12.095  0.3921  0.9140  0.0113
22938SOL     OW78743   8.709  10.612   5.652 -0.1583  0.0880  0.2829
22938SOL    HW178744   8.737  10.686   5.598 -0.5499  0.0554  0.0316
22938SOL    HW278745   8.764  10.539   5.623 -0.2528  0.1114  0.0449
22939SOL     OW78746   5.618   1.677   3.723 -0.2418  0.1094 -0.1037
22939SOL    HW178747   5.610   1.770   3.700  1.1386  0.3984  0.4793
22939SOL    HW278748   5.545   1.661   3.783 -0.9786  0.5957 -0.8405
22940SOL     OW78749  10.041   1.631   4.166 -1.0761 -0.6592  0.1695
22940SOL    HW178750   9.946   1.625   4.155 -1.0129 -0.8735 -0.2824
22940SOL    HW278751  10.073   1.542   4.148 -0.6975 -0.3685 -0.6471
22941SOL     OW78752   0.211  12.362   1.692 -0.2554  0.1043  0.2085
22941SOL    HW178753   0.249  12.274   1.688 -1.2623 -0.3593  0.5226
22941SOL    HW278754   0.153  12.359   1.768 -0.8536  0.8157 -0.2126
22942SOL     OW78755   0.033  12.472   0.858 -0.1843  0.1230  0.3507
22942SOL    HW178756   0.060  12.527   0.785 -1.0618 -1.5743 -1.3376
22942SOL    HW278757  -0.047  12.513   0.892  0.2997  0.9857  0.4686
22943SOL     OW78758  11.719   6.337   9.510 -0.2527 -0.3058  0.1711
22943SOL    HW178759  11.647   6.319   9.450 -0.3450 -1.1859  0.5447
22943SOL    HW278760  11.796   6.344   9.452 -0.9884  3.9021 -0.6835
22944SOL     OW78761   3.913   8.641   7.286  0.5981 -0.1586  0.7253
22944SOL    HW178762   3.914   8.684   7.200 -1.1518 -1.1635  0.1640
22944SOL    HW278763   3.888   8.710   7.347 -1.8917 -0.2260 -0.1240
22945SOL     OW78764   5.480   9.426   7.867  0.4912 -0.1451  0.5220
22945SOL    HW178765   5.385   9.422   7.851  0.8241  1.0771 -2.2783
22945SOL    HW278766   5.506   9.335   7.880 -1.0570 -0.4780  1.6146
22946SOL     OW78767   9.651   7.047  13.238 -0.4061 -0.1671  0.5079
22946SOL    HW178768   9.640   7.023  13.330  0.1330 -1.1585  0.3301
22946SOL    HW278769   9.580   7.001  13.193 -3.2188  3.4193  0.8237
22947SOL     OW78770  11.166   0.529   9.613 -0.1930 -0.2509 -0.4030
22947SOL    HW178771  11.119   0.607   9.586  0.9704  0.6058 -0.0195
22947SOL    HW278772  11.156   0.526   9.708 -1.2109 -1.2323 -0.5226
22948SOL     OW78773   1.237   7.794   3.359 -0.1608  0.0930  0.1816
22948SOL    HW178774   1.295   7.835   3.423  0.5538  0.3886 -0.6253
22948SOL    HW278775   1.255   7.700   3.367  0.8089  0.2101 -0.3786
22949SOL     OW78776   1.098   4.731  12.850 -0.2794 -0.0932  0.2839
22949SOL    HW178777   1.124   4.821  12.870  0.4009 -0.4066  0.8158
22949SOL    HW278778   1.157   4.676  12.901 -0.3448 -0.8582 -0.4344
22950SOL     OW78779   0.764   6.343   1.954  0.1074  0.6176 -0.3759
22950SOL    HW178780   0.745   6.249   1.950 -2.9543  1.1608 -0.5570
22950SOL    HW278781   0.810   6.355   2.037  0.8918 -1.0623 -0.5321
22951SOL     OW78782   6.945   8.373   6.643 -0.1927  0.6654  0.0973
22951SOL    HW178783   6.942   8.434   6.570 -1.8080  1.9387  1.1668
22951SOL    HW278784   7.001   8.416   6.708  0.0528  0.2205  0.1815
22952SOL     OW78785   1.088   3.969   7.966 -0.9442 -0.3049  0.1637
22952SOL    HW178786   1.172   3.975   7.921 -0.9269 -2.3431 -0.1809
22952SOL    HW278787   1.024   4.000   7.902 -0.4405  2.3266  0.7981
22953SOL     OW78788  12.491  12.805   3.381 -0.3248  0.7477 -0.6368
22953SOL    HW178789  12.458  12.726   3.339  1.4914 -0.4395  0.0192
22953SOL    HW278790  12.453  12.803   3.469  0.0198  0.3695 -0.4912
22954SOL     OW78791   2.432   1.118   7.556  0.1757  0.3281 -0.8194
22954SOL    HW178792   2.518   1.115   7.515  0.8261  2.2458  0.2878
22954SOL    HW278793   2.391   1.197   7.522  1.1785  2.6639  2.7960
22955SOL     OW78794  11.040   1.796   5.109  0.2172 -0.2877  0.1465
22955SOL    HW178795  11.087   1.845   5.176 -1.4608  1.0022  0.4604
22955SOL    HW278796  11.075   1.707   5.115  0.0234 -0.2729  2.8602
22956SOL     OW78797   7.759   2.459   2.193 -0.1970  0.3354  0.5800
22956SOL    HW178798   7.846   2.442   2.227 -1.1120 -0.6506  2.6147
22956SOL    HW278799   7.728   2.535   2.242  0.4787  2.4687 -2.0894
22957SOL     OW78800   8.405   7.223   8.507 -0.3707  0.8463 -0.4323
22957SOL    HW178801   8.449   7.269   8.580 -0.8118  1.1430 -0.3509
22957SOL    HW278802   8.465   7.233   8.433 -0.2025  1.0727 -0.2662
22958SOL     OW78803   5.519   1.705   3.075 -0.3107  0.4969  0.0176
22958SOL    HW178804   5.540   1.745   3.159  1.6115  0.8800 -0.5937
22958SOL    HW278805   5.433   1.739   3.053 -0.0252  1.8874  0.9445
22959SOL     OW78806   1.308   4.205   0.676 -0.2937  0.0219  0.3919
22959SOL    HW178807   1.401   4.217   0.657 -0.5904  1.5445 -0.2142
22959SOL    HW278808   1.285   4.277   0.734 -1.0422 -0.5274  0.8018
22960SOL     OW78809   6.957   6.514   9.798  0.3737 -0.2047 -0.1239
22960SOL    HW178810   6.943   6.424   9.828 -2.7045  0.5824  1.1873
22960SOL    HW278811   7.013   6.553   9.864  1.4233 -1.0030 -0.5075
22961SOL     OW78812   3.478  10.172   0.431 -0.6541  0.1590  0.7910
22961SOL    HW178813   3.521  10.110   0.489  0.0723  0.4552  0.5801
22961SOL    HW278814   3.547  10.234   0.406 -0.8758 -0.1064 -0.5961
22962SOL     OW78815   3.738   5.636  10.677 -0.3673  0.3559  0.4397
22962SOL    HW178816   3.716   5.605  10.764  1.2143 -0.0721  0.7074
22962SOL    HW278817   3.769   5.726  10.691 -3.1030  1.4726 -0.1016
22963SOL     OW78818   8.142   5.844   7.101  0.4502 -0.2808  0.5482
22963SOL    HW178819   8.104   5.866   7.016  0.3354 -0.8591  0.4417
22963SOL    HW278820   8.102   5.760   7.124  0.4487 -0.1123  1.1952
22964SOL     OW78821   1.524   7.402   7.883  0.2964  0.1544 -0.1534
22964SOL    HW178822   1.434   7.374   7.871  0.7978 -1.0578 -1.2926
22964SOL    HW278823   1.562   7.336   7.941 -0.0215  1.7168  1.9400
22965SOL     OW78824   3.951   0.273  10.920 -0.1176 -0.3322 -0.4520
22965SOL    HW178825   3.920   0.230  11.000 -0.4687 -0.0664 -0.4440
22965SOL    HW278826   4.040   0.301  10.941 -0.5383  0.5779  0.1691
22966SOL     OW78827   9.317   6.919   1.619  0.0554 -0.2221  0.2120
22966SOL    HW178828   9.320   6.828   1.648 -1.4130 -0.5478 -0.5900
22966SOL    HW278829   9.233   6.951   1.650  0.6117  0.9154  0.5874
22967SOL     OW78830   8.011   7.546   9.652  0.3032 -0.1038 -0.0829
22967SOL    HW178831   8.071   7.549   9.577  0.5205 -0.6635  0.0668
22967SOL    HW278832   7.935   7.497   9.620  0.1067  0.2329 -0.1394
22968SOL     OW78833  10.094  11.973   3.122  0.9318  0.0729  0.1100
22968SOL    HW178834  10.094  12.035   3.050 -2.2441 -0.2372 -0.2982
22968SOL    HW278835  10.048  12.018   3.193 -0.8956 -1.4766  0.0052
22969SOL     OW78836  11.119   8.507  10.324  0.2317  0.0924 -0.0944
22969SOL    HW178837  11.212   8.488  10.314  0.3606  1.0056 -0.7330
22969SOL    HW278838  11.085   8.509  10.234 -0.0705  1.3707  0.0279
22970SOL     OW78839   9.367   1.256   1.517  0.2854 -0.1376 -0.0313
22970SOL    HW178840   9.287   1.215   1.484 -0.6049  1.1336  0.4704
22970SOL    HW278841   9.429   1.250   1.444 -0.3392 -0.9474 -0.5026
22971SOL     OW78842   1.464  11.389   7.730  0.1808 -0.0095 -0.0123
22971SOL    HW178843   1.487  11.318   7.790 -0.9157 -1.1557 -0.8908
22971SOL    HW278844   1.436  11.345   7.650  0.1707  1.4471 -0.8611
22972SOL     OW78845   2.301   8.524   6.802  0.0771  0.1876 -0.4281
22972SOL    HW178846   2.260   8.563   6.725  0.9752 -0.3475 -1.1897
22972SOL    HW278847   2.346   8.597   6.845  0.5039  0.2747 -1.0236
22973SOL     OW78848  12.824   2.511   7.030  0.0907 -0.2676  0.0518
22973SOL    HW178849  12.758   2.547   6.972  1.5964  0.8672 -1.0445
22973SOL    HW278850  12.863   2.439   6.980  1.4371  0.7537 -0.4598
22974SOL     OW78851   6.012   5.364   4.317  0.3847  0.3061  0.0597
22974SOL    HW178852   6.096   5.320   4.301  0.8661  0.9618  0.7394
22974SOL    HW278853   6.035   5.457   4.324 -0.4168  0.4992  0.1781
22975SOL     OW78854   5.917   4.184   2.060 -0.0949  0.7382 -0.1336
22975SOL    HW178855   5.892   4.232   1.981 -0.0045  0.3292 -0.4174
22975SOL    HW278856   5.988   4.236   2.098  0.7210  0.2986 -1.0057
22976SOL     OW78857   6.535  10.525  12.701  0.3275  0.1327  0.3902
22976SOL    HW178858   6.483  10.466  12.756 -1.5193  0.9109 -0.4264
22976SOL    HW278859   6.471  10.562  12.640  2.0515  0.3682 -1.3521
22977SOL     OW78860   4.352   7.229  11.330  0.0336 -0.0412 -0.0477
22977SOL    HW178861   4.346   7.136  11.351  1.7287  0.0610  1.0681
22977SOL    HW278862   4.268   7.250  11.288 -0.3691 -2.0532 -0.3186
22978SOL     OW78863   3.950  10.047   8.939  0.2444  0.2977  0.3950
22978SOL    HW178864   4.015  10.061   8.870  1.3098 -1.0168  1.0806
22978SOL    HW278865   3.971   9.960   8.974 -0.4334  0.8172  2.1834
22979SOL     OW78866   9.802   8.440   7.189 -0.8283  0.7686 -0.2082
22979SOL    HW178867   9.878   8.402   7.233 -0.2869  1.3778 -0.5998
22979SOL    HW278868   9.738   8.452   7.259 -0.1133  1.3693  0.3662
22980SOL     OW78869   6.864  11.849   9.518 -0.3742 -0.2270 -0.6797
22980SOL    HW178870   6.847  11.874   9.609  0.2802 -1.0230 -0.3227
22980SOL    HW278871   6.880  11.932   9.473  4.9064  0.1474  1.0976
22981SOL     OW78872   1.357   4.797   3.264  0.1603  0.2357 -0.1221
22981SOL    HW178873   1.448   4.828   3.267 -0.0769  0.9909 -0.4817
22981SOL    HW278874   1.347   4.745   3.344  1.7004 -2.1824 -1.4063
22982SOL     OW78875   3.924   2.767  10.821  0.1003  0.3418 -0.4603
22982SOL    HW178876   3.893   2.701  10.759  0.4277 -1.0169  0.7804
22982SOL    HW278877   3.994   2.723  10.871  1.2992  2.0694 -0.5262
22983SOL     OW78878   0.703  11.905   3.707 -0.1914  0.0534  0.1416
22983SOL    HW178879   0.778  11.942   3.754  1.3949 -1.2976 -1.1560
22983SOL    HW278880   0.631  11.906   3.770  0.8089  1.7220  1.3325
22984SOL     OW78881   3.516   1.556   5.903  0.1905  0.0379  0.2116
22984SOL    HW178882   3.535   1.490   5.971 -0.7694  0.4526  0.9030
22984SOL    HW278883   3.575   1.629   5.925  1.1598 -0.5186 -0.4766
22985SOL     OW78884   2.818  13.174   9.943  0.2502 -0.0142  0.3038
22985SOL    HW178885   2.838  13.114   9.870  0.2578  2.1239 -1.5621
22985SOL    HW278886   2.876  13.248   9.929 -0.5462  0.9436  1.8786
22986SOL     OW78887  13.258   8.506   1.545  0.1474 -0.3934  0.0339
22986SOL    HW178888  13.340   8.530   1.501  0.7746 -0.2186  1.2610
22986SOL    HW278889  13.208   8.588   1.548  0.1676 -0.3701 -0.1859
22987SOL     OW78890  12.816   6.593  10.196 -0.2543 -0.3145 -0.4661
22987SOL    HW178891  12.796   6.530  10.127 -1.6357 -0.2063 -0.1920
22987SOL    HW278892  12.785   6.551  10.276 -3.3673  1.5779 -0.5223
22988SOL     OW78893   9.961   1.272  10.411  0.2168  0.7612  0.5608
22988SOL    HW178894   9.891   1.217  10.377 -0.8517  1.2940  1.8183
22988SOL    HW278895   9.917   1.343  10.458  1.5757  2.0429  0.0160
22989SOL     OW78896   0.876   1.447  13.267 -0.2092 -0.3820  0.0375
22989SOL    HW178897   0.917   1.473  13.349  1.1701  0.7044 -0.9647
22989SOL    HW278898   0.859   1.353  13.277 -0.0271 -0.2725  1.5276
22990SOL     OW78899   6.723   7.716   3.229  0.4376 -0.1397 -0.4566
22990SOL    HW178900   6.780   7.673   3.293 -1.3399 -0.6805  0.8493
22990SOL    HW278901   6.644   7.739   3.279  0.1410  2.0569 -1.7981
22991SOL     OW78902  11.526   2.668  12.974  0.4282 -0.1816  0.2756
22991SOL    HW178903  11.588   2.692  12.905 -1.5849  1.1324 -1.1686
22991SOL    HW278904  11.537   2.736  13.040 -1.6025  2.0044 -1.4532
22992SOL     OW78905  11.018   4.409  11.504  0.7163 -0.2403 -0.3989
22992SOL    HW178906  11.067   4.337  11.545 -0.0912 -0.8320 -0.4509
22992SOL    HW278907  10.942   4.421  11.561  1.1271  0.9556 -0.0855
22993SOL     OW78908   9.357  11.221  10.550 -0.0089 -0.5008  0.1767
22993SOL    HW178909   9.445  11.218  10.513 -0.5225  0.8420 -1.2800
22993SOL    HW278910   9.369  11.250  10.640  1.0068  0.0940 -0.1428
22994SOL     OW78911  10.455   0.736  10.661 -0.5825  0.5236  0.3009
22994SOL    HW178912  10.511   0.690  10.598  1.4957  1.9974  0.9811
22994SOL    HW278913  10.473   0.829  10.647 -2.3858  1.0403  1.0358
22995SOL     OW78914   3.102   7.617   0.408  0.5358 -0.4865 -0.1564
22995SOL    HW178915   3.058   7.700   0.428 -0.9579 -1.3298  0.2444
22995SOL    HW278916   3.132   7.584   0.492 -0.7767 -1.3416  0.0149
22996SOL     OW78917   6.345   8.898  11.080 -0.1318  0.4423  0.2673
22996SOL    HW178918   6.297   8.906  11.162 -0.0936 -0.0347  0.3433
22996SOL    HW278919   6.288   8.938  11.015 -2.1558 -2.8157 -0.2164
22997SOL     OW78920   2.015   1.084   0.984  0.1779 -0.0715 -0.1157
22997SOL    HW178921   1.945   1.048   1.039  0.6957 -0.4472  0.3105
22997SOL    HW278922   2.096   1.054   1.026  0.6001  0.5648 -0.4638
22998SOL     OW78923   9.868   1.026  11.373  0.5983  0.4049 -0.0069
22998SOL    HW178924   9.861   0.941  11.329  1.0208  0.7173 -0.7010
22998SOL    HW278925   9.781   1.065  11.364  1.1319  1.2502 -2.2635
22999SOL     OW78926  10.208   1.324  12.058 -0.2031 -0.6884 -0.1111
22999SOL    HW178927  10.264   1.392  12.096 -0.4504  0.1690 -1.2179
22999SOL    HW278928  10.136   1.315  12.119 -0.2527  0.1798 -0.0277
23000SOL     OW78929   4.954   8.342  13.235  0.7905 -0.2146 -0.0347
23000SOL    HW178930   5.028   8.385  13.278  1.6593 -0.6901 -0.9916
23000SOL    HW278931   4.885   8.407  13.235  0.9072 -0.0411  1.6330
23001SOL     OW78932   1.767  10.790   7.284 -0.6416  0.4597 -0.2430
23001SOL    HW178933   1.800  10.789   7.374  0.3377  0.7449 -0.5842
23001SOL    HW278934   1.700  10.857   7.283  0.2997  1.4266 -0.0390
23002SOL     OW78935   7.651  12.850   9.048  0.0478  0.8226  0.0310
23002SOL    HW178936   7.678  12.765   9.012  1.7445 -0.0315  2.9784
23002SOL    HW278937   7.609  12.895   8.975  1.1357 -1.6464 -2.2764
23003SOL     OW78938  10.749   4.953   8.655 -0.1202 -0.1215  0.0299
23003SOL    HW178939  10.772   5.046   8.654 -0.0049 -0.1352  0.9833
23003SOL    HW278940  10.813   4.913   8.596  1.6421  0.0066  1.7619
23004SOL     OW78941   2.312   6.775  10.773 -0.1207 -0.0046 -0.4572
23004SOL    HW178942   2.228   6.735  10.796  0.4500  0.7081  3.6124
23004SOL    HW278943   2.370   6.701  10.758 -0.5614 -0.6149  0.7290
23005SOL     OW78944   6.634   5.016   1.776  0.6209  0.0023  0.0695
23005SOL    HW178945   6.647   5.076   1.703 -0.5625 -0.0430 -0.1922
23005SOL    HW278946   6.618   5.073   1.852 -2.8645  0.1165 -0.5993
23006SOL     OW78947   5.405   2.680   3.241  0.2019 -0.0758  0.1308
23006SOL    HW178948   5.500   2.670   3.243 -0.0449 -3.3550  0.2014
23006SOL    HW278949   5.379   2.673   3.333 -0.1298  1.3166  0.1687
23007SOL     OW78950   6.233   3.276   6.154 -0.6941  0.2088  0.5694
23007SOL    HW178951   6.174   3.280   6.229 -2.4230 -0.4894 -0.6648
23007SOL    HW278952   6.194   3.335   6.090  0.1048 -0.0547 -0.1814
23008SOL     OW78953   1.824   6.526   1.425 -0.0120 -0.2556 -0.2623
23008SOL    HW178954   1.777   6.519   1.342  0.1854 -3.2431 -0.2331
23008SOL    HW278955   1.756   6.513   1.491  0.4715 -2.8722 -0.1765
23009SOL     OW78956   5.253   2.656   6.707 -0.3952  0.2261  0.3708
23009SOL    HW178957   5.226   2.643   6.615 -1.8301  0.8167  0.6738
23009SOL    HW278958   5.173   2.640   6.757  0.3717 -0.0627  1.5318
23010SOL     OW78959   2.550   6.401   7.679 -0.1069  0.1581 -0.2308
23010SOL    HW178960   2.580   6.335   7.742  0.5093  0.7251  0.0928
23010SOL    HW278961   2.570   6.485   7.721 -0.0530  0.5483 -1.0063
23011SOL     OW78962   6.925   8.911   3.709 -0.2434 -0.1857 -0.1393
23011SOL    HW178963   6.970   8.836   3.671 -0.5489 -0.7893  0.6677
23011SOL    HW278964   6.843   8.918   3.659 -0.1916 -0.3634 -0.2469
23012SOL     OW78965   9.919   3.993   4.516 -0.5546 -0.2242 -0.1154
23012SOL    HW178966   9.996   3.947   4.483 -1.6422 -2.4555  0.3126
23012SOL    HW278967   9.846   3.936   4.495 -1.8199  0.6000  1.8205
23013SOL     OW78968  10.656   1.026   2.382 -0.5726  0.5928 -0.6967
23013SOL    HW178969  10.564   1.006   2.397 -0.2524 -1.8774 -1.5235
23013SOL    HW278970  10.702   0.980   2.452  0.0855  1.0912 -0.7949
23014SOL     OW78971   0.040  11.521   6.489  0.1610  0.4198 -0.3925
23014SOL    HW178972   0.034  11.524   6.584  1.5560  0.4888 -0.2850
23014SOL    HW278973   0.030  11.613   6.462  2.5007  0.8541 -0.0642
23015SOL     OW78974  11.256   5.939   6.854  0.2733 -0.2864 -0.2946
23015SOL    HW178975  11.329   6.001   6.862  0.0042  0.2803 -1.8050
23015SOL    HW278976  11.293   5.855   6.881  0.6623  0.4754  1.7231
23016SOL     OW78977   9.017   4.680  11.696  0.0827 -0.1308 -0.7488
23016SOL    HW178978   9.052   4.766  11.718  0.2109 -0.3102 -0.2271
23016SOL    HW278979   8.927   4.682  11.728 -0.0582 -0.0342 -1.1461
23017SOL     OW78980   5.322   4.363   7.273 -0.4485  0.7276 -0.4773
23017SOL    HW178981   5.406   4.338   7.235  0.7012  0.9525  1.7149
23017SOL    HW278982   5.266   4.286   7.260  0.5391  0.0245 -0.7373
23018SOL     OW78983   7.276   3.918   4.059  0.6733 -0.0361  0.1944
23018SOL    HW178984   7.237   3.904   4.145  0.0916 -1.4637 -0.2732
23018SOL    HW278985   7.337   3.991   4.072  3.2952 -2.4070  2.7104
23019SOL     OW78986   7.940   4.875   8.838 -0.5073  0.1647  0.0990
23019SOL    HW178987   7.976   4.790   8.864 -0.9037  0.4240  1.5858
23019SOL    HW278988   7.846   4.860   8.831 -0.3741 -0.0073 -1.7400
23020SOL     OW78989  11.475   9.116   3.713  0.3152 -0.1512  0.3342
23020SOL    HW178990  11.475   9.207   3.683 -1.1825 -0.5178 -0.9208
23020SOL    HW278991  11.390   9.082   3.684  1.3572 -2.3065 -0.3565
23021SOL     OW78992   5.529   3.679   8.413 -0.2022 -0.0689 -0.5431
23021SOL    HW178993   5.576   3.598   8.433 -0.4919  0.3717  2.5000
23021SOL    HW278994   5.596   3.737   8.376  1.1951 -0.2067  1.5893
23022SOL     OW78995   8.051   0.245  12.903 -0.3461  0.1631  0.2066
23022SOL    HW178996   8.015   0.333  12.896  1.2336  0.7285 -1.6040
23022SOL    HW278997   7.981   0.188  12.869 -0.3866  1.0142 -1.2130
23023SOL     OW78998   1.682   2.688   3.071  0.5667 -0.8034 -0.1939
23023SOL    HW178999   1.612   2.650   3.125  0.4827 -2.3254 -1.3058
23023SOL    HW279000   1.637   2.751   3.014  0.4617 -0.1673  0.5676
23024SOL     OW79001   1.262   6.917   7.900 -0.3629  0.3849 -0.1879
23024SOL    HW179002   1.263   6.935   7.994  0.3187 -0.1818 -0.0774
23024SOL    HW279003   1.169   6.913   7.877 -0.6172 -1.7343  0.9333
23025SOL     OW79004  12.717   3.257  11.677  0.5972 -0.1306 -0.5031
23025SOL    HW179005  12.782   3.223  11.738 -0.5191 -1.4748 -0.0224
23025SOL    HW279006  12.642   3.199  11.687 -0.8117  1.5607 -0.8118
23026SOL     OW79007   3.707  10.625   6.131 -0.4081 -0.1572  0.0681
23026SOL    HW179008   3.720  10.591   6.220 -0.4262 -1.3759 -0.3791
23026SOL    HW279009   3.786  10.675   6.113  0.0615 -0.7584  0.3962
23027SOL     OW79010   4.002  12.904   9.302  0.6379 -0.8551  0.5242
23027SOL    HW179011   4.055  12.976   9.338  1.1726 -1.1338  0.3076
23027SOL    HW279012   3.920  12.946   9.277  0.8391 -0.3684  0.6518
23028SOL     OW79013   6.332   7.439   0.411  0.1587  0.1824 -0.3465
23028SOL    HW179014   6.385   7.366   0.378  0.6273  0.2093  0.3196
23028SOL    HW279015   6.276   7.400   0.478  0.9431  0.5486  0.5538
23029SOL     OW79016   5.181   5.833   0.661 -0.1854 -0.3751 -0.2811
23029SOL    HW179017   5.269   5.870   0.674 -0.4967  0.1038  0.5983
23029SOL    HW279018   5.144   5.832   0.749 -2.6941  3.6003 -1.0325
23030SOL     OW79019   7.975   8.829   6.033 -0.2471  0.2954  0.4722
23030SOL    HW179020   8.062   8.793   6.051 -1.6136 -2.8878  1.3950
23030SOL    HW279021   7.952   8.877   6.113 -0.2709 -0.9776  1.2663
23031SOL     OW79022   4.482   3.710   9.722  0.1243  0.2850 -0.6562
23031SOL    HW179023   4.396   3.743   9.694  0.9601  1.9537 -1.4183
23031SOL    HW279024   4.463   3.630   9.771 -1.7144 -0.7422 -2.8709
23032SOL     OW79025   3.114   0.281   4.615  0.2984 -0.4082 -0.0375
23032SOL    HW179026   3.143   0.292   4.524  0.1909 -0.4554 -0.0778
23032SOL    HW279027   3.036   0.225   4.609 -1.0800  1.4146 -0.1383
23033SOL     OW79028   3.430   1.909  10.104 -0.3860  0.6291 -0.2211
23033SOL    HW179029   3.462   1.918  10.194 -0.1907  1.3627 -0.3588
23033SOL    HW279030   3.503   1.871  10.056 -0.4280  0.4059 -0.1106
23034SOL     OW79031  11.335   6.030  10.859  0.1549 -0.0462  0.1185
23034SOL    HW179032  11.271   6.095  10.831 -1.3590 -2.1492 -1.6217
23034SOL    HW279033  11.418   6.061  10.823 -0.1078  1.9027  1.0542
23035SOL     OW79034   4.905   0.019   2.510  0.4377 -0.3825  0.4578
23035SOL    HW179035   4.859  -0.003   2.591  1.2577  0.9842  1.3490
23035SOL    HW279036   4.836   0.040   2.448 -0.2450 -2.4462  0.4612
23036SOL     OW79037   4.797  10.234   8.726 -0.1814  0.4080  0.2766
23036SOL    HW179038   4.764  10.160   8.674 -0.3870  1.2686 -0.8639
23036SOL    HW279039   4.885  10.209   8.751 -1.0610 -1.2423  1.9889
23037SOL     OW79040   5.297   4.410   8.931  0.3010  0.2771  0.6679
23037SOL    HW179041   5.250   4.333   8.899 -1.4522  1.2798  0.6908
23037SOL    HW279042   5.279   4.412   9.025 -1.4606  1.8207  0.3548
23038SOL     OW79043   1.913  10.418   4.628  0.4892  0.1930  0.0888
23038SOL    HW179044   1.854  10.457   4.692  0.0381  2.1441 -1.4100
23038SOL    HW279045   2.000  10.448   4.653  0.3919  0.4271  0.1396
23039SOL     OW79046  12.604  10.540   2.993 -0.4093  1.2009  0.2393
23039SOL    HW179047  12.552  10.475   2.946 -0.3486  1.7086 -0.5552
23039SOL    HW279048  12.599  10.513   3.085 -0.3409  0.0539 -0.0726
23040SOL     OW79049   6.759   8.544   2.362  0.5946  0.4921 -0.7383
23040SOL    HW179050   6.790   8.606   2.296 -0.3236  0.7213 -0.9734
23040SOL    HW279051   6.665   8.537   2.346  0.3695  0.4545  0.4630
23041SOL     OW79052  11.747  10.346   9.840 -0.2663  0.6100 -0.2337
23041SOL    HW179053  11.759  10.439   9.822 -1.2790  0.7257 -0.3812
23041SOL    HW279054  11.655  10.339   9.868 -0.8408 -0.6233 -2.2424
23042SOL     OW79055  13.048   9.390  12.042  0.5342  0.0176  0.3356
23042SOL    HW179056  12.960   9.390  12.004  0.7546  0.1446 -0.1737
23042SOL    HW279057  13.072   9.482  12.047  0.9330 -0.0542 -0.2072
23043SOL     OW79058   8.110   7.510   3.052 -0.2856 -0.3078  0.2662
23043SOL    HW179059   8.137   7.594   3.015 -1.3778  0.3828  0.9814
23043SOL    HW279060   8.021   7.526   3.085 -0.1191 -1.4590  1.3236
23044SOL     OW79061   6.423   7.557   2.257 -0.3741 -0.2778 -0.2041
23044SOL    HW179062   6.381   7.513   2.332  0.7924 -1.1566 -0.0301
23044SOL    HW279063   6.495   7.498   2.233 -0.6966  0.0172 -2.0010
23045SOL     OW79064  10.913   5.505  11.971  0.0612  0.1240 -0.1962
23045SOL    HW179065  10.919   5.416  11.936 -0.0146  0.3844 -0.9004
23045SOL    HW279066  11.003   5.535  11.977  0.4278 -1.2292  3.4478
23046SOL     OW79067   1.175   4.788   5.381  0.5324 -0.2451  0.4073
23046SOL    HW179068   1.269   4.776   5.370  0.3376 -0.9162 -0.5529
23046SOL    HW279069   1.138   4.700   5.375 -0.2464  0.1116 -0.1955
23047SOL     OW79070   0.548   1.002  12.004  0.1380 -0.5840  0.4315
23047SOL    HW179071   0.489   0.931  12.028 -0.9385  0.4853  1.0080
23047SOL    HW279072   0.492   1.069  11.966  0.9844  0.4165  0.8820
23048SOL     OW79073  12.582   1.567  10.369  0.1251 -0.5466 -0.5908
23048SOL    HW179074  12.592   1.662  10.361 -1.1231 -0.3959 -0.5280
23048SOL    HW279075  12.488   1.554  10.376  0.3916 -1.5851  1.9871
23049SOL     OW79076   9.927   6.248   5.287 -0.3330  0.0463  0.1243
23049SOL    HW179077   9.911   6.198   5.207 -0.2270 -1.7252  1.1492
23049SOL    HW279078  10.008   6.212   5.322 -1.4711 -0.7401  2.1070
23050SOL     OW79079   4.559  13.126  11.101 -0.0970 -0.0539  0.4314
23050SOL    HW179080   4.571  13.219  11.117 -0.0897 -0.3635  2.4602
23050SOL    HW279081   4.633  13.084  11.145 -0.1401 -1.0321 -0.3892
23051SOL     OW79082   4.269   6.958   4.916 -0.0840  0.2693 -0.7096
23051SOL    HW179083   4.245   6.880   4.966 -1.4533  0.0445 -1.6447
23051SOL    HW279084   4.299   6.924   4.832  0.0804  0.7151 -0.8330
23052SOL     OW79085   3.858   4.406   7.943  0.0507  0.0366  0.4399
23052SOL    HW179086   3.931   4.468   7.946  1.3327 -1.3444 -0.6980
23052SOL    HW279087   3.789   4.452   7.896  0.2671  1.2769  1.3063
23053SOL     OW79088   8.881   9.140  11.383  0.2783  0.2343 -0.1725
23053SOL    HW179089   8.847   9.051  11.397  1.2800 -0.1690 -0.1534
23053SOL    HW279090   8.805   9.197  11.391 -0.4352 -0.6518 -0.4702
23054SOL     OW79091   5.446   1.536   9.232 -0.2346  0.1031 -0.4587
23054SOL    HW179092   5.362   1.575   9.258  0.6774  3.7337 -2.2887
23054SOL    HW279093   5.499   1.537   9.312 -0.7826  1.2499 -0.0838
23055SOL     OW79094   0.325   0.203   4.400  0.0643 -0.4371  0.8129
23055SOL    HW179095   0.255   0.268   4.387  0.2333 -0.0742  1.6853
23055SOL    HW279096   0.286   0.121   4.371 -0.4148 -0.0872  0.4230
23056SOL     OW79097  12.637   1.678   8.110  0.8484  0.1554 -0.0496
23056SOL    HW179098  12.589   1.615   8.164 -0.0287  1.3041  0.5552
23056SOL    HW279099  12.683   1.625   8.045 -0.0551 -1.0769  0.2977
23057SOL     OW79100   7.993   6.065   2.623  0.2320 -0.2742 -0.0779
23057SOL    HW179101   7.948   6.032   2.545  1.1559  1.6208 -1.4829
23057SOL    HW279102   7.925   6.114   2.670  0.1636  0.3680 -0.8250
23058SOL     OW79103   7.496   9.422   8.456 -0.2594  0.5001  0.0044
23058SOL    HW179104   7.529   9.471   8.381 -0.1105  0.4048  0.0070
23058SOL    HW279105   7.500   9.484   8.529 -1.3092  0.8973 -0.2586
23059SOL     OW79106  12.231   4.655  12.014  0.4841  0.2440 -0.5415
23059SOL    HW179107  12.195   4.638  12.101  0.3171 -1.2346 -0.8788
23059SOL    HW279108  12.325   4.635  12.022  0.3609 -0.4879 -0.8389
23060SOL     OW79109   4.672   7.724  10.609 -0.2407 -0.0623  0.6831
23060SOL    HW179110   4.580   7.749  10.606 -0.2106  0.1828  1.5340
23060SOL    HW279111   4.678   7.660  10.680  0.0941 -0.7562  0.0455
23061SOL     OW79112   6.298   6.712  13.008  0.2027  0.3183  0.7283
23061SOL    HW179113   6.350   6.646  12.963  0.3058 -1.0635  2.7839
23061SOL    HW279114   6.222   6.726  12.951  0.6917 -0.8001 -0.2297
23062SOL     OW79115   9.939   6.167  10.110 -0.4738  0.9077 -0.5946
23062SOL    HW179116  10.000   6.164  10.037 -0.3688 -3.0063 -0.5281
23062SOL    HW279117   9.868   6.108  10.085 -1.6641  1.3386  1.4928
23063SOL     OW79118   4.972   7.488   9.672 -0.2889  0.3772 -0.0445
23063SOL    HW179119   5.059   7.500   9.711 -0.8498  1.9354  0.8113
23063SOL    HW279120   4.928   7.427   9.731 -0.9837  2.3923  1.6797
23064SOL     OW79121   8.480   3.815  11.947 -0.3156  0.3546 -0.8747
23064SOL    HW179122   8.565   3.858  11.953 -1.1051  2.2511 -2.4015
23064SOL    HW279123   8.419   3.877  11.985 -1.2905 -0.0877 -1.6725
23065SOL     OW79124   8.579   6.209   1.797  0.0468 -0.2785 -0.6594
23065SOL    HW179125   8.502   6.155   1.779  1.1312 -1.8824 -0.6111
23065SOL    HW279126   8.565   6.242   1.886 -0.0411 -1.5279 -0.1989
23066SOL     OW79127   1.617   8.168   5.387  0.2361  0.3756  0.4946
23066SOL    HW179128   1.545   8.191   5.446 -0.7903  1.0896 -0.9775
23066SOL    HW279129   1.605   8.225   5.311  2.1240  0.2194  0.0193
23067SOL     OW79130   8.810   9.771  12.596  0.2712 -0.3878  0.1035
23067SOL    HW179131   8.821   9.801  12.506 -2.8706 -2.5886 -1.1916
23067SOL    HW279132   8.874   9.822  12.646  1.1250  2.0177 -3.0991
23068SOL     OW79133  10.182   3.781   5.167 -0.3234 -0.3088  0.3030
23068SOL    HW179134  10.261   3.804   5.217  1.2309 -5.0056  0.4522
23068SOL    HW279135  10.187   3.836   5.089  2.2071  0.7148  1.0755
23069SOL     OW79136   7.501   5.961   9.978  0.2225  0.2740 -0.1863
23069SOL    HW179137   7.566   5.964  10.048  2.4775  0.9763 -2.1835
23069SOL    HW279138   7.518   6.039   9.925 -1.6855  0.0123 -1.2806
23070SOL     OW79139  11.634   3.792   9.179  0.1887  0.4751  0.7616
23070SOL    HW179140  11.624   3.697   9.183  1.2696  0.2697 -0.6456
23070SOL    HW279141  11.611   3.816   9.089 -0.0743  1.5513  1.0926
23071SOL     OW79142   9.237  11.538   6.880  0.2424 -0.1825  0.2651
23071SOL    HW179143   9.222  11.448   6.850 -1.5429  0.4518 -0.8445
23071SOL    HW279144   9.150  11.576   6.890  0.8941  0.9096  2.4748
23072SOL     OW79145   7.668   6.084   9.609  0.7695  0.0517 -0.3033
23072SOL    HW179146   7.716   6.016   9.561  0.6037 -0.4058  0.1752
23072SOL    HW279147   7.704   6.167   9.575 -0.5726 -0.1784 -2.5293
23073SOL     OW79148   3.418   7.171   2.838  0.5303  0.2048  0.2480
23073SOL    HW179149   3.489   7.124   2.883 -0.6722  1.1563  3.4379
23073SOL    HW279150   3.388   7.110   2.771  3.0067 -1.0385  0.1543
23074SOL     OW79151   7.732   0.370   7.702  0.7371 -0.0331  0.2157
23074SOL    HW179152   7.702   0.347   7.790  1.4097  0.7003  0.6436
23074SOL    HW279153   7.813   0.321   7.690  0.7198 -0.0242  0.0618
23075SOL     OW79154   5.423   7.182  12.575 -0.1522  0.5508  0.5658
23075SOL    HW179155   5.495   7.123  12.599 -1.2415 -0.5672  1.1776
23075SOL    HW279156   5.454   7.269  12.601  1.9469  0.4797 -1.3564
23076SOL     OW79157   5.249  13.011   3.883  0.2705  0.0483  0.1752
23076SOL    HW179158   5.328  13.019   3.936  0.4457  1.0802 -0.2149
23076SOL    HW279159   5.281  13.002   3.793 -0.0506  0.4531  0.0184
23077SOL     OW79160  11.411   1.332   4.699 -0.5463  0.4666 -0.1889
23077SOL    HW179161  11.461   1.351   4.779 -0.1223 -1.7536  0.1309
23077SOL    HW279162  11.391   1.418   4.663  0.6346  1.4987  1.4570
23078SOL     OW79163   0.322   1.800   3.569  0.3553 -0.0053 -0.2118
23078SOL    HW179164   0.272   1.881   3.570  1.3536  0.6707 -1.4097
23078SOL    HW279165   0.258   1.731   3.586 -0.7570  0.9162 -0.5660
23079SOL     OW79166  10.191   3.284  12.952  0.1532 -0.0422  0.0388
23079SOL    HW179167  10.277   3.260  12.985  0.3595 -0.3387 -0.6861
23079SOL    HW279168  10.209   3.343  12.878 -0.2189 -0.8410 -0.7136
23080SOL     OW79169   0.424   9.852  10.414  0.4192  0.0776 -0.1385
23080SOL    HW179170   0.410   9.946  10.404  0.9447  0.0999 -0.7545
23080SOL    HW279171   0.507   9.845  10.462  0.5803 -0.0657 -0.4322
23081SOL     OW79172   8.514   9.624   3.251 -0.0057 -0.1472 -0.3457
23081SOL    HW179173   8.600   9.659   3.226 -0.2501  1.4761  0.9032
23081SOL    HW279174   8.451   9.675   3.199 -0.3246  0.7840  0.8998
23082SOL     OW79175   4.525   7.434   2.357 -0.2188  0.1222  0.2446
23082SOL    HW179176   4.460   7.504   2.349 -1.5686 -1.1058  0.1194
23082SOL    HW279177   4.580   7.443   2.279 -0.5486  0.8499  0.0885
23083SOL     OW79178   1.842   6.577   9.547  0.0418  0.2447 -0.1468
23083SOL    HW179179   1.827   6.539   9.461  0.8269  2.3446 -1.2663
23083SOL    HW279180   1.938   6.579   9.556 -0.0041  1.1043  0.2679
23084SOL     OW79181   5.612   7.305   1.561 -0.0370  0.0246 -0.4491
23084SOL    HW179182   5.569   7.310   1.646 -0.4496  1.6000 -0.7113
23084SOL    HW279183   5.594   7.216   1.530  0.1841 -0.6040  1.1176
23085SOL     OW79184   4.024   0.447   0.891 -0.6711 -0.2440 -0.0020
23085SOL    HW179185   4.102   0.485   0.851 -1.9762  2.9368  0.1589
23085SOL    HW279186   3.962   0.437   0.818 -0.6055 -1.4099  0.0912
23086SOL     OW79187   8.399  10.251   8.090  0.0707  0.5160 -0.2363
23086SOL    HW179188   8.468  10.309   8.123  2.7659 -1.0478 -2.6310
23086SOL    HW279189   8.410  10.171   8.141 -0.6471  0.5596 -0.0029
23087SOL     OW79190  10.928  10.136   9.522  0.0368  0.0697 -0.3698
23087SOL    HW179191  10.972  10.091   9.594 -0.5831 -0.8243 -0.5291
23087SOL    HW279192  10.999  10.175   9.471  0.4661  0.9473  0.8628
23088SOL     OW79193   1.995   0.230   0.178  0.5444  0.0515  0.1909
23088SOL    HW179194   1.917   0.175   0.177  0.1806  0.5564 -0.9408
23088SOL    HW279195   2.067   0.168   0.165  0.3024 -0.3563  0.7215
23089SOL     OW79196   4.218  10.637   7.447 -0.1075  0.2995 -0.4268
23089SOL    HW179197   4.217  10.626   7.542  0.9106 -1.0700 -0.5351
23089SOL    HW279198   4.200  10.549   7.413  2.3366  0.1334 -1.4754
23090SOL     OW79199  11.213  11.814   4.329 -0.0645  0.0885  0.2439
23090SOL    HW179200  11.231  11.849   4.242  0.6462 -1.6048 -0.3309
23090SOL    HW279201  11.296  11.824   4.376  0.4037 -1.4843 -0.1899
23091SOL     OW79202   9.736   9.795  10.886  0.1355  0.4655  0.3442
23091SOL    HW179203   9.820   9.751  10.877  0.1600  0.5345  0.2247
23091SOL    HW279204   9.673   9.736  10.844  0.0843  0.2951  0.6623
23092SOL     OW79205  10.065  12.870   1.713 -0.1610 -0.5518 -0.0192
23092SOL    HW179206  10.121  12.806   1.757 -0.5195 -1.4525 -0.8340
23092SOL    HW279207   9.988  12.820   1.686 -0.6457  0.3253 -0.2881
23093SOL     OW79208   7.310   0.717   2.596 -0.0978 -0.7090 -0.3644
23093SOL    HW179209   7.235   0.672   2.557  0.5188 -1.3185 -0.8769
23093SOL    HW279210   7.288   0.724   2.689 -1.0002 -0.4398 -0.5909
23094SOL     OW79211   1.164   5.069   6.896  0.6479 -0.4894 -0.8599
23094SOL    HW179212   1.189   5.061   6.803  0.8714 -0.1534 -0.8301
23094SOL    HW279213   1.074   5.100   6.894 -0.1261 -2.5383 -0.9800
23095SOL     OW79214   8.545   0.201  11.191  0.1094  0.0558 -0.4344
23095SOL    HW179215   8.521   0.124  11.140  1.4219  0.4133 -1.6675
23095SOL    HW279216   8.569   0.167  11.277 -2.5246 -0.5199  0.1470
23096SOL     OW79217   0.138   7.789   5.166 -0.3019 -0.4340 -0.0115
23096SOL    HW179218   0.168   7.729   5.234 -2.0902 -0.2685  0.9932
23096SOL    HW279219   0.078   7.737   5.112 -0.9671  0.1239  0.1729
23097SOL     OW79220   3.766   6.677   2.028  0.2044  0.9896 -0.1868
23097SOL    HW179221   3.749   6.744   1.961  0.1183  1.0946 -0.0593
23097SOL    HW279222   3.798   6.726   2.104  2.4044  0.7016 -0.8506
23098SOL     OW79223   0.456   4.590   7.702  0.8449  0.1136  0.1968
23098SOL    HW179224   0.375   4.541   7.714  1.1661 -0.6548 -0.6818
23098SOL    HW279225   0.444   4.635   7.618  0.9307  0.7943  0.5464
23099SOL     OW79226   1.726   6.965   9.305  0.0633 -0.4181 -0.0158
23099SOL    HW179227   1.787   7.022   9.259 -1.6005  2.0668  0.6299
23099SOL    HW279228   1.654   6.953   9.243 -0.5540  0.0029  0.5897
23100SOL     OW79229   8.153  13.123  11.520  0.1403  0.4750 -0.1456
23100SOL    HW179230   8.223  13.151  11.461  1.2999 -0.6965  0.6132
23100SOL    HW279231   8.183  13.039  11.554 -1.3417  0.2670  0.7319
23101SOL     OW79232   9.556   0.788   3.475  0.3162  0.4302  0.5680
23101SOL    HW179233   9.554   0.843   3.554 -0.4253 -0.1674  0.9806
23101SOL    HW279234   9.584   0.702   3.507 -2.9706 -0.6819  0.7724
23102SOL     OW79235  10.648   5.495  10.984 -0.3573  0.4009 -0.6746
23102SOL    HW179236  10.629   5.578  11.029 -1.2485  0.6215 -1.4178
23102SOL    HW279237  10.575   5.438  11.006  0.8862 -0.6685  0.8876
23103SOL     OW79238   4.116   7.123   0.545 -0.1073 -0.8252  0.0579
23103SOL    HW179239   4.164   7.199   0.577  1.6460 -2.0884  0.6198
23103SOL    HW279240   4.109   7.138   0.451  1.3044 -0.5167 -0.0232
23104SOL     OW79241   7.990   3.480   7.801  0.3228  0.0782  0.3358
23104SOL    HW179242   8.079   3.477   7.767  0.1910 -0.5233  0.0347
23104SOL    HW279243   7.934   3.471   7.724 -0.0047  0.4463  0.5224
23105SOL     OW79244   8.688   0.219   9.589 -0.4843 -0.3133 -0.3376
23105SOL    HW179245   8.675   0.243   9.497 -0.5078 -1.1257 -0.5570
23105SOL    HW279246   8.639   0.137   9.599 -0.6318 -0.1325  0.4502
23106SOL     OW79247   4.100   7.949   9.172 -0.7250  0.0790  0.0386
23106SOL    HW179248   4.097   7.998   9.254  0.3807 -0.1391  0.2186
23106SOL    HW279249   4.192   7.925   9.162 -1.1003 -1.1871 -0.4974
23107SOL     OW79250   3.764   9.634   5.334 -0.0335 -0.2221 -0.2999
23107SOL    HW179251   3.849   9.614   5.374 -0.1050 -1.6062 -0.7811
23107SOL    HW279252   3.732   9.709   5.383  2.0659  1.2171 -0.9802
23108SOL     OW79253   2.409  10.736  12.506  0.0225  0.2644  0.5654
23108SOL    HW179254   2.348  10.711  12.575 -0.1949  1.1455  0.7090
23108SOL    HW279255   2.352  10.760  12.432  0.2588 -1.4157 -0.2195
23109SOL     OW79256  11.980   8.813   8.602  0.1677  0.0850 -0.3030
23109SOL    HW179257  11.962   8.852   8.517 -0.8652  1.1817  0.3821
23109SOL    HW279258  11.955   8.880   8.665  4.4092  0.8269  0.9030
23110SOL     OW79259  12.497   5.998   6.717  0.8140 -0.4636 -0.6863
23110SOL    HW179260  12.482   5.999   6.622  0.8166 -1.7831 -0.7239
23110SOL    HW279261  12.592   5.995   6.726  0.9361  1.7970 -0.5649
23111SOL     OW79262  10.465  11.477  10.466  0.4220 -0.5581  0.4705
23111SOL    HW179263  10.480  11.572  10.472  0.1874 -0.3350 -1.6244
23111SOL    HW279264  10.391  11.462  10.525  0.6793  0.4872  1.1080
23112SOL     OW79265   9.374   0.306   2.239  0.1291  0.1549 -0.2033
23112SOL    HW179266   9.427   0.386   2.248 -1.0756  0.8364  1.4602
23112SOL    HW279267   9.360   0.277   2.330 -1.1727 -0.7847 -0.6847
23113SOL     OW79268   3.028  12.097   9.852  0.6554  0.4691 -0.0891
23113SOL    HW179269   3.094  12.166   9.857  0.3186  0.7004  1.9422
23113SOL    HW279270   3.077  12.016   9.863  0.7861  0.5242 -0.2600
23114SOL     OW79271   3.481   5.195   8.872  0.3138  0.3292  0.5503
23114SOL    HW179272   3.529   5.114   8.892  0.2158  0.3833  1.0059
23114SOL    HW279273   3.402   5.165   8.827  0.1243  0.1466  0.9995
23115SOL     OW79274  12.627   0.429  12.906 -0.2147 -0.4118 -0.4515
23115SOL    HW179275  12.583   0.352  12.869  0.4429 -1.5112  0.9581
23115SOL    HW279276  12.721   0.409  12.899  0.0002 -1.4990  3.1890
23116SOL     OW79277  10.484   1.086   4.218 -0.1431  0.0710  0.9126
23116SOL    HW179278  10.547   1.129   4.277  1.3245  1.4192 -1.4850
23116SOL    HW279279  10.529   1.007   4.189 -0.6367 -0.2977  1.1340
23117SOL     OW79280   1.387   7.094  12.261  0.7515  0.2155 -0.4749
23117SOL    HW179281   1.354   7.183  12.272  1.0269  0.1082  1.7953
23117SOL    HW279282   1.482   7.105  12.251  0.5241  0.3087 -3.6301
23118SOL     OW79283   2.934   3.252  12.063 -0.2713  0.8673 -0.0141
23118SOL    HW179284   2.880   3.303  12.123 -0.3027  0.4548  0.3131
23118SOL    HW279285   3.008   3.223  12.115 -0.6395 -0.0561  0.0098
23119SOL     OW79286  12.409   0.121   7.499  0.0377 -0.0367 -0.2540
23119SOL    HW179287  12.348   0.105   7.427 -0.3348 -0.1353  0.0777
23119SOL    HW279288  12.454   0.037   7.511  0.5016  0.1377 -0.7356
23120SOL     OW79289   2.655   9.356   8.400  0.1993  0.4288  0.3337
23120SOL    HW179290   2.739   9.341   8.444 -0.1274 -0.4221  0.6953
23120SOL    HW279291   2.602   9.281   8.426 -0.2005  0.2117 -1.0676
23121SOL     OW79292   2.786   1.145   7.906 -0.0462 -0.0425  0.2313
23121SOL    HW179293   2.822   1.189   7.829  0.3815 -1.0769 -0.1742
23121SOL    HW279294   2.789   1.052   7.885 -1.6508 -0.2538  0.7599
23122SOL     OW79295  11.011   0.293   2.233 -0.2418  0.1977 -0.7544
23122SOL    HW179296  11.107   0.296   2.230 -0.1817 -1.2760 -1.5352
23122SOL    HW279297  10.985   0.381   2.259  1.4004  0.0753  1.7616
23123SOL     OW79298   9.215   7.572   1.936  0.2656  0.2290  0.4668
23123SOL    HW179299   9.265   7.543   1.860  0.3256  1.7269 -0.0922
23123SOL    HW279300   9.252   7.521   2.009  0.5851 -0.8200 -0.3877
23124SOL     OW79301   9.869  11.007   3.746  0.2803 -0.2207  0.2158
23124SOL    HW179302   9.851  11.034   3.837 -0.6783 -0.5036  0.1213
23124SOL    HW279303   9.959  11.035   3.730  1.2137 -1.9894  1.9360
23125SOL     OW79304   4.291   6.880  13.146  0.2349  0.2019  0.6753
23125SOL    HW179305   4.357   6.915  13.206  1.0487 -0.7600  0.3732
23125SOL    HW279306   4.208   6.892  13.192  0.6177  1.3628  1.0936
23126SOL     OW79307   0.869   2.152   0.698  0.5281  0.1633 -0.1192
23126SOL    HW179308   0.859   2.061   0.670  1.0671  0.1971 -0.4417
23126SOL    HW279309   0.813   2.202   0.639  2.1457  0.3046 -1.6297
23127SOL     OW79310   4.093   5.654   8.866  0.5795  0.0319 -0.2812
23127SOL    HW179311   4.083   5.742   8.903  0.2044 -0.2403  0.2882
23127SOL    HW279312   4.175   5.622   8.904  1.0679  0.3841 -1.0198
23128SOL     OW79313   0.513   7.633   1.708 -0.1853 -0.0085  0.2348
23128SOL    HW179314   0.505   7.623   1.803 -1.7022  2.4419  0.4494
23128SOL    HW279315   0.602   7.602   1.688  0.1723 -0.5697  2.4324
23129SOL     OW79316   2.993  11.195   7.966  0.4374 -0.4443 -0.0161
23129SOL    HW179317   3.020  11.201   8.058  0.4426  0.3333 -0.0581
23129SOL    HW279318   3.041  11.120   7.932  0.6116 -0.6026  0.5584
23130SOL     OW79319   3.295   3.997  11.515  0.1237  0.1114 -0.0293
23130SOL    HW179320   3.340   3.979  11.597 -0.6712  1.3347  0.7098
23130SOL    HW279321   3.293   3.913  11.470 -0.5828 -0.9019  1.7963
23131SOL     OW79322   5.596  13.130   8.339 -0.2125 -0.6156  0.3572
23131SOL    HW179323   5.545  13.050   8.330 -1.4415 -0.1185  2.3580
23131SOL    HW279324   5.534  13.195   8.373  1.1703  0.7196  0.4711
23132SOL     OW79325   7.382   9.245   8.875 -0.1088 -0.2311 -0.4466
23132SOL    HW179326   7.453   9.302   8.906  0.5046 -0.7700 -0.8390
23132SOL    HW279327   7.306   9.303   8.868  0.6531  0.6790 -1.4209
23133SOL     OW79328  12.229   7.998   8.066  0.1640 -0.2702 -0.2313
23133SOL    HW179329  12.160   7.982   8.130 -0.2317  1.6185 -0.1275
23133SOL    HW279330  12.254   8.089   8.081  0.0127  0.2618 -2.7955
23134SOL     OW79331   3.152   8.324   5.180 -0.6074 -0.4305  0.3441
23134SOL    HW179332   3.211   8.261   5.138  0.1176  1.3860 -1.5147
23134SOL    HW279333   3.066   8.304   5.141 -0.1945  0.3224 -1.0353
23135SOL     OW79334   4.082   8.330   5.168 -0.4383  0.1209  0.0036
23135SOL    HW179335   4.093   8.349   5.261 -1.3917 -0.7809  0.3247
23135SOL    HW279336   4.076   8.417   5.127 -0.4977  0.5309  0.8485
23136SOL     OW79337  12.729  12.928   1.414  0.0847  0.4289 -0.6376
23136SOL    HW179338  12.804  12.924   1.355 -1.0004 -0.8374 -2.0095
23136SOL    HW279339  12.702  12.837   1.426 -2.4551  0.9220 -1.8800
23137SOL     OW79340   5.991   3.385   4.121  0.5665 -0.0790 -0.2267
23137SOL    HW179341   6.015   3.476   4.143  0.9997  0.2225 -1.8630
23137SOL    HW279342   5.920   3.393   4.058  1.6515 -0.8268 -1.5924
23138SOL     OW79343  11.828  10.303   8.294  0.3795 -0.2279  0.3012
23138SOL    HW179344  11.783  10.236   8.243 -0.4016 -0.7148  1.5895
23138SOL    HW279345  11.890  10.255   8.349  0.9242  0.2511  0.1184
23139SOL     OW79346  11.730   7.689   1.980  0.0982 -0.0412  0.4386
23139SOL    HW179347  11.751   7.610   2.030 -0.6338 -0.2748  0.3851
23139SOL    HW279348  11.792   7.687   1.907 -0.4442 -1.0070 -0.0171
23140SOL     OW79349  11.949   5.076  10.481 -0.1430  0.2935  0.5974
23140SOL    HW179350  11.889   5.014  10.441  1.1254 -1.1249  0.7940
23140SOL    HW279351  11.970   5.138  10.410 -1.5270  0.6082  0.4401
23141SOL     OW79352   5.191   0.022   3.037 -0.8443  0.0692  0.1883
23141SOL    HW179353   5.162  -0.000   2.948  4.1490 -0.6713 -1.5715
23141SOL    HW279354   5.207   0.117   3.033  0.2495 -0.1126 -0.0761
23142SOL     OW79355   8.896  12.657   2.013  0.0401 -0.0070 -0.1537
23142SOL    HW179356   8.852  12.590   2.065  0.6393  0.0524  0.4306
23142SOL    HW279357   8.979  12.673   2.057  0.3873  0.3351 -0.8998
23143SOL     OW79358  10.973   6.476   0.459 -0.4303  0.0920  0.6708
23143SOL    HW179359  11.058   6.450   0.423  0.0534  0.8484  1.2389
23143SOL    HW279360  10.977   6.452   0.551 -0.7590  0.3065  0.7444
23144SOL     OW79361   9.075   0.114   6.717 -0.4434 -0.4130 -0.0416
23144SOL    HW179362   8.991   0.149   6.687  0.6662  0.9703 -1.7183
23144SOL    HW279363   9.108   0.181   6.778 -0.5303 -0.9527  0.6111
23145SOL     OW79364   0.923  13.147   9.135  0.1790 -0.0032  0.4740
23145SOL    HW179365   0.908  13.063   9.178  0.5716 -1.1938 -1.5853
23145SOL    HW279366   1.018  13.155   9.130  0.1389 -0.0160 -0.3983
23146SOL     OW79367   1.065   4.902   0.393  0.1269 -0.4903 -0.2022
23146SOL    HW179368   1.094   4.992   0.377 -0.8845 -0.0478  0.3636
23146SOL    HW279369   1.074   4.891   0.487  0.3101 -1.0189 -0.2784
23147SOL     OW79370  11.909  11.907   0.059 -0.1449 -0.1074 -0.9156
23147SOL    HW179371  11.911  12.000   0.078  1.8871 -0.8191  3.8513
23147SOL    HW279372  11.829  11.875   0.101  0.5139 -0.7962 -0.1414
23148SOL     OW79373  12.939   6.800   7.730  0.3917 -0.5892  0.0967
23148SOL    HW179374  12.882   6.871   7.759  0.1582 -0.5731 -0.3832
23148SOL    HW279375  12.893   6.720   7.756 -0.7461 -0.6296 -1.8105
23149SOL     OW79376  11.421   8.600   0.479  0.6368 -0.4626 -0.2969
23149SOL    HW179377  11.342   8.648   0.503 -0.3369 -2.4830  0.8308
23149SOL    HW279378  11.488   8.630   0.541  0.5148  0.5523 -0.6390
23150SOL     OW79379   6.093   6.240   2.197  0.3313 -0.0553  0.2531
23150SOL    HW179380   6.075   6.309   2.261 -1.7105 -1.5120  1.3535
23150SOL    HW279381   6.143   6.174   2.245  0.5234 -0.2686 -0.2269
23151SOL     OW79382   3.078   2.968   1.933  0.6693  0.1895 -0.2307
23151SOL    HW179383   2.986   2.939   1.936  0.5987  0.0675 -2.4354
23151SOL    HW279384   3.127   2.892   1.964  0.0088  0.9164  3.0259
23152SOL     OW79385   7.639  13.178   0.439  0.7722 -0.1648 -0.1282
23152SOL    HW179386   7.559  13.154   0.393  1.4382 -0.6109 -1.0920
23152SOL    HW279387   7.624  13.269   0.466  0.0575 -0.1470 -0.5510
23153SOL     OW79388   2.014  10.485   3.368 -0.5162  0.8880  0.3418
23153SOL    HW179389   1.962  10.519   3.440 -0.6003  1.7345 -0.1178
23153SOL    HW279390   1.952  10.470   3.297 -0.3981  0.2783  0.3586
23154SOL     OW79391   1.319  11.933   3.703 -0.0335 -0.6212 -0.0503
23154SOL    HW179392   1.264  12.000   3.664  0.9541 -0.9227 -2.1057
23154SOL    HW279393   1.259  11.880   3.755 -1.8553 -1.2105 -2.5256
23155SOL     OW79394   2.102  12.494   1.454 -0.6997 -0.3264 -0.2951
23155SOL    HW179395   2.193  12.480   1.429 -0.0990  1.2827  0.8653
23155SOL    HW279396   2.099  12.475   1.547 -0.5786  3.3945  0.6065
23156SOL     OW79397  10.712   3.871   7.919  0.7924 -0.5983 -0.6393
23156SOL    HW179398  10.768   3.947   7.901  0.2249 -0.1093 -0.3500
23156SOL    HW279399  10.774   3.799   7.932  1.3488 -0.1293 -0.6363
23157SOL     OW79400  12.954  11.243   4.227 -0.2626  0.0748  0.2520
23157SOL    HW179401  12.974  11.245   4.320 -1.3831 -0.2711  0.5102
23157SOL    HW279402  12.944  11.335   4.202  1.8128  0.2940  0.0486
23158SOL     OW79403  10.522  11.311   1.596  0.2247  0.4144 -0.3467
23158SOL    HW179404  10.490  11.395   1.628 -0.7715 -0.4335  0.9728
23158SOL    HW279405  10.457  11.284   1.531  0.5821  0.6666 -0.8228
23159SOL     OW79406  11.547   1.654  10.443  0.4345  0.1122 -0.3276
23159SOL    HW179407  11.517   1.655  10.534 -0.1590 -1.0887 -0.4965
23159SOL    HW279408  11.474   1.616  10.394  1.6537 -1.5734 -0.9463
23160SOL     OW79409  11.044   3.872   8.145 -0.3217  0.0566 -0.4893
23160SOL    HW179410  10.969   3.926   8.170  1.1106  1.5378  0.7284
23160SOL    HW279411  11.090   3.854   8.226  0.4359 -1.2327 -1.1598
23161SOL     OW79412   5.413   2.636  11.219 -0.2644 -0.2523 -0.8888
23161SOL    HW179413   5.459   2.690  11.155 -1.2441  1.2080 -0.4205
23161SOL    HW279414   5.476   2.567  11.242  0.1066 -0.8846 -3.4197
23162SOL     OW79415   7.485   7.709  12.524 -0.2373 -0.2875  0.3611
23162SOL    HW179416   7.500   7.761  12.603  1.5614  0.2725 -0.2764
23162SOL    HW279417   7.467   7.774  12.456 -0.5487 -0.6726  0.0717
23163SOL     OW79418  12.847   7.841   9.802 -0.2002  0.1701  0.5107
23163SOL    HW179419  12.841   7.927   9.844  0.1676  0.8834 -0.8545
23163SOL    HW279420  12.940   7.819   9.807  0.0498  0.7756 -0.8541
23164SOL     OW79421  13.116   9.076   5.214  0.2458  0.5217 -0.3859
23164SOL    HW179422  13.054   9.137   5.255  0.1267  1.8428 -2.4099
23164SOL    HW279423  13.065   8.995   5.203  0.9396 -0.7872  4.0162
23165SOL     OW79424  13.233  10.191   3.149  0.0294  0.3899 -0.0759
23165SOL    HW179425  13.284  10.249   3.206  0.5837  0.4487 -0.6157
23165SOL    HW279426  13.179  10.139   3.208  2.1986 -1.1286  0.7254
23166SOL     OW79427   1.830   5.620   9.740 -0.2909 -0.1759 -0.8002
23166SOL    HW179428   1.904   5.560   9.753 -0.8650 -0.6617  0.3255
23166SOL    HW279429   1.836   5.682   9.812 -1.7515 -1.0497  0.1198
23167SOL     OW79430  10.754  11.909   2.471 -0.3222 -0.2733  0.1259
23167SOL    HW179431  10.846  11.915   2.448 -0.0769 -0.7771  0.9302
23167SOL    HW279432  10.707  11.931   2.391  0.4896  1.2382  0.0477
23168SOL     OW79433   8.159   1.922  11.168  0.0784 -0.1902  0.6159
23168SOL    HW179434   8.189   2.012  11.183 -1.9198  0.5088  0.7645
23168SOL    HW279435   8.166   1.880  11.254 -1.3081  0.6110  1.1608
23169SOL     OW79436   5.617   1.232   7.694 -0.1548  0.2536 -0.4893
23169SOL    HW179437   5.669   1.201   7.769 -0.4172 -0.2811 -0.5201
23169SOL    HW279438   5.661   1.311   7.665  0.1129  0.3095  0.0591
23170SOL     OW79439   4.022   5.523   4.076  0.4538  0.0049 -0.4234
23170SOL    HW179440   3.941   5.473   4.063  0.5086  0.1765 -1.4691
23170SOL    HW279441   4.012   5.561   4.164  0.1538 -1.3373  0.1524
23171SOL     OW79442   3.593   8.638   7.890  0.0688 -0.0358  0.0667
23171SOL    HW179443   3.516   8.666   7.841  0.6856  1.3886 -0.1408
23171SOL    HW279444   3.562   8.628   7.980 -0.2840  0.9747  0.0751
23172SOL     OW79445   3.893  11.493   3.726  0.7368  0.1801 -0.1468
23172SOL    HW179446   3.852  11.508   3.811 -0.6696  1.8917 -1.0549
23172SOL    HW279447   3.823  11.459   3.671  1.2281  0.5060 -0.9976
23173SOL     OW79448   9.774   2.348  11.541  0.0081 -0.6552 -0.3082
23173SOL    HW179449   9.719   2.274  11.568  1.4647 -2.0714 -1.0743
23173SOL    HW279450   9.788   2.334  11.447  0.7391  0.3155 -0.3534
23174SOL     OW79451  12.792   1.620   6.730 -0.6688 -0.2764 -0.2558
23174SOL    HW179452  12.725   1.581   6.673  0.4143 -2.4334 -0.1777
23174SOL    HW279453  12.837   1.683   6.674 -1.5121 -0.2007 -0.8734
23175SOL     OW79454   0.955  13.128   4.353 -0.0190  0.6688  0.0551
23175SOL    HW179455   1.008  13.067   4.302  0.2870  0.2957  0.8087
23175SOL    HW279456   0.958  13.210   4.303  1.6656  0.8020  0.3260
23176SOL     OW79457  12.486   1.445   8.064  0.1868 -0.5131  0.2733
23176SOL    HW179458  12.553   1.405   8.120 -0.8767 -1.7201  0.7495
23176SOL    HW279459  12.482   1.388   7.987  1.8315  1.2869 -1.2404
23177SOL     OW79460   0.044   9.682  10.989 -0.1673 -0.3846  0.0271
23177SOL    HW179461   0.073   9.675  10.898 -0.0040 -0.1201  0.0597
23177SOL    HW279462   0.114   9.732  11.032 -0.6549  0.2250  0.1154
23178SOL     OW79463   5.121  12.315   6.474  0.1682  0.5873 -0.8176
23178SOL    HW179464   5.098  12.395   6.520  0.7223  0.8499 -0.9975
23178SOL    HW279465   5.043  12.259   6.483  0.0874  0.8231  0.0090
23179SOL     OW79466   7.326  12.087  12.856 -0.3228  0.0941  0.2001
23179SOL    HW179467   7.359  12.005  12.818 -0.7391  0.4738 -1.0115
23179SOL    HW279468   7.387  12.154  12.827  0.0387  0.2245  1.2275
23180SOL     OW79469  10.551   8.521   5.736 -0.1828  0.5506  0.3245
23180SOL    HW179470  10.641   8.500   5.761 -0.8190 -0.4262  1.9620
23180SOL    HW279471  10.529   8.457   5.669  0.5720  1.2978 -0.6749
23181SOL     OW79472   8.091   2.156  10.973  1.0212 -0.4259  0.3117
23181SOL    HW179473   8.006   2.178  11.009  1.1332  0.3923  0.0890
23181SOL    HW279474   8.088   2.061  10.960  0.1477 -0.4026  0.3090
23182SOL     OW79475   7.603   8.910   7.493 -0.1593  0.3590  0.3182
23182SOL    HW179476   7.544   8.921   7.568  1.9574  2.0605  1.8698
23182SOL    HW279477   7.560   8.955   7.421 -1.8621 -0.5705  0.7049
23183SOL     OW79478   2.330   8.063   1.341  0.2697 -0.0325 -0.0589
23183SOL    HW179479   2.368   8.151   1.336  1.8823 -0.6227  0.9337
23183SOL    HW279480   2.273   8.066   1.417  0.5505  0.0724  0.1487
23184SOL     OW79481  11.320  13.266  11.522 -0.2625 -0.1378  0.0296
23184SOL    HW179482  11.381  13.302  11.457 -0.1715  2.0278  1.2229
23184SOL    HW279483  11.240  13.249  11.473  0.7560 -1.5143 -1.2435
23185SOL     OW79484  10.870   4.307  11.286  0.5854 -0.3735  0.0101
23185SOL    HW179485  10.818   4.227  11.289  1.0539 -0.6560  1.2596
23185SOL    HW279486  10.906   4.316  11.375 -1.1735  2.3651  0.5785
23186SOL     OW79487   0.030  10.068   9.957 -0.3665 -0.5903 -0.5151
23186SOL    HW179488   0.078  10.133   9.905 -0.6816  0.5932  0.6279
23186SOL    HW279489   0.076  10.067  10.042 -0.9595 -1.1513 -0.1931
23187SOL     OW79490   2.958  10.057  11.002  0.4790 -0.4711  0.0650
23187SOL    HW179491   2.930  10.145  10.977  0.1791 -0.5548  0.1105
23187SOL    HW279492   2.927  10.046  11.091 -0.6201 -1.1008 -0.3691
23188SOL     OW79493  12.706   8.191   4.315 -0.2529 -0.0074  0.2828
23188SOL    HW179494  12.715   8.120   4.250  0.4998 -0.3411  0.7273
23188SOL    HW279495  12.795   8.223   4.327 -0.3246 -0.1576  1.3689
23189SOL     OW79496   5.477   5.138   2.759 -0.3529 -0.1793 -0.1086
23189SOL    HW179497   5.537   5.074   2.798  0.3596  0.4336 -0.1814
23189SOL    HW279498   5.492   5.131   2.665 -1.0314 -0.6342 -0.1913
23190SOL     OW79499   7.106   8.179  13.260  0.4685 -0.1304  0.1011
23190SOL    HW179500   7.091   8.255  13.203 -0.8434  0.3477  1.0417
23190SOL    HW279501   7.067   8.106  13.212 -0.2015  0.1850  0.1524
23191SOL     OW79502   9.135   8.083   3.096  0.1711 -0.3545  0.8873
23191SOL    HW179503   9.079   8.029   3.152  0.8739 -0.6139  1.3648
23191SOL    HW279504   9.191   8.129   3.158 -0.7344  1.3098  0.5158
23192SOL     OW79505   6.928   6.830   6.484  0.4346 -0.4500 -0.2994
23192SOL    HW179506   6.895   6.769   6.417 -0.3481 -1.7317  1.1947
23192SOL    HW279507   6.893   6.915   6.458 -1.7702 -1.2878 -0.3148
23193SOL     OW79508   4.222   6.020   5.282 -0.0226  0.0038  0.3670
23193SOL    HW179509   4.294   5.966   5.251  0.1318  1.5070 -2.1547
23193SOL    HW279510   4.260   6.074   5.351  0.5127 -1.0955  0.9650
23194SOL     OW79511  12.056   6.515   5.632  0.2853  0.4066  0.2352
23194SOL    HW179512  11.964   6.520   5.661  0.3995 -0.7911  0.8938
23194SOL    HW279513  12.107   6.531   5.712  0.6142 -1.8666  0.5427
23195SOL     OW79514  10.263   7.411   2.660  0.0584 -0.5160 -0.3217
23195SOL    HW179515  10.210   7.338   2.694 -0.1766  0.6176  1.9207
23195SOL    HW279516  10.198   7.476   2.631  0.2286 -0.2066 -0.0213
23196SOL     OW79517  10.397   6.750   0.908 -0.0494 -0.1796  0.3193
23196SOL    HW179518  10.490   6.763   0.893 -0.1241  0.0505  0.0624
23196SOL    HW279519  10.373   6.818   0.971  0.4239 -1.6036  2.1264
23197SOL     OW79520   0.087   8.829   3.152 -0.8218  0.1252  0.2485
23197SOL    HW179521   0.023   8.758   3.147 -0.3418 -0.2162 -1.8377
23197SOL    HW279522   0.039   8.901   3.194 -1.4998 -1.1817  1.8413
23198SOL     OW79523   6.565   8.002   9.556  0.2497  0.0440  0.3909
23198SOL    HW179524   6.635   8.050   9.600  0.3612 -0.6337  0.9749
23198SOL    HW279525   6.545   8.054   9.479  0.9684  0.5688  0.5486
23199SOL     OW79526   1.845   0.264  10.914  0.2878 -0.1409 -0.1251
23199SOL    HW179527   1.837   0.169  10.912  0.6296 -0.1585 -1.2173
23199SOL    HW279528   1.833   0.291  10.823 -2.4678  1.1047  0.4986
23200SOL     OW79529   9.330   8.607   2.219  0.2378  0.1458  0.5634
23200SOL    HW179530   9.419   8.609   2.255 -0.2571  0.6096  1.8398
23200SOL    HW279531   9.309   8.699   2.205  0.1698  0.0007 -0.3132
23201SOL     OW79532   4.874   1.326   0.503  0.2451 -0.5770 -0.6734
23201SOL    HW179533   4.782   1.316   0.476  0.1902 -2.0490 -0.0853
23201SOL    HW279534   4.919   1.354   0.424 -0.8586  1.1537 -0.7349
23202SOL     OW79535   5.530  13.246   4.318  0.1572 -0.0366  0.0374
23202SOL    HW179536   5.552  13.163   4.274 -1.1197 -0.0602 -0.6331
23202SOL    HW279537   5.614  13.290   4.330  0.7684 -1.0237 -0.4457
23203SOL     OW79538   4.599   6.355   0.440  0.5244 -0.3195  0.1622
23203SOL    HW179539   4.517   6.308   0.424 -0.1220  0.5980  0.6963
23203SOL    HW279540   4.665   6.307   0.389 -0.2230 -1.4384  0.2217
23204SOL     OW79541   1.338   1.342   3.464 -0.3692 -0.4891  0.3881
23204SOL    HW179542   1.390   1.299   3.396  1.8537  1.9465  0.3994
23204SOL    HW279543   1.359   1.292   3.544  2.4045  0.6071  0.4656
23205SOL     OW79544   1.263  11.474   3.473  0.3683  0.3439 -0.3363
23205SOL    HW179545   1.325  11.543   3.450  1.6306 -0.7628 -0.3446
23205SOL    HW279546   1.311  11.392   3.461 -0.9284 -0.5341  0.1659
23206SOL     OW79547   1.048   2.264   6.730 -0.1787  0.3829  0.3268
23206SOL    HW179548   1.135   2.302   6.739 -0.1782  0.1480  1.4834
23206SOL    HW279549   0.989   2.340   6.722 -0.0975  0.6221  1.8397
23207SOL     OW79550  13.195   7.561   5.881 -0.1218 -0.0470  0.6783
23207SOL    HW179551  13.121   7.530   5.828  0.1419  1.0308 -0.3698
23207SOL    HW279552  13.259   7.490   5.875 -0.3723 -0.2375  0.1214
23208SOL     OW79553  11.876   1.044   3.712  0.0996  0.2970 -0.0125
23208SOL    HW179554  11.863   0.952   3.731  1.0449  0.2231  0.3278
23208SOL    HW279555  11.846   1.054   3.621  2.4216 -0.9341 -0.9990
23209SOL     OW79556   5.339   0.164   6.854  0.0528 -0.4344  0.5085
23209SOL    HW179557   5.291   0.107   6.915  0.4471  1.4343  2.7324
23209SOL    HW279558   5.301   0.251   6.868  3.1317  0.8958  1.4330
23210SOL     OW79559   2.431   9.677  13.038 -0.2009  0.0625 -0.0779
23210SOL    HW179560   2.420   9.665  12.944  0.2475 -0.1712 -0.1030
23210SOL    HW279561   2.433   9.772  13.050  1.3899  0.1211 -0.5169
23211SOL     OW79562   7.803  11.951   5.550  0.1752  0.0552  1.0121
23211SOL    HW179563   7.734  11.945   5.484 -0.2328  0.4561  1.3945
23211SOL    HW279564   7.885  11.940   5.501 -0.1502 -0.2718  0.5346
23212SOL     OW79565   0.234   8.958   2.539 -0.2409  0.4726 -0.0351
23212SOL    HW179566   0.269   9.041   2.507  0.2270 -0.6575 -2.7550
23212SOL    HW279567   0.141   8.961   2.516 -0.6446  0.9350  1.5326
23213SOL     OW79568   5.649   7.054   1.420 -0.2729 -0.4013  0.1650
23213SOL    HW179569   5.573   6.997   1.407  1.3614 -2.2609 -2.0195
23213SOL    HW279570   5.725   6.996   1.410  1.4876  1.6753  0.6516
23214SOL     OW79571  12.214   9.365  12.133 -0.3751 -0.0929  0.3005
23214SOL    HW179572  12.138   9.416  12.160 -0.1280  0.0997  0.6395
23214SOL    HW279573  12.182   9.309  12.062 -1.1570 -0.9343  1.2845
23215SOL     OW79574   1.097   7.463   7.934  0.5913 -0.0665  0.4895
23215SOL    HW179575   1.150   7.390   7.900 -0.8583 -1.9284  1.9787
23215SOL    HW279576   1.146   7.495   8.010 -0.0251 -1.3767  1.4908
23216SOL     OW79577   9.356   9.593  12.024 -0.0122  0.0980 -0.3937
23216SOL    HW179578   9.340   9.576  11.931  1.6082 -0.0298 -0.6799
23216SOL    HW279579   9.333   9.510  12.067  2.0018 -0.9038 -1.0748
23217SOL     OW79580  11.858   3.837   0.430  0.0466  0.3184 -0.3544
23217SOL    HW179581  11.827   3.862   0.343 -0.0864 -0.3030 -0.4904
23217SOL    HW279582  11.780   3.805   0.475  0.4361 -1.2276 -0.6910
23218SOL     OW79583   4.589  11.172   0.929 -0.1753 -0.2006 -0.5803
23218SOL    HW179584   4.512  11.115   0.920  0.1010 -0.3465 -2.4494
23218SOL    HW279585   4.659  11.125   0.885  0.8513  0.2228  0.5540
23219SOL     OW79586  12.776  12.678   2.659 -0.2614  0.0466  0.0507
23219SOL    HW179587  12.871  12.681   2.663 -0.1798 -2.0614  2.1947
23219SOL    HW279588  12.747  12.737   2.729 -0.4968 -0.0129  0.0060
23220SOL     OW79589   4.043  10.021   1.645  0.1102 -0.0748 -0.2893
23220SOL    HW179590   4.032  10.009   1.739 -3.2035 -1.5452 -0.7205
23220SOL    HW279591   3.987  10.097   1.624  0.6193  0.0867 -1.1130
23221SOL     OW79592   7.541  12.065   1.286 -0.1141  0.0113  0.0884
23221SOL    HW179593   7.522  12.031   1.373 -1.0632 -0.4974 -0.3087
23221SOL    HW279594   7.634  12.047   1.273  0.2228  0.7548  1.2745
23222SOL     OW79595  10.946   3.831   1.330 -0.4861 -0.6761 -0.1147
23222SOL    HW179596  11.027   3.816   1.379 -0.5632  0.7103  0.4821
23222SOL    HW279597  10.881   3.853   1.397 -0.7956  0.4259 -0.7568
23223SOL     OW79598  12.725   9.654  11.653  0.2688 -0.2062  0.1812
23223SOL    HW179599  12.707   9.561  11.650 -1.2797  0.0544  0.6812
23223SOL    HW279600  12.760   9.676  11.567  1.0505 -1.3004  0.1998
23224SOL     OW79601   6.679  10.970   0.417 -0.0181  0.2330  0.3497
23224SOL    HW179602   6.596  10.927   0.395 -1.0950  2.5269 -0.3892
23224SOL    HW279603   6.731  10.902   0.461 -1.6720 -1.7037 -0.5518
23225SOL     OW79604   0.129   2.381   2.743  0.5542 -0.8177  0.4591
23225SOL    HW179605   0.212   2.428   2.749  0.9109 -1.1541 -1.3433
23225SOL    HW279606   0.146   2.310   2.681 -1.4766 -0.0001 -1.1612
23226SOL     OW79607   2.007  13.260  12.879  0.3159 -0.3718 -0.0655
23226SOL    HW179608   2.097  13.278  12.906  0.5317 -0.6517 -0.5913
23226SOL    HW279609   1.968  13.347  12.865  0.4965 -0.2515  0.1857
23227SOL     OW79610   8.154   0.713   4.199 -0.1542 -0.4571  0.1800
23227SOL    HW179611   8.117   0.712   4.111 -2.0420 -0.0142  0.9209
23227SOL    HW279612   8.162   0.621   4.224 -0.4642 -0.5613 -0.1091
23228SOL     OW79613   6.810  11.084   6.057  0.5196  0.2999 -0.2621
23228SOL    HW179614   6.865  11.031   5.999  0.7618 -1.7116  1.6662
23228SOL    HW279615   6.722  11.079   6.020  1.1347  1.4528 -1.9805
23229SOL     OW79616  11.618   0.122   2.537 -0.0670 -0.0366 -0.3701
23229SOL    HW179617  11.614   0.218   2.545  0.9129 -0.0397  0.3136
23229SOL    HW279618  11.667   0.106   2.456  1.8626  0.0751  0.7247
23230SOL     OW79619  10.399   0.389   4.262  0.0015  0.1084  0.3408
23230SOL    HW179620  10.493   0.379   4.274 -0.0467  1.6345  2.5203
23230SOL    HW279621  10.379   0.477   4.293 -2.0529  0.1534 -0.8794
23231SOL     OW79622   7.559   4.475   8.937 -0.0249  0.3140 -0.3343
23231SOL    HW179623   7.599   4.389   8.948 -0.9868 -0.0655  0.2053
23231SOL    HW279624   7.633   4.536   8.941  0.9138 -0.5646 -2.4739
23232SOL     OW79625  11.293   5.264   4.215 -0.3635 -0.2411  0.3137
23232SOL    HW179626  11.338   5.183   4.190  1.0966  0.2973  1.1138
23232SOL    HW279627  11.323   5.328   4.150 -3.0643 -0.7109 -1.5790
23233SOL     OW79628   5.853  11.771  13.160 -0.2744 -0.1643 -0.2549
23233SOL    HW179629   5.911  11.722  13.101  0.2913  0.7891 -0.5119
23233SOL    HW279630   5.913  11.819  13.218 -0.7890  1.0516 -0.6993
23234SOL     OW79631   7.087   1.163   9.964 -0.2526 -0.2403 -0.8604
23234SOL    HW179632   7.170   1.181  10.008 -0.3603  0.3078 -0.8711
23234SOL    HW279633   7.092   1.211   9.882 -1.1931  1.0774 -0.1840
23235SOL     OW79634   2.740   5.483  11.062  0.6413 -0.5254 -0.1896
23235SOL    HW179635   2.809   5.464  11.000 -1.4375  0.8952 -3.1737
23235SOL    HW279636   2.780   5.541  11.126  1.8048  2.1147 -3.0902
23236SOL     OW79637  11.303  12.151   5.299  0.3011 -0.2686  0.2155
23236SOL    HW179638  11.312  12.172   5.206  1.9529 -1.5353  0.0336
23236SOL    HW279639  11.385  12.181   5.338 -0.8977  1.4615  1.5659
23237SOL     OW79640  12.577  12.642   4.738 -0.0985  1.3143  0.5529
23237SOL    HW179641  12.519  12.572   4.768  0.4752  2.3627  4.7597
23237SOL    HW279642  12.665  12.612   4.763  0.9291  1.2495 -2.6521
23238SOL     OW79643  11.977   1.892   2.719  0.1354  0.1313 -0.2391
23238SOL    HW179644  11.937   1.867   2.636 -0.4066  0.6003 -0.1219
23238SOL    HW279645  12.066   1.919   2.695  0.6451 -1.5534 -0.4094
23239SOL     OW79646   8.777  10.575   1.724  0.1876  0.6815 -0.1424
23239SOL    HW179647   8.742  10.508   1.665  0.6763 -0.6539  1.0177
23239SOL    HW279648   8.799  10.649   1.667  2.2945 -1.1774 -1.9063
23240SOL     OW79649  12.408   9.254   5.472 -0.0283 -0.0179 -0.0303
23240SOL    HW179650  12.434   9.308   5.398  1.5576 -0.8620 -0.1534
23240SOL    HW279651  12.382   9.171   5.433 -0.7462  0.0708  0.2576
23241SOL     OW79652  10.632   2.634   0.550 -0.4758 -0.5690 -0.2940
23241SOL    HW179653  10.672   2.720   0.536 -0.7802 -0.2901  0.4818
23241SOL    HW279654  10.654   2.612   0.641  1.7115 -2.4414 -1.1791
23242SOL     OW79655   2.196   6.282   6.281  0.3896  0.3146 -0.6781
23242SOL    HW179656   2.209   6.192   6.312 -0.5051  0.1780 -0.6676
23242SOL    HW279657   2.104   6.301   6.302 -0.2497  0.2477 -3.1317
23243SOL     OW79658   0.577   6.652   7.129  0.0520 -0.0491  0.4154
23243SOL    HW179659   0.616   6.738   7.111 -2.5315  0.8868 -1.1283
23243SOL    HW279660   0.487   6.671   7.155 -0.8647 -2.3350 -0.8311
23244SOL     OW79661   6.021  13.026  11.903 -0.2986 -0.6489  0.4548
23244SOL    HW179662   5.969  13.106  11.913 -0.8995 -0.5987 -2.1337
23244SOL    HW279663   6.030  12.991  11.991 -0.2997  2.0842  1.6367
23245SOL     OW79664  10.705   6.275  10.070  0.3341 -0.0192  0.5370
23245SOL    HW179665  10.782   6.294  10.016  0.9298  0.2114  1.4481
23245SOL    HW279666  10.667   6.361  10.088  1.1169  0.0659  1.8833
23246SOL     OW79667   1.717   7.777   4.319 -0.6190  0.0450  0.2384
23246SOL    HW179668   1.665   7.697   4.328 -2.1195  0.5226 -2.6581
23246SOL    HW279669   1.747   7.775   4.228 -0.7563  2.7665  0.0620
23247SOL     OW79670  11.448  11.145   4.766  0.1737 -0.0642 -0.1219
23247SOL    HW179671  11.389  11.220   4.780  1.2225  0.5197  1.3212
23247SOL    HW279672  11.512  11.151   4.836  1.5337 -1.1277 -1.2237
23248SOL     OW79673   4.121   5.158   6.974 -0.1636  0.0852  0.7134
23248SOL    HW179674   4.046   5.215   6.990  0.1743  0.9787 -0.7630
23248SOL    HW279675   4.197   5.210   6.998  0.1846  0.5201 -1.1831
23249SOL     OW79676   5.638   9.142  12.149  0.4363  0.1039  0.3238
23249SOL    HW179677   5.652   9.145  12.244 -0.8682 -1.0023  0.5725
23249SOL    HW279678   5.674   9.225  12.117  2.6244 -0.2858  1.5255
23250SOL     OW79679   0.395   1.013   9.895  0.2000  0.2391 -0.5865
23250SOL    HW179680   0.425   0.939   9.948 -3.5104 -0.7342  0.4206
23250SOL    HW279681   0.329   0.976   9.836 -1.9922  2.7110  0.1267
23251SOL     OW79682   8.564  12.931   4.398 -0.3187 -0.2420 -0.4022
23251SOL    HW179683   8.482  12.981   4.403 -0.7172 -0.7712 -1.4946
23251SOL    HW279684   8.625  12.990   4.353 -0.1276  0.0820  0.2523
23252SOL     OW79685   1.492   5.969   1.629  0.1150  0.0676 -0.5678
23252SOL    HW179686   1.404   5.944   1.654 -0.6125  2.2121 -0.7612
23252SOL    HW279687   1.534   5.994   1.711 -0.2906  1.3736 -0.7392
23253SOL     OW79688   2.479   2.234   7.095 -0.0612 -0.0016 -0.1880
23253SOL    HW179689   2.396   2.230   7.142  0.2708  1.1731  0.5517
23253SOL    HW279690   2.511   2.144   7.096 -0.2568 -0.0946  1.5244
23254SOL     OW79691  10.186   8.960   2.353  0.6232  0.3184 -0.3180
23254SOL    HW179692  10.223   8.905   2.422  0.8003  1.1113  0.2387
23254SOL    HW279693  10.229   8.930   2.273 -0.0960 -1.0815 -0.2145
23255SOL     OW79694   5.964   3.381   9.893  0.2674 -0.3500  0.1142
23255SOL    HW179695   5.881   3.429   9.890  0.6355  0.2841 -1.7654
23255SOL    HW279696   5.987   3.378   9.986  0.0403  2.8408  0.3893
23256SOL     OW79697   2.440   0.979   1.962 -0.3683  0.0238 -0.3673
23256SOL    HW179698   2.358   0.947   1.999  0.5144 -0.8730  0.8757
23256SOL    HW279699   2.413   1.043   1.896 -2.0951 -1.0571 -0.7718
23257SOL     OW79700   7.204   1.456   4.699  0.4049 -0.0412 -0.7121
23257SOL    HW179701   7.185   1.544   4.732 -0.6935 -0.8889  1.0698
23257SOL    HW279702   7.154   1.449   4.618 -0.4607  0.5663 -0.2413
23258SOL     OW79703   2.094   4.737   7.581 -0.5601  0.5131 -0.3955
23258SOL    HW179704   2.159   4.707   7.517 -1.3817 -0.9400 -0.5731
23258SOL    HW279705   2.060   4.657   7.620 -0.6916  1.3500  1.2717
23259SOL     OW79706  10.344   7.750   9.162  0.2873  0.3875 -0.2362
23259SOL    HW179707  10.398   7.797   9.225  1.6350 -0.7879 -0.4736
23259SOL    HW279708  10.329   7.664   9.201  0.0155  0.1037 -0.9381
23260SOL     OW79709   0.223   1.536   0.793  0.1863 -0.3705 -0.0012
23260SOL    HW179710   0.162   1.478   0.839 -0.0941 -0.2972 -0.2827
23260SOL    HW279711   0.186   1.546   0.705 -0.8835  1.8813  0.6316
23261SOL     OW79712  13.302   4.028  10.065 -0.3893 -0.6255 -0.5814
23261SOL    HW179713  13.325   4.116  10.097  1.5382 -1.6531  1.0736
23261SOL    HW279714  13.307   4.036   9.970  0.8321  0.8180 -0.4468
23262SOL     OW79715   0.891   9.159   7.727  0.3541 -0.1738  0.3818
23262SOL    HW179716   0.973   9.185   7.769  0.3454  1.3949 -0.5345
23262SOL    HW279717   0.918   9.123   7.642  0.4953 -4.5022  1.9610
23263SOL     OW79718   8.378  11.269  11.381 -0.2927 -0.1068 -0.1325
23263SOL    HW179719   8.341  11.348  11.342 -2.0621 -1.0562 -0.4775
23263SOL    HW279720   8.393  11.293  11.472 -0.0493  0.8609 -0.4092
23264SOL     OW79721  12.116   5.462   4.960  0.6204 -0.7281 -0.8832
23264SOL    HW179722  12.117   5.470   4.865 -0.2049 -0.3063 -0.8686
23264SOL    HW279723  12.023   5.466   4.983  0.8845  0.6548  0.0604
23265SOL     OW79724  12.633   9.091  13.102 -0.5484  0.8515  0.0565
23265SOL    HW179725  12.546   9.094  13.063 -0.2393  0.2485 -0.6858
23265SOL    HW279726  12.619   9.048  13.187 -0.8690  0.1115 -0.3611
23266SOL     OW79727   7.666   4.944  11.633  0.0703  0.4128  0.3306
23266SOL    HW179728   7.580   4.946  11.676  0.7248 -0.3478  1.7290
23266SOL    HW279729   7.689   5.036  11.621 -0.4668  0.6340  0.9300
23267SOL     OW79730   8.938   9.361   2.388 -0.1665 -0.2110  0.4233
23267SOL    HW179731   8.853   9.404   2.375 -0.1714  0.4151  2.2568
23267SOL    HW279732   8.921   9.295   2.455  0.7970 -0.0224  0.8605
23268SOL     OW79733   0.612   4.398   8.998  0.6319  1.1065 -0.3565
23268SOL    HW179734   0.706   4.409   9.009  0.6571  0.3584  0.2373
23268SOL    HW279735   0.602   4.315   8.952  0.2882  1.5855 -1.1685
23269SOL     OW79736   0.994   6.403   0.609  0.2730 -0.2497  0.0929
23269SOL    HW179737   0.923   6.357   0.564  0.1296 -0.5807  0.6447
23269SOL    HW279738   0.954   6.486   0.637  0.9987  1.0399 -2.4121
23270SOL     OW79739  10.404   6.240   4.661  0.1695  0.1421  0.4564
23270SOL    HW179740  10.325   6.198   4.696  0.4952 -0.2993  0.6606
23270SOL    HW279741  10.456   6.168   4.625  0.1879  0.5034 -0.2590
23271SOL     OW79742   2.782   5.630   3.806  0.4108 -0.1382 -0.0791
23271SOL    HW179743   2.864   5.628   3.854  0.7231  2.9242 -0.2673
23271SOL    HW279744   2.779   5.546   3.760  3.2695 -0.4888  0.1817
23272SOL     OW79745   0.724  11.793   0.633 -0.1698  0.2093 -0.3560
23272SOL    HW179746   0.695  11.718   0.685  0.1039  1.1882  1.3222
23272SOL    HW279747   0.697  11.869   0.686  0.3973  1.2584 -1.5349
23273SOL     OW79748   3.206   7.915   8.397  0.5005  0.0648 -0.2435
23273SOL    HW179749   3.241   7.985   8.343 -0.3145 -0.7698 -1.9110
23273SOL    HW279750   3.237   7.834   8.355 -0.3103 -0.6189  0.4238
23274SOL     OW79751   3.754  12.589  11.099  0.3958 -0.4155  0.1625
23274SOL    HW179752   3.729  12.652  11.031  0.7891  2.2317  2.2972
23274SOL    HW279753   3.683  12.525  11.099  0.3020 -0.4207 -2.5822
23275SOL     OW79754   7.085  11.451   2.970  0.1960  0.1646  0.0570
23275SOL    HW179755   7.066  11.411   2.885  0.3824 -0.6869  0.3983
23275SOL    HW279756   7.033  11.531   2.972  0.0094  0.0707 -0.7618
23276SOL     OW79757   0.222  13.204   0.080  0.1046 -0.4487 -0.2809
23276SOL    HW179758   0.215  13.299   0.085 -0.5020 -0.4373 -1.2076
23276SOL    HW279759   0.269  13.180   0.160 -2.1068  0.3546  1.3568
23277SOL     OW79760   2.957   3.367  10.086  0.8271  0.0827  0.0341
23277SOL    HW179761   2.916   3.453  10.092  0.2291 -0.0669 -1.3495
23277SOL    HW279762   2.991   3.349  10.174 -2.1216  0.1896  1.3090
23278SOL     OW79763  11.044   1.473   8.998 -0.5312 -0.1589 -0.5562
23278SOL    HW179764  11.073   1.451   8.910 -0.3053 -2.2915 -0.0178
23278SOL    HW279765  10.954   1.504   8.986 -1.8605 -3.8283 -1.3144
23279SOL     OW79766   7.198  12.874  12.263  0.0782  0.4756 -0.3373
23279SOL    HW179767   7.147  12.802  12.301 -0.2173  0.6220 -0.4536
23279SOL    HW279768   7.289  12.847  12.275 -0.0383 -0.2684 -1.0487
23280SOL     OW79769   0.972   5.416  10.462 -0.0013 -0.0410 -1.3321
23280SOL    HW179770   0.902   5.352  10.470  1.0945 -1.2038 -0.7175
23280SOL    HW279771   0.961   5.474  10.537  1.0723 -1.6685  0.1634
23281SOL     OW79772   8.460  11.702   8.305 -0.2107 -0.0261 -0.1219
23281SOL    HW179773   8.488  11.682   8.216 -0.3650 -0.7671 -0.0079
23281SOL    HW279774   8.370  11.669   8.310 -0.3297  0.3309  0.2031
23282SOL     OW79775   4.081   5.462  10.783 -0.4826  0.3770  0.3851
23282SOL    HW179776   4.048   5.487  10.870 -1.2621 -1.5260  0.6872
23282SOL    HW279777   4.063   5.368  10.777 -1.3754  0.6588 -2.2611
23283SOL     OW79778   3.721  10.069   1.364 -0.4116  0.2767  0.1767
23283SOL    HW179779   3.707  10.091   1.272 -0.3732  1.3586  0.4133
23283SOL    HW279780   3.661   9.996   1.380 -0.8564  0.4639 -0.5593
23284SOL     OW79781   2.210   6.926   1.451  0.4460 -0.0801 -0.4180
23284SOL    HW179782   2.305   6.932   1.439  0.1766  0.5409 -2.5817
23284SOL    HW279783   2.173   6.951   1.367 -1.6639 -0.3918  0.3505
23285SOL     OW79784   5.001   5.485   5.862  0.5274 -0.3186  0.6034
23285SOL    HW179785   5.030   5.537   5.787  1.6870 -0.6577  0.7967
23285SOL    HW279786   4.906   5.476   5.850  0.4328  1.1017  0.1157
23286SOL     OW79787   5.428  11.581   0.758 -0.3640 -0.1711  0.1500
23286SOL    HW179788   5.390  11.637   0.827  0.6022 -0.8136  1.2429
23286SOL    HW279789   5.405  11.492   0.785 -1.1490 -0.3777 -1.1186
23287SOL     OW79790   3.578   1.104   3.935 -0.5310 -0.0190  0.6764
23287SOL    HW179791   3.557   1.195   3.915  1.3551  0.7042  1.6819
23287SOL    HW279792   3.673   1.104   3.950  0.4029 -2.9556 -3.4479
23288SOL     OW79793   3.058   6.240   2.475 -0.7854 -0.6746 -0.0743
23288SOL    HW179794   3.120   6.248   2.547  0.3433 -0.2147 -1.0633
23288SOL    HW279795   3.102   6.183   2.412 -1.7215 -0.9983 -0.4464
23289SOL     OW79796   8.495   8.139   1.576  0.3592  0.2498  0.0049
23289SOL    HW179797   8.486   8.132   1.671  0.1485  0.8211  0.0289
23289SOL    HW279798   8.589   8.137   1.561  0.3749 -0.5400  0.1686
23290SOL     OW79799   0.513  12.558   4.985  0.2531  0.0323  0.5421
23290SOL    HW179800   0.557  12.476   4.967  2.0624  0.8068  1.2317
23290SOL    HW279801   0.560  12.624   4.935  0.1249  0.9373  1.5513
23291SOL     OW79802   5.145   9.871   1.572  0.0147  0.0363  0.2299
23291SOL    HW179803   5.241   9.879   1.566 -0.2001  2.9875 -1.5600
23291SOL    HW279804   5.122   9.923   1.649 -0.2490  1.1339 -0.5712
23292SOL     OW79805   0.639   5.703  10.414 -0.3184  0.2938 -0.0379
23292SOL    HW179806   0.709   5.736  10.470 -0.7511  0.1736  0.5898
23292SOL    HW279807   0.569   5.768  10.423 -0.4833  0.1443 -0.2365
23293SOL     OW79808   6.674  12.034  11.269  0.0369 -0.3444  0.1168
23293SOL    HW179809   6.765  12.043  11.241  0.4725  0.5771  1.6730
23293SOL    HW279810   6.635  12.119  11.250  0.5356  0.5655  2.7639
23294SOL     OW79811   3.552   7.137   1.310 -0.3586 -0.6403  0.0069
23294SOL    HW179812   3.493   7.161   1.382 -0.5210 -1.1341  0.0416
23294SOL    HW279813   3.498   7.146   1.231  0.5034  2.4205 -0.3737
23295SOL     OW79814   0.244   7.720   3.914 -0.7031 -0.1723 -0.0160
23295SOL    HW179815   0.331   7.704   3.950 -1.1189  0.8339  1.5050
23295SOL    HW279816   0.210   7.795   3.963 -2.2052 -0.1705 -0.9722
23296SOL     OW79817   6.101  11.022  12.527  0.1650  0.3677  0.1272
23296SOL    HW179818   6.178  10.978  12.563  0.6569 -1.2019 -2.5771
23296SOL    HW279819   6.031  10.958  12.536 -0.2544  0.8473  0.3287
23297SOL     OW79820   1.224  10.263  10.368  0.3466 -0.5555 -0.1682
23297SOL    HW179821   1.248  10.242  10.458  0.5559  3.5351  0.9095
23297SOL    HW279822   1.294  10.320  10.336 -0.7310 -0.2691 -2.2334
23298SOL     OW79823  12.742  13.290   1.492 -0.5385  0.1989 -0.3509
23298SOL    HW179824  12.728  13.384   1.480  0.5470  0.4660  0.3446
23298SOL    HW279825  12.809  13.284   1.560 -1.2178 -1.0931  0.2572
23299SOL     OW79826  12.420  10.360   3.110 -0.2598  0.1340 -0.0694
23299SOL    HW179827  12.326  10.342   3.110 -0.5129  1.3694  0.0006
23299SOL    HW279828  12.457  10.294   3.168 -1.5601  1.8325  2.8852
23300SOL     OW79829  11.185   7.050   5.245  0.6777 -0.0857  0.1012
23300SOL    HW179830  11.095   7.042   5.279  0.0857 -0.0668 -1.4011
23300SOL    HW279831  11.221   6.961   5.254  0.5015 -0.1062  0.6666
23301SOL     OW79832   5.264  11.050   1.510 -0.2659 -0.0625  0.1920
23301SOL    HW179833   5.272  11.014   1.422 -0.4374  0.0005  0.1502
23301SOL    HW279834   5.272  10.974   1.568  0.7771  0.0057  0.1641
23302SOL     OW79835   7.624   5.769   8.959  0.5823 -0.3064 -0.2045
23302SOL    HW179836   7.670   5.798   9.037 -0.5525  0.0638  0.3565
23302SOL    HW279837   7.596   5.680   8.978 -0.1166 -0.0457  0.0173
23303SOL     OW79838   4.951  12.056   5.964 -0.2037 -0.3674 -0.2533
23303SOL    HW179839   4.982  12.058   5.874 -0.3329 -0.7649 -0.3100
23303SOL    HW279840   4.891  12.130   5.971  0.8511  0.4941 -0.1036
23304SOL     OW79841   2.508  11.443   1.808 -0.0410 -0.5390  0.1560
23304SOL    HW179842   2.542  11.380   1.745  1.3565  0.7808 -0.4842
23304SOL    HW279843   2.435  11.485   1.762 -1.7984 -2.4464  1.0367
23305SOL     OW79844  12.791   5.041   7.675  0.3756 -0.6332 -0.8775
23305SOL    HW179845  12.866   5.056   7.732 -0.5552 -3.1676  1.2268
23305SOL    HW279846  12.745   5.125   7.673  1.9775  0.3141 -0.3232
23306SOL     OW79847   0.185   9.857   0.098  0.0561 -0.4529  0.4527
23306SOL    HW179848   0.220   9.846   0.187  0.0511  1.3249  0.7048
23306SOL    HW279849   0.105   9.804   0.097 -0.3782  0.1422  1.7685
23307SOL     OW79850   9.755   2.807   1.553 -0.7892  0.6395  0.3171
23307SOL    HW179851   9.689   2.740   1.534  1.3370 -2.1495  1.9566
23307SOL    HW279852   9.763   2.806   1.648  1.9319  0.4106  0.1720
23308SOL     OW79853  11.301   6.232  10.336 -0.2261 -0.1406 -0.7443
23308SOL    HW179854  11.227   6.240  10.276 -1.3831  1.8316  0.8465
23308SOL    HW279855  11.366   6.294  10.302  0.0369 -0.6445 -1.1816
23309SOL     OW79856   8.537   5.625  10.227  0.0641  0.7931  0.0465
23309SOL    HW179857   8.549   5.608  10.134  1.3549 -0.9542  0.4762
23309SOL    HW279858   8.614   5.586  10.269 -2.1482 -1.7975  2.1323
23310SOL     OW79859   0.492  10.181  11.581  0.2688 -0.2835  0.3183
23310SOL    HW179860   0.544  10.143  11.652  0.9001 -0.2885 -0.1374
23310SOL    HW279861   0.406  10.197  11.620  1.1754  1.6479  1.7079
23311SOL     OW79862   4.344   6.824   3.383  0.3720  0.1133  0.7990
23311SOL    HW179863   4.370   6.734   3.399  0.8064  0.2002  0.6041
23311SOL    HW279864   4.250   6.820   3.370  0.5913 -0.5613 -0.8022
23312SOL     OW79865   6.803   5.994   2.817 -0.1484 -0.3729  0.5722
23312SOL    HW179866   6.742   6.049   2.866  0.3539  0.1891  0.5797
23312SOL    HW279867   6.831   5.928   2.880 -1.0336 -0.8638  0.4594
23313SOL     OW79868  12.926  10.354  12.829  0.0133 -0.2210  0.5843
23313SOL    HW179869  12.940  10.265  12.862 -0.0441 -0.5472 -0.2271
23313SOL    HW279870  12.855  10.344  12.765 -0.6196  0.5724  1.1492
23314SOL     OW79871   2.879  12.861   1.127 -0.6116  0.4887 -0.3478
23314SOL    HW179872   2.864  12.944   1.173 -0.3501 -0.1404  0.9151
23314SOL    HW279873   2.975  12.856   1.120 -0.5188 -0.4614  1.0894
23315SOL     OW79874   6.617   7.350   6.251  0.0062 -0.0555 -0.1268
23315SOL    HW179875   6.701   7.373   6.210 -0.1293 -0.2553 -0.5159
23315SOL    HW279876   6.639   7.280   6.313  0.1986  0.1980  0.0949
23316SOL     OW79877   4.566   3.124   7.147  0.1116 -0.0259 -0.4705
23316SOL    HW179878   4.480   3.095   7.116 -0.6111 -0.0236  1.4316
23316SOL    HW279879   4.609   3.044   7.177 -0.7467  0.4030  2.0798
23317SOL     OW79880   8.335   2.073   4.582  0.3375  0.5880 -0.1702
23317SOL    HW179881   8.377   2.084   4.497 -0.3841  0.3124 -0.5708
23317SOL    HW279882   8.405   2.089   4.645  1.1876 -0.3978 -0.8195
23318SOL     OW79883   6.575  10.024  12.019  0.3178 -0.1629  0.1194
23318SOL    HW179884   6.492  10.005  12.063  0.4406  0.1875  0.5083
23318SOL    HW279885   6.598  10.112  12.049  0.5462 -0.0281 -0.4293
23319SOL     OW79886   5.075  11.543   5.256  0.1079  0.0232  0.6185
23319SOL    HW179887   5.102  11.584   5.338 -0.7220 -1.3832  1.6329
23319SOL    HW279888   4.984  11.517   5.270  0.8567 -3.1235  0.4937
23320SOL     OW79889   9.203   0.050  11.870 -0.1487 -0.3990 -0.0793
23320SOL    HW179890   9.253   0.132  11.861 -0.0256 -0.3900  0.6500
23320SOL    HW279891   9.163   0.056  11.957  0.0493 -1.2187  0.0711
23321SOL     OW79892  11.069  10.730  11.246  0.3426  0.0599  0.7713
23321SOL    HW179893  11.151  10.769  11.219 -0.4609  1.3219  0.0606
23321SOL    HW279894  11.005  10.801  11.241 -0.9744 -1.0908  0.4175
23322SOL     OW79895   5.431   4.469   6.122 -0.3953  0.4160 -0.0507
23322SOL    HW179896   5.497   4.538   6.110 -0.4610  0.3792 -0.6341
23322SOL    HW279897   5.352   4.503   6.079 -0.8426  0.5749  0.8761
23323SOL     OW79898   2.891   4.229   9.406 -0.2038  0.2748  0.3314
23323SOL    HW179899   2.884   4.319   9.373 -0.9412 -0.7229 -2.4511
23323SOL    HW279900   2.902   4.240   9.501  2.8967  3.3922 -0.1657
23324SOL     OW79901   9.528   5.742   4.596 -0.6869 -0.1458  0.4337
23324SOL    HW179902   9.510   5.707   4.683 -1.7416 -1.0516 -0.1382
23324SOL    HW279903   9.529   5.666   4.539 -1.2960  0.5688 -0.5533
23325SOL     OW79904  10.196   2.641   4.215 -0.0186  0.7630 -0.0724
23325SOL    HW179905  10.201   2.546   4.221  2.3423  0.8391 -0.0500
23325SOL    HW279906  10.130   2.658   4.148 -1.2834 -0.8356  0.7178
23326SOL     OW79907   5.697   7.893   2.233 -0.5340 -0.3039  0.7738
23326SOL    HW179908   5.763   7.899   2.164 -1.1599 -0.1530  0.1820
23326SOL    HW279909   5.721   7.961   2.296  0.1044 -0.5205  0.7692
23327SOL     OW79910  11.481   0.511   6.266 -0.5209 -0.0618 -0.1350
23327SOL    HW179911  11.542   0.519   6.193 -0.3874 -0.0072 -0.0180
23327SOL    HW279912  11.467   0.417   6.275  0.5667 -0.1734  0.6687
23328SOL     OW79913  12.962   4.831   2.065  0.6143  0.6790  0.0319
23328SOL    HW179914  12.940   4.788   1.982 -1.9580  2.1050 -0.1391
23328SOL    HW279915  12.919   4.778   2.132  0.3448  1.0594  0.1636
23329SOL     OW79916  10.508   9.094   6.043 -0.3243 -0.4035 -0.1790
23329SOL    HW179917  10.449   9.113   6.115 -0.4413  1.0651 -0.6286
23329SOL    HW279918  10.459   9.034   5.986 -0.9133 -0.1466  0.0546
23330SOL     OW79919   5.520   0.854   5.410 -0.2136  0.8181  0.5118
23330SOL    HW179920   5.476   0.769   5.408  1.2318  0.0282  0.7933
23330SOL    HW279921   5.469   0.909   5.351 -1.9603  0.1680  1.3609
23331SOL     OW79922  10.383  12.372  12.374  0.6953  0.0483  0.6127
23331SOL    HW179923  10.421  12.333  12.295 -1.1633 -1.2858  0.3054
23331SOL    HW279924  10.308  12.422  12.343  1.5455  1.8715  1.2965
23332SOL     OW79925   1.776   2.494   4.657 -0.0612  0.3811  0.6961
23332SOL    HW179926   1.813   2.461   4.739  0.5905  0.1110  0.3011
23332SOL    HW279927   1.827   2.573   4.638  1.2619 -0.6971 -0.5257
23333SOL     OW79928   0.217  12.226   7.104  0.2489 -0.9107 -0.0057
23333SOL    HW179929   0.252  12.307   7.067  0.0799 -1.5125 -1.6005
23333SOL    HW279930   0.252  12.157   7.047 -1.5816 -1.7247 -0.2172
23334SOL     OW79931   0.418  13.094   9.288  0.1070  1.0678 -0.4556
23334SOL    HW179932   0.442  13.120   9.377 -1.1647  0.9239 -0.0511
23334SOL    HW279933   0.502  13.086   9.242  1.0617 -1.8672  1.5047
23335SOL     OW79934  13.307  13.210   5.515 -0.0580  0.1427 -0.4061
23335SOL    HW179935  13.331  13.218   5.608 -2.1433 -2.6991  0.5184
23335SOL    HW279936  13.279  13.298   5.490 -0.4004  0.8026  1.9877
23336SOL     OW79937  13.216   4.447   0.404  0.2740 -0.0532  0.3472
23336SOL    HW179938  13.140   4.395   0.433  0.1133  1.0630  2.0946
23336SOL    HW279939  13.177   4.519   0.353  0.3512 -0.6293 -0.5414
23337SOL     OW79940  13.110   5.430   4.130  0.3868  0.0191 -0.0517
23337SOL    HW179941  13.125   5.336   4.122  0.5366  0.0899 -0.6775
23337SOL    HW279942  13.156   5.455   4.211  0.0293 -0.5054  0.3166
23338SOL     OW79943   1.051   1.478   7.029 -0.1383 -0.1157  0.1135
23338SOL    HW179944   1.071   1.495   7.121 -0.2241 -0.9969  0.3001
23338SOL    HW279945   1.136   1.462   6.989 -0.1845 -0.8459  0.2827
23339SOL     OW79946  13.007   6.640   1.702 -0.6298 -0.3391 -0.0981
23339SOL    HW179947  12.921   6.635   1.659 -1.2174  1.6213  0.7086
23339SOL    HW279948  13.017   6.555   1.744 -2.3393 -0.5194  0.0376
23340SOL     OW79949   2.766  11.041  13.088  0.6091  0.2561  0.1918
23340SOL    HW179950   2.796  11.009  13.173  0.7330 -1.3204 -0.4060
23340SOL    HW279951   2.838  11.020  13.028 -0.6230 -1.3515 -0.8141
23341SOL     OW79952   8.579   8.604   2.181 -0.2179  0.4915 -0.0151
23341SOL    HW179953   8.640   8.531   2.196 -1.2710  0.0585  2.8633
23341SOL    HW279954   8.635   8.675   2.150  1.6906 -0.1356  1.7138
23342SOL     OW79955   9.292   5.380  10.483  0.0433 -0.2551 -0.0832
23342SOL    HW179956   9.375   5.340  10.458  0.3469  0.4172 -0.1553
23342SOL    HW279957   9.301   5.398  10.576  0.0850  0.0797 -0.1526
23343SOL     OW79958   7.738   3.989  11.790 -0.0543  0.1058 -0.6962
23343SOL    HW179959   7.650   4.022  11.772 -0.8858 -1.3072  0.5296
23343SOL    HW279960   7.770   4.044  11.861 -0.3907 -0.0595 -0.4143
23344SOL     OW79961  12.640  12.814   0.644  0.0963 -0.0932  0.1404
23344SOL    HW179962  12.589  12.792   0.722  0.2852 -0.6027  0.1268
23344SOL    HW279963  12.610  12.752   0.578  0.8794 -0.5431  0.1950
23345SOL     OW79964  10.151  13.244  10.118 -0.4206  0.4263 -0.6744
23345SOL    HW179965  10.159  13.286  10.203 -0.4308  1.3178 -1.1017
23345SOL    HW279966  10.203  13.164  10.125 -0.1871  0.6430  0.0681
23346SOL     OW79967   3.867  10.952  13.163  0.2376 -0.0256  0.2333
23346SOL    HW179968   3.797  10.999  13.119 -1.0369 -0.1417  2.0029
23346SOL    HW279969   3.868  10.987  13.252  0.7835 -1.7256  0.9526
23347SOL     OW79970   9.179  11.132   4.847  0.3655 -0.2293 -0.3633
23347SOL    HW179971   9.252  11.082   4.885  0.1003 -0.5067 -0.2133
23347SOL    HW279972   9.111  11.067   4.833  0.1275  0.0394 -0.4574
23348SOL     OW79973   4.093   9.747  11.047 -0.0167 -0.0417 -0.0476
23348SOL    HW179974   4.021   9.748  11.110 -1.6963 -1.3912 -1.8041
23348SOL    HW279975   4.126   9.657  11.049  1.5055  0.4840  0.5184
23349SOL     OW79976  11.042  11.772  12.820  0.2018  0.3755  0.3139
23349SOL    HW179977  11.047  11.706  12.751 -0.1054  0.5521  0.1203
23349SOL    HW279978  11.100  11.739  12.889 -0.2873 -0.3109  0.4054
23350SOL     OW79979   9.543   7.659  11.030 -0.3686  0.6507 -0.2740
23350SOL    HW179980   9.616   7.692  10.978 -0.9741  0.9873 -0.9180
23350SOL    HW279981   9.544   7.564  11.016  0.6324  0.5152  0.6205
23351SOL     OW79982  10.621   6.893  12.085  0.4427  0.0684 -0.0665
23351SOL    HW179983  10.687   6.827  12.066 -1.1296 -2.1298  1.6878
23351SOL    HW279984  10.538   6.852  12.060 -0.4887  1.8700 -0.0826
23352SOL     OW79985   1.496   7.680   2.336 -0.0950  0.1645 -0.9176
23352SOL    HW179986   1.424   7.661   2.276  1.0811  0.0769 -2.3740
23352SOL    HW279987   1.529   7.765   2.307 -1.0882  1.3660  1.2785
23353SOL     OW79988   1.579   9.203   6.109  0.6225  0.1059  0.4712
23353SOL    HW179989   1.537   9.165   6.031  0.5114  0.1292  0.5191
23353SOL    HW279990   1.672   9.208   6.086  0.4039  1.4217 -0.1908
23354SOL     OW79991  12.944  10.700   7.536 -0.2198  0.6113  0.4499
23354SOL    HW179992  12.851  10.708   7.516  0.1460  0.5790 -1.4751
23354SOL    HW279993  12.985  10.773   7.490  0.8233 -0.0449  0.2952
23355SOL     OW79994   4.850   9.229   2.144 -0.1195  0.0174 -0.1008
23355SOL    HW179995   4.923   9.176   2.113  0.2658  1.5622 -2.0644
23355SOL    HW279996   4.803   9.255   2.064 -0.7967  1.8317  0.8182
23356SOL     OW79997   3.365   9.523   2.109 -0.7654 -0.2794  0.3518
23356SOL    HW179998   3.447   9.503   2.064  0.0825 -0.7763  2.0385
23356SOL    HW279999   3.337   9.440   2.148 -0.3865  0.4941  2.4036
23357SOL     OW80000   2.553  12.775   7.675  0.2135 -0.1093  0.0076
23357SOL    HW180001   2.536  12.719   7.599 -0.4302 -0.4033  0.3559
23357SOL    HW280002   2.648  12.770   7.688  0.2302 -0.6998 -0.2974
23358SOL     OW80003   4.168  12.556   7.641 -0.4206  0.3841 -0.3399
23358SOL    HW180004   4.226  12.499   7.691 -0.0701 -2.1108 -3.3331
23358SOL    HW280005   4.093  12.570   7.699  1.0198 -0.2161  1.7874
23359SOL     OW80006   9.124   1.300   9.047  0.0380  0.4657  0.2558
23359SOL    HW180007   9.058   1.232   9.030 -0.4252  1.0539 -0.3629
23359SOL    HW280008   9.176   1.303   8.966  1.3519 -0.5384  1.0145
23360SOL     OW80009   9.700   6.700   8.596 -0.2791 -0.6067 -0.0730
23360SOL    HW180010   9.773   6.731   8.543  0.9048 -2.0481  0.6358
23360SOL    HW280011   9.661   6.629   8.545 -0.5350 -0.5224  0.0042
23361SOL     OW80012   0.578   1.164   4.624  0.0504  0.9844 -0.4151
23361SOL    HW180013   0.589   1.243   4.572  0.8388  2.2092  1.5079
23361SOL    HW280014   0.626   1.181   4.705 -1.8800 -0.4443  1.1297
23362SOL     OW80015   7.213   2.972  10.747  0.1366  0.4184  0.2771
23362SOL    HW180016   7.269   2.897  10.768  0.7492  0.4854 -1.0334
23362SOL    HW280017   7.274   3.044  10.732 -0.1550  0.1793 -2.4881
23363SOL     OW80018   6.507   0.690   1.775 -0.0240 -0.1769 -0.1826
23363SOL    HW180019   6.531   0.663   1.687 -1.4946 -3.0962  0.1701
23363SOL    HW280020   6.517   0.785   1.775 -0.3234 -0.0183 -3.5888
23364SOL     OW80021   5.982   6.845   5.330  0.2093  0.2552  0.1826
23364SOL    HW180022   5.954   6.762   5.368 -2.1264  0.7688 -0.2714
23364SOL    HW280023   6.078   6.842   5.334  0.1564 -1.8497  1.4186
23365SOL     OW80024  10.031   4.733   6.691 -0.0998  0.4129 -0.2727
23365SOL    HW180025  10.031   4.727   6.787 -0.5800 -1.8596 -0.3613
23365SOL    HW280026  10.073   4.653   6.662  0.7413  1.4136 -1.9948
23366SOL     OW80027   3.196   1.359   9.014 -0.0768  0.4397 -0.7819
23366SOL    HW180028   3.251   1.286   9.043 -1.4229 -0.1390  0.4351
23366SOL    HW280029   3.182   1.343   8.921 -0.8180 -1.1954 -0.4197
23367SOL     OW80030   7.919  12.575  13.107  0.0780  0.1745 -0.1530
23367SOL    HW180031   7.862  12.518  13.157 -0.5980  0.2626 -0.8114
23367SOL    HW280032   7.945  12.523  13.031  0.3829  0.3471 -0.1691
23368SOL     OW80033   2.230   9.620   7.302 -0.1443 -0.3377 -0.0311
23368SOL    HW180034   2.260   9.625   7.393  0.0169 -0.4928 -0.0757
23368SOL    HW280035   2.284   9.684   7.255  0.2572 -0.7544 -0.1478
23369SOL     OW80036   9.614  13.086   3.514  0.0590 -0.4161 -0.1280
23369SOL    HW180037   9.681  13.152   3.530  1.1667 -1.5442  0.0506
23369SOL    HW280038   9.661  13.014   3.472 -1.0209 -1.2954  0.1340
23370SOL     OW80039   5.539  11.940   0.479  0.5909  0.2173 -0.0049
23370SOL    HW180040   5.483  11.894   0.418  0.6799  1.5751 -1.1755
23370SOL    HW280041   5.480  11.972   0.547  0.4116 -0.8333  0.3539
23371SOL     OW80042   1.103  12.943   0.537  0.3413  0.2419  0.4987
23371SOL    HW180043   1.079  12.872   0.597  1.1689  0.0476  0.6042
23371SOL    HW280044   1.066  12.917   0.453 -1.2704  0.7522  1.0111
23372SOL     OW80045  12.428   2.422  12.683  0.2841 -0.0710 -0.6166
23372SOL    HW180046  12.445   2.465  12.600 -1.5822 -0.0007 -1.0063
23372SOL    HW280047  12.399   2.334  12.659 -0.2317 -0.0621 -0.0564
23373SOL     OW80048  12.725   5.397  11.403  0.0400  0.3797  0.9986
23373SOL    HW180049  12.816   5.423  11.413  0.1513  0.6328 -0.5058
23373SOL    HW280050  12.718   5.314  11.451  1.8854 -1.3618 -1.5316
23374SOL     OW80051  10.457   2.498   2.660  0.0093 -0.8068  0.0721
23374SOL    HW180052  10.368   2.474   2.633  0.2698 -1.5748 -0.1520
23374SOL    HW280053  10.445   2.564   2.728 -0.7476 -1.1742  0.3136
23375SOL     OW80054   8.709   5.229   4.220 -0.7439 -1.2237  0.2755
23375SOL    HW180055   8.640   5.162   4.219 -1.1705 -0.8286  1.4477
23375SOL    HW280056   8.733   5.236   4.313 -1.1701  0.7207  0.2710
23376SOL     OW80057   3.695   3.848   0.107  0.2722 -0.1471  0.1275
23376SOL    HW180058   3.615   3.797   0.098 -0.5806  1.2185 -0.2838
23376SOL    HW280059   3.764   3.782   0.118 -0.7855 -1.3766 -0.3442
23377SOL     OW80060  10.873   9.413   7.725  0.6004 -0.0078 -0.3178
23377SOL    HW180061  10.919   9.335   7.755  2.0383  0.1294 -2.0339
23377SOL    HW280062  10.797   9.419   7.783  0.5762 -2.5183  0.0296
23378SOL     OW80063  12.540   3.255   8.594 -0.4002  0.1400  0.5460
23378SOL    HW180064  12.516   3.273   8.503  2.8534 -0.4139 -0.5799
23378SOL    HW280065  12.551   3.342   8.633 -0.4313  0.4106 -0.0296
23379SOL     OW80066  12.663   7.523   3.357  0.4989 -0.2481  0.1194
23379SOL    HW180067  12.731   7.574   3.313 -0.4459  0.6311 -0.3333
23379SOL    HW280068  12.692   7.432   3.347  0.4952 -0.0575 -1.9928
23380SOL     OW80069  11.315  11.595  13.294 -0.4255 -0.4978  0.0287
23380SOL    HW180070  11.307  11.570  13.387 -0.6737 -0.0797  0.1215
23380SOL    HW280071  11.263  11.675  13.286 -0.6042 -0.6654 -0.5293
23381SOL     OW80072   2.973   9.915  11.560 -0.1577 -0.0496  0.0001
23381SOL    HW180073   2.966   9.896  11.466  0.2958 -1.5471  0.2520
23381SOL    HW280074   2.915   9.852  11.602  0.0949  0.2207  0.7724
23382SOL     OW80075   2.078   1.081   1.649  0.0651  0.4946  1.0967
23382SOL    HW180076   2.012   1.025   1.608  2.1795 -1.4389  0.1335
23382SOL    HW280077   2.029   1.159   1.675 -2.0241  0.5419 -2.3269
23383SOL     OW80078   9.757   8.465  10.859  0.1728  0.1738  0.3819
23383SOL    HW180079   9.759   8.550  10.904  1.2324  1.5153 -2.0236
23383SOL    HW280080   9.726   8.404  10.926  0.1859  2.2796  2.4631
23384SOL     OW80081   4.649   1.115   4.033 -0.3601  0.1839  0.1565
23384SOL    HW180082   4.576   1.089   3.977  0.3446  1.7655 -1.6069
23384SOL    HW280083   4.723   1.125   3.973  1.1016 -0.5413  1.7703
23385SOL     OW80084   9.818  10.510   6.277 -0.4300  0.1985  0.4951
23385SOL    HW180085   9.830  10.420   6.247  1.4793  0.7080 -0.4488
23385SOL    HW280086   9.791  10.558   6.198 -0.4076  0.6342  0.7481
23386SOL     OW80087   2.093   0.424  10.336  0.2602  0.5381  0.1856
23386SOL    HW180088   2.055   0.393  10.418 -3.1318 -1.0203 -1.7521
23386SOL    HW280089   2.141   0.348  10.301  1.1344  0.9897  0.3720
23387SOL     OW80090  10.409   6.160   8.008  0.0809 -0.3641  0.1947
23387SOL    HW180091  10.355   6.105   7.951 -0.2660  1.2739 -1.1486
23387SOL    HW280092  10.462   6.098   8.058 -0.1085 -1.9187 -1.4250
23388SOL     OW80093   7.697  12.948  11.383 -0.0631  0.6462 -0.0434
23388SOL    HW180094   7.787  12.954  11.353 -0.0977  0.5794 -0.1602
23388SOL    HW280095   7.700  12.977  11.474  0.4894 -1.5828  0.7228
23389SOL     OW80096   0.772   5.870  13.104  0.1445  0.4169  0.2882
23389SOL    HW180097   0.694   5.845  13.153 -0.3113  0.3609 -0.4533
23389SOL    HW280098   0.740   5.930  13.037  0.8323  0.8682  0.3580
23390SOL     OW80099   8.254   7.682   7.529  0.5593  0.1310  0.2346
23390SOL    HW180100   8.241   7.599   7.574  1.6689 -1.4596 -2.1645
23390SOL    HW280101   8.175   7.694   7.478  1.0578 -0.3417 -0.6771
23391SOL     OW80102  12.292   4.043  12.434  0.1591 -0.6514  0.3319
23391SOL    HW180103  12.241   4.024  12.513  1.0134 -0.3581  0.9629
23391SOL    HW280104  12.374   4.079  12.466  0.0059  0.7445 -0.7238
23392SOL     OW80105   0.862   5.135  10.032 -0.4203  0.5076  0.3085
23392SOL    HW180106   0.799   5.183  10.086  0.1737  0.2696  1.2359
23392SOL    HW280107   0.857   5.045  10.064 -0.8908  0.0972 -0.8299
23393SOL     OW80108  10.335   4.391   2.688  0.0259  0.1638 -0.2213
23393SOL    HW180109  10.256   4.346   2.719 -0.5110  0.7244 -0.7583
23393SOL    HW280110  10.347   4.359   2.599  1.6885 -1.6096  0.5484
23394SOL     OW80111  12.648   5.735   4.442  0.3477 -0.3322  0.3654
23394SOL    HW180112  12.655   5.786   4.523 -0.6286 -0.3977  0.5101
23394SOL    HW280113  12.674   5.795   4.373  0.8315 -0.1626  0.6874
23395SOL     OW80114   5.045   6.026   5.683  0.0805 -0.1459  0.5747
23395SOL    HW180115   4.970   5.981   5.645  0.3108 -0.5315  0.5688
23395SOL    HW280116   5.014   6.115   5.700  0.0546  0.1096 -0.7545
23396SOL     OW80117   9.088   2.314  13.154  0.2629 -0.0371 -0.1644
23396SOL    HW180118   9.039   2.375  13.209  0.9740 -0.6738  1.2318
23396SOL    HW280119   9.041   2.231  13.163  0.2076 -0.0796 -0.7844
23397SOL     OW80120   5.625   9.017   9.189 -0.0174  0.0033 -1.0303
23397SOL    HW180121   5.704   8.995   9.238 -0.3511 -0.3044 -0.6246
23397SOL    HW280122   5.558   8.959   9.225 -0.6644  0.9517 -0.6669
23398SOL     OW80123  11.703   9.772   6.570  0.1872  0.0089 -0.5541
23398SOL    HW180124  11.730   9.863   6.556  0.1480 -0.0741 -1.2185
23398SOL    HW280125  11.624   9.778   6.623 -0.4194  0.4193 -1.4835
23399SOL     OW80126   3.933  10.887  10.508  0.3063  0.1371  0.5743
23399SOL    HW180127   3.929  10.946  10.433 -2.1197 -1.3389 -0.5897
23399SOL    HW280128   4.002  10.825  10.487  0.0274  0.0804 -0.1939
23400SOL     OW80129   3.826   8.754   7.553 -0.1485 -0.6245 -0.0443
23400SOL    HW180130   3.746   8.791   7.516 -0.5105 -1.1628  0.1826
23400SOL    HW280131   3.885   8.829   7.562  0.8171 -0.7881 -3.7797
23401SOL     OW80132   2.972   6.921   7.493 -0.1629 -0.2463  0.6072
23401SOL    HW180133   2.992   6.949   7.403  0.9049 -2.3824  0.1254
23401SOL    HW280134   3.029   6.975   7.548 -0.6798  0.9414  0.0232
23402SOL     OW80135   8.591   6.765   2.347 -0.1381  0.0089  0.7378
23402SOL    HW180136   8.643   6.845   2.348 -2.0526  1.4291 -2.2179
23402SOL    HW280137   8.501   6.795   2.355 -0.8003 -2.1182  2.0607
23403SOL     OW80138  11.248   7.437   5.258  0.7809  0.2839 -0.3907
23403SOL    HW180139  11.224   7.392   5.339  0.0785  1.0469 -0.1674
23403SOL    HW280140  11.251   7.367   5.192  0.4386 -0.2014  0.0951
23404SOL     OW80141  12.043   9.282   1.247 -0.4485  0.1202  0.2298
23404SOL    HW180142  12.092   9.276   1.328 -0.0906  0.1721  0.0196
23404SOL    HW280143  11.981   9.354   1.261  0.5859  1.0832 -0.0531
23405SOL     OW80144   3.970  12.604   7.823 -0.7035  0.8132  0.1057
23405SOL    HW180145   3.929  12.653   7.752 -1.6062  1.7174  1.2280
23405SOL    HW280146   3.917  12.623   7.900 -1.1252 -1.9408  0.6226
23406SOL     OW80147   7.195   8.992  10.577  0.3263  0.6344  0.1553
23406SOL    HW180148   7.155   8.913  10.541 -2.2866  1.8540  0.1891
23406SOL    HW280149   7.286   8.989  10.547  0.8304 -3.1831  1.5463
23407SOL     OW80150   0.900  11.687   3.941  0.0319 -0.1661 -0.1488
23407SOL    HW180151   0.975  11.717   3.993  0.0064  1.8651 -1.1913
23407SOL    HW280152   0.825  11.694   4.001  0.4045 -0.5642  0.3761
23408SOL     OW80153  12.920   2.034   9.013 -0.4670 -0.3162 -0.4379
23408SOL    HW180154  12.869   1.955   9.031 -1.0591  0.3708  1.0703
23408SOL    HW280155  12.900   2.055   8.922 -1.8259 -0.8370 -0.2836
23409SOL     OW80156   6.151  11.101   7.168 -0.6741  0.2984  0.2400
23409SOL    HW180157   6.165  11.017   7.125  0.0964  1.1967 -1.3438
23409SOL    HW280158   6.092  11.148   7.109  0.8296  1.7586 -0.1921
23410SOL     OW80159   4.313  13.029   1.550 -0.3547  0.4769  0.7492
23410SOL    HW180160   4.367  13.015   1.473  0.2613 -0.5050  1.3541
23410SOL    HW280161   4.231  12.984   1.531 -0.0478 -0.1224  0.8331
23411SOL     OW80162   1.113   6.845  10.008  0.6575  0.1446  0.5013
23411SOL    HW180163   1.081   6.926  10.047  0.6381 -0.2461  1.3180
23411SOL    HW280164   1.134   6.789  10.083  0.5838 -0.6370 -0.0533
23412SOL     OW80165   1.942   1.529   6.390 -0.0821 -1.0020 -0.1800
23412SOL    HW180166   1.881   1.492   6.327  0.2232 -0.8329 -0.5808
23412SOL    HW280167   1.946   1.622   6.368  0.3126 -1.0102 -0.1551
23413SOL     OW80168   8.020  11.486   7.896 -0.3005 -0.5440 -0.4000
23413SOL    HW180169   8.064  11.472   7.980 -1.5272  0.0877  0.3765
23413SOL    HW280170   8.055  11.417   7.839  2.6185  0.6496 -0.2439
23414SOL     OW80171   2.955  13.015   0.092  0.2881 -0.2515 -0.5802
23414SOL    HW180172   3.017  13.045   0.159 -1.8007 -0.3258  1.5222
23414SOL    HW280173   2.926  13.095   0.049  1.5011 -0.1839 -1.3339
23415SOL     OW80174   0.322   0.266   6.361  0.1624 -0.5733  0.6566
23415SOL    HW180175   0.239   0.304   6.390 -0.6140 -1.0347 -0.9010
23415SOL    HW280176   0.336   0.302   6.274  1.0230 -1.4026  0.4384
23416SOL     OW80177   7.042   7.457   6.653 -0.1371 -0.2413 -0.0797
23416SOL    HW180178   6.951   7.454   6.623 -0.7451  1.3517  1.3927
23416SOL    HW280179   7.079   7.534   6.609  0.7097 -1.1941 -1.1003
23417SOL     OW80180   7.021  12.547   0.063  0.1885  0.1506 -0.3810
23417SOL    HW180181   7.111  12.576   0.053 -0.1521  0.8880 -1.4715
23417SOL    HW280182   6.982  12.610   0.124  0.6144 -0.6691  0.7735
23418SOL     OW80183   4.787  13.043  11.264  0.3361 -0.3445 -0.3881
23418SOL    HW180184   4.778  12.948  11.252 -2.1788 -0.1672 -0.4577
23418SOL    HW280185   4.808  13.054  11.356  1.8925 -0.9701 -0.6236
23419SOL     OW80186   5.443  10.834  10.134 -0.1507  0.4698  0.1718
23419SOL    HW180187   5.369  10.790  10.094 -0.5223 -0.4031  1.7442
23419SOL    HW280188   5.434  10.925  10.108 -1.1393  0.1722 -0.5709
23420SOL     OW80189  10.935  13.197   5.950  0.3739 -0.0543  0.2173
23420SOL    HW180190  10.869  13.169   5.886  1.2393  0.8954 -1.1434
23420SOL    HW280191  10.898  13.276   5.988  0.4330  0.1076 -0.0608
23421SOL     OW80192   0.919  10.743   6.747 -0.1162  0.0723  0.2682
23421SOL    HW180193   0.908  10.810   6.814 -0.2836 -1.0082  1.3523
23421SOL    HW280194   1.013  10.743   6.727 -0.3548  1.9454 -1.1987
23422SOL     OW80195   8.114   8.350   2.520 -0.3035 -0.3809 -0.2637
23422SOL    HW180196   8.180   8.419   2.507  0.3699 -0.3623  2.5467
23422SOL    HW280197   8.126   8.291   2.446  2.1311  0.2359 -0.4512
23423SOL     OW80198   5.723   1.773   4.525  0.5743 -0.0827 -0.1968
23423SOL    HW180199   5.629   1.769   4.541  0.2792  0.1336 -1.6578
23423SOL    HW280200   5.730   1.779   4.429  1.9923  1.7088 -0.0386
23424SOL     OW80201  10.944   2.862   1.781  0.4339 -0.9773 -0.2656
23424SOL    HW180202  11.028   2.836   1.743 -0.1938 -1.2606 -1.5048
23424SOL    HW280203  10.915   2.936   1.728 -1.1569 -2.3021 -1.3483
23425SOL     OW80204   8.546   6.253   0.408 -0.0238  0.5274 -0.0478
23425SOL    HW180205   8.525   6.223   0.319 -0.3344 -2.8174  1.0101
23425SOL    HW280206   8.474   6.221   0.462 -0.0564  2.8402  1.4373
23426SOL     OW80207   2.851   3.384   3.554  0.2396  0.1826  0.2630
23426SOL    HW180208   2.911   3.379   3.628 -0.2531 -0.2254  0.6474
23426SOL    HW280209   2.875   3.464   3.509 -0.3392  1.1986  1.6704
23427SOL     OW80210   8.847  11.366   1.369 -0.6759 -0.3055  0.5531
23427SOL    HW180211   8.900  11.291   1.396 -0.6218  0.0211  1.4108
23427SOL    HW280212   8.772  11.328   1.323 -0.6716 -0.8905  1.0153
23428SOL     OW80213  11.412  13.042   5.400 -0.4680  0.2692 -0.9201
23428SOL    HW180214  11.415  13.125   5.352 -2.9338  0.7928 -0.3118
23428SOL    HW280215  11.427  12.975   5.333 -0.9842  1.0936 -1.8955
23429SOL     OW80216   5.013   1.019   6.879 -0.0655  0.1734 -0.2971
23429SOL    HW180217   4.957   0.947   6.907  0.0797  0.3639  0.5134
23429SOL    HW280218   4.972   1.097   6.918  0.2068  0.4297 -0.5256
23430SOL     OW80219   3.665  11.628  11.393  0.4798  0.0724 -0.0226
23430SOL    HW180220   3.688  11.653  11.304 -3.1277 -0.5508 -1.3088
23430SOL    HW280221   3.595  11.689  11.418 -1.7057 -2.4380  0.5060
23431SOL     OW80222  10.772   2.460   6.333 -0.5766 -0.1237  0.0470
23431SOL    HW180223  10.771   2.429   6.243 -0.6773 -0.7392  0.2569
23431SOL    HW280224  10.798   2.383   6.385  1.1865  0.6382  0.3766
23432SOL     OW80225  11.228  11.310  12.500 -0.0313  0.6143 -0.1697
23432SOL    HW180226  11.291  11.377  12.475  1.9921 -0.7237  1.0629
23432SOL    HW280227  11.235  11.243  12.432  0.7721 -0.0726  0.5698
23433SOL     OW80228   9.036   4.866   8.421  0.2434  0.7047 -0.3370
23433SOL    HW180229   8.996   4.910   8.496 -1.7957  0.9200 -1.4905
23433SOL    HW280230   9.028   4.929   8.349  2.6143  0.7082 -0.6927
23434SOL     OW80231   2.263  11.445   4.353 -0.1701 -0.0339  0.4224
23434SOL    HW180232   2.274  11.416   4.263 -0.1609  1.5685 -0.1283
23434SOL    HW280233   2.219  11.530   4.346 -1.3506 -0.4638  1.9932
23435SOL     OW80234   2.355   6.037   6.105 -0.5797 -0.1634  0.0771
23435SOL    HW180235   2.320   6.126   6.094 -0.4086  0.2485  2.4601
23435SOL    HW280236   2.447   6.044   6.078 -0.8140  0.1272 -0.6808
23436SOL     OW80237   7.986  10.201   5.234 -0.1754 -0.3695 -0.0511
23436SOL    HW180238   7.969  10.237   5.321 -0.7621 -0.3601 -0.1675
23436SOL    HW280239   7.952  10.112   5.238  0.8680 -0.7795  0.0943
23437SOL     OW80240   9.470   1.941  10.650  0.0106 -0.0372 -0.6285
23437SOL    HW180241   9.483   1.923  10.744  0.0326  1.2226 -0.3789
23437SOL    HW280242   9.382   1.977  10.645 -0.5509 -1.4150 -1.3084
23438SOL     OW80243  13.062  10.309  10.190 -0.2080 -0.2511 -0.3815
23438SOL    HW180244  13.117  10.236  10.220 -0.7552 -0.0762  1.1238
23438SOL    HW280245  13.044  10.360  10.269 -0.4194  1.1365 -1.2921
23439SOL     OW80246   1.844   5.105   5.024  0.5802  0.1757  0.3319
23439SOL    HW180247   1.813   5.014   5.024 -1.3000  0.7720 -0.2670
23439SOL    HW280248   1.764   5.158   5.024  1.6243  1.8319 -0.0788
23440SOL     OW80249   2.215   7.258   2.095  0.1288 -0.2965  0.0615
23440SOL    HW180250   2.154   7.328   2.118  0.8305  0.5646 -0.6156
23440SOL    HW280251   2.160   7.189   2.058 -0.5438  0.0443  0.4169
23441SOL     OW80252   4.127   3.168   0.451 -0.4640 -0.0401 -0.0329
23441SOL    HW180253   4.096   3.169   0.360 -0.2834  0.3457 -0.0916
23441SOL    HW280254   4.050   3.190   0.503 -0.1490  1.5826 -0.2239
23442SOL     OW80255   1.517   3.545  13.243  0.3287 -0.0032  0.2416
23442SOL    HW180256   1.560   3.541  13.328  0.3483  0.7266  0.2700
23442SOL    HW280257   1.444   3.606  13.255  2.0441  2.4455 -0.9701
23443SOL     OW80258  12.863   8.547  13.262  0.1037  0.5514  0.1821
23443SOL    HW180259  12.896   8.595  13.186  0.5937  1.7565  1.1108
23443SOL    HW280260  12.936   8.492  13.289  0.2685  0.8436  0.3401
23444SOL     OW80261  11.432   9.802   0.695 -0.2811 -0.4721  0.4044
23444SOL    HW180262  11.428   9.707   0.690  2.1065 -0.6198  0.0470
23444SOL    HW280263  11.525   9.822   0.690 -0.7473  1.9157  0.1025
23445SOL     OW80264  12.516  12.744   7.305 -0.1395  0.0614 -0.2979
23445SOL    HW180265  12.563  12.810   7.254 -0.2035  0.9795  0.7837
23445SOL    HW280266  12.549  12.755   7.394 -0.9870 -0.6146  0.1143
23446SOL     OW80267   2.665   0.063   4.829 -0.6146 -0.3526 -0.6282
23446SOL    HW180268   2.612   0.142   4.815 -0.5779 -0.2759 -0.3339
23446SOL    HW280269   2.650   0.041   4.921 -0.4414 -0.5555 -0.6499
23447SOL     OW80270   9.027   0.326   9.404 -0.1350 -0.3563 -0.1538
23447SOL    HW180271   8.953   0.359   9.455  0.1044  0.0486 -0.0548
23447SOL    HW280272   9.069   0.406   9.370 -0.2894 -0.6244 -0.9787
23448SOL     OW80273  11.169   2.149  11.766  0.0045 -0.6756  0.0617
23448SOL    HW180274  11.242   2.207  11.788 -1.4855  1.9481 -1.4565
23448SOL    HW280275  11.177   2.136  11.672 -0.4013 -1.9892  0.1956
23449SOL     OW80276  12.410  11.939   5.192 -0.1491 -0.5691 -0.0587
23449SOL    HW180277  12.335  11.973   5.143 -0.9902 -0.7539  1.0525
23449SOL    HW280278  12.474  12.010   5.189 -1.5096  0.7965  1.4219
23450SOL     OW80279   4.868   0.494   9.756 -0.0257  0.0368 -0.4851
23450SOL    HW180280   4.953   0.456   9.736 -0.0197  0.8767 -2.2392
23450SOL    HW280281   4.874   0.519   9.849  1.4572 -0.3376 -0.4548
23451SOL     OW80282   1.913   6.274   0.918 -0.4205  0.4936 -0.0324
23451SOL    HW180283   1.969   6.280   0.994 -0.4548  2.6009 -0.0998
23451SOL    HW280284   1.839   6.333   0.938 -1.1042  0.0405 -1.1270
23452SOL     OW80285   3.966   3.669   1.630 -0.5788 -0.0636  0.3177
23452SOL    HW180286   3.920   3.753   1.631 -2.6258 -1.0943 -0.0118
23452SOL    HW280287   3.997   3.660   1.540 -3.4219 -1.1156 -0.6678
23453SOL     OW80288   9.589   5.520   2.549  0.4488 -0.0922 -1.1241
23453SOL    HW180289   9.544   5.437   2.536  1.3640 -0.6544 -0.7900
23453SOL    HW280290   9.649   5.503   2.621 -0.4059  1.2889 -0.0485
23454SOL     OW80291   3.302   1.653   0.909  0.0711 -0.5710  0.3396
23454SOL    HW180292   3.281   1.675   0.818  3.2003 -0.6479 -0.4992
23454SOL    HW280293   3.281   1.560   0.917  0.9506 -0.8800 -0.7230
23455SOL     OW80294  12.171   4.408   2.336  0.0404 -0.5302  0.3728
23455SOL    HW180295  12.116   4.485   2.346 -0.3618 -0.9990  2.1922
23455SOL    HW280296  12.259   4.443   2.322 -0.5532  0.2202 -1.8743
23456SOL     OW80297   6.968   4.232  12.815 -0.2216 -0.3891  0.5635
23456SOL    HW180298   6.965   4.296  12.744  1.0791  0.8626  1.5821
23456SOL    HW280299   6.989   4.149  12.772 -0.7720  0.0759 -0.6502
23457SOL     OW80300   0.422   9.293  10.112  0.0191  0.2459  0.0104
23457SOL    HW180301   0.508   9.281  10.154  0.3153  0.2795 -0.5754
23457SOL    HW280302   0.409   9.212  10.062 -0.8303 -0.2646  1.0206
23458SOL     OW80303  11.914   7.477   2.362 -0.6240  0.0467  0.1852
23458SOL    HW180304  11.984   7.481   2.297 -0.5680 -0.0700  0.2391
23458SOL    HW280305  11.937   7.545   2.425 -0.8389  0.3644 -0.0754
23459SOL     OW80306   1.593   2.665   0.715  0.4477  0.6728  0.1884
23459SOL    HW180307   1.522   2.628   0.663  1.6087  0.8326 -1.6061
23459SOL    HW280308   1.563   2.753   0.736  0.3226  0.9418 -1.0336
23460SOL     OW80309  13.248   5.017   9.807 -0.7039 -0.3661  0.0106
23460SOL    HW180310  13.278   5.106   9.827  0.2460 -0.6820  0.0153
23460SOL    HW280311  13.188   4.996   9.878 -1.5641  0.5662 -0.4069
23461SOL     OW80312  10.001   4.019   8.616 -0.4909  0.0299  0.2314
23461SOL    HW180313   9.940   4.074   8.665 -0.5958  0.1105  0.0126
23461SOL    HW280314   9.990   3.932   8.654  1.2266  0.5494  2.0487
23462SOL     OW80315   1.839   2.499   8.151 -0.3641  0.3850  0.2396
23462SOL    HW180316   1.842   2.455   8.066 -0.0957 -2.1616  1.4575
23462SOL    HW280317   1.873   2.587   8.134  0.6760 -0.3869 -2.0965
23463SOL     OW80318   4.836   1.572   5.427  0.4710  0.6856  0.0167
23463SOL    HW180319   4.827   1.485   5.464  1.0039  0.8592  0.5771
23463SOL    HW280320   4.762   1.621   5.464  1.5461  1.1312  1.7096
23464SOL     OW80321   6.947  12.572   1.225 -0.1590  0.0740  0.3823
23464SOL    HW180322   7.040  12.594   1.211  0.6812 -1.9819  2.1462
23464SOL    HW280323   6.939  12.563   1.320 -2.0583 -0.3110  0.2163
23465SOL     OW80324   6.646   0.698   4.736 -0.0058 -0.2836 -0.2283
23465SOL    HW180325   6.624   0.780   4.782 -0.2255 -0.6106  0.2520
23465SOL    HW280326   6.626   0.629   4.799 -0.0078 -0.7212 -0.7072
23466SOL     OW80327   1.876   1.936  10.661  0.0360  0.2881 -0.8261
23466SOL    HW180328   1.955   1.931  10.606 -0.0894  2.3526 -1.2833
23466SOL    HW280329   1.909   1.964  10.746 -0.2544  2.3953 -1.3462
23467SOL     OW80330   8.266   1.580   2.146  0.5778  0.2016 -0.4435
23467SOL    HW180331   8.278   1.675   2.144  0.7269  0.1796 -0.5893
23467SOL    HW280332   8.316   1.548   2.071  0.9983 -0.0500 -0.0566
23468SOL     OW80333   4.510  12.463  11.234 -0.4205  0.3977 -0.0543
23468SOL    HW180334   4.515  12.429  11.324  1.6691  0.9373  0.0875
23468SOL    HW280335   4.525  12.557  11.244 -0.4590  0.5014 -0.9495
23469SOL     OW80336   5.959  13.300   9.568  0.0435 -0.1064 -0.1065
23469SOL    HW180337   6.051  13.315   9.547 -0.4788  4.1477 -0.0565
23469SOL    HW280338   5.913  13.308   9.485 -0.4722 -0.4140  0.1385
23470SOL     OW80339   5.426   3.409   4.411  0.1432 -0.1048 -0.0055
23470SOL    HW180340   5.368   3.398   4.486  0.8844  0.6376  0.6866
23470SOL    HW280341   5.503   3.356   4.433 -0.2700 -1.1506 -0.9532
23471SOL     OW80342   8.126   8.662   2.575  0.1941  0.1310 -0.2602
23471SOL    HW180343   8.137   8.744   2.624 -0.0391 -0.4660  0.8073
23471SOL    HW280344   8.039   8.631   2.599  0.4009 -0.5949 -0.4208
23472SOL     OW80345   2.397   2.111   0.658  0.2486 -0.4602  0.1955
23472SOL    HW180346   2.427   2.107   0.568 -0.0700 -0.4171  0.0847
23472SOL    HW280347   2.474   2.139   0.708  0.1392  0.6589 -0.2222
23473SOL     OW80348   0.238   6.722  12.069 -0.3058  0.1248 -0.0419
23473SOL    HW180349   0.274   6.660  12.005  0.8059 -0.4755  1.1370
23473SOL    HW280350   0.153   6.747  12.032  0.3052 -0.1918 -1.7562
23474SOL     OW80351   1.035   9.864   0.385 -0.1244  0.2400  0.5695
23474SOL    HW180352   1.000   9.791   0.435 -1.2168 -0.4153 -1.0635
23474SOL    HW280353   0.987   9.940   0.416 -2.4889 -0.5029 -0.9865
23475SOL     OW80354  12.352  10.658   9.749  0.0647 -0.1298  0.4796
23475SOL    HW180355  12.321  10.568   9.747 -1.0228  0.2312  0.2392
23475SOL    HW280356  12.442  10.654   9.715  0.1392 -1.1570  0.7998
23476SOL     OW80357   8.818  11.565   6.768 -0.2068  0.5711  0.2728
23476SOL    HW180358   8.806  11.520   6.684  2.3321  0.6250 -0.1968
23476SOL    HW280359   8.821  11.494   6.832  2.1719  0.0977 -0.2735
23477SOL     OW80360   6.307   9.406   2.800  0.0234 -0.0659  0.1005
23477SOL    HW180361   6.354   9.323   2.789 -0.1395 -0.0880 -0.4315
23477SOL    HW280362   6.222   9.391   2.758 -0.6755 -0.2056  1.5083
23478SOL     OW80363  10.786  12.864   2.973  0.5876 -0.2040  0.2877
23478SOL    HW180364  10.706  12.916   2.963  1.3992  0.8372 -1.2246
23478SOL    HW280365  10.820  12.888   3.059 -1.6662 -2.1083  1.8243
23479SOL     OW80366   2.553  12.300   0.472  0.4218  0.5304 -0.2457
23479SOL    HW180367   2.505  12.266   0.548  2.3584 -1.8134  0.0439
23479SOL    HW280368   2.545  12.231   0.406  1.2162  1.2507 -1.1108
23480SOL     OW80369  10.543   9.151   8.421 -0.0054 -0.1889 -0.1939
23480SOL    HW180370  10.564   9.099   8.499 -0.5082 -0.9964 -0.5736
23480SOL    HW280371  10.581   9.237   8.438 -0.2857 -0.2842  1.0288
23481SOL     OW80372  12.016  10.078   9.605  0.6566 -0.0159  0.4514
23481SOL    HW180373  12.000  10.007   9.667  0.0827  0.6946  1.1433
23481SOL    HW280374  12.009  10.037   9.519  0.9492 -0.9158  0.8411
23482SOL     OW80375  12.076   7.879   6.991 -0.1110  0.4664  0.3037
23482SOL    HW180376  11.993   7.848   7.026  0.5647 -2.5616 -0.4824
23482SOL    HW280377  12.061   7.887   6.897  0.8327 -1.6644 -0.0798
23483SOL     OW80378   3.346   9.679  11.223  0.5458  0.2815 -1.0965
23483SOL    HW180379   3.441   9.670  11.217  0.7674  2.1420 -0.9670
23483SOL    HW280380   3.329   9.699  11.315  0.1045  0.5591 -1.2294
23484SOL     OW80381   1.679   0.248  11.433  0.5593  0.0271  0.1629
23484SOL    HW180382   1.772   0.257  11.416  0.9379 -0.0092  2.0386
23484SOL    HW280383   1.665   0.293  11.516 -0.9542 -0.6497  0.3071
23485SOL     OW80384   2.451  12.975   4.865 -0.1638  0.3747 -0.3065
23485SOL    HW180385   2.399  13.038   4.816 -0.6379  1.6639  1.7041
23485SOL    HW280386   2.518  13.028   4.909 -1.1607 -0.2932  2.2059
23486SOL     OW80387   3.281   4.193   1.832 -0.3580 -0.2922  0.1835
23486SOL    HW180388   3.245   4.110   1.801 -1.3211  0.0759  0.2798
23486SOL    HW280389   3.373   4.174   1.850  0.6719 -0.3015 -3.9732
23487SOL     OW80390   2.437  12.831   2.522  0.3199 -0.2941 -0.0515
23487SOL    HW180391   2.473  12.844   2.434 -0.8052 -0.0465 -0.4872
23487SOL    HW280392   2.477  12.901   2.575  0.7862 -0.2754 -0.4205
23488SOL     OW80393   3.292   3.247  12.942 -0.2891  0.9137  0.3954
23488SOL    HW180394   3.211   3.284  12.909 -1.1793 -2.0407 -1.0794
23488SOL    HW280395   3.274   3.227  13.034 -0.0699  3.1312  0.9701
23489SOL     OW80396   4.595   3.530   1.986  0.2237 -0.1536 -0.4711
23489SOL    HW180397   4.655   3.459   1.962  0.6494  0.0584 -0.0517
23489SOL    HW280398   4.622   3.603   1.931  0.7562  0.1266  0.1501
23490SOL     OW80399  13.290   1.176  11.559 -0.1449  0.6364 -0.1658
23490SOL    HW180400  13.270   1.246  11.620 -0.9756 -1.8311  2.6395
23490SOL    HW280401  13.363   1.129  11.599 -2.3227 -2.5618  0.4220
23491SOL     OW80402   8.223   5.844  11.062 -0.0242  0.3970 -0.9762
23491SOL    HW180403   8.246   5.763  11.108 -0.6664 -0.3968 -2.0175
23491SOL    HW280404   8.131   5.859  11.084 -0.0163  0.6278 -1.1009
23492SOL     OW80405   2.907   3.087   9.029 -0.2718 -0.7511  0.1203
23492SOL    HW180406   2.903   3.092   9.124  0.5914 -0.3564  0.1431
23492SOL    HW280407   2.815   3.093   9.001 -0.6124 -1.8639  0.9545
23493SOL     OW80408   9.607   6.448   5.970 -0.6867  0.0022  0.3567
23493SOL    HW180409   9.702   6.456   5.981 -0.7154  0.9111  0.0269
23493SOL    HW280410   9.593   6.458   5.875 -1.1858  0.7970  0.5004
23494SOL     OW80411   1.422   1.908  11.521 -0.4695 -0.6989 -0.4317
23494SOL    HW180412   1.491   1.930  11.584 -0.9418  0.1267 -0.1910
23494SOL    HW280413   1.345   1.891  11.574 -0.3671 -2.0631 -0.6755
23495SOL     OW80414   3.837   2.397  11.855  0.4457  0.0065  0.1156
23495SOL    HW180415   3.762   2.375  11.799  0.2713 -0.3480  0.4804
23495SOL    HW280416   3.910   2.404  11.794  0.1148  0.3710 -0.2487
23496SOL     OW80417   8.799  12.398   9.184  0.2624  0.2269 -0.5984
23496SOL    HW180418   8.796  12.315   9.230  1.4871 -1.4245 -3.2587
23496SOL    HW280419   8.724  12.395   9.124 -0.2831  1.5258 -0.0209
23497SOL     OW80420   8.078   6.583   0.832 -0.2532  0.2891 -0.0663
23497SOL    HW180421   8.162   6.537   0.831 -0.9575 -1.0502 -1.3894
23497SOL    HW280422   8.100   6.675   0.822  1.0253 -0.1084 -1.0523
23498SOL     OW80423   2.525  12.611   9.909  0.3200 -0.1045  0.5127
23498SOL    HW180424   2.564  12.610   9.996  2.1787  0.7859 -0.2610
23498SOL    HW280425   2.593  12.577   9.851 -0.3646  0.6308 -0.7654
23499SOL     OW80426   2.113   1.648   4.858 -0.6972  0.3679  0.7944
23499SOL    HW180427   2.146   1.601   4.935 -1.1041 -1.6264 -0.1719
23499SOL    HW280428   2.018   1.649   4.870 -0.9415 -1.6035 -0.4764
23500SOL     OW80429  12.503   7.409   2.623 -0.0851 -0.1586 -0.2138
23500SOL    HW180430  12.470   7.448   2.542  0.7799  2.4332  0.5522
23500SOL    HW280431  12.549   7.481   2.666  3.1930 -2.5391  0.6044
23501SOL     OW80432   3.932   3.180  13.022  0.4930  0.2070 -0.1574
23501SOL    HW180433   3.954   3.123  13.095  0.0676  2.7344  2.0915
23501SOL    HW280434   3.837   3.175  13.016  0.4109  1.0209  0.3754
23502SOL     OW80435   9.807   6.766   6.516 -0.2431  0.2416  0.4888
23502SOL    HW180436   9.897   6.798   6.511 -0.1066 -0.1626  0.2393
23502SOL    HW280437   9.760   6.814   6.447 -0.7344  2.0055  1.9860
23503SOL     OW80438   4.250  12.292   1.639 -0.1979 -0.0815 -0.1552
23503SOL    HW180439   4.160  12.291   1.607  0.0382  0.7770 -0.9061
23503SOL    HW280440   4.269  12.385   1.653  0.6281 -0.2353 -0.1960
23504SOL     OW80441   8.173   6.485   5.367 -0.1325 -0.5576 -0.2225
23504SOL    HW180442   8.119   6.560   5.341  0.7804  0.2419  0.1239
23504SOL    HW280443   8.133   6.453   5.448  0.3625  0.5290  0.4692
23505SOL     OW80444   8.068   0.445  10.926 -0.3695  0.0859  0.0750
23505SOL    HW180445   7.973   0.445  10.941 -0.5100  1.4507 -0.6341
23505SOL    HW280446   8.097   0.528  10.962  0.0478  1.1356 -2.4502
23506SOL     OW80447  12.844   0.228   2.638  0.1066 -0.0574  0.0666
23506SOL    HW180448  12.764   0.267   2.603 -1.2100 -0.5331  2.2701
23506SOL    HW280449  12.900   0.302   2.659 -0.2171  0.3529 -0.4975
23507SOL     OW80450   3.816   8.595   9.539  0.0326  0.2496 -0.0831
23507SOL    HW180451   3.795   8.679   9.580 -1.2904  0.0283 -0.2500
23507SOL    HW280452   3.871   8.550   9.602 -0.3225  0.7265  0.5758
23508SOL     OW80453  13.093   3.253   2.770 -0.3031  0.2389  0.2340
23508SOL    HW180454  13.159   3.254   2.839 -0.6071 -0.7424  0.5429
23508SOL    HW280455  13.138   3.291   2.694  0.6418 -0.4549  0.4254
23509SOL     OW80456   9.882   8.711   2.633 -0.6587 -0.1603 -0.1718
23509SOL    HW180457   9.928   8.629   2.650  0.3065  0.3976 -0.0047
23509SOL    HW280458   9.789   8.686   2.628 -0.8226 -0.7459  3.5264
23510SOL     OW80459   2.373   5.917   0.877  0.5684 -0.0433  0.0131
23510SOL    HW180460   2.320   5.940   0.801  0.2780  0.6761  0.4262
23510SOL    HW280461   2.462   5.944   0.853  0.4970  0.0802 -0.1145
23511SOL     OW80462  10.755   3.596   0.431  0.4021 -0.5487 -0.0346
23511SOL    HW180463  10.706   3.617   0.352 -1.2566 -2.1322  0.4943
23511SOL    HW280464  10.753   3.676   0.484 -1.4168 -0.4882 -0.1564
23512SOL     OW80465   9.960  12.729   5.715  0.6541 -0.0328 -0.1575
23512SOL    HW180466  10.000  12.702   5.798 -0.5698 -0.5995  0.2684
23512SOL    HW280467   9.992  12.666   5.651  1.0806  0.0108  0.0051
23513SOL     OW80468   4.152  10.013   4.942  0.3591  0.1357  0.1798
23513SOL    HW180469   4.202   9.985   4.866  0.2350 -0.9284  0.4814
23513SOL    HW280470   4.147   9.936   4.998 -2.9241 -0.3391 -0.5461
23514SOL     OW80471  10.893  12.866   7.465 -0.2776 -0.4128 -0.2630
23514SOL    HW180472  10.812  12.862   7.516 -0.9583  0.3215 -1.2314
23514SOL    HW280473  10.963  12.855   7.529 -1.1224 -0.4239  0.6838
23515SOL     OW80474   4.560  12.848   4.096 -0.3944 -0.2879 -0.2112
23515SOL    HW180475   4.582  12.778   4.157  2.5990 -0.2116 -1.0493
23515SOL    HW280476   4.513  12.804   4.025 -0.0631 -1.1617  0.0965
23516SOL     OW80477   5.933  11.742   3.495  0.0450 -0.1758 -0.1469
23516SOL    HW180478   6.018  11.733   3.452 -0.3969 -2.2135 -0.7204
23516SOL    HW280479   5.878  11.787   3.432  0.0342 -1.1246 -0.8378
23517SOL     OW80480   8.067   0.505  10.162 -0.1998 -0.1036 -0.6040
23517SOL    HW180481   8.075   0.411  10.180 -0.7535 -0.1948 -0.8060
23517SOL    HW280482   8.126   0.547  10.224  0.1744 -0.5988 -0.6261
23518SOL     OW80483   9.348  10.092   6.064  0.3148 -0.2128  0.1037
23518SOL    HW180484   9.346  10.182   6.098 -0.8818 -0.3687  0.4898
23518SOL    HW280485   9.262  10.057   6.083  0.9133 -1.6151  0.3681
23519SOL     OW80486   6.686   7.433   8.697  0.3410  0.0019 -0.2323
23519SOL    HW180487   6.688   7.526   8.718  3.2104  0.0529 -0.3375
23519SOL    HW280488   6.648   7.429   8.610 -1.8143  0.7890  0.5841
23520SOL     OW80489   8.977   9.311   8.262 -0.4787 -0.1786 -0.1988
23520SOL    HW180490   8.952   9.361   8.185 -1.6410  1.6263  1.2577
23520SOL    HW280491   8.935   9.357   8.335  1.3170 -1.2476  1.6248
23521SOL     OW80492   1.321   0.296  11.244 -0.1836 -0.2044 -0.5947
23521SOL    HW180493   1.289   0.358  11.179 -1.3904  0.2245  0.3958
23521SOL    HW280494   1.403   0.262  11.206  1.2843  2.9814 -0.5682
23522SOL     OW80495   7.346  12.391   7.296 -0.4982  0.1712 -0.0112
23522SOL    HW180496   7.297  12.462   7.255  0.0479  0.7288  0.2747
23522SOL    HW280497   7.384  12.430   7.375 -0.8053 -0.6455  0.5542
23523SOL     OW80498   7.413   9.918   7.207  0.3256  0.5047 -0.2483
23523SOL    HW180499   7.506   9.915   7.229 -0.0372  0.0341  1.3657
23523SOL    HW280500   7.389  10.011   7.211  0.6226  0.5759 -0.1478
23524SOL     OW80501   1.154   8.769   5.063 -0.4779  0.0646 -0.0119
23524SOL    HW180502   1.212   8.807   5.129  0.1197 -1.8805  0.6424
23524SOL    HW280503   1.206   8.769   4.983  0.3284 -1.3256  0.4865
23525SOL     OW80504  10.817   0.105   7.935 -1.0602 -0.0448  0.0237
23525SOL    HW180505  10.832   0.183   7.881 -1.0220 -0.4667 -0.5878
23525SOL    HW280506  10.903   0.085   7.972 -1.3024  0.8765  1.1254
23526SOL     OW80507   3.702   4.202   8.091 -0.1375  0.1656 -0.8060
23526SOL    HW180508   3.671   4.291   8.074 -0.2101  0.0511 -1.2747
23526SOL    HW280509   3.643   4.146   8.040 -0.8162 -0.2297  0.3722
23527SOL     OW80510   0.532   6.449   3.613 -0.0862 -0.1084 -0.1492
23527SOL    HW180511   0.572   6.500   3.542 -1.4392  1.8555  0.3879
23527SOL    HW280512   0.439   6.448   3.591 -0.3942 -0.2723  1.1221
23528SOL     OW80513   8.594   5.621  13.182 -0.3530  0.2020 -0.1761
23528SOL    HW180514   8.613   5.556  13.113  0.8651 -0.5807  0.8472
23528SOL    HW280515   8.504   5.603  13.207 -0.7642  0.3870 -1.4253
23529SOL     OW80516   9.230  11.125   2.017  0.1236  0.4045  0.3907
23529SOL    HW180517   9.174  11.180   1.962 -0.9873 -0.4052  0.6777
23529SOL    HW280518   9.310  11.177   2.029 -0.1961  1.2060 -0.7722
23530SOL     OW80519   7.922   6.867   9.301  1.1134 -0.1192  0.0095
23530SOL    HW180520   7.878   6.822   9.228 -0.3191  1.5767 -0.2498
23530SOL    HW280521   8.007   6.823   9.309  0.0504 -2.4395 -0.5833
23531SOL     OW80522  11.486   4.716   7.986 -0.1029 -0.2384  0.1577
23531SOL    HW180523  11.440   4.680   7.911 -1.0543 -2.2393  1.6010
23531SOL    HW280524  11.452   4.805   7.995 -1.5110 -0.6808 -0.5557
23532SOL     OW80525   3.801  10.456  12.942  0.3902 -0.2959  0.2571
23532SOL    HW180526   3.805  10.426  13.033 -1.3241 -1.1666  0.0983
23532SOL    HW280527   3.773  10.547  12.948  0.1123 -0.4030  0.5983
23533SOL     OW80528   1.238   8.510  11.817  0.5073 -0.1846  0.6480
23533SOL    HW180529   1.257   8.587  11.871 -3.2871  0.4296  1.3783
23533SOL    HW280530   1.185   8.454  11.874 -0.1988 -1.4306 -1.1612
23534SOL     OW80531   9.216   8.116   7.006  0.0745 -0.1409  0.3715
23534SOL    HW180532   9.166   8.102   6.926  0.6923  0.4927 -0.1406
23534SOL    HW280533   9.155   8.094   7.077 -0.4062 -0.9210 -0.2669
23535SOL     OW80534   8.501   7.725   5.128  0.3434  0.1166  0.0098
23535SOL    HW180535   8.567   7.724   5.197  2.0113  0.1863 -1.5266
23535SOL    HW280536   8.454   7.642   5.138  0.8556 -0.0765  0.9245
23536SOL     OW80537   8.334  10.575   7.523  0.3785 -0.8071  0.7033
23536SOL    HW180538   8.402  10.642   7.519 -1.0503  0.6525 -0.7865
23536SOL    HW280539   8.290  10.590   7.607  0.0129  0.2190  0.3411
23537SOL     OW80540   9.287  11.889   8.555 -0.3502 -0.0593  0.7873
23537SOL    HW180541   9.224  11.823   8.583  0.3629 -1.8448 -1.4760
23537SOL    HW280542   9.371  11.856   8.587 -0.1170  0.2884  0.5330
23538SOL     OW80543   2.367   8.613   0.993  0.0882 -0.3607 -0.2640
23538SOL    HW180544   2.293   8.645   0.942 -0.1619  0.5890  0.6725
23538SOL    HW280545   2.364   8.518   0.983  1.5587 -0.1835 -4.1221
23539SOL     OW80546   7.366   0.949   8.105  0.3592  0.4935  0.4653
23539SOL    HW180547   7.392   0.888   8.173  0.0292 -0.5014 -0.2897
23539SOL    HW280548   7.435   1.016   8.105  0.5658  0.2848  1.4818
23540SOL     OW80549   3.325   4.836  12.066 -0.5572  0.2619 -0.0390
23540SOL    HW180550   3.234   4.847  12.039  0.5524  0.7881 -4.2282
23540SOL    HW280551   3.353   4.756  12.022  1.1243  0.3363  0.8327
23541SOL     OW80552   2.834   6.757  11.186  0.0310  0.1039  0.1837
23541SOL    HW180553   2.916   6.711  11.171  0.8101  1.3135  0.5852
23541SOL    HW280554   2.810   6.734  11.276  0.5829  0.7006  0.4933
23542SOL     OW80555   4.074   0.342  12.081 -0.2643 -0.5406  0.2965
23542SOL    HW180556   4.101   0.260  12.122 -1.9323 -1.2512  0.0586
23542SOL    HW280557   4.054   0.319  11.991  0.2933  0.3664 -0.0795
23543SOL     OW80558   2.507   1.117   7.891  0.0103 -1.4993 -0.2050
23543SOL    HW180559   2.593   1.145   7.922  0.3122 -1.6189 -0.9308
23543SOL    HW280560   2.446   1.177   7.933  0.5340 -0.6512 -0.6274
23544SOL     OW80561  10.682  12.790   1.819 -0.3352  0.0808  0.3476
23544SOL    HW180562  10.596  12.822   1.793  0.0113 -1.6190 -3.6283
23544SOL    HW280563  10.744  12.844   1.769  0.6417 -1.1801  0.1322
23545SOL     OW80564   2.708   1.442  10.111  0.3656  0.3245  0.0151
23545SOL    HW180565   2.791   1.489  10.113 -0.1135  1.2083 -0.4283
23545SOL    HW280566   2.644   1.502  10.151 -0.0177 -0.4545  0.6179
23546SOL     OW80567   0.055   5.404  13.284 -0.5885 -0.2973  0.0954
23546SOL    HW180568  -0.007   5.466  13.324 -0.5575  0.0928 -0.4485
23546SOL    HW280569   0.141   5.434  13.314 -0.4704  0.6969 -1.1588
23547SOL     OW80570   3.024   7.039  11.353  0.5883 -0.3595 -0.2355
23547SOL    HW180571   3.024   7.013  11.445  1.5268 -0.0288 -0.1286
23547SOL    HW280572   2.939   7.081  11.339 -0.3631 -2.1182 -0.0336
23548SOL     OW80573   3.653  10.566  13.259  0.8329  0.1606 -0.4939
23548SOL    HW180574   3.699  10.484  13.277  1.2626  0.6463  0.6664
23548SOL    HW280575   3.714  10.634  13.287  0.0309  0.8576 -0.4199
23549SOL     OW80576   9.419   6.065  11.206 -0.4670  0.0774 -0.1817
23549SOL    HW180577   9.421   6.083  11.300 -0.5066  0.3822 -0.2407
23549SOL    HW280578   9.510   6.042  11.184 -0.8684 -2.4191  0.4032
23550SOL     OW80579  10.401   5.355  11.326  0.0352 -0.2453 -0.6349
23550SOL    HW180580  10.409   5.420  11.256  1.6635  0.2819 -0.0064
23550SOL    HW280581  10.463   5.286  11.301  1.4542  0.4545  0.7591
23551SOL     OW80582   4.242   9.313   5.358 -0.2238  0.2563 -0.2778
23551SOL    HW180583   4.152   9.296   5.386 -0.7661  1.6319 -1.1161
23551SOL    HW280584   4.296   9.261   5.419 -1.4770  0.9406  1.5109
23552SOL     OW80585   2.777   9.441  13.198 -0.3235  0.4910  0.0104
23552SOL    HW180586   2.766   9.456  13.105 -1.3865 -1.1315 -0.1696
23552SOL    HW280587   2.869   9.418  13.208 -0.2788  0.3337 -0.7066
23553SOL     OW80588  12.141   9.457   2.233  0.2023 -0.1178 -0.2564
23553SOL    HW180589  12.045   9.452   2.236  0.2440 -0.7079  0.5051
23553SOL    HW280590  12.170   9.373   2.271  1.0174  0.0409 -0.5154
23554SOL     OW80591   5.455   6.160  10.453 -0.3379  0.3169 -0.4069
23554SOL    HW180592   5.500   6.111  10.522  0.9941  0.2586 -1.2990
23554SOL    HW280593   5.438   6.246  10.492  2.7795  1.2384 -0.7768
23555SOL     OW80594   7.302  12.706   6.945 -0.7545 -0.0579  0.0924
23555SOL    HW180595   7.275  12.687   7.035 -1.0533  1.1177  0.2646
23555SOL    HW280596   7.336  12.795   6.948  0.5585 -0.5058 -0.6942
23556SOL     OW80597   2.710   3.392   6.470 -0.6830  0.3533  0.1339
23556SOL    HW180598   2.698   3.354   6.557 -0.8347  1.6488  0.7138
23556SOL    HW280599   2.707   3.318   6.410 -0.2957 -0.6014  1.2573
23557SOL     OW80600  10.284   7.189   9.989  0.3855 -0.0514  0.3964
23557SOL    HW180601  10.356   7.126   9.977 -0.0382 -0.5014  0.1618
23557SOL    HW280602  10.318   7.253  10.051  0.8032 -0.5620  0.7028
23558SOL     OW80603  10.556   5.924   8.576  0.0773  0.2285 -0.3747
23558SOL    HW180604  10.518   5.885   8.497 -2.3477  1.2574  0.1898
23558SOL    HW280605  10.634   5.871   8.594 -0.2927 -1.1196 -2.4569
23559SOL     OW80606   2.993   5.473  12.474  0.1717  0.3630 -0.3264
23559SOL    HW180607   2.923   5.408  12.473  0.0450  0.5000 -0.5608
23559SOL    HW280608   2.993   5.506  12.564 -0.6116  0.9334 -0.5222
23560SOL     OW80609   7.960  12.321   3.800  0.3889  0.6877 -0.0193
23560SOL    HW180610   8.047  12.352   3.825  0.9312  0.2356 -1.2239
23560SOL    HW280611   7.955  12.338   3.706 -1.5291  2.3123  0.3069
23561SOL     OW80612   0.971  10.107   6.703  0.1386 -0.3596  0.0488
23561SOL    HW180613   0.943  10.108   6.611 -2.1778 -0.1991  0.6824
23561SOL    HW280614   0.940  10.022   6.737 -0.5423  0.2787  1.0787
23562SOL     OW80615   8.569   4.435   2.752 -0.2366  0.3131  0.2075
23562SOL    HW180616   8.517   4.444   2.832 -0.1053 -1.3232  0.5175
23562SOL    HW280617   8.522   4.486   2.687 -0.4317  1.5494  1.2836
23563SOL     OW80618  10.645  12.162   5.511 -0.1316 -0.4878 -0.5307
23563SOL    HW180619  10.740  12.165   5.500  0.2090  0.0714  2.0802
23563SOL    HW280620  10.613  12.231   5.453  1.0396 -0.6365 -1.4009
23564SOL     OW80621   1.388  12.859   2.049 -0.1070  0.4566 -0.0392
23564SOL    HW180622   1.461  12.803   2.074 -0.9596 -0.7327 -0.1261
23564SOL    HW280623   1.412  12.946   2.081  0.5611 -0.2474  1.4719
23565SOL     OW80624  12.824   6.100   1.710  0.4005  0.0740  0.1770
23565SOL    HW180625  12.735   6.099   1.675  0.5000  2.4735 -0.2757
23565SOL    HW280626  12.823   6.034   1.779 -1.1851 -1.2717 -1.0517
23566SOL     OW80627  10.843   8.677   3.534  0.1889 -0.1170 -0.5388
23566SOL    HW180628  10.810   8.667   3.623  1.0602 -1.0875 -0.2979
23566SOL    HW280629  10.777   8.636   3.478 -0.5730  0.8898 -0.3953
23567SOL     OW80630  12.522  11.170  12.998  0.0506  0.0835 -0.4745
23567SOL    HW180631  12.439  11.214  13.017 -0.1908  0.1198 -1.5415
23567SOL    HW280632  12.503  11.077  13.010  0.1277  0.1483  0.2123
23568SOL     OW80633  10.972   6.455   4.960 -0.4439  0.2437  0.1409
23568SOL    HW180634  11.067   6.466   4.967 -0.6687  1.5577  1.4233
23568SOL    HW280635  10.948   6.398   5.033 -0.7446  0.5659  0.2971
23569SOL     OW80636  11.309   5.041  10.292 -0.2735 -1.0916 -0.3033
23569SOL    HW180637  11.259   5.086  10.360  0.8951  2.5571 -1.6503
23569SOL    HW280638  11.245   4.987  10.246 -2.7073  1.9812 -0.8019
23570SOL     OW80639  11.991   6.741   2.702  0.0002  0.0967  0.7600
23570SOL    HW180640  11.948   6.803   2.644 -0.7697 -2.0481 -1.1171
23570SOL    HW280641  11.919   6.694   2.745  0.2176 -3.0998 -1.9448
23571SOL     OW80642   6.781   0.966  10.588 -0.2784 -0.0692  0.1285
23571SOL    HW180643   6.751   1.056  10.603  0.9766  0.6467 -1.3581
23571SOL    HW280644   6.842   0.973  10.515  1.2907 -1.8622  1.1738
23572SOL     OW80645   6.075   6.044  10.267  0.1847 -0.3254  0.5495
23572SOL    HW180646   6.077   6.139  10.254  2.8549 -0.3905 -0.0009
23572SOL    HW280647   5.982   6.024  10.280 -0.4705  2.3190  0.5143
23573SOL     OW80648  10.814   4.862   7.672 -0.5117 -0.5945  0.3446
23573SOL    HW180649  10.824   4.851   7.766  0.6089 -1.2783  0.1665
23573SOL    HW280650  10.823   4.956   7.658  0.1096 -0.5686  0.8521
23574SOL     OW80651   0.364  10.045   2.463 -0.1952 -0.0337 -0.4213
23574SOL    HW180652   0.282  10.086   2.435 -0.8138 -0.2085  1.0277
23574SOL    HW280653   0.356   9.954   2.435 -1.2595 -0.4590  1.1545
23575SOL     OW80654   5.125   7.205  10.661  0.0913 -0.3435 -0.5196
23575SOL    HW180655   5.107   7.130  10.604 -1.7167 -0.7817  0.5416
23575SOL    HW280656   5.099   7.175  10.749 -1.2195  1.6659 -0.1548
23576SOL     OW80657   2.984   0.927   7.619 -0.1720  0.6541  0.1753
23576SOL    HW180658   2.955   0.893   7.703 -0.9354  1.7242  0.3677
23576SOL    HW280659   3.064   0.878   7.599 -1.0993 -1.0875  0.5140
23577SOL     OW80660   9.140   8.095   1.068  0.0957 -0.2308 -0.1439
23577SOL    HW180661   9.063   8.108   1.013  0.2674 -0.4617 -0.4417
23577SOL    HW280662   9.105   8.067   1.152 -0.0735 -3.8810 -1.2712
23578SOL     OW80663   4.244   0.001   3.321  0.0715  0.1969  0.8928
23578SOL    HW180664   4.218   0.080   3.369 -0.7107 -0.0207  0.8443
23578SOL    HW280665   4.171  -0.015   3.260  0.0834 -0.7277  1.1121
23579SOL     OW80666   3.380   7.908   5.600  0.2860  0.0573 -0.0129
23579SOL    HW180667   3.459   7.959   5.580  0.5513 -0.4190 -0.1895
23579SOL    HW280668   3.412   7.820   5.619 -0.2808 -0.4508 -1.2401
23580SOL     OW80669   6.004  10.074   2.237 -0.2822 -0.3901 -0.0216
23580SOL    HW180670   5.951  10.134   2.185  0.8783 -0.2987 -1.1495
23580SOL    HW280671   6.066  10.036   2.175  0.0760 -1.5334  0.9881
23581SOL     OW80672   7.383   0.716   3.215 -0.2171  0.3911  0.0437
23581SOL    HW180673   7.304   0.769   3.210 -0.7975 -0.5266 -1.5040
23581SOL    HW280674   7.426   0.730   3.131  0.7489  0.1043  0.4778
23582SOL     OW80675   6.090   0.607   8.532 -0.0461  0.6889 -0.5155
23582SOL    HW180676   6.036   0.584   8.455  0.7547  0.3428 -0.9893
23582SOL    HW280677   6.152   0.671   8.499  0.3171  0.5245 -0.1599
23583SOL     OW80678   8.720   3.858   8.780 -0.2147 -0.1038  0.4208
23583SOL    HW180679   8.718   3.951   8.801  0.3807  0.1802 -0.6993
23583SOL    HW280680   8.737   3.815   8.864  1.2984  0.9257  0.6841
23584SOL     OW80681   5.463   7.238   4.103 -0.1790  0.2392 -0.2600
23584SOL    HW180682   5.418   7.297   4.163 -1.2111 -1.7088  0.9899
23584SOL    HW280683   5.555   7.260   4.111 -0.4172  0.7867  1.1699
23585SOL     OW80684   3.192  12.342  11.833  0.0764 -0.5145  0.0582
23585SOL    HW180685   3.227  12.311  11.917  0.2172  0.1480  0.2546
23585SOL    HW280686   3.270  12.356  11.778  0.0296 -0.3332  0.0375
23586SOL     OW80687   1.799   4.335  13.267  0.0359  0.2605  0.5559
23586SOL    HW180688   1.751   4.255  13.293 -0.1881  0.0575 -0.4594
23586SOL    HW280689   1.863   4.347  13.337 -1.4587  0.5164  1.9457
23587SOL     OW80690  12.136  12.136   2.542 -0.2302  0.3797  0.2964
23587SOL    HW180691  12.167  12.101   2.458  1.0605  1.9735  0.0688
23587SOL    HW280692  12.213  12.178   2.581 -0.5991 -0.9407  2.6507
23588SOL     OW80693   1.563   2.930  12.240 -0.1953 -0.8884 -0.1192
23588SOL    HW180694   1.639   2.897  12.287 -1.2843 -1.5537  1.2665
23588SOL    HW280695   1.571   2.894  12.152  1.7954  0.2103 -0.4509
23589SOL     OW80696  10.407   7.733   1.860  0.0122  0.6169  1.2072
23589SOL    HW180697  10.480   7.675   1.840  0.1477  0.7995  1.1630
23589SOL    HW280698  10.329   7.686   1.829  0.2591  1.0770 -0.1675
23590SOL     OW80699   6.781   7.990   3.132 -0.4238 -0.3127  0.2266
23590SOL    HW180700   6.862   7.985   3.081  0.2038  1.5028  0.9544
23590SOL    HW280701   6.768   7.901   3.165 -0.2202 -1.2674 -2.0927
23591SOL     OW80702  12.952  10.983   0.234 -0.6495 -0.4286 -0.0407
23591SOL    HW180703  12.858  11.000   0.225 -0.8565 -1.3674  0.2202
23591SOL    HW280704  12.994  11.065   0.207 -1.5047 -0.3164 -1.0923
23592SOL     OW80705   5.992   2.655   7.115 -0.0283  0.3365  0.0440
23592SOL    HW180706   6.073   2.705   7.126  0.3511 -0.4524  0.9458
23592SOL    HW280707   6.019   2.563   7.119 -1.0335  0.0585  0.9544
23593SOL     OW80708  12.276   0.434   1.690  0.2909  0.1792 -0.2507
23593SOL    HW180709  12.181   0.432   1.679 -0.3095  2.1309  3.2174
23593SOL    HW280710  12.304   0.343   1.680 -2.2300 -0.7534  0.5003
23594SOL     OW80711  11.698   3.866   7.740  0.1602  0.0357  0.3338
23594SOL    HW180712  11.624   3.845   7.684  0.1801  1.1118 -0.1301
23594SOL    HW280713  11.759   3.912   7.683 -0.0841  1.7188  1.3440
23595SOL     OW80714   1.655   5.374   6.678  0.0293  0.1245 -0.3210
23595SOL    HW180715   1.666   5.403   6.588  2.8784  3.1246  0.8039
23595SOL    HW280716   1.673   5.452   6.731  1.9543 -2.2620  2.9117
23596SOL     OW80717   6.998  12.788   4.211  0.4989 -0.5569 -0.1602
23596SOL    HW180718   6.946  12.797   4.291  1.6370  1.2730  0.4287
23596SOL    HW280719   6.934  12.799   4.140 -0.1100  0.5391  0.5282
23597SOL     OW80720   6.207   5.589   3.240  0.0039  0.0488  0.1658
23597SOL    HW180721   6.168   5.643   3.308 -0.0347  0.6689 -0.3405
23597SOL    HW280722   6.268   5.647   3.195  0.6492 -0.5870  0.2048
23598SOL     OW80723   2.910  12.169   9.026  0.0999 -0.0896  0.1809
23598SOL    HW180724   2.970  12.239   9.050  1.4398 -1.5674  1.3282
23598SOL    HW280725   2.824  12.201   9.055  0.7559  0.8390  1.1957
23599SOL     OW80726   6.970   1.495  10.403 -0.2120  0.2032 -0.0691
23599SOL    HW180727   7.005   1.493  10.314  0.1874 -1.6671  0.0726
23599SOL    HW280728   6.969   1.403  10.430 -0.3781  0.7189  1.8465
23600SOL     OW80729   4.175   4.408   9.921  0.0295  0.1782 -0.3788
23600SOL    HW180730   4.165   4.388  10.014 -1.1931 -1.8120 -0.8576
23600SOL    HW280731   4.265   4.437   9.911  0.4726 -0.5420  1.2764
23601SOL     OW80732   9.973   8.511   9.993  0.0616  0.3312 -0.3767
23601SOL    HW180733   9.898   8.462  10.026 -0.1011  0.4002 -0.6458
23601SOL    HW280734  10.009   8.457   9.923  3.4957 -2.3804  3.0633
23602SOL     OW80735  11.776  12.180  12.548  0.3300  0.3021  0.4253
23602SOL    HW180736  11.761  12.145  12.636  0.0838  1.2534  0.7691
23602SOL    HW280737  11.741  12.269  12.551 -0.8635 -0.0800 -1.0103
23603SOL     OW80738  11.893   1.882   4.559 -0.4191 -0.3052  0.0587
23603SOL    HW180739  11.969   1.932   4.527 -0.1912  0.2343  1.3671
23603SOL    HW280740  11.921   1.849   4.645 -0.8521 -2.0511 -0.4271
23604SOL     OW80741  12.096   7.846   4.957  0.3069  0.1653  0.1772
23604SOL    HW180742  12.063   7.904   4.889  1.8472 -0.5917 -1.2839
23604SOL    HW280743  12.188   7.833   4.935  0.5473 -1.0654  1.7366
23605SOL     OW80744   1.254   2.496  11.587 -0.4248 -0.0440  0.0613
23605SOL    HW180745   1.305   2.448  11.522  2.0511  2.1342  0.2253
23605SOL    HW280746   1.279   2.458  11.671  1.1302  1.0617  0.1480
23606SOL     OW80747   2.561   3.369   6.838  0.7212  0.0386  0.2806
23606SOL    HW180748   2.507   3.300   6.800  0.5954 -0.7400  1.8143
23606SOL    HW280749   2.499   3.429   6.879  0.8817  0.6124 -0.2993
23607SOL     OW80750   5.988   9.316   3.437 -0.0585  0.4110  0.5036
23607SOL    HW180751   5.961   9.406   3.456 -0.4935  0.0300  1.7964
23607SOL    HW280752   5.906   9.266   3.439  0.4770 -0.4760  2.7032
23608SOL     OW80753   6.289   5.079   1.051  0.5636 -0.2039  0.4733
23608SOL    HW180754   6.218   5.143   1.041 -0.1894 -0.7850  1.8582
23608SOL    HW280755   6.304   5.046   0.962 -0.3092  0.5490  0.0264
23609SOL     OW80756   9.258  10.159   1.902 -0.7460  0.1092 -0.2266
23609SOL    HW180757   9.352  10.155   1.916 -0.7165  0.0143 -0.4509
23609SOL    HW280758   9.221  10.170   1.990 -0.6164 -1.3291  0.0344
23610SOL     OW80759   5.723   7.555   7.431  0.1085  0.5703  0.0576
23610SOL    HW180760   5.675   7.511   7.361 -0.3732  0.1862  0.6233
23610SOL    HW280761   5.742   7.642   7.395 -0.6994  0.6067 -0.3107
23611SOL     OW80762   5.434  10.859   6.390 -0.0396  0.5387  0.0804
23611SOL    HW180763   5.489  10.902   6.324  0.3966  0.2865  0.2736
23611SOL    HW280764   5.382  10.796   6.341  2.2389 -1.6427  0.2708
23612SOL     OW80765   2.360   9.604   5.084 -0.3887  0.0175 -0.1252
23612SOL    HW180766   2.346   9.574   5.174  0.4889 -0.0530 -0.0070
23612SOL    HW280767   2.329   9.532   5.029  0.8828 -0.7684  0.1497
23613SOL     OW80768   4.752   4.763   3.388 -0.3013  0.0581 -0.1083
23613SOL    HW180769   4.675   4.710   3.366  0.3934 -1.3904  0.7682
23613SOL    HW280770   4.826   4.708   3.363  0.4502  0.6917  0.6677
23614SOL     OW80771   5.330  11.513  10.799  0.2601  0.0681 -0.8506
23614SOL    HW180772   5.257  11.504  10.860  1.7420 -0.3687  0.9356
23614SOL    HW280773   5.341  11.426  10.760 -0.1103  0.1215 -1.0826
23615SOL     OW80774  11.408   6.924  11.137  0.3679  0.6749  1.1513
23615SOL    HW180775  11.375   6.981  11.207  0.3108  0.6448  1.1494
23615SOL    HW280776  11.349   6.848  11.138 -0.2131  1.0976  0.4600
23616SOL     OW80777   1.054   3.894   7.050 -0.4781 -0.0307  0.3958
23616SOL    HW180778   1.057   3.948   7.129 -0.1152  2.8663 -1.4491
23616SOL    HW280779   1.144   3.892   7.017 -1.2032  2.8114 -2.2829
23617SOL     OW80780   4.306  11.654  12.974 -0.0416  0.4490  0.0873
23617SOL    HW180781   4.233  11.664  13.035 -0.1500 -0.0795  0.0449
23617SOL    HW280782   4.381  11.636  13.030  0.0800  1.0697  0.1365
23618SOL     OW80783   1.424   6.916  10.645 -0.1230  0.0122  0.3652
23618SOL    HW180784   1.449   6.994  10.693  0.9951  0.5024 -0.9529
23618SOL    HW280785   1.453   6.843  10.700  1.1089  0.5534  0.4568
23619SOL     OW80786   4.610   7.721   1.237  0.8806 -0.7186  0.1028
23619SOL    HW180787   4.526   7.765   1.250  0.3077 -1.4236 -0.9749
23619SOL    HW280788   4.641   7.701   1.325  1.3290  2.0735  0.6600
23620SOL     OW80789   1.283   5.018   2.534  0.0919  0.1279 -0.0677
23620SOL    HW180790   1.236   4.944   2.572 -0.5956 -0.0598 -1.2662
23620SOL    HW280791   1.375   4.989   2.532  0.0263 -0.1604  0.7060
23621SOL     OW80792   5.795   0.363   0.784 -0.2030  0.4591  0.0621
23621SOL    HW180793   5.774   0.273   0.806  1.9350  0.1044  0.8187
23621SOL    HW280794   5.793   0.410   0.867 -0.7420  1.0111 -0.2501
23622SOL     OW80795   9.919   2.050   4.012  0.8375  0.0270  0.1698
23622SOL    HW180796   9.988   1.985   4.004  0.1228 -0.6104 -1.1603
23622SOL    HW280797   9.922   2.099   3.930 -0.7916 -0.5657 -0.2949
23623SOL     OW80798  12.929   7.912   1.586 -0.5064 -0.1981 -0.0759
23623SOL    HW180799  12.984   7.883   1.513 -1.4134  0.4641 -1.0694
23623SOL    HW280800  12.843   7.929   1.545 -0.7243  1.3249  0.9254
23624SOL     OW80801   9.932   9.440   3.262  0.3974  0.2792 -0.0420
23624SOL    HW180802   9.901   9.353   3.287 -0.2066  0.5548  0.1745
23624SOL    HW280803   9.856   9.483   3.224  0.1568  1.4219  1.6545
23625SOL     OW80804  12.770   5.816  11.338 -0.0593  0.3016  0.4496
23625SOL    HW180805  12.747   5.874  11.266  0.2531 -1.3363 -1.0287
23625SOL    HW280806  12.848   5.769  11.308  0.7095  0.3077  2.2806
23626SOL     OW80807  13.196   6.810   7.762  0.6646  0.2133 -0.1098
23626SOL    HW180808  13.228   6.893   7.798 -0.7267  0.5407  0.4050
23626SOL    HW280809  13.101   6.820   7.757  0.6615 -0.3368 -2.6083
23627SOL     OW80810   2.552   4.926  11.109  0.1008  0.1864  0.5284
23627SOL    HW180811   2.562   4.977  11.190  1.1558  0.8785 -0.0107
23627SOL    HW280812   2.510   4.987  11.048 -0.2491 -0.1734  0.4098
23628SOL     OW80813   7.691   5.171   1.084 -0.3785 -0.4609 -0.1085
23628SOL    HW180814   7.703   5.139   1.174  1.2690  1.0313  0.2486
23628SOL    HW280815   7.598   5.194   1.080 -0.2570  0.5363  1.6287
23629SOL     OW80816  12.426  10.478  11.586 -0.1663 -0.5073  0.4988
23629SOL    HW180817  12.503  10.482  11.642  0.2633 -0.0771 -0.1149
23629SOL    HW280818  12.429  10.558  11.535  0.1314 -1.4518 -1.0227
23630SOL     OW80819   7.219  13.295   5.159 -0.7558  0.3559  0.0300
23630SOL    HW180820   7.199  13.202   5.152 -0.7909  0.4666 -1.8645
23630SOL    HW280821   7.301  13.299   5.207 -0.3807 -0.7044 -0.4926
23631SOL     OW80822   7.984  10.362   2.376 -0.1013  0.0836 -0.3004
23631SOL    HW180823   7.918  10.369   2.445 -1.5525  0.1146 -1.6214
23631SOL    HW280824   7.996  10.452   2.345  0.4529  0.0563 -0.1727
23632SOL     OW80825  12.462  12.470   2.980 -0.6869 -0.6118 -0.2847
23632SOL    HW180826  12.528  12.436   2.920  0.5401  1.0455  0.0365
23632SOL    HW280827  12.379  12.440   2.944  0.0542 -0.3062 -2.3899
23633SOL     OW80828   0.818   0.953   7.238  0.0127 -0.6500 -0.3833
23633SOL    HW180829   0.824   1.033   7.188 -1.7819 -1.3532 -1.8406
23633SOL    HW280830   0.883   0.895   7.200 -0.6859 -0.8504 -1.3068
23634SOL     OW80831   0.258   6.001   1.488  0.6267  0.1768 -0.0066
23634SOL    HW180832   0.217   5.939   1.427 -1.5910  0.5249  1.0299
23634SOL    HW280833   0.281   6.076   1.433  2.9284 -1.2946 -1.1946
23635SOL     OW80834   5.207   2.702   6.428  0.2263  0.6797 -0.3682
23635SOL    HW180835   5.247   2.615   6.436  0.1921  0.8783  3.5108
23635SOL    HW280836   5.277   2.758   6.397  2.6634  0.5856  4.2057
23636SOL     OW80837   6.394   6.050   4.763  0.1143  0.4370 -0.5504
23636SOL    HW180838   6.307   6.074   4.796  0.4082 -0.5383  1.0020
23636SOL    HW280839   6.387   5.957   4.741  0.6561  0.4536 -0.8125
23637SOL     OW80840   2.060   9.830   0.431 -0.2714  1.0129 -0.1917
23637SOL    HW180841   2.097   9.800   0.348 -2.0774 -0.6478 -0.4828
23637SOL    HW280842   2.131   9.820   0.494  0.3234 -0.4082 -1.0317
23638SOL     OW80843   2.452  12.611   1.711 -0.3691 -0.1262 -0.5913
23638SOL    HW180844   2.421  12.663   1.637  1.1139  0.6882 -0.6733
23638SOL    HW280845   2.373  12.589   1.760 -1.4065 -0.8057 -2.4731
23639SOL     OW80846   9.063  10.237   0.706  0.1089 -0.4710  0.2953
23639SOL    HW180847   9.071  10.299   0.633 -1.2226  1.1478  1.4403
23639SOL    HW280848   8.989  10.181   0.682 -1.2445  0.9584  0.9588
23640SOL     OW80849   1.486   2.651   7.076 -0.0308  0.2541  0.7012
23640SOL    HW180850   1.536   2.583   7.032 -0.7366  1.0332 -1.4643
23640SOL    HW280851   1.538   2.731   7.064 -1.5468  1.0245 -1.3529
23641SOL     OW80852   4.349   4.178   7.217 -0.2008 -0.1290  1.2970
23641SOL    HW180853   4.424   4.121   7.204  1.3273  2.0628 -0.2624
23641SOL    HW280854   4.382   4.251   7.269 -1.0776  1.1103  0.1992
23642SOL     OW80855  12.509   8.438   2.170  0.7504 -0.6089  0.1899
23642SOL    HW180856  12.585   8.381   2.153  0.7157 -0.9414  1.1165
23642SOL    HW280857  12.434   8.385   2.143  0.8358 -0.2909 -0.7008
23643SOL     OW80858  12.051   9.340   3.332 -0.3880 -0.3142  0.1418
23643SOL    HW180859  12.030   9.260   3.381  0.4562 -0.0839  0.8995
23643SOL    HW280860  12.147   9.345   3.334 -0.3805  0.1643 -0.8080
23644SOL     OW80861   7.200   7.371   1.258  0.3739  0.1418 -0.0824
23644SOL    HW180862   7.221   7.465   1.259  1.2829 -0.0663  0.8156
23644SOL    HW280863   7.183   7.349   1.349  0.1796 -0.5857 -0.2895
23645SOL     OW80864   5.820   1.044  10.555 -0.3611 -0.4891 -0.0608
23645SOL    HW180865   5.782   0.958  10.570 -0.9987 -0.0700  0.7586
23645SOL    HW280866   5.910   1.036  10.586 -0.1807 -1.0813 -0.7197
23646SOL     OW80867   2.306   4.849  12.135 -0.4231 -0.0223 -0.1098
23646SOL    HW180868   2.393   4.809  12.125 -0.4063 -0.3647  1.2404
23646SOL    HW280869   2.253   4.782  12.177 -1.0800  0.5079 -0.0764
23647SOL     OW80870   3.648   8.458   4.288 -0.3238 -0.2773  0.2826
23647SOL    HW180871   3.597   8.475   4.367  1.0995  2.3383  0.7387
23647SOL    HW280872   3.649   8.363   4.280 -2.3735 -0.5244  2.1238
23648SOL     OW80873   2.058   2.600   3.958 -0.2395 -0.0836 -0.2230
23648SOL    HW180874   2.125   2.542   3.923  0.3942  0.9010 -0.6937
23648SOL    HW280875   2.105   2.654   4.023 -0.5354  0.6673 -0.6162
23649SOL     OW80876  12.814  13.132   2.970 -0.5648  0.3793 -0.1525
23649SOL    HW180877  12.852  13.198   2.912 -1.2411 -0.2364 -1.3284
23649SOL    HW280878  12.729  13.169   2.995 -0.9278 -0.0063 -0.7817
23650SOL     OW80879  12.602  10.997   6.512  0.0898  0.2283 -0.6312
23650SOL    HW180880  12.687  11.041   6.519  1.0730 -1.3553 -1.9206
23650SOL    HW280881  12.548  11.059   6.462 -0.1141  1.9683  1.5777
23651SOL     OW80882   8.856   1.773   8.209 -0.9135 -0.3437 -0.2658
23651SOL    HW180883   8.863   1.865   8.186  0.7420 -0.5813 -0.8279
23651SOL    HW280884   8.940   1.735   8.184 -0.2738 -1.3528  2.8970
23652SOL     OW80885   6.076   6.207   2.765  0.4297 -0.3716 -0.4120
23652SOL    HW180886   6.115   6.121   2.780  0.5085 -0.2664 -0.0129
23652SOL    HW280887   5.999   6.210   2.822  1.7355  0.7160  1.3983
23653SOL     OW80888  12.776   9.882   6.087  0.4056 -0.0340 -0.4656
23653SOL    HW180889  12.822   9.960   6.055  0.8271 -0.0490  0.0934
23653SOL    HW280890  12.823   9.857   6.166  1.2767 -1.8014 -1.4780
23654SOL     OW80891   7.947   8.376   0.653 -0.5502  0.2562  0.4347
23654SOL    HW180892   7.995   8.332   0.582  0.0453  0.8962  0.4287
23654SOL    HW280893   7.982   8.337   0.733 -0.8183 -0.0651  0.3971
23655SOL     OW80894  10.351   3.928  12.021  0.3450 -0.1938 -0.3826
23655SOL    HW180895  10.262   3.952  12.049  0.1645 -2.3086  1.1579
23655SOL    HW280896  10.404   3.939  12.100  1.0771 -0.7056 -0.8000
23656SOL     OW80897   7.469   7.270  10.922  0.2775  0.1309  0.5522
23656SOL    HW180898   7.379   7.303  10.918 -0.2592 -1.2163  0.9477
23656SOL    HW280899   7.506   7.310  11.001  0.0669  0.7727  0.3290
23657SOL     OW80900   2.974   5.068   1.206  0.2064  0.5609  0.5057
23657SOL    HW180901   2.958   5.078   1.112 -0.1443  0.2716  0.5323
23657SOL    HW280902   2.974   5.157   1.240  1.3774  0.7512  0.0713
23658SOL     OW80903  12.760   0.954   2.729 -0.0998 -0.0606 -0.1790
23658SOL    HW180904  12.785   1.021   2.665 -0.7490 -0.0191 -0.4049
23658SOL    HW280905  12.753   1.001   2.812 -0.6158  0.1756 -0.3487
23659SOL     OW80906   6.713   1.234  10.644 -0.5266 -0.0324 -0.0440
23659SOL    HW180907   6.774   1.244  10.571 -0.7271  0.3878 -0.1637
23659SOL    HW280908   6.768   1.236  10.722 -0.2997 -0.5901 -0.1872
23660SOL     OW80909   7.753   0.710   9.895  0.2068  0.1473  0.0502
23660SOL    HW180910   7.692   0.668   9.835 -0.0620  1.1594 -0.3999
23660SOL    HW280911   7.835   0.717   9.846  0.2945  0.0098  0.1774
23661SOL     OW80912  10.588   9.990   7.786 -0.1114  0.4364 -0.4300
23661SOL    HW180913  10.574   9.937   7.707  0.7269 -0.3108 -0.0946
23661SOL    HW280914  10.577  10.081   7.756 -0.4879  0.1271 -1.2516
23662SOL     OW80915   8.865   0.950   0.670  0.0702 -0.1815  0.1773
23662SOL    HW180916   8.957   0.953   0.644  0.0884 -0.6910  0.1914
23662SOL    HW280917   8.839   1.043   0.674  0.4481 -0.0503 -0.2880
23663SOL     OW80918   5.055   6.849   0.611 -0.3568  0.2719 -0.0014
23663SOL    HW180919   5.013   6.929   0.642 -1.0307 -0.6053  1.4621
23663SOL    HW280920   5.010   6.778   0.658  1.3144 -0.8543  0.0018
23664SOL     OW80921   2.636   6.360   8.142 -0.2990 -0.0040  0.1048
23664SOL    HW180922   2.550   6.375   8.181  0.3799 -1.2222  2.2220
23664SOL    HW280923   2.693   6.425   8.184  0.1088 -0.1987 -0.1350
23665SOL     OW80924  12.910   8.413   4.146  0.1776  0.2627  0.0917
23665SOL    HW180925  12.936   8.321   4.144  0.6700  0.2848  2.6161
23665SOL    HW280926  12.840   8.419   4.082  0.1563 -1.8577 -0.1574
23666SOL     OW80927   8.469   4.897   5.017  0.0157 -0.1016  0.1074
23666SOL    HW180928   8.501   4.986   5.005  0.0224 -0.1654 -0.3781
23666SOL    HW280929   8.536   4.842   4.975  0.5491 -0.4114  1.3224
23667SOL     OW80930  13.117   8.644  11.204  0.0952  0.4332  0.7689
23667SOL    HW180931  13.052   8.582  11.171  0.7119  0.3342 -0.3083
23667SOL    HW280932  13.134   8.615  11.294 -0.2959 -0.4034  0.5848
23668SOL     OW80933   9.148  12.223   1.880 -0.0255  0.0252 -0.3947
23668SOL    HW180934   9.121  12.192   1.794  0.9315  0.6033 -0.9263
23668SOL    HW280935   9.140  12.147   1.937  1.3649 -0.9654 -1.4518
23669SOL     OW80936   3.501   2.091   8.121 -0.2742 -0.2766  0.2017
23669SOL    HW180937   3.441   2.017   8.114 -0.7811  0.0777  0.6045
23669SOL    HW280938   3.529   2.109   8.032 -1.5381  0.1585 -0.1257
23670SOL     OW80939  11.933   5.728  11.953  0.8906 -0.0557  0.3795
23670SOL    HW180940  11.905   5.762  11.868 -0.3317  0.2114  0.8752
23670SOL    HW280941  11.974   5.803  11.996 -0.6344  0.4958  0.9519
23671SOL     OW80942   8.563  10.090  10.392 -0.2788 -0.5492 -0.1269
23671SOL    HW180943   8.635  10.048  10.346 -0.3156 -2.4983  1.4461
23671SOL    HW280944   8.487  10.075  10.337  0.0205 -1.0591 -0.4085
23672SOL     OW80945   1.025   2.981   2.057 -0.0156  0.6282  0.1418
23672SOL    HW180946   1.024   3.003   2.150 -0.1108  2.6941 -0.3141
23672SOL    HW280947   1.059   2.891   2.055  0.8694  0.8541  2.0937
23673SOL     OW80948   8.507   6.283   2.587  0.0555  0.3048  0.7411
23673SOL    HW180949   8.533   6.253   2.499 -0.6916 -1.0494  0.9521
23673SOL    HW280950   8.450   6.213   2.620  0.0507  0.9560  2.1776
23674SOL     OW80951   2.304   8.536   9.420 -0.1079  0.1309  0.4134
23674SOL    HW180952   2.224   8.588   9.420  0.3302  0.8386 -0.7085
23674SOL    HW280953   2.283   8.460   9.366  1.0426  2.1763 -3.2852
23675SOL     OW80954  11.018   1.405   6.551 -0.1480  0.3534  0.0290
23675SOL    HW180955  11.019   1.349   6.474 -0.1938 -0.3505  0.5294
23675SOL    HW280956  10.956   1.474   6.530 -0.6042 -0.1582 -0.3416
23676SOL     OW80957   7.338   2.345  13.136 -0.0195  0.9632  0.3938
23676SOL    HW180958   7.342   2.294  13.217  2.4615  0.6865  0.1688
23676SOL    HW280959   7.306   2.431  13.164 -1.1545  0.2802  1.2999
23677SOL     OW80960   2.879   5.531  10.642 -0.3332 -0.2916 -0.6648
23677SOL    HW180961   2.803   5.569  10.598  0.4827  1.5588 -0.5329
23677SOL    HW280962   2.953   5.550  10.585  0.5267  0.9065  0.7729
23678SOL     OW80963  10.507  10.018   1.149 -0.2195 -0.0011  0.5318
23678SOL    HW180964  10.535  10.106   1.124 -0.9693  0.0179 -0.3073
23678SOL    HW280965  10.489  10.023   1.243 -1.7864  1.1760  0.1968
23679SOL     OW80966  10.701   2.741  12.004  0.1002 -0.0721  0.1631
23679SOL    HW180967  10.609   2.716  12.001  0.2441 -0.7189  0.8380
23679SOL    HW280968  10.719   2.777  11.917 -0.5607 -0.7598 -0.2746
23680SOL     OW80969   7.253  11.874   2.295  0.4462 -0.2000 -0.1368
23680SOL    HW180970   7.184  11.896   2.357 -1.6235 -3.1925 -1.1328
23680SOL    HW280971   7.223  11.908   2.211  1.2792  0.3713 -0.2183
23681SOL     OW80972   0.410  10.660   6.107  0.0462  0.0144  0.3153
23681SOL    HW180973   0.473  10.723   6.072  0.7485 -0.6858  0.2915
23681SOL    HW280974   0.370  10.621   6.029 -0.2698  0.3153  0.3276
23682SOL     OW80975   4.505   6.281   7.182 -0.0680  0.9101  0.1945
23682SOL    HW180976   4.413   6.287   7.156 -0.7012  1.9524  2.3782
23682SOL    HW280977   4.548   6.353   7.136  0.3738 -1.3087 -3.1426
23683SOL     OW80978  10.171  11.154   5.549  0.3066 -0.1189  0.1755
23683SOL    HW180979  10.130  11.239   5.535  0.4777 -0.3707 -2.2338
23683SOL    HW280980  10.165  11.140   5.644 -0.7719  2.0177  0.4849
23684SOL     OW80981   1.811   0.694   9.206  0.0799 -0.1518 -0.0300
23684SOL    HW180982   1.729   0.645   9.212 -0.6433  0.9082 -0.8351
23684SOL    HW280983   1.783   0.785   9.194  1.3774  0.2077 -0.4166
23685SOL     OW80984   8.582   7.342  12.913  0.7051 -0.8421  0.7903
23685SOL    HW180985   8.613   7.424  12.874 -2.4253  0.1913  0.2329
23685SOL    HW280986   8.548   7.367  12.999 -0.5870 -1.4616  0.4839
23686SOL     OW80987   2.807  12.552   6.319  0.9130 -0.8644 -0.0017
23686SOL    HW180988   2.731  12.603   6.345  0.2358 -1.6024 -0.4839
23686SOL    HW280989   2.852  12.608   6.254 -0.7280 -1.5108 -1.7904
23687SOL     OW80990   3.257  11.934  11.877  0.0172  0.1212  0.3879
23687SOL    HW180991   3.190  11.988  11.836  0.1731 -0.0619 -0.1063
23687SOL    HW280992   3.209  11.878  11.937 -0.3740 -0.6275 -0.6060
23688SOL     OW80993   8.864   0.938   2.418 -0.1660 -0.2284 -0.0857
23688SOL    HW180994   8.790   0.925   2.476  0.4025 -1.4643  0.3952
23688SOL    HW280995   8.880   0.852   2.380 -2.2221  0.9711 -4.2583
23689SOL     OW80996   8.474   5.532   2.283 -0.1303 -0.2914 -0.7268
23689SOL    HW180997   8.428   5.615   2.266 -1.9184 -1.3692 -1.3969
23689SOL    HW280998   8.413   5.481   2.336  0.9256 -1.2164 -0.3656
23690SOL     OW80999   2.750   1.878   2.250  0.3825  0.4026  0.5483
23690SOL    HW181000   2.758   1.842   2.338  1.0612  0.9312  0.7141
23690SOL    HW281001   2.684   1.823   2.207  0.7956 -0.4970  1.0505
23691SOL     OW81002   7.516   6.713   3.393 -0.5949  0.1388 -0.0919
23691SOL    HW181003   7.588   6.657   3.364 -0.9070 -0.4043  0.1801
23691SOL    HW281004   7.444   6.694   3.333 -0.5891  0.5135 -0.2219
23692SOL     OW81005   0.232  11.158   6.682  0.7059 -0.3177 -0.0751
23692SOL    HW181006   0.246  11.093   6.751  1.3091 -0.3926 -0.2614
23692SOL    HW281007   0.160  11.212   6.714  0.5047 -0.7910  0.2909
23693SOL     OW81008  13.132   9.798   6.301  0.1288 -0.0165  0.0834
23693SOL    HW181009  13.217   9.824   6.336 -1.0181  0.7258  2.5309
23693SOL    HW281010  13.073   9.870   6.324 -1.2892 -0.7021 -1.1723
23694SOL     OW81011   9.984   6.744   5.966  0.1076 -0.1178 -0.4189
23694SOL    HW181012  10.046   6.785   5.905 -1.2701 -0.2982 -2.0387
23694SOL    HW281013   9.949   6.668   5.917  0.1694 -1.2771  1.2522
23695SOL     OW81014   1.263   0.790  10.389 -0.7715  0.2515 -0.0534
23695SOL    HW181015   1.172   0.761  10.375 -0.0560 -1.4098 -1.6189
23695SOL    HW281016   1.295   0.731  10.458 -0.1382 -0.9649 -1.3361
23696SOL     OW81017   5.006   7.799   6.411  0.0339 -0.1767 -0.4381
23696SOL    HW181018   5.086   7.809   6.359  0.4900 -0.0861  0.2696
23696SOL    HW281019   5.030   7.740   6.482  0.5037  2.4454  1.7802
23697SOL     OW81020   4.693  12.639  12.284 -0.0103  0.3739 -0.0577
23697SOL    HW181021   4.607  12.603  12.306  0.9331 -0.3120  2.9673
23697SOL    HW281022   4.750  12.563  12.276  0.6130  0.8899 -0.7450
23698SOL     OW81023   9.192   3.645   1.045  0.3058  0.6426  0.0919
23698SOL    HW181024   9.116   3.672   0.993 -0.8847 -1.4065  0.6370
23698SOL    HW281025   9.253   3.718   1.038 -2.0678  2.8177  0.4067
23699SOL     OW81026  12.341   9.537   5.805 -0.5923 -0.2967  0.9576
23699SOL    HW181027  12.383   9.583   5.732 -1.5190 -0.7463  0.1224
23699SOL    HW281028  12.361   9.445   5.791 -1.6793 -0.5028  0.6426
23700SOL     OW81029  12.093  13.235  12.091  0.5467  0.2152 -1.0089
23700SOL    HW181030  12.025  13.267  12.031  0.2786  1.1594 -0.2278
23700SOL    HW281031  12.146  13.313  12.110 -0.2289  0.2745  1.1001
23701SOL     OW81032   6.272  11.192   5.317  0.0953 -0.5707 -0.0412
23701SOL    HW181033   6.235  11.105   5.303 -2.7977  0.6661 -0.6152
23701SOL    HW281034   6.216  11.232   5.383  0.7224  1.2465 -0.5666
23702SOL     OW81035  11.407   3.050   2.293 -0.1470 -0.1595 -0.0908
23702SOL    HW181036  11.420   3.007   2.378  1.8074  0.0096 -0.2612
23702SOL    HW281037  11.316   3.077   2.294 -0.0625  0.2423  2.1704
23703SOL     OW81038   0.397   8.198   9.972  0.1186 -0.0590  0.3440
23703SOL    HW181039   0.446   8.210   9.891  1.1334  0.5449  1.0291
23703SOL    HW281040   0.371   8.106   9.970 -0.4271  0.1003 -0.9602
23704SOL     OW81041   5.141   0.787  10.105 -0.3725 -0.0834 -0.1753
23704SOL    HW181042   5.112   0.870  10.143 -0.6181  0.7155 -2.0298
23704SOL    HW281043   5.208   0.756  10.166 -1.2494  0.7644  1.2858
23705SOL     OW81044   0.418  11.215  10.029 -0.0181 -0.6035  0.1175
23705SOL    HW181045   0.341  11.270  10.042 -0.1829 -0.7349 -0.2581
23705SOL    HW281046   0.400  11.170   9.946  1.1563  0.5357 -0.8004
23706SOL     OW81047  10.618  11.765   5.693 -0.2345  0.3033 -0.3494
23706SOL    HW181048  10.569  11.838   5.655 -1.8171 -1.1280 -1.1679
23706SOL    HW281049  10.562  11.733   5.764 -0.2624 -1.0166 -0.9371
23707SOL     OW81050  12.388   9.372   0.881 -0.2532  0.2424  0.4248
23707SOL    HW181051  12.309   9.417   0.911 -1.2432 -1.1069 -0.0765
23707SOL    HW281052  12.413   9.419   0.802 -2.6002 -1.3791 -1.4148
23708SOL     OW81053   0.322   5.382   6.909 -0.2616 -0.5429 -1.1383
23708SOL    HW181054   0.383   5.449   6.939 -0.2356 -0.8764 -0.4315
23708SOL    HW281055   0.358   5.353   6.825  0.6587 -0.8769 -0.6350
23709SOL     OW81056   9.822   6.815   2.197  0.3209  0.1023 -0.0453
23709SOL    HW181057   9.751   6.863   2.153 -0.0203 -0.5620 -0.2344
23709SOL    HW281058   9.826   6.854   2.284 -1.1760 -0.7093  0.4317
23710SOL     OW81059   0.817   4.708  13.152 -0.0220  0.2331  0.0558
23710SOL    HW181060   0.724   4.722  13.133 -0.0071  1.2245  0.6243
23710SOL    HW281061   0.849   4.794  13.180  0.3344 -0.7004  2.8710
23711SOL     OW81062   7.354   5.412  12.757 -0.0471 -0.0109  0.0392
23711SOL    HW181063   7.288   5.357  12.798 -0.4661  0.0722 -0.5120
23711SOL    HW281064   7.436   5.387  12.799 -0.2308 -1.0440 -0.1964
23712SOL     OW81065  12.529   8.946   4.356 -0.3733 -0.2856  0.0486
23712SOL    HW181066  12.455   8.889   4.376 -0.3778 -1.0472 -1.9586
23712SOL    HW281067  12.490   9.032   4.338 -0.4128  0.2862  2.4677
23713SOL     OW81068   4.542   5.682   9.953 -0.1131  0.1594 -0.0631
23713SOL    HW181069   4.553   5.728   9.870 -1.6921 -1.5790 -1.3265
23713SOL    HW281070   4.454   5.643   9.948 -0.1439 -0.2364  2.3109
23714SOL     OW81071  10.604   5.908  12.027 -0.2547  0.3050  0.4370
23714SOL    HW181072  10.639   5.945  12.108 -1.3881 -0.3003  1.2299
23714SOL    HW281073  10.539   5.971  11.997 -0.0971  0.3525  0.1902
23715SOL     OW81074   1.289   7.369  12.231  0.4303  0.2519 -0.3877
23715SOL    HW181075   1.200   7.399  12.249  0.7524  1.6536 -0.9777
23715SOL    HW281076   1.293   7.359  12.136  0.3968 -1.5984 -0.2358
23716SOL     OW81077  10.982   1.452   2.893 -0.4703  0.3776 -0.2545
23716SOL    HW181078  11.018   1.365   2.910 -0.2319  0.5186 -0.0280
23716SOL    HW281079  10.976   1.492   2.980 -0.9186  0.4538 -0.3225
23717SOL     OW81080   6.951   6.068   2.616 -0.1878  0.0375 -0.0481
23717SOL    HW181081   6.937   6.162   2.622 -0.0450 -0.0146  1.5845
23717SOL    HW281082   6.890   6.030   2.679  0.0272 -0.9317 -0.4042
23718SOL     OW81083   4.646  13.066   8.465 -0.2042  0.1069  0.3049
23718SOL    HW181084   4.629  13.130   8.396 -1.3415  0.9756  1.3444
23718SOL    HW281085   4.700  13.114   8.529 -0.4341 -0.1940  0.7307
23719SOL     OW81086  11.867  10.359   5.520 -0.0066 -0.4025  0.3511
23719SOL    HW181087  11.824  10.292   5.573  0.3718 -1.8248 -1.0533
23719SOL    HW281088  11.931  10.399   5.578 -0.1467 -1.3682  1.1919
23720SOL     OW81089   0.407   7.705   4.275  0.4818  0.8679 -0.2552
23720SOL    HW181090   0.418   7.699   4.180  2.4990 -0.8936  0.0198
23720SOL    HW281091   0.341   7.638   4.295  0.4554  0.8571 -0.3748
23721SOL     OW81092   9.679  10.847   7.431  0.6483  0.4943 -0.7415
23721SOL    HW181093   9.622  10.911   7.389  1.5603  0.0640 -2.7772
23721SOL    HW281094   9.767  10.886   7.428  0.7925  0.3388  0.6045
23722SOL     OW81095  11.690   9.156   7.151  0.4561 -0.2215  0.1689
23722SOL    HW181096  11.609   9.130   7.106  0.0741  0.2620  0.5679
23722SOL    HW281097  11.682   9.250   7.162  1.0234 -0.1895  0.3317
23723SOL     OW81098  10.665   4.637   3.438 -0.3426  0.2570 -0.2001
23723SOL    HW181099  10.620   4.721   3.426 -0.6944 -0.0985 -1.5247
23723SOL    HW281100  10.755   4.654   3.410 -0.3612  0.2351 -0.2703
23724SOL     OW81101   5.350   9.821   2.434  0.3068  0.2500 -0.1235
23724SOL    HW181102   5.405   9.894   2.462 -1.2057  1.7776 -0.9193
23724SOL    HW281103   5.268   9.833   2.482 -1.0818  0.9131 -2.4726
23725SOL     OW81104  12.725  12.760   4.533 -0.6414 -0.1930  0.3615
23725SOL    HW181105  12.681  12.738   4.615  0.3642 -4.0071  0.1183
23725SOL    HW281106  12.730  12.676   4.486  0.4473  1.4775 -2.7930
23726SOL     OW81107   1.432   7.393   3.000  0.5106  0.5918  0.0584
23726SOL    HW181108   1.516   7.348   3.013  0.8028  0.8376 -0.8679
23726SOL    HW281109   1.376   7.328   2.958  0.5154  0.6899 -0.1011
23727SOL     OW81110   3.412   4.974  12.517 -0.6297 -0.0743  0.2679
23727SOL    HW181111   3.497   4.931  12.528 -0.5071  0.0066 -0.3274
23727SOL    HW281112   3.398   4.974  12.422  0.1875  2.7447  0.0525
23728SOL     OW81113   6.847  12.186   6.089  0.1187 -0.0303  0.2858
23728SOL    HW181114   6.897  12.242   6.149  0.3555 -0.3980  0.4367
23728SOL    HW281115   6.756  12.196   6.117  0.0158  1.2357 -0.4702
23729SOL     OW81116   3.323   1.612   1.320  0.7353  0.4462 -0.1167
23729SOL    HW181117   3.261   1.550   1.280 -1.5085  1.3198  1.7351
23729SOL    HW281118   3.395   1.617   1.258 -1.3854 -0.0993 -2.8286
23730SOL     OW81119   5.099   0.348   9.679 -0.4518 -0.0251  0.0919
23730SOL    HW181120   5.109   0.376   9.589 -0.8274  0.5824  0.2378
23730SOL    HW281121   5.164   0.278   9.690 -0.6710 -0.3711 -0.7532
23731SOL     OW81122   5.195   4.245  13.199 -0.5707 -0.4729 -0.3832
23731SOL    HW181123   5.134   4.316  13.180 -0.8303 -0.4143  0.6080
23731SOL    HW281124   5.221   4.212  13.113 -0.5273  0.7432 -0.8537
23732SOL     OW81125  12.903  12.056  12.062 -0.8575 -0.1347 -0.6093
23732SOL    HW181126  12.931  12.103  11.984  1.7857 -0.2945  0.1335
23732SOL    HW281127  12.945  11.970  12.054  1.3262  0.5763  1.9236
23733SOL     OW81128  12.539   9.788  10.200 -0.1408 -0.4872 -0.4238
23733SOL    HW181129  12.574   9.715  10.148 -1.1918 -0.6106 -0.9830
23733SOL    HW281130  12.462   9.751  10.243 -0.8974  0.3916 -1.0043
23734SOL     OW81131  10.237   5.518   8.260 -0.2616 -0.5707 -0.2157
23734SOL    HW181132  10.251   5.591   8.201 -3.2387 -1.6060 -2.4508
23734SOL    HW281133  10.207   5.558   8.341  1.8338  0.7634 -0.0166
23735SOL     OW81134   1.855  13.263   5.673  0.1313  0.3116  0.0810
23735SOL    HW181135   1.946  13.281   5.653  0.4068 -2.2871 -1.3928
23735SOL    HW281136   1.847  13.168   5.667 -2.3062  0.2958  1.8796
23736SOL     OW81137   1.870   9.202   2.531 -0.4199  0.0673 -0.2734
23736SOL    HW181138   1.938   9.258   2.495  0.7971 -0.2789  1.3642
23736SOL    HW281139   1.875   9.215   2.625 -0.7461 -2.0483  0.0932
23737SOL     OW81140  12.459   2.199   9.476  0.1468 -0.4147 -0.1260
23737SOL    HW181141  12.546   2.239   9.478 -0.6367  1.3903  0.3852
23737SOL    HW281142  12.463   2.130   9.542  1.1275 -0.1935  0.0658
23738SOL     OW81143  11.547  10.787   8.056  0.3144 -0.3078  0.0998
23738SOL    HW181144  11.607  10.816   8.124  1.5346  0.4704 -1.2700
23738SOL    HW281145  11.510  10.867   8.020 -1.1670 -0.7531  0.5397
23739SOL     OW81146   0.116   7.364   2.676  0.6681 -0.7849 -0.2687
23739SOL    HW181147   0.151   7.289   2.725 -0.0823 -1.0563 -0.1293
23739SOL    HW281148   0.192   7.420   2.659  0.8624 -0.3338  1.8114
23740SOL     OW81149   9.388  13.175  11.755  0.2938 -0.6445  0.1313
23740SOL    HW181150   9.417  13.135  11.837  1.4998 -1.0008 -0.4461
23740SOL    HW281151   9.329  13.245  11.782  0.1953 -1.1449  1.2701
23741SOL     OW81152  12.433   4.112  12.755  0.6271  0.2091 -0.1980
23741SOL    HW181153  12.360   4.173  12.754 -0.1300 -0.5290  2.2283
23741SOL    HW281154  12.455   4.102  12.848  1.7671 -1.9766 -0.6223
23742SOL     OW81155   0.868   9.756  10.900 -0.2380  0.2315 -0.0039
23742SOL    HW181156   0.909   9.679  10.938 -0.4307  0.6232  1.0237
23742SOL    HW281157   0.942   9.811  10.872 -0.0962 -0.1060 -0.2980
23743SOL     OW81158   0.691   3.740  11.894  0.2145 -0.5211 -0.0871
23743SOL    HW181159   0.651   3.826  11.899  0.6972 -0.2882 -0.1797
23743SOL    HW281160   0.766   3.751  11.836 -1.2436 -1.6015 -2.2990
23744SOL     OW81161  13.219   8.647   0.085 -0.5057  0.0986  0.3185
23744SOL    HW181162  13.270   8.592   0.025 -0.5632  0.2653  0.1181
23744SOL    HW281163  13.246   8.618   0.172 -0.0318  0.2165  0.2145
23745SOL     OW81164  12.956   0.280   9.439  0.0293  0.3117 -0.3595
23745SOL    HW181165  12.991   0.352   9.492 -1.0634  1.1200 -0.7151
23745SOL    HW281166  12.935   0.319   9.355  0.4461 -0.6761 -0.9434
23746SOL     OW81167   0.748   6.773   3.875  0.5492 -0.0066 -0.2987
23746SOL    HW181168   0.733   6.811   3.962 -2.1660  0.0019 -0.6769
23746SOL    HW281169   0.714   6.839   3.815 -0.2066 -1.1637 -1.1820
23747SOL     OW81170   5.910  12.232   8.477 -0.0459  0.4050  0.3039
23747SOL    HW181171   5.973  12.168   8.442  0.2151  1.5011 -1.3522
23747SOL    HW281172   5.825  12.190   8.466  0.2532 -0.4104  0.9937
23748SOL     OW81173   3.745   8.739   1.643  0.4436 -0.6350 -0.4797
23748SOL    HW181174   3.769   8.832   1.636  0.7521 -0.6011  0.7059
23748SOL    HW281175   3.651   8.737   1.626 -0.1338  0.3254  2.0513
23749SOL     OW81176   1.752   8.549   5.590  0.7717  0.0340 -0.0236
23749SOL    HW181177   1.698   8.515   5.661 -0.1980  1.4705 -0.0420
23749SOL    HW281178   1.709   8.518   5.510  0.2870  0.7184 -0.0290
23750SOL     OW81179   0.919   5.335   2.897 -0.7479  0.1170 -0.0612
23750SOL    HW181180   0.847   5.371   2.845 -2.6841 -1.0835  1.6128
23750SOL    HW281181   0.959   5.270   2.839 -1.4363  0.3335 -0.8188
23751SOL     OW81182   7.222   9.401   4.565  0.3535  0.0303  0.3109
23751SOL    HW181183   7.146   9.457   4.550 -0.9815 -1.9702 -0.7570
23751SOL    HW281184   7.288   9.435   4.505 -0.6592  0.0507 -0.8346
23752SOL     OW81185   4.466   3.486  11.536 -0.2706  0.0061  0.2229
23752SOL    HW181186   4.458   3.567  11.586  0.5551  0.3415 -0.1763
23752SOL    HW281187   4.420   3.503  11.454 -1.5574 -0.5179  0.8062
23753SOL     OW81188  12.295   8.693   5.590  0.4703  0.1077 -0.2270
23753SOL    HW181189  12.292   8.772   5.644 -0.3209  0.0354 -0.1559
23753SOL    HW281190  12.333   8.723   5.507  2.1947  0.1186  0.5059
23754SOL     OW81191   4.907  12.892   0.478  0.1838  0.1648 -0.0551
23754SOL    HW181192   4.879  12.800   0.480  0.1151  0.1623 -0.6849
23754SOL    HW281193   5.002  12.888   0.482  0.2265  0.0123 -0.8722
23755SOL     OW81194   3.753  10.232  12.236  0.6184  0.4851  0.1981
23755SOL    HW181195   3.767  10.222  12.330  0.5159  2.2615  0.4446
23755SOL    HW281196   3.803  10.161  12.196 -0.9049 -1.5229  1.6344
23756SOL     OW81197   4.874   1.950   4.389  0.1373  0.6210  0.1735
23756SOL    HW181198   4.877   1.966   4.295 -0.3981  1.0312  0.2199
23756SOL    HW281199   4.782   1.929   4.407  0.1446  0.9751  0.6650
23757SOL     OW81200   2.038   6.922   2.161 -0.2261 -0.1467 -0.2813
23757SOL    HW181201   1.996   6.980   2.224 -0.1580  0.1176 -0.4780
23757SOL    HW281202   2.097   6.868   2.214 -0.0759  0.1609 -0.1346
23758SOL     OW81203  12.964   2.387   6.391  0.1329 -0.3588  0.0046
23758SOL    HW181204  13.056   2.392   6.417  0.3725 -0.8146 -0.7270
23758SOL    HW281205  12.966   2.348   6.304 -0.8079 -1.0639  0.2890
23759SOL     OW81206   2.416   6.770  13.140  0.8466  0.2308 -0.3443
23759SOL    HW181207   2.414   6.752  13.046  1.3824 -0.7722 -0.1751
23759SOL    HW281208   2.507   6.753  13.166  0.7395  0.6474  0.3288
23760SOL     OW81209   6.238   5.161   2.675 -0.4393 -0.0218 -0.1046
23760SOL    HW181210   6.267   5.070   2.669 -1.5122 -0.3354 -0.7933
23760SOL    HW281211   6.318   5.212   2.657  0.3114 -0.7955  0.9230
23761SOL     OW81212   1.792  10.927  12.952  0.0528 -0.4158 -0.5255
23761SOL    HW181213   1.703  10.894  12.966  0.2046 -0.9637 -0.7928
23761SOL    HW281214   1.819  10.887  12.869 -0.3237  1.6277 -1.7043
23762SOL     OW81215   4.457   2.184  10.089 -0.4049 -0.2395 -0.0434
23762SOL    HW181216   4.368   2.162  10.115 -0.5997 -0.6730 -1.0258
23762SOL    HW281217   4.506   2.102  10.099 -0.6376 -0.6060 -1.6274
23763SOL     OW81218   6.831   6.017   9.963  0.0077  0.2362  0.2406
23763SOL    HW181219   6.912   6.011   9.913  0.2831  1.1369  0.5567
23763SOL    HW281220   6.770   5.959   9.918  0.5985  0.1448 -0.4501
23764SOL     OW81221   3.955  11.784   5.736  0.0524  0.2190  0.1199
23764SOL    HW181222   3.898  11.842   5.686  0.0680  0.8281  0.7963
23764SOL    HW281223   4.002  11.842   5.796 -1.3825 -0.6871  2.2377
23765SOL     OW81224   9.961   6.282   0.681 -0.4441  0.1623 -0.5596
23765SOL    HW181225  10.030   6.291   0.616 -1.6307 -0.9255 -2.0424
23765SOL    HW281226   9.948   6.371   0.714  0.2762  0.7288 -1.7244
23766SOL     OW81227   5.389  11.725   2.765 -0.5130  0.3878  0.5796
23766SOL    HW181228   5.380  11.634   2.792 -1.2817 -0.0609 -1.0595
23766SOL    HW281229   5.476  11.730   2.727 -0.1501  0.5580  1.4154
23767SOL     OW81230   9.117   9.726  13.019 -0.5321 -0.0993  0.0471
23767SOL    HW181231   9.126   9.809  12.972 -1.0678  0.2239  0.4914
23767SOL    HW281232   9.174   9.665  12.973  1.8380  1.1290  1.1718
23768SOL     OW81233   8.224   3.745  11.496  0.5063  0.6901  0.2928
23768SOL    HW181234   8.307   3.725  11.454  0.7488 -1.3660  1.6350
23768SOL    HW281235   8.179   3.661  11.503 -1.5290  1.6725  0.0013
23769SOL     OW81236   9.785   9.184   5.940 -0.1807 -0.1738 -0.8464
23769SOL    HW181237   9.795   9.175   6.034  1.8473  0.6143 -0.9339
23769SOL    HW281238   9.697   9.220   5.928  0.7914  3.2654  1.0547
23770SOL     OW81239  13.173   5.203   3.714 -0.1291 -0.0101  0.0867
23770SOL    HW181240  13.173   5.286   3.761  0.1794  0.7405 -1.1695
23770SOL    HW281241  13.105   5.151   3.755 -0.3833  0.9001  0.8448
23771SOL     OW81242   0.834   2.412   1.670 -0.1129 -0.2919 -0.7009
23771SOL    HW181243   0.755   2.364   1.648 -0.6300  0.6525 -0.9755
23771SOL    HW281244   0.896   2.345   1.698 -1.0503 -1.0387 -0.3406
23772SOL     OW81245  12.105   5.725  10.683 -0.5912  0.1722 -0.1932
23772SOL    HW181246  12.031   5.775  10.647 -1.1833  1.3232  2.4264
23772SOL    HW281247  12.064   5.655  10.733  0.0256  1.0277  1.5833
23773SOL     OW81248   8.831  12.895   9.059 -0.2484  0.0213 -0.0500
23773SOL    HW181249   8.873  12.962   9.006  0.9241 -0.3826  0.3299
23773SOL    HW281250   8.738  12.917   9.057  0.1149  1.6700  0.1184
23774SOL     OW81251  11.940  12.824  10.183  0.7303 -0.3290 -0.1515
23774SOL    HW181252  11.902  12.883  10.248 -0.4741 -0.8643 -0.3571
23774SOL    HW281253  11.958  12.881  10.108 -0.6354 -0.2370 -0.4326
23775SOL     OW81254   9.419   7.367   6.438  0.0357 -0.2624  0.1359
23775SOL    HW181255   9.383   7.280   6.456  2.7364 -1.8515 -1.4132
23775SOL    HW281256   9.507   7.365   6.476  0.8697  1.0423 -1.5569
23776SOL     OW81257   4.805  13.002   7.125  0.0259  0.3960  0.0853
23776SOL    HW181258   4.843  13.089   7.122  1.8793 -0.3645  0.1932
23776SOL    HW281259   4.728  13.011   7.180  0.4820  1.8593  0.5136
23777SOL     OW81260   4.641   0.781   8.455 -0.0273 -0.4193 -0.1937
23777SOL    HW181261   4.622   0.696   8.417 -0.9430 -0.8962  1.2428
23777SOL    HW281262   4.558   0.830   8.447 -0.2357 -0.5190  1.0795
23778SOL     OW81263   1.914   4.528  12.979  0.2448  0.3583 -0.0208
23778SOL    HW181264   2.001   4.564  12.968 -0.2036  1.4553 -0.0889
23778SOL    HW281265   1.928   4.434  12.991  1.4988  0.6562  1.0019
23779SOL     OW81266   7.667   7.941   3.969  0.2452 -0.3427  0.0035
23779SOL    HW181267   7.621   7.961   3.888  0.8220 -2.6451 -0.9831
23779SOL    HW281268   7.760   7.947   3.946  0.4182 -1.4150  0.3551
23780SOL     OW81269  11.557  12.254   2.909 -0.2610  0.1807 -0.1852
23780SOL    HW181270  11.585  12.210   2.829  0.4023  0.9552 -0.3974
23780SOL    HW281271  11.522  12.338   2.880  0.5801  0.7478  0.3617
23781SOL     OW81272   0.541   9.941   1.853 -0.2168  0.2850 -0.0483
23781SOL    HW181273   0.554   9.855   1.813  1.5197  0.7513 -0.5493
23781SOL    HW281274   0.494   9.923   1.935  2.4669 -1.4998  1.2402
23782SOL     OW81275   2.846   4.753   0.755  0.1770 -0.5221  0.0469
23782SOL    HW181276   2.883   4.785   0.837 -0.7454 -2.1133  1.1537
23782SOL    HW281277   2.921   4.740   0.697  0.7246  1.9431  0.0952
23783SOL     OW81278   9.001   1.682   2.846 -0.1172  0.2797  0.5482
23783SOL    HW181279   8.907   1.696   2.845 -0.0812  0.6255 -1.2074
23783SOL    HW281280   9.039   1.770   2.842  0.2751  0.1249  0.7823
23784SOL     OW81281   1.409   6.781  12.315 -0.3378  1.0191 -0.3039
23784SOL    HW181282   1.470   6.815  12.381  0.9448  0.8602 -1.3651
23784SOL    HW281283   1.415   6.686  12.325  0.1758  0.9842 -0.9193
23785SOL     OW81284   8.355   7.809   3.746  0.3341  0.0601 -0.1804
23785SOL    HW181285   8.359   7.714   3.737 -1.3637 -0.0035 -0.4189
23785SOL    HW281286   8.354   7.842   3.657  4.0867  0.5533 -0.2176
23786SOL     OW81287   0.089  10.008   9.147 -0.3959  0.3748 -0.1278
23786SOL    HW181288   0.132   9.947   9.208 -1.0380  0.7724  0.7382
23786SOL    HW281289   0.161  10.058   9.109  0.0447 -0.1185  0.0444
23787SOL     OW81290   2.881   5.053   4.598  0.2387  0.5583  0.0054
23787SOL    HW181291   2.890   5.091   4.685  1.7597  1.4139 -0.4755
23787SOL    HW281292   2.903   5.124   4.538 -2.1879  0.4154 -1.1887
23788SOL     OW81293   7.447   0.682  12.200 -0.3779  0.1533  0.1464
23788SOL    HW181294   7.415   0.592  12.190 -0.3130  0.1942 -0.5081
23788SOL    HW281295   7.372   0.730  12.236 -0.2407 -0.2709  1.0071
23789SOL     OW81296  10.249  12.627   0.828  0.8656  0.6664  0.5336
23789SOL    HW181297  10.326  12.572   0.814  1.0592  0.3929  2.4921
23789SOL    HW281298  10.201  12.585   0.899 -1.7331  0.2158 -1.3308
23790SOL     OW81299   5.356   7.069   5.070  0.5522 -0.0372 -0.1275
23790SOL    HW181300   5.419   6.998   5.082  1.1538  0.5332  0.1838
23790SOL    HW281301   5.281   7.045   5.123  0.1041 -1.1933 -1.2489
23791SOL     OW81302  11.349   0.530   2.124  0.6865  0.2259 -0.1061
23791SOL    HW181303  11.331   0.515   2.217  2.7831 -0.2091  0.2848
23791SOL    HW281304  11.264   0.553   2.087 -0.2873 -0.0003  1.8271
23792SOL     OW81305  11.240   7.421   3.612 -0.0219  0.2640  0.7975
23792SOL    HW181306  11.207   7.465   3.533 -0.2598  0.3463  0.9423
23792SOL    HW281307  11.293   7.349   3.578 -3.2081 -2.1580  0.4617
23793SOL     OW81308   9.787  12.006   4.622 -0.7278  0.4822 -0.0480
23793SOL    HW181309   9.797  12.007   4.527  1.6779 -1.9722  0.0655
23793SOL    HW281310   9.833  12.085   4.652 -1.7637  1.4343 -0.8648
23794SOL     OW81311   9.199   4.309   0.310 -0.1568 -0.4046 -0.1483
23794SOL    HW181312   9.138   4.282   0.378  2.3337 -3.3088  1.1963
23794SOL    HW281313   9.188   4.244   0.240  0.0450  0.2179 -0.7761
23795SOL     OW81314  10.948   2.229   0.100  0.1810  0.2329 -0.1692
23795SOL    HW181315  10.861   2.268   0.097  0.3658  0.8051  1.1067
23795SOL    HW281316  10.938   2.153   0.157  0.5774  0.4840  0.2417
23796SOL     OW81317   1.527   6.566   8.320 -0.0661  0.3642 -0.4644
23796SOL    HW181318   1.568   6.619   8.252  0.7264 -0.8687 -0.9767
23796SOL    HW281319   1.480   6.498   8.272 -1.9569  1.1641  0.1394
23797SOL     OW81320   9.165   4.052   7.277  0.0145  0.1764  0.3055
23797SOL    HW181321   9.165   4.040   7.182 -2.9158  0.4079  0.1925
23797SOL    HW281322   9.219   3.980   7.310  3.2891  1.5800 -1.5634
23798SOL     OW81323   7.369   2.677  11.078  0.0708  0.7574 -0.5907
23798SOL    HW181324   7.386   2.600  11.024 -1.1300  0.0751 -0.0528
23798SOL    HW281325   7.456   2.710  11.101  0.6114 -0.3646 -0.9295
23799SOL     OW81326   5.962   2.717   0.914 -0.3106  0.3750 -0.3717
23799SOL    HW181327   6.028   2.732   0.845  0.2757 -2.7028 -0.6017
23799SOL    HW281328   5.878   2.719   0.868 -0.1564  1.1838 -0.6372
23800SOL     OW81329   4.136   8.190  11.538  0.5795  0.6901  0.0042
23800SOL    HW181330   4.198   8.260  11.519  0.7667  0.5956  0.2576
23800SOL    HW281331   4.066   8.233  11.587 -0.4292  1.1449 -1.7504
23801SOL     OW81332  12.662  12.613   9.414  0.1435 -0.8805  0.2497
23801SOL    HW181333  12.589  12.638   9.358  0.7305 -0.1618 -0.2133
23801SOL    HW281334  12.666  12.517   9.405  1.5839 -0.6737 -2.7675
23802SOL     OW81335   3.488  10.298  13.278  0.0847 -0.0546  0.3586
23802SOL    HW181336   3.559  10.287  13.214 -2.0914 -1.0290 -2.0615
23802SOL    HW281337   3.471  10.209  13.310 -0.0502  0.1740  0.9280
23803SOL     OW81338  12.239   2.694   0.206 -0.0205 -0.5859 -0.2452
23803SOL    HW181339  12.251   2.729   0.294  0.2854 -1.2632 -0.0074
23803SOL    HW281340  12.175   2.752   0.165  0.2906  0.0893  0.2145
23804SOL     OW81341   9.724   1.480   3.064  0.2498 -0.0249  0.2859
23804SOL    HW181342   9.787   1.453   2.997 -0.5280 -1.5319  0.1230
23804SOL    HW281343   9.663   1.537   3.018  0.3490 -0.1693 -0.0305
23805SOL     OW81344   5.065  10.162   9.705 -0.3650 -0.2667  0.1875
23805SOL    HW181345   5.014  10.085   9.678  2.1519 -1.3829 -1.7387
23805SOL    HW281346   5.128  10.128   9.769 -0.2698  0.5313  0.5310
23806SOL     OW81347  12.587  13.057   4.794 -0.5967  0.3422  0.2516
23806SOL    HW181348  12.499  13.020   4.789 -0.1700 -0.5271 -1.4515
23806SOL    HW281349  12.634  12.999   4.853 -0.7628 -0.0446  0.0022
23807SOL     OW81350   9.396  10.671   7.937 -0.8673  0.3062 -0.5079
23807SOL    HW181351   9.360  10.587   7.906 -3.5471  0.9414  0.5960
23807SOL    HW281352   9.442  10.648   8.018 -2.3978 -0.0266  0.3058
23808SOL     OW81353  11.666   7.080   4.522 -0.0695 -0.2055  0.3661
23808SOL    HW181354  11.676   7.135   4.599  0.1193  1.1815 -0.6099
23808SOL    HW281355  11.670   7.141   4.448  1.8850 -1.7093 -0.8738
23809SOL     OW81356   7.356   6.473   1.142  0.2326 -0.1226 -0.7135
23809SOL    HW181357   7.429   6.438   1.090  1.0405  1.2314 -0.5412
23809SOL    HW281358   7.393   6.486   1.229 -0.2311  0.5473 -0.6111
23810SOL     OW81359   4.370   5.301  12.869  0.1906  0.0908 -0.1717
23810SOL    HW181360   4.397   5.209  12.872  0.4944  0.1196 -1.4342
23810SOL    HW281361   4.452   5.350  12.869  0.0343  0.4781  2.0999
23811SOL     OW81362   2.791  10.123   9.343  0.0882  0.3109  0.3307
23811SOL    HW181363   2.744  10.080   9.414 -0.8364 -0.4559 -0.7135
23811SOL    HW281364   2.859  10.174   9.387 -1.9305  1.8111  1.9661
23812SOL     OW81365  11.674  10.104   9.691 -0.0329 -0.0884 -0.4235
23812SOL    HW181366  11.679  10.180   9.750 -1.2339 -0.6367  0.4120
23812SOL    HW281367  11.738  10.043   9.726 -0.7669 -0.4261  0.3558
23813SOL     OW81368   6.128   4.677   3.259  0.3289  0.5304 -0.9888
23813SOL    HW181369   6.055   4.705   3.314  0.3044  2.7703 -2.0587
23813SOL    HW281370   6.125   4.581   3.263 -0.2781  0.5501  2.0495
23814SOL     OW81371   4.850  11.411   5.636  0.6130  0.4030 -0.3298
23814SOL    HW181372   4.830  11.325   5.672  0.9163 -1.1249 -3.4811
23814SOL    HW281373   4.925  11.441   5.686  0.7763 -1.3611  0.5619
23815SOL     OW81374   7.479   9.122   9.145 -0.1403  0.5006  0.1937
23815SOL    HW181375   7.488   9.202   9.197  2.1430  2.3513 -2.7158
23815SOL    HW281376   7.454   9.153   9.058  1.8681 -1.7847 -1.3176
23816SOL     OW81377  11.234   8.613   9.650  0.2051  0.0001  0.0211
23816SOL    HW181378  11.159   8.618   9.591 -1.7685  1.6025  2.4778
23816SOL    HW281379  11.278   8.697   9.639 -0.0461  0.2161  0.6528
23817SOL     OW81380  12.780   4.298   8.429 -0.4292 -0.5522  0.6926
23817SOL    HW181381  12.701   4.344   8.455 -0.6924 -0.1859 -0.6677
23817SOL    HW281382  12.757   4.254   8.347  0.8617 -0.1519  0.0896
23818SOL     OW81383   0.384   2.000   4.865  1.0372 -0.3303  0.0837
23818SOL    HW181384   0.447   1.971   4.799 -0.3876 -1.5850 -0.7996
23818SOL    HW281385   0.438   2.035   4.936  2.6442  0.6698 -1.5352
23819SOL     OW81386   8.926  12.462   4.129 -0.5875  0.0062  0.1462
23819SOL    HW181387   8.855  12.519   4.159 -1.1590 -0.1770 -0.8113
23819SOL    HW281388   8.969  12.512   4.059  1.2403  0.7760  1.7313
23820SOL     OW81389   0.539  12.831   1.652 -0.3274 -0.1068 -0.6135
23820SOL    HW181390   0.630  12.861   1.647 -0.4592  0.1729 -1.5548
23820SOL    HW281391   0.503  12.875   1.728  0.8394 -1.6917  0.9275
23821SOL     OW81392   0.892   8.790   5.705  0.3825 -0.1332  0.0690
23821SOL    HW181393   0.928   8.836   5.781  0.3536  0.4778 -0.2788
23821SOL    HW281394   0.847   8.714   5.742 -2.4550  1.8365  1.0118
23822SOL     OW81395   0.669  12.449  11.945 -0.3549 -0.5275  0.5774
23822SOL    HW181396   0.717  12.406  12.016 -1.9970 -3.6766 -0.0273
23822SOL    HW281397   0.649  12.379  11.883 -1.5177  1.5507 -1.5843
23823SOL     OW81398  10.660   1.739  11.687 -0.3116 -0.0716 -0.1936
23823SOL    HW181399  10.590   1.682  11.655  0.0333  0.0233 -1.1423
23823SOL    HW281400  10.738   1.710  11.640  0.4557 -0.6498  1.3671
23824SOL     OW81401   4.759   7.120   5.328 -0.0300 -0.0502 -0.0311
23824SOL    HW181402   4.724   7.061   5.395 -2.1018  0.2048 -0.8271
23824SOL    HW281403   4.806   7.187   5.377  1.4859 -1.7276  0.9433
23825SOL     OW81404  10.054   4.698   3.879 -0.0239 -0.0704  0.0585
23825SOL    HW181405  10.037   4.686   3.786 -1.2619 -0.1552  0.2877
23825SOL    HW281406   9.985   4.757   3.909  0.4977  0.1412  0.8804
23826SOL     OW81407  10.928   8.667   1.638  0.3996  0.0070  0.0888
23826SOL    HW181408  10.850   8.613   1.650  2.1349 -2.5829  0.6149
23826SOL    HW281409  10.899   8.740   1.584 -2.3388 -0.9101  0.1724
23827SOL     OW81410  11.202   5.905   1.387  0.1936  0.1809 -0.4525
23827SOL    HW181411  11.201   5.971   1.317 -0.7959  0.3802 -0.2634
23827SOL    HW281412  11.290   5.911   1.424  0.5785  0.4003 -1.3663
23828SOL     OW81413   1.855   0.951   3.653 -0.2721  0.0120  0.6356
23828SOL    HW181414   1.833   0.948   3.746  1.4554 -0.1885  1.0689
23828SOL    HW281415   1.797   0.886   3.613  0.2530 -1.2943  1.8750
23829SOL     OW81416   2.326   1.362  11.182 -0.1153 -0.3270  0.4994
23829SOL    HW181417   2.347   1.270  11.200 -0.4610 -0.7632 -1.1431
23829SOL    HW281418   2.395   1.391  11.122 -0.6196  0.1357  0.1277
23830SOL     OW81419  10.065  12.166  13.101  0.3593  0.3439 -0.2987
23830SOL    HW181420  10.123  12.156  13.025  0.7818  2.0232 -0.2301
23830SOL    HW281421   9.995  12.102  13.086  0.8583  0.0987 -1.7085
23831SOL     OW81422   4.185   8.387   7.799  0.2601  0.5432 -0.2058
23831SOL    HW181423   4.209   8.473   7.766  0.1871  0.6071 -0.0925
23831SOL    HW281424   4.098   8.400   7.838  1.0212  0.8334  1.4722
23832SOL     OW81425   2.910   6.353   4.065  0.0056  0.1930 -0.9814
23832SOL    HW181426   2.978   6.350   3.997  1.6796  1.1620  0.5759
23832SOL    HW281427   2.955   6.326   4.145 -1.7320 -0.1836 -0.0796
23833SOL     OW81428   9.309   1.844  12.738 -0.4641  0.2421 -0.4465
23833SOL    HW181429   9.390   1.792  12.741 -0.5815 -0.1115 -2.3306
23833SOL    HW281430   9.328   1.914  12.676 -0.9342  1.3850  0.6748
23834SOL     OW81431   2.140   5.847  13.277 -0.4131 -0.1831 -0.4970
23834SOL    HW181432   2.091   5.766  13.266 -0.8701  0.0629 -0.2820
23834SOL    HW281433   2.076   5.916  13.263 -0.0096  0.1442 -0.7507
23835SOL     OW81434   0.361   8.932  13.085  0.3692  0.3963 -0.7459
23835SOL    HW181435   0.344   8.874  13.011  0.0951 -1.7778  0.9137
23835SOL    HW281436   0.277   8.974  13.103  0.5655  1.3499 -1.9567
23836SOL     OW81437   1.877   6.377   3.592 -0.0508 -0.0457  0.1619
23836SOL    HW181438   1.922   6.370   3.508  0.0973  0.6572  0.1790
23836SOL    HW281439   1.797   6.426   3.573  0.8400  1.6996  0.7306
23837SOL     OW81440   1.649   0.369   2.033 -0.3491 -0.3662  0.0482
23837SOL    HW181441   1.745   0.363   2.034 -0.3842 -0.9322  1.1548
23837SOL    HW281442   1.632   0.463   2.025  0.3224 -0.0126  2.2658
23838SOL     OW81443  13.162   1.459  11.247  0.2282  0.2709 -0.2114
23838SOL    HW181444  13.101   1.453  11.320  1.3308  1.1372  0.8159
23838SOL    HW281445  13.178   1.369  11.221 -0.2722 -0.0370  0.5238
23839SOL     OW81446   3.746   5.004   6.555 -0.2631 -0.2374  0.0626
23839SOL    HW181447   3.825   5.055   6.574 -0.3661 -0.0816  0.0803
23839SOL    HW281448   3.768   4.954   6.477 -0.8752  1.4835 -1.2862
23840SOL     OW81449  12.760   6.319  10.885 -0.5104 -0.0157 -0.1858
23840SOL    HW181450  12.795   6.293  10.970 -1.2628  0.8759  0.4233
23840SOL    HW281451  12.818   6.278  10.821  0.2068 -0.5124  0.7590
23841SOL     OW81452   3.843   5.915   6.661  0.2979  0.1173  0.3184
23841SOL    HW181453   3.790   5.992   6.643  0.5074  0.6496  1.7863
23841SOL    HW281454   3.908   5.914   6.591 -0.5214  0.5044 -0.4631
23842SOL     OW81455   7.318   7.609   6.510  0.0757  0.2877  0.4251
23842SOL    HW181456   7.227   7.633   6.490 -1.4166 -2.8587  2.6210
23842SOL    HW281457   7.353   7.576   6.427 -1.7208 -0.9088  0.0850
23843SOL     OW81458   1.313   3.582   4.600  0.2679 -0.4827  0.3592
23843SOL    HW181459   1.260   3.547   4.671 -0.4118  0.1231  0.1603
23843SOL    HW281460   1.396   3.605   4.641  0.2013 -0.9620  0.7720
23844SOL     OW81461   9.634   0.212  10.243 -0.4448 -0.1307 -0.1604
23844SOL    HW181462   9.706   0.214  10.180 -1.2548 -1.3201 -1.1870
23844SOL    HW281463   9.575   0.144  10.209 -1.3779 -0.1391  1.3818
23845SOL     OW81464   6.102   9.486   5.512  0.4510  0.4439  0.5273
23845SOL    HW181465   6.097   9.428   5.436 -2.3881 -1.3867  1.9340
23845SOL    HW281466   6.193   9.482   5.540  1.3890  0.5313 -2.2204
23846SOL     OW81467  10.367   3.405  10.617  0.0550  0.3731  0.3833
23846SOL    HW181468  10.291   3.356  10.647  0.8373 -0.5811  0.8906
23846SOL    HW281469  10.335   3.494  10.601 -1.2696 -0.1524  0.0330
23847SOL     OW81470   1.077   7.489   3.268  0.3503  0.2026 -0.2343
23847SOL    HW181471   1.142   7.491   3.338  0.6762  0.0831 -0.5312
23847SOL    HW281472   1.090   7.405   3.224  0.5515  0.5275 -0.8105
23848SOL     OW81473  11.021   9.473  10.421  0.2364 -0.1945 -0.4746
23848SOL    HW181474  11.103   9.484  10.469 -0.0410 -0.8249  0.1736
23848SOL    HW281475  10.971   9.552  10.440  0.2321 -0.3279  0.0853
23849SOL     OW81476  11.554   3.937  12.863  0.3426  0.8461 -0.4537
23849SOL    HW181477  11.601   4.020  12.876  0.0317  0.7596  1.5803
23849SOL    HW281478  11.491   3.956  12.793  1.5438  1.7553 -1.3233
23850SOL     OW81479   2.353   5.044  10.895 -0.0906  0.2461 -0.2899
23850SOL    HW181480   2.317   4.955  10.899 -0.1377  0.3247  1.7646
23850SOL    HW281481   2.434   5.034  10.845 -0.3892 -0.8438 -0.5920
23851SOL     OW81482   7.638   9.317   8.976  0.2535 -0.0084 -0.3171
23851SOL    HW181483   7.711   9.377   8.966 -0.0428  0.3718 -0.2374
23851SOL    HW281484   7.678   9.230   8.986  0.6418 -0.1903 -2.8787
23852SOL     OW81485   0.046  10.222   2.443  0.3073 -0.2337 -0.3186
23852SOL    HW181486   0.118  10.281   2.423 -0.4539  0.2038 -1.8532
23852SOL    HW281487   0.079  10.169   2.516  1.8795  0.4758 -0.4704
23853SOL     OW81488   4.586  11.078  11.544  1.0780 -0.1069 -0.4300
23853SOL    HW181489   4.541  11.055  11.463  2.4617  0.5162 -1.4241
23853SOL    HW281490   4.615  10.993  11.579  1.0847 -0.3351 -0.9727
23854SOL     OW81491   1.510   8.959   0.216  0.1855 -0.2882 -0.0369
23854SOL    HW181492   1.518   9.041   0.167 -2.2361 -0.3211 -0.6251
23854SOL    HW281493   1.417   8.955   0.241  0.5001 -2.2733  1.0216
23855SOL     OW81494   0.057  12.487  11.509  0.0870 -0.1325 -0.1131
23855SOL    HW181495   0.006  12.409  11.534  0.6706 -0.3460  0.4349
23855SOL    HW281496   0.102  12.513  11.589 -0.1375  0.8066 -0.2847
23856SOL     OW81497   4.189   6.106   1.190  0.3392  0.0717  0.1234
23856SOL    HW181498   4.141   6.039   1.239 -0.2920 -0.2366 -0.8971
23856SOL    HW281499   4.121   6.164   1.155  0.7802  0.2509 -0.4467
23857SOL     OW81500   3.056  12.095   9.475 -0.4825  0.2406 -0.1254
23857SOL    HW181501   3.114  12.022   9.495 -0.9570 -0.0765  0.1194
23857SOL    HW281502   2.997  12.062   9.407 -0.6998  0.3885 -0.0135
23858SOL     OW81503  12.976  10.587  12.453  0.0852  0.0562  0.3175
23858SOL    HW181504  13.006  10.630  12.533 -0.6028 -0.9329  1.1333
23858SOL    HW281505  12.971  10.495  12.476  1.1253 -0.4394 -1.2667
23859SOL     OW81506   9.006   3.510   3.710  0.7962 -0.1540 -0.0557
23859SOL    HW181507   9.037   3.555   3.632 -0.5134 -0.7188 -0.9300
23859SOL    HW281508   9.005   3.578   3.778 -2.7703  1.7440 -1.7457
23860SOL     OW81509   7.219   3.671  11.454 -0.2695  0.7463  0.1623
23860SOL    HW181510   7.214   3.632  11.542 -0.7235 -0.8447 -0.5265
23860SOL    HW281511   7.307   3.707  11.449  0.0214  0.1964  1.0150
23861SOL     OW81512   0.524   2.717   9.953 -0.3099 -0.1097  0.0793
23861SOL    HW181513   0.506   2.697   9.861 -0.3429  0.3241 -0.0126
23861SOL    HW281514   0.440   2.705   9.997 -0.0562 -1.4055  0.2606
23862SOL     OW81515   1.269  12.037  10.256 -0.8499 -0.8266 -0.2185
23862SOL    HW181516   1.359  12.042  10.225 -0.6374 -1.7401  0.2390
23862SOL    HW281517   1.230  12.120  10.228  0.2306 -0.2542 -0.0810
23863SOL     OW81518   0.496   4.023   0.106 -0.0225  0.5294 -0.1431
23863SOL    HW181519   0.534   3.948   0.151 -0.9905 -0.3648 -0.7622
23863SOL    HW281520   0.543   4.099   0.141  1.5248 -0.4144 -0.0673
23864SOL     OW81521   1.371   9.088   2.654 -0.3179  0.1202 -0.3624
23864SOL    HW181522   1.440   9.035   2.693 -0.6138  1.9916  3.1014
23864SOL    HW281523   1.291   9.036   2.663  0.2818 -1.6513 -3.5421
23865SOL     OW81524   1.103   7.228  11.797  0.5345  0.1316  0.9949
23865SOL    HW181525   1.089   7.134  11.788 -2.2520  0.3995  1.7824
23865SOL    HW281526   1.102   7.260  11.707 -1.7370 -0.2608  0.8215
23866SOL     OW81527   6.090  10.057   6.494  0.4518  0.1948 -0.2507
23866SOL    HW181528   6.156  10.048   6.425 -0.5831  1.3315 -1.4590
23866SOL    HW281529   6.075  10.152   6.500 -0.6895 -0.0099  0.3376
23867SOL     OW81530   1.242   5.416   7.520  0.5197 -0.6853 -0.2980
23867SOL    HW181531   1.276   5.347   7.463 -0.4397 -0.5086 -1.0951
23867SOL    HW281532   1.207   5.368   7.596  1.4576 -0.9421 -0.0139
23868SOL     OW81533   7.260   5.409   4.640  0.4024 -0.2491  0.8565
23868SOL    HW181534   7.218   5.473   4.582 -0.5054  1.5274  3.3056
23868SOL    HW281535   7.353   5.435   4.639  0.0880  0.9924  1.6145
23869SOL     OW81536  12.748   8.627   5.533 -0.4048 -0.0658 -0.9721
23869SOL    HW181537  12.733   8.652   5.624  0.9093  0.5766 -0.9074
23869SOL    HW281538  12.674   8.665   5.486 -0.9535 -0.1665 -0.2157
23870SOL     OW81539  13.208   4.579   5.153  0.5034  0.5659 -0.0761
23870SOL    HW181540  13.157   4.521   5.096  3.2102  0.7722 -2.9365
23870SOL    HW281541  13.160   4.662   5.151  0.6957  0.6832 -2.4492
23871SOL     OW81542   3.520  12.372   7.687 -0.2067  0.3570  0.5578
23871SOL    HW181543   3.432  12.367   7.725 -0.4104  0.4666  0.1085
23871SOL    HW281544   3.505  12.373   7.593  0.2504  0.9210  0.4859
23872SOL     OW81545   1.935   1.090   2.506 -1.0012 -0.3067 -0.9592
23872SOL    HW181546   2.017   1.050   2.535 -0.3404  0.5892 -1.5243
23872SOL    HW281547   1.907   1.038   2.431 -0.2955  0.0933 -1.5154
23873SOL     OW81548   5.889   4.412  11.871 -0.1176 -0.1004 -0.7941
23873SOL    HW181549   5.889   4.323  11.908 -0.2357  0.4208  0.5383
23873SOL    HW281550   5.851   4.402  11.784 -1.2591 -1.1989 -0.2174
23874SOL     OW81551   6.137   1.423   3.485  0.3991 -0.2541 -0.3293
23874SOL    HW181552   6.153   1.514   3.508 -1.1276 -0.4850  2.0164
23874SOL    HW281553   6.073   1.427   3.414  0.0804  0.4939 -0.0082
23875SOL     OW81554   0.068  11.696   1.426  0.1823  0.0645  0.4919
23875SOL    HW181555   0.056  11.790   1.416  2.5746  0.4248  0.2230
23875SOL    HW281556  -0.004  11.657   1.376 -0.3408  1.7572 -0.1555
23876SOL     OW81557   8.989   1.018   0.942 -0.7022 -0.9134 -0.8840
23876SOL    HW181558   8.901   1.055   0.948 -0.1641  0.2020  1.6708
23876SOL    HW281559   9.032   1.069   0.872 -1.2933  0.4016 -0.3301
23877SOL     OW81560   8.390   1.874  11.026 -0.4653  0.1763  0.9110
23877SOL    HW181561   8.322   1.831  11.078 -1.4179 -0.8328 -1.0810
23877SOL    HW281562   8.353   1.879  10.938  1.6588  0.5191 -0.0085
23878SOL     OW81563   7.054   9.221   6.085  0.1836 -0.8302  0.4348
23878SOL    HW181564   7.132   9.260   6.125  0.0924  0.1303 -0.2850
23878SOL    HW281565   6.994   9.295   6.072 -0.9880 -1.6015  1.2494
23879SOL     OW81566  12.421   2.325  10.343  0.0540  0.0417 -0.0498
23879SOL    HW181567  12.445   2.297  10.431 -0.0753  1.9526  0.6350
23879SOL    HW281568  12.483   2.395  10.322 -0.1478 -0.1328 -1.3424
23880SOL     OW81569   0.763   8.100   6.268 -0.8104  0.0719 -0.5406
23880SOL    HW181570   0.749   8.020   6.217 -1.9627 -0.4288  0.4913
23880SOL    HW281571   0.674   8.133   6.283 -0.4456  0.5831  0.5251
23881SOL     OW81572   1.614   8.919   3.385  0.1583 -0.2139  0.1488
23881SOL    HW181573   1.619   8.824   3.392 -1.6903 -0.4674 -1.3505
23881SOL    HW281574   1.694   8.950   3.428  0.9160 -2.4276  0.4680
23882SOL     OW81575   9.724  10.852  12.175 -0.2473 -0.1207  0.1182
23882SOL    HW181576   9.696  10.821  12.089 -1.0843 -1.4291  0.8276
23882SOL    HW281577   9.820  10.853  12.169 -0.2309 -1.5555 -0.4116
23883SOL     OW81578  12.304  10.096   0.970  0.4128  0.4848  0.1194
23883SOL    HW181579  12.213  10.112   0.995  0.5350 -0.5732  1.3392
23883SOL    HW281580  12.306  10.111   0.875 -1.8375 -2.6378 -0.5890
23884SOL     OW81581  13.047   4.281  11.320 -0.3294 -0.8001  0.2093
23884SOL    HW181582  13.121   4.271  11.261 -0.7622 -1.1183 -0.2907
23884SOL    HW281583  13.086   4.284  11.407  0.2630 -1.0525 -0.0414
23885SOL     OW81584  11.621  13.089   8.514  0.2968 -0.0936 -0.2139
23885SOL    HW181585  11.587  13.001   8.527  0.0959 -0.0457 -0.4114
23885SOL    HW281586  11.544  13.145   8.512  0.5023  0.4487  2.5388
23886SOL     OW81587   5.567   9.641   4.369  0.4630 -0.2829 -0.7521
23886SOL    HW181588   5.570   9.600   4.455 -0.6288  2.0442  0.5016
23886SOL    HW281589   5.651   9.686   4.360  0.3720 -0.0912 -0.6548
23887SOL     OW81590  11.221   3.969  10.883  0.1119 -0.1321  0.3538
23887SOL    HW181591  11.182   3.935  10.802 -0.5681  0.0397  0.6046
23887SOL    HW281592  11.309   3.996  10.857 -0.0856 -0.1106 -0.3214
23888SOL     OW81593   1.930   2.015   5.144  0.2257 -0.0034 -0.3715
23888SOL    HW181594   1.973   2.080   5.199 -2.8121  1.8426  0.0735
23888SOL    HW281595   1.901   1.947   5.204  1.2719 -0.5644 -0.4815
23889SOL     OW81596  10.913  11.022   2.004  0.0392 -1.0382 -0.0118
23889SOL    HW181597  10.938  10.958   1.937 -0.1675 -0.7646 -0.3526
23889SOL    HW281598  10.884  11.098   1.955  2.3548  0.1807  0.3420
23890SOL     OW81599  13.262   0.442   8.996  0.5013 -0.0018 -0.0650
23890SOL    HW181600  13.351   0.473   8.981 -0.9266  4.6795 -0.3106
23890SOL    HW281601  13.211   0.477   8.923 -1.9321 -0.6130  1.2185
23891SOL     OW81602   7.743   2.175   9.962 -0.3243 -0.1671 -0.2586
23891SOL    HW181603   7.740   2.240   9.891 -2.4982  1.4424  1.1786
23891SOL    HW281604   7.654   2.140   9.967  0.4377 -2.1997  0.0171
23892SOL     OW81605   6.134   6.539   7.485  0.0508  0.5895 -0.0987
23892SOL    HW181606   6.091   6.534   7.570  0.8038  1.9152  0.3876
23892SOL    HW281607   6.178   6.454   7.476  1.9786  1.2710  1.9639
23893SOL     OW81608   3.224   8.598   2.753 -0.1825 -0.0368 -0.4132
23893SOL    HW181609   3.306   8.644   2.770  0.3939 -1.4921  0.9838
23893SOL    HW281610   3.175   8.607   2.835  0.0007 -1.9635 -0.0528
23894SOL     OW81611   0.786   9.290   8.574 -0.5447  0.5498  0.7945
23894SOL    HW181612   0.849   9.262   8.507 -1.6375  0.7218 -0.3413
23894SOL    HW281613   0.804   9.234   8.649 -1.6482 -2.2238 -0.8646
23895SOL     OW81614   5.436   4.498  12.716  0.5102  0.5667  0.9010
23895SOL    HW181615   5.346   4.465  12.706  1.1829 -1.4248  1.0972
23895SOL    HW281616   5.466   4.512  12.626  0.9967 -1.6806  0.6667
23896SOL     OW81617   0.550   5.601   0.153  0.3046 -0.0373 -0.3615
23896SOL    HW181618   0.544   5.677   0.095  2.4557 -0.0041 -0.6247
23896SOL    HW281619   0.525   5.527   0.098 -0.4084  0.3054 -0.5106
23897SOL     OW81620   1.662   4.511   8.386 -0.4230  0.5184 -0.2559
23897SOL    HW181621   1.685   4.540   8.298 -0.5161 -1.4273 -0.9766
23897SOL    HW281622   1.703   4.425   8.394 -0.6584  0.5392  1.5105
23898SOL     OW81623   4.445  13.012   9.679  0.2252 -0.0136 -0.1945
23898SOL    HW181624   4.526  13.056   9.702  1.4748 -2.3000  0.0141
23898SOL    HW281625   4.390  13.081   9.641  1.9371  1.7419  0.3890
23899SOL     OW81626  13.283   8.738   5.309  0.0235 -0.5257 -0.3232
23899SOL    HW181627  13.307   8.653   5.271 -2.2446 -1.7137  0.7247
23899SOL    HW281628  13.260   8.718   5.399  0.1307  1.3606  0.1641
23900SOL     OW81629  12.320  10.168   2.124 -0.6890  0.1082 -0.5347
23900SOL    HW181630  12.261  10.157   2.050  0.6354 -1.7447 -1.3619
23900SOL    HW281631  12.384  10.234   2.094 -0.4052 -0.3235 -0.8858
23901SOL     OW81632   4.355   2.770   8.830 -0.2134  0.4003  0.0687
23901SOL    HW181633   4.317   2.821   8.759 -1.3683 -1.5373 -0.7746
23901SOL    HW281634   4.373   2.684   8.792  0.3131 -0.3054  1.7950
23902SOL     OW81635   8.506  10.179   2.352  0.3232 -0.2213 -0.2850
23902SOL    HW181636   8.531  10.087   2.349 -2.4564 -1.1352  1.0512
23902SOL    HW281637   8.547  10.218   2.274  1.3985 -2.6164 -1.0045
23903SOL     OW81638   1.240  13.159   5.119  0.8117  0.1275  0.3799
23903SOL    HW181639   1.169  13.180   5.179 -0.5110 -0.3856 -0.9433
23903SOL    HW281640   1.257  13.066   5.133  0.9459  0.1550  0.4041
23904SOL     OW81641   6.149   1.054   5.804  0.3005 -0.2622 -0.9027
23904SOL    HW181642   6.156   1.022   5.714 -0.1907  0.7114 -1.3052
23904SOL    HW281643   6.058   1.039   5.828  0.2780  0.0437 -0.7928
23905SOL     OW81644   7.502   7.665   9.035  0.0736 -0.5183  0.2351
23905SOL    HW181645   7.506   7.579   9.076 -0.1658 -0.1838  0.9818
23905SOL    HW281646   7.416   7.699   9.060  0.7278  0.5240  1.1793
23906SOL     OW81647   7.104   7.748  12.015  0.2464 -0.0034  0.6123
23906SOL    HW181648   7.080   7.659  12.040 -0.9822  0.3380  0.7313
23906SOL    HW281649   7.025   7.800  12.031  0.8072  1.0373  0.1576
23907SOL     OW81650   0.583   5.980   5.048 -0.6126 -0.1011  0.2974
23907SOL    HW181651   0.550   5.931   5.122 -2.8583  0.3221 -0.3502
23907SOL    HW281652   0.631   6.053   5.087 -1.8605  0.1922  1.3624
23908SOL     OW81653   4.079   8.339   9.945  0.1130 -0.1252  0.0499
23908SOL    HW181654   4.166   8.355   9.980  0.2230 -0.0367 -0.2545
23908SOL    HW281655   4.026   8.411   9.979  0.7076  1.2244 -1.6665
23909SOL     OW81656   5.593   0.446   9.386  0.7633  0.5122 -0.0562
23909SOL    HW181657   5.527   0.381   9.412  0.7083 -0.1234 -1.6891
23909SOL    HW281658   5.670   0.394   9.363  0.1474  0.7728 -3.1844
23910SOL     OW81659   8.496   5.213  10.050  0.6266  0.2871  0.0708
23910SOL    HW181660   8.545   5.215  10.132  1.1277 -3.2079  0.0219
23910SOL    HW281661   8.408   5.244  10.073  1.4719  1.9683  1.2414
23911SOL     OW81662   9.413  10.368  13.011 -0.4459 -0.7697 -0.5757
23911SOL    HW181663   9.344  10.384  12.945 -1.0627 -0.8050  0.0503
23911SOL    HW281664   9.487  10.420  12.980 -1.3911  0.8656 -0.2335
23912SOL     OW81665   3.464   5.071   6.160 -0.0596  0.2491  0.4913
23912SOL    HW181666   3.420   5.056   6.244  1.2220 -0.5121  1.0444
23912SOL    HW281667   3.447   4.992   6.109 -0.1032  0.3496  0.3476
23913SOL     OW81668   9.611   7.847   8.871 -0.1588 -0.4508 -0.0027
23913SOL    HW181669   9.685   7.817   8.924 -0.2147 -0.1048  0.2701
23913SOL    HW281670   9.550   7.774   8.874 -0.9174  0.1989  1.8468
23914SOL     OW81671   9.529  10.991   9.544  0.0293  0.3953 -0.3328
23914SOL    HW181672   9.511  10.911   9.494 -0.0542  2.5210 -4.1287
23914SOL    HW281673   9.442  11.029   9.560  0.1339  0.3908  0.2547
23915SOL     OW81674   8.807  10.200   2.118  0.6274 -0.2745 -0.2971
23915SOL    HW181675   8.790  10.133   2.052  0.9961  1.0063 -1.7574
23915SOL    HW281676   8.722  10.240   2.136  0.4516 -0.9293  0.3744
23916SOL     OW81677   6.381  11.684   4.202 -0.5021 -0.2821  0.5241
23916SOL    HW181678   6.449  11.629   4.242 -0.8944 -0.8311  0.4484
23916SOL    HW281679   6.428  11.734   4.135 -0.6533 -3.0348 -1.8746
23917SOL     OW81680   2.134   5.563  13.276  0.0340 -0.4729 -0.2272
23917SOL    HW181681   2.049   5.533  13.309  0.4425 -0.6616  0.6813
23917SOL    HW281682   2.160   5.496  13.212 -0.0877 -0.8936  0.1574
23918SOL     OW81683   9.473   8.505   5.203 -0.2474 -0.4151 -0.0456
23918SOL    HW181684   9.474   8.597   5.228  0.0572 -0.2974 -0.4756
23918SOL    HW281685   9.479   8.506   5.108 -0.5801 -0.8713 -0.0744
23919SOL     OW81686   1.861   6.984   6.458 -0.4084  0.0262 -0.6914
23919SOL    HW181687   1.846   7.075   6.432  1.2391  0.0471 -1.6990
23919SOL    HW281688   1.951   6.983   6.490 -0.8844 -0.9821  0.6988
23920SOL     OW81689  13.237   8.123   8.687  0.1577 -0.4047 -0.1441
23920SOL    HW181690  13.171   8.099   8.752 -2.1167 -0.8308 -2.4443
23920SOL    HW281691  13.309   8.062   8.703 -0.0491 -0.1395  2.2567
23921SOL     OW81692   0.237  12.825  10.967  0.7579  0.0423 -0.5487
23921SOL    HW181693   0.145  12.814  10.989  0.6655 -0.7727 -1.2607
23921SOL    HW281694   0.240  12.899  10.907  0.0723 -1.9326 -3.2079
23922SOL     OW81695  10.557   7.570  11.751 -0.3552 -0.0125 -0.0651
23922SOL    HW181696  10.646   7.604  11.760  0.0172 -1.3824  2.2784
23922SOL    HW281697  10.563   7.504  11.682  0.4770 -0.2148  0.1913
23923SOL     OW81698   1.714   6.233   9.428  0.3344 -0.6017 -0.1172
23923SOL    HW181699   1.804   6.247   9.401  0.8375 -2.6312  0.3441
23923SOL    HW281700   1.692   6.145   9.395 -2.0230  0.4416 -1.6080
23924SOL     OW81701   0.187  11.449   6.842  0.4074  0.2120  0.3425
23924SOL    HW181702   0.196  11.535   6.801 -0.4064 -1.3864 -3.5972
23924SOL    HW281703   0.097  11.447   6.874  0.6775  1.0456  1.2236
23925SOL     OW81704   2.099  12.034  11.206 -0.3773 -0.3664 -0.0658
23925SOL    HW181705   2.130  12.077  11.286  2.3005 -2.7464  0.3252
23925SOL    HW281706   2.004  12.041  11.211 -0.2756  0.2784  2.9394
23926SOL     OW81707  11.089  10.845   2.604 -0.5049 -0.1489 -0.0220
23926SOL    HW181708  11.108  10.854   2.510  1.3868 -0.5944  0.2682
23926SOL    HW281709  11.158  10.895   2.647  0.0787 -1.8970  1.1786
23927SOL     OW81710   5.170   9.426   0.912 -0.1760  0.1148  0.2558
23927SOL    HW181711   5.169   9.416   1.008 -0.8710  0.0261  0.2428
23927SOL    HW281712   5.164   9.521   0.898  1.3969  0.2472  0.3101
23928SOL     OW81713   1.226   6.187   2.688 -0.0394 -0.4968  0.0113
23928SOL    HW181714   1.131   6.175   2.691 -0.0375 -0.3339  0.8504
23928SOL    HW281715   1.261   6.129   2.756  0.5545 -1.2872 -0.9313
23929SOL     OW81716   0.884  13.307   2.825  0.7369 -0.0783 -0.3425
23929SOL    HW181717   0.873  13.395   2.862 -1.8151 -0.0923 -0.8854
23929SOL    HW281718   0.843  13.313   2.739 -1.1678 -2.2590  0.3488
23930SOL     OW81719   1.511   5.438  10.184 -0.1219 -0.4372 -0.5883
23930SOL    HW181720   1.516   5.526  10.223 -0.0005 -0.3891 -0.7144
23930SOL    HW281721   1.417   5.421  10.178 -0.1582 -0.0842 -1.0868
23931SOL     OW81722   7.700   2.156   2.541 -0.0776 -0.2040  0.3610
23931SOL    HW181723   7.721   2.171   2.448 -1.1125 -1.6416 -0.1413
23931SOL    HW281724   7.785   2.140   2.582  0.5698  1.9203  0.0051
23932SOL     OW81725   2.490   0.819  10.922 -0.0672 -0.3163  0.1152
23932SOL    HW181726   2.524   0.730  10.929  1.2892  0.2575  1.0805
23932SOL    HW281727   2.515   0.847  10.834 -0.2000 -0.7563 -0.0690
23933SOL     OW81728   0.998   0.867   7.462  0.1529 -0.0464 -0.4074
23933SOL    HW181729   0.986   0.802   7.392 -0.5908  0.5964 -0.8938
23933SOL    HW281730   1.004   0.951   7.416  0.7190  0.2782  0.2400
23934SOL     OW81731   7.037   7.978   3.820  0.4078  0.3379 -0.5963
23934SOL    HW181732   7.059   7.894   3.779  0.4477  0.5749 -1.0659
23934SOL    HW281733   7.120   8.024   3.826  0.3854  0.3429 -0.3394
23935SOL     OW81734   2.422   7.147   8.683  0.5934 -0.1485  0.5935
23935SOL    HW181735   2.356   7.105   8.738 -0.6104 -1.6235 -1.8298
23935SOL    HW281736   2.406   7.241   8.694  0.4992 -0.3635  2.7919
23936SOL     OW81737   3.703   0.465  10.944 -0.3929  0.1580  0.3693
23936SOL    HW181738   3.767   0.481  11.014 -1.0708  0.8252  0.8519
23936SOL    HW281739   3.726   0.378  10.910  0.0197 -0.1313  1.3456
23937SOL     OW81740   9.845  11.418   9.344 -0.2487  0.6287  0.5590
23937SOL    HW181741   9.806  11.384   9.263  1.6706  1.1820 -0.6495
23937SOL    HW281742   9.906  11.349   9.371  0.4051  1.1915  0.5403
23938SOL     OW81743   6.880   3.513   2.588 -0.6237  0.3108  0.0669
23938SOL    HW181744   6.830   3.573   2.531  0.0282  0.5708 -0.2418
23938SOL    HW281745   6.952   3.567   2.622  0.5428 -0.5313 -0.9909
23939SOL     OW81746   0.537   0.838  10.028  0.5481  0.4909 -0.9810
23939SOL    HW181747   0.548   0.747  10.000  0.7854 -0.2796  1.4057
23939SOL    HW281748   0.626   0.871  10.038  0.4787  0.5381 -0.5128
23940SOL     OW81749   4.339   3.773   3.669 -0.4060  0.4094  0.1989
23940SOL    HW181750   4.286   3.847   3.639 -0.6990  0.7390  1.4533
23940SOL    HW281751   4.356   3.722   3.591 -1.9093  0.7266 -0.3662
23941SOL     OW81752  11.042  12.089   2.756  0.4522 -0.3083  0.2376
23941SOL    HW181753  11.131  12.055   2.752  1.0033  1.0681  0.2236
23941SOL    HW281754  11.019  12.108   2.665  0.8235  0.9627  0.3889
23942SOL     OW81755   2.763   1.324   5.217  0.9867  0.1525 -0.1117
23942SOL    HW181756   2.702   1.323   5.144  0.8834  0.6961 -0.0377
23942SOL    HW281757   2.811   1.407   5.208  3.2032 -1.1748 -1.3759
23943SOL     OW81758   1.200   5.955   1.370  0.5480  0.3718 -0.4816
23943SOL    HW181759   1.169   5.946   1.460  0.7179 -1.4768 -0.5764
23943SOL    HW281760   1.292   5.979   1.379  1.0962 -1.7070 -0.1015
23944SOL     OW81761   0.847  10.465   2.857  0.2976  0.5724  0.0099
23944SOL    HW181762   0.885  10.411   2.927  0.0935 -1.0675 -1.0956
23944SOL    HW281763   0.817  10.544   2.902 -0.3750 -0.6808  1.8986
23945SOL     OW81764  13.111   7.412  10.279 -0.0213 -0.2085  0.1050
23945SOL    HW181765  13.199   7.428  10.313 -0.0742  0.9038 -0.2599
23945SOL    HW281766  13.074   7.347  10.339  1.3550 -1.3781 -0.2634
23946SOL     OW81767   1.398   0.054  13.133  0.5168  0.0582 -0.1268
23946SOL    HW181768   1.412   0.111  13.209  1.5849 -1.3370  0.7643
23946SOL    HW281769   1.359   0.112  13.067  1.8131  1.8863  0.6303
23947SOL     OW81770  11.128   7.770   1.016 -0.0212  0.4148 -0.5316
23947SOL    HW181771  11.207   7.734   0.976 -1.0234 -2.9492  0.1753
23947SOL    HW281772  11.078   7.806   0.942 -0.1890 -2.3612 -1.9062
23948SOL     OW81773   2.238   2.178   1.900 -0.3279  0.5825  0.7867
23948SOL    HW181774   2.325   2.217   1.885 -0.2241 -0.4505 -1.8998
23948SOL    HW281775   2.253   2.084   1.897 -1.4694  0.3878  0.6771
23949SOL     OW81776   8.092  13.273   7.929 -0.0603 -0.3131 -0.2813
23949SOL    HW181777   8.156  13.262   8.000  1.3241  2.8163 -0.8862
23949SOL    HW281778   8.128  13.223   7.856  0.2547 -0.7983  0.1971
23950SOL     OW81779   6.995  13.295   0.268 -0.0835 -0.2925 -0.1448
23950SOL    HW181780   6.920  13.244   0.296  1.1650 -2.4358 -0.5119
23950SOL    HW281781   6.958  13.372   0.225 -2.0247  0.0168  1.9026
23951SOL     OW81782  13.245   3.449   3.416 -0.0317  0.2816  0.2825
23951SOL    HW181783  13.307   3.447   3.489 -0.8463  1.4601  1.0441
23951SOL    HW281784  13.166   3.490   3.452 -1.9660 -2.7410 -0.1338
23952SOL     OW81785   7.389   9.196   8.587 -0.1081  0.2794 -0.0880
23952SOL    HW181786   7.455   9.257   8.553 -1.0207  1.3667  0.0047
23952SOL    HW281787   7.389   9.210   8.682  1.1178 -1.3972  0.2054
23953SOL     OW81788   2.435  12.372  13.216  0.1623 -0.2328  0.3339
23953SOL    HW181789   2.388  12.310  13.159  1.8308 -0.3447 -1.0212
23953SOL    HW281790   2.412  12.458  13.183 -1.3423 -0.1344  1.5541
23954SOL     OW81791   8.339   4.500   1.328  0.3855  0.6292  0.0111
23954SOL    HW181792   8.305   4.478   1.415  0.7740  2.0620  0.5605
23954SOL    HW281793   8.282   4.453   1.268 -2.0104  2.1768  0.9361
23955SOL     OW81794   3.067  13.213  12.193  0.4441  0.1780 -0.5593
23955SOL    HW181795   3.138  13.262  12.151  0.0144  2.7475  1.5202
23955SOL    HW281796   3.100  13.191  12.280 -0.3801 -0.9664 -0.5029
23956SOL     OW81797   9.975  10.455  10.977 -0.1292  0.1233 -0.0340
23956SOL    HW181798   9.917  10.424  10.909  1.2455 -2.2079 -0.2389
23956SOL    HW281799  10.041  10.508  10.931 -1.0251  1.2818 -0.0285
23957SOL     OW81800  10.946  12.718   7.225  0.0099 -0.5071  0.1058
23957SOL    HW181801  10.941  12.779   7.299 -0.8967  0.4437 -0.7004
23957SOL    HW281802  11.031  12.739   7.184 -0.7868  1.0812 -0.8396
23958SOL     OW81803   8.031  11.746   5.431  0.0254  0.5696 -0.0963
23958SOL    HW181804   7.992  11.815   5.376 -0.2433  1.0655  0.6969
23958SOL    HW281805   7.966  11.676   5.431 -0.7647  1.2847  1.0017
23959SOL     OW81806   9.853  10.294  13.165 -0.1100  0.3512  0.1175
23959SOL    HW181807   9.814  10.207  13.172  0.0622  0.3477  1.2832
23959SOL    HW281808   9.947  10.279  13.171 -0.1224  0.6983  1.6384
23960SOL     OW81809   1.348   5.790   0.723 -0.8482  0.2666  0.1056
23960SOL    HW181810   1.435   5.749   0.731 -0.5970  0.5480 -1.0001
23960SOL    HW281811   1.343   5.817   0.632 -2.1273  0.2184  0.1450
23961SOL     OW81812   2.489   6.284   7.312  0.1653 -0.1808 -0.1673
23961SOL    HW181813   2.579   6.261   7.336 -0.4080 -0.7517  1.6331
23961SOL    HW281814   2.477   6.373   7.345  0.4292  0.3660 -1.5035
23962SOL     OW81815  12.098   3.194   1.673 -0.1707 -0.1820 -0.6117
23962SOL    HW181816  12.057   3.214   1.589  0.0479 -0.7153 -0.8491
23962SOL    HW281817  12.177   3.145   1.650  0.4315  0.5488 -0.1434
23963SOL     OW81818   6.392   0.184  11.831  0.0916  0.4348  0.0797
23963SOL    HW181819   6.379   0.103  11.880 -1.5100  0.6102 -0.0070
23963SOL    HW281820   6.420   0.247  11.897  2.0935 -0.3367  0.0240
23964SOL     OW81821   6.717   2.050   2.548 -0.1667  0.2160  0.0739
23964SOL    HW181822   6.711   2.083   2.459  1.5248 -0.6610 -0.4207
23964SOL    HW281823   6.638   1.997   2.560 -0.7431  0.8958 -0.6589
23965SOL     OW81824   8.365   9.645   1.519  0.5814 -0.1802  0.1361
23965SOL    HW181825   8.417   9.569   1.493  1.2924 -0.7990  2.9685
23965SOL    HW281826   8.282   9.609   1.550 -1.7219  0.7955 -4.2222
23966SOL     OW81827   5.042   5.022   7.402  0.0224 -0.6667 -0.1146
23966SOL    HW181828   5.106   5.044   7.469  1.0992  0.0739 -1.3418
23966SOL    HW281829   5.064   4.932   7.376  0.4990 -0.4608 -0.4399
23967SOL     OW81830  10.846   4.109   7.838 -0.0281 -0.4515 -0.3698
23967SOL    HW181831  10.848   4.180   7.774  0.7836  0.4475  0.6203
23967SOL    HW281832  10.928   4.062   7.825 -0.2331 -0.7663 -0.5342
23968SOL     OW81833   7.401   5.808   0.349  0.4114  0.2266  0.1959
23968SOL    HW181834   7.313   5.774   0.365 -0.6034  2.7388  0.3457
23968SOL    HW281835   7.420   5.785   0.258 -1.4497  1.7319 -0.6355
23969SOL     OW81836   9.256  12.638   6.891 -0.0661  0.2513  0.1456
23969SOL    HW181837   9.304  12.562   6.923  0.1762  0.4057  0.1473
23969SOL    HW281838   9.302  12.713   6.929 -0.6738  0.3769  0.6506
23970SOL     OW81839   8.840  11.490  13.275 -0.6763  0.2867 -0.3376
23970SOL    HW181840   8.915  11.469  13.330  0.6894  1.0581 -1.7892
23970SOL    HW281841   8.796  11.562  13.319 -1.0821 -0.7186  0.9481
23971SOL     OW81842   2.261   8.994   0.245  0.2393  0.5071 -0.3779
23971SOL    HW181843   2.353   9.006   0.268 -0.3264  1.9260  1.3419
23971SOL    HW281844   2.216   9.068   0.287 -2.2242 -2.2756  2.3361
23972SOL     OW81845   0.703   6.200   2.812 -0.0060  0.0129  0.5658
23972SOL    HW181846   0.718   6.152   2.893 -0.5750  0.2488  0.8134
23972SOL    HW281847   0.675   6.287   2.840 -0.1650  0.1100  0.1180
23973SOL     OW81848   3.097   0.682   3.961 -0.3957 -0.1223 -0.1390
23973SOL    HW181849   3.107   0.704   4.053 -1.6411 -0.0777 -0.0008
23973SOL    HW281850   3.066   0.592   3.960  0.6562 -0.4992 -0.5669
23974SOL     OW81851   4.937   2.469   7.646 -0.6555 -0.4043  0.1169
23974SOL    HW181852   4.870   2.526   7.684 -1.8230 -1.7121  0.0885
23974SOL    HW281853   5.012   2.478   7.705 -0.6345  1.4876 -0.1444
23975SOL     OW81854   3.915  11.499   9.907  0.0532 -0.0531  0.0083
23975SOL    HW181855   3.992  11.482   9.852  0.3748  2.2646 -0.3925
23975SOL    HW281856   3.858  11.553   9.852 -1.6481 -1.2788  0.4913
23976SOL     OW81857  11.797  12.815   5.006 -0.4391 -0.1289  0.1266
23976SOL    HW181858  11.745  12.787   5.082 -1.8207 -0.7018 -0.9873
23976SOL    HW281859  11.824  12.733   4.964 -0.9891  0.1755 -0.8490
23977SOL     OW81860   4.518  11.688   8.989 -0.2938 -0.1681  0.2119
23977SOL    HW181861   4.495  11.770   9.034  2.6830  0.6760  0.4110
23977SOL    HW281862   4.517  11.622   9.059 -1.1340 -0.0044  0.3686
23978SOL     OW81863  10.030   3.860   3.955 -0.5763  0.0259 -0.6069
23978SOL    HW181864  10.103   3.813   3.995  0.8067  1.4424 -1.3358
23978SOL    HW281865   9.980   3.895   4.029  1.4412  1.8711  0.0032
23979SOL     OW81866   6.672   2.627   4.424  0.3393 -0.4213  0.0571
23979SOL    HW181867   6.623   2.555   4.385  0.2420 -0.6124  0.5264
23979SOL    HW281868   6.701   2.593   4.509  1.9817 -0.6189 -0.5383
23980SOL     OW81869   8.611   9.678   2.024 -0.3592  0.2238  0.2385
23980SOL    HW181870   8.578   9.768   2.015 -0.3813  0.1025 -1.0907
23980SOL    HW281871   8.599   9.639   1.938 -1.7445 -1.5680  1.1801
23981SOL     OW81872   6.856   1.238   2.234 -0.6014 -0.5977 -0.4084
23981SOL    HW181873   6.937   1.289   2.237 -0.3840 -0.9722  0.5723
23981SOL    HW281874   6.804   1.279   2.165  0.3958 -0.3147 -1.0075
23982SOL     OW81875   8.055   2.141   2.180  0.4017  0.3271 -0.1043
23982SOL    HW181876   8.050   2.234   2.198  0.6284  0.0597  1.4880
23982SOL    HW281877   8.095   2.135   2.093 -2.1460  1.7497 -1.4732
23983SOL     OW81878   4.254   9.907   4.711 -0.2300  0.3310  0.8752
23983SOL    HW181879   4.172   9.866   4.686  0.0698 -0.2541  0.8380
23983SOL    HW281880   4.314   9.834   4.727  1.0254  0.7268 -1.5145
23984SOL     OW81881   3.706   9.581  11.869 -0.0765  0.2520 -0.2485
23984SOL    HW181882   3.789   9.578  11.916  0.4200 -0.8178 -1.1586
23984SOL    HW281883   3.714   9.656  11.810  0.1320  0.3102 -0.1445
23985SOL     OW81884  11.577   7.972   2.982  0.7935  0.8456  0.3304
23985SOL    HW181885  11.522   7.982   3.059  1.4497  0.9916  0.7911
23985SOL    HW281886  11.534   7.904   2.930  0.9488 -0.0913  1.3791
23986SOL     OW81887  11.055  12.899   4.566 -0.3487  0.3032 -0.3850
23986SOL    HW181888  11.021  12.945   4.643  3.2203  0.9748  1.0132
23986SOL    HW281889  11.040  12.806   4.585 -0.2042  0.5085  0.8160
23987SOL     OW81890   6.334   5.600   3.825 -0.3094  0.3379 -0.0771
23987SOL    HW181891   6.403   5.652   3.784  0.5346 -2.1449 -2.0024
23987SOL    HW281892   6.374   5.564   3.904  0.2319 -0.1493 -0.5716
23988SOL     OW81893  12.352   8.842  12.705 -0.8757 -0.0685 -0.2213
23988SOL    HW181894  12.373   8.887  12.624  0.0509  0.3736  0.2449
23988SOL    HW281895  12.393   8.756  12.696 -0.6484  0.0339 -0.1577
23989SOL     OW81896   1.528   8.547   8.019 -0.2589  0.2188  0.8099
23989SOL    HW181897   1.568   8.522   8.102 -0.8413 -2.0010  0.4836
23989SOL    HW281898   1.534   8.468   7.965 -0.9987  1.2302 -0.8309
23990SOL     OW81899   4.209  12.874   2.793 -0.5647  0.4787  0.3693
23990SOL    HW181900   4.231  12.891   2.702 -0.3492 -0.1986  0.2891
23990SOL    HW281901   4.293  12.878   2.840 -0.0167 -2.8539 -0.0514
23991SOL     OW81902   0.218   5.393  11.061 -0.1956 -0.4313  0.1350
23991SOL    HW181903   0.269   5.314  11.081  1.8054  1.2605  2.2580
23991SOL    HW281904   0.154   5.399  11.132  1.1480  0.9617  1.3014
23992SOL     OW81905   9.717   4.423   8.361 -0.0029  0.0092  0.0057
23992SOL    HW181906   9.797   4.463   8.328  0.7284 -0.5762  1.0038
23992SOL    HW281907   9.739   4.330   8.370 -0.6742 -0.0932  0.6520
23993SOL     OW81908  11.010   8.245  13.086 -0.2489 -0.0831 -0.5507
23993SOL    HW181909  10.972   8.332  13.084  1.8032  0.9284  0.7488
23993SOL    HW281910  11.098   8.256  13.050  0.4117 -1.3769  0.5547
23994SOL     OW81911   0.202   2.574   1.379  0.6660  0.4034  0.0495
23994SOL    HW181912   0.165   2.515   1.445  0.2285 -0.5663 -1.0257
23994SOL    HW281913   0.286   2.533   1.356  0.4914  0.3341 -0.4923
23995SOL     OW81914   2.523   0.185   4.275  0.7073  0.0062  0.2226
23995SOL    HW181915   2.580   0.231   4.337  0.3375 -0.6137  1.0288
23995SOL    HW281916   2.434   0.203   4.306  0.3546  1.8764 -1.6464
23996SOL     OW81917   6.021  10.718  12.439  0.2487 -0.0713  0.5698
23996SOL    HW181918   5.957  10.774  12.395  0.8707 -0.1615 -0.4901
23996SOL    HW281919   6.081  10.692  12.370  0.6117 -1.1510  1.2644
23997SOL     OW81920   3.530   2.780  11.634  0.1660 -0.1645 -0.5634
23997SOL    HW181921   3.459   2.719  11.652 -1.0606  1.4533  0.4050
23997SOL    HW281922   3.545   2.825  11.717  0.4999  1.3470 -1.3924
23998SOL     OW81923   3.180   4.016   6.888  0.3446 -0.0176 -0.1100
23998SOL    HW181924   3.107   4.073   6.913 -0.0560 -0.9895  1.0320
23998SOL    HW281925   3.235   4.012   6.966  0.0487 -1.6494  0.0551
23999SOL     OW81926   3.477  10.242   7.514  0.1185 -0.4779 -0.3577
23999SOL    HW181927   3.396  10.235   7.464  1.0490 -2.5858 -1.7567
23999SOL    HW281928   3.495  10.336   7.520 -2.2638  0.0098 -0.2006
24000SOL     OW81929   5.677   1.109   4.924 -0.0331  0.5381  0.3278
24000SOL    HW181930   5.703   1.138   4.836  0.3694 -3.1764 -0.9606
24000SOL    HW281931   5.735   1.035   4.943 -2.1387 -0.7329  2.3926
24001SOL     OW81932   6.174   6.179   1.465  0.0863  0.2057  0.2724
24001SOL    HW181933   6.240   6.117   1.495 -1.3779 -1.9441 -0.7582
24001SOL    HW281934   6.223   6.259   1.447  2.1911 -0.9114  0.7458
24002SOL     OW81935   3.219   7.732   2.145  0.3301 -0.1521  0.0156
24002SOL    HW181936   3.238   7.817   2.105  1.3084  0.5744  1.9028
24002SOL    HW281937   3.165   7.753   2.222  1.6086 -1.0539  1.2192
24003SOL     OW81938  12.572   2.225   3.470 -0.1463  0.2815  0.4858
24003SOL    HW181939  12.629   2.226   3.546 -0.5531  0.3672  0.7971
24003SOL    HW281940  12.503   2.163   3.492  1.2695 -1.9499 -0.9838
24004SOL     OW81941  11.595   8.455   1.254  0.6254  0.1125 -0.0797
24004SOL    HW181942  11.554   8.516   1.316  0.4014  0.6311 -0.7263
24004SOL    HW281943  11.522   8.411   1.212  0.7921 -1.4157  1.1400
24005SOL     OW81944   8.787  12.207   4.152 -0.0158  0.3279  0.1122
24005SOL    HW181945   8.780  12.213   4.247  1.7527 -1.8532  0.4662
24005SOL    HW281946   8.847  12.278   4.128 -0.7944  1.1478  0.5568
24006SOL     OW81947  12.234   7.439   3.049  0.1461 -0.2010 -0.2834
24006SOL    HW181948  12.178   7.513   3.073  1.1103  0.3538  0.3355
24006SOL    HW281949  12.224   7.431   2.955 -1.6641 -0.7031 -0.1012
24007SOL     OW81950   5.628   4.872  12.095 -0.1407  0.7365 -0.0501
24007SOL    HW181951   5.598   4.856  12.006 -1.5918  0.2528  0.5023
24007SOL    HW281952   5.712   4.827  12.100 -0.8446 -0.6981 -0.6699
24008SOL     OW81953   7.401   0.904   0.082  0.2046 -0.3533  0.1461
24008SOL    HW181954   7.371   0.989   0.050  0.9998 -0.8274 -2.0331
24008SOL    HW281955   7.488   0.920   0.117 -0.2515 -0.0097  1.1335
24009SOL     OW81956   1.270   6.526   3.852  0.4202 -0.2098 -0.1709
24009SOL    HW181957   1.242   6.439   3.821 -0.2163  0.2130 -0.8172
24009SOL    HW281958   1.304   6.569   3.774  1.9746 -0.3291  0.4034
24010SOL     OW81959   2.011   7.201  10.573  0.2737  0.5537  0.1385
24010SOL    HW181960   1.960   7.186  10.493  2.3602  0.3840 -1.2306
24010SOL    HW281961   2.077   7.132  10.573  0.6886  0.9057  1.7297
24011SOL     OW81962   7.809   4.258   6.549 -0.7736 -0.2062 -0.4699
24011SOL    HW181963   7.778   4.168   6.544  0.8213 -0.9396  1.5969
24011SOL    HW281964   7.887   4.259   6.493 -0.8416 -0.0635 -0.5643
24012SOL     OW81965   7.003  10.146   7.792  0.2286  0.4624  0.0633
24012SOL    HW181966   6.997  10.050   7.789  0.3272  0.4664 -0.2324
24012SOL    HW281967   7.097  10.164   7.793  0.2292  0.5028  1.6993
24013SOL     OW81968   7.341   1.175   2.186  0.3761  0.0255  0.0817
24013SOL    HW181969   7.404   1.109   2.157 -0.4625 -0.8889  0.2510
24013SOL    HW281970   7.319   1.149   2.276  1.2694  1.5148  0.7541
24014SOL     OW81971   4.018   6.109  10.230 -0.2835  0.2495 -0.0185
24014SOL    HW181972   4.010   6.125  10.324  0.8981  0.3152  0.0880
24014SOL    HW281973   4.059   6.188  10.195  1.4931 -0.6946 -0.1941
24015SOL     OW81974   3.476   3.887   4.731  0.1123 -0.0697  0.0591
24015SOL    HW181975   3.484   3.982   4.739 -0.8191  0.2199 -1.8733
24015SOL    HW281976   3.465   3.871   4.637  2.5682 -2.2983  0.0058
24016SOL     OW81977   0.324  10.409  12.727 -0.6571 -0.0114 -0.2831
24016SOL    HW181978   0.327  10.337  12.665 -1.5516  1.6215 -2.3559
24016SOL    HW281979   0.324  10.368  12.813  0.2942 -2.3876 -1.3535
24017SOL     OW81980   2.674   9.339   5.891 -0.5114  0.3167 -0.3608
24017SOL    HW181981   2.650   9.279   5.820  1.3457  0.2105 -0.9448
24017SOL    HW281982   2.619   9.312   5.965 -2.3792  0.3326 -1.6841
24018SOL     OW81983   1.948  11.596   8.971  0.1275  0.2843  0.4601
24018SOL    HW181984   1.908  11.509   8.962  0.0533  0.4415 -0.8894
24018SOL    HW281985   1.940  11.635   8.884  0.2145  1.6303  1.0371
24019SOL     OW81986   5.884   1.503  10.110  0.0438  0.3606 -0.2027
24019SOL    HW181987   5.971   1.542  10.106  0.2429  0.0707  1.0532
24019SOL    HW281988   5.886   1.447  10.187 -0.7410 -0.9244 -1.0758
24020SOL     OW81989   2.023   6.542   1.606 -0.4404 -0.3480  0.6902
24020SOL    HW181990   1.964   6.544   1.530 -0.1117  0.5410  0.4424
24020SOL    HW281991   2.110   6.538   1.568 -0.2637  0.3377  1.0076
24021SOL     OW81992  12.031   3.177   5.791 -0.1261  0.0202  0.7299
24021SOL    HW181993  12.028   3.092   5.748  0.4576 -0.6020  1.8645
24021SOL    HW281994  11.984   3.236   5.732 -2.5276 -1.5306  0.9761
24022SOL     OW81995   6.492   8.330  10.161  0.1426 -0.1843 -0.1127
24022SOL    HW181996   6.513   8.242  10.131 -1.4359 -0.4151 -0.6466
24022SOL    HW281997   6.478   8.320  10.255  1.0732 -0.2605  0.0297
24023SOL     OW81998   5.335   2.809   0.054 -0.2878  0.2466 -0.7947
24023SOL    HW181999   5.396   2.807  -0.019  0.2984  1.4093 -0.3658
24023SOL    HW282000   5.253   2.843   0.018 -0.1626  0.3122 -1.0124
24024SOL     OW82001   5.660   9.661   3.677 -0.8158  0.3583 -0.6938
24024SOL    HW182002   5.629   9.716   3.749  1.2065  1.6188 -0.6886
24024SOL    HW282003   5.592   9.596   3.665 -2.2168  1.4438  0.9077
24025SOL     OW82004  10.802  12.458  10.208 -0.2683  0.1858  0.5649
24025SOL    HW182005  10.710  12.435  10.217 -0.6855  1.2462 -0.6212
24025SOL    HW282006  10.802  12.530  10.144  1.3822  0.1605  0.5026
24026SOL     OW82007  11.979   7.457   8.695  0.4329 -0.6987  0.5098
24026SOL    HW182008  11.957   7.425   8.608  0.6201 -2.3904  1.0579
24026SOL    HW282009  11.929   7.539   8.704 -1.8606 -1.9568 -0.0885
24027SOL     OW82010  11.740   3.939   9.850  0.2003  0.0602 -0.5397
24027SOL    HW182011  11.826   3.948   9.890  0.4578  0.7200 -1.2042
24027SOL    HW282012  11.745   3.857   9.800  0.3467 -0.0412 -0.3598
24028SOL     OW82013  11.778   1.019   2.073 -0.1908 -0.1033 -0.1970
24028SOL    HW182014  11.870   1.043   2.085  0.5075 -2.8106  0.5739
24028SOL    HW282015  11.775   0.976   1.988 -1.3834  2.3422 -1.5057
24029SOL     OW82016  11.326   0.839   8.537 -0.0450  0.0999  0.3673
24029SOL    HW182017  11.310   0.773   8.470 -0.8526 -2.0126  2.4798
24029SOL    HW282018  11.419   0.829   8.559 -0.6365 -2.0637  2.2508
24030SOL     OW82019  12.889   2.613   5.887 -0.1344  0.1766 -0.1461
24030SOL    HW182020  12.803   2.656   5.889  0.3544  1.5559 -3.4780
24030SOL    HW282021  12.877   2.537   5.831  0.8892  0.6506 -1.0449
24031SOL     OW82022   8.238   4.372   5.873  0.0188 -0.2816  0.6654
24031SOL    HW182023   8.216   4.288   5.833 -1.8434  0.4519  0.0636
24031SOL    HW282024   8.188   4.373   5.955  0.2668  0.1293  0.8139
24032SOL     OW82025   1.191  11.385   9.055  0.3498  0.0477 -0.4035
24032SOL    HW182026   1.236  11.373   9.139  1.1593  0.9544 -0.6833
24032SOL    HW282027   1.202  11.478   9.035 -2.1469  0.4495 -0.2395
24033SOL     OW82028   7.487  12.145  13.311 -0.1570 -0.0126 -0.7274
24033SOL    HW182029   7.453  12.200  13.382  1.2904 -0.4800  0.3834
24033SOL    HW282030   7.414  12.138  13.250 -2.0411 -0.8719  1.4612
24034SOL     OW82031  11.043  12.616   0.059 -0.4173  0.1551  0.3578
24034SOL    HW182032  10.993  12.611   0.140 -1.2252  0.6449 -0.0907
24034SOL    HW282033  11.038  12.708   0.033  1.2297  0.3436  0.5971
24035SOL     OW82034   4.784  11.071   4.002 -0.0322  0.1445  0.1303
24035SOL    HW182035   4.721  10.999   4.009 -1.5966  1.4626  0.3296
24035SOL    HW282036   4.842  11.060   4.078  0.0245 -1.1302 -0.0845
24036SOL     OW82037   9.788  11.443   6.760  0.2760  0.1675  0.1673
24036SOL    HW182038   9.772  11.528   6.802  0.9585 -0.4269  1.7349
24036SOL    HW282039   9.880  11.424   6.779  1.1463  0.5857 -3.0948
24037SOL     OW82040   6.683   8.264  12.084  0.0481  0.2924 -0.2104
24037SOL    HW182041   6.617   8.288  12.018 -0.0637  1.1855  0.2129
24037SOL    HW282042   6.728   8.346  12.103  0.0898  0.0400  0.8159
24038SOL     OW82043   2.788   3.312   8.120 -0.6010  0.1511 -0.1396
24038SOL    HW182044   2.730   3.245   8.156 -0.0695  0.3511  1.1646
24038SOL    HW282045   2.745   3.341   8.039 -0.5425 -2.1816 -1.0910
24039SOL     OW82046   9.988  11.362   9.700  0.8925  0.2841  0.0749
24039SOL    HW182047   9.929  11.326   9.633 -1.0096  2.6934  0.3388
24039SOL    HW282048  10.062  11.398   9.650  1.0760 -0.7448 -0.4342
24040SOL     OW82049  12.831   8.397   7.027  0.6133 -0.1461 -0.4452
24040SOL    HW182050  12.892   8.333   7.064  1.7541  0.8981 -0.4726
24040SOL    HW282051  12.758   8.399   7.090  1.4626 -0.0754  0.5766
24041SOL     OW82052   7.423   0.865   2.413 -0.0894 -0.5723  0.1231
24041SOL    HW182053   7.390   0.813   2.486 -1.2934  1.1577  0.8884
24041SOL    HW282054   7.492   0.811   2.374 -0.5019 -2.2184  1.5366
24042SOL     OW82055   3.800  11.584   2.126  0.2949  0.2202 -0.1258
24042SOL    HW182056   3.802  11.559   2.218 -0.5607 -0.3815 -0.2476
24042SOL    HW282057   3.714  11.624   2.115  0.8018  1.2457 -0.4379
24043SOL     OW82058   5.905   2.756   8.233 -0.0517  0.0429  0.5785
24043SOL    HW182059   5.941   2.667   8.228  0.8367  0.3511  1.2664
24043SOL    HW282060   5.907   2.777   8.327  3.1951  2.1227  0.2053
24044SOL     OW82061   3.499   8.092   2.187  0.0469  0.2127 -0.0131
24044SOL    HW182062   3.553   8.050   2.254  0.9477 -0.2857 -1.0279
24044SOL    HW282063   3.557   8.101   2.111 -1.5294 -1.2122 -1.4634
24045SOL     OW82064  10.593   0.564   5.583 -0.8045 -0.2996  0.0224
24045SOL    HW182065  10.686   0.586   5.582 -0.5370 -1.3672 -0.6429
24045SOL    HW282066  10.572   0.546   5.491 -1.6570 -0.1095  0.1714
24046SOL     OW82067  11.599  10.779   9.224  0.3750 -0.3655  0.8860
24046SOL    HW182068  11.548  10.794   9.303 -1.0646 -0.6978  0.0512
24046SOL    HW282069  11.641  10.694   9.238  2.2419  0.7249  2.3451
24047SOL     OW82070   0.952   6.948  10.382 -0.3145 -0.2969 -0.3133
24047SOL    HW182071   0.892   6.933  10.455 -0.6139  2.1215  0.0390
24047SOL    HW282072   1.035   6.972  10.423 -0.3732  0.6894 -0.7439
24048SOL     OW82073  11.384  10.348  11.132  0.5268  0.4662  0.4808
24048SOL    HW182074  11.354  10.280  11.071 -1.2319  1.1517  0.5331
24048SOL    HW282075  11.326  10.339  11.208 -0.6548  2.8500 -0.0623
24049SOL     OW82076   7.998   6.931   3.438 -0.0526  0.7140 -0.8366
24049SOL    HW182077   7.975   6.983   3.515 -0.9807 -0.1681 -0.4934
24049SOL    HW282078   8.021   6.996   3.371  1.3001  1.4793  0.3187
24050SOL     OW82079  12.177   1.982   6.594 -0.0435 -0.0686  0.2320
24050SOL    HW182080  12.122   2.016   6.524 -1.7982 -0.1948  1.4750
24050SOL    HW282081  12.259   1.957   6.551 -0.4579  1.3479 -1.4637
24051SOL     OW82082   1.444   1.746   4.022 -0.2735 -0.1663  0.3637
24051SOL    HW182083   1.383   1.745   4.095  0.0082  0.3553  0.6117
24051SOL    HW282084   1.489   1.830   4.029 -0.5726  0.0897 -0.6877
24052SOL     OW82085   3.681   0.715   2.911 -0.7043  0.2273  0.0465
24052SOL    HW182086   3.628   0.645   2.951 -1.6364  1.0623  0.3008
24052SOL    HW282087   3.640   0.796   2.940 -0.6460  0.8832 -1.6085
24053SOL     OW82088   6.668   4.916   6.462  0.0580  0.3717  0.1592
24053SOL    HW182089   6.650   4.908   6.368  0.7122  1.1198 -0.0403
24053SOL    HW282090   6.759   4.944   6.466 -0.4343  1.9711  0.9643
24054SOL     OW82091   2.058   9.414   8.196 -0.1927  0.5705  0.3741
24054SOL    HW182092   2.041   9.365   8.115  0.1624  2.1062 -0.6636
24054SOL    HW282093   1.972   9.423   8.236 -0.8322  2.0638 -1.1961
24055SOL     OW82094   8.780   2.826  11.169  0.2427  0.3112 -0.4531
24055SOL    HW182095   8.815   2.771  11.240 -1.8752 -0.1771  0.3041
24055SOL    HW282096   8.757   2.908  11.212  0.0726  0.4621 -0.8346
24056SOL     OW82097   4.598   1.671   5.610  0.5078 -0.3300  0.6222
24056SOL    HW182098   4.593   1.748   5.666  1.0985  0.1968 -0.0263
24056SOL    HW282099   4.532   1.687   5.542  0.6759 -0.3626  0.4502
24057SOL     OW82100   4.116  13.017   5.787 -0.2067 -0.5384  0.0116
24057SOL    HW182101   4.195  13.035   5.839 -0.7934  0.3394  0.6301
24057SOL    HW282102   4.045  13.055   5.839 -0.6595  1.7607 -2.1140
24058SOL     OW82103   5.316   7.609   3.348 -0.4261  0.2567  0.3036
24058SOL    HW182104   5.299   7.592   3.255 -3.3072  0.4043  0.6892
24058SOL    HW282105   5.276   7.535   3.394  0.3983  0.4954  1.4414
24059SOL     OW82106   9.830   4.529  10.633 -0.3976  0.1559 -0.1106
24059SOL    HW182107   9.919   4.512  10.602 -0.3684 -1.0733  0.5978
24059SOL    HW282108   9.834   4.515  10.727 -1.7539 -1.9751 -0.2987
24060SOL     OW82109  10.522  11.591   5.290  0.2599  0.0364 -0.6515
24060SOL    HW182110  10.476  11.605   5.372  1.1389  1.2355 -0.3283
24060SOL    HW282111  10.464  11.627   5.223 -0.0162 -0.0193 -0.4430
24061SOL     OW82112   0.319  11.628   4.827 -0.4334 -0.1667  0.1170
24061SOL    HW182113   0.329  11.710   4.877 -0.6343  0.1866 -0.4174
24061SOL    HW282114   0.226  11.606   4.836 -0.2165 -0.7933  0.9560
24062SOL     OW82115   0.179  11.219  12.641  0.0171  0.1204 -0.0907
24062SOL    HW182116   0.208  11.129  12.625  0.7342  0.6260 -1.9314
24062SOL    HW282117   0.114  11.212  12.710  1.1568 -1.6308  0.8636
24063SOL     OW82118  11.106   3.602   1.888 -0.0405 -0.4642 -0.7359
24063SOL    HW182119  11.177   3.551   1.848 -0.2463 -1.1555 -0.2417
24063SOL    HW282120  11.138   3.622   1.975 -0.1301 -0.0863 -0.7890
24064SOL     OW82121   9.974   8.420   8.876  0.1857  0.1399 -0.1024
24064SOL    HW182122   9.946   8.331   8.900  3.0034 -1.4110 -1.9370
24064SOL    HW282123  10.035   8.445   8.944  1.3047 -0.4515 -0.8563
24065SOL     OW82124   6.219   0.207   0.482  0.1376 -0.3314  0.0812
24065SOL    HW182125   6.207   0.112   0.489 -0.0183 -0.2783  0.6163
24065SOL    HW282126   6.193   0.228   0.392  0.0966 -0.7846 -0.0162
24066SOL     OW82127   9.904   5.370  11.825  0.4517  0.5506  0.1519
24066SOL    HW182128   9.894   5.439  11.759 -2.2828 -1.3366 -1.6898
24066SOL    HW282129   9.970   5.311  11.788  0.1853  0.3926 -0.0840
24067SOL     OW82130   0.402   2.171  12.195 -0.1967  0.5426 -0.1972
24067SOL    HW182131   0.418   2.122  12.276  1.6752  0.6146 -0.4610
24067SOL    HW282132   0.337   2.119  12.148 -4.5947  2.5438  3.0142
24068SOL     OW82133   9.445   6.351  11.948  0.5207  0.0071 -0.2982
24068SOL    HW182134   9.438   6.379  11.856  0.1981  0.8915 -0.0173
24068SOL    HW282135   9.452   6.433  11.997 -0.9579 -0.3742  0.6093
24069SOL     OW82136  10.222  11.015  11.572 -0.0504 -0.0620 -0.1602
24069SOL    HW182137  10.270  10.940  11.538  0.0892 -1.4916  2.8793
24069SOL    HW282138  10.288  11.064  11.622 -0.8136  0.4009  0.4005
24070SOL     OW82139   0.450   3.076   3.369 -0.2117 -0.4687 -0.2045
24070SOL    HW182140   0.481   3.166   3.359  0.0366 -0.6409 -1.0541
24070SOL    HW282141   0.458   3.058   3.463  2.9492 -0.7304 -0.4375
24071SOL     OW82142  11.267   1.788  11.845 -0.1412 -0.1762 -1.1545
24071SOL    HW182143  11.271   1.692  11.856  0.0726 -0.4095 -3.0256
24071SOL    HW282144  11.311   1.804  11.762 -0.8217  1.5082 -1.2102
24072SOL     OW82145  11.154  12.692  10.079  0.6550  0.1553  0.1896
24072SOL    HW182146  11.088  12.629  10.108  2.0122 -0.4318  2.2491
24072SOL    HW282147  11.148  12.765  10.141  1.1563  0.6319 -0.3012
24073SOL     OW82148   8.405   4.391   8.741  0.1441 -0.7101  0.9392
24073SOL    HW182149   8.401   4.306   8.786  0.0664 -0.3545  1.6158
24073SOL    HW282150   8.322   4.433   8.763 -0.0803 -0.7011  0.1008
24074SOL     OW82151   9.519   1.333  10.686  1.0044 -0.5634 -0.1275
24074SOL    HW182152   9.505   1.273  10.759  1.7000  0.8073  1.1945
24074SOL    HW282153   9.496   1.283  10.608 -1.0499 -1.6481  1.1168
24075SOL     OW82154   3.697   4.654   3.529  0.2519 -0.4558  0.0414
24075SOL    HW182155   3.629   4.591   3.506 -1.7663  1.8482 -0.7957
24075SOL    HW282156   3.743   4.671   3.447  0.4412 -0.4568  0.1463
24076SOL     OW82157   1.668  10.889   0.329 -0.1544  0.1098  0.1887
24076SOL    HW182158   1.703  10.848   0.250 -0.1046  0.1235  0.2035
24076SOL    HW282159   1.669  10.820   0.395 -0.1081  0.1239  0.2026
24077SOL     OW82160   3.120   9.921   8.625  0.0078  0.4800 -0.2389
24077SOL    HW182161   3.090   9.850   8.681  0.5097  0.7203  0.3427
24077SOL    HW282162   3.079   9.903   8.540 -1.4806  0.6084  0.4204
24078SOL     OW82163  13.167   4.298   6.686  0.2626 -0.1294 -0.4486
24078SOL    HW182164  13.128   4.289   6.773  0.5614  2.0702 -0.0201
24078SOL    HW282165  13.159   4.392   6.666 -1.1577 -0.7742 -3.4698
24079SOL     OW82166   6.613  12.133   7.908  0.7841  0.1271 -0.0813
24079SOL    HW182167   6.663  12.071   7.855  1.3575  1.4457 -1.1469
24079SOL    HW282168   6.578  12.195   7.845  1.1806  1.5487  1.0424
24080SOL     OW82169   5.017   8.430   7.876  0.3353  0.6611 -0.9215
24080SOL    HW182170   4.975   8.466   7.954  0.3068 -0.2808 -0.4817
24080SOL    HW282171   4.947   8.384   7.830  0.3426  1.2611 -1.5385
24081SOL     OW82172   6.659   2.942   0.043 -0.3094 -0.2300  0.2057
24081SOL    HW182173   6.744   2.950   0.087  0.1376 -0.6961 -0.5633
24081SOL    HW282174   6.610   3.019   0.072  0.8032  0.6835 -0.2759
24082SOL     OW82175  10.160   8.251   6.143 -0.1312  0.0088 -0.0041
24082SOL    HW182176  10.084   8.231   6.198 -0.5188 -0.2555 -0.6248
24082SOL    HW282177  10.177   8.169   6.096 -0.5593  0.5679 -1.1690
24083SOL     OW82178   8.487  10.627  11.821 -0.4573  0.1238  0.1643
24083SOL    HW182179   8.578  10.655  11.832 -0.3023 -0.1859 -0.3430
24083SOL    HW282180   8.458  10.669  11.740  0.3655 -2.6336 -1.6668
24084SOL     OW82181   8.452   0.364   6.762  0.2876  0.0410  0.2859
24084SOL    HW182182   8.510   0.421   6.712  1.2495  1.0223  2.4270
24084SOL    HW282183   8.506   0.330   6.832 -0.3014 -3.4417 -0.7604
24085SOL     OW82184  10.354   6.107   6.526  0.1966 -0.4088 -0.0039
24085SOL    HW182185  10.421   6.125   6.593  0.7230  2.4504 -1.1402
24085SOL    HW282186  10.402   6.062   6.456  0.9378  1.3466 -0.6758
24086SOL     OW82187  10.354   0.764  12.981 -0.1953  0.2019 -0.5539
24086SOL    HW182188  10.379   0.672  12.989 -0.9557 -0.1333 -1.7337
24086SOL    HW282189  10.265   0.768  13.017  0.3540  0.7768  0.8049
24087SOL     OW82190  11.642  10.564   2.143 -0.4471 -0.2090  0.5140
24087SOL    HW182191  11.559  10.523   2.169 -0.3326 -1.1610 -0.5441
24087SOL    HW282192  11.645  10.645   2.193  0.0932 -2.1704  3.9927
24088SOL     OW82193   9.418   3.974   1.634  0.2129  0.3988  0.0848
24088SOL    HW182194   9.335   4.021   1.644  0.0808 -0.1076  1.5485
24088SOL    HW282195   9.393   3.881   1.633  0.4918  0.2749 -2.5679
24089SOL     OW82196   2.007   3.489   5.367 -0.0040 -0.0018  0.0275
24089SOL    HW182197   1.915   3.465   5.359  0.3350 -1.1144 -0.8892
24089SOL    HW282198   2.045   3.424   5.426  0.5951 -0.8356 -1.2201
24090SOL     OW82199  10.877   5.929  10.530  0.3896 -0.3842  0.4332
24090SOL    HW182200  10.811   5.862  10.553 -0.6834  0.9694  1.4907
24090SOL    HW282201  10.955   5.879  10.507 -0.4022 -2.0142  1.1160
24091SOL     OW82202   5.744   7.048   8.081  0.5699  0.2159  0.2796
24091SOL    HW182203   5.702   6.963   8.066 -1.6571  1.2745  0.0763
24091SOL    HW282204   5.828   7.027   8.122 -0.1096 -2.0452  0.6394
24092SOL     OW82205   5.914   1.533   5.675  0.3283  0.2626 -0.2021
24092SOL    HW182206   5.824   1.543   5.706  0.0089  1.6003 -1.4259
24092SOL    HW282207   5.919   1.444   5.641 -0.4803  0.1149  0.0573
24093SOL     OW82208   6.459   1.783   7.277  0.3044  0.1440 -0.2533
24093SOL    HW182209   6.516   1.860   7.272  1.4662 -0.7323 -1.2347
24093SOL    HW282210   6.388   1.802   7.216  0.5987  0.4330 -0.5113
24094SOL     OW82211   3.573   5.675   4.540 -0.1957  0.0363 -0.3593
24094SOL    HW182212   3.625   5.596   4.529 -0.5378 -0.2358 -0.0511
24094SOL    HW282213   3.579   5.695   4.634 -1.5535 -0.6410 -0.1036
24095SOL     OW82214  12.233   3.153   9.530 -0.1409  0.1944 -0.4298
24095SOL    HW182215  12.173   3.094   9.576 -1.8323  1.4180 -0.9852
24095SOL    HW282216  12.263   3.103   9.455  0.4322 -0.8226  0.4440
24096SOL     OW82217   4.224   6.909  12.606  0.2485 -0.1559 -0.0411
24096SOL    HW182218   4.302   6.937  12.655  0.6471  1.3334 -1.4505
24096SOL    HW282219   4.157   6.973  12.628  0.0967 -0.1240 -0.5797
24097SOL     OW82220   7.954   6.171   1.821 -0.3787 -0.9897 -0.0549
24097SOL    HW182221   7.981   6.262   1.813  0.6224 -1.2417  0.3471
24097SOL    HW282222   7.886   6.160   1.754  0.9409 -0.5050 -1.5198
24098SOL     OW82223   3.541   5.772   0.858  0.4427 -0.5552 -0.0369
24098SOL    HW182224   3.464   5.769   0.800  1.3455 -0.5906 -1.2716
24098SOL    HW282225   3.540   5.861   0.893 -0.1096 -0.5214 -0.1244
24099SOL     OW82226   5.460  11.302   6.811  0.6137 -0.4347  0.3784
24099SOL    HW182227   5.495  11.218   6.781 -0.8219 -0.7852 -0.3952
24099SOL    HW282228   5.423  11.342   6.733 -1.2150 -0.3553  1.2322
24100SOL     OW82229   6.904   9.677  10.496 -0.0651 -0.0971 -0.0383
24100SOL    HW182230   6.882   9.700  10.587  0.7840 -0.0281  0.1540
24100SOL    HW282231   6.992   9.712  10.483 -0.6085  0.9094 -1.2626
24101SOL     OW82232   6.691  10.203   2.739  0.4897  0.4340 -0.0692
24101SOL    HW182233   6.722  10.260   2.809  0.7985 -0.3872  0.4714
24101SOL    HW282234   6.702  10.115   2.773 -2.0393  0.0659 -0.0020
24102SOL     OW82235   3.920   1.853   3.412  0.2145 -0.3089  0.3701
24102SOL    HW182236   3.982   1.790   3.375 -0.4635 -1.5747  1.3369
24102SOL    HW282237   3.955   1.872   3.500  0.2113  0.3818  0.2258
24103SOL     OW82238   3.546   5.519   7.058  0.3139 -0.2286 -0.6360
24103SOL    HW182239   3.628   5.480   7.029  0.4330 -0.1960 -0.3402
24103SOL    HW282240   3.527   5.586   6.993  0.0920 -0.7963 -1.1692
24104SOL     OW82241  10.917   0.571   1.600  0.4560  0.8036  0.8974
24104SOL    HW182242  10.878   0.576   1.687  2.0603 -0.0904  1.7044
24104SOL    HW282243  11.010   0.590   1.614  0.9025 -0.1761 -0.4819
24105SOL     OW82244   1.846   3.327   6.084 -0.1789 -0.2309  0.3141
24105SOL    HW182245   1.788   3.274   6.029 -0.2533 -0.7868  0.9087
24105SOL    HW282246   1.792   3.352   6.159  0.3067 -0.6386  0.8079
24106SOL     OW82247   6.161   7.879   3.547  0.8276 -0.8148 -0.0975
24106SOL    HW182248   6.253   7.856   3.554  0.5313 -1.5169  2.5533
24106SOL    HW282249   6.158   7.973   3.562  1.0196 -1.0358  1.5140
24107SOL     OW82250  12.087  10.364  12.162  0.6259  0.0476  0.0163
24107SOL    HW182251  12.024  10.406  12.103  0.3760  0.0488  0.2814
24107SOL    HW282252  12.171  10.370  12.116  0.4655  0.2161 -0.2553
24108SOL     OW82253   6.908  12.174   2.534  0.1447  0.1335  0.0939
24108SOL    HW182254   6.898  12.240   2.465  1.2111 -0.9343 -1.1453
24108SOL    HW282255   6.916  12.225   2.614 -1.9252  1.3954 -0.4157
24109SOL     OW82256  11.730   3.275   3.466 -0.2248 -0.1185 -0.4565
24109SOL    HW182257  11.735   3.312   3.378  3.1179  2.7042  0.7042
24109SOL    HW282258  11.663   3.328   3.510  0.5380  0.8089 -0.3834
24110SOL     OW82259  11.780   4.026   7.534 -0.7162  0.2968 -0.3396
24110SOL    HW182260  11.820   4.111   7.553  0.5276 -0.4185  0.4169
24110SOL    HW282261  11.804   4.007   7.443  1.6864 -0.5808  0.3871
24111SOL     OW82262  12.995   6.647   5.738  0.1307 -0.0037 -0.1668
24111SOL    HW182263  13.062   6.696   5.785  0.9685 -0.5631 -0.7485
24111SOL    HW282264  12.997   6.682   5.649  0.5375 -0.8691 -0.5130
24112SOL     OW82265  11.624   2.531   1.484  0.0418 -0.2293 -0.0785
24112SOL    HW182266  11.552   2.472   1.462 -0.2888  0.6845 -1.5796
24112SOL    HW282267  11.586   2.596   1.543 -0.1380 -0.2883 -0.1302
24113SOL     OW82268   1.419   9.387  10.507  0.6714  0.2847 -0.1217
24113SOL    HW182269   1.388   9.469  10.469 -1.6589 -0.5404 -0.1368
24113SOL    HW282270   1.371   9.379  10.589  1.0868 -0.9218  0.0250
24114SOL     OW82271  12.903  12.770  10.335  0.0487  0.2984  0.0438
24114SOL    HW182272  12.872  12.804  10.419 -0.8081 -0.0952 -0.0983
24114SOL    HW282273  12.897  12.844  10.276 -1.6962 -0.0201 -0.2376
24115SOL     OW82274   2.411  11.665  11.232  0.0856  0.0207  0.0508
24115SOL    HW182275   2.402  11.571  11.242  0.3543  0.1365  1.7665
24115SOL    HW282276   2.322  11.699  11.243  0.1618  0.0397  0.6385
24116SOL     OW82277   2.169   9.095   9.033  0.0382 -0.2949  0.2122
24116SOL    HW182278   2.171   9.056   9.121  1.3672 -0.8538 -0.0402
24116SOL    HW282279   2.122   9.032   8.980 -0.9412  0.1355  0.5531
24117SOL     OW82280  10.773  12.506   7.517  0.4098  0.1509 -0.2027
24117SOL    HW182281  10.806  12.418   7.498  1.5978  0.2149  1.3692
24117SOL    HW282282  10.705  12.521   7.452  0.1091 -1.9819 -0.4385
24118SOL     OW82283   7.870   7.897  11.629 -0.1844 -0.0730 -0.5365
24118SOL    HW182284   7.932   7.877  11.559 -0.9833 -0.1844 -1.2287
24118SOL    HW282285   7.842   7.811  11.661  0.8278 -0.0232  0.5214
24119SOL     OW82286   8.001  11.350   2.920  0.5921 -0.3836  0.8159
24119SOL    HW182287   8.046  11.309   2.846 -0.4265 -0.5629  0.2625
24119SOL    HW282288   8.000  11.283   2.988 -1.3424 -1.4661 -0.1934
24120SOL     OW82289  11.469   8.858   0.749  0.6611 -0.2696  0.1151
24120SOL    HW182290  11.487   8.921   0.679  0.3247 -1.3164 -0.9443
24120SOL    HW282291  11.540   8.870   0.811 -0.5058  2.6370  1.0483
24121SOL     OW82292   3.301   1.225   9.655 -0.0785  0.7079  0.3653
24121SOL    HW182293   3.359   1.300   9.641  0.3225  0.5015  0.9137
24121SOL    HW282294   3.286   1.223   9.749  0.3996 -0.2609  0.4248
24122SOL     OW82295   8.464   6.973  11.081  0.4702 -0.4903  0.1668
24122SOL    HW182296   8.407   6.944  11.010 -0.5494 -1.2589  1.2553
24122SOL    HW282297   8.520   7.041  11.041  0.1278 -1.0930 -1.4128
24123SOL     OW82298   7.674   6.746   7.495 -0.5267 -0.5417  0.2290
24123SOL    HW182299   7.692   6.723   7.586  1.4848 -0.5617 -0.1300
24123SOL    HW282300   7.726   6.825   7.479 -2.3419  0.5909 -0.3947
24124SOL     OW82301   3.862   7.616  11.561  0.2201 -0.0506 -0.0751
24124SOL    HW182302   3.862   7.628  11.466 -0.5947 -0.3351 -0.1176
24124SOL    HW282303   3.908   7.534  11.575  0.3412 -0.0081 -0.2255
24125SOL     OW82304   5.118  11.208   5.140  0.3466 -0.0939 -0.0816
24125SOL    HW182305   5.138  11.122   5.104 -0.9196  0.0764 -1.2720
24125SOL    HW282306   5.183  11.221   5.209  1.3632 -1.4473 -0.7377
24126SOL     OW82307   6.126   0.481  11.831  0.1664  0.4791 -0.3083
24126SOL    HW182308   6.163   0.494  11.918 -0.2614  0.7120 -0.1570
24126SOL    HW282309   6.189   0.520  11.771  1.4008 -1.3252 -0.2754
24127SOL     OW82310   8.854   9.514  12.294 -0.2151 -0.2207 -0.1234
24127SOL    HW182311   8.777   9.477  12.250 -0.3286 -0.8633  0.6057
24127SOL    HW282312   8.925   9.454  12.274  0.1832  0.5010 -1.0022
24128SOL     OW82313   2.076   3.338   0.615 -1.1887  0.0078  0.1946
24128SOL    HW182314   2.025   3.259   0.598 -1.4234  0.4673 -1.3852
24128SOL    HW282315   2.026   3.385   0.682 -0.9955 -1.2005  1.2259
24129SOL     OW82316   8.904   4.355   3.409  0.1429 -0.7778  0.3042
24129SOL    HW182317   8.827   4.306   3.379 -1.2637 -0.2237  2.6431
24129SOL    HW282318   8.941   4.301   3.478 -0.8682  0.8652  2.2686
24130SOL     OW82319   7.595   8.377  12.539 -0.0747  0.0720  0.0970
24130SOL    HW182320   7.571   8.285  12.547  0.5020 -0.1259 -0.4256
24130SOL    HW282321   7.640   8.397  12.621 -0.2971 -0.0749  0.2587
24131SOL     OW82322   6.762   6.742   6.034  0.1434 -0.1510  0.3616
24131SOL    HW182323   6.776   6.704   5.948  2.0804 -0.8694  0.9194
24131SOL    HW282324   6.835   6.803   6.045  1.2011 -1.6338  2.2620
24132SOL     OW82325  10.803   1.131   9.532  0.4263  0.0849  0.2779
24132SOL    HW182326  10.801   1.187   9.455  0.1855  0.0068  0.2279
24132SOL    HW282327  10.772   1.046   9.501  2.0283 -0.4499  0.0499
24133SOL     OW82328   4.348  12.547   1.641 -0.4283 -0.5877  0.0379
24133SOL    HW182329   4.343  12.549   1.736 -3.6457  0.7379 -0.0120
24133SOL    HW282330   4.360  12.638   1.615 -0.3073 -0.8439 -0.8346
24134SOL     OW82331  12.453  11.080   7.974  0.5027 -0.2084 -0.1734
24134SOL    HW182332  12.531  11.025   7.972  1.3577  0.9938 -1.4294
24134SOL    HW282333  12.484  11.168   7.952 -0.8017  0.8493  1.8059
24135SOL     OW82334  12.741   8.281   6.185 -0.0614  0.0399  0.4931
24135SOL    HW182335  12.773   8.310   6.099 -2.4563  1.1432 -0.1197
24135SOL    HW282336  12.782   8.196   6.198 -1.5015 -1.4091 -2.9747
24136SOL     OW82337  12.442   6.024   8.009 -0.5460  0.1522  0.2393
24136SOL    HW182338  12.431   6.116   7.984 -1.2620  0.2191  0.7573
24136SOL    HW282339  12.409   5.975   7.934  1.1282  0.2860 -0.6191
24137SOL     OW82340   0.631  12.668  10.995 -1.0298 -0.2096 -0.2062
24137SOL    HW182341   0.698  12.675  11.064  0.2389 -2.3304 -1.1208
24137SOL    HW282342   0.550  12.649  11.043 -0.4447 -0.3144  0.7875
24138SOL     OW82343   9.603  13.055   2.491  0.3189 -0.2389 -0.4688
24138SOL    HW182344   9.585  13.145   2.519  0.7818 -0.0937 -0.6239
24138SOL    HW282345   9.685  13.033   2.535 -0.6645 -1.2092  0.9625
24139SOL     OW82346  11.213  10.844   1.788  0.1221 -0.1507  1.0777
24139SOL    HW182347  11.303  10.826   1.759  0.0872 -1.9321  1.9298
24139SOL    HW282348  11.200  10.937   1.769  1.1595 -0.4781 -1.6767
24140SOL     OW82349   0.927   4.952  13.248 -0.9333 -0.9393 -0.7800
24140SOL    HW182350   0.857   5.012  13.273  0.4521 -0.4142  2.3566
24140SOL    HW282351   0.988   5.005  13.197 -0.5644 -0.0480  0.5268
24141SOL     OW82352   9.277   0.165  12.894  0.3314 -0.0821 -0.0265
24141SOL    HW182353   9.189   0.162  12.856  0.5264  0.3642 -0.5210
24141SOL    HW282354   9.309   0.252  12.874  0.1981  0.4168  1.7578
24142SOL     OW82355   5.745   3.485   9.171 -0.0911  0.3085 -0.0557
24142SOL    HW182356   5.721   3.446   9.087 -1.2812 -0.8569  0.7846
24142SOL    HW282357   5.703   3.430   9.236 -2.1708  3.1479  1.2345
24143SOL     OW82358   1.138   9.405  12.564  0.4825  0.5240 -0.0774
24143SOL    HW182359   1.141   9.335  12.498  0.4422  0.5930 -0.1532
24143SOL    HW282360   1.060   9.456  12.541  1.1229  1.2506 -0.7041
24144SOL     OW82361   7.026  12.531   5.140  0.1699  0.1644 -0.5982
24144SOL    HW182362   7.120  12.518   5.128  0.8150 -1.8779  4.3154
24144SOL    HW282363   6.986  12.456   5.097  0.9860 -0.0428 -1.0186
24145SOL     OW82364   0.906   5.988   4.588 -0.5037  0.7047 -0.2640
24145SOL    HW182365   0.872   5.899   4.580 -0.7414  0.6710  0.9393
24145SOL    HW282366   0.994   5.977   4.623 -0.6241  0.9543  0.1189
24146SOL     OW82367   3.669   0.276   4.358 -0.3193 -0.4728 -0.3292
24146SOL    HW182368   3.748   0.324   4.383  1.6539 -2.0466 -2.9350
24146SOL    HW282369   3.674   0.272   4.262 -1.2118 -4.3106 -0.3803
24147SOL     OW82370   9.219  12.033   6.292  0.3893 -0.3952  0.1132
24147SOL    HW182371   9.247  11.942   6.297  1.2375 -0.1290  0.5396
24147SOL    HW282372   9.125  12.029   6.280  0.5151 -1.3376 -0.6848
24148SOL     OW82373   6.657   1.369   4.004  0.2907 -0.2416 -0.3266
24148SOL    HW182374   6.698   1.308   4.065  0.6519 -0.1347 -0.4619
24148SOL    HW282375   6.609   1.313   3.943 -1.1427 -0.3230  0.7844
24149SOL     OW82376   2.432   0.184   3.769  0.2547 -0.5025  0.5059
24149SOL    HW182377   2.489   0.184   3.846 -1.3740  0.5119  1.7830
24149SOL    HW282378   2.472   0.250   3.711  0.0454  0.7012  1.6755
24150SOL     OW82379  12.255  11.542   6.976  0.1103 -0.0386 -0.3009
24150SOL    HW182380  12.200  11.528   6.899 -2.7723 -0.6439  1.7081
24150SOL    HW282381  12.293  11.457   6.994  0.4606  0.0098 -0.7773
24151SOL     OW82382   9.477  10.020  13.314 -0.0609  0.3824 -0.0311
24151SOL    HW182383   9.559  10.062  13.287 -1.7401  1.9464 -3.4547
24151SOL    HW282384   9.415  10.044  13.245 -2.9697 -2.2300  1.4329
24152SOL     OW82385   1.643  10.978  12.667 -0.0923  0.1700 -0.1036
24152SOL    HW182386   1.711  10.914  12.687 -0.7509  0.0544  1.9952
24152SOL    HW282387   1.578  10.928  12.616 -0.9825 -1.1533  2.1625
24153SOL     OW82388   1.608   0.671   3.105 -0.0215  0.6936  0.7621
24153SOL    HW182389   1.653   0.755   3.115 -0.6808  1.1149  0.2392
24153SOL    HW282390   1.616   0.650   3.012 -0.9530  0.8117  0.6464
24154SOL     OW82391   2.420   6.488   4.511 -0.0081 -0.0727  0.1255
24154SOL    HW182392   2.353   6.477   4.443  0.0626 -1.4929  0.2673
24154SOL    HW282393   2.398   6.423   4.577 -1.2066  2.5167  2.4580
24155SOL     OW82394   1.626   1.155   1.027  0.3093  0.4483 -0.8018
24155SOL    HW182395   1.672   1.111   1.099 -0.2843 -2.5971 -2.1225
24155SOL    HW282396   1.536   1.163   1.058  0.1844 -0.3039 -0.9603
24156SOL     OW82397   5.336  11.691  11.586  0.0550  0.2107  0.0715
24156SOL    HW182398   5.375  11.604  11.590 -0.3292  0.0341  0.0141
24156SOL    HW282399   5.340  11.716  11.494 -1.3990 -0.4769 -0.2119
24157SOL     OW82400  10.265  12.942  12.646 -0.4250 -0.3091  0.2962
24157SOL    HW182401  10.288  12.889  12.570 -2.4193 -0.3611 -0.3446
24157SOL    HW282402  10.292  12.890  12.721 -1.6654 -1.9511 -0.3324
24158SOL     OW82403  12.258  11.055   5.997  0.3266 -0.3038  0.2103
24158SOL    HW182404  12.292  11.037   5.910  0.9247  0.2262  0.3223
24158SOL    HW282405  12.271  11.150   6.008 -2.5587  0.2524 -0.3259
24159SOL     OW82406  11.880   4.905   6.514 -0.1777  0.0450  0.4196
24159SOL    HW182407  11.828   4.851   6.454 -0.0821 -0.0319  0.4059
24159SOL    HW282408  11.849   4.882   6.601 -0.9531  0.8065  0.3649
24160SOL     OW82409   6.585   3.264   3.168 -0.5320 -0.2759 -0.0994
24160SOL    HW182410   6.638   3.343   3.163 -0.7179 -0.2159 -1.3454
24160SOL    HW282411   6.508   3.289   3.219 -1.7619  1.0657 -2.4391
24161SOL     OW82412   1.634   4.856   3.581  0.3774  0.5133 -0.3036
24161SOL    HW182413   1.728   4.841   3.573  0.0488 -2.2087  0.0734
24161SOL    HW282414   1.603   4.864   3.491  0.8090  0.3579 -0.4667
24162SOL     OW82415   7.568   1.609   2.672 -0.0066 -0.0266 -0.1092
24162SOL    HW182416   7.599   1.525   2.638  0.2787  0.2149 -0.4350
24162SOL    HW282417   7.577   1.600   2.767  0.7071 -0.0926 -0.1806
24163SOL     OW82418   8.998   8.140   6.356  0.4549  0.1657  0.1299
24163SOL    HW182419   8.939   8.071   6.387  0.2358  0.3566  0.1344
24163SOL    HW282420   8.943   8.198   6.303  0.6025  0.4350  0.2677
24164SOL     OW82421   4.280  12.379   2.141 -0.8644 -0.0372 -0.8785
24164SOL    HW182422   4.242  12.336   2.217 -0.6777 -1.2358 -1.4367
24164SOL    HW282423   4.213  12.442   2.113 -1.2300 -0.0932 -0.1663
24165SOL     OW82424   1.459   3.096   0.304  0.4888 -0.0643  0.0140
24165SOL    HW182425   1.433   3.058   0.388 -0.2665  0.5783  0.0845
24165SOL    HW282426   1.422   3.185   0.306  0.7985  0.0886 -0.8351
24166SOL     OW82427   4.942   6.135   3.326  0.1244 -0.4206 -0.3919
24166SOL    HW182428   4.964   6.069   3.393 -0.4095  0.6131  0.8543
24166SOL    HW282429   4.854   6.164   3.350  1.1069  2.2492  0.4277
24167SOL     OW82430  10.692  12.133   2.627 -0.1576  0.3335  0.6590
24167SOL    HW182431  10.717  12.059   2.572 -1.3366  0.9927 -0.8337
24167SOL    HW282432  10.619  12.100   2.679  0.0582  0.1249  0.8362
24168SOL     OW82433   8.303   7.670   6.089  0.0440 -0.2990  0.4490
24168SOL    HW182434   8.240   7.639   6.154  0.0191 -0.7229  0.2242
24168SOL    HW282435   8.367   7.721   6.140  0.0044 -0.5946  0.7976
24169SOL     OW82436  12.700   6.306   1.196 -0.2230 -0.1303  0.2693
24169SOL    HW182437  12.692   6.286   1.289 -0.1733  1.1441  0.5705
24169SOL    HW282438  12.782   6.266   1.169 -0.3786 -0.7505  0.7007
24170SOL     OW82439  11.944   5.920   9.676 -0.2845 -0.0096 -0.5933
24170SOL    HW182440  11.930   6.015   9.670 -1.2392 -0.1462 -0.5864
24170SOL    HW282441  11.881   5.882   9.615  0.1392 -0.6464 -0.6470
24171SOL     OW82442  12.728   9.591   9.047  0.0168  0.5601 -0.5046
24171SOL    HW182443  12.767   9.596   9.134 -2.5097 -2.0756  0.9329
24171SOL    HW282444  12.653   9.650   9.051  0.8142  1.7097 -1.5465
24172SOL     OW82445  10.244   6.407   6.981  0.9254 -0.0761  0.4031
24172SOL    HW182446  10.216   6.467   7.050 -0.6393  0.8092 -0.9172
24172SOL    HW282447  10.162   6.368   6.949  1.5754 -0.2588 -1.1097
24173SOL     OW82448  11.345   6.023   7.893  0.2126  0.1586 -0.3836
24173SOL    HW182449  11.331   6.052   7.802 -0.5428 -1.3173 -0.7807
24173SOL    HW282450  11.266   6.052   7.939 -0.2090 -0.5888 -0.6151
24174SOL     OW82451   7.195  10.300   0.967  0.4883  0.4683 -0.3255
24174SOL    HW182452   7.210  10.354   0.889  0.0233  0.9709 -0.0761
24174SOL    HW282453   7.265  10.326   1.027  0.3650  0.6819 -0.2706
24175SOL     OW82454  11.878   2.342   9.745  0.0869  0.6687 -0.1338
24175SOL    HW182455  11.865   2.312   9.655  0.9877  1.6250 -0.6066
24175SOL    HW282456  11.972   2.329   9.761 -0.1900 -0.1457  0.9219
24176SOL     OW82457  11.665   0.180  12.346 -0.3670  0.5487  0.6264
24176SOL    HW182458  11.739   0.155  12.401 -1.4993  0.2618  2.0721
24176SOL    HW282459  11.609   0.103  12.344 -0.6351  0.7484 -0.4856
24177SOL     OW82460   0.848  10.950   6.940 -0.2181 -0.0466  0.2424
24177SOL    HW182461   0.892  10.890   7.000  0.1267 -1.3509 -1.2194
24177SOL    HW282462   0.755  10.937   6.956 -0.1281 -0.3333  0.5376
24178SOL     OW82463  13.283   5.779   5.662 -0.2190 -0.3052 -0.5263
24178SOL    HW182464  13.258   5.805   5.751 -0.0116 -1.1659 -0.2017
24178SOL    HW282465  13.377   5.760   5.668 -0.3557 -1.1185 -0.7269
24179SOL     OW82466   3.487  10.404   8.216 -0.8117 -0.0821 -0.1315
24179SOL    HW182467   3.450  10.391   8.304 -2.4791  1.5756 -0.5133
24179SOL    HW282468   3.468  10.323   8.170  1.2362 -1.5061  1.3515
24180SOL     OW82469   0.600   3.024   9.027  0.4598  0.3099 -0.7752
24180SOL    HW182470   0.516   3.054   8.992  0.3729  1.0027  0.0057
24180SOL    HW282471   0.598   2.929   9.016  0.2404  0.4539 -2.2005
24181SOL     OW82472  10.993   6.179  12.624  0.3848 -0.6648  0.4673
24181SOL    HW182473  10.950   6.182  12.710 -1.3313  0.8024 -0.3842
24181SOL    HW282474  11.014   6.270  12.605 -0.7643 -0.7260 -1.3497
24182SOL     OW82475   1.017   7.087   3.581  0.5720  0.0526 -0.0529
24182SOL    HW182476   0.969   7.163   3.550 -1.0966 -0.6650  0.6575
24182SOL    HW282477   1.087   7.123   3.636 -0.2988  1.0709  0.4088
24183SOL     OW82478   1.402   8.000   0.925 -0.1808 -0.2340  0.4411
24183SOL    HW182479   1.336   8.044   0.870 -0.4985 -2.6751 -1.2712
24183SOL    HW282480   1.353   7.971   1.002 -0.7006 -0.3907  0.0605
24184SOL     OW82481   2.557   2.083  13.050 -0.6780  0.2398  0.1541
24184SOL    HW182482   2.474   2.082  13.002 -0.3945  0.0961 -0.3406
24184SOL    HW282483   2.563   2.171  13.087 -1.0674  0.2371  0.2271
24185SOL     OW82484   7.842  11.249   5.108 -0.2560 -0.0268 -0.2383
24185SOL    HW182485   7.812  11.204   5.029  1.3184 -2.3064  0.3744
24185SOL    HW282486   7.790  11.212   5.179  1.8872 -1.9543  0.4423
24186SOL     OW82487   4.834  10.737   5.885  0.4085  0.4151  0.1072
24186SOL    HW182488   4.808  10.726   5.794  0.5084 -1.3122  0.2614
24186SOL    HW282489   4.785  10.669   5.932  1.6273  0.1867  1.0856
24187SOL     OW82490   6.783   7.057   9.074  0.3622  0.1999 -0.4217
24187SOL    HW182491   6.727   7.125   9.112  0.2618 -0.5484  0.8576
24187SOL    HW282492   6.872   7.084   9.096  0.2999 -0.2703  0.4535
24188SOL     OW82493  12.736   6.926  11.725 -0.1675  0.2740 -0.1232
24188SOL    HW182494  12.820   6.938  11.768 -0.9015 -0.5725  1.6096
24188SOL    HW282495  12.674   6.910  11.796 -1.2948 -1.9334 -1.5150
24189SOL     OW82496   9.646   8.949   9.577  0.8382  0.0600  0.5176
24189SOL    HW182497   9.607   8.963   9.663 -0.5656 -0.2093 -0.0447
24189SOL    HW282498   9.695   8.867   9.585 -1.1536 -1.2122  0.4989
24190SOL     OW82499   1.821  10.652  10.301  0.2820  0.0106  0.0114
24190SOL    HW182500   1.735  10.685  10.278 -1.4729 -4.3003 -0.5233
24190SOL    HW282501   1.811  10.618  10.390  0.7532 -2.2585 -0.7305
24191SOL     OW82502   0.597  13.059   2.192 -0.0179  0.3733 -0.0390
24191SOL    HW182503   0.643  13.057   2.108 -0.8280 -1.2899 -0.4880
24191SOL    HW282504   0.614  12.973   2.230 -0.5248  0.7275  1.0275
24192SOL     OW82505  12.050   9.732   9.909  0.2121  0.0543 -0.4475
24192SOL    HW182506  12.062   9.819   9.947 -1.7410 -0.3523  1.3202
24192SOL    HW282507  12.131   9.714   9.862  1.0920  2.3654  0.0784
24193SOL     OW82508   3.064   3.589   6.102 -0.1785 -0.0113 -0.6452
24193SOL    HW182509   3.138   3.584   6.041  0.9109  0.0125  0.6323
24193SOL    HW282510   3.081   3.669   6.152 -0.2012 -0.8713  0.7599
24194SOL     OW82511   9.020  10.278   8.093 -0.6287  0.1425  0.3628
24194SOL    HW182512   8.947  10.250   8.038 -1.6713  0.6387  1.4441
24194SOL    HW282513   8.979  10.333   8.160  0.6349 -0.2451  1.4842
24195SOL     OW82514   7.362   1.921  11.406  0.0615  0.1822 -0.0844
24195SOL    HW182515   7.387   1.913  11.498 -1.2695  1.2770  0.3855
24195SOL    HW282516   7.336   1.832  11.381  0.5357 -0.1457  0.5451
24196SOL     OW82517   0.489   6.509   6.855 -0.2304  0.0540  0.4654
24196SOL    HW182518   0.535   6.538   6.933  1.6018  0.2148 -0.6252
24196SOL    HW282519   0.429   6.581   6.834  0.8166  0.9556  0.5073
24197SOL     OW82520   0.941   5.110   4.852  0.4997 -0.7577  0.5155
24197SOL    HW182521   1.014   5.137   4.907  0.6845  1.0629 -0.5367
24197SOL    HW282522   0.979   5.099   4.765 -0.7993  3.0381 -0.7404
24198SOL     OW82523  10.187   9.636   5.988  0.2514 -0.1406  0.0927
24198SOL    HW182524  10.106   9.587   6.005  0.8565 -1.1595  0.1091
24198SOL    HW282525  10.230   9.641   6.073  2.2339 -3.3569 -0.5336
24199SOL     OW82526   9.783   1.930  12.851 -0.9018  0.0004 -0.1222
24199SOL    HW182527   9.750   2.004  12.800 -0.4675  0.6900  0.5736
24199SOL    HW282528   9.705   1.878  12.871 -1.2536  0.4088 -0.4044
24200SOL     OW82529   8.142   9.849  10.909 -0.5263 -0.1015 -0.0215
24200SOL    HW182530   8.196   9.811  10.840  0.8602  0.9035  0.4683
24200SOL    HW282531   8.189   9.828  10.990 -0.4807  1.3876  0.3586
24201SOL     OW82532   6.164   7.632   0.436 -0.2297 -0.5440 -0.3795
24201SOL    HW182533   6.231   7.568   0.412 -0.0725  0.0500 -1.5698
24201SOL    HW282534   6.102   7.631   0.363 -0.7536 -0.0492  0.0484
24202SOL     OW82535  12.989  12.119   0.993  0.1650 -0.5696  0.0827
24202SOL    HW182536  12.986  12.080   1.080  1.4566  1.6888  1.2417
24202SOL    HW282537  13.082  12.119   0.970  0.0349  0.3932 -0.5308
24203SOL     OW82538   8.886   9.338   4.376 -0.9244  0.0457 -0.3209
24203SOL    HW182539   8.876   9.253   4.419 -0.6109  0.5910  0.8609
24203SOL    HW282540   8.898   9.400   4.448 -1.2698  1.1146 -1.1590
24204SOL     OW82541   5.617   0.170   9.619  0.0260 -0.3096  0.1275
24204SOL    HW182542   5.675   0.192   9.546  0.4231 -0.1309  0.4923
24204SOL    HW282543   5.529   0.168   9.580  0.1147  0.7291 -0.1704
24205SOL     OW82544   8.303   3.961  11.224  0.5826  0.2135 -0.3920
24205SOL    HW182545   8.377   3.982  11.168  1.9259  0.0429  1.2268
24205SOL    HW282546   8.320   3.871  11.254 -0.9871 -0.3366 -1.0280
24206SOL     OW82547   7.187   6.486   3.195 -0.5939  0.1064 -0.1510
24206SOL    HW182548   7.155   6.513   3.281  3.2300  0.1381  1.4440
24206SOL    HW282549   7.211   6.394   3.207  2.7261  0.8754 -0.1704
24207SOL     OW82550   7.315   1.090   3.989 -0.0252 -0.0663 -0.6327
24207SOL    HW182551   7.281   1.037   3.918 -1.0407  2.0596 -1.8282
24207SOL    HW282552   7.279   1.051   4.068 -0.0154 -1.6301 -1.3654
24208SOL     OW82553  11.517  10.527   7.967 -0.0127  0.2627  0.3668
24208SOL    HW182554  11.479  10.608   8.001 -0.5824 -0.0814  0.5649
24208SOL    HW282555  11.607  10.551   7.944 -0.3072  1.0567  0.0114
24209SOL     OW82556   2.324   0.092  10.376 -0.6461  0.3199 -0.2317
24209SOL    HW182557   2.263   0.134  10.316 -2.0868 -2.2901 -0.7860
24209SOL    HW282558   2.384   0.044  10.319 -0.2298  0.1252  0.3626
24210SOL     OW82559  12.982   9.264   4.818 -0.1243  0.2320 -0.4062
24210SOL    HW182560  13.062   9.218   4.840  1.0781  1.8381 -1.1913
24210SOL    HW282561  12.934   9.203   4.762 -0.3784 -1.4787  1.5824
24211SOL     OW82562   6.561   8.362   8.001  0.1709  0.2325 -0.1023
24211SOL    HW182563   6.606   8.426   7.946 -0.8862  1.1876  0.1332
24211SOL    HW282564   6.563   8.281   7.949 -0.8129  1.1101 -1.5848
24212SOL     OW82565   6.023   1.865   6.561  0.2945  0.3480  0.0786
24212SOL    HW182566   6.091   1.887   6.498  0.9520  0.2331  0.7327
24212SOL    HW282567   5.962   1.810   6.513  0.8522  0.1592 -0.4200
24213SOL     OW82568   5.435   4.502   0.290  0.5234  0.1062  0.3291
24213SOL    HW182569   5.390   4.500   0.206  0.1142  1.8316  0.4685
24213SOL    HW282570   5.461   4.411   0.306  0.4926 -0.2739 -1.5848
24214SOL     OW82571   0.519   4.648  10.976 -0.4263 -0.7155  0.0669
24214SOL    HW182572   0.609   4.627  11.003  0.0487  0.4056 -0.5671
24214SOL    HW282573   0.487   4.568  10.934  0.0239 -1.3504  0.8986
24215SOL     OW82574   7.942   7.550   3.449 -0.2239 -0.2137  0.0776
24215SOL    HW182575   7.855   7.514   3.428 -0.0036 -0.6126 -0.1573
24215SOL    HW282576   7.994   7.473   3.471  0.2562 -0.0373 -0.4352
24216SOL     OW82577   1.567   3.383  12.038 -0.1122 -0.1696 -0.0381
24216SOL    HW182578   1.525   3.310  12.082  1.2632 -0.9297  0.0448
24216SOL    HW282579   1.519   3.392  11.955 -0.5860 -0.8505  0.1589
24217SOL     OW82580   2.833   9.063  13.302  0.4662  0.0199 -0.2393
24217SOL    HW182581   2.802   8.980  13.337 -1.3453  0.7380  0.0126
24217SOL    HW282582   2.902   9.091  13.361 -1.5360  0.5096  2.0512
24218SOL     OW82583  12.907   6.001  12.701 -0.2536 -0.2523  0.3777
24218SOL    HW182584  12.815   6.028  12.699 -0.1215  0.2131 -1.2979
24218SOL    HW282585  12.918   5.948  12.622  1.1063  0.4233  0.0680
24219SOL     OW82586  10.747   3.594   1.238 -0.1885 -0.2558 -0.7109
24219SOL    HW182587  10.817   3.646   1.277 -0.0859 -0.1442 -1.0451
24219SOL    HW282588  10.741   3.517   1.295  1.0137 -0.8433 -1.3541
24220SOL     OW82589   3.272  11.168   5.382  0.7418  0.1384 -0.0149
24220SOL    HW182590   3.329  11.236   5.347  3.7100 -2.4304 -0.5679
24220SOL    HW282591   3.310  11.145   5.466  0.5986 -1.6580 -0.3944
24221SOL     OW82592  13.005  12.430   8.573 -0.0202 -0.0450 -0.3545
24221SOL    HW182593  12.942  12.429   8.645  0.0332 -0.2874 -0.3111
24221SOL    HW282594  13.049  12.346   8.578 -0.0190 -0.0672 -0.6724
24222SOL     OW82595   1.000   5.422   9.081  0.4856 -0.1451 -0.4932
24222SOL    HW182596   1.014   5.497   9.139  0.3174  0.5486 -1.3270
24222SOL    HW282597   0.906   5.408   9.083  0.4427  0.0873 -0.8480
24223SOL     OW82598   2.197   0.961   4.259 -0.0704 -0.2746 -0.0882
24223SOL    HW182599   2.140   0.886   4.242  1.1628 -1.1921 -0.2924
24223SOL    HW282600   2.155   1.006   4.333 -1.5554 -0.3680 -0.8249
24224SOL     OW82601   9.847   7.684   5.600  0.3761  0.1542 -0.1888
24224SOL    HW182602   9.843   7.705   5.694 -0.7441 -1.3223  0.1248
24224SOL    HW282603   9.848   7.769   5.557  0.3643  0.8621  1.1490
24225SOL     OW82604  11.856   1.763   3.548  0.0832  0.3267 -0.5660
24225SOL    HW182605  11.934   1.709   3.557  0.2832  0.8682  1.6089
24225SOL    HW282606  11.888   1.853   3.554 -0.7999  0.5580  2.7901
24226SOL     OW82607   7.200   2.445   4.180  0.0314 -0.4447  0.3027
24226SOL    HW182608   7.273   2.502   4.203 -0.7514  0.0545  1.7043
24226SOL    HW282609   7.233   2.390   4.109  1.3007  0.6960 -0.0224
24227SOL     OW82610   0.083  12.986  11.350 -0.1753 -0.0651  0.2159
24227SOL    HW182611   0.051  12.899  11.324  0.8982 -0.3370 -0.2724
24227SOL    HW282612   0.091  12.981  11.445  1.9383 -1.2975  0.0529
24228SOL     OW82613   5.520   7.445  12.630  0.0873  0.1652 -0.0685
24228SOL    HW182614   5.605   7.460  12.673 -0.2631  0.5191  0.5210
24228SOL    HW282615   5.523   7.499  12.551  0.2243  0.5723  0.2102
24229SOL     OW82616  13.201   2.454   9.895 -0.3722  0.2866 -0.3693
24229SOL    HW182617  13.287   2.413   9.899 -0.3370  0.2869 -0.9966
24229SOL    HW282618  13.209   2.532   9.950 -0.1906 -0.0927  0.1508
24230SOL     OW82619   9.663  12.664  10.055  0.3743 -0.0009  0.5831
24230SOL    HW182620   9.671  12.569  10.050  0.5520  0.0686 -0.9014
24230SOL    HW282621   9.654  12.692   9.964  2.5870  1.5765  0.7504
24231SOL     OW82622   9.339   1.851   5.472  0.7100 -0.2453  0.5447
24231SOL    HW182623   9.293   1.826   5.392  1.1770  0.4119  0.0519
24231SOL    HW282624   9.374   1.938   5.452 -0.9548  0.8871  2.2150
24232SOL     OW82625   9.818  10.541   8.643  0.0183  0.2399  0.8887
24232SOL    HW182626   9.842  10.540   8.550 -1.7277  1.2455  0.3844
24232SOL    HW282627   9.891  10.497   8.687  0.6885 -0.6317 -0.9932
24233SOL     OW82628   8.924   1.851   4.932 -0.2255 -0.1171 -0.5741
24233SOL    HW182629   8.953   1.885   5.017  0.0333 -0.7004 -0.4248
24233SOL    HW282630   8.869   1.921   4.896 -0.8129 -0.1006  0.3292
24234SOL     OW82631   2.992   6.005   5.888  0.0770  0.6458  0.2424
24234SOL    HW182632   3.065   5.982   5.945  1.1385  0.8082 -0.9899
24234SOL    HW282633   2.958   5.921   5.858  0.8832  0.5649 -0.5084
24235SOL     OW82634  12.500   2.521  12.443 -0.2149 -0.0363 -0.1828
24235SOL    HW182635  12.478   2.614  12.438 -0.9616 -0.2305 -0.7689
24235SOL    HW282636  12.595   2.518  12.430  0.2469  0.8363  2.4500
24236SOL     OW82637  12.602  10.334   3.709  0.1478 -0.1162  0.3054
24236SOL    HW182638  12.686  10.292   3.689  0.2861 -0.6274  1.8246
24236SOL    HW282639  12.569  10.286   3.784 -1.3924  0.2610 -0.1097
24237SOL     OW82640   8.611   7.828   6.809 -0.0887 -0.3533  0.0468
24237SOL    HW182641   8.676   7.763   6.785  1.0612 -0.2202  2.5063
24237SOL    HW282642   8.552   7.782   6.870 -1.8943 -0.2468 -1.5190
24238SOL     OW82643   6.740  13.004  11.834  0.0930  0.0297  0.0786
24238SOL    HW182644   6.757  12.918  11.871  0.1555  0.4833  1.1395
24238SOL    HW282645   6.708  13.056  11.908 -1.0806  0.5946 -0.7890
24239SOL     OW82646   1.021   0.796  10.725 -0.1981  0.3128  0.3075
24239SOL    HW182647   1.089   0.810  10.791 -0.4634  1.0040  0.4468
24239SOL    HW282648   1.067   0.806  10.642  0.3101 -1.3706  0.3487
24240SOL     OW82649   3.799   9.244  12.699  0.4522  0.7026 -0.3712
24240SOL    HW182650   3.787   9.229  12.605 -1.3607  1.0731 -0.2346
24240SOL    HW282651   3.806   9.339  12.707 -1.4824  0.8442  0.0369
24241SOL     OW82652   4.190   6.493   9.057 -0.0774 -0.0510 -0.4797
24241SOL    HW182653   4.243   6.562   9.098  1.1581 -0.7213 -0.9089
24241SOL    HW282654   4.253   6.437   9.013 -1.0929 -1.2602 -0.4520
24242SOL     OW82655   0.310   8.476  13.244  0.2627  0.0786 -0.3670
24242SOL    HW182656   0.328   8.561  13.284 -1.0720 -0.2155  0.9258
24242SOL    HW282657   0.394   8.430  13.246  1.1646  1.5535 -1.6696
24243SOL     OW82658   7.791  11.155   9.112  0.0797 -0.3967  0.1982
24243SOL    HW182659   7.778  11.241   9.071  1.4659  0.0975  0.7471
24243SOL    HW282660   7.871  11.122   9.072  0.7185 -0.4991  1.5150
24244SOL     OW82661   1.956  13.201   7.248  0.5763  0.1597 -0.1587
24244SOL    HW182662   1.993  13.151   7.176 -0.2157  0.1992 -0.6003
24244SOL    HW282663   1.979  13.292   7.228  1.6243  0.0385  0.4111
24245SOL     OW82664   1.360   0.929   2.219  0.5869  0.3844  0.1378
24245SOL    HW182665   1.447   0.894   2.236  0.5918  1.1345  1.9462
24245SOL    HW282666   1.300   0.871   2.266  0.1432  0.1237 -0.7295
24246SOL     OW82667   8.578   7.917   4.886 -0.0675 -0.0931  0.1151
24246SOL    HW182668   8.574   7.887   4.977  4.4405  1.9572  1.2947
24246SOL    HW282669   8.617   7.843   4.839 -2.6651 -1.2657 -0.3859
24247SOL     OW82670   4.340   7.715   6.826  0.5939 -0.3711 -0.2461
24247SOL    HW182671   4.416   7.719   6.884 -0.8036 -2.4930  1.9018
24247SOL    HW282672   4.270   7.756   6.876 -0.0521  0.2583 -1.6088
24248SOL     OW82673  12.519   6.511   5.575  0.3900 -0.4352 -1.1872
24248SOL    HW182674  12.435   6.468   5.557  0.9304 -1.1737 -2.0369
24248SOL    HW282675  12.509   6.599   5.539 -0.5056 -0.0282 -0.0040
24249SOL     OW82676   9.194  10.107   3.567 -0.2647  0.4295 -0.4564
24249SOL    HW182677   9.184  10.058   3.649  1.1198  0.6634 -0.1252
24249SOL    HW282678   9.228  10.192   3.594 -0.5098  0.7778 -1.2219
24250SOL     OW82679   4.291  12.617  10.777 -0.1551 -0.2285 -0.6382
24250SOL    HW182680   4.266  12.596  10.867 -0.2937 -0.0399 -0.6303
24250SOL    HW282681   4.339  12.700  10.784 -1.4050  0.5559 -0.8820
24251SOL     OW82682   7.739   4.225   5.521  0.8919  0.0895 -0.1784
24251SOL    HW182683   7.654   4.210   5.479  0.9868 -1.0041 -0.0058
24251SOL    HW282684   7.724   4.201   5.613  1.0231  1.2575  0.1712
24252SOL     OW82685   1.508   7.083   4.251  0.0414  0.2371  0.3313
24252SOL    HW182686   1.445   7.042   4.192  0.1320  0.6868 -0.0893
24252SOL    HW282687   1.477   7.173   4.261  0.3091  0.3053  0.5686
24253SOL     OW82688   7.041   6.001   1.941  0.0273 -0.0427  0.5663
24253SOL    HW182689   6.975   6.017   1.874  0.9327 -1.1740 -0.6275
24253SOL    HW282690   6.993   5.957   2.011 -0.2536 -2.2572 -0.9274
24254SOL     OW82691   4.806   9.243   1.859  0.5346  0.0912  0.3649
24254SOL    HW182692   4.862   9.287   1.795  0.3246 -0.1190  0.0353
24254SOL    HW282693   4.835   9.152   1.859 -1.0127 -0.4541 -1.1852
24255SOL     OW82694   2.124   9.249   3.393 -0.3831  0.0478 -0.5660
24255SOL    HW182695   2.114   9.283   3.304 -2.5788 -0.4976 -0.5744
24255SOL    HW282696   2.074   9.167   3.393  1.1154 -0.9265  0.6925
24256SOL     OW82697   2.377   1.027   8.775  0.1042  0.4528 -0.7319
24256SOL    HW182698   2.325   0.947   8.784  1.0614 -0.1618 -0.5032
24256SOL    HW282699   2.393   1.056   8.865  0.3544  0.5061 -0.7924
24257SOL     OW82700  11.406   5.353   0.689 -0.3671 -0.0340  0.2911
24257SOL    HW182701  11.459   5.282   0.651 -0.4842 -0.4897  0.9734
24257SOL    HW282702  11.420   5.345   0.783 -1.0939  0.2910  0.4266
24258SOL     OW82703   2.084  11.312  12.024 -0.3986 -0.3100 -0.5591
24258SOL    HW182704   2.011  11.353  12.070 -0.3722 -0.4178 -0.4197
24258SOL    HW282705   2.148  11.382  12.014 -0.3196 -0.3373 -0.2483
24259SOL     OW82706   7.051  12.927   6.533 -0.0384 -0.2251  0.2607
24259SOL    HW182707   7.052  12.884   6.619  1.3554 -0.8568 -0.0514
24259SOL    HW282708   7.088  13.014   6.550  2.1320 -1.0438 -0.0082
24260SOL     OW82709   3.776   7.958   9.905 -0.7072 -0.1613 -0.3001
24260SOL    HW182710   3.867   7.985   9.891 -0.9641  0.6945 -0.3463
24260SOL    HW282711   3.782   7.890   9.973 -0.1447  0.7479  0.5834
24261SOL     OW82712   4.948   1.436   4.303 -0.5208 -0.4320  0.0099
24261SOL    HW182713   4.922   1.366   4.244  2.0552  0.4051 -2.3838
24261SOL    HW282714   4.901   1.513   4.271  1.0053  0.0593 -1.1406
24262SOL     OW82715  12.297   9.071   7.739 -0.0157 -0.5182  0.0217
24262SOL    HW182716  12.330   8.983   7.752  1.6978  0.0059 -0.5695
24262SOL    HW282717  12.375   9.126   7.734 -0.9831  0.8341 -0.9837
24263SOL     OW82718   9.992  13.218   9.914  0.4595 -0.3653  0.2186
24263SOL    HW182719  10.039  13.239   9.995 -0.7690 -0.0211  0.8685
24263SOL    HW282720  10.027  13.133   9.887  1.9199  0.1964  0.3036
24264SOL     OW82721  12.376   9.874   6.392  0.0267  0.1923 -0.5400
24264SOL    HW182722  12.341   9.961   6.370 -0.3908  0.1598 -0.0311
24264SOL    HW282723  12.430   9.850   6.317 -0.5229  0.5355 -1.0567
24265SOL     OW82724   9.241   2.872   2.356 -0.2774 -0.1676  0.9611
24265SOL    HW182725   9.234   2.782   2.389  1.5908 -0.7346  0.0181
24265SOL    HW282726   9.275   2.862   2.267  0.4119  1.4831  0.9934
24266SOL     OW82727   6.308  10.402   6.858  0.3315  0.0686 -0.1877
24266SOL    HW182728   6.309  10.420   6.764  2.3054 -1.1408 -0.4527
24266SOL    HW282729   6.351  10.317   6.867 -0.6549 -0.2874  1.7471
24267SOL     OW82730   3.204  11.547   6.162 -0.1635 -0.1073  0.2227
24267SOL    HW182731   3.157  11.611   6.215 -0.3924  0.0097 -0.1166
24267SOL    HW282732   3.138  11.514   6.100 -0.2203 -1.1618  0.8278
24268SOL     OW82733   1.389  10.389   8.902  0.1316  0.3797 -0.8341
24268SOL    HW182734   1.350  10.374   8.816  1.4388 -1.6207 -1.1163
24268SOL    HW282735   1.380  10.305   8.947 -1.0656  1.5460  1.2482
24269SOL     OW82736   8.124  10.313  12.140  0.1582 -0.1229 -0.0841
24269SOL    HW182737   8.087  10.371  12.074  0.4673  3.2669  2.4602
24269SOL    HW282738   8.069  10.327  12.217  2.2731 -0.6537  1.6047
24270SOL     OW82739   5.111   7.771   1.638  0.4036 -0.0034 -0.0483
24270SOL    HW182740   5.099   7.678   1.659 -1.2875  0.4932  1.3528
24270SOL    HW282741   5.205   7.780   1.622  0.4935 -2.0949 -0.9858
24271SOL     OW82742   4.762   9.232   1.019 -0.0985  0.4599 -0.0791
24271SOL    HW182743   4.778   9.308   0.962 -0.5121 -0.0354 -0.8767
24271SOL    HW282744   4.815   9.162   0.981  1.2155  0.6382  1.3499
24272SOL     OW82745   1.290   3.681   9.016  0.1515  0.6236 -0.6918
24272SOL    HW182746   1.237   3.661   9.093 -0.4623  0.3493 -1.1735
24272SOL    HW282747   1.234   3.659   8.942  0.7849  0.7434 -1.2211
24273SOL     OW82748   9.723  11.608   1.090  0.3167  0.8234 -0.3323
24273SOL    HW182749   9.731  11.642   1.000  0.0263  1.8082 -0.0022
24273SOL    HW282750   9.628  11.601   1.104  0.3417 -1.7270 -0.9459
24274SOL     OW82751   5.461   3.381   5.012 -0.2426  0.2422 -0.2910
24274SOL    HW182752   5.442   3.291   4.985 -0.4153 -0.0241  0.6942
24274SOL    HW282753   5.393   3.433   4.969 -0.7531 -0.2204 -0.0563
24275SOL     OW82754   7.201   1.068   6.096 -0.0391 -0.0923 -0.4432
24275SOL    HW182755   7.282   1.041   6.052  0.6866  1.8104 -0.3908
24275SOL    HW282756   7.171   1.144   6.046 -0.3917  0.7919  1.0587
24276SOL     OW82757   1.251   1.002   4.297  0.1354 -0.4469  0.0310
24276SOL    HW182758   1.184   1.070   4.297 -1.4242 -1.9208 -0.2572
24276SOL    HW282759   1.206   0.923   4.269  2.3724 -1.1747 -1.8302
24277SOL     OW82760   4.343   1.231  12.899 -0.0094 -0.0065  0.0540
24277SOL    HW182761   4.347   1.163  12.832  1.4581  0.6189 -0.5537
24277SOL    HW282762   4.301   1.305  12.856  0.0398  0.0699  0.1361
24278SOL     OW82763   0.298  10.980   5.520  0.5193 -0.1348 -0.3124
24278SOL    HW182764   0.263  10.974   5.609 -0.2766 -1.0701 -0.6693
24278SOL    HW282765   0.331  10.892   5.502  1.7583  0.3634 -0.5187
24279SOL     OW82766   6.984   8.879   9.484 -1.5783  0.0412 -0.8227
24279SOL    HW182767   6.905   8.899   9.534 -1.7642 -1.1089 -0.6226
24279SOL    HW282768   7.037   8.825   9.543 -0.3859  1.2193 -0.7595
24280SOL     OW82769   2.787  11.673   7.905 -0.1752  0.1527 -0.1782
24280SOL    HW182770   2.791  11.730   7.829 -0.7372 -0.6098 -0.8078
24280SOL    HW282771   2.710  11.703   7.954 -0.0460  0.3937 -0.1259
24281SOL     OW82772   2.457  10.734   5.059  0.0711 -0.0931  0.0996
24281SOL    HW182773   2.401  10.709   5.132  0.2925  0.9992  0.6626
24281SOL    HW282774   2.520  10.663   5.051  0.6655  0.2431  1.6185
24282SOL     OW82775  12.161   3.614   7.342  0.0433  0.5931  0.6829
24282SOL    HW182776  12.202   3.691   7.304  0.2264  0.0928 -0.1607
24282SOL    HW282777  12.230   3.572   7.393  0.2983  0.3212  0.1233
24283SOL     OW82778   4.353   6.997   1.571 -0.1242  0.2274 -0.2943
24283SOL    HW182779   4.258   7.001   1.585 -0.7575  0.4781 -3.7523
24283SOL    HW282780   4.383   7.087   1.584 -0.8615  0.7037 -1.6368
24284SOL     OW82781   1.683   3.441   7.438 -0.0351 -0.1763  0.7674
24284SOL    HW182782   1.634   3.373   7.485  0.3882 -0.7129  0.4474
24284SOL    HW282783   1.773   3.408   7.435 -0.2391 -0.6879 -1.3655
24285SOL     OW82784  10.178   7.156  10.312 -0.0950 -0.2093 -0.5297
24285SOL    HW182785  10.273   7.152  10.310 -0.0577 -0.5168  0.9163
24285SOL    HW282786  10.157   7.245  10.283  0.7128  0.3832  0.6351
24286SOL     OW82787   1.420   6.388   6.447 -0.2298  0.6544  0.1926
24286SOL    HW182788   1.403   6.458   6.510 -0.5958  0.2981  0.4906
24286SOL    HW282789   1.370   6.413   6.370 -1.0067  0.3161  0.5815
24287SOL     OW82790   5.458  11.551   5.766  0.8064  0.2681  0.0626
24287SOL    HW182791   5.404  11.554   5.687  0.8382 -2.0455 -0.1006
24287SOL    HW282792   5.397  11.528   5.836  1.0442  0.8024  0.4490
24288SOL     OW82793  10.447   2.391  10.964  0.4194  0.3114  0.0777
24288SOL    HW182794  10.437   2.321  10.900  2.4513  1.4689 -1.6253
24288SOL    HW282795  10.541   2.403  10.973  0.1534  1.9528  1.3033
24289SOL     OW82796  10.772   5.824   9.582  0.1439 -0.5242 -0.6139
24289SOL    HW182797  10.851   5.822   9.529  0.8381 -1.2985  0.4089
24289SOL    HW282798  10.747   5.916   9.586  1.3213 -0.1986 -0.4844
24290SOL     OW82799   9.348   3.511   0.043 -0.8346 -0.4425 -0.0155
24290SOL    HW182800   9.327   3.468   0.126  0.7047 -1.3238 -0.0459
24290SOL    HW282801   9.291   3.468  -0.021 -2.8347  0.9899  0.6931
24291SOL     OW82802   0.097  11.207   9.868 -0.1050  0.0607 -0.1946
24291SOL    HW182803   0.083  11.299   9.846 -0.7219 -0.5472 -2.6272
24291SOL    HW282804   0.011  11.165   9.854  0.8127 -1.3566 -2.0005
24292SOL     OW82805   0.908   5.117   7.806 -0.3168  0.3082  0.2536
24292SOL    HW182806   0.906   5.046   7.741  3.1683 -1.2561  1.5803
24292SOL    HW282807   0.976   5.177   7.775 -1.4990  1.7937  0.4256
24293SOL     OW82808   0.783   4.431   7.115  0.1173  0.2429 -0.0948
24293SOL    HW182809   0.850   4.495   7.092  1.1206 -0.6459  0.2988
24293SOL    HW282810   0.817   4.347   7.084 -1.0030 -0.1723 -0.2674
24294SOL     OW82811   0.884   5.521   6.103  0.1137 -0.2457 -0.5370
24294SOL    HW182812   0.961   5.523   6.160 -1.2409 -0.3871  1.4101
24294SOL    HW282813   0.815   5.485   6.158 -1.7001  1.2167 -1.7287
24295SOL     OW82814   6.396   0.106   5.341  0.0912 -0.3861  0.8720
24295SOL    HW182815   6.446   0.034   5.303  1.0844 -0.3469  2.0395
24295SOL    HW282816   6.398   0.090   5.435 -1.5343  0.0080  0.9996
24296SOL     OW82817   7.331  10.156   4.111  1.0992 -0.2393  0.0904
24296SOL    HW182818   7.411  10.209   4.118 -1.3727  4.3706 -2.0939
24296SOL    HW282819   7.334  10.120   4.022  0.4813  0.5392 -0.2553
24297SOL     OW82820  12.961   0.974   9.353  0.2119  0.5134 -0.4541
24297SOL    HW182821  12.904   1.050   9.362  0.0671  0.4847 -1.0640
24297SOL    HW282822  13.047   1.003   9.383 -0.5589 -0.0548  2.6047
24298SOL     OW82823   2.836   2.035   7.279  0.0581  0.1826  0.0098
24298SOL    HW182824   2.922   2.021   7.240  0.3238  3.6503 -0.9667
24298SOL    HW282825   2.853   2.089   7.357 -1.0155 -1.8162  1.7271
24299SOL     OW82826   7.034   5.037   3.868 -0.9519  0.0704 -0.0492
24299SOL    HW182827   6.947   5.000   3.883 -0.6487 -1.0394 -0.9131
24299SOL    HW282828   7.041   5.045   3.773 -1.3228  3.2259  0.1039
24300SOL     OW82829   7.544   3.339  12.053 -0.0814 -0.3109 -0.3947
24300SOL    HW182830   7.593   3.421  12.045 -1.1532  0.3914  0.1330
24300SOL    HW282831   7.612   3.272  12.067  0.7743  0.5428 -0.3926
24301SOL     OW82832  11.471   7.139   9.775  0.0338  0.1627  1.0464
24301SOL    HW182833  11.563   7.140   9.801  0.1532  1.0118  0.6465
24301SOL    HW282834  11.461   7.216   9.718 -0.2890 -1.3874 -1.1530
24302SOL     OW82835   7.057   9.332   4.108 -0.0882  0.3033 -0.2887
24302SOL    HW182836   7.096   9.245   4.103 -0.7443 -0.0329  0.3081
24302SOL    HW282837   7.111   9.386   4.050 -0.7055 -0.8710 -2.0172
24303SOL     OW82838   3.377  11.309   1.008  0.1380 -0.2694 -0.1539
24303SOL    HW182839   3.418  11.272   0.930  1.0785 -1.0773  0.6988
24303SOL    HW282840   3.283  11.292   0.995  0.3721 -1.2628 -0.6772
24304SOL     OW82841   3.594   2.559  12.224  0.3560 -0.1140  0.0121
24304SOL    HW182842   3.577   2.531  12.314  0.3912 -0.8881 -0.2149
24304SOL    HW282843   3.655   2.493  12.190 -0.7850 -0.6687 -1.0411
24305SOL     OW82844   7.964  11.903  11.024  0.0062 -0.5298  0.3691
24305SOL    HW182845   8.035  11.878  11.083  0.2302 -1.1765 -0.1611
24305SOL    HW282846   7.997  11.980  10.978  0.9984 -1.6976 -0.9565
24306SOL     OW82847   9.741   3.093   2.081  0.0530 -0.0419 -0.0631
24306SOL    HW182848   9.689   3.058   2.153 -0.2568 -0.3582 -0.4358
24306SOL    HW282849   9.685   3.085   2.004  0.7191 -0.5754 -0.5102
24307SOL     OW82850  12.230  10.872   6.911 -0.0266 -0.4388  0.3734
24307SOL    HW182851  12.287  10.871   6.835  1.2682 -1.9586  1.2901
24307SOL    HW282852  12.155  10.924   6.884  0.9395  0.0774 -1.5105
24308SOL     OW82853   6.189   7.055  10.336  0.0947 -0.0079  0.2235
24308SOL    HW182854   6.147   7.122  10.283 -1.3262 -0.3051  0.9177
24308SOL    HW282855   6.184   6.976  10.282  0.5389  0.1366 -0.0364
24309SOL     OW82856   8.814   5.912   4.442  0.7395 -0.0717 -0.8950
24309SOL    HW182857   8.783   5.822   4.429  0.4017 -0.1962  0.5416
24309SOL    HW282858   8.783   5.960   4.366 -1.3205 -0.6248 -0.4543
24310SOL     OW82859   9.433  11.518  12.879  0.3662  0.0720  0.1930
24310SOL    HW182860   9.398  11.520  12.790 -2.4388 -1.7081  1.1209
24310SOL    HW282861   9.362  11.550  12.934  2.3374  2.0121  1.8223
24311SOL     OW82862   0.975   6.540   2.721  0.2556  0.0232 -0.0802
24311SOL    HW182863   1.058   6.492   2.721 -0.4758 -1.3037 -0.6569
24311SOL    HW282864   0.980   6.597   2.644  0.4539 -0.3914 -0.3785
24312SOL     OW82865  12.876   3.251   4.530 -0.3028 -0.2435  0.0770
24312SOL    HW182866  12.830   3.312   4.472  1.6335  0.4974 -0.7775
24312SOL    HW282867  12.904   3.305   4.604  3.8955  0.8633 -1.9723
24313SOL     OW82868   8.737   0.323   6.438 -0.1794  0.2396  0.3979
24313SOL    HW182869   8.667   0.330   6.373 -0.7376  0.6933  1.0313
24313SOL    HW282870   8.798   0.393   6.415 -0.6554  0.7586  0.6809
24314SOL     OW82871   6.947  10.688   5.586  0.4900  0.1042 -0.2318
24314SOL    HW182872   6.999  10.615   5.553 -0.7622 -2.0622  2.2641
24314SOL    HW282873   6.995  10.718   5.664 -1.0424 -0.8383  1.1290
24315SOL     OW82874   6.088  10.133   0.651  0.6112 -0.8314 -0.5443
24315SOL    HW182875   6.021  10.065   0.656  0.5706 -0.9635 -2.2920
24315SOL    HW282876   6.165  10.095   0.692 -0.3751 -0.6186  1.6596
24316SOL     OW82877  12.009   8.695   8.169 -0.1709 -0.4181 -0.1740
24316SOL    HW182878  12.090   8.747   8.175  0.1156 -0.8036 -0.6026
24316SOL    HW282879  11.941   8.753   8.203  0.1059  0.3284 -0.8526
24317SOL     OW82880  11.116  13.081   1.701 -0.3505 -0.1520  0.8743
24317SOL    HW182881  11.200  13.126   1.699 -0.1861 -0.3768 -2.1052
24317SOL    HW282882  11.133  13.000   1.749  1.4668 -0.7048 -0.5980
24318SOL     OW82883  11.498   8.265   8.468 -0.1924  0.4814  0.4592
24318SOL    HW182884  11.507   8.290   8.560  1.4517 -1.2171  0.8295
24318SOL    HW282885  11.573   8.209   8.451 -0.1964  1.1376 -2.0943
24319SOL     OW82886  11.267   2.348   6.529 -0.7568  0.2624  1.0166
24319SOL    HW182887  11.230   2.265   6.498 -0.8093  1.0621 -1.1993
24319SOL    HW282888  11.197   2.389   6.580 -1.3246 -0.2581  0.6549
24320SOL     OW82889   1.416   2.408   6.937  0.0712 -0.3392 -0.2427
24320SOL    HW182890   1.369   2.398   6.854 -0.9383  0.1218  0.2620
24320SOL    HW282891   1.508   2.416   6.911 -0.1151 -1.2259 -1.2473
24321SOL     OW82892   2.712   6.025  11.798  0.0469 -0.4075  0.3318
24321SOL    HW182893   2.629   5.989  11.765  0.0724 -0.8984  0.7876
24321SOL    HW282894   2.770   6.025  11.722 -1.6904  4.4381 -1.3754
24322SOL     OW82895   7.390   0.986   5.058 -0.1694 -0.5512  0.1761
24322SOL    HW182896   7.437   0.920   5.007  1.7391 -0.5618  1.8212
24322SOL    HW282897   7.415   0.968   5.149 -1.6478  0.8583  0.9066
24323SOL     OW82898   3.674   1.064   9.902  0.5773 -0.3322 -0.6372
24323SOL    HW182899   3.616   0.989   9.915  1.5647 -1.2919 -1.6270
24323SOL    HW282900   3.650   1.098   9.816  0.3233  0.3339 -0.3120
24324SOL     OW82901  10.249   6.120   8.391  0.2737 -0.0957 -0.0185
24324SOL    HW182902  10.306   6.043   8.385  0.8950  0.3478  0.0912
24324SOL    HW282903  10.295   6.179   8.450  1.0889  1.4330 -2.0659
24325SOL     OW82904   2.461   7.733   6.194 -0.2521  0.3439 -0.2717
24325SOL    HW182905   2.496   7.664   6.137 -0.3158 -0.4893  0.6739
24325SOL    HW282906   2.401   7.781   6.137  0.2567  0.0076 -1.1216
24326SOL     OW82907   6.725   6.149   8.948 -0.0769  0.0675 -0.2022
24326SOL    HW182908   6.645   6.189   8.982  0.6172  0.1649  1.3910
24326SOL    HW282909   6.762   6.215   8.889  0.3937  1.2894  1.4118
24327SOL     OW82910   4.278   1.610   6.664  0.0219 -0.2043 -0.0489
24327SOL    HW182911   4.362   1.568   6.645 -0.3024 -0.7779 -0.2262
24327SOL    HW282912   4.231   1.608   6.581 -0.3036 -0.2021  0.1345
24328SOL     OW82913   0.625   8.715   7.543 -0.0081 -0.6003 -0.0266
24328SOL    HW182914   0.645   8.748   7.630 -0.0950  0.9283 -0.5673
24328SOL    HW282915   0.709   8.680   7.511  0.8322  1.6839 -0.5205
24329SOL     OW82916   7.952  10.630  11.650  0.0648 -0.4096  0.5417
24329SOL    HW182917   8.013  10.693  11.612  0.8442 -1.5686 -0.2057
24329SOL    HW282918   7.906  10.593  11.575 -0.4614 -0.6500  0.9809
24330SOL     OW82919   7.973   1.064  11.654  0.1983 -0.0741  0.5791
24330SOL    HW182920   8.050   1.013  11.678  1.3189  1.4281  0.3325
24330SOL    HW282921   7.978   1.142  11.709 -0.1951  0.8458 -0.6549
24331SOL     OW82922  11.426   5.021   3.498 -0.1805 -0.4723  0.3050
24331SOL    HW182923  11.358   4.954   3.508  0.2239 -0.7127  1.7344
24331SOL    HW282924  11.416   5.052   3.408 -1.5537 -1.1783  0.1776
24332SOL     OW82925  10.549   2.315   7.500 -0.2801 -0.1387  0.4893
24332SOL    HW182926  10.563   2.326   7.405 -1.2316 -0.2089  0.3351
24332SOL    HW282927  10.624   2.360   7.540  0.2371 -0.2745 -0.2961
24333SOL     OW82928   0.166  11.459  10.801  0.1221 -0.1654  0.4076
24333SOL    HW182929   0.209  11.456  10.887 -1.2394  0.6016  1.1303
24333SOL    HW282930   0.097  11.393  10.807 -1.6415  1.6374  0.8569
24334SOL     OW82931   8.059   4.538  11.442 -0.0873  0.2781  0.0786
24334SOL    HW182932   8.082   4.597  11.514  1.2323 -0.9256  0.6867
24334SOL    HW282933   8.144   4.511  11.406 -0.7069 -0.2618 -0.9994
24335SOL     OW82934  11.362  12.536  12.881  0.4835 -0.3786  0.6424
24335SOL    HW182935  11.316  12.555  12.963  1.2520 -1.1967  1.2846
24335SOL    HW282936  11.299  12.556  12.812 -1.0848 -2.0617  1.5021
24336SOL     OW82937   6.518   9.923  12.714 -0.3079 -0.5933  0.4323
24336SOL    HW182938   6.597   9.972  12.691 -0.9945 -0.0107 -0.7808
24336SOL    HW282939   6.550   9.836  12.738  0.6061 -0.7780 -1.3040
24337SOL     OW82940   4.442  10.630   1.363  0.6096 -0.1998  0.2238
24337SOL    HW182941   4.365  10.609   1.309  0.5474  2.1471 -0.7211
24337SOL    HW282942   4.503  10.671   1.302  1.7952 -0.1957  1.3751
24338SOL     OW82943  11.579   5.176   0.587 -0.3086  0.8066 -0.7850
24338SOL    HW182944  11.647   5.204   0.526  1.1474 -1.1018 -0.1309
24338SOL    HW282945  11.618   5.104   0.635 -2.1262  0.9411  1.0266
24339SOL     OW82946   9.057  10.031   1.218  0.1293 -0.0384 -0.1213
24339SOL    HW182947   9.005   9.995   1.146  0.6062  0.0997 -0.5385
24339SOL    HW282948   9.147  10.015   1.193  0.3321  0.8426  0.0009
24340SOL     OW82949  11.341   9.151  11.336  0.2490 -0.1544  0.5828
24340SOL    HW182950  11.406   9.204  11.290  0.5163 -1.3481 -0.4911
24340SOL    HW282951  11.373   9.147  11.426  2.3956 -1.6795 -0.1412
24341SOL     OW82952   1.287   9.582  13.195 -0.0244  0.6196  0.0658
24341SOL    HW182953   1.365   9.536  13.164  1.3749  1.3163  2.3555
24341SOL    HW282954   1.247   9.523  13.259 -1.9063 -0.0658 -1.6253
24342SOL     OW82955   7.989   2.334   7.231  0.5781  0.0545 -0.0191
24342SOL    HW182956   8.011   2.362   7.320 -0.5217 -1.7147  0.8490
24342SOL    HW282957   8.030   2.248   7.222  1.8053  0.7503 -1.7510
24343SOL     OW82958   1.945   2.601   0.308  0.2893 -0.0119 -0.5059
24343SOL    HW182959   2.007   2.529   0.312  0.9357  0.3915 -2.1746
24343SOL    HW282960   1.895   2.585   0.228 -0.0160  1.0234 -0.5391
24344SOL     OW82961   1.862   9.530   2.517  0.7481 -0.3402  0.2812
24344SOL    HW182962   1.822   9.456   2.471  1.5437  0.0305 -1.0623
24344SOL    HW282963   1.956   9.519   2.503  0.8536  1.2432 -0.5030
24345SOL     OW82964   3.087   6.125   4.241  0.1923  0.0466  0.0300
24345SOL    HW182965   3.168   6.156   4.202  0.6030 -0.4560  0.4691
24345SOL    HW282966   3.111   6.043   4.285 -0.5215 -0.0396  0.2733
24346SOL     OW82967   4.291   9.251  12.255  0.0212  0.0843  0.0453
24346SOL    HW182968   4.313   9.158  12.268 -1.2558 -0.4579 -1.3980
24346SOL    HW282969   4.335   9.275  12.174  2.4663  1.5417  1.6796
24347SOL     OW82970   0.057   5.123   3.210 -0.3575 -0.0865  0.3280
24347SOL    HW182971  -0.028   5.104   3.170 -0.9628 -0.3859  1.7022
24347SOL    HW282972   0.052   5.083   3.297  1.9792 -2.0419 -0.3038
24348SOL     OW82973   4.413   0.520   7.090 -0.0798 -0.4826  0.2591
24348SOL    HW182974   4.407   0.558   7.178 -2.5286  0.0222 -0.0345
24348SOL    HW282975   4.355   0.574   7.037  1.1704 -0.9186 -1.6530
24349SOL     OW82976  12.586   1.522   6.271  0.3969  0.0874 -0.5732
24349SOL    HW182977  12.669   1.481   6.248  0.4286  0.0384 -0.3686
24349SOL    HW282978  12.530   1.506   6.195  0.4295 -0.2787 -0.5237
24350SOL     OW82979   5.197   6.535   2.481  0.1662 -0.5602  0.5047
24350SOL    HW182980   5.250   6.455   2.485  2.3568  0.8358  1.3909
24350SOL    HW282981   5.219   6.574   2.396  1.3952  0.4987  1.2632
24351SOL     OW82982   7.542   8.524   7.762  0.1491  0.3595  0.1760
24351SOL    HW182983   7.574   8.563   7.681 -1.4074  1.0155 -0.1646
24351SOL    HW282984   7.618   8.479   7.799  0.6852 -0.7876 -2.1281
24352SOL     OW82985   8.203   7.140  10.031  0.2881  0.1296 -0.1558
24352SOL    HW182986   8.173   7.066  10.084  0.1540 -0.0890 -0.5323
24352SOL    HW282987   8.267   7.185  10.086  0.2859 -0.2026  0.1195
24353SOL     OW82988   7.555   8.797   1.306 -0.1170  0.3118  0.1237
24353SOL    HW182989   7.646   8.816   1.332 -0.1187  1.3577 -0.5732
24353SOL    HW282990   7.507   8.877   1.327 -0.8931 -0.2355  0.4854
24354SOL     OW82991   1.586   9.837  10.230 -0.5657 -0.8340  0.5141
24354SOL    HW182992   1.521   9.788  10.280 -0.2181 -2.0372 -0.1818
24354SOL    HW282993   1.667   9.826  10.279 -0.8046  0.4767  1.2576
24355SOL     OW82994   0.915   9.396   8.935  0.0137 -0.2168  0.6701
24355SOL    HW182995   0.832   9.350   8.949  0.0115 -0.2560  0.5268
24355SOL    HW282996   0.982   9.329   8.946  0.0529 -0.0878  1.2625
24356SOL     OW82997   4.636   8.363  11.684  0.4106 -0.2267  0.5841
24356SOL    HW182998   4.689   8.400  11.613  0.5126 -1.0513  0.2180
24356SOL    HW282999   4.646   8.268  11.674  1.0410 -0.3566  2.1642
24357SOL     OW83000   4.502   3.892  13.181  0.5468 -0.0615  0.5303
24357SOL    HW183001   4.453   3.974  13.181  1.9681  0.8030 -0.1139
24357SOL    HW283002   4.436   3.826  13.203 -1.6894  0.6338 -3.1397
24358SOL     OW83003  11.783   2.944   5.851 -0.2040 -0.1937  0.3292
24358SOL    HW183004  11.830   2.964   5.932  1.5039 -0.7782 -0.4552
24358SOL    HW283005  11.843   2.887   5.802 -2.1204 -1.7125 -0.3748
24359SOL     OW83006   3.152   0.262   2.986 -0.1153 -0.0833  0.0995
24359SOL    HW183007   3.153   0.288   3.078  1.3042 -0.1654  0.1297
24359SOL    HW283008   3.219   0.194   2.980  2.3289  2.3229 -1.6632
24360SOL     OW83009  13.262   9.700   0.150 -0.4582 -0.5357 -0.2105
24360SOL    HW183010  13.178   9.744   0.138  0.0656  0.6491  0.3038
24360SOL    HW283011  13.239   9.609   0.168 -1.5364 -0.7388 -2.3325
24361SOL     OW83012   1.634   4.675  12.426  0.4890 -0.0802 -0.0803
24361SOL    HW183013   1.684   4.731  12.485  1.1713 -0.5309 -0.2121
24361SOL    HW283014   1.623   4.726  12.346  0.2193  0.2446  0.1629
24362SOL     OW83015   9.403  12.894   1.734 -0.2198  0.0232 -0.3615
24362SOL    HW183016   9.428  12.926   1.821 -1.7028 -0.7652  0.3997
24362SOL    HW283017   9.349  12.965   1.698 -1.6794 -0.6416  0.4229
24363SOL     OW83018   2.021   9.724   7.911  0.1464 -0.6190 -0.2086
24363SOL    HW183019   2.016   9.727   8.007 -0.0318  1.9713 -0.2478
24363SOL    HW283020   2.090   9.659   7.894  2.3303  0.9785  1.8064
24364SOL     OW83021   0.006  11.589   4.344  0.0510  0.6612  0.3585
24364SOL    HW183022   0.070  11.615   4.278 -0.3185 -0.3832 -0.4406
24364SOL    HW283023  -0.066  11.651   4.334 -0.3386  0.0534 -0.7634
24365SOL     OW83024   2.895   6.441   5.438 -0.1803 -0.3421  0.2288
24365SOL    HW183025   2.833   6.436   5.510 -2.2566  3.2434 -1.0669
24365SOL    HW283026   2.978   6.465   5.479 -0.6187 -1.0526  1.5939
24366SOL     OW83027   2.187   8.196   2.955  0.0127  0.9704 -0.2997
24366SOL    HW183028   2.150   8.252   3.024  1.3849  0.4925  0.8801
24366SOL    HW283029   2.274   8.232   2.939  1.3398 -1.2968  1.1951
24367SOL     OW83030  13.076  10.192   7.573 -0.8231  0.4837  0.2209
24367SOL    HW183031  13.166  10.175   7.599 -0.3198 -0.9223 -2.1391
24367SOL    HW283032  13.024  10.130   7.624 -0.2168 -0.1777  0.0542
24368SOL     OW83033   4.120  12.516   5.760 -0.9788  0.1552  0.0684
24368SOL    HW183034   4.068  12.575   5.705  0.1416  1.1239  0.0082
24368SOL    HW283035   4.057  12.475   5.819 -2.0229  0.0599 -1.0862
24369SOL     OW83036  10.813  12.735   5.284  0.2561 -0.2049 -0.4369
24369SOL    HW183037  10.866  12.797   5.333 -1.0585  0.5807  0.0353
24369SOL    HW283038  10.783  12.783   5.207  1.3738 -1.0860 -1.4603
24370SOL     OW83039   1.897   2.980   0.805  0.5597 -0.0486  0.1768
24370SOL    HW183040   1.955   2.984   0.729 -0.0929  0.2002 -0.3175
24370SOL    HW283041   1.852   2.897   0.797  0.7565 -0.1857  0.4930
24371SOL     OW83042   2.156  11.973   3.709  0.2741 -0.0736 -0.0609
24371SOL    HW183043   2.174  12.064   3.686 -2.3608  0.2787 -1.1043
24371SOL    HW283044   2.104  11.940   3.636 -0.8899 -1.6499  1.4104
24372SOL     OW83045   8.643  11.771   4.357 -0.3986  0.1268 -0.4098
24372SOL    HW183046   8.734  11.762   4.384 -1.1909 -0.6974  2.3067
24372SOL    HW283047   8.646  11.836   4.286  2.3212 -0.3513 -0.8568
24373SOL     OW83048   7.362  12.857   7.423  0.6051  0.0238  0.5905
24373SOL    HW183049   7.360  12.936   7.478  1.3334  0.6387 -0.2309
24373SOL    HW283050   7.332  12.787   7.480  0.9483  0.7166  1.6414
24374SOL     OW83051   1.898   8.766   4.373 -0.2541 -0.1439  0.5628
24374SOL    HW183052   1.964   8.712   4.331 -0.8513  0.4412 -1.2088
24374SOL    HW283053   1.947   8.837   4.414  0.2218  0.4867 -1.0412
24375SOL     OW83054   7.155   5.032   0.501  0.3916  0.1612 -0.0262
24375SOL    HW183055   7.100   5.099   0.541  1.2645 -0.5911  2.6262
24375SOL    HW283056   7.244   5.068   0.506  0.6091 -0.2945 -0.5731
24376SOL     OW83057   1.430   8.724  10.929  0.2193 -0.0730 -0.5647
24376SOL    HW183058   1.388   8.787  10.872  0.7685  0.9930  0.1810
24376SOL    HW283059   1.393   8.639  10.903 -1.0344  0.6249 -1.1128
24377SOL     OW83060   1.930   4.254  13.054 -1.0908 -0.0316  0.2796
24377SOL    HW183061   1.878   4.271  13.133 -1.0266 -0.8257  0.5082
24377SOL    HW283062   1.874   4.198  13.000 -1.6831  1.6032 -0.8806
24378SOL     OW83063   9.035   9.265  12.854 -0.7076  0.6418  0.1737
24378SOL    HW183064   9.015   9.279  12.947 -1.9601  0.0255  0.0156
24378SOL    HW283065   9.004   9.176  12.837  0.5860  0.3110 -0.5598
24379SOL     OW83066   9.029   5.405  10.519 -0.4526 -0.6015 -0.8155
24379SOL    HW183067   9.123   5.416  10.505 -0.3614 -0.0463  0.1449
24379SOL    HW283068   9.022   5.328  10.575 -0.5986 -0.8440 -1.1620
24380SOL     OW83069   8.865   3.291   0.368 -0.4306 -0.0526  0.1694
24380SOL    HW183070   8.847   3.366   0.311 -1.3375  0.4521  1.0828
24380SOL    HW283071   8.796   3.228   0.347  0.7523 -0.9925 -1.1268
24381SOL     OW83072   3.323   4.260   0.374  0.5451 -0.1306  0.2067
24381SOL    HW183073   3.323   4.204   0.452  0.8479  0.4509  0.6319
24381SOL    HW283074   3.371   4.338   0.401 -0.5982  0.7079 -0.1020
24382SOL     OW83075  11.490  10.452  10.471 -0.3488 -0.2845  0.3672
24382SOL    HW183076  11.452  10.368  10.442 -0.6661 -0.6058  1.6367
24382SOL    HW283077  11.582  10.447  10.445 -0.5442 -0.6656 -0.2996
24383SOL     OW83078   7.402   9.224  10.384  0.0500  0.0017  0.4688
24383SOL    HW183079   7.417   9.135  10.417  0.3608  0.3828  1.3859
24383SOL    HW283080   7.307   9.230  10.373 -0.1826  0.1878  2.3033
24384SOL     OW83081  12.559   3.168   5.852  0.2023  0.3680 -0.2339
24384SOL    HW183082  12.469   3.174   5.885 -0.1099  2.0461 -1.2529
24384SOL    HW283083  12.566   3.080   5.815 -0.7491 -0.0721  0.5995
24385SOL     OW83084  13.055  11.757   7.073  0.8753  0.3254 -0.2789
24385SOL    HW183085  13.113  11.738   7.000 -1.9458 -0.5957 -2.4372
24385SOL    HW283086  13.050  11.853   7.075  1.6234  0.3789 -0.7326
24386SOL     OW83087   0.376   7.934   9.954  0.5290 -0.3710 -0.3801
24386SOL    HW183088   0.436   7.867   9.988  0.2546 -0.9162 -0.9371
24386SOL    HW283089   0.304   7.937  10.017 -0.2976 -1.8402 -1.1820
24387SOL     OW83090   1.195   1.849  11.705  0.3914 -0.6512  0.1388
24387SOL    HW183091   1.185   1.933  11.751  2.4287  0.0015 -0.4916
24387SOL    HW283092   1.139   1.859  11.627  0.4121  0.0374  0.1991
24388SOL     OW83093   5.727   9.663   6.352  0.2901 -0.3496 -0.2280
24388SOL    HW183094   5.639   9.688   6.325  0.4948 -0.1200 -0.6947
24388SOL    HW283095   5.764   9.742   6.390  0.4321 -0.3349 -0.3951
24389SOL     OW83096   1.303  12.853   3.194 -0.5257  0.1682 -0.3750
24389SOL    HW183097   1.374  12.799   3.159 -1.3152 -1.4329  0.3974
24389SOL    HW283098   1.303  12.931   3.139  2.6951  0.8936  0.4015
24390SOL     OW83099   6.358   5.253  12.221 -0.1841  0.1889  0.7842
24390SOL    HW183100   6.435   5.285  12.268  0.7507 -0.8162 -0.0176
24390SOL    HW283101   6.288   5.314  12.246  1.4640  2.8917 -0.6493
24391SOL     OW83102  13.080  11.742   9.365 -0.6472  0.1048 -0.2339
24391SOL    HW183103  13.004  11.790   9.400 -1.0768 -2.0469  1.9841
24391SOL    HW283104  13.155  11.782   9.408 -0.5789  1.4098 -1.4896
24392SOL     OW83105  13.032   0.682   0.912  0.7506 -0.2845  0.7580
24392SOL    HW183106  12.946   0.647   0.933  0.3201  0.9068  1.0223
24392SOL    HW283107  13.060   0.728   0.991  0.2527  1.9837 -0.3168
24393SOL     OW83108   0.543   6.306   3.965  0.1182  0.2707 -0.4479
24393SOL    HW183109   0.612   6.368   3.940  0.6780 -0.1059  0.1351
24393SOL    HW283110   0.469   6.361   3.992  1.2194  0.7599  1.8176
24394SOL     OW83111   0.905   3.974   6.326  0.0527  0.4258 -0.4303
24394SOL    HW183112   0.870   3.979   6.415  0.0780 -1.1737 -0.3136
24394SOL    HW283113   0.839   3.925   6.277  1.3542 -1.2311 -0.5836
24395SOL     OW83114  12.008   9.887  11.581  0.8081 -0.9107 -0.2178
24395SOL    HW183115  12.097   9.922  11.570  1.5898 -3.0015 -1.0851
24395SOL    HW283116  11.952   9.948  11.533  1.7145  0.5705  0.5281
24396SOL     OW83117   8.056   4.263   1.973 -0.4727  0.2577 -0.4122
24396SOL    HW183118   8.071   4.215   2.055 -1.0627  0.4218 -0.2034
24396SOL    HW283119   8.134   4.246   1.921  0.1107  0.5190  0.3643
24397SOL     OW83120   0.642  13.120  10.446 -0.4388 -0.0060 -0.5429
24397SOL    HW183121   0.651  13.029  10.420 -1.3631  0.0067 -0.9480
24397SOL    HW283122   0.705  13.131  10.517 -1.0030 -1.2281  0.1825
24398SOL     OW83123   3.824   2.016   3.929  0.1556 -0.4450  0.3947
24398SOL    HW183124   3.808   2.007   4.023 -3.8711 -2.2852 -0.2704
24398SOL    HW283125   3.822   1.927   3.895 -2.0317  0.3006 -1.7736
24399SOL     OW83126   3.120   3.530   1.989 -0.5697 -0.2554 -0.1714
24399SOL    HW183127   3.100   3.624   1.989 -1.9193 -0.4893 -1.5471
24399SOL    HW283128   3.047   3.490   2.037  0.1326 -0.5888  0.6302
24400SOL     OW83129   3.641  13.277  10.420 -0.2260  0.6162 -0.6877
24400SOL    HW183130   3.707  13.341  10.447  1.1171 -0.5588 -1.0754
24400SOL    HW283131   3.655  13.203  10.478 -1.0701  0.2651 -0.9247
24401SOL     OW83132  13.195   8.696  10.537  0.1956  0.4372 -0.2272
24401SOL    HW183133  13.260   8.666  10.600 -0.6045  0.6439  0.7311
24401SOL    HW283134  13.111   8.675  10.578 -0.3539  1.5198 -0.7686
24402SOL     OW83135  11.615   3.583   6.046 -0.2958  0.4906 -0.0113
24402SOL    HW183136  11.658   3.666   6.027  0.9670  0.2594  1.6299
24402SOL    HW283137  11.658   3.551   6.125  0.3302 -2.4712 -1.4150
24403SOL     OW83138   1.156   3.589  10.371 -0.1943 -0.3044  1.0516
24403SOL    HW183139   1.249   3.576  10.388  0.3552  0.8176 -0.8253
24403SOL    HW283140   1.132   3.665  10.423 -0.3116 -1.0875  2.1891
24404SOL     OW83141   1.648   8.321   2.024  0.3754 -0.0703  0.1867
24404SOL    HW183142   1.704   8.343   2.098 -1.3783  1.0942  1.2449
24404SOL    HW283143   1.684   8.239   1.991 -0.1343 -1.9844  3.8368
24405SOL     OW83144   7.971   7.360  10.041  0.0330  0.3720 -0.0717
24405SOL    HW183145   7.892   7.329   9.997 -0.0368  1.5896 -0.8309
24405SOL    HW283146   8.040   7.301  10.011 -0.0420  1.0852 -1.7344
24406SOL     OW83147   5.254  10.947   5.178 -0.1657 -0.1393 -0.3061
24406SOL    HW183148   5.300  10.863   5.177 -2.0334 -1.2318 -1.4193
24406SOL    HW283149   5.324  11.013   5.179  1.3805 -1.6903 -0.7653
24407SOL     OW83150  11.651   8.966   0.931 -0.2139 -0.3155 -0.4312
24407SOL    HW183151  11.679   9.020   1.006 -1.0059 -0.0505 -0.3209
24407SOL    HW283152  11.719   8.981   0.865 -0.4533  0.8957 -0.4305
24408SOL     OW83153   1.173   1.460  11.684  0.0235  0.0565  0.1716
24408SOL    HW183154   1.256   1.507  11.689  1.4345 -2.2027 -0.3776
24408SOL    HW283155   1.118   1.499  11.752  0.8114  2.8450 -0.6722
24409SOL     OW83156   2.220   2.219   1.516 -0.1516 -0.4639 -0.5361
24409SOL    HW183157   2.142   2.251   1.560  0.3217 -0.0601  0.0218
24409SOL    HW283158   2.189   2.145   1.463 -0.8788 -0.4055 -0.2046
24410SOL     OW83159  11.339   1.200  13.169  0.2090 -0.6082  0.1341
24410SOL    HW183160  11.370   1.278  13.124  0.5361 -1.3647 -0.9777
24410SOL    HW283161  11.417   1.162  13.209 -0.1163  0.2106  1.6475
24411SOL     OW83162   9.477   4.187   1.233 -0.4592  0.9155 -0.1863
24411SOL    HW183163   9.478   4.280   1.212  1.8636  0.7062 -1.3216
24411SOL    HW283164   9.391   4.172   1.272 -1.0148  3.4487 -0.2732
24412SOL     OW83165   6.838   7.118  11.595 -0.0680  0.0139  0.5627
24412SOL    HW183166   6.823   7.138  11.688 -0.4314 -1.4341  0.8451
24412SOL    HW283167   6.931   7.098  11.589 -0.4868 -2.3679  1.1600
24413SOL     OW83168   5.855   0.469   3.721 -0.1789  0.3366  0.6484
24413SOL    HW183169   5.817   0.431   3.800 -1.6149  0.6284  0.1180
24413SOL    HW283170   5.905   0.544   3.753 -1.6181  1.0944  1.1948
24414SOL     OW83171  12.163   1.487   6.190 -0.4019 -0.7017  0.0728
24414SOL    HW183172  12.207   1.507   6.273 -0.1130 -2.6461  0.4358
24414SOL    HW283173  12.235   1.482   6.126 -0.3643 -1.4196  0.1661
24415SOL     OW83174   3.447   4.948   9.094  0.0754 -0.2870  0.0032
24415SOL    HW183175   3.524   4.975   9.045 -0.4247  1.3885  0.0531
24415SOL    HW283176   3.464   4.857   9.119  1.8746 -0.0505 -0.2462
24416SOL     OW83177   8.756   8.570   6.027 -0.1363  0.2060 -0.1557
24416SOL    HW183178   8.767   8.533   5.940  1.0836  0.9586 -0.3359
24416SOL    HW283179   8.722   8.497   6.080 -1.3713 -0.1257 -1.3485
24417SOL     OW83180   5.756   1.381  11.734  0.4491 -0.1676 -0.2537
24417SOL    HW183181   5.816   1.340  11.672  1.8952 -0.7035  1.4181
24417SOL    HW283182   5.738   1.313  11.798 -1.4636  0.1997 -0.3571
24418SOL     OW83183   8.251  10.343   2.285  0.6327  0.1887 -0.0922
24418SOL    HW183184   8.159  10.361   2.305  0.1539  0.3028 -2.1597
24418SOL    HW283185   8.272  10.265   2.336 -1.7041 -1.9780 -2.1494
24419SOL     OW83186  10.193   3.199   8.795 -0.4012  0.1387  0.2161
24419SOL    HW183187  10.160   3.178   8.882  0.6194 -0.5136  0.4643
24419SOL    HW283188  10.149   3.280   8.771 -0.3067  0.5988  1.5514
24420SOL     OW83189   1.377   7.890   2.990  0.0079 -0.6524 -0.0104
24420SOL    HW183190   1.450   7.916   3.046  0.1354 -1.2320  0.0959
24420SOL    HW283191   1.339   7.815   3.034 -0.0555 -0.9490 -0.5651
24421SOL     OW83192   1.957   4.528  11.329 -0.2154  0.3802 -0.0455
24421SOL    HW183193   1.986   4.541  11.239 -1.6790 -0.1080 -0.6060
24421SOL    HW283194   1.962   4.616  11.368  0.8683  0.5123 -0.4367
24422SOL     OW83195  12.021   3.940  10.914 -0.7267 -0.4720 -0.3093
24422SOL    HW183196  12.001   3.908  11.002 -0.9478 -1.5442 -0.7306
24422SOL    HW283197  11.944   3.992  10.890 -0.8761 -0.5700 -0.0481
24423SOL     OW83198   0.673   1.012   4.330 -0.0183  0.2107  0.1577
24423SOL    HW183199   0.603   0.950   4.351  0.0804  0.1593  0.3379
24423SOL    HW283200   0.649   1.047   4.244 -2.3047  2.9604  1.7206
24424SOL     OW83201   5.802   9.678   1.123 -0.2332 -0.3945  0.4585
24424SOL    HW183202   5.805   9.585   1.104 -1.7390 -0.7305  1.6911
24424SOL    HW283203   5.894   9.705   1.127  0.2092 -1.4891 -1.3074
24425SOL     OW83204   5.165   1.529   1.640 -0.3274 -0.1830  0.2047
24425SOL    HW183205   5.150   1.493   1.727  0.2254  0.4353  0.5664
24425SOL    HW283206   5.225   1.602   1.654  0.5581 -0.6922 -0.8211
24426SOL     OW83207   0.002   0.194   9.087 -0.7066  0.0909 -0.0248
24426SOL    HW183208   0.078   0.160   9.040 -1.4465 -0.3861 -0.9082
24426SOL    HW283209  -0.005   0.285   9.059 -0.2429  0.2458  0.3533
24427SOL     OW83210  11.921   8.955  12.320 -0.3721 -0.7482 -0.4443
24427SOL    HW183211  11.886   9.040  12.295 -0.5497 -1.0375 -1.2173
24427SOL    HW283212  12.014   8.960  12.300 -0.2675 -0.5176  0.1110
24428SOL     OW83213   1.314   7.652  11.302 -0.1473  0.2687 -1.1916
24428SOL    HW183214   1.265   7.594  11.360 -1.8095  0.1901 -2.5907
24428SOL    HW283215   1.358   7.593  11.240 -2.5536  0.3708 -3.1799
24429SOL     OW83216   3.636   5.813   5.139 -0.7221 -0.0274  0.5715
24429SOL    HW183217   3.555   5.778   5.103 -2.0422  0.5607  2.7531
24429SOL    HW283218   3.639   5.903   5.108 -0.5229 -0.2549 -0.0824
24430SOL     OW83219   2.450   8.047  10.801  0.3587  0.1759 -0.5646
24430SOL    HW183220   2.504   8.082  10.872 -0.8500  0.9627 -0.0123
24430SOL    HW283221   2.491   8.082  10.721  1.2377 -0.0441 -0.2165
24431SOL     OW83222   5.385  12.389  11.521  0.7067  0.0129  0.3552
24431SOL    HW183223   5.395  12.394  11.426 -1.2584  0.6363  0.1439
24431SOL    HW283224   5.382  12.296  11.540 -0.1697 -0.1206 -0.3621
24432SOL     OW83225  13.084  12.899   5.527  0.3730  0.2948  0.5101
24432SOL    HW183226  12.996  12.867   5.550  0.1806  0.3896 -0.0575
24432SOL    HW283227  13.117  12.938   5.607  0.2372 -0.4988  0.9655
24433SOL     OW83228  11.540   8.798   7.163 -0.2116  0.1387  0.7325
24433SOL    HW183229  11.613   8.810   7.102 -0.4510 -0.9223  0.2198
24433SOL    HW283230  11.484   8.732   7.122 -1.2583  0.6359  1.3117
24434SOL     OW83231   9.036   3.588   8.319 -0.1837  0.2756 -0.0894
24434SOL    HW183232   8.958   3.584   8.374  0.9927 -0.4545  1.6319
24434SOL    HW283233   9.075   3.673   8.339  0.4248 -0.1298  0.5101
24435SOL     OW83234   2.168  13.040  11.489 -0.3766  0.3522 -0.1003
24435SOL    HW183235   2.142  13.131  11.478 -0.6647  0.1971 -0.8175
24435SOL    HW283236   2.095  12.989  11.452 -0.8689 -0.2201  1.5997
24436SOL     OW83237   7.136   4.133   0.663  0.5892 -0.3888  0.0185
24436SOL    HW183238   7.200   4.170   0.603  0.2872 -0.5186 -0.3846
24436SOL    HW283239   7.169   4.046   0.684  1.2840  0.0734  0.9417
24437SOL     OW83240   4.213   3.869   9.188 -0.4355  0.4522 -0.1775
24437SOL    HW183241   4.224   3.933   9.117 -2.0386  2.6966  1.4652
24437SOL    HW283242   4.130   3.827   9.169 -0.9174  1.1301  0.3817
24438SOL     OW83243   3.520  12.815   9.240 -0.7465  0.3262 -0.0839
24438SOL    HW183244   3.450  12.751   9.223  0.0841 -1.2893  2.0923
24438SOL    HW283245   3.600  12.763   9.243  0.2414  1.7834 -0.1351
24439SOL     OW83246  13.311  13.169   8.306  0.3494  0.4597  0.4474
24439SOL    HW183247  13.218  13.169   8.283  0.1653 -0.9067  1.1252
24439SOL    HW283248  13.334  13.076   8.314  1.6724  0.7904  0.7125
24440SOL     OW83249   9.504   4.443  11.063 -0.3389 -0.1266 -0.3182
24440SOL    HW183250   9.524   4.440  11.157  0.8141 -2.5813 -0.5523
24440SOL    HW283251   9.414   4.410  11.057 -0.8105  1.0715 -0.0174
24441SOL     OW83252   2.125   2.154   6.204  1.2114 -0.1308  0.5259
24441SOL    HW183253   2.165   2.083   6.255 -0.5476  0.0221  2.2264
24441SOL    HW283254   2.049   2.180   6.255  0.4937  1.4286 -1.2351
24442SOL     OW83255   7.321  10.147   5.243  0.7879  0.2099 -0.7893
24442SOL    HW183256   7.240  10.105   5.272  0.7560  0.2978 -0.7526
24442SOL    HW283257   7.294  10.207   5.174  0.8654 -0.0124 -1.0179
24443SOL     OW83258   9.396  10.821   6.847 -0.2728  0.1450 -0.1403
24443SOL    HW183259   9.368  10.906   6.880  0.6408  0.1089  0.7513
24443SOL    HW283260   9.425  10.838   6.757  2.3823  1.3215  0.8478
24444SOL     OW83261  10.629   9.154   0.050 -0.4840 -0.1430  0.2716
24444SOL    HW183262  10.562   9.195  -0.005 -0.3140 -2.3472 -1.7639
24444SOL    HW283263  10.580   9.094   0.107 -0.3498 -1.9974 -1.4402
24445SOL     OW83264  11.523   8.997  10.205 -0.1081  0.4973  0.3104
24445SOL    HW183265  11.576   9.012  10.127 -0.0602  2.1290  0.6266
24445SOL    HW283266  11.434   8.983  10.172 -0.0273  0.8404 -0.0648
24446SOL     OW83267   8.429   9.973   8.473  0.1683  0.9622 -0.0693
24446SOL    HW183268   8.453  10.031   8.545 -2.7720  0.8534  1.1530
24446SOL    HW283269   8.335   9.957   8.486  0.4760 -2.7409 -1.2860
24447SOL     OW83270  10.880   5.679   9.053 -0.0000  0.1529 -0.0307
24447SOL    HW183271  10.919   5.614   9.112 -0.7572 -1.1637 -0.9381
24447SOL    HW283272  10.845   5.746   9.112 -0.3813 -0.9159  1.0090
24448SOL     OW83273   5.832   9.267   2.426  0.3390  0.2365  0.1121
24448SOL    HW183274   5.808   9.238   2.338  0.6378 -0.4361  0.2508
24448SOL    HW283275   5.813   9.361   2.426 -0.0500  0.1621 -0.5377
24449SOL     OW83276  11.287   1.825   4.194  0.3649 -0.4077  0.2354
24449SOL    HW183277  11.280   1.860   4.283  1.4390 -0.8845  0.5283
24449SOL    HW283278  11.234   1.746   4.195 -1.2267  0.6050 -0.1335
24450SOL     OW83279   4.678   5.140  13.191  0.3249 -0.3416 -0.4589
24450SOL    HW183280   4.646   5.203  13.256  0.0755 -0.0820 -0.8295
24450SOL    HW283281   4.756   5.182  13.154 -1.0158  0.7480 -2.2183
24451SOL     OW83282   0.653  12.370   8.245 -0.1441  0.2484  0.4359
24451SOL    HW183283   0.661  12.345   8.153  0.1125 -0.6074  0.6792
24451SOL    HW283284   0.573  12.327   8.274  0.7693 -1.0917  1.0944
24452SOL     OW83285   2.642   0.032   5.532 -0.0098 -0.1133 -0.1433
24452SOL    HW183286   2.680   0.102   5.479  0.4333 -1.1062 -1.1871
24452SOL    HW283287   2.702  -0.042   5.520 -0.2711 -0.5753  1.2159
24453SOL     OW83288   9.992  13.015   0.869  0.6242  0.6180 -0.2199
24453SOL    HW183289   9.999  13.008   0.964 -0.0085 -1.4089 -0.2803
24453SOL    HW283290   9.898  13.028   0.853  0.4499 -0.9551 -0.6177
24454SOL     OW83291  10.556  10.779  13.246 -0.2986  0.2853  0.1155
24454SOL    HW183292  10.583  10.809  13.332 -0.0959 -1.3465  0.6603
24454SOL    HW283293  10.472  10.822  13.230 -0.0855  1.0115  0.8756
24455SOL     OW83294   3.018   3.698   8.261 -0.3824 -0.4372  0.1945
24455SOL    HW183295   2.952   3.634   8.234 -1.1388  0.4166 -0.0324
24455SOL    HW283296   3.060   3.724   8.179 -1.3178  0.6748  0.0348
24456SOL     OW83297  12.843  11.027   7.182 -0.0470  0.2185  0.0711
24456SOL    HW183298  12.839  11.099   7.118 -0.3728 -0.6634 -0.9256
24456SOL    HW283299  12.937  11.013   7.195  0.0188  0.8985  0.3600
24457SOL     OW83300   5.090  12.692   3.741  0.0996  0.2135  0.2032
24457SOL    HW183301   5.119  12.612   3.784 -0.0114  0.7566  1.3290
24457SOL    HW283302   5.042  12.663   3.664  0.6641 -0.7777  0.2159
24458SOL     OW83303   0.083  12.135   6.387  0.0741  0.2215  0.5254
24458SOL    HW183304   0.118  12.216   6.350 -0.6357  0.9610  1.4167
24458SOL    HW283305   0.077  12.075   6.313  2.3764  0.3438  0.1870
24459SOL     OW83306   5.276   5.513   7.883  0.3688 -0.4355 -0.2722
24459SOL    HW183307   5.247   5.523   7.974 -1.1886 -0.2516 -0.7572
24459SOL    HW283308   5.201   5.540   7.831 -0.0813 -3.8281 -1.6580
24460SOL     OW83309  10.791   1.970   3.269  0.5441  0.1930 -0.1800
24460SOL    HW183310  10.874   1.954   3.224  1.0222 -0.2807  0.8165
24460SOL    HW283311  10.755   1.882   3.283 -0.4311  0.4290 -1.1428
24461SOL     OW83312   8.281  12.457   1.814  0.4206 -0.0249  0.2492
24461SOL    HW183313   8.327  12.536   1.845  0.4403  0.0322  0.0734
24461SOL    HW283314   8.349  12.404   1.774  0.3846 -0.0722  0.2513
24462SOL     OW83315  12.638  10.285   8.049  0.1346 -0.2772 -0.0348
24462SOL    HW183316  12.683  10.279   7.966  1.9293 -1.5894  0.9670
24462SOL    HW283317  12.559  10.336   8.030  0.1921 -1.0222 -2.6237
24463SOL     OW83318   6.191  13.311  12.167 -0.0101  0.0437  0.6213
24463SOL    HW183319   6.248  13.265  12.106 -0.7533 -0.9809  0.6727
24463SOL    HW283320   6.250  13.342  12.236  0.7174  0.5146 -0.1924
24464SOL     OW83321   1.865  13.068   5.244  0.2751 -0.0794 -0.3105
24464SOL    HW183322   1.829  13.051   5.157  1.8867  2.0619 -1.4880
24464SOL    HW283323   1.951  13.025   5.243  0.9747  1.2771 -0.3978
24465SOL     OW83324   5.124   9.452  11.024 -0.8952  0.3159  0.2881
24465SOL    HW183325   5.178   9.529  11.039 -2.0396  1.1985  0.0167
24465SOL    HW283326   5.162   9.410  10.947  0.9742 -0.5742  1.6018
24466SOL     OW83327   4.512   7.921   9.775 -0.1985 -0.2182 -0.0298
24466SOL    HW183328   4.520   7.960   9.688 -0.4276  0.0631  0.0741
24466SOL    HW283329   4.586   7.956   9.824 -0.7897  0.6548  0.2740
24467SOL     OW83330  12.571   6.674   8.804  0.1960  0.5664  0.2152
24467SOL    HW183331  12.508   6.734   8.764 -1.0859 -0.5117  0.5283
24467SOL    HW283332  12.520   6.594   8.821  1.5022 -0.1226  1.0582
24468SOL     OW83333   1.107   2.706   4.859 -0.0003  0.1517 -0.5369
24468SOL    HW183334   1.178   2.686   4.798  0.2365  1.5898 -0.7497
24468SOL    HW283335   1.144   2.769   4.920 -1.6373  2.6216 -1.9279
24469SOL     OW83336  12.671   5.317  11.818  0.3904  0.3096  0.3303
24469SOL    HW183337  12.762   5.345  11.808  0.0243  1.0456 -1.3816
24469SOL    HW283338  12.620   5.397  11.803 -0.5580 -0.2284  0.6189
24470SOL     OW83339  11.775  10.874   0.066 -0.2912  0.1921 -0.2168
24470SOL    HW183340  11.820  10.813   0.008 -0.9317 -0.8898  0.4008
24470SOL    HW283341  11.823  10.869   0.149 -0.6864  0.0855  0.0110
24471SOL     OW83342   1.002   9.989   9.558  0.0900  0.1361 -0.0777
24471SOL    HW183343   1.052   9.933   9.498 -1.2561 -0.3632 -0.7652
24471SOL    HW283344   0.959   9.927   9.618 -0.2133  0.5128  0.0947
24472SOL     OW83345   7.868   5.340   9.838  0.1129  0.7627  0.3360
24472SOL    HW183346   7.889   5.427   9.806  2.0117  0.1834 -0.1368
24472SOL    HW283347   7.896   5.340   9.930  1.4597  0.2608 -0.0488
24473SOL     OW83348  10.632   5.928   7.054 -0.3691 -0.0788  0.1712
24473SOL    HW183349  10.559   5.989   7.046 -0.3430  0.1027  1.1983
24473SOL    HW283350  10.710   5.982   7.039 -0.4610 -0.4208 -1.6800
24474SOL     OW83351  10.828   2.322   6.053  0.4750  0.7470 -0.1624
24474SOL    HW183352  10.852   2.334   5.961  1.0085  0.8052 -0.0195
24474SOL    HW283353  10.882   2.249   6.083  0.2753  0.7026  0.0942
24475SOL     OW83354   2.578  11.237   0.766 -0.0190 -0.3343 -0.0696
24475SOL    HW183355   2.519  11.192   0.826 -0.3999  2.5920  1.9652
24475SOL    HW283356   2.526  11.250   0.686 -1.4127  0.2614  0.8974
24476SOL     OW83357   1.686   2.693   1.648 -0.3267  0.0369 -0.4587
24476SOL    HW183358   1.652   2.736   1.726 -0.4710  1.8299 -1.4456
24476SOL    HW283359   1.729   2.614   1.680 -1.5551  0.0224  1.2727
24477SOL     OW83360  10.767   5.745   6.687  0.2059  0.0251  0.1671
24477SOL    HW183361  10.839   5.689   6.659 -2.6120 -3.5334 -0.7871
24477SOL    HW283362  10.749   5.800   6.611 -0.6092 -2.0300 -1.2253
24478SOL     OW83363  10.486   7.401   2.496 -0.3871 -0.6420  0.1474
24478SOL    HW183364  10.476   7.313   2.460  0.0776 -1.0146  0.9088
24478SOL    HW283365  10.417   7.409   2.561 -1.4524  0.1635 -1.0365
24479SOL     OW83366  10.649  13.114   9.960  0.0336 -0.2009 -0.2478
24479SOL    HW183367  10.742  13.095   9.968 -0.0966 -1.8215 -2.0517
24479SOL    HW283368  10.606  13.047  10.013 -0.1544  0.3069  0.2620
24480SOL     OW83369  12.884   3.299  11.164  0.0059 -0.5353 -0.2346
24480SOL    HW183370  12.823   3.371  11.149 -1.5364 -1.8797 -0.7676
24480SOL    HW283371  12.861   3.268  11.252  1.0423 -0.0544  0.2220
24481SOL     OW83372   5.092   8.657  13.143  0.2162 -0.2210  0.1105
24481SOL    HW183373   5.037   8.722  13.098 -0.2894 -0.5160  0.2856
24481SOL    HW283374   5.058   8.654  13.232 -0.6638 -1.6836 -0.2303
24482SOL     OW83375   5.882  12.375  13.232 -0.1316 -0.0011  0.3325
24482SOL    HW183376   5.847  12.461  13.212 -0.1979  0.0960  0.8601
24482SOL    HW283377   5.853  12.357  13.321 -0.1049 -0.5616  0.2322
24483SOL     OW83378   0.194  13.129  11.907  0.1486  0.0346  0.2235
24483SOL    HW183379   0.193  13.095  11.997 -0.5364  0.9519  0.5729
24483SOL    HW283380   0.108  13.168  11.895 -1.1400 -3.0403 -2.0275
24484SOL     OW83381   5.613   5.811   4.470 -0.3823 -0.2411  0.2047
24484SOL    HW183382   5.697   5.774   4.443 -0.9705 -2.5424  1.2692
24484SOL    HW283383   5.565   5.823   4.388 -0.2974 -2.3159 -0.1978
24485SOL     OW83384   6.148  11.837   9.507  0.0034  0.0266 -0.4781
24485SOL    HW183385   6.133  11.912   9.450 -0.9303 -0.1999 -0.5470
24485SOL    HW283386   6.202  11.778   9.455  0.1533  0.3396 -0.6824
24486SOL     OW83387   0.034   3.918   2.701  0.1099  0.3164 -0.6525
24486SOL    HW183388  -0.046   3.869   2.679 -0.7645  1.2557  0.3428
24486SOL    HW283389   0.003   3.997   2.745  1.6637 -0.2247  1.6012
24487SOL     OW83390   4.836   9.973   7.629 -0.3926 -0.3824 -0.1825
24487SOL    HW183391   4.907  10.021   7.586  1.3445 -2.5241  0.1281
24487SOL    HW283392   4.880   9.919   7.694 -2.4653 -0.9590  0.8161
24488SOL     OW83393   0.634   3.404   6.362 -0.0550  1.0780 -0.3769
24488SOL    HW183394   0.664   3.361   6.283  0.5268  0.1905  0.3046
24488SOL    HW283395   0.565   3.347   6.396 -0.2478  1.4097 -0.2077
24489SOL     OW83396   0.311   3.575   1.092  0.2096 -0.2195  0.1184
24489SOL    HW183397   0.242   3.511   1.071 -0.0720 -0.4430  1.6173
24489SOL    HW283398   0.373   3.568   1.019 -0.9405 -0.5911 -0.8597
24490SOL     OW83399  10.183  11.020  10.825  0.3634 -0.4720 -0.0190
24490SOL    HW183400  10.250  11.070  10.779 -0.6375  1.3386  0.4189
24490SOL    HW283401  10.166  11.070  10.905  0.7083 -2.5585  1.4372
24491SOL     OW83402   2.175  11.070   2.067 -0.1838  0.0098 -0.1171
24491SOL    HW183403   2.092  11.099   2.028  0.1907  0.8808 -0.2796
24491SOL    HW283404   2.176  11.110   2.153 -0.5615 -1.1373  0.4497
24492SOL     OW83405  10.430   8.854   0.125  0.0907 -0.0256  0.4010
24492SOL    HW183406  10.520   8.881   0.138  0.8018  0.8796 -4.4458
24492SOL    HW283407  10.380   8.936   0.122  0.2047  0.0490 -2.3779
24493SOL     OW83408   6.676   4.329  11.048  0.0006 -0.3951 -0.3752
24493SOL    HW183409   6.613   4.283  11.103 -1.0179  1.9089  0.5246
24493SOL    HW283410   6.761   4.289  11.070 -0.6069 -0.7406  1.5864
24494SOL     OW83411   9.009   8.714   2.712 -0.5432  0.4153  0.6404
24494SOL    HW183412   9.015   8.794   2.660  1.0266 -1.0488 -1.5954
24494SOL    HW283413   8.930   8.670   2.679  0.1422 -0.2463 -0.1692
24495SOL     OW83414   3.912   2.469   5.967 -0.5421  0.2712 -0.3128
24495SOL    HW183415   3.998   2.487   5.929 -0.0713 -0.7234  0.2488
24495SOL    HW283416   3.849   2.502   5.902  0.2462  1.8483 -0.3197
24496SOL     OW83417   5.540   9.348   0.327  0.2405  0.1856 -0.5912
24496SOL    HW183418   5.562   9.261   0.293  1.4591 -0.0257  0.6131
24496SOL    HW283419   5.503   9.395   0.253 -1.7934 -1.8039 -0.9383
24497SOL     OW83420  11.478   7.390   1.948 -0.1895 -0.4706  0.3000
24497SOL    HW183421  11.511   7.362   1.862 -1.9538 -0.7658 -0.3125
24497SOL    HW283422  11.555   7.388   2.004  0.7612 -1.5261 -0.9682
24498SOL     OW83423  11.904   5.241   6.895 -0.0101 -0.7783  0.4090
24498SOL    HW183424  11.943   5.215   6.812 -1.0103  0.1865 -0.4010
24498SOL    HW283425  11.957   5.315   6.924 -1.2354  0.6472 -0.7800
24499SOL     OW83426   1.668   5.525  11.442 -0.4335 -0.0056  0.0937
24499SOL    HW183427   1.687   5.442  11.486  0.0348  0.1437  0.1684
24499SOL    HW283428   1.711   5.517  11.356 -2.5403 -0.8997 -0.9587
24500SOL     OW83429   0.353   6.749  11.220 -0.3444  0.8055  0.3450
24500SOL    HW183430   0.425   6.813  11.218  0.5599 -0.1009  1.9302
24500SOL    HW283431   0.317   6.756  11.308 -1.1794  0.1272  0.0670
24501SOL     OW83432  10.355   4.135   6.554 -0.5633  0.3547 -0.2944
24501SOL    HW183433  10.428   4.074   6.544 -1.3959 -0.5117 -1.4490
24501SOL    HW283434  10.395   4.222   6.551  0.6264 -0.0963  1.1675
24502SOL     OW83435   1.332   8.859   1.998 -0.1291 -0.4293 -0.4299
24502SOL    HW183436   1.311   8.850   1.905 -0.0982  1.4427 -0.6715
24502SOL    HW283437   1.316   8.952   2.017  1.6407 -0.3458  0.9602
24503SOL     OW83438   7.941   2.943  12.130  0.6392 -0.6644  0.1667
24503SOL    HW183439   7.876   2.876  12.150  0.1257 -0.3671 -0.5079
24503SOL    HW283440   7.952   2.991  12.212 -0.9669  0.1189 -0.0417
24504SOL     OW83441   4.294  12.274  10.007 -0.5304 -0.3523 -0.0412
24504SOL    HW183442   4.244  12.226   9.940 -2.2276  1.5028 -0.1994
24504SOL    HW283443   4.235  12.344  10.034  0.6660 -0.2172  2.4310
24505SOL     OW83444   6.673  11.049   7.820  0.0087 -0.1011  0.2919
24505SOL    HW183445   6.737  10.979   7.834  0.1272  0.2052  1.3323
24505SOL    HW283446   6.655  11.046   7.726 -0.8786 -2.3008  0.4743
24506SOL     OW83447  10.981   9.151   5.194  0.2604 -0.2638 -0.1147
24506SOL    HW183448  10.918   9.093   5.238 -0.3283  1.4136  1.3724
24506SOL    HW283449  11.063   9.137   5.242 -0.1305  0.8165  0.9195
24507SOL     OW83450   6.685  11.339   9.959 -0.3764  0.3893 -0.3333
24507SOL    HW183451   6.712  11.305  10.044  0.1516 -0.0213 -0.6590
24507SOL    HW283452   6.755  11.398   9.933  0.2920 -0.7564 -1.2265
24508SOL     OW83453   2.506   2.172   3.336  0.7500  0.0277 -0.3744
24508SOL    HW183454   2.526   2.135   3.422 -0.1571 -0.0773 -0.1952
24508SOL    HW283455   2.453   2.104   3.293 -0.5625  0.9109 -0.2140
24509SOL     OW83456   4.346   3.730   5.823 -0.0603  0.6768 -0.2832
24509SOL    HW183457   4.386   3.816   5.837  2.1955 -0.5090  1.2536
24509SOL    HW283458   4.362   3.711   5.731 -0.1238  1.6666 -0.5106
24510SOL     OW83459   4.613   4.407   4.513 -0.1342 -0.0603  0.0283
24510SOL    HW183460   4.583   4.454   4.434 -0.2489 -1.2158 -0.6341
24510SOL    HW283461   4.628   4.317   4.483  1.4015 -0.1493  0.9568
24511SOL     OW83462   5.693  13.125   1.438  0.0497 -0.6408  0.0120
24511SOL    HW183463   5.707  13.137   1.532  2.1101  1.0972 -0.4321
24511SOL    HW283464   5.730  13.038   1.420 -0.1461 -0.8939  0.7633
24512SOL     OW83465   3.644  10.860   2.661 -0.3559  0.2717 -0.3369
24512SOL    HW183466   3.563  10.813   2.680 -1.4425  1.5726 -1.4899
24512SOL    HW283467   3.706  10.830   2.728 -2.0858 -0.0028  1.2298
24513SOL     OW83468   0.029   5.378   6.339 -0.2356  0.0777 -0.5731
24513SOL    HW183469   0.027   5.293   6.383  0.5527 -0.9275 -2.3773
24513SOL    HW283470   0.087   5.364   6.264 -1.8160  1.6118 -2.1473
24514SOL     OW83471   6.715  12.254   7.505 -0.7969 -0.4926 -0.0703
24514SOL    HW183472   6.700  12.239   7.412 -0.5557 -1.5143  0.0413
24514SOL    HW283473   6.810  12.256   7.514 -0.7997 -1.3736  0.2805
24515SOL     OW83474   5.436   0.837  13.009  0.0179  0.5252 -0.2930
24515SOL    HW183475   5.348   0.804  12.992  0.2779 -0.5350  0.3374
24515SOL    HW283476   5.491   0.795  12.942  0.3089 -0.1577  0.3580
24516SOL     OW83477   7.074   5.117   3.472  0.0514  0.2878 -0.1648
24516SOL    HW183478   7.079   5.212   3.468 -1.2773  0.3329 -1.1094
24516SOL    HW283479   7.086   5.088   3.382  0.0542 -0.4298  0.0595
24517SOL     OW83480   8.768  11.835   3.205  0.2493 -0.1061 -0.3134
24517SOL    HW183481   8.774  11.834   3.110  0.5866 -0.3883 -0.2940
24517SOL    HW283482   8.780  11.743   3.230 -1.2989 -0.2684 -0.0788
24518SOL     OW83483   1.848   8.176   1.609  0.1455 -0.0795  0.1342
24518SOL    HW183484   1.778   8.171   1.544  0.3500 -0.6236 -0.0513
24518SOL    HW283485   1.867   8.084   1.630  1.3931  0.0223 -0.4710
24519SOL     OW83486   5.403   4.671  11.497  0.7899 -0.3388  0.4901
24519SOL    HW183487   5.443   4.635  11.576  1.3764  0.9824  0.8163
24519SOL    HW283488   5.327   4.720  11.529 -0.1080 -1.3704  0.0328
24520SOL     OW83489   4.892  11.418   9.110 -0.3913  0.2608  0.9528
24520SOL    HW183490   4.808  11.379   9.085 -0.8720  0.9494  1.4580
24520SOL    HW283491   4.876  11.512   9.110  1.3634  0.7143 -2.4833
24521SOL     OW83492   7.573  13.308  11.882 -0.0475  0.0600  0.2671
24521SOL    HW183493   7.562  13.360  11.803  1.7184  1.9779  1.1786
24521SOL    HW283494   7.562  13.217  11.853 -0.5571  0.7619 -1.9299
24522SOL     OW83495   1.425   7.130   9.465  0.1886  0.3648 -0.5679
24522SOL    HW183496   1.341   7.156   9.427  0.1023 -1.5006 -1.8038
24522SOL    HW283497   1.490   7.167   9.406  0.1808  0.5086 -0.4865
24523SOL     OW83498   9.411   5.663   2.187  0.0609  0.6682 -0.3497
24523SOL    HW183499   9.443   5.633   2.102  0.2637  0.2812 -0.1399
24523SOL    HW283500   9.348   5.597   2.215 -0.1921  0.9212 -0.3088
24524SOL     OW83501   2.933   6.227   8.127 -0.7898  0.3619  0.6215
24524SOL    HW183502   2.882   6.170   8.184 -0.5142  0.7395  1.2539
24524SOL    HW283503   2.868   6.262   8.065 -1.0578 -0.1731  0.5927
24525SOL     OW83504   3.363   5.941   1.793 -0.6633 -0.3176 -0.4134
24525SOL    HW183505   3.304   6.015   1.774 -1.8558 -1.4324 -1.2128
24525SOL    HW283506   3.445   5.964   1.750  0.1873  2.0934  2.1688
24526SOL     OW83507   1.637   0.866  11.830  0.3669 -0.1079  0.5499
24526SOL    HW183508   1.715   0.918  11.854  0.2719  0.8350 -1.0368
24526SOL    HW283509   1.571   0.931  11.809 -0.1100 -0.8869 -0.4289
24527SOL     OW83510   3.426   4.204   9.670 -0.0781  0.4157 -0.4133
24527SOL    HW183511   3.403   4.189   9.578 -1.8911  0.5412 -0.0134
24527SOL    HW283512   3.400   4.295   9.686 -1.3881 -0.1158  0.6504
24528SOL     OW83513   8.896   1.393   1.735 -0.3701 -0.3209  0.2432
24528SOL    HW183514   8.876   1.454   1.805  0.4580  0.8129 -0.4754
24528SOL    HW283515   8.872   1.439   1.654 -1.0809 -1.5044 -0.2589
24529SOL     OW83516   1.035   0.506   9.815 -0.4754 -0.1916  0.2821
24529SOL    HW183517   1.031   0.497   9.911 -2.3800  0.1480  0.2832
24529SOL    HW283518   0.990   0.429   9.782 -0.5124  0.0836 -0.3153
24530SOL     OW83519  10.772   8.227   1.434 -0.4660  0.2045  0.2244
24530SOL    HW183520  10.799   8.138   1.455  0.3952  0.5021  0.4041
24530SOL    HW283521  10.678   8.229   1.452 -0.7249 -0.9855 -0.8573
24531SOL     OW83522   9.521  11.557   6.233 -0.0772  0.3309  0.1381
24531SOL    HW183523   9.505  11.651   6.219 -0.2549  0.4758  1.2800
24531SOL    HW283524   9.433  11.520   6.243  0.0158  0.1071  0.1156
24532SOL     OW83525   8.588   9.052   2.969  0.2971 -0.4011 -0.5237
24532SOL    HW183526   8.571   9.131   3.019 -0.7338 -0.4807 -0.7421
24532SOL    HW283527   8.667   9.072   2.918  0.8058  0.0087  0.4160
24533SOL     OW83528   3.864  12.520   2.151 -0.8412 -0.1490 -0.0294
24533SOL    HW183529   3.841  12.434   2.186 -1.5890 -0.2693 -0.7728
24533SOL    HW283530   3.783  12.570   2.153 -0.2165  0.8771  1.2649
24534SOL     OW83531   1.433   5.737   9.165 -0.5933  0.2211 -0.3119
24534SOL    HW183532   1.397   5.656   9.129 -0.8003  0.4091 -0.5277
24534SOL    HW283533   1.429   5.724   9.260 -1.2088  0.2331 -0.3343
24535SOL     OW83534   7.676   9.865   7.278  0.4517 -0.0534 -0.3407
24535SOL    HW183535   7.733   9.829   7.211  0.3392 -0.5277 -0.1869
24535SOL    HW283536   7.651   9.790   7.331 -2.8992 -0.4849 -2.2636
24536SOL     OW83537   0.657   1.165  10.692 -0.1542 -0.3036  0.2884
24536SOL    HW183538   0.646   1.074  10.663 -0.8195 -0.1854  0.1604
24536SOL    HW283539   0.568   1.197  10.704  0.0859  0.1749  0.8429
24537SOL     OW83540   9.352   4.793   2.410  0.2135 -0.4231  0.0145
24537SOL    HW183541   9.373   4.843   2.489  0.1009 -0.6754  0.2094
24537SOL    HW283542   9.403   4.834   2.340  0.3056 -0.1907  0.2181
24538SOL     OW83543   2.652   2.825   7.458  0.1428 -0.7375 -0.5254
24538SOL    HW183544   2.630   2.779   7.539  0.6364  0.8665  0.5663
24538SOL    HW283545   2.570   2.866   7.431  0.7351  1.8584  1.3031
24539SOL     OW83546   4.285  13.257  12.652  0.3466 -0.4973  0.5264
24539SOL    HW183547   4.259  13.181  12.599  0.6141  0.1815 -0.5958
24539SOL    HW283548   4.256  13.235  12.741 -1.2965 -1.0936 -0.1241
24540SOL     OW83549   1.861  12.758   7.355  0.3527  0.0506  0.2686
24540SOL    HW183550   1.790  12.702   7.388  1.0194 -0.0144  1.6368
24540SOL    HW283551   1.874  12.728   7.265 -1.5299  0.2443 -0.1283
24541SOL     OW83552  13.028  10.820   6.928  0.3394  0.2160  0.1525
24541SOL    HW183553  13.097  10.825   6.995 -1.3355  0.6014  1.9250
24541SOL    HW283554  12.990  10.733   6.940 -0.4994  0.5865  0.2756
24542SOL     OW83555  12.622  11.297   7.925 -0.1778  0.5909  0.1142
24542SOL    HW183556  12.544  11.325   7.878 -1.1330 -1.2657  0.5075
24542SOL    HW283557  12.680  11.373   7.923 -2.0066  2.0485 -0.1282
24543SOL     OW83558   6.566   0.954   8.429  0.4903  0.4297  1.0562
24543SOL    HW183559   6.578   0.859   8.432  1.5957  0.4789 -0.5825
24543SOL    HW283560   6.652   0.990   8.450 -0.3891  1.1908  3.8666
24544SOL     OW83561  10.779   1.296   1.072 -0.3501  0.1037  0.4776
24544SOL    HW183562  10.728   1.369   1.037  0.1990 -0.5796 -1.9070
24544SOL    HW283563  10.716   1.226   1.084 -0.4363  0.1385  0.2305
24545SOL     OW83564   6.061  12.239   1.855  0.7020  0.0174  0.0186
24545SOL    HW183565   6.130  12.288   1.811  0.4089  1.0178  0.6244
24545SOL    HW283566   6.108  12.182   1.916  1.1395 -1.7706 -1.8731
24546SOL     OW83567   9.310   3.475   4.091 -0.2486  0.5969  0.0588
24546SOL    HW183568   9.381   3.445   4.147 -1.3779  1.1538  1.8695
24546SOL    HW283569   9.348   3.546   4.038  1.8588 -2.3352 -2.7191
24547SOL     OW83570   2.307   7.275   3.658 -0.4623 -0.0333 -0.2854
24547SOL    HW183571   2.349   7.201   3.702 -2.7355 -0.4543  1.3727
24547SOL    HW283572   2.301   7.249   3.567 -1.1090 -1.8930  0.2472
24548SOL     OW83573   3.806   5.957  13.143  0.5248  0.0399 -0.2579
24548SOL    HW183574   3.764   6.034  13.104 -0.0433 -0.6674 -1.0913
24548SOL    HW283575   3.747   5.885  13.123  2.2950 -1.0700 -1.8181
24549SOL     OW83576   2.667   9.403   6.441  0.2654 -0.2629 -0.1756
24549SOL    HW183577   2.668   9.489   6.398 -0.2376  0.1291  0.5965
24549SOL    HW283578   2.704   9.344   6.375  0.2686  0.4744 -0.8520
24550SOL     OW83579   5.085   9.052   8.881 -0.2398 -0.3169 -0.5027
24550SOL    HW183580   5.170   9.092   8.898  0.2530 -0.4785 -2.4798
24550SOL    HW283581   5.083   8.974   8.936  0.6611 -0.0354 -0.0608
24551SOL     OW83582  10.642   9.887  10.457 -0.3584 -0.0480 -0.2235
24551SOL    HW183583  10.628   9.963  10.400  0.2552 -0.0528 -0.3858
24551SOL    HW283584  10.571   9.827  10.434 -1.1437  0.6706  0.2504
24552SOL     OW83585   1.489  13.290  12.405  0.2248 -0.6827  0.4850
24552SOL    HW183586   1.532  13.238  12.337  0.8933  2.1109 -1.3830
24552SOL    HW283587   1.546  13.282  12.481  1.4860 -0.8962 -0.4610
24553SOL     OW83588   2.482  11.613   1.208  0.2482 -0.0920  0.4011
24553SOL    HW183589   2.528  11.552   1.150  0.5057 -0.7068  1.2338
24553SOL    HW283590   2.390  11.604   1.184  0.3523 -0.3422  0.0896
24554SOL     OW83591  10.710   8.233   3.552 -0.3143  0.0228 -0.0408
24554SOL    HW183592  10.691   8.139   3.543  0.9558 -0.1491 -1.3140
24554SOL    HW283593  10.723   8.264   3.462  1.0894  1.0062  0.4599
24555SOL     OW83594  12.330   3.677   8.003 -0.1799 -0.4341 -0.5252
24555SOL    HW183595  12.261   3.721   8.053  0.8532  0.3770  0.2465
24555SOL    HW283596  12.345   3.734   7.928  0.1481 -0.2054 -0.2938
24556SOL     OW83597   2.300  12.917   7.469  0.4197 -0.6240 -0.0942
24556SOL    HW183598   2.367  12.880   7.412 -0.3012  0.9040 -2.0589
24556SOL    HW283599   2.239  12.845   7.484  1.2795 -1.3936 -0.2085
24557SOL     OW83600   2.615  12.068   0.317 -0.5854  0.5069 -0.2805
24557SOL    HW183601   2.611  12.014   0.238 -0.1018  0.6580 -0.4128
24557SOL    HW283602   2.577  12.014   0.385  2.1804 -1.0736  0.1729
24558SOL     OW83603   4.734  10.011   1.997 -0.7370  0.2715  0.3374
24558SOL    HW183604   4.648   9.977   1.971 -0.5367  0.9903 -1.3461
24558SOL    HW283605   4.727  10.105   1.985 -0.3946  0.5832  2.3314
24559SOL     OW83606   9.331  10.017   2.727  0.1663 -0.7777  0.2507
24559SOL    HW183607   9.342  10.029   2.633  0.3796 -0.8969  0.2591
24559SOL    HW283608   9.256   9.958   2.736  0.9670 -1.8540  0.1044
24560SOL     OW83609   8.974   8.857   0.812 -0.2841 -0.1319 -0.0431
24560SOL    HW183610   8.928   8.936   0.838  0.3055 -0.0430  0.7905
24560SOL    HW283611   9.066   8.874   0.835  0.4926  0.2848 -2.9839
24561SOL     OW83612   5.119   6.570   8.327  0.2153  0.0685  0.4901
24561SOL    HW183613   5.149   6.659   8.347 -0.4276  0.0522  1.5980
24561SOL    HW283614   5.152   6.553   8.239  0.7562  1.2250  0.4507
24562SOL     OW83615  10.441   9.698  10.427  0.3021  0.4132 -0.8546
24562SOL    HW183616  10.475   9.614  10.459 -1.1948  0.9903  2.7497
24562SOL    HW283617  10.411   9.679  10.339  0.2377 -2.8292 -0.2698
24563SOL     OW83618   0.880   0.384   1.497  0.4924 -0.6348 -0.1937
24563SOL    HW183619   0.959   0.425   1.460  1.1039 -1.5127  0.0926
24563SOL    HW283620   0.808   0.433   1.459  1.1671 -0.0996 -0.8312
24564SOL     OW83621   3.029   4.739   7.929 -0.1933  0.3754 -0.5609
24564SOL    HW183622   3.061   4.709   8.015 -0.7953  0.7690 -0.1871
24564SOL    HW283623   2.957   4.678   7.909  1.4142 -1.1881 -1.9009
24565SOL     OW83624   5.786  10.326   2.877 -0.1846  0.1452 -0.0929
24565SOL    HW183625   5.833  10.256   2.832  1.8701  0.0710  2.0285
24565SOL    HW283626   5.800  10.403   2.822 -0.7762 -0.6452 -1.4028
24566SOL     OW83627   6.582   6.871  12.640 -0.5659 -0.2008 -0.4319
24566SOL    HW183628   6.599   6.869  12.734  2.2828 -0.9036 -0.8673
24566SOL    HW283629   6.495   6.834  12.630 -1.0784  0.2255  1.9361
24567SOL     OW83630   8.719   3.293   1.129 -0.4658  0.0223 -0.0311
24567SOL    HW183631   8.696   3.320   1.040  0.0727  0.5316 -0.0207
24567SOL    HW283632   8.814   3.293   1.131 -0.4592  0.8438  0.7827
24568SOL     OW83633   4.392   7.623   1.466 -0.5560 -0.4059 -0.3452
24568SOL    HW183634   4.401   7.573   1.385  3.0920 -0.8447  0.1651
24568SOL    HW283635   4.339   7.699   1.442  1.1748 -0.0206 -3.4228
24569SOL     OW83636  13.067   3.986  11.578 -0.4552 -0.0498  0.3513
24569SOL    HW183637  13.059   3.939  11.495  2.5873 -0.9300  0.4431
24569SOL    HW283638  13.106   3.923  11.638 -0.2887  1.3362  1.7572
24570SOL     OW83639   1.885   9.036   0.198 -0.2437  0.5019  0.3632
24570SOL    HW183640   1.844   9.052   0.283 -0.0805  0.7814  0.3904
24570SOL    HW283641   1.872   9.117   0.150 -0.4771  0.2879  0.0633
24571SOL     OW83642  10.521   4.499  10.818  0.0670  0.1726  0.0489
24571SOL    HW183643  10.472   4.559  10.762  3.1516  1.8074 -1.1564
24571SOL    HW283644  10.575   4.448  10.758  0.8813 -0.5771  1.3502
24572SOL     OW83645   2.567   7.819   7.501  0.5410 -0.2893 -0.2854
24572SOL    HW183646   2.622   7.878   7.552 -1.0686  1.9087 -0.9294
24572SOL    HW283647   2.564   7.859   7.414 -0.3479 -1.5171 -0.8469
24573SOL     OW83648   1.166   9.167   4.315  0.1423  0.2594 -0.0890
24573SOL    HW183649   1.180   9.176   4.410  1.6321 -1.3272 -0.1074
24573SOL    HW283650   1.246   9.201   4.276  2.7231 -5.1026 -0.3930
24574SOL     OW83651   1.361   0.193   7.452 -0.3797 -0.5815 -0.4570
24574SOL    HW183652   1.350   0.229   7.540 -0.7316 -2.2915  0.2365
24574SOL    HW283653   1.435   0.132   7.459 -0.1414 -0.4368 -1.4569
24575SOL     OW83654   4.568  12.872   6.544  0.4819 -0.1875 -0.0295
24575SOL    HW183655   4.657  12.878   6.508  1.1523 -1.1668  1.4126
24575SOL    HW283656   4.580  12.870   6.639 -0.9673 -1.8324  0.1720
24576SOL     OW83657   3.070   0.735   3.003 -0.0670  0.3846  0.7137
24576SOL    HW183658   3.120   0.674   3.057  0.8409 -0.7605 -1.3415
24576SOL    HW283659   3.014   0.680   2.948 -1.9109  1.5565  1.2839
24577SOL     OW83660   1.360  11.384   4.572  0.1246  0.1229 -0.1332
24577SOL    HW183661   1.386  11.441   4.644  0.8011 -1.7551  1.1900
24577SOL    HW283662   1.276  11.420   4.542 -0.0014  1.1649  1.3569
24578SOL     OW83663   2.572  11.269  10.637 -0.1625 -0.0574  0.3501
24578SOL    HW183664   2.589  11.191  10.689 -1.9375  0.3434  1.6445
24578SOL    HW283665   2.632  11.335  10.672 -0.7085 -0.0474  1.2949
24579SOL     OW83666  10.242   7.823   4.894  0.0264 -0.6320 -0.1783
24579SOL    HW183667  10.275   7.834   4.983  0.6872 -0.1243 -0.4802
24579SOL    HW283668  10.301   7.875   4.839 -1.3661  0.4642 -0.7207
24580SOL     OW83669  10.618  12.394  11.722 -0.4301  0.0373 -0.2051
24580SOL    HW183670  10.706  12.432  11.724 -0.7077  0.6893  0.0785
24580SOL    HW283671  10.602  12.365  11.812 -0.7603  0.5447 -0.0936
24581SOL     OW83672   9.604   8.571   3.834 -0.0276 -0.4203  0.5700
24581SOL    HW183673   9.591   8.479   3.854 -0.9464 -0.3748  0.2273
24581SOL    HW283674   9.555   8.618   3.901 -1.0911 -0.2228 -0.3233
24582SOL     OW83675   1.825  10.054  13.018 -0.1549 -0.1666  0.2376
24582SOL    HW183676   1.876   9.973  13.026  1.0130  0.4508 -0.6707
24582SOL    HW283677   1.889  10.119  12.990 -1.0250  1.1504  1.2199
24583SOL     OW83678   3.382  11.548   0.750 -0.0173 -0.4398  0.7348
24583SOL    HW183679   3.471  11.582   0.743  0.4664 -1.9220 -1.1962
24583SOL    HW283680   3.391  11.466   0.799 -0.7399  0.5535  2.6712
24584SOL     OW83681   1.160   2.400   7.745 -0.2751 -0.1776 -0.2609
24584SOL    HW183682   1.142   2.345   7.669 -2.2454 -0.7119  0.5229
24584SOL    HW283683   1.099   2.473   7.737 -0.7325 -0.3994  0.9188
24585SOL     OW83684   3.986   8.166   9.634 -0.1812  0.5385 -0.7728
24585SOL    HW183685   4.038   8.134   9.708 -0.6694  1.2527 -0.1080
24585SOL    HW283686   4.000   8.260   9.633 -0.2666  0.5511 -1.5358
24586SOL     OW83687   0.124   5.562   7.057  0.1024 -0.0560  0.4388
24586SOL    HW183688   0.157   5.516   6.979  1.0051 -0.5054  1.0712
24586SOL    HW283689   0.197   5.561   7.119 -0.6183  0.2433  1.3220
24587SOL     OW83690  10.860   9.827   7.611 -0.1567 -0.0029  0.5765
24587SOL    HW183691  10.804   9.886   7.561  1.9480  0.9552 -0.7858
24587SOL    HW283692  10.877   9.873   7.692 -0.6335  0.0763  0.6357
24588SOL     OW83693  10.623   9.004   1.157  0.4699 -0.6350 -0.0449
24588SOL    HW183694  10.585   9.064   1.092 -0.4590 -0.4696  0.6488
24588SOL    HW283695  10.705   8.975   1.116 -0.0755 -0.5079 -1.2837
24589SOL     OW83696  12.435   7.934   5.052 -0.1972  0.1759  0.2438
24589SOL    HW183697  12.390   8.018   5.047  0.8877  0.7196 -1.8048
24589SOL    HW283698  12.408   7.897   5.135 -0.9680  2.4068  1.0686
24590SOL     OW83699   8.144   6.493   8.854 -0.3886 -0.4302 -0.6257
24590SOL    HW183700   8.069   6.437   8.875 -0.2255 -1.2187 -2.0257
24590SOL    HW283701   8.169   6.468   8.765  0.6431  0.8302 -0.7278
24591SOL     OW83702  11.270   5.776  10.158 -0.1560  0.0279 -0.5967
24591SOL    HW183703  11.266   5.731  10.074 -0.5086 -0.5244 -0.2871
24591SOL    HW283704  11.184   5.817  10.167  0.3276  1.2064 -1.1079
24592SOL     OW83705   1.464   3.025   9.737  0.3711 -0.3725 -0.2957
24592SOL    HW183706   1.486   3.097   9.796 -0.7234 -0.5209  0.3046
24592SOL    HW283707   1.460   3.065   9.651  1.6315 -0.0841 -0.2412
24593SOL     OW83708   0.615  12.419   3.011 -0.0049 -0.1899 -0.2883
24593SOL    HW183709   0.664  12.476   3.071  1.0518 -0.6010 -0.7326
24593SOL    HW283710   0.659  12.334   3.018 -0.8448 -0.6470 -0.4953
24594SOL     OW83711   0.021  10.345   5.574 -0.1955 -0.3577  0.4979
24594SOL    HW183712   0.042  10.384   5.658 -1.2672 -0.6901  0.9488
24594SOL    HW283713  -0.065  10.304   5.588 -1.1169  0.8757 -1.1606
24595SOL     OW83714   1.316   6.354  13.062 -0.1547 -0.3178  0.2727
24595SOL    HW183715   1.395   6.301  13.048 -0.9660 -1.1106 -1.5445
24595SOL    HW283716   1.341   6.442  13.034 -0.0828 -0.7046 -0.9503
24596SOL     OW83717   1.615   8.309  11.168  0.5572 -0.6958  0.0165
24596SOL    HW183718   1.700   8.279  11.136 -0.1566 -2.8218 -0.0486
24596SOL    HW283719   1.551   8.275  11.104 -0.4613 -0.5051  0.8966
24597SOL     OW83720   7.130  13.236  11.852 -0.2334  0.2541  0.4060
24597SOL    HW183721   7.047  13.257  11.894 -1.2273  1.5229 -1.9822
24597SOL    HW283722   7.129  13.140  11.845 -0.5846  0.1010  2.0656
24598SOL     OW83723   5.523   8.067   4.216 -0.0332 -0.3250 -0.1890
24598SOL    HW183724   5.430   8.088   4.218 -0.4644 -2.0691 -0.5685
24598SOL    HW283725   5.534   7.999   4.282  0.9395 -0.2708 -0.2810
24599SOL     OW83726   9.379   6.149  12.815 -0.3276 -0.5103  0.5271
24599SOL    HW183727   9.474   6.143  12.824 -0.3874  0.1573  1.9088
24599SOL    HW283728   9.345   6.130  12.903 -1.4800 -0.7334  0.0607
24600SOL     OW83729   4.865   7.472   1.410  0.1028  0.2267 -0.6215
24600SOL    HW183730   4.795   7.535   1.393 -0.4110 -0.3798 -0.8203
24600SOL    HW283731   4.921   7.515   1.475 -1.7942 -0.2087  1.4443
24601SOL     OW83732   6.424   8.209   1.952  0.1618 -0.4135 -0.7189
24601SOL    HW183733   6.444   8.183   2.042 -1.1019  0.0908 -0.2660
24601SOL    HW283734   6.510   8.213   1.908  0.9943  1.0782  0.9337
24602SOL     OW83735   6.223   1.188   4.885  0.2518 -0.1964 -0.4276
24602SOL    HW183736   6.298   1.130   4.900  0.7034  0.7423  1.1761
24602SOL    HW283737   6.217   1.240   4.965 -2.6202 -0.7530 -0.2059
24603SOL     OW83738  13.156   3.390   4.545 -0.4267 -0.2200 -0.4343
24603SOL    HW183739  13.067   3.375   4.577 -1.2384  0.4371 -2.2729
24603SOL    HW283740  13.164   3.333   4.469  0.4947  0.2308 -0.6857
24604SOL     OW83741  13.310   0.837   3.693  0.0157 -0.1695 -0.3783
24604SOL    HW183742  13.339   0.761   3.643 -1.4740 -1.0364  0.0389
24604SOL    HW283743  13.295   0.803   3.781 -1.2264  0.4598 -0.3297
24605SOL     OW83744   2.864  11.677   3.328 -0.9328 -0.1466 -0.4492
24605SOL    HW183745   2.830  11.761   3.358 -0.5621 -0.3287  0.5318
24605SOL    HW283746   2.800  11.646   3.264 -0.9503  0.9840 -1.0042
24606SOL     OW83747  13.266   1.209  11.271 -0.9304  0.4987  0.4395
24606SOL    HW183748  13.276   1.206  11.366  0.7459  0.5337  0.3037
24606SOL    HW283749  13.287   1.120  11.242 -2.9321  0.0615  0.1785
24607SOL     OW83750   5.253   7.234   2.799 -0.0290 -0.5291 -0.1573
24607SOL    HW183751   5.257   7.178   2.877  0.5505  0.5054  0.5809
24607SOL    HW283752   5.177   7.291   2.815  1.0333  0.7728  0.4425
24608SOL     OW83753  10.246  11.068  11.897  0.4698 -0.0428 -0.3689
24608SOL    HW183754  10.248  11.117  11.979  0.6849 -1.3286  0.4148
24608SOL    HW283755  10.325  11.015  11.898  0.8712  0.4690 -1.7773
24609SOL     OW83756   4.111  11.959  12.133  0.5160 -0.0599  0.7361
24609SOL    HW183757   4.199  11.931  12.110  0.9091  2.2235 -0.7293
24609SOL    HW283758   4.120  12.050  12.162 -1.3179  0.1335  0.8537
24610SOL     OW83759   4.553   5.229   3.509 -0.4160 -0.3316 -0.2747
24610SOL    HW183760   4.547   5.133   3.506 -0.6494 -0.3043 -0.7752
24610SOL    HW283761   4.497   5.253   3.583  0.0460 -0.6084  0.1758
24611SOL     OW83762   4.672   8.342  11.991  0.4892  0.2212 -0.2129
24611SOL    HW183763   4.684   8.369  12.082  0.6872  1.7956 -0.6665
24611SOL    HW283764   4.613   8.408  11.954 -1.0581 -1.4154 -0.7853
24612SOL     OW83765   9.733   2.510  11.867  0.1365 -0.1966  0.5137
24612SOL    HW183766   9.751   2.593  11.911  2.2670 -0.0807 -0.4577
24612SOL    HW283767   9.677   2.462  11.929  0.8783  0.9687  2.1734
24613SOL     OW83768  12.999   7.106   4.772 -0.0195  0.6509 -0.0636
24613SOL    HW183769  13.031   7.147   4.692 -1.4981  0.1616 -0.9311
24613SOL    HW283770  12.918   7.151   4.792 -0.3785 -0.1610  0.3770
24614SOL     OW83771   0.018   6.041   4.838  0.5022  0.0144  0.4280
24614SOL    HW183772   0.021   6.134   4.816 -2.6921  0.5168  1.5666
24614SOL    HW283773  -0.029   6.000   4.765 -0.5570 -0.1854  1.1975
24615SOL     OW83774   0.329   6.021   0.285  0.0004  0.0496 -0.4499
24615SOL    HW183775   0.341   6.105   0.242  0.3129 -0.4834 -1.4327
24615SOL    HW283776   0.406   6.012   0.342 -0.4518  0.7864  0.3006
24616SOL     OW83777   5.624  12.746   1.185  0.0274 -0.4409  0.9370
24616SOL    HW183778   5.633  12.655   1.213 -2.6555 -0.4823  2.0114
24616SOL    HW283779   5.532  12.753   1.158  0.8641  1.2552 -1.8978
24617SOL     OW83780  11.037   8.374   1.516  0.2657 -0.0733  0.4183
24617SOL    HW183781  10.965   8.321   1.481 -0.0319  0.9742 -0.5938
24617SOL    HW283782  10.997   8.458   1.539  1.3071  0.8665 -1.0601
24618SOL     OW83783   7.881   6.116   4.459  0.0186 -0.4688  0.4633
24618SOL    HW183784   7.852   6.158   4.540  0.5599 -0.4312  0.6368
24618SOL    HW283785   7.886   6.188   4.396 -1.0256 -0.5926  0.2121
24619SOL     OW83786   1.658  12.147  10.882  0.3471  0.4207  0.2356
24619SOL    HW183787   1.613  12.171  10.801  0.2123  0.3601  0.2916
24619SOL    HW283788   1.713  12.073  10.858 -1.5105 -1.2207  0.7146
24620SOL     OW83789   5.439   3.855   1.389  0.5638  0.1448  0.3132
24620SOL    HW183790   5.476   3.935   1.428 -0.3834  0.5651  0.3681
24620SOL    HW283791   5.406   3.883   1.304 -1.9164  0.3835  1.2800
24621SOL     OW83792  11.899   3.101  10.360  0.3136  0.1475  0.6475
24621SOL    HW183793  11.966   3.133  10.420 -0.0638  0.5707  0.8523
24621SOL    HW283794  11.922   3.010  10.344  2.2326  0.8551 -1.0571
24622SOL     OW83795   3.512   6.477   3.919 -0.2734  0.0229 -0.4491
24622SOL    HW183796   3.580   6.466   3.985  2.3816 -0.5295 -3.0487
24622SOL    HW283797   3.529   6.563   3.880 -2.0103  0.5044 -0.2442
24623SOL     OW83798   0.700   0.467   9.448  0.3510  0.5739  0.0862
24623SOL    HW183799   0.670   0.508   9.367 -0.6039 -1.2305 -0.5119
24623SOL    HW283800   0.764   0.401   9.420 -0.3107 -0.3661  0.7477
24624SOL     OW83801   1.656  12.181   4.412 -0.1389 -0.1874  0.2856
24624SOL    HW183802   1.718  12.226   4.470  0.5465 -0.3001 -0.3455
24624SOL    HW283803   1.679  12.088   4.419  2.3080  0.0343 -2.7583
24625SOL     OW83804  13.077   1.982   4.277  0.3274 -0.3151  0.1914
24625SOL    HW183805  13.031   2.032   4.209  0.2506 -2.6644 -1.5990
24625SOL    HW283806  13.013   1.973   4.348  0.6494  2.8068  1.0216
24626SOL     OW83807   3.377  11.391   5.254  0.2643 -0.1563 -0.2790
24626SOL    HW183808   3.445  11.386   5.187  1.5754  0.7773  0.9292
24626SOL    HW283809   3.299  11.422   5.206  0.6375 -1.2820 -1.6881
24627SOL     OW83810   8.686   7.161  13.216  0.2916  0.0828 -0.6483
24627SOL    HW183811   8.773   7.196  13.197  0.7918 -1.1949 -0.8127
24627SOL    HW283812   8.642   7.230  13.265  1.3453  0.8000 -0.6897
24628SOL     OW83813   6.274  10.443  12.831 -0.8175  0.2102 -0.8986
24628SOL    HW183814   6.229  10.495  12.765 -0.0041  0.5366 -1.2191
24628SOL    HW283815   6.251  10.484  12.914  0.5723  1.7340 -1.2066
24629SOL     OW83816  11.676   3.584  10.260  0.0356  0.3574  0.1329
24629SOL    HW183817  11.634   3.520  10.317  0.1700 -0.3905 -0.5966
24629SOL    HW283818  11.672   3.546  10.172 -0.7690  1.7809 -0.4953
24630SOL     OW83819   1.290  11.778  10.755 -0.2295  0.2415  0.0583
24630SOL    HW183820   1.296  11.783  10.660 -0.1384 -1.3931 -0.0484
24630SOL    HW283821   1.380  11.777  10.785 -0.1554 -1.9963 -0.0620
24631SOL     OW83822   5.532   4.253  12.823  0.1183  0.2794  0.3469
24631SOL    HW183823   5.521   4.215  12.736  0.1860  1.5643 -0.2593
24631SOL    HW283824   5.505   4.345  12.812  1.8319  0.9350  1.2501
24632SOL     OW83825   4.299  11.046   7.523 -0.4636  0.4523  0.1741
24632SOL    HW183826   4.301  11.133   7.484 -1.1592  0.7700  0.8301
24632SOL    HW283827   4.279  11.061   7.615 -0.7591 -0.4179  0.2630
24633SOL     OW83828   9.481  13.020   0.233  0.0523 -0.1129  0.2246
24633SOL    HW183829   9.421  13.062   0.172 -0.0990  1.3441  1.3405
24633SOL    HW283830   9.434  13.016   0.316  1.0170 -0.1197  0.7954
24634SOL     OW83831  10.350   5.121   6.796  0.6021  0.3938 -0.1468
24634SOL    HW183832  10.306   5.127   6.711  1.3199 -0.8822 -0.6372
24634SOL    HW283833  10.420   5.058   6.782  1.3264  0.8693  1.1590
24635SOL     OW83834  12.748   9.280   1.501  0.2744 -0.3403 -0.3093
24635SOL    HW183835  12.659   9.312   1.489  0.9655  1.0832 -2.3063
24635SOL    HW283836  12.800   9.359   1.518  1.6717 -0.5670 -2.9507
24636SOL     OW83837   4.411   4.223  11.718 -0.7306 -0.2138 -0.2283
24636SOL    HW183838   4.349   4.268  11.661 -1.8366  0.1380  1.2150
24636SOL    HW283839   4.470   4.178  11.657 -1.9034  0.0843 -1.6527
24637SOL     OW83840   0.958   1.413  12.534 -0.2578 -0.2179  0.4095
24637SOL    HW183841   1.018   1.467  12.585 -1.5293  0.9669  0.7050
24637SOL    HW283842   0.954   1.330  12.581 -1.5484  0.9071  2.4241
24638SOL     OW83843   9.314   1.939   4.383  0.1487  0.0846  0.2394
24638SOL    HW183844   9.358   2.009   4.334  0.1619  0.0910  0.2604
24638SOL    HW283845   9.384   1.897   4.433  0.6597 -1.7459 -1.8802
24639SOL     OW83846   4.352   0.547   1.984  0.1780  0.2100 -0.2028
24639SOL    HW183847   4.392   0.616   2.037 -1.2864  0.4198  0.6721
24639SOL    HW283848   4.335   0.588   1.899  0.3825  0.5583 -0.0774
24640SOL     OW83849   9.190  11.593   0.439 -0.0596  0.1089  0.2395
24640SOL    HW183850   9.230  11.648   0.506  2.5941 -2.3730  0.9232
24640SOL    HW283851   9.238  11.614   0.359  0.8676 -1.0105  0.4741
24641SOL     OW83852   4.110   0.244   3.251  0.1459 -0.0244 -0.2624
24641SOL    HW183853   4.092   0.159   3.209  1.1700  0.4621 -1.7921
24641SOL    HW283854   4.029   0.294   3.240 -0.1237 -0.4565 -0.2655
24642SOL     OW83855   3.278  11.906   5.574 -0.0092  0.3470  0.1068
24642SOL    HW183856   3.221  11.847   5.524  1.6711 -0.8951 -0.4479
24642SOL    HW283857   3.245  11.994   5.554 -1.4469 -0.2974 -0.5152
24643SOL     OW83858   9.968   7.879  10.963 -0.3668  0.2953 -0.0404
24643SOL    HW183859   9.955   7.842  11.050 -0.5026  0.8552  0.1821
24643SOL    HW283860  10.043   7.937  10.972  1.2592 -1.5657 -0.9064
24644SOL     OW83861   7.135   4.756   3.061  0.6846  0.0647  0.2412
24644SOL    HW183862   7.083   4.763   2.981 -0.7987  1.2289  1.2314
24644SOL    HW283863   7.199   4.688   3.043 -0.1888 -0.3266 -1.6052
24645SOL     OW83864  10.382   8.497   8.276  0.3009  0.2426  0.8860
24645SOL    HW183865  10.295   8.523   8.307 -0.2206 -0.9855  0.5239
24645SOL    HW283866  10.374   8.402   8.260  0.9458  0.5307 -1.5640
24646SOL     OW83867   2.260  10.714   2.525 -0.4088 -0.1816  0.1529
24646SOL    HW183868   2.171  10.713   2.558 -0.1767 -1.8055  0.7956
24646SOL    HW283869   2.254  10.674   2.438 -0.8484  3.1360 -1.5414
24647SOL     OW83870   8.680   0.020  10.512  0.2269  0.4897 -0.5543
24647SOL    HW183871   8.742   0.025  10.584 -0.8263 -1.5763  0.5820
24647SOL    HW283872   8.613   0.085  10.532  0.5906  0.8093 -0.3658
24648SOL     OW83873   2.763   7.681   3.132  0.1569  0.1045 -0.3851
24648SOL    HW183874   2.711   7.747   3.178  0.0353  1.1353 -1.9479
24648SOL    HW283875   2.711   7.658   3.055  2.7265  2.7050 -3.1927
24649SOL     OW83876   6.632  12.156   4.817 -0.2997  0.3223 -0.0595
24649SOL    HW183877   6.547  12.193   4.797  0.0569  0.7805 -0.7645
24649SOL    HW283878   6.672  12.217   4.879 -0.1218  0.5985 -0.4384
24650SOL     OW83879   6.802  12.540   6.621  0.2374 -0.0479  0.6536
24650SOL    HW183880   6.882  12.551   6.673  0.6132  1.1465 -0.1378
24650SOL    HW283881   6.776  12.450   6.637  2.9378 -1.2055 -0.6964
24651SOL     OW83882   0.840   5.358   1.979 -0.3600  0.3082 -0.3829
24651SOL    HW183883   0.918   5.308   1.957 -0.5377 -0.0753 -0.1336
24651SOL    HW283884   0.768   5.309   1.940 -0.8817 -1.2282  2.2623
24652SOL     OW83885   9.634   7.872   5.490 -0.2117 -0.2286 -0.4992
24652SOL    HW183886   9.709   7.930   5.505  2.9453 -3.0938 -3.5663
24652SOL    HW283887   9.568   7.930   5.452 -0.3014  2.6412  3.3263
24653SOL     OW83888  12.239   1.642   9.609 -0.9143  0.1588 -0.2327
24653SOL    HW183889  12.154   1.668   9.572 -0.8011  1.1291  0.1622
24653SOL    HW283890  12.257   1.708   9.675  0.9303  0.8942 -1.4173
24654SOL     OW83891   5.337  10.068  12.681  0.1199 -0.4898  0.0557
24654SOL    HW183892   5.296  10.106  12.604 -0.0152 -1.2051 -0.2416
24654SOL    HW283893   5.431  10.083  12.668  0.2273 -1.7990 -0.9488
24655SOL     OW83894  13.023   1.763   2.539  0.5845  0.3330 -0.1855
24655SOL    HW183895  12.974   1.844   2.546  1.0033  0.6668 -0.9722
24655SOL    HW283896  13.016   1.739   2.447  0.0880 -0.7674  0.1245
24656SOL     OW83897   4.823   0.446  11.547 -0.0257  0.2992  0.3424
24656SOL    HW183898   4.751   0.479  11.494  0.5410 -0.1388 -0.7481
24656SOL    HW283899   4.837   0.512  11.614  0.2948  1.7005 -1.0433
24657SOL     OW83900  10.289   4.383   7.643 -0.3804  0.2480 -0.4312
24657SOL    HW183901  10.336   4.405   7.563 -0.4716  1.7658 -0.1015
24657SOL    HW283902  10.283   4.466   7.691 -0.4846 -0.5868  1.0681
24658SOL     OW83903   5.607   3.747   2.822 -0.2637  0.0551 -0.4429
24658SOL    HW183904   5.623   3.660   2.860  0.5232  0.2821 -0.2217
24658SOL    HW283905   5.694   3.787   2.817 -0.3965  0.2264 -2.0496
24659SOL     OW83906   0.712   0.563   3.810 -0.2741 -0.2455 -0.3547
24659SOL    HW183907   0.641   0.503   3.834 -0.5695  0.4902  0.7431
24659SOL    HW283908   0.702   0.636   3.872  1.3679 -0.0672 -0.2614
24660SOL     OW83909  11.116   9.853   3.243 -0.7132 -0.3265  0.9246
24660SOL    HW183910  11.134   9.759   3.247 -0.1674 -0.2027  1.5791
24660SOL    HW283911  11.164   9.889   3.317  0.5013  0.7047 -0.3168
24661SOL     OW83912   8.544  10.947   7.432  0.0307 -0.0162 -0.0521
24661SOL    HW183913   8.467  10.966   7.486  1.0960  0.6172  1.2949
24661SOL    HW283914   8.563  11.030   7.388  0.0698 -0.1109 -0.2153
24662SOL     OW83915   6.671   2.631   3.620  0.1455 -0.3067  0.1567
24662SOL    HW183916   6.585   2.606   3.653  0.7975 -0.5966  1.7795
24662SOL    HW283917   6.655   2.710   3.568 -0.9194  0.6678  1.8344
24663SOL     OW83918   3.462   5.928   7.753  0.0114 -0.2066 -0.2801
24663SOL    HW183919   3.426   5.841   7.768 -0.4175  0.1279  0.7277
24663SOL    HW283920   3.556   5.913   7.741 -0.1002 -0.8382 -0.3794
24664SOL     OW83921   3.437   6.742   1.756 -0.0194 -0.7082  0.2041
24664SOL    HW183922   3.413   6.695   1.836  3.4404 -2.7581  0.2752
24664SOL    HW283923   3.439   6.834   1.781 -1.9662 -0.9853  1.5603
24665SOL     OW83924   4.162   9.403   9.873  0.4411  0.1329  0.4048
24665SOL    HW183925   4.229   9.428   9.810  0.5435 -1.2947 -0.1024
24665SOL    HW283926   4.131   9.485   9.909  1.8430  0.8750  0.0049
24666SOL     OW83927   4.976   0.868  13.201  0.5271 -0.0637  0.0264
24666SOL    HW183928   4.921   0.796  13.233 -2.4666  1.9530 -0.1519
24666SOL    HW283929   4.918   0.944  13.201  3.2314  2.1675 -0.7830
24667SOL     OW83930   8.163   0.524   6.263  0.1684 -0.0494  0.0486
24667SOL    HW183931   8.125   0.437   6.250 -0.3399 -0.0126  1.1814
24667SOL    HW283932   8.194   0.524   6.354  1.2693  0.5498 -0.3024
24668SOL     OW83933   4.147  11.552  11.802 -0.3837  0.6956 -0.2416
24668SOL    HW183934   4.117  11.596  11.722 -4.2429 -1.0153  0.0526
24668SOL    HW283935   4.141  11.459  11.783 -0.7815  0.2421  1.8096
24669SOL     OW83936   2.908  12.923  10.401 -0.4665  0.3623 -0.1432
24669SOL    HW183937   2.840  12.878  10.352 -0.6800 -0.5048  0.9129
24669SOL    HW283938   2.870  12.938  10.488  0.7963 -0.4428  0.5777
24670SOL     OW83939   0.932   7.494   2.794  0.0204  0.0841  0.1078
24670SOL    HW183940   0.887   7.454   2.720 -1.5215  1.3526  0.2972
24670SOL    HW283941   0.861   7.532   2.847  1.1929  0.4608  1.4661
24671SOL     OW83942   1.196   5.338   5.851  0.6436  0.1235 -0.3641
24671SOL    HW183943   1.113   5.385   5.860 -0.1612 -1.1866 -0.7570
24671SOL    HW283944   1.174   5.259   5.802  2.1358 -0.2384 -0.5020
24672SOL     OW83945   9.353   6.826   5.904 -0.0684  0.0133 -0.1204
24672SOL    HW183946   9.349   6.808   5.998  0.7820  0.6942  0.0575
24672SOL    HW283947   9.436   6.786   5.875  0.5193  1.2663 -0.2372
24673SOL     OW83948   8.763   6.061   2.351 -1.2902  0.0036 -0.6284
24673SOL    HW183949   8.697   6.130   2.344 -1.2414  0.1802  0.5252
24673SOL    HW283950   8.836   6.101   2.399  0.8795  0.6551 -4.1293
24674SOL     OW83951   8.107  12.584   3.345 -0.0475 -0.4533 -0.2619
24674SOL    HW183952   8.121  12.589   3.250  0.5349 -0.1998 -0.1628
24674SOL    HW283953   8.131  12.494   3.367 -3.2767 -1.5946 -0.8411
24675SOL     OW83954   5.037  13.150   8.843 -0.6377  0.1813 -0.0382
24675SOL    HW183955   5.029  13.160   8.938  0.8342  0.3096  0.0993
24675SOL    HW283956   5.103  13.216   8.818 -1.5075  0.6304 -1.2524
24676SOL     OW83957  12.281   8.571   9.658  0.4559  0.8892  0.3374
24676SOL    HW183958  12.318   8.512   9.724  2.5992  1.0978 -0.5790
24676SOL    HW283959  12.243   8.643   9.708 -1.3072 -0.7181  1.4429
24677SOL     OW83960   1.674   9.822  11.707 -0.1316  0.1907 -0.1021
24677SOL    HW183961   1.624   9.818  11.788 -0.5823  0.9892 -0.3315
24677SOL    HW283962   1.757   9.780  11.728 -0.1255  0.6554  0.8669
24678SOL     OW83963  10.433  12.734  12.165 -0.1699 -0.3629  0.1244
24678SOL    HW183964  10.473  12.803  12.112 -0.9713 -0.4897 -0.6812
24678SOL    HW283965  10.491  12.724  12.240  1.6440 -0.9725 -1.2908
24679SOL     OW83966   6.774   7.602   8.420  0.6023  0.8310 -0.3542
24679SOL    HW183967   6.780   7.675   8.359  0.7027  1.2177  0.1111
24679SOL    HW283968   6.694   7.620   8.471  0.5969  0.5897 -0.2735
24680SOL     OW83969   9.630  11.686  11.746  0.1948 -0.0741 -0.1106
24680SOL    HW183970   9.681  11.649  11.817  0.3729  0.7245  0.1896
24680SOL    HW283971   9.693  11.698  11.675  0.7572  2.0692  0.6715
24681SOL     OW83972  11.830  10.840  11.999 -0.4373 -0.1914 -0.2019
24681SOL    HW183973  11.753  10.885  11.965 -0.9020 -1.6634 -1.2184
24681SOL    HW283974  11.795  10.777  12.062  0.1407  0.4125  0.7566
24682SOL     OW83975   6.850   9.845   8.497  0.1486 -0.1259  0.2475
24682SOL    HW183976   6.779   9.793   8.458 -0.4611  1.9431 -1.5566
24682SOL    HW283977   6.827   9.936   8.478  3.7615  0.6355 -1.3379
24683SOL     OW83978  11.747   0.664   2.403 -0.1964 -0.6746  0.2950
24683SOL    HW183979  11.777   0.605   2.333 -1.0384 -0.8809  0.0903
24683SOL    HW283980  11.685   0.722   2.359  1.1117  0.8164  0.3501
24684SOL     OW83981   8.795   7.314   0.281 -0.1617 -0.1586 -0.1081
24684SOL    HW183982   8.829   7.233   0.319 -1.5003  0.2494  2.1718
24684SOL    HW283983   8.873   7.364   0.257  0.7165 -1.2867  0.3087
24685SOL     OW83984   3.935   4.118   0.836 -0.3590 -0.1294 -0.1367
24685SOL    HW183985   3.920   4.095   0.927  1.5287  0.6261  0.4138
24685SOL    HW283986   3.929   4.214   0.833 -2.7577 -0.2585 -1.3122
24686SOL     OW83987   2.345  12.532   3.610  0.0870 -0.5593  0.5287
24686SOL    HW183988   2.368  12.482   3.532  0.6921 -2.2243  1.7262
24686SOL    HW283989   2.285  12.600   3.578  2.4537  0.5883 -1.8165
24687SOL     OW83990   0.443   7.600  10.300 -0.3244 -0.0361  0.8410
24687SOL    HW183991   0.375   7.533  10.296 -0.0236 -0.2477 -1.5407
24687SOL    HW283992   0.513   7.561  10.353 -1.4904 -0.2698  2.2958
24688SOL     OW83993  12.052   0.500   5.603 -0.2500  0.2790 -0.2513
24688SOL    HW183994  12.071   0.521   5.512 -0.2118 -0.9078 -0.5339
24688SOL    HW283995  11.960   0.473   5.602 -0.5945  1.3728  0.2758
24689SOL     OW83996   3.310   4.939  11.260  0.0454  0.0290 -0.3761
24689SOL    HW183997   3.273   4.865  11.309 -0.2140  0.2720 -0.1995
24689SOL    HW283998   3.317   4.907  11.170  0.9192 -0.5630 -0.1063
24690SOL     OW83999   9.763   0.352   3.819  0.9714 -0.4678  0.0189
24690SOL    HW184000   9.734   0.304   3.742  1.3895 -0.5584 -0.0860
24690SOL    HW284001   9.711   0.432   3.819  1.6203 -0.0374 -0.8739
24691SOL     OW84002   8.221   2.989  12.069  0.2863  0.4789 -0.4346
24691SOL    HW184003   8.237   3.067  12.123  0.0883 -0.4518  1.0118
24691SOL    HW284004   8.133   2.961  12.094  1.4344 -1.9124  1.3352
24692SOL     OW84005   2.092  11.096  12.566 -0.1175 -0.3498 -0.5659
24692SOL    HW184006   2.014  11.124  12.614  1.3673  0.3637  1.5690
24692SOL    HW284007   2.082  11.135  12.480 -2.3459 -0.7176 -0.5493
24693SOL     OW84008   4.426  11.040   6.915 -0.3104  0.0416 -0.3147
24693SOL    HW184009   4.432  11.090   6.996 -1.0689 -0.9255  0.3638
24693SOL    HW284010   4.494  11.077   6.859  0.7221  0.2455  1.0217
24694SOL     OW84011   0.169   9.063   8.378  0.2658  0.1789 -0.2019
24694SOL    HW184012   0.210   9.075   8.292  0.4188  1.0996 -0.0166
24694SOL    HW284013   0.202   9.136   8.430 -1.4904  0.9159 -0.0134
24695SOL     OW84014   7.907  13.223   1.154 -0.0110 -0.5122  0.1882
24695SOL    HW184015   7.927  13.139   1.195  1.3742 -0.1000  0.3997
24695SOL    HW284016   7.883  13.202   1.064 -0.7100 -1.2131  0.5317
24696SOL     OW84017   9.207   1.187   8.779  0.7546 -0.3020 -0.1079
24696SOL    HW184018   9.188   1.261   8.722 -2.2494  0.3329  1.4962
24696SOL    HW284019   9.156   1.115   8.742  0.1178 -0.3308  0.7965
24697SOL     OW84020   5.140   8.547  10.053  0.2734  0.2046  0.1291
24697SOL    HW184021   5.135   8.457  10.086  2.6985 -0.3669 -0.9172
24697SOL    HW284022   5.135   8.538   9.958  0.4876  1.1914  0.0198
24698SOL     OW84023  10.488   3.706   1.358 -0.5605 -0.3058 -0.0647
24698SOL    HW184024  10.563   3.747   1.315 -0.7692 -0.3228 -0.4499
24698SOL    HW284025  10.447   3.653   1.289  0.2241 -1.8861  0.6460
24699SOL     OW84026   2.312  11.271   6.676 -0.2326 -0.2557 -0.0638
24699SOL    HW184027   2.221  11.272   6.707 -0.1330 -1.0395  0.2605
24699SOL    HW284028   2.304  11.284   6.581 -0.7373 -1.1419 -0.1531
24700SOL     OW84029   0.922   6.922  11.778  0.1622 -0.1325 -0.0215
24700SOL    HW184030   0.899   6.948  11.868  2.1734 -0.6370  0.6869
24700SOL    HW284031   0.866   6.846  11.761 -1.3964  0.9297  0.1613
24701SOL     OW84032   5.447   0.749   4.095 -0.6198  0.1549 -0.1464
24701SOL    HW184033   5.512   0.805   4.053 -0.8758  0.7795  0.2853
24701SOL    HW284034   5.417   0.799   4.171 -0.3298 -0.8673  0.6562
24702SOL     OW84035   2.269   8.464   8.583  0.1980 -0.0610 -0.3038
24702SOL    HW184036   2.197   8.415   8.623  0.4715 -0.3905 -0.2077
24702SOL    HW284037   2.333   8.397   8.561 -0.6271 -0.1310 -2.7960
24703SOL     OW84038   3.869   0.225   4.926 -0.2245  0.5085 -0.3009
24703SOL    HW184039   3.949   0.194   4.884 -0.4146 -0.5642  0.1144
24703SOL    HW284040   3.798   0.192   4.870 -0.3900  1.7239 -0.8484
24704SOL     OW84041  10.098   2.474   5.161 -0.6903 -0.5182 -0.1121
24704SOL    HW184042  10.123   2.399   5.215  1.6739 -0.0731 -0.4770
24704SOL    HW284043  10.095   2.439   5.072 -1.2436 -0.5404 -0.0829
24705SOL     OW84044  10.357   5.285   7.591  0.0843  0.3428  0.1001
24705SOL    HW184045  10.438   5.307   7.546 -0.0983  0.3170 -0.2458
24705SOL    HW284046  10.321   5.211   7.542 -0.0264  0.1956  0.3967
24706SOL     OW84047   3.277   4.566   8.460  0.1634  0.3498  0.1087
24706SOL    HW184048   3.194   4.610   8.442 -0.0007 -0.0529 -0.1417
24706SOL    HW284049   3.273   4.486   8.407  0.6986  0.3164  0.1174
24707SOL     OW84050   3.841   0.755   2.431 -0.1343  0.5122  0.0706
24707SOL    HW184051   3.809   0.704   2.505  0.0975  0.0361 -0.1488
24707SOL    HW284052   3.817   0.704   2.354  0.6779  0.4016 -0.1216
24708SOL     OW84053   7.880  10.725   4.345  0.2029  0.4539 -0.7057
24708SOL    HW184054   7.886  10.820   4.351  0.0333  0.4378 -0.2110
24708SOL    HW284055   7.947  10.700   4.282  1.7652  0.7073  0.7950
24709SOL     OW84056   0.087   5.195   2.189 -0.5302 -0.2202 -0.3188
24709SOL    HW184057   0.160   5.178   2.128 -0.5329  2.0406 -1.0423
24709SOL    HW284058   0.011   5.208   2.132 -0.4438  2.3811  0.0693
24710SOL     OW84059   0.029  10.076   8.319 -0.7264 -0.1426  0.1267
24710SOL    HW184060   0.048   9.983   8.318 -0.4688 -0.1170  1.1926
24710SOL    HW284061  -0.030  10.090   8.244 -0.8175 -1.1629  0.0014
24711SOL     OW84062   6.198  11.508   6.106  0.1262  0.4617 -0.1520
24711SOL    HW184063   6.118  11.478   6.063  1.2802  1.4230 -3.2193
24711SOL    HW284064   6.169  11.574   6.168 -1.6421 -0.9935  0.6392
24712SOL     OW84065  12.675  11.862   7.988  0.0276 -0.0458  0.0510
24712SOL    HW184066  12.757  11.911   7.994 -1.0083  1.7557  0.2007
24712SOL    HW284067  12.663  11.826   8.076  0.7846 -0.5684 -0.0492
24713SOL     OW84068   3.574   7.947   7.067  0.3198 -0.3907  0.1204
24713SOL    HW184069   3.520   7.873   7.093 -0.1330  0.1099  0.6409
24713SOL    HW284070   3.516   8.023   7.077  0.0533 -0.1648 -2.4962
24714SOL     OW84071   9.906   5.545   8.406  0.1901  0.0520 -0.9021
24714SOL    HW184072   9.975   5.577   8.465 -0.5708 -1.3072  0.8208
24714SOL    HW284073   9.937   5.459   8.377 -1.2220 -1.1274  0.8540
24715SOL     OW84074   5.723  10.541   7.751  0.1372 -0.2753  0.4080
24715SOL    HW184075   5.749  10.449   7.747 -0.5296 -0.5689  2.0594
24715SOL    HW284076   5.634  10.542   7.716  0.1020 -0.2663  0.4994
24716SOL     OW84077   3.320   0.947   2.979 -0.0711 -0.2418 -0.0089
24716SOL    HW184078   3.363   0.892   2.914  0.0627  0.3791 -0.4615
24716SOL    HW284079   3.229   0.918   2.980  0.3255 -1.5543  0.9400
24717SOL     OW84080   2.811   9.354   8.839 -0.0652 -0.0155  0.1145
24717SOL    HW184081   2.761   9.403   8.903  0.7598  0.9015  0.0828
24717SOL    HW284082   2.866   9.295   8.891 -0.7594 -0.6346  0.1649
24718SOL     OW84083   4.136   9.510  10.660  0.5434 -0.0785  0.2075
24718SOL    HW184084   4.124   9.415  10.660  1.2460 -0.1806  1.0023
24718SOL    HW284085   4.047   9.545  10.657  0.2770 -0.7029 -2.8674
24719SOL     OW84086   6.442  12.584   8.321 -0.3568  0.2254  0.3475
24719SOL    HW184087   6.474  12.530   8.393 -1.6724  0.6189  1.2600
24719SOL    HW284088   6.505  12.655   8.314  1.7691 -1.6725 -1.2906
24720SOL     OW84089   1.134  11.479   5.712  0.4536 -0.2446  0.2886
24720SOL    HW184090   1.102  11.447   5.797 -1.5452  0.2081 -0.2276
24720SOL    HW284091   1.187  11.556   5.733  0.3847 -0.4229  1.1517
24721SOL     OW84092   9.414   8.356   7.201  0.6635 -0.1004 -0.1451
24721SOL    HW184093   9.473   8.395   7.265  0.5016  0.7120 -0.4769
24721SOL    HW284094   9.435   8.263   7.202 -0.3092 -0.3515  2.0949
24722SOL     OW84095   6.474   9.807   7.552 -0.6830  0.0805  0.6532
24722SOL    HW184096   6.419   9.858   7.492  0.6380  1.3431  0.4625
24722SOL    HW284097   6.486   9.864   7.627 -0.2022 -0.4549  0.9877
24723SOL     OW84098   8.687   4.292  13.042 -0.2738 -0.2832  0.1505
24723SOL    HW184099   8.770   4.251  13.017  0.4847  0.4826  1.3027
24723SOL    HW284100   8.631   4.283  12.965  1.6094  1.1567 -1.4900
24724SOL     OW84101   4.376   7.616   7.598  0.1896 -0.1795  0.4153
24724SOL    HW184102   4.456   7.635   7.647 -0.5215 -1.2274  2.0493
24724SOL    HW284103   4.396   7.642   7.508  3.1663 -2.4281  0.2781
24725SOL     OW84104  13.028  11.210   5.424  0.3085 -0.1710 -0.1458
24725SOL    HW184105  13.099  11.146   5.425 -0.9881 -1.8648 -2.9700
24725SOL    HW284106  13.071  11.294   5.405  1.6098 -1.2612 -2.5007
24726SOL     OW84107   9.130   6.853  13.304  0.1536  0.3580 -0.1070
24726SOL    HW184108   9.206   6.826  13.355  0.6180  2.5502  0.4419
24726SOL    HW284109   9.118   6.946  13.325 -0.9759  0.7812 -2.3135
24727SOL     OW84110   4.213   5.472   4.902 -0.3433  0.3447 -0.3522
24727SOL    HW184111   4.258   5.441   4.823  1.1339  1.7016 -0.0966
24727SOL    HW284112   4.227   5.566   4.902 -0.1785  0.3641  1.6105
24728SOL     OW84113   1.040   3.407  11.270 -0.1503  0.5606 -0.4416
24728SOL    HW184114   0.969   3.378  11.328  0.2130 -0.0300 -0.2797
24728SOL    HW284115   1.120   3.384  11.318  0.1545  1.3482 -0.5584
24729SOL     OW84116  10.177   4.986   0.576  0.5487 -0.1922  0.2133
24729SOL    HW184117  10.185   5.058   0.514 -1.3917 -0.9597 -1.0287
24729SOL    HW284118  10.205   5.023   0.660  0.1834  1.8325 -0.4972
24730SOL     OW84119   3.835   8.396   3.148  0.2906 -0.3100 -0.2219
24730SOL    HW184120   3.784   8.442   3.081  0.6072 -0.2592 -0.4301
24730SOL    HW284121   3.899   8.461   3.177 -0.0015 -0.2534  0.3070
24731SOL     OW84122  11.598   6.621   3.457 -0.1812 -0.6106 -0.6026
24731SOL    HW184123  11.504   6.607   3.453 -0.2099 -0.8790  0.7220
24731SOL    HW284124  11.633   6.569   3.384 -1.0286 -0.6852 -0.9655
24732SOL     OW84125   7.616   9.516  12.148 -0.5688 -0.0248  0.0741
24732SOL    HW184126   7.527   9.515  12.185 -0.8728 -0.5470 -0.6452
24732SOL    HW284127   7.624   9.432  12.103  0.0579  0.2890 -0.4171
24733SOL     OW84128  10.276   9.066   0.094  0.7451 -0.1053  0.4827
24733SOL    HW184129  10.211   9.024   0.149  2.5570 -0.7706  2.2106
24733SOL    HW284130  10.279   9.156   0.124 -0.9312  0.5664 -1.1511
24734SOL     OW84131   2.033   6.740   7.898  0.0400 -0.6001  0.3180
24734SOL    HW184132   2.114   6.688   7.903  0.2810 -0.1433  1.9512
24734SOL    HW284133   2.043   6.792   7.818  0.4962 -1.9110 -0.5094
24735SOL     OW84134  10.015   6.767   7.526 -0.1368  0.6943  0.2454
24735SOL    HW184135  10.098   6.720   7.537  0.3153  1.2243 -0.7924
24735SOL    HW284136  10.039   6.859   7.527 -0.6766  0.8462 -0.3428
24736SOL     OW84137   4.821   6.971   8.419  0.8184  0.3059  0.4046
24736SOL    HW184138   4.858   6.908   8.481 -1.6239 -2.1661 -0.4334
24736SOL    HW284139   4.865   6.953   8.336 -0.9300 -1.5383 -0.2116
24737SOL     OW84140   1.961   2.871   9.620 -0.0101  0.0168 -0.1705
24737SOL    HW184141   2.027   2.940   9.613 -1.0006  0.8772 -1.3625
24737SOL    HW284142   1.963   2.827   9.535  0.2717 -1.1325  0.4134
24738SOL     OW84143   8.861  13.076   7.545  1.1243  0.2967 -0.2487
24738SOL    HW184144   8.929  13.015   7.574 -0.3659 -0.8071  1.1320
24738SOL    HW284145   8.799  13.021   7.496  0.7545  1.0976 -0.6945
24739SOL     OW84146   8.235  10.962   8.812  0.7408  0.5194  0.0942
24739SOL    HW184147   8.150  10.918   8.799  0.3373  1.4776 -0.6283
24739SOL    HW284148   8.300  10.897   8.786  0.2729 -0.3907  1.0827
24740SOL     OW84149   9.480   6.311   4.827  0.0399 -0.0032  0.6932
24740SOL    HW184150   9.567   6.271   4.837  0.1449 -0.3326 -1.1428
24740SOL    HW284151   9.433   6.251   4.769 -1.0398  0.7323  0.7778
24741SOL     OW84152   9.292   6.550   2.590 -0.1827 -0.4447  0.1948
24741SOL    HW184153   9.384   6.532   2.572 -0.1596  1.0622 -1.4168
24741SOL    HW284154   9.249   6.465   2.582  1.0728 -1.1988  1.1521
24742SOL     OW84155   9.644   9.802   5.075  0.0188 -0.0875  0.4502
24742SOL    HW184156   9.599   9.721   5.098 -0.7182 -0.2588 -1.4540
24742SOL    HW284157   9.599   9.834   4.998  1.5187  1.1307  0.0240
24743SOL     OW84158   8.374  11.743   2.357  0.5976 -0.2807 -0.4228
24743SOL    HW184159   8.363  11.762   2.450  0.8871 -0.1985 -0.4024
24743SOL    HW284160   8.392  11.828   2.317  0.7694 -0.3543 -0.5050
24744SOL     OW84161  10.026   7.778   3.508  0.4176  0.5229 -0.0093
24744SOL    HW184162  10.009   7.843   3.575  2.8957  1.6366 -0.3325
24744SOL    HW284163   9.993   7.696   3.544  2.7588  0.8312  3.1795
24745SOL     OW84164   3.471   4.411   8.998  0.3401  0.0457  0.7597
24745SOL    HW184165   3.384   4.437   9.028 -0.3792 -0.3187 -0.8949
24745SOL    HW284166   3.528   4.484   9.022 -0.8750  1.3441 -0.2046
24746SOL     OW84167  10.770   1.377   2.735 -0.1077  0.4438  0.2334
24746SOL    HW184168  10.700   1.417   2.787  0.2837  0.8234  0.4746
24746SOL    HW284169  10.850   1.392   2.787 -0.0834 -1.5741  0.8695
24747SOL     OW84170   7.785   9.780   4.120  0.3098  0.6487  0.0136
24747SOL    HW184171   7.836   9.795   4.041  0.6834 -1.4120 -0.1922
24747SOL    HW284172   7.708   9.836   4.110  0.7864  1.0964 -1.3663
24748SOL     OW84173   1.641  12.458   1.330  0.1201 -0.2103 -0.8974
24748SOL    HW184174   1.574  12.443   1.263 -1.2484 -1.3925  0.6602
24748SOL    HW284175   1.636  12.552   1.347  0.3901  0.0872 -2.3060
24749SOL     OW84176   4.012   3.421  13.086  0.6124 -0.0131  0.2773
24749SOL    HW184177   3.928   3.468  13.081  1.2721  1.0423 -1.6467
24749SOL    HW284178   3.989   3.330  13.071 -0.3925 -0.0072  1.5729
24750SOL     OW84179   5.954   9.445   1.100  0.6718  0.7150 -0.2264
24750SOL    HW184180   5.931   9.439   1.192  2.3922 -0.1654  0.1752
24750SOL    HW284181   6.049   9.435   1.097  0.5506 -0.5237 -2.1885
24751SOL     OW84182  13.058   0.598   4.616 -0.2850 -0.1723  0.0234
24751SOL    HW184183  12.974   0.553   4.629 -0.7043  1.0314  1.9838
24751SOL    HW284184  13.059   0.620   4.523 -2.0692 -0.3856 -0.0907
24752SOL     OW84185   1.206  10.640   7.259 -0.0174 -0.1789 -0.0554
24752SOL    HW184186   1.163  10.556   7.273 -0.6715  0.2970  0.9158
24752SOL    HW284187   1.298  10.618   7.244  0.4277 -0.9697  3.0471
24753SOL     OW84188   0.663   9.467   7.020  0.3348 -0.0300  0.0892
24753SOL    HW184189   0.685   9.400   7.085 -0.1399 -0.4374 -0.1640
24753SOL    HW284190   0.604   9.527   7.067 -0.5991 -0.7272 -0.1619
24754SOL     OW84191   8.251   5.166  11.081  0.4787  0.1062 -0.3461
24754SOL    HW184192   8.259   5.095  11.145 -1.0726  1.3466  1.3278
24754SOL    HW284193   8.326   5.155  11.023  2.2720 -0.8021  1.9921
24755SOL     OW84194  11.268   9.827   7.159 -0.1540 -0.0739 -0.4730
24755SOL    HW184195  11.207   9.882   7.208  0.9642  1.0758 -0.2932
24755SOL    HW284196  11.272   9.745   7.209 -0.4589  0.3716  0.3102
24756SOL     OW84197  13.072   7.551   6.442 -0.0368 -0.2846 -0.2691
24756SOL    HW184198  13.058   7.522   6.352 -1.0301  2.5305 -1.1018
24756SOL    HW284199  13.164   7.580   6.443  0.5681 -2.0439  0.2282
24757SOL     OW84200   9.876   7.740   9.646  0.3909 -0.2177 -0.0103
24757SOL    HW184201   9.802   7.780   9.601 -1.1917 -1.8130  1.0236
24757SOL    HW284202   9.906   7.670   9.587  1.5208  0.8030 -0.6961
24758SOL     OW84203   8.395  11.783  11.265  0.6194  0.6800  0.2397
24758SOL    HW184204   8.487  11.776  11.239  0.4574  3.1076 -1.3577
24758SOL    HW284205   8.398  11.830  11.348  0.8445 -0.3912  0.8542
24759SOL     OW84206   3.811  11.121   2.106 -0.1222  0.2880  0.9184
24759SOL    HW184207   3.857  11.038   2.114  0.0202  0.3117  0.3986
24759SOL    HW284208   3.811  11.157   2.194  0.1436 -0.0902  1.0757
24760SOL     OW84209   6.156   6.511   5.961  0.2691  0.2226  0.3961
24760SOL    HW184210   6.138   6.565   5.884 -2.6231  0.1420  0.9129
24760SOL    HW284211   6.112   6.428   5.944 -1.5437  0.6183  2.5246
24761SOL     OW84212   3.758   1.393  10.815 -0.2249 -0.0794  0.0216
24761SOL    HW184213   3.791   1.479  10.790 -0.3444  0.3027  1.0950
24761SOL    HW284214   3.815   1.366  10.887 -0.2598 -0.8499 -0.2347
24762SOL     OW84215   8.978  11.481   3.709  0.0875  0.0756  0.0967
24762SOL    HW184216   9.013  11.437   3.632  0.2450 -0.0377  0.2334
24762SOL    HW284217   8.974  11.573   3.684  0.7334  0.1287  0.1704
24763SOL     OW84218   7.526   0.381   5.573  0.0605 -0.2198 -0.2222
24763SOL    HW184219   7.546   0.456   5.518  0.8710 -0.8020 -0.7486
24763SOL    HW284220   7.437   0.356   5.550 -0.2447  0.6188  0.0198
24764SOL     OW84221   1.196   9.927   0.740 -0.1655  0.2458  0.1107
24764SOL    HW184222   1.147   9.845   0.743 -1.3774  0.9163 -0.3483
24764SOL    HW284223   1.270   9.914   0.799  0.2215 -1.5115 -0.7218
24765SOL     OW84224  11.840  12.794   2.536 -0.2649  0.1696  0.2802
24765SOL    HW184225  11.932  12.778   2.515  0.0088  2.0569 -0.1828
24765SOL    HW284226  11.794  12.785   2.452 -0.2924  0.4706  0.2596
24766SOL     OW84227   1.431   6.948  12.004 -0.1172 -0.0330 -0.3373
24766SOL    HW184228   1.525   6.927  12.006 -0.2987 -1.0380 -1.1417
24766SOL    HW284229   1.424   7.018  11.939  0.1874  0.7342  0.4474
24767SOL     OW84230   6.148  11.487   9.492  0.5073  0.4008 -0.1390
24767SOL    HW184231   6.210  11.519   9.558  0.3216  1.9911 -0.6904
24767SOL    HW284232   6.064  11.524   9.517  0.4519  1.1205 -1.3055
24768SOL     OW84233   6.479   7.054   9.247 -0.1788  0.0706  0.0931
24768SOL    HW184234   6.438   7.134   9.282 -0.6611 -0.8023  1.6156
24768SOL    HW284235   6.539   7.026   9.315  1.0406 -0.1228 -1.0311
24769SOL     OW84236  10.399   4.270   2.436 -0.0638  0.1342  0.2108
24769SOL    HW184237  10.334   4.211   2.400  0.3766 -0.1790 -0.0763
24769SOL    HW284238  10.417   4.332   2.366 -0.1904  0.3357  0.3552
24770SOL     OW84239   7.995  10.148   5.537  0.0127  0.5166 -0.0768
24770SOL    HW184240   7.999  10.242   5.556  2.0200  0.3217  0.6492
24770SOL    HW284241   8.086  10.118   5.543 -0.1969 -0.9926 -2.8774
24771SOL     OW84242   3.763   5.828   2.321 -0.2169  0.7951 -0.3481
24771SOL    HW184243   3.760   5.732   2.322  1.4200  0.7050  0.1819
24771SOL    HW284244   3.850   5.848   2.286 -0.4066  2.0769 -0.1304
24772SOL     OW84245   9.195  11.506   3.029  0.2914 -0.7128  0.5846
24772SOL    HW184246   9.109  11.545   3.016  0.3140 -0.0779  2.0989
24772SOL    HW284247   9.203  11.441   2.959 -1.1399 -0.3361  0.0377
24773SOL     OW84248   6.531   6.643   2.792 -0.4614 -0.3983 -0.0237
24773SOL    HW184249   6.467   6.708   2.765  0.4767  0.0779 -1.1789
24773SOL    HW284250   6.512   6.629   2.885 -3.1685 -1.3876 -0.6249
24774SOL     OW84251   0.852  10.090   8.423  0.5945  0.1049 -0.4610
24774SOL    HW184252   0.836  10.066   8.332  0.3174  1.1855 -0.7132
24774SOL    HW284253   0.825  10.181   8.429 -1.3219 -0.5064  1.2223
24775SOL     OW84254   8.667  12.367   8.562 -0.2044 -0.3108  0.4195
24775SOL    HW184255   8.647  12.459   8.547 -0.0303 -0.1714  0.9999
24775SOL    HW284256   8.593  12.335   8.614  0.3703 -0.1459  1.3712
24776SOL     OW84257   7.402   7.220   3.131 -0.0805 -0.2884 -0.1013
24776SOL    HW184258   7.495   7.211   3.114  1.0353  3.7660  2.4822
24776SOL    HW284259   7.365   7.253   3.049  0.8366 -1.1706 -0.8978
24777SOL     OW84260  10.512   6.170   1.044  0.2750  0.0308 -0.0247
24777SOL    HW184261  10.574   6.162   1.116 -0.2927 -3.0213  0.2521
24777SOL    HW284262  10.530   6.095   0.988  0.7756  2.3322 -3.2559
24778SOL     OW84263   3.618   9.562  12.184  0.2494 -0.7901  0.2549
24778SOL    HW184264   3.543   9.565  12.125 -0.2578 -1.7133  0.8229
24778SOL    HW284265   3.694   9.567  12.127 -0.2317  0.7343 -0.2909
24779SOL     OW84266   9.024   3.746  11.062  0.0004  0.4613  0.7205
24779SOL    HW184267   9.024   3.650  11.060 -0.3541  0.4603  0.7312
24779SOL    HW284268   9.083   3.769  11.134  0.3737  0.2584  0.4840
24780SOL     OW84269   3.600   2.171  10.556  0.1220  0.2129  0.0657
24780SOL    HW184270   3.548   2.128  10.623  1.0388 -2.2004 -0.6955
24780SOL    HW284271   3.538   2.231  10.513 -1.2649 -0.4864  1.0110
24781SOL     OW84272  12.655   1.972   2.463  0.1016 -0.5802 -1.2591
24781SOL    HW184273  12.744   1.996   2.438 -0.4876  2.2219 -1.0857
24781SOL    HW284274  12.657   1.971   2.559 -0.1766  0.1776 -1.2377
24782SOL     OW84275   5.950   4.835   2.493 -0.0849 -0.5681 -0.1645
24782SOL    HW184276   5.931   4.883   2.573 -3.4524 -0.1788 -1.0302
24782SOL    HW284277   5.941   4.900   2.423 -0.7321 -1.5718 -1.0561
24783SOL     OW84278   3.243   5.639   2.338 -0.1752  0.5720 -0.1585
24783SOL    HW184279   3.257   5.587   2.258 -1.1042  0.3486 -0.1882
24783SOL    HW284280   3.317   5.700   2.340 -0.6020  1.1935 -1.6912
24784SOL     OW84281   3.566   8.209  11.812  0.1559  0.4371 -0.6230
24784SOL    HW184282   3.640   8.171  11.766  1.1496 -0.3591  1.4727
24784SOL    HW284283   3.562   8.161  11.895 -1.7240  1.5410  0.0038
24785SOL     OW84284   5.045   4.084   8.183 -0.0215  0.2645  0.1428
24785SOL    HW184285   5.079   3.995   8.170 -0.1433 -0.0842  1.9577
24785SOL    HW284286   5.036   4.093   8.277 -1.6458  1.6246 -0.0945
24786SOL     OW84287   5.021  10.274   9.032  0.1025 -0.3986  0.1427
24786SOL    HW184288   5.040  10.259   9.124  0.6704  0.2301  0.1337
24786SOL    HW284289   4.964  10.201   9.007  1.9733 -2.0063  0.3390
24787SOL     OW84290   3.649   6.857   0.865  0.0224 -0.2803 -0.2769
24787SOL    HW184291   3.558   6.856   0.893  0.4797  0.5346  1.3646
24787SOL    HW284292   3.683   6.941   0.895  1.2654 -0.4540 -1.0866
24788SOL     OW84293  11.363   5.050   2.950  0.0035 -0.0078  0.5311
24788SOL    HW184294  11.316   4.967   2.956 -0.2037  0.0444 -0.2860
24788SOL    HW284295  11.294   5.116   2.945  0.1399  0.0457 -0.9866
24789SOL     OW84296   0.125   5.188   2.904  0.3402  0.1529 -0.3870
24789SOL    HW184297   0.114   5.280   2.930 -0.0978  0.3568 -1.2667
24789SOL    HW284298   0.076   5.139   2.970  0.1670  0.5845 -0.1877
24790SOL     OW84299   6.376   0.126   3.815 -0.1259  0.0308 -0.2049
24790SOL    HW184300   6.307   0.175   3.860 -0.5624 -0.9022  0.1811
24790SOL    HW284301   6.376   0.161   3.726  0.8547  2.0003  0.5307
24791SOL     OW84302   0.408   7.627   3.634  0.4014 -0.0368  0.4739
24791SOL    HW184303   0.334   7.660   3.583  1.1181  2.0915  0.6926
24791SOL    HW284304   0.406   7.532   3.622 -2.4638 -0.0900  0.6287
24792SOL     OW84305   5.097   4.485   7.376  0.0781  0.2579  0.3670
24792SOL    HW184306   5.073   4.548   7.309  1.6211  0.8460  0.3248
24792SOL    HW284307   5.165   4.432   7.336  1.0806  0.6675  1.4682
24793SOL     OW84308   5.849   4.166  11.983  0.1469  0.3925 -0.0612
24793SOL    HW184309   5.855   4.087  11.930  0.6393  0.3037  0.1263
24793SOL    HW284310   5.756   4.173  12.005  0.4442 -1.7263  2.3218
24794SOL     OW84311   9.441   9.719   5.831 -0.2938  0.6237 -0.0318
24794SOL    HW184312   9.419   9.695   5.741 -1.8447  2.1637 -0.1066
24794SOL    HW284313   9.358   9.716   5.878  0.4611  0.0821  1.3116
24795SOL     OW84314  10.008   1.033   5.404  0.0400  0.2579 -0.2554
24795SOL    HW184315  10.030   0.986   5.484 -2.5492  0.2757  0.5641
24795SOL    HW284316  10.036   0.974   5.334 -0.0648 -0.9938  0.7066
24796SOL     OW84317   3.236  13.042   5.469  0.1894 -0.2227 -0.3106
24796SOL    HW184318   3.231  13.131   5.504  1.9159 -0.5062  0.7592
24796SOL    HW284319   3.168  12.994   5.516 -0.9712  0.5662 -1.1223
24797SOL     OW84320   1.473  13.098   4.357 -0.2943 -0.6917  0.1839
24797SOL    HW184321   1.496  13.058   4.273 -0.1787 -1.0887  0.4002
24797SOL    HW284322   1.491  13.029   4.422 -1.0504 -0.6354  0.4667
24798SOL     OW84323  11.409  11.127   0.387 -0.1506 -0.1151  0.1398
24798SOL    HW184324  11.360  11.113   0.468 -0.9731 -1.3607 -0.5401
24798SOL    HW284325  11.351  11.180   0.332 -0.0194 -0.1343 -0.0184
24799SOL     OW84326   6.070   1.092  12.923  0.0531  0.0928  0.0899
24799SOL    HW184327   6.013   1.159  12.960 -1.7001  0.2533 -2.5995
24799SOL    HW284328   6.012   1.018  12.905  1.5056 -1.3015  0.8496
24800SOL     OW84329   1.336   5.137  12.402 -0.0337  0.7317  0.2961
24800SOL    HW184330   1.404   5.093  12.453 -0.6756 -0.2737  0.3057
24800SOL    HW284331   1.271   5.163  12.466 -1.7264 -2.1101 -0.0711
24801SOL     OW84332   1.147   9.726   5.011  0.6035 -0.3359 -0.1763
24801SOL    HW184333   1.100   9.781   5.074  1.4343 -0.8111  0.8947
24801SOL    HW284334   1.104   9.744   4.927  0.8957  1.9904  0.1104
24802SOL     OW84335   0.960  11.110   5.691  0.3866  0.6663  0.2596
24802SOL    HW184336   0.999  11.159   5.763  1.5839  1.7651 -1.0781
24802SOL    HW284337   1.013  11.134   5.615 -1.5251  0.4071 -1.2075
24803SOL     OW84338  12.749   3.350   4.881  0.4526  0.1050  0.0696
24803SOL    HW184339  12.668   3.301   4.866  0.0281  1.0990 -1.0495
24803SOL    HW284340  12.724   3.420   4.941  0.3477  0.6961 -0.6445
24804SOL     OW84341   1.333   2.668   9.750  0.3286 -0.5383  0.1828
24804SOL    HW184342   1.338   2.739   9.687 -0.0219  0.2825  1.0561
24804SOL    HW284343   1.241   2.667   9.778  0.0790 -2.0133 -0.5673
24805SOL     OW84344  11.199   2.092   6.878  0.3229 -0.6075  0.0579
24805SOL    HW184345  11.230   2.068   6.965  0.9993  2.1189  0.6563
24805SOL    HW284346  11.255   2.043   6.818  2.2653  0.1543  1.1746
24806SOL     OW84347   6.709   1.478   2.478  0.4395  0.3363  0.1983
24806SOL    HW184348   6.617   1.466   2.504  0.0393 -1.0276 -1.6523
24806SOL    HW284349   6.756   1.413   2.530  0.0065 -0.5694 -0.5072
24807SOL     OW84350   6.315   4.727   4.456 -0.1999  0.6741  0.4301
24807SOL    HW184351   6.332   4.710   4.363  0.0217 -0.4966  0.6685
24807SOL    HW284352   6.229   4.769   4.457 -0.9465 -0.7809 -0.1957
24808SOL     OW84353   4.476   6.958   6.322  0.1003  0.2497 -0.8854
24808SOL    HW184354   4.535   6.883   6.328 -1.0422 -0.5534  0.7841
24808SOL    HW284355   4.515   7.024   6.380 -0.3686 -0.0962 -0.1723
24809SOL     OW84356   4.818  12.333   8.378  0.2441  0.2324 -0.0605
24809SOL    HW184357   4.842  12.426   8.377  1.0823  0.0284  0.3619
24809SOL    HW284358   4.723  12.333   8.388  0.0076  1.0764 -1.9045
24810SOL     OW84359   4.864   9.935   9.633  0.4290 -0.0745  0.5756
24810SOL    HW184360   4.922   9.872   9.676  0.5179 -0.5075 -0.1771
24810SOL    HW284361   4.860   9.906   9.542 -1.6699 -0.5568  0.7903
24811SOL     OW84362   1.133   2.513   5.990 -0.7526 -0.8124 -0.0977
24811SOL    HW184363   1.122   2.576   5.920  0.2442 -0.7404 -0.1940
24811SOL    HW284364   1.106   2.560   6.069  2.7680  0.8389  0.3258
24812SOL     OW84365   0.153   5.948   3.956  0.3019 -0.2850 -0.0535
24812SOL    HW184366   0.239   5.983   3.977  0.2203  0.0154 -0.2113
24812SOL    HW284367   0.164   5.853   3.961  0.6712 -0.2528 -0.1899
24813SOL     OW84368   2.713   7.167   3.791  0.5218  0.6537 -0.0397
24813SOL    HW184369   2.637   7.134   3.840  2.2367  0.2942  2.5940
24813SOL    HW284370   2.683   7.171   3.700 -2.2726 -0.5161  0.7116
24814SOL     OW84371   0.948   1.251   2.573  0.4721  0.1453  0.2201
24814SOL    HW184372   0.962   1.253   2.668 -0.1139  1.4696  0.3008
24814SOL    HW284373   0.997   1.326   2.540 -1.1788  1.0681 -0.2355
24815SOL     OW84374   8.185   5.336   2.191  0.4117  0.0604 -0.1240
24815SOL    HW184375   8.161   5.246   2.214  2.1404 -0.3296  0.2651
24815SOL    HW284376   8.184   5.383   2.275  0.7876  0.0917 -0.1376
24816SOL     OW84377   1.094  11.194   8.726 -0.1479  0.2055  0.9142
24816SOL    HW184378   1.170  11.241   8.692 -0.6194  0.2535 -0.0961
24816SOL    HW284379   1.071  11.242   8.806 -0.6692  1.7882 -0.1298
24817SOL     OW84380   4.496  10.057   5.422 -0.5198  0.4764 -0.2803
24817SOL    HW184381   4.447  10.077   5.342 -0.8778 -2.1299 -0.7956
24817SOL    HW284382   4.582  10.096   5.408 -0.6781  0.3381 -1.8039
24818SOL     OW84383   2.836   4.365   8.981 -0.1827 -0.3495 -0.2473
24818SOL    HW184384   2.894   4.435   8.952 -0.8594 -0.5478 -2.2590
24818SOL    HW284385   2.894   4.302   9.025  0.6762  0.6871  0.1381
24819SOL     OW84386   1.025  10.415   9.520 -0.0570 -0.0027  0.0929
24819SOL    HW184387   0.963  10.344   9.503  0.6732 -0.6990  0.2588
24819SOL    HW284388   1.067  10.390   9.603 -0.8855  1.4144  0.9646
24820SOL     OW84389  11.756   1.412   6.860  0.3233  0.0337 -0.3165
24820SOL    HW184390  11.668   1.391   6.830 -0.6489  1.5940  1.2722
24820SOL    HW284391  11.749   1.421   6.955  2.6985 -1.9996  0.1733
24821SOL     OW84392   8.495   5.767   1.153  0.3131 -0.6032  0.2191
24821SOL    HW184393   8.551   5.842   1.134  0.7486 -0.9247  0.2080
24821SOL    HW284394   8.500   5.757   1.248  0.4078 -0.7270  0.2025
24822SOL     OW84395  12.312   4.121   0.480 -0.4449  0.5739  0.4116
24822SOL    HW184396  12.403   4.101   0.502 -0.2120 -1.7028 -2.0364
24822SOL    HW284397  12.314   4.213   0.452  1.2151  0.4455 -0.0081
24823SOL     OW84398   0.150   8.895   2.032  0.2054  0.1595  0.3031
24823SOL    HW184399   0.132   8.802   2.016  0.3524  0.1044  0.4469
24823SOL    HW284400   0.145   8.935   1.945  0.2958 -0.0113  0.2172
24824SOL     OW84401   1.143  12.135   7.846  0.7911  0.2110  0.2160
24824SOL    HW184402   1.113  12.044   7.849  1.9465 -0.1667  0.6638
24824SOL    HW284403   1.184  12.143   7.760  0.7808  0.2797  0.2179
24825SOL     OW84404   2.641   2.241  11.492 -0.2028 -0.5998 -0.0620
24825SOL    HW184405   2.722   2.271  11.532 -0.7646 -0.7510  1.2371
24825SOL    HW284406   2.669   2.179  11.424  0.8955  1.8012 -1.9370
24826SOL     OW84407   4.013   7.029   6.609 -0.4223 -0.4491  0.1892
24826SOL    HW184408   4.056   7.003   6.690 -1.0754 -2.0135  0.0744
24826SOL    HW284409   3.926   7.059   6.637  0.1248  1.1795  0.2603
24827SOL     OW84410   9.683   4.962   2.842 -0.0602  0.4899 -0.2157
24827SOL    HW184411   9.729   5.000   2.917  0.0149 -2.3081  1.2708
24827SOL    HW284412   9.672   4.870   2.864 -3.2746  0.2560 -2.0669
24828SOL     OW84413   4.191   0.662   2.496 -0.2502 -0.3487  0.4959
24828SOL    HW184414   4.122   0.644   2.432 -0.9030  2.2931  0.3415
24828SOL    HW284415   4.272   0.641   2.450 -0.7615  0.4590 -0.8418
24829SOL     OW84416  11.649   1.994   0.789  0.4256 -0.0539  0.4968
24829SOL    HW184417  11.635   1.902   0.811 -0.6501  0.2354  1.0766
24829SOL    HW284418  11.704   1.992   0.711  0.6100 -1.1818  0.6428
24830SOL     OW84419   7.103   6.146   1.420  0.0790 -0.6291 -0.1437
24830SOL    HW184420   7.124   6.191   1.338 -1.2396  0.7231  0.2066
24830SOL    HW284421   7.092   6.054   1.396 -0.8423 -0.1690 -1.6038
24831SOL     OW84422   1.971   1.810   6.305  0.3873  0.0575 -0.6197
24831SOL    HW184423   2.059   1.809   6.269  0.0811  0.2477 -1.3917
24831SOL    HW284424   1.917   1.847   6.235 -0.2268  0.3931  0.0196
24832SOL     OW84425   7.568   6.800  11.805  0.3749 -0.2027 -0.3178
24832SOL    HW184426   7.605   6.888  11.799  0.5605 -0.1759  0.9231
24832SOL    HW284427   7.607   6.753  11.732 -2.1686  1.5387 -3.0554
24833SOL     OW84428   5.064   8.131   7.686  0.1796  0.7363  0.5032
24833SOL    HW184429   5.141   8.187   7.699  0.4042  0.9890 -1.6257
24833SOL    HW284430   5.009   8.180   7.625 -0.9153 -0.1852  0.7181
24834SOL     OW84431  11.479   1.862   7.017 -0.0071 -0.1208 -0.1512
24834SOL    HW184432  11.545   1.884   7.082 -0.5104  0.6813  0.1047
24834SOL    HW284433  11.396   1.891   7.056 -0.2395  1.1219 -1.4693
24835SOL     OW84434   0.325   4.766  13.093 -0.0441  0.3032  0.2254
24835SOL    HW184435   0.263   4.737  13.160  0.1527 -0.7009  0.0032
24835SOL    HW284436   0.271   4.804  13.024 -0.4071 -0.3043  0.1627
24836SOL     OW84437   2.740  10.089   1.564 -0.3876  0.5892 -0.3646
24836SOL    HW184438   2.708  10.126   1.482 -1.7815 -2.5332 -1.3497
24836SOL    HW284439   2.828  10.056   1.543  0.4340  2.2784  0.2401
24837SOL     OW84440   5.839   7.152  11.266  0.7185 -0.3741  0.4249
24837SOL    HW184441   5.775   7.110  11.208  1.8743 -0.3067 -0.9508
24837SOL    HW284442   5.788   7.215  11.317 -0.1746  0.4512 -1.4026
24838SOL     OW84443   2.595   1.589  11.953  0.1299  0.0449  0.5655
24838SOL    HW184444   2.537   1.649  11.999 -2.4681 -1.5049 -0.4433
24838SOL    HW284445   2.557   1.581  11.865  1.5167 -1.5355  0.0535
24839SOL     OW84446   2.829   0.360  10.308 -0.1288  0.1779  0.1019
24839SOL    HW184447   2.856   0.442  10.266  0.7728  0.7013  1.6263
24839SOL    HW284448   2.910   0.326  10.346 -0.7447 -0.7573  0.5864
24840SOL     OW84449   8.678   0.248   3.163  0.2319  0.4788  0.0668
24840SOL    HW184450   8.705   0.248   3.255 -0.5712 -2.5084  0.4061
24840SOL    HW284451   8.659   0.156   3.144 -1.5257  1.2836 -2.5401
24841SOL     OW84452   6.715   3.228   2.049  0.0839  0.2988 -0.1307
24841SOL    HW184453   6.622   3.246   2.046 -0.1847 -0.8891  0.4309
24841SOL    HW284454   6.740   3.240   2.140  0.7069  1.6037 -0.4564
24842SOL     OW84455   5.499   9.438   7.389  0.4551 -0.2281  0.7393
24842SOL    HW184456   5.475   9.382   7.316  0.9754 -0.1036  0.4732
24842SOL    HW284457   5.557   9.384   7.443  1.1415  0.1256  0.3636
24843SOL     OW84458   9.434   3.455   3.266  0.7836  0.1820 -0.2189
24843SOL    HW184459   9.522   3.432   3.296  0.3601  0.6201  1.5361
24843SOL    HW284460   9.423   3.546   3.295 -0.3337  0.0413 -0.1470
24844SOL     OW84461   8.043   7.140   6.396 -0.7828 -0.4549  0.0454
24844SOL    HW184462   7.967   7.081   6.395 -0.0249 -1.5669  2.0793
24844SOL    HW284463   8.079   7.131   6.484  2.2763 -0.6603 -1.1115
24845SOL     OW84464   4.245   0.776   4.763 -0.3791  0.1850 -0.4474
24845SOL    HW184465   4.213   0.823   4.840  0.2215 -1.5164  0.9002
24845SOL    HW284466   4.167   0.731   4.729 -0.9235  1.9530 -1.6550
24846SOL     OW84467   9.671   8.153   2.305  0.1964 -0.6443 -0.2487
24846SOL    HW184468   9.692   8.245   2.319  0.7606 -0.7421 -0.4285
24846SOL    HW284469   9.734   8.123   2.240 -0.2447 -1.0591 -0.4937
24847SOL     OW84470   9.027   9.170   6.407  0.3991 -0.2055 -0.1701
24847SOL    HW184471   8.939   9.168   6.369 -0.4879 -0.2337  1.7360
24847SOL    HW284472   9.050   9.078   6.420 -0.2296 -0.1847  1.2728
24848SOL     OW84473   6.226   5.413   9.820 -0.2841 -0.6230 -0.4608
24848SOL    HW184474   6.221   5.501   9.856 -0.4223 -1.1269  0.8251
24848SOL    HW284475   6.149   5.406   9.763 -0.6768 -0.1438 -0.0066
24849SOL     OW84476   2.646   3.758  12.765 -0.4406  0.0937 -0.1951
24849SOL    HW184477   2.586   3.690  12.736 -0.6382 -0.3492  1.1913
24849SOL    HW284478   2.726   3.743  12.713 -0.0883 -1.8841  0.8279
24850SOL     OW84479   5.765  10.043  10.743 -0.1979 -0.2847  0.1319
24850SOL    HW184480   5.786  10.131  10.775  0.5883 -0.0442 -0.9891
24850SOL    HW284481   5.696  10.012  10.801 -0.5193  1.0925  0.5070
24851SOL     OW84482   7.281  10.877  10.229 -0.4724 -0.6098 -0.0003
24851SOL    HW184483   7.320  10.862  10.144 -0.5688 -0.3579 -0.0899
24851SOL    HW284484   7.290  10.793  10.275 -0.3400 -0.7179 -0.2231
24852SOL     OW84485   0.167   7.815  11.533  0.0020 -0.6977 -0.3098
24852SOL    HW184486   0.107   7.889  11.544 -0.6241 -1.2849  0.3159
24852SOL    HW284487   0.234   7.828  11.600  0.2253 -0.3836 -0.5904
24853SOL     OW84488   5.287   2.914   7.138 -0.1473  0.2800 -0.4666
24853SOL    HW184489   5.382   2.904   7.127 -0.2413  0.2303 -1.3315
24853SOL    HW284490   5.252   2.900   7.050 -1.1055 -1.4172  0.1445
24854SOL     OW84491  10.569  11.838   4.179 -0.6222 -0.5274  0.0422
24854SOL    HW184492  10.509  11.769   4.206 -1.0711  0.0149  0.4661
24854SOL    HW284493  10.656  11.804   4.199 -0.7805 -1.3381 -0.6237
24855SOL     OW84494   5.246   1.251   5.709 -0.3296 -0.4132 -0.4173
24855SOL    HW184495   5.168   1.210   5.745 -0.7386 -0.7266 -1.6042
24855SOL    HW284496   5.270   1.196   5.634  0.9388 -0.2372 -0.1624
24856SOL     OW84497   5.742   0.030   0.001  0.2594  0.2308  0.3571
24856SOL    HW184498   5.772   0.046   0.090  1.6099 -0.6366  0.0896
24856SOL    HW284499   5.670  -0.033   0.010  1.6786 -1.4241  0.7613
24857SOL     OW84500   6.248  10.356  11.091 -0.2953 -0.3513 -0.4869
24857SOL    HW184501   6.252  10.288  11.024  0.1402 -0.1018 -0.7221
24857SOL    HW284502   6.218  10.434  11.045 -1.2197 -0.4828 -0.1305
24858SOL     OW84503   0.871  10.119   2.585 -0.0306 -0.1685 -0.0639
24858SOL    HW184504   0.876  10.214   2.592  0.5256 -0.1638 -0.3921
24858SOL    HW284505   0.791  10.102   2.535 -0.9107  0.0528  1.2454
24859SOL     OW84506   3.470   0.509   2.988  0.3544 -0.6287  0.2793
24859SOL    HW184507   3.408   0.570   2.946  0.7598 -0.7040 -0.4407
24859SOL    HW284508   3.471   0.433   2.930  0.3047 -1.0761  0.8645
24860SOL     OW84509  11.579   2.114  13.213  0.1106  0.1801  0.4370
24860SOL    HW184510  11.524   2.143  13.286 -0.3990 -0.3013  0.2522
24860SOL    HW284511  11.584   2.019  13.224 -0.6362  0.0028 -0.6123
24861SOL     OW84512   8.078  12.767   1.786  0.0779 -0.0913 -0.7644
24861SOL    HW184513   8.014  12.828   1.749 -0.6293 -0.5747 -0.3679
24861SOL    HW284514   8.141  12.823   1.832 -0.1068  0.3819 -1.0765
24862SOL     OW84515  11.511   7.520   5.290 -0.6512  0.1799 -0.1452
24862SOL    HW184516  11.561   7.514   5.371  0.1323 -0.5599 -0.6603
24862SOL    HW284517  11.442   7.454   5.300  0.0564 -0.6370 -0.4694
24863SOL     OW84518   2.904   4.975   6.545 -0.0889  0.3691 -0.2821
24863SOL    HW184519   2.908   5.062   6.584  0.5352  0.4915 -0.6155
24863SOL    HW284520   2.969   4.923   6.592 -0.3189  0.1304 -0.2186
24864SOL     OW84521   5.765   1.018   6.839 -0.0622  0.1725  0.1467
24864SOL    HW184522   5.712   1.003   6.918 -0.5915  0.4111 -0.1542
24864SOL    HW284523   5.710   1.075   6.785  0.5054  0.4087 -0.1809
24865SOL     OW84524   0.640   0.056  11.234 -0.6564 -0.2428  0.0144
24865SOL    HW184525   0.675   0.070  11.322 -0.4324  1.1897 -0.2760
24865SOL    HW284526   0.670  -0.032  11.210  2.5570  0.7559 -0.1117
24866SOL     OW84527   6.835   9.663  10.799 -0.1157  0.2295 -0.1126
24866SOL    HW184528   6.861   9.755  10.801  0.4480  0.0852 -0.6670
24866SOL    HW284529   6.887   9.622  10.868 -0.5265  0.3572  0.2836
24867SOL     OW84530  11.944   1.918   7.418  0.1638 -0.3052  0.0033
24867SOL    HW184531  11.884   1.953   7.353 -0.4601 -0.5119  0.4636
24867SOL    HW284532  12.011   1.987   7.428  0.3584 -0.3447 -0.9628
24868SOL     OW84533   7.249   7.314  10.617  0.4822 -0.2348  0.7359
24868SOL    HW184534   7.244   7.226  10.654  0.1906 -0.8217 -0.6167
24868SOL    HW284535   7.223   7.372  10.688 -1.0840 -1.3835  1.1622
24869SOL     OW84536   3.497   9.806   4.248 -0.1496 -0.0196  0.3890
24869SOL    HW184537   3.520   9.864   4.321  0.4588 -0.2268  0.3653
24869SOL    HW284538   3.505   9.718   4.284  1.1457 -0.1614 -0.1942
24870SOL     OW84539   7.154  11.851   7.662  0.0582  0.1149  0.1522
24870SOL    HW184540   7.152  11.776   7.722 -0.7979 -0.8598 -1.0392
24870SOL    HW284541   7.133  11.813   7.577  0.9731  1.5104 -0.7274
24871SOL     OW84542   4.682   1.145   8.823 -0.4600 -0.5012 -0.1921
24871SOL    HW184543   4.636   1.206   8.766  0.8526 -1.2995 -2.2240
24871SOL    HW284544   4.705   1.071   8.766  2.0281 -0.7990  1.0511
24872SOL     OW84545  12.170   7.860   3.261 -0.1560 -0.8228 -0.4869
24872SOL    HW184546  12.147   7.768   3.260  1.0506 -1.1972  1.5137
24872SOL    HW284547  12.207   7.875   3.348 -0.7435  1.6583 -0.5817
24873SOL     OW84548  12.431   2.795  12.515 -0.0509  0.0339  0.2523
24873SOL    HW184549  12.345   2.833  12.533 -0.9699 -1.0581 -1.4686
24873SOL    HW284550  12.459   2.837  12.434 -0.2391 -1.5232 -0.6649
24874SOL     OW84551   5.145   6.773   7.876 -0.2926  0.2050  0.4213
24874SOL    HW184552   5.091   6.706   7.833 -1.6209  0.6695  1.2803
24874SOL    HW284553   5.168   6.834   7.806 -1.9723  0.6635  0.2022
24875SOL     OW84554   1.751  12.711   6.832 -0.0433 -0.2713  0.3009
24875SOL    HW184555   1.709  12.755   6.758  0.2092  0.8284  0.8017
24875SOL    HW284556   1.830  12.671   6.794  1.2699  2.1279  0.3447
24876SOL     OW84557   0.002   8.537   0.332 -0.1263  0.2915  0.1532
24876SOL    HW184558   0.093   8.515   0.312  0.3996  1.9536  0.4978
24876SOL    HW284559  -0.041   8.453   0.345  0.6337 -0.7055 -2.9705
24877SOL     OW84560   6.377  10.731  12.902 -0.1630 -0.3279 -0.1352
24877SOL    HW184561   6.414  10.646  12.927 -0.6127  0.0800  2.1841
24877SOL    HW284562   6.429  10.795  12.949  1.0462  0.8669 -2.9267
24878SOL     OW84563   4.116   7.370  13.097 -0.0188 -0.3255  0.1670
24878SOL    HW184564   4.035   7.418  13.112 -0.8737 -1.2247 -1.3414
24878SOL    HW284565   4.110   7.294  13.155 -0.1900 -0.3104  0.1689
24879SOL     OW84566   3.260   6.074  13.294  0.0336  0.3826 -0.2071
24879SOL    HW184567   3.220   6.135  13.232 -0.8161  0.9201  0.8529
24879SOL    HW284568   3.194   6.007  13.308 -0.1416  0.7583  0.8164
24880SOL     OW84569   7.717   7.760   6.434  0.4056  0.1521  0.0276
24880SOL    HW184570   7.693   7.698   6.364  0.8869 -1.3338  1.1414
24880SOL    HW284571   7.641   7.818   6.440 -0.1250 -0.4021 -0.9737
24881SOL     OW84572   1.499   9.535   1.869 -0.0420 -0.7177  0.1198
24881SOL    HW184573   1.566   9.479   1.909 -0.5927 -0.2719  1.7379
24881SOL    HW284574   1.479   9.600   1.936 -0.8590  0.2164 -0.9899
24882SOL     OW84575   5.111   2.957   6.008 -0.1279 -0.1691 -0.4616
24882SOL    HW184576   5.170   2.970   5.934  1.8344 -2.0028  0.6755
24882SOL    HW284577   5.093   3.044   6.041  2.7778  0.4314 -0.2603
24883SOL     OW84578   2.282   6.560   8.596  0.2554 -0.6503  0.0673
24883SOL    HW184579   2.330   6.641   8.613  3.3547 -2.3938  0.3596
24883SOL    HW284580   2.271   6.559   8.501  2.2486 -0.8685 -0.2088
24884SOL     OW84581   6.083   4.888   1.435  0.0299 -0.0558 -0.3889
24884SOL    HW184582   6.044   4.835   1.366 -0.8718 -0.7714  0.6385
24884SOL    HW284583   6.167   4.847   1.452  0.2641  0.1334 -1.0629
24885SOL     OW84584   0.158   7.679   3.484 -0.1201  0.2769  0.5626
24885SOL    HW184585   0.132   7.737   3.413  0.5593 -0.0299  0.0564
24885SOL    HW284586   0.126   7.722   3.563 -0.2948  0.9529  0.1290
24886SOL     OW84587  12.002  11.220   4.002 -0.0656  0.5637  0.0123
24886SOL    HW184588  12.026  11.132   3.973  0.2620  0.9005 -0.7813
24886SOL    HW284589  12.040  11.278   3.936 -0.6532  1.2747  0.2828
24887SOL     OW84590   1.551   5.160   2.178  0.2450  0.6648 -0.0029
24887SOL    HW184591   1.638   5.165   2.136 -0.1142  1.7543 -0.6597
24887SOL    HW284592   1.513   5.079   2.143  0.2503  1.1707 -1.2386
24888SOL     OW84593  11.650   4.686   3.322 -0.7010  0.2067 -0.5764
24888SOL    HW184594  11.718   4.663   3.385 -0.8043 -1.9610 -1.1760
24888SOL    HW284595  11.652   4.782   3.318  0.5552  0.3125  1.3059
24889SOL     OW84596   4.418   8.201  10.487 -0.2520 -0.6102  0.2475
24889SOL    HW184597   4.504   8.214  10.448 -0.4368 -1.1556 -0.3467
24889SOL    HW284598   4.357   8.240  10.424 -0.4075  0.2731  0.9259
24890SOL     OW84599  12.657   3.796   5.501 -0.1093 -0.1737  0.5594
24890SOL    HW184600  12.600   3.871   5.517  0.3451 -0.0420  1.6656
24890SOL    HW284601  12.691   3.773   5.588 -0.9945 -2.2727  0.3923
24891SOL     OW84602  10.532  13.103   8.956  0.0745 -0.3709  0.1999
24891SOL    HW184603  10.574  13.178   8.913  0.1944 -0.4145  0.2401
24891SOL    HW284604  10.445  13.135   8.980 -1.1324 -1.2456 -2.6843
24892SOL     OW84605   9.080   6.707   8.271 -0.4175  0.0375  0.1970
24892SOL    HW184606   9.033   6.623   8.281  0.0410 -0.2299  0.1257
24892SOL    HW284607   9.172   6.682   8.263 -0.4194  0.4494 -1.3977
24893SOL     OW84608   9.372  11.380   0.292  0.7506 -0.5214  0.1425
24893SOL    HW184609   9.330  11.466   0.284  1.3526 -0.2283  0.1300
24893SOL    HW284610   9.455  11.389   0.245  1.9221 -0.3863  2.1641
24894SOL     OW84611   0.424  13.142   2.761 -0.3928 -0.1916 -0.5548
24894SOL    HW184612   0.461  13.075   2.703 -1.4727  0.3988 -1.9756
24894SOL    HW284613   0.501  13.184   2.800  0.3232 -1.4767 -0.5313
24895SOL     OW84614   7.389   7.645   8.029 -0.6673  0.5552 -0.2206
24895SOL    HW184615   7.299   7.614   8.038 -0.8474  0.8053 -1.1176
24895SOL    HW284616   7.382   7.740   8.025 -0.2340  0.6631  1.0469
24896SOL     OW84617  10.216  10.378  11.366 -0.2343  0.5136 -0.4477
24896SOL    HW184618  10.254  10.314  11.426  1.0616  1.4252 -0.2337
24896SOL    HW284619  10.122  10.373  11.382 -0.0562 -0.4742  0.4309
24897SOL     OW84620  10.708   6.255   2.037 -0.0663  0.1897  0.4666
24897SOL    HW184621  10.788   6.213   2.069 -1.3909 -1.0121  2.5126
24897SOL    HW284622  10.684   6.316   2.107 -0.6819  0.8795 -0.3333
24898SOL     OW84623   1.263   1.586   3.368 -0.3532 -0.2338  0.7119
24898SOL    HW184624   1.169   1.589   3.352 -0.3543  0.1164  0.7678
24898SOL    HW284625   1.282   1.494   3.386 -0.2802 -0.7488 -1.7282
24899SOL     OW84626  12.622   2.430   2.439 -0.0393  0.3500  0.6759
24899SOL    HW184627  12.621   2.496   2.509  0.9645 -0.3576  1.3813
24899SOL    HW284628  12.596   2.349   2.482  1.2206 -0.2262  0.3925
24900SOL     OW84629   8.362   7.218   9.395 -0.1045  0.1510 -0.0037
24900SOL    HW184630   8.390   7.261   9.314 -1.1412 -0.9133 -0.9588
24900SOL    HW284631   8.267   7.207   9.385 -0.0016 -1.5793  0.5681
24901SOL     OW84632  12.417   0.418   8.078 -0.3609 -0.1372  0.1038
24901SOL    HW184633  12.377   0.479   8.140  1.6237  0.3449  1.0065
24901SOL    HW284634  12.505   0.402   8.114 -0.4383 -2.7521 -0.6344
24902SOL     OW84635   4.428   3.201   1.886  0.2622  0.3371  0.4762
24902SOL    HW184636   4.520   3.224   1.896  0.3841  0.1831 -0.2171
24902SOL    HW284637   4.400   3.246   1.807  0.3523 -1.3809 -0.5942
24903SOL     OW84638   2.712   9.227   5.351 -0.3119 -0.0447  0.0172
24903SOL    HW184639   2.806   9.242   5.358 -0.5876  1.2307  1.7278
24903SOL    HW284640   2.675   9.313   5.328 -1.1311 -0.2983  0.3331
24904SOL     OW84641   2.412   6.833  11.758  0.1154  0.5066  0.2458
24904SOL    HW184642   2.407   6.759  11.819 -1.5406  1.2971  1.1358
24904SOL    HW284643   2.370   6.802  11.678 -4.0328  1.4714  1.7933
24905SOL     OW84644  10.860   7.684   1.359  0.3267 -0.4305  0.0564
24905SOL    HW184645  10.766   7.669   1.348  0.5174 -0.8610 -1.1851
24905SOL    HW284646  10.875   7.672   1.453 -0.7284 -1.1455  0.1593
24906SOL     OW84647  13.141   9.817   4.718  0.7516 -0.9292  0.5286
24906SOL    HW184648  13.125   9.734   4.765  2.3464 -2.5757 -1.6287
24906SOL    HW284649  13.062   9.830   4.665  0.4560 -1.0008  0.9438
24907SOL     OW84650   7.074  12.993   8.461 -0.2850  0.2627  0.0321
24907SOL    HW184651   7.060  12.903   8.430  0.0549  0.9434 -2.2679
24907SOL    HW284652   6.988  13.034   8.455 -0.0901  0.5792 -0.6549
24908SOL     OW84653   0.067   1.492  10.592 -0.3303 -0.4991 -0.1549
24908SOL    HW184654   0.006   1.470  10.663  2.2566  0.5363  2.6343
24908SOL    HW284655   0.151   1.502  10.636  1.6711 -0.6790 -3.5950
24909SOL     OW84656  10.208   7.466   2.260 -0.3717 -0.0273 -0.5234
24909SOL    HW184657  10.182   7.384   2.217 -0.9331  0.1727 -0.5648
24909SOL    HW284658  10.130   7.521   2.258 -0.6043 -0.2083  1.2231
24910SOL     OW84659  11.463   3.678   9.990  0.2711 -0.6478  0.1794
24910SOL    HW184660  11.536   3.636   9.944  1.3925  1.2402  0.1622
24910SOL    HW284661  11.504   3.726  10.062 -1.0878 -0.4305  0.8431
24911SOL     OW84662   1.727   6.148  11.385  0.2172 -0.1507 -0.2029
24911SOL    HW184663   1.809   6.101  11.371 -0.1630 -0.4190 -1.7436
24911SOL    HW284664   1.704   6.131  11.476  1.5271 -0.6085  0.0593
24912SOL     OW84665   6.166   1.456  10.071 -0.4026  0.6054  0.3151
24912SOL    HW184666   6.234   1.389  10.058 -0.2898  0.4153  1.7522
24912SOL    HW284667   6.181   1.488  10.160 -2.5334  0.1489  0.8902
24913SOL     OW84668   8.683   4.134  12.185 -0.2192  0.1524  0.2998
24913SOL    HW184669   8.754   4.092  12.234 -0.4350 -0.5311  0.0393
24913SOL    HW284670   8.689   4.097  12.097 -0.4257  0.6632  0.0675
24914SOL     OW84671   8.377  12.241   6.697  0.2112  0.3588  0.7449
24914SOL    HW184672   8.370  12.149   6.723 -2.5967  0.1985 -0.2323
24914SOL    HW284673   8.309  12.252   6.630  1.6649  2.7346 -0.4574
24915SOL     OW84674   6.735   2.121   8.501  0.0092 -0.0091 -0.2064
24915SOL    HW184675   6.830   2.134   8.504  0.2526 -1.0408 -2.1600
24915SOL    HW284676   6.724   2.026   8.492 -1.2889 -0.0430  1.2758
24916SOL     OW84677   3.386   4.575  10.330 -0.0057  0.1480  0.0977
24916SOL    HW184678   3.335   4.639  10.379 -1.5977 -0.1914 -1.0247
24916SOL    HW284679   3.406   4.618  10.248 -1.9572 -1.0306 -1.0936
24917SOL     OW84680   8.119   7.608   6.279 -0.6088 -0.5287 -0.7413
24917SOL    HW184681   8.065   7.670   6.231 -1.5656 -1.3456 -0.7562
24917SOL    HW284682   8.090   7.617   6.370 -0.5859 -0.7642 -0.7086
24918SOL     OW84683  12.146  12.669   4.983  0.2952  0.4755 -0.2449
24918SOL    HW184684  12.181  12.735   5.043  1.7701  0.8574 -1.4969
24918SOL    HW284685  12.103  12.606   5.041  0.0723  1.7804  1.0773
24919SOL     OW84686   5.966  11.800   6.487 -0.2656  0.2860  0.0597
24919SOL    HW184687   5.894  11.844   6.441  1.3041 -0.2814 -3.2470
24919SOL    HW284688   6.034  11.867   6.494  0.1368 -0.1020 -0.0529
24920SOL     OW84689   6.936  11.970   4.236  0.4204  0.2888 -0.0581
24920SOL    HW184690   6.990  12.048   4.254 -0.8745  1.1846  0.0564
24920SOL    HW284691   6.888  11.955   4.316  1.9990 -1.8115  0.5957
24921SOL     OW84692   6.855   8.076   4.034 -0.6997 -0.1481 -0.1385
24921SOL    HW184693   6.907   7.999   4.012  1.0824  0.4788  1.5320
24921SOL    HW284694   6.855   8.129   3.954  2.1362  0.2494  0.0240
24922SOL     OW84695  10.852   8.202  10.662  0.0167  0.0693 -0.2588
24922SOL    HW184696  10.945   8.209  10.682  0.6765 -0.1772 -2.8881
24922SOL    HW284697  10.842   8.247  10.578 -1.5350 -2.7236 -1.7497
24923SOL     OW84698   1.415   6.314   7.881  0.5564  0.5543  0.3127
24923SOL    HW184699   1.499   6.268   7.884  0.7327  0.6351 -1.9810
24923SOL    HW284700   1.437   6.403   7.853 -0.0999  1.2471  1.8727
24924SOL     OW84701   1.721   7.113   2.558  0.2835  0.1880 -0.3594
24924SOL    HW184702   1.675   7.180   2.508 -3.5346 -1.9523 -0.0485
24924SOL    HW284703   1.677   7.031   2.535  2.0339 -1.6798  2.3322
24925SOL     OW84704   9.138  12.415   4.983  0.2096 -0.3116  0.1442
24925SOL    HW184705   9.170  12.503   5.004 -0.2726 -0.3114  0.9168
24925SOL    HW284706   9.138  12.369   5.067 -1.2833 -0.4842  0.0691
24926SOL     OW84707  10.559   6.123   4.194  0.1730  0.0594 -0.0391
24926SOL    HW184708  10.538   6.029   4.186 -0.0979  0.1028  0.1258
24926SOL    HW284709  10.642   6.133   4.148  0.9619 -0.5342  1.2079
24927SOL     OW84710   8.477  10.505   1.547  0.0917 -0.1296  0.2221
24927SOL    HW184711   8.415  10.437   1.522  1.3564 -0.4640 -2.2659
24927SOL    HW284712   8.533  10.464   1.613 -1.2108 -0.3533  1.2371
24928SOL     OW84713   7.896   6.821   0.142 -0.0968  1.1023  0.1953
24928SOL    HW184714   7.932   6.812   0.054  1.3287 -1.2523  0.9412
24928SOL    HW284715   7.972   6.832   0.199 -0.7624 -0.1508  1.3970
24929SOL     OW84716   2.407  11.566  11.681 -0.1438  0.1313  0.4376
24929SOL    HW184717   2.474  11.536  11.619 -0.2215 -0.1295  0.4772
24929SOL    HW284718   2.457  11.606  11.752 -0.0796  0.9804 -0.0809
24930SOL     OW84719   6.799  11.961   4.450  0.8456  0.1099  0.2908
24930SOL    HW184720   6.730  11.897   4.467 -1.4710  2.3199 -0.2006
24930SOL    HW284721   6.835  11.982   4.536  0.0390 -0.1696  0.7017
24931SOL     OW84722   8.138   3.643   0.454 -0.0485 -0.0401  0.4177
24931SOL    HW184723   8.084   3.582   0.504 -0.5445  0.3903  0.4070
24931SOL    HW284724   8.204   3.673   0.516  1.0774 -1.6368  0.0708
24932SOL     OW84725   9.584  12.913   6.570  0.3332  0.6726  0.0780
24932SOL    HW184726   9.564  12.979   6.637 -1.3223 -0.1449  0.4548
24932SOL    HW284727   9.589  12.831   6.619  2.2725  0.4716 -0.3958
24933SOL     OW84728  11.771  11.780   5.596  0.6176 -0.3250  0.1373
24933SOL    HW184729  11.743  11.753   5.683  1.6214  1.5841  1.1121
24933SOL    HW284730  11.864  11.757   5.593  0.9283  0.8635  0.1327
24934SOL     OW84731  12.629  12.242   1.618 -0.3941  0.1997 -0.0096
24934SOL    HW184732  12.564  12.192   1.667  0.2370  1.0313  1.7416
24934SOL    HW284733  12.617  12.332   1.648  0.5778  0.6044 -0.7760
24935SOL     OW84734   2.194   3.544   6.540 -0.2056  0.7105  0.6091
24935SOL    HW184735   2.222   3.528   6.450 -1.3973 -2.6469  0.6733
24935SOL    HW284736   2.267   3.514   6.593 -0.3223  0.6730  0.7494
24936SOL     OW84737  10.578   1.301   4.999 -0.4498  0.2104 -0.1045
24936SOL    HW184738  10.494   1.261   4.977 -1.0174  1.5249 -0.4431
24936SOL    HW284739  10.556   1.373   5.058  0.4617  0.4477 -0.0287
24937SOL     OW84740   9.676   5.280  10.090  0.3232 -0.1439 -0.4892
24937SOL    HW184741   9.729   5.331  10.151  0.9441 -1.7414  0.3680
24937SOL    HW284742   9.713   5.192  10.094 -0.0727 -0.4691 -2.6493
24938SOL     OW84743   9.823   5.030   1.935 -0.3401  0.3456 -0.2920
24938SOL    HW184744   9.768   5.093   1.888  1.6801  2.1075 -0.4389
24938SOL    HW284745   9.825   5.062   2.025 -1.2113 -0.9237  0.2076
24939SOL     OW84746   8.384  10.243   1.086  0.2714  0.3663 -0.2740
24939SOL    HW184747   8.418  10.155   1.104 -0.6326 -0.1537 -1.0099
24939SOL    HW284748   8.313  10.229   1.024 -0.5598  1.5283  0.3809
24940SOL     OW84749   7.357  11.992   9.430 -0.6450  0.0952 -0.2587
24940SOL    HW184750   7.331  12.078   9.463 -1.9209 -0.9309  1.5517
24940SOL    HW284751   7.297  11.930   9.471  0.9222 -1.7982 -0.6245
24941SOL     OW84752   8.377  10.241  12.217 -0.4781  0.7820  0.0933
24941SOL    HW184753   8.380  10.162  12.163  0.4083  0.6641  0.3012
24941SOL    HW284754   8.292  10.281  12.198 -1.5157 -0.9118  0.9736
24942SOL     OW84755   3.871   6.335   4.887 -0.1367  0.2152  0.2177
24942SOL    HW184756   3.863   6.426   4.858 -2.0327  0.0433  0.0625
24942SOL    HW284757   3.878   6.341   4.982  2.2663  0.5956  0.0777
24943SOL     OW84758  10.622   3.058  10.720  0.2239 -0.5277  0.3113
24943SOL    HW184759  10.526   3.055  10.719  0.1795  0.6527  0.1972
24943SOL    HW284760  10.646   3.056  10.627  0.1041  3.4210  0.0408
24944SOL     OW84761  10.852   4.573  10.160  0.1258  0.5742 -0.5794
24944SOL    HW184762  10.880   4.646  10.104  1.0224  0.3278 -0.4691
24944SOL    HW284763  10.759   4.591  10.178  0.5507  2.2031  0.2179
24945SOL     OW84764   2.565  11.441   2.715  0.2542  0.0515  0.7941
24945SOL    HW184765   2.539  11.463   2.804  2.3469  1.6711  1.0831
24945SOL    HW284766   2.515  11.502   2.660 -1.5596 -1.4012  0.7192
24946SOL     OW84767   6.161   9.208   3.635 -0.3759  0.0765  0.1655
24946SOL    HW184768   6.130   9.246   3.553  1.1274  3.0289  0.8273
24946SOL    HW284769   6.116   9.259   3.703  1.2866  0.3397  1.1232
24947SOL     OW84770  10.084   7.934   0.488  0.3014  0.4722  0.2172
24947SOL    HW184771  10.063   7.989   0.564 -1.2054 -0.2799  0.3685
24947SOL    HW284772  10.175   7.957   0.467  0.2688  1.7532  1.3369
24948SOL     OW84773   1.720   6.491   0.886 -0.4126 -0.1324 -0.3153
24948SOL    HW184774   1.717   6.578   0.927 -0.0384  0.5943 -1.7658
24948SOL    HW284775   1.776   6.503   0.809 -0.5026 -1.6241 -0.6338
24949SOL     OW84776  12.677   4.321  10.989 -0.1569 -0.3483  0.8268
24949SOL    HW184777  12.634   4.322  10.904  3.4030  1.1345 -1.1932
24949SOL    HW284778  12.685   4.228  11.012  0.8057 -0.9525 -1.6690
24950SOL     OW84779   4.700   4.494   8.106 -0.1675 -0.0114 -0.2190
24950SOL    HW184780   4.761   4.561   8.136  0.4817 -0.7969  0.2680
24950SOL    HW284781   4.614   4.534   8.114  0.2017  0.7194  0.1762
24951SOL     OW84782   1.306   6.399   4.127  0.5482 -0.2778  0.7487
24951SOL    HW184783   1.357   6.456   4.069  1.5607 -0.2027  1.6825
24951SOL    HW284784   1.216   6.431   4.118  0.8560  0.4370  0.0580
24952SOL     OW84785   2.373   3.869   3.886  0.3459 -0.1598 -0.2097
24952SOL    HW184786   2.321   3.822   3.952 -1.9259 -0.6930 -2.2380
24952SOL    HW284787   2.357   3.962   3.905  1.3161 -0.2196  1.1139
24953SOL     OW84788  11.802   5.541   1.087  0.3082  0.4661  0.2156
24953SOL    HW184789  11.847   5.506   1.010 -0.6993  0.1331 -0.2343
24953SOL    HW284790  11.842   5.626   1.102  1.2007  0.1104 -0.0691
24954SOL     OW84791   7.299   2.190   0.035 -0.4123  0.2208  0.4642
24954SOL    HW184792   7.297   2.096   0.017 -1.6106 -0.0454  1.7715
24954SOL    HW284793   7.207   2.214   0.046 -0.2017  1.7770 -0.8395
24955SOL     OW84794  12.961   3.781  12.142 -0.0528 -0.3473  0.1430
24955SOL    HW184795  12.974   3.856  12.199 -0.0920  1.4069 -2.0317
24955SOL    HW284796  12.979   3.814  12.054  1.8121 -3.3334 -0.7772
24956SOL     OW84797   2.388  10.988  12.822  0.0951 -1.1630  0.3462
24956SOL    HW184798   2.345  11.061  12.778  1.0553 -0.2634  0.8464
24956SOL    HW284799   2.317  10.936  12.859 -0.5728  0.5586  1.6210
24957SOL     OW84800   7.845   6.363   4.333  0.4619 -0.3405  0.8499
24957SOL    HW184801   7.817   6.348   4.243 -1.1448 -1.8889  1.5354
24957SOL    HW284802   7.840   6.457   4.345  2.6191  0.1209 -1.2133
24958SOL     OW84803   4.205   1.333   3.675  0.0369  0.3847  0.2234
24958SOL    HW184804   4.186   1.281   3.598  0.6013 -1.8693  1.5139
24958SOL    HW284805   4.300   1.342   3.676  0.0436  0.3019  0.7226
24959SOL     OW84806   3.049   9.644   9.766  0.0955 -0.1395  0.5210
24959SOL    HW184807   3.098   9.636   9.684 -0.4519  1.2390  0.0295
24959SOL    HW284808   3.099   9.707   9.817 -0.9026  0.9439  0.1942
24960SOL     OW84809   8.833  10.242   1.042 -0.7296 -0.0724 -0.6898
24960SOL    HW184810   8.925  10.247   1.017 -0.5096 -0.5533 -0.0215
24960SOL    HW284811   8.790  10.201   0.968 -0.9657  2.8597 -2.3067
24961SOL     OW84812   3.778  10.513   3.044  0.3474  0.0029  0.3640
24961SOL    HW184813   3.728  10.451   2.991  0.0545 -1.8547  2.6271
24961SOL    HW284814   3.715  10.582   3.067  0.2625  0.3785 -0.9457
24962SOL     OW84815   3.393   8.017   8.002 -0.1520 -0.6536 -0.2638
24962SOL    HW184816   3.444   7.973   7.935 -1.5681 -1.7767 -0.6566
24962SOL    HW284817   3.432   7.989   8.085 -1.0995 -2.8676 -0.4908
24963SOL     OW84818   6.343   9.210   3.317  0.1577  0.4104 -0.0281
24963SOL    HW184819   6.428   9.180   3.286 -0.2102 -0.2202 -0.4474
24963SOL    HW284820   6.291   9.130   3.325  0.4748  0.4057  3.0739
24964SOL     OW84821   3.425  13.231  12.395  0.1498  0.1548  0.1346
24964SOL    HW184822   3.494  13.247  12.330 -0.7897  1.3334 -0.6174
24964SOL    HW284823   3.472  13.206  12.475  1.3975  0.1188 -0.5907
24965SOL     OW84824   9.641   1.892  10.945 -0.0697  0.3660 -0.0056
24965SOL    HW184825   9.685   1.853  11.020  0.1214 -0.8170 -0.7078
24965SOL    HW284826   9.560   1.841  10.935 -0.6296  1.2114  0.0379
24966SOL     OW84827  10.991   8.257   0.357  0.0176  0.0604  0.9473
24966SOL    HW184828  10.980   8.162   0.370 -0.1482 -0.0966 -0.2530
24966SOL    HW284829  11.085   8.272   0.368  0.0103 -0.1936  1.3937
24967SOL     OW84830  12.779   6.212  13.190  0.1901 -0.9695  0.4895
24967SOL    HW184831  12.874   6.227  13.183  0.2921 -0.8630  1.8407
24967SOL    HW284832  12.743   6.247  13.109  1.3063 -0.9623 -0.0191
24968SOL     OW84833   4.415   7.618  10.771 -0.2499  0.1206 -0.1064
24968SOL    HW184834   4.452   7.674  10.840 -1.3758 -0.7074  1.2223
24968SOL    HW284835   4.395   7.679  10.700  2.2709  0.7974 -0.3361
24969SOL     OW84836   2.979   4.977   8.859 -0.2494 -0.2491 -0.0117
24969SOL    HW184837   3.067   4.941   8.869  0.7007  1.9362  0.0583
24969SOL    HW284838   2.965   5.028   8.939 -0.6036  1.2954 -1.0133
24970SOL     OW84839  12.246  11.956  10.827  0.9084 -0.2541 -0.0182
24970SOL    HW184840  12.320  11.998  10.783 -0.8912  2.9715 -0.2908
24970SOL    HW284841  12.246  11.994  10.914  1.4110 -2.7481  1.1737
24971SOL     OW84842  12.725   4.053   6.151  0.1352  0.2062 -0.1560
24971SOL    HW184843  12.763   4.041   6.064 -0.2851  0.4863 -0.3824
24971SOL    HW284844  12.733   3.967   6.193 -0.5375 -0.1905 -0.8211
24972SOL     OW84845   0.609   7.009  12.266 -0.0521  0.3699 -0.2300
24972SOL    HW184846   0.657   6.987  12.345  2.1299  2.2993 -0.9029
24972SOL    HW284847   0.525   7.042  12.297  0.0430 -0.5687  1.1331
24973SOL     OW84848  13.158  12.962  10.596  0.3406 -0.5507 -0.2902
24973SOL    HW184849  13.194  12.937  10.511 -1.4935  0.2174 -1.3380
24973SOL    HW284850  13.146  12.880  10.643 -1.8400 -1.3424 -2.1210
24974SOL     OW84851   6.215   6.762   4.767  0.1433 -0.0465  0.8556
24974SOL    HW184852   6.190   6.782   4.858  0.6464  0.0718  0.9675
24974SOL    HW284853   6.131   6.754   4.722 -0.1339 -0.8142  1.4746
24975SOL     OW84854   1.814   3.276  10.582 -0.9179  0.6565  0.3826
24975SOL    HW184855   1.778   3.350  10.533 -0.6180 -0.5148 -1.7770
24975SOL    HW284856   1.739   3.218  10.597 -0.5524 -0.4845 -1.6741
24976SOL     OW84857  11.501   5.765   7.797  0.1325 -0.6435  0.1735
24976SOL    HW184858  11.491   5.859   7.787  0.5310 -0.5361  0.7225
24976SOL    HW284859  11.554   5.755   7.876  0.3750 -1.3134 -0.0659
24977SOL     OW84860  11.070  10.867   0.432  0.7274 -0.7173  0.0528
24977SOL    HW184861  11.046  10.957   0.408  1.0816 -0.5403  0.3568
24977SOL    HW284862  11.090  10.824   0.349  0.5452 -0.5177 -0.0939
24978SOL     OW84863  12.350   5.808  11.618  0.4004 -0.3000  0.3090
24978SOL    HW184864  12.292   5.799  11.693 -0.5178  0.3273 -0.3020
24978SOL    HW284865  12.370   5.902  11.615  2.2517 -0.6375  1.0848
24979SOL     OW84866   3.022   6.779   7.258 -0.1180  0.1602  0.4952
24979SOL    HW184867   2.987   6.772   7.347  0.3166 -1.6733  0.5635
24979SOL    HW284868   2.989   6.702   7.213  0.8652  0.2897 -0.4987
24980SOL     OW84869  12.072   1.639   2.245 -0.2242  0.3483  0.8365
24980SOL    HW184870  12.137   1.709   2.252  0.2819 -0.0738  0.4949
24980SOL    HW284871  12.004   1.674   2.188  0.2471  0.4008  0.3017
24981SOL     OW84872   0.341   2.238  10.593  0.2690 -0.4011 -0.4078
24981SOL    HW184873   0.289   2.160  10.611 -0.0767 -0.0266  0.2637
24981SOL    HW284874   0.351   2.280  10.678  0.9913 -0.0421 -0.6617
24982SOL     OW84875   6.455   4.638  13.232 -0.3254  0.0718  0.0445
24982SOL    HW184876   6.369   4.625  13.274 -0.7552  0.8629 -0.5623
24982SOL    HW284877   6.464   4.733  13.225  0.6519  0.0004  0.1796
24983SOL     OW84878   6.794  11.715   5.908 -0.4536 -0.0172  0.6324
24983SOL    HW184879   6.803  11.792   5.964 -0.6396 -0.1607  0.8599
24983SOL    HW284880   6.707  11.724   5.868 -0.5968 -0.2635  0.8907
24984SOL     OW84881   3.753   3.237   8.345 -0.3547 -0.3183  0.1729
24984SOL    HW184882   3.681   3.250   8.407 -0.0102 -0.8270  0.7013
24984SOL    HW284883   3.716   3.181   8.277 -1.8938  3.2526 -2.2085
24985SOL     OW84884   2.236   1.392   6.966 -0.2697  0.2429 -0.4508
24985SOL    HW184885   2.195   1.479   6.965  0.9559  0.8519  0.5043
24985SOL    HW284886   2.269   1.382   7.055  1.7798 -0.1444 -1.2092
24986SOL     OW84887   6.731  10.848   2.970  0.0656  0.2076 -0.1848
24986SOL    HW184888   6.780  10.888   3.042  1.0768 -0.5591 -0.4153
24986SOL    HW284889   6.667  10.791   3.013  0.1099  0.3859  0.1162
24987SOL     OW84890   4.600  11.464   1.953 -0.4297 -0.1494  0.2498
24987SOL    HW184891   4.656  11.457   2.030 -1.0891  1.1420  0.8825
24987SOL    HW284892   4.644  11.530   1.899 -0.9911  0.3929  0.4499
24988SOL     OW84893  10.817   4.018   1.051  0.3997 -0.3830 -0.2419
24988SOL    HW184894  10.838   4.093   1.107 -1.0845 -0.3631  0.3394
24988SOL    HW284895  10.885   3.953   1.070  1.5033  0.6580 -0.4861
24989SOL     OW84896  13.171   3.078   8.212 -1.2606 -0.0524  0.0341
24989SOL    HW184897  13.091   3.132   8.207 -0.2855  1.5240  0.7156
24989SOL    HW284898  13.146   2.995   8.172 -3.3040  0.3352  0.3976
24990SOL     OW84899   2.003   4.837   7.077  0.1584  0.3099 -0.3816
24990SOL    HW184900   2.004   4.874   6.988 -0.6503  1.3212  0.0185
24990SOL    HW284901   1.974   4.909   7.133 -2.6160 -1.1887  0.2889
24991SOL     OW84902  13.277   8.537  10.953  0.2667 -0.2953 -0.2882
24991SOL    HW184903  13.215   8.508  11.020  0.9095 -1.0094  0.0246
24991SOL    HW284904  13.360   8.548  11.001  0.5316 -0.0006 -0.8113
24992SOL     OW84905   1.388   7.227   7.141 -0.0861 -0.1266 -0.0253
24992SOL    HW184906   1.370   7.294   7.206 -3.1326  1.0372 -1.8413
24992SOL    HW284907   1.403   7.275   7.059 -0.9089 -1.5704 -1.0909
24993SOL     OW84908  11.630   4.053   3.286 -0.4343 -0.1714  0.1047
24993SOL    HW184909  11.690   3.984   3.315  0.7526  0.9279  0.3603
24993SOL    HW284910  11.679   4.101   3.220 -1.5858 -0.1048 -0.7414
24994SOL     OW84911   6.030   4.975  11.556 -0.1898  0.4289 -0.1827
24994SOL    HW184912   6.091   4.902  11.566 -0.1568  0.6011  1.0030
24994SOL    HW284913   5.975   4.951  11.481 -0.4389 -0.9912  0.4277
24995SOL     OW84914   7.096  11.952   1.345 -0.6597  0.4766 -0.1219
24995SOL    HW184915   7.055  11.990   1.267 -0.7070 -2.2262 -1.5145
24995SOL    HW284916   7.132  11.869   1.315 -2.0600 -1.4492  3.0655
24996SOL     OW84917   9.135  11.168   8.512  0.0985 -0.3066  0.2408
24996SOL    HW184918   9.048  11.201   8.489  0.7799  0.6185 -1.1517
24996SOL    HW284919   9.185  11.175   8.431  0.7577 -3.3671  0.2929
24997SOL     OW84920  12.697   4.928  11.280  0.3576  0.8874  0.1340
24997SOL    HW184921  12.636   4.857  11.259  0.7816  0.8735 -1.1683
24997SOL    HW284922  12.648   4.985  11.339  0.1045 -0.6151  1.4366
24998SOL     OW84923   2.420   3.984   0.114  0.1064 -0.8610 -0.3458
24998SOL    HW184924   2.486   3.972   0.045  0.4980  1.2896 -0.4212
24998SOL    HW284925   2.470   3.996   0.194 -0.2200 -0.2980 -0.2194
24999SOL     OW84926   7.271   1.341   8.442 -0.4002 -0.2599 -0.5162
24999SOL    HW184927   7.333   1.278   8.405  1.0238  0.3257  0.7612
24999SOL    HW284928   7.317   1.425   8.436  0.3297 -0.2173  3.2122
25000SOL     OW84929   8.272   3.554   2.976 -0.0816  0.1874  0.4196
25000SOL    HW184930   8.247   3.632   3.025 -0.3321 -0.2123  0.9460
25000SOL    HW284931   8.222   3.559   2.895 -0.0481  0.6054  0.4241
25001SOL     OW84932   2.922   6.952   6.731 -0.2314  0.1250 -0.4825
25001SOL    HW184933   2.973   6.871   6.725 -1.5894 -0.7297 -1.0712
25001SOL    HW284934   2.973   7.009   6.788 -0.0219 -1.7730  1.3631
25002SOL     OW84935   3.149   6.386   0.864  0.1929  0.4760  0.1371
25002SOL    HW184936   3.111   6.298   0.870 -1.6243  1.2213  0.2857
25002SOL    HW284937   3.112   6.434   0.938  0.7411  1.5228 -0.2352
25003SOL     OW84938  12.160  12.447   0.543  0.3553 -0.2666 -0.1686
25003SOL    HW184939  12.109  12.416   0.468 -1.6421  0.9630  0.6139
25003SOL    HW284940  12.218  12.374   0.564 -1.7430 -2.1205 -0.5115
25004SOL     OW84941   8.705  12.171   4.397  0.0918 -0.2319  0.2126
25004SOL    HW184942   8.617  12.134   4.386  0.2132 -0.5551  0.2943
25004SOL    HW284943   8.690  12.261   4.425 -0.2156 -0.3574  0.4597
25005SOL     OW84944  13.091   7.520   9.838  0.9152  0.6182  0.2738
25005SOL    HW184945  13.008   7.523   9.885  0.0392 -0.0444 -1.1552
25005SOL    HW284946  13.154   7.487   9.902 -0.5536 -1.7608  0.6299
25006SOL     OW84947   0.370  11.120   3.267 -0.5049 -0.2500 -0.4730
25006SOL    HW184948   0.292  11.067   3.249  0.5900 -2.4674  0.9143
25006SOL    HW284949   0.381  11.113   3.362  1.0785  0.4680 -0.5848
25007SOL     OW84950   9.467  11.978   6.852  0.4190  0.7297  0.1987
25007SOL    HW184951   9.521  11.935   6.786 -0.1923  1.2184 -0.6463
25007SOL    HW284952   9.425  11.906   6.900 -0.5307  0.3459 -1.1439
25008SOL     OW84953   4.483   2.045   8.554 -0.4811 -0.2796  0.0163
25008SOL    HW184954   4.465   2.089   8.471  0.0242 -1.4583 -0.7396
25008SOL    HW284955   4.429   2.091   8.618 -1.1254  0.4355 -1.0220
25009SOL     OW84956   4.602   5.626  12.176  0.0721 -0.3663  0.5958
25009SOL    HW184957   4.596   5.641  12.081  0.0049  0.6771  0.7523
25009SOL    HW284958   4.512   5.611  12.204  0.1666 -1.3516  0.3997
25010SOL     OW84959   8.536   6.790  12.869  0.1917 -0.1091  0.0792
25010SOL    HW184960   8.587   6.814  12.792  0.4192 -0.3928  0.1425
25010SOL    HW284961   8.460   6.849  12.866  1.0295  1.0359  0.5612
25011SOL     OW84962   7.690   6.563   2.236 -0.0661  0.5896 -0.4447
25011SOL    HW184963   7.660   6.501   2.170 -0.5537 -0.2648  0.5517
25011SOL    HW284964   7.729   6.508   2.304  0.1499  1.4277  0.1234
25012SOL     OW84965   1.024   1.830   5.949  0.0948 -0.0359  0.3106
25012SOL    HW184966   1.026   1.747   5.996 -0.1016  0.0473  0.4650
25012SOL    HW284967   1.047   1.896   6.014  0.6503 -0.0095  0.0954
25013SOL     OW84968   7.384   8.261   9.489 -0.1891  0.0677  0.0252
25013SOL    HW184969   7.430   8.339   9.460 -1.3605  1.2196  1.1343
25013SOL    HW284970   7.318   8.246   9.422  0.7302 -0.6583 -0.7544
25014SOL     OW84971   2.927  11.635   8.176  0.3597 -0.3164  0.3818
25014SOL    HW184972   2.925  11.610   8.083  2.4691 -2.1785  0.7661
25014SOL    HW284973   3.009  11.682   8.187  0.1734 -0.1908  1.3429
25015SOL     OW84974   0.502   1.822  11.962 -0.3506  0.2502  0.1835
25015SOL    HW184975   0.454   1.754  11.916  1.2319  0.9504 -2.7138
25015SOL    HW284976   0.541   1.777  12.038 -0.6959 -1.6541 -0.7178
25016SOL     OW84977   2.001  10.532   8.429 -0.5217  0.1738  0.6554
25016SOL    HW184978   1.931  10.594   8.447 -1.0407 -0.6312  1.5006
25016SOL    HW284979   1.956  10.448   8.420  0.3110 -0.3005  0.9014
25017SOL     OW84980  12.850  10.592   5.861  0.1103 -0.3322  0.0252
25017SOL    HW184981  12.776  10.625   5.911 -0.3166 -1.5641  0.2412
25017SOL    HW284982  12.814  10.572   5.775  0.4362  0.0419 -0.2039
25018SOL     OW84983  10.950  10.369   2.407  0.2681 -0.2655 -0.8150
25018SOL    HW184984  10.932  10.408   2.321  2.1392 -0.4215 -1.3320
25018SOL    HW284985  10.969  10.443   2.464  0.5407 -0.2378 -0.9401
25019SOL     OW84986   2.646   5.399   5.279  0.6394 -0.4666 -0.4961
25019SOL    HW184987   2.731   5.359   5.296  2.0975  2.7251  0.4961
25019SOL    HW284988   2.600   5.393   5.364  0.5879 -0.5485 -0.5289
25020SOL     OW84989   9.060  13.209   0.128  0.0794 -0.0598  0.0540
25020SOL    HW184990   9.038  13.299   0.150 -0.5608  0.0171 -0.8591
25020SOL    HW284991   9.037  13.200   0.035  0.5796 -1.0207  0.0064
25021SOL     OW84992   5.835  11.287  10.945  0.6022  0.3310 -0.3674
25021SOL    HW184993   5.842  11.377  10.976 -1.7512  0.6945 -0.6526
25021SOL    HW284994   5.851  11.233  11.022 -2.6747  1.1670  1.0584
25022SOL     OW84995   7.355  10.847   6.658 -0.1935  0.0526 -0.4457
25022SOL    HW184996   7.276  10.899   6.643 -0.6459 -0.2178  0.8942
25022SOL    HW284997   7.333  10.791   6.732  1.1637 -0.2455 -0.2453
25023SOL     OW84998  10.902  10.205   3.195  0.3908 -0.0379  0.5158
25023SOL    HW184999  10.993  10.229   3.178  1.4029 -3.8014 -0.2427
25023SOL    HW285000  10.888  10.124   3.146 -3.8668  1.0558 -0.5504
25024SOL     OW85001   7.667   2.911  13.013  0.0621 -0.1273  0.2255
25024SOL    HW185002   7.760   2.903  12.990 -0.2483  1.2938 -1.7639
25024SOL    HW285003   7.620   2.865  12.944 -0.7576 -0.4250  0.9564
25025SOL     OW85004  11.826   6.903  11.771 -0.0778  0.4681 -0.0012
25025SOL    HW185005  11.793   6.969  11.710  0.9425  1.6127  0.6499
25025SOL    HW285006  11.748   6.858  11.803 -0.6843  0.3062 -1.5961
25026SOL     OW85007   3.028   4.959   7.088 -0.0544  0.4910 -0.3735
25026SOL    HW185008   3.054   4.869   7.072 -1.6139 -0.5028  2.0051
25026SOL    HW285009   3.069   4.982   7.171 -1.3935  1.1558  0.1486
25027SOL     OW85010   1.732  12.110   9.119 -0.2781 -0.5436  0.3947
25027SOL    HW185011   1.805  12.168   9.140 -1.5309  1.4747 -0.5902
25027SOL    HW285012   1.712  12.067   9.202  0.2000  1.0254  1.3709
25028SOL     OW85013   1.434   8.826   0.595 -0.2122 -0.1144  0.5654
25028SOL    HW185014   1.346   8.790   0.604 -0.5130  0.3778 -0.2583
25028SOL    HW285015   1.469   8.783   0.517 -0.1264  0.4832  0.2713
25029SOL     OW85016  10.106  10.072   0.948 -0.1604  0.1171 -0.0342
25029SOL    HW185017  10.039  10.030   1.004  0.2971  1.0629  1.2683
25029SOL    HW285018  10.085  10.165   0.952  0.8007  0.3454 -0.2079
25030SOL     OW85019   4.334   5.471   7.174 -0.9322 -0.4764 -0.0776
25030SOL    HW185020   4.403   5.454   7.237 -1.4387  0.2388  0.6856
25030SOL    HW285021   4.349   5.407   7.104 -0.2109 -1.1027  0.6340
25031SOL     OW85022   8.784   1.853   7.325  0.2899 -0.3682 -0.0983
25031SOL    HW185023   8.746   1.911   7.391 -1.5210 -1.1734 -0.3679
25031SOL    HW285024   8.830   1.913   7.265 -0.4180  0.6546  0.3477
25032SOL     OW85025  10.235   1.626   4.352 -0.2509 -0.2632  0.4982
25032SOL    HW185026  10.319   1.655   4.318 -0.0364 -0.0079  1.2194
25032SOL    HW285027  10.177   1.625   4.276  0.3059 -0.0709  0.0660
25033SOL     OW85028  10.053  11.116   4.472  0.4884  0.2027 -0.3422
25033SOL    HW185029  10.004  11.127   4.390  0.4609  0.6466 -0.2694
25033SOL    HW285030  10.055  11.021   4.486 -1.5019  0.2062  0.3357
25034SOL     OW85031   4.340   1.230   1.469 -0.0125 -0.1894 -0.2688
25034SOL    HW185032   4.285   1.158   1.502 -0.2232 -0.3768 -1.0136
25034SOL    HW285033   4.363   1.204   1.380  1.5724 -0.2680  0.1324
25035SOL     OW85034   6.606  12.356   4.429 -0.9068  0.1701  0.2079
25035SOL    HW185035   6.559  12.439   4.438 -2.2355 -0.4698 -0.4870
25035SOL    HW285036   6.600  12.314   4.514 -2.6206 -0.3963 -0.1579
25036SOL     OW85037   0.859  10.221   8.819 -0.0121 -0.1469 -0.0177
25036SOL    HW185038   0.813  10.281   8.759  1.1648  0.4601 -0.3358
25036SOL    HW285039   0.920  10.277   8.866  0.2578 -0.9102  0.5502
25037SOL     OW85040  11.798   5.626   6.273  0.3033 -0.0098  0.1970
25037SOL    HW185041  11.753   5.663   6.349 -1.7616 -0.4188 -0.7433
25037SOL    HW285042  11.750   5.545   6.255  1.3670 -0.4027 -0.9616
25038SOL     OW85043   3.576   7.459  12.870  0.4842 -0.1521 -0.2327
25038SOL    HW185044   3.667   7.470  12.899  0.4618  0.7610 -0.4829
25038SOL    HW285045   3.527   7.526  12.917 -0.0201 -0.4579 -0.3129
25039SOL     OW85046  12.125   1.314   7.446  0.6691  0.2628  0.1400
25039SOL    HW185047  12.051   1.375   7.452  1.1131  0.7758  0.5081
25039SOL    HW285048  12.138   1.302   7.352  0.4314  0.5554  0.0680
25040SOL     OW85049  10.224   8.249  12.912  0.0301  0.3411  0.5331
25040SOL    HW185050  10.225   8.220  13.003 -0.0761  2.2300  1.1813
25040SOL    HW285051  10.317   8.252  12.886  0.0167 -1.1642  0.2118
25041SOL     OW85052  12.490  11.066   1.256 -0.1530 -0.2223  0.4603
25041SOL    HW185053  12.556  11.135   1.251 -0.8265  0.4991  1.1381
25041SOL    HW285054  12.513  11.006   1.186 -0.8103  1.8112 -1.6091
25042SOL     OW85055   6.518  13.212   6.224  0.0031 -0.0632  0.4106
25042SOL    HW185056   6.562  13.294   6.202 -0.0009  0.1413  1.1408
25042SOL    HW285057   6.453  13.201   6.156  0.2755  0.3349  0.0815
25043SOL     OW85058  13.310  10.101   0.360  0.0647  0.5454  0.2894
25043SOL    HW185059  13.316  10.026   0.419  0.2611 -0.9308 -1.4833
25043SOL    HW285060  13.395  10.102   0.315 -0.2265  1.3533 -0.2568
25044SOL     OW85061   1.789   0.612   5.275  0.5004 -0.1708 -0.2248
25044SOL    HW185062   1.790   0.597   5.370 -0.2613  0.9094 -0.0162
25044SOL    HW285063   1.696   0.607   5.252  0.6465 -0.0358 -0.8532
25045SOL     OW85064   4.387  10.997   6.196 -0.4551  0.3651 -0.5769
25045SOL    HW185065   4.448  10.925   6.211 -0.2153  0.5367 -0.7179
25045SOL    HW285066   4.321  10.987   6.264 -1.2498 -0.8543 -1.4907
25046SOL     OW85067  13.055   1.396   5.331  0.3386 -0.4729 -1.0014
25046SOL    HW185068  13.060   1.322   5.269 -0.0740 -1.1391 -0.2598
25046SOL    HW285069  13.141   1.399   5.372 -0.4336 -2.3810  0.9897
25047SOL     OW85070   9.811   2.793   1.869  0.3034 -0.0029 -0.0153
25047SOL    HW185071   9.887   2.736   1.882  1.3103  1.4971  1.1448
25047SOL    HW285072   9.778   2.810   1.957 -1.3958 -0.5953 -0.5007
25048SOL     OW85073   8.331   4.082   2.386  0.4085 -0.0107 -0.1994
25048SOL    HW185074   8.370   4.004   2.347  1.5042 -0.1615  1.0990
25048SOL    HW285075   8.388   4.154   2.358  1.0817 -0.0928  0.8735
25049SOL     OW85076   3.464   7.939   4.736 -0.8074 -0.1559 -0.0246
25049SOL    HW185077   3.451   7.932   4.642 -0.7357  0.2749 -0.0698
25049SOL    HW285078   3.518   7.864   4.759 -1.5744 -0.7750 -0.1800
25050SOL     OW85079   6.619   4.628  11.646  0.1704  0.3167  0.2490
25050SOL    HW185080   6.598   4.706  11.594  0.2764  1.2420  1.5665
25050SOL    HW285081   6.712   4.638  11.667  0.4719 -0.7287 -0.4657
25051SOL     OW85082   0.943   3.707   8.433 -0.3108 -0.0725 -0.2199
25051SOL    HW185083   0.960   3.668   8.347 -1.2318 -0.3826 -0.2736
25051SOL    HW285084   0.998   3.657   8.493 -0.2601 -0.3909 -0.5234
25052SOL     OW85085   2.815   6.659   0.504 -0.3915 -0.1216  0.1790
25052SOL    HW185086   2.890   6.600   0.499 -1.9808 -2.3321  0.6832
25052SOL    HW285087   2.844   6.729   0.562  1.4048 -0.6837  0.0216
25053SOL     OW85088   7.537   8.516   3.906 -0.0933  0.2549  0.5918
25053SOL    HW185089   7.532   8.456   3.980 -1.1017 -0.4255  0.0044
25053SOL    HW285090   7.593   8.471   3.842 -1.1650 -0.2789 -0.0081
25054SOL     OW85091   9.621   2.125  11.553  0.6235 -0.5228  0.7750
25054SOL    HW185092   9.537   2.146  11.511  1.3263 -0.6062 -0.7172
25054SOL    HW285093   9.598   2.059  11.619 -0.5527 -0.1746  0.7346
25055SOL     OW85094   6.579  12.305   3.498 -0.0349  0.1494 -0.2525
25055SOL    HW185095   6.516  12.264   3.556  1.6540  0.5015  1.9849
25055SOL    HW285096   6.664  12.282   3.536  1.1835  0.3448 -2.6715
25056SOL     OW85097   9.564   5.907   3.583  0.3910 -0.2577 -0.2422
25056SOL    HW185098   9.634   5.848   3.556  0.7431 -0.2071  0.5235
25056SOL    HW285099   9.536   5.949   3.502  0.3492 -1.2323 -0.7466
25057SOL     OW85100   3.422   0.546   0.591  0.1704  0.6819 -0.0201
25057SOL    HW185101   3.430   0.593   0.508 -1.7980  0.0255 -0.6186
25057SOL    HW285102   3.332   0.515   0.593  1.0507 -2.0501  0.9150
25058SOL     OW85103   8.907   6.608   0.230 -0.5630  0.3416 -0.0631
25058SOL    HW185104   8.833   6.548   0.220  1.1702 -1.5547 -3.0881
25058SOL    HW285105   8.916   6.648   0.143  1.2169  1.4769  0.5938
25059SOL     OW85106   9.593  12.497   1.393 -0.4590  0.7664 -0.1531
25059SOL    HW185107   9.581  12.511   1.487 -0.9300  0.6320 -0.1913
25059SOL    HW285108   9.634  12.411   1.387 -1.9186  0.0510 -0.1406
25060SOL     OW85109   8.353  13.218   3.380 -0.0836  0.0519  0.2881
25060SOL    HW185110   8.345  13.145   3.442  1.1462 -0.4467 -0.1072
25060SOL    HW285111   8.354  13.175   3.294  1.6273  0.4316  0.0902
25061SOL     OW85112   4.127   7.744  13.208  0.1194 -0.1956  0.3337
25061SOL    HW185113   4.152   7.671  13.264 -0.8564 -1.0735 -0.3290
25061SOL    HW285114   4.078   7.803  13.265  0.5585 -0.2618  0.7803
25062SOL     OW85115   7.288   5.073  11.258  0.6189  0.3430  0.0148
25062SOL    HW185116   7.200   5.039  11.248  0.9490 -0.2628 -0.9623
25062SOL    HW285117   7.278   5.168  11.251  0.1569  0.2287 -1.0274
25063SOL     OW85118   2.811  13.237   1.465 -0.2145 -0.1437  0.1492
25063SOL    HW185119   2.726  13.221   1.506  0.0792 -2.1913  0.0742
25063SOL    HW285120   2.843  13.318   1.505 -0.7697 -1.0350  2.5573
25064SOL     OW85121   3.234  13.096  10.286 -0.0691 -0.4263  0.3453
25064SOL    HW185122   3.302  13.099  10.219  0.9131 -1.6367  1.2572
25064SOL    HW285123   3.278  13.121  10.367 -1.3203  1.3625  0.5284
25065SOL     OW85124   4.628   6.025   6.221  0.3760 -0.3645  0.5739
25065SOL    HW185125   4.703   6.050   6.168 -0.1908 -0.5070 -0.3161
25065SOL    HW285126   4.576   5.968   6.165 -1.0600  0.7564  0.6774
25066SOL     OW85127  12.726   8.907   4.140  0.6447  0.2321  0.1493
25066SOL    HW185128  12.785   8.837   4.168 -0.7111 -1.2453 -0.4914
25066SOL    HW285129  12.660   8.912   4.210  0.4100  0.4755 -0.0874
25067SOL     OW85130  12.275   7.583   6.762  0.3425  0.3263 -0.0629
25067SOL    HW185131  12.302   7.670   6.734  2.4063  0.2204  1.4153
25067SOL    HW285132  12.352   7.527   6.750 -0.2005 -0.7699  1.1637
25068SOL     OW85133   9.081  12.705   2.699 -0.0487 -0.4661  0.0677
25068SOL    HW185134   9.115  12.793   2.715  2.2073 -1.3679  0.7380
25068SOL    HW285135   9.043  12.678   2.782 -0.2264 -0.3183  0.0329
25069SOL     OW85136   7.507  11.690   0.890 -0.3485  0.3860  0.3586
25069SOL    HW185137   7.456  11.766   0.919  0.1850  0.9731 -0.1856
25069SOL    HW285138   7.495  11.688   0.795  0.4004  0.3680  0.2522
25070SOL     OW85139   6.405   5.414   5.608  0.5365 -0.2716 -0.0919
25070SOL    HW185140   6.312   5.419   5.585  0.3659 -1.4501  0.2557
25070SOL    HW285141   6.417   5.481   5.675 -0.1117 -0.2595  0.0216
25071SOL     OW85142  12.544  12.660   5.038  0.2478  0.0515  0.0546
25071SOL    HW185143  12.582  12.742   5.067  2.1938 -0.8793  0.2624
25071SOL    HW285144  12.470  12.646   5.097 -1.3147  2.5159 -1.1494
25072SOL     OW85145   0.720   5.731   2.745 -0.0325  0.3791  0.1138
25072SOL    HW185146   0.798   5.743   2.691  0.6649 -2.0016  0.4369
25072SOL    HW285147   0.649   5.719   2.682  0.4140 -0.3711 -0.2592
25073SOL     OW85148   2.699   5.245   8.567  0.0646 -0.2216  0.4445
25073SOL    HW185149   2.637   5.265   8.636  0.3218  2.1437  0.0692
25073SOL    HW285150   2.777   5.213   8.613 -0.3733 -0.3404  1.1078
25074SOL     OW85151   0.091   7.690   2.812  0.3582 -0.0729  0.3155
25074SOL    HW185152   0.088   7.690   2.716  0.8254  0.8022  0.2952
25074SOL    HW285153   0.113   7.600   2.835 -2.8054 -1.1044 -0.2760
25075SOL     OW85154   9.448   5.055   3.051 -0.2269 -0.0612 -0.3336
25075SOL    HW185155   9.446   4.963   3.076  0.6046  0.1394  0.5324
25075SOL    HW285156   9.388   5.061   2.977 -0.8957 -1.1428  0.0964
25076SOL     OW85157   2.915  11.626   6.930  0.6347 -0.5644  0.3799
25076SOL    HW185158   2.921  11.564   7.003  0.2512 -1.0126  0.0428
25076SOL    HW285159   3.006  11.635   6.899  0.4153 -3.3059 -1.4506
25077SOL     OW85160  12.745   6.717   7.282 -0.6976 -0.2222  0.9653
25077SOL    HW185161  12.838   6.735   7.295 -0.9981  1.0765  1.5789
25077SOL    HW285162  12.709   6.717   7.371 -1.3250 -0.4276  0.7138
25078SOL     OW85163   5.671   6.609   1.406 -0.5480 -0.6824  0.0157
25078SOL    HW185164   5.595   6.655   1.440 -0.2682  0.5042 -0.8977
25078SOL    HW285165   5.637   6.524   1.378 -1.6235 -0.0284 -0.7390
25079SOL     OW85166   4.439  10.536   9.243  0.4015 -0.4054  0.4742
25079SOL    HW185167   4.398  10.588   9.312 -2.2084 -0.7816 -0.6522
25079SOL    HW285168   4.434  10.446   9.275 -1.5891 -0.6824 -0.4450
25080SOL     OW85169  12.176   9.721   7.218 -0.0760  0.1923  0.0309
25080SOL    HW185170  12.183   9.735   7.124  1.2750  0.9818  0.2229
25080SOL    HW285171  12.266   9.717   7.249 -0.4906 -0.4643  1.2499
25081SOL     OW85172   1.288  10.913   7.459 -0.5463  0.2669  0.4623
25081SOL    HW185173   1.272  10.901   7.553  0.1214  1.6119  0.7856
25081SOL    HW285174   1.235  10.846   7.416 -1.3998  0.0606  1.7740
25082SOL     OW85175   3.816   8.912   2.659  0.4582 -0.4436 -0.4186
25082SOL    HW185176   3.758   8.954   2.596 -1.1614 -0.2480  1.1460
25082SOL    HW285177   3.778   8.825   2.672  0.0273 -0.0587  1.1604
25083SOL     OW85178   2.129  11.013   9.805  0.2837  0.0442 -0.3992
25083SOL    HW185179   2.073  11.050   9.874 -0.1421  0.2523 -0.8484
25083SOL    HW285180   2.070  10.959   9.753  0.6872 -0.4265 -0.3749
25084SOL     OW85181   1.358   8.390   3.395  0.2692 -0.4723  0.6043
25084SOL    HW185182   1.339   8.397   3.301 -0.0716  0.6164  0.7457
25084SOL    HW285183   1.280   8.424   3.438  0.6777 -0.3707  1.2770
25085SOL     OW85184   1.520   7.964   2.262  0.4069 -0.5763  0.7925
25085SOL    HW185185   1.581   8.022   2.308 -0.6012  0.1782  1.2115
25085SOL    HW285186   1.443   8.018   2.245  1.2364 -0.3355 -3.1378
25086SOL     OW85187   9.314   2.550   4.158  1.1026 -0.3867 -0.3056
25086SOL    HW185188   9.300   2.499   4.079  0.4830 -1.4419  0.4671
25086SOL    HW285189   9.341   2.487   4.224  0.7480  0.3371  0.5632
25087SOL     OW85190   7.388   1.096  11.380  0.6734  1.0263  0.1075
25087SOL    HW185191   7.347   1.063  11.460  2.0551 -1.1056  0.0294
25087SOL    HW285192   7.417   1.017  11.334  0.7587  2.2418 -2.0601
25088SOL     OW85193   7.559  13.176   3.425  0.3426 -0.1894  0.4073
25088SOL    HW185194   7.579  13.269   3.433 -1.7968  0.3251  0.1228
25088SOL    HW285195   7.506  13.156   3.502 -0.5998 -0.7655 -0.3675
25089SOL     OW85196   6.129   6.454   3.702 -0.4872  0.1872  0.3794
25089SOL    HW185197   6.077   6.402   3.764  1.3100 -1.9535  0.2247
25089SOL    HW285198   6.088   6.437   3.617  0.0897 -1.0818  0.3255
25090SOL     OW85199   9.489   0.726  10.208  0.3769 -0.1843  0.2803
25090SOL    HW185200   9.432   0.658  10.172 -1.0808  1.3016 -0.3275
25090SOL    HW285201   9.565   0.678  10.242 -0.0413 -1.9984 -1.1937
25091SOL     OW85202   1.620   8.458   1.096  0.3549 -0.0044 -0.1991
25091SOL    HW185203   1.574   8.497   1.170  0.0470 -2.3963  0.9975
25091SOL    HW285204   1.701   8.508   1.088 -0.0720  0.9473  1.1117
25092SOL     OW85205  12.492   6.403   8.823  0.4823 -0.1290 -0.3312
25092SOL    HW185206  12.572   6.359   8.851  1.1734 -0.0652 -2.0930
25092SOL    HW285207  12.476   6.371   8.735 -0.9409  0.5571 -0.3526
25093SOL     OW85208  11.156   1.908  12.376  0.3554 -0.6611 -0.3913
25093SOL    HW185209  11.065   1.919  12.405  1.0004 -0.7995  1.9223
25093SOL    HW285210  11.161   1.955  12.293 -1.8781 -0.8846 -0.7194
25094SOL     OW85211  10.321   7.259  12.334 -0.4567  0.3134  0.5042
25094SOL    HW185212  10.383   7.331  12.332 -2.0353  1.7584  1.0234
25094SOL    HW285213  10.331   7.216  12.249  1.9571 -0.1784  0.9783
25095SOL     OW85214  10.962  10.706   4.252  0.6445 -0.1994 -0.1135
25095SOL    HW185215  11.018  10.631   4.230  0.8669 -0.3016  0.7471
25095SOL    HW285216  10.913  10.724   4.172 -0.3704 -2.1019  0.0151
25096SOL     OW85217   4.521   9.570   9.213  0.9119 -0.1552  0.1511
25096SOL    HW185218   4.524   9.651   9.162  0.5795 -0.0522  0.2918
25096SOL    HW285219   4.595   9.519   9.181  1.5096  0.4686  0.5120
25097SOL     OW85220   7.737  10.040   5.560  1.0129 -0.3990 -0.1707
25097SOL    HW185221   7.729   9.998   5.474  1.5868 -1.6179  0.3396
25097SOL    HW285222   7.827  10.073   5.562  1.5211 -1.7545  0.5279
25098SOL     OW85223  10.343   2.153  12.892 -0.0239 -0.1427  1.0582
25098SOL    HW185224  10.278   2.222  12.905 -1.1661 -1.2540  1.4665
25098SOL    HW285225  10.291   2.072  12.887  1.3974 -1.2095  2.5731
25099SOL     OW85226  12.269   6.634   5.364 -0.1548  0.3283 -0.4584
25099SOL    HW185227  12.354   6.662   5.398  0.2171 -0.7537 -0.4456
25099SOL    HW285228  12.290   6.565   5.301 -0.7560  2.8417 -3.6851
25100SOL     OW85229   5.186   5.904  12.348 -0.0916  0.0996  0.5174
25100SOL    HW185230   5.203   5.912  12.254 -0.3582 -0.1907  0.4441
25100SOL    HW285231   5.265   5.938  12.390 -0.5301  1.5773  0.2009
25101SOL     OW85232   5.935   4.442   4.174  0.1123 -0.3018 -0.3187
25101SOL    HW185233   5.949   4.534   4.194  0.3219 -0.9705  3.4776
25101SOL    HW285234   5.840   4.431   4.177  0.1222 -0.3168  0.0229
25102SOL     OW85235  11.944  12.367   0.393 -0.3516  0.1961 -0.4527
25102SOL    HW185236  11.870  12.416   0.428 -0.7136  1.0236 -2.2445
25102SOL    HW285237  11.950  12.290   0.449 -1.2932  1.0930  0.9552
25103SOL     OW85238   0.427  10.146  10.370 -0.6186  0.1843  1.2243
25103SOL    HW185239   0.438  10.197  10.451 -0.6078  1.1229  0.6479
25103SOL    HW285240   0.501  10.171  10.315  0.1660 -1.5080  1.4351
25104SOL     OW85241   3.624   3.504   3.067  0.1634  0.2049  0.1243
25104SOL    HW185242   3.695   3.560   3.036 -1.4157  2.6177  0.5145
25104SOL    HW285243   3.558   3.508   2.997 -0.5405 -0.0335  0.7536
25105SOL     OW85244   9.660  11.809  10.054  0.1065  0.0425 -0.3780
25105SOL    HW185245   9.640  11.861  10.132  0.2009  0.4310 -0.6096
25105SOL    HW285246   9.742  11.847  10.021  1.3521 -1.6028  0.6365
25106SOL     OW85247  10.907   4.242   0.415 -1.2923  0.5315  0.0116
25106SOL    HW185248  10.884   4.297   0.340 -0.5812  0.6805 -0.1032
25106SOL    HW285249  10.827   4.191   0.432 -1.5527  0.6924 -0.6713
25107SOL     OW85250  12.449   3.173   5.542 -0.1259  0.4743 -0.3790
25107SOL    HW185251  12.494   3.192   5.624 -0.2047  0.8832 -0.4260
25107SOL    HW285252  12.498   3.221   5.475 -1.2269  1.7880 -0.2812
25108SOL     OW85253   7.336   2.533   3.397 -0.1484  0.2085 -0.0196
25108SOL    HW185254   7.422   2.571   3.409 -0.5051  1.1416 -0.3341
25108SOL    HW285255   7.275   2.598   3.434 -0.7542 -0.1332 -0.3941
25109SOL     OW85256   3.683   5.490   4.228  0.7809 -0.4517 -0.3359
25109SOL    HW185257   3.602   5.455   4.264 -0.1082  0.4683 -1.3478
25109SOL    HW285258   3.751   5.459   4.287 -0.5816  1.1544  2.3010
25110SOL     OW85259   5.322   9.921  11.187  0.5010 -0.0438  0.1454
25110SOL    HW185260   5.320   9.916  11.283 -2.0635  3.6179  0.5019
25110SOL    HW285261   5.411   9.950  11.166  1.1121 -0.9566  1.3522
25111SOL     OW85262  12.496  13.286  12.310 -0.2704  0.1898 -0.2615
25111SOL    HW185263  12.588  13.309  12.319 -0.3323  0.5585 -0.5555
25111SOL    HW285264  12.483  13.212  12.370  0.0093  0.7013  0.4349
25112SOL     OW85265   7.971  10.030   5.816 -0.3516  0.2344  0.3232
25112SOL    HW185266   7.962   9.978   5.736  0.0499  0.9325 -0.1850
25112SOL    HW285267   8.048   9.995   5.860 -0.5573 -0.1309  0.4020
25113SOL     OW85268   0.670   6.005   7.855  0.1830 -0.5478  0.0883
25113SOL    HW185269   0.716   5.928   7.821  0.2988 -0.5646  0.2818
25113SOL    HW285270   0.588   5.969   7.890 -1.4800 -0.1436 -3.0936
25114SOL     OW85271   9.537   6.730   1.846  0.1292 -0.3994  0.0108
25114SOL    HW185272   9.575   6.758   1.930 -1.2153  0.7931  0.2582
25114SOL    HW285273   9.478   6.659   1.869 -0.0783 -0.2160  0.0450
25115SOL     OW85274  10.774  12.594   1.171  0.1164 -0.2034  0.1108
25115SOL    HW185275  10.851  12.546   1.139  0.0032  0.8585 -1.9668
25115SOL    HW285276  10.713  12.590   1.097 -0.0788  2.6675  0.0082
25116SOL     OW85277  10.786   0.996   1.255  0.1594  0.2745  0.8179
25116SOL    HW185278  10.753   1.076   1.296  0.3673  0.6316  0.2910
25116SOL    HW285279  10.832   0.950   1.326  0.5920  0.9257  0.9612
25117SOL     OW85280   5.697   2.102   5.315 -0.1120 -0.1702 -0.3597
25117SOL    HW185281   5.643   2.153   5.255 -2.1077  0.4213  1.7725
25117SOL    HW285282   5.633   2.056   5.370  1.6297 -1.5075  0.6231
25118SOL     OW85283   6.096   7.072   2.273 -0.3007  0.1363  0.4881
25118SOL    HW185284   6.119   7.084   2.365 -0.0341 -0.5296  0.5157
25118SOL    HW285285   6.001   7.075   2.271 -0.2906  2.5621  0.4301
25119SOL     OW85286   1.229   2.904   7.792 -0.2200 -0.0482 -0.0370
25119SOL    HW185287   1.212   2.984   7.743 -1.1814 -0.4067 -0.3123
25119SOL    HW285288   1.242   2.837   7.725 -0.1312 -0.2668  0.1983
25120SOL     OW85289   0.702   7.994   8.101  0.1066  0.1461 -0.4344
25120SOL    HW185290   0.769   7.941   8.056 -1.0346 -1.9295  0.1919
25120SOL    HW285291   0.730   8.085   8.086  1.4287 -0.5429 -2.7178
25121SOL     OW85292   9.945   9.924   2.358  0.1809 -0.0584 -0.1492
25121SOL    HW185293  10.013   9.863   2.329  1.4272  0.5166  1.4104
25121SOL    HW285294   9.916   9.889   2.442 -0.0294  0.7857  0.1326
25122SOL     OW85295  12.014   2.787   1.857 -0.2241 -0.4578  0.0721
25122SOL    HW185296  12.009   2.786   1.762  0.2568 -0.6003  0.0427
25122SOL    HW285297  12.057   2.870   1.878  1.6321 -1.3593  0.0347
25123SOL     OW85298   6.196   7.206   0.939 -0.0184 -0.2838 -0.8034
25123SOL    HW185299   6.186   7.111   0.944 -0.7267 -0.2403 -1.2009
25123SOL    HW285300   6.107   7.238   0.923  0.2204  0.4428 -0.6815
25124SOL     OW85301  13.006   9.671   7.432  0.1440  0.1772 -0.2178
25124SOL    HW185302  12.946   9.714   7.371 -0.5747 -0.1529  0.2480
25124SOL    HW285303  13.084   9.652   7.380 -0.1541  0.6109 -0.8283
25125SOL     OW85304  12.431  12.946   2.282 -0.5927  0.6432  0.4606
25125SOL    HW185305  12.336  12.956   2.291 -0.9465 -1.2032 -0.6046
25125SOL    HW285306  12.459  12.906   2.364 -0.7397  1.0547  0.7172
25126SOL     OW85307   0.680  13.124   9.911  0.0020 -0.0315  0.1314
25126SOL    HW185308   0.644  13.196   9.962  0.5126  1.0201 -0.9222
25126SOL    HW285309   0.774  13.127   9.929 -0.0045 -0.6250  0.2911
25127SOL     OW85310   4.438   5.305   6.811 -0.1780  0.4358  0.3458
25127SOL    HW185311   4.423   5.258   6.893  1.8050 -0.2802  0.3480
25127SOL    HW285312   4.455   5.395   6.837 -1.9207  0.7501  0.5030
25128SOL     OW85313  11.390   6.659   0.289 -0.1293 -0.4056  0.0434
25128SOL    HW185314  11.321   6.724   0.278 -1.4382 -1.6875  0.3007
25128SOL    HW285315  11.427   6.648   0.201  1.3376  1.9123  0.2984
25129SOL     OW85316   3.673   1.819   9.078 -0.6627 -0.4138  0.3118
25129SOL    HW185317   3.596   1.774   9.043 -0.0088 -3.0890  1.9983
25129SOL    HW285318   3.745   1.757   9.065  0.6805  0.8874  1.1853
25130SOL     OW85319   1.724   6.944   4.947 -0.2379 -0.6564 -0.7030
25130SOL    HW185320   1.701   7.027   4.906 -1.5474 -0.4438  0.4029
25130SOL    HW285321   1.816   6.954   4.971 -0.6811  0.9658  0.4984
25131SOL     OW85322   3.256   3.400  12.121 -0.3392 -0.4397  0.4089
25131SOL    HW185323   3.299   3.345  12.055  3.4646 -0.8519  2.8760
25131SOL    HW285324   3.217   3.338  12.182 -0.4260 -0.2209  0.5770
25132SOL     OW85325   6.855  11.731   4.693  0.2494  0.2695  0.1818
25132SOL    HW185326   6.907  11.705   4.616 -1.3719 -0.0501 -0.8696
25132SOL    HW285327   6.909  11.795   4.738  1.0148  0.9485 -1.5890
25133SOL     OW85328   5.466  12.727   5.075 -0.0948  0.1951 -0.4465
25133SOL    HW185329   5.456  12.675   4.995  0.6159  0.2137 -0.5530
25133SOL    HW285330   5.558  12.715   5.101 -0.4404 -0.2055  0.6419
25134SOL     OW85331   9.296   7.239   3.970  0.2668  0.1914  0.3095
25134SOL    HW185332   9.298   7.329   3.937  0.9354 -0.3228 -1.1541
25134SOL    HW285333   9.234   7.194   3.914  1.3685 -0.6947 -0.2481
25135SOL     OW85334   4.406   6.071   6.970  0.4289  0.4937 -0.4048
25135SOL    HW185335   4.351   6.029   6.904 -0.4156  1.9521 -0.6718
25135SOL    HW285336   4.393   6.165   6.957  0.8421  0.8384  1.3255
25136SOL     OW85337   2.516   8.415   6.527  0.1999  0.0852  0.4083
25136SOL    HW185338   2.439   8.471   6.516 -0.2621 -0.4693  0.7688
25136SOL    HW285339   2.591   8.475   6.519 -0.2937  0.8604  1.3592
25137SOL     OW85340   2.504   2.481   8.290 -0.5832  0.1226  0.1822
25137SOL    HW185341   2.536   2.457   8.204 -0.6080 -1.4940  0.5918
25137SOL    HW285342   2.568   2.545   8.323  1.2042 -1.5719  0.2034
25138SOL     OW85343   1.224  10.857   7.065 -0.2593 -0.0854  0.4253
25138SOL    HW185344   1.233  10.793   7.135 -2.4093 -0.9893 -0.0472
25138SOL    HW285345   1.146  10.829   7.016  1.3287  0.3274 -2.5500
25139SOL     OW85346   9.419   7.935  12.687  0.1669  0.7295 -0.6040
25139SOL    HW185347   9.487   7.871  12.712 -0.7899  0.1190  0.5325
25139SOL    HW285348   9.362   7.940  12.764 -0.6566  1.8114 -1.2627
25140SOL     OW85349   5.037   1.885  12.960  0.4072 -0.6939 -0.3739
25140SOL    HW185350   5.038   1.963  13.015 -0.9838 -0.4956 -0.5794
25140SOL    HW285351   5.080   1.912  12.879 -2.0288  0.5962 -1.3219
25141SOL     OW85352  12.378   2.521  12.962  0.3604  0.2937 -0.0128
25141SOL    HW185353  12.368   2.469  12.882  0.4499  1.3225 -0.7097
25141SOL    HW285354  12.294   2.510  13.007  0.3117 -0.3043 -0.2367
25142SOL     OW85355  10.302   6.329  11.699 -0.1184 -0.0013 -0.5180
25142SOL    HW185356  10.338   6.297  11.617  0.5049 -0.3563 -0.1176
25142SOL    HW285357  10.207   6.333  11.684 -0.1072 -1.0153 -0.9296
25143SOL     OW85358   7.838   3.211   1.702  0.3004  0.0369  0.3634
25143SOL    HW185359   7.784   3.223   1.779  1.7732  0.0676  1.4331
25143SOL    HW285360   7.839   3.297   1.659 -1.5084 -0.2818 -0.4125
25144SOL     OW85361   3.931   6.888   5.754  0.6544 -0.2650 -0.0008
25144SOL    HW185362   3.996   6.817   5.761  0.9300  0.1045  1.3472
25144SOL    HW285363   3.858   6.858   5.807 -0.4256 -0.7744 -1.6845
25145SOL     OW85364   9.072  11.127   8.781  0.0127  0.1868 -0.1639
25145SOL    HW185365   9.154  11.085   8.809 -1.6253 -2.0182  1.6730
25145SOL    HW285366   9.064  11.104   8.689  0.5616 -1.2239  0.1122
25146SOL     OW85367   9.880  10.592   8.383  0.2006 -0.1385 -0.0911
25146SOL    HW185368   9.975  10.595   8.396  0.0800  0.5866  0.7193
25146SOL    HW285369   9.869  10.588   8.288  1.0735 -2.7160 -0.1637
25147SOL     OW85370   7.000  10.043  11.648 -0.1345  0.0159  0.2257
25147SOL    HW185371   6.978  10.065  11.738  0.9648  0.1699  0.4765
25147SOL    HW285372   6.919  10.056  11.599 -0.8828 -0.5779  1.2706
25148SOL     OW85373  12.275   8.336   0.913 -0.7556  0.1529 -0.0278
25148SOL    HW185374  12.248   8.304   0.827 -0.5938 -1.0167  0.3412
25148SOL    HW285375  12.317   8.420   0.895  0.2617 -0.5722 -1.2250
25149SOL     OW85376   0.988  11.676   8.193  0.2855  0.3517 -0.4479
25149SOL    HW185377   1.061  11.657   8.252  1.0765 -0.8586 -1.7667
25149SOL    HW285378   0.922  11.718   8.249  1.7776  1.0395  0.8674
25150SOL     OW85379   4.502   7.715   9.175 -0.2589  0.6412 -0.0269
25150SOL    HW185380   4.594   7.688   9.176 -0.2302  0.5788 -1.7404
25150SOL    HW285381   4.454   7.637   9.201  0.0836  0.2312 -0.6195
25151SOL     OW85382  11.990  12.444   2.620 -0.4877  0.3598  0.8835
25151SOL    HW185383  12.053  12.512   2.644 -1.0847  1.4671 -0.5570
25151SOL    HW285384  11.963  12.467   2.531 -0.6263 -1.8459  0.3189
25152SOL     OW85385   0.277   2.133   5.561 -0.4029 -0.5823  0.5040
25152SOL    HW185386   0.368   2.162   5.571 -0.2104 -0.2902 -1.6039
25152SOL    HW285387   0.269   2.060   5.621  1.3827 -0.9124  0.4105
25153SOL     OW85388  11.764   4.825   6.734  0.1775  0.1379 -1.1412
25153SOL    HW185389  11.713   4.768   6.677  0.5265  0.7509 -2.0891
25153SOL    HW285390  11.708   4.839   6.810  0.1495 -1.5847 -0.7936
25154SOL     OW85391   1.801  10.342  10.668 -0.0635  0.2182 -0.1384
25154SOL    HW185392   1.886  10.301  10.658 -0.6437 -1.0389 -0.0622
25154SOL    HW285393   1.808  10.392  10.750  0.1112 -1.1994  0.7534
25155SOL     OW85394   0.652   9.915  10.556 -0.5008 -0.5013 -0.1294
25155SOL    HW185395   0.688   9.835  10.594  0.2217 -0.6613 -1.1366
25155SOL    HW285396   0.704   9.931  10.478 -2.6169 -0.7704 -1.6791
25156SOL     OW85397   5.747  11.768   8.292  0.0078 -0.0401 -0.1807
25156SOL    HW185398   5.659  11.790   8.323  0.2027  0.6868 -0.1430
25156SOL    HW285399   5.759  11.677   8.320 -1.2384 -0.6139 -1.3427
25157SOL     OW85400  10.658  12.574   5.412  0.8422  0.0817  0.0455
25157SOL    HW185401  10.632  12.500   5.357  0.9968  0.6575 -0.8163
25157SOL    HW285402  10.718  12.624   5.358 -0.3587  1.6158  0.0739
25158SOL     OW85403   5.178   2.265  11.887 -0.4640 -0.0389  0.4590
25158SOL    HW185404   5.193   2.357  11.866  0.6672 -0.4095 -0.4856
25158SOL    HW285405   5.166   2.263  11.982 -0.2877  1.0485  0.5128
25159SOL     OW85406   6.412   3.994   3.290 -0.3611 -0.5255  0.3637
25159SOL    HW185407   6.352   3.930   3.330 -1.4233  1.3081  1.8628
25159SOL    HW285408   6.358   4.042   3.227 -0.5916  1.2363  1.8302
25160SOL     OW85409   9.341   4.369   7.979  0.1429 -0.1119  0.0065
25160SOL    HW185410   9.407   4.429   7.946  0.3554 -1.2997 -1.8699
25160SOL    HW285411   9.374   4.282   7.957 -1.7300 -0.7616 -0.4419
25161SOL     OW85412  11.980  12.443   3.181 -0.6810 -0.2369 -0.3241
25161SOL    HW185413  11.920  12.474   3.113  0.6918 -0.0710 -1.5069
25161SOL    HW285414  12.032  12.375   3.137  1.0653  0.7226  0.1762
25162SOL     OW85415   4.129   2.967   6.668 -0.7016 -0.2523  0.1881
25162SOL    HW185416   4.065   2.946   6.600 -0.9773  1.3751 -0.0917
25162SOL    HW285417   4.116   3.060   6.686 -0.3161 -0.5305  2.1484
25163SOL     OW85418   7.129  11.242  10.529 -0.1713  0.5090  0.4343
25163SOL    HW185419   7.058  11.179  10.521 -0.4247  0.7281  0.8706
25163SOL    HW285420   7.085  11.327  10.532  0.2026  0.7510 -0.7219
25164SOL     OW85421   2.641   1.365  10.615 -0.1368 -0.6646 -0.2070
25164SOL    HW185422   2.712   1.382  10.676 -0.3155 -2.5963  0.5828
25164SOL    HW285423   2.685   1.336  10.535  0.0508  0.9513 -0.7302
25165SOL     OW85424  11.243  10.564   0.546  0.4528 -0.5808  0.0422
25165SOL    HW185425  11.260  10.609   0.463  0.7258 -0.1016  0.3531
25165SOL    HW285426  11.248  10.471   0.524  0.5161 -0.4581 -0.4816
25166SOL     OW85427   6.481   6.615  10.828 -0.0983 -0.2211  0.1951
25166SOL    HW185428   6.474   6.542  10.889  0.5820 -0.7074 -0.2857
25166SOL    HW285429   6.470   6.693  10.882 -0.8653 -0.6723  0.7123
25167SOL     OW85430   1.138   3.431   1.123 -0.0991 -0.4551  0.2810
25167SOL    HW185431   1.047   3.417   1.152 -0.9983  2.3453 -0.8614
25167SOL    HW285432   1.144   3.525   1.108  2.9165 -0.6204 -0.1022
25168SOL     OW85433   6.419   0.839   9.795  0.0353 -0.2846  0.5634
25168SOL    HW185434   6.489   0.773   9.800  0.9602  0.6816  0.6254
25168SOL    HW285435   6.443   0.904   9.860 -0.8179  0.1800  0.4277
25169SOL     OW85436   0.396   2.529   3.452  0.0073 -0.0334  0.4941
25169SOL    HW185437   0.330   2.584   3.494  1.0112  1.1431  0.5734
25169SOL    HW285438   0.391   2.552   3.359 -0.8044 -1.1525  0.2340
25170SOL     OW85439   6.442   4.317   2.877  0.0874  0.3490  0.1156
25170SOL    HW185440   6.374   4.362   2.828  0.2930  0.5206 -0.0153
25170SOL    HW285441   6.413   4.226   2.881  0.2216  0.2700 -0.5955
25171SOL     OW85442   1.947  11.129   9.982  0.0655  0.0702 -0.0977
25171SOL    HW185443   1.980  11.217  10.001 -0.9696  0.6102 -0.7043
25171SOL    HW285444   1.913  11.098  10.066  0.9790 -0.0085  0.2553
25172SOL     OW85445   7.856   7.417  12.343  0.0961  0.1857  0.7485
25172SOL    HW185446   7.818   7.471  12.412 -1.8292 -2.1889  1.6708
25172SOL    HW285447   7.781   7.379  12.298  1.3505  0.1811 -1.4773
25173SOL     OW85448   0.853   9.888   0.810  0.1457  0.2627  0.5891
25173SOL    HW185449   0.888   9.802   0.785  1.0968  0.7419  0.2420
25173SOL    HW285450   0.894   9.906   0.895 -1.1018 -0.2141  1.3210
25174SOL     OW85451   5.625  10.357  11.858 -0.1534 -0.7128  0.1762
25174SOL    HW185452   5.600  10.448  11.841 -1.7492 -0.9978  0.8225
25174SOL    HW285453   5.632  10.318  11.771 -0.4161 -0.2149 -0.0746
25175SOL     OW85454  11.586   2.515   0.016  0.5547  0.0958 -0.2515
25175SOL    HW185455  11.523   2.578   0.052  0.3282 -0.0129 -0.4567
25175SOL    HW285456  11.642   2.492   0.090 -0.3657 -0.6804  0.2210
25176SOL     OW85457   3.594  13.308   3.019 -0.3775 -0.6813 -0.4174
25176SOL    HW185458   3.670  13.350   2.979 -0.0100 -0.6729  0.2731
25176SOL    HW285459   3.628  13.266   3.097 -0.9505 -1.3234 -0.4986
25177SOL     OW85460   2.927   0.439   2.732  0.7709 -0.0843  0.5056
25177SOL    HW185461   2.862   0.370   2.716  0.5407  0.3576 -0.5164
25177SOL    HW285462   3.010   0.400   2.704  0.8577 -0.4271  1.2235
25178SOL     OW85463  11.894   8.572   3.241  0.6032 -0.0562 -0.1532
25178SOL    HW185464  11.984   8.561   3.213  0.5237 -0.6760 -0.1861
25178SOL    HW285465  11.888   8.522   3.323  0.2705 -0.0926 -0.1984
25179SOL     OW85466   5.063   5.423  12.526  0.1208 -0.5161 -0.2091
25179SOL    HW185467   4.979   5.437  12.571  0.2850  0.3186 -0.1452
25179SOL    HW285468   5.040   5.424  12.433  0.0228 -0.5177 -0.1862
25180SOL     OW85469   5.666   1.080   3.785 -0.3195 -0.8105 -0.3643
25180SOL    HW185470   5.594   1.124   3.740 -1.5168 -0.9647  1.3251
25180SOL    HW285471   5.666   0.992   3.749 -0.7795 -0.7250 -0.5829
25181SOL     OW85472   9.489  10.678   3.824  0.0848 -0.4797  0.6970
25181SOL    HW185473   9.514  10.755   3.775 -1.5862 -0.1936  0.2261
25181SOL    HW285474   9.535  10.606   3.782 -0.3296 -0.0660 -0.4844
25182SOL     OW85475   7.648   0.680   9.525 -0.1273 -0.2311  0.5666
25182SOL    HW185476   7.664   0.588   9.503  0.5907 -0.0995  0.5147
25182SOL    HW285477   7.613   0.718   9.444  0.9738 -0.1282  0.1154
25183SOL     OW85478   1.552   5.953   4.051  0.4682  0.0255  0.4051
25183SOL    HW185479   1.483   6.018   4.041  1.9076  1.4114 -1.4516
25183SOL    HW285480   1.579   5.960   4.142 -1.2772  0.0086  0.9505
25184SOL     OW85481   9.490   8.046   8.364 -0.0116  0.1247 -0.0118
25184SOL    HW185482   9.538   8.012   8.440  0.5497  1.7953  0.4140
25184SOL    HW285483   9.405   8.073   8.400 -0.3199 -0.4674 -0.2801
25185SOL     OW85484   6.087  12.710   5.409  0.4427  0.2411 -0.0033
25185SOL    HW185485   6.171  12.713   5.362  1.3826 -1.8831  1.4074
25185SOL    HW285486   6.111  12.721   5.501 -0.8957 -0.0421  0.3917
25186SOL     OW85487  12.913   5.935   1.053  0.0565 -0.2030  0.2289
25186SOL    HW185488  12.912   5.888   1.137  0.1023 -0.0559  0.3128
25186SOL    HW285489  12.848   5.889   1.000  1.1137 -1.2470 -0.1909
25187SOL     OW85490   8.150  12.176  11.840  0.1661 -0.0412  0.6971
25187SOL    HW185491   8.113  12.254  11.883 -1.2265  0.0165 -0.5116
25187SOL    HW285492   8.106  12.173  11.755  1.3784 -1.2721  0.0789
25188SOL     OW85493  11.986   2.815   0.717 -0.0153 -0.3479  0.5230
25188SOL    HW185494  11.933   2.867   0.657  0.0785 -0.2220  0.5484
25188SOL    HW285495  12.003   2.874   0.791 -0.2369 -0.5438  0.7314
25189SOL     OW85496   5.718   7.273  12.066 -0.2312  0.0132  0.3956
25189SOL    HW185497   5.735   7.203  12.003 -2.5748 -0.6223  0.3695
25189SOL    HW285498   5.787   7.265  12.131  1.6494  0.0204 -1.4897
25190SOL     OW85499   6.482   7.709   7.592  0.0276  0.9582  0.2035
25190SOL    HW185500   6.571   7.674   7.587  0.2058  1.4579 -0.1516
25190SOL    HW285501   6.442   7.687   7.509 -0.1990  0.6930  0.3815
25191SOL     OW85502   7.141  10.923   9.326  0.0206 -0.1795 -0.1619
25191SOL    HW185503   7.235  10.906   9.325  0.1835  0.6503 -0.9323
25191SOL    HW285504   7.134  11.018   9.321 -0.8588 -0.1363  1.3285
25192SOL     OW85505   9.612   9.677   1.003 -0.4707  0.4039  0.2906
25192SOL    HW185506   9.687   9.712   0.955  0.8379  1.0601  2.6305
25192SOL    HW285507   9.639   9.590   1.031 -0.4848  0.6989  1.2738
25193SOL     OW85508   3.800   6.582   9.727  0.3305  0.0513 -0.0245
25193SOL    HW185509   3.885   6.621   9.707 -0.0839  0.9581 -0.0635
25193SOL    HW285510   3.799   6.500   9.678  1.0728  0.1569 -0.2268
25194SOL     OW85511   2.304   9.680   1.686 -0.1395  0.5750 -0.8637
25194SOL    HW185512   2.275   9.652   1.599 -2.5742  1.2845 -0.3719
25194SOL    HW285513   2.283   9.774   1.689 -0.0989  0.5614  0.4728
25195SOL     OW85514   8.221   6.528  10.459 -0.3766 -0.1065  0.2725
25195SOL    HW185515   8.237   6.547  10.551 -0.8969 -0.8733  0.5341
25195SOL    HW285516   8.171   6.446  10.460  0.2301 -0.5033 -0.7238
25196SOL     OW85517   6.645   7.687   9.480  0.2162 -0.1988 -0.4050
25196SOL    HW185518   6.567   7.662   9.530 -0.7563  2.2752 -0.5329
25196SOL    HW285519   6.718   7.671   9.540 -0.2815 -2.8344 -0.3779
25197SOL     OW85520  13.297   1.590  12.270  0.0368 -0.1364 -0.0021
25197SOL    HW185521  13.251   1.586  12.187  0.0037 -1.8529  0.0617
25197SOL    HW285522  13.390   1.588  12.246  0.0994  1.7555 -0.0623
25198SOL     OW85523   6.547  12.106  11.696 -0.1118  0.3903  0.1708
25198SOL    HW185524   6.613  12.064  11.642 -1.0577 -0.4671 -0.3484
25198SOL    HW285525   6.556  12.199  11.677 -1.3310  0.0428 -2.6145
25199SOL     OW85526  12.922   7.538   4.493 -0.0853 -0.5685 -0.0076
25199SOL    HW185527  12.914   7.501   4.582  0.6835 -0.1667  0.2350
25199SOL    HW285528  12.858   7.609   4.491 -0.5502 -0.9768  0.0073
25200SOL     OW85529   2.250  10.463   9.555 -0.1887  0.3388 -0.7094
25200SOL    HW185530   2.195  10.517   9.612 -1.3971 -0.3322 -1.1796
25200SOL    HW285531   2.187  10.405   9.511  1.0167 -1.1495 -0.5212
25201SOL     OW85532   4.679   5.457   0.993  0.1183 -0.6414  0.4671
25201SOL    HW185533   4.721   5.466   1.079  1.5986  0.8895 -0.3760
25201SOL    HW285534   4.711   5.374   0.959  0.3963 -0.7239  0.9278
25202SOL     OW85535   7.377   8.434  10.689 -0.3146 -0.0475 -0.9459
25202SOL    HW185536   7.449   8.496  10.682  0.7753 -0.9752  1.0434
25202SOL    HW285537   7.393   8.372  10.618  0.5644  0.0670 -0.8712
25203SOL     OW85538   6.694  10.862   0.040 -0.5914 -0.2246 -0.2996
25203SOL    HW185539   6.622  10.849   0.102 -0.8287 -2.0124 -0.8734
25203SOL    HW285540   6.773  10.859   0.094 -0.8988  2.9802  0.5104
25204SOL     OW85541   5.896   0.401  11.241  0.1593 -0.0934  0.1967
25204SOL    HW185542   5.986   0.367  11.246  0.0664 -0.5007 -0.7652
25204SOL    HW285543   5.864   0.372  11.156 -1.0282 -0.2891  0.6864
25205SOL     OW85544  12.016   7.449  11.519  0.4305 -0.0326  0.2692
25205SOL    HW185545  11.991   7.428  11.430 -0.7249  0.4727  0.4529
25205SOL    HW285546  12.111   7.459  11.516  0.5074 -0.9277 -0.6951
25206SOL     OW85547   9.968   3.997  11.618 -0.2120 -0.2615  0.7643
25206SOL    HW185548   9.930   4.057  11.553  2.0188 -1.0357 -1.4268
25206SOL    HW285549   9.921   3.915  11.605  1.5023 -0.9987 -1.4048
25207SOL     OW85550  11.952   7.434   0.540 -0.1279  0.3937 -0.1076
25207SOL    HW185551  11.859   7.458   0.541 -0.6243 -1.3645  0.8365
25207SOL    HW285552  11.970   7.410   0.450 -1.2783 -1.5748  0.1393
25208SOL     OW85553   4.789   9.069   1.242 -0.1874  0.4495  0.1055
25208SOL    HW185554   4.806   9.135   1.175 -1.0821  0.1452 -0.4509
25208SOL    HW285555   4.818   8.987   1.202 -1.4974  0.1432 -0.2678
25209SOL     OW85556   7.275   0.108   1.590 -0.6812 -0.4759  0.2237
25209SOL    HW185557   7.353   0.131   1.640 -0.2391 -1.5790  0.0633
25209SOL    HW285558   7.305   0.042   1.527 -1.2252  0.8503 -1.5097
25210SOL     OW85559   6.224   8.019  12.073  0.2147 -0.2030  0.4906
25210SOL    HW185560   6.286   8.051  12.007 -0.7259 -1.1312 -0.8958
25210SOL    HW285561   6.150   8.080  12.067 -0.6964 -1.3604 -0.7139
25211SOL     OW85562   2.167   6.287   7.725 -0.3893  0.3161  0.2361
25211SOL    HW185563   2.213   6.276   7.643 -0.1539  0.0455  0.4054
25211SOL    HW285564   2.085   6.331   7.701  0.5462  2.0870  0.0978
25212SOL     OW85565   9.534   6.842   1.384 -0.0560 -0.4673  0.4251
25212SOL    HW185566   9.498   6.929   1.404  0.6291  0.2743 -1.3282
25212SOL    HW285567   9.458   6.784   1.384 -0.3453 -0.2258  3.1284
25213SOL     OW85568   4.304   6.077   6.377  0.2563  0.1063  0.7467
25213SOL    HW185569   4.394   6.110   6.380  0.6256 -0.4448 -1.7376
25213SOL    HW285570   4.313   5.983   6.367 -0.4314  0.2523 -2.0400
25214SOL     OW85571   9.914   5.640   1.971 -0.2547  0.0001  0.6058
25214SOL    HW185572   9.846   5.685   2.020 -1.0357 -0.7516  0.2345
25214SOL    HW285573   9.867   5.590   1.904  0.6128 -0.9157  0.6523
25215SOL     OW85574   6.094   9.345   2.357  0.2181  0.0729 -0.4778
25215SOL    HW185575   6.016   9.291   2.363  0.5614 -0.2636  1.4802
25215SOL    HW285576   6.091   9.402   2.434  1.2690  0.9216 -1.0290
25216SOL     OW85577   8.753  11.058   5.685  0.5483 -0.5799  0.0143
25216SOL    HW185578   8.786  11.127   5.628  0.1008 -0.2521  0.1410
25216SOL    HW285579   8.745  11.099   5.771 -1.4484 -0.2124 -0.2803
25217SOL     OW85580  12.859   3.022   0.816  0.1617 -0.1801 -0.1018
25217SOL    HW185581  12.928   3.029   0.750  1.2568  0.2504  1.0362
25217SOL    HW285582  12.825   2.933   0.806  2.4172 -1.2332  0.7065
25218SOL     OW85583  12.396   0.031   3.886 -0.2795  0.2620 -0.3614
25218SOL    HW185584  12.376   0.124   3.901 -0.9118  0.2208 -0.8794
25218SOL    HW285585  12.312  -0.007   3.861 -0.3184 -0.7504  1.2358
25219SOL     OW85586   2.485   6.629   6.502 -0.3704  0.0251 -0.1173
25219SOL    HW185587   2.450   6.698   6.559 -0.8459  0.4748 -0.9436
25219SOL    HW285588   2.410   6.572   6.485 -0.3965  0.2792 -0.8563
25220SOL     OW85589   9.292   2.829   1.178  0.0560 -0.3762  0.2443
25220SOL    HW185590   9.388   2.831   1.175  0.0371 -0.4333 -0.7521
25220SOL    HW285591   9.272   2.800   1.267  0.9706 -0.5071  0.4218
25221SOL     OW85592   8.341   8.788  11.665  0.0185 -0.0165 -0.3436
25221SOL    HW185593   8.282   8.806  11.591  1.5222 -0.4777 -1.7189
25221SOL    HW285594   8.302   8.713  11.709 -1.0172  0.3980 -0.5211
25222SOL     OW85595  12.235   9.063   4.627  0.2186 -0.7606  0.6199
25222SOL    HW185596  12.232   9.096   4.717 -0.8530 -0.5728  0.5294
25222SOL    HW285597  12.254   9.141   4.574  0.0876 -0.7358  0.6108
25223SOL     OW85598   8.035  12.797   4.321 -0.0328  0.1804  0.9142
25223SOL    HW185599   7.999  12.886   4.324 -1.2020 -0.2818  0.7759
25223SOL    HW285600   8.065  12.787   4.231 -0.1869  0.3241  0.8456
25224SOL     OW85601  11.028  10.894   7.742  0.2035  0.1905  0.1799
25224SOL    HW185602  11.115  10.918   7.708  0.0200  0.8289  0.1526
25224SOL    HW285603  10.967  10.932   7.679 -0.0955 -0.5557  0.0069
25225SOL     OW85604   9.591   0.013  13.273 -0.1164  0.4055  0.4734
25225SOL    HW185605   9.503  -0.007  13.304 -0.5662  1.2590 -0.2023
25225SOL    HW285606   9.580   0.090  13.216  1.1478  0.8830  0.8343
25226SOL     OW85607   2.808   3.547   9.629  0.0173 -0.2386 -0.1229
25226SOL    HW185608   2.720   3.530   9.595  0.4925  2.1642 -3.0221
25226SOL    HW285609   2.858   3.469   9.607 -1.1476 -1.2756  0.7764
25227SOL     OW85610   7.826   6.639   7.227 -0.2071 -0.8841 -0.4986
25227SOL    HW185611   7.780   6.718   7.256 -0.1873 -0.7693 -0.7749
25227SOL    HW285612   7.840   6.652   7.134  0.3836 -0.9240 -0.4206
25228SOL     OW85613   8.535   8.760   9.356  0.3518  0.5406 -0.4525
25228SOL    HW185614   8.452   8.716   9.373  0.9006 -0.0163  0.8642
25228SOL    HW285615   8.569   8.718   9.277  0.4393 -0.8045  0.2808
25229SOL     OW85616  11.654   1.862   6.808 -0.1604  0.5786  0.4682
25229SOL    HW185617  11.645   1.956   6.821 -0.2456  0.5021  0.9579
25229SOL    HW285618  11.613   1.822   6.885  3.9744  0.2289  2.7901
25230SOL     OW85619   4.930   8.714   2.561 -0.4321  0.0125  0.3288
25230SOL    HW185620   4.860   8.670   2.513  0.5397 -1.9649  0.6336
25230SOL    HW285621   4.906   8.705   2.653 -0.9445  1.4606  0.3703
25231SOL     OW85622   7.691   3.425  11.446 -0.2740  0.7209 -0.1742
25231SOL    HW185623   7.637   3.347  11.434 -0.9230  0.8933  1.3683
25231SOL    HW285624   7.778   3.399  11.414 -0.8296 -0.1262 -1.0743
25232SOL     OW85625   8.106   6.773   6.366  0.0422 -0.4009  0.3687
25232SOL    HW185626   8.131   6.828   6.440 -1.5947 -0.2768  0.8532
25232SOL    HW285627   8.098   6.833   6.292 -0.0741 -0.2503  0.5045
25233SOL     OW85628   8.378   5.517   2.802 -0.4742  0.5666 -0.0710
25233SOL    HW185629   8.429   5.439   2.822  0.0833  1.1051  0.6480
25233SOL    HW285630   8.443   5.586   2.792 -0.7870  0.5942 -2.5953
25234SOL     OW85631   0.798   1.238   8.431  0.4673 -0.4827 -0.1871
25234SOL    HW185632   0.782   1.331   8.446  1.5179 -0.2693 -0.3548
25234SOL    HW285633   0.779   1.225   8.338  1.8494 -0.0940 -0.5378
25235SOL     OW85634   1.975  10.476   2.742  0.3265  0.5840  0.1616
25235SOL    HW185635   2.001  10.564   2.768  0.3886  0.6750 -0.2099
25235SOL    HW285636   1.947  10.484   2.651  0.5730  0.1716  0.0470
25236SOL     OW85637   6.243   6.958   5.050  0.4716  0.3149 -0.5295
25236SOL    HW185638   6.203   6.871   5.052 -2.6933  1.5900 -1.6415
25236SOL    HW285639   6.295   6.962   5.130  0.8781 -2.6157 -0.5359
25237SOL     OW85640   3.043   2.531   5.587  0.0484 -0.3104  0.6068
25237SOL    HW185641   3.026   2.541   5.681 -0.8019  0.9166  0.3417
25237SOL    HW285642   3.119   2.586   5.570 -1.7658  2.2135  0.0267
25238SOL     OW85643   8.380   0.813  11.628  0.5491  0.5258 -0.9030
25238SOL    HW185644   8.454   0.777  11.677 -0.3833  1.1441  1.0525
25238SOL    HW285645   8.368   0.752  11.555  0.3037 -2.0649  1.1462
25239SOL     OW85646   8.832   8.206  12.948  0.3058  0.2340  0.1089
25239SOL    HW185647   8.750   8.161  12.967 -0.0263  0.3990 -0.8887
25239SOL    HW285648   8.900   8.150  12.986 -0.1715 -0.5801 -0.2215
25240SOL     OW85649  10.719   9.697   1.710  0.5575 -0.0647 -0.0369
25240SOL    HW185650  10.763   9.743   1.781  0.3978 -0.5692  0.4027
25240SOL    HW285651  10.763   9.726   1.630  0.5937  0.6788  0.2490
25241SOL     OW85652  11.619   4.235   8.175 -0.1367 -0.3323  0.0492
25241SOL    HW185653  11.608   4.330   8.186  2.1312 -0.1854  1.7224
25241SOL    HW285654  11.555   4.212   8.107 -0.4950  2.4491 -0.7135
25242SOL     OW85655   8.906   4.906  12.920  0.7736 -0.2846 -0.0594
25242SOL    HW185656   8.974   4.843  12.946  0.2811 -0.3639  1.1251
25242SOL    HW285657   8.824   4.856  12.927  0.4607  0.2370 -0.0054
25243SOL     OW85658   0.626  12.048   2.625 -0.2720  0.1033  0.3882
25243SOL    HW185659   0.551  12.008   2.582 -0.8893 -0.0232  1.5436
25243SOL    HW285660   0.657  12.114   2.563 -0.7134 -0.5239 -0.5176
25244SOL     OW85661   6.470   4.825   9.542  0.1033 -0.3910 -0.3713
25244SOL    HW185662   6.513   4.868   9.616  1.9516 -0.5557 -1.3030
25244SOL    HW285663   6.408   4.890   9.509 -0.7864 -0.3310  1.3056
25245SOL     OW85664  12.286  12.138   7.577 -0.4142 -0.4152 -0.3251
25245SOL    HW185665  12.346  12.063   7.579 -1.4662 -1.3875 -2.1987
25245SOL    HW285666  12.333  12.205   7.528  0.1800 -0.1584  0.5775
25246SOL     OW85667  11.447   9.279   9.264  0.4413 -0.1917 -0.2103
25246SOL    HW185668  11.523   9.325   9.230  0.7315 -0.8984 -0.5153
25246SOL    HW285669  11.483   9.206   9.313 -0.0164  0.0067  0.4389
25247SOL     OW85670   5.606   1.715   7.738 -0.3067  0.7146 -0.4081
25247SOL    HW185671   5.564   1.671   7.812  1.3517  0.2231  0.2983
25247SOL    HW285672   5.647   1.793   7.777 -0.8186  1.3611 -1.1319
25248SOL     OW85673   4.844   6.547  11.998 -0.1406 -0.4624 -0.1313
25248SOL    HW185674   4.763   6.504  12.027  0.1574 -1.3230 -0.5349
25248SOL    HW285675   4.897   6.553  12.078 -0.2386 -0.7293 -0.0428
25249SOL     OW85676  11.128   0.721   7.376 -0.2003  0.0120  0.1243
25249SOL    HW185677  11.101   0.649   7.434 -0.6459 -0.9126 -1.1802
25249SOL    HW285678  11.086   0.701   7.292 -1.2529  2.3878  0.0050
25250SOL     OW85679   2.977   2.284   5.837 -0.3975  0.3433 -0.0500
25250SOL    HW185680   2.954   2.353   5.899 -0.6628 -0.2684  0.5469
25250SOL    HW285681   2.943   2.315   5.753 -0.6796  0.8506  0.2455
25251SOL     OW85682   7.730   7.279   2.745  0.0429  1.0280  0.1131
25251SOL    HW185683   7.742   7.311   2.656 -0.6915  2.2567  0.4341
25251SOL    HW285684   7.814   7.238   2.767 -0.1318 -0.3092 -1.5102
25252SOL     OW85685   0.369   0.022   3.266  0.2645  0.6197 -0.1646
25252SOL    HW185686   0.396   0.025   3.174 -0.7890 -1.7341 -0.6249
25252SOL    HW285687   0.451   0.029   3.315  1.2030 -1.0844 -1.3942
25253SOL     OW85688   3.161   7.201   3.946 -0.0271  0.3505  0.1521
25253SOL    HW185689   3.157   7.292   3.917  0.7512 -0.0168 -1.1633
25253SOL    HW285690   3.113   7.151   3.880 -0.2157 -0.2404  0.7168
25254SOL     OW85691   1.868   6.647   6.539  0.1579 -0.6488 -0.5508
25254SOL    HW185692   1.844   6.717   6.600 -0.3885  0.5143 -2.0353
25254SOL    HW285693   1.821   6.570   6.572 -0.9727  0.1938 -0.0946
25255SOL     OW85694   1.720   8.806  11.918 -0.3734  0.3424 -0.2296
25255SOL    HW185695   1.695   8.886  11.871  1.0983  0.6970 -0.4639
25255SOL    HW285696   1.815   8.802  11.908 -0.2791 -0.7182  0.9418
25256SOL     OW85697   8.889   3.445   1.653  0.0224 -0.0750  0.1261
25256SOL    HW185698   8.859   3.393   1.579 -2.0130  0.4510  0.5168
25256SOL    HW285699   8.905   3.380   1.723  0.9053 -0.4615 -0.4122
25257SOL     OW85700   3.805   3.597   2.715  0.2258 -0.3345 -0.4481
25257SOL    HW185701   3.829   3.564   2.801 -0.0977 -0.5941 -0.4528
25257SOL    HW285702   3.863   3.551   2.654  0.0359 -0.6118 -0.4210
25258SOL     OW85703   8.403   2.451   1.197 -0.3633  0.4856 -0.2008
25258SOL    HW185704   8.332   2.440   1.133  0.7371  0.5798 -1.4994
25258SOL    HW285705   8.464   2.380   1.176 -0.8332 -0.6306  1.9963
25259SOL     OW85706   4.361   9.020   2.223  0.3729  0.0863 -0.0189
25259SOL    HW185707   4.309   8.973   2.289  0.3966  0.9779  0.6403
25259SOL    HW285708   4.388   8.951   2.161  0.0981 -0.7101  0.7252
25260SOL     OW85709   8.324  13.047   8.463  0.3158  0.2095 -0.0525
25260SOL    HW185710   8.371  12.966   8.447  2.1925  1.0945  0.7426
25260SOL    HW285711   8.296  13.042   8.554 -1.2154 -0.3180 -0.5221
25261SOL     OW85712   9.966   2.210   0.895  0.1879  0.0393 -0.7905
25261SOL    HW185713   9.945   2.276   0.961  1.1446  0.7918 -1.2096
25261SOL    HW285714   9.960   2.126   0.942  2.0325  0.6168  0.5907
25262SOL     OW85715   8.611   0.273  11.474 -0.2016 -0.1143 -0.4934
25262SOL    HW185716   8.523   0.298  11.504 -0.8661 -0.3511 -2.1497
25262SOL    HW285717   8.610   0.178  11.472  0.5020 -0.1642  0.5635
25263SOL     OW85718   3.134   3.118  10.953  0.3042  0.4597 -0.6555
25263SOL    HW185719   3.173   3.189  10.902  0.0728  0.8324 -0.3069
25263SOL    HW285720   3.209   3.068  10.985  0.5255  1.3433  0.2552
25264SOL     OW85721   4.065   4.152   2.128 -0.1896  0.2790  0.2594
25264SOL    HW185722   4.139   4.175   2.185  0.4428 -0.8367 -0.0898
25264SOL    HW285723   4.014   4.089   2.178 -0.6197  0.6427  0.2856
25265SOL     OW85724  11.356  11.529   9.966 -0.4021 -0.3680  1.0187
25265SOL    HW185725  11.375  11.529   9.872 -1.0358  0.7329  0.8781
25265SOL    HW285726  11.334  11.438   9.985 -0.3422 -0.5932  0.0869
25266SOL     OW85727   4.893   4.382  10.004 -0.2873  0.7893 -0.0299
25266SOL    HW185728   4.949   4.319  10.049 -0.5495 -1.7713 -2.8866
25266SOL    HW285729   4.806   4.368  10.041 -0.1994 -0.0109 -0.1080
25267SOL     OW85730   1.479   3.987  11.003  0.1678 -0.3670 -0.1374
25267SOL    HW185731   1.386   3.965  11.000  0.5360 -2.4780  1.6955
25267SOL    HW285732   1.523   3.913  10.963  1.1268  0.1317 -0.0356
25268SOL     OW85733   0.049   3.999  10.689 -0.0177  0.0408 -0.1494
25268SOL    HW185734   0.030   4.074  10.632 -1.0224 -0.5553 -0.6389
25268SOL    HW285735   0.009   3.925  10.644 -1.5749 -0.3361  1.7064
25269SOL     OW85736   2.184   8.462   7.051 -0.5740 -0.1744  0.3620
25269SOL    HW185737   2.123   8.531   7.025 -0.4679 -0.5766 -1.0673
25269SOL    HW285738   2.248   8.458   6.980  0.3981 -0.6078  1.2355
25270SOL     OW85739   7.656   9.701   4.462 -0.5978  0.2296 -0.0994
25270SOL    HW185740   7.681   9.787   4.429 -2.3669  0.3433 -1.2923
25270SOL    HW285741   7.622   9.717   4.550  0.3230  0.5264  0.2141
25271SOL     OW85742   2.280   3.954   8.705  0.0538  0.1382 -0.2415
25271SOL    HW185743   2.299   3.989   8.618  0.6212 -0.4692 -0.3732
25271SOL    HW285744   2.345   3.995   8.763  0.1319  0.0033 -0.2325
25272SOL     OW85745   4.617   2.989   9.172 -0.6170 -0.0915  0.1585
25272SOL    HW185746   4.547   2.949   9.121  1.4678 -1.4670 -1.8368
25272SOL    HW285747   4.644   2.921   9.234 -0.3190  0.0020  0.1342
25273SOL     OW85748   1.305   0.367   5.566 -0.0451  0.4488  0.0565
25273SOL    HW185749   1.395   0.347   5.590 -0.0872  1.3299  1.0152
25273SOL    HW285750   1.282   0.443   5.619 -0.8992  1.1072 -1.1971
25274SOL     OW85751  10.763   3.420   0.969  0.3544  0.2163 -0.2174
25274SOL    HW185752  10.748   3.449   1.058  1.7239 -2.0263  0.8422
25274SOL    HW285753  10.716   3.483   0.914 -0.0693  1.9613  2.0260
25275SOL     OW85754   8.132   4.115   0.886  0.2701 -0.0117  0.4631
25275SOL    HW185755   8.148   4.048   0.820  1.9130  0.5078  0.2958
25275SOL    HW285756   8.066   4.077   0.944  1.8473 -2.1984  0.9426
25276SOL     OW85757  11.918  11.202  12.526  0.2296  0.6939  0.1216
25276SOL    HW185758  11.935  11.290  12.558  0.9996  0.8011 -0.5454
25276SOL    HW285759  11.866  11.161  12.595  2.4794  0.6399  1.9241
25277SOL     OW85760   1.862   6.811   0.520  0.5055 -0.2108  0.6891
25277SOL    HW185761   1.859   6.885   0.460 -0.3494  0.3319  1.3875
25277SOL    HW285762   1.857   6.734   0.463 -1.7501  0.2917  0.1088
25278SOL     OW85763   9.669   9.650  13.134 -0.3946  0.2348 -0.0888
25278SOL    HW185764   9.630   9.571  13.097 -1.1886  0.2672  0.6391
25278SOL    HW285765   9.689   9.627  13.224  1.1762  0.2708 -0.4033
25279SOL     OW85766   0.008  11.811  10.857  0.4121 -0.5223 -0.4317
25279SOL    HW185767   0.039  11.764  10.780  0.6820  0.6859 -1.0710
25279SOL    HW285768   0.016  11.903  10.835  1.8001 -0.0960  1.5459
25280SOL     OW85769   8.107   0.078   3.528 -0.0836  0.1476 -0.1401
25280SOL    HW185770   8.199   0.057   3.545  0.4532  0.2694 -2.5202
25280SOL    HW285771   8.095   0.167   3.561  0.5109 -0.0476  0.6189
25281SOL     OW85772   8.874   9.442   5.651 -0.1205 -0.0390  0.0341
25281SOL    HW185773   8.862   9.420   5.558  0.5898 -1.6939  0.2929
25281SOL    HW285774   8.862   9.358   5.696  1.6786  0.3101  1.2411
25282SOL     OW85775   7.924  12.882   0.878 -0.5126 -0.1982 -0.1273
25282SOL    HW185776   8.011  12.858   0.844 -0.4336  0.8865 -0.7488
25282SOL    HW285777   7.931  12.869   0.972 -0.4625 -2.4771 -0.3728
25283SOL     OW85778  10.092  12.987   7.038 -0.3011 -0.1583  0.3983
25283SOL    HW185779  10.160  12.924   7.013  1.3770  1.4506  0.6752
25283SOL    HW285780  10.102  12.995   7.133  1.5282  2.6080  0.0822
25284SOL     OW85781   6.653  12.611   0.367 -0.1182 -0.5349  0.1615
25284SOL    HW185782   6.585  12.644   0.309 -0.6743  2.5530  2.3261
25284SOL    HW285783   6.730  12.664   0.346  0.2645 -0.8039  0.8663
25285SOL     OW85784  11.964   1.760   0.469  0.0674 -0.3276  0.0342
25285SOL    HW185785  12.038   1.700   0.476  0.4749 -0.0443 -1.5551
25285SOL    HW285786  11.899   1.712   0.417 -1.3042 -0.9566  2.2109
25286SOL     OW85787   6.833   7.271   2.700 -0.2427  0.1505  0.2875
25286SOL    HW185788   6.816   7.343   2.640 -0.3375  0.4703  0.6931
25286SOL    HW285789   6.779   7.199   2.667 -0.5066  0.4097  0.1480
25287SOL     OW85790   3.381   5.132  10.951 -0.1869 -0.1749  0.1921
25287SOL    HW185791   3.442   5.193  10.990 -0.1151  0.6502 -1.1380
25287SOL    HW285792   3.302   5.138  11.005 -0.1098  0.9550  0.1990
25288SOL     OW85793   9.685   1.483  11.988  0.3317 -0.4145  0.6532
25288SOL    HW185794   9.693   1.562  11.934  0.1755 -0.9830 -0.2169
25288SOL    HW285795   9.619   1.505  12.053 -1.0509 -0.4269 -0.7004
25289SOL     OW85796   5.907   2.210   8.043 -0.0797  0.4732  0.3108
25289SOL    HW185797   5.984   2.189   7.989  0.2948  0.6969  0.7459
25289SOL    HW285798   5.943   2.221   8.131 -0.4520  1.6312  0.3304
25290SOL     OW85799   8.749   9.508  12.578 -0.0650  0.1993  0.0949
25290SOL    HW185800   8.833   9.465  12.563 -0.8260 -1.0276 -0.9808
25290SOL    HW285801   8.769   9.601  12.584  1.2908 -0.0165 -0.7949
25291SOL     OW85802   4.190   0.536   5.329  0.3499  0.3678  0.2317
25291SOL    HW185803   4.248   0.540   5.253 -1.0492 -0.5459 -0.9479
25291SOL    HW285804   4.135   0.614   5.322  0.0714  0.1687  0.1694
25292SOL     OW85805   2.020   2.392   0.549 -0.9651 -0.3081  0.1993
25292SOL    HW185806   2.063   2.338   0.483 -0.5653  0.7071 -0.3939
25292SOL    HW285807   2.068   2.374   0.630 -1.4121 -1.5025  0.2139
25293SOL     OW85808   8.704   6.112   3.844 -0.3680 -0.6041 -0.8363
25293SOL    HW185809   8.705   6.180   3.911  0.1164  0.5640 -1.9751
25293SOL    HW285810   8.630   6.056   3.867 -0.1746 -0.2667  0.6845
25294SOL     OW85811  12.152   2.972   1.034  0.1645 -0.2708  0.5572
25294SOL    HW185812  12.226   3.026   1.060 -0.9901  1.6893 -0.0120
25294SOL    HW285813  12.105   3.025   0.970 -0.4291 -2.4369 -0.9270
25295SOL     OW85814   0.077   2.109   2.925  0.2646 -0.6878  0.2634
25295SOL    HW185815   0.167   2.101   2.892  0.5017  1.7076  0.1504
25295SOL    HW285816   0.079   2.187   2.980 -2.1789  0.7009 -1.4339
25296SOL     OW85817   4.939   0.289   2.226 -0.1058 -0.0797  0.0488
25296SOL    HW185818   4.909   0.289   2.135 -0.3909  0.6249  0.1338
25296SOL    HW285819   4.931   0.380   2.253 -1.1223 -0.4742  1.1521
25297SOL     OW85820   0.729   8.373   0.831 -0.5969 -0.1215  0.4866
25297SOL    HW185821   0.702   8.359   0.740 -0.9009 -0.5571  0.6412
25297SOL    HW285822   0.674   8.314   0.882 -1.2925  1.0090  1.0797
25298SOL     OW85823   3.392  12.488   8.343  0.1988 -0.1304 -0.0020
25298SOL    HW185824   3.463  12.429   8.370  0.9620  0.7581 -0.0033
25298SOL    HW285825   3.366  12.532   8.424  0.6023  0.5482 -0.2379
25299SOL     OW85826  12.344   5.910   1.895 -0.0403  0.5198 -0.6047
25299SOL    HW185827  12.423   5.960   1.875  0.5675 -0.0668  0.2466
25299SOL    HW285828  12.359   5.875   1.983 -1.1199  0.1431 -0.5513
25300SOL     OW85829  12.304   1.011   7.286  0.4262  0.0549  0.4104
25300SOL    HW185830  12.216   1.049   7.279 -0.4940 -2.1284 -0.9839
25300SOL    HW285831  12.305   0.968   7.372 -0.9433 -2.1773 -0.5924
25301SOL     OW85832   2.703   8.544   1.965  0.2889  0.2360 -0.1610
25301SOL    HW185833   2.679   8.586   1.882  1.4896  0.2812 -0.5179
25301SOL    HW285834   2.743   8.614   2.016  2.5734 -0.4400 -0.8720
25302SOL     OW85835   0.516   6.249   1.582  0.2050  1.0693 -0.3011
25302SOL    HW185836   0.569   6.328   1.575 -0.8219  1.7543 -0.6609
25302SOL    HW285837   0.438   6.269   1.530 -0.4138  0.1113  0.2456
25303SOL     OW85838   3.640   1.882   6.777  0.4208  0.3902 -0.3429
25303SOL    HW185839   3.609   1.972   6.768  0.0138  0.7971  3.4809
25303SOL    HW285840   3.580   1.831   6.722 -0.0685  2.2763 -1.6833
25304SOL     OW85841   0.546   2.243   8.835 -0.3477 -0.2760  0.0876
25304SOL    HW185842   0.464   2.270   8.875 -1.0297 -1.9265 -0.1042
25304SOL    HW285843   0.527   2.236   8.742  0.6886  1.5992 -0.3216
25305SOL     OW85844   0.528   3.123   2.644 -0.1531 -0.2989  0.3886
25305SOL    HW185845   0.570   3.204   2.674 -2.0788  0.9166 -0.0545
25305SOL    HW285846   0.525   3.131   2.549 -0.2807 -0.9479  0.3304
25306SOL     OW85847   0.435   6.806  13.236 -0.3151  0.5266 -0.3985
25306SOL    HW185848   0.422   6.901  13.240  1.8403  0.8894 -0.6887
25306SOL    HW285849   0.358   6.773  13.190 -0.1506  2.3985 -2.1562
25307SOL     OW85850   9.707   1.387   8.411 -0.0926 -0.3191  0.1893
25307SOL    HW185851   9.787   1.338   8.428 -0.3369 -0.1711  1.9554
25307SOL    HW285852   9.719   1.470   8.458 -1.1934 -0.2356  0.3516
25308SOL     OW85853   1.321   9.128  10.927  0.2994 -0.4147 -0.8223
25308SOL    HW185854   1.333   9.037  10.897  0.7822 -0.7978  0.4587
25308SOL    HW285855   1.233   9.152  10.896  0.1658 -1.3140 -1.1763
25309SOL     OW85856   8.555   5.296   3.277  0.4504 -0.1556 -0.5156
25309SOL    HW185857   8.549   5.386   3.309 -1.4485 -1.1361  2.3113
25309SOL    HW285858   8.645   5.269   3.297  0.3372  0.4038  0.8481
25310SOL     OW85859   7.674   8.035   9.507 -0.6726 -0.3978  0.5596
25310SOL    HW185860   7.646   8.024   9.416 -1.1794 -0.5279  0.7246
25310SOL    HW285861   7.735   7.963   9.523 -1.4092 -1.0230  0.6352
25311SOL     OW85862   3.259   6.457  10.323  0.1441  0.1642  0.1217
25311SOL    HW185863   3.168   6.442  10.347 -0.1172  0.1148 -0.8471
25311SOL    HW285864   3.275   6.549  10.344 -0.9650  0.9581 -2.1698
25312SOL     OW85865   3.397   2.594  12.510 -0.1057 -0.5391  0.0461
25312SOL    HW185866   3.350   2.575  12.429  1.3087  0.5795 -1.0899
25312SOL    HW285867   3.467   2.529  12.514  0.0848 -0.3326  0.1372
25313SOL     OW85868   4.501   3.556   8.126 -0.5205  0.1681 -0.0656
25313SOL    HW185869   4.537   3.567   8.038  0.3770  2.6633  0.5183
25313SOL    HW285870   4.568   3.506   8.173 -1.2235 -1.6098 -0.8603
25314SOL     OW85871   8.823   6.424  12.869 -0.2645 -0.0193 -0.0522
25314SOL    HW185872   8.894   6.371  12.832 -0.9680 -1.8254  1.0489
25314SOL    HW285873   8.744   6.393  12.824 -0.8790 -0.9656  1.5955
25315SOL     OW85874  11.824  11.793   8.458  0.0742 -0.0873 -0.5903
25315SOL    HW185875  11.893  11.859   8.466 -0.9326  0.8884  0.5109
25315SOL    HW285876  11.755  11.836   8.407 -1.1568  0.2737  1.2635
25316SOL     OW85877   5.742   0.618   0.186 -0.1930  0.2244 -0.5476
25316SOL    HW185878   5.816   0.558   0.189  0.8828  1.5088  2.3437
25316SOL    HW285879   5.665   0.562   0.198  0.6926 -0.7476  0.8812
25317SOL     OW85880   1.482   0.214   4.393 -0.2422 -0.4514 -0.0571
25317SOL    HW185881   1.533   0.135   4.375 -0.7834 -0.7729 -0.2037
25317SOL    HW285882   1.402   0.181   4.434 -1.0630 -0.1003 -1.3301
25318SOL     OW85883   4.109   9.893   6.686 -0.7944 -0.0225  0.3878
25318SOL    HW185884   4.108   9.987   6.665  0.5807 -0.5598 -2.5629
25318SOL    HW285885   4.201   9.870   6.689 -1.0043 -1.9511 -2.9423
25319SOL     OW85886   2.378   9.806  11.516  0.0671  0.1921  0.3465
25319SOL    HW185887   2.407   9.896  11.529  0.1838  0.2937 -0.5565
25319SOL    HW285888   2.365   9.772  11.604  1.0591  0.7582  0.7288
25320SOL     OW85889  11.512   5.839  11.024 -0.1638  0.0950  0.2041
25320SOL    HW185890  11.481   5.803  11.107  0.9776 -0.0783  0.5635
25320SOL    HW285891  11.447   5.905  11.001 -0.8994 -0.3930  0.8431
25321SOL     OW85892  10.789   5.652   3.125  0.5775 -0.1060 -0.9260
25321SOL    HW185893  10.739   5.629   3.204  0.8977 -0.4037 -0.8041
25321SOL    HW285894  10.749   5.601   3.055 -1.6861  2.3923 -1.6124
25322SOL     OW85895   8.246   7.698  12.952 -0.4556  0.2956  0.1771
25322SOL    HW185896   8.194   7.730  12.878  1.6674  0.5192 -1.2968
25322SOL    HW285897   8.196   7.725  13.030 -1.7796  1.7797 -1.1131
25323SOL     OW85898   6.841   8.928  10.748  0.1297  0.2814  0.0756
25323SOL    HW185899   6.919   8.942  10.803  0.2149  0.3622 -0.0630
25323SOL    HW285900   6.768   8.956  10.802  0.0834 -0.8435  0.6230
25324SOL     OW85901   8.108  11.445   6.263 -0.5788  0.4769 -0.1709
25324SOL    HW185902   8.134  11.528   6.223  0.2708  1.1997  1.7501
25324SOL    HW285903   8.147  11.379   6.206  0.6019  1.4457 -0.5504
25325SOL     OW85904   4.656   5.868  12.355 -0.7763 -1.1010  0.1769
25325SOL    HW185905   4.620   5.941  12.406 -0.9408 -2.2004  1.7074
25325SOL    HW285906   4.579   5.818  12.327 -0.7282 -0.1981 -1.7252
25326SOL     OW85907   4.366   0.259   6.590 -0.0045 -0.2283  0.4890
25326SOL    HW185908   4.432   0.196   6.620 -0.4764 -0.6387  0.6816
25326SOL    HW285909   4.372   0.256   6.495  0.6698  0.1934  0.5041
25327SOL     OW85910  10.171   7.767   8.939  0.0977 -0.1226  0.1029
25327SOL    HW185911  10.221   7.773   9.021 -1.2226 -2.2876  1.1326
25327SOL    HW285912  10.218   7.702   8.887 -0.3327 -0.4230  0.0907
25328SOL     OW85913   5.988  12.155  12.097 -0.7592 -0.1885  0.3650
25328SOL    HW185914   5.974  12.248  12.083 -0.6566  0.0114  1.5081
25328SOL    HW285915   5.901  12.119  12.111 -0.8035 -0.2836 -0.1218
25329SOL     OW85916  12.055  12.514  12.195  0.0764  0.1965 -0.5205
25329SOL    HW185917  12.089  12.451  12.132 -0.0424  0.5067 -0.9002
25329SOL    HW285918  11.961  12.499  12.197  0.0119  0.5397 -0.8178
25330SOL     OW85919   0.920   5.466  10.058 -0.0079  0.1316  0.3397
25330SOL    HW185920   0.872   5.436  10.136  1.0931 -0.6045  0.7552
25330SOL    HW285921   0.854   5.511  10.006 -0.9521 -0.0645  1.3209
25331SOL     OW85922   2.208   6.788  12.746 -0.2795 -0.1400  0.0900
25331SOL    HW185923   2.140   6.804  12.812 -0.4347 -0.2267 -0.0466
25331SOL    HW285924   2.290   6.786  12.795 -0.1202  2.0653  0.0076
25332SOL     OW85925   0.978   6.794  13.183  0.8286 -0.9591 -0.2210
25332SOL    HW185926   1.058   6.807  13.132  0.0218  1.6652 -0.9397
25332SOL    HW285927   0.978   6.866  13.246 -1.8299  0.2376 -1.4550
25333SOL     OW85928   6.260  13.284   2.197  0.0769  0.4459 -0.3223
25333SOL    HW185929   6.296  13.303   2.111  0.3208  1.5206 -0.0056
25333SOL    HW285930   6.168  13.309   2.190  0.0957  0.5290 -0.2782
25334SOL     OW85931  10.618   2.458   5.852 -0.3009  0.5742  0.5588
25334SOL    HW185932  10.560   2.397   5.896  1.7449 -0.2844  2.1818
25334SOL    HW285933  10.669   2.404   5.792 -1.5738  1.4296 -1.4155
25335SOL     OW85934   7.245   7.221   9.927 -0.6858  0.7717  0.3489
25335SOL    HW185935   7.199   7.280   9.867 -1.1631  0.5389  0.4752
25335SOL    HW285936   7.277   7.278   9.996 -0.5989  0.9695  0.1456
25336SOL     OW85937   1.793  10.880  11.115 -0.6259 -0.3773 -0.0809
25336SOL    HW185938   1.884  10.857  11.092  0.1386  1.3140  1.0975
25336SOL    HW285939   1.764  10.807  11.169 -0.3377 -1.4110 -1.2456
25337SOL     OW85940   7.472  10.503   5.982  0.1790  0.1769  0.5665
25337SOL    HW185941   7.556  10.519   5.938 -0.7622 -1.2067 -1.8764
25337SOL    HW285942   7.468  10.407   5.991 -0.4372  0.3241  2.2047
25338SOL     OW85943   0.941   1.326   3.572 -0.1985  0.0159 -0.0442
25338SOL    HW185944   0.850   1.357   3.577  0.4007  1.9665 -0.4469
25338SOL    HW285945   0.970   1.351   3.484  1.2283  0.9438  0.6585
25339SOL     OW85946   2.065   8.828   3.055 -0.3032 -0.1838  0.3902
25339SOL    HW185947   1.995   8.892   3.068 -1.9583 -2.2070  2.1842
25339SOL    HW285948   2.089   8.837   2.963 -2.1335  1.3395 -0.0045
25340SOL     OW85949   0.057  12.089  10.754 -0.1052 -0.6278 -0.5140
25340SOL    HW185950  -0.002  12.049  10.691 -0.7039 -0.1707 -0.2592
25340SOL    HW285951   0.113  12.146  10.701  0.4571 -1.4498 -0.8198
25341SOL     OW85952  11.264   4.328   5.920  0.5987 -0.1984  0.6126
25341SOL    HW185953  11.232   4.378   5.996  0.1912  0.7692 -0.1805
25341SOL    HW285954  11.359   4.329   5.930  0.6220  1.0873  0.4069
25342SOL     OW85955  10.508  10.328   7.128 -0.3130  0.1310  0.5211
25342SOL    HW185956  10.518  10.290   7.216 -0.0842 -0.4550  0.2479
25342SOL    HW285957  10.584  10.386   7.120 -0.8427  0.9090  1.0694
25343SOL     OW85958   6.215   8.325  10.146  0.0390 -0.0909  0.1497
25343SOL    HW185959   6.288   8.332  10.208 -2.2417 -0.4492  3.0927
25343SOL    HW285960   6.189   8.233  10.150  0.1861 -0.2730 -1.8975
25344SOL     OW85961   3.076   8.687   7.351  0.2683  0.2175 -0.0968
25344SOL    HW185962   3.051   8.679   7.259 -0.1526  0.0396  0.0292
25344SOL    HW285963   3.096   8.598   7.379 -0.1236  0.1966  0.1249
25345SOL     OW85964  12.139   0.005  12.958 -0.3969  0.4508  0.0713
25345SOL    HW185965  12.102  -0.079  12.987  0.3316  0.5058  1.2534
25345SOL    HW285966  12.164   0.049  13.039 -1.6357  2.2512 -0.4795
25346SOL     OW85967   0.611  10.223  12.581 -0.3217  0.0039  0.3698
25346SOL    HW185968   0.628  10.250  12.671 -1.3734  0.3658  0.4667
25346SOL    HW285969   0.621  10.127  12.582 -0.0546  0.0374  0.8025
25347SOL     OW85970   9.802  12.983  10.324  0.2645  0.0907 -0.6134
25347SOL    HW185971   9.836  12.928  10.252  2.3293 -1.1611  1.1775
25347SOL    HW285972   9.848  12.950  10.402 -0.4154  2.6886  0.9793
25348SOL     OW85973  13.012   5.873   3.604  0.3609 -0.0093 -0.5912
25348SOL    HW185974  13.028   5.964   3.629  0.6067 -0.5219  1.2160
25348SOL    HW285975  13.095   5.844   3.565  1.4731 -0.4018  1.8685
25349SOL     OW85976  10.813   3.133   1.354  0.2669 -0.0860 -0.1628
25349SOL    HW185977  10.862   3.130   1.272 -0.1685 -1.7686 -0.4035
25349SOL    HW285978  10.727   3.097   1.332 -0.0457 -0.0225  0.9023
25350SOL     OW85979   9.626   0.468  11.486  0.2022 -0.1303 -0.2751
25350SOL    HW185980   9.701   0.429  11.442 -0.4308  0.5352 -2.0144
25350SOL    HW285981   9.656   0.555  11.513  0.0086  0.2351 -1.1963
25351SOL     OW85982  10.207   9.099  13.164  0.8687 -0.0136 -0.0652
25351SOL    HW185983  10.249   9.166  13.109  0.9996 -0.2652 -0.2750
25351SOL    HW285984  10.241   9.115  13.252 -0.5625  1.4061  0.2661
25352SOL     OW85985  11.982  12.383   6.186 -0.0203  0.3209  0.2592
25352SOL    HW185986  11.984  12.297   6.145 -0.9296  0.2760  0.3013
25352SOL    HW285987  11.996  12.366   6.279  1.0269  0.3358  0.1156
25353SOL     OW85988  12.046   8.371   0.691  0.1993  0.0748  0.1500
25353SOL    HW185989  11.970   8.365   0.749 -0.1670  0.2619 -0.3103
25353SOL    HW285990  12.013   8.413   0.612  0.8187  0.3134  0.0116
25354SOL     OW85991   9.787   9.000  13.315  0.7032 -0.2001 -0.3315
25354SOL    HW185992   9.704   9.034  13.348  0.5853 -0.0098 -0.8119
25354SOL    HW285993   9.801   9.048  13.233  0.4914 -1.3649 -1.0694
25355SOL     OW85994   0.829   2.842   9.503  0.1384 -0.0585  0.1097
25355SOL    HW185995   0.754   2.900   9.488 -0.0182  0.0005  1.0829
25355SOL    HW285996   0.801   2.758   9.465 -1.1205 -0.5131  1.8897
25356SOL     OW85997   5.933   7.848   8.492 -0.1688  0.6536  0.1005
25356SOL    HW185998   6.010   7.851   8.549  1.6270 -1.9169 -1.9553
25356SOL    HW285999   5.947   7.917   8.428 -0.8611  1.7699  1.0994
25357SOL     OW86000   6.663  10.882   1.418  0.2113  0.4703  0.0904
25357SOL    HW186001   6.708  10.817   1.472 -0.3454  0.5851  0.6993
25357SOL    HW286002   6.733  10.919   1.363  0.9649  0.9282  1.3067
25358SOL     OW86003   4.108   6.719  12.040  0.3318  0.4390 -0.5112
25358SOL    HW186004   4.160   6.685  12.113  0.6763  0.9103 -0.5370
25358SOL    HW286005   4.149   6.802  12.018  0.0732  0.4172 -1.0796
25359SOL     OW86006   4.672   9.064  12.290 -0.0849 -0.0246 -0.5836
25359SOL    HW186007   4.740   9.014  12.335  0.0438 -0.7368 -1.5343
25359SOL    HW286008   4.718   9.109  12.219 -0.5814 -0.3890 -1.1394
25360SOL     OW86009   8.365  13.207   4.930 -0.0127  0.1100 -0.3735
25360SOL    HW186010   8.352  13.236   5.021  0.1567  0.3021 -0.4110
25360SOL    HW286011   8.431  13.138   4.936 -0.7238 -0.5755 -0.2332
25361SOL     OW86012   7.800  12.817   6.164  0.6158  0.4535 -0.7501
25361SOL    HW186013   7.877  12.854   6.208  0.1279  0.0876  0.4333
25361SOL    HW286014   7.767  12.889   6.110  2.4008  0.3058 -2.1551
25362SOL     OW86015  13.309   5.501   0.365  0.9789  0.2274  0.2262
25362SOL    HW186016  13.364   5.579   0.353 -0.7646  1.9959  2.9373
25362SOL    HW286017  13.356   5.448   0.429  0.3308  0.9609  1.3243
25363SOL     OW86018   0.169   4.984  11.084  0.1205  0.5114  0.2347
25363SOL    HW186019   0.084   4.979  11.129  0.4308 -0.2977  0.7423
25363SOL    HW286020   0.203   4.895  11.087  0.6397  0.6751 -0.6617
25364SOL     OW86021   5.824  11.430  11.587 -0.2087 -0.1878 -0.1593
25364SOL    HW186022   5.897  11.371  11.605  0.1747 -0.2178 -1.6798
25364SOL    HW286023   5.822  11.490  11.661  0.7804 -0.7550  0.3394
25365SOL     OW86024   6.550   1.423   1.847  0.2779  0.0308  0.1174
25365SOL    HW186025   6.519   1.403   1.758  0.5348  0.1904 -0.0059
25365SOL    HW286026   6.518   1.511   1.864  0.6795  0.2042 -0.0174
25366SOL     OW86027   2.575  12.742  12.934  0.0426 -0.5980  0.7510
25366SOL    HW186028   2.582  12.737  13.029  1.8489 -1.0973  0.6335
25366SOL    HW286029   2.654  12.789  12.906 -0.0752 -1.1124 -0.5404
25367SOL     OW86030  11.150   3.301  11.364  0.2400  0.3327  0.3003
25367SOL    HW186031  11.150   3.386  11.410 -0.8269  0.5046  0.0139
25367SOL    HW286032  11.130   3.237  11.433  0.1140  0.4164  0.3410
25368SOL     OW86033   8.984  10.493   6.828 -0.0122  0.0037 -0.1491
25368SOL    HW186034   9.060  10.551   6.820  0.3775 -0.5177 -0.2513
25368SOL    HW286035   8.909  10.551   6.813  0.3198  0.6623  0.6180
25369SOL     OW86036   7.371  12.729   2.442  0.2268 -0.4026  0.0144
25369SOL    HW186037   7.283  12.702   2.469  0.1104 -1.6198 -1.4494
25369SOL    HW286038   7.369  12.824   2.448 -0.8760 -0.4526  0.9261
25370SOL     OW86039   3.834   5.333   7.650 -0.4426 -0.3595 -0.2031
25370SOL    HW186040   3.852   5.261   7.710  0.7345 -0.4793 -0.6856
25370SOL    HW286041   3.918   5.376   7.637 -1.5075  2.7267  2.0541
25371SOL     OW86042  11.783   5.526   7.395  0.0748  0.0174 -0.3970
25371SOL    HW186043  11.868   5.486   7.413 -0.2553 -0.8543 -0.7280
25371SOL    HW286044  11.783   5.606   7.448  2.2022  1.5300 -2.4668
25372SOL     OW86045  10.406   1.464  12.217  0.2672  0.2194 -0.5206
25372SOL    HW186046  10.465   1.406  12.266 -0.5031  1.4208  2.0211
25372SOL    HW286047  10.464   1.526  12.173  1.0140  1.6817  2.3103
25373SOL     OW86048   5.317  12.288   0.431 -0.5255 -0.1116 -0.2851
25373SOL    HW186049   5.323  12.353   0.501 -1.4643 -0.3765  0.0583
25373SOL    HW286050   5.316  12.203   0.476 -0.8620 -0.2946 -0.6242
25374SOL     OW86051   5.003   4.888   6.969 -0.1124 -0.2703  0.3176
25374SOL    HW186052   5.017   4.882   6.875  2.1451  0.9855  0.5058
25374SOL    HW286053   4.923   4.940   6.978 -0.6482 -0.8432 -0.8663
25375SOL     OW86054   9.738   3.823   4.399 -0.3804  0.2712  0.2101
25375SOL    HW186055   9.653   3.794   4.432 -1.6691  0.3825 -2.7217
25375SOL    HW286056   9.718   3.881   4.327  2.2106  0.4287 -0.5057
25376SOL     OW86057   0.392   5.374   5.711  0.0901 -0.1243 -0.6385
25376SOL    HW186058   0.416   5.302   5.654 -0.2354 -0.2794 -0.5807
25376SOL    HW286059   0.397   5.338   5.799  0.1264 -0.0200 -0.5974
25377SOL     OW86060   6.919  11.185   7.278 -0.3008  0.5013  0.4695
25377SOL    HW186061   6.926  11.090   7.283  0.7818  0.6083  1.4503
25377SOL    HW286062   6.859  11.201   7.205 -0.8666 -0.9334  0.5859
25378SOL     OW86063   2.862   0.145  10.124 -0.0900  0.5711  0.8104
25378SOL    HW186064   2.842   0.165  10.033 -0.2299 -0.8307  0.5105
25378SOL    HW286065   2.837   0.224  10.172  0.7098  1.6251 -0.4384
25379SOL     OW86066   2.396  12.746   5.431  0.0389  0.4223 -0.6473
25379SOL    HW186067   2.360  12.659   5.419 -1.7233  1.1150 -0.6624
25379SOL    HW286068   2.417  12.776   5.343  1.3541 -0.2459 -0.5813
25380SOL     OW86069  11.308   0.920   7.280  0.2728 -0.3741 -0.0690
25380SOL    HW186070  11.271   0.944   7.195 -0.9753 -3.4271 -0.5109
25380SOL    HW286071  11.248   0.854   7.314  1.8249 -0.6616  2.3152
25381SOL     OW86072   7.816   1.435   1.921 -0.2856 -0.4116  0.2718
25381SOL    HW186073   7.784   1.510   1.871  0.7573 -0.2361 -0.1774
25381SOL    HW286074   7.741   1.405   1.971 -1.2383 -0.2931 -1.0436
25382SOL     OW86075   4.618   1.824   4.358 -0.0461 -0.1908  0.1037
25382SOL    HW186076   4.555   1.869   4.415  1.3812  0.7501  0.9947
25382SOL    HW286077   4.616   1.733   4.387 -1.6101 -0.3691 -0.4715
25383SOL     OW86078   3.371  12.410   4.277  0.2929 -0.2417  0.0884
25383SOL    HW186079   3.382  12.350   4.204 -2.6041 -1.2272  0.3127
25383SOL    HW286080   3.414  12.491   4.249 -0.6205 -0.6153 -2.6742
25384SOL     OW86081   2.140   4.658   5.081  0.7560  0.6311 -0.6295
25384SOL    HW186082   2.158   4.735   5.136  0.7158 -0.4637  0.9712
25384SOL    HW286083   2.225   4.616   5.070  0.4428 -0.3861  0.5526
25385SOL     OW86084   3.970   5.745   0.135  0.1157 -0.6401 -0.2000
25385SOL    HW186085   4.016   5.662   0.119  1.7872  0.4507 -1.3809
25385SOL    HW286086   3.981   5.794   0.054 -0.2342  1.0331  0.7238
25386SOL     OW86087   1.631   0.088   2.685 -0.3809 -0.4580 -0.5103
25386SOL    HW186088   1.539   0.100   2.665 -0.6533 -0.2852  0.7816
25386SOL    HW286089   1.643  -0.007   2.690 -0.2257 -0.5227 -1.7640
25387SOL     OW86090   3.918   3.959   1.095  0.2665  0.1798 -0.0326
25387SOL    HW186091   3.999   3.919   1.062 -0.9745 -3.2772  0.6959
25387SOL    HW286092   3.925   3.951   1.191 -0.5153  0.7825  0.0826
25388SOL     OW86093   2.537   0.031   9.377  0.0494 -0.1093 -0.1917
25388SOL    HW186094   2.580   0.035   9.292 -0.2356  0.2048 -0.3231
25388SOL    HW286095   2.595  -0.022   9.431  2.3868  3.0045  0.6465
25389SOL     OW86096   1.575  12.453   1.602 -0.2104  0.1650 -0.7562
25389SOL    HW186097   1.552  12.412   1.519 -0.7421 -1.4385  0.1497
25389SOL    HW286098   1.670  12.464   1.599 -0.1556 -0.4542 -1.3103
25390SOL     OW86099   9.087   7.515   7.211  0.2586 -0.5135 -0.5167
25390SOL    HW186100   9.041   7.540   7.291  0.5295  1.3097 -0.8703
25390SOL    HW286101   9.135   7.436   7.234  0.0470 -0.2251  1.0038
25391SOL     OW86102   8.277  11.963   1.576  0.1239  0.0796 -0.1199
25391SOL    HW186103   8.243  12.049   1.603 -0.4032 -0.0263 -0.4264
25391SOL    HW286104   8.331  11.934   1.649  0.3773  0.7171 -0.0525
25392SOL     OW86105   3.222   3.677   5.507 -0.5443  0.4225 -0.3026
25392SOL    HW186106   3.221   3.607   5.572 -1.6344 -0.5144 -1.2972
25392SOL    HW286107   3.133   3.679   5.472  0.1521  0.4860 -2.1932
25393SOL     OW86108   9.539  12.334  10.415  0.5499  0.4978  0.1804
25393SOL    HW186109   9.504  12.424  10.411  0.6617  0.5711  0.7361
25393SOL    HW286110   9.626  12.344  10.453  1.1983  0.3116 -1.1947
25394SOL     OW86111   7.774   1.140   1.200  0.2119  0.3517  0.4432
25394SOL    HW186112   7.775   1.089   1.119  0.8405  3.7417 -1.9068
25394SOL    HW286113   7.842   1.101   1.254 -0.8602 -2.6163 -0.1720
25395SOL     OW86114   8.277  12.943   4.518  0.0076  0.2971 -0.1815
25395SOL    HW186115   8.219  12.906   4.451 -0.4043 -0.1446  0.4043
25395SOL    HW286116   8.226  13.014   4.556  0.3947  0.8018 -0.5969
25396SOL     OW86117  12.669   0.873   7.301 -0.2070  0.4160 -0.0518
25396SOL    HW186118  12.731   0.907   7.365  1.4173 -0.8027 -0.9169
25396SOL    HW286119  12.611   0.815   7.351  0.2084  0.5062  0.5337
25397SOL     OW86120   3.673   0.469   8.497  0.0030 -0.0073  0.1778
25397SOL    HW186121   3.754   0.477   8.547 -0.1570  0.2329  0.3954
25397SOL    HW286122   3.603   0.491   8.558 -0.1073  1.7603 -0.4970
25398SOL     OW86123   2.305   3.338   2.934 -0.4598 -0.1117 -0.9767
25398SOL    HW186124   2.257   3.323   3.016  1.2471  1.0162  0.3136
25398SOL    HW286125   2.313   3.433   2.929  2.0025 -0.2469 -0.8550
25399SOL     OW86126   9.491   7.321  12.642 -0.6885 -0.3063  0.7276
25399SOL    HW186127   9.482   7.285  12.554 -1.3945 -0.1281  0.7238
25399SOL    HW286128   9.482   7.245  12.700  0.8092 -0.5957  0.6314
25400SOL     OW86129   7.758  13.258   1.569  0.0402  0.3600 -0.0040
25400SOL    HW186130   7.850  13.286   1.574  0.3790 -0.6786 -0.1191
25400SOL    HW286131   7.756  13.174   1.615 -0.6988 -0.0011 -0.6705
25401SOL     OW86132   0.822   4.455   3.673  0.3806  0.2521 -0.3184
25401SOL    HW186133   0.765   4.390   3.633  0.8656 -0.4474  0.1197
25401SOL    HW286134   0.790   4.539   3.638 -1.2966 -0.0503  0.3918
25402SOL     OW86135   9.232   7.479   3.863  0.7560 -0.1232 -0.2281
25402SOL    HW186136   9.168   7.497   3.933  1.3542 -0.7555  0.5041
25402SOL    HW286137   9.184   7.496   3.782  0.3538  1.6454  0.3434
25403SOL     OW86138  12.315   8.184   5.994 -0.2117 -0.2691  0.4479
25403SOL    HW186139  12.284   8.271   5.971  0.4186 -0.1955 -0.1652
25403SOL    HW286140  12.410   8.188   5.983 -0.0487 -0.7050  1.5402
25404SOL     OW86141   7.184  12.086   5.597 -0.0601  0.0728  0.1938
25404SOL    HW186142   7.136  12.150   5.649 -0.8007  0.3735 -0.8525
25404SOL    HW286143   7.247  12.138   5.547 -0.6036 -0.0168 -0.5920
25405SOL     OW86144  11.492  11.645   1.480 -0.1037 -0.2134 -0.1208
25405SOL    HW186145  11.504  11.642   1.575 -0.1351  0.3943 -0.0936
25405SOL    HW286146  11.398  11.637   1.467 -0.2278  0.9896 -0.0307
25406SOL     OW86147  12.862   3.688   5.370  0.5222  0.2550  0.1586
25406SOL    HW186148  12.860   3.779   5.400  1.9003 -0.2434  1.9859
25406SOL    HW286149  12.772   3.669   5.344 -0.2261  1.5711  1.5994
25407SOL     OW86150  10.290   4.345  12.668 -0.4003  0.4233 -0.0353
25407SOL    HW186151  10.206   4.302  12.683 -0.3834  0.7384  1.0522
25407SOL    HW286152  10.326   4.358  12.756 -0.9832  3.8482 -0.1747
25408SOL     OW86153   3.621  11.050  11.996  0.7893 -0.0792  0.0670
25408SOL    HW186154   3.716  11.064  11.997  0.9539 -1.1296  0.0105
25408SOL    HW286155   3.596  11.059  11.904  0.7671  0.5297  0.1233
25409SOL     OW86156   4.965   9.518   4.792  0.1667 -0.0195 -0.0148
25409SOL    HW186157   4.924   9.581   4.732 -0.4687  0.5816  1.0224
25409SOL    HW286158   5.059   9.526   4.774  0.4380  3.3091  1.9077
25410SOL     OW86159   3.679   8.497  11.014 -0.2645 -0.0629 -0.1922
25410SOL    HW186160   3.706   8.441  11.088  1.0394  1.3891  0.4938
25410SOL    HW286161   3.672   8.437  10.940  0.6173 -1.2193  0.6211
25411SOL     OW86162  11.513   1.231  11.460 -0.2537 -0.0011  0.4446
25411SOL    HW186163  11.540   1.229  11.551 -0.7682  1.8444  0.6756
25411SOL    HW286164  11.427   1.273  11.462 -0.2558  0.0927 -0.8988
25412SOL     OW86165   6.492   0.400   3.762 -0.1856  0.9811  0.1553
25412SOL    HW186166   6.490   0.402   3.858 -0.9045 -0.1929  0.1829
25412SOL    HW286167   6.425   0.464   3.735 -1.6335 -0.3112  0.5008
25413SOL     OW86168  12.021  13.095   2.106  0.0836 -0.0255  0.0398
25413SOL    HW186169  11.960  13.023   2.088  0.1292  0.1693 -0.9792
25413SOL    HW286170  11.974  13.174   2.079 -0.0162  0.3554  1.2720
25414SOL     OW86171  10.173   1.286  10.938 -0.4389  0.4070  0.3595
25414SOL    HW186172  10.086   1.286  10.978 -0.7672 -2.1697 -0.1615
25414SOL    HW286173  10.167   1.222  10.867  1.1258  2.2180 -1.5439
25415SOL     OW86174  10.172  10.685  11.634  0.2749 -0.1570 -0.6689
25415SOL    HW186175  10.238  10.730  11.581  0.6418 -0.0165 -0.0994
25415SOL    HW286176  10.216  10.605  11.663 -0.1185 -0.5113 -1.0462
25416SOL     OW86177   7.473   9.782   8.014  0.4101 -0.0733  0.3247
25416SOL    HW186178   7.459   9.876   8.026 -0.4115 -0.3032  1.3510
25416SOL    HW286179   7.448   9.765   7.923  1.7067  0.8853 -0.2296
25417SOL     OW86180   2.013   3.432   0.114 -0.0689  0.2781 -0.4021
25417SOL    HW186181   2.036   3.349   0.156  0.8771  0.2550 -0.9280
25417SOL    HW286182   2.032   3.498   0.180 -1.4695  0.0480  0.2619
25418SOL     OW86183   3.657   0.259   0.064 -0.9159 -0.0332  0.0616
25418SOL    HW186184   3.746   0.228   0.045 -0.3973  1.0289  0.6531
25418SOL    HW286185   3.609   0.246  -0.018  0.1366  0.5489 -0.6845
25419SOL     OW86186   3.983   8.715  13.169  0.5551 -0.3420 -0.3382
25419SOL    HW186187   3.955   8.692  13.258  0.7108  1.5609  0.2674
25419SOL    HW286188   4.068   8.757  13.181  0.2989  0.5011 -1.3121
25420SOL     OW86189  11.914   6.088  11.720  0.6900  0.3696  0.1282
25420SOL    HW186190  11.865   6.160  11.760 -0.1216 -0.2343  0.2513
25420SOL    HW286191  11.943   6.122  11.636  1.0340  1.1178  0.5384
25421SOL     OW86192  10.656  12.034  12.868  0.0612  0.1258  0.1126
25421SOL    HW186193  10.716  11.984  12.813 -1.7874 -0.8486 -1.1435
25421SOL    HW286194  10.612  11.968  12.922  1.3168  0.9923  2.3330
25422SOL     OW86195  12.366  10.722  11.475 -0.5805  0.1971  0.3973
25422SOL    HW186196  12.379  10.817  11.477 -1.0820  0.2606  0.7186
25422SOL    HW286197  12.287  10.707  11.527 -1.9072 -0.1569 -1.5911
25423SOL     OW86198   0.326   6.728   8.310  0.3812 -0.4139  0.4090
25423SOL    HW186199   0.409   6.690   8.338  1.1543 -1.6096 -3.0460
25423SOL    HW286200   0.352   6.806   8.260 -0.7336  0.2507  0.8394
25424SOL     OW86201   9.336   4.030   3.981 -0.1933 -0.2403 -0.3653
25424SOL    HW186202   9.360   4.097   4.045 -2.1324 -0.6549  0.8740
25424SOL    HW286203   9.389   3.954   4.004  0.9084  0.3599 -0.8290
25425SOL     OW86204   5.517   0.200   8.785 -0.2185  0.0955  0.3564
25425SOL    HW186205   5.445   0.245   8.739 -1.2024 -0.1368  1.6045
25425SOL    HW286206   5.559   0.269   8.836  1.1742  0.4472 -1.2023
25426SOL     OW86207   4.046   0.902   3.252  0.1728 -0.2991 -0.7001
25426SOL    HW186208   4.032   0.872   3.162 -0.5465 -0.6861 -0.4702
25426SOL    HW286209   4.090   0.986   3.243  0.3317 -0.4523 -1.4110
25427SOL     OW86210   0.952   6.966   0.097 -0.1012  0.6698 -0.6485
25427SOL    HW186211   0.870   6.917   0.108 -0.1401  0.8667 -0.0754
25427SOL    HW286212   0.930   7.033   0.032 -0.0042 -0.1637 -1.5731
25428SOL     OW86213   7.516   8.316   3.042  0.0547  0.0046  0.1536
25428SOL    HW186214   7.570   8.379   3.089  1.6755 -0.9520 -0.3646
25428SOL    HW286215   7.569   8.290   2.967 -0.6847 -1.7639  0.2027
25429SOL     OW86216   7.382   5.153   3.261  0.1005  0.0871 -0.1200
25429SOL    HW186217   7.428   5.234   3.242 -0.5898  0.2689 -1.1246
25429SOL    HW286218   7.432   5.085   3.215  0.2761  0.0430  0.1337
25430SOL     OW86219   4.508   2.886  12.886 -0.0699 -0.1628 -0.4638
25430SOL    HW186220   4.540   2.816  12.829 -1.4144 -0.0574 -1.4134
25430SOL    HW286221   4.441   2.931  12.833 -0.5365  0.6776  0.7906
25431SOL     OW86222   0.551   9.438   5.821  0.2481  0.6070  0.3129
25431SOL    HW186223   0.607   9.497   5.770 -0.7819  0.3476 -1.2144
25431SOL    HW286224   0.604   9.412   5.896  1.7793  1.1767 -0.5336
25432SOL     OW86225   1.192   0.685  11.213  0.0128 -0.1611 -0.2684
25432SOL    HW186226   1.129   0.648  11.275 -1.0133  0.9025 -0.6403
25432SOL    HW286227   1.203   0.618  11.146  3.0498 -2.4637  2.1742
25433SOL     OW86228   5.579  11.872   5.175  0.6442 -0.1518  0.2385
25433SOL    HW186229   5.600  11.962   5.202 -0.3923  0.4623 -0.9062
25433SOL    HW286230   5.524  11.838   5.246 -1.4585  1.1900 -0.6588
25434SOL     OW86231   5.622   8.550   8.248 -0.3444 -0.0232  0.4890
25434SOL    HW186232   5.647   8.463   8.280 -0.4210  0.6080  2.3783
25434SOL    HW286233   5.691   8.573   8.186 -1.8466 -2.6172 -2.4203
25435SOL     OW86234   6.501  13.019   9.995 -0.0338  0.8457 -0.1947
25435SOL    HW186235   6.435  12.978  10.051  0.1669 -0.7082 -1.0590
25435SOL    HW286236   6.484  13.113  10.004  0.0007  0.6903  2.4776
25436SOL     OW86237   7.276   7.293   8.800  0.8836 -0.0656  0.3592
25436SOL    HW186238   7.275   7.252   8.714 -0.6952  0.8728 -0.1061
25436SOL    HW286239   7.360   7.267   8.838  1.1803 -1.3014 -1.0582
25437SOL     OW86240   5.321   6.132   1.700 -0.0859  0.6051  0.3309
25437SOL    HW186241   5.375   6.199   1.742 -0.5766  1.4342 -0.3121
25437SOL    HW286242   5.291   6.174   1.619  2.7196 -1.6765 -2.1375
25438SOL     OW86243   8.531   0.794   3.122 -0.3953 -0.2358  0.7323
25438SOL    HW186244   8.477   0.873   3.116 -0.2154 -0.2487 -3.2428
25438SOL    HW286245   8.609   0.815   3.070  0.2727 -2.6024  0.6876
25439SOL     OW86246   2.609   9.432   5.192 -0.5777 -0.5333  0.5265
25439SOL    HW186247   2.559   9.368   5.142 -2.5404 -0.1978  1.9379
25439SOL    HW286248   2.654   9.485   5.125 -4.1425  0.7927 -1.0810
25440SOL     OW86249   6.051   9.637   9.864 -0.2266  0.0992  0.3076
25440SOL    HW186250   6.096   9.715   9.898  3.0293 -0.9437 -1.2166
25440SOL    HW286251   6.044   9.578   9.939  3.5108 -0.7206  0.1708
25441SOL     OW86252   9.463   9.865   4.877 -0.2713  0.1337 -0.7858
25441SOL    HW186253   9.440   9.778   4.842 -0.2127 -0.2337  0.0709
25441SOL    HW286254   9.380   9.899   4.911  0.2380 -0.9477  1.7800
25442SOL     OW86255  12.228  11.445   7.347 -0.0353 -0.7490 -0.2291
25442SOL    HW186256  12.270  11.501   7.282  2.0195 -1.0665  0.7478
25442SOL    HW286257  12.301  11.408   7.397 -1.5213 -1.0723  1.7868
25443SOL     OW86258   9.040   7.707  12.939  0.3208 -0.3630 -0.1898
25443SOL    HW186259   9.000   7.623  12.961  0.7697 -0.3613  0.6690
25443SOL    HW286260   9.050   7.705  12.844 -0.8115 -0.7610 -0.3085
25444SOL     OW86261   2.224   2.316   5.168 -0.3845 -0.3340 -0.1781
25444SOL    HW186262   2.175   2.357   5.097  0.0283  1.4459  0.5239
25444SOL    HW286263   2.157   2.271   5.220 -0.7473 -1.2568 -1.3939
25445SOL     OW86264   5.076  11.512   8.515  0.5268 -0.0782 -0.2137
25445SOL    HW186265   5.023  11.520   8.594  1.1225 -0.4444  0.2324
25445SOL    HW286266   5.166  11.527   8.545  0.6568  0.7921 -0.9969
25446SOL     OW86267   0.042  12.683   2.921  0.0239 -0.3525 -0.0850
25446SOL    HW186268   0.082  12.766   2.896  1.2789 -0.7049  0.6285
25446SOL    HW286269  -0.022  12.665   2.853  1.1805  0.1929 -1.3674
25447SOL     OW86270  11.836   3.743   7.216 -0.2267 -0.7815 -0.2582
25447SOL    HW186271  11.880   3.779   7.139  1.4166  0.0770  0.9930
25447SOL    HW286272  11.795   3.819   7.258  1.3525 -0.6598  1.2029
25448SOL     OW86273   1.892   8.250  12.732  0.1879 -0.0853 -0.8209
25448SOL    HW186274   1.882   8.263  12.638  1.9045  0.1439 -1.0004
25448SOL    HW286275   1.837   8.318  12.772  0.2579  0.4749 -1.6559
25449SOL     OW86276  10.903   5.421  10.856 -0.1611 -0.7383 -0.1116
25449SOL    HW186277  10.946   5.401  10.938  0.5224  0.7915 -0.0652
25449SOL    HW286278  10.813   5.443  10.880 -0.2114 -1.1993  0.1173
25450SOL     OW86279   5.016   0.965   4.881 -0.7137 -0.0947  0.7958
25450SOL    HW186280   5.009   0.962   4.786 -1.5161  2.7244  0.6645
25450SOL    HW286281   4.936   0.925   4.913 -0.6256 -0.6875  0.2908
25451SOL     OW86282   1.403   0.433  10.184  0.2692  0.2452  0.6774
25451SOL    HW186283   1.343   0.406  10.254  0.0624 -0.2968  0.3002
25451SOL    HW286284   1.358   0.408  10.103  1.6248 -1.4905  0.4125
25452SOL     OW86285   3.455  11.993   7.242 -0.2286 -0.6120 -0.0029
25452SOL    HW186286   3.369  12.034   7.238 -1.7023 -3.5290 -1.8994
25452SOL    HW286287   3.489  12.016   7.328 -2.6511  1.0718  0.5989
25453SOL     OW86288   4.993   2.243   9.600 -0.5267 -0.5999  0.3076
25453SOL    HW186289   5.063   2.264   9.662 -0.7852  0.7280  0.1892
25453SOL    HW286290   4.990   2.147   9.598  1.1994 -0.6902  0.4068
25454SOL     OW86291   2.787  12.418   2.098  0.1172  1.0907 -0.3272
25454SOL    HW186292   2.766  12.469   2.020 -1.1738  1.0466 -0.0241
25454SOL    HW286293   2.771  12.327   2.071  0.4800  0.9985 -0.2477
25455SOL     OW86294   5.365  13.256   4.541  0.1711  0.5004 -0.0937
25455SOL    HW186295   5.402  13.243   4.454 -1.7549 -1.0659 -0.7399
25455SOL    HW286296   5.271  13.266   4.526 -0.0649  1.5438  1.7212
25456SOL     OW86297   0.299   4.109   6.584  0.4303  0.3588  0.2062
25456SOL    HW186298   0.364   4.054   6.627  0.9275 -1.6311 -2.7875
25456SOL    HW286299   0.215   4.072   6.611  0.7379 -1.1082 -0.7137
25457SOL     OW86300  12.534   1.249   4.370  0.3233 -0.4608  0.5937
25457SOL    HW186301  12.455   1.223   4.418  0.2209  0.6346  1.0490
25457SOL    HW286302  12.592   1.173   4.377 -1.3629 -2.0481 -1.3641
25458SOL     OW86303  12.686  12.334   2.876 -0.1884  0.4446 -0.0310
25458SOL    HW186304  12.685  12.348   2.781  0.7944 -0.5813 -0.2099
25458SOL    HW286305  12.689  12.239   2.887  2.1118  0.5678  0.9511
25459SOL     OW86306   2.200   9.478   0.348 -0.5177  0.2774  0.3585
25459SOL    HW186307   2.236   9.498   0.435  0.7045 -1.4966  0.3196
25459SOL    HW286308   2.191   9.563   0.306 -1.0626  1.1830  2.1683
25460SOL     OW86309   2.657   8.230   7.038 -0.0194  0.0149  0.4957
25460SOL    HW186310   2.580   8.177   7.016 -0.2883 -0.6808  2.8226
25460SOL    HW286311   2.673   8.283   6.960 -1.1708 -1.8093 -1.0579
25461SOL     OW86312   9.634  12.637   7.845  0.2942 -0.3363  0.1162
25461SOL    HW186313   9.632  12.731   7.862 -1.5993 -0.3507  0.1774
25461SOL    HW286314   9.672  12.599   7.924 -0.5914  0.2606  0.8529
25462SOL     OW86315   1.513   8.537   1.331 -0.1074  0.0328 -0.0338
25462SOL    HW186316   1.437   8.479   1.328  0.7381 -1.0758 -1.0240
25462SOL    HW286317   1.477   8.623   1.351 -1.7355 -0.3063 -1.2681
25463SOL     OW86318  11.617   0.465   1.574  0.1102  0.3394  0.1825
25463SOL    HW186319  11.624   0.405   1.648  1.4394  0.9251  0.5639
25463SOL    HW286320  11.685   0.530   1.589  0.8130  0.1629 -1.8337
25464SOL     OW86321   6.490   5.415   1.968 -0.1413 -0.5676 -0.0438
25464SOL    HW186322   6.516   5.326   1.992 -2.2634 -1.0463  0.7783
25464SOL    HW286323   6.484   5.414   1.873 -0.6031 -1.4579 -0.0136
25465SOL     OW86324   2.003  10.176   9.861 -0.0002  0.4846 -0.4379
25465SOL    HW186325   2.036  10.144   9.777  2.4000  3.0995 -0.6558
25465SOL    HW286326   2.009  10.101   9.920 -0.7374 -1.1155 -2.2979
25466SOL     OW86327   0.054  10.680   1.958  0.1889  0.2316  0.2027
25466SOL    HW186328   0.045  10.603   2.014  0.3456  0.5824  0.7206
25466SOL    HW286329  -0.029  10.726   1.966  0.4016  0.5622  0.5838
25467SOL     OW86330  13.309   8.975   3.991 -0.2579 -0.2787 -0.0930
25467SOL    HW186331  13.397   8.939   4.008  1.6306  3.2403 -1.3506
25467SOL    HW286332  13.308   8.993   3.897 -2.6631 -0.8757 -0.2418
25468SOL     OW86333  11.596   7.935   5.615  0.2798 -0.0883 -0.3890
25468SOL    HW186334  11.618   8.008   5.674 -0.2556 -0.0231 -0.2657
25468SOL    HW286335  11.536   7.973   5.551 -1.0528 -0.7059  0.4436
25469SOL     OW86336  12.897   5.342   8.396  0.5288 -0.3780 -0.2942
25469SOL    HW186337  12.967   5.276   8.401  0.5206 -0.3182  0.8965
25469SOL    HW286338  12.886   5.372   8.486  0.1868  0.9056 -0.7465
25470SOL     OW86339   1.198   4.983   4.848 -0.7464  0.1363 -0.3841
25470SOL    HW186340   1.160   4.896   4.862 -0.9796  0.1842 -0.6933
25470SOL    HW286341   1.264   4.969   4.780  0.5319 -0.1384  0.8838
25471SOL     OW86342   8.669   6.451  11.484 -0.3563 -0.3438  0.0137
25471SOL    HW186343   8.700   6.435  11.395 -0.2821 -1.0822  0.1681
25471SOL    HW286344   8.636   6.541  11.482  0.0374 -0.2057 -0.6461
25472SOL     OW86345   5.845   5.508  12.104 -0.2601 -0.5685 -0.4164
25472SOL    HW186346   5.810   5.481  12.020 -0.6659 -0.0766 -0.4129
25472SOL    HW286347   5.793   5.459  12.168 -0.3862 -0.4630 -0.4361
25473SOL     OW86348   8.803  10.831   3.604  0.1422  0.0675  0.3400
25473SOL    HW186349   8.876  10.814   3.663 -0.7211 -1.6666  1.0096
25473SOL    HW286350   8.728  10.845   3.662 -0.3278  0.4106 -0.3326
25474SOL     OW86351   3.599   9.769   2.540  0.5087 -0.4843  0.5864
25474SOL    HW186352   3.513   9.804   2.516  0.7648 -0.3896 -0.2399
25474SOL    HW286353   3.611   9.794   2.631  0.6132  1.4702  0.0791
25475SOL     OW86354   8.536  13.075   2.786  0.6841  0.0174  1.0117
25475SOL    HW186355   8.607  13.024   2.746  0.4841  0.0128  0.6604
25475SOL    HW286356   8.567  13.166   2.783  0.7605 -0.0069  1.0410
25476SOL     OW86357  11.915   2.146   1.198  0.2036  0.3183 -0.3909
25476SOL    HW186358  11.875   2.146   1.111  1.5767  1.4991 -1.0696
25476SOL    HW286359  11.886   2.063   1.238 -2.5745  0.9284 -0.9268
25477SOL     OW86360   1.286  10.958  10.249 -0.3910 -0.2814 -0.2608
25477SOL    HW186361   1.207  11.013  10.251 -0.3018 -0.1771  0.5886
25477SOL    HW286362   1.293  10.922  10.337  0.0523 -0.9625 -0.5576
25478SOL     OW86363   1.017   7.775   5.745  0.1137  0.2082 -0.0485
25478SOL    HW186364   1.093   7.718   5.732  1.4466  1.7622  0.5312
25478SOL    HW286365   0.982   7.749   5.831  0.7653  0.2905  0.2535
25479SOL     OW86366   5.965   3.483   0.135  0.5633 -0.1825  0.3413
25479SOL    HW186367   5.970   3.575   0.108 -0.7507 -0.0894  0.3286
25479SOL    HW286368   5.973   3.434   0.052  2.6861 -0.1761  0.4873
25480SOL     OW86369  11.338  12.016  13.144 -0.1920 -0.5170 -0.1396
25480SOL    HW186370  11.255  11.969  13.153 -0.0955 -0.5850  0.4314
25480SOL    HW286371  11.397  11.972  13.206  1.4783 -3.1090 -3.2344
25481SOL     OW86372   6.088   0.958   1.555 -0.0117  0.2010  0.4419
25481SOL    HW186373   6.113   1.026   1.618  1.1113  1.5340 -1.3453
25481SOL    HW286374   6.168   0.907   1.542  0.7492  1.7988 -2.0365
25482SOL     OW86375   6.952   8.981   0.315  0.2484  0.0006 -0.5631
25482SOL    HW186376   6.904   8.898   0.305 -0.9673  0.6516 -0.3453
25482SOL    HW286377   6.987   9.000   0.228 -1.5323  0.4619 -1.2133
25483SOL     OW86378   2.617   5.351  11.666  0.3021 -0.0331 -0.1799
25483SOL    HW186379   2.676   5.331  11.594  0.3305 -1.2018  0.1372
25483SOL    HW286380   2.537   5.382  11.623  0.6149  0.0977 -0.6765
25484SOL     OW86381   3.251   9.142   5.570 -0.7192  0.1499 -0.8884
25484SOL    HW186382   3.328   9.198   5.582 -0.6602  0.4272 -2.3462
25484SOL    HW286383   3.179   9.192   5.609  0.1393 -1.1473  2.6813
25485SOL     OW86384   5.505   7.045   0.535 -0.5794 -0.2221 -0.6280
25485SOL    HW186385   5.510   6.952   0.512  0.0787 -0.4397  0.3082
25485SOL    HW286386   5.445   7.083   0.471  0.1860 -1.0208 -1.8584
25486SOL     OW86387   8.362   3.880   1.564 -0.1275 -0.1261 -0.5660
25486SOL    HW186388   8.303   3.901   1.492 -0.1034 -1.4875 -1.0271
25486SOL    HW286389   8.439   3.934   1.550 -0.5545  0.3826 -0.9607
25487SOL     OW86390   7.096   7.459  11.607  0.5084  0.1035  0.2687
25487SOL    HW186391   7.133   7.527  11.664  0.6268  0.6803 -0.4795
25487SOL    HW286392   7.160   7.448  11.537 -0.8212  1.3968 -1.2652
25488SOL     OW86393   9.967   6.481   9.355 -0.7401 -0.0029 -1.2108
25488SOL    HW186394   9.946   6.427   9.431  1.6972 -1.6584 -1.6041
25488SOL    HW286395   9.932   6.567   9.376 -0.9599 -0.6472  1.3613
25489SOL     OW86396   7.898   2.030   2.660  0.1967  0.1750  0.2699
25489SOL    HW186397   7.982   2.001   2.696 -0.3196 -0.2510  1.1739
25489SOL    HW286398   7.848   1.950   2.648 -0.7908  0.5407  1.6148
25490SOL     OW86399   3.326   2.186   5.473 -0.0622 -0.2825  0.3552
25490SOL    HW186400   3.290   2.242   5.404  0.4608  0.5941  0.7710
25490SOL    HW286401   3.262   2.193   5.544 -1.3423 -2.3153 -0.4983
25491SOL     OW86402   7.329  13.061   1.625  0.5842  0.2839  0.1464
25491SOL    HW186403   7.380  13.077   1.546  1.2895 -1.7659  0.1317
25491SOL    HW286404   7.341  12.967   1.643 -2.2554 -0.0497  0.7801
25492SOL     OW86405  12.412   0.332   0.792 -0.3676 -0.1665  0.1132
25492SOL    HW186406  12.485   0.301   0.846 -0.6180  1.3074  1.3651
25492SOL    HW286407  12.366   0.253   0.767 -0.6074 -0.9244  2.6254
25493SOL     OW86408   3.173   3.120   5.408 -0.4747 -0.1442 -0.5996
25493SOL    HW186409   3.218   3.101   5.490 -0.2375  0.8195 -0.4929
25493SOL    HW286410   3.184   3.041   5.355 -0.2075 -0.5863  0.1103
25494SOL     OW86411   8.521   1.244  10.555  0.4313  0.1388  0.4169
25494SOL    HW186412   8.594   1.275  10.502  1.1266 -3.0702 -0.7462
25494SOL    HW286413   8.561   1.186  10.620 -0.9498 -0.8536  0.4334
25495SOL     OW86414   9.922   1.704  12.971  1.2243 -0.0138 -0.8218
25495SOL    HW186415   9.879   1.785  12.943  0.1074 -0.1243  0.4383
25495SOL    HW286416   9.985   1.685  12.902  0.7847  1.3692 -1.6523
25496SOL     OW86417   3.258   1.531   5.859  0.0192  0.2930  0.0174
25496SOL    HW186418   3.258   1.539   5.764 -1.1575  2.4129  0.1529
25496SOL    HW286419   3.350   1.520   5.882  0.3060 -0.4341 -1.3382
25497SOL     OW86420   2.664  10.897   2.037 -0.0861  0.8698  0.3983
25497SOL    HW186421   2.605  10.874   2.109 -0.5615 -2.3728 -0.8774
25497SOL    HW286422   2.749  10.911   2.079 -0.8145  1.3320  1.7908
25498SOL     OW86423  10.120   8.003   8.734  0.3738 -0.0141 -0.0447
25498SOL    HW186424  10.130   7.952   8.814  1.8553  0.2403 -0.0357
25498SOL    HW286425  10.186   8.073   8.741 -1.2356  1.6086 -0.2947
25499SOL     OW86426   4.387   6.706   2.764  0.1295 -0.3777  0.5862
25499SOL    HW186427   4.467   6.694   2.712 -1.0225  0.8242 -1.6418
25499SOL    HW286428   4.406   6.664   2.847  3.2871  0.3339  0.3656
25500SOL     OW86429  11.354   8.939  12.080 -0.5876  0.2437 -0.7539
25500SOL    HW186430  11.265   8.961  12.053 -0.2772 -0.4324 -2.4803
25500SOL    HW286431  11.399   8.915  11.998  0.5969 -1.4187  0.3025
25501SOL     OW86432   0.010   6.592   7.145  0.5599  0.3802 -0.1635
25501SOL    HW186433   0.071   6.629   7.208  1.4169  2.2131 -1.9715
25501SOL    HW286434   0.024   6.497   7.151  0.7564  0.4940  2.1733
25502SOL     OW86435   8.462  11.691  12.286 -0.0934  0.1440 -0.3716
25502SOL    HW186436   8.402  11.663  12.356  0.9703 -0.7962  0.1900
25502SOL    HW286437   8.421  11.660  12.205  0.4556 -2.0564  0.1325
25503SOL     OW86438   4.778   0.903   6.997 -0.0711 -0.3469 -0.4286
25503SOL    HW186439   4.724   0.877   7.071  1.2150  0.6477  0.9191
25503SOL    HW286440   4.718   0.952   6.940 -0.6519  0.5879  0.9435
25504SOL     OW86441  10.088   5.513   0.651  0.7623  0.3916  0.2239
25504SOL    HW186442  10.157   5.521   0.585 -0.3032  0.9565 -0.8553
25504SOL    HW286443  10.120   5.564   0.725  2.0330 -0.3521  0.2196
25505SOL     OW86444   0.300   0.780   9.149 -0.3506  0.3039 -0.4997
25505SOL    HW186445   0.248   0.860   9.156 -0.2911  0.4700 -1.8504
25505SOL    HW286446   0.391   0.809   9.155 -0.3475  0.2436 -0.2253
25506SOL     OW86447   1.088   2.426   8.130  0.0890  0.1920 -0.4629
25506SOL    HW186448   1.160   2.380   8.087  0.0509 -0.8239  0.5118
25506SOL    HW286449   1.115   2.432   8.222 -1.1283 -0.3540 -0.0447
25507SOL     OW86450   1.468  12.743   0.251  0.0656 -0.2149  0.2728
25507SOL    HW186451   1.376  12.727   0.275 -0.2051  0.1589 -0.5046
25507SOL    HW286452   1.469  12.831   0.215  0.0505 -1.3966 -2.9728
25508SOL     OW86453   4.367   8.318  11.764  0.3252  0.5706  0.5893
25508SOL    HW186454   4.459   8.334  11.743  0.1405  1.2323  0.2464
25508SOL    HW286455   4.319   8.345  11.686 -0.1025 -0.7674  0.3552
25509SOL     OW86456  11.777   1.296   8.292  0.3502  0.7568 -0.9227
25509SOL    HW186457  11.789   1.380   8.248  1.3605  1.0399 -0.1225
25509SOL    HW286458  11.780   1.316   8.385  0.9672 -0.2065 -0.7181
25510SOL     OW86459   0.273  11.035   6.916 -0.5088  0.1356 -0.7529
25510SOL    HW186460   0.314  11.109   6.960 -0.8951 -1.1597  2.0137
25510SOL    HW286461   0.341  10.967   6.914 -1.0159 -0.3924 -0.5992
25511SOL     OW86462   6.745   0.633  13.148 -0.8804 -0.0454 -0.7232
25511SOL    HW186463   6.786   0.588  13.074  1.1190 -0.9469  0.8514
25511SOL    HW286464   6.656   0.596  13.151 -0.5842 -0.9332 -1.8837
25512SOL     OW86465   4.430  11.956  11.141  0.4608  0.6049  0.1749
25512SOL    HW186466   4.419  11.964  11.235 -3.4722 -0.6261  0.0067
25512SOL    HW286467   4.519  11.921  11.129  1.3893  1.6586  3.2966
25513SOL     OW86468  11.931  11.574  11.381  0.4299 -0.1123 -0.0775
25513SOL    HW186469  12.004  11.573  11.443  0.3512 -0.6767  0.0155
25513SOL    HW286470  11.872  11.505  11.412  1.3413 -1.8162 -1.8989
25514SOL     OW86471   5.898   1.905  10.928  0.3156 -0.7247 -0.5404
25514SOL    HW186472   5.918   1.883  11.019 -0.2281 -1.0797 -0.5038
25514SOL    HW286473   5.983   1.925  10.890  0.3520  1.3537  0.5254
25515SOL     OW86474   9.958  10.365   1.402  0.1988  0.4876 -0.9323
25515SOL    HW186475   9.900  10.435   1.371 -0.9294 -0.1707 -0.3371
25515SOL    HW286476   9.978  10.388   1.493 -0.5630 -0.2057 -0.5829
25516SOL     OW86477  12.803   1.203   9.388 -0.2030 -0.0049  0.0839
25516SOL    HW186478  12.780   1.231   9.299 -0.8412  1.0882  0.5687
25516SOL    HW286479  12.848   1.279   9.425 -0.3030 -0.3052  0.8250
25517SOL     OW86480  10.778   0.100   6.016  0.4769 -0.4673 -0.7495
25517SOL    HW186481  10.684   0.094   6.035  0.6626  1.0886  0.9009
25517SOL    HW286482  10.804   0.185   6.050  2.8764 -1.6320  0.6468
25518SOL     OW86483   3.829   5.038   2.907  0.2166 -0.2509  0.5180
25518SOL    HW186484   3.890   5.086   2.964  0.1964  1.4109 -0.7725
25518SOL    HW286485   3.758   5.100   2.889 -1.1544 -1.6604  0.8219
25519SOL     OW86486   1.800   2.883   3.536 -0.5696 -0.2306 -0.5436
25519SOL    HW186487   1.760   2.897   3.622  0.6686  0.8535 -0.1192
25519SOL    HW286488   1.894   2.892   3.551 -0.1720 -2.0126 -1.6528
25520SOL     OW86489   0.827   3.201   5.318  0.5784 -0.5363 -0.2394
25520SOL    HW186490   0.784   3.267   5.264  2.3962  0.5685 -0.4272
25520SOL    HW286491   0.773   3.196   5.397  0.9900  2.0818  0.2994
25521SOL     OW86492   4.430  12.095   0.789 -0.3763  0.3706  0.4522
25521SOL    HW186493   4.492  12.166   0.769 -0.2315  0.4164  1.0472
25521SOL    HW286494   4.457  12.063   0.875 -0.8540  0.0347  0.4801
25522SOL     OW86495   2.026  10.328   1.640  0.3857  0.3386  0.1145
25522SOL    HW186496   1.983  10.382   1.573 -0.4308  1.1150  1.2305
25522SOL    HW286497   2.021  10.239   1.605 -0.4259  0.6636 -0.6506
25523SOL     OW86498   8.396  12.267   6.175  0.4666 -0.0842 -0.0182
25523SOL    HW186499   8.355  12.209   6.111 -0.4475  0.4284  0.0953
25523SOL    HW286500   8.325  12.293   6.233  0.7436  1.6103 -0.4096
25524SOL     OW86501   8.960   6.320  12.648  0.1745  0.2614  0.1138
25524SOL    HW186502   8.928   6.240  12.607 -0.1658 -0.2677  1.3669
25524SOL    HW286503   8.905   6.389  12.612 -0.6669 -0.2964  0.2983
25525SOL     OW86504   8.147   2.961   1.844 -0.0992  0.0880 -0.0940
25525SOL    HW186505   8.177   2.956   1.753 -1.1661 -0.1167 -0.4456
25525SOL    HW286506   8.176   3.047   1.874 -2.2036  1.3850 -1.5588
25526SOL     OW86507  10.420   2.704   8.057 -0.8247  0.5134  0.0825
25526SOL    HW186508  10.372   2.765   8.113 -2.5899  0.4744 -1.3023
25526SOL    HW286509  10.505   2.695   8.099 -0.6397  3.5961  0.5616
25527SOL     OW86510   5.822  10.531   3.277  0.0863 -0.2623 -0.0465
25527SOL    HW186511   5.763  10.605   3.289 -1.2518 -1.1972 -0.6838
25527SOL    HW286512   5.815  10.509   3.185 -2.0658 -3.2075  0.7091
25528SOL     OW86513   2.264   9.095   7.739  0.0057 -0.2688 -0.0868
25528SOL    HW186514   2.190   9.106   7.799 -0.4029 -2.2241 -0.1706
25528SOL    HW286515   2.312   9.177   7.746 -1.0568  0.2779  1.5048
25529SOL     OW86516   3.704   9.742   1.205 -0.2705 -0.5394  0.1261
25529SOL    HW186517   3.638   9.779   1.145 -0.0068 -1.1704 -0.5654
25529SOL    HW286518   3.668   9.758   1.292 -1.2071 -0.6071 -0.2322
25530SOL     OW86519  12.314   5.216   2.638  0.4950  0.1226 -0.2793
25530SOL    HW186520  12.271   5.272   2.573 -2.8426  0.5758  2.0568
25530SOL    HW286521  12.321   5.271   2.716 -1.3055 -2.1038  1.5731
25531SOL     OW86522   0.591   9.874   6.937 -0.1579  0.2961 -0.0565
25531SOL    HW186523   0.590   9.933   7.013  0.1347  1.3511 -0.8421
25531SOL    HW286524   0.683   9.870   6.911 -0.3775  0.7474 -0.9463
25532SOL     OW86525  11.450   8.240   0.020  0.2978  0.1444  0.1555
25532SOL    HW186526  11.413   8.227  -0.067  0.5671  1.0431 -0.1111
25532SOL    HW286527  11.391   8.193   0.078 -1.6661  1.9884 -0.1878
25533SOL     OW86528   1.022   0.415   5.307 -0.0222 -0.0457 -0.4736
25533SOL    HW186529   0.972   0.496   5.300 -0.6291 -0.3177  0.4516
25533SOL    HW286530   1.026   0.397   5.401 -2.2604 -2.5145 -0.7219
25534SOL     OW86531   8.387   8.262   7.741  0.6437  0.0434 -0.3725
25534SOL    HW186532   8.477   8.230   7.749  0.4468 -0.6514 -0.7962
25534SOL    HW286533   8.350   8.211   7.669 -0.4148 -0.4409  0.4732
25535SOL     OW86534  11.324  12.637   6.866 -0.0121 -0.4126 -0.1692
25535SOL    HW186535  11.398  12.670   6.816 -0.5683  1.9385  0.4444
25535SOL    HW286536  11.329  12.542   6.856  2.0585 -0.2246 -1.5438
25536SOL     OW86537   6.993   7.928   0.423 -0.0013 -0.5100 -0.5044
25536SOL    HW186538   6.945   7.853   0.457  2.2553 -1.4203  0.8955
25536SOL    HW286539   7.047   7.892   0.353  0.9412 -0.1588  0.0323
25537SOL     OW86540   0.286   4.717   9.500 -0.2352  0.1345  0.6343
25537SOL    HW186541   0.237   4.738   9.580  1.4272 -0.9410  2.0056
25537SOL    HW286542   0.289   4.800   9.452 -4.0078  0.1025  0.0162
25538SOL     OW86543   0.810   1.274  11.139  0.4425  0.0266 -0.5192
25538SOL    HW186544   0.730   1.322  11.158  0.3461  0.3601 -1.6877
25538SOL    HW286545   0.786   1.213  11.069  1.5597  1.2071 -1.9883
25539SOL     OW86546   6.073   5.068   6.597  0.2045  0.0845  0.4638
25539SOL    HW186547   6.106   4.998   6.541 -0.3420  0.0797  0.1412
25539SOL    HW286548   6.058   5.142   6.537  0.0073  0.2123  0.6680
25540SOL     OW86549   9.307  10.903   3.873  0.8010  0.2273 -0.2649
25540SOL    HW186550   9.330  10.967   3.805  0.0299  1.8353  0.9286
25540SOL    HW286551   9.297  10.955   3.952  0.6563 -1.4735  0.8826
25541SOL     OW86552   3.284  12.517  11.499  0.2692 -0.0866 -0.1506
25541SOL    HW186553   3.195  12.484  11.514  0.4357  0.4002  2.1462
25541SOL    HW286554   3.335  12.482  11.571  1.3336  1.9210  0.1169
25542SOL     OW86555   1.894   2.596  12.848 -0.3745 -0.4662  0.1697
25542SOL    HW186556   1.942   2.549  12.780 -0.3966  0.8818 -0.8269
25542SOL    HW286557   1.949   2.672  12.869 -1.0864 -0.0396  0.5466
25543SOL     OW86558   7.399  13.163  12.677  0.4221  0.4639 -0.2053
25543SOL    HW186559   7.476  13.106  12.676  0.9343  1.1377 -0.0254
25543SOL    HW286560   7.422  13.233  12.739 -0.5599  0.3708  0.2923
25544SOL     OW86561  11.235  12.461   7.800  0.1202  0.1077 -0.7716
25544SOL    HW186562  11.247  12.497   7.712  1.7501  2.3382  0.2530
25544SOL    HW286563  11.163  12.512   7.837  0.6806  0.5167 -0.2125
25545SOL     OW86564   3.027   3.061   0.893  0.2036  0.2765  0.2334
25545SOL    HW186565   3.098   3.002   0.917 -0.4615  0.4147  2.8512
25545SOL    HW286566   2.962   3.004   0.852  1.8167  0.1817 -2.3677
25546SOL     OW86567   5.902   1.940  12.821 -0.0815  0.2860 -0.2299
25546SOL    HW186568   5.820   1.890  12.828  1.2610 -2.7643 -3.1832
25546SOL    HW286569   5.964   1.891  12.875  0.5951  0.4987 -0.8042
25547SOL     OW86570   4.471  11.786   7.950 -0.4422  0.1919 -0.1992
25547SOL    HW186571   4.540  11.755   8.009 -0.4750  0.1949 -0.1595
25547SOL    HW286572   4.517  11.836   7.883 -0.2871 -0.6856 -0.7668
25548SOL     OW86573   2.780   5.952   2.943 -0.6690 -0.5024 -0.0367
25548SOL    HW186574   2.846   5.926   2.879 -0.0004 -0.3889  0.5997
25548SOL    HW286575   2.789   5.889   3.015 -0.3395  0.3049  0.6488
25549SOL     OW86576   0.982   0.353   7.725  0.6004  0.5777  0.2077
25549SOL    HW186577   1.073   0.324   7.732  0.2595 -0.1941  1.8603
25549SOL    HW286578   0.937   0.279   7.683  0.8519  1.3113 -1.4515
25550SOL     OW86579   7.570   5.809   1.912  0.2266  0.0521 -0.0279
25550SOL    HW186580   7.635   5.810   1.983 -1.8637  1.1085  1.9975
25550SOL    HW286581   7.500   5.753   1.944 -2.0294  2.7192  0.0294
25551SOL     OW86582   9.161   7.285   4.556  0.2302 -0.3299 -0.0368
25551SOL    HW186583   9.237   7.228   4.568  1.3422  1.2742  0.9830
25551SOL    HW286584   9.087   7.234   4.589  1.2809 -0.9751  1.4283
25552SOL     OW86585   7.082  10.340   4.530 -0.7455  0.3704  0.1477
25552SOL    HW186586   7.005  10.286   4.512 -0.8927  0.5415  0.2610
25552SOL    HW286587   7.156  10.284   4.506 -0.9135  0.3168 -0.2463
25553SOL     OW86588   3.690   3.277   5.277  0.1075 -0.8306  0.0502
25553SOL    HW186589   3.695   3.323   5.361 -0.9846  1.1538 -0.8917
25553SOL    HW286590   3.597   3.260   5.265 -0.1100  1.1981 -1.8277
25554SOL     OW86591   0.702   4.640   8.123 -0.1625  0.4004 -0.2947
25554SOL    HW186592   0.709   4.587   8.202 -0.3273 -0.0401 -0.5773
25554SOL    HW286593   0.666   4.582   8.057  0.7399  0.5224 -0.9259
25555SOL     OW86594   2.113  11.367   6.504 -0.2333 -0.0106 -0.0888
25555SOL    HW186595   2.134  11.438   6.564  1.3462 -0.5981  0.0933
25555SOL    HW286596   2.017  11.362   6.505 -0.7549  4.2967 -2.6559
25556SOL     OW86597  12.639   4.574  12.958 -0.1269  0.0109 -0.1385
25556SOL    HW186598  12.730   4.547  12.942  0.4743  0.8116  1.6193
25556SOL    HW286599  12.602   4.502  13.009 -0.7902 -0.7155 -1.5867
25557SOL     OW86600  11.653  11.389  12.277 -0.1023  0.5468  0.1588
25557SOL    HW186601  11.686  11.387  12.367  1.2529  0.1004 -0.3205
25557SOL    HW286602  11.652  11.482  12.254  0.0740  0.6240  0.4563
25558SOL     OW86603  11.743   5.721   6.926  0.2814 -0.4102  0.0324
25558SOL    HW186604  11.827   5.761   6.905 -0.2100  0.7775  0.2426
25558SOL    HW286605  11.745   5.709   7.021 -0.4069  1.1494  0.2705
25559SOL     OW86606   9.476   8.556  12.178 -0.3703  0.1894  0.2877
25559SOL    HW186607   9.484   8.606  12.259 -0.8802  0.9524 -0.1204
25559SOL    HW286608   9.421   8.610  12.121 -0.8018 -0.7629 -0.2264
25560SOL     OW86609   3.800   3.215  11.410 -0.0727  0.1291  0.4280
25560SOL    HW186610   3.838   3.220  11.322  0.3066  0.6161  0.6133
25560SOL    HW286611   3.850   3.278  11.461 -0.0076 -0.4580  1.1041
25561SOL     OW86612   9.499   7.493   4.897  0.7503  0.2100  0.3508
25561SOL    HW186613   9.486   7.477   4.803  1.1242 -1.5321  0.5607
25561SOL    HW286614   9.512   7.587   4.904  0.1373  0.4441 -1.2752
25562SOL     OW86615  11.448  10.158   5.006 -0.5870  0.4858 -0.4656
25562SOL    HW186616  11.449  10.062   5.005 -0.5079  0.3951  2.1083
25562SOL    HW286617  11.535  10.183   4.976 -0.8983 -0.1832 -2.0354
25563SOL     OW86618   4.998  12.882   9.594  0.1699  0.2401 -0.2247
25563SOL    HW186619   5.047  12.803   9.618  0.0257  0.2778  0.2039
25563SOL    HW286620   5.014  12.943   9.667 -1.0547  0.0095  0.2477
25564SOL     OW86621   6.282  11.919  12.922 -0.1011 -0.4175 -0.8472
25564SOL    HW186622   6.231  11.865  12.981  2.7599 -1.9533  0.4505
25564SOL    HW286623   6.315  11.991  12.976 -0.2119  0.1028 -1.4502
25565SOL     OW86624   2.004   3.876   9.660  0.2532 -0.6068 -0.1729
25565SOL    HW186625   2.070   3.901   9.725 -0.5781  0.4257  0.3194
25565SOL    HW286626   1.980   3.787   9.683  0.2424 -0.3870  0.7190
25566SOL     OW86627  11.202   2.756   7.309  0.2371 -0.0631 -0.5752
25566SOL    HW186628  11.192   2.831   7.250 -1.0386  0.5709  0.3982
25566SOL    HW286629  11.166   2.682   7.261  0.3144  0.2121 -1.0582
25567SOL     OW86630   0.760   7.053   3.723  0.2444 -0.1554  0.5697
25567SOL    HW186631   0.684   7.078   3.671 -0.6169  1.5451  2.5007
25567SOL    HW286632   0.832   7.103   3.686 -0.4728  1.4779  1.2806
25568SOL     OW86633  10.182   7.183   4.416 -0.2148  0.1576  0.0001
25568SOL    HW186634  10.131   7.199   4.337 -0.5777  0.6924  0.3422
25568SOL    HW286635  10.183   7.266   4.462  2.6886  0.8070 -0.9591
25569SOL     OW86636  10.615   0.391   5.790 -0.4383  0.1234  0.0492
25569SOL    HW186637  10.533   0.395   5.838 -0.1161 -0.2356  0.6407
25569SOL    HW286638  10.617   0.472   5.738 -0.8836  0.4183  0.4895
25570SOL     OW86639   2.359  10.133   1.040  0.5252  0.0030  0.0659
25570SOL    HW186640   2.369  10.071   0.968  1.5392 -2.2275  1.9657
25570SOL    HW286641   2.272  10.115   1.076  0.6226  0.0254  0.3162
25571SOL     OW86642   2.039   9.784   2.756  0.1395  0.1358 -0.2313
25571SOL    HW186643   2.018   9.722   2.826 -1.6555  0.2248 -0.6396
25571SOL    HW286644   2.030   9.733   2.675 -3.0574  1.2125 -0.6987
25572SOL     OW86645   6.429  11.843  13.221  0.0199 -0.2190  0.6029
25572SOL    HW186646   6.340  11.841  13.256  0.9214 -3.1348  3.1809
25572SOL    HW286647   6.433  11.769  13.162  0.5024  0.4875 -0.2650
25573SOL     OW86648   6.556   8.638  11.434 -0.3211  0.1627  0.0903
25573SOL    HW186649   6.532   8.729  11.449  0.5345  0.5883 -1.0154
25573SOL    HW286650   6.652   8.639  11.430 -0.2623 -0.9174  0.8581
25574SOL     OW86651   5.341   9.774  12.764 -0.0280 -0.0966 -0.4095
25574SOL    HW186652   5.306   9.723  12.691  1.4847  0.4087 -1.5355
25574SOL    HW286653   5.302   9.861  12.754 -1.4916 -0.5666  0.6882
25575SOL     OW86654   9.849   5.181   4.728  0.3353  0.1672 -0.1690
25575SOL    HW186655   9.845   5.169   4.823  0.0652 -0.2543 -0.2300
25575SOL    HW286656   9.843   5.275   4.716 -0.9520  0.1520  0.1783
25576SOL     OW86657   0.762   4.696   8.574 -0.1631 -0.1504  0.0877
25576SOL    HW186658   0.778   4.741   8.491  0.3779 -0.6080 -0.0616
25576SOL    HW286659   0.792   4.606   8.559 -0.1331 -0.2599  0.7534
25577SOL     OW86660  10.405   3.653   3.171 -0.1398  0.1208 -0.5390
25577SOL    HW186661  10.413   3.669   3.077  1.1391  0.1688 -0.4396
25577SOL    HW286662  10.365   3.566   3.178  3.0849 -1.5566 -1.1985
25578SOL     OW86663   9.246   8.282   5.514  0.0899 -0.6173 -0.2147
25578SOL    HW186664   9.218   8.351   5.573  1.3154 -0.7083  0.5210
25578SOL    HW286665   9.190   8.207   5.535  0.8371 -0.8069  1.2153
25579SOL     OW86666   1.577   7.242   9.236  0.5328 -0.6580 -0.1314
25579SOL    HW186667   1.564   7.299   9.160  1.9795  1.6515  1.2469
25579SOL    HW286668   1.558   7.154   9.203  1.6126  0.1700 -3.3158
25580SOL     OW86669  11.267   4.363   5.325 -0.4362  0.1450 -0.4410
25580SOL    HW186670  11.272   4.284   5.379 -0.0224  0.4545 -0.0163
25580SOL    HW286671  11.195   4.413   5.362 -0.7406 -0.0609 -0.7512
25581SOL     OW86672  11.245   1.543   6.473 -0.0463 -0.0069  0.2180
25581SOL    HW186673  11.170   1.492   6.504  0.7223 -1.2604  0.0753
25581SOL    HW286674  11.309   1.477   6.447  0.5593  1.0431 -1.0317
25582SOL     OW86675   2.691   3.407  11.222 -0.4018  0.3877  0.0420
25582SOL    HW186676   2.726   3.349  11.155 -0.9604  0.8631 -0.6742
25582SOL    HW286677   2.766   3.429  11.277 -0.0541 -0.4628 -0.0803
25583SOL     OW86678   1.227   5.082   1.529 -0.8394 -0.0409 -0.5344
25583SOL    HW186679   1.156   5.139   1.557 -1.1999 -0.5926 -0.2978
25583SOL    HW286680   1.200   4.994   1.558 -0.5154 -0.4014 -1.2876
25584SOL     OW86681   5.131  12.351   8.640 -0.5239 -0.3614 -0.8125
25584SOL    HW186682   5.104  12.312   8.723  0.6459 -1.5249 -0.9335
25584SOL    HW286683   5.196  12.417   8.665 -0.7393 -0.1762 -0.7468
25585SOL     OW86684   5.716   6.624  12.593 -0.7395 -0.1575 -0.1682
25585SOL    HW186685   5.633   6.671  12.605  0.3296  1.9782 -0.5433
25585SOL    HW286686   5.764   6.639  12.674  0.1705  0.6520 -0.8256
25586SOL     OW86687   6.703   4.589  11.138  0.2745  0.5458 -0.6347
25586SOL    HW186688   6.675   4.515  11.084  2.1163 -0.5047 -0.2482
25586SOL    HW286689   6.628   4.608  11.194 -0.3500 -0.8264 -0.9722
25587SOL     OW86690   8.906  10.833   5.620  0.3293 -0.0497 -0.4658
25587SOL    HW186691   8.976  10.881   5.576 -0.8802  0.3106 -2.1565
25587SOL    HW286692   8.847  10.902   5.652  0.3270 -0.3505  0.1760
25588SOL     OW86693  11.345   6.582   3.347 -0.1380 -0.1159  0.6255
25588SOL    HW186694  11.395   6.627   3.279 -0.9091  0.4482  0.4103
25588SOL    HW286695  11.364   6.490   3.334 -0.4841 -0.0389 -0.5463
25589SOL     OW86696  12.788   2.842   5.344 -0.2045 -0.0175 -0.1735
25589SOL    HW186697  12.807   2.822   5.435 -1.6628 -0.7256  0.0070
25589SOL    HW286698  12.854   2.906   5.319  1.6909 -1.5287  0.6651
25590SOL     OW86699   8.304   7.285   3.420 -0.3467 -0.7063 -0.2653
25590SOL    HW186700   8.211   7.288   3.445  0.2405 -2.1059  2.4754
25590SOL    HW286701   8.303   7.272   3.325 -2.9144  0.0178 -0.4114
25591SOL     OW86702   6.119   4.373  12.965 -0.7794  0.2975 -0.4034
25591SOL    HW186703   6.071   4.353  13.045  1.6984  0.1719  1.1554
25591SOL    HW286704   6.129   4.289  12.921  1.0275 -0.3450  1.1005
25592SOL     OW86705   8.292  11.350   1.243  0.1586 -0.6667  0.0735
25592SOL    HW186706   8.350  11.367   1.317  1.0654 -1.5851 -0.3836
25592SOL    HW286707   8.266  11.436   1.211  1.0757 -0.2369  0.4636
25593SOL     OW86708   3.970  13.079   2.277 -0.0874  0.0823 -0.0334
25593SOL    HW186709   4.004  13.158   2.319  1.1959 -0.1642 -0.5799
25593SOL    HW286710   4.035  13.012   2.296 -1.7454 -1.2055  1.4870
25594SOL     OW86711   7.640   0.155   8.848  0.3798  0.1668  0.2584
25594SOL    HW186712   7.728   0.125   8.872  0.3307  0.4545  0.8158
25594SOL    HW286713   7.655   0.220   8.779  0.6609  0.8009  0.9112
25595SOL     OW86714  11.584   6.024   7.597 -0.0325  0.3374 -0.6096
25595SOL    HW186715  11.492   6.047   7.602  0.0873  0.7116 -0.0913
25595SOL    HW286716  11.630   6.108   7.592  0.4720  0.3318  2.2555
25596SOL     OW86717   2.648   6.325   5.574  0.2228 -0.1146  0.1283
25596SOL    HW186718   2.588   6.348   5.503  0.2372  1.8158  0.6977
25596SOL    HW286719   2.693   6.247   5.542 -2.0070 -1.1875 -0.6507
25597SOL     OW86720  13.216  12.853   7.929  0.2903 -0.0256  0.1535
25597SOL    HW186721  13.188  12.926   7.874  1.3210 -1.2708 -2.2001
25597SOL    HW286722  13.141  12.835   7.985 -0.8335  1.3382 -0.8358
25598SOL     OW86723   4.083   0.725   6.009 -0.1429 -0.0655  0.6276
25598SOL    HW186724   4.099   0.794   5.945 -0.0421 -0.2081  0.4967
25598SOL    HW286725   4.155   0.663   5.996  2.1385  1.7197  3.4234
25599SOL     OW86726   5.966   7.264  11.042  0.0231  0.2391 -0.3453
25599SOL    HW186727   5.976   7.358  11.057  0.0496 -0.1952  3.3079
25599SOL    HW286728   5.919   7.232  11.119  1.5573 -3.0013 -0.5762
25600SOL     OW86729   2.941   2.919   5.539  0.0939 -0.0505  0.2663
25600SOL    HW186730   2.925   2.859   5.612 -0.4647  0.9832  1.0209
25600SOL    HW286731   2.935   2.864   5.461 -3.3170 -0.5503  0.6980
25601SOL     OW86732   7.929   8.645   2.878  0.5911 -0.0133  0.2174
25601SOL    HW186733   7.981   8.663   2.956  0.7224 -1.9552  0.6333
25601SOL    HW286734   7.932   8.549   2.868 -1.7227 -0.0813 -0.5490
25602SOL     OW86735   6.339   8.489   3.895 -0.4364 -0.2074 -0.6381
25602SOL    HW186736   6.331   8.466   3.988  0.4240 -1.5281 -0.8584
25602SOL    HW286737   6.250   8.487   3.862 -1.1637  3.1273  0.7319
25603SOL     OW86738   1.489  11.009  11.677  0.3958  0.8513 -0.2811
25603SOL    HW186739   1.573  10.966  11.658  0.5518  1.3179 -0.6558
25603SOL    HW286740   1.447  10.951  11.741  1.1331  0.7671  0.1439
25604SOL     OW86741   6.097   0.259   8.063  0.1226 -0.0431 -0.6182
25604SOL    HW186742   6.094   0.277   8.157 -2.1037  0.6029 -0.7711
25604SOL    HW286743   6.117   0.165   8.058 -0.1650 -0.1818  0.5049
25605SOL     OW86744   3.791   9.413  12.986  0.2646 -0.0870  0.2505
25605SOL    HW186745   3.724   9.354  13.019  0.7703 -1.0121 -0.3255
25605SOL    HW286746   3.767   9.499  13.020 -0.8399 -0.5151  0.5826
25606SOL     OW86747   7.229  10.778   5.314 -0.1049  0.7852  0.2221
25606SOL    HW186748   7.154  10.727   5.342  0.9688 -0.9999 -0.0197
25606SOL    HW286749   7.287  10.781   5.391  2.0564 -2.6651 -1.0318
25607SOL     OW86750   0.619  10.794   6.015  0.2273 -0.1776 -0.6896
25607SOL    HW186751   0.638  10.808   5.923 -0.3023 -0.6165 -0.8689
25607SOL    HW286752   0.705  10.799   6.058  0.6495 -1.2822 -1.3673
25608SOL     OW86753   0.950  11.027  12.411  0.2169 -0.1047  0.1819
25608SOL    HW186754   0.907  10.942  12.405 -0.7738  0.3322  0.8582
25608SOL    HW286755   0.965  11.040  12.505  0.1090  0.5864  0.1085
25609SOL     OW86756  11.734  10.470  10.950  0.2276 -0.0046 -0.2683
25609SOL    HW186757  11.817  10.507  10.981 -0.0525  0.5668 -0.1860
25609SOL    HW286758  11.689  10.443  11.030 -0.2323  0.9118 -0.1956
25610SOL     OW86759   4.367   8.515   0.556  0.6550 -0.4784  0.6221
25610SOL    HW186760   4.320   8.433   0.539  1.0702 -0.1417 -2.9860
25610SOL    HW286761   4.458   8.495   0.537  0.8928  0.6084  0.5378
25611SOL     OW86762  11.371   6.270   2.595  0.6545  0.5172 -0.4358
25611SOL    HW186763  11.444   6.217   2.563  0.8094  0.4261  0.0590
25611SOL    HW286764  11.345   6.322   2.519  1.3628  0.6980 -0.5646
25612SOL     OW86765   8.546   0.038   1.827  0.0517  0.0048  0.2198
25612SOL    HW186766   8.614   0.092   1.788 -0.0283  2.3010  2.9431
25612SOL    HW286767   8.594  -0.021   1.886 -0.1028 -0.8963 -0.5289
25613SOL     OW86768  10.931   8.215  12.336  0.6117 -0.4339  0.2340
25613SOL    HW186769  10.982   8.167  12.272 -0.3780 -0.5316 -0.5122
25613SOL    HW286770  10.978   8.204  12.418  0.6555 -2.3146  0.0055
25614SOL     OW86771  12.920   5.247   6.331 -0.7258  0.1477  0.0361
25614SOL    HW186772  12.938   5.300   6.409 -2.1863 -0.7788  1.0567
25614SOL    HW286773  12.946   5.158   6.356 -0.1486  0.0156 -0.9610
25615SOL     OW86774   0.833   2.508   0.035  0.1938  0.4485  0.2872
25615SOL    HW186775   0.901   2.545   0.092  1.8894  0.3823 -1.5736
25615SOL    HW286776   0.801   2.583  -0.016  2.1927 -0.1462 -2.0503
25616SOL     OW86777  12.197   5.719   8.059  0.2473 -0.2825  0.0106
25616SOL    HW186778  12.153   5.725   7.974  1.3142  0.7920 -0.5059
25616SOL    HW286779  12.130   5.744   8.122 -0.6150 -1.2698 -0.4888
25617SOL     OW86780   8.664   5.371  13.047 -0.4139 -0.1704  0.2077
25617SOL    HW186781   8.641   5.291  13.094 -1.0631 -0.1409 -0.0532
25617SOL    HW286782   8.755   5.358  13.021  0.0723 -0.0289  1.7881
25618SOL     OW86783   8.282  10.466   8.853 -0.6973 -0.1854  0.0916
25618SOL    HW186784   8.349  10.413   8.810 -0.5978  0.6894 -0.8791
25618SOL    HW286785   8.245  10.408   8.920  0.5574 -0.9067  0.2066
25619SOL     OW86786   7.449   0.659  12.569 -0.3049  0.5373 -0.0772
25619SOL    HW186787   7.498   0.625  12.494  2.2659  1.4788  1.0390
25619SOL    HW286788   7.372   0.602  12.575  1.5975 -2.3784 -0.8127
25620SOL     OW86789  11.058   7.641   2.175  0.1358 -0.0463 -0.1671
25620SOL    HW186790  11.022   7.625   2.262  1.8630 -0.2032  0.5646
25620SOL    HW286791  11.076   7.554   2.140  0.2681  0.0345 -0.3033
25621SOL     OW86792  10.178   1.797   1.527  0.2887  0.0531 -0.0964
25621SOL    HW186793  10.236   1.874   1.524  0.2322  0.1047  0.0869
25621SOL    HW286794  10.237   1.723   1.538  0.3101  0.1227  0.2716
25622SOL     OW86795   7.559   8.605  10.569  0.3713  0.0308 -0.3550
25622SOL    HW186796   7.650   8.611  10.542  0.2360  0.7583 -0.6769
25622SOL    HW286797   7.532   8.696  10.583 -0.2414 -0.1889 -0.0562
25623SOL     OW86798  13.083   7.092   7.693 -0.5587 -0.3873  0.1772
25623SOL    HW186799  13.145   7.112   7.763 -1.0817  1.2066  0.2253
25623SOL    HW286800  13.004   7.064   7.739 -0.9912  0.9170  0.2683
25624SOL     OW86801   7.574   8.297   6.907  0.1014 -0.6270  0.5779
25624SOL    HW186802   7.544   8.355   6.976 -0.7417 -0.6034  0.2018
25624SOL    HW286803   7.571   8.351   6.828 -0.4465 -1.1022  0.2696
25625SOL     OW86804   1.062  11.149  10.004  0.0007  0.3236 -0.4761
25625SOL    HW186805   1.005  11.072  10.013  0.0136  0.4482  0.9764
25625SOL    HW286806   1.008  11.222  10.035  0.8759  0.4557  0.8252
25626SOL     OW86807   9.121   3.104  11.762  0.2133  0.6183 -0.1281
25626SOL    HW186808   9.045   3.060  11.726  0.2129  1.5445 -1.3238
25626SOL    HW286809   9.147   3.051  11.837  0.8560 -2.0222 -2.0723
25627SOL     OW86810   5.711   1.833   5.969  1.1251  0.0996  0.0318
25627SOL    HW186811   5.635   1.781   5.943  1.3573 -1.9242  2.9595
25627SOL    HW286812   5.682   1.924   5.960 -1.7737 -0.5948  1.1769
25628SOL     OW86813   2.848   4.210  11.312  0.0090 -0.1502 -0.1387
25628SOL    HW186814   2.849   4.278  11.379 -0.5803 -2.0941  1.9695
25628SOL    HW286815   2.790   4.244  11.244 -2.2825  0.4796  1.9991
25629SOL     OW86816   8.829   6.895  11.127 -0.2061 -0.4569 -0.3258
25629SOL    HW186817   8.856   6.822  11.183 -1.1226 -1.2918 -0.9191
25629SOL    HW286818   8.890   6.965  11.147  1.0896 -1.5910 -0.1810
25630SOL     OW86819  11.106   0.313  11.460 -0.5007  0.2537 -0.1948
25630SOL    HW186820  11.077   0.222  11.463  0.2350  0.0334  0.4235
25630SOL    HW286821  11.045   0.359  11.517  0.5788 -0.2873  1.4722
25631SOL     OW86822  10.594  11.155   8.213 -0.5694 -0.5564 -0.0211
25631SOL    HW186823  10.659  11.085   8.203 -0.9414 -0.6294 -2.6856
25631SOL    HW286824  10.534  11.122   8.280  1.5492 -0.8807  1.8743
25632SOL     OW86825  11.690   3.162   2.231 -0.1892 -0.1302 -0.5747
25632SOL    HW186826  11.730   3.079   2.257 -0.7206 -0.2186 -0.0024
25632SOL    HW286827  11.597   3.150   2.249 -0.1569  0.9080  0.4212
25633SOL     OW86828   2.706   9.322   9.991 -0.8155 -0.7965 -0.0829
25633SOL    HW186829   2.749   9.352   9.911 -0.7642  1.3969  0.6979
25633SOL    HW286830   2.748   9.373  10.061 -0.5217 -3.0002  1.4262
25634SOL     OW86831   4.186  11.345   3.390  0.1263 -0.2730  0.9558
25634SOL    HW186832   4.232  11.365   3.472  0.9077 -0.3925  0.5596
25634SOL    HW286833   4.116  11.285   3.415  0.5737 -0.5825  1.4943
25635SOL     OW86834   4.791  11.528   5.983  0.5185 -0.3058  0.4970
25635SOL    HW186835   4.776  11.619   6.010  0.3878 -0.2558  0.2584
25635SOL    HW286836   4.868  11.532   5.927  0.2211 -0.2705  0.0888
25636SOL     OW86837   6.675   5.391   9.872  0.1993  0.1918  0.0726
25636SOL    HW186838   6.651   5.376   9.963 -2.3232 -0.2623 -0.5751
25636SOL    HW286839   6.757   5.344   9.860  0.0995 -0.5044  1.8900
25637SOL     OW86840   5.308   5.912   1.373 -0.1570 -0.0630 -0.1390
25637SOL    HW186841   5.386   5.904   1.428 -0.1588 -0.3911 -0.1819
25637SOL    HW286842   5.332   5.975   1.306  0.3429 -0.7482 -0.6140
25638SOL     OW86843   6.827   8.175   1.914 -0.0041  0.2800 -0.1257
25638SOL    HW186844   6.809   8.098   1.967  0.6663  0.5508  0.5129
25638SOL    HW286845   6.829   8.248   1.977  0.2552  0.6867 -0.5956
25639SOL     OW86846   7.554  12.351   9.330  0.1276 -0.5880  0.1230
25639SOL    HW186847   7.567  12.436   9.287  0.5813 -1.8347 -2.3968
25639SOL    HW286848   7.643  12.320   9.349 -0.0214 -0.6594  0.7191
25640SOL     OW86849   9.125   8.418   4.547  0.5707 -0.5857 -0.0141
25640SOL    HW186850   9.090   8.338   4.508 -0.7184  0.0546 -0.2171
25640SOL    HW286851   9.149   8.472   4.472 -1.2540  0.3634  0.0434
25641SOL     OW86852   6.762  11.914   8.091  0.8332 -0.5507 -0.1324
25641SOL    HW186853   6.702  11.880   8.157  0.1784 -0.0276 -0.4428
25641SOL    HW286854   6.740  12.007   8.085  0.6298 -0.6570 -1.3325
25642SOL     OW86855   4.090  11.954   5.935 -0.1580  0.0352  0.0930
25642SOL    HW186856   4.151  12.015   5.892 -0.2749  1.1792  1.4664
25642SOL    HW286857   4.147  11.891   5.980  0.1984  2.2748  3.0667
25643SOL     OW86858   2.670   4.683   9.173  0.3297  0.3174 -0.0604
25643SOL    HW186859   2.720   4.695   9.092 -0.3685  1.5307 -0.3381
25643SOL    HW286860   2.579   4.673   9.144 -0.0939  1.9779  0.6167
25644SOL     OW86861   2.521   3.019   6.812 -0.1685  0.1982 -0.3048
25644SOL    HW186862   2.601   3.028   6.865 -0.5901  0.7100  0.2608
25644SOL    HW286863   2.512   2.925   6.799  1.8339  0.2186 -2.4210
25645SOL     OW86864   9.988   3.311   1.775 -0.2095 -0.2652 -0.1083
25645SOL    HW186865   9.987   3.352   1.689 -1.4704 -0.1061 -0.0490
25645SOL    HW286866   9.903   3.334   1.813  0.3240 -0.3304  1.1798
25646SOL     OW86867  12.517   9.856  11.696  0.2057 -0.0436 -0.5815
25646SOL    HW186868  12.437   9.817  11.660  0.3692  2.0331 -3.5279
25646SOL    HW286869  12.588   9.805  11.658  0.3357  0.2091 -0.6786
25647SOL     OW86870   3.972  12.213   9.577 -0.5225 -0.0983  0.0785
25647SOL    HW186871   3.909  12.141   9.582  0.1689 -0.6960  0.1778
25647SOL    HW286872   3.962  12.259   9.661 -1.1423  0.0830 -0.0869
25648SOL     OW86873   8.961  11.424   0.464 -0.5732 -0.3509  1.0421
25648SOL    HW186874   9.002  11.337   0.464 -0.1154 -0.1423  0.7138
25648SOL    HW286875   9.034  11.484   0.451 -1.0736 -0.0032 -0.2243
25649SOL     OW86876   0.929   6.167   0.293 -0.3416 -0.2866 -0.1740
25649SOL    HW186877   1.003   6.227   0.301 -0.1883 -0.5793  0.7371
25649SOL    HW286878   0.861   6.206   0.349 -1.5068  0.8654 -2.2523
25650SOL     OW86879  11.192   7.452  12.809  0.6332 -0.0352  0.3373
25650SOL    HW186880  11.120   7.512  12.791  0.6752 -0.4999 -1.7055
25650SOL    HW286881  11.271   7.506  12.803  0.5259  0.2913  1.6494
25651SOL     OW86882   7.761  13.269   2.442 -0.5691 -0.0154 -0.5941
25651SOL    HW186883   7.729  13.312   2.364 -0.6527  0.5567 -0.2477
25651SOL    HW286884   7.830  13.326   2.475 -0.2301 -0.4766 -0.4970
25652SOL     OW86885   0.136   2.682   5.253  0.7177 -0.5565 -0.3519
25652SOL    HW186886   0.205   2.616   5.243 -0.9498 -2.5934  0.6252
25652SOL    HW286887   0.065   2.652   5.195  0.0430  0.5942 -0.1603
25653SOL     OW86888   2.359   5.869  10.019  0.4137 -0.2658 -0.1957
25653SOL    HW186889   2.387   5.925   9.947 -1.4451  0.2737 -0.5701
25653SOL    HW286890   2.356   5.929  10.095 -2.5091  0.5075 -0.7959
25654SOL     OW86891   6.611   8.650   4.052  0.0258 -0.0535 -0.4278
25654SOL    HW186892   6.542   8.589   4.027  0.5103 -0.3206 -1.1399
25654SOL    HW286893   6.587   8.679   4.140 -0.6522 -0.6290 -0.4186
25655SOL     OW86894   5.226   8.949   1.850 -0.7304  0.7769 -0.1175
25655SOL    HW186895   5.308   8.953   1.801 -1.2427  0.8771 -0.9967
25655SOL    HW286896   5.251   8.917   1.937 -0.1412 -2.4791 -1.3260
25656SOL     OW86897  11.044   6.637   4.574  0.1813  0.1634 -0.1824
25656SOL    HW186898  11.033   6.731   4.563  1.2699  0.6451  2.2659
25656SOL    HW286899  11.049   6.623   4.668 -1.7258 -2.6075 -0.3506
25657SOL     OW86900   6.294  11.629  10.134 -0.2204  0.2664 -0.2086
25657SOL    HW186901   6.232  11.699  10.152 -1.7744 -0.7269 -1.4226
25657SOL    HW286902   6.240  11.553  10.110  1.4301 -0.7712 -0.8968
25658SOL     OW86903   5.620   4.357  10.392 -0.0612  0.0520  0.4160
25658SOL    HW186904   5.655   4.355  10.303 -0.8167 -3.2343  0.0514
25658SOL    HW286905   5.695   4.379  10.447  0.4033  2.2755 -0.9500
25659SOL     OW86906   5.097   3.734  10.679  0.0994 -0.3247  0.3127
25659SOL    HW186907   5.110   3.725  10.585 -0.7071 -0.3053  0.2007
25659SOL    HW286908   5.179   3.701  10.717 -0.6166 -3.0693 -0.2990
25660SOL     OW86909  11.347   7.185   5.635 -0.1369  0.2868  0.1621
25660SOL    HW186910  11.442   7.191   5.624  0.2705 -3.0541  0.6452
25660SOL    HW286911  11.311   7.212   5.551  1.3049  0.5120 -0.4048
25661SOL     OW86912  10.520   6.204   5.011 -0.3496 -0.3308 -0.1436
25661SOL    HW186913  10.526   6.117   4.972 -0.3599 -0.7130  0.6740
25661SOL    HW286914  10.534   6.264   4.938  0.2114 -1.0257 -0.6250
25662SOL     OW86915   7.766   4.572   9.578 -0.3503 -1.3774  0.0919
25662SOL    HW186916   7.824   4.496   9.588 -1.5486 -2.3775 -0.2961
25662SOL    HW286917   7.761   4.610   9.666  0.9078 -1.2388  0.1237
25663SOL     OW86918  10.246  13.100  10.382 -0.6657 -0.5089  0.4484
25663SOL    HW186919  10.185  13.131  10.450  1.3253  0.9745  1.6670
25663SOL    HW286920  10.322  13.157  10.391 -0.0657 -0.6566 -2.6883
25664SOL     OW86921   8.012   0.962   2.789 -0.2974 -0.2560 -0.5417
25664SOL    HW186922   8.076   1.016   2.834 -0.6352 -0.0091 -0.3490
25664SOL    HW286923   8.058   0.880   2.769  0.2933  0.1962 -1.0635
25665SOL     OW86924   1.981   9.622   8.992  0.0612  0.3012  0.3411
25665SOL    HW186925   1.930   9.568   8.931  0.0356 -0.8398  1.3248
25665SOL    HW286926   1.971   9.578   9.076  0.6825  1.4404  1.0337
25666SOL     OW86927   8.989   8.807  10.634  0.1921  0.2737  0.3395
25666SOL    HW186928   8.967   8.758  10.712 -1.7110 -0.2843 -0.5001
25666SOL    HW286929   8.935   8.769  10.565  3.3356 -0.7144 -1.8079
25667SOL     OW86930   5.776   0.433  10.236 -0.4428  0.2703  0.0023
25667SOL    HW186931   5.758   0.423  10.142 -1.8829  2.4381 -0.0318
25667SOL    HW286932   5.721   0.367  10.278 -1.1041  0.4113 -0.6148
25668SOL     OW86933   5.165  11.939   3.845 -0.0917 -0.3868 -0.4965
25668SOL    HW186934   5.199  12.013   3.896 -0.0332  0.0731 -1.1858
25668SOL    HW286935   5.103  11.979   3.785  0.4617 -0.8039 -1.3578
25669SOL     OW86936  11.059  11.524   7.471  0.0651 -0.8631 -0.0891
25669SOL    HW186937  11.039  11.564   7.387 -1.6802 -1.5334 -0.0359
25669SOL    HW286938  10.998  11.565   7.533 -1.5813 -3.2425  0.0232
25670SOL     OW86939  13.225  11.235   5.925  0.8196  0.3844  0.8854
25670SOL    HW186940  13.147  11.288   5.912 -0.2564 -1.1067  0.9986
25670SOL    HW286941  13.221  11.169   5.856  2.1461  0.4446  0.7193
25671SOL     OW86942  12.337   5.540   0.211  0.1519 -0.1568  0.3930
25671SOL    HW186943  12.318   5.596   0.286 -0.9321 -0.4642  0.3610
25671SOL    HW286944  12.431   5.553   0.195  0.1108  0.9689  0.9332
25672SOL     OW86945   0.955  13.181   0.604  0.1882  0.0965 -0.1000
25672SOL    HW186946   0.885  13.182   0.538  1.0388 -0.9653 -1.0747
25672SOL    HW286947   0.993  13.093   0.597  1.7958  0.7230  0.1777
25673SOL     OW86948   6.323   6.307   2.679  0.1137 -0.0592 -0.1529
25673SOL    HW186949   6.375   6.293   2.758 -0.4543  1.5954  0.5421
25673SOL    HW286950   6.242   6.259   2.696  0.0233  0.2284  0.2408
25674SOL     OW86951  12.505   7.775   1.623  0.8052  0.0175  0.2207
25674SOL    HW186952  12.578   7.731   1.581 -0.2485  0.4658 -2.2791
25674SOL    HW286953  12.492   7.855   1.572 -1.7660 -0.3336  0.1632
25675SOL     OW86954   3.687  11.457  12.408  0.3119 -0.2111  0.4080
25675SOL    HW186955   3.773  11.497  12.398  0.2299  0.2898  1.5999
25675SOL    HW286956   3.652  11.454  12.319  0.6503  1.6348  0.1647
25676SOL     OW86957   3.411   7.360   7.653 -0.6217  0.1681  0.6018
25676SOL    HW186958   3.360   7.308   7.591  0.5476  0.2432 -0.4409
25676SOL    HW286959   3.408   7.449   7.618 -1.8577  0.6667  1.8966
25677SOL     OW86960   1.401   8.699  12.850  0.0583 -0.2616 -0.3055
25677SOL    HW186961   1.369   8.644  12.779 -2.5051  1.4114 -0.5745
25677SOL    HW286962   1.342   8.679  12.923 -0.1800  1.2476 -0.0678
25678SOL     OW86963   8.831  10.405   1.327 -0.2819  0.3099  0.0737
25678SOL    HW186964   8.806  10.315   1.309  1.6136 -0.3719  0.6063
25678SOL    HW286965   8.927  10.404   1.324 -0.1897  2.9548 -3.0003
25679SOL     OW86966  12.482   2.712  12.793  0.4610 -0.2473  0.3657
25679SOL    HW186967  12.465   2.676  12.706 -0.3272  0.0291  0.3965
25679SOL    HW286968  12.429   2.658  12.852 -2.0982  1.9248  0.2335
25680SOL     OW86969  10.593   0.150   5.507  0.7474  0.3736 -0.3214
25680SOL    HW186970  10.664   0.147   5.572 -0.5606  1.0088  1.2105
25680SOL    HW286971  10.536   0.077   5.532  0.1450  0.7296 -0.6509
25681SOL     OW86972  11.431   2.360   1.386 -0.2243 -1.1258 -0.0529
25681SOL    HW186973  11.344   2.379   1.349  0.2215 -1.6948 -1.5022
25681SOL    HW286974  11.436   2.264   1.384 -0.2192 -1.1886  1.6745
25682SOL     OW86975   9.546   2.694   4.104 -0.2003 -0.5770 -0.1536
25682SOL    HW186976   9.628   2.652   4.130  0.4387  0.3018 -0.6597
25682SOL    HW286977   9.477   2.638   4.138  0.6198 -1.6055 -0.1590
25683SOL     OW86978  11.832  10.832  10.337  0.2980 -0.4279 -0.2281
25683SOL    HW186979  11.739  10.854  10.339  0.3006 -0.0805 -2.0292
25683SOL    HW286980  11.833  10.736  10.330  0.0576 -0.3975 -0.7175
25684SOL     OW86981   5.299   9.171   3.028  0.3769 -0.4220  0.4457
25684SOL    HW186982   5.373   9.214   2.985  1.5550 -2.5171  0.2945
25684SOL    HW286983   5.266   9.110   2.963 -0.5854 -0.5448  1.0363
25685SOL     OW86984   8.773  13.068   4.659 -0.3321  0.0090  0.4051
25685SOL    HW186985   8.704  13.049   4.722  0.6274  0.1949  1.5716
25685SOL    HW286986   8.853  13.034   4.701  0.1646 -1.0176 -1.2953
25686SOL     OW86987   4.296   8.982   5.021  0.8626  0.0658  0.2065
25686SOL    HW186988   4.221   8.923   5.031  1.2147 -0.2475  1.1436
25686SOL    HW286989   4.345   8.946   4.947  0.7578 -0.4773  0.3940
25687SOL     OW86990   6.428  11.129   4.692 -0.1418  0.2448  0.4894
25687SOL    HW186991   6.363  11.197   4.674  1.9550  1.7822 -1.9653
25687SOL    HW286992   6.415  11.064   4.623  0.5578  0.2844  0.3141
25688SOL     OW86993  13.051   0.917  11.588 -0.0408  0.8463 -0.0787
25688SOL    HW186994  13.033   1.007  11.558 -1.3529  0.1901 -1.3791
25688SOL    HW286995  13.109   0.881  11.521 -1.2281  0.0671 -0.7230
25689SOL     OW86996   0.530   1.474  11.599  0.2812 -0.2424 -0.0051
25689SOL    HW186997   0.507   1.504  11.687 -0.6902 -0.1991 -0.2638
25689SOL    HW286998   0.536   1.379  11.607 -0.0669 -0.2622  0.0542
25690SOL     OW86999  11.501   9.812   8.306 -0.3217 -0.1371 -0.3033
25690SOL    HW187000  11.408   9.815   8.330 -0.7288 -0.4755 -1.7460
25690SOL    HW287001  11.502   9.773   8.219  1.1406  0.3916 -0.5505
25691SOL     OW87002  13.037   3.532  12.122 -0.1662 -0.2655 -0.2906
25691SOL    HW187003  13.088   3.512  12.044  1.0360  1.5088 -0.0186
25691SOL    HW287004  13.024   3.626  12.119  0.4326 -0.0483  1.9266
25692SOL     OW87005   4.654   9.669   5.919 -0.1223  0.0675 -0.0999
25692SOL    HW187006   4.742   9.631   5.907  0.5556  2.0184 -1.9998
25692SOL    HW287007   4.642   9.724   5.842 -3.2479 -0.4792 -0.1206
25693SOL     OW87008  12.050   3.871   3.342 -0.5531 -0.0096  0.4884
25693SOL    HW187009  12.019   3.917   3.420 -2.4366 -0.5158  0.0982
25693SOL    HW287010  12.025   3.929   3.269 -1.7619 -1.0083  0.0815
25694SOL     OW87011   1.734   2.512   1.172  0.7033 -0.0315 -0.2043
25694SOL    HW187012   1.698   2.478   1.090  0.5308 -0.7817  0.1773
25694SOL    HW287013   1.829   2.498   1.164  0.5671 -1.3602  0.2756
25695SOL     OW87014   5.473  11.338  13.278 -0.8047  0.1308  0.0488
25695SOL    HW187015   5.514  11.402  13.220 -1.2961 -1.0728 -1.7161
25695SOL    HW287016   5.383  11.368  13.286 -0.6937  0.3913  0.3170
25696SOL     OW87017   7.496   1.489  10.110 -0.1388 -0.2492 -0.0392
25696SOL    HW187018   7.473   1.516  10.199  2.1015 -1.1686  0.8886
25696SOL    HW287019   7.581   1.529  10.094  1.2994 -3.1684 -0.2383
25697SOL     OW87020   5.404   3.938  10.308 -0.4451  0.3250  0.3989
25697SOL    HW187021   5.396   3.905  10.398  0.4985  1.3162  0.8595
25697SOL    HW287022   5.322   3.986  10.294 -1.0290 -0.6415  0.3620
25698SOL     OW87023   7.682   5.251  11.948  0.2671  0.0756  0.2297
25698SOL    HW187024   7.693   5.342  11.974 -0.7131  0.0792  0.6859
25698SOL    HW287025   7.649   5.208  12.027  1.5956 -0.8804  0.3057
25699SOL     OW87026  12.290   5.217  10.515 -0.3010 -0.3339 -0.2050
25699SOL    HW187027  12.314   5.129  10.545  1.5456  0.4506  0.7895
25699SOL    HW287028  12.215   5.242  10.569  0.6546 -0.3977  1.1849
25700SOL     OW87029   1.293   2.569   0.028 -0.2542  0.0974  0.1424
25700SOL    HW187030   1.235   2.526   0.090  0.0708 -0.5696  0.0003
25700SOL    HW287031   1.270   2.530  -0.057  0.7526 -0.5983  0.1569
25701SOL     OW87032   1.125   2.720   3.996  0.6131 -0.2312 -0.8341
25701SOL    HW187033   1.087   2.633   4.006 -0.3813  0.2684 -0.1280
25701SOL    HW287034   1.102   2.767   4.076  0.4703  0.9291 -1.5152
25702SOL     OW87035   5.313   6.928   9.304 -0.2068 -0.1943  0.4171
25702SOL    HW187036   5.315   6.895   9.214 -1.4722  0.5500  0.0900
25702SOL    HW287037   5.293   6.851   9.357 -1.4948 -0.2749 -0.1599
25703SOL     OW87038   4.677   8.796  12.687 -0.0134 -0.2017 -0.0282
25703SOL    HW187039   4.647   8.752  12.766 -0.6831  0.1799 -0.0599
25703SOL    HW287040   4.771   8.779  12.684 -0.0808 -0.6988  0.5403
25704SOL     OW87041   6.394   3.497   0.519  0.7659  0.5283  0.8094
25704SOL    HW187042   6.481   3.532   0.499 -0.0908  2.9597  0.9280
25704SOL    HW287043   6.354   3.480   0.434  1.5427 -1.1736  0.7643
25705SOL     OW87044   8.129   5.208  11.937 -0.7626 -0.1302 -0.1710
25705SOL    HW187045   8.072   5.183  12.009  0.4454  0.7232  1.1174
25705SOL    HW287046   8.213   5.166  11.956 -0.2468  0.6049 -0.7332
25706SOL     OW87047   0.634   2.679  13.101 -0.2179 -0.4602  0.2697
25706SOL    HW187048   0.599   2.699  13.188 -0.6083  0.0830 -0.0056
25706SOL    HW287049   0.701   2.746  13.086  0.6452 -1.2207  0.6041
25707SOL     OW87050   8.272  10.158   4.707  0.7416  0.1437  0.0354
25707SOL    HW187051   8.253  10.066   4.686  0.8049  0.4693 -1.6176
25707SOL    HW287052   8.188  10.203   4.696  0.9960  0.4935 -0.5405
25708SOL     OW87053   4.505   1.302   5.429  0.0229  0.0518  0.0272
25708SOL    HW187054   4.488   1.216   5.468  1.2953  0.2933  1.1853
25708SOL    HW287055   4.419   1.331   5.397 -0.7200 -0.9871  0.9930
25709SOL     OW87056   3.393  12.317  10.820  0.1254  0.0118  0.3721
25709SOL    HW187057   3.363  12.332  10.910 -1.4068  0.2205 -0.1338
25709SOL    HW287058   3.441  12.235  10.824 -2.3367 -1.5331  0.9225
25710SOL     OW87059   2.635   2.177   3.811  0.0050 -0.4728 -0.5359
25710SOL    HW187060   2.631   2.089   3.773  0.7346 -0.6093 -0.3038
25710SOL    HW287061   2.597   2.168   3.898  2.1789 -1.0828  0.4159
25711SOL     OW87062  11.819   8.377  12.916 -0.1268 -0.3049  0.0882
25711SOL    HW187063  11.875   8.309  12.879 -1.7324 -2.0249  0.6990
25711SOL    HW287064  11.746   8.385  12.853 -0.4355  0.1617  0.4995
25712SOL     OW87065  12.869   5.101   2.099  0.2271 -0.0660 -0.2164
25712SOL    HW187066  12.919   5.020   2.090 -0.8690 -0.8251  0.2649
25712SOL    HW287067  12.832   5.097   2.187  0.4580  1.1500 -0.0478
25713SOL     OW87068   3.158   3.170   0.240  0.0909 -0.1114 -0.4786
25713SOL    HW187069   3.152   3.256   0.282 -1.0592 -0.9241  1.1439
25713SOL    HW287070   3.182   3.189   0.149  1.5924  1.7927  0.2525
25714SOL     OW87071   9.690   5.533  12.322  0.3849  0.0088  0.2567
25714SOL    HW187072   9.785   5.545  12.320  0.2223  1.5546  0.3414
25714SOL    HW287073   9.674   5.460  12.262  1.3774  1.8380 -2.4458
25715SOL     OW87074   2.707   4.529   9.700 -0.2085 -0.2297  0.7487
25715SOL    HW187075   2.678   4.594   9.637  0.1208 -0.2570  0.5692
25715SOL    HW287076   2.639   4.460   9.697  0.6663 -1.0769 -0.8402
25716SOL     OW87077   5.646  11.985  11.767  0.5827 -0.2498  0.1176
25716SOL    HW187078   5.618  12.036  11.843  1.2770  0.0488  0.1780
25716SOL    HW287079   5.735  12.014  11.750  0.9353 -1.3356  0.0480
25717SOL     OW87080   4.132   8.583  10.845 -0.1436  0.3389  0.4357
25717SOL    HW187081   4.100   8.524  10.777  3.0163 -1.7221  0.5207
25717SOL    HW287082   4.189   8.644  10.798  1.3372 -0.5249  1.0506
25718SOL     OW87083   9.292   0.190   7.096  0.5199  0.1081 -0.3032
25718SOL    HW187084   9.376   0.234   7.111  0.8530 -0.5516 -0.1713
25718SOL    HW287085   9.299   0.109   7.146  1.8257 -2.3778 -4.0587
25719SOL     OW87086   0.811   0.114   5.636  0.0038 -0.1599  0.0134
25719SOL    HW187087   0.757   0.094   5.559  1.6692 -0.1847 -1.2133
25719SOL    HW287088   0.895   0.141   5.599  1.0201 -0.6702  1.8474
25720SOL     OW87089   8.197  11.741   7.914 -0.3415  0.0035 -0.2608
25720SOL    HW187090   8.223  11.777   7.830  0.0516 -0.7113 -0.4451
25720SOL    HW287091   8.178  11.649   7.897 -1.6011  0.1538  0.1513
25721SOL     OW87092  12.767   3.124   3.582 -0.2582 -0.4510 -0.6831
25721SOL    HW187093  12.714   3.047   3.562  1.0778 -0.9951 -2.2640
25721SOL    HW287094  12.838   3.091   3.637  0.1586 -0.2896 -1.1261
25722SOL     OW87095  10.764   8.338   5.187 -0.2344 -0.1716 -0.2417
25722SOL    HW187096  10.831   8.325   5.254  0.0910 -0.7469 -0.6719
25722SOL    HW287097  10.812   8.342   5.104 -0.7108 -0.3429 -0.5328
25723SOL     OW87098   6.449   2.850   1.308  0.1961  0.5945 -0.3057
25723SOL    HW187099   6.543   2.832   1.305 -0.2250 -2.1157  0.4658
25723SOL    HW287100   6.422   2.855   1.216  0.9750  0.8066 -0.5276
25724SOL     OW87101  12.764   4.514   7.827  0.0640 -0.6270  0.3885
25724SOL    HW187102  12.846   4.478   7.792 -0.7445 -1.2246 -0.9672
25724SOL    HW287103  12.734   4.449   7.891 -0.0694 -1.0967 -0.1512
25725SOL     OW87104   1.225   6.889   5.107  0.1570 -0.4894 -0.2431
25725SOL    HW187105   1.198   6.963   5.054  1.0396 -0.4900 -0.7109
25725SOL    HW287106   1.320   6.897   5.113 -0.0212  0.4119  2.6977
25726SOL     OW87107   6.757   8.640   5.027 -0.6393 -0.3274 -0.2302
25726SOL    HW187108   6.825   8.654   5.092 -1.9366  3.1077  0.5652
25726SOL    HW287109   6.804   8.640   4.943  0.5153  0.1172  0.3952
25727SOL     OW87110  11.228   4.063   9.339  0.4114 -0.3238 -0.2350
25727SOL    HW187111  11.266   4.054   9.426 -0.0931 -0.1037  0.0080
25727SOL    HW287112  11.237   4.155   9.318  0.6896 -0.4072 -0.4915
25728SOL     OW87113   1.750   4.415  11.473 -0.0086  0.6796  0.1286
25728SOL    HW187114   1.827   4.460  11.439 -0.9596  1.4949 -1.0637
25728SOL    HW287115   1.753   4.429  11.568  2.3716 -1.0950  0.3926
25729SOL     OW87116   1.884   4.249   2.404  0.1990  0.0947  0.6693
25729SOL    HW187117   1.921   4.248   2.316  1.1308 -1.2896  1.0381
25729SOL    HW287118   1.959   4.236   2.462 -0.7755 -2.6954  1.4669
25730SOL     OW87119  10.068   6.336   1.229  0.1258 -0.3376  0.5809
25730SOL    HW187120  10.039   6.265   1.286  1.1650  0.3609  2.0255
25730SOL    HW287121  10.092   6.292   1.147 -0.8699 -1.4302  0.8440
25731SOL     OW87122  10.775  10.947   0.664  0.7586 -0.9123 -0.2256
25731SOL    HW187123  10.742  10.904   0.585 -0.9576 -2.5286  1.2974
25731SOL    HW287124  10.832  10.882   0.705 -0.0652 -0.9181  0.9493
25732SOL     OW87125   6.531   0.109   4.012 -0.2680  0.1218  0.3587
25732SOL    HW187126   6.486   0.107   3.928 -0.8033 -0.9066  0.6607
25732SOL    HW287127   6.504   0.192   4.052 -1.2822 -0.1214  0.2001
25733SOL     OW87128   1.426   5.956  12.200  0.3595 -0.2147 -0.1322
25733SOL    HW187129   1.479   5.991  12.272 -0.0714 -0.1519  0.1545
25733SOL    HW287130   1.473   5.877  12.173  1.0336  0.2728 -0.4170
25734SOL     OW87131  12.248   9.012   8.821  0.2497 -0.6504  0.4659
25734SOL    HW187132  12.154   9.002   8.804  0.1531 -1.2778  1.3135
25734SOL    HW287133  12.276   9.078   8.758 -1.1406  0.9387  1.4164
25735SOL     OW87134  12.051   7.937   5.595 -0.4203  0.3543 -0.4458
25735SOL    HW187135  12.056   8.002   5.524 -3.2383  1.3095  0.0789
25735SOL    HW287136  12.070   7.987   5.674  1.6958 -0.4896 -0.3611
25736SOL     OW87137   3.769   8.771  12.767 -0.4230  0.3601  0.3264
25736SOL    HW187138   3.821   8.834  12.718  0.4561 -0.1304  0.6182
25736SOL    HW287139   3.683   8.812  12.774 -0.0304  1.2633  0.0103
25737SOL     OW87140   5.679   5.554   9.961  0.1840  0.3092  0.0757
25737SOL    HW187141   5.694   5.628  10.020  0.5796 -0.1715  0.5970
25737SOL    HW287142   5.601   5.578   9.911 -1.2124  0.0204  2.0045
25738SOL     OW87143  11.202   6.589   7.583 -0.0205  0.0291  0.1852
25738SOL    HW187144  11.133   6.624   7.639 -1.2490 -0.2064 -1.1036
25738SOL    HW287145  11.252   6.530   7.639 -1.2151 -0.2178  1.0243
25739SOL     OW87146   7.197  10.551   9.178 -0.4407 -0.3237 -0.1350
25739SOL    HW187147   7.255  10.529   9.251 -0.2848 -0.8449 -0.4108
25739SOL    HW287148   7.181  10.468   9.134  0.0130  0.0821 -1.1011
25740SOL     OW87149   3.503  13.079   2.102 -0.1781  0.3336 -0.5867
25740SOL    HW187150   3.557  13.011   2.062 -1.4192 -0.8380 -0.3177
25740SOL    HW287151   3.440  13.103   2.035 -1.5110 -0.7887  0.2260
25741SOL     OW87152  12.037   2.208  11.734 -0.2409  0.4109  0.0304
25741SOL    HW187153  12.063   2.119  11.712 -0.8952  0.3920 -0.7188
25741SOL    HW287154  12.048   2.214  11.829  0.5600 -0.2074 -0.0107
25742SOL     OW87155   7.857   2.669   0.941 -0.2990  0.1070  0.1976
25742SOL    HW187156   7.877   2.760   0.960 -0.5936  0.0828  0.6461
25742SOL    HW287157   7.819   2.670   0.853 -3.2930  0.8568  1.3981
25743SOL     OW87158   3.281   9.329   5.236  0.6354  0.0827  0.0656
25743SOL    HW187159   3.284   9.252   5.179 -2.3644 -1.7510  2.1049
25743SOL    HW287160   3.348   9.313   5.302  1.7338  0.4980 -0.9300
25744SOL     OW87161   7.703  12.874   8.280  0.0061 -0.0571  0.2789
25744SOL    HW187162   7.630  12.819   8.252  0.4494 -0.7540  0.4671
25744SOL    HW287163   7.680  12.962   8.248 -0.2887 -0.5113 -0.8228
25745SOL     OW87164  12.717   2.193   6.263 -0.2395 -0.0138 -0.2254
25745SOL    HW187165  12.690   2.246   6.337  0.4659  2.0183 -1.3408
25745SOL    HW287166  12.645   2.200   6.200  0.2710  0.4499 -0.7725
25746SOL     OW87167   3.129   9.770  12.693 -0.0117  0.2307 -0.3193
25746SOL    HW187168   3.056   9.751  12.635 -1.2224  1.8179  0.5836
25746SOL    HW287169   3.203   9.787  12.635 -0.6303 -0.3246 -1.2886
25747SOL     OW87170   5.935   4.508   6.184  0.3678  0.0898  0.2996
25747SOL    HW187171   5.852   4.491   6.228  0.4585  0.3862  0.5831
25747SOL    HW287172   5.994   4.538   6.253  0.0987  1.9993 -0.2469
25748SOL     OW87173  10.200   2.198   3.810 -0.2694  0.3686  0.2213
25748SOL    HW187174  10.104   2.191   3.803 -0.5675  2.6725  0.9606
25748SOL    HW287175  10.233   2.147   3.737 -2.1737  1.2420 -1.3694
25749SOL     OW87176  13.025   9.247   6.469  1.1237 -0.1176  0.6670
25749SOL    HW187177  13.061   9.328   6.506 -0.4520  0.9559 -0.0396
25749SOL    HW287178  12.935   9.270   6.443  1.1473 -1.6563 -0.9994
25750SOL     OW87179   9.505   0.918  11.570  0.0206  0.0254  0.1687
25750SOL    HW187180   9.480   0.888  11.483  0.8392 -0.4373  0.0846
25750SOL    HW287181   9.511   1.013  11.562  0.3081 -0.0323 -0.3419
25751SOL     OW87182   1.776   9.412   4.708 -0.3491  0.7118 -0.0512
25751SOL    HW187183   1.701   9.353   4.699  1.3292 -1.5709 -0.1809
25751SOL    HW287184   1.821   9.407   4.624 -0.8885  3.3705 -0.5632
25752SOL     OW87185   3.093  11.481   7.498 -0.6822  0.7960 -0.5482
25752SOL    HW187186   3.101  11.421   7.572 -0.8141  1.8582  0.3675
25752SOL    HW287187   3.116  11.567   7.534 -0.1814  1.2582 -1.8899
25753SOL     OW87188  12.618  12.418  10.691  0.3030 -0.2628  0.2260
25753SOL    HW187189  12.680  12.405  10.618  1.1093  2.5353  0.2954
25753SOL    HW287190  12.674  12.443  10.765 -0.7467 -0.0365  0.9535
25754SOL     OW87191  13.236   3.324   2.509 -0.6392  0.2953  0.6101
25754SOL    HW187192  13.181   3.341   2.433  0.7549 -1.5166 -0.8766
25754SOL    HW287193  13.252   3.411   2.546 -0.6560  1.3257 -1.6572
25755SOL     OW87194   9.291   9.666   9.837  0.4210  0.4248  0.0740
25755SOL    HW187195   9.367   9.723   9.846 -1.1743  2.4349  1.8213
25755SOL    HW287196   9.216   9.726   9.837 -1.2290 -1.5120 -1.0079
25756SOL     OW87197  10.106   8.257   0.621 -0.3302  0.6276 -0.5978
25756SOL    HW187198  10.163   8.333   0.627 -0.1611  0.4467  0.0841
25756SOL    HW287199  10.072   8.260   0.531  0.1261  1.1771 -0.7557
25757SOL     OW87200   9.896   0.103  10.104  0.1918 -0.4813 -0.2346
25757SOL    HW187201   9.976   0.091  10.054 -0.2393 -0.6045 -0.9070
25757SOL    HW287202   9.908   0.047  10.182  0.3407 -1.2951 -0.8272
25758SOL     OW87203   1.853   1.504   3.754  0.4820 -0.1543  0.4078
25758SOL    HW187204   1.912   1.456   3.696  0.1016  0.3442 -0.3969
25758SOL    HW287205   1.902   1.581   3.782  0.2231  0.2667 -0.2713
25759SOL     OW87206   9.416   1.617   3.172 -0.0551 -0.1759  0.2339
25759SOL    HW187207   9.484   1.683   3.189 -0.1641 -0.2224  0.8741
25759SOL    HW287208   9.334   1.662   3.191 -0.1341 -0.4754  0.6086
25760SOL     OW87209  11.209   6.944   7.917 -0.5014  0.3736  0.0508
25760SOL    HW187210  11.202   7.015   7.982 -3.7620  1.1868 -1.0259
25760SOL    HW287211  11.141   6.882   7.942  1.1045 -1.5556 -0.1110
25761SOL     OW87212   7.362   6.646  11.062  0.4122 -0.1233 -0.0259
25761SOL    HW187213   7.441   6.687  11.027 -1.1624  2.0262 -1.3221
25761SOL    HW287214   7.364   6.556  11.028  1.0192  0.6731 -2.2778
25762SOL     OW87215   3.116   1.718  12.182 -0.0841 -0.0198 -0.3210
25762SOL    HW187216   3.096   1.635  12.139 -0.8436 -0.2189  0.3978
25762SOL    HW287217   3.168   1.693  12.259 -0.8549  0.0993  0.2498
25763SOL     OW87218   4.376   2.166  11.423  0.7835 -0.6839  0.1628
25763SOL    HW187219   4.383   2.224  11.498 -0.1242 -0.1358 -0.1740
25763SOL    HW287220   4.322   2.093  11.454  0.0086 -0.2273 -0.0837
25764SOL     OW87221   3.937   4.207   7.716 -0.4781 -0.5415 -0.3047
25764SOL    HW187222   3.890   4.279   7.759 -0.3073 -0.6759  0.1219
25764SOL    HW287223   3.893   4.128   7.748  0.6931 -0.7285  0.9716
25765SOL     OW87224  11.297  12.977   0.882 -0.2298 -0.2455 -0.4115
25765SOL    HW187225  11.237  12.903   0.895 -0.8440  0.4223  0.7834
25765SOL    HW287226  11.238  13.053   0.873  0.3982  0.1546 -1.2152
25766SOL     OW87227   7.830  11.993   1.303 -0.3034 -0.2584 -0.1752
25766SOL    HW187228   7.893  11.927   1.333 -0.4393  0.3755  1.6324
25766SOL    HW287229   7.870  12.076   1.328 -0.9648  0.2598 -0.8139
25767SOL     OW87230   4.003   6.541   3.195 -0.2374  0.0620  0.5555
25767SOL    HW187231   3.951   6.616   3.227 -0.8015 -0.3426  0.6007
25767SOL    HW287232   4.035   6.570   3.110 -2.0246 -0.3241 -0.3008
25768SOL     OW87233   5.247  12.018   5.236 -0.3924 -0.1771 -0.1181
25768SOL    HW187234   5.222  12.105   5.204  0.0834 -0.2947 -0.8312
25768SOL    HW287235   5.294  12.035   5.318  0.1335  0.2734 -0.5048
25769SOL     OW87236   6.172   2.340   4.031  0.4457  0.3572  0.0686
25769SOL    HW187237   6.201   2.249   4.028 -1.4987 -0.2710 -0.9268
25769SOL    HW287238   6.254   2.391   4.029  1.5236 -1.3201 -1.6494
25770SOL     OW87239  11.101   6.771   1.499  0.5615  0.3491 -0.4459
25770SOL    HW187240  11.155   6.815   1.432  0.7130 -1.1920 -1.3809
25770SOL    HW287241  11.040   6.717   1.449 -0.8150  0.8450  0.6445
25771SOL     OW87242   1.807   1.691   4.861 -0.5807  0.7294 -0.1113
25771SOL    HW187243   1.817   1.736   4.777 -0.1346  1.3458  0.2612
25771SOL    HW287244   1.728   1.638   4.851 -0.4157  0.6346 -0.9866
25772SOL     OW87245   1.987   2.492  10.014  0.1813 -0.3314  0.2267
25772SOL    HW187246   1.980   2.492   9.918  0.3216  0.8534  0.2100
25772SOL    HW287247   1.896   2.485  10.044  0.1507 -0.8906  0.0106
25773SOL     OW87248   6.152   7.573   2.062 -0.2718 -0.3966 -0.1493
25773SOL    HW187249   6.194   7.534   1.985 -1.4055 -0.3156 -0.8304
25773SOL    HW287250   6.201   7.538   2.136  0.2795 -1.1790 -0.8636
25774SOL     OW87251   7.039   6.702   7.798 -0.0698 -0.0845 -0.5625
25774SOL    HW187252   7.068   6.693   7.707  1.2197 -0.6374 -0.1193
25774SOL    HW287253   7.119   6.694   7.849 -0.5810  1.6218  0.5654
25775SOL     OW87254   7.103   8.468  11.248  0.6267  0.0202  0.9209
25775SOL    HW187255   7.161   8.409  11.296  0.3652 -0.1744  1.0026
25775SOL    HW287256   7.015   8.441  11.274  0.3827 -1.3534 -1.1388
25776SOL     OW87257  13.230  12.921   8.879  0.0390 -0.5046 -0.3612
25776SOL    HW187258  13.317  12.892   8.851 -0.3535 -0.7696 -1.3518
25776SOL    HW287259  13.223  13.011   8.846 -0.4208 -0.8130 -1.1328
25777SOL     OW87260  10.362   1.113   1.663  0.2497 -0.5367 -0.3340
25777SOL    HW187261  10.413   1.051   1.715 -0.1085 -1.2302 -0.7963
25777SOL    HW287262  10.271   1.094   1.685  0.1578  1.2222  1.0995
25778SOL     OW87263   4.460   5.749   3.195  0.0035 -0.0507  0.0123
25778SOL    HW187264   4.459   5.698   3.276  0.0007 -0.0962 -0.0159
25778SOL    HW287265   4.407   5.826   3.215  1.9614  1.1400  0.7987
25779SOL     OW87266  12.072   5.799   7.276  0.0123 -0.0838  0.1218
25779SOL    HW187267  11.983   5.825   7.252 -1.0425 -2.5047  1.0903
25779SOL    HW287268  12.075   5.705   7.258  1.7399 -0.4291  1.9074
25780SOL     OW87269   9.884   4.303   0.289  0.3699 -1.1972  0.3526
25780SOL    HW187270   9.917   4.220   0.322  0.4027 -1.2051  0.2993
25780SOL    HW287271   9.947   4.368   0.320 -0.1842 -1.0617  1.2472
25781SOL     OW87272  13.054  11.241   2.979 -1.1664 -0.4054  0.9976
25781SOL    HW187273  13.021  11.171   3.037 -1.6250  0.4081  1.7391
25781SOL    HW287274  13.059  11.318   3.035 -1.8639  0.4753 -0.0998
25782SOL     OW87275   9.251   2.621   3.624  1.0456  0.3703  0.2541
25782SOL    HW187276   9.337   2.583   3.641 -0.2998 -2.4001  1.6578
25782SOL    HW287277   9.208   2.556   3.568 -0.2536  1.5235 -0.1285
25783SOL     OW87278   6.078   7.640   5.334 -0.0253 -0.4873 -0.0361
25783SOL    HW187279   6.061   7.730   5.364 -0.9725 -1.3989  2.3413
25783SOL    HW287280   5.993   7.597   5.336  0.4880 -1.5824 -0.7357
25784SOL     OW87281   5.779   7.355   3.772  0.1201  0.0405 -0.6244
25784SOL    HW187282   5.721   7.377   3.845 -0.4902  0.2369 -1.1534
25784SOL    HW287283   5.720   7.319   3.705  0.8621 -1.5398 -0.4635
25785SOL     OW87284  10.422   6.957  12.416 -0.0479 -0.4879 -0.9800
25785SOL    HW187285  10.360   6.984  12.349  0.0127 -1.1778 -1.3277
25785SOL    HW287286  10.428   7.031  12.476 -0.9476 -0.2954 -1.1272
25786SOL     OW87287   3.795   4.128   1.592 -0.0402  0.4525  0.5881
25786SOL    HW187288   3.722   4.190   1.594 -0.6298 -0.1901 -0.3300
25786SOL    HW287289   3.870   4.177   1.627 -0.5712  1.5727  0.1793
25787SOL     OW87290   5.559   2.233   0.158  0.3252  0.7183 -0.5723
25787SOL    HW187291   5.493   2.258   0.093 -1.8946  1.2651  1.7451
25787SOL    HW287292   5.598   2.316   0.186 -2.2040  1.1542  2.1690
25788SOL     OW87293   0.260   9.543   7.000  0.0960  0.1617  0.8561
25788SOL    HW187294   0.338   9.552   7.054 -1.2601  0.5189  2.8409
25788SOL    HW287295   0.253   9.449   6.982  0.6098  0.0535  1.1975
25789SOL     OW87296  10.818   1.564  11.042 -0.0523 -0.2223  0.1320
25789SOL    HW187297  10.845   1.587  10.953 -0.4361 -2.0554 -0.4992
25789SOL    HW287298  10.724   1.579  11.043  0.3752  3.1365  1.3653
25790SOL     OW87299   4.230   3.118  11.793  0.2784  0.2271 -0.2099
25790SOL    HW187300   4.143   3.094  11.824  1.1486 -0.5292  1.8006
25790SOL    HW287301   4.215   3.151  11.704 -2.1304  0.8113  0.3347
25791SOL     OW87302   1.343  13.183  11.228  0.3652  0.3063 -0.4778
25791SOL    HW187303   1.387  13.235  11.296  2.1417 -2.4150  0.6165
25791SOL    HW287304   1.258  13.162  11.266  0.2552  1.0668 -0.2763
25792SOL     OW87305   5.372   0.212   9.502 -0.3793  0.2277 -0.1854
25792SOL    HW187306   5.385   0.145   9.435  0.3944  0.9188 -0.7452
25792SOL    HW287307   5.292   0.258   9.475 -0.6052 -0.1131 -0.1006
25793SOL     OW87308   2.391   4.684   9.107  0.3202 -0.1606 -0.0950
25793SOL    HW187309   2.344   4.601   9.110  1.5011 -0.8479  0.0329
25793SOL    HW287310   2.323   4.750   9.095 -0.7017 -1.0788  0.5119
25794SOL     OW87311  12.803   9.952   1.140  0.1558 -0.0155  0.1134
25794SOL    HW187312  12.710   9.945   1.121  0.0974  0.2383  0.2953
25794SOL    HW287313  12.823  10.045   1.128  0.2912  0.0047  0.4842
25795SOL     OW87314   3.765  13.014   0.050 -0.4058 -0.6825 -0.2108
25795SOL    HW187315   3.756  12.941   0.110  0.5626  0.5629  1.5437
25795SOL    HW287316   3.727  13.089   0.096  1.1603  0.4950 -0.7258
25796SOL     OW87317  11.361   5.583   7.938 -0.6896 -0.8229  0.0695
25796SOL    HW187318  11.430   5.631   7.891 -0.4088  0.2393  1.5127
25796SOL    HW287319  11.335   5.641   8.009 -2.5697 -1.5317  0.0135
25797SOL     OW87320   0.107   3.952   8.250 -0.8321 -0.8168 -0.0386
25797SOL    HW187321   0.087   3.861   8.270 -3.3337 -0.6808 -1.5458
25797SOL    HW287322   0.027   3.987   8.212  0.3504  1.7774 -0.3851
25798SOL     OW87323   9.199   8.181   1.448 -0.1506  0.2329  0.2570
25798SOL    HW187324   9.290   8.188   1.475  0.6902  0.7485 -2.3872
25798SOL    HW287325   9.182   8.262   1.400 -0.7805 -1.3486 -2.4055
25799SOL     OW87326   4.541   9.486   2.962 -0.2311 -0.1719  0.3463
25799SOL    HW187327   4.577   9.419   2.904 -3.6427  0.9683 -3.5508
25799SOL    HW287328   4.464   9.445   3.001 -1.1973  0.7394 -0.5139
25800SOL     OW87329   4.158   4.629   1.194  0.2053 -0.3766  0.4046
25800SOL    HW187330   4.154   4.712   1.241 -0.9753 -0.6127  0.7483
25800SOL    HW287331   4.150   4.562   1.262 -0.9321 -0.7263 -0.0586
25801SOL     OW87332   5.940   5.013   7.440  0.0261  0.6620 -0.4237
25801SOL    HW187333   5.845   5.017   7.426  0.1239  1.2889 -0.9696
25801SOL    HW287334   5.975   5.088   7.391  0.8966 -0.1218 -1.0578
25802SOL     OW87335   4.335   3.116   3.984 -0.2676 -0.3093 -0.7088
25802SOL    HW187336   4.273   3.104   4.056 -0.2070  1.2373 -0.3595
25802SOL    HW287337   4.360   3.208   3.990  0.1735 -0.3003 -2.3741
25803SOL     OW87338  11.895   9.220   4.552 -0.4639 -0.0633 -0.1581
25803SOL    HW187339  11.941   9.197   4.471  1.2754 -2.2307  1.3101
25803SOL    HW287340  11.927   9.307   4.575  1.5987 -0.7697 -0.1465
25804SOL     OW87341   5.576   4.799   3.317  0.1678  1.0770 -0.3459
25804SOL    HW187342   5.662   4.805   3.275  0.4073  0.0157 -0.0295
25804SOL    HW287343   5.576   4.714   3.361 -1.2498  0.8076 -0.7963
25805SOL     OW87344   8.693   6.470  13.125  0.4742 -0.0540 -0.3593
25805SOL    HW187345   8.623   6.406  13.119  1.4651 -1.1378 -0.7505
25805SOL    HW287346   8.758   6.441  13.061  1.1666  1.0669 -0.1979
25806SOL     OW87347   5.261   1.197   6.046 -0.2145 -0.1681  0.1152
25806SOL    HW187348   5.251   1.240   6.131  1.7650 -1.7753  1.2441
25806SOL    HW287349   5.256   1.268   5.983 -0.4361  1.2570  1.6532
25807SOL     OW87350   5.143   9.620   7.446 -0.2602 -0.0442 -0.6607
25807SOL    HW187351   5.238   9.631   7.449 -0.2843  0.5615 -1.6671
25807SOL    HW287352   5.114   9.628   7.537  0.6431 -0.1830 -0.3555
25808SOL     OW87353  12.482  11.972   1.974  0.1326  0.5326 -0.3584
25808SOL    HW187354  12.484  11.876   1.977 -0.2821  0.5431  1.0901
25808SOL    HW287355  12.572  11.998   1.957  0.5165 -0.1000  0.6533
25809SOL     OW87356  12.630  10.831   3.147  0.3132  0.2780  0.6424
25809SOL    HW187357  12.598  10.741   3.157 -0.7731  0.7418  1.7324
25809SOL    HW287358  12.551  10.884   3.152  0.7380  1.2215 -1.7629
25810SOL     OW87359  12.796   7.028   7.805  0.1298 -0.1275 -0.1745
25810SOL    HW187360  12.766   7.115   7.832 -0.9651 -0.6490  0.3355
25810SOL    HW287361  12.721   6.988   7.762  0.3084 -1.1818  0.4470
25811SOL     OW87362   7.843   7.354   9.456 -0.6021 -0.2607 -1.1205
25811SOL    HW187363   7.761   7.397   9.480 -0.3775 -1.3507  2.0097
25811SOL    HW287364   7.821   7.261   9.455  0.5772 -0.5693 -0.1601
25812SOL     OW87365   5.061   5.910   3.499  0.8547 -0.4292  0.2512
25812SOL    HW187366   4.983   5.856   3.493  1.2303 -0.8089 -2.1182
25812SOL    HW287367   5.132   5.848   3.515  0.8653 -0.2306  1.0200
25813SOL     OW87368   2.369   3.976  12.766  0.9821  0.2316 -0.2112
25813SOL    HW187369   2.448   3.998  12.814  0.7152  0.4153  0.1534
25813SOL    HW287370   2.327   3.907  12.817  1.1182 -0.1666 -0.6276
25814SOL     OW87371   7.344   7.728   4.371  0.0467  0.0187  0.1849
25814SOL    HW187372   7.327   7.810   4.323 -0.3709 -0.4183 -0.4275
25814SOL    HW287373   7.260   7.706   4.411  0.2316  0.0364  0.5816
25815SOL     OW87374   4.160   0.786   0.314 -0.1618  0.6946  0.7274
25815SOL    HW187375   4.064   0.777   0.310  0.0167 -1.5053  0.0001
25815SOL    HW287376   4.177   0.812   0.405 -1.4203  0.5940  1.0205
25816SOL     OW87377   5.000   7.150   0.597  0.4627  0.5565  0.1478
25816SOL    HW187378   5.054   7.227   0.580  0.7829  0.3531  0.2372
25816SOL    HW287379   4.912   7.185   0.609  0.2139  0.7303 -1.8289
25817SOL     OW87380  10.857  11.646   7.576 -0.2591  0.3512 -0.2741
25817SOL    HW187381  10.785  11.707   7.563  1.4524  2.8586  1.1522
25817SOL    HW287382  10.827  11.589   7.647 -1.6308 -0.0999 -1.1723
25818SOL     OW87383   7.414   2.587   4.266 -0.0730 -0.3912  0.3000
25818SOL    HW187384   7.447   2.575   4.356  0.3799 -1.5586 -0.0093
25818SOL    HW287385   7.485   2.556   4.210  0.2886  1.8108 -0.5379
25819SOL     OW87386   3.029   4.276   0.819 -0.1225 -0.1263  0.0590
25819SOL    HW187387   3.062   4.279   0.909  2.6575  1.0215 -0.8783
25819SOL    HW287388   3.005   4.367   0.800 -0.0487 -0.2274 -0.5407
25820SOL     OW87389   1.709   1.433  12.931  0.0161  0.3892  0.4071
25820SOL    HW187390   1.667   1.358  12.889  2.4978 -0.8905 -0.0005
25820SOL    HW287391   1.699   1.505  12.869  1.2335 -0.7622 -1.2134
25821SOL     OW87392   7.455   9.842  10.671 -0.3052  0.1740  0.0826
25821SOL    HW187393   7.428   9.797  10.752 -0.6197 -2.0641 -1.1771
25821SOL    HW287394   7.515   9.781  10.629 -0.3073  1.1990 -1.4769
25822SOL     OW87395   9.528  10.156   0.261  0.4928 -0.2849 -0.2914
25822SOL    HW187396   9.587  10.137   0.189  0.8382 -0.9583  0.1614
25822SOL    HW287397   9.566  10.111   0.336 -0.3894 -0.4208  0.0907
25823SOL     OW87398   3.998   2.678   0.764  0.4068  0.1384  0.2351
25823SOL    HW187399   4.000   2.696   0.858  0.5790 -1.8796  0.6475
25823SOL    HW287400   4.082   2.635   0.746 -0.3627 -1.1055 -0.4765
25824SOL     OW87401   4.808   7.289   1.958  0.1740  0.2026 -0.3465
25824SOL    HW187402   4.753   7.213   1.939  0.0514  0.1495  0.2066
25824SOL    HW287403   4.894   7.252   1.977  0.0300  0.1715  0.2641
25825SOL     OW87404   5.420   9.738   9.540  0.0136 -0.7961  0.5972
25825SOL    HW187405   5.489   9.701   9.486  0.5533 -0.1479  0.8286
25825SOL    HW287406   5.410   9.676   9.612  1.0726 -0.3986  1.1112
25826SOL     OW87407   9.305   0.362  11.345 -0.3372  0.0604  0.2499
25826SOL    HW187408   9.328   0.309  11.421 -0.3024  0.4538  0.5145
25826SOL    HW287409   9.361   0.328  11.275  0.4355  0.4217  0.6718
25827SOL     OW87410   6.099  12.523   1.069 -0.5168 -0.0606  0.0618
25827SOL    HW187411   6.011  12.522   1.106 -0.7852 -0.9508 -0.5641
25827SOL    HW287412   6.103  12.605   1.019 -1.7895 -0.9941 -1.6961
25828SOL     OW87413   8.035   8.427   1.453 -0.0186 -0.1609 -0.5337
25828SOL    HW187414   8.012   8.518   1.429  1.9011  0.8654  1.2480
25828SOL    HW287415   8.131   8.426   1.454  0.0141 -1.4755  2.0289
25829SOL     OW87416  10.496   1.925   3.515 -0.4021 -0.1715 -0.0994
25829SOL    HW187417  10.499   1.896   3.607 -1.4175  1.0262  0.3334
25829SOL    HW287418  10.527   2.015   3.518  0.8130 -0.5290 -1.1450
25830SOL     OW87419   0.617   1.438   8.000 -0.1993  0.3505 -0.6873
25830SOL    HW187420   0.712   1.442   8.013 -0.1977  0.3894 -0.7104
25830SOL    HW287421   0.595   1.346   8.011  0.0346  0.1231 -1.9824
25831SOL     OW87422   1.593   9.662  10.613  0.4174  0.1965 -0.2151
25831SOL    HW187423   1.535   9.610  10.557  2.3621 -1.2399 -1.0274
25831SOL    HW287424   1.635   9.724  10.553  1.5763 -0.4991 -0.1439
25832SOL     OW87425   6.115   3.064   6.525  0.2984 -0.4148  0.1750
25832SOL    HW187426   6.076   3.016   6.452 -0.4996  1.2939 -0.5774
25832SOL    HW287427   6.097   3.010   6.602 -1.9577 -0.5912 -0.4088
25833SOL     OW87428   8.654   7.627   8.946  0.7149  0.4875  0.3673
25833SOL    HW187429   8.689   7.550   8.901  1.1175  0.6392  0.4239
25833SOL    HW287430   8.581   7.655   8.890  1.1549  0.6233 -0.1518
25834SOL     OW87431   9.004   3.021   0.658 -0.0819  0.3610 -0.3141
25834SOL    HW187432   9.088   3.065   0.650  0.2674 -0.4276 -0.9928
25834SOL    HW287433   8.945   3.089   0.694  1.0965  0.5911  1.3172
25835SOL     OW87434   4.082  11.667   2.417  0.4221  0.1241 -0.5632
25835SOL    HW187435   4.119  11.640   2.501  1.9198 -2.8991 -2.0292
25835SOL    HW287436   4.149  11.724   2.379  0.5587  0.0380 -0.4538
25836SOL     OW87437  10.646   2.352   2.757 -1.1136 -0.4828 -0.0131
25836SOL    HW187438  10.576   2.414   2.736 -0.3438  0.8059  1.1378
25836SOL    HW287439  10.660   2.304   2.675 -1.3876  1.2111 -1.1065
25837SOL     OW87440   9.614  12.786  12.953  0.4115  0.2768  0.2450
25837SOL    HW187441   9.568  12.866  12.978 -4.0942 -2.1373  0.7211
25837SOL    HW287442   9.641  12.747  13.036  3.1000  1.3662 -0.0081
25838SOL     OW87443   8.992   4.147  11.257 -0.3926  0.1113 -0.1180
25838SOL    HW187444   8.970   4.122  11.347 -0.7185 -0.0356 -0.2338
25838SOL    HW287445   9.087   4.134  11.250 -0.4906 -0.6696 -0.0376
25839SOL     OW87446   2.383  12.618   6.205  0.2616 -0.1295 -0.2522
25839SOL    HW187447   2.304  12.660   6.171 -0.3024 -1.3206 -0.4438
25839SOL    HW287448   2.418  12.682   6.268 -2.6191 -0.8443  2.3033
25840SOL     OW87449   5.766   3.876  12.402  0.0606 -0.0105  0.2255
25840SOL    HW187450   5.848   3.888  12.352  0.1039 -1.5630 -0.1279
25840SOL    HW287451   5.697   3.899  12.340  0.1542 -0.9421 -0.2361
25841SOL     OW87452   5.199   4.339   0.517 -0.0063 -0.3748 -0.6733
25841SOL    HW187453   5.173   4.431   0.518  1.9414  0.2616 -2.0339
25841SOL    HW287454   5.218   4.318   0.609  0.3096  0.8362 -0.4440
25842SOL     OW87455   0.463   4.431  10.793 -0.2154 -0.3858  0.0922
25842SOL    HW187456   0.551   4.395  10.800  0.0899 -0.0547 -1.7184
25842SOL    HW287457   0.420   4.376  10.727 -1.2144 -0.2355  0.6015
25843SOL     OW87458  10.157   1.383   4.148 -0.6896 -0.3779  0.3269
25843SOL    HW187459  10.113   1.298   4.144  0.9038 -1.1974 -1.8438
25843SOL    HW287460  10.227   1.371   4.211 -2.5276  0.4850  2.6788
25844SOL     OW87461   1.411   9.894   8.710 -0.3239  0.1427 -0.3792
25844SOL    HW187462   1.372   9.980   8.692 -2.1483 -0.6462 -0.4520
25844SOL    HW287463   1.339   9.832   8.698  0.3488 -1.2017  1.8545
25845SOL     OW87464   1.338   7.026  13.078  0.1953  0.0143 -0.2081
25845SOL    HW187465   1.342   7.051  12.985 -0.3595  0.1897 -0.1891
25845SOL    HW287466   1.424   7.051  13.113  1.0310 -1.5660 -1.0313
25846SOL     OW87467   1.187   6.731  11.152 -0.5108 -0.0783  0.3746
25846SOL    HW187468   1.239   6.811  11.162  0.2762 -0.5606  0.2639
25846SOL    HW287469   1.246   6.661  11.181 -0.7377 -0.7531 -0.7439
25847SOL     OW87470   8.762   3.427   2.775 -0.1797 -0.1883 -0.0251
25847SOL    HW187471   8.745   3.514   2.737 -1.0663 -0.5673 -0.5150
25847SOL    HW287472   8.676   3.393   2.798  0.1509 -0.9929  0.0633
25848SOL     OW87473   9.360   5.946   1.175  0.2580 -0.3996  0.0869
25848SOL    HW187474   9.331   5.905   1.257  0.5973 -1.1234 -0.1454
25848SOL    HW287475   9.436   5.998   1.201 -1.7193  2.3078  0.8871
25849SOL     OW87476   5.683   9.842  11.806  0.4159 -0.0187  0.3036
25849SOL    HW187477   5.673   9.776  11.738  2.7406  0.9108 -1.0626
25849SOL    HW287478   5.698   9.792  11.886 -0.4768 -1.1337 -0.1971
25850SOL     OW87479   9.755   4.933  11.956 -0.6761 -0.4753 -0.1689
25850SOL    HW187480   9.724   4.953  11.868 -1.6654 -1.4359 -0.0531
25850SOL    HW287481   9.711   4.851  11.979  0.0003 -0.5236  1.0022
25851SOL     OW87482   3.205   8.252   0.054 -0.2770 -0.0508  0.3648
25851SOL    HW187483   3.153   8.211  -0.015 -1.1864 -0.1327  1.0790
25851SOL    HW287484   3.201   8.346   0.035  0.0101 -0.1216 -0.0526
25852SOL     OW87485  11.664   8.052   9.991 -0.3671  0.0868  0.5708
25852SOL    HW187486  11.686   8.130  10.042 -0.0782 -1.2747  2.6374
25852SOL    HW287487  11.575   8.029  10.018 -0.6996  0.0337 -0.5082
25853SOL     OW87488   7.192   7.836   5.958  0.3943 -0.8018 -0.3507
25853SOL    HW187489   7.166   7.757   5.909 -0.4010 -1.7396  1.4952
25853SOL    HW287490   7.248   7.884   5.897 -0.6234 -1.8489 -2.2180
25854SOL     OW87491   6.134  12.097   5.767  0.1816  0.0483  0.6817
25854SOL    HW187492   6.183  12.173   5.797 -1.2930  0.7614  1.3616
25854SOL    HW287493   6.184  12.065   5.691  1.4381  0.9912  1.0762
25855SOL     OW87494   4.244   3.721   6.835 -0.1684  0.2051  0.2512
25855SOL    HW187495   4.211   3.679   6.755  0.0806 -1.5995  1.0585
25855SOL    HW287496   4.339   3.710   6.831 -0.0721  0.8906  0.4034
25856SOL     OW87497  12.289  12.080  11.495  1.0760 -0.1703 -0.1514
25856SOL    HW187498  12.259  11.998  11.455 -0.0782 -1.0301  2.3133
25856SOL    HW287499  12.209  12.132  11.505  1.9136  1.8311 -2.6498
25857SOL     OW87500   9.903   6.479   1.578  0.8920 -0.1034  0.1918
25857SOL    HW187501   9.865   6.550   1.526 -0.9761 -1.6799 -0.7076
25857SOL    HW287502   9.864   6.491   1.665  1.5088  0.6511  0.3722
25858SOL     OW87503   9.299   1.592   6.197  0.2922 -0.5772  0.6300
25858SOL    HW187504   9.313   1.531   6.270 -2.0661 -1.4615  0.4375
25858SOL    HW287505   9.289   1.677   6.238  0.2243 -0.8657  1.2163
25859SOL     OW87506   1.501   8.722   7.371  0.2082  0.1218 -0.3489
25859SOL    HW187507   1.535   8.705   7.283  0.5753  2.6830 -0.8047
25859SOL    HW287508   1.562   8.677   7.430 -1.0532 -3.1437 -1.3727
25860SOL     OW87509  12.151   1.115   5.017 -0.4760  0.5304 -0.5930
25860SOL    HW187510  12.206   1.042   5.045 -1.3577  0.0755  0.0306
25860SOL    HW287511  12.115   1.088   4.933 -1.1752  0.0125 -0.1445
25861SOL     OW87512   5.953   8.563  10.183  0.0663 -0.2863  0.3788
25861SOL    HW187513   6.017   8.494  10.166  1.0180  0.3093  1.4163
25861SOL    HW287514   5.922   8.589  10.096  2.4711  0.5625 -0.2956
25862SOL     OW87515   7.175   7.692  11.760  0.2254  0.3909  0.0355
25862SOL    HW187516   7.269   7.709  11.749  0.1075  1.2514  0.2901
25862SOL    HW287517   7.164   7.677  11.854  0.6046 -3.0510 -0.3325
25863SOL     OW87518  12.715   1.381   7.747 -0.0930  0.0968  0.1112
25863SOL    HW187519  12.627   1.406   7.719 -1.2946 -1.9890  1.7267
25863SOL    HW287520  12.751   1.460   7.788 -2.2284  0.3699  1.6208
25864SOL     OW87521  13.031   3.419   2.324 -0.8012  0.1556  0.6223
25864SOL    HW187522  12.942   3.427   2.290  0.1560 -1.4063 -2.6173
25864SOL    HW287523  13.070   3.505   2.312 -1.8751  0.9564  2.3937
25865SOL     OW87524   7.365   1.848   4.543 -0.2964 -0.1959  0.0376
25865SOL    HW187525   7.456   1.824   4.563 -0.5696  0.4631  2.2104
25865SOL    HW287526   7.349   1.928   4.592 -1.6692  0.4455 -1.3786
25866SOL     OW87527   7.554   6.348  11.183  0.4606  0.3119 -0.1494
25866SOL    HW187528   7.488   6.332  11.115 -0.8331 -1.1905  1.3503
25866SOL    HW287529   7.633   6.371  11.135 -0.7330  0.5869 -2.0966
25867SOL     OW87530   0.159   6.623  12.330  0.2059 -0.1820 -0.3822
25867SOL    HW187531   0.068   6.640  12.308 -0.4493 -2.2582  0.5277
25867SOL    HW287532   0.209   6.684  12.274 -1.6668  0.3256 -1.5885
25868SOL     OW87533   5.311   6.568   8.902 -0.4703  0.0061  0.5636
25868SOL    HW187534   5.311   6.493   8.843  0.5363  0.1062  0.4163
25868SOL    HW287535   5.357   6.538   8.980 -1.0009  0.1475  0.9347
25869SOL     OW87536   1.487   7.065   0.830 -0.0409 -0.6921  0.0237
25869SOL    HW187537   1.418   7.071   0.896 -0.6532 -0.3229 -0.6360
25869SOL    HW287538   1.525   7.153   0.828 -0.6246 -0.4471 -0.7425
25870SOL     OW87539   1.348   2.820   5.960 -0.1489  0.2643  0.2816
25870SOL    HW187540   1.368   2.907   5.926  0.6806 -0.8849 -2.4387
25870SOL    HW287541   1.298   2.837   6.040 -0.8771  3.2338 -0.6544
25871SOL     OW87542   6.031   9.874  10.862 -0.0018 -0.2881  0.0388
25871SOL    HW187543   6.102   9.870  10.927  1.4834  0.6139 -1.4410
25871SOL    HW287544   6.027   9.967  10.837  1.2827 -0.9396 -2.9982
25872SOL     OW87545   1.061   6.257   0.994 -0.1161  0.1825  0.2891
25872SOL    HW187546   1.083   6.182   1.049 -0.0322  0.5463  0.7584
25872SOL    HW287547   1.015   6.219   0.919 -2.3321 -0.1242  1.7105
25873SOL     OW87548  11.042   5.354  11.112 -0.1914 -0.1299 -0.3836
25873SOL    HW187549  11.049   5.380  11.203  2.1080 -1.9969  0.0935
25873SOL    HW287550  11.130   5.366  11.076 -1.0953  0.8214 -2.4697
25874SOL     OW87551  12.407  13.006  12.289  0.6270  0.2531  0.1612
25874SOL    HW187552  12.461  12.929  12.301  0.9053  0.3440 -0.5090
25874SOL    HW287553  12.456  13.061  12.228  1.0320  1.5264  1.5692
25875SOL     OW87554   5.675   2.249  10.840  0.5061 -0.0175 -0.1077
25875SOL    HW187555   5.723   2.329  10.863  1.5219 -1.0353  1.4702
25875SOL    HW287556   5.603   2.244  10.902 -0.0191  0.0542 -0.6985
25876SOL     OW87557   1.509   4.817  10.895  0.4815  0.3298 -0.5805
25876SOL    HW187558   1.516   4.724  10.873  0.3154  0.1155  0.2465
25876SOL    HW287559   1.589   4.856  10.860  0.6702 -0.1634 -0.7047
25877SOL     OW87560   6.057  13.140   4.942  0.2012  0.1694 -0.3691
25877SOL    HW187561   5.979  13.195   4.935 -0.9852 -1.1019  1.7027
25877SOL    HW287562   6.093  13.161   5.028  0.2404 -1.6050  0.0744
25878SOL     OW87563   8.109   7.160   2.303  0.2699 -0.2872  0.2035
25878SOL    HW187564   8.086   7.068   2.312 -0.1209 -0.1411  0.8096
25878SOL    HW287565   8.203   7.164   2.318  0.2204 -0.5399  0.5955
25879SOL     OW87566   8.314  10.352   7.857 -0.1562 -0.1850  0.2950
25879SOL    HW187567   8.347  10.316   7.939 -0.2833 -0.5608  0.1858
25879SOL    HW287568   8.361  10.304   7.789  0.9263  1.0609  0.1428
25880SOL     OW87569   3.566   3.396   8.104 -0.2792 -0.2185 -0.1147
25880SOL    HW187570   3.472   3.411   8.095 -0.7876 -2.7946  0.1977
25880SOL    HW287571   3.574   3.328   8.170  1.8600  0.3019  0.2373
25881SOL     OW87572   6.340   6.510   0.995 -0.2869  0.2199  0.4099
25881SOL    HW187573   6.418   6.485   0.946 -1.1251 -2.2956  0.2147
25881SOL    HW287574   6.369   6.581   1.052  1.3344  1.5245 -1.8855
25882SOL     OW87575   9.481   2.898  10.430 -0.5582  0.1558 -0.7291
25882SOL    HW187576   9.541   2.864  10.496  1.3293  1.8578 -1.4775
25882SOL    HW287577   9.409   2.935  10.481  0.5600  0.9027  0.3673
25883SOL     OW87578   5.052  12.367   5.912  0.0582  0.0552  0.1474
25883SOL    HW187579   5.062  12.354   5.817 -0.5522 -2.4379  0.3545
25883SOL    HW287580   5.135  12.339   5.949  0.8164  2.3284  0.3375
25884SOL     OW87581   5.060   0.588   3.223 -0.4381  0.0846  0.0875
25884SOL    HW187582   5.128   0.654   3.210 -0.8257  0.4653 -0.0267
25884SOL    HW287583   5.018   0.580   3.137  0.5759 -1.4097 -0.3050
25885SOL     OW87584   4.976   9.382  10.721  0.3380  0.2388  0.6373
25885SOL    HW187585   4.928   9.443  10.778  0.4404  1.1184 -0.1877
25885SOL    HW287586   5.034   9.438  10.670 -1.7703 -0.0941 -2.4397
25886SOL     OW87587   8.811   1.188   1.219  0.2849  0.2409 -0.2966
25886SOL    HW187588   8.784   1.176   1.128 -1.5911 -1.6938  0.4376
25886SOL    HW287589   8.874   1.118   1.236 -0.5935 -0.4284  0.3057
25887SOL     OW87590   2.372  11.522   0.105  0.0768 -0.1562 -0.3646
25887SOL    HW187591   2.377  11.438   0.059 -1.3444 -0.0854 -0.7003
25887SOL    HW287592   2.366  11.498   0.198  3.5176 -0.2873 -0.0479
25888SOL     OW87593   2.669   6.799  10.482  0.5725 -0.5734  0.0810
25888SOL    HW187594   2.693   6.737  10.551 -1.7412 -1.5290  0.0990
25888SOL    HW287595   2.706   6.882  10.512 -1.0729 -0.7580  2.9990
25889SOL     OW87596  10.112  11.767   4.200  0.4196 -0.1736  0.0809
25889SOL    HW187597  10.070  11.779   4.115  1.2561  1.0219 -0.1780
25889SOL    HW287598  10.039  11.767   4.263 -0.0633  0.7128 -0.4645
25890SOL     OW87599   2.342   2.643  10.087 -0.2832 -0.5059 -0.1229
25890SOL    HW187600   2.314   2.699  10.014  0.1133 -1.0117 -0.6748
25890SOL    HW287601   2.333   2.698  10.164 -3.1684 -0.7382 -0.1957
25891SOL     OW87602   8.011   8.491   4.498  1.1596 -0.2548 -0.0396
25891SOL    HW187603   8.057   8.410   4.480 -1.0862 -1.4158 -0.9935
25891SOL    HW287604   7.952   8.502   4.424  0.8939  1.8901  0.4174
25892SOL     OW87605  12.612   6.124   9.742  0.0297 -0.1890 -0.6988
25892SOL    HW187606  12.573   6.108   9.828  0.5897  0.5380 -0.3020
25892SOL    HW287607  12.684   6.060   9.737  0.6209  0.4178 -0.2016
25893SOL     OW87608  10.822   8.286   0.160 -0.2686 -0.2526  0.0954
25893SOL    HW187609  10.842   8.377   0.139  0.0774 -0.2770  0.3067
25893SOL    HW287610  10.863   8.272   0.246 -3.2115  0.4176  1.7678
25894SOL     OW87611   1.330   3.256   5.116  0.0858 -0.6386  0.0759
25894SOL    HW187612   1.306   3.267   5.208  2.3503  0.8274  0.5742
25894SOL    HW287613   1.371   3.169   5.113  3.6229  0.7889  1.4654
25895SOL     OW87614   1.230   8.233   9.429  0.2960 -0.1103 -0.7022
25895SOL    HW187615   1.212   8.315   9.384 -0.4215  1.0349  1.5279
25895SOL    HW287616   1.150   8.182   9.420 -0.2768  0.5983  0.2151
25896SOL     OW87617   5.488   0.981   8.406  0.2335 -0.0216  0.0824
25896SOL    HW187618   5.469   0.955   8.316  1.0742  2.0099 -0.7516
25896SOL    HW287619   5.420   0.939   8.458 -0.6255 -0.7759 -1.5643
25897SOL     OW87620   6.360   3.686   8.523 -0.6036 -0.3476  0.1611
25897SOL    HW187621   6.432   3.693   8.459 -0.0207 -0.6135  0.7780
25897SOL    HW287622   6.287   3.651   8.472 -0.9320  1.7754 -0.9574
25898SOL     OW87623  11.995   8.842   4.082  0.5112  0.7842 -0.5532
25898SOL    HW187624  12.077   8.880   4.113  0.9958 -0.2677 -0.4927
25898SOL    HW287625  12.022   8.771   4.024 -0.3742  1.1423 -1.4232
25899SOL     OW87626   6.741   5.145   4.659  0.1242  0.2354  0.0789
25899SOL    HW187627   6.694   5.069   4.694  0.7976 -1.1121 -1.7677
25899SOL    HW287628   6.812   5.107   4.608  0.8141  2.1492 -0.4640
25900SOL     OW87629   8.509   1.612   1.800 -0.1817 -0.3161  0.8128
25900SOL    HW187630   8.461   1.546   1.749  0.4545 -0.7973  0.8204
25900SOL    HW287631   8.513   1.576   1.888  0.0635 -0.2108  0.8453
25901SOL     OW87632   0.299  12.728   4.266  0.1131 -0.5445  0.3004
25901SOL    HW187633   0.300  12.692   4.177  2.1163  1.4201 -0.5691
25901SOL    HW287634   0.218  12.778   4.271  0.1225 -0.4207 -0.5663
25902SOL     OW87635  10.957   4.591   1.902  0.6804  0.0085  0.4669
25902SOL    HW187636  10.930   4.522   1.842  2.0324 -0.7181  0.6513
25902SOL    HW287637  11.007   4.545   1.970  0.3268  0.9853  1.4143
25903SOL     OW87638   8.913   0.493   0.805  0.0077 -0.1905 -0.0113
25903SOL    HW187639   8.876   0.581   0.808  0.1996 -0.0632 -0.9094
25903SOL    HW287640   8.873   0.447   0.878 -1.3689  0.1591 -0.5246
25904SOL     OW87641   2.161   5.216   3.099 -0.0897 -0.2664  1.2054
25904SOL    HW187642   2.119   5.276   3.161 -0.0048 -0.1675  1.1690
25904SOL    HW287643   2.130   5.129   3.124 -0.2781 -0.1993  1.2085
25905SOL     OW87644   0.059   7.386   5.059 -0.1593  0.7088 -0.6207
25905SOL    HW187645   0.128   7.334   5.099 -0.4118  0.5432 -0.4016
25905SOL    HW287646  -0.021   7.360   5.104 -0.7415 -0.7419 -2.3695
25906SOL     OW87647   2.953   1.636   1.710 -0.3126 -0.1027  0.0323
25906SOL    HW187648   3.031   1.617   1.763 -1.3075 -0.0294  1.5981
25906SOL    HW287649   2.980   1.706   1.652  1.4514 -1.6275 -1.0990
25907SOL     OW87650   7.138   5.351  11.784  0.5199 -0.2114 -0.1232
25907SOL    HW187651   7.100   5.295  11.852 -0.0500  1.5975  1.1342
25907SOL    HW287652   7.067   5.364  11.721  1.0543 -1.9080 -1.1352
25908SOL     OW87653  12.421  10.710  10.541  0.4620  0.3036  0.2492
25908SOL    HW187654  12.424  10.629  10.591  0.4356  0.5446  0.6456
25908SOL    HW287655  12.330  10.738  10.546 -0.6003 -1.8185 -3.4161
25909SOL     OW87656   5.696   7.622   2.677  0.5470 -0.4899  0.5793
25909SOL    HW187657   5.684   7.531   2.651 -0.4998  0.2871 -1.9842
25909SOL    HW287658   5.662   7.673   2.603  1.7653  1.9889  1.6054
25910SOL     OW87659   8.191   6.974   0.556  0.2536 -0.4531 -0.0448
25910SOL    HW187660   8.174   7.068   0.563  1.1989 -0.2869  0.1566
25910SOL    HW287661   8.204   6.946   0.647 -1.3337 -1.0457  0.0214
25911SOL     OW87662   1.822   9.903   6.012 -0.0756 -0.9091 -0.4407
25911SOL    HW187663   1.731   9.889   5.988 -0.8926  1.9634  0.6046
25911SOL    HW287664   1.823   9.896   6.108  0.0809  2.0104 -0.1338
25912SOL     OW87665  12.368   0.620   8.262 -0.5060 -0.2369 -0.4719
25912SOL    HW187666  12.414   0.657   8.338  2.1446  1.0737 -2.5090
25912SOL    HW287667  12.281   0.658   8.266 -0.7957 -0.9623  2.3629
25913SOL     OW87668   2.808   2.670   7.346 -0.1087  0.5054 -0.3526
25913SOL    HW187669   2.876   2.664   7.414 -0.3404 -0.9660 -0.2106
25913SOL    HW287670   2.738   2.721   7.387  0.2368  0.6436  0.0809
25914SOL     OW87671  13.030   2.610   3.375 -0.7223  0.4481 -0.5661
25914SOL    HW187672  13.089   2.631   3.447 -1.9314 -0.0837  0.6117
25914SOL    HW287673  13.010   2.694   3.335 -1.5039  0.9900  0.9060
25915SOL     OW87674   2.275   8.866  10.793 -0.1500  0.0366 -0.4082
25915SOL    HW187675   2.235   8.914  10.720  0.0035  1.2874  0.2957
25915SOL    HW287676   2.251   8.917  10.871  1.2474 -0.2256  0.2207
25916SOL     OW87677   7.443   3.785   1.569 -0.0983 -0.1196 -0.3441
25916SOL    HW187678   7.388   3.707   1.562  0.1265 -0.4992  1.5463
25916SOL    HW287679   7.386   3.857   1.544 -0.4969 -0.8068 -1.4816
25917SOL     OW87680   1.566   3.380   5.675 -0.3105 -0.3585  0.4453
25917SOL    HW187681   1.494   3.442   5.675 -0.9129 -1.0364  0.8931
25917SOL    HW287682   1.589   3.369   5.582 -1.8642 -1.3437  0.1361
25918SOL     OW87683   5.073   1.348   1.843 -0.0804 -0.4140  0.6296
25918SOL    HW187684   5.079   1.302   1.927 -1.2841 -1.2364  0.2800
25918SOL    HW287685   4.981   1.372   1.835 -0.1303 -1.0072 -0.8095
25919SOL     OW87686   1.391   1.358  12.639 -0.1113  0.0906  0.1461
25919SOL    HW187687   1.451   1.307  12.585 -1.4682 -0.6700 -0.7095
25919SOL    HW287688   1.419   1.341  12.729  0.1098 -1.3562 -0.1762
25920SOL     OW87689   7.388   9.163  11.417 -0.1778  0.2932 -0.1995
25920SOL    HW187690   7.394   9.259  11.419  0.4545  0.3383 -2.4936
25920SOL    HW287691   7.469   9.134  11.376  0.7024 -1.4291  2.4601
25921SOL     OW87692   7.196   7.844   2.005  0.0332 -0.0258  0.5520
25921SOL    HW187693   7.161   7.760   2.034 -0.6440  0.7298  2.0374
25921SOL    HW287694   7.281   7.823   1.966 -0.5255 -1.4872  0.0762
25922SOL     OW87695   9.488  12.652   6.704  0.2189  0.3058 -0.1214
25922SOL    HW187696   9.457  12.682   6.789  0.4989 -0.0740  0.1183
25922SOL    HW287697   9.467  12.559   6.702  0.7312  0.1884 -0.2260
25923SOL     OW87698   7.352  12.301   5.952 -0.1502  0.2691 -0.1234
25923SOL    HW187699   7.410  12.270   6.022 -1.1017 -0.8314  0.2240
25923SOL    HW287700   7.289  12.357   5.996 -0.3189  0.1538 -0.2156
25924SOL     OW87701   1.704   5.228  12.450 -0.6950  0.0951  0.3422
25924SOL    HW187702   1.660   5.143  12.451  0.1901 -0.4566 -1.5875
25924SOL    HW287703   1.785   5.214  12.499 -0.3715 -0.3134 -0.2892
25925SOL     OW87704   8.141   9.911   6.835  0.0441 -0.3909 -0.7388
25925SOL    HW187705   8.114   9.829   6.876 -0.1544 -0.0806 -0.2440
25925SOL    HW287706   8.101   9.908   6.748 -2.0445  0.2533  0.1266
25926SOL     OW87707  11.191   6.908   3.362 -0.3047  0.2085  0.1053
25926SOL    HW187708  11.247   6.866   3.427  0.5552 -1.8303 -1.8330
25926SOL    HW287709  11.250   6.934   3.292 -1.3900  0.9070 -0.5826
25927SOL     OW87710   6.768  10.041  10.754  0.3761  0.3193 -0.0910
25927SOL    HW187711   6.809  10.101  10.693  0.2252 -0.3469 -0.8710
25927SOL    HW287712   6.841   9.998  10.799  0.5621 -0.5611 -1.1779
25928SOL     OW87713   0.644  12.603   6.286 -0.6090 -0.4454 -0.4848
25928SOL    HW187714   0.735  12.585   6.308 -0.8250  0.0545  0.9748
25928SOL    HW287715   0.633  12.697   6.303 -1.0581 -0.2100 -1.9642
25929SOL     OW87716   9.123  12.975   7.317  0.0486 -0.0155 -0.8026
25929SOL    HW187717   9.196  13.037   7.318  1.6772 -1.8269 -0.6037
25929SOL    HW287718   9.078  12.991   7.235 -1.0333  2.9540  0.2549
25930SOL     OW87719  12.827   8.013   0.850 -0.8118  0.3187 -0.1191
25930SOL    HW187720  12.917   8.026   0.879 -0.3137 -2.4703 -0.1467
25930SOL    HW287721  12.791   7.948   0.910 -1.7884 -0.8680 -1.8845
25931SOL     OW87722   2.360   8.014   6.316 -0.2074 -0.0941 -0.4522
25931SOL    HW187723   2.455   8.008   6.323 -0.1861  0.5749 -0.1208
25931SOL    HW287724   2.344   8.100   6.277 -0.6332 -0.7096 -1.7054
25932SOL     OW87725   8.499  12.068  12.698  0.0284  0.0201 -0.6584
25932SOL    HW187726   8.519  12.162  12.691  0.5591 -0.1653 -2.1445
25932SOL    HW287727   8.535  12.042  12.782 -1.5350  1.4604  0.5117
25933SOL     OW87728   8.657  11.197  13.301  0.5362  0.1106 -0.0563
25933SOL    HW187729   8.731  11.245  13.339  0.3087 -0.4075  1.0869
25933SOL    HW287730   8.685  11.106  13.301 -0.4362 -0.2080  1.2405
25934SOL     OW87731  11.389   9.122   1.003 -0.5377  0.1075 -0.2469
25934SOL    HW187732  11.313   9.086   1.049  1.2432 -0.9971  2.0733
25934SOL    HW287733  11.457   9.056   1.014  1.3521  1.9248 -0.3884
25935SOL     OW87734   4.364   3.665   7.570 -0.4420 -0.1283  0.0637
25935SOL    HW187735   4.278   3.707   7.572  0.4181  1.8831 -1.3217
25935SOL    HW287736   4.380   3.646   7.478  1.9918  2.9190 -0.3217
25936SOL     OW87737   7.973  12.944  12.738 -0.7782 -0.2964  0.5928
25936SOL    HW187738   8.026  12.866  12.750  3.4221  1.9721 -1.1240
25936SOL    HW287739   7.941  12.965  12.826 -0.6683 -2.9615  1.3510
25937SOL     OW87740   6.465   0.218   8.900 -0.8993  0.3372 -0.1299
25937SOL    HW187741   6.470   0.311   8.878 -1.3524  0.5650  0.6992
25937SOL    HW287742   6.374   0.203   8.924 -1.0036 -0.5046 -1.0079
25938SOL     OW87743   8.575   5.929   5.932  0.6698  0.4917  0.5887
25938SOL    HW187744   8.598   5.928   5.839 -2.9616  0.5926 -0.4339
25938SOL    HW287745   8.554   5.837   5.951  0.3271  0.6578  1.0019
25939SOL     OW87746   3.353  12.960  12.774  0.1227  0.0797 -0.6125
25939SOL    HW187747   3.349  13.047  12.735 -0.2741  0.1401 -0.4324
25939SOL    HW287748   3.429  12.919  12.732 -1.1485 -0.4103 -2.6016
25940SOL     OW87749  12.416   2.027   4.684 -0.8620 -0.0417 -0.3688
25940SOL    HW187750  12.361   1.955   4.715  0.1355 -1.2122 -1.2425
25940SOL    HW287751  12.382   2.104   4.730 -1.3129 -1.2188  1.3765
25941SOL     OW87752   2.011  10.853  10.309  0.0829  0.0162 -0.0236
25941SOL    HW187753   2.077  10.807  10.361 -0.5630  1.0302  1.7503
25941SOL    HW287754   1.940  10.789  10.298  0.1867 -0.1749  0.4032
25942SOL     OW87755   7.261  10.791   1.715  0.1808  0.2409  0.4165
25942SOL    HW187756   7.326  10.764   1.779 -0.1164  2.1974  1.6336
25942SOL    HW287757   7.188  10.824   1.768 -0.8151  0.2811 -0.9298
25943SOL     OW87758   8.454   0.146  11.691 -0.1679 -0.0676 -0.2813
25943SOL    HW187759   8.376   0.107  11.731 -0.4406 -0.0814 -0.8170
25943SOL    HW287760   8.507   0.176  11.765 -0.4407 -0.5196  0.1016
25944SOL     OW87761  11.190   2.399  11.535  0.4913  0.0059 -0.0430
25944SOL    HW187762  11.106   2.441  11.517  1.1705  0.6026 -2.0481
25944SOL    HW287763  11.178   2.308  11.506  1.0715  0.5576 -2.1628
25945SOL     OW87764   5.753  12.079   7.255  0.3587 -0.6031 -0.3270
25945SOL    HW187765   5.659  12.057   7.257  0.3707 -0.7123  2.2812
25945SOL    HW287766   5.797  11.997   7.276  0.8806 -0.0698  0.7557
25946SOL     OW87767   4.048  11.768   8.369  0.2824  0.7790 -0.6540
25946SOL    HW187768   4.060  11.759   8.463 -2.4519 -0.5372 -0.3430
25946SOL    HW287769   4.129  11.733   8.331  2.3584  3.2466  1.1149
25947SOL     OW87770   1.980  12.800   8.708 -0.1898  0.1258  0.7680
25947SOL    HW187771   2.070  12.767   8.716 -0.2218 -0.1653 -0.0286
25947SOL    HW287772   1.961  12.797   8.614 -0.9620  0.3843  0.9070
25948SOL     OW87773   0.377   3.662  11.545  0.1614  0.3828 -0.7265
25948SOL    HW187774   0.461   3.636  11.507  0.3427  1.1808 -0.8843
25948SOL    HW287775   0.337   3.579  11.571  2.1138  0.1121  1.8022
25949SOL     OW87776   2.693   4.938   4.911  0.2331 -0.0126  0.5048
25949SOL    HW187777   2.615   4.930   4.967  0.3734  0.2227  0.7351
25949SOL    HW287778   2.761   4.972   4.970  0.1017  1.2807 -0.0670
25950SOL     OW87779   7.192  11.139  11.419  0.2209  0.5436 -0.2059
25950SOL    HW187780   7.284  11.158  11.440 -0.0553  1.3870  0.2611
25950SOL    HW287781   7.190  11.136  11.323  0.6418  1.0059 -0.2315
25951SOL     OW87782   2.203   2.283   0.737  0.1270  0.1458 -0.3203
25951SOL    HW187783   2.240   2.205   0.696 -0.1459 -0.1587  0.0081
25951SOL    HW287784   2.278   2.339   0.755  0.4282 -0.4305  0.2613
25952SOL     OW87785   6.450  11.790   5.212  0.1739 -0.3377  0.0979
25952SOL    HW187786   6.413  11.843   5.282  0.3794  1.0789 -0.8329
25952SOL    HW287787   6.543  11.781   5.234  0.2619  0.2068 -0.0501
25953SOL     OW87788   5.633   7.284  13.171 -0.0022  0.7402 -0.3083
25953SOL    HW187789   5.665   7.336  13.244 -0.9344  0.8899 -0.0039
25953SOL    HW287790   5.540   7.270  13.189 -0.0911  0.1985 -1.1163
25954SOL     OW87791   4.163   4.475   6.630 -0.1048 -0.1564 -0.2897
25954SOL    HW187792   4.107   4.541   6.671  0.1970  0.4830 -0.8871
25954SOL    HW287793   4.109   4.438   6.561  0.1042  0.2687 -0.6885
25955SOL     OW87794   5.283   9.175   3.909 -0.1986  0.2886  0.3580
25955SOL    HW187795   5.254   9.093   3.868 -1.1068  0.1371  1.2516
25955SOL    HW287796   5.296   9.152   4.001  1.2584  0.7517  0.2777
25956SOL     OW87797  12.543   2.717   0.867 -0.1130  0.1285 -0.2799
25956SOL    HW187798  12.510   2.753   0.949  0.1857  2.7893 -1.2467
25956SOL    HW287799  12.465   2.693   0.817 -0.3131 -0.6825  0.3934
25957SOL     OW87800  12.248   4.660  12.535 -0.0854 -0.3094 -0.1691
25957SOL    HW187801  12.165   4.636  12.577  0.2221 -0.1054  0.5644
25957SOL    HW287802  12.286   4.727  12.592 -0.8994  1.9722 -2.1285
25958SOL     OW87803   0.261   2.664   4.960  0.0086 -0.2651  0.1276
25958SOL    HW187804   0.314   2.593   4.998 -0.2039  0.3414  1.6438
25958SOL    HW287805   0.173   2.648   4.996 -0.3771 -0.0933 -0.7359
25959SOL     OW87806   7.069   5.105   6.015  1.2498 -0.0255 -0.2831
25959SOL    HW187807   7.068   5.045   6.090  2.1604 -0.2203 -0.4156
25959SOL    HW287808   7.002   5.070   5.956  0.6893 -0.0071  0.3319
25960SOL     OW87809  10.522   5.569   4.239  0.5121 -0.3471 -0.5993
25960SOL    HW187810  10.519   5.520   4.156 -0.9385 -0.4746 -0.4902
25960SOL    HW287811  10.433   5.567   4.271  0.9900  0.0175  0.8085
25961SOL     OW87812   8.793   5.543  10.351 -0.1064  0.5502 -0.2016
25961SOL    HW187813   8.842   5.604  10.406  1.7874 -1.2024  0.1782
25961SOL    HW287814   8.833   5.458  10.368 -2.3786 -0.7627 -1.0144
25962SOL     OW87815   0.474   0.426   3.900  0.2139  0.0650  0.4535
25962SOL    HW187816   0.428   0.468   3.828  0.1042 -0.1739  0.3824
25962SOL    HW287817   0.470   0.489   3.972 -3.3745 -1.2603  1.6833
25963SOL     OW87818   7.667   4.566   4.300  0.7738 -0.1607  0.2846
25963SOL    HW187819   7.688   4.602   4.386 -0.3945  0.8891  0.1709
25963SOL    HW287820   7.628   4.640   4.253  0.5291 -0.9732 -0.8196
25964SOL     OW87821   2.585   5.691   7.781 -0.4634  0.2568  0.5113
25964SOL    HW187822   2.652   5.691   7.849 -0.7732 -1.5733  0.8883
25964SOL    HW287823   2.627   5.647   7.707 -0.3500  1.6191 -0.2480
25965SOL     OW87824   4.169   0.452   8.736 -0.2129  0.3338 -0.5778
25965SOL    HW187825   4.226   0.489   8.669 -0.3821  0.0302 -0.8921
25965SOL    HW287826   4.226   0.396   8.788 -0.2168  0.0251 -0.8967
25966SOL     OW87827  12.499   8.975   6.300  0.4201  0.1346 -0.1740
25966SOL    HW187828  12.432   8.961   6.367  0.8440 -0.2532  0.1761
25966SOL    HW287829  12.507   8.889   6.257 -0.6648  0.6559 -1.5012
25967SOL     OW87830   4.909   8.728  12.532 -0.3928  0.0223 -0.4599
25967SOL    HW187831   4.969   8.711  12.604 -0.6481 -0.3553 -0.3306
25967SOL    HW287832   4.908   8.647  12.481 -4.0817 -1.7157  1.9525
25968SOL     OW87833   0.624   4.355  13.260  0.0363 -0.1856 -0.5924
25968SOL    HW187834   0.619   4.261  13.243  0.2714 -0.3893  0.4024
25968SOL    HW287835   0.548   4.392  13.216 -0.6378 -0.9806 -0.1134
25969SOL     OW87836   3.783  12.386   7.330  0.1948  0.5658  0.1281
25969SOL    HW187837   3.725  12.335   7.275  3.0418 -1.2341 -1.4499
25969SOL    HW287838   3.793  12.334   7.410 -0.9250  1.2930  0.7722
25970SOL     OW87839   4.633   7.197  11.963  0.2593  0.2541  0.2568
25970SOL    HW187840   4.567   7.127  11.961  0.8585 -0.3939  1.7803
25970SOL    HW287841   4.599   7.260  12.027 -1.0690  2.2648 -2.2222
25971SOL     OW87842  12.637   5.418   6.548 -1.0247  0.3524  0.3368
25971SOL    HW187843  12.600   5.332   6.528 -0.2013  0.1294 -0.3031
25971SOL    HW287844  12.649   5.459   6.462 -1.8540  1.3030  0.6627
25972SOL     OW87845   2.249   2.433   3.842 -0.1530  0.1368  0.0396
25972SOL    HW187846   2.188   2.388   3.783 -1.7865  3.0314 -0.6687
25972SOL    HW287847   2.323   2.458   3.785 -0.9786  1.5000 -0.4931
25973SOL     OW87848   1.828  10.952   2.481  0.3199 -0.4142 -0.1738
25973SOL    HW187849   1.919  10.942   2.506  0.4082  0.8459  0.0794
25973SOL    HW287850   1.831  10.987   2.391  0.0954 -0.3087 -0.1427
25974SOL     OW87851   3.741   1.462   1.456 -0.1392 -0.0500  0.2961
25974SOL    HW187852   3.750   1.527   1.386  0.7220  0.1328  0.5741
25974SOL    HW287853   3.653   1.426   1.443 -0.3119  0.5814 -0.3629
25975SOL     OW87854  12.708   2.702   6.167  0.3060  0.0981 -0.2661
25975SOL    HW187855  12.677   2.659   6.088  0.4853  2.0855 -1.4861
25975SOL    HW287856  12.629   2.730   6.212  0.2206  0.4804 -0.6449
25976SOL     OW87857   2.074  12.171   9.340 -0.1551  0.1370  0.7032
25976SOL    HW187858   2.039  12.095   9.386  0.7368 -0.3572  0.5947
25976SOL    HW287859   2.132  12.213   9.403 -0.1562  0.3608  0.5564
25977SOL     OW87860  12.129   0.469  11.062 -0.5958 -0.2761  0.1170
25977SOL    HW187861  12.073   0.425  10.998  0.2061 -4.0215  1.7676
25977SOL    HW287862  12.082   0.460  11.145  1.3420 -1.4515  1.1383
25978SOL     OW87863   3.654   3.377  10.137 -0.0700  0.2935  0.6528
25978SOL    HW187864   3.658   3.366  10.042  1.4654  0.7858  0.6421
25978SOL    HW287865   3.584   3.317  10.164 -0.1937 -0.2333 -0.7196
25979SOL     OW87866   2.247   7.710   3.141 -0.1671  0.0983 -0.0373
25979SOL    HW187867   2.244   7.800   3.174 -2.0283  0.0316  0.0744
25979SOL    HW287868   2.221   7.656   3.216  1.0590 -0.5774 -0.0634
25980SOL     OW87869   9.606  10.515   2.077 -0.3344 -0.5587 -0.2097
25980SOL    HW187870   9.550  10.508   2.154 -0.5669 -1.1444 -0.4248
25980SOL    HW287871   9.550  10.557   2.011  0.2734  1.1593  0.3208
25981SOL     OW87872   4.831   6.768   4.556 -0.1602 -0.3173  0.7112
25981SOL    HW187873   4.868   6.704   4.495  2.2969 -0.0185  1.7637
25981SOL    HW287874   4.737   6.750   4.555  0.1185 -2.0917 -1.0934
25982SOL     OW87875  10.846   9.984   4.014 -0.0686 -0.3788 -0.6006
25982SOL    HW187876  10.780   9.962   3.948  0.0095  1.7966 -1.4905
25982SOL    HW287877  10.808  10.056   4.063  0.5110 -0.9825  0.7823
25983SOL     OW87878   8.677   9.824   1.324  0.2401  0.3872  0.0973
25983SOL    HW187879   8.588   9.849   1.349 -0.3629 -0.1921 -1.3392
25983SOL    HW287880   8.708   9.897   1.270 -0.0334 -0.1446 -0.8121
25984SOL     OW87881   1.679   0.080   7.314  0.1112  1.0327  0.4344
25984SOL    HW187882   1.729   0.162   7.313  1.4444  0.3182  1.9916
25984SOL    HW287883   1.704   0.036   7.233  0.5783  1.5048  0.3154
25985SOL     OW87884   9.226   9.057  11.012 -0.6976 -0.3550 -0.2227
25985SOL    HW187885   9.201   8.969  10.985 -1.8843 -0.3706  0.8377
25985SOL    HW287886   9.303   9.077  10.959  0.1940 -2.4008  0.1931
25986SOL     OW87887   9.233  13.155  12.695  0.2087 -0.7413 -0.2890
25986SOL    HW187888   9.169  13.226  12.702  0.5417 -0.4272 -0.4214
25986SOL    HW287889   9.268  13.162  12.606 -0.0210 -1.3020 -0.4300
25987SOL     OW87890   2.248   3.295   3.464  0.0166  0.2897  0.6544
25987SOL    HW187891   2.308   3.329   3.398 -1.3595  0.5669 -0.5095
25987SOL    HW287892   2.304   3.276   3.540  1.5275  0.6789 -0.3103
25988SOL     OW87893   0.032  11.794   6.438  0.7051 -0.4841  0.8086
25988SOL    HW187894  -0.043  11.852   6.424 -0.1404 -1.1587  2.3157
25988SOL    HW287895   0.096  11.822   6.372 -1.3043 -0.7112 -1.3545
25989SOL     OW87896   3.050   3.320   8.219  0.4351  0.9903  0.3438
25989SOL    HW187897   3.113   3.286   8.156 -0.5533 -1.5814  0.6069
25989SOL    HW287898   2.969   3.331   8.169  0.5235  2.2747  0.4509
25990SOL     OW87899  12.840   7.250   8.407  0.3223  0.0342  0.1355
25990SOL    HW187900  12.887   7.230   8.326 -2.0019  1.4247 -1.6851
25990SOL    HW287901  12.818   7.165   8.444  0.6187 -0.6479 -1.2077
25991SOL     OW87902   6.272   7.742  13.135 -0.3191  0.5922  0.3235
25991SOL    HW187903   6.325   7.663  13.144 -1.6301 -0.3244  0.3803
25991SOL    HW287904   6.332   7.808  13.101  0.4764 -0.8297 -1.1598
25992SOL     OW87905  12.730   0.247   1.411 -0.1237  0.1465 -0.0431
25992SOL    HW187906  12.702   0.316   1.352 -2.2853  0.0692  0.7770
25992SOL    HW287907  12.737   0.290   1.497 -1.4098 -0.5707  0.4562
25993SOL     OW87908   2.430   3.518   8.961  0.6957  0.1845 -0.4652
25993SOL    HW187909   2.434   3.475   9.046  0.0689 -0.9933 -1.0038
25993SOL    HW287910   2.520   3.545   8.943  1.2313 -1.4748 -0.3784
25994SOL     OW87911  10.618   0.030   8.832  0.5622 -0.5036 -0.3454
25994SOL    HW187912  10.714   0.026   8.841  0.5026  0.0535  0.6462
25994SOL    HW287913  10.604   0.077   8.751  1.1379 -0.2009 -0.2783
25995SOL     OW87914  11.487   3.378   5.142 -0.2633 -0.0455 -0.1710
25995SOL    HW187915  11.525   3.398   5.057 -0.6111  0.7377 -0.1520
25995SOL    HW287916  11.404   3.334   5.122  0.1188 -0.7467 -0.2232
25996SOL     OW87917  11.772   8.288   3.295  0.3052  0.0677 -0.0193
25996SOL    HW187918  11.715   8.227   3.342 -1.6992  0.7683 -1.4085
25996SOL    HW287919  11.805   8.348   3.363  0.1508 -0.9145  0.9463
25997SOL     OW87920   9.631  12.622   5.485  0.4779  0.1890 -0.5552
25997SOL    HW187921   9.609  12.529   5.474 -0.0762  0.1157  0.8835
25997SOL    HW287922   9.726  12.623   5.495  0.7002 -0.0015 -2.3255
25998SOL     OW87923   3.204   4.086   9.162  0.1633  0.4797 -0.5483
25998SOL    HW187924   3.227   4.019   9.098 -0.8072 -0.1860 -0.2245
25998SOL    HW287925   3.116   4.115   9.137 -0.8613 -0.8212  1.2562
25999SOL     OW87926  12.775   6.668  11.828 -0.0610  0.3900  0.4954
25999SOL    HW187927  12.733   6.616  11.760  0.8859  1.5157 -1.0151
25999SOL    HW287928  12.703   6.717  11.868 -0.5522  0.2684 -0.2126
26000SOL     OW87929   0.355  11.576   4.563  0.7305  0.2961  0.1552
26000SOL    HW187930   0.348  11.647   4.500 -0.7893 -0.9937 -1.2106
26000SOL    HW287931   0.338  11.617   4.648  0.7522  1.7052 -0.5016
26001SOL     OW87932  13.308   8.228   0.114  0.4883 -0.3863  0.1579
26001SOL    HW187933  13.319   8.140   0.149  0.2951 -0.7128 -0.5720
26001SOL    HW287934  13.260   8.215   0.032 -1.2411  0.5519  0.9584
26002SOL     OW87935   8.775   0.714   0.749 -0.0954  0.2062  0.0130
26002SOL    HW187936   8.805   0.801   0.720  0.9611  0.1105  0.7618
26002SOL    HW287937   8.684   0.728   0.775 -1.0593  0.3357 -3.0920
26003SOL     OW87938   7.727   6.315   9.491  0.2609  0.1771 -0.1554
26003SOL    HW187939   7.820   6.337   9.482  0.2871 -0.2203 -0.9926
26003SOL    HW287940   7.683   6.375   9.431  0.0998 -0.4280 -0.6525
26004SOL     OW87941  12.670  10.809   9.418 -0.0058  0.3887 -0.2450
26004SOL    HW187942  12.745  10.814   9.477  0.9972  1.7036 -1.5469
26004SOL    HW287943  12.609  10.750   9.462  0.4419  1.7026  2.3279
26005SOL     OW87944   1.575   0.529   0.274 -0.0220  0.1556 -0.1838
26005SOL    HW187945   1.571   0.618   0.308 -0.8179 -0.0374  0.2520
26005SOL    HW287946   1.667   0.503   0.285  0.4305  1.2294 -1.1691
26006SOL     OW87947   2.932   8.215   8.883  0.2887  0.2958  0.2657
26006SOL    HW187948   2.845   8.247   8.905  0.1495  0.6705 -0.7531
26006SOL    HW287949   2.916   8.138   8.827  0.5322  1.7466 -1.9396
26007SOL     OW87950   0.197   5.436  13.018  0.3335  0.0361  0.3405
26007SOL    HW187951   0.235   5.431  13.106 -0.9344 -0.0013  0.9067
26007SOL    HW287952   0.261   5.391  12.962  0.5638 -1.0940  1.4497
26008SOL     OW87953   3.039   7.108   6.955  0.3600  0.1251  0.8239
26008SOL    HW187954   3.089   7.145   7.028  0.2925 -0.2267  1.0477
26008SOL    HW287955   3.002   7.027   6.989 -1.6530  1.1206  1.1654
26009SOL     OW87956   2.170  11.616   6.634 -0.1264  0.5579  0.2019
26009SOL    HW187957   2.139  11.700   6.601  0.1909  0.1900 -1.1055
26009SOL    HW287958   2.265  11.626   6.641 -0.3290  1.3447  3.2077
26010SOL     OW87959  10.842   6.217  10.873 -0.1267 -0.1171  0.0811
26010SOL    HW187960  10.836   6.202  10.968  0.7873 -1.4337 -0.0522
26010SOL    HW287961  10.793   6.298  10.859  0.1161  0.3542  1.7438
26011SOL     OW87962   0.730   2.800   7.851  1.0360  0.3861  0.2072
26011SOL    HW187963   0.696   2.884   7.818 -1.8939 -1.3160 -1.5693
26011SOL    HW287964   0.813   2.823   7.893  2.9909  3.5647 -4.4907
26012SOL     OW87965   2.864   8.024   5.941  0.4083 -0.4506  0.2916
26012SOL    HW187966   2.882   8.103   5.992  0.3172  0.0314 -0.4195
26012SOL    HW287967   2.902   8.041   5.855 -0.9878 -0.5321 -0.3682
26013SOL     OW87968   6.156   1.663   2.603 -0.2159 -0.0366 -0.1928
26013SOL    HW187969   6.136   1.696   2.691  0.2356  0.6442 -0.3361
26013SOL    HW287970   6.090   1.704   2.547  1.6484  2.4857 -0.7206
26014SOL     OW87971   6.163  12.264   9.935 -0.2382 -0.2752 -0.3186
26014SOL    HW187972   6.221  12.315   9.991 -0.6327 -0.7953  0.5764
26014SOL    HW287973   6.133  12.192   9.990 -1.8138  0.0341 -0.7159
26015SOL     OW87974   5.337   6.021   2.933  0.3450  0.6059 -0.0220
26015SOL    HW187975   5.429   5.997   2.939  0.2825  0.6061  0.9792
26015SOL    HW287976   5.337   6.110   2.898  0.5848 -0.6979 -3.7936
26016SOL     OW87977  11.592   5.512   4.817  0.1361  0.6910 -0.9932
26016SOL    HW187978  11.629   5.594   4.785  1.6470  0.6797  0.5337
26016SOL    HW287979  11.509   5.503   4.772  0.1308  2.8574 -1.5058
26017SOL     OW87980   7.034   7.043   1.762 -0.3414  0.3250  0.0540
26017SOL    HW187981   6.949   7.036   1.806 -0.4444 -0.0394 -0.1966
26017SOL    HW287982   7.054   7.136   1.763 -0.1682  0.2883  1.1983
26018SOL     OW87983   2.857   5.034   0.950  0.4512 -0.2410 -0.5411
26018SOL    HW187984   2.889   5.101   0.890 -0.2235  0.9898  0.4302
26018SOL    HW287985   2.764   5.024   0.927  0.0871  0.5227  0.5122
26019SOL     OW87986   2.028   8.061  10.200  0.1111  0.9761 -0.7776
26019SOL    HW187987   2.095   8.130  10.188 -0.8361  1.8519 -1.1637
26019SOL    HW287988   2.074   7.980  10.180  1.1894  1.5142 -0.5908
26020SOL     OW87989   8.768  11.081   9.631 -1.0914 -0.1777 -0.0090
26020SOL    HW187990   8.739  10.991   9.618  2.2709 -1.2855 -0.9888
26020SOL    HW287991   8.812  11.104   9.550 -1.4877  2.2509  0.3801
26021SOL     OW87992   6.963   3.080   3.243  0.1566 -0.4022 -0.0876
26021SOL    HW187993   6.896   3.145   3.263  0.4765 -0.2213  0.4309
26021SOL    HW287994   7.040   3.109   3.293  0.4173 -0.9674 -0.1513
26022SOL     OW87995   0.846   8.747   8.492 -0.6631  0.0759 -0.2379
26022SOL    HW187996   0.803   8.667   8.521 -1.7621  1.3699  2.0326
26022SOL    HW287997   0.925   8.752   8.546 -1.5096  1.3393  0.9660
26023SOL     OW87998   0.195   8.572  12.976  0.2100  0.2604  0.1376
26023SOL    HW187999   0.112   8.617  12.990  0.2042 -0.2174  2.0279
26023SOL    HW288000   0.172   8.480  12.965  0.3750  0.3808 -1.3451
26024SOL     OW88001   4.312   2.548   4.293 -0.0676 -0.4785 -0.3039
26024SOL    HW188002   4.335   2.486   4.225 -0.8114  0.1539 -1.1598
26024SOL    HW288003   4.242   2.505   4.343  0.1491 -0.7471 -0.2298
26025SOL     OW88004   4.647   4.804   4.094 -0.5379  0.2268  0.3584
26025SOL    HW188005   4.665   4.794   4.187 -1.7399  0.4357  0.6335
26025SOL    HW288006   4.605   4.890   4.086 -2.1425 -0.5483 -0.0835
26026SOL     OW88007   4.309   0.821   2.048  0.1838  0.1068 -0.3966
26026SOL    HW188008   4.243   0.816   1.979 -2.5055  2.3311  1.7761
26026SOL    HW288009   4.337   0.912   2.048  2.6419 -0.5643 -0.5826
26027SOL     OW88010   5.069  11.665   0.976  0.2769 -0.3069 -0.2578
26027SOL    HW188011   5.050  11.729   1.044 -0.8433  1.4108 -2.0912
26027SOL    HW288012   5.162  11.677   0.956  0.4124 -0.2709  0.3758
26028SOL     OW88013   3.018   8.569   3.797 -0.7331  0.2215  0.0487
26028SOL    HW188014   2.989   8.660   3.801 -1.0575  0.0927  0.7346
26028SOL    HW288015   3.017   8.540   3.888  0.1388 -0.2300 -0.0736
26029SOL     OW88016   6.636  10.987  11.628 -0.7776  0.5102 -0.0552
26029SOL    HW188017   6.722  11.027  11.620 -0.8447  1.1514  1.9754
26029SOL    HW288018   6.617  10.955  11.540  1.5250  0.3183 -0.5535
26030SOL     OW88019  12.899  13.221   3.766  0.2170  0.1858 -0.0152
26030SOL    HW188020  12.887  13.298   3.820  0.6774  0.2331  0.0252
26030SOL    HW288021  12.886  13.147   3.826 -2.0290  0.1837 -0.4292
26031SOL     OW88022   5.574  12.974   3.602  0.2388 -0.2822 -0.0089
26031SOL    HW188023   5.595  12.988   3.510 -2.0481  2.6691 -0.2434
26031SOL    HW288024   5.478  12.977   3.605  0.1966 -1.6483  2.3357
26032SOL     OW88025  10.487   6.923  11.827  0.6952  0.2487 -0.2155
26032SOL    HW188026  10.524   6.858  11.768 -0.2949 -1.3510  0.8552
26032SOL    HW288027  10.563   6.964  11.868  1.3310 -1.1524  0.0465
26033SOL     OW88028  13.241  12.222   0.904  0.0333  0.2806  0.4682
26033SOL    HW188029  13.308  12.289   0.911  0.1399  0.2676 -0.3495
26033SOL    HW288030  13.190  12.246   0.827 -1.7047  0.9819  1.7486
26034SOL     OW88031   7.104   6.570  11.561  0.3060 -0.0724  0.0363
26034SOL    HW188032   7.117   6.545  11.469 -0.3418 -1.9587  0.4121
26034SOL    HW288033   7.116   6.488  11.609 -0.6799  0.6284  1.5079
26035SOL     OW88034   2.591   1.273   7.300 -0.8275  0.5074 -0.6874
26035SOL    HW188035   2.683   1.276   7.274 -0.4735  2.2131  0.5586
26035SOL    HW288036   2.593   1.281   7.396 -2.1829 -2.1737 -0.3302
26036SOL     OW88037   7.783   3.304   2.475 -0.0629  0.1892  0.4623
26036SOL    HW188038   7.848   3.290   2.545 -0.0752  0.0008  0.4363
26036SOL    HW288039   7.703   3.265   2.509  0.3115 -1.2450 -0.2721
26037SOL     OW88040   9.497  13.118   6.732  0.1325  0.1396  0.3572
26037SOL    HW188041   9.536  13.161   6.808  0.0101 -0.8948  1.0160
26037SOL    HW288042   9.415  13.165   6.717  1.2049  1.8509 -0.5864
26038SOL     OW88043   8.670   2.153  11.635  0.4809  0.3402  0.0365
26038SOL    HW188044   8.661   2.120  11.725 -2.3114  0.6293 -0.0442
26038SOL    HW288045   8.666   2.074  11.580 -0.0357  0.3132  0.1027
26039SOL     OW88046   9.886   7.469   8.373 -0.0911 -0.2598  0.2151
26039SOL    HW188047   9.961   7.425   8.334  0.0458 -0.8768  1.1404
26039SOL    HW288048   9.871   7.423   8.456 -1.3652 -0.0127  0.1421
26040SOL     OW88049   1.320   8.409   7.659  0.3974  0.5285 -0.3267
26040SOL    HW188050   1.412   8.416   7.684 -0.3558  1.3683  2.6309
26040SOL    HW288051   1.309   8.318   7.632  1.9404  0.2242  0.0154
26041SOL     OW88052   2.413   1.104   9.970  0.6008  1.3651 -0.1808
26041SOL    HW188053   2.469   1.176   9.941  0.3928  0.4016 -3.3348
26041SOL    HW288054   2.379   1.066   9.890 -0.9498 -0.9913  1.4546
26042SOL     OW88055   9.435   8.934   7.213 -0.1427 -0.2065  0.7196
26042SOL    HW188056   9.449   8.846   7.180 -0.6613 -0.3116  0.7767
26042SOL    HW288057   9.513   8.952   7.267  0.0635 -0.5437  0.5371
26043SOL     OW88058   1.125  10.436   2.041  0.0579  0.3625 -0.2705
26043SOL    HW188059   1.058  10.433   2.109  0.2526  0.9020 -0.0476
26043SOL    HW288060   1.206  10.457   2.087  0.5458 -1.0783 -0.4387
26044SOL     OW88061  13.116  12.460  11.028 -0.2747 -0.2877 -0.0452
26044SOL    HW188062  13.105  12.555  11.034 -0.0336 -0.3293  1.3346
26044SOL    HW288063  13.115  12.430  11.118  0.2354 -1.5382 -0.4347
26045SOL     OW88064   2.947   0.137   7.729  0.1165  0.0162  0.0648
26045SOL    HW188065   2.915   0.188   7.655  1.5285 -0.2599 -0.7715
26045SOL    HW288066   2.933   0.194   7.805 -0.5820  0.6425 -0.5166
26046SOL     OW88067   4.677   9.536   3.211 -0.2270  0.3435 -0.1414
26046SOL    HW188068   4.651   9.523   3.119  2.0170 -0.6407 -0.6935
26046SOL    HW288069   4.760   9.582   3.205  0.5245 -0.7664  1.3647
26047SOL     OW88070   6.809  11.083   5.650  0.1584  0.5444 -0.5794
26047SOL    HW188071   6.757  11.158   5.681  1.1551  0.7376  0.7238
26047SOL    HW288072   6.877  11.072   5.717 -0.3417 -1.9469 -0.3965
26048SOL     OW88073   4.317  11.330  11.388 -0.0144  0.1162 -0.3168
26048SOL    HW188074   4.392  11.340  11.330  1.0105 -1.8276  0.5816
26048SOL    HW288075   4.244  11.310  11.329  0.8176 -0.9334 -1.0310
26049SOL     OW88076   7.316   7.046   3.578 -0.3781  0.0284  0.3123
26049SOL    HW188077   7.225   7.045   3.607 -0.0421  1.0342  1.4760
26049SOL    HW288078   7.315   7.102   3.500 -1.0398 -1.5084 -0.8447
26050SOL     OW88079  12.446   4.125  13.029  0.1574  0.0907  0.4860
26050SOL    HW188080  12.392   4.196  13.064  1.9936  0.4800  2.7181
26050SOL    HW288081  12.439   4.055  13.093 -1.7881 -1.9896 -1.7780
26051SOL     OW88082   7.299   6.149   3.886 -0.6883 -0.2252  0.6616
26051SOL    HW188083   7.242   6.133   3.962 -0.4947  0.3302  0.9242
26051SOL    HW288084   7.261   6.226   3.844 -0.1712  0.1069  0.7988
26052SOL     OW88085   0.734   8.027   5.848  0.4772 -0.4960  0.1003
26052SOL    HW188086   0.721   8.113   5.888  0.1506 -0.0774 -0.8789
26052SOL    HW288087   0.809   8.040   5.789 -0.5377 -0.4626 -1.2138
26053SOL     OW88088  10.709   6.088   8.974 -0.0204 -0.2550 -0.4934
26053SOL    HW188089  10.640   6.022   8.986  0.7540 -1.3006 -1.4680
26053SOL    HW288090  10.665   6.161   8.931 -0.8801 -0.1440  0.5276
26054SOL     OW88091   4.013   3.659   1.344 -0.2582 -0.0862 -1.1649
26054SOL    HW188092   4.018   3.718   1.269 -3.2883 -0.8382 -2.0776
26054SOL    HW288093   4.028   3.572   1.307 -2.2554 -0.5156 -1.0496
26055SOL     OW88094   1.992   8.771   6.746  0.2915 -0.0241  0.0210
26055SOL    HW188095   1.942   8.849   6.770 -0.6886 -0.2861 -1.1001
26055SOL    HW288096   1.979   8.711   6.819  0.8254  0.7337  0.7642
26056SOL     OW88097   4.679   8.870   3.942 -0.0487  0.5466  0.3995
26056SOL    HW188098   4.621   8.944   3.921  1.6793  1.8587 -0.0280
26056SOL    HW288099   4.659   8.805   3.874 -0.4212  1.3269 -0.2681
26057SOL     OW88100  12.702  11.892   7.376  0.2523 -0.1463  0.0359
26057SOL    HW188101  12.668  11.807   7.403  2.8991 -1.5336 -0.6431
26057SOL    HW288102  12.626  11.949   7.374 -1.1483 -1.6367  3.6451
26058SOL     OW88103   2.402   3.164   8.602 -0.1388  0.2278 -0.6623
26058SOL    HW188104   2.354   3.137   8.680  0.4654 -0.0382 -0.3815
26058SOL    HW288105   2.419   3.257   8.616 -2.5126  0.9228 -1.7797
26059SOL     OW88106   9.477   2.566  12.242 -0.3775  0.1390  0.1854
26059SOL    HW188107   9.403   2.626  12.228  0.6000  1.2231 -0.5002
26059SOL    HW288108   9.503   2.580  12.333 -1.3910 -0.7110  0.6262
26060SOL     OW88109   8.956   9.776  10.697 -0.0665 -0.1995  0.4998
26060SOL    HW188110   8.937   9.792  10.604 -2.0317 -1.0744  0.7176
26060SOL    HW288111   8.990   9.860  10.728 -0.7865  0.5606 -0.6698
26061SOL     OW88112  12.832   6.344   3.468  0.0395  0.0449  0.7843
26061SOL    HW188113  12.822   6.419   3.409 -0.2543  0.1249  0.9348
26061SOL    HW288114  12.751   6.342   3.518  0.8346  0.8518  2.1928
26062SOL     OW88115   2.130   0.634  12.414  0.5780  0.1236 -0.5813
26062SOL    HW188116   2.139   0.650  12.508  2.1602  0.2857 -0.7396
26062SOL    HW288117   2.113   0.540  12.407  1.1906 -0.0222 -0.1701
26063SOL     OW88118   4.294  12.381   5.085  0.2629 -0.4866 -0.5422
26063SOL    HW188119   4.378  12.419   5.112 -0.2659 -1.2805  2.6752
26063SOL    HW288120   4.231  12.451   5.099  0.1338 -0.5013 -1.0533
26064SOL     OW88121   5.016   1.046   1.538  0.7133 -0.5359 -0.1623
26064SOL    HW188122   5.071   1.125   1.531  0.9896 -0.7836 -0.9182
26064SOL    HW288123   4.954   1.066   1.609  1.4067 -0.0271  0.3127
26065SOL     OW88124   3.787   3.839   2.352 -0.2891  0.0521  0.8424
26065SOL    HW188125   3.796   3.757   2.304  0.0636  0.3202  0.4420
26065SOL    HW288126   3.743   3.815   2.433  0.3338 -0.6219  0.9848
26066SOL     OW88127   0.500   3.646   9.120 -0.0386 -0.3366 -0.3336
26066SOL    HW188128   0.478   3.682   9.034  2.2358 -0.2977 -0.9683
26066SOL    HW288129   0.476   3.554   9.114  0.3243 -0.3916 -1.1329
26067SOL     OW88130   2.115   6.175   3.663 -0.1253 -0.3254  0.4228
26067SOL    HW188131   2.165   6.201   3.585 -0.2766 -2.0858 -0.3123
26067SOL    HW288132   2.175   6.190   3.736  1.7199 -2.6598 -0.4611
26068SOL     OW88133   7.300   2.473   7.135  0.2868  0.3956  0.3202
26068SOL    HW188134   7.218   2.465   7.087  0.6118  0.0490 -0.1891
26068SOL    HW288135   7.281   2.438   7.222  0.7062 -2.7996 -0.7280
26069SOL     OW88136   5.778   8.212  13.212  0.2341  0.2663  0.2583
26069SOL    HW188137   5.717   8.282  13.235 -1.4152 -1.3398  1.0306
26069SOL    HW288138   5.779   8.210  13.117 -1.0538  0.2319  0.2393
26070SOL     OW88139  11.944   8.667   4.316 -0.6016  0.6040 -0.2071
26070SOL    HW188140  11.919   8.738   4.257 -0.3432  0.4427 -0.5130
26070SOL    HW288141  11.905   8.691   4.400 -0.1734  1.3109 -0.2061
26071SOL     OW88142   5.956   4.754   3.644  0.2497  0.5166 -0.1887
26071SOL    HW188143   5.861   4.763   3.649  0.4058  1.9539  1.0023
26071SOL    HW288144   5.979   4.701   3.720  0.3781 -0.0860 -0.6448
26072SOL     OW88145  12.623   7.843   0.682 -0.2659 -0.1199  0.0013
26072SOL    HW188146  12.700   7.851   0.740 -0.2047 -0.7911  0.0272
26072SOL    HW288147  12.618   7.927   0.637 -2.2317  1.7424  3.3055
26073SOL     OW88148   5.193   9.008  10.467 -0.2224  0.0060  0.1261
26073SOL    HW188149   5.149   8.944  10.410  0.3931  0.0243 -0.3878
26073SOL    HW288150   5.125   9.036  10.528 -1.4425  1.2745 -1.6711
26074SOL     OW88151  11.593   1.944   3.855 -0.5771  0.1263 -0.1285
26074SOL    HW188152  11.688   1.950   3.867 -0.6298  1.3428 -0.1674
26074SOL    HW288153  11.570   1.858   3.890  0.6436 -0.5524 -0.9162
26075SOL     OW88154   6.423   1.530   2.851  0.4158 -0.5626 -0.4195
26075SOL    HW188155   6.339   1.498   2.886  0.1406 -0.0986 -0.6394
26075SOL    HW288156   6.426   1.622   2.878  1.9542 -1.1273  1.6355
26076SOL     OW88157   2.338   0.470   9.607  0.6147  0.3858  0.1201
26076SOL    HW188158   2.247   0.478   9.636  0.6887  0.0094  0.4611
26076SOL    HW288159   2.376   0.556   9.624 -0.0169  0.9669 -1.2465
26077SOL     OW88160  11.635   1.184   5.894  0.3629 -0.2000  0.0316
26077SOL    HW188161  11.595   1.210   5.811 -0.1721 -2.1475 -0.3861
26077SOL    HW288162  11.705   1.124   5.868 -0.5525 -1.7598  0.9655
26078SOL     OW88163   6.792   8.718   6.756  0.7121 -0.0201 -0.1877
26078SOL    HW188164   6.716   8.712   6.698  2.3089 -2.3935 -2.2599
26078SOL    HW288165   6.831   8.803   6.736 -0.7559  0.7776  0.1627
26079SOL     OW88166  13.008   1.828  11.085 -0.0004  0.1654 -0.2176
26079SOL    HW188167  13.051   1.908  11.055 -0.4317  0.6353  0.4234
26079SOL    HW288168  12.981   1.784  11.004 -0.4965  1.0673 -0.5438
26080SOL     OW88169   8.371  11.798   3.920  0.7293 -0.1387 -0.0763
26080SOL    HW188170   8.438  11.775   3.856 -0.1754 -1.3246 -0.6519
26080SOL    HW288171   8.367  11.723   3.979 -0.2900 -0.2507 -0.2549
26081SOL     OW88172   3.856   7.590   5.038  0.3589 -0.0194 -0.4432
26081SOL    HW188173   3.896   7.515   4.994  1.3902  0.4356 -0.3255
26081SOL    HW288174   3.763   7.570   5.041  0.3617 -0.3858 -2.1652
26082SOL     OW88175   1.843   6.011  11.129  0.0866  0.2718 -0.0601
26082SOL    HW188176   1.774   5.951  11.158 -1.0954  1.2485 -0.7511
26082SOL    HW288177   1.924   5.974  11.165 -0.8808 -0.4777  1.4436
26083SOL     OW88178   1.482   6.727   8.095  0.0307  0.1020  0.3332
26083SOL    HW188179   1.560   6.782   8.102  0.2303 -0.3082  1.5819
26083SOL    HW288180   1.469   6.716   8.001  0.1173  2.0767  0.0460
26084SOL     OW88181   3.434   3.446  11.240 -0.2016  0.3174  0.0963
26084SOL    HW188182   3.419   3.534  11.277 -0.2205  0.1487  0.4928
26084SOL    HW288183   3.437   3.461  11.145 -0.0148  0.7778  0.1670
26085SOL     OW88184   9.276  12.711  12.707  0.5072 -0.6038  0.2191
26085SOL    HW188185   9.235  12.769  12.771 -1.0811 -2.3602  0.8779
26085SOL    HW288186   9.363  12.748  12.694 -0.1762  1.4753  1.1598
26086SOL     OW88187  12.216  13.197   7.567  0.2279 -0.3138  0.1609
26086SOL    HW188188  12.236  13.116   7.519  1.8814  0.0130  0.2572
26086SOL    HW288189  12.133  13.226   7.529 -0.1419 -1.7676 -0.2333
26087SOL     OW88190   3.650   5.103   4.064  0.0734 -0.2583  0.2135
26087SOL    HW188191   3.702   5.181   4.043  1.2223 -0.6481  1.4685
26087SOL    HW288192   3.715   5.037   4.088 -0.9775 -0.7282  1.9274
26088SOL     OW88193   2.648   5.717   6.076  0.0568  0.4142 -0.8550
26088SOL    HW188194   2.716   5.734   6.141 -0.7067 -1.7043  0.6433
26088SOL    HW288195   2.584   5.787   6.089  0.7721  1.0260 -0.5707
26089SOL     OW88196   1.335   4.892   8.481 -0.3470 -0.2648  0.2997
26089SOL    HW188197   1.294   4.961   8.533 -0.4814 -0.0537 -0.0787
26089SOL    HW288198   1.268   4.869   8.416  0.5856  1.0395 -1.2085
26090SOL     OW88199   3.643   0.366   9.005 -0.7897  0.6673 -0.0872
26090SOL    HW188200   3.550   0.361   8.983 -0.8896  1.2345  0.1926
26090SOL    HW288201   3.644   0.387   9.099 -0.3771 -2.1205  0.6114
26091SOL     OW88202   8.517  12.076   7.793 -0.1805 -0.7425  0.1816
26091SOL    HW188203   8.527  12.056   7.886  1.0917  1.1751  0.5106
26091SOL    HW288204   8.446  12.140   7.789  0.4474 -0.0549 -0.0423
26092SOL     OW88205   2.693   7.830  12.469 -0.3834  0.0818 -0.6692
26092SOL    HW188206   2.762   7.815  12.533  1.1061  1.3492 -1.9198
26092SOL    HW288207   2.614   7.796  12.511  1.4998 -5.2775 -0.7164
26093SOL     OW88208   1.462   1.270  12.889  0.2919 -0.2763 -0.6526
26093SOL    HW188209   1.394   1.222  12.935 -0.9826  1.9949  0.0216
26093SOL    HW288210   1.540   1.214  12.893 -1.0825 -2.2080  0.0399
26094SOL     OW88211   8.365   0.402  11.521  0.0493  0.2222  0.0889
26094SOL    HW188212   8.326   0.484  11.489 -0.4606  1.0570  2.6212
26094SOL    HW288213   8.382   0.418  11.613  0.5065 -2.3584  0.5279
26095SOL     OW88214   3.923   9.242  11.675 -0.0052 -0.3719  0.1023
26095SOL    HW188215   3.998   9.287  11.714 -0.8749  1.5390 -0.2940
26095SOL    HW288216   3.864   9.224  11.748  0.2508 -0.6601  0.2369
26096SOL     OW88217   0.200   3.566   9.459  0.1470 -0.3535  0.3515
26096SOL    HW188218   0.254   3.487   9.463  1.1410  0.3124  0.4829
26096SOL    HW288219   0.254   3.629   9.412 -1.4366 -0.3562 -1.6026
26097SOL     OW88220   4.051   3.144   5.712  0.2253 -0.3378  0.0165
26097SOL    HW188221   4.047   3.194   5.793 -2.9722  0.1839 -0.3276
26097SOL    HW288222   4.092   3.203   5.649 -0.0706  0.4459  0.5455
26098SOL     OW88223   6.867   8.494   8.765  0.3466  0.1293 -0.5564
26098SOL    HW188224   6.934   8.440   8.807 -0.0261  0.8691  1.0672
26098SOL    HW288225   6.821   8.434   8.706  0.3954 -1.1759  0.6776
26099SOL     OW88226   6.012  10.142   5.862  0.2173 -0.1181  0.0284
26099SOL    HW188227   6.055  10.158   5.779 -1.2778  0.9562 -0.5849
26099SOL    HW288228   5.998  10.048   5.865  1.4177 -0.3234 -0.3271
26100SOL     OW88229   6.654   6.700   2.172  0.3208 -0.6889 -0.3363
26100SOL    HW188230   6.584   6.744   2.125 -0.8622 -0.4081  1.5937
26100SOL    HW288231   6.676   6.624   2.118 -1.9488 -1.1498 -0.6895
26101SOL     OW88232   9.074   3.625  12.652  0.1911  0.3782  0.0917
26101SOL    HW188233   9.167   3.635  12.629 -0.1381  0.5388 -1.2125
26101SOL    HW288234   9.030   3.610  12.569 -0.8167 -0.9345  0.8238
26102SOL     OW88235   2.261   6.096  11.694  0.4025  0.1238  0.3749
26102SOL    HW188236   2.234   6.160  11.628  1.2959  0.6093  0.4546
26102SOL    HW288237   2.266   6.013  11.647  2.6709  0.7520 -0.6336
26103SOL     OW88238   9.523   4.301   2.847  0.6014  0.1943  0.0814
26103SOL    HW188239   9.500   4.215   2.884 -0.4999  0.9470  1.2266
26103SOL    HW288240   9.448   4.324   2.793  0.8351  0.5060 -0.1136
26104SOL     OW88241   1.267   9.512  10.980  0.1927  0.1818 -0.2685
26104SOL    HW188242   1.226   9.472  10.903 -1.5599 -0.0539  0.7122
26104SOL    HW288243   1.317   9.586  10.946 -1.2828  0.6470 -1.5622
26105SOL     OW88244   0.561   8.475   3.542  0.3846  0.0908 -0.2726
26105SOL    HW188245   0.557   8.394   3.491  0.1241  0.5316 -0.9674
26105SOL    HW288246   0.493   8.531   3.503  0.8632  0.8046 -0.0913
26106SOL     OW88247   5.924   9.644   6.804  0.1555 -0.7599  0.3420
26106SOL    HW188248   5.940   9.615   6.714 -0.2741 -0.4117  0.1465
26106SOL    HW288249   5.946   9.737   6.803 -2.6510 -0.0009 -0.1967
26107SOL     OW88250   0.565  11.218   7.278  0.5817 -0.0450 -0.8559
26107SOL    HW188251   0.595  11.308   7.265  0.2559 -0.1306 -2.3695
26107SOL    HW288252   0.621  11.184   7.348 -0.1862  1.7353  0.7043
26108SOL     OW88253  12.662   6.727   6.929  0.5585  0.0103  0.0623
26108SOL    HW188254  12.627   6.661   6.987  1.7211  0.0279  0.8304
26108SOL    HW288255  12.755   6.704   6.919  1.5049  2.5298  1.9085
26109SOL     OW88256   1.426  12.666  10.875  0.1312 -0.0029 -0.3162
26109SOL    HW188257   1.443  12.687  10.784  1.8939 -2.4266 -0.6670
26109SOL    HW288258   1.373  12.586  10.872 -0.7348  0.4968  0.8191
26110SOL     OW88259   1.558   4.982  12.465  0.4746  0.5230 -0.2243
26110SOL    HW188260   1.589   4.920  12.398 -0.3591  1.0931 -1.1788
26110SOL    HW288261   1.498   4.931  12.519  0.5078  0.2668 -0.4246
26111SOL     OW88262   2.437   7.627   7.076  0.4540 -0.3800  0.4451
26111SOL    HW188263   2.387   7.568   7.019  0.2835 -0.9203  1.1439
26111SOL    HW288264   2.400   7.613   7.163 -0.1602  1.3866  0.4917
26112SOL     OW88265   5.206   6.545   8.094 -0.1985  0.4270 -0.4584
26112SOL    HW188266   5.182   6.623   8.043  1.8380  2.9631  2.1276
26112SOL    HW288267   5.294   6.523   8.062  0.9129  1.7744  1.4949
26113SOL     OW88268   3.905   5.250  10.363 -0.1365  0.1329 -0.1278
26113SOL    HW188269   3.832   5.247  10.302 -1.2175  0.0123  1.1246
26113SOL    HW288270   3.905   5.339  10.396 -0.7246 -0.2725  1.0227
26114SOL     OW88271  11.696  12.560   3.804  0.1421  0.2145  0.2726
26114SOL    HW188272  11.720  12.523   3.889  1.1254 -0.0519 -0.1161
26114SOL    HW288273  11.616  12.609   3.822 -0.5432 -1.1143  1.0464
26115SOL     OW88274   2.601   7.993   9.571  0.6100  0.0607 -0.0021
26115SOL    HW188275   2.661   7.951   9.632  0.9996  1.5369  0.6677
26115SOL    HW288276   2.651   8.003   9.490 -0.1527 -2.6215 -0.9269
26116SOL     OW88277   9.773   4.983  10.184  0.0758 -0.5797 -0.1693
26116SOL    HW188278   9.727   4.922  10.126  0.5615 -1.3864  0.2707
26116SOL    HW288279   9.863   4.986  10.149 -0.1183  0.4449 -0.6102
26117SOL     OW88280   6.878   1.527  13.048 -0.1561  0.4086 -0.0793
26117SOL    HW188281   6.957   1.485  13.081 -0.1380 -0.2961 -0.9993
26117SOL    HW288282   6.817   1.524  13.122 -0.0499 -0.9672 -0.0228
26118SOL     OW88283   5.052   5.432   8.129 -0.0144  0.2276  0.1661
26118SOL    HW188284   4.985   5.497   8.151  0.1637  0.8706 -1.0774
26118SOL    HW288285   5.003   5.357   8.096 -0.1590  1.7207 -3.4403
26119SOL     OW88286   1.357  12.847   1.072  0.2264 -0.7586 -0.3550
26119SOL    HW188287   1.366  12.910   1.000  1.4837  0.2079  0.5784
26119SOL    HW288288   1.379  12.898   1.150 -1.2742 -1.7339  0.7541
26120SOL     OW88289  10.356   0.468   5.956 -0.8925  0.9212  0.4784
26120SOL    HW188290  10.329   0.420   6.034 -0.0902 -0.8501 -0.2975
26120SOL    HW288291  10.288   0.535   5.945 -2.1961 -0.1856  1.4565
26121SOL     OW88292   1.489   0.420   8.901  0.2071 -0.2271  0.1797
26121SOL    HW188293   1.518   0.406   8.811 -1.2026  0.9955 -0.5160
26121SOL    HW288294   1.567   0.406   8.954  1.5810  0.9348 -1.4136
26122SOL     OW88295   2.808   6.169   3.074 -0.3748  0.6959  0.0972
26122SOL    HW188296   2.794   6.092   3.020 -0.2218  1.5600 -1.2159
26122SOL    HW288297   2.829   6.134   3.161  0.4198 -0.7449 -0.6333
26123SOL     OW88298  12.173   6.941   8.860 -0.1313 -0.1641 -0.5054
26123SOL    HW188299  12.183   6.908   8.949 -0.9362 -0.4748 -0.5305
26123SOL    HW288300  12.234   6.889   8.808 -0.8828 -1.1444 -0.4260
26124SOL     OW88301   8.592   4.745   9.457 -0.0923  0.0367  0.0210
26124SOL    HW188302   8.536   4.732   9.534  0.7977 -2.8664  0.2998
26124SOL    HW288303   8.650   4.817   9.481 -1.8304  1.2626  0.7958
26125SOL     OW88304   0.729   1.082   8.828 -0.0805  0.1275 -0.1764
26125SOL    HW188305   0.654   1.141   8.814  0.3414  0.2855 -1.9847
26125SOL    HW288306   0.743   1.041   8.743  1.0375 -0.9465  0.4992
26126SOL     OW88307   2.729   4.168  12.582 -0.2428 -0.2961  0.0416
26126SOL    HW188308   2.661   4.229  12.612  0.1221  0.1742 -0.0731
26126SOL    HW288309   2.774   4.216  12.512  0.0117 -0.7238 -0.0873
26127SOL     OW88310   2.761   9.595   9.006 -0.0468 -0.6492 -0.4781
26127SOL    HW188311   2.742   9.660   9.074  1.3464  0.2153 -0.8555
26127SOL    HW288312   2.685   9.537   9.006 -1.7376  1.4345 -0.6727
26128SOL     OW88313   4.509  10.200  11.696  0.1443 -0.6011 -0.1451
26128SOL    HW188314   4.541  10.290  11.701  0.9255 -0.9007  0.3338
26128SOL    HW288315   4.504  10.171  11.787 -2.2430 -0.3204 -0.1160
26129SOL     OW88316   1.701   7.823   7.238 -0.1075  0.5573  0.0081
26129SOL    HW188317   1.700   7.863   7.151  1.5085  3.2509  1.1005
26129SOL    HW288318   1.617   7.847   7.276 -1.2330 -1.4414 -1.0455
26130SOL     OW88319   3.050   7.408  10.158  0.4758 -0.2793  0.0262
26130SOL    HW188320   3.100   7.328  10.174  1.0165  0.1276  0.4320
26130SOL    HW288321   3.088   7.472  10.219 -1.1734 -0.2131  1.0476
26131SOL     OW88322   9.161   0.826  11.214 -0.7629 -0.1395  0.0811
26131SOL    HW188323   9.074   0.806  11.178 -0.6702 -1.2070  0.4442
26131SOL    HW288324   9.220   0.765  11.171 -0.2333  0.3363  0.1121
26132SOL     OW88325   4.764   3.542  12.870  0.1974  0.1164  0.2207
26132SOL    HW188326   4.706   3.615  12.890  0.8867  0.3055  1.6695
26132SOL    HW288327   4.760   3.486  12.947 -0.0804 -1.2454 -0.7353
26133SOL     OW88328   7.107  11.946   2.054 -0.8222 -0.3643  0.0167
26133SOL    HW188329   7.112  11.943   1.958 -0.6873 -0.2986  0.0222
26133SOL    HW288330   7.039  12.012   2.071 -0.4288  0.0521 -0.0243
26134SOL     OW88331   5.214   6.771   3.108  0.1053 -0.3350  0.9680
26134SOL    HW188332   5.261   6.689   3.092  1.7192  0.9501 -1.4885
26134SOL    HW288333   5.282   6.832   3.137 -1.1305  0.1113  3.1070
26135SOL     OW88334   6.209   5.545   8.964  0.3936  0.4133  0.8305
26135SOL    HW188335   6.221   5.612   8.896  0.2692 -0.3835  0.0162
26135SOL    HW288336   6.136   5.492   8.934 -0.9445  1.2001  2.5432
26136SOL     OW88337  12.435   3.774  11.868  0.1391  0.6247 -0.7383
26136SOL    HW188338  12.514   3.763  11.923  0.4095 -0.4370 -1.3093
26136SOL    HW288339  12.467   3.819  11.790  0.4168 -0.7348 -1.4374
26137SOL     OW88340   6.140  11.686   6.302  0.2618  0.2834  0.6763
26137SOL    HW188341   6.075  11.751   6.328 -0.4932 -0.0970 -0.1904
26137SOL    HW288342   6.224  11.721   6.333 -0.4804  0.1241  3.0748
26138SOL     OW88343  13.156   2.770   1.381  0.1290  0.4070 -0.0778
26138SOL    HW188344  13.119   2.858   1.379 -2.7635 -0.7170 -0.4520
26138SOL    HW288345  13.184   2.754   1.291  3.5599  1.9488  0.5637
26139SOL     OW88346  10.205  11.135   5.281 -0.2104 -0.0319 -0.4535
26139SOL    HW188347  10.184  11.150   5.373 -0.9783 -0.8223 -0.4831
26139SOL    HW288348  10.282  11.189   5.264  0.0317  0.0002  0.6923
26140SOL     OW88349   2.096  10.008   9.672 -0.2896 -0.0487  0.3489
26140SOL    HW188350   2.154   9.954   9.726  2.4431 -0.3209 -2.5539
26140SOL    HW288351   2.044   9.944   9.623  1.0779 -0.1021 -1.1437
26141SOL     OW88352   1.845   3.798   0.712  0.0800  0.1905  0.1557
26141SOL    HW188353   1.829   3.875   0.766 -1.1316 -1.8937  3.0338
26141SOL    HW288354   1.929   3.815   0.670  0.0681  2.8424  1.0466
26142SOL     OW88355   9.244   1.818   4.735  0.1177 -0.1132  0.3586
26142SOL    HW188356   9.339   1.809   4.730 -0.0183 -0.9453 -1.4934
26142SOL    HW288357   9.210   1.732   4.709 -1.1401  0.3543  0.3823
26143SOL     OW88358   9.174   1.104   5.122  0.0565 -0.0169 -0.3087
26143SOL    HW188359   9.202   1.178   5.176  0.0209 -0.7967  0.8275
26143SOL    HW288360   9.254   1.055   5.105 -0.2279 -0.9930  0.9824
26144SOL     OW88361   2.510   4.134  10.420  0.5442  0.0535 -0.2367
26144SOL    HW188362   2.467   4.106  10.339 -0.9598  1.6617 -0.0320
26144SOL    HW288363   2.593   4.173  10.391  0.4348 -0.2011 -0.9061
26145SOL     OW88364   3.513   6.122   8.114 -0.0058  0.7882  0.4216
26145SOL    HW188365   3.441   6.151   8.170  1.2320  1.8991  1.4861
26145SOL    HW288366   3.587   6.178   8.137  1.4124 -0.7443 -0.1617
26146SOL     OW88367  12.273   8.533  10.068  0.0936 -0.8706 -0.4275
26146SOL    HW188368  12.300   8.486   9.990  0.2950 -1.5250  0.0303
26146SOL    HW288369  12.313   8.486  10.141  1.2388  0.6485 -0.0098
26147SOL     OW88370   4.424  10.485   5.945 -0.4280  0.0480  0.1674
26147SOL    HW188371   4.480  10.523   6.013 -0.1358  0.3879 -0.2579
26147SOL    HW288372   4.388  10.560   5.898  0.9638 -0.1674 -1.3347
26148SOL     OW88373   0.994  10.541  10.359  0.1440 -0.5495 -0.0320
26148SOL    HW188374   0.938  10.618  10.346 -0.6688 -0.6187  2.4875
26148SOL    HW288375   1.000  10.532  10.454  1.0115 -3.0390 -0.2540
26149SOL     OW88376  13.127   0.234  11.674 -0.1090  0.6066 -0.5359
26149SOL    HW188377  13.198   0.293  11.649 -1.0331  2.0714  0.1598
26149SOL    HW288378  13.115   0.249  11.767 -2.7980  2.1360 -1.0206
26150SOL     OW88379   9.451   8.499   9.392  0.6274  0.3514 -0.5804
26150SOL    HW188380   9.523   8.548   9.351  0.6636  0.1056 -0.8087
26150SOL    HW288381   9.495   8.432   9.444  0.5457 -0.3168 -1.3634
26151SOL     OW88382  12.250   0.872   5.151  0.4941 -0.1552 -0.3418
26151SOL    HW188383  12.327   0.824   5.182  0.5938  0.8802  1.1343
26151SOL    HW288384  12.176   0.826   5.189  0.4683 -0.3142 -0.5840
26152SOL     OW88385  12.246  11.691   2.538  0.4567 -0.1775 -0.0264
26152SOL    HW188386  12.229  11.765   2.597 -3.6377  1.5985 -2.9374
26152SOL    HW288387  12.312  11.723   2.477 -0.6911  0.8591 -0.7675
26153SOL     OW88388   2.068   6.734   6.391  0.1132  0.8768 -0.0798
26153SOL    HW188389   1.998   6.684   6.433  0.3876 -0.8460 -1.5818
26153SOL    HW288390   2.093   6.799   6.457 -1.6554  0.3856  1.1661
26154SOL     OW88391   1.642  10.081   9.797  0.4034 -0.4600 -0.5064
26154SOL    HW188392   1.736  10.086   9.776  0.3817  0.0093 -0.4985
26154SOL    HW288393   1.619   9.989   9.782  0.7902 -0.5077 -0.8191
26155SOL     OW88394  11.807   3.120  11.884 -0.4790 -0.4385  0.4938
26155SOL    HW188395  11.777   3.035  11.851  0.6507 -0.5164 -0.3791
26155SOL    HW288396  11.851   3.100  11.966  0.7753 -0.8675 -0.2617
26156SOL     OW88397   8.389  13.104   3.828 -0.0425  0.0847  0.1945
26156SOL    HW188398   8.310  13.060   3.860  0.3575 -0.7752  0.0397
26156SOL    HW288399   8.433  13.133   3.907  0.0572 -0.4603  0.3428
26157SOL     OW88400  13.166   9.344   0.577  0.0963 -0.4013 -0.1192
26157SOL    HW188401  13.121   9.296   0.647  0.1561 -0.4572 -0.1189
26157SOL    HW288402  13.096   9.376   0.521  0.0272 -0.0279  0.1777
26158SOL     OW88403   0.386  12.654   4.023  0.2137 -0.5563  0.2575
26158SOL    HW188404   0.369  12.719   3.955  0.3011 -0.4767  0.3114
26158SOL    HW288405   0.480  12.661   4.041  0.1511 -0.4172  0.5477
26159SOL     OW88406  12.125  10.001   8.113 -0.4696  0.3776  0.4472
26159SOL    HW188407  12.139  10.025   8.022 -1.0674  0.7772  0.4520
26159SOL    HW288408  12.204   9.954   8.138 -0.1149  0.6451 -0.1483
26160SOL     OW88409   1.034   7.560   0.240  0.4440  0.2099 -0.4184
26160SOL    HW188410   1.015   7.481   0.291  1.3825  0.4706  0.3526
26160SOL    HW288411   1.077   7.619   0.302 -0.5231  1.4627 -0.9033
26161SOL     OW88412   6.478   7.230  10.699  0.2251 -0.3010 -0.2693
26161SOL    HW188413   6.423   7.163  10.658  0.5121 -0.3790 -0.5322
26161SOL    HW288414   6.479   7.207  10.792  0.7613 -0.9725 -0.4364
26162SOL     OW88415   4.424   0.906   0.607 -0.6507  0.4149  0.5678
26162SOL    HW188416   4.449   0.831   0.660  0.4543  1.1219  1.0747
26162SOL    HW288417   4.500   0.965   0.610 -1.4351  1.4911  0.0678
26163SOL     OW88418  13.167  11.504   1.916 -0.0504 -0.3841 -0.2157
26163SOL    HW188419  13.122  11.457   1.986 -1.1721  1.5533  0.4492
26163SOL    HW288420  13.260  11.490   1.933 -0.3206 -0.5320  1.2550
26164SOL     OW88421   6.267  12.337   5.803 -0.0143 -0.0995 -0.4169
26164SOL    HW188422   6.260  12.406   5.737 -0.6822  0.3203  0.0797
26164SOL    HW288423   6.336  12.368   5.862 -1.1576  0.7797  0.5139
26165SOL     OW88424   4.479   5.005   4.266 -0.4929  0.4728 -0.1095
26165SOL    HW188425   4.435   5.034   4.186 -1.7035  0.0548  0.3765
26165SOL    HW288426   4.529   5.081   4.294 -1.0857  1.0515 -0.5757
26166SOL     OW88427   5.601  11.308   0.225  0.1253 -0.0652 -0.0833
26166SOL    HW188428   5.570  11.307   0.135  1.2444  0.3287 -0.4826
26166SOL    HW288429   5.589  11.399   0.254 -1.2425 -0.4088  0.5536
26167SOL     OW88430   0.052   9.596   1.307  0.5008  0.0292  0.8275
26167SOL    HW188431   0.071   9.512   1.348  1.5633  0.8954  2.2268
26167SOL    HW288432   0.069   9.582   1.214 -1.8156 -1.9557  0.6145
26168SOL     OW88433   3.342  13.099   4.504 -0.3601 -0.9682 -0.1458
26168SOL    HW188434   3.419  13.109   4.447  0.0783 -2.2280  0.1917
26168SOL    HW288435   3.295  13.024   4.468 -1.5138 -0.1313 -0.4173
26169SOL     OW88436  10.876   2.188   1.554 -0.3191  0.0646 -0.5886
26169SOL    HW188437  10.808   2.129   1.522 -0.9565  0.0040  0.8050
26169SOL    HW288438  10.837   2.275   1.550 -0.2956  0.0904 -0.2564
26170SOL     OW88439   2.832   0.501   8.640 -0.0625 -0.1019 -0.5919
26170SOL    HW188440   2.785   0.437   8.694  0.7061  1.9283  2.7986
26170SOL    HW288441   2.919   0.462   8.627  0.4140  0.1390  1.4664
26171SOL     OW88442  10.623   7.100   7.543  0.3369  0.0703 -0.0184
26171SOL    HW188443  10.584   7.070   7.461 -3.7115  0.3824  1.5583
26171SOL    HW288444  10.651   7.190   7.524 -0.0546 -0.0355 -1.1780
26172SOL     OW88445   8.158   6.000   1.319  0.2243 -0.5648  0.0807
26172SOL    HW188446   8.209   6.045   1.251  0.2166  1.2316  1.2027
26172SOL    HW288447   8.105   5.936   1.270  1.8696 -0.9119 -1.3366
26173SOL     OW88448   1.038   6.269   3.619 -0.1456  0.2610  0.0081
26173SOL    HW188449   1.001   6.221   3.692  0.3406 -0.3994 -0.1674
26173SOL    HW288450   1.133   6.263   3.631  0.0138  3.4731  1.4747
26174SOL     OW88451  11.924   1.221   1.643 -0.2314 -0.0776  0.0973
26174SOL    HW188452  11.923   1.159   1.570  3.7179  1.2581 -1.3266
26174SOL    HW288453  11.897   1.304   1.605 -0.3229  0.1811  0.7033
26175SOL     OW88454   3.295   7.179   0.133  0.2564 -0.4982  0.0589
26175SOL    HW188455   3.221   7.194   0.074  1.8157  2.7938 -1.3057
26175SOL    HW288456   3.356   7.126   0.081  1.4721  2.0974 -1.3630
26176SOL     OW88457   2.720   1.719   5.126 -0.2041 -0.3666  0.4657
26176SOL    HW188458   2.679   1.679   5.049 -0.4643 -0.5614  0.7025
26176SOL    HW288459   2.803   1.673   5.135 -0.6173 -1.0366  0.8888
26177SOL     OW88460   0.180   2.397   9.934 -0.3285 -0.3433 -0.2275
26177SOL    HW188461   0.157   2.304   9.930  1.4669 -0.8082 -2.7139
26177SOL    HW288462   0.223   2.414   9.850  0.6948  2.3949  0.7380
26178SOL     OW88463   8.957  11.519  11.478  0.3869  0.6300  0.4570
26178SOL    HW188464   8.977  11.435  11.437 -3.1346  1.0358 -2.6448
26178SOL    HW288465   9.032  11.575  11.456  0.3799 -0.2720 -2.2770
26179SOL     OW88466   2.003   5.843   3.015  0.3637  0.7216  0.1859
26179SOL    HW188467   1.919   5.869   2.976  0.8907  0.3264 -1.2859
26179SOL    HW288468   2.067   5.861   2.946  1.2469 -0.6832  0.6178
26180SOL     OW88469   0.661   4.687  10.233  0.2841  0.1044  0.4272
26180SOL    HW188470   0.698   4.776  10.230 -0.0956  0.2893  1.0068
26180SOL    HW288471   0.581   4.696  10.285 -0.0652 -0.4744 -0.0058
26181SOL     OW88472   8.518  10.566   7.035  0.0107 -0.6035 -0.0881
26181SOL    HW188473   8.534  10.653   6.998  0.2886 -0.3515  0.6023
26181SOL    HW288474   8.602  10.521   7.028  0.0606 -0.5608  0.2119
26182SOL     OW88475   9.227  12.007   5.893 -0.0701  0.0691 -0.5867
26182SOL    HW188476   9.144  12.037   5.854  0.7412  0.6626 -1.9379
26182SOL    HW288477   9.227  12.045   5.981 -2.2337 -1.7884  0.3061
26183SOL     OW88478   7.715   1.178   5.056  0.4838  0.3748  0.8539
26183SOL    HW188479   7.671   1.181   5.141 -1.3973  0.2546 -0.0654
26183SOL    HW288480   7.759   1.263   5.048  0.5310  0.4542  1.8448
26184SOL     OW88481   9.585   5.220  10.869 -0.5093  0.2983 -0.0336
26184SOL    HW188482   9.631   5.300  10.896 -0.6883 -0.3492  2.4022
26184SOL    HW288483   9.612   5.154  10.933 -0.8194 -1.4803 -1.6474
26185SOL     OW88484   3.593   7.358  11.517 -0.8662  0.1700 -0.0902
26185SOL    HW188485   3.622   7.433  11.569 -2.0169 -0.1310  1.0344
26185SOL    HW288486   3.559   7.296  11.581  0.0040 -1.3179 -1.0005
26186SOL     OW88487   1.530   2.960   0.772 -0.3988 -0.1207 -0.5218
26186SOL    HW188488   1.599   3.020   0.744 -1.5352  1.8208  0.6186
26186SOL    HW288489   1.532   2.963   0.867 -0.2740 -2.2265 -0.4067
26187SOL     OW88490  10.742   1.578   0.749 -0.2353  0.0564 -0.6825
26187SOL    HW188491  10.686   1.625   0.687  0.3121  0.5624 -0.8022
26187SOL    HW288492  10.805   1.532   0.693  0.1721  0.4029 -0.5160
26188SOL     OW88493   2.883   5.976  11.413  0.1467 -0.4005  0.3960
26188SOL    HW188494   2.968   5.971  11.370 -0.3008 -0.9381 -0.4630
26188SOL    HW288495   2.896   5.933  11.497  0.8548  0.0018  0.4994
26189SOL     OW88496   4.622  10.013   8.237 -0.2543  0.2051  0.6017
26189SOL    HW188497   4.565   9.971   8.173 -1.3393  0.0802  1.6011
26189SOL    HW288498   4.562  10.063   8.292  0.9217  2.5264 -0.1123
26190SOL     OW88499   5.894   3.964  10.254  0.2815 -0.3461  0.3859
26190SOL    HW188500   5.865   3.928  10.170  0.9726  2.9321 -1.4607
26190SOL    HW288501   5.990   3.962  10.249  0.4672  3.0839 -0.7149
26191SOL     OW88502   7.736   2.958   2.333  0.6244 -0.3983 -0.7973
26191SOL    HW188503   7.675   3.009   2.387 -0.7069 -0.2199 -2.4048
26191SOL    HW288504   7.822   2.987   2.362 -0.0158  3.3647 -2.0922
26192SOL     OW88505  11.789   5.623   1.776 -0.7367  0.6435 -0.3866
26192SOL    HW188506  11.815   5.695   1.833  2.0797 -0.3204 -0.2838
26192SOL    HW288507  11.806   5.544   1.828 -3.2162 -0.1612 -0.6922
26193SOL     OW88508   2.455   9.935  13.068 -0.4508  0.1899  0.4755
26193SOL    HW188509   2.410   9.988  13.134 -2.8543 -1.2503  0.1243
26193SOL    HW288510   2.468   9.994  12.994 -1.1857  0.8433  0.8549
26194SOL     OW88511   1.485   5.053   1.466 -0.4388  0.5372  0.2206
26194SOL    HW188512   1.397   5.022   1.488 -0.1080 -1.5681 -1.1245
26194SOL    HW288513   1.482   5.067   1.371  0.1412  2.4228  0.4516
26195SOL     OW88514  10.965  12.585   8.598 -0.4373  0.0261 -1.0325
26195SOL    HW188515  10.989  12.501   8.639  1.9772  0.2170 -1.8712
26195SOL    HW288516  10.937  12.640   8.671 -1.0818 -1.1951 -0.3374
26196SOL     OW88517  11.208   0.655  13.025 -0.0195  0.1562 -0.3076
26196SOL    HW188518  11.231   0.603  13.102 -1.1324 -0.8840 -0.6485
26196SOL    HW288519  11.275   0.724  13.022  1.7242 -1.4238 -0.0109
26197SOL     OW88520   4.164   5.510   6.953  0.0789  0.7000  0.6735
26197SOL    HW188521   4.219   5.572   6.905 -1.5859  1.4899 -0.3095
26197SOL    HW288522   4.187   5.522   7.045  1.1621  1.3666  0.3188
26198SOL     OW88523   5.497   1.172   8.736  0.4915 -0.9876 -0.2879
26198SOL    HW188524   5.459   1.258   8.754  0.1661 -1.0170 -0.8189
26198SOL    HW288525   5.511   1.171   8.641  1.1800 -1.2429 -0.1903
26199SOL     OW88526  11.254  11.274  10.035  0.7574 -0.3159  0.0335
26199SOL    HW188527  11.218  11.321  10.110 -1.6292  3.1356 -2.8498
26199SOL    HW288528  11.205  11.192  10.032  2.0595 -1.3253  2.9551
26200SOL     OW88529   6.211  11.009   2.376 -0.4798 -0.2564  0.1265
26200SOL    HW188530   6.148  11.066   2.331 -0.8361 -0.6249  0.1542
26200SOL    HW288531   6.295  11.053   2.364 -0.6796  0.0276 -0.2705
26201SOL     OW88532  13.183   3.428   8.965  0.4453 -0.2466  0.3285
26201SOL    HW188533  13.121   3.399   9.031  1.7268  2.1007  2.7217
26201SOL    HW288534  13.142   3.504   8.924  0.1101 -1.0672 -0.9357
26202SOL     OW88535  12.118   2.454  10.609 -0.5754  0.3569  0.5694
26202SOL    HW188536  12.197   2.491  10.647 -0.1596  0.2757 -0.2128
26202SOL    HW288537  12.116   2.364  10.642  0.5818 -0.1856 -0.7520
26203SOL     OW88538   7.687   9.405   5.543  0.7276  0.4960 -0.3366
26203SOL    HW188539   7.766   9.406   5.596 -0.3338  2.7298  1.3833
26203SOL    HW288540   7.650   9.493   5.553 -2.2751 -0.6119 -0.5872
26204SOL     OW88541  12.828  12.106   8.312 -0.1883  0.6463  0.4775
26204SOL    HW188542  12.736  12.106   8.282 -0.0048  0.1789 -0.1143
26204SOL    HW288543  12.827  12.051   8.390 -0.4192  0.6598  0.4871
26205SOL     OW88544  10.045   0.474   5.179  0.3464 -0.3679  0.3650
26205SOL    HW188545   9.976   0.422   5.222  0.9030 -0.8592  0.6807
26205SOL    HW288546  10.112   0.484   5.246  0.1928  0.8942  0.3485
26206SOL     OW88547   7.168   3.652   2.296  0.1769 -0.2460 -0.8849
26206SOL    HW188548   7.111   3.724   2.268 -2.1604 -1.0489  1.4595
26206SOL    HW288549   7.114   3.574   2.287  1.1472 -1.1488  0.7114
26207SOL     OW88550  13.120   2.080   5.678  0.7126 -0.0070  0.6849
26207SOL    HW188551  13.181   2.047   5.611  0.0948  1.2255 -0.5519
26207SOL    HW288552  13.176   2.132   5.736  0.7927  2.1041 -1.1092
26208SOL     OW88553   5.769   8.204  10.032 -0.3609 -0.0515 -0.6883
26208SOL    HW188554   5.805   8.123   9.996 -1.4053 -0.7054 -0.2751
26208SOL    HW288555   5.699   8.176  10.090  0.0234  1.0921  0.3700
26209SOL     OW88556  12.304   0.468   2.079 -0.4958 -0.2409  0.2851
26209SOL    HW188557  12.361   0.391   2.088 -1.0008 -0.8492 -1.2822
26209SOL    HW288558  12.316   0.517   2.160  1.7905 -0.6726  0.2932
26210SOL     OW88559   9.926  11.371   7.566  0.1112  0.0076 -0.0917
26210SOL    HW188560   9.856  11.435   7.551 -0.5215 -1.1604 -2.7233
26210SOL    HW288561   9.977  11.407   7.638 -2.9671  1.0878  1.7147
26211SOL     OW88562  13.022   0.435   5.810  0.2397 -0.0230 -0.7087
26211SOL    HW188563  13.072   0.484   5.745 -0.2467 -1.3790 -2.1768
26211SOL    HW288564  13.077   0.359   5.830 -0.5731 -0.7776 -1.2555
26212SOL     OW88565   1.987   2.014   3.834  0.6086  0.4274  0.2126
26212SOL    HW188566   1.927   2.080   3.799 -0.3250 -1.3398 -1.7823
26212SOL    HW288567   1.948   1.930   3.808  2.7989 -0.8609  0.8213
26213SOL     OW88568  10.512   8.797   3.856 -0.6439 -0.5146  0.7744
26213SOL    HW188569  10.481   8.749   3.933 -0.3715  0.2408  1.3690
26213SOL    HW288570  10.462   8.878   3.858  0.8329  0.4123  1.3473
26214SOL     OW88571   8.908   9.037   8.859 -0.9452  0.1881  0.3222
26214SOL    HW188572   8.994   9.073   8.837 -0.3208 -2.3976 -2.0802
26214SOL    HW288573   8.851   9.064   8.786 -1.5406 -0.1685  0.6438
26215SOL     OW88574   8.308  11.867   7.684 -0.3440  1.0279 -0.1269
26215SOL    HW188575   8.311  11.961   7.667 -0.0409  0.6860 -2.2477
26215SOL    HW288576   8.234  11.835   7.632 -0.9296  0.1868  1.1835
26216SOL     OW88577   4.311   4.974  11.922  0.3757 -0.7792  0.0944
26216SOL    HW188578   4.280   4.936  11.841  0.6281 -2.1966  0.6284
26216SOL    HW288579   4.307   4.902  11.985 -2.3962  0.9165  2.0728
26217SOL     OW88580   3.345   1.568   2.050  0.2121 -0.0307 -0.2668
26217SOL    HW188581   3.280   1.573   2.120 -1.8987  0.7890 -2.1483
26217SOL    HW288582   3.425   1.601   2.089 -0.9783  0.7478  1.6518
26218SOL     OW88583   1.664   1.628   4.318  0.4707 -0.5475 -0.0705
26218SOL    HW188584   1.608   1.629   4.240  1.2894 -0.9550 -0.6838
26218SOL    HW288585   1.670   1.536   4.342 -0.1396 -0.3795  0.7505
26219SOL     OW88586   2.937   7.812   2.837 -0.0027  0.7789  0.1928
26219SOL    HW188587   2.848   7.825   2.804  0.4058 -0.2869 -1.4888
26219SOL    HW288588   2.933   7.837   2.929 -1.8575  1.4567 -0.0324
26220SOL     OW88589  11.532   6.967   0.457 -0.1231 -0.2130 -0.0277
26220SOL    HW188590  11.490   7.022   0.523  0.7264  1.0219 -0.4618
26220SOL    HW288591  11.483   6.986   0.377 -0.5052 -0.9150  0.0419
26221SOL     OW88592   2.673   7.894   8.796  0.2659 -0.0370  0.1443
26221SOL    HW188593   2.720   7.850   8.867 -0.1246  2.4446  2.0526
26221SOL    HW288594   2.740   7.912   8.730  0.8291 -1.4647  0.2823
26222SOL     OW88595   5.320   9.097   4.175  0.1120  0.5844 -0.3083
26222SOL    HW188596   5.369   9.080   4.255 -0.1304 -0.3486 -0.3399
26222SOL    HW288597   5.232   9.120   4.205 -0.0140  0.1098 -0.2964
26223SOL     OW88598  12.507  11.468   4.616  0.4374  0.7421  0.3375
26223SOL    HW188599  12.555  11.545   4.646  0.3111  1.1217 -0.4126
26223SOL    HW288600  12.422  11.503   4.588  1.2675  0.7620 -2.4485
26224SOL     OW88601   9.855   8.613   4.328 -0.0485  0.8203  0.0179
26224SOL    HW188602   9.940   8.648   4.354  0.5000 -0.3396 -0.1709
26224SOL    HW288603   9.835   8.657   4.246  0.5349  0.8403 -0.1150
26225SOL     OW88604   7.643   6.172  10.406  0.6317 -0.5494 -0.1243
26225SOL    HW188605   7.615   6.090  10.365 -0.0097 -0.3648 -0.0603
26225SOL    HW288606   7.698   6.214  10.341 -1.0257  0.1316 -1.1536
26226SOL     OW88607   7.119   0.877  13.194 -0.0715  0.1390 -0.4204
26226SOL    HW188608   7.043   0.930  13.172 -0.5867 -0.2030  0.5039
26226SOL    HW288609   7.116   0.805  13.131  0.8488  1.3597 -1.9352
26227SOL     OW88610   5.964  12.624   8.317 -0.1626 -0.2831  0.9230
26227SOL    HW188611   5.989  12.559   8.250  0.3392 -0.8043  1.6029
26227SOL    HW288612   5.956  12.706   8.268 -0.2189 -0.7393  0.1465
26228SOL     OW88613   0.924   0.656  13.087  0.3991  0.3302 -0.4725
26228SOL    HW188614   0.984   0.620  13.021  0.7712 -0.4385  0.2650
26228SOL    HW288615   0.880   0.728  13.042  0.9529  0.0965 -1.4288
26229SOL     OW88616  11.370   3.164   6.975 -0.5909  0.2126 -0.1833
26229SOL    HW188617  11.454   3.209   6.971 -0.6474  0.3722  0.3740
26229SOL    HW288618  11.361   3.121   6.890  0.6980 -1.0079  0.2713
26230SOL     OW88619   8.996   9.598   2.058  0.7192  0.1780  0.2357
26230SOL    HW188620   8.936   9.656   2.107 -0.8338 -1.0198 -0.1601
26230SOL    HW288621   9.067   9.656   2.030 -0.3271  1.7163  0.5969
26231SOL     OW88622  11.168   6.468   4.134 -0.8902 -0.3106  0.5190
26231SOL    HW188623  11.200   6.556   4.115 -1.8547 -0.0583 -0.0390
26231SOL    HW288624  11.157   6.427   4.048  0.7376 -1.4395  0.8130
26232SOL     OW88625   2.026   0.834  12.831  0.6689 -0.0388 -0.0950
26232SOL    HW188626   2.060   0.900  12.892  0.7773  1.3730 -1.6206
26232SOL    HW288627   1.932   0.850  12.829  0.2780 -1.7495  1.5578
26233SOL     OW88628   4.815   7.151   8.871 -0.0556 -0.1445  0.7188
26233SOL    HW188629   4.875   7.225   8.865 -2.4691  1.9499  1.0224
26233SOL    HW288630   4.830   7.115   8.959  0.1576  0.8980  1.1180
26234SOL     OW88631   0.563   9.028   0.188 -0.5636  0.5721  0.0320
26234SOL    HW188632   0.505   9.060   0.120  0.4668  0.3321 -0.9920
26234SOL    HW288633   0.561   8.932   0.179 -1.0608  0.4848  0.8992
26235SOL     OW88634   4.811  13.205   1.369 -0.2529  0.1109 -0.7823
26235SOL    HW188635   4.745  13.210   1.438 -0.1153 -0.6294 -0.5833
26235SOL    HW288636   4.766  13.235   1.291 -0.5821  0.4090 -0.4801
26236SOL     OW88637   4.791   3.021   3.454 -0.1630 -0.0174 -0.3640
26236SOL    HW188638   4.700   3.025   3.482 -0.2022  0.2830 -0.5271
26236SOL    HW288639   4.787   2.996   3.362 -0.1377  1.0358 -0.6647
26237SOL     OW88640  10.351   6.161  11.450  0.6258 -0.4464 -0.3689
26237SOL    HW188641  10.438   6.122  11.442  0.5517 -1.2066  1.8943
26237SOL    HW288642  10.299   6.116  11.384  1.6257 -0.9522 -0.8367
26238SOL     OW88643  12.932   2.565   9.444  0.4017 -0.1467  0.3988
26238SOL    HW188644  12.990   2.541   9.372 -0.6644 -0.4974 -0.3632
26238SOL    HW288645  12.969   2.523   9.521 -0.7866 -3.4518 -0.6772
26239SOL     OW88646   1.686   5.383   5.937 -0.8319 -0.9319 -0.5090
26239SOL    HW188647   1.737   5.381   5.857 -2.5582 -1.4029 -1.6516
26239SOL    HW288648   1.609   5.436   5.915 -1.3629 -1.1088  0.8204
26240SOL     OW88649  10.689   6.225   2.780 -0.2969  0.6198  0.1511
26240SOL    HW188650  10.702   6.259   2.869  0.1055 -0.7064  0.6381
26240SOL    HW288651  10.710   6.132   2.788  0.6060  0.6418 -1.5292
26241SOL     OW88652   6.809   9.585   7.984  0.8870  0.4359 -0.2862
26241SOL    HW188653   6.816   9.563   7.891  0.7775  0.1078 -0.2197
26241SOL    HW288654   6.761   9.668   7.986 -3.0223 -1.5758 -0.3821
26242SOL     OW88655  10.329  10.274   5.004 -0.5433 -0.8188  0.2288
26242SOL    HW188656  10.342  10.341   5.071  0.4559 -1.6136  0.8623
26242SOL    HW288657  10.417  10.255   4.973 -1.0351 -0.0889 -1.7203
26243SOL     OW88658   8.221   0.332   5.162 -0.1187  0.0654 -0.2052
26243SOL    HW188659   8.175   0.282   5.095 -0.3825  1.9706 -1.4963
26243SOL    HW288660   8.314   0.313   5.148 -0.2079  0.0661 -0.7908
26244SOL     OW88661  10.249   3.377   5.355 -0.1908 -0.2287  0.1262
26244SOL    HW188662  10.311   3.365   5.283 -0.8767 -0.9256 -0.3593
26244SOL    HW288663  10.167   3.342   5.322 -0.6042 -0.2187  1.1203
26245SOL     OW88664   2.885   1.541  11.157 -0.0171 -0.1609 -0.2187
26245SOL    HW188665   2.902   1.635  11.144  0.6957 -0.1065  0.9857
26245SOL    HW288666   2.801   1.538  11.202 -0.5625 -0.1667 -1.2084
26246SOL     OW88667   6.095   9.443  10.055  0.2690  0.2499  0.3072
26246SOL    HW188668   6.048   9.360  10.043 -0.7940  0.3473  3.0570
26246SOL    HW288669   6.183   9.418  10.082  0.5789  0.0624 -0.8209
26247SOL     OW88670   5.711  11.752  11.557 -0.1109 -0.0981  0.1197
26247SOL    HW188671   5.771  11.719  11.624  0.6539  0.0326 -0.4850
26247SOL    HW288672   5.664  11.674  11.527  1.1295 -0.5519 -0.7486
26248SOL     OW88673  10.432   7.556   1.003 -0.4447 -0.0595 -0.5322
26248SOL    HW188674  10.486   7.623   1.044  1.3243 -0.5605 -1.9284
26248SOL    HW288675  10.451   7.476   1.052 -1.4415  0.1345  0.2035
26249SOL     OW88676   7.317   7.661  10.982 -0.0979 -0.1106  0.1218
26249SOL    HW188677   7.306   7.666  11.077  0.6682 -2.4451  0.3948
26249SOL    HW288678   7.241   7.708  10.947 -0.5345  0.5721  1.8738
26250SOL     OW88679   1.957  12.629  12.115 -0.0880 -0.6601  0.0085
26250SOL    HW188680   2.040  12.648  12.157 -0.8259 -0.1875  1.3088
26250SOL    HW288681   1.966  12.539  12.082  1.4810 -0.0682 -1.3152
26251SOL     OW88682  12.983   1.285  12.349 -0.4519  0.3071 -0.6465
26251SOL    HW188683  12.974   1.231  12.270 -1.7935  0.5799 -0.7064
26251SOL    HW288684  13.077   1.292  12.362 -0.0856 -3.8211  0.5744
26252SOL     OW88685   1.064  11.448   0.614  0.6893 -0.2161 -0.2539
26252SOL    HW188686   1.120  11.370   0.616 -0.2376 -0.8964  2.0482
26252SOL    HW288687   1.000  11.429   0.545  0.9237 -1.1644 -0.2256
26253SOL     OW88688  12.885   6.449   9.579  0.0417 -0.6415  0.4850
26253SOL    HW188689  12.936   6.452   9.498  0.0414  0.3447  0.5167
26253SOL    HW288690  12.923   6.376   9.628  0.1032 -1.1864 -0.3556
26254SOL     OW88691  12.084  11.907   6.133  0.8837 -0.5538  0.3478
26254SOL    HW188692  12.091  11.929   6.040  1.4415 -1.2185  0.2238
26254SOL    HW288693  12.014  11.842   6.137 -0.4500  0.8418  0.6556
26255SOL     OW88694   4.501   3.482   5.709  0.7625 -0.2241  0.2692
26255SOL    HW188695   4.464   3.557   5.662 -0.7471  0.6012  2.5799
26255SOL    HW288696   4.574   3.454   5.655  0.4419  1.9618 -1.4602
26256SOL     OW88697   0.632  12.933  12.216 -0.4627 -0.1720  0.5067
26256SOL    HW188698   0.683  12.986  12.277  1.8079 -0.8011 -0.7410
26256SOL    HW288699   0.659  12.843  12.234 -0.2992 -0.4278 -0.9097
26257SOL     OW88700   1.097   8.865   7.602  0.3350 -0.0661  0.1627
26257SOL    HW188701   1.087   8.895   7.512 -1.2135 -0.1813  0.2766
26257SOL    HW288702   1.162   8.795   7.597 -0.5636 -0.8550 -1.0646
26258SOL     OW88703  11.564  11.439   9.537  0.0085  0.2534 -0.4525
26258SOL    HW188704  11.620  11.489   9.478  0.6240 -1.2178 -1.1707
26258SOL    HW288705  11.528  11.369   9.483 -1.7864  0.5770  0.2321
26259SOL     OW88706  11.059  12.673   4.288  0.0505  0.3841  0.7440
26259SOL    HW188707  10.988  12.683   4.225  1.4795 -0.1538 -1.0494
26259SOL    HW288708  11.038  12.734   4.358 -3.6774 -1.8183  1.8036
26260SOL     OW88709   4.410   1.780   7.009 -0.0302  0.3164  0.0769
26260SOL    HW188710   4.499   1.748   7.023 -0.1848  0.2729  0.9916
26260SOL    HW288711   4.409   1.807   6.917  1.4044  1.8226  0.4611
26261SOL     OW88712   1.597   6.743   3.453  0.1623 -0.1944 -0.9754
26261SOL    HW188713   1.587   6.801   3.378 -0.0963  2.4399  0.9475
26261SOL    HW288714   1.657   6.789   3.512 -3.4170  0.4614  2.6129
26262SOL     OW88715   6.064   2.295  11.186  0.6918 -0.0534  0.6962
26262SOL    HW188716   5.986   2.273  11.135 -0.1843 -0.9071  2.3257
26262SOL    HW288717   6.035   2.368  11.241  1.2763  0.0864  0.8185
26263SOL     OW88718   7.255   4.503  11.485 -0.6390 -1.0239 -0.3978
26263SOL    HW188719   7.262   4.548  11.401 -1.1079 -2.3550 -1.1839
26263SOL    HW288720   7.286   4.566  11.549 -2.2694  0.7947 -1.3235
26264SOL     OW88721  11.308   7.316  13.041 -0.1274  0.5781 -0.4541
26264SOL    HW188722  11.396   7.283  13.024  0.8251  2.2124  0.9207
26264SOL    HW288723  11.280   7.355  12.958  0.6748  0.5073 -0.7626
26265SOL     OW88724  10.931   9.014  11.096  0.6937 -0.4127 -0.3075
26265SOL    HW188725  10.988   8.984  11.167  0.4557 -2.1447 -0.7908
26265SOL    HW288726  10.849   8.967  11.109 -0.0934  0.8652 -0.5285
26266SOL     OW88727  11.591   5.185  11.801  1.1293 -0.1146  0.8534
26266SOL    HW188728  11.635   5.128  11.738  2.1428 -0.7923  2.1304
26266SOL    HW288729  11.524   5.129  11.841 -0.2103  0.6022 -0.3027
26267SOL     OW88730   7.726  13.095   8.070 -0.3866 -0.9928  0.0291
26267SOL    HW188731   7.764  13.096   7.982 -1.1526  0.9213 -0.3264
26267SOL    HW288732   7.647  13.149   8.063  0.0674  0.0472  2.0944
26268SOL     OW88733   8.724   2.006   1.781 -0.0993  0.5176  0.3469
26268SOL    HW188734   8.681   1.997   1.867 -0.8778 -2.6795 -0.2414
26268SOL    HW288735   8.679   2.080   1.740 -1.9973  0.0757  1.4757
26269SOL     OW88736   0.030   2.808  10.623  0.1222  0.1233 -0.7340
26269SOL    HW188737   0.070   2.832  10.707 -1.1269 -0.0594 -0.0557
26269SOL    HW288738  -0.018   2.727  10.642 -0.0074 -0.0318 -1.6827
26270SOL     OW88739   1.508   4.745  10.226 -0.5047 -0.4336  0.1535
26270SOL    HW188740   1.442   4.811  10.204  0.1890 -0.3650 -1.9377
26270SOL    HW288741   1.569   4.790  10.284 -0.1226  0.7908 -1.1231
26271SOL     OW88742   7.340   4.614   2.283  0.1460  0.0255 -0.5446
26271SOL    HW188743   7.406   4.545   2.283  0.1972  0.0561  0.6777
26271SOL    HW288744   7.301   4.610   2.370 -0.4045  1.0227 -0.7316
26272SOL     OW88745   1.247   4.307   2.708  0.3184  0.3969  0.0102
26272SOL    HW188746   1.208   4.363   2.642  0.4192  0.2271 -0.1962
26272SOL    HW288747   1.195   4.322   2.787  0.2357  0.6441 -0.0914
26273SOL     OW88748   0.070  11.079   9.214  0.0053 -0.0653  0.4878
26273SOL    HW188749   0.150  11.028   9.227 -1.1174 -2.1133 -0.1201
26273SOL    HW288750   0.099  11.170   9.214  2.1499 -0.6827  1.4850
26274SOL     OW88751  12.767   9.673   0.418 -0.0157 -0.7043  0.0449
26274SOL    HW188752  12.711   9.658   0.494 -0.7538 -0.3994 -0.4324
26274SOL    HW288753  12.721   9.631   0.345  0.2161 -0.1799 -0.4105
26275SOL     OW88754   0.368   8.991   0.856 -0.0255 -0.0542 -0.4891
26275SOL    HW188755   0.383   8.947   0.773 -0.5970  2.3784 -1.9840
26275SOL    HW288756   0.450   9.037   0.874 -0.0729 -0.1685  0.0252
26276SOL     OW88757  12.623  13.012   9.404  0.4780  0.2844 -0.2495
26276SOL    HW188758  12.676  12.974   9.334 -0.0743  1.2577 -1.2249
26276SOL    HW288759  12.675  13.000   9.483  0.3575 -2.4734 -0.4893
26277SOL     OW88760  13.057  10.671  10.599  0.4106 -0.3107  0.7371
26277SOL    HW188761  13.149  10.696  10.597 -0.1186  1.7048 -0.3362
26277SOL    HW288762  13.033  10.674  10.692  1.6326 -1.8774  1.1562
26278SOL     OW88763   1.557   7.086   0.226  0.0979  0.3365  0.0555
26278SOL    HW188764   1.563   7.132   0.310  0.4113 -0.6799  0.6071
26278SOL    HW288765   1.554   7.156   0.161 -2.7267  1.2424  1.0125
26279SOL     OW88766   4.758   5.621  13.074  0.2568 -0.6493 -0.7917
26279SOL    HW188767   4.844   5.627  13.116  0.1969 -0.2163 -0.7195
26279SOL    HW288768   4.775   5.648  12.983  0.0460  0.3071 -0.5598
26280SOL     OW88769   7.782   9.557   2.325 -0.0462 -0.0723 -0.7211
26280SOL    HW188770   7.776   9.473   2.371  2.7802  0.5732  1.0714
26280SOL    HW288771   7.737   9.542   2.242 -2.7569 -2.2455  0.9661
26281SOL     OW88772   4.964   2.071   1.694  0.2715 -0.5036 -0.3007
26281SOL    HW188773   4.887   2.120   1.665  0.0811 -1.1484 -0.8911
26281SOL    HW288774   4.983   2.010   1.623  0.2191 -1.6295  0.6174
26282SOL     OW88775   6.451   4.729   0.432 -0.1747  0.4630 -0.4505
26282SOL    HW188776   6.475   4.638   0.451 -0.8232  0.5783  1.0857
26282SOL    HW288777   6.480   4.778   0.509 -1.1233  1.3270 -0.6195
26283SOL     OW88778   6.276  10.152   4.344  0.2153 -0.1664  0.2680
26283SOL    HW188779   6.357  10.107   4.369  0.9486  0.5780 -0.6628
26283SOL    HW288780   6.216  10.082   4.320 -0.0803 -0.8431  2.7045
26284SOL     OW88781   1.919  12.775   8.415 -0.5084  0.1883 -0.2544
26284SOL    HW188782   1.953  12.863   8.430 -1.4370  0.8523 -1.8274
26284SOL    HW288783   1.884  12.777   8.326 -2.4159 -1.1638  0.3988
26285SOL     OW88784   5.594  10.300  10.445  0.2499 -0.0714  0.2355
26285SOL    HW188785   5.592  10.365  10.374  1.4837 -0.9635 -0.6556
26285SOL    HW288786   5.599  10.353  10.525  1.1283  0.9557 -0.4600
26286SOL     OW88787  13.233   5.967   8.471 -0.0452  0.3906  0.5525
26286SOL    HW188788  13.241   6.039   8.409  0.8082 -0.0762  0.1005
26286SOL    HW288789  13.179   5.902   8.426  0.2949  0.1923  0.4279
26287SOL     OW88790   3.215   1.239   1.476 -0.3676  0.0915  0.4366
26287SOL    HW188791   3.201   1.146   1.489  1.9531 -0.1419  1.8287
26287SOL    HW288792   3.201   1.279   1.562  3.4428  0.2265  1.1878
26288SOL     OW88793   3.449   9.901   3.068 -0.2270  0.0711  0.6845
26288SOL    HW188794   3.388   9.965   3.032  0.3470  0.9477  1.2114
26288SOL    HW288795   3.497   9.950   3.135  0.7507 -0.7104  0.5758
26289SOL     OW88796   4.538   7.939   6.848 -0.0218  0.3052  0.1344
26289SOL    HW188797   4.619   7.989   6.835 -0.7851  1.3222 -0.9886
26289SOL    HW288798   4.523   7.941   6.942  0.6645  1.1120  0.2393
26290SOL     OW88799   3.307   7.029   2.624 -0.1665  1.1143  0.1358
26290SOL    HW188800   3.389   7.039   2.574  0.2892  0.4672  0.7306
26290SOL    HW288801   3.241   7.013   2.557 -0.0644  3.0113 -0.4607
26291SOL     OW88802   5.622  11.523   2.797 -0.5100  0.2973  0.0441
26291SOL    HW188803   5.658  11.557   2.715  1.3655 -0.4946  0.4879
26291SOL    HW288804   5.697  11.483   2.841 -1.2275  1.6534  2.6677
26292SOL     OW88805  10.504   5.484  11.963 -0.3859  0.1921 -0.0924
26292SOL    HW188806  10.429   5.544  11.959 -0.2558  0.5185  1.5131
26292SOL    HW288807  10.465   5.397  11.956 -0.7972  0.3950 -0.3893
26293SOL     OW88808   8.476   2.377  11.840 -0.3277  0.0806  0.6529
26293SOL    HW188809   8.474   2.469  11.867  0.3194 -0.1216  1.4239
26293SOL    HW288810   8.568   2.357  11.829 -0.4541 -0.5125  0.6295
26294SOL     OW88811   0.424  12.768   8.505  0.1863  0.5072  0.3465
26294SOL    HW188812   0.330  12.752   8.513  0.1671  0.1911 -0.3517
26294SOL    HW288813   0.432  12.820   8.425  0.8321 -2.2232 -1.5058
26295SOL     OW88814   1.807   8.804   8.629 -0.2698  0.6997 -0.1789
26295SOL    HW188815   1.741   8.776   8.693 -1.2289  2.5737 -0.2567
26295SOL    HW288816   1.803   8.900   8.633  1.4660  0.8442 -1.2332
26296SOL     OW88817   0.608   9.542   0.789 -0.5585 -0.5591 -0.5615
26296SOL    HW188818   0.700   9.522   0.808 -0.3437 -1.2206 -2.1614
26296SOL    HW288819   0.596   9.630   0.823  1.0543  0.0558 -1.4612
26297SOL     OW88820  11.263   3.509   9.790  0.2600  0.4978 -0.0087
26297SOL    HW188821  11.343   3.457   9.800  0.3413  0.3855 -1.0925
26297SOL    HW288822  11.192   3.445   9.797  0.3369  0.3263 -0.6796
26298SOL     OW88823   1.660   4.326   9.975 -0.7142 -0.4999  0.4410
26298SOL    HW188824   1.687   4.260   9.911 -1.0257 -2.1836  1.9574
26298SOL    HW288825   1.564   4.327   9.970 -0.7086 -0.0976  0.3696
26299SOL     OW88826  10.653   6.516   1.107  0.1038  0.3642 -0.2557
26299SOL    HW188827  10.656   6.602   1.148 -2.0861  1.7565 -2.6577
26299SOL    HW288828  10.587   6.468   1.157  1.7086 -0.1740  1.4161
26300SOL     OW88829   5.306   1.997   3.033 -0.1440 -0.3068  0.1175
26300SOL    HW188830   5.280   1.909   3.006 -0.1727 -0.5881  1.0265
26300SOL    HW288831   5.249   2.017   3.108  1.0033 -0.1928  0.9855
26301SOL     OW88832   6.713   7.854   4.131  0.6915 -0.3036  0.1783
26301SOL    HW188833   6.664   7.842   4.049 -0.2138  2.3386  0.2389
26301SOL    HW288834   6.774   7.926   4.112  0.4552  0.3652  1.8069
26302SOL     OW88835   7.421   5.486   1.905  0.3119  0.0787  0.1955
26302SOL    HW188836   7.407   5.437   1.987  1.9770  0.1280  0.5390
26302SOL    HW288837   7.462   5.423   1.846  0.5538  0.4797 -0.0687
26303SOL     OW88838   8.652   9.096   3.887 -0.4890 -0.1092  0.0621
26303SOL    HW188839   8.663   9.172   3.944 -0.9423  0.6797 -0.8855
26303SOL    HW288840   8.735   9.048   3.895 -0.5890 -0.0841  1.4658
26304SOL     OW88841   2.846  11.078   9.881  0.1305  0.1256 -0.2253
26304SOL    HW188842   2.898  11.096   9.960 -1.3642 -1.9627  1.3375
26304SOL    HW288843   2.763  11.122   9.896  0.4599  1.3015 -1.5681
26305SOL     OW88844   9.219   5.373   2.684 -0.2271 -0.0566  0.3266
26305SOL    HW188845   9.158   5.336   2.748  2.3498 -0.3400  2.8074
26305SOL    HW288846   9.227   5.465   2.708  0.9699 -0.2257  0.6641
26306SOL     OW88847   4.808   3.150   5.470  0.1787  0.4054 -0.3884
26306SOL    HW188848   4.818   3.185   5.381  0.7336  1.5477  0.0939
26306SOL    HW288849   4.730   3.194   5.504  0.3179  0.4405 -0.1109
26307SOL     OW88850   4.641   3.824  12.917 -0.2831 -0.6400 -0.4422
26307SOL    HW188851   4.594   3.859  12.992  1.3651 -2.3342  1.5438
26307SOL    HW288852   4.726   3.867  12.919 -1.1264  1.4412 -3.2004
26308SOL     OW88853   7.356   9.325   1.572 -0.4649  0.3137 -0.1822
26308SOL    HW188854   7.426   9.259   1.571  0.5352  1.2580  1.6723
26308SOL    HW288855   7.388   9.395   1.516 -0.3017  0.3695 -0.0209
26309SOL     OW88856   1.218   0.088   1.682 -0.5080 -0.1870  0.9737
26309SOL    HW188857   1.199  -0.003   1.660 -0.1575 -0.4004  1.5146
26309SOL    HW288858   1.249   0.084   1.773  1.4320  0.2113  0.3778
26310SOL     OW88859  12.016   0.792   5.265  0.3886  0.0035  0.7535
26310SOL    HW188860  12.016   0.709   5.314  2.2643 -0.3834  0.1746
26310SOL    HW288861  11.955   0.777   5.192 -0.5990 -0.2392  1.5944
26311SOL     OW88862   1.692   4.698   6.403 -0.0253  0.3210 -0.0852
26311SOL    HW188863   1.602   4.666   6.404  0.3138 -0.8504 -1.5153
26311SOL    HW288864   1.716   4.706   6.495 -2.0770  2.2257  0.3752
26312SOL     OW88865   2.803   5.338  11.460  0.0958  0.0662  0.5366
26312SOL    HW188866   2.873   5.399  11.438 -1.6122  1.6274 -0.8554
26312SOL    HW288867   2.822   5.259  11.409 -1.2772  1.9407 -3.1642
26313SOL     OW88868   6.439  12.207   7.354  0.7110 -0.8350 -0.6844
26313SOL    HW188869   6.361  12.212   7.409  0.8772  0.8477 -0.5403
26313SOL    HW288870   6.512  12.204   7.416  0.9442  1.8936 -0.7201
26314SOL     OW88871   1.938   1.617   7.257  0.6193 -0.6345  0.3096
26314SOL    HW188872   1.848   1.643   7.275  1.3403  2.0807  0.5356
26314SOL    HW288873   1.952   1.639   7.165  1.4603  0.4864  0.6790
26315SOL     OW88874   1.418   0.064   3.018  0.6657 -0.0150  0.0603
26315SOL    HW188875   1.405   0.145   3.067  0.5706  0.0746 -0.1127
26315SOL    HW288876   1.512   0.062   3.000  0.5793  0.3548 -0.4462
26316SOL     OW88877   3.586   6.062   6.603  0.1961  0.2636  0.6589
26316SOL    HW188878   3.495   6.035   6.615  0.3273 -0.9792 -0.9176
26316SOL    HW288879   3.591   6.149   6.644 -1.8712  0.6617  0.1341
26317SOL     OW88880   9.742  10.968   9.919  0.4824 -0.1192 -0.2907
26317SOL    HW188881   9.785  11.050   9.941  2.5621 -1.0081 -0.7540
26317SOL    HW288882   9.753  10.913   9.997 -2.5202  0.5673  0.7346
26318SOL     OW88883   4.085   5.373  12.715 -0.1295  0.4443  0.2911
26318SOL    HW188884   4.161   5.430  12.727  0.1827  0.6965 -2.3132
26318SOL    HW288885   4.016   5.430  12.683 -1.2333  0.0583  1.8220
26319SOL     OW88886  10.394  10.320   0.685 -0.1618  0.2943 -0.2684
26319SOL    HW188887  10.382  10.233   0.722  0.2704 -0.4457 -1.7679
26319SOL    HW288888  10.305  10.347   0.661 -0.2223 -0.0486 -0.4425
26320SOL     OW88889   6.117   3.107   2.356  0.5158  0.6627  0.0484
26320SOL    HW188890   6.169   3.169   2.305 -0.6257  1.6250  0.0022
26320SOL    HW288891   6.108   3.148   2.442  0.3113  0.2408  0.2314
26321SOL     OW88892   4.063   7.934   2.477 -0.3809 -0.7003 -0.5175
26321SOL    HW188893   4.048   8.023   2.510  1.0479 -0.1938 -1.1441
26321SOL    HW288894   3.991   7.882   2.514 -1.2625  0.7135 -0.1668
26322SOL     OW88895   5.649   4.519  12.460  0.0683 -0.6381  0.7719
26322SOL    HW188896   5.736   4.543  12.492 -0.4129 -0.8832  2.3656
26322SOL    HW288897   5.645   4.424  12.474  0.3360 -1.0056 -1.3588
26323SOL     OW88898  11.662  10.609   9.873 -0.3467 -0.2908 -0.1529
26323SOL    HW188899  11.645  10.606   9.968 -0.0795  0.6981 -0.0682
26323SOL    HW288900  11.712  10.689   9.860  0.5203 -0.9485 -1.0008
26324SOL     OW88901   2.338  10.464   0.367 -0.4050  0.1325  0.5338
26324SOL    HW188902   2.394  10.444   0.442  1.1026  1.4220 -0.1913
26324SOL    HW288903   2.397  10.460   0.291 -1.6144  0.1212 -0.4422
26325SOL     OW88904   4.414   5.462   8.315  0.1693 -0.9952 -0.4502
26325SOL    HW188905   4.329   5.506   8.316  1.2581  1.2449 -1.4267
26325SOL    HW288906   4.404   5.391   8.379 -2.1805 -0.3507  0.0089
26326SOL     OW88907   7.311   2.310  11.961 -0.0438  0.8387 -0.0909
26326SOL    HW188908   7.267   2.228  11.941  1.1338 -0.1857  1.3198
26326SOL    HW288909   7.376   2.287  12.028 -0.2948  3.0752  0.9985
26327SOL     OW88910   7.596   2.171  11.673 -0.1819 -0.5017 -0.2108
26327SOL    HW188911   7.533   2.099  11.679 -1.0791  0.3330  0.6808
26327SOL    HW288912   7.543   2.250  11.680  0.7528  0.2859 -1.5127
26328SOL     OW88913   2.477   8.834   9.021  0.2123 -0.3434  0.1119
26328SOL    HW188914   2.409   8.768   9.037 -1.3262  1.0037 -0.6440
26328SOL    HW288915   2.518   8.806   8.939 -2.7101  1.3300 -2.0981
26329SOL     OW88916   5.851   8.406   2.801 -0.5676 -0.2074  0.4709
26329SOL    HW188917   5.903   8.377   2.876  2.5465  0.1816 -1.3555
26329SOL    HW288918   5.817   8.491   2.827 -0.4379 -0.5281  1.7858
26330SOL     OW88919   1.833   1.116   0.009  0.2795  0.4367 -0.2500
26330SOL    HW188920   1.898   1.117  -0.061 -0.2483 -0.8745 -0.7889
26330SOL    HW288921   1.801   1.026   0.011  0.1842  0.4761  1.6035
26331SOL     OW88922   2.188   4.573   1.972 -0.3702  0.2378  0.6099
26331SOL    HW188923   2.145   4.523   1.903  0.4496  1.3889 -0.7870
26331SOL    HW288924   2.147   4.660   1.969  0.1966  0.5307  1.0477
26332SOL     OW88925   4.860   2.423   6.489  0.4219  0.4566 -0.1050
26332SOL    HW188926   4.866   2.438   6.583 -2.4189 -1.5969  0.5270
26332SOL    HW288927   4.811   2.498   6.456 -0.9402 -0.1111  0.5559
26333SOL     OW88928   2.112   9.116   6.769  0.3140  0.0711 -0.3842
26333SOL    HW188929   2.203   9.088   6.781  0.4586 -0.3930 -2.2784
26333SOL    HW288930   2.119   9.197   6.719 -0.3303 -0.7549 -1.8631
26334SOL     OW88931   4.156   2.367   1.674 -0.5709 -0.0053 -0.0907
26334SOL    HW188932   4.238   2.322   1.653 -1.0245 -0.5546 -0.7424
26334SOL    HW288933   4.178   2.424   1.748  0.4003 -0.1233 -0.2719
26335SOL     OW88934  12.565   6.536   2.135  0.3068 -0.2474 -0.3665
26335SOL    HW188935  12.537   6.532   2.044 -0.2119  1.1121 -0.2887
26335SOL    HW288936  12.650   6.491   2.136 -0.7202 -2.3555 -1.0441
26336SOL     OW88937   3.852   4.387   9.640 -0.1261 -0.6447  0.2770
26336SOL    HW188938   3.830   4.314   9.582  1.1644 -0.4526 -0.5061
26336SOL    HW288939   3.775   4.444   9.637 -0.2338 -0.8208 -0.9890
26337SOL     OW88940   4.705  13.091   3.433 -0.6133  0.4692  0.0931
26337SOL    HW188941   4.651  13.152   3.383 -0.2663  0.0536 -0.8196
26337SOL    HW288942   4.666  13.006   3.418 -0.2463  0.2826  0.1845
26338SOL     OW88943  10.110  12.398   2.251 -0.0301 -0.2812 -0.2010
26338SOL    HW188944  10.079  12.425   2.338 -0.5150 -0.1683 -0.4076
26338SOL    HW288945  10.200  12.430   2.247  0.2515 -0.9273  0.5490
26339SOL     OW88946   3.864   6.321  10.977  0.6423  0.1934  0.8894
26339SOL    HW188947   3.785   6.296  10.929  0.8448  1.4648 -0.1771
26339SOL    HW288948   3.885   6.245  11.030 -1.0226 -0.3462  0.8363
26340SOL     OW88949   5.252   5.081  11.521 -0.2236  0.8601 -0.0024
26340SOL    HW188950   5.240   4.986  11.515 -0.7210  0.9333 -0.1577
26340SOL    HW288951   5.210   5.106  11.603  0.6140  0.8374  0.4447
26341SOL     OW88952   0.025   1.929   0.526  0.2465 -0.1597 -0.3614
26341SOL    HW188953   0.054   1.839   0.508  0.1565 -0.1759 -0.4229
26341SOL    HW288954  -0.050   1.942   0.468  0.6823  0.1905 -0.8619
26342SOL     OW88955   5.131  10.145   6.673  0.5438 -0.5602 -0.1486
26342SOL    HW188956   5.171  10.140   6.760 -0.2056  0.0471  0.2385
26342SOL    HW288957   5.197  10.189   6.620  1.3367 -1.6317 -0.1097
26343SOL     OW88958   0.737   9.437   0.344  0.0054  0.3735  0.0159
26343SOL    HW188959   0.736   9.378   0.268 -1.5440 -0.4741  0.6467
26343SOL    HW288960   0.784   9.515   0.313 -0.1287 -0.1587 -1.6431
26344SOL     OW88961   0.756   0.416   1.841  0.2536 -0.3290  0.1434
26344SOL    HW188962   0.703   0.467   1.780 -0.0922  0.3207  0.9490
26344SOL    HW288963   0.758   0.470   1.920  1.5719 -0.6558  0.3479
26345SOL     OW88964   4.107   5.133  12.049  0.6870  0.5261 -0.2263
26345SOL    HW188965   4.192   5.130  12.006  1.0985 -1.0853  0.6040
26345SOL    HW288966   4.072   5.044  12.041  0.0728  0.5792  1.3254
26346SOL     OW88967  12.174   8.859   5.361  0.0604 -0.3006  0.8721
26346SOL    HW188968  12.093   8.893   5.324 -0.0446  1.2797  2.4335
26346SOL    HW288969  12.234   8.854   5.287 -0.8528  0.4135  0.0509
26347SOL     OW88970   2.700   6.861   8.050 -0.1523  0.2238 -0.0549
26347SOL    HW188971   2.724   6.928   8.114  1.3902  0.5304 -0.9102
26347SOL    HW288972   2.605   6.869   8.041 -0.4011  0.2892  2.0391
26348SOL     OW88973   5.075   6.797   5.546 -0.2568 -0.5807  0.2435
26348SOL    HW188974   5.147   6.742   5.575 -1.2883 -0.8441  2.5169
26348SOL    HW288975   5.104   6.887   5.564  0.2806 -0.5434 -0.7574
26349SOL     OW88976   1.748  11.483  11.194 -0.5059 -0.0388 -0.3665
26349SOL    HW188977   1.821  11.450  11.141 -0.5953 -2.1902  0.7792
26349SOL    HW288978   1.790  11.525  11.269 -0.4168 -1.4680  0.4024
26350SOL     OW88979   4.831   3.303   7.439  0.7707  0.1106  0.0393
26350SOL    HW188980   4.833   3.236   7.507  2.2430  0.6905  0.6133
26350SOL    HW288981   4.917   3.345   7.444  1.3196 -0.4163 -2.7938
26351SOL     OW88982  11.791   4.856  10.285  0.2661 -0.4302 -0.1229
26351SOL    HW188983  11.824   4.780  10.333  1.0340 -2.4144 -3.4754
26351SOL    HW288984  11.697   4.855  10.300  0.6655  0.8954  3.6099
26352SOL     OW88985   3.275  10.994  10.447  0.3938  0.0912 -0.2384
26352SOL    HW188986   3.276  11.061  10.516  2.8341 -0.1431  0.0267
26352SOL    HW288987   3.365  10.963  10.443 -0.1509 -1.3733 -2.1443
26353SOL     OW88988  12.046   2.199   3.797 -0.6215 -0.1048 -0.4675
26353SOL    HW188989  12.116   2.221   3.859  0.2271 -1.5880 -0.8424
26353SOL    HW288990  12.016   2.284   3.763  1.6337  0.5672 -0.9655
26354SOL     OW88991   7.254  10.908   9.860  0.0888 -0.0818 -0.1469
26354SOL    HW188992   7.193  10.966   9.905 -0.3527 -1.2243  0.7785
26354SOL    HW288993   7.204  10.872   9.787 -0.1708 -0.5802  0.2743
26355SOL     OW88994   9.677   8.188   0.667 -0.2380  0.4601 -0.0350
26355SOL    HW188995   9.766   8.157   0.685  0.1756  1.8079  0.3490
26355SOL    HW288996   9.670   8.187   0.571  1.0157  2.4434 -0.2081
26356SOL     OW88997  11.405   2.455   5.664  0.3573  0.1044  0.0881
26356SOL    HW188998  11.462   2.528   5.687 -0.5815  1.0539 -0.4968
26356SOL    HW288999  11.381   2.415   5.747  0.1791  1.0127  0.4831
26357SOL     OW89000  11.850  10.462   4.776  0.2291  0.0571  0.0722
26357SOL    HW189001  11.942  10.447   4.754  0.5698 -0.0825  1.5122
26357SOL    HW289002  11.846  10.555   4.797 -0.1268  0.2191 -0.6655
26358SOL     OW89003   9.456  12.458   9.089 -0.1000 -0.2146 -0.2185
26358SOL    HW189004   9.380  12.507   9.119  0.8985 -0.0964  2.3301
26358SOL    HW289005   9.450  12.374   9.135  2.0776  0.3853  1.3150
26359SOL     OW89006   7.480   8.146   3.265 -0.0947  0.0065 -0.2033
26359SOL    HW189007   7.453   8.067   3.218  0.6979 -0.6257  0.3648
26359SOL    HW289008   7.458   8.218   3.206 -2.0766 -0.5140 -0.1974
26360SOL     OW89009  13.013   1.546   4.555  0.0360  0.0241 -0.1640
26360SOL    HW189010  13.070   1.622   4.552 -1.3079  1.0523 -0.3777
26360SOL    HW289011  12.996   1.525   4.463 -1.1018  0.6362 -0.1002
26361SOL     OW89012   9.599   6.985  11.340  0.2497  0.1826  0.2901
26361SOL    HW189013   9.626   6.995  11.431  2.0856 -0.3234 -0.1538
26361SOL    HW289014   9.515   7.030  11.335 -0.2071 -0.3395  2.3703
26362SOL     OW89015   8.678  11.738   0.854 -0.3661  0.8536 -0.1619
26362SOL    HW189016   8.679  11.757   0.760  0.1220  1.6605  0.0004
26362SOL    HW289017   8.598  11.687   0.867 -1.4486  2.3282 -0.7159
26363SOL     OW89018   6.636   9.799   8.065  0.0966  0.4624  0.3662
26363SOL    HW189019   6.638   9.890   8.097  0.8104  0.2524  0.9435
26363SOL    HW289020   6.547   9.787   8.034  0.2290  1.6423 -0.5436
26364SOL     OW89021  13.084   1.618  12.501  0.0451  0.2094 -0.2045
26364SOL    HW189022  13.001   1.573  12.509  0.1416  0.2453  1.4209
26364SOL    HW289023  13.129   1.574  12.429 -1.1352 -0.1731 -0.7318
26365SOL     OW89024   5.946   1.297   1.789  0.0849 -0.5945 -0.0589
26365SOL    HW189025   6.021   1.290   1.730  0.6854 -1.5734  0.7830
26365SOL    HW289026   5.877   1.244   1.748  0.1201 -0.3529 -0.4323
26366SOL     OW89027  12.080  10.587   8.854 -0.2186 -0.4460 -0.8166
26366SOL    HW189028  12.055  10.664   8.905  0.0519 -1.4018  0.8696
26366SOL    HW289029  12.082  10.617   8.763 -1.4399  1.1646 -0.3550
26367SOL     OW89030   4.158   5.599   2.223 -0.4916 -0.2568 -0.6939
26367SOL    HW189031   4.251   5.613   2.205  0.3543 -2.1155  1.6372
26367SOL    HW289032   4.143   5.507   2.198 -1.4940 -0.1907 -0.3557
26368SOL     OW89033  12.049   8.662   7.526 -0.1557 -0.0045 -0.1006
26368SOL    HW189034  11.957   8.647   7.508  0.1074 -0.4465 -1.1186
26368SOL    HW289035  12.083   8.576   7.550  0.4668 -0.2983 -1.9313
26369SOL     OW89036   4.271   9.644   7.051 -0.2127 -0.4231 -0.8105
26369SOL    HW189037   4.201   9.580   7.054  0.3204 -1.0651 -1.6291
26369SOL    HW289038   4.227   9.729   7.048 -0.9209 -0.7391  0.3395
26370SOL     OW89039   9.564   1.893  11.708  0.0838  0.3937  0.0285
26370SOL    HW189040   9.617   1.823  11.747  1.1077  1.9664  1.6089
26370SOL    HW289041   9.485   1.896  11.761 -0.7529 -0.6374 -1.1014
26371SOL     OW89042   2.618   3.187   6.279 -0.1291  0.1149  0.3617
26371SOL    HW189043   2.552   3.228   6.224  1.0739  0.7905 -0.6107
26371SOL    HW289044   2.583   3.099   6.296 -1.6901  0.7483  0.6483
26372SOL     OW89045   3.708   8.397   2.001  0.6082 -0.0845 -0.9028
26372SOL    HW189046   3.642   8.391   1.932 -0.1184 -1.2143 -0.1427
26372SOL    HW289047   3.660   8.422   2.079  0.9568 -1.4517 -0.2160
26373SOL     OW89048  10.369  10.663   8.534  0.8256  0.1368 -0.0453
26373SOL    HW189049  10.425  10.602   8.581  0.1416 -0.8344 -0.4558
26373SOL    HW289050  10.336  10.722   8.601  0.1891 -0.9729  0.6459
26374SOL     OW89051   3.474   1.024  10.397  0.6936 -0.1258 -0.1438
26374SOL    HW189052   3.523   1.007  10.316 -1.5988 -0.3322 -1.5582
26374SOL    HW289053   3.425   1.104  10.379  0.0459 -0.2516  0.9858
26375SOL     OW89054  10.547   7.142   9.422 -0.0360 -0.0576 -0.0934
26375SOL    HW189055  10.555   7.164   9.515  0.2570  2.2332 -0.5896
26375SOL    HW289056  10.636   7.153   9.388  0.2087 -2.5009 -0.3869
26376SOL     OW89057  11.576   0.086   3.781 -0.1744 -0.1030  0.6643
26376SOL    HW189058  11.586   0.026   3.707 -1.3619 -0.4805  0.7911
26376SOL    HW289059  11.646   0.151   3.769  0.5423 -0.9640  0.0097
26377SOL     OW89060   2.905  11.438   0.284 -0.5470 -0.1463  0.7372
26377SOL    HW189061   2.893  11.358   0.335  0.1893 -0.6288  0.1813
26377SOL    HW289062   2.851  11.426   0.206 -0.2059 -0.2430  0.5107
26378SOL     OW89063   5.946   2.035   0.916  0.2167 -0.3392  0.1262
26378SOL    HW189064   5.971   2.008   0.827  0.1907  1.5372 -0.5005
26378SOL    HW289065   5.879   2.101   0.902  0.5475  0.3187  1.5250
26379SOL     OW89066   1.448   3.299   3.015  0.5647 -0.8969  0.0777
26379SOL    HW189067   1.460   3.208   2.989  3.6792 -0.7521  0.5885
26379SOL    HW289068   1.525   3.319   3.069  0.4673  2.3005 -0.7649
26380SOL     OW89069   5.238   6.561  13.180  0.5495 -0.0160 -0.2435
26380SOL    HW189070   5.232   6.629  13.246 -1.8910  1.1596 -1.5361
26380SOL    HW289071   5.289   6.600  13.109 -1.6381  0.9601 -1.3893
26381SOL     OW89072   9.531  13.298   2.577  0.1268 -0.5911  0.5959
26381SOL    HW189073   9.580  13.369   2.536 -0.4943 -0.2320  0.4668
26381SOL    HW289074   9.445  13.335   2.596 -0.0060 -1.1304  1.0825
26382SOL     OW89075   7.672  12.047   8.246  0.1585  0.0491  0.4004
26382SOL    HW189076   7.640  12.136   8.235 -0.6904 -0.2072  0.7096
26382SOL    HW289077   7.733  12.052   8.320  1.0292  0.5804 -0.3250
26383SOL     OW89078   2.609   6.408   3.407 -0.0411 -0.7478  0.1956
26383SOL    HW189079   2.648   6.407   3.320 -0.4810  2.6905 -0.1767
26383SOL    HW289080   2.523   6.369   3.396 -0.3404  0.2223 -1.0897
26384SOL     OW89081   4.438   5.795   6.252  0.0555  0.1454  0.1926
26384SOL    HW189082   4.466   5.834   6.169 -0.0159 -1.6124 -0.6964
26384SOL    HW289083   4.384   5.720   6.227 -0.0493 -0.3832  1.8435
26385SOL     OW89084   2.945   1.039   6.225  0.2937 -0.7659 -0.0952
26385SOL    HW189085   3.028   0.993   6.219 -0.1851 -1.5739 -0.7927
26385SOL    HW289086   2.913   1.019   6.313  1.0692 -0.0045  0.3779
26386SOL     OW89087   7.671  11.233   2.645 -0.3135 -0.4632  0.0599
26386SOL    HW189088   7.577  11.242   2.658 -0.3666  1.1265 -1.1308
26386SOL    HW289089   7.684  11.139   2.628 -1.9507 -0.4618 -1.4851
26387SOL     OW89090   5.241   5.611   4.641  0.1095  0.2483  0.0047
26387SOL    HW189091   5.184   5.655   4.704 -0.5828 -0.4047 -0.1479
26387SOL    HW289092   5.242   5.668   4.565 -1.1032 -0.1789 -0.3441
26388SOL     OW89093   1.863   5.265   4.271  0.4755  0.2775 -0.6179
26388SOL    HW189094   1.922   5.304   4.336 -1.6744 -0.5131  1.9734
26388SOL    HW289095   1.875   5.171   4.281 -2.9543 -0.0628  1.9295
26389SOL     OW89096   8.246   0.931  10.957 -0.0373  0.0399 -0.3078
26389SOL    HW189097   8.200   0.943  10.873 -2.5813 -0.1245  0.9588
26389SOL    HW289098   8.261   1.020  10.989 -1.0350  0.1011  0.0243
26390SOL     OW89099   5.773   2.220   3.965  0.2424  0.0899  0.2930
26390SOL    HW189100   5.745   2.147   3.910 -1.8232  1.6273 -0.8633
26390SOL    HW289101   5.857   2.247   3.928 -0.2665 -0.0216 -1.0105
26391SOL     OW89102   9.131   6.627   4.621  0.0899  0.0184 -0.0665
26391SOL    HW189103   9.138   6.709   4.573  0.1587 -0.1120 -0.2799
26391SOL    HW289104   9.039   6.605   4.618 -0.0417  0.4494  0.5973
26392SOL     OW89105   1.317   4.705   3.555 -0.1514  0.5469  0.5975
26392SOL    HW189106   1.350   4.759   3.627  1.1419  0.6507 -0.0335
26392SOL    HW289107   1.397   4.673   3.511 -0.9081 -0.0387 -0.3945
26393SOL     OW89108   9.915   7.343   9.788  0.2339 -0.1373  0.0708
26393SOL    HW189109   9.872   7.426   9.807 -2.1995 -0.8721 -1.6715
26393SOL    HW289110   9.954   7.355   9.701  1.0520 -0.4301  0.3798
26394SOL     OW89111  11.797   0.206   6.720 -0.2669 -0.0657 -0.5163
26394SOL    HW189112  11.835   0.157   6.793 -1.1433  0.7846  0.5425
26394SOL    HW289113  11.812   0.298   6.742 -3.1600  0.3408  0.1476
26395SOL     OW89114   9.478   3.267   9.884 -0.3655  0.0773 -0.4298
26395SOL    HW189115   9.557   3.237   9.928 -0.5261 -1.5646 -1.1784
26395SOL    HW289116   9.503   3.350   9.843  1.2624 -0.8300 -1.3843
26396SOL     OW89117   0.556   4.822   5.888 -0.5269 -0.4874  0.2330
26396SOL    HW189118   0.489   4.794   5.950  1.8193 -1.7502  2.3921
26396SOL    HW289119   0.603   4.741   5.865  0.4710  0.3833 -0.9414
26397SOL     OW89120  13.075   5.598   0.438 -1.0290 -0.5624 -0.5257
26397SOL    HW189121  13.164   5.566   0.426 -1.6171 -2.1522 -0.9377
26397SOL    HW289122  13.071   5.627   0.529 -0.7586 -2.8186  0.2596
26398SOL     OW89123   6.103   9.981   4.176 -0.1486  0.0350  0.4593
26398SOL    HW189124   6.039   9.911   4.191 -0.1587  0.1751  1.1094
26398SOL    HW289125   6.171   9.941   4.123  0.1780 -0.6620  1.3799
26399SOL     OW89126   9.056   8.321   3.391 -0.3695  0.3250  0.3453
26399SOL    HW189127   9.023   8.234   3.372  1.3715 -0.5087  0.9712
26399SOL    HW289128   8.980   8.369   3.423 -1.3549 -0.9365 -0.0442
26400SOL     OW89129   9.715   6.223  11.235  0.1721 -0.0296  0.0833
26400SOL    HW189130   9.660   6.289  11.278  0.2085  0.1992 -0.2167
26400SOL    HW289131   9.778   6.197  11.302  1.5845  1.8552 -0.4157
26401SOL     OW89132   5.600   5.857   5.872 -0.0059 -0.0353 -0.1494
26401SOL    HW189133   5.566   5.768   5.885  1.5993 -0.4929  1.1740
26401SOL    HW289134   5.579   5.903   5.953  3.2810 -0.6317  1.1612
26402SOL     OW89135   8.385   1.198   4.500 -0.5078 -0.0919  0.5463
26402SOL    HW189136   8.299   1.213   4.460 -1.7050  0.1943  3.0589
26402SOL    HW289137   8.391   1.263   4.570  1.4127 -0.6718  0.9837
26403SOL     OW89138   6.566   6.334   4.089 -0.6827 -0.2437 -0.2815
26403SOL    HW189139   6.532   6.420   4.064 -0.8864 -0.2179  0.0781
26403SOL    HW289140   6.656   6.351   4.117 -0.9170 -0.0493  0.3721
26404SOL     OW89141  10.205   0.664   1.954 -0.1506 -0.3185  0.1578
26404SOL    HW189142  10.214   0.569   1.962 -0.7124 -0.3537  0.3727
26404SOL    HW289143  10.184   0.678   1.862 -0.8036 -0.4626  0.2816
26405SOL     OW89144   3.881   8.874   4.080 -0.1648  0.2970 -0.3619
26405SOL    HW189145   3.859   8.782   4.093 -0.1433  0.2917 -0.3658
26405SOL    HW289146   3.799   8.921   4.098 -0.0653  0.3117  0.0714
26406SOL     OW89147   0.398   4.247   3.376 -0.0061 -0.2470  0.0798
26406SOL    HW189148   0.463   4.282   3.438  1.1049 -0.5781 -0.8554
26406SOL    HW289149   0.450   4.199   3.311 -0.9570  1.3222 -1.9673
26407SOL     OW89150   2.755  13.230   8.373 -0.3961  0.3468 -0.1531
26407SOL    HW189151   2.821  13.297   8.388  0.0201 -0.0531 -0.2041
26407SOL    HW289152   2.692  13.272   8.314 -0.5048  0.9244  0.3634
26408SOL     OW89153   3.486   0.390   7.630 -0.2921  0.3120 -0.2153
26408SOL    HW189154   3.437   0.471   7.645 -1.6749 -0.5641  0.1850
26408SOL    HW289155   3.432   0.342   7.567 -0.1137 -0.8153  0.4719
26409SOL     OW89156   8.719   5.811  12.092 -0.1187 -0.5087 -0.2780
26409SOL    HW189157   8.809   5.813  12.061 -0.0893  1.3101 -0.1685
26409SOL    HW289158   8.709   5.725  12.133  1.4845 -0.8206 -0.4968
26410SOL     OW89159   1.456   8.821   9.800  0.0934  0.1614 -0.1737
26410SOL    HW189160   1.475   8.790   9.712 -0.5552  1.4027 -0.7779
26410SOL    HW289161   1.532   8.873   9.825  0.9812 -1.4523  0.6615
26411SOL     OW89162   9.054   0.666   9.822 -0.0716 -0.1795  0.9059
26411SOL    HW189163   9.102   0.586   9.803 -1.6246 -1.0011  0.2172
26411SOL    HW289164   9.108   0.713   9.886  1.4549 -1.1735  0.3909
26412SOL     OW89165   2.056  12.945   5.807 -0.2781  0.3699 -0.3516
26412SOL    HW189166   2.032  13.007   5.738 -1.2941  0.0495 -0.2933
26412SOL    HW289167   2.112  12.996   5.866 -0.5880  1.0591 -0.6381
26413SOL     OW89168   9.485   1.325  10.229 -0.0712 -0.0437 -0.3477
26413SOL    HW189169   9.459   1.324  10.322  0.1950  1.1455 -0.2507
26413SOL    HW289170   9.412   1.370  10.185  1.0029  1.8284 -0.3083
26414SOL     OW89171   0.305   3.830   0.813 -0.9681 -0.2785 -0.6384
26414SOL    HW189172   0.243   3.903   0.809 -1.9713 -0.9756  1.1724
26414SOL    HW289173   0.257   3.755   0.779 -0.3618 -0.3933 -1.2795
26415SOL     OW89174   6.328   2.486   6.971 -0.3272 -0.0763  0.3128
26415SOL    HW189175   6.246   2.437   6.982  0.3026 -0.9967  0.9905
26415SOL    HW289176   6.320   2.558   7.034 -0.4884 -0.3479  0.6075
26416SOL     OW89177   8.139  10.953  12.381  0.2110 -0.1701 -0.0804
26416SOL    HW189178   8.140  10.932  12.287 -0.6436 -1.8309  0.2424
26416SOL    HW289179   8.052  10.927  12.410  0.5119  0.2177  1.1971
26417SOL     OW89180   2.686   9.131   8.173 -0.2622  0.4503  0.1335
26417SOL    HW189181   2.721   9.091   8.094 -1.1878 -0.2273  0.0507
26417SOL    HW289182   2.725   9.081   8.245  0.8588  1.2958  0.1350
26418SOL     OW89183  11.854   3.104  12.899  0.0436 -0.2825  0.9697
26418SOL    HW189184  11.894   3.024  12.865 -0.4504 -0.3834  0.6268
26418SOL    HW289185  11.765   3.078  12.923  0.9290 -0.7618  4.3054
26419SOL     OW89186   2.959   5.449   8.389  0.3710  0.0978 -0.2514
26419SOL    HW189187   2.869   5.481   8.399  0.4413 -0.0150  0.8732
26419SOL    HW289188   2.958   5.362   8.428  0.9436  0.0473 -0.3413
26420SOL     OW89189   1.572   2.983  10.117  0.0123  0.1318 -0.0886
26420SOL    HW189190   1.603   3.038  10.045  3.2439 -0.9335  0.2972
26420SOL    HW289191   1.567   2.895  10.079  1.7374 -0.4408  0.8507
26421SOL     OW89192   6.186  10.593  10.897 -0.2343 -0.2870 -0.2743
26421SOL    HW189193   6.169  10.686  10.884 -0.9432 -0.3440  0.2101
26421SOL    HW289194   6.139  10.549  10.826 -2.9071 -0.4989  1.5022
26422SOL     OW89195  10.426   9.398   5.167  0.1188  0.4354 -0.4753
26422SOL    HW189196  10.444   9.446   5.248 -2.0740  0.9030 -0.1909
26422SOL    HW289197  10.509   9.398   5.119  1.0512  1.5090  1.0735
26423SOL     OW89198   9.438   8.139   0.881  0.3545  0.2304 -0.3672
26423SOL    HW189199   9.529   8.150   0.910 -0.1843  1.9823  0.8059
26423SOL    HW289200   9.417   8.049   0.904  0.9651  0.6022  1.9246
26424SOL     OW89201   1.793   6.379  10.336 -0.3747  0.7577  0.1260
26424SOL    HW189202   1.750   6.403  10.418 -1.0918 -1.2004  0.3742
26424SOL    HW289203   1.728   6.395  10.268 -0.5880  0.2636  0.2084
26425SOL     OW89204   1.525   0.925   6.334  0.0511  0.4531 -0.2521
26425SOL    HW189205   1.453   0.934   6.271  0.5585 -2.5702 -1.4457
26425SOL    HW289206   1.500   0.850   6.388  1.6729  0.1868  0.1796
26426SOL     OW89207   2.878   6.738   4.522  0.0357 -0.1130 -0.2134
26426SOL    HW189208   2.954   6.680   4.522  0.9974  1.0980  0.2799
26426SOL    HW289209   2.808   6.685   4.485  0.8049 -1.6660  0.4347
26427SOL     OW89210   8.565   8.847  12.760 -0.4009 -0.3002 -0.3677
26427SOL    HW189211   8.636   8.785  12.780 -0.2702  0.0760  0.3812
26427SOL    HW289212   8.604   8.910  12.700  0.1885  0.4368  0.7645
26428SOL     OW89213   8.020   7.386   1.012 -0.1023 -0.5101  0.1808
26428SOL    HW189214   7.994   7.446   1.083 -0.2998 -1.3320  0.8184
26428SOL    HW289215   8.017   7.440   0.933  1.1830  0.7318  0.9245
26429SOL     OW89216   5.902   2.569   3.744  0.3987  0.0004  0.1060
26429SOL    HW189217   5.926   2.624   3.818 -0.5850  0.5528  0.0302
26429SOL    HW289218   5.928   2.620   3.667  0.8133 -0.2873  0.0485
26430SOL     OW89219   0.837   9.187   5.894  0.8541  0.0383  0.0735
26430SOL    HW189220   0.751   9.182   5.852  1.3865  1.9585 -1.3908
26430SOL    HW289221   0.897   9.153   5.828  1.4346  0.7262  0.2343
26431SOL     OW89222  12.709   1.976   5.395 -0.2275  0.5954  0.7833
26431SOL    HW189223  12.624   1.934   5.408 -0.2563  0.5701  0.5088
26431SOL    HW289224  12.750   1.927   5.325  0.0118  0.6150  0.9079
26432SOL     OW89225  10.225  10.138  12.756 -0.2638  0.1357  0.4806
26432SOL    HW189226  10.242  10.112  12.665 -0.4462 -0.7378  0.6858
26432SOL    HW289227  10.272  10.220  12.767  1.1959 -0.6074  0.1000
26433SOL     OW89228   8.526  11.678   3.365  0.5660 -0.3884  0.0586
26433SOL    HW189229   8.601  11.661   3.421 -0.1952 -0.4954  1.0830
26433SOL    HW289230   8.526  11.606   3.302  0.9883 -0.7000  0.4106
26434SOL     OW89231   7.604  10.972  11.277 -0.1724  0.3562 -0.2102
26434SOL    HW189232   7.631  10.952  11.367  0.6822 -0.4511 -0.6345
26434SOL    HW289233   7.519  10.930  11.268 -0.2379  0.3928  0.2020
26435SOL     OW89234   8.152   1.608   3.428  0.6946  0.6790 -0.3371
26435SOL    HW189235   8.219   1.539   3.436  1.3675  1.4397  0.9807
26435SOL    HW289236   8.102   1.602   3.509 -0.9050  0.0921 -1.3389
26436SOL     OW89237   5.034   1.836   6.051  0.1725  0.2488 -0.6434
26436SOL    HW189238   5.068   1.893   6.120 -2.0689  0.0992  0.7128
26436SOL    HW289239   5.028   1.750   6.092 -1.0339  0.1170 -1.0372
26437SOL     OW89240   3.683   6.843  13.093  0.2962 -0.8602  0.0159
26437SOL    HW189241   3.707   6.935  13.079  2.9110 -1.2959  1.0916
26437SOL    HW289242   3.611   6.847  13.156 -0.1324  0.4485 -0.5211
26438SOL     OW89243   2.725   2.178   0.231 -0.0694  0.2247 -0.1843
26438SOL    HW189244   2.730   2.101   0.174  1.4509  0.3184 -0.2333
26438SOL    HW289245   2.809   2.178   0.277 -1.0112  0.5006  1.6128
26439SOL     OW89246   4.125  11.418  10.389 -0.0898  0.2040 -0.2320
26439SOL    HW189247   4.033  11.443  10.394 -0.0376  0.1952  1.0731
26439SOL    HW289248   4.168  11.470  10.458  0.3643 -1.9100  1.1877
26440SOL     OW89249  12.393   9.749  11.367 -0.0948  0.4017 -0.1162
26440SOL    HW189250  12.342   9.763  11.447  0.8636  2.9556  0.1289
26440SOL    HW289251  12.464   9.691  11.394 -0.2178  0.6159  0.7082
26441SOL     OW89252  12.102   6.397   1.595 -0.2953 -0.5725 -0.1784
26441SOL    HW189253  12.153   6.318   1.578 -1.2968 -1.4087  0.5569
26441SOL    HW289254  12.060   6.381   1.679 -2.4520 -0.3234 -1.1330
26442SOL     OW89255   1.806   6.336   4.980  0.3568 -0.1594  0.1012
26442SOL    HW189256   1.881   6.307   5.032 -0.7309  0.4314  2.1070
26442SOL    HW289257   1.763   6.255   4.952  1.5006 -0.4988 -0.7889
26443SOL     OW89258   4.018  12.549   0.667 -0.1051 -0.1917 -0.3692
26443SOL    HW189259   4.092  12.552   0.607 -1.5744  2.4811 -2.2646
26443SOL    HW289260   4.056  12.567   0.753  1.4857  1.0591 -1.2816
26444SOL     OW89261  11.900  10.736   4.755  0.1164 -0.2633 -0.3639
26444SOL    HW189262  11.981  10.719   4.707  0.4492 -0.0024  0.1075
26444SOL    HW289263  11.882  10.829   4.739  0.1877 -0.1943 -0.0451
26445SOL     OW89264   6.119   0.813   3.416  0.6769  0.2939 -0.3299
26445SOL    HW189265   6.074   0.737   3.380  1.8832 -1.7949  2.2354
26445SOL    HW289266   6.074   0.888   3.377 -1.8761 -1.6762 -1.4813
26446SOL     OW89267   4.892  10.158   0.707  0.4983 -0.5711 -0.3793
26446SOL    HW189268   4.913  10.222   0.638 -1.3902 -0.4527 -0.8915
26446SOL    HW289269   4.834  10.095   0.664  0.8657 -1.6069  0.6178
26447SOL     OW89270  11.826   3.053   6.334 -0.2357  0.0834 -0.2233
26447SOL    HW189271  11.831   3.085   6.424  1.0933 -1.0385  0.1438
26447SOL    HW289272  11.765   3.112   6.291  0.4861  1.7553  0.9403
26448SOL     OW89273   1.417   8.978  10.493 -0.5563  0.0635 -0.5113
26448SOL    HW189274   1.448   9.054  10.444 -0.8526  0.0027 -0.7958
26448SOL    HW289275   1.366   8.927  10.429 -1.0054  0.0204 -0.1200
26449SOL     OW89276   5.663   7.618   2.185 -0.5277 -0.3685  0.3538
26449SOL    HW189277   5.749   7.632   2.145 -1.4789 -0.2650 -1.7867
26449SOL    HW289278   5.641   7.702   2.225 -0.4547  0.2211 -0.8031
26450SOL     OW89279   6.605   8.938   0.232  0.2477 -0.8726 -0.0204
26450SOL    HW189280   6.584   9.012   0.289  0.7193 -2.1580  1.9084
26450SOL    HW289281   6.701   8.930   0.237  0.2157 -1.5338 -0.3107
26451SOL     OW89282   8.798   5.519   5.682 -0.4472  0.0092 -0.3205
26451SOL    HW189283   8.807   5.581   5.755 -0.1153  0.2886 -0.5925
26451SOL    HW289284   8.802   5.574   5.604  2.4840 -0.5547 -0.6936
26452SOL     OW89285  10.135   1.876   4.055  0.0055 -0.2625  0.2583
26452SOL    HW189286  10.087   1.806   4.098  0.1648 -0.8562 -0.5192
26452SOL    HW289287  10.188   1.833   3.988  0.3894  0.5546  0.0105
26453SOL     OW89288   9.793  13.307  10.758 -0.3097  0.0531 -0.3048
26453SOL    HW189289   9.764  13.314  10.849  0.2711  0.0981 -0.1199
26453SOL    HW289290   9.712  13.297  10.708 -0.5793 -0.9557  0.3031
26454SOL     OW89291   7.115   9.451  10.499 -0.6048  0.2415 -0.4857
26454SOL    HW189292   7.157   9.478  10.581  0.4234  1.6692 -1.4284
26454SOL    HW289293   7.173   9.384  10.463  0.4776  1.5774 -1.3479
26455SOL     OW89294   3.433   6.864   3.663 -0.8905 -0.2790 -0.0310
26455SOL    HW189295   3.433   6.942   3.718 -1.0706 -0.4188  0.1672
26455SOL    HW289296   3.461   6.895   3.577 -2.0369  0.2204 -0.2455
26456SOL     OW89297   2.076   8.390   5.383  0.4832 -0.1101 -0.2357
26456SOL    HW189298   2.067   8.463   5.444 -2.2214  0.6691 -1.4100
26456SOL    HW289299   2.120   8.321   5.433 -0.6496  0.8516  2.2226
26457SOL     OW89300   0.531   2.447  11.483  0.2326  0.3428 -0.3032
26457SOL    HW189301   0.536   2.359  11.445 -0.7306 -0.3639  1.1218
26457SOL    HW289302   0.566   2.504  11.415 -3.7327 -0.4675 -3.4309
26458SOL     OW89303   1.008   9.534  11.012 -0.1755 -0.1286 -0.3615
26458SOL    HW189304   1.103   9.534  11.004 -0.0422 -1.2060  0.8292
26458SOL    HW289305   0.992   9.497  11.099 -1.6999 -0.6056 -0.8213
26459SOL     OW89306   3.475   4.862   0.454 -0.1356  0.0380 -0.4320
26459SOL    HW189307   3.546   4.892   0.397 -0.7550  0.6739 -0.8814
26459SOL    HW289308   3.519   4.814   0.524  0.7902  0.9251 -0.3842
26460SOL     OW89309   7.228   7.002   8.191 -0.0443  0.5848 -0.5312
26460SOL    HW189310   7.187   6.917   8.200  0.7648  0.2612  0.3035
26460SOL    HW289311   7.276   6.997   8.109 -0.7467  0.5674 -0.9428
26461SOL     OW89312   0.743   9.439   3.310 -0.2063  0.0056  0.3822
26461SOL    HW189313   0.729   9.364   3.252  1.0941  0.1592 -0.1645
26461SOL    HW289314   0.788   9.504   3.255  0.4769  0.4042  1.3876
26462SOL     OW89315   7.425   8.722  11.385  0.4924 -0.0516  0.3665
26462SOL    HW189316   7.337   8.724  11.347  1.1077  0.0274 -1.1247
26462SOL    HW289317   7.439   8.630  11.408 -0.1799  0.0304  1.1464
26463SOL     OW89318   6.501   6.288   9.889 -0.7806 -0.0992  0.2685
26463SOL    HW189319   6.510   6.285   9.793 -1.3840  2.0854  0.0878
26463SOL    HW289320   6.429   6.228   9.908  0.9938 -2.5789 -0.3023
26464SOL     OW89321   0.140   7.499   6.150  0.1853 -0.1381  0.3091
26464SOL    HW189322   0.217   7.534   6.105  0.6952  1.3624  2.2008
26464SOL    HW289323   0.160   7.509   6.243 -2.4491  0.6847  0.8761
26465SOL     OW89324  11.790  13.125  12.325  0.0435  0.0086  0.1162
26465SOL    HW189325  11.847  13.048  12.321  0.3082  0.2569 -1.3704
26465SOL    HW289326  11.832  13.182  12.390  1.2637 -0.0146 -0.6238
26466SOL     OW89327   9.770   7.419  12.801 -0.3004  0.3169  0.2886
26466SOL    HW189328   9.684   7.387  12.773 -0.8069  1.6698  0.2245
26466SOL    HW289329   9.798   7.477  12.731  0.9220 -0.5200  0.0622
26467SOL     OW89330   3.359  12.216   1.110 -0.0680  0.3543  0.2014
26467SOL    HW189331   3.312  12.266   1.043 -0.1579  0.4463  0.3314
26467SOL    HW289332   3.323  12.248   1.193 -1.4140 -1.1678  0.2575
26468SOL     OW89333   4.155  10.348   6.440  0.2853 -1.1158  0.6014
26468SOL    HW189334   4.085  10.403   6.405 -0.1718 -1.0484  1.5922
26468SOL    HW289335   4.191  10.304   6.363 -0.1526 -0.3652 -0.0530
26469SOL     OW89336   5.614   8.293   6.360 -0.1312  0.1605 -0.1335
26469SOL    HW189337   5.674   8.346   6.413 -2.0986  2.4303  0.0114
26469SOL    HW289338   5.634   8.317   6.270  1.3845 -1.6628 -0.3417
26470SOL     OW89339  11.785   4.201   5.135  0.4111 -0.3014 -0.7557
26470SOL    HW189340  11.731   4.265   5.182  2.3886  0.8582  0.0135
26470SOL    HW289341  11.825   4.148   5.204 -0.7317 -2.0428 -1.3692
26471SOL     OW89342   9.497   2.344   0.708  0.1604  0.0010 -0.2600
26471SOL    HW189343   9.481   2.403   0.782  0.4598 -0.3818  0.1135
26471SOL    HW289344   9.593   2.345   0.699  0.1015  0.3322 -0.8791
26472SOL     OW89345   6.433   7.254   5.263  0.5710  0.2690  0.4170
26472SOL    HW189346   6.397   7.247   5.352 -1.2381  0.0378 -0.2865
26472SOL    HW289347   6.387   7.329   5.225  1.2610  0.3000 -0.3670
26473SOL     OW89348   5.847   0.768   6.823 -0.5073 -0.1718 -0.4342
26473SOL    HW189349   5.854   0.861   6.844  1.0540 -0.3181 -0.2372
26473SOL    HW289350   5.787   0.733   6.890 -0.6548  0.5717 -0.1665
26474SOL     OW89351   6.710   9.971   2.001  0.1962  0.2370  0.1388
26474SOL    HW189352   6.624   9.997   1.968  0.5437 -0.6893 -1.6471
26474SOL    HW289353   6.770  10.035   1.962  0.5279 -0.3886 -0.4054
26475SOL     OW89354   2.863   9.578  10.777 -0.0690  0.1369 -0.3475
26475SOL    HW189355   2.957   9.569  10.765 -0.1747  0.3958 -1.4736
26475SOL    HW289356   2.845   9.535  10.861  0.4261 -4.0584 -2.1219
26476SOL     OW89357   3.715  12.033   5.217 -0.7642 -0.2655  0.0390
26476SOL    HW189358   3.673  12.062   5.298 -1.0026 -1.8430  0.5034
26476SOL    HW289359   3.777  11.966   5.245 -0.1799 -0.1752 -0.9963
26477SOL     OW89360   0.386  13.004  12.881  0.3568 -0.4625 -0.2560
26477SOL    HW189361   0.421  13.088  12.908  2.5331 -1.5757  0.6825
26477SOL    HW289362   0.332  13.023  12.804 -0.1197  1.8748  0.5795
26478SOL     OW89363  11.313   9.099  10.771  0.3098 -0.3441  0.1083
26478SOL    HW189364  11.365   9.144  10.837 -0.0545 -1.3631  1.1290
26478SOL    HW289365  11.261   9.035  10.821 -0.5924 -0.5653 -1.0761
26479SOL     OW89366  11.566   4.787  11.892 -0.4856  0.6851  0.0873
26479SOL    HW189367  11.573   4.796  11.987  2.2151  0.1480  0.0108
26479SOL    HW289368  11.647   4.745  11.865 -0.7653  1.6119 -2.5810
26480SOL     OW89369  13.064   4.353   5.227  0.2875 -0.0209 -0.3048
26480SOL    HW189370  13.144   4.361   5.280  1.1090  2.6927 -1.7432
26480SOL    HW289371  13.096   4.341   5.138 -0.9976 -1.2882 -0.6241
26481SOL     OW89372   7.757  10.750  11.806  0.4834  0.0406  0.5600
26481SOL    HW189373   7.797  10.795  11.880  0.1745 -0.4764  1.0428
26481SOL    HW289374   7.829  10.705  11.763  0.5591 -0.1601  0.9032
26482SOL     OW89375   5.568   9.947  10.895  0.5910 -0.3864  0.1032
26482SOL    HW189376   5.492   9.888  10.898  0.2360 -0.0429 -1.1759
26482SOL    HW289377   5.571   9.987  10.982 -1.3801  0.4023 -0.1403
26483SOL     OW89378   9.950   8.967   9.670 -0.2904  0.3040 -0.0587
26483SOL    HW189379   9.987   8.887   9.708  0.1824 -0.2313 -1.5979
26483SOL    HW289380  10.009   8.990   9.599 -0.3035  2.1643  0.4655
26484SOL     OW89381   5.677   5.084   0.518 -0.1578 -0.0420 -0.3803
26484SOL    HW189382   5.593   5.104   0.560 -0.5835 -0.7715 -0.8592
26484SOL    HW289383   5.719   5.021   0.576 -0.1736 -0.0666 -0.3953
26485SOL     OW89384   7.827   0.345  12.582  0.0379 -0.0561 -0.2087
26485SOL    HW189385   7.806   0.254  12.560 -0.0947  0.4288 -2.3322
26485SOL    HW289386   7.748   0.394  12.561  0.1071  0.5699  0.9149
26486SOL     OW89387   4.969   0.873  10.419  0.2225 -0.4933 -0.2276
26486SOL    HW189388   4.893   0.931  10.417 -1.7975 -2.9754 -1.5544
26486SOL    HW289389   5.040   0.925  10.381 -0.9841  1.6807  0.3657
26487SOL     OW89390   9.083   5.484  10.231 -0.5186 -0.7822 -0.1117
26487SOL    HW189391   9.160   5.434  10.203 -0.1228  0.0718 -0.5578
26487SOL    HW289392   9.017   5.417  10.250  0.9812 -1.6838  2.3963
26488SOL     OW89393   3.650   7.192   1.804 -0.5578 -0.2105  0.2840
26488SOL    HW189394   3.677   7.234   1.723 -1.3872  0.4072  0.3159
26488SOL    HW289395   3.602   7.260   1.852 -1.0918 -0.9097  0.7676
26489SOL     OW89396  10.600   1.476   0.945  0.3191 -0.0352  0.2817
26489SOL    HW189397  10.660   1.519   0.885 -0.7419 -0.3080 -1.0112
26489SOL    HW289398  10.536   1.432   0.889 -0.6232 -0.4363  1.6041
26490SOL     OW89399  11.726   3.966   1.372 -0.5581  0.3453 -0.0468
26490SOL    HW189400  11.683   3.913   1.439 -1.2212 -0.1546 -0.8518
26490SOL    HW289401  11.820   3.961   1.394 -0.7670  0.2470  0.8694
26491SOL     OW89402   8.067   0.421   7.412 -0.6251 -0.2116 -0.1222
26491SOL    HW189403   7.993   0.433   7.354 -0.5914 -0.4422 -0.2156
26491SOL    HW289404   8.075   0.326   7.421 -0.4863 -0.1830  0.0727
26492SOL     OW89405   1.874  12.478   9.964  0.9628  0.2235  0.3061
26492SOL    HW189406   1.781  12.497   9.957  0.8519  0.2551  1.6284
26492SOL    HW289407   1.903  12.466   9.873 -0.1624  0.9383 -0.1685
26493SOL     OW89408   8.633   7.370   3.746  0.3092 -0.1271  0.2696
26493SOL    HW189409   8.632   7.345   3.654  0.0534  0.9167 -0.0341
26493SOL    HW289410   8.655   7.464   3.745 -0.5176  0.0958  1.2104
26494SOL     OW89411   5.330   8.715   9.043 -0.5593  0.2917 -0.1116
26494SOL    HW189412   5.240   8.747   9.052 -0.0820  1.6281  0.1329
26494SOL    HW289413   5.359   8.748   8.958 -0.3664 -0.2975 -0.2738
26495SOL     OW89414   6.764   9.605   3.489  0.0193 -0.5342  0.3130
26495SOL    HW189415   6.768   9.519   3.447  0.2386  0.0634 -0.9035
26495SOL    HW289416   6.676   9.609   3.526 -1.2328  0.0232 -2.5030
26496SOL     OW89417   1.865   9.947  10.585 -0.0024  0.2846  0.2810
26496SOL    HW189418   1.956   9.925  10.601  0.1228  1.1306  0.8058
26496SOL    HW289419   1.854  10.034  10.623 -1.5952 -0.7006  2.3239
26497SOL     OW89420   6.218  12.040   4.868 -0.4802  0.7564  0.3722
26497SOL    HW189421   6.161  12.029   4.792 -0.4657  0.7816  0.3579
26497SOL    HW289422   6.303  12.005   4.840 -1.1844 -1.9956  1.2911
26498SOL     OW89423   4.357   9.959   9.871 -0.5685  0.1626  0.4327
26498SOL    HW189424   4.331  10.049   9.888 -0.1228  0.4622 -0.4306
26498SOL    HW289425   4.427   9.966   9.806 -1.7232 -0.9025 -0.9705
26499SOL     OW89426  11.050   3.258   8.250 -0.3757 -0.4337  0.4611
26499SOL    HW189427  11.103   3.312   8.308 -0.1788 -0.6470  0.4791
26499SOL    HW289428  11.006   3.322   8.193  1.5736 -0.3136 -1.0138
26500SOL     OW89429   0.255   7.484   3.058  0.2367 -0.3975 -0.5155
26500SOL    HW189430   0.322   7.529   3.008  2.0767 -1.9126  0.4364
26500SOL    HW289431   0.288   7.483   3.148 -1.0116 -1.2537 -0.0273
26501SOL     OW89432   3.343   9.786   0.247  0.0788  0.2078  0.5429
26501SOL    HW189433   3.429   9.806   0.286  0.1318  1.0533  0.0300
26501SOL    HW289434   3.305   9.720   0.305  1.2617 -0.5146  0.5356
26502SOL     OW89435  10.189   5.257  10.399 -0.5121 -0.5523  0.2172
26502SOL    HW189436  10.229   5.219  10.321 -1.2639 -0.3030 -0.3103
26502SOL    HW289437  10.262   5.295  10.448 -0.1166  0.0747 -0.8182
26503SOL     OW89438   9.998   1.067   8.655  0.3475 -0.0244  0.1184
26503SOL    HW189439  10.044   1.004   8.711  0.0759 -0.3692 -0.0403
26503SOL    HW289440   9.906   1.055   8.676  0.3388  0.8540  0.6309
26504SOL     OW89441  10.592   1.800  12.566 -0.5910  0.3259  0.1930
26504SOL    HW189442  10.576   1.878  12.513 -0.8000  0.6144  0.6732
26504SOL    HW289443  10.683   1.777  12.549  0.4279  2.3943  2.2520
26505SOL     OW89444   4.734  11.017   3.265 -0.3035 -0.1238  0.0900
26505SOL    HW189445   4.750  11.093   3.209 -0.1636  0.1049  0.4360
26505SOL    HW289446   4.707  11.055   3.348  3.0083 -0.2997  1.4030
26506SOL     OW89447   4.866   1.047   5.553  0.5358 -0.3190 -0.7403
26506SOL    HW189448   4.822   0.962   5.553 -0.0031 -0.0445 -0.1259
26506SOL    HW289449   4.871   1.071   5.461 -1.4722  0.0850 -0.7791
26507SOL     OW89450   7.608  11.860   5.390 -0.7678 -0.0871  0.1564
26507SOL    HW189451   7.597  11.773   5.352 -0.6277 -0.5326  1.1165
26507SOL    HW289452   7.534  11.870   5.451 -0.5470  0.2882  0.3712
26508SOL     OW89453   3.351   8.741   6.881  0.0283  0.2872  0.1460
26508SOL    HW189454   3.298   8.773   6.954 -1.1448 -3.5931  1.2163
26508SOL    HW289455   3.420   8.689   6.922 -0.2638 -1.4485 -1.4275
26509SOL     OW89456   6.506   0.828   2.318  0.1003  0.0927 -0.5532
26509SOL    HW189457   6.456   0.817   2.237  1.7491 -0.2397 -1.5834
26509SOL    HW289458   6.590   0.864   2.289  0.8932 -0.4593  0.9572
26510SOL     OW89459   0.602   3.466   3.736  0.1374  0.1059 -0.0431
26510SOL    HW189460   0.581   3.406   3.665  0.2677  0.7969 -0.6701
26510SOL    HW289461   0.674   3.423   3.783  0.6115  0.0246 -0.8215
26511SOL     OW89462   1.612  12.826   5.995  0.1363 -0.0591  0.0347
26511SOL    HW189463   1.567  12.840   5.911  0.2403  1.4196  0.2037
26511SOL    HW289464   1.683  12.766   5.974  1.5363  1.9636 -1.4666
26512SOL     OW89465  13.105  11.343   4.782  0.3785  0.0586  0.6677
26512SOL    HW189466  13.060  11.326   4.699  1.2234 -1.1064  0.4122
26512SOL    HW289467  13.088  11.435   4.800 -1.2066 -0.0725  0.0569
26513SOL     OW89468   8.830  12.354   2.878 -0.2890 -0.2864 -0.3469
26513SOL    HW189469   8.827  12.446   2.852  0.6308 -0.3271 -0.6365
26513SOL    HW289470   8.760  12.313   2.827 -0.7835  0.2658 -0.1247
26514SOL     OW89471  13.295  11.516   7.782  0.0296 -0.1689  0.4544
26514SOL    HW189472  13.258  11.479   7.701 -0.4625  0.6520  0.2934
26514SOL    HW289473  13.382  11.546   7.756  0.6829 -1.7383  0.7356
26515SOL     OW89474   9.138   2.179   4.131  0.0422  0.7310  0.5045
26515SOL    HW189475   9.109   2.268   4.153  1.9361  1.0971  1.7687
26515SOL    HW289476   9.217   2.166   4.184  1.4695 -0.6263 -1.7710
26516SOL     OW89477   3.090   4.063   4.461 -0.2168  0.1761  0.7784
26516SOL    HW189478   3.099   4.121   4.386  1.6178 -1.7932 -0.6565
26516SOL    HW289479   2.997   4.067   4.484 -0.7040  1.3481 -1.1912
26517SOL     OW89480  12.708   9.955  10.880  0.1644 -0.3504  0.6639
26517SOL    HW189481  12.742   9.913  10.800 -1.7163  0.2905 -0.5490
26517SOL    HW289482  12.680   9.882  10.935 -0.4581 -0.7972 -0.2019
26518SOL     OW89483   6.247   4.462   9.991 -0.6214  0.2028  0.4638
26518SOL    HW189484   6.289   4.547  10.006 -2.0666  1.2041 -0.8331
26518SOL    HW289485   6.184   4.453  10.062 -1.3616  0.8397 -0.0969
26519SOL     OW89486   3.999  10.321   5.726  0.1226 -0.1273 -0.6983
26519SOL    HW189487   4.070  10.295   5.784 -0.4158 -0.4786 -0.1841
26519SOL    HW289488   3.964  10.401   5.765 -1.2086 -1.1651  0.3378
26520SOL     OW89489   0.096   0.806   1.241  0.4562 -0.1825 -0.3124
26520SOL    HW189490   0.134   0.741   1.182 -0.7692 -1.4038  0.1797
26520SOL    HW289491   0.134   0.784   1.327  1.7052  1.1546 -0.4796
26521SOL     OW89492   1.022   2.751   2.777  0.6343  0.0933 -0.4432
26521SOL    HW189493   1.091   2.705   2.826 -0.3416 -0.9424  0.0242
26521SOL    HW289494   0.988   2.816   2.839 -0.0094 -0.6258 -0.0171
26522SOL     OW89495  13.198  12.658   1.516  0.1380 -0.0903 -0.2139
26522SOL    HW189496  13.184  12.752   1.528  1.6858  0.1112  0.1402
26522SOL    HW289497  13.219  12.648   1.423 -1.0573 -0.2417 -0.4841
26523SOL     OW89498   1.855   8.066   0.543  0.5661 -0.5503 -0.3869
26523SOL    HW189499   1.931   8.063   0.601 -0.1880 -0.4733  0.6361
26523SOL    HW289500   1.864   7.988   0.488  0.2764 -1.7407  1.1876
26524SOL     OW89501   7.423   9.487   1.373 -0.6515 -0.7668  0.0000
26524SOL    HW189502   7.362   9.506   1.302  0.5704 -0.7983 -1.0936
26524SOL    HW289503   7.507   9.522   1.343 -0.0088 -1.1626  1.2480
26525SOL     OW89504   0.593   1.547   7.044  0.0161 -0.3158 -0.3744
26525SOL    HW189505   0.537   1.588   6.978 -1.2434 -0.5066  0.5164
26525SOL    HW289506   0.535   1.537   7.120  0.6424 -2.4756 -0.1019
26526SOL     OW89507   8.586   0.852   5.205  0.0835 -0.3556 -0.3745
26526SOL    HW189508   8.585   0.765   5.244  0.1902 -0.2753 -0.1888
26526SOL    HW289509   8.590   0.912   5.280  0.5457 -0.2081 -0.5086
26527SOL     OW89510   9.770   9.779   6.320  0.5287 -0.2877 -0.6989
26527SOL    HW189511   9.774   9.875   6.319  2.2765 -0.3391 -0.6590
26527SOL    HW289512   9.690   9.758   6.271 -0.5300  1.1943  0.2790
26528SOL     OW89513   5.692   2.476   2.720 -0.3825  0.1217  0.0366
26528SOL    HW189514   5.647   2.458   2.637 -0.5550  3.1817 -0.6668
26528SOL    HW289515   5.625   2.514   2.776  0.9560  4.9039 -1.0788
26529SOL     OW89516   4.058   9.440  13.100 -0.4223 -0.2929  0.4261
26529SOL    HW189517   3.997   9.412  13.031  0.4922  1.0387 -0.9918
26529SOL    HW289518   4.101   9.359  13.127 -0.2205 -0.7628 -1.1706
26530SOL     OW89519   3.069   4.849  11.983 -0.0205 -0.5637  0.3903
26530SOL    HW189520   3.001   4.892  11.931 -0.5803 -1.2779  0.5155
26530SOL    HW289521   3.063   4.757  11.959  1.2279 -0.5754  0.0529
26531SOL     OW89522   0.857  10.952   0.603  0.0698 -0.6680 -0.2423
26531SOL    HW189523   0.825  10.872   0.561  0.8872 -0.5559 -1.1146
26531SOL    HW289524   0.829  11.023   0.546  2.5181 -0.6277 -1.5198
26532SOL     OW89525  11.253   1.182   0.118 -0.4404 -0.2833 -0.7075
26532SOL    HW189526  11.280   1.268   0.151 -1.3922 -0.6295  1.1067
26532SOL    HW289527  11.261   1.189   0.023 -1.5527  2.2139 -0.6933
26533SOL     OW89528   6.676   1.351   7.106  0.0460  0.1275 -0.5610
26533SOL    HW189529   6.688   1.427   7.164  0.2165  1.6977 -2.5498
26533SOL    HW289530   6.706   1.277   7.158  1.1890  1.5846  0.9864
26534SOL     OW89531   6.962   1.543   0.924  0.1807  0.0033  0.5252
26534SOL    HW189532   6.916   1.532   0.841  0.4909 -1.4709  0.5165
26534SOL    HW289533   7.048   1.504   0.909  1.5957  2.8852  0.4690
26535SOL     OW89534   8.239   6.124   2.747  0.2307  0.0262  0.3164
26535SOL    HW189535   8.263   6.051   2.805  0.9755 -0.5880 -0.7324
26535SOL    HW289536   8.160   6.095   2.703  1.3262 -0.8293 -1.1973
26536SOL     OW89537   4.355   5.538   1.329 -0.0882 -0.1538  0.0727
26536SOL    HW189538   4.402   5.517   1.410  0.5477 -0.3701 -0.3425
26536SOL    HW289539   4.337   5.452   1.290 -0.2164 -0.0410 -0.1154
26537SOL     OW89540   5.458   4.828   9.523  0.6902 -1.0423 -0.4359
26537SOL    HW189541   5.521   4.797   9.457  1.7275  0.3527 -0.1591
26537SOL    HW289542   5.391   4.874   9.472  1.9159  0.7387 -0.5197
26538SOL     OW89543   0.308   2.091   1.000  0.0570 -0.2197  0.1374
26538SOL    HW189544   0.396   2.070   1.031  0.3018 -0.1431 -0.5015
26538SOL    HW289545   0.320   2.121   0.910 -0.5010  0.7898  0.3777
26539SOL     OW89546   8.886   1.924  12.340  0.2774 -0.6817  0.7888
26539SOL    HW189547   8.896   1.830  12.355  3.0017 -0.5165  0.4464
26539SOL    HW289548   8.907   1.964  12.424 -0.7890 -0.3460  0.9107
26540SOL     OW89549   0.558   2.830   7.291 -0.5849 -0.4598  0.2299
26540SOL    HW189550   0.476   2.868   7.259 -0.7558 -0.0828  1.1106
26540SOL    HW289551   0.554   2.739   7.261 -0.0544  0.1978 -2.1061
26541SOL     OW89552   5.140   5.603  11.031  0.4258 -0.5023 -0.3523
26541SOL    HW189553   5.234   5.618  11.022  0.1115  1.6649 -0.4673
26541SOL    HW289554   5.110   5.585  10.941  0.4559  0.6670 -0.6050
26542SOL     OW89555   4.392  10.215  11.254 -0.3852  0.2552 -0.5647
26542SOL    HW189556   4.466  10.235  11.312 -0.0203  2.0776 -1.5920
26542SOL    HW289557   4.422  10.242  11.167 -2.2333  0.9408 -1.0175
26543SOL     OW89558   4.478   1.564   8.307 -0.3161 -0.2232 -0.1782
26543SOL    HW189559   4.429   1.590   8.229 -1.7709 -0.7831  0.5164
26543SOL    HW289560   4.464   1.469   8.313  0.8241 -0.3897  0.0755
26544SOL     OW89561   3.183   8.000   0.657 -0.1095  0.3899 -0.2180
26544SOL    HW189562   3.136   7.993   0.740 -0.8127 -1.5441 -0.7426
26544SOL    HW289563   3.274   8.019   0.682 -0.2221 -0.5921  1.0229
26545SOL     OW89564   7.601   1.355  13.102  0.0913 -0.6146 -0.5665
26545SOL    HW189565   7.573   1.401  13.023 -0.8413  0.7116  0.4982
26545SOL    HW289566   7.606   1.422  13.170 -1.2303 -2.0211  1.0350
26546SOL     OW89567   5.976   7.539   7.182 -0.2850  0.2302  0.5713
26546SOL    HW189568   5.893   7.491   7.182 -0.0535 -0.1779  1.0920
26546SOL    HW289569   6.034   7.487   7.238  0.3907  0.3976  0.0349
26547SOL     OW89570   6.883   7.331   6.143 -0.2329  0.2867 -0.0332
26547SOL    HW189571   6.962   7.376   6.115  0.4687 -0.8448  0.0594
26547SOL    HW289572   6.870   7.262   6.078 -0.5933 -0.1467  0.4819
26548SOL     OW89573   7.248   2.770   4.101 -0.5539  0.4803 -0.1792
26548SOL    HW189574   7.288   2.697   4.150 -0.6039  0.0539 -0.7674
26548SOL    HW289575   7.321   2.830   4.085 -0.5346  0.6248  0.4083
26549SOL     OW89576   1.109   0.236   1.922  0.8040  0.1486 -0.7578
26549SOL    HW189577   1.183   0.296   1.916  0.4364  0.5065 -3.0581
26549SOL    HW289578   1.071   0.237   1.833 -2.8889  1.2262  0.6220
26550SOL     OW89579  11.396   5.635   5.170 -0.1638  0.0727 -0.0171
26550SOL    HW189580  11.351   5.644   5.254  0.9147  0.8081  0.5115
26550SOL    HW289581  11.338   5.580   5.118 -2.1944  1.8008  0.2482
26551SOL     OW89582  12.777   6.130   3.723 -0.4025 -0.0105 -0.4715
26551SOL    HW189583  12.753   6.223   3.721  0.7550  0.2905 -1.3584
26551SOL    HW289584  12.694   6.083   3.713 -1.1496  0.8894  1.1531
26552SOL     OW89585   5.511   4.252   4.375  0.4263 -0.0730  0.1036
26552SOL    HW189586   5.536   4.306   4.300  0.6856  0.4959  0.5864
26552SOL    HW289587   5.592   4.245   4.427 -0.0031  0.4123  0.8520
26553SOL     OW89588   8.512   9.584   6.983 -0.6811  0.4636  0.3692
26553SOL    HW189589   8.421   9.613   6.988 -0.8159  0.0138  0.5418
26553SOL    HW289590   8.531   9.582   6.889 -0.7551  0.8349  0.3428
26554SOL     OW89591   3.194   7.876   5.799  0.1085 -0.0561  0.1035
26554SOL    HW189592   3.244   7.869   5.718  2.0864  0.1429  1.2262
26554SOL    HW289593   3.189   7.971   5.816 -1.5581 -0.0048 -0.4744
26555SOL     OW89594   7.794   8.330   1.545  0.1523 -0.2244  0.5725
26555SOL    HW189595   7.729   8.330   1.474 -0.9579 -1.8938  1.4882
26555SOL    HW289596   7.877   8.350   1.503 -0.6001 -0.4200 -1.0713
26556SOL     OW89597   6.860  10.115   1.778  0.0403 -0.3771 -0.4561
26556SOL    HW189598   6.914  10.124   1.856  1.6553 -2.6916 -1.1879
26556SOL    HW289599   6.838  10.205   1.753  0.5816  0.4690  1.8692
26557SOL     OW89600   7.807   5.960  13.241  0.2501 -0.0767 -0.2005
26557SOL    HW189601   7.876   5.989  13.181 -1.5776 -1.7915 -3.3721
26557SOL    HW289602   7.748   6.035  13.247  0.1908 -0.0483 -1.0074
26558SOL     OW89603  13.090   0.003  12.525  0.6299  0.2647 -0.2663
26558SOL    HW189604  13.063  -0.088  12.538  1.8523 -0.2788 -1.3111
26558SOL    HW289605  13.119   0.033  12.611  0.7799 -0.5344 -0.0318
26559SOL     OW89606  12.411   4.318   3.840 -0.4074  0.2590 -0.2060
26559SOL    HW189607  12.332   4.343   3.887 -1.2045 -0.1596 -1.2812
26559SOL    HW289608  12.445   4.243   3.888 -0.3894  0.7226  0.5296
26560SOL     OW89609  12.974   3.103   8.941 -0.0049 -0.1677  0.8972
26560SOL    HW189610  13.064   3.115   8.974  0.2668 -0.8349  0.4041
26560SOL    HW289611  12.965   3.169   8.872  0.3680 -0.5982  0.4329
26561SOL     OW89612  10.904   7.142   1.672 -0.3315  0.1993  0.0513
26561SOL    HW189613  10.887   7.122   1.580 -1.6463 -1.1993  0.5528
26561SOL    HW289614  10.822   7.179   1.704 -1.5493 -3.4871  1.7054
26562SOL     OW89615   1.028   7.370   5.410  0.5572 -0.0859 -0.0883
26562SOL    HW189616   1.005   7.278   5.417 -2.8035  0.7688  2.1569
26562SOL    HW289617   1.014   7.391   5.318 -0.5209 -1.3893 -0.2560
26563SOL     OW89618   3.117   6.907   1.703 -0.2488  0.5255 -0.0276
26563SOL    HW189619   3.109   6.946   1.616 -0.8055 -2.2545 -1.3424
26563SOL    HW289620   3.173   6.830   1.689 -1.2403 -0.5969  1.8252
26564SOL     OW89621   0.097  11.678   0.510 -0.5707  0.3853  0.0386
26564SOL    HW189622   0.098  11.753   0.569 -0.1839 -0.8949  1.7110
26564SOL    HW289623   0.189  11.658   0.495 -0.6721  0.0719 -0.1760
26565SOL     OW89624   7.132  10.937   8.297  0.2818 -0.2203  0.4530
26565SOL    HW189625   7.102  10.846   8.298  0.1453 -0.1842 -0.0876
26565SOL    HW289626   7.226  10.932   8.318 -0.1611 -0.2936  2.6624
26566SOL     OW89627   5.443   9.938  10.087 -0.3980  0.0105 -0.4693
26566SOL    HW189628   5.496   9.859  10.076 -0.5035  0.0495 -1.3787
26566SOL    HW289629   5.447   9.958  10.180  1.3798  0.1262 -0.5374
26567SOL     OW89630   4.689   2.609  10.782  0.2849 -0.1259  0.0429
26567SOL    HW189631   4.707   2.561  10.701 -1.2190  1.1447 -1.1099
26567SOL    HW289632   4.771   2.655  10.801  1.2341 -1.8420  0.2883
26568SOL     OW89633   5.270  10.756  10.813  0.5115 -0.3940  0.2133
26568SOL    HW189634   5.230  10.806  10.741  1.1657 -1.2747 -0.8029
26568SOL    HW289635   5.362  10.750  10.789  0.5132 -1.7619  0.4782
26569SOL     OW89636   7.324   3.051   3.795 -0.3523  0.2285  0.1747
26569SOL    HW189637   7.377   3.030   3.718 -0.9940  3.4197 -1.3098
26569SOL    HW289638   7.234   3.054   3.763 -0.5621  2.3364  0.7751
26570SOL     OW89639   2.672   3.364   4.310  0.8398  0.0655 -0.3611
26570SOL    HW189640   2.601   3.424   4.332 -0.2613 -0.5987 -1.9018
26570SOL    HW289641   2.703   3.394   4.224  1.3895 -0.5733 -0.3959
26571SOL     OW89642   0.282   9.125   5.993 -0.4807  0.4784 -0.0101
26571SOL    HW189643   0.303   9.035   6.016  1.5822  1.4747  2.4227
26571SOL    HW289644   0.272   9.124   5.898 -1.1604 -2.3967  0.0167
26572SOL     OW89645  12.097  11.709   5.175 -0.0284 -0.3102  0.3969
26572SOL    HW189646  12.151  11.690   5.099  0.6369 -1.0580  1.0302
26572SOL    HW289647  12.043  11.630   5.186 -3.1793  1.3543 -1.7312
26573SOL     OW89648  10.839  12.303   8.400 -0.0347  0.1724 -0.6524
26573SOL    HW189649  10.787  12.341   8.329 -1.3564 -0.3177  0.0171
26573SOL    HW289650  10.920  12.354   8.401 -1.2890  2.2326 -0.4984
26574SOL     OW89651   0.375  10.509   6.674 -0.1879 -0.3237  0.4643
26574SOL    HW189652   0.321  10.518   6.753 -0.0296  2.5374  0.3521
26574SOL    HW289653   0.461  10.482   6.707 -0.3380  0.0891  1.2258
26575SOL     OW89654  10.766   9.769   2.086 -0.1207  0.0463 -0.0588
26575SOL    HW189655  10.829   9.767   2.013 -0.3162 -0.5058 -0.2191
26575SOL    HW289656  10.817   9.799   2.161  0.2125  0.0914 -0.3009
26576SOL     OW89657   3.013   4.577  10.882  1.0883  0.3468 -0.7438
26576SOL    HW189658   3.022   4.638  10.808 -0.0521  1.3377 -0.0985
26576SOL    HW289659   2.921   4.552  10.882  1.2743 -0.3816 -0.2071
26577SOL     OW89660   6.340  13.286   3.041  0.2401 -0.0283 -0.1000
26577SOL    HW189661   6.310  13.199   3.066  1.5202 -0.3982  0.2309
26577SOL    HW289662   6.293  13.306   2.960  1.2914 -1.8279 -1.2104
26578SOL     OW89663  12.844  10.160   1.821 -0.2028 -0.1207  0.2233
26578SOL    HW189664  12.871  10.219   1.892 -1.5388  0.8209 -0.0094
26578SOL    HW289665  12.874  10.204   1.741  2.8387 -1.9969  0.1755
26579SOL     OW89666   3.453   0.334   2.759 -0.1382  0.2826  0.3649
26579SOL    HW189667   3.521   0.369   2.702 -0.3644 -0.2472 -0.2403
26579SOL    HW289668   3.456   0.240   2.744 -0.2155  0.1329  1.2213
26580SOL     OW89669   6.599   0.644   9.814  0.0157  0.0285  0.0418
26580SOL    HW189670   6.622   0.596   9.734  2.1199  2.1383 -0.7401
26580SOL    HW289671   6.663   0.616   9.878 -0.9565 -0.7951  0.6806
26581SOL     OW89672   7.324   9.861   9.592 -0.1559  0.4803  0.2896
26581SOL    HW189673   7.419   9.874   9.586 -0.1707  0.0888 -1.3323
26581SOL    HW289674   7.293   9.932   9.648  1.2306 -0.1540  1.9683
26582SOL     OW89675   0.101   4.873   1.036  0.4588  0.4685  0.2351
26582SOL    HW189676   0.087   4.956   0.990 -1.4437  0.3657  0.5467
26582SOL    HW289677   0.079   4.806   0.972 -2.2889  0.3249  1.1993
26583SOL     OW89678   6.156   4.423   3.385 -0.3438  0.7566 -0.1421
26583SOL    HW189679   6.176   4.357   3.319 -0.6516  0.9892 -0.4690
26583SOL    HW289680   6.115   4.374   3.456  0.5871  0.4035  0.1652
26584SOL     OW89681  13.265  13.251  11.937 -0.2881 -0.6577  0.0736
26584SOL    HW189682  13.226  13.264  11.851 -2.0805 -0.0026  0.9251
26584SOL    HW289683  13.200  13.287  11.998  1.3719 -0.1556  1.6397
26585SOL     OW89684  10.896   7.406   3.460  0.1718 -0.0066  0.2997
26585SOL    HW189685  10.846   7.465   3.517 -0.6448 -1.0680  0.7014
26585SOL    HW289686  10.854   7.412   3.375  1.0168  1.1122 -0.0663
26586SOL     OW89687   7.899   0.037   8.785  0.7098  0.0072 -0.6122
26586SOL    HW189688   7.920   0.129   8.771 -1.9485  1.0372  1.3378
26586SOL    HW289689   7.947   0.013   8.865  0.3871  0.1208 -0.3808
26587SOL     OW89690  10.779   6.351   8.019 -0.3842 -0.2462 -0.2143
26587SOL    HW189691  10.858   6.392   7.982 -0.1772 -0.4759 -0.0327
26587SOL    HW289692  10.787   6.258   7.995 -0.0500 -0.4761  0.7223
26588SOL     OW89693   8.857   5.455  10.770 -0.7468  0.3661  0.1675
26588SOL    HW189694   8.933   5.507  10.797 -1.3676  1.1661  0.4161
26588SOL    HW289695   8.867   5.445  10.675  0.0721 -0.2088  0.3058
26589SOL     OW89696  10.278   4.988  11.762 -0.2441  0.1552  0.0021
26589SOL    HW189697  10.213   4.943  11.816 -0.3672  1.5324  1.0529
26589SOL    HW289698  10.359   4.937  11.774 -0.6821 -0.5329  0.1014
26590SOL     OW89699  11.136   3.667   2.145  0.1071 -0.7307  0.5196
26590SOL    HW189700  11.046   3.690   2.169 -0.3474 -0.4785 -1.2642
26590SOL    HW289701  11.142   3.573   2.157 -0.8499 -0.9612 -0.6151
26591SOL     OW89702  10.755   6.932   0.643  0.7143 -0.1210 -0.1113
26591SOL    HW189703  10.846   6.911   0.623  0.7946  0.8812 -0.8538
26591SOL    HW289704  10.717   6.959   0.560  0.3308  1.6093  0.5942
26592SOL     OW89705  11.617   4.199   3.621  0.1327  0.2712  0.0561
26592SOL    HW189706  11.576   4.171   3.703  1.4860 -2.4552 -0.1094
26592SOL    HW289707  11.581   4.141   3.554  0.6503  1.0435 -0.9297
26593SOL     OW89708   3.455   0.942  12.369 -0.1972 -0.4737 -0.0861
26593SOL    HW189709   3.442   0.860  12.417 -0.9212  0.1003  0.7403
26593SOL    HW289710   3.381   0.997  12.396  0.6951  0.7329 -0.0246
26594SOL     OW89711   8.840   1.588  13.213 -0.3028  0.3659 -0.2964
26594SOL    HW189712   8.765   1.528  13.213 -0.4444  0.5374  0.2583
26594SOL    HW289713   8.883   1.573  13.129  1.4390 -2.7474  0.9901
26595SOL     OW89714  12.792   3.338   2.297 -0.4409  0.3745 -0.4600
26595SOL    HW189715  12.707   3.373   2.272 -1.7344 -2.0325  0.2473
26595SOL    HW289716  12.772   3.269   2.361  1.8833 -1.4803 -1.5786
26596SOL     OW89717  12.734   1.304   5.621  0.3631 -0.3101  0.9908
26596SOL    HW189718  12.747   1.302   5.716  0.9544  1.9782  1.0024
26596SOL    HW289719  12.641   1.326   5.610  0.3024 -0.5436  1.0343
26597SOL     OW89720   3.482   6.200  12.052  1.0369 -0.1943  0.4543
26597SOL    HW189721   3.411   6.212  12.116  0.2555 -0.8873 -0.2568
26597SOL    HW289722   3.459   6.119  12.006  1.2208  0.6415 -1.1775
26598SOL     OW89723   2.206   2.597   8.453 -0.0049 -0.0989 -0.1229
26598SOL    HW189724   2.254   2.679   8.446 -1.4389  0.7768 -0.1787
26598SOL    HW289725   2.203   2.563   8.363  1.4344 -0.7370  0.0540
26599SOL     OW89726   1.915   1.812   9.003 -0.0035 -0.3563 -0.6214
26599SOL    HW189727   1.912   1.718   9.019  1.1380 -0.2949  0.1238
26599SOL    HW289728   1.861   1.850   9.073 -0.0894 -0.4425 -0.6422
26600SOL     OW89729   8.421  12.284   3.434 -0.0894  0.3040  0.7726
26600SOL    HW189730   8.485  12.229   3.478  0.5213 -0.7462 -1.3026
26600SOL    HW289731   8.336  12.249   3.461  0.2764 -0.7097  0.6486
26601SOL     OW89732  10.173   0.295   4.143 -0.1706  0.2523  0.4850
26601SOL    HW189733  10.252   0.339   4.174  0.3399 -0.1333 -0.2560
26601SOL    HW289734  10.132   0.358   4.084 -0.2920  0.3534  0.6745
26602SOL     OW89735   2.394   6.827   8.658  0.2054 -0.8173  0.1492
26602SOL    HW189736   2.421   6.919   8.657  1.9642 -1.2941  0.0859
26602SOL    HW289737   2.383   6.806   8.750 -1.8234 -0.1510  0.1148
26603SOL     OW89738   2.596   0.430   0.251 -0.4826 -0.1810 -1.0804
26603SOL    HW189739   2.600   0.503   0.189 -1.9598  1.2146  0.3705
26603SOL    HW289740   2.654   0.457   0.322  0.2608 -1.2241 -1.2761
26604SOL     OW89741  12.591   1.736   5.186 -0.4836 -0.0763  0.0286
26604SOL    HW189742  12.574   1.752   5.093  0.4468 -0.3215 -0.1922
26604SOL    HW289743  12.522   1.785   5.232 -1.2103 -0.3131 -0.7988
26605SOL     OW89744   6.568  12.281  12.501  0.5435  0.3471 -0.2046
26605SOL    HW189745   6.608  12.222  12.565  1.2367  1.0087 -0.0119
26605SOL    HW289746   6.528  12.351  12.554  1.5787  1.1835 -0.4874
26606SOL     OW89747   8.992   6.142   4.161 -0.3655  0.1583  0.2120
26606SOL    HW189748   9.034   6.064   4.197 -0.6767  0.1454  0.5595
26606SOL    HW289749   8.901   6.116   4.148 -0.5126  0.5172  0.5054
26607SOL     OW89750  12.857   4.068  11.941  0.1172 -0.0060 -0.2199
26607SOL    HW189751  12.939   4.018  11.945  0.1934  0.1481  0.1491
26607SOL    HW289752  12.838   4.075  11.847  0.2813 -0.4427 -0.2906
26608SOL     OW89753   8.794   4.029   1.699  0.2874 -0.2448  0.6787
26608SOL    HW189754   8.830   3.940   1.700  0.9654  0.0254  0.5578
26608SOL    HW289755   8.813   4.063   1.787  0.3405 -0.0925  0.6073
26609SOL     OW89756   6.433   7.384   7.672  0.1396  0.1472  0.7644
26609SOL    HW189757   6.447   7.479   7.677 -0.7650  0.2407  1.7797
26609SOL    HW289758   6.437   7.355   7.763  2.3100 -1.1044  0.3545
26610SOL     OW89759   2.134   7.070   3.297 -0.1006 -0.5581  0.5277
26610SOL    HW189760   2.085   7.057   3.216  1.0261 -0.2171 -0.2372
26610SOL    HW289761   2.075   7.119   3.353 -0.2238  0.9513 -0.8372
26611SOL     OW89762  12.964  12.796   1.001 -0.0196  0.0674 -0.2221
26611SOL    HW189763  13.007  12.878   0.975  0.1096  0.0027 -0.2116
26611SOL    HW289764  12.896  12.823   1.062 -0.6221  0.2720 -0.9648
26612SOL     OW89765   7.052   0.109   9.001 -0.4697 -0.5329 -0.3934
26612SOL    HW189766   7.017   0.062   8.925 -0.1855 -1.1362 -0.1646
26612SOL    HW289767   7.140   0.072   9.012  0.3323  1.0800 -1.0809
26613SOL     OW89768  12.457   5.900   3.034 -0.4762 -0.1763  0.7261
26613SOL    HW189769  12.372   5.940   3.055 -1.7543 -2.5828  0.5694
26613SOL    HW289770  12.486   5.862   3.117 -0.1309 -0.3278  0.5364
26614SOL     OW89771   7.469   0.238   0.957 -0.4985 -0.1980  0.1064
26614SOL    HW189772   7.434   0.317   0.996 -0.6189 -0.1813 -0.0358
26614SOL    HW289773   7.406   0.170   0.978  0.6519 -0.7275  2.1081
26615SOL     OW89774   4.634   4.038   3.855 -0.3317 -1.2225  0.4617
26615SOL    HW189775   4.663   3.957   3.812 -1.1530 -0.5720 -1.3976
26615SOL    HW289776   4.707   4.099   3.844 -0.5950 -1.0125 -0.1755
26616SOL     OW89777   3.976   4.804   8.856 -0.1213  0.1246 -0.3513
26616SOL    HW189778   4.031   4.793   8.933  0.2949  0.5623 -0.5868
26616SOL    HW289779   3.912   4.732   8.862  2.3227 -2.3652 -1.6640
26617SOL     OW89780   9.493   8.963   9.820 -0.3519 -0.9465 -0.2715
26617SOL    HW189781   9.535   8.932   9.900 -0.3905 -0.3915 -0.0357
26617SOL    HW289782   9.423   8.900   9.804 -2.2730  0.5095  1.7817
26618SOL     OW89783   1.980  12.095   1.835 -0.4536 -0.4765  0.0314
26618SOL    HW189784   2.047  12.148   1.877 -1.5927  1.4933 -0.4947
26618SOL    HW289785   1.956  12.029   1.901  1.9425 -1.2535  0.2146
26619SOL     OW89786   0.889   1.065   3.988  0.5661 -0.0586  0.1782
26619SOL    HW189787   0.903   1.009   4.064 -1.7221 -0.6658  0.2109
26619SOL    HW289788   0.948   1.139   4.001  0.5914 -0.4013  2.2851
26620SOL     OW89789   1.780  13.069  13.286 -0.0503  0.3155  0.3010
26620SOL    HW189790   1.864  13.027  13.307  0.9539  1.3562 -1.4489
26620SOL    HW289791   1.774  13.065  13.191 -1.4844  1.2145  0.3265
26621SOL     OW89792   3.537   2.924   3.748  0.0258  0.1248 -0.6808
26621SOL    HW189793   3.580   2.966   3.674  2.1335 -3.3107 -1.6634
26621SOL    HW289794   3.574   2.967   3.825  1.0295  0.9722 -1.6094
26622SOL     OW89795   4.754   9.597   8.205  0.1369 -0.3429  0.1460
26622SOL    HW189796   4.811   9.528   8.171  0.7531 -1.1567  2.6629
26622SOL    HW289797   4.667   9.560   8.201  0.4311 -1.1758  1.2079
26623SOL     OW89798   4.711   7.087  10.483 -0.2565  0.2824 -0.1664
26623SOL    HW189799   4.793   7.058  10.521 -1.1006 -0.2578  1.2804
26623SOL    HW289800   4.738   7.134  10.403  1.5574  1.4676  1.0607
26624SOL     OW89801   7.156   8.334   2.624  0.3875  0.4402  0.5252
26624SOL    HW189802   7.192   8.258   2.671 -1.1954 -0.0013  1.0586
26624SOL    HW289803   7.157   8.405   2.689  0.9674  0.6296  0.3151
26625SOL     OW89804   2.811   8.606   8.122 -0.0896 -0.0104  0.1870
26625SOL    HW189805   2.790   8.530   8.067  1.4213 -0.6219  0.4133
26625SOL    HW289806   2.760   8.592   8.202 -1.1163  0.0970 -0.4254
26626SOL     OW89807  11.657   3.820   0.671  0.0431 -0.1554  0.0262
26626SOL    HW189808  11.658   3.759   0.745 -1.1487  0.5029  0.6284
26626SOL    HW289809  11.657   3.907   0.712  0.4048  0.2361 -0.7830
26627SOL     OW89810  11.033   6.695   9.380 -0.4280 -0.3902  0.3836
26627SOL    HW189811  11.098   6.758   9.413  0.3452 -0.5973 -0.6840
26627SOL    HW289812  10.965   6.693   9.448  0.1038  0.7157  0.9797
26628SOL     OW89813   8.284  13.079  10.518 -0.5371  0.1100 -0.4495
26628SOL    HW189814   8.230  13.075  10.597  1.4400  0.0826  0.9648
26628SOL    HW289815   8.370  13.047  10.546  1.7582  4.7580 -1.2399
26629SOL     OW89816   1.048   5.112   6.486 -0.5255 -0.0329 -0.4330
26629SOL    HW189817   1.101   5.046   6.531  0.8872  2.2326  1.4772
26629SOL    HW289818   0.959   5.076   6.486  0.1984 -1.9383  0.4754
26630SOL     OW89819   6.421   2.194   3.839 -0.4114  0.3888 -0.2406
26630SOL    HW189820   6.502   2.160   3.878  0.1618 -0.1722 -1.8421
26630SOL    HW289821   6.419   2.286   3.863 -0.3034 -0.0049  1.4232
26631SOL     OW89822   8.454   7.341   2.872  0.5496 -0.0533  0.3181
26631SOL    HW189823   8.436   7.425   2.829  0.4237 -0.3160 -0.1388
26631SOL    HW289824   8.453   7.362   2.966 -0.8221  0.1992  0.2667
26632SOL     OW89825   5.871   6.882  13.001 -0.1382  0.1159 -0.2350
26632SOL    HW189826   5.937   6.890  13.070  0.6124  0.1950 -0.9490
26632SOL    HW289827   5.813   6.957  13.016 -0.0269  0.0919  0.3558
26633SOL     OW89828  11.158  12.243   0.401 -0.9512  0.0792 -0.2586
26633SOL    HW189829  11.172  12.149   0.400 -1.5480 -0.0298 -1.4403
26633SOL    HW289830  11.214  12.276   0.331  0.3249  0.8088  1.0545
26634SOL     OW89831   9.560   9.122   9.032 -0.2826  0.6255 -0.0355
26634SOL    HW189832   9.583   9.030   9.045 -0.6422  0.4778 -0.4312
26634SOL    HW289833   9.465   9.125   9.045 -0.1297  1.1590  1.1856
26635SOL     OW89834   5.932  11.340   0.835  0.5845  0.6202 -0.5252
26635SOL    HW189835   5.975  11.349   0.920 -0.5485  1.5596 -0.0312
26635SOL    HW289836   5.921  11.430   0.803  0.1163  0.3344 -1.2075
26636SOL     OW89837   8.895  10.186   4.600  0.0630 -0.1034  0.1402
26636SOL    HW189838   8.941  10.256   4.646  0.6092 -0.8061  0.7025
26636SOL    HW289839   8.908  10.205   4.507  1.0713 -0.0071  0.2903
26637SOL     OW89840   0.008   5.081   1.730 -0.2349 -0.1520  0.4564
26637SOL    HW189841   0.045   5.018   1.791 -2.6351 -3.4055 -1.1649
26637SOL    HW289842  -0.010   5.159   1.783  0.1130 -1.8815  3.2845
26638SOL     OW89843   2.951   2.515   8.435  0.2381 -0.3360 -0.0658
26638SOL    HW189844   2.937   2.448   8.502  2.5948 -0.0332  0.8291
26638SOL    HW289845   3.008   2.474   8.371 -0.2874  0.0646 -0.8144
26639SOL     OW89846  12.350   7.945   8.862 -0.0272  0.3006  0.1373
26639SOL    HW189847  12.427   7.891   8.848 -1.0573 -0.8558 -1.4091
26639SOL    HW289848  12.311   7.955   8.775 -1.4608  1.0935  0.8332
26640SOL     OW89849  10.372  12.559  11.836  0.1212  0.1757  0.5389
26640SOL    HW189850  10.333  12.584  11.919 -0.8302  0.6969 -0.0477
26640SOL    HW289851  10.432  12.630  11.814  0.1596  0.1725  0.6331
26641SOL     OW89852   5.115   3.633   4.379  0.0307  0.0125 -0.0124
26641SOL    HW189853   5.032   3.665   4.413 -0.5826 -0.8482 -0.6853
26641SOL    HW289854   5.115   3.539   4.399  0.7361 -0.0379 -0.2267
26642SOL     OW89855   7.774   9.956   3.409  0.3537 -0.9217 -0.2813
26642SOL    HW189856   7.839   9.916   3.351  0.3732  1.4036 -1.9703
26642SOL    HW289857   7.752  10.039   3.368 -1.4235 -0.2285  1.8609
26643SOL     OW89858  12.503   5.039   2.531 -0.0175  0.0364  0.2089
26643SOL    HW189859  12.478   5.126   2.562  0.1063 -0.4483  1.7400
26643SOL    HW289860  12.542   4.996   2.607  0.1727 -1.2717 -0.5897
26644SOL     OW89861  10.383   2.927   4.120  0.1309  0.0782 -0.0373
26644SOL    HW189862  10.377   2.969   4.034  0.6095 -0.1588 -0.1916
26644SOL    HW289863  10.386   2.833   4.101 -0.6191 -0.0154  0.2898
26645SOL     OW89864   0.917   9.187  11.828 -0.1309 -0.5829 -0.5137
26645SOL    HW189865   0.947   9.268  11.869  0.6454 -1.0769 -0.0819
26645SOL    HW289866   0.889   9.132  11.901  1.3631 -1.5081 -0.6106
26646SOL     OW89867  12.773   7.254  12.298 -0.3197  0.0409 -0.2367
26646SOL    HW189868  12.688   7.283  12.331 -1.7055 -2.3196 -1.5255
26646SOL    HW289869  12.753   7.198  12.224  2.4001 -0.4241 -0.7335
26647SOL     OW89870  12.602  12.270   6.601  0.6267  0.8183  0.6741
26647SOL    HW189871  12.694  12.288   6.585  0.4442  1.2359  0.0543
26647SOL    HW289872  12.601  12.221   6.683  1.4112  0.6395  0.5838
26648SOL     OW89873  12.124  13.167   1.050  0.6391 -0.1948 -0.0139
26648SOL    HW189874  12.218  13.184   1.060  0.8056  0.6919 -2.3958
26648SOL    HW289875  12.116  13.132   0.961 -1.4840  1.6105 -0.6146
26649SOL     OW89876   6.615  12.991   7.943 -0.4043 -0.8354 -0.3778
26649SOL    HW189877   6.700  13.005   7.902 -0.0319 -2.5684 -0.2572
26649SOL    HW289878   6.635  12.973   8.034 -0.9923 -0.3273 -0.1389
26650SOL     OW89879  12.498   6.097   8.885  0.2630  0.2818  0.5448
26650SOL    HW189880  12.489   6.031   8.953 -4.3222  1.0185  0.9575
26650SOL    HW289881  12.516   6.047   8.805  0.2129 -1.1251  1.3920
26651SOL     OW89882   3.909  10.832  11.285  0.0105  0.7289  0.1482
26651SOL    HW189883   3.939  10.813  11.196  2.6858  1.0662  0.9002
26651SOL    HW289884   3.854  10.910  11.275 -1.6389 -0.5536 -1.4496
26652SOL     OW89885   3.229  11.932   9.644 -0.4577 -0.3356 -0.4710
26652SOL    HW189886   3.152  11.905   9.693 -0.6610  0.3577 -0.4098
26652SOL    HW289887   3.289  11.858   9.652 -1.7018 -1.5575 -1.8251
26653SOL     OW89888   7.037   5.967   9.759 -0.2640  0.4608 -0.3351
26653SOL    HW189889   7.023   6.004   9.672 -0.7064 -1.0896 -0.9583
26653SOL    HW289890   7.132   5.974   9.772  0.4851 -2.8164 -2.7022
26654SOL     OW89891   6.218   7.847   1.970 -0.4246 -0.2562 -0.1155
26654SOL    HW189892   6.161   7.777   2.000 -2.1641  0.7827 -0.8007
26654SOL    HW289893   6.275   7.865   2.044 -0.5344 -1.7796  0.3771
26655SOL     OW89894   2.244  12.445   3.062  0.2936  0.0316  0.1583
26655SOL    HW189895   2.219  12.374   3.122  0.5320 -0.3532 -0.1931
26655SOL    HW289896   2.340  12.446   3.066  0.4049 -0.9825 -1.3240
26656SOL     OW89897  12.224   6.262   2.071 -0.0008 -0.1287 -0.4397
26656SOL    HW189898  12.307   6.245   2.027  0.9400  0.3299  1.0922
26656SOL    HW289899  12.202   6.352   2.048  1.9150  1.1206  2.0898
26657SOL     OW89900   2.806   1.689   7.822  0.2926 -0.3372  0.7224
26657SOL    HW189901   2.814   1.627   7.749  0.9380  1.9194 -1.2641
26657SOL    HW289902   2.867   1.656   7.888  1.3274 -1.3398 -0.6521
26658SOL     OW89903   3.286  12.309   3.656  0.6519 -0.1120 -0.4550
26658SOL    HW189904   3.379  12.312   3.674  0.8145 -0.1937 -1.2236
26658SOL    HW289905   3.276  12.237   3.593  0.1582  0.2638 -0.8233
26659SOL     OW89906  10.734   6.446   8.492 -0.1282  0.0297  0.0299
26659SOL    HW189907  10.703   6.517   8.436  0.7281 -0.4421 -1.0859
26659SOL    HW289908  10.736   6.369   8.434  1.0565 -0.4070  0.6292
26660SOL     OW89909  11.207   4.042   0.097  0.2077 -0.0056 -0.6767
26660SOL    HW189910  11.240   4.122   0.137  0.1880  0.8388 -2.2655
26660SOL    HW289911  11.282   3.982   0.098  0.3912  0.2315 -0.0056
26661SOL     OW89912   7.847  11.444   5.997 -0.0887 -0.0522  0.3350
26661SOL    HW189913   7.904  11.394   5.938 -0.2379  0.3029 -0.1217
26661SOL    HW289914   7.806  11.378   6.052  2.4774 -0.1845  2.2911
26662SOL     OW89915  10.437   6.313  10.439  0.1856  0.2703 -0.3947
26662SOL    HW189916  10.368   6.272  10.491  2.1246 -0.1047  2.0616
26662SOL    HW289917  10.418   6.407  10.443  0.9639  0.3939  2.2048
26663SOL     OW89918   4.177   9.842   6.092 -0.4689 -0.2615  0.2396
26663SOL    HW189919   4.140   9.869   6.176 -2.1133 -0.6450 -0.3092
26663SOL    HW289920   4.270   9.831   6.109 -0.8337 -0.8416  2.1455
26664SOL     OW89921   7.952   8.561   5.352  0.2111  0.3960  0.0001
26664SOL    HW189922   7.955   8.574   5.447 -1.9627  0.3154  0.1343
26664SOL    HW289923   8.016   8.492   5.335  1.2210  0.9686  1.2858
26665SOL     OW89924   7.997   8.864  10.599 -0.1834  0.0587  0.7224
26665SOL    HW189925   7.979   8.834  10.510  0.2462 -0.0083  0.6586
26665SOL    HW289926   7.934   8.936  10.612  0.6792  1.0170 -0.1451
26666SOL     OW89927   0.667   8.602   7.855 -0.5511  0.2053  0.1227
26666SOL    HW189928   0.705   8.516   7.837 -1.5447  0.0384 -1.2989
26666SOL    HW289929   0.579   8.584   7.887 -1.5564  0.6699 -2.1585
26667SOL     OW89930   3.160   5.226   6.413 -0.5188  0.3274  0.2751
26667SOL    HW189931   3.210   5.145   6.409 -0.4427  0.4132 -0.8714
26667SOL    HW289932   3.086   5.206   6.470 -1.0430 -0.8691 -0.7902
26668SOL     OW89933   3.503   6.067   4.584 -0.2892  0.0699 -0.0158
26668SOL    HW189934   3.466   6.130   4.522 -0.0523  0.7123  0.4870
26668SOL    HW289935   3.439   6.064   4.656  0.8428  1.5735  1.1046
26669SOL     OW89936   6.598  11.117   3.031 -0.4776  0.4072 -0.1006
26669SOL    HW189937   6.634  11.120   2.943  0.7280  0.8604  0.3873
26669SOL    HW289938   6.595  11.024   3.053 -2.3075  0.1557 -1.1847
26670SOL     OW89939   2.640  12.023   5.445 -1.0684  0.1868  0.0926
26670SOL    HW189940   2.685  12.107   5.449 -0.9608  0.1083  0.5858
26670SOL    HW289941   2.669  11.983   5.363 -0.8237  0.4612  0.0476
26671SOL     OW89942   1.763   3.114   0.262  0.4608 -0.0050 -1.0523
26671SOL    HW189943   1.774   3.028   0.302 -0.5995  0.3421  0.0597
26671SOL    HW289944   1.668   3.124   0.251  0.2924  2.0049  1.2572
26672SOL     OW89945   4.606  10.495   9.576 -0.4262 -0.2911 -0.6494
26672SOL    HW189946   4.621  10.573   9.521 -1.7483  0.4173 -0.0424
26672SOL    HW289947   4.590  10.530   9.663  1.0480 -1.3829  0.0867
26673SOL     OW89948   7.109   7.273  12.835  0.3251  0.2203 -0.4484
26673SOL    HW189949   7.132   7.252  12.925 -0.7836 -2.0311 -0.6349
26673SOL    HW289950   7.193   7.272  12.788  0.6626 -0.9113  0.1497
26674SOL     OW89951   1.467   7.347   4.768  0.9092 -0.3193  0.0968
26674SOL    HW189952   1.400   7.281   4.788  1.2352 -0.2139  1.6404
26674SOL    HW289953   1.524   7.304   4.704  0.7574 -1.3174  0.6047
26675SOL     OW89954   2.302   6.350   1.297 -0.0533 -0.6064 -0.1072
26675SOL    HW189955   2.257   6.424   1.337  1.4295  0.9311 -1.1510
26675SOL    HW289956   2.323   6.292   1.371 -1.0765  0.0871  0.7538
26676SOL     OW89957   4.947  10.145   8.505  0.3395 -0.0281 -0.4713
26676SOL    HW189958   4.889  10.088   8.456 -0.1686  0.7452 -0.7972
26676SOL    HW289959   4.987  10.089   8.571 -0.0424 -0.7757 -0.8685
26677SOL     OW89960   8.191   2.798   0.608 -0.8611 -0.5254  0.2329
26677SOL    HW189961   8.197   2.866   0.675  1.4031 -1.7027  1.3247
26677SOL    HW289962   8.181   2.716   0.658 -1.5035 -1.1931 -0.9623
26678SOL     OW89963  11.202  10.230  12.497 -0.7811  0.2697 -0.5501
26678SOL    HW189964  11.260  10.253  12.569 -1.2596 -1.1771  0.3329
26678SOL    HW289965  11.227  10.290  12.426  1.5028 -0.0489 -0.0765
26679SOL     OW89966   7.660   8.567  10.229  0.4570 -0.0362  0.0664
26679SOL    HW189967   7.684   8.526  10.146  1.0968  1.1063 -0.3283
26679SOL    HW289968   7.737   8.558  10.284  0.9666  1.4442 -0.3536
26680SOL     OW89969   6.709   5.045   0.466  0.3010  0.2553  0.2764
26680SOL    HW189970   6.681   5.035   0.375 -0.6871 -2.1515  0.7731
26680SOL    HW289971   6.792   4.998   0.472  0.9301  1.3352  0.4168
26681SOL     OW89972  12.080   3.662   8.432 -0.6075 -0.2151  0.1387
26681SOL    HW189973  12.032   3.628   8.356  0.1030 -0.2905 -0.2927
26681SOL    HW289974  12.168   3.679   8.398 -1.1069  2.8722  0.1003
26682SOL     OW89975   2.188   7.365   4.101 -0.0173 -0.2516  0.4256
26682SOL    HW189976   2.247   7.337   4.031 -0.8584  0.1280 -0.4580
26682SOL    HW289977   2.207   7.306   4.173 -0.0854 -1.5548 -0.5818
26683SOL     OW89978   0.047   7.909   1.290 -0.2809  0.3117  0.6526
26683SOL    HW189979   0.074   7.819   1.273 -1.7302  0.2773 -2.0676
26683SOL    HW289980   0.095   7.961   1.226 -0.6616  1.2812  1.1301
26684SOL     OW89981   0.578   3.108   1.580  0.5712 -0.1203 -0.2093
26684SOL    HW189982   0.580   3.202   1.602  0.3637  0.0110 -0.7549
26684SOL    HW289983   0.492   3.094   1.541  0.5019 -0.5961  0.1044
26685SOL     OW89984   0.359   4.681   8.297 -0.7019 -0.1723  0.4982
26685SOL    HW189985   0.374   4.587   8.300  1.7847  0.1645  0.3309
26685SOL    HW289986   0.404   4.716   8.374 -1.8496  0.8684  0.7323
26686SOL     OW89987  13.281  11.975   7.066 -0.0427 -0.6756 -0.0893
26686SOL    HW189988  13.246  11.980   6.977 -1.1965  1.7443  0.3818
26686SOL    HW289989  13.366  11.934   7.057  1.2118  2.1401 -2.8059
26687SOL     OW89990   7.998  12.604   9.561 -0.4357  0.3245  0.6086
26687SOL    HW189991   7.903  12.594   9.552 -0.5288 -1.0643  2.4301
26687SOL    HW289992   8.022  12.542   9.630  2.0313 -0.4298 -0.8090
26688SOL     OW89993   2.757  10.456   1.078 -0.5713 -0.4258  0.1493
26688SOL    HW189994   2.745  10.551   1.086 -1.2127 -0.5530  0.8869
26688SOL    HW289995   2.752  10.439   0.984  1.4869  0.4901 -0.1779
26689SOL     OW89996   2.939  11.398   9.887  0.0217  0.0795  0.1858
26689SOL    HW189997   2.948  11.325   9.948 -0.0601 -1.0280 -1.0692
26689SOL    HW289998   2.854  11.436   9.908  0.5868  0.5843  1.6427
26690SOL     OW89999   1.431  11.022   2.081 -0.4313  0.0808  0.3494
26690SOL    HW190000   1.345  11.047   2.045  0.4687  1.7899 -0.7448
26690SOL    HW290001   1.439  10.929   2.059 -1.0038  0.4574 -1.7244
26691SOL     OW90002   9.242   0.649   5.570  0.0018  0.5761  0.4453
26691SOL    HW190003   9.194   0.600   5.504  1.8471  0.5780 -1.0066
26691SOL    HW290004   9.210   0.739   5.562 -2.0947  0.0028  1.8574
26692SOL     OW90005  12.254  12.337   4.316 -0.2979  0.0660  0.8569
26692SOL    HW190006  12.208  12.295   4.389  1.3975 -1.4346  1.1544
26692SOL    HW290007  12.203  12.313   4.239  0.2861 -2.1488  1.0881
26693SOL     OW90008   0.827  12.708   9.062  0.1047  0.1322 -0.5234
26693SOL    HW190009   0.842  12.767   8.988 -1.5767  1.1483 -0.1025
26693SOL    HW290010   0.882  12.744   9.132  2.5169 -1.4282 -1.4705
26694SOL     OW90011   8.159   8.285   8.778  0.0158  0.1878 -0.0749
26694SOL    HW190012   8.107   8.365   8.785 -0.6695 -0.1444 -1.0991
26694SOL    HW290013   8.243   8.314   8.744 -0.7088  0.3372 -1.8323
26695SOL     OW90014   8.656   6.028   4.274  0.3636  0.7565 -0.5643
26695SOL    HW190015   8.604   6.108   4.266  0.7246  0.8688 -2.0238
26695SOL    HW290016   8.632   5.976   4.197 -0.4137 -0.8903  0.7258
26696SOL     OW90017   7.287   0.283   5.127 -0.0100  0.2439 -0.5854
26696SOL    HW190018   7.311   0.190   5.125 -1.8842 -0.2897 -0.7718
26696SOL    HW290019   7.264   0.304   5.037 -2.2522  0.0576 -0.1356
26697SOL     OW90020   8.026   5.843  12.132  0.2712  0.2138 -0.8337
26697SOL    HW190021   8.064   5.862  12.218 -0.4612 -0.2143 -0.4105
26697SOL    HW290022   7.937   5.878  12.136 -0.2500 -1.0330 -0.9160
26698SOL     OW90023  12.762   6.072  10.096 -0.1005  0.0152  0.4009
26698SOL    HW190024  12.820   6.118  10.157 -2.1479  1.1593  1.5936
26698SOL    HW290025  12.819   6.049  10.023  1.5184  2.7316  0.6379
26699SOL     OW90026   9.569   6.102  10.871 -0.2816 -0.1809 -0.0383
26699SOL    HW190027   9.647   6.105  10.926  1.1461 -1.0827 -1.9198
26699SOL    HW290028   9.577   6.177  10.812 -2.1851  1.2348  1.3735
26700SOL     OW90029  11.715   0.847  10.953  0.0954 -0.2517 -0.4681
26700SOL    HW190030  11.757   0.779  11.007 -0.0355 -0.3955 -0.5451
26700SOL    HW290031  11.622   0.831  10.964  0.0702 -0.3116 -0.7784
26701SOL     OW90032  12.588  12.149   8.207 -0.2480 -0.2799 -0.1224
26701SOL    HW190033  12.542  12.125   8.126  0.0220 -0.6143 -0.1747
26701SOL    HW290034  12.549  12.233   8.231  1.8426  1.4853 -2.3466
26702SOL     OW90035   8.273  10.156   9.264  0.3227  0.1816  0.2412
26702SOL    HW190036   8.213  10.130   9.334 -1.0228  1.5514 -0.3598
26702SOL    HW290037   8.237  10.238   9.230  1.4645  0.0376 -1.4435
26703SOL     OW90038   3.518   9.845   7.751  1.0240 -0.1618  0.1107
26703SOL    HW190039   3.487   9.860   7.840  1.7675 -0.5540  0.4340
26703SOL    HW290040   3.566   9.925   7.729 -0.5633  0.6576 -0.5681
26704SOL     OW90041   0.337   2.480   0.010  0.2343 -0.0148 -0.1862
26704SOL    HW190042   0.402   2.436  -0.044 -0.0499 -0.9181  0.1989
26704SOL    HW290043   0.370   2.570   0.018  0.5746 -0.0222 -1.3529
26705SOL     OW90044   7.747   4.251  11.624 -0.2281 -0.3798  0.2646
26705SOL    HW190045   7.762   4.321  11.561  0.0099 -0.0342  0.6939
26705SOL    HW290046   7.652   4.242  11.629 -0.2447 -0.4477 -0.1830
26706SOL     OW90047   0.263  11.094   4.844 -0.1182 -0.3115  0.3037
26706SOL    HW190048   0.287  11.002   4.837  1.6847  0.0647  1.0720
26706SOL    HW290049   0.312  11.127   4.920 -0.5753  1.3138 -0.0582
26707SOL     OW90050   3.080   1.985  11.216 -0.1289 -0.3344  0.1952
26707SOL    HW190051   3.049   2.068  11.251  0.3514  0.3064 -0.8327
26707SOL    HW290052   3.158   2.009  11.165 -0.9637 -1.1350 -1.5454
26708SOL     OW90053   1.554   9.197  10.368 -0.8273 -0.3402 -0.3316
26708SOL    HW190054   1.641   9.209  10.406  0.1122 -0.1273 -2.4003
26708SOL    HW290055   1.502   9.268  10.406 -0.6434 -1.4620  2.2498
26709SOL     OW90056   2.697   0.670   2.044  1.0929  0.2917 -0.2628
26709SOL    HW190057   2.735   0.609   2.108  2.4420  0.9333 -0.4295
26709SOL    HW290058   2.758   0.743   2.041 -1.0197  2.2295  0.7459
26710SOL     OW90059   7.303  12.405   6.400  0.5196  0.0311 -0.0744
26710SOL    HW190060   7.386  12.452   6.399  0.9250 -0.6843 -0.7131
26710SOL    HW290061   7.239  12.470   6.430  0.9827  1.1105 -1.3352
26711SOL     OW90062  10.722   1.435   3.645 -0.1994 -0.2301  0.2231
26711SOL    HW190063  10.646   1.386   3.674 -1.5517  2.3189  1.2894
26711SOL    HW290064  10.787   1.422   3.714 -1.2378  0.9352  1.4805
26712SOL     OW90065   1.396   5.117   0.800  0.2837 -1.0564  0.2080
26712SOL    HW190066   1.315   5.068   0.787 -0.5907  0.0047  1.4242
26712SOL    HW290067   1.456   5.055   0.841  0.4920 -2.1613 -1.6515
26713SOL     OW90068   0.275   2.499  10.558  0.4949 -0.3361 -0.4794
26713SOL    HW190069   0.307   2.409  10.561 -0.6292 -0.7483 -0.2785
26713SOL    HW290070   0.351   2.553  10.579  1.6043 -1.1209 -2.2774
26714SOL     OW90071   5.745   4.781   9.933  0.2218  0.3820  0.3138
26714SOL    HW190072   5.688   4.819   9.866  0.1918 -1.5635 -0.8206
26714SOL    HW290073   5.795   4.856   9.967  0.7016  1.3764 -2.3291
26715SOL     OW90074   5.266   2.426   0.311 -0.2082  0.2438  0.6329
26715SOL    HW190075   5.294   2.451   0.223 -1.6309 -1.5151 -0.3989
26715SOL    HW290076   5.201   2.492   0.335 -0.0860  0.5207  0.2148
26716SOL     OW90077  10.929   4.838  11.580 -0.4280  0.0206 -0.8814
26716SOL    HW190078  10.932   4.812  11.488  1.6253 -0.9434 -0.6125
26716SOL    HW290079  11.002   4.790  11.620 -1.5106  0.1163  1.3356
26717SOL     OW90080  12.540   9.617   1.618  0.2718 -0.0403 -0.0090
26717SOL    HW190081  12.606   9.661   1.672  0.2196  1.4455 -1.0742
26717SOL    HW290082  12.458   9.659   1.642  0.1188 -0.0049 -0.5930
26718SOL     OW90083   2.024   5.908  12.580  0.5858  0.1371 -0.4448
26718SOL    HW190084   2.009   5.988  12.530  3.0046  0.0695 -1.4344
26718SOL    HW290085   2.070   5.936  12.658  0.3823 -0.1796 -0.2083
26719SOL     OW90086   5.882   6.898  10.096 -0.3364 -0.0713  0.6955
26719SOL    HW190087   5.840   6.812  10.100 -1.2767  0.3700  0.5239
26719SOL    HW290088   5.867   6.936  10.183 -0.5632  0.2077  0.5365
26720SOL     OW90089   5.865  10.094  12.024 -0.0550 -0.7847 -0.0539
26720SOL    HW190090   5.885  10.001  12.033  0.7999 -0.7528 -1.3313
26720SOL    HW290091   5.914  10.121  11.946 -1.0320  0.5237 -0.2387
26721SOL     OW90092   0.118   7.231   1.705 -0.5386  0.1086  0.2641
26721SOL    HW190093   0.046   7.174   1.731 -0.6864  0.8705  1.5587
26721SOL    HW290094   0.192   7.202   1.757 -0.6362  1.1419  1.0031
26722SOL     OW90095  12.268  11.091   8.727 -0.2072 -0.2142 -0.1851
26722SOL    HW190096  12.195  11.056   8.779 -0.1403  0.1431  0.1561
26722SOL    HW290097  12.230  11.163   8.678  0.0946  0.5077  0.6227
26723SOL     OW90098   7.411   8.543   3.291 -0.1925  0.5289 -0.6381
26723SOL    HW190099   7.329   8.555   3.244 -1.3964  3.1255  1.7773
26723SOL    HW290100   7.398   8.466   3.345 -1.9310  1.9348  1.1160
26724SOL     OW90101   6.363   9.636  10.059  0.3278 -0.4082 -0.3262
26724SOL    HW190102   6.277   9.664  10.088 -0.7716 -3.6890 -0.0023
26724SOL    HW290103   6.384   9.694   9.986 -2.1970  0.4447 -0.4685
26725SOL     OW90104   6.718   8.380   8.527 -0.1424 -0.3660  0.4913
26725SOL    HW190105   6.641   8.343   8.570  0.3652 -0.5123  1.2962
26725SOL    HW290106   6.689   8.465   8.495  0.0210  0.7319  3.0496
26726SOL     OW90107   3.836   8.879   2.957 -0.6272  0.1646  0.2147
26726SOL    HW190108   3.811   8.881   2.865  0.4651  0.2477 -0.0930
26726SOL    HW290109   3.761   8.838   3.001 -1.4932  0.8287 -0.5871
26727SOL     OW90110  10.349   2.072   5.841  0.0189  0.3897 -0.0722
26727SOL    HW190111  10.439   2.084   5.809  0.5398  1.5043  1.6393
26727SOL    HW290112  10.308   2.158   5.829 -0.7475 -0.0492 -0.6150
26728SOL     OW90113   5.698   7.257   3.398 -0.8070 -0.1603  0.1250
26728SOL    HW190114   5.686   7.321   3.469 -3.2382 -0.2361 -0.1508
26728SOL    HW290115   5.782   7.216   3.418 -0.3458  1.3852  1.6919
26729SOL     OW90116   1.492   5.167   2.752  0.3621 -0.2656 -0.6008
26729SOL    HW190117   1.500   5.226   2.827 -1.6120 -1.0074  0.2515
26729SOL    HW290118   1.557   5.098   2.769  0.9236  0.3225 -0.3216
26730SOL     OW90119   3.815   3.630   6.018 -0.1205 -0.2517  0.0481
26730SOL    HW190120   3.804   3.574   6.095  2.5389 -0.0355  0.6784
26730SOL    HW290121   3.874   3.580   5.961  0.3854  0.8914 -0.4581
26731SOL     OW90122   6.219  11.783   4.407 -0.2555 -0.3549 -0.2062
26731SOL    HW190123   6.134  11.766   4.366 -0.3087 -1.3583  0.3004
26731SOL    HW290124   6.283  11.749   4.345 -0.2152  0.3644 -0.5692
26732SOL     OW90125   3.119   8.930  10.465  0.3454 -0.3640 -0.6160
26732SOL    HW190126   3.171   8.971  10.534  0.3682 -1.1116 -0.1871
26732SOL    HW290127   3.030   8.963  10.480 -0.0434 -2.0321  0.9903
26733SOL     OW90128  12.887  10.957   5.092  0.0161  0.0627  0.6524
26733SOL    HW190129  12.946  11.008   5.036  1.7553 -1.4764  0.9737
26733SOL    HW290130  12.844  11.022   5.148  2.1740  1.2248  1.0607
26734SOL     OW90131   4.881   3.930   9.102  0.5716 -0.4349  0.3424
26734SOL    HW190132   4.831   3.934   9.021 -2.9375 -0.5488  2.2927
26734SOL    HW290133   4.861   3.843   9.138  1.9674 -0.3580  1.3659
26735SOL     OW90134   5.707   4.758   4.187 -0.4961 -0.7997  0.4370
26735SOL    HW190135   5.766   4.689   4.157 -1.9862 -2.1040  0.4109
26735SOL    HW290136   5.645   4.713   4.245 -0.1918  0.9133  2.1988
26736SOL     OW90137   7.686  11.106   9.684  0.1777 -0.3602 -0.6837
26736SOL    HW190138   7.610  11.051   9.702 -1.0600  1.0088 -1.4724
26736SOL    HW290139   7.650  11.195   9.674  1.8051  0.2572 -1.5382
26737SOL     OW90140   3.820  12.140   4.660 -0.0070 -0.3715 -0.2339
26737SOL    HW190141   3.727  12.160   4.661  0.0842  0.0489  1.0862
26737SOL    HW290142   3.846  12.138   4.752  1.4529  0.3389 -0.5906
26738SOL     OW90143   3.065   9.011   8.022  0.4506 -0.8805 -0.1830
26738SOL    HW190144   2.976   9.036   8.047  0.3973 -3.0246  2.2118
26738SOL    HW290145   3.054   8.927   7.977  1.2423 -0.8948 -0.3676
26739SOL     OW90146   4.972   2.893  11.398 -0.2162 -0.5695 -0.2991
26739SOL    HW190147   5.042   2.934  11.347 -0.7392 -1.5278 -1.8900
26739SOL    HW290148   4.906   2.961  11.407  1.0230  0.4684  1.5561
26740SOL     OW90149   2.252   4.067   8.190  0.3299  0.0606  0.4376
26740SOL    HW190150   2.240   4.058   8.095 -0.2252  4.5374 -0.0972
26740SOL    HW290151   2.313   3.997   8.212  0.2643 -1.3650 -3.1269
26741SOL     OW90152   4.909   3.809   0.623 -0.4464 -0.2742  0.1714
26741SOL    HW190153   4.924   3.730   0.674  1.1292  0.1958  0.4800
26741SOL    HW290154   4.831   3.789   0.570 -1.4872 -1.1452  1.9512
26742SOL     OW90155   6.344   1.610   2.423 -0.0378 -0.1709 -0.4849
26742SOL    HW190156   6.406   1.557   2.473 -2.6834 -2.6429  0.4115
26742SOL    HW290157   6.285   1.647   2.488 -1.0379  0.0147 -1.4704
26743SOL     OW90158   5.103  13.231   0.599  0.1091 -0.3043 -0.2442
26743SOL    HW190159   5.196  13.240   0.577  0.6221  0.0209  1.8089
26743SOL    HW290160   5.059  13.220   0.515  2.1701 -2.0816 -1.1843
26744SOL     OW90161   7.770   1.605  10.146  0.7929 -0.3091  0.4204
26744SOL    HW190162   7.821   1.561  10.213 -0.2821 -0.4058  1.2052
26744SOL    HW290163   7.808   1.576  10.063  1.4261 -1.0638  0.9662
26745SOL     OW90164  12.981   8.351  11.440 -0.2483 -0.2846 -0.2228
26745SOL    HW190165  13.017   8.333  11.354  0.3290  0.0226 -0.0469
26745SOL    HW290166  13.007   8.276  11.494 -0.8938 -0.6400 -0.3937
26746SOL     OW90167  10.621  10.615   9.429  0.2554  0.3277 -0.2941
26746SOL    HW190168  10.639  10.523   9.449 -2.4817 -0.7843 -2.1831
26746SOL    HW290169  10.537  10.632   9.472  0.5438  1.8434 -0.2894
26747SOL     OW90170   7.239   9.432   8.051 -0.4975  0.3452  0.3183
26747SOL    HW190171   7.240   9.381   8.132  1.8258 -0.2211  0.0072
26747SOL    HW290172   7.189   9.511   8.072  1.4499  1.0246  2.8867
26748SOL     OW90173  11.047   1.814  11.693  0.1946  0.2355 -0.5274
26748SOL    HW190174  11.113   1.821  11.762  0.5708 -0.1521 -0.8414
26748SOL    HW290175  10.964   1.812  11.740  0.3738  1.0951 -0.1424
26749SOL     OW90176   7.596   0.088   2.221  0.0462 -0.3375 -0.0114
26749SOL    HW190177   7.578   0.181   2.209  0.5796 -0.1181  0.7947
26749SOL    HW290178   7.513   0.045   2.201 -0.6756  0.4411  1.1800
26750SOL     OW90179   6.672   0.803  11.146 -0.1066  0.6767 -0.0427
26750SOL    HW190180   6.714   0.873  11.096 -0.6365  0.9192 -0.1654
26750SOL    HW290181   6.579   0.811  11.123 -0.3379  0.7220  0.9022
26751SOL     OW90182  11.372   0.076   2.861  0.5685  0.1470  0.3764
26751SOL    HW190183  11.389   0.029   2.942 -0.4049  3.6730  2.8823
26751SOL    HW290184  11.451   0.062   2.808  1.0157 -2.7077  1.6387
26752SOL     OW90185   0.287   4.724  11.144 -0.1060  0.2787  0.3471
26752SOL    HW190186   0.361   4.674  11.110 -1.3809 -0.6433 -1.1932
26752SOL    HW290187   0.241   4.662  11.202 -0.5867  0.2969 -0.0092
26753SOL     OW90188   1.437   1.526   1.069  0.3637 -0.1832  0.6426
26753SOL    HW190189   1.434   1.465   0.996  1.3848  0.5395 -0.0500
26753SOL    HW290190   1.388   1.484   1.139 -1.0207 -0.7038 -0.5953
26754SOL     OW90191   1.961   0.120   9.692 -0.1695 -0.0929  0.1871
26754SOL    HW190192   1.902   0.179   9.645  0.7182  2.3901  1.9761
26754SOL    HW290193   1.903   0.067   9.747 -0.9668 -0.7452 -1.2147
26755SOL     OW90194   6.183   7.047   2.858 -0.2204 -0.4864  0.3007
26755SOL    HW190195   6.276   7.053   2.834 -0.1226 -0.8794  0.5788
26755SOL    HW290196   6.166   7.128   2.907 -0.0493 -0.3733  0.1754
26756SOL     OW90197   5.681   5.210  12.804 -1.0109 -0.7948  0.0812
26756SOL    HW190198   5.625   5.148  12.852 -0.4206 -1.8718 -0.5735
26756SOL    HW290199   5.759   5.158  12.781 -1.2314 -0.2934 -1.9454
26757SOL     OW90200   7.541   5.520   9.036  0.0266  0.1223  0.1771
26757SOL    HW190201   7.617   5.465   9.057  1.5208  1.1498 -2.0718
26757SOL    HW290202   7.475   5.459   9.005  0.4212 -0.6876  0.8894
26758SOL     OW90203   3.514   2.231  11.256 -0.3087 -0.3697 -0.4088
26758SOL    HW190204   3.593   2.249  11.206 -1.0052  1.1551 -1.0391
26758SOL    HW290205   3.452   2.298  11.227 -0.6967  0.7451  2.6314
26759SOL     OW90206  12.445  11.724   3.182  0.3189 -0.1128  0.5477
26759SOL    HW190207  12.460  11.688   3.094 -0.3325  1.0900 -0.0892
26759SOL    HW290208  12.429  11.818   3.167 -0.9048 -0.0744  1.8309
26760SOL     OW90209   8.041  11.466   4.614  0.2311 -0.5904 -0.1660
26760SOL    HW190210   8.095  11.496   4.687 -0.1828  0.7073 -0.3685
26760SOL    HW290211   7.964  11.428   4.657  0.8861 -1.6846  0.0983
26761SOL     OW90212   5.947   6.818  11.850  0.8447 -0.1338  0.0165
26761SOL    HW190213   5.877   6.845  11.910  1.6550  0.0737  0.8835
26761SOL    HW290214   5.985   6.900  11.819  0.7211 -0.2467 -0.4450
26762SOL     OW90215  10.707   7.365   5.959 -0.0510 -0.5965 -0.2647
26762SOL    HW190216  10.696   7.270   5.964 -2.7206 -0.3798 -0.4931
26762SOL    HW290217  10.624   7.397   5.925  0.3791  1.9261  0.8082
26763SOL     OW90218   2.060   9.972  10.030 -0.1659  0.0439 -0.1490
26763SOL    HW190219   2.000   9.897  10.032  0.8476 -0.7887  0.2957
26763SOL    HW290220   2.083   9.986  10.122  1.2991 -0.4899 -0.4039
26764SOL     OW90221   6.399   7.218   5.520 -0.1803 -0.5846 -0.3767
26764SOL    HW190222   6.414   7.287   5.585  1.1446  0.7424 -1.9944
26764SOL    HW290223   6.307   7.194   5.532  0.4239 -1.6391  3.0781
26765SOL     OW90224   2.335   9.599  12.126  0.0852 -0.6467 -1.4210
26765SOL    HW190225   2.325   9.582  12.220 -0.7828  0.3763 -1.3202
26765SOL    HW290226   2.372   9.518  12.091  0.4603 -1.0250 -0.1932
26766SOL     OW90227  11.992   4.277   3.077  0.2444 -0.1987 -0.1863
26766SOL    HW190228  12.064   4.310   3.023 -0.1084  1.5087  0.3411
26766SOL    HW290229  11.984   4.341   3.148  0.7767 -2.4302  2.0105
26767SOL     OW90230   0.807   8.606   0.956  0.2090  0.6373 -0.4936
26767SOL    HW190231   0.725   8.652   0.935 -0.9095 -1.0918 -0.1612
26767SOL    HW290232   0.797   8.520   0.915  1.5114  0.0930  0.2702
26768SOL     OW90233   4.511   4.543  12.168  0.4341 -0.8876  0.0751
26768SOL    HW190234   4.532   4.561  12.076 -0.2263 -2.6365 -0.4498
26768SOL    HW290235   4.417   4.559  12.174  0.3048 -1.6538  0.2025
26769SOL     OW90236   9.501   9.963  10.247 -0.1439 -0.2854  0.1331
26769SOL    HW190237   9.527  10.055  10.241 -0.9079  0.0375  1.5143
26769SOL    HW290238   9.559   9.919  10.184  1.3087  0.9033  0.5591
26770SOL     OW90239   5.045   4.837  11.090 -0.1700  0.2783 -0.2670
26770SOL    HW190240   5.125   4.807  11.134 -0.5423 -0.7566 -0.2638
26770SOL    HW290241   5.076   4.894  11.020  0.4854  1.1456  0.6884
26771SOL     OW90242  13.166   5.051   4.434  0.1177 -0.4426  0.5223
26771SOL    HW190243  13.180   4.957   4.446  1.2047 -0.0526  3.0536
26771SOL    HW290244  13.126   5.079   4.517  3.1772  1.8745  1.3812
26772SOL     OW90245  12.852   0.857   4.497  0.1312  0.4892 -0.4111
26772SOL    HW190246  12.847   0.945   4.535 -2.7136  0.2412  0.0392
26772SOL    HW290247  12.912   0.809   4.555 -0.0983  1.5377  0.7369
26773SOL     OW90248   0.406   2.687   9.716 -0.1686 -0.2772  0.6396
26773SOL    HW190249   0.323   2.648   9.694  0.3562 -1.4869  0.7468
26773SOL    HW290250   0.386   2.780   9.731 -1.2030 -0.2342 -0.8689
26774SOL     OW90251   3.291  10.242   2.546 -0.4742 -0.2860  0.6164
26774SOL    HW190252   3.253  10.325   2.518 -0.2274 -0.3304  0.1366
26774SOL    HW290253   3.270  10.181   2.475  2.6261  0.2503 -0.9343
26775SOL     OW90254   5.981   9.334   9.458 -0.0246  0.7087 -0.5244
26775SOL    HW190255   5.938   9.419   9.471  1.6641  1.3893  1.1025
26775SOL    HW290256   5.986   9.324   9.363 -1.4766  1.7756 -0.7466
26776SOL     OW90257  10.713   2.109   8.520  0.2450 -0.4848  0.2917
26776SOL    HW190258  10.678   2.113   8.609 -0.2824 -1.9288  0.1847
26776SOL    HW290259  10.692   2.021   8.491  0.9471 -0.2290 -1.0567
26777SOL     OW90260   3.729  12.462  12.346 -1.0911  0.7532 -0.0821
26777SOL    HW190261   3.661  12.408  12.387  1.7101 -2.7482  0.4332
26777SOL    HW290262   3.769  12.510  12.419 -2.3680  2.1734 -0.2714
26778SOL     OW90263  12.861   9.305   5.274  0.3792  0.4355 -0.0961
26778SOL    HW190264  12.942   9.353   5.254 -0.1004  0.5957 -1.7601
26778SOL    HW290265  12.809   9.366   5.327  0.7150  0.8940 -0.2908
26779SOL     OW90266   1.039   1.266   4.113  0.1211 -0.2391  0.4586
26779SOL    HW190267   1.014   1.241   4.202  0.0594  0.2031  0.5700
26779SOL    HW290268   0.993   1.349   4.098  1.0331  0.2808  0.4455
26780SOL     OW90269  11.585   0.951   9.964 -0.2378  0.0993 -0.6012
26780SOL    HW190270  11.608   0.980  10.052 -0.5777 -1.7256  0.1294
26780SOL    HW290271  11.531   0.874   9.977  1.5504 -1.5865 -2.4474
26781SOL     OW90272  10.067   4.903   1.886  0.3621  0.0199  0.8491
26781SOL    HW190273   9.985   4.942   1.915 -0.1068 -0.7603  0.5926
26781SOL    HW290274  10.043   4.816   1.854  0.9951  0.4859 -1.0091
26782SOL     OW90275   4.931   0.533   3.568  0.2222  0.1098  0.9762
26782SOL    HW190276   5.017   0.545   3.608  0.2809 -0.3503  0.9929
26782SOL    HW290277   4.881   0.611   3.593  0.5893  0.3146  1.0766
26783SOL     OW90278   0.417  13.070  10.191 -0.0818 -0.2161 -0.2792
26783SOL    HW190279   0.427  13.033  10.103 -0.8092  1.2097 -0.9894
26783SOL    HW290280   0.496  13.122  10.204 -0.3924  0.3179 -0.4828
26784SOL     OW90281   4.608  11.688   4.313  0.1094  0.2688 -0.4156
26784SOL    HW190282   4.698  11.700   4.281  1.5053 -4.1168  1.1698
26784SOL    HW290283   4.573  11.618   4.259 -1.6749  0.5791  0.2871
26785SOL     OW90284  12.585   9.489  11.911  0.4307 -0.1203 -0.3691
26785SOL    HW190285  12.651   9.558  11.904  1.6464 -1.0170  1.3184
26785SOL    HW290286  12.578   9.453  11.823 -0.4221  2.2487 -1.3466
26786SOL     OW90287   0.697   4.610   5.265  0.1822 -0.4059 -0.2568
26786SOL    HW190288   0.749   4.563   5.330 -0.1339 -0.0461  0.2600
26786SOL    HW290289   0.606   4.587   5.286  0.0374  0.2745 -0.1259
26787SOL     OW90290   9.666   2.330   5.697  0.0969  0.1459 -0.6218
26787SOL    HW190291   9.580   2.357   5.664 -1.1779  0.2138  2.4268
26787SOL    HW290292   9.659   2.236   5.712  0.5247  0.1733 -0.2158
26788SOL     OW90293  12.016  12.596   0.752 -0.1678  0.0381 -0.3453
26788SOL    HW190294  12.079  12.572   0.685  1.2605  1.6035  0.3637
26788SOL    HW290295  12.060  12.576   0.835  0.7055  3.7600  0.2640
26789SOL     OW90296   7.600   7.133   1.759  0.5584 -0.4449  0.3281
26789SOL    HW190297   7.658   7.085   1.699 -0.4893  0.4573 -1.4872
26789SOL    HW290298   7.625   7.224   1.748 -0.8068 -0.0948 -0.0848
26790SOL     OW90299   5.539  12.208   3.942 -0.3166  0.0462 -0.4955
26790SOL    HW190300   5.530  12.199   3.848 -2.3713  2.4651 -0.6437
26790SOL    HW290301   5.471  12.151   3.978 -0.2904 -0.0105 -0.5366
26791SOL     OW90302   0.710   5.219  12.795 -0.1703  0.2831  0.3705
26791SOL    HW190303   0.648   5.214  12.723  0.5914 -0.8932 -0.2331
26791SOL    HW290304   0.674   5.161  12.862  0.1710 -0.2263  0.1101
26792SOL     OW90305  11.943   4.630   2.629 -0.0414  0.3986 -0.4611
26792SOL    HW190306  12.028   4.619   2.672  0.7892 -1.4382 -2.3694
26792SOL    HW290307  11.880   4.600   2.694  1.1589 -2.3207 -0.4046
26793SOL     OW90308   7.084   5.067   2.621  0.1254  0.5495 -0.1085
26793SOL    HW190309   7.088   5.026   2.534  0.4794  0.6432 -0.1349
26793SOL    HW290310   7.153   5.133   2.620  0.3239  0.3519  0.3527
26794SOL     OW90311  10.094  10.556   4.583 -0.1584 -0.1469 -0.1433
26794SOL    HW190312  10.152  10.522   4.652 -0.5028  0.4575  0.4536
26794SOL    HW290313  10.006  10.547   4.619 -0.3787 -0.2808 -0.7093
26795SOL     OW90314   8.962   5.325   7.693  0.0238  0.3394 -0.5257
26795SOL    HW190315   9.049   5.304   7.725 -0.3694  0.0700  0.4334
26795SOL    HW290316   8.931   5.393   7.754 -0.4548  0.3812 -0.8135
26796SOL     OW90317   8.599   6.141   3.594  0.2400 -0.2399 -1.0142
26796SOL    HW190318   8.655   6.112   3.665  1.2868 -1.6119 -2.3289
26796SOL    HW290319   8.656   6.195   3.539 -0.6786  1.2122 -0.6200
26797SOL     OW90320   6.455   7.559   3.429 -0.5987  0.2887 -0.3029
26797SOL    HW190321   6.503   7.483   3.395  0.9437  1.5764 -1.1902
26797SOL    HW290322   6.386   7.574   3.364  0.1281  0.6175 -1.0160
26798SOL     OW90323  12.104   7.977   2.208  0.2277  0.1595 -0.1011
26798SOL    HW190324  12.085   8.032   2.283  1.5846  1.7613 -0.8469
26798SOL    HW290325  12.019   7.943   2.180 -0.5056  0.9655  1.0686
26799SOL     OW90326   1.566   5.722  12.396  0.2187  0.1339 -0.1142
26799SOL    HW190327   1.537   5.698  12.308 -2.8234  0.2164  0.7366
26799SOL    HW290328   1.591   5.639  12.437 -0.4394 -0.2224 -0.4149
26800SOL     OW90329   0.075  12.386   8.741  0.6377  0.5830 -0.6141
26800SOL    HW190330   0.004  12.444   8.712  1.4304  1.7806 -0.2467
26800SOL    HW290331   0.073  12.391   8.836 -0.1979 -1.1635 -0.5119
26801SOL     OW90332  11.784   7.019   9.797 -0.1343  0.0039 -0.0854
26801SOL    HW190333  11.763   7.076   9.723  0.0475  0.9125  0.5417
26801SOL    HW290334  11.869   7.051   9.828 -0.9839  0.7801  1.5733
26802SOL     OW90335  10.499   6.271   7.262  0.1079  0.1624 -0.2535
26802SOL    HW190336  10.491   6.276   7.167 -1.0240  0.2831 -0.1601
26802SOL    HW290337  10.575   6.215   7.277  0.4817  0.3957 -1.2261
26803SOL     OW90338   2.323  11.204  12.654 -0.8562  0.2181 -0.4579
26803SOL    HW190339   2.246  11.163  12.615  1.0744 -2.2583 -1.9295
26803SOL    HW290340   2.325  11.292  12.616 -2.7678  0.2194 -0.6199
26804SOL     OW90341  12.654  11.762  10.904 -0.3382  0.4975  0.2413
26804SOL    HW190342  12.603  11.694  10.948 -0.1179 -0.5720 -1.0759
26804SOL    HW290343  12.590  11.830  10.882 -1.6075 -1.4500 -2.6561
26805SOL     OW90344   3.226   9.227   6.214  0.4942 -0.4299 -0.0416
26805SOL    HW190345   3.241   9.192   6.126  2.5717  1.5918 -0.5912
26805SOL    HW290346   3.307   9.209   6.261 -0.4573 -1.1610  1.4060
26806SOL     OW90347   2.802   7.465   1.364 -0.0777 -0.4015  0.2069
26806SOL    HW190348   2.887   7.498   1.337 -0.2693 -0.5300 -0.5934
26806SOL    HW290349   2.739   7.514   1.310 -0.6682  1.2400  2.2873
26807SOL     OW90350  10.575   1.246  10.849  1.1277 -0.0911  0.3589
26807SOL    HW190351  10.541   1.158  10.864 -0.8761  0.4509 -0.7359
26807SOL    HW290352  10.635   1.237  10.775  0.2337 -0.3921 -0.3376
26808SOL     OW90353   5.517  10.070   5.552 -0.4679  1.0105  0.4998
26808SOL    HW190354   5.440  10.016   5.534 -0.6062  0.8965  1.4211
26808SOL    HW290355   5.525  10.071   5.647  0.6861  1.0034  0.4251
26809SOL     OW90356   8.480   0.206   5.132  0.2915  0.4150 -0.1062
26809SOL    HW190357   8.522   0.168   5.055  0.7816 -0.0093  0.3636
26809SOL    HW290358   8.538   0.277   5.159  0.3756  0.2405  0.1696
26810SOL     OW90359   3.496   0.500   9.580 -0.6575 -0.3766  0.3981
26810SOL    HW190360   3.568   0.563   9.581  0.2655 -1.4011  1.3897
26810SOL    HW290361   3.469   0.494   9.671 -1.1732 -0.9348  0.2121
26811SOL     OW90362   7.598  10.971   2.649 -0.2103  0.2856  0.2922
26811SOL    HW190363   7.522  10.919   2.624  0.3576  0.4692 -2.1033
26811SOL    HW290364   7.653  10.910   2.698 -0.1167 -1.0944 -1.3979
26812SOL     OW90365   8.266   8.189   1.995 -0.8767 -0.0551  0.0760
26812SOL    HW190366   8.282   8.122   2.062  0.8816  0.4894  0.2509
26812SOL    HW290367   8.268   8.272   2.044  2.0144  0.4859 -0.7898
26813SOL     OW90368   1.594   3.551   2.652  0.2038 -0.1232  0.2757
26813SOL    HW190369   1.551   3.635   2.635 -0.5126 -0.3835  0.7598
26813SOL    HW290370   1.523   3.492   2.676  0.6222 -1.0498 -0.7101
26814SOL     OW90371   7.396   2.832   1.448 -1.1489  0.0978  0.3963
26814SOL    HW190372   7.375   2.921   1.418 -2.3372 -0.0931  0.6074
26814SOL    HW290373   7.359   2.775   1.381  1.4262 -0.2591 -0.8605
26815SOL     OW90374   7.573   3.204  11.064  0.2333 -0.2961 -0.1587
26815SOL    HW190375   7.547   3.137  11.001 -0.1684  0.8160 -1.2000
26815SOL    HW290376   7.520   3.280  11.043  1.0112  0.5169  0.6956
26816SOL     OW90377  12.136   9.963   3.394  0.5436 -0.1224 -0.2335
26816SOL    HW190378  12.084  10.042   3.378  1.4258  0.5260 -0.0155
26816SOL    HW290379  12.074   9.901   3.431 -0.3158  0.2334 -1.0335
26817SOL     OW90380   6.947   1.172   0.559 -0.1401 -0.1635  0.3018
26817SOL    HW190381   6.884   1.103   0.536  0.0106 -0.6282  1.2677
26817SOL    HW290382   7.022   1.155   0.502 -0.7847  0.2904 -0.7360
26818SOL     OW90383  13.094   8.730   0.677 -0.4361 -0.3025 -0.5736
26818SOL    HW190384  13.019   8.711   0.621  0.7570  0.0705 -2.4057
26818SOL    HW290385  13.062   8.796   0.739 -1.7441 -0.5179 -0.9973
26819SOL     OW90386   6.244   9.175   0.820 -0.3432 -0.8166  0.1055
26819SOL    HW190387   6.161   9.130   0.803 -0.7165 -0.9867  2.0899
26819SOL    HW290388   6.311   9.112   0.794 -0.7878 -0.6932 -1.4823
26820SOL     OW90389   6.581  12.961  11.165 -0.4084  0.0043  0.3261
26820SOL    HW190390   6.638  12.900  11.212 -0.5066 -1.3691 -1.2637
26820SOL    HW290391   6.519  12.905  11.119  0.4374  1.1407 -2.4354
26821SOL     OW90392   2.139  13.150   4.526  0.3934 -0.2297  0.0515
26821SOL    HW190393   2.107  13.241   4.526  0.0974 -0.3282  0.3764
26821SOL    HW290394   2.129  13.121   4.436 -1.5325 -0.6220  0.3362
26822SOL     OW90395   0.991  11.603   9.935 -0.6881 -0.5020 -0.9447
26822SOL    HW190396   1.018  11.693   9.950 -2.2431 -0.3537  1.4188
26822SOL    HW290397   1.073  11.554   9.926  0.2131  0.7899 -0.0077
26823SOL     OW90398   5.903   9.198   8.213  0.4568  0.4310  0.6401
26823SOL    HW190399   5.875   9.289   8.207  1.0621  0.7069  1.7383
26823SOL    HW290400   5.976   9.191   8.151 -0.6798  0.2277 -0.7239
26824SOL     OW90401   3.049  11.835  12.702  0.6680  0.6268  0.2360
26824SOL    HW190402   3.133  11.819  12.746 -0.7037 -3.4069  1.8328
26824SOL    HW290403   3.067  11.817  12.609  1.5107 -0.4954  0.6028
26825SOL     OW90404   6.924   6.430  10.758  0.4924 -0.4538  0.1012
26825SOL    HW190405   6.878   6.358  10.803 -0.8812  0.6174  0.4795
26825SOL    HW290406   6.854   6.486  10.726  1.5395  0.4738 -0.6158
26826SOL     OW90407   4.501   9.595   8.502 -0.3059 -0.4423  0.3766
26826SOL    HW190408   4.524   9.566   8.413 -1.5711  1.2603 -0.5589
26826SOL    HW290409   4.414   9.559   8.517  0.3348 -1.6553  1.4278
26827SOL     OW90410  10.406   2.295   4.531 -0.4119  0.0235  0.7594
26827SOL    HW190411  10.404   2.238   4.454  1.2593 -1.1535  1.5302
26827SOL    HW290412  10.361   2.375   4.502 -1.7831 -1.2189 -0.7100
26828SOL     OW90413   1.328  12.874   1.650  0.3753  0.2097 -0.1789
26828SOL    HW190414   1.375  12.792   1.633 -1.6220 -1.0773  0.1724
26828SOL    HW290415   1.257  12.849   1.709 -1.1485  1.9020 -1.1829
26829SOL     OW90416  11.133   5.054   9.249 -0.0946  0.4305  0.2325
26829SOL    HW190417  11.143   5.005   9.167 -0.2518  0.0989  0.4101
26829SOL    HW290418  11.137   5.145   9.223  0.7001  0.3301 -0.0504
26830SOL     OW90419   1.120   2.268   9.293  0.3503 -0.5366 -0.0783
26830SOL    HW190420   1.078   2.244   9.210 -1.5947 -0.3595  0.8107
26830SOL    HW290421   1.201   2.217   9.294 -0.7199 -2.3569 -1.0327
26831SOL     OW90422   7.430   4.781   8.988 -0.0617  0.0304 -0.1415
26831SOL    HW190423   7.423   4.757   9.080  0.7465  0.3440  0.0057
26831SOL    HW290424   7.339   4.788   8.958 -0.3291  0.1204  0.6754
26832SOL     OW90425   0.112  11.955   2.805 -0.0891 -0.4528 -0.5108
26832SOL    HW190426   0.095  11.865   2.833  0.5393 -0.8023 -1.2041
26832SOL    HW290427   0.140  12.000   2.885 -1.1261 -0.6719 -0.0078
26833SOL     OW90428  12.848   5.660   2.416 -0.0822 -0.0092  0.2747
26833SOL    HW190429  12.856   5.755   2.423 -1.3046  0.0528  1.1822
26833SOL    HW290430  12.828   5.630   2.505  1.9515 -1.3285  0.3485
26834SOL     OW90431   6.969   7.094   1.466 -0.4717 -0.3273  0.6330
26834SOL    HW190432   6.922   7.092   1.549 -0.2501 -1.0119  0.7530
26834SOL    HW290433   7.052   7.137   1.486  0.7474 -2.8213  1.4384
26835SOL     OW90434  10.626   5.995   0.855 -0.4864  0.5948  0.1192
26835SOL    HW190435  10.668   6.011   0.770 -2.1976  0.0472 -0.8739
26835SOL    HW290436  10.656   5.908   0.881 -1.5112 -0.1044 -0.9393
26836SOL     OW90437   3.605   3.399   1.710 -0.3653  0.2187  0.0509
26836SOL    HW190438   3.514   3.390   1.682 -0.5298  0.3174  0.5412
26836SOL    HW290439   3.600   3.404   1.805  0.0811  1.0262  0.0433
26837SOL     OW90440   5.749   6.274   3.887 -0.1148 -0.1915  0.2346
26837SOL    HW190441   5.693   6.351   3.893 -0.3661 -0.4233  0.9408
26837SOL    HW290442   5.695   6.202   3.919  0.6548 -0.3860  1.1480
26838SOL     OW90443  11.136   0.923   0.850  0.1987 -0.1293  0.2461
26838SOL    HW190444  11.140   0.842   0.902 -0.4314  0.9194  2.0101
26838SOL    HW290445  11.115   0.991   0.914 -0.4373  1.2666 -1.3893
26839SOL     OW90446   1.384  12.018  13.061 -1.0883 -0.1594 -0.1407
26839SOL    HW190447   1.462  12.073  13.052 -0.7640 -0.9410 -3.1559
26839SOL    HW290448   1.417  11.933  13.089 -1.2910  0.3972  1.8948
26840SOL     OW90449   7.299   6.161  12.376  0.5072 -0.3819 -0.6151
26840SOL    HW190450   7.295   6.248  12.337 -1.0221 -0.3151 -0.3585
26840SOL    HW290451   7.225   6.114  12.338  0.3444 -1.0407  0.4638
26841SOL     OW90452   2.070  11.113   5.455 -0.0381  0.1180  0.2157
26841SOL    HW190453   2.125  11.042   5.422  0.4260 -0.3224  1.8313
26841SOL    HW290454   2.008  11.069   5.513 -0.1266  0.9654  0.7657
26842SOL     OW90455   4.431   5.212  11.214  0.3372  0.1850  0.0507
26842SOL    HW190456   4.369   5.208  11.287  0.0488  1.6654 -0.0785
26842SOL    HW290457   4.509   5.253  11.250  1.6166 -2.4507  0.4269
26843SOL     OW90458   0.346   6.097   4.209 -0.6115  0.4759  0.1248
26843SOL    HW190459   0.398   6.120   4.132  0.1146  1.9298  1.0177
26843SOL    HW290460   0.353   6.002   4.215  2.1979  0.6261  0.3661
26844SOL     OW90461   4.339   3.364   7.464  0.0272 -0.1691  0.2076
26844SOL    HW190462   4.268   3.395   7.408 -1.0410 -0.9690  1.0852
26844SOL    HW290463   4.412   3.348   7.404 -1.0333 -0.8508 -0.9365
26845SOL     OW90464  10.337   9.595   9.747  0.3063  0.3674 -0.3885
26845SOL    HW190465  10.429   9.617   9.763  1.3635 -3.2737 -0.6835
26845SOL    HW290466  10.335   9.563   9.657 -0.9998 -0.6676 -0.0252
26846SOL     OW90467   5.216   8.194  11.910  0.2379  0.6068 -0.2821
26846SOL    HW190468   5.230   8.241  11.828 -1.5122 -0.9686 -1.5724
26846SOL    HW290469   5.122   8.197  11.924  0.5071  0.9802  1.8181
26847SOL     OW90470   1.946  12.553  13.261 -0.6857 -0.0184 -0.6520
26847SOL    HW190471   1.951  12.466  13.301 -0.1268 -0.7546 -2.2287
26847SOL    HW290472   1.887  12.541  13.186 -0.7665  1.0125 -0.7697
26848SOL     OW90473   5.291   1.367   9.907  0.1394 -0.2301  0.3873
26848SOL    HW190474   5.377   1.391   9.874 -0.2685  1.2744  0.3322
26848SOL    HW290475   5.271   1.284   9.865  1.8183 -0.9417  0.8927
26849SOL     OW90476   1.504  12.102  10.156 -0.4040  0.4021 -0.0520
26849SOL    HW190477   1.531  12.189  10.188 -0.5127  0.0855  0.9256
26849SOL    HW290478   1.586  12.053  10.149 -0.3821  0.4648 -0.2255
26850SOL     OW90479   0.438   5.944   1.911  0.0733 -0.0922 -0.7499
26850SOL    HW190480   0.346   5.919   1.902  0.2802 -1.0042 -0.4488
26850SOL    HW290481   0.436   6.028   1.958 -0.5856 -0.2725 -0.4504
26851SOL     OW90482   1.770   4.556   8.968  0.0276 -0.0773  0.1259
26851SOL    HW190483   1.855   4.579   9.005  1.2532  0.6774 -2.8988
26851SOL    HW290484   1.745   4.631   8.915 -1.8219 -0.9043 -0.2531
26852SOL     OW90485   6.054   3.809   7.941 -0.2978 -0.3030 -0.5378
26852SOL    HW190486   6.144   3.827   7.913 -0.5409  0.1893 -1.0201
26852SOL    HW290487   6.041   3.866   8.017 -0.1687 -0.4558 -0.3995
26853SOL     OW90488  12.735  11.272   6.006  0.3942  0.1316 -0.0445
26853SOL    HW190489  12.705  11.206   5.943  1.0788 -0.6359  0.4188
26853SOL    HW290490  12.665  11.338   6.006 -0.5825 -0.8720 -0.0894
26854SOL     OW90491  13.022   9.311   2.514  0.1397  0.4189 -0.0152
26854SOL    HW190492  13.044   9.247   2.581  1.4801  0.6742 -0.1947
26854SOL    HW290493  13.061   9.276   2.434  1.5975  1.8374  0.0418
26855SOL     OW90494  12.601   6.969  12.618  0.6581  0.3387 -0.0136
26855SOL    HW190495  12.528   6.910  12.639 -1.2317  1.5081 -2.7169
26855SOL    HW290496  12.574   7.054  12.654  0.7035  0.7526 -0.9236
26856SOL     OW90497   6.382   7.840   2.204  0.4321  0.4292 -0.2492
26856SOL    HW190498   6.381   7.862   2.297  1.4802  2.5194 -0.6837
26856SOL    HW290499   6.410   7.748   2.202  1.5900  0.6995  1.4628
26857SOL     OW90500   5.013   5.654   4.461 -0.4865  0.7528 -0.0402
26857SOL    HW190501   5.017   5.580   4.522 -0.2072 -0.4627 -1.4589
26857SOL    HW290502   4.993   5.730   4.516  2.0036  0.1475  1.9027
26858SOL     OW90503   4.898   0.595   9.313 -0.5261  0.6598  0.2581
26858SOL    HW190504   4.936   0.590   9.225  1.7405 -0.4084  1.1951
26858SOL    HW290505   4.805   0.611   9.299 -0.2128  0.6046 -2.3224
26859SOL     OW90506  12.904   4.192   1.572 -0.9692 -0.4885  0.5810
26859SOL    HW190507  12.961   4.167   1.645  0.0478  2.3184  0.8795
26859SOL    HW290508  12.830   4.237   1.614 -1.6320 -0.9993 -0.0183
26860SOL     OW90509   5.711  12.980   7.600 -0.3603 -0.6309  0.1067
26860SOL    HW190510   5.756  12.899   7.577 -1.5353 -1.2075 -0.2484
26860SOL    HW290511   5.647  12.992   7.531  1.0740  1.6940 -0.9414
26861SOL     OW90512   1.009   8.489  13.146 -0.0411 -0.5329  0.1219
26861SOL    HW190513   0.970   8.501  13.233  0.4319  2.0016  0.0550
26861SOL    HW290514   1.070   8.417  13.158 -0.1696 -0.4091  1.8417
26862SOL     OW90515   2.502   4.297  12.584 -0.2432  0.3991 -0.1607
26862SOL    HW190516   2.517   4.362  12.515  1.4412  0.0181 -0.1910
26862SOL    HW290517   2.427   4.331  12.633  0.2254  2.0804 -0.5438
26863SOL     OW90518   5.517   3.658   4.542 -0.0481 -0.0871  0.0102
26863SOL    HW190519   5.506   3.581   4.486  0.5327  0.4827 -0.9174
26863SOL    HW290520   5.584   3.710   4.498  1.3695 -0.2089  1.9139
26864SOL     OW90521  10.210   0.241   7.602 -0.3139 -0.1836  0.2685
26864SOL    HW190522  10.132   0.292   7.579 -0.2798  0.3846  1.3900
26864SOL    HW290523  10.268   0.251   7.527 -0.5287  0.9863  0.2456
26865SOL     OW90524   3.804   6.725  11.487  0.2974 -0.2955 -0.1972
26865SOL    HW190525   3.829   6.633  11.489 -0.5817 -0.5283  0.5692
26865SOL    HW290526   3.752   6.735  11.407  1.7312 -0.0832 -1.1423
26866SOL     OW90527   0.816   5.779   2.258  0.2611 -0.2248 -0.1821
26866SOL    HW190528   0.781   5.737   2.179 -0.3490 -1.0222  0.4944
26866SOL    HW290529   0.888   5.722   2.286 -0.5253 -0.7959  0.7039
26867SOL     OW90530   5.222   8.421   0.076  0.2223 -0.2639 -0.0850
26867SOL    HW190531   5.164   8.494   0.098 -2.5567 -1.8814 -1.4974
26867SOL    HW290532   5.261   8.395   0.159 -0.9058  1.0521  0.9021
26868SOL     OW90533   9.032   6.473   8.023  0.2256  0.3532 -0.0515
26868SOL    HW190534   9.071   6.399   7.978 -0.1717 -1.5922  2.5479
26868SOL    HW290535   9.106   6.521   8.061  0.3895 -0.1795  0.3158
26869SOL     OW90536   4.965   5.142   1.918 -0.1008  0.2240  0.4555
26869SOL    HW190537   4.946   5.069   1.859 -1.2554  0.7392  0.1654
26869SOL    HW290538   4.916   5.123   1.998  1.5699 -0.5396  1.3371
26870SOL     OW90539  11.448   9.673   8.071  0.0965 -0.3998 -0.1416
26870SOL    HW190540  11.451   9.661   7.976 -0.3942 -0.3165 -0.1701
26870SOL    HW290541  11.401   9.596   8.104  0.4931 -0.5573  0.0585
26871SOL     OW90542   8.503   9.856  10.521  0.3766 -0.0130  0.3145
26871SOL    HW190543   8.563   9.804  10.468  0.0117  0.4760 -0.5944
26871SOL    HW290544   8.507   9.944  10.484 -0.4698  0.1581  0.5952
26872SOL     OW90545   2.761   8.110   8.400  0.1365  0.5374  0.5997
26872SOL    HW190546   2.683   8.092   8.349  1.4442 -0.5750 -1.1260
26872SOL    HW290547   2.816   8.032   8.388  1.2884  1.0263  2.2284
26873SOL     OW90548   0.309  12.187   0.830  0.2090 -0.1954  0.4829
26873SOL    HW190549   0.351  12.237   0.900  2.9965  0.4397 -1.4797
26873SOL    HW290550   0.292  12.251   0.761 -0.8405 -1.1078 -0.1445
26874SOL     OW90551   7.978   3.387  11.762  0.2907  0.4038  0.5422
26874SOL    HW190552   7.893   3.427  11.744 -0.5231 -0.7348  1.6470
26874SOL    HW290553   7.974   3.361  11.854  0.4503 -2.7652 -0.2059
26875SOL     OW90554  12.885  11.207  10.398 -0.4622 -0.3199  0.1982
26875SOL    HW190555  12.880  11.297  10.428 -1.2620  0.4714 -2.0695
26875SOL    HW290556  12.976  11.194  10.372  0.0684 -0.7907  2.1419
26876SOL     OW90557   1.913   8.980   7.431 -0.4319 -0.3565  0.1526
26876SOL    HW190558   1.991   8.957   7.381 -0.9306 -0.1553 -0.7380
26876SOL    HW290559   1.931   9.068   7.463 -0.3455 -0.2585 -0.1619
26877SOL     OW90560   9.517   5.977   9.668 -0.2851  0.1444 -0.0080
26877SOL    HW190561   9.457   6.052   9.673  0.7112  1.0715 -1.0730
26877SOL    HW290562   9.462   5.901   9.684 -1.6375  1.0017 -0.3684
26878SOL     OW90563  12.372   7.566   9.905 -0.4426 -0.4169  0.2568
26878SOL    HW190564  12.434   7.584   9.975 -0.9531  0.9752  0.3682
26878SOL    HW290565  12.362   7.470   9.908 -0.6799 -0.3923  2.2872
26879SOL     OW90566  11.593   9.268  11.243 -0.5206  0.3725 -0.0208
26879SOL    HW190567  11.655   9.222  11.300  0.7029  0.3338 -1.3266
26879SOL    HW290568  11.616   9.361  11.252 -1.7290  0.5795  1.1488
26880SOL     OW90569  10.976  12.192   6.313  0.0637 -0.1923  0.2685
26880SOL    HW190570  11.020  12.268   6.350 -0.6545  0.5623 -0.4072
26880SOL    HW290571  11.006  12.188   6.222  0.2362 -0.8297  0.3449
26881SOL     OW90572   8.091   0.802   2.264  0.4030 -0.1016  0.5388
26881SOL    HW190573   8.021   0.867   2.253  1.1189  0.6958  0.5713
26881SOL    HW290574   8.159   0.829   2.202  0.1948 -1.5808 -0.3872
26882SOL     OW90575   8.335  11.339   8.592 -0.0643 -0.4106 -0.4201
26882SOL    HW190576   8.304  11.250   8.576  1.0831 -1.2563  1.6920
26882SOL    HW290577   8.264  11.380   8.643 -1.5609  0.6977 -3.1609
26883SOL     OW90578   5.632   1.907  13.071  0.8468  0.1205  0.4014
26883SOL    HW190579   5.691   1.856  13.126  0.3698  0.3207  1.1141
26883SOL    HW290580   5.620   1.990  13.119 -0.3742 -0.0947  0.5145
26884SOL     OW90581   1.039   0.508   3.259 -0.3074  0.1639 -0.3554
26884SOL    HW190582   0.949   0.538   3.269 -0.7021 -1.3365  0.7482
26884SOL    HW290583   1.059   0.523   3.166 -1.5871  0.7550 -0.5471
26885SOL     OW90584  10.586  10.611  11.486 -0.2043 -0.4738  0.1811
26885SOL    HW190585  10.541  10.551  11.545 -1.2511 -0.5704 -0.6807
26885SOL    HW290586  10.617  10.555  11.414  0.7501 -0.3083  0.4546
26886SOL     OW90587  12.868   2.397  11.492 -0.1363 -0.2475  0.7762
26886SOL    HW190588  12.801   2.456  11.458  1.0353  0.7730  0.1730
26886SOL    HW290589  12.863   2.405  11.587 -1.0699 -0.4235  0.7466
26887SOL     OW90590  10.322   3.010  11.309  0.5225  0.1857 -0.2037
26887SOL    HW190591  10.280   2.924  11.305  1.4586 -0.3100  0.3169
26887SOL    HW290592  10.261   3.064  11.359  0.6682 -0.6243  0.8688
26888SOL     OW90593   7.976  12.691   3.019  0.0333 -0.0091  0.4702
26888SOL    HW190594   8.070  12.680   3.032 -0.1982 -1.0985  1.3954
26888SOL    HW290595   7.944  12.604   2.998 -1.0010 -0.0003  1.8203
26889SOL     OW90596   0.671   7.625   2.711 -0.6331  0.3369 -0.5672
26889SOL    HW190597   0.672   7.533   2.736 -1.0255  0.3208 -0.5971
26889SOL    HW290598   0.717   7.670   2.782 -0.5537  0.1326 -0.4893
26890SOL     OW90599  12.554   1.956   5.032  0.6776  0.3278 -0.4584
26890SOL    HW190600  12.561   2.048   5.005  1.3550  0.8458  1.3773
26890SOL    HW290601  12.463   1.946   5.060  0.8166  0.6897  0.1447
26891SOL     OW90602   7.972   9.246   0.398 -0.1652  0.0173 -0.3026
26891SOL    HW190603   7.887   9.223   0.433  0.5913 -0.1435  1.5338
26891SOL    HW290604   7.963   9.336   0.367 -1.3892 -0.5091 -1.6045
26892SOL     OW90605   2.073  11.061   8.758 -0.1107  0.2569 -0.0686
26892SOL    HW190606   1.994  11.102   8.723 -1.2061 -1.6438  0.0209
26892SOL    HW290607   2.072  10.973   8.721  1.0604 -0.3673  1.2864
26893SOL     OW90608   8.286   2.212   3.816  0.2572 -0.3878  0.0243
26893SOL    HW190609   8.372   2.189   3.852  1.0592 -1.2033 -2.2109
26893SOL    HW290610   8.302   2.224   3.723 -2.0484 -0.4683 -0.4373
26894SOL     OW90611  12.272   7.878   6.090 -0.2897 -0.2239  0.3322
26894SOL    HW190612  12.277   7.959   6.041 -1.3781 -1.2012 -1.5080
26894SOL    HW290613  12.351   7.829   6.064 -0.8665 -0.7416 -0.5150
26895SOL     OW90614   1.039   8.875  12.218 -0.0049 -0.1498  0.3510
26895SOL    HW190615   1.038   8.816  12.293  0.4835  0.0893  0.5515
26895SOL    HW290616   0.948   8.877  12.187 -0.5439  0.9294  1.8689
26896SOL     OW90617  10.023  13.042   7.893  0.8558  0.0103  0.2193
26896SOL    HW190618  10.029  12.975   7.825 -0.2319 -0.8685  0.9454
26896SOL    HW290619   9.983  12.996   7.967  1.8824  0.9787  1.4073
26897SOL     OW90620   5.765  11.057   9.355 -0.5485  0.7934 -0.1099
26897SOL    HW190621   5.822  11.130   9.381 -0.3883  0.8218 -0.5394
26897SOL    HW290622   5.742  11.015   9.437  0.2350  0.6711  0.0572
26898SOL     OW90623   6.370  12.215   2.617  0.0848  0.3218  0.0052
26898SOL    HW190624   6.395  12.143   2.675 -0.0864  1.3034  1.3313
26898SOL    HW290625   6.449  12.234   2.567  0.0635 -0.9454 -0.5637
26899SOL     OW90626   2.982   4.469   3.974 -0.3149 -0.1630 -0.1106
26899SOL    HW190627   3.012   4.558   3.954 -0.7708 -0.1828 -0.9241
26899SOL    HW290628   3.008   4.455   4.065 -0.7184  1.0051  0.2049
26900SOL     OW90629   8.907  10.971   2.957 -0.7190 -0.5144 -0.2031
26900SOL    HW190630   8.895  11.060   2.924  0.2410 -0.0077  0.7360
26900SOL    HW290631   8.871  10.972   3.045  0.7965 -0.5544  0.4559
26901SOL     OW90632   9.220   6.189   9.927  0.5124  0.3210  0.2374
26901SOL    HW190633   9.278   6.171   9.853 -0.1195 -1.5602  0.1626
26901SOL    HW290634   9.259   6.266   9.969  0.2838  2.1594 -2.6584
26902SOL     OW90635   7.001   4.902   4.397  0.6765  0.0254 -0.9013
26902SOL    HW190636   7.034   4.969   4.337  1.0708  1.1331  0.4707
26902SOL    HW290637   7.015   4.940   4.484 -1.0499 -0.9645 -0.1439
26903SOL     OW90638  12.449  11.412   5.221  0.3725 -0.5606  0.5524
26903SOL    HW190639  12.473  11.498   5.186  2.7156 -1.2678  0.2593
26903SOL    HW290640  12.415  11.430   5.309 -0.9141  0.7758 -0.1652
26904SOL     OW90641   2.499   1.988  10.129 -0.4682 -0.3188  0.0398
26904SOL    HW190642   2.404   1.994  10.120 -0.5310 -2.0745 -0.9519
26904SOL    HW290643   2.515   1.897  10.156  0.9174  0.0163  0.4384
26905SOL     OW90644   6.107   8.565   5.051  0.1137 -0.1279 -0.2141
26905SOL    HW190645   6.025   8.587   5.094 -0.1903 -0.1888 -0.7492
26905SOL    HW290646   6.088   8.573   4.957 -0.0979 -2.8050 -0.4876
26906SOL     OW90647   2.188   5.984   2.685 -0.0173 -0.2792  0.1090
26906SOL    HW190648   2.256   5.927   2.649 -0.9902 -1.0992 -0.4740
26906SOL    HW290649   2.123   5.992   2.616 -0.5593  0.4463  0.6779
26907SOL     OW90650   2.044   9.346   1.582  0.5704  0.1769  0.2154
26907SOL    HW190651   2.041   9.395   1.499 -0.4142  0.4907  0.4189
26907SOL    HW290652   1.952   9.336   1.607  0.8619  0.3148  1.4022
26908SOL     OW90653  12.621  12.993   2.704  0.4331  0.3511 -0.4249
26908SOL    HW190654  12.692  13.022   2.648 -0.3523  1.1835 -1.0136
26908SOL    HW290655  12.662  12.932   2.766  1.2818 -0.7135 -1.9828
26909SOL     OW90656  10.375   5.098  10.795  0.2639 -0.0954  0.1128
26909SOL    HW190657  10.422   5.141  10.866  0.7365 -1.4276  0.6477
26909SOL    HW290658  10.441   5.079  10.729 -0.0238  0.4139 -0.3258
26910SOL     OW90659   8.283   7.749   4.963  0.2769  0.0440 -0.3216
26910SOL    HW190660   8.242   7.836   4.963  0.8816  0.5238 -4.2097
26910SOL    HW290661   8.349   7.753   5.032  0.0744  2.5720 -0.1833
26911SOL     OW90662  12.916   4.938  12.194 -0.1990  0.0842  0.1493
26911SOL    HW190663  12.912   4.867  12.129  1.6589 -0.6801  0.7808
26911SOL    HW290664  12.915   5.018  12.142  2.3765 -0.5104 -1.0063
26912SOL     OW90665  11.379   4.981  11.827  0.0685  0.3250  0.1255
26912SOL    HW190666  11.437   4.904  11.831  3.1240  2.3708 -1.0616
26912SOL    HW290667  11.349   4.984  11.736  0.1616  0.6733  0.1059
26913SOL     OW90668   3.091  11.574   7.912 -0.6804  0.4997  0.6692
26913SOL    HW190669   3.047  11.657   7.895 -0.7177  0.1864 -0.9559
26913SOL    HW290670   3.184  11.593   7.901 -0.7806 -0.0267 -1.6965
26914SOL     OW90671   8.969  10.610   8.831  0.5158  0.1652  0.2170
26914SOL    HW190672   9.037  10.570   8.885  0.9134  0.7894  0.1967
26914SOL    HW290673   8.995  10.592   8.741  1.1950  1.2249  0.1807
26915SOL     OW90674  11.566  11.493   7.955  0.1892  0.0205  0.1666
26915SOL    HW190675  11.653  11.468   7.925 -0.9403 -1.3834 -2.2950
26915SOL    HW290676  11.576  11.513   8.048  3.8668  3.8247 -0.7534
26916SOL     OW90677  11.034   1.831  10.100  0.1618  0.1773 -0.3637
26916SOL    HW190678  11.116   1.877  10.087 -0.4783  0.7906 -2.5403
26916SOL    HW290679  11.004   1.861  10.186  2.3186 -0.3106  0.6252
26917SOL     OW90680  10.252   5.219   2.401 -0.4026 -0.0424  1.7416
26917SOL    HW190681  10.184   5.164   2.440 -1.8417  0.4580  0.0698
26917SOL    HW290682  10.203   5.283   2.349  1.3712 -0.0339  0.0065
26918SOL     OW90683   5.425   6.016  12.413  0.1845 -0.0210 -0.2119
26918SOL    HW190684   5.462   6.061  12.489  1.3109 -0.1542 -0.6656
26918SOL    HW290685   5.498   5.966  12.377 -0.1679  0.5118 -1.7329
26919SOL     OW90686  12.759   4.963   6.535  0.3946  0.1554 -0.1230
26919SOL    HW190687  12.734   4.892   6.476 -0.0363 -1.1817  1.5930
26919SOL    HW290688  12.853   4.973   6.522  0.1474  0.6864 -1.8160
26920SOL     OW90689   5.237   1.507   7.840  0.1804  0.1279  0.0431
26920SOL    HW190690   5.270   1.420   7.819 -0.0691 -1.0383  3.7333
26920SOL    HW290691   5.316   1.560   7.853  0.3354  0.3898 -1.7356
26921SOL     OW90692   3.891   6.825   7.562  0.5781 -0.1587 -0.2980
26921SOL    HW190693   3.907   6.887   7.491  1.2320 -1.0015 -0.8961
26921SOL    HW290694   3.969   6.770   7.565  0.0648 -0.8804  0.3058
26922SOL     OW90695   2.990   7.692   2.016  0.3210  0.0954  0.2209
26922SOL    HW190696   3.079   7.695   2.052  0.7408  1.2539 -0.8548
26922SOL    HW290697   2.959   7.604   2.036  0.9313  0.3183  2.4432
26923SOL     OW90698  10.868  12.808   6.070  0.1842  0.4385 -0.4573
26923SOL    HW190699  10.829  12.829   5.985  0.7028  0.1941 -0.7570
26923SOL    HW290700  10.917  12.728   6.055 -0.1504  0.0987  0.2030
26924SOL     OW90701   0.757   5.757  10.829  0.1443 -0.0269  0.4694
26924SOL    HW190702   0.670   5.721  10.845  0.0500  0.2392  0.5755
26924SOL    HW290703   0.740   5.842  10.787  0.3750 -0.3852 -0.3737
26925SOL     OW90704   6.697   8.658   2.653 -0.1972  0.2793 -0.0602
26925SOL    HW190705   6.673   8.650   2.745 -0.2232  0.6175 -0.0340
26925SOL    HW290706   6.613   8.672   2.608 -0.0130  2.3049  0.1286
26926SOL     OW90707  12.417   3.996   5.738  0.2353 -0.1974  0.0741
26926SOL    HW190708  12.396   3.931   5.805  0.4042  0.9199  1.2284
26926SOL    HW290709  12.358   3.976   5.665 -0.9563 -0.5219  1.1134
26927SOL     OW90710   9.087   8.502   7.277 -0.1137  0.0912 -0.2270
26927SOL    HW190711   9.145   8.521   7.203  0.8662  0.8790  0.7179
26927SOL    HW290712   9.018   8.568   7.271  0.8170  1.1472  0.4396
26928SOL     OW90713   7.983   7.271   0.438  0.4368  0.3838 -0.2893
26928SOL    HW190714   8.061   7.280   0.383 -0.5577  2.0762 -1.4880
26928SOL    HW290715   8.018   7.265   0.527  1.9768 -0.1464 -0.8880
26929SOL     OW90716   0.452  10.832  10.498  0.2299  0.0214 -0.4599
26929SOL    HW190717   0.427  10.878  10.578 -0.6334  0.0581 -0.7470
26929SOL    HW290718   0.452  10.740  10.522  1.2784  0.0971 -0.0736
26930SOL     OW90719   4.462   6.634   8.268  0.5965 -0.0103 -0.1610
26930SOL    HW190720   4.431   6.696   8.333  1.2185 -1.4646  1.6324
26930SOL    HW290721   4.556   6.624   8.286  0.9950  0.1923 -1.8767
26931SOL     OW90722   4.741   8.708   7.037  0.1481 -0.6342 -0.2300
26931SOL    HW190723   4.726   8.620   7.003 -0.6228 -0.0852 -1.3718
26931SOL    HW290724   4.688   8.764   6.981  0.1812  0.4996  0.8414
26932SOL     OW90725  11.719   9.707   9.035 -0.2229  0.7596  0.0721
26932SOL    HW190726  11.757   9.713   9.123  0.3796  2.5282 -0.2684
26932SOL    HW290727  11.744   9.788   8.993  0.8090 -0.6971 -2.3030
26933SOL     OW90728   5.621   9.519   8.948  0.0352  0.4136  0.4715
26933SOL    HW190729   5.609   9.570   8.868  0.6940  0.2698  0.2736
26933SOL    HW290730   5.578   9.435   8.929 -0.3727  0.6097  0.5130
26934SOL     OW90731   1.308  12.675  12.013 -0.7167  0.1518  0.1842
26934SOL    HW190732   1.374  12.620  12.055 -2.5924 -1.3533  1.3208
26934SOL    HW290733   1.344  12.764  12.018 -0.2205 -0.1054  3.9095
26935SOL     OW90734  10.927  10.678   2.821  0.2262  0.3012  0.0553
26935SOL    HW190735  10.924  10.698   2.915 -2.3745 -0.7386  0.2779
26935SOL    HW290736  10.995  10.611   2.813  0.5358  0.4588  1.1691
26936SOL     OW90737  12.135  10.792   5.050 -0.1167 -0.4532 -0.3315
26936SOL    HW190738  12.185  10.738   5.111  0.2703 -0.6597 -0.8277
26936SOL    HW290739  12.176  10.776   4.965 -2.3341 -2.2676 -1.1362
26937SOL     OW90740  11.374   1.229   9.740  0.7058  0.6552 -0.1287
26937SOL    HW190741  11.291   1.193   9.708 -1.1794  3.2667  1.4352
26937SOL    HW290742  11.376   1.204   9.833  2.0042  0.1131 -0.2856
26938SOL     OW90743   3.886   7.593   0.882  0.6563  0.3571 -0.2006
26938SOL    HW190744   3.922   7.674   0.846 -3.3754  2.7123  0.5078
26938SOL    HW290745   3.800   7.585   0.842 -0.5296 -1.6062  2.4341
26939SOL     OW90746   9.546  12.158  11.990  0.2389 -0.5151 -0.5750
26939SOL    HW190747   9.466  12.123  12.029  0.7681 -0.1842  0.8712
26939SOL    HW290748   9.567  12.098  11.919 -2.7108  0.7966 -2.7755
26940SOL     OW90749   6.288   4.527   4.096  0.3129  0.3962 -0.1262
26940SOL    HW190750   6.365   4.537   4.152 -0.7924  1.1231  1.3278
26940SOL    HW290751   6.264   4.616   4.071 -0.0333  0.1706 -0.6238
26941SOL     OW90752   3.431   7.280   9.045 -0.2548 -0.1021  0.3687
26941SOL    HW190753   3.415   7.374   9.049 -0.7918 -0.1008 -1.0887
26941SOL    HW290754   3.497   7.269   8.977  1.0947 -0.6663  1.7239
26942SOL     OW90755   7.404   0.659  13.267 -0.2390  0.3178 -0.0742
26942SOL    HW190756   7.429   0.728  13.329  0.6755  0.5643 -0.6991
26942SOL    HW290757   7.405   0.702  13.181  0.4574 -0.4922 -0.4901
26943SOL     OW90758  11.507  10.820   2.027  0.2670 -0.0667  0.0903
26943SOL    HW190759  11.546  10.797   2.111 -0.2466 -1.7381 -0.0927
26943SOL    HW290760  11.432  10.876   2.050 -0.7926 -1.7346  0.8978
26944SOL     OW90761   2.319   5.263  12.839 -0.8555 -0.0518 -0.2944
26944SOL    HW190762   2.323   5.349  12.880 -0.2968 -0.9536  1.6599
26944SOL    HW290763   2.410   5.243  12.817 -1.1298  0.3528 -1.9186
26945SOL     OW90764  12.935   3.077   9.282  0.1098 -0.0565  0.8058
26945SOL    HW190765  12.856   3.124   9.256 -0.5522 -1.4870  0.1170
26945SOL    HW290766  12.916   3.045   9.371 -0.1745 -0.5480  0.5742
26946SOL     OW90767   6.240   2.604  11.155 -0.1475  0.3376  0.3980
26946SOL    HW190768   6.279   2.526  11.194  1.1625  1.6141  1.7613
26946SOL    HW290769   6.189   2.570  11.080 -1.1949 -1.9999  2.0364
26947SOL     OW90770   2.823   7.902   4.090  0.1294  0.4939 -0.4161
26947SOL    HW190771   2.767   7.879   4.165  0.7042  0.1983 -0.0735
26947SOL    HW290772   2.777   7.864   4.015 -1.5327  2.5355 -0.5212
26948SOL     OW90773   5.537   1.504   9.878 -0.0091  0.7079  0.5180
26948SOL    HW190774   5.551   1.592   9.845  1.7194  1.0394  1.9985
26948SOL    HW290775   5.517   1.516   9.971  0.1763 -0.4482  0.7212
26949SOL     OW90776   0.598  11.550  12.060  0.0100 -0.4300 -0.3846
26949SOL    HW190777   0.552  11.471  12.089 -0.0965  0.3879  1.8470
26949SOL    HW290778   0.682  11.517  12.027 -0.2348 -1.5177  0.0230
26950SOL     OW90779   5.262   9.675   0.242  0.4873  0.5738 -0.1628
26950SOL    HW190780   5.226   9.754   0.200  0.9049  1.3598  0.8974
26950SOL    HW290781   5.337   9.707   0.292 -0.2519 -0.2232  1.5365
26951SOL     OW90782  11.936   9.436   7.510  0.5235  0.0695  0.1952
26951SOL    HW190783  11.950   9.368   7.575 -2.0464 -1.2507 -0.5126
26951SOL    HW290784  11.868   9.492   7.547 -0.3200 -0.1796 -0.9133
26952SOL     OW90785   7.789   6.664  10.241  0.0007  0.4732 -0.3915
26952SOL    HW190786   7.870   6.613  10.250 -0.3521 -0.5037 -2.2959
26952SOL    HW290787   7.745   6.655  10.326  0.6878 -1.1129 -0.1713
26953SOL     OW90788  10.289   1.791   6.061  0.2348 -0.1646  0.1999
26953SOL    HW190789  10.328   1.861   6.113  1.6782 -0.1939 -0.7870
26953SOL    HW290790  10.238   1.740   6.124  2.6074 -0.7113  1.8266
26954SOL     OW90791  11.020   8.529  10.039  0.0834 -0.4292  0.3047
26954SOL    HW190792  11.018   8.618  10.006  1.3105  0.4086  2.3335
26954SOL    HW290793  11.068   8.479   9.972  1.3012  0.8848  0.1712
26955SOL     OW90794   6.048   3.143   1.830 -0.1308 -0.0134  0.0121
26955SOL    HW190795   6.070   3.184   1.913 -0.1981 -1.7133  0.9161
26955SOL    HW290796   6.063   3.050   1.844  0.1061 -0.3336 -1.9741
26956SOL     OW90797  11.423   1.439   4.364 -0.1714  0.2247  0.9065
26956SOL    HW190798  11.351   1.485   4.406 -0.3493  1.0379 -0.2409
26956SOL    HW290799  11.474   1.508   4.320 -0.6783 -0.6679 -1.2133
26957SOL     OW90800   9.261   9.174   4.798  0.7399 -0.5585  0.3089
26957SOL    HW190801   9.326   9.106   4.785 -0.5885 -1.4026 -2.6780
26957SOL    HW290802   9.177   9.128   4.794 -0.1472  0.9285  0.8203
26958SOL     OW90803   7.423   5.080   6.334 -0.0131  0.2644  0.2941
26958SOL    HW190804   7.354   5.018   6.356  0.8677 -0.8869 -0.0937
26958SOL    HW290805   7.386   5.134   6.264 -0.4977 -0.3836  0.0490
26959SOL     OW90806   6.573   7.177   7.596  0.4716 -0.2362 -0.1564
26959SOL    HW190807   6.513   7.143   7.530 -0.8740  1.1908  0.2760
26959SOL    HW290808   6.532   7.258   7.627  2.2088  0.3549  0.7663
26960SOL     OW90809  11.111  11.068   5.220 -0.3011  0.2257 -0.4120
26960SOL    HW190810  11.112  11.128   5.294  0.4660 -0.5894  0.2516
26960SOL    HW290811  11.144  10.986   5.255 -0.6897 -0.4023 -1.4727
26961SOL     OW90812   6.193   8.056   7.830 -0.6305 -0.7837  0.5751
26961SOL    HW190813   6.113   8.022   7.790  0.7014 -1.4212 -1.7538
26961SOL    HW290814   6.246   7.978   7.846  1.0253 -0.1667 -1.5171
26962SOL     OW90815  11.357   3.491   5.999  0.0117 -0.5759 -0.2252
26962SOL    HW190816  11.439   3.539   6.009 -0.9026  0.6746  2.6096
26962SOL    HW290817  11.296   3.555   5.963 -0.1419 -0.9930 -0.7211
26963SOL     OW90818   0.185   8.737   1.122  0.2638 -0.0753  0.6898
26963SOL    HW190819   0.260   8.685   1.149 -0.3027 -0.7658  0.9592
26963SOL    HW290820   0.193   8.744   1.027  0.2112 -0.8726  0.6229
26964SOL     OW90821   1.641  10.294   4.707  0.2717  0.5511  0.4125
26964SOL    HW190822   1.564  10.350   4.709 -0.6226 -0.6501  0.3021
26964SOL    HW290823   1.687  10.316   4.789 -0.9297  0.2600  1.1945
26965SOL     OW90824  12.376   8.654   9.422 -0.3097  0.0908 -0.4072
26965SOL    HW190825  12.450   8.596   9.403 -1.1059 -0.3762 -2.4195
26965SOL    HW290826  12.348   8.629   9.510  2.2858  0.7582  0.7131
26966SOL     OW90827   0.141  10.452   1.708  0.2530 -0.0643  0.3172
26966SOL    HW190828   0.203  10.525   1.699 -0.2534  0.3261 -0.1029
26966SOL    HW290829   0.064  10.492   1.748 -0.4767 -0.0993 -1.0000
26967SOL     OW90830   8.175   8.088   8.967 -0.3625 -0.0941  0.4521
26967SOL    HW190831   8.194   8.008   8.918  2.0825 -0.1677  1.3599
26967SOL    HW290832   8.168   8.156   8.900 -2.4461 -1.0044 -0.3324
26968SOL     OW90833   1.355   8.048   9.973 -0.4349 -0.3190 -0.2941
26968SOL    HW190834   1.407   8.108   9.918  2.1724 -0.9309  1.3620
26968SOL    HW290835   1.340   7.972   9.917  0.7008 -0.2436 -0.7276
26969SOL     OW90836   3.299   0.827   5.624  0.1013  0.3606  0.5312
26969SOL    HW190837   3.337   0.888   5.687 -0.6260 -1.8438  3.3204
26969SOL    HW290838   3.301   0.742   5.669 -1.2139 -1.2285 -2.1513
26970SOL     OW90839   9.089  12.048  10.222  0.0894 -0.0802  0.6094
26970SOL    HW190840   9.135  12.131  10.215  0.8292 -0.4362  1.0478
26970SOL    HW290841   9.086  12.014  10.133  1.5298 -0.4853  0.6973
26971SOL     OW90842   4.933   8.078   6.041 -0.2250 -0.1456 -0.3101
26971SOL    HW190843   4.863   8.067   5.976 -0.7995  2.6814 -0.3297
26971SOL    HW290844   5.006   8.026   6.007 -1.0326  0.0118 -2.4500
26972SOL     OW90845  11.981   4.378  11.638 -0.0838  0.0606  0.3043
26972SOL    HW190846  12.009   4.306  11.581  0.2312  0.5429 -0.1445
26972SOL    HW290847  11.969   4.336  11.724  3.0236 -0.0007  0.8133
26973SOL     OW90848   5.383  13.194   9.302 -0.9525 -0.4146  0.1438
26973SOL    HW190849   5.325  13.140   9.249 -0.5238 -0.4493 -0.3008
26973SOL    HW290850   5.340  13.200   9.387 -1.4805 -0.6420 -0.1054
26974SOL     OW90851   7.883  10.958   1.158  0.5009 -0.2338 -0.2445
26974SOL    HW190852   7.908  10.879   1.110  1.4322  0.5906 -1.1779
26974SOL    HW290853   7.828  11.007   1.097 -0.1566 -0.2060  0.3647
26975SOL     OW90854   1.210   4.700   6.633 -0.2353 -0.2042  0.2550
26975SOL    HW190855   1.124   4.718   6.671 -0.5672 -0.8387 -0.1825
26975SOL    HW290856   1.235   4.615   6.669  1.3645  1.0456  2.3715
26976SOL     OW90857   3.394   7.989   6.374  0.6618  0.0997  0.2347
26976SOL    HW190858   3.306   7.958   6.353  0.5852  0.0129  0.6902
26976SOL    HW290859   3.450   7.945   6.309  0.7390 -2.1232  1.7049
26977SOL     OW90860   4.645   1.511   9.258  0.2929 -0.1090  0.5638
26977SOL    HW190861   4.573   1.537   9.315 -0.4840  0.2358 -0.5629
26977SOL    HW290862   4.616   1.429   9.218 -0.6726  1.3114 -1.8934
26978SOL     OW90863   6.443   9.361   5.780 -0.2364 -0.0207 -0.3360
26978SOL    HW190864   6.424   9.405   5.697 -0.8578  0.2487 -0.0573
26978SOL    HW290865   6.470   9.431   5.839 -1.9359  0.1279  0.3200
26979SOL     OW90866   1.379   5.535   1.509 -0.3130  0.6970  0.2068
26979SOL    HW190867   1.466   5.526   1.548  0.1289  0.2424 -0.8254
26979SOL    HW290868   1.324   5.472   1.556  0.1450  0.3272  0.2560
26980SOL     OW90869   7.943   1.303  11.841  0.0906 -0.0551  0.0349
26980SOL    HW190870   7.921   1.291  11.934 -0.8350 -1.1967 -0.2941
26980SOL    HW290871   7.936   1.397  11.826 -0.1935  0.0921  1.0276
26981SOL     OW90872  12.418   1.971   1.735 -0.6789  0.0382 -0.5300
26981SOL    HW190873  12.430   2.061   1.706 -1.5886  0.5926  0.6994
26981SOL    HW290874  12.403   1.921   1.655  2.5995  0.4276 -1.5355
26982SOL     OW90875  11.101  12.882  12.380  0.0605  0.3374 -0.3581
26982SOL    HW190876  11.112  12.885  12.475  1.1878  0.3788 -0.4776
26982SOL    HW290877  11.030  12.819  12.366  0.4462 -0.2938  0.4706
26983SOL     OW90878  12.779   0.366   1.655  0.5466 -0.1570  0.4527
26983SOL    HW190879  12.786   0.452   1.696 -0.0164 -0.8991  2.2088
26983SOL    HW290880  12.863   0.324   1.674  0.7171 -0.1084 -0.1695
26984SOL     OW90881  10.025   0.845   1.573 -0.5035 -0.1304  0.3547
26984SOL    HW190882   9.984   0.931   1.569 -1.7926 -0.7244  0.4667
26984SOL    HW290883   9.970   0.795   1.633  0.4593 -0.9205  0.6057
26985SOL     OW90884  12.488   7.114   1.477  0.9592 -0.1221  0.1982
26985SOL    HW190885  12.460   7.194   1.522 -0.0201 -0.2760 -0.1197
26985SOL    HW290886  12.532   7.146   1.398  0.1267  0.1150 -0.1858
26986SOL     OW90887   2.592  13.064   7.703 -0.1924 -0.0935 -0.3013
26986SOL    HW190888   2.560  12.981   7.666  1.0762 -0.3117 -0.9768
26986SOL    HW290889   2.685  13.049   7.716 -0.3202  0.5429  1.5435
26987SOL     OW90890   9.204   8.756   9.216  0.2193 -0.2247  0.3592
26987SOL    HW190891   9.144   8.819   9.175 -0.0237 -1.0755 -0.6220
26987SOL    HW290892   9.205   8.781   9.309 -1.3336  0.0575  0.3256
26988SOL     OW90893   0.526   1.953   1.115  0.0511 -0.0101 -0.0616
26988SOL    HW190894   0.613   1.919   1.094  0.2204  0.1654  0.3270
26988SOL    HW290895   0.465   1.898   1.067  0.3635 -0.3574 -0.0605
26989SOL     OW90896   2.430   4.478   7.659  0.2985 -0.3484  0.2226
26989SOL    HW190897   2.359   4.489   7.722 -0.6795  1.1785 -1.0811
26989SOL    HW290898   2.410   4.395   7.615  0.3546 -0.8385  1.0991
26990SOL     OW90899   3.644  10.093   7.689 -0.3397 -0.4395  0.4890
26990SOL    HW190900   3.582  10.131   7.626  0.2995 -1.3930 -0.7671
26990SOL    HW290901   3.651  10.159   7.757 -1.3373  0.4896 -0.2588
26991SOL     OW90902   3.941  11.706  10.656  0.2696  0.0518  0.1091
26991SOL    HW190903   3.946  11.644  10.584 -0.0157  0.7336 -0.5156
26991SOL    HW290904   4.004  11.775  10.633 -0.8814  1.0203 -0.2467
26992SOL     OW90905   5.340   1.193   0.706 -0.4558 -0.0856  0.1186
26992SOL    HW190906   5.274   1.199   0.636 -0.3903 -0.0286  0.0618
26992SOL    HW290907   5.417   1.157   0.662 -1.2062 -2.5654  0.6872
26993SOL     OW90908   8.510   0.415   0.772 -0.1018  0.2700 -0.3722
26993SOL    HW190909   8.573   0.460   0.716 -0.5467  0.1048 -1.0072
26993SOL    HW290910   8.444   0.482   0.793 -0.2974  0.1476 -0.5994
26994SOL     OW90911  12.555   3.969   3.351  0.7141 -1.5426 -0.1877
26994SOL    HW190912  12.468   3.932   3.364  0.3085 -0.3252  0.8312
26994SOL    HW290913  12.612   3.893   3.338 -0.1565 -2.5128  1.2771
26995SOL     OW90914   4.477   5.003  11.606  0.1750 -0.2502 -0.0572
26995SOL    HW190915   4.557   5.009  11.659  0.5619 -0.6650 -0.5805
26995SOL    HW290916   4.435   5.088  11.616  1.2310  0.3642 -0.6228
26996SOL     OW90917  11.523  11.254   1.153  0.0474 -0.8042 -0.0911
26996SOL    HW190918  11.582  11.248   1.229  0.3633 -1.1133 -0.3590
26996SOL    HW290919  11.517  11.348   1.135 -0.7752 -0.6410  0.8921
26997SOL     OW90920  10.279   6.084   3.457 -0.1957  0.0554  0.4418
26997SOL    HW190921  10.243   6.144   3.522 -2.7335 -1.4654  0.5536
26997SOL    HW290922  10.293   6.139   3.380  2.6750  1.8460  2.0669
26998SOL     OW90923   4.367   2.920  12.662 -0.6156  0.5317  0.2369
26998SOL    HW190924   4.355   3.000  12.613 -0.2661  0.0768 -0.6140
26998SOL    HW290925   4.291   2.865  12.639 -0.3121  0.2126 -0.0201
26999SOL     OW90926   3.397   1.403  12.814 -0.1754  0.2098 -0.3929
26999SOL    HW190927   3.344   1.424  12.891 -0.7201 -0.6159 -0.5278
26999SOL    HW290928   3.445   1.324  12.839  1.3006  1.1476 -0.1411
27000SOL     OW90929  12.943   8.820  11.065  0.2701  0.4174 -0.2441
27000SOL    HW190930  12.966   8.910  11.089 -1.5324  0.3166  2.3045
27000SOL    HW290931  13.013   8.767  11.103  1.4788  0.6810 -1.9751
27001SOL     OW90932   9.369   6.576  11.747 -0.0416  0.6349 -0.4103
27001SOL    HW190933   9.279   6.577  11.714 -0.2840  0.7479  0.2318
27001SOL    HW290934   9.423   6.588  11.669 -0.4787 -1.3968 -1.0875
27002SOL     OW90935   2.233  12.255   5.287 -0.0599 -0.0954 -0.0649
27002SOL    HW190936   2.278  12.171   5.298 -1.0313 -0.5268  0.8991
27002SOL    HW290937   2.174  12.240   5.213  1.1742  0.3987 -1.1832
27003SOL     OW90938  11.495   0.557   8.582 -0.1327  0.0413 -0.0182
27003SOL    HW190939  11.497   0.575   8.488  1.5138  1.5309  0.2602
27003SOL    HW290940  11.551   0.481   8.593  1.2354  1.0108 -0.0603
27004SOL     OW90941   9.738   1.064   5.341 -0.3968 -0.2845  0.3791
27004SOL    HW190942   9.829   1.077   5.365 -0.3539  0.9718 -0.3963
27004SOL    HW290943   9.732   0.971   5.318  1.6595  0.2962 -3.3571
27005SOL     OW90944   6.215  12.070   8.664  0.0318 -0.3113 -0.0578
27005SOL    HW190945   6.161  12.143   8.695  2.0515  0.0249  3.1921
27005SOL    HW290946   6.256  12.036   8.743  0.4495 -4.0084 -1.6531
27006SOL     OW90947   2.689   4.568   5.885  0.3291 -0.3074  0.3084
27006SOL    HW190948   2.630   4.618   5.940  1.0432  0.6749  0.2079
27006SOL    HW290949   2.697   4.483   5.929 -0.4442 -0.1392  0.7876
27007SOL     OW90950   6.232  11.686   8.891  0.6724  0.3086  0.3843
27007SOL    HW190951   6.178  11.762   8.910  0.2142  0.6162 -1.8534
27007SOL    HW290952   6.178  11.611   8.918  1.1592  0.7071  2.6690
27008SOL     OW90953   3.214  10.993   0.302 -0.1951  0.0174  0.3596
27008SOL    HW190954   3.262  10.912   0.322 -0.9880 -0.7646 -0.7755
27008SOL    HW290955   3.122  10.969   0.314 -0.6628 -0.1685 -2.7671
27009SOL     OW90956  12.701   6.251   0.889 -0.0948 -0.3826  0.1510
27009SOL    HW190957  12.620   6.285   0.924  0.1146 -1.1670  1.4509
27009SOL    HW290958  12.764   6.257   0.961  1.1007  0.4733 -0.9063
27010SOL     OW90959  12.230   6.351  12.362  0.2624  0.3724 -0.2867
27010SOL    HW190960  12.184   6.307  12.433  1.4349  1.7224  1.3749
27010SOL    HW290961  12.305   6.294  12.343  0.2527  0.2913 -0.0745
27011SOL     OW90962   0.970   4.440  10.751 -0.5162 -0.4825  0.0265
27011SOL    HW190963   1.021   4.406  10.677 -2.3401 -1.0579 -1.0567
27011SOL    HW290964   1.032   4.448  10.822  0.7100 -2.9665 -0.6577
27012SOL     OW90965   9.723   0.793   5.320  0.3048 -0.3668  0.6383
27012SOL    HW190966   9.655   0.796   5.387 -0.2132 -0.3777  0.1124
27012SOL    HW290967   9.746   0.700   5.314 -1.0574 -0.6539 -0.6006
27013SOL     OW90968   4.323   3.787  11.030  0.4682  0.1758 -0.1122
27013SOL    HW190969   4.354   3.815  11.117  2.3046  0.4407 -0.8171
27013SOL    HW290970   4.313   3.868  10.981  0.8886 -0.0658 -0.6045
27014SOL     OW90971   4.770   6.172   9.854  0.3680 -0.0769  0.2273
27014SOL    HW190972   4.820   6.090   9.859  0.1239 -0.1983  0.8398
27014SOL    HW290973   4.789   6.216   9.937 -0.9825 -0.3939  0.7314
27015SOL     OW90974   9.062   3.847   1.266  0.2583 -0.4790  0.2212
27015SOL    HW190975   9.156   3.864   1.262 -0.0329  1.1028 -0.5178
27015SOL    HW290976   9.044   3.794   1.188  0.2150  1.0004 -0.8001
27016SOL     OW90977   3.813   3.002  10.387  0.3580  0.3991 -0.8696
27016SOL    HW190978   3.807   3.097  10.379  1.6236  0.5311 -0.5812
27016SOL    HW290979   3.846   2.988  10.476  1.9526 -0.1919 -1.5118
27017SOL     OW90980   2.346   3.218   2.392 -0.0600  0.4448  0.6959
27017SOL    HW190981   2.287   3.143   2.391  0.1283  0.2737  1.5186
27017SOL    HW290982   2.290   3.292   2.415 -0.6498  0.9647 -2.0060
27018SOL     OW90983   6.152   9.236   5.830  0.3031 -0.0583  0.1069
27018SOL    HW190984   6.096   9.312   5.849  0.0292  0.3574 -2.1228
27018SOL    HW290985   6.241   9.268   5.842  0.1707  0.4664 -0.2903
27019SOL     OW90986   8.511  11.519   8.731  0.1812  0.1001  0.4384
27019SOL    HW190987   8.458  11.467   8.672  1.5917  0.8243 -1.6019
27019SOL    HW290988   8.575  11.457   8.767  0.6851  0.0445 -0.5249
27020SOL     OW90989  11.742  12.595   4.572  0.1346 -0.0017  0.0175
27020SOL    HW190990  11.693  12.513   4.568  1.3911 -1.0299  2.9656
27020SOL    HW290991  11.703  12.650   4.503  0.7251 -3.7517 -3.6871
27021SOL     OW90992  11.174   1.296   2.480  0.0105 -0.2937 -0.3487
27021SOL    HW190993  11.113   1.362   2.447  0.0507 -0.5805 -1.0087
27021SOL    HW290994  11.259   1.341   2.482  0.0123 -0.2808 -0.6648
27022SOL     OW90995   1.375   2.509   6.237  0.0177 -0.2143  0.1452
27022SOL    HW190996   1.355   2.472   6.323 -0.8952  0.6271  0.3125
27022SOL    HW290997   1.402   2.434   6.184 -0.7348 -0.9479  0.7835
27023SOL     OW90998   5.014   2.537   8.031 -0.3906 -0.0511  0.5178
27023SOL    HW190999   4.941   2.543   7.969  0.6483  0.4347 -0.7093
27023SOL    HW291000   5.023   2.626   8.066 -0.9063 -0.3005  1.3114
27024SOL     OW91001  10.833   2.131   2.591  0.6562  0.2802 -0.4995
27024SOL    HW191002  10.760   2.089   2.545 -0.2042  1.5077 -0.3193
27024SOL    HW291003  10.906   2.070   2.581  0.3160  0.1555 -2.8436
27025SOL     OW91004   2.438   9.752   8.105 -0.3154 -0.1740  0.4702
27025SOL    HW191005   2.460   9.686   8.171 -0.1649 -0.3108  0.2845
27025SOL    HW291006   2.400   9.824   8.155 -0.7089 -0.5024  0.6436
27026SOL     OW91007   8.948   7.216   8.636  0.4195  0.3775 -0.1505
27026SOL    HW191008   8.938   7.205   8.541 -0.6258  1.0566 -0.1336
27026SOL    HW291009   8.875   7.272   8.661  0.8728  0.4650  1.0158
27027SOL     OW91010   7.988   8.865   5.324 -0.0171 -0.2924  0.8300
27027SOL    HW191011   7.931   8.796   5.289  0.6255  0.4555 -1.8975
27027SOL    HW291012   7.930   8.940   5.337  0.0276 -0.0321 -0.3898
27028SOL     OW91013   2.061  10.803   5.591  0.0911 -0.6558 -0.1163
27028SOL    HW191014   2.082  10.724   5.641  1.7951  0.7560  1.5608
27028SOL    HW291015   2.129  10.807   5.523  1.1028  0.2053  0.8916
27029SOL     OW91016   5.780   2.906   2.069  0.0198 -0.2021  0.1240
27029SOL    HW191017   5.736   2.960   2.004  1.9598 -0.6269 -1.6344
27029SOL    HW291018   5.856   2.957   2.095 -0.0799 -0.5700  1.1688
27030SOL     OW91019   5.493   5.332   3.773 -0.1969  0.2815  0.0581
27030SOL    HW191020   5.520   5.272   3.842 -0.0413 -1.6513 -1.5979
27030SOL    HW291021   5.548   5.309   3.698 -1.0563  1.6088 -1.0385
27031SOL     OW91022   3.646   8.908   7.720 -0.0600  0.0764  0.4674
27031SOL    HW191023   3.565   8.857   7.725  0.1409 -0.3531 -0.5259
27031SOL    HW291024   3.627   8.977   7.657 -0.8371  2.2409  2.8930
27032SOL     OW91025   7.825  13.204   5.010  0.1390 -0.0290 -0.1386
27032SOL    HW191026   7.779  13.136   4.961 -1.6763  0.8842  0.2466
27032SOL    HW291027   7.882  13.155   5.070 -0.9963 -1.2149  0.0256
27033SOL     OW91028   7.705   5.057  10.369 -0.0429  0.1838 -0.0951
27033SOL    HW191029   7.745   5.028  10.286 -1.5955 -0.4750 -0.6477
27033SOL    HW291030   7.627   5.105  10.342 -0.0301  0.8285  0.9829
27034SOL     OW91031  10.654   3.320   5.819 -1.0979  0.5878 -0.0426
27034SOL    HW191032  10.678   3.228   5.806  0.2168  0.7685  0.8389
27034SOL    HW291033  10.730   3.358   5.864 -1.5176  2.1659 -0.6029
27035SOL     OW91034   8.260  10.127   2.502  0.0711  0.1560  0.7513
27035SOL    HW191035   8.199  10.066   2.461  1.0741 -1.2364  1.2394
27035SOL    HW291036   8.345  10.106   2.464  0.2774  2.0911  0.0435
27036SOL     OW91037   8.437  11.771   1.821  0.3637  0.1941 -0.4888
27036SOL    HW191038   8.450  11.865   1.810 -0.9154  0.2044 -2.6456
27036SOL    HW291039   8.508  11.730   1.771  1.1457 -0.0298  0.7631
27037SOL     OW91040  10.481  10.736   4.833  0.7335 -0.3704  0.5541
27037SOL    HW191041  10.459  10.769   4.920  0.7934 -1.6242  1.0661
27037SOL    HW291042  10.484  10.640   4.843  1.5984 -0.4965 -0.6230
27038SOL     OW91043  12.007   7.492   9.734 -0.4591  0.3403  0.4713
27038SOL    HW191044  11.999   7.440   9.814  0.7783 -1.8330 -0.7210
27038SOL    HW291045  12.001   7.583   9.764  1.4723 -0.3218  3.2633
27039SOL     OW91046   8.455   7.017   4.419 -0.0491 -0.4571  0.1124
27039SOL    HW191047   8.373   7.005   4.466 -1.2603 -0.8936 -1.9556
27039SOL    HW291048   8.483   6.929   4.396  0.4975 -0.2535 -0.0232
27040SOL     OW91049  12.739   2.153   3.881  0.4142  0.2547  0.6155
27040SOL    HW191050  12.706   2.075   3.836 -1.3032  1.0029  0.5059
27040SOL    HW291051  12.815   2.180   3.829 -0.4392  0.0439 -0.7833
27041SOL     OW91052  12.343   6.216   3.032 -0.0983 -0.1178 -0.1927
27041SOL    HW191053  12.434   6.223   3.004 -0.5335 -0.5790 -1.7826
27041SOL    HW291054  12.322   6.123   3.025 -0.4752 -0.1419  0.9585
27042SOL     OW91055  11.806   1.120   8.932 -0.0676  0.5919  0.0389
27042SOL    HW191056  11.814   1.131   9.027 -1.1631  0.3205  0.1696
27042SOL    HW291057  11.854   1.194   8.896  0.2485  0.7722  0.8093
27043SOL     OW91058   8.544   7.021   1.232  0.2818  0.5638  0.1669
27043SOL    HW191059   8.523   7.000   1.323  0.5011 -0.7812 -0.0637
27043SOL    HW291060   8.561   7.115   1.232 -0.6099  0.7549  1.3386
27044SOL     OW91061  11.493   6.025   2.809 -0.8522  0.2837  0.1452
27044SOL    HW191062  11.579   6.021   2.849 -0.7392 -0.9038 -0.1656
27044SOL    HW291063  11.436   6.061   2.877 -0.2109  0.5873  0.5249
27045SOL     OW91064   6.424   7.143  12.322  0.0262 -0.4344 -0.3388
27045SOL    HW191065   6.362   7.075  12.351 -3.3768  1.8547 -1.5696
27045SOL    HW291066   6.435   7.126  12.228  0.2506 -0.0754 -0.3774
27046SOL     OW91067   0.609   5.060   0.208 -0.0786 -0.3142 -0.1137
27046SOL    HW191068   0.589   4.995   0.141  1.6000 -1.8770  0.8139
27046SOL    HW291069   0.552   5.036   0.282 -0.4288  0.1353 -0.2283
27047SOL     OW91070   9.181   1.724  11.352  0.0240 -0.0255 -0.0483
27047SOL    HW191071   9.165   1.815  11.327  0.2973 -0.3736 -1.5905
27047SOL    HW291072   9.276   1.719  11.367  0.3579 -0.4918 -2.0350
27048SOL     OW91073   6.744   3.582  10.869  0.3831  0.4358 -0.2330
27048SOL    HW191074   6.679   3.620  10.811 -0.1767 -2.3884 -1.6287
27048SOL    HW291075   6.825   3.581  10.818  1.2488  2.5024  0.9439
27049SOL     OW91076  11.517   4.298  10.685 -0.3017 -0.0104 -0.4212
27049SOL    HW191077  11.450   4.301  10.617 -0.4463 -0.2306 -0.2900
27049SOL    HW291078  11.472   4.328  10.764 -0.4284 -0.7935 -0.1861
27050SOL     OW91079   4.986   0.255   7.810 -0.2986  0.1168  0.3352
27050SOL    HW191080   5.053   0.287   7.750  0.7026  0.9817  1.8223
27050SOL    HW291081   4.982   0.322   7.878 -2.7842  0.1200  0.2451
27051SOL     OW91082   7.359  12.012   1.826 -0.1975  0.6126  0.4934
27051SOL    HW191083   7.436  11.963   1.798 -0.9456 -0.3874  0.1597
27051SOL    HW291084   7.285  11.958   1.800 -1.0426  1.8498  0.2557
27052SOL     OW91085   8.075   8.365  11.811 -0.2948  0.3109 -0.0621
27052SOL    HW191086   8.071   8.270  11.802 -0.6683 -0.0834  2.9652
27052SOL    HW291087   8.013   8.385  11.882 -1.9728  3.1349 -2.1323
27053SOL     OW91088   6.266   1.157  10.011 -0.0575 -0.4159  0.0062
27053SOL    HW191089   6.254   1.184   9.920  0.3314 -0.2418  0.0018
27053SOL    HW291090   6.323   1.080  10.006 -2.4217 -2.2772 -0.0953
27054SOL     OW91091   3.822   9.371  11.111 -0.2270  0.6079  0.0003
27054SOL    HW191092   3.857   9.427  11.041 -3.4254  4.2323  0.9816
27054SOL    HW291093   3.734   9.350  11.082 -0.0902 -1.7214  1.0286
27055SOL     OW91094  11.048  12.250   9.963  0.5659  0.6106  0.2410
27055SOL    HW191095  11.131  12.218   9.928  0.2250  0.8482 -0.8135
27055SOL    HW291096  10.989  12.252   9.888 -0.5872 -0.1381  1.0885
27056SOL     OW91097   4.868   5.655   9.520  0.0292  0.2882  0.1967
27056SOL    HW191098   4.936   5.712   9.556  0.2473 -0.7724  1.5108
27056SOL    HW291099   4.915   5.601   9.456  0.5338 -0.6938  1.3623
27057SOL     OW91100   7.411  11.043   8.630  0.0092  0.1926  0.0628
27057SOL    HW191101   7.456  10.970   8.588 -1.9060 -1.4943  0.7683
27057SOL    HW291102   7.448  11.048   8.718  0.9876  0.8887 -0.3774
27058SOL     OW91103   3.726  10.916  12.615 -0.4302 -0.4901 -0.0821
27058SOL    HW191104   3.673  10.970  12.556 -1.4613 -1.8058 -0.4169
27058SOL    HW291105   3.698  10.941  12.703 -1.2985 -0.8432 -0.2480
27059SOL     OW91106   3.744  12.238   8.802  0.1098 -0.1231  0.1768
27059SOL    HW191107   3.663  12.226   8.751  0.3413  1.3319 -0.5931
27059SOL    HW291108   3.715  12.275   8.885 -0.1189 -0.7846  0.3941
27060SOL     OW91109  10.015  10.274   4.502  0.0230 -0.0972  0.1555
27060SOL    HW191110  10.110  10.261   4.502 -0.0621 -1.3636 -2.3429
27060SOL    HW291111   9.979  10.189   4.523 -0.5212 -0.2320 -1.1858
27061SOL     OW91112   5.538  11.210   3.174  0.5773  0.1621 -0.1795
27061SOL    HW191113   5.465  11.260   3.212  0.3177 -0.2199 -0.1702
27061SOL    HW291114   5.543  11.131   3.227  0.9011  0.1152 -0.2799
27062SOL     OW91115  12.941  10.815   6.425 -0.2049 -0.3038 -0.2050
27062SOL    HW191116  12.986  10.896   6.402 -0.2662 -0.3953 -0.6632
27062SOL    HW291117  12.913  10.828   6.516  0.6878 -0.2270  0.0639
27063SOL     OW91118   9.830   9.151   5.183  0.1803 -0.5303 -0.8403
27063SOL    HW191119   9.877   9.131   5.264  0.6346  1.9133 -0.4350
27063SOL    HW291120   9.867   9.091   5.118 -1.1380 -3.5193  0.9433
27064SOL     OW91121   4.293   0.783  11.737 -0.3798 -0.1265 -0.1522
27064SOL    HW191122   4.290   0.731  11.657 -2.0932  0.9150 -0.8160
27064SOL    HW291123   4.333   0.724  11.802 -1.6913 -2.0798 -1.0047
27065SOL     OW91124   9.359  10.521  10.953 -0.0441 -0.0463 -0.0014
27065SOL    HW191125   9.333  10.613  10.944  0.3408  0.3070  2.0075
27065SOL    HW291126   9.454  10.525  10.962  0.0772 -0.7489 -0.8747
27066SOL     OW91127   6.959   4.753   4.050  1.3948  0.7196 -0.5690
27066SOL    HW191128   7.024   4.712   3.992  0.5337  0.9827 -1.7661
27066SOL    HW291129   6.901   4.800   3.990  0.7337  1.3851  0.5669
27067SOL     OW91130   1.357   6.159   3.097  0.0425 -0.0104 -0.7722
27067SOL    HW191131   1.440   6.195   3.129  0.7235 -1.3582 -0.9079
27067SOL    HW291132   1.294   6.229   3.109  0.5597  0.0966  2.1640
27068SOL     OW91133   6.263   0.766  13.097  0.5251 -0.6615  0.2794
27068SOL    HW191134   6.293   0.830  13.032 -1.3218 -0.1037 -0.1075
27068SOL    HW291135   6.181   0.732  13.060  1.0423 -2.6817  0.8697
27069SOL     OW91136   4.830   9.688   8.456 -0.4119  0.3397  0.4402
27069SOL    HW191137   4.820   9.653   8.367  0.1926 -0.3672  0.6384
27069SOL    HW291138   4.866   9.776   8.442 -0.2757  0.2186 -0.0178
27070SOL     OW91139  12.992  12.647   6.745 -0.0716  0.2501  0.3075
27070SOL    HW191140  12.961  12.736   6.727 -2.9060 -0.7635 -0.2883
27070SOL    HW291141  13.075  12.641   6.698 -1.2196  1.6885 -2.0792
27071SOL     OW91142   8.670   8.508   3.369 -0.1677 -0.3084 -0.4099
27071SOL    HW191143   8.733   8.471   3.431 -0.6228  0.4361  0.5272
27071SOL    HW291144   8.621   8.433   3.336 -0.0489 -0.7020  0.2928
27072SOL     OW91145  10.895  11.784   4.846  0.5188  1.1864  0.0001
27072SOL    HW191146  10.969  11.723   4.853  1.0756  1.7078 -1.0911
27072SOL    HW291147  10.824  11.740   4.892  1.8281  1.2120  2.2258
27073SOL     OW91148   0.955  10.267  10.901 -0.0348 -0.1868  0.9295
27073SOL    HW191149   0.977  10.216  10.980  1.9292 -1.7076 -0.4838
27073SOL    HW291150   1.038  10.271  10.852 -1.5968 -1.0317 -1.9877
27074SOL     OW91151   2.015   0.424   4.488 -0.2666 -0.2033 -0.4852
27074SOL    HW191152   2.092   0.449   4.539  0.2544 -0.8502 -0.9350
27074SOL    HW291153   2.041   0.439   4.397  0.0197 -2.1321 -0.7774
27075SOL     OW91154   1.641   0.191   3.412 -0.2981  0.0954  0.2850
27075SOL    HW191155   1.639   0.259   3.344 -1.4773  0.0153  0.2282
27075SOL    HW291156   1.638   0.239   3.494 -1.2662  0.1156  0.2431
27076SOL     OW91157   4.030  12.433   2.512  0.2309  0.1912 -0.3022
27076SOL    HW191158   3.997  12.381   2.586  2.0488 -0.9118 -0.2003
27076SOL    HW291159   3.960  12.496   2.494 -1.9853 -2.0759 -0.2310
27077SOL     OW91160   2.343  10.588   8.710 -0.0049 -0.0736  0.4558
27077SOL    HW191161   2.271  10.577   8.772  0.3398 -1.5986  0.6244
27077SOL    HW291162   2.303  10.574   8.624  0.2520 -2.0479  0.6130
27078SOL     OW91163   2.695   6.042  11.240  0.1104 -0.0300  0.4274
27078SOL    HW191164   2.749   6.013  11.314 -0.6323  0.8485  1.3476
27078SOL    HW291165   2.614   6.074  11.281 -0.7963 -0.6018 -0.8623
27079SOL     OW91166   4.916  11.762   3.472  0.4044  0.1910 -0.1893
27079SOL    HW191167   4.980  11.691   3.469 -0.7916 -0.8909 -2.3053
27079SOL    HW291168   4.958  11.835   3.425 -0.2078 -0.8512 -2.4829
27080SOL     OW91169   2.440   4.217   4.834 -1.0493 -0.1865 -0.5257
27080SOL    HW191170   2.397   4.131   4.826 -0.1390 -0.7184  0.1027
27080SOL    HW291171   2.387   4.263   4.899 -0.6244 -0.8807  0.3337
27081SOL     OW91172  11.340   5.500   2.562  0.0029  0.6269 -0.0134
27081SOL    HW191173  11.314   5.450   2.639 -1.5722  0.2443 -0.7546
27081SOL    HW291174  11.364   5.586   2.597 -0.6206  0.4408  0.9096
27082SOL     OW91175   3.983   7.035  11.010  0.0370 -0.3756 -0.3599
27082SOL    HW191176   4.038   7.013  10.935 -0.8401 -1.8501 -0.5992
27082SOL    HW291177   4.003   7.127  11.027 -0.2106  0.2134 -2.8133
27083SOL     OW91178  11.383  13.234  10.599 -0.6472 -0.9732  0.0351
27083SOL    HW191179  11.317  13.303  10.606  0.1411 -0.3574  2.1567
27083SOL    HW291180  11.342  13.158  10.642 -0.5396 -1.0370  0.0251
27084SOL     OW91181   5.795   5.490   5.994  0.6785 -0.4567 -0.5864
27084SOL    HW191182   5.732   5.432   5.952  0.1928  1.6385 -3.0058
27084SOL    HW291183   5.749   5.573   6.006  2.0913  0.2460  0.3839
27085SOL     OW91184  12.130   8.671   3.566 -0.0050 -0.1398  0.1804
27085SOL    HW191185  12.070   8.666   3.641  3.0988 -0.2981  2.9258
27085SOL    HW291186  12.097   8.606   3.505 -2.4388 -0.3877  1.5883
27086SOL     OW91187   2.843   1.540   9.763  0.1139  0.5880  0.2496
27086SOL    HW191188   2.855   1.513   9.672  1.5133  0.1285  0.5412
27086SOL    HW291189   2.749   1.549   9.773 -0.2296 -1.4072 -0.6884
27087SOL     OW91190  12.309  12.668   9.018  0.1599 -0.0672 -0.1317
27087SOL    HW191191  12.334  12.619   8.940 -2.2217 -0.0034 -1.0093
27087SOL    HW291192  12.217  12.645   9.033  0.3436  0.4572  2.2747
27088SOL     OW91193   5.860   2.081   1.864 -0.2676  0.5729  0.1148
27088SOL    HW191194   5.785   2.096   1.921 -1.6467 -2.1060 -0.8077
27088SOL    HW291195   5.936   2.099   1.918 -1.5472  1.2875  1.7522
27089SOL     OW91196   8.563  12.012   4.721 -0.0743  0.3145  0.0539
27089SOL    HW191197   8.566  11.920   4.747 -1.6513  0.5873  1.3175
27089SOL    HW291198   8.645  12.026   4.673 -0.1365 -1.9197 -0.8221
27090SOL     OW91199   3.991   7.163   7.544 -0.1228  0.5726 -0.5599
27090SOL    HW191200   3.977   7.089   7.486  0.8238 -1.3657  1.5376
27090SOL    HW291201   4.062   7.213   7.502  1.7190 -1.6843 -0.3703
27091SOL     OW91202  10.850   2.361   8.776  0.3129 -0.1716  0.2591
27091SOL    HW191203  10.936   2.377   8.737  0.4393  0.0685  0.6273
27091SOL    HW291204  10.855   2.273   8.813  0.1348 -0.4663 -0.4134
27092SOL     OW91205   1.369   8.909  11.447  0.5073  0.3873  0.3592
27092SOL    HW191206   1.375   8.862  11.364 -1.0840  1.0801 -0.1856
27092SOL    HW291207   1.455   8.898  11.487  0.7624 -1.4006 -0.5861
27093SOL     OW91208  13.147   4.891   4.876 -0.0956 -0.0133  0.1241
27093SOL    HW191209  13.078   4.872   4.940 -1.0371 -0.1692 -0.9001
27093SOL    HW291210  13.151   4.813   4.821 -0.2766  0.6456 -0.8531
27094SOL     OW91211  11.339  11.051   4.533  0.6324 -0.0637 -0.0582
27094SOL    HW191212  11.407  11.105   4.492 -0.2248  2.6675  1.8381
27094SOL    HW291213  11.380  11.016   4.612  0.7233 -1.0139 -0.5094
27095SOL     OW91214   5.413   4.598  13.254 -0.5579 -0.2129  0.7001
27095SOL    HW191215   5.474   4.668  13.233 -0.7350 -0.1843  0.2774
27095SOL    HW291216   5.428   4.532  13.186 -1.4034  0.0488  0.2346
27096SOL     OW91217   9.144  11.507   8.578 -0.0853 -0.0349  0.3866
27096SOL    HW191218   9.110  11.451   8.507 -1.8011 -0.1022  1.2262
27096SOL    HW291219   9.216  11.456   8.616  1.1675  0.1839 -1.5422
27097SOL     OW91220  10.333  12.258   6.440  0.3236 -0.2390  0.3224
27097SOL    HW191221  10.300  12.267   6.530  0.5583 -2.7042  0.7421
27097SOL    HW291222  10.402  12.324   6.434 -0.8802  1.1881  1.3203
27098SOL     OW91223  12.913   8.729   4.225 -0.5078  1.0901 -0.5315
27098SOL    HW191224  12.974   8.764   4.160 -1.1220 -1.7004 -2.8143
27098SOL    HW291225  12.955   8.649   4.257 -2.2390 -0.0493 -0.9779
27099SOL     OW91226   8.821   2.222   1.347  0.0569 -0.3804  0.2354
27099SOL    HW191227   8.901   2.205   1.297  0.3794 -0.9706  0.9339
27099SOL    HW291228   8.851   2.270   1.425 -0.2106 -0.9213  0.6836
27100SOL     OW91229   5.091   7.303  12.719 -0.6663  0.3914  0.8889
27100SOL    HW191230   5.178   7.297  12.759 -0.3295  0.3455  0.1597
27100SOL    HW291231   5.043   7.364  12.776  0.1473  1.1805  0.7580
27101SOL     OW91232   5.794   9.816  10.037  0.1055 -0.2594 -0.3931
27101SOL    HW191233   5.796   9.912  10.043 -1.0785 -0.1003 -1.9939
27101SOL    HW291234   5.712   9.797   9.992  0.3619 -2.0449 -0.1583
27102SOL     OW91235   0.469   9.479   0.421 -0.3088 -0.2389  0.6694
27102SOL    HW191236   0.563   9.469   0.401 -0.1906  0.1245  1.0355
27102SOL    HW291237   0.425   9.453   0.340  0.1148 -0.2452  0.4369
27103SOL     OW91238   5.669   3.413   0.821 -0.1295  0.4571 -0.8750
27103SOL    HW191239   5.699   3.396   0.910  0.6438  0.5641 -1.1110
27103SOL    HW291240   5.745   3.395   0.766 -0.7023  0.0557 -1.5486
27104SOL     OW91241   4.287   2.304  11.885  1.5839  0.3128 -0.0312
27104SOL    HW191242   4.280   2.387  11.932 -1.4107  0.2064 -0.1075
27104SOL    HW291243   4.367   2.264  11.919  2.3377  2.5639  1.0552
27105SOL     OW91244  10.628   8.532   3.404  0.1329 -0.1262  0.5085
27105SOL    HW191245  10.589   8.452   3.368 -0.9124  0.3981  0.4413
27105SOL    HW291246  10.575   8.552   3.481  1.1575 -0.1673  1.2420
27106SOL     OW91247   3.508   3.199   7.445 -0.2079  0.5091 -0.4283
27106SOL    HW191248   3.478   3.285   7.472  0.4542  0.2809  1.1736
27106SOL    HW291249   3.603   3.205   7.446 -0.0492 -0.8104  2.0329
27107SOL     OW91250   2.536  11.876   3.159  0.2519 -0.2189 -0.2663
27107SOL    HW191251   2.456  11.893   3.109  0.7975 -0.5458 -1.2808
27107SOL    HW291252   2.514  11.900   3.249 -1.5771 -2.0703 -0.1586
27108SOL     OW91253   2.198   1.503   9.519  0.1428 -0.2269  0.2351
27108SOL    HW191254   2.236   1.500   9.431 -1.4660 -1.6449 -0.4845
27108SOL    HW291255   2.130   1.570   9.514  0.5351  0.2002  0.6168
27109SOL     OW91256   7.265   1.782  12.789  0.4167  0.1370 -0.3614
27109SOL    HW191257   7.237   1.720  12.856  2.3483 -0.5016 -0.0616
27109SOL    HW291258   7.281   1.728  12.712 -0.9971  0.7548 -1.1215
27110SOL     OW91259   1.864   4.760  12.662  0.4432  0.4430 -0.1932
27110SOL    HW191260   1.894   4.743  12.572  1.6847  1.5700 -0.0258
27110SOL    HW291261   1.942   4.744  12.716  0.2238  1.5885  0.4766
27111SOL     OW91262   4.270  12.425  10.965 -0.1553  0.1102  0.1717
27111SOL    HW191263   4.307  12.364  10.900 -0.6673 -0.3294  0.2858
27111SOL    HW291264   4.331  12.421  11.038 -0.1205 -0.1791  0.1303
27112SOL     OW91265  10.417   4.821   1.673 -0.0753  0.3941  0.2725
27112SOL    HW191266  10.429   4.734   1.637  0.7804  0.1105  1.2133
27112SOL    HW291267  10.325   4.842   1.655 -0.8738 -1.5040  1.7336
27113SOL     OW91268   4.460   6.623   3.008 -0.4390  0.0846 -0.2169
27113SOL    HW191269   4.395   6.565   3.047  1.1082 -1.6790 -0.1191
27113SOL    HW291270   4.462   6.700   3.065  0.3427 -1.5475  2.0942
27114SOL     OW91271   9.288  13.237   9.370  0.1761  0.7329 -0.5177
27114SOL    HW191272   9.367  13.238   9.316  0.0730  0.7815 -0.6654
27114SOL    HW291273   9.250  13.150   9.356  1.2442 -0.0403  1.0697
27115SOL     OW91274   2.118  10.957   9.406 -0.2008 -0.6362 -0.4916
27115SOL    HW191275   2.088  11.047   9.423  3.2365  0.7941 -1.2673
27115SOL    HW291276   2.058  10.924   9.339 -1.5745  1.0414 -0.1682
27116SOL     OW91277  11.522   8.139   2.125  0.6809  0.0076 -0.7062
27116SOL    HW191278  11.438   8.104   2.155  0.4141  0.3579 -1.0306
27116SOL    HW291279  11.587   8.079   2.161  0.3313  0.0798  0.0700
27117SOL     OW91280  11.535   8.187   4.435 -0.1079  0.1008 -0.0382
27117SOL    HW191281  11.585   8.231   4.504 -1.6848  1.5755  0.2300
27117SOL    HW291282  11.444   8.207   4.455 -0.8780 -2.6135 -0.4452
27118SOL     OW91283   5.077   7.935   8.415 -0.2508 -0.3403 -0.2633
27118SOL    HW191284   5.155   7.898   8.375 -0.4685  0.5275 -1.5238
27118SOL    HW291285   5.091   8.029   8.415 -0.2423 -0.2783  1.7818
27119SOL     OW91286   1.000  12.507   0.655 -0.0679  0.2378  0.1319
27119SOL    HW191287   0.914  12.483   0.621  1.0244 -3.0321 -0.6840
27119SOL    HW291288   1.060  12.493   0.581  1.2341  2.3348  0.7026
27120SOL     OW91289   7.495   2.927   1.871 -0.5603  0.5501 -0.1656
27120SOL    HW191290   7.464   3.002   1.923 -0.1096  0.7878 -0.2322
27120SOL    HW291291   7.419   2.900   1.820 -2.0167 -1.7115  2.9011
27121SOL     OW91292   0.214   9.682   4.144 -0.0883 -0.2060  0.2837
27121SOL    HW191293   0.278   9.695   4.074  0.3411  1.9992  1.0073
27121SOL    HW291294   0.265   9.653   4.219 -0.2879 -0.7416  0.2182
27122SOL     OW91295   6.073   3.578   6.311 -0.1225  0.2781 -0.1067
27122SOL    HW191296   5.988   3.549   6.345 -0.7054 -1.0298 -2.4626
27122SOL    HW291297   6.137   3.524   6.356 -0.6801 -0.0185  0.3454
27123SOL     OW91298   3.072   7.411   7.787 -0.0890  0.1025  0.0534
27123SOL    HW191299   2.983   7.444   7.772 -0.8216 -1.6313  0.3379
27123SOL    HW291300   3.060   7.337   7.847  1.7270  0.8559  1.4358
27124SOL     OW91301   4.121   5.031   6.700  0.1830 -0.4618 -0.3227
27124SOL    HW191302   4.060   5.079   6.644  0.0034  0.3008  0.5150
27124SOL    HW291303   4.118   5.076   6.784  2.9188  0.5096 -0.6176
27125SOL     OW91304   4.980  11.729  12.234 -0.1869  0.4240  0.2090
27125SOL    HW191305   4.963  11.819  12.263  0.7537  0.8240 -0.4610
27125SOL    HW291306   5.024  11.739  12.149 -0.8589 -0.6876 -0.2904
27126SOL     OW91307   2.203   7.614   1.760 -0.0053 -0.3403  0.0932
27126SOL    HW191308   2.165   7.628   1.673 -2.4451  0.0478  1.1414
27126SOL    HW291309   2.170   7.686   1.813  2.2261 -0.0112  1.1733
27127SOL     OW91310  11.199   9.749   9.083  0.4281  0.1893 -0.2383
27127SOL    HW191311  11.264   9.738   9.013 -0.1221 -0.5988 -0.6274
27127SOL    HW291312  11.115   9.733   9.041  0.1309 -0.9028  0.7334
27128SOL     OW91313   2.980   7.520   7.094  0.2487 -0.2497  0.3631
27128SOL    HW191314   2.965   7.492   7.004  0.0600  0.1177  0.2762
27128SOL    HW291315   2.920   7.467   7.146 -0.4633  0.3195  0.1487
27129SOL     OW91316   8.425   4.755   4.320 -0.1019  0.8424 -0.3413
27129SOL    HW191317   8.335   4.779   4.343  0.4752  0.0120  3.5995
27129SOL    HW291318   8.425   4.660   4.317  0.8647  0.7489  1.2967
27130SOL     OW91319   9.402   3.690   3.868  0.1951  0.2946  0.4718
27130SOL    HW191320   9.353   3.753   3.815  0.8422  0.5180  0.1357
27130SOL    HW291321   9.418   3.617   3.809 -1.5120 -0.7090  1.1649
27131SOL     OW91322   1.680   6.129   3.693 -0.2565 -0.1122  0.1335
27131SOL    HW191323   1.644   6.070   3.627 -1.2113 -0.0576  0.5823
27131SOL    HW291324   1.605   6.184   3.720  0.4517  0.8502  0.2065
27132SOL     OW91325   3.889  11.543  12.641 -0.0038  0.0348  0.1799
27132SOL    HW191326   3.961  11.479  12.646  0.6610  0.8571  2.1019
27132SOL    HW291327   3.874  11.554  12.548  0.2400 -2.4893 -0.2305
27133SOL     OW91328   9.087   0.738  13.081  0.4034 -0.7254 -0.5089
27133SOL    HW191329   9.167   0.781  13.051  0.2484 -0.4030 -0.4637
27133SOL    HW291330   9.045   0.802  13.137  0.7924 -1.3960  0.5970
27134SOL     OW91331   2.903   2.447   2.633 -0.1378  0.4409  0.6379
27134SOL    HW191332   2.919   2.541   2.624 -1.0482  0.5628  0.1920
27134SOL    HW291333   2.823   2.432   2.583  0.2466 -0.6571  0.3314
27135SOL     OW91334  11.300   9.645   5.911 -0.2470  0.6556  0.4328
27135SOL    HW191335  11.235   9.681   5.850 -0.2856 -0.3064 -0.1227
27135SOL    HW291336  11.249   9.589   5.970 -0.0011  0.2661  0.2854
27136SOL     OW91337   2.766   3.821  10.607  0.4542  0.3386  0.6259
27136SOL    HW191338   2.778   3.849  10.516  1.4455  1.2191  1.0107
27136SOL    HW291339   2.844   3.853  10.653 -0.0366 -0.0791  1.7968
27137SOL     OW91340   4.483   9.289   0.576  0.6635  0.1958 -0.6646
27137SOL    HW191341   4.515   9.255   0.659 -2.4952 -0.4689  0.4204
27137SOL    HW291342   4.480   9.384   0.588 -0.2810  0.0732  0.2537
27138SOL     OW91343   4.533   4.505   4.290  0.2858  0.3397 -0.8273
27138SOL    HW191344   4.528   4.464   4.204  0.2568  1.7306 -1.5011
27138SOL    HW291345   4.462   4.568   4.291  1.2879  1.5035 -0.4207
27139SOL     OW91346   4.778   2.681  13.134 -0.6806 -0.2627  0.7661
27139SOL    HW191347   4.862   2.634  13.135 -0.5351  0.0020  1.0292
27139SOL    HW291348   4.797   2.766  13.174 -0.6609  0.5168 -0.8025
27140SOL     OW91349   0.603   7.550  12.747  0.1858  0.3305 -0.1832
27140SOL    HW191350   0.645   7.552  12.833  0.3955  1.0799 -0.2936
27140SOL    HW291351   0.615   7.461  12.716 -0.0382  0.0061  0.6377
27141SOL     OW91352  13.287  12.006   8.745 -0.4191  0.6745  0.3928
27141SOL    HW191353  13.267  11.915   8.723  0.4129  0.2356  1.3739
27141SOL    HW291354  13.382  12.012   8.737 -0.6196  2.0193 -1.6324
27142SOL     OW91355   6.979   8.664  11.513  0.0734 -0.3570  0.0463
27142SOL    HW191356   7.036   8.685  11.587 -1.8181  1.8622  0.9820
27142SOL    HW291357   6.924   8.592  11.544 -0.9344  0.7767  1.0096
27143SOL     OW91358   3.133   9.685   8.738  0.4002  0.0690 -0.1517
27143SOL    HW191359   3.154   9.630   8.813 -0.4970 -0.9157 -0.5955
27143SOL    HW291360   3.158   9.633   8.662  0.0304  0.4930 -0.5730
27144SOL     OW91361   8.373  10.758   4.406 -0.1948 -0.8685 -0.2834
27144SOL    HW191362   8.439  10.771   4.474  0.5425  1.7513 -1.3747
27144SOL    HW291363   8.339  10.670   4.421  1.8891 -1.3975  1.7461
27145SOL     OW91364   2.845   2.941  10.560  0.2446 -0.3447 -0.4466
27145SOL    HW191365   2.785   2.973  10.492 -0.3920 -1.3109 -0.3658
27145SOL    HW291366   2.889   3.019  10.591  0.3384  0.1651 -1.7704
27146SOL     OW91367   4.878   7.097   9.653 -0.0458 -0.4254 -0.1551
27146SOL    HW191368   4.795   7.085   9.606 -0.1550 -0.2697 -0.0045
27146SOL    HW291369   4.888   7.018   9.706 -1.0480  0.3655  1.2808
27147SOL     OW91370   4.354   1.488   1.276 -0.4240 -0.1703  0.2813
27147SOL    HW191371   4.422   1.534   1.325 -1.4960  1.9153 -0.0323
27147SOL    HW291372   4.326   1.417   1.333  0.2311  0.5316  1.5224
27148SOL     OW91373   0.320  11.998   6.506 -0.4856  0.6198  0.1104
27148SOL    HW191374   0.292  12.000   6.415  0.3414  4.6224 -0.2448
27148SOL    HW291375   0.409  11.966   6.504 -0.9226 -0.6098 -0.2778
27149SOL     OW91376   9.040   9.839  11.002 -0.1968  0.3937 -0.3257
27149SOL    HW191377   9.024   9.760  11.052  0.5182 -0.0328 -0.7418
27149SOL    HW291378   9.010   9.910  11.058  0.8568 -0.0475  0.8480
27150SOL     OW91379   4.863  11.306  12.036 -0.0806 -0.4818  0.0922
27150SOL    HW191380   4.868  11.259  12.120 -0.9569  1.6870  1.4474
27150SOL    HW291381   4.816  11.247  11.978  1.4229 -2.4603  0.7769
27151SOL     OW91382   4.943   4.558   1.629  0.1013 -0.0422  0.8340
27151SOL    HW191383   4.941   4.590   1.719  0.0850  1.3945  0.3464
27151SOL    HW291384   4.998   4.620   1.583 -1.1766  0.1613 -0.4840
27152SOL     OW91385   0.288   3.765  10.938 -0.1717 -0.0864  0.5459
27152SOL    HW191386   0.279   3.697  11.005 -0.1459  1.4712  2.1851
27152SOL    HW291387   0.377   3.754  10.905 -0.3663 -1.2156  0.3544
27153SOL     OW91388   6.329   1.839   4.404 -0.2122  0.3052 -0.1716
27153SOL    HW191389   6.373   1.760   4.373  1.7985  0.6285  1.6318
27153SOL    HW291390   6.265   1.806   4.469  1.5351  0.1601  1.5658
27154SOL     OW91391   6.968   6.515   2.956  0.9771  0.3789  0.4813
27154SOL    HW191392   7.015   6.541   3.035 -0.9200  1.5477  1.2900
27154SOL    HW291393   6.961   6.595   2.904  0.1370  0.1626  0.2485
27155SOL     OW91394  10.359   2.723   3.048  0.0448  0.5764 -0.1026
27155SOL    HW191395  10.407   2.771   3.116 -0.2289 -1.3331  1.5234
27155SOL    HW291396  10.406   2.745   2.967  0.3102  3.0230  0.6140
27156SOL     OW91397  12.152   0.392  10.682 -0.3300  0.2728  0.0337
27156SOL    HW191398  12.185   0.311  10.722 -0.5661  0.5789  0.8858
27156SOL    HW291399  12.230   0.446  10.669 -0.3731  0.7162  1.3969
27157SOL     OW91400  11.424  11.893   6.119  0.1736 -0.4995  0.6858
27157SOL    HW191401  11.329  11.905   6.129 -0.0865 -0.6272 -1.3867
27157SOL    HW291402  11.451  11.852   6.202 -1.9315 -2.4919  0.4910
27158SOL     OW91403   8.409  12.146   5.266 -0.3161 -0.1122 -0.4028
27158SOL    HW191404   8.480  12.152   5.203  0.3464 -1.1776  0.1991
27158SOL    HW291405   8.454  12.138   5.351 -1.1674  0.1812  0.0823
27159SOL     OW91406   0.712   2.697  10.815 -0.6600  0.7699 -0.3303
27159SOL    HW191407   0.645   2.646  10.769  0.2863 -1.1510  0.2786
27159SOL    HW291408   0.734   2.767  10.754 -1.5259  0.0264 -1.5642
27160SOL     OW91409   0.409   5.818   0.884 -0.1279  0.0137 -0.3153
27160SOL    HW191410   0.493   5.856   0.911 -0.6021  0.5077  0.5305
27160SOL    HW291411   0.353   5.894   0.867 -0.3559 -0.3112 -1.0526
27161SOL     OW91412  10.046   0.748   9.688  0.8768 -0.0789  0.4029
27161SOL    HW191413  10.071   0.822   9.743  1.4866  1.3217 -1.6436
27161SOL    HW291414   9.954   0.764   9.667  0.6159 -0.6650  1.0549
27162SOL     OW91415   1.780   4.827   2.609  0.1538  0.6836 -0.8491
27162SOL    HW191416   1.876   4.822   2.609  0.1845  1.2064 -0.3734
27162SOL    HW291417   1.751   4.744   2.648  0.4366  0.8882 -0.1920
27163SOL     OW91418   4.409   5.178  10.501 -0.5074  0.5083 -0.1757
27163SOL    HW191419   4.336   5.169  10.440 -1.2386  1.0767  0.5962
27163SOL    HW291420   4.455   5.257  10.472 -1.0210  0.9374  0.1910
27164SOL     OW91421   4.148  11.115  10.439 -0.0186  0.1140  0.0462
27164SOL    HW191422   4.183  11.061  10.369  0.0702 -0.0349  0.2053
27164SOL    HW291423   4.133  11.200  10.399 -1.4530 -0.3986 -0.5747
27165SOL     OW91424   1.440   8.249   2.301  0.0533 -0.3856  0.0094
27165SOL    HW191425   1.533   8.243   2.320 -0.1291 -0.5985  0.8575
27165SOL    HW291426   1.433   8.320   2.237  0.6670  0.4487  0.8441
27166SOL     OW91427   0.283  12.192  12.418 -0.1715  0.1798 -0.2683
27166SOL    HW191428   0.369  12.231  12.433  0.4201 -1.0297 -0.3724
27166SOL    HW291429   0.280  12.117  12.477 -0.4843 -0.7561 -1.4275
27167SOL     OW91430   4.073  10.457  12.876 -0.2038  0.5504 -0.0988
27167SOL    HW191431   4.079  10.448  12.781 -1.8129  0.2996 -0.1955
27167SOL    HW291432   3.980  10.447  12.895  0.0600  0.9259  1.4770
27168SOL     OW91433   7.774   9.737   3.008  0.3706 -0.1728 -0.0726
27168SOL    HW191434   7.722   9.670   2.964  0.0782 -0.1807  0.2794
27168SOL    HW291435   7.826   9.776   2.939  1.0257 -1.2005 -0.1890
27169SOL     OW91436  10.461   4.660   6.529 -0.0845  0.7138  0.0151
27169SOL    HW191437  10.555   4.659   6.544  0.1087  0.2719 -1.1077
27169SOL    HW291438  10.452   4.665   6.433 -1.1774 -1.7544 -0.0770
27170SOL     OW91439  13.204   6.167   0.018  0.5859  0.5983  0.2939
27170SOL    HW191440  13.282   6.192  -0.032 -0.4984  1.7393 -0.9352
27170SOL    HW291441  13.234   6.157   0.108  2.3291 -0.0175 -0.3284
27171SOL     OW91442   4.734   1.020  10.429 -0.1603  0.2890  0.1392
27171SOL    HW191443   4.705   1.064  10.509  1.1297  0.6642  0.4105
27171SOL    HW291444   4.661   0.962  10.406 -0.8445  0.7137  1.1691
27172SOL     OW91445   2.453   2.811   9.381  0.6649 -0.4056  0.0135
27172SOL    HW191446   2.487   2.725   9.406 -2.2113 -1.1123  1.9839
27172SOL    HW291447   2.390   2.792   9.311  0.4304  0.1815  0.0616
27173SOL     OW91448   8.518  12.925   3.326  0.0633 -0.2459 -0.0698
27173SOL    HW191449   8.591  12.916   3.387  0.9137 -0.0271 -1.0315
27173SOL    HW291450   8.559  12.931   3.240 -1.0290  0.9488 -0.5459
27174SOL     OW91451   6.446   2.045   4.506  0.3007  0.0620 -0.2078
27174SOL    HW191452   6.427   2.039   4.600  2.0971 -3.6866  0.1049
27174SOL    HW291453   6.424   1.958   4.472  1.1141  0.8465 -2.9707
27175SOL     OW91454   5.643   1.712   0.702  0.1031  0.2376  0.4228
27175SOL    HW191455   5.676   1.679   0.786  2.4820 -0.1852 -0.6158
27175SOL    HW291456   5.553   1.738   0.721  0.3235 -0.5495  2.9204
27176SOL     OW91457   5.713   7.460   5.556 -0.0139  0.8041 -0.3252
27176SOL    HW191458   5.747   7.537   5.509 -2.7196  1.2876 -1.6489
27176SOL    HW291459   5.619   7.476   5.564 -0.5779 -2.1121 -0.1157
27177SOL     OW91460   2.407   8.314  12.918 -0.5004  0.2951 -0.5704
27177SOL    HW191461   2.417   8.278  12.830  0.1835 -0.5414 -0.1586
27177SOL    HW291462   2.478   8.276  12.968  0.5870  2.6154 -0.2133
27178SOL     OW91463   5.323   2.925   2.869 -0.0813  0.5296 -0.5411
27178SOL    HW191464   5.298   2.839   2.904 -0.8829  0.4647 -1.2551
27178SOL    HW291465   5.273   2.934   2.788  2.1632  0.3960 -2.0410
27179SOL     OW91466   2.073  12.506   3.364 -0.1682 -0.7511 -0.1497
27179SOL    HW191467   2.019  12.481   3.439 -1.8914  1.9642 -0.3483
27179SOL    HW291468   2.116  12.425   3.338  0.5056 -1.8181  3.6914
27180SOL     OW91469  12.937  11.481   1.771  0.2066 -0.3198 -0.1368
27180SOL    HW191470  13.018  11.499   1.819  0.7905  1.2497 -1.6057
27180SOL    HW291471  12.962  11.412   1.709  0.3565  0.0166 -0.4488
27181SOL     OW91472   2.695   3.119  13.199 -0.1652  0.4099 -0.0139
27181SOL    HW191473   2.698   3.031  13.162  1.8562  0.3262  0.2116
27181SOL    HW291474   2.653   3.108  13.285 -0.6477 -0.1880 -0.3208
27182SOL     OW91475   3.600  11.151   8.949  0.4402 -0.1545  0.0401
27182SOL    HW191476   3.596  11.055   8.949  1.3585 -0.2195 -1.5434
27182SOL    HW291477   3.610  11.174   9.041  1.6656 -1.6533  0.3262
27183SOL     OW91478   9.589   4.686   8.092 -0.3228  0.5218 -0.4507
27183SOL    HW191479   9.648   4.718   8.161 -1.6695  0.2071  0.9021
27183SOL    HW291480   9.622   4.599   8.071  0.7436  1.0333 -1.0130
27184SOL     OW91481   8.765   9.881  13.048 -0.4025  0.0297  0.2823
27184SOL    HW191482   8.799   9.969  13.064 -0.9265  0.3888 -0.5131
27184SOL    HW291483   8.759   9.841  13.135  0.4845  0.5375  0.5840
27185SOL     OW91484   1.887  13.169   2.932  0.2434 -0.4906  0.1291
27185SOL    HW191485   1.933  13.227   2.871 -1.0619  0.6670  0.1918
27185SOL    HW291486   1.934  13.086   2.926  0.5336 -0.2251 -1.9652
27186SOL     OW91487  10.321  12.102   5.334  0.7358 -0.0176 -0.6974
27186SOL    HW191488  10.240  12.133   5.376  0.3083 -2.5957  0.5857
27186SOL    HW291489  10.306  12.117   5.241 -1.0697 -0.0729 -0.4657
27187SOL     OW91490   6.404   8.552   9.284 -0.7848 -0.2156 -0.1866
27187SOL    HW191491   6.453   8.526   9.206 -0.4126  0.7951 -0.3081
27187SOL    HW291492   6.395   8.647   9.275  0.4555  0.1224  1.6763
27188SOL     OW91493   6.030   0.042   6.970  0.1163  0.4517  0.0962
27188SOL    HW191494   6.010  -0.017   7.043  0.7840 -0.8694 -0.7407
27188SOL    HW291495   6.110   0.087   6.996  0.6949 -0.4655 -0.0610
27189SOL     OW91496   2.891   0.197   2.908 -0.5400  0.2138  0.2200
27189SOL    HW191497   2.908   0.121   2.852 -0.3227 -0.7553  1.5727
27189SOL    HW291498   2.978   0.232   2.927 -0.5440 -0.0820  0.7910
27190SOL     OW91499   9.613  12.163  11.647 -0.2161  0.1478 -0.3095
27190SOL    HW191500   9.633  12.086  11.699  2.1355 -1.0572 -2.7634
27190SOL    HW291501   9.539  12.136  11.592 -0.1013  0.0419 -0.4114
27191SOL     OW91502   2.607   2.504  11.801  0.0461 -0.5980 -0.3715
27191SOL    HW191503   2.648   2.588  11.823 -0.9475 -0.2194  0.0644
27191SOL    HW291504   2.521   2.527  11.766 -0.4755 -1.4475  0.3079
27192SOL     OW91505   8.118   6.046  11.463 -0.1487  0.0015 -0.1930
27192SOL    HW191506   8.212   6.050  11.452 -0.3607  0.6615 -2.1289
27192SOL    HW291507   8.088   5.983  11.396 -1.1752  0.7405 -0.4576
27193SOL     OW91508   4.574   6.951  12.975  0.3863  0.2591  0.6041
27193SOL    HW191509   4.663   6.986  12.982  0.6493 -0.0539 -0.8949
27193SOL    HW291510   4.543   6.946  13.066  0.8134  3.0902  0.9958
27194SOL     OW91511   2.574  11.012   8.962  0.3666  0.1014  0.1034
27194SOL    HW191512   2.632  10.936   8.960  2.6442  1.7443 -1.0607
27194SOL    HW291513   2.620  11.079   8.910 -1.8433  2.0591  0.4844
27195SOL     OW91514   6.335   8.639   7.595  0.0286 -0.2603  0.2072
27195SOL    HW191515   6.338   8.701   7.668  0.3606 -0.6407  0.5215
27195SOL    HW291516   6.415   8.587   7.604 -0.1909 -0.6587 -0.1191
27196SOL     OW91517   6.322  11.064  11.758 -0.2084 -0.0372  0.4788
27196SOL    HW191518   6.392  11.127  11.743 -0.6788  0.2067 -0.8029
27196SOL    HW291519   6.285  11.048  11.672  0.2531 -2.5106  0.6604
27197SOL     OW91520   5.407  11.129  12.843 -0.4476 -0.3124  0.1112
27197SOL    HW191521   5.383  11.038  12.855  2.8675 -1.1838  1.3921
27197SOL    HW291522   5.416  11.140  12.748 -2.4994 -0.7778 -0.1659
27198SOL     OW91523   2.219   0.580   9.908 -0.0167 -0.3465  0.5863
27198SOL    HW191524   2.186   0.652   9.963  0.5564  0.7611 -0.4528
27198SOL    HW291525   2.269   0.625   9.839  0.0770 -1.7449 -0.2791
27199SOL     OW91526   9.946  11.859  11.261  0.2759  0.6056 -0.3473
27199SOL    HW191527   9.945  11.779  11.313  0.6485  0.8169 -0.0039
27199SOL    HW291528  10.039  11.882  11.256  0.1662  1.0357 -0.4051
27200SOL     OW91529   5.153   2.150  11.625  0.3089 -0.6344 -0.2176
27200SOL    HW191530   5.136   2.226  11.681  1.0225 -0.0927 -0.7173
27200SOL    HW291531   5.244   2.126  11.642 -0.2044 -2.0416  0.6945
27201SOL     OW91532   1.140   1.846   8.796 -0.0241  0.2371 -0.2340
27201SOL    HW191533   1.163   1.914   8.732  1.5551 -1.5551 -1.6775
27201SOL    HW291534   1.194   1.771   8.772  0.4592 -0.6258  3.1208
27202SOL     OW91535   5.712   3.837  12.898  0.3092 -0.0254 -0.5061
27202SOL    HW191536   5.755   3.816  12.815  0.3151  0.3852 -0.6087
27202SOL    HW291537   5.660   3.759  12.918  0.1795 -0.0662 -0.9789
27203SOL     OW91538   4.849  11.429   3.504 -0.0533 -0.2184 -0.4896
27203SOL    HW191539   4.755  11.433   3.521 -0.5305 -1.2497 -2.5689
27203SOL    HW291540   4.856  11.429   3.409  2.0922  0.1224 -0.3741
27204SOL     OW91541   8.777   0.606   0.466  0.2468 -0.3254  0.0689
27204SOL    HW191542   8.866   0.638   0.450 -0.1364  0.5287 -0.4612
27204SOL    HW291543   8.762   0.620   0.559  0.0499  1.2359 -0.1643
27205SOL     OW91544   4.060   6.106   8.071 -0.1332 -0.1441  0.5231
27205SOL    HW191545   3.988   6.089   8.133  0.5500  0.9470  1.6686
27205SOL    HW291546   4.101   6.185   8.104  0.9800 -0.1824 -0.7064
27206SOL     OW91547   7.269  12.627   4.870 -0.5658 -0.3374 -0.4530
27206SOL    HW191548   7.195  12.636   4.810 -0.8821  1.1291  0.1197
27206SOL    HW291549   7.346  12.650   4.817 -0.7914  0.4605 -0.4489
27207SOL     OW91550   1.091   1.825   3.598 -0.3647  0.5695  0.2975
27207SOL    HW191551   1.145   1.867   3.665  3.6146 -0.0759 -2.1807
27207SOL    HW291552   1.110   1.731   3.607 -0.1842  0.4240 -1.3026
27208SOL     OW91553   5.590  12.814   5.571 -0.6412 -0.2971  0.1258
27208SOL    HW191554   5.526  12.852   5.511 -0.9491  0.6957  1.0501
27208SOL    HW291555   5.673  12.818   5.522 -0.6940  1.4335  0.0999
27209SOL     OW91556   4.815   7.526  10.064 -0.1071  0.2914 -0.3823
27209SOL    HW191557   4.891   7.500  10.012 -2.2892 -2.1371 -2.6270
27209SOL    HW291558   4.801   7.454  10.125  0.1416  1.3412  0.9536
27210SOL     OW91559   5.202   1.085   3.118  0.2354 -0.0002 -0.6229
27210SOL    HW191560   5.296   1.077   3.136  0.4788  0.2805 -1.6844
27210SOL    HW291561   5.189   1.033   3.039 -0.5099 -0.0408 -0.4752
27211SOL     OW91562   9.010  12.043   4.394 -0.0205  0.4958 -0.7462
27211SOL    HW191563   8.970  11.991   4.324  1.0398 -0.9420 -0.3297
27211SOL    HW291564   9.021  12.130   4.356  0.8892 -0.3405 -2.5434
27212SOL     OW91565   3.429   7.986   0.350  0.3277  0.2243  0.2199
27212SOL    HW191566   3.492   8.052   0.379  0.2717  0.1228  0.5720
27212SOL    HW291567   3.353   8.036   0.321  0.2936  0.3141  0.4668
27213SOL     OW91568   2.425   2.020   6.842  0.1262  0.3471 -0.8524
27213SOL    HW191569   2.387   2.108   6.834  1.3005  1.1997  1.8184
27213SOL    HW291570   2.354   1.966   6.878  0.0118  0.7535 -0.4570
27214SOL     OW91571   7.173  10.555   5.560 -0.3254  0.7716 -0.0675
27214SOL    HW191572   7.213  10.479   5.603 -1.3035 -1.3470 -2.6836
27214SOL    HW291573   7.240  10.623   5.567  1.7296 -1.1252  0.0810
27215SOL     OW91574   3.217   6.224  12.230 -0.4117 -0.1902 -0.5136
27215SOL    HW191575   3.197   6.317  12.223  3.0431  0.6223 -1.5184
27215SOL    HW291576   3.263   6.215  12.313 -1.7779 -1.2925  0.1610
27216SOL     OW91577   1.093   1.595   1.086  0.4549  0.1032 -0.2617
27216SOL    HW191578   1.181   1.630   1.069  0.0502  0.4971 -1.6991
27216SOL    HW291579   1.057   1.650   1.155  0.2442  1.8568 -1.7087
27217SOL     OW91580   1.379   4.407   1.431 -0.3421  0.0049 -0.2475
27217SOL    HW191581   1.356   4.316   1.453  0.5558 -0.6709 -1.9369
27217SOL    HW291582   1.296   4.454   1.434 -1.1094 -1.2513 -1.0342
27218SOL     OW91583   8.707   7.424   1.485 -0.0162  0.3494  0.2502
27218SOL    HW191584   8.632   7.482   1.473 -0.0079  0.3694  0.2960
27218SOL    HW291585   8.705   7.400   1.578 -0.1992  0.0310  0.1678
27219SOL     OW91586   2.792   4.794  10.984  0.0176  0.1987 -0.1585
27219SOL    HW191587   2.765   4.712  10.943  0.8067 -0.4003  0.5073
27219SOL    HW291588   2.715   4.822  11.033 -0.6257  0.4424 -1.2569
27220SOL     OW91589  10.051   5.465   0.969 -0.2358 -0.1556  0.4902
27220SOL    HW191590  10.102   5.512   0.903  0.4737 -0.5305  0.7558
27220SOL    HW291591  10.115   5.406   1.011 -0.5066  0.5416  1.9507
27221SOL     OW91592  11.701  11.711   3.832  0.0648 -0.2215 -0.1142
27221SOL    HW191593  11.653  11.631   3.857  0.0833 -0.6078 -1.2699
27221SOL    HW291594  11.674  11.775   3.898 -1.3015 -0.7026 -0.1558
27222SOL     OW91595   5.015  10.132   7.315  0.0610  0.0218  0.0519
27222SOL    HW191596   4.987  10.130   7.406  1.2115 -0.0145  0.4237
27222SOL    HW291597   5.057  10.217   7.304 -2.3045  1.1097 -1.1776
27223SOL     OW91598   3.933   2.380   0.734 -0.3397  0.4591 -0.4283
27223SOL    HW191599   4.023   2.365   0.761 -0.6976  2.9783  2.8526
27223SOL    HW291600   3.935   2.467   0.692 -1.5215  2.1472  2.6692
27224SOL     OW91601   7.635   6.505   0.332  0.4267 -0.3537 -0.3422
27224SOL    HW191602   7.597   6.481   0.416  0.3396 -2.0266 -0.8159
27224SOL    HW291603   7.695   6.433   0.312  0.5279  0.0667 -1.6548
27225SOL     OW91604   2.136   0.904   3.594 -0.3285  0.1005 -0.3916
27225SOL    HW191605   2.052   0.917   3.638 -0.7396 -1.6830 -0.5602
27225SOL    HW291606   2.200   0.947   3.651 -1.0883 -0.4863  0.9607
27226SOL     OW91607  12.738   0.845   0.643 -0.1148 -0.1485  0.1285
27226SOL    HW191608  12.756   0.752   0.659 -0.6279 -0.2032  0.3891
27226SOL    HW291609  12.704   0.847   0.554  1.7068  0.0278 -0.6148
27227SOL     OW91610   1.522   6.273   9.212 -0.1974  0.4160 -0.4428
27227SOL    HW191611   1.551   6.197   9.162 -2.7331 -2.3631  1.9354
27227SOL    HW291612   1.584   6.279   9.284  1.2184  2.0601 -1.6936
27228SOL     OW91613   1.268   7.265   5.229  0.1726  0.6493  0.7262
27228SOL    HW191614   1.214   7.212   5.288 -0.3520  1.3837  0.9171
27228SOL    HW291615   1.262   7.220   5.145  0.8642 -0.3676  1.2001
27229SOL     OW91616   5.337  11.175   7.648  0.5357  0.3700  0.0904
27229SOL    HW191617   5.410  11.236   7.639 -0.0599  1.1246  0.2724
27229SOL    HW291618   5.319  11.173   7.742 -0.6172  1.3360 -0.0837
27230SOL     OW91619   4.494   9.167   6.859 -0.0800 -0.6040  0.4889
27230SOL    HW191620   4.508   9.261   6.875 -1.4511 -0.3533  0.3645
27230SOL    HW291621   4.543   9.123   6.928  1.7722  0.1470 -0.3015
27231SOL     OW91622   4.592   0.953   0.245 -0.9051 -0.0609 -0.0971
27231SOL    HW191623   4.562   0.868   0.213 -0.8590  0.0618 -0.4721
27231SOL    HW291624   4.522   0.984   0.302 -1.3749  0.0931 -0.7419
27232SOL     OW91625   4.252  11.702   9.712  0.4187 -0.5482 -0.4854
27232SOL    HW191626   4.269  11.750   9.793 -2.9488  1.2541 -0.6666
27232SOL    HW291627   4.332  11.713   9.661  0.9855  2.2453  0.7898
27233SOL     OW91628  11.804   8.875   6.545 -0.4805  0.2235 -1.0981
27233SOL    HW191629  11.842   8.908   6.626 -3.8349  0.0488  0.6750
27233SOL    HW291630  11.785   8.954   6.494 -1.2914  0.5747 -0.2809
27234SOL     OW91631   1.751   5.098   1.548  0.6809 -0.4823 -0.0289
27234SOL    HW191632   1.668   5.051   1.550 -0.1257  0.8985  0.5927
27234SOL    HW291633   1.732   5.178   1.498  1.8481 -0.5061 -0.5406
27235SOL     OW91634  12.210   5.627   0.717  0.5271 -0.1358 -0.1963
27235SOL    HW191635  12.140   5.627   0.651 -1.2937 -1.0065  1.6330
27235SOL    HW291636  12.207   5.715   0.754  1.7386  0.4446 -1.3915
27236SOL     OW91637   5.474  12.070   6.955 -0.1828 -0.4415  0.2039
27236SOL    HW191638   5.504  12.141   7.011 -2.7125  1.3733 -0.5994
27236SOL    HW291639   5.436  12.113   6.878  1.2968 -2.7626 -2.0309
27237SOL     OW91640   4.335   8.319  13.004 -0.0205 -0.6554  0.6335
27237SOL    HW191641   4.243   8.306  12.980  0.1876  0.4062 -0.9777
27237SOL    HW291642   4.361   8.239  13.048 -1.2992 -1.6113 -0.2824
27238SOL     OW91643   1.129   8.211  10.691 -0.3877  0.2528 -0.3395
27238SOL    HW191644   1.220   8.232  10.673 -0.7526  1.5259 -0.7867
27238SOL    HW291645   1.132   8.124  10.732  1.0284  0.3786 -0.1381
27239SOL     OW91646   8.160  12.449  12.375 -0.2075 -0.2651 -0.5446
27239SOL    HW191647   8.131  12.538  12.356 -0.3135  0.0120  0.8000
27239SOL    HW291648   8.083  12.394  12.356  0.2309 -0.2363 -2.5228
27240SOL     OW91649   2.651   3.609   1.998  0.2978  0.1034  0.2756
27240SOL    HW191650   2.674   3.552   2.071 -0.3484  0.0835  0.4703
27240SOL    HW291651   2.677   3.560   1.919 -1.3152 -0.9774  0.3837
27241SOL     OW91652   2.782   0.413  11.927  0.0648  0.3927 -0.0808
27241SOL    HW191653   2.803   0.387  11.837  0.2580  0.7366 -0.1353
27241SOL    HW291654   2.686   0.420  11.928  0.0595  0.3405 -0.2459
27242SOL     OW91655  10.424   4.126   7.158 -0.2398 -0.1471 -0.7586
27242SOL    HW191656  10.466   4.104   7.241 -2.0735  0.2309  0.3234
27242SOL    HW291657  10.496   4.159   7.104  1.4874 -2.8379 -0.3164
27243SOL     OW91658   3.922   6.086   1.447  0.1274  0.5875 -0.1584
27243SOL    HW191659   3.915   6.009   1.390 -2.2377  0.0619  0.6986
27243SOL    HW291660   3.970   6.055   1.524  1.2901  0.6575 -0.8417
27244SOL     OW91661   2.987   9.218   0.139 -0.0497 -0.3131  0.2334
27244SOL    HW191662   3.075   9.253   0.123 -1.1505  1.0527 -4.0882
27244SOL    HW291663   2.937   9.292   0.172 -0.4493  0.0166 -1.0667
27245SOL     OW91664   8.182   0.438   4.481 -0.0008  0.4618 -0.8540
27245SOL    HW191665   8.193   0.508   4.546  1.7046  0.3935 -1.0012
27245SOL    HW291666   8.124   0.375   4.523 -0.7328  1.4691 -0.3030
27246SOL     OW91667   1.733   9.422  10.670 -0.1299 -0.2830 -0.2395
27246SOL    HW191668   1.683   9.504  10.666 -0.3698 -0.3527  0.9940
27246SOL    HW291669   1.668   9.356  10.694 -0.2919 -1.1838 -2.7923
27247SOL     OW91670  11.689   0.147   0.404  0.2909 -0.2027  0.1153
27247SOL    HW191671  11.775   0.124   0.367  0.2466  1.1769 -0.9248
27247SOL    HW291672  11.639   0.065   0.401  0.9789 -0.6100 -0.9763
27248SOL     OW91673   6.959  12.752   7.775  0.4121  0.1937 -1.0684
27248SOL    HW191674   7.014  12.693   7.826 -0.0880  0.9703  0.4223
27248SOL    HW291675   6.911  12.694   7.714 -0.8489 -1.1194  1.0443
27249SOL     OW91676   4.423   9.900   1.742  0.4870 -0.3124  0.5152
27249SOL    HW191677   4.449   9.902   1.650 -2.5294 -1.0569 -0.4789
27249SOL    HW291678   4.379   9.984   1.756 -2.0532 -1.4871  0.1744
27250SOL     OW91679   1.727   7.475   6.986  1.1503  0.0507  0.1867
27250SOL    HW191680   1.688   7.479   7.074 -0.9458 -0.4767 -0.6533
27250SOL    HW291681   1.798   7.539   6.989  0.6777  0.5649  2.0523
27251SOL     OW91682  11.206   9.325  12.779 -0.1516  0.9155 -0.0839
27251SOL    HW191683  11.299   9.340  12.767 -0.2787  1.8555  0.0674
27251SOL    HW291684  11.190   9.345  12.871 -0.1765 -1.0314  0.3837
27252SOL     OW91685   9.943   2.378  11.746 -0.0187  0.4369  0.3765
27252SOL    HW191686   9.880   2.426  11.799 -0.5953 -0.1377  0.2211
27252SOL    HW291687   9.893   2.347  11.671  0.6273  0.6336 -0.1485
27253SOL     OW91688   0.277   9.158   3.493 -0.4591  0.7516  1.0323
27253SOL    HW191689   0.258   9.077   3.446 -4.0132  0.9310  1.8450
27253SOL    HW291690   0.368   9.177   3.472  0.0250 -2.5331 -0.5314
27254SOL     OW91691   1.166   5.564   3.923 -0.6519  0.0735  0.3798
27254SOL    HW191692   1.122   5.572   4.007 -1.9715  1.5943 -0.4010
27254SOL    HW291693   1.258   5.583   3.943 -0.4570 -2.0699  1.8497
27255SOL     OW91694   0.753   1.834  13.257 -0.4332  0.0948  0.5781
27255SOL    HW191695   0.813   1.908  13.255  0.6378 -0.7755 -0.0393
27255SOL    HW291696   0.744   1.813  13.350  1.1892 -0.5260  0.6174
27256SOL     OW91697   0.942   8.880   4.724  0.0077 -0.2846  0.0358
27256SOL    HW191698   0.888   8.896   4.646  0.3029  1.3448  0.1407
27256SOL    HW291699   0.913   8.946   4.787  1.0257 -0.4220  0.6623
27257SOL     OW91700  12.385   6.282   1.372 -0.1145  0.0065  0.5163
27257SOL    HW191701  12.336   6.275   1.290 -0.8931 -0.5840  1.0197
27257SOL    HW291702  12.413   6.193   1.392 -1.1180 -0.0915  1.5944
27258SOL     OW91703   7.885   6.494   8.532 -0.2093 -0.4062  0.0052
27258SOL    HW191704   7.934   6.421   8.494 -0.7173 -0.8677  0.2299
27258SOL    HW291705   7.814   6.452   8.581 -0.2481  0.2238  0.4904
27259SOL     OW91706   3.696   6.145   0.789 -0.3847  0.9429 -0.2382
27259SOL    HW191707   3.647   6.215   0.745 -1.2730  0.0613 -0.6977
27259SOL    HW291708   3.760   6.116   0.725 -0.8436  0.5080 -0.5085
27260SOL     OW91709   2.853   9.308   7.286 -0.5127  0.2899  0.2844
27260SOL    HW191710   2.793   9.271   7.350 -0.9610  0.4408 -0.0456
27260SOL    HW291711   2.938   9.307   7.329 -0.8707  0.7150  1.0000
27261SOL     OW91712  11.603   2.045   2.118  0.2946 -0.0234 -0.0374
27261SOL    HW191713  11.556   2.124   2.091  0.0655  0.1668  0.8790
27261SOL    HW291714  11.535   1.987   2.151  0.6182 -0.0473  0.5956
27262SOL     OW91715  11.703   9.050  10.029  0.1422 -0.3750 -0.3554
27262SOL    HW191716  11.728   9.141  10.014  1.2235 -0.9052 -1.9166
27262SOL    HW291717  11.781   9.009  10.065 -0.4218 -0.6608  0.5989
27263SOL     OW91718  13.230  11.189  10.447  0.0693  0.0081 -0.2182
27263SOL    HW191719  13.195  11.278  10.442  0.6881  0.2069 -2.3697
27263SOL    HW291720  13.309  11.192  10.392  0.9000 -1.5399  0.8070
27264SOL     OW91721   5.840  10.355   9.241 -0.3198  0.3427  0.5501
27264SOL    HW191722   5.801  10.437   9.211  0.4972  0.5389 -0.0052
27264SOL    HW291723   5.822  10.293   9.171 -0.5336  0.1637  0.7619
27265SOL     OW91724   4.149   7.635   9.335 -0.0862 -0.1208 -0.5394
27265SOL    HW191725   4.239   7.606   9.319 -0.1870 -1.1787  0.6660
27265SOL    HW291726   4.104   7.619   9.252  0.6582 -0.2488 -0.9316
27266SOL     OW91727   5.169   4.077   2.121  0.2818 -0.0854 -0.1603
27266SOL    HW191728   5.254   4.090   2.164  0.7027  0.4081 -1.1010
27266SOL    HW291729   5.190   4.025   2.044 -0.5157 -1.2768  0.4130
27267SOL     OW91730   6.372   9.173  11.649  0.2583  0.3480  0.4243
27267SOL    HW191731   6.281   9.180  11.620 -0.1514 -2.7164  0.6199
27267SOL    HW291732   6.419   9.143  11.571  0.2272 -2.1985  1.2838
27268SOL     OW91733   7.480  10.520   4.718  0.6430 -0.2139  0.2744
27268SOL    HW191734   7.516  10.504   4.806  0.6748  1.9971  0.7236
27268SOL    HW291735   7.488  10.436   4.674 -0.8988 -1.8734  2.8908
27269SOL     OW91736  12.766   8.274   7.928  0.2635 -0.0340 -0.4343
27269SOL    HW191737  12.682   8.228   7.931  0.8060 -1.0180  2.2290
27269SOL    HW291738  12.831   8.208   7.951  1.3847  1.3669  0.6438
27270SOL     OW91739   3.588  12.374  11.168  0.2171  0.4352  0.3606
27270SOL    HW191740   3.565  12.365  11.261  0.1491 -0.7248  0.2556
27270SOL    HW291741   3.507  12.355  11.121  0.5678 -0.3757  0.0554
27271SOL     OW91742  10.812  11.235   5.599 -0.1522 -0.0096 -0.0482
27271SOL    HW191743  10.848  11.196   5.519 -1.2695 -0.1796 -0.4732
27271SOL    HW291744  10.881  11.295   5.629 -0.0838  0.7477 -1.6246
27272SOL     OW91745   0.617  11.515   4.625  0.2137  0.1108 -0.1542
27272SOL    HW191746   0.598  11.442   4.684  0.7068  1.2996  1.5383
27272SOL    HW291747   0.531  11.547   4.597 -0.0946  0.4755  1.1526
27273SOL     OW91748   3.942   0.205   0.080 -0.2914  0.4159 -0.1258
27273SOL    HW191749   4.002   0.279   0.082 -0.0426  0.3801 -2.5590
27273SOL    HW291750   3.996   0.130   0.103  0.3192  0.5563 -1.0534
27274SOL     OW91751   7.532   1.980  12.279  0.4251 -0.0989 -0.3223
27274SOL    HW191752   7.514   2.038  12.353  1.1237  0.9201 -0.9124
27274SOL    HW291753   7.470   1.909  12.288  0.2543  0.1936  1.0396
27275SOL     OW91754   6.521   9.419   0.957 -0.1909 -0.0414 -0.0747
27275SOL    HW191755   6.474   9.472   1.021 -2.0377 -1.8105  0.1387
27275SOL    HW291756   6.521   9.331   0.994  3.2058 -0.2184 -0.1928
27276SOL     OW91757   4.566  11.962   6.739 -0.4849 -0.0209  0.5302
27276SOL    HW191758   4.554  11.898   6.668 -0.8912  0.8209 -0.1759
27276SOL    HW291759   4.523  12.041   6.707  1.1102  1.0180  0.8464
27277SOL     OW91760   2.183  12.152  12.588  0.6244 -0.3267  0.1802
27277SOL    HW191761   2.126  12.142  12.512 -0.1988  0.8578  0.5970
27277SOL    HW291762   2.246  12.219  12.562 -0.4606  1.0488  0.9303
27278SOL     OW91763   3.873   9.543  12.080 -0.0077 -0.0932  0.3391
27278SOL    HW191764   3.902   9.454  12.061 -0.4102 -0.1056 -0.2062
27278SOL    HW291765   3.955   9.592  12.094  0.2126 -0.5499  0.6874
27279SOL     OW91766  12.253  11.125   8.402 -0.1052  0.0142 -0.7154
27279SOL    HW191767  12.263  11.213   8.436 -1.0018  0.8269 -2.4180
27279SOL    HW291768  12.342  11.097   8.380  0.4401 -0.3626  1.7188
27280SOL     OW91769   3.723   1.465   0.767 -0.9600 -0.1813  0.0078
27280SOL    HW191770   3.721   1.401   0.839 -1.3205 -2.7657 -2.1513
27280SOL    HW291771   3.686   1.418   0.692 -0.1959  2.2360 -2.0240
27281SOL     OW91772  12.926   1.981   1.398  0.2928  0.0743 -0.0922
27281SOL    HW191773  12.940   1.896   1.442  1.2744  0.0291 -0.4546
27281SOL    HW291774  12.907   1.958   1.307 -1.4619  0.1801  0.2186
27282SOL     OW91775   1.327   1.478   3.878 -0.6583 -0.1848 -0.0034
27282SOL    HW191776   1.392   1.495   3.810 -0.7113 -1.9369 -0.5465
27282SOL    HW291777   1.362   1.521   3.956  1.0330 -0.8446 -0.3581
27283SOL     OW91778   7.350   8.422   2.108 -0.0452  0.3870  0.1454
27283SOL    HW191779   7.422   8.394   2.052 -0.4624  0.8024 -0.6188
27283SOL    HW291780   7.331   8.346   2.163 -0.8108 -0.6739 -1.5286
27284SOL     OW91781   6.591   1.595   2.236  0.2095  0.4510  0.6384
27284SOL    HW191782   6.610   1.659   2.167  0.8033 -1.9026 -1.5720
27284SOL    HW291783   6.673   1.547   2.247 -0.4388 -0.4909  1.5636
27285SOL     OW91784  11.534   0.838   4.041  0.0450  0.1587  0.1150
27285SOL    HW191785  11.545   0.933   4.033  0.6084  0.0659 -0.2650
27285SOL    HW291786  11.474   0.815   3.970 -0.0264  0.2200  0.1557
27286SOL     OW91787   6.335   8.867  12.061  0.1579  0.3061 -0.5257
27286SOL    HW191788   6.280   8.809  12.112 -0.3190  0.3605 -0.9683
27286SOL    HW291789   6.295   8.954  12.070  1.6585  0.8636  1.2785
27287SOL     OW91790   5.266   3.581   8.486 -0.1624  0.2814  0.5950
27287SOL    HW191791   5.346   3.634   8.478 -1.3076  1.8632 -1.8053
27287SOL    HW291792   5.196   3.642   8.466 -1.8209 -1.5454  0.5718
27288SOL     OW91793  10.899   7.120   0.197  0.0430 -0.1004 -0.4614
27288SOL    HW191794  10.975   7.161   0.156  0.0326  0.1999 -0.1869
27288SOL    HW291795  10.857   7.070   0.126  0.6745 -0.5349 -0.5409
27289SOL     OW91796   6.306  12.603  13.007 -0.5098 -0.1513  0.2582
27289SOL    HW191797   6.373  12.534  13.001 -1.4182 -1.0833  0.5650
27289SOL    HW291798   6.292  12.629  12.916  0.1811 -0.0097  0.1792
27290SOL     OW91799   2.586   9.477   9.672  0.0018 -0.2568 -0.1369
27290SOL    HW191800   2.664   9.474   9.726 -0.7986 -0.9497  1.0367
27290SOL    HW291801   2.567   9.386   9.652  0.1592 -0.0222 -1.4325
27291SOL     OW91802   0.671   8.366   9.256 -0.0350 -0.2164 -0.0956
27291SOL    HW191803   0.650   8.444   9.204 -2.4780 -0.7149  0.0319
27291SOL    HW291804   0.763   8.349   9.237 -0.4124  0.5139 -3.0482
27292SOL     OW91805   9.473   2.318   4.978 -0.3525 -0.0445  0.4955
27292SOL    HW191806   9.565   2.302   5.001 -0.4678 -0.1008  0.9217
27292SOL    HW291807   9.477   2.384   4.909  0.1674 -2.1977 -1.6731
27293SOL     OW91808   5.964   9.338   6.951 -0.2943 -0.5932  0.0405
27293SOL    HW191809   6.018   9.417   6.952  1.3890 -1.6477  2.1718
27293SOL    HW291810   5.879   9.366   6.984  0.2791  0.3749  0.7688
27294SOL     OW91811   3.754   6.966  12.561  1.2488 -0.1375  0.0739
27294SOL    HW191812   3.660   6.959  12.576  1.2000 -0.7138 -0.5031
27294SOL    HW291813   3.764   7.049  12.515  0.9996 -0.2002 -0.0939
27295SOL     OW91814   4.018   9.499   1.404 -0.1664 -0.0592  0.3311
27295SOL    HW191815   4.011   9.538   1.317  3.1237 -0.3863 -0.1920
27295SOL    HW291816   3.962   9.422   1.401  0.4710 -0.4961 -1.8040
27296SOL     OW91817   8.845  11.313   6.968 -0.4177  0.2396 -0.3196
27296SOL    HW191818   8.879  11.288   7.055  0.1684 -1.7699 -1.0735
27296SOL    HW291819   8.750  11.310   6.978 -0.3604  0.3731  0.3379
27297SOL     OW91820  12.970   4.705   7.658  0.6966  0.4208  0.4389
27297SOL    HW191821  12.895   4.680   7.604  1.7548 -1.2581 -0.3382
27297SOL    HW291822  13.004   4.784   7.616  0.2607  0.3372 -0.0866
27298SOL     OW91823  10.958   8.549   5.301  0.2904 -0.5084 -0.2707
27298SOL    HW191824  11.030   8.603   5.334 -0.8698  0.3872  0.8853
27298SOL    HW291825  10.985   8.459   5.319 -0.0357 -0.0902  2.7599
27299SOL     OW91826   9.254   1.950   6.043  0.7080  0.2377  0.0277
27299SOL    HW191827   9.193   2.020   6.021  1.6484  1.4114  0.9843
27299SOL    HW291828   9.221   1.874   5.996 -1.1909  0.9460  0.1342
27300SOL     OW91829   4.937   2.795   6.129  0.6054  0.3206 -0.1311
27300SOL    HW191830   4.943   2.814   6.223  1.5144  2.0807 -0.5073
27300SOL    HW291831   4.983   2.867   6.087  1.2653 -1.0741 -1.8989
27301SOL     OW91832  13.155   8.718   7.780 -0.3300 -0.3786  0.1278
27301SOL    HW191833  13.141   8.753   7.868  0.3144 -0.3896  0.2356
27301SOL    HW291834  13.099   8.772   7.724  0.9930  1.1605  0.2184
27302SOL     OW91835   7.481   4.135   5.471 -0.0186 -0.1179 -0.0191
27302SOL    HW191836   7.402   4.098   5.511  0.5140 -0.8722  0.3642
27302SOL    HW291837   7.449   4.186   5.397 -0.9451  0.3840  0.6990
27303SOL     OW91838   9.835  11.002   1.808 -0.2939  0.0325 -0.2864
27303SOL    HW191839   9.842  10.963   1.895  2.1070 -0.5826 -0.6789
27303SOL    HW291840   9.827  11.095   1.823  1.8583  0.1348  0.6706
27304SOL     OW91841   5.224   2.680   2.885  0.1363  0.5489  0.2960
27304SOL    HW191842   5.258   2.610   2.941  0.8435  1.0054  0.4507
27304SOL    HW291843   5.140   2.646   2.853  0.8565 -0.7077 -0.3144
27305SOL     OW91844   0.215   8.402   0.205 -0.5949 -0.2435  0.3988
27305SOL    HW191845   0.133   8.361   0.176  0.5648 -1.4134 -1.3630
27305SOL    HW291846   0.265   8.415   0.125  1.1097  0.1295  1.4833
27306SOL     OW91847   8.407  10.879   9.588  0.0200  0.6326  0.3478
27306SOL    HW191848   8.361  10.912   9.510  1.6929  0.8393 -0.5898
27306SOL    HW291849   8.363  10.796   9.607 -0.1046  0.3259 -1.1318
27307SOL     OW91850  12.669   6.268   9.033 -0.6288 -0.1558  0.5811
27307SOL    HW191851  12.757   6.238   9.059 -0.3371 -0.8777 -1.1546
27307SOL    HW291852  12.626   6.191   8.997 -1.9652  0.2190  1.3011
27308SOL     OW91853  10.622   7.894  10.370 -0.6970  0.4056 -0.2285
27308SOL    HW191854  10.690   7.856  10.314 -1.0733 -0.3680 -0.1725
27308SOL    HW291855  10.584   7.964  10.317  1.1289  1.8735  0.2933
27309SOL     OW91856   0.452   8.069   7.347 -0.0527 -0.2899  0.0791
27309SOL    HW191857   0.434   8.013   7.423  2.3297 -2.4931 -0.8225
27309SOL    HW291858   0.520   8.129   7.377 -0.5225  0.1791  0.2187
27310SOL     OW91859  12.007   5.817   8.774  0.2918 -0.2147 -0.3969
27310SOL    HW191860  11.956   5.750   8.729  1.4772 -1.3010 -0.1800
27310SOL    HW291861  12.014   5.889   8.710 -0.9041 -0.3127 -0.6664
27311SOL     OW91862   2.641  12.619   3.533  0.2876 -0.3417  0.3782
27311SOL    HW191863   2.622  12.532   3.498 -0.9657 -1.1342  2.7947
27311SOL    HW291864   2.725  12.643   3.494  0.6835 -2.6617 -0.3239
27312SOL     OW91865  13.077   2.297   4.742 -0.4759 -0.1022  0.9496
27312SOL    HW191866  13.069   2.376   4.796 -0.8943  1.6939 -1.5666
27312SOL    HW291867  13.028   2.230   4.791 -3.6473  2.2423  1.3341
27313SOL     OW91868  11.301   2.408   3.808  0.0663  0.0987  0.0865
27313SOL    HW191869  11.326   2.324   3.848  0.2218 -1.1685 -2.4437
27313SOL    HW291870  11.374   2.429   3.749 -0.4984  1.4413 -0.1654
27314SOL     OW91871   6.457   1.068   5.031  0.0469  0.5401 -0.4486
27314SOL    HW191872   6.497   1.155   5.036  0.4212  0.4476 -1.5860
27314SOL    HW291873   6.472   1.040   4.941  0.2123 -0.8503 -0.0084
27315SOL     OW91874  11.493   6.417   8.256  0.5836 -0.1269  0.0645
27315SOL    HW191875  11.451   6.451   8.334  0.3543 -4.3608  2.0536
27315SOL    HW291876  11.421   6.385   8.202  0.9073 -0.4266 -0.1937
27316SOL     OW91877  11.482  12.210   8.435  0.9695 -0.1390  0.1531
27316SOL    HW191878  11.430  12.197   8.514  0.2036  1.0963 -0.1210
27316SOL    HW291879  11.554  12.266   8.463 -0.0179  1.3883 -0.2642
27317SOL     OW91880  12.863   5.533   8.928  0.1119 -0.1276  0.2497
27317SOL    HW191881  12.906   5.470   8.986 -2.1646 -1.2816  0.7897
27317SOL    HW291882  12.793   5.571   8.981 -0.7979  0.2216 -1.1377
27318SOL     OW91883   9.499   7.326   4.252  0.0297 -0.0104 -0.7146
27318SOL    HW191884   9.495   7.397   4.188 -1.2226  0.9936  0.4216
27318SOL    HW291885   9.588   7.330   4.287  0.0746  0.7784 -0.9046
27319SOL     OW91886   2.761   7.774   7.881  0.0281  0.5308 -0.2159
27319SOL    HW191887   2.829   7.738   7.938 -0.3565  0.0181 -0.0753
27319SOL    HW291888   2.732   7.699   7.829 -0.2501  0.8063 -0.4568
27320SOL     OW91889   6.640   3.563   4.680  0.0973 -0.2615 -0.4115
27320SOL    HW191890   6.609   3.649   4.710 -0.9732  0.1568 -2.5689
27320SOL    HW291891   6.658   3.575   4.587  1.0253 -2.1118 -0.5082
27321SOL     OW91892   6.131   2.163   0.100  0.3571  0.4038 -0.0893
27321SOL    HW191893   6.132   2.140   0.193  1.6836 -0.0090 -0.1782
27321SOL    HW291894   6.145   2.080   0.055 -0.7543  0.5279 -0.6912
27322SOL     OW91895   9.705   0.701   1.122 -0.1914 -0.4638  0.3898
27322SOL    HW191896   9.781   0.751   1.150 -1.4912  1.3564  0.8713
27322SOL    HW291897   9.733   0.655   1.042  0.8143  1.8062 -0.6306
27323SOL     OW91898   9.321  12.541   5.339 -0.2199  0.0545  0.0082
27323SOL    HW191899   9.282  12.567   5.422  0.5791 -0.0130  0.4077
27323SOL    HW291900   9.324  12.622   5.288 -0.8194  0.0714 -0.0065
27324SOL     OW91901   9.191   8.036   2.601  0.2185  0.3280  0.0322
27324SOL    HW191902   9.174   8.048   2.508  1.2372  0.0484 -0.2032
27324SOL    HW291903   9.145   8.109   2.644 -0.0010  0.6321 -0.7097
27325SOL     OW91904   3.555   6.912   9.980  0.0058  0.1431  0.5298
27325SOL    HW191905   3.604   6.988   9.950 -1.8212  1.2072  0.0733
27325SOL    HW291906   3.545   6.857   9.902 -0.4761  0.4682  0.3626
27326SOL     OW91907   9.678  11.017   3.991  0.2269 -0.0095 -0.3697
27326SOL    HW191908   9.621  11.055   3.924  1.0751  0.3661 -0.8935
27326SOL    HW291909   9.630  11.029   4.073 -0.1693  0.8453 -0.7197
27327SOL     OW91910   3.958   2.862   0.561 -0.2896  0.4553  0.4049
27327SOL    HW191911   4.014   2.936   0.583  2.4384 -0.9540 -1.2843
27327SOL    HW291912   3.976   2.797   0.629  0.8626 -0.3059 -0.5778
27328SOL     OW91913   6.502   5.934   2.938  0.0428 -0.1629  0.2616
27328SOL    HW191914   6.417   5.968   2.967 -0.3564 -1.2898  0.4628
27328SOL    HW291915   6.566   5.991   2.980 -0.6055  0.5281  0.3322
27329SOL     OW91916   4.050   4.242  11.241  0.0603  0.2776 -0.4942
27329SOL    HW191917   3.957   4.234  11.263  0.1340  0.7346 -0.0117
27329SOL    HW291918   4.095   4.246  11.325  0.8845 -3.4920 -0.5575
27330SOL     OW91919   9.042  10.886   1.611  0.0072 -0.0389  0.1892
27330SOL    HW191920   8.949  10.870   1.621  0.0469 -0.9011 -0.7016
27330SOL    HW291921   9.083  10.830   1.677 -0.1445  1.7149  1.8755
27331SOL     OW91922  12.384   5.079   3.075  0.0524  0.4966  0.1782
27331SOL    HW191923  12.321   5.143   3.107 -0.9880 -0.8815  1.0022
27331SOL    HW291924  12.441   5.128   3.016  0.5673  2.6093  2.2989
27332SOL     OW91925   7.210  10.986  12.004  0.1283 -0.1717 -0.3004
27332SOL    HW191926   7.208  11.068  11.955 -0.1453  0.4386  0.6916
27332SOL    HW291927   7.139  10.934  11.968  0.8273 -0.3207 -1.5042
27333SOL     OW91928   4.437   4.523   6.620  0.3299  0.3285 -0.9304
27333SOL    HW191929   4.344   4.503   6.628 -0.8356  4.3290 -1.8614
27333SOL    HW291930   4.463   4.481   6.538 -0.7648 -0.4165 -0.9215
27334SOL     OW91931  12.120  12.777   4.282 -0.6145 -0.2976  0.1385
27334SOL    HW191932  12.078  12.859   4.306 -0.7012 -0.3951  0.3187
27334SOL    HW291933  12.071  12.709   4.329 -0.4746 -0.4424  0.0794
27335SOL     OW91934  10.906   5.635   3.390 -0.4833  0.0563  0.1412
27335SOL    HW191935  10.925   5.711   3.335  0.1548 -0.1581  0.0677
27335SOL    HW291936  10.813   5.645   3.412 -0.5390  0.5721 -0.3052
27336SOL     OW91937  13.003   5.671   9.982  0.0771  0.7575 -0.5146
27336SOL    HW191938  12.977   5.710  10.065  2.4712  0.3238  0.5166
27336SOL    HW291939  12.934   5.607   9.963  0.2900 -0.3370  2.0124
27337SOL     OW91940   4.297  10.329   7.731 -0.2352  0.4320 -0.8687
27337SOL    HW191941   4.228  10.388   7.763  0.5367  0.0698  1.6314
27337SOL    HW291942   4.377  10.380   7.738  0.0769  0.0321 -1.4616
27338SOL     OW91943   5.165   7.074   5.547  0.5492  0.5061  0.7412
27338SOL    HW191944   5.192   7.074   5.639  0.6495  1.2219  0.7179
27338SOL    HW291945   5.164   7.166   5.522 -2.4386  0.5969  0.8776
27339SOL     OW91946   9.762   7.725  12.738 -0.1770 -0.3997 -0.0372
27339SOL    HW191947   9.686   7.670  12.721  0.3475 -1.6341  1.4254
27339SOL    HW291948   9.833   7.685  12.688 -0.4110  0.6652 -1.2824
27340SOL     OW91949   4.188   7.086   5.609  0.0862  0.2713 -0.1393
27340SOL    HW191950   4.147   7.159   5.562  0.6847  0.7819  0.1341
27340SOL    HW291951   4.116   7.046   5.658  0.0243  1.6128  0.9204
27341SOL     OW91952   4.160  12.880   8.393 -0.7486  0.0382 -0.4320
27341SOL    HW191953   4.179  12.819   8.322 -0.4392 -0.1831 -0.1669
27341SOL    HW291954   4.083  12.928   8.365  0.2688  1.0442 -1.6228
27342SOL     OW91955   9.124   9.129   7.759  0.0093 -0.1762 -0.5320
27342SOL    HW191956   9.152   9.175   7.838 -2.4361  1.8644 -0.7302
27342SOL    HW291957   9.191   9.150   7.694  0.6792  0.3044  0.2831
27343SOL     OW91958   6.045   6.068   8.538 -0.2594  0.1839 -0.2127
27343SOL    HW191959   5.996   6.045   8.617  0.9122  1.4113  0.9117
27343SOL    HW291960   6.097   5.991   8.518  0.1125  0.1737  0.7617
27344SOL     OW91961   1.588  12.167  11.803  0.3524  0.1089  0.0500
27344SOL    HW191962   1.621  12.244  11.757  1.3598  0.5526  1.4319
27344SOL    HW291963   1.626  12.174  11.891 -1.7831 -0.5104  1.0745
27345SOL     OW91964  12.228  11.215   5.191 -0.3598  0.0423  0.3249
27345SOL    HW191965  12.188  11.251   5.270 -0.1137 -2.5812  1.7529
27345SOL    HW291966  12.322  11.229   5.202 -0.4438  1.4239 -0.4899
27346SOL     OW91967   9.626   1.634   0.124 -0.0094 -0.1709 -0.4961
27346SOL    HW191968   9.713   1.665   0.150  0.4572  0.1535 -2.2915
27346SOL    HW291969   9.572   1.645   0.202  1.5509 -0.4045  0.6806
27347SOL     OW91970   4.045  12.285  12.075 -0.2928  0.0613  0.6310
27347SOL    HW191971   4.134  12.271  12.040 -0.6192  1.1086 -0.7063
27347SOL    HW291972   4.008  12.352  12.018 -2.1148 -0.6810  0.8950
27348SOL     OW91973   5.025   2.623   6.854  0.1291  0.0720 -0.3756
27348SOL    HW191974   4.981   2.708   6.852  0.8940  0.4998 -2.5691
27348SOL    HW291975   4.954   2.559   6.844 -0.1760  0.7052 -3.0408
27349SOL     OW91976  11.164   7.190   8.045 -0.5993  0.3357  0.1632
27349SOL    HW191977  11.108   7.228   8.112  1.6880  2.6447  0.9074
27349SOL    HW291978  11.117   7.205   7.963 -0.9667  2.5417  0.7275
27350SOL     OW91979   0.187   7.362   8.257 -0.3110 -0.0176 -0.0577
27350SOL    HW191980   0.237   7.433   8.217  0.0282 -0.7507 -0.9775
27350SOL    HW291981   0.111   7.405   8.295  0.8306  1.0705  1.0710
27351SOL     OW91982   8.764   6.026  12.281  0.1821 -0.0919 -0.3117
27351SOL    HW191983   8.776   5.952  12.222 -0.2452  0.2671 -0.8629
27351SOL    HW291984   8.670   6.029  12.297  0.4826 -1.5673  2.2423
27352SOL     OW91985   0.680   2.232   8.514  0.5806  0.0579  0.1579
27352SOL    HW191986   0.750   2.297   8.505  1.0417 -0.6029 -1.3315
27352SOL    HW291987   0.710   2.157   8.463 -0.0913 -1.2202  1.5797
27353SOL     OW91988   7.345   7.316   5.495  0.6617 -0.6836  0.1131
27353SOL    HW191989   7.304   7.305   5.581  1.6062 -1.7360  0.4567
27353SOL    HW291990   7.439   7.321   5.514  0.8490 -0.5411 -0.8235
27354SOL     OW91991   8.810  11.006  10.629  0.2519  0.4703 -0.0357
27354SOL    HW191992   8.809  11.087  10.681 -1.1329  0.5440 -0.1372
27354SOL    HW291993   8.899  11.002  10.593  0.6877  1.3518  0.8826
27355SOL     OW91994   0.024   7.674   8.103 -0.7744  0.0541 -0.1525
27355SOL    HW191995   0.015   7.734   8.029 -0.1557  0.7697  0.3403
27355SOL    HW291996   0.113   7.639   8.095 -1.1851 -0.9327 -0.5277
27356SOL     OW91997   9.999   7.061  11.123 -0.2765  0.4157 -0.3224
27356SOL    HW191998  10.093   7.078  11.115 -0.2598 -0.4718 -3.3469
27356SOL    HW291999   9.958   7.134  11.075 -0.9531 -0.4455 -1.0899
27357SOL     OW92000   1.762   0.927   5.824 -0.0728  0.0755 -0.6804
27357SOL    HW192001   1.789   0.991   5.757  0.5321 -1.5233 -2.0273
27357SOL    HW292002   1.836   0.924   5.885  0.6721 -0.5849 -1.5842
27358SOL     OW92003   1.854  11.370   6.562  0.0718  0.1412  0.1925
27358SOL    HW192004   1.812  11.444   6.605  2.2873  1.3740  0.3826
27358SOL    HW292005   1.809  11.293   6.596 -1.2756  1.3100  1.1555
27359SOL     OW92006   4.923  12.250   7.530 -0.3287 -0.5088  0.0066
27359SOL    HW192007   5.001  12.289   7.491  0.7182 -1.6649  0.8619
27359SOL    HW292008   4.870  12.222   7.456  1.0382 -1.5350 -0.6409
27360SOL     OW92009   8.613  10.512  13.243  0.1511 -0.2046 -0.6565
27360SOL    HW192010   8.539  10.558  13.282  0.7946  1.3343 -1.1988
27360SOL    HW292011   8.595  10.513  13.149  0.9458  0.3568 -0.8087
27361SOL     OW92012   2.180   8.184   4.309  0.2159  0.1770 -0.3270
27361SOL    HW192013   2.132   8.220   4.383 -0.4093 -1.6612  0.2232
27361SOL    HW292014   2.113   8.157   4.246  0.6716  0.2610 -0.8624
27362SOL     OW92015   3.518   7.463   7.992 -0.1183 -0.4278  0.2344
27362SOL    HW192016   3.489   7.375   7.967 -0.4154 -0.0173 -0.9485
27362SOL    HW292017   3.567   7.494   7.915 -0.1741  0.5015  0.5693
27363SOL     OW92018   9.118   6.560  11.007  0.4468 -0.7470  0.2801
27363SOL    HW192019   9.111   6.578  11.101  1.4786  0.4638  0.1407
27363SOL    HW292020   9.192   6.499  11.000  1.8121  0.8550  0.0960
27364SOL     OW92021   3.478  11.287   7.605  0.1972  0.1473  0.5335
27364SOL    HW192022   3.516  11.375   7.612 -1.0883  0.8298 -0.4948
27364SOL    HW292023   3.463  11.260   7.696 -1.1261  1.8156  0.8787
27365SOL     OW92024   5.486  12.955  12.933  0.1795 -0.4241  0.4961
27365SOL    HW192025   5.423  13.026  12.918  1.5400  0.8829  0.7167
27365SOL    HW292026   5.454  12.883  12.879 -0.9408  0.5466 -0.1912
27366SOL     OW92027   9.637   0.570   8.744 -0.0889  0.6442 -0.3568
27366SOL    HW192028   9.716   0.606   8.704  0.4283  1.2389  1.1352
27366SOL    HW292029   9.639   0.477   8.722 -0.9106  1.2090 -3.4028
27367SOL     OW92030   9.707  12.786  11.227 -0.1068 -0.4546 -0.2568
27367SOL    HW192031   9.625  12.738  11.215  0.3671 -1.4372  0.2963
27367SOL    HW292032   9.773  12.718  11.241  0.7122  0.3384 -0.1546
27368SOL     OW92033   5.058  12.131   0.427  0.0047 -0.1868 -0.0533
27368SOL    HW192034   5.098  12.159   0.509  0.3164 -1.4572  0.2449
27368SOL    HW292035   4.975  12.090   0.453  0.3874 -1.1522 -0.2902
27369SOL     OW92036  11.620   8.342  10.132  0.2398 -0.5660  0.9366
27369SOL    HW192037  11.691   8.323  10.193  0.1349  0.5343  1.4236
27369SOL    HW292038  11.638   8.431  10.101  0.7967 -1.4168 -1.3660
27370SOL     OW92039   8.301  11.195   9.641  0.2368  0.0402  0.0368
27370SOL    HW192040   8.390  11.160   9.635  0.3105  0.3020 -0.4095
27370SOL    HW292041   8.299  11.269   9.580 -0.6032 -0.6391 -0.8010
27371SOL     OW92042   5.027   0.663   1.384  0.0287 -0.3589 -0.0460
27371SOL    HW192043   5.000   0.578   1.350  0.8033 -0.1531 -1.2595
27371SOL    HW292044   5.102   0.688   1.329 -0.8665  1.6099 -0.4704
27372SOL     OW92045   9.184   8.994   8.074  0.4814 -0.3261 -0.0080
27372SOL    HW192046   9.093   8.976   8.050  0.4875 -0.2171 -0.1126
27372SOL    HW292047   9.179   9.035   8.161  0.4002  0.0974 -0.2108
27373SOL     OW92048  12.954   2.873  11.139 -0.3871 -0.4072 -0.3036
27373SOL    HW192049  12.902   2.796  11.162 -1.6469  0.3929 -0.3751
27373SOL    HW292050  12.897   2.925  11.082  1.5900 -0.9111 -2.9283
27374SOL     OW92051   6.677   6.564   1.390 -0.0176 -0.3129 -0.2947
27374SOL    HW192052   6.752   6.534   1.338 -0.0998 -0.2154 -0.4713
27374SOL    HW292053   6.643   6.485   1.432  0.8926 -0.1932  0.7191
27375SOL     OW92054   4.688   8.409  13.241  0.1322 -0.1987  0.2947
27375SOL    HW192055   4.618   8.465  13.207 -0.8428 -1.1067  0.7322
27375SOL    HW292056   4.685   8.422  13.336  0.2788 -0.5528  0.3493
27376SOL     OW92057   3.386   8.013  12.901  1.0264 -0.3297  0.4316
27376SOL    HW192058   3.422   7.972  12.822  0.4250 -1.8448  0.9090
27376SOL    HW292059   3.306   7.963  12.919  2.3014 -1.5609  3.2896
27377SOL     OW92060  11.228  10.377  12.249  0.2465 -0.4271  0.0291
27377SOL    HW192061  11.170  10.377  12.172  1.3407  3.7234 -1.0709
27377SOL    HW292062  11.315  10.392  12.213  1.2213 -1.0534  1.9861
27378SOL     OW92063   6.566   3.913   5.480 -0.4283 -0.6186  0.2163
27378SOL    HW192064   6.495   3.920   5.545  0.2333  0.8580  0.8269
27378SOL    HW292065   6.521   3.894   5.398 -2.0179  3.6032 -0.1337
27379SOL     OW92066   1.685   5.835   3.837  0.9778 -0.4553 -0.1554
27379SOL    HW192067   1.638   5.851   3.918  1.3190 -0.0442 -0.0398
27379SOL    HW292068   1.627   5.868   3.768  0.9431 -0.2717 -0.0384
27380SOL     OW92069   5.808   0.257   9.370 -0.1347  0.0290 -0.4602
27380SOL    HW192070   5.894   0.298   9.377 -1.2812  3.0052 -1.7694
27380SOL    HW292071   5.824   0.174   9.325  2.0035  0.7040 -1.0493
27381SOL     OW92072  10.864  13.066   8.828  0.1292 -0.6277 -0.1636
27381SOL    HW192073  10.852  13.062   8.923 -2.2946 -1.2880 -0.4106
27381SOL    HW292074  10.945  13.114   8.816 -0.3217  0.9386  2.2360
27382SOL     OW92075   3.928   1.690   5.016  0.3181  0.2981  0.0119
27382SOL    HW192076   4.019   1.663   5.026  0.5428  0.9004 -0.3259
27382SOL    HW292077   3.908   1.737   5.097 -0.0712 -0.8550  0.5957
27383SOL     OW92078   2.194   6.021  11.255  0.0974 -0.1900  0.0761
27383SOL    HW192079   2.146   6.039  11.336  0.5631 -1.2365  0.5994
27383SOL    HW292080   2.148   5.948  11.215  1.1529 -1.1335  0.5273
27384SOL     OW92081   7.670   3.266   3.925  0.2682  0.0030  0.7362
27384SOL    HW192082   7.583   3.299   3.948  0.6391  1.8323 -0.3157
27384SOL    HW292083   7.657   3.219   3.843  0.1597 -0.3919  0.9750
27385SOL     OW92084  13.309  11.234   6.395  0.7397  0.3317  0.1881
27385SOL    HW192085  13.266  11.319   6.396  0.5342  0.2300  1.0463
27385SOL    HW292086  13.338  11.222   6.305  0.3323  1.0886 -0.0470
27386SOL     OW92087   9.806   2.530   5.431  0.1252 -0.0363  0.3420
27386SOL    HW192088   9.886   2.577   5.454  1.3110 -1.8733  0.1997
27386SOL    HW292089   9.821   2.440   5.461 -2.3045 -0.2420  1.2121
27387SOL     OW92090   4.831   0.407   4.710 -0.1907  0.2568  0.0303
27387SOL    HW192091   4.912   0.445   4.676 -0.1947  0.0885 -0.1659
27387SOL    HW292092   4.796   0.474   4.768  0.8153 -0.1969  1.2214
27388SOL     OW92093   3.288  12.441   6.383  0.1660  0.1276 -0.2948
27388SOL    HW192094   3.221  12.501   6.417  0.4294 -0.1468  0.7600
27388SOL    HW292095   3.317  12.481   6.301 -0.2313  1.0268 -0.0084
27389SOL     OW92096  11.791   2.157   3.117  0.0626  0.3862 -0.2511
27389SOL    HW192097  11.696   2.149   3.116  0.0225  0.9203 -0.7986
27389SOL    HW292098  11.817   2.150   3.026  0.7161 -1.4606  0.0149
27390SOL     OW92099   1.310   8.546   4.246 -0.4321 -0.4748  0.4193
27390SOL    HW192100   1.382   8.610   4.244 -1.3601  0.6637  1.9446
27390SOL    HW292101   1.353   8.463   4.267  0.6879 -0.2430 -0.7905
27391SOL     OW92102   6.923   8.518   6.383  0.2999 -0.3896 -0.3531
27391SOL    HW192103   6.953   8.428   6.367  1.6502  0.1007 -0.7478
27391SOL    HW292104   6.844   8.527   6.330 -0.1201 -1.4925  0.0659
27392SOL     OW92105  12.931   6.224   1.091  0.2145  0.1022  0.2461
27392SOL    HW192106  12.928   6.131   1.069 -0.0576 -0.1830  1.3727
27392SOL    HW292107  12.967   6.267   1.014 -0.3795 -0.8453 -0.5849
27393SOL     OW92108   1.401  11.280  10.682  0.5334 -0.0642  0.3045
27393SOL    HW192109   1.411  11.355  10.624  1.2198 -0.8793 -0.6635
27393SOL    HW292110   1.353  11.315  10.757  1.1742  1.4434  0.0706
27394SOL     OW92111  12.250   2.684   4.461  0.4451 -0.2081 -0.8262
27394SOL    HW192112  12.314   2.615   4.443  0.4913 -1.0802  2.1690
27394SOL    HW292113  12.167   2.638   4.472  0.4757  0.1471  1.2097
27395SOL     OW92114   7.691   0.310   2.561 -0.0925  0.4870 -0.0590
27395SOL    HW192115   7.738   0.314   2.477  0.2811 -0.6352  0.0869
27395SOL    HW292116   7.747   0.359   2.621  0.3721  0.0433 -0.1269
27396SOL     OW92117  11.674  12.742   5.490  0.6142  0.3298 -0.0797
27396SOL    HW192118  11.684  12.803   5.563  0.1478 -0.9778  1.1268
27396SOL    HW292119  11.739  12.674   5.507  0.5618  0.0591 -0.9392
27397SOL     OW92120   2.842   8.314   7.335  0.3117 -0.0932  0.4582
27397SOL    HW192121   2.827   8.265   7.415  0.0696 -1.5085 -0.4249
27397SOL    HW292122   2.849   8.248   7.267 -0.8285  1.1137 -0.9156
27398SOL     OW92123  10.218   5.091  11.340 -0.3794  0.4434  0.4180
27398SOL    HW192124  10.274   5.091  11.417  0.9547  1.4462 -0.4984
27398SOL    HW292125  10.214   4.999  11.313 -0.8875  0.0777  1.6604
27399SOL     OW92126  12.243   4.280  10.450  0.1488  0.0816 -0.2349
27399SOL    HW192127  12.283   4.227  10.518  0.2356 -0.1480 -0.4672
27399SOL    HW292128  12.157   4.240  10.436 -0.7643  1.3760  1.2412
27400SOL     OW92129   8.276   4.782   1.337  0.0022 -0.3373 -0.2272
27400SOL    HW192130   8.263   4.689   1.316  1.4210 -0.5476 -0.2937
27400SOL    HW292131   8.350   4.808   1.282  1.5379  0.0310  1.8901
27401SOL     OW92132   3.085   3.050   3.211 -0.1458 -0.6774  0.3969
27401SOL    HW192133   3.101   3.014   3.124  0.4756 -2.1116  1.0861
27401SOL    HW292134   3.008   3.002   3.244  1.7242 -2.7559  2.0150
27402SOL     OW92135   3.745   6.479   9.424  0.3007  0.5124  0.0109
27402SOL    HW192136   3.780   6.397   9.390  1.1453  0.0707  1.8157
27402SOL    HW292137   3.668   6.453   9.475  1.4582  0.5861  1.8910
27403SOL     OW92138   1.904  11.311   4.942  0.5372 -0.6288 -0.2039
27403SOL    HW192139   1.966  11.343   5.008  0.4057 -1.7192  0.4671
27403SOL    HW292140   1.939  11.343   4.859  1.1556  0.0658  0.3063
27404SOL     OW92141   3.494  12.726   8.606 -0.5370 -0.1073  0.2140
27404SOL    HW192142   3.510  12.812   8.568  1.6783 -0.3021  0.5754
27404SOL    HW292143   3.512  12.737   8.699 -0.6760 -0.8626  0.3367
27405SOL     OW92144  12.867   9.207   4.435 -0.2310  0.5207 -0.3178
27405SOL    HW192145  12.872   9.302   4.450  0.0525  0.5668 -0.6715
27405SOL    HW292146  12.840   9.199   4.343  0.6490  0.2670 -0.5644
27406SOL     OW92147   3.485   4.208   4.304 -0.5704  0.0212  0.5429
27406SOL    HW192148   3.396   4.243   4.296 -0.4497  0.6276  1.6876
27406SOL    HW292149   3.542   4.284   4.290 -0.0906 -0.7866 -2.7672
27407SOL     OW92150  13.127   2.963   9.850 -0.1347  0.3145  0.5935
27407SOL    HW192151  13.177   2.944   9.929  0.1854  0.4733  0.4298
27407SOL    HW292152  13.036   2.945   9.875 -0.2979  2.2547  1.6404
27408SOL     OW92153   4.338  10.416  10.827 -0.1408 -0.5816 -0.1548
27408SOL    HW192154   4.375  10.363  10.757  0.8345 -0.2252  0.0734
27408SOL    HW292155   4.313  10.498  10.784  0.3918 -0.3910 -0.1187
27409SOL     OW92156   2.119  11.949  10.081  0.3758  0.0086 -0.2970
27409SOL    HW192157   2.149  11.896  10.007 -1.2348  0.1962 -1.1390
27409SOL    HW292158   2.103  12.035  10.043 -1.0527 -0.0483  0.1093
27410SOL     OW92159   5.495   0.650   1.698 -0.3153 -0.0344 -0.2886
27410SOL    HW192160   5.466   0.609   1.617  2.4602 -0.4456 -1.1914
27410SOL    HW292161   5.494   0.744   1.678 -0.6181 -0.0693 -0.4433
27411SOL     OW92162   1.834   7.102   7.979  0.5619 -0.7931 -0.1158
27411SOL    HW192163   1.755   7.152   7.995  1.5178  0.7678 -0.0213
27411SOL    HW292164   1.806   7.011   7.977 -1.1131 -0.3132  0.5258
27412SOL     OW92165   9.666   7.449   0.403 -0.3834  0.3131 -0.2647
27412SOL    HW192166   9.640   7.449   0.496  1.5289  0.7796  0.3150
27412SOL    HW292167   9.720   7.528   0.394  1.7419 -1.1585 -1.0678
27413SOL     OW92168  11.247   0.648  10.670 -0.6501  0.1165 -0.1082
27413SOL    HW192169  11.342   0.639  10.682 -0.5436 -1.2249 -1.7046
27413SOL    HW292170  11.223   0.720  10.729  1.6227  1.6882 -0.9439
27414SOL     OW92171   6.059   6.197   7.832 -0.3499 -0.2030 -0.0915
27414SOL    HW192172   6.058   6.113   7.785 -1.5246 -0.7950  0.9438
27414SOL    HW292173   6.135   6.191   7.890 -1.5576 -1.3921  1.4125
27415SOL     OW92174   9.777   3.790   5.796 -0.5701 -0.3736  0.1570
27415SOL    HW192175   9.830   3.717   5.827  1.6570  1.0114 -0.0990
27415SOL    HW292176   9.744   3.761   5.711 -1.1902 -1.6977  0.8238
27416SOL     OW92177   2.436   9.352  12.118  0.6388  0.4711  0.0230
27416SOL    HW192178   2.521   9.317  12.145 -0.0117 -0.0102  1.5086
27416SOL    HW292179   2.387   9.275  12.090  0.5516  0.7054 -0.4790
27417SOL     OW92180  12.377   0.176   1.712  0.2096  0.3197 -0.1821
27417SOL    HW192181  12.348   0.087   1.733  0.9108  0.9469  4.5223
27417SOL    HW292182  12.472   0.171   1.714  0.2483  1.2158  0.3840
27418SOL     OW92183   0.207   1.797  10.575  0.1346  0.0053 -0.0188
27418SOL    HW192184   0.260   1.721  10.601  0.6050  1.0943  2.5646
27418SOL    HW292185   0.125   1.759  10.543  0.9825 -1.6159 -0.3990
27419SOL     OW92186  12.572  12.781   0.366 -0.0856 -0.4229  0.0382
27419SOL    HW192187  12.478  12.797   0.374  0.0829  0.0534  1.2241
27419SOL    HW292188  12.597  12.828   0.286 -0.7732 -0.1740 -0.0412
27420SOL     OW92189   9.380   1.480  11.905 -0.2465 -0.1412  0.1150
27420SOL    HW192190   9.421   1.464  11.990 -0.6345  1.4114  0.6234
27420SOL    HW292191   9.291   1.508  11.926 -0.1917  0.7605 -0.7589
27421SOL     OW92192  13.262  12.802   9.305 -0.2172 -0.5929 -0.4098
27421SOL    HW192193  13.279  12.769   9.393 -0.0085  0.6200  0.0243
27421SOL    HW292194  13.235  12.725   9.255 -0.9846 -1.1800  0.8721
27422SOL     OW92195   4.857  10.376   8.427 -0.2308 -0.1112 -0.0692
27422SOL    HW192196   4.857  10.451   8.487  1.5099  1.3617 -1.7847
27422SOL    HW292197   4.876  10.300   8.483 -1.4112  0.7660  1.6208
27423SOL     OW92198   0.869  10.637   7.570  0.8166 -0.3205  0.0955
27423SOL    HW192199   0.776  10.635   7.549  0.7988 -0.9784  0.2381
27423SOL    HW292200   0.879  10.573   7.641  1.0867  0.9415  1.2457
27424SOL     OW92201   3.646   6.888  10.598 -0.2364 -0.1296 -0.0264
27424SOL    HW192202   3.696   6.892  10.679 -0.8878  1.1160  0.3406
27424SOL    HW292203   3.554   6.885  10.626 -0.4607  0.0747 -0.7119
27425SOL     OW92204   7.559   3.453   1.673 -0.5880 -0.8504  0.2325
27425SOL    HW192205   7.484   3.440   1.730  0.4779 -1.6001  1.5451
27425SOL    HW292206   7.628   3.487   1.731  0.7177 -2.1804 -0.4617
27426SOL     OW92207   2.726   2.448   1.041 -0.3854 -0.3176 -0.2053
27426SOL    HW192208   2.796   2.509   1.066 -1.7350  0.9740  0.6060
27426SOL    HW292209   2.735   2.376   1.103  0.5713 -0.4445 -0.4719
27427SOL     OW92210   4.432   1.124   8.561  0.0907 -0.0544 -0.3571
27427SOL    HW192211   4.356   1.175   8.533  1.3988  1.6546 -0.9646
27427SOL    HW292212   4.411   1.096   8.650 -0.2148  2.5873  0.4794
27428SOL     OW92213   1.620   1.363   4.381  0.9686 -0.1778  0.0919
27428SOL    HW192214   1.537   1.352   4.334  1.1920  2.3887 -1.1186
27428SOL    HW292215   1.669   1.284   4.362 -0.4992 -0.9486 -0.7093
27429SOL     OW92216  11.221   4.590   9.808 -0.5820  0.4281 -0.1551
27429SOL    HW192217  11.211   4.540   9.889 -0.3720 -0.8079 -0.8712
27429SOL    HW292218  11.191   4.531   9.739  0.0301  1.1523 -1.0700
27430SOL     OW92219  11.796  11.959   3.703 -0.1611  0.2094 -0.3786
27430SOL    HW192220  11.774  11.891   3.767 -0.7151  2.0751  1.5107
27430SOL    HW292221  11.792  11.913   3.618 -1.0671 -1.9671  0.7413
27431SOL     OW92222   7.520   9.668   7.007  0.0726  0.2517  0.1527
27431SOL    HW192223   7.539   9.703   7.094  1.5401 -0.3425  0.0920
27431SOL    HW292224   7.464   9.735   6.967  0.4556  1.1558  1.0643
27432SOL     OW92225   3.679   5.432   1.885 -0.3812  0.3382 -0.0221
27432SOL    HW192226   3.640   5.520   1.881 -0.4119  0.2856 -1.3034
27432SOL    HW292227   3.754   5.436   1.825  0.5966 -0.0598  1.1304
27433SOL     OW92228   6.602   1.067   7.656  0.5620  0.0610  0.2134
27433SOL    HW192229   6.612   0.977   7.687  0.4764  0.3812  1.2328
27433SOL    HW292230   6.521   1.098   7.698 -0.1118  0.2226 -1.1342
27434SOL     OW92231   2.931  11.405   3.481 -0.6778  0.1620  0.5971
27434SOL    HW192232   2.985  11.428   3.557  2.4355 -0.0457 -1.3665
27434SOL    HW292233   2.920  11.487   3.433 -0.0307 -0.2050 -0.2067
27435SOL     OW92234   5.415  12.775  12.746  0.4693 -0.4040 -0.4522
27435SOL    HW192235   5.440  12.768  12.654 -1.0251 -1.8175 -0.7859
27435SOL    HW292236   5.320  12.777  12.746  0.4344  1.3398  0.9918
27436SOL     OW92237   7.260   7.201  13.052 -0.2630  0.1692 -0.4512
27436SOL    HW192238   7.303   7.124  13.015  0.5317  0.3284  0.1104
27436SOL    HW292239   7.259   7.185  13.146 -0.0646  0.8549 -0.3293
27437SOL     OW92240   8.661   0.125   4.030 -0.2669  0.3216 -0.5273
27437SOL    HW192241   8.610   0.047   4.008  0.2232 -0.5594  1.2570
27437SOL    HW292242   8.705   0.103   4.112 -0.2142  2.5388  0.1181
27438SOL     OW92243   3.352   7.878   2.890  0.1626 -0.1692 -0.1465
27438SOL    HW192244   3.347   7.791   2.930 -0.5509 -0.6151 -1.1648
27438SOL    HW292245   3.343   7.938   2.964 -1.2426 -0.9679  0.3684
27439SOL     OW92246   8.726   2.956   7.693 -0.4391 -0.0397  0.2086
27439SOL    HW192247   8.653   2.978   7.751 -0.2493  0.9301  0.0991
27439SOL    HW292248   8.697   2.877   7.647 -1.6306  0.6040 -0.1867
27440SOL     OW92249   8.158   7.299  12.995  0.0684 -0.2686  0.0093
27440SOL    HW192250   8.073   7.327  13.028 -1.2949 -1.7800 -1.9525
27440SOL    HW292251   8.160   7.205  13.011  1.5209 -0.2212  0.2582
27441SOL     OW92252   8.570   4.579  11.447 -0.1356  0.2563  0.1190
27441SOL    HW192253   8.576   4.598  11.353  0.7313 -0.0233  0.1143
27441SOL    HW292254   8.565   4.665  11.488  1.9852  0.4954 -0.0246
27442SOL     OW92255   7.502  12.164   8.488  0.1253  0.2272 -0.1903
27442SOL    HW192256   7.447  12.102   8.441  0.7324  0.4986 -1.3056
27442SOL    HW292257   7.502  12.243   8.433  2.2541 -0.0398 -0.6769
27443SOL     OW92258  12.419   5.787  13.109  0.2226  0.2222  0.7703
27443SOL    HW192259  12.513   5.806  13.105  0.2109  0.2658  0.6971
27443SOL    HW292260  12.413   5.702  13.152  0.3070  0.1149  0.5694
27444SOL     OW92261   8.557  11.307   5.430  0.2902  0.0120 -0.1061
27444SOL    HW192262   8.532  11.264   5.348  0.3283  1.1630 -0.7552
27444SOL    HW292263   8.646  11.277   5.447  0.7403  0.6814 -1.1566
27445SOL     OW92264   0.541   6.940   1.882 -0.1750  0.2459  0.2994
27445SOL    HW192265   0.608   6.969   1.820 -1.1612  2.6031  0.2231
27445SOL    HW292266   0.582   6.951   1.968  0.1201  0.0065  0.1906
27446SOL     OW92267   5.569   0.645   0.968 -0.0002 -0.2019  0.5079
27446SOL    HW192268   5.499   0.586   0.941 -0.5851  0.9398 -0.5388
27446SOL    HW292269   5.525   0.713   1.019 -0.1457  1.9528 -2.2914
27447SOL     OW92270   7.151  12.778  12.985  0.2668  0.4540 -0.3085
27447SOL    HW192271   7.080  12.764  13.048 -0.2815  0.8193 -0.8284
27447SOL    HW292272   7.118  12.738  12.904  1.4318 -1.0278 -0.0855
27448SOL     OW92273   4.983   2.843   6.397  0.2469 -0.2061  0.1795
27448SOL    HW192274   5.063   2.793   6.413  0.2850  0.5412  2.8688
27448SOL    HW292275   5.013   2.932   6.380  0.0501 -0.4565 -1.6930
27449SOL     OW92276   6.468   6.646   5.305 -0.7172  0.2134 -0.2018
27449SOL    HW192277   6.524   6.570   5.318 -0.7217  0.2711  0.1826
27449SOL    HW292278   6.522   6.708   5.257  0.3173  1.1120  1.9942
27450SOL     OW92279   2.757  12.751   9.235  0.2899  0.2873 -0.4787
27450SOL    HW192280   2.852  12.757   9.248  0.4000  0.0626 -1.1210
27450SOL    HW292281   2.737  12.659   9.250  0.1340  0.3840 -0.0959
27451SOL     OW92282   0.652   1.277   3.211 -0.1424  0.4804  0.2150
27451SOL    HW192283   0.697   1.343   3.159  1.0283 -1.2786 -1.0921
27451SOL    HW292284   0.567   1.265   3.168  0.2527  0.0596 -0.4562
27452SOL     OW92285   0.176   1.908   2.534  0.3734  0.4912 -0.9100
27452SOL    HW192286   0.217   1.902   2.448  0.9585 -0.4878 -0.5791
27452SOL    HW292287   0.169   1.817   2.564  1.5014  0.8813  0.6863
27453SOL     OW92288   1.927   2.708  11.632  0.1825 -0.0495  0.7354
27453SOL    HW192289   1.864   2.653  11.679 -0.0211 -0.7516 -0.3422
27453SOL    HW292290   1.894   2.713  11.543  0.3854  1.5564  0.7186
27454SOL     OW92291   1.565   8.412   3.568  0.3523 -0.2648  0.0769
27454SOL    HW192292   1.499   8.404   3.498  0.3610 -1.1012  0.1548
27454SOL    HW292293   1.521   8.379   3.646  1.0434 -1.4350  0.0047
27455SOL     OW92294   0.878   1.504  10.179 -0.3715 -0.1968 -0.3828
27455SOL    HW192295   0.808   1.488  10.241 -0.6096  0.3395 -0.5083
27455SOL    HW292296   0.836   1.499  10.093  0.0326 -1.3635 -0.5450
27456SOL     OW92297   4.280   2.118   2.939 -0.2991 -0.0033 -0.0734
27456SOL    HW192298   4.231   2.036   2.936 -0.0592 -0.2259  1.3926
27456SOL    HW292299   4.268   2.150   3.028  1.4830  0.3791  0.0743
27457SOL     OW92300   8.657  11.809  11.939  0.4160 -0.2007  0.4986
27457SOL    HW192301   8.706  11.762  12.007 -1.0391  0.9908  2.4748
27457SOL    HW292302   8.720  11.870  11.902  1.3003 -1.0292  0.5987
27458SOL     OW92303   3.120   5.914   1.056  0.3540 -0.1012  0.0550
27458SOL    HW192304   3.084   5.966   0.983  0.4456 -0.1747 -0.0422
27458SOL    HW292305   3.167   5.978   1.110  3.6525 -0.5823 -1.9857
27459SOL     OW92306   0.423   6.561   0.828 -0.3409 -0.1028 -0.1745
27459SOL    HW192307   0.456   6.596   0.910 -0.0402 -1.5346  0.3469
27459SOL    HW292308   0.495   6.575   0.766  0.7581 -1.8687  0.6046
27460SOL     OW92309   8.720  11.201   5.213  0.1027  0.4252  0.2158
27460SOL    HW192310   8.644  11.193   5.155  0.0356  0.9863  0.2140
27460SOL    HW292311   8.772  11.122   5.197 -1.2747 -0.7787  1.3954
27461SOL     OW92312   8.728   9.100   7.249 -0.3975  0.8595  0.1623
27461SOL    HW192313   8.811   9.084   7.294 -0.7509  1.4110  1.0575
27461SOL    HW292314   8.745   9.176   7.193  0.0033  0.2634 -0.5424
27462SOL     OW92315   0.586   5.289   8.273 -0.0676 -0.1837  0.4418
27462SOL    HW192316   0.534   5.212   8.296 -1.3060  0.8765  1.3756
27462SOL    HW292317   0.586   5.291   8.178 -1.6990 -0.2838  0.3999
27463SOL     OW92318   0.905   6.661   0.588  0.3567 -0.0002  0.2788
27463SOL    HW192319   0.909   6.689   0.679 -2.0768 -0.2852  0.5307
27463SOL    HW292320   0.944   6.734   0.539  0.4957  0.7307  1.4443
27464SOL     OW92321   4.733  10.068  12.528 -0.2876  0.0825  0.1695
27464SOL    HW192322   4.819  10.078  12.487  1.0657 -0.9788  2.5561
27464SOL    HW292323   4.683  10.015  12.465  1.7157 -1.5509 -0.1579
27465SOL     OW92324  13.275   4.936   5.163 -0.7256 -0.5251  0.2105
27465SOL    HW192325  13.205   4.935   5.229  0.8868 -1.1081  1.9892
27465SOL    HW292326  13.262   5.019   5.116 -2.1850 -0.3089  0.9345
27466SOL     OW92327   3.410   0.803  10.985 -0.1068  0.5491 -0.0690
27466SOL    HW192328   3.441   0.774  10.899 -0.3568 -0.4567  0.1651
27466SOL    HW292329   3.437   0.732  11.044 -1.5193  0.3665  0.3836
27467SOL     OW92330   7.877   9.343   4.311 -0.4022 -0.0328  0.2114
27467SOL    HW192331   7.948   9.381   4.259  1.0659 -0.8321  1.5517
27467SOL    HW292332   7.896   9.368   4.401 -0.9336 -1.5442  0.7883
27468SOL     OW92333   0.961   7.891  11.627  0.4606  0.3220  0.6853
27468SOL    HW192334   0.973   7.805  11.668 -1.4566 -0.7309 -0.7793
27468SOL    HW292335   0.876   7.921  11.659  0.3142  0.8525 -0.1665
27469SOL     OW92336   7.775   7.309   2.059 -0.1328  0.7025 -0.7772
27469SOL    HW192337   7.790   7.215   2.064 -0.6984  0.6160 -0.6487
27469SOL    HW292338   7.773   7.328   1.965  0.3631  0.6526 -0.8000
27470SOL     OW92339   2.990   5.863   9.637  0.1786 -0.2509  0.8738
27470SOL    HW192340   3.029   5.800   9.699  1.8169 -0.3611 -0.2056
27470SOL    HW292341   3.052   5.936   9.637  1.4103 -1.1600 -2.1838
27471SOL     OW92342  12.051   1.645   4.137  0.0784  0.3649  0.5166
27471SOL    HW192343  11.994   1.579   4.100 -1.3203  1.3330  0.8532
27471SOL    HW292344  12.069   1.705   4.065  1.1359 -0.2091  0.2766
27472SOL     OW92345  11.314  12.409  10.448 -0.1072 -0.5396 -0.1096
27472SOL    HW192346  11.370  12.416  10.370  1.6049  0.4017  1.1437
27472SOL    HW292347  11.238  12.463  10.428  1.2683  1.3821 -0.3700
27473SOL     OW92348  12.029   2.025   0.885  0.7326  0.0710 -0.3776
27473SOL    HW192349  11.950   2.048   0.934  0.5152 -1.8518  0.2763
27473SOL    HW292350  12.003   1.949   0.833  2.1535 -0.6526 -0.0744
27474SOL     OW92351   9.951   1.509   8.639  0.2130  0.2843  0.0915
27474SOL    HW192352  10.009   1.482   8.711  1.4645 -1.0331 -1.3301
27474SOL    HW292353   9.948   1.433   8.581  1.0844  2.0309 -2.3941
27475SOL     OW92354  10.679   8.109   5.469 -0.4469  0.0694 -0.0192
27475SOL    HW192355  10.634   8.181   5.514 -0.0756  0.4953 -0.3160
27475SOL    HW292356  10.751   8.152   5.421 -0.4410 -0.4549 -0.4908
27476SOL     OW92357   7.193   2.071   0.365  0.4632 -0.9115 -0.0999
27476SOL    HW192358   7.278   2.093   0.327  0.1184  0.1226 -0.3152
27476SOL    HW292359   7.211   2.062   0.459  0.5278  1.1158  0.1381
27477SOL     OW92360  10.201   2.241   3.230  0.4353  0.2385 -0.3593
27477SOL    HW192361  10.134   2.299   3.194 -0.9864  0.4169  2.2849
27477SOL    HW292362  10.273   2.299   3.253  0.2403  0.5125 -0.4396
27478SOL     OW92363   8.824   8.023  12.386  0.0268 -0.2773 -0.1343
27478SOL    HW192364   8.840   8.019  12.480  0.1671 -0.3169 -0.1600
27478SOL    HW292365   8.755   7.959  12.371  0.0601 -0.3283 -0.0694
27479SOL     OW92366   2.873   6.593   3.414  0.8018  0.1051  0.3900
27479SOL    HW192367   2.895   6.681   3.382 -0.2391  0.0584 -0.5414
27479SOL    HW292368   2.848   6.545   3.335  0.5739 -0.7906  0.9901
27480SOL     OW92369   4.228   1.387  12.105  0.4283  0.1688 -0.1767
27480SOL    HW192370   4.205   1.309  12.156  2.3750 -0.0790  0.3788
27480SOL    HW292371   4.148   1.440  12.106  0.1907 -0.0907  2.6248
27481SOL     OW92372   3.896   0.165   0.385 -0.1149 -0.1554 -0.1324
27481SOL    HW192373   3.814   0.117   0.393 -0.4886  0.7347  3.3724
27481SOL    HW292374   3.880   0.230   0.317 -1.9332 -0.7502 -0.3219
27482SOL     OW92375   3.942  10.813   2.618  0.3706  0.2096 -0.4015
27482SOL    HW192376   3.959  10.743   2.555  2.1511  0.6092 -0.4111
27482SOL    HW292377   3.998  10.885   2.590  0.8478  0.5690  1.3568
27483SOL     OW92378  12.556   4.191   4.588  0.0469 -0.1032 -0.0685
27483SOL    HW192379  12.502   4.261   4.551 -0.1423 -0.0593  0.2900
27483SOL    HW292380  12.505   4.111   4.574 -0.5135  0.0389  1.0293
27484SOL     OW92381   1.691   8.571  11.705 -0.1869  0.6582 -0.0806
27484SOL    HW192382   1.738   8.580  11.622  1.0359  1.2981  0.6441
27484SOL    HW292383   1.705   8.654  11.750  2.1025 -0.7629  2.1642
27485SOL     OW92384   0.396   6.265   9.748  0.6208  0.4045  0.6846
27485SOL    HW192385   0.355   6.308   9.823  1.7613  1.5589  0.6862
27485SOL    HW292386   0.337   6.193   9.726 -0.4601  0.9201  1.7861
27486SOL     OW92387  11.160   4.929  11.357 -0.3590  0.4419 -0.4117
27486SOL    HW192388  11.112   4.847  11.366 -3.2926  2.0995  0.5814
27486SOL    HW292389  11.092   4.995  11.341  1.4691  3.1432  1.8900
27487SOL     OW92390   2.102  10.495   5.160  0.0769  0.0421  0.3615
27487SOL    HW192391   2.126  10.433   5.091  2.1405  0.1254  0.9092
27487SOL    HW292392   2.017  10.529   5.134  0.5717 -0.2646 -1.8926
27488SOL     OW92393   5.297   0.478   4.725 -0.3015  0.1396  0.4688
27488SOL    HW192394   5.227   0.412   4.727 -0.6963  0.5681  1.4942
27488SOL    HW292395   5.378   0.427   4.734 -0.5210 -0.2964  0.0248
27489SOL     OW92396   6.956   0.154   9.255 -0.2291  0.0724 -0.3293
27489SOL    HW192397   6.984   0.133   9.166  2.0582  1.7447 -0.0919
27489SOL    HW292398   6.905   0.234   9.246 -0.7009 -0.2058 -0.1936
27490SOL     OW92399   0.774   5.403   3.694  0.2827  0.9304 -0.5907
27490SOL    HW192400   0.692   5.397   3.645 -0.2041 -0.2790  0.3102
27490SOL    HW292401   0.750   5.452   3.773  0.0401 -0.6759  0.3695
27491SOL     OW92402   6.669   8.554   1.926 -0.8987  0.4076  0.2015
27491SOL    HW192403   6.591   8.579   1.877 -0.8197 -1.4407 -0.9434
27491SOL    HW292404   6.742   8.571   1.866 -0.4407  1.5291  1.0326
27492SOL     OW92405   0.098   6.715   5.174  0.3317  0.5260  0.3026
27492SOL    HW192406   0.065   6.681   5.257 -0.4093  0.4103 -0.0344
27492SOL    HW292407   0.039   6.787   5.152  0.9531  1.0188  0.2287
27493SOL     OW92408  10.251   5.438  12.541  0.0093  0.3738  0.1451
27493SOL    HW192409  10.264   5.533  12.550 -1.3236  0.5330  0.7170
27493SOL    HW292410  10.234   5.425  12.448 -0.6378  0.8367  0.1856
27494SOL     OW92411  12.789   1.203   8.824 -0.3368 -0.0193  0.5346
27494SOL    HW192412  12.837   1.282   8.800 -0.8714  0.3467  0.6590
27494SOL    HW292413  12.792   1.201   8.919  0.7181 -0.8043  0.4898
27495SOL     OW92414   9.025  11.812   8.012 -0.2117 -0.5646  0.1497
27495SOL    HW192415   8.954  11.865   8.048 -0.6777 -2.4689  2.2812
27495SOL    HW292416   9.093  11.813   8.080 -0.0217 -2.1925  0.0349
27496SOL     OW92417   1.137   3.589   5.910 -0.4102  0.3012  0.0140
27496SOL    HW192418   1.070   3.653   5.884 -0.1602  0.4380 -0.3087
27496SOL    HW292419   1.093   3.505   5.906 -0.0022  0.1157 -2.4165
27497SOL     OW92420   9.911   8.933   4.479 -0.0315  0.3874 -0.0027
27497SOL    HW192421   9.981   8.960   4.419  0.6709  0.1376  0.6881
27497SOL    HW292422   9.872   9.015   4.508 -0.7099  0.4936 -1.1826
27498SOL     OW92423   6.248   2.423   0.499 -0.2759  0.0234 -0.1122
27498SOL    HW192424   6.197   2.411   0.418 -0.9618  0.2475  0.2747
27498SOL    HW292425   6.339   2.426   0.470 -0.6004  2.0717 -1.1139
27499SOL     OW92426   5.504   9.396   5.463 -0.8563  0.1983  0.4078
27499SOL    HW192427   5.431   9.385   5.524 -0.2067 -0.6840  1.0512
27499SOL    HW292428   5.527   9.307   5.436 -1.8843  0.5991 -2.1006
27500SOL     OW92429   6.335   8.623   5.569  0.2631 -0.0107  0.3372
27500SOL    HW192430   6.258   8.565   5.563 -0.1426  0.6041 -0.7282
27500SOL    HW292431   6.395   8.589   5.503 -0.1010  0.9275 -0.5097
27501SOL     OW92432   3.941   2.423   9.795  0.0354  0.1490 -0.3598
27501SOL    HW192433   3.976   2.419   9.707  1.1591  0.9496  0.0239
27501SOL    HW292434   3.869   2.360   9.796 -0.8351  1.0517 -2.2046
27502SOL     OW92435   7.465   6.068   3.135  0.2969 -0.2273 -0.4265
27502SOL    HW192436   7.553   6.062   3.173  0.2264 -0.0003 -0.2212
27502SOL    HW292437   7.478   6.054   3.041  0.5795  0.0016 -0.4236
27503SOL     OW92438   5.756   7.681   1.217  0.4505 -0.3816 -0.4688
27503SOL    HW192439   5.802   7.694   1.134  1.6906  1.7760  0.4450
27503SOL    HW292440   5.826   7.658   1.279 -0.2849 -0.8374  0.2059
27504SOL     OW92441  12.233   0.227   3.450  0.2908 -0.0023  0.0132
27504SOL    HW192442  12.232   0.282   3.528 -1.6233 -0.3350  0.2806
27504SOL    HW292443  12.298   0.159   3.469  0.3811  0.3475  1.0088
27505SOL     OW92444   6.746  10.398  10.774  0.6080 -0.0281  0.0641
27505SOL    HW192445   6.683  10.391  10.703  2.4582 -0.9035 -1.6009
27505SOL    HW292446   6.754  10.492  10.790 -1.2270  0.0849  0.4649
27506SOL     OW92447  12.627  10.617   4.016 -0.1897 -0.4899  0.6914
27506SOL    HW192448  12.650  10.618   3.923 -0.6475 -0.2823  0.5770
27506SOL    HW292449  12.637  10.708   4.044  0.8826 -0.7194  1.0856
27507SOL     OW92450   7.409   3.814   7.799 -0.0043 -0.3088  0.6083
27507SOL    HW192451   7.434   3.786   7.887 -1.3576 -1.8846  0.5377
27507SOL    HW292452   7.320   3.848   7.809 -0.9366 -2.2759 -0.4103
27508SOL     OW92453   6.665  11.532   8.705  0.6751 -0.3063  0.5702
27508SOL    HW192454   6.614  11.513   8.783 -0.1769 -1.6750 -0.2608
27508SOL    HW292455   6.711  11.450   8.686  0.8062 -0.0275 -0.3871
27509SOL     OW92456   8.390   6.065  10.519 -0.1416  0.3262  0.0817
27509SOL    HW192457   8.320   6.083  10.582  2.1158  1.7570  2.4003
27509SOL    HW292458   8.382   6.133  10.453 -1.2977  0.0764 -0.0474
27510SOL     OW92459   9.218   4.555   0.206  0.4829 -0.1554 -0.5199
27510SOL    HW192460   9.236   4.465   0.233  0.5058  0.0388  0.1189
27510SOL    HW292461   9.124   4.555   0.185  0.9558 -0.9110 -2.8720
27511SOL     OW92462   0.548   1.325   8.946 -0.2369 -0.0728 -0.3727
27511SOL    HW192463   0.503   1.382   8.883 -0.9894  0.0235  0.2265
27511SOL    HW292464   0.579   1.385   9.014  0.4959 -0.1857 -0.6048
27512SOL     OW92465   9.847   6.576   7.843 -0.1417  0.1407  0.0625
27512SOL    HW192466   9.799   6.594   7.762  0.1665 -1.2065 -0.4530
27512SOL    HW292467   9.784   6.527   7.896 -0.3681  1.0868  0.6771
27513SOL     OW92468  11.139  12.638   5.121 -0.1351  0.2166  0.3923
27513SOL    HW192469  11.143  12.659   5.215 -0.1246  1.1442  0.1945
27513SOL    HW292470  11.112  12.720   5.080  0.3012 -0.0675 -0.4640
27514SOL     OW92471  11.576   6.679   8.002 -0.1997 -0.0689 -0.3306
27514SOL    HW192472  11.527   6.760   7.986  0.0490  0.2888  0.6491
27514SOL    HW292473  11.607   6.688   8.092  1.7890 -0.2113 -0.9643
27515SOL     OW92474  10.483   9.042   9.113  0.7815 -0.2372  0.5815
27515SOL    HW192475  10.497   8.995   9.196 -0.2954 -1.5670  0.0497
27515SOL    HW292476  10.555   9.105   9.109  0.8161 -0.0842  2.5599
27516SOL     OW92477   8.038   1.252   5.087  0.5707 -0.2862 -0.1111
27516SOL    HW192478   7.996   1.310   5.024 -1.3113  1.5588  2.6433
27516SOL    HW292479   8.105   1.206   5.036 -0.5962  1.2901 -3.3220
27517SOL     OW92480   4.432   9.321   4.532 -0.4382  0.1817 -0.1958
27517SOL    HW192481   4.454   9.401   4.485  0.3888  0.4882  0.6865
27517SOL    HW292482   4.471   9.332   4.618 -1.8653 -0.3997  0.5649
27518SOL     OW92483   0.799  13.041   3.123  0.0853 -0.3137 -0.2045
27518SOL    HW192484   0.756  12.982   3.185 -0.3395 -0.5979 -0.7702
27518SOL    HW292485   0.827  13.115   3.177  0.3654 -0.8904  0.4545
27519SOL     OW92486   4.399   7.215   4.969  0.1005 -0.1182 -0.5200
27519SOL    HW192487   4.366   7.125   4.970 -0.4030  0.0626  0.4638
27519SOL    HW292488   4.480   7.210   4.917  0.0360 -1.1164 -0.5496
27520SOL     OW92489  10.000   0.848   3.060  0.0157  0.0866 -0.2541
27520SOL    HW192490   9.958   0.768   3.092 -4.0149  2.8856  2.4242
27520SOL    HW292491   9.982   0.850   2.966 -0.1624 -1.9163 -0.2913
27521SOL     OW92492   6.740   0.312   4.382 -0.3199  0.3011  0.3727
27521SOL    HW192493   6.780   0.228   4.405 -0.3041  0.0111 -0.6614
27521SOL    HW292494   6.763   0.370   4.455  1.0356 -0.1630  0.3414
27522SOL     OW92495   3.158  12.184   0.618  0.3015  0.1875 -0.4199
27522SOL    HW192496   3.149  12.275   0.646 -2.0984  1.1370 -3.7284
27522SOL    HW292497   3.095  12.136   0.671  1.2109  0.4684  0.9783
27523SOL     OW92498  12.752   3.533   6.911 -0.0853  0.1737 -0.3433
27523SOL    HW192499  12.776   3.443   6.888 -0.0710 -0.0550  0.5094
27523SOL    HW292500  12.658   3.528   6.929 -0.2514  0.5088 -1.0809
27524SOL     OW92501   8.912  13.198   4.047  0.0284  0.1134  0.7540
27524SOL    HW192502   8.970  13.269   4.076  0.4194 -0.1511  0.6366
27524SOL    HW292503   8.864  13.235   3.973  1.2591 -0.1801 -0.2358
27525SOL     OW92504   4.150   3.410   9.955 -0.4226 -0.5740  0.0186
27525SOL    HW192505   4.058   3.390   9.973 -0.8152 -0.2241 -1.4355
27525SOL    HW292506   4.161   3.500   9.984 -0.5330 -0.6287  0.2285
27526SOL     OW92507   2.913   6.697   7.646  0.6300  0.2920  0.7077
27526SOL    HW192508   2.945   6.770   7.594  2.8753 -0.1201  1.3809
27526SOL    HW292509   2.939   6.619   7.596 -1.6555 -0.1186  0.0372
27527SOL     OW92510   3.113   5.409   7.977 -0.4234  0.0587  1.0603
27527SOL    HW192511   3.047   5.379   7.915 -4.3723  2.4732  3.6744
27527SOL    HW292512   3.138   5.496   7.945 -0.9597  0.4663  1.7206
27528SOL     OW92513   8.660   0.845  11.017 -0.1430 -0.1670  0.0086
27528SOL    HW192514   8.649   0.933  10.981  1.6606  0.4512  0.8675
27528SOL    HW292515   8.583   0.797  10.988 -1.6567  1.9618  0.3282
27529SOL     OW92516   1.350   1.929   0.245  0.1558  0.1471 -0.1394
27529SOL    HW192517   1.268   1.975   0.224 -0.2192 -0.6081 -0.3650
27529SOL    HW292518   1.329   1.837   0.231  1.6900  0.0656 -2.4794
27530SOL     OW92519   0.461   6.537  10.083 -0.7203  0.3883  0.8452
27530SOL    HW192520   0.380   6.579  10.110 -0.5495  1.3466 -0.0621
27530SOL    HW292521   0.524   6.609  10.074  0.1516 -0.3052  1.2603
27531SOL     OW92522   1.800   7.739   7.618  0.5125 -0.1528 -0.3316
27531SOL    HW192523   1.774   7.830   7.624 -1.5830 -0.7145 -0.2357
27531SOL    HW292524   1.831   7.717   7.706  1.8006  0.6453 -0.5608
27532SOL     OW92525   0.456   1.046  12.589 -0.0361 -0.4271 -0.2652
27532SOL    HW192526   0.369   1.081  12.569  0.5524  0.7574 -0.8198
27532SOL    HW292527   0.480   0.994  12.511  0.0771 -0.1156 -0.4378
27533SOL     OW92528   3.838   4.767   4.615  0.6777 -0.4470  0.5127
27533SOL    HW192529   3.815   4.811   4.533  1.0840  0.4849  0.8871
27533SOL    HW292530   3.840   4.674   4.592  1.2393 -0.1725 -0.6611
27534SOL     OW92531   2.698  12.257   5.706  0.1661  0.7469 -0.2257
27534SOL    HW192532   2.774  12.203   5.730  0.0018  0.4885 -0.2797
27534SOL    HW292533   2.637  12.247   5.779  0.3011  1.1802 -0.0540
27535SOL     OW92534   0.530  11.480  10.115 -0.1053  0.1051 -0.1607
27535SOL    HW192535   0.569  11.405  10.070  2.3362  0.3790  1.3360
27535SOL    HW292536   0.570  11.556  10.074  0.6847  0.4130  1.1245
27536SOL     OW92537  12.325   8.163  13.051 -0.2808 -0.0687 -0.5067
27536SOL    HW192538  12.234   8.133  13.044 -0.2153 -0.3408 -0.2160
27536SOL    HW292539  12.375   8.084  13.069  0.0831  0.0045 -1.1805
27537SOL     OW92540  10.421   0.048   3.769  0.1005 -0.2594  0.9675
27537SOL    HW192541  10.448   0.006   3.687 -1.6090 -0.2111  0.3412
27537SOL    HW292542  10.430  -0.021   3.835  1.6085 -0.2663  0.7902
27538SOL     OW92543  10.744   2.392  10.983  0.5087  0.2263 -1.0729
27538SOL    HW192544  10.792   2.316  11.017  0.4729  0.6777  0.0389
27538SOL    HW292545  10.807   2.436  10.927  0.4745 -0.7102 -1.8721
27539SOL     OW92546   1.404   2.190   0.349 -0.3478 -0.7145  0.2587
27539SOL    HW192547   1.395   2.101   0.314 -1.6525 -0.2079 -0.7893
27539SOL    HW292548   1.432   2.243   0.275  0.4195 -0.2271  0.8779
27540SOL     OW92549   0.221   7.367   4.132  0.2304  0.0113 -0.1179
27540SOL    HW192550   0.173   7.383   4.051 -1.1546 -1.4839  0.3411
27540SOL    HW292551   0.296   7.314   4.105 -0.3334 -0.6489 -0.4175
27541SOL     OW92552   5.163  10.479   3.912 -0.1634  0.2709 -0.3715
27541SOL    HW192553   5.079  10.510   3.947 -0.2128  0.1578 -0.3865
27541SOL    HW292554   5.145  10.388   3.887  0.0479  0.1529 -0.0909
27542SOL     OW92555   7.001   1.380  12.728 -0.7084 -0.2789  0.2164
27542SOL    HW192556   7.026   1.294  12.762 -1.1420 -0.1776  0.8293
27542SOL    HW292557   6.974   1.364  12.638 -2.6038 -1.1441  0.8796
27543SOL     OW92558   7.910   6.259  11.755  0.0229 -0.1626 -0.4385
27543SOL    HW192559   7.965   6.306  11.818 -1.8594 -1.1670  2.1384
27543SOL    HW292560   7.957   6.178  11.738  0.7213  0.2767 -0.6487
27544SOL     OW92561   0.840   7.569   9.392  0.4272 -0.0333  0.3240
27544SOL    HW192562   0.910   7.536   9.335 -0.2913  0.1790 -0.7040
27544SOL    HW292563   0.759   7.548   9.346 -0.2073 -0.3404  1.5390
27545SOL     OW92564   2.627   6.785  10.003  0.3086 -0.3626 -0.2022
27545SOL    HW192565   2.547   6.741   9.974 -0.3110 -2.1125  3.5986
27545SOL    HW292566   2.597   6.850  10.067  1.8549 -0.6274  0.8381
27546SOL     OW92567   9.530   3.942  12.449 -0.0710 -0.2350 -0.3862
27546SOL    HW192568   9.581   3.871  12.409  0.0598  0.1365 -0.8861
27546SOL    HW292569   9.580   4.021  12.429  1.2207 -0.1968  2.3902
27547SOL     OW92570   1.709   9.360  12.966  0.1681 -0.1431 -0.4376
27547SOL    HW192571   1.760   9.419  13.021 -0.6155  0.0972  0.0500
27547SOL    HW292572   1.738   9.273  12.991  0.9898  0.0090 -0.8203
27548SOL     OW92573   5.240   3.729   5.417  0.2592 -0.1670 -0.0753
27548SOL    HW192574   5.166   3.780   5.383  0.2939  0.6920  1.0706
27548SOL    HW292575   5.238   3.648   5.366 -0.6326  0.4078 -1.0083
27549SOL     OW92576   3.397   3.027   9.413  0.1253 -0.5840  0.3043
27549SOL    HW192577   3.367   3.045   9.324  0.2002 -1.1834  0.1556
27549SOL    HW292578   3.337   3.076   9.469 -1.1468 -1.7582  0.0109
27550SOL     OW92579   2.391  11.222  12.008 -0.0269 -0.3043 -0.0012
27550SOL    HW192580   2.391  11.269  12.092  1.3539 -1.6879  0.8202
27550SOL    HW292581   2.447  11.275  11.951  0.3189 -0.1970  0.4399
27551SOL     OW92582   4.094  11.965  10.650  0.2079 -0.0205 -0.8072
27551SOL    HW192583   4.134  11.974  10.736 -0.7920 -3.5207  0.1957
27551SOL    HW292584   4.160  11.999  10.589  1.0753  2.2317  1.2351
27552SOL     OW92585  11.083  11.920   4.584  0.1823  0.0020 -0.0512
27552SOL    HW192586  11.129  11.875   4.513 -0.2746 -1.8274  0.7474
27552SOL    HW292587  10.996  11.880   4.586  0.4108 -0.5346  1.9559
27553SOL     OW92588   0.879   6.150   4.046  0.4131  0.2712  0.2969
27553SOL    HW192589   0.820   6.076   4.036 -0.1538  0.7723 -0.1093
27553SOL    HW292590   0.877   6.170   4.140 -0.5635  0.6788  0.2056
27554SOL     OW92591  12.620  12.573  11.782  0.4041 -0.1721  0.5900
27554SOL    HW192592  12.654  12.502  11.728 -1.0481  0.6933 -1.6145
27554SOL    HW292593  12.525  12.567  11.773  0.2148  1.5312  1.0525
27555SOL     OW92594  13.031   4.009  12.266 -0.5712 -0.4070 -0.4060
27555SOL    HW192595  13.004   4.002  12.358  1.8690  1.5949  0.5437
27555SOL    HW292596  12.979   4.081  12.231  0.0869  0.2982  0.0542
27556SOL     OW92597  11.208  12.857   8.743  0.5472 -0.3066 -0.4661
27556SOL    HW192598  11.253  12.902   8.815 -0.8133  0.0859  0.1794
27556SOL    HW292599  11.220  12.764   8.762  0.0412 -0.2087  0.4098
27557SOL     OW92600   9.993   8.183   8.275  0.2861 -0.2949 -0.1021
27557SOL    HW192601   9.999   8.115   8.343 -1.5960 -0.7532 -0.3346
27557SOL    HW292602  10.084   8.204   8.254  0.9325 -0.2536  2.4187
27558SOL     OW92603   5.224  11.990   7.000 -0.0089  0.4503 -0.0994
27558SOL    HW192604   5.312  12.026   6.997 -0.1261  0.7412 -0.0670
27558SOL    HW292605   5.230  11.906   6.954  0.4583  0.0911  0.5995
27559SOL     OW92606  10.922  11.193   6.629  0.2734  0.0463 -0.1363
27559SOL    HW192607  10.875  11.274   6.610  0.8451  0.7641  1.3311
27559SOL    HW292608  10.953  11.163   6.544 -2.6852 -0.4205 -1.1986
27560SOL     OW92609   2.161  13.223   5.662  0.2043  0.0088  0.1351
27560SOL    HW192610   2.192  13.233   5.753 -2.2506 -0.6761  1.1352
27560SOL    HW292611   2.198  13.140   5.633 -0.8424 -0.9308  1.3869
27561SOL     OW92612   1.152   9.280   5.813 -0.1587 -0.1537 -0.1917
27561SOL    HW192613   1.188   9.265   5.726 -1.4336 -0.9073 -0.6211
27561SOL    HW292614   1.200   9.356   5.846  1.6904 -1.0110 -0.7540
27562SOL     OW92615   2.789   7.549   3.779  0.1622 -0.0904 -0.0048
27562SOL    HW192616   2.804   7.543   3.685  0.6407  0.9951 -0.0180
27562SOL    HW292617   2.842   7.625   3.807 -0.3646 -0.0896  1.0481
27563SOL     OW92618   2.233   4.674   3.486 -0.3731 -0.2469  0.2081
27563SOL    HW192619   2.266   4.661   3.575  1.1033  0.2285 -0.2334
27563SOL    HW292620   2.260   4.763   3.464 -2.7282  0.5098  0.0824
27564SOL     OW92621   7.988   6.831   8.974 -0.4644 -1.0304  0.4520
27564SOL    HW192622   7.961   6.839   8.883 -1.1393  1.7473  0.8074
27564SOL    HW292623   7.942   6.754   9.007 -0.6278 -1.7494 -1.3791
27565SOL     OW92624   2.485  12.190   3.991 -0.1936  0.4020  0.3819
27565SOL    HW192625   2.462  12.254   3.923 -0.5003  0.5138  0.5882
27565SOL    HW292626   2.511  12.243   4.066  1.5577  0.2894 -0.0928
27566SOL     OW92627  13.140   4.123   1.724 -0.3328 -0.4283 -0.4941
27566SOL    HW192628  13.218   4.074   1.697 -0.9553 -1.5339 -0.3586
27566SOL    HW292629  13.104   4.073   1.798 -0.9875  0.2457 -0.3365
27567SOL     OW92630   0.650   5.967   4.782  0.2038 -0.0870 -0.0428
27567SOL    HW192631   0.640   5.991   4.874  2.5449  0.5881  0.1169
27567SOL    HW292632   0.652   5.871   4.782  1.0153 -0.0812  0.7332
27568SOL     OW92633  10.318   0.363  12.450  0.0940  0.0710  0.1512
27568SOL    HW192634  10.278   0.304  12.514 -1.0482  0.7764  0.1256
27568SOL    HW292635  10.321   0.448  12.494  0.3205  0.3218 -0.3386
27569SOL     OW92636   6.341   3.839   5.296  0.3573  0.6103  0.1331
27569SOL    HW192637   6.404   3.771   5.273  0.1257  0.9553 -1.6553
27569SOL    HW292638   6.366   3.915   5.244 -1.4299  0.7900 -0.5677
27570SOL     OW92639   4.361   3.822   1.768  0.1563 -0.5900  0.5897
27570SOL    HW192640   4.434   3.768   1.800  1.2684  0.1112 -0.6705
27570SOL    HW292641   4.330   3.776   1.690  0.6285  0.1844 -0.0694
27571SOL     OW92642   5.775  12.888   9.920  0.2887  0.4635 -0.2594
27571SOL    HW192643   5.766  12.897   9.825 -1.4945  3.2012  0.0517
27571SOL    HW292644   5.839  12.955   9.945 -0.1423  0.5796  0.5696
27572SOL     OW92645  12.877   0.193   0.382 -0.3341  0.3622  0.5182
27572SOL    HW192646  12.920   0.160   0.461  1.3850  2.7414  0.6731
27572SOL    HW292647  12.937   0.171   0.311  0.1770  1.8506  0.4545
27573SOL     OW92648   0.604   7.628   6.186 -0.0723 -0.1452  0.0829
27573SOL    HW192649   0.525   7.642   6.133 -0.8876 -1.2629  0.9348
27573SOL    HW292650   0.583   7.666   6.271  0.8857  0.8386 -0.0983
27574SOL     OW92651   1.315   3.284   0.032  0.8828  0.2901  1.0126
27574SOL    HW192652   1.247   3.286   0.100  0.4223  0.2760  0.5504
27574SOL    HW292653   1.362   3.367   0.045 -1.1330  1.7782 -0.5897
27575SOL     OW92654   2.208   2.756   5.306  0.2807  0.1758  0.3809
27575SOL    HW192655   2.149   2.787   5.237  0.4935  1.8607  0.9063
27575SOL    HW292656   2.296   2.767   5.268  0.3463 -2.8400 -0.6115
27576SOL     OW92657   8.380   9.662   5.035 -0.6953  0.0444  0.3131
27576SOL    HW192658   8.434   9.620   4.967  0.2246 -0.6035  1.4185
27576SOL    HW292659   8.408   9.754   5.033 -1.9748  0.4615 -1.3946
27577SOL     OW92660  11.945  11.994   2.394 -0.0348  0.1827 -0.3525
27577SOL    HW192661  11.959  12.055   2.321  1.9547  0.4430  0.1899
27577SOL    HW292662  12.016  12.012   2.455 -1.0259 -0.7839  1.1613
27578SOL     OW92663  12.649  10.505   7.361 -0.5044 -0.1533  0.0031
27578SOL    HW192664  12.705  10.582   7.367 -0.1944 -0.3606 -0.2146
27578SOL    HW292665  12.637  10.477   7.452 -0.2096 -0.1416  0.0465
27579SOL     OW92666   7.384  12.681  10.062 -0.2412  0.0221 -0.3155
27579SOL    HW192667   7.470  12.640  10.068  0.1538  1.0027  1.8497
27579SOL    HW292668   7.394  12.751   9.998  0.5449  0.0374 -0.1769
27580SOL     OW92669   3.285   5.615   8.518 -0.1757  0.2519 -0.1383
27580SOL    HW192670   3.375   5.597   8.491 -0.8540 -0.1845 -2.3189
27580SOL    HW292671   3.279   5.582   8.607  2.0815  1.2172  0.4251
27581SOL     OW92672   9.914   0.818   3.418 -0.2755  0.2232  0.4620
27581SOL    HW192673   9.937   0.857   3.502  0.6067  2.8279 -0.8874
27581SOL    HW292674   9.849   0.878   3.381 -0.9354 -1.0803 -0.5769
27582SOL     OW92675  12.983   3.583   1.155  0.2476 -0.0516 -0.4220
27582SOL    HW192676  12.908   3.528   1.135  0.7671 -0.6573 -0.7691
27582SOL    HW292677  12.951   3.673   1.146 -0.4630 -0.3000 -0.4201
27583SOL     OW92678  11.660   0.613   0.245  0.0869  0.1939 -0.2232
27583SOL    HW192679  11.687   0.552   0.313  0.4568 -1.6991 -1.9756
27583SOL    HW292680  11.582   0.572   0.206  0.4121  0.7602 -1.5212
27584SOL     OW92681  11.911   4.914   0.944 -0.0403 -0.5826  0.3796
27584SOL    HW192682  11.966   4.990   0.962  0.3883 -0.6836 -0.4517
27584SOL    HW292683  11.958   4.865   0.877 -2.8083  1.3870 -3.4672
27585SOL     OW92684  12.597   2.044  10.941  0.3229 -0.5344  0.0672
27585SOL    HW192685  12.506   2.035  10.913  0.6147 -0.9199 -0.7909
27585SOL    HW292686  12.592   2.089  11.026 -0.6484 -0.3681 -0.0687
27586SOL     OW92687   3.507   9.654   0.595  0.2627 -0.2875  0.3094
27586SOL    HW192688   3.598   9.669   0.568 -0.7190  0.7785 -2.8550
27586SOL    HW292689   3.473   9.741   0.615 -0.0954 -0.6764  1.4274
27587SOL     OW92690   8.912   7.486   1.747  0.5585 -0.4732  0.2476
27587SOL    HW192691   8.893   7.395   1.772  1.4137 -1.1103 -1.2792
27587SOL    HW292692   8.912   7.485   1.651 -1.3294  1.5772  0.1609
27588SOL     OW92693   4.100  12.777  11.854  0.3567 -0.3020  0.4252
27588SOL    HW192694   4.011  12.811  11.856 -0.2122 -1.5259 -1.3224
27588SOL    HW292695   4.106  12.731  11.770  2.1047 -1.6538  1.2223
27589SOL     OW92696   5.826   8.470   6.503  0.0828 -0.0281 -0.5104
27589SOL    HW192697   5.886   8.395   6.511  1.1127  0.9431  1.9881
27589SOL    HW292698   5.884   8.545   6.492 -0.9600  0.4199 -4.3309
27590SOL     OW92699   9.663   3.909   2.378  0.4331 -0.2607 -0.1631
27590SOL    HW192700   9.729   3.962   2.334 -0.8496 -0.8004 -2.9586
27590SOL    HW292701   9.607   3.972   2.424  1.5741  0.3747  0.3756
27591SOL     OW92702   6.773  12.695   3.365 -0.0850 -0.1947 -0.4600
27591SOL    HW192703   6.773  12.732   3.454 -0.6421  0.1753 -0.6092
27591SOL    HW292704   6.681  12.700   3.338 -0.4900 -3.1075  0.1028
27592SOL     OW92705   0.821   7.194   8.295  0.3960 -0.1685  0.2633
27592SOL    HW192706   0.772   7.119   8.260 -0.5620 -1.9216  4.6782
27592SOL    HW292707   0.908   7.159   8.314  0.4307  0.2598  0.9274
27593SOL     OW92708   0.902   0.534   6.732 -0.2587 -0.2566  0.1547
27593SOL    HW192709   0.828   0.572   6.685 -0.3696 -0.2149  0.3631
27593SOL    HW292710   0.935   0.466   6.673  1.1852  1.4433 -1.1062
27594SOL     OW92711   8.186   6.744   6.875 -0.5206 -0.0380 -0.0363
27594SOL    HW192712   8.097   6.740   6.909 -0.2452  2.1211  1.1396
27594SOL    HW292713   8.176   6.775   6.785 -0.9820 -0.5681 -0.1745
27595SOL     OW92714   1.750   0.003   5.413 -0.3315 -0.2420 -0.3947
27595SOL    HW192715   1.790  -0.055   5.347 -0.9212 -1.0261 -0.0748
27595SOL    HW292716   1.783  -0.029   5.496 -1.2870 -0.6294 -0.1553
27596SOL     OW92717   3.623   5.714   2.879 -0.5554 -0.3328  0.5868
27596SOL    HW192718   3.577   5.701   2.796  1.0837 -1.7857 -0.1580
27596SOL    HW292719   3.676   5.792   2.865 -0.3080 -0.5560  0.2761
27597SOL     OW92720   4.149   6.731   3.694 -0.3247  0.2517  0.1945
27597SOL    HW192721   4.097   6.670   3.745 -0.4935 -0.3893 -0.7176
27597SOL    HW292722   4.236   6.692   3.691 -1.0784 -1.5950 -2.8571
27598SOL     OW92723   7.771   6.219   4.670  0.1140 -0.2351 -0.5452
27598SOL    HW192724   7.686   6.250   4.637  0.3208  0.5281 -0.3574
27598SOL    HW292725   7.799   6.286   4.732 -0.7051 -2.0568  1.9636
27599SOL     OW92726   9.102   4.035   5.547 -0.3232 -0.1567  0.4763
27599SOL    HW192727   9.008   4.018   5.557 -0.1034 -0.4933  2.2581
27599SOL    HW292728   9.130   3.976   5.477 -1.6132  0.7201 -0.8386
27600SOL     OW92729   9.996   9.146   9.249 -0.3032  0.1088  0.6622
27600SOL    HW192730   9.923   9.115   9.303  0.4352 -0.2839  1.4669
27600SOL    HW292731   9.960   9.218   9.198 -2.1167 -2.0468 -1.3143
27601SOL     OW92732   6.349   6.969   0.699 -0.5402 -0.2788  0.0084
27601SOL    HW192733   6.335   7.020   0.619  0.0814 -0.4300 -0.1985
27601SOL    HW292734   6.339   6.878   0.672  0.2731 -0.3620 -0.0277
27602SOL     OW92735  11.785  10.387  10.160  0.4161  0.0217  0.1629
27602SOL    HW192736  11.715  10.448  10.136  0.7455 -0.3319 -1.9150
27602SOL    HW292737  11.743  10.301  10.160  0.4422  0.0049  0.8451
27603SOL     OW92738   7.185   0.433  13.220  0.1693  0.3686 -0.4241
27603SOL    HW192739   7.215   0.362  13.277  1.4050  0.4662 -0.9138
27603SOL    HW292740   7.229   0.511  13.254 -2.3014  1.2427  1.0341
27604SOL     OW92741  11.058   5.976   3.673  0.0139 -0.3358  0.6395
27604SOL    HW192742  11.078   5.902   3.617 -0.7036 -0.2327  0.2354
27604SOL    HW292743  11.142   6.002   3.710  0.8765  0.8497 -1.9066
27605SOL     OW92744  10.834   0.967   5.853 -0.2325 -0.1695 -0.2291
27605SOL    HW192745  10.897   1.029   5.817  1.0570 -1.1640  0.1996
27605SOL    HW292746  10.812   1.002   5.940  0.2251 -0.1294 -0.1275
27606SOL     OW92747   2.237   3.728   1.574  0.3966  0.5734 -0.5894
27606SOL    HW192748   2.170   3.714   1.642 -0.1133  0.5451 -1.0859
27606SOL    HW292749   2.310   3.768   1.620 -0.5225  1.9837 -0.3010
27607SOL     OW92750   8.319   1.505   2.987  0.1705  0.2864  0.0447
27607SOL    HW192751   8.224   1.513   2.982  0.2053  0.7397  0.0435
27607SOL    HW292752   8.337   1.487   3.079 -0.0175 -1.4134 -0.2083
27608SOL     OW92753   0.555   0.603   9.924 -0.5186  0.3326  0.0012
27608SOL    HW192754   0.586   0.607   9.834 -0.1175 -0.7376  0.0849
27608SOL    HW292755   0.464   0.574   9.917  0.1451 -1.9357  0.0193
27609SOL     OW92756   5.404   1.406   1.079  0.3979  0.2701  0.3926
27609SOL    HW192757   5.488   1.420   1.122  0.5914 -0.2750  0.1946
27609SOL    HW292758   5.404   1.313   1.056  0.0869  0.4446 -0.3329
27610SOL     OW92759  12.912   5.977   3.083  0.1955 -0.0577 -0.2056
27610SOL    HW192760  12.854   6.003   3.155 -0.4624  0.0436 -0.7584
27610SOL    HW292761  12.999   6.002   3.113  0.2394 -1.9510  1.4606
27611SOL     OW92762  10.788  11.441   0.203 -0.5173 -0.5032  0.3485
27611SOL    HW192763  10.879  11.416   0.190 -0.0309  1.4512 -0.2485
27611SOL    HW292764  10.779  11.451   0.298  0.9908  2.8624  0.2855
27612SOL     OW92765  10.483   5.553   6.400  0.6004 -0.1637  0.6385
27612SOL    HW192766  10.453   5.643   6.411 -1.8378 -0.9348  0.9610
27612SOL    HW292767  10.449   5.526   6.315  1.4205 -0.7458  0.4857
27613SOL     OW92768   9.486   8.508   6.894  0.5091  0.3875  0.0423
27613SOL    HW192769   9.394   8.484   6.910  0.9621 -1.1141  0.6068
27613SOL    HW292770   9.483   8.564   6.816 -0.8208 -0.1430 -0.3236
27614SOL     OW92771   5.619   4.245  12.251 -0.2788 -0.4589  0.2223
27614SOL    HW192772   5.588   4.156  12.268  0.3819 -0.2763  2.8829
27614SOL    HW292773   5.543   4.301  12.267 -0.3816 -0.4731 -0.2259
27615SOL     OW92774   4.563  10.677   7.503 -0.1442  0.3943 -0.0282
27615SOL    HW192775   4.656  10.690   7.519 -0.2919  0.3725  0.9219
27615SOL    HW292776   4.520  10.751   7.548 -0.5616  0.6682 -0.8496
27616SOL     OW92777  11.676  12.434   6.968  0.0626 -0.1243  0.2702
27616SOL    HW192778  11.731  12.505   6.936  0.0481 -0.2626 -0.0683
27616SOL    HW292779  11.731  12.387   7.031  0.3723 -0.3250 -0.1433
27617SOL     OW92780   9.106   5.091  10.477  0.0548  0.3002  0.3524
27617SOL    HW192781   9.145   5.125  10.558  0.2947  2.5028 -0.6036
27617SOL    HW292782   9.176   5.041  10.436  0.9651  1.7392  0.0772
27618SOL     OW92783  11.320  10.276   4.770 -0.3796 -0.4865 -0.0305
27618SOL    HW192784  11.329  10.359   4.816 -0.9591  0.1853 -1.0797
27618SOL    HW292785  11.324  10.210   4.838 -0.3105  0.4233  0.8701
27619SOL     OW92786  10.264  11.083   1.466  0.2659 -0.2747 -0.0133
27619SOL    HW192787  10.256  10.999   1.511 -0.7029  0.2284  0.7946
27619SOL    HW292788  10.247  11.148   1.534 -0.4507  0.5262 -0.9335
27620SOL     OW92789   4.544  10.260   3.502 -0.6338  0.2104 -0.4717
27620SOL    HW192790   4.502  10.276   3.418 -0.7469 -0.1792 -0.4892
27620SOL    HW292791   4.474  10.274   3.566 -0.5916  0.3334 -0.4517
27621SOL     OW92792   8.802   0.313   0.009  0.1277 -0.4179  0.3844
27621SOL    HW192793   8.791   0.406  -0.013  0.7490 -0.5858 -0.7125
27621SOL    HW292794   8.716   0.286   0.041 -0.5887  0.1123 -0.9734
27622SOL     OW92795   5.838   4.834  11.302 -0.0298 -0.1182 -0.1773
27622SOL    HW192796   5.871   4.750  11.272  0.0253 -0.4881  0.8566
27622SOL    HW292797   5.746   4.817  11.326  0.1553 -0.0553  0.6288
27623SOL     OW92798   7.255   6.979   8.945 -0.0798  0.0308  0.0302
27623SOL    HW192799   7.208   6.931   9.014 -0.0806  0.0952  0.0732
27623SOL    HW292800   7.205   7.060   8.934  0.8913  0.8225  1.1665
27624SOL     OW92801  12.460  11.765   3.856  0.4881  0.1025 -0.3795
27624SOL    HW192802  12.486  11.853   3.830  0.1325  0.7122  1.1858
27624SOL    HW292803  12.365  11.766   3.855  0.4577  0.1423  0.8092
27625SOL     OW92804  11.206  10.173   1.072 -0.2625  0.4154  0.0530
27625SOL    HW192805  11.207  10.221   1.154 -1.7326  1.7534 -0.6497
27625SOL    HW292806  11.138  10.106   1.084 -0.3076  0.4552  0.0252
27626SOL     OW92807   3.491   0.823   7.878 -0.2434 -0.1292  0.6068
27626SOL    HW192808   3.489   0.893   7.943 -4.7946  0.3721  0.2515
27626SOL    HW292809   3.449   0.861   7.801  2.4703 -1.5751 -1.7717
27627SOL     OW92810   5.410  10.852   9.600 -0.2108 -0.1261 -0.4878
27627SOL    HW192811   5.341  10.822   9.541  0.3582 -3.6540  0.4463
27627SOL    HW292812   5.364  10.877   9.680 -0.6252  0.7233 -0.9730
27628SOL     OW92813  11.117   8.367   2.097  0.3901 -0.1319 -0.3885
27628SOL    HW192814  11.096   8.436   2.034 -2.0112  0.0093  0.4566
27628SOL    HW292815  11.065   8.292   2.068  0.1100 -0.4070  0.7792
27629SOL     OW92816  10.294   8.564   7.944  0.4252 -0.7304  0.3233
27629SOL    HW192817  10.355   8.633   7.972  1.1214  1.3931 -5.0618
27629SOL    HW292818  10.349   8.500   7.899 -0.8874 -0.6855 -1.4561
27630SOL     OW92819   7.577   7.983   7.630 -0.1333  0.2698 -0.0818
27630SOL    HW192820   7.540   7.978   7.718  1.0920  0.5893  0.4852
27630SOL    HW292821   7.526   7.921   7.578  1.4199 -2.7683  1.7256
27631SOL     OW92822  10.071   3.511   3.120  0.2501  0.3377 -0.2766
27631SOL    HW192823  10.094   3.603   3.127  0.1312  0.4141 -0.7997
27631SOL    HW292824  10.002   3.497   3.185  2.3454 -0.1041  1.9626
27632SOL     OW92825  10.814   6.459  13.025  0.7247  0.5673 -0.3285
27632SOL    HW192826  10.821   6.365  13.011 -1.0627  0.3325  0.2001
27632SOL    HW292827  10.749   6.488  12.961  0.1642  1.1943  0.5131
27633SOL     OW92828   9.804  11.227   1.117  0.1942 -0.6512  0.4606
27633SOL    HW192829   9.895  11.254   1.108 -0.3317  1.2791  0.2962
27633SOL    HW292830   9.791  11.218   1.212 -0.2555  2.4993  0.8070
27634SOL     OW92831   3.390  10.318   4.149 -0.7960 -0.2521  0.1470
27634SOL    HW192832   3.385  10.248   4.214  1.1287 -2.2348 -1.6419
27634SOL    HW292833   3.378  10.273   4.065  0.7681  1.4887 -1.1041
27635SOL     OW92834  11.087   6.654   3.286  0.0396 -0.8278  0.1194
27635SOL    HW192835  11.167   6.608   3.313  0.9198 -0.2660 -1.4213
27635SOL    HW292836  11.105   6.746   3.304 -0.6015 -0.7760  0.5350
27636SOL     OW92837  10.003  12.968   2.564  0.0318 -0.4575  0.2028
27636SOL    HW192838  10.035  12.919   2.640  1.9637  1.1662  0.5211
27636SOL    HW292839   9.922  13.009   2.595 -0.4877 -1.7142  0.5873
27637SOL     OW92840   5.836   2.329   6.275  0.3663 -0.1897  0.4762
27637SOL    HW192841   5.779   2.398   6.308  1.9766  1.7967 -0.6278
27637SOL    HW292842   5.856   2.274   6.351 -0.5498  0.8624  1.5016
27638SOL     OW92843   3.127   0.169  12.596  0.3401 -0.0456 -0.0851
27638SOL    HW192844   3.184   0.168  12.519  0.4747 -1.1822  0.0143
27638SOL    HW292845   3.106   0.262  12.609 -1.4526  0.0280 -2.7578
27639SOL     OW92846   3.954   7.983   7.639 -0.7655  0.4597  0.4791
27639SOL    HW192847   3.891   8.030   7.693 -1.6313 -0.7676  0.5627
27639SOL    HW292848   3.928   7.891   7.645 -1.3194  0.3037 -2.5303
27640SOL     OW92849   3.974   5.981   5.179  0.0661  0.5525 -0.2076
27640SOL    HW192850   4.065   5.976   5.209 -0.3406  0.4358  1.0685
27640SOL    HW292851   3.927   6.020   5.253 -1.0260  0.0210 -0.6116
27641SOL     OW92852   3.645   9.827   5.472  0.0684 -0.8435 -0.9304
27641SOL    HW192853   3.589   9.762   5.514  0.6059 -1.4801 -1.1767
27641SOL    HW292854   3.591   9.865   5.403 -1.0512  0.6656  0.6821
27642SOL     OW92855  10.479   5.951   7.329  0.0916 -0.3107 -0.2102
27642SOL    HW192856  10.564   5.994   7.335  0.2971 -0.4735 -1.5978
27642SOL    HW292857  10.500   5.860   7.309 -0.4086 -0.3905 -0.3696
27643SOL     OW92858   3.587   0.985  12.138 -0.0243 -0.0326  0.3145
27643SOL    HW192859   3.549   0.958  12.222 -0.6693  0.7343  0.2768
27643SOL    HW292860   3.607   0.903  12.093  2.2580 -0.5330  2.0504
27644SOL     OW92861   6.909   5.166   4.120  0.0112 -0.8314  0.8220
27644SOL    HW192862   6.994   5.123   4.113 -0.6937 -2.0546 -1.1146
27644SOL    HW292863   6.853   5.119   4.058 -1.7213  0.7790  1.0645
27645SOL     OW92864   1.290  12.336   7.992  0.2143  0.5967 -0.5503
27645SOL    HW192865   1.208  12.378   8.017  0.0828  0.8941 -1.4438
27645SOL    HW292866   1.263  12.254   7.950  0.3956  0.4901 -0.4609
27646SOL     OW92867  11.137   0.094   5.185 -0.6134  0.2292 -0.1337
27646SOL    HW192868  11.198   0.053   5.124  0.0426 -2.4394  2.1436
27646SOL    HW292869  11.071   0.134   5.129  1.0587 -0.2457 -2.6011
27647SOL     OW92870   1.507  10.554  10.946 -0.0926  0.0136 -0.0154
27647SOL    HW192871   1.479  10.644  10.964  1.2069  0.8210 -1.7744
27647SOL    HW292872   1.437  10.500  10.982  0.5079  1.5190  3.9007
27648SOL     OW92873  10.155   8.067   4.235 -0.2928 -0.0875  0.5453
27648SOL    HW192874  10.177   8.160   4.231  0.0811 -0.1645  0.8935
27648SOL    HW292875  10.147   8.041   4.143 -0.8673  0.3948  0.4467
27649SOL     OW92876   4.709  11.236   8.176 -0.3649 -0.5780  0.7157
27649SOL    HW192877   4.803  11.226   8.190 -0.3838  0.4716  1.7592
27649SOL    HW292878   4.670  11.163   8.224 -0.1961  0.6210  2.7907
27650SOL     OW92879   9.823   3.302   2.232 -0.1963  0.3233 -0.0436
27650SOL    HW192880   9.919   3.310   2.226 -0.3177  1.3768 -1.2891
27650SOL    HW292881   9.799   3.250   2.155 -0.6116 -0.0572  0.3441
27651SOL     OW92882   7.643   5.113   0.560 -0.2709 -0.3369 -0.1539
27651SOL    HW192883   7.614   5.205   0.560  3.7405  1.1492 -0.7421
27651SOL    HW292884   7.640   5.088   0.652 -1.4684  0.3259  0.0149
27652SOL     OW92885  10.667   4.555   3.701  0.0208  0.2890 -0.6325
27652SOL    HW192886  10.703   4.466   3.696  0.3026  0.3393  0.3832
27652SOL    HW292887  10.664   4.584   3.610  0.1573 -0.6689 -0.9603
27653SOL     OW92888   0.445   0.867   4.042 -0.8861 -0.2129 -0.0471
27653SOL    HW192889   0.510   0.937   4.044 -0.7289 -0.2318 -2.2404
27653SOL    HW292890   0.372   0.902   4.092 -0.8179  1.5883 -1.0942
27654SOL     OW92891   0.880   8.521   1.590 -0.1797  0.6779  0.2661
27654SOL    HW192892   0.859   8.612   1.613  1.3950  0.4989  2.7130
27654SOL    HW292893   0.885   8.475   1.674  1.0590 -1.2167 -0.7770
27655SOL     OW92894   2.281   3.602  12.109 -0.0488  0.5230  0.4440
27655SOL    HW192895   2.247   3.687  12.138 -0.0322  0.1248  1.6842
27655SOL    HW292896   2.349   3.581  12.174  0.3882 -0.1418 -0.2247
27656SOL     OW92897  11.572   7.789  12.996  0.0266 -0.1411 -0.4115
27656SOL    HW192898  11.596   7.765  13.085  0.6963  0.7071 -0.3469
27656SOL    HW292899  11.562   7.884  12.999  1.3887  0.0675 -1.5205
27657SOL     OW92900   0.559   4.545   1.537 -0.0025  0.0248 -0.3677
27657SOL    HW192901   0.576   4.495   1.617  0.7011  0.1946 -0.4104
27657SOL    HW292902   0.520   4.481   1.477  0.4124 -0.3493 -0.2437
27658SOL     OW92903   1.776   0.994   8.334  0.4536  0.0722  0.7734
27658SOL    HW192904   1.845   1.045   8.293  0.5715 -1.7792 -1.5945
27658SOL    HW292905   1.695   1.024   8.291  0.4936 -1.3936 -0.4434
27659SOL     OW92906  10.845  11.184  11.504  0.7369  0.1835 -0.8361
27659SOL    HW192907  10.769  11.132  11.531  0.1210  1.7516  0.6451
27659SOL    HW292908  10.832  11.198  11.410 -1.1731  0.9161 -0.5133
27660SOL     OW92909   5.241   0.747   1.212 -0.3988  0.3110 -0.0748
27660SOL    HW192910   5.322   0.784   1.177 -0.4741  0.9094  0.3630
27660SOL    HW292911   5.249   0.652   1.198  0.1423  0.4190 -0.5042
27661SOL     OW92912  13.244   9.899  12.496 -0.0675  0.4375  0.4366
27661SOL    HW192913  13.277   9.985  12.523  1.1518 -0.1018  0.7090
27661SOL    HW292914  13.314   9.838  12.518 -1.5415 -0.8721  1.7391
27662SOL     OW92915   8.644   1.642   1.041  0.2134 -0.0704  0.1312
27662SOL    HW192916   8.602   1.607   1.120  0.2514  1.6684  0.9743
27662SOL    HW292917   8.573   1.647   0.976  0.0662 -1.0281  0.2047
27663SOL     OW92918  10.588   2.868   5.065 -0.2411 -0.3451 -0.3765
27663SOL    HW192919  10.616   2.959   5.072  1.3531 -0.8343  0.2257
27663SOL    HW292920  10.493   2.871   5.067 -0.2053  1.2830 -0.0995
27664SOL     OW92921  10.285  11.136   1.920 -0.4834  0.0780 -0.4827
27664SOL    HW192922  10.262  11.183   1.840  0.4934  2.3801  0.5155
27664SOL    HW292923  10.377  11.111   1.907  0.0986  1.6591  0.4289
27665SOL     OW92924  11.033  12.498  10.418  0.3804  0.2141 -0.1784
27665SOL    HW192925  10.978  12.574  10.399  0.1296  0.2153  0.5425
27665SOL    HW292926  11.039  12.495  10.513  1.4663  0.0961 -0.2331
27666SOL     OW92927   0.083   2.333   2.408  0.2200  0.0537 -0.2657
27666SOL    HW192928   0.024   2.386   2.463  2.2197  0.1065  1.9583
27666SOL    HW292929   0.153   2.394   2.383  1.2763 -0.9036  0.2935
27667SOL     OW92930  12.200   8.325   5.435  0.3878 -0.7791 -0.2831
27667SOL    HW192931  12.274   8.294   5.382 -0.0893 -3.7994  0.6004
27667SOL    HW292932  12.132   8.259   5.421 -0.1586 -1.1013  3.1152
27668SOL     OW92933  10.843   2.471   5.417 -0.0658 -0.0680  0.0170
27668SOL    HW192934  10.799   2.542   5.369 -0.4816  0.4096  1.0635
27668SOL    HW292935  10.911   2.516   5.468  3.0546 -0.9590 -2.9507
27669SOL     OW92936   1.420  13.255   6.641 -0.0405 -0.5735 -0.2930
27669SOL    HW192937   1.401  13.250   6.735  1.7263 -0.9395  0.0865
27669SOL    HW292938   1.394  13.344   6.616  1.4171  0.2843  1.0567
27670SOL     OW92939  10.605   2.801   1.858 -0.0844 -0.7615  0.0139
27670SOL    HW192940  10.614   2.724   1.802  0.0878 -0.4757 -0.3570
27670SOL    HW292941  10.694   2.824   1.883 -0.1887 -1.1493  0.7780
27671SOL     OW92942   2.118   5.255   3.542 -0.0470 -0.3417 -0.2644
27671SOL    HW192943   2.085   5.345   3.546 -0.3679 -0.4884  2.0481
27671SOL    HW292944   2.208   5.263   3.513  0.0476  0.7902  0.3037
27672SOL     OW92945   4.367   0.914   6.337 -0.1110  0.0255  0.0402
27672SOL    HW192946   4.362   0.899   6.432 -1.2468 -0.1045 -0.0255
27672SOL    HW292947   4.447   0.868   6.310 -0.4272 -0.9845  0.7467
27673SOL     OW92948   4.065   4.810   2.375 -0.6877 -0.0435  0.6033
27673SOL    HW192949   4.057   4.719   2.347 -0.5389  0.0819  0.1300
27673SOL    HW292950   4.008   4.818   2.451 -1.4079 -0.3091  0.1023
27674SOL     OW92951   0.181   7.750   8.508 -0.4211  0.0334  0.1045
27674SOL    HW192952   0.209   7.679   8.565  1.7220  2.0569  1.7573
27674SOL    HW292953   0.235   7.740   8.430  0.0581  0.0099  0.4378
27675SOL     OW92954   3.737   9.432   7.932 -0.6572  0.2751  0.4062
27675SOL    HW192955   3.728   9.344   7.895  0.2718  0.3156  0.0585
27675SOL    HW292956   3.679   9.486   7.878 -1.2472 -0.1218  0.6343
27676SOL     OW92957   4.733   2.312  12.891  0.0132 -0.8584  1.0725
27676SOL    HW192958   4.661   2.298  12.829  0.1573  1.7094  0.2338
27676SOL    HW292959   4.802   2.352  12.839  2.0767 -3.0841  1.9011
27677SOL     OW92960  13.006  13.186   7.136 -0.6268  0.1081 -0.1099
27677SOL    HW192961  13.073  13.236   7.183 -1.1689 -0.2020  1.0371
27677SOL    HW292962  13.056  13.122   7.085 -0.0206  0.2095  0.3375
27678SOL     OW92963   1.783  12.081   8.604 -0.8541 -0.7441  0.1605
27678SOL    HW192964   1.713  12.141   8.630 -1.4200 -1.4203  0.2086
27678SOL    HW292965   1.819  12.119   8.524  0.5250  1.0717  1.5385
27679SOL     OW92966   6.375   6.097   3.334 -0.3295 -0.1064  0.1700
27679SOL    HW192967   6.428   6.018   3.346 -0.5394 -0.2748 -0.0006
27679SOL    HW292968   6.353   6.125   3.422 -0.6066 -0.4783  0.2206
27680SOL     OW92969   0.672   1.521  12.571 -0.2913  0.7052  0.3369
27680SOL    HW192970   0.699   1.440  12.528 -0.9450  0.9491 -0.5643
27680SOL    HW292971   0.739   1.585  12.545 -0.6953  0.8570 -0.3502
27681SOL     OW92972  13.108   7.096   7.295 -0.3169  0.5818  0.7239
27681SOL    HW192973  13.087   7.179   7.338 -2.3724  0.1447  0.6529
27681SOL    HW292974  13.045   7.034   7.330 -1.4130 -0.0559 -2.0868
27682SOL     OW92975   6.964  10.025   2.541 -0.6666  0.3786  0.1862
27682SOL    HW192976   6.917   9.942   2.538 -0.3536  0.2205 -0.9368
27682SOL    HW292977   6.972  10.046   2.634  0.3809 -1.4810  0.5499
27683SOL     OW92978  12.527   4.727   6.676  0.6645  0.5076  0.9163
27683SOL    HW192979  12.496   4.664   6.611  0.7174  0.5408  0.8586
27683SOL    HW292980  12.613   4.754   6.645  0.1879  1.4353  0.3520
27684SOL     OW92981   2.190   4.060   2.931 -0.0075  0.3927 -0.3827
27684SOL    HW192982   2.127   4.129   2.913 -0.7969 -0.7525 -2.2783
27684SOL    HW292983   2.143   3.979   2.910  1.5323 -0.6028 -0.1472
27685SOL     OW92984  10.527   6.983   8.066  0.0903 -0.0273  0.4753
27685SOL    HW192985  10.529   7.003   7.972  0.2936 -0.5252  0.3727
27685SOL    HW292986  10.565   7.061   8.108  1.3874 -0.4094  0.0412
27686SOL     OW92987   5.042   2.650   3.182 -0.0164 -0.4064 -0.5210
27686SOL    HW192988   5.021   2.632   3.273  0.5098 -1.3109 -0.5730
27686SOL    HW292989   5.117   2.594   3.162  2.3270  2.4667 -0.4332
27687SOL     OW92990   3.210   8.160   5.775  0.2181  0.0994  0.2492
27687SOL    HW192991   3.171   8.217   5.709  2.5354  0.3441 -1.0241
27687SOL    HW292992   3.251   8.220   5.837 -1.6752 -0.1393  1.8291
27688SOL     OW92993  11.211  11.939   6.950  0.1152 -0.2720  0.0231
27688SOL    HW192994  11.129  11.917   6.993 -0.9806  1.9728 -0.7437
27688SOL    HW292995  11.186  11.990   6.873  2.1530 -1.4156 -1.4995
27689SOL     OW92996   2.279  10.461   1.645  0.0650 -0.2745 -0.7746
27689SOL    HW192997   2.304  10.453   1.553  1.4072 -0.3821 -0.4201
27689SOL    HW292998   2.201  10.406   1.653  0.7259 -1.3726 -1.5541
27690SOL     OW92999   3.617  10.509  10.019 -0.1256  0.7933 -0.5315
27690SOL    HW193000   3.553  10.560  10.070  0.0750  0.4657  0.0623
27690SOL    HW293001   3.633  10.562   9.941 -2.0186  0.3402 -1.2857
27691SOL     OW93002   4.804   9.940   2.866 -0.7288  0.0075 -0.8066
27691SOL    HW193003   4.786   9.969   2.776 -2.0810  2.1790  0.0791
27691SOL    HW293004   4.756   9.858   2.875 -3.0163  1.2176 -1.2554
27692SOL     OW93005  13.229   0.842  11.791  0.4514 -0.0346 -0.2992
27692SOL    HW193006  13.172   0.860  11.717  0.4654  0.8526 -0.0996
27692SOL    HW293007  13.233   0.746  11.795 -0.7230 -0.1087 -0.5392
27693SOL     OW93008   8.974   9.748  12.207  0.1455 -0.7553 -0.2640
27693SOL    HW193009   8.936   9.669  12.245  2.2727 -1.5831  0.2854
27693SOL    HW293010   8.976   9.731  12.113 -0.4844 -0.8284 -0.2709
27694SOL     OW93011   7.243   8.068   9.674  0.0223 -1.0621  0.3627
27694SOL    HW193012   7.252   7.981   9.635 -0.3526 -0.1432 -1.8767
27694SOL    HW293013   7.313   8.120   9.634 -1.2117  0.2700 -0.1634
27695SOL     OW93014   8.450   9.698   9.015 -0.3027  0.2165  0.4940
27695SOL    HW193015   8.360   9.684   8.985 -0.3071  2.2639 -0.6253
27695SOL    HW293016   8.445   9.774   9.072  0.8704  1.0359 -0.4481
27696SOL     OW93017  13.269   1.477   3.976  0.0206  0.3934 -0.2528
27696SOL    HW193018  13.181   1.515   3.980  0.2351  0.8777  0.0078
27696SOL    HW293019  13.288   1.451   4.066 -0.1881 -0.4981 -0.4584
27697SOL     OW93020  12.184   3.928   2.833  0.1766 -0.3260  0.4075
27697SOL    HW193021  12.135   3.953   2.755 -1.2523 -0.2375  1.2967
27697SOL    HW293022  12.179   3.832   2.835  1.9808 -0.4776 -0.6889
27698SOL     OW93023   1.484   3.361   0.586  0.3690 -0.1400  0.2171
27698SOL    HW193024   1.495   3.318   0.670  1.1388 -0.1551  0.1137
27698SOL    HW293025   1.560   3.333   0.534 -0.8422 -1.3373 -1.0126
27699SOL     OW93026   7.494  10.262   1.641 -0.3032 -0.4776  0.2966
27699SOL    HW193027   7.415  10.285   1.689  1.1212  1.5335  1.8224
27699SOL    HW293028   7.494  10.166   1.639 -2.4262 -0.5321  0.7840
27700SOL     OW93029  11.449  10.392   7.700  0.2935 -0.3409 -0.0763
27700SOL    HW193030  11.358  10.418   7.711  0.4339 -0.2113  0.8856
27700SOL    HW293031  11.497  10.442   7.767  0.8228 -1.6762  0.5819
27701SOL     OW93032   9.465  11.986   8.361  0.0623 -0.0588 -0.7036
27701SOL    HW193033   9.400  11.942   8.416  0.9016  2.5072  2.7132
27701SOL    HW293034   9.549  11.947   8.388  0.2980 -0.9096 -2.5301
27702SOL     OW93035   6.071   9.895  12.395 -0.3253 -0.0757  0.3206
27702SOL    HW193036   6.092   9.957  12.464 -1.9756 -0.0025  0.7828
27702SOL    HW293037   5.976   9.896  12.389 -0.3197 -1.5702 -0.5830
27703SOL     OW93038   1.563  12.830  12.356  0.4121 -0.1518  0.2906
27703SOL    HW193039   1.612  12.890  12.413 -1.9403  0.0455  2.2651
27703SOL    HW293040   1.615  12.750  12.356  1.6598  0.6155  0.7787
27704SOL     OW93041  10.430  12.475   1.472  0.4223 -0.0374 -0.6310
27704SOL    HW193042  10.431  12.571   1.474  0.0224 -0.0346 -0.4975
27704SOL    HW293043  10.434  12.449   1.564 -1.2457 -0.1159 -0.5343
27705SOL     OW93044   1.207   0.602   4.321  0.2824 -0.1480  0.1765
27705SOL    HW193045   1.192   0.664   4.249 -0.0605  0.6740  0.9395
27705SOL    HW293046   1.190   0.653   4.400 -2.7382 -1.9007  0.8045
27706SOL     OW93047  13.264   2.213   0.315 -0.4223  0.5953 -0.6092
27706SOL    HW193048  13.244   2.120   0.315  0.3814  0.3607 -2.9484
27706SOL    HW293049  13.178   2.255   0.306 -0.7134  0.0438 -0.4715
27707SOL     OW93050   4.886   7.185   3.957 -0.0016 -0.2791 -0.2217
27707SOL    HW193051   4.792   7.196   3.941 -0.2356 -1.5133  0.2244
27707SOL    HW293052   4.893   7.166   4.051  0.5231 -1.8651 -0.5581
27708SOL     OW93053   4.847   3.980   7.521  0.2874  0.1423  0.0041
27708SOL    HW193054   4.882   3.922   7.452  0.6129  0.0708  0.2253
27708SOL    HW293055   4.759   3.947   7.537  0.4689 -0.3011  0.1304
27709SOL     OW93056   9.975  10.916   0.028  0.6538 -0.1300 -0.1166
27709SOL    HW193057   9.970  10.993  -0.029  2.1145 -0.8044 -1.2421
27709SOL    HW293058   9.927  10.940   0.107  1.5314  2.1322 -0.2120
27710SOL     OW93059  13.204  12.148   6.133  0.3761  0.1953 -0.3628
27710SOL    HW193060  13.275  12.083   6.125 -1.2271 -1.9466  1.4393
27710SOL    HW293061  13.124  12.097   6.122 -0.9601  2.1225 -0.0471
27711SOL     OW93062  11.825  13.185   3.684 -1.0967  0.3540  0.1988
27711SOL    HW193063  11.793  13.208   3.771 -2.5549  0.2278 -0.2654
27711SOL    HW293064  11.897  13.245   3.667 -1.1307  0.7149  1.2871
27712SOL     OW93065   8.169   6.434  10.906 -0.5492 -0.2568 -0.2935
27712SOL    HW193066   8.134   6.369  10.966  1.8069 -1.2346  0.1272
27712SOL    HW293067   8.156   6.396  10.819 -2.1904  0.2845 -0.3265
27713SOL     OW93068   0.944   7.159   4.343  0.0955 -0.4091 -0.2696
27713SOL    HW193069   1.024   7.123   4.305  0.2336 -1.4942  1.0039
27713SOL    HW293070   0.966   7.174   4.435 -1.4184 -1.6098  0.3302
27714SOL     OW93071   0.370  10.176   7.941  0.2944  0.3576 -0.8581
27714SOL    HW193072   0.397  10.093   7.903 -0.2737 -0.4385  0.4210
27714SOL    HW293073   0.286  10.195   7.899  0.6092  0.4996 -1.4384
27715SOL     OW93074  10.063   7.074   0.071 -0.5346 -0.5113 -0.0748
27715SOL    HW193075  10.155   7.095   0.059 -0.5887 -0.2382 -0.0367
27715SOL    HW293076  10.048   7.086   0.165 -0.2392 -2.1130  0.1933
27716SOL     OW93077   5.854   8.584  12.656 -0.0180  0.4346 -0.7756
27716SOL    HW193078   5.824   8.497  12.685  1.2507  0.2671  0.0998
27716SOL    HW293079   5.786   8.644  12.687 -0.6850 -0.1820 -0.9960
27717SOL     OW93080   6.820  11.746   2.333  0.5035  0.0896  0.3666
27717SOL    HW193081   6.795  11.836   2.355  0.2637 -0.1863  1.2437
27717SOL    HW293082   6.795  11.695   2.409  1.7710 -0.5328  0.3873
27718SOL     OW93083  10.881  10.746   3.685 -0.6096 -0.2943  0.2667
27718SOL    HW193084  10.834  10.664   3.699 -0.4428 -0.1848  1.5844
27718SOL    HW293085  10.861  10.770   3.595 -1.4014 -1.3160  0.1562
27719SOL     OW93086   5.202   3.296   9.185 -0.2497  0.3440 -0.2047
27719SOL    HW193087   5.203   3.391   9.197 -0.6370  0.5319 -1.4122
27719SOL    HW293088   5.187   3.260   9.272  2.1234  1.2729  0.6543
27720SOL     OW93089   1.280  12.797   7.848 -0.6363 -0.1222 -0.1259
27720SOL    HW193090   1.290  12.841   7.763 -2.2622  1.0170  0.2400
27720SOL    HW293091   1.355  12.737   7.852  0.3628  0.9340 -1.6639
27721SOL     OW93092   0.330  11.448  11.028  0.3173  0.2380  0.2606
27721SOL    HW193093   0.321  11.396  11.108 -0.1336  0.1634  0.1679
27721SOL    HW293094   0.390  11.518  11.051 -0.8307  1.0058  1.0779
27722SOL     OW93095   2.076   0.929  11.941  0.3769  0.2111 -0.0616
27722SOL    HW193096   2.088   0.834  11.938 -0.1170  0.0226  2.0645
27722SOL    HW293097   2.056   0.948  12.033 -0.4586  2.2658 -0.5986
27723SOL     OW93098   2.984   7.775   2.343  0.1152 -0.6125  0.2576
27723SOL    HW193099   2.900   7.819   2.359 -0.1264 -0.5627 -1.0206
27723SOL    HW293100   3.050   7.838   2.370 -0.2593 -0.4355  0.7682
27724SOL     OW93101  11.121   0.821   4.134 -0.2654 -0.2070 -0.4704
27724SOL    HW193102  11.105   0.897   4.189  0.5226 -0.6336  0.3758
27724SOL    HW293103  11.073   0.750   4.177  1.1887 -0.7731  0.2794
27725SOL     OW93104  11.064   0.050   7.153 -0.1744 -0.0889 -0.0210
27725SOL    HW193105  11.075   0.133   7.200 -0.0530  0.4098 -0.9152
27725SOL    HW293106  11.133  -0.006   7.189  0.5400  0.5973 -0.2824
27726SOL     OW93107   5.389  10.186   0.953 -0.3575  1.0265  0.7443
27726SOL    HW193108   5.367  10.248   1.022 -1.7811  0.4737  0.8030
27726SOL    HW293109   5.306  10.148   0.926  0.4038 -0.2980  0.1616
27727SOL     OW93110   8.487  12.264  12.085  0.0295  0.4007  0.7306
27727SOL    HW193111   8.581  12.251  12.077 -0.1924 -0.4013 -1.1702
27727SOL    HW293112   8.451  12.235  12.001 -1.6770  3.0059  0.4290
27728SOL     OW93113  10.289  13.243   9.033  0.4504 -0.0951  0.1837
27728SOL    HW193114  10.243  13.176   8.983  0.5698 -0.3514  0.4146
27728SOL    HW293115  10.241  13.250   9.115  0.1532  0.4483 -0.0301
27729SOL     OW93116  11.652   3.618   0.869  0.2949  0.1180  0.0404
27729SOL    HW193117  11.650   3.667   0.951  0.4148  2.0096 -1.0396
27729SOL    HW293118  11.581   3.554   0.878 -0.8884  1.4957  0.8914
27730SOL     OW93119   5.957   6.828  12.577  0.4382  0.2494 -0.2898
27730SOL    HW193120   5.884   6.890  12.583 -1.0285 -1.3357 -0.9071
27730SOL    HW293121   5.952   6.778  12.659  0.2410 -0.4505 -0.7188
27731SOL     OW93122   6.836   9.348   8.109 -0.1116 -0.3431  0.0594
27731SOL    HW193123   6.873   9.285   8.047  3.6654  0.0135  1.7274
27731SOL    HW293124   6.839   9.432   8.062  1.8811 -0.2238  0.3406
27732SOL     OW93125   4.633   6.191   0.952  0.1017 -1.0636 -0.5488
27732SOL    HW193126   4.636   6.156   1.041 -0.6836 -0.9245 -0.4580
27732SOL    HW293127   4.540   6.189   0.929  0.0616  0.6367 -0.6708
27733SOL     OW93128  11.811   9.012   3.780  0.7438 -0.0172  0.5224
27733SOL    HW193129  11.890   9.066   3.771  0.5854  0.1516  0.0933
27733SOL    HW293130  11.795   9.008   3.874  0.6252  0.8872  0.5526
27734SOL     OW93131   5.529   9.126   5.416 -0.0890  0.0172 -0.4394
27734SOL    HW193132   5.538   9.090   5.505 -1.8681 -1.2807 -0.7150
27734SOL    HW293133   5.448   9.085   5.383 -0.7559  2.2881 -1.7936
27735SOL     OW93134  10.485   0.843   4.837 -0.5159 -0.0441  0.0561
27735SOL    HW193135  10.478   0.907   4.766 -1.1973 -0.8742 -0.6390
27735SOL    HW293136  10.579   0.829   4.846 -0.2541  1.9895  1.0950
27736SOL     OW93137  10.515   8.423   5.315 -0.0312 -0.0257 -0.0399
27736SOL    HW193138  10.605   8.391   5.321 -0.4537 -1.1653  0.6099
27736SOL    HW293139  10.471   8.384   5.391 -2.0428 -2.7401 -2.3636
27737SOL     OW93140   2.988   9.808   2.218 -0.5066 -0.3618  0.6092
27737SOL    HW193141   2.980   9.879   2.281  1.2208  1.2207 -0.8385
27737SOL    HW293142   3.062   9.756   2.250  0.8292  0.8467 -0.4142
27738SOL     OW93143  12.367  12.318   5.004  0.1192 -0.5061  0.4407
27738SOL    HW193144  12.435  12.256   5.030  1.1251  0.5444  0.3802
27738SOL    HW293145  12.359  12.377   5.079  0.2430  0.1817 -0.0769
27739SOL     OW93146   3.667   3.556  12.534 -0.3634  0.1748  0.4386
27739SOL    HW193147   3.678   3.536  12.441 -1.7328  1.2723  0.0043
27739SOL    HW293148   3.688   3.474  12.579 -1.3211 -0.8627 -0.9424
27740SOL     OW93149   2.499   8.742   9.443  0.1363 -0.2389  0.3614
27740SOL    HW193150   2.449   8.661   9.446  0.7329 -0.6304  0.0765
27740SOL    HW293151   2.554   8.740   9.521  0.4764 -0.3350  0.1263
27741SOL     OW93152  12.680   3.663  11.549 -0.4705 -0.3976 -0.1988
27741SOL    HW193153  12.601   3.689  11.502 -1.9064 -0.7472  1.8961
27741SOL    HW293154  12.648   3.613  11.624  1.8613 -2.2775 -0.3536
27742SOL     OW93155   8.534   0.258  11.983  0.0404 -0.1561  0.5038
27742SOL    HW193156   8.629   0.253  11.975 -0.0992 -1.4877 -0.6852
27742SOL    HW293157   8.513   0.196  12.053 -0.0319 -0.8766 -0.1371
27743SOL     OW93158  12.940   2.178   5.145  0.3477 -0.1820  0.2857
27743SOL    HW193159  12.854   2.206   5.177  0.2668  0.7923 -0.7344
27743SOL    HW293160  12.976   2.127   5.217 -0.8684 -0.1669  0.9360
27744SOL     OW93161   3.055   4.394   1.732 -0.0116 -0.3449  0.1035
27744SOL    HW193162   3.061   4.464   1.666  0.6289  0.6077  1.1327
27744SOL    HW293163   3.050   4.441   1.815  1.6447 -1.5417  0.9121
27745SOL     OW93164   0.917   5.545  10.708 -0.1139  0.5578 -0.2401
27745SOL    HW193165   0.846   5.605  10.732  0.6053  0.7117  1.7305
27745SOL    HW293166   0.972   5.542  10.786  1.5650 -0.2595 -1.4090
27746SOL     OW93167   7.905   6.873  10.109 -0.5393  0.4289 -0.1850
27746SOL    HW193168   7.873   6.851  10.022  0.0809 -1.8006  0.0883
27746SOL    HW293169   7.892   6.793  10.160  3.1173  0.1443  0.5702
27747SOL     OW93170   4.857   9.552   3.490 -0.8932 -0.2943 -0.0061
27747SOL    HW193171   4.819   9.584   3.571 -3.2825 -1.6968 -0.4786
27747SOL    HW293172   4.784   9.512   3.443  0.3618  0.5729 -2.9375
27748SOL     OW93173  11.095   8.372   6.824  0.3567 -0.1796  0.2012
27748SOL    HW193174  11.037   8.304   6.792 -1.2368  1.5181 -0.7404
27748SOL    HW293175  11.045   8.416   6.893  0.6291  1.0560 -0.3473
27749SOL     OW93176   4.512   1.543   8.608  0.4154 -0.3075 -0.4576
27749SOL    HW193177   4.491   1.618   8.663 -1.1709 -0.7702 -0.3621
27749SOL    HW293178   4.502   1.575   8.519 -0.0311 -0.3246 -0.4184
27750SOL     OW93179   4.854  10.686  10.849  0.2311  0.3117  0.0558
27750SOL    HW193180   4.813  10.773  10.857 -2.8204 -0.9752 -0.0772
27750SOL    HW293181   4.900  10.674  10.932  0.4082  1.8908  0.2292
27751SOL     OW93182   8.076   6.847  10.449 -0.2527 -0.1840 -0.2437
27751SOL    HW193183   7.996   6.893  10.471  0.0520  0.3104 -0.1526
27751SOL    HW293184   8.064   6.759  10.486 -0.3870  0.1624  0.5474
27752SOL     OW93185   2.955  10.811   4.524 -0.0148 -0.2307 -0.1427
27752SOL    HW193186   2.936  10.743   4.588 -1.3876  0.2604  0.0061
27752SOL    HW293187   2.907  10.887   4.555  2.4364  1.2233  0.3552
27753SOL     OW93188   1.146   2.576   9.504 -0.2259 -0.3222  0.2806
27753SOL    HW193189   1.177   2.655   9.547 -1.6828 -0.4093  1.6187
27753SOL    HW293190   1.110   2.523   9.575  0.2266 -1.9634 -0.6523
27754SOL     OW93191   0.153   4.252   4.019 -0.3732 -0.2214 -0.0968
27754SOL    HW193192   0.235   4.225   4.060  0.2656 -2.0867 -2.3750
27754SOL    HW293193   0.174   4.333   3.973  0.2190 -0.6952 -0.6749
27755SOL     OW93194   3.288   8.639   8.989 -0.0705 -0.0047  0.1765
27755SOL    HW193195   3.209   8.584   8.991  0.0518 -0.2023 -0.4595
27755SOL    HW293196   3.354   8.585   8.946 -0.2468  1.0154 -1.4607
27756SOL     OW93197  11.134   4.387   0.397  0.1599  0.0550  0.0456
27756SOL    HW193198  11.136   4.483   0.403  2.0686  0.0736 -0.0828
27756SOL    HW293199  11.049   4.362   0.433  0.9534  1.6018  3.3514
27757SOL     OW93200  11.937   7.567   1.469  0.3381 -0.2979 -0.5361
27757SOL    HW193201  11.919   7.527   1.554 -2.0451  2.1319  0.2231
27757SOL    HW293202  11.869   7.532   1.411 -1.3684  1.9308 -0.0216
27758SOL     OW93203  10.730   6.305  11.463  0.2426 -0.0859  0.8114
27758SOL    HW193204  10.772   6.317  11.378  2.4320 -0.7217  1.7228
27758SOL    HW293205  10.668   6.233  11.450  1.2848 -0.8594 -0.0282
27759SOL     OW93206   0.409   4.259   0.265  0.2866 -0.4701  0.7869
27759SOL    HW193207   0.395   4.173   0.304  2.5706 -1.7358 -0.9304
27759SOL    HW293208   0.503   4.263   0.248 -0.1977  0.9445 -2.2898
27760SOL     OW93209   1.718   3.410   3.791 -0.2151 -0.2524  0.0762
27760SOL    HW193210   1.698   3.399   3.884  1.3652 -0.9492  0.3737
27760SOL    HW293211   1.634   3.433   3.750 -0.8282  0.6088  1.7473
27761SOL     OW93212  11.465   4.856  11.368  0.6183 -0.1488  0.3869
27761SOL    HW193213  11.502   4.814  11.445 -0.5976 -0.2068  0.9654
27761SOL    HW293214  11.415   4.930  11.403 -1.1383 -1.0181 -0.1925
27762SOL     OW93215   4.892  10.699   6.479 -0.4424 -0.3094  0.7402
27762SOL    HW193216   4.813  10.753   6.481  0.9658  1.9114  0.1263
27762SOL    HW293217   4.888  10.648   6.560 -1.5893  1.1580  1.6624
27763SOL     OW93218   6.252   3.690   1.073 -0.2090 -0.3561 -0.0389
27763SOL    HW193219   6.326   3.667   1.128  0.5679 -0.8243 -1.2447
27763SOL    HW293220   6.190   3.732   1.133  1.6303  1.4169  0.7167
27764SOL     OW93221   2.711  10.053   9.725 -0.3170 -0.2262 -0.0100
27764SOL    HW193222   2.744  10.000   9.797 -0.8484 -1.0948 -0.3863
27764SOL    HW293223   2.616  10.054   9.738 -0.3438  0.3357 -0.2182
27765SOL     OW93224   8.246   3.855  12.900  0.6167 -0.0539  0.4028
27765SOL    HW193225   8.202   3.844  12.816 -1.5624 -0.8395  1.5657
27765SOL    HW293226   8.235   3.948  12.921  1.9003  0.3343 -0.5093
27766SOL     OW93227   3.776  10.740  11.017 -0.4795 -0.3543 -0.2854
27766SOL    HW193228   3.768  10.650  11.048  0.4026 -0.0664  0.8199
27766SOL    HW293229   3.839  10.735  10.945 -1.8992 -0.8921 -1.5450
27767SOL     OW93230   5.197   4.793  12.463  0.1989  0.1109  0.4844
27767SOL    HW193231   5.268   4.730  12.467 -0.6845 -0.9392  0.1245
27767SOL    HW293232   5.189   4.814  12.369  0.0606  0.2652  0.5301
27768SOL     OW93233  10.672  10.394   5.439  0.2687  0.3771  0.2219
27768SOL    HW193234  10.648  10.317   5.490  0.0065 -0.2326 -0.7859
27768SOL    HW293235  10.662  10.467   5.500 -1.2132 -0.1891  0.7121
27769SOL     OW93236   8.677   9.572   5.439 -0.6300  0.0529 -0.4294
27769SOL    HW193237   8.743   9.637   5.462  1.7799 -1.6023 -2.1102
27769SOL    HW293238   8.646   9.538   5.523  2.5185 -0.7734  0.5416
27770SOL     OW93239  12.140   4.655  12.281  0.1175 -0.1352  0.1638
27770SOL    HW193240  12.065   4.600  12.301 -0.2235  0.7292  1.3734
27770SOL    HW293241  12.190   4.661  12.362  0.0393  1.4655  0.1388
27771SOL     OW93242   3.416   8.316  10.746  0.1296  0.0717 -0.7443
27771SOL    HW193243   3.397   8.400  10.705 -1.8053  0.7950  1.4520
27771SOL    HW293244   3.331   8.284  10.776  1.1535 -1.5078  0.6629
27772SOL     OW93245   5.767   1.282   2.332  0.7018  0.0837  0.0608
27772SOL    HW193246   5.709   1.272   2.406  0.9033  0.9977  0.3624
27772SOL    HW293247   5.790   1.376   2.332 -0.6683  0.4918 -2.1676
27773SOL     OW93248   9.213  12.977   9.296  0.3768 -0.1202 -0.3693
27773SOL    HW193249   9.135  12.926   9.275  1.4597 -3.4008  2.5212
27773SOL    HW293250   9.285  12.914   9.291  1.9787  1.2677  2.4774
27774SOL     OW93251   8.328  12.318   4.631 -0.4545  0.2558 -0.0957
27774SOL    HW193252   8.404  12.326   4.689  0.4613 -0.2390 -1.1846
27774SOL    HW293253   8.333  12.396   4.574  0.0019 -0.4205 -1.0138
27775SOL     OW93254   0.164   1.750   1.203  0.4798 -0.7936  0.1548
27775SOL    HW193255   0.176   1.776   1.111 -0.9280  0.1987  0.2257
27775SOL    HW293256   0.154   1.833   1.250 -1.8143 -1.3357  0.7483
27776SOL     OW93257   0.585   3.156  11.992  0.3535  0.6076 -0.3280
27776SOL    HW193258   0.627   3.222  12.046 -0.7081 -0.9347  2.5629
27776SOL    HW293259   0.597   3.074  12.040 -1.6607 -0.6761 -1.8487
27777SOL     OW93260   3.472   5.941  11.735  0.5479  0.0910 -0.1402
27777SOL    HW193261   3.398   5.914  11.681  0.1662 -0.9208  0.8570
27777SOL    HW293262   3.489   6.031  11.708 -0.9812  0.3124 -0.4700
27778SOL     OW93263   6.818   9.354   0.824 -0.4861  0.3080  0.1324
27778SOL    HW193264   6.824   9.443   0.789 -1.2226  0.3845  0.1812
27778SOL    HW293265   6.758   9.361   0.898 -0.5745 -0.2287  0.1193
27779SOL     OW93266   5.444   8.076  13.128  0.6682 -0.1411 -0.0460
27779SOL    HW193267   5.388   8.150  13.151 -0.4499 -0.6226 -1.0954
27779SOL    HW293268   5.518   8.116  13.081  0.2458  0.3456 -0.3091
27780SOL     OW93269   4.753   5.110  12.871 -0.5099 -0.5682  0.0840
27780SOL    HW193270   4.833   5.074  12.909 -0.6319  0.5846  1.4877
27780SOL    HW293271   4.736   5.190  12.920 -2.1238 -0.3889 -0.6921
27781SOL     OW93272   6.154   8.244  10.492  0.5298  0.0085 -0.5757
27781SOL    HW193273   6.093   8.195  10.546  0.0244  0.5281 -0.6754
27781SOL    HW293274   6.103   8.317  10.456  0.0409 -1.7946 -4.0084
27782SOL     OW93275   0.075  12.899   4.295 -0.4784 -0.0632 -0.7066
27782SOL    HW193276  -0.019  12.897   4.312 -0.2575  0.4504  0.6727
27782SOL    HW293277   0.082  12.924   4.202 -1.6912 -0.5924 -0.9592
27783SOL     OW93278   7.075   6.713   8.266 -0.1749 -0.3205  0.6912
27783SOL    HW193279   7.025   6.762   8.331 -1.1371 -1.2170  0.6621
27783SOL    HW293280   7.158   6.693   8.309  0.2482  1.3002  0.7000
27784SOL     OW93281   1.116   8.283   4.765  0.7414 -0.0045 -0.5317
27784SOL    HW193282   1.187   8.220   4.772  1.3740  0.4716 -2.1989
27784SOL    HW293283   1.100   8.311   4.855  1.5420 -1.3176  0.0505
27785SOL     OW93284  11.273   2.108   1.435 -0.0376  0.2931 -0.7973
27785SOL    HW193285  11.231   2.163   1.369 -0.3780 -0.3011 -1.0785
27785SOL    HW293286  11.206   2.044   1.459  0.3881 -0.0582 -0.5428
27786SOL     OW93287  11.269   7.473   0.355 -0.5344 -0.0096 -0.4264
27786SOL    HW193288  11.225   7.491   0.439  1.2686  0.4472  0.4662
27786SOL    HW293289  11.279   7.560   0.315 -1.0136 -0.1854 -0.9420
27787SOL     OW93290   0.183   9.718  10.346 -0.2466 -0.4957 -0.1491
27787SOL    HW193291   0.267   9.766  10.341  0.8509 -2.2567  0.5281
27787SOL    HW293292   0.128   9.762  10.281  0.4551  2.0690  0.8364
27788SOL     OW93293   5.234   2.255   9.131 -0.0526  0.2554  0.9368
27788SOL    HW193294   5.232   2.241   9.226  1.2207  1.6027  1.1904
27788SOL    HW293295   5.286   2.334   9.119  0.3455 -0.2420 -0.9488
27789SOL     OW93296  12.332   2.676   9.589  0.1840 -0.6245 -0.3412
27789SOL    HW193297  12.355   2.587   9.563  1.8302 -0.1204 -0.7090
27789SOL    HW293298  12.354   2.731   9.514 -1.0691  0.0876 -0.2293
27790SOL     OW93299   9.408   3.987  12.002  0.3357  0.3379  0.6818
27790SOL    HW193300   9.492   3.975  12.046  0.4304 -0.7429  0.2316
27790SOL    HW293301   9.429   3.985  11.909 -0.0227  1.4040  0.5628
27791SOL     OW93302  10.810   5.103   0.708 -0.0415 -0.1564 -0.1319
27791SOL    HW193303  10.826   5.037   0.775  0.8314 -1.3902 -1.4833
27791SOL    HW293304  10.838   5.061   0.626 -0.5395  1.4861 -1.1950
27792SOL     OW93305   0.134  12.246   5.471  0.4301 -0.0004  0.2109
27792SOL    HW193306   0.068  12.314   5.485 -0.4903 -0.6741 -0.6945
27792SOL    HW293307   0.201  12.288   5.417 -0.8770 -0.1878 -1.6632
27793SOL     OW93308   0.933   4.088   9.444  0.5234  0.0111 -0.5154
27793SOL    HW193309   0.868   4.030   9.485  1.4140 -0.0086  0.9297
27793SOL    HW293310   0.900   4.176   9.459  1.1638  0.0360  0.8685
27794SOL     OW93311   2.223   1.010  13.267  0.0703 -0.0943  0.5738
27794SOL    HW193312   2.167   1.086  13.284 -0.7393 -0.1305 -1.6179
27794SOL    HW293313   2.171   0.935  13.296 -0.7681 -0.0720 -0.7913
27795SOL     OW93314  11.483   0.749   8.088 -0.1338  0.1630 -0.1742
27795SOL    HW193315  11.442   0.751   8.001 -0.7834  1.7881  0.1407
27795SOL    HW293316  11.567   0.792   8.076  0.9257 -1.8691 -0.4981
27796SOL     OW93317   9.325   0.373   3.922  0.0259  0.0287  0.0969
27796SOL    HW193318   9.330   0.446   3.984  0.7081 -1.1004  1.4445
27796SOL    HW293319   9.399   0.317   3.946 -0.2035 -0.8676 -1.2048
27797SOL     OW93320   7.203   3.573   3.257 -0.3845 -0.5068  0.4933
27797SOL    HW193321   7.265   3.515   3.300  0.7292  0.3073  0.0402
27797SOL    HW293322   7.255   3.621   3.192 -1.3672  0.5831  0.4656
27798SOL     OW93323   2.143   6.382   4.098 -0.6417 -0.2278  0.0557
27798SOL    HW193324   2.203   6.435   4.150 -1.0230  0.3740 -0.1122
27798SOL    HW293325   2.087   6.339   4.162  0.3435 -1.2791  0.2521
27799SOL     OW93326   1.526   8.662   2.144  0.0875 -0.4018 -0.3127
27799SOL    HW193327   1.478   8.660   2.227  0.3224  0.6266 -0.1444
27799SOL    HW293328   1.463   8.693   2.079 -0.2729 -1.7837 -0.6636
27800SOL     OW93329   8.748   1.139   0.953  0.3173 -0.6948  0.1453
27800SOL    HW193330   8.664   1.092   0.944  0.3329 -0.7790  0.4266
27800SOL    HW293331   8.749   1.201   0.880  0.5887 -1.5837 -0.6233
27801SOL     OW93332   2.010   9.731  12.177 -0.1150  0.8761 -0.1674
27801SOL    HW193333   1.934   9.700  12.227  0.1129  3.2132  1.8283
27801SOL    HW293334   2.083   9.677  12.209 -0.1883  1.5508  1.2170
27802SOL     OW93335   4.039   0.300   4.110  0.1010 -0.2720 -0.3695
27802SOL    HW193336   3.996   0.378   4.145 -1.1590 -1.5862  1.1877
27802SOL    HW293337   4.120   0.293   4.161  0.4000  0.1946 -0.7681
27803SOL     OW93338  11.536   6.264  12.956 -0.2440  0.2141 -0.3679
27803SOL    HW193339  11.442   6.248  12.965 -0.1127 -1.2839 -1.3330
27803SOL    HW293340  11.541   6.355  12.926 -1.2920  0.7508  0.9693
27804SOL     OW93341   8.364   7.826   0.899 -0.3152  0.1070  0.3448
27804SOL    HW193342   8.450   7.802   0.932 -0.1622 -0.5853 -0.5206
27804SOL    HW293343   8.309   7.749   0.916 -0.5561  0.2388  0.1764
27805SOL     OW93344   0.278   7.670  13.286 -0.1640  0.3367  0.4902
27805SOL    HW193345   0.247   7.759  13.298 -0.3841  0.0816  1.8903
27805SOL    HW293346   0.326   7.649  13.366  0.4052 -0.5939 -0.0663
27806SOL     OW93347  11.704   0.643  10.274  0.4051 -0.5921 -0.0619
27806SOL    HW193348  11.708   0.559  10.320  0.6815 -0.8905 -0.6113
27806SOL    HW293349  11.628   0.688  10.311  1.6385 -0.0434  1.9700
27807SOL     OW93350   2.602   6.125  12.030 -0.4841  0.2218 -0.4513
27807SOL    HW193351   2.620   6.089  11.943 -0.1490  2.0888 -1.2011
27807SOL    HW293352   2.689   6.135  12.070 -0.5924 -0.0366 -0.1467
27808SOL     OW93353   7.085   3.589   0.901 -0.6342 -0.3938 -0.4441
27808SOL    HW193354   7.126   3.623   0.981  0.5029 -1.1736 -0.6680
27808SOL    HW293355   7.142   3.516   0.875 -0.6628  0.2019 -2.2761
27809SOL     OW93356   1.317   6.842   7.184  0.3966  0.1600 -0.1473
27809SOL    HW193357   1.334   6.847   7.278 -0.0706  0.3550 -0.0742
27809SOL    HW293358   1.388   6.893   7.145  0.7864 -0.2051  0.0755
27810SOL     OW93359  10.917   3.821   2.886 -0.0604 -0.3698  0.0487
27810SOL    HW193360  10.832   3.835   2.926 -0.3555  1.1128 -1.0316
27810SOL    HW293361  10.910   3.861   2.799  2.2243  1.3063  0.5382
27811SOL     OW93362   6.395   4.801   8.422  0.1450  0.3140 -0.0378
27811SOL    HW193363   6.354   4.772   8.341 -3.1074 -0.2587  1.6484
27811SOL    HW293364   6.409   4.721   8.472 -2.7281  0.9122  1.9584
27812SOL     OW93365   7.433   0.252   8.105 -0.6232 -0.4193  0.9906
27812SOL    HW193366   7.413   0.345   8.120  0.8147 -0.0055  0.4653
27812SOL    HW293367   7.376   0.206   8.167 -2.9167  0.6725 -0.1613
27813SOL     OW93368   7.171  10.645  11.284 -0.1681  0.2283  0.2793
27813SOL    HW193369   7.112  10.706  11.240  0.3759  0.5093 -0.0796
27813SOL    HW293370   7.119  10.566  11.297 -0.1120 -0.1722 -1.6281
27814SOL     OW93371  12.011   6.789   4.002 -0.3743 -0.1311 -0.8909
27814SOL    HW193372  12.025   6.797   3.907  0.9476  0.9255 -0.6332
27814SOL    HW293373  11.923   6.825   4.016 -0.2482  0.4825 -1.6183
27815SOL     OW93374  10.654  11.787   9.473 -0.2388  0.3042  0.1445
27815SOL    HW193375  10.688  11.721   9.412 -0.1076  1.3870 -0.9998
27815SOL    HW293376  10.629  11.738   9.550 -0.4684 -1.1320 -0.8129
27816SOL     OW93377  12.678  12.371   2.610 -0.3386 -0.9990  0.2396
27816SOL    HW193378  12.763  12.353   2.570 -0.4434 -0.1642 -0.3873
27816SOL    HW293379  12.628  12.416   2.541 -1.1783 -1.2049  0.7027
27817SOL     OW93380   2.962  12.979   6.959  0.0344  0.7504  0.3850
27817SOL    HW193381   2.908  12.948   7.032  0.5325 -0.0300  0.4347
27817SOL    HW293382   3.045  13.005   7.000  0.8666 -1.0598 -0.0236
27818SOL     OW93383   4.756   5.786   8.725 -0.4727  0.1843 -0.1289
27818SOL    HW193384   4.821   5.752   8.786  0.5239  0.7686 -0.8476
27818SOL    HW293385   4.797   5.862   8.685 -0.2178 -1.3705 -3.1072
27819SOL     OW93386   8.435   0.256   7.594 -0.2256  0.2147  0.7347
27819SOL    HW193387   8.505   0.286   7.652 -0.5034  1.1412  0.5995
27819SOL    HW293388   8.464   0.280   7.506  0.5793 -1.9170  0.3543
27820SOL     OW93389   9.891   3.843   4.770 -0.3466  0.5473  0.1048
27820SOL    HW193390   9.796   3.844   4.781 -0.3566 -1.0568  0.4313
27820SOL    HW293391   9.905   3.796   4.688  0.2068 -1.9020  1.5093
27821SOL     OW93392  11.024   7.619   9.642  0.0243  0.4251  0.1783
27821SOL    HW193393  11.056   7.550   9.584 -1.9017 -0.2228 -0.1897
27821SOL    HW293394  11.055   7.700   9.601  0.9246 -0.1227 -0.2835
27822SOL     OW93395   9.687  10.784   4.357  0.0802  0.1918 -0.4471
27822SOL    HW193396   9.638  10.852   4.404  0.9856  0.8355 -0.4004
27822SOL    HW293397   9.759  10.761   4.416 -0.2309 -0.8385 -0.4516
27823SOL     OW93398   3.277  11.976   1.573 -0.0077  0.5102  0.0719
27823SOL    HW193399   3.211  11.933   1.519  0.1352  0.1647  0.1670
27823SOL    HW293400   3.262  11.942   1.662 -0.3832  1.2420  0.2931
27824SOL     OW93401   8.192   3.958   1.374  0.3214 -0.2708  0.1130
27824SOL    HW193402   8.114   3.909   1.400 -0.8630  1.9406  0.9676
27824SOL    HW293403   8.183   4.043   1.417  1.7444  1.1276 -2.1300
27825SOL     OW93404   9.795   2.456   1.407 -0.1169  0.2230 -1.1950
27825SOL    HW193405   9.752   2.370   1.404 -0.3326  0.3272 -1.0685
27825SOL    HW293406   9.745   2.506   1.471  1.7129 -0.4919  0.9379
27826SOL     OW93407   9.756   3.318   9.819 -0.2725 -0.0953 -0.0542
27826SOL    HW193408   9.806   3.351   9.894 -1.9095 -0.1024  1.0811
27826SOL    HW293409   9.743   3.396   9.764 -0.5914  0.2930  0.5595
27827SOL     OW93410   6.740   9.201   0.606 -0.5879 -0.4006  0.1091
27827SOL    HW193411   6.782   9.263   0.666 -1.4620  0.3476 -0.0183
27827SOL    HW293412   6.715   9.127   0.661 -0.3350 -0.2436  0.4388
27828SOL     OW93413   7.603   5.331   3.173  0.6240  0.0576 -0.2788
27828SOL    HW193414   7.629   5.395   3.240 -0.8711  0.0601  0.3409
27828SOL    HW293415   7.651   5.252   3.196  1.2977  0.4991 -0.1239
27829SOL     OW93416   7.630  12.426   6.027  0.5893  0.1651  0.2382
27829SOL    HW193417   7.685  12.503   6.039  3.6625 -1.3473 -2.5440
27829SOL    HW293418   7.634  12.380   6.111  0.8742  1.6829  1.0826
27830SOL     OW93419   2.335   4.669   3.746  0.4060 -0.3826 -0.8498
27830SOL    HW193420   2.409   4.615   3.775  1.7259  1.4271 -0.6041
27830SOL    HW293421   2.286   4.687   3.826 -0.2278 -1.4361 -0.9832
27831SOL     OW93422   5.262   5.072   5.815  0.5453 -0.0505 -0.3071
27831SOL    HW193423   5.240   5.155   5.858  0.8471 -0.6661  1.0717
27831SOL    HW293424   5.356   5.078   5.798  0.1923  0.7675 -2.2168
27832SOL     OW93425   5.643   1.316   2.593 -0.3047  0.3516 -0.0021
27832SOL    HW193426   5.684   1.394   2.630 -0.8453  1.1643 -1.0395
27832SOL    HW293427   5.655   1.248   2.659  1.0551  1.0468  0.5064
27833SOL     OW93428  10.310   4.273   1.599 -0.5488 -0.1086 -0.1032
27833SOL    HW193429  10.396   4.286   1.560 -0.2268  1.6407  1.0723
27833SOL    HW293430  10.260   4.225   1.533  0.5718  0.9854 -1.8200
27834SOL     OW93431   2.895   4.166   8.238  0.1732  0.9168  0.0315
27834SOL    HW193432   2.901   4.239   8.300  0.1859 -1.0544  2.4740
27834SOL    HW293433   2.801   4.155   8.223 -0.0828 -0.6756  2.4055
27835SOL     OW93434   0.024   6.948   6.387 -0.3249 -0.0116  0.1042
27835SOL    HW193435   0.093   6.885   6.366  0.0264 -0.1934  1.7053
27835SOL    HW293436  -0.053   6.893   6.406 -0.5947  0.1417 -0.5194
27836SOL     OW93437   8.553  13.098   1.634 -0.8111  0.1460 -0.3733
27836SOL    HW193438   8.555  13.193   1.642  2.3800  0.1250  0.5101
27836SOL    HW293439   8.488  13.070   1.698 -0.9822  1.6975  0.1767
27837SOL     OW93440   5.445   0.898   1.102 -0.2941  0.1521  0.0553
27837SOL    HW193441   5.514   0.952   1.140  0.3892 -0.7660  0.1557
27837SOL    HW293442   5.389   0.959   1.055  0.2828  0.9788  0.4315
27838SOL     OW93443   3.081  11.495   6.639 -0.2306 -0.6133 -0.0225
27838SOL    HW193444   3.146  11.564   6.656  0.0944 -1.3920  2.2656
27838SOL    HW293445   2.999  11.542   6.625  0.5821  0.3438 -2.0064
27839SOL     OW93446   0.047   2.987  10.430 -0.2917 -0.4142  0.3357
27839SOL    HW193447   0.028   2.915  10.490  0.6857 -1.0386 -0.0653
27839SOL    HW293448   0.129   2.961  10.387  0.1204  0.9795  0.2345
27840SOL     OW93449   3.948   1.339   4.096 -0.2081  0.0334 -0.3269
27840SOL    HW193450   3.913   1.380   4.016 -4.1809 -0.4862  0.9400
27840SOL    HW293451   3.956   1.411   4.158 -1.2217 -0.1836  0.0595
27841SOL     OW93452   2.872  12.934  12.579 -0.1258  0.0350 -0.6788
27841SOL    HW193453   2.917  12.991  12.641  0.3174 -0.8180 -0.1942
27841SOL    HW293454   2.846  12.992  12.507  1.3981  0.6369 -0.7865
27842SOL     OW93455   6.210   9.223   1.973  0.1921 -0.2563  0.2432
27842SOL    HW193456   6.292   9.259   2.005 -0.3535  0.7419  0.5579
27842SOL    HW293457   6.145   9.292   1.989 -1.2987 -2.0676  2.7138
27843SOL     OW93458   2.480   0.984   6.047  0.1005 -0.1335  0.0256
27843SOL    HW193459   2.570   0.959   6.028  0.9679  0.2794  3.0946
27843SOL    HW293460   2.459   1.049   5.980  1.0814 -2.0810 -2.3426
27844SOL     OW93461  13.008   5.804  10.344 -0.1233  0.1655 -0.1057
27844SOL    HW193462  12.985   5.815  10.437 -0.8283  2.3950 -0.4908
27844SOL    HW293463  12.934   5.757  10.307 -1.5500  2.3331 -0.1832
27845SOL     OW93464   6.703   9.681   3.119  0.5701 -0.3170 -0.0648
27845SOL    HW193465   6.726   9.660   3.210 -0.6398 -0.2556  0.2769
27845SOL    HW293466   6.615   9.717   3.125  0.9200  0.7735 -1.1546
27846SOL     OW93467   0.887   1.718  11.184  0.1439 -0.3128 -0.3576
27846SOL    HW193468   0.835   1.668  11.247  0.7074  1.0775  1.3233
27846SOL    HW293469   0.828   1.786  11.152  0.6333  0.8321  1.0212
27847SOL     OW93470   0.843   7.668   7.641  0.1638 -0.8340  0.3152
27847SOL    HW193471   0.869   7.599   7.581  0.1696  0.5271 -1.3026
27847SOL    HW293472   0.918   7.726   7.647 -0.4293 -0.0383  0.2741
27848SOL     OW93473   1.664   8.972   7.564  0.0969 -0.0463  0.1344
27848SOL    HW193474   1.736   8.981   7.501  0.7036  2.1206  1.0445
27848SOL    HW293475   1.586   8.961   7.510  0.5783  1.8865 -1.0624
27849SOL     OW93476   3.659  11.746   8.722  0.2052 -0.2955  0.2543
27849SOL    HW193477   3.709  11.666   8.704  2.5118  1.1364 -0.2341
27849SOL    HW293478   3.688  11.807   8.654 -1.1695  1.1005  0.8593
27850SOL     OW93479   2.972  10.786   5.532  0.4744  0.2076 -0.1828
27850SOL    HW193480   2.990  10.869   5.577  1.9990 -0.6592  0.9253
27850SOL    HW293481   2.960  10.810   5.440  4.1038  1.4047 -0.5013
27851SOL     OW93482   5.282   5.347   7.482  0.8471 -0.1230  0.2479
27851SOL    HW193483   5.338   5.311   7.551  0.3856  1.0109  1.2657
27851SOL    HW293484   5.330   5.423   7.449  0.5325  0.0529  0.1818
27852SOL     OW93485   0.175  13.057  12.180  0.4937 -0.4099 -0.2011
27852SOL    HW193486   0.097  13.099  12.215  0.2862 -1.5353  0.7464
27852SOL    HW293487   0.216  13.015  12.256  1.6531 -0.4002 -0.8004
27853SOL     OW93488  11.336   8.918   4.104 -0.0680 -0.1153 -0.3543
27853SOL    HW193489  11.410   8.949   4.052 -0.4844  1.4912 -0.0558
27853SOL    HW293490  11.271   8.890   4.040  0.5829 -1.0620 -0.6232
27854SOL     OW93491  10.305   2.239   1.603  0.1418 -0.3299  0.1410
27854SOL    HW193492  10.381   2.196   1.564  0.5524  0.9909 -0.5922
27854SOL    HW293493  10.332   2.259   1.692  0.7547  0.3224 -0.1796
27855SOL     OW93494   0.721   3.270   9.450  0.1098  0.2048  0.0640
27855SOL    HW193495   0.668   3.294   9.526  0.8797 -2.0363  1.4110
27855SOL    HW293496   0.661   3.222   9.394  0.2503 -0.8553  0.7855
27856SOL     OW93497   5.222  11.200   8.509 -0.3839  0.0234  0.0384
27856SOL    HW193498   5.172  11.179   8.587  1.0179  1.1986  1.3135
27856SOL    HW293499   5.233  11.295   8.513  0.9658 -0.0699 -0.7934
27857SOL     OW93500   5.957   7.254   5.916 -0.1898  0.1343 -0.1400
27857SOL    HW193501   5.944   7.178   5.859  1.2152  0.4975 -0.9991
27857SOL    HW293502   5.899   7.321   5.881 -1.2930 -0.4476  0.5031
27858SOL     OW93503   9.833   5.298   4.437  0.2009 -0.2450  0.0607
27858SOL    HW193504   9.894   5.268   4.370  1.0428 -0.1786  0.7895
27858SOL    HW293505   9.820   5.222   4.493  2.2172  0.6077  1.8237
27859SOL     OW93506   2.157   6.816   2.693 -0.4690  0.1678  0.1617
27859SOL    HW193507   2.070   6.835   2.728  0.1703  1.9711  0.8872
27859SOL    HW293508   2.162   6.720   2.693 -1.8742  0.0435  1.5735
27860SOL     OW93509  11.940   6.063  11.436 -0.1741  0.0907 -0.2501
27860SOL    HW193510  11.884   6.000  11.392  0.9704 -0.9589 -0.2645
27860SOL    HW293511  11.952   6.134  11.373 -0.3640 -0.3375 -0.7691
27861SOL     OW93512   2.850   4.141   4.546  0.3970 -0.3989 -0.3329
27861SOL    HW193513   2.820   4.183   4.626 -1.7418 -1.1338 -0.6800
27861SOL    HW293514   2.793   4.176   4.477  0.2922 -1.8659 -1.0370
27862SOL     OW93515   4.101  11.261   9.517 -0.1786  0.2657 -0.0004
27862SOL    HW193516   4.086  11.167   9.516  0.5230  0.1504 -1.2387
27862SOL    HW293517   4.034  11.297   9.460  0.9638  0.2624 -1.3924
27863SOL     OW93518   9.732   7.507   6.309 -0.3368  0.4636  0.1497
27863SOL    HW193519   9.744   7.594   6.270 -1.4154  0.2358 -0.7430
27863SOL    HW293520   9.674   7.461   6.248 -1.8064 -0.0449  1.8349
27864SOL     OW93521  13.007   1.665   4.914 -0.0176 -0.0097 -0.4649
27864SOL    HW193522  13.083   1.709   4.876 -0.9721  1.1568 -1.1259
27864SOL    HW293523  13.036   1.576   4.931  1.7360  0.6206  0.0630
27865SOL     OW93524   7.924   7.359   5.485  0.2284  0.4041 -0.1418
27865SOL    HW193525   7.968   7.284   5.445 -0.4144  0.8472 -1.7284
27865SOL    HW293526   7.840   7.325   5.516  0.5946  0.1341  0.5861
27866SOL     OW93527  12.359   4.764   9.413 -0.1031  0.4564  0.4211
27866SOL    HW193528  12.297   4.837   9.410  1.2698  1.6861  0.8091
27866SOL    HW293529  12.322   4.698   9.354 -1.0630  1.7105 -0.4162
27867SOL     OW93530   1.133   8.013  13.193 -0.0437 -0.1669 -0.1966
27867SOL    HW193531   1.222   7.976  13.197 -0.0984 -0.2294  0.6651
27867SOL    HW293532   1.095   7.974  13.115  0.1270 -1.4453  0.3292
27868SOL     OW93533   7.335   1.782  12.422  0.0858 -0.5304  0.3953
27868SOL    HW193534   7.240   1.782  12.417  0.0686  0.9238  0.5070
27868SOL    HW293535   7.356   1.715  12.487 -0.8390 -0.9436  0.2844
27869SOL     OW93536   1.193   3.015   2.970  0.2699 -0.1083  0.0617
27869SOL    HW193537   1.198   3.103   2.934 -0.5491  0.0281  0.2548
27869SOL    HW293538   1.100   3.003   2.991  0.4113 -0.9258  0.2583
27870SOL     OW93539   5.303   4.246   4.638 -0.0039 -0.1630  0.1707
27870SOL    HW193540   5.357   4.176   4.602 -0.7746 -1.4895  1.4834
27870SOL    HW293541   5.339   4.326   4.599  2.0453 -1.1001 -0.0266
27871SOL     OW93542   6.477  12.551  12.188  0.0574 -0.6209  0.1927
27871SOL    HW193543   6.559  12.504  12.200 -0.6487 -1.1715  3.8866
27871SOL    HW293544   6.482  12.624  12.250 -0.4254  2.1731 -2.7951
27872SOL     OW93545   8.156   4.731   3.767 -0.0471  0.3919  0.5652
27872SOL    HW193546   8.151   4.730   3.863 -0.6902 -1.1687  0.5537
27872SOL    HW293547   8.102   4.805   3.741 -0.4988  0.3669  1.3989
27873SOL     OW93548  11.027  10.012   1.586 -0.6241 -0.0103  0.1394
27873SOL    HW193549  11.053  10.020   1.495 -1.8784 -1.1028 -0.3489
27873SOL    HW293550  10.932   9.999   1.583 -0.4257 -2.3278  1.4380
27874SOL     OW93551   8.435   6.765   5.763 -0.1065 -0.0565  0.2956
27874SOL    HW193552   8.529   6.779   5.755 -0.3508  1.9658  0.3402
27874SOL    HW293553   8.407   6.832   5.826 -1.8567  0.7978 -1.2846
27875SOL     OW93554   8.823  10.872   8.576 -0.0997 -0.1597 -0.5445
27875SOL    HW193555   8.808  10.895   8.667  0.4865  1.1653 -0.7632
27875SOL    HW293556   8.883  10.797   8.579  0.0283 -0.0279  0.1396
27876SOL     OW93557   3.475   8.871   1.971 -0.1971 -0.2864 -0.1477
27876SOL    HW193558   3.569   8.852   1.969 -0.1075 -0.0058  0.9888
27876SOL    HW293559   3.454   8.895   1.880  1.0187  0.5818 -0.2199
27877SOL     OW93560   5.088  10.745   2.765 -0.1803  0.4458  0.0806
27877SOL    HW193561   5.128  10.699   2.690 -0.6642  0.4133 -0.1608
27877SOL    HW293562   5.007  10.782   2.730 -0.9022 -0.3865  0.8226
27878SOL     OW93563   1.554   9.982   0.164  0.1024 -0.6541 -0.0414
27878SOL    HW193564   1.599   9.927   0.099 -0.9428  0.1707 -1.5118
27878SOL    HW293565   1.471   9.937   0.180  0.2657 -0.7413  0.5967
27879SOL     OW93566   3.726   7.025   6.710 -0.0248 -0.0536 -0.0898
27879SOL    HW193567   3.713   6.985   6.624 -0.9018 -1.3962  0.6265
27879SOL    HW293568   3.713   7.119   6.695 -0.5699 -0.3061 -1.3508
27880SOL     OW93569   2.460  10.823   0.367 -0.1993  0.0975 -0.8062
27880SOL    HW193570   2.522  10.764   0.325  0.5797  0.4764 -0.2099
27880SOL    HW293571   2.377  10.806   0.322  0.2473 -0.6722 -1.3696
27881SOL     OW93572   2.734   2.970   4.525 -0.2643 -0.0098  0.0903
27881SOL    HW193573   2.723   2.907   4.453  1.3325 -0.2700  0.0462
27881SOL    HW293574   2.779   3.044   4.485  0.8725 -0.2644  0.8464
27882SOL     OW93575   2.427   5.810   3.351 -0.0947  0.1301  0.0784
27882SOL    HW193576   2.481   5.880   3.315 -1.3215  0.3652 -1.3997
27882SOL    HW293577   2.450   5.807   3.444  1.8262  0.7644 -0.3400
27883SOL     OW93578  12.573   4.408  13.163 -0.1493  0.9770  0.2743
27883SOL    HW193579  12.621   4.331  13.195 -1.0927  0.0101 -0.5887
27883SOL    HW293580  12.481   4.386  13.176 -0.4255  2.3959  0.9528
27884SOL     OW93581  10.090  10.780   0.845  0.3337  0.0766 -1.1490
27884SOL    HW193582  10.047  10.842   0.904 -0.7793 -0.2722 -1.5605
27884SOL    HW293583  10.167  10.750   0.893 -0.2451  0.2156 -0.1066
27885SOL     OW93584   9.176   6.636  12.594 -0.3485 -0.5972  0.1152
27885SOL    HW193585   9.220   6.715  12.627 -1.4160  0.4284 -0.8026
27885SOL    HW293586   9.207   6.566  12.651  0.0493  0.6096  1.4675
27886SOL     OW93587  10.576   3.126   6.081 -0.3240  0.2121  0.3602
27886SOL    HW193588  10.650   3.068   6.065 -1.9029 -2.4091  1.9184
27886SOL    HW293589  10.512   3.104   6.014 -0.9745  0.0973  1.0083
27887SOL     OW93590   6.950   7.123   6.332  0.0531  0.0928 -0.3242
27887SOL    HW193591   6.922   7.190   6.269 -0.0365  0.9240  0.5889
27887SOL    HW293592   6.905   7.145   6.413  0.6548 -0.6004  0.2129
27888SOL     OW93593  10.276   7.950   1.929  0.3526 -0.4092  0.3302
27888SOL    HW193594  10.340   7.885   1.898  0.7623 -0.1394  0.5938
27888SOL    HW293595  10.323   7.999   1.997 -0.4317 -0.8191  1.1996
27889SOL     OW93596   4.873   3.172  11.419 -0.7716 -0.2617 -0.3302
27889SOL    HW193597   4.787   3.214  11.426 -1.8687 -1.6636 -3.5895
27889SOL    HW293598   4.920   3.224  11.354 -0.1254 -0.9683 -0.4409
27890SOL     OW93599   2.665  12.133  13.042  0.0690  0.1460  0.0117
27890SOL    HW193600   2.591  12.096  13.089  0.9684 -3.2275 -0.9852
27890SOL    HW293601   2.741  12.116  13.099  0.7423 -1.2259 -1.2445
27891SOL     OW93602   7.181   2.837  10.373 -0.2781  0.3741  0.1330
27891SOL    HW193603   7.132   2.909  10.412  2.4899  1.4772  1.9024
27891SOL    HW293604   7.184   2.769  10.440 -0.8214 -0.4210 -0.6180
27892SOL     OW93605   6.043  10.969   1.468  0.3556  0.1730  0.0845
27892SOL    HW193606   6.053  10.922   1.551  1.9628 -0.2954 -0.3416
27892SOL    HW293607   5.971  11.031   1.484  1.2290  0.7470  2.1309
27893SOL     OW93608   9.538   6.786  12.171  0.4012  0.0234 -0.1256
27893SOL    HW193609   9.486   6.729  12.113  1.4807 -0.2701 -0.8435
27893SOL    HW293610   9.479   6.807  12.243  0.1302 -2.5018  0.4903
27894SOL     OW93611   2.201   6.804   9.105  0.1179  0.2687  0.0248
27894SOL    HW193612   2.279   6.783   9.156  0.7673  2.3073 -0.0231
27894SOL    HW293613   2.135   6.827   9.170  0.1734  0.4159  0.0314
27895SOL     OW93614   0.409   0.777  12.134 -0.0675  0.7920  0.2781
27895SOL    HW193615   0.402   0.789  12.228 -0.1468  0.6487  0.2910
27895SOL    HW293616   0.471   0.705  12.123 -1.8505 -0.8218  0.3031
27896SOL     OW93617  10.792   3.306  10.749  0.2520 -0.6413  0.2003
27896SOL    HW193618  10.765   3.229  10.698 -0.6012  0.5068 -1.1862
27896SOL    HW293619  10.873   3.335  10.707 -1.2849  1.2532 -1.6970
27897SOL     OW93620   5.168   3.652   1.374 -0.1983 -0.1398 -0.0841
27897SOL    HW193621   5.154   3.699   1.456 -3.9100  0.3507 -0.8255
27897SOL    HW293622   5.139   3.713   1.307 -0.5137 -1.7507 -1.4739
27898SOL     OW93623   1.192  13.274   5.829 -0.2108  0.2065  0.1962
27898SOL    HW193624   1.149  13.266   5.744  0.4845  0.0814 -0.1505
27898SOL    HW293625   1.203  13.369   5.842 -0.2942  0.2245  0.1347
27899SOL     OW93626   2.001   7.873  12.366  0.8941  0.0471  0.1047
27899SOL    HW193627   2.070   7.911  12.311  0.2231 -0.8625 -1.4479
27899SOL    HW293628   1.989   7.785  12.330 -0.4382 -0.1359  0.9516
27900SOL     OW93629   6.974  12.519   2.928  0.0851  0.1265 -0.1217
27900SOL    HW193630   6.957  12.614   2.926 -1.6420 -0.1715 -0.5217
27900SOL    HW293631   6.954  12.493   3.018 -0.7730 -0.0819 -0.3684
27901SOL     OW93632  10.895   3.379  12.971  0.1123 -0.3775  0.6571
27901SOL    HW193633  10.863   3.385  13.061 -0.3793  2.1869  0.3901
27901SOL    HW293634  10.827   3.331  12.925 -0.3056 -0.4889  1.3661
27902SOL     OW93635   4.877  11.947   8.918  0.5848  0.1680 -0.2890
27902SOL    HW193636   4.968  11.952   8.888  0.7454 -0.6683  0.0077
27902SOL    HW293637   4.860  12.031   8.959  1.6836 -0.1348  0.8743
27903SOL     OW93638  12.620   7.926  10.994 -0.0402 -0.0893 -0.3301
27903SOL    HW193639  12.601   8.001  10.938  0.4113  0.3312  0.0758
27903SOL    HW293640  12.713   7.909  10.981 -0.1537 -0.6400 -0.4813
27904SOL     OW93641   4.554  13.194  10.770  0.3513 -0.0533  0.5212
27904SOL    HW193642   4.470  13.148  10.768  0.9853 -1.2978  0.9938
27904SOL    HW293643   4.618  13.125  10.787  1.5678  0.7430 -0.6451
27905SOL     OW93644   5.039  12.631   2.679  0.1407 -0.4837  0.6229
27905SOL    HW193645   5.096  12.696   2.721  0.3609 -0.3793  0.1650
27905SOL    HW293646   4.961  12.681   2.655 -0.7054 -0.8826  2.3790
27906SOL     OW93647  11.874   8.697  11.112 -0.2279 -0.0323  0.3733
27906SOL    HW193648  11.944   8.759  11.092 -0.4089 -0.0401 -0.2975
27906SOL    HW293649  11.897   8.618  11.063  0.7150 -0.9979  2.2683
27907SOL     OW93650  11.372  13.016   2.984 -0.1434 -0.0655 -0.4301
27907SOL    HW193651  11.464  13.017   3.009 -0.3976  0.4937  0.5660
27907SOL    HW293652  11.361  12.936   2.934  1.2383  0.6855 -2.0089
27908SOL     OW93653   3.710  12.089   2.675  0.0328  0.1382  0.9807
27908SOL    HW193654   3.698  11.996   2.696 -0.8676 -0.0007 -0.0221
27908SOL    HW293655   3.707  12.133   2.759 -1.2235 -0.5917  1.3506
27909SOL     OW93656   1.315   8.528  12.676 -0.0997  0.4015  0.2058
27909SOL    HW193657   1.256   8.485  12.737 -0.2231  0.5925  0.2232
27909SOL    HW293658   1.333   8.463  12.609  0.8031 -0.1460  0.9514
27910SOL     OW93659  12.678   1.305   1.744  0.2814  0.0714 -0.6534
27910SOL    HW193660  12.607   1.369   1.754 -0.7197 -0.1047 -4.8791
27910SOL    HW293661  12.632   1.221   1.739  1.0422 -0.3342 -0.8661
27911SOL     OW93662   6.314  10.836   1.891 -0.4333 -0.2764 -0.4827
27911SOL    HW193663   6.316  10.884   1.807 -1.2571  0.4156 -0.1216
27911SOL    HW293664   6.268  10.895   1.951 -0.7725 -1.2106  0.1887
27912SOL     OW93665   2.532   3.960   7.111  0.1411 -0.7306 -0.6217
27912SOL    HW193666   2.505   4.052   7.112 -0.0253 -0.7625  1.1492
27912SOL    HW293667   2.620   3.960   7.074  0.9756  0.4355  1.2153
27913SOL     OW93668  10.600   0.560  12.681  0.2770  0.2239 -0.0585
27913SOL    HW193669  10.677   0.581  12.734 -1.3623 -2.0880  3.6637
27913SOL    HW293670  10.599   0.465  12.677 -2.6598  0.1351  0.6085
27914SOL     OW93671   2.024   3.950   2.557  0.1698  0.4207  0.5360
27914SOL    HW193672   2.033   3.857   2.536  1.0674  0.7385 -0.5878
27914SOL    HW293673   2.091   3.993   2.504 -2.1232  2.0344 -1.2335
27915SOL     OW93674   7.053   7.997   1.570  0.2699  0.2287 -0.0054
27915SOL    HW193675   7.130   8.013   1.624  2.0686 -0.3115 -2.2924
27915SOL    HW293676   7.076   7.921   1.516 -1.0906  1.2194 -2.1132
27916SOL     OW93677   4.097  10.465  13.241  0.1097  0.2927  0.1501
27916SOL    HW193678   4.043  10.523  13.295  1.9661  1.4888  0.7834
27916SOL    HW293679   4.151  10.524  13.189 -0.4030 -0.8690 -1.7712
27917SOL     OW93680   3.812   3.322   7.997  0.4770 -0.0134 -0.2054
27917SOL    HW193681   3.722   3.346   8.019  0.0590 -0.7270 -1.0725
27917SOL    HW293682   3.836   3.381   7.925  1.0261  0.7512  0.5717
27918SOL     OW93683   9.027   9.206   3.038  0.0706 -0.7206  0.6238
27918SOL    HW193684   9.098   9.271   3.042  0.5740 -1.2318  0.1908
27918SOL    HW293685   9.068   9.129   3.000 -0.1466 -1.7982  2.4558
27919SOL     OW93686  11.519   7.007   1.074 -0.2471  0.5024  0.0716
27919SOL    HW193687  11.424   7.010   1.062 -0.7726  1.8142  3.4085
27919SOL    HW293688  11.532   6.952   1.152  2.0970 -2.2528 -1.9893
27920SOL     OW93689   1.480   1.869   1.137 -0.3266  0.0078  0.6334
27920SOL    HW193690   1.443   1.887   1.224 -2.4674 -0.0341 -0.2021
27920SOL    HW293691   1.477   1.954   1.092 -0.6231 -0.2633  0.1319
27921SOL     OW93692  10.360   0.655   5.709 -0.1208 -0.4095 -0.0945
27921SOL    HW193693  10.407   0.738   5.699 -1.4767  0.4895  0.6621
27921SOL    HW293694  10.416   0.590   5.667  1.9816  0.5251  1.1113
27922SOL     OW93695   4.307   8.810   5.669 -0.7027  0.0456 -0.3518
27922SOL    HW193696   4.385   8.826   5.723  0.2752 -2.2509 -0.9282
27922SOL    HW293697   4.313   8.874   5.599  1.0580 -0.4527 -0.7136
27923SOL     OW93698   7.410   0.403  10.810 -0.0035  0.0800 -0.2727
27923SOL    HW193699   7.421   0.496  10.789 -2.2584  1.6612  4.3782
27923SOL    HW293700   7.324   0.380  10.775  0.3558 -0.2074 -1.0066
27924SOL     OW93701   1.704   9.243   9.107  0.4561 -0.4581  0.2205
27924SOL    HW193702   1.750   9.252   9.024 -0.0014 -2.2005 -0.2795
27924SOL    HW293703   1.742   9.164   9.147  0.8864  0.5157  1.8367
27925SOL     OW93704  11.674  11.072   2.044  0.4002 -0.0013 -0.4374
27925SOL    HW193705  11.671  11.136   1.973 -0.7774  0.7855  0.2808
27925SOL    HW293706  11.662  10.987   2.001  0.3704  0.4020 -1.2367
27926SOL     OW93707  10.494   2.632   5.379 -0.0956  0.3821  0.0827
27926SOL    HW193708  10.502   2.690   5.455 -1.3269  1.3925 -0.5271
27926SOL    HW293709  10.583   2.630   5.342  0.0394  1.6364  0.2985
27927SOL     OW93710   4.202   7.489   8.369 -0.5958  0.0755 -0.5104
27927SOL    HW193711   4.216   7.394   8.370 -0.7946  0.0187  1.3328
27927SOL    HW293712   4.284   7.524   8.336 -0.5427 -0.7347 -1.2850
27928SOL     OW93713  12.329  10.430   2.672  0.1852 -0.2382  0.7816
27928SOL    HW193714  12.399  10.492   2.692  1.3690 -0.7756 -1.3521
27928SOL    HW293715  12.279  10.472   2.601 -0.6570 -0.5824  1.1509
27929SOL     OW93716   2.533  11.076   3.798 -0.3727  0.2533  0.6516
27929SOL    HW193717   2.510  10.983   3.791 -1.1318  0.0461  4.2321
27929SOL    HW293718   2.474  11.120   3.736  0.8633 -1.6109 -2.0899
27930SOL     OW93719   9.509   9.789   0.741  0.1325  0.2500 -0.8808
27930SOL    HW193720   9.426   9.816   0.779  0.2391 -1.2170  0.4890
27930SOL    HW293721   9.545   9.727   0.804  2.2563  0.8212 -1.4580
27931SOL     OW93722   2.720   5.726   8.657  0.0909  0.1111 -0.3675
27931SOL    HW193723   2.729   5.726   8.752 -0.1362  0.9999 -0.3357
27931SOL    HW293724   2.637   5.681   8.641  1.0492 -1.8160 -0.2803
27932SOL     OW93725   0.862   3.174  10.984 -0.0935 -0.0300  0.0544
27932SOL    HW193726   0.812   3.105  11.029 -0.9615  0.6677  0.1847
27932SOL    HW293727   0.815   3.255  11.005 -0.0871  0.4073 -1.4827
27933SOL     OW93728   1.806  12.524   4.854 -0.3564 -0.0954 -0.0197
27933SOL    HW193729   1.720  12.547   4.889 -0.3020  0.9023 -0.5131
27933SOL    HW293730   1.868  12.560   4.918 -0.2907 -0.2883  0.0260
27934SOL     OW93731   1.142   9.331   3.896  0.1264 -0.4334 -0.5942
27934SOL    HW193732   1.227   9.309   3.858 -0.4698 -0.6061 -1.8950
27934SOL    HW293733   1.136   9.427   3.887  0.3031 -0.3837 -0.2153
27935SOL     OW93734  11.828  10.169   3.033 -0.4830 -0.3309  0.1020
27935SOL    HW193735  11.853  10.180   2.942 -1.0351 -1.8800 -0.2699
27935SOL    HW293736  11.873  10.089   3.061  1.1112  1.0349  1.7576
27936SOL     OW93737   3.612   5.192   2.855  0.0771  0.5542  0.2293
27936SOL    HW193738   3.531   5.208   2.806  0.4549 -0.2190 -0.6812
27936SOL    HW293739   3.608   5.253   2.929 -1.5835  0.1780  0.4985
27937SOL     OW93740  12.862   2.108  10.849 -0.3836 -0.2867  0.1540
27937SOL    HW193741  12.771   2.115  10.877 -0.3789  1.0252 -0.0779
27937SOL    HW293742  12.860   2.054  10.770 -0.7849 -1.3566  0.8822
27938SOL     OW93743   8.650   9.298   8.237  0.2698  0.3141 -0.2906
27938SOL    HW193744   8.704   9.376   8.244 -0.0747  0.4891  0.6291
27938SOL    HW293745   8.632   9.274   8.328 -1.9090  0.7624 -0.5506
27939SOL     OW93746  12.774   4.975   5.532  0.0872  0.4548 -0.1766
27939SOL    HW193747  12.733   4.952   5.449 -1.3819  0.8592  0.4041
27939SOL    HW293748  12.810   5.063   5.518 -0.2059  0.5441 -0.3670
27940SOL     OW93749   2.319   9.389   4.915  0.4046 -0.4934  0.2021
27940SOL    HW193750   2.258   9.366   4.845  1.0402  1.4262 -1.0786
27940SOL    HW293751   2.300   9.326   4.985 -1.3186 -1.5116 -1.0839
27941SOL     OW93752   1.115   3.880  12.796 -0.2932 -0.4547 -0.6932
27941SOL    HW193753   1.162   3.869  12.879  0.7988  0.9497 -1.1033
27941SOL    HW293754   1.182   3.874  12.729 -0.8353  0.6592 -1.3522
27942SOL     OW93755   8.671   2.298  10.188  0.2943  0.1184  0.7665
27942SOL    HW193756   8.705   2.244  10.259 -1.7837  0.7737  2.3598
27942SOL    HW293757   8.747   2.347  10.156  1.8659 -2.3640  0.4556
27943SOL     OW93758   7.089  12.126   7.003 -0.6481  0.8914 -0.3286
27943SOL    HW193759   7.107  12.086   6.918  0.8767  3.6591 -1.4487
27943SOL    HW293760   7.176  12.136   7.043 -1.2178  0.9403  0.9437
27944SOL     OW93761   0.256  10.152   7.188  0.3385 -0.0260  0.3432
27944SOL    HW193762   0.287  10.122   7.103 -1.7720 -2.1725  0.2074
27944SOL    HW293763   0.161  10.156   7.178  0.1642  1.4021  2.1126
27945SOL     OW93764   9.471   1.999   2.910  0.1266  0.3516 -0.3653
27945SOL    HW193765   9.520   1.917   2.921 -2.3840 -1.1537  0.4533
27945SOL    HW293766   9.449   2.001   2.817  0.9642  0.5884 -0.5666
27946SOL     OW93767   0.613   9.132  11.389 -0.1934 -0.1305  0.0528
27946SOL    HW193768   0.624   9.151  11.482 -1.2562  0.2336  0.1139
27946SOL    HW293769   0.702   9.137  11.353  0.3216 -0.9097  1.1526
27947SOL     OW93770   4.818   6.838   1.727  0.1006  0.3342  0.3902
27947SOL    HW193771   4.893   6.869   1.676  0.4374  0.9890  1.2783
27947SOL    HW293772   4.856   6.802   1.807 -0.5307  0.8885  0.9546
27948SOL     OW93773   0.943   2.740   9.051  0.0590 -0.0046  0.1131
27948SOL    HW193774   0.894   2.797   8.991  0.4106 -0.3735 -0.5391
27948SOL    HW293775   0.877   2.708   9.112 -0.0963  1.3101  0.6684
27949SOL     OW93776   0.456   8.444   8.608  0.3509 -0.1091  0.6061
27949SOL    HW193777   0.364   8.470   8.613  0.1247 -0.5552 -0.8650
27949SOL    HW293778   0.453   8.350   8.586  1.1336  0.0636 -0.2962
27950SOL     OW93779  11.372   8.038   6.892 -0.3127  0.6069  0.3065
27950SOL    HW193780  11.385   7.951   6.928  1.0350  1.4115  1.8908
27950SOL    HW293781  11.385   8.027   6.798  0.2660 -0.8129  0.5248
27951SOL     OW93782   7.203   2.293  11.133 -0.1076  0.6374 -0.7337
27951SOL    HW193783   7.147   2.261  11.063  0.1528  2.1053 -1.6526
27951SOL    HW293784   7.159   2.371  11.167  0.0575  0.2835  0.3634
27952SOL     OW93785   1.951   5.359   8.678 -0.1876  0.1634  0.2024
27952SOL    HW193786   1.857   5.376   8.676 -0.0035  1.3700  1.2563
27952SOL    HW293787   1.981   5.395   8.761  1.7388  2.7196 -1.4312
27953SOL     OW93788   4.292   1.696   4.655 -0.5286  1.1065 -0.1554
27953SOL    HW193789   4.280   1.748   4.735 -0.2973  0.7374  0.1231
27953SOL    HW293790   4.212   1.710   4.605 -0.6091  1.4665  0.0724
27954SOL     OW93791   7.035   3.944   1.987 -0.2407 -0.0452  0.7363
27954SOL    HW193792   6.952   3.909   1.956  0.1163 -0.0886 -0.2272
27954SOL    HW293793   7.036   4.034   1.955  0.2971 -0.2048  0.2791
27955SOL     OW93794   4.274   6.719  11.337 -0.3420  0.0719 -0.1589
27955SOL    HW193795   4.196   6.727  11.283  0.0493 -1.4748 -1.0291
27955SOL    HW293796   4.292   6.808  11.367 -2.3189  0.4885 -0.0698
27956SOL     OW93797   0.515   1.861   8.517 -0.1219  0.1472 -0.4463
27956SOL    HW193798   0.449   1.865   8.447 -0.7367 -1.0683  0.0274
27956SOL    HW293799   0.584   1.805   8.482 -1.1372 -1.7573  0.4168
27957SOL     OW93800   1.029  11.271   5.897 -0.0099  0.1777  0.1374
27957SOL    HW193801   0.950  11.323   5.911  0.4360  1.0944 -0.6416
27957SOL    HW293802   1.066  11.259   5.985 -1.9005 -1.7782  0.7631
27958SOL     OW93803  10.627  10.878   1.652  0.3731  0.1420 -0.0904
27958SOL    HW193804  10.640  10.973   1.649  0.2748  0.1412 -1.2450
27958SOL    HW293805  10.649  10.853   1.741  1.5451  1.0834 -0.0975
27959SOL     OW93806   7.670  10.318   8.308  0.6060 -0.1974 -0.1057
27959SOL    HW193807   7.756  10.337   8.272  1.3418 -1.9189  0.5958
27959SOL    HW293808   7.689  10.276   8.393 -0.8021 -2.4573 -0.8224
27960SOL     OW93809   2.568   1.321   9.894  0.1966  0.2312  0.7233
27960SOL    HW193810   2.608   1.371   9.966 -1.3245  1.1734  0.9596
27960SOL    HW293811   2.562   1.383   9.822 -1.0358  0.1864  0.7746
27961SOL     OW93812   6.626   1.857   1.608 -0.1032  0.0639 -0.2744
27961SOL    HW193813   6.549   1.809   1.576 -0.1779 -0.9415  1.2650
27961SOL    HW293814   6.597   1.948   1.614 -1.2295 -0.3143  0.3621
27962SOL     OW93815  10.485   7.979   6.407 -0.4453 -0.4204 -0.5118
27962SOL    HW193816  10.420   7.929   6.359 -1.5401 -0.0389  0.5326
27962SOL    HW293817  10.449   7.987   6.495  0.7986  0.2090 -0.0328
27963SOL     OW93818   3.668   5.663   7.902  0.6313 -0.0647 -0.0493
27963SOL    HW193819   3.722   5.588   7.928  0.1079 -0.5504 -0.3318
27963SOL    HW293820   3.701   5.736   7.955  2.2817 -0.0845 -0.9921
27964SOL     OW93821   4.639   1.222   1.255  0.0870  0.2858 -0.1256
27964SOL    HW193822   4.716   1.169   1.235  0.6507  0.7515  0.7581
27964SOL    HW293823   4.565   1.166   1.231  0.6839 -0.1229 -1.0959
27965SOL     OW93824   4.195  11.812   5.161  0.3367 -0.2533 -0.4459
27965SOL    HW193825   4.114  11.843   5.121 -0.0931 -0.8815 -0.0790
27965SOL    HW293826   4.171  11.792   5.251  0.7129 -1.1783 -0.5431
27966SOL     OW93827   4.074   0.866   1.932  0.0675 -0.6810  0.0097
27966SOL    HW193828   3.985   0.836   1.918 -1.2856  2.8582  0.0644
27966SOL    HW293829   4.078   0.888   2.025  0.4530  0.6774 -0.3080
27967SOL     OW93830   4.251   0.205   9.960  0.1295  0.1969  0.2964
27967SOL    HW193831   4.195   0.283   9.956 -2.2211 -1.1476  2.8944
27967SOL    HW293832   4.333   0.236   9.997 -0.4159  1.6127  0.3861
27968SOL     OW93833   4.947   4.054  11.548  0.2244  0.5512 -0.0678
27968SOL    HW193834   4.938   4.149  11.541 -0.3663  0.4633 -0.5222
27968SOL    HW293835   4.883   4.028  11.614  0.9834  0.5625  0.6881
27969SOL     OW93836   7.721   7.726   5.498  0.2763  1.1666 -0.3120
27969SOL    HW193837   7.628   7.704   5.493  0.1995  0.7974  1.7802
27969SOL    HW293838   7.724   7.813   5.536  0.7802  0.9562  0.1524
27970SOL     OW93839  12.621   8.166   6.921 -0.2873  0.4351 -0.2352
27970SOL    HW193840  12.682   8.091   6.924 -0.1404  0.4563 -1.6705
27970SOL    HW293841  12.675   8.241   6.946 -0.3139  0.1290  0.7520
27971SOL     OW93842   5.569   8.239   7.166  0.0212 -0.7390  0.4866
27971SOL    HW193843   5.562   8.319   7.219  1.2489 -0.6420  0.5210
27971SOL    HW293844   5.661   8.213   7.173 -0.1362 -1.5854 -0.3615
27972SOL     OW93845   4.641   0.177   6.724  0.5451 -0.3762  0.0609
27972SOL    HW193846   4.686   0.253   6.687 -0.0684  0.9153  1.7948
27972SOL    HW293847   4.575   0.215   6.782  0.3106 -2.2503  1.0950
27973SOL     OW93848   7.941   0.014   0.224  0.0097 -0.2522  0.5297
27973SOL    HW193849   7.991  -0.068   0.221  1.2710  0.4712  0.8301
27973SOL    HW293850   8.005   0.080   0.251 -1.3034  0.5912  1.7027
27974SOL     OW93851   5.551  10.331  11.230  0.1324  0.5801  0.1436
27974SOL    HW193852   5.612  10.390  11.275  2.1909 -1.5467  0.3258
27974SOL    HW293853   5.479  10.319  11.292  0.9810  0.8379  1.2027
27975SOL     OW93854   7.227   5.560  13.280  0.2765  0.2744 -0.0769
27975SOL    HW193855   7.261   5.521  13.200  1.0717 -1.6673  1.1121
27975SOL    HW293856   7.293   5.538  13.347  0.3276  2.9889  0.8887
27976SOL     OW93857   8.346   8.356   1.544  0.1124 -0.0287  0.2811
27976SOL    HW193858   8.395   8.273   1.542  0.5335  0.2305 -1.4017
27976SOL    HW293859   8.300   8.354   1.629  0.0889 -1.9934  0.2808
27977SOL     OW93860   5.461  12.132   9.342  0.3835  0.2990  0.5512
27977SOL    HW193861   5.511  12.072   9.287  1.8091  0.8308  1.2219
27977SOL    HW293862   5.369  12.111   9.324  0.8432 -0.8565 -0.5423
27978SOL     OW93863  11.799   6.301  13.228  0.0546 -0.8533 -0.0905
27978SOL    HW193864  11.758   6.314  13.314 -0.1914 -1.4001 -0.1207
27978SOL    HW293865  11.828   6.389  13.202  0.2839 -0.7102  0.6226
27979SOL     OW93866   5.868   8.287  12.654 -0.3510  0.0602 -0.0141
27979SOL    HW193867   5.816   8.209  12.635 -0.1047  0.3573 -2.2281
27979SOL    HW293868   5.956   8.254  12.670  0.0320 -0.1193 -2.1589
27980SOL     OW93869  11.687   7.282   3.370 -0.0223  0.3492  0.1243
27980SOL    HW193870  11.767   7.232   3.388  1.0447  1.8956 -0.1276
27980SOL    HW293871  11.685   7.349   3.439  0.2471  1.8400 -1.2494
27981SOL     OW93872   1.073   7.174   6.308  0.4471  0.1351 -0.3402
27981SOL    HW193873   1.153   7.159   6.257  2.3684  0.1896  2.4681
27981SOL    HW293874   1.045   7.262   6.282  1.9665  0.5830 -0.5830
27982SOL     OW93875  12.971   9.422  12.602 -0.0785 -0.0581 -0.3303
27982SOL    HW193876  12.997   9.425  12.510 -1.5562 -2.4190 -0.9011
27982SOL    HW293877  12.876   9.424  12.600 -0.1532  2.0428  1.3361
27983SOL     OW93878  10.332  10.562   6.592  0.3264  0.1525  0.2056
27983SOL    HW193879  10.261  10.558   6.528  0.3518 -0.7701  0.2122
27983SOL    HW293880  10.409  10.535   6.543 -0.0159 -2.7351  1.0693
27984SOL     OW93881   0.114   9.504   9.174  0.1080 -0.3802  0.4899
27984SOL    HW193882   0.097   9.575   9.236 -0.7597 -0.2725  0.1568
27984SOL    HW293883   0.054   9.523   9.101  0.8991 -0.6612 -0.2436
27985SOL     OW93884   5.758   6.466   7.894  0.3319 -0.5190 -0.1961
27985SOL    HW193885   5.731   6.377   7.917 -0.7890 -0.2078 -0.2366
27985SOL    HW293886   5.798   6.501   7.973  1.3632 -1.2688 -0.3729
27986SOL     OW93887   9.417  12.070   2.478 -0.5635 -0.0594  0.1572
27986SOL    HW193888   9.510  12.066   2.499 -0.4801  0.9533  0.0598
27986SOL    HW293889   9.406  12.012   2.404  0.2479  0.7754 -0.6457
27987SOL     OW93890   8.812   5.542   1.778 -0.1116  0.7148 -0.2531
27987SOL    HW193891   8.874   5.575   1.713  1.1530 -1.4640 -0.2587
27987SOL    HW293892   8.842   5.453   1.796 -2.6836 -0.0779  0.5048
27988SOL     OW93893   4.997   6.494   9.795  0.0569  0.0261 -0.3839
27988SOL    HW193894   4.910   6.479   9.757  0.1413  0.0613 -0.5917
27988SOL    HW293895   4.979   6.547   9.873 -0.1188 -0.0555 -0.3677
27989SOL     OW93896   8.314   9.050   7.691  0.2596  0.5132  0.7314
27989SOL    HW193897   8.395   9.055   7.641 -0.2561  0.8250 -0.0954
27989SOL    HW293898   8.278   8.964   7.669  0.7546  0.0312  1.7351
27990SOL     OW93899  13.220   0.830  11.399  0.7082 -0.1150 -0.8813
27990SOL    HW193900  13.302   0.863  11.363 -0.1208  0.2744 -2.4863
27990SOL    HW293901  13.238   0.739  11.421  1.5037 -0.0974 -1.4380
27991SOL     OW93902   4.759  10.263   1.924 -0.0448 -0.5047 -0.5648
27991SOL    HW193903   4.835  10.240   1.870  0.9328  2.6625 -0.7394
27991SOL    HW293904   4.699  10.307   1.864 -1.2635 -1.4094 -0.0511
27992SOL     OW93905   0.031   9.786   4.558 -0.0003  0.3660 -0.6715
27992SOL    HW193906   0.028   9.873   4.518 -0.4076  0.9416  0.5792
27992SOL    HW293907  -0.049   9.780   4.610  2.1910  1.2622  3.2424
27993SOL     OW93908   3.949   5.191  13.206 -0.0220  0.3482 -0.0328
27993SOL    HW193909   4.018   5.240  13.250  0.7514  0.3325 -1.2005
27993SOL    HW293910   3.900   5.257  13.158 -0.1674  0.2202 -0.0614
27994SOL     OW93911   8.266   4.168   1.803 -0.1214 -0.2861  0.6137
27994SOL    HW193912   8.347   4.127   1.833 -0.9256 -0.8405  2.1433
27994SOL    HW293913   8.247   4.125   1.720  0.9683 -0.3668  0.3819
27995SOL     OW93914   3.966   6.255   2.339  0.2128 -0.2627  0.6737
27995SOL    HW193915   3.980   6.317   2.411 -0.3042  0.1415  0.4370
27995SOL    HW293916   3.908   6.188   2.376  1.1054 -0.8368  1.0530
27996SOL     OW93917   3.698  13.004   9.767 -0.2264 -0.3263 -0.0837
27996SOL    HW193918   3.665  12.979   9.680 -0.1246 -0.4986 -0.0746
27996SOL    HW293919   3.774  12.948   9.780  1.5052  1.6318 -1.0970
27997SOL     OW93920   2.306   4.593   1.230  0.3207 -0.2989  0.0771
27997SOL    HW193921   2.345   4.508   1.209  2.1603  0.6929 -0.8075
27997SOL    HW293922   2.212   4.581   1.215  0.3859 -2.4857  1.1647
27998SOL     OW93923  12.161  12.605   3.295  0.2802  0.2649  0.4133
27998SOL    HW193924  12.098  12.562   3.237  1.0608 -0.7215  0.2818
27998SOL    HW293925  12.155  12.557   3.377 -0.4453  1.3319  1.0085
27999SOL     OW93926   7.004   7.228   7.446 -0.8871  0.0472 -0.3393
27999SOL    HW193927   6.967   7.141   7.430 -0.2468 -0.3486  0.3198
27999SOL    HW293928   7.038   7.256   7.361 -0.9251 -0.4169 -0.5060
28000SOL     OW93929   3.407   5.201   0.777  0.1208 -0.3262  0.9154
28000SOL    HW193930   3.366   5.283   0.748  2.0933 -0.4464 -2.7924
28000SOL    HW293931   3.339   5.135   0.766 -0.1357  0.1567 -0.6418
28001SOL     OW93932   7.832  12.543   3.428  0.8030  0.2344 -0.6389
28001SOL    HW193933   7.860  12.456   3.458  1.0173  0.4490 -0.2159
28001SOL    HW293934   7.914  12.589   3.411  0.8184  1.4926  2.3482
28002SOL     OW93935  11.651  13.082  10.721 -0.5912 -0.4768  0.2615
28002SOL    HW193936  11.744  13.060  10.732 -0.5778 -0.9109 -0.6307
28002SOL    HW293937  11.650  13.145  10.649 -0.7231  1.8033  2.1397
28003SOL     OW93938   7.820   7.784  11.056 -0.2102  0.6843 -0.2441
28003SOL    HW193939   7.876   7.721  11.011  0.3776  0.5404  0.6720
28003SOL    HW293940   7.870   7.865  11.055 -0.5058  0.8666 -0.4733
28004SOL     OW93941  12.540   2.954   3.114 -0.1976  0.6072  0.2214
28004SOL    HW193942  12.624   2.917   3.140 -0.1475  1.2784  1.0851
28004SOL    HW293943  12.535   3.037   3.161 -0.8813  1.0750 -0.6328
28005SOL     OW93944   9.089   4.548  12.444 -0.3037  0.5146  0.1722
28005SOL    HW193945   9.178   4.583  12.448  0.5131 -1.4667  2.8297
28005SOL    HW293946   9.075   4.528  12.352  1.8584  1.2865 -0.3899
28006SOL     OW93947  11.665   3.448   6.514 -0.2259 -0.4136 -0.0685
28006SOL    HW193948  11.666   3.522   6.575 -0.4858  0.3383 -0.9503
28006SOL    HW293949  11.578   3.409   6.525 -0.1227 -0.5338  0.3320
28007SOL     OW93950   9.154   9.833   5.841 -0.2747  0.2797  0.2426
28007SOL    HW193951   9.204   9.896   5.789 -1.5602  1.6275  0.5547
28007SOL    HW293952   9.103   9.785   5.777 -0.0331  0.2462  0.0738
28008SOL     OW93953   6.295  10.927   8.854  0.3379  0.1323 -0.0736
28008SOL    HW193954   6.285  10.861   8.922  0.4470  0.1328 -0.0579
28008SOL    HW293955   6.267  11.009   8.895 -2.4386 -0.2977 -0.8364
28009SOL     OW93956  10.960  12.630   0.854  0.7886 -0.3203 -0.3519
28009SOL    HW193957  10.947  12.575   0.931  1.4818  1.0087  0.7538
28009SOL    HW293958  10.993  12.570   0.787 -1.6986 -1.9089 -0.2942
28010SOL     OW93959   5.244   6.741   1.558  0.1585 -0.0295 -0.0457
28010SOL    HW193960   5.161   6.710   1.521 -0.2471  0.0287  0.7746
28010SOL    HW293961   5.218   6.811   1.618  0.7769 -0.2008  0.4278
28011SOL     OW93962  12.320   6.883   5.679  0.1386 -0.0587 -0.0597
28011SOL    HW193963  12.295   6.929   5.599  1.0441 -0.4448 -0.5826
28011SOL    HW293964  12.237   6.849   5.714 -0.3639  0.7791 -0.3999
28012SOL     OW93965   5.773   7.906   5.261 -0.6244 -0.2771 -0.5452
28012SOL    HW193966   5.855   7.905   5.311 -1.1014 -2.5913  0.3362
28012SOL    HW293967   5.777   7.826   5.209 -2.4407 -0.5916 -0.2619
28013SOL     OW93968   3.778  11.935  10.258 -0.5180 -0.5114  0.0550
28013SOL    HW193969   3.814  11.905  10.341 -1.6679 -0.6609  0.5078
28013SOL    HW293970   3.707  11.874  10.238  0.3992 -1.1117 -1.5759
28014SOL     OW93971   9.585   6.526   8.366  0.7259 -0.1930  0.1297
28014SOL    HW193972   9.622   6.531   8.278  0.8826  2.0081  0.2576
28014SOL    HW293973   9.506   6.579   8.362  2.5446  3.0153  2.0535
28015SOL     OW93974   0.160   1.222   2.634  0.2027  0.4165  0.0494
28015SOL    HW193975   0.140   1.226   2.540 -0.5272 -2.2905  0.0077
28015SOL    HW293976   0.086   1.264   2.676  0.9097  2.3812 -0.5671
28016SOL     OW93977  12.252   0.695   0.166  0.3689  0.2473 -0.0411
28016SOL    HW193978  12.301   0.634   0.110  3.5564  2.1705  0.4266
28016SOL    HW293979  12.277   0.672   0.255 -2.0899 -0.6374  0.5211
28017SOL     OW93980   6.932   0.359   6.486 -0.2835  1.0078  0.2423
28017SOL    HW193981   6.991   0.356   6.561 -0.3178  1.6998  0.3044
28017SOL    HW293982   6.976   0.306   6.419 -0.2034  0.4789  0.7057
28018SOL     OW93983   4.864   3.713   8.817 -0.6193  0.6104 -0.1530
28018SOL    HW193984   4.860   3.671   8.903  0.3345  1.6469  0.4228
28018SOL    HW293985   4.824   3.799   8.831  2.4134  2.1088  0.1314
28019SOL     OW93986  11.719   3.297   9.845  0.3172  0.0708 -0.4434
28019SOL    HW193987  11.782   3.258   9.784 -0.8948 -1.1333 -0.9599
28019SOL    HW293988  11.749   3.268   9.931  0.7015 -0.1688 -0.6525
28020SOL     OW93989   2.111   2.086   1.160  0.4027  0.0603  0.5260
28020SOL    HW193990   2.085   2.003   1.122 -0.6150  0.0903  1.1286
28020SOL    HW293991   2.133   2.065   1.251 -0.8629  0.6018  0.9765
28021SOL     OW93992  12.792   7.634  11.793  0.3264  0.2601  0.5927
28021SOL    HW193993  12.859   7.678  11.741  0.2874 -0.2948  0.0594
28021SOL    HW293994  12.834   7.615  11.877 -0.3908  3.6118  1.9103
28022SOL     OW93995   9.513  10.377   2.532  0.1817 -0.3741 -0.3906
28022SOL    HW193996   9.510  10.283   2.552  0.2670 -0.0660  1.1834
28022SOL    HW293997   9.517  10.419   2.618 -2.2482  1.1720 -0.9502
28023SOL     OW93998   5.654   5.979   0.588 -0.0187  0.5299  0.0601
28023SOL    HW193999   5.570   5.971   0.634  0.0291  0.6926  0.1769
28023SOL    HW294000   5.655   5.906   0.527 -0.5705  0.9433 -0.4605
28024SOL     OW94001  10.130   6.635   8.206 -0.5743 -0.3170 -0.8101
28024SOL    HW194002  10.132   6.730   8.220  0.6431 -0.4663  0.2465
28024SOL    HW294003  10.202   6.619   8.145 -0.6198 -0.6021 -0.7880
28025SOL     OW94004   5.903   3.152   8.473 -0.8595  0.5371 -0.6151
28025SOL    HW194005   5.811   3.171   8.495 -0.4946  2.2066 -0.3970
28025SOL    HW294006   5.899   3.073   8.419 -2.4128  0.5020 -0.4923
28026SOL     OW94007   5.561   8.739  11.067  0.3749 -0.0212 -0.4608
28026SOL    HW194008   5.473   8.702  11.074 -0.1779  1.3804  0.3587
28026SOL    HW294009   5.550   8.832  11.085  2.1795  0.0135  0.7531
28027SOL     OW94010   3.768   1.090   3.171 -0.3814 -0.6610 -0.2786
28027SOL    HW194011   3.848   1.114   3.123 -0.2271 -1.7024 -0.5799
28027SOL    HW294012   3.799   1.063   3.257 -0.6778  1.3894  0.5115
28028SOL     OW94013   9.748  10.573   2.379 -0.1843 -0.3313 -0.3256
28028SOL    HW194014   9.700  10.652   2.404 -1.2932 -0.4345 -2.0262
28028SOL    HW294015   9.764  10.528   2.462 -1.4933  0.5655  0.4486
28029SOL     OW94016   5.177   0.404   6.878 -0.2369 -0.9078 -0.1154
28029SOL    HW194017   5.238   0.471   6.909 -0.1798 -0.0580 -1.9480
28029SOL    HW294018   5.094   0.450   6.866 -0.1839 -1.1263 -1.4456
28030SOL     OW94019   4.451  10.285   9.364  0.0791  0.4199 -0.0924
28030SOL    HW194020   4.508  10.306   9.437  0.9241 -2.1840  0.1082
28030SOL    HW294021   4.380  10.234   9.403  0.2648 -0.5613 -0.9931
28031SOL     OW94022  11.522   0.312   1.339  0.0875 -0.5945  0.4397
28031SOL    HW194023  11.475   0.369   1.278 -0.9251  0.8761  2.4844
28031SOL    HW294024  11.605   0.357   1.354  0.4331 -1.0738 -0.0140
28032SOL     OW94025  13.059   9.323  10.103 -0.5999  0.1140 -0.4412
28032SOL    HW194026  12.964   9.306  10.101 -1.3300  3.1431  1.4333
28032SOL    HW294027  13.097   9.242  10.138 -2.4134 -1.3355 -1.6532
28033SOL     OW94028   1.213   2.809   5.254 -0.0621 -0.5409  0.1716
28033SOL    HW194029   1.151   2.772   5.317 -0.6177 -0.3067 -0.2250
28033SOL    HW294030   1.234   2.895   5.288 -2.7629  0.8927 -1.4705
28034SOL     OW94031   1.400  10.741   2.666 -0.0074  0.2651 -0.0286
28034SOL    HW194032   1.308  10.768   2.666  0.4817  2.1549 -1.4028
28034SOL    HW294033   1.448  10.820   2.640  1.9709 -0.8198  0.1331
28035SOL     OW94034   2.703  12.533  12.224 -0.5793  0.4612  0.2743
28035SOL    HW194035   2.679  12.625  12.239 -2.1576 -0.1814  2.0852
28035SOL    HW294036   2.741  12.505  12.307  1.0308 -0.2457 -0.6469
28036SOL     OW94037   7.873   0.278   4.515 -0.4377  0.3462 -0.1608
28036SOL    HW194038   7.795   0.233   4.548  0.3587 -0.4125  0.7078
28036SOL    HW294039   7.885   0.244   4.426 -0.2164 -0.6785  0.2564
28037SOL     OW94040   9.494   8.975   7.630 -0.7900  0.0016  0.1152
28037SOL    HW194041   9.407   8.936   7.639 -1.4487  1.6116  1.1870
28037SOL    HW294042   9.532   8.969   7.717  0.5191 -1.3489 -0.5035
28038SOL     OW94043   8.363   9.228   1.520  0.1446 -0.2469  0.0090
28038SOL    HW194044   8.297   9.205   1.455 -2.7033  1.7596  1.9363
28038SOL    HW294045   8.393   9.315   1.493 -1.5107  0.8775  1.5394
28039SOL     OW94046  13.068   8.433   9.759 -0.3279  0.3004 -0.4786
28039SOL    HW194047  13.118   8.464   9.684  0.8084 -1.5862 -0.5769
28039SOL    HW294048  13.129   8.375   9.806 -2.1218 -1.4069 -0.1274
28040SOL     OW94049   9.681  12.450  11.065 -0.2700  0.0051  0.0626
28040SOL    HW194050   9.622  12.382  11.034 -0.8823  0.2665  0.6270
28040SOL    HW294051   9.634  12.492  11.137  0.5853  0.2527  0.4964
28041SOL     OW94052   6.071   0.374   1.071  0.0158  0.4239  0.2117
28041SOL    HW194053   6.120   0.367   1.153  1.4300 -0.7382 -0.6692
28041SOL    HW294054   5.997   0.314   1.081  0.3464  0.0673  0.5429
28042SOL     OW94055  10.177   6.816   0.312  0.0304 -0.0727 -0.2687
28042SOL    HW194056  10.118   6.768   0.253  1.5151 -1.1284 -0.9528
28042SOL    HW294057  10.155   6.783   0.399 -1.9229  1.2192 -0.2124
28043SOL     OW94058   5.870   4.080  12.806 -0.2465  0.2339 -0.6173
28043SOL    HW194059   5.807   4.028  12.756  0.4370 -2.9043  1.5046
28043SOL    HW294060   5.827   4.095  12.890  0.1307  2.0423 -0.7136
28044SOL     OW94061  11.236   3.499  10.250  0.0520 -0.5676  0.1019
28044SOL    HW194062  11.217   3.420  10.301 -0.6700 -1.5122 -1.5413
28044SOL    HW294063  11.331   3.509  10.256  0.1245 -1.4325  0.5254
28045SOL     OW94064   7.689   0.146   0.822 -0.7899  0.2398  0.1496
28045SOL    HW194065   7.718   0.080   0.885 -0.2266  0.8346  0.5216
28045SOL    HW294066   7.599   0.166   0.849 -0.5536  0.4912  0.7758
28046SOL     OW94067  11.737  11.719  11.891  0.0235  0.1510 -0.6872
28046SOL    HW194068  11.647  11.725  11.923  0.5090 -0.8985  0.9699
28046SOL    HW294069  11.769  11.810  11.895 -0.6304  0.3750 -0.2710
28047SOL     OW94070   7.562   9.215  12.787  0.5603 -0.4969  0.2539
28047SOL    HW194071   7.522   9.269  12.856  0.5499  1.1489 -0.9684
28047SOL    HW294072   7.569   9.128  12.826 -0.4977  0.1049  1.9217
28048SOL     OW94073   9.042   1.281   9.728  0.7754 -0.0417  0.3204
28048SOL    HW194074   8.970   1.252   9.671  1.9491 -0.5746 -0.9520
28048SOL    HW294075   9.054   1.210   9.790 -0.3758  0.4487  1.1461
28049SOL     OW94076   9.463  10.575   2.761  0.1193 -0.1652  0.0860
28049SOL    HW194077   9.399  10.618   2.705 -0.6495  0.7109  1.5529
28049SOL    HW294078   9.506  10.648   2.807  0.3205 -0.8576  1.0294
28050SOL     OW94079   9.136   7.602   0.584 -0.3706 -0.1518  0.3585
28050SOL    HW194080   9.074   7.561   0.644 -0.3442 -1.9643 -0.7824
28050SOL    HW294081   9.222   7.572   0.615 -0.3962 -1.6621 -0.9404
28051SOL     OW94082   9.240   7.394   3.224  0.0501 -0.1900 -0.3601
28051SOL    HW194083   9.235   7.459   3.154 -0.5146  0.5154  0.3215
28051SOL    HW294084   9.158   7.344   3.215  0.1432 -0.3349 -0.4176
28052SOL     OW94085   5.344   3.959   5.687  0.7103  0.6061 -0.1156
28052SOL    HW194086   5.360   3.923   5.774 -0.2250  0.8225  0.1619
28052SOL    HW294087   5.426   4.002   5.664  1.2251 -0.1160  0.3264
28053SOL     OW94088  11.530   7.473   7.642 -0.6008  0.0195 -0.1686
28053SOL    HW194089  11.533   7.470   7.738 -0.4519 -0.3735 -0.1839
28053SOL    HW294090  11.512   7.565   7.622 -2.5713 -0.2213  0.2838
28054SOL     OW94091   7.247   8.370   8.799  0.1000 -0.5026 -0.0998
28054SOL    HW194092   7.197   8.440   8.841  0.9778 -0.1022  0.2837
28054SOL    HW294093   7.231   8.382   8.706 -0.8064 -0.6042  0.0285
28055SOL     OW94094   6.881   5.382   3.570 -0.2803 -0.2729 -0.0159
28055SOL    HW194095   6.816   5.345   3.630 -0.3821  1.3674  0.9553
28055SOL    HW294096   6.845   5.365   3.483 -1.9330  0.4060  0.4849
28056SOL     OW94097   5.012   2.128   3.488 -0.5501 -0.3724  0.4958
28056SOL    HW194098   5.055   2.056   3.535 -1.2246 -1.2917 -0.2838
28056SOL    HW294099   4.922   2.128   3.521 -0.7379 -0.3270 -0.0169
28057SOL     OW94100   7.090   9.708   8.926  0.1281  0.0565  0.2983
28057SOL    HW194101   7.162   9.770   8.933  0.1462  0.3363 -1.8334
28057SOL    HW294102   7.014   9.761   8.903 -0.3845 -0.4521  0.7838
28058SOL     OW94103   8.268   9.794   3.377  0.3954  0.3671 -0.0925
28058SOL    HW194104   8.247   9.738   3.302  1.2911 -0.7468  0.4456
28058SOL    HW294105   8.342   9.847   3.348  0.3967  0.3159 -0.1819
28059SOL     OW94106  11.817  10.626   0.377 -0.1649 -0.0160 -0.2160
28059SOL    HW194107  11.854  10.713   0.364 -0.8601  0.5138  1.1727
28059SOL    HW294108  11.841  10.603   0.468  0.9297 -1.7436 -0.8774
28060SOL     OW94109   2.044   2.899   2.906 -0.1920  0.5091  0.2532
28060SOL    HW194110   2.045   2.994   2.897  0.2453  0.5499  0.7177
28060SOL    HW294111   1.952   2.875   2.891  0.0940  0.7360 -2.4378
28061SOL     OW94112   4.744  12.463  13.053 -0.3311  0.3070  0.1396
28061SOL    HW194113   4.671  12.432  12.999  0.7243  1.1796 -1.9004
28061SOL    HW294114   4.722  12.434  13.141 -3.4877  1.1533 -0.2317
28062SOL     OW94115   9.455   3.215   7.592 -0.1874 -0.0663  0.0033
28062SOL    HW194116   9.528   3.267   7.558  1.5487 -2.2523  0.1337
28062SOL    HW294117   9.400   3.197   7.516  0.4214  0.0763 -0.4762
28063SOL     OW94118   7.786   2.183   2.229 -0.1781  0.0546  0.0954
28063SOL    HW194119   7.881   2.172   2.228 -0.3912 -2.4129 -1.1098
28063SOL    HW294120   7.772   2.275   2.207  1.9087  0.6254  0.9066
28064SOL     OW94121   4.526   4.874   7.358 -0.2140  0.4899 -0.1766
28064SOL    HW194122   4.617   4.905   7.366 -0.0237  0.2287 -1.1676
28064SOL    HW294123   4.511   4.872   7.263 -0.8798 -0.5636 -0.0528
28065SOL     OW94124   1.810  11.161  13.103 -0.5994  0.0401  0.3386
28065SOL    HW194125   1.744  11.215  13.059 -1.7768 -1.2709  0.4625
28065SOL    HW294126   1.807  11.077  13.057  0.8862 -0.1042  0.4533
28066SOL     OW94127   2.841   2.108  10.002 -0.1313  0.6704  0.3672
28066SOL    HW194128   2.804   2.173  10.062 -0.6906 -2.2843  3.5086
28066SOL    HW294129   2.934   2.105  10.025  0.2530  1.4755 -0.9708
28067SOL     OW94130   7.111   9.876   7.344  0.0534 -0.0559  0.2894
28067SOL    HW194131   7.174   9.856   7.275  0.8340  0.1853  0.9107
28067SOL    HW294132   7.026   9.849   7.309  0.0435  2.3616 -1.7663
28068SOL     OW94133   2.750   1.497   8.045 -0.3324  0.5226  0.3795
28068SOL    HW194134   2.795   1.476   7.963 -0.6914  2.2352 -0.3044
28068SOL    HW294135   2.729   1.412   8.083 -0.7438 -0.3449 -1.6321
28069SOL     OW94136   6.371  12.985  11.820 -0.0729  0.4991  0.1218
28069SOL    HW194137   6.291  12.976  11.872  0.6770 -0.0447  1.2220
28069SOL    HW294138   6.389  12.897  11.788 -0.8739  0.9376 -1.6375
28070SOL     OW94139   3.435   3.780  13.009  0.0618  0.0273  0.0812
28070SOL    HW194140   3.449   3.719  12.936  0.3624  0.0493  0.1184
28070SOL    HW294141   3.523   3.802  13.039 -0.0404  0.5385  0.0218
28071SOL     OW94142   0.958  12.978   5.436  0.0936 -0.0521  0.1162
28071SOL    HW194143   0.890  13.045   5.450 -0.1285 -0.3761  0.6387
28071SOL    HW294144   0.917  12.914   5.378  0.3308  0.2976 -0.4410
28072SOL     OW94145   6.078  12.319   4.721 -0.5324 -0.1344 -0.2376
28072SOL    HW194146   6.124  12.336   4.803  0.8360  0.6840 -1.1391
28072SOL    HW294147   6.008  12.258   4.745  0.7524 -1.0901  1.2677
28073SOL     OW94148   4.036   5.717  12.596  0.5815  0.4051 -0.1726
28073SOL    HW194149   3.977   5.649  12.628  0.4837 -0.0290 -1.2182
28073SOL    HW294150   4.109   5.718  12.658  0.4490 -0.4636  0.0055
28074SOL     OW94151   1.070  11.312   9.699  0.1601  0.3890  0.3701
28074SOL    HW194152   0.987  11.293   9.742  0.9741  0.5985  2.1128
28074SOL    HW294153   1.046  11.361   9.621 -1.3509  0.4563  0.8500
28075SOL     OW94154   2.866   4.044  12.284  0.0762  0.4254 -0.0845
28075SOL    HW194155   2.783   4.046  12.331  0.5603 -0.1743  0.8289
28075SOL    HW294156   2.908   3.962  12.312  0.5990  0.2927 -1.1901
28076SOL     OW94157  11.527   5.863  12.673 -0.1311  0.2406 -0.5412
28076SOL    HW194158  11.561   5.951  12.690  1.3446 -0.4877  0.5086
28076SOL    HW294159  11.527   5.855  12.578 -1.3929  1.7512 -0.7246
28077SOL     OW94160   4.104   5.857   1.230  0.0444  0.3441  0.5731
28077SOL    HW194161   4.067   5.776   1.265 -1.6073 -0.4132 -2.5145
28077SOL    HW294162   4.197   5.838   1.219 -0.1676 -0.8451  0.7035
28078SOL     OW94163   0.964   7.017   7.656  0.0709  0.2030 -0.5132
28078SOL    HW194164   0.989   6.942   7.711  0.1516 -0.3652 -1.3028
28078SOL    HW294165   1.041   7.074   7.657  0.3214 -0.1278 -0.5671
28079SOL     OW94166  10.997   1.530   4.711 -0.5287  0.3284 -0.1665
28079SOL    HW194167  10.921   1.478   4.736 -0.2068 -0.4708 -0.8042
28079SOL    HW294168  11.072   1.483   4.749 -0.3578  1.3402  0.8373
28080SOL     OW94169   3.363   8.243   3.368  0.0934 -0.1789  0.1981
28080SOL    HW194170   3.389   8.191   3.444 -0.9776  0.0280  0.7241
28080SOL    HW294171   3.444   8.254   3.318  0.7716 -0.5320  1.1779
28081SOL     OW94172   4.531   6.334   6.014 -0.0068 -0.0022  0.8912
28081SOL    HW194173   4.601   6.386   6.054  0.0372  1.0645 -0.4849
28081SOL    HW294174   4.575   6.255   5.982  0.1554 -0.3474  1.9365
28082SOL     OW94175   3.953  12.710   3.596  0.3750 -0.1917  0.3258
28082SOL    HW194176   4.036  12.729   3.640  0.4267  0.1047  0.1053
28082SOL    HW294177   3.960  12.618   3.569  0.3187 -0.3957  0.9870
28083SOL     OW94178  10.121  11.727   8.596  0.3248  0.8309 -0.8763
28083SOL    HW194179  10.166  11.643   8.605  2.1478  1.3914 -3.4348
28083SOL    HW294180  10.031  11.709   8.621  1.3185 -1.0266  1.9135
28084SOL     OW94181   7.776   5.752  12.533  0.2258  0.0850 -0.1124
28084SOL    HW194182   7.826   5.833  12.532 -0.4949  0.5537 -1.4605
28084SOL    HW294183   7.695   5.774  12.578  0.9550 -0.5329  1.5922
28085SOL     OW94184   6.258   2.081   1.338  0.6192  0.0688 -0.3546
28085SOL    HW194185   6.231   2.076   1.246 -0.3163 -2.9513 -0.0041
28085SOL    HW294186   6.187   2.128   1.381  1.6381  2.6457 -1.2622
28086SOL     OW94187   3.152  11.839   8.851  0.3225 -0.3387 -0.0403
28086SOL    HW194188   3.136  11.898   8.924  1.5050 -0.4126  0.2918
28086SOL    HW294189   3.246  11.825   8.851  0.2790 -0.7503 -1.2685
28087SOL     OW94190   6.506   0.837   7.972  0.0375  0.0079  0.0038
28087SOL    HW194191   6.570   0.878   8.031  0.0945 -0.6509  0.4026
28087SOL    HW294192   6.559   0.802   7.901  0.3337 -1.9401  1.1122
28088SOL     OW94193   9.299   3.786   6.084 -0.1491 -0.1966  0.7160
28088SOL    HW194194   9.299   3.771   6.179  3.4160  0.6153  0.9998
28088SOL    HW294195   9.385   3.756   6.055 -0.3832  1.3347 -1.9461
28089SOL     OW94196   5.006   2.975   8.285  0.1404 -0.4505 -0.0382
28089SOL    HW194197   5.035   2.938   8.368  0.2577 -1.1539 -0.3823
28089SOL    HW294198   4.966   3.059   8.308  2.4756  0.6132  0.4517
28090SOL     OW94199  10.352  12.332   0.865 -0.2776  0.0263 -0.4808
28090SOL    HW194200  10.405  12.267   0.911 -0.3430  0.0903 -0.3136
28090SOL    HW294201  10.393  12.340   0.779  0.4772  0.6653 -0.0797
28091SOL     OW94202  12.978   7.009   8.403  0.4487 -0.5550 -0.2705
28091SOL    HW194203  13.016   6.930   8.440 -0.1101 -0.9994 -0.6322
28091SOL    HW294204  13.028   7.025   8.323  1.9887  0.6858  0.8618
28092SOL     OW94205   2.181   7.324   1.414 -0.2345 -0.4128 -0.1414
28092SOL    HW194206   2.176   7.313   1.509  0.2778 -4.5775 -0.3957
28092SOL    HW294207   2.269   7.358   1.399  0.0847 -0.7628  0.8282
28093SOL     OW94208   7.131  12.159  12.621 -0.4221 -0.5079 -0.1997
28093SOL    HW194209   7.105  12.192  12.707 -0.4184  0.3354 -0.5203
28093SOL    HW294210   7.194  12.223  12.588 -0.8504 -0.5241 -1.0762
28094SOL     OW94211   0.557   7.232  12.932  0.2008  0.5658 -0.4222
28094SOL    HW194212   0.635   7.278  12.899  0.5399  0.5560  0.3496
28094SOL    HW294213   0.504   7.217  12.854  1.7870 -1.0251 -1.2816
28095SOL     OW94214   3.996   9.136   2.606 -0.0057  0.5897 -0.3189
28095SOL    HW194215   4.060   9.141   2.677  1.5352 -0.9320 -1.5063
28095SOL    HW294216   3.938   9.064   2.631  0.8873 -0.3281 -0.8375
28096SOL     OW94217  13.291   7.119   3.227  0.4005 -0.3194 -0.7447
28096SOL    HW194218  13.302   7.024   3.221 -2.5474 -0.6586 -3.1304
28096SOL    HW294219  13.207   7.131   3.270  0.6021  1.2289 -0.7255
28097SOL     OW94220  13.241   4.487   0.881  0.4567  0.0592  0.4717
28097SOL    HW194221  13.232   4.398   0.913  1.2273  0.2609  1.2783
28097SOL    HW294222  13.154   4.526   0.893  0.3819 -0.2789  1.0674
28098SOL     OW94223  12.738   5.186  11.581  0.0400  0.0798 -0.9655
28098SOL    HW194224  12.680   5.113  11.557 -0.4262 -0.0774  0.5382
28098SOL    HW294225  12.706   5.214  11.666  0.1619  2.1328 -1.5575
28099SOL     OW94226   1.815   5.989   5.405  0.0080  0.3175 -0.0288
28099SOL    HW194227   1.884   6.055   5.406  0.2606  0.1327  2.5984
28099SOL    HW294228   1.750   6.021   5.467 -1.4798 -0.3399 -1.1892
28100SOL     OW94229  11.903   1.294  11.768  0.2216 -0.1556  0.1824
28100SOL    HW194230  11.928   1.293  11.676 -0.1373  1.1069  0.0508
28100SOL    HW294231  11.874   1.205  11.786  1.8260 -0.8523 -0.4837
28101SOL     OW94232   0.503   1.578   8.361 -0.5767 -0.2291  0.3012
28101SOL    HW194233   0.585   1.622   8.381  0.1336  0.0386 -2.6894
28101SOL    HW294234   0.444   1.602   8.432  1.9621 -0.6551  2.7007
28102SOL     OW94235   8.308   5.058   2.848 -0.2665 -0.1230 -0.3149
28102SOL    HW194236   8.301   4.988   2.783  0.8848  0.8497 -1.5397
28102SOL    HW294237   8.218   5.088   2.861 -0.7088 -1.4774 -0.1423
28103SOL     OW94238   6.374   1.689   3.555  0.2843  0.1734  0.9811
28103SOL    HW194239   6.313   1.698   3.481 -0.2636  0.2652  1.4323
28103SOL    HW294240   6.449   1.743   3.531 -0.0665  0.5373  0.6747
28104SOL     OW94241  12.546   3.602   3.573 -0.1000  0.1506 -0.5995
28104SOL    HW194242  12.544   3.648   3.656  2.0492  1.3644 -1.1292
28104SOL    HW294243  12.574   3.514   3.595  0.4728  0.4681 -0.0180
28105SOL     OW94244   0.167  12.683   6.548  0.5623  0.6311 -0.4664
28105SOL    HW194245   0.255  12.717   6.532  1.0863 -1.6591 -3.1691
28105SOL    HW294246   0.181  12.590   6.568 -1.1694  0.5322  0.4058
28106SOL     OW94247  10.603   3.588  11.825 -0.5687  0.0163  0.0801
28106SOL    HW194248  10.516   3.556  11.847 -0.3393 -1.0824 -0.5125
28106SOL    HW294249  10.629   3.537  11.748  1.2743 -0.8927  1.2225
28107SOL     OW94250  10.752   5.732   3.640 -0.1500 -0.0667  0.5849
28107SOL    HW194251  10.718   5.674   3.708 -1.5057  0.0166  0.0098
28107SOL    HW294252  10.845   5.742   3.661 -0.1652 -1.4124  1.4293
28108SOL     OW94253   4.636  10.123  12.785 -0.4747 -0.0154 -0.0634
28108SOL    HW194254   4.704  10.146  12.721 -0.1231  1.6847  0.8787
28108SOL    HW294255   4.618  10.031  12.767  0.6049  0.0398 -1.6956
28109SOL     OW94256   0.198   8.934  11.340  0.9721  0.2643 -0.1676
28109SOL    HW194257   0.134   8.879  11.294  0.0343  0.8230  0.4368
28109SOL    HW294258   0.194   9.018  11.294  0.2529  0.7279  0.7088
28110SOL     OW94259   3.146   4.510  11.576  0.0435 -0.0332 -0.0885
28110SOL    HW194260   3.173   4.586  11.628 -0.4409 -0.4820  0.8424
28110SOL    HW294261   3.211   4.442  11.599  0.0936 -0.0985 -0.4201
28111SOL     OW94262   5.362   7.599   5.709 -0.2378  0.1831  0.1780
28111SOL    HW194263   5.435   7.659   5.724  0.2784 -0.5142  0.5320
28111SOL    HW294264   5.296   7.652   5.665  0.5086  0.8147 -0.2106
28112SOL     OW94265   5.930  13.127   2.225  0.4105  0.2427 -0.0360
28112SOL    HW194266   5.981  13.106   2.303 -0.6118  0.2761  0.6648
28112SOL    HW294267   5.870  13.196   2.254  0.1775  0.4178 -0.9183
28113SOL     OW94268   2.128   5.799   9.153 -0.0057 -0.8157  0.0076
28113SOL    HW194269   2.043   5.822   9.116 -0.3603 -1.3311  0.4794
28113SOL    HW294270   2.141   5.860   9.226  0.2723 -0.3972 -0.3895
28114SOL     OW94271   5.023   5.162   4.935  0.1347  0.4908 -0.0248
28114SOL    HW194272   5.054   5.126   4.851  0.4582  2.5435 -0.8418
28114SOL    HW294273   5.102   5.197   4.977 -0.2938  1.1210  0.2734
28115SOL     OW94274   8.499   1.427   0.396  0.0870 -0.1260  0.8247
28115SOL    HW194275   8.538   1.343   0.372 -2.3032 -1.3650  0.9241
28115SOL    HW294276   8.430   1.404   0.459 -0.3944  1.9494  1.1242
28116SOL     OW94277   7.162   2.388   1.011  0.5511  0.2286  0.6297
28116SOL    HW194278   7.182   2.359   1.100  1.4364  0.1406  0.4046
28116SOL    HW294279   7.077   2.432   1.019  0.0117 -0.9004  1.2846
28117SOL     OW94280  13.034   8.702   5.449 -0.1310 -0.5431 -0.4682
28117SOL    HW194281  13.052   8.675   5.359 -0.0858 -2.0897 -0.0235
28117SOL    HW294282  12.947   8.666   5.468 -0.6281  0.7012 -0.2242
28118SOL     OW94283  11.506   1.710   8.999  0.0329 -0.1042 -0.7432
28118SOL    HW194284  11.511   1.792   9.047  0.8721 -1.0939  0.9382
28118SOL    HW294285  11.426   1.668   9.029  1.4790 -1.5802  1.3541
28119SOL     OW94286  10.464  12.415   0.612  0.6279 -0.3841  0.2770
28119SOL    HW194287  10.534  12.417   0.547 -0.9943 -0.7964 -1.5971
28119SOL    HW294288  10.394  12.468   0.573 -0.0546  0.1899  2.1634
28120SOL     OW94289   7.099  12.631   4.649 -0.4093 -0.0106 -0.5321
28120SOL    HW194290   7.022  12.679   4.679  0.3308  0.8678  0.0195
28120SOL    HW294291   7.065  12.570   4.584 -1.7714 -0.6128  0.6943
28121SOL     OW94292   9.188   3.624   9.047 -0.1139  0.3618 -0.1084
28121SOL    HW194293   9.148   3.547   9.007 -0.3761  1.0249 -1.1495
28121SOL    HW294294   9.281   3.615   9.027 -0.4035  1.3851 -2.1362
28122SOL     OW94295   1.802   1.277   2.681 -0.2862 -0.1984  0.1536
28122SOL    HW194296   1.758   1.310   2.603 -0.5424 -0.9948 -0.0488
28122SOL    HW294297   1.876   1.227   2.648 -1.1168 -1.6131  0.3387
28123SOL     OW94298   2.596   0.122   3.994  0.1716 -0.6290  0.1150
28123SOL    HW194299   2.566   0.164   4.075 -1.0390 -1.1169 -0.0702
28123SOL    HW294300   2.570   0.031   4.003  2.2953 -1.2918  0.2740
28124SOL     OW94301   0.365  11.174   0.326 -0.0379  0.1898 -0.1604
28124SOL    HW194302   0.333  11.115   0.395  0.6645 -0.0087 -0.0002
28124SOL    HW294303   0.363  11.121   0.246  0.9761 -0.1988  0.0525
28125SOL     OW94304   6.364   4.352   4.727  0.9711  0.8281 -0.1201
28125SOL    HW194305   6.362   4.341   4.632 -1.7666 -2.7365  0.1411
28125SOL    HW294306   6.443   4.305   4.754  0.1032 -0.9885 -0.5370
28126SOL     OW94307   8.445   3.658  11.274 -0.0190 -0.0433  0.3137
28126SOL    HW194308   8.476   3.572  11.244 -1.0887  0.4499 -2.5617
28126SOL    HW294309   8.526   3.708  11.289  0.6345 -0.6726 -0.9050
28127SOL     OW94310  11.430  12.597   9.005  0.1827  0.3215  0.3798
28127SOL    HW194311  11.487  12.545   9.061 -0.2401 -0.9142 -0.3140
28127SOL    HW294312  11.389  12.660   9.065 -0.7961 -1.4066  1.6267
28128SOL     OW94313   8.458  11.283   8.065  0.3912 -0.0704  0.4981
28128SOL    HW194314   8.533  11.323   8.109  0.4063  0.4462  0.0113
28128SOL    HW294315   8.422  11.353   8.011 -0.4431 -0.3152  0.7245
28129SOL     OW94316   9.308   9.047   1.150  0.7779  0.3623 -0.1306
28129SOL    HW194317   9.275   8.975   1.096 -1.4784  1.3345 -0.1498
28129SOL    HW294318   9.281   9.024   1.239  2.7706 -0.2697  0.3593
28130SOL     OW94319   4.797   3.251   2.282  0.1449  0.0868 -0.2758
28130SOL    HW194320   4.834   3.243   2.194 -1.0601  1.3806 -0.9433
28130SOL    HW294321   4.798   3.345   2.300 -2.1856  0.1339 -0.0869
28131SOL     OW94322   2.583   1.795   2.868  0.2417  0.2423  0.1432
28131SOL    HW194323   2.636   1.871   2.888  0.8058 -0.3397  0.9124
28131SOL    HW294324   2.495   1.830   2.853  0.3992  0.9939  0.9143
28132SOL     OW94325   3.248   0.984   4.817  0.3389  0.1306 -0.4800
28132SOL    HW194326   3.321   0.968   4.878  0.2231 -0.2133 -0.4291
28132SOL    HW294327   3.177   0.930   4.850  0.4350 -0.4685 -1.2104
28133SOL     OW94328   6.587   5.159  13.235 -0.2984  0.2044 -0.1589
28133SOL    HW194329   6.547   5.239  13.202 -0.7801 -0.1419 -0.4260
28133SOL    HW294330   6.670   5.152  13.188  0.8643  1.7490  1.5081
28134SOL     OW94331  11.747   1.069   3.193 -0.0517  0.0008  0.2867
28134SOL    HW194332  11.812   1.001   3.178 -0.8309 -0.5723 -0.6839
28134SOL    HW294333  11.668   1.036   3.149 -0.8070  0.9594  0.8845
28135SOL     OW94334   9.050   0.819   1.770 -0.1606 -0.1225 -0.0834
28135SOL    HW194335   9.086   0.854   1.689  0.6696 -0.5398  0.0839
28135SOL    HW294336   9.114   0.752   1.797 -1.4055 -1.3486 -0.0957
28136SOL     OW94337  11.313   5.164   6.200 -0.1283 -0.7861  0.0797
28136SOL    HW194338  11.373   5.159   6.275 -0.0350  0.0186  0.0690
28136SOL    HW294339  11.358   5.219   6.136  0.0707 -1.9893 -0.8527
28137SOL     OW94340   0.068   1.977  11.155  0.2940  0.4605  0.2980
28137SOL    HW194341   0.018   1.911  11.203  0.2374  0.5385  0.3460
28137SOL    HW294342   0.025   2.060  11.176 -1.5198  0.2492 -2.0482
28138SOL     OW94343   9.435   4.699  10.610 -0.8097 -0.4245 -0.3363
28138SOL    HW194344   9.446   4.678  10.703 -0.9813 -2.0924 -0.6656
28138SOL    HW294345   9.507   4.760  10.590  0.0637 -1.1399  0.5638
28139SOL     OW94346   9.643   1.752  11.226  0.2971 -0.4507 -0.0475
28139SOL    HW194347   9.591   1.823  11.190 -0.9790 -0.8376  0.9647
28139SOL    HW294348   9.579   1.695  11.269  1.4300 -1.5654  0.2151
28140SOL     OW94349   1.490   5.700   0.270 -0.2139  0.0950 -0.0295
28140SOL    HW194350   1.442   5.767   0.221  0.2308 -0.2535 -0.9717
28140SOL    HW294351   1.422   5.650   0.315 -0.7706 -0.4173 -1.3778
28141SOL     OW94352   8.187  10.389   3.780  0.5708  0.4603  0.1141
28141SOL    HW194353   8.218  10.467   3.827  1.6272 -0.9172  1.8874
28141SOL    HW294354   8.259  10.367   3.721  1.7809 -0.9137  1.9433
28142SOL     OW94355   0.125   5.864   9.109  0.1252 -0.2455  0.2733
28142SOL    HW194356   0.166   5.797   9.053  0.7719 -1.2548  1.8746
28142SOL    HW294357   0.140   5.833   9.198 -0.1720  1.7156  1.0578
28143SOL     OW94358   4.276   0.552   8.417  0.0665  0.5209  0.4142
28143SOL    HW194359   4.201   0.492   8.428  0.7456 -0.4670 -0.2098
28143SOL    HW294360   4.239   0.639   8.433 -1.3236  0.0969 -0.3360
28144SOL     OW94361   8.431  13.090   2.136  0.2326 -0.4101  0.5033
28144SOL    HW194362   8.478  13.014   2.103  0.4392 -0.0493 -0.0469
28144SOL    HW294363   8.341  13.078   2.108  0.0231 -1.0198  1.4126
28145SOL     OW94364  10.942  12.152   1.326  0.0208 -0.1576  0.0259
28145SOL    HW194365  10.993  12.086   1.372  2.4946 -0.9089 -3.3602
28145SOL    HW294366  10.973  12.235   1.360 -0.2979 -0.6652  1.6152
28146SOL     OW94367   9.981   6.503   2.788 -0.0683  0.0115  0.5788
28146SOL    HW194368   9.963   6.575   2.848  0.5582 -1.4536  2.6547
28146SOL    HW294369  10.075   6.509   2.771 -0.6804  2.4211 -3.1555
28147SOL     OW94370   0.406   8.089   9.484  0.0228  0.5674 -0.0815
28147SOL    HW194371   0.359   8.055   9.559  1.5868  1.0584  1.1754
28147SOL    HW294372   0.425   8.012   9.430 -1.5594  0.2853 -0.2793
28148SOL     OW94373   0.941   9.404  11.250 -0.1819  0.1066 -0.1781
28148SOL    HW194374   1.026   9.377  11.283 -0.2474 -0.4973 -0.4851
28148SOL    HW294375   0.907   9.465  11.316 -0.9956 -2.2206  1.7314
28149SOL     OW94376   0.885   8.542  11.297 -0.5400 -0.1849 -0.1945
28149SOL    HW194377   0.839   8.592  11.365 -0.2726  2.7635 -2.0014
28149SOL    HW294378   0.975   8.534  11.330 -0.8438 -0.4684  0.5950
28150SOL     OW94379   7.829   7.000   2.566  0.1279 -0.5424 -0.4146
28150SOL    HW194380   7.853   7.017   2.657  0.5510 -1.3191 -0.3792
28150SOL    HW294381   7.913   6.991   2.520 -0.0858 -0.8941 -0.7422
28151SOL     OW94382   3.131   6.105   6.629 -0.2618  0.1700  0.2916
28151SOL    HW194383   3.128   6.200   6.638  0.4419  0.4030 -1.4955
28151SOL    HW294384   3.223   6.082   6.641 -0.3023 -0.1833 -0.0373
28152SOL     OW94385   2.639  12.493   1.531  0.4149 -0.1553 -1.0292
28152SOL    HW194386   2.598  12.528   1.610 -0.9793  0.9579 -2.1926
28152SOL    HW294387   2.725  12.536   1.527  0.2569  0.2234 -0.4440
28153SOL     OW94388   0.913   6.069   4.866  0.0783 -0.2521  0.8003
28153SOL    HW194389   0.923   6.111   4.952  1.3409 -1.2375  1.1715
28153SOL    HW294390   0.919   5.975   4.885  1.6328 -0.4568 -0.4966
28154SOL     OW94391   0.771   4.359   3.346  0.8197  0.2199  0.1195
28154SOL    HW194392   0.763   4.351   3.251  1.7656  0.9486 -0.0356
28154SOL    HW294393   0.842   4.299   3.370  1.4569  1.0020  0.1958
28155SOL     OW94394   2.713   8.741   6.718 -0.4897  0.4501  0.0673
28155SOL    HW194395   2.785   8.798   6.691  0.6010 -0.7233  0.3886
28155SOL    HW294396   2.694   8.688   6.641 -1.0493  0.7831 -0.0286
28156SOL     OW94397  10.607  11.109   9.412  0.0271  0.8127  0.3937
28156SOL    HW194398  10.604  11.204   9.412  0.8304  0.8799  2.0450
28156SOL    HW294399  10.631  11.086   9.502  0.9208 -0.8951 -0.2308
28157SOL     OW94400   1.815  13.104   4.936 -0.3358 -0.5036  0.0575
28157SOL    HW194401   1.783  13.085   4.849 -1.4623  0.7690  0.1757
28157SOL    HW294402   1.823  13.018   4.978 -2.9611 -0.9559 -0.2060
28158SOL     OW94403   0.193   1.152   6.537  0.2163 -0.2615  0.2019
28158SOL    HW194404   0.281   1.177   6.564  0.5847 -0.5314 -0.7220
28158SOL    HW294405   0.166   1.086   6.601  0.9442 -0.6481  0.1257
28159SOL     OW94406   5.325   1.620   6.763 -0.2387  0.2804 -0.3672
28159SOL    HW194407   5.413   1.594   6.790 -0.5182  0.5445  0.8721
28159SOL    HW294408   5.282   1.646   6.845 -1.1789  0.9985 -1.0694
28160SOL     OW94409   9.863  10.941   7.891  0.1624 -0.6076 -0.2958
28160SOL    HW194410   9.783  10.911   7.848  0.0455 -2.0830  0.8823
28160SOL    HW294411   9.897  11.009   7.832 -1.4030 -0.6540 -1.3248
28161SOL     OW94412   3.639   4.224  12.267 -0.4771  0.5461 -0.2467
28161SOL    HW194413   3.669   4.142  12.307 -0.0610  2.3233  3.4357
28161SOL    HW294414   3.544   4.221  12.275 -0.4389  0.5837  0.2355
28162SOL     OW94415   4.962  12.779   1.728  0.1289 -0.4102 -0.2798
28162SOL    HW194416   4.967  12.854   1.787 -0.8061  0.4198 -1.2202
28162SOL    HW294417   4.878  12.739   1.747  0.3855 -0.9011 -0.1642
28163SOL     OW94418   8.939  10.580   2.477 -0.6543  0.1230  0.5837
28163SOL    HW194419   8.878  10.549   2.410 -0.9150  0.8834  0.4660
28163SOL    HW294420   8.952  10.673   2.457 -0.5335  0.2948  1.4299
28164SOL     OW94421   3.082   1.306   5.491 -0.8187 -0.0210  0.2892
28164SOL    HW194422   3.069   1.215   5.464 -1.4357 -0.6516  2.4815
28164SOL    HW294423   2.998   1.332   5.530 -0.4021  1.2265  0.4080
28165SOL     OW94424   7.918   6.309  11.450 -1.1175  0.0485 -0.1834
28165SOL    HW194425   8.001   6.293  11.406 -0.5756  2.3521 -0.1627
28165SOL    HW294426   7.919   6.251  11.526  0.7741  0.4487  0.1386
28166SOL     OW94427   8.023   9.838   5.594  0.2746  0.0655  0.4315
28166SOL    HW194428   8.097   9.791   5.555 -0.5147  0.5529 -1.8287
28166SOL    HW294429   7.949   9.780   5.580 -0.1566  0.5885  0.5389
28167SOL     OW94430   9.482   9.609   1.420  0.5401  0.3019  0.1618
28167SOL    HW194431   9.575   9.608   1.396  0.5690  1.8024  0.0902
28167SOL    HW294432   9.480   9.580   1.511  0.7856 -2.1454 -0.5425
28168SOL     OW94433   3.928   2.446   1.596  0.4049  0.1042 -0.1787
28168SOL    HW194434   4.014   2.408   1.616 -0.7127 -2.4955  0.0336
28168SOL    HW294435   3.948   2.533   1.560  3.2597 -1.2463 -2.2391
28169SOL     OW94436   2.406   2.609   5.846 -0.2037  0.7096 -0.2672
28169SOL    HW194437   2.462   2.568   5.912 -1.7579  0.4114  0.9292
28169SOL    HW294438   2.398   2.700   5.873 -0.1410  0.8012 -0.5493
28170SOL     OW94439   6.382   7.599  11.769  0.0390 -0.0696  0.0705
28170SOL    HW194440   6.440   7.598  11.845  0.8061 -0.6302 -0.5111
28170SOL    HW294441   6.325   7.675  11.783  0.4522  0.0805  0.9862
28171SOL     OW94442   9.193   3.374  13.181 -0.0334  0.1375  0.4461
28171SOL    HW194443   9.118   3.374  13.240  0.0091  0.5842  0.5029
28171SOL    HW294444   9.219   3.282  13.175 -1.2555 -0.1791 -0.4359
28172SOL     OW94445   9.809   9.049   1.551 -0.7496  0.2335 -0.0858
28172SOL    HW194446   9.845   9.075   1.466 -0.4122 -0.4542 -0.1645
28172SOL    HW294447   9.749   9.119   1.574  0.5055  1.3408 -0.0418
28173SOL     OW94448   9.122   6.274   3.654  0.0440 -0.3073 -0.0103
28173SOL    HW194449   9.049   6.215   3.672 -0.3910  0.4538  0.7826
28173SOL    HW294450   9.103   6.309   3.567  0.6155 -1.7622 -0.7478
28174SOL     OW94451   9.236  12.729   0.722  0.5716  0.1375 -0.2416
28174SOL    HW194452   9.241  12.824   0.720 -1.0074  0.2341 -0.7505
28174SOL    HW294453   9.213  12.709   0.813  0.6912  0.2414 -0.1870
28175SOL     OW94454   9.910  10.968   7.427  0.1822  0.3619 -0.4718
28175SOL    HW194455   9.982  10.915   7.460 -0.4428 -1.0319 -1.2516
28175SOL    HW294456   9.947  11.020   7.357  0.4145 -0.4726 -0.9823
28176SOL     OW94457   0.936   9.851   2.363  0.2755  0.6014 -0.0431
28176SOL    HW194458   0.986   9.795   2.304 -2.5569 -0.7837 -1.3172
28176SOL    HW294459   0.906   9.793   2.432 -2.4999  0.4221 -1.2507
28177SOL     OW94460  13.043   9.236   7.325 -0.3435 -0.5594 -0.0270
28177SOL    HW194461  13.007   9.258   7.239 -1.4205 -2.1181 -0.0241
28177SOL    HW294462  13.102   9.163   7.308  1.2537  0.6166  0.2747
28178SOL     OW94463   1.393  11.224   3.417  0.1747  0.6668  0.4181
28178SOL    HW194464   1.482  11.195   3.436 -0.9484 -3.1194  0.6824
28178SOL    HW294465   1.382  11.210   3.323 -0.4666 -0.0077  0.5816
28179SOL     OW94466   7.518   9.467  11.176 -0.1005  0.3792  0.4805
28179SOL    HW194467   7.609   9.498  11.170 -0.7442  2.2698  0.0931
28179SOL    HW294468   7.498   9.470  11.270 -0.4597  2.1503  0.3752
28180SOL     OW94469   5.288   4.941   5.068 -0.4564  0.8871 -0.2246
28180SOL    HW194470   5.363   4.995   5.096  2.0902 -2.0108 -0.9606
28180SOL    HW294471   5.242   4.921   5.150 -1.2043  3.6065  0.1272
28181SOL     OW94472   8.600   8.181   4.883 -0.1344  0.3368  0.8094
28181SOL    HW194473   8.600   8.086   4.873 -0.6481  0.4009  0.0865
28181SOL    HW294474   8.555   8.213   4.805  1.7882  1.2887  0.0281
28182SOL     OW94475   0.517   2.841   6.536 -0.4162 -0.3744  0.6955
28182SOL    HW194476   0.609   2.856   6.559  0.1737  0.3342 -1.8329
28182SOL    HW294477   0.483   2.928   6.513 -1.1617 -0.8685 -0.1545
28183SOL     OW94478   3.636  10.989  11.122 -0.1632 -0.5054 -0.1577
28183SOL    HW194479   3.661  10.897  11.117  0.9078 -0.2540  0.3561
28183SOL    HW294480   3.558  10.996  11.066 -0.4558 -1.7804  0.0607
28184SOL     OW94481   8.498  10.427  12.365  0.1325 -0.6391  0.4578
28184SOL    HW194482   8.463  10.516  12.356  1.0992 -0.1514  1.3555
28184SOL    HW294483   8.461  10.379  12.290 -0.4164  0.5008 -0.0260
28185SOL     OW94484   6.417   0.341   9.745 -0.4455 -0.5745  0.2209
28185SOL    HW194485   6.327   0.371   9.758 -0.9037 -1.9534  0.4618
28185SOL    HW294486   6.452   0.329   9.833  0.0414  0.1352  0.1279
28186SOL     OW94487  10.840   3.121   6.564  0.3861 -0.3933  0.3145
28186SOL    HW194488  10.845   3.150   6.655 -0.4079  1.4303 -0.1732
28186SOL    HW294489  10.750   3.142   6.538  1.3895  1.7886 -1.7044
28187SOL     OW94490   4.445   3.435  12.885  0.5200 -0.2847 -0.0926
28187SOL    HW194491   4.418   3.520  12.850 -0.3478  0.5673  2.4068
28187SOL    HW294492   4.508   3.457  12.953  0.8777 -1.7168  0.0616
28188SOL     OW94493   4.174   2.144   1.905 -0.3257  0.6001 -0.0754
28188SOL    HW194494   4.250   2.180   1.859  0.3328 -0.2753  0.3008
28188SOL    HW294495   4.205   2.126   1.993 -1.1748  0.8860  0.2953
28189SOL     OW94496   3.056  12.924   8.215 -0.5531  0.6348  0.2641
28189SOL    HW194497   3.084  12.836   8.190 -0.7244  0.9128 -0.9493
28189SOL    HW294498   3.137  12.967   8.244 -0.4482  0.1218  0.7487
28190SOL     OW94499  13.055  11.679  12.479  0.0482 -0.0580 -0.1138
28190SOL    HW194500  12.992  11.748  12.501 -0.7513 -0.8533  0.1619
28190SOL    HW294501  13.113  11.674  12.554  0.0175  0.2063 -0.0713
28191SOL     OW94502  11.419   6.481   7.181 -0.0070 -0.2879 -0.6598
28191SOL    HW194503  11.480   6.534   7.232  0.5819  0.3541 -1.9573
28191SOL    HW294504  11.380   6.420   7.244  2.1689 -0.9082  0.1865
28192SOL     OW94505   3.932   2.276   7.253  0.5418  0.0589 -0.1526
28192SOL    HW194506   3.971   2.276   7.340  0.0788 -0.8203  0.0596
28192SOL    HW294507   3.857   2.336   7.260  0.2657 -0.3216  0.1654
28193SOL     OW94508  10.538   0.304   0.762  0.1926 -0.5505  0.3237
28193SOL    HW194509  10.456   0.324   0.808  0.5585 -1.3445  1.3730
28193SOL    HW294510  10.547   0.209   0.768  0.6621 -0.5819 -0.7204
28194SOL     OW94511   3.834  10.411   9.391 -0.0667 -0.0808 -0.2350
28194SOL    HW194512   3.796  10.419   9.478 -0.6023  1.5691 -0.5738
28194SOL    HW294513   3.842  10.317   9.376 -1.6151 -0.4321  0.9004
28195SOL     OW94514   6.988   8.385   7.919 -0.0210 -0.2348 -0.7793
28195SOL    HW194515   6.940   8.329   7.980  1.3771 -0.1066  0.4868
28195SOL    HW294516   6.982   8.340   7.835 -2.3800 -0.1859 -0.6938
28196SOL     OW94517   2.885   7.990   0.344 -0.0912  0.2254  0.1234
28196SOL    HW194518   2.947   8.061   0.325 -1.4238  1.8573  1.5172
28196SOL    HW294519   2.873   7.945   0.260 -0.4567  2.7245 -1.2754
28197SOL     OW94520   2.161   8.074   8.975 -0.3141 -0.2003 -0.1303
28197SOL    HW194521   2.077   8.045   9.011 -0.0367 -1.4694 -0.4711
28197SOL    HW294522   2.226   8.016   9.014  0.1164 -0.9024 -1.7718
28198SOL     OW94523   4.960   6.793   5.218  0.4548 -0.3120  0.7951
28198SOL    HW194524   4.926   6.782   5.307  0.8084 -1.9337  0.7496
28198SOL    HW294525   4.891   6.840   5.172 -1.9505 -3.6983  0.6437
28199SOL     OW94526  11.878   4.188  11.798 -0.4005 -0.3070 -0.1644
28199SOL    HW194527  11.874   4.212  11.891  0.2641  1.2048 -0.5035
28199SOL    HW294528  11.788   4.163  11.776 -0.5585 -0.7375  0.8888
28200SOL     OW94529   9.362   6.750   3.276 -0.0071  0.3444  0.0795
28200SOL    HW194530   9.411   6.713   3.203 -0.8892  0.0361 -0.3733
28200SOL    HW294531   9.309   6.819   3.237 -1.2148 -0.4609  0.2188
28201SOL     OW94532  12.542   3.896   6.664  0.3204  0.3214  0.0524
28201SOL    HW194533  12.518   3.962   6.598  0.0706 -0.1032 -0.2930
28201SOL    HW294534  12.471   3.832   6.659  1.0519 -0.4814 -0.3183
28202SOL     OW94535  11.755  10.946   6.472 -0.1533  0.3523  0.2472
28202SOL    HW194536  11.720  10.911   6.390  0.9065  1.2575 -0.6371
28202SOL    HW294537  11.838  10.900   6.484  0.0838  0.8008  0.3611
28203SOL     OW94538  12.819   9.773   4.239  0.4561 -0.0380  0.7766
28203SOL    HW194539  12.906   9.812   4.243 -0.2112  1.4550  1.3671
28203SOL    HW294540  12.775   9.804   4.318 -0.6598 -0.6581  0.4188
28204SOL     OW94541   7.474   5.503   3.950 -0.8065  0.3255 -0.0819
28204SOL    HW194542   7.406   5.513   3.885 -1.5450 -2.1784  0.2156
28204SOL    HW294543   7.430   5.519   4.034 -0.6535  0.2436  0.0153
28205SOL     OW94544   5.393   6.084  11.838  0.0260  0.2650 -0.1280
28205SOL    HW194545   5.328   6.147  11.807  1.3242  2.0205  0.6097
28205SOL    HW294546   5.366   6.001  11.798 -3.8036  0.4419  1.6348
28206SOL     OW94547   8.347   2.471  12.771 -0.4114  0.0632 -0.3160
28206SOL    HW194548   8.397   2.402  12.815 -1.8745 -1.3649 -0.8051
28206SOL    HW294549   8.270   2.484  12.827 -1.4804 -0.6321 -1.5846
28207SOL     OW94550   2.330   1.159   3.291 -0.2607  0.3023  0.1947
28207SOL    HW194551   2.273   1.082   3.289  0.3150 -0.1129 -1.5429
28207SOL    HW294552   2.281   1.223   3.343 -1.1291 -0.9293  0.9427
28208SOL     OW94553  10.334   4.221   6.000 -0.2085  0.2925 -0.5660
28208SOL    HW194554  10.285   4.260   6.072 -1.0586 -1.7414  0.0306
28208SOL    HW294555  10.276   4.228   5.924  0.0904  1.1047 -0.7370
28209SOL     OW94556  11.337  11.028   9.546 -0.4986 -0.2186  0.8807
28209SOL    HW194557  11.245  11.030   9.570 -1.2443  0.6282 -1.7472
28209SOL    HW294558  11.352  11.110   9.499  1.2355 -0.9213  0.1071
28210SOL     OW94559   1.347   6.543  10.065  0.2477 -0.0716  0.3835
28210SOL    HW194560   1.441   6.535  10.076  0.4041 -0.1910 -0.8635
28210SOL    HW294561   1.327   6.493   9.986 -0.6444  1.0959 -0.1795
28211SOL     OW94562   8.913   1.719   3.234  0.4498  0.7235 -0.4299
28211SOL    HW194563   8.920   1.807   3.198  1.0856  0.4227 -1.0888
28211SOL    HW294564   8.899   1.732   3.327  2.9338  1.5634 -0.0819
28212SOL     OW94565   0.189   5.733   0.322 -0.6520 -0.1468 -0.7131
28212SOL    HW194566   0.123   5.785   0.366  0.6794 -0.6592  2.0876
28212SOL    HW294567   0.218   5.787   0.248 -1.4683  1.7163  0.2939
28213SOL     OW94568   7.373   8.040  11.014  0.4419  0.1553  0.0130
28213SOL    HW194569   7.360   8.051  10.920  0.8775  1.3870  0.0704
28213SOL    HW294570   7.285   8.036  11.051  0.2421 -1.9449 -0.5764
28214SOL     OW94571   4.732  10.454   3.856 -0.5460 -0.3019  0.3410
28214SOL    HW194572   4.702  10.370   3.889  0.0981 -1.3026 -1.4643
28214SOL    HW294573   4.721  10.515   3.929 -2.6661 -1.5661  1.1350
28215SOL     OW94574   2.519   4.086  12.259 -0.2856  0.0539  0.0425
28215SOL    HW194575   2.534   4.054  12.347 -0.3424  1.7896  0.7221
28215SOL    HW294576   2.476   4.171  12.271  1.7660  1.4235 -1.5782
28216SOL     OW94577   2.268  12.868   8.857  0.2210 -0.2583 -0.2219
28216SOL    HW194578   2.324  12.811   8.911 -1.0951 -1.8086 -0.3949
28216SOL    HW294579   2.265  12.824   8.772  1.4151  1.6079 -1.2827
28217SOL     OW94580  10.196   6.847   0.728  0.4427 -0.0300 -0.2670
28217SOL    HW194581  10.169   6.888   0.810  1.8701 -2.7700  1.7431
28217SOL    HW294582  10.289   6.828   0.740  0.7670 -0.3066 -2.6739
28218SOL     OW94583  11.039   5.386  11.374  0.1151  0.6297 -0.1780
28218SOL    HW194584  11.002   5.320  11.432  0.9999  0.6595  0.4280
28218SOL    HW294585  11.087   5.445  11.431  0.4735  1.0239 -0.8693
28219SOL     OW94586   6.912   5.247   0.655  0.1395 -0.1594  0.1661
28219SOL    HW194587   6.955   5.263   0.740 -0.6719  1.4418  0.2993
28219SOL    HW294588   6.938   5.321   0.600 -1.0199 -0.0830 -0.3079
28220SOL     OW94589   0.827   4.404   5.769 -0.2766  0.1079 -0.9510
28220SOL    HW194590   0.775   4.484   5.770 -1.6569 -0.7531 -0.4078
28220SOL    HW294591   0.857   4.394   5.860  0.7868  0.5424 -1.2377
28221SOL     OW94592  11.538   9.798  10.332  0.6693 -0.1104 -0.1386
28221SOL    HW194593  11.569   9.796  10.422  2.3097  1.3860 -0.6265
28221SOL    HW294594  11.614   9.822  10.280 -0.3455 -0.4738 -1.8964
28222SOL     OW94595  10.646   3.837   1.171  0.0394  0.5087 -0.6736
28222SOL    HW194596  10.675   3.898   1.104  1.4807  0.8157  0.1954
28222SOL    HW294597  10.686   3.753   1.146  0.8197  0.6883 -0.0649
28223SOL     OW94598  11.116   0.444   0.636 -0.3492  0.4652 -0.4539
28223SOL    HW194599  11.107   0.433   0.730 -0.8186  0.9767 -0.4337
28223SOL    HW294600  11.130   0.538   0.624 -0.4788  0.4293 -0.9050
28224SOL     OW94601  11.730  11.328   8.400  0.3302  0.4292 -0.3678
28224SOL    HW194602  11.797  11.387   8.434 -0.2141  1.5521 -1.1809
28224SOL    HW294603  11.664  11.324   8.470  1.3376 -0.9326  0.5707
28225SOL     OW94604  11.698   1.901   9.733  0.0851 -0.6942  0.3669
28225SOL    HW194605  11.675   1.907   9.826  2.4127 -1.0893  1.0485
28225SOL    HW294606  11.667   1.983   9.695  0.3554  0.1361  1.8284
28226SOL     OW94607   7.153   2.002  11.684 -0.1349  0.0223 -0.1062
28226SOL    HW194608   7.135   2.027  11.594  0.1909  0.7005  0.0162
28226SOL    HW294609   7.163   1.907  11.681 -0.9066 -0.0473 -0.6494
28227SOL     OW94610  12.740  13.211  12.379 -0.3254  0.7002 -0.3587
28227SOL    HW194611  12.774  13.161  12.305  0.6018 -2.0982  1.7813
28227SOL    HW294612  12.808  13.205  12.446 -2.4713  0.0441  1.9531
28228SOL     OW94613   6.987   8.181   4.242  0.4810  0.2154 -0.2353
28228SOL    HW194614   7.005   8.262   4.194 -2.3644  0.9419 -0.2728
28228SOL    HW294615   6.959   8.119   4.174 -1.5510  0.6096  0.1810
28229SOL     OW94616   8.443   8.654   2.420  0.0722  0.0899  0.5507
28229SOL    HW194617   8.499   8.634   2.344 -1.4091 -0.5768 -0.4300
28229SOL    HW294618   8.381   8.719   2.387 -0.3327  0.0907  1.3054
28230SOL     OW94619   2.164   5.765   5.760  0.4832  0.3487 -0.1903
28230SOL    HW194620   2.155   5.855   5.791  0.8287 -0.0370  1.1197
28230SOL    HW294621   2.117   5.712   5.825 -0.2418 -0.3725 -1.2733
28231SOL     OW94622   0.907   7.700  10.854 -0.3824 -0.3645 -0.1589
28231SOL    HW194623   0.875   7.756  10.783 -0.0103  1.5007  1.0579
28231SOL    HW294624   0.990   7.666  10.822  0.4591  1.5442 -0.2012
28232SOL     OW94625  12.478  11.354   5.567  0.7627 -0.5948  0.5016
28232SOL    HW194626  12.488  11.446   5.590  1.2016 -0.1240 -1.4496
28232SOL    HW294627  12.402  11.351   5.509  1.8928 -1.1145 -1.0350
28233SOL     OW94628   2.191  10.013   7.180 -0.0709  0.7014 -0.1283
28233SOL    HW194629   2.272  10.065   7.174 -0.4300  1.1353 -1.5411
28233SOL    HW294630   2.217   9.934   7.227  0.5140  2.0855  2.0121
28234SOL     OW94631   5.545   9.780   4.122  0.0746  0.0672 -0.0214
28234SOL    HW194632   5.495   9.843   4.175 -0.0656 -0.0070 -0.0642
28234SOL    HW294633   5.553   9.703   4.178 -0.4296 -0.1651 -0.2586
28235SOL     OW94634   2.799   8.247  11.886 -0.1981  0.7494  0.0477
28235SOL    HW194635   2.827   8.323  11.937  0.2650  1.2556 -0.9340
28235SOL    HW294636   2.830   8.265  11.797 -0.2023 -0.5274 -0.2290
28236SOL     OW94637   8.520   9.850  11.015 -0.6537  0.2073 -0.0718
28236SOL    HW194638   8.451   9.839  11.081  0.1699 -0.2639  0.7452
28236SOL    HW294639   8.483   9.909  10.950 -1.4905  0.7060  0.8342
28237SOL     OW94640   0.564  10.405   8.854  0.2856 -0.1876 -0.4992
28237SOL    HW194641   0.484  10.449   8.884 -0.2039  0.0197 -1.9938
28237SOL    HW294642   0.594  10.355   8.929 -1.0364  0.0608  0.2240
28238SOL     OW94643   3.075  10.957   8.995  0.3807 -0.5931 -0.2891
28238SOL    HW194644   3.116  11.008   8.926  1.1249 -0.7776  0.0042
28238SOL    HW294645   2.996  11.006   9.017  0.1190 -0.5465 -1.2803
28239SOL     OW94646   3.538   6.712   7.259 -0.0255  0.2712  0.0048
28239SOL    HW194647   3.490   6.776   7.311  1.2404  1.0393  0.2730
28239SOL    HW294648   3.482   6.695   7.183 -1.1120  0.4472  0.7533
28240SOL     OW94649   9.737   1.897  10.567 -0.0511  0.2674 -0.2199
28240SOL    HW194650   9.778   1.865  10.647 -0.6915 -2.0517 -0.7393
28240SOL    HW294651   9.649   1.923  10.595  0.2766  1.0910  0.0963
28241SOL     OW94652  12.981   0.350   6.881 -0.0402 -0.1414  0.4316
28241SOL    HW194653  12.986   0.369   6.975 -0.9721 -0.1213  0.4911
28241SOL    HW294654  13.047   0.407   6.841 -0.7162  1.0179  0.9151
28242SOL     OW94655   4.132   5.355   4.399 -0.1571  0.2894 -0.5496
28242SOL    HW194656   4.037   5.363   4.395 -0.3204 -1.2340 -0.3907
28242SOL    HW294657   4.160   5.426   4.456 -0.8916  2.4629 -2.7218
28243SOL     OW94658   1.870   1.317  12.499 -0.3076  0.2366 -0.2849
28243SOL    HW194659   1.874   1.307  12.404  1.7923 -0.9522 -0.1289
28243SOL    HW294660   1.813   1.246  12.529 -1.7722  1.2020 -0.6842
28244SOL     OW94661   2.987   7.734   9.977  0.3189  0.0043  0.4870
28244SOL    HW194662   3.077   7.765   9.971 -0.0874  1.1696  0.0524
28244SOL    HW294663   2.952   7.775  10.056 -0.1201  0.3862  0.1030
28245SOL     OW94664   0.982   2.061  12.227  0.1456  0.6356 -0.2349
28245SOL    HW194665   0.985   2.108  12.310 -2.1055  0.3623  0.0543
28245SOL    HW294666   1.028   1.979  12.245 -0.5924  0.4405  0.8668
28246SOL     OW94667   0.681   7.378  11.341  0.2355  0.5731 -0.0107
28246SOL    HW194668   0.661   7.404  11.251 -1.8466  1.7510  0.7219
28246SOL    HW294669   0.605   7.406  11.391  0.5736 -1.6525  1.8702
28247SOL     OW94670  11.785  11.066  10.844  0.3826 -0.2318 -0.2479
28247SOL    HW194671  11.723  11.106  10.905 -1.3331 -1.9986 -0.7045
28247SOL    HW294672  11.862  11.046  10.897 -1.1696 -1.9705  1.5267
28248SOL     OW94673   4.031   3.550   3.591 -0.4383 -0.9943  0.5024
28248SOL    HW194674   3.963   3.490   3.560 -1.4691  0.6163 -0.5198
28248SOL    HW294675   4.035   3.535   3.685 -1.0213 -2.3070  0.3333
28249SOL     OW94676   3.963   5.248  12.479  0.1611  0.1158  0.4035
28249SOL    HW194677   4.043   5.225  12.431 -0.0087 -0.5908  0.4429
28249SOL    HW294678   3.991   5.252  12.570 -0.1258 -1.6123  0.6029
28250SOL     OW94679   2.119  12.329   2.735 -0.1212 -0.6215  0.2692
28250SOL    HW194680   2.114  12.374   2.651 -0.7700  0.3607  0.8206
28250SOL    HW294681   2.212  12.331   2.758 -0.3318  2.1430  1.1644
28251SOL     OW94682   4.796   6.580   9.250  0.3560 -0.1246  0.1431
28251SOL    HW194683   4.873   6.625   9.214 -1.0731  1.8810 -0.5692
28251SOL    HW294684   4.777   6.511   9.186  1.3538 -0.4490  0.1732
28252SOL     OW94685   0.089   8.599   2.004 -0.0220 -0.2076  0.4676
28252SOL    HW194686   0.062   8.610   1.912 -0.1552  0.0885  0.5408
28252SOL    HW294687   0.161   8.536   2.000  1.0438  0.9824 -0.0198
28253SOL     OW94688  11.453   3.947   6.501  0.2494 -0.0831 -0.4589
28253SOL    HW194689  11.461   3.900   6.418 -0.4281 -1.8075  0.4023
28253SOL    HW294690  11.456   3.879   6.568 -0.1083  1.1745  0.8994
28254SOL     OW94691   5.424   1.283   2.884 -0.4246 -0.5429 -0.1811
28254SOL    HW194692   5.519   1.271   2.875 -0.5596 -1.9504  0.0097
28254SOL    HW294693   5.415   1.359   2.942  0.6151 -1.0974  0.7479
28255SOL     OW94694   1.618   1.427   0.258 -0.5474 -0.1934  0.0318
28255SOL    HW194695   1.656   1.427   0.346  0.7104  0.1422 -0.4924
28255SOL    HW294696   1.586   1.337   0.247 -1.4049 -0.0460  1.0983
28256SOL     OW94697  10.439   0.774  10.136 -0.1689  0.0258 -0.2857
28256SOL    HW194698  10.535   0.775  10.127 -0.0005 -0.2591  1.2330
28256SOL    HW294699  10.417   0.863  10.163  0.0441 -0.6685  2.4097
28257SOL     OW94700   4.421   8.120   7.296  0.2121 -0.1209  0.0521
28257SOL    HW194701   4.328   8.114   7.317  0.7915  1.0077  3.8874
28257SOL    HW294702   4.442   8.038   7.251 -2.5289 -0.5541 -0.5740
28258SOL     OW94703   4.307   2.488   9.466  0.3577  0.1434  0.6683
28258SOL    HW194704   4.252   2.410   9.462  0.4875  0.1071 -0.6949
28258SOL    HW294705   4.395   2.455   9.483 -0.1923  0.2978  4.7402
28259SOL     OW94706  10.252  10.637   1.236  0.2327 -0.2673 -0.5123
28259SOL    HW194707  10.334  10.682   1.254 -0.0940  0.5385 -1.0102
28259SOL    HW294708  10.194  10.665   1.307  0.6185 -1.5073  0.3376
28260SOL     OW94709  12.206  12.508   0.923 -0.0970  0.0601  0.2810
28260SOL    HW194710  12.186  12.424   0.965  2.4266 -0.1711  1.1819
28260SOL    HW294711  12.273  12.487   0.859 -0.2309  1.2422 -0.2644
28261SOL     OW94712   2.813   3.184   9.923  0.7093 -0.2765 -0.1115
28261SOL    HW194713   2.744   3.227   9.872  0.9374  1.3349  0.8895
28261SOL    HW294714   2.847   3.252   9.980  1.2056 -1.7661  1.4440
28262SOL     OW94715   6.216   9.121  12.070 -0.4249 -0.0447 -0.5279
28262SOL    HW194716   6.166   9.122  12.152  1.7729 -1.5487  0.9485
28262SOL    HW294717   6.243   9.212  12.057  0.4295  0.0153  1.2961
28263SOL     OW94718  12.641   4.894  10.053 -0.3759 -0.0975 -0.0087
28263SOL    HW194719  12.623   4.887   9.959  0.4953  1.3692 -0.3132
28263SOL    HW294720  12.650   4.803  10.082  2.5986 -0.5790 -2.0208
28264SOL     OW94721  12.971   3.780   7.312 -0.1359  0.2031 -0.6617
28264SOL    HW194722  12.947   3.859   7.263  1.2962  0.7362 -0.5591
28264SOL    HW294723  12.913   3.781   7.389  0.0989  1.3591 -0.4810
28265SOL     OW94724   3.320   8.541  10.609 -0.8839 -0.7214 -0.3723
28265SOL    HW194725   3.381   8.516  10.540 -0.3198 -0.4217  0.0108
28265SOL    HW294726   3.370   8.602  10.664 -0.7713 -2.1807  1.2371
28266SOL     OW94727   4.442  10.589   2.706  0.2179  0.2606 -0.1666
28266SOL    HW194728   4.435  10.668   2.653  0.7473  0.2538 -0.2483
28266SOL    HW294729   4.465  10.520   2.643  0.3088  0.1497 -0.0108
28267SOL     OW94730  10.982   8.735   9.514 -0.0761  0.3979 -0.0314
28267SOL    HW194731  10.897   8.742   9.471 -0.0178 -0.5423 -0.3243
28267SOL    HW294732  11.017   8.824   9.512 -0.3433  0.5000 -1.3834
28268SOL     OW94733   7.151   6.684   5.052  0.3201  0.4336 -0.4789
28268SOL    HW194734   7.162   6.631   5.131  0.6303 -0.4423 -1.0886
28268SOL    HW294735   7.225   6.659   4.996 -0.7685 -0.1963 -1.7059
28269SOL     OW94736   0.957   0.076  10.602 -0.3524  0.3521  0.4567
28269SOL    HW194737   0.972   0.006  10.665  1.1438  1.7880  1.8157
28269SOL    HW294738   0.886   0.128  10.641 -1.8637 -0.6522 -0.8298
28270SOL     OW94739  11.520  13.236   4.004  0.1854 -0.1231 -0.0681
28270SOL    HW194740  11.459  13.179   3.957  1.9090 -1.0026 -1.3711
28270SOL    HW294741  11.519  13.318   3.954  0.3667 -0.2887 -0.3510
28271SOL     OW94742  12.221   5.625   7.106  0.6473 -0.0611 -0.2244
28271SOL    HW194743  12.309   5.598   7.136 -0.3777 -0.2177  3.0692
28271SOL    HW294744  12.235   5.710   7.066  2.0418  1.7165  3.5009
28272SOL     OW94745  11.863  11.709   6.394  0.1897  0.5659  0.0072
28272SOL    HW194746  11.784  11.738   6.349  0.5354  0.7633 -0.4706
28272SOL    HW294747  11.834  11.692   6.484 -0.6967 -0.6769 -0.4812
28273SOL     OW94748   2.774   7.637   5.824  0.1687 -0.1348  0.2370
28273SOL    HW194749   2.860   7.617   5.785  0.2318  0.6846 -0.0731
28273SOL    HW294750   2.718   7.564   5.798  1.2386 -1.7056  2.0865
28274SOL     OW94751   7.979   6.727  12.772 -0.1899  0.2494  0.3605
28274SOL    HW194752   8.011   6.658  12.830 -1.3258 -1.8069 -1.2814
28274SOL    HW294753   7.884   6.724  12.782 -0.2355  2.0499  0.7081
28275SOL     OW94754   3.980  12.898   6.621 -0.9278 -0.2401  0.1436
28275SOL    HW194755   4.032  12.844   6.562  1.5156  1.2771  0.7872
28275SOL    HW294756   4.024  12.890   6.706 -2.3939  0.2686  0.9953
28276SOL     OW94757   0.040   8.145   3.094 -0.0977 -0.4297 -0.4565
28276SOL    HW194758   0.043   8.195   3.176  0.2627 -0.0760 -0.6801
28276SOL    HW294759   0.094   8.068   3.112  1.7176  0.6448 -0.9897
28277SOL     OW94760   6.468   0.430   1.621  0.2070 -0.3340  0.2115
28277SOL    HW194761   6.479   0.341   1.589  1.4693  0.4816 -1.8267
28277SOL    HW294762   6.420   0.420   1.703 -2.0220 -2.6930 -1.2238
28278SOL     OW94763   8.099   5.389   0.429  0.4099  0.4403 -0.1044
28278SOL    HW194764   8.108   5.440   0.349  2.2409 -1.3615 -1.1497
28278SOL    HW294765   8.005   5.392   0.450 -0.0463  1.2732 -2.0834
28279SOL     OW94766   7.213  10.400  13.064 -0.1538 -0.1231 -0.3443
28279SOL    HW194767   7.218  10.401  13.160 -2.0980 -0.7762 -0.1788
28279SOL    HW294768   7.189  10.489  13.040 -0.2848 -0.1088 -0.1617
28280SOL     OW94769   8.016   9.719  11.655 -0.3753 -0.2188  0.1031
28280SOL    HW194770   7.995   9.682  11.740 -2.4297 -1.5912 -0.9116
28280SOL    HW294771   8.102   9.683  11.633 -0.2672 -0.6184  1.1557
28281SOL     OW94772   7.133   0.403   0.361  0.5306 -0.0845 -0.0524
28281SOL    HW194773   7.159   0.405   0.453 -1.1751 -1.0852  0.5028
28281SOL    HW294774   7.079   0.481   0.350  1.8636  0.7869 -0.6046
28282SOL     OW94775   0.029   4.010   9.296  0.1959  0.3551  0.5545
28282SOL    HW194776   0.002   3.926   9.333 -0.6714  1.1507  1.7939
28282SOL    HW294777   0.048   4.065   9.372 -0.9583  1.8296 -0.1563
28283SOL     OW94778  12.491   9.875   3.743  0.0193 -0.7152 -0.5080
28283SOL    HW194779  12.456   9.901   3.658 -0.0213  1.1415  0.0245
28283SOL    HW294780  12.415   9.841   3.791 -1.5306  3.9014  0.8755
28284SOL     OW94781  13.265  12.442   3.253  0.2174  0.8022  0.7597
28284SOL    HW194782  13.337  12.386   3.225  0.3622  0.2985  2.0496
28284SOL    HW294783  13.287  12.529   3.219  0.4853  0.2883 -0.4301
28285SOL     OW94784   8.476   8.127   1.836  0.0301 -0.5680  0.5858
28285SOL    HW194785   8.468   8.040   1.874 -1.6407 -1.0942 -0.8268
28285SOL    HW294786   8.401   8.176   1.872 -0.0220 -0.2492  0.0536
28286SOL     OW94787   0.377   6.127   3.522 -0.1061  0.1373  0.0412
28286SOL    HW194788   0.434   6.170   3.585  1.0879  0.8866 -1.4728
28286SOL    HW294789   0.328   6.062   3.573  1.1151  0.4150  1.6326
28287SOL     OW94790   7.092   7.360   9.727 -0.6131  0.2375 -0.3290
28287SOL    HW194791   7.010   7.323   9.694 -0.2128 -0.3707 -0.6642
28287SOL    HW294792   7.123   7.416   9.655 -0.3026 -0.2144 -0.5523
28288SOL     OW94793  10.621  12.405   2.499  0.4585 -0.1283  0.2592
28288SOL    HW194794  10.535  12.368   2.479  0.7478 -1.0023  0.5939
28288SOL    HW294795  10.669  12.399   2.416  0.4128 -0.2499  0.2414
28289SOL     OW94796  12.337  10.197   5.052 -0.0706  0.7002  0.1113
28289SOL    HW194797  12.416  10.204   5.105  0.4558 -0.9842 -0.3997
28289SOL    HW294798  12.296  10.283   5.060 -0.1174  0.5328  3.3839
28290SOL     OW94799  10.374  13.124   6.006 -0.0238  0.2055  0.7948
28290SOL    HW194800  10.447  13.078   6.048  0.2202  0.4098  0.5997
28290SOL    HW294801  10.310  13.056   5.988 -0.1066  0.1023  1.4417
28291SOL     OW94802  10.222   2.094   2.999 -0.1714  0.3098 -0.2996
28291SOL    HW194803  10.259   2.146   2.929  1.9748 -1.3246 -0.4611
28291SOL    HW294804  10.218   2.154   3.074  1.9527  0.8422 -0.5495
28292SOL     OW94805   6.449   9.028   4.165 -0.3636  0.1056 -0.3671
28292SOL    HW194806   6.355   9.045   4.173 -0.0731  1.9060 -0.3616
28292SOL    HW294807   6.490   9.115   4.170  1.4098 -0.7401  0.9122
28293SOL     OW94808   9.570   3.803   0.294 -0.6810  0.3629  0.3409
28293SOL    HW194809   9.650   3.856   0.290 -0.6615  0.2306 -1.4886
28293SOL    HW294810   9.593   3.721   0.251 -1.7187  0.1949  0.0912
28294SOL     OW94811   6.499  12.580   3.495 -0.1423  0.4735 -0.0180
28294SOL    HW194812   6.435  12.574   3.424  1.1684 -1.7395 -1.1180
28294SOL    HW294813   6.537  12.492   3.500  0.8393  0.9735  2.4742
28295SOL     OW94814   0.154   3.534   3.590  0.6253  0.0463  0.5222
28295SOL    HW194815   0.104   3.581   3.656 -0.0894  3.6627 -2.2801
28295SOL    HW294816   0.234   3.586   3.580  0.6111 -0.2545 -1.5240
28296SOL     OW94817   4.209   6.951  11.936 -0.7116 -0.4678  0.1196
28296SOL    HW194818   4.249   6.916  11.857 -0.3206 -2.2124  1.0371
28296SOL    HW294819   4.181   7.040  11.912  1.9517  0.1165 -1.1060
28297SOL     OW94820   6.555   6.573   0.531  0.6759 -0.2282  0.9450
28297SOL    HW194821   6.590   6.623   0.605 -1.1576  1.8696  0.5114
28297SOL    HW294822   6.554   6.636   0.458 -0.2372 -1.3951 -0.0952
28298SOL     OW94823   0.303   2.897   2.836  0.2707  0.1604 -0.3448
28298SOL    HW194824   0.318   2.902   2.930  0.1459  2.5626 -0.4107
28298SOL    HW294825   0.390   2.889   2.798  0.2466 -2.6305 -0.0179
28299SOL     OW94826   7.416   1.123   9.003 -0.5011 -0.9609 -0.2267
28299SOL    HW194827   7.402   1.094   8.913  0.7714  0.0163 -0.7666
28299SOL    HW294828   7.336   1.170   9.027 -0.9869 -1.5357 -0.7095
28300SOL     OW94829  11.018   2.803   4.807  0.0423  0.5551 -0.2925
28300SOL    HW194830  11.087   2.845   4.757  0.5407 -0.7848 -0.7799
28300SOL    HW294831  11.008   2.717   4.766 -2.5280  1.0184 -0.8157
28301SOL     OW94832   6.170  13.251   0.538  0.2538 -0.2582  0.2488
28301SOL    HW194833   6.170  13.162   0.505 -0.7425 -0.3870  0.5514
28301SOL    HW294834   6.079  13.267   0.563  0.2925  1.0476 -0.3705
28302SOL     OW94835   7.285   8.898   2.951 -0.6581  0.2656 -0.7653
28302SOL    HW194836   7.323   8.958   3.016 -1.5091 -2.0219  2.0570
28302SOL    HW294837   7.193   8.890   2.977 -0.8885 -1.2175 -1.8904
28303SOL     OW94838   4.334   9.883   0.217  0.2287 -0.4974  0.3315
28303SOL    HW194839   4.283   9.844   0.146  0.7765 -2.1536  0.7890
28303SOL    HW294840   4.419   9.840   0.212  0.7500  0.4068  1.1076
28304SOL     OW94841  11.452   5.907  11.683 -0.0714 -0.0833  0.0195
28304SOL    HW194842  11.508   5.911  11.606  0.2694 -1.0431  0.2075
28304SOL    HW294843  11.369   5.946  11.655 -0.1878 -1.0644 -1.0542
28305SOL     OW94844   2.470   5.848   1.127  0.5057 -0.4435 -0.0115
28305SOL    HW194845   2.409   5.866   1.056  1.0924  0.4667 -0.3057
28305SOL    HW294846   2.493   5.755   1.116  0.4198 -0.3722 -0.8839
28306SOL     OW94847   0.915   6.621  10.572  0.3237 -0.3911  0.4129
28306SOL    HW194848   0.842   6.571  10.608  0.9177 -0.1515  2.0580
28306SOL    HW294849   0.993   6.571  10.597  0.7566 -0.6048 -1.2506
28307SOL     OW94850   7.573  10.166   4.891 -0.6738 -0.2901 -0.9150
28307SOL    HW194851   7.570  10.259   4.911  3.1576 -0.1431 -0.1017
28307SOL    HW294852   7.591  10.124   4.976 -0.4615 -1.5260 -1.5439
28308SOL     OW94853   6.777   9.343   4.261  0.4056  0.7581 -0.0211
28308SOL    HW194854   6.846   9.289   4.222 -0.2874 -0.3801  0.2788
28308SOL    HW294855   6.788   9.330   4.355 -0.0406  0.8175  0.0375
28309SOL     OW94856   7.801   4.511  12.128 -0.5406  0.4242 -0.9483
28309SOL    HW194857   7.834   4.488  12.215 -0.2371  0.2900 -1.1005
28309SOL    HW294858   7.804   4.607  12.126 -1.1840  0.4566 -0.5611
28310SOL     OW94859  12.521   5.750   9.708 -0.3760 -0.6756  0.0873
28310SOL    HW194860  12.489   5.817   9.768 -1.3027 -1.2592  0.2768
28310SOL    HW294861  12.511   5.788   9.621 -3.9276 -1.6322 -0.0884
28311SOL     OW94862   2.291   6.316   5.951  0.4729  0.1086  0.7628
28311SOL    HW194863   2.329   6.339   5.866  0.3434 -0.5104  0.5266
28311SOL    HW294864   2.313   6.389   6.008  0.2714  0.6928  0.1071
28312SOL     OW94865   2.712   8.558   3.289 -0.0959 -0.0568 -0.0462
28312SOL    HW194866   2.621   8.542   3.312 -0.7302  0.3284 -2.0705
28312SOL    HW294867   2.754   8.582   3.372 -1.7721 -0.4284  0.9548
28313SOL     OW94868   6.917  10.663   3.185 -0.1044 -0.4268 -0.7857
28313SOL    HW194869   6.871  10.747   3.193  0.4617 -0.0313 -1.4887
28313SOL    HW294870   6.969  10.656   3.264  1.9882  1.2455 -1.9268
28314SOL     OW94871  12.091   5.979   1.961  0.5098  0.0094  0.2890
28314SOL    HW194872  12.185   5.964   1.966  0.5595 -0.0020 -0.5234
28314SOL    HW294873  12.075   6.053   2.019  1.1427  0.5139 -0.1745
28315SOL     OW94874   0.390   3.113   3.655 -0.7717  0.0346 -0.1900
28315SOL    HW194875   0.341   3.180   3.607  0.0310  1.3024  0.7176
28315SOL    HW294876   0.472   3.155   3.679  1.2663 -2.3221 -2.4832
28316SOL     OW94877   0.890  10.989   7.960 -0.5004  0.6775 -0.4681
28316SOL    HW194878   0.817  10.930   7.981 -0.0669  0.5280  0.6608
28316SOL    HW294879   0.898  10.983   7.865 -0.1491 -1.5120 -0.3645
28317SOL     OW94880  11.438   7.550   9.445 -0.1844 -0.1044 -0.6182
28317SOL    HW194881  11.470   7.636   9.472 -1.1242  0.4728 -1.2746
28317SOL    HW294882  11.499   7.520   9.378  1.4706 -1.0060  1.1668
28318SOL     OW94883   9.097   7.016   2.666 -0.2427  0.0737  0.2059
28318SOL    HW194884   9.175   7.071   2.668 -0.4339  0.3815 -0.6156
28318SOL    HW294885   9.125   6.937   2.621 -0.7137  0.6832 -1.1874
28319SOL     OW94886   5.981   9.957  11.256 -0.5108 -0.3479 -0.3668
28319SOL    HW194887   5.889   9.943  11.278 -0.6749  0.0690 -0.7816
28319SOL    HW294888   6.016   9.869  11.244 -0.5854 -0.5681  0.8545
28320SOL     OW94889   5.436   0.996   6.101 -0.5591  0.1345 -0.3854
28320SOL    HW194890   5.397   1.083   6.110 -0.3218  0.2854 -0.8117
28320SOL    HW294891   5.387   0.955   6.029 -0.7352 -0.1236 -0.1223
28321SOL     OW94892  11.949   2.375   6.880 -0.1507  0.0540  0.0480
28321SOL    HW194893  11.882   2.372   6.812  0.7088 -2.4206 -0.8285
28321SOL    HW294894  11.985   2.286   6.881  2.2398  0.9495  1.3625
28322SOL     OW94895   2.092   1.294   0.827 -0.7349 -0.7774 -0.3323
28322SOL    HW194896   2.185   1.271   0.824  0.1372  2.3169 -1.7293
28322SOL    HW294897   2.049   1.217   0.864  2.2208 -2.7475 -0.6548
28323SOL     OW94898   6.886   4.828  10.977 -0.0785 -0.3367 -0.2414
28323SOL    HW194899   6.827   4.775  11.032 -1.1176  0.1465 -0.8606
28323SOL    HW294900   6.867   4.918  11.002  0.7435 -0.1975 -0.1186
28324SOL     OW94901   0.489   4.054  10.798  0.4357  0.2475 -0.5522
28324SOL    HW194902   0.491   3.960  10.780 -0.7119  0.5554 -2.6929
28324SOL    HW294903   0.467   4.060  10.891  1.2606 -1.5794 -0.1922
28325SOL     OW94904   6.623  11.658   1.614  0.4567  0.7749  0.5031
28325SOL    HW194905   6.695  11.613   1.659  1.0419  0.8624 -0.3165
28325SOL    HW294906   6.659  11.680   1.528 -0.5102  0.9458  0.1299
28326SOL     OW94907  11.939   8.049   8.938 -0.5985 -0.1883  0.4275
28326SOL    HW194908  11.952   7.954   8.935  0.2684 -0.0836  0.5958
28326SOL    HW294909  11.993   8.078   9.012  0.0243  0.5637 -0.3065
28327SOL     OW94910   3.064   0.373   8.611 -0.3330 -0.7110  0.1557
28327SOL    HW194911   3.110   0.299   8.650 -0.1730 -0.5893  0.1987
28327SOL    HW294912   3.127   0.412   8.550 -0.0343  0.0277  0.9097
28328SOL     OW94913   3.301   5.642   5.652 -0.1584 -0.0666 -0.2841
28328SOL    HW194914   3.372   5.595   5.696  0.7236 -0.7361 -2.3324
28328SOL    HW294915   3.229   5.578   5.650  0.6057 -0.9280 -1.8993
28329SOL     OW94916  12.422   6.221   6.870  0.3101  0.5943 -0.3135
28329SOL    HW194917  12.354   6.181   6.924  1.0683  0.1304  0.3210
28329SOL    HW294918  12.469   6.147   6.832  0.9216  0.8950 -0.1565
28330SOL     OW94919   4.255   1.513   1.959  0.4215  0.4480 -0.4104
28330SOL    HW194920   4.223   1.572   2.027  0.4753 -0.1573  0.1389
28330SOL    HW294921   4.193   1.524   1.887 -0.5108 -0.0577  0.3132
28331SOL     OW94922  11.573   3.281  12.014 -0.0592  0.1024  0.6320
28331SOL    HW194923  11.645   3.222  11.991 -0.2991 -0.0823  0.3457
28331SOL    HW294924  11.494   3.231  11.993 -0.2791  1.3259 -1.7134
28332SOL     OW94925  11.991   5.558   4.275 -0.0939  0.1821 -0.1707
28332SOL    HW194926  11.989   5.464   4.256  0.8923  0.0945  0.0753
28332SOL    HW294927  11.967   5.563   4.368 -1.4480  0.2981 -0.5156
28333SOL     OW94928   1.625   3.173   4.260  0.0186 -0.0091 -0.1270
28333SOL    HW194929   1.601   3.159   4.352  2.6868 -0.0072  0.6624
28333SOL    HW294930   1.583   3.102   4.213 -1.3842 -0.0260  1.0914
28334SOL     OW94931   1.640   9.098   6.761  0.5507  0.3094  0.7910
28334SOL    HW194932   1.732   9.080   6.784  0.6873 -1.6615 -0.9925
28334SOL    HW294933   1.594   9.018   6.785 -0.8953  1.5492  2.3352
28335SOL     OW94934   2.613   8.772   2.700  0.8283  0.1796 -0.3162
28335SOL    HW194935   2.613   8.787   2.606 -0.4187 -0.8511 -0.5095
28335SOL    HW294936   2.706   8.768   2.724  1.1807  1.8543 -1.2343
28336SOL     OW94937   4.137  10.142  11.269  0.2387 -0.2217 -0.1591
28336SOL    HW194938   4.226  10.171  11.286  0.2208 -0.0774 -0.3121
28336SOL    HW294939   4.144  10.086  11.191  0.2338 -0.4241 -0.0164
28337SOL     OW94940   7.483   0.316   0.040  0.0305  0.2452  0.5658
28337SOL    HW194941   7.444   0.249   0.096 -0.9157  0.4414  0.1673
28337SOL    HW294942   7.426   0.392   0.051 -0.9592 -0.1198 -1.6477
28338SOL     OW94943  12.859   8.740   6.738 -0.0534  0.1585 -0.9807
28338SOL    HW194944  12.830   8.781   6.657  1.3582  0.9915 -1.1069
28338SOL    HW294945  12.894   8.813   6.790  4.0999 -0.9283 -1.8763
28339SOL     OW94946   9.240   8.518   9.600  0.1642 -0.2594  0.1509
28339SOL    HW194947   9.163   8.462   9.587 -2.1019  2.8723 -1.2734
28339SOL    HW294948   9.307   8.480   9.543 -1.4091 -1.2717 -1.1264
28340SOL     OW94949   1.916  13.055  12.743 -0.5863  0.0052 -0.3905
28340SOL    HW194950   1.960  12.978  12.780  0.5610 -0.2528 -2.1624
28340SOL    HW294951   1.967  13.129  12.774 -1.0996 -0.0112  0.5139
28341SOL     OW94952   2.484   5.686  11.010  0.7090  0.0430  0.1019
28341SOL    HW194953   2.548   5.619  11.033  0.2264 -0.0837  1.1042
28341SOL    HW294954   2.431   5.698  11.089 -2.1130 -1.6168 -1.3845
28342SOL     OW94955  11.845   4.972  13.053 -0.0011  0.0468  0.1046
28342SOL    HW194956  11.863   5.063  13.030  0.5512 -0.2332 -0.6186
28342SOL    HW294957  11.909   4.950  13.120  0.2933  0.0010 -0.1894
28343SOL     OW94958  13.187   8.639   2.169 -0.4973 -0.6968  0.0861
28343SOL    HW194959  13.227   8.633   2.082  2.7292  1.3494  1.2495
28343SOL    HW294960  13.253   8.606   2.229 -2.4449 -1.5626  1.8881
28344SOL     OW94961  13.207  12.032   9.024  0.0309  0.1208  0.1713
28344SOL    HW194962  13.178  11.941   9.015 -0.3727  0.2676 -0.0143
28344SOL    HW294963  13.253  12.051   8.942 -0.3747  0.2631 -0.0236
28345SOL     OW94964   8.733  12.591   3.419 -0.2380  0.2924 -0.0819
28345SOL    HW194965   8.638  12.598   3.431 -0.4353 -3.9405  2.9859
28345SOL    HW294966   8.770  12.640   3.492 -0.2617 -0.9417  0.7814
28346SOL     OW94967  12.896   2.001   1.949  0.1470  0.5309  0.0956
28346SOL    HW194968  12.820   1.972   1.999 -0.0327  1.2490  0.2422
28346SOL    HW294969  12.894   2.096   1.954  1.9271  0.5583  1.4187
28347SOL     OW94970   6.054  10.690  10.561  0.5533 -0.5664  0.1733
28347SOL    HW194971   6.015  10.694  10.474  0.4724 -2.9070  0.0305
28347SOL    HW294972   6.056  10.596  10.582  1.9921 -0.1825  2.0472
28348SOL     OW94973   7.805   0.951   8.630  0.1686  0.5448  0.2389
28348SOL    HW194974   7.888   0.905   8.645 -1.1377 -3.0922 -2.2433
28348SOL    HW294975   7.755   0.936   8.710  0.3109 -1.2729  0.0338
28349SOL     OW94976   9.954   1.341  12.719  0.0970  0.2823  0.2389
28349SOL    HW194977   9.986   1.298  12.799 -0.8486  0.5213  0.7567
28349SOL    HW294978   9.864   1.366  12.739 -1.1814 -2.1396 -1.8346
28350SOL     OW94979   5.615  11.090  10.486 -0.1206  0.5286 -0.1728
28350SOL    HW194980   5.686  11.128  10.538 -0.5976 -0.8519  1.5597
28350SOL    HW294981   5.559  11.164  10.465 -0.4062  1.0303  2.1020
28351SOL     OW94982   9.627   7.707   1.665  0.5930  0.4389  0.1499
28351SOL    HW194983   9.549   7.715   1.720 -1.4017  0.4602 -2.4851
28351SOL    HW294984   9.626   7.785   1.610  1.9835  0.0112 -0.5167
28352SOL     OW94985  13.108   4.194   6.412 -0.4584  0.2245  0.0076
28352SOL    HW194986  13.194   4.214   6.377 -0.7699 -0.3695 -1.1321
28352SOL    HW294987  13.113   4.220   6.504  0.6456  1.0182 -0.2610
28353SOL     OW94988   6.441   9.672  10.353  0.0074 -0.5157 -0.1694
28353SOL    HW194989   6.447   9.651  10.260  0.7681  4.1588 -1.4120
28353SOL    HW294990   6.530   9.700  10.377 -0.6861  0.5574  1.3113
28354SOL     OW94991  12.919   7.693   0.780 -0.7656 -0.7531  0.1255
28354SOL    HW194992  12.937   7.716   0.872  0.8981 -2.9210  0.4528
28354SOL    HW294993  12.902   7.599   0.783 -1.3861 -0.7274 -1.7361
28355SOL     OW94994   5.200   8.401   3.198  0.5215  0.0092 -0.1003
28355SOL    HW194995   5.156   8.330   3.243 -2.3387  0.8248 -1.4078
28355SOL    HW294996   5.289   8.400   3.233 -0.5349 -1.6153  2.8782
28356SOL     OW94997   5.636   7.188   4.821 -0.2436  0.1771  0.1183
28356SOL    HW194998   5.694   7.136   4.766 -0.2876  0.5083 -0.2470
28356SOL    HW294999   5.589   7.244   4.759  0.1559  0.9984  0.5492
28357SOL     OW95000   1.839   7.736  11.047  0.1812  0.0793  0.7738
28357SOL    HW195001   1.934   7.746  11.054  0.2659  0.0506 -0.1433
28357SOL    HW295002   1.825   7.641  11.050  0.1091  0.1088  1.5979
28358SOL     OW95003   3.110   8.557   4.363 -0.0935 -0.0469 -0.0742
28358SOL    HW195004   3.171   8.542   4.435 -2.0135  1.7976  2.1367
28358SOL    HW295005   3.048   8.484   4.368 -0.8964  0.6629  1.0114
28359SOL     OW95006  12.054   3.068   0.139 -0.1902  0.0210 -0.1312
28359SOL    HW195007  12.068   2.978   0.110  0.7960  0.6888 -1.8502
28359SOL    HW295008  11.967   3.066   0.181  0.4011 -1.9896  1.1596
28360SOL     OW95009   1.938   4.176  12.215 -0.2885  0.5259  0.1500
28360SOL    HW195010   1.992   4.139  12.285 -1.0002  1.3722  1.1730
28360SOL    HW295011   1.886   4.244  12.257 -3.4476 -1.3536 -0.3685
28361SOL     OW95012   5.718   6.879   8.368 -0.0070  0.2059  0.2210
28361SOL    HW195013   5.660   6.829   8.425  0.8074 -1.4000 -0.3204
28361SOL    HW295014   5.795   6.896   8.421 -0.7748  2.0693  0.8342
28362SOL     OW95015  10.955   2.603   1.244 -0.2895  0.2991  0.2387
28362SOL    HW195016  10.867   2.639   1.255 -0.8357 -0.4779 -1.2325
28362SOL    HW295017  11.012   2.661   1.295 -1.7577  0.2232  2.0780
28363SOL     OW95018   8.845   9.072   4.520  0.5299 -0.3583  0.3800
28363SOL    HW195019   8.796   8.991   4.514  0.5293 -0.2800 -0.9207
28363SOL    HW295020   8.818   9.110   4.604 -0.8891 -0.7868  0.1430
28364SOL     OW95021   0.324   5.468   4.897  0.1293  0.3288 -0.7569
28364SOL    HW195022   0.407   5.470   4.850  0.2417  1.9436 -0.5239
28364SOL    HW295023   0.325   5.546   4.952 -1.1513 -0.1196 -0.0469
28365SOL     OW95024   4.795   1.612  11.230  0.1139  0.3480 -0.3034
28365SOL    HW195025   4.871   1.669  11.233 -0.9777  1.8514 -0.4432
28365SOL    HW295026   4.745   1.642  11.154 -0.5581 -0.7172 -0.3084
28366SOL     OW95027   0.924   9.968   5.447  0.2053  0.2061  0.2215
28366SOL    HW195028   0.864   9.964   5.373  0.5132  0.2306 -0.0306
28366SOL    HW295029   0.925  10.061   5.472  1.0014  0.4032 -0.4936
28367SOL     OW95030   7.175   7.297   1.509  0.4835 -0.0569  0.4407
28367SOL    HW195031   7.220   7.214   1.520 -2.0122 -1.3735  1.3515
28367SOL    HW295032   7.198   7.348   1.587  0.5032 -0.6598  0.8326
28368SOL     OW95033  10.204  12.711   8.596 -0.3443 -0.4082  0.2370
28368SOL    HW195034  10.197  12.804   8.577  1.2652 -0.2373  0.3000
28368SOL    HW295035  10.238  12.673   8.514 -0.5214 -0.8588  0.3703
28369SOL     OW95036   8.812   5.877  12.685 -0.0093 -0.0465  0.4476
28369SOL    HW195037   8.825   5.782  12.686 -0.6182 -0.1282  0.8983
28369SOL    HW295038   8.815   5.903  12.777 -1.5475  0.1284  0.4658
28370SOL     OW95039   7.698  11.829   3.337 -0.7168  0.2479 -0.0209
28370SOL    HW195040   7.759  11.757   3.350 -2.8504 -1.5652  0.6435
28370SOL    HW295041   7.712  11.857   3.246  1.3730  0.2708  0.2501
28371SOL     OW95042   3.983   5.163   9.663  0.2666  0.1500 -0.0486
28371SOL    HW195043   3.905   5.163   9.608  0.4786 -0.1109 -0.3504
28371SOL    HW295044   4.005   5.070   9.674 -0.2009  0.1541  1.0808
28372SOL     OW95045   3.171   4.643  12.762  0.9674  0.4399  0.0827
28372SOL    HW195046   3.156   4.736  12.751  0.3302  0.5456  1.6095
28372SOL    HW295047   3.103   4.601  12.710  0.5920  0.8426  0.2458
28373SOL     OW95048  11.037   5.433   6.710  0.1217  0.1049 -0.1065
28373SOL    HW195049  10.954   5.387   6.699  0.2838 -0.0775 -0.6270
28373SOL    HW295050  11.062   5.458   6.621  1.8538 -2.0141 -0.2990
28374SOL     OW95051   6.261   6.520   6.218 -0.3806  0.6408 -0.1948
28374SOL    HW195052   6.336   6.559   6.173  0.4360 -0.2162  0.3915
28374SOL    HW295053   6.205   6.489   6.147  0.3431  0.3324 -0.6466
28375SOL     OW95054  11.367   4.024   3.354 -0.2471  0.3792  0.9146
28375SOL    HW195055  11.450   4.022   3.306 -1.2695  0.0475 -0.9234
28375SOL    HW295056  11.300   4.015   3.287 -1.8718  2.3497  2.1634
28376SOL     OW95057   0.300   9.805   2.349 -0.5732 -0.0136 -0.4145
28376SOL    HW195058   0.266   9.762   2.271 -1.4397 -0.4417  0.1825
28376SOL    HW295059   0.363   9.743   2.386 -0.0233  0.2678 -0.8601
28377SOL     OW95060   0.214   7.312   8.850  0.3748  0.3311  0.6786
28377SOL    HW195061   0.160   7.253   8.902  0.1005  0.4484  0.5299
28377SOL    HW295062   0.250   7.258   8.780 -0.1826  0.4169  0.3184
28378SOL     OW95063   8.215   3.236  12.158  0.2769  0.1923  0.2571
28378SOL    HW195064   8.245   3.316  12.114 -0.1510 -0.0616 -0.5172
28378SOL    HW295065   8.128   3.258  12.192  1.0890  0.7763  2.0849
28379SOL     OW95066   9.538   3.881  12.731 -0.4822 -0.8240 -0.5383
28379SOL    HW195067   9.521   3.909  12.641 -0.6222  0.2477 -0.1940
28379SOL    HW295068   9.600   3.808  12.723  1.3714  0.7580 -1.4203
28380SOL     OW95069   0.297   4.829  12.189 -0.0961  0.5981 -0.1815
28380SOL    HW195070   0.365   4.849  12.254  0.9632  1.2780 -1.4566
28380SOL    HW295071   0.269   4.740  12.211  0.2784  0.7793  1.1545
28381SOL     OW95072   5.160   9.392   7.886 -0.3009  0.5275 -0.3961
28381SOL    HW195073   5.081   9.339   7.877 -0.0015 -0.0078  0.0850
28381SOL    HW295074   5.180   9.391   7.979 -1.4478  3.2004 -0.0236
28382SOL     OW95075   3.961  10.414   7.631 -0.4679 -0.5404 -0.2608
28382SOL    HW195076   3.960  10.502   7.668 -2.1105 -0.4699 -0.3986
28382SOL    HW295077   4.034  10.415   7.569  1.1202 -0.0687  1.5097
28383SOL     OW95078   6.051   0.660   6.005 -0.1937 -0.1976  0.2880
28383SOL    HW195079   6.133   0.706   6.021 -0.7194  1.2255 -0.9258
28383SOL    HW295080   6.004   0.666   6.088  0.6847 -0.5927  0.8417
28384SOL     OW95081   3.905   3.146   9.999  0.1310 -0.0227 -0.0284
28384SOL    HW195082   3.941   3.181  10.080 -1.8328  0.3489  0.7369
28384SOL    HW295083   3.899   3.052  10.014  0.6823 -0.0739 -0.1245
28385SOL     OW95084   7.454   0.652  10.739  0.0371 -0.7709 -0.2721
28385SOL    HW195085   7.467   0.631  10.647  0.9986  1.3481 -0.6809
28385SOL    HW295086   7.383   0.716  10.740  1.3975  0.7976  0.1915
28386SOL     OW95087  11.189   3.048   3.548  0.3782  0.1973  0.4637
28386SOL    HW195088  11.106   3.045   3.594  0.3050  2.9730  0.6766
28386SOL    HW295089  11.255   3.063   3.616  1.0009 -1.3310  0.2295
28387SOL     OW95090  12.591   1.598   1.506  0.1123 -0.0524 -0.6463
28387SOL    HW195091  12.556   1.687   1.510 -1.9045 -0.8192  0.1104
28387SOL    HW295092  12.514   1.542   1.506  1.3410 -1.8651  0.7606
28388SOL     OW95093   3.551  12.292   8.538  0.5394 -0.3517  0.3488
28388SOL    HW195094   3.534  12.203   8.571 -0.1185  0.1296  1.3588
28388SOL    HW295095   3.604  12.279   8.460 -0.3510 -1.6882 -0.0627
28389SOL     OW95096   3.541   3.051   2.000  0.0546  0.2467 -0.1672
28389SOL    HW195097   3.560   2.966   2.039 -0.0961 -0.2100 -1.0742
28389SOL    HW295098   3.613   3.107   2.028  0.5261 -0.3623 -0.1478
28390SOL     OW95099   0.517  10.459   4.643 -0.0597  0.2127 -0.0577
28390SOL    HW195100   0.450  10.528   4.641  1.0006  1.2630 -1.2801
28390SOL    HW295101   0.492  10.404   4.717 -1.5307  1.3149  0.3214
28391SOL     OW95102  11.172   2.142   5.634 -0.3445  0.4938 -0.0101
28391SOL    HW195103  11.098   2.101   5.590  0.5521  0.2510 -1.3287
28391SOL    HW295104  11.249   2.117   5.582  0.3876  2.7489 -0.1184
28392SOL     OW95105   9.206  11.202   1.518 -0.2436  0.2002  0.4474
28392SOL    HW195106   9.117  11.171   1.501 -1.1932  2.8543  0.0251
28392SOL    HW295107   9.262  11.150   1.461 -1.6266 -0.9979  0.1441
28393SOL     OW95108   8.292   9.094   3.921 -0.0543  0.6634  0.2581
28393SOL    HW195109   8.275   9.182   3.954 -3.1822  0.5893 -0.8151
28393SOL    HW295110   8.251   9.036   3.986 -1.6101  0.2739 -1.0103
28394SOL     OW95111   7.721   7.423   8.599 -0.2701  0.2933  0.2159
28394SOL    HW195112   7.715   7.337   8.641 -1.2150 -0.2832 -0.9924
28394SOL    HW295113   7.638   7.466   8.621 -0.5330  0.2018 -0.5502
28395SOL     OW95114  12.498   7.297  12.770 -0.0020 -0.0150  0.1869
28395SOL    HW195115  12.492   7.364  12.838 -0.4861 -1.1167  1.2693
28395SOL    HW295116  12.530   7.344  12.693 -0.5644  1.5011  0.8334
28396SOL     OW95117   9.922   6.761   0.997 -0.2048  0.0863  0.0833
28396SOL    HW195118   9.920   6.685   1.054  3.1239 -1.1317 -1.1731
28396SOL    HW295119   9.982   6.822   1.040 -0.3366  0.6300 -0.4752
28397SOL     OW95120   5.887   4.234  10.083  0.0409  0.3401  0.1777
28397SOL    HW195121   5.924   4.218   9.996  0.7071  0.7914  0.3675
28397SOL    HW295122   5.878   4.147  10.121  0.1436  0.1687 -0.1840
28398SOL     OW95123   9.369   2.055  13.208 -0.4640  0.2563 -0.3244
28398SOL    HW195124   9.368   2.104  13.290 -0.8593  0.0073 -0.1772
28398SOL    HW295125   9.375   1.963  13.235  2.4734  0.2595 -0.6267
28399SOL     OW95126   1.152   0.219   5.906  0.3650 -0.2052 -0.8116
28399SOL    HW195127   1.072   0.269   5.924  0.2385 -0.9317  0.7881
28399SOL    HW295128   1.221   0.266   5.952  0.3555 -1.0885  0.1462
28400SOL     OW95129  13.192  10.674   1.219 -0.2053 -0.0643  0.4271
28400SOL    HW195130  13.108  10.721   1.218  1.7180  3.7404  1.2514
28400SOL    HW295131  13.238  10.706   1.141  1.6100  0.2959  1.5997
28401SOL     OW95132   6.408  13.177   7.621  0.4272  0.5915 -0.7387
28401SOL    HW195133   6.399  13.112   7.691 -0.8491  0.5622 -0.9081
28401SOL    HW295134   6.343  13.244   7.642  2.0935  2.1577 -0.2587
28402SOL     OW95135   0.630   3.834   0.253 -0.2868  0.1693  0.9499
28402SOL    HW195136   0.720   3.823   0.283 -0.3845 -0.4763  1.0114
28402SOL    HW295137   0.578   3.836   0.333 -0.3897 -0.0412  0.8869
28403SOL     OW95138  11.908   2.103   1.897  0.8343 -0.1480  0.7035
28403SOL    HW195139  11.901   2.051   1.817  1.7207  0.8473 -0.0603
28403SOL    HW295140  11.940   2.189   1.867 -2.0556  1.4068  1.6990
28404SOL     OW95141   8.337  10.951   7.617 -0.2447 -0.1404 -0.2913
28404SOL    HW195142   8.316  10.966   7.709 -0.5156  0.5466 -0.4581
28404SOL    HW295143   8.261  10.985   7.569  0.4686  0.7463 -0.8248
28405SOL     OW95144   0.902   4.985   4.122 -0.2453 -0.2472  0.9328
28405SOL    HW195145   0.894   4.941   4.207 -0.8208  0.2881  1.1590
28405SOL    HW295146   0.867   4.922   4.059  0.7998 -0.9165  0.9943
28406SOL     OW95147   8.039   8.276   7.745 -0.1906 -0.1572  0.0361
28406SOL    HW195148   7.994   8.347   7.699 -1.2226 -0.4633  0.5494
28406SOL    HW295149   8.054   8.310   7.833 -2.1638 -1.1082  0.8085
28407SOL     OW95150  12.535   4.501   4.781  0.1866 -0.3938 -0.0439
28407SOL    HW195151  12.455   4.448   4.777  0.9661 -1.5768 -0.3240
28407SOL    HW295152  12.516   4.568   4.847 -0.4233 -1.6787  1.1301
28408SOL     OW95153   2.704  11.752  12.847 -0.3981  0.1676  0.1518
28408SOL    HW195154   2.658  11.828  12.812  1.8517  1.8706  0.6363
28408SOL    HW295155   2.737  11.706  12.769  0.2485  1.0724 -0.1279
28409SOL     OW95156  11.281   3.390  12.918 -0.1729 -0.1956  0.1383
28409SOL    HW195157  11.345   3.460  12.916 -0.5835  0.1704 -0.3079
28409SOL    HW295158  11.307   3.336  12.993 -0.8542  1.3698  1.5669
28410SOL     OW95159   4.998  12.908   9.287 -0.1619 -0.2290 -0.2246
28410SOL    HW195160   4.978  12.903   9.381 -1.4817  1.2026 -0.3874
28410SOL    HW295161   5.001  12.817   9.258 -1.1294 -0.6657  0.9482
28411SOL     OW95162   8.780   7.654   6.735 -1.2386 -0.0841 -0.1212
28411SOL    HW195163   8.824   7.675   6.652  0.3428 -0.4639  0.5935
28411SOL    HW295164   8.778   7.559   6.737 -0.4875 -0.0857  0.6777
28412SOL     OW95165   0.169   5.800   9.354 -0.5955 -0.2238 -0.0660
28412SOL    HW195166   0.191   5.729   9.414 -1.0584  0.5462  1.0496
28412SOL    HW295167   0.156   5.876   9.411  1.5096  1.1834 -1.3412
28413SOL     OW95168   5.798   3.729  10.714  0.4896 -0.0861  0.4618
28413SOL    HW195169   5.877   3.680  10.692  0.9315  0.2968  1.1546
28413SOL    HW295170   5.829   3.800  10.770 -0.6577 -1.3475  2.8180
28414SOL     OW95171  12.421   5.879  11.293 -0.1874 -0.2567  0.3525
28414SOL    HW195172  12.460   5.813  11.350 -0.8456  0.5302  1.7496
28414SOL    HW295173  12.339   5.903  11.336 -0.7898  0.2411 -1.0254
28415SOL     OW95174   6.185   6.610   4.063 -0.1701  0.2551 -0.0856
28415SOL    HW195175   6.247   6.548   4.025 -1.0872 -1.2292  0.6997
28415SOL    HW295176   6.238   6.669   4.117  0.6723 -0.2637 -0.3420
28416SOL     OW95177   2.591   9.226   4.994  0.6546  0.3020 -0.0041
28416SOL    HW195178   2.530   9.156   4.971 -2.3539  2.5114  0.6691
28416SOL    HW295179   2.642   9.241   4.914 -1.4818  0.0371 -1.4949
28417SOL     OW95180  10.104   6.005   1.136 -0.0604  0.3450 -0.2335
28417SOL    HW195181  10.169   6.020   1.205 -1.7488  1.1283  1.2949
28417SOL    HW295182  10.078   5.913   1.148  0.6099  0.0851 -0.7262
28418SOL     OW95183   9.659  11.042   8.660  0.1939 -0.3219  0.1373
28418SOL    HW195184   9.636  11.129   8.628 -1.7373  0.0528  2.3446
28418SOL    HW295185   9.601  10.983   8.612  0.8232 -0.3128 -0.6510
28419SOL     OW95186  12.185   9.184   8.317 -0.4654  0.2296 -0.0726
28419SOL    HW195187  12.241   9.111   8.343 -2.3088 -1.0780  0.4390
28419SOL    HW295188  12.203   9.196   8.224 -0.4287 -1.1596 -0.2652
28420SOL     OW95189   0.664   8.988   7.769 -0.1369  0.3790  0.2481
28420SOL    HW195190   0.736   9.042   7.737  1.0783 -1.6143 -0.5983
28420SOL    HW295191   0.707   8.909   7.801 -1.6895  0.5203  2.9599
28421SOL     OW95192   3.001   1.993   3.729 -0.4046  0.5970 -0.3127
28421SOL    HW195193   3.084   1.966   3.690  0.5196 -0.7932  2.4448
28421SOL    HW295194   2.941   1.920   3.713 -0.5071  0.7119 -0.4684
28422SOL     OW95195   8.840   2.462   4.101  0.1920  0.8857 -0.1091
28422SOL    HW195196   8.791   2.433   4.024 -1.6853  1.9423  0.6044
28422SOL    HW295197   8.847   2.557   4.089  1.7707  0.8088  0.0194
28423SOL     OW95198   0.528   9.579   2.143  0.5219 -0.9358  0.1668
28423SOL    HW195199   0.559   9.572   2.233  0.9496 -1.2219 -0.0008
28423SOL    HW295200   0.511   9.673   2.131  0.5342 -0.8887  0.5212
28424SOL     OW95201  11.286   2.780   3.495  0.3969  0.0204  0.3000
28424SOL    HW195202  11.374   2.798   3.530  0.4812 -0.4711  0.3469
28424SOL    HW295203  11.238   2.861   3.510  1.1117  0.6290 -0.5723
28425SOL     OW95204   9.299   5.199  11.508 -0.2739 -0.2991 -0.3575
28425SOL    HW195205   9.263   5.160  11.429 -3.5777 -1.1309  1.4021
28425SOL    HW295206   9.262   5.287  11.510 -1.5145 -0.8335  1.0235
28426SOL     OW95207   4.265   1.835   8.947  0.5601 -0.1830 -0.0228
28426SOL    HW195208   4.177   1.857   8.976  0.7004 -0.7580  0.8755
28426SOL    HW295209   4.314   1.917   8.951 -0.2596  0.4580 -1.8790
28427SOL     OW95210   3.674  11.754  13.023  0.1129  0.3101  0.2525
28427SOL    HW195211   3.618  11.724  13.095 -0.4799  1.0720  0.1264
28427SOL    HW295212   3.654  11.695  12.951  0.5016 -0.2811  0.6180
28428SOL     OW95213   0.918   7.550   8.810  0.3130 -0.1162 -0.0090
28428SOL    HW195214   0.952   7.508   8.889  2.4645 -0.0097 -0.7974
28428SOL    HW295215   0.862   7.621   8.842  0.2481 -0.7775  1.3867
28429SOL     OW95216   9.994   2.084   3.318  0.6502  0.1049 -0.3406
28429SOL    HW195217  10.006   1.992   3.340 -0.2523 -0.4195 -1.8483
28429SOL    HW295218  10.082   2.116   3.298  0.7530 -1.0415 -1.9070
28430SOL     OW95219   3.960   5.500   7.262 -0.3742 -0.5685 -0.1717
28430SOL    HW195220   3.891   5.436   7.244  1.4978 -2.6118 -0.4078
28430SOL    HW295221   3.913   5.582   7.275 -2.9807 -2.1392  1.2004
28431SOL     OW95222   0.247  11.449  11.939 -0.2350  0.2021  0.1301
28431SOL    HW195223   0.267  11.510  11.868  3.7484 -0.6122  0.3084
28431SOL    HW295224   0.214  11.504  12.010  0.1644  1.6835 -0.7806
28432SOL     OW95225   7.223   5.836  10.061  0.2612 -0.2271  0.4018
28432SOL    HW195226   7.215   5.931  10.054 -0.0054 -0.3303 -0.7691
28432SOL    HW295227   7.314   5.822  10.089  0.4369  0.3480  0.1371
28433SOL     OW95228  12.865  12.659   7.120  0.5338  0.7204 -0.9592
28433SOL    HW195229  12.796  12.594   7.134  1.6137 -0.1307  0.8950
28433SOL    HW295230  12.944  12.607   7.106  1.3627  1.6122  0.1940
28434SOL     OW95231  12.286  11.768   4.398 -0.0728  0.6106 -0.5522
28434SOL    HW195232  12.344  11.843   4.411 -0.6087  0.5893  2.7840
28434SOL    HW295233  12.344  11.695   4.379  1.1579  0.5553  2.8076
28435SOL     OW95234   1.684   4.153   6.668 -0.5430 -0.1701  0.4739
28435SOL    HW195235   1.610   4.199   6.629 -0.5680 -0.3960  0.2534
28435SOL    HW295236   1.720   4.215   6.731 -0.5114  0.1918  0.1024
28436SOL     OW95237   0.545  11.171   3.058  0.8208 -0.4539 -0.2368
28436SOL    HW195238   0.506  11.159   3.145  2.9038 -1.5502  0.6123
28436SOL    HW295239   0.548  11.266   3.047 -1.3034 -0.3152 -0.0264
28437SOL     OW95240   0.624  13.167   8.369  0.1274 -0.0208  0.1136
28437SOL    HW195241   0.676  13.241   8.401  1.1403 -1.1667  1.2009
28437SOL    HW295242   0.656  13.152   8.280 -2.5223  3.0095 -1.5680
28438SOL     OW95243   4.904  10.934   1.240  0.5287 -0.2296 -0.1241
28438SOL    HW195244   4.899  10.959   1.333  0.3636  3.1334 -0.8989
28438SOL    HW295245   4.988  10.889   1.232  1.6301  1.4008  1.3141
28439SOL     OW95246   7.082   9.886  11.396  0.0281  0.6031  0.4403
28439SOL    HW195247   7.085   9.890  11.492 -1.9025  0.8115  0.5293
28439SOL    HW295248   6.995   9.918  11.373  0.1354 -0.2556 -1.3464
28440SOL     OW95249   7.707  12.688  12.767  0.3456  0.1628 -0.4503
28440SOL    HW195250   7.767  12.626  12.808 -0.0164 -0.1129 -0.3364
28440SOL    HW295251   7.638  12.633  12.729 -0.1965  0.5221  0.0089
28441SOL     OW95252   5.374   6.532   3.061 -0.2528 -0.0561 -0.7577
28441SOL    HW195253   5.302   6.486   3.019 -1.7174  2.3548 -1.0744
28441SOL    HW295254   5.359   6.522   3.155 -0.6587 -0.0885 -0.8275
28442SOL     OW95255   4.009   7.144   4.186  0.8032 -0.3028  0.2970
28442SOL    HW195256   3.916   7.125   4.196  0.8537 -1.3259 -0.9941
28442SOL    HW295257   4.013   7.206   4.113  1.1703 -0.7066 -0.0303
28443SOL     OW95258  10.840   2.811   4.599 -0.5389 -0.0874  0.2755
28443SOL    HW195259  10.905   2.779   4.537  2.0116  1.9694  1.6550
28443SOL    HW295260  10.890   2.829   4.679 -2.6625  2.2429  1.2376
28444SOL     OW95261   1.358   3.399   8.465 -0.3615  0.6163  0.0827
28444SOL    HW195262   1.283   3.353   8.429 -0.3592  1.5988 -1.2574
28444SOL    HW295263   1.343   3.491   8.443  0.8402  0.9381  0.5123
28445SOL     OW95264   3.694   3.360   6.930  0.3323 -0.1667  0.3034
28445SOL    HW195265   3.637   3.293   6.968  3.1703 -3.5202 -0.7387
28445SOL    HW295266   3.739   3.398   7.005  1.6783 -2.5750  0.8517
28446SOL     OW95267   5.275   8.540   6.553 -0.3606  0.0039  0.3302
28446SOL    HW195268   5.338   8.551   6.624 -0.1958  0.1872  0.1577
28446SOL    HW295269   5.262   8.629   6.519  1.0016 -0.2977 -1.1057
28447SOL     OW95270   8.298   6.484   1.442  0.2118 -0.0411 -0.2955
28447SOL    HW195271   8.322   6.528   1.524  0.0267 -0.2491 -0.1276
28447SOL    HW295272   8.380   6.447   1.409  0.1039 -0.9197  0.3751
28448SOL     OW95273   5.403   7.307   6.326  0.2566  0.0979 -0.2717
28448SOL    HW195274   5.494   7.289   6.302 -0.0795  0.4706 -2.0274
28448SOL    HW295275   5.408   7.376   6.392  1.2441  0.4774 -0.7271
28449SOL     OW95276   3.341   1.021   4.094  0.7795  0.1506 -0.5638
28449SOL    HW195277   3.354   1.019   4.189 -0.3850 -0.3959 -0.3990
28449SOL    HW295278   3.426   1.049   4.059  0.9701  1.2600  0.6807
28450SOL     OW95279   7.008   6.918   2.327 -0.0400 -0.0718 -0.0262
28450SOL    HW195280   6.921   6.880   2.339 -1.0501  1.9556 -0.5080
28450SOL    HW295281   7.016   6.983   2.396  1.3041 -0.5070  0.2753
28451SOL     OW95282  12.809   5.738   9.762  0.4144  0.3485  0.9961
28451SOL    HW195283  12.714   5.733   9.761  0.3798  0.9288  0.1393
28451SOL    HW295284  12.837   5.667   9.820 -0.5996  1.2680  2.6959
28452SOL     OW95285   0.956   3.492  11.922  0.3645 -0.3001 -0.3658
28452SOL    HW195286   0.953   3.577  11.966 -0.7247  0.1782 -1.3110
28452SOL    HW295287   1.035   3.494  11.870  1.1813 -0.5093  0.8254
28453SOL     OW95288   0.847   6.065   1.126  0.2177 -0.0976  0.5014
28453SOL    HW195289   0.934   6.034   1.101 -0.0301 -0.2624 -0.1749
28453SOL    HW295290   0.855   6.085   1.220  0.6172 -1.3662  0.7525
28454SOL     OW95291   7.442   7.088   5.103  0.7313 -0.0830 -0.0083
28454SOL    HW195292   7.438   7.136   5.020  1.2357 -0.8031 -0.4580
28454SOL    HW295293   7.478   7.151   5.165  2.0183 -0.0650 -0.7485
28455SOL     OW95294   3.266   7.423   1.381 -0.2243  0.2848  0.2476
28455SOL    HW195295   3.320   7.482   1.328 -1.0421  0.6842 -0.1684
28455SOL    HW295296   3.202   7.388   1.319 -0.2869 -0.3802  0.6782
28456SOL     OW95297  11.544   8.184   1.844  0.5919 -0.1145 -0.5054
28456SOL    HW195298  11.535   8.171   1.939 -2.0914 -0.6271 -0.7496
28456SOL    HW295299  11.572   8.099   1.811  1.5188  0.0607 -0.2251
28457SOL     OW95300   0.879   8.906   0.029 -0.2823 -0.5827 -0.1803
28457SOL    HW195301   0.948   8.861   0.079  1.1092 -1.2914 -2.5923
28457SOL    HW295302   0.833   8.835  -0.016 -1.9857 -0.0140  0.5768
28458SOL     OW95303   3.725   7.925   0.634  0.6248 -0.2372 -0.0333
28458SOL    HW195304   3.786   7.892   0.699 -0.2441  2.1653  2.1914
28458SOL    HW295305   3.688   8.004   0.673 -1.2844  0.3877 -2.7499
28459SOL     OW95306   2.357   6.051  10.214  0.0085  0.5763  0.0334
28459SOL    HW195307   2.392   6.140  10.224  0.9911  0.3387 -1.0489
28459SOL    HW295308   2.285   6.046  10.277 -0.5108  2.3709 -0.3699
28460SOL     OW95309   9.324   0.816   4.658  0.2023 -0.6416 -0.2651
28460SOL    HW195310   9.319   0.907   4.628  1.5918 -0.6179 -0.5077
28460SOL    HW295311   9.237   0.797   4.691  0.3305  1.3409  1.4192
28461SOL     OW95312   6.737   6.912   0.445  0.0072 -0.0575 -0.3048
28461SOL    HW195313   6.724   6.892   0.353  1.6772  0.7470 -0.7675
28461SOL    HW295314   6.770   6.831   0.484  0.3183 -0.1089 -0.6689
28462SOL     OW95315   2.651   8.184  11.573 -0.0962 -0.9063  0.7157
28462SOL    HW195316   2.731   8.235  11.585 -0.4460 -0.0190 -0.4853
28462SOL    HW295317   2.582   8.250  11.565 -0.4201 -1.4567 -1.9433
28463SOL     OW95318   7.539  10.712   7.697  0.6104  0.1338  0.2188
28463SOL    HW195319   7.567  10.623   7.719  1.3769  0.0374 -1.0256
28463SOL    HW295320   7.549  10.717   7.601 -3.3848  0.2095 -0.3574
28464SOL     OW95321   6.228   5.318  10.625  0.3346 -0.3133 -0.0855
28464SOL    HW195322   6.204   5.382  10.557 -0.8134 -1.8844 -1.2190
28464SOL    HW295323   6.307   5.275  10.591  0.0797 -0.7223 -0.1615
28465SOL     OW95324   2.337  11.417  11.243 -0.0810  0.4994  0.2227
28465SOL    HW195325   2.421  11.373  11.232 -0.8587 -0.5990 -1.7337
28465SOL    HW295326   2.305  11.387  11.328  1.3245  0.6790  0.8423
28466SOL     OW95327   8.536   5.767   3.490 -0.5841 -0.2082  0.0449
28466SOL    HW195328   8.587   5.756   3.570  1.2362  0.2687 -0.9974
28466SOL    HW295329   8.460   5.819   3.517 -0.9571 -1.5413  1.7717
28467SOL     OW95330  10.828  12.429   9.554  0.2142  0.0786  0.2942
28467SOL    HW195331  10.905  12.452   9.606 -0.0832  0.0786  0.7473
28467SOL    HW295332  10.792  12.513   9.525  2.0045  0.0366 -2.3966
28468SOL     OW95333   0.279   2.374   4.781 -0.0692  0.0414 -0.5896
28468SOL    HW195334   0.210   2.328   4.829 -0.2488  0.3257 -0.5659
28468SOL    HW295335   0.240   2.460   4.763 -0.0134 -0.0718 -1.2618
28469SOL     OW95336   1.657   8.064   1.287 -0.0155 -0.2589 -0.0777
28469SOL    HW195337   1.663   8.087   1.380 -0.6797  1.0958 -0.3448
28469SOL    HW295338   1.563   8.070   1.267  0.3647  2.3373 -1.4786
28470SOL     OW95339   5.433  12.680   4.398 -0.2895 -0.3133  0.0622
28470SOL    HW195340   5.417  12.747   4.331 -1.0620 -1.2437 -0.7300
28470SOL    HW295341   5.350  12.673   4.445 -0.4654 -1.2005 -0.3468
28471SOL     OW95342   1.193   6.375   0.398  0.1260 -0.1476  0.4217
28471SOL    HW195343   1.125   6.383   0.465  2.5650 -0.0052  3.0894
28471SOL    HW295344   1.208   6.465   0.369 -0.3288 -0.0877  0.3685
28472SOL     OW95345  11.309  11.536   6.056  0.5373 -0.5051 -0.4713
28472SOL    HW195346  11.217  11.537   6.030  0.4206  0.5887 -0.0573
28472SOL    HW295347  11.308  11.554   6.150  1.2756  2.2068 -0.8931
28473SOL     OW95348   6.967   5.193   8.450 -0.0063 -0.3583  0.3406
28473SOL    HW195349   6.910   5.116   8.450 -0.5886  0.0536 -0.5212
28473SOL    HW295350   6.974   5.218   8.357  2.3556 -0.9435  0.3125
28474SOL     OW95351  11.818   3.599   4.632 -0.4122  0.8558 -0.1698
28474SOL    HW195352  11.776   3.526   4.588  1.1208 -0.7720  0.9479
28474SOL    HW295353  11.746   3.647   4.673 -1.3396 -0.9100  0.3455
28475SOL     OW95354  10.455   8.601   1.609 -0.4583 -0.8037  0.0004
28475SOL    HW195355  10.382   8.632   1.663  0.2740  1.7919 -0.3662
28475SOL    HW295356  10.466   8.668   1.542  2.0615 -1.2552 -0.1538
28476SOL     OW95357   6.927   9.826   0.897 -0.1445 -0.1603  0.2658
28476SOL    HW195358   6.959   9.875   0.821  1.6333 -1.1629  0.3141
28476SOL    HW295359   6.860   9.882   0.935 -1.5421  0.1368 -2.3543
28477SOL     OW95360   8.591   5.415   4.035  0.5734  0.3692 -0.2949
28477SOL    HW195361   8.497   5.399   4.037  0.3967  1.1944 -0.9748
28477SOL    HW295362   8.629   5.345   4.087 -0.3725 -0.3082 -0.4913
28478SOL     OW95363   4.622   0.911   1.435  0.2073  0.4914  0.0465
28478SOL    HW195364   4.711   0.885   1.456  0.5383  0.8784 -0.8152
28478SOL    HW295365   4.610   0.884   1.344 -0.4192  0.7818  0.0356
28479SOL     OW95366   5.406   4.533  11.747  0.2654  0.2131  0.5670
28479SOL    HW195367   5.326   4.482  11.749  0.2990  0.1331 -0.1951
28479SOL    HW295368   5.413   4.569  11.836  0.8161 -1.9826  1.4641
28480SOL     OW95369   7.177   4.408  10.497 -0.4696  0.1024 -0.1457
28480SOL    HW195370   7.264   4.377  10.469 -0.6834 -0.4962 -0.1705
28480SOL    HW295371   7.194   4.491  10.540  0.2558 -0.5141  0.7949
28481SOL     OW95372   7.079   0.881   0.180 -0.2717 -0.3180 -0.0607
28481SOL    HW195373   7.119   0.880   0.093 -1.2796 -0.7179 -0.5331
28481SOL    HW295374   7.000   0.828   0.171 -1.7441  1.6490  0.4394
28482SOL     OW95375  10.919   2.455   4.824 -0.4191  0.6461 -1.0169
28482SOL    HW195376  10.953   2.497   4.745 -1.5310  0.6688 -1.5026
28482SOL    HW295377  10.991   2.459   4.886  0.8283 -0.2069 -2.3301
28483SOL     OW95378  13.080   2.616   8.745  0.0911  0.3368  0.4625
28483SOL    HW195379  13.152   2.679   8.740  0.3342  0.0047 -0.5042
28483SOL    HW295380  13.009   2.657   8.695  0.0494  0.1026  0.3273
28484SOL     OW95381   8.506   5.054   3.828 -0.2895 -0.0528 -0.2582
28484SOL    HW195382   8.539   4.964   3.826  1.5986  0.5592  0.4544
28484SOL    HW295383   8.416   5.046   3.857  0.4211 -1.6241  1.7621
28485SOL     OW95384   7.874   6.376   3.616 -0.2601 -0.0169  0.3106
28485SOL    HW195385   7.847   6.327   3.538 -0.4953  1.0937 -0.3223
28485SOL    HW295386   7.922   6.451   3.582  1.7313 -0.7503  1.3345
28486SOL     OW95387   2.212   2.958   0.903 -0.0600 -0.4390  0.3493
28486SOL    HW195388   2.119   2.976   0.912 -0.0283 -0.3937  0.6059
28486SOL    HW295389   2.246   2.963   0.993  0.8278  2.9822 -0.0402
28487SOL     OW95390   5.285  10.244   3.634 -0.3166 -0.1694 -0.4220
28487SOL    HW195391   5.238  10.228   3.716 -0.4595  0.6430 -0.3370
28487SOL    HW295392   5.345  10.170   3.626 -0.1829 -0.1697  0.4990
28488SOL     OW95393   1.497   6.937   7.744 -0.2094  0.0830 -0.2302
28488SOL    HW195394   1.546   6.855   7.738  2.0363  1.4416 -2.9026
28488SOL    HW295395   1.424   6.917   7.803  0.1984 -3.8082 -0.7403
28489SOL     OW95396   7.668   6.981   3.900  0.6965  0.0438 -0.7573
28489SOL    HW195397   7.579   7.015   3.897 -0.0184 -0.8133  3.6866
28489SOL    HW295398   7.723   7.057   3.918  0.4854  0.1910 -0.7362
28490SOL     OW95399   2.300   3.916   7.966 -0.1431 -0.2295  0.0869
28490SOL    HW195400   2.387   3.878   7.951  0.1586  0.0568  1.0677
28490SOL    HW295401   2.240   3.857   7.921  0.6107 -0.0667 -1.1776
28491SOL     OW95402   0.051   5.719   5.287  0.3232 -0.3468 -0.6334
28491SOL    HW195403   0.136   5.758   5.269 -0.3504  1.4217 -0.1904
28491SOL    HW295404   0.011   5.707   5.200  0.1789  0.8659 -0.7532
28492SOL     OW95405   5.445   3.674   2.358  0.2734  0.6902  0.0632
28492SOL    HW195406   5.481   3.728   2.428  0.3275  0.9931 -0.2017
28492SOL    HW295407   5.497   3.695   2.281  1.9063 -1.4659  0.4526
28493SOL     OW95408   1.463   7.240   0.419  0.5834 -0.3576  0.0854
28493SOL    HW195409   1.394   7.244   0.353  0.5506 -1.7925  0.0192
28493SOL    HW295410   1.504   7.327   0.415 -0.1045 -0.0593 -1.0668
28494SOL     OW95411   5.394   0.444   3.466  0.1692  0.2805  0.2990
28494SOL    HW195412   5.414   0.359   3.506 -0.8179  0.3825  1.0588
28494SOL    HW295413   5.399   0.428   3.372  1.0193 -0.3542  0.4373
28495SOL     OW95414   8.823  13.099  13.175 -0.1182 -0.1984  0.3734
28495SOL    HW195415   8.918  13.106  13.168 -0.1829  0.0355 -0.3182
28495SOL    HW295416   8.792  13.190  13.178 -0.5300 -0.1117 -2.6891
28496SOL     OW95417   0.071   0.487   5.773  0.0679  0.2285 -0.3144
28496SOL    HW195418   0.139   0.490   5.706  0.4689  0.2145  0.0931
28496SOL    HW295419  -0.007   0.520   5.728  0.8202  2.2919 -0.2166
28497SOL     OW95420   5.720   5.611   2.306  0.2736 -0.3095  0.3899
28497SOL    HW195421   5.659   5.678   2.277  0.2435 -0.4861  0.0385
28497SOL    HW295422   5.798   5.625   2.252 -0.0601 -1.1185 -0.3306
28498SOL     OW95423   3.281   9.205   0.819  0.0281 -0.1729  0.3327
28498SOL    HW195424   3.344   9.141   0.785 -0.6058 -1.1217  0.8952
28498SOL    HW295425   3.328   9.288   0.819  1.2416 -0.8438  0.6421
28499SOL     OW95426   3.578   1.715   5.146  0.0125 -0.0444  0.0827
28499SOL    HW195427   3.499   1.677   5.184  0.1056 -1.3630 -0.9859
28499SOL    HW295428   3.590   1.797   5.194 -2.0590  0.2586  0.1846
28500SOL     OW95429   5.573   5.581   5.691  0.5744 -0.1154  0.1477
28500SOL    HW195430   5.601   5.510   5.749 -0.0644  2.5053  4.1209
28500SOL    HW295431   5.486   5.556   5.663  1.5470 -2.2423 -1.2073
28501SOL     OW95432   9.293  10.182   0.387  0.1789 -0.0895 -0.6135
28501SOL    HW195433   9.366  10.167   0.327  1.5339  1.8826  0.4380
28501SOL    HW295434   9.329  10.164   0.474 -1.5797 -2.3005 -0.2465
28502SOL     OW95435   8.201  11.438  12.345  0.2127 -0.2881 -0.1884
28502SOL    HW195436   8.244  11.353  12.335  1.5788  0.0689  1.9158
28502SOL    HW295437   8.268  11.493  12.386 -1.3142  1.1865  0.4206
28503SOL     OW95438  12.789  10.564   0.113 -0.4296 -0.5785  0.1361
28503SOL    HW195439  12.820  10.478   0.138  0.5572 -0.3308 -0.2104
28503SOL    HW295440  12.839  10.625   0.167 -0.8986 -0.1999  0.1585
28504SOL     OW95441  11.934   3.193   2.907 -0.1570  0.1620  0.5664
28504SOL    HW195442  11.902   3.282   2.919 -2.6595 -0.1177 -2.6677
28504SOL    HW295443  11.899   3.166   2.822  2.8142 -2.9550  0.1020
28505SOL     OW95444   2.764   0.434  13.278 -0.3094 -0.2543  0.0944
28505SOL    HW195445   2.833   0.459  13.217 -1.6195 -0.9019 -1.7242
28505SOL    HW295446   2.711   0.514  13.288 -0.6546 -0.4210 -0.3959
28506SOL     OW95447  11.305   3.096  12.445  0.3803 -0.3476 -0.0220
28506SOL    HW195448  11.324   3.126  12.534 -0.5359 -0.5444  0.2559
28506SOL    HW295449  11.258   3.168  12.404  0.5329 -0.3749 -0.2471
28507SOL     OW95450   9.383  10.881   8.303  0.0511 -0.2182 -0.4580
28507SOL    HW195451   9.428  10.803   8.270 -1.5679 -1.2926 -0.2640
28507SOL    HW295452   9.385  10.943   8.231  1.6726 -0.2897 -0.5011
28508SOL     OW95453  13.165   0.837   6.730 -0.8877 -0.0437 -0.1039
28508SOL    HW195454  13.087   0.810   6.681 -1.0689  1.2882 -0.6021
28508SOL    HW295455  13.144   0.817   6.821 -1.9191  0.4960 -0.2077
28509SOL     OW95456   2.263   1.399   1.393  0.3473  0.0075 -0.2360
28509SOL    HW195457   2.187   1.442   1.432  0.7853  1.0622 -0.5168
28509SOL    HW295458   2.247   1.306   1.406  0.4017  0.2959  2.3124
28510SOL     OW95459  11.700  11.130   9.345 -0.2704 -0.0564  0.4000
28510SOL    HW195460  11.759  11.144   9.419 -0.2489  1.1250  0.1793
28510SOL    HW295461  11.757  11.098   9.275 -0.3643 -1.6132  1.0076
28511SOL     OW95462   1.219   7.312   6.651  0.1141  0.5025 -0.6588
28511SOL    HW195463   1.274   7.384   6.682  0.6386 -1.0420  2.4260
28511SOL    HW295464   1.193   7.265   6.731  0.9757 -3.5600 -2.4787
28512SOL     OW95465  10.778  13.309   9.822 -0.0686  0.0079 -0.0984
28512SOL    HW195466  10.708  13.254   9.856 -1.4922  0.9788 -1.3156
28512SOL    HW295467  10.759  13.316   9.728 -0.0601  2.6484  0.0204
28513SOL     OW95468  11.939   9.494   4.580 -0.2628  0.1879  0.1940
28513SOL    HW195469  11.965   9.563   4.642 -0.1853 -0.0066  0.3771
28513SOL    HW295470  11.974   9.524   4.496 -0.3002  0.4134  0.2570
28514SOL     OW95471   7.724   6.310   2.089  0.4549 -0.6906  0.2073
28514SOL    HW195472   7.800   6.260   2.058 -0.9382 -4.0411  1.6956
28514SOL    HW295473   7.651   6.279   2.035 -0.6056 -0.8987  1.7049
28515SOL     OW95474   4.566   4.329   4.975  0.1673  0.4352  0.3484
28515SOL    HW195475   4.538   4.288   4.893  0.4432 -0.5353  0.7238
28515SOL    HW295476   4.491   4.382   5.002  0.3716  1.4350 -0.9432
28516SOL     OW95477   7.604  11.483   4.947 -0.3773  0.9502  0.4040
28516SOL    HW195478   7.682  11.474   5.001 -0.0819 -0.1982 -0.1805
28516SOL    HW295479   7.534  11.442   4.999 -0.6281  2.0467  0.9608
28517SOL     OW95480  12.512   1.983   7.401  1.0336  0.1814 -0.1571
28517SOL    HW195481  12.593   2.027   7.429  0.7075  0.5577  0.1994
28517SOL    HW295482  12.543   1.908   7.351  1.6090  0.5503 -0.3789
28518SOL     OW95483   2.032  12.174   9.651  0.2194 -0.4950 -0.2230
28518SOL    HW195484   2.047  12.244   9.714 -1.4221 -0.8900  0.6546
28518SOL    HW295485   2.113  12.123   9.653  0.6755  0.2339  0.6090
28519SOL     OW95486   6.891   4.486   3.494 -0.1446  0.2654  0.1818
28519SOL    HW195487   6.863   4.415   3.436 -1.3179  0.5336  0.4096
28519SOL    HW295488   6.810   4.529   3.521  0.1727 -1.0239  3.5747
28520SOL     OW95489   6.462  10.561  13.140 -0.4324  0.8795  0.1990
28520SOL    HW195490   6.532  10.624  13.157 -0.9727  0.8951  2.5677
28520SOL    HW295491   6.465  10.501  13.214 -2.4195  0.3881 -0.0698
28521SOL     OW95492  12.535  12.953  10.413  0.4045  0.0875  0.7977
28521SOL    HW195493  12.574  12.881  10.363  1.2030  1.3843 -0.5259
28521SOL    HW295494  12.526  13.024  10.350 -2.1037  0.5942  1.6063
28522SOL     OW95495   5.787   0.453   2.296 -0.9276 -0.2143  0.0578
28522SOL    HW195496   5.723   0.394   2.258 -0.2400 -0.5341 -0.6137
28522SOL    HW295497   5.806   0.417   2.383  0.1988 -1.5440 -0.7066
28523SOL     OW95498  10.228   5.914  10.390  0.0896 -0.6497 -0.9390
28523SOL    HW195499  10.226   5.921  10.486  0.5572  0.0199 -0.9715
28523SOL    HW295500  10.177   5.989  10.360  0.4498 -0.5242 -1.2288
28524SOL     OW95501   0.534   4.743   6.685 -0.2571  0.6193 -0.1204
28524SOL    HW195502   0.557   4.689   6.760  0.5160 -1.0282 -1.4558
28524SOL    HW295503   0.463   4.695   6.642 -0.5256  1.4008 -0.5704
28525SOL     OW95504  11.699   4.850   2.461 -0.3399  0.0085  0.4842
28525SOL    HW195505  11.703   4.851   2.557  0.5995 -1.4953  0.4866
28525SOL    HW295506  11.788   4.828   2.433 -1.1331 -2.0300 -0.6480
28526SOL     OW95507   5.798   5.949  12.568 -0.7708  0.4844  0.0982
28526SOL    HW195508   5.778   5.942  12.475 -0.9109  0.0195  0.1636
28526SOL    HW295509   5.728   5.901  12.612 -0.4696  0.3366  0.4204
28527SOL     OW95510   7.817   7.436   8.966  0.8540  0.2140  0.3621
28527SOL    HW195511   7.853   7.518   8.934  0.8478 -0.5036 -1.5742
28527SOL    HW295512   7.877   7.409   9.036  1.2561  1.4776  0.5344
28528SOL     OW95513   6.723   0.877  12.863  0.3011  0.4635  0.3870
28528SOL    HW195514   6.718   0.906  12.772  0.6447  1.0736  0.5563
28528SOL    HW295515   6.689   0.787  12.862 -2.1152  1.3192  0.0808
28529SOL     OW95516   9.137   9.305  11.455 -0.6223  0.3248  0.3904
28529SOL    HW195517   9.053   9.259  11.451  0.1184 -0.9611 -1.6313
28529SOL    HW295518   9.182   9.279  11.375  1.1434  2.1161  0.7420
28530SOL     OW95519  10.266   5.531   1.732  0.0707  0.2635  0.0258
28530SOL    HW195520  10.300   5.445   1.757  0.9326  0.7538  0.5569
28530SOL    HW295521  10.208   5.555   1.804  0.5811  0.5479  0.3483
28531SOL     OW95522   3.717  13.068   2.396  0.2719  0.1222  0.0304
28531SOL    HW195523   3.800  13.049   2.352 -0.3266 -0.3037 -0.9306
28531SOL    HW295524   3.662  12.992   2.378 -0.6163  0.7666 -0.0547
28532SOL     OW95525   1.044   8.195  12.923  0.3327 -0.0872  0.1734
28532SOL    HW195526   1.091   8.120  12.960  1.0143  0.9913  1.5790
28532SOL    HW295527   0.968   8.205  12.980 -0.1344 -0.1220 -0.4351
28533SOL     OW95528   4.825   0.639   6.965 -0.2549  0.1827 -0.2175
28533SOL    HW195529   4.814   0.734   6.968  1.0017  0.4303 -2.1115
28533SOL    HW295530   4.889   0.620   7.034 -0.1005  0.7799 -0.1935
28534SOL     OW95531   9.539   7.696   1.090 -0.0490 -0.1947  0.0621
28534SOL    HW195532   9.619   7.652   1.118  0.0843 -0.0338 -0.0653
28534SOL    HW295533   9.471   7.662   1.149  0.6407  2.0180  2.3376
28535SOL     OW95534   1.536   6.134   8.310 -0.1615  0.0950 -0.1208
28535SOL    HW195535   1.582   6.196   8.253 -0.3850  1.1240  0.7826
28535SOL    HW295536   1.445   6.138   8.279 -0.3497  0.9109  0.4980
28536SOL     OW95537   8.322   7.928   7.689  0.5069  0.9635  0.3690
28536SOL    HW195538   8.301   7.848   7.642  1.0718  0.6172  0.6917
28536SOL    HW295539   8.330   7.995   7.621 -0.8275  0.9510  0.1713
28537SOL     OW95540  11.384  12.457  11.337 -0.3669 -0.9105 -0.7308
28537SOL    HW195541  11.340  12.504  11.407  1.0088  1.1057 -1.1240
28537SOL    HW295542  11.351  12.497  11.257  0.5520 -0.8577 -1.0963
28538SOL     OW95543   7.769   3.929  10.407  0.1523 -0.3152 -0.2343
28538SOL    HW195544   7.702   3.880  10.455  0.6386 -1.0449 -0.2810
28538SOL    HW295545   7.837   3.864  10.389  1.5845  0.7221  1.1273
28539SOL     OW95546  12.715   1.037   0.830 -0.6007 -0.1210  0.0304
28539SOL    HW195547  12.727   0.952   0.788  2.9395 -0.1088  0.7625
28539SOL    HW295548  12.670   1.090   0.764  0.7424 -1.4179 -2.0275
28540SOL     OW95549   1.416   5.919   3.764 -0.0161 -0.0876  0.0654
28540SOL    HW195550   1.359   5.852   3.725  1.2560 -1.6187  0.7111
28540SOL    HW295551   1.386   5.926   3.855  0.1005 -0.0590  0.1018
28541SOL     OW95552   8.199   9.356   5.619 -0.3373 -0.0887 -0.0030
28541SOL    HW195553   8.264   9.423   5.595 -0.1812 -1.1420 -2.8815
28541SOL    HW295554   8.251   9.287   5.660 -0.1820  0.5172  0.8643
28542SOL     OW95555   9.331  10.524   3.403  0.6097 -0.0732 -0.0372
28542SOL    HW195556   9.379  10.456   3.356 -0.0421 -1.3182  1.0084
28542SOL    HW295557   9.239  10.504   3.388  0.4044  0.4341  0.4924
28543SOL     OW95558   1.355   2.227  12.019 -0.1603  0.3464 -0.2931
28543SOL    HW195559   1.304   2.260  12.093 -1.4474 -0.0657 -0.9613
28543SOL    HW295560   1.336   2.133  12.017  0.4767  0.2232 -0.6753
28544SOL     OW95561  12.462   9.685   9.579  0.6876  0.1842 -0.6600
28544SOL    HW195562  12.520   9.754   9.610  2.3638 -1.1577 -0.6693
28544SOL    HW295563  12.516   9.605   9.581 -1.2246 -1.1810 -0.4399
28545SOL     OW95564   4.843   4.267   4.804 -0.0352 -0.3887 -0.1658
28545SOL    HW195565   4.853   4.191   4.862 -0.9394 -0.1216  0.3679
28545SOL    HW295566   4.748   4.273   4.790  0.0111  0.7860 -0.0144
28546SOL     OW95567   9.904  10.422   3.491  0.7521  0.0050  0.3236
28546SOL    HW195568   9.971  10.456   3.433  0.1343 -0.2816 -0.5809
28546SOL    HW295569   9.842  10.378   3.433  0.6782 -1.2424  1.2885
28547SOL     OW95570  11.969   4.709   1.530 -0.2250  0.1617 -0.4720
28547SOL    HW195571  11.895   4.651   1.510 -0.9176  1.2703 -1.2391
28547SOL    HW295572  11.962   4.780   1.466 -0.4576  2.0391  1.5061
28548SOL     OW95573   5.106   1.749   6.638  0.2623  0.1182 -0.2212
28548SOL    HW195574   5.123   1.807   6.712  0.0710  0.5310 -0.4964
28548SOL    HW295575   5.168   1.677   6.649  0.2136  0.1598  0.3544
28549SOL     OW95576  12.759  10.134  11.085 -0.5545 -0.4484 -0.0195
28549SOL    HW195577  12.771  10.080  11.007  0.1874  0.7841 -0.7846
28549SOL    HW295578  12.687  10.193  11.063  0.2385  0.5007 -0.1389
28550SOL     OW95579   2.834   0.581   2.952  0.2579 -0.0876 -0.1887
28550SOL    HW195580   2.871   0.520   2.889 -0.7949 -0.8845 -0.0793
28550SOL    HW295581   2.756   0.536   2.986 -1.0698  1.6672 -0.7382
28551SOL     OW95582   3.172   7.107   6.602  0.3836 -0.0556  0.2279
28551SOL    HW195583   3.117   7.184   6.589  1.7289  0.6714 -1.7354
28551SOL    HW295584   3.248   7.139   6.650 -0.1299 -0.7023  1.5061
28552SOL     OW95585   8.057   6.363  11.988  0.3451  0.4614  0.3823
28552SOL    HW195586   8.126   6.318  12.036  0.1945 -0.4500 -0.2376
28552SOL    HW295587   8.007   6.409  12.055  1.4358  1.0040  0.8573
28553SOL     OW95588   9.634   6.768   7.885  0.1025  0.0901  0.2479
28553SOL    HW195589   9.666   6.858   7.882  1.9900 -0.5105  0.8115
28553SOL    HW295590   9.634   6.740   7.793  0.2523  0.4147  0.1475
28554SOL     OW95591  12.660  11.146   5.750 -0.6436 -0.6806  0.3649
28554SOL    HW195592  12.738  11.197   5.727  0.6094 -1.0959  3.2476
28554SOL    HW295593  12.590  11.183   5.696  0.7993  2.1718  0.2729
28555SOL     OW95594   1.327   9.853   8.404 -0.1657 -0.5619 -0.2085
28555SOL    HW195595   1.358   9.933   8.362  1.5685 -1.4302 -0.6697
28555SOL    HW295596   1.234   9.870   8.421  0.2350  1.6650  0.0631
28556SOL     OW95597   0.237   6.913   5.331 -0.1855  0.1411 -0.4754
28556SOL    HW195598   0.322   6.872   5.350 -0.7939 -1.1641 -0.4447
28556SOL    HW295599   0.202   6.862   5.258 -0.5171  1.2982 -1.1368
28557SOL     OW95600  12.381   3.912  10.449 -0.1694 -0.1499 -0.9021
28557SOL    HW195601  12.350   3.827  10.417  0.6338 -0.8438  0.1176
28557SOL    HW295602  12.438   3.945  10.379  0.3804 -0.9644 -0.8525
28558SOL     OW95603   9.270   8.176  12.599  0.1292  0.6479  0.1590
28558SOL    HW195604   9.292   8.116  12.670 -2.1359  0.3035  0.6554
28558SOL    HW295605   9.311   8.138  12.521 -0.6901 -1.1821  0.5890
28559SOL     OW95606   8.703  12.934   7.392 -0.2928 -0.0412  0.1337
28559SOL    HW195607   8.761  12.925   7.316 -0.0814 -2.2113  0.4899
28559SOL    HW295608   8.655  12.851   7.395 -2.1319  0.9921  0.9238
28560SOL     OW95609   6.062   6.932   1.522 -0.1423  0.2367 -0.4193
28560SOL    HW195610   6.061   6.851   1.572  1.1949  0.5710  0.1751
28560SOL    HW295611   5.995   6.918   1.454 -1.6385 -0.4014  1.1227
28561SOL     OW95612  11.809   0.088   4.584  0.3473 -0.0065  0.3313
28561SOL    HW195613  11.776   0.164   4.535  0.3085  0.4501  1.0386
28561SOL    HW295614  11.780   0.012   4.534 -2.7151  0.3053  1.4051
28562SOL     OW95615   7.310   6.283   2.599  0.0397  0.0276 -0.6805
28562SOL    HW195616   7.284   6.346   2.532 -1.1136  0.7770  0.4179
28562SOL    HW295617   7.276   6.319   2.681 -0.3463 -1.8447  0.0498
28563SOL     OW95618  13.184   5.852   9.842  0.3381  0.3135 -0.2389
28563SOL    HW195619  13.114   5.793   9.870  0.2219 -0.4506 -2.0165
28563SOL    HW295620  13.250   5.846   9.910 -1.1928  0.8619  1.3652
28564SOL     OW95621   5.299   8.550  12.421  0.1983  0.4005  0.2912
28564SOL    HW195622   5.252   8.471  12.396  0.4098 -0.4510  2.3604
28564SOL    HW295623   5.254   8.621  12.374 -1.9905 -0.5814  0.7849
28565SOL     OW95624   8.730   4.860   2.994  0.1132  0.3198  0.7026
28565SOL    HW195625   8.698   4.773   3.016  0.9682  0.3543  2.2156
28565SOL    HW295626   8.651   4.915   2.992 -0.1222  0.1071  2.8259
28566SOL     OW95627   5.715   8.100   3.521 -0.2470 -0.5492 -0.0887
28566SOL    HW195628   5.794   8.049   3.504  0.2953  0.3860 -0.4764
28566SOL    HW295629   5.721   8.122   3.614 -0.9570 -1.9322  0.3184
28567SOL     OW95630   5.086  11.006   0.900 -0.1962  0.5419 -0.4929
28567SOL    HW195631   5.109  11.071   0.967 -0.5455 -1.3467  1.5467
28567SOL    HW295632   4.995  10.984   0.917  0.2274 -1.2957 -0.3845
28568SOL     OW95633   3.873   7.755   7.776 -0.2397 -0.2272 -0.0593
28568SOL    HW195634   3.808   7.685   7.773  0.2942 -0.9278  2.5092
28568SOL    HW295635   3.957   7.709   7.773  0.1167  0.2713  1.5516
28569SOL     OW95636  12.864   3.997  12.479 -0.2809 -0.3704  0.0719
28569SOL    HW195637  12.922   4.019  12.552 -0.7290  0.6738  0.1323
28569SOL    HW295638  12.780   3.976  12.521 -1.1380  2.1452 -0.1599
28570SOL     OW95639   9.461  10.965   0.788  0.6174 -0.1629 -0.4305
28570SOL    HW195640   9.405  11.042   0.800  1.6722  0.5013  0.3804
28570SOL    HW295641   9.491  10.972   0.697 -1.8422 -1.4067 -1.4134
28571SOL     OW95642   2.233   9.975   7.610  0.3511 -0.2017  0.8395
28571SOL    HW195643   2.145  10.010   7.605  0.8282  0.9209 -0.2819
28571SOL    HW295644   2.252   9.969   7.704 -0.3656  0.9949  1.0752
28572SOL     OW95645  13.019   5.549   1.862 -0.1907  0.3251  0.5422
28572SOL    HW195646  12.976   5.464   1.867  1.4298 -0.5307  0.5575
28572SOL    HW295647  13.067   5.547   1.779  0.8478  0.7365  1.1253
28573SOL     OW95648  10.819  10.440  10.220  0.0959  0.1433  0.6081
28573SOL    HW195649  10.905  10.478  10.236  0.0595 -0.2819  1.9039
28573SOL    HW295650  10.801  10.386  10.297 -1.3457  0.2579  0.3933
28574SOL     OW95651  12.936   5.138  10.586  0.3536 -0.5889  0.4964
28574SOL    HW195652  12.966   5.054  10.621 -0.2909 -1.3245 -0.6497
28574SOL    HW295653  12.841   5.133  10.590  0.2945 -0.2141 -0.2408
28575SOL     OW95654   3.923   7.422  11.978 -0.3942 -0.0591 -0.1865
28575SOL    HW195655   3.969   7.505  11.986 -1.0521  0.5816 -2.3683
28575SOL    HW295656   3.993   7.358  11.961 -0.0437  0.3620 -0.3417
28576SOL     OW95657  10.702  10.627   5.958 -0.2415  0.4623  0.3972
28576SOL    HW195658  10.758  10.680   5.902  0.0005  0.3272  0.5097
28576SOL    HW295659  10.740  10.540   5.955 -0.2912  0.4292  0.6866
28577SOL     OW95660   1.630   3.835   7.875  0.1235  0.4437 -0.1701
28577SOL    HW195661   1.546   3.851   7.917 -0.6333 -0.0026 -1.4649
28577SOL    HW295662   1.641   3.740   7.878  0.0969  0.4099 -0.8765
28578SOL     OW95663   9.526   0.865   9.642 -0.1648  0.0235 -0.2799
28578SOL    HW195664   9.486   0.865   9.555  0.9879  3.4132 -0.9719
28578SOL    HW295665   9.457   0.838   9.701 -2.7410  2.8403 -1.7245
28579SOL     OW95666   9.795   9.400   2.511  0.0178 -0.1879 -0.4979
28579SOL    HW195667   9.884   9.386   2.543  0.7689  0.4624 -2.1629
28579SOL    HW295668   9.801   9.481   2.460 -1.5828 -0.0345 -0.4813
28580SOL     OW95669   9.184   3.724   2.612  0.1121 -0.5210 -0.1877
28580SOL    HW195670   9.135   3.729   2.694  0.3700  3.5509 -0.0763
28580SOL    HW295671   9.119   3.699   2.546 -1.0840  0.2304  0.6629
28581SOL     OW95672   3.951  13.013   0.323  0.7986  0.1805  0.6212
28581SOL    HW195673   4.008  13.005   0.400  1.0795 -2.1572  0.2255
28581SOL    HW295674   3.866  12.981   0.353  1.3387 -2.4782 -0.4165
28582SOL     OW95675   2.878   0.267   8.887 -0.0069  0.5732  0.2791
28582SOL    HW195676   2.919   0.182   8.907  0.7685  0.4091 -1.7849
28582SOL    HW295677   2.810   0.246   8.824 -0.4126  1.3934  0.4381
28583SOL     OW95678   1.198   8.868   3.687  0.3316 -0.2446 -0.2448
28583SOL    HW195679   1.221   8.897   3.776  2.8946 -0.1975 -0.8546
28583SOL    HW295680   1.223   8.776   3.685  0.2428 -0.2579 -0.9018
28584SOL     OW95681   9.559  10.566  10.001  0.7845 -0.0366 -0.2646
28584SOL    HW195682   9.533  10.499   9.939  0.2519  1.8852 -2.2628
28584SOL    HW295683   9.478  10.612  10.023  1.0362 -0.3651  1.5549
28585SOL     OW95684   6.918  11.083   0.519  0.2321  0.1793 -0.3312
28585SOL    HW195685   6.859  11.050   0.450  0.0012 -0.2173  0.0503
28585SOL    HW295686   6.949  11.167   0.485 -1.3334  0.8768 -0.1117
28586SOL     OW95687   7.624   0.717   8.374 -0.6608  0.3370 -0.6723
28586SOL    HW195688   7.601   0.630   8.339  2.1682 -1.5049  1.5309
28586SOL    HW295689   7.707   0.738   8.331 -1.2837  1.9777 -1.1213
28587SOL     OW95690   5.986   3.737   1.483 -0.0482  0.2388 -0.0445
28587SOL    HW195691   5.894   3.738   1.510 -0.0458  3.1052  0.1786
28587SOL    HW295692   5.983   3.727   1.388 -0.7209  1.7950 -0.2179
28588SOL     OW95693  10.792   5.837   8.205  0.0576 -0.5119 -0.4776
28588SOL    HW195694  10.741   5.757   8.217  0.4976 -1.0314 -1.8757
28588SOL    HW295695  10.883   5.808   8.200  0.3314  0.2072  0.1063
28589SOL     OW95696   3.978   1.094   2.674  1.2869 -0.2997 -0.1217
28589SOL    HW195697   4.051   1.045   2.636  0.7832 -0.8364 -0.4160
28589SOL    HW295698   3.900   1.059   2.631  0.9102  0.7748 -0.3415
28590SOL     OW95699   5.310   0.345   8.611  0.2624 -0.3415  0.1473
28590SOL    HW195700   5.273   0.411   8.553 -2.2506 -1.0996  0.7246
28590SOL    HW295701   5.289   0.262   8.568  0.6037 -0.8297  0.9041
28591SOL     OW95702   3.938  12.233   2.684  0.0210  0.2493  0.4478
28591SOL    HW195703   3.855  12.187   2.671  0.5374 -0.6272  0.2036
28591SOL    HW295704   3.998  12.166   2.717  0.8678  0.6621 -0.2145
28592SOL     OW95705  11.076   1.653   2.583 -0.0421 -0.6094  0.1220
28592SOL    HW195706  11.022   1.604   2.520 -1.1539 -0.2927  0.8038
28592SOL    HW295707  11.141   1.590   2.612  1.3408 -0.4180 -2.2950
28593SOL     OW95708   8.346  12.230   2.355  0.0323  0.5849  0.7456
28593SOL    HW195709   8.260  12.229   2.312  0.3188 -2.0482  0.0359
28593SOL    HW295710   8.326  12.231   2.448 -0.6750  2.6092  0.6175
28594SOL     OW95711   9.150   9.417   1.454 -0.3991 -0.6114 -0.0834
28594SOL    HW195712   9.173   9.499   1.409  0.7082  0.0468  1.5545
28594SOL    HW295713   9.100   9.446   1.531  1.4003 -1.2699  1.4106
28595SOL     OW95714   4.875   8.430   6.403 -0.2702  0.0391 -0.3150
28595SOL    HW195715   4.892   8.365   6.335 -2.2726 -0.9574  0.0759
28595SOL    HW295716   4.912   8.392   6.482 -1.6772 -0.8249 -0.0294
28596SOL     OW95717   3.988   0.724  11.430  1.2094  0.0054 -0.2487
28596SOL    HW195718   3.962   0.759  11.345  0.0499  1.9012  0.8220
28596SOL    HW295719   3.915   0.667  11.455  1.2944 -0.1188 -0.2836
28597SOL     OW95720   7.353   9.637   5.593 -0.5907 -0.1136  0.1139
28597SOL    HW195721   7.273   9.690   5.599 -0.9085 -0.7171  1.4344
28597SOL    HW295722   7.342   9.569   5.659 -0.0198 -1.6221 -1.2783
28598SOL     OW95723   9.448   7.189   8.314  0.2345  0.3301 -0.7086
28598SOL    HW195724   9.405   7.115   8.272  0.3196 -1.8885  2.7433
28598SOL    HW295725   9.400   7.266   8.281 -0.6968 -1.2709 -3.4369
28599SOL     OW95726   3.821  11.240   6.472  0.5223 -0.1453 -0.6262
28599SOL    HW195727   3.813  11.333   6.492  1.0560 -0.4707  1.2669
28599SOL    HW295728   3.907  11.215   6.505 -0.3234 -1.6867  0.5680
28600SOL     OW95729   1.282   6.803   4.358  0.0880  0.1494  0.0953
28600SOL    HW195730   1.329   6.732   4.313 -3.1478 -2.0482 -0.2038
28600SOL    HW295731   1.334   6.821   4.436  0.8915 -2.9200  0.3945
28601SOL     OW95732   1.362   0.561   0.112 -0.3694  0.7292  0.6183
28601SOL    HW195733   1.330   0.647   0.138  0.3614  1.3507 -0.4546
28601SOL    HW295734   1.429   0.539   0.176 -0.8412  0.7539  1.1322
28602SOL     OW95735   7.928  10.116   8.256 -0.1213  0.2491 -0.5633
28602SOL    HW195736   8.011  10.085   8.220 -0.3750 -0.1746 -0.7920
28602SOL    HW295737   7.947  10.203   8.290  1.3631 -1.2161  2.7781
28603SOL     OW95738   9.468   8.680   7.115  0.0068  0.3801  0.1270
28603SOL    HW195739   9.516   8.627   7.178  0.0210  0.4330  0.1599
28603SOL    HW295740   9.461   8.624   7.037  0.5172  0.5415 -0.0386
28604SOL     OW95741   2.850  11.239   0.770  0.1725  0.3750 -0.1693
28604SOL    HW195742   2.872  11.328   0.744  0.1311  0.3255 -0.3746
28604SOL    HW295743   2.755  11.240   0.782 -0.1393 -0.1669 -2.2639
28605SOL     OW95744   2.302   6.528   3.112  0.5678 -0.1994  0.4194
28605SOL    HW195745   2.361   6.452   3.112  0.7145 -0.0875  0.3523
28605SOL    HW295746   2.354   6.598   3.074  0.9926  0.3613  1.9307
28606SOL     OW95747   4.587   3.254   3.803 -0.2215  0.5503 -1.0244
28606SOL    HW195748   4.594   3.159   3.819  0.3800  0.8501  0.7616
28606SOL    HW295749   4.670   3.289   3.835 -0.9449  1.8174 -0.5013
28607SOL     OW95750   7.775  10.348   5.113 -0.0125  0.0933  0.3252
28607SOL    HW195751   7.858  10.307   5.138  0.0765 -0.9405 -1.5475
28607SOL    HW295752   7.713  10.320   5.180  1.2064  1.3086  2.0605
28608SOL     OW95753   8.439   6.335  13.043 -0.4192  0.3134  0.4046
28608SOL    HW195754   8.355   6.351  13.086 -1.6662  0.8915 -2.0394
28608SOL    HW295755   8.447   6.240  13.039 -1.0507  0.2548  0.4844
28609SOL     OW95756   5.557   9.941  12.342  0.5021  0.1601 -0.2397
28609SOL    HW195757   5.624  10.002  12.314  0.3078  0.3529 -0.2911
28609SOL    HW295758   5.587   9.909  12.427  1.1302 -0.4875 -0.7007
28610SOL     OW95759  12.325   9.130  13.020  0.6022  0.1676  0.0037
28610SOL    HW195760  12.348   9.174  12.939  3.1582 -3.4488 -1.5315
28610SOL    HW295761  12.266   9.059  12.993  1.3525 -0.9994  1.2474
28611SOL     OW95762   5.374   2.468   6.452 -0.5850 -0.4408  0.6714
28611SOL    HW195763   5.408   2.480   6.364  2.2362  1.8677  1.8754
28611SOL    HW295764   5.402   2.380   6.477  1.8586  0.1715  0.4072
28612SOL     OW95765   1.137  11.469  10.185 -0.2516  0.5163 -0.0435
28612SOL    HW195766   1.094  11.513  10.111 -0.7097  0.8933  0.4377
28612SOL    HW295767   1.065  11.429  10.234 -0.0430  1.0025  0.6743
28613SOL     OW95768  12.228  12.148   0.791  0.1901  0.3039 -0.1878
28613SOL    HW195769  12.155  12.184   0.842  0.4063 -0.1135  0.4171
28613SOL    HW295770  12.306  12.167   0.843  0.4516  0.1544 -0.5180
28614SOL     OW95771  11.450  12.389   5.587 -0.3680  0.7650  0.5064
28614SOL    HW195772  11.372  12.440   5.610 -1.1520 -0.4343  0.6504
28614SOL    HW295773  11.423  12.298   5.600  0.6690  0.2578 -0.6634
28615SOL     OW95774  11.375   2.204   2.842 -0.3116 -0.3301  0.4725
28615SOL    HW195775  11.416   2.189   2.757 -0.1445 -1.0760  0.6803
28615SOL    HW295776  11.292   2.247   2.821 -0.8428 -1.6067 -0.1592
28616SOL     OW95777   6.520  12.288   4.156 -0.5154 -0.1359  0.1977
28616SOL    HW195778   6.521  12.316   4.247  1.3221  0.0211  0.1805
28616SOL    HW295779   6.568  12.206   4.155 -2.4169 -1.3000 -0.3462
28617SOL     OW95780   0.831  13.249   3.287 -0.2606  0.3109  0.2159
28617SOL    HW195781   0.919  13.247   3.250 -0.5570 -0.4158 -0.4619
28617SOL    HW295782   0.791  13.326   3.248  0.2980  1.0725  1.0871
28618SOL     OW95783   3.961  10.341   0.670 -0.3312 -0.2291  0.2723
28618SOL    HW195784   3.949  10.431   0.702  1.2119  0.2082 -0.2924
28618SOL    HW295785   3.984  10.291   0.749  1.1479  0.3703  0.2467
28619SOL     OW95786  10.930   2.278   8.441 -0.3957 -0.1693 -0.3983
28619SOL    HW195787  10.909   2.346   8.377 -0.8749 -0.6885 -0.8068
28619SOL    HW295788  10.846   2.235   8.459 -0.0789 -0.7442 -0.2623
28620SOL     OW95789  11.454   9.230   2.696  0.1289 -0.2612 -0.2304
28620SOL    HW195790  11.365   9.235   2.662  0.2123 -1.1428 -0.6070
28620SOL    HW295791  11.479   9.138   2.685  1.5823  0.2303 -1.4748
28621SOL     OW95792   0.594   6.387   5.274 -0.5036  0.0769 -0.1108
28621SOL    HW195793   0.646   6.327   5.220  0.3722  1.2681 -0.6477
28621SOL    HW295794   0.540   6.435   5.211 -1.8028 -0.6944  0.3866
28622SOL     OW95795   4.229   3.684   9.944  0.1019  0.3190  0.0927
28622SOL    HW195796   4.260   3.773   9.929 -3.9820  1.7665 -1.1988
28622SOL    HW295797   4.214   3.679  10.038  0.2060  1.0491  0.1519
28623SOL     OW95798  13.100   3.563  10.743  0.1082 -0.2188 -0.4856
28623SOL    HW195799  13.016   3.542  10.703  0.3928 -0.6346 -0.8807
28623SOL    HW295800  13.138   3.628  10.683  0.8107 -1.3109 -1.2529
28624SOL     OW95801   2.021   8.361   2.033 -0.3802 -0.2718 -0.3321
28624SOL    HW195802   1.981   8.307   2.101 -0.6026 -0.6087 -0.7375
28624SOL    HW295803   1.977   8.337   1.952 -0.5802  0.6069 -0.5021
28625SOL     OW95804   4.639  10.557  12.804  0.1011 -0.7373 -0.0768
28625SOL    HW195805   4.589  10.526  12.880  0.6082  1.0761  1.0668
28625SOL    HW295806   4.658  10.649  12.824  0.2530 -0.1956 -2.4177
28626SOL     OW95807   2.257  11.404  12.476 -0.3347 -0.4057 -0.0133
28626SOL    HW195808   2.186  11.461  12.506  0.3781  0.8230 -0.5925
28626SOL    HW295809   2.311  11.460  12.421  0.5829 -1.5681 -0.3318
28627SOL     OW95810   6.595   6.274   2.815 -0.2184  0.2870 -0.1917
28627SOL    HW195811   6.594   6.343   2.748  3.1756 -1.5210 -2.4020
28627SOL    HW295812   6.582   6.193   2.765 -1.3151 -0.9203  1.9380
28628SOL     OW95813   3.885   1.268   1.230 -0.1429 -0.6656 -0.0212
28628SOL    HW195814   3.893   1.198   1.295 -0.6751 -1.1893 -0.5017
28628SOL    HW295815   3.885   1.349   1.281 -1.1447 -1.0898  0.6880
28629SOL     OW95816  12.526   4.111  11.381  0.1144  0.5152 -0.6480
28629SOL    HW195817  12.617   4.084  11.372 -0.4652 -2.0318  0.1647
28629SOL    HW295818  12.512   4.175  11.311  2.8033  1.8957 -0.0365
28630SOL     OW95819   3.400  10.351   9.749  0.2036  0.9136 -0.0435
28630SOL    HW195820   3.308  10.360   9.773  0.3367 -1.4751  1.7480
28630SOL    HW295821   3.412  10.412   9.676 -3.1094  0.3984 -1.2124
28631SOL     OW95822  10.981   0.309   8.959 -0.0232 -0.1174 -0.7466
28631SOL    HW195823  10.886   0.321   8.970  0.1578  0.0693  0.7376
28631SOL    HW295824  10.988   0.244   8.888 -1.2540 -0.1928 -0.8325
28632SOL     OW95825   8.801   0.709   1.716 -0.5127  0.0621  0.2367
28632SOL    HW195826   8.746   0.781   1.683 -0.3126 -0.2822 -0.8774
28632SOL    HW295827   8.889   0.747   1.722 -0.3137 -0.2044 -0.8058
28633SOL     OW95828   7.844   1.748  11.184  0.5379 -0.4056 -0.1051
28633SOL    HW195829   7.922   1.776  11.135 -0.2983  2.9849  0.2565
28633SOL    HW295830   7.878   1.689  11.251  2.7756  0.6247 -0.2444
28634SOL     OW95831   4.646   1.766   0.018  0.0038  0.0804  0.1906
28634SOL    HW195832   4.683   1.811   0.094  1.0842 -0.9018  0.2773
28634SOL    HW295833   4.709   1.697  -0.002 -2.2089 -2.3292  0.9431
28635SOL     OW95834   1.278   3.609  10.795  0.3323 -0.0417 -0.1338
28635SOL    HW195835   1.235   3.525  10.778  1.9587 -0.8318 -0.4646
28635SOL    HW295836   1.333   3.625  10.719  0.4520  1.0814  0.1624
28636SOL     OW95837  12.509   9.224   4.326  0.8032 -0.2013 -0.1287
28636SOL    HW195838  12.553   9.199   4.245 -0.1212  1.6035 -1.2690
28636SOL    HW295839  12.566   9.290   4.365  0.6804 -0.2243  0.0908
28637SOL     OW95840  10.411   0.785   6.487  0.0508 -0.2206  0.1653
28637SOL    HW195841  10.420   0.856   6.551 -0.6752  0.2541 -0.2349
28637SOL    HW295842  10.317   0.764   6.488  0.1220 -0.5788 -0.3445
28638SOL     OW95843   3.697   4.734  13.303  0.2003  0.2625 -0.3975
28638SOL    HW195844   3.757   4.663  13.281  0.5362 -0.2116  1.7931
28638SOL    HW295845   3.746   4.814  13.282  1.3992 -0.1270  0.7454
28639SOL     OW95846  10.436   3.043   7.653  0.5205  0.2950  0.1462
28639SOL    HW195847  10.382   2.970   7.624  0.5702  0.1379  0.4487
28639SOL    HW295848  10.491   3.064   7.577 -0.3449  0.8232 -0.3519
28640SOL     OW95849   3.233   4.816  13.069  0.3392 -0.0833  0.2987
28640SOL    HW195850   3.308   4.761  13.047  1.3984  1.2659  0.4168
28640SOL    HW295851   3.179   4.761  13.127  1.2087 -1.0848  0.1920
28641SOL     OW95852   5.926   4.091   4.366  0.5935  0.0901  0.0603
28641SOL    HW195853   5.864   4.159   4.393  0.5296  0.6482 -1.3922
28641SOL    HW295854   5.873   4.029   4.315  0.7035 -0.9262  1.1587
28642SOL     OW95855  12.298   6.434  10.357 -0.3470 -0.0612  0.3760
28642SOL    HW195856  12.314   6.505  10.419 -1.1901 -1.5648  2.4483
28642SOL    HW295857  12.381   6.423  10.311 -0.1764  2.1812 -0.0087
28643SOL     OW95858   4.525   8.847   4.245  0.4335 -0.0231  0.2149
28643SOL    HW195859   4.488   8.935   4.246  2.4962  0.9396 -0.9186
28643SOL    HW295860   4.457   8.793   4.205  0.1857  1.6785 -1.8760
28644SOL     OW95861   7.266  10.333   7.496  0.2242 -0.3208  0.1938
28644SOL    HW195862   7.193  10.395   7.488  0.1403 -0.5676 -1.3225
28644SOL    HW295863   7.223  10.247   7.502  0.3483 -0.2795  1.8898
28645SOL     OW95864  13.118   9.902  12.956  0.4971 -0.1763  0.5596
28645SOL    HW195865  13.052   9.836  12.937  0.5290 -0.2945  0.8602
28645SOL    HW295866  13.173   9.904  12.878  0.2108 -0.1633  0.3569
28646SOL     OW95867   0.056   3.690   5.815 -0.1800  0.2334 -0.1268
28646SOL    HW195868   0.075   3.697   5.722  0.4165  1.8184  0.0696
28646SOL    HW295869   0.099   3.767   5.853  0.3776 -0.8607  1.5797
28647SOL     OW95870   3.397   6.209   1.129  0.1262  0.5480 -0.5913
28647SOL    HW195871   3.423   6.295   1.097  3.6863  0.7861  2.2517
28647SOL    HW295872   3.421   6.149   1.059  0.3338  1.6376 -1.4827
28648SOL     OW95873   1.043   2.501   7.476  0.6043 -0.2209 -0.0036
28648SOL    HW195874   0.982   2.477   7.546 -0.3375  0.9531 -0.3895
28648SOL    HW295875   1.049   2.596   7.481  1.3453 -0.2065 -0.8648
28649SOL     OW95876  11.249   6.622   2.493  0.8084  0.1179  0.5831
28649SOL    HW195877  11.192   6.555   2.454  1.1152 -1.5418  2.8440
28649SOL    HW295878  11.190   6.694   2.512  0.0199 -0.4132  0.2394
28650SOL     OW95879   6.871   0.379  10.332  0.0585  0.1679 -0.0614
28650SOL    HW195880   6.965   0.381  10.316  0.2440 -1.3606  0.6667
28650SOL    HW295881   6.860   0.323  10.409 -1.3497  1.4199  0.7001
28651SOL     OW95882   3.743  13.090   0.976  0.0532  0.4164 -0.4173
28651SOL    HW195883   3.700  13.004   0.971  1.8730 -0.5102 -1.4261
28651SOL    HW295884   3.792  13.087   1.058  2.3635 -0.7231 -1.7427
28652SOL     OW95885   0.432   2.591   3.194 -0.5481 -0.2535 -0.6121
28652SOL    HW195886   0.495   2.661   3.214 -0.4113  0.0628 -2.0610
28652SOL    HW295887   0.486   2.513   3.181 -0.6380 -0.4590  0.1689
28653SOL     OW95888   5.484   8.216   0.916 -0.1747 -0.0704 -0.2236
28653SOL    HW195889   5.523   8.235   1.001 -0.1031  0.5274 -0.3825
28653SOL    HW295890   5.401   8.264   0.917  0.2066  0.6156 -0.8018
28654SOL     OW95891   0.953   2.372  12.150  0.0782 -0.0444 -0.1080
28654SOL    HW195892   0.965   2.375  12.055 -1.0728  1.1721 -0.2548
28654SOL    HW295893   0.862   2.399  12.163 -0.1597 -1.3749  1.2809
28655SOL     OW95894  10.638   1.854   9.932  0.3446  0.2127  0.1682
28655SOL    HW195895  10.569   1.852   9.865 -0.1002  0.9429  0.5927
28655SOL    HW295896  10.672   1.944   9.929  0.5181  0.1690  0.7309
28656SOL     OW95897  12.458   2.619   2.298  0.1696  0.1007  0.7304
28656SOL    HW195898  12.366   2.622   2.325 -0.6792 -1.0141 -1.7467
28656SOL    HW295899  12.497   2.550   2.350 -1.3433 -1.8362 -0.5690
28657SOL     OW95900  13.277   3.113  13.126  0.2741 -0.1644 -0.1128
28657SOL    HW195901  13.294   3.020  13.115  1.9978  0.1453 -0.3718
28657SOL    HW295902  13.259   3.145  13.037 -1.0769 -0.3532  0.0671
28658SOL     OW95903   6.580   0.308   6.693  0.4372 -0.2928 -0.0662
28658SOL    HW195904   6.635   0.382   6.668  0.3443 -0.2865 -0.2584
28658SOL    HW295905   6.502   0.317   6.637 -0.6233  0.7784  1.5074
28659SOL     OW95906   8.616   3.201   3.829 -0.2589  0.1787 -0.2119
28659SOL    HW195907   8.661   3.163   3.905 -0.8756  1.9297  1.0854
28659SOL    HW295908   8.679   3.262   3.791 -0.0812 -0.4330 -0.9442
28660SOL     OW95909   8.564   9.287   3.133 -0.0839  0.1843  0.3301
28660SOL    HW195910   8.616   9.255   3.207 -0.1676 -1.6091 -0.3386
28660SOL    HW295911   8.478   9.249   3.146 -0.4650  0.9114 -0.0173
28661SOL     OW95912   7.029   3.498   7.893 -0.2890 -0.5132 -0.2651
28661SOL    HW195913   7.084   3.436   7.846  0.9222 -0.6806  1.2920
28661SOL    HW295914   7.090   3.559   7.934 -1.2896 -0.2054  0.8288
28662SOL     OW95915   3.433   7.490   6.226 -0.0397  0.3190  0.5177
28662SOL    HW195916   3.386   7.429   6.283 -1.1743  0.3490 -0.3561
28662SOL    HW295917   3.409   7.465   6.137 -0.3622  1.8697  0.1275
28663SOL     OW95918   9.432  12.194   1.850  0.5196  0.6191  0.1456
28663SOL    HW195919   9.444  12.244   1.931  0.4321  2.2793 -0.8203
28663SOL    HW295920   9.352  12.230   1.812  1.8222  1.6034 -1.8433
28664SOL     OW95921  12.157   2.617   3.957  0.0229  0.2997  0.5333
28664SOL    HW195922  12.144   2.598   4.050  0.6674  1.2198  0.8294
28664SOL    HW295923  12.252   2.614   3.945 -0.0694 -0.0792 -0.1604
28665SOL     OW95924   4.532   3.416   0.989 -0.5849 -0.1442  0.0685
28665SOL    HW195925   4.444   3.380   0.975 -1.2682  1.4832 -0.0595
28665SOL    HW295926   4.540   3.423   1.084 -0.9323  0.4895  0.0523
28666SOL     OW95927   1.471   4.581   8.608  0.2188 -0.8016 -0.9017
28666SOL    HW195928   1.549   4.566   8.554 -0.5477 -3.1636 -1.5186
28666SOL    HW295929   1.398   4.573   8.546 -0.5533  0.2937 -0.1540
28667SOL     OW95930   3.511   9.126   8.672 -0.1030 -0.0212  0.0902
28667SOL    HW195931   3.478   9.160   8.755 -0.0343 -0.5324  0.3293
28667SOL    HW295932   3.492   9.195   8.609 -0.7583  0.0915  0.4022
28668SOL     OW95933  10.063  10.684   2.945 -0.5601  0.2330  0.3861
28668SOL    HW195934  10.068  10.598   2.988  0.2380 -0.5573 -1.1808
28668SOL    HW295935   9.969  10.704   2.942 -0.6730  0.0163  1.8667
28669SOL     OW95936   1.127  10.321   5.821 -0.1154 -0.0638  0.8576
28669SOL    HW195937   1.181  10.291   5.748 -0.1033 -0.1561  0.9038
28669SOL    HW295938   1.074  10.245   5.844 -1.0653  0.3522  0.0923
28670SOL     OW95939  12.013  12.676  10.973 -0.0831 -0.3107  0.1828
28670SOL    HW195940  11.968  12.742  11.026 -0.9589  0.8019 -1.8696
28670SOL    HW295941  11.957  12.598  10.980 -1.0890  0.3324 -0.3930
28671SOL     OW95942   2.933   9.141   2.571  0.5196 -0.5447  0.1750
28671SOL    HW195943   2.884   9.222   2.567 -1.0520 -1.4769 -0.2995
28671SOL    HW295944   2.885   9.086   2.633  1.3599 -1.2354  0.2439
28672SOL     OW95945   1.066   9.326   1.695  0.2295 -0.1857 -0.3768
28672SOL    HW195946   1.148   9.349   1.738  0.0130  0.4346 -0.2836
28672SOL    HW295947   1.041   9.242   1.734  0.6336 -0.1977 -0.1429
28673SOL     OW95948   3.314  10.207   3.741 -0.4577  0.5271 -0.0580
28673SOL    HW195949   3.285  10.225   3.651 -1.3134  0.6806  0.2348
28673SOL    HW295950   3.233  10.206   3.792  0.0753  1.1270  0.8305
28674SOL     OW95951  11.538   0.255   5.054  0.0014  0.0322  0.0124
28674SOL    HW195952  11.588   0.299   5.123 -0.1526 -0.6954  0.5970
28674SOL    HW295953  11.589   0.271   4.974  1.7423 -1.5191  0.7402
28675SOL     OW95954   1.816  11.336   8.869  0.2657  0.4645  0.2216
28675SOL    HW195955   1.860  11.284   8.937  3.2798  0.8289 -1.2846
28675SOL    HW295956   1.811  11.277   8.793  0.4383  1.2272 -0.4002
28676SOL     OW95957   2.051   4.074   3.715 -0.0953  0.1489 -0.2762
28676SOL    HW195958   2.029   4.018   3.789  3.6157 -0.5867  0.4783
28676SOL    HW295959   2.022   4.025   3.638  0.6352 -1.6057  0.5092
28677SOL     OW95960   8.542   4.980  13.009 -0.2116 -0.4388  0.1947
28677SOL    HW195961   8.583   4.896  12.987  2.1113 -0.0658  2.5351
28677SOL    HW295962   8.571   5.040  12.941  1.2975 -0.7294  0.5476
28678SOL     OW95963   2.672  10.349  13.228 -0.2885 -0.0048 -0.2613
28678SOL    HW195964   2.733  10.417  13.199  0.2423 -0.9390 -1.3880
28678SOL    HW295965   2.710  10.316  13.310  0.2372  0.0406 -0.4832
28679SOL     OW95966   2.553   7.532   6.022 -0.4532 -0.1859  0.1647
28679SOL    HW195967   2.557   7.458   6.083  1.4799 -0.7815 -0.5985
28679SOL    HW295968   2.566   7.493   5.936 -0.9788  0.8871 -0.4246
28680SOL     OW95969   7.368   4.277   3.227 -0.3613 -0.3570 -0.5180
28680SOL    HW195970   7.334   4.201   3.275  1.1486 -0.6246  0.2024
28680SOL    HW295971   7.399   4.337   3.295 -2.5441  1.4680 -1.0252
28681SOL     OW95972   0.390  12.071   6.199 -0.7836 -0.2553 -0.4130
28681SOL    HW195973   0.463  12.132   6.190 -0.0004 -1.0301  0.5296
28681SOL    HW295974   0.317  12.115   6.155 -0.3493  1.5158  0.5318
28682SOL     OW95975   3.839   9.872   8.015  0.1597  0.0181 -0.1467
28682SOL    HW195976   3.882   9.951   7.983  0.8798 -0.8347 -1.3643
28682SOL    HW295977   3.908   9.807   8.021 -0.7824 -1.2025 -1.5452
28683SOL     OW95978   3.466   2.287   1.456  0.0893 -0.5025  0.7505
28683SOL    HW195979   3.381   2.315   1.489  0.3102  1.7457 -0.4081
28683SOL    HW295980   3.513   2.368   1.437  1.1763 -1.6084 -1.8880
28684SOL     OW95981   3.328  10.281   9.213 -0.2088 -0.0064  0.6479
28684SOL    HW195982   3.407  10.233   9.236 -0.4884 -0.3987  0.8007
28684SOL    HW295983   3.281  10.222   9.154 -0.8032 -0.1406  1.2423
28685SOL     OW95984   2.026   1.978   4.503  0.0279  0.0552  0.2421
28685SOL    HW195985   1.947   1.931   4.532 -0.4321  0.5069 -0.2610
28685SOL    HW295986   2.091   1.960   4.571 -0.2051 -1.1347  0.1673
28686SOL     OW95987   9.901   0.008   5.766  0.0000 -0.4215 -0.1042
28686SOL    HW195988   9.928   0.012   5.858  0.0592 -0.8648 -0.1000
28686SOL    HW295989   9.811  -0.021   5.769 -0.1554  0.0380 -0.1695
28687SOL     OW95990   4.907  11.339  12.526 -0.3022  0.2460  0.4156
28687SOL    HW195991   5.002  11.335  12.533 -0.1605 -0.5972 -1.4783
28687SOL    HW295992   4.886  11.432  12.538  0.6203  0.3060  1.8540
28688SOL     OW95993   7.594   1.156  11.776 -0.7484 -0.3218 -0.2771
28688SOL    HW195994   7.571   1.213  11.703  0.3438 -1.6438 -1.7276
28688SOL    HW295995   7.518   1.158  11.833 -0.9210  2.2128 -0.4742
28689SOL     OW95996   1.810   0.381   5.837 -0.0992  0.3569  0.4786
28689SOL    HW195997   1.757   0.341   5.905 -0.3064 -0.9693 -0.4390
28689SOL    HW295998   1.894   0.336   5.842  0.1253  0.7490  0.3204
28690SOL     OW95999   8.936   4.787   3.375 -0.7449 -0.0807  0.3196
28690SOL    HW196000   8.873   4.850   3.339 -0.0731  0.7668  0.5945
28690SOL    HW296001   8.988   4.838   3.437 -0.9667 -1.1941  1.4441
28691SOL     OW96002   4.225   5.469  13.011 -0.0695  0.0557  0.1720
28691SOL    HW196003   4.252   5.394  12.958 -0.4427  0.7300 -0.9866
28691SOL    HW296004   4.293   5.535  12.996 -0.5816  0.5290 -0.0746
28692SOL     OW96005   1.680   6.857   9.857  0.0087  0.5475  0.2789
28692SOL    HW196006   1.638   6.865   9.771  0.9204  0.6074 -0.1838
28692SOL    HW296007   1.706   6.946   9.880  2.1718  0.2408 -0.6789
28693SOL     OW96008   0.387   8.511   0.830 -0.3027  0.1025 -0.1911
28693SOL    HW196009   0.394   8.472   0.917  1.1246  0.7935  0.0251
28693SOL    HW296010   0.319   8.459   0.786 -0.0160 -1.1858  0.8301
28694SOL     OW96011   8.386  10.646   5.537  0.1684  0.0856  0.4424
28694SOL    HW196012   8.369  10.640   5.631  1.9210 -2.1675  0.7349
28694SOL    HW296013   8.303  10.623   5.495 -0.2800 -0.2619  1.4959
28695SOL     OW96014   8.206   4.874  10.802 -0.0841 -0.1138  0.0342
28695SOL    HW196015   8.209   4.951  10.744  1.0191  0.5653  0.9541
28695SOL    HW296016   8.113   4.863  10.822 -0.3044  0.7208 -0.4536
28696SOL     OW96017   5.995  12.132  11.375 -0.4670  0.2563 -0.2900
28696SOL    HW196018   6.006  12.065  11.443 -0.2096 -0.0907 -0.6643
28696SOL    HW296019   6.076  12.126  11.323 -0.1500  1.3100  0.0598
28697SOL     OW96020   9.137   9.586  10.171  0.5833 -0.5443 -0.2466
28697SOL    HW196021   9.172   9.666  10.130  2.2210 -1.3180 -0.4233
28697SOL    HW296022   9.185   9.579  10.253 -0.5496 -0.6372  0.4364
28698SOL     OW96023   9.654   3.837   3.446 -0.4260 -0.5825  0.3562
28698SOL    HW196024   9.654   3.780   3.522 -2.2245  0.3795  1.1394
28698SOL    HW296025   9.570   3.819   3.403 -0.5710  0.7085  0.0641
28699SOL     OW96026   1.626  12.024   9.346 -0.3991 -0.3483  0.3877
28699SOL    HW196027   1.663  12.074   9.419 -2.6077 -0.9300  2.0159
28699SOL    HW296028   1.626  11.933   9.376  2.8291 -1.4382 -2.2179
28700SOL     OW96029   9.115  11.557   4.277  0.1446 -0.2979  0.6866
28700SOL    HW196030   9.168  11.477   4.271  2.5121  1.2545 -0.5732
28700SOL    HW296031   9.166  11.615   4.333 -1.1203  0.6652  0.8769
28701SOL     OW96032   2.915  13.094   1.270  0.1061 -0.2572  0.5073
28701SOL    HW196033   2.854  13.150   1.317  2.0347  1.4662  1.1328
28701SOL    HW296034   2.976  13.156   1.228  0.7741 -1.8468 -1.0036
28702SOL     OW96035  12.830  12.362   5.189 -0.2618  0.0771 -0.4982
28702SOL    HW196036  12.797  12.376   5.278  0.0104  1.3659 -0.5788
28702SOL    HW296037  12.849  12.450   5.156  0.3121 -0.4267 -1.5806
28703SOL     OW96038   4.105   0.554   0.550  0.1375 -0.4319 -0.4252
28703SOL    HW196039   4.036   0.560   0.484  0.3200 -1.7434 -0.7648
28703SOL    HW296040   4.072   0.488   0.612 -1.4958  2.9446  2.6434
28704SOL     OW96041   1.080   5.232   0.104 -0.2177  0.0453 -0.2747
28704SOL    HW196042   1.122   5.151   0.135  0.7430 -0.1980 -2.0716
28704SOL    HW296043   0.993   5.230   0.144 -0.0810 -1.6825  0.0385
28705SOL     OW96044   5.115   5.640   5.672 -0.3805  0.6937  0.2269
28705SOL    HW196045   5.073   5.692   5.604 -1.2489 -0.4767 -0.1703
28705SOL    HW296046   5.197   5.610   5.632 -0.4846  0.7087  0.0013
28706SOL     OW96047   6.353   2.167  11.136 -0.3621 -0.3705  0.1674
28706SOL    HW196048   6.346   2.077  11.166 -0.6393  0.2937  2.3050
28706SOL    HW296049   6.264   2.191  11.110 -0.2222 -0.8028 -0.7292
28707SOL     OW96050   6.192  10.942   0.159  0.0113 -0.1445 -0.2658
28707SOL    HW196051   6.203  11.034   0.182  1.2703 -0.6037  1.1189
28707SOL    HW296052   6.097  10.929   0.158 -0.1725  1.0358  0.0297
28708SOL     OW96053   6.585   8.547   0.788 -0.9800  0.9159  0.4605
28708SOL    HW196054   6.551   8.473   0.839 -1.3804 -0.2069 -1.3371
28708SOL    HW296055   6.680   8.533   0.787 -1.1415 -0.3975 -0.9688
28709SOL     OW96056   6.853  10.632   7.592  0.3068  0.1262 -0.0756
28709SOL    HW196057   6.837  10.661   7.682  0.2067 -0.2526  0.0321
28709SOL    HW296058   6.909  10.699   7.554 -1.2825  1.3538 -0.3715
28710SOL     OW96059   6.956   3.182   9.820  0.0042 -0.2953 -0.1808
28710SOL    HW196060   6.918   3.269   9.807  0.0323 -0.1264  0.7524
28710SOL    HW296061   7.046   3.200   9.849  0.6978 -0.6795 -1.9705
28711SOL     OW96062   5.604  11.821  10.043  0.0468  0.5265 -0.7807
28711SOL    HW196063   5.686  11.784  10.074  0.3188  0.8165 -1.1555
28711SOL    HW296064   5.601  11.799   9.950 -1.3660 -1.4629 -0.3422
28712SOL     OW96065   1.307   9.589   8.983  0.0754 -0.4881  0.5899
28712SOL    HW196066   1.356   9.651   8.930  0.1827  1.3485  2.7295
28712SOL    HW296067   1.363   9.511   8.987  0.3033 -0.4873 -1.4434
28713SOL     OW96068   9.515  10.762   6.604 -0.0365  0.7675  0.0577
28713SOL    HW196069   9.584  10.706   6.568 -1.1892  0.3663 -1.6772
28713SOL    HW296070   9.504  10.832   6.539 -0.2086  1.7077  1.0703
28714SOL     OW96071   2.558   8.018   7.733 -0.2798  0.2970  0.9839
28714SOL    HW196072   2.499   7.949   7.763  0.4748 -1.0341 -0.3863
28714SOL    HW296073   2.643   7.996   7.773  0.3870 -0.6625 -0.8234
28715SOL     OW96074   5.840   7.708   6.775  0.0968 -0.2888 -0.4841
28715SOL    HW196075   5.920   7.657   6.785  0.3903  0.6223  2.6731
28715SOL    HW296076   5.769   7.647   6.797  0.0671 -0.5217 -1.1998
28716SOL     OW96077   8.769   0.767   5.459  0.4036  0.5224 -0.1992
28716SOL    HW196078   8.806   0.854   5.470 -0.5126  0.7886  1.0371
28716SOL    HW296079   8.798   0.739   5.372  0.2702  2.2704 -0.8433
28717SOL     OW96080   1.264  11.582   2.813  0.4542  0.1810 -0.5414
28717SOL    HW196081   1.170  11.573   2.826  0.4805 -1.8979 -1.2684
28717SOL    HW296082   1.277  11.566   2.719  1.6658 -1.6709 -0.1292
28718SOL     OW96083   9.448   0.065   2.154  0.2987 -0.2929  0.2261
28718SOL    HW196084   9.428   0.158   2.153  0.5360 -0.2079 -2.0117
28718SOL    HW296085   9.368   0.023   2.184  0.5328  0.6459  2.3278
28719SOL     OW96086   2.947  12.315   3.583  0.4717  0.7242  0.1367
28719SOL    HW196087   3.002  12.351   3.513  0.4028 -0.4683 -0.5434
28719SOL    HW296088   2.859  12.343   3.560  0.3734 -0.1429 -0.5784
28720SOL     OW96089   8.798   0.276  13.019  0.2801 -0.4778  0.0897
28720SOL    HW196090   8.832   0.225  12.945 -0.7555 -0.7679 -0.1975
28720SOL    HW296091   8.842   0.361  13.012  0.6510 -0.7127 -0.4931
28721SOL     OW96092  10.887   3.893  10.759 -0.0969  0.1226 -0.3658
28721SOL    HW196093  10.941   3.814  10.771 -0.9238 -0.4461 -0.2720
28721SOL    HW296094  10.941   3.951  10.707  0.4021 -0.6528 -0.7383
28722SOL     OW96095   5.236   5.583   4.979 -0.5133 -0.2983  0.0014
28722SOL    HW196096   5.173   5.638   5.025 -0.2695 -0.2429  0.2778
28722SOL    HW296097   5.301   5.645   4.944 -1.1917 -0.2532 -1.2267
28723SOL     OW96098   3.727   6.476   0.084  0.0368 -0.3909  0.7417
28723SOL    HW196099   3.651   6.486   0.140  0.3397  1.2816  0.9169
28723SOL    HW296100   3.733   6.382   0.067 -2.4773 -0.4937  0.1096
28724SOL     OW96101   8.209   0.191   1.160 -0.2839  0.2166  0.6290
28724SOL    HW196102   8.221   0.222   1.071 -0.4939 -1.8515 -0.1674
28724SOL    HW296103   8.297   0.176   1.193 -0.2042  1.0515  0.8080
28725SOL     OW96104   0.371   0.135   1.440  0.1622 -0.0652 -0.1667
28725SOL    HW196105   0.308   0.122   1.511 -0.8578 -0.5389 -1.1033
28725SOL    HW296106   0.355   0.224   1.409  0.2382 -0.0387 -0.1281
28726SOL     OW96107  11.078   6.603   9.907  0.1139  0.6243  0.1344
28726SOL    HW196108  11.139   6.639   9.843 -0.0293  0.0813 -0.3133
28726SOL    HW296109  11.114   6.516   9.928  0.6879  1.1589  1.5052
28727SOL     OW96110  12.105   4.213   2.563  0.0417  0.1858 -0.5527
28727SOL    HW196111  12.141   4.275   2.500 -1.2176  0.9903 -0.5226
28727SOL    HW296112  12.050   4.267   2.621  2.2992 -0.2587  2.1878
28728SOL     OW96113  12.710   3.816   6.279  0.2018  0.5872  0.3161
28728SOL    HW196114  12.642   3.833   6.345 -0.1247 -1.3377  0.5254
28728SOL    HW296115  12.779   3.770   6.326  0.1524 -0.4392 -0.5964
28729SOL     OW96116  11.298   0.269   0.523  0.2370 -0.1539  0.0389
28729SOL    HW196117  11.219   0.319   0.544  0.5747  0.5109 -0.2352
28729SOL    HW296118  11.297   0.195   0.585  0.0904  0.5776  0.9345
28730SOL     OW96119  12.835   7.756  12.351  0.2307 -0.5545  0.2770
28730SOL    HW196120  12.902   7.726  12.288 -1.2968 -3.3713 -0.2066
28730SOL    HW296121  12.845   7.851  12.354  1.9627 -0.5406 -2.4011
28731SOL     OW96122  10.635   9.502  11.288 -0.2007  0.3585  0.3889
28731SOL    HW196123  10.691   9.506  11.210 -0.6297 -1.1254 -0.0170
28731SOL    HW296124  10.645   9.588  11.328  3.0961 -0.0675  0.8192
28732SOL     OW96125   7.291  11.017   5.170  0.0732  0.1427 -0.7054
28732SOL    HW196126   7.332  10.945   5.123  1.7543  0.1827  0.6213
28732SOL    HW296127   7.235  10.974   5.235  2.3493 -0.1043  1.2193
28733SOL     OW96128   1.712   9.356   2.331  0.1099  0.4033 -0.2826
28733SOL    HW196129   1.737   9.391   2.245 -1.4480 -0.7552 -1.2591
28733SOL    HW296130   1.770   9.281   2.345  1.4610  1.5406  0.4663
28734SOL     OW96131   0.474  12.552   6.511 -0.4627  0.0840  0.4041
28734SOL    HW196132   0.518  12.504   6.442 -1.5614  0.4849 -0.6009
28734SOL    HW296133   0.486  12.498   6.589  1.7014  0.1396  0.1756
28735SOL     OW96134   0.408  12.503   1.569  0.0139  0.2739 -0.3460
28735SOL    HW196135   0.359  12.433   1.613  0.7348  0.0091  0.0409
28735SOL    HW296136   0.356  12.581   1.584 -0.6922 -0.1347 -0.5963
28736SOL     OW96137  10.593   3.279   0.844  0.2938 -0.1478  0.1794
28736SOL    HW196138  10.586   3.280   0.749 -0.0904  1.1195  0.2134
28736SOL    HW296139  10.679   3.317   0.863  0.6923 -1.0850  0.3306
28737SOL     OW96140  11.618   9.152   7.411  0.0720 -0.0313  0.6366
28737SOL    HW196141  11.686   9.135   7.347  0.4064 -1.0815  1.2567
28737SOL    HW296142  11.547   9.093   7.387 -0.8325  1.3341 -0.2529
28738SOL     OW96143  11.714   0.329  11.119 -0.0977 -0.7726  0.1500
28738SOL    HW196144  11.751   0.412  11.150  0.1183 -0.7534 -0.1523
28738SOL    HW296145  11.790   0.271  11.109 -0.1844 -0.8371 -0.1568
28739SOL     OW96146   0.381  12.223   7.601 -0.5267 -0.4971 -0.3236
28739SOL    HW196147   0.434  12.288   7.555  0.3767 -1.4595 -0.6749
28739SOL    HW296148   0.292  12.258   7.598 -0.0979  0.5879 -0.7429
28740SOL     OW96149   4.196  10.999   2.541 -0.6420 -0.2292  0.0716
28740SOL    HW196150   4.178  11.092   2.533 -1.0081 -0.2961  0.0860
28740SOL    HW296151   4.257  10.991   2.614 -1.1557 -0.0679  0.5179
28741SOL     OW96152   8.094  10.675   9.979  0.0443  0.4153 -0.1065
28741SOL    HW196153   8.181  10.646  10.004  0.3311  0.2119 -1.2700
28741SOL    HW296154   8.108  10.757   9.931 -0.2803 -0.1521 -1.2209
28742SOL     OW96155  12.225  12.317  13.162  0.0025 -0.2753  0.0374
28742SOL    HW196156  12.133  12.313  13.188  0.1554 -1.6621  0.4528
28742SOL    HW296157  12.244  12.229  13.129  1.1195  0.0677 -0.2740
28743SOL     OW96158   4.098   6.560   7.335  0.1347  0.4541  0.1917
28743SOL    HW196159   4.091   6.577   7.429  0.4726  1.9575 -0.0430
28743SOL    HW296160   4.020   6.509   7.314 -0.0512  0.2860  1.2398
28744SOL     OW96161  11.152  11.595   9.201  0.0324 -0.2183 -0.3250
28744SOL    HW196162  11.112  11.683   9.199  0.0438 -0.2244 -0.9761
28744SOL    HW296163  11.077  11.535   9.199  0.0552 -0.2277 -0.8990
28745SOL     OW96164   4.746  11.663   7.690 -0.1592 -0.2607 -0.4595
28745SOL    HW196165   4.758  11.733   7.625 -1.8487  0.7875  0.2910
28745SOL    HW296166   4.753  11.707   7.774 -0.8432 -1.0718  0.0366
28746SOL     OW96167   9.974  12.510  11.093  0.1391 -0.1283  0.0854
28746SOL    HW196168   9.984  12.578  11.161 -0.6488 -0.5758  0.6540
28746SOL    HW296169   9.881  12.511  11.071  0.1113 -1.0559  0.1305
28747SOL     OW96170  11.981   9.193   0.012 -0.3125 -0.4566  0.4188
28747SOL    HW196171  11.993   9.258   0.081  2.8473 -0.7821  0.3101
28747SOL    HW296172  11.907   9.140   0.042  0.6906 -0.3672  3.4117
28748SOL     OW96173   4.935   8.929   8.012  0.0345 -0.7001 -0.4690
28748SOL    HW196174   4.913   8.918   8.105  1.0683  2.2940  0.2205
28748SOL    HW296175   4.854   8.958   7.971  0.2804  0.9483  0.1502
28749SOL     OW96176  12.734   8.061   3.703 -0.6323 -0.2277  0.3091
28749SOL    HW196177  12.817   8.028   3.738  0.4563  1.2640 -0.7227
28749SOL    HW296178  12.667   8.005   3.742  0.9541 -2.4412 -0.0149
28750SOL     OW96179   1.854  10.186  12.024  0.1011  0.0037  0.3522
28750SOL    HW196180   1.892  10.239  11.955  0.6975 -0.1556  0.5557
28750SOL    HW296181   1.889  10.098  12.009  1.0593  0.1733  1.4540
28751SOL     OW96182   8.916   6.676  12.962 -0.2282 -0.0221  0.1821
28751SOL    HW196183   8.891   6.584  12.960  2.9396 -0.9812  0.3281
28751SOL    HW296184   8.909   6.705  12.870 -0.3677 -0.6634 -0.0138
28752SOL     OW96185   3.888   1.766  12.077 -0.4677 -0.4309  0.2640
28752SOL    HW196186   3.911   1.854  12.047  0.1492 -0.7729 -0.2956
28752SOL    HW296187   3.843   1.779  12.160 -1.6742  0.5094 -0.5093
28753SOL     OW96188   8.517  10.305   0.843 -0.1870 -0.2344 -0.1798
28753SOL    HW196189   8.482  10.282   0.929 -1.6291 -0.2990 -0.7448
28753SOL    HW296190   8.456  10.370   0.809  0.7109  0.2493 -0.9074
28754SOL     OW96191   9.924   5.946   2.132 -0.6754  0.1682  0.9998
28754SOL    HW196192   9.876   5.946   2.215  0.3237 -0.1032  1.5950
28754SOL    HW296193   9.880   5.880   2.079 -1.6358  0.6937  1.1182
28755SOL     OW96194  10.761  11.492   7.843 -0.4253  0.7923 -0.3859
28755SOL    HW196195  10.777  11.584   7.865 -1.4826  1.0656 -0.6854
28755SOL    HW296196  10.737  11.451   7.925 -0.2444  0.8505 -0.3033
28756SOL     OW96197   0.025   2.712   0.839 -0.4014 -0.2620  0.3624
28756SOL    HW196198   0.038   2.662   0.919  2.1545 -1.1027 -0.4766
28756SOL    HW296199  -0.005   2.648   0.775  0.0958 -0.1278 -0.0085
28757SOL     OW96200   7.413  10.595  11.038 -0.1166  0.2180  0.1017
28757SOL    HW196201   7.323  10.611  11.009  0.1585 -0.1700 -0.9993
28757SOL    HW296202   7.466  10.655  10.986  0.2854  0.3882  0.6893
28758SOL     OW96203   0.285   9.364   0.242 -0.3866  0.3220 -0.4020
28758SOL    HW196204   0.294   9.283   0.192 -0.3091  0.5517 -0.7613
28758SOL    HW296205   0.192   9.370   0.260 -0.3146 -0.1769  0.1812
28759SOL     OW96206  11.701  11.493   1.474  0.1081  0.4039 -0.1522
28759SOL    HW196207  11.729  11.573   1.518 -0.4237  0.4991  0.0180
28759SOL    HW296208  11.618  11.516   1.433 -0.0046 -0.0389 -0.1788
28760SOL     OW96209   1.743   8.634   4.871 -0.5710  0.3085 -0.3646
28760SOL    HW196210   1.740   8.664   4.780 -0.0245  1.2390 -0.0855
28760SOL    HW296211   1.837   8.623   4.889 -0.6523  0.5378  0.2091
28761SOL     OW96212   2.610   8.412   9.938 -0.4199 -0.6381  0.3688
28761SOL    HW196213   2.572   8.377   9.858 -0.7970 -0.7309  0.5866
28761SOL    HW296214   2.704   8.399   9.928 -0.4861 -0.8637  0.0456
28762SOL     OW96215  12.558   5.001   8.027  0.4123 -0.0851  0.5499
28762SOL    HW196216  12.596   4.936   8.086 -0.7230 -1.9049 -0.6093
28762SOL    HW296217  12.602   4.986   7.943  1.3188  1.8021  0.6540
28763SOL     OW96218   4.161   4.892   2.066  0.4665 -0.2574 -0.1328
28763SOL    HW196219   4.086   4.952   2.068  0.7017  0.0614 -0.8734
28763SOL    HW296220   4.146   4.835   2.141  0.7992  1.4059  1.2766
28764SOL     OW96221  10.451   6.226   7.004  0.5514 -0.1456 -1.2577
28764SOL    HW196222  10.384   6.291   6.986 -1.1066 -1.5607 -0.4755
28764SOL    HW296223  10.463   6.179   6.921  0.4994  0.0402 -1.3696
28765SOL     OW96224   2.170   6.849   5.398  0.2118  0.3885  0.4389
28765SOL    HW196225   2.097   6.854   5.461  0.4643  0.6923  0.7076
28765SOL    HW296226   2.234   6.912   5.430  1.0671 -0.6197  0.8005
28766SOL     OW96227   9.191  11.702   4.509 -0.4093 -0.3892  0.6380
28766SOL    HW196228   9.170  11.666   4.595 -1.4745  0.2020  0.6504
28766SOL    HW296229   9.228  11.788   4.528  0.1773 -0.6078  0.5236
28767SOL     OW96230   2.149   8.332   7.538  0.1140  0.0553  0.3154
28767SOL    HW196231   2.232   8.300   7.573  0.9705  0.9148 -0.8646
28767SOL    HW296232   2.159   8.427   7.534 -0.4742  0.0861 -0.9305
28768SOL     OW96233   0.383  11.155   0.965 -0.1658  0.3439  0.0116
28768SOL    HW196234   0.410  11.075   0.920 -1.4797  0.1030 -0.3963
28768SOL    HW296235   0.451  11.170   1.031  0.7134 -0.4403 -0.6927
28769SOL     OW96236   1.698  12.686   7.872  0.1626  0.0259 -0.4785
28769SOL    HW196237   1.654  12.748   7.930 -0.0831 -2.2303  1.9535
28769SOL    HW296238   1.632  12.620   7.852  1.3416 -1.4617  0.2365
28770SOL     OW96239  12.296   5.034   9.002  0.4752  0.8125 -0.0037
28770SOL    HW196240  12.287   5.129   8.993  0.0060  0.5500 -3.6498
28770SOL    HW296241  12.374   5.013   8.951 -1.4588 -1.0601 -2.3840
28771SOL     OW96242   0.422   9.584   5.573  0.4293 -0.1529  0.3500
28771SOL    HW196243   0.337   9.556   5.607 -0.6781  2.1320 -0.3263
28771SOL    HW296244   0.482   9.571   5.646 -0.2291 -2.7691  0.5245
28772SOL     OW96245  10.814  11.936   9.660 -0.1649  0.1444 -0.2825
28772SOL    HW196246  10.757  11.870   9.620 -1.7526  2.7571 -2.7565
28772SOL    HW296247  10.885  11.948   9.598 -0.3619  1.3238 -0.3014
28773SOL     OW96248   6.125   3.648   8.347  0.1518 -0.5232  0.0323
28773SOL    HW196249   6.139   3.591   8.271  0.0031  0.5422 -0.8178
28773SOL    HW296250   6.031   3.643   8.364 -0.1262  0.6141 -1.0060
28774SOL     OW96251   2.214   8.212  10.016  0.0415 -0.4641 -0.2559
28774SOL    HW196252   2.218   8.255   9.931 -2.5941  2.9590  1.1041
28774SOL    HW296253   2.268   8.266  10.073 -0.3220 -1.1627  0.7910
28775SOL     OW96254   0.439   6.291   0.862 -0.1583  0.0630  0.0249
28775SOL    HW196255   0.508   6.292   0.928 -0.3862 -1.2864  0.3056
28775SOL    HW296256   0.427   6.384   0.839  1.2661  0.3806  0.4487
28776SOL     OW96257   0.449   7.365   3.925 -0.3312 -0.1528  0.0048
28776SOL    HW196258   0.525   7.415   3.956  0.1043  0.3359 -1.7223
28776SOL    HW296259   0.402   7.426   3.868 -1.0942 -0.9843 -0.2730
28777SOL     OW96260   5.280  12.596   2.455 -0.1284  0.6322  0.0980
28777SOL    HW196261   5.186  12.610   2.449 -0.1440  0.6016  0.2671
28777SOL    HW296262   5.317  12.684   2.457 -0.1450  0.6442 -0.0805
28778SOL     OW96263   5.988   0.760   7.963  0.1149  0.2068 -0.5391
28778SOL    HW196264   6.063   0.790   8.015 -0.5589  1.5505 -0.2834
28778SOL    HW296265   6.011   0.671   7.937  0.2185 -0.8227  2.6098
28779SOL     OW96266   0.527   8.180   9.714  0.4938  0.0621 -0.0967
28779SOL    HW196267   0.605   8.218   9.673 -0.1838 -0.5056 -2.0210
28779SOL    HW296268   0.491   8.122   9.647 -0.2962 -1.4933  1.6028
28780SOL     OW96269   3.732   1.243   4.351 -0.4306 -0.0299 -0.0912
28780SOL    HW196270   3.755   1.298   4.276  3.1285 -0.8481  0.2279
28780SOL    HW296271   3.807   1.250   4.410 -0.3410 -4.1723  0.5771
28781SOL     OW96272   7.513   6.606   2.609 -0.5853 -0.3476 -0.0652
28781SOL    HW196273   7.441   6.670   2.608  1.4571  2.2602  2.3678
28781SOL    HW296274   7.495   6.549   2.683 -0.5718 -0.2450  0.0166
28782SOL     OW96275  13.144   8.318   0.696 -0.3172  0.6681  0.6389
28782SOL    HW196276  13.048   8.315   0.698 -0.3147 -0.6102 -0.3331
28782SOL    HW296277  13.167   8.300   0.605  0.8391  2.0633  0.6222
28783SOL     OW96278   4.204   3.047  10.248 -0.8166  0.2980  0.1385
28783SOL    HW196279   4.115   3.019  10.227  0.1019 -2.6710 -0.2508
28783SOL    HW296280   4.233   3.094  10.169 -1.0809 -1.2653 -0.9307
28784SOL     OW96281   5.542   4.353   9.997  0.1779  0.0673  0.4119
28784SOL    HW196282   5.554   4.306   9.914  1.0387 -0.1119  0.6333
28784SOL    HW296283   5.615   4.414  10.000  0.5923 -0.4668  1.4143
28785SOL     OW96284   3.112  13.161   8.412  0.3188  0.2531 -0.3417
28785SOL    HW196285   3.191  13.111   8.387 -0.1262 -0.9167  0.4954
28785SOL    HW296286   3.060  13.099   8.462 -1.0256  1.1057 -0.6444
28786SOL     OW96287  11.370   3.886   6.923 -0.3238  0.3265 -0.5007
28786SOL    HW196288  11.353   3.817   6.987  1.6151  0.4073  0.1842
28786SOL    HW296289  11.359   3.844   6.838 -0.5420 -0.4524 -0.0910
28787SOL     OW96290   3.346   3.094   7.245  0.2875 -0.1180 -0.3404
28787SOL    HW196291   3.402   3.105   7.323  1.7847  0.8580 -1.5011
28787SOL    HW296292   3.275   3.037   7.275 -0.5300  2.0838  2.4192
28788SOL     OW96293   5.768   8.568   0.447 -0.0809 -0.0635 -0.1644
28788SOL    HW196294   5.799   8.523   0.526 -1.4106  0.9790  1.0140
28788SOL    HW296295   5.806   8.656   0.455 -0.1397  0.0149 -0.7540
28789SOL     OW96296   2.606   9.273   7.028 -0.1100 -0.1222  0.5690
28789SOL    HW196297   2.547   9.288   7.102  1.4506  0.9107  1.6671
28789SOL    HW296298   2.555   9.299   6.951 -1.2531  0.2780  1.4320
28790SOL     OW96299   8.534  12.059   8.654 -0.0456 -0.2712  0.4603
28790SOL    HW196300   8.576  12.091   8.733  0.8598  0.4013 -0.2724
28790SOL    HW296301   8.591  11.989   8.622 -0.2267 -0.3104  0.2135
28791SOL     OW96302  11.967   0.489   7.473  0.2856 -0.2926  0.2797
28791SOL    HW196303  11.932   0.445   7.551 -1.4522  0.4962 -0.0074
28791SOL    HW296304  12.013   0.565   7.507 -0.8057  0.2671  0.5475
28792SOL     OW96305   5.540   6.540   2.000 -0.2830 -0.0895  0.6610
28792SOL    HW196306   5.621   6.492   1.988 -0.3798 -0.1387  0.2068
28792SOL    HW296307   5.548   6.618   1.945 -0.1478  0.3982  1.3551
28793SOL     OW96308   4.286  11.738   6.016 -0.0298  0.2296  0.5064
28793SOL    HW196309   4.208  11.699   6.055  1.0614 -0.6149  1.9412
28793SOL    HW296310   4.351  11.668   6.017  1.1613  1.2942  0.6385
28794SOL     OW96311   2.977   3.030   7.035 -0.1776  0.3048  0.2723
28794SOL    HW196312   2.905   2.971   7.060  0.2415 -0.0142  0.7396
28794SOL    HW296313   2.962   3.047   6.942 -0.4798 -0.2934  0.2036
28795SOL     OW96314   9.297   9.598   3.483  0.7612 -0.0091  0.7092
28795SOL    HW196315   9.220   9.564   3.530 -0.2467  1.4230  0.1704
28795SOL    HW296316   9.326   9.525   3.428  0.6220 -1.0022  1.9072
28796SOL     OW96317  12.957   6.935   1.360 -0.4358 -0.4255  0.1738
28796SOL    HW196318  12.871   6.906   1.330 -1.2586  2.1160 -0.1159
28796SOL    HW296319  13.007   6.854   1.371 -2.7767 -1.9592  0.1440
28797SOL     OW96320  10.403   5.054  11.533 -0.2274 -0.2771  0.0866
28797SOL    HW196321  10.473   4.989  11.528 -0.6213 -0.6343 -1.2729
28797SOL    HW296322  10.359   5.034  11.616  0.4919 -0.8635  0.3472
28798SOL     OW96323  12.610  11.894   1.171 -0.0974  0.0649  0.4077
28798SOL    HW196324  12.704  11.897   1.156 -0.2507  3.2675 -0.5940
28798SOL    HW296325  12.574  11.855   1.091  0.2652  0.6769 -0.0592
28799SOL     OW96326   1.147   9.543   3.175 -0.0380 -0.6429 -0.1037
28799SOL    HW196327   1.143   9.451   3.201  1.9175 -0.7727 -0.0991
28799SOL    HW296328   1.230   9.551   3.128 -0.1955  1.1081 -0.1499
28800SOL     OW96329   0.617   3.091   2.104  0.4155  0.0022 -0.0867
28800SOL    HW196330   0.693   3.149   2.115 -1.1623  2.2336 -0.1450
28800SOL    HW296331   0.630   3.049   2.019  1.0981  1.1845 -0.5921
28801SOL     OW96332   2.054   5.731   4.452  0.0496 -0.4330 -0.1206
28801SOL    HW196333   2.149   5.723   4.448  0.0617 -0.0204 -0.7034
28801SOL    HW296334   2.038   5.826   4.447 -0.3480 -0.4345  0.9314
28802SOL     OW96335  11.014   9.393   5.079 -0.3614 -0.0293  0.1701
28802SOL    HW196336  10.995   9.440   5.160 -0.4370  0.3469 -0.0581
28802SOL    HW296337  11.013   9.301   5.103 -2.2026 -0.0262  0.2482
28803SOL     OW96338   8.776   4.542  11.665 -0.1140  0.5605 -0.5841
28803SOL    HW196339   8.712   4.472  11.680 -1.3087  1.8482  0.5521
28803SOL    HW296340   8.754   4.576  11.578 -1.1541  1.1552 -0.1012
28804SOL     OW96341   8.183   1.322   3.335 -0.6076  0.5991  0.3325
28804SOL    HW196342   8.130   1.322   3.415 -2.4409  1.2531 -0.8111
28804SOL    HW296343   8.119   1.327   3.264  0.9123 -1.0050 -1.2375
28805SOL     OW96344   4.358   8.961   5.419  0.1765  0.0624  0.0328
28805SOL    HW196345   4.270   8.986   5.389  0.7160  2.5115  0.3174
28805SOL    HW296346   4.410   9.040   5.409  1.6886 -0.5285  2.4960
28806SOL     OW96347   9.776   6.728   6.787  0.2194  0.0511  0.7266
28806SOL    HW196348   9.803   6.738   6.695  0.0458  0.8360  0.7535
28806SOL    HW296349   9.751   6.816   6.814 -0.9557 -0.3900  1.1456
28807SOL     OW96350  12.037   7.774   8.934 -0.2471  0.0768 -0.7871
28807SOL    HW196351  12.075   7.771   8.846  1.1885 -2.6059 -0.2001
28807SOL    HW296352  11.961   7.717   8.929  0.2025 -0.6028 -0.1917
28808SOL     OW96353   8.290   6.665  13.017  0.1414 -0.6071 -0.5990
28808SOL    HW196354   8.363   6.604  13.012  0.9057  0.2824 -0.5019
28808SOL    HW296355   8.292   6.712  12.933  0.3222  0.1202 -0.1991
28809SOL     OW96356   8.447  12.025   8.356  0.0066 -0.0127  0.0206
28809SOL    HW196357   8.448  11.933   8.384 -0.0629 -0.2058 -0.5889
28809SOL    HW296358   8.389  12.068   8.418 -0.0545 -0.4077  0.2441
28810SOL     OW96359   8.127   4.492   3.311  0.1414 -0.1286 -0.4766
28810SOL    HW196360   8.166   4.530   3.389 -0.3097 -0.9550  0.1693
28810SOL    HW296361   8.088   4.410   3.341 -2.1290  0.6643 -1.0722
28811SOL     OW96362  12.686   3.734   3.377  0.0642 -0.2574 -0.4144
28811SOL    HW196363  12.686   3.662   3.314 -0.7100 -0.7152  0.0855
28811SOL    HW296364  12.644   3.698   3.455 -0.8653  0.8909 -0.3461
28812SOL     OW96365   3.203  11.813   0.832  0.4219 -0.1031 -0.7746
28812SOL    HW196366   3.249  11.729   0.826  1.1480  0.3489 -1.6458
28812SOL    HW296367   3.264  11.877   0.796 -0.3810  0.7090 -0.7271
28813SOL     OW96368   2.050  11.063   4.942  0.3567  0.2613 -1.0392
28813SOL    HW196369   2.140  11.096   4.947  0.0804  0.9159 -0.2647
28813SOL    HW296370   1.999  11.124   4.996 -0.0754 -1.7880  0.9872
28814SOL     OW96371   1.043  13.080   2.876  0.2679 -0.3762  0.3205
28814SOL    HW196372   1.119  13.122   2.915  0.6380 -0.9734  0.2622
28814SOL    HW296373   0.983  13.151   2.856  0.3628  0.0053  1.3449
28815SOL     OW96374   8.975  12.886   7.900 -0.3357  0.4499  0.2772
28815SOL    HW196375   9.029  12.838   7.963  0.9478 -0.6320 -1.5716
28815SOL    HW296376   9.026  12.966   7.882 -0.6165  0.6733  0.4685
28816SOL     OW96377   3.460   0.555  11.146 -0.0108 -0.5044 -0.1786
28816SOL    HW196378   3.398   0.514  11.086 -0.8147  0.1599  0.1766
28816SOL    HW296379   3.508   0.482  11.185 -0.0181 -0.9812 -1.0456
28817SOL     OW96380   4.976  12.637  11.713 -0.2753 -0.3215 -0.3743
28817SOL    HW196381   4.904  12.700  11.707 -0.3624 -0.4235 -0.3952
28817SOL    HW296382   5.005  12.625  11.622  0.5928  0.6726 -0.2373
28818SOL     OW96383  12.640   3.429   9.608 -0.2776 -0.5505  0.3984
28818SOL    HW196384  12.703   3.500   9.621  1.0814 -1.5936 -0.2422
28818SOL    HW296385  12.586   3.458   9.534 -0.0898  0.0508  0.4961
28819SOL     OW96386   3.890   0.535   9.444  0.5988 -0.4749  0.1989
28819SOL    HW196387   3.885   0.619   9.489 -0.1935  0.7459 -1.9885
28819SOL    HW296388   3.982   0.527   9.417  0.3122  0.7045 -1.2691
28820SOL     OW96389   7.722  12.797   5.117 -0.2829 -0.2738  0.2792
28820SOL    HW196390   7.790  12.795   5.050  0.6148  0.9449  1.1141
28820SOL    HW296391   7.646  12.833   5.073 -0.0099 -0.4351 -0.3411
28821SOL     OW96392   4.930   6.777  11.062  0.2301 -0.2241  0.6485
28821SOL    HW196393   5.025   6.785  11.073  0.1619 -1.4279  2.5762
28821SOL    HW296394   4.908   6.843  10.996  2.4917 -0.4330 -0.4300
28822SOL     OW96395   5.392  11.958   4.884 -0.6760  0.1891 -0.4794
28822SOL    HW196396   5.438  11.875   4.899 -0.3928  0.2653 -0.9494
28822SOL    HW296397   5.369  11.988   4.972 -0.8959 -0.4534 -0.3099
28823SOL     OW96398  12.352   4.107   2.359  0.0789 -0.0550  0.4048
28823SOL    HW196399  12.289   4.123   2.288 -0.4081  1.6017  1.1682
28823SOL    HW296400  12.337   4.015   2.383  1.2411 -1.1367 -2.5227
28824SOL     OW96401   2.408   7.229  10.595 -0.6629 -0.3186 -0.6551
28824SOL    HW196402   2.502   7.218  10.606 -0.4868  2.0313  0.8186
28824SOL    HW296403   2.372   7.142  10.612  1.2110 -1.3163 -1.4788
28825SOL     OW96404  12.246   5.810  11.906  0.4748 -0.0153  0.1090
28825SOL    HW196405  12.310   5.882  11.907 -0.6401  0.9994  0.1674
28825SOL    HW296406  12.177   5.838  11.966 -0.2749 -0.8661 -0.3328
28826SOL     OW96407   5.817   1.933   3.483 -0.5492 -0.4440 -0.0185
28826SOL    HW196408   5.880   1.933   3.411  0.0744 -0.2455  0.5307
28826SOL    HW296409   5.813   1.842   3.511 -1.3041 -0.6520 -0.7341
28827SOL     OW96410   0.978  12.015   2.129  0.1967  0.4054  0.1046
28827SOL    HW196411   0.893  11.978   2.153  0.2938  0.5632  0.7098
28827SOL    HW296412   0.976  12.104   2.165  0.0213  0.9466 -1.1979
28828SOL     OW96413   5.340   3.769   4.734 -0.0595 -0.6002 -0.2098
28828SOL    HW196414   5.249   3.750   4.713  0.1583 -1.7599 -0.1888
28828SOL    HW296415   5.390   3.720   4.669  0.5570 -0.7060  0.3318
28829SOL     OW96416   1.686  11.491   2.196  0.2079  0.1997 -0.1809
28829SOL    HW196417   1.643  11.557   2.250 -0.2351  0.1187 -0.4276
28829SOL    HW296418   1.614  11.449   2.148  0.6406  0.8057 -1.4337
28830SOL     OW96419   4.573   4.483  11.044 -0.0148  0.0105  0.1387
28830SOL    HW196420   4.490   4.484  11.092  0.2602 -0.3868  0.6362
28830SOL    HW296421   4.554   4.528  10.962 -0.4267  0.9613  0.7366
28831SOL     OW96422   7.009   2.159  12.379  0.2392 -0.3605 -0.6246
28831SOL    HW196423   6.999   2.229  12.443 -0.1671 -0.2012 -0.8584
28831SOL    HW296424   6.940   2.176  12.314  0.7235 -0.4432 -1.1685
28832SOL     OW96425   2.746   5.986   1.490  0.2114 -0.5997  0.3288
28832SOL    HW196426   2.680   5.917   1.480  0.3525 -0.6487 -0.2837
28832SOL    HW296427   2.811   5.967   1.423  0.1375  0.2619  0.0045
28833SOL     OW96428   0.653   4.747  10.692 -0.1895  0.0768 -0.2786
28833SOL    HW196429   0.601   4.685  10.743  3.3673 -2.0628  1.1679
28833SOL    HW296430   0.719   4.693  10.649 -0.1992  2.3762 -3.5389
28834SOL     OW96431   6.814   7.620   9.854  0.0303  0.3677 -0.4350
28834SOL    HW196432   6.829   7.688   9.788 -1.4449  0.3551 -0.8280
28834SOL    HW296433   6.760   7.664   9.920  0.0723 -0.1011 -0.0892
28835SOL     OW96434   2.822   4.417   6.813  0.1192 -0.3885 -0.6034
28835SOL    HW196435   2.803   4.509   6.828 -3.1127 -1.0726  0.1579
28835SOL    HW296436   2.805   4.403   6.719  0.3487 -0.2659 -0.6632
28836SOL     OW96437   8.167  10.357   6.226 -0.3032 -0.0127  0.8642
28836SOL    HW196438   8.237  10.321   6.171 -0.1977  0.3919  0.7330
28836SOL    HW296439   8.098  10.290   6.224 -0.7512  0.4687 -0.6465
28837SOL     OW96440   3.401   0.788   3.415  0.2138  0.6135  0.5064
28837SOL    HW196441   3.378   0.866   3.363 -1.1828 -0.9617 -1.4115
28837SOL    HW296442   3.491   0.768   3.390 -0.3213  0.0820 -1.1567
28838SOL     OW96443   9.327   6.376  11.030 -0.0716 -0.3912 -0.5016
28838SOL    HW196444   9.308   6.282  11.026  0.2945 -0.4727 -0.3551
28838SOL    HW296445   9.416   6.383  10.998 -0.6725  0.1048 -2.1650
28839SOL     OW96446  12.036  12.096   4.224  0.2911 -0.2579 -0.2478
28839SOL    HW196447  12.056  12.133   4.309  2.5044 -0.4626 -0.6372
28839SOL    HW296448  12.041  12.170   4.163  0.7527 -0.4840 -0.4832
28840SOL     OW96449   7.678  12.239   4.238 -0.2753 -0.1790 -0.1216
28840SOL    HW196450   7.637  12.324   4.253 -1.1851 -0.7732  0.9266
28840SOL    HW296451   7.668  12.224   4.144 -1.9060 -0.0058 -0.0014
28841SOL     OW96452   3.269   6.139   3.708  0.0633 -0.0410  0.2090
28841SOL    HW196453   3.187   6.178   3.738  0.6236  1.9870 -0.7246
28841SOL    HW296454   3.333   6.210   3.715  1.0016 -0.5497 -2.2631
28842SOL     OW96455  11.969   5.980   1.079 -0.0218  0.1801 -0.1522
28842SOL    HW196456  12.052   5.941   1.053  0.2526  0.1713  0.6842
28842SOL    HW296457  11.989   6.025   1.162 -0.7791  0.4225 -0.0939
28843SOL     OW96458   4.666   9.143   8.297 -0.0813  0.2554 -0.2633
28843SOL    HW196459   4.633   9.143   8.207  0.3932  0.4247 -0.4421
28843SOL    HW296460   4.727   9.070   8.300 -1.3430 -0.8228  0.4078
28844SOL     OW96461  12.839   0.619   5.857 -0.0346 -0.0965  0.0861
28844SOL    HW196462  12.773   0.583   5.915 -0.3935  0.0038 -0.2570
28844SOL    HW296463  12.902   0.547   5.845 -0.7146 -0.6044 -0.5462
28845SOL     OW96464  11.934  12.188   2.745 -0.5031 -0.3109  0.7000
28845SOL    HW196465  11.992  12.123   2.705 -3.2280 -2.1653 -0.5672
28845SOL    HW296466  11.948  12.267   2.693 -0.8416 -1.4302 -1.2034
28846SOL     OW96467  10.309   4.219   6.864  0.4043 -0.1191 -0.1653
28846SOL    HW196468  10.264   4.296   6.898 -0.0290  0.0165 -1.0084
28846SOL    HW296469  10.399   4.247   6.851  0.7808 -0.4172  1.6225
28847SOL     OW96470   1.681   4.826   5.849 -0.0966  0.3483 -0.0811
28847SOL    HW196471   1.667   4.776   5.930 -0.0554  0.2566 -0.1300
28847SOL    HW296472   1.695   4.916   5.879  0.1433  0.2758  0.0283
28848SOL     OW96473  13.183   6.440   5.822 -0.2707  0.8798  0.1456
28848SOL    HW196474  13.114   6.502   5.797 -0.3522  0.1965 -1.4614
28848SOL    HW296475  13.261   6.470   5.775 -0.4207 -0.4416 -1.0138
28849SOL     OW96476  12.017  10.196   5.346  0.3913 -0.4786 -0.1560
28849SOL    HW196477  11.968  10.247   5.410  1.9312  0.5175  0.2651
28849SOL    HW296478  12.098  10.244   5.333  1.4960 -2.3305 -0.4585
28850SOL     OW96479   9.182  11.835  10.831  0.4825  0.0112  0.3508
28850SOL    HW196480   9.256  11.796  10.878  0.8454  0.1974 -0.0548
28850SOL    HW296481   9.222  11.874  10.753 -0.3459 -2.0876 -1.1991
28851SOL     OW96482   3.783   3.939   6.082 -0.6112  0.2872 -0.3976
28851SOL    HW196483   3.830   3.857   6.097 -0.9170  0.3866  1.3783
28851SOL    HW296484   3.691   3.912   6.077 -0.7951  0.5736  1.0344
28852SOL     OW96485  12.476  12.493  12.568  0.0026  0.5522  0.5149
28852SOL    HW196486  12.465  12.558  12.499  0.4560  2.6872  2.3584
28852SOL    HW296487  12.410  12.517  12.634 -0.8506 -1.8028  0.6193
28853SOL     OW96488   7.124   0.850  11.506 -0.4340  0.2396 -0.0400
28853SOL    HW196489   7.045   0.880  11.460  0.0217  2.7928  0.6431
28853SOL    HW296490   7.097   0.771  11.552 -2.7165  1.2016  0.4169
28854SOL     OW96491   8.420  13.215   2.399 -0.3482  0.2927 -0.2969
28854SOL    HW196492   8.515  13.225   2.405 -0.2268  1.5717 -3.0297
28854SOL    HW296493   8.406  13.164   2.319 -1.9579 -2.1146  1.3493
28855SOL     OW96494  12.018   7.890  12.127  0.9055 -0.0341  0.1784
28855SOL    HW196495  11.925   7.894  12.149  1.1990  1.7624  1.3773
28855SOL    HW296496  12.022   7.913  12.034  0.1943  0.8275  0.3472
28856SOL     OW96497   2.727   3.223  11.709  0.0103 -0.5520  0.5068
28856SOL    HW196498   2.818   3.195  11.706 -0.6638 -2.9770  0.4919
28856SOL    HW296499   2.686   3.178  11.635 -0.9606  1.6020 -0.3490
28857SOL     OW96500   7.491  12.686  13.121  0.4569  0.2124 -0.0151
28857SOL    HW196501   7.529  12.714  13.204  1.3325 -0.5054 -0.1556
28857SOL    HW296502   7.397  12.689  13.136  0.6006 -0.5807  1.2482
28858SOL     OW96503  12.197   1.083   2.673  0.7891  0.2776  0.2084
28858SOL    HW196504  12.143   1.019   2.627 -0.1104  1.2751 -0.1327
28858SOL    HW296505  12.263   1.029   2.718  0.8038 -0.8065 -1.0430
28859SOL     OW96506  12.915   2.616   2.574  0.4151 -0.0131 -0.1133
28859SOL    HW196507  12.946   2.685   2.516  0.6894  1.0415  1.2461
28859SOL    HW296508  12.841   2.654   2.621 -0.5109 -1.2200 -0.5348
28860SOL     OW96509   5.079   5.126   3.983  0.2428  0.4714  0.2126
28860SOL    HW196510   5.064   5.048   4.036  1.2137  0.1539  0.0434
28860SOL    HW296511   5.174   5.130   3.972  0.2844  2.1539  0.9202
28861SOL     OW96512   7.105  11.231  13.311 -0.0100  0.1569  0.6237
28861SOL    HW196513   7.197  11.206  13.321  0.4817  1.2394 -0.7743
28861SOL    HW296514   7.059  11.182  13.379  1.7240  0.3295  1.9918
28862SOL     OW96515   9.330   3.728   0.441 -0.0583 -0.7200 -0.2255
28862SOL    HW196516   9.289   3.723   0.355 -1.5584 -0.6773  0.4618
28862SOL    HW296517   9.416   3.688   0.429 -0.6822 -1.7491 -1.4738
28863SOL     OW96518   8.953   4.755   7.870 -0.0553  0.5446  0.4806
28863SOL    HW196519   9.014   4.814   7.915  0.9047 -0.7559  0.9619
28863SOL    HW296520   8.981   4.668   7.898 -1.1634 -0.1562 -0.5516
28864SOL     OW96521  10.454  11.595  11.801  0.3150 -0.2612  0.0639
28864SOL    HW196522  10.500  11.531  11.747  2.0518  1.3274 -0.4487
28864SOL    HW296523  10.401  11.646  11.739 -0.6802 -0.8618  0.4017
28865SOL     OW96524   9.625   2.383   3.164  0.2991 -0.2613  0.4145
28865SOL    HW196525   9.559   2.313   3.160  1.3656 -1.2809  0.3343
28865SOL    HW296526   9.575   2.463   3.147 -0.6783 -1.1560 -1.1288
28866SOL     OW96527   2.154  10.159   5.655  0.0745 -0.4772 -0.0536
28866SOL    HW196528   2.061  10.140   5.662  0.1228 -1.0256 -0.8177
28866SOL    HW296529   2.180  10.183   5.744 -0.5308 -1.5777  0.4418
28867SOL     OW96530   8.004   8.215   8.023 -0.0896 -0.4264 -0.6670
28867SOL    HW196531   7.980   8.139   8.075 -0.4871  0.9588  1.2709
28867SOL    HW296532   8.085   8.189   7.979  1.1316 -1.2102  1.8448
28868SOL     OW96533   4.308   5.783  11.502 -0.3753 -0.1525 -0.2590
28868SOL    HW196534   4.352   5.698  11.508  0.8856  0.5307  0.7100
28868SOL    HW296535   4.372   5.845  11.537 -1.8479  0.9915  0.4952
28869SOL     OW96536  10.015  11.080  11.711 -0.5217  0.3681 -0.0019
28869SOL    HW196537  10.091  11.046  11.662 -0.6642  0.6299 -0.4110
28869SOL    HW296538  10.050  11.102  11.797 -0.2041  0.1634 -0.0755
28870SOL     OW96539  11.888   5.001   5.570  0.4362  0.8719  0.0859
28870SOL    HW196540  11.890   5.095   5.586 -3.1840  1.0816  0.0571
28870SOL    HW296541  11.890   4.992   5.475  1.6052  0.8255  0.1002
28871SOL     OW96542   0.149   5.382  10.776 -0.1387 -0.0110 -0.4609
28871SOL    HW196543   0.166   5.377  10.870  1.4707  0.1718 -0.7042
28871SOL    HW296544   0.080   5.318  10.760 -2.9753  2.3791  1.3252
28872SOL     OW96545  11.238  12.473   4.346  0.0245 -0.0653 -0.2147
28872SOL    HW196546  11.164  12.525   4.315 -0.4561 -1.0678 -0.8293
28872SOL    HW296547  11.303  12.537   4.374 -1.0347  0.8463  0.2605
28873SOL     OW96548   6.438   2.480  10.699 -0.2815  0.7543 -0.9042
28873SOL    HW196549   6.505   2.533  10.656  0.8954  0.4937  0.5133
28873SOL    HW296550   6.450   2.498  10.792  0.8158 -2.6085 -0.2193
28874SOL     OW96551   6.893  11.303   7.819 -0.4918  0.4954  0.4584
28874SOL    HW196552   6.799  11.296   7.834 -0.4733 -2.1850 -0.1111
28874SOL    HW296553   6.904  11.383   7.768 -2.2045  1.8107  2.0319
28875SOL     OW96554  12.466  10.268  11.031  0.4257 -0.8697  0.0022
28875SOL    HW196555  12.413  10.296  11.105  1.3584  0.8343  0.0689
28875SOL    HW296556  12.518  10.345  11.008  0.6222 -1.5503 -2.0235
28876SOL     OW96557   6.496   8.104   2.824 -0.1157 -0.2005 -0.4287
28876SOL    HW196558   6.405   8.077   2.807 -0.4157  1.0967 -0.9823
28876SOL    HW296559   6.546   8.067   2.751 -0.2685 -0.5561 -0.3552
28877SOL     OW96560   8.183  11.564   1.451  0.3581  0.0369  0.3042
28877SOL    HW196561   8.154  11.599   1.535  1.7782  1.0574  0.3917
28877SOL    HW296562   8.113  11.504   1.425 -1.1741  1.3873  1.1352
28878SOL     OW96563  13.151  11.830   3.004  0.1440  0.7016 -0.2718
28878SOL    HW196564  13.105  11.787   2.932  3.2861  0.0170 -2.0496
28878SOL    HW296565  13.130  11.923   2.994 -0.7917  0.4180 -1.0285
28879SOL     OW96566   0.835   4.755   7.702 -0.4635  0.3522  0.7023
28879SOL    HW196567   0.785   4.675   7.689  0.1375  0.0813 -0.0287
28879SOL    HW296568   0.906   4.729   7.761 -1.6279  0.9360  2.4489
28880SOL     OW96569   0.150  12.607   9.704  0.2910  0.6890  0.1113
28880SOL    HW196570   0.202  12.618   9.783  0.7825 -1.2555  0.1017
28880SOL    HW296571   0.213  12.582   9.637 -0.5129 -0.9632 -0.0728
28881SOL     OW96572   9.423   2.176   4.239 -0.1446  0.0296  0.4576
28881SOL    HW196573   9.492   2.132   4.289  0.7328  0.9829  0.1386
28881SOL    HW296574   9.463   2.193   4.153 -1.0420 -0.0701  0.0072
28882SOL     OW96575   4.058  10.993   9.491 -0.0195  0.0244  0.0877
28882SOL    HW196576   3.966  10.975   9.510  0.2059 -1.2377  0.1043
28882SOL    HW296577   4.085  10.921   9.434  1.2008 -0.1438  0.8444
28883SOL     OW96578   0.354   1.117   4.472  0.2412 -0.1872 -0.0811
28883SOL    HW196579   0.282   1.179   4.466 -0.7772 -0.6725  4.0465
28883SOL    HW296580   0.420   1.162   4.526  0.1055 -2.0533  1.7524
28884SOL     OW96581   9.970   5.816   1.760 -0.2492  0.5895  0.0354
28884SOL    HW196582   9.925   5.753   1.816  0.9443 -1.5618 -1.2618
28884SOL    HW296583  10.043   5.848   1.813  2.3892 -3.2933 -0.8128
28885SOL     OW96584  11.388   3.520   2.427  0.5516  0.0665  0.1862
28885SOL    HW196585  11.476   3.487   2.445  0.4378 -0.2597  0.1484
28885SOL    HW296586  11.373   3.587   2.494  0.6071 -0.2784  0.5507
28886SOL     OW96587   8.969  10.342  10.140 -0.1367 -0.0616 -0.2877
28886SOL    HW196588   8.915  10.421  10.138  1.5426  1.1766  0.6547
28886SOL    HW296589   9.014  10.341  10.055  0.1686  0.2415 -0.1302
28887SOL     OW96590   7.509  11.344   0.289  0.1807 -0.0212 -0.2863
28887SOL    HW196591   7.490  11.411   0.224  0.5978  0.2982 -0.0791
28887SOL    HW296592   7.592  11.370   0.328  0.1105 -0.3997  0.1293
28888SOL     OW96593   2.635  10.103   3.818  0.5100 -0.0955  0.1149
28888SOL    HW196594   2.558  10.049   3.835  0.7833 -0.7319 -0.5958
28888SOL    HW296595   2.640  10.108   3.722 -0.2210  2.2449  0.1296
28889SOL     OW96596   9.727   0.505   5.390  0.3283  0.1861 -0.7372
28889SOL    HW196597   9.726   0.520   5.296  0.4089  0.1811 -0.7385
28889SOL    HW296598   9.733   0.410   5.399 -1.0374  0.0695 -0.7374
28890SOL     OW96599   2.226   1.849   7.546 -0.6538  0.5507  0.5283
28890SOL    HW196600   2.240   1.933   7.590  0.7421  0.4734  0.2618
28890SOL    HW296601   2.186   1.793   7.614  0.5502  0.7404  1.4189
28891SOL     OW96602   6.883   9.635   9.409 -0.0287 -0.0569 -0.2346
28891SOL    HW196603   6.975   9.646   9.435 -0.1370  0.3757 -0.0307
28891SOL    HW296604   6.848   9.573   9.473  0.2563 -0.6331 -0.6317
28892SOL     OW96605   6.019   2.217   3.231 -0.5378 -0.1330  0.0703
28892SOL    HW196606   6.109   2.237   3.204 -1.5646  1.5069 -2.5204
28892SOL    HW296607   6.012   2.254   3.319  0.7941  1.4808 -0.4424
28893SOL     OW96608   8.839  10.640  11.131  0.0569 -0.0290 -0.2632
28893SOL    HW196609   8.867  10.605  11.046 -0.1424  0.7867 -0.6750
28893SOL    HW296610   8.822  10.562  11.184  0.0113 -0.5540 -1.0290
28894SOL     OW96611   1.389   8.790   1.336 -0.2276 -0.1445 -0.0655
28894SOL    HW196612   1.375   8.873   1.291 -0.2859  0.6409  1.3365
28894SOL    HW296613   1.301   8.753   1.346 -0.3144  0.1228  0.1923
28895SOL     OW96614  12.423  10.750   1.365  0.1449  0.5849  0.3067
28895SOL    HW196615  12.504  10.785   1.401  1.4039 -1.7765 -0.0022
28895SOL    HW296616  12.386  10.698   1.437 -1.0888  1.5845  0.4203
28896SOL     OW96617  10.966   4.811  13.096 -1.0392 -0.2872 -0.3189
28896SOL    HW196618  11.035   4.871  13.065  0.2561 -1.0852  0.9122
28896SOL    HW296619  10.893   4.869  13.118 -0.3865  0.6930 -0.6354
28897SOL     OW96620   3.085  10.857   3.242 -0.0655  0.6810  0.3286
28897SOL    HW196621   3.168  10.876   3.286  0.7636 -0.4127 -0.6971
28897SOL    HW296622   3.098  10.887   3.152  0.6595 -2.8095 -0.8882
28898SOL     OW96623   4.156   1.473  11.176 -0.2625  0.0410  0.5340
28898SOL    HW196624   4.154   1.439  11.265  0.8489  0.4495  0.7256
28898SOL    HW296625   4.069   1.510  11.163 -0.6778 -0.6849  1.1764
28899SOL     OW96626   1.330   6.936  10.359 -0.1762 -0.0262  0.1518
28899SOL    HW196627   1.362   6.945  10.448  1.0577 -0.0718 -0.2648
28899SOL    HW296628   1.290   6.849  10.357  2.0554 -1.1208  0.0327
28900SOL     OW96629   9.600  12.917   5.141 -0.2036 -0.0128  0.5134
28900SOL    HW196630   9.688  12.878   5.148 -0.4444 -0.8721 -0.8692
28900SOL    HW296631   9.604  12.969   5.061 -0.9633 -0.0561  0.4449
28901SOL     OW96632  11.416   9.338   4.064  0.0472  0.2369  0.7887
28901SOL    HW196633  11.471   9.381   4.129 -0.7326 -0.2469  1.7973
28901SOL    HW296634  11.462   9.256   4.045  0.2611  0.3649  0.7550
28902SOL     OW96635   7.166   9.506   3.243 -0.0801  0.0789  0.1540
28902SOL    HW196636   7.206   9.591   3.261  2.3890 -0.0453 -3.6247
28902SOL    HW296637   7.105   9.523   3.171 -2.2161 -0.8747  1.6332
28903SOL     OW96638  12.961   4.778   6.728 -0.0387  0.4645  0.3149
28903SOL    HW196639  12.981   4.848   6.790 -0.1176  0.2773  0.5563
28903SOL    HW296640  12.891   4.813   6.674  0.1505  0.6958  0.2166
28904SOL     OW96641   4.801   9.591  10.796  0.1949 -0.3489 -0.5816
28904SOL    HW196642   4.722   9.558  10.839 -0.2057 -1.8858 -2.3538
28904SOL    HW296643   4.772   9.619  10.709  1.3554  0.4923 -0.7313
28905SOL     OW96644   4.683   4.893   7.098 -0.2787  0.0745 -0.3109
28905SOL    HW196645   4.716   4.973   7.056  0.6022 -0.9521 -1.6541
28905SOL    HW296646   4.680   4.829   7.027 -1.5814 -0.9254  0.6100
28906SOL     OW96647   7.474  12.613  11.060  0.2067 -0.2445 -0.3587
28906SOL    HW196648   7.515  12.683  11.110 -1.5425 -0.3100  1.2982
28906SOL    HW296649   7.490  12.635  10.969  4.1192 -0.4544  0.1220
28907SOL     OW96650   7.468  12.630   4.683  0.6282  0.0818 -0.5769
28907SOL    HW196651   7.415  12.618   4.604 -1.7200 -1.7840  1.1078
28907SOL    HW296652   7.536  12.562   4.676 -0.1041 -0.6703 -0.6275
28908SOL     OW96653   2.773   2.298   3.066 -0.3164 -0.6078  0.4267
28908SOL    HW196654   2.795   2.270   3.155 -0.1930 -0.2795  0.5010
28908SOL    HW296655   2.838   2.365   3.045  0.4704 -1.6139 -0.4246
28909SOL     OW96656   4.414   2.096   2.412 -0.0802 -0.7735  0.7982
28909SOL    HW196657   4.442   2.005   2.422  0.1542 -0.7358  0.4845
28909SOL    HW296658   4.485   2.147   2.450  0.6396 -0.6450 -0.6717
28910SOL     OW96659  10.802   9.053  11.613  0.1864  0.8903  0.0705
28910SOL    HW196660  10.857   9.124  11.580 -0.4458  1.1047 -0.5504
28910SOL    HW296661  10.721   9.096  11.640  0.4965  0.6516  1.4702
28911SOL     OW96662   9.437   6.868   8.630  0.0373  0.5580 -0.1381
28911SOL    HW196663   9.518   6.830   8.597 -0.2370  0.1335 -0.3374
28911SOL    HW296664   9.376   6.795   8.633 -0.1992  0.7686  0.4858
28912SOL     OW96665   6.235  10.251  12.107 -0.8082  0.2150  0.3987
28912SOL    HW196666   6.196  10.165  12.093 -0.3926 -0.0630  0.9200
28912SOL    HW296667   6.234  10.292  12.021  1.3633 -1.2906 -0.4366
28913SOL     OW96668   3.931   7.181   3.748 -0.3932  0.1475 -0.0282
28913SOL    HW196669   3.854   7.139   3.709 -0.6935  0.6341  0.0312
28913SOL    HW296670   4.003   7.156   3.690 -0.1545 -2.2332  1.1775
28914SOL     OW96671   4.395   2.657  10.400  0.1570  0.4144  0.1480
28914SOL    HW196672   4.315   2.694  10.363 -0.0358  1.1101  1.2189
28914SOL    HW296673   4.466   2.705  10.356 -0.0889  2.2509  1.6227
28915SOL     OW96674  11.473   3.107  12.985  0.3577  0.3485 -0.3782
28915SOL    HW196675  11.522   3.053  13.047 -1.8555 -1.4212 -0.0503
28915SOL    HW296676  11.414   3.046  12.941 -0.7141  2.1715 -1.6025
28916SOL     OW96677  12.498   1.059   7.082 -0.1690 -0.1699  0.1974
28916SOL    HW196678  12.428   1.015   7.130  0.4825  0.3741  1.7365
28916SOL    HW296679  12.565   1.078   7.149 -0.2527  2.7790 -0.4006
28917SOL     OW96680   2.034   5.399  11.320  0.2827 -0.5500 -0.3794
28917SOL    HW196681   2.055   5.313  11.283  1.3412 -0.5166  0.1111
28917SOL    HW296682   1.950   5.422  11.280  0.4714 -1.3606 -1.2920
28918SOL     OW96683   8.484   7.238  12.342 -0.7130 -0.7696 -0.1408
28918SOL    HW196684   8.449   7.156  12.376 -0.0381 -2.0178 -2.2294
28918SOL    HW296685   8.419   7.267  12.278 -0.8758  0.2732  0.4758
28919SOL     OW96686   9.972   9.393  11.105 -0.2167  0.7282  0.7017
28919SOL    HW196687   9.980   9.487  11.121 -0.7546  0.7943  0.5950
28919SOL    HW296688   9.997   9.381  11.014  0.2816  0.7049  0.8366
28920SOL     OW96689   1.678  12.280   5.869  0.0809  0.3885 -0.8007
28920SOL    HW196690   1.702  12.233   5.949 -1.3824  0.6614 -0.1694
28920SOL    HW296691   1.725  12.234   5.799  1.6928  0.3771  0.2238
28921SOL     OW96692  10.271   7.703  12.094 -0.4537 -0.0640 -0.0108
28921SOL    HW196693  10.321   7.777  12.059 -1.0505 -0.2718 -1.3588
28921SOL    HW296694  10.320   7.626  12.067 -0.0698 -0.1840  1.0117
28922SOL     OW96695   4.294   9.426   4.840  0.0520 -0.4520 -0.1408
28922SOL    HW196696   4.288   9.424   4.936 -2.2459 -2.0913 -0.2202
28922SOL    HW296697   4.263   9.340   4.812 -0.3201  0.3261 -2.3861
28923SOL     OW96698   4.822   0.240  12.766  0.5027 -0.3894  0.1777
28923SOL    HW196699   4.737   0.273  12.735  0.8226  1.7509  1.3575
28923SOL    HW296700   4.867   0.318  12.800  2.4551 -1.6707  0.7002
28924SOL     OW96701   7.799   6.849   1.267  0.2325  0.6076 -0.0997
28924SOL    HW196702   7.734   6.780   1.276  0.7917  0.0925  0.0323
28924SOL    HW296703   7.868   6.827   1.329  0.3052  1.4241  0.1300
28925SOL     OW96704   2.008  12.476   4.468  0.5186 -0.7854  0.4035
28925SOL    HW196705   2.067  12.551   4.462  0.3617 -0.7452 -1.2576
28925SOL    HW296706   2.048  12.410   4.412 -1.0940 -0.6610 -0.9892
28926SOL     OW96707  11.235   8.543   8.924  0.1209  0.5319 -0.4401
28926SOL    HW196708  11.295   8.615   8.904 -0.6738  0.9551 -1.3830
28926SOL    HW296709  11.158   8.586   8.962  0.5850 -0.0488  1.2301
28927SOL     OW96710  10.707   0.676   2.126  0.1172 -0.4581 -0.4197
28927SOL    HW196711  10.662   0.752   2.091  0.1487 -0.7252 -1.0716
28927SOL    HW296712  10.638   0.623   2.166  0.4384  1.2551  2.7160
28928SOL     OW96713   0.197  10.777  11.298  0.2620 -0.7328 -0.8978
28928SOL    HW196714   0.216  10.738  11.383 -1.3641 -0.6102 -0.4382
28928SOL    HW296715   0.193  10.871  11.314 -0.9162 -0.7672 -0.8998
28929SOL     OW96716   9.640   8.466   0.658 -0.4280 -0.4852 -0.0231
28929SOL    HW196717   9.560   8.456   0.606  0.1414 -3.0907 -0.5443
28929SOL    HW296718   9.672   8.377   0.670  2.2890  0.4570  0.3902
28930SOL     OW96719   3.855   2.325   6.636  0.1844 -0.1344  0.2171
28930SOL    HW196720   3.794   2.396   6.655  0.5841 -0.0104  1.1439
28930SOL    HW296721   3.925   2.337   6.701 -0.0092 -1.6851  0.7519
28931SOL     OW96722  11.003  10.593   2.551 -0.3416  0.7888 -0.1637
28931SOL    HW196723  11.039  10.673   2.591 -1.7260  0.5875  1.5736
28931SOL    HW296724  10.917  10.619   2.520 -0.1300  0.3739 -1.1093
28932SOL     OW96725   8.946   6.259   4.655 -0.3715 -0.4909  0.0295
28932SOL    HW196726   8.878   6.209   4.610 -1.4306  0.6372  0.3025
28932SOL    HW296727   8.931   6.349   4.626  0.2902 -0.0657  0.9829
28933SOL     OW96728   3.461  13.037   2.980 -0.3330  0.2403  0.1934
28933SOL    HW196729   3.422  13.069   3.061  0.1717  0.5624  0.3148
28933SOL    HW296730   3.392  13.046   2.914 -0.5718  0.4772  0.4767
28934SOL     OW96731   0.142   7.457  12.897  0.0513 -0.4728  0.1926
28934SOL    HW196732   0.149   7.491  12.807 -1.0408 -1.5025 -0.3064
28934SOL    HW296733   0.222   7.487  12.939  0.5206  0.1732 -1.0804
28935SOL     OW96734  10.021  11.670   9.591 -0.4113 -0.3972  0.2768
28935SOL    HW196735  10.008  11.765   9.589  0.1734 -0.2878  1.2025
28935SOL    HW296736   9.993  11.643   9.678  2.3178 -0.6067  1.1959
28936SOL     OW96737   9.059   8.585   1.659 -0.2405 -0.0067  0.1261
28936SOL    HW196738   9.131   8.559   1.717  0.1556  0.2821 -0.2295
28936SOL    HW296739   9.097   8.583   1.571 -0.5691  0.4715 -0.0331
28937SOL     OW96740  11.846   9.457   2.328 -0.0175 -0.2149 -0.0933
28937SOL    HW196741  11.846   9.550   2.351  0.7739 -0.5897  1.5627
28937SOL    HW296742  11.902   9.416   2.393  0.0683 -1.7993 -1.1097
28938SOL     OW96743   0.203   8.978   5.448 -0.0352 -0.0206 -0.1193
28938SOL    HW196744   0.154   8.992   5.367  0.2513  0.6828 -0.1755
28938SOL    HW296745   0.274   8.919   5.423  1.6137  2.2352 -1.0059
28939SOL     OW96746   1.670   5.154  11.274 -0.2490  0.2186  0.4404
28939SOL    HW196747   1.616   5.145  11.353 -0.5840 -0.6703  0.1208
28939SOL    HW296748   1.624   5.103  11.207  0.2133  0.6760 -0.2452
28940SOL     OW96749   0.698   4.521  12.565  0.6734 -0.4089 -0.2143
28940SOL    HW196750   0.722   4.552  12.652  2.3802 -0.8110 -0.5028
28940SOL    HW296751   0.699   4.425  12.573 -2.5311 -0.5242  0.1498
28941SOL     OW96752  11.071  11.907  10.361  0.3035  0.0065 -0.0345
28941SOL    HW196753  11.063  11.908  10.265  3.0795  1.2051 -0.3508
28941SOL    HW296754  11.031  11.824  10.387  0.8946 -1.1193 -2.4041
28942SOL     OW96755   9.164   1.454  12.313  0.3933 -0.1034  0.7626
28942SOL    HW196756   9.202   1.373  12.281 -0.4422 -0.0436 -0.4724
28942SOL    HW296757   9.091   1.427  12.369 -0.7700 -0.2690 -0.7440
28943SOL     OW96758  13.292  11.735  12.022  0.2236 -0.1724  0.4349
28943SOL    HW196759  13.327  11.675  12.088 -0.4324  0.0185  0.9696
28943SOL    HW296760  13.369  11.775  11.983  0.6356 -0.6102  0.7824
28944SOL     OW96761  13.067   9.350   9.343  0.0762 -0.2779  0.0140
28944SOL    HW196762  13.053   9.334   9.437 -0.9300  0.1833 -0.0359
28944SOL    HW296763  13.143   9.408   9.340  0.3233 -0.5646  0.5208
28945SOL     OW96764   4.422   0.234   6.305  0.0984 -1.1038  0.0722
28945SOL    HW196765   4.387   0.296   6.240 -0.1237  0.3776  1.5286
28945SOL    HW296766   4.517   0.241   6.295  0.1208  0.3992  0.9766
28946SOL     OW96767   6.045  11.678   5.268  0.0796 -0.1191  0.8924
28946SOL    HW196768   6.117  11.711   5.321 -0.2268  0.4580  0.9561
28946SOL    HW296769   5.979  11.747   5.271  0.4520  0.3684 -1.0559
28947SOL     OW96770  10.542  13.040  11.261  0.2189  0.7293  0.5210
28947SOL    HW196771  10.528  13.074  11.173  2.0888 -0.8864 -0.4626
28947SOL    HW296772  10.595  13.107  11.304  1.2575  0.5163 -0.3758
28948SOL     OW96773   2.639   2.430   7.007  0.2732  0.6095  0.8743
28948SOL    HW196774   2.598   2.351   7.044 -0.0713  0.1672 -0.3928
28948SOL    HW296775   2.672   2.402   6.922  1.2091  1.5481  0.9146
28949SOL     OW96776   6.386   3.261  10.294  0.4818 -0.0461  0.4524
28949SOL    HW196777   6.364   3.171  10.269  1.9573 -0.0891 -0.8339
28949SOL    HW296778   6.416   3.254  10.385  0.5333 -0.8384  0.3775
28950SOL     OW96779   2.112   6.629   9.597 -0.3049 -0.3535  0.1176
28950SOL    HW196780   2.146   6.631   9.686  2.3524  1.0755 -0.8292
28950SOL    HW296781   2.164   6.562   9.552 -1.2720 -0.7128 -0.5057
28951SOL     OW96782  10.807   3.920   0.034  0.1017  0.3170  0.3357
28951SOL    HW196783  10.869   3.977  -0.011 -0.9631  0.0537 -1.5522
28951SOL    HW296784  10.725   3.969   0.035 -0.0479  0.0819  1.5511
28952SOL     OW96785  11.818   2.695   1.249  0.5435 -0.3111  0.6269
28952SOL    HW196786  11.906   2.658   1.239  0.5696  0.1793 -1.4559
28952SOL    HW296787  11.760   2.620   1.257  0.9229 -0.7412 -0.4411
28953SOL     OW96788   2.264   4.585   7.406  0.1085 -0.5551  0.1231
28953SOL    HW196789   2.354   4.591   7.437  0.5559 -1.8517 -0.8480
28953SOL    HW296790   2.249   4.491   7.395 -1.9596 -0.5087  1.9356
28954SOL     OW96791   6.196   0.718  10.729 -0.0330  0.1326 -0.3210
28954SOL    HW196792   6.145   0.799  10.734  0.9662  0.7196  1.3610
28954SOL    HW296793   6.283   0.747  10.700 -0.0468 -0.5557 -1.0828
28955SOL     OW96794  11.245   9.140   9.154 -0.0499  0.1769  0.2097
28955SOL    HW196795  11.241   9.170   9.063  0.2066 -1.3827 -0.3342
28955SOL    HW296796  11.318   9.189   9.192 -0.1521  0.8366 -0.4220
28956SOL     OW96797   5.404  11.664   5.373 -0.4315  0.0716  0.2365
28956SOL    HW196798   5.353  11.639   5.296  0.8926  1.4255 -1.1505
28956SOL    HW296799   5.370  11.608   5.443 -0.8184 -2.1472 -1.5861
28957SOL     OW96800   8.249   9.611   7.067  0.1461  0.4005  0.0876
28957SOL    HW196801   8.302   9.667   7.123  1.3495  0.2075 -0.8244
28957SOL    HW296802   8.168   9.598   7.116  1.6962 -0.9535  2.4627
28958SOL     OW96803  11.556  12.687   6.469  0.0657 -0.3940  0.2750
28958SOL    HW196804  11.583  12.696   6.561  0.3323  0.9331  0.0858
28958SOL    HW296805  11.575  12.772   6.430 -2.0839 -0.1967 -0.4765
28959SOL     OW96806   3.269   8.584   4.820  0.3906  0.2107  0.1792
28959SOL    HW196807   3.353   8.631   4.818  0.4028  0.1715 -0.6834
28959SOL    HW296808   3.250   8.573   4.913  1.5735 -0.1880  0.3967
28960SOL     OW96809   7.278  12.394   6.907  0.1612  0.4427  0.2155
28960SOL    HW196810   7.281  12.482   6.869 -0.2239  0.5444  0.4138
28960SOL    HW296811   7.298  12.408   7.000 -0.0329  0.3397  0.2734
28961SOL     OW96812  10.106   1.709  12.458 -0.2706  0.4666  0.3615
28961SOL    HW196813  10.035   1.753  12.506 -0.2091  1.6852 -0.6222
28961SOL    HW296814  10.185   1.756  12.484 -0.1903  0.9056 -0.6097
28962SOL     OW96815   8.492  11.409   0.255 -0.5625 -0.2510 -0.7796
28962SOL    HW196816   8.465  11.325   0.291  1.1515 -0.5194  0.0151
28962SOL    HW296817   8.486  11.470   0.328 -1.3885  0.2357 -1.2414
28963SOL     OW96818   3.044   3.395  12.989 -0.3342  0.0732 -0.0242
28963SOL    HW196819   3.082   3.360  13.069 -1.7094 -0.6303  0.3605
28963SOL    HW296820   2.950   3.397  13.006 -0.5724  0.8334 -1.2707
28964SOL     OW96821  10.373   1.282   2.434 -0.5713 -0.0387 -0.0470
28964SOL    HW196822  10.454   1.261   2.388 -0.0505 -1.0579  1.2495
28964SOL    HW296823  10.376   1.376   2.449  1.4533 -0.3388  1.8636
28965SOL     OW96824   1.940   3.429   8.209 -0.1388 -0.3026 -0.0495
28965SOL    HW196825   1.876   3.456   8.275  1.5071 -0.8047  1.8478
28965SOL    HW296826   1.937   3.333   8.211 -0.2990 -0.3194 -0.9507
28966SOL     OW96827   0.329  10.622   9.986  0.0371 -0.0355  0.5418
28966SOL    HW196828   0.387  10.584   9.920 -0.1156 -0.9331  0.9142
28966SOL    HW296829   0.381  10.621  10.067 -0.4493 -0.7749  0.8597
28967SOL     OW96830   3.284   3.630   9.338  0.3920  0.1974  0.4530
28967SOL    HW196831   3.369   3.669   9.318  0.3866 -0.5365 -1.2444
28967SOL    HW296832   3.267   3.572   9.264 -1.3205 -0.1302  1.0531
28968SOL     OW96833   3.720   1.834  10.346 -0.1891  0.4721 -0.5352
28968SOL    HW196834   3.653   1.774  10.379  0.9252 -0.1297  0.7328
28968SOL    HW296835   3.724   1.817  10.252 -2.4743  1.2191 -0.8101
28969SOL     OW96836   2.214   7.350   7.412  0.3587 -0.0268 -0.6583
28969SOL    HW196837   2.253   7.437   7.407  0.9156 -0.2959 -1.0289
28969SOL    HW296838   2.122   7.365   7.390  0.6586  0.3291 -1.7355
28970SOL     OW96839   1.374   8.641   8.729  0.6350 -0.7640 -0.6680
28970SOL    HW196840   1.363   8.581   8.655  0.1427 -0.8625 -0.5186
28970SOL    HW296841   1.461   8.678   8.717  0.1608  0.0477 -1.9183
28971SOL     OW96842   1.112   3.477  12.370 -0.3439 -0.2838 -0.4895
28971SOL    HW196843   1.159   3.399  12.341  0.6925  0.4083 -0.7393
28971SOL    HW296844   1.144   3.547  12.313 -0.7626  0.4484  0.1553
28972SOL     OW96845   3.390   8.363   1.440 -0.6085  0.5575 -0.4554
28972SOL    HW196846   3.387   8.415   1.359  1.5373  1.1651 -0.2153
28972SOL    HW296847   3.482   8.337   1.448 -0.4376  1.7018  2.4921
28973SOL     OW96848  12.569   9.449  12.455 -0.1292  0.5020 -0.3560
28973SOL    HW196849  12.604   9.527  12.498 -2.6106  1.2349  0.5149
28973SOL    HW296850  12.563   9.474  12.363  0.6009  0.7401 -0.3468
28974SOL     OW96851  12.088   8.307   4.965 -0.4665  0.6499  0.2390
28974SOL    HW196852  12.055   8.247   4.899 -0.3473  1.4197 -0.5342
28974SOL    HW296853  12.014   8.321   5.024 -0.0746 -1.4312  1.3465
28975SOL     OW96854   1.066   5.387   0.705  0.2528  0.0435  0.0066
28975SOL    HW196855   0.993   5.435   0.665  0.1623  0.5032  0.6968
28975SOL    HW296856   1.042   5.295   0.696 -0.5517  0.1963  0.4605
28976SOL     OW96857  10.337  10.438   9.998  0.2555  0.5239  0.0802
28976SOL    HW196858  10.300  10.404   9.917 -0.4154  0.8097  0.2586
28976SOL    HW296859  10.283  10.515  10.019 -0.2629 -0.1571  1.3509
28977SOL     OW96860  11.932   3.525   8.170  0.1603 -0.2259 -0.0786
28977SOL    HW196861  11.862   3.460   8.163 -0.5237  0.5864 -1.0108
28977SOL    HW296862  12.008   3.481   8.134  0.6632 -1.7649  2.5413
28978SOL     OW96863  13.133   0.470   5.112 -0.4772 -0.4298 -0.8019
28978SOL    HW196864  13.121   0.552   5.064 -2.2390 -0.5000 -0.5710
28978SOL    HW296865  13.185   0.415   5.054  1.0471  0.9502 -0.8116
28979SOL     OW96866   1.975   7.151   0.562 -0.1805  0.2346  0.3390
28979SOL    HW196867   1.976   7.104   0.645 -1.6157 -1.3661 -0.4980
28979SOL    HW296868   1.907   7.217   0.573 -0.0264  0.3531  0.5961
28980SOL     OW96869   7.720   7.082   0.510 -0.1766 -0.2730  0.1250
28980SOL    HW196870   7.761   7.040   0.435 -0.4792  0.5657 -0.5319
28980SOL    HW296871   7.661   7.015   0.546 -0.5817 -0.4521 -0.8407
28981SOL     OW96872   6.663   7.982   2.635  0.0572 -0.1327 -0.8135
28981SOL    HW196873   6.710   7.910   2.593 -0.4556  0.1770 -1.9731
28981SOL    HW296874   6.725   8.055   2.636  0.4561 -0.4795  0.0321
28982SOL     OW96875   0.359   8.452  11.023  0.7447 -0.2571 -0.2697
28982SOL    HW196876   0.308   8.391  11.075 -0.2234 -0.2817 -1.2116
28982SOL    HW296877   0.385   8.520  11.085  0.2307 -0.6491  0.3909
28983SOL     OW96878   3.411   7.836   9.396 -0.5475  0.2811  0.1065
28983SOL    HW196879   3.327   7.800   9.366 -0.2280 -0.0641 -0.3913
28983SOL    HW296880   3.457   7.761   9.434  0.0038  0.2167 -0.6674
28984SOL     OW96881   3.493   4.330   8.736  0.5300 -0.0380  0.7487
28984SOL    HW196882   3.459   4.241   8.727 -1.2845  0.7219 -0.6449
28984SOL    HW296883   3.476   4.354   8.827 -2.9115  0.2844  0.1606
28985SOL     OW96884  10.646   5.216   5.481 -0.0631  0.1124 -0.1914
28985SOL    HW196885  10.612   5.302   5.456  0.0553 -0.3088 -2.0016
28985SOL    HW296886  10.717   5.235   5.542 -1.2678  1.1683  0.9454
28986SOL     OW96887  10.970   0.920   2.377 -0.3757 -0.1977 -0.0693
28986SOL    HW196888  10.992   0.994   2.434 -1.4301  0.8875 -1.0348
28986SOL    HW296889  10.884   0.891   2.407 -0.3503 -0.4669 -0.2544
28987SOL     OW96890   4.230   7.520  11.527  0.3167  0.2971 -0.2560
28987SOL    HW196891   4.144   7.497  11.564 -0.6731 -0.7423 -2.9586
28987SOL    HW296892   4.215   7.600  11.478  0.4392 -0.7146 -2.0326
28988SOL     OW96893  10.471  10.396   0.426 -0.3380  0.1526 -0.1383
28988SOL    HW196894  10.422  10.359   0.500 -2.5755  0.1547 -1.5476
28988SOL    HW296895  10.442  10.488   0.422 -0.0387  0.2173 -0.8577
28989SOL     OW96896   0.478   9.969   5.703 -0.0198  0.0965 -0.3724
28989SOL    HW196897   0.389   9.999   5.683 -0.7929 -0.9685  1.2345
28989SOL    HW296898   0.484   9.973   5.798  2.7255  2.9054 -0.4923
28990SOL     OW96899  10.637   6.831   2.949  0.0483  0.2870  0.2607
28990SOL    HW196900  10.572   6.816   3.018 -0.0312  0.2878  0.1853
28990SOL    HW296901  10.712   6.778   2.976 -0.4154 -0.6603 -0.2630
28991SOL     OW96902   1.314   7.790   1.966 -0.0378  0.1175  0.1946
28991SOL    HW196903   1.371   7.854   1.925  0.3751 -0.2407  0.2086
28991SOL    HW296904   1.314   7.715   1.906 -2.2929  0.9501 -0.9732
28992SOL     OW96905   4.476   3.744  12.044  0.0436 -0.0722  0.7607
28992SOL    HW196906   4.410   3.691  12.088  1.9398 -1.6389  1.9114
28992SOL    HW296907   4.558   3.695  12.057  1.3592  1.5339 -0.9806
28993SOL     OW96908   0.471   7.487  11.159 -0.0710 -0.6565 -0.0125
28993SOL    HW196909   0.446   7.579  11.173 -2.9770 -1.5658  1.5938
28993SOL    HW296910   0.426   7.462  11.079  1.3044 -0.5334 -0.8474
28994SOL     OW96911   2.773   5.248   9.746 -0.1217 -0.5625  0.1511
28994SOL    HW196912   2.803   5.189   9.815  1.0348 -1.1471 -0.8096
28994SOL    HW296913   2.744   5.327   9.793 -1.0231 -1.6030  1.3989
28995SOL     OW96914   2.769   1.779   1.858 -0.0233 -0.4408  0.2926
28995SOL    HW196915   2.823   1.730   1.796  0.7080 -0.2952  0.8009
28995SOL    HW296916   2.688   1.728   1.865 -0.4038 -0.1128 -1.2836
28996SOL     OW96917   2.587   6.218   8.719  0.0176 -0.0037 -0.0130
28996SOL    HW196918   2.507   6.175   8.691  0.0966  1.1343 -2.1319
28996SOL    HW296919   2.658   6.166   8.682  0.1629  0.7131 -0.7719
28997SOL     OW96920  13.176   0.883   7.213  0.2146 -0.2143 -0.5105
28997SOL    HW196921  13.125   0.892   7.132  0.4126 -2.9212 -1.0096
28997SOL    HW296922  13.111   0.892   7.283 -0.1084  1.1666 -0.9510
28998SOL     OW96923   1.358   0.751   6.803 -0.5146  0.0925  0.6535
28998SOL    HW196924   1.416   0.783   6.871  0.8779 -0.4393 -0.2365
28998SOL    HW296925   1.278   0.802   6.813 -0.7917 -0.7353  3.3650
28999SOL     OW96926   8.175  10.680   0.577 -0.2441  0.0868 -0.1518
28999SOL    HW196927   8.192  10.673   0.671  0.8273  0.4795 -0.3102
28999SOL    HW296928   8.080  10.694   0.571 -0.4725 -0.9079  0.8158
29000SOL     OW96929  13.181   8.074   9.882 -0.4028  0.6949 -0.4179
29000SOL    HW196930  13.196   8.036   9.796 -0.6328  0.3555 -0.3085
29000SOL    HW296931  13.256   8.133   9.895  1.2337 -1.3806  0.3429
29001SOL     OW96932   9.380   6.191   5.635 -0.5221 -0.5250  0.0394
29001SOL    HW196933   9.358   6.212   5.726  0.3131 -3.3477  0.9985
29001SOL    HW296934   9.311   6.232   5.583 -1.3705  0.6404  1.9721
29002SOL     OW96935   0.999   8.022   0.973  0.1403  0.0627 -0.0542
29002SOL    HW196936   1.018   7.937   0.934  1.3043  0.3152 -0.0527
29002SOL    HW296937   0.904   8.022   0.985 -0.1158 -0.4636 -1.8491
29003SOL     OW96938  10.467   3.560   6.359 -0.0742  0.5099 -0.2325
29003SOL    HW196939  10.494   3.488   6.302 -0.2486  0.5775 -0.4028
29003SOL    HW296940  10.527   3.632   6.336 -1.0056  0.9736 -1.3105
29004SOL     OW96941  11.450   9.965   9.575 -0.4742 -0.8416  0.3916
29004SOL    HW196942  11.454   9.872   9.599 -3.0687 -0.5892  2.1560
29004SOL    HW296943  11.524  10.005   9.621  2.6035 -2.3091 -2.7547
29005SOL     OW96944   6.092  12.374   0.828 -0.2114  0.4201  0.3284
29005SOL    HW196945   6.145  12.428   0.770  0.2827 -1.7462 -1.3859
29005SOL    HW296946   6.106  12.411   0.915  1.7814  1.7092 -0.4677
29006SOL     OW96947   5.939  13.269   3.635  1.2302  0.5146  0.2773
29006SOL    HW196948   5.876  13.283   3.706 -0.4739 -2.0945 -0.5654
29006SOL    HW296949   5.965  13.357   3.608 -1.6961  1.7289  1.0196
29007SOL     OW96950   2.139   0.774  10.085 -0.2256 -0.0204 -0.3574
29007SOL    HW196951   2.045   0.769  10.098 -0.5888  0.8954 -2.2905
29007SOL    HW296952   2.163   0.863  10.112 -0.1308  0.1565 -1.0091
29008SOL     OW96953  13.008   3.640   1.436  0.0487  0.1089  0.8538
29008SOL    HW196954  13.101   3.657   1.452 -0.3937  3.6315  0.5772
29008SOL    HW296955  13.002   3.617   1.344  0.5307  1.7061  0.3965
29009SOL     OW96956  13.092   2.359   4.079 -0.8141 -0.0056 -0.1976
29009SOL    HW196957  13.026   2.291   4.065  0.4001 -1.2315 -0.0567
29009SOL    HW296958  13.042   2.433   4.115 -2.0726 -0.9927  0.1529
29010SOL     OW96959   5.821   1.352   0.204 -0.2001 -0.1071  0.2832
29010SOL    HW196960   5.760   1.319   0.138  0.2496  0.1108 -0.2501
29010SOL    HW296961   5.833   1.279   0.264 -0.4511 -0.3833  0.0044
29011SOL     OW96962   0.079   6.514   2.081  0.8492 -0.0119 -0.6822
29011SOL    HW196963   0.127   6.597   2.073 -0.4351  0.6194 -2.3131
29011SOL    HW296964   0.123   6.456   2.019  0.5865  0.0416 -0.9212
29012SOL     OW96965   4.728  10.937  10.073 -0.3542 -0.0282  0.2751
29012SOL    HW196966   4.772  10.988  10.006 -0.7424  1.4318  1.0753
29012SOL    HW296967   4.674  11.001  10.120 -1.3030 -1.2839  0.9748
29013SOL     OW96968   2.437   7.586   0.333  0.0096  0.2607  0.1188
29013SOL    HW196969   2.453   7.492   0.329 -0.4626  0.2234 -1.5387
29013SOL    HW296970   2.366   7.595   0.397  0.4979 -0.4282  0.7728
29014SOL     OW96971   3.668   4.999  13.123 -0.0147  0.6301  0.0025
29014SOL    HW196972   3.744   5.017  13.178 -0.2895  1.5045  0.1039
29014SOL    HW296973   3.704   4.959  13.044  0.5386  0.9842  0.0726
29015SOL     OW96974   5.010  10.008   5.361 -0.8376  0.6436  0.3463
29015SOL    HW196975   5.091   9.979   5.319 -1.0511 -0.0562  0.3963
29015SOL    HW296976   4.951  10.028   5.289 -1.4211 -1.1704  0.2570
29016SOL     OW96977  11.262   9.645  12.579 -0.1731 -0.0167  0.2611
29016SOL    HW196978  11.209   9.619  12.654  0.1664 -0.8731  0.2178
29016SOL    HW296979  11.202   9.644  12.505 -0.9098  2.4650  0.7573
29017SOL     OW96980   5.945  11.170   4.581  0.8370 -0.2893 -0.0792
29017SOL    HW196981   5.934  11.164   4.486  0.1179 -0.9879  0.0377
29017SOL    HW296982   6.013  11.106   4.602  1.3430  0.2080 -0.1702
29018SOL     OW96983   1.963   3.674   4.153  0.2985  0.9938 -0.3788
29018SOL    HW196984   1.984   3.746   4.213 -0.4253  0.0008  1.1266
29018SOL    HW296985   1.872   3.689   4.128 -0.4159 -0.2139  1.2558
29019SOL     OW96986   7.303   4.414   0.418 -0.0405  0.2913  0.6623
29019SOL    HW196987   7.326   4.479   0.485  0.1819 -1.3410  2.2468
29019SOL    HW296988   7.355   4.337   0.441  0.9923  0.0246 -2.1609
29020SOL     OW96989  11.603  13.287   7.662 -0.3496 -0.4782  0.0606
29020SOL    HW196990  11.598  13.347   7.736  0.2481 -1.7305  1.1663
29020SOL    HW296991  11.559  13.208   7.693 -0.2105 -0.9772 -0.9738
29021SOL     OW96992   9.801   8.647  11.801 -0.0143 -0.3326  0.3052
29021SOL    HW196993   9.883   8.602  11.777 -1.5845 -2.2787 -1.8050
29021SOL    HW296994   9.754   8.583  11.855 -1.2233 -0.2775 -0.6534
29022SOL     OW96995   3.871   6.708   0.022  0.0090 -0.2079 -0.0201
29022SOL    HW196996   3.838   6.766   0.090  3.1653 -1.0121  2.4177
29022SOL    HW296997   3.818   6.629   0.029 -0.2957  0.0673  0.8452
29023SOL     OW96998  10.415  10.511   6.092  0.4117  0.3302 -0.1295
29023SOL    HW196999  10.371  10.576   6.035 -1.0929 -0.4175  0.1306
29023SOL    HW297000  10.508  10.523   6.073 -0.0119  0.0213 -2.8951
29024SOL     OW97001  13.299   4.952  10.422  0.4010 -0.4828 -0.2717
29024SOL    HW197002  13.273   4.928  10.511 -0.8968 -0.6377 -0.6703
29024SOL    HW297003  13.229   5.010  10.392  0.4807 -0.9635 -1.4313
29025SOL     OW97004   1.684   5.865   4.556 -0.4531 -0.0951 -0.0571
29025SOL    HW197005   1.775   5.886   4.576 -0.4365  1.6382 -1.6410
29025SOL    HW297006   1.636   5.896   4.633  0.1415  0.7031  0.0155
29026SOL     OW97007   1.808   4.250   5.520 -0.2558  0.6695  0.0997
29026SOL    HW197008   1.724   4.246   5.565 -0.1243  3.6893  0.8429
29026SOL    HW297009   1.786   4.271   5.430 -0.3160  0.8805  0.1638
29027SOL     OW97010   0.774  12.732   6.746 -0.0124  0.3032 -0.1693
29027SOL    HW197011   0.836  12.773   6.806 -0.6551  0.8492  0.1357
29027SOL    HW297012   0.758  12.645   6.783 -0.0539  0.4671  0.2057
29028SOL     OW97013   9.540   4.770  12.031 -0.0238  0.5108 -0.1652
29028SOL    HW197014   9.464   4.792  12.086 -0.0085  0.6819 -0.2108
29028SOL    HW297015   9.503   4.718  11.960 -0.4961  2.4577 -1.4474
29029SOL     OW97016  10.610  12.463  12.686  0.2279  0.7270  0.1382
29029SOL    HW197017  10.534  12.507  12.648  0.1220 -0.2666 -0.8640
29029SOL    HW297018  10.573  12.394  12.741  0.3818 -0.3055 -1.0188
29030SOL     OW97019   9.537   0.238  13.139  0.4988  0.4557  0.0253
29030SOL    HW197020   9.573   0.326  13.128 -0.4313  0.7563 -0.7405
29030SOL    HW297021   9.453   0.240  13.092  2.0046 -1.8365 -3.1513
29031SOL     OW97022  11.035   0.031   3.503 -0.2274  0.2627  0.1606
29031SOL    HW197023  11.113   0.029   3.447 -1.5161 -1.1303 -1.7148
29031SOL    HW297024  11.067   0.062   3.588  2.1830  0.5927 -0.7894
29032SOL     OW97025   2.622   7.762   0.227 -0.0892 -0.4448 -0.4057
29032SOL    HW197026   2.539   7.714   0.230 -0.2011 -0.2380  2.1646
29032SOL    HW297027   2.688   7.698   0.253  0.4189 -0.3012 -1.2984
29033SOL     OW97028   0.532   0.811   6.379 -0.2953  0.0395 -0.4434
29033SOL    HW197029   0.545   0.906   6.388  1.6657 -0.0894 -1.3400
29033SOL    HW297030   0.535   0.778   6.469  3.1826  0.4554 -0.2473
29034SOL     OW97031   5.265   6.047   4.672 -0.1187  0.2611  0.3086
29034SOL    HW197032   5.217   6.123   4.639 -0.1255 -0.2797 -0.9549
29034SOL    HW297033   5.357   6.065   4.649 -0.1847 -0.3321 -0.4316
29035SOL     OW97034  12.419   5.354   8.404 -0.0556 -0.0194 -0.6327
29035SOL    HW197035  12.349   5.310   8.453  0.0867 -0.1401 -0.5378
29035SOL    HW297036  12.382   5.369   8.317 -0.5927  0.8993 -0.2611
29036SOL     OW97037   0.961   0.720   6.933 -0.1381 -0.2349  0.3813
29036SOL    HW197038   0.947   0.646   6.874 -2.8204  1.9454 -2.0768
29036SOL    HW297039   0.873   0.749   6.956  0.6914  3.0596 -0.0681
29037SOL     OW97040   8.045  11.480   7.415 -0.3162  0.2117 -0.1923
29037SOL    HW197041   8.061  11.561   7.366  1.1977 -0.8949 -1.6232
29037SOL    HW297042   8.046  11.411   7.349 -0.4699 -1.1057  1.1359
29038SOL     OW97043   1.473   5.613   6.371  0.2282  0.3555 -0.0320
29038SOL    HW197044   1.451   5.628   6.279  2.0135  1.4808 -0.3206
29038SOL    HW297045   1.420   5.675   6.420  0.4461  0.8635 -0.4394
29039SOL     OW97046   3.026  10.621   8.403  0.0595  0.0852 -0.0089
29039SOL    HW197047   2.935  10.648   8.387 -0.3912 -0.8689  0.8428
29039SOL    HW297048   3.026  10.590   8.493  1.7198  1.9977  0.7097
29040SOL     OW97049   6.898   8.100   8.847 -0.1315 -0.2589  0.4194
29040SOL    HW197050   6.825   8.161   8.839 -0.6154 -0.7328  1.0887
29040SOL    HW297051   6.897   8.073   8.939  1.1384  0.0282  0.5342
29041SOL     OW97052   4.738   9.555   9.414 -0.2475 -0.2030  0.7598
29041SOL    HW197053   4.695   9.561   9.328  0.5988 -0.8067  0.2765
29041SOL    HW297054   4.696   9.623   9.466 -0.2281  0.7350 -0.3861
29042SOL     OW97055   7.270  12.516   3.520 -0.3978  0.1467 -0.0763
29042SOL    HW197056   7.184  12.546   3.489 -0.5533 -1.6813 -1.5986
29042SOL    HW297057   7.332  12.578   3.482 -0.9615  1.0026  0.3548
29043SOL     OW97058   3.084   2.500  11.330 -0.4137 -0.6370  0.6568
29043SOL    HW197059   3.019   2.537  11.390  1.3024  1.5816  1.2860
29043SOL    HW297060   3.081   2.557  11.253  0.6008 -0.6710  0.5820
29044SOL     OW97061   4.193  12.104   3.035  0.0930  0.2420 -0.7815
29044SOL    HW197062   4.194  12.192   2.997  1.1969  1.3701  1.6506
29044SOL    HW297063   4.243  12.112   3.116 -2.1101 -1.9811  0.9435
29045SOL     OW97064  11.035   1.056  10.909  0.2025  0.3127  0.9953
29045SOL    HW197065  10.952   1.089  10.942  1.3166  1.0419  3.2451
29045SOL    HW297066  11.102   1.105  10.957  1.9597 -0.2381 -0.7501
29046SOL     OW97067   2.649   5.755   6.794 -0.2403 -0.0477  0.3527
29046SOL    HW197068   2.621   5.841   6.762  1.7706  1.5051  2.4370
29046SOL    HW297069   2.676   5.708   6.715  2.0625  2.6360 -0.6548
29047SOL     OW97070   2.275   4.392   2.181 -0.3044  0.2460 -0.2174
29047SOL    HW197071   2.260   4.463   2.119 -1.3183  1.2688  1.1274
29047SOL    HW297072   2.247   4.428   2.265 -1.9203 -2.1195  0.3379
29048SOL     OW97073   2.634  11.013  10.817 -0.4148  0.3070  0.2136
29048SOL    HW197074   2.683  10.936  10.787  2.0357  1.6824  0.4031
29048SOL    HW297075   2.565  10.978  10.872  0.2647 -1.7949 -0.1932
29049SOL     OW97076   2.567   2.374   1.299  0.1420 -0.2828  0.4017
29049SOL    HW197077   2.583   2.283   1.326  0.2861 -0.1586  0.7436
29049SOL    HW297078   2.501   2.367   1.230  0.7791 -0.7181 -0.1833
29050SOL     OW97079   1.514   0.758   7.308  0.6623  0.2078 -0.2662
29050SOL    HW197080   1.597   0.744   7.354  0.5047  0.4798  0.1090
29050SOL    HW297081   1.490   0.848   7.330  0.5687  0.3334 -0.8617
29051SOL     OW97082   2.296   7.019   8.888 -0.5387  0.3168 -0.4269
29051SOL    HW197083   2.327   6.934   8.918 -1.2928  0.1195 -0.1907
29051SOL    HW297084   2.301   7.075   8.965 -3.2276 -0.3901  0.3728
29052SOL     OW97085   4.867  13.169   1.003  0.1890  0.2344 -0.3331
29052SOL    HW197086   4.828  13.255   0.995 -0.6621  0.1751  2.2389
29052SOL    HW297087   4.923  13.174   1.080  1.4450 -1.0754 -1.0906
29053SOL     OW97088  11.713   0.464  12.308  0.2125 -0.3458 -0.0233
29053SOL    HW197089  11.681   0.374  12.306  1.5647 -0.8413 -1.2777
29053SOL    HW297090  11.806   0.456  12.328  0.6712  0.6420 -1.5226
29054SOL     OW97091   5.961   8.983   3.203  0.2119 -0.2032 -0.0426
29054SOL    HW197092   5.899   8.921   3.166 -1.1637  0.0562  1.7062
29054SOL    HW297093   5.929   9.069   3.174  0.5958 -0.1442 -0.3031
29055SOL     OW97094  11.492  11.616   1.770 -0.2047 -0.3158 -0.4700
29055SOL    HW197095  11.560  11.578   1.825 -1.7978 -0.8650  1.2107
29055SOL    HW297096  11.469  11.698   1.812  1.4143  1.3952 -2.6795
29056SOL     OW97097   0.720  11.963   5.543  0.2498 -0.4146 -0.5131
29056SOL    HW197098   0.678  11.975   5.458  1.3707 -0.0196 -1.0292
29056SOL    HW297099   0.813  11.954   5.523  0.6804  0.9008  0.7619
29057SOL     OW97100   8.413  10.024  10.192  0.7689 -0.3025 -0.3331
29057SOL    HW197101   8.400   9.994  10.101  0.2681  1.1070 -0.7420
29057SOL    HW297102   8.327  10.018  10.232  0.9498 -0.7209 -0.0011
29058SOL     OW97103   4.795   2.718   7.411  0.4044 -0.5299  0.3448
29058SOL    HW197104   4.851   2.795   7.402 -0.2751 -0.1436 -0.9362
29058SOL    HW297105   4.752   2.728   7.496 -0.1027  0.8196 -0.0422
29059SOL     OW97106   9.304  12.499   8.323  0.4185  0.4077 -0.0855
29059SOL    HW197107   9.214  12.479   8.348  0.3213 -1.1387 -1.5102
29059SOL    HW297108   9.332  12.423   8.272  2.3040  1.1705 -0.2605
29060SOL     OW97109   3.570   8.650   5.747  0.2755  0.0128  0.1953
29060SOL    HW197110   3.589   8.612   5.833 -0.3702  0.0557  0.3599
29060SOL    HW297111   3.487   8.697   5.759  0.6570  0.8088 -0.2060
29061SOL     OW97112   4.754   1.184   2.444  0.9896  0.1659  0.6035
29061SOL    HW197113   4.732   1.243   2.373  1.0776 -0.5642 -0.0409
29061SOL    HW297114   4.685   1.198   2.509 -0.2599 -0.5914 -0.4910
29062SOL     OW97115  11.166   3.296  10.401 -0.0485  0.2798  0.4647
29062SOL    HW197116  11.169   3.315  10.495  0.1167 -2.2209  1.0518
29062SOL    HW297117  11.210   3.211  10.393  1.3200  1.1271 -2.1111
29063SOL     OW97118   1.226  11.765   1.296 -0.5208  0.0949 -0.2757
29063SOL    HW197119   1.154  11.726   1.246 -0.4395 -0.3212 -0.0701
29063SOL    HW297120   1.189  11.780   1.384 -0.1240 -0.8450  0.0567
29064SOL     OW97121   6.097  11.459  10.041  0.4779 -0.0898  0.6132
29064SOL    HW197122   6.132  11.379  10.001  0.7609  0.6311 -0.6367
29064SOL    HW297123   6.020  11.430  10.089 -0.5989 -0.8673 -1.4287
29065SOL     OW97124   1.623   5.991   9.341  0.6064 -0.2024  0.1115
29065SOL    HW197125   1.600   5.991   9.248 -2.1341  1.5372  0.6694
29065SOL    HW297126   1.615   5.899   9.367  1.1505 -0.6810 -1.2604
29066SOL     OW97127  11.043   7.715   5.721  0.2807 -0.0205  0.0395
29066SOL    HW197128  11.069   7.772   5.649 -0.9021  1.1594  0.5046
29066SOL    HW297129  11.086   7.631   5.702 -0.1556  0.1860 -2.1457
29067SOL     OW97130   8.061   2.656   8.274 -0.3510 -0.3060  0.0631
29067SOL    HW197131   8.096   2.574   8.311  0.0493  0.5551  1.7069
29067SOL    HW297132   7.968   2.654   8.296  0.0082  0.5289  1.9166
29068SOL     OW97133   0.641  11.795   7.378  0.6041 -0.3287  0.0387
29068SOL    HW197134   0.648  11.712   7.424 -0.1620  0.5605  1.8682
29068SOL    HW297135   0.730  11.816   7.352  0.8095 -1.6768 -0.3764
29069SOL     OW97136   4.704   1.747   4.794 -0.1194  0.3837  0.0787
29069SOL    HW197137   4.733   1.656   4.804 -1.2725  0.1131  1.1344
29069SOL    HW297138   4.641   1.761   4.865 -0.8076  1.6682 -0.7373
29070SOL     OW97139   5.635   7.743   5.707 -0.1144  0.4994  0.1247
29070SOL    HW197140   5.712   7.752   5.650 -0.5711  0.0188 -0.5842
29070SOL    HW297141   5.671   7.723   5.793  0.6614  2.7848  0.3864
29071SOL     OW97142   0.165   4.552   5.121  0.1568 -0.4622 -0.4069
29071SOL    HW197143   0.070   4.554   5.112  0.2585  2.1890 -2.0909
29071SOL    HW297144   0.186   4.461   5.141 -2.7452 -1.0117  0.5763
29072SOL     OW97145   9.072   8.444   5.012 -0.5549 -0.0261 -0.1295
29072SOL    HW197146   9.123   8.454   5.093 -1.8498 -2.2955  1.0741
29072SOL    HW297147   8.989   8.406   5.040 -1.0778 -0.8672 -2.5177
29073SOL     OW97148   4.322   6.841   4.338  0.5005  0.3847 -0.4774
29073SOL    HW197149   4.336   6.747   4.325  2.0926  0.4217  0.5479
29073SOL    HW297150   4.244   6.862   4.288 -0.5174 -1.7034  0.1361
29074SOL     OW97151   5.813   3.078  12.378  0.7791  0.2740  0.3836
29074SOL    HW197152   5.822   2.983  12.374 -1.2439  0.0570 -1.1580
29074SOL    HW297153   5.781   3.095  12.466 -0.0824 -0.6465  0.2710
29075SOL     OW97154   3.564  11.902   9.399  0.7812  0.6095  0.5326
29075SOL    HW197155   3.474  11.876   9.376  0.8124 -0.8113  1.7885
29075SOL    HW297156   3.561  11.997   9.405 -0.9333  0.5254  1.6120
29076SOL     OW97157   1.239  10.654   5.608  0.0719 -0.1510  0.1392
29076SOL    HW197158   1.263  10.604   5.530 -0.3540 -2.1825  1.2330
29076SOL    HW297159   1.308  10.636   5.671  0.0913  0.9695  0.4686
29077SOL     OW97160   5.126   0.038  12.528  0.4579  0.5820 -0.1805
29077SOL    HW197161   5.099  -0.051  12.550 -2.8537  1.7504  1.2327
29077SOL    HW297162   5.179   0.066  12.603 -0.0982  0.3837  0.2955
29078SOL     OW97163  11.963   7.298   9.923 -0.2713  0.0547  0.5852
29078SOL    HW197164  12.029   7.238   9.889  0.0918 -0.3334  1.8958
29078SOL    HW297165  11.927   7.252   9.999 -2.5710 -0.0649 -0.4843
29079SOL     OW97166   1.542   9.061   2.208 -0.2137  0.4117  0.2518
29079SOL    HW197167   1.511   8.979   2.245  1.0335 -1.9016 -3.3476
29079SOL    HW297168   1.474   9.125   2.232 -2.8319 -2.3102  0.6302
29080SOL     OW97169   1.115   3.754   0.340  0.5787 -0.3006 -0.2846
29080SOL    HW197170   1.153   3.800   0.415 -2.4865  1.4842  0.3561
29080SOL    HW297171   1.155   3.795   0.263 -0.4510  1.9990  0.3314
29081SOL     OW97172  11.437   6.396   9.003  0.2449  0.0026 -0.3801
29081SOL    HW197173  11.448   6.414   8.909  1.7134  0.9411 -0.0695
29081SOL    HW297174  11.518   6.428   9.043 -0.5555  0.0850  1.2745
29082SOL     OW97175   3.101   7.749   3.571 -0.0443  0.2047 -0.2987
29082SOL    HW197176   3.190   7.766   3.601 -0.3958 -0.3007  1.0898
29082SOL    HW297177   3.045   7.799   3.630 -0.7074  0.2388 -0.9337
29083SOL     OW97178  13.190  11.923   9.959  0.0635 -0.4222  0.1153
29083SOL    HW197179  13.127  11.906   9.889 -0.8385  0.1316  0.7778
29083SOL    HW297180  13.212  11.837   9.993  0.8293 -0.7330 -1.1100
29084SOL     OW97181   4.881   6.932   7.516 -0.2766  0.3460  0.1262
29084SOL    HW197182   4.837   7.011   7.547  1.3832  1.7892 -1.0040
29084SOL    HW297183   4.959   6.925   7.571 -0.3276 -0.4105  0.1033
29085SOL     OW97184   1.349   7.467   3.766  0.1110 -0.3641  0.8395
29085SOL    HW197185   1.369   7.427   3.850 -2.0790 -1.8936  0.7166
29085SOL    HW297186   1.298   7.545   3.788  1.8274  0.7794  0.9651
29086SOL     OW97187   2.664   5.035   9.613 -1.0510  0.0317  0.1231
29086SOL    HW197188   2.580   5.081   9.620 -1.2199 -0.4613  1.8126
29086SOL    HW297189   2.730   5.104   9.618 -1.3340  0.2579  1.1950
29087SOL     OW97190   1.220   2.689   5.744  0.3015 -0.8803  0.1120
29087SOL    HW197191   1.285   2.635   5.698  0.5107 -0.6390  0.1234
29087SOL    HW297192   1.268   2.726   5.818  0.7808  1.0990 -1.1040
29088SOL     OW97193  12.552  13.149   1.313  0.1885 -0.7344  0.2420
29088SOL    HW197194  12.641  13.130   1.282 -0.0771  0.2809 -1.2599
29088SOL    HW297195  12.555  13.130   1.407  2.2831  0.1946  0.4279
29089SOL     OW97196  12.184   9.014  12.228 -0.4058 -0.4325 -0.4747
29089SOL    HW197197  12.256   8.962  12.195  0.6665  0.2769  0.6622
29089SOL    HW297198  12.166   9.077  12.158 -1.2604 -1.8207 -1.5691
29090SOL     OW97199   0.037   4.412   8.180 -0.6086  0.0066 -0.4609
29090SOL    HW197200   0.043   4.479   8.248  1.4679 -0.0966 -0.4946
29090SOL    HW297201  -0.019   4.344   8.219  1.1759 -0.4300  1.5368
29091SOL     OW97202  11.266   6.152   5.832 -0.0758  0.6697 -0.0108
29091SOL    HW197203  11.341   6.128   5.888 -2.2191 -0.1113  2.7448
29091SOL    HW297204  11.240   6.239   5.862 -1.8272 -0.1395  0.9784
29092SOL     OW97205   8.006   4.760   9.278  0.0792 -0.2497  0.3888
29092SOL    HW197206   8.031   4.815   9.352 -1.5155 -0.9406  1.4812
29092SOL    HW297207   7.911   4.755   9.282  0.0204 -1.0346 -1.1829
29093SOL     OW97208   1.572   3.457  12.971  0.6482  0.0889 -0.3314
29093SOL    HW197209   1.593   3.498  13.055 -1.6019  1.2889 -0.2789
29093SOL    HW297210   1.484   3.421  12.983  1.6383 -2.8601 -1.1091
29094SOL     OW97211   5.601   4.508  10.760  0.1470  0.4115 -0.0165
29094SOL    HW197212   5.653   4.574  10.714  1.8178 -1.1110 -0.4311
29094SOL    HW297213   5.587   4.546  10.847  0.8601  1.4043 -0.3061
29095SOL     OW97214  10.662   9.005   4.253  0.1377  0.5711  0.1400
29095SOL    HW197215  10.666   9.100   4.268 -1.0875  0.8693 -1.1094
29095SOL    HW297216  10.569   8.984   4.265 -0.0882  0.0419 -2.1503
29096SOL     OW97217   0.567   5.427   4.771 -0.1725  0.0996  0.2768
29096SOL    HW197218   0.587   5.389   4.686 -1.3440  0.2113 -0.0628
29096SOL    HW297219   0.613   5.371   4.834  0.0592 -0.4443 -0.3704
29097SOL     OW97220   5.832   2.011   4.664 -0.2268 -0.4369  0.0542
29097SOL    HW197221   5.822   2.026   4.758 -0.8908 -0.9443  0.0760
29097SOL    HW297222   5.778   1.934   4.646  1.5214 -1.6452 -0.3719
29098SOL     OW97223   6.834   0.718   0.083  0.2135  0.3708  0.1175
29098SOL    HW197224   6.867   0.691  -0.003  1.4323  1.7989  0.0995
29098SOL    HW297225   6.746   0.751   0.065 -0.6449 -1.8657 -0.1128
29099SOL     OW97226   7.272   4.765  12.146  0.3497  0.2302 -0.1034
29099SOL    HW197227   7.272   4.857  12.121  1.3237  0.0838 -0.6565
29099SOL    HW297228   7.364   4.743  12.159  0.2431 -0.9975 -1.2287
29100SOL     OW97229  11.624  11.493   0.705 -0.7495 -0.3698  0.0071
29100SOL    HW197230  11.633  11.585   0.730 -2.0014  1.1609 -4.3687
29100SOL    HW297231  11.714  11.464   0.691 -0.3955  0.5450  0.2886
29101SOL     OW97232   9.785   6.997  12.842  0.3909 -0.6608 -0.4103
29101SOL    HW197233   9.846   6.964  12.776  2.1538  0.5750  0.5203
29101SOL    HW297234   9.805   6.946  12.921 -0.3593 -0.7949 -0.2989
29102SOL     OW97235   0.591  12.295   7.220  0.4134  0.4490 -0.2752
29102SOL    HW197236   0.531  12.274   7.148 -0.5038  0.4898  0.4571
29102SOL    HW297237   0.549  12.257   7.297  0.5630  1.7731  0.4930
29103SOL     OW97238   8.215   7.427   2.249  0.4111 -0.0764  0.0260
29103SOL    HW197239   8.205   7.334   2.231 -1.7101 -0.1068  1.1066
29103SOL    HW297240   8.143   7.470   2.203  0.9589  0.9621  0.0865
29104SOL     OW97241   1.839   5.101   7.071  0.0824 -0.0720  0.0534
29104SOL    HW197242   1.859   5.174   7.129  1.0842 -1.0050  0.9133
29104SOL    HW297243   1.746   5.083   7.086  0.3819 -0.4552  1.5767
29105SOL     OW97244  11.690   4.521   3.073  0.2910 -0.0327  0.2626
29105SOL    HW197245  11.673   4.426   3.072  3.0999 -0.6239 -0.6853
29105SOL    HW297246  11.676   4.547   3.164 -1.1860 -1.1845  0.4060
29106SOL     OW97247   0.491  10.929   4.991  0.0391 -0.0227  0.6670
29106SOL    HW197248   0.475  10.857   5.052 -1.5091 -1.1548 -0.9349
29106SOL    HW297249   0.530  10.887   4.914  0.6518  1.1308  0.3197
29107SOL     OW97250   2.274  11.558  11.970  0.4495 -0.0426  0.0575
29107SOL    HW197251   2.367  11.577  11.980  0.1564  0.6350  1.7653
29107SOL    HW297252   2.243  11.622  11.905  1.1313 -0.2023 -0.4317
29108SOL     OW97253  12.669   9.748  10.477  0.1124 -0.0717 -0.2695
29108SOL    HW197254  12.676   9.783  10.388  1.1837  1.4854  0.3793
29108SOL    HW297255  12.589   9.786  10.511  0.2702  0.2039 -0.2071
29109SOL     OW97256   7.140   5.723   9.109  0.5332 -0.1681 -0.2247
29109SOL    HW197257   7.062   5.671   9.128 -0.2038  1.6610  2.1796
29109SOL    HW297258   7.210   5.683   9.161  0.2230  0.5837  0.7804
29110SOL     OW97259   5.323   4.151   0.746 -0.1437  0.4754  0.2055
29110SOL    HW197260   5.233   4.119   0.737 -0.0541  0.7742 -3.3650
29110SOL    HW297261   5.377   4.078   0.714  0.5310  1.5734 -1.3079
29111SOL     OW97262  12.989  10.226   8.246 -0.2887  0.4320  0.5491
29111SOL    HW197263  13.052  10.182   8.189 -0.7109 -1.5156  1.4953
29111SOL    HW297264  13.042  10.253   8.322 -0.7637 -2.9148  2.2549
29112SOL     OW97265   9.956   8.877   3.072  0.4538 -0.5718  0.1568
29112SOL    HW197266   9.947   8.889   2.977 -0.5535  0.8234  0.3919
29112SOL    HW297267  10.051   8.878   3.086  0.6364 -1.3236 -0.8894
29113SOL     OW97268  11.171   9.991   6.698 -0.3759  0.1691 -0.1069
29113SOL    HW197269  11.153   9.995   6.604  0.3120 -0.8429 -0.3000
29113SOL    HW297270  11.263  10.015   6.706 -0.1436 -0.7639  0.1767
29114SOL     OW97271   8.853   3.169   3.966  0.4786  0.0187 -0.0026
29114SOL    HW197272   8.891   3.131   3.886 -1.6479  1.6577 -1.9333
29114SOL    HW297273   8.884   3.259   3.967 -0.5832  0.4054  0.2065
29115SOL     OW97274   1.545   1.892   8.811 -0.1791 -0.7481  0.6601
29115SOL    HW197275   1.587   1.947   8.877  0.6139 -1.1578  0.5065
29115SOL    HW297276   1.503   1.821   8.861 -0.2309 -0.6377  0.7736
29116SOL     OW97277  12.883  13.277  10.328  0.2246 -0.1080 -0.0401
29116SOL    HW197278  12.869  13.218  10.402  2.0706 -0.4521  0.1021
29116SOL    HW297279  12.809  13.338  10.331  0.9099  0.7660  2.9836
29117SOL     OW97280   7.407   0.851   6.551 -0.0545  0.3301  0.1872
29117SOL    HW197281   7.450   0.776   6.510 -1.3573 -0.2579 -0.1697
29117SOL    HW297282   7.361   0.895   6.478 -0.4249  0.6680  0.6149
29118SOL     OW97283   0.874   7.853   0.178  0.0733  0.5345  0.1753
29118SOL    HW197284   0.819   7.786   0.218  1.1471 -0.8456 -0.5552
29118SOL    HW297285   0.864   7.839   0.084 -0.8674  2.4271 -0.0473
29119SOL     OW97286   8.931   7.944  10.269  0.2472  0.0239  0.1824
29119SOL    HW197287   8.846   7.941  10.311  0.5985 -1.6997  0.8152
29119SOL    HW297288   8.970   7.859  10.286  0.5477 -0.6885 -3.3883
29120SOL     OW97289   0.441   2.643   4.050  0.0490 -0.2694 -0.6483
29120SOL    HW197290   0.470   2.671   4.137 -0.2237 -1.5042 -0.1345
29120SOL    HW297291   0.381   2.712   4.022  1.2431  0.8659 -0.4926
29121SOL     OW97292   8.726   6.899   9.879 -0.5766 -0.1243  0.4312
29121SOL    HW197293   8.821   6.888   9.884 -0.5515 -0.2070 -0.1709
29121SOL    HW297294   8.704   6.958   9.951 -0.0089  0.2937  0.2614
29122SOL     OW97295   1.792   2.810   2.799 -0.0428 -0.5786 -0.3277
29122SOL    HW197296   1.722   2.773   2.744 -0.0765 -2.6181  0.9742
29122SOL    HW297297   1.754   2.817   2.886  0.6894  0.4924 -0.0741
29123SOL     OW97298   5.192   6.150  10.640  0.0990  0.4771  0.1264
29123SOL    HW197299   5.263   6.178  10.581  0.8318  1.1914  1.3263
29123SOL    HW297300   5.128   6.221  10.636 -0.3240  0.0761 -0.5389
29124SOL     OW97301   5.310   2.203   8.225 -0.5311  0.2582  0.9421
29124SOL    HW197302   5.305   2.110   8.203  0.1661  0.6531 -1.1538
29124SOL    HW297303   5.404   2.220   8.238 -0.4554  0.9464 -0.2930
29125SOL     OW97304  12.148   6.700   3.431  0.4964  0.0486 -0.0489
29125SOL    HW197305  12.141   6.794   3.451 -2.1042  0.2103 -1.3278
29125SOL    HW297306  12.176   6.698   3.340  2.0594 -0.5000  0.4131
29126SOL     OW97307   4.720   3.987   5.772  0.2614  0.4143 -0.1787
29126SOL    HW197308   4.648   3.973   5.711  0.5064 -1.2215 -0.1276
29126SOL    HW297309   4.796   4.005   5.716  0.2911 -0.1676 -0.3301
29127SOL     OW97310   2.485   3.530   0.961 -0.3096  0.1902  0.0569
29127SOL    HW197311   2.423   3.517   0.889 -2.5234  2.1230  1.4651
29127SOL    HW297312   2.492   3.445   1.003 -0.0487 -0.6355 -1.5889
29128SOL     OW97313   8.460   7.179   7.115  0.2838  0.6715  0.2302
29128SOL    HW197314   8.512   7.116   7.166  1.0816 -0.0533 -1.4023
29128SOL    HW297315   8.463   7.146   7.025 -2.5446  0.9488 -0.0409
29129SOL     OW97316   1.149   6.727   2.002  0.1645  0.2087 -0.0222
29129SOL    HW197317   1.117   6.644   2.037  2.3667 -0.5512  0.3044
29129SOL    HW297318   1.185   6.704   1.916  1.7117  0.6195  0.5002
29130SOL     OW97319   1.174   1.035   4.902  0.4334  0.4238  0.4526
29130SOL    HW197320   1.184   1.079   4.986  1.6896  0.1330  0.4757
29130SOL    HW297321   1.249   0.975   4.897 -0.0595 -0.1360 -0.5204
29131SOL     OW97322   2.811   4.011  10.425  0.0966 -0.1602 -0.0870
29131SOL    HW197323   2.814   3.959  10.344 -3.3357  3.1323 -2.6894
29131SOL    HW297324   2.802   4.102  10.395 -0.9354  1.3274  4.0176
29132SOL     OW97325   2.005  10.213   2.618 -0.3722 -0.2053 -0.8428
29132SOL    HW197326   1.957  10.276   2.671 -1.3445  0.7224 -2.7480
29132SOL    HW297327   2.092  10.211   2.658 -1.3244 -0.3757  1.4186
29133SOL     OW97328   3.433   4.037   1.476 -0.3630  0.1752 -0.4111
29133SOL    HW197329   3.485   4.114   1.501 -1.0097  0.5886 -0.3310
29133SOL    HW297330   3.489   3.963   1.500  0.8887  0.6046 -1.8159
29134SOL     OW97331   6.138   5.767   1.934 -0.1585  0.3471 -0.1913
29134SOL    HW197332   6.220   5.762   1.983 -1.0591  2.3943  1.7040
29134SOL    HW297333   6.111   5.676   1.921  1.2007 -0.2897  1.2624
29135SOL     OW97334   9.467   7.997   7.573  0.1606 -0.5333  0.1098
29135SOL    HW197335   9.476   7.999   7.478 -0.0398 -0.5466  0.0908
29135SOL    HW297336   9.525   8.066   7.605 -1.6247  1.1780 -0.1571
29136SOL     OW97337   8.620   6.051   8.991 -0.2352  0.0694  0.7368
29136SOL    HW197338   8.548   6.028   9.051 -0.6161  0.0073  0.2594
29136SOL    HW297339   8.680   5.976   8.997 -0.7987 -0.4339  0.2348
29137SOL     OW97340   4.021   0.044   8.468 -0.5205  0.3408  0.4273
29137SOL    HW197341   4.082  -0.017   8.508  1.7957  2.3215  0.1029
29137SOL    HW297342   3.964   0.071   8.540  2.4457  2.4929  2.1904
29138SOL     OW97343   0.139   7.489   9.117 -0.0766  0.4771 -0.2571
29138SOL    HW197344   0.133   7.505   9.023  0.6900 -2.5249 -0.9255
29138SOL    HW297345   0.063   7.435   9.137  1.0722 -1.0251  0.2673
29139SOL     OW97346   2.106   6.458   3.287  0.4830  0.0444  0.1226
29139SOL    HW197347   2.098   6.523   3.356 -0.5861  0.8667 -0.7414
29139SOL    HW297348   2.174   6.492   3.229 -1.7020  1.7187 -1.6397
29140SOL     OW97349  10.125   8.051   1.104 -0.0040  0.5012 -0.4259
29140SOL    HW197350  10.043   8.096   1.083  0.9161  2.1057 -0.7521
29140SOL    HW297351  10.167   8.108   1.168  0.4924 -0.7281  0.3688
29141SOL     OW97352  12.829   1.171   6.183  0.3011 -0.2643  0.0300
29141SOL    HW197353  12.880   1.115   6.124 -0.7755 -0.5583 -0.6612
29141SOL    HW297354  12.883   1.179   6.262  1.5575 -0.2710 -0.7938
29142SOL     OW97355   6.084   4.220  11.109 -0.5175 -0.0783 -0.0394
29142SOL    HW197356   6.046   4.254  11.190 -1.4475 -0.9349 -0.0917
29142SOL    HW297357   6.049   4.132  11.101 -0.8902  0.1745 -1.6505
29143SOL     OW97358   1.691   1.104   7.299 -0.1225 -0.1343  0.6180
29143SOL    HW197359   1.712   1.032   7.359 -0.4327 -0.7387  0.0085
29143SOL    HW297360   1.732   1.079   7.216  0.8716  1.0149  0.7407
29144SOL     OW97361   1.868   2.075  10.099  0.2748 -0.2946  0.2200
29144SOL    HW197362   1.892   2.029  10.019 -2.2195 -1.9446  0.3252
29144SOL    HW297363   1.797   2.133  10.073  0.0262 -0.2073  1.0711
29145SOL     OW97364   0.543  13.274   7.195 -0.3332  0.2131  0.0904
29145SOL    HW197365   0.546  13.365   7.225  0.6698 -0.0719  0.9599
29145SOL    HW297366   0.618  13.266   7.136 -1.2153  0.2885 -1.0521
29146SOL     OW97367   2.850   3.942   5.332 -0.0864  0.2110  0.4475
29146SOL    HW197368   2.927   3.970   5.382  1.1687 -1.6820 -0.2955
29146SOL    HW297369   2.778   3.947   5.394  0.5671  2.2724  1.1041
29147SOL     OW97370   2.369   0.383   2.976 -0.1438  0.1712  0.5248
29147SOL    HW197371   2.275   0.367   2.989 -0.5461 -0.4022 -2.2861
29147SOL    HW297372   2.412   0.323   3.037 -1.6060 -0.2269  1.2200
29148SOL     OW97373  11.130   6.739  12.120  0.4199 -0.4876 -0.0113
29148SOL    HW197374  11.114   6.657  12.167 -1.3913  0.5670  1.2862
29148SOL    HW297375  11.162   6.710  12.034 -0.8334 -2.5803  0.1497
29149SOL     OW97376   0.688   6.421  12.346  0.2441  0.4448  0.0543
29149SOL    HW197377   0.603   6.458  12.323 -0.0459  0.8429  1.6295
29149SOL    HW297378   0.748   6.495  12.344  0.1540  0.5436  0.8401
29150SOL     OW97379  10.780   2.253  11.306  0.5440 -0.5333  0.2962
29150SOL    HW197380  10.764   2.176  11.250  0.5954 -0.8449  0.7049
29150SOL    HW297381  10.692   2.284  11.329  0.5185  0.0288 -0.5399
29151SOL     OW97382   3.843   0.456   5.798 -0.2145  0.0886  0.2923
29151SOL    HW197383   3.892   0.463   5.716 -0.9366 -1.2295 -0.3018
29151SOL    HW297384   3.810   0.366   5.798 -0.6390  0.2134  1.8070
29152SOL     OW97385   2.470   3.124   9.949 -0.2028 -0.4498 -0.3920
29152SOL    HW197386   2.481   3.179  10.026  0.7379  0.5262 -1.1890
29152SOL    HW297387   2.422   3.179   9.886  1.8911  0.0226 -1.6810
29153SOL     OW97388   0.829   1.724   2.830 -0.4164 -0.1232 -0.0733
29153SOL    HW197389   0.893   1.680   2.887 -2.1313 -0.3587  1.8115
29153SOL    HW297390   0.820   1.812   2.868 -0.6735  0.1469 -0.7536
29154SOL     OW97391   0.424   8.903   5.753 -0.3336  0.3658  0.1452
29154SOL    HW197392   0.400   8.813   5.778  0.5557  0.4310  1.3066
29154SOL    HW297393   0.364   8.924   5.681 -0.7113 -1.0723 -0.0014
29155SOL     OW97394   7.471  10.434   5.385  0.1001 -0.0810 -0.0376
29155SOL    HW197395   7.444  10.361   5.330 -1.3696  0.9953 -0.8007
29155SOL    HW297396   7.413  10.429   5.462 -1.3826  1.3586 -0.9880
29156SOL     OW97397   4.071  12.839   2.195  0.2777  0.4660  0.0787
29156SOL    HW197398   4.111  12.767   2.146  0.8108 -0.2310  1.4567
29156SOL    HW297399   3.987  12.854   2.152 -0.1849 -1.5202  0.1765
29157SOL     OW97400   8.423   6.040  11.168  0.6889 -0.2918  0.2238
29157SOL    HW197401   8.403   6.038  11.261 -2.7214  1.2264 -0.3389
29157SOL    HW297402   8.370   5.971  11.130  0.3195  0.5241 -0.8054
29158SOL     OW97403   1.428   7.851   6.689 -0.0515 -0.2344 -0.3296
29158SOL    HW197404   1.385   7.936   6.696 -0.3996 -0.4157 -0.2563
29158SOL    HW297405   1.509   7.868   6.641  0.5942  0.4085  0.9228
29159SOL     OW97406   1.586   3.538   2.020 -0.0754 -0.5764 -0.4222
29159SOL    HW197407   1.584   3.630   2.045  0.4954 -0.8977  0.8824
29159SOL    HW297408   1.538   3.534   1.937 -0.1080  0.8824 -0.4905
29160SOL     OW97409   6.855   5.590   4.401 -0.2459 -0.4983 -0.1884
29160SOL    HW197410   6.853   5.556   4.312  2.2959 -1.3676  0.0160
29160SOL    HW297411   6.776   5.553   4.442 -1.2012 -0.4702 -1.8906
29161SOL     OW97412   7.930  11.669  12.934 -0.1459  0.1999 -0.1271
29161SOL    HW197413   7.889  11.634  12.855 -1.1329 -0.4725  0.6476
29161SOL    HW297414   7.970  11.751  12.907  2.4762 -1.5472 -2.1002
29162SOL     OW97415   7.191  10.113   3.868  0.0055  0.3003  0.2417
29162SOL    HW197416   7.106  10.127   3.909 -1.2346  0.7676 -2.2759
29162SOL    HW297417   7.204  10.018   3.869 -0.5300  0.2307  0.6678
29163SOL     OW97418   1.220   0.528   1.210 -0.1845  0.7435  0.6587
29163SOL    HW197419   1.273   0.608   1.209 -0.0653  0.6632 -0.1706
29163SOL    HW297420   1.210   0.505   1.118 -0.9571  0.2828  0.8498
29164SOL     OW97421   7.746  10.293   8.570  0.3264  0.4288  0.1767
29164SOL    HW197422   7.722  10.303   8.662  1.0774 -0.2060  0.4574
29164SOL    HW297423   7.767  10.382   8.540  0.9855  0.5260  0.8910
29165SOL     OW97424  10.509   7.475  11.438  0.2573 -0.4858 -0.2050
29165SOL    HW197425  10.584   7.417  11.444  0.4748 -0.5723 -2.8757
29165SOL    HW297426  10.478   7.466  11.348 -2.6039  0.0026  0.6320
29166SOL     OW97427   0.977  11.687   1.172  0.1564  0.6760  0.3094
29166SOL    HW197428   0.913  11.733   1.118  0.3291 -0.5771 -1.0428
29166SOL    HW297429   0.926  11.648   1.242 -0.1515  1.8850  0.7850
29167SOL     OW97430   1.561   1.259   9.709  0.1107 -0.1791  0.6923
29167SOL    HW197431   1.522   1.243   9.623 -0.4373  0.2874  0.8519
29167SOL    HW297432   1.531   1.346   9.734  0.6938 -0.0970  1.1289
29168SOL     OW97433   2.233  11.827   7.367  0.2736 -0.3174  0.5128
29168SOL    HW197434   2.310  11.846   7.313 -0.5538 -0.1517 -0.6339
29168SOL    HW297435   2.223  11.905   7.422  0.9225 -0.3455  0.6799
29169SOL     OW97436   9.065   4.633  12.980 -0.1938  0.2894 -0.2854
29169SOL    HW197437   9.137   4.575  13.005 -0.6936 -0.5235 -0.7186
29169SOL    HW297438   9.061   4.627  12.885  1.0734  2.6294 -0.5616
29170SOL     OW97439   3.089   6.739   4.104 -0.0413  0.2770 -0.6057
29170SOL    HW197440   3.073   6.645   4.091 -1.7069  0.7980 -3.3682
29170SOL    HW297441   3.003   6.774   4.129  0.1276  1.2755 -1.3622
29171SOL     OW97442   5.072   4.981   6.461  0.5461  0.5412 -0.7732
29171SOL    HW197443   5.002   5.045   6.449 -0.1835 -0.0801  0.0463
29171SOL    HW297444   5.149   5.033   6.483 -0.7110  1.0852  3.0849
29172SOL     OW97445   2.425   0.603   8.655  0.7933 -0.2742 -0.0467
29172SOL    HW197446   2.383   0.628   8.737  3.0033 -0.0786  1.1047
29172SOL    HW297447   2.368   0.639   8.587 -1.7112 -1.3980  1.3107
29173SOL     OW97448   3.746   5.925   7.076 -0.2681 -0.4628  0.1434
29173SOL    HW197449   3.677   5.969   7.126 -0.1446  0.9507 -0.8928
29173SOL    HW297450   3.805   5.995   7.049  0.3064 -1.3454 -0.9703
29174SOL     OW97451  12.949   1.144  11.811  0.3767 -0.7253 -0.4460
29174SOL    HW197452  12.937   1.053  11.785  2.3425 -0.8146 -1.2042
29174SOL    HW297453  13.042   1.160  11.798  0.0364  1.4515 -0.4927
29175SOL     OW97454   6.392   0.661  11.938  0.4236  0.3785  0.0399
29175SOL    HW197455   6.466   0.617  11.980  0.5649  0.0325 -0.5697
29175SOL    HW297456   6.429   0.742  11.902  0.4989  0.2178 -0.2427
29176SOL     OW97457   0.269   2.332   7.226  0.0727  0.5840 -0.0660
29176SOL    HW197458   0.287   2.270   7.155  0.8071 -0.4559  0.9946
29176SOL    HW297459   0.222   2.280   7.291 -1.7539  1.8421 -0.2881
29177SOL     OW97460   9.802   8.629   3.436  0.5472  0.0253 -0.5562
29177SOL    HW197461   9.895   8.637   3.415  1.2775 -1.7728  1.6086
29177SOL    HW297462   9.794   8.543   3.477 -1.5179  1.2859  1.9790
29178SOL     OW97463   0.685   5.361   4.165  0.0312  0.1939  0.0983
29178SOL    HW197464   0.746   5.391   4.097  0.6507  0.4079  0.7297
29178SOL    HW297465   0.679   5.266   4.151 -0.6671  0.3698 -0.8937
29179SOL     OW97466  10.091   7.627   7.252  0.1076 -0.0035 -0.2528
29179SOL    HW197467  10.009   7.656   7.292  0.2824 -0.3781  0.4063
29179SOL    HW297468  10.100   7.680   7.173  0.2179  1.4444  0.6827
29180SOL     OW97469   7.263   7.243   9.279  0.1412 -0.1325  0.2980
29180SOL    HW197470   7.241   7.237   9.372  0.6298 -0.3298  0.4089
29180SOL    HW297471   7.339   7.185   9.270 -1.4560 -2.2338 -0.7335
29181SOL     OW97472  10.637   7.196   9.672  0.4534 -0.3591 -0.2102
29181SOL    HW197473  10.604   7.253   9.741 -1.8357 -0.9307 -0.7505
29181SOL    HW297474  10.705   7.144   9.714  2.8835  2.8716  0.2265
29182SOL     OW97475   4.886   9.327   5.411  0.1682 -0.0683  0.7993
29182SOL    HW197476   4.802   9.294   5.445 -0.7717  0.4067 -0.9057
29182SOL    HW297477   4.915   9.391   5.476 -1.1877  0.2933  1.0931
29183SOL     OW97478   4.517   3.410   5.372 -0.0481 -0.3274 -0.1149
29183SOL    HW197479   4.442   3.455   5.410  0.5788  0.0555  0.6751
29183SOL    HW297480   4.486   3.319   5.361 -0.2013 -0.4786  1.4237
29184SOL     OW97481   8.508   8.624  10.499  0.4538  0.5175  0.0109
29184SOL    HW197482   8.517   8.577  10.582 -0.1361 -0.9988 -0.7295
29184SOL    HW297483   8.598   8.635  10.468  0.6174 -0.1001  0.2408
29185SOL     OW97484   2.424   9.144   8.235 -0.2980 -0.0647  0.7499
29185SOL    HW197485   2.515   9.165   8.217 -0.7625  1.7775  0.3079
29185SOL    HW297486   2.411   9.057   8.198  1.7889 -1.3109  2.7267
29186SOL     OW97487   5.902   3.279   9.615  0.3675 -0.4434 -1.0335
29186SOL    HW197488   5.977   3.300   9.559 -0.0003  1.6233 -0.8525
29186SOL    HW297489   5.927   3.313   9.701  0.2174 -2.0139 -0.3352
29187SOL     OW97490   4.595   1.700   6.563 -0.1971 -0.5891  0.0106
29187SOL    HW197491   4.630   1.716   6.476 -0.9394  1.3834  0.0382
29187SOL    HW297492   4.650   1.630   6.598  0.6244 -0.8626 -1.7176
29188SOL     OW97493   1.771  12.868   5.036  1.2036  0.3487  0.5007
29188SOL    HW197494   1.682  12.880   5.001  0.2184  1.7964  3.2089
29188SOL    HW297495   1.772  12.778   5.069  0.4945  0.5079  0.9858
29189SOL     OW97496   3.041   0.629   5.343  0.1290  0.4912  0.0618
29189SOL    HW197497   3.098   0.704   5.358 -0.1404  0.4560  1.4406
29189SOL    HW297498   3.009   0.606   5.430 -2.1118  0.6081 -0.6771
29190SOL     OW97499   5.114   3.745   7.774 -0.3444  0.4994  0.2339
29190SOL    HW197500   5.044   3.741   7.709 -1.1500  0.6909  1.0661
29190SOL    HW297501   5.134   3.653   7.793 -0.3210  0.4447 -0.0502
29191SOL     OW97502   2.395   8.162   3.683 -0.1472  0.4992  0.0621
29191SOL    HW197503   2.314   8.145   3.637  1.0682 -1.5779 -1.4801
29191SOL    HW297504   2.372   8.155   3.776 -1.3552 -2.1732 -0.3636
29192SOL     OW97505   8.676  12.842   0.887  0.0477 -0.6617  0.2625
29192SOL    HW197506   8.756  12.795   0.908 -0.4525 -1.2376  0.9424
29192SOL    HW297507   8.696  12.888   0.805  1.6738  0.7051  1.3629
29193SOL     OW97508   6.776  11.595  11.086 -0.7998  0.0707 -0.4728
29193SOL    HW197509   6.705  11.614  11.148  0.1218  1.0712  0.3111
29193SOL    HW297510   6.843  11.660  11.106  0.0543 -0.4020 -1.6860
29194SOL     OW97511   1.012   5.553   4.139 -0.4651 -0.3019 -0.0840
29194SOL    HW197512   0.980   5.473   4.180 -0.4345  0.0700  0.6911
29194SOL    HW297513   1.034   5.610   4.213  0.1483  0.1677 -0.6257
29195SOL     OW97514   1.411   0.141  10.152  0.0404  0.0655 -0.3076
29195SOL    HW197515   1.503   0.114  10.157 -0.3724 -1.1875  2.2167
29195SOL    HW297516   1.412   0.233  10.179  0.4634 -0.3275  1.1503
29196SOL     OW97517   9.608   5.163   3.671 -0.3645  0.5677 -0.1820
29196SOL    HW197518   9.673   5.215   3.718 -0.4769 -0.0654  0.7022
29196SOL    HW297519   9.656   5.123   3.599  0.1084  0.5613  0.1302
29197SOL     OW97520  11.588   6.660   1.817  0.1430  0.4096  0.4338
29197SOL    HW197521  11.516   6.624   1.765 -0.0518 -1.0205  1.6439
29197SOL    HW297522  11.658   6.674   1.753  0.6920 -3.3799 -0.0085
29198SOL     OW97523   3.285  12.204   6.232  0.4263 -0.3631 -0.0978
29198SOL    HW197524   3.235  12.122   6.230  1.2775 -0.8816 -0.3250
29198SOL    HW297525   3.228  12.265   6.279 -0.2529 -1.0544  0.0013
29199SOL     OW97526   1.230  11.266   3.878 -0.1267 -0.4466 -0.5955
29199SOL    HW197527   1.310  11.316   3.866  0.2391 -0.7119  0.5892
29199SOL    HW297528   1.161  11.324   3.845  0.1371  1.4094  1.7806
29200SOL     OW97529   7.329   5.900   4.356  0.1730 -0.0302  0.6079
29200SOL    HW197530   7.275   5.896   4.277  0.5241 -0.8346  0.4000
29200SOL    HW297531   7.279   5.955   4.416 -0.9456 -0.8614  0.4652
29201SOL     OW97532   6.200   3.091  11.637 -0.0919 -0.2987 -0.4109
29201SOL    HW197533   6.169   3.019  11.583 -0.6378 -0.0419 -0.4426
29201SOL    HW297534   6.122   3.124  11.681  0.5745 -1.6027  1.8970
29202SOL     OW97535   8.777   3.831   3.688  0.2288 -0.1790 -0.1034
29202SOL    HW197536   8.816   3.793   3.767  1.2691  1.5407  0.2743
29202SOL    HW297537   8.833   3.906   3.667 -0.8616  0.2584 -1.6447
29203SOL     OW97538   5.142  11.944  10.211 -0.9032  0.0786  0.3491
29203SOL    HW197539   5.173  11.940  10.302  1.7461  3.8102 -0.1479
29203SOL    HW297540   5.201  11.885  10.164  0.6022  1.3753  0.5274
29204SOL     OW97541   9.139   6.596  11.280 -0.0380 -0.0668 -0.0566
29204SOL    HW197542   9.089   6.660  11.330  2.1284  0.3940  1.7061
29204SOL    HW297543   9.111   6.511  11.314 -0.0237  0.1566  0.5224
29205SOL     OW97544  12.274   2.712   9.252  0.0079 -0.4547 -0.0062
29205SOL    HW197545  12.207   2.778   9.268  1.3785  1.4272 -1.5497
29205SOL    HW297546  12.225   2.635   9.222 -1.5392  0.2671  0.5510
29206SOL     OW97547   2.337  12.972   3.785 -0.4305 -0.0931 -0.3382
29206SOL    HW197548   2.365  12.900   3.841  0.3668  0.2652 -0.2497
29206SOL    HW297549   2.309  12.930   3.704  1.8740 -0.4390 -1.0387
29207SOL     OW97550   3.112   6.818  10.743 -0.3909 -0.1345 -0.4677
29207SOL    HW197551   3.016   6.815  10.750 -0.2881 -1.1227  1.1280
29207SOL    HW297552   3.141   6.836  10.832  0.8953  2.0283 -1.2461
29208SOL     OW97553   8.855   7.971   0.327  0.4068  0.0853  0.3296
29208SOL    HW197554   8.838   7.915   0.403  0.5051 -1.1274 -0.5081
29208SOL    HW297555   8.948   7.960   0.310  0.7816  1.7695  1.0913
29209SOL     OW97556   8.079   6.869  11.602  0.2071 -0.3377  0.1567
29209SOL    HW197557   8.002   6.866  11.545  0.6842  1.1760 -0.6260
29209SOL    HW297558   8.068   6.795  11.662 -1.5926 -0.4466 -0.2664
29210SOL     OW97559   6.476   5.126   6.550 -0.3539  0.0391 -0.2127
29210SOL    HW197560   6.427   5.082   6.480 -0.6162 -1.3351  0.7953
29210SOL    HW297561   6.555   5.072   6.561 -0.4100  0.1239  0.6623
29211SOL     OW97562   6.637  13.264   6.956 -0.0155 -0.5980 -0.0762
29211SOL    HW197563   6.648  13.337   6.895 -1.8862  0.7679  1.1094
29211SOL    HW297564   6.606  13.191   6.901  1.2627 -0.3451 -1.1762
29212SOL     OW97565  12.909   5.044   8.998  0.5028 -0.0370  0.8206
29212SOL    HW197566  12.890   4.994   9.077  1.2544 -0.9842  0.4191
29212SOL    HW297567  12.878   5.133   9.018  0.6613 -0.2578  2.1640
29213SOL     OW97568   1.757  11.104   7.301  0.2139 -0.0591  0.1265
29213SOL    HW197569   1.712  11.184   7.273  1.8013  1.0079  0.4921
29213SOL    HW297570   1.807  11.129   7.378 -1.1015 -2.0334  1.7381
29214SOL     OW97571   2.948   8.231   7.863 -0.0988  0.2147  0.1715
29214SOL    HW197572   3.004   8.166   7.905  1.0585  0.7060 -0.5683
29214SOL    HW297573   2.998   8.313   7.869  0.0245  0.3512 -1.9278
29215SOL     OW97574   0.948  12.758   6.015  0.1600 -0.2037 -0.0308
29215SOL    HW197575   1.004  12.681   6.014  0.1049 -0.2546  0.6990
29215SOL    HW297576   0.928  12.772   6.107  1.2864  1.4883  0.0122
29216SOL     OW97577   4.988   2.427   5.695 -0.0799 -0.9077  0.1494
29216SOL    HW197578   5.067   2.373   5.706  0.0765 -0.4869  1.1733
29216SOL    HW297579   5.003   2.503   5.751  0.4772  1.1250 -2.5369
29217SOL     OW97580   1.852   0.239   2.829  0.2746 -0.1353 -0.2131
29217SOL    HW197581   1.844   0.157   2.780 -2.6358 -0.1039  0.0502
29217SOL    HW297582   1.916   0.220   2.897 -0.9041 -2.5059  0.3303
29218SOL     OW97583   6.793   0.646  12.683  0.1906 -0.6519 -0.8376
29218SOL    HW197584   6.793   0.732  12.640  0.9438 -0.9462 -1.4513
29218SOL    HW297585   6.855   0.594  12.632  0.7467 -1.1657  0.3239
29219SOL     OW97586   4.162   8.346   5.414 -0.5325 -0.3961  0.4630
29219SOL    HW197587   4.247   8.309   5.438 -1.1334 -0.3527  2.8963
29219SOL    HW297588   4.155   8.425   5.467 -1.8270 -0.0506 -0.1880
29220SOL     OW97589  11.253   0.029   3.344 -0.3920 -0.3316  0.0327
29220SOL    HW197590  11.283  -0.059   3.323  0.6177  0.1712 -0.7169
29220SOL    HW297591  11.332   0.083   3.342 -1.4022  1.3712 -3.6811
29221SOL     OW97592  10.273   6.206   3.229 -0.5915  0.5426  0.0187
29221SOL    HW197593  10.301   6.173   3.143 -3.3699  0.8334 -1.0735
29221SOL    HW297594  10.212   6.277   3.209 -2.3368 -0.2458  2.1810
29222SOL     OW97595   4.336   8.757  11.992  0.1316 -0.5513 -0.1009
29222SOL    HW197596   4.367   8.667  11.993  2.0301  0.0617 -0.2818
29222SOL    HW297597   4.265   8.759  12.056  1.6449 -1.6600  1.7055
29223SOL     OW97598  11.936   8.120  12.805  0.5323  0.0456 -0.2146
29223SOL    HW197599  11.974   8.137  12.892 -1.4659 -0.5498  0.8175
29223SOL    HW297600  11.923   8.026  12.803 -1.0177  0.2527 -0.4673
29224SOL     OW97601  12.668   4.839   7.824  0.7093  0.3933  0.1305
29224SOL    HW197602  12.716   4.893   7.762  0.1743  1.3675  0.5401
29224SOL    HW297603  12.718   4.758   7.830  0.1713 -0.2105 -2.4486
29225SOL     OW97604   1.072   8.474   8.038  0.1836 -0.6487 -0.6345
29225SOL    HW197605   1.018   8.510   8.108 -0.2877  0.0071 -1.3276
29225SOL    HW297606   1.159   8.465   8.077  0.0724  0.2824 -0.1550
29226SOL     OW97607   4.273   1.483  12.820 -0.0374  0.1191  0.2059
29226SOL    HW197608   4.354   1.511  12.862 -0.2308 -1.2108  1.5405
29226SOL    HW297609   4.206   1.495  12.887 -0.5912 -0.7663 -0.1800
29227SOL     OW97610   9.185   1.506   4.685 -0.0306  0.3330 -0.1371
29227SOL    HW197611   9.147   1.422   4.711  1.5660 -0.7516 -1.1382
29227SOL    HW297612   9.275   1.485   4.660  0.2925  2.2897 -0.8014
29228SOL     OW97613   4.854   4.233   6.082  0.1304  0.0966  0.1229
29228SOL    HW197614   4.878   4.244   6.174  1.1938  0.4359 -0.1785
29228SOL    HW297615   4.811   4.316   6.058  0.6260  0.3423  0.0837
29229SOL     OW97616   2.457  10.398   0.596 -0.0279 -0.3716  0.7687
29229SOL    HW197617   2.461  10.395   0.692  0.5789 -1.6384  0.7265
29229SOL    HW297618   2.527  10.339   0.568 -0.5120 -0.3870 -0.4510
29230SOL     OW97619  12.273  10.788   1.917 -0.0140 -0.3968 -0.1609
29230SOL    HW197620  12.202  10.759   1.974  0.1364 -0.7303 -0.1411
29230SOL    HW297621  12.317  10.707   1.892  1.6318 -0.0737  1.4839
29231SOL     OW97622   6.426  12.296   4.699  0.0289  0.5208 -0.0629
29231SOL    HW197623   6.337  12.326   4.720 -0.5801 -1.4018  0.2906
29231SOL    HW297624   6.413  12.222   4.639  1.4256  0.5908 -0.4835
29232SOL     OW97625   5.139   6.442  11.166 -0.8803  0.1344 -0.4715
29232SOL    HW197626   5.137   6.534  11.193  0.2139 -0.0324  0.2363
29232SOL    HW297627   5.218   6.406  11.207 -1.2483 -1.1070 -0.7903
29233SOL     OW97628   3.145   5.043  12.961 -0.2531 -0.0782  0.4933
29233SOL    HW197629   3.170   4.969  13.017 -0.6820 -0.0862  0.6765
29233SOL    HW297630   3.155   5.009  12.871 -0.5956 -0.4076  0.5776
29234SOL     OW97631  12.425   3.626   9.734  0.2812  0.0843  0.1504
29234SOL    HW197632  12.430   3.533   9.711 -1.4619  0.6568 -3.1895
29234SOL    HW297633  12.333   3.648   9.721  0.7961  2.4176  0.1342
29235SOL     OW97634   1.866  10.678   7.951 -0.2157  0.1175  0.6637
29235SOL    HW197635   1.954  10.639   7.955  0.0751  0.4646 -1.2572
29235SOL    HW297636   1.828  10.644   7.870 -0.7871  2.0682  0.0538
29236SOL     OW97637   9.780   7.564  10.741 -0.1045 -0.7970 -0.0714
29236SOL    HW197638   9.808   7.515  10.818  0.7279 -0.1621  0.0435
29236SOL    HW297639   9.757   7.651  10.774 -1.2656 -0.9979 -0.3175
29237SOL     OW97640   9.531  13.145   0.789  0.5066  0.1459  0.0153
29237SOL    HW197641   9.467  13.075   0.789 -0.0013  0.5962 -0.7627
29237SOL    HW297642   9.495  13.211   0.849  0.9227 -0.1961  0.6495
29238SOL     OW97643   2.811   5.167   8.303 -0.3137  0.7502  0.2788
29238SOL    HW197644   2.901   5.190   8.327  0.6457 -3.5201  1.7131
29238SOL    HW297645   2.760   5.182   8.383  0.0747 -0.6585  0.8331
29239SOL     OW97646  10.418  12.835   1.813 -0.1064 -0.9634  0.0446
29239SOL    HW197647  10.388  12.904   1.873  0.5448  1.1740 -1.9607
29239SOL    HW297648  10.358  12.762   1.830 -1.4437  0.4040  1.6108
29240SOL     OW97649   0.859  13.278   0.225 -0.1393 -0.1703  0.2818
29240SOL    HW197650   0.765  13.262   0.216 -0.5004  2.0613 -0.6545
29240SOL    HW297651   0.900  13.195   0.202 -1.8376 -0.6019 -1.4235
29241SOL     OW97652   5.439   1.336  11.218 -0.8915 -0.3556 -0.0896
29241SOL    HW197653   5.454   1.429  11.200 -0.3647 -0.0794  1.5706
29241SOL    HW297654   5.345   1.324  11.206 -0.8560  0.2067 -1.0415
29242SOL     OW97655   1.097  10.151  11.148 -0.2104  0.2419 -0.3192
29242SOL    HW197656   1.172  10.103  11.114  2.5399  2.9773  1.3449
29242SOL    HW297657   1.073  10.104  11.228 -0.7908 -1.0315 -1.2035
29243SOL     OW97658  10.632  10.055   9.068  0.4795 -0.3685 -0.7023
29243SOL    HW197659  10.649  10.120   9.136  0.6498  0.6542 -1.6894
29243SOL    HW297660  10.591  10.106   8.997  0.1740 -1.4321 -1.3038
29244SOL     OW97661   8.060  11.906   4.695  0.3163 -0.2203  0.1663
29244SOL    HW197662   7.975  11.913   4.737  1.0563  0.3841  1.6389
29244SOL    HW297663   8.096  11.995   4.697  0.6324 -0.2997 -1.2169
29245SOL     OW97664  10.815  11.260   4.850  0.2293  0.0321 -0.3486
29245SOL    HW197665  10.800  11.173   4.812 -1.5001  0.8765 -1.7878
29245SOL    HW297666  10.747  11.268   4.917  0.9339 -0.0232  0.3888
29246SOL     OW97667   7.458   1.919   0.702 -0.4115  0.2429 -0.5436
29246SOL    HW197668   7.541   1.961   0.724 -0.2539 -0.3943  0.1235
29246SOL    HW297669   7.480   1.857   0.632  0.2398 -1.8137  1.3627
29247SOL     OW97670   9.622  11.857   1.661 -0.0263 -0.3285  1.1204
29247SOL    HW197671   9.612  11.952   1.659  0.7839 -0.2436 -0.1565
29247SOL    HW297672   9.533  11.823   1.648 -0.4640  0.2331  2.5396
29248SOL     OW97673   6.610   9.151   4.720  0.3163  0.0376  0.2306
29248SOL    HW197674   6.624   9.164   4.626 -0.6602  0.6361  0.1585
29248SOL    HW297675   6.545   9.217   4.744  0.2426 -0.3906  1.2381
29249SOL     OW97676   3.694   5.306  11.595  0.0159  0.9793  0.1980
29249SOL    HW197677   3.666   5.381  11.648  0.9036  2.8990 -1.8788
29249SOL    HW297678   3.621   5.293  11.533 -0.3012 -0.1607  0.7962
29250SOL     OW97679   1.323  10.484   6.889 -0.5073  0.5241 -0.2514
29250SOL    HW197680   1.308  10.538   6.812 -0.1170  0.3468 -0.4579
29250SOL    HW297681   1.409  10.512   6.922 -0.1258 -0.2175 -0.5810
29251SOL     OW97682   5.823   5.932  10.384  0.7425  0.5396  0.4545
29251SOL    HW197683   5.838   5.975  10.468 -0.2923  0.2953  0.7677
29251SOL    HW297684   5.728   5.920  10.378  0.7306  1.0973 -1.0168
29252SOL     OW97685  12.085   7.039   9.886 -0.0542 -0.1143  0.2343
29252SOL    HW197686  12.056   6.948   9.896 -0.7999  0.0990  0.1051
29252SOL    HW297687  12.172   7.033   9.847  0.2087 -0.7896  0.9063
29253SOL     OW97688  12.108   8.496   5.698  0.6020  0.0949 -0.4866
29253SOL    HW197689  12.081   8.584   5.671 -2.2869 -1.3583 -3.0273
29253SOL    HW297690  12.175   8.471   5.634  1.0037  0.2601 -0.1263
29254SOL     OW97691  12.059  13.245  11.359  0.0144  0.8005  0.4387
29254SOL    HW197692  12.114  13.218  11.433  0.5259 -0.9081 -0.5048
29254SOL    HW297693  12.027  13.163  11.322  1.9101  1.3444 -2.8326
29255SOL     OW97694  11.179   6.936   5.660 -0.4238 -0.3994  0.0136
29255SOL    HW197695  11.143   6.860   5.704  0.1174 -0.3475  0.5412
29255SOL    HW297696  11.259   6.905   5.618  0.4370  0.1385  1.2176
29256SOL     OW97697   4.155  11.071   7.045  0.1116 -0.3951  0.2655
29256SOL    HW197698   4.138  11.133   6.975  1.9927  1.1385  1.0809
29256SOL    HW297699   4.250  11.061   7.046  0.1320 -0.4893  2.4854
29257SOL     OW97700   3.437   8.400   2.623  0.1771 -0.6223 -0.4430
29257SOL    HW197701   3.365   8.437   2.674 -0.3453 -1.1624 -0.7888
29257SOL    HW297702   3.497   8.364   2.689  0.3985  0.2910 -0.1315
29258SOL     OW97703   4.142   8.597  11.245  0.2380 -0.2959  0.4510
29258SOL    HW197704   4.057   8.556  11.265 -0.4686  0.8692 -0.0486
29258SOL    HW297705   4.140   8.680  11.292  1.4527 -0.5892  1.0670
29259SOL     OW97706   0.418   8.813   6.770 -0.1344  0.1235 -0.3669
29259SOL    HW197707   0.362   8.887   6.790  1.8726  1.4948  0.5503
29259SOL    HW297708   0.449   8.829   6.681  0.0979  0.2454 -0.2641
29260SOL     OW97709  12.202   4.762  10.618  0.2993 -0.0780  0.0054
29260SOL    HW197710  12.117   4.779  10.657 -0.7011 -1.7390 -1.2716
29260SOL    HW297711  12.213   4.667  10.626  1.6988  0.0170 -0.4933
29261SOL     OW97712   0.632  12.269   9.561 -0.2295 -0.1876 -0.2625
29261SOL    HW197713   0.711  12.274   9.614 -0.4609  0.9143  0.0017
29261SOL    HW297714   0.564  12.241   9.622 -0.4540  0.8812 -0.0073
29262SOL     OW97715   6.074   8.537   9.554 -0.1265 -0.4199  0.2686
29262SOL    HW197716   6.152   8.498   9.516  0.0423  0.4164 -0.2572
29262SOL    HW297717   6.004   8.475   9.532  0.4419 -1.4181  1.1649
29263SOL     OW97718   6.146   9.865   3.331  0.0292 -0.0022 -0.1836
29263SOL    HW197719   6.166   9.949   3.373  0.6886 -0.6841  0.9241
29263SOL    HW297720   6.191   9.800   3.386  1.5205 -0.9050 -2.3416
29264SOL     OW97721   7.836  13.110   9.028  0.0100 -0.3116 -0.3359
29264SOL    HW197722   7.887  13.070   8.958 -0.5670  1.0096 -1.5512
29264SOL    HW297723   7.792  13.036   9.070 -0.9703 -1.0126 -2.4524
29265SOL     OW97724   1.812   0.438   3.981  0.1643  0.9893 -0.1148
29265SOL    HW197725   1.722   0.419   3.954 -0.1692  0.4585  1.2575
29265SOL    HW297726   1.857   0.461   3.900 -0.8953  0.0479 -1.0073
29266SOL     OW97727   3.742   9.380   5.357 -0.2535  0.0751 -0.3249
29266SOL    HW197728   3.702   9.466   5.369 -2.0158 -0.4378 -1.9958
29266SOL    HW297729   3.748   9.369   5.262 -0.8322 -1.9736 -0.1735
29267SOL     OW97730   4.611   0.158  12.523 -0.1887 -0.2153 -0.0623
29267SOL    HW197731   4.610   0.075  12.477 -0.7357 -0.3202  0.1336
29267SOL    HW297732   4.703   0.173  12.545 -0.2818 -1.6646  1.5172
29268SOL     OW97733   8.389   3.580   2.647 -0.4714 -0.0527  0.4307
29268SOL    HW197734   8.459   3.605   2.708 -0.2622 -0.6237  0.4229
29268SOL    HW297735   8.328   3.654   2.651  1.0783  1.3893 -1.0605
29269SOL     OW97736   4.013   0.215   8.014  0.6191  0.2659 -0.2330
29269SOL    HW197737   4.037   0.198   8.105  0.2696 -0.2239 -0.2232
29269SOL    HW297738   4.026   0.309   8.002  2.1152  0.0891 -0.1195
29270SOL     OW97739   7.819   2.228   1.122  0.2022 -0.2012 -0.1143
29270SOL    HW197740   7.830   2.143   1.079  0.8808 -0.7091  1.0101
29270SOL    HW297741   7.766   2.279   1.061  0.4376 -1.1654 -1.1646
29271SOL     OW97742   3.389   2.187   3.328  0.5199  0.0604 -0.0568
29271SOL    HW197743   3.304   2.201   3.369  0.6142 -0.8021  0.4755
29271SOL    HW297744   3.451   2.232   3.386  0.3229  1.8267 -1.1499
29272SOL     OW97745   8.409   2.308  10.180  0.1856 -0.0609  0.2014
29272SOL    HW197746   8.502   2.288  10.168  0.8119  2.4005  0.4508
29272SOL    HW297747   8.386   2.364  10.106 -0.8947  0.0179  0.5701
29273SOL     OW97748  13.279   7.074   4.150  0.3079  0.2197  0.3166
29273SOL    HW197749  13.246   7.157   4.116 -0.7052 -0.3437 -0.0946
29273SOL    HW297750  13.372   7.092   4.167 -0.2456  1.9396  1.8663
29274SOL     OW97751   2.492   2.352   4.238  0.1012 -0.6013 -0.5247
29274SOL    HW197752   2.545   2.431   4.225 -0.4801 -0.2432 -0.7154
29274SOL    HW297753   2.497   2.335   4.332  0.8597 -0.7842 -0.5911
29275SOL     OW97754   6.323   7.212   3.434 -0.3835  0.3124  0.1197
29275SOL    HW197755   6.313   7.157   3.357 -2.2923  0.8783 -0.0921
29275SOL    HW297756   6.410   7.250   3.425 -0.4726  0.1955 -1.6479
29276SOL     OW97757   6.410  10.612   3.306  0.0899 -0.5552 -0.7897
29276SOL    HW197758   6.357  10.676   3.352  1.6640 -0.4948  1.0367
29276SOL    HW297759   6.346  10.548   3.273 -1.1796 -0.1355  0.7281
29277SOL     OW97760   9.608   3.743   1.682 -0.2252 -0.5380  0.2223
29277SOL    HW197761   9.581   3.751   1.591  0.2017 -2.4574 -0.1017
29277SOL    HW297762   9.530   3.716   1.729 -0.2534 -0.3237  0.3017
29278SOL     OW97763   0.603   7.251   1.509  0.1642  0.4878  0.5783
29278SOL    HW197764   0.660   7.241   1.432  0.6032  1.5764  0.7407
29278SOL    HW297765   0.560   7.335   1.496  0.9475  1.1382  1.9504
29279SOL     OW97766  11.078  10.527  10.322 -0.8663  0.1287 -0.0600
29279SOL    HW197767  11.127  10.545  10.242  2.7303 -2.2482  1.3360
29279SOL    HW297768  11.090  10.605  10.376  0.7626 -0.0732 -0.0924
29280SOL     OW97769   9.651   6.930   7.547 -0.1904 -0.1917 -0.2861
29280SOL    HW197770   9.747   6.930   7.547 -0.1756 -0.4646  0.9449
29280SOL    HW297771   9.627   7.015   7.583 -0.3708 -0.7027  0.8589
29281SOL     OW97772   4.587   7.456  10.907  0.0828 -0.3322  0.2260
29281SOL    HW197773   4.671   7.434  10.867  0.3817 -0.7526  1.0670
29281SOL    HW297774   4.548   7.519  10.847  1.1754  0.1775  0.0259
29282SOL     OW97775  13.231  13.140   4.002 -0.4564  0.3179 -0.1981
29282SOL    HW197776  13.285  13.218   3.986 -2.2019  1.6665  0.1749
29282SOL    HW297777  13.215  13.104   3.915  1.9188 -0.7795 -0.2441
29283SOL     OW97778  11.484   5.440   3.459  0.0951 -0.0387 -0.2845
29283SOL    HW197779  11.512   5.380   3.528  1.2922  2.0235  1.1124
29283SOL    HW297780  11.536   5.415   3.383  0.5221 -0.8164  0.2463
29284SOL     OW97781   4.036   1.164   1.660  0.3193 -0.8053 -0.1320
29284SOL    HW197782   4.030   1.256   1.633  0.1271 -0.7208  0.1809
29284SOL    HW297783   4.067   1.168   1.751 -3.0685 -0.8347  1.1880
29285SOL     OW97784   1.300   9.251  11.673 -0.2144  0.2286  0.0404
29285SOL    HW197785   1.322   9.160  11.690 -0.9312  0.0801  0.2293
29285SOL    HW297786   1.227   9.269  11.733 -1.9855  0.0688 -1.9677
29286SOL     OW97787   0.588   4.266   7.211 -0.2731 -0.0692  0.6541
29286SOL    HW197788   0.651   4.332   7.182  1.2536 -1.0293  1.6688
29286SOL    HW297789   0.641   4.199   7.254 -1.8081 -1.8758 -0.1541
29287SOL     OW97790   4.381  12.307   3.947 -0.0951  0.7697  0.2876
29287SOL    HW197791   4.350  12.216   3.939  1.0318  0.3568  0.5301
29287SOL    HW297792   4.396  12.334   3.856  0.1208  0.5155  0.2452
29288SOL     OW97793  12.016  12.380   1.710 -0.0811  0.1619 -0.6628
29288SOL    HW197794  11.928  12.409   1.684 -0.9583 -3.0039 -1.6993
29288SOL    HW297795  12.051  12.339   1.631  2.0154  0.6063 -0.0051
29289SOL     OW97796   3.415   9.780  10.707 -0.5356 -0.0533  0.8056
29289SOL    HW197797   3.346   9.744  10.650  0.0136 -0.0031  0.0992
29289SOL    HW297798   3.436   9.865  10.668 -0.7363  0.3595  1.5767
29290SOL     OW97799   7.761   8.502   4.675 -0.2215 -0.0823 -0.2134
29290SOL    HW197800   7.853   8.516   4.650 -0.6545  1.4179 -1.0838
29290SOL    HW297801   7.732   8.431   4.618  0.7441 -1.5156  1.0127
29291SOL     OW97802   2.888   8.537   4.155 -0.1906 -0.4330 -0.3410
29291SOL    HW197803   2.971   8.553   4.110 -0.0260  1.1855  0.4564
29291SOL    HW297804   2.908   8.469   4.219  0.5890  0.0951 -0.0088
29292SOL     OW97805   5.463   5.227   7.173  0.2405  0.5285  0.2024
29292SOL    HW197806   5.412   5.297   7.130  1.4314  2.2691  1.4733
29292SOL    HW297807   5.404   5.194   7.242 -0.4647 -0.0063 -0.6343
29293SOL     OW97808   9.056   2.116   3.039  0.5172 -0.0782  0.2546
29293SOL    HW197809   8.995   2.152   2.974  0.3303 -1.1848 -0.2058
29293SOL    HW297810   9.077   2.190   3.096 -2.4159  0.0565  1.3377
29294SOL     OW97811   4.349   1.184   8.951  0.3927 -0.3115 -0.0051
29294SOL    HW197812   4.399   1.187   9.032 -0.1456 -0.6907  0.3532
29294SOL    HW297813   4.332   1.276   8.929 -0.2046 -0.2151  0.7970
29295SOL     OW97814   4.539  12.679   3.033  0.4623  0.3978 -0.4391
29295SOL    HW197815   4.474  12.636   2.978 -2.3294  1.8144  1.5454
29295SOL    HW297816   4.548  12.767   2.995 -1.5676  1.4224  1.2708
29296SOL     OW97817  10.072   9.870   3.135  0.0291 -0.3183  0.3004
29296SOL    HW197818  10.006   9.895   3.200 -0.2250 -0.5055  0.1122
29296SOL    HW297819  10.155   9.887   3.179 -0.1257  0.8995  0.1776
29297SOL     OW97820   7.381   0.900   1.969 -0.3480 -0.0038 -0.0488
29297SOL    HW197821   7.395   0.807   1.951  0.6636  0.4129 -1.6127
29297SOL    HW297822   7.448   0.922   2.034 -3.1245 -1.1975  3.5233
29298SOL     OW97823  11.976   0.820   6.753  1.1195 -0.3358  0.0713
29298SOL    HW197824  11.955   0.906   6.789  0.0129 -0.0037 -1.2721
29298SOL    HW297825  11.994   0.766   6.829  2.9589  1.3409  0.9200
29299SOL     OW97826  11.089   5.485   2.437  0.1534  0.1926 -0.6317
29299SOL    HW197827  11.086   5.521   2.349  2.3468 -2.1586 -1.7909
29299SOL    HW297828  11.182   5.482   2.459 -0.1409 -1.7587  0.6454
29300SOL     OW97829   2.755   1.030   6.035  0.0243 -0.2162  0.1806
29300SOL    HW197830   2.829   1.028   6.096 -0.7962 -0.5792  1.1771
29300SOL    HW297831   2.759   1.118   5.996  0.0675  0.3313  1.3795
29301SOL     OW97832  11.152  12.134   0.770 -0.3085 -0.4095  0.0776
29301SOL    HW197833  11.067  12.128   0.727 -0.8145 -1.9548  1.2123
29301SOL    HW297834  11.200  12.057   0.740 -0.0364 -0.5771  0.9208
29302SOL     OW97835   8.900  12.878   5.273 -0.1854 -0.0935  0.0357
29302SOL    HW197836   8.891  12.965   5.311  0.2573 -0.1488  0.2635
29302SOL    HW297837   8.976  12.839   5.316 -0.2271 -0.5010 -0.2437
29303SOL     OW97838  11.241   9.239   9.723  0.3453  0.5249  0.2885
29303SOL    HW197839  11.218   9.253   9.631 -0.5707 -2.0766  0.0430
29303SOL    HW297840  11.157   9.244   9.770  0.1361 -2.2309  0.3476
29304SOL     OW97841   4.813   1.440   6.069 -0.2650  0.2355  0.9559
29304SOL    HW197842   4.776   1.361   6.107  1.5525 -0.7648  0.7746
29304SOL    HW297843   4.746   1.507   6.082 -1.3845 -1.0514  2.1313
29305SOL     OW97844  10.179   0.265  12.041 -0.6304 -0.0831  0.0666
29305SOL    HW197845  10.267   0.257  12.077 -1.1126 -1.9931  0.9832
29305SOL    HW297846  10.173   0.193  11.978 -1.6485 -0.2451  0.3266
29306SOL     OW97847   1.448  11.405   0.110  0.5776 -0.3141 -0.3429
29306SOL    HW197848   1.464  11.312   0.096 -0.4199 -0.5130 -0.2054
29306SOL    HW297849   1.535  11.445   0.103  0.7675 -0.9821 -2.4791
29307SOL     OW97850   0.863   5.100   6.839  0.0865  0.9255  0.2029
29307SOL    HW197851   0.779   5.133   6.871 -0.8495 -1.9148  1.0012
29307SOL    HW297852   0.840   5.050   6.760  1.5277  2.6906 -1.4219
29308SOL     OW97853   6.286   1.612   0.804  0.0619  0.0159  1.2371
29308SOL    HW197854   6.279   1.708   0.808  0.3036  0.0321  1.3238
29308SOL    HW297855   6.263   1.590   0.714  1.0347  0.2537  0.9149
29309SOL     OW97856  10.730   3.934   0.372  0.0896  0.1913 -0.1305
29309SOL    HW197857  10.745   3.935   0.467 -0.7975 -0.7855  0.0516
29309SOL    HW297858  10.817   3.932   0.333  0.4628  0.0357  0.6927
29310SOL     OW97859   0.838  10.430  10.134  0.0727  0.7123 -0.5749
29310SOL    HW197860   0.870  10.498  10.193  1.3868 -1.2343  1.0763
29310SOL    HW297861   0.914  10.376  10.116 -0.5604  0.5376 -3.1928
29311SOL     OW97862   2.982   9.300   9.124  0.2532  0.0570  0.2009
29311SOL    HW197863   2.911   9.352   9.162  1.4765 -0.0256  2.8632
29311SOL    HW297864   2.943   9.214   9.110 -0.6484  0.5071 -0.1643
29312SOL     OW97865   5.572   4.785   5.070  0.1098  0.4307  0.4443
29312SOL    HW197866   5.561   4.880   5.064  1.0069  0.5137 -0.1695
29312SOL    HW297867   5.617   4.771   5.153 -0.8607  0.4522  0.9796
29313SOL     OW97868  11.131   7.728   6.747 -0.8229 -0.2846 -0.3942
29313SOL    HW197869  11.134   7.767   6.835 -0.1143 -0.4143 -0.3538
29313SOL    HW297870  11.042   7.746   6.716 -1.0553 -0.1707  0.3186
29314SOL     OW97871  11.978   8.428   9.473  0.1506 -0.1308  0.1042
29314SOL    HW197872  12.065   8.388   9.461 -0.7616 -1.5720 -2.6483
29314SOL    HW297873  11.985   8.513   9.430 -0.1008 -0.8020 -1.3362
29315SOL     OW97874  10.977  12.457   1.400 -0.0440 -0.4250 -0.4766
29315SOL    HW197875  10.919  12.482   1.327 -1.1926 -2.2973 -0.2514
29315SOL    HW297876  10.918  12.442   1.473  0.9881  0.0566  0.4843
29316SOL     OW97877  13.045   6.306   8.405 -0.3284  0.0815 -0.1621
29316SOL    HW197878  13.140   6.301   8.392 -0.4786 -1.6434 -0.9186
29316SOL    HW297879  13.008   6.300   8.317 -1.1626 -2.1691  0.2681
29317SOL     OW97880   5.126  12.301   0.058 -0.5833  0.0365 -0.4821
29317SOL    HW197881   5.085  12.223   0.021 -0.1128  0.1756 -1.3208
29317SOL    HW297882   5.062  12.335   0.120  0.3108 -2.6489  2.1782
29318SOL     OW97883  11.753   9.655   5.658 -0.0315 -0.2834 -0.7423
29318SOL    HW197884  11.745   9.611   5.743 -0.5857 -0.0252 -0.6550
29318SOL    HW297885  11.825   9.610   5.614  1.0063  0.2772  0.2970
29319SOL     OW97886  12.292   0.112   8.717 -0.3328 -0.4149 -0.7124
29319SOL    HW197887  12.209   0.069   8.735 -0.8931  0.9456  0.0869
29319SOL    HW297888  12.271   0.179   8.652  0.2513 -0.4055 -0.8997
29320SOL     OW97889   5.581   8.413  13.293 -0.7657 -0.8850  0.3990
29320SOL    HW197890   5.487   8.422  13.306 -0.6638  0.2071  0.5105
29320SOL    HW297891   5.619   8.428  13.380 -0.3910  0.7773 -0.0144
29321SOL     OW97892   6.857   8.559   4.464  0.2054 -0.0079 -0.2895
29321SOL    HW197893   6.887   8.647   4.487  0.6957 -0.4805  0.9666
29321SOL    HW297894   6.766   8.556   4.493  0.6603 -0.4203  1.1722
29322SOL     OW97895   8.057   6.976   7.326  0.6510  0.3177 -0.5184
29322SOL    HW197896   7.989   6.994   7.260  0.1381 -0.2795 -0.1686
29322SOL    HW297897   8.119   7.048   7.317  2.2711 -1.2758 -3.7763
29323SOL     OW97898  12.529   1.688   0.496  0.1524  0.2307  0.9714
29323SOL    HW197899  12.515   1.674   0.590  0.8245 -0.1391  1.0168
29323SOL    HW297900  12.619   1.718   0.489 -0.8184  3.5104  0.7621
29324SOL     OW97901   6.086   1.387   0.023  0.6450 -0.3885  0.2990
29324SOL    HW197902   6.121   1.304   0.054  1.4211 -0.3760 -0.5058
29324SOL    HW297903   6.009   1.363  -0.028  0.3941 -0.5393  0.7385
29325SOL     OW97904   6.187   1.667  11.339 -0.5342 -0.2494 -0.0922
29325SOL    HW197905   6.204   1.754  11.374  0.5647 -0.1072 -0.9275
29325SOL    HW297906   6.141   1.622  11.409 -0.4437  0.7611  0.6384
29326SOL     OW97907   4.459  12.638   7.513  0.1116 -0.4343  0.7418
29326SOL    HW197908   4.434  12.630   7.605 -0.8228  0.0529  0.5421
29326SOL    HW297909   4.397  12.583   7.466 -0.5880  0.7515  0.2398
29327SOL     OW97910   2.615   0.586   9.314 -0.1032  0.1662 -0.7771
29327SOL    HW197911   2.553   0.601   9.242 -0.7430  0.0809 -0.2522
29327SOL    HW297912   2.569   0.526   9.372  1.1260 -1.2262 -1.1952
29328SOL     OW97913  10.323   9.459  11.997 -0.6875  0.4404 -0.0981
29328SOL    HW197914  10.315   9.554  11.991 -1.0446  0.3687 -0.9537
29328SOL    HW297915  10.296   9.438  12.086 -0.1431  1.1800  0.2505
29329SOL     OW97916  13.258   9.681   4.170 -0.0837 -0.4177 -0.3157
29329SOL    HW197917  13.264   9.593   4.205  1.2275 -0.6921 -1.1517
29329SOL    HW297918  13.349   9.708   4.157 -0.4744  0.3077 -1.8633
29330SOL     OW97919  10.103   9.861   6.953  1.0214  0.5384 -0.9495
29330SOL    HW197920  10.019   9.886   6.915 -1.5031 -3.2474  1.4841
29330SOL    HW297921  10.104   9.905   7.039  1.2797  0.1717 -0.7627
29331SOL     OW97922   3.245  11.499   9.831 -0.1610  1.0571 -0.0644
29331SOL    HW197923   3.261  11.419   9.781 -2.4162  0.2148  0.3937
29331SOL    HW297924   3.280  11.480   9.918  0.0102  0.8598 -0.1767
29332SOL     OW97925  11.634   3.888   1.645  0.1191  0.0812 -0.5001
29332SOL    HW197926  11.601   3.968   1.685 -0.3529 -0.0666 -0.5908
29332SOL    HW297927  11.706   3.860   1.703 -0.8826 -0.4061  0.5494
29333SOL     OW97928   5.136   1.957   6.832 -0.5146 -0.2926 -0.5552
29333SOL    HW197929   5.092   1.930   6.912 -2.0524 -0.9866 -1.5959
29333SOL    HW297930   5.229   1.942   6.849 -0.9937 -2.6328  0.2835
29334SOL     OW97931  11.074   3.172   3.045 -0.2802  0.0940 -0.6288
29334SOL    HW197932  11.053   3.227   3.120 -0.8262  2.8463 -2.6341
29334SOL    HW297933  11.164   3.145   3.060 -0.2815  0.8242  0.8789
29335SOL     OW97934   9.652  12.107   9.292 -0.3341 -0.1921  0.1533
29335SOL    HW197935   9.600  12.106   9.212  0.4932 -1.7319 -0.3895
29335SOL    HW297936   9.587  12.106   9.363 -1.0566 -1.0006 -0.5080
29336SOL     OW97937   4.007   6.744   9.673 -0.5358 -0.8827  0.0918
29336SOL    HW197938   4.040   6.729   9.584  1.3836  0.2803  0.5481
29336SOL    HW297939   4.022   6.838   9.688 -0.0656 -1.2205  1.9262
29337SOL     OW97940  11.823   9.200   7.601  0.3763  0.4330 -0.1687
29337SOL    HW197941  11.754   9.213   7.536  0.5671 -0.4053 -0.5444
29337SOL    HW297942  11.869   9.121   7.572  1.9738  1.3865 -0.3496
29338SOL     OW97943   1.597   4.770   1.840  0.1046  0.8291  0.2467
29338SOL    HW197944   1.676   4.719   1.821  0.9692  1.8852  0.8836
29338SOL    HW297945   1.528   4.705   1.852  0.9099 -0.1213 -0.1811
29339SOL     OW97946   9.477   7.585   6.676  0.1718  0.1519  0.5029
29339SOL    HW197947   9.392   7.556   6.642  0.3509  0.8148 -0.5861
29339SOL    HW297948   9.499   7.521   6.744 -0.0225 -1.5337 -0.9364
29340SOL     OW97949   0.463   5.713  11.622 -0.2097  0.3697 -0.4708
29340SOL    HW197950   0.484   5.793  11.574 -1.4826  1.3876  0.5955
29340SOL    HW297951   0.387   5.736  11.675 -0.8119 -1.6548 -0.3687
29341SOL     OW97952   4.437  12.335   3.669 -0.3764  0.3074  0.4793
29341SOL    HW197953   4.482  12.288   3.599 -1.1980 -1.7666  1.2424
29341SOL    HW297954   4.344  12.322   3.649 -0.6144  0.9275  1.1649
29342SOL     OW97955  11.531   3.917   5.889 -0.5625  0.0249  0.3065
29342SOL    HW197956  11.534   3.974   5.966  2.7139  1.4819 -0.7244
29342SOL    HW297957  11.509   3.976   5.816 -1.9805 -1.0237 -0.1690
29343SOL     OW97958   1.274  13.081  10.814  0.2078  0.4635  0.2276
29343SOL    HW197959   1.272  13.003  10.871  4.1412 -1.1540 -1.5194
29343SOL    HW297960   1.317  13.148  10.867 -0.8327  0.6881  0.8321
29344SOL     OW97961   1.501  12.513   8.529 -0.0444  0.1987  0.0860
29344SOL    HW197962   1.435  12.580   8.514  0.8225  0.8118 -1.1599
29344SOL    HW297963   1.581  12.562   8.550  0.6951 -0.3801 -1.2258
29345SOL     OW97964   7.952  11.835   3.714  0.0181 -0.1209  0.7202
29345SOL    HW197965   7.902  11.916   3.705  0.4287  0.0913  0.3520
29345SOL    HW297966   8.013  11.852   3.785 -1.3856 -0.8740  2.1797
29346SOL     OW97967   3.859  12.107   0.178  0.7711  0.1132 -1.0631
29346SOL    HW197968   3.848  12.134   0.269  1.4522  0.1182 -0.9785
29346SOL    HW297969   3.783  12.144   0.133 -1.4610 -2.7285  0.0933
29347SOL     OW97970   1.683   4.010   7.024  0.5582 -0.0296 -0.3363
29347SOL    HW197971   1.767   3.965   7.023  1.7473  2.0119  0.4661
29347SOL    HW297972   1.659   4.015   7.116 -0.6160 -0.8187 -0.5737
29348SOL     OW97973   6.625   2.624   7.209 -0.4836 -0.8746  0.3087
29348SOL    HW197974   6.615   2.555   7.274 -0.0464 -1.7987 -0.5784
29348SOL    HW297975   6.617   2.579   7.125  0.4892  0.0496 -0.3004
29349SOL     OW97976   1.250  10.963   5.892 -0.0433 -0.1528  0.0769
29349SOL    HW197977   1.235  11.021   5.818  0.8831  0.5231  0.3949
29349SOL    HW297978   1.166  10.919   5.906 -0.0335 -0.8836 -1.8442
29350SOL     OW97979  12.638   2.424  13.183  0.4381  0.2179  0.8100
29350SOL    HW197980  12.573   2.485  13.219  0.8637  1.4948 -0.4941
29350SOL    HW297981  12.674   2.379  13.259 -1.1370  0.3218  1.6576
29351SOL     OW97982   2.054   9.449   1.320 -0.0255  0.5696  0.3326
29351SOL    HW197983   2.081   9.386   1.253 -1.1648 -0.1060  0.4650
29351SOL    HW297984   2.000   9.512   1.272  0.3537  0.9182  0.3638
29352SOL     OW97985  11.378   3.893   3.752 -0.9036 -0.2613  0.1983
29352SOL    HW197986  11.335   3.849   3.678 -1.0121 -1.2646  0.8393
29352SOL    HW297987  11.364   3.986   3.735 -0.5336 -0.4477 -1.2773
29353SOL     OW97988  11.559   4.039   5.416 -0.3174 -0.1646 -0.1672
29353SOL    HW197989  11.499   4.089   5.362  0.4889  0.5864 -0.3786
29353SOL    HW297990  11.504   3.973   5.459 -1.4695  1.1393  0.4210
29354SOL     OW97991   4.973  10.206  12.539 -0.1600  0.1549  0.1887
29354SOL    HW197992   5.066  10.191  12.557 -0.4461 -1.2130  0.6789
29354SOL    HW297993   4.933  10.215  12.625 -0.3947  1.4513 -0.0412
29355SOL     OW97994   3.603  13.171   0.186  0.6464 -0.1192 -0.4582
29355SOL    HW197995   3.554  13.208   0.113  1.1911 -0.6870 -1.1201
29355SOL    HW297996   3.538  13.121   0.236  0.1855  0.6152 -0.3025
29356SOL     OW97997   2.821   0.299   0.182  0.2610 -0.0123 -0.9760
29356SOL    HW197998   2.834   0.342   0.097  0.0026  0.4639 -0.7733
29356SOL    HW297999   2.733   0.324   0.208  0.1180 -0.6477 -0.8445
29357SOL     OW98000  12.626   7.808  11.878 -0.0024 -0.8022  0.3358
29357SOL    HW198001  12.687   7.764  11.818 -0.3963 -0.7549 -0.1056
29357SOL    HW298002  12.555   7.745  11.889 -0.4314 -0.3900 -0.0740
29358SOL     OW98003   3.841   0.100  11.585 -0.4487  0.1533  0.4757
29358SOL    HW198004   3.867   0.016  11.623 -0.7125 -0.9627 -1.6011
29358SOL    HW298005   3.916   0.158  11.600  1.3474 -1.5566 -1.1427
29359SOL     OW98006   0.974  11.924   0.810 -0.3488 -0.3107 -0.2901
29359SOL    HW198007   0.929  11.917   0.894  0.3770 -1.2277  0.0395
29359SOL    HW298008   0.987  11.833   0.782 -0.0223 -0.0257 -1.0875
29360SOL     OW98009   3.389  11.668   1.460 -0.3746  0.7289 -0.4085
29360SOL    HW198010   3.440  11.619   1.395 -0.0076  1.1753 -0.4670
29360SOL    HW298011   3.300  11.634   1.452 -0.1059 -0.0011 -0.3668
29361SOL     OW98012   3.275   3.724   4.200 -0.0822 -0.8323 -0.0699
29361SOL    HW198013   3.305   3.803   4.155  1.6101 -1.0101  0.6705
29361SOL    HW298014   3.225   3.677   4.134  0.0913  0.1721 -0.9486
29362SOL     OW98015   6.020  11.812  10.703 -0.7590 -0.5353  0.6090
29362SOL    HW198016   5.937  11.859  10.700 -0.6893 -0.4361  0.0119
29362SOL    HW298017   6.016  11.751  10.629  0.4063  0.7044 -0.5459
29363SOL     OW98018  12.239  10.774   5.643  0.3487 -0.8798 -0.0019
29363SOL    HW198019  12.312  10.836   5.650  0.1980 -0.3611 -2.3071
29363SOL    HW298020  12.281  10.688   5.640  0.6114 -0.8982  2.1293
29364SOL     OW98021   3.419   1.545   3.333  0.2604 -0.9389 -0.1080
29364SOL    HW198022   3.466   1.461   3.338  1.9031 -0.0664 -0.3124
29364SOL    HW298023   3.470   1.604   3.388 -1.6471 -0.3839  1.1592
29365SOL     OW98024   2.381   8.372   4.299 -0.1620  0.5071  0.0007
29365SOL    HW198025   2.370   8.401   4.209 -3.1072  0.0788  0.1393
29365SOL    HW298026   2.323   8.296   4.307  0.4070  0.2396  2.1298
29366SOL     OW98027   0.509  10.940   9.137 -0.4795  0.6258 -0.3729
29366SOL    HW198028   0.594  10.945   9.181 -0.6549 -0.8539  0.1602
29366SOL    HW298029   0.506  10.852   9.100 -1.8692  0.5906 -0.2206
29367SOL     OW98030  12.261   3.647   7.049  0.1785 -0.0732  0.4384
29367SOL    HW198031  12.167   3.668   7.050 -0.2636 -1.9360  1.3313
29367SOL    HW298032  12.294   3.684   7.130  0.2599  0.6739  0.0755
29368SOL     OW98033   7.706   2.018   2.961 -0.2600  0.0373  0.7479
29368SOL    HW198034   7.761   2.087   2.924 -0.0085  0.6824  2.2419
29368SOL    HW298035   7.639   2.066   3.011 -1.6721 -0.7510 -0.3226
29369SOL     OW98036   6.265   0.215   9.328  0.0911  0.1111  0.0077
29369SOL    HW198037   6.339   0.275   9.339  1.9607 -1.9446 -0.5951
29369SOL    HW298038   6.285   0.168   9.247 -0.6951 -2.0662  1.0046
29370SOL     OW98039   6.046   4.655  11.494 -0.3991 -0.1477  0.2930
29370SOL    HW198040   6.031   4.629  11.403 -1.3428  0.4078  0.2734
29370SOL    HW298041   6.113   4.595  11.525  0.6718  0.2941 -1.0613
29371SOL     OW98042   5.674   7.559   0.350 -0.2977 -0.0153  0.1155
29371SOL    HW198043   5.695   7.649   0.326 -1.3772  0.0833 -0.5217
29371SOL    HW298044   5.590   7.565   0.396  0.3882 -0.5249  1.5068
29372SOL     OW98045   1.392   1.478   2.586 -0.4387 -0.3601  0.4537
29372SOL    HW198046   1.477   1.460   2.545 -1.5463 -0.2937 -2.0901
29372SOL    HW298047   1.413   1.531   2.663  1.8292 -0.6385  0.1058
29373SOL     OW98048   3.911   0.494   6.519  0.2924 -0.2898 -0.2357
29373SOL    HW198049   3.996   0.487   6.561  1.7966 -2.2715 -3.2537
29373SOL    HW298050   3.929   0.538   6.436 -1.4862 -1.2675 -1.2006
29374SOL     OW98051  12.322   9.982   9.806 -0.2181  0.5253 -0.2414
29374SOL    HW198052  12.271  10.037   9.865  0.2687  1.3728 -0.5970
29374SOL    HW298053  12.262   9.911   9.780 -1.1918  1.4595 -0.6020
29375SOL     OW98054  12.125   3.151   2.717  0.0503  0.0463  0.2312
29375SOL    HW198055  12.067   3.159   2.792 -0.6851 -1.0094 -0.2020
29375SOL    HW298056  12.113   3.233   2.668 -0.0655  0.3946  0.8400
29376SOL     OW98057  13.021   9.532  13.299 -0.7002 -0.0907 -0.4266
29376SOL    HW198058  13.033   9.455  13.243 -0.9021 -1.4777  1.3562
29376SOL    HW298059  13.015   9.497  13.387  0.0764  2.0651  0.5506
29377SOL     OW98060   0.756   5.506  12.449 -0.3438  0.1264 -0.3664
29377SOL    HW198061   0.825   5.508  12.516 -0.9347  0.9490  0.2210
29377SOL    HW298062   0.749   5.596  12.419  0.2394 -0.3042 -1.9007
29378SOL     OW98063   5.378  11.010   1.922  0.1435  0.2436 -0.5466
29378SOL    HW198064   5.342  11.089   1.963 -0.6387  0.0415 -0.8253
29378SOL    HW298065   5.473  11.023   1.925  0.0428  0.9768 -0.1596
29379SOL     OW98066   9.293   9.574   7.375 -0.0356  0.3049 -0.2262
29379SOL    HW198067   9.212   9.526   7.360  0.5092 -0.7561  0.1568
29379SOL    HW298068   9.355   9.537   7.312  0.1077  1.2694 -0.6788
29380SOL     OW98069   7.969  11.589   2.194  0.5557  0.2825  0.2555
29380SOL    HW198070   8.024  11.544   2.258  1.9672 -0.2722 -1.2631
29380SOL    HW298071   7.948  11.673   2.234  0.8161 -0.3201  1.7091
29381SOL     OW98072   2.694  11.801   2.911 -0.2760  0.3293 -0.7399
29381SOL    HW198073   2.662  11.816   3.000 -1.1538 -0.4393 -0.9201
29381SOL    HW298074   2.724  11.710   2.911  0.9395  0.7056 -0.8814
29382SOL     OW98075   2.942   3.968  11.544 -0.1576 -0.3167 -0.2307
29382SOL    HW198076   2.914   4.021  11.469 -0.0396 -0.4595 -0.3785
29382SOL    HW298077   2.909   4.015  11.620 -0.2573 -0.1549 -0.3713
29383SOL     OW98078  10.917  10.411   4.040 -0.0845  0.6211 -0.7216
29383SOL    HW198079  10.828  10.426   4.071  0.5251  0.0483  1.5049
29383SOL    HW298080  10.964  10.378   4.116  2.0342  0.8297 -1.8429
29384SOL     OW98081  11.355   8.716  12.223 -0.2332 -0.5999 -0.0837
29384SOL    HW198082  11.349   8.791  12.164  0.6529 -0.2808  0.2165
29384SOL    HW298083  11.432   8.734  12.277  0.3865 -2.0455 -0.4388
29385SOL     OW98084  12.632   0.497   0.414  0.1302 -0.0771 -0.2380
29385SOL    HW198085  12.671   0.585   0.417 -0.8625  0.3555  0.5249
29385SOL    HW298086  12.539   0.512   0.433  0.3767 -1.5644  2.7102
29386SOL     OW98087   2.800  11.274   8.557 -0.0094  0.5234  0.5953
29386SOL    HW198088   2.895  11.274   8.548  0.0217  2.8025  0.2963
29386SOL    HW298089   2.777  11.366   8.575 -2.1969  0.1862 -0.1052
29387SOL     OW98090   7.361   8.338  12.812  0.4211 -0.1988 -0.4652
29387SOL    HW198091   7.409   8.416  12.783  1.3650 -0.3109  0.7402
29387SOL    HW298092   7.273   8.350  12.776  0.4987  1.4947 -0.1796
29388SOL     OW98093   7.254   1.665  11.045  0.6332  0.2792 -0.0786
29388SOL    HW198094   7.306   1.608  11.101  0.9979  0.0291 -0.6575
29388SOL    HW298095   7.317   1.729  11.012  0.8662 -0.7711 -1.7765
29389SOL     OW98096   4.167   5.591  12.372  0.3590  0.8635  0.2603
29389SOL    HW198097   4.128   5.613  12.456  0.4347  0.4432  0.4058
29389SOL    HW298098   4.260   5.581  12.390  0.2121 -0.4714  0.3848
29390SOL     OW98099   7.000   7.482   4.273  0.0771  0.1378  0.0956
29390SOL    HW198100   7.071   7.431   4.234  0.0833  0.8916 -0.9376
29390SOL    HW298101   7.038   7.570   4.284 -0.0097  0.0117  1.6012
29391SOL     OW98102   7.584   6.000   8.538  0.0627  0.0972  0.0698
29391SOL    HW198103   7.525   5.986   8.463 -0.2647  2.1759 -0.1152
29391SOL    HW298104   7.613   6.091   8.529  1.4625 -0.1666  1.4846
29392SOL     OW98105   8.415   4.010  12.160 -0.5210 -0.5310  0.3060
29392SOL    HW198106   8.423   3.948  12.232 -0.8808 -0.1745  0.6544
29392SOL    HW298107   8.501   4.053  12.156 -0.6317 -0.2471  0.8082
29393SOL     OW98108   1.431  10.841   9.108  0.0053  0.0382 -0.0646
29393SOL    HW198109   1.457  10.888   9.029 -0.7374  1.8979  0.7110
29393SOL    HW298110   1.365  10.898   9.148  2.3404  0.6459  3.3585
29394SOL     OW98111  12.796  10.028  12.385 -0.7393 -0.2780  0.1432
29394SOL    HW198112  12.746  10.109  12.397  1.2057  1.2065 -1.1496
29394SOL    HW298113  12.871  10.038  12.445 -0.6328 -1.2677  0.1832
29395SOL     OW98114   1.678   0.288   6.067  0.8325 -0.4992  0.2203
29395SOL    HW198115   1.699   0.337   6.146  0.0610 -0.3685  0.3578
29395SOL    HW298116   1.614   0.222   6.096  0.1841 -0.1483 -0.3722
29396SOL     OW98117  10.920   3.069  11.078  0.4171  0.2089 -0.0398
29396SOL    HW198118  10.841   3.020  11.054  0.3532  0.5029 -0.4537
29396SOL    HW298119  10.961   3.016  11.146 -0.0070 -0.0743  0.0030
29397SOL     OW98120  10.938   8.777  10.305 -0.3633 -0.0749 -0.2356
29397SOL    HW198121  11.009   8.835  10.330 -0.9592 -0.0539  1.5033
29397SOL    HW298122  10.972   8.689  10.319  0.1422 -0.1680 -1.7886
29398SOL     OW98123  12.855   4.457  12.865 -0.3018 -0.9537 -0.2997
29398SOL    HW198124  12.789   4.435  12.799  0.5738 -1.5331 -0.9925
29398SOL    HW298125  12.924   4.392  12.854  1.0500  0.4491 -0.5104
29399SOL     OW98126   7.042   4.346  10.744  0.1856  0.1824  0.0647
29399SOL    HW198127   7.105   4.378  10.808  1.4246 -1.4390 -0.2783
29399SOL    HW298128   7.069   4.386  10.661 -1.4361  2.3067  0.4604
29400SOL     OW98129   6.103  10.950   9.232  0.3309  0.2151 -0.2368
29400SOL    HW198130   6.191  10.987   9.239  0.8140 -0.7508 -0.9596
29400SOL    HW298131   6.068  10.954   9.321  1.2725  0.2123  0.1473
29401SOL     OW98132   9.237  10.809   7.200  0.2460  0.4871 -0.6590
29401SOL    HW198133   9.208  10.726   7.160 -0.1707  1.4566 -2.4504
29401SOL    HW298134   9.183  10.876   7.159  0.8800  1.7283  0.4479
29402SOL     OW98135   7.855   7.693   0.105  0.3056 -0.3378 -0.1387
29402SOL    HW198136   7.875   7.623   0.166  0.2686 -0.3936 -0.1911
29402SOL    HW298137   7.846   7.771   0.161 -1.3718 -0.6918  0.1298
29403SOL     OW98138   4.008  10.015   2.378 -0.2481 -0.1134 -0.4968
29403SOL    HW198139   3.934  10.019   2.438 -0.4913 -0.7088 -0.7469
29403SOL    HW298140   4.055  10.097   2.393  0.5728 -0.9063  1.6215
29404SOL     OW98141   3.950  13.128   1.199 -0.1229  0.1987  0.5493
29404SOL    HW198142   4.015  13.059   1.197 -0.5766 -0.2219 -0.0175
29404SOL    HW298143   3.977  13.185   1.270  0.7618 -0.0662  0.4305
29405SOL     OW98144  10.394   6.685  12.058 -0.3241 -0.3981  0.3306
29405SOL    HW198145  10.393   6.645  11.971 -2.4447 -0.1417  0.1853
29405SOL    HW298146  10.399   6.611  12.119  0.1613 -0.6279  0.0168
29406SOL     OW98147   2.712   6.731   6.313  0.0670  0.1128  0.1993
29406SOL    HW198148   2.770   6.702   6.384  0.6834  0.5901 -0.0949
29406SOL    HW298149   2.635   6.675   6.320  0.4877 -0.4135  0.7209
29407SOL     OW98150  12.928  10.663  11.867 -0.1914  0.2074 -0.3156
29407SOL    HW198151  12.849  10.648  11.918 -0.6051 -0.6454 -1.1679
29407SOL    HW298152  12.992  10.601  11.902 -0.1111  0.4246 -0.0769
29408SOL     OW98153  11.017   1.978   1.425  0.2558  0.4284  0.0027
29408SOL    HW198154  10.953   1.935   1.369 -0.6427 -0.9250  1.9551
29408SOL    HW298155  10.966   2.044   1.473  0.3763 -0.3560  1.2469
29409SOL     OW98156   4.892  11.230  11.668  0.1594  0.4428 -0.1623
29409SOL    HW198157   4.907  11.150  11.718  2.3633  2.0384  2.0260
29409SOL    HW298158   4.867  11.200  11.581 -1.3647 -2.5493  1.1618
29410SOL     OW98159   3.606   9.628  11.146  0.2690 -0.6249 -0.0813
29410SOL    HW198160   3.584   9.540  11.116 -0.7726  0.1418 -1.7649
29410SOL    HW298161   3.700   9.627  11.159  0.3673 -1.7998 -0.7670
29411SOL     OW98162   1.637   6.171   7.900 -0.7342 -0.0232 -0.4026
29411SOL    HW198163   1.665   6.218   7.978 -1.3283  1.3275 -0.9687
29411SOL    HW298164   1.661   6.080   7.916  0.3106  0.4417  0.8039
29412SOL     OW98165   7.063   2.577  12.849 -0.2056 -0.0872 -0.4413
29412SOL    HW198166   7.072   2.660  12.801 -0.8576 -0.6093 -1.5213
29412SOL    HW298167   6.968   2.561  12.851 -0.1596 -0.3140  0.6522
29413SOL     OW98168   8.305   9.282   2.123  0.0672 -0.1823  0.1040
29413SOL    HW198169   8.265   9.364   2.093 -0.2285  0.7629  2.8178
29413SOL    HW298170   8.238   9.216   2.109 -0.4254  0.4001 -0.3309
29414SOL     OW98171   2.384   7.732   2.650 -0.1624  0.3485  0.0491
29414SOL    HW198172   2.368   7.750   2.558  1.2478 -1.7253 -0.6818
29414SOL    HW298173   2.417   7.815   2.686  0.5887  0.8315 -1.6655
29415SOL     OW98174   0.889   6.805   8.126  0.3225  0.1580 -0.0554
29415SOL    HW198175   0.976   6.784   8.160 -0.3383 -1.0921  0.9591
29415SOL    HW298176   0.840   6.722   8.132 -0.8615  0.7735 -0.8173
29416SOL     OW98177   2.596  13.076  10.524  0.2218  0.1718  0.2926
29416SOL    HW198178   2.520  13.066  10.581  1.2643  2.0200  2.1956
29416SOL    HW298179   2.670  13.046  10.578  0.9290 -1.2025 -1.3575
29417SOL     OW98180   3.669   1.964   5.301  0.2123  0.7878 -0.0161
29417SOL    HW198181   3.596   1.976   5.240  0.2254 -0.6653 -0.3462
29417SOL    HW298182   3.627   1.941   5.384  0.2807  0.0419 -0.1826
29418SOL     OW98183   8.707  10.251   7.226  0.2978  0.3612 -0.0852
29418SOL    HW198184   8.778  10.265   7.288  1.0459 -0.8934 -0.6172
29418SOL    HW298185   8.630  10.238   7.281  0.5099  1.4964  0.5058
29419SOL     OW98186   7.960   3.833   3.435 -0.3318 -0.2475  0.1140
29419SOL    HW198187   7.898   3.815   3.505 -1.3618 -0.6364 -0.8706
29419SOL    HW298188   7.935   3.919   3.401  0.6189  0.2687  0.6706
29420SOL     OW98189   0.151   6.423   1.189 -0.0505  0.5425  0.0520
29420SOL    HW198190   0.148   6.471   1.106  0.0692  1.0469  0.3341
29420SOL    HW298191   0.113   6.483   1.253  0.7112  0.5311  0.5336
29421SOL     OW98192   9.744   7.049   3.918 -0.1709  0.4366 -0.3172
29421SOL    HW198193   9.683   7.019   3.850  1.0817 -0.0858 -1.2399
29421SOL    HW298194   9.822   7.076   3.870  0.0854  1.7776  0.7931
29422SOL     OW98195  11.119   2.074  12.024  0.1113  0.1718 -0.2767
29422SOL    HW198196  11.150   2.070  11.934  0.1354 -0.1463 -0.2536
29422SOL    HW298197  11.048   2.139  12.022  0.5868  0.6978 -0.3831
29423SOL     OW98198  11.947  11.175   2.002 -0.0580 -0.2572  0.1181
29423SOL    HW198199  11.894  11.103   2.036 -1.9195  0.7280 -0.5498
29423SOL    HW298200  11.895  11.211   1.930  0.5221  2.1346  0.8151
29424SOL     OW98201   3.513   5.129  10.009 -0.2005  0.2367  0.2337
29424SOL    HW198202   3.576   5.066   9.974 -0.6207  0.9533 -1.9875
29424SOL    HW298203   3.443   5.076  10.045 -0.4514 -0.6100 -1.4178
29425SOL     OW98204   1.987   3.764  12.005 -0.3019 -0.0418  0.4412
29425SOL    HW198205   2.067   3.792  12.051 -0.2674 -0.2512  0.5107
29425SOL    HW298206   1.919   3.821  12.039 -0.4011 -0.6150  1.2293
29426SOL     OW98207   0.551   8.537   3.993 -0.6113  0.3415  0.1357
29426SOL    HW198208   0.620   8.509   3.933 -0.9297  0.9956 -0.5557
29426SOL    HW298209   0.490   8.464   3.996  0.2523 -0.3697  0.9958
29427SOL     OW98210   1.330  10.401  11.065 -0.0869  0.2539  0.0197
29427SOL    HW198211   1.255  10.459  11.073  0.7063  1.4425 -0.7635
29427SOL    HW298212   1.352  10.376  11.155 -0.2882  1.3852  0.3919
29428SOL     OW98213   1.855   4.737   1.093 -0.0365  0.0746  0.1325
29428SOL    HW198214   1.810   4.711   1.012  0.4045  1.7687 -0.7097
29428SOL    HW298215   1.805   4.812   1.124  0.0030 -0.3593  1.2685
29429SOL     OW98216  12.210   4.834  11.810 -0.3399 -0.1133 -0.4417
29429SOL    HW198217  12.180   4.777  11.741 -0.3662 -0.2514 -0.3165
29429SOL    HW298218  12.196   4.785  11.891 -0.8966  0.2963 -0.2860
29430SOL     OW98219   7.354   5.988  10.301  0.5735 -0.0888 -0.4459
29430SOL    HW198220   7.390   5.914  10.252 -0.0687  0.0024 -1.0787
29430SOL    HW298221   7.371   6.064  10.245  2.6648  0.5070  0.9152
29431SOL     OW98222  12.888  11.351   7.773 -0.7342 -0.7483  1.0753
29431SOL    HW198223  12.815  11.390   7.724 -0.0828 -1.8365 -0.8935
29431SOL    HW298224  12.905  11.412   7.844 -0.9268  1.5998 -0.7832
29432SOL     OW98225  11.476   2.203  11.825  0.1243  0.1100 -0.4610
29432SOL    HW198226  11.553   2.244  11.784  0.2090 -0.3106 -0.7367
29432SOL    HW298227  11.486   2.110  11.805 -0.9753  0.1696 -1.3680
29433SOL     OW98228   3.861   0.153  11.151  0.2304 -0.1421  0.0735
29433SOL    HW198229   3.803   0.077  11.163  0.6551 -0.1680  2.7196
29433SOL    HW298230   3.940   0.130  11.199  1.1154  1.2409 -0.6624
29434SOL     OW98231   6.881   5.491   0.989 -0.1407  0.1546 -0.1952
29434SOL    HW198232   6.928   5.526   1.064 -0.0510 -2.0895  0.9060
29434SOL    HW298233   6.947   5.446   0.937 -0.4687  0.2516 -0.7074
29435SOL     OW98234   6.287   6.336   7.402 -0.2481  0.4975 -0.7047
29435SOL    HW198235   6.229   6.298   7.337 -1.1477 -0.3190  0.5368
29435SOL    HW298236   6.375   6.306   7.376 -0.7167 -0.7829 -0.8950
29436SOL     OW98237   4.774   9.646  12.272  0.1936 -0.1419  0.1206
29436SOL    HW198238   4.864   9.645  12.305  0.7612 -0.2751 -1.3433
29436SOL    HW298239   4.768   9.568  12.218 -0.8627 -0.2111  0.3310
29437SOL     OW98240   5.076   1.020   0.776  0.3001 -0.2795  0.1354
29437SOL    HW198241   5.067   1.107   0.815  0.5240  0.0653 -0.5662
29437SOL    HW298242   5.059   1.034   0.683  1.1985 -0.8261 -0.1243
29438SOL     OW98243   7.714   5.445   3.406 -0.1859 -0.2934 -0.3071
29438SOL    HW198244   7.751   5.533   3.399 -1.6148  0.3763  0.2971
29438SOL    HW298245   7.755   5.408   3.484 -0.0424  0.0453 -0.2198
29439SOL     OW98246   0.543  12.299  12.422 -0.3108 -0.3196  0.1032
29439SOL    HW198247   0.613  12.263  12.367 -0.2830 -0.4063  0.1936
29439SOL    HW298248   0.571  12.388  12.442  0.6475 -0.8996  1.5759
29440SOL     OW98249  12.014   2.542   4.487  0.3331  0.0605  0.5090
29440SOL    HW198250  11.921   2.539   4.466  0.7743 -1.6075 -1.6219
29440SOL    HW298251  12.018   2.523   4.581 -1.5043  1.7619  0.9990
29441SOL     OW98252   4.045   7.315   8.693 -0.2460  0.6498 -0.6388
29441SOL    HW198253   4.050   7.232   8.647  0.3434  0.7789 -0.8132
29441SOL    HW298254   3.972   7.362   8.651  0.3030  0.7812 -1.4626
29442SOL     OW98255   5.475   8.457  12.131  0.6157  0.1038  0.2443
29442SOL    HW198256   5.398   8.402  12.144 -0.3189  1.5487  1.0581
29442SOL    HW298257   5.441   8.539  12.095  1.9694  0.1855 -0.9468
29443SOL     OW98258   3.723  11.516   1.021  0.0851 -0.1323 -0.1215
29443SOL    HW198259   3.789  11.586   1.026 -0.1568  0.0487  0.5982
29443SOL    HW298260   3.765  11.441   1.065 -0.5127  0.2498  1.1423
29444SOL     OW98261   8.974  11.142  12.614 -0.4585  0.1330  0.3738
29444SOL    HW198262   8.980  11.135  12.709 -0.6152 -0.5639  0.3385
29444SOL    HW298263   8.977  11.052  12.583 -0.7857  0.3356 -0.2635
29445SOL     OW98264   2.283   0.809  10.511 -0.0171 -0.1669  0.2106
29445SOL    HW198265   2.208   0.772  10.464  0.3756 -0.9829  0.2232
29445SOL    HW298266   2.243   0.862  10.581 -0.5847 -0.0050 -0.2266
29446SOL     OW98267   7.494  12.581   0.577 -0.1225 -0.2230 -0.6549
29446SOL    HW198268   7.465  12.668   0.606  0.6463 -0.5674  1.2955
29446SOL    HW298269   7.484  12.526   0.655  0.7813 -1.5369 -1.4434
29447SOL     OW98270   0.222   6.431   7.772 -0.5455 -0.0226 -0.2375
29447SOL    HW198271   0.236   6.357   7.832  2.4067  0.6275  0.0266
29447SOL    HW298272   0.258   6.402   7.689 -1.9150  0.1583 -0.9170
29448SOL     OW98273   8.843  11.971   4.610  0.0490 -0.3372  0.3062
29448SOL    HW198274   8.852  11.876   4.621 -0.5697 -0.5621 -0.9126
29448SOL    HW298275   8.914  11.996   4.551 -0.5044 -0.2511 -0.3335
29449SOL     OW98276   3.170   7.909  12.602 -0.2495  0.1337 -0.2690
29449SOL    HW198277   3.222   7.983  12.570  2.3532 -0.1372  2.8094
29449SOL    HW298278   3.217   7.832  12.570  1.3126 -0.1117  2.3341
29450SOL     OW98279   0.951   8.449   5.028 -0.2446  0.9549  0.0616
29450SOL    HW198280   0.946   8.534   4.985  0.3857  2.1090  2.1214
29450SOL    HW298281   1.041   8.444   5.062  0.0143 -0.9444 -0.7341
29451SOL     OW98282   9.393   4.120   6.451  0.3797 -0.2244  0.0851
29451SOL    HW198283   9.428   4.208   6.464  2.2565 -0.9227 -0.0075
29451SOL    HW298284   9.460   4.074   6.400 -1.6066 -1.0282 -1.9738
29452SOL     OW98285   4.701   0.253   7.528 -0.0074  0.9970  0.0970
29452SOL    HW198286   4.682   0.167   7.565  1.0437  0.4709 -0.5336
29452SOL    HW298287   4.687   0.243   7.434  2.3828  0.7802 -0.3195
29453SOL     OW98288   3.027   6.054   7.936  0.3865 -0.3678  0.0879
29453SOL    HW198289   3.103   6.044   7.993 -0.0102 -0.5966  0.5893
29453SOL    HW298290   2.966   6.107   7.987 -0.0550 -0.7443 -0.0378
29454SOL     OW98291  10.093   3.117   9.021  0.2736 -0.4716  0.4216
29454SOL    HW198292  10.102   3.057   9.096 -0.9682 -0.2708  0.7434
29454SOL    HW298293   9.999   3.135   9.015  0.5880  1.2498  0.1665
29455SOL     OW98294  12.468   3.816   8.532 -0.0525 -0.6150 -0.4740
29455SOL    HW198295  12.393   3.868   8.503 -0.8045 -1.8249 -0.7280
29455SOL    HW298296  12.527   3.881   8.572 -2.7699  0.0070  2.9974
29456SOL     OW98297   1.750   1.365  10.111 -0.5705  0.0109  0.2595
29456SOL    HW198298   1.787   1.277  10.120  0.8903  0.5386 -0.2539
29456SOL    HW298299   1.682   1.369  10.178 -0.6304 -1.4898  0.3304
29457SOL     OW98300   7.966   1.393  10.135 -0.4047 -0.4676  0.1316
29457SOL    HW198301   7.925   1.307  10.123  0.5030 -0.7671 -1.0045
29457SOL    HW298302   7.945   1.441  10.054 -1.1907  0.5304  0.8869
29458SOL     OW98303  12.246   4.384   1.413 -0.0818  0.1881 -0.0455
29458SOL    HW198304  12.171   4.326   1.424 -1.7171  2.3164  0.5621
29458SOL    HW298305  12.223   4.439   1.338  1.1235  0.5077 -0.1987
29459SOL     OW98306   6.359   3.013  13.152 -0.1028 -0.0184  0.3310
29459SOL    HW198307   6.379   2.919  13.153  2.3369  0.4350  0.1283
29459SOL    HW298308   6.307   3.025  13.072 -1.2190 -1.2820  0.8210
29460SOL     OW98309  11.886  12.433  11.033  0.5876 -0.0518 -0.3877
29460SOL    HW198310  11.915  12.365  11.094 -1.1954  0.0961  0.7208
29460SOL    HW298311  11.813  12.393  10.985 -0.5965  1.0701  0.3953
29461SOL     OW98312  13.202   8.830   1.719 -0.5244  0.4931  0.2474
29461SOL    HW198313  13.211   8.903   1.658  1.0699  0.6873  0.6607
29461SOL    HW298314  13.174   8.871   1.801 -0.9986  0.4458  0.1137
29462SOL     OW98315   5.025  10.461   8.830  0.0167 -0.4956 -0.0445
29462SOL    HW198316   4.944  10.473   8.781 -0.1634 -1.2383  0.0473
29462SOL    HW298317   4.998  10.410   8.907  0.6313 -1.1311 -0.2379
29463SOL     OW98318   3.779   4.440   9.298 -0.5657 -0.3970  0.3012
29463SOL    HW198319   3.865   4.464   9.265 -0.5712 -1.0617 -0.2303
29463SOL    HW298320   3.792   4.353   9.337 -0.8541 -0.2080  0.8266
29464SOL     OW98321   4.195   1.446   0.954 -1.0469  0.6014 -0.3415
29464SOL    HW198322   4.230   1.427   0.867  0.2096  0.2058  0.2215
29464SOL    HW298323   4.201   1.363   1.001 -0.7201  1.0578  0.4433
29465SOL     OW98324   1.118   5.722  10.549 -0.7252 -0.2302 -0.2960
29465SOL    HW198325   1.197   5.669  10.557 -1.3919 -1.3435 -0.7794
29465SOL    HW298326   1.048   5.666  10.585 -1.5270  0.1236 -1.2530
29466SOL     OW98327   3.820   4.295   1.300 -0.0900  0.4410  0.3009
29466SOL    HW198328   3.898   4.247   1.330 -0.2551 -0.2537 -0.3555
29466SOL    HW298329   3.748   4.234   1.316 -0.3303  0.5673 -0.3170
29467SOL     OW98330   8.151  12.657   2.598 -0.6527 -0.6641  0.5755
29467SOL    HW198331   8.193  12.682   2.516  1.9648  0.0855  2.0580
29467SOL    HW298332   8.119  12.740   2.635 -0.7632 -0.8389  0.8762
29468SOL     OW98333   3.577  12.848  12.699 -0.0745  1.3121 -0.0848
29468SOL    HW198334   3.628  12.872  12.621  1.0581  2.2047  0.9076
29468SOL    HW298335   3.621  12.771  12.733  1.1964  2.5691  1.2507
29469SOL     OW98336   9.343   8.296  11.172  0.0695  0.2785 -0.7093
29469SOL    HW198337   9.375   8.312  11.083 -0.0548 -0.1037 -0.8234
29469SOL    HW298338   9.333   8.384  11.210  0.1556  0.4410 -1.0597
29470SOL     OW98339  10.760   5.738   0.137  0.4416 -0.4466  0.0802
29470SOL    HW198340  10.667   5.763   0.144  0.3716 -0.5814 -0.3387
29470SOL    HW298341  10.796   5.758   0.223 -0.0611 -0.7223  0.3662
29471SOL     OW98342   0.793   0.746   4.841  0.3555  0.2042 -0.6620
29471SOL    HW198343   0.807   0.672   4.901  1.1536  0.3415 -0.6776
29471SOL    HW298344   0.734   0.711   4.774  0.7111 -0.4166 -0.6566
29472SOL     OW98345   3.735   7.098   6.122  0.4426  0.0064 -0.0025
29472SOL    HW198346   3.670   7.075   6.056 -2.0930  0.3038  2.2202
29472SOL    HW298347   3.782   7.017   6.139 -0.2558 -0.5574 -0.6995
29473SOL     OW98348  10.032   5.227   7.292 -0.4909  0.4092  0.2536
29473SOL    HW198349  10.126   5.240   7.284 -0.7550  3.8332  0.9217
29473SOL    HW298350   9.996   5.258   7.209 -1.0661  0.0782  0.3746
29474SOL     OW98351   0.758   7.021   6.355 -0.0372  0.0299  0.0498
29474SOL    HW198352   0.771   7.079   6.430 -3.0668 -0.8715  1.4315
29474SOL    HW298353   0.753   7.079   6.280  0.8389  1.1775  0.8518
29475SOL     OW98354   2.042   0.012   2.778  0.0372  0.1774  0.5451
29475SOL    HW198355   2.113   0.073   2.759  0.9726 -1.1426 -0.3997
29475SOL    HW298356   2.016  -0.022   2.692 -0.7476 -0.4359  1.0101
29476SOL     OW98357   3.572   2.697  10.214  0.2807 -0.1731  0.3519
29476SOL    HW198358   3.487   2.654  10.221  0.0034  0.4380  0.8090
29476SOL    HW298359   3.630   2.628  10.182  0.4474 -1.7171  3.5109
29477SOL     OW98360   4.506  11.502  13.108 -0.2757  0.4097 -0.7056
29477SOL    HW198361   4.436  11.443  13.082 -1.2106  1.8609 -1.6102
29477SOL    HW298362   4.519  11.485  13.202 -1.8031  0.0827 -0.5372
29478SOL     OW98363   8.735   5.052   2.217 -0.3427 -0.3979  0.0813
29478SOL    HW198364   8.785   5.133   2.223 -0.5493  0.0196 -2.7141
29478SOL    HW298365   8.644   5.080   2.210 -0.5300 -0.9459  0.2272
29479SOL     OW98366  11.799  11.821   3.469  0.7740  0.0180  0.5217
29479SOL    HW198367  11.838  11.739   3.438 -1.0015 -0.7240  0.1173
29479SOL    HW298368  11.811  11.882   3.397  1.4102 -0.1115  0.5129
29480SOL     OW98369   5.377  11.562   4.780  0.2065  0.0579  0.6750
29480SOL    HW198370   5.314  11.610   4.833 -1.5432 -1.2625 -0.1173
29480SOL    HW298371   5.401  11.486   4.833  0.9076  0.3925  0.8464
29481SOL     OW98372   6.893   5.089   6.447 -0.1657 -0.1676 -0.1882
29481SOL    HW198373   6.893   5.063   6.539 -0.9393  0.4691  0.0040
29481SOL    HW298374   6.839   5.168   6.444  0.6637  0.3963 -1.0349
29482SOL     OW98375   4.629   8.255   8.867 -0.0416  0.8768 -0.6409
29482SOL    HW198376   4.716   8.236   8.900 -0.5687  0.2144  0.4486
29482SOL    HW298377   4.606   8.181   8.812 -1.7575 -1.5552  2.9215
29483SOL     OW98378   4.412  11.068   1.979  0.2846  0.6127  0.0566
29483SOL    HW198379   4.485  11.085   2.038  0.6501  1.0423 -0.5040
29483SOL    HW298380   4.390  10.976   1.994  1.4366  0.2537 -0.3028
29484SOL     OW98381   8.367   6.979   9.021  0.2039 -0.6094  0.3354
29484SOL    HW198382   8.405   6.897   9.050  0.0200 -0.5776  0.6844
29484SOL    HW298383   8.421   7.007   8.947  1.7101  0.1070  1.6258
29485SOL     OW98384   1.999   7.914   3.318  1.0294  0.6850  0.3044
29485SOL    HW198385   1.984   7.821   3.301  0.4159  1.2510 -2.9963
29485SOL    HW298386   1.928   7.939   3.377 -0.6091 -0.3941 -1.1147
29486SOL     OW98387   5.196   2.928   1.817 -0.3182 -0.0533 -0.0582
29486SOL    HW198388   5.114   2.961   1.779 -1.0408  0.9022  2.1779
29486SOL    HW298389   5.202   2.837   1.786 -1.5242  0.2763 -1.3416
29487SOL     OW98390  10.819   5.456   8.449  0.2656 -0.1834  0.7554
29487SOL    HW198391  10.906   5.436   8.483  0.0093 -3.9086 -0.3156
29487SOL    HW298392  10.759   5.403   8.501 -0.9404 -0.3717 -0.7356
29488SOL     OW98393   7.912  10.773   7.163  0.2416 -0.7268 -0.0638
29488SOL    HW198394   7.870  10.809   7.085  0.1544 -0.5235  0.0751
29488SOL    HW298395   7.971  10.705   7.130  0.4544 -0.4132 -0.3350
29489SOL     OW98396   1.460   3.617   6.948  0.2950 -0.2769 -0.2799
29489SOL    HW198397   1.537   3.627   6.892  0.7711 -0.0442  0.4041
29489SOL    HW298398   1.491   3.639   7.035 -1.1510  2.4192 -0.3475
29490SOL     OW98399   1.957   8.157   0.100 -0.3558  0.3174 -0.2513
29490SOL    HW198400   1.992   8.210   0.028  0.9367  0.7374  0.6594
29490SOL    HW298401   1.939   8.072   0.060 -0.3938  0.7793 -1.2465
29491SOL     OW98402   7.734   4.795   3.638 -0.2860 -0.2098  0.3613
29491SOL    HW198403   7.821   4.835   3.631  0.5373 -1.7734  1.1012
29491SOL    HW298404   7.747   4.718   3.693 -2.1169 -0.6100  0.3161
29492SOL     OW98405   3.930   7.614   6.861 -0.2976  0.6005 -0.1634
29492SOL    HW198406   3.912   7.685   6.923  0.3835  1.4687 -0.9296
29492SOL    HW298407   3.864   7.624   6.793 -0.0907  0.6220 -0.3642
29493SOL     OW98408   1.223   1.443   2.944  0.0601 -0.0321 -0.7623
29493SOL    HW198409   1.216   1.382   3.018 -0.5601  0.5830 -0.2924
29493SOL    HW298410   1.302   1.416   2.897  0.8871  0.0090  0.5479
29494SOL     OW98411   0.222   2.128   4.061 -0.2099  0.1667 -0.1805
29494SOL    HW198412   0.138   2.156   4.025  0.2505  1.7719 -0.0788
29494SOL    HW298413   0.242   2.192   4.129  0.5975 -0.8151  0.5500
29495SOL     OW98414   8.617   2.334  11.416  0.0839  0.0484 -0.5156
29495SOL    HW198415   8.651   2.263  11.361 -0.1388  0.2727 -0.9474
29495SOL    HW298416   8.567   2.289  11.485  0.4620 -0.2388 -0.4251
29496SOL     OW98417   2.488   5.110   3.901 -0.1380  0.1260  0.0842
29496SOL    HW198418   2.570   5.157   3.884  0.6444 -1.6656 -1.6297
29496SOL    HW298419   2.499   5.073   3.989  0.2379  1.1568  0.4768
29497SOL     OW98420  10.843   5.174  11.072  0.4323 -0.1031  0.0615
29497SOL    HW198421  10.834   5.128  10.989 -0.0401 -0.5639  0.3606
29497SOL    HW298422  10.933   5.207  11.073  0.5931 -0.5331 -0.4048
29498SOL     OW98423  13.114   6.656   6.108 -0.2727 -0.9049  0.8402
29498SOL    HW198424  13.032   6.695   6.080  1.3504  0.5599 -2.4605
29498SOL    HW298425  13.101   6.562   6.096 -1.6849 -0.7619  1.0792
29499SOL     OW98426   3.078   6.059  13.017 -0.2725 -0.7495  0.1514
29499SOL    HW198427   3.023   5.985  12.991 -1.1046  0.4884 -1.8546
29499SOL    HW298428   3.159   6.047  12.966 -0.2733 -0.4738  0.0831
29500SOL     OW98429  10.798   0.414  10.543 -0.4698  0.4731  0.2014
29500SOL    HW198430  10.790   0.505  10.571 -1.3850  0.7652 -0.9201
29500SOL    HW298431  10.826   0.420  10.451 -0.0214 -0.3885  0.2702
29501SOL     OW98432   3.238  12.621   9.627  0.1654 -0.1080 -0.1072
29501SOL    HW198433   3.223  12.557   9.558 -0.7623 -0.5115  0.4458
29501SOL    HW298434   3.333  12.625   9.636  0.2712 -0.5619 -0.9196
29502SOL     OW98435   9.743  11.709   6.827  0.2862  0.2180 -0.4247
29502SOL    HW198436   9.754  11.798   6.793 -0.6014  0.2616 -0.6115
29502SOL    HW298437   9.745  11.719   6.922  1.1766  0.2957 -0.4351
29503SOL     OW98438   3.336   6.405   6.221  0.0880 -0.0268  0.7255
29503SOL    HW198439   3.412   6.348   6.232  0.8529  0.2836 -2.0151
29503SOL    HW298440   3.266   6.347   6.193 -0.7768 -0.3074  3.2168
29504SOL     OW98441  11.750  11.798  10.099 -0.1019  0.5747 -0.1953
29504SOL    HW198442  11.662  11.832  10.084 -0.5170 -0.3422  0.0574
29504SOL    HW298443  11.741  11.740  10.175  0.5187 -0.2685 -0.7428
29505SOL     OW98444   5.162  11.104  10.677 -0.2939  0.6162  0.0478
29505SOL    HW198445   5.139  11.094  10.770  0.6059  1.0451  0.3265
29505SOL    HW298446   5.137  11.020  10.638 -1.4782  0.7337  0.4928
29506SOL     OW98447  12.391   1.855  10.596 -0.2392 -0.3412  0.0390
29506SOL    HW198448  12.481   1.834  10.619 -0.7260 -0.5325  1.9238
29506SOL    HW298449  12.364   1.921  10.660 -1.0843  0.5986 -1.2304
29507SOL     OW98450   4.783   8.566   2.730  0.2386  0.0999 -0.1134
29507SOL    HW198451   4.831   8.484   2.724  0.9436  0.4951  0.1250
29507SOL    HW298452   4.735   8.560   2.813  1.8698  0.7690  0.9123
29508SOL     OW98453   0.466   0.464  11.170  0.1921  0.1247 -0.3170
29508SOL    HW198454   0.400   0.442  11.105 -0.2792  1.4087 -0.2869
29508SOL    HW298455   0.441   0.414  11.248  0.7907 -1.4554 -1.0977
29509SOL     OW98456  11.507  10.495   1.507 -0.5942  0.2531 -0.2917
29509SOL    HW198457  11.458  10.574   1.530 -3.7436 -1.6979  0.3657
29509SOL    HW298458  11.474  10.470   1.421 -1.3452 -1.4469  0.4296
29510SOL     OW98459  13.136   3.951   1.226  0.9829 -0.1175 -0.0085
29510SOL    HW198460  13.060   4.007   1.214  0.0152 -1.6824 -1.6178
29510SOL    HW298461  13.132   3.925   1.319  0.4608  1.0411  0.3077
29511SOL     OW98462  11.970  11.219   0.592 -0.4966  0.0915 -0.4819
29511SOL    HW198463  11.926  11.214   0.676  1.0039  0.8324  0.3967
29511SOL    HW298464  11.932  11.296   0.549 -0.7846  0.1134 -0.1898
29512SOL     OW98465  10.006   7.700   7.626  0.5918 -0.3247 -0.4661
29512SOL    HW198466   9.955   7.737   7.697 -2.0742  0.6618 -2.7198
29512SOL    HW298467  10.062   7.772   7.596 -0.9724  0.4355 -1.6632
29513SOL     OW98468   6.245   8.170   8.419 -0.1366 -0.2017 -0.5824
29513SOL    HW198469   6.221   8.242   8.476  1.0953  0.4118 -0.8113
29513SOL    HW298470   6.240   8.206   8.331 -0.4978 -0.7008 -0.7764
29514SOL     OW98471   6.010  11.409   8.618 -0.0136 -0.6160 -0.5923
29514SOL    HW198472   6.047  11.493   8.589 -1.4672 -0.0304 -0.8336
29514SOL    HW298473   6.020  11.410   8.713  0.4954 -0.4333 -0.6422
29515SOL     OW98474  10.674  10.175   0.798 -0.5357 -0.4710 -0.6246
29515SOL    HW198475  10.712  10.160   0.712  0.4548 -0.5946 -0.1784
29515SOL    HW298476  10.693  10.267   0.817  1.7452 -1.1011  0.6069
29516SOL     OW98477  10.950   3.926   2.618  0.5243  0.5129 -0.3688
29516SOL    HW198478  10.992   3.851   2.661 -0.9846 -0.2607 -0.1809
29516SOL    HW298479  10.983   3.923   2.528  2.0085  0.8383  0.1328
29517SOL     OW98480   4.911   8.831   3.454 -0.4057  0.2102 -0.0195
29517SOL    HW198481   4.932   8.920   3.426 -0.6350 -0.4823 -2.6520
29517SOL    HW298482   4.818   8.834   3.479 -0.8991  0.3892 -1.7748
29518SOL     OW98483  11.149   5.165  10.496  0.2363  0.2077  0.0325
29518SOL    HW198484  11.134   5.257  10.476 -1.3402 -0.2481 -1.1162
29518SOL    HW298485  11.086   5.145  10.566 -1.6351 -0.6561 -1.7751
29519SOL     OW98486   6.055  13.182  12.853 -0.2658 -0.2408  0.1315
29519SOL    HW198487   6.105  13.171  12.934 -1.5664  0.1270  1.0226
29519SOL    HW298488   5.979  13.235  12.878  0.9809  2.8703 -2.0415
29520SOL     OW98489   8.222   9.716   8.243 -0.1671 -0.3693 -0.1637
29520SOL    HW198490   8.206   9.759   8.158 -1.1331 -0.0770  0.1531
29520SOL    HW298491   8.188   9.628   8.231  1.3838 -0.9309 -0.6600
29521SOL     OW98492  10.616   6.466   4.597  0.1783 -0.0086  0.2992
29521SOL    HW198493  10.557   6.403   4.638 -0.4457  0.8586  0.7650
29521SOL    HW298494  10.576   6.485   4.512 -0.1705  0.4971  0.5702
29522SOL     OW98495   9.796   4.543  12.945 -0.0320  0.2376  0.1234
29522SOL    HW198496   9.813   4.510  12.856 -2.5197  1.4862 -0.9105
29522SOL    HW298497   9.845   4.625  12.949 -0.8080  0.7592 -0.5737
29523SOL     OW98498   7.156  11.050   8.029 -0.5063  0.7470 -0.0550
29523SOL    HW198499   7.140  11.039   8.123  1.0766  1.5529  0.3432
29523SOL    HW298500   7.164  10.961   7.995  1.7472  0.4420  1.1337
29524SOL     OW98501  11.077   3.811   0.590 -0.9541  0.1193 -0.6383
29524SOL    HW198502  11.095   3.904   0.584  1.3477 -0.3585 -2.4607
29524SOL    HW298503  11.162   3.769   0.579 -1.9425 -2.2162  0.0204
29525SOL     OW98504   5.074  11.211   3.326 -0.0950 -0.1127 -0.3245
29525SOL    HW198505   5.135  11.162   3.381 -0.7402 -1.4002 -0.7373
29525SOL    HW298506   5.129  11.275   3.280  0.7200 -0.2987  0.3703
29526SOL     OW98507   6.518   7.831  11.322  0.2573 -0.4065  0.4053
29526SOL    HW198508   6.608   7.802  11.337  0.4569 -0.3592 -0.6309
29526SOL    HW298509   6.482   7.844  11.410  1.5537  0.4869  0.8293
29527SOL     OW98510  10.843  11.132  10.663  0.1099 -0.1370  0.4972
29527SOL    HW198511  10.829  11.124  10.757  2.0878 -0.5877  0.8149
29527SOL    HW298512  10.763  11.098  10.623  0.1538 -2.2309  2.0325
29528SOL     OW98513   1.439  11.008   7.021 -0.4391 -0.6305  0.0226
29528SOL    HW198514   1.367  10.947   7.039  0.7407 -2.3972 -0.9323
29528SOL    HW298515   1.428  11.031   6.929  0.6882 -1.6478 -0.3956
29529SOL     OW98516   5.263   1.806  12.722  0.5277  0.0014  0.5909
29529SOL    HW198517   5.331   1.845  12.776  0.7977 -1.3173  1.2444
29529SOL    HW298518   5.228   1.879  12.671  0.9535  1.1004  1.8047
29530SOL     OW98519   4.035  12.214   0.910 -0.6064  0.0736 -0.2369
29530SOL    HW198520   4.101  12.166   0.960  0.1097  0.8669 -0.3755
29530SOL    HW298521   3.971  12.243   0.975 -0.3050  0.1017  0.0491
29531SOL     OW98522  12.690   3.249   0.376 -0.1010  0.0565 -0.3756
29531SOL    HW198523  12.721   3.309   0.443 -1.2813 -1.1918  1.3909
29531SOL    HW298524  12.602   3.280   0.355  0.2654  0.4449 -1.3928
29532SOL     OW98525   2.886   2.660   2.173  0.5126 -0.6486  0.3398
29532SOL    HW198526   2.858   2.739   2.127  1.3583 -0.9878 -0.8111
29532SOL    HW298527   2.862   2.588   2.114 -1.0519 -1.3616  1.7582
29533SOL     OW98528   2.193  11.723   0.122  0.0635  0.7492 -0.0956
29533SOL    HW198529   2.260  11.655   0.111 -1.5085 -1.0576  0.8980
29533SOL    HW298530   2.152  11.730   0.035 -0.1486 -0.0272 -0.0660
29534SOL     OW98531  10.736   9.025  12.200 -0.0331  0.4816  0.0401
29534SOL    HW198532  10.741   8.982  12.286 -1.2201 -0.7496 -0.4631
29534SOL    HW298533  10.659   9.081  12.206 -1.3907 -1.1917 -0.8405
29535SOL     OW98534  12.386   4.582   8.889 -0.1781  0.0995  0.2023
29535SOL    HW198535  12.357   4.624   8.808  2.5277  1.2892 -0.2704
29535SOL    HW298536  12.442   4.647   8.931 -0.5263 -0.9444  2.4626
29536SOL     OW98537   4.398  11.312  10.319  0.2220 -0.3997  0.4593
29536SOL    HW198538   4.412  11.309  10.413  1.1998 -0.0291  0.3362
29536SOL    HW298539   4.303  11.317  10.309  0.1746  1.6831  1.4883
29537SOL     OW98540   5.377   4.131   2.362  0.4849  0.4723  0.2748
29537SOL    HW198541   5.451   4.191   2.357  0.0400  0.9541 -1.0275
29537SOL    HW298542   5.400   4.061   2.300  0.6993 -0.3810  1.2889
29538SOL     OW98543   4.640   4.697   6.914  0.0659  0.2327  0.0878
29538SOL    HW198544   4.660   4.616   6.962  0.3456 -0.0807 -0.5436
29538SOL    HW298545   4.545   4.694   6.901 -0.1066  0.6239  1.1433
29539SOL     OW98546   3.136   6.594   6.166 -0.6176 -0.0462 -1.0181
29539SOL    HW198547   3.185   6.676   6.159 -0.0786 -0.2472  0.1555
29539SOL    HW298548   3.204   6.526   6.166 -0.9009 -0.3539  0.1519
29540SOL     OW98549   0.880   5.161  10.739  0.0500  0.1212 -0.0390
29540SOL    HW198550   0.845   5.097  10.801  1.7236  0.3185  1.1595
29540SOL    HW298551   0.962   5.123  10.708  0.2528  0.9559 -0.5674
29541SOL     OW98552   4.922   3.257   8.850 -0.0772 -0.2860  0.2632
29541SOL    HW198553   4.975   3.177   8.858  1.0580  0.5525  1.5092
29541SOL    HW298554   4.907   3.285   8.940 -1.4665  0.2946 -0.1153
29542SOL     OW98555   3.936   9.188   4.925  0.1933  0.2334  0.1056
29542SOL    HW198556   3.955   9.100   4.895 -1.0844  0.0209 -0.1102
29542SOL    HW298557   4.022   9.223   4.951  0.7568 -0.9451 -0.0961
29543SOL     OW98558   8.017   1.191   2.394 -0.3360  0.0634  0.1651
29543SOL    HW198559   7.983   1.249   2.462  1.0011 -0.2846  1.1642
29543SOL    HW298560   8.061   1.121   2.441  2.4993  0.9082 -0.9937
29544SOL     OW98561  10.148   9.779   2.203  0.2315 -0.4651  0.0329
29544SOL    HW198562  10.176   9.741   2.120  1.0475  0.2792 -0.0535
29544SOL    HW298563  10.167   9.711   2.268 -1.7921 -1.6285 -0.5414
29545SOL     OW98564   3.954   7.630   9.979 -0.5559  0.1895  0.1246
29545SOL    HW198565   3.859   7.616   9.970 -0.7383  0.4731  1.4154
29545SOL    HW298566   3.978   7.581  10.057  0.2114  0.8018  0.2819
29546SOL     OW98567   4.502   1.289   8.332  0.2931 -0.5257 -0.3870
29546SOL    HW198568   4.471   1.208   8.373  0.0663  0.0223  0.5501
29546SOL    HW298569   4.559   1.260   8.261  0.9258 -1.5082  0.5008
29547SOL     OW98570   1.298   1.389   7.835 -0.2573  0.6291  0.2654
29547SOL    HW198571   1.212   1.400   7.795  0.0487 -0.7171 -0.8413
29547SOL    HW298572   1.359   1.423   7.769  0.3569 -2.9129 -1.1972
29548SOL     OW98573   4.264   1.174  13.138 -0.0985 -0.0199 -0.3119
29548SOL    HW198574   4.303   1.214  13.060 -1.6370  1.9268 -0.1588
29548SOL    HW298575   4.221   1.246  13.183 -2.8610 -1.8076  0.1302
29549SOL     OW98576   2.651   8.090   1.784  0.4748 -0.2886  0.3269
29549SOL    HW198577   2.632   8.169   1.834 -0.5728  0.3959 -1.0645
29549SOL    HW298578   2.685   8.028   1.848  1.3715  1.2932  1.4420
29550SOL     OW98579   0.553   4.531   3.439 -0.0115  0.0868  0.6251
29550SOL    HW198580   0.607   4.550   3.362 -0.9319 -0.1294 -0.0977
29550SOL    HW298581   0.584   4.447   3.470  1.0645  0.6585  1.1216
29551SOL     OW98582   0.640   2.129   0.093 -0.2818  0.0726  0.0367
29551SOL    HW198583   0.565   2.076   0.067 -1.0831  1.7221 -1.2190
29551SOL    HW298584   0.674   2.085   0.171 -0.4967 -2.5954 -1.2600
29552SOL     OW98585  11.121  10.764  10.456  0.2900 -0.5818 -0.1868
29552SOL    HW198586  11.097  10.834  10.516 -1.9111 -0.0633 -1.5443
29552SOL    HW298587  11.217  10.763  10.458  0.6849  4.1469 -1.8072
29553SOL     OW98588   1.075   4.273   5.696  0.3617  0.3347  0.4375
29553SOL    HW198589   1.136   4.342   5.721 -0.1378  0.2823  1.8833
29553SOL    HW298590   0.989   4.315   5.695  0.0363 -0.2607  1.4582
29554SOL     OW98591  12.200   0.488   2.833 -0.3174 -0.2091 -0.0075
29554SOL    HW198592  12.240   0.564   2.790 -2.9334  0.6254 -1.1765
29554SOL    HW298593  12.182   0.517   2.922  1.1514 -0.4265  0.3746
29555SOL     OW98594   4.036   8.864  11.050 -0.2581  0.3297  0.3473
29555SOL    HW198595   4.082   8.781  11.034  0.8521  0.9710  0.1407
29555SOL    HW298596   3.967   8.840  11.112 -0.3622 -0.8720 -0.1886
29556SOL     OW98597  10.877   4.213   4.787  0.7093 -0.1526  0.2105
29556SOL    HW198598  10.967   4.193   4.814  0.0613 -2.2983  0.9827
29556SOL    HW298599  10.824   4.195   4.865 -0.6060 -1.0242 -0.8442
29557SOL     OW98600   6.558  11.687   0.282  0.6619 -0.2977 -0.0581
29557SOL    HW198601   6.573  11.640   0.364  2.3577 -0.1678 -0.2607
29557SOL    HW298602   6.597  11.773   0.296 -1.0220  0.5232 -0.2430
29558SOL     OW98603   6.164  11.159   0.918  0.5021 -0.1173 -0.0780
29558SOL    HW198604   6.199  11.228   0.861 -0.8191  2.1671  1.6797
29558SOL    HW298605   6.098  11.115   0.863  0.6155  0.7221 -0.9215
29559SOL     OW98606   6.831   6.906  11.376 -0.2058 -0.2843 -0.1591
29559SOL    HW198607   6.742   6.909  11.340 -1.5275 -1.7622  2.6504
29559SOL    HW298608   6.818   6.909  11.471  2.8047 -0.2296  0.3434
29560SOL     OW98609  12.086  10.872   8.987  0.0598  0.3040  0.7362
29560SOL    HW198610  12.003  10.837   9.021 -0.5717  0.1202 -0.9251
29560SOL    HW298611  12.060  10.943   8.928  1.0614  0.0209 -0.0755
29561SOL     OW98612   0.555   3.681   6.633 -0.0140 -0.4320  0.1094
29561SOL    HW198613   0.565   3.672   6.538 -0.9322  0.1686 -0.0556
29561SOL    HW298614   0.642   3.660   6.668 -0.1216 -2.4914 -0.7161
29562SOL     OW98615   2.232   9.526   9.226  0.3785  0.2394 -0.2483
29562SOL    HW198616   2.220   9.466   9.300  3.2907 -0.1747 -0.0251
29562SOL    HW298617   2.251   9.470   9.151 -0.2957  0.7634 -0.8292
29563SOL     OW98618   0.390  12.093   3.500 -0.0661 -0.2758  0.2493
29563SOL    HW198619   0.364  12.004   3.524  1.4549 -0.5635  0.8917
29563SOL    HW298620   0.358  12.147   3.572 -0.2276 -0.4190  0.2866
29564SOL     OW98621   9.555  12.781   1.519  0.9833 -0.3557 -0.0270
29564SOL    HW198622   9.632  12.812   1.567  0.5286  0.8097 -0.0196
29564SOL    HW298623   9.481  12.805   1.574  0.5299 -0.1305 -0.7189
29565SOL     OW98624  12.161   9.492   6.070 -0.2700 -0.3542  0.4284
29565SOL    HW198625  12.105   9.421   6.102  1.1318 -1.2703  0.9268
29565SOL    HW298626  12.165   9.479   5.975 -0.7759 -0.3530  0.4017
29566SOL     OW98627   2.807  10.572   6.296 -0.0099 -0.2505  0.2316
29566SOL    HW198628   2.782  10.580   6.388  2.2049  0.3171  0.8634
29566SOL    HW298629   2.821  10.662   6.267  1.3288 -0.4992  0.0085
29567SOL     OW98630   5.021  11.447  11.727  0.0082  0.0508 -0.1224
29567SOL    HW198631   5.064  11.440  11.812  0.5377 -0.3150 -0.4203
29567SOL    HW298632   4.971  11.366  11.718 -0.9281  0.5567  0.3103
29568SOL     OW98633  12.172  13.157  12.336  0.3851 -0.4827 -0.1952
29568SOL    HW198634  12.144  13.173  12.246  1.6603  0.5522 -0.4572
29568SOL    HW298635  12.238  13.088  12.329  0.0805 -0.7987  0.0213
29569SOL     OW98636   7.367   7.766   6.160  0.0852  0.1615 -0.1115
29569SOL    HW198637   7.314   7.785   6.082 -1.9370  2.8108  1.7184
29569SOL    HW298638   7.405   7.850   6.184  1.3800 -0.7737  1.3013
29570SOL     OW98639   1.570   1.452   2.083 -0.4259 -0.1727 -0.1831
29570SOL    HW198640   1.616   1.528   2.046  0.1843 -0.3643  0.1732
29570SOL    HW298641   1.496   1.490   2.132 -0.9293  0.1100 -1.1390
29571SOL     OW98642  12.471   0.752   5.251  0.3374 -0.1171  0.3189
29571SOL    HW198643  12.518   0.693   5.192 -0.0926 -1.2715  1.0985
29571SOL    HW298644  12.520   0.747   5.333 -0.7552 -0.8496  0.9489
29572SOL     OW98645   7.394   1.004  10.674 -0.6516 -0.0871 -0.4434
29572SOL    HW198646   7.436   0.983  10.758  2.4111 -0.7621 -1.9897
29572SOL    HW298647   7.360   1.093  10.686 -2.1383 -0.8884  2.0795
29573SOL     OW98648   8.387  10.915  12.179  0.4616 -0.7518 -0.1785
29573SOL    HW198649   8.427  10.905  12.265  0.3940 -0.2267 -0.0822
29573SOL    HW298650   8.324  10.843  12.174 -0.3421 -0.1575  0.6832
29574SOL     OW98651  13.194   4.797   6.423 -0.0543 -0.3973 -0.1016
29574SOL    HW198652  13.280   4.824   6.391  0.1348 -0.8744 -0.0032
29574SOL    HW298653  13.144   4.776   6.344 -0.3323  0.5919 -0.2036
29575SOL     OW98654   9.194   1.902   2.792  0.7826 -0.1743 -0.6496
29575SOL    HW198655   9.226   1.932   2.877 -1.0152 -1.1231  0.4255
29575SOL    HW298656   9.245   1.824   2.773  0.4790 -0.5631  0.0942
29576SOL     OW98657   4.983   2.154  12.653  0.0108  0.2706  0.6358
29576SOL    HW198658   5.009   2.145  12.745 -1.1524  0.8473  1.0409
29576SOL    HW298659   4.982   2.064  12.619  3.2748  0.2103  0.3218
29577SOL     OW98660   1.241  12.287   4.824 -0.0824  0.1036  0.2795
29577SOL    HW198661   1.232  12.364   4.880  1.1036 -0.8472  1.8770
29577SOL    HW298662   1.301  12.230   4.872  0.3276 -1.1343 -1.6066
29578SOL     OW98663   6.354  12.779   0.877 -0.2249 -0.3860 -0.0959
29578SOL    HW198664   6.370  12.850   0.815 -0.5925  1.2178  1.5738
29578SOL    HW298665   6.428  12.783   0.937 -1.3401  0.0587  1.3084
29579SOL     OW98666   3.205   0.602   3.234 -0.5360  0.1134  0.4138
29579SOL    HW198667   3.297   0.614   3.257  0.2655 -0.3179 -2.2993
29579SOL    HW298668   3.187   0.509   3.252 -0.5726  0.2717  1.2492
29580SOL     OW98669   4.668   1.542   7.910 -0.2102  0.0596  0.2717
29580SOL    HW198670   4.672   1.489   7.830  2.5335 -0.0731  0.3831
29580SOL    HW298671   4.707   1.487   7.977  1.4131  1.6222  0.7098
29581SOL     OW98672   0.266   0.623   3.358 -0.4831  0.2001 -0.5401
29581SOL    HW198673   0.243   0.633   3.266 -1.5770 -0.4474 -0.3462
29581SOL    HW298674   0.229   0.700   3.401 -1.0943 -0.1460 -0.4437
29582SOL     OW98675   6.995   4.926  12.493 -0.1074  0.0539  0.6524
29582SOL    HW198676   7.005   4.980  12.572  0.9039 -2.2510  2.1911
29582SOL    HW298677   6.916   4.875  12.508 -0.3931  0.2074 -0.2571
29583SOL     OW98678   5.713   2.373   8.876  0.0596 -0.8384 -0.3582
29583SOL    HW198679   5.696   2.354   8.968 -0.5248  0.0860 -0.2686
29583SOL    HW298680   5.646   2.437   8.852  1.6928  0.7969 -0.7558
29584SOL     OW98681   9.489   1.589  12.138 -0.3908 -0.0574  0.0110
29584SOL    HW198682   9.457   1.675  12.109 -1.2131 -0.3103  0.1582
29584SOL    HW298683   9.451   1.578  12.225 -2.1054 -1.5319 -0.8805
29585SOL     OW98684   5.500   5.518   4.402 -0.3572 -0.3818 -0.4016
29585SOL    HW198685   5.583   5.561   4.380  0.7513 -2.4985 -0.6095
29585SOL    HW298686   5.433   5.578   4.370  1.0717  1.3349 -0.3594
29586SOL     OW98687  12.586  10.835   2.612 -0.1008 -0.4560  0.3590
29586SOL    HW198688  12.593  10.824   2.517 -1.0504 -0.7545  0.3148
29586SOL    HW298689  12.541  10.756   2.642 -1.3815  0.4090  0.8213
29587SOL     OW98690  10.483  12.683   7.186  0.5152 -0.2478 -0.1741
29587SOL    HW198691  10.404  12.731   7.161  1.1215  1.0075  0.2487
29587SOL    HW298692  10.461  12.643   7.270  0.1129 -0.4543 -0.3743
29588SOL     OW98693   0.306  11.701   9.138 -0.3621 -0.1457  0.2690
29588SOL    HW198694   0.250  11.670   9.210  1.3312  0.9340  2.1666
29588SOL    HW298695   0.331  11.621   9.091 -2.1364 -0.8051  0.3587
29589SOL     OW98696   8.091   4.293  12.577  0.2798  0.1663  0.4044
29589SOL    HW198697   8.028   4.221  12.583 -0.6739  0.9558 -0.0158
29589SOL    HW298698   8.176   4.249  12.577 -0.2728 -0.9575  0.3062
29590SOL     OW98699   8.866   5.151  11.139 -0.0527 -0.4298 -0.4766
29590SOL    HW198700   8.863   5.246  11.138 -0.6940 -0.4020  1.4372
29590SOL    HW298701   8.777   5.124  11.159  0.0250 -1.4792 -1.4058
29591SOL     OW98702  13.305   0.638   9.573  0.1884 -0.6488 -0.2593
29591SOL    HW198703  13.307   0.641   9.477 -1.1895  2.7128 -0.3262
29591SOL    HW298704  13.301   0.545   9.594  0.4982 -1.4942 -3.4665
29592SOL     OW98705   1.995   5.292   2.240 -0.1844  0.0262  0.5895
29592SOL    HW198706   1.938   5.242   2.182  1.2481 -0.6631 -0.2909
29592SOL    HW298707   2.083   5.281   2.202  0.8104 -0.4519  2.8839
29593SOL     OW98708  10.969   0.614   4.270  0.0080  0.2104  0.4133
29593SOL    HW198709  10.910   0.624   4.196  1.2157 -0.4942 -0.6683
29593SOL    HW298710  10.981   0.520   4.279 -1.1593  0.1856  2.3819
29594SOL     OW98711   5.808   5.019   2.004  0.2924 -0.3652 -0.2540
29594SOL    HW198712   5.786   5.089   1.943  0.7052 -0.7878 -0.9082
29594SOL    HW298713   5.815   4.941   1.948  0.4906 -0.7937  0.3665
29595SOL     OW98714   9.905  12.609   9.847  0.4605 -0.2412 -0.2182
29595SOL    HW198715   9.840  12.679   9.856 -0.5378 -0.9956 -1.1350
29595SOL    HW298716   9.975  12.648   9.794 -0.0083  0.1305 -0.5803
29596SOL     OW98717   9.726  12.324  12.345  0.4670  0.1083  0.9125
29596SOL    HW198718   9.732  12.249  12.287  0.5289  0.5274  0.3716
29596SOL    HW298719   9.713  12.399  12.287 -1.1379  0.3369  1.5211
29597SOL     OW98720  10.600   8.501   7.942 -0.4091  0.1158  0.8223
29597SOL    HW198721  10.609   8.558   7.866 -0.5641 -0.0089  0.7103
29597SOL    HW298722  10.689   8.469   7.958 -0.7490 -1.7741 -0.7953
29598SOL     OW98723   9.196  12.316   5.210  0.4070  0.1077  0.2273
29598SOL    HW198724   9.168  12.278   5.294  2.3923 -0.8889  0.5049
29598SOL    HW298725   9.249  12.392   5.235  1.8301 -0.7541 -0.0098
29599SOL     OW98726   1.927   7.538   9.396  0.2195  0.2432  0.6563
29599SOL    HW198727   1.848   7.483   9.398 -1.0791  2.0260  1.7859
29599SOL    HW298728   1.894   7.627   9.380  2.1176  0.8997  0.1239
29600SOL     OW98729   9.835   5.901  10.374 -0.0625  0.1228 -0.3539
29600SOL    HW198730   9.747   5.897  10.336 -0.3898  1.3259  0.2392
29600SOL    HW298731   9.823   5.873  10.465  0.2524 -0.1724 -0.4016
29601SOL     OW98732  10.103  13.062   2.080  0.0602 -0.0384 -0.3614
29601SOL    HW198733  10.107  13.129   2.148  0.5822 -0.9853  0.5711
29601SOL    HW298734  10.010  13.040   2.074 -0.0271  0.2703 -0.1518
29602SOL     OW98735  12.012  12.784  10.705 -0.3793  0.1296  0.5931
29602SOL    HW198736  12.008  12.774  10.800  1.0724 -1.5254  0.5192
29602SOL    HW298737  12.105  12.791  10.685 -0.6557  0.3432 -0.7357
29603SOL     OW98738  11.824   0.223   1.365 -0.8276  0.3905 -0.2972
29603SOL    HW198739  11.895   0.278   1.398 -1.1421  0.1944  0.7493
29603SOL    HW298740  11.866   0.165   1.301  0.0498  0.0114  0.5854
29604SOL     OW98741   8.852   1.664   6.730 -0.2176  0.2448  0.2416
29604SOL    HW198742   8.913   1.696   6.664  0.5338 -0.5729  0.5275
29604SOL    HW298743   8.781   1.729   6.731 -0.1021  0.4065 -1.1603
29605SOL     OW98744   6.626   5.846   9.813 -0.1630 -0.3625  0.3110
29605SOL    HW198745   6.646   5.753   9.797 -0.6634 -0.0070 -3.3379
29605SOL    HW298746   6.683   5.893   9.752 -1.0641  1.6614  0.9593
29606SOL     OW98747   5.307   4.547   9.895  0.0076 -0.0897 -0.1441
29606SOL    HW198748   5.368   4.476   9.914 -1.0332 -0.7225  0.9515
29606SOL    HW298749   5.250   4.551   9.971 -1.4376  0.3630 -1.1993
29607SOL     OW98750   4.870   7.810  10.178  0.2935 -0.4931 -0.6248
29607SOL    HW198751   4.900   7.862  10.253  0.3135 -0.3717 -0.7161
29607SOL    HW298752   4.799   7.757  10.214 -0.6033  0.5370 -0.8149
29608SOL     OW98753   3.858   1.536  10.046 -0.1750 -0.0600 -0.0999
29608SOL    HW198754   3.837   1.446  10.070  1.5561 -0.3707  0.4585
29608SOL    HW298755   3.878   1.532   9.953 -1.2372 -0.0092 -0.3381
29609SOL     OW98756   2.210  12.026  11.907  0.1862 -0.2609  0.0855
29609SOL    HW198757   2.138  11.984  11.954  0.4295  0.1182  0.8129
29609SOL    HW298758   2.289  11.986  11.942  0.5119  1.6932  1.8090
29610SOL     OW98759   4.230   7.115   3.350 -0.3344 -0.4425  0.0151
29610SOL    HW198760   4.216   7.022   3.367 -0.1900 -0.5155 -0.2578
29610SOL    HW298761   4.325   7.123   3.337 -0.2593 -0.1513  0.6595
29611SOL     OW98762  11.725   8.274   4.625 -0.4073 -0.2341  0.3830
29611SOL    HW198763  11.749   8.318   4.544  0.9834 -0.6393  0.5474
29611SOL    HW298764  11.692   8.343   4.681  1.7299  0.6532  0.6386
29612SOL     OW98765   8.833   1.732  12.908 -0.7282  0.3456 -0.1935
29612SOL    HW198766   8.798   1.698  12.826 -0.4158  0.6163 -0.4451
29612SOL    HW298767   8.768   1.796  12.937 -1.8321 -1.1955  0.8275
29613SOL     OW98768   0.797   9.774   7.151  0.4859 -0.0457 -0.4167
29613SOL    HW198769   0.752   9.748   7.071 -0.3293 -0.0583  0.0340
29613SOL    HW298770   0.880   9.811   7.121 -0.3473  1.1362 -1.3642
29614SOL     OW98771   9.749   4.564  11.674 -0.2942  0.1167  0.1361
29614SOL    HW198772   9.752   4.632  11.607  3.0292 -1.0750 -1.1511
29614SOL    HW298773   9.839   4.559  11.707 -1.1174 -1.5772  2.3764
29615SOL     OW98774   3.858   6.650  10.639 -0.0489  0.9800  0.1535
29615SOL    HW198775   3.839   6.569  10.592  0.3029  1.1007 -0.2024
29615SOL    HW298776   3.880   6.713  10.570  0.8124  1.0668  0.4965
29616SOL     OW98777   2.632  12.699   3.798  0.0174  0.5551 -0.1753
29616SOL    HW198778   2.632  12.676   3.705  0.7120  1.1599 -0.3259
29616SOL    HW298779   2.684  12.630   3.840 -0.9699 -0.1702 -0.1122
29617SOL     OW98780  11.102   9.906   3.973 -0.0196  1.0743  0.5732
29617SOL    HW198781  11.010   9.930   3.986 -0.0315  0.5609  1.4599
29617SOL    HW298782  11.138   9.895   4.061  0.9930  1.6176  0.2440
29618SOL     OW98783  12.160   1.722  11.043 -0.1555  0.0891 -0.4310
29618SOL    HW198784  12.231   1.664  11.015  0.5653  0.2452  0.9761
29618SOL    HW298785  12.200   1.809  11.047 -0.7202  0.3636 -0.6849
29619SOL     OW98786   6.915   7.850  10.330  0.4041  0.7436  0.2464
29619SOL    HW198787   6.821   7.852  10.314  0.5240  1.7087 -0.4600
29619SOL    HW298788   6.943   7.764  10.300 -0.1274  0.7793 -0.3815
29620SOL     OW98789   6.301  11.132  11.302  0.0153  0.6036 -0.1093
29620SOL    HW198790   6.238  11.189  11.256 -1.0119  0.1167  0.6556
29620SOL    HW298791   6.247  11.083  11.364  1.2048  0.3304  0.7198
29621SOL     OW98792  12.242   1.530   0.692  0.6321 -0.4106 -0.6874
29621SOL    HW198793  12.315   1.588   0.717  1.7718 -0.2192 -4.0099
29621SOL    HW298794  12.281   1.443   0.689  0.8150 -0.2889 -2.6170
29622SOL     OW98795   1.594   0.535   9.280  0.0905 -0.3728 -0.3247
29622SOL    HW198796   1.504   0.545   9.248  0.0848  0.5764 -0.0437
29622SOL    HW298797   1.601   0.442   9.302 -1.2310 -0.2387  0.8082
29623SOL     OW98798  11.158   1.550  10.548  0.2469  0.4692  0.0033
29623SOL    HW198799  11.095   1.586  10.486  0.5423  1.0674  0.0468
29623SOL    HW298800  11.233   1.524  10.493 -0.0739 -0.3567 -0.0645
29624SOL     OW98801   2.441   9.672   9.016 -0.2190 -0.5250 -0.2118
29624SOL    HW198802   2.465   9.681   9.108  2.3180  0.6107 -0.8997
29624SOL    HW298803   2.404   9.757   8.992 -0.0104 -0.5066 -0.4722
29625SOL     OW98804  10.083   9.579  13.014  0.0652  0.3871 -0.6142
29625SOL    HW198805  10.012   9.634  12.980 -0.3110 -0.7359 -1.6966
29625SOL    HW298806  10.040   9.499  13.043  0.8402 -0.1611 -0.9511
29626SOL     OW98807   2.201  11.367   9.054 -0.2345 -0.1102  0.0782
29626SOL    HW198808   2.221  11.327   8.969 -3.0084 -1.1162 -0.1981
29626SOL    HW298809   2.227  11.458   9.044  0.5780 -0.4724 -1.4408
29627SOL     OW98810   9.111   9.167   0.628 -0.5156  0.1389 -0.5105
29627SOL    HW198811   9.057   9.185   0.705  0.5343  1.4102 -0.0303
29627SOL    HW298812   9.201   9.164   0.662 -0.1541 -0.5573 -1.4901
29628SOL     OW98813  11.599   7.168  12.343 -0.3704 -1.1129  0.1743
29628SOL    HW198814  11.692   7.177  12.324 -0.6892 -0.5577 -1.2702
29628SOL    HW298815  11.595   7.102  12.412  1.3165  1.5138  3.0061
29629SOL     OW98816  13.147   3.852   0.022 -0.5880 -0.0560  0.5011
29629SOL    HW198817  13.165   3.906  -0.054 -3.7412 -1.3299 -1.3525
29629SOL    HW298818  13.198   3.772   0.007 -0.8485 -0.1205 -0.0605
29630SOL     OW98819   7.710   8.705   7.152  0.3984 -0.3820  0.0348
29630SOL    HW198820   7.700   8.613   7.177  0.4393 -1.0422 -2.1812
29630SOL    HW298821   7.795   8.710   7.109  1.3848  1.2039  1.9942
29631SOL     OW98822   3.278  13.009   3.187 -0.1809 -0.3312 -0.6820
29631SOL    HW198823   3.191  13.043   3.167 -1.1690 -0.9889  2.0593
29631SOL    HW298824   3.262  12.917   3.209  1.2137 -0.4818 -0.2364
29632SOL     OW98825   7.344   0.792   8.899  0.3085  0.5598 -0.4627
29632SOL    HW198826   7.323   0.765   8.988  5.5001  2.3961  1.6928
29632SOL    HW298827   7.351   0.710   8.850  0.9551 -0.8884  1.8711
29633SOL     OW98828   9.548   8.366   5.420 -0.2193 -0.2544 -0.5303
29633SOL    HW198829   9.480   8.392   5.482  1.0805  0.2710  0.7341
29633SOL    HW298830   9.533   8.421   5.343 -0.8987  0.2344 -0.0563
29634SOL     OW98831   7.164   0.462   2.482 -0.6364 -0.0891  0.1787
29634SOL    HW198832   7.071   0.482   2.492 -0.5668  1.2495 -1.4439
29634SOL    HW298833   7.166   0.371   2.453 -1.3607 -0.4182  1.0815
29635SOL     OW98834   7.189   9.385  12.698  0.2436 -0.6540  0.3926
29635SOL    HW198835   7.142   9.373  12.781  0.1170 -0.4689  0.3480
29635SOL    HW298836   7.189   9.298  12.658 -0.1034 -0.6481  0.3718
29636SOL     OW98837   2.010  10.828   9.631 -0.0695  0.1190  0.3403
29636SOL    HW198838   2.024  10.857   9.540  1.6108  0.6642  0.7359
29636SOL    HW298839   2.072  10.757   9.643 -1.0940 -0.7317  0.7418
29637SOL     OW98840   9.815  10.844   3.100 -0.1395 -0.6203 -0.0622
29637SOL    HW198841   9.859  10.915   3.147  0.0647 -0.3648 -0.6408
29637SOL    HW298842   9.764  10.888   3.032 -0.0611 -1.0245 -0.3870
29638SOL     OW98843   2.417   7.624   9.665  0.0557 -0.5170  0.3437
29638SOL    HW198844   2.416   7.547   9.608 -1.0574 -0.0214 -0.3329
29638SOL    HW298845   2.374   7.692   9.615  1.9813  0.8970  0.5261
29639SOL     OW98846   9.821   6.265   8.643 -0.2219  0.5500  0.5706
29639SOL    HW198847   9.889   6.292   8.581  0.3161 -0.3153  0.7750
29639SOL    HW298848   9.840   6.173   8.662  0.1589  1.0038  2.6807
29640SOL     OW98849   9.764   8.137   8.666 -0.3761  0.7049 -1.3184
29640SOL    HW198850   9.795   8.220   8.631 -0.5684  1.3526  0.0028
29640SOL    HW298851   9.804   8.131   8.753  0.3262 -0.9940 -1.7014
29641SOL     OW98852   8.992  10.275   5.350 -0.3098 -0.2533  0.3824
29641SOL    HW198853   8.940  10.199   5.325  1.5087 -1.0890 -1.1140
29641SOL    HW298854   9.019  10.314   5.267  0.8927  0.5031  1.1027
29642SOL     OW98855   0.196   4.676   3.542  0.1337 -0.0152 -0.2692
29642SOL    HW198856   0.268   4.657   3.602  0.1898 -0.0108 -0.3354
29642SOL    HW298857   0.174   4.591   3.504 -0.5992 -0.2027  0.5363
29643SOL     OW98858   5.609   7.984   2.735  0.2208  0.4073  0.0990
29643SOL    HW198859   5.680   7.933   2.696  0.1939  0.2798  0.2171
29643SOL    HW298860   5.542   7.988   2.666 -0.4838 -1.1353  0.6476
29644SOL     OW98861  13.255   7.377   7.934 -0.0923 -0.2994  0.3583
29644SOL    HW198862  13.334   7.421   7.901  0.7384 -1.9000  0.1094
29644SOL    HW298863  13.284   7.288   7.954 -1.8446 -0.9236  0.2757
29645SOL     OW98864   0.391   5.092  10.625  0.5874  0.2176  0.0087
29645SOL    HW198865   0.358   5.058  10.709 -2.5300 -0.1458 -1.2139
29645SOL    HW298866   0.392   5.187  10.636 -0.6737  0.2271  0.2351
29646SOL     OW98867  13.123   6.043  10.673  0.4439  0.4691  0.6534
29646SOL    HW198868  13.057   5.978  10.650  2.0126 -1.3326  1.0636
29646SOL    HW298869  13.190   6.034  10.606  1.4069  0.5575  1.5812
29647SOL     OW98870   4.770   5.566   8.182  0.0565  0.9221 -0.3344
29647SOL    HW198871   4.688   5.599   8.145 -0.6653  0.3594  0.6936
29647SOL    HW298872   4.821   5.645   8.203 -0.1863  1.2742 -1.0432
29648SOL     OW98873  11.406   1.266  12.838  0.2509  0.7122 -0.0458
29648SOL    HW198874  11.463   1.196  12.872 -1.0314 -0.0207  0.6542
29648SOL    HW298875  11.400   1.329  12.910 -0.2036  0.5514  0.0568
29649SOL     OW98876  10.037   3.439   8.773 -0.8848 -0.0069 -0.2256
29649SOL    HW198877   9.995   3.448   8.688 -1.0653 -1.4350 -0.3018
29649SOL    HW298878   9.965   3.446   8.836 -0.9095 -0.0843 -0.2449
29650SOL     OW98879   3.915  10.485   0.985 -0.0085 -0.2520  0.0813
29650SOL    HW198880   3.838  10.482   0.929  1.0984  0.1467 -1.5293
29650SOL    HW298881   3.884  10.452   1.069 -2.1625  0.8352 -0.2087
29651SOL     OW98882   6.307  12.676   5.846  0.0014  0.1106 -0.1821
29651SOL    HW198883   6.308  12.769   5.826 -2.1359 -0.0424 -1.3122
29651SOL    HW298884   6.390  12.643   5.813  0.8712  1.6328  0.4279
29652SOL     OW98885  12.752   1.256   6.968 -0.1137 -0.9697  0.7372
29652SOL    HW198886  12.795   1.341   6.962  1.7554 -1.8252  1.1725
29652SOL    HW298887  12.708   1.245   6.884 -0.1408  0.2858  0.5684
29653SOL     OW98888   2.704   2.497  13.144 -0.0635 -0.4262 -0.5007
29653SOL    HW198889   2.766   2.459  13.081  0.8164 -1.8830  1.1783
29653SOL    HW298890   2.758   2.522  13.219 -0.6741  3.6399 -1.1437
29654SOL     OW98891   8.674   1.168   3.799 -0.2074 -0.2663 -0.0306
29654SOL    HW198892   8.662   1.191   3.891 -0.3676 -0.3432 -0.0309
29654SOL    HW298893   8.742   1.100   3.800  0.5857  0.5034 -0.0688
29655SOL     OW98894   6.861   7.894   1.783 -0.0338 -0.4289 -0.1597
29655SOL    HW198895   6.857   7.925   1.874 -2.6859  2.1481 -1.0112
29655SOL    HW298896   6.903   7.966   1.735 -2.8767  0.4093 -1.6068
29656SOL     OW98897   6.338  12.824   6.860 -0.1733  0.0378 -0.7951
29656SOL    HW198898   6.270  12.762   6.883 -1.8335  1.7198 -0.9078
29656SOL    HW298899   6.361  12.803   6.769 -1.2467  0.0498 -1.0782
29657SOL     OW98900  13.229  11.410   5.526 -0.2352 -0.4782  0.3480
29657SOL    HW198901  13.322  11.418   5.548 -0.3817  0.9036  0.5375
29657SOL    HW298902  13.183  11.438   5.606 -0.7901  1.5196 -0.6074
29658SOL     OW98903   4.616   6.783   6.886  0.3918  0.3893  0.2324
29658SOL    HW198904   4.566   6.713   6.844  0.5797  0.9654 -1.0019
29658SOL    HW298905   4.692   6.796   6.828  1.6269 -0.0014  1.6981
29659SOL     OW98906   2.168  11.899   4.636 -0.7608 -0.4711 -0.1846
29659SOL    HW198907   2.228  11.973   4.626  0.5005 -1.0650  2.2246
29659SOL    HW298908   2.083  11.933   4.608 -0.1501  1.8103  0.5410
29660SOL     OW98909   2.841   0.161   4.643 -0.3150 -0.6817 -0.4621
29660SOL    HW198910   2.769   0.126   4.695 -0.2673  0.3619  0.3427
29660SOL    HW298911   2.866   0.089   4.585 -3.8077 -0.2723 -2.7944
29661SOL     OW98912   4.327   1.045  12.680 -0.3039 -0.2254  0.1854
29661SOL    HW198913   4.276   1.056  12.600  0.2309 -0.6091 -0.2164
29661SOL    HW298914   4.310   0.954  12.706  0.8226 -0.6345 -0.4258
29662SOL     OW98915   1.611   9.086   5.079 -0.7417  0.6642 -0.0961
29662SOL    HW198916   1.536   9.030   5.098  2.2289 -2.8942  2.9285
29662SOL    HW298917   1.660   9.038   5.011  1.1586  0.1395  1.5341
29663SOL     OW98918   1.166   7.619   5.365 -0.3092 -0.2702 -0.4071
29663SOL    HW198919   1.207   7.639   5.449 -0.8509  0.5159 -0.3222
29663SOL    HW298920   1.115   7.540   5.381  0.6248 -0.8752 -0.3440
29664SOL     OW98921   5.908   1.113   9.242 -0.0395 -0.0559  0.1267
29664SOL    HW198922   5.975   1.056   9.278  1.8757  2.1370  0.2732
29664SOL    HW298923   5.928   1.200   9.279 -0.4508  1.5066 -3.0009
29665SOL     OW98924  10.725  10.271   0.546  0.0345 -0.3554  0.0699
29665SOL    HW198925  10.638  10.285   0.510  0.2923  0.9457 -0.1004
29665SOL    HW298926  10.753  10.358   0.575  1.7775 -0.5049 -1.0165
29666SOL     OW98927  11.130  11.659   6.576 -0.2020 -0.0342  0.5180
29666SOL    HW198928  11.122  11.603   6.653  0.0151 -0.8963 -0.0701
29666SOL    HW298929  11.138  11.748   6.612 -0.0403 -0.4222  1.4824
29667SOL     OW98930  12.531   8.561   7.811 -0.0659 -0.9306  0.1425
29667SOL    HW198931  12.591   8.552   7.737 -0.4913  0.4439 -0.4135
29667SOL    HW298932  12.473   8.485   7.805 -1.3144  0.0971 -2.1259
29668SOL     OW98933   0.613  10.111  13.210 -0.4051 -0.4922 -0.2423
29668SOL    HW198934   0.564  10.111  13.291  0.4761 -1.9091  0.3151
29668SOL    HW298935   0.588  10.030  13.166  1.0105 -1.0007 -0.1732
29669SOL     OW98936   8.524   8.305   3.228  0.1187 -0.0149  0.6725
29669SOL    HW198937   8.518   8.219   3.185  1.9741  0.0437  0.1580
29669SOL    HW298938   8.435   8.339   3.227 -0.3319 -1.0978 -0.9313
29670SOL     OW98939  11.894  12.743   3.687  0.4628  0.3685 -0.6359
29670SOL    HW198940  11.944  12.769   3.610  1.6543 -0.2779 -0.1141
29670SOL    HW298941  11.887  12.648   3.680 -0.3611  0.4150 -0.4896
29671SOL     OW98942  11.825   8.274  11.914  0.0832 -0.2886 -0.3240
29671SOL    HW198943  11.852   8.309  11.999  0.2955 -0.2590 -0.4033
29671SOL    HW298944  11.737   8.309  11.900  0.4521  0.5626 -0.5966
29672SOL     OW98945   3.312   9.350   2.581  0.5566 -0.1537  0.7670
29672SOL    HW198946   3.254   9.400   2.639 -0.9173  0.2747 -0.9939
29672SOL    HW298947   3.369   9.416   2.541  2.8576 -0.6398  2.9958
29673SOL     OW98948   3.656   6.131   5.326 -0.2964 -0.2857 -0.0848
29673SOL    HW198949   3.741   6.110   5.364  1.2346  1.8166 -2.1372
29673SOL    HW298950   3.595   6.122   5.399  1.9444  0.0192  1.9425
29674SOL     OW98951  11.800  12.184  11.220  0.0350 -0.4725 -0.0305
29674SOL    HW198952  11.880  12.229  11.247 -1.2496  0.8732  1.8233
29674SOL    HW298953  11.730  12.248  11.236 -1.4229 -1.4788 -1.8659
29675SOL     OW98954  11.969   4.719  12.665 -0.3594  0.5588  0.1488
29675SOL    HW198955  11.909   4.697  12.736 -0.0518 -0.7772  0.0265
29675SOL    HW298956  11.962   4.814  12.656 -0.0721  0.8178  2.2364
29676SOL     OW98957   3.005  11.357   4.888  0.1186  0.0963 -0.0217
29676SOL    HW198958   3.044  11.270   4.884 -1.0681 -0.4200 -0.8649
29676SOL    HW298959   3.008  11.389   4.798  0.6309  0.9746  0.2990
29677SOL     OW98960   1.881   6.756   6.161 -0.3343 -0.2060  0.0608
29677SOL    HW198961   1.788   6.739   6.180 -0.1808 -0.2128  0.8665
29677SOL    HW298962   1.921   6.763   6.248  0.5357 -0.8284 -0.2866
29678SOL     OW98963  11.807  12.101   1.686  0.2595 -0.0846 -0.2545
29678SOL    HW198964  11.878  12.085   1.623 -1.0994 -1.0909 -1.6021
29678SOL    HW298965  11.808  12.023   1.742  1.3450  0.7242  0.9157
29679SOL     OW98966   4.000  11.379   4.211  0.2907 -0.3957 -0.3242
29679SOL    HW198967   3.963  11.459   4.174 -0.0023 -0.8419 -0.9948
29679SOL    HW298968   4.032  11.406   4.297 -0.9271  0.1605 -0.0254
29680SOL     OW98969  12.043  12.595  12.836 -0.2327  0.0997 -0.7121
29680SOL    HW198970  12.109  12.595  12.905 -1.2327 -1.6327  0.3131
29680SOL    HW298971  12.075  12.532  12.772 -0.0757  0.5185 -1.0459
29681SOL     OW98972  10.574  12.970   2.672 -0.2584 -0.2764  0.0648
29681SOL    HW198973  10.586  12.881   2.640  2.0143 -0.1823  0.4838
29681SOL    HW298974  10.662  13.007   2.672 -1.0694  1.7560  0.5407
29682SOL     OW98975  11.798  12.405   8.839 -0.2705 -0.0052  0.4013
29682SOL    HW198976  11.851  12.371   8.911 -2.2952 -1.7679  1.1508
29682SOL    HW298977  11.862  12.434   8.774  1.6190  1.0713  2.5818
29683SOL     OW98978   2.659   0.392   3.794 -0.4900  0.2619  0.4448
29683SOL    HW198979   2.723   0.461   3.775 -0.6492  0.7211  1.4693
29683SOL    HW298980   2.599   0.433   3.856 -2.6109  0.2984 -1.5015
29684SOL     OW98981   4.896   0.837   0.841 -0.0897 -0.6326 -0.0003
29684SOL    HW198982   4.953   0.914   0.838 -1.7411  0.7256  1.0859
29684SOL    HW298983   4.920   0.792   0.922  1.6288 -1.9415 -1.1768
29685SOL     OW98984  11.235   4.467   4.619 -0.0921 -0.0773  0.2389
29685SOL    HW198985  11.147   4.429   4.611 -0.9565  1.8873 -0.2171
29685SOL    HW298986  11.284   4.428   4.547 -0.4207 -1.5735  0.7897
29686SOL     OW98987  12.658   0.627   3.589 -0.4892 -0.0525 -0.1040
29686SOL    HW198988  12.613   0.554   3.546 -0.4367  0.2922 -0.7488
29686SOL    HW298989  12.736   0.587   3.628 -1.1508 -0.5874  0.7080
29687SOL     OW98990  10.000   8.928  10.114  0.4565  0.1248  0.3887
29687SOL    HW198991   9.935   8.941  10.045  0.6658  1.2215  0.3793
29687SOL    HW298992   9.973   8.847  10.157  1.1346 -1.3978 -1.8547
29688SOL     OW98993  10.935   0.333   5.364 -0.1077  0.6673  0.4306
29688SOL    HW198994  10.940   0.351   5.458  2.2607 -1.4536  0.8509
29688SOL    HW298995  10.932   0.238   5.359  0.4636  0.7207 -1.6363
29689SOL     OW98996   8.218   2.060  12.169  0.4391  0.1111  0.1580
29689SOL    HW198997   8.193   2.120  12.239 -0.2554  0.5408 -0.4437
29689SOL    HW298998   8.292   2.011  12.204 -1.8778 -2.0042  2.4936
29690SOL     OW98999  12.787   5.287   7.950  0.6881  0.5907  0.2918
29690SOL    HW199000  12.702   5.301   7.992  1.3793  0.7385  1.6746
29690SOL    HW299001  12.848   5.340   8.000  2.2294 -2.1335  1.5010
29691SOL     OW99002   0.353   2.252  11.878 -0.1911  0.3566  0.1584
29691SOL    HW199003   0.331   2.174  11.929 -1.7549  0.8347  0.2711
29691SOL    HW299004   0.299   2.322  11.916 -0.5864  0.9691 -1.4491
29692SOL     OW99005  12.122   0.849  12.749 -0.1967  0.4190 -0.8066
29692SOL    HW199006  12.083   0.801  12.676 -0.0947  0.4000 -0.8485
29692SOL    HW299007  12.205   0.882  12.715 -0.2157  0.5322 -0.7439
29693SOL     OW99008   0.954  10.655   1.477 -0.2118 -0.9537  0.4835
29693SOL    HW199009   0.897  10.639   1.402 -0.7542 -1.4011  0.9784
29693SOL    HW299010   0.963  10.569   1.518  1.1268 -0.9656  0.2099
29694SOL     OW99011   5.996   2.312   2.559 -0.2393  0.1163  0.2108
29694SOL    HW199012   6.013   2.220   2.540 -0.4557  0.1516 -0.1687
29694SOL    HW299013   5.980   2.352   2.473  0.0420  0.5466  0.3559
29695SOL     OW99014  10.065  11.387   0.429  0.4313 -0.2394  0.5646
29695SOL    HW199015   9.979  11.366   0.393  0.5420 -0.3034  0.3405
29695SOL    HW299016  10.066  11.343   0.514  0.9674 -1.8760 -0.2412
29696SOL     OW99017   8.416  11.506   1.919  0.2054  0.6899  0.0309
29696SOL    HW199018   8.474  11.538   1.988  0.1371 -0.0341  0.4446
29696SOL    HW299019   8.379  11.584   1.879  3.2577  1.3324 -1.8557
29697SOL     OW99020   7.416   6.138   5.333 -0.2525  0.1590  0.0351
29697SOL    HW199021   7.340   6.088   5.363 -0.4167 -0.8375 -1.8749
29697SOL    HW299022   7.380   6.201   5.270  0.3476  0.5308  0.0567
29698SOL     OW99023  11.420   0.513   6.916 -0.5870  0.2711 -0.4043
29698SOL    HW199024  11.407   0.540   6.825  1.0791  1.5320 -0.3158
29698SOL    HW299025  11.336   0.473   6.942 -1.1313  0.0122 -2.4240
29699SOL     OW99026  12.637   4.289   4.992  0.3358 -0.5768  0.2991
29699SOL    HW199027  12.679   4.348   4.929 -0.2967 -1.8059 -1.3563
29699SOL    HW299028  12.689   4.209   4.988 -0.7344 -1.2806  0.0080
29700SOL     OW99029  11.157   1.108   2.277  0.2490  0.4649 -0.0003
29700SOL    HW199030  11.107   1.171   2.330 -0.2561  0.1238 -0.0683
29700SOL    HW299031  11.091   1.059   2.229  0.4838 -1.3419  1.3839
29701SOL     OW99032   0.759   4.633   7.352  0.3876 -0.1518  0.2028
29701SOL    HW199033   0.676   4.631   7.304 -0.5015  1.1161  1.6065
29701SOL    HW299034   0.803   4.552   7.326 -1.8902 -1.5799  0.4752
29702SOL     OW99035  11.235   9.118   2.070  0.1688 -0.3820 -0.2484
29702SOL    HW199036  11.274   9.160   1.994 -0.0925  0.1858 -0.0775
29702SOL    HW299037  11.305   9.064   2.107  1.1086  1.3168  0.5774
29703SOL     OW99038   1.542  11.867   6.241 -0.3580 -0.1079 -0.2158
29703SOL    HW199039   1.496  11.950   6.251  1.1845  0.8158 -0.3722
29703SOL    HW299040   1.512  11.833   6.157 -0.6484  0.5472 -0.3893
29704SOL     OW99041   3.512  10.967   9.643 -0.0869 -0.2244 -0.3415
29704SOL    HW199042   3.523  11.055   9.606  0.2496  0.0222  0.3365
29704SOL    HW299043   3.565  10.968   9.722 -2.3031 -0.1219  1.2348
29705SOL     OW99044   4.077  10.324   3.842  0.0498  0.0400 -0.8827
29705SOL    HW199045   3.998  10.324   3.896  1.2488 -0.1426  0.9360
29705SOL    HW299046   4.119  10.408   3.859  0.8612 -0.3525 -0.8914
29706SOL     OW99047  11.139   9.912  12.660  0.2490 -0.0898  0.7251
29706SOL    HW199048  11.127   9.924  12.754 -0.2826 -0.3996  0.7041
29706SOL    HW299049  11.225   9.871  12.651 -0.4262 -1.6965  1.2067
29707SOL     OW99050   2.822   2.700  12.673 -0.2060 -0.0490 -0.4629
29707SOL    HW199051   2.876   2.623  12.661 -0.1844  0.0588 -1.0717
29707SOL    HW299052   2.882   2.774  12.663  0.2727  0.0688  2.4132
29708SOL     OW99053   1.845  12.747   3.882  0.1662  0.4049  0.2941
29708SOL    HW199054   1.753  12.725   3.863  0.8259 -0.2219 -2.6967
29708SOL    HW299055   1.860  12.712   3.970 -1.9159 -1.3574  0.0454
29709SOL     OW99056   3.130   6.079   0.223 -0.2872  0.1006  0.3895
29709SOL    HW199057   3.211   6.104   0.179 -0.9583  0.9920 -0.3676
29709SOL    HW299058   3.087   6.020   0.162  0.5996 -1.8634  1.5514
29710SOL     OW99059   0.625   8.145   6.983  0.1388  0.4933  0.0050
29710SOL    HW199060   0.646   8.094   6.904 -0.8249 -1.1671  0.7487
29710SOL    HW299061   0.585   8.081   7.042  1.1923  1.5915  2.0186
29711SOL     OW99062  13.297   2.102  13.073 -0.1388  0.4668  0.4006
29711SOL    HW199063  13.280   2.129  13.163  1.5065  0.3802  0.7595
29711SOL    HW299064  13.250   2.165  13.019 -0.9843  0.6259  1.3088
29712SOL     OW99065  11.587   9.721   9.394 -0.1091  0.5035  0.6966
29712SOL    HW199066  11.582   9.794   9.333  1.8006  0.2454  0.1911
29712SOL    HW299067  11.535   9.652   9.352  3.0480 -0.5213 -1.9862
29713SOL     OW99068   5.347   6.018   2.563  0.1175 -0.1912  0.3781
29713SOL    HW199069   5.380   6.013   2.474  1.4439 -1.0727  0.8717
29713SOL    HW299070   5.397   5.951   2.610 -0.8805 -0.0668  1.6779
29714SOL     OW99071   5.589   1.610  11.803 -0.5205 -0.3044  0.0928
29714SOL    HW199072   5.583   1.625  11.898 -2.4231 -0.1651 -0.0207
29714SOL    HW299073   5.642   1.530  11.795  4.0627  2.2891  0.9809
29715SOL     OW99074  11.633   7.235   3.092  0.4478 -0.3531  0.3792
29715SOL    HW199075  11.685   7.307   3.057 -0.7391  0.7566  0.8335
29715SOL    HW299076  11.648   7.239   3.186  0.0698 -0.4462  0.4447
29716SOL     OW99077  10.426   7.787   2.951 -0.4713 -0.3682  0.6570
29716SOL    HW199078  10.502   7.748   2.993  0.7380  1.6105  0.4044
29716SOL    HW299079  10.387   7.844   3.018  0.3149  1.2751 -0.2296
29717SOL     OW99080   9.357   6.328  12.415  0.6620  0.1424  0.4425
29717SOL    HW199081   9.318   6.409  12.383  1.0352  0.0227 -0.3409
29717SOL    HW299082   9.291   6.261  12.398  0.4604  0.2364  0.8456
29718SOL     OW99083   4.522   4.867   9.796 -0.1236  0.3806  0.0063
29718SOL    HW199084   4.497   4.832   9.882 -0.1503  0.5236  0.0563
29718SOL    HW299085   4.607   4.827   9.778 -0.3750 -0.0876 -0.1545
29719SOL     OW99086   7.619   8.909   0.062  0.0432 -0.1618  0.4863
29719SOL    HW199087   7.712   8.921   0.078  0.3008 -1.0018 -0.2867
29719SOL    HW299088   7.610   8.909  -0.034 -0.9531  1.2807  0.5489
29720SOL     OW99089   3.013  12.542   8.056 -0.2296 -0.3966  0.0310
29720SOL    HW199090   3.087  12.566   8.112 -0.0006  0.3125 -0.5553
29720SOL    HW299091   2.968  12.473   8.104  0.4863 -0.4393  0.6613
29721SOL     OW99092  12.226   7.639   1.433 -0.6847  0.2923 -0.0522
29721SOL    HW199093  12.266   7.575   1.374  0.0055 -1.8885  2.6032
29721SOL    HW299094  12.134   7.640   1.407 -1.0579 -2.9698  0.6356
29722SOL     OW99095   7.196   4.266   4.400  0.2611  0.0313 -0.0083
29722SOL    HW199096   7.217   4.355   4.429  3.4025 -1.0233  1.3067
29722SOL    HW299097   7.123   4.239   4.456  0.1962  1.2699  0.5349
29723SOL     OW99098   8.139   7.047   5.621  0.7591 -0.4172  0.2341
29723SOL    HW199099   8.110   7.070   5.533 -0.0232  1.2943  0.9020
29723SOL    HW299100   8.064   7.069   5.677  1.2859 -1.3658  1.3523
29724SOL     OW99101   7.711   6.031  10.135  0.2022  0.6025 -0.4587
29724SOL    HW199102   7.739   6.120  10.155  0.3851  0.4672 -0.1066
29724SOL    HW299103   7.791   5.986  10.107  0.4352  0.1132  0.9065
29725SOL     OW99104   7.977  10.692  12.711  0.6365 -0.3041  0.3603
29725SOL    HW199105   7.888  10.657  12.703  0.1693  1.0482 -0.9012
29725SOL    HW299106   8.034  10.618  12.691 -0.2729 -0.7111 -0.8621
29726SOL     OW99107  12.332  11.980  12.502  0.1172 -0.1148  0.3978
29726SOL    HW199108  12.369  12.053  12.551 -1.0875  0.9366 -0.2176
29726SOL    HW299109  12.308  12.018  12.417 -1.2560 -1.0434  0.3477
29727SOL     OW99110   4.962  11.257   4.252 -0.2452 -0.1291 -0.3266
29727SOL    HW199111   4.872  11.233   4.273 -0.1809 -0.2362 -0.1728
29727SOL    HW299112   5.002  11.175   4.221  0.1193 -0.3485  0.6805
29728SOL     OW99113  11.906  10.120   1.716 -0.0602 -0.4681  0.0345
29728SOL    HW199114  11.869  10.055   1.775 -0.0832 -0.0934  0.4404
29728SOL    HW299115  11.984  10.078   1.678 -1.8341 -1.9565 -2.2271
29729SOL     OW99116   9.256   6.876  10.099 -0.0796 -0.0855 -0.2621
29729SOL    HW199117   9.314   6.805  10.072  2.7839  2.0616 -0.2478
29729SOL    HW299118   9.262   6.878  10.194 -1.1364 -0.5341 -0.1669
29730SOL     OW99119   8.653   6.110  10.576  0.3006  0.0784 -0.0543
29730SOL    HW199120   8.576   6.106  10.519 -0.6506  0.7085  1.1377
29730SOL    HW299121   8.627   6.062  10.655  0.7628  1.0979  0.7507
29731SOL     OW99122   0.139   6.001  11.951 -0.6648  0.4346  0.3673
29731SOL    HW199123   0.051   5.987  11.985 -0.0169 -0.4649  1.7504
29731SOL    HW299124   0.196   5.947  12.006  0.7436  0.8600 -0.5938
29732SOL     OW99125   8.238  12.655  11.465  0.7104  0.4715  0.0448
29732SOL    HW199126   8.152  12.654  11.507 -0.7139  1.6354 -2.6321
29732SOL    HW299127   8.282  12.577  11.499 -1.5035 -0.3379  1.2690
29733SOL     OW99128   2.288   8.220   5.502 -0.4724  0.0662  0.2621
29733SOL    HW199129   2.327   8.281   5.564 -0.0713  1.2449 -1.1001
29733SOL    HW299130   2.289   8.136   5.547 -0.3490  0.9066  1.9014
29734SOL     OW99131   9.284  11.488   7.867  0.3401  0.4166 -0.6192
29734SOL    HW199132   9.198  11.465   7.902 -0.0548  0.2806 -1.6370
29734SOL    HW299133   9.286  11.584   7.872  0.6666  0.3539  0.6115
29735SOL     OW99134   3.937   9.532   3.764 -0.2997  0.5495 -0.4068
29735SOL    HW199135   3.920   9.558   3.854  0.7485  2.1568 -0.6315
29735SOL    HW299136   4.007   9.591   3.735  0.5728 -1.0616 -1.7291
29736SOL     OW99137   4.703   8.241  10.430  0.1685 -0.2995 -0.2763
29736SOL    HW199138   4.761   8.210  10.361  0.2684  0.5355 -0.5780
29736SOL    HW299139   4.742   8.209  10.511  0.7431 -0.2055 -0.5153
29737SOL     OW99140   4.463  10.944   5.940  0.0656  1.0210  0.4650
29737SOL    HW199141   4.403  10.969   6.010 -0.5044  0.3792  0.2231
29737SOL    HW299142   4.511  10.869   5.975  0.4726  1.3121  0.5276
29738SOL     OW99143   5.022   0.802   7.316  0.5018 -0.7878 -0.1690
29738SOL    HW199144   5.048   0.721   7.272  0.3340  0.3976 -2.6419
29738SOL    HW299145   4.931   0.815   7.290  0.8240  0.6783 -0.6636
29739SOL     OW99146   1.921   4.414  12.582  0.7960  0.3599  0.4794
29739SOL    HW199147   1.923   4.462  12.665 -0.3253  1.1326  0.0790
29739SOL    HW299148   1.889   4.327  12.605  0.1471  0.6829  0.8128
29740SOL     OW99149  11.318   2.138  10.461  0.5839  0.5279 -0.2589
29740SOL    HW199150  11.309   2.044  10.446  1.2450  0.5768 -1.0198
29740SOL    HW299151  11.255   2.178  10.400  0.0488  0.5751  0.3133
29741SOL     OW99152   7.554   9.129  11.048  0.0203 -0.2733 -0.1708
29741SOL    HW199153   7.467   9.119  11.008  0.1412  1.6640 -0.9901
29741SOL    HW299154   7.603   9.182  10.986  1.3263 -0.0777  0.9874
29742SOL     OW99155   5.854   2.012   0.022  0.6233 -0.0925  0.0465
29742SOL    HW199156   5.915   1.942  -0.002 -0.1856 -1.1411  0.9389
29742SOL    HW299157   5.776   1.966   0.051  0.0158  1.2040  0.5149
29743SOL     OW99158   3.618   1.497  12.071  0.5072  0.0740 -0.5714
29743SOL    HW199159   3.704   1.500  12.030  0.1703  0.5677 -1.2628
29743SOL    HW299160   3.585   1.587  12.065  0.4048  0.1415  0.7049
29744SOL     OW99161   9.153  12.341   3.351  0.6566 -0.0144  0.2421
29744SOL    HW199162   9.155  12.414   3.413  0.5973 -0.2394  0.5130
29744SOL    HW299163   9.073  12.354   3.300  0.6929  0.1597  0.2300
29745SOL     OW99164  12.595   9.521   0.191 -0.1848  0.1497  0.2481
29745SOL    HW199165  12.523   9.469   0.226  0.9547 -1.5324  0.1880
29745SOL    HW299166  12.647   9.459   0.140  2.1389  0.9499  1.5398
29746SOL     OW99167   5.929   5.115   1.516 -0.3373  0.1334 -0.3296
29746SOL    HW199168   5.957   5.030   1.481 -0.0122  0.5953 -1.2189
29746SOL    HW299169   5.844   5.098   1.555  0.7358 -1.1284  1.6572
29747SOL     OW99170   5.469   3.302   2.633 -0.2357 -0.1327  0.6750
29747SOL    HW199171   5.411   3.360   2.584 -2.2128 -0.9293  1.9365
29747SOL    HW299172   5.431   3.215   2.621  1.4984 -0.9006  0.4816
29748SOL     OW99173   5.574   8.186  10.299 -0.2319  0.4920  0.6945
29748SOL    HW199174   5.632   8.231  10.360 -0.7166 -0.3353  1.7879
29748SOL    HW299175   5.549   8.105  10.343  0.1434 -0.5993 -0.9929
29749SOL     OW99176   7.970  12.437   1.394 -0.2866 -0.0442  0.6409
29749SOL    HW199177   7.984  12.495   1.319 -1.6195 -0.4570  0.0449
29749SOL    HW299178   8.012  12.482   1.468 -2.5723  2.4862  0.5411
29750SOL     OW99179   7.257   5.108   1.268  1.0775 -0.3708  0.1744
29750SOL    HW199180   7.176   5.113   1.217  0.2573 -2.0897  1.2142
29750SOL    HW299181   7.320   5.160   1.218 -1.0237  2.4046  0.1507
29751SOL     OW99182   8.045   8.680   3.117 -0.4176 -0.4112  0.4069
29751SOL    HW199183   8.121   8.627   3.141 -0.3844  0.1298  1.5556
29751SOL    HW299184   7.981   8.665   3.187 -1.3618 -0.8234 -0.5223
29752SOL     OW99185   0.382   5.201   3.932  0.5174 -0.0670  0.2552
29752SOL    HW199186   0.319   5.214   4.004 -0.5061 -2.0746 -0.2021
29752SOL    HW299187   0.408   5.290   3.907 -1.0206  0.7761  1.4428
29753SOL     OW99188   5.431  11.274  11.094  0.6248  0.0277  0.0344
29753SOL    HW199189   5.440  11.366  11.068  0.2137  0.4894  1.4018
29753SOL    HW299190   5.482  11.225  11.029  0.5381  1.1777 -0.9355
29754SOL     OW99191   0.714  10.869   4.726  0.0975  0.0421  0.2092
29754SOL    HW199192   0.674  10.825   4.652  0.9974 -1.0906  0.3688
29754SOL    HW299193   0.759  10.800   4.774 -0.5862  0.7141  1.9118
29755SOL     OW99194  12.950  10.974  11.760  0.5032  0.6435 -0.2166
29755SOL    HW199195  12.986  10.892  11.795  0.0702  0.6287  0.2114
29755SOL    HW299196  12.915  10.950  11.674  0.5842  0.4295 -0.1904
29756SOL     OW99197   1.600   5.212   4.849 -0.1076 -0.5636  0.6117
29756SOL    HW199198   1.621   5.305   4.842 -1.8098 -0.2491 -1.1383
29756SOL    HW299199   1.657   5.170   4.785 -1.7622 -0.2159 -1.1883
29757SOL     OW99200  12.273   3.804  10.903 -0.3953  0.1757 -0.2457
29757SOL    HW199201  12.217   3.878  10.881 -1.3632 -0.8381 -1.3389
29757SOL    HW299202  12.213   3.731  10.914  0.5468 -0.4751  0.7139
29758SOL     OW99203  11.900   1.017  10.832 -0.1616  0.7647  0.4883
29758SOL    HW199204  11.833   0.953  10.857  0.5196 -0.2528 -0.1941
29758SOL    HW299205  11.948   1.034  10.913 -0.2589  0.3070  0.6451
29759SOL     OW99206   4.754   7.848   6.533 -0.0271 -0.0370 -0.4171
29759SOL    HW199207   4.847   7.855   6.512 -0.3076  0.5261 -1.5579
29759SOL    HW299208   4.728   7.938   6.555  0.4400 -0.6744  3.4473
29760SOL     OW99209   0.675   7.510   3.551  0.1174  0.2020  0.0943
29760SOL    HW199210   0.594   7.496   3.601  0.0272 -1.0048 -0.3747
29760SOL    HW299211   0.709   7.593   3.585 -0.9175  0.3464  0.8353
29761SOL     OW99212   3.299   7.105  12.076  0.1053  0.3822 -0.5728
29761SOL    HW199213   3.303   7.200  12.066 -0.0103  0.3605 -0.8305
29761SOL    HW299214   3.342   7.070  11.998 -0.2193  0.2184 -0.6841
29762SOL     OW99215  10.848   5.933   5.636  0.0798 -0.2640  0.1108
29762SOL    HW199216  10.914   5.996   5.663  0.6068 -0.7655  0.0338
29762SOL    HW299217  10.891   5.884   5.565 -0.0722 -1.1318  0.6088
29763SOL     OW99218   9.759   4.693   2.870  0.8416 -0.7820 -0.5238
29763SOL    HW199219   9.847   4.656   2.880 -0.0272 -3.1102 -0.8894
29763SOL    HW299220   9.703   4.635   2.921 -0.5101  0.6993 -0.2491
29764SOL     OW99221  12.311   1.537   4.532  0.0306 -0.3601 -0.6858
29764SOL    HW199222  12.341   1.567   4.446  0.0465  0.4322 -0.4165
29764SOL    HW299223  12.304   1.442   4.523  0.2450 -0.3125 -1.4943
29765SOL     OW99224  10.834  13.251   2.044 -0.4384 -0.1062 -0.1065
29765SOL    HW199225  10.847  13.292   1.959  0.0466 -0.5981 -0.2748
29765SOL    HW299226  10.772  13.180   2.028 -2.1772  1.2381  0.3984
29766SOL     OW99227   7.781   6.643  13.047 -0.0579 -0.3380 -0.2975
29766SOL    HW199228   7.875   6.657  13.045  0.3130 -2.2673  1.2092
29766SOL    HW299229   7.770   6.548  13.045 -1.8612 -0.2487  1.6087
29767SOL     OW99230   1.391   1.028   6.597 -0.0114 -0.4404  0.0045
29767SOL    HW199231   1.370   1.003   6.507 -2.7671  0.1262  0.3874
29767SOL    HW299232   1.394   0.946   6.645 -0.2166 -0.6446 -0.3247
29768SOL     OW99233   6.702   0.750   6.944 -0.3623  0.0857  0.3124
29768SOL    HW199234   6.655   0.671   6.919 -2.2137  0.7256  1.5642
29768SOL    HW299235   6.678   0.765   7.035 -2.0358  3.3630 -0.4881
29769SOL     OW99236   7.009  11.859   9.135 -0.1383  0.2311  0.4519
29769SOL    HW199237   7.060  11.780   9.154 -0.2741 -0.3035 -1.2910
29769SOL    HW299238   6.918  11.834   9.153 -0.2930 -0.3494 -1.0224
29770SOL     OW99239   1.584   4.593   4.527  0.3971 -0.2335 -0.0994
29770SOL    HW199240   1.507   4.613   4.581  1.2083  1.4907  0.5025
29770SOL    HW299241   1.652   4.568   4.589  1.1224  1.0167 -0.3566
29771SOL     OW99242   5.022  10.299   3.157  0.0935 -0.4115 -0.2686
29771SOL    HW199243   5.115  10.323   3.163 -0.3290  1.2460  0.1393
29771SOL    HW299244   4.992  10.338   3.075 -0.1539 -1.3796 -0.6605
29772SOL     OW99245   8.430   5.742  12.866  0.1352 -0.0268  0.4179
29772SOL    HW199246   8.526   5.744  12.864  0.1693 -1.3380 -0.0965
29772SOL    HW299247   8.406   5.672  12.805 -1.1884  0.8258 -0.0827
29773SOL     OW99248   7.681   7.685   2.882 -0.3628  0.3908 -0.1641
29773SOL    HW199249   7.622   7.611   2.864 -0.6194  0.7391 -0.7994
29773SOL    HW299250   7.687   7.731   2.798  0.9757  0.2472 -0.1596
29774SOL     OW99251   0.496   5.966  12.986 -0.3049  0.5109  0.3519
29774SOL    HW199252   0.439   5.914  13.043 -0.9423  1.0150  0.1719
29774SOL    HW299253   0.497   6.053  13.025 -1.0110  0.9481 -0.5909
29775SOL     OW99254   9.450   4.048   2.918  0.0543 -0.3680  0.3056
29775SOL    HW199255   9.467   3.985   2.848  0.9461 -2.2219  2.1203
29775SOL    HW299256   9.372   4.014   2.963 -0.7835  1.0450  0.0168
29776SOL     OW99257   7.002   8.638   7.982  0.0530  0.1956  0.2238
29776SOL    HW199258   7.097   8.647   7.988  0.0558 -0.1971  0.8275
29776SOL    HW299259   6.988   8.549   7.950 -0.0930  0.6182 -0.9305
29777SOL     OW99260  10.951   0.575   7.186 -0.7924  0.2537  0.3208
29777SOL    HW199261  10.909   0.659   7.168 -1.9284 -0.4143 -0.2199
29777SOL    HW299262  10.881   0.510   7.177  0.4636 -0.9772 -1.2736
29778SOL     OW99263  10.732   2.058   7.060  0.4081  0.2059  0.6826
29778SOL    HW199264  10.656   2.087   7.110 -0.5521  2.2103 -1.7294
29778SOL    HW299265  10.699   1.987   7.005  0.3487  0.7594 -0.0194
29779SOL     OW99266   7.878  11.310   8.735 -0.2454 -0.2746 -0.1853
29779SOL    HW199267   7.802  11.361   8.763 -0.6484 -2.2328  2.6353
29779SOL    HW299268   7.844  11.221   8.725  1.0519 -0.6092 -2.1027
29780SOL     OW99269  10.477  10.660  12.601 -0.1388  0.0010  0.4984
29780SOL    HW199270  10.552  10.602  12.616 -0.2409  0.3268  2.4844
29780SOL    HW299271  10.516  10.742  12.571  0.3393  0.1822  1.5591
29781SOL     OW99272   4.648   7.400   5.133 -0.3805 -0.0056  0.0568
29781SOL    HW199273   4.570   7.452   5.154 -0.1588  0.4307 -0.1696
29781SOL    HW299274   4.624   7.353   5.053 -1.2091 -1.6364  1.2139
29782SOL     OW99275   0.011  11.991  12.795  0.1848 -0.6557  0.6799
29782SOL    HW199276  -0.041  11.920  12.834  0.0642 -1.1928 -0.4133
29782SOL    HW299277  -0.044  12.068  12.803  0.2249 -0.7082  1.6922
29783SOL     OW99278  12.555  10.442   0.733 -0.1652 -0.1797  0.4465
29783SOL    HW199279  12.575  10.528   0.770  1.2050 -1.3075  2.4900
29783SOL    HW299280  12.467  10.422   0.765 -1.3639  1.2120 -1.6789
29784SOL     OW99281  13.308  10.972   4.749  0.1207  0.4576  0.6102
29784SOL    HW199282  13.304  11.015   4.664 -1.6800 -1.4197 -0.3220
29784SOL    HW299283  13.397  10.992   4.781  1.4203 -0.0325 -2.3737
29785SOL     OW99284  12.829   5.287   6.756 -0.5893 -0.1528  0.6993
29785SOL    HW199285  12.748   5.277   6.706  0.1760 -0.8505 -0.4396
29785SOL    HW299286  12.897   5.302   6.690  0.1840  0.6879  1.6503
29786SOL     OW99287   8.001   1.664   0.212 -0.5160  0.2737  0.2126
29786SOL    HW199288   8.047   1.636   0.291 -0.3515 -1.8725 -0.5852
29786SOL    HW299289   8.066   1.712   0.162  0.2538 -0.8293  0.1136
29787SOL     OW99290   8.601   3.956   1.209  0.0600  0.2656 -0.2335
29787SOL    HW199291   8.628   3.864   1.211  0.5344  0.3832  2.3723
29787SOL    HW299292   8.511   3.954   1.180 -0.0169 -1.0765  0.0289
29788SOL     OW99293  10.226  13.255   8.441 -0.4802  0.2065 -0.2310
29788SOL    HW199294  10.260  13.242   8.529 -1.5951  0.1869  0.2113
29788SOL    HW299295  10.298  13.230   8.383 -0.8913 -3.3848  0.6133
29789SOL     OW99296   9.696  10.306   9.172  0.4489 -0.3409 -0.2414
29789SOL    HW199297   9.683  10.338   9.261  0.7925 -0.1867 -0.2459
29789SOL    HW299298   9.703  10.211   9.182 -1.8062 -0.5589 -0.3676
29790SOL     OW99299  11.229   0.879  12.743  0.3162 -0.5993 -0.4181
29790SOL    HW199300  11.146   0.926  12.757  0.9520  0.0560  1.3058
29790SOL    HW299301  11.293   0.926  12.796  1.3309 -2.4480  0.0812
29791SOL     OW99302   9.621  10.876   3.685 -0.0359  0.0451  0.0336
29791SOL    HW199303   9.679  10.946   3.714  1.3877 -0.7851 -0.6634
29791SOL    HW299304   9.639  10.866   3.592 -2.0714  0.4187 -0.4441
29792SOL     OW99305   7.195  11.764  11.729  0.4119 -0.3050  0.3702
29792SOL    HW199306   7.185  11.822  11.653  1.6919 -1.6099 -0.8671
29792SOL    HW299307   7.134  11.798  11.794 -1.2860  0.4240 -1.5108
29793SOL     OW99308   1.562  12.127   2.803  0.0842 -0.1620 -0.8518
29793SOL    HW199309   1.605  12.047   2.834  1.9787  0.0424 -2.7196
29793SOL    HW299310   1.589  12.194   2.866 -1.4202 -0.8891  0.6588
29794SOL     OW99311   4.060   6.572   6.176  0.5900  0.1574  0.0641
29794SOL    HW199312   4.033   6.660   6.201 -1.6318 -0.3585 -0.2256
29794SOL    HW299313   4.090   6.531   6.257 -0.1298  0.6110  0.5721
29795SOL     OW99314   2.259   1.979   6.369  0.9090 -0.2038 -0.5985
29795SOL    HW199315   2.349   2.012   6.379  0.4637  0.8506  0.0427
29795SOL    HW299316   2.270   1.894   6.325  2.3747 -1.0210  1.1929
29796SOL     OW99317   2.839   5.507   1.079 -0.1521  0.0083 -0.1332
29796SOL    HW199318   2.837   5.524   0.984 -1.2137  0.9705  0.0317
29796SOL    HW299319   2.912   5.560   1.111 -0.4615  0.5295 -0.2762
29797SOL     OW99320   7.459   7.556   4.566 -0.1544 -0.0847 -0.1185
29797SOL    HW199321   7.525   7.537   4.499  0.8426  0.2203  0.7590
29797SOL    HW299322   7.425   7.642   4.542 -0.1265 -0.1732 -0.4865
29798SOL     OW99323  10.624   0.130   7.608 -0.3603 -0.0095 -0.1220
29798SOL    HW199324  10.594   0.088   7.527 -1.7743  0.8319 -0.0828
29798SOL    HW299325  10.673   0.063   7.654 -1.9926 -1.4233 -0.3605
29799SOL     OW99326   2.570   3.792   1.018  0.2342  0.0318 -0.2325
29799SOL    HW199327   2.488   3.838   1.000  0.1657 -0.3473 -0.9096
29799SOL    HW299328   2.544   3.701   1.034  0.4130  0.1293  0.6820
29800SOL     OW99329   5.104   2.730   3.829 -0.3805  0.4071 -0.1103
29800SOL    HW199330   5.044   2.681   3.885 -1.1226  1.5862  0.1551
29800SOL    HW299331   5.134   2.802   3.884 -0.1527  0.8672 -0.8316
29801SOL     OW99332   9.130   6.631   0.766 -0.0820  0.2130 -0.5793
29801SOL    HW199333   9.215   6.607   0.729 -0.5146 -1.6745 -0.4598
29801SOL    HW299334   9.078   6.660   0.691  0.5142  0.9332 -0.7204
29802SOL     OW99335   0.032  11.403   3.922  0.7343  0.1574  0.1413
29802SOL    HW199336  -0.025  11.342   3.967 -1.0681  1.1625 -0.6719
29802SOL    HW299337  -0.010  11.488   3.934  0.8330  0.6270 -2.3825
29803SOL     OW99338   7.741  12.116  13.164 -0.1835  0.3403  0.2198
29803SOL    HW199339   7.670  12.143  13.222  0.3890  2.7388 -0.0867
29803SOL    HW299340   7.697  12.084  13.086 -0.9317 -0.2224  0.8530
29804SOL     OW99341   3.570   2.784   7.438  0.0579  0.2735 -0.1908
29804SOL    HW199342   3.602   2.841   7.368 -0.3394  0.3651 -0.2987
29804SOL    HW299343   3.493   2.742   7.401 -0.0400  0.1750  0.1245
29805SOL     OW99344   9.135  10.475   2.287  0.7168  0.1451  0.4607
29805SOL    HW199345   9.085  10.517   2.357 -0.7346  0.5273 -0.7436
29805SOL    HW299346   9.123  10.381   2.302 -2.2523  0.1647 -0.9359
29806SOL     OW99347   4.400   7.034   5.916 -0.8132  0.2960 -0.6031
29806SOL    HW199348   4.358   7.120   5.923 -0.7901  0.3217 -0.7729
29806SOL    HW299349   4.351   6.978   5.975 -1.3392  0.2277 -1.0996
29807SOL     OW99350  12.607   7.053   1.771  0.0425  0.1176 -0.1591
29807SOL    HW199351  12.576   7.028   1.685 -5.0021  1.9124  0.7932
29807SOL    HW299352  12.631   7.146   1.762  0.6334  0.0020  0.1483
29808SOL     OW99353   1.867   2.955   7.119  0.0217 -0.1581  0.4486
29808SOL    HW199354   1.847   3.038   7.161 -1.8215 -1.1519  1.6947
29808SOL    HW299355   1.903   2.900   7.189 -1.5429 -1.3039  0.4389
29809SOL     OW99356   0.003   2.055   4.715  1.2488 -0.4907 -0.0602
29809SOL    HW199357   0.058   2.014   4.648 -0.8805 -2.5665 -0.6872
29809SOL    HW299358  -0.070   2.093   4.666  0.9155  0.1444  0.9024
29810SOL     OW99359   9.967  12.872   7.647  0.6188 -0.3668  0.0588
29810SOL    HW199360   9.994  12.844   7.559 -0.5775  0.8738 -0.7559
29810SOL    HW299361   9.877  12.903   7.635  1.1631  1.8782  1.2626
29811SOL     OW99362   4.262   4.984   7.864 -0.4152  0.0696  0.6872
29811SOL    HW199363   4.186   5.030   7.900 -0.9419 -1.4317  1.5915
29811SOL    HW299364   4.228   4.937   7.788 -0.4172 -0.5888  1.0830
29812SOL     OW99365   6.730  11.669   8.961  0.0170 -0.4933  0.4270
29812SOL    HW199366   6.662  11.637   8.902  0.6077 -0.2343 -0.4047
29812SOL    HW299367   6.683  11.685   9.044 -0.7247 -1.2868  0.1785
29813SOL     OW99368   4.139   9.188   5.114 -0.0515 -0.2965 -0.1516
29813SOL    HW199369   4.208   9.134   5.075  0.8532  1.7022 -1.4853
29813SOL    HW299370   4.186   9.248   5.172 -1.1172 -1.3863  1.9533
29814SOL     OW99371  11.061   0.195   1.499  0.2593  0.1730 -0.0168
29814SOL    HW199372  10.975   0.235   1.485  0.5994  0.3490 -1.9067
29814SOL    HW299373  11.084   0.157   1.414  1.2093 -1.5889  0.9667
29815SOL     OW99374   2.788   9.380   2.641  0.2611 -0.5875  1.0207
29815SOL    HW199375   2.741   9.439   2.583  0.6240 -0.6505  0.6621
29815SOL    HW299376   2.793   9.427   2.725  2.0254  0.6373  0.2882
29816SOL     OW99377   4.978   4.212   9.760 -0.2400 -0.5595  0.4925
29816SOL    HW199378   4.885   4.231   9.746 -0.0767 -0.0224  0.0757
29816SOL    HW299379   5.003   4.266   9.835  0.0059  0.1967 -0.1216
29817SOL     OW99380  11.125  13.105   2.456  0.2905 -0.4333  0.4482
29817SOL    HW199381  11.208  13.097   2.409  0.7076 -2.5078  1.3912
29817SOL    HW299382  11.149  13.137   2.542 -0.1014  0.5107  0.2136
29818SOL     OW99383   3.240   5.346  11.181 -0.7342 -0.0447  0.0116
29818SOL    HW199384   3.224   5.439  11.165  0.0251  0.3810  1.4999
29818SOL    HW299385   3.335   5.337  11.177 -0.8580 -1.0341 -1.3479
29819SOL     OW99386  12.826  11.977   0.456 -0.1123 -0.3488  0.1990
29819SOL    HW199387  12.755  12.018   0.506  0.9198  0.0802  1.3743
29819SOL    HW299388  12.894  11.962   0.521  1.1288 -0.1357 -1.0209
29820SOL     OW99389  10.950   7.904   0.811  0.1442 -0.9666  0.2661
29820SOL    HW199390  10.905   7.837   0.760  0.3794 -0.4716 -0.6110
29820SOL    HW299391  10.880   7.952   0.856  0.0236 -2.3036  1.5524
29821SOL     OW99392   5.695   2.186   7.010 -0.5568 -0.0533 -0.2833
29821SOL    HW199393   5.605   2.193   6.978  0.6328  0.1795 -4.0412
29821SOL    HW299394   5.728   2.104   6.972  0.6932 -0.5121  1.6036
29822SOL     OW99395  11.679  11.030  13.186  0.5502  0.4220 -0.3726
29822SOL    HW199396  11.709  10.990  13.268 -1.3782  0.0950  0.2202
29822SOL    HW299397  11.698  10.965  13.119 -0.5945 -0.6383  0.2798
29823SOL     OW99398   3.496  11.728  10.677  0.9576 -0.1726 -0.0519
29823SOL    HW199399   3.526  11.735  10.767 -0.3114  0.8257  0.3296
29823SOL    HW299400   3.419  11.786  10.673 -1.4520 -3.1628 -0.6978
29824SOL     OW99401   6.466   8.375   7.347  0.2916  0.1420 -0.2917
29824SOL    HW199402   6.496   8.368   7.437  0.1051 -0.5209 -0.2769
29824SOL    HW299403   6.409   8.299   7.334 -1.1897  1.2265 -0.3950
29825SOL     OW99404   9.019  12.467   1.797  0.4811 -0.5102  0.3625
29825SOL    HW199405   8.930  12.465   1.833  0.3865 -0.1938  0.1542
29825SOL    HW299406   9.064  12.395   1.840  0.1946 -0.5175  0.6554
29826SOL     OW99407   5.448   7.584  11.952  0.0208  0.1633 -0.0844
29826SOL    HW199408   5.386   7.657  11.947 -0.4960 -0.0753  1.8401
29826SOL    HW299409   5.523   7.613  11.901 -1.1073  1.0513 -1.3041
29827SOL     OW99410   9.011   9.757   8.745  0.5788  0.7958  0.7051
29827SOL    HW199411   8.931   9.781   8.793 -1.1366  0.4837 -1.8244
29827SOL    HW299412   9.013   9.817   8.671  3.4302  1.6043  1.3270
29828SOL     OW99413   1.417   3.423  10.465 -0.5663  0.2425  0.6480
29828SOL    HW199414   1.420   3.378  10.549 -0.7605  1.0763  1.1198
29828SOL    HW299415   1.508   3.449  10.449 -0.4120 -0.5037  0.2566
29829SOL     OW99416  10.641   1.598  10.805  0.3152  0.4122 -0.3062
29829SOL    HW199417  10.554   1.612  10.842  0.1378  0.1504 -0.6158
29829SOL    HW299418  10.625   1.542  10.728  0.7757  0.1900 -0.2410
29830SOL     OW99419   4.671   4.649  10.225 -0.0177 -0.0971 -0.2446
29830SOL    HW199420   4.663   4.563  10.184 -0.6040 -0.1635  0.0015
29830SOL    HW299421   4.664   4.631  10.319 -2.6281  0.4802 -0.2703
29831SOL     OW99422   0.064   3.078   3.426  0.1558  0.1208 -0.2461
29831SOL    HW199423  -0.024   3.046   3.406  0.7098 -1.0348 -0.9660
29831SOL    HW299424   0.114   3.062   3.346  1.2896 -0.2499  0.5042
29832SOL     OW99425   3.842   6.591   9.136  0.0395  0.0623 -1.1034
29832SOL    HW199426   3.872   6.512   9.092  2.6818  0.1018  0.3984
29832SOL    HW299427   3.849   6.570   9.230  0.2849  1.8883 -0.6749
29833SOL     OW99428   6.664   6.540   5.831  0.0137  0.2857  0.0186
29833SOL    HW199429   6.724   6.576   5.766 -1.0325  1.7365 -0.1896
29833SOL    HW299430   6.577   6.556   5.795 -0.5467 -0.4103  1.0132
29834SOL     OW99431   9.260   8.920   1.685  0.2003  0.2051  0.5174
29834SOL    HW199432   9.306   8.839   1.708 -0.0820  0.0832  0.6516
29834SOL    HW299433   9.176   8.891   1.651 -0.4846  0.4745  1.8880
29835SOL     OW99434  13.121   2.035  12.254  0.5436  0.4253  0.1515
29835SOL    HW199435  13.120   2.049  12.348 -1.5007 -0.6266  0.3556
29835SOL    HW299436  13.062   1.960  12.240  0.5129  0.7713 -1.9796
29836SOL     OW99437  13.117   2.127   6.426 -0.0286  0.2401 -0.1657
29836SOL    HW199438  13.174   2.202   6.438 -0.0638  0.5204 -1.6211
29836SOL    HW299439  13.051   2.156   6.362 -0.9080 -0.5588  0.3460
29837SOL     OW99440   7.482   6.697   3.669  0.8938 -0.4635 -0.0258
29837SOL    HW199441   7.516   6.696   3.580  0.5007 -0.5733 -0.1773
29837SOL    HW299442   7.390   6.669   3.660  0.1522  1.7293  0.1103
29838SOL     OW99443  12.021   5.621   2.198  0.2975 -0.2924 -0.0479
29838SOL    HW199444  11.982   5.539   2.166  1.8574 -1.9307  1.9070
29838SOL    HW299445  12.044   5.602   2.289  0.6901  2.3765  0.4774
29839SOL     OW99446   9.287   0.298   3.411  0.1878 -0.1238  0.1359
29839SOL    HW199447   9.258   0.385   3.381  2.0009  0.1254 -1.0539
29839SOL    HW299448   9.342   0.316   3.487  2.6902  0.1141 -1.5980
29840SOL     OW99449   5.726  12.956   0.729  0.2510 -0.1618 -0.0454
29840SOL    HW199450   5.809  12.939   0.685  0.8894 -1.3468  1.5417
29840SOL    HW299451   5.660  12.945   0.661  1.3206 -0.0736 -1.1268
29841SOL     OW99452   8.658   9.167  10.717 -0.4308  0.3865 -0.3556
29841SOL    HW199453   8.718   9.206  10.654  1.9080 -1.6838  0.4049
29841SOL    HW299454   8.591   9.124  10.664  0.5155  0.1412 -1.3792
29842SOL     OW99455   4.576   1.282   4.748 -0.0801  0.7131  0.2239
29842SOL    HW199456   4.603   1.278   4.656 -1.9355 -1.2813 -0.2914
29842SOL    HW299457   4.516   1.209   4.759  0.1711  0.8440  3.0853
29843SOL     OW99458   3.852  10.426   8.216  0.3036 -0.2209  0.0238
29843SOL    HW199459   3.784  10.360   8.202 -1.6685  1.6292  0.3900
29843SOL    HW299460   3.870  10.422   8.310 -2.2513  1.8619  0.7242
29844SOL     OW99461   3.800  10.370   1.201  0.0367  0.5783 -0.4242
29844SOL    HW199462   3.732  10.326   1.149  0.1149  1.1588 -1.0210
29844SOL    HW299463   3.762  10.376   1.289  0.2550 -1.2043 -0.1735
29845SOL     OW99464   7.569   3.898   3.088 -0.2438  0.2858 -0.3929
29845SOL    HW199465   7.578   3.959   3.015  1.1859  1.0818  0.3982
29845SOL    HW299466   7.654   3.901   3.133 -0.3347 -1.8205  0.0435
29846SOL     OW99467   8.751  13.167   6.175  0.4201  0.0987 -0.3041
29846SOL    HW199468   8.671  13.127   6.208 -0.3959  0.3089 -1.9332
29846SOL    HW299469   8.749  13.150   6.081  1.5195  1.4400 -0.5914
29847SOL     OW99470   4.540  10.748   3.792  0.3410  0.1048 -0.2429
29847SOL    HW199471   4.504  10.837   3.782 -2.3895 -0.9554 -0.6641
29847SOL    HW299472   4.589  10.752   3.874  1.7000  2.3895 -1.0667
29848SOL     OW99473   4.455   9.618  10.185 -0.1335  0.0266  0.1094
29848SOL    HW199474   4.457   9.712  10.173  0.7552 -0.1214 -1.0302
29848SOL    HW299475   4.523   9.600  10.250 -1.2277  0.2841  1.3620
29849SOL     OW99476   9.049   0.425   2.130 -0.4118  0.0229 -0.3163
29849SOL    HW199477   9.126   0.371   2.150 -0.8544 -0.9744 -1.2071
29849SOL    HW299478   8.990   0.366   2.083 -1.2473  1.0863 -0.6371
29850SOL     OW99479   2.652   3.067  10.400 -0.7603 -0.2509 -0.5528
29850SOL    HW199480   2.690   3.060  10.312  2.7540  0.4913  0.7237
29850SOL    HW299481   2.560   3.088  10.385 -0.2626  0.0281 -4.0359
29851SOL     OW99482   2.092  12.665   5.835 -0.2559  0.1013  0.3514
29851SOL    HW199483   2.158  12.634   5.774 -1.7074 -0.7639 -0.8472
29851SOL    HW299484   2.065  12.750   5.801 -1.7464 -0.8013 -0.8210
29852SOL     OW99485   8.867   0.244   5.997  0.0475 -0.1433  0.2599
29852SOL    HW199486   8.897   0.231   6.087 -0.4544  0.0386  0.4543
29852SOL    HW299487   8.948   0.257   5.947  0.3991 -1.3291  0.4954
29853SOL     OW99488   2.450   3.835  11.039  0.0127 -0.4228  0.2987
29853SOL    HW199489   2.410   3.869  10.960 -1.6353 -1.1627  0.7658
29853SOL    HW299490   2.506   3.763  11.009 -0.3724 -0.5109 -0.2148
29854SOL     OW99491   6.614   8.982   5.447  0.2180 -0.1198  0.0261
29854SOL    HW199492   6.563   9.003   5.526 -1.1984  0.8949 -1.0943
29854SOL    HW299493   6.644   9.067   5.415  2.1170 -0.6473  0.2887
29855SOL     OW99494  11.771   4.782   4.229 -0.8229 -0.1129 -0.1662
29855SOL    HW199495  11.778   4.859   4.285 -2.9791  0.1467 -0.1610
29855SOL    HW299496  11.774   4.708   4.289 -0.7356  0.0482  0.0299
29856SOL     OW99497  10.052  12.832   8.863 -0.1028 -0.7516  0.2309
29856SOL    HW199498   9.960  12.823   8.839 -0.9284  0.8548  2.4438
29856SOL    HW299499  10.053  12.818   8.958  1.7160  0.4739  0.4414
29857SOL     OW99500  10.587  12.359   3.332  0.4294  0.1889 -0.1561
29857SOL    HW199501  10.673  12.368   3.291  0.9105 -1.1674  0.4972
29857SOL    HW299502  10.600  12.292   3.399 -1.3094 -0.5484 -0.5145
29858SOL     OW99503   1.186   4.456  12.679 -0.0224 -0.5035 -0.0059
29858SOL    HW199504   1.107   4.410  12.708  0.0350  0.6702  2.1578
29858SOL    HW299505   1.225   4.491  12.759  2.4846 -0.6529 -1.0559
29859SOL     OW99506  12.325   1.752  13.131 -0.5927  0.3207 -0.0826
29859SOL    HW199507  12.250   1.796  13.169 -0.7409  0.9088 -1.0101
29859SOL    HW299508  12.377   1.823  13.092  0.7083 -0.0155  0.9667
29860SOL     OW99509   3.727   2.317   9.044  0.4893 -0.2523  0.3431
29860SOL    HW199510   3.682   2.378   9.103  1.5880  0.6155  0.3292
29860SOL    HW299511   3.665   2.302   8.973 -0.7165 -1.0441  1.5363
29861SOL     OW99512   4.045   8.554   7.003 -0.1256  0.2272 -0.6222
29861SOL    HW199513   3.973   8.542   6.940  0.6817 -0.7758 -1.3788
29861SOL    HW299514   4.040   8.477   7.060 -0.9610  1.2106  0.7058
29862SOL     OW99515  12.195   7.637   2.158  0.1526  0.2219  1.3171
29862SOL    HW199516  12.247   7.591   2.092 -3.7150 -0.6674 -1.5117
29862SOL    HW299517  12.241   7.719   2.173  1.9918 -0.1731 -1.4851
29863SOL     OW99518   9.572   9.084   3.235 -0.5151 -0.2577  0.2023
29863SOL    HW199519   9.593   8.991   3.232  0.2655 -0.0822  0.0723
29863SOL    HW299520   9.539   9.099   3.323 -1.1099 -0.7536  0.0676
29864SOL     OW99521   7.520  10.358   7.384 -0.7042 -0.0060 -0.2842
29864SOL    HW199522   7.549  10.448   7.369  0.9877 -0.4046  0.2660
29864SOL    HW299523   7.438  10.367   7.431  1.3128  1.4107  3.4021
29865SOL     OW99524   1.993   3.974   6.456  0.6597  0.3284  0.7102
29865SOL    HW199525   1.995   3.950   6.364  0.7847 -0.4209  0.8974
29865SOL    HW299526   2.072   4.026   6.470  0.3327  0.9553  0.2680
29866SOL     OW99527   1.397   7.194   1.946  0.4279  0.0616  0.1014
29866SOL    HW199528   1.419   7.104   1.969 -1.2849 -0.9032 -1.7114
29866SOL    HW299529   1.450   7.214   1.870 -0.2263  0.0478 -0.3697
29867SOL     OW99530   0.217   0.969  10.181  0.0670 -0.4728  0.0742
29867SOL    HW199531   0.198   0.953  10.089  0.6504  0.3175 -0.1965
29867SOL    HW299532   0.150   1.031  10.209  0.0994 -0.4426  0.0850
29868SOL     OW99533  11.456  11.055   2.368  0.5087 -0.0974  0.0808
29868SOL    HW199534  11.543  11.055   2.409 -0.0719 -1.5252  1.4326
29868SOL    HW299535  11.413  10.977   2.404 -0.0892 -1.4835 -3.2571
29869SOL     OW99536   5.536   0.225   5.437  0.4600 -0.1811 -0.0256
29869SOL    HW199537   5.583   0.233   5.520  0.3424  1.2441 -0.0760
29869SOL    HW299538   5.605   0.220   5.371  0.5490 -0.6584  0.0997
29870SOL     OW99539   9.349   7.803   8.677  0.0017 -0.1598 -0.4546
29870SOL    HW199540   9.309   7.716   8.683 -0.0980 -0.2750 -2.3734
29870SOL    HW299541   9.287   7.855   8.627  1.0248  0.4150 -1.1564
29871SOL     OW99542   7.191   9.049   7.759 -0.1732  0.1982  0.3342
29871SOL    HW199543   7.135   9.003   7.822  1.0119  0.5137  1.6701
29871SOL    HW299544   7.162   9.018   7.673 -1.6936 -0.4020  1.0427
29872SOL     OW99545  10.219   5.602   1.344 -0.6801  0.4140  0.4908
29872SOL    HW199546  10.300   5.616   1.296  0.3626  1.5121  2.4547
29872SOL    HW299547  10.233   5.520   1.391 -0.5884  0.7329  1.0285
29873SOL     OW99548   9.268   5.741   9.046 -0.4789 -0.4070 -0.2446
29873SOL    HW199549   9.344   5.686   9.027 -0.1054  0.2984 -0.8233
29873SOL    HW299550   9.284   5.822   8.997 -1.4027 -0.0911 -0.0361
29874SOL     OW99551  10.164   9.406   9.940 -0.3776 -0.1697  0.5280
29874SOL    HW199552  10.260   9.405   9.944 -0.3738  0.9308  0.9664
29874SOL    HW299553  10.138   9.463  10.012 -1.3759 -0.6313  0.5422
29875SOL     OW99554   9.434   1.531   4.318  0.9760  0.1106  0.2016
29875SOL    HW199555   9.444   1.591   4.392 -3.2915 -0.4796  1.5766
29875SOL    HW299556   9.441   1.444   4.357  0.7614 -0.2259 -0.5006
29876SOL     OW99557   4.001  10.474  10.605 -0.7136 -0.1019  0.0366
29876SOL    HW199558   4.021  10.389  10.646  0.2235 -0.3110 -0.8292
29876SOL    HW299559   3.959  10.451  10.522  0.1318  0.2633 -0.5016
29877SOL     OW99560   2.099   9.375  12.029  0.1607 -0.3469 -0.3219
29877SOL    HW199561   2.097   9.394  12.122  0.6148  1.6418 -0.6784
29877SOL    HW299562   2.150   9.295  12.021  2.0402  0.6644  0.9760
29878SOL     OW99563   1.108   9.257   2.249 -0.0834  0.2725  0.3757
29878SOL    HW199564   1.160   9.319   2.300  1.0755 -0.9403  0.7354
29878SOL    HW299565   1.073   9.309   2.177  0.0235  1.5471  1.2110
29879SOL     OW99566   0.080   4.839   1.503  0.4468  0.7422 -0.3743
29879SOL    HW199567   0.159   4.793   1.531  0.8207  1.8565  0.4720
29879SOL    HW299568   0.112   4.903   1.439  0.0546  0.4300 -0.8905
29880SOL     OW99569   3.868   5.537  12.678 -0.2789  0.1198 -0.4536
29880SOL    HW199570   3.809   5.551  12.751  0.2437 -4.0240  1.0334
29880SOL    HW299571   3.812   5.504  12.608 -0.3724  1.3482 -0.9883
29881SOL     OW99572   4.737   0.572   1.627  0.7998  0.3712 -0.5879
29881SOL    HW199573   4.669   0.555   1.562  1.0844 -1.0443 -0.5432
29881SOL    HW299574   4.760   0.664   1.614 -1.0823  0.8756 -0.6254
29882SOL     OW99575   2.692  10.195   2.477 -0.4307 -0.1550  0.5286
29882SOL    HW199576   2.637  10.234   2.545 -0.7915  0.5393 -0.1468
29882SOL    HW299577   2.727  10.116   2.517  2.2996  2.0430  2.8534
29883SOL     OW99578   1.483   8.392   4.632 -0.2604 -0.0895 -0.1221
29883SOL    HW199579   1.445   8.369   4.547 -1.5804 -2.2996  0.9438
29883SOL    HW299580   1.463   8.484   4.643 -1.5768 -0.1671 -1.4839
29884SOL     OW99581  12.501   7.360  12.260 -0.3268 -0.1556  0.3548
29884SOL    HW199582  12.538   7.442  12.293  0.3995  0.1818 -1.1998
29884SOL    HW299583  12.429   7.340  12.320 -1.2470  2.2085  0.1562
29885SOL     OW99584   4.141  11.955   9.221 -0.2174 -0.1317 -0.1470
29885SOL    HW199585   4.071  11.898   9.253  0.1623  0.4924  1.9495
29885SOL    HW299586   4.120  12.041   9.257  3.0390 -0.4640  3.0811
29886SOL     OW99587   8.763   3.307   5.388 -0.0888 -0.4428  0.2271
29886SOL    HW199588   8.682   3.274   5.348 -0.9933  0.3353  1.3517
29886SOL    HW299589   8.737   3.333   5.476  1.3571  0.0416  0.5337
29887SOL     OW99590   6.947   9.796  10.211  0.0674  0.6885 -0.1001
29887SOL    HW199591   6.899   9.770  10.133 -1.3033 -0.2273  1.0000
29887SOL    HW299592   6.984   9.714  10.245  0.4822  1.0467  0.3328
29888SOL     OW99593  12.314   4.932   3.500 -0.5830  0.0452  0.0062
29888SOL    HW199594  12.327   4.901   3.410 -3.2478  0.5816 -0.6566
29888SOL    HW299595  12.345   4.860   3.555  2.6959  0.3486 -1.1986
29889SOL     OW99596  10.669   4.330  10.642  0.4667  0.0875  0.7377
29889SOL    HW199597  10.753   4.307  10.603  1.1519  0.9249  1.6645
29889SOL    HW299598  10.627   4.246  10.659  1.3706 -0.3658  0.7980
29890SOL     OW99599   4.497   6.914   1.792 -0.5557  0.5880  1.2861
29890SOL    HW199600   4.536   6.830   1.769 -0.7796  0.8126  0.0009
29890SOL    HW299601   4.437   6.933   1.720 -1.9976  0.9130  2.5418
29891SOL     OW99602   5.194   0.299   4.416 -0.0352 -0.0941  0.0745
29891SOL    HW199603   5.144   0.375   4.444 -0.0577  0.3942 -1.2374
29891SOL    HW299604   5.286   0.325   4.428 -0.0462 -0.4277  1.0197
29892SOL     OW99605   0.352   6.056   6.075  0.5797  0.0993  0.3104
29892SOL    HW199606   0.413   6.129   6.062  1.0322 -0.0701  1.3522
29892SOL    HW299607   0.287   6.091   6.137 -0.6604  0.4222 -1.1092
29893SOL     OW99608  10.409  10.865  12.985  0.1734  0.0808 -0.4215
29893SOL    HW199609  10.350  10.792  13.007 -0.2140  0.9770  1.8501
29893SOL    HW299610  10.367  10.908  12.911  0.5899 -2.1345 -2.0492
29894SOL     OW99611   4.450   2.424  13.207  0.3177 -0.0081  0.6509
29894SOL    HW199612   4.476   2.515  13.195 -1.1619  0.5821  1.6364
29894SOL    HW299613   4.391   2.406  13.134  0.4316 -0.1173  0.5837
29895SOL     OW99614   2.403   4.031   3.468  0.3965  0.3650  0.1483
29895SOL    HW199615   2.315   4.047   3.433 -0.1983 -0.3450  1.2241
29895SOL    HW299616   2.419   4.105   3.526  1.1903  1.3068 -1.2333
29896SOL     OW99617   4.637   0.396  12.002 -0.0082 -0.1622  0.1292
29896SOL    HW199618   4.637   0.341  12.080  2.4923  0.3360  0.5418
29896SOL    HW299619   4.681   0.477  12.028  0.9774 -0.0101 -1.7917
29897SOL     OW99620   5.273   6.523   3.314 -0.5872  0.2087  0.4817
29897SOL    HW199621   5.207   6.588   3.339  0.3977  1.4447  0.0183
29897SOL    HW299622   5.344   6.536   3.377  0.3616  0.8372 -0.6622
29898SOL     OW99623   2.967   3.052   6.763  0.4534 -0.1887  0.4158
29898SOL    HW199624   2.920   2.986   6.711 -0.3228  0.3221  0.4558
29898SOL    HW299625   2.941   3.136   6.726 -0.7897  0.2481  2.1276
29899SOL     OW99626  10.919   4.781   3.903  0.0940 -0.6727 -1.2771
29899SOL    HW199627  10.932   4.728   3.982 -0.5216  1.4095  0.3176
29899SOL    HW299628  10.825   4.800   3.902  0.5304  1.8246 -0.7513
29900SOL     OW99629   7.796  10.569  12.061  0.1465 -0.0225 -0.1471
29900SOL    HW199630   7.757  10.657  12.060  0.7408  0.2421 -0.1101
29900SOL    HW299631   7.732  10.515  12.109 -0.4122  0.2953 -0.5205
29901SOL     OW99632   3.272   9.865  10.915 -0.2831  0.2618  0.0200
29901SOL    HW199633   3.304   9.848  11.003  0.8380  1.5096 -0.1128
29901SOL    HW299634   3.341   9.833  10.857 -1.3744 -1.3285 -0.4771
29902SOL     OW99635   4.702   1.402   5.589  0.2429 -0.2760 -0.5531
29902SOL    HW199636   4.643   1.346   5.538 -1.0875 -0.3381  0.9671
29902SOL    HW299637   4.646   1.472   5.620  1.6520  1.3422 -1.4954
29903SOL     OW99638   5.781   8.929   4.984 -0.2930  0.0839 -0.3033
29903SOL    HW199639   5.749   8.915   5.073 -0.9398 -1.8528 -0.8002
29903SOL    HW299640   5.874   8.949   4.995 -0.1751 -0.9865  0.7590
29904SOL     OW99641  12.664   6.776   6.241  0.3445 -0.1261 -0.7655
29904SOL    HW199642  12.624   6.701   6.197  0.9075 -1.6078  1.1192
29904SOL    HW299643  12.601   6.799   6.310  1.0240 -0.0902 -0.1438
29905SOL     OW99644   7.467  10.938  12.169  0.4332 -0.3373  0.0412
29905SOL    HW199645   7.464  10.867  12.104 -0.8324 -0.5383  0.3083
29905SOL    HW299646   7.399  10.998  12.141  0.3937 -0.0464  0.7677
29906SOL     OW99647   2.794   1.803   9.939 -0.3950 -0.0943 -0.3185
29906SOL    HW199648   2.708   1.767   9.916 -1.0271  1.3222 -0.3307
29906SOL    HW299649   2.780   1.898   9.938  1.0211  0.1378  0.3101
29907SOL     OW99650  12.678   9.236   7.196  0.0403  0.3139  0.0785
29907SOL    HW199651  12.669   9.162   7.257  0.9183  1.2629  1.4183
29907SOL    HW299652  12.757   9.217   7.147  0.1486  0.2635  0.2724
29908SOL     OW99653  12.504   9.874   6.142 -0.2297  0.1042 -0.0912
29908SOL    HW199654  12.593   9.897   6.116 -0.7580  0.2140 -1.9819
29908SOL    HW299655  12.479   9.804   6.081 -1.0282 -0.7667  1.1820
29909SOL     OW99656   2.773   3.871  10.132 -0.0501 -0.0542 -0.5385
29909SOL    HW199657   2.820   3.896  10.052 -0.6578 -0.5917 -1.0763
29909SOL    HW299658   2.682   3.858  10.104 -0.7314  1.8159  0.6440
29910SOL     OW99659   3.823   4.015  11.025 -0.2112 -0.3175 -0.1119
29910SOL    HW199660   3.799   3.956  10.953  0.9113  0.1450 -0.9044
29910SOL    HW299661   3.742   4.060  11.048 -0.7707 -1.1266 -0.4852
29911SOL     OW99662   1.878   4.037   4.483  0.2276 -0.2158 -0.3068
29911SOL    HW199663   1.872   4.092   4.561 -0.6768  1.5053 -1.5236
29911SOL    HW299664   1.933   4.087   4.423 -2.8945  0.8893 -2.5191
29912SOL     OW99665   2.566  10.497  10.066  0.9790  0.0875 -0.3930
29912SOL    HW199666   2.473  10.476  10.062  0.3828 -0.0312  5.5152
29912SOL    HW299667   2.609  10.411  10.073  1.2786  0.2144 -0.6700
29913SOL     OW99668   7.026   5.996   0.359  0.1028  0.0822  0.2937
29913SOL    HW199669   6.937   6.014   0.330 -0.5812 -2.2538  0.7015
29913SOL    HW299670   7.080   6.013   0.282 -0.8740  0.1169 -0.4036
29914SOL     OW99671  10.006   8.309   0.387 -0.4040 -0.2706  0.1127
29914SOL    HW199672  10.024   8.272   0.300 -0.2994 -0.0493  0.0405
29914SOL    HW299673   9.915   8.287   0.404 -0.6991  0.4971 -0.4511
29915SOL     OW99674  10.684  12.545   4.612 -0.2148  0.1937  0.5186
29915SOL    HW199675  10.654  12.474   4.555  0.5098 -1.1443  1.7130
29915SOL    HW299676  10.679  12.624   4.559 -0.7029 -0.8213 -0.9815
29916SOL     OW99677   1.011   2.323   3.654  0.1912  0.2911  0.1771
29916SOL    HW199678   1.091   2.327   3.707  0.3780 -1.1934  0.0625
29916SOL    HW299679   0.980   2.413   3.650  2.0368  0.9734 -0.0221
29917SOL     OW99680  11.256   1.696   6.720 -0.0686 -0.0801  0.3571
29917SOL    HW199681  11.242   1.641   6.644 -1.5730  1.0509 -0.2400
29917SOL    HW299682  11.182   1.757   6.720  0.3997  0.5735  2.1762
29918SOL     OW99683   0.261  10.997   5.788 -0.1204  0.2669  0.3095
29918SOL    HW199684   0.210  10.919   5.810 -0.9970  1.2668  2.0372
29918SOL    HW299685   0.306  11.020   5.870  0.8418  1.0650 -0.4219
29919SOL     OW99686   6.824   3.825   1.838 -0.4237  0.2567  0.3506
29919SOL    HW199687   6.735   3.842   1.808 -1.2261  0.5698  2.7515
29919SOL    HW299688   6.875   3.819   1.757 -2.8347 -1.4387 -1.1809
29920SOL     OW99689   2.082   1.732   8.427  0.5665  0.3981  0.4285
29920SOL    HW199690   2.003   1.689   8.460  0.8214  0.2093  0.8027
29920SOL    HW299691   2.089   1.812   8.479 -1.1878  2.1440 -1.8061
29921SOL     OW99692   3.474  10.392   5.073 -0.1200  0.0446 -0.0903
29921SOL    HW199693   3.501  10.449   5.145 -1.1554  1.1500 -0.5429
29921SOL    HW299694   3.382  10.371   5.093 -0.3765  0.2618 -1.0248
29922SOL     OW99695   5.256   0.847  11.494 -0.4444 -0.1106  0.1740
29922SOL    HW199696   5.293   0.759  11.504  1.7509  0.4262 -2.1405
29922SOL    HW299697   5.181   0.835  11.436  0.0553 -0.4170 -0.4111
29923SOL     OW99698   1.967   9.034  12.336 -0.5429  0.4338 -0.4914
29923SOL    HW199699   2.043   9.093  12.340 -0.3107  0.0696  0.7761
29923SOL    HW299700   1.962   9.009  12.244  2.1139 -1.0904 -0.3477
29924SOL     OW99701   5.959  12.798   0.240 -0.0640 -0.0688 -0.5505
29924SOL    HW199702   5.902  12.760   0.174 -0.1987 -2.2655  0.7543
29924SOL    HW299703   6.013  12.725   0.271  1.5874  1.3741  0.1777
29925SOL     OW99704   2.673  12.025   6.247  0.3735  0.2514 -0.3074
29925SOL    HW199705   2.718  12.107   6.228 -0.9813  0.7222 -1.7370
29925SOL    HW299706   2.598  12.050   6.301  0.9590 -0.3160  0.8005
29926SOL     OW99707   9.144   0.202   7.373 -0.1191 -0.1872  0.5566
29926SOL    HW199708   9.213   0.268   7.368  0.1979 -0.5256  0.4040
29926SOL    HW299709   9.187   0.119   7.350 -0.8799 -0.1905 -1.0791
29927SOL     OW99710   7.619   1.760   4.586 -0.5475 -0.2732 -0.2081
29927SOL    HW199711   7.591   1.702   4.515 -1.5625  0.7123 -0.6413
29927SOL    HW299712   7.672   1.704   4.643 -2.3473 -1.9144 -0.0390
29928SOL     OW99713   5.800   8.304   4.820  0.9274  0.1622  0.1838
29928SOL    HW199714   5.808   8.297   4.916  1.3451 -0.3234  0.1207
29928SOL    HW299715   5.783   8.396   4.805 -1.0157 -0.0535  0.8390
29929SOL     OW99716   6.731   1.145   5.821  0.5468 -0.6707 -0.6311
29929SOL    HW199717   6.645   1.185   5.832  1.9553  2.6509 -0.2306
29929SOL    HW299718   6.729   1.107   5.733 -0.8436  0.7452 -1.2666
29930SOL     OW99719  12.747   0.598  12.132 -0.3855  0.2452 -0.0622
29930SOL    HW199720  12.834   0.637  12.123 -0.6063  0.7168 -0.1734
29930SOL    HW299721  12.763   0.515  12.176  0.0047  0.8638  1.0021
29931SOL     OW99722   5.851  10.788   1.939  0.1988 -0.2200 -0.5184
29931SOL    HW199723   5.910  10.741   1.998  0.2167  0.7057  0.2046
29931SOL    HW299724   5.860  10.742   1.855  1.7741 -0.2332 -0.3636
29932SOL     OW99725   8.766   7.732   9.567 -0.0004 -0.1119  0.5276
29932SOL    HW199726   8.779   7.683   9.648 -0.6137  0.8414  1.2257
29932SOL    HW299727   8.816   7.813   9.580 -2.4057  1.3558  1.1928
29933SOL     OW99728  12.039   5.060   1.473  0.0304 -0.1838 -0.1059
29933SOL    HW199729  11.977   5.132   1.463 -0.5779 -0.5062  1.0936
29933SOL    HW299730  11.994   4.985   1.434 -0.5993 -0.5340  1.2214
29934SOL     OW99731  12.537  13.204  10.290  0.4083 -0.4973 -0.5255
29934SOL    HW199732  12.596  13.271  10.255  0.6601  0.3426  1.3777
29934SOL    HW299733  12.449  13.240  10.277  0.4908 -0.2778 -0.4774
29935SOL     OW99734   0.887   3.084  12.851  0.4369 -0.0994 -0.1138
29935SOL    HW199735   0.933   3.107  12.931 -1.0214  1.0188  0.4613
29935SOL    HW299736   0.860   2.993  12.864 -0.3910  0.2779  1.0137
29936SOL     OW99737  12.812   5.509   9.893  0.5267  0.4088  0.0172
29936SOL    HW199738  12.726   5.539   9.924 -0.2403  0.0898 -1.6937
29936SOL    HW299739  12.793   5.430   9.842  1.9998 -0.3764  0.5956
29937SOL     OW99740   1.589   3.343   4.042 -0.6410  0.4360  0.5601
29937SOL    HW199741   1.616   3.295   4.120  0.2191  0.8564  0.5310
29937SOL    HW299742   1.561   3.275   3.981 -0.2521  0.0265  0.8332
29938SOL     OW99743   5.592  13.181  10.653 -0.3981  0.0853 -0.2966
29938SOL    HW199744   5.583  13.106  10.594 -0.5318 -0.3184  0.2351
29938SOL    HW299745   5.514  13.234  10.635 -0.4159 -0.0128 -0.5137
29939SOL     OW99746  12.869   0.494   4.430  0.1423  0.7731  0.8050
29939SOL    HW199747  12.840   0.551   4.359 -0.0150 -2.8816 -2.4098
29939SOL    HW299748  12.791   0.481   4.484 -1.4880 -0.6634 -1.6818
29940SOL     OW99749   5.979   3.904  13.162  0.7431 -0.2987 -0.2095
29940SOL    HW199750   5.899   3.925  13.114  0.4340  0.2267  0.5167
29940SOL    HW299751   6.044   3.886  13.094  0.6914  1.7951 -0.8718
29941SOL     OW99752   7.802   8.584   0.753  0.2556  0.2534 -0.4210
29941SOL    HW199753   7.736   8.549   0.814 -0.4580  1.3701 -0.5181
29941SOL    HW299754   7.843   8.506   0.716  0.5067 -0.4722  1.2513
29942SOL     OW99755   4.258   4.963   1.151  0.0358  0.0669  0.0902
29942SOL    HW199756   4.204   5.000   1.081 -1.0356  0.2977  1.0016
29942SOL    HW299757   4.195   4.921   1.210  1.1014 -2.2687 -0.3230
29943SOL     OW99758   7.000   4.442   1.116  0.2438  0.0806 -0.9178
29943SOL    HW199759   7.087   4.445   1.157 -0.7490  0.8652  1.3149
29943SOL    HW299760   6.983   4.349   1.102  0.7739 -0.2007  0.1834
29944SOL     OW99761   0.893   8.401   4.417 -0.0529 -0.2043  0.4433
29944SOL    HW199762   0.827   8.332   4.413 -1.1274  0.8365 -1.8261
29944SOL    HW299763   0.883   8.438   4.504  0.9713 -3.1955  1.9633
29945SOL     OW99764  10.235   9.382   0.627 -0.2538  0.6182 -0.2446
29945SOL    HW199765  10.315   9.410   0.582  0.1208  0.6083  0.4075
29945SOL    HW299766  10.168   9.441   0.593  0.1187  0.9286 -0.4590
29946SOL     OW99767   8.015   2.093   9.931  0.2281  0.1258  0.2871
29946SOL    HW199768   8.051   2.077  10.018 -0.7890  0.0642  0.7166
29946SOL    HW299769   7.925   2.122   9.947 -0.4133 -1.1270 -0.7730
29947SOL     OW99770   2.516  11.481   3.820  0.7392 -0.0227  0.2650
29947SOL    HW199771   2.539  11.550   3.758 -2.1101 -0.9027 -1.9681
29947SOL    HW299772   2.547  11.400   3.779 -3.0007 -0.8641 -1.3065
29948SOL     OW99773   4.518   5.553  11.459 -0.9925 -0.7885 -0.6395
29948SOL    HW199774   4.553   5.622  11.403 -1.2553  0.0698  0.2376
29948SOL    HW299775   4.572   5.476  11.438 -0.2062 -0.1311 -1.0844
29949SOL     OW99776   2.008   2.708   5.453  0.2704 -0.0080  0.2382
29949SOL    HW199777   2.067   2.650   5.500  0.2473 -0.2353 -0.0059
29949SOL    HW299778   2.065   2.771   5.409  0.2370  1.0444  1.6368
29950SOL     OW99779   0.756   4.814   3.897  0.2058 -0.0599 -0.2667
29950SOL    HW199780   0.811   4.806   3.819 -0.9782 -0.1232 -1.1186
29950SOL    HW299781   0.747   4.725   3.930 -0.3778 -0.2224 -0.8421
29951SOL     OW99782  10.938  12.323   2.509  0.4324  0.4884  0.6063
29951SOL    HW199783  10.897  12.312   2.423 -2.4269  2.1007  1.6313
29951SOL    HW299784  11.015  12.377   2.492  0.1932  0.3922 -0.9800
29952SOL     OW99785   3.094   3.422   7.333  0.3500 -0.1769  0.2734
29952SOL    HW199786   3.167   3.423   7.271 -1.0604  0.0257 -1.4432
29952SOL    HW299787   3.058   3.334   7.328 -0.7785  0.2967 -0.4737
29953SOL     OW99788   6.091  12.020   8.422 -1.0282  0.0605 -0.2486
29953SOL    HW199789   6.133  12.045   8.504  0.2201  1.4985 -1.2748
29953SOL    HW299790   6.059  11.931   8.437  0.3203 -0.1919  1.3681
29954SOL     OW99791   3.345   5.553   3.674  0.0213  0.0307  0.5240
29954SOL    HW199792   3.302   5.501   3.742  0.0759 -0.2119  0.3744
29954SOL    HW299793   3.274   5.593   3.625 -0.2353 -2.8682 -1.7422
29955SOL     OW99794   5.071   4.471   9.411  0.8939 -0.3194 -0.5691
29955SOL    HW199795   4.995   4.421   9.444  0.5768 -0.4638 -1.4803
29955SOL    HW299796   5.119   4.496   9.490  0.8850 -1.7860 -0.0536
29956SOL     OW99797  10.937   0.425   6.881 -0.1612 -0.3313  0.2694
29956SOL    HW199798  10.866   0.489   6.886  0.4320  0.5150 -1.2860
29956SOL    HW299799  10.901   0.345   6.919 -1.5015  0.4354  0.6778
29957SOL     OW99800   2.385   2.636   6.286 -0.2346 -0.6576  0.8200
29957SOL    HW199801   2.319   2.567   6.290 -0.8222 -0.0736  1.4775
29957SOL    HW299802   2.434   2.627   6.368 -0.4309 -0.1904  0.9925
29958SOL     OW99803   9.322   5.729  12.483 -0.4690  0.5657 -0.4812
29958SOL    HW199804   9.267   5.773  12.548 -1.6219 -0.1949 -0.9286
29958SOL    HW299805   9.353   5.800  12.426 -0.1403  1.1218  0.3680
29959SOL     OW99806   9.547  12.825  10.676  0.2371 -0.2270 -0.0715
29959SOL    HW199807   9.557  12.788  10.589 -1.0039 -0.2817 -0.1981
29959SOL    HW299808   9.583  12.758  10.735  2.1152  0.2670 -0.5723
29960SOL     OW99809   0.736  11.041  12.765 -0.0502  0.0403  0.6172
29960SOL    HW199810   0.652  10.995  12.757 -0.7441  1.0031  1.9342
29960SOL    HW299811   0.732  11.083  12.850  1.5843  0.5352  0.4862
29961SOL     OW99812   8.358  11.088   2.279 -0.9084 -0.2024  0.1829
29961SOL    HW199813   8.447  11.056   2.298 -1.3305 -0.1619  2.5203
29961SOL    HW299814   8.321  11.022   2.221  0.7131 -0.0741 -1.0859
29962SOL     OW99815   2.384   2.043   7.748  0.4858  0.1318  0.9170
29962SOL    HW199816   2.364   2.122   7.697  0.3947  0.6473  1.7437
29962SOL    HW299817   2.477   2.027   7.732  0.3335 -0.0520  0.1339
29963SOL     OW99818   2.566   2.906   5.942 -0.3322  0.5906 -0.2753
29963SOL    HW199819   2.507   2.962   5.993 -0.8287 -0.6897  0.6031
29963SOL    HW299820   2.606   2.965   5.879 -2.8387  1.4876 -1.1672
29964SOL     OW99821   6.511   9.961  13.253  0.2882  0.3426 -0.1556
29964SOL    HW199822   6.455   9.912  13.192  0.5191  0.1396 -0.2024
29964SOL    HW299823   6.582   9.901  13.274  0.6378  0.6994 -0.3089
29965SOL     OW99824   2.141   0.117   5.294  0.0533  0.5261  0.2377
29965SOL    HW199825   2.218   0.075   5.332  0.3247 -0.0004 -0.8550
29965SOL    HW299826   2.079   0.046   5.282 -0.7276  0.9883  1.3546
29966SOL     OW99827   7.328   7.509   3.552  0.0921  0.5289 -0.5571
29966SOL    HW199828   7.376   7.525   3.634  2.4626 -0.2344 -1.6942
29966SOL    HW299829   7.240   7.484   3.580  0.9493 -0.1232  1.7735
29967SOL     OW99830   1.314   5.301   6.099  0.2595 -0.0165 -0.1082
29967SOL    HW199831   1.259   5.308   6.021  0.7375  0.1159 -0.4357
29967SOL    HW299832   1.394   5.257   6.069  0.0625 -0.8287  0.5044
29968SOL     OW99833   0.718  13.032   3.407  0.0581 -0.0094 -0.5910
29968SOL    HW199834   0.635  13.050   3.452 -1.6273 -2.8513 -2.2421
29968SOL    HW299835   0.752  13.118   3.383 -1.4971  1.3200  1.6397
29969SOL     OW99836   6.751   9.053  11.393 -0.1031 -0.4901  0.3448
29969SOL    HW199837   6.805   9.038  11.470  2.1398 -1.3025 -1.2877
29969SOL    HW299838   6.747   8.968  11.350  0.4894  0.3838 -1.5239
29970SOL     OW99839   9.909   3.394   4.609 -0.4341 -1.0502 -0.1154
29970SOL    HW199840   9.916   3.367   4.518  0.4282 -2.3690  0.3327
29970SOL    HW299841   9.869   3.319   4.654 -0.9831 -0.3629  0.5840
29971SOL     OW99842   9.771   1.813   4.391  0.5478  0.5311 -0.4748
29971SOL    HW199843   9.859   1.785   4.418  0.1637  0.5424  0.8644
29971SOL    HW299844   9.743   1.747   4.328  1.1876  0.0465 -0.2661
29972SOL     OW99845  11.358  11.772  11.298  0.5081 -0.4380  0.2247
29972SOL    HW199846  11.279  11.804  11.255 -0.1224 -1.0442  0.9049
29972SOL    HW299847  11.399  11.850  11.334 -0.2942 -0.2202  0.6924
29973SOL     OW99848   0.545   1.366   6.082  0.2943 -0.8762  0.2248
29973SOL    HW199849   0.535   1.275   6.055  0.5498 -0.5766 -0.9167
29973SOL    HW299850   0.472   1.412   6.041 -0.4476 -0.7181  1.6403
29974SOL     OW99851  10.754   1.408   4.804  0.7178 -0.3295  0.0667
29974SOL    HW199852  10.697   1.336   4.829 -0.5452  0.1261 -1.4090
29974SOL    HW299853  10.723   1.482   4.856  0.7861 -0.3709  0.1686
29975SOL     OW99854   4.390   7.877   4.673 -0.6272  0.2410 -0.0415
29975SOL    HW199855   4.411   7.970   4.675  1.7123 -0.2303  0.2730
29975SOL    HW299856   4.369   7.859   4.581  0.9443  0.7223 -0.5356
29976SOL     OW99857   1.298  10.596   8.405 -0.2888 -0.2086  0.4071
29976SOL    HW199858   1.318  10.675   8.355 -0.7607  0.0100  0.5534
29976SOL    HW299859   1.366  10.591   8.472  1.2081 -1.2748 -1.0889
29977SOL     OW99860  11.169   4.783   1.414  0.2233  0.2614 -0.3745
29977SOL    HW199861  11.221   4.764   1.337 -0.2192  1.8128 -1.1003
29977SOL    HW299862  11.233   4.805   1.482  0.5665  1.7523 -1.1391
29978SOL     OW99863  11.997   2.950  12.315  0.3748  0.6129  0.2829
29978SOL    HW199864  11.959   3.017  12.257  1.6983  1.6694  0.6025
29978SOL    HW299865  12.091   2.961  12.306  0.8493 -3.3652 -2.1853
29979SOL     OW99866   6.114   5.889   4.112  0.4622 -0.2877 -0.2680
29979SOL    HW199867   6.207   5.907   4.098  0.8549 -2.7518 -1.5669
29979SOL    HW299868   6.071   5.925   4.034  0.4125  0.2834  0.0219
29980SOL     OW99869   5.999   6.843   2.621  0.4129  0.1975  0.1994
29980SOL    HW199870   5.942   6.820   2.694 -0.5294 -0.4015 -0.7069
29980SOL    HW299871   6.058   6.768   2.612 -0.7395 -0.6261 -0.8658
29981SOL     OW99872   4.891  12.712   2.041  0.1232 -0.8183  0.1741
29981SOL    HW199873   4.905  12.693   2.134 -0.2637 -2.4779 -0.0750
29981SOL    HW299874   4.962  12.665   1.996 -0.0718 -0.5601 -0.4132
29982SOL     OW99875  11.663   6.066   9.891  0.1421  0.0157 -0.4131
29982SOL    HW199876  11.753   6.090   9.910 -0.5612  0.4731  3.0639
29982SOL    HW299877  11.657   5.973   9.913 -0.3803  0.1744  0.1544
29983SOL     OW99878  12.449  10.755   7.096  0.2467  0.1412 -0.0094
29983SOL    HW199879  12.385  10.825   7.103  0.4213  0.1694  1.5498
29983SOL    HW299880  12.496  10.774   7.014 -1.0932  0.6341 -0.6903
29984SOL     OW99881  12.485  13.033   8.523 -0.4980 -0.3759 -0.1259
29984SOL    HW199882  12.416  13.022   8.457  0.0763 -2.8992 -0.4135
29984SOL    HW299883  12.438  13.060   8.602 -1.6162 -0.5101 -0.7213
29985SOL     OW99884   7.654   7.123   5.862  0.1920 -0.0963 -0.0377
29985SOL    HW199885   7.594   7.077   5.803  0.4609 -0.4144 -0.0669
29985SOL    HW299886   7.614   7.209   5.874 -0.3531 -0.3617  0.0714
29986SOL     OW99887   6.091   0.239   9.743  0.3276  0.1884 -0.2024
29986SOL    HW199888   6.110   0.324   9.702  1.2929  0.1833  0.2030
29986SOL    HW299889   6.111   0.175   9.675 -0.1013  0.2725 -0.4083
29987SOL     OW99890   7.442  11.857   7.136 -0.2690 -0.1730  0.0013
29987SOL    HW199891   7.350  11.844   7.157 -0.9907  2.5849 -0.9723
29987SOL    HW299892   7.482  11.771   7.146 -2.6698 -1.1973  1.7079
29988SOL     OW99893   9.396   8.452   0.489  0.4706 -0.2788  0.1483
29988SOL    HW199894   9.321   8.486   0.538  1.1968 -1.0941  1.9097
29988SOL    HW299895   9.416   8.369   0.531  0.8709 -1.2395 -1.8635
29989SOL     OW99896  12.897   3.085  10.109 -0.2351 -0.0125  0.6547
29989SOL    HW199897  12.992   3.079  10.101 -0.1558  1.5560  0.2483
29989SOL    HW299898  12.882   3.111  10.199 -0.0986  2.5705 -0.0035
29990SOL     OW99899   7.487   7.717   0.976 -0.1757 -0.1437 -0.5745
29990SOL    HW199900   7.568   7.755   0.940 -0.7088 -0.4974 -2.2716
29990SOL    HW299901   7.517   7.653   1.040  0.7916  1.7500  0.9577
29991SOL     OW99902   0.926   1.251   2.284  0.1371 -0.4110 -0.2393
29991SOL    HW199903   0.917   1.251   2.380 -1.0189  0.6732 -0.3269
29991SOL    HW299904   1.008   1.298   2.269 -1.0536  1.9576  0.1751
29992SOL     OW99905   5.958   3.311   7.622 -0.0591  0.4651  0.4786
29992SOL    HW199906   5.863   3.302   7.618 -0.1007  1.1378 -0.5507
29992SOL    HW299907   5.990   3.221   7.616 -0.6130  0.3403 -1.0712
29993SOL     OW99908   2.784   0.763   7.033 -0.7222  0.4079 -0.7985
29993SOL    HW199909   2.731   0.792   7.107  1.0081 -0.1860  0.7780
29993SOL    HW299910   2.753   0.675   7.014 -1.2611  0.6116 -0.8874
29994SOL     OW99911   0.366  11.298   6.996 -0.2997  0.3798  0.1337
29994SOL    HW199912   0.314  11.361   6.947 -1.1493  0.2980  0.8888
29994SOL    HW299913   0.425  11.351   7.049 -0.8082  0.5455  0.5465
29995SOL     OW99914  13.146  10.280   4.332  0.4600 -0.1698 -0.6034
29995SOL    HW199915  13.136  10.365   4.290 -0.3100 -0.2633 -0.6227
29995SOL    HW299916  13.075  10.277   4.396  0.4954 -0.7913 -0.5905
29996SOL     OW99917   3.386  11.434  12.183 -0.4072 -0.2458 -0.7662
29996SOL    HW199918   3.450  11.485  12.133  1.3031 -1.3729  0.1855
29996SOL    HW299919   3.431  11.353  12.205 -1.9369 -0.8019  0.5376
29997SOL     OW99920   0.709   3.809   6.226 -0.2108 -0.1635 -0.4516
29997SOL    HW199921   0.676   3.793   6.138  1.4955 -1.0915 -0.9699
29997SOL    HW299922   0.635   3.790   6.284 -1.6862  1.4637 -1.6803
29998SOL     OW99923   5.092   6.317   1.226  0.5718  0.4226 -0.0951
29998SOL    HW199924   5.060   6.389   1.171  1.0633  0.1287 -0.7914
29998SOL    HW299925   5.022   6.252   1.225  0.0506  0.9568  0.6848
29999SOL     OW99926   7.196  13.016  10.296 -0.1693 -0.0672  0.5024
29999SOL    HW199927   7.216  13.085  10.233 -0.7349  1.2046  1.6757
29999SOL    HW299928   7.281  12.985  10.326  0.0933 -0.2777 -0.4243
30000SOL     OW99929   9.625   2.325  10.489 -0.3044  0.1856 -0.9519
30000SOL    HW199930   9.605   2.418  10.501  1.0501  0.4187 -0.2352
30000SOL    HW299931   9.690   2.306  10.557 -1.7631 -1.7187 -0.0024
30001SOL     OW99932  10.634  12.294  11.001 -0.1215  0.2331 -0.4390
30001SOL    HW199933  10.684  12.220  11.035 -1.8186 -1.2575 -1.0675
30001SOL    HW299934  10.630  12.356  11.073  0.8252 -0.5418  0.3038
30002SOL     OW99935   3.157   8.399   8.841 -1.4284 -0.0379 -0.1036
30002SOL    HW199936   3.106   8.440   8.771 -1.0884  0.4585 -0.0670
30002SOL    HW299937   3.101   8.328   8.873 -1.7853  0.0342 -0.5556
30003SOL     OW99938  12.600   3.077  10.788 -0.1566 -0.3739  0.2900
30003SOL    HW199939  12.554   3.077  10.705  1.4536  0.3188 -0.6513
30003SOL    HW299940  12.559   3.148  10.838 -0.4939 -0.1531 -0.2944
30004SOL     OW99941  11.775   4.109   4.679 -0.1649 -0.1224 -0.1912
30004SOL    HW199942  11.799   4.200   4.661 -0.0046 -0.0639  0.3067
30004SOL    HW299943  11.686   4.101   4.646 -0.0157  0.0886 -0.6485
30005SOL     OW99944   9.975   6.414   4.631 -0.3037  0.0793 -0.7424
30005SOL    HW199945   9.952   6.377   4.717  0.4641  0.5781 -0.3081
30005SOL    HW299946   9.944   6.505   4.635 -0.9755 -0.1211 -1.2954
30006SOL     OW99947   3.803  10.125   0.869  0.6387 -0.1055 -0.1510
30006SOL    HW199948   3.755  10.048   0.838  0.4027  0.1002 -0.3021
30006SOL    HW299949   3.743  10.198   0.854  0.8285  0.0982  0.0698
30007SOL     OW99950   0.525   4.442   4.321 -0.4997 -0.3601  0.3028
30007SOL    HW199951   0.498   4.531   4.344 -0.9305  0.5348 -3.0971
30007SOL    HW299952   0.621   4.443   4.326 -0.3096  1.1731 -2.0595
30008SOL     OW99953   9.970   8.586   7.526 -0.4816 -0.4528 -0.0582
30008SOL    HW199954  10.053   8.632   7.523  0.0177 -1.3631 -0.8467
30008SOL    HW299955   9.980   8.514   7.463 -1.4518 -1.2514  0.6587
30009SOL     OW99956   1.289   5.857   8.057 -0.3428  0.1222 -0.8699
30009SOL    HW199957   1.244   5.864   7.973 -1.1900  0.5668 -0.3990
30009SOL    HW299958   1.237   5.793   8.106  0.4958 -0.5945 -0.8933
30010SOL     OW99959  12.409  12.331   7.367 -0.0830 -0.3447  0.5039
30010SOL    HW199960  12.483  12.315   7.308  0.4596  0.0727  1.0499
30010SOL    HW299961  12.334  12.342   7.309  1.0483  4.0876 -0.5161
30011SOL     OW99962  12.116   6.493   9.817 -0.2214 -0.4333  0.1712
30011SOL    HW199963  12.191   6.507   9.761  0.4158 -0.3519  1.0194
30011SOL    HW299964  12.151   6.449   9.895 -1.2971 -1.8052 -0.0711
30012SOL     OW99965  13.029   9.713  12.433  0.0363  0.1736  0.5043
30012SOL    HW199966  13.060   9.782  12.492 -1.2955  0.3028  1.0826
30012SOL    HW299967  12.946   9.684  12.471  0.5476 -1.7559  0.2830
30013SOL     OW99968   7.912   7.637   2.414 -0.3085 -0.3793  0.7510
30013SOL    HW199969   7.880   7.595   2.334  0.4827 -0.2552  0.3525
30013SOL    HW299970   7.938   7.564   2.471  1.1802 -0.4734  0.0118
30014SOL     OW99971   2.372   5.032   9.014 -0.1076  0.0946 -0.0731
30014SOL    HW199972   2.397   5.018   9.106 -2.7207 -0.8257  0.5778
30014SOL    HW299973   2.455   5.042   8.968  1.2890  1.7906  2.5398
30015SOL     OW99974   4.172  10.555   4.420 -0.2821  0.3581  0.7009
30015SOL    HW199975   4.145  10.488   4.357 -0.6203  0.2983  0.9089
30015SOL    HW299976   4.173  10.636   4.369  2.6077 -0.1440 -0.2279
30016SOL     OW99977   5.999   3.585  10.116  0.5223 -0.3235  0.2034
30016SOL    HW199978   6.055   3.638  10.173  1.0562 -1.0895  0.3945
30016SOL    HW299979   6.057   3.551  10.049  0.1336 -0.4916 -0.0511
30017SOL     OW99980   2.694   9.909   1.746  0.1645 -0.1699  0.5009
30017SOL    HW199981   2.763   9.846   1.769 -0.4207 -1.4873 -1.1022
30017SOL    HW299982   2.734   9.964   1.679 -0.8767 -2.4103 -2.1925
30018SOL     OW99983  10.036  10.387   5.020 -1.0862 -0.1832 -0.1960
30018SOL    HW199984  10.102  10.379   4.950 -2.3313 -0.5158 -1.3730
30018SOL    HW299985  10.041  10.479   5.046  0.8113 -0.4928  0.7623
30019SOL     OW99986   7.554   4.420   3.645 -0.2408 -0.1252 -0.2986
30019SOL    HW199987   7.520   4.453   3.561 -2.2861 -0.1804  0.4575
30019SOL    HW299988   7.518   4.479   3.710  1.1648 -0.2102  0.5969
30020SOL     OW99989  11.546   4.445   2.330 -0.4992  0.3608  0.3196
30020SOL    HW199990  11.592   4.404   2.257  2.3951  0.0603  2.1207
30020SOL    HW299991  11.500   4.519   2.291  1.2295  0.4232 -1.7824
30021SOL     OW99992  11.379   0.105   8.890  0.0280 -0.2886  0.3921
30021SOL    HW199993  11.325   0.182   8.905 -0.3998 -0.2418 -1.1937
30021SOL    HW299994  11.432   0.097   8.970  0.9053  2.3144  0.1932
30022SOL     OW99995   9.867   6.516   8.757 -0.4783  0.1151  0.3999
30022SOL    HW199996   9.839   6.425   8.745  0.5505 -0.0396 -1.1477
30022SOL    HW299997   9.809   6.566   8.699  0.7508  0.0802 -0.9122
30023SOL     OW99998  10.771   8.205   7.211  0.8873 -0.3699  0.4649
30023SOL    HW199999  10.729   8.258   7.144 -0.0282 -1.6129  0.0313
30023SOL    HW2    0  10.773   8.117   7.175  2.0320 -0.7276  1.3298
30024SOL     OW    1   5.727   9.967   6.030  0.8194  0.3141  0.7559
30024SOL    HW1    2   5.788   9.929   5.967  1.3749  0.5046  1.1750
30024SOL    HW2    3   5.782  10.000   6.100  0.3054  1.4066  0.6614
30025SOL     OW    4  10.662   8.056   8.878  0.6675  0.7017  0.1770
30025SOL    HW1    5  10.725   8.067   8.950  1.2487  1.5686 -0.4430
30025SOL    HW2    6  10.709   8.004   8.813 -0.0005 -0.4259  0.5805
30026SOL     OW    7  12.472  10.841   5.983  0.3155  0.2867  0.4360
30026SOL    HW1    8  12.417  10.877   6.052  0.4340  1.0397  0.1467
30026SOL    HW2    9  12.428  10.866   5.902  0.6141  0.1247  0.2206
30027SOL     OW   10   7.176   0.056   7.191 -0.3156  0.2846 -0.6343
30027SOL    HW1   11   7.265   0.049   7.158 -0.0035  1.0952  0.0112
30027SOL    HW2   12   7.185   0.052   7.286 -1.2405 -2.4942 -0.5488
30028SOL     OW   13   6.295   3.065   4.671 -0.2473 -0.3032  0.4845
30028SOL    HW1   14   6.200   3.057   4.657 -0.6576  0.4592  2.4779
30028SOL    HW2   15   6.333   3.043   4.587 -2.2825  1.2408 -0.9577
30029SOL     OW   16  12.605  10.421   7.623 -0.1349  0.3353 -0.2995
30029SOL    HW1   17  12.551  10.343   7.622 -0.8214  0.8030 -1.1681
30029SOL    HW2   18  12.543  10.494   7.626  0.4989  0.8626  1.8237
30030SOL     OW   19   5.807   3.068  12.819  0.8481  0.0003  0.9233
30030SOL    HW1   20   5.878   3.022  12.773 -0.2209 -0.6221 -0.1924
30030SOL    HW2   21   5.736   3.071  12.755 -0.5580 -0.4694  2.3907
30031SOL     OW   22  12.381   7.967   9.941 -0.1438 -0.7169  0.3951
30031SOL    HW1   23  12.385   7.904  10.013  0.4287  0.5013  1.4817
30031SOL    HW2   24  12.357   8.050   9.983 -1.0542 -0.2342 -1.0156
30032SOL     OW   25   4.750  11.876   7.530  0.0140  0.6261  0.0779
30032SOL    HW1   26   4.673  11.931   7.517 -0.3887 -0.4385 -2.8122
30032SOL    HW2   27   4.818  11.917   7.477  0.6523  0.0587  0.4370
30033SOL     OW   28   9.662  10.773  10.559 -0.0341 -0.0326  0.0884
30033SOL    HW1   29   9.579  10.727  10.567  0.9614 -1.7961  1.0823
30033SOL    HW2   30   9.702  10.738  10.479  0.1936  0.0302  0.1725
30034SOL     OW   31   3.171   5.034   0.785  0.4897  0.3878  0.5520
30034SOL    HW1   32   3.211   4.967   0.841  2.1835  0.7546 -0.1623
30034SOL    HW2   33   3.105   4.987   0.735  1.9982 -0.9083 -0.3082
30035SOL     OW   34   9.142   9.221   2.566 -0.1979 -0.1797 -0.4681
30035SOL    HW1   35   9.201   9.258   2.631  0.5506  0.4544 -1.4795
30035SOL    HW2   36   9.171   9.259   2.483 -0.8772 -1.2771 -1.2278
30036SOL     OW   37   9.071   8.667   2.984 -0.2243  0.0032  0.4606
30036SOL    HW1   38   9.088   8.653   2.891  2.4685  0.2929  0.8479
30036SOL    HW2   39   8.979   8.641   2.995 -0.6394  0.0059 -2.2535
30037SOL     OW   40   7.895   9.462   1.982 -0.1240 -0.2732 -0.1802
30037SOL    HW1   41   7.911   9.382   1.932  1.4524 -0.8530  1.1674
30037SOL    HW2   42   7.894   9.434   2.074  2.8575  1.5012  0.5206
30038SOL     OW   43  12.685   8.570   0.358  0.0648 -0.7620  0.0741
30038SOL    HW1   44  12.611   8.580   0.417 -0.4095 -0.3917 -0.5701
30038SOL    HW2   45  12.651   8.593   0.271  1.3062  0.9683 -0.0189
30039SOL     OW   46   5.092   6.290  12.006  0.4191  0.0334 -0.0994
30039SOL    HW1   47   5.004   6.271  12.040  0.6461 -1.2961 -0.1739
30039SOL    HW2   48   5.147   6.222  12.044  1.3943  0.7606 -0.1803
30040SOL     OW   49  12.863   4.099  10.726 -0.1717 -0.3354  0.0469
30040SOL    HW1   50  12.876   4.157  10.650 -1.4433  0.5122  0.4372
30040SOL    HW2   51  12.945   4.104  10.774 -0.1925  1.0480 -0.0225
30041SOL     OW   52   3.364  12.795  11.603  0.3708 -0.2012 -0.7048
30041SOL    HW1   53   3.304  12.739  11.556  0.1023  1.1065 -1.9893
30041SOL    HW2   54   3.309  12.847  11.661  0.4573 -0.2526 -0.5748
30042SOL     OW   55   7.709   1.130   4.464  0.1088 -0.0023  0.0777
30042SOL    HW1   56   7.657   1.068   4.413  0.3243 -1.4290  1.5005
30042SOL    HW2   57   7.646   1.195   4.495 -1.0074 -1.9093  2.0812
30043SOL     OW   58   7.524   4.404  12.506  0.4703  0.5223  0.4954
30043SOL    HW1   59   7.524   4.487  12.459  0.0435 -0.4867 -1.3868
30043SOL    HW2   60   7.433   4.374  12.503  0.9798 -1.0490 -0.8732
30044SOL     OW   61  10.065  11.787  10.209 -0.6693  0.2012 -0.4078
30044SOL    HW1   62  10.100  11.873  10.233  1.5635 -0.7178 -0.1026
30044SOL    HW2   63   9.987  11.777  10.263  0.0117  1.3075  0.8349
30045SOL     OW   64   2.184  11.630   6.140  0.3137 -0.1274  0.1048
30045SOL    HW1   65   2.214  11.626   6.050 -0.0478  0.9186 -0.0705
30045SOL    HW2   66   2.248  11.686   6.185  0.0776 -0.0227  0.3189
30046SOL     OW   67  12.039   5.464  10.374 -0.0806 -0.2578 -0.1691
30046SOL    HW1   68  12.050   5.402  10.446 -3.1378 -2.2356 -1.2234
30046SOL    HW2   69  12.099   5.536  10.395 -0.7956 -0.6901  4.3550
30047SOL     OW   70   2.201   2.734  11.949 -0.1943  0.0706  0.3105
30047SOL    HW1   71   2.291   2.737  11.981  0.4781 -0.2870 -1.4449
30047SOL    HW2   72   2.208   2.753  11.855 -1.9427 -0.0364  0.1255
30048SOL     OW   73  10.148   8.093  10.572 -0.3616 -1.0128  0.3039
30048SOL    HW1   74  10.160   8.129  10.484 -0.7832 -0.6954  0.3682
30048SOL    HW2   75  10.056   8.112  10.593  0.2422  0.7302  1.6178
30049SOL     OW   76   0.113   9.916  10.538 -0.1067  0.1291 -0.0600
30049SOL    HW1   77   0.029   9.884  10.568  0.2511 -0.8439 -0.0855
30049SOL    HW2   78   0.153   9.842  10.492  1.3078  0.1451  1.0506
30050SOL     OW   79   4.534   3.716   6.863 -0.5062 -0.1888  0.6082
30050SOL    HW1   80   4.538   3.692   6.956 -1.1931  0.8436  0.9140
30050SOL    HW2   81   4.584   3.797   6.858  0.4498 -0.8081 -0.1313
30051SOL     OW   82   2.771   6.500   8.328  0.4125 -0.2830 -0.3644
30051SOL    HW1   83   2.803   6.573   8.380  0.1706  0.5639 -1.3659
30051SOL    HW2   84   2.732   6.440   8.392 -0.3150  0.9520  0.3958
30052SOL     OW   85   5.799   5.425  10.940 -0.0789  0.5335 -0.0086
30052SOL    HW1   86   5.734   5.358  10.919 -0.8492  0.9662  0.9040
30052SOL    HW2   87   5.865   5.417  10.872 -2.1300  1.4624 -2.2247
30053SOL     OW   88   8.503  10.611   0.619  0.9563 -0.1665 -0.3479
30053SOL    HW1   89   8.590  10.574   0.606  1.0429  0.1898 -0.8340
30053SOL    HW2   90   8.518  10.699   0.654  0.7463 -0.6303  0.9526
30054SOL     OW   91   4.810   5.215   1.231 -0.2797  0.2962 -0.4097
30054SOL    HW1   92   4.745   5.201   1.300  1.9141  0.3044  1.8035
30054SOL    HW2   93   4.833   5.307   1.239 -0.8287  0.6069 -2.0242
30055SOL     OW   94   3.248  12.662   8.512 -0.3496 -0.0445 -0.2366
30055SOL    HW1   95   3.188  12.728   8.546 -0.1133 -1.4348  3.1926
30055SOL    HW2   96   3.331  12.679   8.557  0.5009 -1.0260 -1.3623
30056SOL     OW   97   5.516   8.822   8.227 -0.0211 -0.2257 -0.1566
30056SOL    HW1   98   5.528   8.730   8.206 -1.0866 -0.7464  1.3527
30056SOL    HW2   99   5.430   8.844   8.191  0.2964  0.2386 -0.6541
30057SOL     OW  100   0.595   2.746  11.045  0.3443 -0.3808 -0.2393
30057SOL    HW1  101   0.574   2.834  11.013  2.0481 -0.3400 -1.3313
30057SOL    HW2  102   0.654   2.710  10.980  2.5843 -0.9828  1.9788
30058SOL     OW  103   9.358   2.419   2.975 -0.3536 -0.4819  0.2913
30058SOL    HW1  104   9.316   2.371   2.904  1.1371 -1.0313 -0.2758
30058SOL    HW2  105   9.378   2.505   2.937  0.6613 -0.8574 -0.0762
30059SOL     OW  106  12.698  10.016   1.995 -0.1495 -0.3122 -0.4206
30059SOL    HW1  107  12.757  10.070   1.943  0.1717 -0.3720 -0.1179
30059SOL    HW2  108  12.753   9.978   2.063 -0.6612  0.1756  0.2837
30060SOL     OW  109   1.456   6.221   1.529  0.0948 -0.2599  0.2315
30060SOL    HW1  110   1.465   6.242   1.622  1.2610 -1.0160  0.3062
30060SOL    HW2  111   1.491   6.133   1.521  0.9389  0.1728 -1.0978
30061SOL     OW  112   5.824  12.934  10.914  0.1253  0.3899 -0.4457
30061SOL    HW1  113   5.806  12.910  10.824  1.8568 -3.6917  0.0961
30061SOL    HW2  114   5.854  12.853  10.956  1.1066  2.4537  3.3595
30062SOL     OW  115   9.127   9.449   6.403 -0.0910  0.0739  0.3364
30062SOL    HW1  116   9.112   9.359   6.431  2.3638 -1.0285 -1.4863
30062SOL    HW2  117   9.211   9.473   6.443 -0.2414  1.2042  0.0208
30063SOL     OW  118   1.888   6.039   4.190 -0.2342  0.5294  0.5783
30063SOL    HW1  119   1.840   5.964   4.225  0.0950 -0.3849 -0.8154
30063SOL    HW2  120   1.969   6.000   4.155 -0.1696  1.4961 -0.3877
30064SOL     OW  121   1.920   8.366   5.826  0.5018  0.2293 -0.3190
30064SOL    HW1  122   1.828   8.387   5.813  0.4989  0.3949 -0.0418
30064SOL    HW2  123   1.944   8.411   5.907  0.3555 -1.2040  0.5720
30065SOL     OW  124   5.980   0.141   9.978 -0.0087  0.4040  1.0296
30065SOL    HW1  125   6.041   0.147   9.904 -1.7117 -0.5960 -0.5408
30065SOL    HW2  126   5.956   0.232   9.996  1.5584  0.7658  1.3525
30066SOL     OW  127   1.493   0.563   7.779 -0.5773 -0.4005 -0.2555
30066SOL    HW1  128   1.430   0.594   7.844  0.5129 -0.0676  0.6713
30066SOL    HW2  129   1.541   0.493   7.823  0.4155  0.0664 -0.5640
30067SOL     OW  130   7.165   7.079   4.316 -0.2124  0.0541  0.3660
30067SOL    HW1  131   7.146   7.106   4.406 -0.2140  0.3813  0.2674
30067SOL    HW2  132   7.113   7.000   4.303 -1.3021  0.7887  0.1830
30068SOL     OW  133   5.506   0.193  11.913 -0.3423 -0.2890  0.0664
30068SOL    HW1  134   5.441   0.255  11.947 -0.4818  0.3728 -1.3293
30068SOL    HW2  135   5.470   0.107  11.933 -1.4080  0.0707 -0.1942
30069SOL     OW  136   8.440  10.716   2.189  0.6871 -0.0581  0.5049
30069SOL    HW1  137   8.401  10.644   2.139  0.9488 -0.0479  0.2849
30069SOL    HW2  138   8.496  10.761   2.126  0.6105  0.2712  0.6727
30070SOL     OW  139   5.341   1.559   2.687 -0.0360 -0.2498  0.6310
30070SOL    HW1  140   5.431   1.534   2.705  0.2416 -0.3868 -0.8052
30070SOL    HW2  141   5.291   1.478   2.694  0.2087 -0.4663 -0.0109
30071SOL     OW  142   8.681   4.769  12.928 -0.5517 -0.0587  0.2333
30071SOL    HW1  143   8.697   4.693  12.984 -0.8969 -0.8011 -0.6478
30071SOL    HW2  144   8.594   4.754  12.890 -0.7218  0.8907  0.2240
30072SOL     OW  145   3.104   3.451   0.252 -0.1172 -0.3627 -0.2517
30072SOL    HW1  146   3.014   3.428   0.277  0.5215 -1.6604  0.9932
30072SOL    HW2  147   3.096   3.539   0.215 -1.7924 -0.1008  0.5998
30073SOL     OW  148  10.523   1.472  10.589 -0.3203 -0.5001  0.1517
30073SOL    HW1  149  10.430   1.481  10.609  0.0407  0.2085  1.6354
30073SOL    HW2  150  10.533   1.516  10.504 -0.8025  2.4537  1.4985
30074SOL     OW  151   6.469   0.299   5.993 -0.1385 -0.5557 -0.1118
30074SOL    HW1  152   6.429   0.285   6.079 -1.6878 -0.1309 -0.7230
30074SOL    HW2  153   6.511   0.215   5.972 -1.1066 -1.1893  0.3889
30075SOL     OW  154  12.346   9.914   6.930  0.2667 -0.1793  0.5408
30075SOL    HW1  155  12.328   9.821   6.936  2.6714 -0.6829  1.0025
30075SOL    HW2  156  12.295   9.944   6.854  0.1843 -2.0624 -0.1935
30076SOL     OW  157   6.817   4.591  13.194  0.0233  0.0858 -0.4096
30076SOL    HW1  158   6.827   4.661  13.257 -0.2683  1.0948 -1.4545
30076SOL    HW2  159   6.723   4.587  13.177  0.1347  0.0745 -1.0495
30077SOL     OW  160   2.934  10.073   5.527 -0.5628  0.7069  0.2497
30077SOL    HW1  161   2.916  10.144   5.589 -0.0749  0.6038  0.5200
30077SOL    HW2  162   2.980  10.007   5.580 -3.4774 -1.1148  0.7515
30078SOL     OW  163   7.879  10.508   7.657 -0.1362 -0.4701 -0.3249
30078SOL    HW1  164   7.922  10.529   7.574  1.3612 -0.1247  0.5120
30078SOL    HW2  165   7.917  10.424   7.683 -0.9909 -0.8408 -0.2200
30079SOL     OW  166   5.499   2.547   8.805  0.1862  0.1727  0.2968
30079SOL    HW1  167   5.429   2.509   8.751  0.3895  0.9298 -0.5275
30079SOL    HW2  168   5.497   2.640   8.785  1.4597  0.1978  0.2195
30080SOL     OW  169  11.083   0.174   3.717  0.4386 -0.1806  0.1654
30080SOL    HW1  170  11.174   0.186   3.745  1.0135 -0.7450 -1.3362
30080SOL    HW2  171  11.052   0.263   3.701  1.8909 -0.0358 -2.5988
30081SOL     OW  172   2.401   7.911   0.632  0.2193  0.0401  0.1695
30081SOL    HW1  173   2.409   7.815   0.624 -1.2164 -0.1139  0.3073
30081SOL    HW2  174   2.382   7.925   0.725  1.0271  0.5267  0.2712
30082SOL     OW  175   0.056   2.587   1.082  0.1121 -0.3063 -0.4320
30082SOL    HW1  176   0.031   2.496   1.098  0.0573 -0.1722  0.2842
30082SOL    HW2  177   0.120   2.606   1.151  0.4708  0.0612 -0.8570
30083SOL     OW  178   4.412   5.364   9.721 -0.4061 -0.7982 -0.1520
30083SOL    HW1  179   4.430   5.434   9.784  0.4645 -1.7448  0.6862
30083SOL    HW2  180   4.426   5.405   9.636  1.9305 -0.4018  0.3562
30084SOL     OW  181  13.202   2.901   4.821  0.1849 -0.7180  0.7139
30084SOL    HW1  182  13.206   2.993   4.847 -0.7297 -0.7457  0.9918
30084SOL    HW2  183  13.189   2.903   4.727  0.8881 -0.5744  0.6188
30085SOL     OW  184   1.156  12.875   2.728  0.6449  0.2142  0.0572
30085SOL    HW1  185   1.122  12.951   2.776  0.9048  0.0981  0.4307
30085SOL    HW2  186   1.080  12.818   2.715  0.8167 -0.3896  1.5290
30086SOL     OW  187  10.345   1.666   6.683 -0.4033 -0.3145 -0.4391
30086SOL    HW1  188  10.372   1.662   6.591  0.2593 -2.4779 -0.2085
30086SOL    HW2  189  10.256   1.631   6.683 -0.5127 -0.0368 -0.2998
30087SOL     OW  190   0.501  10.282   3.042  0.4130 -0.1923 -0.2893
30087SOL    HW1  191   0.499  10.186   3.046 -1.5083 -0.1770  0.0688
30087SOL    HW2  192   0.564  10.307   3.109  0.0502 -1.1834  0.4554
30088SOL     OW  193   1.553  11.189   3.851 -0.3854 -0.0697 -0.5619
30088SOL    HW1  194   1.506  11.249   3.908 -0.0603  1.6502 -2.0101
30088SOL    HW2  195   1.636  11.173   3.896 -0.5927  0.3390 -0.0314
30089SOL     OW  196   7.210   1.659   3.039 -0.0469 -0.2634 -0.0862
30089SOL    HW1  197   7.233   1.651   2.947  0.2019 -0.4162 -0.0132
30089SOL    HW2  198   7.123   1.700   3.039  0.4655  0.8473 -0.3513
30090SOL     OW  199   7.774  12.001   2.505  0.0243 -0.1442 -0.0136
30090SOL    HW1  200   7.689  11.978   2.469  0.4738 -1.0021 -0.5754
30090SOL    HW2  201   7.774  12.096   2.511 -0.3450 -0.0289 -1.5864
30091SOL     OW  202   3.988   0.609   7.356 -0.5133 -0.0190 -0.8303
30091SOL    HW1  203   3.986   0.704   7.365 -2.6006  0.0209 -1.3620
30091SOL    HW2  204   4.016   0.577   7.442 -1.4168  1.0193 -0.1292
30092SOL     OW  205   8.377   1.435   3.621  0.3962  0.0125  0.2145
30092SOL    HW1  206   8.376   1.531   3.617 -1.2630  0.1509  2.3712
30092SOL    HW2  207   8.462   1.414   3.661  0.1815  0.6675  1.0281
30093SOL     OW  208   3.658  10.765   1.079  0.2130 -0.4369 -0.1367
30093SOL    HW1  209   3.646  10.814   1.160 -2.1752 -0.1258 -0.5786
30093SOL    HW2  210   3.696  10.681   1.106  0.4913  0.0758  1.1452
30094SOL     OW  211  10.649   7.080   8.806  0.7821 -0.1155  0.6996
30094SOL    HW1  212  10.565   7.051   8.842 -1.4410  1.1200 -2.9856
30094SOL    HW2  213  10.693   7.000   8.779 -1.0669 -0.6742 -0.8756
30095SOL     OW  214  11.910  12.101   5.249  0.6208 -0.3705  0.4118
30095SOL    HW1  215  11.920  12.018   5.296 -0.2896  0.0352  1.3426
30095SOL    HW2  216  11.986  12.104   5.191  0.7300 -1.7978  0.4432
30096SOL     OW  217  13.008  13.284   4.569 -0.1369 -0.9487 -0.4251
30096SOL    HW1  218  13.025  13.194   4.540  0.0049 -0.4186 -2.0676
30096SOL    HW2  219  13.091  13.313   4.606 -0.2150 -1.5138  0.2224
30097SOL     OW  220   8.913   1.634   9.391  0.3044 -0.2283  0.1754
30097SOL    HW1  221   8.874   1.594   9.468 -1.3543  0.0508 -0.4833
30097SOL    HW2  222   8.990   1.679   9.424  0.7033 -1.6891  1.3534
30098SOL     OW  223   3.034   7.719   3.991 -0.3811 -0.0638  0.1180
30098SOL    HW1  224   3.123   7.738   4.018 -0.2938 -0.0842 -0.1476
30098SOL    HW2  225   2.979   7.778   4.043 -0.3565 -1.2131  1.5120
30099SOL     OW  226   8.279  11.087   5.290  0.1273  0.2015 -0.1425
30099SOL    HW1  227   8.184  11.093   5.278 -0.1124  1.2452  1.7412
30099SOL    HW2  228   8.315  11.152   5.230 -0.2966 -0.5289 -1.2127
30100SOL     OW  229   2.104   5.086   1.751  0.3388  0.8933 -0.2003
30100SOL    HW1  230   2.155   5.069   1.830 -1.3517  1.8593  1.1450
30100SOL    HW2  231   2.096   5.000   1.709  1.4233  0.4040  0.5368
30101SOL     OW  232  13.181  11.222   4.043  0.6338  0.3908  0.1579
30101SOL    HW1  233  13.107  11.190   4.095  1.6056 -0.3811  1.0945
30101SOL    HW2  234  13.185  11.161   3.969  0.1638  0.6161 -0.0614
30102SOL     OW  235   6.716   6.855  12.003  0.1376 -0.6129  0.1426
30102SOL    HW1  236   6.722   6.781  12.062 -1.0700 -0.8179  0.0424
30102SOL    HW2  237   6.625   6.885  12.011  1.0625  2.1086  1.6587
30103SOL     OW  238   5.730   2.919   8.631  0.0877  0.3968  0.3024
30103SOL    HW1  239   5.670   2.917   8.705  0.3350  0.0924  0.4954
30103SOL    HW2  240   5.694   2.986   8.573  0.4573  1.4044  1.1868
30104SOL     OW  241   8.021  11.338  10.551  0.7067  0.0837 -0.0568
30104SOL    HW1  242   8.029  11.395  10.475 -0.9760  0.9000  0.3257
30104SOL    HW2  243   8.003  11.398  10.624 -1.5777 -0.9286  0.2830
30105SOL     OW  244  13.214   8.000   0.915 -0.0666 -0.2532 -0.6180
30105SOL    HW1  245  13.175   8.083   0.941  0.2780 -0.6799  1.4008
30105SOL    HW2  246  13.168   7.977   0.834 -0.1058  1.9128 -1.2755
30106SOL     OW  247   9.121   9.610   6.729 -0.7065 -0.1700 -0.0127
30106SOL    HW1  248   9.066   9.532   6.731 -1.8447  0.6274  0.6279
30106SOL    HW2  249   9.075   9.671   6.672 -0.8890  0.7809  1.1063
30107SOL     OW  250   1.758   8.651   4.586  0.5722  0.3978 -0.0435
30107SOL    HW1  251   1.799   8.566   4.578  0.4928  0.5197 -2.3627
30107SOL    HW2  252   1.772   8.693   4.501 -0.5015  2.1818  0.6009
30108SOL     OW  253   6.395   5.303   1.432  0.3829 -0.6170 -0.2656
30108SOL    HW1  254   6.300   5.313   1.429  0.1416 -2.1159  1.1270
30108SOL    HW2  255   6.415   5.250   1.355  0.2121  0.2849 -0.9558
30109SOL     OW  256   1.826  11.993   3.979 -0.0348  1.0757  0.1126
30109SOL    HW1  257   1.875  12.072   3.959 -0.7494  1.7974  1.0763
30109SOL    HW2  258   1.892  11.928   4.001  0.5552  1.4274 -0.5854
30110SOL     OW  259   5.642   2.033   8.892 -0.0139 -0.2062 -0.3262
30110SOL    HW1  260   5.629   1.942   8.919 -0.5146 -0.2783 -0.7989
30110SOL    HW2  261   5.734   2.051   8.911  0.3887 -1.1805 -1.3047
30111SOL     OW  262   3.342   9.338   9.734  0.6735 -0.4371 -0.2560
30111SOL    HW1  263   3.313   9.415   9.783  0.5597 -0.5089 -0.2084
30111SOL    HW2  264   3.436   9.349   9.725  0.4869  0.4233 -1.4827
30112SOL     OW  265   9.970   3.088  12.853 -0.0364 -0.1094  0.8351
30112SOL    HW1  266  10.065   3.093  12.858  0.2180  0.7543 -2.5866
30112SOL    HW2  267   9.946   3.027  12.922  3.3491 -3.2255 -0.4086
30113SOL     OW  268   9.667  12.003  12.467 -0.0612  0.2321 -0.0468
30113SOL    HW1  269   9.595  11.956  12.425  0.5610 -0.8041  0.0245
30113SOL    HW2  270   9.744  11.982  12.413  0.3584  0.5723  0.4157
30114SOL     OW  271   2.417  11.916  11.050 -0.1261 -0.0864  0.3835
30114SOL    HW1  272   2.363  11.947  10.977  0.9675  0.9006 -0.0247
30114SOL    HW2  273   2.355  11.872  11.109 -1.2966  0.6518 -0.2741
30115SOL     OW  274  11.872   7.768  13.104  0.2482 -0.0957 -0.4794
30115SOL    HW1  275  11.884   7.715  13.182  0.3247  0.6878  0.0546
30115SOL    HW2  276  11.850   7.855  13.137 -1.0139 -0.0581 -1.3476
30116SOL     OW  277   5.075   5.783   6.951 -0.1771 -0.7055  0.0304
30116SOL    HW1  278   5.139   5.802   7.019 -1.8687 -1.1330  1.8545
30116SOL    HW2  279   5.064   5.688   6.954 -1.0221 -0.6215 -0.0781
30117SOL     OW  280   3.170   4.098   6.307  0.1683  0.0837 -0.3965
30117SOL    HW1  281   3.138   4.070   6.222  0.8413 -0.0959 -0.5946
30117SOL    HW2  282   3.258   4.133   6.290 -0.4013  1.7718 -0.0687
30118SOL     OW  283   7.245  12.882   9.801 -0.5344 -0.0965 -0.0839
30118SOL    HW1  284   7.293  12.808   9.764 -1.0390 -1.0073  1.0258
30118SOL    HW2  285   7.228  12.857   9.892 -0.5753  1.4560  0.3659
30119SOL     OW  286   6.958   3.406  12.753 -0.2220  0.2220 -0.1882
30119SOL    HW1  287   6.878   3.458  12.740 -0.8802  0.0358  2.5663
30119SOL    HW2  288   6.963   3.351  12.675 -1.2367  2.1401 -1.7232
30120SOL     OW  289   6.408  10.248  11.824 -0.0129 -0.2968  0.7526
30120SOL    HW1  290   6.464  10.228  11.750 -1.9827  0.3429 -0.9966
30120SOL    HW2  291   6.465  10.296  11.885  1.2019  0.8284 -1.1797
30121SOL     OW  292   6.708   7.296   5.742 -0.3904  0.4411 -0.5187
30121SOL    HW1  293   6.717   7.326   5.652 -0.2018 -1.1151 -1.0502
30121SOL    HW2  294   6.669   7.370   5.788 -0.3613  1.3158 -1.8418
30122SOL     OW  295   9.404  12.215   9.179 -0.1310 -0.4275  0.4873
30122SOL    HW1  296   9.349  12.165   9.118 -1.5319 -0.7078  1.9138
30122SOL    HW2  297   9.342  12.255   9.240  1.2418 -0.6926  2.1281
30123SOL     OW  298  12.120   2.639   6.021  0.2949 -0.3804  0.0640
30123SOL    HW1  299  12.115   2.554   5.977  2.5775 -0.8107  0.5102
30123SOL    HW2  300  12.179   2.691   5.967  1.4727 -0.1946  1.4721
30124SOL     OW  301   2.431   7.597  10.880 -0.0408  0.0795  0.3799
30124SOL    HW1  302   2.395   7.561  10.962 -0.6555 -1.7339 -0.6235
30124SOL    HW2  303   2.480   7.674  10.908  2.0816 -1.9277  2.8901
30125SOL     OW  304   6.978  11.035   8.920 -0.2830  0.3041 -0.0603
30125SOL    HW1  305   6.910  10.984   8.877 -1.2638  1.6755 -0.1860
30125SOL    HW2  306   6.997  10.987   9.001 -1.1391 -0.2701 -0.1917
30126SOL     OW  307   4.815  10.171  10.070  0.1216 -0.0726  0.0356
30126SOL    HW1  308   4.763  10.192   9.993  0.6481  1.5750  0.0923
30126SOL    HW2  309   4.874  10.245  10.080  1.5046 -1.2266  0.8125
30127SOL     OW  310   9.175   7.571   3.046  0.0934  0.2764 -0.4884
30127SOL    HW1  311   9.099   7.628   3.033 -0.1247 -0.3833 -2.4915
30127SOL    HW2  312   9.245   7.614   2.997  0.5640  0.0302 -0.0344
30128SOL     OW  313   1.014   4.377   2.955 -0.1075 -0.0147  0.3351
30128SOL    HW1  314   0.931   4.373   3.003  0.6692 -0.1488  1.7218
30128SOL    HW2  315   1.044   4.286   2.950 -0.0985  0.0170 -0.2727
30129SOL     OW  316   6.626   2.943  10.776 -0.4523 -0.1369 -0.6708
30129SOL    HW1  317   6.704   2.978  10.820 -1.3241  0.9409  0.0588
30129SOL    HW2  318   6.571   2.912  10.848 -1.3699  0.5304 -1.0698
30130SOL     OW  319  11.240   7.452  13.314 -0.9490  0.7346 -0.2037
30130SOL    HW1  320  11.214   7.486  13.229 -1.4230 -1.4313 -0.9712
30130SOL    HW2  321  11.327   7.415  13.300 -0.0646  2.2693  0.8337
30131SOL     OW  322   0.458   5.432   8.959  0.2433 -0.0313 -0.3943
30131SOL    HW1  323   0.393   5.371   8.925  1.9460 -1.6902 -0.8762
30131SOL    HW2  324   0.504   5.465   8.882 -0.1201  1.2581 -0.0789
30132SOL     OW  325   1.460   6.729   4.746  0.2917 -0.3976  0.3820
30132SOL    HW1  326   1.437   6.809   4.698 -1.7477  0.1972  2.1994
30132SOL    HW2  327   1.551   6.742   4.772  1.0844 -0.2171 -2.1510
30133SOL     OW  328   3.707  11.569   0.752 -0.0964  0.0023  0.3077
30133SOL    HW1  329   3.707  11.554   0.847 -0.3607 -0.9094  0.1766
30133SOL    HW2  330   3.713  11.481   0.715 -0.7446  0.3039 -0.5316
30134SOL     OW  331   8.665   6.918   8.037  0.0519  0.2440 -0.4444
30134SOL    HW1  332   8.671   6.962   7.952  1.4540  3.0799  0.9907
30134SOL    HW2  333   8.745   6.867   8.043  0.0857  0.2639 -0.6929
30135SOL     OW  334   4.414   3.700   7.287  0.4027 -0.2749 -0.1252
30135SOL    HW1  335   4.327   3.697   7.247  0.3510  0.7730 -0.1042
30135SOL    HW2  336   4.461   3.767   7.238  0.3996  0.9224  1.4409
30136SOL     OW  337   4.792   4.242   8.205 -0.5123 -0.1747  0.0884
30136SOL    HW1  338   4.796   4.331   8.169 -1.1305  0.0991  0.6774
30136SOL    HW2  339   4.877   4.204   8.183  0.1991  0.9437  0.7879
30137SOL     OW  340   3.767   4.629  11.500 -0.3340 -0.0907 -0.3850
30137SOL    HW1  341   3.775   4.537  11.524 -1.2701 -0.2881 -0.8014
30137SOL    HW2  342   3.678   4.653  11.526 -0.1763  0.6395 -0.4918
30138SOL     OW  343   1.760  10.584   4.137 -0.0582 -0.4962 -0.5357
30138SOL    HW1  344   1.809  10.520   4.188 -0.0300 -1.1518 -1.3720
30138SOL    HW2  345   1.822  10.656   4.123 -0.1576 -0.1746  0.5853
30139SOL     OW  346   0.433   8.888   0.606  0.1524  0.1492  0.2689
30139SOL    HW1  347   0.519   8.888   0.563  0.3237  0.2533  0.6083
30139SOL    HW2  348   0.371   8.903   0.535  0.5247  1.7415  0.2470
30140SOL     OW  349  11.799  10.781   4.304  0.5784 -0.1366 -0.3345
30140SOL    HW1  350  11.827  10.808   4.216  0.8898 -0.5912 -0.3786
30140SOL    HW2  351  11.852  10.704   4.323 -1.9873 -2.2637 -1.2397
30141SOL     OW  352   1.505  11.979   1.826  0.4418  0.0829  0.1216
30141SOL    HW1  353   1.550  11.903   1.863  0.3523  0.3715  0.8364
30141SOL    HW2  354   1.570  12.049   1.826 -0.2168  0.7565  1.9956
30142SOL     OW  355   9.025   0.144   2.798  0.2883 -0.1044  0.0771
30142SOL    HW1  356   8.984   0.136   2.884  0.4389  1.4080  0.3037
30142SOL    HW2  357   8.955   0.176   2.741  0.7152  0.8770  0.0977
30143SOL     OW  358  13.279  12.654   7.242 -0.6599 -0.0103  0.0542
30143SOL    HW1  359  13.318  12.651   7.155  0.6967 -0.5459  0.6457
30143SOL    HW2  360  13.196  12.698   7.230  0.7347  2.5066 -1.0712
30144SOL     OW  361  12.325   9.138   6.184 -0.8719 -0.0853 -0.0922
30144SOL    HW1  362  12.409   9.106   6.153 -1.6653 -1.1059 -1.2887
30144SOL    HW2  363  12.311   9.092   6.267  0.2678  1.0137  0.7520
30145SOL     OW  364   3.772   3.835   8.682  0.1557  0.0972  0.6473
30145SOL    HW1  365   3.796   3.746   8.710 -0.0546 -0.8307 -1.8731
30145SOL    HW2  366   3.764   3.829   8.587  1.1823  3.0857  0.2614
30146SOL     OW  367   6.084   3.325   8.360  0.3142  0.0373  0.3830
30146SOL    HW1  368   6.047   3.294   8.277 -0.2763  0.6205  0.4109
30146SOL    HW2  369   6.020   3.298   8.426 -1.0879  2.6383  0.2323
30147SOL     OW  370   0.104   6.129   3.291  0.0232  0.2043 -0.2403
30147SOL    HW1  371   0.182   6.074   3.295  0.9880  1.3866 -1.6985
30147SOL    HW2  372   0.092   6.160   3.381 -0.1869 -1.8050  0.4922
30148SOL     OW  373   8.947  11.520   2.191 -0.0367 -0.1657 -0.4503
30148SOL    HW1  374   9.037  11.552   2.193  0.0092 -0.2934  1.9010
30148SOL    HW2  375   8.910  11.546   2.275 -1.6483 -1.6646 -0.6262
30149SOL     OW  376   7.765   4.485   5.639 -0.2168 -0.6470 -0.4172
30149SOL    HW1  377   7.719   4.408   5.605 -1.4279 -0.8028  1.4508
30149SOL    HW2  378   7.802   4.456   5.722 -0.7660  0.8175  0.3666
30150SOL     OW  379   3.447   3.866  11.718 -0.1521  0.0782  0.2210
30150SOL    HW1  380   3.536   3.838  11.741 -0.1204  0.2910  0.3593
30150SOL    HW2  381   3.400   3.784  11.702  0.3244 -0.0114 -0.8263
30151SOL     OW  382   6.783   4.002   3.939  0.7519 -0.0974 -0.4898
30151SOL    HW1  383   6.862   4.048   3.968  1.9973 -2.2754 -0.2157
30151SOL    HW2  384   6.714   4.036   3.996  1.4478  1.8651 -0.7329
30152SOL     OW  385   8.093   6.327   0.973  0.4510 -0.5323  0.0825
30152SOL    HW1  386   8.160   6.262   0.996  1.1285 -0.5810 -1.8079
30152SOL    HW2  387   8.143   6.400   0.935 -0.3731  0.7012  1.3015
30153SOL     OW  388  10.092   1.245   4.641 -0.0538  0.3556 -0.2410
30153SOL    HW1  389  10.132   1.332   4.638 -0.2352  0.4211 -0.9949
30153SOL    HW2  390  10.000   1.261   4.623 -0.3315  0.1436  0.9373
30154SOL     OW  391   9.951   3.910   5.454  0.6165 -0.3182 -0.3026
30154SOL    HW1  392   9.955   4.003   5.473 -0.1435 -0.5758  1.2460
30154SOL    HW2  393   9.955   3.905   5.358  2.2985  1.1838 -0.3616
30155SOL     OW  394   1.666   3.170   0.690 -0.3618  0.3212  0.0281
30155SOL    HW1  395   1.720   3.199   0.617  2.9999 -1.7046  1.4555
30155SOL    HW2  396   1.704   3.212   0.767 -2.0066  0.2300  0.9384
30156SOL     OW  397   0.635   0.889   1.643  0.1414 -0.3744  0.0376
30156SOL    HW1  398   0.699   0.933   1.700 -0.3842 -1.2793  1.3581
30156SOL    HW2  399   0.566   0.954   1.630 -0.0004 -0.3404  0.9030
30157SOL     OW  400   8.397  11.945   6.721 -0.6336 -0.1707  0.2620
30157SOL    HW1  401   8.463  11.882   6.750 -0.1862  0.1409 -0.0593
30157SOL    HW2  402   8.342  11.897   6.660  0.3007 -0.0073 -0.7486
30158SOL     OW  403  12.272   2.395   5.688 -0.2954 -0.0949 -0.8915
30158SOL    HW1  404  12.365   2.401   5.711 -0.4779 -0.1989 -0.0807
30158SOL    HW2  405  12.228   2.377   5.772 -0.9199 -1.2931 -1.4548
30159SOL     OW  406  11.938   5.767  10.132 -0.4023  0.2399 -0.2104
30159SOL    HW1  407  11.863   5.726  10.174 -1.2145  1.8703  0.0089
30159SOL    HW2  408  11.963   5.706  10.062 -2.1136 -0.1975 -0.4762
30160SOL     OW  409   0.148   7.535   2.353 -0.1164  0.3196  0.1617
30160SOL    HW1  410   0.068   7.518   2.403 -0.2532  0.2074 -0.0940
30160SOL    HW2  411   0.204   7.584   2.413  0.7594 -2.0015  1.3472
30161SOL     OW  412   5.125   1.015   7.554  0.0987  0.7478  0.3743
30161SOL    HW1  413   5.182   0.938   7.563 -2.6898 -1.5488 -0.0209
30161SOL    HW2  414   5.132   1.040   7.462  0.1739  0.2239  0.2356
30162SOL     OW  415   8.247   7.283   9.031  0.1066 -0.0435  0.0390
30162SOL    HW1  416   8.213   7.205   9.076  0.4522  0.1094  0.5743
30162SOL    HW2  417   8.190   7.293   8.954 -0.8101 -0.0196  0.7066
30163SOL     OW  418  12.127  12.998  11.907  0.3263  0.2852 -0.4016
30163SOL    HW1  419  12.117  12.903  11.908  1.5192  0.1526 -0.0836
30163SOL    HW2  420  12.104  13.026  11.996 -0.7985  0.3909 -0.7143
30164SOL     OW  421   6.398   2.496   1.977 -0.1649  0.4569  0.3041
30164SOL    HW1  422   6.361   2.558   2.040  1.5311  1.5553  0.3054
30164SOL    HW2  423   6.490   2.487   2.004  0.8027  1.4669 -2.3112
30165SOL     OW  424   1.414  10.312   1.535 -0.6876  0.0017 -0.2320
30165SOL    HW1  425   1.443  10.396   1.569  0.9822 -0.7927  0.4523
30165SOL    HW2  426   1.342  10.286   1.592 -1.4949  1.1228 -0.7071
30166SOL     OW  427   3.265   9.498   1.814 -0.9684  1.1820  0.1060
30166SOL    HW1  428   3.174   9.471   1.825 -0.4442 -0.9050 -0.1655
30166SOL    HW2  429   3.298   9.511   1.903 -0.5817 -1.7256  0.4856
30167SOL     OW  430   8.764   1.898   2.590  0.0895 -0.0199  0.0758
30167SOL    HW1  431   8.686   1.930   2.634  0.0230  0.4004 -0.3455
30167SOL    HW2  432   8.769   1.805   2.615 -1.4260 -0.4802 -1.1330
30168SOL     OW  433  11.191   5.553   8.876 -0.3509 -0.4758 -0.4739
30168SOL    HW1  434  11.239   5.499   8.939 -0.3787  0.2720  0.2156
30168SOL    HW2  435  11.113   5.501   8.854  0.5366 -1.5027 -1.2675
30169SOL     OW  436   9.082  12.482   1.162  0.0813  0.1188 -0.6777
30169SOL    HW1  437   9.012  12.548   1.162  0.2748  0.3359 -1.5956
30169SOL    HW2  438   9.035  12.399   1.151 -0.0195  0.3047 -1.7967
30170SOL     OW  439  11.710   1.040  10.275  0.3885 -0.1636  0.4085
30170SOL    HW1  440  11.728   1.129  10.307  0.7591 -0.3889  0.8445
30170SOL    HW2  441  11.794   1.010  10.239  0.3712 -0.4803  0.6251
30171SOL     OW  442  11.295  11.479   7.127  0.0286  0.6255  0.4763
30171SOL    HW1  443  11.287  11.439   7.041 -0.1156  0.3900  0.5972
30171SOL    HW2  444  11.344  11.560   7.112  1.2643 -0.1174  0.3814
30172SOL     OW  445   8.346   8.074   2.534 -0.0608 -0.3700  0.3102
30172SOL    HW1  446   8.364   8.128   2.612  0.8869  1.2085 -0.9439
30172SOL    HW2  447   8.386   8.122   2.462 -0.0296 -2.3136 -1.0391
30173SOL     OW  448   1.903   8.282  11.919  0.3103  0.0128  0.2016
30173SOL    HW1  449   1.892   8.246  11.831  0.4030 -0.7488  0.4909
30173SOL    HW2  450   1.853   8.223  11.975 -0.8151  1.2171  0.5165
30174SOL     OW  451   0.808   7.135   5.581 -0.0247 -0.1742  0.3015
30174SOL    HW1  452   0.895   7.155   5.616  1.1505 -3.1330 -0.6223
30174SOL    HW2  453   0.754   7.120   5.658  0.6250  0.3539  0.8722
30175SOL     OW  454   3.043   8.082   1.845 -0.5054  0.3907 -0.2361
30175SOL    HW1  455   2.962   8.040   1.877 -0.4833 -0.5153 -1.3018
30175SOL    HW2  456   3.110   8.051   1.906 -0.6276 -0.5205 -0.5419
30176SOL     OW  457   7.815   6.342   9.937 -0.4137  0.5249 -0.7369
30176SOL    HW1  458   7.762   6.418   9.961  0.3853  0.7790  0.3125
30176SOL    HW2  459   7.752   6.276   9.908 -1.2279  1.0908 -0.2796
30177SOL     OW  460  12.249   5.941   9.058 -0.8474 -0.2202 -0.0377
30177SOL    HW1  461  12.255   5.940   8.962  0.1115  0.5147 -0.0052
30177SOL    HW2  462  12.183   5.875   9.079 -2.1279  0.6004 -1.2820
30178SOL     OW  463  10.368   4.405   8.502 -0.1046 -0.2436  0.4213
30178SOL    HW1  464  10.417   4.481   8.468  2.4755 -1.4493  1.1918
30178SOL    HW2  465  10.388   4.404   8.595  0.8900 -2.5042  0.2371
30179SOL     OW  466   8.665  11.143   7.785  0.1014 -0.3579 -0.2661
30179SOL    HW1  467   8.731  11.212   7.774  1.7309 -1.8766 -0.6480
30179SOL    HW2  468   8.583  11.183   7.759  0.4933  2.2093  2.0093
30180SOL     OW  469   3.173   5.116   5.534  0.0175 -0.4978  0.5489
30180SOL    HW1  470   3.261   5.140   5.564 -0.1658  0.5541  0.2681
30180SOL    HW2  471   3.129   5.199   5.519 -1.2014 -1.0044  1.1548
30181SOL     OW  472   4.492  10.581   0.558  0.4200 -0.3114 -0.4472
30181SOL    HW1  473   4.452  10.495   0.572  0.2358 -0.2100 -0.3435
30181SOL    HW2  474   4.489  10.623   0.644  0.2162 -0.0779 -0.5668
30182SOL     OW  475  11.475   4.983   9.853  0.0116 -0.2417  0.0065
30182SOL    HW1  476  11.509   5.073   9.852 -1.2657  0.2672 -0.4531
30182SOL    HW2  477  11.460   4.962   9.761  2.1987 -1.7288 -0.0688
30183SOL     OW  478  10.351  12.578   5.423 -0.0190  0.9769 -0.1079
30183SOL    HW1  479  10.446  12.591   5.420  0.2162 -0.4430  0.4095
30183SOL    HW2  480  10.315  12.666   5.428  1.1884  1.6489 -2.0328
30184SOL     OW  481   7.718   2.239   5.457 -0.2990 -0.1892 -0.4345
30184SOL    HW1  482   7.782   2.195   5.401  1.4066  0.3075  1.0397
30184SOL    HW2  483   7.737   2.207   5.545 -2.1404 -0.0585  0.0608
30185SOL     OW  484   9.514   4.451  12.923  0.3185 -0.1826 -0.1240
30185SOL    HW1  485   9.594   4.502  12.905 -0.3692  1.2311  0.6550
30185SOL    HW2  486   9.545   4.361  12.932  1.8123  0.3147  0.0470
30186SOL     OW  487   3.405   6.737   8.318 -0.1333 -0.1530  0.1894
30186SOL    HW1  488   3.355   6.817   8.332 -1.8658 -0.9685 -0.9527
30186SOL    HW2  489   3.352   6.686   8.256  1.2395 -1.8803  0.3497
30187SOL     OW  490   3.666  10.703   4.169 -0.0777 -0.1194 -0.0129
30187SOL    HW1  491   3.685  10.638   4.102  0.6000 -0.5615  0.5892
30187SOL    HW2  492   3.708  10.783   4.138  1.3578 -0.6489  0.4799
30188SOL     OW  493   0.952   3.067   5.915 -0.4748  0.4997 -0.1437
30188SOL    HW1  494   0.985   3.015   5.989  1.4914 -0.8697 -1.8748
30188SOL    HW2  495   0.898   3.006   5.865 -0.9214  1.1057 -0.4090
30189SOL     OW  496   2.374   7.616  11.172 -0.3094 -0.0349  0.0489
30189SOL    HW1  497   2.452   7.643  11.220 -1.4319  2.0620  0.8181
30189SOL    HW2  498   2.335   7.547  11.225  0.2166 -0.0387  0.4380
30190SOL     OW  499   6.564  11.241   3.420  0.6165  0.2257  0.3196
30190SOL    HW1  500   6.575  11.333   3.443 -1.7122 -0.0114  3.0591
30190SOL    HW2  501   6.637  11.197   3.464  2.3967  0.7667 -1.9299
30191SOL     OW  502   9.795   4.603  12.441 -0.4406 -0.4434 -0.0579
30191SOL    HW1  503   9.859   4.604  12.371 -0.0262 -0.2811  0.3190
30191SOL    HW2  504   9.712   4.625  12.399 -0.4193 -1.5438 -0.7060
30192SOL     OW  505   0.832  11.630   9.166  0.4764  0.1203 -0.2972
30192SOL    HW1  506   0.791  11.576   9.098 -1.6694  0.3384  0.7452
30192SOL    HW2  507   0.763  11.689   9.195  1.5297  0.4973  1.6081
30193SOL     OW  508   3.808   1.597   1.678 -0.2916  0.6556  0.4245
30193SOL    HW1  509   3.752   1.674   1.687 -0.7522  0.2249  1.5972
30193SOL    HW2  510   3.760   1.539   1.618 -0.3347  0.9505  0.1746
30194SOL     OW  511  11.455  11.324   0.828 -0.5219 -0.1547  0.4814
30194SOL    HW1  512  11.510  11.380   0.773 -1.0144 -1.0251 -0.9339
30194SOL    HW2  513  11.517  11.265   0.871 -0.3562 -2.1477 -2.2652
30195SOL     OW  514   5.885   7.380   1.960  0.1382 -0.1845  0.8658
30195SOL    HW1  515   5.849   7.445   1.899  0.8220  0.1800  0.8402
30195SOL    HW2  516   5.855   7.296   1.925 -0.4255  0.0894  0.6735
30196SOL     OW  517   6.809   0.549  11.332  0.0814  0.4275 -0.1259
30196SOL    HW1  518   6.869   0.568  11.259  0.2054 -1.8236 -0.6907
30196SOL    HW2  519   6.739   0.614  11.323  0.9316  1.2354 -1.2500
30197SOL     OW  520   1.345   5.651  13.265  0.3047  0.3952 -0.1430
30197SOL    HW1  521   1.348   5.632  13.171  1.2287 -1.3766  0.1944
30197SOL    HW2  522   1.325   5.566  13.306  2.0885  0.6357  1.3632
30198SOL     OW  523   4.522   6.802   7.320  0.2768 -0.0592  0.0945
30198SOL    HW1  524   4.476   6.730   7.278  0.5540  0.7030 -1.5953
30198SOL    HW2  525   4.458   6.840   7.380 -1.1890  0.6312 -1.7963
30199SOL     OW  526  11.907   0.864   5.660  0.1807  0.1072  0.2007
30199SOL    HW1  527  11.889   0.919   5.737  1.7768  0.1864  0.5462
30199SOL    HW2  528  11.929   0.926   5.591  1.2417 -0.0402  0.3869
30200SOL     OW  529   1.449   1.989  11.263  0.5360 -0.1438 -0.1216
30200SOL    HW1  530   1.475   1.908  11.219  0.2593 -0.8505  0.9918
30200SOL    HW2  531   1.458   1.970  11.356 -0.2173  0.8747  0.1758
30201SOL     OW  532   8.760   7.802   7.375  0.6253  0.4279 -0.0771
30201SOL    HW1  533   8.796   7.732   7.429 -1.2738 -0.0674  0.6309
30201SOL    HW2  534   8.683   7.763   7.334  0.6653  1.5302 -1.2510
30202SOL     OW  535  13.077  11.352   6.273 -0.1975  0.2064 -0.3833
30202SOL    HW1  536  13.019  11.326   6.201  0.2973 -2.3910  0.0641
30202SOL    HW2  537  13.141  11.410   6.231 -1.5941  1.0767 -1.4024
30203SOL     OW  538   1.233   8.931  12.019  0.5021  0.3325  0.3706
30203SOL    HW1  539   1.173   8.928  12.093  0.4636  0.4721  0.3446
30203SOL    HW2  540   1.245   8.839  11.995  2.4432  0.0662  2.0806
30204SOL     OW  541   0.372  11.767   7.154  0.1506  0.4287 -0.2577
30204SOL    HW1  542   0.419  11.812   7.084 -0.9078  1.8021 -0.1332
30204SOL    HW2  543   0.280  11.776   7.130 -0.2326  0.8788  1.2560
30205SOL     OW  544   0.273   4.004   3.776 -0.4283  0.4154  0.1924
30205SOL    HW1  545   0.190   3.961   3.792 -0.5687  0.1431 -1.1288
30205SOL    HW2  546   0.338   3.950   3.821 -0.6951 -0.7424 -0.7780
30206SOL     OW  547   1.572   0.886   5.413 -0.2963  0.3576  0.3232
30206SOL    HW1  548   1.593   0.870   5.321  1.9057  2.6579  0.3193
30206SOL    HW2  549   1.498   0.828   5.431 -0.8996 -0.0653 -2.9161
30207SOL     OW  550   2.134   8.159   0.312  0.1433  0.1387 -0.5025
30207SOL    HW1  551   2.133   8.075   0.358  0.5404  0.6895  0.5358
30207SOL    HW2  552   2.070   8.148   0.242 -0.2093 -0.8429 -0.0478
30208SOL     OW  553   3.480   3.605   0.519 -0.6364  0.0494  0.8869
30208SOL    HW1  554   3.519   3.519   0.536  0.0079  0.2559  0.4717
30208SOL    HW2  555   3.448   3.634   0.604 -0.2712 -0.3160  1.1524
30209SOL     OW  556   3.837   3.579   4.727 -0.9683  0.0598 -0.0992
30209SOL    HW1  557   3.822   3.487   4.749 -2.8834  0.7245  1.7653
30209SOL    HW2  558   3.796   3.590   4.641  1.1500 -1.2228 -1.3726
30210SOL     OW  559   0.962  13.099  12.836 -0.3588  0.1755  0.4942
30210SOL    HW1  560   0.940  13.178  12.787  1.4866 -0.1004 -0.9079
30210SOL    HW2  561   0.892  13.038  12.816 -0.9496  0.9208  0.2500
30211SOL     OW  562   3.129   9.883   6.453  0.4649 -0.1163  0.7576
30211SOL    HW1  563   3.207   9.897   6.400  0.2467 -1.4997  0.0335
30211SOL    HW2  564   3.057   9.886   6.391 -0.1734  1.7919  1.5034
30212SOL     OW  565  12.038  10.020   4.606 -0.0207  0.1789  0.3315
30212SOL    HW1  566  11.969   9.986   4.550 -0.2918 -0.4281  1.0227
30212SOL    HW2  567  12.031   9.970   4.687 -0.7558  2.1976  1.5949
30213SOL     OW  568   7.063  10.931   3.960 -0.0109  0.2322 -0.0507
30213SOL    HW1  569   7.008  10.857   3.936 -1.2652  1.0731  0.1294
30213SOL    HW2  570   7.114  10.900   4.034 -2.3996  0.3001  1.7461
30214SOL     OW  571   1.184   6.002  13.187  0.5695 -0.1147  0.3039
30214SOL    HW1  572   1.175   5.907  13.176  1.9194 -0.0501 -1.7257
30214SOL    HW2  573   1.094   6.034  13.190 -0.0084 -1.0984 -3.0407
30215SOL     OW  574   9.222   2.073  12.933 -0.2113  0.3179  0.5082
30215SOL    HW1  575   9.207   2.061  13.027  0.5769 -0.3660  0.5588
30215SOL    HW2  576   9.252   1.987  12.902 -0.0580  0.6467 -0.2873
30216SOL     OW  577   1.471   1.271   1.855  0.9435  0.2967 -1.4214
30216SOL    HW1  578   1.539   1.242   1.795  0.6108  0.3943 -1.8455
30216SOL    HW2  579   1.514   1.339   1.908  1.4698 -0.3550 -0.9997
30217SOL     OW  580   3.633   9.982   8.844  0.0989 -0.3503  0.7462
30217SOL    HW1  581   3.657   9.910   8.902 -1.9843 -3.4740 -1.8908
30217SOL    HW2  582   3.542  10.000   8.864 -0.4617 -1.0390 -0.9358
30218SOL     OW  583   9.592  11.349   8.221  0.2252 -0.6583  0.3554
30218SOL    HW1  584   9.658  11.281   8.204  0.8677  0.0719 -0.1770
30218SOL    HW2  585   9.604  11.411   8.149 -0.2532  0.0892  0.9179
30219SOL     OW  586   0.261   6.441   2.803  0.3056  0.5928 -0.0932
30219SOL    HW1  587   0.311   6.523   2.800 -0.1650  0.8999  0.4057
30219SOL    HW2  588   0.302   6.386   2.736  2.3371  0.2477  1.3352
30220SOL     OW  589   6.976   6.228   2.900 -0.4229  0.4827 -0.2325
30220SOL    HW1  590   6.996   6.223   2.807  0.4619  0.2327 -0.0400
30220SOL    HW2  591   6.953   6.319   2.916 -0.6664  0.5073 -0.7025
30221SOL     OW  592  11.206  10.015   8.876 -0.4741  0.0145  0.2743
30221SOL    HW1  593  11.117  10.004   8.907 -0.3579  1.2429  1.1151
30221SOL    HW2  594  11.197  10.059   8.791 -0.7296 -2.0140 -0.8159
30222SOL     OW  595   1.333   2.213   8.095 -0.0158 -0.2586 -0.2333
30222SOL    HW1  596   1.326   2.162   8.175 -1.3447  2.0622  1.2511
30222SOL    HW2  597   1.419   2.255   8.100  1.2680 -2.4761 -1.6646
30223SOL     OW  598  12.926   0.942   0.078  0.0048  0.5655 -0.6174
30223SOL    HW1  599  12.998   0.977   0.130  0.2859  0.1890 -0.7486
30223SOL    HW2  600  12.851   0.995   0.102  0.0251  0.1054  0.5223
30224SOL     OW  601   9.771  11.866   9.796 -0.1320 -0.2877  0.2289
30224SOL    HW1  602   9.742  11.955   9.777 -1.1553 -0.2547  1.7273
30224SOL    HW2  603   9.693  11.812   9.788 -0.0150 -0.6809  1.4193
30225SOL     OW  604   1.833   4.507   3.598  0.6693  0.5273  0.1742
30225SOL    HW1  605   1.909   4.529   3.651 -0.4059  0.4106  1.8667
30225SOL    HW2  606   1.758   4.527   3.655 -0.5373 -0.0601 -1.1463
30226SOL     OW  607   0.231   1.304   0.574  0.5351  0.4382 -0.1295
30226SOL    HW1  608   0.320   1.273   0.554  0.7296 -0.4329  1.8547
30226SOL    HW2  609   0.179   1.276   0.500  1.6460 -0.3407 -0.6459
30227SOL     OW  610   4.155   3.497   2.352 -0.2975 -0.1125  0.1391
30227SOL    HW1  611   4.168   3.434   2.282 -0.2906 -0.3431  0.3470
30227SOL    HW2  612   4.167   3.583   2.310  2.1215 -0.2828  0.3402
30228SOL     OW  613  11.112   5.282   8.866 -0.0035  0.3158  0.0545
30228SOL    HW1  614  11.196   5.241   8.846 -0.0634  0.1125  0.2182
30228SOL    HW2  615  11.051   5.245   8.801  0.6013  2.5970 -1.9768
30229SOL     OW  616   4.034   8.977   3.856 -0.1457 -0.5587  0.0805
30229SOL    HW1  617   4.013   8.913   3.924  0.3784  0.3396  1.1074
30229SOL    HW2  618   3.974   9.050   3.872  2.0367  1.0184  1.5881
30230SOL     OW  619   2.211   7.676   5.260  0.1822 -0.2856 -0.4800
30230SOL    HW1  620   2.225   7.591   5.303  0.4983 -0.3005 -0.6142
30230SOL    HW2  621   2.270   7.736   5.305  0.1372 -0.1885 -0.5509
30231SOL     OW  622   4.050   4.720  12.598  0.2472 -0.1156 -0.1226
30231SOL    HW1  623   4.015   4.638  12.634 -1.6369  0.5841 -0.2583
30231SOL    HW2  624   4.038   4.712  12.503 -0.9644  0.7192 -0.0656
30232SOL     OW  625  12.266   4.162  10.016 -0.0102  0.1195 -0.6206
30232SOL    HW1  626  12.232   4.074  10.000 -1.3817  0.4621  0.2124
30232SOL    HW2  627  12.225   4.215   9.948 -0.7275  0.4391  0.0468
30233SOL     OW  628   1.638   2.805   5.549  0.0711  0.2674 -0.2236
30233SOL    HW1  629   1.544   2.790   5.536 -0.0464  0.3121  0.5317
30233SOL    HW2  630   1.649   2.804   5.644  0.5362  1.9721 -0.2197
30234SOL     OW  631   6.438   6.510   8.549  0.1354 -0.7071  0.2710
30234SOL    HW1  632   6.507   6.483   8.610  0.2182 -0.0651  0.4797
30234SOL    HW2  633   6.420   6.601   8.573 -0.4439 -0.7197 -0.1025
30235SOL     OW  634   5.299  11.563   7.535  0.3353 -0.0980  0.2912
30235SOL    HW1  635   5.311  11.468   7.543 -1.5563 -0.4410 -0.5387
30235SOL    HW2  636   5.301  11.596   7.625  1.7877 -0.7821  0.5442
30236SOL     OW  637  12.078   6.160  12.521 -0.0389  0.0887 -0.2592
30236SOL    HW1  638  12.067   6.147  12.615  1.0141  0.0090 -0.1394
30236SOL    HW2  639  12.017   6.098  12.481 -0.3666 -0.0003  0.3608
30237SOL     OW  640  12.299   9.770   4.653  0.1186  0.3551  0.0053
30237SOL    HW1  641  12.282   9.693   4.598  2.9755 -0.1347 -0.3772
30237SOL    HW2  642  12.340   9.833   4.594  0.5741  0.9786  0.9580
30238SOL     OW  643  12.115   2.131   5.703 -0.3237 -0.9028 -0.4403
30238SOL    HW1  644  12.045   2.196   5.701  0.4484  0.0080  0.6139
30238SOL    HW2  645  12.179   2.162   5.639  0.7344  0.2623  1.0834
30239SOL     OW  646   9.971   6.507  10.405  0.3263 -0.5537 -0.3897
30239SOL    HW1  647  10.039   6.514  10.472  0.1834  0.3274 -0.3182
30239SOL    HW2  648   9.907   6.446  10.442  1.6015 -2.3127 -0.9395
30240SOL     OW  649   2.175   9.292   4.693  0.3905 -0.1812  0.0760
30240SOL    HW1  650   2.228   9.324   4.620  0.5085 -2.2241 -0.8164
30240SOL    HW2  651   2.098   9.348   4.693  0.5992  0.1624 -1.3364
30241SOL     OW  652   4.161   1.015   5.637  0.2313 -0.1699  0.1922
30241SOL    HW1  653   4.193   1.101   5.664 -0.7770 -0.0048  0.9220
30241SOL    HW2  654   4.238   0.971   5.600  0.9225  0.7685  0.4799
30242SOL     OW  655  10.956   7.221   1.086  0.3310 -0.2729  0.6273
30242SOL    HW1  656  11.032   7.176   1.121 -0.8662 -3.1206 -0.1400
30242SOL    HW2  657  10.977   7.314   1.094  3.2927 -0.9259  1.6279
30243SOL     OW  658   9.624  11.342   2.887  0.5602  0.6480 -0.5633
30243SOL    HW1  659   9.588  11.390   2.961 -0.9317  1.2453 -1.6412
30243SOL    HW2  660   9.705  11.389   2.865  0.9857  0.5024  0.5986
30244SOL     OW  661   1.112   6.036   1.129 -0.1155  0.0747  0.5255
30244SOL    HW1  662   1.147   6.017   1.216 -1.4286 -0.3862  0.9740
30244SOL    HW2  663   1.132   5.958   1.077 -0.9435 -0.4288  0.9390
30245SOL     OW  664  13.122   5.360   7.188  0.1488 -0.2682  0.0437
30245SOL    HW1  665  13.050   5.376   7.250  2.1740  0.9264  2.2763
30245SOL    HW2  666  13.123   5.437   7.132 -0.5616 -0.4957 -0.2936
30246SOL     OW  667  11.783   6.858   1.029  0.2180  0.5024 -0.0118
30246SOL    HW1  668  11.708   6.906   1.063 -0.0146  2.2090 -2.5919
30246SOL    HW2  669  11.749   6.814   0.951  1.1217 -1.6056  0.7387
30247SOL     OW  670   2.838   7.159   4.162 -0.1502 -0.5392  0.1217
30247SOL    HW1  671   2.914   7.196   4.205 -2.1338 -0.2677  3.7678
30247SOL    HW2  672   2.818   7.219   4.090  1.3625  0.9543  0.9101
30248SOL     OW  673   7.706  11.477   8.840  0.2730  0.0046  0.1786
30248SOL    HW1  674   7.737  11.473   8.931 -0.4611 -1.5025  0.4006
30248SOL    HW2  675   7.613  11.500   8.847 -0.0281 -1.0600 -0.1077
30249SOL     OW  676   5.590   8.329   8.638  0.1540  0.4769  0.5756
30249SOL    HW1  677   5.522   8.283   8.688 -0.0477  0.6939  0.4966
30249SOL    HW2  678   5.661   8.264   8.631  0.0845  0.3582  0.9269
30250SOL     OW  679  10.640  11.171   6.825  0.3554 -0.3722  0.0146
30250SOL    HW1  680  10.692  11.095   6.852  0.3937 -0.4788 -0.3613
30250SOL    HW2  681  10.636  11.165   6.730  0.4736  0.1715 -0.0291
30251SOL     OW  682   1.746  11.365   9.176 -0.0082  0.1201 -0.1611
30251SOL    HW1  683   1.778  11.302   9.241  1.5504  1.2235  0.1975
30251SOL    HW2  684   1.750  11.318   9.093  0.3400 -0.5256  0.2105
30252SOL     OW  685   4.747   5.471   9.654 -0.6525  0.2377 -0.3528
30252SOL    HW1  686   4.653   5.491   9.649 -0.6781  0.6891  1.4698
30252SOL    HW2  687   4.788   5.535   9.595 -1.4877 -0.0820 -1.3040
30253SOL     OW  688   6.749   0.259  12.829  0.1392  0.3420  0.8476
30253SOL    HW1  689   6.841   0.233  12.828  0.4917  1.5080  0.0577
30253SOL    HW2  690   6.700   0.177  12.837  1.2370 -0.3016  1.1685
30254SOL     OW  691  10.410   0.748   0.237  0.2186 -0.2541 -0.1969
30254SOL    HW1  692  10.505   0.737   0.238  0.2496 -0.6180 -2.6611
30254SOL    HW2  693  10.380   0.707   0.319  2.1559 -0.0748  0.6435
30255SOL     OW  694   9.731  10.059  13.179 -0.1382 -0.2812 -0.5419
30255SOL    HW1  695   9.687  10.007  13.113 -0.2996  1.2434 -1.7057
30255SOL    HW2  696   9.823  10.034  13.172 -0.0651  0.2253 -1.7593
30256SOL     OW  697   6.325   7.400   9.776 -0.1028 -0.2110  0.2181
30256SOL    HW1  698   6.283   7.337   9.834 -1.9902  0.8801  0.1210
30256SOL    HW2  699   6.274   7.481   9.787  1.2925  0.8618 -0.7812
30257SOL     OW  700   6.466   0.358  11.279 -0.1816 -0.7098 -0.2134
30257SOL    HW1  701   6.430   0.282  11.325 -1.8638 -1.1478 -2.1173
30257SOL    HW2  702   6.560   0.355  11.297 -0.6030 -1.3855  2.3184
30258SOL     OW  703  12.537  11.781   4.153  0.3877 -0.2652 -0.0380
30258SOL    HW1  704  12.624  11.821   4.149  0.3465 -0.2087 -0.3223
30258SOL    HW2  705  12.493  11.810   4.074  0.0328 -0.1184  0.2116
30259SOL     OW  706   7.023   9.244   0.526  0.2769 -0.0145 -0.1467
30259SOL    HW1  707   6.955   9.298   0.485  0.9138 -0.0179 -1.2517
30259SOL    HW2  708   6.984   9.157   0.532 -0.8045  0.5545  1.7618
30260SOL     OW  709   5.008  11.784   4.022  0.3863 -0.2134 -0.3309
30260SOL    HW1  710   5.097  11.812   4.000 -0.2107  2.2683  0.1113
30260SOL    HW2  711   4.955  11.864   4.015 -1.4677 -1.2054  1.3293
30261SOL     OW  712  11.591   1.482   2.998  0.5743  0.0905 -0.2605
30261SOL    HW1  713  11.638   1.412   3.043  0.6597  0.7297  0.6709
30261SOL    HW2  714  11.653   1.512   2.931  0.9445 -0.0234  0.0243
30262SOL     OW  715   4.674   6.381   0.703  0.1618  0.4364 -0.1258
30262SOL    HW1  716   4.692   6.301   0.753 -1.7836  0.1901  0.2244
30262SOL    HW2  717   4.662   6.350   0.613 -0.4830  0.3370 -0.0091
30263SOL     OW  718   7.994  11.997   4.145  0.2605 -0.7802 -0.2443
30263SOL    HW1  719   8.046  12.041   4.212 -2.2071  0.0618  1.2676
30263SOL    HW2  720   7.978  11.910   4.180  1.0543 -1.2297 -0.9607
30264SOL     OW  721   7.163   9.880   6.120  0.2693 -0.4021  0.2201
30264SOL    HW1  722   7.218   9.808   6.150  1.6858  1.3172  2.0722
30264SOL    HW2  723   7.211   9.959   6.144 -1.6354  1.2032 -0.8630
30265SOL     OW  724   1.634   8.155   7.375 -0.5503 -0.0827  0.8303
30265SOL    HW1  725   1.685   8.236   7.367  0.2234 -0.3025  2.9695
30265SOL    HW2  726   1.564   8.165   7.311 -1.5558  3.1129  2.2324
30266SOL     OW  727   9.305   7.371   5.038  0.1226  0.0475  0.2219
30266SOL    HW1  728   9.381   7.401   4.988 -0.2306 -0.1710 -0.4436
30266SOL    HW2  729   9.301   7.431   5.113  1.0625 -0.0548  0.3633
30267SOL     OW  730   0.963   3.420   5.003  0.8021 -0.8185  0.1805
30267SOL    HW1  731   1.052   3.385   5.009  0.6503 -2.1941 -3.4116
30267SOL    HW2  732   0.911   3.348   4.967 -0.9785  1.0671 -1.2385
30268SOL     OW  733   0.961  12.825   3.005 -0.6521  0.0343 -0.3451
30268SOL    HW1  734   0.944  12.918   3.015 -0.1061  0.0203  0.8205
30268SOL    HW2  735   1.047  12.811   3.044 -1.5837 -1.2927  1.3562
30269SOL     OW  736   0.910   7.173  13.231 -0.3382 -0.3394  0.5157
30269SOL    HW1  737   0.898   7.196  13.139 -0.8263 -0.4237  0.5539
30269SOL    HW2  738   0.850   7.231  13.278 -1.7681 -1.7983  0.5943
30270SOL     OW  739   5.546  12.519  12.332 -0.4167  0.1453  0.5306
30270SOL    HW1  740   5.466  12.545  12.285 -0.3592 -1.9255 -0.8112
30270SOL    HW2  741   5.615  12.571  12.290 -0.5401 -0.8149 -0.9297
30271SOL     OW  742   7.404   8.631  13.307  0.2580 -0.2480 -0.5302
30271SOL    HW1  743   7.498   8.635  13.290  0.4127 -2.1846 -0.3101
30271SOL    HW2  744   7.370   8.570  13.241 -0.5954 -0.7821  0.3768
30272SOL     OW  745   7.544   0.781   1.488 -0.6037 -0.0069  0.0705
30272SOL    HW1  746   7.640   0.779   1.486 -0.5910  0.6694 -0.9507
30272SOL    HW2  747   7.522   0.868   1.455 -1.5780 -0.2726  0.0031
30273SOL     OW  748   5.915  12.278   9.524  0.4292 -0.0666 -0.7130
30273SOL    HW1  749   5.938  12.241   9.609 -0.2395  1.9888  0.4219
30273SOL    HW2  750   5.845  12.223   9.491 -1.1325  0.6077  1.3123
30274SOL     OW  751   1.965   4.350   0.157  0.7938  0.1220 -0.1761
30274SOL    HW1  752   1.920   4.272   0.189  0.8185  0.1387 -0.1005
30274SOL    HW2  753   2.045   4.316   0.117  1.6938  0.2362  1.4274
30275SOL     OW  754   9.860  12.032  10.577  0.0994  0.3060  0.0911
30275SOL    HW1  755   9.884  11.988  10.495 -0.9898 -0.4322  0.1426
30275SOL    HW2  756   9.902  11.980  10.646  0.5891  0.6236  0.0366
30276SOL     OW  757  10.432  11.805   2.501  0.1348  0.3908 -0.2399
30276SOL    HW1  758  10.460  11.883   2.452 -1.6453  0.5649 -1.0772
30276SOL    HW2  759  10.373  11.839   2.568  1.2405 -0.0295  0.9884
30277SOL     OW  760   7.047   2.772   1.029  0.2065 -0.6162 -0.4976
30277SOL    HW1  761   7.046   2.755   0.935 -0.5485  0.9819 -0.8183
30277SOL    HW2  762   6.958   2.752   1.058 -0.1439  0.7846 -0.5292
30278SOL     OW  763  11.241   6.042   2.570 -0.2510  0.1804  0.9363
30278SOL    HW1  764  11.182   6.097   2.518 -1.6130 -0.9776  1.2104
30278SOL    HW2  765  11.301   6.105   2.612 -0.5705  1.2987 -0.2121
30279SOL     OW  766   7.621   9.976   1.286 -0.5111  0.2644 -0.6689
30279SOL    HW1  767   7.585  10.064   1.292 -1.4712 -0.1188 -0.5454
30279SOL    HW2  768   7.565   9.923   1.344  0.0672 -0.4135 -0.7139
30280SOL     OW  769  12.969  11.435   6.516  0.1443  0.2405  0.0575
30280SOL    HW1  770  12.981  11.401   6.427  1.6047 -0.9054  0.6324
30280SOL    HW2  771  12.903  11.378   6.555 -1.7729  1.8066 -0.7759
30281SOL     OW  772   8.753   6.832   9.024 -0.2718  0.1858  0.3648
30281SOL    HW1  773   8.726   6.762   8.965  0.8153  1.3277 -1.5947
30281SOL    HW2  774   8.825   6.794   9.074  0.0349 -0.2466 -0.3832
30282SOL     OW  775   5.036   6.649   3.429  0.8899 -0.5920  0.9446
30282SOL    HW1  776   5.051   6.722   3.490 -2.5509  1.2206 -0.0968
30282SOL    HW2  777   4.958   6.605   3.462  1.0553 -1.8245 -0.2097
30283SOL     OW  778  11.678  12.381   2.700  0.5659 -0.2868 -0.4130
30283SOL    HW1  779  11.698  12.471   2.727  2.5914 -0.7615 -0.1218
30283SOL    HW2  780  11.742  12.328   2.748  1.1337 -1.6366 -2.5519
30284SOL     OW  781  11.749   9.098  11.384 -0.6050 -0.2567 -0.4120
30284SOL    HW1  782  11.831   9.051  11.397 -0.0168  0.5296 -1.1687
30284SOL    HW2  783  11.682   9.030  11.384  0.1101 -0.9768 -0.4309
30285SOL     OW  784  10.962   3.113   1.587  0.0552  0.0516  0.5073
30285SOL    HW1  785  10.886   3.111   1.529  0.8049 -3.3080 -0.6145
30285SOL    HW2  786  11.029   3.160   1.538  0.0361 -0.9661 -0.5498
30286SOL     OW  787  11.925   0.258   9.281 -0.1966  0.0993 -0.2423
30286SOL    HW1  788  11.950   0.297   9.365  1.4660 -0.3636 -0.4778
30286SOL    HW2  789  11.895   0.332   9.228 -1.2327  0.4000  0.7324
30287SOL     OW  790   4.737   1.229   6.273  0.0180  0.0757 -0.2062
30287SOL    HW1  791   4.706   1.141   6.293  1.1242 -0.8689 -2.2601
30287SOL    HW2  792   4.818   1.238   6.323 -0.0576 -0.1258 -0.0466
30288SOL     OW  793   2.507  11.864   7.286  0.1310  0.3394  0.1033
30288SOL    HW1  794   2.544  11.857   7.374  1.0985  0.4252 -0.2856
30288SOL    HW2  795   2.520  11.778   7.247 -0.8383  0.1240  0.2463
30289SOL     OW  796  10.645   0.721   9.761 -0.2745  0.1127  0.4067
30289SOL    HW1  797  10.702   0.665   9.813  1.0233  1.0843  0.0806
30289SOL    HW2  798  10.618   0.791   9.821 -1.0175 -0.2532  0.5151
30290SOL     OW  799   0.676   9.921   1.530 -0.2632 -0.5735  0.2384
30290SOL    HW1  800   0.753   9.881   1.488  0.7715 -1.6852  2.9856
30290SOL    HW2  801   0.607   9.856   1.518 -0.8082  0.3192 -2.0172
30291SOL     OW  802  13.013   3.280  10.500 -0.1475  0.1173  0.6937
30291SOL    HW1  803  12.928   3.257  10.462  0.5526 -1.3986 -0.0225
30291SOL    HW2  804  13.007   3.250  10.591 -0.4429  0.2127  0.7086
30292SOL     OW  805   0.533   5.817   5.258 -0.3414  0.5954  0.0040
30292SOL    HW1  806   0.499   5.841   5.344  0.8548  1.0253  0.3885
30292SOL    HW2  807   0.578   5.733   5.272 -0.5763  0.4170 -0.3117
30293SOL     OW  808   0.804   7.923   5.052  0.2327 -0.0295 -0.3006
30293SOL    HW1  809   0.862   7.879   4.990  0.6206 -1.4125  1.0012
30293SOL    HW2  810   0.830   8.015   5.047  1.9679 -0.4871 -0.3754
30294SOL     OW  811   1.756   5.133   1.251  0.3805  0.0017  0.3277
30294SOL    HW1  812   1.710   5.051   1.271 -1.8901  0.6886 -1.6214
30294SOL    HW2  813   1.824   5.108   1.189 -0.3848 -0.4136 -0.3581
30295SOL     OW  814   7.703   2.038   9.654 -0.2317 -0.1719  0.1151
30295SOL    HW1  815   7.666   2.124   9.633 -1.1137 -0.1211  1.6971
30295SOL    HW2  816   7.772   2.025   9.590 -1.5562  0.7170 -1.5770
30296SOL     OW  817  11.796   9.298  12.578 -0.0152  0.5085 -0.3861
30296SOL    HW1  818  11.761   9.319  12.491  1.1851  1.4716 -0.6549
30296SOL    HW2  819  11.805   9.202  12.578 -0.3065  0.4746 -1.2070
30297SOL     OW  820   2.372   6.078   3.084 -0.6885  0.3090  0.4646
30297SOL    HW1  821   2.292   6.052   3.131  0.5358 -1.3795  1.7960
30297SOL    HW2  822   2.379   6.015   3.012  0.0100 -0.3588  1.0803
30298SOL     OW  823   8.849   8.795   9.580  0.4612  0.0929  0.0310
30298SOL    HW1  824   8.870   8.780   9.488  0.7063  0.1101  0.0833
30298SOL    HW2  825   8.755   8.813   9.580 -0.0091 -2.0152  0.0278
30299SOL     OW  826   3.180   0.324   2.670  0.8658  0.6041  0.0840
30299SOL    HW1  827   3.258   0.368   2.636  1.5274 -1.5941 -1.5074
30299SOL    HW2  828   3.200   0.306   2.761  2.5603 -0.5148 -0.4717
30300SOL     OW  829   5.288   8.299  13.139  0.3688 -0.1455  0.5667
30300SOL    HW1  830   5.230   8.337  13.073  2.0890  1.2879 -0.2060
30300SOL    HW2  831   5.266   8.345  13.220  0.4543  0.4427  0.2603
30301SOL     OW  832   7.815   4.603   9.039 -0.4084  0.3391  0.1657
30301SOL    HW1  833   7.894   4.609   8.986 -0.9789 -1.6482 -1.0135
30301SOL    HW2  834   7.823   4.519   9.085 -3.3295 -1.7603 -2.7331
30302SOL     OW  835   6.254   5.705   0.339  0.4611 -0.1438  0.7825
30302SOL    HW1  836   6.212   5.638   0.285  1.4985 -0.5267  0.4203
30302SOL    HW2  837   6.209   5.786   0.316  1.8393  0.0008 -1.8652
30303SOL     OW  838   4.889   8.271   4.679  0.0551  0.8860  0.0304
30303SOL    HW1  839   4.851   8.291   4.764  0.1550  1.6593 -0.1013
30303SOL    HW2  840   4.953   8.340   4.664  0.4454  0.4361 -0.4212
30304SOL     OW  841   9.568  11.145   7.857  0.0797 -0.2971 -0.3226
30304SOL    HW1  842   9.579  11.054   7.829  1.7663 -0.9103  2.0146
30304SOL    HW2  843   9.536  11.190   7.779 -0.4340 -2.7869 -1.6802
30305SOL     OW  844  11.244   0.997   8.074 -0.6376  0.6860 -0.5137
30305SOL    HW1  845  11.210   0.991   7.985  0.2150  1.4527 -0.9012
30305SOL    HW2  846  11.218   0.914   8.115 -2.1280  0.8466 -1.0760
30306SOL     OW  847  13.262  13.290   9.822 -0.4540  0.1629 -0.4200
30306SOL    HW1  848  13.243  13.269   9.730 -1.4724  0.1007 -0.2098
30306SOL    HW2  849  13.312  13.215   9.854 -0.2087  0.1239 -0.8878
30307SOL     OW  850  11.505   3.985   4.527 -0.1574 -0.0781  0.0115
30307SOL    HW1  851  11.483   4.060   4.473  0.3196  1.7114  2.1456
30307SOL    HW2  852  11.422   3.939   4.540 -0.3988 -0.1415 -1.5810
30308SOL     OW  853   3.377   0.631   5.784 -0.4619  0.0490  0.7078
30308SOL    HW1  854   3.422   0.693   5.841 -1.1409  1.9376 -0.6924
30308SOL    HW2  855   3.439   0.558   5.774  1.8508  1.9981 -0.2122
30309SOL     OW  856   3.480   5.599  12.981 -0.2404 -0.3334 -0.8963
30309SOL    HW1  857   3.444   5.631  12.899  1.2188  3.1947 -0.3412
30309SOL    HW2  858   3.405   5.564  13.029 -1.5000 -0.3380 -2.7831
30310SOL     OW  859   9.804   8.846  12.081 -0.0758 -0.3505 -0.1327
30310SOL    HW1  860   9.825   8.939  12.088 -0.4734 -0.1558 -1.1905
30310SOL    HW2  861   9.877   8.801  12.122  0.5489  0.4082 -0.3940
30311SOL     OW  862   5.704  12.374   8.329 -0.0157 -0.1150 -0.3492
30311SOL    HW1  863   5.704  12.305   8.263  0.0073 -0.9375  0.5069
30311SOL    HW2  864   5.794  12.376   8.361  0.6155  1.9231 -1.9989
30312SOL     OW  865  12.920   6.205   9.145 -0.0698  0.8352 -0.1062
30312SOL    HW1  866  12.881   6.140   9.204  1.2199 -1.1694 -1.3682
30312SOL    HW2  867  12.933   6.282   9.201  1.3408 -1.0398  2.3497
30313SOL     OW  868   2.838  10.429   2.008 -0.0805  0.6395 -0.2277
30313SOL    HW1  869   2.804  10.505   1.961 -3.2801 -1.2891 -1.3491
30313SOL    HW2  870   2.846  10.361   1.941  0.0223 -0.8122  1.2019
30314SOL     OW  871   2.422  10.288   9.358  0.3596 -0.3061 -0.4407
30314SOL    HW1  872   2.353  10.224   9.378 -0.0183 -0.1262 -1.1332
30314SOL    HW2  873   2.395  10.367   9.404  0.1665 -0.2722 -0.6115
30315SOL     OW  874   4.185   7.506   0.751  0.3051  0.5159 -0.4417
30315SOL    HW1  875   4.102   7.488   0.795  0.2113 -1.8492 -1.4170
30315SOL    HW2  876   4.238   7.550   0.817 -1.4364  1.3566  0.4496
30316SOL     OW  877   3.447   1.424   9.562 -0.0035  0.0515  0.4473
30316SOL    HW1  878   3.494   1.501   9.592 -0.4106  0.4941 -0.0337
30316SOL    HW2  879   3.375   1.458   9.509  0.9893 -0.6773 -1.5109
30317SOL     OW  880   0.343   3.579   7.371  0.1081  0.9675 -0.1193
30317SOL    HW1  881   0.386   3.585   7.456 -2.1168 -1.0717  1.2748
30317SOL    HW2  882   0.258   3.620   7.383  0.1786  1.6662 -1.7405
30318SOL     OW  883   6.763   6.533  12.567 -0.5344  0.5467  0.5560
30318SOL    HW1  884   6.796   6.615  12.604 -1.0663  1.5677 -1.1088
30318SOL    HW2  885   6.692   6.560  12.508 -0.1905 -1.0280 -0.6486
30319SOL     OW  886   2.041   0.349   3.540 -0.2332  0.4255 -0.6749
30319SOL    HW1  887   2.108   0.282   3.557  0.0427  1.1488  1.3359
30319SOL    HW2  888   1.961   0.311   3.575 -0.2257  0.8330 -0.2102
30320SOL     OW  889  13.208   0.063   9.299  0.2573  0.6066 -0.2156
30320SOL    HW1  890  13.120   0.096   9.283 -0.0937 -0.6897 -1.0730
30320SOL    HW2  891  13.265   0.117   9.244 -0.3275 -0.2887 -1.7469
30321SOL     OW  892   3.302   7.553   3.291 -0.4682  0.3893  0.5178
30321SOL    HW1  893   3.378   7.611   3.299 -1.4848  1.8431  0.1010
30321SOL    HW2  894   3.242   7.601   3.233 -0.4766 -2.0475 -1.6759
30322SOL     OW  895   8.006   4.681  12.663  0.0826 -0.7049 -0.1082
30322SOL    HW1  896   7.982   4.604  12.713 -0.7425  0.0195  0.6613
30322SOL    HW2  897   7.943   4.682  12.590  2.0884 -2.4715 -2.0016
30323SOL     OW  898   0.728  12.754   4.324 -0.1858 -0.0739  0.6504
30323SOL    HW1  899   0.766  12.730   4.409  0.6075 -0.7333  0.1235
30323SOL    HW2  900   0.647  12.800   4.346  1.7279  3.0766  1.9526
30324SOL     OW  901   8.081  12.647  10.980  0.0441  0.5186  0.3420
30324SOL    HW1  902   8.148  12.595  11.024 -1.2825  0.2161  2.1596
30324SOL    HW2  903   8.005  12.642  11.039 -1.6754  0.5985 -1.7397
30325SOL     OW  904   4.026   0.784   1.672  0.1644 -0.0133  0.2308
30325SOL    HW1  905   4.074   0.838   1.609 -0.1272 -0.0857 -0.0563
30325SOL    HW2  906   4.059   0.813   1.758  0.7401 -0.0849  0.0406
30326SOL     OW  907   5.371   3.591   8.966 -0.2312 -0.1457  0.0139
30326SOL    HW1  908   5.430   3.663   8.944  0.4694 -0.4224  0.8994
30326SOL    HW2  909   5.424   3.512   8.952 -1.0811 -0.5262 -1.2359
30327SOL     OW  910   0.642   3.527   2.191  0.2841 -0.1039  0.1386
30327SOL    HW1  911   0.551   3.547   2.168 -0.4094 -0.6981  2.1958
30327SOL    HW2  912   0.686   3.515   2.106 -1.4455  0.5873 -0.8985
30328SOL     OW  913   2.950  11.113   0.176 -0.3039  0.5308  0.3536
30328SOL    HW1  914   2.983  11.178   0.115 -0.6391 -0.0750 -0.4880
30328SOL    HW2  915   2.858  11.136   0.188 -1.2495 -1.4308 -2.2400
30329SOL     OW  916   9.460  12.662   1.211  0.2068  0.5841  0.4633
30329SOL    HW1  917   9.515  12.617   1.275  2.8116  0.4679 -1.6894
30329SOL    HW2  918   9.489  12.754   1.215 -1.9320  1.2633  1.6854
30330SOL     OW  919   8.649   6.608   8.867 -0.5048 -0.0988  0.3597
30330SOL    HW1  920   8.555   6.615   8.848 -0.3080  0.9658 -0.3598
30330SOL    HW2  921   8.677   6.528   8.823 -0.6307  0.8467 -1.5891
30331SOL     OW  922   2.458   8.375  11.636 -0.3043  0.4358  0.5860
30331SOL    HW1  923   2.492   8.441  11.697 -0.6246  1.3585 -0.2022
30331SOL    HW2  924   2.442   8.424  11.555 -2.0115 -0.2889  0.4408
30332SOL     OW  925   4.431   0.839   4.562  0.8451 -0.3536 -0.0166
30332SOL    HW1  926   4.390   0.827   4.648 -0.3124  0.9497 -0.3391
30332SOL    HW2  927   4.391   0.772   4.506 -0.7552  0.7427 -0.2663
30333SOL     OW  928  12.538   5.138   2.129  0.2051  0.1878  0.3086
30333SOL    HW1  929  12.608   5.091   2.174  2.0602  1.5377 -1.0568
30333SOL    HW2  930  12.464   5.133   2.190  1.6025 -0.8416  2.0322
30334SOL     OW  931   1.174  11.675   4.727 -0.4520 -0.6943  0.4080
30334SOL    HW1  932   1.173  11.602   4.665  1.2496 -1.4739  1.2448
30334SOL    HW2  933   1.194  11.635   4.812  0.9501  0.7708  0.8178
30335SOL     OW  934   7.938   7.069   3.650 -0.0974  0.3014 -0.1443
30335SOL    HW1  935   7.955   7.053   3.743  1.4538  2.7656  0.0929
30335SOL    HW2  936   7.847   7.098   3.646 -0.1795  0.1486  0.5975
30336SOL     OW  937   7.652  11.568   0.552 -0.2700 -0.5747 -0.2021
30336SOL    HW1  938   7.581  11.625   0.580 -0.5820 -0.7932 -0.5281
30336SOL    HW2  939   7.709  11.624   0.500  1.1510  0.2274  2.0722
30337SOL     OW  940   8.188   0.675   0.514  0.2785  0.0999 -0.5351
30337SOL    HW1  941   8.262   0.628   0.474  0.2820  0.9145 -1.5362
30337SOL    HW2  942   8.225   0.717   0.591  0.3625 -1.1972  0.1634
30338SOL     OW  943   0.552   6.674   7.571  0.2089 -0.0216 -0.3548
30338SOL    HW1  944   0.479   6.664   7.510  0.0242 -0.1153 -0.1231
30338SOL    HW2  945   0.613   6.732   7.527 -0.0932  0.2078 -0.4748
30339SOL     OW  946   5.726   5.335   0.760  0.0937  0.1970 -0.1728
30339SOL    HW1  947   5.697   5.375   0.678  0.4246  0.9959  0.0896
30339SOL    HW2  948   5.815   5.305   0.742  0.5759  1.3363  0.1880
30340SOL     OW  949  11.575   1.255  11.740 -0.8346  0.0716 -0.4183
30340SOL    HW1  950  11.651   1.213  11.780 -2.2517 -1.3664  0.9198
30340SOL    HW2  951  11.596   1.348  11.740  1.1054 -0.3215 -0.5476
30341SOL     OW  952   7.049   9.826   0.418  0.0230 -0.1569  0.1493
30341SOL    HW1  953   7.090   9.834   0.332  0.5219 -0.7096  0.3279
30341SOL    HW2  954   6.983   9.757   0.408  0.0362 -0.1760  0.1931
30342SOL     OW  955   1.428   1.168   7.965 -0.8850 -0.3506  0.7015
30342SOL    HW1  956   1.477   1.142   7.888 -1.3483 -0.4442  0.4347
30342SOL    HW2  957   1.381   1.247   7.939 -0.3439  0.1297  1.1668
30343SOL     OW  958  12.023  12.751   1.883  0.1706  0.4935 -0.0118
30343SOL    HW1  959  11.947  12.808   1.867 -0.7674 -0.3845  1.2057
30343SOL    HW2  960  11.990  12.682   1.940  1.8304 -0.0743  0.3040
30344SOL     OW  961   8.404  10.760  11.526  0.0535  0.4947 -0.7070
30344SOL    HW1  962   8.323  10.790  11.485 -0.3924  0.7938  0.3750
30344SOL    HW2  963   8.415  10.671  11.492 -0.5660  0.5534 -1.0907
30345SOL     OW  964   0.159   3.667   6.474  0.5009  0.3850 -0.3469
30345SOL    HW1  965   0.182   3.653   6.566  0.4891  0.7105 -0.2947
30345SOL    HW2  966   0.173   3.581   6.433 -0.6493 -0.0878  0.1998
30346SOL     OW  967   5.067  11.793   1.965 -0.8626 -0.8493  0.7892
30346SOL    HW1  968   5.073  11.700   1.944 -1.9437 -0.8257  0.3021
30346SOL    HW2  969   5.013  11.796   2.044 -1.2117 -0.6084  0.5417
30347SOL     OW  970   7.382   1.256  12.509  0.2182  0.1520  0.0331
30347SOL    HW1  971   7.375   1.285  12.418 -0.2287  0.6633  0.2256
30347SOL    HW2  972   7.340   1.170  12.510 -2.0061  1.1904  0.2346
30348SOL     OW  973   7.206   7.517   0.609  0.2528 -0.5986 -0.2463
30348SOL    HW1  974   7.271   7.577   0.647  0.6874  0.7300 -2.8845
30348SOL    HW2  975   7.190   7.453   0.679  2.2990  0.6236  1.4938
30349SOL     OW  976   3.539   7.499   8.773  0.4450  0.0034  0.0926
30349SOL    HW1  977   3.610   7.528   8.831 -0.5984 -1.1123  2.0652
30349SOL    HW2  978   3.462   7.498   8.829 -0.0413 -4.2295 -0.3342
30350SOL     OW  979   5.144   2.300   3.311  0.5991  0.2456  0.0651
30350SOL    HW1  980   5.085   2.313   3.236  0.8231  0.3754 -0.0879
30350SOL    HW2  981   5.085   2.274   3.382  0.1263  1.9403  0.3488
30351SOL     OW  982   7.610   3.002   7.929 -0.5096 -0.3750  0.0336
30351SOL    HW1  983   7.594   3.057   7.852  1.5736 -0.2521 -0.3675
30351SOL    HW2  984   7.533   3.015   7.984 -2.3871 -0.9733 -2.2832
30352SOL     OW  985   4.063  10.189   5.234  0.2097 -0.8903 -0.3432
30352SOL    HW1  986   3.995  10.125   5.214  0.1480 -1.0206  0.2501
30352SOL    HW2  987   4.112  10.148   5.306  0.5124 -0.5135 -0.3372
30353SOL     OW  988  11.827   9.797   7.010 -0.3688 -0.0416  0.2474
30353SOL    HW1  989  11.787   9.854   6.944 -2.3925  0.5290  1.8596
30353SOL    HW2  990  11.884   9.856   7.060 -0.7840  0.1090  0.5543
30354SOL     OW  991   8.235   7.251  12.204  0.2539  0.1482 -0.3007
30354SOL    HW1  992   8.198   7.207  12.280  0.0409  1.3184  0.2947
30354SOL    HW2  993   8.172   7.320  12.183  1.2989  1.1361 -0.2687
30355SOL     OW  994   2.433   0.623   1.108 -0.4672 -0.5581  0.5879
30355SOL    HW1  995   2.476   0.555   1.057 -0.9886 -1.4155  1.2721
30355SOL    HW2  996   2.464   0.705   1.068  1.0383 -1.1488  0.4532
30356SOL     OW  997   6.805   5.822   1.629  0.1736 -0.0734  0.0765
30356SOL    HW1  998   6.887   5.778   1.650  0.0241 -0.4295 -0.0749
30356SOL    HW2  999   6.748   5.752   1.597  0.5564  0.4749 -2.0149
30357SOL     OW 1000   0.434   9.494   1.351  0.4331 -0.0788  0.8449
30357SOL    HW1 1001   0.347   9.464   1.378  0.5460  0.4818  1.8739
30357SOL    HW2 1002   0.419   9.538   1.267 -0.0944 -0.9422  0.4780
30358SOL     OW 1003   8.260   9.679   4.043  0.1204 -0.4502 -0.2225
30358SOL    HW1 1004   8.240   9.690   3.950 -1.5149 -0.2535  0.1214
30358SOL    HW2 1005   8.192   9.730   4.088  0.7023 -0.8015  1.0894
30359SOL     OW 1006   9.609   4.063   8.538  0.8173 -0.8373 -0.6700
30359SOL    HW1 1007   9.524   4.032   8.506  0.8041 -3.9656  1.8965
30359SOL    HW2 1008   9.670   4.048   8.466 -0.2778 -1.5066 -1.4795
30360SOL     OW 1009  12.619   8.871  10.799  0.0181 -1.0490 -0.1480
30360SOL    HW1 1010  12.647   8.806  10.735 -0.1172 -2.1037  0.8198
30360SOL    HW2 1011  12.626   8.826  10.883  0.9038  0.5171  0.6749
30361SOL     OW 1012   3.907  10.950  10.219  0.0702 -0.1584 -0.2809
30361SOL    HW1 1013   3.841  10.881  10.209 -0.3006  0.1503 -0.0139
30361SOL    HW2 1014   3.990  10.907  10.198  0.1821 -1.3536  2.1676
30362SOL     OW 1015   7.925   0.955   1.970 -0.2025  0.2273 -0.2052
30362SOL    HW1 1016   7.860   0.906   2.022  0.0774 -0.3770 -0.4144
30362SOL    HW2 1017   7.958   0.891   1.907  1.3301  0.2483  0.5429
30363SOL     OW 1018   9.637  11.710   1.913  0.1202  0.0247 -0.1122
30363SOL    HW1 1019   9.669  11.740   1.828  0.7172  0.4427  0.2522
30363SOL    HW2 1020   9.625  11.791   1.963  0.9289 -0.2902  0.5985
30364SOL     OW 1021  10.983   4.116   5.322  0.4659  0.1414  0.1636
30364SOL    HW1 1022  10.995   4.076   5.236 -0.7442  0.8105 -0.3432
30364SOL    HW2 1023  11.071   4.139   5.350  0.9169 -0.4455 -0.7112
30365SOL     OW 1024   5.250   9.140   6.997 -0.3081 -0.4860 -0.5219
30365SOL    HW1 1025   5.255   9.130   6.902 -1.5376 -1.9773 -0.4657
30365SOL    HW2 1026   5.161   9.172   7.013 -1.1836 -3.0096  0.2504
30366SOL     OW 1027   7.110   7.291   0.787 -0.0895 -0.1882  0.6335
30366SOL    HW1 1028   7.115   7.206   0.831 -2.4775 -0.6618  0.1624
30366SOL    HW2 1029   7.109   7.269   0.694  0.6491  0.4802  0.4588
30367SOL     OW 1030   5.271   2.337   3.767 -0.5343 -0.4450  0.2452
30367SOL    HW1 1031   5.343   2.398   3.756 -0.7826 -0.2194 -0.1634
30367SOL    HW2 1032   5.309   2.251   3.747 -0.1619 -0.4422  0.9223
30368SOL     OW 1033  10.405   3.959  12.352  0.1640  0.3354 -0.7446
30368SOL    HW1 1034  10.433   3.869  12.367  0.0844  0.4484  0.0886
30368SOL    HW2 1035  10.482   4.013  12.369 -0.2945  0.5736  0.6852
30369SOL     OW 1036   7.787   4.559   0.360  0.3803 -0.0342  0.4298
30369SOL    HW1 1037   7.720   4.562   0.428  0.1633 -0.2074  0.2252
30369SOL    HW2 1038   7.821   4.470   0.363 -0.8228 -0.5649 -0.8273
30370SOL     OW 1039   5.731   6.381   1.682 -0.2480  0.0910 -0.1374
30370SOL    HW1 1040   5.754   6.463   1.726  0.0323  0.4278 -0.8928
30370SOL    HW2 1041   5.813   6.350   1.644 -0.1795 -0.9854  0.8501
30371SOL     OW 1042  12.303   7.330   6.205 -0.4016  0.0378 -0.1455
30371SOL    HW1 1043  12.337   7.295   6.123 -0.0115 -0.5222  0.2507
30371SOL    HW2 1044  12.307   7.257   6.266  0.0001  0.6499  0.5796
30372SOL     OW 1045   4.163   9.188  13.117  0.3417 -0.1390  0.3106
30372SOL    HW1 1046   4.070   9.174  13.097  0.2844  1.6032 -0.8838
30372SOL    HW2 1047   4.209   9.161  13.038  0.7810 -0.2038  0.5865
30373SOL     OW 1048   7.017   1.368   3.967 -0.3253  0.3639 -0.1751
30373SOL    HW1 1049   7.107   1.393   3.986 -0.4048 -0.1104  0.9015
30373SOL    HW2 1050   7.014   1.359   3.872  0.5994  0.9806 -0.2749
30374SOL     OW 1051   7.547  10.244   9.941 -0.0910  0.0979 -0.3081
30374SOL    HW1 1052   7.491  10.322   9.942 -0.2832  0.0195 -1.9485
30374SOL    HW2 1053   7.541  10.209  10.030  0.7379  2.4541  0.7435
30375SOL     OW 1054   1.857   0.817   8.526 -0.1840 -0.1442  0.4658
30375SOL    HW1 1055   1.883   0.861   8.607 -1.6629 -0.0099  0.9019
30375SOL    HW2 1056   1.848   0.887   8.462  0.3759 -0.1798  0.3404
30376SOL     OW 1057   1.201  12.498   6.281  0.0564 -0.2485  0.4193
30376SOL    HW1 1058   1.183  12.451   6.199 -2.3773  0.7307  0.2861
30376SOL    HW2 1059   1.268  12.562   6.258  1.5798 -1.9263 -0.0166
30377SOL     OW 1060  11.713   6.495   5.737  0.5106  0.3087 -0.4590
30377SOL    HW1 1061  11.689   6.553   5.665 -1.8237  1.0645  0.7965
30377SOL    HW2 1062  11.764   6.550   5.797 -0.8848  0.8848  0.2669
30378SOL     OW 1063   3.727   2.146  11.619 -0.6441 -0.2835 -0.2793
30378SOL    HW1 1064   3.806   2.143  11.565 -0.0115 -1.8869  0.6454
30378SOL    HW2 1065   3.714   2.239  11.638  1.9181 -0.0393  0.7717
30379SOL     OW 1066   7.719   0.117   0.081 -0.8665  0.0873 -0.2995
30379SOL    HW1 1067   7.796   0.094   0.134 -1.0940  0.5213  0.2343
30379SOL    HW2 1068   7.707   0.211   0.097 -0.8946  0.2418 -1.1924
30380SOL     OW 1069  12.539   0.362  13.212  0.1669 -0.6746  0.2668
30380SOL    HW1 1070  12.628   0.385  13.241 -0.7405  1.6890  1.4301
30380SOL    HW2 1071  12.541   0.374  13.117  0.7471  0.8687  0.4394
30381SOL     OW 1072   1.803  12.409  12.820 -0.4669  0.0102  0.2953
30381SOL    HW1 1073   1.793  12.365  12.736 -1.9623  0.9749 -0.0679
30381SOL    HW2 1074   1.721  12.393  12.866  0.4431 -0.7586  1.7216
30382SOL     OW 1075  10.673   3.230   2.757  0.5752 -0.2252 -0.7061
30382SOL    HW1 1076  10.638   3.185   2.834  0.2225 -1.0350 -1.3188
30382SOL    HW2 1077  10.767   3.232   2.771  0.3415  2.3388  1.1625
30383SOL     OW 1078  12.316   0.743   2.760  0.7020  0.5225  0.2167
30383SOL    HW1 1079  12.247   0.749   2.693  0.2353 -1.5115  0.4519
30383SOL    HW2 1080  12.391   0.788   2.721  0.1904  0.0824 -1.3681
30384SOL     OW 1081   1.779  11.602   1.849 -0.0387  0.0824 -0.4868
30384SOL    HW1 1082   1.751  11.522   1.805 -0.5547 -1.0575  1.7242
30384SOL    HW2 1083   1.874  11.592   1.860 -0.3156 -1.1484  1.3112
30385SOL     OW 1084  11.794   6.861   0.453  0.3662  0.4629  0.4215
30385SOL    HW1 1085  11.813   6.860   0.359 -0.2339  1.1649  0.2910
30385SOL    HW2 1086  11.704   6.892   0.460 -0.6755 -2.3920  1.0569
30386SOL     OW 1087   4.238   1.447  10.398  0.2926  0.1416 -0.6545
30386SOL    HW1 1088   4.321   1.491  10.410  0.2044  0.2959 -0.6132
30386SOL    HW2 1089   4.217   1.459  10.305  0.4662 -0.1622 -0.7363
30387SOL     OW 1090  10.019   0.765   4.398  0.4476  0.3676  0.1597
30387SOL    HW1 1091  10.054   0.705   4.463  0.3170  0.7770  0.6091
30387SOL    HW2 1092  10.035   0.852   4.434  1.3203  0.6392 -0.8319
30388SOL     OW 1093   7.779  12.757  11.110 -0.1271 -0.2410 -0.3884
30388SOL    HW1 1094   7.738  12.703  11.177  0.6903  0.3329  0.6103
30388SOL    HW2 1095   7.853  12.799  11.155  1.6120 -1.2991 -2.1152
30389SOL     OW 1096   2.444   4.404   3.842 -0.0581 -0.1954  0.1451
30389SOL    HW1 1097   2.379   4.376   3.907  1.0867  1.7891  2.3221
30389SOL    HW2 1098   2.523   4.422   3.894  1.1785  0.7362 -1.9368
30390SOL     OW 1099   2.901   6.249   5.760 -0.3127 -0.4095 -0.3168
30390SOL    HW1 1100   2.827   6.222   5.705  1.3757 -1.9986 -1.9879
30390SOL    HW2 1101   2.928   6.169   5.806  0.1224  0.2309  0.5724
30391SOL     OW 1102   6.012  11.248  12.617 -0.2761  0.3044 -0.1876
30391SOL    HW1 1103   6.022  11.163  12.574  0.2392 -0.1029  0.7190
30391SOL    HW2 1104   6.083  11.302  12.582  1.2000 -0.5586  1.3948
30392SOL     OW 1105   3.971   8.895  10.740  0.6540  0.1719  0.7294
30392SOL    HW1 1106   3.929   8.862  10.820  0.1820  0.4480  0.6020
30392SOL    HW2 1107   4.057   8.853  10.738  0.9523  0.7135  1.7579
30393SOL     OW 1108   6.375   7.807   3.191 -0.0383  0.1235  0.3634
30393SOL    HW1 1109   6.291   7.854   3.195 -0.9304 -1.4718  1.4455
30393SOL    HW2 1110   6.368   7.753   3.112  0.1765  0.3141  0.2104
30394SOL     OW 1111   7.757   6.609   5.341  0.2270  0.2739 -0.5973
30394SOL    HW1 1112   7.767   6.599   5.435  0.8036 -0.0127 -0.6899
30394SOL    HW2 1113   7.846   6.621   5.308  0.0242  0.4325 -1.1010
30395SOL     OW 1114   3.980  12.552   1.548  0.3377 -0.3295 -0.1441
30395SOL    HW1 1115   3.889  12.570   1.528 -0.1717 -0.9592  1.4348
30395SOL    HW2 1116   4.030  12.612   1.493 -0.9702 -0.7609 -1.8699
30396SOL     OW 1117   1.729   5.968   9.627  0.1990  0.6428  0.3688
30396SOL    HW1 1118   1.801   5.928   9.677  1.0014  0.3297 -0.9778
30396SOL    HW2 1119   1.737   6.062   9.644 -0.2615  0.4598  1.7157
30397SOL     OW 1120   4.737   3.334   2.607  0.0525  0.4197 -0.6910
30397SOL    HW1 1121   4.718   3.393   2.534  2.9780  1.4752 -0.7488
30397SOL    HW2 1122   4.831   3.347   2.624 -0.0582 -1.3815  1.8617
30398SOL     OW 1123   1.653   6.132   7.425  0.3452  0.0906 -1.0061
30398SOL    HW1 1124   1.568   6.123   7.382  0.7481  1.4311 -2.1402
30398SOL    HW2 1125   1.679   6.223   7.408  1.9571 -0.2702 -0.5979
30399SOL     OW 1126   9.734   0.659   2.409 -0.7224  0.0348  0.3877
30399SOL    HW1 1127   9.714   0.715   2.484 -0.2578  1.2560 -0.3776
30399SOL    HW2 1128   9.743   0.719   2.336 -0.3309 -1.0619 -0.4915
30400SOL     OW 1129  12.540   4.018   5.364  0.4108 -0.4369 -0.0556
30400SOL    HW1 1130  12.623   4.052   5.331 -0.2392 -0.4588 -1.8171
30400SOL    HW2 1131  12.487   4.096   5.381  0.8707 -0.4066  1.4079
30401SOL     OW 1132  11.110  11.619  11.060  0.1713  0.4138 -0.3741
30401SOL    HW1 1133  11.089  11.686  11.125 -0.2477 -0.5389  0.4959
30401SOL    HW2 1134  11.184  11.571  11.098  1.0443  0.9223 -1.3872
30402SOL     OW 1135   4.904   4.137  10.155 -0.1973 -0.4435  0.5353
30402SOL    HW1 1136   4.995   4.125  10.182 -0.6037  0.7045  2.6687
30402SOL    HW2 1137   4.853   4.113  10.233 -1.4720  3.6116  1.1809
30403SOL     OW 1138   1.922  11.038   1.524 -0.6179  0.0438  0.3097
30403SOL    HW1 1139   1.864  11.101   1.481 -1.6894 -0.9316  0.2752
30403SOL    HW2 1140   1.987  11.092   1.569  0.3957  1.1283 -2.2353
30404SOL     OW 1141   5.831   1.918   2.658 -0.3695 -0.0581 -0.0600
30404SOL    HW1 1142   5.778   1.983   2.611 -0.3015 -1.2803 -1.9180
30404SOL    HW2 1143   5.921   1.946   2.643 -0.3751  0.1436  0.2668
30405SOL     OW 1144   8.588  10.218   5.292 -0.0491 -0.4361 -0.2592
30405SOL    HW1 1145   8.610  10.309   5.269 -0.6109 -0.2145  0.0400
30405SOL    HW2 1146   8.496  10.209   5.266  0.6483 -1.6980 -2.5818
30406SOL     OW 1147   1.401   4.922  12.694 -0.2195  0.3303 -0.1365
30406SOL    HW1 1148   1.349   4.963  12.763 -0.7474 -1.2836  0.4796
30406SOL    HW2 1149   1.447   4.851  12.738  0.9690  0.4962 -1.0733
30407SOL     OW 1150   2.416  12.708   3.341  0.1760  0.2684  0.2741
30407SOL    HW1 1151   2.358  12.774   3.377  1.0689  0.9342  0.5294
30407SOL    HW2 1152   2.473  12.683   3.414 -0.5904 -1.3162  0.3824
30408SOL     OW 1153  10.836   0.872  10.031 -0.1092 -0.1614 -0.1820
30408SOL    HW1 1154  10.752   0.906  10.001 -0.4747 -1.3484 -0.5432
30408SOL    HW2 1155  10.901   0.922   9.981 -0.6015  0.4582 -0.2162
30409SOL     OW 1156   3.441   3.139   1.010 -0.2760  0.4197  0.2764
30409SOL    HW1 1157   3.516   3.194   0.988  0.5731 -0.8116 -0.0018
30409SOL    HW2 1158   3.366   3.199   1.009  0.6044  1.5482 -0.0648
30410SOL     OW 1159   6.346   7.511   6.330  0.0116 -0.2665  0.0470
30410SOL    HW1 1160   6.427   7.462   6.313 -0.3257 -0.6600 -0.4683
30410SOL    HW2 1161   6.278   7.443   6.338 -0.2614  0.0546  0.5461
30411SOL     OW 1162  11.751   4.063   1.993  0.4188  0.0982 -0.1207
30411SOL    HW1 1163  11.775   4.108   1.912  0.7962 -0.4438 -0.3182
30411SOL    HW2 1164  11.820   3.997   2.006 -0.6765 -1.1621 -0.4285
30412SOL     OW 1165   4.170   3.845   1.224  0.2384 -0.0989 -0.3847
30412SOL    HW1 1166   4.207   3.863   1.310 -1.8462  1.3467  0.2827
30412SOL    HW2 1167   4.216   3.905   1.165  0.8061 -0.2209 -0.0740
30413SOL     OW 1168   7.945   9.366  11.773  0.2434  0.5202  0.7249
30413SOL    HW1 1169   7.928   9.273  11.786  1.2447  0.3693  1.0159
30413SOL    HW2 1170   8.010   9.369  11.703  0.7633  0.9563  1.2119
30414SOL     OW 1171   6.940   8.455   9.912 -0.1529  0.1257 -0.3934
30414SOL    HW1 1172   6.930   8.372   9.866 -1.0395 -1.3585  2.2757
30414SOL    HW2 1173   7.005   8.438   9.980  1.6986  2.4557 -1.4178
30415SOL     OW 1174  12.338  12.745   4.564  0.3189 -0.3041 -0.1348
30415SOL    HW1 1175  12.397  12.677   4.597 -0.4460 -0.3211  1.2880
30415SOL    HW2 1176  12.324  12.723   4.472  1.1074 -1.3191 -0.0305
30416SOL     OW 1177   9.798   8.441   8.180 -0.1226 -0.6440 -0.2901
30416SOL    HW1 1178   9.845   8.499   8.120 -0.5345  0.0212  0.0119
30416SOL    HW2 1179   9.716   8.487   8.198 -0.3607 -1.2226  0.1381
30417SOL     OW 1180   1.883   1.901   5.428  0.2519 -0.3039  0.2857
30417SOL    HW1 1181   1.898   1.826   5.485 -2.0656 -1.4444 -0.4632
30417SOL    HW2 1182   1.812   1.950   5.469 -0.7011 -0.5424 -0.9884
30418SOL     OW 1183   8.666   3.123   2.920  0.2932 -0.0675  0.6138
30418SOL    HW1 1184   8.591   3.132   2.979 -0.5465 -1.8938 -0.0836
30418SOL    HW2 1185   8.742   3.141   2.975 -0.6018  1.2773  1.4779
30419SOL     OW 1186   9.335   0.956  12.195 -0.4292 -0.2802 -0.4818
30419SOL    HW1 1187   9.303   0.893  12.131 -0.0576 -1.3028  0.3173
30419SOL    HW2 1188   9.430   0.961  12.178 -0.3697 -0.3643 -0.1597
30420SOL     OW 1189   9.397  12.667  12.047  1.0665  0.0890  0.0513
30420SOL    HW1 1190   9.403  12.585  11.999  3.2712  0.8930 -1.2284
30420SOL    HW2 1191   9.434  12.733  11.988  1.1723  1.6672  1.7459
30421SOL     OW 1192   7.096  10.916   4.753 -0.4658 -0.4890 -0.6269
30421SOL    HW1 1193   7.024  10.858   4.731 -1.3795  0.4774 -0.2712
30421SOL    HW2 1194   7.096  10.982   4.684 -0.0128 -0.4036 -0.5489
30422SOL     OW 1195   4.466  12.971  11.661  0.5280  0.2898 -0.0463
30422SOL    HW1 1196   4.537  13.033  11.680 -0.2598  1.2435 -0.1613
30422SOL    HW2 1197   4.421  12.960  11.745  0.5500  0.0124 -0.0713
30423SOL     OW 1198   0.250  10.217   9.060  0.0944 -0.0740  0.2084
30423SOL    HW1 1199   0.232  10.249   9.149 -0.8793  1.2951 -0.4342
30423SOL    HW2 1200   0.264  10.297   9.009  1.3995 -0.8714 -0.7376
30424SOL     OW 1201   4.794   8.205   6.853 -0.8892  0.2471  0.3859
30424SOL    HW1 1202   4.882   8.181   6.883 -1.2202 -0.6068  0.6971
30424SOL    HW2 1203   4.776   8.289   6.896 -0.5186  0.0641  0.9078
30425SOL     OW 1204  12.762   0.977   4.802  0.3100 -0.2493 -0.6022
30425SOL    HW1 1205  12.852   0.949   4.784 -0.1455 -2.5529  0.3519
30425SOL    HW2 1206  12.716   0.896   4.823 -2.1290  0.8120 -1.5559
30426SOL     OW 1207   6.158   2.130  12.653  0.2012 -0.1523 -0.2298
30426SOL    HW1 1208   6.124   2.045  12.681  0.6714 -0.4508 -0.5335
30426SOL    HW2 1209   6.151   2.127  12.557  1.8163 -0.5711 -0.3744
30427SOL     OW 1210  12.803   1.391   2.750  0.5287  0.0227 -0.2516
30427SOL    HW1 1211  12.723   1.341   2.767  0.9693 -0.8459 -0.6756
30427SOL    HW2 1212  12.801   1.407   2.656 -0.3351  2.1056  0.0673
30428SOL     OW 1213   1.605   3.668   9.310 -0.2859  0.4784 -0.7818
30428SOL    HW1 1214   1.634   3.686   9.399 -1.5011 -1.0960 -0.0171
30428SOL    HW2 1215   1.677   3.698   9.255  1.1151  0.2009  0.8175
30429SOL     OW 1216   3.986   3.541  10.481 -0.0792  0.2901 -0.5528
30429SOL    HW1 1217   3.934   3.461  10.484  0.6721 -0.2034 -0.5021
30429SOL    HW2 1218   4.068   3.519  10.525 -0.5040  1.5831  0.9983
30430SOL     OW 1219  12.286  10.788   0.395  0.1411 -0.9199 -0.4337
30430SOL    HW1 1220  12.262  10.704   0.356 -4.1311 -0.6642  1.0215
30430SOL    HW2 1221  12.253  10.853   0.333  1.8586 -0.2900 -0.7305
30431SOL     OW 1222   4.863   4.203   0.423  0.0673  0.2651  0.0575
30431SOL    HW1 1223   4.951   4.166   0.412  0.6351  0.9591  1.7597
30431SOL    HW2 1224   4.818   4.143   0.482 -0.1535  0.5493  0.1854
30432SOL     OW 1225   9.738   1.862   2.373 -0.3759  0.0221  0.5161
30432SOL    HW1 1226   9.675   1.845   2.443 -0.4715  0.4330  0.5306
30432SOL    HW2 1227   9.809   1.800   2.390 -0.4990 -0.0326  0.8490
30433SOL     OW 1228  11.036   8.457  11.613  0.3241 -0.5901  0.5203
30433SOL    HW1 1229  10.942   8.453  11.629  0.1195 -1.3654 -0.7787
30433SOL    HW2 1230  11.047   8.531  11.554  0.4649 -0.8289  0.2469
30434SOL     OW 1231  12.934  12.768   3.990 -0.2182 -0.2610  0.5694
30434SOL    HW1 1232  12.956  12.774   4.083 -0.6254 -1.0215  0.7176
30434SOL    HW2 1233  12.870  12.697   3.984  0.0971 -0.4901 -0.3418
30435SOL     OW 1234   3.843   1.191   6.463  0.1933 -0.6823 -0.3199
30435SOL    HW1 1235   3.876   1.122   6.404 -0.3759 -0.8234 -0.4781
30435SOL    HW2 1236   3.780   1.239   6.410  1.3630  0.6486 -0.5517
30436SOL     OW 1237  10.049   1.643  13.223 -0.3214 -0.0768  0.1573
30436SOL    HW1 1238   9.990   1.622  13.151 -0.6881 -2.2519  1.0101
30436SOL    HW2 1239  10.133   1.606  13.197 -0.7305 -1.9165  1.2657
30437SOL     OW 1240  11.125   9.057  13.038 -0.2792  0.9047  0.5135
30437SOL    HW1 1241  11.040   9.021  13.016 -0.7527  1.0029  2.0796
30437SOL    HW2 1242  11.164   8.992  13.097  0.5328  1.0992  0.2098
30438SOL     OW 1243   8.794   0.224   6.721 -0.2297  0.0175  0.0348
30438SOL    HW1 1244   8.730   0.220   6.792 -1.2534 -1.2156 -0.9098
30438SOL    HW2 1245   8.741   0.233   6.641  0.8112 -0.3931 -0.7222
30439SOL     OW 1246   2.751   2.020   2.909 -0.5635  0.1141 -0.2171
30439SOL    HW1 1247   2.820   2.087   2.906 -0.2490 -0.2312 -1.1264
30439SOL    HW2 1248   2.744   1.997   3.001  1.2876 -0.5910 -0.2090
30440SOL     OW 1249   6.108   0.247   2.460 -0.6098 -1.0839  0.2342
30440SOL    HW1 1250   6.111   0.186   2.533 -1.1503  1.1461  2.2307
30440SOL    HW2 1251   6.015   0.251   2.436 -0.3122 -2.7118 -1.5072
30441SOL     OW 1252   5.531   6.551   2.631 -0.0222  0.0214 -0.0598
30441SOL    HW1 1253   5.517   6.457   2.617  1.0699  0.0454 -1.6588
30441SOL    HW2 1254   5.540   6.587   2.543 -0.9675  1.7408  0.5077
30442SOL     OW 1255   6.827   9.613   0.743 -0.1028 -0.1410 -0.3050
30442SOL    HW1 1256   6.820   9.630   0.649 -1.4273  1.2719  0.0299
30442SOL    HW2 1257   6.799   9.694   0.785  0.2228 -0.8363  1.3283
30443SOL     OW 1258   4.038  11.316   0.623 -0.4860  0.2434 -0.6215
30443SOL    HW1 1259   4.115  11.350   0.668 -0.2885 -0.8592 -0.0924
30443SOL    HW2 1260   3.989  11.269   0.691 -1.6385  0.9422 -0.9454
30444SOL     OW 1261   0.546  12.379   4.277  0.6123 -0.3776 -0.4362
30444SOL    HW1 1262   0.588  12.440   4.215  0.8466  0.1037  0.1801
30444SOL    HW2 1263   0.468  12.348   4.231  1.1138 -0.5153 -1.2169
30445SOL     OW 1264   9.403   6.633  11.234 -0.0847  0.4557 -0.1862
30445SOL    HW1 1265   9.309   6.620  11.246 -0.0933 -0.1302 -0.8562
30445SOL    HW2 1266   9.420   6.719  11.272 -0.7675  0.2809  0.5613
30446SOL     OW 1267   8.671  11.123   6.662 -0.0927 -0.3262 -0.0986
30446SOL    HW1 1268   8.694  11.060   6.731 -0.5425  0.4548  0.7950
30446SOL    HW2 1269   8.607  11.078   6.608 -0.7311 -0.5034  0.7820
30447SOL     OW 1270   8.464   2.401   7.686 -0.0126  0.7399 -0.3322
30447SOL    HW1 1271   8.444   2.367   7.772 -0.5778 -1.3087 -1.2220
30447SOL    HW2 1272   8.460   2.496   7.696  0.4504  0.5614  1.9791
30448SOL     OW 1273   4.131   4.001  12.695 -0.5543 -0.0509 -0.5568
30448SOL    HW1 1274   4.175   4.000  12.780 -1.6216  0.2164  0.0240
30448SOL    HW2 1275   4.170   3.928  12.647 -0.4632 -0.6821  0.4495
30449SOL     OW 1276   8.562  12.031   6.476 -0.5947 -0.3973  0.3168
30449SOL    HW1 1277   8.474  12.000   6.495 -0.4162 -0.9516  0.2459
30449SOL    HW2 1278   8.582  11.995   6.390 -1.1172  1.4866 -0.6559
30450SOL     OW 1279   4.186   0.785  11.150  0.0128  0.3120 -0.5030
30450SOL    HW1 1280   4.176   0.698  11.111 -0.4404 -0.9282  2.1622
30450SOL    HW2 1281   4.137   0.843  11.091 -0.4920 -1.3691 -1.8464
30451SOL     OW 1282   2.056   8.274   1.736  0.4592 -0.5080  0.3233
30451SOL    HW1 1283   1.969   8.256   1.702  0.2978  0.4156  0.2114
30451SOL    HW2 1284   2.116   8.236   1.672  0.1396 -0.5266  0.0324
30452SOL     OW 1285  10.512  10.882   3.588  0.0134 -0.1351  0.5738
30452SOL    HW1 1286  10.516  10.949   3.657  0.2151  0.3599  0.0869
30452SOL    HW2 1287  10.497  10.800   3.635  1.4309 -0.0011  1.3328
30453SOL     OW 1288   3.111   2.698   4.347  0.6017 -0.1679 -0.7070
30453SOL    HW1 1289   3.113   2.792   4.330 -1.4294 -0.0758 -0.6614
30453SOL    HW2 1290   3.057   2.689   4.425 -0.7446 -1.4803 -1.7351
30454SOL     OW 1291  12.303   5.933   8.239 -0.4690 -0.5721  0.2330
30454SOL    HW1 1292  12.325   5.954   8.149  2.0148  0.8067  1.0586
30454SOL    HW2 1293  12.340   5.846   8.254  0.0388 -0.3604  0.2077
30455SOL     OW 1294   8.091   9.893   4.157 -0.1271  0.0125 -0.0597
30455SOL    HW1 1295   8.047   9.911   4.240  0.0247 -0.8615  0.2178
30455SOL    HW2 1296   8.021   9.865   4.098 -0.1861  0.2978 -0.1256
30456SOL     OW 1297  10.262   1.596   4.934  0.5493 -0.2243 -0.3267
30456SOL    HW1 1298  10.197   1.633   4.994 -0.4129 -2.2691 -0.0121
30456SOL    HW2 1299  10.253   1.648   4.854  1.8200  2.5233  1.1753
30457SOL     OW 1300   6.973   7.782  11.618  0.8937 -0.3782  0.4538
30457SOL    HW1 1301   6.980   7.872  11.649 -0.4919  0.0770 -0.4671
30457SOL    HW2 1302   7.040   7.734  11.667  2.0505  1.2551  0.5408
30458SOL     OW 1303  11.491  11.889  10.037 -0.5347 -0.6177  0.7623
30458SOL    HW1 1304  11.470  11.883   9.943  0.5728 -0.6005  0.4993
30458SOL    HW2 1305  11.410  11.866  10.081 -0.8433 -1.4799 -0.2092
30459SOL     OW 1306   6.141   0.311   6.983 -0.3701  0.3210 -0.2445
30459SOL    HW1 1307   6.135   0.275   7.072 -1.9737 -1.1102 -0.8744
30459SOL    HW2 1308   6.052   0.303   6.948 -0.2850  2.8876 -1.2526
30460SOL     OW 1309   4.316   8.888   7.746 -0.3832 -0.1415 -0.0715
30460SOL    HW1 1310   4.253   8.875   7.816  0.8804  0.7982  1.3109
30460SOL    HW2 1311   4.276   8.848   7.669 -2.2188 -0.3963  0.9660
30461SOL     OW 1312   5.000   3.500   1.877  0.6770 -0.7770 -0.5344
30461SOL    HW1 1313   5.094   3.486   1.872  0.8774 -0.2866  1.1058
30461SOL    HW2 1314   4.990   3.577   1.933 -0.6786 -0.0778 -1.6551
30462SOL     OW 1315   8.124  10.972   0.570 -0.3746  0.2283 -0.0517
30462SOL    HW1 1316   8.115  10.996   0.478  1.0496 -0.4496 -0.4033
30462SOL    HW2 1317   8.118  10.876   0.570 -0.9284  0.2568  0.6434
30463SOL     OW 1318   8.282   3.344   2.746 -0.0518 -0.2647  0.1674
30463SOL    HW1 1319   8.305   3.436   2.727  0.3420 -0.6088 -1.1132
30463SOL    HW2 1320   8.191   3.336   2.717  0.2684 -0.5574 -0.7948
30464SOL     OW 1321  11.686   3.636   8.116  0.0611  0.1789  0.4155
30464SOL    HW1 1322  11.689   3.601   8.027  0.1597  0.4504  0.3107
30464SOL    HW2 1323  11.777   3.636   8.145  0.3822  2.3442 -0.3762
30465SOL     OW 1324   1.951   9.977   2.511  0.1931 -0.6507 -0.3287
30465SOL    HW1 1325   1.996   9.979   2.427 -1.3197 -0.9911 -1.1848
30465SOL    HW2 1326   1.952  10.068   2.541  0.0391 -0.3835 -1.1150
30466SOL     OW 1327  11.560   3.969  10.991 -0.1468  0.1643 -0.0579
30466SOL    HW1 1328  11.649   3.995  11.015  0.4369 -1.1317 -0.6862
30466SOL    HW2 1329  11.504   4.032  11.036  0.9931 -0.2198  2.0642
30467SOL     OW 1330   7.277   6.749  10.719  0.0839  0.2466  0.1780
30467SOL    HW1 1331   7.250   6.826  10.669  0.9569  0.4958  0.0724
30467SOL    HW2 1332   7.196   6.718  10.760 -0.6371  0.0922 -1.2883
30468SOL     OW 1333  13.304   4.414  11.888  0.1678 -0.8040  0.4446
30468SOL    HW1 1334  13.252   4.371  11.821 -0.0683  0.2300 -0.0425
30468SOL    HW2 1335  13.373   4.460  11.840  0.7910 -1.1379  1.0004
30469SOL     OW 1336  11.769   4.931  11.044  0.2968  0.1046  0.7834
30469SOL    HW1 1337  11.826   5.008  11.040 -0.6898  0.7967 -1.4488
30469SOL    HW2 1338  11.805   4.871  10.978 -1.0203  0.2051 -0.0711
30470SOL     OW 1339   7.557  11.678   2.688  0.1377  1.2503 -0.0699
30470SOL    HW1 1340   7.506  11.607   2.726 -0.1802  0.4616 -1.8764
30470SOL    HW2 1341   7.494  11.727   2.634  0.4716  2.6035  0.7128
30471SOL     OW 1342   3.199   8.623   1.002  0.5159 -0.0694  0.0161
30471SOL    HW1 1343   3.155   8.703   1.031  0.2064 -0.5542  0.9341
30471SOL    HW2 1344   3.135   8.553   1.017 -0.6334 -0.1483 -4.1394
30472SOL     OW 1345   0.166   5.399   8.419 -0.1765 -0.1046 -0.1712
30472SOL    HW1 1346   0.106   5.471   8.438 -0.7846 -0.6588  0.0195
30472SOL    HW2 1347   0.227   5.436   8.355  0.7733  1.2029  1.4029
30473SOL     OW 1348   0.457   7.523  11.986 -0.2383 -1.0639  0.5345
30473SOL    HW1 1349   0.412   7.476  11.915 -1.2790 -0.8327  1.0136
30473SOL    HW2 1350   0.386   7.569  12.032  0.7955  1.5078 -0.2864
30474SOL     OW 1351   6.121   7.268   6.576  0.5847 -0.2694 -0.3003
30474SOL    HW1 1352   6.160   7.289   6.491  1.7110  0.3669  0.3415
30474SOL    HW2 1353   6.105   7.173   6.572  0.8346 -0.2868 -1.1393
30475SOL     OW 1354   1.530   3.912   4.193 -0.7675 -0.4148 -0.0692
30475SOL    HW1 1355   1.483   3.969   4.133 -1.4734  0.9215  1.6777
30475SOL    HW2 1356   1.543   3.964   4.272  1.8600 -1.4272  0.2947
30476SOL     OW 1357   7.211   6.257   9.359 -0.4010 -0.0446 -0.0263
30476SOL    HW1 1358   7.264   6.257   9.439  0.2028 -2.3851 -0.3591
30476SOL    HW2 1359   7.187   6.166   9.346 -2.5898  0.6334 -1.1993
30477SOL     OW 1360   5.160   0.692   4.019 -0.1434 -0.2985  0.1913
30477SOL    HW1 1361   5.139   0.617   3.964  0.1352  0.4084 -0.9030
30477SOL    HW2 1362   5.212   0.655   4.090 -1.1492 -1.3407  0.4125
30478SOL     OW 1363   4.841   9.274  10.274  0.0694  0.0347 -0.0137
30478SOL    HW1 1364   4.854   9.224  10.355  1.0947  0.9982  0.4376
30478SOL    HW2 1365   4.799   9.211  10.214 -3.2301  0.0486  2.0511
30479SOL     OW 1366  13.061   4.626   4.274 -0.0938 -0.1816 -0.3287
30479SOL    HW1 1367  13.086   4.547   4.322 -1.6980  0.0630  1.0018
30479SOL    HW2 1368  13.119   4.627   4.198  4.2878  0.6043  2.6419
30480SOL     OW 1369   2.348   5.011   4.936 -0.0722  0.1245 -0.4590
30480SOL    HW1 1370   2.389   4.973   5.014 -3.2982 -0.2816  1.1994
30480SOL    HW2 1371   2.327   5.101   4.961 -0.4612  0.2310 -1.1367
30481SOL     OW 1372   4.638   9.226   7.500  0.4103 -0.3957  0.3910
30481SOL    HW1 1373   4.697   9.153   7.485  2.3080  1.0344  0.5623
30481SOL    HW2 1374   4.550   9.188   7.494  1.2456 -2.1666 -2.2258
30482SOL     OW 1375   8.816   2.737  11.925 -0.3514  0.3491 -0.0797
30482SOL    HW1 1376   8.779   2.706  11.842  0.3646  0.6193 -0.5118
30482SOL    HW2 1377   8.741   2.773  11.972 -0.8221 -0.1040 -0.4709
30483SOL     OW 1378   2.174   7.637   2.811  0.3294 -0.6381 -0.1055
30483SOL    HW1 1379   2.147   7.674   2.895 -0.0485 -1.1875  0.0168
30483SOL    HW2 1380   2.247   7.692   2.784  0.3689 -0.3705  0.5184
30484SOL     OW 1381  11.289   4.024   8.319 -0.0509 -0.4760 -0.0514
30484SOL    HW1 1382  11.223   4.093   8.315  0.0226 -0.4827 -2.5655
30484SOL    HW2 1383  11.281   3.989   8.408 -2.1509  0.7518  0.3169
30485SOL     OW 1384  11.560  13.094   4.251 -0.7369  0.4739  0.1952
30485SOL    HW1 1385  11.555  13.001   4.230  0.9142  0.1796  0.9412
30485SOL    HW2 1386  11.547  13.139   4.168  0.1119 -0.4757 -0.4646
30486SOL     OW 1387   4.777  12.469   0.902  0.2618 -0.8938  0.3677
30486SOL    HW1 1388   4.806  12.506   0.985  1.6057 -0.7584 -0.1429
30486SOL    HW2 1389   4.820  12.523   0.835 -0.6949 -1.0737 -0.4246
30487SOL     OW 1390   5.051   8.658   5.369  0.8114 -0.4160  0.1885
30487SOL    HW1 1391   4.961   8.627   5.371  0.9767 -1.0580 -1.2032
30487SOL    HW2 1392   5.062   8.706   5.451 -1.0012  0.2915  0.0611
30488SOL     OW 1393   7.039  12.640  12.771 -0.1331  0.3176 -0.0773
30488SOL    HW1 1394   6.960  12.587  12.758 -0.5798  0.6672  0.9949
30488SOL    HW2 1395   7.084  12.638  12.687 -0.9097 -0.5048 -0.4970
30489SOL     OW 1396   1.050   9.992   3.313 -0.1740  0.3840  0.3243
30489SOL    HW1 1397   1.095   9.908   3.324 -0.5907  0.4092  2.7575
30489SOL    HW2 1398   0.988   9.976   3.242  1.5346 -0.5487 -1.0365
30490SOL     OW 1399   5.033   1.931  12.516 -0.2440 -0.5341 -0.4534
30490SOL    HW1 1400   4.979   1.857  12.542 -0.1783 -0.3006  0.3864
30490SOL    HW2 1401   5.009   1.948  12.425 -3.2214  0.9792  0.5018
30491SOL     OW 1402   5.874   4.633   3.400  0.4352 -0.4463 -0.5503
30491SOL    HW1 1403   5.787   4.621   3.439  0.9593 -0.8731  0.5328
30491SOL    HW2 1404   5.926   4.670   3.471  0.9441  0.5878 -1.4335
30492SOL     OW 1405   5.765   3.161   5.396 -0.3878  0.1587 -0.0608
30492SOL    HW1 1406   5.681   3.140   5.355  0.8523 -2.2394 -1.6110
30492SOL    HW2 1407   5.744   3.172   5.489 -2.3362 -1.0020 -0.2969
30493SOL     OW 1408   9.821  12.129  11.448  0.1110  0.4034 -0.0577
30493SOL    HW1 1409   9.811  12.034  11.453  0.1764  0.4234  0.6263
30493SOL    HW2 1410   9.796  12.160  11.535 -0.3171  1.0535 -0.4030
30494SOL     OW 1411   7.930   0.664   3.558 -0.3825  0.0717  0.3965
30494SOL    HW1 1412   7.943   0.721   3.482 -1.9808  0.4912  0.4126
30494SOL    HW2 1413   7.894   0.722   3.625  1.3818 -0.2046  1.6451
30495SOL     OW 1414   3.874   0.822   0.679 -0.2881  0.1909 -0.2250
30495SOL    HW1 1415   3.898   0.874   0.602 -1.6756 -1.8041 -2.1596
30495SOL    HW2 1416   3.809   0.876   0.724 -1.9873  0.1164 -2.3782
30496SOL     OW 1417  12.558   5.341   9.579 -0.3568  0.5721 -0.4778
30496SOL    HW1 1418  12.492   5.274   9.593 -0.3630  0.3490 -1.4982
30496SOL    HW2 1419  12.623   5.325   9.648 -0.8586  0.1604 -0.0904
30497SOL     OW 1420   3.297   1.653  12.728  0.2624 -0.7680 -0.3080
30497SOL    HW1 1421   3.350   1.624  12.803  1.4599  0.6567 -0.5588
30497SOL    HW2 1422   3.255   1.573  12.697  0.3271 -1.5322  1.4196
30498SOL     OW 1423  10.176   1.385  12.563 -0.2713  0.2170 -0.8924
30498SOL    HW1 1424  10.109   1.385  12.631  0.3041 -0.0831 -0.3156
30498SOL    HW2 1425  10.186   1.477  12.538  0.6390  0.5472  0.5729
30499SOL     OW 1426   7.557   0.165   3.703 -0.8877  0.4070 -0.1263
30499SOL    HW1 1427   7.650   0.179   3.685 -0.7111 -0.5704 -0.0520
30499SOL    HW2 1428   7.515   0.168   3.618 -0.6765  0.1313 -0.2424
30500SOL     OW 1429   6.680   2.507   4.677 -0.3929  0.1365  0.0086
30500SOL    HW1 1430   6.718   2.505   4.765  0.0755  0.5088 -0.1832
30500SOL    HW2 1431   6.676   2.415   4.652  1.0107  0.1157 -0.2247
30501SOL     OW 1432   9.998   8.491   5.716 -0.5589  0.2394 -0.1510
30501SOL    HW1 1433  10.055   8.504   5.791  1.7338  1.7439 -2.0090
30501SOL    HW2 1434   9.922   8.547   5.735 -0.3980 -0.0078  1.3515
30502SOL     OW 1435   8.147   4.210  11.723 -0.1443  0.0770 -0.0798
30502SOL    HW1 1436   8.112   4.131  11.680  1.6284 -0.1165 -1.2741
30502SOL    HW2 1437   8.130   4.195  11.816 -2.9373 -0.0957 -0.5061
30503SOL     OW 1438   1.082   5.668  12.215 -0.5421 -0.1405  0.6333
30503SOL    HW1 1439   1.070   5.735  12.147  1.0784 -0.5716 -0.1377
30503SOL    HW2 1440   1.145   5.607  12.177 -2.0700 -2.2105  1.2629
30504SOL     OW 1441   0.973   7.998   3.688 -0.3075  0.2266 -0.2565
30504SOL    HW1 1442   1.030   7.922   3.680  0.5256  0.7750  0.2882
30504SOL    HW2 1443   1.011   8.063   3.629 -0.5867  0.4651 -0.1798
30505SOL     OW 1444   5.399   1.459   3.105 -0.3697  0.0774 -0.6776
30505SOL    HW1 1445   5.443   1.542   3.119  0.8042 -0.3534 -1.6894
30505SOL    HW2 1446   5.456   1.394   3.147 -0.1932 -0.4423 -1.6851
30506SOL     OW 1447  11.681   7.129  10.824 -0.2410  0.1140  0.4272
30506SOL    HW1 1448  11.739   7.055  10.806 -0.4650  0.4013 -1.6657
30506SOL    HW2 1449  11.721   7.203  10.779 -1.6273  0.5694 -0.1262
30507SOL     OW 1450   7.113   9.167  11.680 -0.4212 -0.0448  0.1781
30507SOL    HW1 1451   7.155   9.126  11.756 -0.0384 -2.7411 -1.3755
30507SOL    HW2 1452   7.185   9.185  11.619 -0.8717  0.8821 -0.1085
30508SOL     OW 1453   1.320  11.298   6.022  0.3157  0.1221  0.0279
30508SOL    HW1 1454   1.375  11.374   6.042 -1.4944  0.8871  2.5355
30508SOL    HW2 1455   1.363  11.257   5.947  4.1542  0.7979  1.6227
30509SOL     OW 1456   7.060   8.165   7.707 -0.5665  0.1237  0.1145
30509SOL    HW1 1457   7.122   8.105   7.748 -1.7252 -1.9702 -1.0028
30509SOL    HW2 1458   7.071   8.150   7.613 -1.7931  0.7213 -0.1467
30510SOL     OW 1459  12.559  12.932   1.072  0.2638  0.0845  0.3376
30510SOL    HW1 1460  12.526  12.900   1.156  0.0648  2.6124  1.2986
30510SOL    HW2 1461  12.643  12.973   1.094  0.9843 -0.6283 -0.9945
30511SOL     OW 1462   6.573   6.114   1.655  0.0024  0.6862 -0.2185
30511SOL    HW1 1463   6.604   6.189   1.603  0.8410 -0.1585 -0.9642
30511SOL    HW2 1464   6.594   6.138   1.745 -0.0334  1.4956 -0.4133
30512SOL     OW 1465   2.842  10.491  12.021 -0.3545  0.1984 -0.5799
30512SOL    HW1 1466   2.863  10.524  11.934  1.7412 -0.0920 -0.2437
30512SOL    HW2 1467   2.925  10.455  12.053 -1.5372 -1.5157  0.7414
30513SOL     OW 1468  10.931   4.811   5.554  0.3013 -0.1728 -0.1905
30513SOL    HW1 1469  10.926   4.720   5.526 -1.9139 -0.7352  1.6493
30513SOL    HW2 1470  10.845   4.847   5.534  1.1368  1.5542 -0.8842
30514SOL     OW 1471   3.412   3.147  11.340  0.4340 -0.1256 -0.5478
30514SOL    HW1 1472   3.443   3.235  11.316  0.2342 -0.4006 -1.8685
30514SOL    HW2 1473   3.484   3.109  11.389 -0.0704  1.3425  1.4967
30515SOL     OW 1474   5.545   5.522   0.631  0.1208 -0.1087 -0.5011
30515SOL    HW1 1475   5.609   5.592   0.620 -1.0161  0.9714 -0.4928
30515SOL    HW2 1476   5.495   5.522   0.549 -3.0809  2.4950  1.1963
30516SOL     OW 1477   8.711  13.120   5.912  0.6042  0.1111 -0.1775
30516SOL    HW1 1478   8.702  13.214   5.898 -0.1394  0.4610  2.1789
30516SOL    HW2 1479   8.656  13.080   5.844  0.0067  1.4290 -0.5007
30517SOL     OW 1480   7.083   4.260   9.808  0.3623 -0.1225  0.0397
30517SOL    HW1 1481   7.176   4.265   9.784 -0.3016  1.8384 -2.6046
30517SOL    HW2 1482   7.048   4.189   9.755 -0.1978  1.2183 -1.4810
30518SOL     OW 1483   0.542   2.754   1.984 -0.5145 -0.2548  0.6522
30518SOL    HW1 1484   0.584   2.688   1.929  0.4982  0.9043 -0.0312
30518SOL    HW2 1485   0.463   2.779   1.935  0.2752  0.6229 -0.1939
30519SOL     OW 1486   9.224   7.309   5.956 -0.5928 -0.5774 -0.0496
30519SOL    HW1 1487   9.271   7.388   5.927  1.5490 -1.9676 -0.6052
30519SOL    HW2 1488   9.193   7.269   5.876 -0.7808 -0.8207  0.1439
30520SOL     OW 1489   9.833   2.068   6.251  0.1380 -0.0032 -0.2121
30520SOL    HW1 1490   9.857   2.156   6.220  0.2569 -0.4169 -1.3342
30520SOL    HW2 1491   9.838   2.013   6.173 -0.0837 -0.9853  0.4512
30521SOL     OW 1492   2.257   7.805   9.152  0.0070  0.0284 -0.0862
30521SOL    HW1 1493   2.253   7.766   9.065  0.4833  0.3261 -0.2443
30521SOL    HW2 1494   2.291   7.735   9.208  1.8969  0.5172 -0.5673
30522SOL     OW 1495   5.335   7.912  12.192 -0.5089 -0.4263  0.1886
30522SOL    HW1 1496   5.411   7.971  12.184 -0.4150 -0.2496  1.9832
30522SOL    HW2 1497   5.336   7.861  12.111  0.3018  1.0018 -0.7462
30523SOL     OW 1498   4.273   5.322  11.038  0.2434  0.7699  0.3206
30523SOL    HW1 1499   4.297   5.294  10.950 -0.8153  0.8930 -0.0302
30523SOL    HW2 1500   4.344   5.292  11.094 -0.1229 -1.2749 -0.2501
30524SOL     OW 1501   0.252   1.524   3.885 -0.2867 -0.0488  0.0504
30524SOL    HW1 1502   0.281   1.608   3.921 -0.5537 -0.0513  0.2741
30524SOL    HW2 1503   0.164   1.512   3.920 -1.1712  0.6607 -1.7772
30525SOL     OW 1504  10.069   4.680   2.629 -0.1032  0.1419  0.0381
30525SOL    HW1 1505  10.006   4.748   2.606 -0.4057  0.3833  1.4696
30525SOL    HW2 1506  10.032   4.639   2.707  2.2612  1.4306  1.9871
30526SOL     OW 1507   5.814   9.918   0.119  0.0181 -0.1283  0.2948
30526SOL    HW1 1508   5.811   9.913   0.215  0.6884 -1.4557  0.2741
30526SOL    HW2 1509   5.877   9.988   0.102  0.9968 -0.8417  0.8567
30527SOL     OW 1510   3.672  12.172   1.352  0.1292 -0.0738  0.0812
30527SOL    HW1 1511   3.609  12.118   1.400  1.4643 -0.7978  1.0819
30527SOL    HW2 1512   3.693  12.120   1.274  2.0676 -1.5086  1.4635
30528SOL     OW 1513  12.454  12.830   6.400 -0.1744  0.7941  0.0856
30528SOL    HW1 1514  12.415  12.908   6.360 -0.9006  0.3201 -0.1604
30528SOL    HW2 1515  12.536  12.818   6.354 -1.3658 -0.2178 -1.9095
30529SOL     OW 1516  10.943   4.610   7.581 -0.4111  0.4514  0.1788
30529SOL    HW1 1517  11.036   4.602   7.561 -0.8885 -0.7124 -1.9877
30529SOL    HW2 1518  10.930   4.702   7.602  1.0962  0.8075 -0.3394
30530SOL     OW 1519  10.616  12.171   6.248 -0.0597 -0.8831 -0.1942
30530SOL    HW1 1520  10.663  12.111   6.305  0.1004 -0.8489 -0.2892
30530SOL    HW2 1521  10.664  12.254   6.256  0.7187 -1.1891 -1.3173
30531SOL     OW 1522  10.348  11.323   8.873  0.4726  0.4056 -0.2072
30531SOL    HW1 1523  10.339  11.273   8.955 -0.1917  0.3044 -0.3329
30531SOL    HW2 1524  10.258  11.342   8.848  0.6164 -0.4625 -1.4703
30532SOL     OW 1525  11.855  11.205  11.234  0.5044 -0.1520 -0.0036
30532SOL    HW1 1526  11.887  11.250  11.155  0.7960 -1.9696 -0.9665
30532SOL    HW2 1527  11.897  11.253  11.306  2.7232 -0.3201 -1.0779
30533SOL     OW 1528   0.352  10.777   7.358 -0.1561 -0.0423 -0.0756
30533SOL    HW1 1529   0.442  10.775   7.327  0.1880  0.6187  0.8763
30533SOL    HW2 1530   0.309  10.707   7.307  1.2835 -1.5986  0.7277
30534SOL     OW 1531   4.161  10.149  10.347 -0.0672 -0.4791  0.2269
30534SOL    HW1 1532   4.081  10.201  10.343  0.1595 -0.1708 -0.4872
30534SOL    HW2 1533   4.152  10.098  10.427 -0.3796  0.5163  0.8406
30535SOL     OW 1534   7.780  11.409  11.250 -0.2678  0.0403  0.2569
30535SOL    HW1 1535   7.763  11.434  11.341 -0.9538 -2.0064  0.7505
30535SOL    HW2 1536   7.874  11.396  11.245 -0.2002  0.3794  0.5950
30536SOL     OW 1537   0.695  10.481   1.452  0.4960  0.0117  0.2613
30536SOL    HW1 1538   0.679  10.426   1.375  2.6422 -0.1920 -0.1033
30536SOL    HW2 1539   0.701  10.419   1.525  0.8172 -0.0335  0.1972
30537SOL     OW 1540   5.308   6.874   0.703  0.2269 -0.5634  0.3822
30537SOL    HW1 1541   5.230   6.875   0.648  0.1757  1.6382  0.3979
30537SOL    HW2 1542   5.312   6.962   0.741  2.4180 -0.7785  0.7987
30538SOL     OW 1543   3.760   2.084  11.882  0.1900 -0.2471  0.1939
30538SOL    HW1 1544   3.851   2.114  11.875  0.4188 -1.1694 -1.1012
30538SOL    HW2 1545   3.723   2.100  11.796 -1.1482  0.9074  0.9624
30539SOL     OW 1546  11.573  12.140   7.186  0.1034 -0.1470  0.0018
30539SOL    HW1 1547  11.609  12.054   7.209  1.3693  0.1868 -0.6335
30539SOL    HW2 1548  11.646  12.200   7.198 -0.2061  0.5526 -1.4083
30540SOL     OW 1549   1.065   5.522  12.964 -0.0924  0.6162 -0.3549
30540SOL    HW1 1550   0.989   5.537  12.907 -0.9156  1.3884  0.8975
30540SOL    HW2 1551   1.044   5.442  13.012 -1.0954  1.8882  1.4504
30541SOL     OW 1552   5.430   7.425   7.336 -0.4362  0.3867  0.1105
30541SOL    HW1 1553   5.352   7.462   7.378  0.8768  1.1294  2.0059
30541SOL    HW2 1554   5.479   7.501   7.305 -0.1477 -0.0451 -0.5203
30542SOL     OW 1555   9.199   4.445   1.446  0.0565 -0.3478 -0.0856
30542SOL    HW1 1556   9.120   4.465   1.395  0.8223 -1.8022 -1.9639
30542SOL    HW2 1557   9.216   4.353   1.428  0.7822 -0.7445  2.3224
30543SOL     OW 1558   4.385   7.162   2.675 -0.3434  0.0851  0.5423
30543SOL    HW1 1559   4.330   7.216   2.618 -0.3412  1.0197  1.3924
30543SOL    HW2 1560   4.442   7.114   2.615 -0.1532  1.2442 -0.2411
30544SOL     OW 1561   2.154   8.332  11.423  0.1985 -0.1577  0.0338
30544SOL    HW1 1562   2.093   8.364  11.490 -0.3533  2.8889 -1.6991
30544SOL    HW2 1563   2.225   8.397  11.422  0.4870 -0.4362 -1.8422
30545SOL     OW 1564   7.199   6.441  12.299  0.1380 -1.1103  0.5513
30545SOL    HW1 1565   7.141   6.400  12.364  0.5705 -0.5605  1.3003
30545SOL    HW2 1566   7.162   6.528  12.285 -2.0474 -2.3547 -2.6422
30546SOL     OW 1567   1.825   1.774   4.575  0.1153 -0.2551  0.0792
30546SOL    HW1 1568   1.808   1.703   4.514 -0.3079 -0.1843  0.1101
30546SOL    HW2 1569   1.744   1.827   4.574  0.2145 -0.0886  0.4724
30547SOL     OW 1570   6.671  10.967   9.565  0.0790  0.2968 -0.3199
30547SOL    HW1 1571   6.624  10.919   9.496  0.5140 -1.1191  0.3431
30547SOL    HW2 1572   6.744  11.009   9.519  0.2181 -0.4278 -0.7712
30548SOL     OW 1573   1.572  12.559   0.092  0.1692  0.0946  0.4767
30548SOL    HW1 1574   1.527  12.608   0.161 -1.2970 -0.8716  0.2723
30548SOL    HW2 1575   1.659  12.541   0.127  0.6271  2.4782  0.6971
30549SOL     OW 1576  11.328   9.215   5.996 -0.1817  0.2934 -0.3218
30549SOL    HW1 1577  11.331   9.125   6.028 -0.4605  0.0695 -0.9155
30549SOL    HW2 1578  11.234   9.237   5.996 -0.0806  0.7997  0.3941
30550SOL     OW 1579   8.938  10.396   6.288 -0.3936 -0.6505 -0.0282
30550SOL    HW1 1580   9.024  10.364   6.313  0.1312  0.5926 -0.1927
30550SOL    HW2 1581   8.879  10.324   6.309  0.8550 -2.1700 -1.3905
30551SOL     OW 1582  11.785  12.843  10.516  0.0332  0.2722  0.1245
30551SOL    HW1 1583  11.725  12.770  10.505  1.4288 -0.9924  0.5762
30551SOL    HW2 1584  11.857  12.807  10.568  0.8154  1.9371  0.2559
30552SOL     OW 1585   3.034  10.682   9.044 -0.2628  0.8824  0.0945
30552SOL    HW1 1586   3.044  10.777   9.035  1.4417  0.6923 -0.4101
30552SOL    HW2 1587   2.969  10.672   9.114 -1.2066  2.4065 -0.5096
30553SOL     OW 1588   4.611   4.297   0.841 -0.1197 -0.2119 -0.1472
30553SOL    HW1 1589   4.553   4.360   0.799  0.4840  0.5462  0.1354
30553SOL    HW2 1590   4.568   4.275   0.923  0.9831  2.0518  1.1419
30554SOL     OW 1591  13.189   1.090  12.988 -0.3078 -0.3329 -0.0335
30554SOL    HW1 1592  13.203   1.017  12.927  0.5476 -0.2083  0.0028
30554SOL    HW2 1593  13.101   1.121  12.968 -0.5402 -1.1374 -0.3044
30555SOL     OW 1594   4.247   4.727  12.056  0.0898 -0.0317  0.0123
30555SOL    HW1 1595   4.192   4.758  12.128 -0.8471  1.1116 -1.1382
30555SOL    HW2 1596   4.185   4.700  11.988  0.9362  0.0206 -0.8035
30556SOL     OW 1597  10.453   0.014  11.846  0.0343  0.1936  0.2510
30556SOL    HW1 1598  10.533   0.067  11.838  0.9530 -1.0220  0.9464
30556SOL    HW2 1599  10.450  -0.009  11.939 -0.0212 -1.4077 -0.1222
30557SOL     OW 1600   6.846   1.362   5.618 -0.5887 -0.5429 -0.3421
30557SOL    HW1 1601   6.818   1.271   5.623 -4.1135  0.3903 -0.7592
30557SOL    HW2 1602   6.854   1.390   5.709 -0.2810 -1.0237 -0.2166
30558SOL     OW 1603   2.366   9.111  11.390 -0.3744 -0.6125 -0.0044
30558SOL    HW1 1604   2.430   9.166  11.343 -0.9221 -0.4285 -0.5564
30558SOL    HW2 1605   2.355   9.155  11.474  0.4919 -0.8478  0.2489
30559SOL     OW 1606   7.346   8.678  12.611  0.3416  1.0016 -0.1196
30559SOL    HW1 1607   7.298   8.609  12.565  0.3528  1.5508 -0.9660
30559SOL    HW2 1608   7.371   8.638  12.695  1.4479 -0.4590 -1.1016
30560SOL     OW 1609   5.074   9.197   9.802  0.3132 -0.0437 -0.4164
30560SOL    HW1 1610   5.009   9.209   9.871  0.3110  0.3173 -0.4803
30560SOL    HW2 1611   5.073   9.103   9.784 -1.1548  0.1244 -1.3490
30561SOL     OW 1612   4.641   6.073  10.223  0.2202  0.2631 -0.3456
30561SOL    HW1 1613   4.601   5.991  10.195  0.8574 -1.0697  2.3254
30561SOL    HW2 1614   4.567   6.130  10.245 -0.2217 -0.3695 -0.1762
30562SOL     OW 1615  11.614   4.623   1.805 -0.0100  0.2334  0.3513
30562SOL    HW1 1616  11.660   4.572   1.738 -0.2102 -2.3318  2.0481
30562SOL    HW2 1617  11.682   4.647   1.868 -0.1797  0.8485  0.3115
30563SOL     OW 1618  11.625   3.392   8.338 -0.7675 -0.1461  0.2299
30563SOL    HW1 1619  11.605   3.421   8.427 -0.6436  0.1923  0.1476
30563SOL    HW2 1620  11.720   3.401   8.330 -0.4178 -2.5303  0.8957
30564SOL     OW 1621  11.448   6.597   0.011  0.3743  0.2405  0.0648
30564SOL    HW1 1622  11.358   6.626  -0.000  0.4287  0.1593 -0.6175
30564SOL    HW2 1623  11.500   6.678   0.007  0.2089  0.5186  2.2797
30565SOL     OW 1624   5.564   7.976   8.623 -0.2990  0.4945 -0.8111
30565SOL    HW1 1625   5.476   8.003   8.646  0.4261  2.1758  0.2170
30565SOL    HW2 1626   5.590   7.914   8.692 -0.1236  1.2358 -0.1985
30566SOL     OW 1627   0.661   9.251  11.067  0.7988  0.3345  0.0396
30566SOL    HW1 1628   0.707   9.237  11.150 -1.8990 -1.5851  1.3455
30566SOL    HW2 1629   0.704   9.191  11.006 -0.7475 -2.6674  1.6481
30567SOL     OW 1630  13.151  10.384   1.268 -0.4286  0.1131 -0.5394
30567SOL    HW1 1631  13.175  10.476   1.259  0.0212 -0.1332 -2.0940
30567SOL    HW2 1632  13.223  10.344   1.316 -0.1332  0.3603 -0.7805
30568SOL     OW 1633   0.903   0.051   5.889  0.0351 -0.8616  0.3379
30568SOL    HW1 1634   0.865   0.087   5.809  0.0425 -2.0165 -0.2044
30568SOL    HW2 1635   0.996   0.074   5.883  0.1502 -1.4321 -0.2891
30569SOL     OW 1636   4.959   7.703  11.709 -0.1535  0.5873  0.5350
30569SOL    HW1 1637   4.882   7.676  11.659  0.1427 -0.3262  0.5611
30569SOL    HW2 1638   4.928   7.778  11.761 -1.4162 -0.6245  1.6049
30570SOL     OW 1639  12.056   9.935   5.462 -0.1639  0.0355  0.2239
30570SOL    HW1 1640  12.091  10.021   5.485  0.4339 -0.0976 -0.1659
30570SOL    HW2 1641  12.082   9.878   5.535 -0.8978  0.2651  0.6709
30571SOL     OW 1642  11.163  13.228   2.940 -0.0740 -0.3253  0.1195
30571SOL    HW1 1643  11.217  13.302   2.911 -0.5814 -0.6724 -1.9004
30571SOL    HW2 1644  11.225  13.160   2.964  0.3899  0.4236  1.1102
30572SOL     OW 1645  13.165   4.497  13.067  0.4938 -0.4987 -0.0148
30572SOL    HW1 1646  13.131   4.421  13.020 -0.2400 -0.1789 -0.0075
30572SOL    HW2 1647  13.163   4.471  13.159 -0.2217 -0.2992  0.0315
30573SOL     OW 1648  10.590   9.982   8.056 -0.6553 -0.2233  0.6242
30573SOL    HW1 1649  10.683   9.970   8.075 -0.7289  1.0539  1.9719
30573SOL    HW2 1650  10.581   9.961   7.963  1.0739  0.1514  0.3529
30574SOL     OW 1651  10.145  12.931  11.389 -0.3503 -0.1652  0.1979
30574SOL    HW1 1652  10.172  12.872  11.459  1.6792 -0.4852 -0.7786
30574SOL    HW2 1653  10.197  13.010  11.403 -1.5213  0.6135  0.2783
30575SOL     OW 1654   6.342   7.009   3.237 -0.1302  0.9679  0.8985
30575SOL    HW1 1655   6.305   6.931   3.196  0.2250  0.8732  0.7527
30575SOL    HW2 1656   6.367   7.065   3.163 -2.0826  2.0548  0.9830
30576SOL     OW 1657   5.474  10.001   6.680 -0.3340  0.1929  0.3819
30576SOL    HW1 1658   5.420   9.924   6.663  2.1066 -1.3057 -1.2633
30576SOL    HW2 1659   5.441  10.067   6.619  0.9295 -1.4179 -2.2596
30577SOL     OW 1660   3.358   9.865   3.942  0.5142  0.4046  0.2216
30577SOL    HW1 1661   3.297   9.858   4.015 -1.0310  0.2949 -1.0283
30577SOL    HW2 1662   3.422   9.796   3.959  0.0057  0.1726  1.3037
30578SOL     OW 1663   2.145  10.418   6.175 -0.2315  0.4256 -0.6481
30578SOL    HW1 1664   2.084  10.355   6.214 -0.6710  1.2553  0.0366
30578SOL    HW2 1665   2.168  10.476   6.247  1.7072 -0.0979 -0.7874
30579SOL     OW 1666   0.197   4.048   1.400  0.2999 -0.1263 -0.1579
30579SOL    HW1 1667   0.272   4.086   1.353  0.3437  0.4894  0.3985
30579SOL    HW2 1668   0.192   4.098   1.481 -1.5306  0.7247 -0.7532
30580SOL     OW 1669   0.705  10.877   5.320  0.1205  0.0514  0.1780
30580SOL    HW1 1670   0.728  10.893   5.411  1.2602 -0.4090 -0.0150
30580SOL    HW2 1671   0.621  10.831   5.324 -0.1293  0.5525  0.9595
30581SOL     OW 1672   9.173   9.000  10.325  0.0935  0.1184 -0.1561
30581SOL    HW1 1673   9.212   8.976  10.241 -0.0888 -0.0207 -0.2035
30581SOL    HW2 1674   9.191   8.926  10.382  1.8798  1.0060  0.4980
30582SOL     OW 1675   0.349   6.512   4.168  0.1814 -0.0640  0.4011
30582SOL    HW1 1676   0.390   6.563   4.099  1.2054  0.8637  1.6508
30582SOL    HW2 1677   0.281   6.461   4.123  1.5546 -0.3600 -1.4461
30583SOL     OW 1678  12.063   5.122   9.723  1.0798 -0.0306  0.3179
30583SOL    HW1 1679  12.128   5.174   9.771 -0.3955  1.4133  0.8417
30583SOL    HW2 1680  12.063   5.159   9.635  3.2034 -2.1481 -0.6574
30584SOL     OW 1681   8.783   4.551   4.482  0.1642 -0.3427  0.2048
30584SOL    HW1 1682   8.877   4.538   4.490  0.7240  0.3463 -3.2956
30584SOL    HW2 1683   8.754   4.579   4.569  3.0424 -1.1693  1.5378
30585SOL     OW 1684  12.156   9.534   3.952 -0.0060 -0.3320  0.4048
30585SOL    HW1 1685  12.073   9.488   3.942 -0.7502  0.9875  0.3231
30585SOL    HW2 1686  12.197   9.492   4.028 -0.4272 -1.4408  0.0399
30586SOL     OW 1687   6.830   6.685  12.227 -0.3284 -0.2446  0.0804
30586SOL    HW1 1688   6.758   6.721  12.279 -0.1128 -0.6374  0.6634
30586SOL    HW2 1689   6.907   6.696  12.281  0.1997  0.8486 -0.8464
30587SOL     OW 1690   2.148   9.770   4.750 -0.1898 -0.8075  0.3907
30587SOL    HW1 1691   2.099   9.791   4.671  0.2046 -2.0413 -0.2124
30587SOL    HW2 1692   2.172   9.855   4.787  0.2381 -0.1995 -1.2157
30588SOL     OW 1693  11.577  12.160   4.373 -0.2307  0.4787  0.3776
30588SOL    HW1 1694  11.503  12.214   4.345  0.2554  1.4530  0.9476
30588SOL    HW2 1695  11.614  12.206   4.448 -0.1984 -0.9849  1.2914
30589SOL     OW 1696  10.811  11.492   8.350  0.1352 -0.3963 -0.1175
30589SOL    HW1 1697  10.776  11.513   8.437  1.3695  0.4290  0.1997
30589SOL    HW2 1698  10.818  11.577   8.307  2.2128 -0.4591  0.0264
30590SOL     OW 1699   8.617   4.522   4.162 -0.0205 -0.2602  0.7200
30590SOL    HW1 1700   8.536   4.493   4.120  0.1240  0.3526  0.0058
30590SOL    HW2 1701   8.638   4.605   4.119  0.0358  0.4898  2.1267
30591SOL     OW 1702  12.300   0.133   2.051 -0.0273 -0.1473  0.2918
30591SOL    HW1 1703  12.325   0.042   2.035  0.3164 -0.0591  0.3131
30591SOL    HW2 1704  12.292   0.172   1.964  0.2303 -0.0934  0.2901
30592SOL     OW 1705  10.171  10.193  11.812 -0.1520  0.0435 -0.5015
30592SOL    HW1 1706  10.088  10.146  11.802  0.3136 -0.7649 -0.6915
30592SOL    HW2 1707  10.188  10.193  11.906 -0.6109  0.6468 -0.4164
30593SOL     OW 1708   0.726   1.147  11.717 -0.3682  0.0406 -0.2629
30593SOL    HW1 1709   0.639   1.123  11.685 -0.9561  2.1650 -0.3796
30593SOL    HW2 1710   0.754   1.218  11.661  1.0338  0.0701  0.4194
30594SOL     OW 1711   1.292   3.722   2.553  0.2352 -0.5373 -0.2659
30594SOL    HW1 1712   1.290   3.693   2.644 -0.2855 -1.3374 -0.5197
30594SOL    HW2 1713   1.285   3.817   2.558  0.0221 -0.5855  0.5209
30595SOL     OW 1714  12.015   2.104   6.419  0.6937 -0.1527 -0.4105
30595SOL    HW1 1715  11.990   2.189   6.382 -1.4520 -0.5225  0.0111
30595SOL    HW2 1716  12.057   2.057   6.347  0.3540  0.6555 -1.1440
30596SOL     OW 1717   4.582   2.532   4.391  0.4946 -0.9275 -0.0074
30596SOL    HW1 1718   4.600   2.438   4.390 -0.8300 -1.2363  1.2924
30596SOL    HW2 1719   4.489   2.538   4.367  0.3558 -0.0326  0.6931
30597SOL     OW 1720   9.011   2.262   1.557  0.1427 -0.0990 -0.6168
30597SOL    HW1 1721   8.989   2.170   1.545  1.3275 -0.2486 -1.9248
30597SOL    HW2 1722   9.104   2.262   1.581 -0.1594  0.7094  0.6927
30598SOL     OW 1723  11.459   1.113   4.103 -0.0807  0.3332  0.0703
30598SOL    HW1 1724  11.530   1.176   4.116 -1.1861  1.8646 -0.9846
30598SOL    HW2 1725  11.379   1.163   4.120 -0.9731 -1.0316  0.0710
30599SOL     OW 1726   8.006   1.777   1.971  0.4015 -0.0381  0.7150
30599SOL    HW1 1727   8.029   1.705   1.911 -0.2876 -0.9040  1.4678
30599SOL    HW2 1728   7.974   1.734   2.050 -2.2209  1.0789  0.3551
30600SOL     OW 1729  12.317   4.931   5.491  0.1306  0.1516  0.2976
30600SOL    HW1 1730  12.229   4.945   5.456  0.4911 -0.6265 -0.9722
30600SOL    HW2 1731  12.338   5.013   5.536 -0.9919  0.5740  0.0914
30601SOL     OW 1732   1.016  10.279  11.556 -0.2674  0.3424 -0.5593
30601SOL    HW1 1733   1.003  10.310  11.467 -0.3857  0.1626 -0.6051
30601SOL    HW2 1734   0.933  10.296  11.601 -0.0235  0.9431 -0.3298
30602SOL     OW 1735   0.002   7.202   7.597  0.4234  0.1556 -0.0993
30602SOL    HW1 1736   0.029   7.131   7.540 -0.9334 -0.9731  0.6194
30602SOL    HW2 1737  -0.089   7.183   7.619  0.1231  1.9335  0.3936
30603SOL     OW 1738   4.898  13.143  10.371 -0.1151  0.0384 -0.7522
30603SOL    HW1 1739   4.888  13.064  10.318 -2.6357  0.3109 -0.7792
30603SOL    HW2 1740   4.809  13.172  10.389  0.7070  1.6421  1.1459
30604SOL     OW 1741  12.930   4.910  12.915  0.4274  0.2430  0.1654
30604SOL    HW1 1742  12.954   4.818  12.927  0.0133  0.0517 -0.4623
30604SOL    HW2 1743  12.834   4.910  12.915  0.3841  0.3638 -1.9852
30605SOL     OW 1744  13.011  12.313   2.927 -0.0265  0.0494  0.1733
30605SOL    HW1 1745  13.026  12.314   2.832  0.2542 -1.6808  0.1773
30605SOL    HW2 1746  12.976  12.400   2.946 -1.4940 -0.0404 -1.7471
30606SOL     OW 1747   7.303   9.242   0.526  0.5423 -0.4203 -0.2711
30606SOL    HW1 1748   7.343   9.243   0.613  0.7825 -3.0197 -0.2700
30606SOL    HW2 1749   7.209   9.238   0.543  0.3882  1.8893 -0.2351
30607SOL     OW 1750   2.842   0.400   8.334  0.1751  0.3251  0.3081
30607SOL    HW1 1751   2.821   0.356   8.416 -1.0125 -0.8826 -0.5879
30607SOL    HW2 1752   2.767   0.458   8.318  0.3447  0.4700  0.0272
30608SOL     OW 1753  11.810  11.823   3.171 -0.4708 -0.0328  0.3556
30608SOL    HW1 1754  11.794  11.732   3.148  0.6002 -0.2484  0.4137
30608SOL    HW2 1755  11.768  11.874   3.101 -0.5004 -0.5794 -0.0278
30609SOL     OW 1756   3.522  10.896   7.458  0.0683 -0.0083  0.0549
30609SOL    HW1 1757   3.489  10.981   7.428  0.2865  0.0727  0.0437
30609SOL    HW2 1758   3.595  10.877   7.400  1.4173  0.8212  1.4175
30610SOL     OW 1759   6.898   7.798   5.417 -0.0990 -0.2951 -0.7923
30610SOL    HW1 1760   6.896   7.876   5.472 -1.3637  0.4246 -1.7890
30610SOL    HW2 1761   6.851   7.824   5.337 -0.4688 -2.0397 -1.1914
30611SOL     OW 1762  13.141   3.095  12.294 -0.4766 -0.3600  0.3257
30611SOL    HW1 1763  13.069   3.049  12.337  0.5326 -1.9672  0.4189
30611SOL    HW2 1764  13.203   3.114  12.365  0.0859 -0.8268 -0.0258
30612SOL     OW 1765   8.516   0.262   0.173 -0.1931 -0.0902  0.1923
30612SOL    HW1 1766   8.478   0.232   0.256  0.1171  0.3441  0.4995
30612SOL    HW2 1767   8.577   0.330   0.199  1.2957 -1.2216 -0.2305
30613SOL     OW 1768   3.507   2.673   4.538  0.3490 -0.1597 -0.0307
30613SOL    HW1 1769   3.454   2.695   4.615  1.0158  1.0211  0.1137
30613SOL    HW2 1770   3.597   2.673   4.571  0.7927  1.7783 -1.0737
30614SOL     OW 1771   1.078   0.537   0.523 -0.3325 -0.5037 -0.3132
30614SOL    HW1 1772   1.099   0.503   0.436 -0.2894  2.3322 -1.5078
30614SOL    HW2 1773   1.160   0.533   0.571  1.0607  2.4523 -2.1233
30615SOL     OW 1774  10.953   9.643   6.939 -0.5201  0.4904  0.2217
30615SOL    HW1 1775  10.955   9.584   7.014  2.5514  0.9318  0.5985
30615SOL    HW2 1776  10.997   9.595   6.869  0.2249  1.5700 -0.0672
30616SOL     OW 1777   6.796   0.676   1.202 -0.6803 -0.2602  0.0626
30616SOL    HW1 1778   6.800   0.675   1.297  0.1133 -0.1101  0.0426
30616SOL    HW2 1779   6.750   0.596   1.178  0.4994 -1.1163  0.5322
30617SOL     OW 1780  11.574   1.308   1.472  0.2471 -0.1619  0.5366
30617SOL    HW1 1781  11.487   1.297   1.433  0.9702 -0.8015 -0.9645
30617SOL    HW2 1782  11.616   1.375   1.419  1.3573 -1.2580 -0.0263
30618SOL     OW 1783   1.977   9.434   8.584 -0.6909 -0.3573  0.0627
30618SOL    HW1 1784   2.051   9.374   8.598 -1.4236 -1.3522 -0.1832
30618SOL    HW2 1785   2.011   9.520   8.609  0.3931 -0.8699  0.4371
30619SOL     OW 1786   3.804   5.560  11.839  0.2491 -0.1088  0.1394
30619SOL    HW1 1787   3.846   5.486  11.882  1.9844  0.4230 -0.5265
30619SOL    HW2 1788   3.714   5.531  11.822  0.5839 -1.6458  0.8475
30620SOL     OW 1789  10.193   8.203   9.051 -0.0775 -0.0250  0.6673
30620SOL    HW1 1790  10.266   8.265   9.048  0.9400 -1.2110  0.0438
30620SOL    HW2 1791  10.221   8.130   8.996 -0.4765 -1.8439  2.7237
30621SOL     OW 1792   4.495  10.585   7.069  0.2190  0.2129  0.2650
30621SOL    HW1 1793   4.444  10.513   7.107 -1.1806  0.5470 -0.8879
30621SOL    HW2 1794   4.469  10.662   7.119 -0.9014  0.4831 -0.6761
30622SOL     OW 1795   6.261   6.122   5.357 -0.2096  0.2334 -0.2875
30622SOL    HW1 1796   6.330   6.140   5.421 -0.1820  1.3005 -0.6107
30622SOL    HW2 1797   6.180   6.149   5.402 -0.8948 -3.6480  1.2557
30623SOL     OW 1798  10.299   0.659   4.287 -0.0289  0.4562  0.5346
30623SOL    HW1 1799  10.249   0.679   4.208 -0.3810  2.0521  1.1146
30623SOL    HW2 1800  10.233   0.658   4.357  0.1823 -1.5324  0.7532
30624SOL     OW 1801   5.201   7.543   6.387  0.2244  0.3500 -0.1812
30624SOL    HW1 1802   5.294   7.565   6.391  0.2818  0.1663 -0.4875
30624SOL    HW2 1803   5.189   7.504   6.300 -0.1397  0.3807 -0.1468
30625SOL     OW 1804  11.556   8.006   0.298  0.4845  0.3727 -0.3993
30625SOL    HW1 1805  11.583   7.916   0.284  0.9949  0.6057 -0.9938
30625SOL    HW2 1806  11.593   8.031   0.382  0.0644 -0.0734 -0.0820
30626SOL     OW 1807   9.073   7.945   7.737  0.5237 -0.4928 -0.5578
30626SOL    HW1 1808   9.159   7.934   7.779  0.1822  1.4340  0.7798
30626SOL    HW2 1809   9.054   7.859   7.700  1.7290 -1.7955  1.6196
30627SOL     OW 1810   0.548   9.344  12.848 -0.1294 -0.1325  0.5179
30627SOL    HW1 1811   0.576   9.267  12.898 -0.0559  0.2921  1.1508
30627SOL    HW2 1812   0.471   9.314  12.800  0.3603 -0.8124  0.1497
30628SOL     OW 1813   4.422   0.103   5.451 -0.3878  0.3536 -0.4511
30628SOL    HW1 1814   4.368   0.182   5.458 -1.1880 -0.2448  0.5052
30628SOL    HW2 1815   4.479   0.105   5.528 -1.0686 -0.4473  0.0981
30629SOL     OW 1816   9.023   1.383  10.337 -0.5927  0.0778 -0.1449
30629SOL    HW1 1817   9.076   1.454  10.302 -0.4927 -0.3854 -0.9575
30629SOL    HW2 1818   8.933   1.405  10.312 -0.3999 -0.8109 -1.6987
30630SOL     OW 1819   0.287   7.098  11.110  0.4020  0.2083 -0.1694
30630SOL    HW1 1820   0.307   7.178  11.062 -0.7899  0.0163 -1.0135
30630SOL    HW2 1821   0.208   7.064  11.069 -0.9769  0.3018  2.2265
30631SOL     OW 1822   5.715   5.386   7.950  0.2086  0.1942  0.4336
30631SOL    HW1 1823   5.671   5.458   7.905  0.6287 -0.4775 -1.1038
30631SOL    HW2 1824   5.755   5.335   7.880  0.3569 -1.2512  1.5392
30632SOL     OW 1825   0.321   4.206   2.126 -0.9550 -0.5466  0.7404
30632SOL    HW1 1826   0.323   4.228   2.219  0.6290  1.6766  0.2704
30632SOL    HW2 1827   0.255   4.265   2.089 -0.7609 -0.6049  0.2938
30633SOL     OW 1828   5.998  12.953  11.241 -0.4663  0.6177 -0.2875
30633SOL    HW1 1829   5.920  12.899  11.228  0.4125 -0.1803 -2.7192
30633SOL    HW2 1830   5.967  13.027  11.293 -2.5104 -0.3537  0.0034
30634SOL     OW 1831   8.749   9.913  10.888  0.2430  0.6859 -0.6544
30634SOL    HW1 1832   8.692   9.885  10.960  0.4467  0.4645 -0.5785
30634SOL    HW2 1833   8.785   9.832  10.853  1.5990  0.8967  0.1883
30635SOL     OW 1834  11.826   1.958   0.175  0.1188 -0.1971  0.3029
30635SOL    HW1 1835  11.855   2.050   0.180  0.3769 -0.2884  0.5161
30635SOL    HW2 1836  11.733   1.961   0.197  0.3254 -0.0941  1.1963
30636SOL     OW 1837  12.501   0.276  10.051  0.3901  0.5003 -0.0172
30636SOL    HW1 1838  12.440   0.349  10.038  1.3909  1.2080 -0.9998
30636SOL    HW2 1839  12.587   0.318  10.058  1.1305 -0.6141 -1.6793
30637SOL     OW 1840   1.355  10.214   4.143 -1.0193 -0.0678 -0.3058
30637SOL    HW1 1841   1.297  10.268   4.196  0.0317 -0.1087  0.9327
30637SOL    HW2 1842   1.366  10.134   4.194  1.3454  0.5556  0.2866
30638SOL     OW 1843   4.373  10.530  11.208  0.1361 -0.3460 -0.0678
30638SOL    HW1 1844   4.441  10.476  11.247 -0.1927 -0.2745  0.6094
30638SOL    HW2 1845   4.337  10.581  11.281 -1.6939 -1.4802 -0.1248
30639SOL     OW 1846   1.985   3.402   1.357  0.1205 -0.4857  0.2803
30639SOL    HW1 1847   1.963   3.387   1.448  0.0376 -0.3148  0.2874
30639SOL    HW2 1848   1.936   3.335   1.309 -3.1829  1.9106 -0.0462
30640SOL     OW 1849   6.384   2.005   6.734 -0.0942 -0.6285  0.0102
30640SOL    HW1 1850   6.406   1.992   6.642  1.9294  1.0324  0.1788
30640SOL    HW2 1851   6.347   2.093   6.738  1.7111  0.1309  1.0127
30641SOL     OW 1852   2.912   5.354   0.577  0.0713 -0.7020  0.0164
30641SOL    HW1 1853   2.979   5.339   0.644 -0.7480 -0.5427  0.8925
30641SOL    HW2 1854   2.946   5.428   0.526 -0.6279  1.1756  2.1238
30642SOL     OW 1855   4.680   8.108   7.881  0.0897  0.6086 -0.3940
30642SOL    HW1 1856   4.643   8.093   7.794  2.1369  0.1923 -1.2460
30642SOL    HW2 1857   4.683   8.021   7.921 -0.7158  0.7790  0.0516
30643SOL     OW 1858  11.972   6.965   1.568 -0.0904  0.1524  0.4705
30643SOL    HW1 1859  11.967   6.905   1.642  1.3387 -0.1028  0.3960
30643SOL    HW2 1860  12.017   7.042   1.603  0.0842  0.2622  0.0098
30644SOL     OW 1861   2.111   4.393  10.491  0.3958  0.2107 -0.5781
30644SOL    HW1 1862   2.016   4.403  10.494  0.4228  0.3847  1.1248
30644SOL    HW2 1863   2.145   4.467  10.542  1.3881 -0.4007 -0.3120
30645SOL     OW 1864  13.266  10.154   0.998  0.6313 -0.5036  0.6873
30645SOL    HW1 1865  13.323  10.129   1.071  2.2437  0.4948 -0.1596
30645SOL    HW2 1866  13.326  10.168   0.925 -0.8691 -0.7460 -0.6368
30646SOL     OW 1867  12.783   0.625   1.721 -0.2488 -0.6854  0.1364
30646SOL    HW1 1868  12.788   0.669   1.635 -2.5839  0.1074  0.3520
30646SOL    HW2 1869  12.808   0.693   1.784  2.3087 -1.4930  0.1315
30647SOL     OW 1870   8.643  12.548   6.838  0.4722 -0.2889  0.1545
30647SOL    HW1 1871   8.553  12.581   6.833  0.5956 -0.1203 -1.5693
30647SOL    HW2 1872   8.635  12.454   6.825  0.4901 -0.3711  0.7254
30648SOL     OW 1873   2.641   7.773   5.165 -0.5399 -0.2319 -0.2076
30648SOL    HW1 1874   2.606   7.684   5.155  2.0757 -1.2072 -1.8809
30648SOL    HW2 1875   2.595   7.825   5.099 -0.6926 -0.8454 -0.5930
30649SOL     OW 1876   2.377   2.613   2.345  0.3995  0.7288 -0.0969
30649SOL    HW1 1877   2.424   2.539   2.307  1.2695  1.0264  0.3439
30649SOL    HW2 1878   2.358   2.670   2.271  1.2983  0.8912 -0.2141
30650SOL     OW 1879   3.627   6.225   6.919  0.1313  0.0556 -0.2136
30650SOL    HW1 1880   3.713   6.216   6.878  0.5784  2.8240 -0.0977
30650SOL    HW2 1881   3.624   6.317   6.947 -2.9068  0.0757 -0.3115
30651SOL     OW 1882   8.201   8.805   2.340 -0.1093  0.4734 -0.1833
30651SOL    HW1 1883   8.128   8.766   2.387 -0.2726  1.0806  0.0752
30651SOL    HW2 1884   8.225   8.882   2.392  0.2072  0.7192 -0.6808
30652SOL     OW 1885   0.400  11.043   1.986  0.6213  0.2849  0.7113
30652SOL    HW1 1886   0.395  11.086   2.071  2.9789  1.3898  0.3918
30652SOL    HW2 1887   0.327  10.982   1.985  0.0175  0.8594  3.1628
30653SOL     OW 1888  13.294   0.534  12.303  0.4370 -0.0785 -0.3151
30653SOL    HW1 1889  13.323   0.474  12.235  0.6940 -0.1598 -0.1366
30653SOL    HW2 1890  13.324   0.494  12.385  0.0104 -0.0520 -0.1426
30654SOL     OW 1891   4.483   6.980  10.596 -0.0071  0.3740  0.1915
30654SOL    HW1 1892   4.457   7.043  10.662 -1.0503 -0.3250  0.4761
30654SOL    HW2 1893   4.559   7.020  10.552 -1.0370  2.1169 -0.0904
30655SOL     OW 1894  12.865   3.596   9.027  0.4920 -0.0869 -0.3278
30655SOL    HW1 1895  12.819   3.581   9.110 -0.8291  0.9110 -0.8420
30655SOL    HW2 1896  12.815   3.546   8.962  1.7204 -1.1468 -0.4975
30656SOL     OW 1897  11.382   9.462   9.962  0.3543  0.0054  0.2049
30656SOL    HW1 1898  11.322   9.536   9.972  2.0344  1.4639 -0.1538
30656SOL    HW2 1899  11.339   9.405   9.899 -0.1305  1.6312 -1.0186
30657SOL     OW 1900  12.329   9.587  11.875  0.2540  0.5684  0.1279
30657SOL    HW1 1901  12.334   9.650  11.947 -0.2382  0.1095  0.5708
30657SOL    HW2 1902  12.411   9.538  11.881  0.6934  1.2379 -0.2922
30658SOL     OW 1903   9.267   1.392   9.523 -0.3420  0.8794  0.0608
30658SOL    HW1 1904   9.201   1.364   9.587 -0.1996  0.5790  0.0762
30658SOL    HW2 1905   9.245   1.345   9.443 -0.5686  1.3173 -0.1370
30659SOL     OW 1906   2.883  10.074  11.310 -0.4826 -0.9230  0.1850
30659SOL    HW1 1907   2.919  10.137  11.372 -1.1299 -0.9182  0.5718
30659SOL    HW2 1908   2.788  10.086  11.316 -0.5452  0.3814 -2.1916
30660SOL     OW 1909  12.890  10.828   6.678 -0.0870  0.1623 -0.0015
30660SOL    HW1 1910  12.912  10.835   6.771  0.1421 -0.3990 -0.0103
30660SOL    HW2 1911  12.823  10.760   6.674  1.1463 -1.0738 -0.4265
30661SOL     OW 1912  11.005   1.867   6.164 -0.2316  0.0425 -0.2422
30661SOL    HW1 1913  10.961   1.935   6.215  0.0804  0.1038 -0.0556
30661SOL    HW2 1914  11.094   1.900   6.150  0.0086 -0.4485  0.0939
30662SOL     OW 1915   5.943   8.122  12.989 -0.2911  0.0750  0.1056
30662SOL    HW1 1916   6.010   8.128  13.057 -1.3695  2.1028  1.0459
30662SOL    HW2 1917   5.992   8.133  12.907  0.6823  0.1589  0.6775
30663SOL     OW 1918   7.706   8.716   2.658  0.8006  0.3772  0.4105
30663SOL    HW1 1919   7.765   8.699   2.731  0.2393  1.9222  1.2593
30663SOL    HW2 1920   7.621   8.732   2.699 -0.5987 -2.8814 -0.8096
30664SOL     OW 1921   2.791   5.081   2.633 -0.5613 -0.2532 -0.1618
30664SOL    HW1 1922   2.860   5.095   2.699 -2.1829 -0.2933  1.6353
30664SOL    HW2 1923   2.818   5.002   2.587  1.2055  0.4191 -0.3499
30665SOL     OW 1924  12.172   4.436   7.236  0.0930  0.0055  0.3976
30665SOL    HW1 1925  12.155   4.441   7.330 -2.0719  2.9147 -0.0088
30665SOL    HW2 1926  12.244   4.499   7.222 -1.2420  1.4828 -0.1184
30666SOL     OW 1927   1.807  12.997   3.257 -0.0691 -0.1841  0.4154
30666SOL    HW1 1928   1.887  13.037   3.224 -0.2313  0.0533  0.3130
30666SOL    HW2 1929   1.736  13.047   3.218 -0.2720  0.5225  1.6160
30667SOL     OW 1930   2.297  12.842   9.396 -0.3348  0.7003  0.0945
30667SOL    HW1 1931   2.265  12.912   9.453 -0.0264  1.3226 -0.4807
30667SOL    HW2 1932   2.264  12.865   9.309 -1.0606 -0.3987  0.0651
30668SOL     OW 1933   9.005   6.868   0.828 -0.6105  0.1136  0.2485
30668SOL    HW1 1934   9.042   6.780   0.834  0.5195  0.4811 -0.9140
30668SOL    HW2 1935   9.006   6.900   0.918  0.7634 -0.3547  0.4281
30669SOL     OW 1936   7.591  13.291   6.136 -0.1571 -0.2494 -0.6847
30669SOL    HW1 1937   7.584  13.377   6.177 -0.8191 -1.7162  2.6456
30669SOL    HW2 1938   7.638  13.306   6.055 -0.9407  3.3346 -0.6247
30670SOL     OW 1939   3.700   2.362   4.468  0.1678  0.5823 -0.0243
30670SOL    HW1 1940   3.753   2.380   4.390 -1.1463 -0.5466 -1.2393
30670SOL    HW2 1941   3.725   2.273   4.494 -2.1745 -0.6419 -1.6001
30671SOL     OW 1942   9.662   0.998   1.860  0.2858 -0.4840 -0.4850
30671SOL    HW1 1943   9.645   1.082   1.903  0.4894 -0.7263  0.0827
30671SOL    HW2 1944   9.584   0.980   1.809 -0.0284 -0.2628 -0.0839
30672SOL     OW 1945   9.333   8.580   0.983 -0.2441  0.4540  0.6744
30672SOL    HW1 1946   9.396   8.515   1.015 -0.7150 -0.1169  0.4631
30672SOL    HW2 1947   9.362   8.601   0.895  0.2737  1.0137  0.9685
30673SOL     OW 1948   1.883  10.579   8.817  0.1542  0.3910 -0.1645
30673SOL    HW1 1949   1.793  10.547   8.822  0.3890 -0.1417  0.9982
30673SOL    HW2 1950   1.888  10.622   8.732 -1.3943  1.0288  0.0248
30674SOL     OW 1951   7.723  11.441   1.562  0.1933  0.5918  0.1149
30674SOL    HW1 1952   7.678  11.517   1.599  2.4453  1.2206  1.8215
30674SOL    HW2 1953   7.737  11.383   1.637 -0.7763 -1.1988 -1.0220
30675SOL     OW 1954   4.769   1.916   9.939 -0.3020 -0.8440 -0.6889
30675SOL    HW1 1955   4.721   1.939  10.019  0.1687 -0.2511 -0.5643
30675SOL    HW2 1956   4.848   1.970   9.943  0.0156 -1.2621 -1.2553
30676SOL     OW 1957   5.077   4.294   1.986  0.2733  0.1244 -0.4072
30676SOL    HW1 1958   5.139   4.363   2.006  0.5913  0.2808 -1.8364
30676SOL    HW2 1959   5.101   4.222   2.045  2.0660  0.0412 -1.1660
30677SOL     OW 1960  11.222   7.067   8.748  0.3262 -0.0130  0.5381
30677SOL    HW1 1961  11.192   7.149   8.787  0.8554  0.3188  0.2642
30677SOL    HW2 1962  11.310   7.055   8.782  0.1430 -0.6279  0.8110
30678SOL     OW 1963  12.462   1.198   1.174 -0.0707  0.2951 -0.1662
30678SOL    HW1 1964  12.498   1.195   1.262 -1.6990  0.4373  0.5531
30678SOL    HW2 1965  12.448   1.106   1.151  0.3583  0.2575 -0.2842
30679SOL     OW 1966   4.872   7.732   7.812  0.2464 -0.3188  0.2137
30679SOL    HW1 1967   4.877   7.646   7.854  0.5236  0.0665  0.9975
30679SOL    HW2 1968   4.845   7.791   7.883 -1.0036  0.0679 -0.5585
30680SOL     OW 1969   6.524   2.212   0.657  0.6692 -0.2524  0.0507
30680SOL    HW1 1970   6.551   2.283   0.598  1.3909 -0.7487 -0.2284
30680SOL    HW2 1971   6.603   2.192   0.707 -0.1307  0.6998  1.7748
30681SOL     OW 1972   0.731  11.109   4.853 -0.0894  0.4060  0.2714
30681SOL    HW1 1973   0.710  11.026   4.810 -0.5783 -0.2233  1.6399
30681SOL    HW2 1974   0.825  11.105   4.870  0.0584  0.5507 -0.5022
30682SOL     OW 1975   8.181  11.666   8.310 -0.0101 -0.6176  0.2051
30682SOL    HW1 1976   8.094  11.661   8.269 -0.0634 -1.7736  0.4087
30682SOL    HW2 1977   8.163  11.669   8.404  0.1251  1.6659  0.2096
30683SOL     OW 1978   3.090   6.062  10.653  0.4509 -0.0989 -0.0983
30683SOL    HW1 1979   3.151   6.130  10.680  0.8018 -0.8676  1.1144
30683SOL    HW2 1980   3.021   6.109  10.605  0.5412  1.1382  0.9447
30684SOL     OW 1981   2.291   0.010   1.038 -0.1757 -0.0741  0.2659
30684SOL    HW1 1982   2.197   0.028   1.032 -0.7686 -2.4611  1.2935
30684SOL    HW2 1983   2.301  -0.037   1.121  1.8303 -0.5221 -0.1779
30685SOL     OW 1984   7.729  12.301   7.887  0.6817 -0.3118 -0.2031
30685SOL    HW1 1985   7.815  12.295   7.929  1.2076 -2.0167 -1.4062
30685SOL    HW2 1986   7.690  12.215   7.902 -0.3795  0.0921 -0.5737
30686SOL     OW 1987   7.572  12.507  11.891 -0.5207  0.4093  0.0912
30686SOL    HW1 1988   7.579  12.495  11.796 -3.0824  0.0180 -0.1288
30686SOL    HW2 1989   7.520  12.432  11.921  0.2151  0.5443  1.8169
30687SOL     OW 1990   9.155  11.644   1.701 -0.5521  0.1992  0.3080
30687SOL    HW1 1991   9.112  11.585   1.764 -3.5467  1.6284 -0.2221
30687SOL    HW2 1992   9.096  11.644   1.625  0.7697  1.8162 -0.7721
30688SOL     OW 1993   0.425   8.494   2.631 -0.0694  0.1265 -0.1624
30688SOL    HW1 1994   0.371   8.459   2.560  0.6144  1.8460 -1.5783
30688SOL    HW2 1995   0.417   8.589   2.624  1.5594  0.3864  0.8467
30689SOL     OW 1996  12.987   7.146   2.532  0.3528 -0.0192 -0.1926
30689SOL    HW1 1997  12.910   7.091   2.550 -0.7944  1.9147  1.0561
30689SOL    HW2 1998  13.060   7.095   2.566  0.1102 -3.0471 -3.5363
30690SOL     OW 1999  12.918   2.483   3.130 -0.3088  0.1969  0.2783
30690SOL    HW1 2000  12.960   2.544   3.069  0.1409 -0.3546  0.0296
30690SOL    HW2 2001  12.938   2.519   3.217  0.1064  0.3048  0.1419
30691SOL     OW 2002   3.650   0.133   1.226  1.3126  0.0094 -0.1890
30691SOL    HW1 2003   3.556   0.150   1.225  1.4847  1.0348  0.0038
30691SOL    HW2 2004   3.675   0.134   1.133  1.2838  0.6618 -0.1936
30692SOL     OW 2005   8.763   9.546   8.269 -0.7826  0.0173 -0.1969
30692SOL    HW1 2006   8.845   9.592   8.254 -0.8668 -0.4861 -2.7895
30692SOL    HW2 2007   8.717   9.598   8.335  1.0253  1.0582  0.2840
30693SOL     OW 2008   2.105  12.667  10.009 -0.1802 -0.2543  0.4002
30693SOL    HW1 2009   2.141  12.691   9.924 -1.7084 -0.1542 -0.2371
30693SOL    HW2 2010   2.043  12.597   9.991 -1.0289  0.2249  1.3257
30694SOL     OW 2011   3.759   8.725  10.849  0.2293 -0.0963  0.0261
30694SOL    HW1 2012   3.757   8.674  10.930  2.6414 -1.0182 -0.4079
30694SOL    HW2 2013   3.765   8.659  10.780 -2.9827  0.6046 -1.1156
30695SOL     OW 2014   4.906   0.983   9.154 -0.1342 -0.1737  0.2486
30695SOL    HW1 2015   4.811   0.997   9.152  0.0811  1.3617 -1.5687
30695SOL    HW2 2016   4.930   0.996   9.246 -1.7963 -1.8676  1.0120
30696SOL     OW 2017   4.200   7.044   0.892  0.3400 -0.4128  0.6604
30696SOL    HW1 2018   4.283   7.001   0.874  0.4689 -0.5571  1.5865
30696SOL    HW2 2019   4.135   6.973   0.891  0.3018 -0.3755  0.4549
30697SOL     OW 2020   8.428  10.989  12.664  0.3131  0.3422 -0.3133
30697SOL    HW1 2021   8.375  11.069  12.662 -1.5847 -0.6373  3.2513
30697SOL    HW2 2022   8.497  11.008  12.728  0.4511 -0.5280 -0.1964
30698SOL     OW 2023   1.032  11.974   5.541  0.2641 -0.3428  0.3931
30698SOL    HW1 2024   1.027  11.906   5.473 -0.7326 -0.5181  0.6232
30698SOL    HW2 2025   1.044  11.924   5.622 -1.2998 -0.3309  0.6690
30699SOL     OW 2026   6.628  12.496   3.017  0.1974 -0.0117  0.3778
30699SOL    HW1 2027   6.699  12.521   3.077  0.1205 -0.0062  0.4658
30699SOL    HW2 2028   6.610  12.576   2.967 -1.2094  0.6042  1.8133
30700SOL     OW 2029   1.566   1.357   6.965 -0.7278  0.0469  0.9540
30700SOL    HW1 2030   1.592   1.265   6.978  0.4209  0.5021  2.0593
30700SOL    HW2 2031   1.597   1.377   6.876 -1.5220 -0.7912  0.4679
30701SOL     OW 2032   5.037  12.149   3.137  0.0819  1.1690  0.3348
30701SOL    HW1 2033   5.061  12.168   3.227 -0.2878  3.2479  0.0519
30701SOL    HW2 2034   5.121  12.131   3.093  0.4532  1.8464  0.7468
30702SOL     OW 2035   7.602   2.260   9.546  0.5864  0.3322 -0.4609
30702SOL    HW1 2036   7.543   2.219   9.482 -1.0073 -0.1367  1.2406
30702SOL    HW2 2037   7.546   2.317   9.597  2.1127  1.8172 -0.3728
30703SOL     OW 2038   5.698   3.485   1.228  0.0300 -0.2901 -0.4122
30703SOL    HW1 2039   5.625   3.499   1.288  1.3968  0.2972  1.1799
30703SOL    HW2 2040   5.700   3.564   1.174  0.4409  0.4523  0.6388
30704SOL     OW 2041   7.047   2.944   1.580 -0.3916 -0.3001 -0.3411
30704SOL    HW1 2042   7.011   2.857   1.593  0.3620 -0.5657  0.0422
30704SOL    HW2 2043   7.047   2.957   1.485  1.0122 -1.3985 -0.5227
30705SOL     OW 2044   5.302   2.306   0.857  0.0891  0.4406  0.1612
30705SOL    HW1 2045   5.383   2.325   0.904  0.4719  0.1711 -0.3904
30705SOL    HW2 2046   5.330   2.265   0.775 -0.6265 -0.5558  0.3912
30706SOL     OW 2047  12.160   2.949  12.990 -0.1238 -0.7142 -0.3565
30706SOL    HW1 2048  12.117   2.917  12.911  0.5904 -0.2877 -0.9285
30706SOL    HW2 2049  12.189   3.038  12.969 -0.4127 -0.3805  0.5764
30707SOL     OW 2050   1.348  11.090   5.550  0.3141  0.5767  0.4413
30707SOL    HW1 2051   1.424  11.033   5.546  0.3924  0.6661  0.6730
30707SOL    HW2 2052   1.274  11.033   5.529  0.2210  0.0816  2.0399
30708SOL     OW 2053  12.130   5.476  10.847 -0.0858  0.4630 -0.0578
30708SOL    HW1 2054  12.055   5.475  10.907  1.4386  2.3314  2.0614
30708SOL    HW2 2055  12.195   5.421  10.890  0.5212  0.6167 -0.7684
30709SOL     OW 2056  11.967   8.966   1.094  0.3998  0.0866  0.5477
30709SOL    HW1 2057  11.896   9.031   1.097 -1.0631 -1.4657  1.6187
30709SOL    HW2 2058  11.961   8.920   1.178  1.2455 -1.5720 -0.2495
30710SOL     OW 2059   8.347   4.862   2.000 -0.1875 -0.2038  0.7106
30710SOL    HW1 2060   8.441   4.878   1.999 -0.2449  0.1900 -1.0017
30710SOL    HW2 2061   8.309   4.934   1.950 -1.2415 -1.2798 -0.0960
30711SOL     OW 2062  12.071  11.288   8.646  0.2602  0.0071  0.1805
30711SOL    HW1 2063  12.006  11.325   8.706  0.0117 -2.6751  1.7219
30711SOL    HW2 2064  12.031  11.206   8.615  2.0665 -0.7085 -0.4122
30712SOL     OW 2065   2.519   3.516  12.654 -0.7826  0.1017 -0.4559
30712SOL    HW1 2066   2.578   3.468  12.596  3.1927  1.0499  2.4043
30712SOL    HW2 2067   2.514   3.463  12.733  0.2653  2.2461  1.1624
30713SOL     OW 2068  11.073   8.480   8.426  0.5471 -0.0789  0.4466
30713SOL    HW1 2069  11.075   8.558   8.481 -0.2495 -0.2845  0.7829
30713SOL    HW2 2070  11.035   8.509   8.343 -1.1323 -0.3926  1.0732
30714SOL     OW 2071   8.050   1.038   0.784 -0.2959 -0.3580  0.0024
30714SOL    HW1 2072   8.038   1.133   0.784 -2.2701 -0.5645  0.9806
30714SOL    HW2 2073   8.064   1.015   0.876 -1.6278 -1.1864  0.0133
30715SOL     OW 2074   0.677   1.221   2.044  0.1928 -0.1606 -0.1201
30715SOL    HW1 2075   0.646   1.130   2.039 -2.1287  0.5285  0.3411
30715SOL    HW2 2076   0.655   1.249   2.133  2.5314  0.3513  0.3483
30716SOL     OW 2077   6.137   3.148   9.968 -0.0769  0.5421 -0.2209
30716SOL    HW1 2078   6.067   3.146  10.033 -0.5951  0.1061 -0.7734
30716SOL    HW2 2079   6.108   3.085   9.901  0.3346  1.1431 -0.9741
30717SOL     OW 2080  10.291   7.462   7.165 -0.1042 -0.5700  0.0973
30717SOL    HW1 2081  10.214   7.509   7.198 -0.5853  0.0831 -1.8486
30717SOL    HW2 2082  10.268   7.438   7.075  2.0005 -0.2851 -0.5648
30718SOL     OW 2083   0.454   7.292   5.549  0.4186 -0.0754  0.5867
30718SOL    HW1 2084   0.505   7.355   5.599  0.5829  0.7540 -0.6003
30718SOL    HW2 2085   0.374   7.281   5.601  0.2192  1.4000  0.6506
30719SOL     OW 2086   9.588   2.194   4.019  0.2060  0.0784  0.0991
30719SOL    HW1 2087   9.630   2.117   3.979  1.9114  0.0421  1.8102
30719SOL    HW2 2088   9.618   2.268   3.966  2.6813  0.0684  1.3628
30720SOL     OW 2089   5.436  13.045   6.458 -0.2533  0.1258 -0.2635
30720SOL    HW1 2090   5.419  13.001   6.541  1.2267  0.7946  0.4350
30720SOL    HW2 2091   5.514  13.098   6.474  0.3536 -0.0709 -2.2142
30721SOL     OW 2092   7.539   6.053   3.992 -0.2002 -0.0656  0.0621
30721SOL    HW1 2093   7.573   6.062   4.081  0.0008 -0.1136 -0.0098
30721SOL    HW2 2094   7.600   5.993   3.949 -0.4575 -0.2634 -0.0249
30722SOL     OW 2095   9.320   6.641   1.280 -0.2914 -0.2034 -0.0085
30722SOL    HW1 2096   9.294   6.648   1.188  0.2411 -0.0886 -0.1516
30722SOL    HW2 2097   9.237   6.643   1.328 -0.5655 -0.1173 -0.4753
30723SOL     OW 2098   4.654   2.607   2.375  0.8887  0.3939  0.0248
30723SOL    HW1 2099   4.611   2.686   2.406  0.4840  1.2689 -2.4907
30723SOL    HW2 2100   4.584   2.553   2.339  1.4201 -0.0141 -0.4331
30724SOL     OW 2101   2.062   4.632  12.269 -0.4224 -0.1694  0.0374
30724SOL    HW1 2102   2.047   4.583  12.188  0.9897  0.9612 -0.9597
30724SOL    HW2 2103   2.082   4.566  12.334  1.1221 -0.9725 -1.2007
30725SOL     OW 2104   6.671  10.824   6.155  0.0104 -0.1678 -0.4077
30725SOL    HW1 2105   6.639  10.840   6.066  0.3128 -0.6415 -0.6019
30725SOL    HW2 2106   6.766  10.834   6.148  0.1279 -1.2386 -0.3561
30726SOL     OW 2107  10.200   6.554   8.502 -0.1826  0.4381  0.9203
30726SOL    HW1 2108  10.158   6.609   8.436  0.0776  0.7457  1.0112
30726SOL    HW2 2109  10.291   6.545   8.472 -0.5522 -1.1109  0.1455
30727SOL     OW 2110   3.317   5.128   1.285  0.6669 -0.2070 -0.2149
30727SOL    HW1 2111   3.362   5.158   1.206 -2.7619 -1.3545 -2.9112
30727SOL    HW2 2112   3.227   5.112   1.256 -0.4619 -2.1218  3.6488
30728SOL     OW 2113   7.701  12.884   4.031  0.7649 -0.1964 -0.0992
30728SOL    HW1 2114   7.612  12.860   4.056  0.9783 -0.8130  0.0635
30728SOL    HW2 2115   7.717  12.836   3.950  1.1655 -0.5582  0.1927
30729SOL     OW 2116   2.366  11.447   5.937 -0.6939 -0.1587 -0.1601
30729SOL    HW1 2117   2.330  11.365   5.901  0.7493 -0.0820 -1.9688
30729SOL    HW2 2118   2.407  11.421   6.020 -0.6572 -1.1993 -0.4829
30730SOL     OW 2119   4.018   3.444   8.943  0.0270 -0.0496 -0.4250
30730SOL    HW1 2120   3.976   3.502   8.879  0.9228  0.1794 -0.8240
30730SOL    HW2 2121   4.111   3.463   8.935  0.2024 -0.4142  0.5713
30731SOL     OW 2122   8.141   2.694   0.085 -0.4290  0.6087 -0.4756
30731SOL    HW1 2123   8.085   2.684   0.162 -0.6769  3.1455 -0.2383
30731SOL    HW2 2124   8.222   2.647   0.107 -0.5228  1.2245  1.3335
30732SOL     OW 2125   7.227   5.749   5.656 -0.1654  0.1999 -0.1513
30732SOL    HW1 2126   7.245   5.655   5.657 -1.5229 -0.1030 -1.4698
30732SOL    HW2 2127   7.283   5.783   5.586  0.1066  0.3385  0.1295
30733SOL     OW 2128   3.027   5.121  12.609 -0.5867 -0.0572  1.1787
30733SOL    HW1 2129   2.970   5.080  12.545 -0.0038 -2.5125  2.1341
30733SOL    HW2 2130   3.091   5.169  12.556 -1.1418 -0.5926 -0.0194
30734SOL     OW 2131   2.476   6.395  10.929  0.4129  0.2655 -0.9937
30734SOL    HW1 2132   2.390   6.358  10.910  1.3164 -1.3498 -2.2492
30734SOL    HW2 2133   2.537   6.323  10.913  1.8408  0.3828  2.8546
30735SOL     OW 2134   2.462  10.010  10.543  0.3257 -0.3208 -0.2515
30735SOL    HW1 2135   2.462   9.933  10.599  0.6118  0.2881  0.6053
30735SOL    HW2 2136   2.554  10.022  10.519  0.4379  0.3654  0.4915
30736SOL     OW 2137   1.224   8.052  10.231  0.2622  0.1269 -0.3399
30736SOL    HW1 2138   1.274   8.124  10.269 -1.7481  2.1087 -1.2585
30736SOL    HW2 2139   1.248   8.052  10.138 -0.7210  0.4890 -0.5992
30737SOL     OW 2140  10.291  12.827   8.176  0.0765 -0.0151  0.0384
30737SOL    HW1 2141  10.340  12.822   8.258 -1.3268  0.9784  0.9897
30737SOL    HW2 2142  10.314  12.913   8.140 -0.2540  0.0625  0.0129
30738SOL     OW 2143   3.704   0.633   2.238  0.1759 -0.5282  0.6187
30738SOL    HW1 2144   3.675   0.720   2.211 -0.9187 -1.1456 -0.2550
30738SOL    HW2 2145   3.752   0.599   2.162  1.4126 -0.3485  1.2887
30739SOL     OW 2146   0.816  11.358   2.706  0.0240  0.7589 -0.1823
30739SOL    HW1 2147   0.862  11.359   2.789 -0.7326  1.8165  0.2530
30739SOL    HW2 2148   0.753  11.430   2.713  0.2849  1.1935 -1.8530
30740SOL     OW 2149   7.084   6.496   3.976 -0.2352  0.4619 -0.9488
30740SOL    HW1 2150   7.083   6.565   3.909 -0.1377 -0.4300 -1.8960
30740SOL    HW2 2151   7.091   6.543   4.059  1.2171  1.5652 -1.6434
30741SOL     OW 2152   1.001   5.602   2.322 -0.3912  0.3029 -0.1007
30741SOL    HW1 2153   1.025   5.514   2.353 -0.2729  0.2105 -0.4498
30741SOL    HW2 2154   1.080   5.654   2.335 -0.5954  0.4731  0.5181
30742SOL     OW 2155   1.726   0.559  10.910 -0.2396  0.1626 -0.1841
30742SOL    HW1 2156   1.812   0.554  10.952  0.0809 -0.7430 -0.9142
30742SOL    HW2 2157   1.664   0.552  10.983  0.2804  1.4689  0.4121
30743SOL     OW 2158   6.864   8.756  11.015 -0.2145 -0.2213 -0.8490
30743SOL    HW1 2159   6.787   8.813  11.006  0.6884  0.9163 -1.6988
30743SOL    HW2 2160   6.859   8.696  10.941  0.3118  0.6201 -1.5883
30744SOL     OW 2161   4.013   7.698  11.958 -0.4369 -0.5862 -0.4863
30744SOL    HW1 2162   4.045   7.739  11.878 -0.4307  0.1395 -0.1198
30744SOL    HW2 2163   4.002   7.771  12.020 -0.5940 -1.1154  0.1203
30745SOL     OW 2164   2.016   7.122   0.851  0.3592 -0.1530 -0.2111
30745SOL    HW1 2165   1.936   7.165   0.882  0.4967 -0.1329  0.1158
30745SOL    HW2 2166   2.064   7.099   0.931  0.3669 -0.7704 -0.3877
30746SOL     OW 2167   6.190  10.208   6.086 -0.6136  0.4813  0.5562
30746SOL    HW1 2168   6.098  10.215   6.110 -0.6880  1.7035 -0.0174
30746SOL    HW2 2169   6.194  10.134   6.026 -1.0534 -0.1559  1.2884
30747SOL     OW 2170   6.568   6.088   2.594  0.2527  0.0660 -0.3238
30747SOL    HW1 2171   6.581   6.146   2.519  0.5804  0.9883  0.4341
30747SOL    HW2 2172   6.540   6.005   2.555 -0.4673  0.7978 -1.4068
30748SOL     OW 2173  10.937   7.275   8.577  0.0262  0.6415  0.2873
30748SOL    HW1 2174  11.007   7.225   8.536 -2.1854 -0.5031 -2.4285
30748SOL    HW2 2175  10.978   7.358   8.602  2.3162  0.0459 -1.2133
30749SOL     OW 2176  11.425  11.044  13.299 -0.0049 -0.0660 -0.8633
30749SOL    HW1 2177  11.399  10.956  13.270 -2.2604  1.0920 -2.7371
30749SOL    HW2 2178  11.491  11.071  13.235 -0.3741  0.1325 -1.1635
30750SOL     OW 2179   3.287   3.933   5.563  0.4008 -0.0162  0.0721
30750SOL    HW1 2180   3.364   3.922   5.619  0.8873 -1.4991 -0.8239
30750SOL    HW2 2181   3.256   3.844   5.547 -2.5231  0.5926  1.7115
30751SOL     OW 2182  11.862   4.877   8.956 -0.3624 -0.2080  0.9990
30751SOL    HW1 2183  11.778   4.916   8.931  0.3201  1.2126  0.8421
30751SOL    HW2 2184  11.899   4.937   9.020  0.7435 -0.5741  0.7382
30752SOL     OW 2185  12.016  10.930  11.446 -0.0692 -0.0291  0.0129
30752SOL    HW1 2186  12.066  10.931  11.364  1.0538 -4.1521  0.4554
30752SOL    HW2 2187  11.925  10.920  11.418  0.1430 -0.0414 -0.7098
30753SOL     OW 2188  10.740   9.728   2.644  0.0791  0.7746 -0.3789
30753SOL    HW1 2189  10.768   9.671   2.572 -0.1702  1.4438 -1.0311
30753SOL    HW2 2190  10.645   9.734   2.633 -0.1416 -0.1691  0.8214
30754SOL     OW 2191   7.001   3.105   7.552 -0.3598 -0.5378  0.0258
30754SOL    HW1 2192   6.910   3.073   7.547 -1.2093  0.8603  3.6775
30754SOL    HW2 2193   7.048   3.035   7.596 -0.0417 -0.5222 -0.2834
30755SOL     OW 2194   1.890   4.986   4.277  0.5815 -0.6186 -0.1855
30755SOL    HW1 2195   1.977   4.963   4.247  1.2208  1.0358  0.3016
30755SOL    HW2 2196   1.886   4.955   4.367  1.3167  0.7422  0.3547
30756SOL     OW 2197   7.851  10.801   5.109 -0.2643  0.7369  0.0082
30756SOL    HW1 2198   7.850  10.800   5.014  0.1037  3.9580 -0.1528
30756SOL    HW2 2199   7.942  10.823   5.132 -0.8607  2.4717  0.9179
30757SOL     OW 2200  10.605   5.995   1.869  0.1426 -0.0236  0.5103
30757SOL    HW1 2201  10.607   6.068   1.930  0.2961  0.1879  0.2543
30757SOL    HW2 2202  10.697   5.974   1.854  0.0994 -0.2377  0.5460
30758SOL     OW 2203   2.901   3.287   3.013 -0.2040  0.4908 -0.3110
30758SOL    HW1 2204   2.946   3.371   3.007  2.0347 -0.4622  1.7299
30758SOL    HW2 2205   2.866   3.284   3.102 -0.1960 -0.7521 -0.3281
30759SOL     OW 2206  12.307  10.429   8.787  0.0136 -0.3600  0.7948
30759SOL    HW1 2207  12.247  10.502   8.803  1.3893  0.8648  0.6914
30759SOL    HW2 2208  12.317  10.387   8.872 -1.8614 -1.3352  0.5804
30760SOL     OW 2209   4.915   1.247   6.975  0.0761  0.5832  0.6067
30760SOL    HW1 2210   4.824   1.258   6.948 -0.8112 -1.5036  2.3651
30760SOL    HW2 2211   4.945   1.334   6.998 -1.3297  1.3710 -0.4137
30761SOL     OW 2212  12.635   3.164   2.461 -0.7296 -0.0350  0.3242
30761SOL    HW1 2213  12.633   3.083   2.513 -2.2773  0.1558  0.6060
30761SOL    HW2 2214  12.605   3.138   2.374 -0.7326  0.1378  0.2728
30762SOL     OW 2215   5.245   7.118  11.748 -0.5755  0.7466  0.4305
30762SOL    HW1 2216   5.258   7.212  11.762 -1.2584  0.8843  0.1963
30762SOL    HW2 2217   5.249   7.080  11.836  0.1527  0.9298  0.4826
30763SOL     OW 2218   9.034  12.189   7.657 -0.0015  0.3694  0.3913
30763SOL    HW1 2219   9.027  12.281   7.632 -1.5342  0.4384  0.9899
30763SOL    HW2 2220   8.958  12.173   7.713  2.0172 -0.3564  3.1742
30764SOL     OW 2221   4.057  12.508   8.903  0.0916  0.2395 -0.2922
30764SOL    HW1 2222   4.081  12.600   8.894 -0.6351  0.3511 -1.3362
30764SOL    HW2 2223   4.111  12.476   8.975 -0.5123  1.7830  0.9017
30765SOL     OW 2224   2.914   0.642  12.312 -0.2607 -0.5174 -0.2644
30765SOL    HW1 2225   2.993   0.677  12.352 -1.0377 -0.5827  1.4203
30765SOL    HW2 2226   2.897   0.700  12.237  0.7838  0.1113 -0.0329
30766SOL     OW 2227   6.307   0.579   3.614 -0.0809 -0.4007  0.3792
30766SOL    HW1 2228   6.368   0.578   3.540 -0.4249 -0.9536  0.0983
30766SOL    HW2 2229   6.223   0.556   3.576 -0.5208  0.5954  0.7293
30767SOL     OW 2230   6.382  12.459   9.730 -0.1990 -0.0464  0.1265
30767SOL    HW1 2231   6.470  12.460   9.692  0.2259 -0.5975  1.0812
30767SOL    HW2 2232   6.338  12.387   9.685  0.1191 -0.3223  0.2439
30768SOL     OW 2233   5.586   7.741   2.461  0.2203 -0.1066  0.1105
30768SOL    HW1 2234   5.500   7.772   2.433  0.6714 -0.8426 -2.3919
30768SOL    HW2 2235   5.645   7.813   2.441  0.8606 -1.3445 -3.1658
30769SOL     OW 2236   3.114   0.259   7.002  0.7750 -0.0977 -0.3616
30769SOL    HW1 2237   3.200   0.251   6.963 -0.1118 -0.8443 -2.2886
30769SOL    HW2 2238   3.105   0.183   7.059  1.3485 -0.0582 -0.2185
30770SOL     OW 2239  10.653   8.881   4.606 -0.1309  0.7248 -0.4816
30770SOL    HW1 2240  10.737   8.907   4.569  0.7557 -0.6631  0.4481
30770SOL    HW2 2241  10.671   8.868   4.699 -0.7759 -1.7885 -0.6259
30771SOL     OW 2242   8.420   7.879  11.290 -0.2621 -0.1464 -0.4693
30771SOL    HW1 2243   8.480   7.804  11.287 -0.7509 -0.5171 -0.9732
30771SOL    HW2 2244   8.380   7.881  11.204 -0.6578  0.3702 -0.2737
30772SOL     OW 2245   8.955   0.754   1.029  0.0912 -0.4457 -0.1206
30772SOL    HW1 2246   9.040   0.713   1.011  0.7298  0.1344  1.4041
30772SOL    HW2 2247   8.966   0.845   1.003  0.5589  0.0582  1.7050
30773SOL     OW 2248   7.327   9.253   0.839  0.5623  0.4042 -0.6093
30773SOL    HW1 2249   7.359   9.327   0.891  2.2378  0.6967 -1.9319
30773SOL    HW2 2250   7.233   9.250   0.855  0.9086  0.9099  1.8193
30774SOL     OW 2251   8.057   0.463   2.691 -0.3807  0.1391  0.3375
30774SOL    HW1 2252   7.973   0.499   2.719 -1.0806 -1.2112  0.0452
30774SOL    HW2 2253   8.105   0.446   2.772 -0.7431  0.1009  0.5443
30775SOL     OW 2254  12.338   1.695   4.737 -0.4327  0.6616 -0.0160
30775SOL    HW1 2255  12.428   1.713   4.711 -0.0749  0.1357  0.8129
30775SOL    HW2 2256  12.303   1.641   4.666  0.6584 -1.1104  0.7250
30776SOL     OW 2257   0.854   8.322   6.104  0.2701 -0.4101 -0.3753
30776SOL    HW1 2258   0.865   8.230   6.126  3.3645 -0.3527 -1.2954
30776SOL    HW2 2259   0.863   8.369   6.187  1.6029 -0.7919 -0.2900
30777SOL     OW 2260   9.265   7.737  11.577  0.3531 -0.1651 -0.3001
30777SOL    HW1 2261   9.343   7.703  11.534  0.8698  0.0224  0.4709
30777SOL    HW2 2262   9.246   7.674  11.646 -0.2609 -0.2756 -0.5618
30778SOL     OW 2263   7.292  11.150  12.528  0.2438  0.4226 -0.0265
30778SOL    HW1 2264   7.257  11.153  12.617 -0.5045  0.6799 -0.3235
30778SOL    HW2 2265   7.227  11.100  12.479 -0.2042  1.7143 -0.7972
30779SOL     OW 2266   3.805  11.904   1.866 -0.5780  0.3287  0.2642
30779SOL    HW1 2267   3.742  11.879   1.934  0.5685 -0.4298  1.0741
30779SOL    HW2 2268   3.751  11.922   1.789 -1.8936  1.0602  1.3265
30780SOL     OW 2269   6.260   8.454   2.337 -0.0123 -0.5029  0.0397
30780SOL    HW1 2270   6.191   8.512   2.369 -0.2405 -0.4188 -0.5807
30780SOL    HW2 2271   6.267   8.476   2.244  1.8475  0.5120  0.3823
30781SOL     OW 2272  13.052   8.981   1.512 -0.1127  0.0538  0.7640
30781SOL    HW1 2273  13.102   9.053   1.474 -0.0567  0.9841  2.5278
30781SOL    HW2 2274  12.962   8.998   1.485  0.1127 -0.1564 -0.1847
30782SOL     OW 2275   1.817   2.497   5.457  0.3828 -0.4251 -0.5291
30782SOL    HW1 2276   1.760   2.521   5.385 -0.5883  1.8080  0.8562
30782SOL    HW2 2277   1.884   2.566   5.459  1.5053 -1.4834 -0.4267
30783SOL     OW 2278   0.485   6.923   6.408 -0.4267  0.1250  0.2245
30783SOL    HW1 2279   0.572   6.955   6.384 -1.1103  0.8120 -1.4987
30783SOL    HW2 2280   0.466   6.966   6.491  1.7229 -1.7364  1.8347
30784SOL     OW 2281   6.322   3.130   1.659  0.3682 -0.5274  0.3453
30784SOL    HW1 2282   6.412   3.107   1.635  0.6841  0.1152  0.8739
30784SOL    HW2 2283   6.314   3.101   1.750 -0.2830 -1.4604  0.0059
30785SOL     OW 2284   8.997  12.069   9.096  0.4807 -0.0093  0.5844
30785SOL    HW1 2285   8.966  11.988   9.056  1.4590  0.6157 -1.5418
30785SOL    HW2 2286   8.920  12.125   9.101  0.3997  0.0119 -0.7483
30786SOL     OW 2287   1.362   2.997  12.899  0.2798  0.7520  0.2170
30786SOL    HW1 2288   1.372   3.070  12.960  2.3435 -0.9463  2.0827
30786SOL    HW2 2289   1.335   2.923  12.954  0.5796 -0.4661 -1.2104
30787SOL     OW 2290   4.157   4.031   8.721 -0.2526 -0.1088  0.5156
30787SOL    HW1 2291   4.141   3.941   8.692  0.5661 -0.6737  1.7488
30787SOL    HW2 2292   4.121   4.086   8.651  1.6660 -1.3994 -1.6132
30788SOL     OW 2293   0.785  12.725   7.134 -0.2688  0.1390  0.1131
30788SOL    HW1 2294   0.771  12.735   7.228  0.3265  1.7660  0.0493
30788SOL    HW2 2295   0.718  12.662   7.106 -0.8708  0.1375  1.5027
30789SOL     OW 2296   9.791  10.097   5.292  0.4067 -0.7896 -0.0895
30789SOL    HW1 2297   9.868  10.152   5.281  0.5768 -0.8724  0.6131
30789SOL    HW2 2298   9.763  10.114   5.382 -0.6591 -0.4277 -0.4693
30790SOL     OW 2299   3.460   3.470   6.165  0.0644 -0.1528 -0.4018
30790SOL    HW1 2300   3.392   3.527   6.200 -0.5371  0.2646 -2.1869
30790SOL    HW2 2301   3.423   3.382   6.169  0.8147 -0.4432  1.9089
30791SOL     OW 2302   8.830  11.961   4.958 -0.4906 -0.1781 -0.0854
30791SOL    HW1 2303   8.874  11.915   4.886 -0.3321 -0.8121  0.4074
30791SOL    HW2 2304   8.882  12.040   4.971 -0.7243  0.1212 -0.8997
30792SOL     OW 2305  10.609  13.271  11.406  0.3035  0.1158  0.0965
30792SOL    HW1 2306  10.552  13.242  11.477  0.3424  0.9365  0.4720
30792SOL    HW2 2307  10.606  13.367  11.410  1.3295  0.1717 -0.1784
30793SOL     OW 2308   4.933   5.955   9.876 -0.0608  0.0718 -0.2141
30793SOL    HW1 2309   4.935   5.880   9.935  2.9436  0.0414 -0.2491
30793SOL    HW2 2310   5.001   5.937   9.812 -0.1103  2.2849 -0.9508
30794SOL     OW 2311  12.666   1.527   7.259 -0.2536 -0.2327 -0.6502
30794SOL    HW1 2312  12.585   1.476   7.270 -0.0755 -0.4841 -0.5094
30794SOL    HW2 2313  12.636   1.609   7.220 -0.7705  0.2482  0.6741
30795SOL     OW 2314  12.228   4.291   8.196  0.0464 -0.9555  0.6433
30795SOL    HW1 2315  12.187   4.239   8.265 -1.4185 -0.7079  0.0023
30795SOL    HW2 2316  12.158   4.306   8.132 -0.0738  2.9664  1.4478
30796SOL     OW 2317   8.752   4.825  12.411  0.1558  0.1727 -0.4185
30796SOL    HW1 2318   8.678   4.811  12.469 -0.1644 -1.1223 -1.0942
30796SOL    HW2 2319   8.770   4.739  12.373  2.4764  0.2794  0.2562
30797SOL     OW 2320   2.997   4.250   6.936 -0.8350 -0.7639  0.2840
30797SOL    HW1 2321   2.928   4.297   6.889  0.0489  0.6504  0.3322
30797SOL    HW2 2322   2.988   4.279   7.027  1.1371  1.1903 -0.0608
30798SOL     OW 2323   4.866   3.012   7.299  0.7140 -0.5241  0.2521
30798SOL    HW1 2324   4.882   2.963   7.219 -1.6043  0.3315 -0.8059
30798SOL    HW2 2325   4.951   3.048   7.322  1.4098 -0.6692 -1.8955
30799SOL     OW 2326   4.944   5.744  12.478  0.3607 -0.1349  0.4064
30799SOL    HW1 2327   5.014   5.787  12.430  1.5980 -1.8665  0.5774
30799SOL    HW2 2328   4.988   5.683  12.538 -1.2638 -1.1585  0.6529
30800SOL     OW 2329   8.944  13.151   2.511 -0.2971  0.0960  0.3753
30800SOL    HW1 2330   9.004  13.091   2.466 -1.0566 -0.2527 -0.2063
30800SOL    HW2 2331   8.989  13.235   2.510 -0.4098  0.1796 -1.3786
30801SOL     OW 2332   6.572   6.044   1.009  0.5600  0.5590 -0.0329
30801SOL    HW1 2333   6.575   5.948   1.014 -0.5241  0.4652 -0.7122
30801SOL    HW2 2334   6.496   6.068   1.062  1.6922  1.1766  1.3523
30802SOL     OW 2335   1.317   0.546   3.291  0.3063 -0.9680  0.5832
30802SOL    HW1 2336   1.372   0.573   3.365 -0.3925  4.2381 -0.4331
30802SOL    HW2 2337   1.239   0.508   3.332  0.2696  1.0305  2.5715
30803SOL     OW 2338  12.974   9.072   1.154 -0.3681  0.0742 -0.1047
30803SOL    HW1 2339  12.891   9.114   1.174 -0.3738 -0.1670  0.3964
30803SOL    HW2 2340  12.966   8.984   1.191 -0.5098 -0.5199 -1.4861
30804SOL     OW 2341  12.790   6.485  10.437 -0.4037  0.0537 -0.2743
30804SOL    HW1 2342  12.721   6.456  10.496  1.5937  0.9258  2.7095
30804SOL    HW2 2343  12.861   6.422  10.448 -0.2461 -0.2611 -2.5074
30805SOL     OW 2344   8.102   8.826   6.669 -0.3660  0.3837 -0.0054
30805SOL    HW1 2345   8.127   8.795   6.756  0.2620  0.3485 -0.1974
30805SOL    HW2 2346   8.014   8.790   6.656 -0.0613 -0.4515  0.2022
30806SOL     OW 2347   4.182   3.086  11.040 -0.6286  0.4599 -0.0825
30806SOL    HW1 2348   4.209   3.154  10.980  1.0104 -0.4889 -0.4777
30806SOL    HW2 2349   4.263   3.059  11.084 -1.1330 -1.5317 -0.2843
30807SOL     OW 2350   2.818  11.012   0.624  0.2509 -0.1362  0.1583
30807SOL    HW1 2351   2.740  10.959   0.641  0.8653 -0.8612  0.8282
30807SOL    HW2 2352   2.804  11.092   0.674 -0.3500  0.0301 -0.2591
30808SOL     OW 2353   3.952   2.934   2.928 -0.0364  0.4682  0.2307
30808SOL    HW1 2354   3.920   2.941   2.838  1.9140 -2.1098 -0.7915
30808SOL    HW2 2355   4.047   2.948   2.920 -0.0399  2.1857  2.2625
30809SOL     OW 2356  11.716  10.116  10.188  0.3837  1.2128 -1.0528
30809SOL    HW1 2357  11.779  10.047  10.208  0.7039  1.5588 -0.8427
30809SOL    HW2 2358  11.630  10.074  10.195  0.5729  0.8614 -0.8384
30810SOL     OW 2359   5.195  12.921   0.465 -0.6129 -0.3102  0.3329
30810SOL    HW1 2360   5.257  12.873   0.411  0.6672  0.3562  1.1296
30810SOL    HW2 2361   5.249  12.958   0.535 -1.2230  3.4202 -0.9462
30811SOL     OW 2362   0.783  12.659  12.876  0.0051 -0.1135 -0.0172
30811SOL    HW1 2363   0.723  12.619  12.939 -0.6335  0.0833 -0.4832
30811SOL    HW2 2364   0.856  12.691  12.929 -0.6426  0.2832  0.6592
30812SOL     OW 2365   2.588   7.615   0.775  0.7910  0.3292 -0.0645
30812SOL    HW1 2366   2.635   7.652   0.700 -1.3840  0.8594 -1.2398
30812SOL    HW2 2367   2.555   7.531   0.744  0.0071  0.4811  0.3360
30813SOL     OW 2368  13.126  12.179   8.534  0.2946  0.2554  0.0134
30813SOL    HW1 2369  13.174  12.114   8.586 -0.0238  0.6084  0.7621
30813SOL    HW2 2370  13.194  12.227   8.487  0.5487 -0.4526 -0.3471
30814SOL     OW 2371  11.930  12.014   7.103  0.0146  0.2971  0.0788
30814SOL    HW1 2372  11.975  11.979   7.180 -0.0716  0.6785  0.3070
30814SOL    HW2 2373  11.936  11.945   7.038  1.1861  0.4456  0.0088
30815SOL     OW 2374   7.322   9.648  10.102 -0.3105  0.0823 -0.0782
30815SOL    HW1 2375   7.277   9.588  10.161 -0.8546  0.5968  0.0341
30815SOL    HW2 2376   7.265   9.653  10.025 -1.9138  2.9003  1.1769
30816SOL     OW 2377   4.708   4.280  10.543  0.1391 -0.3073  0.1769
30816SOL    HW1 2378   4.614   4.283  10.561  0.0116 -1.3461 -0.2493
30816SOL    HW2 2379   4.748   4.272  10.630 -0.3333 -2.7181  0.2291
30817SOL     OW 2380   0.266  10.785   8.656  0.0003  0.1048  0.3582
30817SOL    HW1 2381   0.230  10.834   8.730 -1.3749 -2.5448  1.6076
30817SOL    HW2 2382   0.224  10.699   8.663  0.5249 -0.5380 -3.0079
30818SOL     OW 2383   9.150   7.768  10.633  0.3311  0.3716 -0.0192
30818SOL    HW1 2384   9.205   7.778  10.711  0.2237 -0.6921  0.2111
30818SOL    HW2 2385   9.182   7.688  10.591 -0.2121  0.4317 -0.5645
30819SOL     OW 2386  10.634  12.975  12.471  0.0666 -0.4817  0.2474
30819SOL    HW1 2387  10.543  12.956  12.447  0.3917 -2.1922  0.2508
30819SOL    HW2 2388  10.671  13.015  12.392 -0.6865  0.2720  0.2622
30820SOL     OW 2389   5.346   8.715   0.239  0.1673  0.2056 -0.2335
30820SOL    HW1 2390   5.310   8.792   0.283  1.4727  0.3230  0.6470
30820SOL    HW2 2391   5.369   8.746   0.151  0.4067  0.7446  0.0183
30821SOL     OW 2392   8.292  11.508   9.185 -0.3304  0.9850 -0.7668
30821SOL    HW1 2393   8.224  11.522   9.118 -0.3640  0.9400 -0.7430
30821SOL    HW2 2394   8.307  11.413   9.183 -2.2916  0.5512  1.1689
30822SOL     OW 2395  13.156   3.592   0.941  0.1329 -0.0092 -0.6193
30822SOL    HW1 2396  13.101   3.634   0.875 -1.4784 -0.1873  0.5518
30822SOL    HW2 2397  13.106   3.599   1.022  2.2231  0.5445  0.6956
30823SOL     OW 2398   1.772   4.460   1.226 -0.0213 -0.0305 -0.2179
30823SOL    HW1 2399   1.810   4.399   1.162 -0.1431 -0.4033  0.0596
30823SOL    HW2 2400   1.845   4.518   1.250 -0.4903  1.5542 -2.3247
30824SOL     OW 2401   2.754   5.631   4.723  0.3102  0.5696  0.1497
30824SOL    HW1 2402   2.792   5.616   4.636  1.5869  1.4017  0.5385
30824SOL    HW2 2403   2.716   5.718   4.717  0.1443  0.5102  0.3463
30825SOL     OW 2404   3.814   7.843   0.362  0.0940  0.1549 -0.4824
30825SOL    HW1 2405   3.782   7.856   0.451  0.3053 -0.4603 -0.3103
30825SOL    HW2 2406   3.907   7.865   0.365  0.4607 -1.3044 -0.1824
30826SOL     OW 2407   4.629  10.294  10.784  0.1628  0.0555 -0.0471
30826SOL    HW1 2408   4.666  10.329  10.703  0.4665  0.8636  0.4204
30826SOL    HW2 2409   4.549  10.249  10.757  1.3675 -1.5856 -1.0663
30827SOL     OW 2410   7.213   4.427  12.324  0.2240 -0.7101 -0.5628
30827SOL    HW1 2411   7.232   4.377  12.404  2.4575  1.7099  0.6028
30827SOL    HW2 2412   7.288   4.410  12.267  0.0250 -0.2509 -0.9706
30828SOL     OW 2413   0.778   2.937  12.153 -0.7028 -0.2097 -0.3776
30828SOL    HW1 2414   0.850   3.000  12.148 -0.4927 -0.5082 -1.7046
30828SOL    HW2 2415   0.806   2.873  12.218  0.9028 -1.0591 -1.8078
30829SOL     OW 2416   3.822   1.600   8.937 -0.0445  0.4298 -0.3635
30829SOL    HW1 2417   3.788   1.514   8.911  0.0749  0.3934 -0.4039
30829SOL    HW2 2418   3.850   1.588   9.028  1.7714 -0.1413 -0.9352
30830SOL     OW 2419   3.428   9.480   4.575 -0.2874 -0.2910  0.0217
30830SOL    HW1 2420   3.409   9.404   4.519 -0.3799  0.1030 -0.4893
30830SOL    HW2 2421   3.365   9.547   4.546 -0.2648 -0.0506  0.5289
30831SOL     OW 2422   6.539   6.371   1.802 -0.1648 -0.0859 -0.2099
30831SOL    HW1 2423   6.598   6.440   1.832  0.3152 -0.2488 -0.7532
30831SOL    HW2 2424   6.584   6.289   1.825  1.3215 -0.2809 -3.2037
30832SOL     OW 2425   1.928   2.564  13.135 -0.7539 -0.2041 -0.5815
30832SOL    HW1 2426   1.894   2.575  13.046  0.1531 -0.3737 -0.9543
30832SOL    HW2 2427   1.992   2.634  13.145 -0.4535 -0.5249 -0.2512
30833SOL     OW 2428   9.374   9.585   1.992 -0.1274  0.1698 -0.8714
30833SOL    HW1 2429   9.468   9.603   1.996 -0.0114  0.2445 -3.0095
30833SOL    HW2 2430   9.333   9.671   1.986 -0.2624  0.1035 -0.9019
30834SOL     OW 2431   4.597   3.683  10.679  0.3760 -0.2316 -0.4626
30834SOL    HW1 2432   4.645   3.638  10.610 -0.2280 -0.1187 -0.9668
30834SOL    HW2 2433   4.518   3.716  10.635 -1.4169 -2.4960  0.8436
30835SOL     OW 2434   3.674   7.391  10.602  0.6552 -0.1422  0.1822
30835SOL    HW1 2435   3.650   7.346  10.521  2.3310 -0.2123 -0.3152
30835SOL    HW2 2436   3.604   7.370  10.664 -0.5710 -0.2213 -1.1874
30836SOL     OW 2437   1.472   5.852  12.718 -0.1405  0.1279 -0.2959
30836SOL    HW1 2438   1.557   5.864  12.676 -0.6560  0.7215 -1.2260
30836SOL    HW2 2439   1.487   5.869  12.811  0.4559  1.8523 -0.6723
30837SOL     OW 2440   3.136   0.355  11.802 -0.5308  0.0958  0.2426
30837SOL    HW1 2441   3.112   0.267  11.832  0.7673 -0.4296 -0.2225
30837SOL    HW2 2442   3.230   0.361  11.817  0.0565  0.1202 -2.8417
30838SOL     OW 2443   2.865   7.454  13.232 -0.0187  0.8291  0.5585
30838SOL    HW1 2444   2.902   7.419  13.151  1.4216 -0.9860  1.9104
30838SOL    HW2 2445   2.936   7.506  13.271 -1.5249  3.9384 -0.4949
30839SOL     OW 2446  10.705  10.808   9.749  0.1281  0.4591 -0.6628
30839SOL    HW1 2447  10.633  10.744   9.750 -0.6061  1.2577 -0.6223
30839SOL    HW2 2448  10.783  10.757   9.768 -0.5530 -0.2910  0.2229
30840SOL     OW 2449   8.017   5.897   6.860  0.2508 -0.6016 -0.1843
30840SOL    HW1 2450   8.026   5.876   6.767  1.8187  1.0992 -0.4640
30840SOL    HW2 2451   7.992   5.990   6.862 -0.5453 -0.8075  1.0996
30841SOL     OW 2452   2.867   6.142   9.593 -0.3168  0.3220 -0.7331
30841SOL    HW1 2453   2.861   6.141   9.498 -0.2873 -0.5374 -0.7304
30841SOL    HW2 2454   2.954   6.110   9.613 -0.7868 -0.7840 -0.3875
30842SOL     OW 2455   0.924   3.008  11.303  1.0249 -0.3022  0.7693
30842SOL    HW1 2456   0.894   2.918  11.315 -1.3174  0.2073 -0.5698
30842SOL    HW2 2457   0.962   3.009  11.215  1.1452 -0.0120  0.8242
30843SOL     OW 2458   3.638   8.540   0.005  0.1772 -0.1328  0.2444
30843SOL    HW1 2459   3.566   8.531   0.067  0.7874  1.0738  1.1884
30843SOL    HW2 2460   3.716   8.545   0.060  0.9688 -1.1363 -0.7424
30844SOL     OW 2461   4.762  10.720   9.458  0.1099  0.0711 -0.0461
30844SOL    HW1 2462   4.796  10.651   9.401  1.4894 -0.4662  1.3885
30844SOL    HW2 2463   4.811  10.799   9.433 -1.6268  0.6723 -1.8444
30845SOL     OW 2464  11.626   5.789  12.426  0.7740  0.1509 -0.0388
30845SOL    HW1 2465  11.693   5.794  12.357  0.1144  2.2255 -0.6010
30845SOL    HW2 2466  11.650   5.711  12.477  3.4230  0.6184 -0.4247
30846SOL     OW 2467   3.863   8.175   7.816 -0.3429  0.5206 -0.2189
30846SOL    HW1 2468   3.934   8.147   7.874 -0.7365  0.4443  0.2380
30846SOL    HW2 2469   3.816   8.241   7.867 -0.5131  0.6694 -0.5707
30847SOL     OW 2470   9.781   6.589   2.607  0.0174 -0.3267  0.1105
30847SOL    HW1 2471   9.860   6.562   2.653  0.3997  1.0123  0.2706
30847SOL    HW2 2472   9.780   6.685   2.614 -1.3832 -0.2885 -0.2719
30848SOL     OW 2473  12.960   8.751   3.446  0.3436  0.4675 -0.0742
30848SOL    HW1 2474  12.874   8.745   3.406 -0.6079  0.7938  1.8085
30848SOL    HW2 2475  13.011   8.805   3.386 -0.3263 -0.8098 -1.8777
30849SOL     OW 2476   5.311   2.790  10.559  0.0094  0.6156 -0.2237
30849SOL    HW1 2477   5.348   2.859  10.504  1.1368  0.6190  0.4942
30849SOL    HW2 2478   5.340   2.709  10.519 -0.6926  0.5706 -0.6485
30850SOL     OW 2479  10.336   5.701  12.554  0.1206 -0.1743  0.5106
30850SOL    HW1 2480  10.379   5.781  12.527 -1.2336  0.5340  0.3815
30850SOL    HW2 2481  10.380   5.676  12.635  2.3180 -0.7795 -0.8117
30851SOL     OW 2482   1.521   6.888   5.989  0.0672 -0.0888  0.0148
30851SOL    HW1 2483   1.538   6.926   6.075 -0.1846  1.3617 -0.5405
30851SOL    HW2 2484   1.600   6.906   5.938  0.7765 -2.1422  0.2923
30852SOL     OW 2485   7.156   4.524   3.512 -0.0319 -0.3697  0.5677
30852SOL    HW1 2486   7.062   4.513   3.493  0.1511 -0.0091 -0.6651
30852SOL    HW2 2487   7.167   4.618   3.525  0.3251 -0.2574 -0.4193
30853SOL     OW 2488   5.634   1.185   6.074  0.0483  0.6028  0.2837
30853SOL    HW1 2489   5.648   1.219   5.985  1.5099  3.0305  1.3463
30853SOL    HW2 2490   5.603   1.096   6.060  1.2291  0.5274 -2.6499
30854SOL     OW 2491   1.522   4.845   7.806 -0.2126 -0.3974 -0.1394
30854SOL    HW1 2492   1.613   4.844   7.833 -0.1741 -0.3181 -0.2682
30854SOL    HW2 2493   1.503   4.937   7.786 -0.5509 -0.2790  0.6695
30855SOL     OW 2494   5.427  12.845   6.209 -0.5777 -0.0511 -0.0186
30855SOL    HW1 2495   5.436  12.935   6.241  0.4368  0.0945 -0.6592
30855SOL    HW2 2496   5.334  12.825   6.218 -0.6764  0.7616  0.9204
30856SOL     OW 2497   9.496   1.189   1.996 -0.3195 -0.0903  0.4638
30856SOL    HW1 2498   9.467   1.279   1.980 -1.0477 -0.3481  0.3093
30856SOL    HW2 2499   9.538   1.193   2.082  0.0121  0.4729  0.2863
30857SOL     OW 2500   2.538  12.970  13.233  0.1100 -0.0225 -0.1469
30857SOL    HW1 2501   2.489  12.888  13.230 -1.1276  0.6210  1.2765
30857SOL    HW2 2502   2.629  12.944  13.244 -0.1318 -1.2090 -0.7870
30858SOL     OW 2503   3.972   5.528   5.322 -0.7683  0.0360  0.2668
30858SOL    HW1 2504   3.984   5.551   5.230 -1.0086  1.3395  0.5386
30858SOL    HW2 2505   3.952   5.611   5.365  0.0437 -0.4365  1.6230
30859SOL     OW 2506   6.584  11.003   6.376 -0.4579  0.1463  0.1215
30859SOL    HW1 2507   6.615  10.952   6.301 -0.5733  0.1221  0.0901
30859SOL    HW2 2508   6.513  10.950   6.413 -0.0715 -0.0840  0.5481
30860SOL     OW 2509  11.650   4.260   7.290  0.2102 -0.1231  0.5850
30860SOL    HW1 2510  11.691   4.340   7.257 -0.0127 -0.3943 -0.3818
30860SOL    HW2 2511  11.580   4.242   7.227  0.9816 -1.7062  0.1534
30861SOL     OW 2512   1.930   1.534   4.224 -0.8441  0.5625  0.7696
30861SOL    HW1 2513   1.934   1.628   4.205 -0.9811  0.4328  0.0606
30861SOL    HW2 2514   1.852   1.524   4.278 -1.8798  0.6267 -0.6573
30862SOL     OW 2515   0.578   9.628   4.893  0.0930 -0.7480  0.2400
30862SOL    HW1 2516   0.547   9.641   4.803  1.3917 -0.5146 -0.1946
30862SOL    HW2 2517   0.506   9.659   4.948  0.0429  0.9745 -0.7323
30863SOL     OW 2518   5.560   9.125  10.042 -0.0562 -0.3820  0.6462
30863SOL    HW1 2519   5.469   9.129  10.013  0.1650  1.4681  0.0971
30863SOL    HW2 2520   5.560   9.168  10.127  0.6036  1.6290 -0.3027
30864SOL     OW 2521   2.856  11.630   6.625  0.0076  0.7267  0.1822
30864SOL    HW1 2522   2.811  11.656   6.705  0.5283  1.6709  0.1920
30864SOL    HW2 2523   2.786  11.600   6.566 -0.9268  3.6425 -0.3911
30865SOL     OW 2524   4.513   9.822   4.534 -0.6215 -0.1361 -0.1648
30865SOL    HW1 2525   4.476   9.791   4.617 -1.6402 -1.2178 -0.9989
30865SOL    HW2 2526   4.440   9.824   4.473  0.1735  0.3292 -1.1445
30866SOL     OW 2527   3.787  12.342   5.266 -0.4071 -0.7536  0.4450
30866SOL    HW1 2528   3.746  12.381   5.189  0.8985  1.1376  0.6368
30866SOL    HW2 2529   3.747  12.389   5.340  0.2156 -0.7225  0.7653
30867SOL     OW 2530   4.711   7.995   9.948  0.4356  0.1280 -0.1597
30867SOL    HW1 2531   4.776   8.058   9.917 -0.5914  0.4174 -1.8918
30867SOL    HW2 2532   4.752   7.910   9.937  0.7712  0.3470 -0.6252
30868SOL     OW 2533   7.941  10.798  11.282  0.3208 -0.0045 -0.0399
30868SOL    HW1 2534   7.878  10.776  11.213 -0.7805 -0.7830  1.1650
30868SOL    HW2 2535   8.007  10.852  11.238 -0.6075 -0.0683 -1.5844
30869SOL     OW 2536  10.631   9.032   0.619  0.3874 -0.3958  0.1035
30869SOL    HW1 2537  10.553   9.079   0.591  1.2280 -0.0424 -1.7995
30869SOL    HW2 2538  10.605   8.988   0.700 -1.0293  1.6657  0.8318
30870SOL     OW 2539   6.756  10.625  13.218 -0.1527 -0.2912  0.0440
30870SOL    HW1 2540   6.801  10.654  13.138 -3.7677  0.8224 -1.7906
30870SOL    HW2 2541   6.768  10.698  13.280 -0.9258  0.8136 -1.0612
30871SOL     OW 2542   4.186   6.272   5.092 -0.4093  0.2932 -0.4316
30871SOL    HW1 2543   4.122   6.222   5.143  1.5527 -0.7285  1.1920
30871SOL    HW2 2544   4.241   6.206   5.051 -0.2532  1.1449 -1.6424
30872SOL     OW 2545   2.640   1.879   7.418  0.4124 -0.2634 -0.0122
30872SOL    HW1 2546   2.623   1.934   7.495  0.8315  0.5828 -0.5127
30872SOL    HW2 2547   2.707   1.926   7.370 -1.0637  0.1047 -1.8089
30873SOL     OW 2548   4.926   1.082  10.791  0.3260 -0.0312 -0.4834
30873SOL    HW1 2549   5.005   1.104  10.742  0.1860 -1.6188 -1.4925
30873SOL    HW2 2550   4.878   1.164  10.798  0.8827  0.4625 -2.0539
30874SOL     OW 2551   3.631  12.467   9.308 -0.3871  0.4478  0.0763
30874SOL    HW1 2552   3.711  12.514   9.287  0.8240 -0.8645  1.5275
30874SOL    HW2 2553   3.659  12.377   9.324 -2.5091 -0.6619 -1.7948
30875SOL     OW 2554   2.429  10.115  11.517 -0.2377  0.4381  0.7506
30875SOL    HW1 2555   2.473  10.145  11.597  0.3138  2.5320 -0.2577
30875SOL    HW2 2556   2.348  10.166  11.514  0.9177  2.3225 -1.2242
30876SOL     OW 2557   6.309   6.484  11.898 -0.4372  0.0561 -0.3909
30876SOL    HW1 2558   6.230   6.521  11.939  0.7509  1.6786  0.5416
30876SOL    HW2 2559   6.275   6.433  11.824 -2.3651  0.6837 -0.0198
30877SOL     OW 2560   2.978   3.776   1.450 -0.2836  0.0123 -0.6707
30877SOL    HW1 2561   2.949   3.788   1.540 -0.4594 -0.6873 -0.6263
30877SOL    HW2 2562   3.068   3.742   1.459  0.0494  0.8453 -0.7810
30878SOL     OW 2563   0.392   7.437  10.903  0.6936  0.1087  0.1067
30878SOL    HW1 2564   0.317   7.436  10.844  0.9045 -0.8091 -0.1605
30878SOL    HW2 2565   0.454   7.497  10.861  0.3279  0.4581  0.0589
30879SOL     OW 2566   8.727  11.481   5.211  0.2346  0.4613  0.2535
30879SOL    HW1 2567   8.643  11.504   5.250  0.0790 -0.7521  0.6732
30879SOL    HW2 2568   8.737  11.387   5.228  0.1147 -0.1817 -2.7098
30880SOL     OW 2569  11.014   4.320  12.703 -0.2595 -0.2095 -0.2345
30880SOL    HW1 2570  11.071   4.390  12.733  1.5063 -1.1588 -1.2048
30880SOL    HW2 2571  10.956   4.302  12.777 -0.1036  1.5843  0.3595
30881SOL     OW 2572  11.017   3.771  11.383  0.1580 -0.2127  0.0893
30881SOL    HW1 2573  11.029   3.794  11.291 -0.7748 -1.1837 -0.3033
30881SOL    HW2 2574  11.052   3.845  11.432  0.5192  0.3862 -1.0537
30882SOL     OW 2575  12.451  12.555  11.164  0.7259  0.0146  0.0309
30882SOL    HW1 2576  12.455  12.630  11.105 -0.1791  1.0739  1.2792
30882SOL    HW2 2577  12.472  12.591  11.251  2.3059 -1.5494  0.3711
30883SOL     OW 2578  11.833   3.244  13.213  0.4830 -0.1013  0.2495
30883SOL    HW1 2579  11.815   3.263  13.305 -0.4448  1.1421 -0.1494
30883SOL    HW2 2580  11.909   3.298  13.191  0.2333  0.2080  0.1150
30884SOL     OW 2581   5.920   1.498  11.938 -0.1924 -0.0728 -0.0301
30884SOL    HW1 2582   5.880   1.478  11.853  0.9471  0.9244 -0.8418
30884SOL    HW2 2583   5.857   1.554  11.982 -0.7580 -0.5297 -0.2379
30885SOL     OW 2584   8.602  11.793   6.807  0.0487 -0.4537  0.5642
30885SOL    HW1 2585   8.566  11.727   6.747  0.1724 -2.1530  2.2714
30885SOL    HW2 2586   8.687  11.814   6.770 -1.4486  1.6308 -2.0552
30886SOL     OW 2587   9.399   9.404   4.846  0.2485  0.1253  0.3030
30886SOL    HW1 2588   9.487   9.376   4.873  0.1646 -1.9619 -1.3089
30886SOL    HW2 2589   9.352   9.322   4.829 -1.2215  1.2150 -1.1971
30887SOL     OW 2590   1.289   2.721   6.379  0.0308 -0.0088 -0.3367
30887SOL    HW1 2591   1.318   2.642   6.333  0.2313 -1.1729  1.6741
30887SOL    HW2 2592   1.302   2.701   6.472 -1.9276  1.5764  0.3521
30888SOL     OW 2593   8.856   4.327   2.443  0.0668  0.3374 -0.5063
30888SOL    HW1 2594   8.925   4.263   2.464 -1.2005 -0.9317 -0.0397
30888SOL    HW2 2595   8.835   4.368   2.527 -1.2629 -0.8799 -0.2153
30889SOL     OW 2596   5.737   0.820  13.304 -0.6123 -0.4872 -0.2468
30889SOL    HW1 2597   5.651   0.854  13.331  0.2307  0.5575  1.2694
30889SOL    HW2 2598   5.754   0.749  13.367 -0.1021 -0.2961 -0.1711
30890SOL     OW 2599  11.198   4.029   6.553 -0.1268 -0.4104 -0.4239
30890SOL    HW1 2600  11.289   4.008   6.533 -0.3070 -0.8099 -0.8419
30890SOL    HW2 2601  11.149   3.952   6.526 -0.6365 -0.0355 -0.5913
30891SOL     OW 2602   1.615   9.907   4.960 -0.2432  0.5439 -0.2876
30891SOL    HW1 2603   1.578   9.941   4.879  0.3285  2.4531  0.2088
30891SOL    HW2 2604   1.623   9.813   4.945 -1.3045  0.6858 -1.9660
30892SOL     OW 2605   8.014   9.242   3.479  0.2145  0.2695  0.0425
30892SOL    HW1 2606   7.927   9.270   3.506  0.0519 -0.6327  0.5142
30892SOL    HW2 2607   7.998   9.176   3.411  0.5954  1.6059 -1.3854
30893SOL     OW 2608   9.141   5.838   2.474  0.2306 -0.1430  0.4820
30893SOL    HW1 2609   9.069   5.777   2.461  1.5673 -2.1381  1.7289
30893SOL    HW2 2610   9.125   5.876   2.560  0.5412 -0.4686  0.6900
30894SOL     OW 2611   6.285   6.120   3.895 -0.8903  0.3427  0.5194
30894SOL    HW1 2612   6.380   6.111   3.888 -0.8932  0.5022  0.2601
30894SOL    HW2 2613   6.251   6.038   3.858 -0.8071 -0.8317  2.8930
30895SOL     OW 2614  11.939   4.106  10.242  0.7661 -0.2756 -0.2630
30895SOL    HW1 2615  11.994   4.172  10.284  0.2005 -0.0708  0.1643
30895SOL    HW2 2616  11.858   4.107  10.292  0.4834 -0.7895 -0.7019
30896SOL     OW 2617   9.684  10.511   7.864 -0.0393  0.0442 -0.4257
30896SOL    HW1 2618   9.606  10.478   7.819  0.4509  0.5297 -1.6790
30896SOL    HW2 2619   9.669  10.605   7.873  0.5435  0.2134 -1.0402
30897SOL     OW 2620  13.285  13.187   8.780  0.2213 -0.2298  0.0751
30897SOL    HW1 2621  13.377  13.183   8.752 -0.4058  0.6421 -2.3246
30897SOL    HW2 2622  13.258  13.276   8.758 -0.5898  0.3203  2.9755
30898SOL     OW 2623   9.333  10.732  12.599  0.1847  0.2150  0.0586
30898SOL    HW1 2624   9.320  10.653  12.546 -2.1073 -0.9990  2.2024
30898SOL    HW2 2625   9.333  10.804  12.535 -0.1883 -1.3287 -1.7649
30899SOL     OW 2626   6.958   1.662  11.390 -0.6471 -0.0701  0.8167
30899SOL    HW1 2627   6.887   1.678  11.452 -0.3880  1.0907  0.8356
30899SOL    HW2 2628   6.914   1.655  11.305 -1.0610 -2.1999  1.1510
30900SOL     OW 2629   8.562   5.849  12.531  0.2228  0.3484 -0.0753
30900SOL    HW1 2630   8.632   5.847  12.596 -1.1805 -0.8727  1.4834
30900SOL    HW2 2631   8.594   5.795  12.459  1.8818  1.8858 -0.5740
30901SOL     OW 2632   3.070   1.137   8.811  0.1705  0.1243 -0.3444
30901SOL    HW1 2633   2.988   1.186   8.813  0.1212  0.0324  1.6361
30901SOL    HW2 2634   3.066   1.080   8.888  0.6257 -2.3666 -2.0267
30902SOL     OW 2635   0.716   5.839   3.240  0.5415  0.2509  0.0697
30902SOL    HW1 2636   0.644   5.882   3.285 -0.7641 -0.6561 -1.0828
30902SOL    HW2 2637   0.674   5.774   3.184  2.2473 -0.1118 -0.8487
30903SOL     OW 2638   9.361   0.238   8.723  0.0629 -0.0344 -0.3830
30903SOL    HW1 2639   9.411   0.203   8.649 -1.1900 -0.9091 -0.8536
30903SOL    HW2 2640   9.279   0.188   8.722 -1.2680  2.0051 -0.2701
30904SOL     OW 2641   9.572   4.434   5.180  0.0792  0.4178  0.0382
30904SOL    HW1 2642   9.666   4.448   5.165 -0.5454  2.2978 -2.9902
30904SOL    HW2 2643   9.533   4.521   5.169 -1.9895 -0.1443  2.1140
30905SOL     OW 2644  12.608   7.845   4.118  0.6084 -0.6616  0.7655
30905SOL    HW1 2645  12.661   7.923   4.106  2.2235 -1.9004 -0.6986
30905SOL    HW2 2646  12.601   7.806   4.030 -0.2647 -2.0888  1.4149
30906SOL     OW 2647   5.602   2.083   9.504 -0.2370  0.2475 -0.5372
30906SOL    HW1 2648   5.651   2.143   9.448  0.0090 -0.7069 -1.3766
30906SOL    HW2 2649   5.602   2.000   9.456 -1.7269 -0.0714 -0.0365
30907SOL     OW 2650   3.158   9.841  11.749 -0.2961 -0.1510 -0.0066
30907SOL    HW1 2651   3.099   9.860  11.675  0.3432  0.8316 -0.2803
30907SOL    HW2 2652   3.245   9.861  11.715  0.0133  0.2020  0.9791
30908SOL     OW 2653   2.016   3.112  11.843 -0.0654  0.4756 -0.5326
30908SOL    HW1 2654   2.089   3.055  11.866 -0.5756 -2.2707 -4.5776
30908SOL    HW2 2655   2.057   3.190  11.806  1.2087 -1.6216 -4.1333
30909SOL     OW 2656  13.178   3.125  12.023  0.3195  0.3902 -0.2124
30909SOL    HW1 2657  13.170   3.124  12.118 -0.5403  2.0386 -0.2247
30909SOL    HW2 2658  13.272   3.120  12.007  0.3789 -2.0850  0.6148
30910SOL     OW 2659   0.782   1.787   4.417 -0.1141 -0.3121 -0.0447
30910SOL    HW1 2660   0.752   1.699   4.439 -1.0867  0.1154  0.3728
30910SOL    HW2 2661   0.719   1.819   4.353  0.1868  0.1151 -0.1293
30911SOL     OW 2662   4.888   7.027  12.364 -0.3849  0.7224  0.2834
30911SOL    HW1 2663   4.817   7.041  12.302 -0.0300  0.1353 -0.2665
30911SOL    HW2 2664   4.928   7.114  12.374 -0.7753  0.9253  0.1088
30912SOL     OW 2665   6.622   7.981  12.067 -0.4977  0.0943 -0.4296
30912SOL    HW1 2666   6.644   7.977  11.974  0.8480  0.2980 -0.1408
30912SOL    HW2 2667   6.609   8.074  12.085 -0.6796  0.0627 -0.3946
30913SOL     OW 2668  10.687   3.603   0.767 -0.3271 -0.1290 -0.5052
30913SOL    HW1 2669  10.762   3.654   0.798 -0.0829 -0.9167  0.2463
30913SOL    HW2 2670  10.722   3.552   0.694  0.4110 -1.8731  0.9771
30914SOL     OW 2671   9.340   1.934  11.836 -1.2594  0.3705  0.1146
30914SOL    HW1 2672   9.295   1.854  11.864 -0.1150  0.3793  2.2039
30914SOL    HW2 2673   9.284   2.005  11.866 -1.5426  0.3666 -0.4003
30915SOL     OW 2674  11.431   4.756  13.006  0.3023  0.1987 -0.2832
30915SOL    HW1 2675  11.486   4.678  12.994 -0.1904 -0.4238  1.2653
30915SOL    HW2 2676  11.466   4.819  12.943  0.8502 -1.1878 -1.4296
30916SOL     OW 2677   2.516   9.697   6.972 -0.6445  0.0103 -0.1572
30916SOL    HW1 2678   2.443   9.671   6.915  0.8390 -0.5459 -1.8730
30916SOL    HW2 2679   2.543   9.616   7.015 -0.6786  0.1151  0.0655
30917SOL     OW 2680   0.215   6.695  13.122  0.4104  0.3323  0.3223
30917SOL    HW1 2681   0.171   6.617  13.087 -0.8348  1.0348  0.2567
30917SOL    HW2 2682   0.152   6.766  13.110  2.1622  1.7366 -1.2202
30918SOL     OW 2683  10.830   6.937   2.120 -0.2313 -0.7797 -0.1822
30918SOL    HW1 2684  10.898   6.969   2.060 -1.5445 -1.6738 -2.2641
30918SOL    HW2 2685  10.846   6.843   2.127 -0.9278 -0.9154 -0.3058
30919SOL     OW 2686   4.815   2.900   1.114  0.1788  0.2225 -0.0164
30919SOL    HW1 2687   4.904   2.907   1.150  0.3621 -1.3181 -0.0786
30919SOL    HW2 2688   4.828   2.873   1.023 -0.3383  1.4034 -0.4522
30920SOL     OW 2689  11.943   4.627   8.949 -0.2056  0.2326  0.1206
30920SOL    HW1 2690  11.878   4.623   9.018 -0.7022  0.8270 -0.3009
30920SOL    HW2 2691  11.944   4.719   8.922 -2.1297 -0.4154 -2.6222
30921SOL     OW 2692   0.937   3.864   3.121 -0.3277  0.1825 -0.5024
30921SOL    HW1 2693   1.023   3.896   3.095 -0.8049  0.6609 -1.5770
30921SOL    HW2 2694   0.953   3.806   3.195  0.8484  0.7430 -0.3019
30922SOL     OW 2695  10.303   9.669   6.208 -0.1601  0.0714  0.6763
30922SOL    HW1 2696  10.377   9.610   6.192 -0.5593 -0.0393 -0.9812
30922SOL    HW2 2697  10.313   9.696   6.299  2.4326  0.7813  0.2719
30923SOL     OW 2698   8.207  10.577   5.250 -0.1311 -0.4222 -0.0943
30923SOL    HW1 2699   8.227  10.568   5.157 -1.7684  2.5886 -0.8425
30923SOL    HW2 2700   8.250  10.658   5.276 -0.5407 -0.7009  1.5379
30924SOL     OW 2701   5.255   9.749   5.256  0.1339  0.1881  0.4627
30924SOL    HW1 2702   5.327   9.708   5.209  0.2319  0.6182  0.2416
30924SOL    HW2 2703   5.252   9.839   5.224  0.0781  0.4328  1.1310
30925SOL     OW 2704  11.763   6.864  12.387 -0.0680  0.1344  0.2770
30925SOL    HW1 2705  11.683   6.812  12.388 -0.1709  0.2724  1.7302
30925SOL    HW2 2706  11.811   6.834  12.310 -0.6617 -1.2765  0.4284
30926SOL     OW 2707   6.497   0.234   8.525 -0.6315  0.0076  0.0525
30926SOL    HW1 2708   6.429   0.170   8.547 -1.2877  0.1533 -1.4179
30926SOL    HW2 2709   6.452   0.318   8.522 -0.1505  0.2755  0.1724
30927SOL     OW 2710  11.539  11.719   6.673  0.3503 -0.2328  0.6263
30927SOL    HW1 2711  11.493  11.797   6.642  0.8507 -0.1840 -0.0115
30927SOL    HW2 2712  11.514  11.650   6.612  2.2884  0.1439 -0.6827
30928SOL     OW 2713  10.047   4.257   7.901  0.3971  0.3684  0.4272
30928SOL    HW1 2714  10.109   4.270   7.828 -0.1859 -1.6234 -0.4793
30928SOL    HW2 2715  10.071   4.172   7.938 -2.0757 -0.7410 -0.2985
30929SOL     OW 2716   7.796   7.030   2.058 -0.1124 -0.6321 -0.2951
30929SOL    HW1 2717   7.794   6.989   1.971 -3.3512 -0.7520 -0.3074
30929SOL    HW2 2718   7.757   6.964   2.116 -3.2509  1.3333  0.1044
30930SOL     OW 2719  11.843   9.882   9.775 -0.2595  0.6444  0.3130
30930SOL    HW1 2720  11.909   9.834   9.825  0.7451  1.2777 -0.3505
30930SOL    HW2 2721  11.807   9.817   9.714  0.7661  0.5878 -0.2703
30931SOL     OW 2722  10.774   7.397   2.470  0.3514 -0.0754  0.1552
30931SOL    HW1 2723  10.684   7.408   2.501  0.5297 -0.3545  0.7794
30931SOL    HW2 2724  10.802   7.313   2.506  1.4686  0.8114  1.4405
30932SOL     OW 2725   9.399   3.514   3.649 -0.3252 -0.3521  0.3310
30932SOL    HW1 2726   9.407   3.418   3.650 -2.0958 -0.5192  0.4788
30932SOL    HW2 2727   9.316   3.531   3.604  0.2257  1.1545 -0.1770
30933SOL     OW 2728   9.070   8.393   1.193  0.0615  0.1010  0.6327
30933SOL    HW1 2729   9.166   8.390   1.194  0.1894  2.2947  0.5461
30933SOL    HW2 2730   9.048   8.387   1.100  0.1482  0.0241  0.6166
30934SOL     OW 2731  10.407   1.789  12.747 -0.2738  0.5045 -0.6262
30934SOL    HW1 2732  10.482   1.808  12.690 -0.7959  2.8381 -0.6241
30934SOL    HW2 2733  10.440   1.805  12.835 -0.1284 -0.8313 -0.4163
30935SOL     OW 2734   6.070   6.726  10.649  0.2083 -0.0346  0.0561
30935SOL    HW1 2735   6.156   6.697  10.619 -0.0432 -0.2419 -0.4806
30935SOL    HW2 2736   6.057   6.811  10.607  0.4746  0.3602  0.7533
30936SOL     OW 2737   4.781  12.604   1.143 -0.6126  0.5119  0.0944
30936SOL    HW1 2738   4.819  12.685   1.109  1.4991 -0.7809 -0.8521
30936SOL    HW2 2739   4.687  12.613   1.128 -0.0898  1.1267 -3.8968
30937SOL     OW 2740   0.292   3.533   5.210  0.0667  0.9197  0.4221
30937SOL    HW1 2741   0.330   3.590   5.276  0.6964  1.6851 -0.5877
30937SOL    HW2 2742   0.357   3.530   5.140 -1.7745  2.4862 -1.4859
30938SOL     OW 2743   5.218   7.117   6.428 -0.4057 -0.5195 -0.2293
30938SOL    HW1 2744   5.239   7.025   6.413  1.1728 -0.2163  0.0205
30938SOL    HW2 2745   5.294   7.165   6.398  1.4008  0.3675  4.7599
30939SOL     OW 2746  10.138   1.474   2.678  0.0285 -0.3024  0.6300
30939SOL    HW1 2747  10.178   1.446   2.761  1.7632 -1.3393 -0.4776
30939SOL    HW2 2748  10.206   1.458   2.613 -1.6042 -0.3540 -1.1382
30940SOL     OW 2749  12.742  12.791   6.313  0.0051 -0.2201  0.1987
30940SOL    HW1 2750  12.784  12.708   6.331  1.5029  0.3890 -0.3398
30940SOL    HW2 2751  12.752  12.803   6.218 -2.7159 -0.7307 -0.2586
30941SOL     OW 2752  12.438  11.471   3.959 -0.7471  0.3505 -0.4031
30941SOL    HW1 2753  12.452  11.533   3.888 -1.1734  0.3366 -0.4980
30941SOL    HW2 2754  12.363  11.418   3.931 -1.4117  0.8468  0.3873
30942SOL     OW 2755   8.382   8.162   3.002  0.3847  0.5055  0.7002
30942SOL    HW1 2756   8.387   8.252   3.034 -1.5474  0.6993  0.5582
30942SOL    HW2 2757   8.334   8.168   2.919 -0.3234 -0.6983  0.9870
30943SOL     OW 2758  11.851   8.467   8.617 -0.2719  0.7615 -0.0703
30943SOL    HW1 2759  11.842   8.558   8.589 -1.2077  0.3186 -1.2648
30943SOL    HW2 2760  11.761   8.438   8.633 -0.0221 -0.0925 -0.1559
30944SOL     OW 2761   4.947   9.108   3.355 -0.6166  0.3049 -0.2917
30944SOL    HW1 2762   4.995   9.191   3.361 -0.0945  0.0733 -1.0709
30944SOL    HW2 2763   4.989   9.062   3.282 -0.1463 -1.1412  0.8427
30945SOL     OW 2764  10.355   2.831   5.784  0.1666  0.0203  0.1038
30945SOL    HW1 2765  10.411   2.854   5.710 -1.5679  2.1698 -0.6243
30945SOL    HW2 2766  10.366   2.736   5.794  2.4509  0.0876 -1.1787
30946SOL     OW 2767  10.091   9.109  12.836 -0.1924 -0.2435  0.4123
30946SOL    HW1 2768  10.093   9.032  12.892  0.8055 -1.7407 -1.5404
30946SOL    HW2 2769  10.182   9.119  12.806  0.3871  3.4348  2.7509
30947SOL     OW 2770   5.315   3.274   5.674 -0.0357 -0.2701  0.5353
30947SOL    HW1 2771   5.222   3.253   5.672 -0.3427  1.0435 -0.6924
30947SOL    HW2 2772   5.340   3.263   5.766 -1.2956 -1.0538  0.8017
30948SOL     OW 2773   5.352  13.092   4.748  0.6035  0.3626 -0.2178
30948SOL    HW1 2774   5.341  13.151   4.674 -0.2030  1.0635  0.4412
30948SOL    HW2 2775   5.277  13.032   4.743 -0.1478  1.1946  0.7162
30949SOL     OW 2776   8.799   0.081   7.441  0.5599 -0.0871 -0.3665
30949SOL    HW1 2777   8.857   0.025   7.390  0.4069 -0.2854 -0.3250
30949SOL    HW2 2778   8.819   0.062   7.532 -0.9684 -1.6776 -0.3045
30950SOL     OW 2779   2.111   7.070   8.106 -0.0980  0.1164  0.2271
30950SOL    HW1 2780   2.144   7.147   8.152  0.3185  0.2287 -0.2464
30950SOL    HW2 2781   2.033   7.101   8.060 -0.0865  0.1874  0.2555
30951SOL     OW 2782  11.252  11.673  12.990 -0.4316  0.5176 -0.0504
30951SOL    HW1 2783  11.332  11.694  12.941 -0.0506 -2.7975 -1.1130
30951SOL    HW2 2784  11.273  11.697  13.080  2.2675 -1.1924 -0.1064
30952SOL     OW 2785  11.877   8.695   9.908  0.6939 -0.1011  0.1728
30952SOL    HW1 2786  11.938   8.712   9.836  1.9917 -0.8075  1.0455
30952SOL    HW2 2787  11.934   8.671   9.982 -0.6704 -3.7913  0.2401
30953SOL     OW 2788  10.515  12.955   3.005 -0.4358 -0.0235  0.4146
30953SOL    HW1 2789  10.436  13.001   2.978  0.6248  1.1338 -0.9092
30953SOL    HW2 2790  10.514  12.960   3.101  0.0158  3.6702  0.3862
30954SOL     OW 2791   7.476   0.814   2.943 -0.6601  0.2580 -0.9373
30954SOL    HW1 2792   7.412   0.878   2.913  0.5252  1.9322 -0.0706
30954SOL    HW2 2793   7.560   0.846   2.911  0.0440 -0.5105  0.0427
30955SOL     OW 2794   3.189   5.666  11.109  0.4915 -0.0583  0.2455
30955SOL    HW1 2795   3.193   5.744  11.053  1.5464 -0.5883 -0.4709
30955SOL    HW2 2796   3.232   5.692  11.190 -1.3651  0.8261  0.9782
30956SOL     OW 2797  11.464   6.049  10.533  0.0691  0.2891  0.3526
30956SOL    HW1 2798  11.368   6.042  10.532  0.1438 -1.1885 -0.6094
30956SOL    HW2 2799  11.486   6.093  10.451  0.2603 -0.6327 -0.1034
30957SOL     OW 2800   7.299  11.906  12.508  0.7120 -0.6597  0.6784
30957SOL    HW1 2801   7.352  11.830  12.487 -1.3654 -1.7787 -0.9339
30957SOL    HW2 2802   7.347  11.952  12.577  2.9199 -2.4141  0.3859
30958SOL     OW 2803  11.519   0.164   6.948  0.5317  0.1835  0.6251
30958SOL    HW1 2804  11.480   0.227   6.887  0.0339  0.6270  1.3762
30958SOL    HW2 2805  11.534   0.215   7.028  1.2751 -0.3620  0.8401
30959SOL     OW 2806   0.328  12.858   3.142 -0.1561  0.0666 -0.5034
30959SOL    HW1 2807   0.308  12.918   3.070  2.1115  1.3700 -0.1061
30959SOL    HW2 2808   0.248  12.856   3.194 -0.0860  3.4949 -0.0329
30960SOL     OW 2809   2.741  11.436  10.773 -0.0824  0.6863  0.3011
30960SOL    HW1 2810   2.752  11.412  10.865  1.4063 -0.2193 -0.0590
30960SOL    HW2 2811   2.776  11.525  10.767  0.1970  0.5963  0.5484
30961SOL     OW 2812  12.224  10.605   2.461  0.3102  0.1577  0.3586
30961SOL    HW1 2813  12.156  10.607   2.394  1.1679  0.2330 -0.5275
30961SOL    HW2 2814  12.239  10.697   2.482  1.3803  0.2569 -0.7522
30962SOL     OW 2815  11.027  12.517   6.829  0.0110 -0.3694 -0.6267
30962SOL    HW1 2816  11.098  12.462   6.795  0.9382  1.3372 -1.5497
30962SOL    HW2 2817  11.057  12.545   6.916  1.0831  1.3325 -1.4967
30963SOL     OW 2818  12.918  11.576  12.992  0.4544  0.1924 -0.3241
30963SOL    HW1 2819  12.949  11.499  13.039  1.9358  1.2788  0.5638
30963SOL    HW2 2820  12.973  11.648  13.024 -1.6057  1.8539 -0.2469
30964SOL     OW 2821   4.217   8.211   2.278 -0.4752  0.2065 -0.4722
30964SOL    HW1 2822   4.204   8.262   2.198 -2.4508 -0.6000 -0.7140
30964SOL    HW2 2823   4.166   8.257   2.344  1.9826  1.4659  0.6606
30965SOL     OW 2824   3.096   1.322  11.950  0.0661 -0.0987 -0.6128
30965SOL    HW1 2825   3.004   1.318  11.927  0.0672 -0.5296 -0.5539
30965SOL    HW2 2826   3.137   1.249  11.902  0.1033 -0.8704  0.5307
30966SOL     OW 2827   5.276   3.671   3.088  0.5181 -0.0296  0.3051
30966SOL    HW1 2828   5.280   3.583   3.051 -0.3295 -0.1249  0.4228
30966SOL    HW2 2829   5.267   3.657   3.182 -0.4433  0.1609  0.2494
30967SOL     OW 2830   3.675   8.119   0.817 -0.2877 -0.4769 -0.1005
30967SOL    HW1 2831   3.745   8.184   0.810  0.4663 -1.2248  0.3104
30967SOL    HW2 2832   3.672   8.096   0.910 -2.8164  1.3724  0.3591
30968SOL     OW 2833  12.583   6.924   8.172  0.3944 -0.2050  0.3263
30968SOL    HW1 2834  12.509   6.866   8.154  2.2432 -2.7221  0.2878
30968SOL    HW2 2835  12.549   7.012   8.157 -2.4353 -1.2768 -0.1117
30969SOL     OW 2836  12.572   3.248   4.660 -0.0654  0.4933 -0.0446
30969SOL    HW1 2837  12.649   3.295   4.631 -0.9096  1.7457 -0.3069
30969SOL    HW2 2838  12.504   3.315   4.672 -1.2170 -0.5991 -0.1392
30970SOL     OW 2839  10.318   8.015   6.618 -0.2914  0.6223  0.1950
30970SOL    HW1 2840  10.323   8.044   6.709 -0.6534 -0.4755  0.5822
30970SOL    HW2 2841  10.237   8.053   6.585 -2.3645 -2.1871  1.5860
30971SOL     OW 2842  11.169  11.922   5.310  0.2935  0.0792  0.5189
30971SOL    HW1 2843  11.218  12.004   5.307  0.8040 -0.2311  0.2477
30971SOL    HW2 2844  11.106  11.934   5.382  0.9115  0.4002  1.0158
30972SOL     OW 2845  10.430  13.207   4.385  0.0101 -0.3441  0.5398
30972SOL    HW1 2846  10.473  13.210   4.471 -1.4252 -1.3611  1.3387
30972SOL    HW2 2847  10.484  13.147   4.334  0.1400 -0.8068  1.1967
30973SOL     OW 2848   6.772   6.439   5.013 -0.0644  0.5841  0.2858
30973SOL    HW1 2849   6.788   6.518   5.065 -0.4022  0.6132  0.3442
30973SOL    HW2 2850   6.764   6.369   5.079  1.5159  0.2638  0.1936
30974SOL     OW 2851   7.985   5.873  11.222  0.3369 -0.2697  1.3043
30974SOL    HW1 2852   7.955   5.792  11.265 -1.1529  0.3171  1.4309
30974SOL    HW2 2853   7.904   5.915  11.192  1.2570 -0.2965 -1.4462
30975SOL     OW 2854  13.142  12.911   7.091 -0.2572  0.0963  0.3214
30975SOL    HW1 2855  13.229  12.950   7.080 -0.6532  1.4889  1.7391
30975SOL    HW2 2856  13.124  12.868   7.008  1.3908  0.5910 -0.3262
30976SOL     OW 2857   4.154   3.276  11.397 -0.5566  0.2956 -0.1309
30976SOL    HW1 2858   4.154   3.189  11.437  1.5184  0.2589 -0.1023
30976SOL    HW2 2859   4.078   3.276  11.338 -3.1859  0.0129  2.9778
30977SOL     OW 2860   5.876  11.910   7.835 -0.7737 -0.2048  0.8201
30977SOL    HW1 2861   5.894  11.992   7.790 -1.9863 -0.5745 -0.3768
30977SOL    HW2 2862   5.950  11.854   7.812 -1.6198 -0.5557 -1.1728
30978SOL     OW 2863   3.371   4.602   5.935 -0.1626  0.1159  0.1960
30978SOL    HW1 2864   3.290   4.652   5.944 -0.0879  0.6963 -1.8042
30978SOL    HW2 2865   3.440   4.669   5.934  0.1086 -0.1692 -0.6066
30979SOL     OW 2866   8.731  11.559   3.499  0.6946 -0.7077  0.2716
30979SOL    HW1 2867   8.767  11.627   3.556  1.0957 -0.5803 -0.1324
30979SOL    HW2 2868   8.771  11.575   3.414  0.0704 -0.8769 -0.0614
30980SOL     OW 2869   1.109   4.584   5.699 -0.0877  0.3545 -0.1241
30980SOL    HW1 2870   1.181   4.528   5.727 -1.5516 -2.5620 -1.7746
30980SOL    HW2 2871   1.150   4.670   5.686  2.2867 -0.2309  2.4184
30981SOL     OW 2872   1.302   6.744   3.263  0.2742  0.0999  0.1080
30981SOL    HW1 2873   1.294   6.803   3.188  1.7078 -1.9312 -1.7812
30981SOL    HW2 2874   1.334   6.799   3.334 -0.4562  1.9703 -0.9389
30982SOL     OW 2875   6.704   3.035  11.184 -0.2169  0.2419 -0.3411
30982SOL    HW1 2876   6.678   3.060  11.272  0.6267  1.0619 -0.3122
30982SOL    HW2 2877   6.752   3.111  11.150 -0.9489  0.1431 -1.6855
30983SOL     OW 2878  10.370  12.782  13.159 -0.2091  0.2523  0.1381
30983SOL    HW1 2879  10.370  12.875  13.179 -1.4846 -0.0328  1.6394
30983SOL    HW2 2880  10.435  12.745  13.219 -1.2636 -0.0810  1.1212
30984SOL     OW 2881   0.132   5.650   2.383 -0.0954 -0.4183 -0.7423
30984SOL    HW1 2882   0.102   5.726   2.333  0.2030 -0.1796 -0.5628
30984SOL    HW2 2883   0.115   5.575   2.326  1.3674 -0.0447 -1.7121
30985SOL     OW 2884   2.375   9.726  10.533 -0.0060 -0.1258  0.3003
30985SOL    HW1 2885   2.429   9.699  10.458  0.7542  1.1031  0.3746
30985SOL    HW2 2886   2.367   9.647  10.586  0.5345 -0.6917 -0.4298
30986SOL     OW 2887  12.433   6.586   8.348 -0.4191 -0.2061 -0.0374
30986SOL    HW1 2888  12.389   6.582   8.433 -2.1760 -0.5995 -0.9330
30986SOL    HW2 2889  12.518   6.626   8.367  0.0603 -2.0813  2.2154
30987SOL     OW 2890  12.810   0.744   1.399 -0.3633 -0.1840 -0.2542
30987SOL    HW1 2891  12.727   0.756   1.353 -0.4370 -0.1858 -0.1240
30987SOL    HW2 2892  12.824   0.826   1.445 -0.2738 -0.1707 -0.3042
30988SOL     OW 2893  13.002   0.534   9.544 -0.3350 -0.2663 -0.0402
30988SOL    HW1 2894  12.925   0.590   9.530  0.9140  1.2560 -1.2854
30988SOL    HW2 2895  13.062   0.588   9.596  0.5093 -0.8118 -0.4130
30989SOL     OW 2896   2.070  11.740   2.685 -0.4545 -0.1875  0.6160
30989SOL    HW1 2897   1.977  11.757   2.704  0.1059  1.2415  2.4902
30989SOL    HW2 2898   2.082  11.647   2.702 -1.6284 -0.4989 -0.1437
30990SOL     OW 2899   3.438  10.540   0.958  0.0198 -0.0730 -0.1042
30990SOL    HW1 2900   3.452  10.609   1.024  0.6252 -0.6809  0.4185
30990SOL    HW2 2901   3.393  10.585   0.886 -3.1398  0.0807  1.7816
30991SOL     OW 2902   4.435   1.034   2.700  0.8482  0.0115  0.0966
30991SOL    HW1 2903   4.489   1.073   2.632  0.9901  0.1043  0.2606
30991SOL    HW2 2904   4.366   1.099   2.715  1.4426  0.4896  0.8121
30992SOL     OW 2905   7.467  10.242   9.471  0.0506 -0.2871  0.0599
30992SOL    HW1 2906   7.406  10.308   9.502 -0.7115 -0.8665 -0.1749
30992SOL    HW2 2907   7.490  10.192   9.549 -0.2644 -0.4616  0.0395
30993SOL     OW 2908  10.301   7.194   5.231  0.2871  0.2471  0.2135
30993SOL    HW1 2909  10.388   7.231   5.245  0.3378  0.1317  0.2031
30993SOL    HW2 2910  10.310   7.143   5.150 -0.0559  1.0779 -0.3521
30994SOL     OW 2911   5.460  12.787   9.739  0.3082 -0.2020  0.2099
30994SOL    HW1 2912   5.453  12.846   9.815 -0.4279 -1.1883  0.9373
30994SOL    HW2 2913   5.447  12.844   9.663 -2.5352  0.3083  0.9598
30995SOL     OW 2914   5.681   2.481  11.231  0.3160 -0.7042  0.1417
30995SOL    HW1 2915   5.626   2.407  11.255  0.2819 -0.5144  0.6622
30995SOL    HW2 2916   5.755   2.442  11.185 -0.2074 -0.9677 -0.4890
30996SOL     OW 2917   9.175   6.116   2.895 -0.2327 -0.2158 -0.1711
30996SOL    HW1 2918   9.158   6.068   2.976  0.8693 -1.6739 -0.7676
30996SOL    HW2 2919   9.270   6.127   2.893 -0.2295 -0.3843 -1.3748
30997SOL     OW 2920  11.397  12.846   1.951 -0.0763  0.6110  0.1559
30997SOL    HW1 2921  11.468  12.909   1.961 -0.6078  1.5693 -1.7336
30997SOL    HW2 2922  11.324  12.884   2.000  0.5381 -0.1971  1.7861
30998SOL     OW 2923  10.737   2.665   6.049 -0.0379  0.6629  0.1158
30998SOL    HW1 2924  10.670   2.661   6.118 -1.4130  0.8646 -1.1737
30998SOL    HW2 2925  10.704   2.608   5.980  2.0491 -0.7342  0.1836
30999SOL     OW 2926  11.455   7.257   4.645  0.3515  0.1380 -0.0829
30999SOL    HW1 2927  11.376   7.262   4.699  0.4862 -1.3918  0.2856
30999SOL    HW2 2928  11.445   7.177   4.594  2.0180 -0.5218  0.5564
31000SOL     OW 2929   1.074   8.316  11.002 -0.1708  0.6841 -0.1218
31000SOL    HW1 2930   0.984   8.320  10.971  0.5616 -0.7447 -2.6524
31000SOL    HW2 2931   1.100   8.225  10.993  1.8632  1.2382 -0.4695
31001SOL     OW 2932   5.009   4.099  11.251  0.0188  0.1171  0.0222
31001SOL    HW1 2933   5.032   4.189  11.272  1.1326 -0.2757  0.5974
31001SOL    HW2 2934   4.973   4.064  11.333 -2.8999  0.7412 -0.8755
31002SOL     OW 2935  12.200   2.562   7.228 -0.1619  0.4074 -0.3427
31002SOL    HW1 2936  12.120   2.552   7.280  0.2220 -0.8434  0.0261
31002SOL    HW2 2937  12.172   2.543   7.138 -0.3612  0.3846 -0.2766
31003SOL     OW 2938   6.196   4.303   9.735 -0.4122  0.1984 -0.7250
31003SOL    HW1 2939   6.102   4.287   9.742 -0.5436  0.3068 -1.9922
31003SOL    HW2 2940   6.216   4.362   9.807 -1.0015 -1.0929  0.5268
31004SOL     OW 2941   9.974   9.934  13.148 -0.7918  0.6503 -0.0287
31004SOL    HW1 2942  10.041   9.989  13.108  0.7247 -1.8906 -1.2470
31004SOL    HW2 2943  10.023   9.874  13.205 -2.0844 -0.7506 -0.3183
31005SOL     OW 2944   4.607  11.096  10.301  0.2239  0.0411  0.2948
31005SOL    HW1 2945   4.527  11.144  10.278  1.0401  0.6406 -1.5142
31005SOL    HW2 2946   4.579  11.005  10.311 -0.7443  0.3051  0.1059
31006SOL     OW 2947   5.826   9.362   7.981  0.2648 -0.0664  0.2138
31006SOL    HW1 2948   5.804   9.434   7.922 -0.0589 -0.2379  0.1217
31006SOL    HW2 2949   5.797   9.283   7.935 -1.6108 -0.0793  1.3252
31007SOL     OW 2950  11.179  10.606   8.546 -0.2567  0.3613 -0.1560
31007SOL    HW1 2951  11.194  10.515   8.519 -0.0466 -0.8286  3.4269
31007SOL    HW2 2952  11.263  10.634   8.583 -1.2375  0.6675  2.0003
31008SOL     OW 2953   4.607   8.757   3.524  0.9637 -0.4455 -0.3125
31008SOL    HW1 2954   4.601   8.722   3.613 -0.5157 -2.1310 -1.0160
31008SOL    HW2 2955   4.521   8.798   3.509  0.6856 -1.3943 -1.4206
31009SOL     OW 2956   3.583  11.145   0.072  0.1783 -0.2207 -0.0016
31009SOL    HW1 2957   3.609  11.124   0.161 -0.3528 -2.4849 -0.3103
31009SOL    HW2 2958   3.496  11.184   0.081  0.3456  0.0495  0.4848
31010SOL     OW 2959   1.723   8.363   2.571 -0.5957  0.5112  0.0360
31010SOL    HW1 2960   1.673   8.436   2.535 -0.7573 -0.4776 -1.9017
31010SOL    HW2 2961   1.805   8.363   2.521 -0.4631 -0.4309  0.2305
31011SOL     OW 2962  10.035   2.331   9.815  0.4608 -0.2098 -0.2991
31011SOL    HW1 2963  10.097   2.404   9.822 -0.1838  0.2242  1.6258
31011SOL    HW2 2964   9.956   2.369   9.777  0.4641 -0.1429 -0.2391
31012SOL     OW 2965   6.429   4.989  12.864 -0.1694  0.3262  0.2966
31012SOL    HW1 2966   6.373   5.062  12.837 -1.2762 -1.0409 -1.3302
31012SOL    HW2 2967   6.404   4.972  12.955 -1.6831  0.3951 -0.0878
31013SOL     OW 2968   3.184   4.649   4.068 -0.1269  0.1029 -0.5974
31013SOL    HW1 2969   3.193   4.645   4.164 -0.1108  0.3167 -0.5883
31013SOL    HW2 2970   3.267   4.614   4.035  0.5217  1.5064 -0.5194
31014SOL     OW 2971  10.395   9.936   2.763 -0.1244  0.4120  0.0019
31014SOL    HW1 2972  10.352   9.962   2.845  1.2139  0.0237  0.8583
31014SOL    HW2 2973  10.483   9.974   2.769  0.4206 -0.6978 -0.6631
31015SOL     OW 2974   3.155   8.891  11.246  0.1409 -0.3389 -0.2847
31015SOL    HW1 2975   3.225   8.864  11.307 -0.3723  0.5121  0.7138
31015SOL    HW2 2976   3.147   8.986  11.259 -0.7689 -0.3257 -0.8519
31016SOL     OW 2977  12.985   2.894   6.634  1.0151 -0.3522 -0.3113
31016SOL    HW1 2978  12.905   2.940   6.608  1.5968  1.9418  1.6211
31016SOL    HW2 2979  13.052   2.962   6.636  3.0549 -2.1732 -1.7111
31017SOL     OW 2980   9.956   5.868   0.536 -0.1825  0.3462  0.2621
31017SOL    HW1 2981  10.045   5.868   0.501  0.3970  1.9873  1.6235
31017SOL    HW2 2982   9.900   5.861   0.458  1.0989  0.5417 -0.7111
31018SOL     OW 2983   6.874  12.444   8.715 -0.1714  0.1263 -0.5338
31018SOL    HW1 2984   6.781  12.427   8.699 -0.5364  1.1740  0.3723
31018SOL    HW2 2985   6.919  12.372   8.671 -1.3758 -0.1028 -1.4539
31019SOL     OW 2986   0.510  11.593  11.188  0.0740 -0.4857 -0.0963
31019SOL    HW1 2987   0.601  11.621  11.179 -0.5111  1.5919  0.0701
31019SOL    HW2 2988   0.471  11.657  11.247 -0.9394 -2.7717  1.8550
31020SOL     OW 2989   7.340  10.898   0.180 -0.4655 -0.1205 -0.3942
31020SOL    HW1 2990   7.407  10.832   0.162  1.9212  1.9174  0.4162
31020SOL    HW2 2991   7.274  10.852   0.231  1.5376 -1.7172  0.9028
31021SOL     OW 2992   6.644   6.117   3.098 -0.5279 -0.1198  0.0609
31021SOL    HW1 2993   6.731   6.081   3.112 -0.0650  0.8486 -0.2057
31021SOL    HW2 2994   6.660   6.209   3.075 -1.4471 -0.5088 -2.4791
31022SOL     OW 2995   5.118  10.758   4.294  0.0670  0.4788  0.2825
31022SOL    HW1 2996   5.088  10.668   4.282 -0.7344  0.3796  2.5024
31022SOL    HW2 2997   5.209  10.758   4.263  0.1868 -1.1797  0.5679
31023SOL     OW 2998   0.338  11.434  11.596 -0.0801 -0.1200 -0.0479
31023SOL    HW1 2999   0.301  11.520  11.616 -0.6705  0.5041 -3.2288
31023SOL    HW2 3000   0.285  11.401  11.523  1.3474 -2.3134 -0.1972
31024SOL     OW 3001   2.789  12.239   5.408  0.5886  0.2829  0.4190
31024SOL    HW1 3002   2.839  12.306   5.362  0.8356  0.6007  1.1451
31024SOL    HW2 3003   2.770  12.276   5.494  1.7090 -0.9821  1.2662
31025SOL     OW 3004   3.197   2.972  11.340  0.0610 -0.4403 -0.1351
31025SOL    HW1 3005   3.265   3.039  11.342 -0.2287 -0.1589  1.2971
31025SOL    HW2 3006   3.115   3.020  11.345 -0.3539 -0.7286 -2.6067
31026SOL     OW 3007   2.675   8.739   1.772 -0.1567  0.6351 -0.4251
31026SOL    HW1 3008   2.739   8.800   1.735  0.3390  0.6912  0.5013
31026SOL    HW2 3009   2.595   8.790   1.778  0.1849  1.1231  0.0954
31027SOL     OW 3010   8.033  10.158   0.239  0.3399  0.0082  0.0616
31027SOL    HW1 3011   7.972  10.089   0.264 -2.3493  2.0527 -0.4031
31027SOL    HW2 3012   8.019  10.227   0.304 -0.8765  2.1336 -2.2799
31028SOL     OW 3013   8.280  11.682   5.533  0.0330 -0.0125  0.3699
31028SOL    HW1 3014   8.340  11.608   5.522  0.9774  1.1166 -2.8485
31028SOL    HW2 3015   8.203  11.658   5.481  0.1140  1.0246 -0.2365
31029SOL     OW 3016   1.002  11.950  12.916 -0.3771  0.1129 -0.4496
31029SOL    HW1 3017   0.924  11.985  12.872 -0.8073  0.5322  0.5982
31029SOL    HW2 3018   1.025  12.016  12.980  0.5274 -0.2611 -0.3762
31030SOL     OW 3019   7.335   8.346   6.256 -0.4503 -0.5247 -0.2268
31030SOL    HW1 3020   7.288   8.279   6.307 -0.2511 -0.0342  0.6203
31030SOL    HW2 3021   7.341   8.421   6.316 -0.9651  0.3808 -1.2772
31031SOL     OW 3022   4.025   1.500   5.719  0.3175 -0.3452 -0.1084
31031SOL    HW1 3023   3.957   1.481   5.655  0.8589 -0.4249 -0.6739
31031SOL    HW2 3024   4.016   1.593   5.738 -1.0131 -0.6884  1.0924
31032SOL     OW 3025   2.299   2.545   4.423 -0.7468 -0.9626  0.1170
31032SOL    HW1 3026   2.266   2.607   4.488 -1.4778 -1.4720  0.2351
31032SOL    HW2 3027   2.320   2.466   4.473  0.2940 -0.7827 -0.0150
31033SOL     OW 3028   2.787   4.131   5.681 -0.0620 -0.2623  0.3560
31033SOL    HW1 3029   2.762   4.073   5.608  1.5870 -0.3758 -0.1613
31033SOL    HW2 3030   2.711   4.186   5.694 -1.0731 -1.4506 -0.2463
31034SOL     OW 3031   2.220   6.722   1.160  0.5578 -0.1450  0.1539
31034SOL    HW1 3032   2.158   6.668   1.111  1.3176 -1.8057  0.9394
31034SOL    HW2 3033   2.293   6.734   1.100 -1.1805  3.5611 -1.5835
31035SOL     OW 3034   4.727   8.854   6.423  0.1731 -0.4832 -0.5734
31035SOL    HW1 3035   4.758   8.931   6.376 -2.7934  1.3115  0.1566
31035SOL    HW2 3036   4.779   8.852   6.503  0.3561  0.7049 -0.6531
31036SOL     OW 3037   0.260   4.932  10.395  0.3091 -1.1892 -0.7019
31036SOL    HW1 3038   0.165   4.946  10.389  0.4767  0.2707 -0.2091
31036SOL    HW2 3039   0.287   4.980  10.473  1.9589  1.4771 -2.7469
31037SOL     OW 3040   6.313   7.132   7.837 -0.0542 -0.0115  0.4262
31037SOL    HW1 3041   6.366   7.107   7.761 -0.0831 -0.5307  0.5723
31037SOL    HW2 3042   6.233   7.081   7.828 -0.1632  0.1180  0.6700
31038SOL     OW 3043   6.847   3.098  11.872 -0.2685  0.0865  0.2175
31038SOL    HW1 3044   6.940   3.075  11.871 -0.5195 -1.0813  1.0773
31038SOL    HW2 3045   6.832   3.130  11.961 -0.5467  0.9137 -0.1233
31039SOL     OW 3046   9.535   8.636  11.535 -0.3186 -0.5412 -0.0462
31039SOL    HW1 3047   9.611   8.652  11.591 -0.3776 -0.0479 -0.1038
31039SOL    HW2 3048   9.569   8.581  11.464 -0.2354 -1.1412  0.4479
31040SOL     OW 3049   8.749  10.090   6.991 -0.1020 -0.4170  0.1863
31040SOL    HW1 3050   8.702  10.173   6.981 -1.5586 -1.2175  0.0388
31040SOL    HW2 3051   8.761  10.081   7.085  1.3415  0.6013  0.1406
31041SOL     OW 3052   7.690   5.386   9.403  0.2940  0.8181  0.3115
31041SOL    HW1 3053   7.694   5.474   9.441  1.0404  1.4903 -1.2203
31041SOL    HW2 3054   7.597   5.370   9.390  0.1423  1.3159  0.7575
31042SOL     OW 3055   9.018   8.142   8.245 -0.5842  0.5450 -0.5999
31042SOL    HW1 3056   9.051   8.055   8.221  0.4276  0.1691  1.7862
31042SOL    HW2 3057   8.923   8.131   8.250 -0.4063 -0.7498  0.6273
31043SOL     OW 3058   8.293   5.758   0.434 -0.0364 -0.0332 -0.0379
31043SOL    HW1 3059   8.207   5.801   0.430 -0.3243 -0.1825  2.6196
31043SOL    HW2 3060   8.278   5.679   0.486  1.9114  0.6088  1.6369
31044SOL     OW 3061  12.429   0.554   8.558 -0.3695  0.2167  0.6087
31044SOL    HW1 3062  12.410   0.493   8.629 -2.9664 -0.0600 -0.1961
31044SOL    HW2 3063  12.502   0.514   8.511  1.4579  0.4487  3.0677
31045SOL     OW 3064   1.553  12.902   7.507  0.0025 -0.1623  0.0104
31045SOL    HW1 3065   1.594  12.962   7.444 -0.2914 -2.4069 -2.5119
31045SOL    HW2 3066   1.625  12.851   7.542 -0.0103 -0.0742  0.1627
31046SOL     OW 3067   9.713   1.794   0.843  0.1424  0.3638 -0.0176
31046SOL    HW1 3068   9.719   1.839   0.927  1.6919 -0.4275  0.3234
31046SOL    HW2 3069   9.674   1.709   0.864  0.1154  0.3376 -0.1704
31047SOL     OW 3070   4.111   1.233   7.466 -0.0980 -0.0245 -0.3123
31047SOL    HW1 3071   4.154   1.228   7.381 -1.4301 -2.7164 -0.9605
31047SOL    HW2 3072   4.091   1.326   7.478  1.0715  0.5618 -2.4318
31048SOL     OW 3073   1.513  10.116   6.258 -0.1854 -0.2307  0.0202
31048SOL    HW1 3074   1.441  10.114   6.322 -0.0132 -2.7994  0.2207
31048SOL    HW2 3075   1.474  10.156   6.180 -0.9051  1.2898  1.1044
31049SOL     OW 3076   1.993   3.189   8.517 -0.2418  0.3143 -0.1198
31049SOL    HW1 3077   1.910   3.200   8.470  0.2766  0.6886 -0.9467
31049SOL    HW2 3078   2.027   3.277   8.526  0.1505  0.1432  0.0817
31050SOL     OW 3079   3.026   4.695   2.182 -0.3536 -0.3937  0.3271
31050SOL    HW1 3080   3.080   4.616   2.173 -0.7915 -0.6085 -0.5717
31050SOL    HW2 3081   3.042   4.744   2.101  0.3824  0.7496  1.1373
31051SOL     OW 3082   2.979   5.023   3.043 -0.1129 -0.1329 -0.0098
31051SOL    HW1 3083   2.932   4.954   3.089 -1.0737  1.0857  0.9054
31051SOL    HW2 3084   3.020   5.075   3.112  3.8360 -1.8930 -0.7806
31052SOL     OW 3085   3.171  12.950  12.374 -0.1759 -0.0027 -0.5418
31052SOL    HW1 3086   3.216  12.892  12.436 -0.5057  0.0120 -0.2899
31052SOL    HW2 3087   3.220  12.940  12.293  0.5886  0.3715 -0.1485
31053SOL     OW 3088   2.912   1.700  11.935  0.2137  0.2237 -0.1337
31053SOL    HW1 3089   2.910   1.656  11.850 -1.8993 -1.7602  0.8413
31053SOL    HW2 3090   2.824   1.687  11.971  0.2228  3.2731  1.2951
31054SOL     OW 3091   9.802  10.273   1.106 -0.4005 -0.2155  0.2280
31054SOL    HW1 3092   9.797  10.207   1.175 -2.7010  0.2802  0.5949
31054SOL    HW2 3093   9.749  10.238   1.034  0.7183 -0.0326 -0.7329
31055SOL     OW 3094   9.592  12.873   6.133 -0.2507  0.0395 -0.0543
31055SOL    HW1 3095   9.633  12.789   6.155  0.2364  0.1262 -0.6127
31055SOL    HW2 3096   9.518  12.850   6.077 -0.6568 -0.0813  0.5291
31056SOL     OW 3097  11.928   8.790   2.398  0.0180  0.2784 -0.0158
31056SOL    HW1 3098  11.894   8.768   2.312  1.0458 -0.8533 -0.1708
31056SOL    HW2 3099  11.865   8.751   2.459 -1.2945  2.0055 -0.1953
31057SOL     OW 3100   3.052   6.393  10.798 -0.0612  0.0164  0.2413
31057SOL    HW1 3101   3.116   6.418  10.732 -1.7945 -0.6979 -1.8247
31057SOL    HW2 3102   3.102   6.387  10.879  2.5106 -0.7260 -1.2947
31058SOL     OW 3103  10.715   8.398   8.808 -0.2707  0.3406 -0.3439
31058SOL    HW1 3104  10.752   8.326   8.756  0.9654  0.3916  0.4145
31058SOL    HW2 3105  10.764   8.475   8.779 -0.1495  0.5123  0.3065
31059SOL     OW 3106   0.390   7.775  12.733  0.5719  0.1185 -0.1054
31059SOL    HW1 3107   0.455   7.716  12.772  0.3419  1.1450  1.9721
31059SOL    HW2 3108   0.442   7.845  12.693  0.7854  0.4817  0.7892
31060SOL     OW 3109   1.586   2.425  11.733  0.4790 -0.1754 -0.3466
31060SOL    HW1 3110   1.527   2.351  11.720  1.4708 -0.5916 -3.2966
31060SOL    HW2 3111   1.529   2.496  11.764 -0.8462 -1.5500  0.5467
31061SOL     OW 3112   0.495   4.374   1.336  0.2508  0.4588 -0.1827
31061SOL    HW1 3113   0.575   4.423   1.317  1.3239 -1.1188  0.0616
31061SOL    HW2 3114   0.506   4.291   1.290 -0.6801 -0.2780  0.8706
31062SOL     OW 3115   1.270   7.446   2.275 -0.1609 -0.4777  0.8169
31062SOL    HW1 3116   1.201   7.507   2.303 -0.7898 -0.8847  0.1785
31062SOL    HW2 3117   1.245   7.362   2.314 -2.1050 -1.5241 -2.3737
31063SOL     OW 3118   4.893  12.201  11.381 -0.2124  0.3074  0.0669
31063SOL    HW1 3119   4.830  12.139  11.345 -1.5184  2.9438 -2.6661
31063SOL    HW2 3120   4.977  12.174  11.345 -0.5157 -0.6464  0.0518
31064SOL     OW 3121   9.874   0.712   3.932  0.4087  0.3140  0.1678
31064SOL    HW1 3122   9.799   0.654   3.920  0.3419  0.4167  0.0894
31064SOL    HW2 3123   9.897   0.740   3.843 -0.1444  1.1538  0.2792
31065SOL     OW 3124  11.593   8.846   3.101  0.0250  0.5125 -0.4277
31065SOL    HW1 3125  11.539   8.910   3.054  0.7721  1.4758 -0.0025
31065SOL    HW2 3126  11.532   8.802   3.160 -0.5239  0.7458 -0.8084
31066SOL     OW 3127  12.124  11.621   5.618  0.0650  0.1223 -0.5722
31066SOL    HW1 3128  12.152  11.674   5.544  0.3597  0.0497 -0.5144
31066SOL    HW2 3129  12.205  11.597   5.663 -0.0278 -0.6758 -0.8062
31067SOL     OW 3130   5.193   0.547  10.388 -0.6405 -0.7769 -0.2144
31067SOL    HW1 3131   5.231   0.559  10.475  0.1543  1.6331 -0.8065
31067SOL    HW2 3132   5.225   0.462  10.359  0.3453 -0.9368  1.2283
31068SOL     OW 3133   4.433   9.549   5.798  0.1484  0.1604 -0.0188
31068SOL    HW1 3134   4.440   9.580   5.707  0.2980  0.2998  0.0410
31068SOL    HW2 3135   4.476   9.617   5.850 -0.3976  0.3375  0.2067
31069SOL     OW 3136   0.890  10.537   5.845  0.8167  0.3648  0.1918
31069SOL    HW1 3137   0.909  10.630   5.853 -0.0071  0.4114  2.4565
31069SOL    HW2 3138   0.843  10.515   5.926 -1.8283 -1.3379 -1.6347
31070SOL     OW 3139   5.772   2.885  10.385 -0.3775  0.2646 -0.0546
31070SOL    HW1 3140   5.715   2.954  10.350  0.1040  0.5613 -0.2600
31070SOL    HW2 3141   5.760   2.890  10.480 -2.1740 -0.9591 -0.1685
31071SOL     OW 3142  10.484   0.562   2.247 -0.2737  0.2504  0.0873
31071SOL    HW1 3143  10.488   0.476   2.289  0.1441  0.6404  0.8826
31071SOL    HW2 3144  10.469   0.623   2.319  1.1515  1.0149 -0.2055
31072SOL     OW 3145   8.260   9.449   4.784 -0.3072  0.4267 -0.5977
31072SOL    HW1 3146   8.257   9.516   4.852  0.8881  0.8513 -0.9314
31072SOL    HW2 3147   8.178   9.401   4.793  1.1152 -1.7355  3.3743
31073SOL     OW 3148  10.144   9.726   0.915 -0.5111  0.1494 -0.3271
31073SOL    HW1 3149  10.189   9.806   0.943 -0.9338  0.3492 -0.2115
31073SOL    HW2 3150  10.171   9.661   0.980  0.0432  0.1279 -0.5732
31074SOL     OW 3151   0.144   7.815   7.234 -0.0395  0.1227  0.3277
31074SOL    HW1 3152   0.166   7.884   7.297  0.3233 -0.4686  0.8616
31074SOL    HW2 3153   0.051   7.830   7.214 -0.0615  0.5445  0.7155
31075SOL     OW 3154   4.913   7.294  11.156  0.8037 -0.0487  0.0342
31075SOL    HW1 3155   4.858   7.303  11.234  2.1788  1.7301  0.8738
31075SOL    HW2 3156   4.854   7.259  11.089 -0.6733 -0.6407  1.5646
31076SOL     OW 3157  10.632   5.026  10.667 -0.1298  0.4370 -0.2022
31076SOL    HW1 3158  10.673   5.105  10.633 -0.5362  0.7115 -0.0582
31076SOL    HW2 3159  10.697   4.989  10.727 -0.7433  1.8067  1.3782
31077SOL     OW 3160  11.924   3.855   6.389  0.2572 -0.3757  0.5557
31077SOL    HW1 3161  11.937   3.910   6.466  1.6645  0.7333 -0.4501
31077SOL    HW2 3162  11.945   3.767   6.419  1.8995  0.2017  1.1805
31078SOL     OW 3163   6.800   1.873  11.700  0.1913 -0.2132  0.9633
31078SOL    HW1 3164   6.728   1.899  11.758  0.3318  0.9417  0.6435
31078SOL    HW2 3165   6.878   1.910  11.739  0.3068  0.4677  0.1220
31079SOL     OW 3166   6.156  10.124   1.654  0.0870 -0.3965  0.3758
31079SOL    HW1 3167   6.083  10.154   1.600 -0.8291 -0.1972  1.6649
31079SOL    HW2 3168   6.128  10.039   1.687  1.1839 -1.0997 -0.4731
31080SOL     OW 3169   0.443   8.175   7.883  0.2336 -0.3002  1.0601
31080SOL    HW1 3170   0.412   8.251   7.932 -0.6460 -0.3184  0.5482
31080SOL    HW2 3171   0.423   8.100   7.939 -2.5296 -0.5164 -0.0441
31081SOL     OW 3172   7.198  12.908   3.515 -0.7343 -0.3316 -0.2297
31081SOL    HW1 3173   7.153  12.980   3.471  0.6757 -0.2910 -1.7128
31081SOL    HW2 3174   7.285  12.943   3.534  0.3759 -1.9272 -2.0103
31082SOL     OW 3175   1.820   9.899   1.266  1.0897  0.3927 -0.5335
31082SOL    HW1 3176   1.806   9.958   1.340  1.0732 -1.5773  1.1104
31082SOL    HW2 3177   1.898   9.848   1.290  0.7885 -0.6273 -1.6323
31083SOL     OW 3178  11.513  10.327  12.619 -0.1494  0.4875  0.1735
31083SOL    HW1 3179  11.432  10.363  12.657 -0.9677 -0.4172 -0.6685
31083SOL    HW2 3180  11.581  10.351  12.682 -0.8265  2.4744  0.2310
31084SOL     OW 3181   2.309  11.560   1.633  0.3480 -0.0640  0.2977
31084SOL    HW1 3182   2.324  11.655   1.637  1.8969 -0.3151  1.8120
31084SOL    HW2 3183   2.367  11.530   1.564  2.5388 -0.2545  2.0771
31085SOL     OW 3184  10.237   2.268  13.234 -0.0540  0.0560 -0.1531
31085SOL    HW1 3185  10.289   2.328  13.181 -1.4966  0.7900 -0.7795
31085SOL    HW2 3186  10.272   2.181  13.213 -0.4484  0.3403 -2.1942
31086SOL     OW 3187   9.341   0.130   9.569 -0.2648  0.3445 -0.3960
31086SOL    HW1 3188   9.358   0.060   9.507  1.4146 -0.6570  1.0891
31086SOL    HW2 3189   9.291   0.089   9.639 -0.8066  1.0697 -0.3516
31087SOL     OW 3190   9.023   0.729   0.442  0.0364 -0.6867  0.4152
31087SOL    HW1 3191   9.075   0.801   0.478 -0.3696 -0.3517  0.3368
31087SOL    HW2 3192   9.052   0.652   0.491  0.3268 -0.4372  0.6421
31088SOL     OW 3193   3.199  12.953   3.533  0.1070 -0.5065  0.3145
31088SOL    HW1 3194   3.291  12.960   3.560  0.3893 -0.9725 -0.4918
31088SOL    HW2 3195   3.151  12.950   3.615  0.8088 -0.1881  0.7489
31089SOL     OW 3196   0.984   6.672   4.684  0.1797  0.1742  0.9472
31089SOL    HW1 3197   1.003   6.753   4.636 -0.4794 -0.2846 -0.1287
31089SOL    HW2 3198   1.066   6.623   4.682  0.2310  0.2753  0.5101
31090SOL     OW 3199   2.314   4.316   5.048  0.1589  0.2212  0.1234
31090SOL    HW1 3200   2.362   4.265   5.114  0.2629 -1.1122 -0.9378
31090SOL    HW2 3201   2.222   4.305   5.071  0.2317  0.6467  0.6511
31091SOL     OW 3202   8.797   0.373   4.007 -1.0255  0.0637 -0.1949
31091SOL    HW1 3203   8.738   0.298   4.004  0.2942 -1.0423 -3.5549
31091SOL    HW2 3204   8.885   0.335   4.012 -0.3036  1.2433 -2.3683
31092SOL     OW 3205   5.142   2.767   9.784 -0.2046 -0.4023 -0.3692
31092SOL    HW1 3206   5.102   2.778   9.698  0.3418  2.0313 -0.3751
31092SOL    HW2 3207   5.220   2.713   9.767 -1.1073 -1.5524 -1.0372
31093SOL     OW 3208   5.430   8.333   4.427  0.3842 -0.4724  0.0947
31093SOL    HW1 3209   5.466   8.261   4.479 -1.0526 -2.1989 -1.1756
31093SOL    HW2 3210   5.337   8.336   4.450  0.2607  0.4739 -0.4700
31094SOL     OW 3211   6.182   9.888   0.138 -0.0746 -0.0190 -0.2769
31094SOL    HW1 3212   6.115   9.955   0.148 -0.2063 -0.0729 -0.7645
31094SOL    HW2 3213   6.263   9.930   0.168 -0.1266  0.4128 -0.7208
31095SOL     OW 3214   0.181   0.404   6.703  0.0474  0.4619  0.0076
31095SOL    HW1 3215   0.175   0.456   6.623 -0.8211  0.4413  0.0512
31095SOL    HW2 3216   0.255   0.441   6.750 -0.7551  1.8950  0.1910
31096SOL     OW 3217  11.094   5.519   5.708  0.1229 -0.2290 -0.2297
31096SOL    HW1 3218  11.011   5.477   5.684 -0.6654  2.0819 -1.8793
31096SOL    HW2 3219  11.148   5.510   5.630 -0.2162  2.0333 -0.7962
31097SOL     OW 3220   8.431   9.402   8.093 -0.2416 -0.0335  0.3428
31097SOL    HW1 3221   8.507   9.370   8.141  0.4572  0.1202 -0.6167
31097SOL    HW2 3222   8.454   9.389   8.001 -0.3356  2.2700 -0.0634
31098SOL     OW 3223   8.157   1.999   1.179 -0.8524  0.7919 -0.2489
31098SOL    HW1 3224   8.212   1.995   1.258 -2.1719  1.0864  0.7131
31098SOL    HW2 3225   8.069   1.978   1.210 -1.0581 -1.3941 -2.0497
31099SOL     OW 3226   9.839   6.878  11.519  0.6928 -0.3026  0.2600
31099SOL    HW1 3227   9.820   6.788  11.545  0.3584  0.2616  2.1425
31099SOL    HW2 3228   9.795   6.932  11.585  1.9313  1.2142 -0.0944
31100SOL     OW 3229   4.044  12.151   7.731  0.1356 -0.2104  0.1346
31100SOL    HW1 3230   4.120  12.208   7.733 -1.1998  1.6386  0.5124
31100SOL    HW2 3231   3.998  12.175   7.651 -0.0194 -1.3783 -0.1448
31101SOL     OW 3232   0.349   8.383   1.091  0.0710 -0.0172  0.3325
31101SOL    HW1 3233   0.366   8.467   1.133  0.8698 -0.9200  1.9339
31101SOL    HW2 3234   0.263   8.393   1.050  0.0542  1.4865  0.6947
31102SOL     OW 3235  12.248  11.546   1.410 -0.1439 -0.1887 -0.2448
31102SOL    HW1 3236  12.278  11.542   1.319  1.6783 -0.3888  0.3116
31102SOL    HW2 3237  12.271  11.634   1.439  1.5375 -0.8639  0.6713
31103SOL     OW 3238   2.414   5.892   1.836  0.4046  0.6424  0.0822
31103SOL    HW1 3239   2.426   5.809   1.789 -0.6459  0.1595  0.6262
31103SOL    HW2 3240   2.466   5.955   1.786  2.2853 -0.5813  0.3813
31104SOL     OW 3241   5.951   5.845   5.782  0.6540 -0.1048 -0.2493
31104SOL    HW1 3242   5.884   5.903   5.745  1.7406  0.2620 -1.7507
31104SOL    HW2 3243   5.963   5.877   5.871 -0.4700  0.4453 -0.2746
31105SOL     OW 3244   5.014  10.421   4.334  0.1833 -0.5591 -0.5799
31105SOL    HW1 3245   4.927  10.390   4.308 -0.3909  0.1109  0.4703
31105SOL    HW2 3246   4.999  10.465   4.418  0.9790  2.3460 -1.8586
31106SOL     OW 3247   0.567   7.788   5.727 -0.2572  0.2516 -0.5835
31106SOL    HW1 3248   0.553   7.866   5.673 -2.4116  0.0435 -0.4379
31106SOL    HW2 3249   0.628   7.816   5.795 -1.7222  2.1511  0.0522
31107SOL     OW 3250   1.132   9.887  10.895 -0.3253 -0.3018 -0.3955
31107SOL    HW1 3251   1.217   9.898  10.853 -0.6078 -3.3874 -2.0555
31107SOL    HW2 3252   1.072   9.940  10.843  0.0737 -0.6216 -1.1894
31108SOL     OW 3253   8.968   0.737   7.377  0.3915  0.5873 -0.0142
31108SOL    HW1 3254   9.047   0.704   7.336  0.3571  1.0488 -0.4572
31108SOL    HW2 3255   8.915   0.659   7.394  0.6211  0.3495 -0.3921
31109SOL     OW 3256   9.647   4.702   4.319 -0.4572 -0.0666  0.3485
31109SOL    HW1 3257   9.729   4.726   4.362  0.1611 -1.0170 -0.2715
31109SOL    HW2 3258   9.579   4.743   4.372  0.3735  0.0619  1.3326
31110SOL     OW 3259   8.367   5.480  11.648  1.0029 -0.4086 -0.0317
31110SOL    HW1 3260   8.297   5.470  11.712  1.5182  2.4301  1.1068
31110SOL    HW2 3261   8.427   5.543  11.688  3.3399 -1.4372 -1.7088
31111SOL     OW 3262  13.125   9.025   6.635  0.4312  0.1826 -0.6710
31111SOL    HW1 3263  13.119   8.940   6.592 -0.4609  0.3038 -0.7990
31111SOL    HW2 3264  13.076   9.085   6.578 -1.1916  0.2579  0.7007
31112SOL     OW 3265   8.898   6.589   4.402  0.2840  0.5068  0.4149
31112SOL    HW1 3266   8.905   6.631   4.316  1.1000  0.3298  0.3870
31112SOL    HW2 3267   8.949   6.508   4.394 -0.1131  0.2064  0.8929
31113SOL     OW 3268  10.044   6.783  10.844 -0.4268  0.0437  0.2576
31113SOL    HW1 3269  10.119   6.780  10.903 -0.7767 -1.9474  0.6744
31113SOL    HW2 3270  10.020   6.692  10.831 -1.5314  0.5294 -1.5001
31114SOL     OW 3271  10.722   8.842  11.097  0.1950 -0.1087  0.0306
31114SOL    HW1 3272  10.686   8.822  11.183 -0.6290  1.3218  0.0442
31114SOL    HW2 3273  10.736   8.756  11.057  1.8593 -0.8596  2.0556
31115SOL     OW 3274   4.984   7.863   5.068  0.4611 -0.2046 -0.3399
31115SOL    HW1 3275   4.900   7.818   5.079 -0.0401  0.9588  0.9419
31115SOL    HW2 3276   5.047   7.808   5.115  0.1713 -0.4466 -0.2260
31116SOL     OW 3277   9.762  10.099   9.367  0.0189  0.4441 -0.6761
31116SOL    HW1 3278   9.772  10.038   9.441 -0.6960  0.3765 -0.6245
31116SOL    HW2 3279   9.851  10.126   9.346  0.1697  1.5096  1.0994
31117SOL     OW 3280   6.020   3.518  12.275  0.1486 -0.0671  0.3426
31117SOL    HW1 3281   5.958   3.586  12.249  0.4423  0.6068  1.3321
31117SOL    HW2 3282   6.012   3.513  12.370  0.2300 -1.3414  0.3008
31118SOL     OW 3283   5.283   3.404   1.885  0.0522 -0.4976 -0.0946
31118SOL    HW1 3284   5.265   3.346   1.959 -1.1344  0.5978  0.5180
31118SOL    HW2 3285   5.350   3.464   1.917 -1.1048  0.5492  0.4415
31119SOL     OW 3286   6.613  10.111   0.890  0.4433 -0.3893 -0.0169
31119SOL    HW1 3287   6.635  10.059   0.968  1.3666  0.7173  0.4956
31119SOL    HW2 3288   6.619  10.049   0.818  3.2602 -0.6760  0.3581
31120SOL     OW 3289   4.107   2.535   5.779 -0.8076  0.2026  0.1078
31120SOL    HW1 3290   4.192   2.567   5.807 -0.8666 -1.1343  1.9427
31120SOL    HW2 3291   4.068   2.609   5.733  1.1327  0.9878 -0.3620
31121SOL     OW 3292   0.958   2.589   3.708  0.0262 -0.3075 -0.6774
31121SOL    HW1 3293   0.998   2.670   3.742 -0.3490 -0.0476 -0.8522
31121SOL    HW2 3294   0.885   2.619   3.653 -0.3136 -0.7791 -0.4873
31122SOL     OW 3295   7.768   4.273  12.560  0.2857 -0.1222 -0.1987
31122SOL    HW1 3296   7.799   4.285  12.650  1.3940 -1.3635 -0.3931
31122SOL    HW2 3297   7.680   4.312  12.560  0.6804  0.8481  1.1353
31123SOL     OW 3298   0.307   5.918  11.733  0.1316  0.2233  0.4937
31123SOL    HW1 3299   0.350   5.998  11.763 -1.5298  1.0899  0.6868
31123SOL    HW2 3300   0.221   5.920  11.777 -1.4712  0.3046 -2.4248
31124SOL     OW 3301  11.623   8.817   4.728 -0.3507  0.1978 -0.2419
31124SOL    HW1 3302  11.672   8.761   4.789  0.7522  0.5473 -0.7863
31124SOL    HW2 3303  11.585   8.886   4.784 -2.5903 -1.5804  0.6045
31125SOL     OW 3304  12.402   6.778  13.275 -0.4306  0.1810  0.5783
31125SOL    HW1 3305  12.470   6.787  13.342 -0.7295  4.3068  0.5803
31125SOL    HW2 3306  12.450   6.786  13.192 -0.5319 -0.7283  0.4243
31126SOL     OW 3307   2.753  11.530   8.653  0.0460  0.4381  0.0581
31126SOL    HW1 3308   2.770  11.582   8.575  0.9071 -0.7198 -0.5477
31126SOL    HW2 3309   2.799  11.576   8.723 -1.1759  1.7823  0.0304
31127SOL     OW 3310   0.912   9.824   1.404  0.1190 -0.0184  0.3490
31127SOL    HW1 3311   0.985   9.883   1.387 -0.4688  0.4641 -0.6082
31127SOL    HW2 3312   0.949   9.736   1.398  0.9869  0.2140  1.6909
31128SOL     OW 3313   5.730   2.584   1.608  0.0557 -0.0397 -0.3011
31128SOL    HW1 3314   5.690   2.660   1.650  0.3571  1.3137 -2.3332
31128SOL    HW2 3315   5.805   2.619   1.561  1.3420 -1.9169  0.1916
31129SOL     OW 3316   7.683   6.874   7.106 -0.1627 -0.3034 -0.5639
31129SOL    HW1 3317   7.744   6.857   7.034 -0.7883 -0.1570 -1.1341
31129SOL    HW2 3318   7.639   6.791   7.120  0.8059 -0.6656  0.4708
31130SOL     OW 3319   7.068   6.620   6.073 -0.2520 -0.2322 -0.2772
31130SOL    HW1 3320   7.037   6.548   6.018  0.0384  0.4943 -1.4243
31130SOL    HW2 3321   7.051   6.591   6.162 -1.6330 -1.0330 -0.7731
31131SOL     OW 3322  10.717  13.143   9.141 -0.6170  0.5801 -0.9022
31131SOL    HW1 3323  10.653  13.109   9.079 -2.2346 -0.1679  1.0370
31131SOL    HW2 3324  10.664  13.185   9.209  0.9389  0.1468  0.6663
31132SOL     OW 3325  10.413   7.683   8.647  0.2018  0.7555 -0.5474
31132SOL    HW1 3326  10.453   7.749   8.703  1.8230  0.2090 -0.9960
31132SOL    HW2 3327  10.384   7.614   8.707  0.6978  0.7849 -0.2701
31133SOL     OW 3328   9.407  10.213   8.227 -0.2541 -0.3890  0.5090
31133SOL    HW1 3329   9.494  10.243   8.254 -1.3888  2.4687  1.3554
31133SOL    HW2 3330   9.361  10.197   8.309 -0.3898 -2.5354  0.0698
31134SOL     OW 3331  13.196   0.767   3.960 -0.0573 -0.5722 -0.3855
31134SOL    HW1 3332  13.156   0.853   3.970 -0.5544 -0.8673  0.2563
31134SOL    HW2 3333  13.157   0.714   4.030  2.0654 -0.6453  0.8113
31135SOL     OW 3334   6.034   9.817   1.069  0.1173  0.5083  0.1626
31135SOL    HW1 3335   6.092   9.835   1.143  0.9546  0.1706 -0.3876
31135SOL    HW2 3336   6.029   9.901   1.022  1.7870  0.0807 -0.8732
31136SOL     OW 3337   7.314   2.404  10.503  0.2918 -0.1464 -0.1105
31136SOL    HW1 3338   7.399   2.404  10.546 -0.0284  1.4509  0.5735
31136SOL    HW2 3339   7.291   2.311  10.496  1.0173 -0.5235  1.8411
31137SOL     OW 3340  10.580   8.547   1.120 -0.1553  0.3289 -0.0979
31137SOL    HW1 3341  10.527   8.561   1.042  2.3292  0.1179 -1.9536
31137SOL    HW2 3342  10.550   8.463   1.154 -1.2118  0.3668 -0.8789
31138SOL     OW 3343   5.628   2.371   4.468  0.1699 -0.0670  0.0242
31138SOL    HW1 3344   5.590   2.370   4.556 -0.8248  1.7806 -0.3422
31138SOL    HW2 3345   5.689   2.445   4.469 -0.1046  0.1876 -0.9243
31139SOL     OW 3346  10.877   2.380  12.976  0.7176  0.3766  0.2863
31139SOL    HW1 3347  10.950   2.381  12.915  0.6398 -0.4812  0.1630
31139SOL    HW2 3348  10.899   2.311  13.039 -0.1023 -0.0834  0.0868
31140SOL     OW 3349  10.621   6.107  11.789  0.0861  0.6775 -0.0400
31140SOL    HW1 3350  10.671   6.160  11.852  0.8395  0.5947 -0.5462
31140SOL    HW2 3351  10.682   6.093  11.717 -0.4310 -0.0736 -0.3435
31141SOL     OW 3352   0.382   9.933   2.941  0.1796 -0.5833 -0.1396
31141SOL    HW1 3353   0.359   9.967   2.854  0.1069 -0.8288 -0.2162
31141SOL    HW2 3354   0.321   9.975   3.001  0.9209  0.4224 -0.0652
31142SOL     OW 3355   8.154   1.797  13.303  0.2018  0.6041  0.6171
31142SOL    HW1 3356   8.164   1.702  13.292  0.8330  0.5699  1.3832
31142SOL    HW2 3357   8.099   1.824  13.230 -0.2631 -0.4067  0.5765
31143SOL     OW 3358   5.045  13.222   1.185  0.4980  0.1855  0.0451
31143SOL    HW1 3359   5.115  13.161   1.208 -0.5475 -0.6586  1.1201
31143SOL    HW2 3360   4.996  13.233   1.267 -1.2708 -0.1207 -0.9286
31144SOL     OW 3361   5.178  13.207   5.618 -0.0713 -0.0943  0.1490
31144SOL    HW1 3362   5.272  13.225   5.610 -0.3920  2.0279  0.6949
31144SOL    HW2 3363   5.140  13.249   5.541 -0.6878 -0.0511  0.4786
31145SOL     OW 3364   5.962  12.405   8.122 -0.4381  0.9003 -0.1301
31145SOL    HW1 3365   6.041  12.368   8.083  0.8402  3.0862  0.2099
31145SOL    HW2 3366   5.899  12.332   8.123  2.2457 -1.6567  1.6930
31146SOL     OW 3367   8.353   2.312  11.584 -0.5076  0.3458 -0.4142
31146SOL    HW1 3368   8.271   2.355  11.609  0.0890  1.0373  0.4354
31146SOL    HW2 3369   8.406   2.315  11.664  0.9049  1.2558 -1.3524
31147SOL     OW 3370  11.928  13.191   1.482 -0.1735 -0.6320 -0.4567
31147SOL    HW1 3371  11.913  13.273   1.528  1.9286 -0.9316  0.8972
31147SOL    HW2 3372  12.016  13.199   1.446  1.4164 -3.3669  2.3743
31148SOL     OW 3373  10.667   0.286   4.205  0.5226 -0.3189 -0.2293
31148SOL    HW1 3374  10.758   0.288   4.177  0.6692 -0.8689  0.1970
31148SOL    HW2 3375  10.647   0.193   4.216  0.1819 -0.1612  0.5291
31149SOL     OW 3376  12.265   6.183   4.109 -0.1024 -0.1403 -0.2751
31149SOL    HW1 3377  12.336   6.209   4.051 -0.4792 -0.2618 -0.7972
31149SOL    HW2 3378  12.259   6.254   4.172  0.7534 -0.3252  0.0290
31150SOL     OW 3379   8.409   9.996  10.735 -0.4432  0.5198  0.9467
31150SOL    HW1 3380   8.319  10.021  10.712 -0.1193  0.2918 -0.6790
31150SOL    HW2 3381   8.434   9.933  10.667  0.4554 -0.5378  2.2083
31151SOL     OW 3382   3.914   5.901   3.355 -0.0236 -0.4520 -0.1303
31151SOL    HW1 3383   3.993   5.862   3.391 -0.6134 -1.2815  0.2843
31151SOL    HW2 3384   3.846   5.835   3.368 -0.6144 -0.0831 -1.2216
31152SOL     OW 3385  11.388  13.138   7.845 -0.2993  0.2088 -0.4792
31152SOL    HW1 3386  11.334  13.068   7.883  0.6751 -1.2386 -1.6194
31152SOL    HW2 3387  11.478  13.109   7.861  0.1704 -0.4783 -3.7213
31153SOL     OW 3388   1.552   5.613   0.644  0.1383 -0.5704 -0.6499
31153SOL    HW1 3389   1.531   5.534   0.694 -0.4392 -1.3534 -2.0651
31153SOL    HW2 3390   1.625   5.586   0.587  0.1933  0.0386 -0.8675
31154SOL     OW 3391  11.793  12.881   1.430  0.0781  0.3819 -0.6517
31154SOL    HW1 3392  11.820  12.972   1.416 -1.8354  0.8895 -1.4694
31154SOL    HW2 3393  11.697  12.885   1.428 -0.0609 -1.8554 -2.1446
31155SOL     OW 3394   3.136   9.883   3.759 -0.5552  0.5663  0.3383
31155SOL    HW1 3395   3.203   9.925   3.812  0.5154 -0.9668  0.2583
31155SOL    HW2 3396   3.070   9.855   3.821 -1.1301  2.0191  0.4265
31156SOL     OW 3397   4.796  12.897   5.465  0.5498  0.5273 -0.1652
31156SOL    HW1 3398   4.855  12.873   5.537 -0.8981 -0.2083  0.8311
31156SOL    HW2 3399   4.760  12.982   5.491  0.3881  0.4866 -0.2537
31157SOL     OW 3400   5.419  10.016   3.640 -0.4887 -0.2143 -0.1621
31157SOL    HW1 3401   5.445   9.951   3.704  0.7002  0.2572 -0.1447
31157SOL    HW2 3402   5.355   9.971   3.584 -0.7029 -0.9603  0.6702
31158SOL     OW 3403  12.232   8.480   2.759 -0.1152  0.2189  0.9578
31158SOL    HW1 3404  12.304   8.494   2.821 -0.5504  0.2030  1.4740
31158SOL    HW2 3405  12.152   8.494   2.810 -0.4824  0.4090  0.3513
31159SOL     OW 3406   6.702   8.910   5.046 -0.0293 -0.1890 -0.3731
31159SOL    HW1 3407   6.610   8.922   5.021  0.0530  0.5427 -0.3290
31159SOL    HW2 3408   6.717   8.816   5.034 -1.2014 -0.6021  1.0242
31160SOL     OW 3409  11.229   6.197   1.578 -0.2154 -0.6057  0.0765
31160SOL    HW1 3410  11.288   6.124   1.563 -0.9151 -0.8200 -2.1227
31160SOL    HW2 3411  11.277   6.274   1.548 -0.9654 -0.7781 -1.7041
31161SOL     OW 3412   2.088   0.081   1.430 -0.3982  0.8246  0.2332
31161SOL    HW1 3413   1.995   0.075   1.408  0.2545  1.8200 -3.4528
31161SOL    HW2 3414   2.131   0.025   1.366  1.5522 -0.5835  2.6248
31162SOL     OW 3415   6.373  10.407  11.319  0.3463 -0.3953  0.2270
31162SOL    HW1 3416   6.344  10.410  11.228  2.3628  1.0437 -0.4452
31162SOL    HW2 3417   6.397  10.315  11.333  0.3182 -0.5767 -0.8137
31163SOL     OW 3418  12.515   1.508   9.973  0.4490 -0.4819 -0.0003
31163SOL    HW1 3419  12.553   1.445   9.911 -0.6825  1.5436 -2.9924
31163SOL    HW2 3420  12.435   1.466  10.005  0.8572 -1.4236 -0.1771
31164SOL     OW 3421   2.911   7.220   7.622 -0.5770  0.1780  0.3278
31164SOL    HW1 3422   2.869   7.290   7.671  0.3740  1.1675 -0.2310
31164SOL    HW2 3423   2.840   7.160   7.600 -1.5107  1.2676  0.2857
31165SOL     OW 3424   7.099   9.316   8.492  0.3547  0.1259  0.5945
31165SOL    HW1 3425   7.180   9.303   8.442  0.2589  1.9805 -0.1149
31165SOL    HW2 3426   7.045   9.239   8.470  1.3774 -0.4580  0.0062
31166SOL     OW 3427   8.801   6.515   5.508 -0.4748 -0.2194 -0.2343
31166SOL    HW1 3428   8.716   6.545   5.540  0.5716  0.1271  2.5076
31166SOL    HW2 3429   8.833   6.587   5.453 -1.0392  0.6026  0.4875
31167SOL     OW 3430  10.107   1.273   3.127  0.2178  0.2729 -0.0357
31167SOL    HW1 3431  10.106   1.303   3.036  1.0985 -0.2802 -0.2438
31167SOL    HW2 3432  10.153   1.189   3.124  0.2768  0.2571  0.9234
31168SOL     OW 3433  11.717  13.025  12.018 -0.7031  0.4108 -0.0225
31168SOL    HW1 3434  11.639  12.997  12.067 -0.1199  0.0969  0.7559
31168SOL    HW2 3435  11.790  12.989  12.068 -0.0425  0.9925 -0.5522
31169SOL     OW 3436   9.662   7.278   8.754 -0.0105 -0.5142  0.0730
31169SOL    HW1 3437   9.677   7.219   8.681 -1.3460 -0.1126 -0.5713
31169SOL    HW2 3438   9.567   7.291   8.754 -0.1169 -0.9491  2.2289
31170SOL     OW 3439   2.303  11.333  10.224  0.1156  0.1490  0.2528
31170SOL    HW1 3440   2.320  11.315  10.317  1.9692  0.6666  0.0483
31170SOL    HW2 3441   2.376  11.292  10.178 -0.8794 -0.2644 -1.0300
31171SOL     OW 3442   7.929  10.157  10.187  0.2587  0.4174 -0.5550
31171SOL    HW1 3443   7.865  10.213  10.231  2.5015  1.9766  0.9231
31171SOL    HW2 3444   7.970  10.107  10.258  0.2790 -1.0667 -1.5558
31172SOL     OW 3445   0.011   3.453   7.251 -0.5208 -0.4093 -0.0925
31172SOL    HW1 3446   0.020   3.472   7.157 -0.3448 -0.3218 -0.0582
31172SOL    HW2 3447  -0.083   3.455   7.266 -0.4853  2.0304  0.2163
31173SOL     OW 3448  11.243   9.635   5.427 -0.2605  0.6582  0.1653
31173SOL    HW1 3449  11.264   9.598   5.512  0.8815  0.6580 -0.0958
31173SOL    HW2 3450  11.322   9.682   5.401 -1.0395  1.7538 -0.3235
31174SOL     OW 3451   3.415  10.587   9.516 -0.4508 -0.2959 -0.3725
31174SOL    HW1 3452   3.345  10.653   9.520 -1.0218 -0.9299  2.8770
31174SOL    HW2 3453   3.475  10.612   9.586  2.4712 -0.0831 -2.7351
31175SOL     OW 3454   6.201   4.024  10.271  0.1034  0.0788 -0.7833
31175SOL    HW1 3455   6.282   4.068  10.295 -0.0658  0.0882 -0.2028
31175SOL    HW2 3456   6.223   3.931  10.267  0.5336  0.2286 -2.3116
31176SOL     OW 3457  10.485   2.126   3.924 -0.0385 -0.6711  0.0367
31176SOL    HW1 3458  10.479   2.180   3.845 -0.6518 -2.4906 -1.2246
31176SOL    HW2 3459  10.521   2.185   3.991  0.9002  0.8160 -1.6885
31177SOL     OW 3460  13.234   0.475  11.090  0.5916 -0.1049 -0.4383
31177SOL    HW1 3461  13.147   0.452  11.057  0.4528 -0.1509 -0.0455
31177SOL    HW2 3462  13.228   0.568  11.112  0.0352 -0.5408  1.4471
31178SOL     OW 3463   3.945   0.220  13.103  0.0666 -0.3186  0.1849
31178SOL    HW1 3464   3.947   0.185  13.192  1.3064  1.1400  0.7800
31178SOL    HW2 3465   3.885   0.294  13.107  1.6783  1.0541  0.3898
31179SOL     OW 3466   4.347   7.550  13.148 -0.2755  0.4797  0.2241
31179SOL    HW1 3467   4.383   7.546  13.237 -0.3789  0.7160  0.2782
31179SOL    HW2 3468   4.271   7.492  13.151  1.0807 -1.4340 -0.3707
31180SOL     OW 3469   5.671  12.112   8.488  0.2790  0.5293  0.2760
31180SOL    HW1 3470   5.655  12.053   8.414 -1.8643  0.7114  0.5502
31180SOL    HW2 3471   5.588  12.115   8.536  0.8640  2.3774  1.2906
31181SOL     OW 3472   5.141   8.818   5.582  0.1538 -0.3469  0.5068
31181SOL    HW1 3473   5.174   8.887   5.524  0.9884 -1.0424  0.1382
31181SOL    HW2 3474   5.203   8.816   5.655  0.1733 -0.7439  0.4834
31182SOL     OW 3475   1.554   2.226   6.648 -0.2808  0.2213  0.1494
31182SOL    HW1 3476   1.580   2.260   6.563  0.0611 -1.8249 -0.6193
31182SOL    HW2 3477   1.636   2.214   6.696 -0.3178 -0.2410  0.1065
31183SOL     OW 3478   2.552   8.432   7.589 -0.3952  0.1960 -0.3036
31183SOL    HW1 3479   2.549   8.341   7.557  1.2666 -0.0691  0.1913
31183SOL    HW2 3480   2.518   8.427   7.679 -2.7096  0.5301 -1.0907
31184SOL     OW 3481   0.449   6.113   6.445 -0.7734 -0.1893  0.1042
31184SOL    HW1 3482   0.391   6.108   6.369  0.6547  0.5178 -1.0975
31184SOL    HW2 3483   0.529   6.155   6.411  1.1507 -2.6881  1.2358
31185SOL     OW 3484   0.226  10.060  10.213 -0.1144  0.0869  0.2321
31185SOL    HW1 3485   0.260   9.982  10.170 -0.7045 -0.9473  1.5633
31185SOL    HW2 3486   0.297  10.089  10.271  0.2367  0.7770 -0.5166
31186SOL     OW 3487   2.177   5.107   7.416 -0.0880  0.2807 -0.4491
31186SOL    HW1 3488   2.158   5.165   7.489  0.5811 -0.4049  0.2848
31186SOL    HW2 3489   2.270   5.088   7.424  0.1348  0.6805 -1.8445
31187SOL     OW 3490   9.134  11.759   1.001 -0.0420 -0.2831  0.5628
31187SOL    HW1 3491   9.152  11.670   0.968 -0.0670  0.2543 -1.0090
31187SOL    HW2 3492   9.044  11.754   1.034 -1.1149 -0.2210 -2.0994
31188SOL     OW 3493   1.491  10.735  10.185  0.0044 -0.4761  0.0131
31188SOL    HW1 3494   1.416  10.678  10.168 -0.5003 -0.7589  2.6850
31188SOL    HW2 3495   1.463  10.790  10.258  2.3147 -0.4862  1.0092
31189SOL     OW 3496   6.164   8.824   5.186  0.1894 -0.2656 -0.5934
31189SOL    HW1 3497   6.147   8.819   5.092  1.1808  2.2525 -0.9627
31189SOL    HW2 3498   6.099   8.886   5.219  0.1580 -0.7681  0.3210
31190SOL     OW 3499   4.118   1.678  12.570 -0.1956  0.0014  0.1593
31190SOL    HW1 3500   4.143   1.590  12.543 -0.2273  0.2889 -0.8255
31190SOL    HW2 3501   4.026   1.686  12.547  0.1220  0.7183 -0.9177
31191SOL     OW 3502   1.198   8.770   1.757 -0.0909 -0.2375 -0.3999
31191SOL    HW1 3503   1.129   8.731   1.810 -0.1875  0.4792  0.0152
31191SOL    HW2 3504   1.271   8.709   1.763 -0.4582 -0.6716 -0.2948
31192SOL     OW 3505   5.315   9.003   9.982  0.0742  0.2534 -0.6330
31192SOL    HW1 3506   5.327   8.914  10.013 -1.8137  0.2789  0.2303
31192SOL    HW2 3507   5.248   8.996   9.914 -1.6435  1.2437  0.8855
31193SOL     OW 3508   8.642   3.873  11.256 -0.3943  0.2076  0.2770
31193SOL    HW1 3509   8.667   3.942  11.318  2.3427 -0.5038  0.1054
31193SOL    HW2 3510   8.604   3.920  11.182 -0.3207  1.3612  0.9435
31194SOL     OW 3511   5.249   1.337  11.492 -0.0631  0.3269  0.2731
31194SOL    HW1 3512   5.212   1.306  11.409 -0.1072 -0.4136  0.5624
31194SOL    HW2 3513   5.246   1.432  11.485 -0.7500  0.2782 -0.2813
31195SOL     OW 3514   2.500   7.835   6.910  0.1351  0.3353 -0.5247
31195SOL    HW1 3515   2.412   7.871   6.918  0.1719  0.4562 -0.6591
31195SOL    HW2 3516   2.496   7.752   6.957 -0.0982  0.2597 -0.6744
31196SOL     OW 3517  13.028   1.472   5.618  0.2182 -0.3010 -0.3300
31196SOL    HW1 3518  13.079   1.552   5.608  1.0022 -0.6906  0.4678
31196SOL    HW2 3519  13.004   1.470   5.711  0.5620 -1.1965 -0.2508
31197SOL     OW 3520  11.756   7.024   1.410 -0.8313  0.8780 -0.0365
31197SOL    HW1 3521  11.723   6.946   1.366 -0.5096  1.6969 -1.8448
31197SOL    HW2 3522  11.829   6.994   1.464 -0.4873 -0.0213 -0.9864
31198SOL     OW 3523   4.301   2.599  12.888 -0.0531  0.1111 -0.2568
31198SOL    HW1 3524   4.278   2.589  12.795  1.1529 -1.2117 -0.4360
31198SOL    HW2 3525   4.383   2.648  12.887 -0.3577  0.6394  0.1553
31199SOL     OW 3526   0.110   3.683   7.381 -0.0775 -0.3745 -0.2982
31199SOL    HW1 3527   0.078   3.615   7.322  2.6252 -1.9451 -0.1063
31199SOL    HW2 3528   0.070   3.764   7.347 -3.5694 -1.9546 -0.3954
31200SOL     OW 3529   2.603   0.219  10.288  0.4368  0.1556 -0.0722
31200SOL    HW1 3530   2.688   0.261  10.301  0.9908 -0.7776 -0.6192
31200SOL    HW2 3531   2.540   0.287  10.311  1.3206  1.0631 -0.2391
31201SOL     OW 3532   6.520   6.558   9.944 -0.3812  0.3437 -0.1123
31201SOL    HW1 3533   6.455   6.565  10.014  0.5006 -0.9655  0.8972
31201SOL    HW2 3534   6.531   6.463   9.931  2.0151  0.4628  0.4859
31202SOL     OW 3535   0.505   0.050   6.164 -0.1121 -0.3522 -0.5262
31202SOL    HW1 3536   0.460   0.067   6.081  0.9197 -1.3753 -1.3155
31202SOL    HW2 3537   0.436   0.057   6.230 -0.4576  3.7122 -1.0073
31203SOL     OW 3538   0.198   1.580   6.734  0.7107  0.0654 -0.1669
31203SOL    HW1 3539   0.170   1.492   6.756  1.5086  0.2400  1.7840
31203SOL    HW2 3540   0.226   1.575   6.642  0.6590 -1.6745 -0.1119
31204SOL     OW 3541  10.328   2.212   2.772 -0.2347  0.1038  0.5739
31204SOL    HW1 3542  10.411   2.184   2.733 -0.6679  0.8547 -0.9320
31204SOL    HW2 3543  10.347   2.299   2.809 -0.8863  1.4070 -1.9215
31205SOL     OW 3544  11.242   4.126   5.420  0.1861  0.3813 -0.6125
31205SOL    HW1 3545  11.284   4.067   5.358  0.4581  2.3719 -2.4363
31205SOL    HW2 3546  11.190   4.069   5.477  3.3521 -1.9487  0.1859
31206SOL     OW 3547   2.600   6.222   1.388 -0.2138 -0.4597  0.8142
31206SOL    HW1 3548   2.664   6.166   1.431 -0.9077  0.5899  3.4244
31206SOL    HW2 3549   2.515   6.187   1.416 -0.8173 -0.8286 -1.2506
31207SOL     OW 3550   3.076  10.493   3.299  0.0471  0.2163  0.1769
31207SOL    HW1 3551   3.160  10.529   3.270 -0.0470  1.9033  1.8049
31207SOL    HW2 3552   3.010  10.548   3.256 -0.2426 -0.8057 -0.7250
31208SOL     OW 3553   2.897   3.987   2.699 -0.2093 -0.0772  0.0678
31208SOL    HW1 3554   2.909   4.082   2.700  1.4021 -0.2451 -0.1063
31208SOL    HW2 3555   2.844   3.969   2.776 -1.3536  1.0431 -0.4207
31209SOL     OW 3556   0.603   6.131  12.379 -0.1958  0.2325  0.3749
31209SOL    HW1 3557   0.572   6.125  12.470  2.7387  0.4425  1.4836
31209SOL    HW2 3558   0.632   6.221  12.370  2.1926 -0.4902  0.2273
31210SOL     OW 3559  10.338   8.054   0.478 -0.2012  0.0344 -1.0506
31210SOL    HW1 3560  10.407   7.987   0.479  0.0709  0.3088 -1.0255
31210SOL    HW2 3561  10.386   8.137   0.488 -0.4652  0.2953 -1.9243
31211SOL     OW 3562  11.820   1.825   5.314 -0.1149  0.2076 -0.0075
31211SOL    HW1 3563  11.886   1.835   5.245  0.3465 -1.2656  0.1766
31211SOL    HW2 3564  11.869   1.791   5.389 -0.9920 -0.4248  0.2942
31212SOL     OW 3565   2.494   9.446   4.062  0.0390 -0.2965 -0.2339
31212SOL    HW1 3566   2.510   9.362   4.019  0.5157 -1.4009  1.9363
31212SOL    HW2 3567   2.523   9.432   4.153 -1.0003  1.8410  0.4908
31213SOL     OW 3568   9.528   8.415   7.981  0.2683  0.2793 -0.1117
31213SOL    HW1 3569   9.533   8.345   8.045 -1.0200 -0.6824 -1.0066
31213SOL    HW2 3570   9.443   8.456   7.996  0.8072  1.3647  0.0916
31214SOL     OW 3571  12.315  11.443  10.068  0.1833  0.2762 -0.0725
31214SOL    HW1 3572  12.280  11.510  10.127  2.1965  2.7819 -1.4745
31214SOL    HW2 3573  12.259  11.446   9.991  1.3667  1.8794 -0.9384
31215SOL     OW 3574   2.724   4.597   2.045 -0.2274 -0.3045 -0.1328
31215SOL    HW1 3575   2.720   4.515   1.996  0.0533 -0.9161  0.8420
31215SOL    HW2 3576   2.648   4.646   2.015 -1.4585 -1.6910  0.6156
31216SOL     OW 3577   0.858   7.183   3.233  0.5185  0.0167 -0.2298
31216SOL    HW1 3578   0.794   7.238   3.277 -0.5491  0.5082 -2.2783
31216SOL    HW2 3579   0.851   7.098   3.275 -0.4866  0.4522  0.4986
31217SOL     OW 3580   1.770   2.866   8.750  0.2308 -0.4911 -0.2523
31217SOL    HW1 3581   1.856   2.905   8.764 -0.4633  0.6718  1.0695
31217SOL    HW2 3582   1.710   2.940   8.753 -0.7103 -1.0511 -2.8287
31218SOL     OW 3583   5.924   3.950   5.857  0.0587  0.2312 -0.0676
31218SOL    HW1 3584   5.843   3.998   5.872  0.4502  0.7569  0.4244
31218SOL    HW2 3585   5.959   3.934   5.944  0.0193 -0.8255 -0.2314
31219SOL     OW 3586   3.862   3.758   7.753  0.0410  0.0562  1.0375
31219SOL    HW1 3587   3.927   3.786   7.817  0.0069  0.9241  0.7087
31219SOL    HW2 3588   3.913   3.737   7.675 -0.1001  1.3444  0.5733
31220SOL     OW 3589   7.725   9.238   9.471 -0.4118 -0.2190  0.2283
31220SOL    HW1 3590   7.681   9.160   9.503 -1.0883  0.6033  1.3741
31220SOL    HW2 3591   7.659   9.308   9.476 -0.1071  0.2812 -1.6160
31221SOL     OW 3592  11.721   1.383   3.392 -0.5272 -0.4742  0.5749
31221SOL    HW1 3593  11.696   1.353   3.304 -0.7331 -1.3316  0.9200
31221SOL    HW2 3594  11.734   1.477   3.382  1.9455 -0.8970 -0.9463
31222SOL     OW 3595   2.087   0.488   5.413  0.2254 -0.5774 -0.3080
31222SOL    HW1 3596   2.078   0.463   5.505  0.5459 -0.8776 -0.3543
31222SOL    HW2 3597   2.085   0.584   5.414  0.8620 -0.5591  0.0887
31223SOL     OW 3598   3.499   2.649  13.183  0.5519  0.1290 -0.4462
31223SOL    HW1 3599   3.578   2.695  13.154  0.7254 -0.9065 -1.6731
31223SOL    HW2 3600   3.491   2.575  13.123 -0.2195 -0.9438  0.9364
31224SOL     OW 3601   1.962   3.741  12.387 -0.4599 -0.1195 -0.1818
31224SOL    HW1 3602   2.041   3.744  12.333  0.6442  0.9501  1.4183
31224SOL    HW2 3603   1.890   3.732  12.323  0.8262  0.3423 -1.7638
31225SOL     OW 3604   7.014  10.745   6.818  0.1568 -0.1101 -0.0901
31225SOL    HW1 3605   6.935  10.717   6.771 -0.1308  0.7851 -0.1643
31225SOL    HW2 3606   7.045  10.821   6.769  1.3668 -0.7583 -0.3566
31226SOL     OW 3607   9.401   5.959   1.865  0.0399 -0.1126 -0.6429
31226SOL    HW1 3608   9.449   5.980   1.945 -0.1443 -1.3266 -0.1810
31226SOL    HW2 3609   9.341   6.032   1.853 -0.0014  0.0423  0.4004
31227SOL     OW 3610   0.662   9.463   6.507  0.4560 -0.5109 -0.4121
31227SOL    HW1 3611   0.625   9.375   6.503 -0.3767 -0.1353 -1.9429
31227SOL    HW2 3612   0.604   9.512   6.564  0.0865 -0.5982 -0.7091
31228SOL     OW 3613   0.335   9.830  12.283 -0.5539  0.4798  0.1095
31228SOL    HW1 3614   0.376   9.908  12.246 -1.1991  0.0379 -1.6636
31228SOL    HW2 3615   0.327   9.848  12.376  1.3956  1.5805  0.1269
31229SOL     OW 3616   1.739   6.177  11.652 -0.2430 -0.6659  0.4058
31229SOL    HW1 3617   1.745   6.259  11.702 -0.8780 -1.1891  1.3659
31229SOL    HW2 3618   1.822   6.132  11.672  0.3282 -0.0625 -0.5164
31230SOL     OW 3619   8.895   0.331   9.745  0.2629  0.2247  0.1961
31230SOL    HW1 3620   8.829   0.283   9.694 -1.1299  0.7925  1.3847
31230SOL    HW2 3621   8.956   0.264   9.773 -1.0100 -0.7052  0.8590
31231SOL     OW 3622   7.149   0.293   6.274  0.4767  0.1127  0.0781
31231SOL    HW1 3623   7.132   0.268   6.183  1.0051 -0.7380  0.2059
31231SOL    HW2 3624   7.205   0.224   6.308 -1.1057 -0.5054  1.5630
31232SOL     OW 3625  11.033   3.711  13.241 -0.0605 -0.1635  0.0326
31232SOL    HW1 3626  11.081   3.710  13.324  0.2584  0.0047 -0.1467
31232SOL    HW2 3627  10.941   3.706  13.266 -0.1839  2.7935  0.5430
31233SOL     OW 3628   8.690   4.161   1.366  0.1749 -0.4411  0.1483
31233SOL    HW1 3629   8.637   4.241   1.357  1.1615  0.2044 -0.1464
31233SOL    HW2 3630   8.658   4.104   1.297 -0.6709 -0.3753  0.4796
31234SOL     OW 3631   5.910   7.078   6.519  0.2248  0.0217  0.2639
31234SOL    HW1 3632   5.892   6.995   6.475  0.3961 -0.4105  0.9842
31234SOL    HW2 3633   5.841   7.084   6.586  0.3302  0.3658  0.3424
31235SOL     OW 3634   7.372   0.810   5.630 -0.1796 -0.2517 -0.2974
31235SOL    HW1 3635   7.306   0.814   5.699 -0.1571  1.2295 -0.3200
31235SOL    HW2 3636   7.436   0.878   5.654  2.1493 -2.5738  0.5054
31236SOL     OW 3637   2.531   5.341   6.267  0.0652 -0.0737 -0.3638
31236SOL    HW1 3638   2.479   5.416   6.236 -0.0334 -0.6711 -1.6985
31236SOL    HW2 3639   2.468   5.269   6.272  0.6815 -0.7777 -1.8983
31237SOL     OW 3640  13.069   3.859   3.496  0.4098  0.3583 -0.0775
31237SOL    HW1 3641  13.063   3.910   3.415  2.7442  2.3961  0.9101
31237SOL    HW2 3642  13.020   3.911   3.560 -1.0474 -1.0206 -0.0012
31238SOL     OW 3643   3.959  12.827  12.349  0.0974  0.2597 -0.0609
31238SOL    HW1 3644   4.050  12.807  12.371  0.2209 -0.8974 -1.4994
31238SOL    HW2 3645   3.965  12.875  12.266 -0.6195 -0.2352 -0.4032
31239SOL     OW 3646  10.076  10.197   8.507 -0.8176  0.2628 -0.3296
31239SOL    HW1 3647  10.109  10.256   8.575  1.1107 -0.8727 -0.2078
31239SOL    HW2 3648  10.153  10.147   8.479 -1.7061  0.1444 -2.8133
31240SOL     OW 3649   4.855   5.889   3.147 -0.0692  0.3868  0.1225
31240SOL    HW1 3650   4.938   5.927   3.176 -0.9191  2.2353  0.2519
31240SOL    HW2 3651   4.869   5.867   3.055  1.0932 -0.9700  0.5857
31241SOL     OW 3652  12.969   5.629  12.695 -0.2056 -0.0996  0.1068
31241SOL    HW1 3653  12.875   5.612  12.699  0.1214 -2.0196  0.1824
31241SOL    HW2 3654  12.991   5.619  12.602  0.1976 -1.3589  0.3198
31242SOL     OW 3655   8.343  11.765   5.815 -0.0035  0.2977 -0.2610
31242SOL    HW1 3656   8.304  11.754   5.728 -1.5882  1.4150  0.2589
31242SOL    HW2 3657   8.345  11.677   5.852 -0.2255 -0.0522 -1.0682
31243SOL     OW 3658  11.377   3.280   7.657 -0.3211 -0.1500 -0.2355
31243SOL    HW1 3659  11.333   3.230   7.726  1.9695  0.1483  1.5807
31243SOL    HW2 3660  11.421   3.351   7.703  1.4667 -0.0524 -1.9517
31244SOL     OW 3661   9.959  11.869   7.884  0.1340  0.2832  0.3008
31244SOL    HW1 3662   9.942  11.915   7.802 -0.6741  2.0225  1.3738
31244SOL    HW2 3663  10.049  11.839   7.876  0.1174  0.5381 -1.1558
31245SOL     OW 3664  13.016   5.650   5.054  0.2026 -0.0711  0.7449
31245SOL    HW1 3665  13.101   5.691   5.069 -0.3931  0.8858  1.6597
31245SOL    HW2 3666  13.013   5.578   5.117  0.7874 -0.8269 -0.0766
31246SOL     OW 3667  11.480  13.199   8.769 -0.0721 -0.1159  0.1482
31246SOL    HW1 3668  11.433  13.169   8.691 -0.8747  0.2687  0.4810
31246SOL    HW2 3669  11.423  13.264   8.809  1.1848  1.1161  0.0102
31247SOL     OW 3670   0.321   4.366  12.620  0.1542  0.0319 -0.0603
31247SOL    HW1 3671   0.285   4.303  12.683 -0.6431  0.3895 -0.1416
31247SOL    HW2 3672   0.384   4.315  12.569 -0.9235 -0.8654 -0.5317
31248SOL     OW 3673   9.595   6.377  11.004 -0.2477 -0.2506 -0.0774
31248SOL    HW1 3674   9.618   6.325  11.081  1.4172  0.6850  0.0956
31248SOL    HW2 3675   9.670   6.434  10.990 -1.4276  1.1248 -1.1060
31249SOL     OW 3676   2.771  12.884   8.751  0.6753  0.1062 -0.0250
31249SOL    HW1 3677   2.722  12.803   8.740  1.2832 -0.3626  0.6048
31249SOL    HW2 3678   2.777  12.896   8.846  1.7555  0.1552 -0.0901
31250SOL     OW 3679  12.129   5.269   4.303 -0.1431  0.0631  0.2174
31250SOL    HW1 3680  12.114   5.175   4.314  0.5021 -0.1709 -0.7546
31250SOL    HW2 3681  12.146   5.279   4.209  1.8673  0.8435  0.6209
31251SOL     OW 3682   5.758  10.788  12.994 -0.2097 -0.3209 -0.6893
31251SOL    HW1 3683   5.852  10.794  13.014 -0.3285 -1.1356  0.1543
31251SOL    HW2 3684   5.723  10.731  13.061 -1.2651 -0.2977 -1.2075
31252SOL     OW 3685  12.255   9.805  10.451  0.4628  0.2096 -0.4124
31252SOL    HW1 3686  12.256   9.900  10.439 -0.0881  0.2657 -0.0978
31252SOL    HW2 3687  12.225   9.793  10.542 -2.7512 -0.2840 -1.3984
31253SOL     OW 3688   5.193   4.080   5.475  0.4274  0.1428 -0.0049
31253SOL    HW1 3689   5.262   4.114   5.419  1.7143  0.9665  1.9814
31253SOL    HW2 3690   5.240   4.035   5.546 -1.0860  0.0399  0.9753
31254SOL     OW 3691   5.084   6.615   1.215  0.0006 -0.5572  0.1501
31254SOL    HW1 3692   5.154   6.674   1.186  0.2183 -1.6109 -1.6433
31254SOL    HW2 3693   5.007   6.642   1.164 -0.6574 -0.0462  1.3824
31255SOL     OW 3694   1.499  10.037   0.596  0.0922  0.3258  0.4761
31255SOL    HW1 3695   1.429  10.102   0.587 -0.3949 -0.1744  0.6055
31255SOL    HW2 3696   1.453   9.956   0.618  0.7531  0.0882  0.9818
31256SOL     OW 3697   3.728   9.021   1.700 -0.6967  0.1425  0.1822
31256SOL    HW1 3698   3.791   9.036   1.629 -0.2308 -1.4275  0.2201
31256SOL    HW2 3699   3.781   9.019   1.779 -0.8641 -0.5308  0.2867
31257SOL     OW 3700  11.530  12.957   6.909 -0.1368  0.0005 -0.1706
31257SOL    HW1 3701  11.553  13.044   6.941  1.1441 -0.0780 -0.7941
31257SOL    HW2 3702  11.435  12.955   6.909 -0.2567  2.2001 -2.1938
31258SOL     OW 3703   5.116  10.234   9.277 -0.8173 -0.2911 -0.0156
31258SOL    HW1 3704   5.039  10.233   9.334  0.4085  0.1182  1.7206
31258SOL    HW2 3705   5.190  10.240   9.337  0.4822  2.3446 -1.6674
31259SOL     OW 3706   0.581  12.700   0.613  0.2768  0.4460  0.3453
31259SOL    HW1 3707   0.668  12.664   0.626  0.2261  0.0915 -0.2565
31259SOL    HW2 3708   0.569  12.760   0.686 -0.0270 -1.4384  1.9162
31260SOL     OW 3709   0.566   6.072   0.447 -0.0676  0.5346 -0.1763
31260SOL    HW1 3710   0.578   5.978   0.458  1.9489  0.7361 -0.3269
31260SOL    HW2 3711   0.564   6.107   0.536  1.1092  0.5233 -0.1244
31261SOL     OW 3712   0.485   3.708   6.370 -0.4757 -0.4868 -0.0419
31261SOL    HW1 3713   0.397   3.740   6.352  0.2768  1.1054 -1.0571
31261SOL    HW2 3714   0.482   3.615   6.346 -1.6812 -0.2938 -0.6991
31262SOL     OW 3715   2.782   2.294   0.695 -0.1125  0.0890 -0.0719
31262SOL    HW1 3716   2.717   2.228   0.719 -0.7423  0.9674  0.7652
31262SOL    HW2 3717   2.862   2.245   0.678 -1.2544 -1.1534 -2.3237
31263SOL     OW 3718   3.359   3.411   1.594 -0.1986 -0.0208  0.1274
31263SOL    HW1 3719   3.326   3.418   1.504 -2.2885 -0.1531  0.8359
31263SOL    HW2 3720   3.333   3.493   1.635  2.0487  0.6986  0.2818
31264SOL     OW 3721  12.266  10.352  10.187 -0.2916 -0.2097 -0.1015
31264SOL    HW1 3722  12.311  10.415  10.242 -2.5486 -0.8160  2.6771
31264SOL    HW2 3723  12.190  10.400  10.153  0.1010 -0.3565 -1.2101
31265SOL     OW 3724  10.967   1.606   5.677  0.3612  0.2049 -0.5660
31265SOL    HW1 3725  10.911   1.684   5.669  0.1097 -0.0239 -1.1075
31265SOL    HW2 3726  10.948   1.572   5.764 -0.5774 -0.0411 -0.8524
31266SOL     OW 3727  10.030  12.394   1.867  0.1377 -0.3775 -0.6290
31266SOL    HW1 3728  10.017  12.397   1.962 -2.1145 -0.5161 -0.8658
31266SOL    HW2 3729  10.092  12.464   1.848 -0.6924  0.7928  0.7801
31267SOL     OW 3730   9.467   2.400   1.318  0.0278 -0.7239  0.2194
31267SOL    HW1 3731   9.430   2.364   1.237  0.6433 -1.5986  0.3113
31267SOL    HW2 3732   9.534   2.337   1.344 -0.2177 -0.4985  1.4658
31268SOL     OW 3733   8.169   8.282   6.803 -0.7269 -1.0498 -0.1882
31268SOL    HW1 3734   8.080   8.280   6.839 -0.4931 -0.0309  0.4877
31268SOL    HW2 3735   8.180   8.196   6.762 -1.5418 -1.7131  0.9054
31269SOL     OW 3736   9.135   7.920   8.489 -0.0871 -0.4114  0.1997
31269SOL    HW1 3737   9.102   7.873   8.412 -0.7096  0.3447 -0.0090
31269SOL    HW2 3738   9.059   7.928   8.547 -0.1848  0.9589 -0.0912
31270SOL     OW 3739  11.296   0.449   2.386 -0.1499  0.2688 -0.2381
31270SOL    HW1 3740  11.369   0.509   2.403  0.0704  0.0762 -0.4875
31270SOL    HW2 3741  11.267   0.421   2.473 -1.7973  2.5267  0.0265
31271SOL     OW 3742   1.548   9.840   0.806 -0.1237  0.0099 -0.2480
31271SOL    HW1 3743   1.584   9.757   0.775  0.8621 -0.9686  3.1340
31271SOL    HW2 3744   1.617   9.904   0.788  1.2720 -0.9074  1.5863
31272SOL     OW 3745   3.705  12.642  12.896  0.6040 -0.0055 -0.1410
31272SOL    HW1 3746   3.796  12.630  12.922  0.1734 -1.6496  0.7833
31272SOL    HW2 3747   3.666  12.555  12.906 -1.3814  0.9346  0.7435
31273SOL     OW 3748   2.085   4.909  12.912 -0.4873 -0.0041 -0.5948
31273SOL    HW1 3749   2.059   4.846  12.845 -0.2221 -1.1817  0.3672
31273SOL    HW2 3750   2.180   4.900  12.918 -0.4757  0.3250 -0.2968
31274SOL     OW 3751   8.394   7.644   9.859 -0.2136 -0.4542  0.4047
31274SOL    HW1 3752   8.342   7.571   9.825 -0.6309 -0.1261  0.3246
31274SOL    HW2 3753   8.355   7.721   9.818  0.3123 -0.1998  0.3870
31275SOL     OW 3754   0.222   2.585   4.343 -0.8443  0.0990 -0.1107
31275SOL    HW1 3755   0.202   2.600   4.435 -2.5300  0.3913 -0.5049
31275SOL    HW2 3756   0.251   2.670   4.310  2.9250 -0.6351  0.8260
31276SOL     OW 3757   3.175   7.632   9.574  0.3936  0.2719 -0.2470
31276SOL    HW1 3758   3.098   7.626   9.630  1.0718 -0.6936  0.6129
31276SOL    HW2 3759   3.239   7.681   9.625  1.3043 -1.3162  0.1992
31277SOL     OW 3760   7.010   9.267   5.223  0.4629 -0.1585  0.4561
31277SOL    HW1 3761   6.990   9.181   5.260 -0.9552 -0.2591 -0.4529
31277SOL    HW2 3762   6.970   9.329   5.284 -1.8387 -0.3216 -0.7823
31278SOL     OW 3763   2.840   5.742   5.004 -0.3258 -0.1175 -0.0563
31278SOL    HW1 3764   2.882   5.825   5.025 -0.8285 -0.2771  1.7352
31278SOL    HW2 3765   2.860   5.728   4.912  2.2984  0.5356  0.3306
31279SOL     OW 3766   4.604   2.141   8.048 -0.0243 -0.2141 -0.4098
31279SOL    HW1 3767   4.595   2.061   7.996  1.1768  0.0865 -1.1218
31279SOL    HW2 3768   4.516   2.178   8.048 -0.6939 -1.7097  0.2575
31280SOL     OW 3769   4.452  11.138   4.619  0.2504  0.0450 -0.4329
31280SOL    HW1 3770   4.476  11.180   4.536  1.2352  0.2655 -0.0427
31280SOL    HW2 3771   4.389  11.199   4.659  0.3604  0.3134 -0.6631
31281SOL     OW 3772   6.190   6.395   8.061 -0.1345 -0.2307 -0.0370
31281SOL    HW1 3773   6.252   6.405   8.133  0.4737 -0.1424 -0.5712
31281SOL    HW2 3774   6.215   6.314   8.018 -1.0409 -0.7434  0.3612
31282SOL     OW 3775   7.174   6.369   8.897 -0.0476  0.4011  0.4902
31282SOL    HW1 3776   7.263   6.403   8.903  1.3432 -2.5277 -1.4277
31282SOL    HW2 3777   7.184   6.283   8.857 -3.8440  0.2753 -0.5356
31283SOL     OW 3778  11.621   8.248   3.041 -0.1934 -0.5467 -0.1102
31283SOL    HW1 3779  11.617   8.153   3.048  1.8121 -0.6192  0.7486
31283SOL    HW2 3780  11.678   8.275   3.113 -0.4654  1.2858 -0.5238
31284SOL     OW 3781   7.302   7.777  10.255  0.3128 -0.0684  0.2782
31284SOL    HW1 3782   7.228   7.717  10.258  0.0455  0.2208 -0.3548
31284SOL    HW2 3783   7.310   7.810  10.344 -1.1175  0.8644  0.0820
31285SOL     OW 3784   0.263  10.331   5.289 -0.1573 -0.3601 -0.1285
31285SOL    HW1 3785   0.276  10.320   5.383  0.9966 -3.2214 -0.5233
31285SOL    HW2 3786   0.224  10.249   5.260 -0.6466  0.5110 -2.1590
31286SOL     OW 3787  13.243  12.890   1.874 -0.0139 -0.1512  0.2533
31286SOL    HW1 3788  13.224  12.868   1.965  0.8240 -1.8823  0.0537
31286SOL    HW2 3789  13.157  12.887   1.830 -0.2043 -1.0314  0.6624
31287SOL     OW 3790   8.618   1.193   0.420  0.1315  0.3809  0.4208
31287SOL    HW1 3791   8.713   1.180   0.419  0.1410  0.4761 -0.1625
31287SOL    HW2 3792   8.593   1.173   0.510  0.4171 -1.7679  0.0987
31288SOL     OW 3793   5.962   6.378   3.106  0.2448  0.1316 -0.8739
31288SOL    HW1 3794   5.893   6.388   3.171 -0.5125  1.7358 -1.8714
31288SOL    HW2 3795   5.927   6.316   3.043  0.0661  0.2824 -0.9232
31289SOL     OW 3796   7.046   2.596  11.382  0.4502  0.1796 -0.4216
31289SOL    HW1 3797   7.010   2.665  11.436  1.1232  0.6671 -0.5824
31289SOL    HW2 3798   7.012   2.515  11.420  0.6601  0.5276  0.5346
31290SOL     OW 3799  10.800   4.047   4.504 -0.2167 -0.2595 -0.5057
31290SOL    HW1 3800  10.763   4.062   4.591 -1.9912  1.0345 -1.4244
31290SOL    HW2 3801  10.867   3.979   4.518 -0.4783 -0.1236  1.8339
31291SOL     OW 3802   2.970   3.304  11.134 -0.2899  0.6134 -0.3481
31291SOL    HW1 3803   3.033   3.267  11.072 -1.5860 -1.3594 -0.5483
31291SOL    HW2 3804   3.014   3.297  11.219  0.6674  1.4480 -0.7435
31292SOL     OW 3805  10.000  12.103   6.624  0.2589 -0.1321  0.2358
31292SOL    HW1 3806  10.075  12.114   6.683  0.7594 -0.6264 -0.2938
31292SOL    HW2 3807  10.037  12.063   6.545 -0.6036 -0.6280  0.0688
31293SOL     OW 3808  10.276  10.327   4.334  0.0711  0.0259  0.4084
31293SOL    HW1 3809  10.336  10.254   4.350 -0.0163  0.3705  2.6419
31293SOL    HW2 3810  10.328  10.405   4.350  0.2940  0.5400 -2.4424
31294SOL     OW 3811   2.762   6.922   3.413 -0.0092 -0.2181 -0.5985
31294SOL    HW1 3812   2.680   6.895   3.374  0.3542 -1.9150 -0.2504
31294SOL    HW2 3813   2.793   6.994   3.357 -1.4116  0.0450 -1.0686
31295SOL     OW 3814   2.591   0.830  11.191  0.3765  0.5516 -0.2357
31295SOL    HW1 3815   2.553   0.807  11.275  0.4109  0.5595 -0.2179
31295SOL    HW2 3816   2.518   0.831  11.130  0.3428  0.6043 -0.1936
31296SOL     OW 3817   4.032   2.801   9.461  0.3995 -0.2245  0.2633
31296SOL    HW1 3818   4.036   2.872   9.397  1.0385  0.0532  0.6009
31296SOL    HW2 3819   4.023   2.722   9.409  0.6567  0.0220 -0.1599
31297SOL     OW 3820  11.450   9.408  12.834  0.4639  0.0443 -0.1534
31297SOL    HW1 3821  11.489   9.321  12.835  0.3439 -0.0144 -0.5953
31297SOL    HW2 3822  11.442   9.432  12.927  1.0293 -0.1709 -0.0478
31298SOL     OW 3823   9.373   0.498   8.780  0.1730  0.4523 -0.5839
31298SOL    HW1 3824   9.395   0.409   8.753 -0.1041  0.2507 -0.1591
31298SOL    HW2 3825   9.458   0.538   8.802  0.2197 -0.0139  0.1165
31299SOL     OW 3826   6.183   6.214   9.330  0.1230  0.6378  0.1242
31299SOL    HW1 3827   6.266   6.166   9.324 -1.3278 -1.9028 -1.7518
31299SOL    HW2 3828   6.149   6.193   9.417  0.5231  0.0370  0.1413
31300SOL     OW 3829   7.085  11.977   6.343 -0.0192 -0.1722 -0.0832
31300SOL    HW1 3830   7.096  12.059   6.297  1.0703  0.2981  0.9592
31300SOL    HW2 3831   7.031  11.999   6.420 -0.2766 -0.5654 -0.1468
31301SOL     OW 3832  10.453  12.600   6.897 -0.0667  0.2966 -0.1846
31301SOL    HW1 3833  10.490  12.601   6.985 -0.4858  0.9703 -0.0108
31301SOL    HW2 3834  10.520  12.641   6.843  0.3551 -0.4699 -0.2524
31302SOL     OW 3835  12.348   2.181   5.529 -0.5909  0.6906  0.0867
31302SOL    HW1 3836  12.370   2.183   5.436 -0.1666  0.4278  0.1811
31302SOL    HW2 3837  12.350   2.273   5.557 -1.1336  0.8106 -0.2585
31303SOL     OW 3838   3.812  10.454   3.654  0.2017  0.6105  0.0870
31303SOL    HW1 3839   3.754  10.423   3.724 -1.2452  1.2662 -0.7740
31303SOL    HW2 3840   3.755  10.502   3.595  1.2817 -0.4035 -1.8684
31304SOL     OW 3841   2.083  12.612   6.915  0.4718 -0.4505 -0.0292
31304SOL    HW1 3842   2.174  12.590   6.896  1.1190  0.9070  1.2799
31304SOL    HW2 3843   2.034  12.581   6.839  2.3283  0.9594 -1.9201
31305SOL     OW 3844   9.554   1.033  10.001 -0.1272  0.4986  0.3309
31305SOL    HW1 3845   9.508   0.952  10.023  0.7855 -0.2784 -0.5319
31305SOL    HW2 3846   9.497   1.103  10.034 -0.4006 -0.4992  2.0858
31306SOL     OW 3847   3.220  10.610   7.258  0.5688 -0.2786 -0.4702
31306SOL    HW1 3848   3.289  10.610   7.325  1.5759  0.0303 -1.4705
31306SOL    HW2 3849   3.161  10.680   7.285 -0.3146 -1.6217  1.3141
31307SOL     OW 3850   6.310  12.823   3.399  0.1475  0.8064  0.4232
31307SOL    HW1 3851   6.358  12.846   3.479  0.9919  2.1035 -0.4088
31307SOL    HW2 3852   6.377  12.821   3.331 -0.4991 -0.6801 -0.1980
31308SOL     OW 3853  11.707  13.172   4.456  0.2332  0.8689 -0.0374
31308SOL    HW1 3854  11.665  13.132   4.379  0.0854  1.7806 -0.4340
31308SOL    HW2 3855  11.638  13.172   4.523  0.8444 -1.5163  0.7020
31309SOL     OW 3856   8.321   0.511  12.053  0.1658 -0.8196  0.1172
31309SOL    HW1 3857   8.410   0.535  12.078  0.0630  1.1565 -1.2366
31309SOL    HW2 3858   8.265   0.553  12.117  0.0912  0.8356 -0.9823
31310SOL     OW 3859   8.195   6.761   8.433  0.2618 -0.4578 -0.6114
31310SOL    HW1 3860   8.279   6.807   8.436  0.4114 -0.7719  1.4324
31310SOL    HW2 3861   8.216   6.677   8.392  1.2137 -0.9485  0.7775
31311SOL     OW 3862   5.366  12.548   7.454 -0.2350 -0.2335  0.2060
31311SOL    HW1 3863   5.381  12.558   7.360  0.0941 -2.6037 -0.0580
31311SOL    HW2 3864   5.454  12.535   7.490 -0.5543 -2.0318  0.4169
31312SOL     OW 3865   9.573  12.328   3.356  0.2222 -0.3270 -0.2210
31312SOL    HW1 3866   9.581  12.243   3.399 -0.8109 -0.5863 -0.5118
31312SOL    HW2 3867   9.604  12.312   3.267  1.7899  0.0645  0.2295
31313SOL     OW 3868  12.330  11.955   9.436 -0.0560  0.6571 -0.2577
31313SOL    HW1 3869  12.405  11.897   9.447  0.0848  0.8010 -0.4401
31313SOL    HW2 3870  12.254  11.902   9.459  0.1163  0.5586  0.0802
31314SOL     OW 3871   9.434   8.294   7.541 -0.2990  0.4769 -0.1949
31314SOL    HW1 3872   9.355   8.240   7.543 -0.2223  0.3366 -0.7589
31314SOL    HW2 3873   9.449   8.318   7.632 -0.7882  0.2056 -0.0384
31315SOL     OW 3874   8.634   2.917   3.806 -0.3399  0.2933  0.0421
31315SOL    HW1 3875   8.552   2.876   3.833  0.3247 -0.2439  1.3743
31315SOL    HW2 3876   8.613   3.010   3.800 -0.9335  0.2320  0.9198
31316SOL     OW 3877  10.252  13.065   1.571  0.5424  0.1399 -0.0531
31316SOL    HW1 3878  10.345  13.063   1.593  0.2353  2.3345  1.8082
31316SOL    HW2 3879  10.216  12.987   1.614  1.4068 -0.5133 -0.4632
31317SOL     OW 3880  11.366   3.000   4.947 -0.2807  0.4046 -0.0812
31317SOL    HW1 3881  11.348   2.972   4.857  1.8000  0.4913 -0.5846
31317SOL    HW2 3882  11.454   3.038   4.943  0.6412 -1.2216  2.3244
31318SOL     OW 3883  10.250   1.646   9.582  0.1478  0.0655  0.1000
31318SOL    HW1 3884  10.169   1.627   9.534 -1.0813 -1.9122  2.6700
31318SOL    HW2 3885  10.302   1.566   9.573  0.0017 -0.2486  1.6958
31319SOL     OW 3886   2.399   2.130  11.123  0.2120 -0.0246  0.6630
31319SOL    HW1 3887   2.342   2.103  11.051 -0.7294 -0.3310  1.4995
31319SOL    HW2 3888   2.469   2.065  11.125 -1.1878 -1.5799  1.6776
31320SOL     OW 3889   0.480   7.309   2.621  0.7804 -0.1942  0.2323
31320SOL    HW1 3890   0.425   7.387   2.632  1.0596  0.3344 -1.7089
31320SOL    HW2 3891   0.484   7.270   2.708 -1.1636  0.7538  0.8088
31321SOL     OW 3892   7.651   1.028  13.208  0.1787  0.7077  0.0832
31321SOL    HW1 3893   7.716   0.961  13.229  0.7764  1.6064  1.2284
31321SOL    HW2 3894   7.590   0.985  13.149 -0.5933 -1.4780  2.3137
31322SOL     OW 3895   5.953   5.244   4.807 -0.7178  0.4546  0.0854
31322SOL    HW1 3896   5.909   5.194   4.876 -0.7270 -0.5004 -0.5894
31322SOL    HW2 3897   5.881   5.278   4.753 -0.6991 -1.8890 -1.5643
31323SOL     OW 3898  12.223   0.080  12.723  0.2217 -0.3476  0.3277
31323SOL    HW1 3899  12.223   0.054  12.815  2.3235 -1.7144 -0.0029
31323SOL    HW2 3900  12.232  -0.002  12.674  2.6313  0.5618 -0.9226
31324SOL     OW 3901   3.351  10.066   9.695 -0.3265  0.2384 -0.7089
31324SOL    HW1 3902   3.423  10.124   9.721 -1.0066  1.3137 -1.1149
31324SOL    HW2 3903   3.273  10.121   9.705 -1.1379 -1.0165  0.0767
31325SOL     OW 3904  10.851   4.509  11.114 -0.4485 -0.0176  0.4948
31325SOL    HW1 3905  10.868   4.424  11.155 -2.0584 -1.5059 -1.6417
31325SOL    HW2 3906  10.756   4.519  11.118 -0.6390  0.0310 -2.1281
31326SOL     OW 3907  10.262   4.019   1.748 -0.0315  0.6348  0.2972
31326SOL    HW1 3908  10.335   3.957   1.752  0.3743  1.0411 -0.5394
31326SOL    HW2 3909  10.261   4.049   1.657 -1.3484  0.5166  0.2446
31327SOL     OW 3910   7.518   7.076   7.008 -0.3554 -0.2121  0.4587
31327SOL    HW1 3911   7.571   7.019   7.063 -0.5776 -0.0945  0.7983
31327SOL    HW2 3912   7.456   7.118   7.069 -0.5894 -0.0666  0.1257
31328SOL     OW 3913   7.163  10.902   2.541 -0.0236 -0.3334 -0.2332
31328SOL    HW1 3914   7.229  10.834   2.558  0.1823  0.1560  0.9807
31328SOL    HW2 3915   7.133  10.883   2.452 -0.5923 -2.5266  0.3525
31329SOL     OW 3916   2.525   0.921   6.325 -0.4577  0.5134  0.1303
31329SOL    HW1 3917   2.518   0.947   6.232 -1.3094 -2.2028 -0.6556
31329SOL    HW2 3918   2.452   0.967   6.367 -0.6380  1.0447 -0.7197
31330SOL     OW 3919  11.016   6.077   0.967 -0.0407  0.3590  0.5982
31330SOL    HW1 3920  10.937   6.097   1.017 -2.5107 -0.6627 -2.5466
31330SOL    HW2 3921  11.043   6.162   0.931 -1.7172  0.3036 -0.9003
31331SOL     OW 3922  10.901   9.749   3.432  0.0926 -0.0970 -0.2310
31331SOL    HW1 3923  10.872   9.753   3.341  2.3277 -0.1276 -1.0067
31331SOL    HW2 3924  10.964   9.676   3.435  0.1502 -0.0336  1.3171
31332SOL     OW 3925   8.169   6.585  11.666 -0.3891  0.3265  0.0848
31332SOL    HW1 3926   8.209   6.499  11.650 -0.3384  0.2248  0.7579
31332SOL    HW2 3927   8.158   6.589  11.761 -2.8249 -0.0211 -0.1331
31333SOL     OW 3928   4.547   7.626   7.057  0.6077 -0.1189  0.1517
31333SOL    HW1 3929   4.636   7.643   7.028  0.0474 -0.6395 -2.0658
31333SOL    HW2 3930   4.538   7.530   7.053  0.4603 -0.2245  2.0833
31334SOL     OW 3931  12.849   7.511  11.506  0.0365  1.1811 -0.4118
31334SOL    HW1 3932  12.919   7.574  11.489  0.4510  0.1545 -2.9001
31334SOL    HW2 3933  12.891   7.442  11.557  0.3998  1.3445 -0.4837
31335SOL     OW 3934   5.730   7.444   9.461  0.2057  0.1954  0.2459
31335SOL    HW1 3935   5.708   7.492   9.381  1.4272  1.4933  0.6532
31335SOL    HW2 3936   5.784   7.370   9.430  1.2442  1.0694 -0.0905
31336SOL     OW 3937   9.658   9.468  12.434  0.4868 -0.4362 -0.1297
31336SOL    HW1 3938   9.592   9.537  12.427 -0.1628 -1.0837 -0.4652
31336SOL    HW2 3939   9.733   9.512  12.475  0.3749  0.6671 -1.0379
31337SOL     OW 3940   9.068   3.995   3.900 -0.2742 -0.7120 -0.0536
31337SOL    HW1 3941   9.158   3.988   3.932 -0.2882  3.5886  1.5987
31337SOL    HW2 3942   9.077   4.010   3.806  0.8557  0.4158  0.2038
31338SOL     OW 3943  10.356  10.073   0.114  0.7110  0.3857  0.2881
31338SOL    HW1 3944  10.402  10.009   0.060  0.1833 -1.4532  1.9198
31338SOL    HW2 3945  10.372  10.045   0.204 -0.6256  1.8136  1.0211
31339SOL     OW 3946  11.298   4.249   1.715 -0.2923  0.0989  1.0669
31339SOL    HW1 3947  11.296   4.328   1.661 -0.5139  0.2763  1.3297
31339SOL    HW2 3948  11.322   4.281   1.802  1.6231 -0.3650  0.7642
31340SOL     OW 3949   0.010   9.190   0.253 -0.4273 -0.3647 -0.0391
31340SOL    HW1 3950  -0.063   9.131   0.273 -1.4624  1.7668  3.2043
31340SOL    HW2 3951   0.081   9.161   0.310 -0.1541  0.0748 -0.1527
31341SOL     OW 3952   7.649   2.442  10.110 -0.5273 -0.0865 -0.1605
31341SOL    HW1 3953   7.723   2.438  10.050 -1.8136 -0.2650 -1.7986
31341SOL    HW2 3954   7.657   2.364  10.164  0.6315  0.0541 -0.1083
31342SOL     OW 3955  13.295  10.905   5.840 -0.4011 -0.3032 -1.0197
31342SOL    HW1 3956  13.298  10.985   5.788 -0.5474  0.5164  0.1789
31342SOL    HW2 3957  13.213  10.912   5.890  0.3284 -0.4289  0.2424
31343SOL     OW 3958  11.517   3.121   4.120  0.2489 -0.0521  0.3768
31343SOL    HW1 3959  11.555   3.111   4.207  1.1889  0.8181  0.0867
31343SOL    HW2 3960  11.540   3.210   4.093  0.2377 -0.4063 -0.8898
31344SOL     OW 3961   4.725   0.818   5.614  0.0930 -0.2120 -0.5515
31344SOL    HW1 3962   4.685   0.739   5.577 -0.8541 -0.5841  1.1646
31344SOL    HW2 3963   4.731   0.800   5.708  0.9900  1.2907 -0.2897
31345SOL     OW 3964   2.293  11.410   8.014  0.7367 -0.1480  0.3012
31345SOL    HW1 3965   2.275  11.372   7.927 -0.7772  0.0586  0.4968
31345SOL    HW2 3966   2.363  11.356   8.050  1.8249  0.1361 -1.2845
31346SOL     OW 3967   3.917   3.474   1.812 -0.2249  0.2394 -0.1287
31346SOL    HW1 3968   3.933   3.522   1.893  1.0320  0.4393 -0.4669
31346SOL    HW2 3969   3.899   3.543   1.747  1.4415  0.2863 -0.5842
31347SOL     OW 3970  12.938   5.682   5.679  0.1291 -0.5368 -0.2955
31347SOL    HW1 3971  13.029   5.699   5.704  0.0819 -0.4200 -0.2047
31347SOL    HW2 3972  12.894   5.662   5.761  0.0969 -0.7097 -0.3537
31348SOL     OW 3973   7.262   4.995  12.795 -0.0620 -0.5544  0.1090
31348SOL    HW1 3974   7.320   4.919  12.803  0.9480  0.0326 -1.1627
31348SOL    HW2 3975   7.312   5.057  12.742 -1.5591  0.2944 -0.3750
31349SOL     OW 3976  12.731   4.759   9.425 -0.4652 -0.2864  0.0780
31349SOL    HW1 3977  12.752   4.812   9.502 -1.8349 -0.6557  0.7402
31349SOL    HW2 3978  12.700   4.676   9.460  0.5039 -1.0953 -0.9302
31350SOL     OW 3979  10.049   3.648   5.579  0.3345 -0.1974  0.3568
31350SOL    HW1 3980   9.989   3.590   5.532 -0.0618  0.3611  0.1615
31350SOL    HW2 3981  10.047   3.730   5.529 -0.2369  0.4707  1.4414
31351SOL     OW 3982   8.876   5.433   5.369 -0.2466  0.2792 -0.3899
31351SOL    HW1 3983   8.856   5.414   5.277  0.8929 -1.0356 -0.4079
31351SOL    HW2 3984   8.848   5.355   5.416  0.6041  0.2974  0.1650
31352SOL     OW 3985   8.950  11.533   7.193 -0.3647  0.0757  0.1598
31352SOL    HW1 3986   8.985  11.617   7.163 -0.7943  0.2141  0.0357
31352SOL    HW2 3987   8.856  11.537   7.172 -0.7024  0.2017  1.5507
31353SOL     OW 3988   6.618   7.346  11.653  0.2134  0.1632  0.0146
31353SOL    HW1 3989   6.650   7.427  11.693  3.2760 -0.0385 -1.7547
31353SOL    HW2 3990   6.538   7.372  11.607  0.1340  1.7444  0.9759
31354SOL     OW 3991   0.531   3.785  11.199  0.3699  0.4256  0.3204
31354SOL    HW1 3992   0.451   3.818  11.240  0.4962  0.4500  0.5522
31354SOL    HW2 3993   0.504   3.704  11.156  0.5618 -0.5149  1.8741
31355SOL     OW 3994   4.790   0.407   3.353 -0.0079  0.3259 -0.2926
31355SOL    HW1 3995   4.810   0.449   3.437  0.0541 -0.2317 -0.0245
31355SOL    HW2 3996   4.876   0.388   3.315 -0.0312 -0.0440 -0.1647
31356SOL     OW 3997   7.218  12.570  10.596 -0.4766  0.3937  0.5480
31356SOL    HW1 3998   7.217  12.656  10.640 -1.7185  0.0487  1.2354
31356SOL    HW2 3999   7.164  12.583  10.518  1.9939  1.1009 -1.1977
31357SOL     OW 4000   0.734   1.974  12.852 -0.6251 -0.2998 -0.2048
31357SOL    HW1 4001   0.658   1.919  12.870  0.6287 -1.2598  2.7616
31357SOL    HW2 4002   0.710   2.061  12.884 -1.0511 -0.1452 -0.9097
31358SOL     OW 4003   6.167   6.390   3.327  0.5754 -0.1062  0.1075
31358SOL    HW1 4004   6.084   6.346   3.309  0.3702  0.1744  0.3512
31358SOL    HW2 4005   6.229   6.349   3.268  0.7678 -1.8897  1.4647
31359SOL     OW 4006   5.868   5.516   8.608 -0.7769 -0.0496  0.1388
31359SOL    HW1 4007   5.900   5.434   8.571  0.8581  0.3935  0.5150
31359SOL    HW2 4008   5.904   5.584   8.552 -1.0822  0.4755  0.5704
31360SOL     OW 4009  12.886   5.229  10.184  0.1533  0.5707 -0.5911
31360SOL    HW1 4010  12.889   5.197  10.094 -2.6197  0.7642 -0.8409
31360SOL    HW2 4011  12.854   5.319  10.176 -0.2906  0.5317  0.5768
31361SOL     OW 4012  10.995   6.801   0.535  0.3796 -0.0970  0.0991
31361SOL    HW1 4013  11.008   6.846   0.451 -0.4720  0.8854  0.4776
31361SOL    HW2 4014  10.968   6.713   0.510  0.7621 -0.0121 -0.6574
31362SOL     OW 4015   2.125   6.331  12.705  0.2737  0.2053  0.3367
31362SOL    HW1 4016   2.156   6.405  12.653  0.3948  0.2796  0.5150
31362SOL    HW2 4017   2.031   6.329  12.691  0.2795  0.3541  0.2810
31363SOL     OW 4018  12.388   4.603   7.221 -0.0991 -0.3421  0.0468
31363SOL    HW1 4019  12.377   4.635   7.132 -0.9489  0.1850  0.3327
31363SOL    HW2 4020  12.424   4.677   7.270 -0.1933 -0.4412  0.2712
31364SOL     OW 4021   0.402   5.438   9.249 -0.3894  0.4274  0.1187
31364SOL    HW1 4022   0.415   5.436   9.154 -1.4934  1.0812 -0.0584
31364SOL    HW2 4023   0.319   5.393   9.262  0.0521 -0.2023  0.8487
31365SOL     OW 4024   4.973   5.694   2.110  0.1378  0.3420  0.4786
31365SOL    HW1 4025   4.983   5.631   2.180  1.0543  2.1060  2.0336
31365SOL    HW2 4026   4.988   5.644   2.029  1.3693 -1.2656  1.6573
31366SOL     OW 4027   7.015   5.893   1.291  0.5306  0.0980 -0.2890
31366SOL    HW1 4028   6.933   5.912   1.336 -1.0244 -1.7340 -2.1398
31366SOL    HW2 4029   6.994   5.903   1.199  2.4715 -0.2052 -0.7932
31367SOL     OW 4030  10.972   9.423  13.249 -0.1865 -0.0405  0.1629
31367SOL    HW1 4031  10.935   9.335  13.248 -1.2662  0.3215 -3.2172
31367SOL    HW2 4032  10.903   9.478  13.287 -0.9267 -0.1857 -0.9373
31368SOL     OW 4033   0.438  10.493   9.770 -0.4990  0.0826  0.2846
31368SOL    HW1 4034   0.506  10.490   9.703 -0.4228 -1.2714  0.3838
31368SOL    HW2 4035   0.371  10.432   9.738 -0.5311 -0.4562  1.3572
31369SOL     OW 4036   2.512   7.219   8.185  0.4487  0.0813  0.0824
31369SOL    HW1 4037   2.477   7.130   8.174 -0.4846  0.3893  0.4679
31369SOL    HW2 4038   2.558   7.236   8.103  0.2717 -0.6018 -0.1692
31370SOL     OW 4039   1.563   8.775   2.602  0.3779 -0.5520  0.1099
31370SOL    HW1 4040   1.561   8.680   2.591 -1.1896 -0.4402 -0.9191
31370SOL    HW2 4041   1.527   8.790   2.690 -3.2703 -0.8221 -1.1726
31371SOL     OW 4042   0.066   7.956   7.971 -0.3379  0.0097  0.6592
31371SOL    HW1 4043   0.043   7.951   7.878 -3.2012 -2.0011  1.3399
31371SOL    HW2 4044   0.048   8.046   7.995 -1.2786  0.1357 -0.3913
31372SOL     OW 4045   4.259   8.849   7.470 -0.7157  0.2267  0.0127
31372SOL    HW1 4046   4.238   8.756   7.461  0.3520 -0.1530  1.1085
31372SOL    HW2 4047   4.177   8.894   7.452 -1.3684 -0.9482 -0.0699
31373SOL     OW 4048  11.623  12.382  11.217 -0.1104 -0.1247  0.2302
31373SOL    HW1 4049  11.592  12.440  11.147 -1.1647 -0.9665 -0.0289
31373SOL    HW2 4050  11.553  12.384  11.282  1.7110  2.2736  2.3370
31374SOL     OW 4051   2.055   0.045   7.990  0.5233 -0.2425  0.2916
31374SOL    HW1 4052   2.062   0.133   8.026 -0.9731  0.2810 -0.5921
31374SOL    HW2 4053   2.079  -0.012   8.063 -0.5185  0.8408  1.5442
31375SOL     OW 4054   0.885   8.024   2.202 -0.4706 -0.0262  0.2918
31375SOL    HW1 4055   0.950   7.957   2.178 -0.5937 -0.4102  0.9802
31375SOL    HW2 4056   0.810   7.973   2.234  0.0796  0.4108  2.4899
31376SOL     OW 4057  12.374   6.808   7.820  0.2151 -0.2139 -0.2197
31376SOL    HW1 4058  12.293   6.856   7.807  0.6860  0.4329 -0.9029
31376SOL    HW2 4059  12.383   6.801   7.915  0.9100  2.4802  0.0181
31377SOL     OW 4060  10.384   0.277   2.635 -0.6766 -0.2608  0.1156
31377SOL    HW1 4061  10.335   0.196   2.653 -0.6073 -0.2652  0.2855
31377SOL    HW2 4062  10.430   0.296   2.717 -0.3932 -0.2565 -0.0420
31378SOL     OW 4063   8.386   7.481  13.091 -0.7463 -0.2130  0.1006
31378SOL    HW1 4064   8.309   7.442  13.132 -0.9633  1.9604  1.9483
31378SOL    HW2 4065   8.351   7.533  13.018 -1.2934  1.7076  1.6244
31379SOL     OW 4066   7.704  10.794   1.692  0.4065  0.0777  0.2161
31379SOL    HW1 4067   7.650  10.715   1.692 -0.7148  0.8244  0.1774
31379SOL    HW2 4068   7.685  10.836   1.776  1.7548 -0.1681  0.6781
31380SOL     OW 4069   3.877   9.193   6.209  0.1853  0.9551 -0.2809
31380SOL    HW1 4070   3.869   9.183   6.114 -1.8202  1.0723 -0.1719
31380SOL    HW2 4071   3.830   9.118   6.245  0.6052  1.1106  0.6343
31381SOL     OW 4072   3.684   7.680  10.563  1.0970 -0.2608  0.2550
31381SOL    HW1 4073   3.729   7.715  10.640  0.3891 -0.5526  0.8105
31381SOL    HW2 4074   3.693   7.585  10.571  1.2370 -0.2835 -0.1603
31382SOL     OW 4075   9.330   5.363  10.788  0.0543  0.2772  0.0296
31382SOL    HW1 4076   9.409   5.309  10.779  0.3543  0.9500 -1.7495
31382SOL    HW2 4077   9.353   5.429  10.853  1.1402  0.7338 -0.7882
31383SOL     OW 4078  12.488  12.130   0.897 -0.2963 -0.4972 -0.2271
31383SOL    HW1 4079  12.548  12.056   0.902 -0.6782 -1.0769 -2.6396
31383SOL    HW2 4080  12.473  12.156   0.987  0.9952 -2.4371  0.6039
31384SOL     OW 4081  10.833   1.203   5.037  0.4015 -0.3510  0.2297
31384SOL    HW1 4082  10.750   1.249   5.023 -0.4258 -1.9816 -0.5879
31384SOL    HW2 4083  10.814   1.112   5.013  2.8574 -0.4758 -1.6234
31385SOL     OW 4084  11.415   7.422   3.019 -0.4910 -0.3477  0.1497
31385SOL    HW1 4085  11.487   7.360   3.030 -0.6826 -0.7127 -0.5682
31385SOL    HW2 4086  11.369   7.421   3.103 -0.1352 -0.7182  0.3434
31386SOL     OW 4087   4.423   3.498   6.005 -0.1010  0.4186 -0.1572
31386SOL    HW1 4088   4.421   3.575   5.949  1.2599  0.8303  0.3165
31386SOL    HW2 4089   4.443   3.426   5.946  3.0146  1.0721 -0.0894
31387SOL     OW 4090  11.144  12.999   1.986 -0.2678 -0.3560 -0.2261
31387SOL    HW1 4091  11.151  13.093   2.004 -0.6405 -0.1824 -0.9420
31387SOL    HW2 4092  11.055  12.976   2.013 -0.4167 -0.3532 -0.7158
31388SOL     OW 4093   1.051   4.428   4.404 -0.1638 -0.6670  0.2850
31388SOL    HW1 4094   1.146   4.419   4.398  0.0970  1.8136 -0.6397
31388SOL    HW2 4095   1.017   4.341   4.383  1.8525 -1.3033 -0.6154
31389SOL     OW 4096   1.899   3.261   7.446 -0.3771  0.5321 -0.1410
31389SOL    HW1 4097   1.920   3.327   7.512 -0.7240  0.0910  0.4172
31389SOL    HW2 4098   1.928   3.178   7.483 -2.0313  0.0532  0.1855
31390SOL     OW 4099   2.966   7.407   2.081 -0.1792  0.1682 -0.3148
31390SOL    HW1 4100   3.010   7.439   2.160  0.8477  1.3798 -1.3259
31390SOL    HW2 4101   2.884   7.370   2.112  0.0745  0.8800  1.2873
31391SOL     OW 4102   4.198  10.635   7.128 -0.5842 -0.1010 -0.0172
31391SOL    HW1 4103   4.239  10.688   7.196  0.9688  0.7956 -1.5633
31391SOL    HW2 4104   4.104  10.646   7.142 -0.4449  4.2244 -0.9861
31392SOL     OW 4105   7.999  10.399   4.754 -0.2053 -0.1160  0.1357
31392SOL    HW1 4106   8.020  10.482   4.797  1.5866 -0.4079 -0.0817
31392SOL    HW2 4107   7.960  10.424   4.671 -0.4947  0.4960  0.4467
31393SOL     OW 4108   0.121  10.169  10.630 -0.1916 -0.2308  0.5244
31393SOL    HW1 4109   0.109  10.153  10.724  0.5935  1.0274  0.8678
31393SOL    HW2 4110   0.131  10.082  10.592  1.6733 -0.7138  1.9434
31394SOL     OW 4111  12.434   5.753   3.337  0.0560  0.3992 -0.1278
31394SOL    HW1 4112  12.396   5.686   3.279  0.9288  0.1755 -0.4594
31394SOL    HW2 4113  12.495   5.705   3.392 -0.7454  0.6209  0.9883
31395SOL     OW 4114   2.019   3.599   1.911 -0.2554 -0.0369 -0.0349
31395SOL    HW1 4115   1.997   3.675   1.965  1.2954 -0.5540  1.4226
31395SOL    HW2 4116   2.075   3.545   1.967  2.4178 -0.0861 -2.5161
31396SOL     OW 4117   3.656   8.403  13.085 -0.3744  0.1044  0.0799
31396SOL    HW1 4118   3.709   8.471  13.043 -1.4477  0.3052 -1.0046
31396SOL    HW2 4119   3.657   8.426  13.178  1.6572 -0.0720  0.1453
31397SOL     OW 4120   3.749   4.372   4.365 -0.0290  0.0424  0.2478
31397SOL    HW1 4121   3.768   4.303   4.429 -0.6157  0.0595  0.4461
31397SOL    HW2 4122   3.678   4.423   4.405 -0.5409 -0.0660 -0.5034
31398SOL     OW 4123   7.727   9.264  10.191 -0.4818 -0.3996 -0.3181
31398SOL    HW1 4124   7.819   9.277  10.165 -0.8089  1.4695 -0.7027
31398SOL    HW2 4125   7.688   9.351  10.184 -1.5668 -0.5081  2.8082
31399SOL     OW 4126  10.245   6.745   3.562  0.1385  0.1127 -0.1349
31399SOL    HW1 4127  10.235   6.686   3.636  1.3950 -0.1452 -0.1573
31399SOL    HW2 4128  10.224   6.832   3.597  1.4239  0.0927  0.7115
31400SOL     OW 4129  10.511   3.871   6.413  0.4522 -0.0710  0.6341
31400SOL    HW1 4130  10.597   3.911   6.418  1.0091 -1.2019  0.3806
31400SOL    HW2 4131  10.483   3.862   6.505 -0.1494  1.8070  0.6772
31401SOL     OW 4132   8.025   1.993  10.589  0.4849 -0.3946  0.5029
31401SOL    HW1 4133   8.000   1.913  10.634 -0.1099 -0.1250  0.6617
31401SOL    HW2 4134   7.946   2.047  10.591  0.4491 -0.3671 -0.8304
31402SOL     OW 4135  13.106  12.439   9.542  0.0563  0.0616 -0.0429
31402SOL    HW1 4136  13.185  12.489   9.518 -0.4280  0.3735 -1.0432
31402SOL    HW2 4137  13.088  12.465   9.632  0.3042  1.0540 -0.2660
31403SOL     OW 4138   1.950  10.618  13.077 -0.0297 -0.3958 -0.3789
31403SOL    HW1 4139   1.862  10.638  13.110  1.0391  1.0084  1.8553
31403SOL    HW2 4140   1.991  10.568  13.148  2.1068  2.0558  0.2650
31404SOL     OW 4141   0.753   6.753  11.446  0.0246  0.7399 -0.5078
31404SOL    HW1 4142   0.779   6.789  11.361  1.1392 -0.0958 -0.5428
31404SOL    HW2 4143   0.742   6.660  11.431  0.6609  0.5100  0.3546
31405SOL     OW 4144   3.420   6.867   2.863 -0.1170  0.8830  0.6965
31405SOL    HW1 4145   3.445   6.855   2.955  0.7976  0.2922  0.3908
31405SOL    HW2 4146   3.344   6.925   2.866  0.6210  1.8584  1.7687
31406SOL     OW 4147  13.164   6.973  10.200 -0.1905  0.3957 -0.1738
31406SOL    HW1 4148  13.162   6.879  10.218 -0.8482  0.5689  0.7295
31406SOL    HW2 4149  13.148   6.979  10.106  1.5772 -0.4600 -0.5673
31407SOL     OW 4150   2.599   9.642   6.323 -0.1141 -0.1409 -0.1646
31407SOL    HW1 4151   2.607   9.631   6.228 -1.4434 -0.9711 -0.2048
31407SOL    HW2 4152   2.506   9.654   6.338  0.1667  0.7424  0.9800
31408SOL     OW 4153   7.864  10.867   6.902  0.3808  0.4492  0.6541
31408SOL    HW1 4154   7.808  10.859   6.824 -0.7988 -2.3896  1.6685
31408SOL    HW2 4155   7.953  10.852   6.869 -0.1018 -0.7931 -0.1835
31409SOL     OW 4156   2.427   9.103   5.310  0.3422  0.6405 -0.7426
31409SOL    HW1 4157   2.429   9.012   5.280  0.2782  0.5044 -0.3345
31409SOL    HW2 4158   2.519   9.130   5.311  0.3457  0.6472 -1.0586
31410SOL     OW 4159  12.970   6.284  10.683  0.0407  0.1679 -0.3692
31410SOL    HW1 4160  13.055   6.327  10.679  0.1362  0.3102  1.7976
31410SOL    HW2 4161  12.990   6.191  10.694 -0.1594 -0.3098 -3.3206
31411SOL     OW 4162   0.307   9.555   9.931  0.3703  0.3085  0.3618
31411SOL    HW1 4163   0.250   9.541   9.855  2.6514 -1.1342 -1.1920
31411SOL    HW2 4164   0.315   9.469   9.971  1.2543  0.5302  0.6866
31412SOL     OW 4165   2.002   9.630  10.489  0.4744 -0.1773  0.2399
31412SOL    HW1 4166   1.974   9.558  10.545 -2.9017  1.5455  1.0842
31412SOL    HW2 4167   2.037   9.696  10.550  0.1741  0.2877 -0.0795
31413SOL     OW 4168   7.232  10.579   1.427 -0.5999  0.1658  0.6006
31413SOL    HW1 4169   7.223  10.497   1.378  1.5011  1.1219 -1.5764
31413SOL    HW2 4170   7.157  10.632   1.399  0.8553  0.9253 -2.2748
31414SOL     OW 4171   1.874   2.937   4.620 -0.2326 -0.2559  0.0792
31414SOL    HW1 4172   1.911   2.849   4.626  0.4698  0.1036  2.4430
31414SOL    HW2 4173   1.854   2.960   4.711 -1.1021  1.7406 -0.5646
31415SOL     OW 4174   6.426   7.173   4.322 -0.4012  0.1408 -0.3102
31415SOL    HW1 4175   6.359   7.164   4.254 -0.8380  3.2277 -0.4374
31415SOL    HW2 4176   6.436   7.085   4.358 -1.3367 -1.2770 -3.2447
31416SOL     OW 4177   7.367   7.715   0.707  0.8480 -0.4723  0.0173
31416SOL    HW1 4178   7.408   7.745   0.789 -1.5522  0.3627  0.9870
31416SOL    HW2 4179   7.328   7.794   0.670  0.2042 -1.2162 -0.9163
31417SOL     OW 4180  11.585  12.617  10.394 -0.5092 -0.2046 -0.0406
31417SOL    HW1 4181  11.602  12.533  10.437 -0.3433 -0.7241 -1.0882
31417SOL    HW2 4182  11.490  12.621  10.385 -0.4458 -1.5178 -2.2732
31418SOL     OW 4183   9.927   6.162   0.070 -0.4461  0.2557 -0.0732
31418SOL    HW1 4184   9.892   6.248   0.089 -0.7183 -0.2107  1.7068
31418SOL    HW2 4185   9.994   6.148   0.137 -0.7220 -1.0852 -0.0486
31419SOL     OW 4186  10.604   9.713  11.060 -0.5802  0.2324 -0.3840
31419SOL    HW1 4187  10.670   9.654  11.095  2.3244  2.3251 -1.9753
31419SOL    HW2 4188  10.596   9.689  10.968 -1.2976  0.6854 -0.4462
31420SOL     OW 4189   0.917   9.991  11.685 -0.6159 -0.1808  0.1036
31420SOL    HW1 4190   0.860   9.985  11.608 -0.2619  0.0395 -0.1770
31420SOL    HW2 4191   0.999  10.026  11.651  0.4121 -2.4025  0.1281
31421SOL     OW 4192   3.645  11.142   3.949 -0.2677  0.0765 -0.2601
31421SOL    HW1 4193   3.592  11.069   3.980 -1.5119  1.9121  2.2640
31421SOL    HW2 4194   3.733  11.107   3.940 -0.6982 -1.5970  1.5128
31422SOL     OW 4195  12.038   2.150   3.265  0.4626 -0.1513 -0.3486
31422SOL    HW1 4196  11.978   2.127   3.193 -0.1662  0.6757 -0.1067
31422SOL    HW2 4197  12.028   2.245   3.274  0.8926 -0.1845  0.5162
31423SOL     OW 4198   8.665   3.058   9.108 -0.1232  0.1618 -0.2434
31423SOL    HW1 4199   8.748   3.076   9.064  0.1552 -0.4316  0.0150
31423SOL    HW2 4200   8.691   3.018   9.191 -0.6803 -1.3529 -0.7662
31424SOL     OW 4201   5.469  10.795   0.511  0.2245 -0.1948  0.1874
31424SOL    HW1 4202   5.459  10.890   0.500  2.0602  0.0281  0.2136
31424SOL    HW2 4203   5.495  10.784   0.603  1.4999 -0.5723 -0.2007
31425SOL     OW 4204  11.873   9.055  10.963  0.0165  0.3319  0.2191
31425SOL    HW1 4205  11.902   8.968  10.990 -0.7185 -0.5752 -1.7254
31425SOL    HW2 4206  11.779   9.055  10.980  0.2488  1.3145  1.5900
31426SOL     OW 4207   0.968   4.469   4.066 -0.0123  0.0183  0.7353
31426SOL    HW1 4208   1.012   4.527   4.128 -2.8638  0.0315  2.9831
31426SOL    HW2 4209   1.011   4.485   3.982  2.0183  2.2866  2.1042
31427SOL     OW 4210  11.419   2.121   5.512 -0.3287  0.4524  0.0284
31427SOL    HW1 4211  11.449   2.031   5.526  0.0247  0.5293 -0.2371
31427SOL    HW2 4212  11.477   2.174   5.567 -1.0896  0.4447  0.8682
31428SOL     OW 4213   3.138   6.009  11.773 -0.0295  0.3195 -0.6821
31428SOL    HW1 4214   3.191   6.023  11.851  0.9929  0.4153 -1.3736
31428SOL    HW2 4215   3.066   5.953  11.803  0.3277  0.3813  0.3323
31429SOL     OW 4216  11.567   4.354   6.063  0.3242  0.8485  0.9597
31429SOL    HW1 4217  11.660   4.369   6.052  0.1641  0.8670 -0.4977
31429SOL    HW2 4218  11.526   4.439   6.050 -0.0128  0.5378 -0.1618
31430SOL     OW 4219   9.803   6.526  11.009 -0.1641  0.3504  0.4304
31430SOL    HW1 4220   9.767   6.602  10.964 -2.5187 -1.0691 -0.2791
31430SOL    HW2 4221   9.843   6.474  10.939  0.4270  0.3643  0.7461
31431SOL     OW 4222   7.046  10.143   6.865  0.2680  0.1421 -0.5650
31431SOL    HW1 4223   7.080  10.110   6.782  1.1865  1.3478 -0.7161
31431SOL    HW2 4224   7.084  10.085   6.931  0.7849  0.0791 -0.9052
31432SOL     OW 4225   0.314   0.352  12.142 -0.3838 -0.6036  0.3420
31432SOL    HW1 4226   0.338   0.260  12.156  1.7593 -0.1730 -0.2560
31432SOL    HW2 4227   0.339   0.396  12.223 -0.0069 -0.2956  0.0597
31433SOL     OW 4228   0.230   8.762   0.868 -0.0538 -0.4299  0.3447
31433SOL    HW1 4229   0.295   8.718   0.813  0.6822 -2.3496  2.5921
31433SOL    HW2 4230   0.262   8.852   0.875 -0.4007  0.0240 -2.5781
31434SOL     OW 4231   2.254   9.975   6.304 -0.2140 -0.3295 -0.4668
31434SOL    HW1 4232   2.326   9.972   6.241 -1.4846 -0.9667 -1.9432
31434SOL    HW2 4233   2.237   9.884   6.326  0.4433 -0.0990  1.1146
31435SOL     OW 4234   7.263   8.638   7.463 -0.1076 -0.0662 -0.0846
31435SOL    HW1 4235   7.337   8.578   7.457 -0.5747 -0.5669 -1.2773
31435SOL    HW2 4236   7.186   8.581   7.456 -0.5772  0.5874 -0.2954
31436SOL     OW 4237   1.630   6.688   9.234  0.2625  0.3293  0.0942
31436SOL    HW1 4238   1.684   6.764   9.254 -0.1250  0.8571 -0.8493
31436SOL    HW2 4239   1.580   6.673   9.314 -0.4187  1.7079 -0.0531
31437SOL     OW 4240   7.181   2.682   9.520  0.4592  0.1198  0.4085
31437SOL    HW1 4241   7.140   2.636   9.594  0.3465  0.2599  0.4334
31437SOL    HW2 4242   7.270   2.648   9.518  0.3759 -0.1074  0.4229
31438SOL     OW 4243   3.878   7.034   9.874 -0.2517  0.4649 -0.1760
31438SOL    HW1 4244   3.816   7.106   9.890 -2.4854 -1.1409 -1.0569
31438SOL    HW2 4245   3.913   7.052   9.787 -0.0150  1.0176  0.0299
31439SOL     OW 4246   1.813  12.716   1.425  0.5612  0.7379  0.0582
31439SOL    HW1 4247   1.867  12.693   1.349 -0.3827 -1.3674 -0.0616
31439SOL    HW2 4248   1.804  12.633   1.473 -0.5283  1.5890  1.3902
31440SOL     OW 4249   5.372  12.022  12.651  0.6492 -0.0142  0.0594
31440SOL    HW1 4250   5.434  12.069  12.595  1.3796 -0.5708  0.3983
31440SOL    HW2 4251   5.354  12.082  12.723 -1.2525  1.2349 -1.3302
31441SOL     OW 4252   9.670   3.153   4.108 -0.8157 -0.3087  0.1413
31441SOL    HW1 4253   9.751   3.204   4.098 -1.6142  1.4537  1.9408
31441SOL    HW2 4254   9.692   3.087   4.174 -0.5472 -0.5042 -0.1433
31442SOL     OW 4255   3.928   9.706   2.913 -0.0277  0.3747  0.6894
31442SOL    HW1 4256   3.977   9.729   2.834 -1.2175  0.6431  0.0049
31442SOL    HW2 4257   3.850   9.661   2.880 -0.7614  0.8874  1.6861
31443SOL     OW 4258  12.088  12.510   4.732 -0.3871 -0.4656 -0.0590
31443SOL    HW1 4259  11.995  12.530   4.746 -0.4108 -0.2914 -0.4437
31443SOL    HW2 4260  12.133  12.551   4.806 -0.6946 -1.2450  0.5671
31444SOL     OW 4261   7.348   2.045   8.869  0.3390  0.5633 -0.5506
31444SOL    HW1 4262   7.360   2.120   8.810  0.9799  0.7528 -0.1856
31444SOL    HW2 4263   7.269   2.002   8.837  2.9083 -1.9345 -4.3553
31445SOL     OW 4264   4.335   4.761   2.465 -0.4016 -0.2900 -0.7417
31445SOL    HW1 4265   4.409   4.743   2.407  0.1759 -0.4004  0.0168
31445SOL    HW2 4266   4.258   4.753   2.409  0.2261  1.3563 -1.9342
31446SOL     OW 4267  11.696  12.674   2.772 -0.3895  0.1161  0.2185
31446SOL    HW1 4268  11.610  12.688   2.732 -0.4799 -0.2389  0.2877
31446SOL    HW2 4269  11.758  12.712   2.709 -0.6635  1.3587  0.6772
31447SOL     OW 4270   0.984   9.315   6.943 -0.3065 -0.1839 -0.4709
31447SOL    HW1 4271   1.032   9.328   6.861  0.1976  0.1345 -0.1309
31447SOL    HW2 4272   0.892   9.308   6.916 -0.1279 -0.2656 -1.0799
31448SOL     OW 4273   5.337  11.271   5.376 -0.3601  0.3464 -0.1258
31448SOL    HW1 4274   5.380  11.214   5.440  0.7675  2.1494  0.8293
31448SOL    HW2 4275   5.283  11.329   5.429 -0.4474  1.0190 -0.9296
31449SOL     OW 4276   3.513  11.432   8.705  0.3485 -0.1685 -0.1067
31449SOL    HW1 4277   3.429  11.474   8.689  0.7666  0.4771 -0.6687
31449SOL    HW2 4278   3.531  11.383   8.624  0.3784 -0.5368  0.1229
31450SOL     OW 4279   7.011   0.855   5.331 -0.1555 -0.5704  0.3414
31450SOL    HW1 4280   6.950   0.782   5.345 -1.4197  0.4621  0.3278
31450SOL    HW2 4281   7.009   0.903   5.414 -0.2813  0.1502 -0.0810
31451SOL     OW 4282   5.267   8.294  10.932  0.3604 -0.2607 -0.7002
31451SOL    HW1 4283   5.321   8.260  10.860  1.3880 -1.6446  0.6491
31451SOL    HW2 4284   5.318   8.367  10.966  1.0436 -1.0823  0.0823
31452SOL     OW 4285   6.709   9.664  13.036 -0.4495 -0.5507  0.2047
31452SOL    HW1 4286   6.627   9.713  13.027  0.9765  2.1122  0.6977
31452SOL    HW2 4287   6.683   9.572  13.031 -3.7563  0.0868  2.4412
31453SOL     OW 4288  10.511   3.583   0.263 -0.4508 -0.0139 -0.2489
31453SOL    HW1 4289  10.455   3.527   0.209  0.1490  0.2571 -1.1714
31453SOL    HW2 4290  10.543   3.525   0.332 -0.0286 -0.7693 -1.0554
31454SOL     OW 4291   5.435   7.051   7.359  0.3810 -0.7130  0.1500
31454SOL    HW1 4292   5.402   7.124   7.307  2.5354  0.3737  0.1723
31454SOL    HW2 4293   5.454   6.982   7.295  0.7451 -0.2829 -0.2126
31455SOL     OW 4294   7.251  11.222  12.146 -0.4350 -0.0776 -0.8404
31455SOL    HW1 4295   7.213  11.144  12.105  1.3550 -1.5005  0.0323
31455SOL    HW2 4296   7.185  11.252  12.208 -1.4227 -0.4950 -1.6747
31456SOL     OW 4297   0.407   5.784   8.227  0.1159  0.3465 -0.3685
31456SOL    HW1 4298   0.416   5.870   8.269 -0.1646 -0.0343  0.5171
31456SOL    HW2 4299   0.329   5.792   8.172  0.3672  0.7990 -0.6588
31457SOL     OW 4300   6.927  12.979   0.992 -0.5309  0.8799  0.3131
31457SOL    HW1 4301   7.019  13.000   0.981 -0.4680  1.2936  1.5095
31457SOL    HW2 4302   6.886  13.006   0.909  0.6619 -0.9287 -0.9222
31458SOL     OW 4303  13.099   6.318   1.439 -0.5662  0.0276 -0.2600
31458SOL    HW1 4304  13.169   6.367   1.483 -0.0164 -1.2576  0.3407
31458SOL    HW2 4305  13.092   6.237   1.489 -0.8148 -0.9241 -1.7961
31459SOL     OW 4306   7.487   3.476  13.222 -0.4767  0.3069  0.0119
31459SOL    HW1 4307   7.428   3.519  13.161  0.1101  1.4176  0.2021
31459SOL    HW2 4308   7.497   3.387  13.187 -0.3718  0.8293 -1.3491
31460SOL     OW 4309   7.250   5.779   1.057 -0.2769  0.0179 -0.2950
31460SOL    HW1 4310   7.192   5.712   1.021  0.7235 -0.7076 -0.5869
31460SOL    HW2 4311   7.190   5.843   1.096 -1.3032 -0.2592 -1.3463
31461SOL     OW 4312   1.476   3.344  10.712  1.1118  0.1608 -0.0805
31461SOL    HW1 4313   1.521   3.380  10.789  1.5703 -0.0109 -0.2666
31461SOL    HW2 4314   1.524   3.264  10.691  1.7686  0.8594 -1.3029
31462SOL     OW 4315   4.185  12.788  10.330 -0.0634  0.1260 -0.0361
31462SOL    HW1 4316   4.241  12.852  10.286  2.3857 -1.5428  0.4459
31462SOL    HW2 4317   4.159  12.727  10.261  1.6752 -1.0427  0.2624
31463SOL     OW 4318   3.356   6.899   9.694 -0.0739 -0.4502  0.0331
31463SOL    HW1 4319   3.444   6.864   9.680 -0.1210 -0.3860 -0.4169
31463SOL    HW2 4320   3.298   6.824   9.685 -0.0976 -0.4228 -0.0408
31464SOL     OW 4321  11.610   8.466   4.758 -0.4999  0.3242 -0.4999
31464SOL    HW1 4322  11.668   8.537   4.785 -1.2730  0.4672  0.8933
31464SOL    HW2 4323  11.546   8.459   4.829  0.6532 -3.0089  0.4059
31465SOL     OW 4324  12.970   7.825   8.741  1.4927  0.3662 -0.1513
31465SOL    HW1 4325  12.921   7.743   8.748  2.6789 -0.3227  0.5167
31465SOL    HW2 4326  12.950   7.858   8.653 -1.3770  0.9569  0.6342
31466SOL     OW 4327   1.176   6.006  11.548  0.5274  0.4101 -0.5671
31466SOL    HW1 4328   1.190   5.963  11.632  1.3688  1.0897 -0.3509
31466SOL    HW2 4329   1.254   6.059  11.534 -0.2117  1.3995 -1.1180
31467SOL     OW 4330   8.650   7.755   7.672  0.3233  0.0519  0.1819
31467SOL    HW1 4331   8.660   7.799   7.757  3.2459  0.7659 -0.4296
31467SOL    HW2 4332   8.579   7.802   7.629  1.2788  2.1646  0.7958
31468SOL     OW 4333  10.307   0.412  10.893  0.5288 -0.3491  0.3454
31468SOL    HW1 4334  10.272   0.400  10.981  0.9138 -0.1257  0.5352
31468SOL    HW2 4335  10.245   0.470  10.850  0.0582 -0.8844  0.2914
31469SOL     OW 4336   2.784   6.006  12.726 -0.0417  0.1980  0.3607
31469SOL    HW1 4337   2.849   5.965  12.668  0.4500 -0.0324  1.0576
31469SOL    HW2 4338   2.705   6.014  12.672  0.8492  1.4361 -0.8411
31470SOL     OW 4339   2.408   6.601   9.511 -0.1935  0.4897 -0.3046
31470SOL    HW1 4340   2.438   6.511   9.499 -1.9093 -0.1145 -0.3444
31470SOL    HW2 4341   2.472   6.640   9.570  1.4823 -0.2492 -1.5603
31471SOL     OW 4342   9.784  12.179  13.167 -0.0430  0.7760 -0.0512
31471SOL    HW1 4343   9.689  12.188  13.171 -0.0039  1.2514 -0.0959
31471SOL    HW2 4344   9.800  12.117  13.096 -0.2913  1.3147 -0.5865
31472SOL     OW 4345   5.883   2.843   4.468  0.6571  0.1550 -0.6403
31472SOL    HW1 4346   5.923   2.774   4.414  1.2348 -0.2819  0.3250
31472SOL    HW2 4347   5.790   2.818   4.473  0.7872 -0.3386 -0.6167
31473SOL     OW 4348   4.303   4.321   3.492 -0.3422  0.1014 -0.0265
31473SOL    HW1 4349   4.340   4.233   3.494  0.8169  0.5269 -1.0167
31473SOL    HW2 4350   4.230   4.315   3.430 -0.2262 -0.1513 -0.1390
31474SOL     OW 4351   1.896   3.200   3.222 -0.6977  0.3389  0.1032
31474SOL    HW1 4352   1.927   3.231   3.307  0.7117  0.4788 -0.4367
31474SOL    HW2 4353   1.898   3.104   3.229 -0.3906  0.3495  0.1607
31475SOL     OW 4354  12.292   7.157   1.011  0.5523 -0.4217 -0.4114
31475SOL    HW1 4355  12.239   7.094   0.962 -1.0519 -1.1245  2.0490
31475SOL    HW2 4356  12.246   7.240   1.002 -0.8312 -0.9469  1.3859
31476SOL     OW 4357   8.272  13.279  11.320  0.3928 -0.3613 -0.5524
31476SOL    HW1 4358   8.250  13.372  11.309  0.0474 -0.3306  0.3724
31476SOL    HW2 4359   8.361  13.280  11.356  0.7923 -0.4252 -1.4957
31477SOL     OW 4360   6.297   5.203  10.943 -0.0487 -0.4632  0.2201
31477SOL    HW1 4361   6.223   5.195  10.883 -0.4409  2.2347  0.2201
31477SOL    HW2 4362   6.264   5.253  11.017  1.3518 -0.6024  0.9835
31478SOL     OW 4363  12.343   0.596   7.321  0.5580 -0.3256 -0.2674
31478SOL    HW1 4364  12.435   0.590   7.295  0.2955 -0.6632 -1.1539
31478SOL    HW2 4365  12.346   0.601   7.417  1.4809 -0.7345 -0.2561
31479SOL     OW 4366  11.720  10.101   1.499  0.3461 -0.0622  0.4182
31479SOL    HW1 4367  11.796  10.095   1.558 -0.8925  1.4753  2.2963
31479SOL    HW2 4368  11.651  10.138   1.553 -2.1844 -2.5598 -0.8638
31480SOL     OW 4369   5.684   5.068   7.375 -0.6884  0.2431 -0.3185
31480SOL    HW1 4370   5.641   5.015   7.308 -3.0026  0.7743  0.6621
31480SOL    HW2 4371   5.617   5.082   7.442  0.7996  1.7917  0.9441
31481SOL     OW 4372   6.704   7.432  10.911  0.1952  0.0052 -0.5580
31481SOL    HW1 4373   6.676   7.498  10.849  0.1969 -0.5787 -1.1920
31481SOL    HW2 4374   6.629   7.373  10.920  0.4608 -0.3445 -0.5941
31482SOL     OW 4375  11.129   9.209   3.507 -0.7303  0.0489  0.1961
31482SOL    HW1 4376  11.158   9.133   3.458 -0.0960  0.6788 -0.4338
31482SOL    HW2 4377  11.037   9.192   3.527 -0.4670 -1.0853  0.4893
31483SOL     OW 4378   0.487   0.874   8.855  0.0614 -0.4421  0.1590
31483SOL    HW1 4379   0.506   0.946   8.795 -0.2369 -0.8265 -0.4036
31483SOL    HW2 4380   0.467   0.917   8.939  0.3063  0.1040 -0.0587
31484SOL     OW 4381  10.800   8.053   2.520 -0.2597 -0.1506  0.1460
31484SOL    HW1 4382  10.751   7.972   2.528  1.0471 -0.8897  1.1112
31484SOL    HW2 4383  10.782   8.100   2.602  1.2048 -0.7831  0.8609
31485SOL     OW 4384   0.103  11.552  11.321  0.0308 -0.0280 -0.7592
31485SOL    HW1 4385   0.156  11.630  11.304  0.4009  0.0837  0.7170
31485SOL    HW2 4386   0.015  11.576  11.292 -1.0905  2.8719  3.7926
31486SOL     OW 4387   5.128   0.209  11.322  0.1666  0.1578  0.0069
31486SOL    HW1 4388   5.196   0.147  11.349  1.0874  1.3555  0.5537
31486SOL    HW2 4389   5.049   0.156  11.310 -0.1385 -0.6906  4.2353
31487SOL     OW 4390   3.614   6.040  10.520 -0.0761 -0.0606 -0.0807
31487SOL    HW1 4391   3.698   6.033  10.475  1.5838  0.5425  2.7058
31487SOL    HW2 4392   3.604   6.133  10.540 -0.4157 -0.3735  1.3268
31488SOL     OW 4393   5.493  12.581   5.708 -0.2684 -0.7971 -0.4705
31488SOL    HW1 4394   5.437  12.605   5.782  0.8342 -0.2896  0.2212
31488SOL    HW2 4395   5.514  12.665   5.667  0.5356 -0.9254 -0.3203
31489SOL     OW 4396   0.200   0.578   8.963  0.3647 -0.0391  0.2537
31489SOL    HW1 4397   0.241   0.567   8.877 -0.1169  0.0956  0.0059
31489SOL    HW2 4398   0.255   0.643   9.007  0.4755  0.0709 -0.0410
31490SOL     OW 4399   4.784   3.931  10.611  0.2720  0.3696 -0.3657
31490SOL    HW1 4400   4.775   3.836  10.619  0.9924  0.4434  1.9052
31490SOL    HW2 4401   4.783   3.947  10.516 -2.1632 -1.6454 -0.8000
31491SOL     OW 4402   0.284   3.028  11.482  0.0233 -0.3270 -0.0946
31491SOL    HW1 4403   0.358   2.975  11.454 -0.4226 -0.0887 -1.8135
31491SOL    HW2 4404   0.209   2.995  11.432 -0.5635  0.8999 -0.0792
31492SOL     OW 4405   0.482   8.346   6.333  0.1552 -0.2300  0.0922
31492SOL    HW1 4406   0.388   8.364   6.339 -0.1532 -1.2239 -1.3409
31492SOL    HW2 4407   0.518   8.422   6.287 -0.2438 -0.6546 -0.9378
31493SOL     OW 4408   2.327   8.541  11.470 -0.4809  0.8192 -0.3668
31493SOL    HW1 4409   2.292   8.596  11.401  0.7672  4.3892  1.5866
31493SOL    HW2 4410   2.277   8.565  11.548 -2.0341 -3.2520  0.1387
31494SOL     OW 4411  11.159   8.941  10.919  0.8013 -0.2600  0.2862
31494SOL    HW1 4412  11.110   8.877  10.866  0.2160  0.6289 -0.2769
31494SOL    HW2 4413  11.093   8.981  10.976  1.0448  0.2710  0.2042
31495SOL     OW 4414  10.418  11.971   3.351 -0.1401  0.1311  0.3959
31495SOL    HW1 4415  10.452  11.894   3.306  3.1596  0.9823  1.1390
31495SOL    HW2 4416  10.395  12.032   3.280  2.1302  0.3223 -0.2543
31496SOL     OW 4417  11.956   6.459   2.619 -0.0599  0.6588 -0.0443
31496SOL    HW1 4418  11.995   6.481   2.704  0.3120  0.8588 -0.2627
31496SOL    HW2 4419  11.868   6.495   2.623 -0.5849 -0.6129  0.8242
31497SOL     OW 4420   5.587   7.522   9.678  0.1074 -0.4602 -0.1865
31497SOL    HW1 4421   5.631   7.512   9.594  1.0483 -1.5815  0.4135
31497SOL    HW2 4422   5.611   7.444   9.728 -1.4079 -0.4083  0.7036
31498SOL     OW 4423  10.730   6.088   2.381 -0.4686  0.3608  0.1457
31498SOL    HW1 4424  10.684   6.004   2.380  0.0859  0.0471  0.3639
31498SOL    HW2 4425  10.796   6.080   2.312  0.6995 -0.0354  1.2634
31499SOL     OW 4426   6.470   4.242   9.941  0.1055 -0.1847 -0.1822
31499SOL    HW1 4427   6.449   4.154   9.974 -0.7143  0.6001  1.5368
31499SOL    HW2 4428   6.391   4.293   9.958  0.9180  1.1329 -0.2141
31500SOL     OW 4429   1.757   3.184   1.256  0.0512 -0.0418 -0.0905
31500SOL    HW1 4430   1.709   3.240   1.195 -0.5812  0.8275  1.1555
31500SOL    HW2 4431   1.732   3.095   1.232 -3.0576  0.3881  1.1282
31501SOL     OW 4432   5.988   9.290   4.999 -0.0802  0.3752  0.6370
31501SOL    HW1 4433   5.950   9.371   5.033 -0.3131  0.4163  0.2832
31501SOL    HW2 4434   5.915   9.247   4.954  0.3142  0.4969 -0.1248
31502SOL     OW 4435  11.274   3.093   8.231  0.2098 -0.7935 -0.0062
31502SOL    HW1 4436  11.303   3.117   8.319  0.2722  1.3742 -0.5626
31502SOL    HW2 4437  11.181   3.116   8.229  0.4864  0.3308 -0.8570
31503SOL     OW 4438   4.019   6.365   2.580 -0.0416 -0.0514 -0.3020
31503SOL    HW1 4439   4.097   6.399   2.623 -1.1116  1.0764  0.8235
31503SOL    HW2 4440   3.983   6.302   2.643  0.1314 -0.8557 -0.9784
31504SOL     OW 4441   3.260   3.845   8.339  0.2083 -0.1456 -0.8395
31504SOL    HW1 4442   3.177   3.883   8.368  1.2688  1.0782  0.7442
31504SOL    HW2 4443   3.237   3.757   8.309 -1.5467 -0.1154  0.2809
31505SOL     OW 4444   1.421   2.900   9.288  0.0567  0.3506 -0.1387
31505SOL    HW1 4445   1.424   2.957   9.212  1.1738 -0.9096 -1.0886
31505SOL    HW2 4446   1.364   2.827   9.262 -1.5898  1.0982  1.1553
31506SOL     OW 4447   5.707   8.833  11.619  0.1852 -0.2582  0.4399
31506SOL    HW1 4448   5.754   8.887  11.683  1.2561 -1.6067  0.8425
31506SOL    HW2 4449   5.765   8.758  11.605 -0.9492 -0.9588 -0.6170
31507SOL     OW 4450   2.459   6.955   2.280 -0.0007  0.4794  1.0612
31507SOL    HW1 4451   2.529   6.936   2.342  1.6030  0.0818 -0.7797
31507SOL    HW2 4452   2.408   6.874   2.277  0.5751  0.1054  1.0595
31508SOL     OW 4453   9.466   2.748  10.896  0.3436 -0.0558 -0.0482
31508SOL    HW1 4454   9.437   2.661  10.868  0.6081  0.2045 -1.1664
31508SOL    HW2 4455   9.496   2.735  10.986  1.4351 -1.3705 -0.5731
31509SOL     OW 4456   5.167   2.810  12.456  0.3061 -0.3944 -0.0796
31509SOL    HW1 4457   5.225   2.856  12.517 -1.1609 -0.1602  1.2087
31509SOL    HW2 4458   5.085   2.801  12.504 -0.5095 -1.3413 -1.5868
31510SOL     OW 4459   2.199   1.978   1.400  0.3697 -0.0685 -0.0748
31510SOL    HW1 4460   2.112   1.942   1.417  0.4449  0.3123  1.2317
31510SOL    HW2 4461   2.256   1.933   1.463  0.8202  0.8353  0.1825
31511SOL     OW 4462   2.844   5.622   6.350 -0.3864 -0.6033  0.4069
31511SOL    HW1 4463   2.931   5.636   6.388 -0.8784 -0.8368  1.6895
31511SOL    HW2 4464   2.854   5.545   6.295  0.6680  0.5256 -1.0744
31512SOL     OW 4465   8.640   9.730   4.649  0.0648  0.3337  0.3420
31512SOL    HW1 4466   8.566   9.742   4.589  0.7827 -0.5164 -0.7529
31512SOL    HW2 4467   8.693   9.809   4.637 -0.0881  0.4256  0.2687
31513SOL     OW 4468   0.282  10.892   1.191  0.2319 -0.0464  0.9170
31513SOL    HW1 4469   0.296  10.799   1.210 -2.6396 -0.7176  0.3205
31513SOL    HW2 4470   0.319  10.904   1.103 -0.4906 -1.0069  0.4560
31514SOL     OW 4471   1.117   0.025   6.892 -0.0450  0.4462  0.0104
31514SOL    HW1 4472   1.094  -0.051   6.839  0.7751  0.1861  0.0074
31514SOL    HW2 4473   1.048   0.032   6.958  0.0623 -0.5020  0.2251
31515SOL     OW 4474   7.597   6.909   9.831  0.3076 -0.1399  0.5857
31515SOL    HW1 4475   7.561   6.847   9.768  0.1548 -0.9222  1.4178
31515SOL    HW2 4476   7.690   6.886   9.837  0.3337 -0.0305  0.5941
31516SOL     OW 4477   9.639   8.567   2.619 -0.0183 -0.2004 -0.0522
31516SOL    HW1 4478   9.584   8.608   2.686  0.0578  0.7647 -0.5622
31516SOL    HW2 4479   9.585   8.569   2.540  0.8888  1.1723 -0.6695
31517SOL     OW 4480  10.182  10.789   7.804  0.0835  0.1152 -0.3104
31517SOL    HW1 4481  10.116  10.817   7.867  0.1512 -1.1180  0.3376
31517SOL    HW2 4482  10.266  10.810   7.845  0.1231 -0.4998 -0.0553
31518SOL     OW 4483   7.303  10.735  12.359 -0.4658  0.2684 -1.0092
31518SOL    HW1 4484   7.380  10.752  12.413 -1.2655 -1.0494  0.6240
31518SOL    HW2 4485   7.308  10.642  12.337 -1.5164  0.1941 -0.9968
31519SOL     OW 4486   0.303   5.574   1.453  0.4638 -0.4186 -0.4840
31519SOL    HW1 4487   0.394   5.560   1.426  1.2409 -0.2931  1.8623
31519SOL    HW2 4488   0.287   5.667   1.440  1.5286  0.0587  1.3934
31520SOL     OW 4489   6.080   5.167   2.913  0.3175 -0.2698 -0.3957
31520SOL    HW1 4490   6.128   5.160   2.995  0.3834  0.2714 -0.3871
31520SOL    HW2 4491   6.146   5.151   2.845  0.7058  1.3112 -0.4177
31521SOL     OW 4492  10.270   7.072   6.666  0.7472 -0.2305  0.2414
31521SOL    HW1 4493  10.299   7.087   6.576  0.1218  1.7379  0.3363
31521SOL    HW2 4494  10.342   7.105   6.720  0.5127 -0.0765  0.4620
31522SOL     OW 4495   2.936   4.520   0.913 -0.1350 -0.1911 -0.2065
31522SOL    HW1 4496   2.880   4.508   0.990  1.6381 -0.9016  1.0459
31522SOL    HW2 4497   2.986   4.600   0.932  0.1540 -0.2491 -0.7110
31523SOL     OW 4498   5.709   3.287  10.069  0.0214 -0.1011 -0.6539
31523SOL    HW1 4499   5.614   3.284  10.078 -0.1694  1.6949 -1.6017
31523SOL    HW2 4500   5.726   3.367  10.020  2.1361  0.4324  0.8148
31524SOL     OW 4501   5.823   9.153   2.172 -0.7175 -0.5424 -0.3099
31524SOL    HW1 4502   5.782   9.101   2.102 -3.1088 -0.0175  0.5852
31524SOL    HW2 4503   5.820   9.243   2.139  0.9628 -0.6276 -0.7552
31525SOL     OW 4504   5.565   0.038   7.082 -0.0137 -0.0209 -0.4898
31525SOL    HW1 4505   5.622   0.030   7.158 -1.3953 -2.9489  0.3666
31525SOL    HW2 4506   5.496   0.098   7.110  1.0051  1.2369 -0.5411
31526SOL     OW 4507   3.567   1.526  11.569  0.2718 -0.0356  0.0933
31526SOL    HW1 4508   3.598   1.472  11.642 -0.0267 -1.5225 -0.8220
31526SOL    HW2 4509   3.604   1.484  11.491 -0.9238  0.3867 -0.7341
31527SOL     OW 4510   9.422  12.038   5.701 -0.2331 -0.0736 -0.0190
31527SOL    HW1 4511   9.462  12.124   5.715  0.7689 -0.7214  1.3944
31527SOL    HW2 4512   9.345  12.037   5.758  1.3185 -1.0673  2.2040
31528SOL     OW 4513  11.102  12.732  10.831  0.0105  0.2096  0.7471
31528SOL    HW1 4514  11.187  12.739  10.788  0.5214 -0.6060  1.5915
31528SOL    HW2 4515  11.109  12.790  10.907  0.3682 -0.9838  1.6552
31529SOL     OW 4516   1.500   4.519   6.231 -0.1687  0.1066 -0.2673
31529SOL    HW1 4517   1.483   4.566   6.313  0.2655  0.6786 -0.5055
31529SOL    HW2 4518   1.539   4.436   6.259  0.2382  0.4180  0.0945
31530SOL     OW 4519   8.529  12.296   0.151  0.2237  0.7381 -0.7166
31530SOL    HW1 4520   8.437  12.275   0.167  0.4550  1.7082  2.7051
31530SOL    HW2 4521   8.535  12.391   0.166  1.8185  0.6256 -0.4692
31531SOL     OW 4522   0.540   0.050  10.381  0.2137 -0.1634 -0.1151
31531SOL    HW1 4523   0.472   0.037  10.314 -1.7870  0.9285  1.5829
31531SOL    HW2 4524   0.552  -0.037  10.419  1.7768 -0.9195 -2.1579
31532SOL     OW 4525   8.914  12.703   8.833 -0.4540  0.0928 -0.4725
31532SOL    HW1 4526   8.898  12.723   8.925  0.3654 -1.0190 -0.0591
31532SOL    HW2 4527   8.837  12.735   8.787 -0.6059  1.2054  0.5204
31533SOL     OW 4528   7.254   0.067   8.657  0.0582 -0.3978  1.0010
31533SOL    HW1 4529   7.217   0.011   8.726 -1.1869 -0.2933  0.4510
31533SOL    HW2 4530   7.180   0.085   8.599  0.8130  0.5016  0.2873
31534SOL     OW 4531   2.486   1.267   1.287 -0.2289  0.3486  0.0013
31534SOL    HW1 4532   2.478   1.308   1.201 -1.1840 -1.1667 -0.6595
31534SOL    HW2 4533   2.404   1.288   1.332 -0.0625  0.4610  0.2591
31535SOL     OW 4534   0.940   9.043  12.754  0.1820 -0.0356 -0.4684
31535SOL    HW1 4535   0.969   9.130  12.781 -3.1214  0.9278  0.4424
31535SOL    HW2 4536   0.909   9.003  12.835 -0.6534 -1.0742 -1.2909
31536SOL     OW 4537   4.025   3.163  12.753 -0.5568  0.1370  0.0163
31536SOL    HW1 4538   4.017   3.234  12.816  1.1791  0.4549 -0.0690
31536SOL    HW2 4539   4.010   3.083  12.805  0.3166  0.4246  0.7358
31537SOL     OW 4540  11.005   2.521  10.322 -0.2828 -0.0794 -0.2433
31537SOL    HW1 4541  10.979   2.510  10.230 -1.0531 -1.5047  0.1055
31537SOL    HW2 4542  10.922   2.524  10.370  0.1108 -2.0507  0.6484
31538SOL     OW 4543   2.262   9.904   9.402 -0.0098  0.1808  0.2548
31538SOL    HW1 4544   2.302   9.966   9.463  2.2857  0.2771 -1.2432
31538SOL    HW2 4545   2.326   9.833   9.395  0.8471  1.1152 -3.5157
31539SOL     OW 4546   7.138   8.243   3.245 -0.2002  0.0376  0.2788
31539SOL    HW1 4547   7.194   8.292   3.305 -0.2548 -0.3962  0.6895
31539SOL    HW2 4548   7.050   8.277   3.260 -0.4678 -1.1388  1.5854
31540SOL     OW 4549   6.294   4.087   2.863 -0.4516 -0.4426 -0.2066
31540SOL    HW1 4550   6.202   4.084   2.837 -0.7849 -0.1152  0.8753
31540SOL    HW2 4551   6.295   4.050   2.951  0.4668 -0.4568 -0.2126
31541SOL     OW 4552   5.688   6.455   8.620  0.6024 -0.4819  0.0366
31541SOL    HW1 4553   5.618   6.516   8.645 -0.5796 -0.6304 -2.5626
31541SOL    HW2 4554   5.706   6.405   8.699 -1.1167  0.6430  1.2065
31542SOL     OW 4555  11.172   8.109   8.114  0.6685 -0.3248  0.5377
31542SOL    HW1 4556  11.106   8.130   8.180  1.6656  0.9379  1.1678
31542SOL    HW2 4557  11.245   8.073   8.164  2.3010  2.6205  0.4688
31543SOL     OW 4558   1.747  12.091  10.427  0.7909 -0.5317 -0.1525
31543SOL    HW1 4559   1.771  12.070  10.336  1.3806  0.2924 -0.2014
31543SOL    HW2 4560   1.810  12.158  10.453  0.3257 -0.4187  0.7146
31544SOL     OW 4561   5.349  13.160   7.057  0.0721 -0.1630 -0.4414
31544SOL    HW1 4562   5.292  13.201   7.122  1.3344 -0.3231  0.7993
31544SOL    HW2 4563   5.427  13.216   7.054  0.9630 -1.3497 -0.1928
31545SOL     OW 4564   0.462   9.810  11.880 -0.2109  0.0361  0.1432
31545SOL    HW1 4565   0.389   9.773  11.928 -0.3832  0.5338  0.2687
31545SOL    HW2 4566   0.422   9.859  11.808  0.0652 -2.8617 -2.1978
31546SOL     OW 4567   9.323  11.777   1.921 -0.3812 -0.7711 -0.1398
31546SOL    HW1 4568   9.305  11.725   1.843 -0.0469 -1.5236  0.2728
31546SOL    HW2 4569   9.394  11.836   1.895  0.9064 -2.1757  0.0584
31547SOL     OW 4570   5.391   9.116  13.044  0.0904  0.8334  0.7273
31547SOL    HW1 4571   5.373   9.155  12.959 -0.9782  0.7329  0.8927
31547SOL    HW2 4572   5.363   9.183  13.107  1.8305  1.3351  1.0240
31548SOL     OW 4573  11.528   1.520  11.764  0.3066 -0.1538  0.4631
31548SOL    HW1 4574  11.487   1.520  11.850 -0.0322 -1.2025  0.3086
31548SOL    HW2 4575  11.458   1.548  11.705 -0.0614 -1.4037  0.2744
31549SOL     OW 4576   4.148   5.315   0.328  0.4927  0.0700  0.4198
31549SOL    HW1 4577   4.161   5.290   0.420  0.9677  1.0308  0.6294
31549SOL    HW2 4578   4.230   5.292   0.285  0.8933  1.1160  0.5921
31550SOL     OW 4579   0.532  10.710   1.445 -0.3508  0.4320  0.2101
31550SOL    HW1 4580   0.595  10.638   1.456 -1.8064 -0.8968  0.2552
31550SOL    HW2 4581   0.508  10.734   1.535  1.2152  2.0454  0.2575
31551SOL     OW 4582   2.225   6.257   3.423 -0.8138  0.1365 -0.0645
31551SOL    HW1 4583   2.310   6.214   3.408 -0.9515  0.3870 -1.7095
31551SOL    HW2 4584   2.203   6.296   3.339 -2.8562 -0.4141  0.1668
31552SOL     OW 4585   6.751   3.931   9.598 -0.5347 -0.1540  0.3100
31552SOL    HW1 4586   6.823   3.967   9.650 -0.0728 -0.0147 -0.4143
31552SOL    HW2 4587   6.675   3.938   9.655 -0.1060  0.3302  0.8376
31553SOL     OW 4588   0.329  13.303   6.340  0.4518  0.2374 -0.4289
31553SOL    HW1 4589   0.346  13.211   6.358  0.3095  0.0426 -1.2484
31553SOL    HW2 4590   0.314  13.342   6.426  0.6070 -0.4805 -0.0677
31554SOL     OW 4591   3.321   6.464   1.355  0.3979  0.4075 -0.2498
31554SOL    HW1 4592   3.298   6.551   1.390 -0.7580 -0.1099  0.3323
31554SOL    HW2 4593   3.380   6.483   1.283 -0.6133  1.7538 -0.7800
31555SOL     OW 4594   8.195   7.907  10.033 -0.2840  0.0032 -0.2736
31555SOL    HW1 4595   8.203   7.900  10.128 -0.6897 -0.8147 -0.2927
31555SOL    HW2 4596   8.103   7.927  10.018  0.0822  1.7651 -0.4355
31556SOL     OW 4597  10.150  12.326   5.951 -0.0120 -0.2410  0.1316
31556SOL    HW1 4598  10.078  12.264   5.955  0.1945 -0.5097 -0.2404
31556SOL    HW2 4599  10.225  12.274   5.923  0.0006  0.3123 -0.9242
31557SOL     OW 4600   8.497  10.424   4.411 -0.1996  0.7001  0.1187
31557SOL    HW1 4601   8.518  10.354   4.473 -0.7437  1.1288  0.8132
31557SOL    HW2 4602   8.539  10.502   4.447  0.6637  0.6879 -0.8129
31558SOL     OW 4603   9.543   6.093   0.263 -0.8520 -0.2189  0.1784
31558SOL    HW1 4604   9.550   6.121   0.172  0.1138 -1.3483 -0.1302
31558SOL    HW2 4605   9.499   6.165   0.308 -0.9674  0.5290 -1.0935
31559SOL     OW 4606  10.577   6.735  12.918 -0.9066  0.1129 -0.2826
31559SOL    HW1 4607  10.489   6.703  12.900  0.2495 -2.5904 -1.6860
31559SOL    HW2 4608  10.619   6.741  12.832  0.2811  1.3714  0.3453
31560SOL     OW 4609   7.423  13.116   0.260 -0.5113 -0.3169  0.0516
31560SOL    HW1 4610   7.445  13.115   0.167 -1.7666 -2.3705 -0.2936
31560SOL    HW2 4611   7.329  13.098   0.263 -0.0466 -3.3107  1.7298
31561SOL     OW 4612   4.108   7.273  10.041 -0.2755  0.1753 -0.0798
31561SOL    HW1 4613   4.132   7.342   9.979  2.4880  0.2338  0.9294
31561SOL    HW2 4614   4.152   7.194  10.009 -0.6617 -0.3243  0.5763
31562SOL     OW 4615   7.733   7.956   6.169  0.0103  0.2493  0.3430
31562SOL    HW1 4616   7.698   7.994   6.249 -2.2159  0.7773 -0.7695
31562SOL    HW2 4617   7.761   7.868   6.194 -2.3590 -0.2921  1.3807
31563SOL     OW 4618   9.303   2.472   2.483 -0.2361  0.1663  0.0750
31563SOL    HW1 4619   9.248   2.526   2.539  0.9195  1.3118  0.1469
31563SOL    HW2 4620   9.363   2.534   2.442 -0.4539 -0.7597 -1.7357
31564SOL     OW 4621   8.327  12.780  10.601 -0.5470  0.1468  0.5409
31564SOL    HW1 4622   8.305  12.723  10.527 -1.4354  0.6719  0.3854
31564SOL    HW2 4623   8.261  12.849  10.598 -0.8304 -0.0226  2.0488
31565SOL     OW 4624   8.678   8.233  11.853 -0.1569  0.3307  0.0329
31565SOL    HW1 4625   8.680   8.182  11.934 -1.6428 -0.6484 -0.5063
31565SOL    HW2 4626   8.769   8.233  11.823 -0.0293 -1.7505  0.2476
31566SOL     OW 4627   2.483   0.987   1.156  0.3794 -0.1155 -0.2964
31566SOL    HW1 4628   2.487   1.080   1.178 -0.2998 -0.1355 -0.0732
31566SOL    HW2 4629   2.500   0.942   1.238  2.8939 -0.2189 -0.7995
31567SOL     OW 4630   9.585   4.891   1.158 -0.2233  0.7179 -0.4098
31567SOL    HW1 4631   9.648   4.859   1.094  1.1916  1.1435  0.7059
31567SOL    HW2 4632   9.557   4.976   1.123 -0.7747  0.1906 -1.2843
31568SOL     OW 4633   2.517  12.417   5.592  0.0281  0.2912 -0.7090
31568SOL    HW1 4634   2.578  12.491   5.591  1.0171 -0.4782 -2.4786
31568SOL    HW2 4635   2.563  12.350   5.643  0.1924  0.0941 -1.1102
31569SOL     OW 4636   6.267   0.403  12.855  0.1006  0.0974  0.2246
31569SOL    HW1 4637   6.203   0.333  12.847 -2.2751  2.2346 -0.6078
31569SOL    HW2 4638   6.266   0.426  12.948 -2.2279  1.6887 -0.1266
31570SOL     OW 4639   6.722   0.061   4.746  0.1199  0.3049 -0.3818
31570SOL    HW1 4640   6.767   0.039   4.664 -1.4609 -0.5971 -1.0480
31570SOL    HW2 4641   6.756  -0.001   4.809 -0.6889 -0.8640 -1.0600
31571SOL     OW 4642   6.175   7.953  10.799 -0.2834  0.0266 -0.1297
31571SOL    HW1 4643   6.219   8.031  10.833 -0.2833  0.4918 -1.1630
31571SOL    HW2 4644   6.139   7.980  10.715 -0.4622 -1.0311 -0.4141
31572SOL     OW 4645   7.103   0.712   2.774 -0.1571 -0.0127 -0.0626
31572SOL    HW1 4646   7.082   0.804   2.791  0.4848 -0.0863  1.3320
31572SOL    HW2 4647   7.082   0.668   2.856  1.0437 -0.8329 -0.1641
31573SOL     OW 4648   2.257   5.725  10.867 -0.5537 -0.4729 -0.0436
31573SOL    HW1 4649   2.231   5.662  10.934 -1.1393  0.7698  0.9554
31573SOL    HW2 4650   2.343   5.756  10.896  0.1237 -1.4161 -0.9954
31574SOL     OW 4651   1.242   0.512  12.053 -0.2836  0.1863 -0.5075
31574SOL    HW1 4652   1.204   0.574  11.991 -0.7417 -0.2423 -0.6590
31574SOL    HW2 4653   1.319   0.477  12.007  0.9092  1.7678  0.1657
31575SOL     OW 4654  10.776   8.474   1.892  0.1315  0.1404  0.8622
31575SOL    HW1 4655  10.863   8.512   1.874  0.4134 -1.8760 -3.1435
31575SOL    HW2 4656  10.715   8.544   1.873  0.8279  0.4200 -0.5054
31576SOL     OW 4657   2.785   4.551   3.133  0.0200 -1.4580 -0.1063
31576SOL    HW1 4658   2.708   4.502   3.162  0.2934 -1.5007  0.5731
31576SOL    HW2 4659   2.787   4.539   3.038  0.3205 -3.1426  0.0834
31577SOL     OW 4660   1.654   9.868  12.051 -0.2388  0.0276  0.0597
31577SOL    HW1 4661   1.595   9.932  12.089 -0.1738  1.0901 -1.5354
31577SOL    HW2 4662   1.598   9.792  12.033 -0.3769 -0.2847  1.6715
31578SOL     OW 4663   4.093   6.149   5.872 -0.0148 -0.2388 -0.1855
31578SOL    HW1 4664   4.122   6.111   5.789  1.0507 -0.9419  0.4748
31578SOL    HW2 4665   4.133   6.236   5.873  0.8801 -0.6415  0.0575
31579SOL     OW 4666  11.857   4.697  10.872  0.1756  0.2794 -0.4861
31579SOL    HW1 4667  11.887   4.753  10.800  0.4592  0.2759 -0.3749
31579SOL    HW2 4668  11.802   4.631  10.830 -0.4316  0.8334 -0.5752
31580SOL     OW 4669   6.309   4.674   3.053 -0.4592 -0.4008 -0.0960
31580SOL    HW1 4670   6.374   4.617   3.095 -0.7709  0.9424  2.3695
31580SOL    HW2 4671   6.245   4.692   3.121 -1.8977  0.6417 -1.6417
31581SOL     OW 4672  12.108  12.282   1.474  0.4034  0.1724  0.0579
31581SOL    HW1 4673  12.046  12.278   1.402  0.1017 -1.2159  0.3792
31581SOL    HW2 4674  12.189  12.314   1.434 -0.3185  1.4347 -0.4721
31582SOL     OW 4675   8.912   4.829  10.370 -0.5676  0.4383 -0.0807
31582SOL    HW1 4676   8.886   4.919  10.388 -3.4750 -0.4599  0.7405
31582SOL    HW2 4677   8.892   4.817  10.277  1.1214  0.9804 -0.5477
31583SOL     OW 4678  12.844   4.644   2.206 -0.1670  0.2991  0.3301
31583SOL    HW1 4679  12.863   4.635   2.299  0.2306  1.3903  0.3775
31583SOL    HW2 4680  12.835   4.555   2.174  3.3694 -0.3232  0.6602
31584SOL     OW 4681  13.313  12.692   4.554 -0.6123 -0.1017 -0.4776
31584SOL    HW1 4682  13.302  12.643   4.472 -0.7206  0.7155 -0.9618
31584SOL    HW2 4683  13.258  12.769   4.543  1.0346  1.1281 -0.5380
31585SOL     OW 4684   4.570   8.490  11.035 -0.4416  0.0264 -0.1082
31585SOL    HW1 4685   4.573   8.571  10.984 -1.2817  0.0708 -0.1022
31585SOL    HW2 4686   4.477   8.469  11.041 -0.1585 -1.7799 -1.4207
31586SOL     OW 4687   3.167   1.709   3.302  0.7795 -0.1635  0.0664
31586SOL    HW1 4688   3.207   1.771   3.363 -0.2413  0.2147  0.3636
31586SOL    HW2 4689   3.184   1.623   3.341 -0.8479  0.1290  1.5109
31587SOL     OW 4690   8.586   0.425   3.685  0.4591 -0.2081 -0.1212
31587SOL    HW1 4691   8.605   0.466   3.601 -2.7089 -0.1046 -0.9023
31587SOL    HW2 4692   8.561   0.498   3.742 -1.7854 -0.6531 -0.4743
31588SOL     OW 4693   6.378  12.185   3.613  0.0278 -0.2760 -0.1177
31588SOL    HW1 4694   6.314  12.252   3.637 -0.3379 -0.8519  0.5431
31588SOL    HW2 4695   6.395  12.138   3.694  3.1771  1.3966  0.3653
31589SOL     OW 4696   6.893  12.691  12.506  0.0166  0.4455  0.0802
31589SOL    HW1 4697   6.876  12.775  12.549 -0.4699  1.4680 -1.9433
31589SOL    HW2 4698   6.843  12.627  12.556  0.9878  1.2010  2.1189
31590SOL     OW 4699  10.137   2.735   2.755  0.1633 -0.2857 -0.0305
31590SOL    HW1 4700  10.071   2.726   2.687 -0.3464  0.1365  0.4086
31590SOL    HW2 4701  10.219   2.749   2.707  0.0662 -1.4697 -0.5958
31591SOL     OW 4702   8.247   8.857   3.330  0.1851  0.2143 -0.3744
31591SOL    HW1 4703   8.213   8.811   3.407 -1.0149  1.4810 -0.0963
31591SOL    HW2 4704   8.295   8.790   3.281 -0.6664 -1.0842  0.4943
31592SOL     OW 4705  12.732   7.241   7.951  0.2511 -0.1757 -0.0135
31592SOL    HW1 4706  12.653   7.203   7.990  0.4126  0.8273  1.3693
31592SOL    HW2 4707  12.724   7.335   7.967  0.1513  0.3548 -2.8250
31593SOL     OW 4708   1.830   4.331   5.236 -0.1120 -0.0169  0.0663
31593SOL    HW1 4709   1.744   4.337   5.193  0.1132 -1.2535 -0.5761
31593SOL    HW2 4710   1.862   4.421   5.236 -1.4889  0.5109  0.5011
31594SOL     OW 4711  11.428   7.592  12.871  0.1419  0.0598 -0.0060
31594SOL    HW1 4712  11.463   7.511  12.909  0.7663 -1.1964 -2.9108
31594SOL    HW2 4713  11.487   7.661  12.902  2.0777 -1.2331 -0.5922
31595SOL     OW 4714   1.381  13.141   6.983  0.2387 -0.5952  0.2828
31595SOL    HW1 4715   1.349  13.051   6.978  1.8709 -1.2960  1.5277
31595SOL    HW2 4716   1.323  13.184   7.046 -1.4362 -0.3000 -1.3542
31596SOL     OW 4717  12.235  12.014  13.160  0.2310  0.0435 -0.0159
31596SOL    HW1 4718  12.274  12.022  13.072 -1.6030  0.4835 -0.8316
31596SOL    HW2 4719  12.300  11.965  13.210  1.4538  0.0163 -1.5430
31597SOL     OW 4720   7.028  12.068  10.265 -0.1505  0.2906 -0.0458
31597SOL    HW1 4721   6.945  12.116  10.273  0.3751  0.9401  2.4906
31597SOL    HW2 4722   7.095  12.136  10.264  0.4663 -0.2620  1.0533
31598SOL     OW 4723   0.831   1.827   9.190 -0.2648  0.0700 -0.4302
31598SOL    HW1 4724   0.916   1.836   9.146  0.9641  0.8953  1.9223
31598SOL    HW2 4725   0.780   1.902   9.159  1.7014  2.5105  1.6819
31599SOL     OW 4726   8.105  11.683   7.257 -0.2752  0.4161  0.3043
31599SOL    HW1 4727   8.181  11.681   7.199 -1.6427  0.5277 -1.5923
31599SOL    HW2 4728   8.043  11.742   7.213 -1.8678 -0.4917  1.2494
31600SOL     OW 4729   4.817   5.787   3.851 -0.1178 -0.2340  0.2940
31600SOL    HW1 4730   4.753   5.850   3.819  1.6982  1.5036 -0.1183
31600SOL    HW2 4731   4.840   5.735   3.774  0.1853  0.2735  0.0336
31601SOL     OW 4732   9.849   3.286  12.694  0.0622  0.0479  0.3091
31601SOL    HW1 4733   9.887   3.294  12.606  0.1436  2.4005  0.5114
31601SOL    HW2 4734   9.881   3.201  12.725  0.2786 -0.7067 -1.7977
31602SOL     OW 4735   1.368  12.574   5.951  0.3458 -0.2415 -0.6587
31602SOL    HW1 4736   1.406  12.644   5.898  0.9731  0.3821  0.5931
31602SOL    HW2 4737   1.349  12.614   6.035  0.7970 -1.5943  0.1198
31603SOL     OW 4738   7.918   4.047   1.067 -0.0831 -0.1267 -0.7905
31603SOL    HW1 4739   7.989   4.025   1.126 -0.4182 -1.3344 -0.8033
31603SOL    HW2 4740   7.842   4.061   1.124  0.0314  0.6505 -0.8132
31604SOL     OW 4741   7.472   5.819   1.637 -0.0867  0.7694  0.1988
31604SOL    HW1 4742   7.528   5.830   1.714 -0.6081 -1.4520  0.9651
31604SOL    HW2 4743   7.385   5.847   1.667 -0.5933 -1.4063  0.9360
31605SOL     OW 4744   3.005   9.998   2.437 -0.1397 -0.3578  0.6941
31605SOL    HW1 4745   3.074   9.964   2.494  0.6409  1.1831  0.7003
31605SOL    HW2 4746   3.023  10.091   2.429 -0.3803 -0.4570 -1.8728
31606SOL     OW 4747   1.406   3.085   1.855 -0.6151  0.2053  0.5531
31606SOL    HW1 4748   1.410   3.135   1.774 -0.4315  0.0924  0.4918
31606SOL    HW2 4749   1.496   3.057   1.870 -0.5256  0.7790  1.1398
31607SOL     OW 4750   1.295   1.962  11.984  0.1414 -0.2814 -0.2654
31607SOL    HW1 4751   1.375   1.918  11.956  0.2338  0.1246 -0.6561
31607SOL    HW2 4752   1.226   1.922  11.930  0.1863 -0.1427 -0.4277
31608SOL     OW 4753   4.767   2.253  11.868  0.3469  0.0816 -0.6775
31608SOL    HW1 4754   4.767   2.344  11.839  3.3734  0.4983  0.2589
31608SOL    HW2 4755   4.727   2.256  11.955 -1.5828  0.0794 -1.5072
31609SOL     OW 4756  13.034   3.970   5.314  0.3418  0.1280  0.3699
31609SOL    HW1 4757  13.091   3.943   5.386  0.3767 -2.8000 -0.6379
31609SOL    HW2 4758  13.092   4.013   5.252  0.5922  1.1860  1.2953
31610SOL     OW 4759   9.795   5.519  13.182  0.8360 -0.1316 -0.2054
31610SOL    HW1 4760   9.765   5.552  13.267  1.1004  0.2256 -0.2472
31610SOL    HW2 4761   9.737   5.561  13.119  0.8819 -0.1017 -0.2277
31611SOL     OW 4762   1.525   5.499  11.809  0.0150 -0.0973  0.6610
31611SOL    HW1 4763   1.500   5.412  11.778  0.5284  0.0644 -0.2384
31611SOL    HW2 4764   1.605   5.484  11.859 -0.4099 -0.2587  1.3059
31612SOL     OW 4765  12.676  12.942   7.149  0.4317 -0.3836  0.2289
31612SOL    HW1 4766  12.765  12.950   7.183  1.3959 -0.9704 -1.9928
31612SOL    HW2 4767  12.687  12.921   7.056 -2.0116  2.1087 -0.7713
31613SOL     OW 4768   1.699   5.377   0.942  0.0270  0.2152 -0.5781
31613SOL    HW1 4769   1.693   5.411   1.031  1.7234  0.7968 -0.6432
31613SOL    HW2 4770   1.610   5.382   0.908 -0.7269 -0.3571  1.1900
31614SOL     OW 4771   4.496  10.963   9.491  0.1896  0.1093  0.0665
31614SOL    HW1 4772   4.500  10.911   9.410  0.0136  0.3889 -0.1237
31614SOL    HW2 4773   4.486  11.053   9.461  3.7229  0.7036  0.2524
31615SOL     OW 4774  10.928   5.330   5.128  0.5545  0.0097 -0.0511
31615SOL    HW1 4775  10.918   5.264   5.060 -0.9546  1.0793 -0.9498
31615SOL    HW2 4776  10.951   5.410   5.080 -1.6956  1.0641  0.4761
31616SOL     OW 4777  12.352  12.642   0.002 -0.0568 -0.0109  0.0597
31616SOL    HW1 4778  12.446  12.632  -0.007  0.1617  1.4312  0.4401
31616SOL    HW2 4779  12.337  12.646   0.097 -0.5867 -0.8980  0.0232
31617SOL     OW 4780   1.698   6.081  12.850  0.2012  0.2291  0.1442
31617SOL    HW1 4781   1.770   6.064  12.911  0.6900  2.8938  0.4402
31617SOL    HW2 4782   1.701   6.008  12.789  2.0937 -0.6164  1.1427
31618SOL     OW 4783  11.038   4.059   8.925 -0.0570  0.2661 -0.3597
31618SOL    HW1 4784  11.073   4.058   8.835  0.8745 -0.6196 -0.0047
31618SOL    HW2 4785  10.948   4.029   8.916 -0.1550  0.7271 -1.0603
31619SOL     OW 4786   5.818   1.939   8.132 -0.2488  0.1242 -0.8710
31619SOL    HW1 4787   5.893   1.908   8.081 -0.2322 -1.7491  0.1793
31619SOL    HW2 4788   5.857   1.981   8.208 -0.2723  0.4692 -1.0484
31620SOL     OW 4789   9.625   1.126   1.575 -0.4319 -0.4781  0.1313
31620SOL    HW1 4790   9.607   1.189   1.505  0.2823  1.1129  1.2954
31620SOL    HW2 4791   9.540   1.087   1.595 -1.3769  1.7914  0.8767
31621SOL     OW 4792   0.222  11.510   2.665  0.1335  0.2937 -0.4107
31621SOL    HW1 4793   0.297  11.454   2.687 -0.6934  0.0044  1.8681
31621SOL    HW2 4794   0.240  11.592   2.711 -1.6870 -0.3495  1.5882
31622SOL     OW 4795   7.153   0.530   4.656  0.5286 -0.4197 -0.2674
31622SOL    HW1 4796   7.171   0.466   4.588  2.2111 -0.8106  0.4980
31622SOL    HW2 4797   7.097   0.483   4.718  1.3891 -1.0441  0.0633
31623SOL     OW 4798  10.354   5.700   7.566 -0.4978  0.4410 -0.5753
31623SOL    HW1 4799  10.388   5.722   7.653 -1.9320  1.5934 -0.2798
31623SOL    HW2 4800  10.428   5.716   7.507  0.1692  0.6778  0.2969
31624SOL     OW 4801   6.978  11.509   9.042  0.4166 -0.0607  0.1027
31624SOL    HW1 4802   7.042  11.553   8.985  1.7823 -1.7441  0.2450
31624SOL    HW2 4803   6.895  11.517   8.995  1.4026 -0.9607 -1.9323
31625SOL     OW 4804   2.427  10.458  12.729  0.7615  0.2069 -0.6790
31625SOL    HW1 4805   2.518  10.449  12.700  0.8747 -0.4389 -0.1329
31625SOL    HW2 4806   2.432  10.475  12.823  0.3240  0.5100 -0.7024
31626SOL     OW 4807   1.769   5.008   1.796 -0.0182  0.0648 -0.1937
31626SOL    HW1 4808   1.699   4.942   1.801  0.5206 -0.7096 -2.1266
31626SOL    HW2 4809   1.769   5.035   1.705  0.3731  2.1371  0.3803
31627SOL     OW 4810  11.219  11.254   7.672 -0.4598 -0.5848 -0.2164
31627SOL    HW1 4811  11.215  11.229   7.580 -2.5120 -1.1439 -0.0383
31627SOL    HW2 4812  11.127  11.263   7.698  0.0805  1.5514  1.2672
31628SOL     OW 4813   4.625  12.691  10.978  0.4329 -0.6303 -0.0741
31628SOL    HW1 4814   4.633  12.783  10.954 -0.0288 -0.7456 -0.6817
31628SOL    HW2 4815   4.535  12.682  11.008  0.5282 -0.8535  0.1555
31629SOL     OW 4816   3.170   0.852   2.521  0.4696 -0.2250 -0.1376
31629SOL    HW1 4817   3.185   0.772   2.471  0.6976 -0.9431  1.0255
31629SOL    HW2 4818   3.109   0.903   2.467 -1.4204 -2.1485  0.0213
31630SOL     OW 4819   4.587   0.921   3.815 -0.4281 -0.6459  0.5488
31630SOL    HW1 4820   4.654   0.883   3.760 -0.8082 -0.3593 -0.1209
31630SOL    HW2 4821   4.557   0.849   3.870 -1.2129 -1.3771 -0.7793
31631SOL     OW 4822   6.550   3.978   0.174 -0.2392 -0.4315 -0.8822
31631SOL    HW1 4823   6.463   3.952   0.141 -0.8770  0.6229 -0.0844
31631SOL    HW2 4824   6.564   4.065   0.137 -1.4358  1.2730  2.3164
31632SOL     OW 4825   2.584   8.895  10.205 -0.3620  0.5850  0.0701
31632SOL    HW1 4826   2.563   8.830  10.138  2.0282  0.1343 -0.3126
31632SOL    HW2 4827   2.565   8.979  10.163 -1.3250  0.2462 -0.2201
31633SOL     OW 4828   0.379   6.543  11.877 -0.2731 -0.2078 -0.0019
31633SOL    HW1 4829   0.471   6.531  11.900  0.0354 -0.2277 -1.1804
31633SOL    HW2 4830   0.337   6.461  11.903 -0.1296  0.1048  1.2821
31634SOL     OW 4831   7.445  10.514   2.538  0.0097 -0.2366  0.5485
31634SOL    HW1 4832   7.406  10.503   2.451 -1.6169  0.4254  1.1589
31634SOL    HW2 4833   7.434  10.428   2.580 -0.6276 -0.1188  0.6356
31635SOL     OW 4834   6.670   6.358   6.046  0.3799 -0.6332  0.1148
31635SOL    HW1 4835   6.670   6.439   5.995  0.3541 -0.7883 -0.1302
31635SOL    HW2 4836   6.671   6.288   5.981  2.1763 -0.8322  0.3126
31636SOL     OW 4837   3.406   5.736   9.655 -0.0190 -0.2536 -0.0708
31636SOL    HW1 4838   3.428   5.749   9.563  1.7459 -0.3197  0.3057
31636SOL    HW2 4839   3.326   5.683   9.654  0.5881 -1.2035 -1.5659
31637SOL     OW 4840   4.676   2.160   3.989 -0.3021 -0.5847 -0.6009
31637SOL    HW1 4841   4.624   2.228   3.947  1.0469  0.4115 -0.6985
31637SOL    HW2 4842   4.740   2.207   4.042  1.5470 -1.6937 -1.7207
31638SOL     OW 4843   3.335   7.853   3.686 -0.2446  0.0671  0.3524
31638SOL    HW1 4844   3.303   7.876   3.773  1.4291  1.2589  0.7169
31638SOL    HW2 4845   3.406   7.791   3.703  1.1324  1.4745  0.0100
31639SOL     OW 4846  13.057   4.397   4.648 -0.3153  0.5212  0.5026
31639SOL    HW1 4847  12.964   4.388   4.668 -0.2475 -2.4768 -0.0613
31639SOL    HW2 4848  13.099   4.329   4.699  0.9477 -1.2994 -2.6935
31640SOL     OW 4849  10.407   4.600  12.077 -0.0333 -0.2750  0.4491
31640SOL    HW1 4850  10.456   4.631  12.153  0.7764  0.3561 -0.3076
31640SOL    HW2 4851  10.470   4.601  12.006 -1.1094  0.4382 -0.5346
31641SOL     OW 4852   4.614   3.068   2.278  0.1222 -0.1765 -0.4551
31641SOL    HW1 4853   4.675   3.142   2.271  0.5798 -0.4785  0.2787
31641SOL    HW2 4854   4.589   3.049   2.188 -1.3917  2.0218 -0.5926
31642SOL     OW 4855   2.862  11.856   1.938  0.0709 -0.4525 -0.2423
31642SOL    HW1 4856   2.863  11.772   1.983  0.5059 -0.5311 -0.3954
31642SOL    HW2 4857   2.785  11.852   1.881 -0.4146 -0.3972  0.3943
31643SOL     OW 4858   5.125   3.080   6.323  0.2587 -0.0500  0.2486
31643SOL    HW1 4859   5.140   3.165   6.281  0.6153 -1.2469 -2.2649
31643SOL    HW2 4860   5.210   3.058   6.363  0.0588  0.9005  1.2339
31644SOL     OW 4861   6.434   9.760   5.615 -0.1940 -0.2819 -0.6648
31644SOL    HW1 4862   6.343   9.781   5.593 -0.3345  0.9573  0.8977
31644SOL    HW2 4863   6.438   9.768   5.711  1.5306 -0.4354 -0.6952
31645SOL     OW 4864   8.791   2.871   2.623  0.9510  0.3971 -0.2648
31645SOL    HW1 4865   8.862   2.916   2.669  0.9224  0.3899 -0.2141
31645SOL    HW2 4866   8.806   2.892   2.530 -0.0807  1.9993 -0.1046
31646SOL     OW 4867   0.110   6.036   5.228  0.0635  0.1431 -0.5747
31646SOL    HW1 4868   0.146   6.015   5.142 -1.7952 -0.0264 -1.3592
31646SOL    HW2 4869   0.019   6.006   5.224 -0.1076  0.2770  1.4042
31647SOL     OW 4870   5.250   9.420   2.662 -0.2294  0.1959  0.1999
31647SOL    HW1 4871   5.218   9.503   2.699  1.5610  1.1232 -0.2378
31647SOL    HW2 4872   5.190   9.354   2.697 -1.7177  1.6625  0.5493
31648SOL     OW 4873   3.323   0.745   8.576 -0.1077  0.0440 -0.7484
31648SOL    HW1 4874   3.280   0.821   8.537 -0.8349 -0.0316 -0.1332
31648SOL    HW2 4875   3.414   0.770   8.584 -0.7516  1.9791  1.9276
31649SOL     OW 4876   0.087  11.986   1.466  0.0830  0.3950 -0.0223
31649SOL    HW1 4877   0.087  12.035   1.384 -1.5641  0.0967 -0.2408
31649SOL    HW2 4878   0.002  12.005   1.506  0.9654  0.7548  1.7736
31650SOL     OW 4879   5.128   4.881   4.615  0.3391  0.4278 -0.1864
31650SOL    HW1 4880   5.157   4.843   4.698 -0.1519  0.6446  0.0881
31650SOL    HW2 4881   5.072   4.814   4.576 -1.4455  1.2773  0.8245
31651SOL     OW 4882  11.487   0.174   3.433  0.1613  0.1656 -0.3284
31651SOL    HW1 4883  11.583   0.174   3.438  0.1814 -2.4897  1.0375
31651SOL    HW2 4884  11.461   0.248   3.487  1.3991  2.0353 -2.1364
31652SOL     OW 4885   7.945   5.375   1.998 -1.1795  0.5383  0.1115
31652SOL    HW1 4886   7.914   5.351   2.085 -0.3060 -2.8738 -0.3426
31652SOL    HW2 4887   8.038   5.353   1.999 -1.6899 -2.5519 -2.3862
31653SOL     OW 4888  10.914   7.506   6.186 -0.3002  0.1317  0.2140
31653SOL    HW1 4889  11.000   7.464   6.183 -0.3845 -0.2491  2.0068
31653SOL    HW2 4890  10.877   7.491   6.099  0.8117 -1.0790 -0.0843
31654SOL     OW 4891  12.832  10.454   9.436 -0.2945 -0.1966  0.2683
31654SOL    HW1 4892  12.775  10.396   9.385 -0.7772  1.0235 -0.6121
31654SOL    HW2 4893  12.812  10.433   9.528 -0.7411 -1.1287 -0.0301
31655SOL     OW 4894  10.932   1.969   1.017 -0.1424 -0.1877 -0.5364
31655SOL    HW1 4895  11.022   1.970   0.985 -0.6024 -0.0228 -1.8898
31655SOL    HW2 4896  10.883   2.018   0.951 -1.1196  0.3002  0.5215
31656SOL     OW 4897  12.536   7.153  11.631  0.6095 -0.2269  0.2170
31656SOL    HW1 4898  12.566   7.224  11.689  1.0584 -0.0798 -0.1882
31656SOL    HW2 4899  12.587   7.077  11.659  0.2419 -0.3583  0.5459
31657SOL     OW 4900  11.108   1.607   3.927 -0.3340 -0.2083 -0.3384
31657SOL    HW1 4901  11.013   1.603   3.918 -0.4330  1.3596 -0.2549
31657SOL    HW2 4902  11.124   1.589   4.020 -0.6782  0.8997 -0.0471
31658SOL     OW 4903   8.955  11.267   3.879 -0.1833 -0.7016 -0.1303
31658SOL    HW1 4904   8.947  11.333   3.810 -2.8695  0.3683  1.0536
31658SOL    HW2 4905   9.040  11.284   3.919  0.2742  0.3630 -1.4890
31659SOL     OW 4906   1.903  11.774   9.173  0.1740 -0.0434 -0.2252
31659SOL    HW1 4907   1.907  11.710   9.102  0.8260  1.3330 -1.4911
31659SOL    HW2 4908   1.952  11.849   9.140  0.3641  0.7065  1.6473
31660SOL     OW 4909  11.814   3.686   3.661 -0.7013  0.1606 -0.3908
31660SOL    HW1 4910  11.774   3.609   3.703 -0.7421 -0.1782 -1.0381
31660SOL    HW2 4911  11.872   3.649   3.594 -0.1276  0.6794 -0.1851
31661SOL     OW 4912   1.049   5.383   9.467  1.0538  0.1626  0.0135
31661SOL    HW1 4913   1.009   5.427   9.543 -1.6845 -1.4810 -0.3261
31661SOL    HW2 4914   1.020   5.435   9.392  2.1197  0.6560 -0.0742
31662SOL     OW 4915   1.924   7.063  13.010  0.4166 -0.2012 -0.0782
31662SOL    HW1 4916   1.941   7.000  12.940 -0.2194 -1.9728  1.2955
31662SOL    HW2 4917   1.979   7.139  12.988 -0.5117 -0.2499 -3.0011
31663SOL     OW 4918  10.781   2.757   4.042 -0.0871 -0.1049 -0.6669
31663SOL    HW1 4919  10.818   2.830   4.091 -1.8163  0.0465  0.4804
31663SOL    HW2 4920  10.850   2.734   3.979  1.5390  0.7769  0.6981
31664SOL     OW 4921   2.529   9.264   0.514 -0.6911  0.3492 -0.6646
31664SOL    HW1 4922   2.522   9.341   0.570 -3.1596 -0.2232 -0.0782
31664SOL    HW2 4923   2.539   9.300   0.426 -1.1506  1.3342 -0.3350
31665SOL     OW 4924   1.938   3.004  12.267  0.5962  0.6027  0.0015
31665SOL    HW1 4925   2.009   3.068  12.273  1.4363 -0.2706 -0.3197
31665SOL    HW2 4926   1.896   3.022  12.183  0.2686  1.2702  0.2947
31666SOL     OW 4927  12.472   9.778   5.714 -0.0964 -0.3844 -0.3355
31666SOL    HW1 4928  12.550   9.759   5.765 -0.0445 -0.5680 -0.4805
31666SOL    HW2 4929  12.441   9.862   5.747  2.2165  1.5746 -2.7618
31667SOL     OW 4930   9.655  13.206   4.149 -0.3356  0.2137  0.3641
31667SOL    HW1 4931   9.720  13.270   4.178 -1.3686  1.6542 -0.3454
31667SOL    HW2 4932   9.698  13.121   4.160  0.9378  0.9881  1.7216
31668SOL     OW 4933   6.823   5.155   8.775 -0.9335 -0.1422  0.3496
31668SOL    HW1 4934   6.759   5.157   8.847 -2.0971  0.2258 -0.6697
31668SOL    HW2 4935   6.771   5.169   8.696  0.4064  0.0439 -0.5264
31669SOL     OW 4936   0.234   7.209   2.088  0.0312 -0.0010 -0.2266
31669SOL    HW1 4937   0.141   7.221   2.111 -0.1084  0.0506 -0.8025
31669SOL    HW2 4938   0.259   7.291   2.046  0.1075 -0.3161 -0.8099
31670SOL     OW 4939   2.886   6.730   1.051 -0.0272 -0.2439  0.3733
31670SOL    HW1 4940   2.922   6.817   1.039  0.0520 -0.5050 -1.6151
31670SOL    HW2 4941   2.791   6.744   1.057 -0.0249 -0.0246 -0.0664
31671SOL     OW 4942   6.343   5.685   4.465 -0.0346 -0.5642  0.6937
31671SOL    HW1 4943   6.378   5.764   4.423 -1.0193 -1.3535 -1.8094
31671SOL    HW2 4944   6.348   5.704   4.558  0.7298  2.0401  0.2250
31672SOL     OW 4945   2.769   7.376   0.153 -0.6849 -0.2776  0.3068
31672SOL    HW1 4946   2.829   7.303   0.149  1.2741  1.0800  2.7263
31672SOL    HW2 4947   2.774   7.416   0.065  1.4522 -0.6018  0.2395
31673SOL     OW 4948   8.784   9.420   6.503 -0.7650  0.1855 -0.1003
31673SOL    HW1 4949   8.789   9.499   6.558  0.5559  0.2652 -0.3154
31673SOL    HW2 4950   8.859   9.427   6.444 -1.6603 -0.3453 -1.3477
31674SOL     OW 4951   6.250   2.526   1.475 -0.3880  0.4439  0.3268
31674SOL    HW1 4952   6.266   2.504   1.566  0.2995 -0.3132  0.0369
31674SOL    HW2 4953   6.313   2.472   1.426 -1.3952  0.1077 -0.6437
31675SOL     OW 4954   7.845   7.481   8.319  0.0565 -0.4948 -0.8648
31675SOL    HW1 4955   7.863   7.526   8.402  2.7032  0.1984 -1.7312
31675SOL    HW2 4956   7.752   7.459   8.324 -0.0070 -0.0067  2.0442
31676SOL     OW 4957   7.687  13.046   5.431  0.2991  0.6346  0.4755
31676SOL    HW1 4958   7.720  13.082   5.514 -2.8099 -2.8709  3.6016
31676SOL    HW2 4959   7.755  12.986   5.402  0.3052 -0.2152  2.1371
31677SOL     OW 4960   1.396   8.337   9.886  0.0770 -0.9046 -0.3724
31677SOL    HW1 4961   1.351   8.362   9.966  0.4452 -1.1815 -0.0738
31677SOL    HW2 4962   1.360   8.395   9.819 -0.6692 -1.0699 -0.1317
31678SOL     OW 4963   9.200   5.424   4.536  0.1564 -0.4141  1.0021
31678SOL    HW1 4964   9.239   5.465   4.460 -1.2360  2.3705  1.6576
31678SOL    HW2 4965   9.275   5.402   4.593  1.0742 -0.8964 -0.3501
31679SOL     OW 4966   1.467   7.551   4.027  0.0012  0.2057  0.0197
31679SOL    HW1 4967   1.548   7.603   4.024 -0.6407  1.2815  0.5856
31679SOL    HW2 4968   1.404   7.605   3.979 -0.3124 -0.7776 -0.6961
31680SOL     OW 4969   0.042   6.448   5.598 -0.0315  0.1331  0.1079
31680SOL    HW1 4970   0.110   6.417   5.659  0.4893 -0.4695 -0.7544
31680SOL    HW2 4971   0.039   6.381   5.530 -1.5465  0.1135  0.1482
31681SOL     OW 4972   8.236   9.581   0.962 -0.2460  0.7540  0.0541
31681SOL    HW1 4973   8.141   9.582   0.973 -0.4043  0.0247 -1.0637
31681SOL    HW2 4974   8.255   9.497   0.920  0.8009  1.2241 -0.4744
31682SOL     OW 4975   1.330   8.544   0.433 -0.1402 -0.3408  0.9656
31682SOL    HW1 4976   1.358   8.498   0.513 -0.6292 -0.6372  0.9708
31682SOL    HW2 4977   1.406   8.597   0.409  0.0711 -0.3690  1.5381
31683SOL     OW 4978   9.712   5.132   0.578  0.3556  0.5472  0.3796
31683SOL    HW1 4979   9.801   5.167   0.576  1.3213 -1.7487  0.1390
31683SOL    HW2 4980   9.672   5.166   0.498  1.6551  0.0966 -0.4986
31684SOL     OW 4981  12.982   2.279   3.768  0.2639  0.0330  0.8832
31684SOL    HW1 4982  13.005   2.371   3.758  0.3060  0.1039  1.5541
31684SOL    HW2 4983  13.053   2.231   3.726  0.6878  0.2913  1.3049
31685SOL     OW 4984   1.232   0.388   9.611 -0.3102  0.4736 -0.2158
31685SOL    HW1 4985   1.214   0.307   9.562  0.6279 -0.0048  0.2115
31685SOL    HW2 4986   1.157   0.398   9.669  0.2498 -0.9448  0.8196
31686SOL     OW 4987   9.716   4.141   7.940 -0.1803 -0.2547 -0.2020
31686SOL    HW1 4988   9.764   4.094   7.871 -0.4832  1.1805 -1.4622
31686SOL    HW2 4989   9.624   4.130   7.917 -0.3239 -0.4789  0.4717
31687SOL     OW 4990   2.493   1.360  12.637  0.9425  0.2538  0.8515
31687SOL    HW1 4991   2.462   1.291  12.696  0.8877  1.2493  2.0051
31687SOL    HW2 4992   2.508   1.314  12.554 -3.7629 -0.3321  0.0397
31688SOL     OW 4993   4.290  12.086   8.696 -0.4265 -0.7553 -0.5060
31688SOL    HW1 4994   4.236  12.053   8.768  0.6213 -2.4377 -0.4377
31688SOL    HW2 4995   4.354  12.143   8.738 -2.6095  2.0168 -0.6878
31689SOL     OW 4996   0.022   7.499  10.873  0.1463  0.2636  0.6060
31689SOL    HW1 4997  -0.011   7.562  10.937 -0.2892 -1.2364  1.9344
31689SOL    HW2 4998  -0.054   7.445  10.852  0.7057 -0.3682  0.1828
31690SOL     OW 4999   8.372   1.436   1.641  0.0173 -0.0503 -0.6825
31690SOL    HW1 5000   8.414   1.375   1.580 -1.1870 -0.2334 -1.3538
31690SOL    HW2 5001   8.287   1.397   1.659  0.7396 -0.5475  2.0045
31691SOL     OW 5002   7.799   2.461  11.444 -0.3670  0.2065  0.6195
31691SOL    HW1 5003   7.787   2.367  11.454  2.1300 -0.2777 -0.2039
31691SOL    HW2 5004   7.779   2.479  11.352  0.8976  0.1228  0.3116
31692SOL     OW 5005  12.394   0.749   3.056 -0.0218  0.1984 -0.3322
31692SOL    HW1 5006  12.378   0.835   3.095  0.1649  0.6477 -1.2182
31692SOL    HW2 5007  12.335   0.745   2.981  0.3341 -0.2363 -0.5963
31693SOL     OW 5008   8.799  10.635   7.842 -0.1216 -0.2342 -0.6968
31693SOL    HW1 5009   8.746  10.568   7.800 -0.6774 -0.0975 -0.2156
31693SOL    HW2 5010   8.805  10.608   7.933 -1.1272  0.8367 -0.2851
31694SOL     OW 5011   3.228   0.016   4.600 -0.5221 -0.3273 -0.1282
31694SOL    HW1 5012   3.281   0.088   4.636 -1.6762  0.7108 -0.4462
31694SOL    HW2 5013   3.291  -0.054   4.584  1.0390  1.3554 -1.8507
31695SOL     OW 5014   8.097  11.038   1.535  0.8210 -0.2172 -0.0777
31695SOL    HW1 5015   8.042  11.066   1.608  0.7582 -1.8796  0.5512
31695SOL    HW2 5016   8.085  11.106   1.469 -0.9492  0.1359  0.5498
31696SOL     OW 5017   0.291   4.445  11.281 -0.3608 -0.3526 -0.4237
31696SOL    HW1 5018   0.285   4.407  11.369  0.6840 -3.6304 -1.6082
31696SOL    HW2 5019   0.369   4.500  11.284 -0.5929 -0.0517  0.7915
31697SOL     OW 5020   6.778   7.786   2.403 -0.1484 -0.5240 -0.2587
31697SOL    HW1 5021   6.759   7.873   2.367  0.0753 -0.3421  0.0583
31697SOL    HW2 5022   6.855   7.757   2.355  0.0345 -0.3643 -0.0601
31698SOL     OW 5023   6.566  10.598  11.379 -0.1982  0.2205  0.0415
31698SOL    HW1 5024   6.527  10.665  11.436 -3.2814  0.8213 -2.4369
31698SOL    HW2 5025   6.496  10.533  11.368  0.7132 -0.4888 -1.9852
31699SOL     OW 5026   8.400  12.614   7.972  0.2979  0.0172  0.4904
31699SOL    HW1 5027   8.370  12.703   7.951  2.5213  0.9786  1.0437
31699SOL    HW2 5028   8.476  12.601   7.914 -0.1106 -1.6268  0.2821
31700SOL     OW 5029   3.224  12.419  12.563  0.0658 -0.3413 -0.0726
31700SOL    HW1 5030   3.229  12.459  12.476 -0.4290  2.6390  1.1532
31700SOL    HW2 5031   3.313  12.426  12.598  0.0485 -0.6414  0.0363
31701SOL     OW 5032   0.732   9.250   0.147 -0.3424 -0.3456 -0.4639
31701SOL    HW1 5033   0.667   9.181   0.161 -0.3285 -0.3067 -0.1918
31701SOL    HW2 5034   0.809   9.205   0.114  0.6314 -0.8819  2.2744
31702SOL     OW 5035  12.777  12.699  10.993  0.7861  0.1873  0.1731
31702SOL    HW1 5036  12.721  12.624  10.971  0.4888  0.3073  0.5191
31702SOL    HW2 5037  12.859  12.682  10.946  0.8304 -0.5138  0.4896
31703SOL     OW 5038   6.917   0.747   9.165  0.5418  0.2370  0.7191
31703SOL    HW1 5039   6.835   0.794   9.149  0.3489 -0.7125 -1.5772
31703SOL    HW2 5040   6.985   0.813   9.157  0.1261  0.6176  0.2170
31704SOL     OW 5041   0.857   1.729   4.167 -0.0703 -0.2728  0.2012
31704SOL    HW1 5042   0.900   1.808   4.135  0.8871 -0.4761  0.9030
31704SOL    HW2 5043   0.852   1.741   4.262  0.7176 -1.3167  0.4066
31705SOL     OW 5044   4.789   0.324   6.231  0.3794 -0.1807 -0.2441
31705SOL    HW1 5045   4.782   0.234   6.264 -0.2554 -0.7796 -1.8794
31705SOL    HW2 5046   4.789   0.379   6.309  1.4826 -1.6354  0.8271
31706SOL     OW 5047  11.301   8.983   3.494  0.4062  0.0885  0.5362
31706SOL    HW1 5048  11.294   8.902   3.443 -1.3522 -0.3584  1.4097
31706SOL    HW2 5049  11.334   9.048   3.432  0.8277 -1.0526 -0.4614
31707SOL     OW 5050  12.011  13.051   8.247  0.8410  0.0313  0.6375
31707SOL    HW1 5051  12.012  13.141   8.277 -0.3862  0.1734  0.3200
31707SOL    HW2 5052  11.967  13.002   8.316  1.5786 -0.3435  0.8485
31708SOL     OW 5053   5.527   5.389   5.272 -0.0328 -0.2563  0.3747
31708SOL    HW1 5054   5.610   5.394   5.225  0.6034  0.6037  1.5181
31708SOL    HW2 5055   5.520   5.474   5.316 -0.4188 -1.1111  2.0423
31709SOL     OW 5056  10.819   7.718  12.069 -1.1225 -0.0389  0.3491
31709SOL    HW1 5057  10.826   7.623  12.067 -0.2246  0.0259 -0.0480
31709SOL    HW2 5058  10.902   7.749  12.034 -1.5950  0.8946  0.0220
31710SOL     OW 5059   5.871  12.631  10.030 -0.1818 -0.0092  0.1819
31710SOL    HW1 5060   5.855  12.713   9.982 -0.6356 -0.0614  0.2318
31710SOL    HW2 5061   5.933  12.583   9.975 -0.9982 -0.2425 -0.5710
31711SOL     OW 5062   1.507   3.710   7.206 -0.1259  0.1264  0.1379
31711SOL    HW1 5063   1.444   3.777   7.233 -0.6367 -0.2020 -0.2039
31711SOL    HW2 5064   1.560   3.694   7.284 -0.4966  0.3818  0.4485
31712SOL     OW 5065  10.129   5.181  10.697 -0.0161  0.1492  0.1474
31712SOL    HW1 5066  10.150   5.214  10.609 -2.1396  1.0144 -0.0882
31712SOL    HW2 5067  10.214   5.158  10.734  1.2530  2.4434 -1.0761
31713SOL     OW 5068   6.699   9.347  11.623 -0.2946 -0.2155 -0.6158
31713SOL    HW1 5069   6.649   9.405  11.565  0.5826  1.0738 -0.1319
31713SOL    HW2 5070   6.790   9.358  11.595  0.0990  0.1376  0.7400
31714SOL     OW 5071  12.428   0.280  12.678  0.4708  0.6223  0.5777
31714SOL    HW1 5072  12.344   0.234  12.680  1.4616 -1.2887 -0.0337
31714SOL    HW2 5073  12.404   0.372  12.691 -1.7076  0.1420  0.4488
31715SOL     OW 5074   6.823   6.657   5.178 -0.7801  0.3970 -0.3024
31715SOL    HW1 5075   6.749   6.711   5.153 -1.7441 -0.8838 -0.2975
31715SOL    HW2 5076   6.856   6.696   5.259 -2.1806  0.2882  0.3328
31716SOL     OW 5077   8.164   8.585  12.420  0.7551  0.3725  0.1166
31716SOL    HW1 5078   8.162   8.511  12.359  0.9347  0.5588 -0.1179
31716SOL    HW2 5079   8.136   8.660  12.367  1.4520  0.6363  0.1134
31717SOL     OW 5080   3.819  12.141  12.102  0.0907 -0.2116  0.1547
31717SOL    HW1 5081   3.885  12.209  12.092  0.5490 -0.6955 -0.1721
31717SOL    HW2 5082   3.746  12.169  12.047  0.5613 -0.3282 -0.5462
31718SOL     OW 5083   2.006   1.152   6.647 -0.0728 -0.2216  0.3729
31718SOL    HW1 5084   2.085   1.204   6.661  0.5197 -0.6690 -1.0880
31718SOL    HW2 5085   2.008   1.129   6.554 -2.4823  0.6514  0.0203
31719SOL     OW 5086   2.857   5.648  11.294 -0.3900  0.0771 -0.0334
31719SOL    HW1 5087   2.944   5.624  11.327 -0.1502  0.0836 -0.6571
31719SOL    HW2 5088   2.873   5.709  11.223 -1.0146  2.5949  1.8613
31720SOL     OW 5089  11.199   5.769   5.412  0.3270 -0.3142  0.6604
31720SOL    HW1 5090  11.203   5.827   5.488  2.9309  1.0676 -0.3848
31720SOL    HW2 5091  11.218   5.682   5.447 -0.1705  0.0258  1.7957
31721SOL     OW 5092  12.077   3.701   5.035  0.3008 -0.5442 -0.6249
31721SOL    HW1 5093  12.080   3.793   5.063 -0.8606 -0.9120  0.7983
31721SOL    HW2 5094  12.052   3.705   4.942 -2.2306  0.5234  0.0224
31722SOL     OW 5095   0.164   2.023  10.711  0.6318 -0.0528 -0.2469
31722SOL    HW1 5096   0.202   2.012  10.798 -0.1649 -0.3080  0.0780
31722SOL    HW2 5097   0.199   1.949  10.661 -1.6092 -1.9901  0.8432
31723SOL     OW 5098   4.560  10.953   1.576 -0.4684 -0.2704 -0.0355
31723SOL    HW1 5099   4.561  10.858   1.584 -0.5381 -0.3427 -0.8009
31723SOL    HW2 5100   4.576  10.970   1.483  1.5575  0.5380  0.4125
31724SOL     OW 5101   8.234  12.311   2.060 -0.7483 -0.1487 -0.1789
31724SOL    HW1 5102   8.237  12.388   2.002 -1.7275 -0.8437 -1.2037
31724SOL    HW2 5103   8.179  12.339   2.133 -1.2224  0.0872 -0.6173
31725SOL     OW 5104   6.245   5.504  12.993  0.2183  0.3631  0.0920
31725SOL    HW1 5105   6.213   5.582  13.037 -1.0675  0.1904 -0.5049
31725SOL    HW2 5106   6.194   5.498  12.912 -0.0195 -1.2974  0.3135
31726SOL     OW 5107  10.489   3.158   5.574 -0.0549 -0.6146 -0.3082
31726SOL    HW1 5108  10.568   3.161   5.629  0.3275  1.1970 -0.8967
31726SOL    HW2 5109  10.420   3.194   5.629  0.0118 -0.1381 -0.5372
31727SOL     OW 5110   5.938  10.416  12.982 -0.4556 -0.2409 -0.0311
31727SOL    HW1 5111   5.928  10.432  13.075 -0.0451  3.2304 -0.4763
31727SOL    HW2 5112   5.852  10.434  12.945 -0.8362 -2.3646 -0.3307
31728SOL     OW 5113   7.384   0.624   2.022 -0.6886 -0.0842 -0.2313
31728SOL    HW1 5114   7.297   0.589   2.039 -1.7204  2.0189 -0.8074
31728SOL    HW2 5115   7.426   0.559   1.965 -0.9642 -2.2282  1.8672
31729SOL     OW 5116   7.190  12.717   8.112 -0.0090 -0.3716 -0.2924
31729SOL    HW1 5117   7.116  12.670   8.151  0.6171 -1.6339 -0.5645
31729SOL    HW2 5118   7.207  12.670   8.030  0.4946  0.4907 -0.6883
31730SOL     OW 5119  11.695   7.167   8.741  0.3589  0.0548 -0.0397
31730SOL    HW1 5120  11.777   7.155   8.788  0.1881 -1.3041 -0.0206
31730SOL    HW2 5121  11.652   7.240   8.784  0.7834 -0.3469  1.1000
31731SOL     OW 5122   7.635  10.664  12.869  0.1227  0.3479  0.1583
31731SOL    HW1 5123   7.546  10.674  12.836  0.3617  2.4837 -0.0064
31731SOL    HW2 5124   7.627  10.667  12.964 -0.0568 -0.2433  0.1600
31732SOL     OW 5125   3.833   8.969   9.022 -0.0567  0.1120  0.2420
31732SOL    HW1 5126   3.782   8.923   9.087 -0.5904  2.4630  1.6199
31732SOL    HW2 5127   3.922   8.934   9.031 -0.2863 -0.1420  1.7078
31733SOL     OW 5128   7.522  11.413   6.833 -0.7149  0.0563 -0.0261
31733SOL    HW1 5129   7.559  11.484   6.780 -2.1139  1.3186  0.6046
31733SOL    HW2 5130   7.462  11.367   6.774 -0.8522  0.2863 -0.0680
31734SOL     OW 5131   9.880   2.415   5.832 -0.0521  0.5121  0.2325
31734SOL    HW1 5132   9.913   2.494   5.788 -1.4249  0.6966 -0.5308
31734SOL    HW2 5133   9.795   2.399   5.790 -0.4844 -0.4817  1.4578
31735SOL     OW 5134   4.121   2.181   0.268 -0.2019  0.1699 -0.0783
31735SOL    HW1 5135   4.125   2.154   0.360 -0.3516  0.4643  0.0144
31735SOL    HW2 5136   4.205   2.225   0.252 -0.3248  0.4399  0.0182
31736SOL     OW 5137   9.405   9.073  11.835 -0.4241 -0.1178  0.1175
31736SOL    HW1 5138   9.395   9.091  11.742 -1.2316 -1.1091  0.0019
31736SOL    HW2 5139   9.495   9.100  11.855 -0.2951  0.2447 -0.9079
31737SOL     OW 5140   9.202  10.951   4.572 -0.0223  0.1863 -0.4915
31737SOL    HW1 5141   9.225  10.858   4.574  0.9028  0.4223  0.3078
31737SOL    HW2 5142   9.126  10.957   4.630  0.7386  0.1234  0.5536
31738SOL     OW 5143   2.722  12.381   7.723  0.0548 -0.2657 -0.0831
31738SOL    HW1 5144   2.666  12.322   7.773 -0.4143  0.2136 -0.0387
31738SOL    HW2 5145   2.697  12.469   7.752 -1.3394  0.1354 -2.2658
31739SOL     OW 5146  11.425  11.287   8.465 -0.1195 -0.1219  0.1862
31739SOL    HW1 5147  11.338  11.247   8.471 -0.8552  1.1399 -1.3427
31739SOL    HW2 5148  11.407  11.381   8.457  1.4353  0.2497  0.7418
31740SOL     OW 5149  10.328  10.037  10.989  0.1351  0.0095  0.6987
31740SOL    HW1 5150  10.241  10.045  10.949  0.2397 -0.4924  0.3630
31740SOL    HW2 5151  10.386  10.085  10.930  0.2736 -0.6518  0.2744
31741SOL     OW 5152   6.766   3.268   2.585 -0.0930  0.1557  0.1360
31741SOL    HW1 5153   6.784   3.361   2.574 -1.2402  0.1759 -2.0509
31741SOL    HW2 5154   6.674   3.258   2.558  0.3967 -1.7787 -1.0028
31742SOL     OW 5155   8.930   1.191  13.067  0.2354 -0.1099 -0.0284
31742SOL    HW1 5156   8.953   1.107  13.028  1.1902  0.6263 -1.1618
31742SOL    HW2 5157   8.973   1.192  13.152  0.0173 -0.8538  0.0939
31743SOL     OW 5158  12.256   4.619   5.917  0.5396  0.3772  0.2218
31743SOL    HW1 5159  12.240   4.643   5.826  0.5688 -0.5540 -0.0356
31743SOL    HW2 5160  12.335   4.565   5.914 -0.5238 -1.2513  0.5440
31744SOL     OW 5161   5.169  12.893  11.002  0.6686 -0.6875  0.0304
31744SOL    HW1 5162   5.075  12.914  11.006  1.0731  1.3389 -0.2015
31744SOL    HW2 5163   5.177  12.833  10.928 -0.2036  0.8035 -1.3488
31745SOL     OW 5164   9.997   6.778   9.409 -0.0835  0.0902  0.3858
31745SOL    HW1 5165   9.944   6.857   9.396  0.1462  0.3509  1.0234
31745SOL    HW2 5166  10.057   6.800   9.480  0.3284 -0.4859  0.2267
31746SOL     OW 5167  13.311   0.807  12.394  0.0395  0.2188  0.0009
31746SOL    HW1 5168  13.276   0.718  12.404 -0.1494  0.4186  1.3217
31746SOL    HW2 5169  13.315   0.821  12.299  1.8455 -1.8925 -0.3133
31747SOL     OW 5170   4.234   7.838  10.381  0.5275 -0.5729  0.4921
31747SOL    HW1 5171   4.227   7.862  10.289 -0.5350 -0.4172  0.5929
31747SOL    HW2 5172   4.192   7.752  10.387 -1.2131  0.2626  1.1199
31748SOL     OW 5173   6.582   1.909  12.541  0.1927  0.0740 -0.1823
31748SOL    HW1 5174   6.508   1.886  12.484 -0.8600  1.4201  0.5656
31748SOL    HW2 5175   6.542   1.960  12.611  2.0594  2.3830 -0.6918
31749SOL     OW 5176   6.340   1.643   6.958  0.2247  0.7197 -0.2609
31749SOL    HW1 5177   6.261   1.589   6.957  0.7278 -0.0360 -0.2550
31749SOL    HW2 5178   6.368   1.644   7.050  0.9486 -0.1179 -0.4610
31750SOL     OW 5179   0.749   5.829   1.718  0.0151  0.7168 -0.0312
31750SOL    HW1 5180   0.815   5.854   1.783  0.3609 -1.4634  0.5254
31750SOL    HW2 5181   0.703   5.755   1.758 -3.1262  2.4063 -0.2038
31751SOL     OW 5182  12.413   6.944   3.142  0.6252 -0.5967 -0.2853
31751SOL    HW1 5183  12.352   6.911   3.076 -0.0588 -0.7202  0.4043
31751SOL    HW2 5184  12.360   6.958   3.220  1.4135 -0.3904  0.2295
31752SOL     OW 5185   0.614   4.006  11.875  0.5857  0.4812  0.1375
31752SOL    HW1 5186   0.674   4.073  11.908  1.7792  0.2521 -1.4388
31752SOL    HW2 5187   0.569   4.048  11.802 -0.3077  0.2455  0.5382
31753SOL     OW 5188   5.461   4.034   4.238  0.5156 -0.5134  0.5532
31753SOL    HW1 5189   5.475   4.117   4.282 -0.4341  0.7498 -1.3663
31753SOL    HW2 5190   5.397   3.988   4.293  0.1620  0.5395  1.0457
31754SOL     OW 5191   0.919   2.509   2.687 -0.5827  0.1322  0.0800
31754SOL    HW1 5192   0.990   2.519   2.624  0.8674  0.3144  1.6748
31754SOL    HW2 5193   0.903   2.597   2.720 -1.7492  0.1330 -0.4667
31755SOL     OW 5194   9.552   8.801  11.891 -0.1023  0.3747  0.5295
31755SOL    HW1 5195   9.510   8.723  11.928 -0.7130 -0.0072 -0.9148
31755SOL    HW2 5196   9.484   8.868  11.891 -1.3308 -0.6503 -3.1547
31756SOL     OW 5197   7.619   3.578  10.564  0.6869 -0.3021 -0.0057
31756SOL    HW1 5198   7.702   3.532  10.548  1.3668  0.6364  0.6770
31756SOL    HW2 5199   7.644   3.670  10.569 -0.6321  0.1441 -1.2222
31757SOL     OW 5200   1.134   4.992   0.856 -0.7469 -0.1894  0.0892
31757SOL    HW1 5201   1.171   5.000   0.944 -0.2841 -0.0398 -0.1150
31757SOL    HW2 5202   1.041   4.974   0.870 -0.3802 -1.8906  0.6373
31758SOL     OW 5203   0.901   2.837  11.720  0.6416  0.0039  0.5585
31758SOL    HW1 5204   0.886   2.793  11.804 -1.4773  0.3870  0.4359
31758SOL    HW2 5205   0.834   2.801  11.662 -0.4241  2.4873  0.1271
31759SOL     OW 5206   1.325   0.994   6.063 -0.2320 -0.5915 -0.5884
31759SOL    HW1 5207   1.312   1.028   5.975  0.6845  0.5106 -0.3151
31759SOL    HW2 5208   1.376   0.914   6.050 -0.6917 -0.8101 -1.0940
31760SOL     OW 5209   4.738   2.115   8.461 -0.1040 -0.7235  0.2873
31760SOL    HW1 5210   4.683   2.192   8.461  0.9184  0.0385  0.7069
31760SOL    HW2 5211   4.782   2.115   8.376  0.3069 -0.5250  0.4941
31761SOL     OW 5212   3.919   5.360   8.002 -0.2528  0.2679 -0.0412
31761SOL    HW1 5213   3.912   5.325   8.091 -2.3009 -1.5655 -0.8124
31761SOL    HW2 5214   3.839   5.330   7.959  0.1256  2.0949 -2.1923
31762SOL     OW 5215   7.547   3.624  11.896 -0.7793  0.1501 -0.2378
31762SOL    HW1 5216   7.514   3.684  11.963 -0.0660 -1.5448  1.7283
31762SOL    HW2 5217   7.638   3.608  11.921 -0.5534 -0.6899 -1.5147
31763SOL     OW 5218   5.689   2.049   4.388 -0.5816 -0.3785  0.2427
31763SOL    HW1 5219   5.641   2.070   4.308  1.3962  2.5429 -0.3639
31763SOL    HW2 5220   5.693   1.954   4.391 -3.1587 -0.6243 -1.5624
31764SOL     OW 5221   2.037   6.052  10.801  0.6687  0.1711  0.0042
31764SOL    HW1 5222   1.990   5.969  10.804  0.6880  0.0641 -1.5997
31764SOL    HW2 5223   2.125   6.031  10.832  0.5855 -0.3426 -0.0987
31765SOL     OW 5224   5.736   5.449  11.633  0.5349  0.1823 -0.0780
31765SOL    HW1 5225   5.766   5.507  11.563 -0.0067 -0.1653 -0.6051
31765SOL    HW2 5226   5.799   5.378  11.634  1.4749  0.9960  0.8854
31766SOL     OW 5227  12.367   4.957   3.808  0.0030  0.0001  0.1624
31766SOL    HW1 5228  12.395   4.879   3.857  1.6864  0.8203  0.5926
31766SOL    HW2 5229  12.447   5.008   3.798 -1.3025  2.4308  1.2522
31767SOL     OW 5230   5.342  12.937   7.636 -0.5658 -0.1774 -0.0061
31767SOL    HW1 5231   5.310  12.950   7.725 -0.9091  1.8545 -0.3711
31767SOL    HW2 5232   5.273  12.886   7.594 -0.3853 -1.1825  0.8790
31768SOL     OW 5233   9.853   6.965   4.743 -0.4767 -0.3481 -0.1072
31768SOL    HW1 5234   9.798   6.949   4.667 -0.3935 -1.8424  0.1101
31768SOL    HW2 5235   9.795   6.951   4.818 -0.4002  0.4967  0.1187
31769SOL     OW 5236   1.272   7.942   7.932 -0.2424  0.0196  0.8246
31769SOL    HW1 5237   1.280   7.945   7.837 -2.2703  1.2235  0.6420
31769SOL    HW2 5238   1.212   7.869   7.949 -0.0650 -0.0479  1.1858
31770SOL     OW 5239   2.540   0.023  10.974  0.9154 -0.9131  0.0289
31770SOL    HW1 5240   2.525  -0.042  11.043 -0.7284  0.4590  1.0604
31770SOL    HW2 5241   2.589   0.093  11.017  1.5458 -0.8735 -0.7250
31771SOL     OW 5242   6.419   3.746   1.598 -0.0234 -0.4360  0.8279
31771SOL    HW1 5243   6.373   3.665   1.579 -2.0417  0.6550  0.7284
31771SOL    HW2 5244   6.349   3.812   1.606  1.4343  1.0517  2.1420
31772SOL     OW 5245   9.295  11.735   8.197 -0.0034 -0.3047 -0.4342
31772SOL    HW1 5246   9.289  11.650   8.155 -0.5331 -0.6816  0.3738
31772SOL    HW2 5247   9.381  11.769   8.172 -0.3763 -0.4172 -1.9657
31773SOL     OW 5248   5.383   6.988   6.871  0.6094  0.2804  0.6412
31773SOL    HW1 5249   5.396   6.923   6.802  2.9921  0.8970  0.4125
31773SOL    HW2 5250   5.303   6.962   6.915 -0.6965 -0.4491 -2.0090
31774SOL     OW 5251   0.987   5.318   4.292  0.5629  0.2594  0.0422
31774SOL    HW1 5252   0.928   5.246   4.314 -0.5672  0.8060 -1.0082
31774SOL    HW2 5253   1.074   5.279   4.290 -0.2317 -1.7515 -2.9673
31775SOL     OW 5254   4.185   7.916   8.162 -0.0985  0.4025 -0.5913
31775SOL    HW1 5255   4.178   7.868   8.245  0.7379  1.0468 -0.1349
31775SOL    HW2 5256   4.205   8.006   8.187  2.9700  0.0756 -1.5147
31776SOL     OW 5257   5.800   4.818   3.149  0.0422 -0.1171 -0.1520
31776SOL    HW1 5258   5.851   4.894   3.120 -0.8664  0.3509 -0.5667
31776SOL    HW2 5259   5.865   4.754   3.177  0.8293  0.9048  0.4266
31777SOL     OW 5260   9.754   7.579   4.658  0.1813  0.1747 -0.2827
31777SOL    HW1 5261   9.659   7.575   4.659  0.2357 -1.8540 -0.4684
31777SOL    HW2 5262   9.778   7.600   4.748 -0.4317  1.8651 -0.4717
31778SOL     OW 5263   7.510   7.218  10.498 -0.3687 -0.1959  0.1006
31778SOL    HW1 5264   7.573   7.278  10.537  1.8154 -1.0037 -1.9425
31778SOL    HW2 5265   7.426   7.239  10.541  0.6609  2.9239  0.8164
31779SOL     OW 5266  12.845   3.801   1.066  0.4391 -0.3591  0.3498
31779SOL    HW1 5267  12.906   3.851   1.012  0.8483 -0.5570  0.6240
31779SOL    HW2 5268  12.760   3.841   1.050  0.7511  0.3864  0.5212
31780SOL     OW 5269   9.528   8.651   2.875 -0.3090 -0.4658  0.2021
31780SOL    HW1 5270   9.583   8.588   2.922 -0.5232 -2.0075 -1.5478
31780SOL    HW2 5271   9.438   8.626   2.897 -0.4183  1.2482  2.0092
31781SOL     OW 5272   3.331   9.582  12.130 -0.6328  0.5750  0.2781
31781SOL    HW1 5273   3.328   9.494  12.092  1.1312  0.0604  1.2626
31781SOL    HW2 5274   3.272   9.634  12.075 -0.5773 -0.8763 -1.2034
31782SOL     OW 5275   1.835  10.474   2.016  0.0729  0.4603 -0.2095
31782SOL    HW1 5276   1.897  10.406   2.043 -1.8033 -1.4662 -0.5120
31782SOL    HW2 5277   1.879  10.519   1.944  0.8509 -1.3448 -0.9243
31783SOL     OW 5278   4.013   2.214  12.226  0.1145 -0.0080 -0.5004
31783SOL    HW1 5279   4.086   2.156  12.246  0.0811  1.1042  3.5870
31783SOL    HW2 5280   4.042   2.300  12.256 -3.4036  0.1590  3.1094
31784SOL     OW 5281   0.288   4.310   8.462 -0.2207 -0.5158  0.4718
31784SOL    HW1 5282   0.274   4.217   8.446  0.3565 -0.8792  1.9438
31784SOL    HW2 5283   0.200   4.347   8.468 -0.4722 -1.2017  1.1434
31785SOL     OW 5284   0.008   5.575  12.456 -0.1951 -0.5836 -0.0148
31785SOL    HW1 5285   0.048   5.523  12.525  0.8926 -0.3047 -0.4224
31785SOL    HW2 5286  -0.084   5.582  12.482  0.3026  0.0366  1.7218
31786SOL     OW 5287   5.951  13.075   9.951  0.0013 -0.7823  0.2430
31786SOL    HW1 5288   5.898  13.148   9.921 -0.1369 -0.5228  1.0965
31786SOL    HW2 5289   5.991  13.040   9.871 -1.0393 -0.6631 -0.3424
31787SOL     OW 5290  10.259   0.176   9.263 -0.3226 -0.5360 -0.2065
31787SOL    HW1 5291  10.341   0.203   9.221 -1.0255  0.2350 -1.1452
31787SOL    HW2 5292  10.211   0.258   9.278 -0.2516 -0.8229  1.8467
31788SOL     OW 5293   8.804   3.798   2.945  0.2488  0.9141  0.1468
31788SOL    HW1 5294   8.719   3.840   2.959  0.5405  1.8234 -0.6864
31788SOL    HW2 5295   8.832   3.769   3.032 -1.8904 -1.4037  0.1782
31789SOL     OW 5296   2.589   4.597   1.334 -0.3945  0.1603  0.3295
31789SOL    HW1 5297   2.560   4.687   1.319  0.1232  0.1588 -0.8357
31789SOL    HW2 5298   2.516   4.543   1.305 -0.0678  0.1973 -0.6266
31790SOL     OW 5299   9.555   5.716   3.789 -0.2007 -0.1144  0.1310
31790SOL    HW1 5300   9.590   5.761   3.866 -0.4716  0.5618 -0.1332
31790SOL    HW2 5301   9.509   5.784   3.741 -0.6098 -0.6787 -0.2860
31791SOL     OW 5302  11.968  12.122   6.266 -0.2235  0.3023  0.0241
31791SOL    HW1 5303  12.041  12.169   6.306  0.3471  0.4143 -1.1101
31791SOL    HW2 5304  12.009  12.052   6.216 -0.9382 -0.0045 -0.1426
31792SOL     OW 5305   2.228  11.188   0.291 -0.7918  0.2437 -0.2063
31792SOL    HW1 5306   2.275  11.113   0.254  2.4445  1.5274  0.9488
31792SOL    HW2 5307   2.201  11.158   0.378 -0.6727 -0.0033 -0.2525
31793SOL     OW 5308   3.085   2.141   3.956  0.1818 -0.4516  0.6401
31793SOL    HW1 5309   3.076   2.067   3.895 -0.6191 -1.4947  1.9737
31793SOL    HW2 5310   3.008   2.195   3.939  0.4333 -0.2574  0.1038
31794SOL     OW 5311  10.600   5.148   9.684 -0.1552  0.2138 -0.5090
31794SOL    HW1 5312  10.625   5.217   9.746 -1.1097 -0.8087  1.0782
31794SOL    HW2 5313  10.676   5.140   9.626 -0.3524  3.1883 -1.3510
31795SOL     OW 5314   5.311  12.968   3.586  0.0032  0.4204 -0.2018
31795SOL    HW1 5315   5.217  12.978   3.596 -0.2689 -0.6714 -1.3885
31795SOL    HW2 5316   5.324  12.955   3.492  1.3691  0.8510 -0.0925
31796SOL     OW 5317   9.855   4.160   1.676  0.8068  0.5103  0.1368
31796SOL    HW1 5318   9.816   4.245   1.654 -0.5419  0.0015  0.4225
31796SOL    HW2 5319   9.779   4.101   1.683  1.3929 -0.0401  3.0477
31797SOL     OW 5320   6.748   8.728   5.487 -1.0111 -0.0950  0.1887
31797SOL    HW1 5321   6.695   8.782   5.428 -1.9165 -2.4481 -1.3220
31797SOL    HW2 5322   6.695   8.719   5.566 -2.0288 -0.7902 -0.5419
31798SOL     OW 5323   6.886  10.203  12.132  0.3197  0.1566 -0.1604
31798SOL    HW1 5324   6.872  10.252  12.213 -0.3379 -2.8734  1.6770
31798SOL    HW2 5325   6.964  10.150  12.149  0.1227 -0.6074 -1.5001
31799SOL     OW 5326  12.175   4.220  12.778  0.0391  0.3861  0.1687
31799SOL    HW1 5327  12.143   4.163  12.847  1.0638 -1.0446 -0.4830
31799SOL    HW2 5328  12.183   4.306  12.819  2.6574 -0.8213  2.5439
31800SOL     OW 5329   2.247  11.963  10.321 -0.5926 -0.2802  0.5114
31800SOL    HW1 5330   2.189  11.955  10.246 -0.2773  0.9971  0.1041
31800SOL    HW2 5331   2.305  12.035  10.299  0.2656 -0.6425  1.4946
31801SOL     OW 5332   8.938  12.038   6.260  0.1134 -0.0684 -0.1806
31801SOL    HW1 5333   8.863  12.026   6.202  0.9348 -0.9542 -1.0999
31801SOL    HW2 5334   8.901  12.070   6.342 -1.1015  0.9498 -1.1022
31802SOL     OW 5335  11.677   7.511   5.503 -0.2256  0.1580  0.8380
31802SOL    HW1 5336  11.735   7.588   5.499 -1.0845  0.8049  0.5722
31802SOL    HW2 5337  11.611   7.534   5.568 -0.9673 -0.0219  0.1554
31803SOL     OW 5338   0.423  10.010   4.146  0.0150  0.3421  0.0249
31803SOL    HW1 5339   0.473  10.031   4.224  2.0096  1.3965 -1.4403
31803SOL    HW2 5340   0.341  10.059   4.155  1.1407  2.2388  0.4664
31804SOL     OW 5341   0.890   4.064  10.905  0.0069  0.0111 -0.2161
31804SOL    HW1 5342   0.932   4.117  10.973 -1.2938  0.8132 -0.0079
31804SOL    HW2 5343   0.849   3.992  10.952 -0.8544  0.5407 -0.1359
31805SOL     OW 5344   2.557   2.686   7.692  0.3394 -0.1163  0.5352
31805SOL    HW1 5345   2.503   2.681   7.771  0.5351  0.3078  0.6964
31805SOL    HW2 5346   2.644   2.658   7.720  0.2033 -0.8295  0.2668
31806SOL     OW 5347  10.752   1.872   1.721 -0.1226 -0.3935 -0.2513
31806SOL    HW1 5348  10.833   1.822   1.706  0.4071  0.7043 -1.1195
31806SOL    HW2 5349  10.724   1.844   1.809  1.0783 -0.9440 -0.0126
31807SOL     OW 5350   9.824   8.073   2.090  0.2305 -0.1947  0.5321
31807SOL    HW1 5351   9.892   8.010   2.068  0.6523 -0.0419  1.3746
31807SOL    HW2 5352   9.784   8.096   2.006 -0.3576 -2.0556  0.2539
31808SOL     OW 5353   9.567   4.517   8.668 -0.1255  0.5494  0.1258
31808SOL    HW1 5354   9.514   4.483   8.740  0.4778  0.2041  0.4171
31808SOL    HW2 5355   9.657   4.505   8.697  0.1120  1.2826 -0.2952
31809SOL     OW 5356   4.961   8.417   1.130  0.1980  0.0387 -0.0245
31809SOL    HW1 5357   5.035   8.456   1.085 -0.1667  0.6767 -0.0858
31809SOL    HW2 5358   4.926   8.488   1.185  0.1743 -0.5071  0.6771
31810SOL     OW 5359   4.394   6.607   3.737 -0.1198  0.2466  0.1824
31810SOL    HW1 5360   4.417   6.538   3.675  1.0495  0.1164  0.7272
31810SOL    HW2 5361   4.451   6.681   3.714  0.2904  0.2137  1.0380
31811SOL     OW 5362   4.847   6.195  11.438 -0.0489 -0.0744  0.4887
31811SOL    HW1 5363   4.886   6.121  11.485 -0.7913 -0.7736  0.0338
31811SOL    HW2 5364   4.888   6.193  11.351 -1.5802 -1.2802 -0.2566
31812SOL     OW 5365  11.087  11.024  12.145 -0.0493  0.8056 -0.2590
31812SOL    HW1 5366  11.128  11.108  12.167  0.1561  0.7998 -0.6147
31812SOL    HW2 5367  11.076  11.026  12.050 -0.2628  0.5272 -0.2439
31813SOL     OW 5368   4.230   2.376  13.025 -0.3414 -0.0690 -0.0098
31813SOL    HW1 5369   4.243   2.454  12.970  0.4220  0.3626  0.7657
31813SOL    HW2 5370   4.145   2.392  13.067 -1.9967 -1.3812 -2.5980
31814SOL     OW 5371   9.102   9.309   4.619  0.4014  0.4659  0.0786
31814SOL    HW1 5372   9.163   9.284   4.688  1.0473  0.3645 -0.5164
31814SOL    HW2 5373   9.101   9.234   4.559  0.7564  1.0179 -0.6334
31815SOL     OW 5374   9.498   8.066   6.317  0.2516 -0.2150  0.5118
31815SOL    HW1 5375   9.519   8.018   6.398  0.4105 -0.1215  0.5265
31815SOL    HW2 5376   9.403   8.058   6.308  0.4267 -1.7158 -0.2338
31816SOL     OW 5377  10.677   8.561   7.340 -0.8509  0.3091 -0.5755
31816SOL    HW1 5378  10.710   8.639   7.385 -0.9846 -0.9571  1.8822
31816SOL    HW2 5379  10.732   8.490   7.373 -2.4260 -1.0125 -0.6942
31817SOL     OW 5380   3.978  12.337   1.697 -0.2499 -0.6765 -0.9827
31817SOL    HW1 5381   3.981  12.404   1.630  0.0696 -0.4723 -0.7667
31817SOL    HW2 5382   3.933  12.264   1.656 -2.1989  0.2885 -0.6650
31818SOL     OW 5383   4.576   7.768   6.344  0.0771  0.4884  0.5160
31818SOL    HW1 5384   4.609   7.801   6.427  1.4050 -2.0054  1.0845
31818SOL    HW2 5385   4.504   7.709   6.367  1.0077 -0.8964  0.0413
31819SOL     OW 5386   3.321   5.674  10.137 -0.4852 -0.1122  0.4316
31819SOL    HW1 5387   3.397   5.702  10.086 -0.9852  1.9030  0.7310
31819SOL    HW2 5388   3.263   5.634  10.072  0.8411 -1.7936  0.2246
31820SOL     OW 5389  12.684   5.540   4.663 -0.7776  0.0600  0.3614
31820SOL    HW1 5390  12.711   5.463   4.613 -1.9409  0.5830 -1.1791
31820SOL    HW2 5391  12.762   5.596   4.665 -0.6256 -0.0885 -0.6842
31821SOL     OW 5392   3.982  11.210  12.470 -0.0252  0.6361 -0.3823
31821SOL    HW1 5393   3.977  11.126  12.516 -2.5343 -0.4221 -2.3122
31821SOL    HW2 5394   4.058  11.201  12.412 -0.3484 -0.4051 -0.6724
31822SOL     OW 5395  11.453   8.560   6.750  0.7095 -0.3602  0.1471
31822SOL    HW1 5396  11.453   8.630   6.685  1.6326 -0.7803 -0.3282
31822SOL    HW2 5397  11.523   8.583   6.811  0.4394 -0.4272  0.4891
31823SOL     OW 5398  12.311   3.880   3.318  0.2898 -0.1012  0.2411
31823SOL    HW1 5399  12.220   3.892   3.345  0.5172 -1.5444  1.8562
31823SOL    HW2 5400  12.308   3.809   3.254  0.3161 -0.4832  0.6584
31824SOL     OW 5401   9.424   5.409  12.803  0.3043 -0.2010  0.1204
31824SOL    HW1 5402   9.373   5.418  12.723  0.2442  0.1929  0.1980
31824SOL    HW2 5403   9.441   5.315  12.812  0.9500 -0.1780 -0.7487
31825SOL     OW 5404   5.335  10.980   9.850 -0.0911 -0.0211  0.3491
31825SOL    HW1 5405   5.345  11.052   9.913  1.9305 -0.3803  0.5083
31825SOL    HW2 5406   5.392  10.911   9.884  0.3859 -0.5386 -1.4177
31826SOL     OW 5407  10.325  12.143   3.164 -0.5383 -0.0273 -0.0765
31826SOL    HW1 5408  10.274  12.171   3.088 -1.3021  1.6758  0.9960
31826SOL    HW2 5409  10.326  12.220   3.222  1.2185 -0.7992  1.0223
31827SOL     OW 5410   9.674   1.603  13.048  0.0654 -0.7738  0.6668
31827SOL    HW1 5411   9.687   1.528  13.107  0.8814 -1.0855  0.1020
31827SOL    HW2 5412   9.756   1.651  13.050 -0.3027 -0.1293  0.6765
31828SOL     OW 5413   8.577   3.625   2.875 -0.1888 -0.5114  0.7929
31828SOL    HW1 5414   8.545   3.702   2.923  2.0864  0.1547  1.3575
31828SOL    HW2 5415   8.672   3.636   2.873  0.1196 -2.8232  0.0096
31829SOL     OW 5416   9.313   2.747   4.560 -0.2514  0.0229 -0.6983
31829SOL    HW1 5417   9.270   2.771   4.478 -0.1634  1.5202 -0.3334
31829SOL    HW2 5418   9.261   2.790   4.628  0.5670  0.0689 -0.0886
31830SOL     OW 5419  13.014   2.813   7.554  0.8982  0.3306  0.4665
31830SOL    HW1 5420  12.999   2.729   7.596  0.1089  1.5843  2.8607
31830SOL    HW2 5421  13.044   2.870   7.625 -0.1335  2.4793 -0.7384
31831SOL     OW 5422   5.411   2.469   9.445 -0.1371  0.2739 -0.7285
31831SOL    HW1 5423   5.335   2.516   9.413  0.9819  0.6259 -3.0493
31831SOL    HW2 5424   5.393   2.377   9.427  0.7671  0.5099 -3.2791
31832SOL     OW 5425   9.815  12.462   2.106 -0.5279 -0.4485 -0.6398
31832SOL    HW1 5426   9.824  12.412   2.187  2.9664 -0.1362 -0.6892
31832SOL    HW2 5427   9.788  12.397   2.041  0.1248 -1.4813  0.0818
31833SOL     OW 5428   5.132   5.812   8.296 -0.7245 -0.6307  0.6879
31833SOL    HW1 5429   5.208   5.844   8.248 -0.0933 -2.4757  0.3577
31833SOL    HW2 5430   5.060   5.870   8.269 -0.9228 -2.6685 -4.2350
31834SOL     OW 5431   0.260   0.577   4.864  0.5199  0.4891 -0.0857
31834SOL    HW1 5432   0.258   0.511   4.795  2.1692 -0.1860  0.4596
31834SOL    HW2 5433   0.283   0.528   4.943 -1.1950  1.2667  0.9515
31835SOL     OW 5434   3.716   3.736   1.408 -0.8978 -0.2294 -0.1567
31835SOL    HW1 5435   3.777   3.708   1.339 -0.0539 -1.2653  0.9620
31835SOL    HW2 5436   3.745   3.824   1.431  0.0089 -0.5868  0.1424
31836SOL     OW 5437   3.700   8.048   1.073  0.6421 -0.0549 -0.2617
31836SOL    HW1 5438   3.620   8.021   1.118  0.7990  0.0272  0.0649
31836SOL    HW2 5439   3.706   8.142   1.089  0.7317 -0.0356 -0.4047
31837SOL     OW 5440   7.086   8.855   2.660 -0.0317 -0.0269 -0.2283
31837SOL    HW1 5441   7.002   8.898   2.671 -0.0964 -0.0532 -0.5944
31837SOL    HW2 5442   7.142   8.890   2.729  0.5598  2.2177 -1.7425
31838SOL     OW 5443   6.228  10.209   9.028 -0.4420  0.0014 -0.0662
31838SOL    HW1 5444   6.165  10.262   9.078  0.1607 -0.4451  1.2261
31838SOL    HW2 5445   6.286  10.172   9.095 -0.3964 -1.6970 -0.9811
31839SOL     OW 5446   7.699   8.091   0.957  0.6126 -0.1399 -0.3619
31839SOL    HW1 5447   7.785   8.049   0.952  0.5633 -0.2990  0.0992
31839SOL    HW2 5448   7.715   8.174   1.001  0.5554 -0.1072 -0.4030
31840SOL     OW 5449   6.437   1.797   2.948 -0.8440 -0.2130  0.4456
31840SOL    HW1 5450   6.456   1.869   2.888 -0.2558 -0.0232  0.8434
31840SOL    HW2 5451   6.392   1.838   3.021 -2.2272 -0.5614 -0.1905
31841SOL     OW 5452   9.937  10.167   6.430  0.1339  0.7068  0.1184
31841SOL    HW1 5453   9.939  10.227   6.355  1.2210 -0.9248 -1.2374
31841SOL    HW2 5454  10.022  10.123   6.428 -1.1606 -2.0243  0.0038
31842SOL     OW 5455  12.956  12.515   1.594  0.0978 -0.0962 -0.2608
31842SOL    HW1 5456  13.027  12.540   1.535  0.6141  0.1269  0.4392
31842SOL    HW2 5457  12.940  12.593   1.647 -1.5388  0.2723 -1.2264
31843SOL     OW 5458   1.307   9.707   2.214  0.0407 -0.1924  0.2927
31843SOL    HW1 5459   1.280   9.625   2.173  3.3708 -0.8051 -1.0093
31843SOL    HW2 5460   1.264   9.775   2.161 -0.9143 -1.0645 -0.0775
31844SOL     OW 5461   1.117   8.509   6.137 -0.0629  0.0674  0.1861
31844SOL    HW1 5462   1.048   8.503   6.203 -0.1268  1.5409  0.2988
31844SOL    HW2 5463   1.171   8.583   6.165 -1.1035  1.9302 -2.2678
31845SOL     OW 5464  11.710   0.706  13.225 -0.3696  0.5032  0.4707
31845SOL    HW1 5465  11.780   0.660  13.178 -1.0153 -0.8820  0.8095
31845SOL    HW2 5466  11.661   0.751  13.156  0.1767  0.5582  0.1086
31846SOL     OW 5467   2.911  12.357   2.458  0.6486 -0.3918 -0.2053
31846SOL    HW1 5468   2.921  12.321   2.370 -2.2531  1.4362 -1.4123
31846SOL    HW2 5469   2.930  12.284   2.516  4.4098 -1.2489 -2.1785
31847SOL     OW 5470   8.841   6.581  11.016  0.0886 -0.4915  0.2340
31847SOL    HW1 5471   8.817   6.572  10.924 -1.3649 -0.2446  0.5576
31847SOL    HW2 5472   8.936   6.584  11.016  0.1008  0.0854 -1.3222
31848SOL     OW 5473   9.111  10.389   7.548  0.2165 -0.4540 -0.6045
31848SOL    HW1 5474   9.099  10.304   7.589  0.4187 -0.5433 -0.7296
31848SOL    HW2 5475   9.120  10.450   7.620  0.4889 -0.5984 -0.5164
31849SOL     OW 5476   5.230   2.967  10.746 -0.6178  0.1062  0.2540
31849SOL    HW1 5477   5.277   2.908  10.687  0.3269  1.1646 -0.0824
31849SOL    HW2 5478   5.148   2.984  10.701 -0.9343 -0.9909  0.3840
31850SOL     OW 5479   8.819   9.319   2.918  0.1305  0.2147  0.4928
31850SOL    HW1 5480   8.895   9.329   2.976 -2.0273  0.7531  3.4525
31850SOL    HW2 5481   8.829   9.231   2.882  1.3076 -0.3898  2.1440
31851SOL     OW 5482   3.619   5.896   4.363 -0.2953  0.5085  0.0353
31851SOL    HW1 5483   3.612   5.950   4.442 -0.0159 -0.2897  0.6153
31851SOL    HW2 5484   3.577   5.813   4.386  1.3137 -0.3761 -0.0558
31852SOL     OW 5485   3.233  10.531   6.518  0.1044  0.2183 -0.0606
31852SOL    HW1 5486   3.193  10.602   6.568  1.1915  1.0626 -0.3175
31852SOL    HW2 5487   3.162  10.470   6.501 -0.5727  0.5609  1.3592
31853SOL     OW 5488  11.989   7.131   0.102  0.0785  0.0091 -0.5733
31853SOL    HW1 5489  12.007   7.152   0.193  0.5783 -0.6121 -0.5255
31853SOL    HW2 5490  12.069   7.154   0.055  0.1509 -0.5328 -0.7179
31854SOL     OW 5491  12.025   8.454   0.141  0.2811  0.0094 -0.2646
31854SOL    HW1 5492  12.044   8.540   0.103 -1.3134  0.2184 -0.6399
31854SOL    HW2 5493  12.094   8.398   0.105  0.1699  0.7036 -1.6529
31855SOL     OW 5494   4.358   2.041   6.217 -0.7519  1.0715  0.1609
31855SOL    HW1 5495   4.373   2.053   6.311 -2.7781  0.5189  0.6197
31855SOL    HW2 5496   4.309   2.119   6.191 -1.0587  0.7659 -0.1924
31856SOL     OW 5497   6.642  11.693   3.102 -0.3907 -0.2247 -0.4696
31856SOL    HW1 5498   6.681  11.624   3.048  2.3398 -0.0842  1.1237
31856SOL    HW2 5499   6.674  11.675   3.190 -3.3545  0.4948  0.8670
31857SOL     OW 5500   9.798  11.605   6.097  0.2699 -0.4833 -0.0874
31857SOL    HW1 5501   9.752  11.549   6.159 -0.9569  1.9873  1.3946
31857SOL    HW2 5502   9.803  11.690   6.140  0.9860  0.8890 -2.6477
31858SOL     OW 5503   3.307   4.912   4.339  0.1767 -0.9681 -0.0400
31858SOL    HW1 5504   3.343   4.924   4.251 -0.4927 -1.4387 -0.3885
31858SOL    HW2 5505   3.381   4.924   4.398  0.7060 -1.0156 -0.6932
31859SOL     OW 5506   5.316   7.803   1.900 -0.5645  0.2801 -0.4877
31859SOL    HW1 5507   5.400   7.829   1.938  0.0999 -1.7677 -0.4489
31859SOL    HW2 5508   5.328   7.813   1.805 -0.6901  1.0689 -0.4300
31860SOL     OW 5509  12.203   6.788   2.532 -0.2356 -0.6025  0.1674
31860SOL    HW1 5510  12.141   6.743   2.589  0.2028  1.0434  2.0282
31860SOL    HW2 5511  12.159   6.870   2.509 -0.3315 -1.1479 -1.7702
31861SOL     OW 5512  13.250   6.803  13.133 -0.1728  0.5689  0.3617
31861SOL    HW1 5513  13.218   6.892  13.148  1.8069  1.7804 -1.9066
31861SOL    HW2 5514  13.204   6.774  13.055 -0.2013 -0.1022  0.6240
31862SOL     OW 5515  11.657   0.187   2.090 -0.4650 -0.0765 -0.7591
31862SOL    HW1 5516  11.573   0.211   2.128 -0.2974 -0.5744 -0.0408
31862SOL    HW2 5517  11.648   0.207   1.997 -1.9518 -1.5873 -1.0050
31863SOL     OW 5518   7.814   7.598  11.288 -0.2524 -0.8359  0.5042
31863SOL    HW1 5519   7.802   7.512  11.248 -2.2831 -1.0572  1.4723
31863SOL    HW2 5520   7.808   7.660  11.215  0.5307 -1.4519 -0.0998
31864SOL     OW 5521  12.507   7.826   0.350  0.2147 -0.2299  0.3069
31864SOL    HW1 5522  12.424   7.871   0.330 -0.5343 -0.9323  1.6878
31864SOL    HW2 5523  12.530   7.857   0.438  1.5902  0.1701 -0.1768
31865SOL     OW 5524   7.530   1.257   5.279 -0.2150  0.0176  0.4038
31865SOL    HW1 5525   7.519   1.352   5.286  0.1728  0.3680 -2.4231
31865SOL    HW2 5526   7.443   1.224   5.257 -0.0269 -0.0487 -0.2605
31866SOL     OW 5527  12.662   2.981  12.517  0.0142 -0.6271  0.6631
31866SOL    HW1 5528  12.585   2.957  12.569 -0.5934 -1.0859 -0.4317
31866SOL    HW2 5529  12.634   2.975  12.426  0.9068  0.7155  0.2625
31867SOL     OW 5530   1.357   7.942  12.992  0.6520  0.2748  0.3673
31867SOL    HW1 5531   1.297   7.914  12.923  1.0216 -0.4678  0.3494
31867SOL    HW2 5532   1.444   7.935  12.953  0.7394  2.1696  0.0971
31868SOL     OW 5533   8.428  10.459  12.702  0.4850 -0.0662  0.2646
31868SOL    HW1 5534   8.400  10.550  12.691  0.0118 -0.1710  0.5896
31868SOL    HW2 5535   8.506  10.451  12.647  0.7235  0.6276  0.4913
31869SOL     OW 5536   0.665   4.279   1.010  0.1352  0.4370 -0.0362
31869SOL    HW1 5537   0.605   4.334   0.960 -0.9570  0.3107  1.0763
31869SOL    HW2 5538   0.669   4.197   0.961 -0.9905  0.2818  0.1044
31870SOL     OW 5539   3.297   0.279   2.000  1.1628  0.2070 -0.1344
31870SOL    HW1 5540   3.361   0.349   2.010  0.8622  0.3509  0.8880
31870SOL    HW2 5541   3.221   0.322   1.960  2.0918 -0.2094 -2.5108
31871SOL     OW 5542   5.339   1.292  10.256  0.0099  0.1787  0.1843
31871SOL    HW1 5543   5.337   1.318  10.164  0.1570  0.0559  0.1457
31871SOL    HW2 5544   5.386   1.208  10.256  0.2977  0.3377  0.4096
31872SOL     OW 5545   0.873   4.524  12.822  0.0949  0.9508 -0.1326
31872SOL    HW1 5546   0.931   4.600  12.812 -0.8223  1.8734  1.2528
31872SOL    HW2 5547   0.885   4.496  12.912 -0.8234  0.4919 -0.1395
31873SOL     OW 5548   7.511   6.789   1.037  0.4859 -0.5099  0.2616
31873SOL    HW1 5549   7.577   6.767   1.102 -0.1605 -2.0080  0.4531
31873SOL    HW2 5550   7.523   6.883   1.021 -0.6139  0.4135  3.9854
31874SOL     OW 5551   3.736   9.023   5.338  0.3553 -0.4185  0.2713
31874SOL    HW1 5552   3.799   9.089   5.309  1.2624 -1.7067 -0.7826
31874SOL    HW2 5553   3.674   9.015   5.264  1.4302 -2.1591 -0.5146
31875SOL     OW 5554   3.679  10.192   9.483 -0.3333 -0.2802  0.3175
31875SOL    HW1 5555   3.670  10.271   9.536  2.4841 -1.0862  2.2348
31875SOL    HW2 5556   3.680  10.121   9.547  3.1364 -1.3209 -0.6942
31876SOL     OW 5557   0.280  12.546   9.957  0.0365  0.2110  0.5078
31876SOL    HW1 5558   0.269  12.621  10.016  0.8256  0.7925 -0.0593
31876SOL    HW2 5559   0.358  12.568   9.905  0.0357 -0.8213  0.0550
31877SOL     OW 5560   2.951   1.079   4.728 -0.6374 -0.2943  0.0770
31877SOL    HW1 5561   2.925   0.992   4.698 -1.9731  0.3270 -0.6236
31877SOL    HW2 5562   2.926   1.080   4.820 -2.4056 -0.0016 -0.3811
31878SOL     OW 5563  12.900   5.990   9.800  0.2764 -0.2249  0.3964
31878SOL    HW1 5564  12.964   6.009   9.731  0.3375  1.2039  0.8128
31878SOL    HW2 5565  12.883   5.896   9.792  0.8671 -0.2292 -1.0489
31879SOL     OW 5566   5.191  10.587  12.357  0.1458  0.0458  0.2643
31879SOL    HW1 5567   5.246  10.552  12.287 -0.8401  0.5273 -0.7977
31879SOL    HW2 5568   5.131  10.515  12.378  0.0440  0.0982  0.1610
31880SOL     OW 5569   7.102   8.220   1.884  0.3873 -0.5943 -0.4086
31880SOL    HW1 5570   7.081   8.313   1.877  1.6294 -0.0489  1.8790
31880SOL    HW2 5571   7.018   8.176   1.871 -0.3754  0.8836 -0.8114
31881SOL     OW 5572   7.693   6.179  11.353 -0.6362  0.4599 -0.1919
31881SOL    HW1 5573   7.631   6.247  11.328 -0.9976  0.1835 -0.0637
31881SOL    HW2 5574   7.768   6.226  11.389 -0.6046  0.8156 -0.7133
31882SOL     OW 5575  13.302   5.852  12.242  0.0696  1.1188 -0.5608
31882SOL    HW1 5576  13.307   5.773  12.296 -2.5460  0.4852 -1.0929
31882SOL    HW2 5577  13.315   5.924  12.304  1.9978  0.3257  0.0159
31883SOL     OW 5578   4.513   5.431   4.985 -0.2905 -0.3473  0.1935
31883SOL    HW1 5579   4.564   5.352   5.004 -1.6294 -1.4458 -0.5669
31883SOL    HW2 5580   4.456   5.442   5.061 -0.2928 -0.2759  0.1813
31884SOL     OW 5581   7.026  11.050   3.304  0.3145  0.3659 -0.1677
31884SOL    HW1 5582   7.121  11.050   3.301  0.3183  0.6515 -2.8599
31884SOL    HW2 5583   7.003  11.143   3.313  0.3217  0.4356 -0.7958
31885SOL     OW 5584   1.091   4.264  13.106 -0.9335 -0.5614 -0.3543
31885SOL    HW1 5585   1.038   4.342  13.092  0.4513  0.3985 -0.4872
31885SOL    HW2 5586   1.108   4.262  13.200  1.0005  0.7083 -0.6093
31886SOL     OW 5587   2.166  11.014   4.709 -1.0358  1.0784  0.1533
31886SOL    HW1 5588   2.117  11.029   4.790 -2.5500  1.4031 -0.7769
31886SOL    HW2 5589   2.120  10.941   4.667  2.0435 -1.7735  1.3385
31887SOL     OW 5590  12.670  10.195  10.803  0.1964 -0.3931  0.1078
31887SOL    HW1 5591  12.587  10.202  10.851 -0.5699 -0.3656 -1.1674
31887SOL    HW2 5592  12.681  10.101  10.789 -0.6948 -0.2939 -1.4731
31888SOL     OW 5593   1.111   2.441  10.897 -0.2234 -0.1286  0.1088
31888SOL    HW1 5594   1.167   2.393  10.959  0.9692  1.1017  0.0424
31888SOL    HW2 5595   1.059   2.373  10.854  2.2270 -1.5476 -0.8251
31889SOL     OW 5596   5.341   0.660   5.417  0.0479 -0.2235 -0.6628
31889SOL    HW1 5597   5.342   0.579   5.365 -2.6879 -1.2560  0.7389
31889SOL    HW2 5598   5.258   0.702   5.394 -1.0310 -0.4772  2.4074
31890SOL     OW 5599   4.906   3.535   0.665 -0.2283  0.6715 -0.4206
31890SOL    HW1 5600   4.824   3.553   0.711 -0.2445  0.4288 -0.3504
31890SOL    HW2 5601   4.957   3.482   0.726 -0.0388  0.7784 -0.4845
31891SOL     OW 5602   8.017   2.548   2.883 -0.6559 -0.5106  0.4138
31891SOL    HW1 5603   8.067   2.523   2.961 -0.2653 -1.2882 -0.0700
31891SOL    HW2 5604   7.989   2.638   2.900  1.1191  0.0405  0.6127
31892SOL     OW 5605  10.225  10.443   5.523 -0.5600 -0.2404  0.2314
31892SOL    HW1 5606  10.221  10.355   5.486  1.2772 -0.5711  0.7111
31892SOL    HW2 5607  10.135  10.474   5.522 -1.1862 -1.9835 -0.2899
31893SOL     OW 5608  12.249   5.989   2.488 -0.4256 -0.2063 -0.1675
31893SOL    HW1 5609  12.268   5.895   2.483  1.3453  0.1608 -1.7817
31893SOL    HW2 5610  12.159   5.997   2.459 -0.2943 -1.3446 -0.9668
31894SOL     OW 5611   2.945   3.864   6.855  0.2654 -0.2452 -0.0968
31894SOL    HW1 5612   3.028   3.852   6.901  0.0613  0.0435  0.3467
31894SOL    HW2 5613   2.968   3.915   6.777  0.2889  1.0224  0.7254
31895SOL     OW 5614  12.332   5.250   0.845 -0.3842 -0.6697  0.1377
31895SOL    HW1 5615  12.328   5.166   0.799  0.2067  0.0032 -1.2071
31895SOL    HW2 5616  12.264   5.303   0.803 -0.2923 -0.2660  0.4985
31896SOL     OW 5617   8.599  11.298  12.870  0.3036 -0.4377 -0.2923
31896SOL    HW1 5618   8.646  11.360  12.924  0.7992 -0.7048 -0.4125
31896SOL    HW2 5619   8.519  11.279  12.919 -0.0412  0.5886 -0.4428
31897SOL     OW 5620   3.836   4.057  11.980 -0.0428  0.0035 -0.0561
31897SOL    HW1 5621   3.919   4.047  11.934 -0.6061  0.3023 -1.1875
31897SOL    HW2 5622   3.771   4.066  11.910 -0.8681  1.0943  0.8079
31898SOL     OW 5623   6.166   7.267   8.820  0.1479  0.2988  0.5681
31898SOL    HW1 5624   6.247   7.278   8.871  0.2628 -0.6829  0.6106
31898SOL    HW2 5625   6.116   7.202   8.869  0.1994 -0.5568 -0.4942
31899SOL     OW 5626   8.876   8.462   6.440  0.5784  0.6210  0.4047
31899SOL    HW1 5627   8.782   8.453   6.458  0.0369  2.9037 -0.8372
31899SOL    HW2 5628   8.918   8.435   6.521 -1.2276  0.6895  1.4331
31900SOL     OW 5629   7.125   8.867   6.798 -0.4082 -0.0356 -0.7478
31900SOL    HW1 5630   7.121   8.827   6.885  0.1053  0.2443 -0.5929
31900SOL    HW2 5631   7.082   8.804   6.741 -0.4247 -0.3887 -0.3490
31901SOL     OW 5632   9.523  12.063   4.813  0.0045 -0.0840  0.0087
31901SOL    HW1 5633   9.560  12.105   4.735 -2.5407 -0.4862 -1.5359
31901SOL    HW2 5634   9.501  12.135   4.871  0.9146  0.3066 -0.1224
31902SOL     OW 5635   7.234  13.060   2.148  0.0455  0.2397  0.4800
31902SOL    HW1 5636   7.268  13.037   2.061  1.4778  3.3943  0.0765
31902SOL    HW2 5637   7.141  13.077   2.132 -0.5825 -2.6255  0.3979
31903SOL     OW 5638   8.224  11.708   0.848  0.2478 -0.5187  0.5979
31903SOL    HW1 5639   8.142  11.756   0.834 -0.2190 -0.4913  3.0465
31903SOL    HW2 5640   8.293  11.772   0.835 -0.1832 -0.1792 -0.0624
31904SOL     OW 5641   6.969   6.183  11.383 -0.0876 -0.1858  0.4302
31904SOL    HW1 5642   6.913   6.110  11.412 -1.0608  1.0225  1.7573
31904SOL    HW2 5643   7.057   6.146  11.381 -0.6827 -1.6596  0.1126
31905SOL     OW 5644  10.967   1.304   6.278  0.6021  0.2919 -0.3431
31905SOL    HW1 5645  11.054   1.266   6.261  0.2910  0.0222 -1.4305
31905SOL    HW2 5646  10.922   1.296   6.194 -0.8403 -0.5102  0.4745
31906SOL     OW 5647  10.484  12.425   3.823 -0.0757  0.8316  0.6990
31906SOL    HW1 5648  10.492  12.345   3.875  0.3388  0.1795 -0.3551
31906SOL    HW2 5649  10.565  12.431   3.774 -0.8561  0.9034 -0.6312
31907SOL     OW 5650   5.091   6.015   1.898 -0.8654 -0.1509 -0.1787
31907SOL    HW1 5651   5.080   5.986   1.988  0.6935  0.9633  0.4211
31907SOL    HW2 5652   5.183   6.041   1.892 -1.1426  0.5968 -1.8479
31908SOL     OW 5653  10.572  12.786   3.729  0.2213  0.4902  0.0682
31908SOL    HW1 5654  10.598  12.856   3.788 -0.5932 -0.1327  1.1995
31908SOL    HW2 5655  10.596  12.705   3.775 -1.9378 -0.0615  0.3523
31909SOL     OW 5656   2.298  12.067   9.768 -0.1246 -0.7636  0.1516
31909SOL    HW1 5657   2.276  11.990   9.717 -0.8689 -0.7477  0.4225
31909SOL    HW2 5658   2.337  12.033   9.849 -0.8807 -0.8949  0.4761
31910SOL     OW 5659   4.152   0.949  11.539  0.5071 -0.3378 -0.1863
31910SOL    HW1 5660   4.217   0.917  11.601 -0.9788 -1.6595  0.7926
31910SOL    HW2 5661   4.118   0.869  11.497 -1.2238  0.1708  0.1502
31911SOL     OW 5662   9.485   7.084  10.369  0.3632 -0.1723  0.5704
31911SOL    HW1 5663   9.531   7.083  10.285 -0.3587 -5.0934 -0.0754
31911SOL    HW2 5664   9.553   7.068  10.435  0.4931  0.0476  0.4880
31912SOL     OW 5665   1.388   1.956   4.306 -0.2836 -0.9351  0.1909
31912SOL    HW1 5666   1.421   1.919   4.388 -1.0630 -0.4878  0.7213
31912SOL    HW2 5667   1.322   1.893   4.276 -1.1830 -0.3121  0.7853
31913SOL     OW 5668  12.494   6.302   2.324  0.3979  0.1697  0.0929
31913SOL    HW1 5669  12.517   6.383   2.279  0.8606 -1.3609 -2.6285
31913SOL    HW2 5670  12.411   6.275   2.286  0.5266 -0.9144  0.5210
31914SOL     OW 5671  10.552  11.869   0.384 -0.9414  0.2352  0.7273
31914SOL    HW1 5672  10.477  11.889   0.328 -0.6305  1.4603  0.7280
31914SOL    HW2 5673  10.583  11.954   0.414  0.0004 -0.3030  1.3242
31915SOL     OW 5674  10.579   3.744   5.763  0.5007  0.1798  0.2250
31915SOL    HW1 5675  10.521   3.788   5.701  0.1763  0.4819  0.7354
31915SOL    HW2 5676  10.622   3.815   5.810  0.1817 -0.0390  0.8656
31916SOL     OW 5677   5.447   0.797  11.126 -0.3797  0.3802  0.4158
31916SOL    HW1 5678   5.421   0.706  11.140 -1.8647  0.4479 -1.4953
31916SOL    HW2 5679   5.529   0.791  11.078 -0.1266  0.0792  0.8727
31917SOL     OW 5680   8.757   3.618   1.828  0.3002  0.0717  0.6122
31917SOL    HW1 5681   8.817   3.562   1.778 -0.7354 -0.4714 -0.0794
31917SOL    HW2 5682   8.743   3.571   1.910  0.5243  0.0075  0.6134
31918SOL     OW 5683   3.834  12.795   9.883  0.0751  0.2743  0.1300
31918SOL    HW1 5684   3.777  12.741   9.939 -1.2378  1.5428  0.0843
31918SOL    HW2 5685   3.864  12.735   9.815 -1.0099 -0.5176  0.3139
31919SOL     OW 5686  12.868   7.196   0.612  0.0481 -0.1099  0.1753
31919SOL    HW1 5687  12.901   7.258   0.678  1.3824 -0.2319 -0.3540
31919SOL    HW2 5688  12.868   7.245   0.530 -0.2436 -0.3949  0.0011
31920SOL     OW 5689   2.831   7.043  12.479  0.4784  0.1126 -0.3364
31920SOL    HW1 5690   2.806   7.115  12.421 -0.0996  0.5487  0.4263
31920SOL    HW2 5691   2.795   6.965  12.437 -1.4373  0.6224  0.2672
31921SOL     OW 5692  11.779   1.474   5.089  0.0068  0.1421  0.2823
31921SOL    HW1 5693  11.818   1.446   5.006 -0.2602 -0.5851  0.3915
31921SOL    HW2 5694  11.828   1.426   5.156  0.9969  1.5938  0.6512
31922SOL     OW 5695   9.698   6.985  10.249  0.5164  0.9566 -0.8250
31922SOL    HW1 5696   9.746   6.925  10.192  0.0416 -0.2918  0.0269
31922SOL    HW2 5697   9.765   7.024  10.306  0.7341  0.5494 -0.7983
31923SOL     OW 5698   9.465   9.269   3.695 -0.4788  0.2056 -0.0779
31923SOL    HW1 5699   9.499   9.333   3.632 -2.1683  0.5962 -0.6655
31923SOL    HW2 5700   9.370   9.279   3.688 -0.7913 -2.2975 -0.0755
31924SOL     OW 5701   4.820   8.929   2.012 -0.7045  0.5580 -0.0631
31924SOL    HW1 5702   4.916   8.934   2.016 -0.6377  0.0206 -0.9092
31924SOL    HW2 5703   4.791   8.977   2.089  0.2784 -0.9716  1.3164
31925SOL     OW 5704  13.020   0.877   4.735  0.2194 -0.4213  0.8051
31925SOL    HW1 5705  13.043   0.785   4.729  0.2975 -0.5778  2.8071
31925SOL    HW2 5706  13.100   0.921   4.763  0.1554  0.2541 -0.0252
31926SOL     OW 5707  12.813   2.267   3.003  0.2209  0.2257 -0.1897
31926SOL    HW1 5708  12.850   2.343   3.048 -1.6913  0.7714  0.5631
31926SOL    HW2 5709  12.813   2.198   3.069  2.4749 -0.6612 -1.0350
31927SOL     OW 5710   7.912   8.069   6.777  0.1277 -0.6816  0.9445
31927SOL    HW1 5711   7.954   8.064   6.864 -0.6532  2.6515  1.6529
31927SOL    HW2 5712   7.928   8.158   6.748 -0.1616 -1.5265 -2.1675
31928SOL     OW 5713   1.040   1.834   6.981 -0.1372  0.3683  0.0987
31928SOL    HW1 5714   1.084   1.877   6.908  1.1803  0.5505  0.9685
31928SOL    HW2 5715   1.020   1.906   7.042  1.2919 -0.0961  1.1615
31929SOL     OW 5716   4.741  11.956   2.261  0.1282  0.0394 -0.4214
31929SOL    HW1 5717   4.766  12.007   2.339 -0.5885  1.2821 -0.9647
31929SOL    HW2 5718   4.645  11.955   2.263  0.1176 -0.4938 -0.9328
31930SOL     OW 5719   6.812   0.857  12.506 -0.1849 -0.5944  0.0494
31930SOL    HW1 5720   6.744   0.925  12.507  1.5185  1.1951  1.9011
31930SOL    HW2 5721   6.853   0.866  12.420 -1.2791 -0.6963 -0.5067
31931SOL     OW 5722   1.051   0.046   4.707  0.2914 -0.2053 -0.2238
31931SOL    HW1 5723   1.098   0.041   4.790  0.3221 -1.1243 -0.2842
31931SOL    HW2 5724   1.055  -0.044   4.672 -0.4719 -0.0235 -0.7952
31932SOL     OW 5725   0.639   7.294  10.894  0.1759  0.0254 -0.3719
31932SOL    HW1 5726   0.690   7.297  10.813 -0.6083  1.6998 -0.8356
31932SOL    HW2 5727   0.549   7.312  10.867 -0.2943 -0.5762  0.7333
31933SOL     OW 5728   6.614   0.177   1.057 -0.6184 -0.3160  0.3931
31933SOL    HW1 5729   6.573   0.241   0.999 -0.0337 -0.2254  0.0747
31933SOL    HW2 5730   6.582   0.200   1.144 -0.4624  0.3730  0.2743
31934SOL     OW 5731  11.734   2.201  11.311 -0.0829  0.3924  0.2807
31934SOL    HW1 5732  11.730   2.105  11.314  1.0420  0.3526  1.1961
31934SOL    HW2 5733  11.680   2.225  11.236  0.1281 -0.9994 -0.3497
31935SOL     OW 5734  12.094   3.666   2.806  0.1623  0.0570  0.0469
31935SOL    HW1 5735  12.158   3.598   2.825 -1.6772 -2.0116 -0.7360
31935SOL    HW2 5736  12.043   3.675   2.886 -0.5301 -0.6012 -0.3048
31936SOL     OW 5737  10.426   0.278   0.125  0.4476 -0.7151 -0.3151
31936SOL    HW1 5738  10.333   0.266   0.145  0.7034 -1.6107  0.4343
31936SOL    HW2 5739  10.442   0.222   0.049  0.7585 -2.0586  0.7011
31937SOL     OW 5740   8.479  12.603  11.807  0.0984  0.1504 -0.1796
31937SOL    HW1 5741   8.523  12.680  11.771  0.2771  0.1967  0.1297
31937SOL    HW2 5742   8.549  12.551  11.847 -0.1124  0.1732  0.2274
31938SOL     OW 5743   2.682   4.768   4.690  0.0409  0.3711 -0.2503
31938SOL    HW1 5744   2.601   4.810   4.662  0.6421  2.0048  0.3505
31938SOL    HW2 5745   2.699   4.804   4.777  2.0840  1.0924 -0.8915
31939SOL     OW 5746   7.543   9.394   7.061  0.1278  0.3387 -0.6954
31939SOL    HW1 5747   7.456   9.380   7.098  0.8530 -0.5474  0.7357
31939SOL    HW2 5748   7.541   9.485   7.030 -0.4996  1.1834  1.6310
31940SOL     OW 5749  12.837  10.835   3.334 -0.0269 -0.2641  0.1712
31940SOL    HW1 5750  12.771  10.860   3.269  0.5218  0.3288 -0.1690
31940SOL    HW2 5751  12.862  10.918   3.375  0.4711 -0.4902  0.3300
31941SOL     OW 5752   5.217   7.081   5.814 -0.1495  0.0845  0.4013
31941SOL    HW1 5753   5.167   7.040   5.885 -2.5443  2.1286  0.0546
31941SOL    HW2 5754   5.288   7.127   5.859 -1.1272  0.6337  1.4462
31942SOL     OW 5755  11.048   0.808   8.573  0.1230 -0.7011 -0.2256
31942SOL    HW1 5756  11.142   0.829   8.573 -0.0759  0.2315 -0.4411
31942SOL    HW2 5757  11.028   0.788   8.664  0.4137 -0.3125 -0.0725
31943SOL     OW 5758   0.826   2.483   7.090  0.3632 -0.4283  0.2356
31943SOL    HW1 5759   0.880   2.404   7.101  1.4104 -0.2211 -2.5047
31943SOL    HW2 5760   0.888   2.549   7.060 -1.1315  0.3388 -1.2690
31944SOL     OW 5761   9.908   1.279   3.319  0.2823 -0.2411  0.7427
31944SOL    HW1 5762   9.973   1.301   3.252  0.3021 -0.3863  0.7134
31944SOL    HW2 5763   9.874   1.194   3.292 -1.0110  0.5112 -0.0594
31945SOL     OW 5764   1.691   4.059  11.670  0.4894  0.5269  0.1474
31945SOL    HW1 5765   1.706   4.150  11.693 -0.2991  0.3472  1.4711
31945SOL    HW2 5766   1.689   4.058  11.574 -0.4003  2.0518  0.1273
31946SOL     OW 5767   2.178   4.440  12.441  0.0878  0.3465 -0.2952
31946SOL    HW1 5768   2.238   4.484  12.501  1.4327 -1.6175 -0.0989
31946SOL    HW2 5769   2.097   4.429  12.492  0.5751  0.3765  0.5011
31947SOL     OW 5770   7.379   0.429   6.435 -0.5315  0.0116 -0.8079
31947SOL    HW1 5771   7.438   0.504   6.429 -0.5983  0.0949 -0.4631
31947SOL    HW2 5772   7.338   0.424   6.348  0.8892 -0.8133 -1.4637
31948SOL     OW 5773   5.247   9.865   3.873 -0.1934 -0.7618 -0.5376
31948SOL    HW1 5774   5.177   9.841   3.933 -0.9894  0.5073 -0.9122
31948SOL    HW2 5775   5.206   9.862   3.786 -0.1086  0.9406 -0.6795
31949SOL     OW 5776   2.207   1.682  12.041  0.4389  0.1112 -0.2663
31949SOL    HW1 5777   2.162   1.747  12.095 -1.4164 -1.8401  0.6720
31949SOL    HW2 5778   2.299   1.709  12.042  0.8069 -0.4204  4.8930
31950SOL     OW 5779   1.115   1.023   2.376  0.3904 -0.1883  0.1852
31950SOL    HW1 5780   1.121   0.938   2.419 -1.0860 -0.2268  0.3687
31950SOL    HW2 5781   1.133   1.087   2.445  0.3590 -0.3158  0.3116
31951SOL     OW 5782  11.610   4.670   9.812 -0.1420  0.1055  0.3513
31951SOL    HW1 5783  11.703   4.679   9.792  0.2014 -0.9190  1.3890
31951SOL    HW2 5784  11.569   4.745   9.770  1.3220  1.3189  1.0053
31952SOL     OW 5785   8.196   8.297  13.139  0.7711  0.6606  0.2622
31952SOL    HW1 5786   8.189   8.390  13.118  2.1732  0.7367  0.0461
31952SOL    HW2 5787   8.290   8.281  13.148  0.5014 -0.5281  1.2712
31953SOL     OW 5788   1.179   4.946   7.654 -0.0547 -0.0866 -0.0910
31953SOL    HW1 5789   1.202   5.018   7.713 -1.3229 -0.1927  0.5688
31953SOL    HW2 5790   1.092   4.970   7.620  0.0067 -0.7615 -0.7402
31954SOL     OW 5791   4.971   5.828  10.258  0.4004 -0.1278  0.5479
31954SOL    HW1 5792   4.914   5.881  10.314  0.2762  0.9615 -0.5663
31954SOL    HW2 5793   5.050   5.815  10.310  0.2638  0.8080  1.0121
31955SOL     OW 5794   2.916  10.416   2.566 -0.2284 -0.0848  0.0517
31955SOL    HW1 5795   2.831  10.379   2.589 -0.6461  0.6746 -0.2322
31955SOL    HW2 5796   2.903  10.453   2.478  0.2654  0.4223  0.1829
31956SOL     OW 5797   0.945   4.637  12.195 -0.0349  0.3280 -0.0569
31956SOL    HW1 5798   1.028   4.590  12.186 -0.4856 -0.3664 -0.6767
31956SOL    HW2 5799   0.893   4.608  12.120 -0.9856  0.4469  0.5454
31957SOL     OW 5800  11.846   4.408   9.497  0.1814 -0.2847 -0.4221
31957SOL    HW1 5801  11.786   4.389   9.569 -0.6746  0.1785 -0.9968
31957SOL    HW2 5802  11.910   4.469   9.535  0.4207 -0.9330  0.2480
31958SOL     OW 5803   8.642   6.277   4.056  0.0756 -1.0048  0.2566
31958SOL    HW1 5804   8.604   6.285   4.144 -1.1697  1.2899 -0.3891
31958SOL    HW2 5805   8.574   6.312   3.998  1.7770 -0.1680 -1.3517
31959SOL     OW 5806   9.548   1.432   2.677  0.1995  0.5309  0.2719
31959SOL    HW1 5807   9.602   1.385   2.741  0.8322  1.7288  0.6459
31959SOL    HW2 5808   9.485   1.481   2.729 -0.1986  0.4047 -0.0908
31960SOL     OW 5809   3.518   7.413   4.560  0.0409  0.3142  0.3848
31960SOL    HW1 5810   3.608   7.421   4.590  0.0603  0.6304  0.2399
31960SOL    HW2 5811   3.520   7.340   4.498  0.8182  2.1906 -1.9590
31961SOL     OW 5812   3.665   2.513   6.691  0.3364 -0.3837  0.6329
31961SOL    HW1 5813   3.608   2.562   6.633  1.2588 -0.0542 -0.0104
31961SOL    HW2 5814   3.617   2.509   6.774 -1.1737 -1.2112 -0.2307
31962SOL     OW 5815   3.412   5.200   3.435 -0.0843 -0.7488  0.3912
31962SOL    HW1 5816   3.448   5.137   3.371 -0.9299 -0.5744 -0.2722
31962SOL    HW2 5817   3.479   5.205   3.503  0.5227 -1.4857 -0.1275
31963SOL     OW 5818   8.195   5.487   3.920  0.2068 -0.2578 -0.3074
31963SOL    HW1 5819   8.227   5.430   3.991  0.8490 -3.2314 -2.7787
31963SOL    HW2 5820   8.105   5.508   3.945  0.2136 -1.7235  1.1441
31964SOL     OW 5821   4.792   5.908   7.920 -0.4115  0.7998 -0.0699
31964SOL    HW1 5822   4.767   5.902   7.828 -0.9596  1.1573  0.0526
31964SOL    HW2 5823   4.743   5.984   7.954  1.0081  1.6849  0.1092
31965SOL     OW 5824   8.122   7.095   1.056  0.0267  0.5222 -0.1265
31965SOL    HW1 5825   8.120   7.077   1.151  1.2110 -1.2153 -0.3825
31965SOL    HW2 5826   8.032   7.120   1.035 -0.6418 -0.5915  1.2160
31966SOL     OW 5827   1.272  13.131   8.554 -0.0743 -0.0301 -0.2309
31966SOL    HW1 5828   1.181  13.102   8.555 -0.0103 -0.2283  0.9535
31966SOL    HW2 5829   1.298  13.124   8.462  0.0636 -4.2419 -0.0859
31967SOL     OW 5830  10.169  13.298   1.710  0.9221  0.1530 -0.0957
31967SOL    HW1 5831  10.190  13.225   1.651 -0.6963 -0.5671  0.1689
31967SOL    HW2 5832  10.154  13.372   1.652 -3.6553 -1.2039 -1.0556
31968SOL     OW 5833   8.289  10.958   9.084 -0.0099 -0.2625  0.0970
31968SOL    HW1 5834   8.352  10.885   9.091 -0.2076 -0.4218  0.2197
31968SOL    HW2 5835   8.275  10.967   8.989 -1.2918 -1.5177  0.1398
31969SOL     OW 5836  12.565  12.929  12.801 -0.2014  0.3946 -0.1993
31969SOL    HW1 5837  12.564  12.841  12.840 -1.3796 -1.1196 -3.2808
31969SOL    HW2 5838  12.487  12.972  12.834 -1.8257 -1.2880 -1.6150
31970SOL     OW 5839   8.826   6.252   5.487 -0.3602 -0.1555  0.4749
31970SOL    HW1 5840   8.847   6.344   5.500  1.4771 -0.5788  0.7435
31970SOL    HW2 5841   8.846   6.235   5.395  0.7988 -0.6364  0.8033
31971SOL     OW 5842   4.615   3.388   4.113 -0.3792  0.1469  0.1469
31971SOL    HW1 5843   4.673   3.410   4.040  1.8795 -1.6145  1.2966
31971SOL    HW2 5844   4.639   3.450   4.182 -1.6559  1.0059 -0.1376
31972SOL     OW 5845   2.774  10.981   7.369 -0.3086 -0.4151 -0.0190
31972SOL    HW1 5846   2.691  11.009   7.408 -0.7440 -0.5270 -0.8502
31972SOL    HW2 5847   2.833  10.971   7.444 -1.7894 -3.0119  0.9463
31973SOL     OW 5848   2.701   2.014   3.473 -0.4891 -0.1971  0.0026
31973SOL    HW1 5849   2.665   2.048   3.555  0.6571  1.4559 -0.1240
31973SOL    HW2 5850   2.690   1.919   3.479 -2.5536  0.0441  1.0146
31974SOL     OW 5851  12.868  10.705   1.382  0.2413  0.1968 -0.3425
31974SOL    HW1 5852  12.910  10.768   1.323 -2.3739 -0.2225 -2.8645
31974SOL    HW2 5853  12.785  10.746   1.406 -0.1362 -1.0033  0.4664
31975SOL     OW 5854   0.681   3.536   2.470 -0.1193  0.3261 -0.4641
31975SOL    HW1 5855   0.771   3.507   2.483 -0.1467  0.8386  0.9496
31975SOL    HW2 5856   0.671   3.539   2.375  1.3805  0.3724 -0.6432
31976SOL     OW 5857  13.131   3.689  10.999 -0.2501 -0.0270 -0.1198
31976SOL    HW1 5858  13.123   3.657  10.909  1.2462 -0.3462 -0.1682
31976SOL    HW2 5859  13.160   3.780  10.990 -0.4711  0.0617  0.0442
31977SOL     OW 5860  12.250   3.469   2.937  0.4365  0.0998 -0.4941
31977SOL    HW1 5861  12.288   3.393   2.893  0.6157  0.4292 -0.9181
31977SOL    HW2 5862  12.209   3.433   3.015  0.8056 -0.3886 -0.5171
31978SOL     OW 5863   5.530   6.687   2.869 -0.3113  0.4662  0.2665
31978SOL    HW1 5864   5.530   6.644   2.784 -1.0645  0.4574  0.2604
31978SOL    HW2 5865   5.462   6.641   2.919 -2.1610  2.5220 -0.1982
31979SOL     OW 5866   5.266   2.700  12.928  0.6547 -0.0903 -0.3502
31979SOL    HW1 5867   5.261   2.754  12.849  0.4211 -1.1111 -1.0566
31979SOL    HW2 5868   5.341   2.643  12.914  0.1603 -0.7975 -0.1819
31980SOL     OW 5869   9.539  12.599   8.462  0.1238 -0.2186  0.0093
31980SOL    HW1 5870   9.464  12.541   8.447 -0.9711  1.4166 -1.2352
31980SOL    HW2 5871   9.608  12.564   8.406  0.1219 -1.3900  0.7026
31981SOL     OW 5872  10.462   5.464  10.201  0.0344  0.5137 -0.0984
31981SOL    HW1 5873  10.521   5.435  10.132 -0.2514 -1.4939  0.4590
31981SOL    HW2 5874  10.396   5.395  10.208  1.2256 -0.5098  3.5638
31982SOL     OW 5875   0.025   6.939   5.490 -0.0219  0.1352 -0.4319
31982SOL    HW1 5876   0.112   6.924   5.452  0.3474 -1.3441  0.9184
31982SOL    HW2 5877  -0.035   6.921   5.418  0.7328 -0.3506 -0.9620
31983SOL     OW 5878   7.311  10.712   8.878 -0.8304  0.6678 -0.5435
31983SOL    HW1 5879   7.386  10.718   8.936 -0.7280 -1.2660 -0.4404
31983SOL    HW2 5880   7.242  10.761   8.923 -0.2806  0.5781  0.4186
31984SOL     OW 5881  10.441   8.339   4.614 -0.0205  0.1025 -0.6189
31984SOL    HW1 5882  10.489   8.336   4.697 -0.2582  0.7210 -0.4463
31984SOL    HW2 5883  10.349   8.336   4.640 -0.0978  0.3666 -0.8521
31985SOL     OW 5884   4.047  10.317   9.095 -0.1843 -0.3701  0.2483
31985SOL    HW1 5885   4.056  10.294   9.187 -2.0668 -1.0397  0.3200
31985SOL    HW2 5886   3.987  10.250   9.060  0.4597 -0.1104 -1.4450
31986SOL     OW 5887   6.450   0.518   4.576  0.2938 -0.0054  0.4928
31986SOL    HW1 5888   6.498   0.587   4.530  0.7924  0.2931  1.4334
31986SOL    HW2 5889   6.448   0.445   4.514  1.5088  0.1608  0.2345
31987SOL     OW 5890   7.164   1.683   3.911 -0.6566  0.1768  0.1420
31987SOL    HW1 5891   7.189   1.677   3.819  0.9497 -0.0547  0.5661
31987SOL    HW2 5892   7.188   1.598   3.948 -0.8613  0.4306  0.8789
31988SOL     OW 5893   4.766   9.123   7.869  0.0217 -0.4924 -0.0871
31988SOL    HW1 5894   4.768   9.213   7.836  1.1310 -0.1395  0.8711
31988SOL    HW2 5895   4.685   9.086   7.834 -0.3492  0.8157 -0.6613
31989SOL     OW 5896   4.909   2.448   4.881 -0.5024 -0.0147  0.5042
31989SOL    HW1 5897   4.818   2.425   4.901 -1.1927  1.0424 -1.1499
31989SOL    HW2 5898   4.920   2.424   4.789  1.0108 -0.4037  0.7666
31990SOL     OW 5899   6.968   2.711   1.624 -0.1688 -0.1433  0.6691
31990SOL    HW1 5900   6.888   2.660   1.633 -0.6857 -0.2219 -2.9481
31990SOL    HW2 5901   7.032   2.665   1.679 -2.1878 -0.7997  2.6436
31991SOL     OW 5902   4.596   4.146   8.353 -0.1197 -0.6598  0.2130
31991SOL    HW1 5903   4.656   4.191   8.293 -0.6047 -0.9181 -0.4635
31991SOL    HW2 5904   4.528   4.109   8.297 -1.5592  0.5913  1.0493
31992SOL     OW 5905   1.222   1.821   1.089 -0.1685  0.6938  0.0628
31992SOL    HW1 5906   1.225   1.873   1.009 -0.2545  0.3126 -0.1905
31992SOL    HW2 5907   1.305   1.840   1.134  0.2027  0.3423 -0.4717
31993SOL     OW 5908   7.248   8.390  11.718 -0.2349 -0.1614  0.1992
31993SOL    HW1 5909   7.227   8.481  11.742 -1.6947 -0.2644 -0.5735
31993SOL    HW2 5910   7.271   8.394  11.625  0.8184 -0.4386  0.4326
31994SOL     OW 5911  11.325  10.395   7.401 -0.1921  0.4528 -0.8674
31994SOL    HW1 5912  11.417  10.422   7.398  0.0203 -0.2443 -0.7838
31994SOL    HW2 5913  11.302  10.398   7.494  0.0219 -0.2671 -0.7873
31995SOL     OW 5914   2.501   9.517   9.989 -0.7121  0.3710 -0.4837
31995SOL    HW1 5915   2.524   9.439  10.038 -0.1169  0.8021 -0.0578
31995SOL    HW2 5916   2.429   9.490   9.932 -1.1141 -0.2415  0.3093
31996SOL     OW 5917   6.630   0.396   9.339  0.2717  0.2951 -0.3335
31996SOL    HW1 5918   6.712   0.392   9.289  0.0501  1.8347 -0.8824
31996SOL    HW2 5919   6.579   0.464   9.294 -1.9658 -1.6753 -0.9740
31997SOL     OW 5920   5.892   1.285   0.927  0.1516 -0.7577 -0.0376
31997SOL    HW1 5921   5.967   1.225   0.934  0.5044 -0.4180 -0.8232
31997SOL    HW2 5922   5.863   1.298   1.017  1.6646 -0.1018  0.3847
31998SOL     OW 5923   7.528  11.910  11.953 -0.4242  0.1942  0.1951
31998SOL    HW1 5924   7.572  11.854  12.017  0.9978 -0.5179 -1.3507
31998SOL    HW2 5925   7.446  11.934  11.995 -0.1461 -1.3695  1.7262
31999SOL     OW 5926   0.182   7.313  11.867  0.0389 -0.2399 -0.2024
31999SOL    HW1 5927   0.105   7.313  11.925 -1.5068 -2.3595 -2.0749
31999SOL    HW2 5928   0.180   7.227  11.825  2.5087  0.2949 -1.5972
32000SOL     OW 5929  11.677   7.889  11.855 -0.3307  0.0718  0.2602
32000SOL    HW1 5930  11.685   7.860  11.764 -0.7518 -1.9815  0.8298
32000SOL    HW2 5931  11.762   7.928  11.875  0.3712 -1.0421 -0.4871
32001SOL     OW 5932   0.453   1.736   3.041 -0.0358 -0.0166 -0.2514
32001SOL    HW1 5933   0.383   1.793   3.074  1.7180  2.1371  0.0389
32001SOL    HW2 5934   0.436   1.730   2.947 -2.0452 -1.7530  0.1558
32002SOL     OW 5935   6.969   1.085   5.207  0.2069  0.0148 -0.3747
32002SOL    HW1 5936   6.880   1.111   5.234  1.3203  1.2245  2.5545
32002SOL    HW2 5937   6.981   0.999   5.246 -0.2013 -0.9446 -2.2417
32003SOL     OW 5938  11.725   9.936   8.002 -0.2052 -0.4071 -0.4103
32003SOL    HW1 5939  11.763   9.999   7.940  0.2430 -2.6582 -2.5869
32003SOL    HW2 5940  11.631   9.953   7.998 -0.0067  0.9157  0.0213
32004SOL     OW 5941   7.964  10.045   0.959 -0.0936  0.8162 -0.1223
32004SOL    HW1 5942   8.020   9.980   0.915 -0.0013  1.1064 -0.4376
32004SOL    HW2 5943   7.914   9.994   1.023  0.0311  0.4438 -0.3181
32005SOL     OW 5944  10.284   6.737   6.696  0.1801 -0.6144  0.4865
32005SOL    HW1 5945  10.344   6.767   6.628  2.2822 -1.6984  1.7096
32005SOL    HW2 5946  10.218   6.805   6.703  0.0057 -0.3664 -2.4231
32006SOL     OW 5947   4.221  11.422   0.787 -0.0498 -0.0543 -0.1939
32006SOL    HW1 5948   4.206  11.516   0.771 -1.5091 -0.3651 -0.7820
32006SOL    HW2 5949   4.178  11.405   0.871 -1.4061 -0.5746 -0.9838
32007SOL     OW 5950   4.411   6.406   7.724 -0.0096  0.0988  0.3237
32007SOL    HW1 5951   4.364   6.479   7.763  1.0602  1.7197 -1.2298
32007SOL    HW2 5952   4.352   6.373   7.656  0.7311  1.6854 -1.1615
32008SOL     OW 5953   8.968   7.675   5.972 -0.2655  0.8322 -0.9209
32008SOL    HW1 5954   8.938   7.674   5.881  1.3882 -0.5613 -1.5054
32008SOL    HW2 5955   9.062   7.657   5.966 -0.1416  0.6539  1.0740
32009SOL     OW 5956  11.945  10.307   8.613  0.3114 -0.0989 -0.5427
32009SOL    HW1 5957  11.958  10.282   8.705  2.5091 -0.9121 -1.0061
32009SOL    HW2 5958  11.972  10.230   8.564 -3.1166 -0.5926 -1.9206
32010SOL     OW 5959   2.886   9.623   1.533 -0.3475  0.3419  0.4343
32010SOL    HW1 5960   2.936   9.666   1.603 -1.3703 -0.1430  1.4942
32010SOL    HW2 5961   2.812   9.581   1.578 -0.1587 -1.3530 -0.7313
32011SOL     OW 5962   8.281  12.970   3.194 -0.1387 -0.6522 -0.3237
32011SOL    HW1 5963   8.356  12.939   3.245  1.9840  2.5152 -1.1865
32011SOL    HW2 5964   8.210  12.978   3.257  1.3066 -0.3699  1.3609
32012SOL     OW 5965   2.835   1.874   0.317 -0.2766 -0.0480 -0.0671
32012SOL    HW1 5966   2.856   1.817   0.390  1.3268  0.1472 -0.3500
32012SOL    HW2 5967   2.875   1.958   0.339 -1.3259  0.5441 -0.3468
32013SOL     OW 5968  12.942   7.545   7.339  1.0402 -0.4583 -1.0467
32013SOL    HW1 5969  12.939   7.555   7.244  0.4734  1.7640 -0.8591
32013SOL    HW2 5970  12.983   7.626   7.370 -1.1000  0.0392  0.7165
32014SOL     OW 5971  12.341   9.418   3.398 -0.0137 -0.4590 -0.4059
32014SOL    HW1 5972  12.353   9.508   3.368 -0.3091 -0.8330 -1.7215
32014SOL    HW2 5973  12.375   9.418   3.487  3.0048  0.2115 -1.4465
32015SOL     OW 5974   5.488  12.714   2.213  0.2709 -0.6946  0.0264
32015SOL    HW1 5975   5.505  12.804   2.184 -1.8011 -0.2804 -0.0411
32015SOL    HW2 5976   5.554  12.698   2.280  2.3538 -0.0981 -1.7305
32016SOL     OW 5977   8.784   6.823  10.868  0.0429 -0.6091  0.1776
32016SOL    HW1 5978   8.798   6.849  10.959  0.3700 -1.4903  0.3842
32016SOL    HW2 5979   8.772   6.728  10.871  0.6373 -0.7244 -0.7621
32017SOL     OW 5980   4.468   8.362   4.963 -0.0446  0.3339 -0.1310
32017SOL    HW1 5981   4.387   8.330   4.926 -0.7203  0.9356  0.7717
32017SOL    HW2 5982   4.466   8.333   5.055  0.3751  1.0315  0.1104
32018SOL     OW 5983   8.524   9.266   1.855  0.4311 -0.2793  0.1566
32018SOL    HW1 5984   8.555   9.346   1.811  0.0951 -0.3615 -0.2393
32018SOL    HW2 5985   8.430   9.264   1.836  0.1513  0.0269  1.4452
32019SOL     OW 5986   2.714   7.781  10.598 -0.4938 -0.3965  0.6670
32019SOL    HW1 5987   2.802   7.787  10.637  0.5619 -1.4105 -1.3995
32019SOL    HW2 5988   2.718   7.839  10.522 -1.6865 -0.3280  0.6462
32020SOL     OW 5989   6.438  11.353   2.059 -0.1916 -0.1773 -0.4238
32020SOL    HW1 5990   6.525  11.385   2.080 -0.5674  0.7112 -0.1739
32020SOL    HW2 5991   6.445  11.321   1.969  0.4874 -0.5030 -0.2624
32021SOL     OW 5992   3.939  10.976   9.815  0.4309  0.3159 -0.5763
32021SOL    HW1 5993   3.870  11.041   9.823  0.4682  0.1577  1.3324
32021SOL    HW2 5994   4.018  11.022   9.845  0.4441 -0.5996  0.8422
32022SOL     OW 5995  11.228  12.163   4.208  0.2098  0.0541 -0.3377
32022SOL    HW1 5996  11.167  12.159   4.282  0.6759 -1.8536  0.0120
32022SOL    HW2 5997  11.173  12.183   4.133 -0.7326 -0.7684  0.1049
32023SOL     OW 5998   9.493   4.885   5.237 -0.1408  0.0611  0.0688
32023SOL    HW1 5999   9.587   4.876   5.254 -0.0599 -1.0905 -0.8409
32023SOL    HW2 6000   9.481   4.977   5.214  0.4169  0.6907  2.0843
32024SOL     OW 6001   5.912   1.292   4.089  0.0982  0.4835 -0.3305
32024SOL    HW1 6002   5.837   1.253   4.044 -0.2188  0.6741  0.0297
32024SOL    HW2 6003   5.907   1.385   4.065  0.6145  0.3837 -0.8552
32025SOL     OW 6004  11.825   2.409  10.343  0.1061 -0.3756 -0.2896
32025SOL    HW1 6005  11.893   2.474  10.362  0.3037 -0.5163 -0.5033
32025SOL    HW2 6006  11.861   2.358  10.270  0.2754 -1.2115  0.3721
32026SOL     OW 6007   5.265  10.818   2.986  0.4351  0.2400  0.3661
32026SOL    HW1 6008   5.319  10.876   2.933  0.5842 -0.5658 -0.3860
32026SOL    HW2 6009   5.226  10.757   2.924  1.4100 -1.3707  1.2672
32027SOL     OW 6010   0.313   1.896   5.685 -0.4717  0.1240 -0.3721
32027SOL    HW1 6011   0.321   1.833   5.613 -1.6091  1.0957 -1.3853
32027SOL    HW2 6012   0.258   1.851   5.749  0.1275 -0.5539 -0.3191
32028SOL     OW 6013   7.796   5.524   1.849 -0.3998 -0.0633  0.5776
32028SOL    HW1 6014   7.733   5.471   1.801 -1.6952  1.0909  0.9365
32028SOL    HW2 6015   7.865   5.462   1.875 -0.2841 -0.9613 -1.6321
32029SOL     OW 6016   6.045  10.871  10.113  0.0929 -0.5572  0.2228
32029SOL    HW1 6017   6.074  10.878  10.022 -1.3043  1.4228 -0.1485
32029SOL    HW2 6018   6.122  10.890  10.165  0.6605 -0.6609 -0.5632
32030SOL     OW 6019   0.959   4.118   2.912 -0.1548  0.2917  0.5224
32030SOL    HW1 6020   0.944   4.056   2.983 -1.3209  0.3203  0.3301
32030SOL    HW2 6021   1.008   4.068   2.846 -1.9776 -0.7946 -0.0801
32031SOL     OW 6022   8.812  11.557   2.404 -0.1282  0.4591  0.0464
32031SOL    HW1 6023   8.787  11.619   2.473  0.4301  0.2064  0.4868
32031SOL    HW2 6024   8.732  11.509   2.385  0.0446 -0.5062  1.6075
32032SOL     OW 6025   5.249   5.196   6.554 -0.4300  0.8328  0.7637
32032SOL    HW1 6026   5.212   5.259   6.492 -0.0148  2.4497  2.0743
32032SOL    HW2 6027   5.329   5.165   6.511 -0.8911  0.8267 -0.1121
32033SOL     OW 6028   8.411   3.209  11.577 -0.2305 -0.2387  0.0003
32033SOL    HW1 6029   8.330   3.258  11.559 -0.1375 -0.0602  0.0649
32033SOL    HW2 6030   8.396   3.123  11.537  0.4842  0.5573 -2.0789
32034SOL     OW 6031   9.155  12.604   4.630 -0.0316  0.1383 -0.1617
32034SOL    HW1 6032   9.179  12.534   4.569 -1.3421 -0.3487 -0.1624
32034SOL    HW2 6033   9.067  12.630   4.602  0.8409  2.5840 -0.8590
32035SOL     OW 6034  12.593   3.115   7.633 -0.3203 -0.5006  0.0944
32035SOL    HW1 6035  12.635   3.042   7.678 -0.0848 -0.3023  0.2008
32035SOL    HW2 6036  12.662   3.182   7.626 -0.2888 -0.6128 -0.7497
32036SOL     OW 6037   9.627   3.555   8.262  0.4003 -0.0824  0.2037
32036SOL    HW1 6038   9.605   3.627   8.320 -2.2634  0.1320 -0.9363
32036SOL    HW2 6039   9.586   3.578   8.178  2.1395 -1.4609 -1.1251
32037SOL     OW 6040   9.765   6.708   9.001 -0.0980 -0.1728 -0.1912
32037SOL    HW1 6041   9.786   6.648   8.929 -2.1517 -0.7914 -0.3324
32037SOL    HW2 6042   9.704   6.659   9.056 -1.7152  1.7130 -0.2106
32038SOL     OW 6043   3.626  12.008  11.190  0.6162 -0.3868 -0.0883
32038SOL    HW1 6044   3.584  11.923  11.176  0.7914 -0.8560  1.8819
32038SOL    HW2 6045   3.556  12.064  11.224  0.4487  0.3518 -1.5941
32039SOL     OW 6046   1.848   1.030   7.065 -0.0648  0.8173  0.3043
32039SOL    HW1 6047   1.866   0.944   7.104  0.8690  0.5608 -0.6386
32039SOL    HW2 6048   1.935   1.066   7.045 -0.4442  1.9622  0.6339
32040SOL     OW 6049   1.273   3.448   6.997  0.2946  0.4511 -0.5190
32040SOL    HW1 6050   1.334   3.522   7.005  0.2427  0.4879 -0.4541
32040SOL    HW2 6051   1.328   3.370   6.998  0.1895  0.2380  3.3131
32041SOL     OW 6052   8.383  12.286   9.287 -0.0706 -0.3553  0.5905
32041SOL    HW1 6053   8.345  12.371   9.309  1.1165  0.0452  1.2109
32041SOL    HW2 6054   8.421  12.256   9.369  1.1985 -0.5816 -0.0573
32042SOL     OW 6055   3.298  10.132  10.807  0.1904 -0.7609  0.1821
32042SOL    HW1 6056   3.334  10.172  10.887  2.4638 -1.0241 -0.6442
32042SOL    HW2 6057   3.267  10.046  10.836  0.7582 -0.7575  0.8549
32043SOL     OW 6058  10.646   1.209   2.186  0.5383 -0.4948  0.2871
32043SOL    HW1 6059  10.552   1.207   2.204  0.3515 -1.8710 -0.6046
32043SOL    HW2 6060  10.684   1.147   2.248  1.1493  1.3402  1.8413
32044SOL     OW 6061   0.898   5.330  10.961 -0.5746 -0.4349 -0.3216
32044SOL    HW1 6062   0.811   5.315  11.000 -0.1368  0.8169  1.2343
32044SOL    HW2 6063   0.884   5.318  10.867 -2.3317 -0.7372 -0.0632
32045SOL     OW 6064   8.947   6.341   2.839 -0.2633 -0.0510  0.2175
32045SOL    HW1 6065   8.871   6.395   2.817  0.0845  0.5588  0.4833
32045SOL    HW2 6066   8.910   6.259   2.873 -0.7954  0.1839  0.2114
32046SOL     OW 6067   4.751   0.931  10.980 -0.7396 -0.2904 -0.0008
32046SOL    HW1 6068   4.732   0.998  11.046 -2.8181 -0.0238 -0.7879
32046SOL    HW2 6069   4.814   0.973  10.922 -2.8576  1.5713 -1.1535
32047SOL     OW 6070  12.662   2.433   0.970 -0.0436 -0.2585  0.0742
32047SOL    HW1 6071  12.595   2.425   1.037  0.5980  0.4957  0.8231
32047SOL    HW2 6072  12.633   2.507   0.916 -0.1989 -0.4153 -0.0579
32048SOL     OW 6073   4.157   4.892  10.446 -0.1883 -0.9930  0.2735
32048SOL    HW1 6074   4.094   4.832  10.407 -0.0326 -0.8009 -0.2856
32048SOL    HW2 6075   4.166   4.862  10.537 -2.8649  0.3673  1.1025
32049SOL     OW 6076   5.125  10.791   1.285  0.0601 -0.0039 -0.3862
32049SOL    HW1 6077   5.106  10.825   1.373  0.7767 -0.5347 -0.0142
32049SOL    HW2 6078   5.155  10.701   1.300 -1.0255 -0.5343 -1.2867
32050SOL     OW 6079   4.472   7.253  11.038  0.7851  0.0745  0.3859
32050SOL    HW1 6080   4.501   7.338  11.005  0.6762  1.4686  3.5659
32050SOL    HW2 6081   4.508   7.247  11.126 -1.8765 -1.6823  1.4989
32051SOL     OW 6082   8.803   3.331   3.681 -0.4493 -0.3486 -0.0358
32051SOL    HW1 6083   8.876   3.393   3.675  1.3345 -2.3059  0.2524
32051SOL    HW2 6084   8.779   3.313   3.591 -1.7338  1.4946 -0.1268
32052SOL     OW 6085  12.743   8.056   2.250  0.5663  0.3044 -0.1698
32052SOL    HW1 6086  12.711   8.094   2.168  1.5259  1.0841 -0.2011
32052SOL    HW2 6087  12.750   7.962   2.231  1.6242  0.5805 -1.2974
32053SOL     OW 6088   6.793   8.340   2.127  0.0613  0.5514  0.1370
32053SOL    HW1 6089   6.720   8.402   2.135  0.2647  0.6083  2.5220
32053SOL    HW2 6090   6.838   8.347   2.212  1.3016 -1.3791 -0.3176
32054SOL     OW 6091  12.191   9.872   2.038 -0.3439  0.2211  0.0409
32054SOL    HW1 6092  12.157   9.960   2.021  2.0456  1.6510  2.0047
32054SOL    HW2 6093  12.279   9.873   2.000 -0.9673 -2.0920 -1.6829
32055SOL     OW 6094  13.218  11.634   0.872  0.0418  0.4761  0.2150
32055SOL    HW1 6095  13.204  11.578   0.948  0.4087  2.4899  1.8451
32055SOL    HW2 6096  13.131  11.642   0.832 -0.4727  0.6040  1.3185
32056SOL     OW 6097  11.293  12.319   3.121  0.2707  0.0037 -0.2527
32056SOL    HW1 6098  11.222  12.281   3.068 -0.3788 -0.4204  0.8920
32056SOL    HW2 6099  11.319  12.249   3.180 -0.0549  0.9248  1.0123
32057SOL     OW 6100   3.185   6.513  11.337 -0.2934  0.3844 -0.2955
32057SOL    HW1 6101   3.234   6.451  11.283 -0.9573  0.9799 -1.6281
32057SOL    HW2 6102   3.094   6.504  11.307 -0.4963  1.5315 -0.0710
32058SOL     OW 6103   9.988   4.227  12.429 -0.7139 -0.4717  0.3831
32058SOL    HW1 6104  10.009   4.303  12.374 -0.9952 -2.7840 -3.2613
32058SOL    HW2 6105  10.072   4.188  12.451 -0.6386 -0.0575  0.8524
32059SOL     OW 6106   8.734   2.192  11.209 -0.5187 -0.5572  0.5271
32059SOL    HW1 6107   8.776   2.110  11.181 -1.2124 -0.5850 -0.4835
32059SOL    HW2 6108   8.653   2.195  11.159 -0.6405  0.6151  0.7788
32060SOL     OW 6109   4.928   6.943   2.017  0.1927  0.3976  0.2651
32060SOL    HW1 6110   4.838   6.964   1.992 -0.1018 -2.0128 -1.0327
32060SOL    HW2 6111   4.958   7.020   2.066 -2.7900  0.9895  1.3825
32061SOL     OW 6112   5.747  12.916  12.200  0.0455 -0.3456 -0.3222
32061SOL    HW1 6113   5.773  12.824  12.188  1.7080  0.1195 -0.3838
32061SOL    HW2 6114   5.735  12.948  12.110 -0.2946 -0.4272 -0.3074
32062SOL     OW 6115   0.885   7.526   9.750  0.4109  0.0564 -0.5934
32062SOL    HW1 6116   0.815   7.519   9.814  1.5292 -0.1717  0.6430
32062SOL    HW2 6117   0.877   7.615   9.715 -2.0288 -0.7499 -2.3544
32063SOL     OW 6118   0.646   5.052  13.014  0.6560  0.1334  0.5937
32063SOL    HW1 6119   0.700   5.100  13.077  2.5416 -1.6791  0.4538
32063SOL    HW2 6120   0.628   4.969  13.057 -0.9800  0.1996  0.0967
32064SOL     OW 6121   9.452   1.644   2.344  0.4153 -0.8171  0.0645
32064SOL    HW1 6122   9.450   1.685   2.258  0.0111 -0.4318  0.2550
32064SOL    HW2 6123   9.365   1.603   2.353  0.0086  0.1593  0.7698
32065SOL     OW 6124  12.873   5.870   1.873 -0.0419  0.4848  0.0932
32065SOL    HW1 6125  12.798   5.818   1.901  1.1734 -0.8848  0.9820
32065SOL    HW2 6126  12.930   5.808   1.827  1.1027  1.1742  0.5196
32066SOL     OW 6127   1.270   3.919  11.387  0.5104  0.1708 -0.0157
32066SOL    HW1 6128   1.353   3.943  11.346  0.9533 -0.5640  0.4349
32066SOL    HW2 6129   1.252   3.831  11.354 -1.0546  1.0192 -1.5956
32067SOL     OW 6130   4.132   2.594   6.337 -0.4713 -0.1068  0.0685
32067SOL    HW1 6131   4.100   2.683   6.350  0.9292  0.3975  0.3120
32067SOL    HW2 6132   4.225   2.599   6.359 -0.1682 -1.4328 -0.7736
32068SOL     OW 6133   3.647  12.233  10.110 -0.0512  0.2236  0.1527
32068SOL    HW1 6134   3.610  12.247  10.197  0.0136 -0.0256  0.2196
32068SOL    HW2 6135   3.707  12.159  10.120  0.2897  0.4721 -0.0057
32069SOL     OW 6136   3.234   4.217  10.402 -0.5392  0.0377 -0.4272
32069SOL    HW1 6137   3.190   4.196  10.320 -1.1046  0.0849 -0.1410
32069SOL    HW2 6138   3.319   4.251  10.375  0.5312 -2.7481 -0.9160
32070SOL     OW 6139  13.048   5.268   9.241 -0.3801  0.0528  0.0402
32070SOL    HW1 6140  13.082   5.179   9.247  1.1803  0.5286 -0.9812
32070SOL    HW2 6141  13.118   5.317   9.198 -2.7551  0.9051 -3.2811
32071SOL     OW 6142   8.728   0.641   4.615 -0.5280 -0.5024  0.0601
32071SOL    HW1 6143   8.645   0.668   4.577 -1.1301 -0.1673  1.5397
32071SOL    HW2 6144   8.735   0.691   4.697  1.9657  0.7879 -0.8284
32072SOL     OW 6145   2.568   7.021  11.864 -0.1252 -0.3199  0.5493
32072SOL    HW1 6146   2.579   7.009  11.958  1.5651 -1.4325  0.2457
32072SOL    HW2 6147   2.515   6.946  11.836 -0.2149 -0.2535  0.5406
32073SOL     OW 6148   3.162   1.553  10.797  0.3909 -0.0813 -0.4543
32073SOL    HW1 6149   3.156   1.523  10.706  1.1524  1.3827 -1.0279
32073SOL    HW2 6150   3.184   1.646  10.789  0.6048  0.0308  1.2358
32074SOL     OW 6151  11.677   9.185   7.877 -0.4446  0.5184 -0.1942
32074SOL    HW1 6152  11.716   9.119   7.933 -0.5363  1.0075  0.4632
32074SOL    HW2 6153  11.722   9.176   7.793  1.4300  1.3826  0.6714
32075SOL     OW 6154   2.621   7.935  11.716 -0.6754  0.1489  0.1913
32075SOL    HW1 6155   2.631   7.955  11.809 -2.7389  0.5082  0.3951
32075SOL    HW2 6156   2.599   8.020  11.676  2.0763  0.3896 -1.0091
32076SOL     OW 6157   9.647   5.040   2.321 -0.0980 -0.3359  0.4676
32076SOL    HW1 6158   9.687   4.955   2.303  0.7575 -0.2731  1.9800
32076SOL    HW2 6159   9.707   5.103   2.282 -1.1159 -0.3958 -1.3420
32077SOL     OW 6160   0.359  11.686  10.564 -0.1755 -0.0962  0.4322
32077SOL    HW1 6161   0.415  11.609  10.563  0.8771  0.6400 -0.1229
32077SOL    HW2 6162   0.399  11.745  10.499 -2.1476  0.0736 -0.7088
32078SOL     OW 6163   6.632  12.115   3.259  0.0988  0.1331  0.7056
32078SOL    HW1 6164   6.578  12.192   3.242  0.9025  0.6881  0.5995
32078SOL    HW2 6165   6.633  12.067   3.177 -1.4387 -0.6783  1.1230
32079SOL     OW 6166   1.478   8.974   3.155  1.1600  0.8361  0.4889
32079SOL    HW1 6167   1.430   8.892   3.164  1.3033  0.6222 -0.5515
32079SOL    HW2 6168   1.532   8.979   3.234  0.8959  0.1013  0.7260
32080SOL     OW 6169   4.881   2.589   1.764  0.6303  0.1151  0.3254
32080SOL    HW1 6170   4.816   2.562   1.699 -1.4287  1.4237  1.7069
32080SOL    HW2 6171   4.930   2.509   1.784 -1.5821 -1.3471  0.3078
32081SOL     OW 6172  10.000   5.390   9.711  0.3474  0.2413  0.6010
32081SOL    HW1 6173   9.980   5.300   9.684  0.5744  0.0745  0.9703
32081SOL    HW2 6174  10.024   5.382   9.804 -0.6048  0.8214  0.9121
32082SOL     OW 6175   0.449   5.777  12.666  0.0922 -0.1150 -0.3681
32082SOL    HW1 6176   0.355   5.787  12.659 -0.0625 -0.2711  1.1831
32082SOL    HW2 6177   0.464   5.682  12.655 -0.1335 -0.3434  1.1234
32083SOL     OW 6178   8.243   7.939   7.226 -0.3139  0.6865 -0.9290
32083SOL    HW1 6179   8.316   7.901   7.178  0.2431  3.9405 -2.9243
32083SOL    HW2 6180   8.271   8.029   7.245 -2.6546  1.1207  0.8805
32084SOL     OW 6181  11.941   3.293   0.487  0.0199  0.1922 -0.0862
32084SOL    HW1 6182  11.958   3.326   0.399  2.1891  1.9062  0.8411
32084SOL    HW2 6183  11.863   3.341   0.516  0.4962  1.1866 -0.3849
32085SOL     OW 6184   4.356   2.093   3.306  0.0531  1.0216  0.1373
32085SOL    HW1 6185   4.425   2.107   3.241  1.7722 -1.2995  1.3151
32085SOL    HW2 6186   4.275   2.103   3.257  1.2572 -0.8988 -2.5328
32086SOL     OW 6187   8.069   1.314  12.150 -0.0599  0.4039 -0.5409
32086SOL    HW1 6188   8.129   1.261  12.097  0.0786  1.9066 -1.9533
32086SOL    HW2 6189   7.989   1.260  12.157  0.6304 -0.6526 -0.5467
32087SOL     OW 6190   2.017   3.955   1.360  0.4612  0.6179  0.0647
32087SOL    HW1 6191   2.080   3.903   1.310  0.0559  0.1312  0.0507
32087SOL    HW2 6192   1.986   3.895   1.429 -1.7971 -0.0097 -1.3674
32088SOL     OW 6193  12.875   5.526  11.687 -0.0562  0.0907  0.1036
32088SOL    HW1 6194  12.783   5.544  11.670  0.4035  1.2607 -1.3776
32088SOL    HW2 6195  12.908   5.489  11.605  0.3120 -2.6134  1.3436
32089SOL     OW 6196  12.737   3.433  12.115 -0.1541 -0.3361  0.1209
32089SOL    HW1 6197  12.824   3.398  12.131 -0.4021  0.0440  2.6552
32089SOL    HW2 6198  12.691   3.362  12.070  0.9399 -1.2132  0.3463
32090SOL     OW 6199  10.687   2.623  10.258  0.7433 -0.1564 -0.1939
32090SOL    HW1 6200  10.729   2.698  10.299  0.4992  0.1425 -0.4852
32090SOL    HW2 6201  10.735   2.611  10.176  1.2396 -0.7593  0.1755
32091SOL     OW 6202  11.888   9.381   4.175 -0.3454  0.1508  0.1336
32091SOL    HW1 6203  11.948   9.320   4.217 -1.3420 -0.9403  0.0306
32091SOL    HW2 6204  11.887   9.355   4.083  0.6747  1.5683 -0.3147
32092SOL     OW 6205  13.203   0.889  11.068 -0.3796 -0.6829 -0.0920
32092SOL    HW1 6206  13.217   0.832  11.144  0.1558 -0.5580 -0.0920
32092SOL    HW2 6207  13.139   0.843  11.014 -0.9299 -0.6729  0.5385
32093SOL     OW 6208   4.097  13.168   3.522 -0.0940 -0.0673  0.1814
32093SOL    HW1 6209   4.051  13.139   3.601 -0.7257  0.2722 -0.0502
32093SOL    HW2 6210   4.028  13.178   3.457  0.3807 -0.0274 -0.3217
32094SOL     OW 6211  10.766   7.989   0.980 -0.0445 -0.8086 -0.5247
32094SOL    HW1 6212  10.829   7.969   1.049  0.1806  0.3863 -0.3567
32094SOL    HW2 6213  10.682   7.996   1.025  0.4381  2.3368  0.1195
32095SOL     OW 6214   6.440   0.049   7.355  0.2282  0.3011 -0.7122
32095SOL    HW1 6215   6.468   0.032   7.445  2.1657 -0.0219 -1.3177
32095SOL    HW2 6216   6.456  -0.034   7.309 -2.1103 -0.0042 -1.0969
32096SOL     OW 6217   1.331  13.197   0.085  0.5617  0.1589  0.0011
32096SOL    HW1 6218   1.285  13.232   0.009 -1.0101 -1.5138  0.1106
32096SOL    HW2 6219   1.350  13.274   0.139 -2.6867  0.9659  0.2201
32097SOL     OW 6220   8.953  11.568   7.933 -0.6047 -0.3706 -0.1295
32097SOL    HW1 6221   8.914  11.574   7.846 -0.2664  2.4253 -0.1894
32097SOL    HW2 6222   8.965  11.660   7.960 -1.2607 -1.1182  3.1201
32098SOL     OW 6223   2.829  11.767   3.790  0.2653  0.0021 -0.0423
32098SOL    HW1 6224   2.904  11.821   3.767  1.1731 -0.2233  2.0869
32098SOL    HW2 6225   2.794  11.807   3.869 -1.6378 -0.1463 -0.7625
32099SOL     OW 6226   6.755   0.186  11.932 -0.2643  0.1249  0.7943
32099SOL    HW1 6227   6.666   0.204  11.961 -0.1862  1.0187  0.5229
32099SOL    HW2 6228   6.806   0.261  11.965  0.3146 -0.1786  0.6122
32100SOL     OW 6229   2.382  12.684   9.035 -0.0732 -0.3161  0.6941
32100SOL    HW1 6230   2.386  12.684   9.131  0.1322 -1.7973  0.7120
32100SOL    HW2 6231   2.396  12.593   9.011  0.1642  0.0902 -0.7727
32101SOL     OW 6232   5.862   9.948   7.552 -0.1268 -0.1684  0.6470
32101SOL    HW1 6233   5.922   9.987   7.615 -0.7826  0.9203  0.6247
32101SOL    HW2 6234   5.807  10.020   7.524 -0.2817 -0.7808 -0.6806
32102SOL     OW 6235   5.957  11.792   8.497  0.2637 -0.0808 -0.1186
32102SOL    HW1 6236   5.870  11.794   8.457 -0.1625 -1.5368  0.6556
32102SOL    HW2 6237   5.940  11.770   8.588  1.5049 -1.5967 -0.2209
32103SOL     OW 6238   3.369   2.240  10.414 -1.1012  0.2501 -0.1232
32103SOL    HW1 6239   3.309   2.311  10.439 -3.6491 -1.6330 -0.5259
32103SOL    HW2 6240   3.353   2.227  10.320  1.1010  0.6632 -0.6126
32104SOL     OW 6241   5.520   3.764   5.467  0.0931 -1.3030 -0.0435
32104SOL    HW1 6242   5.433   3.739   5.436 -0.9258  0.2747  1.3472
32104SOL    HW2 6243   5.543   3.840   5.413 -0.2485 -0.5741  0.8051
32105SOL     OW 6244   3.925   4.016   0.477 -0.4247 -0.2721 -0.3362
32105SOL    HW1 6245   3.899   3.943   0.420  0.8782 -1.4616  0.5424
32105SOL    HW2 6246   3.862   4.086   0.456 -1.4439 -1.4857 -1.5037
32106SOL     OW 6247   9.548  10.235  10.080 -0.0891 -0.4978 -0.5095
32106SOL    HW1 6248   9.643  10.239  10.088  0.1794 -2.0750 -2.2287
32106SOL    HW2 6249   9.530  10.259   9.988 -1.4161  0.2830 -0.0840
32107SOL     OW 6250   8.731   1.598   0.687 -0.2525  0.2495 -0.0459
32107SOL    HW1 6251   8.757   1.685   0.718  1.3834  0.6989 -2.4107
32107SOL    HW2 6252   8.809   1.563   0.645 -0.0164 -3.5725  2.9936
32108SOL     OW 6253  10.768   4.169   2.224  0.8582  0.5295 -0.6567
32108SOL    HW1 6254  10.781   4.260   2.251  0.4550  0.4491 -0.1938
32108SOL    HW2 6255  10.680   4.148   2.252  0.9341  0.0080 -0.8105
32109SOL     OW 6256   8.895  12.805   1.764 -0.6504  0.4756 -0.3086
32109SOL    HW1 6257   8.968  12.768   1.714 -1.3021 -1.1864 -0.1130
32109SOL    HW2 6258   8.901  12.763   1.850 -0.9721  1.4560  0.2051
32110SOL     OW 6259   9.040   0.363   4.706  0.0070 -0.3611 -0.0781
32110SOL    HW1 6260   9.025   0.308   4.629  1.1891 -0.9681  0.0978
32110SOL    HW2 6261   9.079   0.443   4.672  1.1312 -0.8912 -0.0720
32111SOL     OW 6262   4.942   2.753  10.838  0.2307  0.0191  0.1054
32111SOL    HW1 6263   5.002   2.689  10.878  0.3870  1.0589  1.6271
32111SOL    HW2 6264   4.993   2.794  10.769  1.2354  0.7253  1.2315
32112SOL     OW 6265  11.166   2.786   1.401 -0.2292 -0.0774  0.0677
32112SOL    HW1 6266  11.085   2.808   1.447  0.5588  2.0966  0.5192
32112SOL    HW2 6267  11.189   2.866   1.354  2.0089 -0.4172  0.4910
32113SOL     OW 6268   3.538   2.257   2.658 -0.4561  0.1442  0.9091
32113SOL    HW1 6269   3.451   2.280   2.691 -1.5401  0.0657 -1.6546
32113SOL    HW2 6270   3.554   2.321   2.588 -0.1336 -2.0474 -1.1470
32114SOL     OW 6271  11.904   6.457   6.167  0.2196 -0.4950  0.1425
32114SOL    HW1 6272  11.923   6.525   6.232 -0.6328  1.4340 -1.5160
32114SOL    HW2 6273  11.830   6.409   6.204  0.0809  0.2307  0.8369
32115SOL     OW 6274   8.890   2.372   0.813 -0.3279  0.0196  0.1885
32115SOL    HW1 6275   8.938   2.310   0.758 -0.3448  0.6583 -0.5689
32115SOL    HW2 6276   8.799   2.345   0.806 -0.1319 -1.1024  1.5059
32116SOL     OW 6277   2.291  12.689   2.704 -0.6160 -0.0645  0.3233
32116SOL    HW1 6278   2.310  12.728   2.618 -0.7002 -1.2621 -0.2592
32116SOL    HW2 6279   2.340  12.743   2.766  0.7306 -0.1093 -0.6420
32117SOL     OW 6280  10.813  11.211  10.157 -0.0794  0.3902  0.0947
32117SOL    HW1 6281  10.884  11.239  10.099 -0.2656  0.0888 -0.2836
32117SOL    HW2 6282  10.760  11.290  10.169 -1.5599 -0.1206 -2.3338
32118SOL     OW 6283   2.544   3.989   2.291  0.0070  0.1510  0.1791
32118SOL    HW1 6284   2.638   3.994   2.275 -0.2378 -0.4941 -1.6928
32118SOL    HW2 6285   2.506   4.049   2.226 -0.8158  1.6192  1.9434
32119SOL     OW 6286  11.012  11.020  11.650  0.0110  0.1347 -0.8610
32119SOL    HW1 6287  10.965  10.939  11.672  0.3598  0.2315  0.2832
32119SOL    HW2 6288  10.948  11.073  11.603 -0.0375 -1.0480 -2.2203
32120SOL     OW 6289   9.580   5.647  12.536 -0.0023  0.2961 -0.1101
32120SOL    HW1 6290   9.489   5.674  12.550  0.1471  1.3008 -0.9146
32120SOL    HW2 6291   9.577   5.593  12.457 -0.2113 -1.6619  1.1632
32121SOL     OW 6292   3.620  12.036   6.404 -0.5647 -0.2192  0.3501
32121SOL    HW1 6293   3.686  12.046   6.335 -1.8771  0.3522 -0.8607
32121SOL    HW2 6294   3.594  12.125   6.426 -2.0480 -0.4759 -0.2957
32122SOL     OW 6295   1.474   0.438  12.696 -0.2523 -0.2605 -0.8285
32122SOL    HW1 6296   1.448   0.362  12.644 -2.1934  0.2068 -0.5911
32122SOL    HW2 6297   1.423   0.431  12.776  1.3967 -0.0128  0.2942
32123SOL     OW 6298   5.360   8.921   7.113 -0.6423 -0.0801 -0.7436
32123SOL    HW1 6299   5.319   8.994   7.066  0.9633  1.2589 -0.1390
32123SOL    HW2 6300   5.448   8.917   7.078 -0.0820 -0.4237  0.6399
32124SOL     OW 6301   3.754   3.552   8.216 -0.0521 -0.1411 -0.5447
32124SOL    HW1 6302   3.689   3.491   8.182 -0.1368  0.7181 -1.9672
32124SOL    HW2 6303   3.833   3.499   8.225 -0.0925 -0.4698 -1.8861
32125SOL     OW 6304   5.150  12.115   7.680  0.3508 -0.2840  0.0069
32125SOL    HW1 6305   5.189  12.122   7.592  0.8415  2.5357  0.3566
32125SOL    HW2 6306   5.064  12.156   7.671  0.1907 -0.4497  0.7334
32126SOL     OW 6307   3.725   6.929   3.192 -0.1739  0.1656 -0.2762
32126SOL    HW1 6308   3.796   6.930   3.129  0.1756  1.4877  0.1047
32126SOL    HW2 6309   3.658   6.872   3.153  0.8440 -0.6396 -0.8899
32127SOL     OW 6310  10.402   9.574   0.302 -0.8483  0.0599 -0.0286
32127SOL    HW1 6311  10.335   9.630   0.340 -1.6151 -0.3846 -0.6866
32127SOL    HW2 6312  10.449   9.537   0.377 -0.8109  0.9898  0.4208
32128SOL     OW 6313  12.567   8.188   2.601 -0.1946 -0.4582 -0.1114
32128SOL    HW1 6314  12.663   8.182   2.602 -0.1888 -0.3362  0.3812
32128SOL    HW2 6315  12.549   8.264   2.545  0.1797  2.2285  3.1200
32129SOL     OW 6316  11.776   7.055   5.480  0.7721 -0.6036  0.4057
32129SOL    HW1 6317  11.771   6.991   5.550  1.4350  0.2042  1.2120
32129SOL    HW2 6318  11.869   7.059   5.457  0.7366  0.0431  0.3478
32130SOL     OW 6319   9.529   1.772   4.510 -0.1571  0.1750 -0.0154
32130SOL    HW1 6320   9.605   1.785   4.453 -1.0485 -0.7928 -1.5015
32130SOL    HW2 6321   9.563   1.726   4.586  0.8916  0.5771 -0.2236
32131SOL     OW 6322   8.834   9.043  12.885  0.1471  0.0247  0.1233
32131SOL    HW1 6323   8.776   9.035  12.809  0.0100 -0.2746  0.2586
32131SOL    HW2 6324   8.791   9.109  12.940 -0.5839 -0.8804  0.6797
32132SOL     OW 6325   1.648   3.549   3.439  0.5116 -0.3585 -0.1698
32132SOL    HW1 6326   1.624   3.467   3.483  1.4811 -1.3067 -1.3145
32132SOL    HW2 6327   1.721   3.524   3.382  1.0869  1.4016 -0.2594
32133SOL     OW 6328  12.603  12.089   2.453  0.9795  0.0484 -0.4394
32133SOL    HW1 6329  12.640  12.001   2.450  0.2079 -0.2759 -0.8356
32133SOL    HW2 6330  12.656  12.139   2.391 -0.2527 -0.8341 -2.3116
32134SOL     OW 6331   6.752   9.449   9.566 -0.4579  0.1160  0.1757
32134SOL    HW1 6332   6.726   9.444   9.658 -0.5403  0.1482  0.1545
32134SOL    HW2 6333   6.802   9.370   9.550 -1.2620 -0.3688 -0.0037
32135SOL     OW 6334  11.573   9.548   1.572 -0.1414  0.1706  0.1956
32135SOL    HW1 6335  11.588   9.483   1.641 -2.2629 -0.6373 -0.0466
32135SOL    HW2 6336  11.659   9.562   1.533  1.0671  0.3669  2.7241
32136SOL     OW 6337  13.061  11.507   7.956  0.0187  0.5896 -0.6485
32136SOL    HW1 6338  13.083  11.417   7.980 -0.2478 -0.1215 -2.8551
32136SOL    HW2 6339  13.121  11.528   7.884  0.0141  2.1685 -0.2430
32137SOL     OW 6340   7.963   2.696   0.313  0.0552  0.2643  0.3118
32137SOL    HW1 6341   7.924   2.778   0.284  0.3133  0.2679 -0.0486
32137SOL    HW2 6342   7.924   2.678   0.398 -1.7522 -0.4190 -0.5983
32138SOL     OW 6343   2.904   0.905   2.690  0.6356  0.2857 -0.0118
32138SOL    HW1 6344   2.879   0.997   2.680 -0.2176  0.0440 -0.2199
32138SOL    HW2 6345   2.997   0.902   2.667  0.5703  1.0324 -0.3889
32139SOL     OW 6346  11.185   6.558  11.336 -0.0900  0.2172 -0.0463
32139SOL    HW1 6347  11.098   6.596  11.328 -0.3598 -0.3599  0.0916
32139SOL    HW2 6348  11.194   6.502  11.259  0.4275  0.7924 -0.4104
32140SOL     OW 6349   5.013  10.356   1.221  0.5033 -0.3354 -0.0177
32140SOL    HW1 6350   4.924  10.383   1.243  0.5572 -1.1102  1.2976
32140SOL    HW2 6351   5.068  10.403   1.284  1.1548  1.0260 -1.5564
32141SOL     OW 6352   3.951   9.033  11.489  0.1495 -0.5042  0.3647
32141SOL    HW1 6353   3.932   9.115  11.534  0.8306 -0.3185  0.3240
32141SOL    HW2 6354   3.866   8.988  11.483 -0.2801  0.3299  0.1052
32142SOL     OW 6355   0.242   5.574   0.520  0.3638  0.3333  0.5345
32142SOL    HW1 6356   0.184   5.608   0.588 -0.5436 -0.4815  0.1881
32142SOL    HW2 6357   0.238   5.639   0.450 -1.0984 -0.2627  0.0160
32143SOL     OW 6358   7.583   3.849   0.464  0.1607 -0.1371  0.2702
32143SOL    HW1 6359   7.608   3.765   0.502  0.1216 -0.8786 -1.2601
32143SOL    HW2 6360   7.488   3.844   0.454  0.2580 -0.2894 -0.6503
32144SOL     OW 6361   6.820   4.276   2.447  0.2343  0.3516  0.0510
32144SOL    HW1 6362   6.867   4.325   2.379 -1.1549  1.1271 -0.3883
32144SOL    HW2 6363   6.729   4.279   2.420 -0.2942  0.2791  1.7189
32145SOL     OW 6364   2.630   6.985   5.562 -0.0667  0.1303  0.3784
32145SOL    HW1 6365   2.698   7.050   5.543 -1.3868  1.7270  0.8030
32145SOL    HW2 6366   2.676   6.916   5.609  1.1981  1.3879  1.0894
32146SOL     OW 6367   0.022   2.776  13.139 -0.0885 -0.0289 -0.0371
32146SOL    HW1 6368  -0.063   2.818  13.150  0.3456  1.3442 -1.4739
32146SOL    HW2 6369   0.059   2.773  13.227 -1.9401 -1.4907  0.7747
32147SOL     OW 6370   6.978  11.183   1.538 -0.1990  0.2835  0.2691
32147SOL    HW1 6371   6.933  11.264   1.512 -1.2693 -0.2863  0.2979
32147SOL    HW2 6372   7.020  11.152   1.457  0.8484  1.2340  0.4168
32148SOL     OW 6373   6.109   0.294   1.863 -0.0106  0.2952 -0.6214
32148SOL    HW1 6374   6.047   0.362   1.837  0.1416  0.5592 -0.3050
32148SOL    HW2 6375   6.186   0.343   1.892  0.4546 -0.0310 -1.2841
32149SOL     OW 6376  12.990   2.840   9.469  0.2189 -0.5850 -0.6769
32149SOL    HW1 6377  13.083   2.823   9.452  0.2581 -1.9301  0.6248
32149SOL    HW2 6378  12.949   2.754   9.459 -0.7110 -0.2038 -0.1989
32150SOL     OW 6379   7.134   0.885   0.984 -0.7376  0.4789 -0.1054
32150SOL    HW1 6380   7.109   0.868   0.894  5.6863 -1.0492 -2.1724
32150SOL    HW2 6381   7.105   0.807   1.032 -3.6086  0.9913 -0.8476
32151SOL     OW 6382   7.773   9.068   1.029 -0.4233 -0.4076  0.0607
32151SOL    HW1 6383   7.770   9.160   1.003  0.9253  0.4295  2.6085
32151SOL    HW2 6384   7.808   9.023   0.952  0.0541  1.3613 -0.8107
32152SOL     OW 6385   6.701  11.680  11.669 -0.1680  0.5843  0.6927
32152SOL    HW1 6386   6.745  11.764  11.659  0.5481  0.1514  0.0452
32152SOL    HW2 6387   6.705  11.641  11.581 -0.4266 -0.1495  1.0040
32153SOL     OW 6388   6.999   9.873   1.781 -0.6576  0.2772 -0.4264
32153SOL    HW1 6389   6.934   9.940   1.802  0.6363  1.0054  1.5282
32153SOL    HW2 6390   7.036   9.902   1.697  0.3417  2.4426  0.6768
32154SOL     OW 6391   9.896   1.325  10.845  0.3109 -0.4001  0.4042
32154SOL    HW1 6392   9.830   1.258  10.829  0.0996  0.1015 -1.0164
32154SOL    HW2 6393   9.863   1.373  10.921 -0.0648 -1.2312  0.7818
32155SOL     OW 6394   2.995  12.417  12.164 -0.0939 -0.5465 -0.6896
32155SOL    HW1 6395   2.949  12.500  12.180  1.4958  0.5440 -1.4941
32155SOL    HW2 6396   3.006  12.414  12.069  0.9943 -1.0492 -0.5648
32156SOL     OW 6397   0.459   9.503   3.748 -0.0985  0.1941  0.0985
32156SOL    HW1 6398   0.535   9.510   3.691 -0.3548  2.0813 -0.0767
32156SOL    HW2 6399   0.413   9.425   3.717 -0.0405  0.9554 -2.0517
32157SOL     OW 6400  11.177   0.259   6.841 -0.1734  0.2125 -0.3309
32157SOL    HW1 6401  11.082   0.274   6.841 -0.1506  0.3650 -0.1059
32157SOL    HW2 6402  11.193   0.205   6.764 -0.2091  1.6500 -1.3680
32158SOL     OW 6403   7.786   4.891   9.104  0.8821  0.0574 -0.0954
32158SOL    HW1 6404   7.801   4.798   9.119  0.1758  0.0284  0.4622
32158SOL    HW2 6405   7.750   4.895   9.016  1.1484 -0.1664 -0.2172
32159SOL     OW 6406   3.188   3.493   9.102  0.1980  0.6359 -0.6901
32159SOL    HW1 6407   3.169   3.571   9.050  3.5371  1.4540 -0.8790
32159SOL    HW2 6408   3.247   3.441   9.047  0.2657 -0.6607  0.5543
32160SOL     OW 6409   8.358  11.117   1.573 -0.3744  0.8572 -0.0906
32160SOL    HW1 6410   8.388  11.188   1.517 -1.5621  0.5561 -1.1630
32160SOL    HW2 6411   8.296  11.068   1.518 -0.2970 -0.4448  0.9333
32161SOL     OW 6412  11.530  10.685  11.363 -0.0671  0.5113  0.0783
32161SOL    HW1 6413  11.611  10.701  11.411 -0.7364  1.3988  0.9452
32161SOL    HW2 6414  11.546  10.603  11.316  0.4531 -0.6626  2.1874
32162SOL     OW 6415   6.161  13.159   1.362 -0.2272 -0.2301 -0.6902
32162SOL    HW1 6416   6.214  13.080   1.356  1.0933  0.5023  0.4898
32162SOL    HW2 6417   6.153  13.191   1.272  2.1024  0.0743 -0.8503
32163SOL     OW 6418   3.584  11.168   7.109  0.1903  0.3474  0.2454
32163SOL    HW1 6419   3.493  11.145   7.087  0.2076 -0.6561  1.1408
32163SOL    HW2 6420   3.577  11.212   7.194  0.4825  0.9324 -0.0273
32164SOL     OW 6421   9.829   2.692   8.889 -0.0261  0.2172 -0.0022
32164SOL    HW1 6422   9.905   2.689   8.946  2.3143  3.4658 -2.5804
32164SOL    HW2 6423   9.834   2.612   8.838  1.7693  0.3987 -0.1687
32165SOL     OW 6424   4.902  11.758   9.145  0.2083 -0.1317 -0.6468
32165SOL    HW1 6425   4.850  11.821   9.094 -0.2229  0.6344  0.6764
32165SOL    HW2 6426   4.840  11.725   9.210  1.1909  0.2665  0.5149
32166SOL     OW 6427   0.563  13.078   4.552  0.2781 -0.0194  0.5612
32166SOL    HW1 6428   0.523  13.026   4.483  0.2068  0.8463 -0.0680
32166SOL    HW2 6429   0.493  13.092   4.616  0.6179 -1.6859  1.3373
32167SOL     OW 6430   3.809   2.042   4.936 -0.7498  0.0985  0.3699
32167SOL    HW1 6431   3.733   2.097   4.954  0.0477  1.2437  0.3893
32167SOL    HW2 6432   3.773   1.955   4.921 -2.1991  0.9059 -1.1137
32168SOL     OW 6433   3.456   7.577  10.071  0.0958  0.1138  0.3448
32168SOL    HW1 6434   3.439   7.621  10.154 -2.4617 -0.1197  0.0053
32168SOL    HW2 6435   3.388   7.609  10.012  1.7430  0.1619 -1.6707
32169SOL     OW 6436   1.267   3.635   8.395  0.2342  0.0396 -0.4576
32169SOL    HW1 6437   1.306   3.646   8.482  2.2697 -0.6620 -1.2129
32169SOL    HW2 6438   1.327   3.681   8.336 -0.2571 -0.8117 -1.6700
32170SOL     OW 6439   3.276   4.582   5.476  0.8150  0.1683  0.3773
32170SOL    HW1 6440   3.242   4.603   5.389 -1.5515  1.5500  1.5157
32170SOL    HW2 6441   3.244   4.493   5.493  0.2906  0.3310  0.2610
32171SOL     OW 6442   0.920   0.457  12.418 -0.1985 -0.6036 -0.4090
32171SOL    HW1 6443   0.987   0.521  12.392 -0.0328  0.0682  1.5417
32171SOL    HW2 6444   0.970   0.385  12.458 -0.5984 -0.2330  0.7892
32172SOL     OW 6445   2.539   0.587   7.191 -0.6020 -0.2028 -1.0438
32172SOL    HW1 6446   2.579   0.578   7.104  0.5241  0.5428 -0.6151
32172SOL    HW2 6447   2.557   0.504   7.234 -0.5651 -0.3197 -1.2826
32173SOL     OW 6448   2.347  10.850   7.685  0.0062  0.6357 -0.3791
32173SOL    HW1 6449   2.442  10.864   7.693  0.2818 -1.2834  0.4022
32173SOL    HW2 6450   2.334  10.827   7.593  0.3257  0.7752 -0.4597
32174SOL     OW 6451  12.823  11.683  10.574  0.5866 -0.0882 -0.5270
32174SOL    HW1 6452  12.759  11.623  10.613 -0.5002  2.0452  1.2234
32174SOL    HW2 6453  12.907  11.653  10.607  0.0042 -0.2905  0.8632
32175SOL     OW 6454   8.409   0.045   6.848  0.1997  0.6923 -0.3982
32175SOL    HW1 6455   8.501   0.048   6.873 -0.0794  2.4866  0.5094
32175SOL    HW2 6456   8.393   0.129   6.805 -1.1448  0.6213 -0.0599
32176SOL     OW 6457   8.934  12.339   6.936 -0.5746 -0.2339  0.0995
32176SOL    HW1 6458   8.990  12.264   6.920 -0.4923 -0.0625 -0.4572
32176SOL    HW2 6459   8.846  12.302   6.946 -0.5200 -0.4107 -0.0729
32177SOL     OW 6460   1.122   3.577   8.854  0.1010  0.9109 -0.3740
32177SOL    HW1 6461   1.031   3.573   8.883  0.3281  1.3610  0.4254
32177SOL    HW2 6462   1.119   3.551   8.761 -0.7713  0.4532 -0.2267
32178SOL     OW 6463   8.090   5.473  12.472 -0.0192 -0.2057  0.2578
32178SOL    HW1 6464   8.106   5.526  12.551 -0.6018  1.2168 -0.5309
32178SOL    HW2 6465   8.177   5.466  12.431  0.5350 -2.0187  1.5997
32179SOL     OW 6466   0.118   8.190   5.989  0.2390 -0.2045  0.0467
32179SOL    HW1 6467   0.146   8.106   6.025  0.2753 -0.2887 -0.1827
32179SOL    HW2 6468   0.190   8.219   5.934  0.0907 -0.1758 -0.1318
32180SOL     OW 6469  11.945  11.863   6.765 -0.0686  0.0210 -0.0399
32180SOL    HW1 6470  11.935  11.918   6.687  2.5957  0.1658 -0.3917
32180SOL    HW2 6471  12.029  11.890   6.803 -0.3081 -1.4813  1.7172
32181SOL     OW 6472  10.644   9.522   3.602  0.5053  0.3272  0.2241
32181SOL    HW1 6473  10.722   9.495   3.651  0.1721  0.0471  0.6082
32181SOL    HW2 6474  10.637   9.616   3.617  1.2508  0.5149 -0.5108
32182SOL     OW 6475  11.186   0.833   1.975 -0.0095 -0.4662 -0.3250
32182SOL    HW1 6476  11.101   0.878   1.972  0.4440  0.4190 -0.2149
32182SOL    HW2 6477  11.167   0.750   2.018 -0.6411  0.1807  0.6953
32183SOL     OW 6478  12.266   3.542   5.172 -0.3574 -0.0010 -0.0553
32183SOL    HW1 6479  12.198   3.569   5.111 -2.1489 -1.0993  1.3588
32183SOL    HW2 6480  12.268   3.611   5.239 -0.8062 -0.4297  0.4167
32184SOL     OW 6481   9.560   8.312  12.720 -0.0040 -0.2499 -0.1066
32184SOL    HW1 6482   9.623   8.242  12.738  0.4714  0.5185  1.3146
32184SOL    HW2 6483   9.478   8.265  12.701  0.0626 -1.2130  1.7270
32185SOL     OW 6484   5.193   6.497   3.692  0.1565 -0.3243 -0.7757
32185SOL    HW1 6485   5.120   6.458   3.741 -1.1757  2.1061 -0.6631
32185SOL    HW2 6486   5.185   6.460   3.604 -0.5672 -0.8730 -0.4907
32186SOL     OW 6487  11.999   4.515   8.712 -0.5856  0.1240  0.5221
32186SOL    HW1 6488  11.980   4.531   8.804  1.7494  0.5650  0.9818
32186SOL    HW2 6489  12.080   4.563   8.695  0.5673 -2.1822 -1.0205
32187SOL     OW 6490   8.396   2.749   1.699  0.2447  0.1144  0.3641
32187SOL    HW1 6491   8.347   2.669   1.715 -1.0479  1.1562  1.8562
32187SOL    HW2 6492   8.330   2.815   1.678  0.9134  1.5772  2.4662
32188SOL     OW 6493   8.528   1.727   2.411  0.0536 -0.6058  0.2894
32188SOL    HW1 6494   8.501   1.777   2.488  0.9854  0.3002  0.0463
32188SOL    HW2 6495   8.589   1.785   2.365 -0.0297 -1.3720 -0.8145
32189SOL     OW 6496   1.086  12.885   1.175 -0.0940 -0.1542  0.3089
32189SOL    HW1 6497   1.095  12.829   1.252 -1.8070 -2.9794 -1.3547
32189SOL    HW2 6498   1.171  12.877   1.130  0.7704  1.1925  1.6457
32190SOL     OW 6499   5.683   7.266   1.182  0.1844  0.0670  0.2506
32190SOL    HW1 6500   5.589   7.247   1.182  0.1578  0.1994  0.1876
32190SOL    HW2 6501   5.716   7.221   1.260  0.0731 -0.0020  0.2580
32191SOL     OW 6502   7.971   7.313  10.477 -0.0164 -0.1082 -0.0790
32191SOL    HW1 6503   7.986   7.400  10.514  0.6051 -0.0486 -0.4423
32191SOL    HW2 6504   8.048   7.298  10.422 -0.0753 -0.9316  0.0576
32192SOL     OW 6505   8.186   9.906   6.524  0.0587  0.4368  0.1032
32192SOL    HW1 6506   8.111   9.859   6.489  0.2021  0.4978 -0.2929
32192SOL    HW2 6507   8.261   9.871   6.476  0.4235 -0.3691  1.2246
32193SOL     OW 6508  12.453  11.498   0.884  0.2529 -0.2845 -0.5676
32193SOL    HW1 6509  12.413  11.414   0.907 -0.3390 -0.3017 -1.6198
32193SOL    HW2 6510  12.391  11.538   0.823 -0.4030  1.7438  1.2670
32194SOL     OW 6511   5.874   9.768   5.368 -0.6665  0.2410 -0.8998
32194SOL    HW1 6512   5.785   9.802   5.379  0.0187  1.4881  1.4046
32194SOL    HW2 6513   5.869   9.676   5.395 -0.8640  0.9257  1.6741
32195SOL     OW 6514   6.349  12.920  12.189  0.2936  0.2421 -0.1869
32195SOL    HW1 6515   6.426  12.976  12.203 -0.1381  1.5134 -2.5004
32195SOL    HW2 6516   6.359  12.850  12.254  2.8175  0.9620  0.3177
32196SOL     OW 6517   4.482   3.471   6.706  0.4417 -0.0980  0.0404
32196SOL    HW1 6518   4.438   3.514   6.634  0.0896 -0.9366 -0.2541
32196SOL    HW2 6519   4.539   3.539   6.744 -0.5498  0.7878 -0.0230
32197SOL     OW 6520   7.430  12.908   4.732  0.1356  0.1661  0.7178
32197SOL    HW1 6521   7.442  12.819   4.699 -0.5644  0.6411 -0.9107
32197SOL    HW2 6522   7.426  12.963   4.654 -1.8627  1.3208  1.5539
32198SOL     OW 6523   5.939   9.460  12.699  0.1332  0.3069 -0.4540
32198SOL    HW1 6524   5.850   9.484  12.724  0.2827  0.7003 -0.2954
32198SOL    HW2 6525   5.978   9.542  12.667 -0.0269 -0.1541 -1.9078
32199SOL     OW 6526   5.675  10.434  10.218  0.1959 -0.2989 -0.0862
32199SOL    HW1 6527   5.765  10.466  10.211  0.4330 -0.3088  2.2278
32199SOL    HW2 6528   5.669  10.364  10.153  1.8632 -0.3155 -0.2572
32200SOL     OW 6529   5.610   9.188   7.888 -0.0137  0.0423 -0.0241
32200SOL    HW1 6530   5.609   9.107   7.838  1.1714  0.6168 -1.0340
32200SOL    HW2 6531   5.632   9.161   7.977 -1.1049 -0.8815 -0.0162
32201SOL     OW 6532   5.107   6.333  13.182  0.5634 -0.3521  0.3040
32201SOL    HW1 6533   5.180   6.394  13.190  1.2652 -1.2675  1.0373
32201SOL    HW2 6534   5.032   6.388  13.159  1.1613  0.7821  1.0181
32202SOL     OW 6535   3.973   4.808   0.373 -0.1627  0.4272  0.3770
32202SOL    HW1 6536   3.917   4.885   0.368  0.9391  1.1757 -2.1641
32202SOL    HW2 6537   3.934   4.745   0.313 -0.1718 -0.4099  1.2316
32203SOL     OW 6538   2.946  12.727  11.196  0.1505 -0.1650  0.0145
32203SOL    HW1 6539   2.956  12.797  11.260  1.7155 -2.5628  2.6269
32203SOL    HW2 6540   2.863  12.684  11.220  0.0136 -0.1991 -0.5108
32204SOL     OW 6541   0.582   5.706   4.731  0.2805 -0.0529 -0.1009
32204SOL    HW1 6542   0.573   5.614   4.753  0.1069  0.1514  0.7012
32204SOL    HW2 6543   0.551   5.712   4.641  0.1720 -0.7522 -0.1151
32205SOL     OW 6544   1.401   8.104   4.003  0.0671 -0.5446  0.3779
32205SOL    HW1 6545   1.476   8.159   4.026 -0.2235 -0.4513  1.1250
32205SOL    HW2 6546   1.326   8.163   4.008 -0.1887 -0.8982  0.6992
32206SOL     OW 6547  12.913   2.254   3.382  0.3860  0.1972  0.6362
32206SOL    HW1 6548  12.871   2.339   3.395  0.4769  0.2058  0.8661
32206SOL    HW2 6549  12.946   2.257   3.292  1.7222  0.9777  1.1235
32207SOL     OW 6550   8.312   3.369   4.268  0.1856 -0.5315 -0.1453
32207SOL    HW1 6551   8.318   3.350   4.362  0.0154  0.5476  0.0936
32207SOL    HW2 6552   8.403   3.362   4.238  0.3865  0.0938  0.2994
32208SOL     OW 6553   2.985   1.970  11.947 -0.5012 -0.2372  0.5203
32208SOL    HW1 6554   2.906   2.003  11.990 -0.6109 -0.0803  0.1985
32208SOL    HW2 6555   3.015   2.043  11.892 -2.1034 -1.4380 -2.1073
32209SOL     OW 6556  11.190  11.866   9.064 -0.3672  0.5098 -0.1369
32209SOL    HW1 6557  11.265  11.925   9.053 -0.1060  0.4855  1.3504
32209SOL    HW2 6558  11.216  11.786   9.019 -0.0464  0.9425 -0.7505
32210SOL     OW 6559   8.565  12.421   2.348  0.1331 -0.3559  0.2939
32210SOL    HW1 6560   8.478  12.381   2.351 -0.4784  0.9375  0.8199
32210SOL    HW2 6561   8.581  12.451   2.437  0.2559  1.1334 -0.2017
32211SOL     OW 6562   2.092  13.204   2.340  0.1309  0.1043  0.3006
32211SOL    HW1 6563   2.063  13.202   2.431  0.6638 -0.6078  0.4683
32211SOL    HW2 6564   2.018  13.239   2.291 -1.1932 -1.9757  0.6699
32212SOL     OW 6565   7.149   9.817   5.828  0.2469  0.1170  0.2323
32212SOL    HW1 6566   7.172   9.811   5.920  2.0956 -0.1250 -0.2187
32212SOL    HW2 6567   7.111   9.732   5.807  0.7981 -0.2032  0.5178
32213SOL     OW 6568   5.658   9.716   8.142 -0.5500 -0.1394 -0.6923
32213SOL    HW1 6569   5.711   9.733   8.065 -1.1305  2.8096 -0.5572
32213SOL    HW2 6570   5.654   9.800   8.188 -2.2689 -1.1738  1.2358
32214SOL     OW 6571   0.297   1.747  12.455  0.3197 -0.1255  0.2015
32214SOL    HW1 6572   0.245   1.792  12.523 -0.5952 -1.5125  0.4814
32214SOL    HW2 6573   0.247   1.761  12.375  1.1914  1.1749 -0.1361
32215SOL     OW 6574   9.472   5.874  12.260 -0.3893 -0.2833 -0.0961
32215SOL    HW1 6575   9.513   5.827  12.188 -0.9732 -2.1418  0.7429
32215SOL    HW2 6576   9.477   5.966  12.234 -0.6952 -0.8990 -2.5578
32216SOL     OW 6577   7.043  11.049   3.019  0.1637  0.1538 -0.1947
32216SOL    HW1 6578   6.965  11.067   2.966  0.3859 -0.6810 -0.8153
32216SOL    HW2 6579   7.012  11.056   3.110 -0.5050  0.3587 -0.4344
32217SOL     OW 6580   2.713   5.169   2.160 -0.0285  0.0246  0.0414
32217SOL    HW1 6581   2.742   5.103   2.097 -0.9318 -0.3381 -0.0145
32217SOL    HW2 6582   2.667   5.118   2.227 -2.0800  0.7119 -0.7721
32218SOL     OW 6583  12.207   3.566   6.602 -0.6866  0.0470 -0.3507
32218SOL    HW1 6584  12.141   3.625   6.566 -1.0273 -0.5605 -0.7510
32218SOL    HW2 6585  12.240   3.518   6.526 -0.5568 -0.4116 -0.0101
32219SOL     OW 6586   7.030  12.919   0.582  0.6275  0.3515 -0.4539
32219SOL    HW1 6587   6.984  12.855   0.529  1.1648  0.7346 -1.4051
32219SOL    HW2 6588   7.085  12.868   0.641 -1.4457 -0.1357  1.1430
32220SOL     OW 6589   2.922   2.049   5.401  0.2783  0.1990 -0.3273
32220SOL    HW1 6590   2.845   2.033   5.456  0.2008 -1.4626 -0.8567
32220SOL    HW2 6591   2.993   2.066   5.462 -0.1534  0.0167  0.2258
32221SOL     OW 6592   6.354   2.717   3.893  0.6205 -0.1395  0.0589
32221SOL    HW1 6593   6.299   2.773   3.839 -0.9247 -1.5628  0.0931
32221SOL    HW2 6594   6.361   2.764   3.976 -0.6737  0.0240  0.0964
32222SOL     OW 6595  10.220   0.273   1.627  0.2302 -0.3427  0.2825
32222SOL    HW1 6596  10.288   0.278   1.694  0.3136 -0.6545  0.2280
32222SOL    HW2 6597  10.147   0.324   1.661 -0.3006 -1.7334  1.2996
32223SOL     OW 6598   5.009   4.008   2.346 -0.0252 -0.2103  0.4085
32223SOL    HW1 6599   4.932   3.955   2.325 -1.1060  0.9270  1.3915
32223SOL    HW2 6600   5.033   4.050   2.263 -0.1172 -0.9960 -0.0242
32224SOL     OW 6601   1.375   6.747   3.673 -0.0191 -0.1213  0.0186
32224SOL    HW1 6602   1.442   6.735   3.606 -0.8546 -1.7800 -0.5761
32224SOL    HW2 6603   1.353   6.840   3.669  0.3125 -0.0836 -1.6701
32225SOL     OW 6604   6.514  11.585   6.573  0.1352  0.1798 -0.4502
32225SOL    HW1 6605   6.499  11.491   6.565 -3.3409  0.4415  1.1654
32225SOL    HW2 6606   6.457  11.624   6.507  0.9186  1.2128 -0.5493
32226SOL     OW 6607   9.297   6.812   2.249 -0.7370  0.5329  0.3940
32226SOL    HW1 6608   9.290   6.810   2.345  1.7189 -0.8983  0.6391
32226SOL    HW2 6609   9.282   6.721   2.222  1.3988  0.2976 -0.2225
32227SOL     OW 6610   5.643   8.545   3.084 -0.2172 -0.2097 -0.6250
32227SOL    HW1 6611   5.574   8.515   3.026 -1.0224 -0.2461  0.3247
32227SOL    HW2 6612   5.665   8.467   3.136 -0.5387  0.1958  0.1243
32228SOL     OW 6613  10.978   5.540   4.250  0.2097  0.0735  0.3499
32228SOL    HW1 6614  10.915   5.602   4.286 -0.3519 -0.5514  0.4409
32228SOL    HW2 6615  10.988   5.473   4.317 -0.4356 -0.8091 -0.4158
32229SOL     OW 6616  10.055   8.536  11.828  0.1858 -0.9600  0.0518
32229SOL    HW1 6617  10.110   8.536  11.906  0.7898  1.9838 -0.2613
32229SOL    HW2 6618  10.015   8.449  11.826  1.0710 -1.5176  2.9575
32230SOL     OW 6619   2.809   4.184   5.200  0.0837  0.1281  0.3653
32230SOL    HW1 6620   2.819   4.099   5.244  2.0492  0.4509  0.6382
32230SOL    HW2 6621   2.842   4.169   5.111  0.4832  0.6076  0.4292
32231SOL     OW 6622   8.783  10.843   8.874 -0.3762 -0.2725 -0.1788
32231SOL    HW1 6623   8.724  10.813   8.944 -0.1614  0.4633  0.3255
32231SOL    HW2 6624   8.828  10.763   8.845 -0.7519 -0.6474  0.2557
32232SOL     OW 6625  10.333   1.148  13.075  0.1325 -0.1278 -0.0283
32232SOL    HW1 6626  10.244   1.142  13.109  0.2112  0.8580  0.3884
32232SOL    HW2 6627  10.375   1.067  13.104 -0.4550 -0.3339  0.2763
32233SOL     OW 6628   8.465   3.156   3.155 -0.4599 -0.0340 -0.6455
32233SOL    HW1 6629   8.384   3.152   3.103 -0.0845 -0.7605 -1.1883
32233SOL    HW2 6630   8.480   3.250   3.167 -1.5329  0.1031 -0.2966
32234SOL     OW 6631  10.775   9.822   6.123 -0.4105 -0.3654 -0.8986
32234SOL    HW1 6632  10.843   9.882   6.094 -0.0526  0.0381  0.6619
32234SOL    HW2 6633  10.805   9.736   6.097  0.0005 -0.0463 -1.4855
32235SOL     OW 6634  10.088  11.165   9.243 -0.3733  0.7098 -0.2306
32235SOL    HW1 6635  10.119  11.078   9.268  1.8796  0.8948 -2.0617
32235SOL    HW2 6636  10.001  11.149   9.206 -0.1863 -0.7244 -0.1257
32236SOL     OW 6637  12.870   8.260   5.939  0.1187 -0.0498  0.2184
32236SOL    HW1 6638  12.899   8.302   5.858 -1.2755  0.7757  0.1167
32236SOL    HW2 6639  12.946   8.211   5.969  0.7790 -0.0708 -1.3908
32237SOL     OW 6640  11.007  13.223   6.769  0.1883  0.4142  0.1735
32237SOL    HW1 6641  11.012  13.291   6.701 -0.1524  0.3815  0.1143
32237SOL    HW2 6642  11.093  13.224   6.810  0.1677  0.9232  0.2117
32238SOL     OW 6643   4.651   8.388   7.433  0.6454 -0.0297  0.7027
32238SOL    HW1 6644   4.705   8.344   7.368  1.6024  0.2233  1.3022
32238SOL    HW2 6645   4.714   8.423   7.496 -0.2403  0.0193  1.5795
32239SOL     OW 6646   0.423  11.884  11.086 -0.2479  0.0818 -0.2218
32239SOL    HW1 6647   0.343  11.855  11.129  0.3944 -0.3607  0.7196
32239SOL    HW2 6648   0.432  11.826  11.010 -1.4887  0.9857 -1.0706
32240SOL     OW 6649  12.371  11.529   9.519  0.0587  0.2486  0.5899
32240SOL    HW1 6650  12.432  11.598   9.543 -1.1177  1.3053  0.6524
32240SOL    HW2 6651  12.415  11.481   9.448  1.1029  0.7293  0.8938
32241SOL     OW 6652   1.039  10.742  10.595  0.2046 -0.0711 -0.4036
32241SOL    HW1 6653   1.126  10.782  10.590  0.0954  0.0801 -1.5037
32241SOL    HW2 6654   1.014  10.750  10.686  0.1536  2.4872 -0.5638
32242SOL     OW 6655  10.966  11.666   4.128 -0.0420 -0.1580  0.2641
32242SOL    HW1 6656  10.895  11.604   4.112 -0.2673  0.7242 -2.8874
32242SOL    HW2 6657  10.936  11.720   4.200 -1.9500 -0.7078 -0.0751
32243SOL     OW 6658   7.431  10.853   8.387 -0.1033  0.8546 -0.7657
32243SOL    HW1 6659   7.428  10.820   8.297 -2.0024  0.0013 -0.4465
32243SOL    HW2 6660   7.517  10.895   8.394  0.5174  0.0370 -2.6403
32244SOL     OW 6661   2.605  12.829  12.218  0.3104 -0.2243  0.1619
32244SOL    HW1 6662   2.698  12.820  12.199  0.0483  0.7662 -1.9281
32244SOL    HW2 6663   2.595  12.920  12.246 -0.0741 -0.1867 -0.0830
32245SOL     OW 6664   1.487   4.405   0.428 -0.0978  0.5785  0.1381
32245SOL    HW1 6665   1.396   4.430   0.412 -0.3462  0.5700  1.4498
32245SOL    HW2 6666   1.531   4.487   0.450 -0.0891  0.3849  0.8404
32246SOL     OW 6667   5.328   1.884   3.414 -0.1814  0.8263  0.5375
32246SOL    HW1 6668   5.257   1.907   3.353 -0.7915  1.1741  1.3631
32246SOL    HW2 6669   5.289   1.819   3.472  1.1209 -1.3913 -0.9140
32247SOL     OW 6670   6.120  11.806  11.766 -0.3321  0.4229 -0.1830
32247SOL    HW1 6671   6.171  11.725  11.766 -0.7033  0.1733  0.6222
32247SOL    HW2 6672   6.182  11.874  11.792 -0.6771 -0.1055  2.3330
32248SOL     OW 6673   1.603   4.909   3.288  0.5136 -0.2248  0.7777
32248SOL    HW1 6674   1.568   4.986   3.244  0.9865  0.8754  2.2400
32248SOL    HW2 6675   1.688   4.894   3.247  1.0678  0.9505  1.4350
32249SOL     OW 6676   0.596   2.759  12.809 -0.0320 -0.0638  0.4253
32249SOL    HW1 6677   0.582   2.678  12.760 -0.7624  0.2147  0.1521
32249SOL    HW2 6678   0.522   2.763  12.870 -0.3226  0.6848  0.0371
32250SOL     OW 6679   8.277   5.699   4.740  0.0420  0.5099 -0.0497
32250SOL    HW1 6680   8.302   5.786   4.772  0.3198  0.7999 -1.0244
32250SOL    HW2 6681   8.279   5.644   4.818 -1.4296  1.6426  0.8304
32251SOL     OW 6682   7.245   6.749   7.999  0.7459 -0.2827  0.4725
32251SOL    HW1 6683   7.213   6.713   8.082  2.1039 -1.4636  0.5188
32251SOL    HW2 6684   7.329   6.706   7.985  0.2855 -0.5708 -1.8169
32252SOL     OW 6685  11.706   4.212   6.870  0.5539  0.0345  0.5799
32252SOL    HW1 6686  11.647   4.232   6.797 -1.0840  1.1415  2.1157
32252SOL    HW2 6687  11.759   4.291   6.880  1.5139 -0.5218 -0.0715
32253SOL     OW 6688  11.400   3.559  12.653 -0.3174  0.5223 -0.3808
32253SOL    HW1 6689  11.439   3.474  12.672 -1.1279 -0.1528 -1.6087
32253SOL    HW2 6690  11.322   3.562  12.708  0.1740  0.8788  0.3249
32254SOL     OW 6691  11.286   8.878  13.207  0.5286 -0.6014  0.2770
32254SOL    HW1 6692  11.282   8.834  13.292  0.1371  0.0595  0.6045
32254SOL    HW2 6693  11.378   8.905  13.198  0.5347 -0.5229  0.5634
32255SOL     OW 6694   7.549  12.290  12.235  0.3500  0.1483 -0.1782
32255SOL    HW1 6695   7.591  12.347  12.300  0.9432  0.9523 -1.2316
32255SOL    HW2 6696   7.562  12.202  12.268 -0.1083  0.5776  1.2219
32256SOL     OW 6697  11.314   3.052  11.712 -0.5251  0.4671 -0.1136
32256SOL    HW1 6698  11.388   3.073  11.655  0.2076 -0.3971  0.4938
32256SOL    HW2 6699  11.237   3.085  11.665  0.2371  1.4152 -0.7396
32257SOL     OW 6700   5.028   4.503  10.410  0.4515  0.5592  0.0073
32257SOL    HW1 6701   4.997   4.430  10.463 -1.7932  0.7605 -0.8886
32257SOL    HW2 6702   5.002   4.581  10.459  0.3332  0.7340 -0.3270
32258SOL     OW 6703   7.689  10.322   8.830 -0.2572  0.6426  0.5275
32258SOL    HW1 6704   7.596  10.312   8.848  0.2243  0.3519  3.3504
32258SOL    HW2 6705   7.716  10.396   8.885  1.0933  1.1360 -0.7252
32259SOL     OW 6706  11.778   3.172   1.698 -0.3253 -0.3453 -0.2154
32259SOL    HW1 6707  11.796   3.094   1.645  0.6474  0.1899 -0.6939
32259SOL    HW2 6708  11.837   3.239   1.664 -0.5998  0.3883  0.6981
32260SOL     OW 6709   1.776  12.616  11.781 -0.3864 -0.0108  0.2768
32260SOL    HW1 6710   1.738  12.703  11.795  1.1702  0.3911  2.7505
32260SOL    HW2 6711   1.729  12.559  11.843  1.4326  0.0667  1.8432
32261SOL     OW 6712   0.225   4.348   9.698  0.7284  0.2844  0.7574
32261SOL    HW1 6713   0.192   4.438   9.696  1.1907  0.4709 -1.3373
32261SOL    HW2 6714   0.184   4.308   9.774  0.8170  2.3786  1.9832
32262SOL     OW 6715   4.755   9.460  12.080 -0.2607 -0.0972 -0.2426
32262SOL    HW1 6716   4.697   9.476  12.005  1.0647 -0.7210 -1.4545
32262SOL    HW2 6717   4.823   9.402  12.045  0.3121 -0.5275  1.5013
32263SOL     OW 6718  10.420   5.755   1.894 -0.5255 -0.4215  0.2283
32263SOL    HW1 6719  10.350   5.821   1.898 -1.6388 -1.6133  1.5797
32263SOL    HW2 6720  10.500   5.806   1.884 -1.2426  1.2590  2.2151
32264SOL     OW 6721   2.748  12.838   0.511 -0.2232 -0.3081  0.0275
32264SOL    HW1 6722   2.726  12.931   0.515 -1.0438 -0.5154  0.5648
32264SOL    HW2 6723   2.664  12.793   0.524  0.2494 -1.1194  0.3354
32265SOL     OW 6724   3.576   2.507   2.393 -0.1896 -0.2752 -0.2661
32265SOL    HW1 6725   3.498   2.555   2.419 -0.6238 -1.8353  1.5392
32265SOL    HW2 6726   3.612   2.557   2.320 -1.4467  1.8884  0.5178
32266SOL     OW 6727   8.978   5.516   4.318 -0.2669  0.4292 -0.1042
32266SOL    HW1 6728   8.997   5.423   4.322 -0.4657  0.3673 -0.5342
32266SOL    HW2 6729   9.027   5.554   4.391 -1.1902 -0.1830  0.8603
32267SOL     OW 6730   2.935  13.115  11.619  0.7579 -0.4567 -0.0219
32267SOL    HW1 6731   2.906  13.090  11.532  0.0605  1.1079 -0.2778
32267SOL    HW2 6732   2.964  13.033  11.660 -0.4896 -1.4721 -1.1065
32268SOL     OW 6733   1.312   9.164   3.647 -0.1628 -0.2586 -0.2656
32268SOL    HW1 6734   1.377   9.166   3.718 -0.3516  0.6875 -0.1128
32268SOL    HW2 6735   1.250   9.096   3.674 -0.1839  0.0345  0.4433
32269SOL     OW 6736   6.734   5.027   9.601 -0.2664 -0.3137  0.1691
32269SOL    HW1 6737   6.735   4.946   9.551  2.6473  0.1264 -0.6385
32269SOL    HW2 6738   6.730   5.096   9.535 -3.3218  0.3376  0.8516
32270SOL     OW 6739   5.133   5.518   9.630  0.2235 -0.0962 -0.9774
32270SOL    HW1 6740   5.135   5.426   9.657 -0.8865  0.0265 -0.3979
32270SOL    HW2 6741   5.224   5.538   9.608  0.5073 -1.2980 -1.0181
32271SOL     OW 6742   1.953   7.654   3.229 -0.6487 -0.2237 -0.6555
32271SOL    HW1 6743   1.939   7.708   3.150 -0.1040 -0.4932 -0.9374
32271SOL    HW2 6744   1.979   7.569   3.195 -0.9716 -0.5115 -0.1913
32272SOL     OW 6745   0.733   0.991   8.563 -0.1463 -0.3272  0.4265
32272SOL    HW1 6746   0.793   0.927   8.525 -0.3079 -0.4753  0.4244
32272SOL    HW2 6747   0.759   1.074   8.523 -1.5373 -0.7400 -1.4759
32273SOL     OW 6748   7.811   6.763   3.725  0.4645 -0.5888 -0.6588
32273SOL    HW1 6749   7.891   6.793   3.766  0.2464  0.6179 -1.0870
32273SOL    HW2 6750   7.748   6.834   3.738  0.2766 -0.3144 -2.7157
32274SOL     OW 6751   4.479  11.182   2.466  0.2283 -0.3570  0.0651
32274SOL    HW1 6752   4.523  11.102   2.495  0.3212 -1.0836 -1.9223
32274SOL    HW2 6753   4.493  11.245   2.537  1.3231 -1.6789  1.0645
32275SOL     OW 6754  10.743   0.426   9.238  0.0606  0.4199 -0.3317
32275SOL    HW1 6755  10.739   0.407   9.144 -1.1452 -1.3138  0.0122
32275SOL    HW2 6756  10.811   0.368   9.271 -1.3786 -1.0373  0.2296
32276SOL     OW 6757   9.315  11.278   3.222  0.4792  0.2784 -0.4285
32276SOL    HW1 6758   9.229  11.251   3.255  0.9677  0.6222  1.2442
32276SOL    HW2 6759   9.296  11.348   3.160 -0.5599 -1.1819 -1.8470
32277SOL     OW 6760   0.995   4.865  12.032 -0.3218  0.3182 -0.6826
32277SOL    HW1 6761   1.004   4.852  11.937 -0.3671  0.3420 -0.6895
32277SOL    HW2 6762   1.085   4.880  12.062 -0.3612  0.7949 -0.7914
32278SOL     OW 6763   4.496   9.957   2.930  0.1124  0.2232 -0.1114
32278SOL    HW1 6764   4.534  10.023   2.871 -0.2999  0.3576 -0.2359
32278SOL    HW2 6765   4.441  10.008   2.990  2.3774  0.3957  1.9896
32279SOL     OW 6766   0.296   4.752  10.690  0.0314  0.0438  0.0503
32279SOL    HW1 6767   0.262   4.835  10.722 -1.2074 -0.8351  1.1079
32279SOL    HW2 6768   0.376   4.737  10.740  1.7268  1.7624 -1.9279
32280SOL     OW 6769  12.956   6.917   3.307 -0.2336  0.6569 -0.0884
32280SOL    HW1 6770  12.898   6.954   3.374  1.9050  0.6442  1.9032
32280SOL    HW2 6771  12.980   6.831   3.341  0.1771  0.2532 -1.3518
32281SOL     OW 6772   0.990   7.452   7.529 -0.1839  0.0305 -0.1635
32281SOL    HW1 6773   0.964   7.449   7.437  1.9033 -1.2339 -0.7875
32281SOL    HW2 6774   0.960   7.368   7.565  1.1994 -0.6149 -0.4136
32282SOL     OW 6775   5.218   5.926   9.387 -0.1373  0.5709 -0.4227
32282SOL    HW1 6776   5.149   5.957   9.329 -0.7148 -1.3251 -0.8154
32282SOL    HW2 6777   5.300   5.954   9.346 -0.6192  1.3760 -0.8376
32283SOL     OW 6778   3.672   6.277   9.754 -0.5811 -0.5765  0.0214
32283SOL    HW1 6779   3.758   6.234   9.757  0.0639  0.6843  0.4200
32283SOL    HW2 6780   3.611   6.212   9.786 -0.1347 -2.2833 -2.3065
32284SOL     OW 6781   8.986   1.181   2.327  0.0206  0.4050  0.2581
32284SOL    HW1 6782   8.946   1.097   2.345  0.8749  0.1006  0.7947
32284SOL    HW2 6783   9.028   1.206   2.409 -1.1529  1.8847  0.4452
32285SOL     OW 6784   6.128   6.816  10.200 -0.4744 -0.6019 -0.2644
32285SOL    HW1 6785   6.216   6.785  10.178 -0.4830 -1.1158  0.4022
32285SOL    HW2 6786   6.082   6.818  10.116  0.2101 -0.1975 -0.6398
32286SOL     OW 6787   4.258   1.071   3.960  0.1574 -0.1247 -0.3062
32286SOL    HW1 6788   4.279   1.044   3.870 -0.3929  0.6974 -0.7036
32286SOL    HW2 6789   4.219   0.993   4.000 -0.6776 -0.1669 -1.1628
32287SOL     OW 6790   9.854   7.207   4.534 -0.4142 -0.1478  0.3910
32287SOL    HW1 6791   9.911   7.190   4.609 -0.2134  0.2316  0.3270
32287SOL    HW2 6792   9.837   7.120   4.498  1.2532 -0.1948 -0.4035
32288SOL     OW 6793  11.413  10.622  12.907  0.1217 -0.5153  0.2116
32288SOL    HW1 6794  11.409  10.646  12.815 -0.2500  0.1877  0.4036
32288SOL    HW2 6795  11.323  10.634  12.939  0.3331 -0.3483  0.7609
32289SOL     OW 6796   4.971   1.651  13.070 -0.1951  0.1711  0.0036
32289SOL    HW1 6797   5.055   1.607  13.084 -0.3364  0.3789  1.8128
32289SOL    HW2 6798   4.994   1.743  13.055 -0.0824  0.1942  0.3135
32290SOL     OW 6799   3.449   0.805   4.879 -0.1625 -0.3775  0.4757
32290SOL    HW1 6800   3.512   0.784   4.810 -1.6765 -1.6364 -0.5993
32290SOL    HW2 6801   3.382   0.737   4.871 -0.3782 -0.6130  3.2436
32291SOL     OW 6802  13.096   1.516   2.029 -0.3115 -0.3969 -0.0291
32291SOL    HW1 6803  13.124   1.566   1.952  1.6662 -2.7644 -0.9687
32291SOL    HW2 6804  13.020   1.466   1.998  1.3125 -2.4175 -1.0172
32292SOL     OW 6805   4.724   2.310  13.160 -0.3634  0.1476  0.0933
32292SOL    HW1 6806   4.638   2.343  13.183 -0.3617 -0.5389  1.1912
32292SOL    HW2 6807   4.728   2.314  13.064 -1.2735  0.9867  0.0878
32293SOL     OW 6808   9.162  12.342   7.386 -0.2129 -0.1467  0.3230
32293SOL    HW1 6809   9.211  12.341   7.469  3.1224  0.4049 -1.4790
32293SOL    HW2 6810   9.082  12.392   7.407  0.7298  0.4264  3.0659
32294SOL     OW 6811   1.095   4.832   8.352  0.1159  0.6540 -0.6531
32294SOL    HW1 6812   1.072   4.807   8.263 -2.6522  0.2083  0.1045
32294SOL    HW2 6813   1.012   4.857   8.393  1.2281  0.4932  1.9276
32295SOL     OW 6814   3.451   7.747   0.482  1.1449  0.0067  0.1272
32295SOL    HW1 6815   3.455   7.838   0.453  0.2464  0.3563  1.0398
32295SOL    HW2 6816   3.382   7.746   0.548  2.0878 -1.0568  1.1375
32296SOL     OW 6817   8.092   8.038   0.213 -0.3098 -0.6502  0.2499
32296SOL    HW1 6818   8.088   7.984   0.135  0.5411  1.7587 -1.5657
32296SOL    HW2 6819   8.032   8.111   0.195  1.9503  1.4247  0.5572
32297SOL     OW 6820   3.891   2.926   6.506 -1.1731 -0.7098  0.0955
32297SOL    HW1 6821   3.808   2.956   6.542 -0.6555  1.3331 -0.2529
32297SOL    HW2 6822   3.870   2.900   6.416 -1.0684  2.7656 -1.1232
32298SOL     OW 6823  12.201   1.741  10.420 -0.3057 -0.0250 -0.4041
32298SOL    HW1 6824  12.288   1.744  10.459 -0.2831 -0.6925 -0.3937
32298SOL    HW2 6825  12.142   1.728  10.495 -0.2849 -1.0307 -0.5437
32299SOL     OW 6826   7.393   5.682   9.245  0.1955  0.1685 -0.3040
32299SOL    HW1 6827   7.435   5.625   9.180 -1.1539  0.0827 -1.1536
32299SOL    HW2 6828   7.383   5.627   9.323  0.5073 -0.2043 -0.5247
32300SOL     OW 6829   1.972   5.544   4.024 -0.1347  1.1877  0.4731
32300SOL    HW1 6830   1.885   5.520   4.058  0.8103  0.8240  2.8010
32300SOL    HW2 6831   2.012   5.461   4.001 -0.1956  1.3264 -0.1755
32301SOL     OW 6832   6.330   0.505   6.567 -0.6152 -0.1527  0.0795
32301SOL    HW1 6833   6.363   0.549   6.646 -0.2779 -1.5945  0.7657
32301SOL    HW2 6834   6.306   0.417   6.597 -2.0684 -0.1919 -1.0777
32302SOL     OW 6835  12.560   7.524  11.593  0.4085  0.3700 -0.0467
32302SOL    HW1 6836  12.650   7.555  11.578  0.7550 -0.8446 -0.6166
32302SOL    HW2 6837  12.568   7.464  11.668 -0.2242  1.4766  0.9391
32303SOL     OW 6838   8.620   8.581   9.631  0.1751  0.8007  0.1655
32303SOL    HW1 6839   8.607   8.489   9.653  0.0338  0.2493 -1.9312
32303SOL    HW2 6840   8.542   8.625   9.665  0.7772  0.3868  2.2108
32304SOL     OW 6841   4.598   9.014   8.891  0.2911  0.3477 -0.1446
32304SOL    HW1 6842   4.629   8.994   8.803  0.1576 -0.7295  0.0453
32304SOL    HW2 6843   4.550   9.096   8.881 -0.9640 -0.4973 -1.3708
32305SOL     OW 6844   1.871  11.546   4.791  0.1206 -0.5828 -0.1037
32305SOL    HW1 6845   1.875  11.615   4.858  2.0012  0.5935 -1.3409
32305SOL    HW2 6846   1.779  11.521   4.789 -0.9948  2.9673 -0.6335
32306SOL     OW 6847   5.078  12.706  12.461 -0.1621 -0.1153  0.0503
32306SOL    HW1 6848   5.115  12.746  12.539 -1.4824  1.3213 -0.0201
32306SOL    HW2 6849   5.120  12.620  12.456 -0.3644 -0.4219  2.5621
32307SOL     OW 6850  11.300   6.385  12.832  0.3549  0.1358 -0.0414
32307SOL    HW1 6851  11.329   6.330  12.760  3.2645  0.6813  0.5838
32307SOL    HW2 6852  11.261   6.325  12.895  0.0133 -0.6524 -0.9802
32308SOL     OW 6853   6.942   7.892   6.057  0.5652 -0.4119 -0.3634
32308SOL    HW1 6854   6.908   7.920   6.142  1.2928  0.6708 -0.4055
32308SOL    HW2 6855   7.037   7.900   6.065  0.7881 -2.3961 -0.5813
32309SOL     OW 6856   1.328   0.725   1.030 -0.3004 -0.1219 -0.2052
32309SOL    HW1 6857   1.416   0.747   1.061 -0.4674 -2.9297  2.7684
32309SOL    HW2 6858   1.342   0.680   0.947  0.7995  1.4691 -0.9317
32310SOL     OW 6859   2.693   9.221  11.864 -0.2699  0.4945  0.4796
32310SOL    HW1 6860   2.729   9.167  11.935  3.4683  0.5801 -1.1113
32310SOL    HW2 6861   2.627   9.166  11.823  2.4896 -2.5286 -0.2774
32311SOL     OW 6862   7.835   3.077  11.395 -0.2234  0.1722  0.2040
32311SOL    HW1 6863   7.752   3.029  11.404  1.5129 -3.0482  0.6105
32311SOL    HW2 6864   7.854   3.108  11.484 -0.9407  0.9220  0.1117
32312SOL     OW 6865  13.003   4.414   7.780 -0.3993 -0.0006  0.1570
32312SOL    HW1 6866  13.066   4.456   7.721  0.9080 -0.0735  1.4237
32312SOL    HW2 6867  13.017   4.458   7.864 -1.8910 -0.2121  0.5382
32313SOL     OW 6868  12.050   3.596  11.811 -0.3123 -0.6382  0.1310
32313SOL    HW1 6869  12.091   3.601  11.898 -0.9978  2.5814  0.3764
32313SOL    HW2 6870  12.121   3.570  11.753  0.7095 -0.6458  1.3307
32314SOL     OW 6871   0.162   1.361   9.449  0.0281 -0.2548  0.0257
32314SOL    HW1 6872   0.175   1.272   9.483  0.2146  0.2942  1.4745
32314SOL    HW2 6873   0.218   1.365   9.371  2.6042 -0.4300  1.7402
32315SOL     OW 6874   6.237   7.834   8.190 -0.6807  0.5863  0.0823
32315SOL    HW1 6875   6.303   7.887   8.235 -2.0775  0.8444  1.9113
32315SOL    HW2 6876   6.277   7.748   8.181  0.7939  1.3197 -1.0158
32316SOL     OW 6877   1.668   6.957   6.249 -0.1888  0.0767 -0.2372
32316SOL    HW1 6878   1.690   7.040   6.206 -0.6789  0.4789  0.2822
32316SOL    HW2 6879   1.739   6.943   6.312  1.0867 -1.0233 -1.8202
32317SOL     OW 6880   9.717  13.308  11.019 -0.4211 -1.0582  1.1257
32317SOL    HW1 6881   9.671  13.354  11.090 -0.6287 -1.3075  1.1540
32317SOL    HW2 6882   9.795  13.272  11.061 -1.8786 -3.5729  1.9260
32318SOL     OW 6883   0.941   2.424   5.500  0.3365  0.0205 -0.3433
32318SOL    HW1 6884   1.020   2.400   5.452  0.0465 -0.8695 -0.3876
32318SOL    HW2 6885   0.939   2.364   5.575  1.7060  2.4409  1.8338
32319SOL     OW 6886   1.618   3.377   8.401 -0.0335  0.4823  0.6295
32319SOL    HW1 6887   1.644   3.468   8.416 -0.9233  0.7546  0.5911
32319SOL    HW2 6888   1.532   3.370   8.442 -1.9948  0.8874 -3.0071
32320SOL     OW 6889   6.949   1.062   1.652  0.3048 -0.6839  0.3115
32320SOL    HW1 6890   6.986   1.001   1.587  1.1533 -1.8295  1.7932
32320SOL    HW2 6891   7.023   1.084   1.709 -0.4409  0.1727  0.9803
32321SOL     OW 6892   3.328   2.436   6.508  0.3391 -0.2204 -0.5106
32321SOL    HW1 6893   3.233   2.434   6.500  0.4954 -0.0046 -3.3265
32321SOL    HW2 6894   3.355   2.519   6.469  1.6859  0.0929  0.9447
32322SOL     OW 6895   3.745   4.005   3.011  0.2878 -0.5787 -0.5132
32322SOL    HW1 6896   3.763   3.972   2.923  0.6423  0.1531 -0.7263
32322SOL    HW2 6897   3.656   4.041   3.004  0.0953 -1.0266 -0.4141
32323SOL     OW 6898   1.241   4.990   6.635 -0.5618 -0.4472  0.1113
32323SOL    HW1 6899   1.335   4.996   6.616 -0.3083 -0.1191  1.3622
32323SOL    HW2 6900   1.228   4.898   6.659 -0.1246 -0.0694  1.9352
32324SOL     OW 6901  11.897   6.882   9.572  1.1660 -0.9041  0.3289
32324SOL    HW1 6902  11.898   6.805   9.628  0.0543  0.6331  2.5995
32324SOL    HW2 6903  11.808   6.915   9.577  2.0176  1.4987  0.8731
32325SOL     OW 6904  10.134  10.651  10.014  0.3852  0.3202  0.7595
32325SOL    HW1 6905  10.084  10.727   9.982  0.7186  0.0552 -0.4457
32325SOL    HW2 6906  10.119  10.651  10.109 -2.4361 -0.1172  0.4023
32326SOL     OW 6907   8.816  12.746   7.631  0.1242  0.0507  0.0380
32326SOL    HW1 6908   8.887  12.800   7.595  0.9128 -0.3954  0.8820
32326SOL    HW2 6909   8.760  12.808   7.678  0.5341  0.2585  0.2561
32327SOL     OW 6910   8.811  11.711  12.837  0.1621 -0.2842  0.4499
32327SOL    HW1 6911   8.784  11.652  12.907 -0.6524  0.5075  0.8150
32327SOL    HW2 6912   8.854  11.654  12.773 -0.5058 -1.2551  0.8419
32328SOL     OW 6913  13.062  11.580  10.673  0.2216  0.5432  0.0475
32328SOL    HW1 6914  13.125  11.608  10.740  1.3665 -2.1366  0.2335
32328SOL    HW2 6915  13.114  11.526  10.613 -1.7238 -1.0955 -0.2663
32329SOL     OW 6916  12.345   0.668   9.615  0.3307 -0.1188  0.1633
32329SOL    HW1 6917  12.377   0.670   9.524  2.0041 -0.4712  0.7200
32329SOL    HW2 6918  12.267   0.724   9.613  0.2442 -0.2207 -1.5160
32330SOL     OW 6919   9.805   5.288   8.239 -0.1936  0.4568  0.1462
32330SOL    HW1 6920   9.876   5.236   8.279 -1.1636 -0.2035  1.0572
32330SOL    HW2 6921   9.849   5.337   8.170  1.1582  0.0235  0.6411
32331SOL     OW 6922  11.764   2.316   9.478 -0.1474  0.6646  0.2953
32331SOL    HW1 6923  11.719   2.398   9.495 -2.2810 -0.0476 -1.5579
32331SOL    HW2 6924  11.811   2.330   9.396  1.0964  0.6054  0.9641
32332SOL     OW 6925   5.714   8.931   9.470  0.8813  0.7104 -0.1887
32332SOL    HW1 6926   5.792   8.983   9.491 -0.1107  1.7703  1.1042
32332SOL    HW2 6927   5.748   8.844   9.449  2.3425  0.7090  1.8226
32333SOL     OW 6928  11.373   5.631  12.674 -0.0509 -0.8266  0.1676
32333SOL    HW1 6929  11.409   5.719  12.687 -0.8224 -0.1248 -2.0668
32333SOL    HW2 6930  11.431   5.575  12.725  1.2439  0.8091  0.6138
32334SOL     OW 6931   4.632  10.742   0.056  0.1997 -0.2904 -0.5455
32334SOL    HW1 6932   4.632  10.749   0.152  0.4937  0.6466 -0.6020
32334SOL    HW2 6933   4.719  10.770   0.030  0.0676 -0.3899 -1.0963
32335SOL     OW 6934   6.471   8.354  12.459 -0.4016  0.3144  0.2312
32335SOL    HW1 6935   6.506   8.430  12.506 -2.7578  1.6650 -0.0758
32335SOL    HW2 6936   6.547   8.319  12.411  1.1562  1.2871  1.8528
32336SOL     OW 6937   6.025   0.087   2.169  0.0338  0.4811  0.1904
32336SOL    HW1 6938   5.976   0.083   2.251 -0.6950  0.6698 -0.2326
32336SOL    HW2 6939   5.959   0.104   2.102  0.6872  0.8322 -0.3745
32337SOL     OW 6940   0.373   5.861   3.669  0.3027 -0.2766  0.1025
32337SOL    HW1 6941   0.391   5.766   3.670 -1.2126 -0.5985  1.7643
32337SOL    HW2 6942   0.392   5.889   3.758  0.7249  1.0127 -0.3809
32338SOL     OW 6943   5.738  12.234   7.497  0.2128 -0.1084 -0.1801
32338SOL    HW1 6944   5.764  12.202   7.411 -0.3900 -0.9338 -0.0652
32338SOL    HW2 6945   5.679  12.167   7.531  0.8633 -0.0633  1.1041
32339SOL     OW 6946   9.306  11.727   1.312 -0.7901  0.4315  0.2427
32339SOL    HW1 6947   9.330  11.818   1.293 -1.4161  0.7211  0.8008
32339SOL    HW2 6948   9.212  11.729   1.327 -0.7363 -0.2281  0.7302
32340SOL     OW 6949   0.983   7.893   3.306  0.0520  0.1179  0.3617
32340SOL    HW1 6950   1.077   7.878   3.304 -0.1634 -1.4349 -0.0790
32340SOL    HW2 6951   0.945   7.805   3.304 -1.4398  0.6779 -2.4090
32341SOL     OW 6952   6.905   3.493   4.396  0.3682  0.2146  0.1768
32341SOL    HW1 6953   6.870   3.409   4.367 -0.9708  0.8523 -0.1412
32341SOL    HW2 6954   6.996   3.492   4.368 -0.2913 -0.0924 -2.1661
32342SOL     OW 6955   6.854  13.002   7.823  0.0507 -0.5272  0.4051
32342SOL    HW1 6956   6.829  13.036   7.737  1.6842  0.5078  0.2923
32342SOL    HW2 6957   6.892  12.916   7.805 -0.0180 -0.5060  0.1541
32343SOL     OW 6958   5.470   7.426  10.179  0.3625 -0.2164  0.4080
32343SOL    HW1 6959   5.547   7.482  10.190 -0.2811  0.9249 -0.6909
32343SOL    HW2 6960   5.401   7.468  10.230 -0.6178  1.0741 -1.8211
32344SOL     OW 6961   3.835  12.502  11.359  0.1317 -0.3988  0.0118
32344SOL    HW1 6962   3.816  12.540  11.274  1.5069  0.5729  0.1150
32344SOL    HW2 6963   3.752  12.462  11.386 -0.5541  0.0126 -1.3847
32345SOL     OW 6964  11.964  10.484  11.929 -0.4475  0.7817 -0.0120
32345SOL    HW1 6965  12.003  10.571  11.925  1.1197  0.0819 -1.2553
32345SOL    HW2 6966  11.878  10.494  11.888 -0.4850  1.8332  0.3050
32346SOL     OW 6967   0.779   8.795  12.117  0.8209 -0.1553  0.1868
32346SOL    HW1 6968   0.736   8.767  12.037  1.5859 -0.6987 -0.0443
32346SOL    HW2 6969   0.736   8.743  12.186 -0.2633  0.7592  0.2276
32347SOL     OW 6970  10.955  11.548   5.084  0.0949  0.2150 -0.1331
32347SOL    HW1 6971  10.944  11.497   5.164 -1.3245  0.1960 -0.3124
32347SOL    HW2 6972  10.944  11.639   5.112  1.5785  0.3645  0.0102
32348SOL     OW 6973   8.767   4.779   5.127  0.4178 -0.0041 -0.6983
32348SOL    HW1 6974   8.734   4.786   5.038 -0.5898  1.8420 -0.2242
32348SOL    HW2 6975   8.820   4.857   5.140 -0.1533  0.2083  0.5813
32349SOL     OW 6976   0.254  11.017   2.940 -0.6773  0.0000  0.1392
32349SOL    HW1 6977   0.295  10.949   2.886 -1.0987  1.4311 -2.0822
32349SOL    HW2 6978   0.183  10.970   2.986 -0.2792 -1.2837 -0.4920
32350SOL     OW 6979   1.848   8.450   1.322 -1.3348 -0.3478 -0.2877
32350SOL    HW1 6980   1.884   8.521   1.269 -1.8263  0.3076  0.2384
32350SOL    HW2 6981   1.754   8.450   1.302 -1.4762 -0.2925  0.3301
32351SOL     OW 6982  12.802   4.345   4.741  0.0886 -0.1990 -0.2775
32351SOL    HW1 6983  12.797   4.426   4.792  0.6486 -0.8761  0.8998
32351SOL    HW2 6984  12.711   4.321   4.725 -0.0847  0.5675 -0.4916
32352SOL     OW 6985  10.791  12.396  10.650  0.1676 -0.0541  0.8061
32352SOL    HW1 6986  10.811  12.343  10.727 -1.1643  0.7569  1.7449
32352SOL    HW2 6987  10.777  12.484  10.685 -0.3264  0.3544 -0.3832
32353SOL     OW 6988  12.107   1.331   2.642 -0.3180  0.3852  0.4148
32353SOL    HW1 6989  12.091   1.320   2.548  0.2612  0.6815  0.2767
32353SOL    HW2 6990  12.142   1.246   2.670  1.6553  0.9647 -0.1129
32354SOL     OW 6991  12.850   6.284  12.626 -0.0969 -0.7983 -0.3309
32354SOL    HW1 6992  12.940   6.253  12.615  0.2678  0.4505 -1.1375
32354SOL    HW2 6993  12.819   6.297  12.536 -1.1130 -1.2652 -0.0595
32355SOL     OW 6994   2.169   3.793  10.904 -0.4722  0.5791  0.4141
32355SOL    HW1 6995   2.088   3.838  10.928  0.2331  0.8785  2.4249
32355SOL    HW2 6996   2.236   3.861  10.910  0.3596 -0.3376  1.8012
32356SOL     OW 6997   3.201  10.281   8.272  0.3019 -0.0956 -0.1251
32356SOL    HW1 6998   3.164  10.349   8.216 -1.1442 -1.8287 -1.4412
32356SOL    HW2 6999   3.267  10.238   8.217  0.8821 -0.0366  0.5170
32357SOL     OW 7000   3.655   8.329   1.391 -0.3344  0.1138  0.4071
32357SOL    HW1 7001   3.703   8.409   1.368 -1.0897  1.0853  2.0629
32357SOL    HW2 7002   3.707   8.258   1.352  0.9061  1.3169 -0.2255
32358SOL     OW 7003   6.048   1.931   1.504  0.7584 -0.3427 -0.0854
32358SOL    HW1 7004   6.107   1.961   1.573 -0.3670  1.9508 -0.0293
32358SOL    HW2 7005   6.014   2.011   1.465 -0.4627 -1.5922 -1.7388
32359SOL     OW 7006   6.123   6.342  10.899  0.3814 -0.3614  0.5027
32359SOL    HW1 7007   6.134   6.262  10.848 -3.0429 -0.9275  0.3753
32359SOL    HW2 7008   6.061   6.317  10.968 -1.3037  2.2492  0.0757
32360SOL     OW 7009   3.088   9.072  11.856  0.0287 -0.1923  0.2342
32360SOL    HW1 7010   3.056   9.042  11.771  1.8725 -0.1072 -0.5499
32360SOL    HW2 7011   3.052   9.160  11.865  1.1909  0.4992 -1.3260
32361SOL     OW 7012   0.109   3.016   7.022 -0.0498  0.2497  0.6728
32361SOL    HW1 7013   0.022   2.990   7.051 -0.1670  1.8752  1.9810
32361SOL    HW2 7014   0.093   3.089   6.962  0.3529 -0.8979 -0.8840
32362SOL     OW 7015   6.757   1.938  10.917 -0.2521 -0.0845  0.0628
32362SOL    HW1 7016   6.796   1.949  10.830 -0.4738  2.2516  0.1935
32362SOL    HW2 7017   6.832   1.940  10.977 -0.1186 -1.5013 -0.0083
32363SOL     OW 7018  10.784   0.093   3.567  0.7218  0.1121 -0.3018
32363SOL    HW1 7019  10.875   0.066   3.570  0.5120 -0.8969 -1.9645
32363SOL    HW2 7020  10.764   0.121   3.657  2.4614 -0.2598  0.2260
32364SOL     OW 7021   5.134  12.873  11.685  0.4241  0.1836  0.3572
32364SOL    HW1 7022   5.119  12.779  11.677 -1.9538  0.6068 -0.9058
32364SOL    HW2 7023   5.142  12.888  11.780 -0.7565 -1.0906  0.6846
32365SOL     OW 7024  12.156  10.212  11.158 -0.0144  0.1606  0.5919
32365SOL    HW1 7025  12.162  10.117  11.169  1.2628  0.2217  0.6508
32365SOL    HW2 7026  12.194  10.247  11.238  2.9679  0.6609 -0.9094
32366SOL     OW 7027  11.087  12.031   6.674 -0.3226 -0.4536  0.1411
32366SOL    HW1 7028  11.005  12.079   6.662 -0.2198 -0.3495 -0.1351
32366SOL    HW2 7029  11.156  12.094   6.650 -0.1627 -0.5576  0.3210
32367SOL     OW 7030   5.179  10.813   0.505  0.4913  0.2531  0.0730
32367SOL    HW1 7031   5.266  10.779   0.526  0.2863 -1.5579 -1.6993
32367SOL    HW2 7032   5.149  10.758   0.433 -2.9887 -0.5522  1.9356
32368SOL     OW 7033   7.360  11.358   7.088 -0.3509 -0.3653  0.5118
32368SOL    HW1 7034   7.429  11.345   7.154  0.7314 -0.8659 -0.6842
32368SOL    HW2 7035   7.407  11.381   7.008 -1.6013 -0.3369 -0.2399
32369SOL     OW 7036   7.086   3.288  11.203  0.0368 -0.5960  0.0765
32369SOL    HW1 7037   7.106   3.261  11.113  0.4005  0.3757 -0.1378
32369SOL    HW2 7038   7.150   3.356  11.223 -3.3425  3.1831 -0.8714
32370SOL     OW 7039  12.502   6.940   4.624  0.5205 -0.1118 -0.4510
32370SOL    HW1 7040  12.446   7.004   4.581  1.9514  1.8258  0.4438
32370SOL    HW2 7041  12.591   6.970   4.607  1.1894 -0.8690  1.4351
32371SOL     OW 7042   9.643   2.763   4.616 -0.3746  0.4453 -0.4513
32371SOL    HW1 7043   9.720   2.747   4.561  1.2796 -2.2666  2.2985
32371SOL    HW2 7044   9.584   2.690   4.596 -1.1526  1.1374 -0.7545
32372SOL     OW 7045   9.770  11.778   4.734  0.2533  0.1728 -0.2804
32372SOL    HW1 7046   9.848  11.770   4.788 -1.1127 -1.3832  1.6081
32372SOL    HW2 7047   9.772  11.868   4.701  1.1040  1.2649  2.5015
32373SOL     OW 7048   2.544   1.709  10.063  0.1388 -0.6827 -0.0046
32373SOL    HW1 7049   2.483   1.685   9.994 -0.3501  1.5491 -0.4328
32373SOL    HW2 7050   2.506   1.672  10.143 -2.2444  1.2117 -0.1443
32374SOL     OW 7051   7.851   3.947   0.515 -0.0482  0.0758  0.2916
32374SOL    HW1 7052   7.776   3.990   0.474  0.6833 -0.6594 -1.9760
32374SOL    HW2 7053   7.865   3.869   0.461  1.1575 -0.8409  1.8563
32375SOL     OW 7054   0.948   1.266   5.524  0.0211  0.2306 -0.3369
32375SOL    HW1 7055   0.905   1.312   5.451  2.1466  0.6547 -1.3928
32375SOL    HW2 7056   1.040   1.293   5.518  0.6474 -1.4057  1.2238
32376SOL     OW 7057   4.435   2.415   2.412  0.2975 -0.6848 -0.3612
32376SOL    HW1 7058   4.505   2.365   2.454 -1.0008 -1.1913  1.3039
32376SOL    HW2 7059   4.354   2.375   2.445 -0.8687  3.1897  2.0488
32377SOL     OW 7060   0.080   2.801   4.104 -0.3865  0.7329  0.3530
32377SOL    HW1 7061   0.020   2.763   4.039  0.1705  1.0135 -0.3304
32377SOL    HW2 7062   0.024   2.818   4.180 -1.3287  1.6273 -0.5186
32378SOL     OW 7063   7.940   9.130   2.952 -0.1720 -0.3858  0.2035
32378SOL    HW1 7064   7.945   9.092   3.040 -0.4110  2.2418  1.4204
32378SOL    HW2 7065   8.028   9.162   2.934 -0.5785  0.8737  0.3666
32379SOL     OW 7066   5.696  12.611  11.128  0.3573  0.1556 -0.1410
32379SOL    HW1 7067   5.635  12.599  11.055  0.8817 -0.0631 -0.5497
32379SOL    HW2 7068   5.662  12.554  11.197 -0.7515  1.1682  0.1827
32380SOL     OW 7069   2.864   8.332  11.627  0.5554 -0.5760 -0.4813
32380SOL    HW1 7070   2.814   8.396  11.577  0.5966 -0.4190 -0.3246
32380SOL    HW2 7071   2.938   8.382  11.662 -0.4349 -0.2387  1.2515
32381SOL     OW 7072  10.942   9.419   9.566 -0.3618 -0.0322 -0.0623
32381SOL    HW1 7073  10.890   9.339   9.552 -0.8958  0.5265 -1.4642
32381SOL    HW2 7074  10.916   9.449   9.653 -2.3396  0.1527 -0.6551
32382SOL     OW 7075   7.139   8.598   3.471  0.4029  0.2511 -0.2390
32382SOL    HW1 7076   7.135   8.644   3.387 -1.7248 -1.3864 -1.1107
32382SOL    HW2 7077   7.056   8.618   3.514 -0.6617 -2.6794 -0.6889
32383SOL     OW 7078   4.622   9.924   6.892  0.2684  0.4018  0.4191
32383SOL    HW1 7079   4.697   9.980   6.908 -1.7347  3.2314  0.6996
32383SOL    HW2 7080   4.595   9.895   6.979 -1.6834  3.3578  0.9245
32384SOL     OW 7081   1.653   4.608  13.006 -0.3657 -0.6073  0.5286
32384SOL    HW1 7082   1.741   4.591  12.973 -0.5376  1.3094 -1.0796
32384SOL    HW2 7083   1.662   4.603  13.101  1.5880 -0.0054  0.4251
32385SOL     OW 7084  10.118  10.182   3.951 -0.3900 -0.4767  0.0380
32385SOL    HW1 7085  10.106  10.252   3.887 -2.4119 -0.5053  0.3413
32385SOL    HW2 7086  10.081  10.217   4.032 -1.1201 -1.7590  0.2791
32386SOL     OW 7087   6.579  12.135   8.771 -0.0796 -0.0447  0.3189
32386SOL    HW1 7088   6.634  12.065   8.735  0.0819  0.4237 -0.3719
32386SOL    HW2 7089   6.617  12.216   8.737 -0.2861  0.3828  1.0830
32387SOL     OW 7090  11.844   8.378   9.708 -0.1066  0.2555 -0.0735
32387SOL    HW1 7091  11.905   8.404   9.639  1.6508 -0.5174  1.1167
32387SOL    HW2 7092  11.795   8.305   9.670 -0.0609  0.6596 -0.9348
32388SOL     OW 7093  12.081   8.168  12.193  0.4116  0.6683 -0.3241
32388SOL    HW1 7094  12.063   8.075  12.212  1.6150  0.5706  0.4125
32388SOL    HW2 7095  11.994   8.207  12.183 -0.1007 -0.6628 -1.3089
32389SOL     OW 7096   8.802   8.313  12.358  0.1587  0.5698 -0.6871
32389SOL    HW1 7097   8.835   8.294  12.271  1.6835  0.6099 -0.1496
32389SOL    HW2 7098   8.852   8.254  12.416 -0.8278  0.5322  0.1572
32390SOL     OW 7099  10.826  12.317   3.143 -0.0104  0.4657 -0.1640
32390SOL    HW1 7100  10.867  12.291   3.225  1.1119  1.3830 -0.4160
32390SOL    HW2 7101  10.823  12.413   3.146 -0.8763  0.4758 -0.7628
32391SOL     OW 7102   8.169  12.811   4.072  0.0081  0.0391  0.0019
32391SOL    HW1 7103   8.152  12.893   4.026  1.7631  0.2806 -0.2787
32391SOL    HW2 7104   8.152  12.742   4.008  0.4440  0.2868 -0.3851
32392SOL     OW 7105   8.620   8.726  12.294 -0.5263 -0.1623  0.0300
32392SOL    HW1 7106   8.554   8.785  12.259  0.0769 -1.2366 -3.2919
32392SOL    HW2 7107   8.703   8.767  12.271 -0.0061 -0.1267  1.8068
32393SOL     OW 7108   9.571   2.122  11.191  0.0936  0.5924 -0.0984
32393SOL    HW1 7109   9.551   2.123  11.098 -1.3188  1.4906  0.1773
32393SOL    HW2 7110   9.615   2.206  11.207  0.8190  0.2069 -0.0466
32394SOL     OW 7111   2.545   8.333   1.879  0.2135  0.0079  0.5576
32394SOL    HW1 7112   2.463   8.307   1.921 -0.3213  1.9112  0.7506
32394SOL    HW2 7113   2.590   8.385   1.946  0.7187  0.5499 -0.1917
32395SOL     OW 7114   6.204   9.061   9.338 -0.5691 -0.3234  0.2497
32395SOL    HW1 7115   6.231   9.007   9.413 -0.9164  0.2455  0.7982
32395SOL    HW2 7116   6.234   9.150   9.361  2.2198 -0.6162 -1.7381
32396SOL     OW 7117   7.420  12.599   2.205 -0.2691  0.0462 -0.5747
32396SOL    HW1 7118   7.361  12.526   2.225 -4.5986  2.5305 -2.6783
32396SOL    HW2 7119   7.411  12.658   2.280  0.6677 -0.1165 -0.3209
32397SOL     OW 7120   0.011  11.690   2.530 -0.3286  0.7318  0.0809
32397SOL    HW1 7121  -0.003  11.598   2.510  0.3183  0.7284 -0.3743
32397SOL    HW2 7122   0.104  11.697   2.551  0.2607  1.7169 -2.5205
32398SOL     OW 7123   5.477  11.248   1.470  0.9350 -0.3447  0.1909
32398SOL    HW1 7124   5.405  11.185   1.468 -0.9869  1.6295  2.4878
32398SOL    HW2 7125   5.552  11.198   1.437  0.0690 -4.5588  3.7061
32399SOL     OW 7126   3.356   9.839   2.473 -0.0563 -0.5455 -0.2844
32399SOL    HW1 7127   3.291   9.873   2.534  0.9881  0.2246  0.4384
32399SOL    HW2 7128   3.306   9.787   2.410 -1.4087  0.3836 -0.0052
32400SOL     OW 7129  11.652  10.878   5.925  0.2650  0.5102 -0.3523
32400SOL    HW1 7130  11.740  10.863   5.961 -0.5871 -0.2348  1.5023
32400SOL    HW2 7131  11.640  10.973   5.933  1.2673  0.7715 -1.5841
32401SOL     OW 7132  11.742   8.300   1.432 -0.9059  0.0917 -0.0377
32401SOL    HW1 7133  11.808   8.350   1.481 -1.7050 -0.7561  1.9945
32401SOL    HW2 7134  11.704   8.364   1.371  0.0563  1.2210  0.5015
32402SOL     OW 7135   8.146  13.276   7.425  0.7008 -0.5696 -0.3699
32402SOL    HW1 7136   8.200  13.197   7.412 -0.3671 -1.3600 -0.1259
32402SOL    HW2 7137   8.180  13.338   7.361  3.3125 -0.2552  1.1729
32403SOL     OW 7138  11.769   5.957   2.830 -0.2758 -0.1753  0.0987
32403SOL    HW1 7139  11.814   5.873   2.820 -0.9680 -0.7227  1.3335
32403SOL    HW2 7140  11.815   6.016   2.771  1.3916 -0.9561  0.5464
32404SOL     OW 7141   2.668   6.470  11.145 -0.4637 -0.3229 -0.4489
32404SOL    HW1 7142   2.719   6.434  11.073  0.4562 -0.0839  0.0555
32404SOL    HW2 7143   2.600   6.406  11.162 -2.2711  0.7262 -3.1388
32405SOL     OW 7144   1.409  13.163   4.839  0.2235  0.4542  0.8353
32405SOL    HW1 7145   1.328  13.208   4.864 -0.1266 -0.2582  1.0252
32405SOL    HW2 7146   1.456  13.226   4.785 -0.5942  0.7863  0.4895
32406SOL     OW 7147   4.793   4.316   2.064 -0.5395 -0.7236  0.5492
32406SOL    HW1 7148   4.886   4.316   2.040 -0.0578 -0.3291  2.2363
32406SOL    HW2 7149   4.793   4.337   2.158 -2.3344 -0.8202  0.6039
32407SOL     OW 7150   8.812   8.533   5.752 -0.3625 -0.0137  0.3309
32407SOL    HW1 7151   8.812   8.621   5.716 -0.0222 -0.0178  0.3262
32407SOL    HW2 7152   8.795   8.476   5.676  0.5129 -0.0340  0.1470
32408SOL     OW 7153  10.498   7.338  10.820 -0.3648  0.3617 -0.3761
32408SOL    HW1 7154  10.579   7.348  10.769 -0.2831  1.4209 -0.0532
32408SOL    HW2 7155  10.436   7.396  10.777  0.2660  2.8752  1.8663
32409SOL     OW 7156   9.801   3.087   5.480 -0.2993  0.5634 -0.0057
32409SOL    HW1 7157   9.780   3.062   5.570 -0.1341 -0.1315 -0.1546
32409SOL    HW2 7158   9.798   3.005   5.431 -0.1563  0.9020 -0.5890
32410SOL     OW 7159   2.132   4.049   7.609 -0.2384  0.0919 -0.6396
32410SOL    HW1 7160   2.135   4.115   7.539 -0.2286 -0.2147 -0.9336
32410SOL    HW2 7161   2.079   4.089   7.677 -0.3257  0.3624 -0.8627
32411SOL     OW 7162   2.876   3.864   7.290  0.6775  0.0805 -0.6709
32411SOL    HW1 7163   2.898   3.804   7.361 -0.7469  0.0811 -0.1949
32411SOL    HW2 7164   2.883   3.811   7.211 -0.7190 -0.8016 -0.2479
32412SOL     OW 7165   7.552   7.605   8.722 -0.3556  0.5257  0.2567
32412SOL    HW1 7166   7.458   7.622   8.718 -0.5784 -0.4917  0.8910
32412SOL    HW2 7167   7.570   7.592   8.815 -0.2488 -2.6390 -0.0919
32413SOL     OW 7168   5.103  10.050   8.180 -0.7576 -0.4450 -0.1111
32413SOL    HW1 7169   5.175  10.064   8.241 -0.2311  0.4093 -0.8951
32413SOL    HW2 7170   5.127  10.100   8.102 -2.3302  0.0956 -0.2973
32414SOL     OW 7171  10.773   1.087   3.901  0.2572  0.0541 -0.1645
32414SOL    HW1 7172  10.842   1.029   3.870  2.5505 -0.0445  4.3104
32414SOL    HW2 7173  10.691   1.043   3.877  1.8562 -3.9067  0.9519
32415SOL     OW 7174  11.264   7.332   4.183 -0.1535 -0.5490  0.4494
32415SOL    HW1 7175  11.169   7.337   4.171  0.1483 -0.1684 -2.4029
32415SOL    HW2 7176  11.301   7.377   4.107  2.3355 -2.8713  0.1297
32416SOL     OW 7177   8.686   9.062   0.667 -0.5206  0.4214  0.1928
32416SOL    HW1 7178   8.709   9.136   0.723  2.1130 -0.4937  0.4856
32416SOL    HW2 7179   8.675   8.989   0.728 -0.7659  0.0803 -0.2573
32417SOL     OW 7180   1.776   1.486  13.172 -0.3773  0.2441 -0.3326
32417SOL    HW1 7181   1.743   1.575  13.179 -2.4061 -0.3669 -1.2451
32417SOL    HW2 7182   1.752   1.459  13.083 -2.1978 -2.0554  0.7429
32418SOL     OW 7183  10.469   7.138   3.949 -0.2648 -0.0337  0.1708
32418SOL    HW1 7184  10.492   7.104   3.862 -0.6236 -1.9793  0.7992
32418SOL    HW2 7185  10.538   7.202   3.968 -1.0627  1.7068 -2.2068
32419SOL     OW 7186   7.495   3.823   5.314 -0.6070 -0.2050  0.1179
32419SOL    HW1 7187   7.503   3.853   5.405 -0.5660 -0.5097  0.2174
32419SOL    HW2 7188   7.494   3.903   5.262 -1.1532 -0.0011  0.4283
32420SOL     OW 7189   8.172   2.996   3.457  0.3689 -0.1592  0.1459
32420SOL    HW1 7190   8.107   3.066   3.466  1.1310  0.7360 -0.9430
32420SOL    HW2 7191   8.237   3.015   3.524  1.2902  1.0351 -1.0397
32421SOL     OW 7192  12.489   4.250   5.643 -0.1357  0.1886  0.0123
32421SOL    HW1 7193  12.542   4.305   5.701 -0.9549 -0.7555  1.7105
32421SOL    HW2 7194  12.442   4.191   5.701  0.0906 -1.8068 -1.6988
32422SOL     OW 7195  11.371  10.124   7.092  0.3397  0.3482 -0.2366
32422SOL    HW1 7196  11.378  10.031   7.112  1.0041  0.6484  1.1240
32422SOL    HW2 7197  11.278  10.143   7.096  0.1704 -0.3092 -0.8458
32423SOL     OW 7198  11.057  10.784  12.260  0.4615  0.3126 -0.0073
32423SOL    HW1 7199  10.985  10.745  12.212  0.6556 -0.0801  0.0228
32423SOL    HW2 7200  11.082  10.861  12.208  0.2371  0.2657 -0.1842
32424SOL     OW 7201   6.314  10.555   1.933  0.2573 -0.3139 -0.4167
32424SOL    HW1 7202   6.280  10.505   1.859 -1.5548 -0.2345  0.2939
32424SOL    HW2 7203   6.325  10.644   1.899 -0.5387 -0.2837 -0.6263
32425SOL     OW 7204   6.094  10.174   5.029  0.9552  0.1035 -0.1533
32425SOL    HW1 7205   6.034  10.108   5.064  0.8717  0.3093  0.0935
32425SOL    HW2 7206   6.042  10.254   5.026  1.7737  0.7681  1.9544
32426SOL     OW 7207  10.519   3.644   4.041  0.0895 -0.2776 -0.2345
32426SOL    HW1 7208  10.513   3.738   4.056  0.9674 -0.4279  1.2718
32426SOL    HW2 7209  10.611   3.630   4.016 -0.2478 -0.6458 -1.3502
32427SOL     OW 7210   2.414  10.830   2.160  0.0025  0.1306 -0.2434
32427SOL    HW1 7211   2.398  10.888   2.235  1.1572 -1.4254  1.2998
32427SOL    HW2 7212   2.365  10.751   2.180 -2.3214  0.7770 -2.7784
32428SOL     OW 7213   0.606   0.496   7.752 -0.1190 -0.3274 -0.7024
32428SOL    HW1 7214   0.523   0.499   7.799 -0.0123 -0.3517 -0.5126
32428SOL    HW2 7215   0.672   0.517   7.818  0.1950 -2.0668 -0.4137
32429SOL     OW 7216   8.985   0.130   3.086  0.1037 -0.0061  0.9682
32429SOL    HW1 7217   9.033   0.112   3.167 -0.7323 -2.4997  0.9856
32429SOL    HW2 7218   8.915   0.064   3.083 -0.5709  0.6928 -1.2466
32430SOL     OW 7219   5.151   0.696   5.824 -0.2530 -0.1468  0.1079
32430SOL    HW1 7220   5.096   0.643   5.766 -0.3694  0.2457 -0.1492
32430SOL    HW2 7221   5.237   0.654   5.820 -0.4230 -0.5010  0.1587
32431SOL     OW 7222  12.233   8.750   2.130  0.4475  0.2461 -0.0704
32431SOL    HW1 7223  12.244   8.756   2.225 -0.5955 -0.1924  0.0945
32431SOL    HW2 7224  12.316   8.716   2.098  1.0546  1.0610  0.6090
32432SOL     OW 7225   8.789   6.260   7.330 -0.0323  0.1056  0.3781
32432SOL    HW1 7226   8.805   6.166   7.334 -0.8944 -0.1569 -1.3997
32432SOL    HW2 7227   8.693   6.268   7.331  0.0399  1.0153  1.2492
32433SOL     OW 7228   2.423   4.599  11.390  0.6118  1.1705  0.1892
32433SOL    HW1 7229   2.343   4.603  11.338  0.6870 -1.0800 -0.2113
32433SOL    HW2 7230   2.484   4.549  11.336  1.2653  0.2482  1.7259
32434SOL     OW 7231   0.993   4.640   1.999 -0.5498  0.6368 -0.7720
32434SOL    HW1 7232   0.951   4.602   2.076 -0.2407  0.1616 -0.8362
32434SOL    HW2 7233   1.041   4.716   2.033 -3.6938  2.9651 -1.0773
32435SOL     OW 7234  12.934  12.597   5.020  0.7349 -0.8019 -0.2949
32435SOL    HW1 7235  13.017  12.641   5.002  0.4101 -0.2658 -0.5434
32435SOL    HW2 7236  12.891  12.592   4.934  1.0782 -2.3017 -0.4066
32436SOL     OW 7237   1.134   9.764   7.868 -0.1861  0.1000 -0.1483
32436SOL    HW1 7238   1.096   9.851   7.880  0.6238  0.1977  2.4924
32436SOL    HW2 7239   1.228   9.780   7.859 -0.0976 -0.4808 -0.3181
32437SOL     OW 7240   8.194   7.456   9.864 -0.0335 -0.4824 -0.0475
32437SOL    HW1 7241   8.110   7.491   9.833  0.2442  0.0783 -0.1718
32437SOL    HW2 7242   8.206   7.497   9.950  0.9565  0.8168 -0.7829
32438SOL     OW 7243   0.124   1.001  11.753 -0.5477  0.2795 -0.6151
32438SOL    HW1 7244   0.063   0.929  11.767  1.1430 -1.5746 -2.1356
32438SOL    HW2 7245   0.210   0.963  11.771  0.4112  1.9347 -1.4796
32439SOL     OW 7246   4.482   6.828   0.887 -0.2296  0.3762 -0.2154
32439SOL    HW1 7247   4.455   6.848   0.798 -1.2915 -0.7400 -0.1679
32439SOL    HW2 7248   4.545   6.756   0.878  0.5176  0.9997 -0.1190
32440SOL     OW 7249   5.957  12.143   0.832 -0.5028 -0.0295 -0.2831
32440SOL    HW1 7250   6.012  12.086   0.885  1.2469  0.3264 -1.6335
32440SOL    HW2 7251   6.006  12.224   0.824 -2.5166  1.3914  0.7829
32441SOL     OW 7252   6.493  12.989   6.405  0.2138  0.1773 -0.0251
32441SOL    HW1 7253   6.471  13.076   6.373 -0.9373 -0.4287 -0.9734
32441SOL    HW2 7254   6.586  12.978   6.386  0.2376  0.9882 -0.3767
32442SOL     OW 7255   4.978   3.014   3.677 -0.1801 -0.3007 -0.5168
32442SOL    HW1 7256   4.909   3.045   3.618 -2.0704 -3.9318 -0.5245
32442SOL    HW2 7257   4.943   3.031   3.765 -0.1423 -0.3340 -0.4959
32443SOL     OW 7258   2.909  11.358  10.454  0.0669  0.1893  0.3106
32443SOL    HW1 7259   2.927  11.393  10.366  0.2020 -0.3612  0.1166
32443SOL    HW2 7260   2.863  11.276  10.439 -1.2970  0.8371  0.7930
32444SOL     OW 7261   6.550   1.294   9.227 -0.4553  0.0911 -0.4457
32444SOL    HW1 7262   6.595   1.244   9.159  0.4127  0.0105  0.1763
32444SOL    HW2 7263   6.540   1.232   9.300 -2.8081 -0.3244 -1.0252
32445SOL     OW 7264   0.869   8.227   3.453 -0.6007  0.1582 -0.4166
32445SOL    HW1 7265   0.848   8.261   3.540 -1.8302  1.0288 -1.0214
32445SOL    HW2 7266   0.954   8.184   3.464 -1.0694 -0.3934  1.3662
32446SOL     OW 7267   6.733   0.948   4.414 -0.2978 -0.1819  0.5967
32446SOL    HW1 7268   6.674   0.875   4.395 -0.9335  0.7366 -1.2540
32446SOL    HW2 7269   6.680   1.026   4.399  1.4147  0.6976 -1.5946
32447SOL     OW 7270   1.858  10.742   6.592  0.1447 -0.4082  0.9209
32447SOL    HW1 7271   1.791  10.802   6.562  0.7137 -0.3251 -0.2214
32447SOL    HW2 7272   1.822  10.655   6.576  0.7786 -0.3700 -0.8281
32448SOL     OW 7273   9.014   9.364   6.713 -0.1027 -0.1511  0.3033
32448SOL    HW1 7274   8.928   9.321   6.716 -0.5030  0.6609  0.8139
32448SOL    HW2 7275   9.075   9.299   6.748 -0.5354 -0.6592  0.1283
32449SOL     OW 7276  12.381   5.244  10.284  0.2151  0.0740 -0.1348
32449SOL    HW1 7277  12.460   5.192  10.293  0.2787  0.2784  0.5567
32449SOL    HW2 7278  12.338   5.238  10.370 -0.6907 -0.3055 -0.5955
32450SOL     OW 7279  10.847  13.274   4.595 -0.6381 -0.1159 -0.0272
32450SOL    HW1 7280  10.878  13.228   4.672 -0.5019  0.8906  0.5354
32450SOL    HW2 7281  10.875  13.220   4.521  1.6760  0.2814  0.4943
32451SOL     OW 7282   3.878  11.891   3.442 -0.3380  0.3484 -0.1571
32451SOL    HW1 7283   3.913  11.802   3.438 -0.5831  0.2094  0.6499
32451SOL    HW2 7284   3.947  11.943   3.483 -0.4092  0.4265 -0.1352
32452SOL     OW 7285   9.780  12.335   1.751 -0.1997  0.2460 -0.4428
32452SOL    HW1 7286   9.730  12.414   1.729 -0.8526 -0.5010 -1.7969
32452SOL    HW2 7287   9.867  12.367   1.775 -1.3178  1.5997  2.1200
32453SOL     OW 7288   5.073   5.900   6.110  0.7637 -0.0732  0.4009
32453SOL    HW1 7289   4.981   5.884   6.134  1.4056 -1.4539  2.1761
32453SOL    HW2 7290   5.079   5.876   6.018 -0.7633  0.5870  0.0913
32454SOL     OW 7291   6.124  10.774   1.642 -0.2665 -0.5855  0.1558
32454SOL    HW1 7292   6.040  10.730   1.659 -0.7874  0.2498 -0.1709
32454SOL    HW2 7293   6.161  10.789   1.728 -1.5887  1.1538  0.4821
32455SOL     OW 7294   6.568  12.463   1.711 -0.0183  0.1001 -0.5070
32455SOL    HW1 7295   6.644  12.472   1.654 -0.8196  1.1411 -1.4638
32455SOL    HW2 7296   6.600  12.486   1.798  0.9375 -0.2671 -0.7536
32456SOL     OW 7297   3.957   8.447   1.081  0.1850 -0.0091 -0.5908
32456SOL    HW1 7298   3.983   8.485   0.997  0.6403 -1.3730 -1.0957
32456SOL    HW2 7299   4.039   8.427   1.125 -0.0514  0.0245 -0.1280
32457SOL     OW 7300   1.455  10.553   3.675 -0.7179 -0.4007 -0.3913
32457SOL    HW1 7301   1.473  10.525   3.765  0.6953 -0.4371 -0.6634
32457SOL    HW2 7302   1.365  10.586   3.678 -0.5888 -0.1034  1.1084
32458SOL     OW 7303  12.843   2.359  11.787 -0.1380  0.3143  0.4186
32458SOL    HW1 7304  12.869   2.406  11.866 -0.7436  0.2459  0.6649
32458SOL    HW2 7305  12.750   2.379  11.777 -0.4227 -0.8843  0.5593
32459SOL     OW 7306   1.069  11.581   4.256  0.3387  0.1425  0.6009
32459SOL    HW1 7307   0.993  11.638   4.243 -0.8472 -1.1514  1.6396
32459SOL    HW2 7308   1.140  11.641   4.278  0.0847  1.5448 -1.9812
32460SOL     OW 7309   8.815   3.786   0.636  0.1438 -0.1119  0.0609
32460SOL    HW1 7310   8.764   3.742   0.568  1.1400 -0.4283 -0.5013
32460SOL    HW2 7311   8.896   3.735   0.642  0.3461  0.2995  1.0349
32461SOL     OW 7312   3.427   3.444   6.532  0.0905  0.6269 -0.3041
32461SOL    HW1 7313   3.490   3.504   6.571 -0.3449  1.6436 -1.1348
32461SOL    HW2 7314   3.373   3.499   6.475 -2.3771  0.0825  1.3033
32462SOL     OW 7315   5.533   9.854   6.937 -0.2900 -0.0716  0.4603
32462SOL    HW1 7316   5.517   9.899   6.855  0.9072 -0.3144  0.0717
32462SOL    HW2 7317   5.529   9.761   6.915  2.1836 -0.1889  0.1452
32463SOL     OW 7318   0.832   5.530   1.531  0.1661 -0.2359  0.6004
32463SOL    HW1 7319   0.859   5.517   1.622  1.0037 -1.7448  0.1698
32463SOL    HW2 7320   0.913   5.523   1.481 -0.1762  1.2724 -0.2319
32464SOL     OW 7321   8.793   5.560  11.902 -0.0439  0.7024 -0.0753
32464SOL    HW1 7322   8.777   5.475  11.943  0.0706 -0.9567 -3.1584
32464SOL    HW2 7323   8.876   5.589  11.939 -0.3623 -0.2128  1.4586
32465SOL     OW 7324   5.599   7.680  11.414  0.0237  0.0327  0.2841
32465SOL    HW1 7325   5.650   7.674  11.333  0.5334  1.1399  0.5029
32465SOL    HW2 7326   5.573   7.590  11.433 -0.8256 -0.1523 -1.5591
32466SOL     OW 7327   9.355   8.842  11.529  0.0660 -0.3908 -0.1862
32466SOL    HW1 7328   9.426   8.783  11.556  0.1760 -0.0144  0.3734
32466SOL    HW2 7329   9.379   8.871  11.441  0.7547 -0.0539  0.1028
32467SOL     OW 7330   4.466   9.802   5.272  0.2360 -0.5029  0.1343
32467SOL    HW1 7331   4.546   9.770   5.313 -0.7775 -2.2308  0.8435
32467SOL    HW2 7332   4.442   9.879   5.324  1.1597 -0.2362  0.1966
32468SOL     OW 7333   3.828   2.735   1.125 -0.7406  0.5194 -0.5694
32468SOL    HW1 7334   3.825   2.824   1.090  2.5673  1.4777  1.1402
32468SOL    HW2 7335   3.782   2.740   1.209  0.0729  0.8408 -0.1338
32469SOL     OW 7336  12.952   9.778   2.904  0.0712  0.1772 -0.0952
32469SOL    HW1 7337  13.002   9.829   2.968 -0.3861 -0.7089  1.0212
32469SOL    HW2 7338  12.871   9.826   2.893 -0.9589 -0.8929  2.0090
32470SOL     OW 7339   2.582   3.698  11.930  0.9054  0.3431 -0.1171
32470SOL    HW1 7340   2.511   3.706  11.867  0.8651  0.8418 -0.0131
32470SOL    HW2 7341   2.655   3.746  11.891  1.7206 -1.4557 -0.9604
32471SOL     OW 7342  11.061   7.211  11.474 -0.7344 -0.1131 -0.2583
32471SOL    HW1 7343  11.088   7.251  11.556 -3.0807 -0.3701  0.7037
32471SOL    HW2 7344  11.018   7.281  11.426 -1.8385 -0.6242 -0.0398
32472SOL     OW 7345  10.357   7.170   1.862 -0.1658 -0.2427  0.2221
32472SOL    HW1 7346  10.321   7.091   1.903 -1.5082 -0.8782 -1.9742
32472SOL    HW2 7347  10.380   7.227   1.935 -1.2161 -1.7899  1.8454
32473SOL     OW 7348  13.183  12.869  13.251 -0.0469 -0.0086 -0.2011
32473SOL    HW1 7349  13.249  12.873  13.182  0.3522 -0.2665  0.1596
32473SOL    HW2 7350  13.227  12.901  13.330 -0.4747  0.2106 -0.0438
32474SOL     OW 7351   3.487  12.192   6.802  0.1259  0.1480  0.0992
32474SOL    HW1 7352   3.461  12.278   6.835  2.9409  0.7844  0.9258
32474SOL    HW2 7353   3.449  12.129   6.864 -1.3585  0.8022 -0.1096
32475SOL     OW 7354   1.304   6.167   3.594  0.4657 -0.1222 -0.5771
32475SOL    HW1 7355   1.345   6.144   3.677  1.7996 -0.1489 -1.2216
32475SOL    HW2 7356   1.244   6.095   3.576  0.5437 -0.3668  0.1041
32476SOL     OW 7357   6.152   4.849  11.089  0.0223  0.4904  0.4777
32476SOL    HW1 7358   6.093   4.800  11.147 -0.0782 -0.1045 -0.1181
32476SOL    HW2 7359   6.098   4.876  11.016  0.4329  0.1261  0.0317
32477SOL     OW 7360   5.057   8.696   3.907  0.1105 -0.2987  0.0009
32477SOL    HW1 7361   5.144   8.695   3.947 -0.3852 -0.0936  1.1029
32477SOL    HW2 7362   5.002   8.647   3.967 -0.8050  0.6212 -0.0526
32478SOL     OW 7363   4.260   3.500  11.290  0.5387 -0.0212  0.6084
32478SOL    HW1 7364   4.290   3.465  11.207  0.9998 -0.9905  1.1659
32478SOL    HW2 7365   4.229   3.424  11.339 -0.8056  0.6724  0.9023
32479SOL     OW 7366   1.611   6.310   6.816 -0.3765 -0.1351 -0.3278
32479SOL    HW1 7367   1.653   6.225   6.824  0.1325  0.0471 -0.9767
32479SOL    HW2 7368   1.637   6.357   6.895  0.1368 -0.2399 -0.4331
32480SOL     OW 7369   7.799   5.393   3.682  0.3201  0.0058  0.1304
32480SOL    HW1 7370   7.782   5.474   3.729  0.2513  0.1258 -0.0990
32480SOL    HW2 7371   7.714   5.348   3.681  0.2293  0.1754 -0.1993
32481SOL     OW 7372  12.968   7.078   2.025 -0.2361 -0.3577 -0.0001
32481SOL    HW1 7373  12.907   7.035   2.084  1.5385 -1.5313  1.0684
32481SOL    HW2 7374  12.996   7.010   1.964 -1.3190  0.6090 -1.6625
32482SOL     OW 7375  12.897   6.975   2.738  0.1491 -0.0524 -0.4384
32482SOL    HW1 7376  12.941   6.952   2.820 -0.4587 -2.3337 -0.7096
32482SOL    HW2 7377  12.834   7.043   2.763  0.1116 -0.5694  0.9616
32483SOL     OW 7378   2.510   8.491  13.227  0.5246  0.2955  0.4144
32483SOL    HW1 7379   2.551   8.505  13.312  1.0603  1.8279 -0.0640
32483SOL    HW2 7380   2.546   8.408  13.196  0.2711 -0.3204  1.6913
32484SOL     OW 7381   0.231   6.188   7.921 -0.3742 -0.3220  0.1028
32484SOL    HW1 7382   0.286   6.228   7.989 -0.8009 -0.9698  0.8392
32484SOL    HW2 7383   0.293   6.144   7.863 -0.0073  0.1983  0.0874
32485SOL     OW 7384  13.118   4.939  10.036 -0.2429 -0.0854  0.1804
32485SOL    HW1 7385  13.055   4.867  10.046  0.9961 -1.0410  1.7586
32485SOL    HW2 7386  13.190   4.915  10.095  1.2058  1.3883 -0.9157
32486SOL     OW 7387   1.443   7.948   7.266 -0.1369 -0.4928 -0.4673
32486SOL    HW1 7388   1.384   8.017   7.295 -1.1160 -1.5785  0.2261
32486SOL    HW2 7389   1.386   7.885   7.220  0.2048 -2.1729  1.2839
32487SOL     OW 7390   6.360   7.594   9.269 -0.3978 -0.2325  0.9502
32487SOL    HW1 7391   6.283   7.566   9.318 -2.2585  1.0809 -1.0555
32487SOL    HW2 7392   6.348   7.688   9.256  1.1117 -0.1533 -0.1538
32488SOL     OW 7393   4.355  12.681  11.058  0.7216 -0.8887 -0.6307
32488SOL    HW1 7394   4.312  12.762  11.087  0.7444 -0.7085 -1.0874
32488SOL    HW2 7395   4.294  12.611  11.081  0.8154 -0.7723  0.0082
32489SOL     OW 7396  11.776   8.758  10.682 -0.3398 -0.3849  0.2832
32489SOL    HW1 7397  11.751   8.841  10.722  2.2901  0.3759  0.5371
32489SOL    HW2 7398  11.772   8.775  10.588 -1.0537 -0.3868  0.3122
32490SOL     OW 7399  11.738   3.369   2.973 -0.2380  0.5286  0.2710
32490SOL    HW1 7400  11.655   3.330   2.947  1.2741 -1.1411 -2.5920
32490SOL    HW2 7401  11.771   3.412   2.894  1.8366  0.7252  1.1607
32491SOL     OW 7402   9.369   0.660   1.378 -0.2261  0.0784  1.2770
32491SOL    HW1 7403   9.429   0.722   1.337  2.6951 -2.1051  1.9176
32491SOL    HW2 7404   9.283   0.702   1.372  1.4232  3.8446  1.1394
32492SOL     OW 7405   3.079  12.429  11.193  0.2714 -0.0354  0.5773
32492SOL    HW1 7406   3.007  12.486  11.219  0.0629 -1.4040  3.4424
32492SOL    HW2 7407   3.157  12.472  11.229  1.1019  1.6362 -2.8253
32493SOL     OW 7408   5.591   0.960  12.081  0.0162 -0.1273  0.1748
32493SOL    HW1 7409   5.559   0.876  12.049 -0.3922 -0.0483  0.3756
32493SOL    HW2 7410   5.575   1.020  12.008  1.7255 -0.5247 -0.5686
32494SOL     OW 7411  10.492   0.103   9.080  0.5939 -0.1499 -0.5151
32494SOL    HW1 7412  10.407   0.060   9.074  0.0115  0.8538  0.1942
32494SOL    HW2 7413  10.531   0.091   8.994 -0.9917  0.8190 -1.4148
32495SOL     OW 7414   5.382   4.830   0.715 -0.0392 -0.1124 -0.5709
32495SOL    HW1 7415   5.330   4.901   0.678  0.4985  1.0474  0.8200
32495SOL    HW2 7416   5.430   4.794   0.640 -2.0560 -0.5757 -1.7095
32496SOL     OW 7417   8.331  10.132  12.531  0.3671 -0.3506 -0.6635
32496SOL    HW1 7418   8.348  10.115  12.624 -0.0652 -0.5079 -0.6107
32496SOL    HW2 7419   8.406  10.183  12.502  0.8517 -0.8998 -0.3992
32497SOL     OW 7420   4.247  10.944   9.153 -0.3956 -0.0770 -0.2181
32497SOL    HW1 7421   4.214  10.892   9.226 -2.3595  0.7621 -0.4413
32497SOL    HW2 7422   4.179  11.009   9.136 -0.6253 -0.9958 -3.6209
32498SOL     OW 7423   3.206   7.540   4.183 -0.2926  0.1968  0.0062
32498SOL    HW1 7424   3.222   7.627   4.146 -1.6400  0.2063 -0.5828
32498SOL    HW2 7425   3.268   7.534   4.256  2.2278  0.2912 -1.9861
32499SOL     OW 7426   4.441   3.160   5.305 -0.2260 -0.0670 -0.2242
32499SOL    HW1 7427   4.353   3.131   5.281 -0.2592 -0.5125  0.3905
32499SOL    HW2 7428   4.498   3.120   5.240 -0.3421 -1.0017  0.2255
32500SOL     OW 7429   1.152  10.247   4.718  0.0970 -0.2253  0.0919
32500SOL    HW1 7430   1.205  10.200   4.655  2.0298  1.3236  0.4713
32500SOL    HW2 7431   1.193  10.230   4.803 -1.1875 -0.5480  0.6742
32501SOL     OW 7432   4.179   7.875   2.030 -0.5357 -0.6335  0.5460
32501SOL    HW1 7433   4.142   7.955   1.992 -1.0145 -0.9674  0.3030
32501SOL    HW2 7434   4.220   7.904   2.111  1.7821  0.3612 -0.8836
32502SOL     OW 7435   8.338   9.125   5.665  0.2523  0.4145 -0.4133
32502SOL    HW1 7436   8.425   9.151   5.634 -0.7416  2.1331 -2.0067
32502SOL    HW2 7437   8.305   9.066   5.597  0.8048 -1.7590  1.0898
32503SOL     OW 7438   4.237   1.881   9.413 -0.1568  0.0926  0.1394
32503SOL    HW1 7439   4.309   1.939   9.437  0.1594  0.5778 -1.7709
32503SOL    HW2 7440   4.205   1.916   9.330 -0.7973 -1.7157 -0.4297
32504SOL     OW 7441   3.208   4.718  11.368  0.1714  0.4189  0.4751
32504SOL    HW1 7442   3.244   4.641  11.411  2.4216  0.3257 -1.3362
32504SOL    HW2 7443   3.156   4.683  11.295  1.6986  0.5332 -0.7235
32505SOL     OW 7444  11.366   2.129   3.891 -0.0039  0.2549  0.8590
32505SOL    HW1 7445  11.339   2.142   3.800  0.6586  0.6291  0.7040
32505SOL    HW2 7446  11.451   2.086   3.884  2.2135  4.0587  1.1060
32506SOL     OW 7447   2.473   2.859   0.823 -0.0354  0.2691 -0.3071
32506SOL    HW1 7448   2.498   2.804   0.897  1.5962  2.6461  1.0387
32506SOL    HW2 7449   2.391   2.900   0.850  1.4140  2.4713  1.0979
32507SOL     OW 7450   0.657   6.639   3.180 -0.0115  0.8926  0.2070
32507SOL    HW1 7451   0.615   6.717   3.143  1.0875  1.0862 -0.6759
32507SOL    HW2 7452   0.707   6.672   3.255 -0.9556  0.7446  0.9232
32508SOL     OW 7453  13.128   5.419   4.798 -0.4631  0.0688  0.4547
32508SOL    HW1 7454  13.213   5.399   4.837  1.0124  0.9796 -2.0061
32508SOL    HW2 7455  13.064   5.397   4.865  1.7606  0.1600  2.7350
32509SOL     OW 7456   3.823   4.268   2.029  0.4076 -0.4927 -0.4354
32509SOL    HW1 7457   3.846   4.341   1.971  0.8763  2.3204  2.9838
32509SOL    HW2 7458   3.903   4.249   2.077 -0.2427 -1.9368  0.1449
32510SOL     OW 7459   0.293  10.487  11.423 -0.1225 -0.0384 -0.0876
32510SOL    HW1 7460   0.368  10.506  11.368 -0.6375 -0.4278 -0.9442
32510SOL    HW2 7461   0.264  10.573  11.455  1.3671  0.0269  1.2114
32511SOL     OW 7462   4.949   1.965   9.643  0.4856 -0.3512  0.2711
32511SOL    HW1 7463   4.888   1.936   9.710  0.2619 -0.1035  0.1746
32511SOL    HW2 7464   5.033   1.970   9.688  0.3948 -0.4796  0.4574
32512SOL     OW 7465  12.674  12.190   0.518 -0.2419 -0.1420 -0.3220
32512SOL    HW1 7466  12.730  12.262   0.547 -1.2573  0.8748 -0.8061
32512SOL    HW2 7467  12.642  12.218   0.432 -0.0490 -1.5309 -0.8661
32513SOL     OW 7468   1.721  12.762  12.089 -0.0208  0.1975 -1.0915
32513SOL    HW1 7469   1.748  12.853  12.087 -0.2979  0.2938 -0.6529
32513SOL    HW2 7470   1.800  12.713  12.111 -0.2619  0.5069  0.5596
32514SOL     OW 7471   5.412   3.294  12.586  0.0289  0.2117 -0.8633
32514SOL    HW1 7472   5.439   3.354  12.655  0.8099 -2.4412  1.2927
32514SOL    HW2 7473   5.463   3.321  12.509  3.6837 -0.2107  1.1821
32515SOL     OW 7474   6.434   6.271   5.535 -0.1383 -0.0734  0.3212
32515SOL    HW1 7475   6.376   6.340   5.567 -1.1145 -0.7157 -0.0104
32515SOL    HW2 7476   6.423   6.199   5.597  0.7192 -0.0153  0.5513
32516SOL     OW 7477   1.130   1.150   6.863  0.3985 -0.0586  0.1502
32516SOL    HW1 7478   1.153   1.241   6.849 -1.3112  0.1300 -1.9647
32516SOL    HW2 7479   1.039   1.143   6.833 -0.4148 -1.9247  2.6938
32517SOL     OW 7480   6.109  11.929   4.621 -0.2540 -0.2701 -0.5904
32517SOL    HW1 7481   6.030  11.898   4.665  0.0377 -1.0766 -0.6138
32517SOL    HW2 7482   6.119  11.870   4.546  0.8892 -0.8053 -0.0550
32518SOL     OW 7483   3.217   2.647   3.221 -0.9143 -0.3408 -0.2633
32518SOL    HW1 7484   3.206   2.593   3.143 -1.0417  1.3955 -1.5023
32518SOL    HW2 7485   3.159   2.608   3.286 -1.1344 -1.5647 -1.1674
32519SOL     OW 7486  11.663   5.274   3.559 -0.5718 -0.2534  0.1664
32519SOL    HW1 7487  11.670   5.242   3.469 -0.8005 -0.0664  0.0816
32519SOL    HW2 7488  11.643   5.196   3.610 -0.4241 -0.3632  0.0578
32520SOL     OW 7489   9.638   5.086   8.200  0.5909 -0.3547 -0.6824
32520SOL    HW1 7490   9.672   4.998   8.188 -0.4709 -0.5765 -2.4089
32520SOL    HW2 7491   9.715   5.142   8.199  1.2722 -1.2316  0.3426
32521SOL     OW 7492   4.402  12.651  12.492 -0.2193 -0.0415  0.2853
32521SOL    HW1 7493   4.459  12.575  12.495  0.3805  0.3581 -0.6558
32521SOL    HW2 7494   4.407  12.688  12.580 -0.4621 -1.0347  0.7316
32522SOL     OW 7495   8.352   6.837   3.762  0.3348  0.6084  0.0378
32522SOL    HW1 7496   8.301   6.812   3.684  1.6186 -0.7969 -0.3978
32522SOL    HW2 7497   8.382   6.926   3.744 -1.3602  1.2060  0.0015
32523SOL     OW 7498   1.576  11.769  10.837  0.6963 -0.0045 -0.2191
32523SOL    HW1 7499   1.608  11.725  10.758 -1.4853 -0.0024 -1.1752
32523SOL    HW2 7500   1.640  11.839  10.853  0.7527  0.5407 -2.5002
32524SOL     OW 7501  10.365  11.841  13.013  0.1064  0.0488 -0.5329
32524SOL    HW1 7502  10.357  11.872  13.103  1.1676  0.0676 -0.4319
32524SOL    HW2 7503  10.418  11.761  13.020 -0.5347 -0.4298 -1.0509
32525SOL     OW 7504   6.047  10.282   8.684 -0.0920 -0.4757 -0.1569
32525SOL    HW1 7505   6.060  10.288   8.778  1.3896  1.3545 -0.4189
32525SOL    HW2 7506   5.956  10.309   8.670  0.1064  0.6666  0.6522
32526SOL     OW 7507   9.381  12.876   2.576 -0.4605  0.8622 -0.4722
32526SOL    HW1 7508   9.296  12.920   2.568 -0.2314  1.1775 -1.3816
32526SOL    HW2 7509   9.442  12.936   2.533 -0.1024 -0.2249 -1.5463
32527SOL     OW 7510  12.851  12.908  10.571 -0.1744  0.0432  0.3029
32527SOL    HW1 7511  12.878  12.895  10.662  1.1371 -1.3490 -0.2565
32527SOL    HW2 7512  12.927  12.948  10.529 -1.0147  1.3320 -0.0607
32528SOL     OW 7513  11.361   1.625   4.705 -0.0172 -0.7501  0.5976
32528SOL    HW1 7514  11.444   1.655   4.670 -0.8087  0.8096 -0.0223
32528SOL    HW2 7515  11.341   1.685   4.776 -0.9483 -0.6682  0.2789
32529SOL     OW 7516   8.093   0.263   0.174  0.6695 -0.2692 -0.2622
32529SOL    HW1 7517   8.032   0.255   0.101 -0.8344 -1.9866  1.0937
32529SOL    HW2 7518   8.176   0.288   0.133  0.0623 -1.8187 -2.6222
32530SOL     OW 7519   9.954   8.243   2.724  0.4843 -0.1896  1.0874
32530SOL    HW1 7520   9.973   8.334   2.704  0.0181 -0.6425 -1.7694
32530SOL    HW2 7521   9.861   8.242   2.745  0.4903 -0.0106  1.1229
32531SOL     OW 7522   3.819  11.360  13.125 -0.0200  0.3057  0.0374
32531SOL    HW1 7523   3.772  11.280  13.101  0.2518  0.5985 -1.6161
32531SOL    HW2 7524   3.751  11.427  13.131 -0.2966 -0.0797  1.7901
32532SOL     OW 7525   3.330  10.860  12.691  0.5569  0.2087 -0.0656
32532SOL    HW1 7526   3.268  10.832  12.623 -1.4248  2.2934  0.7384
32532SOL    HW2 7527   3.382  10.928  12.648  0.4625  0.3268  0.0059
32533SOL     OW 7528  12.129   4.421   7.519 -0.5848 -0.7992  0.5580
32533SOL    HW1 7529  12.107   4.507   7.556  0.9748 -0.2087  0.1780
32533SOL    HW2 7530  12.218   4.404   7.549  0.4999 -0.6154 -2.2556
32534SOL     OW 7531   4.174   2.764  11.018  0.1243 -0.1089  0.4260
32534SOL    HW1 7532   4.268   2.776  11.034  0.1531 -1.6786  1.7008
32534SOL    HW2 7533   4.132   2.817  11.085 -0.0072  2.4038 -1.5151
32535SOL     OW 7534   4.976  11.252   2.060  0.4782  0.5694 -0.1279
32535SOL    HW1 7535   4.916  11.194   2.012  1.4765  0.7728 -1.6911
32535SOL    HW2 7536   4.919  11.305   2.115 -0.6116 -0.5891 -0.0981
32536SOL     OW 7537   2.419  10.911   8.204  0.4217 -0.4261 -0.3338
32536SOL    HW1 7538   2.425  10.827   8.157  0.6162  0.0032 -1.1025
32536SOL    HW2 7539   2.397  10.887   8.294  1.1088 -1.3378 -0.3979
32537SOL     OW 7540   4.525   4.265   3.240 -0.5594 -0.2639 -0.0585
32537SOL    HW1 7541   4.470   4.339   3.264  1.6838  0.7240  2.5095
32537SOL    HW2 7542   4.465   4.190   3.240 -2.3207  1.0884  0.2679
32538SOL     OW 7543   6.984   7.255   7.706 -0.2339 -0.1917 -0.5081
32538SOL    HW1 7544   7.043   7.204   7.761  0.0041  1.6165  1.0267
32538SOL    HW2 7545   7.015   7.240   7.617  1.4661 -0.6321  0.1168
32539SOL     OW 7546   9.455  12.774   3.276  0.1092  0.1849  0.1430
32539SOL    HW1 7547   9.452  12.704   3.342  0.1539 -0.5910 -0.6672
32539SOL    HW2 7548   9.426  12.732   3.195  3.0357  0.2925 -1.0552
32540SOL     OW 7549   3.138   5.244   9.421 -0.2919  0.0165  0.3313
32540SOL    HW1 7550   3.044   5.260   9.410 -0.3317 -1.2127 -1.5283
32540SOL    HW2 7551   3.160   5.180   9.353  1.6880 -0.5522  1.4230
32541SOL     OW 7552   5.556   7.579   5.078  0.2416  0.8037  0.6478
32541SOL    HW1 7553   5.532   7.488   5.094  1.1973  0.8087  2.3649
32541SOL    HW2 7554   5.488   7.612   5.018 -0.9879 -0.5992  1.2108
32542SOL     OW 7555  10.761   3.796   4.683  0.5539  0.3976  0.1527
32542SOL    HW1 7556  10.747   3.857   4.754 -2.3802 -1.1094  1.0277
32542SOL    HW2 7557  10.736   3.711   4.719 -1.3244 -0.3872 -2.6719
32543SOL     OW 7558  12.604   7.981   1.252 -0.4136  0.6100  0.2974
32543SOL    HW1 7559  12.531   7.919   1.246 -1.5423  1.7935  1.0677
32543SOL    HW2 7560  12.561   8.066   1.262  1.0708  1.2258  1.9004
32544SOL     OW 7561  12.768   3.454   2.943 -0.8695 -0.3599  0.2103
32544SOL    HW1 7562  12.775   3.374   2.889 -1.0260  0.3440 -0.8948
32544SOL    HW2 7563  12.705   3.508   2.896 -0.1730  0.7429  0.5233
32545SOL     OW 7564   4.196   3.315   8.644 -0.3513 -0.2133 -0.6787
32545SOL    HW1 7565   4.214   3.258   8.569 -1.2643  0.5524 -1.5174
32545SOL    HW2 7566   4.224   3.265   8.720  0.2800 -1.1571 -1.5073
32546SOL     OW 7567   9.780   6.286   2.805  0.0601  0.4860  0.7370
32546SOL    HW1 7568   9.795   6.252   2.717 -0.1377 -0.9792  1.2399
32546SOL    HW2 7569   9.835   6.364   2.811  0.3134  0.4186 -0.5716
32547SOL     OW 7570  11.166   2.301   0.502  0.4762 -0.0831  0.2125
32547SOL    HW1 7571  11.086   2.260   0.468  0.2564  0.3987  0.1414
32547SOL    HW2 7572  11.180   2.260   0.587  1.0253 -1.2965 -0.4416
32548SOL     OW 7573  12.239   4.537   9.300  0.5460  0.3114  0.1941
32548SOL    HW1 7574  12.205   4.586   9.226 -1.5458 -0.7829  0.3598
32548SOL    HW2 7575  12.313   4.488   9.265  0.0496  0.3878 -0.9842
32549SOL     OW 7576  11.783   1.065  11.829 -0.4345 -0.1875  0.0524
32549SOL    HW1 7577  11.750   1.022  11.908 -0.4137 -0.3888 -0.0463
32549SOL    HW2 7578  11.763   1.002  11.759  1.1193 -0.7991  0.1321
32550SOL     OW 7579   2.379   8.210   7.659  0.1941 -0.1661 -0.5587
32550SOL    HW1 7580   2.446   8.145   7.639  0.3663  0.1981 -1.2171
32550SOL    HW2 7581   2.304   8.159   7.689  0.5719 -0.6149 -0.3712
32551SOL     OW 7582   9.989   4.920   7.300  0.0056 -0.1182  0.5570
32551SOL    HW1 7583   9.899   4.887   7.302  0.2865 -0.9321  0.2481
32551SOL    HW2 7584   9.980   5.015   7.304 -0.8581 -0.2027  0.7723
32552SOL     OW 7585  12.855  11.012   1.800  0.3446  0.4899  0.3836
32552SOL    HW1 7586  12.795  11.083   1.823 -0.5912  0.8596 -2.7374
32552SOL    HW2 7587  12.798  10.935   1.790  0.5326  0.5670 -1.4443
32553SOL     OW 7588  12.216   5.218   3.244  0.1867  0.6813  0.1347
32553SOL    HW1 7589  12.149   5.268   3.199 -0.5747  0.5592  1.0942
32553SOL    HW2 7590  12.170   5.178   3.318  1.5243  1.4728  1.4552
32554SOL     OW 7591   2.672   7.544   4.584 -0.0702  0.4125 -0.2494
32554SOL    HW1 7592   2.746   7.605   4.592  1.6134 -1.3692 -1.3616
32554SOL    HW2 7593   2.641   7.554   4.494 -1.0140  0.9218  0.1184
32555SOL     OW 7594  12.040  12.290  11.245  0.1391 -0.6984 -0.3345
32555SOL    HW1 7595  12.127  12.307  11.207 -0.2460  0.0976 -0.8865
32555SOL    HW2 7596  12.058  12.232  11.319  1.3261  0.6229  0.4755
32556SOL     OW 7597   7.964  10.370   3.574  0.2874  0.3755 -0.5016
32556SOL    HW1 7598   7.984  10.283   3.538 -2.5573 -0.6223  0.0208
32556SOL    HW2 7599   7.997  10.367   3.663 -0.8332 -0.7121 -0.0783
32557SOL     OW 7600   3.021   4.821   4.602  0.0272  0.5305 -0.6090
32557SOL    HW1 7601   2.952   4.887   4.601  0.5938  1.3628  2.6033
32557SOL    HW2 7602   3.026   4.794   4.694  0.7478 -3.0553 -1.5743
32558SOL     OW 7603  12.229  11.593   4.639 -0.5535  0.1020  0.3398
32558SOL    HW1 7604  12.225  11.682   4.607  0.0817  0.5378  1.3944
32558SOL    HW2 7605  12.146  11.553   4.612 -0.1313  0.4591 -1.6368
32559SOL     OW 7606   8.126  11.607   8.985 -0.3480  0.2534  0.0502
32559SOL    HW1 7607   8.208  11.644   8.952 -0.9283 -1.3051 -3.5793
32559SOL    HW2 7608   8.072  11.683   9.008  0.8333  1.4119 -0.8852
32560SOL     OW 7609   8.490   0.884  13.306 -0.2646 -0.0742  0.1470
32560SOL    HW1 7610   8.522   0.823  13.372  1.1688 -1.0769 -1.3837
32560SOL    HW2 7611   8.396   0.892  13.323 -0.0464 -0.8371  1.8414
32561SOL     OW 7612   1.467   4.596  11.598 -0.0368  0.5165 -0.0169
32561SOL    HW1 7613   1.525   4.566  11.528 -0.0814 -0.5488  0.3916
32561SOL    HW2 7614   1.494   4.548  11.676 -1.6811 -0.2929  0.1098
32562SOL     OW 7615   9.613   1.206   2.267 -0.6282 -0.2876  0.3644
32562SOL    HW1 7616   9.531   1.164   2.295  0.3292 -1.4363  1.5952
32562SOL    HW2 7617   9.612   1.291   2.312 -2.0394  0.5919 -1.2202
32563SOL     OW 7618   6.181   9.589   7.410  0.0013  0.4545 -0.7601
32563SOL    HW1 7619   6.139   9.565   7.328 -1.9162 -0.7499  0.4662
32563SOL    HW2 7620   6.125   9.656   7.448 -1.1663 -1.3995  1.0626
32564SOL     OW 7621   6.159   0.606   7.682  0.0736 -0.1198 -0.8363
32564SOL    HW1 7622   6.174   0.575   7.772  2.0761 -1.0547 -1.4304
32564SOL    HW2 7623   6.066   0.627   7.679  0.1165  0.7286  1.6964
32565SOL     OW 7624   4.329   0.497   0.429  0.1308  0.0380  0.0106
32565SOL    HW1 7625   4.357   0.408   0.449 -0.7599 -0.3657 -0.4797
32565SOL    HW2 7626   4.242   0.504   0.467 -0.4766  0.1449 -1.3275
32566SOL     OW 7627   0.717  11.660   0.048 -0.0371 -0.0194  0.3202
32566SOL    HW1 7628   0.701  11.571   0.018  0.0718 -0.4845  1.6213
32566SOL    HW2 7629   0.636  11.687   0.090  0.1931  0.2000  0.6359
32567SOL     OW 7630   5.558   8.661   1.826  0.1609  0.7172  0.2004
32567SOL    HW1 7631   5.512   8.729   1.778  2.2929  1.4307 -0.9855
32567SOL    HW2 7632   5.599   8.607   1.758  0.5145 -0.2618  1.1597
32568SOL     OW 7633   9.456  10.861   2.674  0.0720 -0.1938 -0.1733
32568SOL    HW1 7634   9.416  10.925   2.614 -1.7496 -1.5675 -0.4790
32568SOL    HW2 7635   9.440  10.897   2.761 -0.6106 -0.0274 -0.3589
32569SOL     OW 7636   1.006  12.550   5.579 -0.2795  0.0249 -0.0138
32569SOL    HW1 7637   0.951  12.474   5.599 -0.7347  0.3375 -0.0665
32569SOL    HW2 7638   0.944  12.621   5.563  0.1582  0.5160  0.4663
32570SOL     OW 7639  11.401   4.723  13.295 -0.0103 -0.2482  0.3709
32570SOL    HW1 7640  11.461   4.782  13.341  0.2819 -0.6030  0.4507
32570SOL    HW2 7641  11.430   4.725  13.204  1.2333 -1.7377  0.6917
32571SOL     OW 7642   5.899   2.080   0.454 -0.1223  0.3801 -0.3779
32571SOL    HW1 7643   5.885   2.086   0.360  1.0006  1.1324 -0.5232
32571SOL    HW2 7644   5.851   2.002   0.481 -0.3664  0.0928 -1.5897
32572SOL     OW 7645  12.118   3.016   4.962  0.1520 -0.0557 -0.4693
32572SOL    HW1 7646  12.209   2.994   4.941  0.7157  0.4236  1.2763
32572SOL    HW2 7647  12.105   2.982   5.050 -1.6806 -0.9221 -1.0422
32573SOL     OW 7648   2.236  10.016   0.684  0.2280 -0.1790  0.0753
32573SOL    HW1 7649   2.231  10.042   0.592  0.6870  1.0692  0.3814
32573SOL    HW2 7650   2.222  10.098   0.733  0.4580 -0.7402  1.1073
32574SOL     OW 7651   2.430   4.671   6.482  0.1052  0.0496  0.1005
32574SOL    HW1 7652   2.479   4.753   6.475 -0.9469  0.6259 -0.8007
32574SOL    HW2 7653   2.494   4.603   6.464  1.1366  0.6176  1.4774
32575SOL     OW 7654   0.582   8.245   5.932  0.2993  0.8047  0.1922
32575SOL    HW1 7655   0.515   8.308   5.905  0.4732  0.9426  0.0683
32575SOL    HW2 7656   0.541   8.192   5.999 -0.4678 -0.1652 -0.9969
32576SOL     OW 7657   5.147  12.618   4.800  0.1595 -0.0154  0.7651
32576SOL    HW1 7658   5.214  12.557   4.829 -0.4935 -0.4995  1.2940
32576SOL    HW2 7659   5.064  12.573   4.817 -0.3202 -0.6767 -2.5580
32577SOL     OW 7660  10.152   6.113   0.243 -0.4488 -0.2948  0.2460
32577SOL    HW1 7661  10.113   6.025   0.245 -0.9095 -0.0949  0.0206
32577SOL    HW2 7662  10.222   6.109   0.307 -0.6741 -0.7339  0.4682
32578SOL     OW 7663  11.928   7.397   1.707 -0.1130  0.1007 -0.0173
32578SOL    HW1 7664  11.920   7.454   1.784  0.6255 -1.0597  0.9548
32578SOL    HW2 7665  11.917   7.309   1.741 -1.3461 -0.3667 -1.5172
32579SOL     OW 7666   1.627   7.032   6.610  0.3680  0.4411  0.0226
32579SOL    HW1 7667   1.672   7.062   6.689 -0.3966  1.3247  0.1413
32579SOL    HW2 7668   1.696   6.998   6.554  0.7654 -1.8957  1.7616
32580SOL     OW 7669   6.317  12.545  11.463 -1.1011  0.1871 -0.6521
32580SOL    HW1 7670   6.301  12.550  11.557 -0.4101 -1.2894 -0.4223
32580SOL    HW2 7671   6.271  12.621  11.426 -2.2494  0.2044  0.7455
32581SOL     OW 7672   8.091  13.022  10.712  0.7556 -0.1825 -0.1553
32581SOL    HW1 7673   8.097  12.968  10.790  0.8332  0.6799  0.4491
32581SOL    HW2 7674   8.004  13.064  10.718  0.5555 -0.4892 -0.7868
32582SOL     OW 7675   5.600   0.101   5.867 -0.3186  0.6287 -0.3513
32582SOL    HW1 7676   5.516   0.055   5.874  0.4453 -0.9225 -0.9323
32582SOL    HW2 7677   5.588   0.181   5.918 -1.7607 -0.1366  0.5739
32583SOL     OW 7678   0.305   8.803   2.953 -0.2510 -0.2056 -0.3246
32583SOL    HW1 7679   0.230   8.818   3.010 -0.2266 -1.2182 -0.0021
32583SOL    HW2 7680   0.286   8.719   2.911  1.4821 -1.4044  1.1158
32584SOL     OW 7681   0.483   2.412   9.633  0.2192  0.2257 -0.9104
32584SOL    HW1 7682   0.464   2.504   9.650 -1.0527 -0.7275  5.3319
32584SOL    HW2 7683   0.398   2.371   9.620  0.0769 -0.6235  1.9429
32585SOL     OW 7684   6.298   3.490   2.776  0.0918  0.5454 -0.0618
32585SOL    HW1 7685   6.260   3.505   2.862  0.0945  1.4035 -0.2060
32585SOL    HW2 7686   6.392   3.476   2.793 -0.3591 -2.9618  0.4538
32586SOL     OW 7687   2.700   8.468   1.413 -0.1051 -0.2994 -0.4435
32586SOL    HW1 7688   2.700   8.383   1.371  0.4267  0.1825 -1.4560
32586SOL    HW2 7689   2.710   8.531   1.341  3.1820  0.4618  0.4794
32587SOL     OW 7690  11.492   8.452   1.699  0.1845 -0.2094 -0.4808
32587SOL    HW1 7691  11.422   8.427   1.640  1.5781 -0.8754 -1.9162
32587SOL    HW2 7692  11.513   8.372   1.748  1.0121 -0.4573 -1.2186
32588SOL     OW 7693   6.813  12.866   2.330 -0.0651 -0.5092 -0.9055
32588SOL    HW1 7694   6.888  12.807   2.323  1.0309  0.8093 -0.7724
32588SOL    HW2 7695   6.763  12.833   2.405 -0.2873 -2.0976 -1.7145
32589SOL     OW 7696  11.032   6.098  13.202 -0.3830 -0.1250 -0.3207
32589SOL    HW1 7697  10.945   6.098  13.240 -0.9531  1.1969 -1.5266
32589SOL    HW2 7698  11.042   6.010  13.165 -1.5870 -0.0011 -0.9699
32590SOL     OW 7699   2.705   1.918   3.148 -0.0754  0.5376 -0.3121
32590SOL    HW1 7700   2.644   1.844   3.140  2.3321 -1.5515 -0.7010
32590SOL    HW2 7701   2.679   1.961   3.230 -3.1181  0.8580 -1.3320
32591SOL     OW 7702   7.552  12.412   8.779 -0.7292  0.4028 -0.2530
32591SOL    HW1 7703   7.525  12.504   8.769 -1.2718  0.5001  1.6725
32591SOL    HW2 7704   7.474  12.362   8.759 -0.3930  0.3234 -1.4494
32592SOL     OW 7705   2.378   9.109   6.769 -0.1839 -0.5362  0.6331
32592SOL    HW1 7706   2.419   9.187   6.806 -0.1868  1.1694 -2.6189
32592SOL    HW2 7707   2.443   9.074   6.709 -1.6769 -0.5168 -1.0891
32593SOL     OW 7708   4.596   1.532   4.347  0.1066  0.2897 -0.0324
32593SOL    HW1 7709   4.598   1.460   4.410  0.5831  1.2755  1.1216
32593SOL    HW2 7710   4.619   1.491   4.263  0.5139 -0.8683  0.6222
32594SOL     OW 7711   0.602   7.822  12.236  0.1216 -0.1499 -0.3416
32594SOL    HW1 7712   0.586   7.773  12.317  0.9581  0.8206  0.4379
32594SOL    HW2 7713   0.691   7.796  12.210 -0.1452 -0.4582 -0.9535
32595SOL     OW 7714   1.412   6.895   6.339 -0.2927  0.3350 -0.0614
32595SOL    HW1 7715   1.395   6.983   6.306 -0.7334  0.9580  1.7301
32595SOL    HW2 7716   1.507   6.885   6.335 -0.2384  0.9112 -0.1912
32596SOL     OW 7717   6.674  11.751   9.922 -0.0410  0.7308  0.2850
32596SOL    HW1 7718   6.632  11.715  10.000  0.3482  0.0256  0.1721
32596SOL    HW2 7719   6.602  11.793   9.874 -0.6914 -0.6846 -0.0356
32597SOL     OW 7720  10.164   8.361   6.902 -0.6398 -0.2398  0.1955
32597SOL    HW1 7721  10.117   8.351   6.819 -0.1096 -0.7155 -0.0573
32597SOL    HW2 7722  10.247   8.402   6.878 -0.6483 -0.0091  0.5475
32598SOL     OW 7723   1.075   9.615   6.965  0.3523  0.0476 -0.3192
32598SOL    HW1 7724   1.079   9.520   6.955 -2.5561 -0.2216  0.1723
32598SOL    HW2 7725   1.045   9.648   6.881 -1.0637  0.2336  0.2309
32599SOL     OW 7726  12.095  10.123   4.339 -0.1158  0.0649  0.4249
32599SOL    HW1 7727  12.133  10.208   4.322  2.1083 -1.1030 -0.9093
32599SOL    HW2 7728  12.088  10.117   4.434  2.5548  0.6024  0.7157
32600SOL     OW 7729  11.655   6.967   3.005 -0.2174  0.5125 -0.1208
32600SOL    HW1 7730  11.695   6.982   2.919 -1.8263  3.6248 -0.4638
32600SOL    HW2 7731  11.665   7.050   3.051  0.0956 -0.8944  2.5640
32601SOL     OW 7732  13.217   8.966   6.931  0.4373  0.1446  0.4508
32601SOL    HW1 7733  13.183   8.917   7.006 -1.0859 -0.3817 -0.5344
32601SOL    HW2 7734  13.236   8.899   6.865  1.1261  0.6529  0.1189
32602SOL     OW 7735   7.905   9.954   9.312  0.5654 -0.0726  0.4069
32602SOL    HW1 7736   7.955   9.997   9.243  1.5070  1.5881  2.0293
32602SOL    HW2 7737   7.896  10.020   9.380 -0.1088 -1.6994  1.9949
32603SOL     OW 7738   6.980   9.787   7.834 -0.4486  0.5520  0.2896
32603SOL    HW1 7739   7.023   9.703   7.852 -0.8929  0.4430  0.9076
32603SOL    HW2 7740   7.027   9.850   7.890 -0.0933  0.7272 -0.1992
32604SOL     OW 7741   8.118   3.059   7.626 -0.2429 -0.5526 -0.2775
32604SOL    HW1 7742   8.211   3.038   7.616  0.1866  0.8229  0.6620
32604SOL    HW2 7743   8.077   2.974   7.643  1.0920 -0.9785  1.0252
32605SOL     OW 7744   2.606   8.140  12.094  0.3508  0.5952 -0.3849
32605SOL    HW1 7745   2.636   8.050  12.084 -0.2275  0.4766 -1.1457
32605SOL    HW2 7746   2.661   8.190  12.033  0.0882  0.6242 -0.5961
32606SOL     OW 7747   7.981  10.192   9.426  0.1884  0.3015 -0.6918
32606SOL    HW1 7748   7.936  10.275   9.410 -1.3747 -0.7803 -2.2446
32606SOL    HW2 7749   8.031  10.207   9.506 -3.3423  1.4323  1.4975
32607SOL     OW 7750   1.287   0.831  10.814  0.2971 -0.4996  0.1092
32607SOL    HW1 7751   1.318   0.826  10.904 -0.9678  0.1261  0.6040
32607SOL    HW2 7752   1.336   0.903  10.775 -1.7912  1.8337  1.4687
32608SOL     OW 7753   6.409   3.603  10.313 -0.1495 -0.0388  0.0603
32608SOL    HW1 7754   6.385   3.552  10.236 -1.7802 -0.6052  0.9107
32608SOL    HW2 7755   6.472   3.548  10.359  0.3900  0.0518 -0.5533
32609SOL     OW 7756  10.971   9.836   2.270  0.0226 -0.4736 -0.4015
32609SOL    HW1 7757  10.972   9.776   2.344  3.4913 -1.6436 -1.2123
32609SOL    HW2 7758  10.984   9.923   2.309  0.5249 -0.9314  0.4858
32610SOL     OW 7759   7.863   9.968   5.229 -0.4521 -0.5431 -0.0321
32610SOL    HW1 7760   7.775   9.986   5.198 -0.9447 -0.6513  1.2330
32610SOL    HW2 7761   7.888   9.887   5.184 -0.6920 -0.1206 -0.9508
32611SOL     OW 7762   1.139   5.965  10.427 -0.5925  0.5551  0.0972
32611SOL    HW1 7763   1.163   5.918  10.347 -1.3643  0.3860 -0.0470
32611SOL    HW2 7764   1.131   5.897  10.494 -1.1245  0.5412  0.0274
32612SOL     OW 7765  13.188   8.502   1.844 -0.0719  0.1740  0.4396
32612SOL    HW1 7766  13.099   8.484   1.873 -0.2895  0.9208  0.2618
32612SOL    HW2 7767  13.187   8.595   1.820  0.9772  0.4325  1.3013
32613SOL     OW 7768   4.077   2.099   1.436  0.5327  0.8441 -0.3496
32613SOL    HW1 7769   4.105   2.012   1.408 -1.0571 -0.0872  0.7529
32613SOL    HW2 7770   3.986   2.106   1.406  0.0968  1.4214  1.0077
32614SOL     OW 7771  11.922   5.971   9.959  0.2746  0.6629  0.4836
32614SOL    HW1 7772  11.925   5.929   9.874  0.2515 -0.1147  0.8593
32614SOL    HW2 7773  11.935   5.900  10.022  2.8919  1.5313  1.0605
32615SOL     OW 7774   3.091   5.821   4.329 -0.1701 -0.0266 -0.3091
32615SOL    HW1 7775   3.163   5.806   4.390  0.9151 -0.5529 -1.6524
32615SOL    HW2 7776   3.126   5.795   4.244 -1.3217  1.4863 -1.3103
32616SOL     OW 7777  10.342   3.656   3.816  0.1071 -0.5890  0.2359
32616SOL    HW1 7778  10.387   3.572   3.814  0.1794 -0.5313 -0.6223
32616SOL    HW2 7779  10.295   3.655   3.900 -0.3269 -1.7103 -0.0053
32617SOL     OW 7780   9.132   0.555  11.302  0.0910  0.3622  0.5625
32617SOL    HW1 7781   9.172   0.642  11.309  1.3130 -0.0827 -0.4992
32617SOL    HW2 7782   9.206   0.496  11.285 -0.8440 -0.7248  0.1325
32618SOL     OW 7783   2.887   4.661  10.476 -0.0055 -0.5795 -0.2057
32618SOL    HW1 7784   2.834   4.735  10.444  0.7378 -0.0202 -0.1800
32618SOL    HW2 7785   2.829   4.585  10.469 -2.0643  0.4859  3.0805
32619SOL     OW 7786   2.710  10.273   2.775  0.0047 -0.2600  0.3203
32619SOL    HW1 7787   2.702  10.179   2.787  0.4854 -0.3446  0.0129
32619SOL    HW2 7788   2.750  10.305   2.856 -2.8094  0.0990  1.6547
32620SOL     OW 7789   1.945   9.136  10.189  0.6056 -0.0560 -0.2194
32620SOL    HW1 7790   1.876   9.110  10.251  0.8240 -0.6095 -0.2053
32620SOL    HW2 7791   2.014   9.070  10.200  1.2667  0.6510 -0.0278
32621SOL     OW 7792   3.129   9.901   7.816  0.3258  0.0838 -0.3001
32621SOL    HW1 7793   3.217   9.933   7.799  0.6546 -1.4976 -1.9609
32621SOL    HW2 7794   3.072   9.963   7.771  0.7359  0.0164 -0.9220
32622SOL     OW 7795   1.736   9.821  11.001 -0.2672 -0.1492 -0.2879
32622SOL    HW1 7796   1.733   9.725  11.008 -0.0312 -0.1625 -0.3361
32622SOL    HW2 7797   1.713   9.852  11.089 -2.0375 -0.2076 -0.6966
32623SOL     OW 7798   0.127   8.155   4.956 -0.5839 -0.9390  0.1401
32623SOL    HW1 7799   0.199   8.109   4.999 -0.9294 -1.5293  0.0940
32623SOL    HW2 7800   0.048   8.107   4.982 -1.1396  0.5743  1.3971
32624SOL     OW 7801   7.664   9.515   7.561  0.4730 -0.2037  0.0382
32624SOL    HW1 7802   7.615   9.499   7.642  0.2618  0.5479  0.0747
32624SOL    HW2 7803   7.740   9.566   7.589  0.0164  0.6996 -0.3135
32625SOL     OW 7804   1.247  10.559  10.194 -0.4789 -0.2399 -0.3524
32625SOL    HW1 7805   1.196  10.523  10.267 -0.8058  0.7717 -0.0667
32625SOL    HW2 7806   1.310  10.490  10.173 -1.1759 -1.0332  0.0802
32626SOL     OW 7807   9.031   8.954   5.419 -0.3186 -0.6654 -0.2896
32626SOL    HW1 7808   9.103   9.014   5.440 -0.2845 -1.1423  1.0120
32626SOL    HW2 7809   9.071   8.867   5.420 -0.2726 -0.7467 -2.5898
32627SOL     OW 7810   8.189   2.979   0.822  0.5447 -0.2070 -0.2326
32627SOL    HW1 7811   8.236   3.056   0.855 -0.0423 -0.7762  2.1292
32627SOL    HW2 7812   8.211   2.909   0.884 -1.6268 -1.0577 -0.3395
32628SOL     OW 7813  11.613   1.365   9.684 -0.1730  0.6569 -0.2697
32628SOL    HW1 7814  11.638   1.348   9.593 -1.8819  2.1100 -1.0721
32628SOL    HW2 7815  11.537   1.309   9.700 -0.0350  0.5943  0.1812
32629SOL     OW 7816   2.242   0.930   6.638 -0.2698  0.0030 -0.5672
32629SOL    HW1 7817   2.326   0.926   6.683 -0.5481  0.6564  0.0323
32629SOL    HW2 7818   2.242   1.016   6.595 -0.6304  0.0083 -0.5612
32630SOL     OW 7819   3.820   4.674   2.367 -0.0373  0.0710  0.2886
32630SOL    HW1 7820   3.793   4.610   2.302  2.4333 -2.9593  1.9285
32630SOL    HW2 7821   3.774   4.754   2.344 -2.2992 -1.9053 -2.7409
32631SOL     OW 7822   4.100   6.859  12.334  0.3170 -0.3064  0.4087
32631SOL    HW1 7823   4.132   6.892  12.418  0.0130 -0.1915  0.4800
32631SOL    HW2 7824   4.149   6.778  12.320 -0.0955 -0.6695  1.0176
32632SOL     OW 7825   2.749   7.960  10.414 -0.2183 -0.0532  0.4252
32632SOL    HW1 7826   2.806   8.036  10.421  0.4902 -0.3728 -1.3102
32632SOL    HW2 7827   2.683   7.985  10.349  1.4224 -1.6390 -2.0439
32633SOL     OW 7828   4.689   6.949   5.550  0.0625 -0.0162  0.8284
32633SOL    HW1 7829   4.756   6.962   5.616  2.1009  2.3726 -1.4722
32633SOL    HW2 7830   4.609   6.983   5.589  0.3699 -1.7898  3.2002
32634SOL     OW 7831   4.264  11.802  12.744 -0.3671 -0.4910 -0.2032
32634SOL    HW1 7832   4.285  11.759  12.826 -0.4422 -0.0772  0.0366
32634SOL    HW2 7833   4.277  11.896  12.761 -1.8034 -0.2635 -0.2144
32635SOL     OW 7834  10.477  10.856   7.011 -0.1101  0.5621  0.3450
32635SOL    HW1 7835  10.425  10.828   7.086  1.6945  0.1095  1.4955
32635SOL    HW2 7836  10.566  10.865   7.046  0.8075  0.2294 -1.7617
32636SOL     OW 7837   1.331  10.221   6.095  0.0490  0.1360  0.5763
32636SOL    HW1 7838   1.359  10.313   6.087  0.7921 -0.2413 -3.0639
32636SOL    HW2 7839   1.236  10.226   6.106 -0.1936  1.4233 -1.4732
32637SOL     OW 7840  11.774   3.549   2.539  0.5912 -0.4740 -0.0261
32637SOL    HW1 7841  11.825   3.614   2.490 -0.1154 -0.1407 -0.3327
32637SOL    HW2 7842  11.736   3.492   2.472  1.2324 -1.2382  0.2420
32638SOL     OW 7843  11.320   2.201   1.131 -0.3762  0.3825  0.5376
32638SOL    HW1 7844  11.288   2.151   1.056 -0.2672 -0.9357  1.3495
32638SOL    HW2 7845  11.306   2.292   1.106  0.8264  0.0303 -1.6059
32639SOL     OW 7846   3.876   1.879   1.037  0.0768  0.2779 -0.7150
32639SOL    HW1 7847   3.840   1.791   1.049  0.6836 -0.0247 -1.0488
32639SOL    HW2 7848   3.860   1.899   0.945  0.2049  0.3982 -0.7112
32640SOL     OW 7849   5.760   1.444   8.737  0.4556 -0.5169  0.3302
32640SOL    HW1 7850   5.698   1.500   8.691  1.1463  0.0118  0.0195
32640SOL    HW2 7851   5.723   1.434   8.825 -0.9506 -1.6522 -0.3411
32641SOL     OW 7852   9.602   5.987   4.604 -0.3424  0.0058 -0.0228
32641SOL    HW1 7853   9.579   5.895   4.594  0.0890 -0.0707 -0.3889
32641SOL    HW2 7854   9.675   5.987   4.667  0.6409 -0.0647 -1.1171
32642SOL     OW 7855   6.171   6.341   1.186  1.0784  0.2881 -0.0540
32642SOL    HW1 7856   6.208   6.368   1.102  0.7132 -0.5845 -0.5141
32642SOL    HW2 7857   6.205   6.252   1.199 -0.1074 -0.1858 -0.0531
32643SOL     OW 7858   3.568   4.960   7.205  0.2257  0.4793  0.5329
32643SOL    HW1 7859   3.529   5.010   7.276  0.7439  2.8568 -0.7412
32643SOL    HW2 7860   3.504   4.963   7.134 -0.7637 -2.7776  1.0887
32644SOL     OW 7861   6.231   6.113   5.982  0.0001 -0.4225 -0.5256
32644SOL    HW1 7862   6.152   6.166   5.988  0.5379  0.2814  0.7604
32644SOL    HW2 7863   6.301   6.176   5.969  0.4484 -0.9710 -0.7923
32645SOL     OW 7864   8.852  11.317   2.680 -0.0692 -0.8016  0.3318
32645SOL    HW1 7865   8.780  11.380   2.686  1.6590  1.3775 -0.5174
32645SOL    HW2 7866   8.880  11.321   2.589  0.5600 -2.2927  0.4315
32646SOL     OW 7867  11.544   1.159  11.001  0.1649  0.3800  0.2748
32646SOL    HW1 7868  11.501   1.242  10.979  0.0147  0.7929  1.9225
32646SOL    HW2 7869  11.637   1.179  10.999  0.3057 -0.2284 -2.2221
32647SOL     OW 7870  13.047   2.093   7.617  0.5491  0.3640 -0.1664
32647SOL    HW1 7871  12.981   2.025   7.629  2.0658 -0.9492  1.3381
32647SOL    HW2 7872  13.058   2.132   7.704  0.5051  1.7934 -0.7717
32648SOL     OW 7873   2.162   4.984   3.579  0.0360  0.2771  0.3584
32648SOL    HW1 7874   2.129   5.073   3.591  1.1659  0.8258 -0.3754
32648SOL    HW2 7875   2.251   4.987   3.614 -0.0088 -0.6459  0.5830
32649SOL     OW 7876   3.404  11.123   6.658 -0.3895  0.0846  0.1777
32649SOL    HW1 7877   3.464  11.072   6.712 -0.1688  0.7352  0.5647
32649SOL    HW2 7878   3.351  11.172   6.721 -1.1320 -0.2613 -0.1677
32650SOL     OW 7879  10.716   4.521   1.515  0.3050 -0.1736  0.5336
32650SOL    HW1 7880  10.723   4.567   1.599  1.0812  2.3748 -0.8242
32650SOL    HW2 7881  10.766   4.575   1.454  1.0532 -2.7400 -1.2974
32651SOL     OW 7882   3.165   2.009   3.312  0.6772 -0.1615  0.0752
32651SOL    HW1 7883   3.255   1.980   3.326  0.3432 -1.0572  0.4056
32651SOL    HW2 7884   3.124   2.003   3.398  0.0456 -0.6634 -0.2552
32652SOL     OW 7885   2.194   4.857   2.798 -0.0773  0.3897 -0.0735
32652SOL    HW1 7886   2.123   4.919   2.788 -0.2848  0.6416  2.3940
32652SOL    HW2 7887   2.162   4.793   2.862  1.2795 -0.4892 -0.2148
32653SOL     OW 7888   3.625   4.294   7.702 -0.6649 -0.0125 -0.1453
32653SOL    HW1 7889   3.591   4.217   7.746 -0.7088  0.4553  0.6666
32653SOL    HW2 7890   3.601   4.367   7.759  0.9176  0.4218  0.0196
32654SOL     OW 7891   3.979  13.064   7.504  0.7491  0.2849 -0.2894
32654SOL    HW1 7892   3.890  13.070   7.471  0.6604  2.5384  0.1993
32654SOL    HW2 7893   4.015  12.986   7.463 -0.8469  0.3730 -1.9639
32655SOL     OW 7894   6.446   4.237   3.474  0.3134  0.0494 -0.1425
32655SOL    HW1 7895   6.445   4.329   3.446  0.1158  0.0379 -0.1738
32655SOL    HW2 7896   6.389   4.192   3.411  1.0944 -0.2463 -0.6465
32656SOL     OW 7897   8.462   2.591  11.558  0.0234 -0.3548  0.5425
32656SOL    HW1 7898   8.452   2.496  11.560 -0.8116 -0.2719  0.7890
32656SOL    HW2 7899   8.380   2.624  11.597  0.1735  0.4676  0.1723
32657SOL     OW 7900  11.025   3.568   6.460  0.8504  0.5411 -0.0062
32657SOL    HW1 7901  11.091   3.499   6.462  0.3047  0.0162  0.4111
32657SOL    HW2 7902  10.942   3.522   6.447  0.4955  1.1393  0.0790
32658SOL     OW 7903   0.297   9.810  10.069 -0.0650 -0.1800  0.2907
32658SOL    HW1 7904   0.345   9.855   9.999 -0.3461 -0.1412  0.1204
32658SOL    HW2 7905   0.277   9.724  10.032  1.0326 -0.6927  0.8463
32659SOL     OW 7906   1.719  10.994   6.999 -0.3697 -0.0981 -0.1180
32659SOL    HW1 7907   1.729  11.035   7.085 -1.1978  0.4020 -0.2432
32659SOL    HW2 7908   1.634  10.950   7.004 -0.4452 -0.0215 -0.6982
32660SOL     OW 7909   9.255  12.470   0.831 -0.1634  0.2578 -0.0580
32660SOL    HW1 7910   9.240  12.540   0.768 -1.7097 -0.2821 -0.3282
32660SOL    HW2 7911   9.227  12.507   0.915  1.9525  0.9989  0.4057
32661SOL     OW 7912  12.819   6.084  12.306 -0.2800 -0.0419  0.6939
32661SOL    HW1 7913  12.857   6.069  12.219 -0.5131  1.2427  0.3554
32661SOL    HW2 7914  12.872   6.029  12.364  0.3046 -0.4188 -0.1674
32662SOL     OW 7915  12.767  12.969   6.524  0.2308 -0.0593 -0.0715
32662SOL    HW1 7916  12.847  12.947   6.572  1.2659  1.3783 -1.0867
32662SOL    HW2 7917  12.763  12.904   6.453 -0.3005 -1.0214  0.8144
32663SOL     OW 7918   4.442  11.002   5.668  0.0066  0.0227 -0.0012
32663SOL    HW1 7919   4.452  10.955   5.751  1.8154  0.3162 -0.0199
32663SOL    HW2 7920   4.510  11.069   5.670 -0.4434  0.5590 -1.3940
32664SOL     OW 7921   9.542  11.739   5.393 -0.1294 -0.2779 -0.1002
32664SOL    HW1 7922   9.587  11.655   5.386  1.9585  0.9172 -2.3806
32664SOL    HW2 7923   9.482  11.740   5.318 -1.4772 -0.4044  0.9331
32665SOL     OW 7924  10.289   4.770  12.696 -0.1457 -0.1339 -0.4170
32665SOL    HW1 7925  10.293   4.718  12.616  0.8433  0.5243 -0.8200
32665SOL    HW2 7926  10.375   4.756  12.737 -0.2373  0.4042 -0.0376
32666SOL     OW 7927   3.684   4.057   8.408 -0.1335  0.1440  0.1725
32666SOL    HW1 7928   3.598   4.058   8.450  0.3714 -0.7229  1.2632
32666SOL    HW2 7929   3.692   4.144   8.367  0.0897  1.7687  3.4010
32667SOL     OW 7930   8.399   4.889  12.371  0.7682 -0.7393 -0.1930
32667SOL    HW1 7931   8.456   4.882  12.447  1.6919  0.1749 -0.7902
32667SOL    HW2 7932   8.425   4.815  12.315 -0.4981 -1.9408  0.7115
32668SOL     OW 7933   6.177   8.634  10.613  0.4695 -0.0257 -0.3369
32668SOL    HW1 7934   6.197   8.723  10.582  0.2919  0.3351  0.5485
32668SOL    HW2 7935   6.131   8.593  10.540  1.1029  0.3988 -0.9937
32669SOL     OW 7936  10.433   7.030  12.892  0.2134  0.9940  0.8618
32669SOL    HW1 7937  10.485   6.968  12.944 -2.0130  0.0316  2.0498
32669SOL    HW2 7938  10.428   7.108  12.946  0.1408  0.9741  0.8831
32670SOL     OW 7939  12.052   2.058   2.356 -0.4732 -0.2060 -0.9675
32670SOL    HW1 7940  12.080   1.971   2.328 -1.3069 -0.2116 -1.8418
32670SOL    HW2 7941  11.985   2.083   2.292 -1.7628  0.2032  0.4691
32671SOL     OW 7942   0.153   5.323   7.372 -0.0830 -0.1262 -0.0144
32671SOL    HW1 7943   0.090   5.393   7.354  0.3042  0.5585  1.2123
32671SOL    HW2 7944   0.238   5.365   7.365  0.1291 -0.1481  1.8915
32672SOL     OW 7945   3.853   9.826   3.443  0.4352  0.0080 -0.2457
32672SOL    HW1 7946   3.867   9.818   3.538  0.9603 -0.6900 -0.3684
32672SOL    HW2 7947   3.764   9.796   3.429  0.8555 -1.3364 -0.1375
32673SOL     OW 7948   7.291   0.054   5.582  0.3168  0.0693 -0.5101
32673SOL    HW1 7949   7.256   0.114   5.517 -1.3325  0.7382  0.8983
32673SOL    HW2 7950   7.386   0.066   5.579  0.2236  0.6271 -2.2183
32674SOL     OW 7951   8.039  11.631  10.980 -0.0745  0.6980 -0.0872
32674SOL    HW1 7952   7.952  11.609  11.014 -1.1042  0.3818 -2.6534
32674SOL    HW2 7953   8.069  11.704  11.034 -2.3463  1.4148  0.2893
32675SOL     OW 7954   8.712   7.425   5.283  0.5971 -0.0629  0.1697
32675SOL    HW1 7955   8.760   7.445   5.202 -0.2892  0.9731 -0.1244
32675SOL    HW2 7956   8.660   7.348   5.263 -0.3776  0.7643 -0.5984
32676SOL     OW 7957  11.989   8.434  11.757 -0.1683  0.2108  0.3980
32676SOL    HW1 7958  11.947   8.398  11.678 -0.8263 -0.0633  0.8608
32676SOL    HW2 7959  11.949   8.385  11.829  1.2892 -0.3847  0.8389
32677SOL     OW 7960  10.507   2.606   7.803 -0.4401  0.0031 -0.2665
32677SOL    HW1 7961  10.454   2.546   7.751 -0.3488 -0.0994 -0.2430
32677SOL    HW2 7962  10.456   2.621   7.883 -0.2154 -0.4860 -0.0239
32678SOL     OW 7963   3.270   9.290   3.616  0.2718 -0.2537  0.4878
32678SOL    HW1 7964   3.273   9.360   3.680  1.3853 -0.5391  0.7828
32678SOL    HW2 7965   3.341   9.311   3.555 -0.8347  0.0695 -0.7237
32679SOL     OW 7966   0.233  11.039  11.383  0.5390 -1.1067 -0.3028
32679SOL    HW1 7967   0.300  11.039  11.451 -0.7518 -0.2309  1.0437
32679SOL    HW2 7968   0.234  11.129  11.349  0.5047 -1.2780 -0.7720
32680SOL     OW 7969   3.537   7.284  10.370 -0.1817 -0.3472  0.4267
32680SOL    HW1 7970   3.495   7.253  10.290  0.0589 -1.1158  0.5883
32680SOL    HW2 7971   3.472   7.340  10.411 -0.0759  0.5751 -0.6205
32681SOL     OW 7972   8.898   7.743   5.712 -0.3900 -0.1373  0.0760
32681SOL    HW1 7973   8.978   7.777   5.672 -1.9555  1.7011 -1.6747
32681SOL    HW2 7974   8.848   7.708   5.639 -1.2322 -1.2993  1.1530
32682SOL     OW 7975   3.827   9.939  10.585  0.1404  0.2090 -0.2277
32682SOL    HW1 7976   3.805   9.977  10.669  0.9102  0.2731 -0.0484
32682SOL    HW2 7977   3.747   9.947  10.533 -0.2219  0.5086  0.3683
32683SOL     OW 7978  12.932   0.211   5.000  0.5103 -0.3604  0.1940
32683SOL    HW1 7979  12.846   0.172   4.990  0.0026  0.7910 -0.0638
32683SOL    HW2 7980  12.961   0.182   5.087  0.5526 -2.0129 -0.3355
32684SOL     OW 7981   9.890   8.424  13.061  0.4834 -0.2027 -0.3318
32684SOL    HW1 7982   9.835   8.462  13.130  0.2267 -0.8010 -0.2064
32684SOL    HW2 7983   9.924   8.343  13.098  1.2171  0.0127 -0.5192
32685SOL     OW 7984   8.768  10.324   9.396 -0.1233  0.0914  0.7375
32685SOL    HW1 7985   8.726  10.247   9.434 -0.8093 -0.1761 -0.5171
32685SOL    HW2 7986   8.807  10.369   9.471  1.5135 -2.1774  1.3445
32686SOL     OW 7987   7.663   1.151   0.454  0.2175 -0.0198 -0.3264
32686SOL    HW1 7988   7.576   1.184   0.433  1.0701  1.8724 -1.0578
32686SOL    HW2 7989   7.656   1.121   0.545 -1.1733  0.1226 -0.3703
32687SOL     OW 7990   9.481   5.464  13.162  0.4423 -0.4778 -0.8636
32687SOL    HW1 7991   9.516   5.467  13.073 -0.4273 -3.9181 -1.4451
32687SOL    HW2 7992   9.532   5.395  13.205  0.3517  0.6187  1.1216
32688SOL     OW 7993   0.301   1.008   2.795 -0.2141 -0.3374 -0.1548
32688SOL    HW1 7994   0.258   1.093   2.782 -0.4818 -0.4323  0.0902
32688SOL    HW2 7995   0.365   1.002   2.724  1.6172  1.1938  1.2391
32689SOL     OW 7996   5.011   5.478   4.853  0.3784  0.0487 -0.1248
32689SOL    HW1 7997   4.959   5.543   4.899  0.2432  1.0328 -1.6308
32689SOL    HW2 7998   5.087   5.464   4.910 -0.3166  0.4111  0.9133
32690SOL     OW 7999  13.168   7.444   8.784  0.1367 -0.1150  0.2062
32690SOL    HW1 8000  13.218   7.407   8.711 -0.2041 -1.5591  0.6637
32690SOL    HW2 8001  13.087   7.474   8.744 -0.6892 -2.2344  0.1383
32691SOL     OW 8002  10.522   9.145   7.134 -0.3469 -0.1883  0.2986
32691SOL    HW1 8003  10.611   9.178   7.146 -1.0903  2.0017  0.2316
32691SOL    HW2 8004  10.470   9.223   7.112 -2.8158 -0.8178  3.1802
32692SOL     OW 8005   2.172   9.987  12.259  0.4541  0.6508 -0.5381
32692SOL    HW1 8006   2.209   9.980  12.347 -0.7583  1.0253  0.0249
32692SOL    HW2 8007   2.111   9.913  12.252  0.6501  0.5391 -1.1184
32693SOL     OW 8008   0.776   7.672   2.959  0.6874  0.4917  0.0992
32693SOL    HW1 8009   0.766   7.631   3.045  0.4059 -0.0741 -0.1981
32693SOL    HW2 8010   0.750   7.764   2.973 -0.4503  0.1423  0.3773
32694SOL     OW 8011   9.653   5.936   0.622  0.2248  0.4419 -0.3628
32694SOL    HW1 8012   9.724   5.958   0.683  0.0947  0.5779 -0.2582
32694SOL    HW2 8013   9.592   6.010   0.629  0.2782  0.5245 -0.7667
32695SOL     OW 8014  13.243  10.412   9.293 -0.2085  0.2585  0.7249
32695SOL    HW1 8015  13.187  10.334   9.285 -0.1865  0.4136 -1.5355
32695SOL    HW2 8016  13.331  10.378   9.303 -0.2810 -0.0058  0.4692
32696SOL     OW 8017   8.865   8.896   0.371  0.2965 -0.6972  0.4134
32696SOL    HW1 8018   8.895   8.877   0.282 -1.2309 -0.1615 -0.2621
32696SOL    HW2 8019   8.892   8.820   0.422  1.7980 -0.7045 -0.3514
32697SOL     OW 8020  11.189   4.723   3.324 -0.1490 -0.3046 -0.1242
32697SOL    HW1 8021  11.180   4.809   3.284  2.2767  0.3349  0.5258
32697SOL    HW2 8022  11.228   4.669   3.255 -1.3144 -0.8178 -0.4068
32698SOL     OW 8023  10.067   2.866   4.363 -0.3536  0.1071 -0.2803
32698SOL    HW1 8024  10.044   2.942   4.309 -1.7941 -0.4502 -0.5032
32698SOL    HW2 8025  10.144   2.829   4.320 -1.7138 -0.5699 -2.2624
32699SOL     OW 8026   3.491   8.752   4.739  0.0109  0.2834  0.3205
32699SOL    HW1 8027   3.553   8.682   4.721 -0.9235  0.1874 -3.2971
32699SOL    HW2 8028   3.543   8.833   4.736  0.3891  0.0285 -0.0312
32700SOL     OW 8029  12.716   7.573   5.622 -0.0719 -0.3421  0.0918
32700SOL    HW1 8030  12.761   7.510   5.566 -0.1907  0.7256 -1.2527
32700SOL    HW2 8031  12.635   7.529   5.647  1.3051 -1.9986  1.9294
32701SOL     OW 8032  11.404   5.789   3.905  0.1418 -0.2533  0.0282
32701SOL    HW1 8033  11.363   5.858   3.957  0.3588  0.2885 -0.5092
32701SOL    HW2 8034  11.335   5.725   3.891  0.1063 -0.4618  1.0629
32702SOL     OW 8035   5.726   3.187  10.488 -0.2041  0.0977 -0.1762
32702SOL    HW1 8036   5.821   3.197  10.484  0.2291 -2.6251  0.8331
32702SOL    HW2 8037   5.712   3.119  10.553 -2.8520  0.1269 -0.5983
32703SOL     OW 8038   4.859  12.027   5.438  0.1930  0.0806  0.2946
32703SOL    HW1 8039   4.826  12.112   5.409 -0.3205 -0.4353 -0.6876
32703SOL    HW2 8040   4.781  11.971   5.441  0.8528 -0.9925 -1.4218
32704SOL     OW 8041   5.174   4.063   4.469 -0.2942 -0.3036 -0.1704
32704SOL    HW1 8042   5.113   4.036   4.538 -0.6673  1.2218  0.1216
32704SOL    HW2 8043   5.234   4.123   4.512  1.1064 -1.3437 -0.5923
32705SOL     OW 8044   7.937   3.641  12.712 -0.2565 -0.1361  0.0688
32705SOL    HW1 8045   7.870   3.647  12.644 -3.8804 -0.5539  3.2004
32705SOL    HW2 8046   7.944   3.547  12.730  0.8935 -0.0568  0.0834
32706SOL     OW 8047  12.961  11.710   8.070 -0.1957  0.3146 -0.3471
32706SOL    HW1 8048  13.035  11.756   8.111 -1.9271  1.1691  2.0851
32706SOL    HW2 8049  12.999  11.628   8.037  1.6881  0.2302  1.7531
32707SOL     OW 8050   6.558  11.846  11.066 -0.0383 -0.0747 -0.3880
32707SOL    HW1 8051   6.559  11.935  11.099 -2.0001 -0.5217  1.0870
32707SOL    HW2 8052   6.577  11.792  11.143 -2.9445 -1.0757 -0.2612
32708SOL     OW 8053   5.540   7.963   7.460  0.4303  0.1684 -0.0283
32708SOL    HW1 8054   5.628   7.947   7.494  0.4353  1.0814  0.4181
32708SOL    HW2 8055   5.481   7.929   7.527  0.3642 -2.9974 -1.5130
32709SOL     OW 8056   0.956   9.114   8.751 -0.1595  0.1306  0.3308
32709SOL    HW1 8057   0.992   9.166   8.823  1.6269 -1.0344  0.3645
32709SOL    HW2 8058   1.021   9.123   8.681 -1.9080  1.3315 -1.2288
32710SOL     OW 8059  12.050  10.856   3.388 -0.3334 -0.0918 -1.1926
32710SOL    HW1 8060  11.993  10.930   3.409 -0.8744 -1.0553  1.0819
32710SOL    HW2 8061  11.997  10.779   3.408  0.8840 -1.0556 -1.5838
32711SOL     OW 8062   3.833   5.909  11.774 -0.0946 -0.3969 -0.6343
32711SOL    HW1 8063   3.889   5.831  11.776 -0.2597 -0.5079  0.0545
32711SOL    HW2 8064   3.744   5.874  11.768 -0.1344 -0.2410 -0.9668
32712SOL     OW 8065   9.502   3.584  11.876  0.7732  0.6469  0.4697
32712SOL    HW1 8066   9.534   3.599  11.965  0.0480  1.0770  0.6633
32712SOL    HW2 8067   9.575   3.541  11.832  1.1038  0.3260  1.3015
32713SOL     OW 8068  12.397   1.733   7.846 -0.1645 -0.5195 -0.5382
32713SOL    HW1 8069  12.408   1.642   7.819  0.0960 -0.9934  1.0407
32713SOL    HW2 8070  12.485   1.759   7.875 -0.6579 -0.4710  0.9990
32714SOL     OW 8071   4.959  10.603   1.573 -0.4786  0.5607  0.4376
32714SOL    HW1 8072   5.029  10.555   1.530 -0.5979 -0.2535  1.1193
32714SOL    HW2 8073   4.970  10.693   1.544 -0.8397 -0.0153 -1.6508
32715SOL     OW 8074   9.432  10.784  10.859 -0.5961 -0.0362  0.3225
32715SOL    HW1 8075   9.500  10.796  10.925 -0.4982 -0.5211  0.3122
32715SOL    HW2 8076   9.461  10.835  10.784 -0.9570  0.9349  0.8299
32716SOL     OW 8077   1.522   3.724   3.628  0.2067 -0.0918  0.6355
32716SOL    HW1 8078   1.437   3.679   3.633 -0.1718  0.2202 -1.7765
32716SOL    HW2 8079   1.584   3.655   3.606 -0.2989  0.3464 -2.5933
32717SOL     OW 8080  11.519   7.580   8.159  0.1472 -0.4011 -0.0988
32717SOL    HW1 8081  11.543   7.634   8.234 -0.4428  1.9177 -1.4676
32717SOL    HW2 8082  11.507   7.492   8.195  1.6604  0.2430  2.1587
32718SOL     OW 8083  10.479   9.682   6.702 -0.0562  0.0805 -0.2835
32718SOL    HW1 8084  10.559   9.661   6.751  1.3310 -1.8184 -3.0947
32718SOL    HW2 8085  10.412   9.693   6.770  2.4468  1.4955  2.1981
32719SOL     OW 8086   5.721   4.325   5.991 -0.0550 -0.0971 -0.6207
32719SOL    HW1 8087   5.780   4.270   5.939 -1.4907 -0.9998 -1.3838
32719SOL    HW2 8088   5.635   4.285   5.979 -0.4020 -0.6876  2.9766
32720SOL     OW 8089   2.787   9.541   2.887 -0.3511  0.4363  0.2141
32720SOL    HW1 8090   2.695   9.523   2.903 -0.5207  1.9505  1.1665
32720SOL    HW2 8091   2.827   9.536   2.974  0.5052 -0.3018 -0.2016
32721SOL     OW 8092   8.106   1.496   0.425  0.1163 -0.3775  0.3113
32721SOL    HW1 8093   8.023   1.449   0.436 -1.2754  1.9675  0.3376
32721SOL    HW2 8094   8.173   1.432   0.451 -1.7787 -1.7230  2.2093
32722SOL     OW 8095   4.830  11.842   0.792 -0.3455 -0.4658  0.5009
32722SOL    HW1 8096   4.765  11.786   0.835 -1.4919  0.0279 -0.5209
32722SOL    HW2 8097   4.798  11.931   0.808  1.3324 -0.0602  1.9191
32723SOL     OW 8098   5.498  10.578  11.035  0.2217 -0.3060 -0.1090
32723SOL    HW1 8099   5.579  10.544  11.074 -0.9074 -0.8538  1.8843
32723SOL    HW2 8100   5.446  10.501  11.017 -0.3946  0.1141 -0.1484
32724SOL     OW 8101   0.124  12.486  10.787  0.6064  0.3607 -0.6276
32724SOL    HW1 8102   0.106  12.432  10.710 -0.6822  0.3051 -0.3097
32724SOL    HW2 8103   0.139  12.422  10.858 -0.5654  0.3932 -0.3294
32725SOL     OW 8104   4.329   0.157   8.695  0.9015  0.3003 -0.0041
32725SOL    HW1 8105   4.423   0.167   8.705  0.7356  1.6122  0.4209
32725SOL    HW2 8106   4.308   0.204   8.615  0.2008  2.9902  1.6273
32726SOL     OW 8107  12.344   0.655   2.303 -0.1102 -0.4171  0.0900
32726SOL    HW1 8108  12.282   0.674   2.373  1.3122 -1.6148  1.7730
32726SOL    HW2 8109  12.370   0.740   2.269 -0.7650  0.1983  1.0929
32727SOL     OW 8110   3.025   9.504   4.001 -0.2527 -0.3283  0.5506
32727SOL    HW1 8111   3.071   9.520   4.084 -0.2434 -0.2448  0.5287
32727SOL    HW2 8112   3.016   9.591   3.961  0.5617 -0.4803  0.0211
32728SOL     OW 8113   6.265  11.591   9.726 -0.1746 -0.1027  0.0695
32728SOL    HW1 8114   6.213  11.657   9.772  2.0851  1.0998  1.0936
32728SOL    HW2 8115   6.308  11.541   9.796  3.4121  1.8084 -0.5255
32729SOL     OW 8116  10.282   9.730  12.801  0.1965  0.3307 -0.0522
32729SOL    HW1 8117  10.246   9.686  12.879  1.1610  1.4825  1.1000
32729SOL    HW2 8118  10.353   9.784  12.836  1.4297 -0.0133 -1.9254
32730SOL     OW 8119   3.284   8.467   6.410 -0.3843  0.0541  0.1926
32730SOL    HW1 8120   3.293   8.536   6.476  2.8455  0.7883 -0.8216
32730SOL    HW2 8121   3.285   8.386   6.461 -2.2028  0.6597  1.2723
32731SOL     OW 8122   4.133   8.885   0.177 -0.0082 -0.0334  0.5967
32731SOL    HW1 8123   4.160   8.838   0.256 -4.5335 -1.2016  1.7412
32731SOL    HW2 8124   4.132   8.977   0.202  0.8739 -0.1301  1.0448
32732SOL     OW 8125  12.425   1.124   2.391  0.3352  0.7232 -0.3226
32732SOL    HW1 8126  12.502   1.169   2.357  1.4476  0.0239  1.1501
32732SOL    HW2 8127  12.457   1.074   2.467 -1.3938 -0.2918 -0.1886
32733SOL     OW 8128   6.273  12.115   4.279  0.1823  0.4472  0.2481
32733SOL    HW1 8129   6.222  12.105   4.198 -0.6019  1.6537  0.5647
32733SOL    HW2 8130   6.364  12.122   4.249 -0.0276  0.2061 -0.4802
32734SOL     OW 8131   1.129  11.620   7.737 -0.3824 -0.6700 -0.1368
32734SOL    HW1 8132   1.073  11.544   7.722 -3.3030  1.2837 -0.0287
32734SOL    HW2 8133   1.175  11.601   7.818 -1.6601 -2.0160  0.3160
32735SOL     OW 8134   9.768   0.931   4.397 -0.3728 -0.0853 -0.3824
32735SOL    HW1 8135   9.852   0.949   4.439 -1.3260  1.8218  0.8506
32735SOL    HW2 8136   9.767   0.987   4.319 -0.8367  0.6129  0.1075
32736SOL     OW 8137  13.209   8.935   4.615  0.6983 -0.5577 -0.6317
32736SOL    HW1 8138  13.179   9.013   4.660  0.8855  0.6032 -2.4045
32736SOL    HW2 8139  13.149   8.924   4.541 -0.3714 -3.1253  0.4884
32737SOL     OW 8140   5.116  11.607   4.374  0.2061 -0.1406 -0.2331
32737SOL    HW1 8141   5.156  11.681   4.327 -0.0139  1.0766  1.4050
32737SOL    HW2 8142   5.185  11.576   4.432 -0.2332 -0.1037  0.3151
32738SOL     OW 8143   6.640   1.994  11.515  0.6696  0.2014 -0.4344
32738SOL    HW1 8144   6.698   2.048  11.460  1.4991 -0.3546 -0.1316
32738SOL    HW2 8145   6.698   1.957  11.582 -0.4968  1.6764  1.4751
32739SOL     OW 8146   6.434   8.675   2.587 -0.1178  0.3350  0.1919
32739SOL    HW1 8147   6.339   8.678   2.588 -0.1879 -1.3034  0.5797
32739SOL    HW2 8148   6.457   8.682   2.494 -0.6883 -0.6600 -0.0362
32740SOL     OW 8149   8.369   7.779   2.748  0.2495  0.6432 -0.3112
32740SOL    HW1 8150   8.275   7.791   2.738 -0.0832 -0.3511  1.2189
32740SOL    HW2 8151   8.408   7.849   2.696 -1.3403  1.5173 -0.3896
32741SOL     OW 8152   9.040   5.265   0.747  0.3950 -0.1196  0.7165
32741SOL    HW1 8153   9.014   5.347   0.789 -0.4155 -0.6409  1.2699
32741SOL    HW2 8154   9.093   5.221   0.813  1.4944  0.2942  0.1284
32742SOL     OW 8155  10.866   0.637   6.030  0.2626  0.4766  0.2140
32742SOL    HW1 8156  10.923   0.655   6.105  0.9117  3.4565 -0.8527
32742SOL    HW2 8157  10.786   0.688   6.047 -0.4060 -0.4110 -0.1962
32743SOL     OW 8158   3.633   9.761   0.316 -0.5422 -0.4516  0.0205
32743SOL    HW1 8159   3.676   9.813   0.384 -0.1897  0.5106 -0.9086
32743SOL    HW2 8160   3.684   9.778   0.236 -0.5055 -2.1146 -0.3611
32744SOL     OW 8161   4.913   7.539   3.662 -0.0205  0.1664 -0.0056
32744SOL    HW1 8162   4.907   7.619   3.715 -0.9687 -0.2229  0.4845
32744SOL    HW2 8163   5.007   7.528   3.648  0.3161  0.0252  2.0125
32745SOL     OW 8164  13.268   3.340   7.569 -0.2779 -0.1879 -0.3954
32745SOL    HW1 8165  13.256   3.381   7.483 -0.8512 -0.6926 -0.5633
32745SOL    HW2 8166  13.360   3.316   7.571 -0.4235 -0.8464 -1.1809
32746SOL     OW 8167   3.110   7.466   3.880  0.5491  0.5079 -0.9783
32746SOL    HW1 8168   3.065   7.526   3.940  0.6656  0.8017 -1.1819
32746SOL    HW2 8169   3.192   7.511   3.858  0.1270  0.8031 -2.0246
32747SOL     OW 8170   4.246  12.084  12.514  0.2609 -0.2913  0.3583
32747SOL    HW1 8171   4.158  12.119  12.506 -0.5728 -2.4129 -0.4043
32747SOL    HW2 8172   4.263  12.082  12.608  0.2021  1.6984  0.4410
32748SOL     OW 8173   3.164   3.546   2.669  0.0327 -0.0596 -0.3223
32748SOL    HW1 8174   3.214   3.492   2.608 -1.7748 -1.6380 -0.5302
32748SOL    HW2 8175   3.200   3.525   2.755  1.7189  1.1800 -0.6788
32749SOL     OW 8176   8.868   8.377   3.560  0.0799 -0.3903  0.1638
32749SOL    HW1 8177   8.876   8.407   3.651 -1.5776  1.2568 -0.1787
32749SOL    HW2 8178   8.819   8.295   3.566  1.8176 -1.4249  0.8765
32750SOL     OW 8179   2.800   0.045  11.671  0.3884 -0.3684 -0.3111
32750SOL    HW1 8180   2.720   0.010  11.710  0.3811  0.0939  0.0920
32750SOL    HW2 8181   2.860  -0.029  11.669  0.8335 -0.1160  1.7769
32751SOL     OW 8182  12.012   1.048   7.567  0.5292  0.2064 -0.6135
32751SOL    HW1 8183  11.941   0.984   7.575  0.1916  0.6842  0.4117
32751SOL    HW2 8184  12.022   1.061   7.473 -2.1805  1.6666 -0.7894
32752SOL     OW 8185   5.016   5.739   7.928 -0.5566  0.3558 -0.0057
32752SOL    HW1 8186   4.938   5.794   7.929  0.3824  1.7332 -0.0534
32752SOL    HW2 8187   5.089   5.800   7.920  0.5054 -0.9416 -0.6801
32753SOL     OW 8188  10.579   9.192   7.918  0.6464 -0.3314 -0.2832
32753SOL    HW1 8189  10.542   9.278   7.898 -2.0549 -0.8316  1.8986
32753SOL    HW2 8190  10.504   9.141   7.948  2.6149 -2.5832  1.1269
32754SOL     OW 8191   1.435   8.979   6.618  0.5838  0.4686 -0.2105
32754SOL    HW1 8192   1.448   8.985   6.524 -0.1385  0.3189 -0.3254
32754SOL    HW2 8193   1.394   9.062   6.642 -0.8022 -0.1661 -0.3103
32755SOL     OW 8194   0.201   5.060   0.761  0.3623 -0.0933 -0.0707
32755SOL    HW1 8195   0.216   5.137   0.816  0.5249  0.6384 -1.1173
32755SOL    HW2 8196   0.106   5.048   0.764  0.2225  0.7385 -0.6509
32756SOL     OW 8197   4.052  12.471  10.030  0.2152  0.1748  0.6877
32756SOL    HW1 8198   4.080  12.559  10.054 -3.3166  2.2320 -1.8210
32756SOL    HW2 8199   4.016  12.434  10.110  1.4681  1.0568  1.7108
32757SOL     OW 8200  12.048   2.311   8.505 -0.1648 -0.8536  0.0672
32757SOL    HW1 8201  11.995   2.247   8.457  0.7121 -0.8915 -0.8695
32757SOL    HW2 8202  12.003   2.395   8.491  0.0745 -0.8639 -0.8424
32758SOL     OW 8203  11.456   8.746   9.092 -0.0896  0.9953 -0.2797
32758SOL    HW1 8204  11.481   8.664   9.049 -2.4473  0.3673 -0.6215
32758SOL    HW2 8205  11.505   8.813   9.045  3.1210 -0.2380  1.0155
32759SOL     OW 8206   7.308  12.419  11.504 -0.0024  0.1337 -0.7452
32759SOL    HW1 8207   7.318  12.514  11.506 -0.6706  0.2936 -2.7836
32759SOL    HW2 8208   7.290  12.399  11.412  1.9184 -2.1474 -0.7355
32760SOL     OW 8209  12.999   9.337   8.827 -0.1455 -0.2106  0.1996
32760SOL    HW1 8210  12.906   9.359   8.828  0.0461  0.5988  1.1576
32760SOL    HW2 8211  13.036   9.383   8.902  1.1379 -0.0657 -0.4891
32761SOL     OW 8212  12.227   0.360   8.403 -0.0038 -0.6903  0.0431
32761SOL    HW1 8213  12.197   0.446   8.373  0.5713 -0.9257 -1.2891
32761SOL    HW2 8214  12.316   0.354   8.369  0.1825 -1.5545  0.6793
32762SOL     OW 8215  11.957   6.522   3.540 -0.2348  0.0886  0.1433
32762SOL    HW1 8216  12.004   6.586   3.486  0.4272 -0.4649  0.0546
32762SOL    HW2 8217  12.007   6.518   3.621 -0.4582 -0.0778  0.2713
32763SOL     OW 8218  10.757   4.946   2.062  0.4966  0.5481  0.0591
32763SOL    HW1 8219  10.679   4.920   2.012  1.2138 -0.2357 -0.7074
32763SOL    HW2 8220  10.724   4.968   2.149 -0.5016 -0.4498 -0.0354
32764SOL     OW 8221   5.168  11.374   9.525 -0.3197  0.0496 -0.3481
32764SOL    HW1 8222   5.094  11.364   9.585 -0.0427  0.3461  0.0407
32764SOL    HW2 8223   5.219  11.294   9.537  1.0391  1.1386  1.6059
32765SOL     OW 8224   1.509   6.542   1.445 -0.4606  0.4108  0.2976
32765SOL    HW1 8225   1.549   6.525   1.530 -0.9242  2.0780  0.8902
32765SOL    HW2 8226   1.427   6.493   1.447 -0.8385  1.0524  1.1478
32766SOL     OW 8227  13.063   5.102  11.544  0.3952  0.2914  0.1380
32766SOL    HW1 8228  13.014   5.066  11.470  0.4297  0.2410  0.1398
32766SOL    HW2 8229  13.155   5.088  11.521  0.4283  0.9619 -0.1545
32767SOL     OW 8230  11.320  11.996  12.419 -0.2619  0.5665 -0.6287
32767SOL    HW1 8231  11.232  12.021  12.447 -0.3972  0.9215 -1.3313
32767SOL    HW2 8232  11.377  12.019  12.492 -0.3327  3.2658 -1.3046
32768SOL     OW 8233   4.848   9.121   8.988 -0.3088  0.4069 -0.1476
32768SOL    HW1 8234   4.781   9.057   8.964  0.5021  0.0115 -1.4779
32768SOL    HW2 8235   4.926   9.093   8.941  0.2824  1.9502 -0.1629
32769SOL     OW 8236   7.169  10.519   0.762 -0.2328  0.6506  0.6874
32769SOL    HW1 8237   7.127  10.517   0.849 -0.5261  0.0566  0.5368
32769SOL    HW2 8238   7.151  10.607   0.730 -1.5863  0.3431  0.5322
32770SOL     OW 8239   9.997  12.586   2.790  0.1033 -0.7546  0.5642
32770SOL    HW1 8240   9.903  12.597   2.796 -0.0884 -1.7291 -0.2825
32770SOL    HW2 8241  10.021  12.534   2.867  0.1829  0.6831  1.5429
32771SOL     OW 8242  10.520  10.807   2.311  0.0274  0.0466 -0.3311
32771SOL    HW1 8243  10.450  10.746   2.288 -0.4656 -0.4148  2.0723
32771SOL    HW2 8244  10.475  10.887   2.337  0.3635 -0.1626  0.9763
32772SOL     OW 8245   7.153  12.715  11.491  0.0789 -0.2594  0.1350
32772SOL    HW1 8246   7.231  12.752  11.532 -0.1155 -0.4151  0.6507
32772SOL    HW2 8247   7.087  12.713  11.561 -0.0980 -1.0008 -0.0434
32773SOL     OW 8248   5.105   9.886   3.617 -0.0372 -0.0234  0.1775
32773SOL    HW1 8249   5.042   9.953   3.591 -1.0688 -0.0706  2.3335
32773SOL    HW2 8250   5.070   9.805   3.581 -1.3896 -0.0787  1.4993
32774SOL     OW 8251   3.993   3.089  11.940 -0.3301  0.4447  0.3602
32774SOL    HW1 8252   4.035   3.094  12.026 -1.3328  2.2150  0.8042
32774SOL    HW2 8253   3.925   3.023  11.950  0.6993 -0.6448  0.3717
32775SOL     OW 8254   5.220   5.886   7.716  0.0399 -0.3068  0.2597
32775SOL    HW1 8255   5.222   5.908   7.809 -0.9831 -0.4440  0.3266
32775SOL    HW2 8256   5.175   5.961   7.675  0.5591 -0.2054 -0.1454
32776SOL     OW 8257   5.021   3.562   5.067 -0.3770  0.2113  0.0836
32776SOL    HW1 8258   4.958   3.537   5.000 -0.9211  1.3742  0.1477
32776SOL    HW2 8259   5.037   3.655   5.053  1.5968 -0.1159 -0.1366
32777SOL     OW 8260   1.221   9.845   4.653 -0.0703  0.5649 -0.2314
32777SOL    HW1 8261   1.182   9.822   4.568  0.1910 -2.9152  0.4521
32777SOL    HW2 8262   1.147   9.873   4.707 -1.0882 -1.8196 -0.2500
32778SOL     OW 8263  10.405   8.690   0.912  0.0363  0.2148 -0.6534
32778SOL    HW1 8264  10.398   8.764   0.971 -1.3257 -0.2075 -0.2683
32778SOL    HW2 8265  10.320   8.647   0.915  1.0150 -1.8344 -0.2652
32779SOL     OW 8266  12.777   8.808   5.033  0.0324  0.0548 -0.3302
32779SOL    HW1 8267  12.794   8.883   5.090 -0.2373 -0.7380  0.8250
32779SOL    HW2 8268  12.844   8.744   5.058 -0.9775 -0.8518  0.1256
32780SOL     OW 8269  12.604   3.588   0.390  0.4914 -0.3097  0.6865
32780SOL    HW1 8270  12.637   3.678   0.399  3.2355 -0.7737 -2.5412
32780SOL    HW2 8271  12.661   3.536   0.446  0.8223 -0.3261  0.3426
32781SOL     OW 8272   1.417   0.813   8.132  0.1032 -0.0931 -0.1254
32781SOL    HW1 8273   1.342   0.854   8.090 -2.2535 -1.2562  2.6368
32781SOL    HW2 8274   1.384   0.780   8.215  4.1168  0.9325  2.1684
32782SOL     OW 8275   8.444   0.115   1.255 -0.4207  0.5183 -0.0771
32782SOL    HW1 8276   8.480   0.084   1.173 -1.8389  1.0377 -0.9323
32782SOL    HW2 8277   8.493   0.068   1.323  0.2646 -0.4635 -1.2247
32783SOL     OW 8278   9.288   7.006  12.917 -0.1371 -0.0781 -0.4785
32783SOL    HW1 8279   9.275   7.085  12.969 -0.1021  0.4108 -1.1950
32783SOL    HW2 8280   9.243   6.938  12.966  0.5570  0.2047  0.5830
32784SOL     OW 8281   7.471  10.604   0.148  0.4633 -0.4645  0.2670
32784SOL    HW1 8282   7.478  10.546   0.224 -0.7052 -1.2341 -0.1796
32784SOL    HW2 8283   7.561  10.634   0.132  0.6339  0.3878  2.4349
32785SOL     OW 8284   7.417  10.923  10.585 -0.2224 -0.1319  0.2974
32785SOL    HW1 8285   7.501  10.894  10.620 -0.7896 -2.7647 -0.2621
32785SOL    HW2 8286   7.354  10.857  10.616 -2.0653  1.6152  0.5021
32786SOL     OW 8287  10.763   0.279  12.944  0.5045 -0.7872  0.0298
32786SOL    HW1 8288  10.796   0.349  12.888  3.1167 -1.5356  0.5114
32786SOL    HW2 8289  10.728   0.214  12.883  0.5057 -0.2616 -0.5426
32787SOL     OW 8290   6.727  10.429  11.215  0.1275 -0.2340 -0.7946
32787SOL    HW1 8291   6.670  10.491  11.259  0.3351 -1.5364  1.4806
32787SOL    HW2 8292   6.808  10.477  11.200  0.5935 -0.1047  1.6971
32788SOL     OW 8293  13.070   6.448   4.114  0.4213  0.0787 -0.0756
32788SOL    HW1 8294  13.144   6.386   4.119  0.0382 -0.6861 -2.5228
32788SOL    HW2 8295  12.993   6.393   4.125  0.1337  0.5662  0.3809
32789SOL     OW 8296   9.176   4.474  10.762  0.5100 -0.3897  0.2538
32789SOL    HW1 8297   9.231   4.503  10.690 -0.0459  3.4348  1.1579
32789SOL    HW2 8298   9.229   4.487  10.840 -0.4354 -0.0935  0.8620
32790SOL     OW 8299   6.381   2.710   4.905  0.9048 -0.0753 -0.1880
32790SOL    HW1 8300   6.342   2.639   4.956  0.9722 -1.7417 -2.2732
32790SOL    HW2 8301   6.369   2.682   4.814  2.2632  1.9205 -1.0473
32791SOL     OW 8302   1.996   9.607   2.249  0.2912  0.5116 -0.0878
32791SOL    HW1 8303   2.068   9.666   2.272  0.9405 -0.2985  0.0091
32791SOL    HW2 8304   1.918   9.651   2.280  0.7313  1.4847 -0.3354
32792SOL     OW 8305   0.816   3.853   3.650  0.0922  0.0133 -0.5971
32792SOL    HW1 8306   0.861   3.834   3.732  1.1232  1.6259 -0.7366
32792SOL    HW2 8307   0.886   3.886   3.592 -0.7260 -0.4578 -1.8981
32793SOL     OW 8308   1.095   0.370  13.147 -0.2892  0.5122 -0.4812
32793SOL    HW1 8309   1.061   0.413  13.225 -0.0164 -1.1074  0.5817
32793SOL    HW2 8310   1.188   0.356  13.166 -0.1682  0.3033 -1.1905
32794SOL     OW 8311  11.973  11.327   2.680  0.3667 -0.5532  0.6827
32794SOL    HW1 8312  11.935  11.357   2.762 -0.5809 -0.4284  0.2202
32794SOL    HW2 8313  11.954  11.233   2.678  3.2216 -1.2541  2.0725
32795SOL     OW 8314   8.750   0.026   5.450 -0.3808  0.3436  0.5092
32795SOL    HW1 8315   8.764   0.062   5.362 -0.4044  1.4896  0.9608
32795SOL    HW2 8316   8.705   0.095   5.498 -0.2033 -0.1951  1.4841
32796SOL     OW 8317   7.425  12.181   6.501  0.3281  0.0680 -0.0231
32796SOL    HW1 8318   7.398  12.267   6.470  1.0696  0.5991  0.7444
32796SOL    HW2 8319   7.450  12.195   6.593  1.5675 -0.7174 -0.2063
32797SOL     OW 8320   3.924   9.281   7.576  0.1460  0.5205  0.0913
32797SOL    HW1 8321   3.865   9.257   7.648  0.5062 -0.6611  0.0093
32797SOL    HW2 8322   3.866   9.315   7.508 -0.5094 -0.9770 -0.1386
32798SOL     OW 8323   6.750  11.018  12.396  1.1098 -0.6955  0.3020
32798SOL    HW1 8324   6.730  10.926  12.412 -0.0008 -0.6462 -0.6591
32798SOL    HW2 8325   6.675  11.065  12.433  0.2007 -0.3882 -1.7850
32799SOL     OW 8326   9.277   9.952   1.562  0.0655 -0.2504 -0.1235
32799SOL    HW1 8327   9.252   9.866   1.596 -0.9335  0.1642  0.2284
32799SOL    HW2 8328   9.362   9.937   1.520 -0.2675 -1.4903 -0.4111
32800SOL     OW 8329   0.954  12.552  10.147 -0.6267 -0.3467 -0.5390
32800SOL    HW1 8330   0.911  12.525  10.229 -0.9880  2.5033  0.3017
32800SOL    HW2 8331   0.990  12.638  10.166  2.5919 -1.1678 -2.3089
32801SOL     OW 8332   0.865   4.620   0.076  0.1225  0.2692  0.1079
32801SOL    HW1 8333   0.778   4.626   0.115  0.0779  1.2077 -0.1123
32801SOL    HW2 8334   0.855   4.656  -0.012  1.2365  2.8308  0.9270
32802SOL     OW 8335   0.293   4.461   3.064  0.2874  0.0877  0.0143
32802SOL    HW1 8336   0.317   4.368   3.060 -0.3778 -0.0525 -1.7658
32802SOL    HW2 8337   0.376   4.508   3.054  0.5762 -0.3195  0.4728
32803SOL     OW 8338   3.809   7.096  10.535  0.2980 -0.7661 -0.2960
32803SOL    HW1 8339   3.765   7.180  10.525  1.8009  0.3058  1.5418
32803SOL    HW2 8340   3.739   7.035  10.558 -0.7100  0.0946 -0.9622
32804SOL     OW 8341   6.435   1.293   0.138  0.5580 -0.1753  0.9489
32804SOL    HW1 8342   6.380   1.371   0.145  0.1967 -0.3469  0.1491
32804SOL    HW2 8343   6.380   1.222   0.171  0.3982 -0.2999  0.4235
32805SOL     OW 8344  10.837   0.553   5.218 -0.1821  0.4895  1.1072
32805SOL    HW1 8345  10.881   0.618   5.272  1.0787  0.2869  0.3712
32805SOL    HW2 8346  10.885   0.472   5.235 -1.3376 -0.1284  1.5408
32806SOL     OW 8347   5.114   1.188   8.811 -0.0138  0.5114 -0.1345
32806SOL    HW1 8348   5.036   1.243   8.819  0.0524  0.5071  0.6532
32806SOL    HW2 8349   5.178   1.242   8.765 -0.5113  0.4798 -0.8643
32807SOL     OW 8350   5.262   7.427   1.516  0.1046 -0.9031 -0.2719
32807SOL    HW1 8351   5.350   7.461   1.525  0.6404 -2.1692 -0.4555
32807SOL    HW2 8352   5.267   7.338   1.551 -0.8805 -1.2953 -1.0749
32808SOL     OW 8353   8.595   7.111   2.851 -0.4058  0.2326 -0.0073
32808SOL    HW1 8354   8.537   7.187   2.862 -1.6760 -0.4409 -1.6315
32808SOL    HW2 8355   8.542   7.036   2.875 -0.4338 -0.4437 -1.9829
32809SOL     OW 8356   2.132   6.689   6.877 -0.3943  0.5928  0.3427
32809SOL    HW1 8357   2.133   6.685   6.973 -0.7757 -0.1517  0.3196
32809SOL    HW2 8358   2.187   6.616   6.849 -1.0696  0.2125 -0.0143
32810SOL     OW 8359   3.151  11.371   0.701  0.4574 -0.0571  0.0394
32810SOL    HW1 8360   3.069  11.419   0.687 -0.3158 -1.7591 -1.6591
32810SOL    HW2 8361   3.220  11.432   0.675 -0.3147  1.0001  0.4211
32811SOL     OW 8362   1.098   1.873   3.152  0.5814 -0.5307  0.1426
32811SOL    HW1 8363   1.069   1.914   3.234 -0.1209  0.7892 -0.7176
32811SOL    HW2 8364   1.193   1.865   3.161  0.6030  0.3030  0.8042
32812SOL     OW 8365   5.114   0.456   0.735  0.5668  0.4453 -0.2503
32812SOL    HW1 8366   5.026   0.480   0.706 -0.0072 -0.3742  0.7498
32812SOL    HW2 8367   5.160   0.431   0.655 -1.0101 -1.8643 -0.5224
32813SOL     OW 8368   4.864   1.037   2.239 -0.5472  0.1439 -0.1593
32813SOL    HW1 8369   4.867   0.950   2.279 -0.4810  0.2112 -0.0187
32813SOL    HW2 8370   4.808   1.088   2.297  1.0930  0.7955  0.9404
32814SOL     OW 8371   8.547   5.493  12.463  0.3593  0.1935 -0.2268
32814SOL    HW1 8372   8.615   5.519  12.401  0.4270 -0.4248 -0.4149
32814SOL    HW2 8373   8.466   5.499  12.413  0.3085  0.6237 -0.0949
32815SOL     OW 8374   4.767   4.451   7.304 -0.0541  0.4084 -0.7659
32815SOL    HW1 8375   4.798   4.541   7.316  0.0283  0.1709  1.1065
32815SOL    HW2 8376   4.804   4.402   7.378 -2.2576 -0.5716 -0.1995
32816SOL     OW 8377  11.434   1.158   7.389  0.5596 -0.1185 -0.2016
32816SOL    HW1 8378  11.503   1.126   7.447 -0.5485 -0.6368  0.8808
32816SOL    HW2 8379  11.383   1.081   7.366  0.3650  0.2460 -1.0514
32817SOL     OW 8380   2.497   8.004   4.257  0.0501  0.0163  0.2218
32817SOL    HW1 8381   2.467   7.918   4.226  0.2412  0.1528 -0.3739
32817SOL    HW2 8382   2.441   8.025   4.331  0.3025 -0.8287  0.6609
32818SOL     OW 8383  11.873  12.197  10.481  0.8099  0.0673 -0.5888
32818SOL    HW1 8384  11.891  12.193  10.574 -1.0480  1.1583 -0.1233
32818SOL    HW2 8385  11.952  12.163  10.439  1.8518 -0.0138  1.3447
32819SOL     OW 8386   9.262   2.012  11.534 -0.6332  0.0557  0.2072
32819SOL    HW1 8387   9.317   2.037  11.608  0.8547 -1.1550 -0.4512
32819SOL    HW2 8388   9.266   2.086  11.474  0.1987  0.0294  0.2239
32820SOL     OW 8389  11.407   2.760   6.044 -0.0893 -0.4931  0.3480
32820SOL    HW1 8390  11.330   2.703   6.042  1.8432 -3.3112  0.5807
32820SOL    HW2 8391  11.467   2.721   5.981  1.9180  0.3608  1.6352
32821SOL     OW 8392  12.052   4.145  12.083  0.4065 -0.1836 -0.3306
32821SOL    HW1 8393  12.055   4.152  12.179 -1.9554 -2.9410  0.0723
32821SOL    HW2 8394  12.058   4.236  12.053  1.5412  0.7610  2.3727
32822SOL     OW 8395   4.100   4.396   3.010 -0.3303  0.6177  0.1843
32822SOL    HW1 8396   4.106   4.346   2.929 -0.0532  0.5268  0.2579
32822SOL    HW2 8397   4.191   4.413   3.034 -0.3677 -0.2080  1.0013
32823SOL     OW 8398   9.848   3.443   5.573  0.6070  0.7728  0.1283
32823SOL    HW1 8399   9.755   3.431   5.556  1.2887 -1.0672 -3.0756
32823SOL    HW2 8400   9.886   3.464   5.488  3.3959 -0.7395  0.8647
32824SOL     OW 8401   6.990   8.101   6.627 -0.2157 -0.1866  0.0790
32824SOL    HW1 8402   6.945   8.176   6.588 -0.1522 -0.8567 -1.3504
32824SOL    HW2 8403   6.955   8.025   6.581  2.7009 -0.7157 -1.5540
32825SOL     OW 8404   6.560   6.183  12.046 -0.2642  0.0455  0.4590
32825SOL    HW1 8405   6.643   6.222  12.019 -0.4309 -0.2131 -0.4652
32825SOL    HW2 8406   6.509   6.256  12.080 -0.8396  0.8322 -1.8939
32826SOL     OW 8407   6.716   5.028  11.465 -0.3444  0.0845  0.6339
32826SOL    HW1 8408   6.737   5.117  11.437 -0.8760  0.5007  1.5059
32826SOL    HW2 8409   6.792   5.000  11.516  0.0363 -0.1598 -0.0508
32827SOL     OW 8410   9.196  10.904   1.393 -0.1104  0.2852  0.3020
32827SOL    HW1 8411   9.137  10.896   1.467  0.3926 -0.2040  0.6643
32827SOL    HW2 8412   9.283  10.890   1.430  0.2663  1.2782 -0.1705
32828SOL     OW 8413   4.398   8.649   7.184  0.7404 -0.3103 -0.0264
32828SOL    HW1 8414   4.427   8.558   7.188  2.4257  0.2480  1.6926
32828SOL    HW2 8415   4.326   8.654   7.248 -1.0677 -0.9322 -1.9019
32829SOL     OW 8416   4.925   5.419   0.753 -0.4451 -0.4552 -0.2083
32829SOL    HW1 8417   4.977   5.402   0.831 -0.6867 -0.0630  0.0386
32829SOL    HW2 8418   4.945   5.345   0.694  0.1604 -0.4607 -0.0019
32830SOL     OW 8419   3.732  11.897  11.963 -0.1560 -0.4138 -0.1225
32830SOL    HW1 8420   3.807  11.841  11.983  1.2486  1.1625 -0.7587
32830SOL    HW2 8421   3.751  11.979  12.009 -0.5898  0.6365 -1.7444
32831SOL     OW 8422   5.376   7.637   4.320  0.2589  0.0057  0.3029
32831SOL    HW1 8423   5.401   7.569   4.382 -1.0700 -0.7917 -0.0091
32831SOL    HW2 8424   5.439   7.629   4.248 -0.5530 -1.6954 -0.2761
32832SOL     OW 8425   1.068  12.439   3.466  0.0539  0.1621 -0.1674
32832SOL    HW1 8426   0.993  12.500   3.470 -0.0536  0.0591 -0.6030
32832SOL    HW2 8427   1.032  12.355   3.493  0.0969  0.1902 -0.0207
32833SOL     OW 8428   6.505   9.496   7.051  0.2297 -0.0797 -0.1759
32833SOL    HW1 8429   6.574   9.431   7.038  1.2044  0.9766 -0.3804
32833SOL    HW2 8430   6.489   9.494   7.146 -0.0434 -0.8934 -0.2268
32834SOL     OW 8431   2.205   5.480   0.280 -0.0357  0.1035  0.5832
32834SOL    HW1 8432   2.271   5.514   0.220 -0.4482 -3.1553 -1.9764
32834SOL    HW2 8433   2.124   5.526   0.255  0.3094  0.6444  0.4570
32835SOL     OW 8434  12.570   4.646   1.856  0.0614  0.3260 -0.4075
32835SOL    HW1 8435  12.628   4.650   1.932  0.1895  0.1128 -0.4930
32835SOL    HW2 8436  12.491   4.604   1.888  0.3855 -0.4236 -0.5575
32836SOL     OW 8437   3.431   1.426   7.871  0.2136 -0.0133  0.0901
32836SOL    HW1 8438   3.504   1.480   7.840  0.6955 -0.6035  0.1703
32836SOL    HW2 8439   3.447   1.414   7.964 -0.0658 -0.0307  0.1380
32837SOL     OW 8440   1.035   3.424   5.354 -0.4875  0.2286  0.6980
32837SOL    HW1 8441   0.963   3.485   5.338  0.9298  1.7003 -0.4105
32837SOL    HW2 8442   0.994   3.338   5.356 -2.1395  0.9249 -0.9816
32838SOL     OW 8443  11.712   9.493   5.861  0.1570 -0.8343  0.3149
32838SOL    HW1 8444  11.641   9.495   5.925  0.5402  0.2771  0.7324
32838SOL    HW2 8445  11.717   9.401   5.834 -0.6560 -1.1442  1.1418
32839SOL     OW 8446  12.735   6.483   9.934 -0.2261 -0.1569  0.3113
32839SOL    HW1 8447  12.795   6.425   9.980  0.9846  1.3488  0.7391
32839SOL    HW2 8448  12.708   6.435   9.857  1.0947 -1.1050  0.4128
32840SOL     OW 8449   4.120  10.934   5.015 -0.0793  0.0332 -1.0959
32840SOL    HW1 8450   4.038  10.913   4.971  0.1914  0.5649 -1.8802
32840SOL    HW2 8451   4.102  10.921   5.108 -0.3858 -2.0329 -1.4011
32841SOL     OW 8452   5.346   1.508   5.608 -0.0608  0.0627 -0.0952
32841SOL    HW1 8453   5.371   1.467   5.525 -0.1685  0.3264 -0.2619
32841SOL    HW2 8454   5.314   1.436   5.662 -1.3019  0.0688 -0.7798
32842SOL     OW 8455   4.020   4.208   1.728 -0.0056  0.0094 -0.0439
32842SOL    HW1 8456   3.996   4.271   1.796 -2.9643 -1.1632  0.1557
32842SOL    HW2 8457   4.049   4.130   1.777 -2.4659 -0.9592  0.0215
32843SOL     OW 8458   4.555  13.161  12.772 -0.2491 -0.9524 -0.6851
32843SOL    HW1 8459   4.515  13.076  12.756  2.5100 -2.2327 -1.5279
32843SOL    HW2 8460   4.494  13.225  12.735 -1.6412 -2.6846 -1.4839
32844SOL     OW 8461   1.821   7.051   7.372  0.3241 -0.4125 -0.2968
32844SOL    HW1 8462   1.883   7.124   7.374 -0.5210  0.3427 -1.0897
32844SOL    HW2 8463   1.741   7.084   7.412 -0.2306 -0.7321 -1.1030
32845SOL     OW 8464   8.376   7.276   0.623 -0.2152 -0.1696 -0.0579
32845SOL    HW1 8465   8.419   7.308   0.544  0.2930  0.8968  0.6288
32845SOL    HW2 8466   8.430   7.202   0.651 -0.5820 -0.7576 -0.8755
32846SOL     OW 8467   1.663   2.392   3.773 -0.1230 -0.0778  0.1431
32846SOL    HW1 8468   1.661   2.386   3.869  1.1183 -3.3425  0.0601
32846SOL    HW2 8469   1.651   2.486   3.756 -3.6465  0.3218  3.3273
32847SOL     OW 8470   2.237   7.803  11.787 -0.2589  0.0919 -0.3005
32847SOL    HW1 8471   2.252   7.868  11.718 -0.1313  0.0146 -0.3463
32847SOL    HW2 8472   2.205   7.726  11.741 -1.7984  0.5817 -0.0982
32848SOL     OW 8473  10.351   0.599  12.542  0.9951  0.2199  0.2054
32848SOL    HW1 8474  10.430   0.599  12.597 -0.4573 -0.9315  2.4112
32848SOL    HW2 8475  10.332   0.692  12.528  2.6593  0.5224 -0.3163
32849SOL     OW 8476   9.390   9.983   8.658  0.5330  0.2629 -0.3950
32849SOL    HW1 8477   9.405   9.889   8.674  1.7148  0.5212  0.1490
32849SOL    HW2 8478   9.453  10.006   8.590  0.7033  0.8013 -0.0579
32850SOL     OW 8479   8.757   0.650  10.277  0.4041 -0.6943 -0.4786
32850SOL    HW1 8480   8.749   0.556  10.258  1.9122 -0.7410 -1.0743
32850SOL    HW2 8481   8.783   0.689  10.193  1.2252  0.0317  0.0950
32851SOL     OW 8482   5.136   3.306  11.232  0.5951  0.0345  0.1037
32851SOL    HW1 8483   5.193   3.327  11.158  0.8621 -2.3094 -0.4194
32851SOL    HW2 8484   5.142   3.383  11.289  0.5140  1.8389 -2.1771
32852SOL     OW 8485   7.380   0.224   8.843 -0.4599  0.1915  0.1013
32852SOL    HW1 8486   7.338   0.172   8.773  0.8796 -0.0507 -0.5600
32852SOL    HW2 8487   7.460   0.175   8.864  0.7032  1.8265 -0.3413
32853SOL     OW 8488   0.619   2.795  11.725 -0.2497 -0.4761  0.0777
32853SOL    HW1 8489   0.632   2.887  11.704  3.3015 -1.0841 -1.0156
32853SOL    HW2 8490   0.585   2.795  11.815 -0.5110  1.8523  0.0391
32854SOL     OW 8491   2.728   0.880   3.464 -0.4784 -0.4002 -0.3005
32854SOL    HW1 8492   2.823   0.894   3.464 -0.7212  2.5456 -3.3079
32854SOL    HW2 8493   2.698   0.919   3.546  0.7505  0.4172 -0.2196
32855SOL     OW 8494   7.775  11.684   0.811  0.1481 -0.2656 -0.0600
32855SOL    HW1 8495   7.691  11.702   0.854  1.0206 -0.7818  1.9568
32855SOL    HW2 8496   7.824  11.633   0.875  2.1156  0.2752 -1.0781
32856SOL     OW 8497   0.402   2.419   1.756  0.3583  0.0257 -0.0416
32856SOL    HW1 8498   0.405   2.384   1.667  1.7428 -0.9908  0.3562
32856SOL    HW2 8499   0.310   2.439   1.771  0.0504 -0.0887 -1.5803
32857SOL     OW 8500   4.040  11.355   1.279  0.6847 -0.6372 -0.2932
32857SOL    HW1 8501   3.958  11.314   1.250  0.3067  0.2328 -0.4927
32857SOL    HW2 8502   4.013  11.413   1.351  0.9801  0.3131 -0.9307
32858SOL     OW 8503  12.072   7.020   5.505  0.3383  0.1056 -0.0969
32858SOL    HW1 8504  12.072   7.018   5.601  0.2901 -0.3313 -0.1050
32858SOL    HW2 8505  12.062   6.928   5.479  1.2919  0.1192 -0.5247
32859SOL     OW 8506   5.301   6.809   9.050  0.2318 -0.0645  0.0450
32859SOL    HW1 8507   5.297   6.728   8.999 -0.6082  0.8624 -1.4337
32859SOL    HW2 8508   5.234   6.865   9.011 -0.8269  0.5195  2.5450
32860SOL     OW 8509   1.334   2.413  10.720 -0.0594  0.0113 -0.8515
32860SOL    HW1 8510   1.379   2.333  10.745  1.0241  0.1592 -2.1838
32860SOL    HW2 8511   1.260   2.420  10.781  1.9097 -0.0251  1.7149
32861SOL     OW 8512  12.846  11.237   7.511 -0.8591 -0.1863  0.2242
32861SOL    HW1 8513  12.859  11.294   7.435 -0.5346 -1.2697 -0.5565
32861SOL    HW2 8514  12.753  11.216   7.510 -0.6923 -0.9466 -0.4431
32862SOL     OW 8515   6.234  11.296   7.795 -0.0155 -0.0119 -0.2868
32862SOL    HW1 8516   6.207  11.325   7.708  0.2480 -1.0439 -0.7261
32862SOL    HW2 8517   6.303  11.358   7.820  0.5732 -0.2506 -1.2263
32863SOL     OW 8518  11.028   8.192   4.382  1.0105  0.1779 -0.1181
32863SOL    HW1 8519  11.082   8.265   4.413 -1.5433  1.4568  1.7020
32863SOL    HW2 8520  10.939   8.215   4.409 -0.3037 -2.4187 -1.8032
32864SOL     OW 8521  11.031   5.250   0.840  0.1111 -0.2034 -0.2399
32864SOL    HW1 8522  11.086   5.229   0.763  0.4591  0.6522 -0.2389
32864SOL    HW2 8523  10.947   5.209   0.821  0.4512 -0.7038 -0.7022
32865SOL     OW 8524   3.566  11.446   9.710  0.0523  0.3686  0.0147
32865SOL    HW1 8525   3.511  11.407   9.778  1.3426 -0.4654  0.5905
32865SOL    HW2 8526   3.523  11.530   9.691 -2.5594 -1.0422 -0.9763
32866SOL     OW 8527   7.000   9.843   5.098  0.3859  0.1846 -0.1032
32866SOL    HW1 8528   6.991   9.900   5.021 -0.9453  0.6352  0.3590
32866SOL    HW2 8529   7.009   9.903   5.172 -1.3429 -0.1503  0.4305
32867SOL     OW 8530   2.003   4.613   2.395 -0.3548  0.9004 -0.5362
32867SOL    HW1 8531   2.015   4.708   2.390  0.4268  0.9988  1.8992
32867SOL    HW2 8532   2.091   4.577   2.390 -0.2066  0.6210  2.2610
32868SOL     OW 8533  10.084  12.290   8.846 -0.9554 -0.1856 -0.1834
32868SOL    HW1 8534  10.103  12.383   8.860 -0.4375 -0.5508  1.8190
32868SOL    HW2 8535  10.157  12.259   8.792  0.1472  0.0838  1.1049
32869SOL     OW 8536   3.666  10.882  11.491 -0.3861  0.3270  0.2275
32869SOL    HW1 8537   3.720  10.919  11.561 -0.7792 -0.1625  0.7959
32869SOL    HW2 8538   3.665  10.950  11.424  1.5652  0.0415 -0.1433
32870SOL     OW 8539   6.924   0.813   3.898  0.0754  0.3290 -0.1479
32870SOL    HW1 8540   6.909   0.906   3.917  0.5827  0.3835  0.0127
32870SOL    HW2 8541   7.019   0.803   3.903 -0.0370 -0.4002  0.8097
32871SOL     OW 8542   4.151  11.654   0.722 -0.4803 -0.4317  0.3933
32871SOL    HW1 8543   4.188  11.690   0.802 -0.2173 -0.0445  0.0992
32871SOL    HW2 8544   4.067  11.699   0.712  0.0504  0.4516 -0.2172
32872SOL     OW 8545   8.646   3.275  12.657  0.1424  0.1453  0.2174
32872SOL    HW1 8546   8.742   3.275  12.654  0.1519  1.7697 -1.3419
32872SOL    HW2 8547   8.625   3.243  12.744  2.0306 -2.2529 -0.1004
32873SOL     OW 8548  11.450   0.899   0.369  0.0522  0.1744  0.2538
32873SOL    HW1 8549  11.502   0.974   0.399  0.5865  0.1234 -0.5336
32873SOL    HW2 8550  11.465   0.832   0.436 -0.9243  0.9605  1.2989
32874SOL     OW 8551  12.689   5.763  12.477  0.4865  0.0602  0.5631
32874SOL    HW1 8552  12.723   5.680  12.511 -1.2773 -1.7256 -1.6695
32874SOL    HW2 8553  12.680   5.748  12.383 -1.6064  2.1506  0.3315
32875SOL     OW 8554   2.913   9.126  10.526 -0.4531 -0.1471 -0.0423
32875SOL    HW1 8555   2.864   9.205  10.550  0.1647  0.0236  0.7055
32875SOL    HW2 8556   2.848   9.068  10.487 -1.8912 -0.9624  3.1896
32876SOL     OW 8557   1.789   1.639   0.170 -0.0035 -1.0454  0.3985
32876SOL    HW1 8558   1.860   1.657   0.231 -0.3786  1.1778  0.2717
32876SOL    HW2 8559   1.729   1.583   0.219 -0.2094  0.5364  2.0625
32877SOL     OW 8560   4.799   8.875   4.683 -0.0507  0.2668 -0.4098
32877SOL    HW1 8561   4.762   8.813   4.746 -0.5115  0.0282 -0.9030
32877SOL    HW2 8562   4.766   8.845   4.598  0.0510  0.9551 -0.6974
32878SOL     OW 8563   7.366   6.697   4.847 -0.3185 -0.7456  0.0357
32878SOL    HW1 8564   7.397   6.672   4.760  1.6895  0.4044  0.3418
32878SOL    HW2 8565   7.362   6.793   4.845  1.6075 -0.5427  1.6822
32879SOL     OW 8566   9.662   8.463   9.057  0.1990 -0.2209  0.3078
32879SOL    HW1 8567   9.704   8.534   9.009 -0.7658  0.4135  0.3861
32879SOL    HW2 8568   9.613   8.414   8.991  0.3276 -0.4249  0.3621
32880SOL     OW 8569  13.245   7.695   4.134  0.0775 -0.2561  0.4066
32880SOL    HW1 8570  13.180   7.663   4.072  0.8365  0.3317 -0.7051
32880SOL    HW2 8571  13.205   7.680   4.220 -0.9013 -1.2544 -0.2001
32881SOL     OW 8572   4.939   5.095  11.658  0.0888  0.1645  0.3824
32881SOL    HW1 8573   4.950   5.000  11.664  1.9707  0.1442 -1.9062
32881SOL    HW2 8574   5.001   5.131  11.722  2.0444 -0.1890 -1.2043
32882SOL     OW 8575  11.629   9.649   2.644 -0.2221 -0.1930  0.5374
32882SOL    HW1 8576  11.602   9.583   2.580  0.4562 -1.4490  1.4914
32882SOL    HW2 8577  11.555   9.656   2.704  0.4001 -1.5058  1.5036
32883SOL     OW 8578  11.861   1.993   3.892  0.1401  0.6199 -0.3383
32883SOL    HW1 8579  11.904   2.075   3.869  0.7591  0.8993  1.6170
32883SOL    HW2 8580  11.864   1.991   3.987 -0.7789 -1.2007 -0.3145
32884SOL     OW 8581  12.369   1.402   0.215  0.3089  0.0027 -0.7539
32884SOL    HW1 8582  12.328   1.324   0.177 -1.7553 -0.2745  1.7385
32884SOL    HW2 8583  12.386   1.459   0.141 -1.4843 -1.3607 -2.3096
32885SOL     OW 8584  12.665   3.246  12.340 -0.3069 -0.4069  0.4777
32885SOL    HW1 8585  12.629   3.161  12.319 -1.2059  0.3273 -1.0751
32885SOL    HW2 8586  12.731   3.262  12.273 -0.1165  0.1119  0.7766
32886SOL     OW 8587   4.104   0.722   3.925 -0.2806 -0.4509 -0.1777
32886SOL    HW1 8588   4.092   0.761   3.838 -0.7365 -0.1200  0.0272
32886SOL    HW2 8589   4.083   0.630   3.913  0.4293 -0.5666 -0.5858
32887SOL     OW 8590  11.701   8.243   3.672  0.0143  0.2030  0.0368
32887SOL    HW1 8591  11.655   8.285   3.745 -1.1981 -1.7498  0.4615
32887SOL    HW2 8592  11.778   8.202   3.712  0.6128  1.0483 -0.2053
32888SOL     OW 8593   2.307  10.865   1.893 -0.3518  0.5103  0.7372
32888SOL    HW1 8594   2.340  10.869   1.983  1.9371  0.7712 -0.0545
32888SOL    HW2 8595   2.215  10.837   1.903  0.2289 -0.9082  3.0569
32889SOL     OW 8596   3.220  11.179   4.676 -0.1818  0.1488  0.3012
32889SOL    HW1 8597   3.175  11.144   4.599 -0.5101 -0.4382  0.7463
32889SOL    HW2 8598   3.290  11.116   4.693  1.3296  1.4429 -0.8303
32890SOL     OW 8599   6.118  12.968   5.619  0.7103  0.1219 -0.0316
32890SOL    HW1 8600   6.168  12.959   5.700  0.6027  1.3575  0.1862
32890SOL    HW2 8601   6.184  12.971   5.550  0.7976 -1.0678 -0.0225
32891SOL     OW 8602   7.634   3.997   3.374 -0.6174 -0.2866  0.1074
32891SOL    HW1 8603   7.563   4.054   3.404  0.9967  1.4529  0.8150
32891SOL    HW2 8604   7.700   4.002   3.444  1.4578  0.5319 -1.7969
32892SOL     OW 8605  10.506   7.459   8.022  0.3216  0.5396 -0.1016
32892SOL    HW1 8606  10.452   7.504   7.958 -0.8380 -0.1779  0.3459
32892SOL    HW2 8607  10.444   7.418   8.082  1.3564 -0.6066  0.2261
32893SOL     OW 8608   1.212   6.567   0.682 -0.3029  0.2928  0.0500
32893SOL    HW1 8609   1.161   6.490   0.710 -1.2779  0.2752 -1.6906
32893SOL    HW2 8610   1.303   6.540   0.694 -0.6435 -0.8450  0.2100
32894SOL     OW 8611   4.982  12.369   2.552 -0.1534  0.4002  0.1757
32894SOL    HW1 8612   5.004  12.317   2.629 -1.1546  1.4028  1.1805
32894SOL    HW2 8613   4.988  12.460   2.582 -3.0998  0.8003 -0.1496
32895SOL     OW 8614   9.075   0.981  12.922  0.4353  0.0492  0.4407
32895SOL    HW1 8615   9.159   1.016  12.952  0.5514  0.2661 -0.1199
32895SOL    HW2 8616   9.098   0.903  12.872  0.7309  2.1466 -3.0911
32896SOL     OW 8617   3.726   8.544   5.322 -0.0588  0.2759 -0.1347
32896SOL    HW1 8618   3.761   8.602   5.255 -0.8494 -1.4498 -2.1377
32896SOL    HW2 8619   3.729   8.596   5.403  3.3672  1.5529 -0.9151
32897SOL     OW 8620   9.915   0.554  12.258 -0.0053 -0.3345 -0.3176
32897SOL    HW1 8621   9.887   0.646  12.260  0.4547 -0.1990  0.7901
32897SOL    HW2 8622   9.951   0.539  12.345  0.0908 -1.5241 -0.5565
32898SOL     OW 8623  11.122   8.742   8.250  0.1559 -0.4281  0.2668
32898SOL    HW1 8624  11.192   8.686   8.216  0.5878 -1.4109  2.5764
32898SOL    HW2 8625  11.041   8.695   8.228  0.2295  0.1634 -1.4390
32899SOL     OW 8626   7.317  11.602   5.782 -0.2432  0.4563  0.0914
32899SOL    HW1 8627   7.351  11.690   5.796 -1.1386  0.6936  0.8881
32899SOL    HW2 8628   7.231  11.602   5.825 -1.6049  0.1121 -2.4213
32900SOL     OW 8629   2.316   3.837   6.399 -0.5516 -0.0325  0.0667
32900SOL    HW1 8630   2.383   3.832   6.468 -0.8269 -1.0188  0.2757
32900SOL    HW2 8631   2.320   3.752   6.356 -1.2733  0.1163 -0.3027
32901SOL     OW 8632   5.205   8.922   3.808  0.9259  0.0505 -0.4918
32901SOL    HW1 8633   5.158   8.956   3.732 -2.0052  2.7847  2.2460
32901SOL    HW2 8634   5.150   8.849   3.839  1.0495  0.1988  0.0813
32902SOL     OW 8635   3.629   9.221   0.357 -0.7823 -0.3797 -0.0008
32902SOL    HW1 8636   3.549   9.272   0.346 -0.7365 -0.2167  0.4006
32902SOL    HW2 8637   3.602   9.130   0.346 -0.8257 -0.2664 -0.9514
32903SOL     OW 8638   7.075  12.926   9.541 -0.3415  0.1519  0.5020
32903SOL    HW1 8639   7.141  12.926   9.610  0.8805  1.4035 -0.6025
32903SOL    HW2 8640   7.094  12.847   9.490 -1.3337 -0.8511  1.6091
32904SOL     OW 8641   9.754  11.269   7.369 -0.2838  0.4369  0.4433
32904SOL    HW1 8642   9.728  11.346   7.317 -0.2491 -0.4003 -0.8558
32904SOL    HW2 8643   9.827  11.301   7.423 -0.1913  1.2967 -0.1596
32905SOL     OW 8644  11.397   8.722   8.751  0.0138 -0.4054 -0.0918
32905SOL    HW1 8645  11.481   8.677   8.750  0.3909  0.2714 -1.3009
32905SOL    HW2 8646  11.416   8.808   8.789 -0.6791 -1.1593  2.1004
32906SOL     OW 8647   4.517   7.596  12.963  0.2838  0.0758 -0.1080
32906SOL    HW1 8648   4.606   7.592  12.998 -0.0453 -0.5031  0.6986
32906SOL    HW2 8649   4.461   7.578  13.039 -0.5274  0.5882 -0.5759
32907SOL     OW 8650   7.520   8.613   5.181  0.6736 -0.0984  0.4919
32907SOL    HW1 8651   7.431   8.645   5.165  0.3700 -0.9592  0.4186
32907SOL    HW2 8652   7.520   8.524   5.146  1.6621  0.0060  0.1989
32908SOL     OW 8653   4.905   3.110   9.404  0.1578  0.2087 -0.4258
32908SOL    HW1 8654   4.942   3.189   9.444 -0.5886  0.3562 -0.0056
32908SOL    HW2 8655   4.825   3.141   9.362  1.6146  0.3552 -3.3308
32909SOL     OW 8656   2.595   9.019   5.980  0.4033 -0.1608 -0.6068
32909SOL    HW1 8657   2.550   8.983   5.903  0.8624  1.5850 -1.7422
32909SOL    HW2 8658   2.608   8.943   6.037 -4.0947 -0.8311 -0.0669
32910SOL     OW 8659   6.775   1.220   3.628  0.6725 -0.3139 -0.2862
32910SOL    HW1 8660   6.736   1.171   3.556 -1.0695  0.4803  0.0598
32910SOL    HW2 8661   6.700   1.262   3.672  1.8761  0.8461  0.7561
32911SOL     OW 8662  11.159   8.782  12.821 -0.1038 -0.1052  0.1727
32911SOL    HW1 8663  11.189   8.698  12.787 -0.6217 -0.3527  0.3185
32911SOL    HW2 8664  11.234   8.840  12.813  0.3581 -0.6715  0.3826
32912SOL     OW 8665  11.380   0.843  13.047 -0.5169 -0.0124 -0.1535
32912SOL    HW1 8666  11.470   0.851  13.015 -0.1018 -2.7099  0.1468
32912SOL    HW2 8667  11.383   0.880  13.135 -0.6535  3.3428 -1.4037
32913SOL     OW 8668  10.560   6.085  13.229  0.2868  0.0792 -0.0757
32913SOL    HW1 8669  10.511   6.011  13.194  1.6681 -2.0538  2.1484
32913SOL    HW2 8670  10.498   6.131  13.286 -0.3022  0.0598 -0.6890
32914SOL     OW 8671   6.260   5.581  13.305 -0.0585  0.1902  0.4573
32914SOL    HW1 8672   6.268   5.537  13.389  0.1986  0.7028  0.7121
32914SOL    HW2 8673   6.339   5.636  13.299 -0.7970  1.3106  0.5787
32915SOL     OW 8674   0.823   7.694   0.840 -0.0791 -0.2647 -0.3087
32915SOL    HW1 8675   0.874   7.766   0.805  0.3179 -0.8351 -0.9148
32915SOL    HW2 8676   0.870   7.666   0.919 -0.5279  0.4791  0.2379
32916SOL     OW 8677  11.039   4.110  11.038  0.8506 -0.0143 -0.0453
32916SOL    HW1 8678  11.090   4.037  11.004 -0.4114  0.1722 -2.5489
32916SOL    HW2 8679  11.101   4.183  11.042  1.6934 -0.7427  0.8328
32917SOL     OW 8680   2.901  12.663   0.656 -0.3241  0.1503 -0.0732
32917SOL    HW1 8681   2.953  12.735   0.692 -0.8498  0.3358  0.3437
32917SOL    HW2 8682   2.849  12.703   0.587 -0.3205  0.0878 -0.1116
32918SOL     OW 8683   4.625   8.734   4.878  0.3019 -0.5781  0.1818
32918SOL    HW1 8684   4.535   8.725   4.910 -0.2592 -2.2436 -1.6282
32918SOL    HW2 8685   4.676   8.759   4.954 -1.6619  0.2001  1.3095
32919SOL     OW 8686  10.178  12.809   2.723 -0.1054 -0.1758  0.2404
32919SOL    HW1 8687  10.256  12.760   2.749  0.3020  1.8507  3.4509
32919SOL    HW2 8688  10.106  12.747   2.735  0.6002 -0.7525  1.8400
32920SOL     OW 8689  13.073   5.615   6.069 -0.1996 -0.2637 -0.4108
32920SOL    HW1 8690  13.092   5.654   6.155 -0.7492  0.4582 -0.6042
32920SOL    HW2 8691  13.130   5.538   6.064  0.7577  0.3984  0.0780
32921SOL     OW 8692   3.248   5.690   4.851  0.2082  0.0451 -0.4316
32921SOL    HW1 8693   3.207   5.776   4.850 -1.3736 -0.6101  1.5870
32921SOL    HW2 8694   3.308   5.693   4.926  1.2251 -0.1837 -1.2088
32922SOL     OW 8695   1.995   9.191  11.095 -0.1435  0.0467  0.0172
32922SOL    HW1 8696   1.961   9.216  11.009  1.7041  1.3608 -0.3857
32922SOL    HW2 8697   2.029   9.273  11.131 -1.2406 -0.3937  2.2093
32923SOL     OW 8698  11.511   1.432   4.950  0.2146  0.6664 -0.5662
32923SOL    HW1 8699  11.472   1.519   4.945  1.2539  1.0685 -2.3423
32923SOL    HW2 8700  11.595   1.445   4.994 -0.1477  0.3292  0.2638
32924SOL     OW 8701  11.632   6.647   2.144  0.5676 -0.0744  0.4823
32924SOL    HW1 8702  11.716   6.689   2.131  0.7440 -0.7132 -0.6157
32924SOL    HW2 8703  11.578   6.678   2.071 -0.1045  0.2268  1.1019
32925SOL     OW 8704   6.718  12.287   3.783  0.0528 -0.3343  0.6469
32925SOL    HW1 8705   6.662  12.340   3.840 -2.2266 -0.6994 -1.0504
32925SOL    HW2 8706   6.768  12.351   3.732  0.3727  0.0544  1.4466
32926SOL     OW 8707   5.208   1.031  10.292  0.3574  0.2984  0.2022
32926SOL    HW1 8708   5.159   1.113  10.280  2.0909  1.1073 -2.1922
32926SOL    HW2 8709   5.293   1.060  10.327  0.8036 -0.5129 -0.1917
32927SOL     OW 8710  12.539   1.176   6.415  0.7087 -0.5357 -0.1347
32927SOL    HW1 8711  12.623   1.201   6.376  1.6929 -0.5434  1.8094
32927SOL    HW2 8712  12.504   1.258   6.450  0.5654 -0.7341  0.1976
32928SOL     OW 8713   8.865  10.147  13.066 -0.4765  0.7455  0.6204
32928SOL    HW1 8714   8.821  10.204  13.003  0.2865  1.0459  0.3568
32928SOL    HW2 8715   8.936  10.200  13.102  0.7514 -0.2940 -0.2252
32929SOL     OW 8716  12.849   5.992   4.037 -0.0888  0.0543 -0.5078
32929SOL    HW1 8717  12.848   5.934   3.961  0.5004 -1.2719  0.4737
32929SOL    HW2 8718  12.800   5.945   4.104  1.5807  0.0385  0.7495
32930SOL     OW 8719   4.109  10.284   3.261 -0.3771 -0.4597 -0.4464
32930SOL    HW1 8720   4.090  10.365   3.214  2.4692  1.1943  0.9862
32930SOL    HW2 8721   4.070  10.297   3.348  1.9526  0.4614  0.5423
32931SOL     OW 8722   5.649   4.972   1.009 -0.3998  0.2272  0.2897
32931SOL    HW1 8723   5.600   5.044   0.969 -0.6223  0.0953  0.3275
32931SOL    HW2 8724   5.585   4.902   1.020  0.1236 -0.5111 -1.0836
32932SOL     OW 8725   0.414   5.672   9.721  0.5676  0.4311  0.3821
32932SOL    HW1 8726   0.417   5.608   9.792 -0.6340  0.2400  0.2832
32932SOL    HW2 8727   0.504   5.706   9.715  0.7994  0.0786  1.6372
32933SOL     OW 8728   1.659  12.394   9.639 -0.1390 -0.6453  0.1593
32933SOL    HW1 8729   1.680  12.313   9.592  1.5028 -0.7525  1.0184
32933SOL    HW2 8730   1.692  12.464   9.583 -0.9014 -0.5933 -0.2387
32934SOL     OW 8731   9.084   3.263   1.357  0.4927  0.1201 -0.4560
32934SOL    HW1 8732   9.137   3.204   1.411 -0.9882 -0.4288  0.4569
32934SOL    HW2 8733   9.007   3.282   1.411  0.0013  1.3076 -1.5353
32935SOL     OW 8734   4.021  11.646  11.278  0.3492 -0.6997 -0.7690
32935SOL    HW1 8735   3.966  11.725  11.279  2.3260  0.7489  0.1215
32935SOL    HW2 8736   3.962  11.575  11.303 -1.6014  0.3891 -1.9882
32936SOL     OW 8737   1.138   8.756   8.613 -0.0512 -0.3343 -0.2185
32936SOL    HW1 8738   1.200   8.777   8.683  0.3174  0.2584 -0.7183
32936SOL    HW2 8739   1.123   8.662   8.623  1.6504 -0.6863 -0.6527
32937SOL     OW 8740   6.425   6.605   7.204 -0.3852 -0.0164  0.2019
32937SOL    HW1 8741   6.496   6.665   7.223 -0.3473 -0.2074  0.6691
32937SOL    HW2 8742   6.379   6.593   7.287 -0.3111 -0.7342  0.1521
32938SOL     OW 8743   7.897   4.154   2.472  0.0212 -0.0003 -0.2591
32938SOL    HW1 8744   7.814   4.158   2.424 -0.3033 -1.6758  0.1131
32938SOL    HW2 8745   7.877   4.191   2.558  0.2027  1.5165 -0.8425
32939SOL     OW 8746   1.051  10.427  11.300 -0.3223 -0.5310  0.3899
32939SOL    HW1 8747   1.026  10.361  11.235  0.2530  0.1153 -0.5100
32939SOL    HW2 8748   1.141  10.405  11.324 -0.8952 -1.4337  1.8391
32940SOL     OW 8749   8.095   7.823   2.303  0.1274  0.4570 -0.2062
32940SOL    HW1 8750   8.075   7.904   2.349  2.7864 -0.6133  3.1921
32940SOL    HW2 8751   8.046   7.755   2.349 -1.5635 -0.1162 -2.6084
32941SOL     OW 8752   1.506  11.814  13.218 -0.3956 -0.1366  0.0578
32941SOL    HW1 8753   1.452  11.769  13.283 -3.3309 -0.3291 -2.3279
32941SOL    HW2 8754   1.517  11.751  13.147 -0.1389  1.1490 -1.1005
32942SOL     OW 8755  12.602   1.294   2.959 -0.1485 -0.0887 -0.2379
32942SOL    HW1 8756  12.591   1.388   2.969 -0.5762 -0.1843  0.2333
32942SOL    HW2 8757  12.537   1.255   3.019  0.3968 -0.6767 -0.0151
32943SOL     OW 8758   6.872  13.006  10.638  0.6048 -0.0419  0.0923
32943SOL    HW1 8759   6.874  13.087  10.688  3.2902 -1.5940  2.9038
32943SOL    HW2 8760   6.789  12.964  10.662  0.1745  0.9198  0.3058
32944SOL     OW 8761   2.604   4.251  12.990 -0.0334  0.3215  0.4223
32944SOL    HW1 8762   2.694   4.269  13.017  0.2972 -1.6567  0.8014
32944SOL    HW2 8763   2.609   4.167  12.944 -1.5999  0.4667 -0.0736
32945SOL     OW 8764  11.370   8.264   7.983 -0.0155  0.2006  0.3036
32945SOL    HW1 8765  11.432   8.207   7.937 -0.6854 -1.6282  1.5854
32945SOL    HW2 8766  11.298   8.207   8.008 -0.9588  1.7279  1.2418
32946SOL     OW 8767  12.266  12.579  13.038  0.2669 -0.4859  0.3720
32946SOL    HW1 8768  12.284  12.485  13.027  3.1306 -0.0443  0.4905
32946SOL    HW2 8769  12.259  12.592  13.132 -0.5228 -0.6171  0.3384
32947SOL     OW 8770   6.201  11.538   3.675  0.1596 -0.1406  0.2320
32947SOL    HW1 8771   6.146  11.538   3.596 -0.2316 -0.7491  0.4973
32947SOL    HW2 8772   6.270  11.601   3.656 -1.3360  1.6463  0.3797
32948SOL     OW 8773   1.324   7.547   4.540 -0.0488 -0.0593 -0.2623
32948SOL    HW1 8774   1.306   7.463   4.497 -0.6359  0.3920 -0.9189
32948SOL    HW2 8775   1.279   7.611   4.486 -0.2760  0.5962  0.6909
32949SOL     OW 8776   1.283   8.504   9.707 -0.3156  0.2469  0.5365
32949SOL    HW1 8777   1.347   8.503   9.636 -2.3647  0.1678 -1.4011
32949SOL    HW2 8778   1.222   8.574   9.684 -1.5433 -0.3722  1.7385
32950SOL     OW 8779   6.887   0.410   9.221 -0.2479  0.2494  0.0570
32950SOL    HW1 8780   6.957   0.450   9.274 -1.5860  1.4985  0.9795
32950SOL    HW2 8781   6.895   0.453   9.136 -0.2403  0.8372  0.3420
32951SOL     OW 8782   9.599   6.906   6.339  0.0105 -0.4200 -0.5124
32951SOL    HW1 8783   9.533   6.887   6.406  0.6534 -2.9333 -0.4893
32951SOL    HW2 8784   9.571   6.990   6.302 -1.8574 -0.2477  1.0703
32952SOL     OW 8785   3.466   3.868   9.281 -0.1196  0.1346 -0.1344
32952SOL    HW1 8786   3.392   3.890   9.225  0.4236  1.3534 -0.4027
32952SOL    HW2 8787   3.491   3.951   9.322 -0.0171 -0.5852  1.3308
32953SOL     OW 8788  11.803  11.744   1.525  0.3566 -0.3109 -0.1007
32953SOL    HW1 8789  11.877  11.685   1.533  1.0827  0.5578 -0.2885
32953SOL    HW2 8790  11.822  11.797   1.448 -0.8423 -0.5911 -0.6224
32954SOL     OW 8791   2.982  12.733   2.111 -0.0984 -0.3224  0.0646
32954SOL    HW1 8792   2.963  12.639   2.104  0.0502 -0.4449  1.1529
32954SOL    HW2 8793   2.988  12.749   2.205 -1.7661  1.1154 -0.0313
32955SOL     OW 8794  10.101   7.403   9.069  0.0861 -0.3071  0.2520
32955SOL    HW1 8795  10.012   7.378   9.047  0.5211 -0.0701 -2.0750
32955SOL    HW2 8796  10.156   7.340   9.022  1.1304  0.4864  0.3609
32956SOL     OW 8797   0.306   8.402   1.979  0.4902  0.0128  0.3892
32956SOL    HW1 8798   0.253   8.362   1.910 -0.0652  0.9687  0.2473
32956SOL    HW2 8799   0.308   8.336   2.049 -3.1951  0.9026  1.5681
32957SOL     OW 8800  10.803  12.091   5.267  0.5282 -0.2794 -0.3672
32957SOL    HW1 8801  10.709  12.077   5.258  0.5128  0.7153 -2.2641
32957SOL    HW2 8802  10.818  12.177   5.226  2.0637  0.2392  1.1719
32958SOL     OW 8803   5.413  11.560   9.934  0.1759  0.0579  0.1491
32958SOL    HW1 8804   5.494  11.531   9.975 -1.1401 -2.3157  1.2496
32958SOL    HW2 8805   5.374  11.619   9.998  0.0389 -0.4770  0.5675
32959SOL     OW 8806   9.948  13.070   0.595  0.7074 -0.6228 -0.2454
32959SOL    HW1 8807   9.854  13.083   0.577  0.9094 -0.1838 -1.0224
32959SOL    HW2 8808   9.952  13.059   0.690  0.0168  0.8159 -0.0193
32960SOL     OW 8809   5.666   8.116   7.970 -0.5059 -0.1626  0.7561
32960SOL    HW1 8810   5.624   8.197   7.939  0.0549 -0.9676 -2.5572
32960SOL    HW2 8811   5.752   8.144   8.000 -0.2456  0.5258 -0.5292
32961SOL     OW 8812   1.921   2.288  10.756 -0.2759  0.1173  0.3498
32961SOL    HW1 8813   1.890   2.267  10.844 -0.3080 -0.2020  0.2647
32961SOL    HW2 8814   1.858   2.245  10.698  1.8558 -3.0850  0.1185
32962SOL     OW 8815   2.851   3.623   3.429  0.4267  0.1171 -0.1912
32962SOL    HW1 8816   2.909   3.607   3.354  0.4978 -2.1640  0.2577
32962SOL    HW2 8817   2.765   3.637   3.391  0.3563 -1.5625 -0.7433
32963SOL     OW 8818   3.389   7.617   6.644 -0.7847 -0.0835  0.0241
32963SOL    HW1 8819   3.450   7.607   6.571  0.2007  0.9719  0.6676
32963SOL    HW2 8820   3.413   7.548   6.705  0.1687  0.6501  0.5169
32964SOL     OW 8821   8.536  12.554   0.235  0.6246  0.3276 -0.3276
32964SOL    HW1 8822   8.472  12.620   0.206 -0.6391 -0.8340 -0.2796
32964SOL    HW2 8823   8.603  12.605   0.280  1.2376  1.8841 -2.8251
32965SOL     OW 8824  11.527   7.668   5.695  0.2821  0.5616  0.2205
32965SOL    HW1 8825  11.513   7.759   5.668  1.0781  0.4184 -0.7496
32965SOL    HW2 8826  11.556   7.673   5.786 -1.3957  1.1465  0.7581
32966SOL     OW 8827   5.493   4.685   0.487  0.3627 -0.4139  0.2953
32966SOL    HW1 8828   5.586   4.686   0.461  0.2671 -1.0018 -0.1097
32966SOL    HW2 8829   5.453   4.621   0.427 -0.5278  0.6419 -0.2697
32967SOL     OW 8830   4.392   7.890   1.182  0.0417 -0.3947  0.4566
32967SOL    HW1 8831   4.329   7.870   1.250 -1.0040  1.3285  0.0686
32967SOL    HW2 8832   4.386   7.985   1.171  3.8751  0.1473  1.5296
32968SOL     OW 8833   2.833   7.925   1.956  0.0371 -0.1713 -0.1093
32968SOL    HW1 8834   2.765   7.878   2.004  1.3452 -1.1744  0.8323
32968SOL    HW2 8835   2.902   7.861   1.941 -0.0259  0.2839 -2.8328
32969SOL     OW 8836  11.529   2.733   9.643  0.3020  0.1956  0.2098
32969SOL    HW1 8837  11.459   2.726   9.579 -0.6390 -0.6063  1.2804
32969SOL    HW2 8838  11.568   2.645   9.646 -0.0781  0.0441  1.1688
32970SOL     OW 8839   6.155   6.940   0.960  0.4063 -0.3573  0.3917
32970SOL    HW1 8840   6.098   6.916   0.887  2.5616 -1.8752 -0.9273
32970SOL    HW2 8841   6.155   6.862   1.016  0.3769  0.0302  0.9346
32971SOL     OW 8842   7.639   1.534  10.463  0.0001  0.6554 -0.4345
32971SOL    HW1 8843   7.643   1.441  10.442 -1.7767  0.7863 -1.5489
32971SOL    HW2 8844   7.722   1.570  10.432 -0.3519 -0.1324 -2.4239
32972SOL     OW 8845   5.636   8.418  11.804 -0.1804  0.2495  0.1360
32972SOL    HW1 8846   5.628   8.458  11.718  1.5589  0.3024 -0.0384
32972SOL    HW2 8847   5.553   8.373  11.818 -0.7221  0.7630 -1.2932
32973SOL     OW 8848   3.789   4.525  10.482 -0.2100 -0.0052  0.7069
32973SOL    HW1 8849   3.793   4.550  10.575 -1.5362 -2.3730  1.5092
32973SOL    HW2 8850   3.717   4.462  10.478 -2.3062  2.3284 -2.5725
32974SOL     OW 8851   9.538   9.694   6.201 -0.0646  0.3609  0.7606
32974SOL    HW1 8852   9.536   9.757   6.128 -1.1818  0.5759  0.9463
32974SOL    HW2 8853   9.572   9.614   6.163 -2.0904 -0.0151 -0.4421
32975SOL     OW 8854   2.698  12.318   8.666  0.2632  0.0980 -0.6321
32975SOL    HW1 8855   2.744  12.286   8.589  0.4693 -0.0598 -0.4433
32975SOL    HW2 8856   2.753  12.292   8.740  0.1426  0.3785 -0.4413
32976SOL     OW 8857   1.405  10.441   5.035 -0.4507 -0.3705 -0.0148
32976SOL    HW1 8858   1.382  10.395   4.954 -1.0376  0.6870 -0.4671
32976SOL    HW2 8859   1.424  10.371   5.097  0.0253 -1.2059 -1.0609
32977SOL     OW 8860   4.675  12.633  10.508 -1.0235  0.5402  0.3024
32977SOL    HW1 8861   4.686  12.639  10.603 -2.6264 -0.3231  0.5797
32977SOL    HW2 8862   4.583  12.656  10.493 -1.5108 -1.8166 -0.7455
32978SOL     OW 8863   1.608   8.497   5.354  0.0030  0.1885 -0.1366
32978SOL    HW1 8864   1.537   8.526   5.297  0.4293  0.7294 -0.4021
32978SOL    HW2 8865   1.685   8.493   5.297  0.5062  1.0385  0.4556
32979SOL     OW 8866  12.957   1.205   3.774  0.1010 -0.6332  0.0961
32979SOL    HW1 8867  12.970   1.172   3.685  1.3393  0.9889 -0.3659
32979SOL    HW2 8868  13.045   1.230   3.803 -0.6803  1.8918  0.5122
32980SOL     OW 8869   6.109   7.866  12.431  0.6802 -0.2402  0.1012
32980SOL    HW1 8870   6.102   7.961  12.429  0.6597 -0.2488 -0.5411
32980SOL    HW2 8871   6.180   7.846  12.369  0.0163 -0.6948 -0.5321
32981SOL     OW 8872   8.355   6.666   8.833 -0.3490  0.0069  0.5580
32981SOL    HW1 8873   8.312   6.751   8.834  1.5024  1.0204  2.0627
32981SOL    HW2 8874   8.284   6.602   8.842 -1.8464  1.3086 -1.4032
32982SOL     OW 8875   6.473   1.442  13.158 -0.7557 -0.4057  0.1177
32982SOL    HW1 8876   6.436   1.357  13.184 -0.4441 -0.6391 -0.1833
32982SOL    HW2 8877   6.486   1.434  13.064  2.1115 -1.1735  0.4594
32983SOL     OW 8878   7.060   0.846   8.859 -0.4961 -0.3621 -0.9621
32983SOL    HW1 8879   7.154   0.846   8.881 -0.9152  0.1680  1.0630
32983SOL    HW2 8880   7.057   0.828   8.765  1.6424 -0.2296 -1.1013
32984SOL     OW 8881   8.105   0.677   2.542 -0.3136  0.2282 -0.2551
32984SOL    HW1 8882   8.080   0.597   2.588  0.4356 -0.0749 -0.3549
32984SOL    HW2 8883   8.067   0.669   2.455  0.4012 -0.3947 -0.5271
32985SOL     OW 8884  13.288   4.912  12.783  0.1028  0.2511  0.0362
32985SOL    HW1 8885  13.226   4.952  12.722  1.7920 -0.1230 -2.0266
32985SOL    HW2 8886  13.273   4.818  12.775  0.2451  0.2028  0.3171
32986SOL     OW 8887   4.460   6.619   5.036 -0.0188 -0.5966 -0.2702
32986SOL    HW1 8888   4.427   6.676   4.967  1.4396  0.0821 -0.4427
32986SOL    HW2 8889   4.459   6.532   4.998 -2.8918 -0.8794  0.2111
32987SOL     OW 8890   5.933   3.950  11.190  0.2600  0.3520 -0.7113
32987SOL    HW1 8891   5.874   3.876  11.176  0.4574  0.4325 -2.0361
32987SOL    HW2 8892   5.875   4.024  11.209 -0.0908  0.4562 -2.1209
32988SOL     OW 8893   6.240   6.058  11.854  0.1520  0.1275 -0.0638
32988SOL    HW1 8894   6.182   5.994  11.814 -0.4677  0.2605  0.6033
32988SOL    HW2 8895   6.300   6.006  11.907  0.7964 -0.0258 -0.9189
32989SOL     OW 8896   0.318   2.594   5.493  0.1769 -0.2501 -0.4871
32989SOL    HW1 8897   0.268   2.554   5.563  2.1096 -0.3910  0.8896
32989SOL    HW2 8898   0.286   2.551   5.413 -2.4387  0.3072  0.1882
32990SOL     OW 8899  11.303   1.269  10.395 -0.1340  0.1881  0.1620
32990SOL    HW1 8900  11.308   1.258  10.490  1.5379 -0.8210 -0.0229
32990SOL    HW2 8901  11.315   1.363  10.381  2.0791  0.0439  0.8365
32991SOL     OW 8902   2.741  10.920  11.281 -0.2095  0.3244 -0.0033
32991SOL    HW1 8903   2.693  10.990  11.324 -1.0095  1.5898 -2.6964
32991SOL    HW2 8904   2.729  10.937  11.187  3.0694 -1.0382 -0.8058
32992SOL     OW 8905   5.984   0.910   5.377  0.3448 -0.1767  0.0210
32992SOL    HW1 8906   5.972   0.852   5.453 -0.1215 -0.2147 -0.0818
32992SOL    HW2 8907   6.075   0.896   5.351 -0.0073 -1.5491 -0.5615
32993SOL     OW 8908   4.906   9.874   1.243  0.3134 -0.1771  0.1824
32993SOL    HW1 8909   4.828   9.819   1.241  1.0241 -1.1982 -0.4938
32993SOL    HW2 8910   4.879   9.953   1.291 -1.0848 -0.5613  0.0677
32994SOL     OW 8911   3.218  10.232   5.793 -0.7418  0.2273 -0.1596
32994SOL    HW1 8912   3.296  10.200   5.839  0.2696  1.0495 -1.2366
32994SOL    HW2 8913   3.151  10.166   5.811  0.2973 -0.6758  0.5205
32995SOL     OW 8914  11.423   4.962   1.154 -0.2394  0.1415  0.1250
32995SOL    HW1 8915  11.380   4.882   1.186  0.5457 -0.1567  0.4726
32995SOL    HW2 8916  11.388   4.974   1.066 -0.8782 -0.1985  0.3244
32996SOL     OW 8917  11.797  10.617   9.442  0.5094  0.2994 -0.2818
32996SOL    HW1 8918  11.756  10.698   9.472 -2.0738  0.0449 -2.7507
32996SOL    HW2 8919  11.866  10.601   9.506 -0.2415  3.2885  1.4968
32997SOL     OW 8920   2.803  12.429   4.691 -0.5491  0.3109 -0.2563
32997SOL    HW1 8921   2.821  12.374   4.767  0.4038 -2.9215 -2.5611
32997SOL    HW2 8922   2.875  12.492   4.689 -0.1302 -0.1009  1.0779
32998SOL     OW 8923   9.154   0.708   2.366  0.3513  0.4898 -0.6112
32998SOL    HW1 8924   9.146   0.769   2.293  0.4067  0.0159 -1.0185
32998SOL    HW2 8925   9.077   0.652   2.360 -0.1419  1.0651  0.2768
32999SOL     OW 8926  10.899   6.476   0.718 -0.0328  0.3761  0.0730
32999SOL    HW1 8927  10.907   6.459   0.812 -0.0141  0.2103  0.0426
32999SOL    HW2 8928  10.832   6.544   0.711 -0.1082  0.3149  0.2005
33000SOL     OW 8929   6.515   4.611  10.205 -0.2640 -0.4788  0.1484
33000SOL    HW1 8930   6.485   4.599  10.115  1.7138 -0.0728 -0.6188
33000SOL    HW2 8931   6.583   4.545  10.217 -2.1621 -2.2136  2.2418
33001SOL     OW 8932  13.312   4.850   0.040 -0.4113 -0.0550 -0.3345
33001SOL    HW1 8933  13.227   4.825   0.003 -1.0029  1.6153 -0.1557
33001SOL    HW2 8934  13.329   4.937   0.005  0.0298  0.6853  1.6362
33002SOL     OW 8935   1.922   4.977  11.181 -0.6618 -0.8922 -0.4513
33002SOL    HW1 8936   1.844   5.028  11.204 -0.2506 -0.1224 -0.7123
33002SOL    HW2 8937   1.994   5.040  11.187 -0.0853 -1.5459 -0.4033
33003SOL     OW 8938  11.227  10.251  11.785  0.2767  0.4485  0.0236
33003SOL    HW1 8939  11.166  10.176  11.785  2.3874 -1.3884  1.1169
33003SOL    HW2 8940  11.177  10.322  11.744 -2.8088 -0.7213  1.4130
33004SOL     OW 8941  11.202  12.231   7.333 -0.0963 -0.3991 -0.6093
33004SOL    HW1 8942  11.142  12.281   7.388  0.6142  0.1797 -0.3328
33004SOL    HW2 8943  11.146  12.181   7.274 -0.8427 -0.0739 -0.1838
33005SOL     OW 8944   8.345   9.905   4.264  0.1985 -0.3092  0.6261
33005SOL    HW1 8945   8.350   9.910   4.168  1.4477 -0.9208  0.6385
33005SOL    HW2 8946   8.259   9.941   4.285  0.3115  0.8110 -0.6469
33006SOL     OW 8947   4.447   4.667  13.185  0.2307  0.5092 -0.5681
33006SOL    HW1 8948   4.365   4.712  13.207  0.3798  1.0361 -1.0767
33006SOL    HW2 8949   4.515   4.731  13.201  0.6521 -0.2296  0.7752
33007SOL     OW 8950   6.204  12.366   4.956 -0.4327  0.3181  0.2115
33007SOL    HW1 8951   6.208  12.271   4.961 -1.2927  0.2933  0.5723
33007SOL    HW2 8952   6.264  12.396   5.025 -0.4337  0.0363  0.3373
33008SOL     OW 8953   0.846   6.413   9.241 -0.3646  0.2680 -0.0520
33008SOL    HW1 8954   0.781   6.483   9.244 -0.3214  0.2985  0.1349
33008SOL    HW2 8955   0.904   6.438   9.169  0.6635  1.3040  1.1031
33009SOL     OW 8956   2.656   0.036   1.936  0.6956  0.1938  0.1544
33009SOL    HW1 8957   2.704   0.086   1.870  0.3624  0.1972 -0.0941
33009SOL    HW2 8958   2.564   0.042   1.908  0.5844 -0.0527  0.4555
33010SOL     OW 8959   5.846   7.451  12.391  0.1549  0.2766 -0.0651
33010SOL    HW1 8960   5.870   7.373  12.340 -0.2098 -0.1264  0.3828
33010SOL    HW2 8961   5.914   7.515  12.368 -0.1733  0.2126 -1.3060
33011SOL     OW 8962   5.810   9.151   9.021  0.2251  0.3403 -0.1228
33011SOL    HW1 8963   5.735   9.097   9.042  0.1614 -0.0197 -1.2231
33011SOL    HW2 8964   5.820   9.143   8.926  0.0729  2.4182 -0.3662
33012SOL     OW 8965   1.115  11.718  12.397 -0.2105  0.4096  0.3723
33012SOL    HW1 8966   1.039  11.769  12.425 -0.1725  0.7112 -0.0777
33012SOL    HW2 8967   1.100  11.701  12.304 -0.5785 -1.0102  0.6545
33013SOL     OW 8968   0.762   5.389   2.442  0.3087 -0.0136 -0.3079
33013SOL    HW1 8969   0.720   5.334   2.376 -2.0278  1.2731 -0.0010
33013SOL    HW2 8970   0.855   5.385   2.421 -0.0790 -1.8066 -1.9872
33014SOL     OW 8971   3.218  10.899  12.935  0.2538 -0.2765  0.6565
33014SOL    HW1 8972   3.266  10.899  12.853  1.6007 -2.0001  1.3675
33014SOL    HW2 8973   3.281  10.864  12.999 -0.7573  0.9723  2.4130
33015SOL     OW 8974   6.379   1.365  12.891 -0.0683  0.0512 -0.8068
33015SOL    HW1 8975   6.404   1.293  12.949  1.0190  0.7100 -0.4205
33015SOL    HW2 8976   6.285   1.355  12.879 -0.1082 -0.8110  0.0911
33016SOL     OW 8977   1.176   8.151   3.220  0.0009 -0.0891 -0.3852
33016SOL    HW1 8978   1.087   8.185   3.214 -1.1424 -2.4347  1.5124
33016SOL    HW2 8979   1.198   8.126   3.130 -1.8066 -0.7328 -0.6929
33017SOL     OW 8980  11.698  10.558   1.688  0.3352 -0.0287  0.1504
33017SOL    HW1 8981  11.618  10.538   1.639  0.6519  1.0973 -0.8661
33017SOL    HW2 8982  11.677  10.636   1.739  1.0247  0.7970 -0.7884
33018SOL     OW 8983   1.153   2.743   2.110 -0.7585 -0.7509  0.5138
33018SOL    HW1 8984   1.151   2.647   2.120  1.7766 -0.7406  2.1418
33018SOL    HW2 8985   1.223   2.758   2.046 -1.6303  0.0317 -0.2780
33019SOL     OW 8986   3.178   0.694   8.814 -0.4902  0.0624  0.0462
33019SOL    HW1 8987   3.247   0.712   8.749 -1.1905  1.8305 -0.2456
33019SOL    HW2 8988   3.097   0.696   8.763 -0.8921 -0.5176  0.6552
33020SOL     OW 8989   7.341  10.708   7.119 -0.1390 -0.3468 -0.6068
33020SOL    HW1 8990   7.414  10.769   7.127  0.3680 -0.9363 -0.6847
33020SOL    HW2 8991   7.312  10.692   7.208  0.0865 -0.4150 -0.5446
33021SOL     OW 8992   5.210   2.397  11.058 -0.6713  0.3402 -0.0387
33021SOL    HW1 8993   5.127   2.388  11.011 -0.8322 -0.7954  0.4150
33021SOL    HW2 8994   5.225   2.491  11.062 -3.6022  0.8643  2.6904
33022SOL     OW 8995   1.448   5.913   2.200 -0.2306  0.0948  0.2083
33022SOL    HW1 8996   1.409   5.850   2.261  1.0184 -0.1674  0.7701
33022SOL    HW2 8997   1.494   5.859   2.136 -0.9188  0.3912 -0.5448
33023SOL     OW 8998   3.807  13.300   9.659 -0.0527  0.0861  0.1306
33023SOL    HW1 8999   3.821  13.357   9.734  0.6204 -1.3797  1.1824
33023SOL    HW2 9000   3.860  13.222   9.678  0.7153 -0.0504 -2.1950
33024SOL     OW 9001   1.318   8.011  12.539 -0.2723  0.4525  0.2252
33024SOL    HW1 9002   1.263   8.024  12.462 -2.3825 -1.5234  1.2968
33024SOL    HW2 9003   1.373   7.936  12.518 -1.0939 -0.3073  0.7331
33025SOL     OW 9004   4.489   4.312   5.473 -0.1290 -0.3377 -0.0964
33025SOL    HW1 9005   4.569   4.268   5.445 -0.7764 -0.1039 -2.5381
33025SOL    HW2 9006   4.420   4.273   5.419 -1.3795  0.6945  0.7044
33026SOL     OW 9007   7.893  13.238   0.616 -0.3625 -0.1183 -0.1360
33026SOL    HW1 9008   7.896  13.333   0.622 -0.5785 -0.1803  1.7851
33026SOL    HW2 9009   7.882  13.219   0.523  0.5867  1.6965 -0.6530
33027SOL     OW 9010   7.915   5.779   0.273  0.6003  0.2608  0.5005
33027SOL    HW1 9011   7.964   5.840   0.329  0.3049  2.6819 -1.6691
33027SOL    HW2 9012   7.972   5.702   0.267  1.1117  0.3365  3.1772
33028SOL     OW 9013  10.451  10.518   7.871  0.2506  0.0857  0.2595
33028SOL    HW1 9014  10.522  10.581   7.864 -0.8273  1.2868 -0.3168
33028SOL    HW2 9015  10.460  10.481   7.959  1.2944  0.5480  0.3591
33029SOL     OW 9016   3.480   1.171  12.942  0.0122  0.0661  0.2340
33029SOL    HW1 9017   3.561   1.216  12.968 -0.1826  0.1690  0.6620
33029SOL    HW2 9018   3.485   1.086  12.985 -0.5343  0.4160  1.0032
33030SOL     OW 9019   9.768  12.097   0.319  0.3681 -0.4757 -0.1708
33030SOL    HW1 9020   9.808  12.150   0.250  0.7298 -0.4748  0.0341
33030SOL    HW2 9021   9.744  12.160   0.387 -0.9540 -0.3454 -0.7307
33031SOL     OW 9022   5.168   4.851  12.858 -0.6369 -0.1152 -0.2098
33031SOL    HW1 9023   5.178   4.913  12.786 -1.1403 -2.6853 -2.6668
33031SOL    HW2 9024   5.257   4.817  12.873 -0.6240  0.0306  0.0696
33032SOL     OW 9025   6.051  12.212   3.397  0.9972  0.2659 -0.2080
33032SOL    HW1 9026   6.075  12.305   3.401  0.8328  0.3191 -0.4839
33032SOL    HW2 9027   6.012  12.200   3.311  0.9637 -0.0483 -0.1523
33033SOL     OW 9028   6.489  13.142   6.786  0.3197  0.2945  0.6059
33033SOL    HW1 9029   6.483  13.215   6.724 -2.7139  0.1665  0.5652
33033SOL    HW2 9030   6.408  13.093   6.771  1.0698 -1.6168  2.4316
33034SOL     OW 9031  10.536  12.383  10.189  0.4264 -0.5133  0.1266
33034SOL    HW1 9032  10.496  12.449  10.247  0.1354 -0.1697 -0.4584
33034SOL    HW2 9033  10.495  12.301  10.216 -1.4552 -0.0363 -1.1070
33035SOL     OW 9034   2.850   6.263   9.349 -0.2995  0.2441 -0.5935
33035SOL    HW1 9035   2.837   6.266   9.254 -0.2105  0.3113 -0.6044
33035SOL    HW2 9036   2.844   6.355   9.376 -1.1453  0.1487 -0.4228
33036SOL     OW 9037   4.671  11.090   7.783  0.4628 -0.1716 -0.1987
33036SOL    HW1 9038   4.702  11.060   7.697  0.0082  0.9191 -0.7683
33036SOL    HW2 9039   4.729  11.163   7.805 -0.2845  0.4447 -0.2336
33037SOL     OW 9040   6.307   9.641   5.935 -0.3163  0.3909  0.1789
33037SOL    HW1 9041   6.236   9.585   5.967 -1.4368  1.4143 -0.4362
33037SOL    HW2 9042   6.264   9.723   5.911  0.8934  0.6413 -1.2813
33038SOL     OW 9043  12.171  11.100  10.116 -0.6462 -0.3266  0.0880
33038SOL    HW1 9044  12.192  11.115  10.208  0.7591 -0.6030 -0.1608
33038SOL    HW2 9045  12.077  11.116  10.109 -0.8873 -0.9440  1.6919
33039SOL     OW 9046   3.549   9.605   9.176 -0.6147 -0.4949  0.5278
33039SOL    HW1 9047   3.582   9.629   9.262  1.8525  0.6656 -0.6234
33039SOL    HW2 9048   3.588   9.520   9.158  1.6757  0.7013 -0.6713
33040SOL     OW 9049   2.950   6.879   6.207 -0.5421  0.1299  0.0663
33040SOL    HW1 9050   2.886   6.813   6.234 -1.6628  0.4737 -1.5819
33040SOL    HW2 9051   3.023   6.868   6.267 -0.7362 -2.5361 -0.0751
33041SOL     OW 9052   7.351   7.208   7.170 -0.2972  0.1547  0.0485
33041SOL    HW1 9053   7.262   7.182   7.145  0.2625 -0.4314 -1.3978
33041SOL    HW2 9054   7.345   7.303   7.180 -0.8873  0.2369 -0.9481
33042SOL     OW 9055   2.562   7.147   1.433  0.4141 -0.0615 -0.2313
33042SOL    HW1 9056   2.529   7.059   1.451 -0.8722  0.2277 -1.0383
33042SOL    HW2 9057   2.607   7.173   1.514  1.0774 -1.5508 -0.0850
33043SOL     OW 9058  11.332   1.863  10.378 -0.1534 -0.1914 -0.0852
33043SOL    HW1 9059  11.309   1.886  10.289 -0.5487  0.2496  0.1316
33043SOL    HW2 9060  11.428   1.856  10.377 -0.0235  1.2655 -0.2086
33044SOL     OW 9061   5.180   1.880   2.095  0.7599  0.0799 -0.0992
33044SOL    HW1 9062   5.175   1.976   2.102  1.8103  0.1807 -0.5774
33044SOL    HW2 9063   5.266   1.858   2.131 -0.0440 -0.8441  1.3739
33045SOL     OW 9064   9.558   1.234   1.318 -0.8950  0.2358  0.4815
33045SOL    HW1 9065   9.527   1.163   1.261 -0.1187  0.3571 -0.1135
33045SOL    HW2 9066   9.619   1.284   1.263 -0.6089  0.7265  1.2287
33046SOL     OW 9067   7.247   9.752   8.621  0.5285  0.8301 -0.4025
33046SOL    HW1 9068   7.315   9.696   8.659 -0.0696  0.9625  0.9559
33046SOL    HW2 9069   7.215   9.703   8.545  1.1021  0.0673 -0.1689
33047SOL     OW 9070  13.019   3.522   7.242  0.1595  0.1537 -0.6689
33047SOL    HW1 9071  13.032   3.531   7.147 -2.0561 -1.2517 -1.1739
33047SOL    HW2 9072  13.032   3.610   7.276  2.0190  0.5027 -2.1079
33048SOL     OW 9073   4.863  10.519   7.960  0.0671 -0.0425  0.0685
33048SOL    HW1 9074   4.897  10.600   7.923  0.4238  0.3837  1.2773
33048SOL    HW2 9075   4.774  10.541   7.988 -0.1291 -0.3043 -0.3410
33049SOL     OW 9076  10.814   9.981   6.525 -0.0450 -0.7710 -0.1558
33049SOL    HW1 9077  10.741   9.986   6.586 -0.8114  0.1561 -1.1114
33049SOL    HW2 9078  10.890  10.005   6.577 -0.8473  1.1554  0.2019
33050SOL     OW 9079   3.844   8.722  11.187  0.0625  0.5067 -0.6345
33050SOL    HW1 9080   3.876   8.634  11.210  2.2237  1.3483 -0.1507
33050SOL    HW2 9081   3.749   8.715  11.194  0.2482 -1.0437  2.4056
33051SOL     OW 9082   4.971  13.120   8.414 -0.3107  0.4742 -0.4705
33051SOL    HW1 9083   4.939  13.186   8.352 -1.1574  0.0537 -0.4977
33051SOL    HW2 9084   4.909  13.125   8.487 -0.5998 -0.5279 -0.6276
33052SOL     OW 9085   2.300   1.855   2.805  0.6650 -0.4456 -0.1318
33052SOL    HW1 9086   2.281   1.808   2.724  0.1268  0.7975 -0.7458
33052SOL    HW2 9087   2.250   1.807   2.872 -2.7771  1.1701 -1.2792
33053SOL     OW 9088   5.121   2.983  11.025 -0.3889  0.1103  0.1727
33053SOL    HW1 9089   5.161   3.001  10.940 -0.6630 -0.5310 -0.0984
33053SOL    HW2 9090   5.027   2.982  11.008 -0.4680  0.4057  0.5707
33054SOL     OW 9091  12.592   3.235  12.009 -0.1163  0.1700 -0.5300
33054SOL    HW1 9092  12.606   3.182  11.931  1.7816  0.5054 -0.4615
33054SOL    HW2 9093  12.611   3.176  12.082 -0.2910  0.3170 -0.3637
33055SOL     OW 9094   1.059  11.107   4.149  0.0741 -0.4575  0.3621
33055SOL    HW1 9095   1.100  11.073   4.070  0.7361 -0.0466  0.5206
33055SOL    HW2 9096   1.028  11.195   4.125 -0.2706 -0.5705  0.3857
33056SOL     OW 9097   3.022   6.475  12.468  0.0180  0.0141 -0.3287
33056SOL    HW1 9098   2.931   6.487  12.497 -0.0823 -0.0118 -0.6298
33056SOL    HW2 9099   3.071   6.458  12.549 -0.4291 -1.0712 -0.2707
33057SOL     OW 9100   6.489   7.552  12.028  0.2067  0.0887  0.0183
33057SOL    HW1 9101   6.409   7.506  12.054  1.6579 -1.5173  1.9499
33057SOL    HW2 9102   6.500   7.619  12.095  0.5625  0.2225 -0.1735
33058SOL     OW 9103   1.679  10.254   6.943 -0.1381 -0.4648 -0.2226
33058SOL    HW1 9104   1.651  10.220   7.028 -0.7851 -0.8351 -0.5732
33058SOL    HW2 9105   1.654  10.346   6.945  0.0821 -0.4126  0.0875
33059SOL     OW 9106   7.315   1.233   4.972  0.3735  0.2746  0.4303
33059SOL    HW1 9107   7.221   1.227   4.952  0.4084 -1.5131  0.6057
33059SOL    HW2 9108   7.334   1.151   5.017  2.5373 -0.5193 -1.7305
33060SOL     OW 9109  13.076   5.349   0.784 -0.2146  0.3576  0.4072
33060SOL    HW1 9110  13.006   5.301   0.827 -0.5549 -0.3418 -0.8844
33060SOL    HW2 9111  13.102   5.294   0.711  0.7323  1.2541  0.0421
33061SOL     OW 9112   3.267   2.131  13.009  0.0096  0.4005  0.6432
33061SOL    HW1 9113   3.198   2.071  12.981 -2.5261  2.5881  1.7603
33061SOL    HW2 9114   3.261   2.205  12.949  1.2269  0.7738  0.9518
33062SOL     OW 9115  11.469   9.059  12.295 -0.3749  0.3376 -0.1196
33062SOL    HW1 9116  11.413   9.020  12.227  0.8959  1.5894 -1.9927
33062SOL    HW2 9117  11.408   9.084  12.364 -1.8188 -0.4721 -1.0214
33063SOL     OW 9118   6.117   0.736   9.302  0.3067 -0.9099  0.3034
33063SOL    HW1 9119   6.152   0.657   9.261 -0.2633 -1.3196  0.5917
33063SOL    HW2 9120   6.022   0.732   9.286  0.5372  1.5074 -2.8118
33064SOL     OW 9121   5.811   3.724   3.331  0.1191 -0.0279 -0.0010
33064SOL    HW1 9122   5.736   3.752   3.384 -0.2006  0.7176 -0.8281
33064SOL    HW2 9123   5.774   3.666   3.265  0.4884 -0.7852  0.4350
33065SOL     OW 9124   1.348   0.402  10.795  0.6034 -0.5573  0.6707
33065SOL    HW1 9125   1.409   0.331  10.815 -0.5146 -2.2854 -1.6717
33065SOL    HW2 9126   1.263   0.359  10.784 -0.3847  1.3348  0.4159
33066SOL     OW 9127   4.921   9.512   3.083 -0.1329  0.0624 -0.0377
33066SOL    HW1 9128   4.951   9.521   2.992  0.0815  1.1261  0.1247
33066SOL    HW2 9129   4.982   9.566   3.133  0.4075 -1.3785  0.8887
33067SOL     OW 9130  11.598  12.283   2.462 -0.4912  0.3383 -0.4591
33067SOL    HW1 9131  11.619  12.326   2.546 -0.7013 -1.7878  0.7586
33067SOL    HW2 9132  11.666  12.312   2.402 -0.2225  1.7715  0.4962
33068SOL     OW 9133  11.260   8.817   7.588 -0.0859  0.4469 -0.3477
33068SOL    HW1 9134  11.169   8.799   7.566 -0.5199  0.8649  1.0442
33068SOL    HW2 9135  11.304   8.732   7.580 -1.3950 -0.6567  2.6783
33069SOL     OW 9136  10.792   4.659   5.151 -0.1817 -0.3576 -0.1791
33069SOL    HW1 9137  10.729   4.619   5.091 -1.4860  1.6713 -0.2532
33069SOL    HW2 9138  10.739   4.706   5.214  1.2400 -0.6145  1.2891
33070SOL     OW 9139   0.947   0.843  12.175 -0.4304  0.4038  0.2231
33070SOL    HW1 9140   0.889   0.914  12.151 -0.5768 -0.3943 -2.0282
33070SOL    HW2 9141   0.899   0.763  12.153  0.8828 -0.3092 -0.2122
33071SOL     OW 9142   9.447   4.900   2.676  0.7210  0.1794  0.3804
33071SOL    HW1 9143   9.523   4.958   2.683  1.4730 -0.9306  2.0578
33071SOL    HW2 9144   9.380   4.940   2.731  0.8038  0.1183  0.5270
33072SOL     OW 9145   9.007   8.237   4.398  0.3396 -0.6471  0.0716
33072SOL    HW1 9146   8.930   8.207   4.350  1.1190 -1.0875 -0.9447
33072SOL    HW2 9147   9.065   8.161   4.400  1.5773  0.2358 -0.9288
33073SOL     OW 9148  11.435   4.843   4.760  0.2634 -0.1978  0.0937
33073SOL    HW1 9149  11.513   4.859   4.812 -1.0218  0.4206  1.9182
33073SOL    HW2 9150  11.444   4.901   4.685  1.2621  0.3099  0.5865
33074SOL     OW 9151   7.426  11.594  10.037  0.3138 -0.1167  0.2145
33074SOL    HW1 9152   7.371  11.560  10.108  0.9214 -2.4520 -0.3303
33074SOL    HW2 9153   7.363  11.625   9.972 -0.2602  3.0499  2.0841
33075SOL     OW 9154   7.091   7.134   2.504  0.0517 -0.6797  0.1922
33075SOL    HW1 9155   7.149   7.092   2.567  2.0624  0.7687 -0.5807
33075SOL    HW2 9156   7.020   7.171   2.557  0.9097 -0.7578  1.4217
33076SOL     OW 9157   7.493   5.389  10.529  0.2349 -0.5350 -0.1435
33076SOL    HW1 9158   7.415   5.443  10.513 -0.4704 -0.9337  1.6732
33076SOL    HW2 9159   7.536   5.382  10.443 -1.1103  0.6441 -0.9523
33077SOL     OW 9160   2.198   4.468   5.774  0.1859 -0.0763 -0.3866
33077SOL    HW1 9161   2.122   4.456   5.831 -1.0777  2.1276 -1.4659
33077SOL    HW2 9162   2.171   4.429   5.691  1.4479 -1.9407  0.0194
33078SOL     OW 9163   2.547   6.583  11.493  0.0681 -0.4115 -0.3559
33078SOL    HW1 9164   2.557   6.495  11.530  0.5476 -0.9351 -1.6618
33078SOL    HW2 9165   2.634   6.622  11.499  0.3542 -0.8139 -1.6476
33079SOL     OW 9166   6.902   4.640  10.622 -0.2177 -0.3194 -0.0045
33079SOL    HW1 9167   6.933   4.625  10.712  0.7555  1.2040 -0.0430
33079SOL    HW2 9168   6.811   4.668  10.633  0.2021  0.8734  0.6159
33080SOL     OW 9169   4.629   0.377   9.494 -0.0437 -0.9067 -0.2343
33080SOL    HW1 9170   4.602   0.307   9.435  0.2655 -0.9780 -0.2928
33080SOL    HW2 9171   4.682   0.334   9.561  1.9668 -0.4503 -1.4616
33081SOL     OW 9172   2.283  10.854   1.048 -0.0115 -0.5095 -0.1533
33081SOL    HW1 9173   2.190  10.832   1.034  0.2582 -0.8209 -1.6226
33081SOL    HW2 9174   2.286  10.887   1.138 -1.7842  0.7701 -0.4987
33082SOL     OW 9175   3.872   6.709   3.390  0.3236 -0.3257  0.7663
33082SOL    HW1 9176   3.853   6.698   3.483 -1.4948 -0.1482  0.4432
33082SOL    HW2 9177   3.800   6.665   3.345  1.9884 -1.8269 -0.6070
33083SOL     OW 9178  10.541   4.886  11.362  0.2374  0.0541  0.4580
33083SOL    HW1 9179  10.498   4.861  11.280  1.7366 -2.2733  0.2571
33083SOL    HW2 9180  10.559   4.979  11.353 -1.3682  0.2660 -1.0008
33084SOL     OW 9181   4.559   0.032   4.330 -0.3802 -0.0506  0.1277
33084SOL    HW1 9182   4.519   0.078   4.404 -1.6568 -0.4046 -0.3060
33084SOL    HW2 9183   4.565  -0.059   4.360  2.9735  0.4392  1.3280
33085SOL     OW 9184  12.255   5.165  11.678 -0.2597 -0.4227 -0.2482
33085SOL    HW1 9185  12.278   5.174  11.771  0.6003 -3.8658 -0.0198
33085SOL    HW2 9186  12.333   5.194  11.631 -0.2525  0.1674  0.1137
33086SOL     OW 9187   4.789   5.200   0.963 -0.1522  0.3229 -0.2951
33086SOL    HW1 9188   4.770   5.186   1.056 -0.6511  0.8538 -0.3085
33086SOL    HW2 9189   4.874   5.244   0.963  0.6096 -1.0976 -0.1800
33087SOL     OW 9190   1.487   3.267   7.596 -0.1096 -0.0533  0.4454
33087SOL    HW1 9191   1.553   3.229   7.653  1.2157  0.2321 -0.8472
33087SOL    HW2 9192   1.408   3.216   7.613  1.5800 -3.5685 -1.2690
33088SOL     OW 9193   7.923  12.614   6.568 -0.2736  0.0629  0.0826
33088SOL    HW1 9194   7.880  12.583   6.489  0.7284 -0.1361 -0.4051
33088SOL    HW2 9195   7.926  12.709   6.559  3.1855 -0.0825 -2.0111
33089SOL     OW 9196   1.967   1.656   5.322 -0.1624  0.1675 -0.3816
33089SOL    HW1 9197   1.918   1.655   5.404 -0.4210  3.2539 -0.3833
33089SOL    HW2 9198   1.905   1.690   5.257 -0.2465 -3.0086 -2.1753
33090SOL     OW 9199   6.808   2.501  12.804  0.2481  0.3096  0.4096
33090SOL    HW1 9200   6.798   2.437  12.734  1.7012 -1.9790  2.1624
33090SOL    HW2 9201   6.727   2.552  12.802 -1.4033 -2.1964 -0.4895
33091SOL     OW 9202   4.154   3.706   2.142  0.0407 -0.2416  0.5608
33091SOL    HW1 9203   4.155   3.655   2.061  0.3417 -1.1156  1.1006
33091SOL    HW2 9204   4.246   3.728   2.157  0.0772 -0.6921  1.0303
33092SOL     OW 9205   0.791  12.515   6.549  0.2147 -0.5806 -0.8013
33092SOL    HW1 9206   0.872  12.464   6.546 -0.7683 -2.6523  2.2640
33092SOL    HW2 9207   0.816  12.597   6.592  1.1090 -0.0457 -2.2737
33093SOL     OW 9208  13.248   8.320   5.181  0.0767 -0.7895 -0.2284
33093SOL    HW1 9209  13.312   8.384   5.212 -1.0556 -0.0749  0.6929
33093SOL    HW2 9210  13.296   8.236   5.183  0.3278 -0.6909  2.8124
33094SOL     OW 9211   0.687  10.583   6.791 -0.1229  0.4923 -0.2680
33094SOL    HW1 9212   0.608  10.633   6.812 -1.3489  0.2535 -3.6796
33094SOL    HW2 9213   0.753  10.650   6.771 -0.4432  0.7511 -0.4887
33095SOL     OW 9214   4.427  11.112   8.541  0.3365 -0.0037  1.1639
33095SOL    HW1 9215   4.350  11.062   8.569 -0.4638 -1.4298 -2.8432
33095SOL    HW2 9216   4.495  11.045   8.529  1.6654  0.9860  2.7183
33096SOL     OW 9217   3.893   6.680  10.905  0.1182  0.3678 -0.4820
33096SOL    HW1 9218   3.975   6.630  10.902  0.6477  1.2824 -1.7998
33096SOL    HW2 9219   3.851   6.663  10.821 -0.9703  0.0771  0.0962
33097SOL     OW 9220   2.248   1.697   3.023 -0.0818  0.0683 -0.0965
33097SOL    HW1 9221   2.156   1.725   3.024  0.2400  1.2948 -1.4766
33097SOL    HW2 9222   2.294   1.763   3.075  0.1045 -0.2572  0.1563
33098SOL     OW 9223  10.474   0.160  13.169  0.1452  0.1015 -0.1873
33098SOL    HW1 9224  10.486   0.234  13.110 -0.3746  0.6638  0.3933
33098SOL    HW2 9225  10.411   0.104  13.124  0.4336  0.0843 -0.5676
33099SOL     OW 9226   2.558  12.643   8.068 -0.1291  0.5514 -0.4020
33099SOL    HW1 9227   2.629  12.624   8.008 -0.4699  0.6420 -0.8357
33099SOL    HW2 9228   2.494  12.691   8.016 -0.3085  0.8613  0.0999
33100SOL     OW 9229   8.313   0.360   0.024 -0.4980 -0.2986 -0.1363
33100SOL    HW1 9230   8.391   0.338   0.074  0.9132  2.2411 -1.0205
33100SOL    HW2 9231   8.335   0.336  -0.066  0.1042  2.0271 -0.6957
33101SOL     OW 9232   6.067  10.987   3.479  0.2005  0.4413  0.9892
33101SOL    HW1 9233   6.069  11.074   3.519  0.6627  1.0838 -0.3902
33101SOL    HW2 9234   5.976  10.975   3.452  0.6435  1.6385 -1.1909
33102SOL     OW 9235   1.493   0.007   1.526 -0.5506  0.4061  0.0192
33102SOL    HW1 9236   1.421  -0.034   1.573  0.8305 -2.2005  0.0556
33102SOL    HW2 9237   1.459   0.024   1.438 -1.5219  0.1939  0.3495
33103SOL     OW 9238   0.958   8.682   8.956  0.2286  0.1677  0.3442
33103SOL    HW1 9239   0.878   8.646   8.919  0.6740  0.3972 -0.8704
33103SOL    HW2 9240   1.018   8.608   8.962  1.1104  0.5991 -2.0608
33104SOL     OW 9241   2.118   8.685   4.638 -0.5396  0.3083  0.2806
33104SOL    HW1 9242   2.136   8.702   4.546 -0.1313 -1.2358  0.0449
33104SOL    HW2 9243   2.081   8.597   4.640 -1.8572  0.8512  1.4702
33105SOL     OW 9244   0.253   3.955  11.285 -0.4619  0.0302 -0.1936
33105SOL    HW1 9245   0.280   3.987  11.371  1.4039 -1.8088 -0.0177
33105SOL    HW2 9246   0.195   3.881  11.304 -0.5914  0.0471 -0.5172
33106SOL     OW 9247   6.018  12.575   9.211  0.1409 -0.5298  0.7047
33106SOL    HW1 9248   5.928  12.542   9.214  0.2092 -0.9409 -0.8753
33106SOL    HW2 9249   6.061  12.535   9.287 -1.0684 -0.1281  1.6157
33107SOL     OW 9250   4.720   1.777   5.277  0.4353  0.1309  0.1128
33107SOL    HW1 9251   4.754   1.695   5.312 -0.1135 -0.2835 -0.2906
33107SOL    HW2 9252   4.695   1.828   5.354  2.9427  0.9272  0.4843
33108SOL     OW 9253  11.996   4.161   4.044  0.4253  0.0321  0.0084
33108SOL    HW1 9254  11.982   4.071   4.072  1.8990 -0.6737 -1.3376
33108SOL    HW2 9255  11.963   4.164   3.954  1.5035  0.4681 -0.3915
33109SOL     OW 9256  11.823   6.651   7.820 -0.2699 -0.8511  0.3884
33109SOL    HW1 9257  11.857   6.591   7.887  0.2808 -2.1326 -0.9574
33109SOL    HW2 9258  11.732   6.667   7.845 -0.2018 -1.6481  1.1948
33110SOL     OW 9259   4.120   6.462   9.327  0.1167 -0.4686  0.1474
33110SOL    HW1 9260   4.040   6.411   9.334  1.1188 -2.1299  0.1783
33110SOL    HW2 9261   4.148   6.452   9.236 -0.0190  0.6124 -0.0263
33111SOL     OW 9262  10.936   8.993   9.795 -0.2189  0.5135  0.9631
33111SOL    HW1 9263  10.979   9.015   9.713 -2.5443  1.0020 -0.2178
33111SOL    HW2 9264  10.985   9.043   9.861  1.0402  0.9675 -0.2460
33112SOL     OW 9265   8.655   1.315  11.549  0.2477 -0.1514  0.4867
33112SOL    HW1 9266   8.728   1.277  11.598  1.6033  2.3807  0.5891
33112SOL    HW2 9267   8.578   1.270  11.583  1.5108 -1.0691  2.3105
33113SOL     OW 9268  10.192   0.796   1.349 -0.6493  0.3551  1.2895
33113SOL    HW1 9269  10.283   0.767   1.359 -0.3690  0.5529 -0.2912
33113SOL    HW2 9270  10.167   0.829   1.435  0.7777  0.3025  1.7536
33114SOL     OW 9271   6.986   1.339   3.705 -0.4833  0.1193 -0.1227
33114SOL    HW1 9272   6.924   1.275   3.670  0.1178 -0.5148 -0.0445
33114SOL    HW2 9273   7.015   1.388   3.628  0.1711 -0.6914 -0.4143
33115SOL     OW 9274   6.556   0.325  10.396 -0.2204 -0.9140 -0.5932
33115SOL    HW1 9275   6.601   0.341  10.313  0.0619 -2.0172 -0.6715
33115SOL    HW2 9276   6.606   0.254  10.436 -1.0593 -1.1913 -0.0185
33116SOL     OW 9277   1.323   1.449   9.213 -0.2898  0.4068  0.2720
33116SOL    HW1 9278   1.273   1.374   9.182 -0.5387  0.1494  1.2548
33116SOL    HW2 9279   1.334   1.433   9.307 -0.0405  1.4241  0.4262
33117SOL     OW 9280   2.324   1.108   1.744 -0.7825  0.0877  0.2318
33117SOL    HW1 9281   2.329   1.202   1.724  0.0437 -0.6274 -3.8441
33117SOL    HW2 9282   2.236   1.082   1.717 -0.7005 -0.4764  0.4956
33118SOL     OW 9283   1.830   5.405   7.396 -0.5215 -0.0386  0.0937
33118SOL    HW1 9284   1.851   5.498   7.405 -0.6861  0.4131 -3.0600
33118SOL    HW2 9285   1.897   5.371   7.338 -1.2296 -1.5760  0.1461
33119SOL     OW 9286   0.039   6.295  11.842 -0.5764 -0.6475  0.4152
33119SOL    HW1 9287   0.093   6.278  11.919  0.1175 -2.2959 -0.3936
33119SOL    HW2 9288   0.049   6.216  11.788 -1.9081  0.0176 -0.8566
33120SOL     OW 9289   0.231   3.814  10.594  0.0258 -0.2161 -0.5026
33120SOL    HW1 9290   0.201   3.893  10.639  0.0105 -0.5606  0.1044
33120SOL    HW2 9291   0.312   3.841  10.551 -1.2007  0.7789 -2.3320
33121SOL     OW 9292   0.931   4.091   0.502  0.5233 -0.1600  0.4073
33121SOL    HW1 9293   0.963   4.077   0.591 -0.0440 -0.0426  0.6334
33121SOL    HW2 9294   0.918   4.186   0.496  2.6317  0.1339 -0.5278
33122SOL     OW 9295   0.818   1.302   7.307 -0.2454  0.3806  0.3555
33122SOL    HW1 9296   0.811   1.384   7.258  0.4290  1.1644  1.5259
33122SOL    HW2 9297   0.727   1.271   7.315 -0.3973  0.4065 -1.0607
33123SOL     OW 9298   0.501   5.577   8.746  0.4875 -0.0273 -0.3724
33123SOL    HW1 9299   0.503   5.661   8.701  1.0395  0.4577  0.5211
33123SOL    HW2 9300   0.538   5.515   8.683 -0.3521  0.3110 -1.1981
33124SOL     OW 9301  10.183   4.956   2.680 -0.0793  0.3605  0.0757
33124SOL    HW1 9302  10.160   4.869   2.647 -1.1117  0.2475  1.0245
33124SOL    HW2 9303  10.103   4.987   2.723  0.3730  1.6482  0.0357
33125SOL     OW 9304   3.991   8.283  11.115  0.1442  0.4907 -0.2132
33125SOL    HW1 9305   3.985   8.217  11.183  1.9061  0.9935  0.4619
33125SOL    HW2 9306   4.002   8.366  11.162  2.7211  0.7000 -1.0497
33126SOL     OW 9307   1.609   1.912   3.056  0.2103  0.0452  0.6461
33126SOL    HW1 9308   1.519   1.939   3.077  1.1455  1.8186  2.7720
33126SOL    HW2 9309   1.631   1.962   2.978 -0.2828  0.4378  0.7495
33127SOL     OW 9310  11.747   9.938   3.518 -0.1769 -0.4935 -0.0466
33127SOL    HW1 9311  11.775   9.858   3.562  1.1265  0.7929  1.5888
33127SOL    HW2 9312  11.651   9.930   3.514 -0.3316 -1.0037  2.5000
33128SOL     OW 9313   9.339   5.078   4.433 -0.1648  0.4537  0.1823
33128SOL    HW1 9314   9.258   5.035   4.460 -0.3461  0.8001  0.1891
33128SOL    HW2 9315   9.338   5.074   4.338  0.0441  0.0296  0.1947
33129SOL     OW 9316   8.447   0.267   8.411 -0.3920 -0.5849 -0.6454
33129SOL    HW1 9317   8.510   0.272   8.339  0.9530  0.2811  0.5231
33129SOL    HW2 9318   8.496   0.225   8.482 -0.8416  0.8170  0.5436
33130SOL     OW 9319   6.307  13.235   6.014  0.5578  0.3578  0.6298
33130SOL    HW1 9320   6.271  13.274   5.934  1.6981  2.3288  1.0203
33130SOL    HW2 9321   6.241  13.170   6.041 -0.9697  1.3291 -0.5987
33131SOL     OW 9322  10.835  11.281   3.446 -0.1457  0.4880  0.0633
33131SOL    HW1 9323  10.930  11.287   3.456 -0.0017  0.4513 -1.1114
33131SOL    HW2 9324  10.822  11.219   3.374 -1.0359  0.9771 -0.2194
33132SOL     OW 9325  13.206   9.657   8.506 -0.1465  0.6421  0.1857
33132SOL    HW1 9326  13.234   9.615   8.587  1.1842 -1.8225 -1.4332
33132SOL    HW2 9327  13.113   9.636   8.500 -0.2249  0.7110  0.9860
33133SOL     OW 9328   1.375   9.521   7.123 -0.6223 -0.1654  0.6741
33133SOL    HW1 9329   1.322   9.592   7.086 -0.5515 -0.6655 -0.4162
33133SOL    HW2 9330   1.328   9.441   7.101 -0.9250 -0.4672  2.2703
33134SOL     OW 9331   5.860   8.989   0.491 -0.8180  0.5896 -0.0877
33134SOL    HW1 9332   5.859   9.031   0.405 -0.0283  1.7979  0.4757
33134SOL    HW2 9333   5.953   8.979   0.512 -1.0045  0.0419  0.5074
33135SOL     OW 9334   1.159  10.185  11.868 -0.1691  0.2264  0.0784
33135SOL    HW1 9335   1.070  10.221  11.860  0.0753  0.7897 -0.2173
33135SOL    HW2 9336   1.215  10.263  11.874  0.3085 -0.1260  0.1959
33136SOL     OW 9337   9.204   0.276   1.924  0.3475 -0.2379  0.1685
33136SOL    HW1 9338   9.239   0.332   1.855  1.1925 -1.3827 -0.3523
33136SOL    HW2 9339   9.260   0.199   1.924 -0.0069 -0.5385  1.7312
33137SOL     OW 9340  10.332  10.973   6.198  0.4427  0.1691  0.5952
33137SOL    HW1 9341  10.285  10.961   6.280 -0.3304  0.1359  0.1538
33137SOL    HW2 9342  10.396  10.901   6.196 -0.7510 -0.9146  0.3278
33138SOL     OW 9343   0.663   0.032   5.399  0.6634  0.2281  0.6619
33138SOL    HW1 9344   0.648   0.061   5.310  1.4895  0.8772  0.7215
33138SOL    HW2 9345   0.704  -0.054   5.390  1.0855  0.4532  0.3998
33139SOL     OW 9346   2.704   0.640   5.543  0.1836 -0.2421  0.1459
33139SOL    HW1 9347   2.639   0.632   5.612 -0.1338 -2.8650 -0.3631
33139SOL    HW2 9348   2.653   0.651   5.463  0.3426 -1.7456 -0.1866
33140SOL     OW 9349   9.842  11.576   8.739 -0.4758  0.6548  0.1491
33140SOL    HW1 9350   9.772  11.629   8.778 -0.5256 -0.4390  1.6181
33140SOL    HW2 9351   9.795  11.509   8.689 -0.5497 -0.5434  1.7522
33141SOL     OW 9352   9.805   8.236   5.432 -0.3510  0.2107  0.1532
33141SOL    HW1 9353   9.740   8.304   5.415 -0.1890  0.6548  1.2376
33141SOL    HW2 9354   9.787   8.168   5.367 -0.9627  0.9742 -0.4923
33142SOL     OW 9355  12.678  10.391  11.319 -0.0479 -0.0972 -0.2861
33142SOL    HW1 9356  12.640  10.310  11.355  1.8546 -0.1561  1.7908
33142SOL    HW2 9357  12.654  10.459  11.383  0.8889  0.3994 -0.4474
33143SOL     OW 9358   3.687   2.561   7.886 -0.0250  0.8495 -0.6285
33143SOL    HW1 9359   3.770   2.600   7.913 -0.3654  0.6166  0.8902
33143SOL    HW2 9360   3.654   2.518   7.965 -0.1631 -1.6418 -1.9400
33144SOL     OW 9361   3.804   2.839  12.243  0.1803  0.3968  0.6787
33144SOL    HW1 9362   3.769   2.762  12.287  1.0453 -0.3775  0.0712
33144SOL    HW2 9363   3.728   2.885  12.209 -0.3301 -0.4800  0.6039
33145SOL     OW 9364   5.557   1.915   3.567  0.2729 -0.0847  0.3431
33145SOL    HW1 9365   5.504   1.856   3.514  1.5525 -2.6764  1.7336
33145SOL    HW2 9366   5.619   1.954   3.505 -1.4676  0.9759 -0.8340
33146SOL     OW 9367   5.806   3.287   2.138 -0.0819  0.1099 -0.5404
33146SOL    HW1 9368   5.736   3.282   2.073 -0.2877 -0.4640 -0.2839
33146SOL    HW2 9369   5.870   3.347   2.100 -0.3548  0.0445 -1.1182
33147SOL     OW 9370   4.674  10.051   3.658  0.1889  0.1165  0.0333
33147SOL    HW1 9371   4.635  10.129   3.618  1.0732  1.1951  1.2145
33147SOL    HW2 9372   4.603  10.012   3.708 -0.9060 -1.1683 -2.3284
33148SOL     OW 9373   1.623   6.443  10.141 -0.0454 -0.0738  0.2927
33148SOL    HW1 9374   1.671   6.520  10.108 -0.5116 -0.4075 -1.2522
33148SOL    HW2 9375   1.590   6.400  10.062 -0.1955 -1.6114  1.1574
33149SOL     OW 9376  12.512   1.921  11.265 -0.1497 -0.3892  0.4274
33149SOL    HW1 9377  12.585   1.978  11.241 -1.1189  0.2542 -1.1516
33149SOL    HW2 9378  12.506   1.928  11.360  1.9976 -0.6911  0.6337
33150SOL     OW 9379   1.058  10.102   9.250 -0.1616 -0.7202 -0.3560
33150SOL    HW1 9380   1.059  10.049   9.170  0.7676 -2.7282  0.9273
33150SOL    HW2 9381   0.974  10.082   9.291 -1.4894  1.7306 -1.6325
33151SOL     OW 9382  12.500   8.933  11.518 -0.2811 -0.6216  0.8658
33151SOL    HW1 9383  12.508   8.997  11.588  0.5095 -1.1176  1.2418
33151SOL    HW2 9384  12.580   8.880  11.525  0.0990 -0.3066 -0.7814
33152SOL     OW 9385   2.371   1.093   5.767  0.2712 -0.3575  0.4738
33152SOL    HW1 9386   2.389   1.143   5.688 -1.8916 -0.5249 -0.1695
33152SOL    HW2 9387   2.379   1.001   5.740 -2.2568 -0.4705 -0.0873
33153SOL     OW 9388  12.504   6.227   9.423 -0.2534  0.3440 -0.1598
33153SOL    HW1 9389  12.440   6.251   9.490  1.0823  2.4619  0.4578
33153SOL    HW2 9390  12.465   6.151   9.379 -3.7276  2.1559 -0.6041
33154SOL     OW 9391   5.312   8.895  12.409  0.4973  0.4099 -0.6491
33154SOL    HW1 9392   5.330   8.978  12.364  1.1490 -0.0375 -1.2254
33154SOL    HW2 9393   5.285   8.835  12.340  1.9287 -0.4144 -0.5242
33155SOL     OW 9394   6.613   3.957  10.189  0.2955 -0.0033 -0.0282
33155SOL    HW1 9395   6.692   4.002  10.160 -0.2839  0.4677 -0.8938
33155SOL    HW2 9396   6.617   3.963  10.285  1.2523  0.1019 -0.0631
33156SOL     OW 9397   5.593   1.502  11.489 -0.0548  0.0699  0.3054
33156SOL    HW1 9398   5.608   1.506  11.583 -0.4181 -1.7084  0.4726
33156SOL    HW2 9399   5.570   1.411  11.472 -2.5307  0.8701 -1.1402
33157SOL     OW 9400   6.713  10.447   0.336 -0.3492 -0.2556 -0.0148
33157SOL    HW1 9401   6.768  10.485   0.268  1.5659  1.5288  2.3399
33157SOL    HW2 9402   6.741  10.355   0.342  2.4890  0.5522  1.0278
33158SOL     OW 9403   2.852  13.097  11.193 -0.0986  0.0979  0.4642
33158SOL    HW1 9404   2.854  13.030  11.261  1.6369 -0.2683  0.0921
33158SOL    HW2 9405   2.861  13.049  11.111  2.8828  0.8028  0.2600
33159SOL     OW 9406   2.920   4.128  12.049 -0.4119  0.0655 -0.1583
33159SOL    HW1 9407   2.902   4.094  12.136 -1.9811  0.9737 -0.0877
33159SOL    HW2 9408   2.834   4.132  12.006  0.0647  1.3664 -1.0787
33160SOL     OW 9409  12.164   4.008   4.377  0.1450  0.0031 -0.3905
33160SOL    HW1 9410  12.087   3.952   4.368 -0.0622  0.1675  0.2707
33160SOL    HW2 9411  12.192   3.995   4.468  0.4495  0.5094 -0.4080
33161SOL     OW 9412  10.823  13.011   6.797 -0.3853 -0.1815  0.9820
33161SOL    HW1 9413  10.896  13.070   6.783  0.0595 -0.1757  3.0474
33161SOL    HW2 9414  10.864  12.925   6.809 -0.8629 -0.5164  0.2548
33162SOL     OW 9415  13.269  10.138  10.310 -0.3441 -0.0952 -0.3207
33162SOL    HW1 9416  13.221  10.057  10.296 -0.6548  0.2849 -1.5774
33162SOL    HW2 9417  13.359  10.118  10.287  0.0049 -0.6271  1.3859
33163SOL     OW 9418   3.184   7.147   4.800 -0.0675  0.1651  0.4211
33163SOL    HW1 9419   3.121   7.097   4.747  0.2100  0.3084 -0.0419
33163SOL    HW2 9420   3.254   7.170   4.739  0.5639 -0.2071  0.9909
33164SOL     OW 9421  13.061   8.679   8.030  0.7593  0.0775  0.1061
33164SOL    HW1 9422  12.993   8.613   8.042  1.3682 -0.7186 -0.7080
33164SOL    HW2 9423  13.025   8.758   8.070 -0.7825 -0.2447 -0.5899
33165SOL     OW 9424   4.722   8.980  10.224  0.1391 -0.3147 -0.2043
33165SOL    HW1 9425   4.783   8.980  10.150 -0.5551  0.8978 -0.8135
33165SOL    HW2 9426   4.673   8.899  10.214  1.9801 -1.6171  0.6308
33166SOL     OW 9427   6.617  11.711   0.795 -0.1554 -0.5412  0.2756
33166SOL    HW1 9428   6.640  11.800   0.769 -1.3450 -0.3912 -0.3580
33166SOL    HW2 9429   6.698  11.673   0.828  0.8007  0.1970 -1.1169
33167SOL     OW 9430   5.650  10.633  13.173 -0.4631 -0.0111  0.1280
33167SOL    HW1 9431   5.556  10.638  13.189 -0.4853  1.3660 -0.2556
33167SOL    HW2 9432   5.689  10.651  13.259 -0.5888  2.3316 -0.2257
33168SOL     OW 9433   0.781   4.731  11.207 -0.3656 -0.0812 -0.3643
33168SOL    HW1 9434   0.690   4.714  11.230 -0.2000 -0.3544  0.0958
33168SOL    HW2 9435   0.797   4.677  11.130 -0.7724  0.4436 -0.8278
33169SOL     OW 9436  12.536   2.892   1.628 -0.6020  0.3586 -0.3258
33169SOL    HW1 9437  12.602   2.822   1.625  0.6818  1.5404 -1.0270
33169SOL    HW2 9438  12.523   2.908   1.722 -1.7544 -1.5288 -0.1125
33170SOL     OW 9439  11.904   4.880   1.302 -0.8297 -0.0969 -0.1325
33170SOL    HW1 9440  11.870   4.958   1.257  1.7651  1.0105 -0.3389
33170SOL    HW2 9441  11.906   4.813   1.235 -0.5737  0.4460 -0.6789
33171SOL     OW 9442  10.330   5.418  11.583 -0.1683 -0.3043  0.4031
33171SOL    HW1 9443  10.366   5.402  11.495  0.0492 -0.5134  0.5306
33171SOL    HW2 9444  10.371   5.501  11.609 -0.6124  0.0139  0.1080
33172SOL     OW 9445   0.497  11.452  13.137 -0.0932  0.0496 -0.8129
33172SOL    HW1 9446   0.532  11.420  13.220 -0.2662 -0.5641 -0.9761
33172SOL    HW2 9447   0.474  11.544  13.154  1.0100  0.2891 -0.5305
33173SOL     OW 9448   6.649  12.042  12.944  0.6702  0.0429 -0.0590
33173SOL    HW1 9449   6.715  11.974  12.962 -0.2434 -0.8897 -0.1227
33173SOL    HW2 9450   6.601  12.008  12.868 -1.2237 -0.3187  1.2371
33174SOL     OW 9451   3.063   9.879  11.255 -0.4871  0.0254  0.0139
33174SOL    HW1 9452   3.138   9.935  11.234 -1.2067  1.0712  0.1457
33174SOL    HW2 9453   2.988   9.939  11.260 -1.2822 -0.9426  0.2203
33175SOL     OW 9454   0.160   9.018   4.936 -0.4501 -0.1415  0.4976
33175SOL    HW1 9455   0.201   8.938   4.968  0.9055  0.8333  1.3251
33175SOL    HW2 9456   0.232   9.081   4.931 -1.3511  0.8268 -0.8356
33176SOL     OW 9457   1.266   5.782   2.707  0.2188  0.1808 -0.3113
33176SOL    HW1 9458   1.351   5.747   2.737  0.4355  0.0860 -1.0250
33176SOL    HW2 9459   1.224   5.814   2.787  1.1593  0.7206 -0.0172
33177SOL     OW 9460  10.705   8.807   8.221 -0.3828  0.0288 -0.7702
33177SOL    HW1 9461  10.725   8.889   8.265  1.3004 -0.6605 -0.1847
33177SOL    HW2 9462  10.740   8.817   8.132  0.7262 -0.3972 -0.3952
33178SOL     OW 9463   7.423  12.995  13.313  0.3728 -0.8868  0.5822
33178SOL    HW1 9464   7.357  13.026  13.251  1.9617 -2.0960 -1.8662
33178SOL    HW2 9465   7.491  13.062  13.310 -0.1927 -0.2011  2.2395
33179SOL     OW 9466   4.169  12.588   0.339  0.5404 -0.4469  0.2476
33179SOL    HW1 9467   4.155  12.638   0.258  0.2755  0.1271  0.6344
33179SOL    HW2 9468   4.189  12.655   0.405 -0.6395 -0.7582  0.9631
33180SOL     OW 9469   4.549   9.036   7.740  0.6399 -0.0919 -0.1277
33180SOL    HW1 9470   4.518   9.112   7.690  0.7938 -0.3579 -0.6377
33180SOL    HW2 9471   4.471   8.985   7.758  0.3333  0.8730  1.4202
33181SOL     OW 9472   0.260   6.956   0.176 -0.2277  0.1620 -0.4579
33181SOL    HW1 9473   0.281   7.007   0.254  0.5165  0.5025 -0.8822
33181SOL    HW2 9474   0.308   6.998   0.105 -0.3329 -0.5786 -0.9777
33182SOL     OW 9475   6.761   1.577  11.068 -0.3840 -0.0294 -0.7343
33182SOL    HW1 9476   6.702   1.650  11.087 -1.2874 -0.9043 -0.0883
33182SOL    HW2 9477   6.802   1.600  10.985 -2.6111  0.0080 -1.8778
33183SOL     OW 9478   2.930   1.464  10.353 -0.1537  0.0934 -0.3033
33183SOL    HW1 9479   2.904   1.551  10.385  0.3766  0.2094 -0.1808
33183SOL    HW2 9480   2.947   1.476  10.260  0.9234  0.3594 -0.0861
33184SOL     OW 9481  11.727  13.002   0.405  0.4942 -0.2946  0.3273
33184SOL    HW1 9482  11.773  12.923   0.379  0.1709 -0.5802  0.6269
33184SOL    HW2 9483  11.774  13.034   0.482 -0.7663 -1.4983  1.6714
33185SOL     OW 9484   3.861   9.813   9.668 -0.4681 -0.2729  0.1730
33185SOL    HW1 9485   3.940   9.832   9.720 -1.4332 -0.0982  1.6205
33185SOL    HW2 9486   3.843   9.721   9.686 -0.0211 -0.5972 -0.9826
33186SOL     OW 9487  13.031   4.290   0.546  0.6828  0.3920  0.2084
33186SOL    HW1 9488  12.937   4.303   0.532  0.4059  0.5466  1.9748
33186SOL    HW2 9489  13.046   4.317   0.636  2.3570 -0.0663  0.1086
33187SOL     OW 9490   2.097   3.100   3.923  0.3356 -0.3051 -0.1433
33187SOL    HW1 9491   2.036   3.113   3.996  0.9635  0.4675  0.2520
33187SOL    HW2 9492   2.171   3.053   3.961  0.9591  0.6796 -0.1273
33188SOL     OW 9493   3.130   3.170   8.912  0.2985 -0.0253  0.1969
33188SOL    HW1 9494   3.062   3.144   8.975  0.1912  0.0641  0.1186
33188SOL    HW2 9495   3.081   3.203   8.837  0.4221 -0.5118 -0.1011
33189SOL     OW 9496   1.870   2.969   2.584 -0.4466  0.3689 -0.2259
33189SOL    HW1 9497   1.836   2.910   2.651  0.9367 -0.7697 -0.4933
33189SOL    HW2 9498   1.818   2.949   2.506 -0.1443 -0.3276 -0.2519
33190SOL     OW 9499   3.603  12.182  13.306  0.1084  0.0400  0.0634
33190SOL    HW1 9500   3.521  12.227  13.327  0.0021  0.6287 -1.4743
33190SOL    HW2 9501   3.578  12.091  13.292 -0.0195 -0.0992  1.1116
33191SOL     OW 9502   8.239  10.351  11.833 -0.0272 -0.1106  0.1368
33191SOL    HW1 9503   8.161  10.323  11.881  0.3325  1.1914  1.5665
33191SOL    HW2 9504   8.307  10.289  11.860 -0.2498 -0.4585 -0.0935
33192SOL     OW 9505   7.354   8.696   7.151 -0.1184  0.0949  0.3309
33192SOL    HW1 9506   7.419   8.766   7.145 -0.1705  0.1045 -0.1365
33192SOL    HW2 9507   7.340   8.684   7.245  0.9364 -0.2661  0.4459
33193SOL     OW 9508   9.312   6.186   3.273  0.3401 -0.0767 -0.4606
33193SOL    HW1 9509   9.228   6.219   3.303 -0.6459  0.0881 -3.1464
33193SOL    HW2 9510   9.315   6.095   3.304 -1.4734 -0.5176 -1.4903
33194SOL     OW 9511   0.172   4.132  12.365  0.0584  0.0645 -0.1642
33194SOL    HW1 9512   0.239   4.107  12.301  0.0925  2.0507 -0.9851
33194SOL    HW2 9513   0.090   4.123  12.318 -0.1911 -1.2630  0.4791
33195SOL     OW 9514   5.809   0.450   1.885  0.3827 -1.0708 -0.1818
33195SOL    HW1 9515   5.865   0.460   1.962  0.4568 -0.6577 -0.2875
33195SOL    HW2 9516   5.870   0.454   1.811  0.2611 -1.0517 -0.2800
33196SOL     OW 9517   4.997   8.601   4.912 -0.2107 -0.2766  0.0989
33196SOL    HW1 9518   4.963   8.559   4.990  3.7813 -1.0535  1.6705
33196SOL    HW2 9519   5.041   8.680   4.944  1.4264 -0.5598 -1.2712
33197SOL     OW 9520   4.572   4.907  13.273  0.0885 -0.1930 -0.3697
33197SOL    HW1 9521   4.526   4.916  13.357 -0.8239 -0.6909 -0.7951
33197SOL    HW2 9522   4.608   4.994  13.256  0.4387 -0.1260  0.6132
33198SOL     OW 9523   4.677   3.046  12.315  0.0005 -0.1016 -0.1849
33198SOL    HW1 9524   4.618   2.974  12.292  1.5327 -1.2318 -0.7114
33198SOL    HW2 9525   4.669   3.055  12.410 -0.9684 -0.2536 -0.2405
33199SOL     OW 9526   1.325   6.298   6.902 -0.4551  0.0065 -0.3080
33199SOL    HW1 9527   1.270   6.369   6.868 -0.1186  0.2519 -0.3357
33199SOL    HW2 9528   1.412   6.316   6.867 -0.2441 -0.0946  0.1674
33200SOL     OW 9529   9.975   9.743   9.563  0.0106  0.1862  0.1879
33200SOL    HW1 9530   9.976   9.656   9.524  0.6888  0.3612 -0.1918
33200SOL    HW2 9531  10.020   9.799   9.499  1.1633  0.4785  1.2133
33201SOL     OW 9532   5.884   5.445   7.662 -0.1329  0.2900  0.0313
33201SOL    HW1 9533   5.825   5.376   7.691  0.7708  0.2666  1.9703
33201SOL    HW2 9534   5.896   5.429   7.568  0.3436 -2.4444  0.4688
33202SOL     OW 9535  11.000   3.211   4.310  0.1569 -0.0249  0.1131
33202SOL    HW1 9536  10.930   3.242   4.253 -2.3230  1.4998  3.6434
33202SOL    HW2 9537  11.070   3.275   4.299 -0.1846  0.1491 -1.2373
33203SOL     OW 9538  10.279   2.890   0.820  0.0427 -0.2785  0.0757
33203SOL    HW1 9539  10.274   2.908   0.914 -0.7206 -0.3771  0.0621
33203SOL    HW2 9540  10.363   2.928   0.792  0.1812 -0.0741  0.7541
33204SOL     OW 9541   3.847  10.805   0.203  0.1398  0.1516 -1.0265
33204SOL    HW1 9542   3.917  10.739   0.207  1.1646  1.2065 -1.2207
33204SOL    HW2 9543   3.886  10.879   0.157 -0.4663  1.5068  0.5441
33205SOL     OW 9544  10.695   4.100  11.353  0.3156 -0.7618 -0.3996
33205SOL    HW1 9545  10.657   4.053  11.427  0.4800 -0.5960 -0.2092
33205SOL    HW2 9546  10.619   4.132  11.304  0.1958 -1.7006 -0.8486
33206SOL     OW 9547   1.830   9.775   4.261  0.6102  0.5231  0.0439
33206SOL    HW1 9548   1.879   9.815   4.333 -0.5566  1.2178  0.4930
33206SOL    HW2 9549   1.787   9.699   4.300 -0.8834  1.5051  0.3934
33207SOL     OW 9550   3.271   9.048   0.506 -0.2912 -0.1791  0.5693
33207SOL    HW1 9551   3.330   9.038   0.432  0.5842 -0.6508  1.3257
33207SOL    HW2 9552   3.217   8.969   0.505  0.1880 -0.5110  0.8463
33208SOL     OW 9553  10.151   6.361   5.944  0.0808 -0.1236  0.2934
33208SOL    HW1 9554  10.160   6.268   5.964  0.0206  0.2272  2.0534
33208SOL    HW2 9555  10.123   6.363   5.852 -0.1694 -1.8437  0.3058
33209SOL     OW 9556   9.681  12.817   9.102 -0.5665 -0.0320  0.0836
33209SOL    HW1 9557   9.668  12.731   9.061 -1.5258  0.0147  0.2544
33209SOL    HW2 9558   9.647  12.879   9.038 -1.2093  0.1085  0.5530
33210SOL     OW 9559  12.567   3.020   2.852  0.0908 -0.2555 -0.7307
33210SOL    HW1 9560  12.655   2.985   2.861  0.2614  0.2764 -0.2704
33210SOL    HW2 9561  12.523   2.997   2.934  0.1508  0.4414 -0.4940
33211SOL     OW 9562   9.660  11.482   5.408 -0.2215  0.3400 -0.4273
33211SOL    HW1 9563   9.590  11.426   5.374 -0.5645  0.3178  0.2841
33211SOL    HW2 9564   9.740  11.446   5.369 -0.3916 -0.9057  0.2972
33212SOL     OW 9565   9.357   6.990   3.051 -0.6027  0.4588  0.7630
33212SOL    HW1 9566   9.279   7.040   3.028 -0.4689  0.8142  1.0651
33212SOL    HW2 9567   9.375   6.936   2.974 -1.9030 -0.6056  1.1628
33213SOL     OW 9568   8.705   8.614   4.509 -0.1521 -0.1086 -0.0004
33213SOL    HW1 9569   8.688   8.684   4.446 -1.0591  0.8312  1.2317
33213SOL    HW2 9570   8.635   8.551   4.495 -1.0670  0.6850  0.8269
33214SOL     OW 9571   5.297   8.351   4.978 -0.3933  0.9411  0.7812
33214SOL    HW1 9572   5.265   8.441   4.972 -1.3402  0.8410  3.1925
33214SOL    HW2 9573   5.230   8.304   5.027  0.3576 -0.9613  0.1067
33215SOL     OW 9574  10.638   8.534   0.094  0.7946  0.4835  0.1719
33215SOL    HW1 9575  10.559   8.586   0.106  0.9633  0.8876 -0.4230
33215SOL    HW2 9576  10.625   8.457   0.148  0.0859  0.6474  0.2367
33216SOL     OW 9577   0.229   2.307   1.185  0.0012  0.0652  0.0631
33216SOL    HW1 9578   0.241   2.224   1.140 -0.2611  0.1633 -0.1902
33216SOL    HW2 9579   0.134   2.322   1.183  0.0627  0.4474 -0.0387
33217SOL     OW 9580   1.277   9.475   4.688 -0.3009  0.7429 -0.1625
33217SOL    HW1 9581   1.333   9.464   4.611  0.8878  1.2249  0.6069
33217SOL    HW2 9582   1.328   9.529   4.748 -0.8646 -0.2883  1.3113
33218SOL     OW 9583  10.882   8.419   7.527  0.2461  0.3707 -0.2412
33218SOL    HW1 9584  10.911   8.489   7.585 -0.2628  0.2206  0.2099
33218SOL    HW2 9585  10.863   8.345   7.586  0.9385 -0.2046 -0.7198
33219SOL     OW 9586   6.938   8.175   9.265  0.2316  0.2260  0.1765
33219SOL    HW1 9587   6.894   8.135   9.190  1.9998  0.6140 -1.1222
33219SOL    HW2 9588   6.867   8.202   9.323 -1.1175 -1.5542 -0.5816
33220SOL     OW 9589   0.346   8.651   6.995 -0.0610  0.1340 -0.8936
33220SOL    HW1 9590   0.422   8.653   7.052 -0.7427 -0.8555  0.0863
33220SOL    HW2 9591   0.370   8.707   6.921  0.8807  1.3915  0.3045
33221SOL     OW 9592  11.019   7.070   9.980  0.5419  0.0739  0.2094
33221SOL    HW1 9593  11.093   7.062  10.041 -1.6497  2.6392  3.5176
33221SOL    HW2 9594  11.043   7.142   9.923  0.8158  0.6121  0.9838
33222SOL     OW 9595   0.422   6.916   5.985  0.4250 -0.0887 -0.0780
33222SOL    HW1 9596   0.414   6.830   5.944  0.5080  0.7837 -2.0448
33222SOL    HW2 9597   0.517   6.931   5.990  0.4133 -0.1672  0.4075
33223SOL     OW 9598  13.182  10.406  12.611 -0.1700  0.1858 -0.3696
33223SOL    HW1 9599  13.218  10.453  12.686 -1.6104  0.3044  0.2947
33223SOL    HW2 9600  13.138  10.330  12.650  0.7630 -0.8606 -1.2903
33224SOL     OW 9601  11.708   7.538   3.029 -0.1089  0.1414  0.0209
33224SOL    HW1 9602  11.769   7.585   2.972 -1.6617  0.8020 -1.1930
33224SOL    HW2 9603  11.621   7.567   3.000 -1.0075 -0.3932  1.9938
33225SOL     OW 9604   6.797  11.598   6.513  0.0968  0.0962 -0.1689
33225SOL    HW1 9605   6.782  11.614   6.420 -0.9568  0.1576 -0.0084
33225SOL    HW2 9606   6.711  11.573   6.547  0.9737 -2.7749  0.2332
33226SOL     OW 9607  13.220   8.895  13.243 -0.4320 -0.5286 -0.3098
33226SOL    HW1 9608  13.299   8.943  13.266  1.1193 -0.7229 -4.3156
33226SOL    HW2 9609  13.212   8.827  13.310  1.6122  0.7002  1.3043
33227SOL     OW 9610   8.752  10.949   7.607 -0.1306  0.0192 -0.2265
33227SOL    HW1 9611   8.676  10.940   7.550 -0.5156 -0.7593  0.4048
33227SOL    HW2 9612   8.720  10.999   7.682 -0.0211 -0.3057  0.0368
33228SOL     OW 9613   2.505   9.837  10.881 -0.2781 -0.6433  0.7881
33228SOL    HW1 9614   2.493   9.932  10.886  0.3417 -0.5469  0.5598
33228SOL    HW2 9615   2.427   9.805  10.835 -0.6429 -0.2846  1.1455
33229SOL     OW 9616   6.753   6.502   8.887  0.0731  0.2619  0.1190
33229SOL    HW1 9617   6.672   6.478   8.842 -0.8678 -0.4176  2.0516
33229SOL    HW2 9618   6.782   6.581   8.843 -2.7005  1.6386  0.5192
33230SOL     OW 9619   8.966  10.562   2.746 -0.2223 -0.1358  1.1002
33230SOL    HW1 9620   8.947  10.553   2.653  1.7828 -1.9583  0.8013
33230SOL    HW2 9621   9.038  10.624   2.751  1.4804 -2.0098  1.1233
33231SOL     OW 9622   5.913   7.667   6.446  0.1709 -0.1168 -0.0974
33231SOL    HW1 9623   5.995   7.639   6.486 -0.1070 -1.9847 -0.7612
33231SOL    HW2 9624   5.846   7.645   6.511  0.0631  0.3469 -0.0426
33232SOL     OW 9625   3.467   4.367  12.063  0.1493  0.2461  0.2352
33232SOL    HW1 9626   3.402   4.346  12.130 -0.7953 -0.0388 -0.7489
33232SOL    HW2 9627   3.548   4.327  12.095 -0.1561  0.5554  1.4436
33233SOL     OW 9628   8.807   1.618   3.708 -0.3693  0.0289  0.5937
33233SOL    HW1 9629   8.728   1.568   3.685 -0.9854  0.0032  2.6395
33233SOL    HW2 9630   8.869   1.552   3.740 -0.2043  0.2661  0.7703
33234SOL     OW 9631   5.359   4.980   1.132  0.3864  0.3659 -0.2257
33234SOL    HW1 9632   5.301   5.024   1.071 -1.6051 -0.0130  1.3004
33234SOL    HW2 9633   5.376   4.894   1.093 -0.9154  0.1004 -0.2531
33235SOL     OW 9634  12.113   0.867   0.404 -0.5137 -0.3355  0.6973
33235SOL    HW1 9635  12.068   0.907   0.329  2.3976 -1.6157 -1.9947
33235SOL    HW2 9636  12.082   0.776   0.404  0.5814 -0.7324 -0.0007
33236SOL     OW 9637  12.974   5.819  10.616 -0.3901  0.5042  0.6192
33236SOL    HW1 9638  13.031   5.743  10.623  0.8431  1.4681  1.7204
33236SOL    HW2 9639  12.910   5.808  10.686  0.1589  0.7559  1.1703
33237SOL     OW 9640   6.628   1.679   1.932 -0.4639 -0.2235  0.0774
33237SOL    HW1 9641   6.630   1.749   1.867 -2.0406  0.3407  0.5941
33237SOL    HW2 9642   6.710   1.689   1.981  0.4084 -0.2215 -1.3461
33238SOL     OW 9643  11.214   6.414   0.350 -0.2372 -0.2582  0.3233
33238SOL    HW1 9644  11.275   6.487   0.343 -1.3873  0.7970  1.0548
33238SOL    HW2 9645  11.259   6.342   0.305  0.7441  0.9773 -0.7658
33239SOL     OW 9646   9.954   1.414  12.173  0.3060  0.6438 -0.4707
33239SOL    HW1 9647   9.958   1.503  12.208  0.0861  1.2670 -1.9763
33239SOL    HW2 9648   9.909   1.364  12.241 -0.9823  2.0239 -0.2518
33240SOL     OW 9649   5.607   2.397   7.500  0.4042  0.2664 -0.6359
33240SOL    HW1 9650   5.546   2.460   7.464  1.1133  1.6049  0.4318
33240SOL    HW2 9651   5.569   2.311   7.479 -1.0413  1.0451 -1.2852
33241SOL     OW 9652   0.957   0.921   0.235 -0.5960 -0.2665 -0.5398
33241SOL    HW1 9653   0.893   0.850   0.231 -0.8476 -0.2011  1.5984
33241SOL    HW2 9654   0.963   0.952   0.144 -2.3020 -1.3901 -1.0897
33242SOL     OW 9655   1.604  11.807   9.527 -0.4957  0.0113 -0.3252
33242SOL    HW1 9656   1.545  11.791   9.600 -1.0418  0.7689 -0.5864
33242SOL    HW2 9657   1.683  11.757   9.548 -0.7241  0.0536  0.6734
33243SOL     OW 9658   7.435   2.070   9.898 -0.2342 -0.2645 -0.0459
33243SOL    HW1 9659   7.403   2.067   9.988  3.7789  0.2535  1.6160
33243SOL    HW2 9660   7.471   1.983   9.882  2.0287  0.5810  0.1683
33244SOL     OW 9661  11.390   6.951   1.669 -0.1775 -0.0623 -0.1486
33244SOL    HW1 9662  11.426   6.891   1.605 -1.8614 -0.6781 -0.5677
33244SOL    HW2 9663  11.315   6.905   1.706 -1.3397  1.6481 -0.2581
33245SOL     OW 9664   6.722   0.894   8.142 -0.7670 -0.6557 -0.2062
33245SOL    HW1 9665   6.767   0.826   8.091  1.0335  0.2903  0.0258
33245SOL    HW2 9666   6.763   0.889   8.228  0.9326  2.0057 -0.7412
33246SOL     OW 9667   4.841   5.162   3.857  0.0249  0.0966  0.9629
33246SOL    HW1 9668   4.931   5.148   3.888  0.6054 -1.1488 -1.1195
33246SOL    HW2 9669   4.851   5.215   3.778 -0.8436 -1.8077 -0.5028
33247SOL     OW 9670  12.011   6.568  10.470 -0.1693 -0.4656 -0.5208
33247SOL    HW1 9671  11.926   6.612  10.477 -0.3458 -0.7583 -0.7909
33247SOL    HW2 9672  12.070   6.635  10.437 -0.2455 -0.2031 -0.1375
33248SOL     OW 9673   7.157   2.581   3.706  0.3848  0.0386 -0.2116
33248SOL    HW1 9674   7.123   2.614   3.789  2.3269  1.1223  0.2239
33248SOL    HW2 9675   7.126   2.643   3.640 -1.1407 -0.8108 -0.3496
33249SOL     OW 9676   4.500  11.467   4.929  0.1532  0.0897 -0.5902
33249SOL    HW1 9677   4.461  11.464   5.017  0.2214  2.2450 -0.4403
33249SOL    HW2 9678   4.562  11.394   4.928 -1.5349 -1.4449  0.2881
33250SOL     OW 9679   5.629  13.307   6.626  0.5633 -0.1064  0.3646
33250SOL    HW1 9680   5.652  13.244   6.694  1.9092  0.0215  0.0640
33250SOL    HW2 9681   5.658  13.266   6.545  1.2482  0.7770  0.1444
33251SOL     OW 9682   1.157  11.298   9.382  0.2651 -0.5795 -0.0772
33251SOL    HW1 9683   1.233  11.356   9.383  0.6391 -1.0577  0.6311
33251SOL    HW2 9684   1.082  11.357   9.378  0.6299 -0.0258  0.8280
33252SOL     OW 9685   7.983  10.496   2.758 -0.4892 -0.1789 -0.5333
33252SOL    HW1 9686   8.069  10.524   2.727  1.1717 -3.5105  0.5631
33252SOL    HW2 9687   7.960  10.559   2.826  1.2966  0.5256 -0.5311
33253SOL     OW 9688  13.105  12.326   0.678 -0.1404 -0.3735 -0.2911
33253SOL    HW1 9689  13.082  12.387   0.608 -0.6453 -0.4659 -0.2085
33253SOL    HW2 9690  13.033  12.332   0.740  0.1784 -0.4920  0.0944
33254SOL     OW 9691   3.963  10.927  12.516 -0.0855  0.1488  0.3553
33254SOL    HW1 9692   3.876  10.906  12.553  0.4354  0.5467  1.8832
33254SOL    HW2 9693   3.964  10.881  12.432 -0.7837 -2.0969  1.4780
33255SOL     OW 9694   5.209   5.070   0.355  0.2637  0.8672  0.6443
33255SOL    HW1 9695   5.179   5.073   0.264 -1.7888 -2.0597  1.0845
33255SOL    HW2 9696   5.301   5.044   0.349  0.5447  2.0019 -0.5838
33256SOL     OW 9697   5.365   7.274   1.130 -0.3968 -0.2467  0.2517
33256SOL    HW1 9698   5.297   7.215   1.097  0.2906 -0.1412 -1.4637
33256SOL    HW2 9699   5.377   7.338   1.060  0.8311  0.2841  0.9153
33257SOL     OW 9700   7.595   9.767   3.876 -0.3290 -0.1057 -0.1354
33257SOL    HW1 9701   7.668   9.778   3.816  0.0285 -0.4534  0.2285
33257SOL    HW2 9702   7.577   9.673   3.874  0.6004 -0.3393  1.3516
33258SOL     OW 9703   6.649   7.858  10.832  0.0801  0.2302  0.0345
33258SOL    HW1 9704   6.736   7.861  10.872 -0.2042  0.1214  0.6737
33258SOL    HW2 9705   6.590   7.835  10.904 -0.2806 -1.2725 -0.6961
33259SOL     OW 9706   2.066   5.109   6.846  0.5706 -0.3160  0.0387
33259SOL    HW1 9707   1.998   5.176   6.845 -0.0277 -0.9041  0.5192
33259SOL    HW2 9708   2.060   5.068   6.759  0.1763 -0.4948  0.1477
33260SOL     OW 9709  11.863   6.557  10.018  0.1258 -0.1410 -0.1647
33260SOL    HW1 9710  11.930   6.512  10.071 -0.3869 -0.4070  0.2740
33260SOL    HW2 9711  11.801   6.487   9.995  0.2901 -0.0094 -1.0511
33261SOL     OW 9712  10.842   4.827   0.827  0.4563  0.0442 -0.3103
33261SOL    HW1 9713  10.813   4.808   0.917  0.6920  0.3370 -0.1713
33261SOL    HW2 9714  10.921   4.773   0.816 -0.4819 -1.2655 -0.9170
33262SOL     OW 9715   6.851   2.184  12.836 -0.1934 -0.0862 -0.0789
33262SOL    HW1 9716   6.839   2.090  12.838 -1.0594 -0.0059 -0.8376
33262SOL    HW2 9717   6.845   2.208  12.744 -0.5476  0.7826  0.1538
33263SOL     OW 9718  10.304   2.779  11.111 -0.5512  0.5377  0.2688
33263SOL    HW1 9719  10.266   2.696  11.083  0.0897 -0.4356  2.0663
33263SOL    HW2 9720  10.396   2.772  11.087 -0.0359 -0.2253  2.1887
33264SOL     OW 9721   0.694  13.282   4.453 -0.2293 -0.0724 -0.7903
33264SOL    HW1 9722   0.660  13.204   4.498  0.0290  0.5094  0.4498
33264SOL    HW2 9723   0.765  13.249   4.397 -0.3576 -0.7691 -0.5458
33265SOL     OW 9724  11.177   8.807   3.932  0.2421  0.0975  0.3351
33265SOL    HW1 9725  11.141   8.726   3.966  0.8097 -0.3941 -0.2108
33265SOL    HW2 9726  11.212   8.784   3.846  0.0207  1.0188 -0.0149
33266SOL     OW 9727   2.589   9.196  10.807  0.0906  0.3316  0.2963
33266SOL    HW1 9728   2.656   9.239  10.861  1.0925  0.9529 -1.3637
33266SOL    HW2 9729   2.630   9.114  10.780 -0.7601 -0.4085  1.1993
33267SOL     OW 9730   3.458  11.589  10.456 -0.2496  0.1657  0.6075
33267SOL    HW1 9731   3.483  11.639  10.378  0.6875  0.8764  1.3398
33267SOL    HW2 9732   3.504  11.632  10.528 -0.6377 -0.8342  1.4807
33268SOL     OW 9733   4.152  10.498  12.613 -0.0404  1.2150 -0.3183
33268SOL    HW1 9734   4.240  10.536  12.605  0.4200  0.1114 -0.6493
33268SOL    HW2 9735   4.096  10.558  12.564  0.8628  0.8514 -1.8670
33269SOL     OW 9736   0.446   1.818   7.224 -0.3822  0.2246 -0.0349
33269SOL    HW1 9737   0.433   1.725   7.207  0.7861 -0.0377  0.4425
33269SOL    HW2 9738   0.362   1.858   7.200 -0.6401 -0.8314 -1.0127
33270SOL     OW 9739   6.828   2.518   7.382 -0.1902  0.0859 -0.2002
33270SOL    HW1 9740   6.890   2.586   7.357 -0.0766  0.5766  1.3233
33270SOL    HW2 9741   6.849   2.444   7.325  0.5283  0.8955 -1.0032
33271SOL     OW 9742   1.302   3.377   4.403  0.1627  0.0297 -0.0365
33271SOL    HW1 9743   1.328   3.411   4.489  0.6386 -0.0775 -0.1333
33271SOL    HW2 9744   1.367   3.413   4.343 -0.2254  0.1806 -0.3661
33272SOL     OW 9745   2.026   6.296   9.770  0.3378  0.1553 -0.1334
33272SOL    HW1 9746   2.083   6.275   9.844 -1.0335 -0.5337  0.7580
33272SOL    HW2 9747   2.070   6.257   9.694 -0.2474 -2.8368  0.9364
33273SOL     OW 9748  11.141   3.346   0.011  0.4122 -0.1889 -0.1118
33273SOL    HW1 9749  11.220   3.393  -0.017  0.7940 -1.2422 -0.8977
33273SOL    HW2 9750  11.144   3.264  -0.039 -0.1315 -1.1260  1.3440
33274SOL     OW 9751   1.066  12.583   0.915 -0.7793 -0.3419  0.1747
33274SOL    HW1 9752   1.160  12.593   0.900 -0.1206 -3.1969  1.5717
33274SOL    HW2 9753   1.031  12.556   0.830  0.0038 -0.9715  0.0379
33275SOL     OW 9754   5.183   9.533   8.469 -0.5158  0.2489 -0.1497
33275SOL    HW1 9755   5.256   9.471   8.471  1.0368  2.0095  0.0743
33275SOL    HW2 9756   5.186   9.572   8.382 -0.7781  0.7854  0.0766
33276SOL     OW 9757  11.062  13.173   8.330 -0.0540  0.6213  0.2427
33276SOL    HW1 9758  11.139  13.225   8.356 -0.4408  1.1894  0.2577
33276SOL    HW2 9759  11.044  13.118   8.406 -0.1797  1.1048  0.5689
33277SOL     OW 9760   5.285  10.848   8.975 -0.1446  0.0426 -0.0013
33277SOL    HW1 9761   5.232  10.927   8.966  0.1094  0.4401  1.7255
33277SOL    HW2 9762   5.223  10.780   9.001  0.0792  0.3747  1.4468
33278SOL     OW 9763  12.332   6.648  12.435  0.1698 -0.0622  0.3813
33278SOL    HW1 9764  12.272   6.589  12.480  0.1547 -1.7864 -1.7730
33278SOL    HW2 9765  12.410   6.595  12.419  0.3571  0.6445 -1.1745
33279SOL     OW 9766   6.933   9.302  10.242  0.1140  0.1650 -0.0013
33279SOL    HW1 9767   6.865   9.353  10.286 -0.9794 -1.6938  0.5999
33279SOL    HW2 9768   6.892   9.275  10.159  0.2483 -0.6178  0.1740
33280SOL     OW 9769   5.563   5.862   3.132  0.8424 -0.2195  0.1480
33280SOL    HW1 9770   5.530   5.792   3.189  1.0202 -0.3946  0.0395
33280SOL    HW2 9771   5.641   5.824   3.092  1.3718  0.3072  0.6580
33281SOL     OW 9772   8.712  10.506  10.370 -0.1261  0.2856  0.2090
33281SOL    HW1 9773   8.689  10.529  10.460  0.6173  2.4535 -0.0783
33281SOL    HW2 9774   8.753  10.420  10.376 -1.8413 -0.5014  1.6315
33282SOL     OW 9775   4.168   8.474   1.572 -0.5042  0.3367 -0.4998
33282SOL    HW1 9776   4.140   8.414   1.642  0.5744 -0.9339 -1.1076
33282SOL    HW2 9777   4.114   8.551   1.584 -0.5621  0.0421  1.5648
33283SOL     OW 9778  12.999   6.126   5.240  0.4468  0.0813 -0.1750
33283SOL    HW1 9779  12.971   6.213   5.267 -1.4017  0.0186 -1.7036
33283SOL    HW2 9780  12.965   6.068   5.309  0.8030  0.4543  0.3202
33284SOL     OW 9781   8.567   0.161   3.770 -0.2627 -0.3464 -0.3452
33284SOL    HW1 9782   8.556   0.169   3.865 -0.8280 -0.0126 -0.4370
33284SOL    HW2 9783   8.594   0.249   3.742  0.1359 -0.5032 -0.4671
33285SOL     OW 9784   1.743   3.772   0.333  0.3618 -0.5647  0.2049
33285SOL    HW1 9785   1.675   3.823   0.289 -0.6235 -1.2455  0.8810
33285SOL    HW2 9786   1.822   3.824   0.325  0.6409 -1.2978 -3.7020
33286SOL     OW 9787   2.493   1.579  10.278  0.1032  0.3084  0.0942
33286SOL    HW1 9788   2.505   1.590  10.372 -0.7421 -0.7556  0.3442
33286SOL    HW2 9789   2.433   1.505  10.269  0.0188  0.5026 -1.2791
33287SOL     OW 9790  12.110   5.524   6.393  0.8376 -0.4891 -0.2165
33287SOL    HW1 9791  12.199   5.500   6.420  1.7404  0.6254 -1.9587
33287SOL    HW2 9792  12.124   5.586   6.321 -1.3676  0.2310 -0.0853
33288SOL     OW 9793   2.387  11.456   0.645 -0.2121  0.5070  0.0547
33288SOL    HW1 9794   2.436  11.529   0.682 -0.0157 -0.0021  0.8270
33288SOL    HW2 9795   2.321  11.435   0.711 -1.2884  0.9829 -0.8381
33289SOL     OW 9796   9.266  12.278   6.609  0.4507 -0.5097 -0.4768
33289SOL    HW1 9797   9.335  12.280   6.675  0.9491 -0.9747 -0.9759
33289SOL    HW2 9798   9.201  12.341   6.641  0.9348 -0.3268  0.1769
33290SOL     OW 9799   8.958  12.541   8.237  0.5482  0.6170 -0.1884
33290SOL    HW1 9800   8.899  12.527   8.163  0.2035 -1.8277  0.4821
33290SOL    HW2 9801   8.986  12.632   8.227 -0.1471  0.6385 -2.8260
33291SOL     OW 9802   8.428   0.715  10.948  0.0692  0.0638 -0.0395
33291SOL    HW1 9803   8.421   0.640  10.889 -1.9257 -2.7136  3.2992
33291SOL    HW2 9804   8.341   0.756  10.946  0.9797  2.0990 -1.4207
33292SOL     OW 9805   8.163   3.873   0.729 -0.3138  0.1169 -0.6370
33292SOL    HW1 9806   8.153   3.873   0.634  2.3003 -2.3891 -1.0444
33292SOL    HW2 9807   8.103   3.804   0.759 -0.6893  0.4930 -0.5086
33293SOL     OW 9808  12.377  11.118   0.644 -0.7082  0.6634  0.5449
33293SOL    HW1 9809  12.311  11.079   0.586 -1.3346 -0.2996  1.8766
33293SOL    HW2 9810  12.461  11.089   0.607 -1.1325 -1.6851  1.2433
33294SOL     OW 9811   6.933   9.527   3.685  0.0879  0.3540 -0.8420
33294SOL    HW1 9812   6.907   9.589   3.617 -2.8131  1.0244  0.7055
33294SOL    HW2 9813   6.889   9.445   3.661 -1.8408  0.8726  0.6261
33295SOL     OW 9814   9.708   1.279   4.967  0.3634 -0.5757  0.3594
33295SOL    HW1 9815   9.776   1.213   4.953  0.1892 -0.2409 -2.8606
33295SOL    HW2 9816   9.625   1.233   4.957  0.2322 -0.0513 -1.2000
33296SOL     OW 9817   0.566   4.234   0.631  0.4312 -0.2797  0.4665
33296SOL    HW1 9818   0.537   4.170   0.566  0.9299  0.6561 -0.7230
33296SOL    HW2 9819   0.648   4.268   0.595 -0.3950  1.8381  0.4840
33297SOL     OW 9820   4.813   6.391   8.158  0.1650  0.3499  0.7103
33297SOL    HW1 9821   4.791   6.437   8.077 -0.6951 -0.7668  0.2721
33297SOL    HW2 9822   4.892   6.341   8.137 -0.1912 -0.1230  0.4735
33298SOL     OW 9823  12.268   0.010   6.683  0.2422 -0.3943  0.1036
33298SOL    HW1 9824  12.345  -0.010   6.737  1.3589  1.3726 -0.7119
33298SOL    HW2 9825  12.221   0.077   6.734 -0.5031 -1.1235  0.3784
33299SOL     OW 9826   1.130   0.278  12.475  0.3766 -0.3384 -0.2257
33299SOL    HW1 9827   1.182   0.312  12.402  0.8782  0.3323  0.4199
33299SOL    HW2 9828   1.150   0.185  12.477 -0.4887 -0.5806 -1.6071
33300SOL     OW 9829   8.813   4.510   3.819  0.2888  0.0782  0.6758
33300SOL    HW1 9830   8.730   4.523   3.774  0.1608 -1.0664  0.5500
33300SOL    HW2 9831   8.879   4.520   3.750  0.1746 -0.2835  0.5108
33301SOL     OW 9832  11.979   6.492   2.337 -0.3817  0.1669 -0.4288
33301SOL    HW1 9833  11.977   6.459   2.427  0.1987 -2.4864 -1.2946
33301SOL    HW2 9834  12.066   6.531   2.327  0.1434 -0.9200 -0.2558
33302SOL     OW 9835   3.948   4.353   6.487  0.1111 -0.2774 -0.0101
33302SOL    HW1 9836   3.942   4.272   6.538 -0.3361 -0.6977 -0.7191
33302SOL    HW2 9837   3.880   4.409   6.522  1.1566  0.2597  1.2675
33303SOL     OW 9838   3.062   0.947   0.525 -0.2780 -0.5699 -0.5738
33303SOL    HW1 9839   3.126   0.937   0.595 -0.3315 -0.2228 -0.4774
33303SOL    HW2 9840   3.114   0.965   0.447 -0.2406 -0.6113 -0.5590
33304SOL     OW 9841   4.655   2.881  12.613 -0.2414 -0.4518  0.4099
33304SOL    HW1 9842   4.693   2.795  12.598  1.2692  0.3045 -0.2539
33304SOL    HW2 9843   4.568   2.863  12.649  0.6583 -2.2244  1.8285
33305SOL     OW 9844   0.322   2.504   5.202  0.0156 -0.2062  0.7354
33305SOL    HW1 9845   0.418   2.500   5.206  0.0320  0.3660  0.9397
33305SOL    HW2 9846   0.294   2.413   5.212  0.4791 -0.1857  2.7531
33306SOL     OW 9847   1.803   9.046   5.748  0.6110  0.0080  0.0841
33306SOL    HW1 9848   1.814   8.966   5.696  1.2433 -1.1593  1.9081
33306SOL    HW2 9849   1.843   9.115   5.695  3.0340 -1.4755 -0.1612
33307SOL     OW 9850   7.683  12.328   3.942 -0.0967  0.3165  0.2308
33307SOL    HW1 9851   7.640  12.401   3.900  0.0670  0.0091 -0.4865
33307SOL    HW2 9852   7.767  12.319   3.896 -0.2798 -0.5588  0.0367
33308SOL     OW 9853   4.934   1.390  11.091 -0.0235  0.1701  0.0763
33308SOL    HW1 9854   4.884   1.312  11.116  0.8426 -0.4476 -0.0481
33308SOL    HW2 9855   4.882   1.464  11.122 -0.4572 -0.4842  0.9444
33309SOL     OW 9856   2.605   0.172  11.376  0.1280 -0.2818 -0.0347
33309SOL    HW1 9857   2.567   0.088  11.403 -2.2827  0.3441 -1.2315
33309SOL    HW2 9858   2.681   0.148  11.322  0.8569 -1.6099  1.4811
33310SOL     OW 9859   0.029   0.662   6.376 -0.0100 -0.0349 -0.8131
33310SOL    HW1 9860   0.064   0.713   6.303 -0.2026 -1.9780 -2.3428
33310SOL    HW2 9861   0.105   0.644   6.431  0.3027  0.7163 -0.9879
33311SOL     OW 9862   4.917  10.814  11.643 -0.8687 -0.4340 -0.0679
33311SOL    HW1 9863   4.930  10.720  11.655 -2.4936 -0.6737 -0.0269
33311SOL    HW2 9864   4.981  10.838  11.576  0.6434 -1.2462  1.0262
33312SOL     OW 9865   3.899   9.166   3.356 -0.4293 -0.8755  0.1777
33312SOL    HW1 9866   3.818   9.132   3.394 -1.7645  2.4786  0.6784
33312SOL    HW2 9867   3.928   9.234   3.417  1.5294 -0.4174 -1.1426
33313SOL     OW 9868   6.620   9.152   8.105 -0.1523 -0.6742 -0.1562
33313SOL    HW1 9869   6.683   9.081   8.122 -1.1629 -1.8775 -1.2284
33313SOL    HW2 9870   6.673   9.225   8.074  0.7551 -1.5343 -0.6697
33314SOL     OW 9871   5.579   1.545   6.847  0.4033  0.7955 -0.1414
33314SOL    HW1 9872   5.532   1.518   6.926 -1.6111  1.2290 -1.1408
33314SOL    HW2 9873   5.616   1.464   6.812  1.4077  0.6129  1.2622
33315SOL     OW 9874   3.898  10.503  11.177 -0.0490 -0.5192  0.2751
33315SOL    HW1 9875   3.958  10.573  11.151  0.3812 -1.1768 -0.5498
33315SOL    HW2 9876   3.940  10.462  11.252 -0.5991  0.4718  1.1612
33316SOL     OW 9877  10.721   3.403  13.192  1.0945  0.2611  0.2186
33316SOL    HW1 9878  10.700   3.493  13.219  0.5374  0.1775  0.0723
33316SOL    HW2 9879  10.692   3.349  13.266 -0.8615 -0.0115 -0.6670
33317SOL     OW 9880  11.902   9.910  10.447 -0.5285 -0.0493  0.0235
33317SOL    HW1 9881  11.866   9.879  10.530  0.0563 -1.7050 -0.3137
33317SOL    HW2 9882  11.938   9.997  10.468 -0.9695 -0.1659  1.3354
33318SOL     OW 9883   1.542   9.607   3.705 -0.2099  0.0325 -0.4714
33318SOL    HW1 9884   1.532   9.686   3.757  0.8393  0.6085 -1.1222
33318SOL    HW2 9885   1.634   9.605   3.680 -0.0736 -1.7134  0.0215
33319SOL     OW 9886   8.763   6.787  12.225  0.5078 -0.4884 -0.4210
33319SOL    HW1 9887   8.705   6.853  12.187 -0.4443 -0.7642  0.4792
33319SOL    HW2 9888   8.811   6.834  12.293 -0.9876 -0.9123  0.9972
33320SOL     OW 9889  12.588   2.940   5.717 -0.4877  0.2918  0.8095
33320SOL    HW1 9890  12.620   2.862   5.763  0.4254  0.6567  0.8222
33320SOL    HW2 9891  12.510   2.911   5.671  0.6738 -1.0335 -0.4248
33321SOL     OW 9892   2.117   3.369  10.125  0.4429 -0.0167  0.3814
33321SOL    HW1 9893   2.108   3.369  10.220 -3.4991 -1.6241  0.2332
33321SOL    HW2 9894   2.148   3.281  10.103 -1.0307 -0.5166  0.1707
33322SOL     OW 9895   3.539   1.480   7.015  0.3667 -0.5836  0.0586
33322SOL    HW1 9896   3.525   1.438   6.930  0.0660 -1.4744  0.5334
33322SOL    HW2 9897   3.531   1.409   7.079 -0.3849  0.2327  0.9147
33323SOL     OW 9898   4.792   4.739  11.063  0.4123 -0.0644 -0.3928
33323SOL    HW1 9899   4.880   4.760  11.092  0.2353  0.2941 -0.1020
33323SOL    HW2 9900   4.803   4.706  10.974  0.9695 -1.3164  0.1241
33324SOL     OW 9901   0.696   7.011   2.862 -0.1196  1.0480 -0.2262
33324SOL    HW1 9902   0.709   6.927   2.906 -1.3057  1.3267  0.7043
33324SOL    HW2 9903   0.713   6.993   2.770 -2.1530 -0.6486 -0.3284
33325SOL     OW 9904   1.070   8.442   8.630  0.4800 -0.2108 -0.3188
33325SOL    HW1 9905   1.027   8.428   8.715  1.0427 -1.6156 -0.2537
33325SOL    HW2 9906   1.022   8.387   8.569 -0.3092  1.2568 -1.0782
33326SOL     OW 9907   5.468   8.543   9.191 -0.0542  0.8141  0.1065
33326SOL    HW1 9908   5.416   8.609   9.145  1.3258  0.4822 -2.0627
33326SOL    HW2 9909   5.553   8.585   9.205 -0.3290  0.7930  2.1980
33327SOL     OW 9910   4.864  11.542   1.718  0.2016 -0.3261  0.2875
33327SOL    HW1 9911   4.860  11.633   1.689 -0.0245 -0.2841  0.4471
33327SOL    HW2 9912   4.803  11.496   1.661  1.4146 -0.6553 -0.7881
33328SOL     OW 9913   0.901   7.329   1.301 -0.3054 -0.0378 -0.3743
33328SOL    HW1 9914   0.973   7.375   1.257 -0.2304  1.8275  1.5412
33328SOL    HW2 9915   0.849   7.398   1.341 -1.9121 -1.4954  0.1747
33329SOL     OW 9916   3.072   1.685   4.988  0.1651 -0.6217  0.1852
33329SOL    HW1 9917   3.071   1.759   5.048  0.9177 -0.2918 -0.2039
33329SOL    HW2 9918   3.143   1.629   5.020 -0.3325 -1.1345  0.4168
33330SOL     OW 9919   2.498   3.633   7.860 -0.0407  0.4198  0.1545
33330SOL    HW1 9920   2.559   3.559   7.862  0.3268  0.7183  0.0911
33330SOL    HW2 9921   2.463   3.637   7.949  1.3207  1.3050  0.6775
33331SOL     OW 9922   2.469   5.200   4.618 -0.3034 -0.6458  0.4654
33331SOL    HW1 9923   2.383   5.239   4.629  0.6714  1.9808 -0.3472
33331SOL    HW2 9924   2.498   5.231   4.532  0.7796 -2.9133 -0.0613
33332SOL     OW 9925   8.145  12.847   0.734 -0.6852  0.3004 -0.4631
33332SOL    HW1 9926   8.161  12.941   0.742 -1.4804  0.3593  0.7214
33332SOL    HW2 9927   8.221  12.806   0.776 -2.2941  0.5381  3.0467
33333SOL     OW 9928   2.987  10.400   9.035  0.3558 -0.3924  0.7993
33333SOL    HW1 9929   2.902  10.411   9.077 -0.7888  0.5958 -1.5595
33333SOL    HW2 9930   3.022  10.489   9.028 -1.1011  0.0872 -3.1902
33334SOL     OW 9931   3.827   1.108  10.770  0.5672 -0.9119 -0.3777
33334SOL    HW1 9932   3.812   1.203  10.768  0.2286 -0.9719 -1.2252
33334SOL    HW2 9933   3.819   1.085  10.863  1.8122  0.0549 -0.0103
33335SOL     OW 9934   1.481   9.227   3.859 -0.3834  0.1132 -0.3013
33335SOL    HW1 9935   1.559   9.273   3.829 -1.8329  1.0696 -2.9087
33335SOL    HW2 9936   1.514   9.144   3.892  1.8598  1.1314  0.2779
33336SOL     OW 9937   0.764  11.781   1.850  0.8893  0.2992 -0.5672
33336SOL    HW1 9938   0.835  11.717   1.847 -0.5401 -1.3260 -0.9477
33336SOL    HW2 9939   0.699  11.743   1.909 -0.3880  0.9659 -1.5011
33337SOL     OW 9940   8.765   9.212  11.886  0.2117  0.0864 -0.1586
33337SOL    HW1 9941   8.676   9.175  11.889 -0.4121  1.4795 -0.5769
33337SOL    HW2 9942   8.804   9.174  11.807 -0.2098 -0.1088 -0.2780
33338SOL     OW 9943   8.844   2.061   4.778  0.1831 -0.1555 -0.2909
33338SOL    HW1 9944   8.882   2.147   4.797  1.5052 -1.0227  1.2639
33338SOL    HW2 9945   8.905   2.021   4.716  1.4717 -1.2319  1.5802
33339SOL     OW 9946   0.154   1.680   0.483 -0.0971 -0.2278 -0.5777
33339SOL    HW1 9947   0.247   1.660   0.480 -0.2665 -0.9529 -1.7327
33339SOL    HW2 9948   0.118   1.642   0.403 -0.5985  4.1074 -2.7327
33340SOL     OW 9949  12.588  10.941   5.468  0.3185  0.1689 -0.7668
33340SOL    HW1 9950  12.581  10.846   5.467 -0.0297  0.1388  0.8895
33340SOL    HW2 9951  12.503  10.972   5.435 -0.4680 -0.1374  0.8492
33341SOL     OW 9952  12.180   3.558   2.301  0.2574  0.2126  0.2384
33341SOL    HW1 9953  12.144   3.564   2.213  0.3811  0.2075  0.1874
33341SOL    HW2 9954  12.104   3.554   2.358  0.1785  0.0090  0.1181
33342SOL     OW 9955  13.255   8.378  10.517  0.0690 -0.0356  0.2939
33342SOL    HW1 9956  13.330   8.325  10.546 -0.6124  0.1558  2.6477
33342SOL    HW2 9957  13.279   8.468  10.541 -0.5704  0.1306  0.3184
33343SOL     OW 9958  10.769   1.738  12.977 -0.2387  1.0247  0.7858
33343SOL    HW1 9959  10.703   1.804  12.955 -0.3680  0.9987  1.0861
33343SOL    HW2 9960  10.719   1.668  13.019 -0.9710 -1.6107 -3.8498
33344SOL     OW 9961   7.211   0.289   0.625 -0.0519  0.4271 -0.0904
33344SOL    HW1 9962   7.252   0.205   0.647 -0.6387 -0.2768 -1.5374
33344SOL    HW2 9963   7.148   0.304   0.695  0.6797  0.0962  0.6479
33345SOL     OW 9964   3.608   4.888  12.081  0.3943  0.4251  0.0336
33345SOL    HW1 9965   3.513   4.874  12.084 -0.0843  3.1373  0.2338
33345SOL    HW2 9966   3.627   4.904  11.989  0.3964  1.1618  0.1514
33346SOL     OW 9967   9.254   3.294   7.825  0.1605  0.8096  0.3162
33346SOL    HW1 9968   9.162   3.313   7.806 -0.3134 -0.8726  0.7833
33346SOL    HW2 9969   9.284   3.243   7.749  0.5609  0.9006  0.4126
33347SOL     OW 9970   1.806  12.677  11.496  0.2496  0.4348 -0.2956
33347SOL    HW1 9971   1.797  12.672  11.591  0.5527  1.2262 -0.2158
33347SOL    HW2 9972   1.896  12.648  11.479  1.1393  2.8375 -0.0651
33348SOL     OW 9973  11.085   4.474   9.564 -0.1844 -0.2349  0.6850
33348SOL    HW1 9974  11.083   4.539   9.494  1.0618 -2.2545 -1.3557
33348SOL    HW2 9975  10.993   4.462   9.588 -0.4891  1.7882  0.7344
33349SOL     OW 9976  13.080   6.093   1.592 -0.4599  0.1990  0.2273
33349SOL    HW1 9977  13.125   6.028   1.646  0.5614  1.3949  0.8552
33349SOL    HW2 9978  12.987   6.079   1.611 -0.2862 -1.2580  0.1136
33350SOL     OW 9979   2.357   2.626   1.888  0.5786 -0.0217  0.5952
33350SOL    HW1 9980   2.426   2.685   1.858 -0.1992 -0.3728 -2.1614
33350SOL    HW2 9981   2.396   2.539   1.881 -0.2772 -0.2807 -1.6622
33351SOL     OW 9982   5.020   6.732   5.939 -0.2338  0.1537 -0.1941
33351SOL    HW1 9983   5.001   6.691   5.855  0.1112 -0.7393  0.1544
33351SOL    HW2 9984   4.987   6.671   6.004  0.0606  0.5464  0.3360
33352SOL     OW 9985   4.260   0.107   4.416 -0.2957 -0.0182 -0.3693
33352SOL    HW1 9986   4.273   0.013   4.418 -1.0365 -0.1879 -1.9642
33352SOL    HW2 9987   4.171   0.120   4.451 -0.0041  0.1383  0.3216
33353SOL     OW 9988   5.992   2.528   4.128 -0.2149 -0.8610 -0.4420
33353SOL    HW1 9989   6.055   2.470   4.086  1.0748 -0.3003  0.6577
33353SOL    HW2 9990   5.984   2.602   4.067  1.6226 -0.0589  0.2332
33354SOL     OW 9991  12.058  12.947   9.817 -0.4965 -0.3148 -0.3016
33354SOL    HW1 9992  12.003  13.015   9.856  0.6098  1.0778 -1.0452
33354SOL    HW2 9993  12.118  12.921   9.888 -0.6757 -0.2373 -0.1209
33355SOL     OW 9994   8.115   9.960   1.530 -0.8638 -0.3390  0.6716
33355SOL    HW1 9995   8.068   9.885   1.494  1.3654 -1.9792  0.9595
33355SOL    HW2 9996   8.065   9.986   1.608 -2.7176 -0.2305 -0.4909
33356SOL     OW 9997   2.416   7.805  10.482  0.7496  0.1555 -0.5492
33356SOL    HW1 9998   2.455   7.833  10.399  2.8310  1.3401  0.7420
33356SOL    HW2 9999   2.491   7.787  10.539 -0.5843  1.1017  1.6271
33357SOL     OW10000   7.339   9.652   6.235 -0.6568  0.4883 -0.3410
33357SOL    HW110001   7.408   9.588   6.218 -2.2001 -1.7493  1.2217
33357SOL    HW210002   7.370   9.701   6.311 -0.3072  0.2719 -0.3423
33358SOL     OW10003   1.779   0.580  12.403  0.2415 -0.3128  0.1449
33358SOL    HW110004   1.872   0.562  12.392  0.5685  1.0899  0.4297
33358SOL    HW210005   1.740   0.495  12.424  1.8043 -0.6088  2.2177
33359SOL     OW10006   2.044  10.561   9.722  0.0736 -0.1168 -0.4478
33359SOL    HW110007   1.963  10.571   9.773  0.5838  2.3562  0.0000
33359SOL    HW210008   2.112  10.546   9.788  0.3719  0.6094 -0.5834
33360SOL     OW10009  11.819   5.318   4.039  0.0405  0.8563 -0.1220
33360SOL    HW110010  11.858   5.346   3.957 -1.1788 -0.8204 -1.3447
33360SOL    HW210011  11.729   5.352   4.037 -0.3310 -0.0744 -0.0000
33361SOL     OW10012   5.289   2.424   4.954 -0.0002  0.4331  0.7056
33361SOL    HW110013   5.243   2.431   5.038  0.8608 -2.2445  1.5322
33361SOL    HW210014   5.247   2.350   4.911 -0.5914  1.9283 -1.4132
33362SOL     OW10015   3.847   6.850   7.086  0.3424 -0.0832  0.1223
33362SOL    HW110016   3.893   6.766   7.085 -2.4901 -1.7910 -0.6766
33362SOL    HW210017   3.768   6.834   7.033 -1.0285  2.6687  1.1408
33363SOL     OW10018  10.560   6.494   6.214 -0.0614 -0.1092 -0.1993
33363SOL    HW110019  10.591   6.437   6.285  1.4838 -0.0843 -0.8129
33363SOL    HW210020  10.618   6.570   6.217 -0.6858  0.4003 -0.8012
33364SOL     OW10021   3.232   9.010  10.718  0.1402 -0.4157  0.2915
33364SOL    HW110022   3.177   9.086  10.740 -0.0014 -0.1357 -0.9369
33364SOL    HW210023   3.224   8.952  10.794 -2.9672 -0.9971 -0.3298
33365SOL     OW10024   4.081   0.100   6.779 -0.4351 -0.1689  0.1884
33365SOL    HW110025   4.128   0.097   6.696  1.5511  0.7346  1.1972
33365SOL    HW210026   4.077   0.008   6.807 -0.2323 -0.3757 -0.4417
33366SOL     OW10027   7.071  12.064  12.983 -0.2940 -0.0266  0.5515
33366SOL    HW110028   7.033  12.148  12.958 -0.8899 -0.6184 -0.6343
33366SOL    HW210029   7.154  12.060  12.936 -0.4216 -0.2317  0.3381
33367SOL     OW10030   3.618   2.929   4.730  0.0138  0.4122  0.2840
33367SOL    HW110031   3.532   2.887   4.738  0.1577 -0.2388 -1.2383
33367SOL    HW210032   3.602   3.020   4.755 -1.5524  0.7450 -1.6829
33368SOL     OW10033  13.039  10.705   6.017 -0.3302 -0.0479  0.1254
33368SOL    HW110034  13.008  10.767   6.084 -0.1944  0.4976 -0.3047
33368SOL    HW210035  12.961  10.680   5.968 -0.2807  0.3565 -0.1652
33369SOL     OW10036   7.829   3.979  11.270 -0.2724  0.6590 -0.2727
33369SOL    HW110037   7.827   3.914  11.340  0.6330  0.7727 -0.1294
33369SOL    HW210038   7.897   3.949  11.211 -1.3450  0.3113 -1.3737
33370SOL     OW10039   7.918   1.177   1.774  0.2752 -0.5315 -0.4414
33370SOL    HW110040   7.884   1.240   1.837  2.7036 -1.0444  1.5622
33370SOL    HW210041   7.924   1.095   1.823  1.1500 -1.2488 -1.6825
33371SOL     OW10042   4.708  12.216   0.259 -0.1393  0.5091  0.1411
33371SOL    HW110043   4.769  12.145   0.277 -0.4449 -0.2807 -1.7248
33371SOL    HW210044   4.753  12.271   0.195 -0.4153  1.3065  0.6144
33372SOL     OW10045   2.201   9.613   8.592 -0.3049  0.1320  0.0585
33372SOL    HW110046   2.212   9.527   8.552  1.0011  0.8819 -1.3189
33372SOL    HW210047   2.206   9.597   8.686  0.0287 -1.2778 -0.1824
33373SOL     OW10048   0.528  10.030   9.056  0.1741  0.0151  0.3050
33373SOL    HW110049   0.493  10.091   9.121 -0.1158 -0.0468  0.2105
33373SOL    HW210050   0.611  10.001   9.093  0.6994  1.0663 -0.0146
33374SOL     OW10051   2.071  13.217   5.006  1.2832  0.0761  0.1875
33374SOL    HW110052   1.979  13.219   4.982  1.5265  1.2641 -0.7770
33374SOL    HW210053   2.087  13.127   5.032 -0.3303  0.0397  1.1806
33375SOL     OW10054   9.455   9.323   4.164  0.1919  0.2088 -0.4833
33375SOL    HW110055   9.363   9.345   4.147 -0.6164 -2.0974  0.5641
33375SOL    HW210056   9.474   9.363   4.248  0.3078  1.0557 -0.9003
33376SOL     OW10057   9.180  12.109  13.188 -0.2172  0.5459  0.3915
33376SOL    HW110058   9.211  12.169  13.255  1.5354 -0.5268  0.6030
33376SOL    HW210059   9.194  12.155  13.105  3.2447 -0.2966  0.3707
33377SOL     OW10060   5.592   1.840   8.366  0.0768  0.2482 -0.0093
33377SOL    HW110061   5.645   1.823   8.444  1.9461  0.8533 -1.0709
33377SOL    HW210062   5.567   1.932   8.374 -1.0631 -0.0958  0.6022
33378SOL     OW10063   2.681  10.529   9.795  0.2135 -0.1762 -0.4047
33378SOL    HW110064   2.703  10.519   9.888 -1.4088 -0.7236 -0.0551
33378SOL    HW210065   2.732  10.461   9.751  0.3821 -0.4447  0.1888
33379SOL     OW10066   8.470   4.415  12.245  1.2138  0.3007  0.3486
33379SOL    HW110067   8.438   4.425  12.335  0.8757  2.1112  0.0848
33379SOL    HW210068   8.510   4.500  12.225  1.2006 -0.0359 -1.2287
33380SOL     OW10069   9.664   9.821   8.784  0.9793 -0.0301  0.3236
33380SOL    HW110070   9.666   9.728   8.807 -0.1009 -0.3073 -0.6052
33380SOL    HW210071   9.729   9.830   8.715 -0.2003 -0.4947 -0.8804
33381SOL     OW10072   4.906  11.220   9.322 -0.0233  0.0036 -0.0394
33381SOL    HW110073   4.996  11.246   9.340 -0.1754  0.6990 -0.2557
33381SOL    HW210074   4.864  11.300   9.288 -1.3883  0.4171  2.3956
33382SOL     OW10075   6.699   8.690   9.191 -0.1703 -0.6921 -0.9409
33382SOL    HW110076   6.673   8.780   9.212  1.1921 -0.0892 -1.6865
33382SOL    HW210077   6.696   8.686   9.096  2.2434 -0.5992 -1.0849
33383SOL     OW10078   7.541   2.846   0.036 -0.4700 -0.7921 -0.1964
33383SOL    HW110079   7.507   2.856  -0.053  0.7643 -2.1692 -0.8776
33383SOL    HW210080   7.506   2.920   0.085 -0.3370  0.5785 -2.0937
33384SOL     OW10081   1.227   2.636   4.343  0.0168 -0.3358 -0.0529
33384SOL    HW110082   1.215   2.562   4.403 -2.2317 -0.3086 -0.4075
33384SOL    HW210083   1.314   2.621   4.305 -0.6869 -3.3000 -0.7755
33385SOL     OW10084   9.708   5.030  11.048  0.6127  0.1493 -0.1723
33385SOL    HW110085   9.692   5.082  11.126  1.3339  0.2564 -0.0841
33385SOL    HW210086   9.772   4.965  11.076 -0.7353 -1.1948 -0.1187
33386SOL     OW10087   4.369  10.680  10.367  0.4030  0.3792 -0.3449
33386SOL    HW110088   4.404  10.678  10.278  1.4030  0.5174  0.0308
33386SOL    HW210089   4.432  10.732  10.416 -0.2179  0.4283  0.4152
33387SOL     OW10090  12.997   0.264   1.730  0.5030  0.4773  0.4666
33387SOL    HW110091  12.985   0.314   1.811 -2.3818 -0.8564  0.9927
33387SOL    HW210092  13.012   0.174   1.760 -2.2698 -0.3602 -0.3579
33388SOL     OW10093   2.922   4.205   6.100  0.2524  0.6597  0.6996
33388SOL    HW110094   2.932   4.112   6.079 -0.1931  0.2775  2.0612
33388SOL    HW210095   2.869   4.206   6.179 -0.8562  2.1537 -0.0190
33389SOL     OW10096   8.019   6.856   2.915  0.7482 -0.1457 -0.9248
33389SOL    HW110097   8.033   6.858   3.009 -1.1685  0.9281 -0.6137
33389SOL    HW210098   8.106   6.870   2.878  1.4384  0.0620  0.6879
33390SOL     OW10099   8.364  12.412   8.283 -0.3138  0.2571  0.3720
33390SOL    HW110100   8.343  12.365   8.202 -2.0775  2.3325 -0.4667
33390SOL    HW210101   8.297  12.480   8.290  0.1364  0.5441  3.2967
33391SOL     OW10102   6.751   9.394   1.196 -0.4131  0.2408 -0.1304
33391SOL    HW110103   6.811   9.329   1.160  0.1352  0.1954  0.8254
33391SOL    HW210104   6.804   9.473   1.209 -0.1495 -0.2117  2.0115
33392SOL     OW10105   7.400  11.001   4.354 -0.2086  0.1594  0.4938
33392SOL    HW110106   7.406  10.928   4.293 -1.1882 -0.2607  0.8894
33392SOL    HW210107   7.488  11.007   4.393  0.0378 -0.4354  0.0412
33393SOL     OW10108  13.261   7.820   1.537  0.1728  0.0434 -0.1510
33393SOL    HW110109  13.197   7.874   1.584 -1.3750 -2.1501  0.4098
33393SOL    HW210110  13.291   7.875   1.465 -0.5236  1.9998  0.9747
33394SOL     OW10111   2.189   2.215  11.271  0.1139  0.7082 -0.3476
33394SOL    HW110112   2.247   2.204  11.346 -0.0384 -2.8001 -0.6080
33394SOL    HW210113   2.245   2.197  11.195 -0.9859 -1.6150 -0.6665
33395SOL     OW10114   7.875  10.328   0.930 -0.2579  0.1413 -0.2334
33395SOL    HW110115   7.868  10.235   0.906 -1.2573  0.5962 -1.8462
33395SOL    HW210116   7.786  10.361   0.922 -0.7845  0.4209  4.2637
33396SOL     OW10117  11.411  11.930   0.578  0.5456  0.1751  0.4308
33396SOL    HW110118  11.460  11.865   0.628 -0.5353 -0.9668  0.0530
33396SOL    HW210119  11.474  12.002   0.564  1.6072 -0.5508  1.2857
33397SOL     OW10120   4.101   4.628   9.026  1.2882 -0.1712 -0.2155
33397SOL    HW110121   4.097   4.547   8.975  0.0853 -0.0473 -0.3552
33397SOL    HW210122   4.053   4.609   9.106  1.3735  0.2760 -0.0511
33398SOL     OW10123   9.843   5.216   4.118  0.0970  0.8033 -0.0989
33398SOL    HW110124   9.828   5.167   4.199  3.6896  3.5511  2.5528
33398SOL    HW210125   9.800   5.300   4.131  1.0104  1.4191 -0.8450
33399SOL     OW10126   1.577   7.883   7.931 -0.4243 -0.3211 -0.2549
33399SOL    HW110127   1.531   7.967   7.931  0.6708  0.3249  1.6042
33399SOL    HW210128   1.668   7.905   7.948 -0.3508 -1.9578  1.8779
33400SOL     OW10129   8.253   2.010  11.842  0.2016 -0.4664 -0.0828
33400SOL    HW110130   8.273   1.925  11.881 -0.6754 -0.6302  0.0306
33400SOL    HW210131   8.159   2.022  11.858  0.7054  1.5221  1.9210
33401SOL     OW10132   2.378  11.019   0.112 -0.3358  0.0705  0.6935
33401SOL    HW110133   2.384  10.925   0.124 -1.0611  0.2154  2.5775
33401SOL    HW210134   2.303  11.031   0.054  0.6098 -0.5412 -0.6953
33402SOL     OW10135  10.281   7.980   5.747  0.1576 -0.1088  0.1991
33402SOL    HW110136  10.308   7.895   5.713  0.3304 -0.0347  0.1510
33402SOL    HW210137  10.362   8.031   5.753  0.1158 -0.0857  0.6211
33403SOL     OW10138   4.865  11.834   1.780 -0.0818 -0.1756 -0.6768
33403SOL    HW110139   4.852  11.929   1.787  0.9813  0.1665 -2.5881
33403SOL    HW210140   4.956  11.821   1.808 -0.3820 -0.7340  0.0828
33404SOL     OW10141   4.556   2.080   0.099 -0.3305 -0.0605 -0.1523
33404SOL    HW110142   4.483   2.078   0.038 -0.4042 -2.7237 -0.0843
33404SOL    HW210143   4.519   2.119   0.179 -1.3840 -0.4109 -0.4521
33405SOL     OW10144  10.482   6.811   2.277 -0.0636  0.0743 -0.5531
33405SOL    HW110145  10.439   6.771   2.353 -0.6656 -1.1542 -1.5028
33405SOL    HW210146  10.564   6.763   2.268  1.1185  1.7522  0.6518
33406SOL     OW10147  11.000   2.718   2.832 -0.4067 -0.2470 -0.4767
33406SOL    HW110148  10.979   2.632   2.795  1.2459 -0.6417 -0.5853
33406SOL    HW210149  11.093   2.712   2.855 -0.3000  1.4592 -0.3207
33407SOL     OW10150   4.083   5.767   8.380 -0.4806  0.0129  0.1274
33407SOL    HW110151   4.021   5.717   8.327 -0.3999 -0.0524  0.0936
33407SOL    HW210152   4.121   5.831   8.319  0.0954 -0.4922 -0.0592
33408SOL     OW10153  11.340   9.285   2.296  0.0925  0.3446 -0.7510
33408SOL    HW110154  11.316   9.295   2.388  3.0521  0.2429  0.1360
33408SOL    HW210155  11.360   9.192   2.287  1.2027  0.6099 -1.1010
33409SOL     OW10156   5.188   0.748   8.941  0.4634  0.1090  0.3365
33409SOL    HW110157   5.148   0.821   8.894  0.5553  0.4155  0.7299
33409SOL    HW210158   5.238   0.700   8.874  0.7226  0.6296  0.1557
33410SOL     OW10159   5.320   8.512   5.422 -0.5487 -0.4598  1.2155
33410SOL    HW110160   5.257   8.582   5.437  1.4893  1.9545 -0.6308
33410SOL    HW210161   5.373   8.509   5.501 -0.7147  0.0243  1.3458
33411SOL     OW10162  10.367   1.935   7.151 -0.2265 -0.3156  0.6520
33411SOL    HW110163  10.433   1.983   7.202 -0.3278 -0.0391  0.5270
33411SOL    HW210164  10.418   1.884   7.089 -0.1418  0.4314  0.0871
33412SOL     OW10165  10.874   7.940  13.036  0.7218  0.3847 -0.0627
33412SOL    HW110166  10.885   8.004  13.106 -0.1929 -1.0881  1.5183
33412SOL    HW210167  10.912   7.860  13.071 -1.6322 -0.9530 -0.3709
33413SOL     OW10168   5.639  11.276   7.025 -0.0297  0.4539  0.0139
33413SOL    HW110169   5.612  11.294   6.935  0.8595 -0.4990 -0.4627
33413SOL    HW210170   5.607  11.188   7.043  1.5967 -0.2007 -0.1264
33414SOL     OW10171   1.535  10.177   3.738 -0.8425  0.0420 -0.0732
33414SOL    HW110172   1.462  10.174   3.799 -0.6222 -1.2464  0.1668
33414SOL    HW210173   1.589  10.250   3.767 -1.1612 -0.0581  0.7816
33415SOL     OW10174   8.427  12.946  13.144 -0.0102  0.2319  0.5188
33415SOL    HW110175   8.335  12.951  13.120  0.0813 -0.1326  0.0734
33415SOL    HW210176   8.470  13.011  13.090  0.2511 -0.8496 -0.6211
33416SOL     OW10177   3.289   5.885   6.090  0.0339  0.0099 -0.7434
33416SOL    HW110178   3.353   5.846   6.031 -1.3682 -0.2806 -2.1404
33416SOL    HW210179   3.233   5.812   6.118  0.8126  0.0962  1.1896
33417SOL     OW10180   9.025   8.690   6.036 -0.2246  0.3302  0.6030
33417SOL    HW110181   8.951   8.747   6.018 -0.0647  0.8566  1.5070
33417SOL    HW210182   8.986   8.609   6.071 -0.4059  0.2942  0.3145
33418SOL     OW10183   9.502   7.470   1.876 -0.0391  0.1294 -0.5951
33418SOL    HW110184   9.507   7.451   1.970  1.5905  0.0955 -0.6488
33418SOL    HW210185   9.479   7.563   1.871 -0.2923  0.0913 -0.1673
33419SOL     OW10186   3.553  12.970  13.212 -0.1123  0.5987  0.2536
33419SOL    HW110187   3.640  12.975  13.250 -0.3714  3.0197  0.7157
33419SOL    HW210188   3.567  12.936  13.124  1.1901  0.1916  0.6045
33420SOL     OW10189  11.819   3.985   5.312 -0.0578 -0.4619  0.3638
33420SOL    HW110190  11.825   3.907   5.367 -1.3306 -2.5238 -2.1434
33420SOL    HW210191  11.726   4.008   5.313  0.2048  0.6563  0.5535
33421SOL     OW10192   8.558   1.824   4.043  0.7370 -0.2781  0.3112
33421SOL    HW110193   8.544   1.740   3.999  1.1279 -0.4364  0.4789
33421SOL    HW210194   8.651   1.824   4.066  0.2730 -0.8101  2.3909
33422SOL     OW10195   3.143  10.342   6.232 -0.0444  0.7459 -0.7099
33422SOL    HW110196   3.236  10.325   6.224 -0.4217 -1.3133 -1.1898
33422SOL    HW210197   3.127  10.418   6.176  1.6056  2.2884  0.7904
33423SOL     OW10198  12.439   0.332   9.310 -0.0305  0.5040  0.3878
33423SOL    HW110199  12.399   0.390   9.246 -0.1186  0.5349  0.4693
33423SOL    HW210200  12.369   0.315   9.373 -0.4164 -0.7716 -0.3531
33424SOL     OW10201  12.698  13.295   9.522  0.3906  0.0502 -0.2224
33424SOL    HW110202  12.625  13.329   9.573  0.8284 -0.5287  0.8226
33424SOL    HW210203  12.658  13.238   9.457 -0.0358 -1.3627  1.2183
33425SOL     OW10204   8.681   5.408   2.099  0.1733 -0.4275 -0.0070
33425SOL    HW110205   8.620   5.475   2.128 -1.8646 -0.9643 -2.6402
33425SOL    HW210206   8.635   5.363   2.028  2.3740 -3.0808  0.0822
33426SOL     OW10207  11.474   4.740   7.672  0.0845  1.1751  0.1322
33426SOL    HW110208  11.482   4.835   7.686  1.3841  1.0310  0.4944
33426SOL    HW210209  11.550   4.717   7.619 -1.1433  0.5855 -1.4367
33427SOL     OW10210  11.508   4.420  11.067 -0.0636  0.4797 -0.1211
33427SOL    HW110211  11.485   4.488  11.130 -0.0237  0.1553  0.2436
33427SOL    HW210212  11.457   4.443  10.988  1.4853  2.0993 -0.7304
33428SOL     OW10213   0.127   7.939   8.701 -0.2610 -0.3019 -0.3067
33428SOL    HW110214   0.138   7.886   8.622  1.5002 -1.2527  0.5270
33428SOL    HW210215   0.172   7.890   8.770  1.2063  2.1007  0.5804
33429SOL     OW10216   4.611   1.960   3.425  0.6702  0.3145  0.2025
33429SOL    HW110217   4.594   2.015   3.349  1.5171 -0.1507 -0.3429
33429SOL    HW210218   4.640   2.021   3.493 -0.2696  0.7517  0.2272
33430SOL     OW10219   2.840   4.360   9.938  0.4500  0.3695  0.5034
33430SOL    HW110220   2.806   4.324   9.857 -1.0396 -0.2416  1.3660
33430SOL    HW210221   2.817   4.453   9.935  0.8212  0.4503  0.0344
33431SOL     OW10222   4.389   1.323   3.175 -0.0587  0.3792  0.3141
33431SOL    HW110223   4.428   1.378   3.243 -0.2145  1.2796 -0.3143
33431SOL    HW210224   4.455   1.321   3.105 -0.1472 -0.0595  0.2380
33432SOL     OW10225  11.698   2.452   0.290 -0.0761 -0.0867 -0.2497
33432SOL    HW110226  11.782   2.437   0.333 -0.9021 -1.0304  1.1162
33432SOL    HW210227  11.692   2.547   0.280  1.0288  0.0063 -0.1445
33433SOL     OW10228  13.286  13.138  10.757  0.3140 -0.3513 -0.1720
33433SOL    HW110229  13.222  13.193  10.801  0.9564 -1.1133  1.8453
33433SOL    HW210230  13.235  13.081  10.700 -0.4299  1.6465 -1.6454
33434SOL     OW10231   3.455   2.159   6.259  0.1556  0.3065  0.3128
33434SOL    HW110232   3.533   2.196   6.300  2.4719 -2.2406 -1.4677
33434SOL    HW210233   3.434   2.219   6.188  2.1098 -0.2327 -0.7684
33435SOL     OW10234   9.648   9.486   5.273  0.3803 -0.4684 -0.3846
33435SOL    HW110235   9.612   9.410   5.319 -0.1730  0.4815  0.7835
33435SOL    HW210236   9.686   9.541   5.342 -3.5712  2.7642 -0.4277
33436SOL     OW10237  11.400   5.076  10.756  0.5193  0.2098  0.1222
33436SOL    HW110238  11.474   5.050  10.701  0.2523  1.3042 -0.7841
33436SOL    HW210239  11.370   5.159  10.719  0.1468  0.8442  1.7407
33437SOL     OW10240   3.667   2.538   5.371  0.1110  0.2473  0.4844
33437SOL    HW110241   3.657   2.570   5.281  0.6085  1.4265  0.8252
33437SOL    HW210242   3.722   2.459   5.362 -1.1570 -0.5721 -0.3785
33438SOL     OW10243   4.338   7.318   0.261  0.0517 -0.3951  0.0816
33438SOL    HW110244   4.371   7.400   0.298 -2.9906 -0.4279  3.3985
33438SOL    HW210245   4.377   7.314   0.173  1.9755  3.4886  0.5378
33439SOL     OW10246   4.863   1.139   2.767  0.6588  0.2646 -0.1404
33439SOL    HW110247   4.808   1.216   2.753 -0.2292 -0.3128  0.0843
33439SOL    HW210248   4.946   1.160   2.724 -0.8977 -0.2500 -3.7273
33440SOL     OW10249   9.471   9.009  10.719 -0.2087 -0.8197  0.5831
33440SOL    HW110250   9.406   8.973  10.658 -0.0541  1.0524 -0.7661
33440SOL    HW210251   9.444   9.100  10.731  2.1408  0.0088 -0.0298
33441SOL     OW10252   9.682   8.878   9.991  0.0205  0.3022  0.4704
33441SOL    HW110253   9.662   8.965  10.025  1.2752  1.0812 -0.7114
33441SOL    HW210254   9.660   8.819  10.064  0.7313  1.7295  1.9060
33442SOL     OW10255   8.775   8.314   0.588 -0.0287  0.5905  0.5300
33442SOL    HW110256   8.825   8.295   0.667  0.5421  2.9515  0.8322
33442SOL    HW210257   8.698   8.258   0.593  2.0650 -2.4987  0.5344
33443SOL     OW10258  13.052   8.320  10.092 -0.0446  0.0742  0.3360
33443SOL    HW110259  13.100   8.284  10.167  0.8614 -0.3963 -0.4455
33443SOL    HW210260  12.960   8.314  10.117  0.2647  0.4528  1.6413
33444SOL     OW10261   3.483   3.879   0.764  0.9160 -0.0179  0.6119
33444SOL    HW110262   3.538   3.888   0.686  1.0813 -0.6195  0.6559
33444SOL    HW210263   3.541   3.843   0.831  0.2493 -1.6582  0.3710
33445SOL     OW10264   7.301   2.331   4.836  0.2011  0.0491  0.2402
33445SOL    HW110265   7.389   2.349   4.803  1.3690 -1.3027  2.3793
33445SOL    HW210266   7.294   2.385   4.915 -0.7125 -0.2177  0.3487
33446SOL     OW10267   4.838  11.749   8.256  0.4929 -1.0983 -0.5245
33446SOL    HW110268   4.866  11.839   8.239 -0.2092 -0.9619 -0.9828
33446SOL    HW210269   4.915  11.707   8.296  0.5047 -0.0328  0.6339
33447SOL     OW10270  12.070  11.534  12.367  0.3704  0.5736  0.7000
33447SOL    HW110271  12.100  11.577  12.286  2.7234  1.9218  2.1571
33447SOL    HW210272  11.984  11.572  12.384 -0.2760  0.1051 -1.2363
33448SOL     OW10273  11.116   8.696   7.882 -0.5680  0.6218  0.0589
33448SOL    HW110274  11.086   8.673   7.794  2.7327  0.4945 -1.1788
33448SOL    HW210275  11.190   8.755   7.867  0.1781  0.4883  2.7583
33449SOL     OW10276   8.720   6.336   1.145 -0.4784 -0.3504 -0.5372
33449SOL    HW110277   8.800   6.287   1.128 -0.1570 -0.2499  0.6153
33449SOL    HW210278   8.741   6.390   1.221 -1.1832  0.7501 -1.1009
33450SOL     OW10279   1.630  12.039   3.713  0.4968 -0.1759 -0.0378
33450SOL    HW110280   1.672  11.997   3.788 -0.9163  0.2973  1.0537
33450SOL    HW210281   1.542  12.002   3.710  0.0685  0.8353 -0.5921
33451SOL     OW10282   5.253   2.468   8.674  0.3461 -0.6330  0.1790
33451SOL    HW110283   5.219   2.507   8.593  0.2105 -1.0947  0.0117
33451SOL    HW210284   5.193   2.498   8.742 -0.5177 -1.5803 -0.1392
33452SOL     OW10285   4.670  11.165   5.095 -0.0740 -0.4083  0.4679
33452SOL    HW110286   4.720  11.218   5.033 -1.3718 -0.2037 -0.4390
33452SOL    HW210287   4.732  11.099   5.127  1.8147  2.0439  2.2052
33453SOL     OW10288  11.068  11.098   7.022 -0.2588 -0.0334  0.5773
33453SOL    HW110289  11.050  11.042   7.098  2.0261 -1.9704 -0.1736
33453SOL    HW210290  11.164  11.102   7.018 -0.3343  0.7163 -1.7260
33454SOL     OW10291  11.252   7.036  12.501 -0.2958  0.2539 -0.0394
33454SOL    HW110292  11.213   7.021  12.414  1.2674  0.5092 -0.8268
33454SOL    HW210293  11.258   7.131  12.508 -2.0841  0.3267  1.1736
33455SOL     OW10294   5.668   4.122   1.709  0.2786  0.3075 -0.7442
33455SOL    HW110295   5.588   4.144   1.756  0.1119 -1.2596 -0.2325
33455SOL    HW210296   5.733   4.184   1.742  0.0114 -0.3446  1.1681
33456SOL     OW10297   7.423   6.539  10.572  0.1073 -0.3863  0.1460
33456SOL    HW110298   7.358   6.574  10.633 -0.7466  3.4155 -2.5677
33456SOL    HW210299   7.373   6.520  10.493  1.8593 -0.1453 -1.0694
33457SOL     OW10300   3.313   3.337  11.657  0.4555 -0.1172 -0.2037
33457SOL    HW110301   3.333   3.323  11.749  0.2059  1.4916  0.1371
33457SOL    HW210302   3.391   3.306  11.610  1.4750  0.9505  0.7126
33458SOL     OW10303  11.184   3.724  10.403  0.5004 -0.1690 -0.4829
33458SOL    HW110304  11.169   3.652  10.341 -2.6373 -1.2147  1.2647
33458SOL    HW210305  11.147   3.801  10.360  0.8136 -0.2915 -0.9866
33459SOL     OW10306  10.952   4.186   9.217 -0.4192 -0.2467 -0.2847
33459SOL    HW110307  10.980   4.183   9.125 -0.4716  3.1674 -0.5362
33459SOL    HW210308  11.033   4.172   9.267  0.1522  0.6932 -0.9137
33460SOL     OW10309   6.955   4.991   0.898  0.0583  0.1375 -0.5423
33460SOL    HW110310   6.861   5.001   0.916  0.2737  0.2119  0.6450
33460SOL    HW210311   6.998   5.034   0.972  1.0256 -0.9679 -0.4289
33461SOL     OW10312   3.859  12.753   9.498 -0.0036  0.0545 -0.1698
33461SOL    HW110313   3.790  12.814   9.523  1.2849  0.7315  1.9640
33461SOL    HW210314   3.920  12.806   9.446 -1.1171 -0.6073 -2.2943
33462SOL     OW10315   8.758  13.312   7.083  0.0322  0.2920  0.8413
33462SOL    HW110316   8.816  13.272   7.148  0.7192  0.7784  0.5433
33462SOL    HW210317   8.748  13.244   7.015  0.8057  0.4361  0.5679
33463SOL     OW10318  13.289   8.865  12.660 -0.2790  0.3845 -0.1604
33463SOL    HW110319  13.288   8.909  12.575 -0.8947  0.5321 -0.0805
33463SOL    HW210320  13.315   8.775  12.640  2.1582  1.0212 -0.1870
33464SOL     OW10321   1.391  12.106   8.415 -0.4948 -0.5287  0.0022
33464SOL    HW110322   1.389  12.084   8.322  0.5622  1.5721 -0.5682
33464SOL    HW210323   1.443  12.186   8.420 -0.8630 -0.3673  2.3637
33465SOL     OW10324   1.142  11.725   9.649  0.1787  0.5798  0.0485
33465SOL    HW110325   1.051  11.727   9.620 -0.0039  0.9248  0.6320
33465SOL    HW210326   1.192  11.764   9.577  0.4494 -3.4181 -2.2273
33466SOL     OW10327  12.999   0.670  12.129  0.2080  0.2468 -0.4818
33466SOL    HW110328  13.078   0.636  12.171  1.3391  2.8676 -0.2868
33466SOL    HW210329  13.029   0.749  12.083 -2.2955  1.2725 -0.4666
33467SOL     OW10330   6.958   4.620   0.858  0.5650  0.0191 -0.6380
33467SOL    HW110331   6.988   4.555   0.922 -1.0123  2.2184  2.6103
33467SOL    HW210332   6.867   4.595   0.841  0.2195  0.8517 -0.0450
33468SOL     OW10333  11.609   2.024   3.281  0.6011  0.3683 -0.1350
33468SOL    HW110334  11.590   1.975   3.362 -1.3754 -0.7603 -1.1918
33468SOL    HW210335  11.674   1.971   3.236 -0.1941 -0.3846 -0.4330
33469SOL     OW10336  11.058  12.434  11.628  0.2699 -0.1463  0.3465
33469SOL    HW110337  11.114  12.360  11.609 -0.9690 -0.7882 -1.0303
33469SOL    HW210338  11.104  12.509  11.591  0.4967 -0.5633 -0.2210
33470SOL     OW10339   9.233   8.385  12.399 -0.2384 -0.0941  0.8606
33470SOL    HW110340   9.211   8.355  12.487 -1.4649 -2.0933 -0.0401
33470SOL    HW210341   9.282   8.313  12.360 -1.4557 -0.1478 -0.7186
33471SOL     OW10342   1.585   7.237   5.023 -0.1503  1.0643  0.3813
33471SOL    HW110343   1.522   7.213   4.954  1.1343 -1.6532  0.0200
33471SOL    HW210344   1.548   7.200   5.103 -0.0061  1.2831  0.5505
33472SOL     OW10345   9.374   1.770   1.448 -0.0966  0.0685 -0.0315
33472SOL    HW110346   9.297   1.713   1.450  1.6425 -2.5839 -2.0028
33472SOL    HW210347   9.350   1.841   1.389 -1.7078  0.4708  1.0429
33473SOL     OW10348   4.899   2.973   2.871 -0.6734  0.0850  0.2190
33473SOL    HW110349   4.879   2.906   2.936 -1.6499  0.0207 -0.1422
33473SOL    HW210350   4.944   2.925   2.801  0.1314  0.1080  0.7018
33474SOL     OW10351   1.179   9.505  12.158  0.0587  0.1892  0.1678
33474SOL    HW110352   1.250   9.448  12.125 -1.0270 -0.6582 -0.7983
33474SOL    HW210353   1.136   9.452  12.225 -0.3625  0.2473 -0.0576
33475SOL     OW10354  11.567   6.199   4.591  0.7395 -0.1793  0.0242
33475SOL    HW110355  11.484   6.194   4.543  0.5093  4.1343 -0.4593
33475SOL    HW210356  11.628   6.241   4.530  1.3346  2.5593  2.2503
33476SOL     OW10357  11.393   7.347   8.614  0.0380 -0.0074  0.5105
33476SOL    HW110358  11.433   7.271   8.657  0.9275 -0.4076 -0.9742
33476SOL    HW210359  11.310   7.360   8.661  0.0734 -1.6214  1.0692
33477SOL     OW10360   9.055   7.318   6.655  0.3334 -0.6888 -0.0279
33477SOL    HW110361   9.032   7.255   6.587  3.4864 -1.7629 -0.2541
33477SOL    HW210362   9.110   7.269   6.716  1.3108  1.3740  0.8492
33478SOL     OW10363   0.819   0.477   7.912 -0.3737 -0.0638  0.2192
33478SOL    HW110364   0.861   0.454   7.829 -2.7612 -0.1829 -1.0438
33478SOL    HW210365   0.836   0.402   7.969  0.2202 -0.5765 -0.6005
33479SOL     OW10366  12.632   3.357   3.658  0.3913 -0.7315 -0.6066
33479SOL    HW110367  12.703   3.295   3.645  1.2583 -0.4162  2.0505
33479SOL    HW210368  12.577   3.317   3.726 -0.7253  0.0594 -0.9994
33480SOL     OW10369   5.020  12.662   9.218 -0.1818  0.9040  0.1139
33480SOL    HW110370   5.092  12.647   9.279  0.8988 -0.8120 -1.4779
33480SOL    HW210371   4.967  12.583   9.224 -0.5853  1.1220 -0.4900
33481SOL     OW10372  10.421   0.304   8.144  0.1302  0.4130  0.0366
33481SOL    HW110373  10.330   0.278   8.157  0.7396 -2.1941 -0.3301
33481SOL    HW210374  10.463   0.226   8.107  2.5743  1.4617  0.4164
33482SOL     OW10375   5.201  11.727   0.619  0.1298  0.8626 -0.8107
33482SOL    HW110376   5.146  11.805   0.620 -0.0406  0.7573 -1.4977
33482SOL    HW210377   5.228  11.715   0.711 -0.3043  1.3946 -0.6105
33483SOL     OW10378   9.717  13.109  13.169  0.3130 -0.4903 -0.1594
33483SOL    HW110379   9.717  13.052  13.246  2.5684  0.1012  0.3502
33483SOL    HW210380   9.682  13.192  13.200  1.0574 -0.3053  0.1953
33484SOL     OW10381  11.929   8.970   4.846  0.6673  0.0354 -0.3164
33484SOL    HW110382  11.864   8.994   4.780  0.8579  0.1846 -0.4500
33484SOL    HW210383  11.996   9.038   4.840 -0.0795  0.9360  1.1055
33485SOL     OW10384   8.852   8.482  12.548  0.6043 -0.3312  0.1388
33485SOL    HW110385   8.915   8.541  12.508 -1.4371  2.1532  0.3240
33485SOL    HW210386   8.817   8.430  12.475  1.2990 -0.1906 -0.2991
33486SOL     OW10387   2.251  11.838   9.601 -0.0786  0.2878  0.0509
33486SOL    HW110388   2.163  11.825   9.564  0.3938  0.1669 -1.0572
33486SOL    HW210389   2.309  11.837   9.526  0.8687  0.5535  0.7612
33487SOL     OW10390   8.752   7.350   9.777  0.8901  0.0208  0.0082
33487SOL    HW110391   8.719   7.357   9.867  2.0615 -0.5329  0.5135
33487SOL    HW210392   8.675   7.331   9.725  0.2458 -0.1071  0.9730
33488SOL     OW10393   7.283  12.446   5.064  0.0206 -0.4491  0.3691
33488SOL    HW110394   7.305  12.517   5.003 -0.4574 -0.7151 -0.1279
33488SOL    HW210395   7.353  12.382   5.052 -0.1943 -0.6080 -0.0901
33489SOL     OW10396   1.282   3.127   1.204  0.3309 -0.2310 -0.3396
33489SOL    HW110397   1.292   3.191   1.134 -0.5713  0.0439 -0.2240
33489SOL    HW210398   1.190   3.100   1.200  0.5380 -1.0425  0.0239
33490SOL     OW10399   1.057   0.419  10.075 -0.2625  0.0410  0.0477
33490SOL    HW110400   1.140   0.425  10.123  0.1903  0.6080 -0.7721
33490SOL    HW210401   0.990   0.435  10.142  0.1984 -1.5453  0.9512
33491SOL     OW10402   9.780   3.493   3.038 -0.2324 -0.4058 -0.3409
33491SOL    HW110403   9.691   3.507   3.006 -1.2336  1.1964  2.7921
33491SOL    HW210404   9.770   3.471   3.130  2.5975 -1.0387 -0.0914
33492SOL     OW10405   3.026   0.257  13.094  0.1118  0.4737 -0.6036
33492SOL    HW110406   2.941   0.227  13.062 -0.8929  1.5045  0.9835
33492SOL    HW210407   3.011   0.347  13.122  1.9104  0.9053 -0.8922
33493SOL     OW10408   4.508   4.872   2.968 -0.1751  0.3967  0.0723
33493SOL    HW110409   4.512   4.938   3.037  0.9995  0.7981 -0.3589
33493SOL    HW210410   4.536   4.918   2.889 -0.4170 -0.3398 -0.4543
33494SOL     OW10411  12.980   3.032   5.272 -0.0221  0.0117 -0.5812
33494SOL    HW110412  12.915   3.096   5.301 -0.3563  0.2299 -1.7717
33494SOL    HW210413  13.062   3.063   5.311 -0.0216  1.6597 -1.7830
33495SOL     OW10414   6.740   4.082   3.034 -0.2441 -0.0210  0.2311
33495SOL    HW110415   6.770   4.161   3.079 -0.3083 -0.2641  0.7062
33495SOL    HW210416   6.707   4.026   3.104 -1.6152  0.1442 -0.2623
33496SOL     OW10417   9.408   0.525   5.352 -0.9755 -0.0343  0.1575
33496SOL    HW110418   9.393   0.443   5.400 -2.1961 -0.2073 -0.4786
33496SOL    HW210419   9.425   0.497   5.262 -0.5122  0.3730  0.1156
33497SOL     OW10420  10.374   7.538   7.501  0.0408  0.3636  0.0761
33497SOL    HW110421  10.427   7.480   7.447 -1.4332  0.9155 -2.1042
33497SOL    HW210422  10.284   7.509   7.487 -0.4918  1.3635  1.2168
33498SOL     OW10423  11.626   4.801   0.423  0.2122 -0.8377 -0.6531
33498SOL    HW110424  11.534   4.825   0.407  0.2980  0.4018  0.5377
33498SOL    HW210425  11.654   4.758   0.342 -1.0626 -0.1290 -1.5019
33499SOL     OW10426  13.076   7.661   1.423  0.3667  0.1905  0.4952
33499SOL    HW110427  13.110   7.626   1.341 -0.9801 -0.1119  0.0538
33499SOL    HW210428  13.154   7.698   1.467  0.8630  1.9380 -1.6651
33500SOL     OW10429   0.960   7.247   2.072  0.5928  0.3437  0.8125
33500SOL    HW110430   0.898   7.315   2.046 -0.4947 -0.2983  1.6167
33500SOL    HW210431   1.033   7.295   2.112  0.1890  1.0642  0.6983
33501SOL     OW10432  11.440   4.979   2.490  0.4514  0.4273 -0.4696
33501SOL    HW110433  11.528   5.015   2.491  0.9390 -0.7047  0.9488
33501SOL    HW210434  11.400   5.009   2.572  0.6834 -1.6788  0.4757
33502SOL     OW10435   5.766   5.933  10.857  0.0304 -0.3258 -0.1524
33502SOL    HW110436   5.754   5.841  10.881 -0.8469 -0.8371 -2.3261
33502SOL    HW210437   5.688   5.977  10.891  0.3059 -0.4218  0.6255
33503SOL     OW10438   5.959   5.082  10.427 -0.0892  0.1187 -0.1791
33503SOL    HW110439   5.944   4.991  10.401  1.5155 -0.0814 -0.5387
33503SOL    HW210440   5.959   5.080  10.522 -0.1441 -0.2449 -0.1831
33504SOL     OW10441   4.121   2.058   5.301 -0.2749 -0.2233  0.0460
33504SOL    HW110442   4.109   1.966   5.326  1.0110 -0.6931 -0.9061
33504SOL    HW210443   4.033   2.089   5.280 -0.6971 -1.3382  0.0796
33505SOL     OW10444   3.025   0.537   0.128 -0.8933  0.7636  0.4736
33505SOL    HW110445   3.076   0.601   0.179 -0.8882  0.1094  1.3233
33505SOL    HW210446   2.963   0.500   0.192 -0.9730  0.0078 -0.0322
33506SOL     OW10447  12.640   9.740   3.182  0.1228  0.0393  1.0569
33506SOL    HW110448  12.603   9.826   3.200 -2.1523 -1.1883  2.6599
33506SOL    HW210449  12.701   9.724   3.254  0.8610  0.4237  0.5387
33507SOL     OW10450   9.198  11.043  11.450  0.4929 -0.3789 -0.3909
33507SOL    HW110451   9.134  11.028  11.520 -1.2808 -0.4144 -1.9353
33507SOL    HW210452   9.160  10.999  11.374  2.9564 -1.4161 -1.1106
33508SOL     OW10453  11.369   5.626  12.380  0.3372 -0.4052  0.3796
33508SOL    HW110454  11.368   5.635  12.475  0.3164 -2.8403  0.6535
33508SOL    HW210455  11.461   5.636  12.356  0.8980 -3.0863  1.1030
33509SOL     OW10456   5.688   3.121  11.264 -0.1522  0.2573  0.5976
33509SOL    HW110457   5.732   3.186  11.320  0.4038  0.7406 -0.3737
33509SOL    HW210458   5.738   3.041  11.278  0.5268  0.5935  0.1493
33510SOL     OW10459  10.837  13.270   7.279  0.2201  0.0423  0.0518
33510SOL    HW110460  10.861  13.306   7.364 -1.0511 -0.3908  0.6178
33510SOL    HW210461  10.911  13.290   7.223  0.1997  2.2033  0.7090
33511SOL     OW10462   5.612   0.029   8.075 -0.2499 -0.6779 -0.1852
33511SOL    HW110463   5.602   0.089   8.149 -1.0875  2.0539 -2.3052
33511SOL    HW210464   5.558  -0.046   8.097 -0.4694  0.0292  1.9457
33512SOL     OW10465   5.644   6.464   4.545 -0.0086  0.6656  0.5747
33512SOL    HW110466   5.652   6.560   4.544 -1.0383  0.7597 -0.0387
33512SOL    HW210467   5.732   6.433   4.524  0.5915  1.4534  1.8210
33513SOL     OW10468   9.675   6.614  13.039  0.0195 -0.6072  0.3578
33513SOL    HW110469   9.710   6.703  13.036  1.8475 -1.3302 -1.1745
33513SOL    HW210470   9.583   6.624  13.015  0.3148  0.8009 -0.2915
33514SOL     OW10471  13.153   6.867   9.247  0.5690  0.0686 -0.2602
33514SOL    HW110472  13.105   6.789   9.219  1.1701 -1.0504  1.6475
33514SOL    HW210473  13.240   6.835   9.270  1.0732  1.4414 -0.1632
33515SOL     OW10474   1.101  11.314   6.410 -0.5838 -0.0539 -0.4531
33515SOL    HW110475   1.060  11.253   6.472 -1.4892  0.7371 -0.2509
33515SOL    HW210476   1.059  11.398   6.427 -1.0878  0.1268 -2.3343
33516SOL     OW10477   4.232   2.646   3.911 -0.3316  0.5769  0.1970
33516SOL    HW110478   4.306   2.682   3.862  1.3948 -0.9356  1.5369
33516SOL    HW210479   4.232   2.553   3.888 -1.8007  0.5301  0.2892
33517SOL     OW10480  11.884   3.079   4.407  0.6170  0.5292 -0.6533
33517SOL    HW110481  11.873   2.989   4.438 -0.9441  0.5772 -0.9959
33517SOL    HW210482  11.977   3.098   4.421  1.4366 -1.7944 -2.3712
33518SOL     OW10483   7.623   6.832   8.075 -0.1917 -0.5523 -1.0299
33518SOL    HW110484   7.703   6.811   8.026  0.0846 -0.6984 -0.5277
33518SOL    HW210485   7.591   6.747   8.105  1.4015 -0.3042  1.7444
33519SOL     OW10486   3.241   6.249   9.058  0.3463  0.1820 -0.3195
33519SOL    HW110487   3.219   6.208   9.142  0.9158 -2.2513 -1.2782
33519SOL    HW210488   3.221   6.342   9.071  0.4722 -0.0943  2.5073
33520SOL     OW10489   6.829   6.755   4.114 -0.4338 -0.0723 -0.2210
33520SOL    HW110490   6.761   6.821   4.125 -0.4590 -0.1401  0.0353
33520SOL    HW210491   6.910   6.805   4.105 -0.7119  0.0976 -2.3659
33521SOL     OW10492   8.526   7.624  11.152 -0.4676 -0.1442 -0.0612
33521SOL    HW110493   8.598   7.595  11.096 -0.9151 -0.4667 -0.4821
33521SOL    HW210494   8.520   7.558  11.221  0.1271  0.2888  0.4157
33522SOL     OW10495   2.455   7.715   8.368 -0.1409  0.6062 -0.0658
33522SOL    HW110496   2.490   7.735   8.281 -1.9618 -0.2523 -1.0544
33522SOL    HW210497   2.516   7.651   8.404  0.1279  0.2320 -1.1323
33523SOL     OW10498   4.055   9.799   2.684 -0.1568 -0.0523  0.1633
33523SOL    HW110499   4.140   9.838   2.701  0.6934 -0.8468 -2.0041
33523SOL    HW210500   4.048   9.794   2.589 -2.1814 -0.9721  0.2874
33524SOL     OW10501   2.523  12.280  12.808 -0.2131 -0.2929 -0.0410
33524SOL    HW110502   2.525  12.203  12.866 -1.5699  0.3954  0.9723
33524SOL    HW210503   2.615  12.302  12.796  0.1456  0.0684  2.6448
33525SOL     OW10504   1.348   0.892   1.559 -0.0614  0.6232 -0.3673
33525SOL    HW110505   1.381   0.870   1.471  0.6218  1.9797 -0.4745
33525SOL    HW210506   1.426   0.904   1.612 -0.4624  0.3466  0.2978
33526SOL     OW10507   6.456  10.250   7.932 -0.2377  0.3674  0.8169
33526SOL    HW110508   6.410  10.291   7.859  0.7090  0.1697  0.0925
33526SOL    HW210509   6.502  10.322   7.975 -0.2737  0.3858  0.8241
33527SOL     OW10510   5.834   6.917   6.910 -0.0183 -0.2272  0.3042
33527SOL    HW110511   5.830   6.941   6.818  0.9569 -3.2220 -0.6462
33527SOL    HW210512   5.756   6.862   6.924  0.3395 -0.5769  0.9940
33528SOL     OW10513   0.617   5.242   7.207 -0.3936 -0.2413 -0.2385
33528SOL    HW110514   0.526   5.214   7.223 -0.2987  0.2258  1.2836
33528SOL    HW210515   0.666   5.207   7.281  0.2385  1.4682  0.1946
33529SOL     OW10516   6.935   2.645  12.132  0.0830  0.2020 -0.1842
33529SOL    HW110517   6.855   2.613  12.171  0.1984  0.1480  0.0072
33529SOL    HW210518   6.914   2.734  12.102 -0.8454 -0.7399 -2.5486
33530SOL     OW10519   9.456   0.803   8.712  0.5163 -0.3346 -0.2718
33530SOL    HW110520   9.460   0.888   8.667  2.2306 -1.0946 -1.7205
33530SOL    HW210521   9.529   0.754   8.674 -0.4823 -2.4903  0.4766
33531SOL     OW10522   8.491   1.611   7.393  0.1365 -0.3952  0.6084
33531SOL    HW110523   8.528   1.560   7.320  0.0698 -0.7045  0.7870
33531SOL    HW210524   8.561   1.614   7.458  0.4434  0.4805  0.2507
33532SOL     OW10525   4.667   0.592   0.869  0.3633  0.0154 -0.3413
33532SOL    HW110526   4.655   0.651   0.795  0.3949 -1.2428 -1.3797
33532SOL    HW210527   4.761   0.575   0.872  0.4207  0.3866  0.2694
33533SOL     OW10528   8.186   1.664   5.096  0.0447  0.0525 -0.1029
33533SOL    HW110529   8.203   1.570   5.102 -0.7481 -0.1252 -0.5233
33533SOL    HW210530   8.090   1.672   5.101  0.0922  0.8218 -0.2505
33534SOL     OW10531   8.154  11.666  12.577  0.3810 -0.4277 -0.2748
33534SOL    HW110532   8.134  11.588  12.629 -0.3333  1.4966  2.5665
33534SOL    HW210533   8.069  11.694  12.543  0.6981 -1.0773 -1.6571
33535SOL     OW10534   0.829   2.596   3.236 -0.4702  0.0258  0.5287
33535SOL    HW110535   0.864   2.507   3.236 -0.8927 -0.1552  1.4902
33535SOL    HW210536   0.784   2.604   3.320  0.8880  1.6784  1.1620
33536SOL     OW10537  11.349   9.326  12.188 -0.5666  0.1418 -0.4874
33536SOL    HW110538  11.414   9.285  12.244 -1.4538  0.1928  0.6274
33536SOL    HW210539  11.384   9.414  12.171 -0.0016 -0.0877 -0.5184
33537SOL     OW10540   2.277   3.011   0.604 -0.4192 -0.3833  0.0265
33537SOL    HW110541   2.282   3.058   0.687  0.3362 -1.0437  0.3630
33537SOL    HW210542   2.368   3.002   0.576 -0.6667 -0.0373 -0.9626
33538SOL     OW10543   9.294   7.013   1.345  0.4790  1.2976  0.7543
33538SOL    HW110544   9.239   7.092   1.349  0.0894  1.0101  1.1714
33538SOL    HW210545   9.295   6.980   1.435  0.3889  0.6562  0.5243
33539SOL     OW10546   8.468   3.656   1.475 -0.3260 -0.1091 -0.3817
33539SOL    HW110547   8.429   3.732   1.519 -0.4727 -0.5875  0.3313
33539SOL    HW210548   8.544   3.691   1.429 -0.7391  0.5770 -0.5604
33540SOL     OW10549   8.966  12.513   0.607  0.5011 -0.6671  0.2978
33540SOL    HW110550   9.020  12.565   0.547  1.3387 -0.0170  1.5693
33540SOL    HW210551   8.877  12.542   0.590  0.7778 -0.1100 -0.2685
33541SOL     OW10552   1.020   1.163   7.459  0.1784 -0.2098 -0.3825
33541SOL    HW110553   0.937   1.206   7.436 -0.5783 -2.2219 -1.6491
33541SOL    HW210554   1.070   1.162   7.378  1.1702  0.3370  0.2010
33542SOL     OW10555   2.501   5.898   6.343 -0.3175 -0.3115 -0.0931
33542SOL    HW110556   2.422   5.932   6.301  0.1937  1.2963  0.1735
33542SOL    HW210557   2.543   5.975   6.381  1.1357 -1.2030  0.1902
33543SOL     OW10558   0.166   9.914   8.688  0.4647  0.5029 -0.4950
33543SOL    HW110559   0.100   9.910   8.757 -0.8535  1.0137 -1.6934
33543SOL    HW210560   0.194   9.823   8.676 -0.2461  0.2410 -0.1896
33544SOL     OW10561  11.881  10.718  11.731 -0.6182  0.6709  0.0727
33544SOL    HW110562  11.969  10.733  11.696 -1.2175  2.8894 -0.6721
33544SOL    HW210563  11.881  10.764  11.815 -0.8948  0.1581  0.3565
33545SOL     OW10564   7.973   2.660   1.710  0.2321  0.0510 -0.1511
33545SOL    HW110565   7.893   2.644   1.659  0.6719 -0.6951 -0.6206
33545SOL    HW210566   8.034   2.697   1.647 -0.3200  2.4173  0.6135
33546SOL     OW10567   2.346   2.673  10.946 -0.8442 -0.8154 -0.7941
33546SOL    HW110568   2.407   2.640  10.880  1.2374 -0.2069  0.7399
33546SOL    HW210569   2.394   2.742  10.992 -1.8947 -1.7067  1.8525
33547SOL     OW10570   9.429   9.668  12.418  0.2009  0.0826 -0.5154
33547SOL    HW110571   9.334   9.664  12.411 -0.0582  2.6578  0.4903
33547SOL    HW210572   9.456   9.732  12.352  1.4315 -1.5820 -1.7078
33548SOL     OW10573   9.142   1.543   4.202 -0.2712 -0.5455  0.9401
33548SOL    HW110574   9.054   1.559   4.167 -0.7167 -0.1597  2.1652
33548SOL    HW210575   9.129   1.477   4.270  0.4563 -0.7687  0.8747
33549SOL     OW10576   8.919   0.570   4.443  0.0593  0.4986  0.1684
33549SOL    HW110577   8.882   0.639   4.497  0.0347  0.2265  0.5033
33549SOL    HW210578   9.013   0.578   4.454  0.0909  0.9274 -0.3573
33550SOL     OW10579   1.546   6.102   0.541  0.0250 -0.3120 -0.7101
33550SOL    HW110580   1.540   6.144   0.456 -1.2867  1.1273  0.0282
33550SOL    HW210581   1.485   6.152   0.596  0.9923 -1.0633  1.1186
33551SOL     OW10582   6.084  11.776   5.589 -0.7298 -0.2186  0.3542
33551SOL    HW110583   6.065  11.851   5.532 -0.7539 -0.8838 -0.5179
33551SOL    HW210584   6.018  11.782   5.659 -0.9139  0.4037  0.1377
33552SOL     OW10585   7.515   8.538   4.820 -0.3855  0.2008  0.1492
33552SOL    HW110586   7.582   8.542   4.751 -0.3441 -1.3193  0.0658
33552SOL    HW210587   7.526   8.620   4.868  1.5228  0.0216  0.1140
33553SOL     OW10588  12.514   7.275   3.430  0.5845  0.2568 -0.0511
33553SOL    HW110589  12.478   7.306   3.513 -0.4020  1.8971 -1.0553
33553SOL    HW210590  12.599   7.238   3.454  1.1614  2.3884  1.4474
33554SOL     OW10591   3.921   1.580  12.773  0.1760 -0.0162  0.1206
33554SOL    HW110592   4.010   1.608  12.794  0.5277 -0.2529 -1.0011
33554SOL    HW210593   3.866   1.625  12.837  0.8535  2.2024 -0.7772
33555SOL     OW10594   1.503   3.679   8.846 -0.0538  0.0161 -0.4511
33555SOL    HW110595   1.447   3.665   8.922 -0.4612 -1.6557 -1.0159
33555SOL    HW210596   1.453   3.740   8.791 -0.4383  0.0470 -0.0716
33556SOL     OW10597   7.160   8.228   0.197 -0.1929  0.4623 -0.0298
33556SOL    HW110598   7.142   8.202   0.107  0.9453  1.1319 -0.4571
33556SOL    HW210599   7.176   8.322   0.193  1.2677  0.2624  0.6446
33557SOL     OW10600   1.247   5.517   5.269 -0.3100  0.0925 -0.5937
33557SOL    HW110601   1.335   5.514   5.232 -0.6677 -0.6777 -1.4047
33557SOL    HW210602   1.228   5.427   5.295 -0.2013  0.5372  1.2057
33558SOL     OW10603   2.529   2.067   4.058  0.0884 -0.3314 -0.0640
33558SOL    HW110604   2.451   2.123   4.051 -0.1515 -0.6158  0.3100
33558SOL    HW210605   2.518   2.022   4.141  0.5718 -0.5029 -0.0944
33559SOL     OW10606   7.194  12.637   1.145  0.0430  0.3893  0.0452
33559SOL    HW110607   7.269  12.592   1.107  2.1399  2.0205  1.9602
33559SOL    HW210608   7.165  12.697   1.076  0.6088 -0.1259 -0.6647
33560SOL     OW10609   5.571   7.154   6.992 -0.6534 -0.5015 -0.2660
33560SOL    HW110610   5.520   7.092   6.941  0.4833 -0.4044 -1.5798
33560SOL    HW210611   5.623   7.100   7.051  1.8438 -1.0724 -2.7634
33561SOL     OW10612  11.801   3.551  11.909  0.2713 -0.1023  0.4035
33561SOL    HW110613  11.779   3.458  11.897  2.2631 -0.8362  1.9191
33561SOL    HW210614  11.871   3.567  11.846 -1.0258  0.8084 -0.8518
33562SOL     OW10615   2.637   8.080   5.513  0.0711  0.0013 -0.1527
33562SOL    HW110616   2.662   8.002   5.464  2.3082  1.2051 -1.0456
33562SOL    HW210617   2.543   8.069   5.530  0.7403 -4.0776  2.0448
33563SOL     OW10618  10.895   6.992   3.487 -0.2311 -0.6769 -0.0123
33563SOL    HW110619  10.915   7.051   3.560 -1.0451 -0.1150 -0.2218
33563SOL    HW210620  10.819   6.943   3.517 -1.7023  0.7976 -1.1092
33564SOL     OW10621  12.959   7.514   2.076 -0.0668  0.2067 -0.0261
33564SOL    HW110622  12.943   7.570   2.000 -1.5729  1.1096  0.8973
33564SOL    HW210623  13.022   7.562   2.129  2.2977 -1.1878 -1.4285
33565SOL     OW10624   7.447  11.633   3.073 -0.5622  0.2220  0.0954
33565SOL    HW110625   7.454  11.699   3.142 -0.5912  0.1151  0.2027
33565SOL    HW210626   7.426  11.682   2.994  0.8848  0.5057 -0.1401
33566SOL     OW10627  11.139  12.409   0.806  0.4596 -0.2404 -0.0107
33566SOL    HW110628  11.194  12.472   0.760  0.6088  0.8321  1.5510
33566SOL    HW210629  11.173  12.324   0.780  1.1355  0.3458 -1.1191
33567SOL     OW10630   7.304   8.166  10.096  0.0435 -0.7451  0.5668
33567SOL    HW110631   7.229   8.114  10.124 -0.5962 -0.2281 -0.1132
33567SOL    HW210632   7.353   8.108  10.037 -0.3133 -0.7995  0.3175
33568SOL     OW10633  13.035   2.898  11.894  0.0384 -0.1898  0.0304
33568SOL    HW110634  13.070   2.982  11.924  1.5299  0.3108 -2.8337
33568SOL    HW210635  13.004   2.856  11.974  1.0450  2.2413  1.8305
33569SOL     OW10636   9.540  10.662   0.749  0.1119 -0.5724 -0.3792
33569SOL    HW110637   9.585  10.713   0.817 -1.4423  0.9845 -0.4504
33569SOL    HW210638   9.588  10.680   0.669  1.5091 -1.8307  0.1258
33570SOL     OW10639  12.813   6.416   3.818 -0.2524  0.1938  0.5345
33570SOL    HW110640  12.722   6.430   3.843 -0.6032 -0.3936 -0.3716
33570SOL    HW210641  12.846   6.356   3.886 -0.3062  1.0096  1.2987
33571SOL     OW10642   0.309  12.455   3.514  0.0168  0.0055  0.2402
33571SOL    HW110643   0.383  12.476   3.457  0.6539  0.2991  1.1596
33571SOL    HW210644   0.287  12.538   3.556 -0.9551 -0.0405 -0.1401
33572SOL     OW10645   5.170   4.599   0.471 -0.1226 -0.4630  0.3049
33572SOL    HW110646   5.098   4.656   0.443 -0.5457 -0.6026  1.0878
33572SOL    HW210647   5.235   4.607   0.401 -0.6566  0.1008 -0.1415
33573SOL     OW10648   9.485   7.969  11.482 -0.2833 -0.0442  0.4827
33573SOL    HW110649   9.559   7.928  11.437 -1.4232  0.5119 -2.0940
33573SOL    HW210650   9.429   7.895  11.508  0.2798 -0.3669  0.8026
33574SOL     OW10651   8.688   0.740  12.361 -1.0884 -0.0289 -0.1062
33574SOL    HW110652   8.677   0.809  12.426  1.0273  0.7089 -0.4354
33574SOL    HW210653   8.709   0.662  12.412  0.1137  0.4396  0.1399
33575SOL     OW10654   3.312  11.258   2.426  0.2560 -0.2489 -0.0921
33575SOL    HW110655   3.364  11.330   2.392  1.4807 -0.9063  0.3138
33575SOL    HW210656   3.364  11.222   2.498  0.0844 -2.0525 -0.8115
33576SOL     OW10657   5.236   2.315  13.035 -0.5881 -0.7850  0.2136
33576SOL    HW110658   5.159   2.335  13.087 -0.0808 -0.0270  0.6971
33576SOL    HW210659   5.210   2.241  12.981 -2.2875  0.6285 -1.0437
33577SOL     OW10660   0.591   6.506   7.777 -0.0569  0.5343 -0.1411
33577SOL    HW110661   0.638   6.431   7.740 -0.3841  0.4102 -0.3077
33577SOL    HW210662   0.588   6.570   7.706 -0.8718  0.2130 -0.4146
33578SOL     OW10663   1.746   0.667   3.846 -0.1505  0.3598  0.5573
33578SOL    HW110664   1.658   0.701   3.831 -0.5069 -1.2125 -1.2897
33578SOL    HW210665   1.754   0.661   3.941 -0.9517  3.1704  0.8886
33579SOL     OW10666   2.539   3.523   9.537  0.5370  0.0903 -0.4521
33579SOL    HW110667   2.455   3.569   9.536  0.7365  0.4471 -1.3387
33579SOL    HW210668   2.556   3.501   9.446  0.0933 -2.4409  0.0128
33580SOL     OW10669   1.589   5.030   7.122 -0.0604 -0.3269 -0.6951
33580SOL    HW110670   1.519   5.095   7.115  0.4784  0.2783 -0.5727
33580SOL    HW210671   1.547   4.946   7.101 -1.0350 -0.1053  0.3044
33581SOL     OW10672  10.124   6.499  10.858 -0.3501  0.3140  0.0065
33581SOL    HW110673  10.036   6.463  10.857 -0.6766  1.0108  1.0388
33581SOL    HW210674  10.150   6.502  10.766 -0.9201 -1.0287 -0.2119
33582SOL     OW10675   4.606   4.549   8.611 -0.2674  0.1389 -0.1332
33582SOL    HW110676   4.554   4.484   8.564  0.0507 -0.0251 -0.2674
33582SOL    HW210677   4.671   4.498   8.658  0.3217  0.3829 -0.6588
33583SOL     OW10678  11.343   6.235  12.407 -0.1235  0.1281 -0.3213
33583SOL    HW110679  11.412   6.294  12.437  1.0518 -1.8244  1.0700
33583SOL    HW210680  11.389   6.170  12.354 -0.7577 -1.4606  0.9961
33584SOL     OW10681   7.461   0.294   8.561  0.1141  0.1047  0.1490
33584SOL    HW110682   7.539   0.338   8.594  0.0940  0.9900 -0.9042
33584SOL    HW210683   7.476   0.201   8.577  0.5947  0.3990  1.5505
33585SOL     OW10684  11.644  11.457   2.454 -0.2936 -0.5200 -0.4480
33585SOL    HW110685  11.714  11.457   2.389  0.5546 -1.8272  0.3959
33585SOL    HW210686  11.686  11.490   2.534 -1.2097  0.6979 -0.4581
33586SOL     OW10687  12.324   1.260  10.234 -0.0965  0.6539  0.0708
33586SOL    HW110688  12.308   1.176  10.190 -0.1237  0.9839 -0.5623
33586SOL    HW210689  12.416   1.256  10.261 -0.0043  0.5523 -0.2530
33587SOL     OW10690   2.645   7.665   8.575  0.1907 -0.0525 -0.4431
33587SOL    HW110691   2.727   7.619   8.593  0.6316  1.0309  0.4285
33587SOL    HW210692   2.647   7.741   8.634 -1.4220  0.0123 -0.4327
33588SOL     OW10693   3.185   8.132  11.698 -0.2555 -0.2410  0.3366
33588SOL    HW110694   3.195   8.220  11.736 -2.0100  0.6662 -1.1340
33588SOL    HW210695   3.258   8.124  11.637 -0.5296  0.5343 -0.1026
33589SOL     OW10696   7.259  11.146   5.941 -0.1030 -0.1528 -0.2004
33589SOL    HW110697   7.327  11.155   6.007 -0.2206  1.6207 -0.2797
33589SOL    HW210698   7.199  11.219   5.957  0.6306  1.2143 -3.0917
33590SOL     OW10699   6.821  10.458   4.623  0.0332  0.2267 -0.1573
33590SOL    HW110700   6.778  10.539   4.594  0.6193  0.9071  0.7869
33590SOL    HW210701   6.900  10.453   4.570  0.0314  0.3185 -0.1697
33591SOL     OW10702   3.453   0.161  10.343  0.6908  0.3010 -0.3277
33591SOL    HW110703   3.502   0.088  10.381 -0.8321  0.6178  2.5696
33591SOL    HW210704   3.369   0.160  10.389  0.4819  3.6546 -0.3615
33592SOL     OW10705   7.790   0.747  11.681  0.4241 -0.8480 -0.4141
33592SOL    HW110706   7.765   0.784  11.766 -0.4899 -0.4347 -0.8490
33592SOL    HW210707   7.772   0.654  11.690  0.7322 -0.8708 -0.0103
33593SOL     OW10708   4.310   0.594   3.011  0.1621 -0.1535 -0.1206
33593SOL    HW110709   4.241   0.529   2.996  0.9118 -0.4040 -2.9518
33593SOL    HW210710   4.391   0.546   2.995  0.8809  0.8434  0.4521
33594SOL     OW10711  10.231   0.370  11.142 -0.0070  0.3984  0.1576
33594SOL    HW110712  10.211   0.430  11.214 -0.0331  0.8790 -0.2427
33594SOL    HW210713  10.202   0.285  11.173  2.1206  0.1484  1.6600
33595SOL     OW10714  10.519   5.149   0.048 -0.2640  0.4202  0.1764
33595SOL    HW110715  10.595   5.189   0.005 -1.2495 -0.0461 -2.1479
33595SOL    HW210716  10.452   5.145  -0.020 -1.7894 -0.8307  1.6564
33596SOL     OW10717  10.844   4.253   4.061  0.0992 -0.1095 -0.0492
33596SOL    HW110718  10.786   4.209   4.124  0.7525  1.7652  1.9850
33596SOL    HW210719  10.791   4.323   4.023  0.4640  0.4443  0.4403
33597SOL     OW10720   0.991   0.947  11.677 -0.5087 -0.1248  0.2047
33597SOL    HW110721   0.936   0.873  11.651  0.5022 -0.2935 -1.6021
33597SOL    HW210722   1.060   0.950  11.612  0.3298  1.5152  1.0981
33598SOL     OW10723   7.716   3.251   8.605  0.2294  0.2821  0.4791
33598SOL    HW110724   7.754   3.310   8.539  0.4377  0.3152  0.6281
33598SOL    HW210725   7.673   3.309   8.667  0.1084  0.2554  0.4207
33599SOL     OW10726   0.524   9.216   6.555  0.9256  0.1738 -0.3141
33599SOL    HW110727   0.537   9.123   6.574  1.5168  0.3370  0.1278
33599SOL    HW210728   0.479   9.250   6.633  2.0213  0.5426  0.1901
33600SOL     OW10729   0.071   2.300  11.596  0.1688  0.4213 -0.4265
33600SOL    HW110730   0.087   2.390  11.623  0.8516 -0.1453  1.2219
33600SOL    HW210731  -0.023   2.297  11.576 -0.5065  0.8770  2.2984
33601SOL     OW10732   8.226   6.814   3.543 -0.6300  0.1811  0.0643
33601SOL    HW110733   8.141   6.846   3.513 -0.7421 -0.4503 -0.3170
33601SOL    HW210734   8.276   6.797   3.463 -1.4385 -2.8852  0.0665
33602SOL     OW10735  12.312   1.187  11.378 -0.2236 -0.0696  0.0175
33602SOL    HW110736  12.296   1.174  11.471  1.6361 -0.6509  0.3002
33602SOL    HW210737  12.322   1.099  11.342 -0.7846  0.1551 -0.7173
33603SOL     OW10738   7.056   2.959   4.036 -0.3076  0.0728 -0.4416
33603SOL    HW110739   6.979   2.987   4.086  0.9664  1.4495  0.8457
33603SOL    HW210740   7.107   2.907   4.098 -0.6500 -1.7114 -1.5977
33604SOL     OW10741   4.141  11.491   4.960 -0.1811  0.1805 -0.5438
33604SOL    HW110742   4.232  11.511   4.979 -0.5201  1.3278 -0.0429
33604SOL    HW210743   4.091  11.540   5.025 -1.1487 -0.7176 -0.5784
33605SOL     OW10744   6.266   4.084  12.358 -0.4622  0.7374  0.5756
33605SOL    HW110745   6.182   4.042  12.339 -0.1919  0.3470  0.2004
33605SOL    HW210746   6.299   4.037  12.434  0.4838 -0.7387 -0.6637
33606SOL     OW10747  12.050   5.464  12.005 -0.0750  0.3068 -0.4374
33606SOL    HW110748  12.027   5.555  12.024 -0.1877  0.2270 -0.1837
33606SOL    HW210749  12.093   5.467  11.920  1.5520  0.8423  0.3739
33607SOL     OW10750   3.619   7.867   2.776  0.0608  0.6350  0.1410
33607SOL    HW110751   3.661   7.953   2.769 -0.7665  0.9271 -2.5572
33607SOL    HW210752   3.526   7.885   2.771 -0.1150 -0.4268 -0.8420
33608SOL     OW10753   1.703  12.644  12.665  0.0333 -0.0470 -0.1699
33608SOL    HW110754   1.702  12.731  12.704  0.5596 -0.8919  1.8812
33608SOL    HW210755   1.756  12.591  12.725  2.7294 -1.0405 -3.1051
33609SOL     OW10756  10.478  10.315   9.551 -0.6072 -0.0908 -0.3344
33609SOL    HW110757  10.418  10.361   9.609 -1.4678 -0.5789 -0.8115
33609SOL    HW210758  10.565  10.347   9.575 -1.0316  0.3939  0.5809
33610SOL     OW10759   4.802  10.248   3.412  0.5782 -0.2259  0.5108
33610SOL    HW110760   4.707  10.238   3.423 -0.2199  2.7371 -1.9764
33610SOL    HW210761   4.822  10.331   3.454  2.0399 -0.6342  0.6642
33611SOL     OW10762   8.794   8.728   5.175  0.2113  0.0927  0.3800
33611SOL    HW110763   8.870   8.670   5.175 -0.3202 -0.6399 -0.5664
33611SOL    HW210764   8.725   8.677   5.217 -0.0984  0.2595  0.0773
33612SOL     OW10765  12.002  11.591   8.850 -0.2776 -0.0509 -0.2600
33612SOL    HW110766  11.921  11.617   8.806  0.7393  1.7949 -1.1761
33612SOL    HW210767  11.986  11.609   8.942 -0.7361  0.7947 -0.4932
33613SOL     OW10768  11.053   8.172   7.763 -0.2145  0.2655 -0.1192
33613SOL    HW110769  10.958   8.164   7.772 -0.1149 -0.5472  0.3707
33613SOL    HW210770  11.081   8.211   7.845 -0.1986  1.2426 -0.5819
33614SOL     OW10771   4.775   2.667   6.425 -0.0532 -0.1268 -0.0476
33614SOL    HW110772   4.705   2.732   6.418  0.3327  0.1611 -1.3896
33614SOL    HW210773   4.855   2.714   6.403  0.4064 -0.7725  0.1799
33615SOL     OW10774  10.841  11.047   3.744 -0.4646  0.1601 -0.5951
33615SOL    HW110775  10.815  10.955   3.736  1.6985 -0.3145 -3.8558
33615SOL    HW210776  10.773  11.095   3.695 -2.0440  0.5209  1.7813
33616SOL     OW10777   8.422   8.446   4.459  0.2145  0.0279 -0.2617
33616SOL    HW110778   8.426   8.373   4.398  1.2776 -1.2320  1.2298
33616SOL    HW210779   8.374   8.514   4.412  2.3160 -0.2698 -3.0695
33617SOL     OW10780   7.571   6.786   1.749  0.2104 -0.6678  0.1205
33617SOL    HW110781   7.489   6.792   1.798 -0.4279  2.7014 -1.1054
33617SOL    HW210782   7.544   6.760   1.661  0.8097 -2.1055  0.3389
33618SOL     OW10783  12.632   5.732   3.670 -0.2051 -0.4572 -0.0987
33618SOL    HW110784  12.632   5.693   3.582  0.4874 -1.7764  0.4590
33618SOL    HW210785  12.550   5.703   3.709 -1.2357  1.3707 -0.7996
33619SOL     OW10786   3.222   3.927   8.932 -0.3038  0.2167 -0.1393
33619SOL    HW110787   3.128   3.933   8.914 -0.6237 -0.8781  1.0009
33619SOL    HW210788   3.250   3.848   8.885  0.5107  1.6154 -2.1355
33620SOL     OW10789   6.217   8.089   7.062  0.1613  0.4900 -0.7819
33620SOL    HW110790   6.141   8.137   7.030  0.7372  1.1909 -1.1555
33620SOL    HW210791   6.212   8.003   7.020 -0.5495  0.4428 -0.6076
33621SOL     OW10792   9.009  10.157  11.847  0.4136 -0.0798 -0.0204
33621SOL    HW110793   8.916  10.134  11.858  0.3615  0.1692  0.0683
33621SOL    HW210794   9.025  10.222  11.915  0.3442  0.7513 -0.7868
33622SOL     OW10795   2.435   2.250  11.877  0.1338  0.2098  0.5587
33622SOL    HW110796   2.466   2.340  11.863 -1.2971  0.5478 -0.8044
33622SOL    HW210797   2.455   2.205  11.795  1.1166 -0.8349  1.3429
33623SOL     OW10798   1.725   3.765  12.262  0.5627 -0.8160  0.8914
33623SOL    HW110799   1.654   3.720  12.217 -0.4262 -2.2426  3.6359
33623SOL    HW210800   1.736   3.847  12.215 -0.4321 -2.0989 -1.7776
33624SOL     OW10801  13.265   0.953   4.813 -0.1270 -0.1124 -0.7256
33624SOL    HW110802  13.244   0.968   4.905 -1.3477 -4.2299 -0.1426
33624SOL    HW210803  13.352   0.991   4.801 -0.8604  2.5633  1.3971
33625SOL     OW10804   7.986   3.977   3.781  0.2428  0.1936  0.0657
33625SOL    HW110805   7.939   3.949   3.860  2.5935  0.5774  1.6813
33625SOL    HW210806   8.023   4.062   3.804  1.9869 -0.2319 -1.0145
33626SOL     OW10807  12.139  12.278   1.052 -0.1554  0.4629  0.1006
33626SOL    HW110808  12.188  12.206   1.091  1.5547  1.8291  0.5920
33626SOL    HW210809  12.060  12.285   1.107 -0.0364 -0.6148  0.4294
33627SOL     OW10810  10.108   2.673   3.130  0.5525  0.2166 -0.2535
33627SOL    HW110811  10.056   2.639   3.057 -0.7500  3.0609 -0.7780
33627SOL    HW210812  10.198   2.673   3.098  0.5259 -1.8919 -0.4732
33628SOL     OW10813   1.057   0.508   2.782  0.4111  0.6859 -0.1531
33628SOL    HW110814   1.055   0.546   2.870 -0.7795 -0.1113  0.1938
33628SOL    HW210815   1.149   0.491   2.766  0.7855  2.0547  0.3968
33629SOL     OW10816   1.132   7.051  12.069 -0.1571 -0.3581  0.4609
33629SOL    HW110817   1.037   7.066  12.070 -0.3754 -0.9733 -2.6673
33629SOL    HW210818   1.169   7.138  12.083 -1.2456  0.3851 -0.9938
33630SOL     OW10819   4.379   1.112   4.754  0.3406 -0.3924  0.4516
33630SOL    HW110820   4.360   1.096   4.661  1.7000  0.0751  0.0656
33630SOL    HW210821   4.370   1.026   4.795  2.0619 -1.1070 -0.5690
33631SOL     OW10822   6.304   5.451   2.947 -0.5578  0.1403  0.9023
33631SOL    HW110823   6.371   5.519   2.942  1.0566 -1.3300  1.4084
33631SOL    HW210824   6.291   5.437   3.041 -1.0727 -0.0548  0.8017
33632SOL     OW10825   0.417   0.026   8.804 -0.2431 -0.0563 -0.0612
33632SOL    HW110826   0.468   0.001   8.881 -0.6754 -1.3888 -0.1780
33632SOL    HW210827   0.390   0.116   8.821  0.9372  0.1914  0.6438
33633SOL     OW10828   2.937   9.092  12.090 -0.6048 -0.1583 -0.1759
33633SOL    HW110829   2.968   9.029  12.156 -0.0662 -1.7240 -1.8259
33633SOL    HW210830   2.999   9.082  12.017 -2.3242  0.0323 -1.7238
33634SOL     OW10831  12.515  10.891  12.956  0.2009 -0.6610 -0.4615
33634SOL    HW110832  12.467  10.853  12.882  0.4500 -1.6411 -0.1325
33634SOL    HW210833  12.598  10.843  12.959  0.2768 -0.5037  0.3374
33635SOL     OW10834   4.234   3.314   4.864  0.1260  0.0139 -1.0059
33635SOL    HW110835   4.217   3.381   4.930 -0.8587  0.5036 -1.7317
33635SOL    HW210836   4.187   3.237   4.897 -1.2518  0.5573 -1.6113
33636SOL     OW10837  12.245   2.070   8.373 -0.5856 -0.5579 -0.0025
33636SOL    HW110838  12.270   2.120   8.451  1.4766 -1.3180 -0.1195
33636SOL    HW210839  12.271   1.980   8.393  1.4114 -0.5376 -2.0708
33637SOL     OW10840   5.027  13.312   9.330  0.0175 -0.2194  0.5215
33637SOL    HW110841   5.041  13.259   9.251 -0.4967  0.3527  0.0350
33637SOL    HW210842   5.070  13.396   9.309 -1.2266  0.3840  0.3341
33638SOL     OW10843   1.277   7.264   8.474  0.2401 -0.1001  0.1471
33638SOL    HW110844   1.260   7.354   8.445  1.2337 -0.2724 -1.0495
33638SOL    HW210845   1.300   7.273   8.567  3.1560  1.2999 -0.5863
33639SOL     OW10846  13.104   2.988   3.403 -0.7594  0.1147 -0.2949
33639SOL    HW110847  13.084   3.066   3.352 -1.0509 -1.7503 -3.2642
33639SOL    HW210848  13.019   2.950   3.423 -0.5805 -0.3967 -0.4855
33640SOL     OW10849   8.338   0.347   3.539 -0.2552 -0.2776  0.1248
33640SOL    HW110850   8.290   0.427   3.562  0.0490 -0.0680  0.0339
33640SOL    HW210851   8.426   0.361   3.573 -0.4738 -1.0201  1.0430
33641SOL     OW10852  11.786  13.168   1.194 -0.0715  0.0160 -0.2169
33641SOL    HW110853  11.762  13.209   1.277  2.3187  1.0329  0.0493
33641SOL    HW210854  11.851  13.227   1.156  1.1105 -1.9275 -1.3963
33642SOL     OW10855   7.310  12.140  10.876 -0.1126 -0.0861  0.9914
33642SOL    HW110856   7.319  12.117  10.968 -0.4698  0.2282  1.1042
33642SOL    HW210857   7.278  12.060  10.834  0.4773 -0.3635  1.0599
33643SOL     OW10858   5.106  11.459  11.978 -0.0149 -0.1640  0.2502
33643SOL    HW110859   5.179  11.434  12.035  0.2904 -1.3545 -0.6413
33643SOL    HW210860   5.032  11.409  12.012  0.3099 -1.3638 -0.7555
33644SOL     OW10861   6.099   6.720  11.403  0.3149 -0.1740  0.3947
33644SOL    HW110862   6.013   6.763  11.405  0.1715 -0.4633  1.7381
33644SOL    HW210863   6.160   6.790  11.378 -0.4096 -0.2278 -1.7027
33645SOL     OW10864  11.160   5.283   4.882 -0.4072 -0.1294 -0.1697
33645SOL    HW110865  11.211   5.285   4.963  0.1815 -2.1841 -0.4516
33645SOL    HW210866  11.200   5.351   4.827  2.5006 -2.0381 -0.6103
33646SOL     OW10867   1.538  10.588   0.159  0.1156 -0.6508 -0.1709
33646SOL    HW110868   1.620  10.556   0.121 -0.8018 -0.7796 -2.1676
33646SOL    HW210869   1.483  10.609   0.083 -2.6226 -2.8714  1.0412
33647SOL     OW10870   7.924   1.088   1.456 -0.1092 -0.0365 -0.2603
33647SOL    HW110871   7.911   1.172   1.500  0.8279  0.7348 -1.4096
33647SOL    HW210872   7.880   1.025   1.513  0.2164  1.0469  1.2761
33648SOL     OW10873  12.642   7.579   8.429 -0.4058  0.1046  0.7546
33648SOL    HW110874  12.664   7.672   8.426 -0.7427  0.1649  0.0097
33648SOL    HW210875  12.585   7.571   8.506 -0.4292  0.5260  0.7839
33649SOL     OW10876   1.024   1.799   7.736  0.1560  0.1252 -0.4619
33649SOL    HW110877   0.969   1.877   7.749 -0.1835 -0.4673  2.3348
33649SOL    HW210878   1.111   1.833   7.715 -0.0579  1.2608  0.4271
33650SOL     OW10879  10.997   9.539   3.603 -0.2025 -0.3348 -0.4141
33650SOL    HW110880  10.957   9.624   3.624  3.3323  1.2437  0.7588
33650SOL    HW210881  11.012   9.498   3.688  1.3050 -0.4289 -0.6832
33651SOL     OW10882   8.728  12.270   4.839  0.1688 -0.1145  0.2413
33651SOL    HW110883   8.736  12.213   4.762 -0.1772  0.1169  0.0337
33651SOL    HW210884   8.804  12.327   4.835  0.0631  0.0089 -0.0235
33652SOL     OW10885  13.093  10.202  10.599 -0.2430 -0.3237 -0.2738
33652SOL    HW110886  13.162  10.153  10.644 -0.8591 -0.7951  0.1778
33652SOL    HW210887  13.075  10.152  10.520  0.0670 -0.1013 -0.4820
33653SOL     OW10888   3.399  10.787   5.452 -0.0983  0.3993  0.4343
33653SOL    HW110889   3.375  10.784   5.544  0.6943  0.2442  0.6457
33653SOL    HW210890   3.473  10.848   5.448  1.3650 -1.2974  0.2720
33654SOL     OW10891   1.519   6.903  10.148 -0.0056  0.0480  0.0014
33654SOL    HW110892   1.459   6.929  10.217 -0.0299 -0.0090  0.0021
33654SOL    HW210893   1.479   6.824  10.110 -0.9707  1.1244 -1.3170
33655SOL     OW10894   7.176   8.599   6.389 -0.2763  0.2361 -0.1267
33655SOL    HW110895   7.095   8.559   6.357 -0.4347  0.1767  0.3379
33655SOL    HW210896   7.162   8.608   6.483  1.3351 -2.3656  0.4487
33656SOL     OW10897   0.461  10.101  11.163  0.2682  1.0801 -0.4679
33656SOL    HW110898   0.517  10.160  11.213  1.6312 -1.4681  1.2188
33656SOL    HW210899   0.434  10.034  11.226 -1.6644  0.1608 -2.1431
33657SOL     OW10900   9.998   8.480   3.878  0.6826 -0.0205 -0.8923
33657SOL    HW110901   9.939   8.407   3.899  1.0540  0.3233  1.5840
33657SOL    HW210902   9.956   8.557   3.917  1.9494  0.5033 -0.5334
33658SOL     OW10903  10.821   8.149   9.577 -0.0072 -0.1481  0.1489
33658SOL    HW110904  10.804   8.239   9.549  0.2087 -0.0826  0.2259
33658SOL    HW210905  10.914   8.136   9.559 -0.1505 -0.5271 -0.3455
33659SOL     OW10906  12.415   3.884   6.007  0.8538 -0.1487  0.0376
33659SOL    HW110907  12.494   3.830   6.014  0.2012 -1.1456  0.0118
33659SOL    HW210908  12.353   3.844   6.068  0.7445  1.3568  0.9688
33660SOL     OW10909   4.281   9.110   8.812 -0.4578  0.8426 -0.0503
33660SOL    HW110910   4.306   9.028   8.771 -1.6551 -0.6054  1.9051
33660SOL    HW210911   4.364   9.156   8.828  0.5061 -1.1408  1.0207
33661SOL     OW10912   4.462   0.455  11.437  0.8102 -0.0980 -0.1721
33661SOL    HW110913   4.496   0.499  11.515  0.6490 -0.7907  0.2948
33661SOL    HW210914   4.486   0.363  11.448 -0.1542 -0.3966 -0.4200
33662SOL     OW10915   2.546   4.547  12.312 -0.2885  0.3151  0.2295
33662SOL    HW110916   2.603   4.610  12.356 -0.7387 -0.2771  1.7122
33662SOL    HW210917   2.576   4.547  12.221  0.0860  2.2455  0.3056
33663SOL     OW10918   8.265   9.202   2.928 -0.0695 -0.2522 -0.1724
33663SOL    HW110919   8.315   9.127   2.898  0.3460 -0.7373  1.5908
33663SOL    HW210920   8.280   9.205   3.023 -0.1785  1.9725 -0.1579
33664SOL     OW10921   2.747   2.863   1.683  0.1072  0.3599  0.1079
33664SOL    HW110922   2.700   2.898   1.608  0.1959 -1.4262 -0.8296
33664SOL    HW210923   2.837   2.851   1.652  0.2714  0.1212  0.6549
33665SOL     OW10924   9.625  10.114   0.920  0.1289  0.0945  0.1689
33665SOL    HW110925   9.615  10.147   0.831 -0.7990 -0.8561 -0.0976
33665SOL    HW210926   9.677  10.034   0.910  0.2350  0.1164  0.5145
33666SOL     OW10927   0.826  12.081   4.529  0.0427 -0.5025 -0.1204
33666SOL    HW110928   0.756  12.124   4.579  1.7041  2.2237  0.0311
33666SOL    HW210929   0.907  12.116   4.566  1.4432 -1.5528 -2.0339
33667SOL     OW10930   3.636   3.026   6.536  0.4680 -0.3213 -0.0842
33667SOL    HW110931   3.618   3.110   6.495 -1.2815 -0.9393 -0.6724
33667SOL    HW210932   3.603   3.034   6.625  1.5039  0.0165  0.2894
33668SOL     OW10933   1.869   7.790   0.758  0.0601  0.2650  0.0033
33668SOL    HW110934   1.922   7.784   0.838 -0.8744  1.5425  0.7573
33668SOL    HW210935   1.933   7.785   0.687  1.0523  0.4566  0.8493
33669SOL     OW10936   7.566  10.365  12.966 -0.5872 -0.4565 -0.1212
33669SOL    HW110937   7.658  10.388  12.975  0.9470 -5.4614 -0.0185
33669SOL    HW210938   7.526  10.392  13.049  0.6716  1.8021 -0.1715
33670SOL     OW10939   5.278   5.668  12.976  0.4522  0.3022 -0.3529
33670SOL    HW110940   5.246   5.607  12.910  0.8411 -0.0327 -0.2338
33670SOL    HW210941   5.371   5.677  12.958  0.2569  1.4738 -0.8620
33671SOL     OW10942   9.869   9.105   8.821 -0.3343  0.2816  0.1684
33671SOL    HW110943   9.820   9.039   8.773 -0.2232 -0.3236  0.8745
33671SOL    HW210944   9.818   9.121   8.900 -0.3742  1.0654 -0.0069
33672SOL     OW10945   6.565   1.058   6.476  0.1931 -0.0427  0.1564
33672SOL    HW110946   6.592   1.002   6.548 -2.1527 -2.4849 -0.7010
33672SOL    HW210947   6.623   1.033   6.403 -0.0551 -0.5017  0.1129
33673SOL     OW10948   8.633   6.386   7.647 -0.4417  0.1808 -0.2293
33673SOL    HW110949   8.729   6.395   7.647 -0.5485  1.8322 -1.2773
33673SOL    HW210950   8.614   6.335   7.725  1.4019 -1.7723 -0.9460
33674SOL     OW10951   2.678   5.617  10.246 -0.2889  0.1983  0.0042
33674SOL    HW110952   2.626   5.659  10.314 -1.6974 -0.7086 -0.4752
33674SOL    HW210953   2.622   5.546  10.213  0.0008  1.0868 -2.6435
33675SOL     OW10954   0.177  12.757   0.821  0.0634  0.3091  0.1813
33675SOL    HW110955   0.090  12.795   0.821 -0.1540 -0.1432 -1.0925
33675SOL    HW210956   0.228  12.811   0.761  0.7484  0.7194  1.0969
33676SOL     OW10957   4.262   6.923   6.143  0.7825 -0.2508  0.2782
33676SOL    HW110958   4.179   6.933   6.190  0.1158  1.2566 -1.1246
33676SOL    HW210959   4.328   6.929   6.211 -0.1839  1.0327  1.1696
33677SOL     OW10960  10.056   3.408   4.117  0.2385 -0.0842 -0.4298
33677SOL    HW110961  10.030   3.340   4.055  1.0378 -0.1931 -0.6474
33677SOL    HW210962  10.150   3.417   4.106  0.3796 -0.0385  0.7049
33678SOL     OW10963   4.720   3.651   0.020  0.2449  0.1452  0.4024
33678SOL    HW110964   4.693   3.645   0.112  0.9425  0.4525  0.6352
33678SOL    HW210965   4.755   3.740   0.011 -1.9151  0.9540 -0.7451
33679SOL     OW10966  10.748  10.076  11.753 -0.5882 -0.3129 -0.3898
33679SOL    HW110967  10.662  10.035  11.740 -0.4725 -1.0331  0.9189
33679SOL    HW210968  10.748  10.102  11.845  0.1894  0.7027 -0.6501
33680SOL     OW10969  13.066   5.223   5.467  0.3194 -0.1160 -0.1551
33680SOL    HW110970  13.019   5.304   5.487 -1.4237 -0.9976 -0.4816
33680SOL    HW210971  13.093   5.189   5.553  1.0762  0.7781 -0.0176
33681SOL     OW10972  12.539   4.580  12.304 -0.3585 -0.3541  0.1169
33681SOL    HW110973  12.505   4.638  12.236  2.1473  1.2076  0.0705
33681SOL    HW210974  12.538   4.493  12.264 -0.2963  0.3031 -1.3964
33682SOL     OW10975   6.554  10.820   9.083 -0.4480 -0.2602  0.0263
33682SOL    HW110976   6.461  10.841   9.077 -0.5192 -0.4949  0.3126
33682SOL    HW210977   6.564  10.739   9.033 -0.1777  0.4153 -1.0498
33683SOL     OW10978  12.087   5.954   2.841 -0.2536 -0.2370  0.4209
33683SOL    HW110979  12.086   5.876   2.786 -1.2180 -0.9370  1.4183
33683SOL    HW210980  12.044   6.021   2.787  2.9967  0.4634 -1.5683
33684SOL     OW10981  12.729  11.749   5.765 -0.3108 -0.6237 -0.5906
33684SOL    HW110982  12.639  11.720   5.754 -0.1057 -1.4771 -0.1862
33684SOL    HW210983  12.723  11.842   5.787 -1.0703 -0.6094 -0.8555
33685SOL     OW10984  10.653  11.510   1.237 -0.3017  0.3100 -0.0907
33685SOL    HW110985  10.611  11.426   1.255 -1.3002  1.1367  1.6477
33685SOL    HW210986  10.642  11.521   1.142 -0.2034 -1.4638 -0.3561
33686SOL     OW10987   6.114  13.155   7.380 -0.1383 -0.3400 -0.7739
33686SOL    HW110988   6.119  13.218   7.452 -0.9151  0.0126 -1.0212
33686SOL    HW210989   6.204  13.148   7.348 -0.0835  0.9052 -0.9532
33687SOL     OW10990   0.442  12.618   5.809  0.4257  0.3699  0.1951
33687SOL    HW110991   0.502  12.554   5.847  2.7050  1.5009 -1.2210
33687SOL    HW210992   0.498  12.693   5.788 -1.6076  1.7003 -0.7937
33688SOL     OW10993  11.859   6.141  10.926 -0.0757  0.3200 -0.1696
33688SOL    HW110994  11.795   6.142  10.997 -0.7360 -0.6800 -0.7113
33688SOL    HW210995  11.806   6.124  10.847  0.7588  0.3383 -0.7452
33689SOL     OW10996   4.872   6.640  10.025  0.3636  0.4613 -0.0571
33689SOL    HW110997   4.803   6.574  10.034  1.1715 -0.5020 -0.5854
33689SOL    HW210998   4.879   6.679  10.112  0.2110 -0.5324  0.4229
33690SOL     OW10999   2.824   7.614   0.305  0.5467 -0.2150 -0.2772
33690SOL    HW111000   2.807   7.522   0.286  0.7412 -0.4672  0.6920
33690SOL    HW211001   2.917   7.617   0.327  0.8278  0.4322 -1.4692
33691SOL     OW11002   3.402  11.357   6.015 -0.2342  0.2541  0.8915
33691SOL    HW111003   3.369  11.374   5.927 -1.8838 -0.8080  1.2663
33691SOL    HW211004   3.394  11.441   6.060  0.7626  0.8416  0.0159
33692SOL     OW11005   0.554  13.031  12.538 -0.1590  0.2520 -0.3079
33692SOL    HW111006   0.499  13.086  12.594 -0.8647  1.2503 -1.9239
33692SOL    HW211007   0.616  13.091  12.498  0.7329 -0.5420 -0.1636
33693SOL     OW11008   5.201   9.649   5.976  0.6501 -0.7756  0.6067
33693SOL    HW111009   5.168   9.666   6.064 -0.2392 -0.9796  0.3216
33693SOL    HW211010   5.189   9.555   5.963  0.2489 -0.6577  0.0697
33694SOL     OW11011   3.354   8.996   6.786 -0.1159 -0.1638 -0.0821
33694SOL    HW111012   3.328   9.003   6.694  0.1289  1.6955 -0.0556
33694SOL    HW211013   3.363   8.902   6.802  0.5094 -0.5059 -2.1548
33695SOL     OW11014  11.492   7.007  13.113  0.0482 -0.0755  0.2730
33695SOL    HW111015  11.573   7.058  13.112  0.1205 -0.1933 -0.3356
33695SOL    HW211016  11.486   6.970  13.025  0.6420 -2.1054  1.0110
33696SOL     OW11017   0.302  11.686  11.702 -0.0863  0.4754  0.8242
33696SOL    HW111018   0.227  11.740  11.680  0.5216  0.9672 -0.1534
33696SOL    HW211019   0.376  11.728  11.656  0.7267 -0.1429  1.5316
33697SOL     OW11020  11.787   9.804  12.763 -0.1608  0.1163  0.0022
33697SOL    HW111021  11.870   9.756  12.761 -0.7801 -1.0923  1.6315
33697SOL    HW211022  11.720   9.736  12.758 -1.1131  1.1152 -2.1651
33698SOL     OW11023   5.555   5.370   5.896 -0.1756  0.0355 -0.2821
33698SOL    HW111024   5.545   5.300   5.961  1.3054  0.2835  0.2601
33698SOL    HW211025   5.501   5.442   5.930 -1.7671 -0.8342 -0.8832
33699SOL     OW11026  12.532   6.201  10.118  0.5282  0.1144 -0.2255
33699SOL    HW111027  12.480   6.175  10.194 -0.0756  0.6236 -0.4553
33699SOL    HW211028  12.613   6.151  10.126 -0.0984 -0.8847  0.0043
33700SOL     OW11029  11.283   5.377  12.389 -0.3944  0.2251 -0.0430
33700SOL    HW111030  11.330   5.461  12.392  0.8589 -0.3284 -2.1060
33700SOL    HW211031  11.352   5.311  12.397 -1.0136 -0.6123 -1.3023
33701SOL     OW11032   2.698   1.731   0.875 -0.1495  0.1346 -0.1410
33701SOL    HW111033   2.609   1.754   0.899  0.1379  2.2135 -0.8617
33701SOL    HW211034   2.691   1.641   0.842 -2.0785  0.4595 -0.7550
33702SOL     OW11035   2.107   5.011  10.243 -0.2000 -0.2460 -0.2977
33702SOL    HW111036   2.092   5.012  10.338  2.0390  1.2187  0.1079
33702SOL    HW211037   2.142   4.923  10.226  0.0273 -0.2971  0.3821
33703SOL     OW11038  12.425   0.737   9.349 -0.2942  0.2554 -0.1359
33703SOL    HW111039  12.517   0.748   9.327  0.2061  1.1105  2.0951
33703SOL    HW211040  12.391   0.827   9.357 -0.2892  0.1114  2.6948
33704SOL     OW11041   2.634  10.420   5.370  0.1842 -0.8262 -0.2855
33704SOL    HW111042   2.574  10.430   5.296 -0.1028  1.1780  0.1372
33704SOL    HW211043   2.652  10.326   5.375  0.3432 -0.9960 -2.9582
33705SOL     OW11044   7.981   0.073   2.590  0.5472  0.3989 -0.0122
33705SOL    HW111045   7.996   0.102   2.680  1.2371 -0.2002  0.0679
33705SOL    HW211046   8.024   0.140   2.536  0.0105  0.8353  0.0900
33706SOL     OW11047  13.100   6.938  10.746 -0.0392  0.0210 -0.3313
33706SOL    HW111048  13.010   6.959  10.771 -1.0846 -1.9857 -2.0019
33706SOL    HW211049  13.152   7.013  10.775 -2.5229  2.1427 -0.9966
33707SOL     OW11050   5.317  11.869  12.964 -0.2186 -0.1165 -0.7697
33707SOL    HW111051   5.399  11.854  13.011 -0.9291  0.6041  0.7502
33707SOL    HW211052   5.326  11.817  12.884  1.3417 -0.7571 -0.2190
33708SOL     OW11053   7.507   0.785   3.532  0.0030 -0.0689  0.3932
33708SOL    HW111054   7.518   0.698   3.569 -0.2239 -0.8210 -1.2346
33708SOL    HW211055   7.568   0.788   3.459 -0.4142  0.9373  0.0715
33709SOL     OW11056   8.798   8.114   3.363  0.6499 -0.1291 -0.0555
33709SOL    HW111057   8.726   8.165   3.399  2.3198  2.3629 -0.0515
33709SOL    HW211058   8.820   8.051   3.433  1.5459  2.2730  1.9728
33710SOL     OW11059   2.490  12.065   5.051 -0.1116  0.5042 -0.1147
33710SOL    HW111060   2.475  12.091   4.960  1.7132  0.5823 -0.4130
33710SOL    HW211061   2.537  12.138   5.090  1.0891 -0.4524  0.2736
33711SOL     OW11062   4.228   4.161   4.704  0.0503  0.3906  0.0302
33711SOL    HW111063   4.177   4.139   4.626  0.6766 -1.9662  0.2237
33711SOL    HW211064   4.164   4.195   4.766 -0.8081  0.2446 -0.7488
33712SOL     OW11065   2.053  10.319   9.413  0.5550  0.4193 -0.3468
33712SOL    HW111066   1.983  10.283   9.467  0.8052  0.3965 -0.0321
33712SOL    HW211067   2.078  10.247   9.355  1.0535  0.0718  0.2814
33713SOL     OW11068   1.959   0.959   3.964  0.0079 -0.1570  0.1346
33713SOL    HW111069   2.001   0.899   3.901 -0.6102 -1.1767  0.6641
33713SOL    HW211070   2.010   1.040   3.958  0.7146 -0.6543 -0.7868
33714SOL     OW11071   2.687   0.142   6.247 -0.2291 -0.2201 -0.0976
33714SOL    HW111072   2.747   0.172   6.179  0.2612 -0.7389  0.0931
33714SOL    HW211073   2.705   0.198   6.322  1.7830 -1.9281  0.7682
33715SOL     OW11074   9.319   4.692  13.211 -0.7786 -0.6760 -0.0197
33715SOL    HW111075   9.263   4.629  13.166 -0.3795 -0.8053 -0.3313
33715SOL    HW211076   9.257   4.746  13.261 -1.1160 -1.3599  0.3179
33716SOL     OW11077   3.807   0.756  11.164 -0.0000 -0.2067 -0.4701
33716SOL    HW111078   3.873   0.695  11.130 -0.0355 -1.0455  0.8656
33716SOL    HW211079   3.760   0.705  11.230 -1.8912  0.4169 -1.2473
33717SOL     OW11080   7.980   0.522   2.001 -0.6068  0.1119  0.2815
33717SOL    HW111081   8.075   0.515   2.007 -0.5131  1.2234  0.2334
33717SOL    HW211082   7.951   0.433   1.978  0.5082  0.0349 -0.9197
33718SOL     OW11083   3.377   7.169   6.956  0.3733 -0.5452 -0.3042
33718SOL    HW111084   3.443   7.149   7.022 -0.3251 -0.7958  0.3337
33718SOL    HW211085   3.347   7.083   6.924 -0.0930 -0.4501 -0.1312
33719SOL     OW11086   0.611  10.793   8.551  0.1725 -0.2241 -0.2375
33719SOL    HW111087   0.551  10.734   8.505 -0.3252  0.1436 -0.0591
33719SOL    HW211088   0.645  10.740   8.623  1.2015 -0.9093 -1.1858
33720SOL     OW11089  13.145   2.957   8.630  0.0340  0.5431 -0.3713
33720SOL    HW111090  13.205   2.931   8.700  0.9365  0.5116 -1.1387
33720SOL    HW211091  13.172   2.905   8.554 -2.4110 -1.1788 -0.1795
33721SOL     OW11092   6.162  11.571   0.750  0.1356  0.2207 -0.7337
33721SOL    HW111093   6.072  11.568   0.782  0.0875  2.5820 -0.4656
33721SOL    HW211094   6.217  11.557   0.827 -0.0040  1.4519 -0.4021
33722SOL     OW11095   4.020   8.506   2.876  0.3046  0.3961  0.2359
33722SOL    HW111096   3.925   8.514   2.877  0.2628  0.0392 -0.3984
33722SOL    HW211097   4.040   8.432   2.933  0.2439  0.8600  0.8577
33723SOL     OW11098   2.777  10.813   7.142  0.5774 -0.4680 -0.2225
33723SOL    HW111099   2.781  10.872   7.218  0.3455 -2.4404  1.4304
33723SOL    HW211100   2.704  10.846   7.090  0.1746  0.4547  0.8754
33724SOL     OW11101   1.843   0.740  11.537  0.5220 -0.0043  0.5624
33724SOL    HW111102   1.894   0.817  11.562 -1.1818  1.5674 -0.5132
33724SOL    HW211103   1.867   0.724  11.445  1.2789 -1.1495  0.9350
33725SOL     OW11104   6.359   8.646   6.235 -0.2395 -0.2197  0.1468
33725SOL    HW111105   6.376   8.553   6.252  1.2690 -0.3933 -2.0418
33725SOL    HW211106   6.441   8.690   6.259 -0.2329  0.2718 -0.7565
33726SOL     OW11107   9.006   2.945   1.644 -0.5832  0.2640  0.0603
33726SOL    HW111108   9.033   2.992   1.723  0.2520 -0.2168  0.0694
33726SOL    HW211109   8.912   2.934   1.653 -0.7043  1.3990  0.3470
33727SOL     OW11110  11.876   3.192   9.642 -0.0229 -0.6239 -0.3502
33727SOL    HW111111  11.847   3.191   9.551 -1.0878 -0.8360 -0.0197
33727SOL    HW211112  11.940   3.121   9.648 -0.5576 -1.1474 -0.7510
33728SOL     OW11113  12.480   0.168  10.448  0.2811 -0.2252  0.0183
33728SOL    HW111114  12.561   0.179  10.399  1.8685 -1.3542  2.2194
33728SOL    HW211115  12.413   0.154  10.381  1.6417  1.7874 -1.9343
33729SOL     OW11116   9.530  10.474   9.020 -0.0126  0.4598  0.1353
33729SOL    HW111117   9.589  10.422   9.075 -0.2402 -0.3941 -0.3950
33729SOL    HW211118   9.466  10.511   9.081  1.6213  2.2486  0.8556
33730SOL     OW11119   0.588   9.063  12.951 -0.0446  0.2628 -0.3437
33730SOL    HW111120   0.675   9.036  12.979 -0.4362 -0.7481 -0.0212
33730SOL    HW211121   0.528   9.018  13.011 -0.7775  1.3207 -0.2559
33731SOL     OW11122   0.470   3.437   9.904 -0.7241 -0.0351  0.7086
33731SOL    HW111123   0.429   3.379   9.969  0.0980  1.1421  2.3556
33731SOL    HW211124   0.480   3.520   9.950  1.3870  0.3712 -0.3958
33732SOL     OW11125   1.367   3.140   1.450  0.5429  0.6220 -0.2160
33732SOL    HW111126   1.343   3.128   1.358  1.5408 -0.6381 -0.3415
33732SOL    HW211127   1.449   3.091   1.459 -0.2892 -0.4902  1.6874
33733SOL     OW11128  11.947  11.452  12.616  0.3491 -0.1448  0.1275
33733SOL    HW111129  12.024  11.491  12.574  0.6692  0.0853  0.9089
33733SOL    HW211130  11.883  11.522  12.622 -0.3404 -0.5973 -1.4763
33734SOL     OW11131  12.149   8.987   2.002  0.6179  0.7895 -0.1089
33734SOL    HW111132  12.189   8.905   2.028  0.1863  0.3471 -0.8077
33734SOL    HW211133  12.170   9.048   2.073  0.4995 -0.0540  0.6639
33735SOL     OW11134   5.421   6.590   3.544 -0.7871  0.1562 -0.2625
33735SOL    HW111135   5.355   6.575   3.612  1.1687  0.8989  1.9212
33735SOL    HW211136   5.472   6.508   3.542 -0.8101  0.1541 -0.8173
33736SOL     OW11137   9.724   5.546   1.321 -0.3753  0.5195 -0.2935
33736SOL    HW111138   9.654   5.598   1.280  0.3443  1.2166 -0.6680
33736SOL    HW211139   9.764   5.497   1.249 -0.0629  0.6154 -0.1890
33737SOL     OW11140   3.023   0.477   6.523 -0.4068  0.7449 -0.3707
33737SOL    HW111141   3.092   0.411   6.513 -0.3834  0.7509 -0.2568
33737SOL    HW211142   3.059   0.555   6.482  0.0216  1.0040  0.4805
33738SOL     OW11143   2.590  12.919  11.338 -1.3767 -0.3260 -0.3393
33738SOL    HW111144   2.645  12.908  11.416 -0.1529 -2.6285 -1.4400
33738SOL    HW211145   2.507  12.879  11.362 -1.0243 -0.9795 -0.1817
33739SOL     OW11146  12.491  11.706  13.127 -0.2804 -0.2116 -0.0455
33739SOL    HW111147  12.542  11.743  13.055  0.2721 -1.9783 -0.6149
33739SOL    HW211148  12.460  11.782  13.176  1.6353  0.9638 -0.5502
33740SOL     OW11149  10.337   4.542   3.653  0.2562  0.2904 -0.3135
33740SOL    HW111150  10.413   4.487   3.633  0.9281  1.1006 -0.0887
33740SOL    HW211151  10.264   4.481   3.662  0.9585 -0.5485 -0.1621
33741SOL     OW11152   5.509   7.787  12.593 -0.0459 -0.1892 -0.3354
33741SOL    HW111153   5.549   7.709  12.554  0.2697  0.2375 -0.8827
33741SOL    HW211154   5.428   7.800  12.543 -2.0505 -2.2687  2.1062
33742SOL     OW11155   3.694   1.534   1.971  0.2821 -0.4833 -0.2984
33742SOL    HW111156   3.640   1.593   1.918 -1.7601  0.1833  2.2915
33742SOL    HW211157   3.744   1.593   2.028  0.3173 -1.2133  0.4352
33743SOL     OW11158   0.102   5.531   3.076  0.2234 -0.2141 -0.1707
33743SOL    HW111159   0.091   5.519   2.981 -1.4423  1.1958 -0.2112
33743SOL    HW211160   0.185   5.578   3.084  0.7112 -0.9285 -0.8716
33744SOL     OW11161   6.526   5.408  10.408 -0.3200  0.0063  0.2092
33744SOL    HW111162   6.474   5.482  10.379 -0.8220  0.5343  2.2721
33744SOL    HW211163   6.601   5.447  10.452 -0.7425 -0.6485  1.5915
33745SOL     OW11164  10.495   4.311   1.000 -0.2534  0.0443 -0.0612
33745SOL    HW111165  10.557   4.306   0.926 -0.8737 -0.3040 -0.5668
33745SOL    HW211166  10.548   4.290   1.077  0.4102  0.4427 -0.3998
33746SOL     OW11167  10.495   8.697   2.249 -0.2040  0.2148  0.2043
33746SOL    HW111168  10.588   8.692   2.269  0.6946  2.3015 -2.6930
33746SOL    HW211169  10.471   8.608   2.225  1.1817 -0.2577  0.4684
33747SOL     OW11170   3.158   5.681  13.194 -0.0540  0.2011 -0.2741
33747SOL    HW111171   3.136   5.704  13.104 -0.6931 -0.3415 -0.2602
33747SOL    HW211172   3.216   5.605  13.186 -1.7525 -1.1598 -0.1895
33748SOL     OW11173  10.935   9.489   2.980  0.0986 -0.2138  0.0220
33748SOL    HW111174  11.021   9.457   3.009  0.2455 -1.1615 -1.3659
33748SOL    HW211175  10.873   9.428   3.019 -0.2715  1.8981  3.1665
33749SOL     OW11176  11.380   0.405  10.991 -0.4131 -0.4442 -0.0200
33749SOL    HW111177  11.408   0.368  10.907  0.6134 -1.1304  0.6030
33749SOL    HW211178  11.287   0.422  10.979 -1.1622 -3.8924 -0.1708
33750SOL     OW11179   3.528   1.439  11.112  0.5250  0.0518 -0.0718
33750SOL    HW111180   3.454   1.416  11.168  0.3893  0.8585  0.0936
33750SOL    HW211181   3.504   1.407  11.026 -0.7986  1.7751 -0.3905
33751SOL     OW11182   7.337   6.556   9.810  0.1898 -0.7159 -0.1220
33751SOL    HW111183   7.254   6.562   9.762  0.6211 -0.2173 -0.8138
33751SOL    HW211184   7.345   6.463   9.833 -1.6720 -0.4601  1.9445
33752SOL     OW11185   9.557   1.065   2.816  0.8545 -0.2665 -0.1774
33752SOL    HW111186   9.502   1.038   2.741  0.4239 -0.1617  0.0965
33752SOL    HW211187   9.510   1.032   2.893  1.9147 -1.4487 -0.0036
33753SOL     OW11188   0.514   1.361   6.544 -0.1934 -0.3221 -0.3951
33753SOL    HW111189   0.480   1.302   6.610 -0.0677  0.8928  0.8057
33753SOL    HW211190   0.447   1.429   6.536  0.7803  0.7422  0.1623
33754SOL     OW11191   7.736  10.769  11.100  0.5485 -0.4834  0.4253
33754SOL    HW111192   7.684  10.837  11.144  0.0228 -0.1869 -0.6320
33754SOL    HW211193   7.792  10.818  11.040  0.4417 -0.9513 -0.0604
33755SOL     OW11194   2.103   0.484   4.234  0.0036  0.4722  0.7340
33755SOL    HW111195   2.118   0.391   4.214  1.1616  0.7961  0.0138
33755SOL    HW211196   2.023   0.506   4.187  0.1589  0.0265  0.2501
33756SOL     OW11197   2.616   7.759   8.146  0.2903 -0.0562 -0.1865
33756SOL    HW111198   2.629   7.821   8.075 -0.6119  1.6042  1.0516
33756SOL    HW211199   2.705   7.730   8.169  0.6908  0.4531 -1.0666
33757SOL     OW11200   7.089   4.987   9.554  0.2671  0.4843 -0.2032
33757SOL    HW111201   7.148   4.915   9.532  1.6016  1.7335 -0.8192
33757SOL    HW211202   7.001   4.950   9.540  0.9036 -1.0784 -0.2830
33758SOL     OW11203   4.658  10.692   1.851 -0.2058 -0.1769  0.0135
33758SOL    HW111204   4.688  10.781   1.865  2.8484 -0.7892 -1.7290
33758SOL    HW211205   4.615  10.694   1.766 -0.8072 -0.2421  0.3114
33759SOL     OW11206   1.096   0.357   4.336 -0.5491  0.2042  0.0625
33759SOL    HW111207   1.087   0.338   4.430  0.5204 -1.5720 -0.1501
33759SOL    HW211208   1.133   0.445   4.334  0.8931 -0.3111  1.4019
33760SOL     OW11209   0.464   3.713   2.405  0.6440  0.1957  0.1024
33760SOL    HW111210   0.505   3.639   2.451  0.2064  0.4441  0.9138
33760SOL    HW211211   0.522   3.787   2.421  1.0690  0.0403 -0.6899
33761SOL     OW11212   8.061   3.615   0.765  0.3445 -0.0017 -0.4660
33761SOL    HW111213   8.017   3.531   0.750  1.8990 -0.9502  0.0405
33761SOL    HW211214   8.105   3.604   0.849  0.7758  1.2415 -0.5146
33762SOL     OW11215   4.249   3.404   3.484 -0.0052  0.7151 -0.5682
33762SOL    HW111216   4.171   3.455   3.505  0.5440  0.7772  1.6076
33762SOL    HW211217   4.318   3.470   3.471 -0.2845  0.6613 -2.4730
33763SOL     OW11218   1.581  12.834   3.351 -0.2184 -0.3439 -0.8060
33763SOL    HW111219   1.533  12.815   3.270  0.0970  2.1773 -1.6846
33763SOL    HW211220   1.662  12.876   3.322  0.8868 -1.2554  0.7873
33764SOL     OW11221  12.735  12.277   6.201 -0.2238  0.5132 -0.4159
33764SOL    HW111222  12.670  12.259   6.269  0.4080 -0.0459  0.0482
33764SOL    HW211223  12.783  12.195   6.191  1.3307  1.3151  0.2395
33765SOL     OW11224   4.874   9.051   7.042  0.5060  0.3967  0.3479
33765SOL    HW111225   4.936   9.123   7.048  1.8573 -0.7042 -0.0081
33765SOL    HW211226   4.907   8.985   7.103 -0.6491  0.0134  0.5875
33766SOL     OW11227   7.123   4.820   0.750 -0.4261 -0.2977  0.1710
33766SOL    HW111228   7.063   4.752   0.781  0.2844  0.0990  2.6822
33766SOL    HW211229   7.086   4.902   0.783  0.1693  0.2141 -0.4149
33767SOL     OW11230   2.657   0.793   4.530 -0.4017  0.4176 -0.3922
33767SOL    HW111231   2.642   0.886   4.541 -2.7159 -0.1492  2.1934
33767SOL    HW211232   2.736   0.775   4.580 -1.6016  0.5960  1.6790
33768SOL     OW11233   5.187  10.520   0.783  1.0877 -0.3962  0.4027
33768SOL    HW111234   5.106  10.467   0.780  1.5358 -1.0522 -1.3470
33768SOL    HW211235   5.248  10.473   0.726  1.4391  2.1217 -1.4827
33769SOL     OW11236   3.868   6.120   2.074 -0.3080 -0.4683 -0.2725
33769SOL    HW111237   3.811   6.043   2.069 -2.3559  0.9174  0.4170
33769SOL    HW211238   3.951   6.091   2.037 -0.7386 -3.2444  0.6910
33770SOL     OW11239   7.099  13.299  12.276 -0.0894  0.5160 -0.0052
33770SOL    HW111240   7.127  13.353  12.202 -0.8703 -0.5091 -1.1017
33770SOL    HW211241   7.145  13.335  12.351 -0.7720  2.8679 -0.6215
33771SOL     OW11242  11.942   7.593   4.586 -0.5494 -0.0261  0.5066
33771SOL    HW111243  11.991   7.672   4.609  0.1471  0.0163 -0.9830
33771SOL    HW211244  11.962   7.579   4.494  1.0285 -3.0776  1.1566
33772SOL     OW11245  10.361   7.425   9.611  0.2970  0.5569 -0.4071
33772SOL    HW111246  10.400   7.410   9.697 -2.2124 -1.1157  0.5380
33772SOL    HW211247  10.347   7.338   9.576  1.7255  1.2097 -2.8181
33773SOL     OW11248   3.148  11.252   9.173  0.1659 -0.5555  0.0595
33773SOL    HW111249   3.191  11.216   9.096 -1.6672 -1.5172 -0.5750
33773SOL    HW211250   3.211  11.240   9.244  1.0201 -1.6882 -0.8670
33774SOL     OW11251   6.426   8.431  11.600  0.1931  0.1444  0.6352
33774SOL    HW111252   6.447   8.445  11.692  2.8010 -1.9367  0.4698
33774SOL    HW211253   6.477   8.496  11.552 -0.3696  0.5556  0.5767
33775SOL     OW11254  12.375   4.278   7.047 -0.6211 -0.7679 -0.2834
33775SOL    HW111255  12.283   4.287   7.023 -0.6704 -1.6053 -0.4487
33775SOL    HW211256  12.421   4.276   6.963 -0.4948 -0.7321 -0.2146
33776SOL     OW11257   4.250  10.045   6.412 -0.0582  0.6080 -0.5302
33776SOL    HW111258   4.341  10.015   6.402  0.2854  1.8932 -1.6184
33776SOL    HW211259   4.242  10.065   6.505  0.5966 -0.0351 -0.3225
33777SOL     OW11260   5.461  12.561  10.937 -0.2793  0.5403 -0.0206
33777SOL    HW111261   5.485  12.602  10.854 -2.2801  1.5031 -0.1787
33777SOL    HW211262   5.479  12.468  10.923 -0.6934  0.6629 -1.6002
33778SOL     OW11263   6.271   2.248   5.783 -0.1465 -0.1585  0.4557
33778SOL    HW111264   6.285   2.268   5.690  2.2920  1.2745  1.0435
33778SOL    HW211265   6.195   2.191   5.783  0.2530 -0.8934 -2.5048
33779SOL     OW11266  10.026   8.332   7.837 -0.5939  0.1737 -0.4089
33779SOL    HW111267   9.939   8.298   7.817 -0.5447 -1.1965  1.5127
33779SOL    HW211268  10.020   8.364   7.927  1.0038 -0.3394 -0.0889
33780SOL     OW11269   8.408  12.438   7.655 -0.4220  0.3858  0.5012
33780SOL    HW111270   8.393  12.437   7.560 -0.8086  1.7092  0.5265
33780SOL    HW211271   8.322  12.421   7.693 -0.2939  0.0026  0.6236
33781SOL     OW11272   6.171   3.342   0.938 -0.0780  0.6193 -0.0058
33781SOL    HW111273   6.250   3.372   0.893 -0.6168 -2.3139 -3.3137
33781SOL    HW211274   6.136   3.274   0.882 -3.7991  0.2227  2.4642
33782SOL     OW11275   4.964   6.994   5.969 -0.1272  0.6239 -0.1106
33782SOL    HW111276   4.959   6.898   5.965 -1.8697  0.7156 -2.1116
33782SOL    HW211277   4.907   7.018   6.041  0.3946  0.1665  0.4637
33783SOL     OW11278  11.872   3.521   9.080  0.3584  0.1234 -0.5537
33783SOL    HW111279  11.915   3.435   9.087  0.7407  0.4099  1.1142
33783SOL    HW211280  11.938   3.582   9.113 -0.1745  0.9808 -1.0592
33784SOL     OW11281  12.109   8.450   6.505  0.1279 -0.1552  0.2522
33784SOL    HW111282  12.139   8.443   6.415 -0.0649 -1.6412  0.2923
33784SOL    HW211283  12.108   8.361   6.538  1.6888  0.4798  2.2379
33785SOL     OW11284   2.133   9.311   1.093 -0.2689 -0.2099 -0.2753
33785SOL    HW111285   2.076   9.326   1.017 -0.9466 -0.2791  0.2162
33785SOL    HW211286   2.131   9.216   1.106  1.1679 -0.3954 -1.1761
33786SOL     OW11287  11.949   7.124   2.227  0.1242  0.2032 -0.4442
33786SOL    HW111288  11.966   7.209   2.186  1.0993 -0.6424 -1.9015
33786SOL    HW211289  12.036   7.085   2.239 -0.3389 -2.4117 -3.9928
33787SOL     OW11290   3.567  10.132   2.953 -0.1197 -0.4437  0.2744
33787SOL    HW111291   3.515  10.175   2.885 -0.2718 -1.1717 -0.0743
33787SOL    HW211292   3.658  10.153   2.930 -0.2320  0.7959  0.8638
33788SOL     OW11293   0.216   7.971   2.035 -0.3031  0.0107 -0.9022
33788SOL    HW111294   0.296   7.953   1.986 -1.0052 -1.2914 -1.6258
33788SOL    HW211295   0.208   7.897   2.096 -0.3009  0.7819  0.0579
33789SOL     OW11296   3.653  10.172   5.019 -0.2117  0.0834 -0.0120
33789SOL    HW111297   3.611  10.256   5.002  0.0326  0.7105  2.2483
33789SOL    HW211298   3.746  10.187   5.000 -0.2828  0.0808 -0.3704
33790SOL     OW11299   1.938   5.699   1.778 -0.1969  0.0852  0.4236
33790SOL    HW111300   2.027   5.733   1.779  0.0127 -0.3956 -0.3341
33790SOL    HW211301   1.884   5.772   1.746  0.3631 -0.4759 -2.0013
33791SOL     OW11302   8.758   4.040   2.005  0.0009  0.0689  0.3948
33791SOL    HW111303   8.842   4.027   2.048  0.8629 -0.1398 -1.2473
33791SOL    HW211304   8.734   4.130   2.027  1.0293  0.3860  0.2973
33792SOL     OW11305   6.030   1.535   8.744  0.1682  0.0001  0.0484
33792SOL    HW111306   6.046   1.522   8.838  0.3930  0.4849  0.0800
33792SOL    HW211307   5.960   1.473   8.723 -0.2948  0.3018  0.6635
33793SOL     OW11308  10.560   2.243  10.582 -0.2202  0.4449  0.3431
33793SOL    HW111309  10.589   2.283  10.500  1.5919  0.1971  0.8192
33793SOL    HW211310  10.595   2.301  10.651 -1.3825  0.4394  0.9699
33794SOL     OW11311   7.412   4.873   0.676  0.3277 -0.1440  0.4524
33794SOL    HW111312   7.460   4.853   0.595  2.9990 -2.4091  2.3902
33794SOL    HW211313   7.324   4.838   0.661  0.4770  0.2264 -1.6999
33795SOL     OW11314   0.283   0.573   6.506  0.1433  0.0448  0.0014
33795SOL    HW111315   0.342   0.606   6.574 -1.1440 -0.8102  1.6074
33795SOL    HW211316   0.338   0.566   6.428  2.1216 -0.5025  1.3555
33796SOL     OW11317   2.411   5.057   5.916  0.0958  0.7785 -0.0050
33796SOL    HW111318   2.468   5.115   5.967  0.5910  0.5296 -0.2640
33796SOL    HW211319   2.471   5.006   5.862 -0.0457 -1.7807  2.0179
33797SOL     OW11320  10.080   9.993  11.316  0.1833 -0.9823 -0.2956
33797SOL    HW111321  10.161  10.028  11.353 -1.0722 -0.7990  2.5603
33797SOL    HW211322  10.010  10.043  11.358 -1.4663 -1.1365 -2.6558
33798SOL     OW11323  11.353   2.417   5.940  0.4663  0.0835  0.0367
33798SOL    HW111324  11.280   2.466   5.977 -1.2071 -2.6455  0.6651
33798SOL    HW211325  11.431   2.460   5.976 -0.7719  2.9188 -0.4403
33799SOL     OW11326   4.148  10.081   1.210 -0.1918  0.4644  0.2902
33799SOL    HW111327   4.226  10.088   1.155  0.0000  0.7231  0.5870
33799SOL    HW211328   4.078  10.059   1.150  0.6202 -2.8520  0.3629
33800SOL     OW11329   4.641   4.669   3.866 -0.2663 -0.0294 -0.1210
33800SOL    HW111330   4.640   4.720   3.947  1.0293  0.0836 -0.1494
33800SOL    HW211331   4.734   4.648   3.853 -0.3567  0.5338 -1.9259
33801SOL     OW11332   0.976  10.329   2.266 -0.5902  0.5165  0.1413
33801SOL    HW111333   1.006  10.359   2.352  1.7654  0.0127 -0.4205
33801SOL    HW211334   0.931  10.246   2.284  1.4390 -0.5159  0.7936
33802SOL     OW11335  10.405   2.748   0.450 -0.1757 -0.6108 -1.0079
33802SOL    HW111336  10.342   2.740   0.522  0.7740  1.2131  0.1306
33802SOL    HW211337  10.483   2.702   0.481  1.1742  2.3375  0.4338
33803SOL     OW11338   0.668   2.593   3.476  0.7023 -0.2638 -0.7236
33803SOL    HW111339   0.579   2.571   3.451  0.4061  2.7976 -2.9739
33803SOL    HW211340   0.660   2.632   3.563 -0.0244 -0.8256 -0.5349
33804SOL     OW11341  12.187   4.134   5.418 -0.0746  0.0505  0.0979
33804SOL    HW111342  12.260   4.195   5.421 -0.9334  1.2429 -1.6426
33804SOL    HW211343  12.111   4.189   5.400 -1.3436 -1.2245  1.2502
33805SOL     OW11344   9.263   3.356   8.453  0.3835 -0.0631 -0.8363
33805SOL    HW111345   9.205   3.282   8.436  0.6038 -0.2700 -0.6958
33805SOL    HW211346   9.212   3.414   8.509  0.6656 -0.7229  0.1265
33806SOL     OW11347   2.467   3.553  11.177  0.2107 -0.1187 -0.1953
33806SOL    HW111348   2.472   3.629  11.235 -0.7095 -0.4602  0.3498
33806SOL    HW211349   2.553   3.512  11.184 -0.0011 -0.3763  1.2534
33807SOL     OW11350   4.500   3.873   8.553  0.1208 -0.4277  0.3586
33807SOL    HW111351   4.575   3.827   8.515  0.0786 -0.0715 -0.1720
33807SOL    HW211352   4.438   3.881   8.480  0.1932  0.6011  0.3983
33808SOL     OW11353   4.452   8.268   6.485 -0.0194 -0.0117  0.1682
33808SOL    HW111354   4.374   8.262   6.541  0.6684 -0.1165  1.1355
33808SOL    HW211355   4.518   8.216   6.530  1.0771  1.3059  0.1614
33809SOL     OW11356  13.203   2.087   8.808 -0.4466 -0.2674  0.1543
33809SOL    HW111357  13.153   2.166   8.829 -0.0550 -0.1403  0.6442
33809SOL    HW211358  13.272   2.084   8.875  0.6136 -0.0741 -0.8829
33810SOL     OW11359   9.185   7.570   4.567  0.0366  0.8530 -0.6701
33810SOL    HW111360   9.176   7.478   4.591  1.9059  1.2390  1.8812
33810SOL    HW211361   9.100   7.594   4.531 -0.6891 -1.6779 -0.8412
33811SOL     OW11362   2.834   3.576   6.316  0.1556  0.3678 -0.0638
33811SOL    HW111363   2.805   3.598   6.227 -1.5183  0.6311  0.5155
33811SOL    HW211364   2.808   3.484   6.327  0.9645  0.1323 -0.0672
33812SOL     OW11365  12.780   0.615   1.031 -0.3420  0.1045 -0.3955
33812SOL    HW111366  12.829   0.596   1.111 -0.2788  0.4287 -0.3552
33812SOL    HW211367  12.711   0.676   1.060 -0.1675  0.4173 -0.6298
33813SOL     OW11368   5.044   4.827   0.379  0.2800 -0.0460 -0.1866
33813SOL    HW111369   5.062   4.919   0.399  0.9514 -0.2281  0.0824
33813SOL    HW211370   4.968   4.829   0.320  1.9246  0.8717 -2.4177
33814SOL     OW11371   9.523   4.833   4.526 -0.0839 -0.5206  0.4530
33814SOL    HW111372   9.531   4.918   4.568 -0.5619 -0.2182 -0.0552
33814SOL    HW211373   9.453   4.789   4.575  0.3850 -0.7556  0.9232
33815SOL     OW11374   3.954   4.507   7.023 -0.1678 -0.0715  0.0625
33815SOL    HW111375   4.003   4.501   7.105  0.9355  0.4290 -0.5391
33815SOL    HW211376   4.014   4.550   6.962 -1.4525  0.7838 -0.6426
33816SOL     OW11377   6.429   8.968   7.965  0.2061  0.5711  0.6195
33816SOL    HW111378   6.483   9.029   8.014  0.2159  0.7525  0.3853
33816SOL    HW211379   6.409   8.898   8.027 -1.4793  1.7798  1.5205
33817SOL     OW11380   8.006   6.070   9.508  0.4270 -0.7620 -0.1429
33817SOL    HW111381   7.993   6.117   9.591 -0.7838  0.0413 -0.7515
33817SOL    HW211382   8.100   6.073   9.494  0.5978 -0.4732  0.9694
33818SOL     OW11383  12.264   6.414  11.682 -0.1130 -0.1670 -0.4223
33818SOL    HW111384  12.298   6.412  11.771  1.6023  2.1310 -0.9538
33818SOL    HW211385  12.169   6.404  11.693 -0.0704  1.1755  1.7503
33819SOL     OW11386  10.629   3.908  11.849 -0.3803  0.5708 -0.1615
33819SOL    HW111387  10.608   3.968  11.920  1.3621  0.2848  0.6530
33819SOL    HW211388  10.551   3.853  11.839  0.1498 -1.0740  3.2786
33820SOL     OW11389  12.734   7.452   7.698 -0.3263  0.0646  0.4730
33820SOL    HW111390  12.818   7.447   7.743 -1.2207 -0.0075  2.1887
33820SOL    HW211391  12.676   7.396   7.748 -1.6939  0.9806 -0.0261
33821SOL     OW11392  11.929   7.093   8.873  0.2753 -0.0584  0.6136
33821SOL    HW111393  12.015   7.051   8.864  0.0792 -0.2356 -0.5920
33821SOL    HW211394  11.947   7.172   8.924  1.8203  1.7112 -2.3627
33822SOL     OW11395   2.697   9.763   6.620  0.7993  0.2030  0.1106
33822SOL    HW111396   2.725   9.799   6.704 -0.5422  1.3690  0.1165
33822SOL    HW211397   2.646   9.834   6.580 -0.3356 -1.0568 -0.7645
33823SOL     OW11398   1.036  13.241   2.134  0.4530 -0.3568  0.6047
33823SOL    HW111399   1.015  13.151   2.158 -1.0101 -0.1493  0.2303
33823SOL    HW211400   0.955  13.290   2.151  0.8131  0.6466 -0.3794
33824SOL     OW11401   2.708  10.617   2.820 -0.1083 -0.4164 -0.2235
33824SOL    HW111402   2.639  10.671   2.783 -0.7123  0.8662  2.5433
33824SOL    HW211403   2.669  10.530   2.831 -0.5732 -0.2575 -0.6282
33825SOL     OW11404   0.779   0.726   2.812  0.6041 -0.2136  0.0293
33825SOL    HW111405   0.821   0.648   2.849  1.7257  0.9421  1.3144
33825SOL    HW211406   0.843   0.760   2.749  0.6621  0.3447  0.3839
33826SOL     OW11407   0.527   4.499  12.310  0.1548  0.3587 -0.2123
33826SOL    HW111408   0.435   4.511  12.335  0.1284  0.8019 -0.5173
33826SOL    HW211409   0.557   4.426  12.365 -0.6063 -0.3325 -0.6876
33827SOL     OW11410   4.499   1.511   2.388 -0.2455 -0.2889  0.4107
33827SOL    HW111411   4.518   1.565   2.310  0.1401 -0.8847  0.0844
33827SOL    HW211412   4.428   1.557   2.432 -0.6774 -0.1009 -0.4574
33828SOL     OW11413   3.333   7.500  13.307 -0.3618 -0.8851 -0.2637
33828SOL    HW111414   3.412   7.453  13.280 -0.6085 -0.5511 -1.6378
33828SOL    HW211415   3.358   7.543  13.389  0.4064 -1.9769  0.0977
33829SOL     OW11416   3.304   4.265   5.956  0.1701  0.2596 -0.1536
33829SOL    HW111417   3.238   4.321   5.915 -0.4911 -1.1862 -1.1866
33829SOL    HW211418   3.340   4.318   6.027 -0.7602  1.7857 -0.7564
33830SOL     OW11419  13.047  10.547   2.002  0.8130  0.0995 -0.0843
33830SOL    HW111420  13.025  10.454   2.007  1.4029 -0.0678 -0.4440
33830SOL    HW211421  12.964  10.592   2.014  0.7691 -0.4139  1.7995
33831SOL     OW11422   3.274   9.921  12.485 -0.4921 -0.0830 -0.1401
33831SOL    HW111423   3.367   9.934  12.470 -0.7705  0.4382 -1.6036
33831SOL    HW211424   3.258   9.830  12.460 -0.5991  0.2211 -1.2423
33832SOL     OW11425   5.469   3.824   4.979  0.5005  0.1367 -0.5627
33832SOL    HW111426   5.421   3.796   4.902  0.3685 -0.8250 -0.1461
33832SOL    HW211427   5.408   3.880   5.027  0.4865  0.5093 -1.0184
33833SOL     OW11428   7.013   4.001   1.302  0.5202  0.2870 -0.2887
33833SOL    HW111429   6.969   3.924   1.267  1.2776 -0.2557 -0.0756
33833SOL    HW211430   6.944   4.067   1.310 -0.3254 -0.6368  0.3504
33834SOL     OW11431   3.176   1.250   1.761  0.3561  0.0346  0.8701
33834SOL    HW111432   3.271   1.259   1.770  0.3913 -1.0436  1.8375
33834SOL    HW211433   3.160   1.156   1.768 -0.7877  0.2015  0.7086
33835SOL     OW11434  13.255   0.220   6.845  0.1861 -0.2266 -0.1786
33835SOL    HW111435  13.244   0.286   6.777  1.2703 -0.4454 -0.5858
33835SOL    HW211436  13.326   0.164   6.813  1.3623  0.2111  1.5222
33836SOL     OW11437   3.181   1.353   0.401 -0.1531 -0.5229  0.0539
33836SOL    HW111438   3.271   1.321   0.407 -0.1078 -0.4620 -0.2901
33836SOL    HW211439   3.164   1.361   0.307 -0.5440 -0.6105  0.1128
33837SOL     OW11440   3.923  12.575   4.409 -0.3129  0.2887  0.5209
33837SOL    HW111441   3.839  12.563   4.453 -0.5320  1.5335  0.4820
33837SOL    HW211442   3.988  12.569   4.479 -0.5490  0.8021  0.7892
33838SOL     OW11443   8.623   7.092  10.491 -0.0391 -0.3177  0.2185
33838SOL    HW111444   8.683   7.027  10.454  0.8553  0.5107  0.1827
33838SOL    HW211445   8.544   7.042  10.512  1.6926 -2.1603  3.1248
33839SOL     OW11446   2.671   1.249   8.187  0.7815  0.3371 -0.3826
33839SOL    HW111447   2.713   1.165   8.206  2.1781  0.8242 -1.1947
33839SOL    HW211448   2.589   1.247   8.237  0.3332 -1.8827 -1.0814
33840SOL     OW11449   2.778   6.380   1.902 -0.3999 -0.0801  0.0790
33840SOL    HW111450   2.733   6.423   1.830 -0.7109 -1.3251 -0.5011
33840SOL    HW211451   2.725   6.303   1.921  0.0368 -0.1219  1.2107
33841SOL     OW11452  11.422   0.004  11.278 -0.0434  0.0785 -0.1250
33841SOL    HW111453  11.410   0.098  11.269  2.0066  0.3733 -0.3468
33841SOL    HW211454  11.377  -0.034  11.202 -0.0983  0.9487 -0.5325
33842SOL     OW11455  10.536  11.142   0.435  0.3107 -0.6894 -0.0074
33842SOL    HW111456  10.462  11.137   0.374  2.2044 -0.8582 -2.4316
33842SOL    HW211457  10.542  11.234   0.458  0.2313 -0.4184 -1.0089
33843SOL     OW11458   6.610   5.516   4.520  0.1333  0.5661 -0.9955
33843SOL    HW111459   6.517   5.538   4.526 -0.2185 -0.8875 -0.8373
33843SOL    HW211460   6.635   5.490   4.608  0.9230  1.7249 -0.8527
33844SOL     OW11461   2.923   4.097   4.941  0.0079  0.2493  0.0892
33844SOL    HW111462   2.924   4.011   4.900  0.9600  0.7506 -0.9996
33844SOL    HW211463   3.009   4.105   4.982 -0.3672  0.3795  0.8786
33845SOL     OW11464   0.320   7.002   2.455 -0.3813 -0.4209  0.4169
33845SOL    HW111465   0.337   6.953   2.536 -2.2036 -1.9622 -0.0564
33845SOL    HW211466   0.236   7.045   2.471  1.4975  3.4734  1.1363
33846SOL     OW11467   3.166   9.887   0.973 -0.0475 -0.1268  0.1264
33846SOL    HW111468   3.080   9.866   0.936  0.9755 -2.5237 -1.1065
33846SOL    HW211469   3.152   9.889   1.067 -1.8564  1.7621 -0.1071
33847SOL     OW11470   4.008   7.628   6.362  0.3058  0.0556 -0.0258
33847SOL    HW111471   3.949   7.681   6.309 -1.3032 -1.4111  0.1962
33847SOL    HW211472   4.054   7.692   6.417 -2.2851  1.2231  0.9751
33848SOL     OW11473   6.722   7.726  11.638 -0.9554 -0.1095 -0.3136
33848SOL    HW111474   6.817   7.735  11.637 -1.0460  1.2639 -1.8749
33848SOL    HW211475   6.704   7.657  11.701  1.0496 -0.0952  0.3212
33849SOL     OW11476   0.761   0.677   3.235 -0.3075  0.2240 -0.1521
33849SOL    HW111477   0.684   0.693   3.180 -0.1788  1.4579 -0.0026
33849SOL    HW211478   0.780   0.762   3.275 -0.9590 -0.7893  2.5381
33850SOL     OW11479   6.942   1.237  12.003 -0.2171 -0.1884  0.2068
33850SOL    HW111480   7.015   1.202  11.952  0.4553 -0.1975  1.1756
33850SOL    HW211481   6.962   1.330  12.014 -0.6618 -0.0587 -0.0465
33851SOL     OW11482   6.236   6.732   3.059  0.0653  0.4006  0.4469
33851SOL    HW111483   6.157   6.784   3.049  0.7783  1.3983 -0.1276
33851SOL    HW211484   6.206   6.641   3.049 -0.7498  0.8342 -1.4655
33852SOL     OW11485   7.119   0.615   6.580 -0.2225  0.5145 -0.2495
33852SOL    HW111486   7.043   0.643   6.631  0.1253 -2.5677  2.3296
33852SOL    HW211487   7.186   0.681   6.598 -1.0401  1.0634  0.8886
33853SOL     OW11488   1.282   9.290   5.551 -0.4385  0.2560 -0.4613
33853SOL    HW111489   1.328   9.365   5.589  2.4227 -0.2462 -2.6280
33853SOL    HW211490   1.295   9.300   5.457 -1.3911 -2.1191 -0.8971
33854SOL     OW11491  12.111   3.361   3.554  0.6049  0.6261 -0.1809
33854SOL    HW111492  12.082   3.422   3.485 -1.1447 -0.9217 -0.9333
33854SOL    HW211493  12.030   3.339   3.601  1.6046  0.7859  1.6655
33855SOL     OW11494  10.506   9.192   6.795 -0.1097 -0.5313  0.2524
33855SOL    HW111495  10.427   9.147   6.827 -1.1696  0.5731 -0.6995
33855SOL    HW211496  10.520   9.263   6.858 -1.7192  1.1371 -1.1110
33856SOL     OW11497   8.672   8.041  13.101  1.0081  0.5660 -0.1120
33856SOL    HW111498   8.653   8.059  13.193 -0.1072 -2.4150  0.3647
33856SOL    HW211499   8.751   7.987  13.103  0.0585 -0.9111 -0.7034
33857SOL     OW11500   1.483   2.587   4.274  0.2197 -0.7776  0.1198
33857SOL    HW111501   1.538   2.519   4.313  2.5465 -1.0825 -3.2771
33857SOL    HW211502   1.530   2.668   4.290  0.5415 -0.7607 -0.8138
33858SOL     OW11503   0.110  13.158  12.795 -0.4182 -0.7885  0.3367
33858SOL    HW111504   0.030  13.209  12.807  1.0388  1.7898 -0.0146
33858SOL    HW211505   0.149  13.155  12.882 -0.5555 -1.4121  0.3745
33859SOL     OW11506   5.501   3.101   2.434  0.0615  0.1219  0.0966
33859SOL    HW111507   5.486   3.023   2.380 -2.5817  0.3072  0.4349
33859SOL    HW211508   5.477   3.174   2.377 -1.5914  0.3854  1.0597
33860SOL     OW11509  10.434   0.925   5.666 -0.1650 -0.7687 -0.3694
33860SOL    HW111510  10.529   0.920   5.670  0.1854  3.3386  1.9098
33860SOL    HW211511  10.415   0.983   5.592 -0.5625  0.8365  0.9073
33861SOL     OW11512  10.472   5.852   2.564  0.3329  0.0263 -0.3404
33861SOL    HW111513  10.412   5.920   2.595  1.5079  0.4703  1.0600
33861SOL    HW211514  10.432   5.821   2.483 -0.9629  1.3988 -0.2809
33862SOL     OW11515   5.900   4.150   2.344 -0.2294 -0.2825 -0.6658
33862SOL    HW111516   5.867   4.066   2.316  0.1585 -0.5645 -0.3019
33862SOL    HW211517   5.922   4.137   2.436 -1.5895  0.6481 -0.1779
33863SOL     OW11518   0.189   0.171   5.024 -0.3667  0.3670 -0.2611
33863SOL    HW111519   0.283   0.156   5.023 -0.2448  1.0984 -1.3330
33863SOL    HW211520   0.155   0.109   5.089  0.7578 -0.4376 -0.4247
33864SOL     OW11521   2.465  11.915  12.843 -0.3694 -0.0469  0.1919
33864SOL    HW111522   2.377  11.887  12.817 -0.3610 -1.8336  1.7987
33864SOL    HW211523   2.451  11.962  12.926  0.2081 -0.9654  0.8319
33865SOL     OW11524   7.668   5.091  12.940 -0.2648  0.1572 -0.0480
33865SOL    HW111525   7.748   5.077  12.890 -0.2578  0.9358 -0.2784
33865SOL    HW211526   7.613   5.015  12.921  0.7587 -0.8279  0.8185
33866SOL     OW11527   1.462   6.246   3.841 -0.0819  0.0819  0.2490
33866SOL    HW111528   1.424   6.202   3.917 -0.7129 -0.3357 -0.2963
33866SOL    HW211529   1.521   6.312   3.878 -0.3471 -0.1495  1.0953
33867SOL     OW11530   0.284   3.780   9.918 -0.1501 -0.0637 -0.2360
33867SOL    HW111531   0.257   3.688   9.921  0.3481 -0.2067 -0.0104
33867SOL    HW211532   0.299   3.803  10.010 -1.7767  0.7077 -0.1162
33868SOL     OW11533   4.513   9.494   3.427  0.1863 -0.5504  0.0967
33868SOL    HW111534   4.553   9.522   3.345 -1.6257 -1.9759 -1.3472
33868SOL    HW211535   4.475   9.574   3.464  0.6798  0.0367 -0.6467
33869SOL     OW11536   6.525   8.963  10.706  0.3932  0.3493 -0.3655
33869SOL    HW111537   6.442   8.956  10.754  0.5961 -0.3268 -0.1065
33869SOL    HW211538   6.566   9.042  10.741  1.1313 -0.8051  1.5384
33870SOL     OW11539   2.601   8.000   4.866  0.1553 -0.2477  0.3284
33870SOL    HW111540   2.630   8.076   4.916  0.3642  0.0563 -0.2413
33870SOL    HW211541   2.520   7.972   4.909  0.4308 -0.1138  0.9454
33871SOL     OW11542  12.581  13.296   6.506 -0.1777 -0.1717 -0.3297
33871SOL    HW111543  12.638  13.346   6.564  0.4404 -2.0009  0.7342
33871SOL    HW211544  12.512  13.262   6.563 -0.2776 -0.9571 -0.8985
33872SOL     OW11545  12.064   6.520   1.132 -0.1301 -0.3049 -0.2878
33872SOL    HW111546  12.098   6.606   1.156 -1.3054  0.1585 -0.2286
33872SOL    HW211547  12.026   6.487   1.214 -1.7327  0.1184 -0.8356
33873SOL     OW11548   6.129   1.565   7.624 -0.6212  0.0804  0.7472
33873SOL    HW111549   6.200   1.537   7.566  0.1947 -0.3537  1.9246
33873SOL    HW211550   6.050   1.537   7.579  0.0609 -1.7961  0.6423
33874SOL     OW11551   7.938   0.572   9.587  0.4978  0.6312 -0.2924
33874SOL    HW111552   7.847   0.580   9.559  0.8930 -0.8926 -2.2986
33874SOL    HW211553   7.964   0.661   9.610 -1.1560  1.2861 -0.7953
33875SOL     OW11554   1.958   7.628   3.602  0.0618 -0.4244 -0.0169
33875SOL    HW111555   2.048   7.595   3.593  1.0014  1.6320  1.2587
33875SOL    HW211556   1.955   7.666   3.689 -1.9775 -0.1563 -0.1708
33876SOL     OW11557  11.618  12.141   0.661 -0.3749 -0.0349 -0.2512
33876SOL    HW111558  11.708  12.147   0.696  0.6640 -0.8601 -2.5828
33876SOL    HW211559  11.576  12.221   0.690  1.3307  0.6897  0.3658
33877SOL     OW11560   5.789   9.844   7.187  0.1593 -0.0469  0.1174
33877SOL    HW111561   5.722   9.865   7.252  1.3576 -1.3229  1.8552
33877SOL    HW211562   5.759   9.764   7.145  0.3220 -0.3460  0.5554
33878SOL     OW11563  12.211   8.818  10.075 -0.3337  0.0157  0.7579
33878SOL    HW111564  12.235   8.725  10.069 -0.3000  0.1190 -1.6101
33878SOL    HW211565  12.182   8.841   9.987  1.0961  2.6321  0.8613
33879SOL     OW11566   4.177  11.308   2.882 -0.2049 -0.2376  0.0345
33879SOL    HW111567   4.176  11.337   2.973 -0.6064 -0.4518  0.1023
33879SOL    HW211568   4.165  11.388   2.831  1.8895  0.1619  0.0769
33880SOL     OW11569   6.359  12.496  11.184  0.5836  0.4708 -0.0738
33880SOL    HW111570   6.400  12.573  11.145 -0.4457  1.1136  0.0757
33880SOL    HW211571   6.349  12.518  11.277  3.1002 -1.0768  0.6688
33881SOL     OW11572   1.785  10.768   0.101  0.3463 -0.6205  0.0287
33881SOL    HW111573   1.748  10.727   0.023  0.9636  0.1465 -0.6835
33881SOL    HW211574   1.873  10.796   0.075 -0.2089  1.5786  0.3031
33882SOL     OW11575   0.882   8.966  13.006  0.2726  0.6743 -0.1048
33882SOL    HW111576   0.879   8.880  13.047  1.6608  0.6751  0.0354
33882SOL    HW211577   0.950   9.014  13.053  0.8771  1.1773 -1.4307
33883SOL     OW11578   8.009  11.816   1.407 -0.1482  0.5428  0.2984
33883SOL    HW111579   8.060  11.893   1.431  1.0824 -0.0967 -0.1600
33883SOL    HW211580   8.030  11.752   1.474 -0.1345  0.1960 -0.0307
33884SOL     OW11581   8.857  11.198   9.154  0.0293 -0.3268  0.3419
33884SOL    HW111582   8.902  11.280   9.138  0.1196 -0.4054  0.1886
33884SOL    HW211583   8.797  11.188   9.080  0.1764 -0.5056  0.2451
33885SOL     OW11584  11.644   5.070  12.232 -0.1786  0.0752  0.2205
33885SOL    HW111585  11.739   5.077  12.217 -0.2966  0.7344 -0.2307
33885SOL    HW211586  11.605   5.127  12.166 -0.9549 -1.2133 -0.4675
33886SOL     OW11587   2.942   3.473  12.356 -0.2581  0.1913 -0.4925
33886SOL    HW111588   2.858   3.435  12.331  0.8018 -1.1075 -2.3867
33886SOL    HW211589   2.972   3.421  12.430 -1.3886  1.1041  0.6399
33887SOL     OW11590  10.810   2.327  12.574 -0.0583  0.6999  0.1112
33887SOL    HW111591  10.746   2.398  12.565  1.1514  1.8611  0.3734
33887SOL    HW211592  10.893   2.372  12.593  0.7568 -0.7858  0.1805
33888SOL     OW11593   9.266  10.736  10.203 -0.3396  0.7712 -0.0926
33888SOL    HW111594   9.318  10.794  10.259  4.1321 -0.9790 -1.9393
33888SOL    HW211595   9.294  10.759  10.114 -2.0334 -1.0664 -1.1600
33889SOL     OW11596  10.405   2.640   4.746  0.1549 -0.1693 -0.3568
33889SOL    HW111597  10.370   2.595   4.669 -0.0165 -0.1892 -0.2679
33889SOL    HW211598  10.499   2.643   4.731  0.2299 -1.0578 -0.1013
33890SOL     OW11599   6.460  12.048   2.046  0.6448  0.4444  0.0268
33890SOL    HW111600   6.503  12.095   1.974  0.7300 -0.9562 -0.8815
33890SOL    HW211601   6.514  12.069   2.123  0.5333  1.9969 -0.2768
33891SOL     OW11602   0.262   9.365   4.170 -0.1899  0.0062  0.3370
33891SOL    HW111603   0.182   9.314   4.161  0.7733 -1.4257 -0.3708
33891SOL    HW211604   0.309   9.353   4.087 -0.1286  2.4381 -0.0622
33892SOL     OW11605  11.543   3.690   8.929  0.1464 -0.6379 -0.1490
33892SOL    HW111606  11.575   3.756   8.867 -0.3997 -0.8573 -0.6732
33892SOL    HW211607  11.595   3.612   8.909 -0.3755 -0.8587 -0.6895
33893SOL     OW11608   2.264  10.850   3.118 -0.0643  0.1302  0.0494
33893SOL    HW111609   2.209  10.873   3.193 -1.3909 -0.0105 -0.8603
33893SOL    HW211610   2.263  10.755   3.116  0.9558  0.0928  0.5444
33894SOL     OW11611   4.466   8.088  12.848 -0.0630  0.6934  0.1196
33894SOL    HW111612   4.486   7.995  12.846 -1.1392  0.4099  1.2991
33894SOL    HW211613   4.532   8.126  12.906 -0.2851  0.4848  0.5098
33895SOL     OW11614   0.277   9.706   3.697  0.1046  0.6919  0.0216
33895SOL    HW111615   0.353   9.654   3.724  0.0718  1.2018  1.1236
33895SOL    HW211616   0.207   9.642   3.689  0.7023  0.1586 -1.3505
33896SOL     OW11617   7.515   3.796   5.628  0.0376  0.0202 -0.3469
33896SOL    HW111618   7.452   3.866   5.643 -1.6755 -1.6668  0.7649
33896SOL    HW211619   7.556   3.783   5.714  0.6583 -0.0766 -0.6522
33897SOL     OW11620  12.038   4.226   8.807 -0.1667  0.1077 -0.1254
33897SOL    HW111621  12.099   4.180   8.865  1.4514 -2.5905 -3.6084
33897SOL    HW211622  12.073   4.315   8.802  1.1640 -0.3178  0.9991
33898SOL     OW11623  12.177   8.830   0.548  0.0023  0.2130 -0.1123
33898SOL    HW111624  12.197   8.753   0.600 -0.3046 -0.3943 -0.8713
33898SOL    HW211625  12.166   8.901   0.612 -1.0112 -0.6499  0.7075
33899SOL     OW11626   4.257   6.602  12.241  0.3416 -0.3319  0.4597
33899SOL    HW111627   4.230   6.519  12.201  1.5290 -0.3415 -0.3592
33899SOL    HW211628   4.323   6.577  12.305 -0.2764 -0.1315  1.1892
33900SOL     OW11629   9.516   8.317   6.465 -0.5447  0.3129  0.1365
33900SOL    HW111630   9.423   8.316   6.441 -0.1513 -0.8726 -1.4760
33900SOL    HW211631   9.549   8.231   6.439  1.1051  0.8631  0.2919
33901SOL     OW11632   3.139   7.900   4.862 -0.7733  0.7434  0.1076
33901SOL    HW111633   3.234   7.890   4.855 -0.9275 -0.0717 -1.1781
33901SOL    HW211634   3.124   7.919   4.954  0.5235 -0.8216  0.7003
33902SOL     OW11635   6.719   7.829   7.372 -0.9237 -0.2716  0.0920
33902SOL    HW111636   6.753   7.854   7.458  1.0549 -1.7961 -0.2001
33902SOL    HW211637   6.634   7.873   7.367 -1.0081  0.0209  2.7305
33903SOL     OW11638  12.248   0.317   0.228 -0.4890 -0.2124  0.3519
33903SOL    HW111639  12.205   0.233   0.213 -0.4811  0.0553 -1.4007
33903SOL    HW211640  12.265   0.319   0.322 -0.8213 -2.0058  0.4858
33904SOL     OW11641  12.075   6.781  12.649 -0.4403 -0.4230 -0.7706
33904SOL    HW111642  12.073   6.875  12.633 -2.2854 -0.4766 -1.1136
33904SOL    HW211643  12.168   6.757  12.645  0.0405  1.3422 -0.8102
33905SOL     OW11644   4.808   1.508   5.080  0.0617 -0.2040  0.3083
33905SOL    HW111645   4.806   1.509   4.985 -0.2939  0.0386  0.3160
33905SOL    HW211646   4.723   1.542   5.106  0.3416  0.2004  0.7144
33906SOL     OW11647  11.901   0.976  11.189 -0.1983  0.0463 -0.0924
33906SOL    HW111648  11.864   1.053  11.146 -1.5721  0.3761  1.5310
33906SOL    HW211649  11.990   0.969  11.155 -0.0325  2.3812 -0.2758
33907SOL     OW11650   1.226   5.588   8.468 -0.6796 -0.2738 -0.0780
33907SOL    HW111651   1.185   5.518   8.518  0.7331 -1.1354 -0.0710
33907SOL    HW211652   1.240   5.551   8.381  1.1718 -0.4843  0.2552
33908SOL     OW11653   9.974   5.668   0.274 -0.3178 -0.3312 -0.2347
33908SOL    HW111654   9.994   5.612   0.199 -0.6639  0.6278 -1.0570
33908SOL    HW211655  10.058   5.678   0.319 -0.2527 -1.5132 -0.0534
33909SOL     OW11656   3.493  12.337   9.706 -0.4101 -0.7700 -0.3296
33909SOL    HW111657   3.455  12.254   9.676 -0.8375 -1.3091  1.5105
33909SOL    HW211658   3.419  12.398   9.708 -0.5319 -0.9300  0.2481
33910SOL     OW11659   4.811   7.511   5.364  0.2245 -0.2562  0.2333
33910SOL    HW111660   4.835   7.445   5.428 -1.2923 -0.7328  0.3507
33910SOL    HW211661   4.763   7.463   5.296  0.8909  0.4011 -0.7482
33911SOL     OW11662   3.420   1.185   0.368  0.1691  0.3656  0.0438
33911SOL    HW111663   3.466   1.117   0.417 -0.0251  0.5816  0.5273
33911SOL    HW211664   3.482   1.211   0.300  0.9214  0.9179  0.9225
33912SOL     OW11665  10.502   6.784  11.134  0.1779 -0.0172  0.3603
33912SOL    HW111666  10.580   6.827  11.097  0.4579 -0.6655  0.1684
33912SOL    HW211667  10.509   6.799  11.228  0.4977 -0.0085  0.3370
33913SOL     OW11668  10.018   2.613   2.259 -0.0051  0.0387 -0.1924
33913SOL    HW111669  10.033   2.704   2.234  0.2503 -0.1724 -0.8170
33913SOL    HW211670  10.051   2.562   2.185  1.7854 -0.6501  1.0189
33914SOL     OW11671   9.361   1.855   9.847 -0.5111  0.7310 -0.8871
33914SOL    HW111672   9.382   1.777   9.900  0.0914  0.8356 -0.9718
33914SOL    HW211673   9.438   1.868   9.792 -0.2606  1.8818 -0.2923
33915SOL     OW11674  12.436   3.105   0.193  0.1177 -0.1593 -0.3316
33915SOL    HW111675  12.419   3.060   0.276 -0.0893 -0.2483 -0.4224
33915SOL    HW211676  12.400   3.193   0.206 -3.4985 -1.2813 -1.6517
33916SOL     OW11677   4.133   4.655   5.035  0.3010  0.0817 -0.4499
33916SOL    HW111678   4.083   4.703   4.969 -2.9482  1.3072  2.6054
33916SOL    HW211679   4.203   4.715   5.060  0.0231  0.6431 -0.9787
33917SOL     OW11680   2.967   3.751  12.709 -0.1138 -0.8586 -0.7790
33917SOL    HW111681   2.949   3.838  12.745 -1.0355 -0.7250 -1.5127
33917SOL    HW211682   3.028   3.711  12.771 -2.4965 -1.1045  1.6189
33918SOL     OW11683   4.826  13.039  12.464 -0.2007 -0.0897 -0.1280
33918SOL    HW111684   4.872  13.073  12.541  2.1818 -3.8711  0.3758
33918SOL    HW211685   4.796  12.952  12.490 -2.7034 -0.0332 -2.3936
33919SOL     OW11686   4.246   5.635   5.574  0.3209 -0.3113  0.5872
33919SOL    HW111687   4.212   5.549   5.598  0.5287  0.1218  2.6506
33919SOL    HW211688   4.313   5.618   5.508 -1.3282 -1.4794 -0.8774
33920SOL     OW11689   3.233   9.483   7.392  0.0803  0.6306 -0.0094
33920SOL    HW111690   3.209   9.576   7.384 -0.2394  0.4930 -0.6640
33920SOL    HW211691   3.297   9.469   7.323  0.6134  0.5120  0.4972
33921SOL     OW11692  12.108  10.107   0.020 -0.3222  0.3052 -0.1364
33921SOL    HW111693  12.059  10.075  -0.056 -0.9805  0.2363  0.3114
33921SOL    HW211694  12.113  10.031   0.079 -2.1142  1.0219  1.0484
33922SOL     OW11695   7.722   0.247   5.764 -0.4652  0.2617 -0.3987
33922SOL    HW111696   7.803   0.281   5.726 -0.3926  2.3887  1.5138
33922SOL    HW211697   7.652   0.292   5.717 -0.5574 -0.7963 -1.3247
33923SOL     OW11698   7.863   0.685  10.399  0.4520  0.7993  0.3645
33923SOL    HW111699   7.953   0.697  10.431  0.4522 -1.0732  1.2004
33923SOL    HW211700   7.851   0.590  10.397 -1.3129  1.0053 -0.3369
33924SOL     OW11701   7.022   9.840  11.073  0.7199  0.0848  0.0648
33924SOL    HW111702   7.115   9.864  11.073  0.9293 -0.5142  1.8434
33924SOL    HW211703   6.988   9.877  11.154 -0.3326 -0.6170 -0.0357
33925SOL     OW11704   3.728   0.595   1.450  0.2138 -0.2557  0.3634
33925SOL    HW111705   3.678   0.629   1.376  0.2967  0.7243  0.7388
33925SOL    HW211706   3.727   0.667   1.514  1.2272 -0.6061  0.7900
33926SOL     OW11707   0.634  10.938  12.036 -0.1999 -0.4304 -0.6041
33926SOL    HW111708   0.712  10.984  12.006 -0.8943  0.1732 -1.5368
33926SOL    HW211709   0.563  10.972  11.982 -1.6517  1.1399  2.0820
33927SOL     OW11710  12.490  12.796  11.969  0.0985  0.0402  0.7677
33927SOL    HW111711  12.437  12.769  11.895 -1.6206  2.7770  0.8865
33927SOL    HW211712  12.531  12.715  11.999  0.4051 -1.2763 -2.7266
33928SOL     OW11713   2.252  10.077   1.416 -0.4675  0.1906  0.3427
33928SOL    HW111714   2.331  10.069   1.469 -0.7290 -1.9091  0.4885
33928SOL    HW211715   2.283  10.109   1.331  0.6982 -1.4961  0.1025
33929SOL     OW11716   3.263   1.945  10.465 -0.3343  0.4202  0.2327
33929SOL    HW111717   3.190   1.974  10.410 -1.4196  0.3026  1.5883
33929SOL    HW211718   3.310   2.026  10.486  0.4834  0.3992 -1.3700
33930SOL     OW11719  11.415   6.657   5.784 -0.3555  0.6628  0.0857
33930SOL    HW111720  11.376   6.606   5.856  0.1938 -0.3655 -0.3241
33930SOL    HW211721  11.507   6.666   5.809  0.0106 -0.3461 -0.8216
33931SOL     OW11722  10.818   0.188  10.720 -0.3597  0.0551 -0.3015
33931SOL    HW111723  10.834   0.240  10.799 -3.6078  0.7979 -0.0127
33931SOL    HW211724  10.796   0.253  10.653 -1.0043 -0.7631 -0.8956
33932SOL     OW11725   4.574  12.150   9.179 -0.1126  0.0742 -0.1363
33932SOL    HW111726   4.620  12.093   9.242 -3.0962 -3.3075 -0.6724
33932SOL    HW211727   4.525  12.211   9.234 -1.4227 -1.7821  0.8708
33933SOL     OW11728   1.526   1.322   2.840  0.1217  0.2113  0.2840
33933SOL    HW111729   1.500   1.279   2.758  1.2315  0.6647 -0.3378
33933SOL    HW211730   1.514   1.256   2.908 -3.0259  0.5221  0.1418
33934SOL     OW11731   1.480   8.169  12.107 -0.3915  0.2872 -0.4651
33934SOL    HW111732   1.497   8.263  12.102 -0.3973  0.3194  0.1057
33934SOL    HW211733   1.390   8.159  12.077 -0.7251  0.5802  0.3991
33935SOL     OW11734  12.610   5.841   7.611 -0.5686  0.1723  0.0958
33935SOL    HW111735  12.664   5.911   7.574 -0.2308 -0.6157 -0.9517
33935SOL    HW211736  12.655   5.817   7.692 -0.9640  1.4860  0.7332
33936SOL     OW11737   1.280   4.438   6.724  0.4226  0.2905  0.2160
33936SOL    HW111738   1.299   4.378   6.652  0.5526  0.0249  0.4694
33936SOL    HW211739   1.250   4.381   6.795 -0.7259  0.6413  0.0329
33937SOL     OW11740   6.778   3.846   0.308 -0.1904 -0.5332  0.4328
33937SOL    HW111741   6.696   3.879   0.270 -0.1222 -0.2060  0.5641
33937SOL    HW211742   6.846   3.878   0.250 -0.0627  0.2190  0.9859
33938SOL     OW11743   2.977   7.972   4.653  0.2165 -0.5951 -0.1305
33938SOL    HW111744   3.030   7.948   4.729  0.4258 -0.1589 -0.1352
33938SOL    HW211745   3.022   8.047   4.615 -0.4331 -0.1737 -0.0939
33939SOL     OW11746   5.081   0.648   8.235 -0.2013 -0.2566 -0.0686
33939SOL    HW111747   5.002   0.654   8.289 -0.8500 -2.0986 -0.7678
33939SOL    HW211748   5.066   0.712   8.165 -0.7712 -0.1071  0.1783
33940SOL     OW11749   4.150   2.176   6.032 -0.1782 -0.0207 -0.0181
33940SOL    HW111750   4.068   2.144   6.069 -0.6917  2.1322  0.8711
33940SOL    HW211751   4.188   2.230   6.102  0.6885  1.1214 -1.3275
33941SOL     OW11752  13.299  11.215   1.038  0.0213 -0.1188 -0.5240
33941SOL    HW111753  13.367  11.226   0.972  1.6106 -2.4615  0.5939
33941SOL    HW211754  13.246  11.142   1.007  0.6601 -1.1061  0.6178
33942SOL     OW11755   7.275   1.427   4.043 -0.5860  0.0203  0.2004
33942SOL    HW111756   7.359   1.406   4.002 -0.5932 -0.6214  0.5044
33942SOL    HW211757   7.253   1.349   4.094 -0.3844  0.9294  1.7374
33943SOL     OW11758   7.622   8.072   0.163  0.0056  0.2171 -0.6259
33943SOL    HW111759   7.611   8.129   0.239 -2.1586 -1.5634  0.5472
33943SOL    HW211760   7.569   8.113   0.095  0.9518  1.1742 -0.8065
33944SOL     OW11761   7.966   9.938   7.771 -0.4332  0.4766 -0.3326
33944SOL    HW111762   7.903   9.964   7.839  0.0136 -0.3063  0.4069
33944SOL    HW211763   8.047   9.984   7.794 -0.3169  0.3104 -0.4052
33945SOL     OW11764   3.561  12.058   3.932 -0.2270  1.1119 -0.0904
33945SOL    HW111765   3.535  12.010   3.853 -1.1321  1.5400 -0.0579
33945SOL    HW211766   3.629  12.003   3.972  0.4946  1.0577 -1.3449
33946SOL     OW11767   7.323  12.286   9.464 -0.0169 -0.2979  0.0003
33946SOL    HW111768   7.312  12.271   9.558 -0.4599 -0.4064 -0.0687
33946SOL    HW211769   7.400  12.343   9.458 -0.8571  0.9202  0.5180
33947SOL     OW11770   3.298  11.106   8.047  0.3570 -0.1871  0.6891
33947SOL    HW111771   3.261  11.070   8.127  0.2976 -2.0490 -0.1160
33947SOL    HW211772   3.241  11.072   7.977  1.7024 -0.4685 -0.3144
33948SOL     OW11773  12.095   0.911   4.470 -0.0265 -0.3391 -0.1836
33948SOL    HW111774  11.999   0.917   4.470 -0.0320 -0.4171  0.1717
33948SOL    HW211775  12.114   0.826   4.510  0.2046 -0.0874  0.2456
33949SOL     OW11776   1.928   9.491  13.124  0.0334 -0.7496  0.1546
33949SOL    HW111777   1.915   9.409  13.171  3.0495 -2.0047 -0.9036
33949SOL    HW211778   1.964   9.465  13.039 -1.0870  1.6187 -1.1711
33950SOL     OW11779   2.404   3.531   7.006 -0.3518  0.4073  0.2490
33950SOL    HW111780   2.324   3.581   6.996 -0.9978 -1.0605 -3.1729
33950SOL    HW211781   2.375   3.447   7.042 -0.1104  0.4101  0.4565
33951SOL     OW11782   4.956   0.620  10.298  0.0895 -0.3443  0.0481
33951SOL    HW111783   4.935   0.709  10.324 -0.6610 -0.7124  0.7508
33951SOL    HW211784   5.045   0.605  10.332  0.1925  0.1162 -0.0237
33952SOL     OW11785  10.051  10.716   2.186 -0.2654  0.3789 -0.0508
33952SOL    HW111786  10.066  10.705   2.280  1.4720 -0.0607 -0.3430
33952SOL    HW211787  10.015  10.631   2.159 -0.6729  0.4691  0.1957
33953SOL     OW11788   4.914   9.000   0.825 -0.4309  0.6171  0.0271
33953SOL    HW111789   4.911   8.930   0.760  0.0489  1.8291 -1.3669
33953SOL    HW211790   4.986   8.977   0.883 -0.7813 -0.4248  0.0701
33954SOL     OW11791   3.354   9.542   9.386 -0.1944  0.4644  0.4907
33954SOL    HW111792   3.423   9.483   9.417 -0.2636  0.7514  1.2020
33954SOL    HW211793   3.396   9.628   9.383 -0.3840  0.5542  0.4582
33955SOL     OW11794   4.543   0.330  10.848  0.3439 -0.0197  0.3162
33955SOL    HW111795   4.633   0.352  10.823 -0.3113  2.8045  0.0996
33955SOL    HW211796   4.531   0.372  10.934 -1.0564  0.4908 -0.1028
33956SOL     OW11797   8.395   0.192  10.378 -0.1794 -0.6555 -0.7967
33956SOL    HW111798   8.388   0.170  10.471  0.1802  0.5743 -0.4628
33956SOL    HW211799   8.321   0.147  10.338 -1.1767 -0.0709  0.3170
33957SOL     OW11800   1.747   6.715   4.824  0.2118 -0.0760 -0.1336
33957SOL    HW111801   1.802   6.744   4.751  2.8726 -0.3666  1.6163
33957SOL    HW211802   1.727   6.796   4.872 -0.9482  0.0249 -0.7487
33958SOL     OW11803  12.404   8.338   0.640 -0.0283 -0.1741 -0.4084
33958SOL    HW111804  12.398   8.251   0.681 -3.0126  0.3685  0.5288
33958SOL    HW211805  12.358   8.329   0.557  1.1708  0.1391 -1.1377
33959SOL     OW11806   9.011   3.730   5.560  0.8236 -0.0942  0.4874
33959SOL    HW111807   9.054   3.718   5.475  0.5910  0.2475  0.3237
33959SOL    HW211808   8.941   3.793   5.543 -0.2045 -1.1760  0.5996
33960SOL     OW11809   4.346   9.412   7.535  0.5507  0.2897  0.3664
33960SOL    HW111810   4.321   9.481   7.473  1.9455  1.0082  0.5707
33960SOL    HW211811   4.278   9.345   7.525  0.7069  0.3886 -1.9442
33961SOL     OW11812   5.787   4.696   1.521 -0.3745  0.5208 -0.2619
33961SOL    HW111813   5.708   4.660   1.480 -0.4401 -0.4040  0.6350
33961SOL    HW211814   5.855   4.632   1.504 -0.6860 -0.5311  2.0752
33962SOL     OW11815   9.902  10.830   8.544 -0.5975 -0.5201 -0.3138
33962SOL    HW111816   9.932  10.826   8.635 -0.3423  1.5509 -0.2693
33962SOL    HW211817   9.876  10.740   8.524  3.0273 -1.9133  0.5144
33963SOL     OW11818  13.088   7.113   9.093  0.4581  0.0797 -0.1171
33963SOL    HW111819  13.107   7.039   9.149 -0.0196  0.3296  0.3834
33963SOL    HW211820  13.085   7.076   9.004 -1.8823 -0.9372  0.2975
33964SOL     OW11821   9.697   0.351  12.408 -0.0323  0.3864 -0.7737
33964SOL    HW111822   9.774   0.384  12.453  0.5826 -0.0818 -1.4522
33964SOL    HW211823   9.661   0.427  12.362 -0.3031  0.7228 -0.0237
33965SOL     OW11824  12.292   1.599   4.233  0.1562  0.2065 -0.0900
33965SOL    HW111825  12.217   1.657   4.222  0.7396  1.1635  0.8110
33965SOL    HW211826  12.280   1.531   4.167 -2.5150 -0.7652  1.2715
33966SOL     OW11827   0.261   0.953   3.074  1.0067 -0.6091 -0.1080
33966SOL    HW111828   0.328   0.973   3.140  1.9195 -0.8257 -0.9431
33966SOL    HW211829   0.296   0.991   2.993 -0.3495  0.1184 -0.3731
33967SOL     OW11830   7.409   5.135   2.683  0.2535 -0.3046  0.1231
33967SOL    HW111831   7.493   5.171   2.657  0.1269 -0.6955 -0.8524
33967SOL    HW211832   7.409   5.045   2.650 -0.7755 -0.1267 -0.4056
33968SOL     OW11833  11.766   0.916   1.818  0.0978 -0.5788  0.7113
33968SOL    HW111834  11.698   0.959   1.767 -0.0384 -0.5681  0.9058
33968SOL    HW211835  11.740   0.824   1.819  0.4107 -0.6785  0.2606
33969SOL     OW11836   8.424   6.733  12.314 -0.4660  0.2145 -0.9415
33969SOL    HW111837   8.490   6.742  12.245  0.2764  1.3954 -0.1117
33969SOL    HW211838   8.458   6.664  12.371  1.5216  2.5556  0.9654
33970SOL     OW11839  11.695   1.819  12.212  0.1606 -0.3177  0.6708
33970SOL    HW111840  11.655   1.896  12.252  1.3139  0.5376  0.2183
33970SOL    HW211841  11.785   1.845  12.193 -0.0515 -1.0022 -1.5781
33971SOL     OW11842   8.908   2.043   2.430  0.2643  0.0513  0.0823
33971SOL    HW111843   8.876   1.996   2.507  1.2113  0.2776  0.6197
33971SOL    HW211844   8.913   2.134   2.458  0.0025  0.2334 -0.4538
33972SOL     OW11845  12.571   3.384  13.006  0.4359 -0.0624  0.0273
33972SOL    HW111846  12.591   3.339  13.088  0.8317  1.3785  0.7648
33972SOL    HW211847  12.541   3.471  13.034 -2.2160 -0.4716 -1.2495
33973SOL     OW11848  12.041  10.473   5.234 -0.3628 -0.2451 -0.0348
33973SOL    HW111849  11.972  10.538   5.248 -1.5330 -2.0194  3.5305
33973SOL    HW211850  12.118  10.509   5.278  0.1191  0.2804 -1.2457
33974SOL     OW11851   6.420   2.754   4.442 -0.2003 -0.1331  0.5050
33974SOL    HW111852   6.419   2.707   4.525 -0.6474 -1.7289 -0.3762
33974SOL    HW211853   6.480   2.704   4.387 -1.3108 -0.1650 -0.7242
33975SOL     OW11854   0.753   9.874   5.664 -0.3053 -0.2088  0.2056
33975SOL    HW111855   0.786   9.873   5.574 -0.7504 -1.7502  0.0249
33975SOL    HW211856   0.664   9.908   5.657  0.5189  2.1987  0.4547
33976SOL     OW11857   4.224  11.091   0.219 -0.3885 -0.1673 -0.4250
33976SOL    HW111858   4.250  11.180   0.193  1.4983 -0.4146  0.4101
33976SOL    HW211859   4.281  11.070   0.293 -0.9471 -2.0012 -0.4551
33977SOL     OW11860   3.632   2.019   9.244 -0.8393  0.2491  0.1769
33977SOL    HW111861   3.617   1.942   9.190  0.2988  1.0102 -1.2962
33977SOL    HW211862   3.694   1.989   9.311 -0.7019 -0.2130 -0.1504
33978SOL     OW11863   1.261   5.019   5.895  0.4327 -0.0735 -0.0218
33978SOL    HW111864   1.192   5.048   5.955  0.5112 -0.2569  0.1567
33978SOL    HW211865   1.342   5.045   5.937  0.4469  1.4886 -0.9229
33979SOL     OW11866   2.709   5.768   9.162 -0.1823 -0.3733 -0.2401
33979SOL    HW111867   2.750   5.791   9.245  0.6531 -0.3798 -0.6413
33979SOL    HW211868   2.635   5.712   9.187 -0.0031 -0.2912  0.5023
33980SOL     OW11869   8.990  12.743  11.967  0.0528  0.1839 -0.4701
33980SOL    HW111870   9.054  12.780  12.027  0.5698  0.0246 -0.9089
33980SOL    HW211871   8.975  12.654  12.000  0.3669  0.0824 -0.5875
33981SOL     OW11872   6.814   6.726   1.168 -0.4103  0.1073  0.3807
33981SOL    HW111873   6.872   6.695   1.098  0.5995 -1.1181  1.6866
33981SOL    HW211874   6.824   6.821   1.166  1.8538 -0.0546  0.6668
33982SOL     OW11875  10.391   5.386  10.511 -0.7388 -0.3406  0.3685
33982SOL    HW111876  10.485   5.385  10.526 -0.9281 -0.1004  1.7336
33982SOL    HW211877  10.375   5.468  10.463 -0.5209  0.9522  2.3799
33983SOL     OW11878   1.612   3.117  10.640  0.4019  0.3729  0.1315
33983SOL    HW111879   1.632   3.041  10.695 -1.0293  0.6153  1.0373
33983SOL    HW211880   1.571   3.080  10.562  0.6636  0.1537  0.0956
33984SOL     OW11881  11.834   1.508   4.014 -0.5336  0.2193  0.4814
33984SOL    HW111882  11.865   1.418   4.012  0.3897  0.4535  2.2865
33984SOL    HW211883  11.772   1.511   4.086 -0.5852  1.0215  0.4187
33985SOL     OW11884   8.907   8.755   4.226 -1.2734  0.3022  0.0847
33985SOL    HW111885   8.845   8.801   4.169 -2.1362  0.3344  1.0244
33985SOL    HW211886   8.856   8.685   4.266 -0.5546 -0.0316  0.4376
33986SOL     OW11887   5.603   4.552   3.438  0.1162  0.1502  0.6010
33986SOL    HW111888   5.542   4.586   3.504 -0.6590 -0.6613  0.3084
33986SOL    HW211889   5.615   4.460   3.462 -2.8782 -1.1901 -2.2997
33987SOL     OW11890  10.102   7.111   5.401 -0.0357  0.6390 -0.3659
33987SOL    HW111891  10.037   7.159   5.348 -0.2837  1.1664  0.3956
33987SOL    HW211892  10.186   7.131   5.359 -0.1951  1.2968 -0.3848
33988SOL     OW11893  11.430  12.324   4.140  0.4021 -0.3729 -0.3385
33988SOL    HW111894  11.381  12.402   4.165 -0.3516 -1.1891  0.8171
33988SOL    HW211895  11.371  12.251   4.159  0.9446 -1.2231 -1.7515
33989SOL     OW11896   3.976   1.515   7.783 -0.6407 -0.2140 -0.3281
33989SOL    HW111897   3.915   1.450   7.818 -0.9411  0.1191 -0.2237
33989SOL    HW211898   4.061   1.472   7.787 -0.4503  0.1989  1.9672
33990SOL     OW11899  12.360   0.691  10.871 -0.2509  0.2990  0.0568
33990SOL    HW111900  12.364   0.596  10.868 -0.8468  0.2922 -1.4104
33990SOL    HW211901  12.288   0.710  10.931  0.3231 -0.1560  0.8980
33991SOL     OW11902  13.009   9.656   1.352  0.2283 -0.3829  0.1739
33991SOL    HW111903  13.055   9.574   1.337  0.7400 -0.0608 -0.0489
33991SOL    HW211904  12.944   9.661   1.282 -0.7471 -1.2407  0.9682
33992SOL     OW11905   6.127   4.152  10.515  0.1826 -0.0609 -0.7237
33992SOL    HW111906   6.132   4.240  10.478 -0.3830  0.2130 -0.1645
33992SOL    HW211907   6.125   4.094  10.440  0.9428  0.3776 -1.0993
33993SOL     OW11908   1.453   9.093   8.253 -0.3080 -0.1938  0.3798
33993SOL    HW111909   1.453   9.125   8.163  0.7418  1.1715  0.8306
33993SOL    HW211910   1.545   9.075   8.272 -0.2031  1.6682  1.8754
33994SOL     OW11911   8.954  13.245   7.297  0.5377  0.1244 -0.1879
33994SOL    HW111912   8.992  13.204   7.374  0.4695  0.9619  0.3118
33994SOL    HW211913   9.029  13.272   7.244  0.6668  1.3700  0.5804
33995SOL     OW11914   9.179   5.098   5.960 -0.7328 -0.5311 -0.3515
33995SOL    HW111915   9.214   5.048   6.033 -1.4351 -0.0847  0.3085
33995SOL    HW211916   9.251   5.101   5.897  1.3414  2.2727  1.8665
33996SOL     OW11917   9.059   2.374  11.913 -0.1955  0.3261  0.0810
33996SOL    HW111918   9.145   2.411  11.933  0.0856 -0.8443  1.2372
33996SOL    HW211919   9.016   2.368  11.998 -0.6895 -0.8153 -0.2283
33997SOL     OW11920   6.364   6.715   8.304 -0.0032 -0.2106  0.0105
33997SOL    HW111921   6.271   6.698   8.320 -0.3155  0.2472 -1.1885
33997SOL    HW211922   6.376   6.807   8.326 -0.0876  0.0145 -0.8590
33998SOL     OW11923   2.405   3.465   7.374  0.1699 -0.4211 -0.0225
33998SOL    HW111924   2.500   3.470   7.362  0.2493 -0.5062  0.5526
33998SOL    HW211925   2.374   3.552   7.351  0.5476  0.0444  1.1474
33999SOL     OW11926   9.632   4.260   5.374  0.2472  0.6459  0.1336
33999SOL    HW111927   9.709   4.219   5.334  0.6423  1.2599  0.2602
33999SOL    HW211928   9.599   4.320   5.307 -0.9112 -0.5747 -0.4228
34000SOL     OW11929   2.770   7.712   0.941  0.0738 -0.0505  0.0215
34000SOL    HW111930   2.812   7.776   0.884  0.4653 -1.4751 -1.3960
34000SOL    HW211931   2.697   7.678   0.889 -0.9074  0.1311  1.2321
34001SOL     OW11932   5.666   0.450   1.261  0.0645 -0.3877  0.0323
34001SOL    HW111933   5.676   0.543   1.280 -2.7270 -0.1665  0.8617
34001SOL    HW211934   5.698   0.440   1.171 -0.2134  1.5190 -0.3108
34002SOL     OW11935   4.177   1.390   4.693 -0.1821  0.3597  0.4215
34002SOL    HW111936   4.127   1.370   4.615 -1.0828  0.2150  1.0177
34002SOL    HW211937   4.212   1.478   4.679 -0.1061  0.2221 -0.2469
34003SOL     OW11938   5.161   5.199  11.773  0.1416  0.0901  0.3736
34003SOL    HW111939   5.248   5.167  11.796  0.1237  0.2287  0.6376
34003SOL    HW211940   5.156   5.286  11.812 -0.2767 -0.0879  0.7317
34004SOL     OW11941   6.135   9.232  13.158 -0.1636 -0.3139  0.2823
34004SOL    HW111942   6.046   9.236  13.195 -0.0889  0.3527  0.4048
34004SOL    HW211943   6.121   9.228  13.063 -0.3190  2.2081  0.1415
34005SOL     OW11944   7.265  12.921   5.692  0.0480 -0.0047 -0.1190
34005SOL    HW111945   7.275  12.977   5.769 -1.7224 -0.0911  0.2011
34005SOL    HW211946   7.301  12.836   5.720  0.0932  0.1673  0.3574
34006SOL     OW11947  12.208   5.882  12.301  0.2696  0.2220 -0.3954
34006SOL    HW111948  12.276   5.815  12.289  1.3367  1.1978  0.0665
34006SOL    HW211949  12.255   5.960  12.330 -1.0137  1.0371 -0.4096
34007SOL     OW11950   3.527   3.212  12.278 -0.2995  0.5592  0.2759
34007SOL    HW111951   3.597   3.238  12.338 -0.5366 -0.7739  1.1727
34007SOL    HW211952   3.478   3.293  12.263  0.7684  1.2753  0.5240
34008SOL     OW11953  12.346   3.777  12.688 -0.5716 -0.0086 -0.6039
34008SOL    HW111954  12.425   3.776  12.634 -0.9881 -0.6073 -1.2178
34008SOL    HW211955  12.316   3.868  12.687  0.0829  0.2135 -0.3945
34009SOL     OW11956  10.731   7.720   3.434  0.2108 -0.1170  0.2821
34009SOL    HW111957  10.642   7.706   3.401  0.3866 -0.0736 -0.2255
34009SOL    HW211958  10.787   7.700   3.359  0.6475 -0.5141  0.7095
34010SOL     OW11959   8.381  13.268   7.623  0.3882 -0.2609  0.0329
34010SOL    HW111960   8.359  13.239   7.712 -2.4445 -0.5960 -0.6763
34010SOL    HW211961   8.412  13.358   7.634 -0.3816 -0.1323  1.3428
34011SOL     OW11962   9.602  11.201  10.426 -0.6455  0.7440 -0.3406
34011SOL    HW111963   9.613  11.129  10.363  1.1633  0.8711 -0.2363
34011SOL    HW211964   9.576  11.276  10.373  1.2963  0.9638 -1.0567
34012SOL     OW11965  13.222   0.358   7.300 -0.0248 -0.0860  0.2266
34012SOL    HW111966  13.168   0.417   7.352  1.3258  2.4167 -1.0162
34012SOL    HW211967  13.306   0.356   7.346  0.7148  0.9991 -0.9873
34013SOL     OW11968  12.007   8.635  12.571  0.1955 -0.1679 -0.1055
34013SOL    HW111969  11.978   8.648  12.481 -1.5457 -1.3910  0.2302
34013SOL    HW211970  12.050   8.549  12.571  0.0776 -0.2319  0.2565
34014SOL     OW11971   9.213   2.998  11.994  0.1805 -0.4964 -0.0298
34014SOL    HW111972   9.180   2.908  11.987  0.0429 -0.4421 -0.0858
34014SOL    HW211973   9.308   2.988  11.998  0.1114 -0.7465  1.5193
34015SOL     OW11974   9.969  12.273   9.576 -0.2881  0.2609  0.1825
34015SOL    HW111975   9.889  12.323   9.592  0.0462  1.0210 -0.4482
34015SOL    HW211976   9.961  12.243   9.485  0.9319  1.8891 -0.5124
34016SOL     OW11977  12.739   5.721   2.138 -0.1404  0.2244 -0.1148
34016SOL    HW111978  12.729   5.815   2.152 -1.1514 -0.0868  1.6374
34016SOL    HW211979  12.756   5.685   2.225  1.3071 -1.1144 -0.8929
34017SOL     OW11980   8.914  10.315  10.389 -0.7486 -0.4454 -0.7023
34017SOL    HW111981   8.933  10.314  10.295  3.6826  1.2479 -0.0551
34017SOL    HW211982   8.984  10.262  10.428 -1.7806 -0.1381  1.7311
34018SOL     OW11983   3.076  11.146   6.401  0.4638 -0.1262 -0.1987
34018SOL    HW111984   3.119  11.162   6.317 -1.0353  0.0118 -0.9829
34018SOL    HW211985   3.033  11.229   6.422 -1.3984 -0.9349 -0.6684
34019SOL     OW11986   3.634   8.557   7.614  0.2551 -0.1676 -0.0489
34019SOL    HW111987   3.711   8.606   7.586  0.8207 -1.0903 -0.1343
34019SOL    HW211988   3.635   8.564   7.710 -0.5323  1.2547 -0.1135
34020SOL     OW11989  12.879   1.394  11.274  0.0551 -0.1229  0.6092
34020SOL    HW111990  12.905   1.307  11.243 -1.5313 -0.9794  1.5389
34020SOL    HW211991  12.795   1.411  11.231 -0.9956 -0.2767  2.5020
34021SOL     OW11992   2.431  10.064   9.685  0.1894 -0.2212 -0.1120
34021SOL    HW111993   2.399  10.147   9.719  0.5123 -0.0243 -0.2935
34021SOL    HW211994   2.367   9.999   9.718 -0.6621  0.2185 -0.8619
34022SOL     OW11995  13.236   8.315   7.191  0.1480 -0.1226  0.1705
34022SOL    HW111996  13.273   8.352   7.271  0.0562 -2.4703  1.3832
34022SOL    HW211997  13.286   8.356   7.120  0.3812  1.8510  1.4010
34023SOL     OW11998   2.568   1.664   6.156  0.3249 -0.5324  0.0461
34023SOL    HW111999   2.648   1.699   6.194 -0.4649 -0.9057  2.1616
34023SOL    HW212000   2.599   1.606   6.086  1.8809 -0.3482  0.5350
34024SOL     OW12001   8.654   8.970   9.437 -0.4428 -0.5468  0.5136
34024SOL    HW112002   8.601   8.897   9.406  0.8888 -0.6057 -1.8443
34024SOL    HW212003   8.593   9.045   9.437 -0.6025 -0.5760 -2.2804
34025SOL     OW12004   6.335  11.659  12.771 -0.3666  0.1763 -0.2611
34025SOL    HW112005   6.421  11.648  12.811  0.5407  1.3016 -1.8008
34025SOL    HW212006   6.297  11.734  12.816 -0.6322 -0.4236  0.5342
34026SOL     OW12007   3.740   1.348   2.311  0.2041 -0.7659 -0.0744
34026SOL    HW112008   3.680   1.341   2.385  0.3987  1.3306  0.3525
34026SOL    HW212009   3.684   1.342   2.233 -0.5426  0.7605  0.3145
34027SOL     OW12010   5.055   2.982   5.191 -0.1701  0.2438 -0.1017
34027SOL    HW112011   5.106   2.972   5.111  0.8227 -0.9484  0.6401
34027SOL    HW212012   4.966   3.000   5.161  0.2455  0.1373 -1.4623
34028SOL     OW12013   1.188   4.392   7.039 -0.1268  0.2794 -0.6467
34028SOL    HW112014   1.101   4.371   7.004 -1.1008  2.5238  0.2680
34028SOL    HW212015   1.216   4.311   7.082 -3.1405  0.3290  1.7332
34029SOL     OW12016   4.731   0.257   2.401  0.4968  0.1823 -0.1334
34029SOL    HW112017   4.788   0.266   2.324 -0.2369  3.1291 -0.4562
34029SOL    HW212018   4.680   0.178   2.383  0.2536  0.8398 -2.8124
34030SOL     OW12019  11.974   7.915  12.537 -0.5212 -0.3377 -0.2168
34030SOL    HW112020  11.932   7.897  12.621 -1.4150 -1.1427 -0.8212
34030SOL    HW212021  11.989   7.828  12.499 -1.6207  0.0463 -1.6072
34031SOL     OW12022   6.603  12.680   4.207  0.2578 -0.1923 -0.4596
34031SOL    HW112023   6.550  12.642   4.277 -0.5446 -0.1501 -1.0379
34031SOL    HW212024   6.574  12.636   4.127 -1.6469  2.4672 -1.3659
34032SOL     OW12025   1.355   8.944   8.823  0.7276 -0.3235  0.0570
34032SOL    HW112026   1.282   8.922   8.880  1.1746  0.2691  0.8806
34032SOL    HW212027   1.316   8.994   8.751  0.5241  1.6888  1.4709
34033SOL     OW12028   5.950   7.953   9.490  0.0840 -0.0638  0.1843
34033SOL    HW112029   6.018   7.935   9.425  0.1697  0.5342  0.1034
34033SOL    HW212030   5.878   7.895   9.465 -0.4894  1.2386 -1.4197
34034SOL     OW12031   4.928   8.247  11.972  0.4271  0.1581 -0.3630
34034SOL    HW112032   4.933   8.284  12.060  0.8823  1.7567 -1.0180
34034SOL    HW212033   4.839   8.269  11.942 -0.3306 -1.8473  0.2691
34035SOL     OW12034   6.756   0.333   8.851  0.5447  0.8867 -0.1060
34035SOL    HW112035   6.663   0.354   8.844  0.5626  1.1009  0.2802
34035SOL    HW212036   6.797   0.415   8.880  0.6420  0.3678  1.2529
34036SOL     OW12037   0.760   0.751   9.179 -0.6330 -0.6842 -0.2809
34036SOL    HW112038   0.751   0.666   9.135 -1.5048 -1.6187  1.6171
34036SOL    HW212039   0.821   0.735   9.251 -0.5665  0.4024 -0.0762
34037SOL     OW12040  11.272   1.352   3.670 -0.7307 -0.0340  0.3052
34037SOL    HW112041  11.257   1.298   3.592 -0.0437  0.7631 -0.3908
34037SOL    HW212042  11.368   1.354   3.680 -0.8213 -0.9238  1.7546
34038SOL     OW12043   5.546   3.178   3.168  0.4457 -0.0561 -0.0168
34038SOL    HW112044   5.539   3.170   3.073  1.7292 -0.5696 -0.0932
34038SOL    HW212045   5.475   3.238   3.193 -0.3951 -0.5242 -1.1944
34039SOL     OW12046   1.131   8.270   2.698 -0.1292  0.6207 -0.0344
34039SOL    HW112047   1.134   8.251   2.604  1.2553  1.3710 -0.1698
34039SOL    HW212048   1.074   8.346   2.706 -0.3897  0.4474 -0.2471
34040SOL     OW12049   8.582  10.708   7.552 -0.3916 -0.4843  0.4423
34040SOL    HW112050   8.589  10.796   7.515 -1.3962 -0.6855 -0.2701
34040SOL    HW212051   8.613  10.718   7.642 -1.0256  0.7319  0.5536
34041SOL     OW12052   2.095   7.707   4.994 -0.1669  0.8550 -0.3993
34041SOL    HW112053   2.043   7.627   4.989 -1.9773  1.8587  1.1044
34041SOL    HW212054   2.127   7.709   5.084 -0.2298  1.8412 -0.3900
34042SOL     OW12055  11.946   1.481   1.401  0.3097 -0.7647  0.3836
34042SOL    HW112056  11.952   1.541   1.475 -0.2829 -1.3376  0.9068
34042SOL    HW212057  11.857   1.490   1.369  0.9095  0.4033 -1.0813
34043SOL     OW12058   5.096  11.311   6.055 -0.2019 -0.0626 -0.2725
34043SOL    HW112059   5.116  11.250   6.126 -0.3873 -0.5530 -0.6387
34043SOL    HW212060   5.051  11.258   5.989  3.1190 -0.5160 -2.4089
34044SOL     OW12061   0.907   4.758   0.749  0.1268 -0.0501  0.3437
34044SOL    HW112062   0.933   4.695   0.816  2.9549  1.7887  1.1488
34044SOL    HW212063   0.878   4.835   0.798  1.4492  1.0329 -0.4971
34045SOL     OW12064  12.384   1.525  13.289 -0.7632 -0.4684 -0.2770
34045SOL    HW112065  12.336   1.585  13.234  0.0557 -0.3149 -0.8408
34045SOL    HW212066  12.402   1.449  13.233  0.7851  0.0322 -0.5088
34046SOL     OW12067   4.250  10.276   3.634  0.0357  0.1767  0.5607
34046SOL    HW112068   4.178  10.287   3.697 -0.0220 -0.8641  0.6808
34046SOL    HW212069   4.274  10.366   3.611 -1.4627  0.5548  0.3268
34047SOL     OW12070  11.780  12.941  13.127 -0.0096  0.0743  0.5925
34047SOL    HW112071  11.858  12.911  13.173  0.3876 -0.7037 -0.5449
34047SOL    HW212072  11.707  12.918  13.185  0.4504 -1.2002  0.6957
34048SOL     OW12073  10.193  10.217   1.363 -0.6821 -0.2700  0.4602
34048SOL    HW112074  10.215  10.229   1.270 -1.8872 -3.4516 -0.3447
34048SOL    HW212075  10.146  10.298   1.386  1.0954  1.3400 -1.1502
34049SOL     OW12076   3.509   4.147   0.219 -0.4827  0.0017  0.2261
34049SOL    HW112077   3.455   4.209   0.268  0.1720  1.3401 -0.6920
34049SOL    HW212078   3.490   4.166   0.127  2.5689  1.5552 -0.2123
34050SOL     OW12079  11.460   1.759   9.541  0.2269  0.0393 -0.6234
34050SOL    HW112080  11.535   1.795   9.494 -0.1428  2.4023  0.4355
34050SOL    HW212081  11.498   1.722   9.621  0.3272  1.0139 -0.2038
34051SOL     OW12082   4.607   3.497  13.126 -0.1424 -0.0446  0.5842
34051SOL    HW112083   4.611   3.422  13.185  0.5233 -0.0315  0.5694
34051SOL    HW212084   4.624   3.573  13.183 -2.0074  0.2457  0.8261
34052SOL     OW12085   9.662   6.313  13.085  0.0953  0.0323 -0.1259
34052SOL    HW112086   9.709   6.306  13.002 -0.4872 -0.6737 -0.4079
34052SOL    HW212087   9.587   6.370  13.066  0.6099  0.8389  0.2221
34053SOL     OW12088   7.724  11.145   3.560 -0.2771  0.0386  0.0852
34053SOL    HW112089   7.722  11.078   3.629 -1.1804 -0.2847 -0.2490
34053SOL    HW212090   7.743  11.226   3.607 -1.7129 -0.0350  0.8423
34054SOL     OW12091   0.622   1.053   9.448 -0.0572  0.3189 -0.1881
34054SOL    HW112092   0.604   0.991   9.518  0.8748  1.3886  1.0457
34054SOL    HW212093   0.594   1.138   9.483  2.5187  1.2337 -0.1422
34055SOL     OW12094   3.926  11.621  10.397  0.0392 -1.0154  0.1823
34055SOL    HW112095   3.964  11.706  10.375 -1.4216 -0.3699  0.0092
34055SOL    HW212096   3.882  11.593  10.316  1.4373 -2.5050 -0.1247
34056SOL     OW12097   3.017   7.720  11.538  0.2452 -0.1786  0.4261
34056SOL    HW112098   2.999   7.804  11.580  3.4636 -0.0041  1.7260
34056SOL    HW212099   2.985   7.654  11.600 -0.0131  0.0758  0.5670
34057SOL     OW12100   0.095   8.896   9.575 -0.7649 -0.1741 -0.2182
34057SOL    HW112101   0.078   8.976   9.624  1.8719 -1.9801  4.1987
34057SOL    HW212102   0.034   8.831   9.612 -0.8153 -0.9496 -1.5905
34058SOL     OW12103   4.915   1.526  10.616 -0.3291  0.0684 -0.1850
34058SOL    HW112104   4.839   1.546  10.670 -0.4196  1.0796 -0.6574
34058SOL    HW212105   4.989   1.533  10.675 -0.6149 -1.4879  0.4169
34059SOL     OW12106  12.312  12.473   9.530  0.3837 -0.2983 -0.1026
34059SOL    HW112107  12.369  12.549   9.517  1.0575 -0.6315  0.8440
34059SOL    HW212108  12.227  12.510   9.551  0.2488  0.2069 -1.4485
34060SOL     OW12109  12.979  12.755  12.388 -0.1720 -0.1411  0.1083
34060SOL    HW112110  12.910  12.713  12.338  0.7211 -1.1548 -0.3165
34060SOL    HW212111  13.058  12.706  12.366  0.6307  0.7757  0.8317
34061SOL     OW12112   9.318   6.997   7.418  0.1237 -0.2558 -0.1186
34061SOL    HW112113   9.382   7.055   7.457  0.4859  0.6671 -1.9943
34061SOL    HW212114   9.367   6.919   7.392 -0.0120 -0.6238  0.6970
34062SOL     OW12115   5.043   7.817  12.517 -0.0349 -0.0090 -0.3759
34062SOL    HW112116   5.133   7.796  12.492 -0.8286 -4.7311 -0.0089
34062SOL    HW212117   5.038   7.797  12.610 -0.8526  3.3139  0.4536
34063SOL     OW12118   0.169   4.441   7.663 -0.9424  0.1013  0.4581
34063SOL    HW112119   0.187   4.363   7.611  4.6904 -0.1524  2.0575
34063SOL    HW212120   0.140   4.408   7.748 -0.3549 -0.2208  0.5417
34064SOL     OW12121   1.550  11.609   5.549 -0.5469  0.2962 -0.8439
34064SOL    HW112122   1.592  11.695   5.543  0.7884 -0.1485  1.1118
34064SOL    HW212123   1.620  11.547   5.527 -0.7060 -0.3707  0.4060
34065SOL     OW12124   4.971  12.556   4.481 -0.4808  0.1612 -0.3167
34065SOL    HW112125   4.941  12.487   4.540  2.4792 -1.7004 -0.7706
34065SOL    HW212126   4.999  12.509   4.402  2.1086  1.7498 -0.4434
34066SOL     OW12127   6.118  10.520   2.498 -0.1846  0.0439 -0.1516
34066SOL    HW112128   6.193  10.579   2.492  0.9534 -1.4251 -1.4677
34066SOL    HW212129   6.103  10.491   2.408 -0.8082 -1.4913  0.4107
34067SOL     OW12130   9.134  10.199  10.594 -0.0793 -0.1503  0.1231
34067SOL    HW112131   9.191  10.260  10.639  0.3351  0.0387 -0.6378
34067SOL    HW212132   9.116  10.130  10.659  1.0633 -0.2481  0.3604
34068SOL     OW12133   1.923  10.994   5.956 -0.2950 -0.3617  0.0177
34068SOL    HW112134   1.954  11.019   6.043 -0.3824  0.7783 -0.2630
34068SOL    HW212135   1.905  10.900   5.963  0.1564 -0.3815  1.0877
34069SOL     OW12136   0.816   0.496   3.023 -0.1368 -0.0779  0.3480
34069SOL    HW112137   0.724   0.507   2.998 -0.6546 -1.4924  1.4754
34069SOL    HW212138   0.829   0.556   3.096 -0.5965 -0.8623  1.1009
34070SOL     OW12139  12.200  11.734   1.896 -0.1443 -0.1009 -0.0579
34070SOL    HW112140  12.234  11.791   1.827  0.8445  1.2567  1.4670
34070SOL    HW212141  12.252  11.654   1.889 -0.5808 -0.2925 -1.3423
34071SOL     OW12142   4.461   0.585  11.897 -0.7776 -0.4841 -0.1779
34071SOL    HW112143   4.538   0.573  11.953  0.6145  0.7179 -1.7320
34071SOL    HW212144   4.411   0.504  11.907  0.2009 -0.9327  1.5792
34072SOL     OW12145   7.594   6.479   1.006 -0.1120 -0.2393 -0.0356
34072SOL    HW112146   7.675   6.517   0.970 -0.5805  0.4482 -0.3846
34072SOL    HW212147   7.617   6.389   1.026  0.7440 -0.0561 -0.1465
34073SOL     OW12148   5.979  11.102  10.319 -0.2016  0.6552  0.0225
34073SOL    HW112149   5.999  11.010  10.303 -3.7167 -0.0538 -1.1310
34073SOL    HW212150   6.035  11.126  10.393  1.0471 -2.2990  0.1782
34074SOL     OW12151  12.281  12.394   9.904 -0.1437 -0.2747 -0.4122
34074SOL    HW112152  12.238  12.398   9.990  3.9845 -0.6046  1.9037
34074SOL    HW212153  12.328  12.477   9.896 -0.2056 -0.3692 -2.2972
34075SOL     OW12154   7.437   9.320   6.759 -0.0225  0.2071  0.0047
34075SOL    HW112155   7.368   9.383   6.779  0.0669 -0.0897  1.3671
34075SOL    HW212156   7.512   9.348   6.811  0.8823  0.4576 -1.3709
34076SOL     OW12157   4.631   2.800   7.186 -0.4805  0.1979 -0.2731
34076SOL    HW112158   4.644   2.754   7.269 -0.9912 -1.7833 -1.2276
34076SOL    HW212159   4.543   2.775   7.158 -0.5606  1.3339 -1.1240
34077SOL     OW12160   5.060   8.660   8.292  0.2316  0.5364  0.1041
34077SOL    HW112161   5.042   8.593   8.227  1.1418  1.3547 -1.0319
34077SOL    HW212162   5.062   8.613   8.376 -2.6679 -0.2598 -0.1820
34078SOL     OW12163   9.389   0.467   1.083  0.2201  0.0394  0.1459
34078SOL    HW112164   9.382   0.560   1.103  0.5443  0.1511 -0.2360
34078SOL    HW212165   9.333   0.424   1.148 -0.2082  0.5242  0.1077
34079SOL     OW12166   0.732   5.278   0.464 -0.0667 -0.1681  0.6614
34079SOL    HW112167   0.779   5.286   0.547 -0.5066 -1.3427  1.0294
34079SOL    HW212168   0.640   5.280   0.488 -0.2043 -1.5852  0.3346
34080SOL     OW12169   6.857   8.219   6.101  0.0377 -0.1624  0.4344
34080SOL    HW112170   6.789   8.282   6.078  0.3728 -0.7064 -2.4015
34080SOL    HW212171   6.930   8.238   6.042  1.6241 -0.8585  2.0417
34081SOL     OW12172   3.475   3.849   5.766  0.5605 -0.2438  0.0629
34081SOL    HW112173   3.496   3.758   5.788  0.1253 -0.6133 -0.9748
34081SOL    HW212174   3.522   3.865   5.685  1.4868  0.8209  0.7932
34082SOL     OW12175  13.161  11.405  11.026 -0.4937 -0.1231 -0.1037
34082SOL    HW112176  13.090  11.390  10.963 -1.5834 -0.1152  1.0697
34082SOL    HW212177  13.166  11.500  11.035  1.4770  0.0606 -2.0948
34083SOL     OW12178   4.827   9.821   0.264 -0.6335 -0.3898 -0.1889
34083SOL    HW112179   4.766   9.815   0.190 -0.5184  0.8525 -0.3925
34083SOL    HW212180   4.858   9.731   0.276 -3.7369 -1.4619  0.9995
34084SOL     OW12181   2.087  13.184   8.180 -0.2312  0.0514 -0.2040
34084SOL    HW112182   2.141  13.225   8.249  0.6440 -1.3570 -0.0233
34084SOL    HW212183   1.997  13.204   8.206  0.1066  0.1282  0.9832
34085SOL     OW12184   6.048   5.449   3.944 -0.5105  0.3897  0.3623
34085SOL    HW112185   6.102   5.380   3.906 -0.9341  1.1922 -1.8173
34085SOL    HW212186   6.009   5.493   3.869 -1.9861  1.6174  1.7825
34086SOL     OW12187   6.099   3.053   6.069  0.6812  0.0052 -0.4884
34086SOL    HW112188   6.128   3.004   5.992 -0.0245  1.8970 -2.0379
34086SOL    HW212189   6.173   3.110   6.090  1.0466 -0.8364  0.5481
34087SOL     OW12190   6.205   4.794  10.084  0.0205  0.0517  0.4894
34087SOL    HW112191   6.153   4.805  10.004  1.1375  1.0605 -0.1436
34087SOL    HW212192   6.291   4.766  10.052  0.4161  0.2499  1.3579
34088SOL     OW12193  12.138   8.917   5.828  0.2303 -0.1878  0.3200
34088SOL    HW112194  12.158   8.997   5.876  0.6310 -0.7553  1.1354
34088SOL    HW212195  12.125   8.851   5.896 -1.7739 -0.4575 -0.2720
34089SOL     OW12196   1.659   4.086   7.287  0.2807  0.1588 -0.5866
34089SOL    HW112197   1.754   4.088   7.284  0.3441  0.2681  0.7398
34089SOL    HW212198   1.636   4.130   7.369 -0.9092  0.1188 -0.8673
34090SOL     OW12199   0.211   7.122   2.836 -0.3391 -0.0260  0.0017
34090SOL    HW112200   0.241   7.037   2.804  1.5495  0.3455  0.6947
34090SOL    HW212201   0.127   7.102   2.879  0.8506 -1.8806  1.6590
34091SOL     OW12202   2.488  10.131   2.285  0.0665 -0.2984  0.1984
34091SOL    HW112203   2.406  10.170   2.316 -0.1599 -0.2236 -0.4798
34091SOL    HW212204   2.553  10.159   2.349  0.1416  2.1687 -0.8584
34092SOL     OW12205   5.130  11.917   8.813  0.0060 -0.1727 -0.1634
34092SOL    HW112206   5.190  11.926   8.886 -1.8201  1.1358  1.2758
34092SOL    HW212207   5.098  11.827   8.819 -1.3158  0.3642  1.6992
34093SOL     OW12208   6.508   5.169   1.215 -0.2257 -0.1298  0.1586
34093SOL    HW112209   6.493   5.206   1.128  1.4109 -0.7955 -0.4620
34093SOL    HW212210   6.471   5.081   1.210  0.1738 -0.2917  0.0120
34094SOL     OW12211   8.750   6.314   2.168  0.2065  0.2370 -0.0797
34094SOL    HW112212   8.840   6.346   2.167  0.2192  0.3287  1.6133
34094SOL    HW212213   8.756   6.224   2.135  0.8089  0.4561 -0.5806
34095SOL     OW12214   5.334   2.636  12.304 -0.5389  0.3519  0.1870
34095SOL    HW112215   5.287   2.709  12.345 -0.6411 -0.5458  1.7474
34095SOL    HW212216   5.421   2.639  12.345  0.3937  1.2002 -1.7170
34096SOL     OW12217   2.097   9.856   1.321  0.2277 -0.2510 -0.1638
34096SOL    HW112218   2.166   9.790   1.334  0.4302  0.1098  0.7096
34096SOL    HW212219   2.126   9.931   1.374 -1.2878 -0.4220  0.9684
34097SOL     OW12220   7.544   1.495   2.272 -0.7490 -0.6696 -0.3242
34097SOL    HW112221   7.456   1.527   2.252 -0.9278  0.4003  1.8514
34097SOL    HW212222   7.600   1.572   2.260 -1.0011  0.3985  3.7412
34098SOL     OW12223   3.462   8.975   9.075  0.6999 -0.4150 -0.2399
34098SOL    HW112224   3.475   8.897   9.128  1.3992 -1.3561 -1.7168
34098SOL    HW212225   3.458   8.942   8.985  1.5730  1.3016 -0.9554
34099SOL     OW12226   6.082   7.023   3.713  0.1259 -0.4179  0.3020
34099SOL    HW112227   6.147   7.089   3.735  0.2064 -0.2702 -0.3443
34099SOL    HW212228   6.132   6.952   3.674  0.1153 -1.1601  1.5857
34100SOL     OW12229   8.345   9.009   6.336 -0.0162 -0.1227  0.8592
34100SOL    HW112230   8.286   8.935   6.326  0.1640 -0.1356 -0.2430
34100SOL    HW212231   8.384   9.020   6.249  0.9558  0.4220  1.3554
34101SOL     OW12232   0.145   9.648   9.431 -0.2191 -0.2723 -0.0204
34101SOL    HW112233   0.115   9.738   9.441  0.3861 -0.0199 -0.4519
34101SOL    HW212234   0.064   9.596   9.434 -0.4200  0.0643  2.3318
34102SOL     OW12235   0.552  11.104  10.242 -0.2321 -0.4162 -0.0856
34102SOL    HW112236   0.497  11.160  10.187  1.0580 -0.0197 -1.0114
34102SOL    HW212237   0.568  11.156  10.320 -0.2196 -0.0622 -0.3222
34103SOL     OW12238   6.010   5.315   8.482 -0.3301  0.7251  0.0366
34103SOL    HW112239   5.935   5.261   8.454 -1.0641  1.7861 -0.0943
34103SOL    HW212240   6.058   5.332   8.401 -0.8510  1.3810 -0.1439
34104SOL     OW12241   5.456  12.134   8.659  0.3397  0.1476 -0.0557
34104SOL    HW112242   5.407  12.178   8.589 -0.0575 -1.5257 -0.8595
34104SOL    HW212243   5.422  12.172   8.740  0.4949  1.8001 -0.7207
34105SOL     OW12244  10.225   2.975   3.893 -0.1943  0.3111 -0.3901
34105SOL    HW112245  10.153   3.024   3.934 -1.4695 -0.7952 -1.2120
34105SOL    HW212246  10.201   2.883   3.904  1.6070 -0.1381  0.1573
34106SOL     OW12247   5.324  10.023  12.940  0.3703  0.1594  0.7319
34106SOL    HW112248   5.340  10.038  12.847 -0.9503  0.4398  0.5273
34106SOL    HW212249   5.262  10.091  12.965 -0.5836 -0.9242  1.4075
34107SOL     OW12250  12.858   2.768  12.618  0.0421  0.2576 -0.1488
34107SOL    HW112251  12.843   2.860  12.641 -1.5020  0.3466 -1.3679
34107SOL    HW212252  12.833   2.762  12.525  1.6864 -1.0564 -0.5642
34108SOL     OW12253   5.084  12.307   0.913 -0.0974  0.4213  0.1497
34108SOL    HW112254   5.033  12.270   0.985 -1.8312  1.2195 -0.6073
34108SOL    HW212255   5.097  12.399   0.937  1.0709  0.2105  0.3616
34109SOL     OW12256   3.477   7.933   8.230 -0.1677  0.1711  0.0326
34109SOL    HW112257   3.543   7.864   8.243 -0.7907 -0.3030  0.8045
34109SOL    HW212258   3.474   7.980   8.314 -0.5527  0.4065 -0.1086
34110SOL     OW12259   7.236   9.408   9.685  0.5260 -0.4663 -0.3898
34110SOL    HW112260   7.295   9.383   9.614 -0.0041 -1.7496 -0.4064
34110SOL    HW212261   7.164   9.453   9.642  1.4275  1.0526 -0.3764
34111SOL     OW12262  10.449   0.027   9.934  0.7226  0.3314  0.7438
34111SOL    HW112263  10.534   0.045   9.973  2.1733 -0.8507 -1.6216
34111SOL    HW212264  10.430  -0.064   9.958  1.6177 -0.3994 -1.0887
34112SOL     OW12265   5.024   2.057   4.583  0.1845 -0.0296  0.2313
34112SOL    HW112266   4.971   2.000   4.639  0.6157 -1.1357 -0.4433
34112SOL    HW212267   4.995   2.036   4.494 -1.4714  2.6977  0.0309
34113SOL     OW12268   8.893   4.236  11.641 -0.4811  0.7362  0.3181
34113SOL    HW112269   8.843   4.284  11.574 -1.2947 -0.5006  0.0125
34113SOL    HW212270   8.945   4.173  11.592  0.2659  1.0019  0.7508
34114SOL     OW12271   6.322  10.745   8.616 -0.3880 -0.0144  0.0808
34114SOL    HW112272   6.295  10.803   8.687  1.8460  0.5365  0.5548
34114SOL    HW212273   6.270  10.666   8.629 -1.8493  1.0185  0.7874
34115SOL     OW12274  12.397   5.873  10.983  0.0293  0.0246 -0.2086
34115SOL    HW112275  12.436   5.846  10.900  1.5285 -0.4810  0.6284
34115SOL    HW212276  12.463   5.928  11.024 -0.7276  0.3390  0.6222
34116SOL     OW12277   0.469   7.838   2.076  0.1605 -0.2794  0.6936
34116SOL    HW112278   0.468   7.805   1.986 -1.5445  0.4714  0.4008
34116SOL    HW212279   0.548   7.800   2.114  2.0253  0.9575 -1.6798
34117SOL     OW12280  11.104  12.458   7.117  0.0201 -0.1472  0.1420
34117SOL    HW112281  11.076  12.366   7.115  0.9412 -0.4363 -1.4531
34117SOL    HW212282  11.044  12.500   7.178 -1.4263 -1.4993 -0.2759
34118SOL     OW12283   2.949   0.629  10.617 -0.6037  0.0925 -0.3824
34118SOL    HW112284   2.981   0.707  10.570 -0.1010  0.3634  0.3950
34118SOL    HW212285   2.855   0.627  10.599 -0.5823  0.7499 -0.5989
34119SOL     OW12286   8.462   7.571   5.900  0.0132  0.2448  0.2819
34119SOL    HW112287   8.414   7.612   5.971  1.5283  1.1991  0.7956
34119SOL    HW212288   8.549   7.556   5.935  0.5724  0.0184 -1.1305
34120SOL     OW12289  11.366   2.836  12.312  0.3797 -0.0184  0.1699
34120SOL    HW112290  11.344   2.927  12.334  1.7194  0.2951  0.3104
34120SOL    HW212291  11.411   2.842  12.227  1.7798 -0.3535  0.8532
34121SOL     OW12292   2.453   5.418   9.742 -0.1802  0.4124 -0.1618
34121SOL    HW112293   2.412   5.422   9.829  1.2692 -1.9005  0.7370
34121SOL    HW212294   2.545   5.439   9.759 -0.3062  2.4398 -1.6233
34122SOL     OW12295   3.947   3.636   6.358  0.3401 -0.5978  0.2336
34122SOL    HW112296   4.029   3.594   6.333  0.9511  0.6827  0.0299
34122SOL    HW212297   3.879   3.582   6.318  1.1325 -0.9710 -0.6280
34123SOL     OW12298  12.479  13.273   7.090  0.3629  0.3672  0.4373
34123SOL    HW112299  12.425  13.196   7.107  0.3607  0.6015  1.5194
34123SOL    HW212300  12.440  13.343   7.142  1.8506  0.4710  1.4762
34124SOL     OW12301   1.380   3.408   2.757  0.0526 -0.1899 -0.2198
34124SOL    HW112302   1.422   3.378   2.837 -0.5975  0.1699  0.2611
34124SOL    HW212303   1.309   3.466   2.786  1.1159  1.6581 -1.1007
34125SOL     OW12304  10.548  10.143  10.355  0.1550 -0.0599  0.2259
34125SOL    HW112305  10.517  10.230  10.329 -1.2482 -1.1048 -1.8734
34125SOL    HW212306  10.567  10.099  10.272  0.7800 -1.7742  1.2412
34126SOL     OW12307   2.885   2.336   0.053 -0.3031 -0.3167  0.3219
34126SOL    HW112308   2.964   2.287   0.029 -0.5074 -0.3871 -0.2177
34126SOL    HW212309   2.813   2.275   0.036 -0.4016 -0.7683  2.1520
34127SOL     OW12310   3.269   7.163   4.196 -0.3996  0.3771 -0.2941
34127SOL    HW112311   3.227   7.164   4.110  0.2932 -2.5710 -0.7819
34127SOL    HW212312   3.200   7.193   4.256 -1.5655  0.5495 -1.6560
34128SOL     OW12313   1.789   8.674   3.385  0.2601 -0.3290  0.0116
34128SOL    HW112314   1.799   8.586   3.419 -1.7722 -0.3517  0.6519
34128SOL    HW212315   1.867   8.720   3.414 -0.7313 -0.6819  3.7161
34129SOL     OW12316   8.567   9.529  10.790 -0.1302 -0.3391  0.2479
34129SOL    HW112317   8.627   9.524  10.716  0.6907  1.0903  0.7623
34129SOL    HW212318   8.623   9.549  10.865 -1.3125  2.4868  0.5246
34130SOL     OW12319   1.736   1.024   8.010  0.3145  0.2238 -0.1542
34130SOL    HW112320   1.696   1.108   8.030 -0.1372  0.3459 -1.4630
34130SOL    HW212321   1.664   0.961   8.012  0.6253 -0.1255  0.6803
34131SOL     OW12322   9.809   9.259  10.614 -0.5415  0.0218  0.2795
34131SOL    HW112323   9.799   9.164  10.617  0.9509 -0.3150 -2.4370
34131SOL    HW212324   9.790   9.282  10.523  1.6098  1.9735  0.2414
34132SOL     OW12325   5.935   4.299   1.272  0.1158  0.8579  0.7027
34132SOL    HW112326   5.891   4.237   1.331 -0.6004  0.4855 -0.2089
34132SOL    HW212327   6.010   4.250   1.238 -0.4753  0.4468 -0.0531
34133SOL     OW12328   2.263   3.825   4.125 -0.0158  0.0650 -0.2588
34133SOL    HW112329   2.326   3.877   4.175 -0.1868 -1.3563  1.5156
34133SOL    HW212330   2.197   3.798   4.189 -0.3709 -1.6324 -1.2896
34134SOL     OW12331   6.078  11.510  11.463 -0.0607 -0.0450  0.1255
34134SOL    HW112332   6.127  11.584  11.500  0.9141 -0.8107  0.3900
34134SOL    HW212333   5.990  11.519  11.501 -0.0061  1.0505  0.0447
34135SOL     OW12334   8.339   2.512   0.133  0.1170 -0.1377 -0.5188
34135SOL    HW112335   8.338   2.502   0.228  1.2483 -1.4463 -0.6120
34135SOL    HW212336   8.431   2.524   0.111 -0.1147 -0.0228 -1.4693
34136SOL     OW12337  11.501   7.315   3.849 -0.2303  0.3921  0.8149
34136SOL    HW112338  11.444   7.385   3.881  0.4678  2.0003 -1.2831
34136SOL    HW212339  11.469   7.295   3.762  1.9573  0.8937 -0.1698
34137SOL     OW12340   6.699   3.849  11.150 -0.1726 -0.2026  0.0235
34137SOL    HW112341   6.621   3.869  11.099  0.0023 -1.8794 -1.0035
34137SOL    HW212342   6.772   3.861  11.088  0.2985  0.3789  0.6800
34138SOL     OW12343  11.527   9.204   1.454 -0.1295 -0.0119 -0.3369
34138SOL    HW112344  11.552   9.266   1.386  0.9421 -0.3846 -0.2992
34138SOL    HW212345  11.607   9.189   1.504 -0.3020 -1.5923 -0.4802
34139SOL     OW12346  11.757   9.711   3.702  0.4163  0.1941  0.1699
34139SOL    HW112347  11.691   9.659   3.747 -0.6603  0.4637 -1.0373
34139SOL    HW212348  11.783   9.777   3.766  1.6564 -1.6186  1.6557
34140SOL     OW12349  11.332  10.910  11.805  0.8065 -0.4578 -0.4493
34140SOL    HW112350  11.264  10.846  11.829  0.2485  0.7417  1.3833
34140SOL    HW212351  11.347  10.895  11.712  0.3608 -2.9327 -0.1926
34141SOL     OW12352   6.817  13.082   0.320  0.0908  0.0344 -0.1914
34141SOL    HW112353   6.797  13.080   0.226 -1.7049  1.4083  0.1076
34141SOL    HW212354   6.809  12.990   0.347 -0.4976 -0.2218 -1.1728
34142SOL     OW12355   8.723   9.768   0.348  0.3683 -0.2903 -0.0901
34142SOL    HW112356   8.816   9.745   0.351  0.6548  0.8878  2.7258
34142SOL    HW212357   8.716   9.829   0.275  1.2796 -2.2137 -1.8937
34143SOL     OW12358   2.291  10.906   1.626 -0.7018 -0.3531 -0.2166
34143SOL    HW112359   2.329  10.886   1.711 -0.0109 -1.7592 -0.8377
34143SOL    HW212360   2.218  10.845   1.617 -3.0239  2.0776  0.8148
34144SOL     OW12361   7.819  11.109  10.289  0.1273  0.3375  0.2657
34144SOL    HW112362   7.862  11.103  10.204  1.8358 -3.1528  1.1769
34144SOL    HW212363   7.744  11.050  10.282 -0.7540  1.3824  0.6752
34145SOL     OW12364  12.997  12.674  10.837 -0.3135 -0.1640  0.1011
34145SOL    HW112365  13.014  12.592  10.791  0.4710 -0.2427  0.5124
34145SOL    HW212366  13.075  12.728  10.820 -0.9229  0.5864 -0.3590
34146SOL     OW12367   2.237   6.143   5.708 -0.0615 -0.6590  0.9717
34146SOL    HW112368   2.172   6.167   5.774 -0.3453  0.7243  0.2090
34146SOL    HW212369   2.281   6.225   5.687  1.4302 -1.4335  0.9099
34147SOL     OW12370   7.979   9.138   9.336  0.4372 -0.3608  0.2196
34147SOL    HW112371   7.888   9.137   9.364  0.8319 -0.4139  1.6052
34147SOL    HW212372   8.014   9.053   9.362  0.3038 -1.3401 -2.5145
34148SOL     OW12373  11.066   6.382   6.289  0.0228  0.1193 -0.1002
34148SOL    HW112374  11.137   6.423   6.240 -0.2202 -0.5954 -1.0771
34148SOL    HW212375  11.013   6.455   6.320  0.3274  0.5972 -0.6898
34149SOL     OW12376   9.067  12.140   4.971  0.8129  0.0945 -0.0255
34149SOL    HW112377   9.124  12.079   5.017  0.9450 -0.5842 -1.0398
34149SOL    HW212378   9.121  12.175   4.900  0.0919 -0.2904 -0.7837
34150SOL     OW12379  13.010  13.065   3.553 -0.0003  0.2539 -0.2030
34150SOL    HW112380  12.986  13.122   3.626  0.0723  0.5538 -0.4094
34150SOL    HW212381  13.002  12.976   3.588  1.3576  0.4177  0.5909
34151SOL     OW12382   8.456   7.683   7.009  0.4176  0.3254 -0.1752
34151SOL    HW112383   8.417   7.655   7.092  0.3824  0.4828 -0.1382
34151SOL    HW212384   8.517   7.613   6.986 -0.4540 -0.2978 -0.6303
34152SOL     OW12385   1.447   8.247   8.020 -0.4761  0.4012 -0.3704
34152SOL    HW112386   1.467   8.217   7.931  2.1150  0.5917  0.0840
34152SOL    HW212387   1.414   8.169   8.065 -0.7780  0.0511 -1.1839
34153SOL     OW12388   1.205  12.086   7.034  0.3086  0.4093  0.3879
34153SOL    HW112389   1.207  12.074   7.129 -0.4587 -1.7666  0.1924
34153SOL    HW212390   1.235  12.002   6.998 -2.8060 -0.1843 -1.2728
34154SOL     OW12391   6.199   9.350  12.861  0.3711  0.2762 -0.0851
34154SOL    HW112392   6.114   9.352  12.816 -1.0614  1.1700  2.4433
34154SOL    HW212393   6.215   9.441  12.886  0.6981 -0.2536  1.7779
34155SOL     OW12394   5.326   3.771  12.353  0.1410 -0.2703  0.6316
34155SOL    HW112395   5.236   3.798  12.334 -0.4977 -4.0244 -3.4216
34155SOL    HW212396   5.316   3.700  12.417  0.1171 -0.8629 -0.0138
34156SOL     OW12397   3.975  12.984  13.189 -0.3404 -0.2275 -0.2156
34156SOL    HW112398   3.993  13.078  13.186  0.0757 -0.3307 -1.4733
34156SOL    HW212399   3.880  12.978  13.197 -0.2756  0.2873  1.3066
34157SOL     OW12400   0.937   2.333   9.467 -0.2210  0.0379  0.8114
34157SOL    HW112401   1.015   2.381   9.496  0.0759 -0.0726  0.2207
34157SOL    HW212402   0.964   2.292   9.385 -0.2916 -1.5538  1.5414
34158SOL     OW12403  10.147  11.811   3.445  0.0924 -0.4084 -0.3257
34158SOL    HW112404  10.146  11.872   3.372  0.8571 -0.3203 -0.2672
34158SOL    HW212405  10.068  11.831   3.495  1.6661  2.4520  1.2569
34159SOL     OW12406   1.387  10.992   1.712 -0.0032 -0.0804  0.1697
34159SOL    HW112407   1.353  11.070   1.755 -0.7606 -0.3575  0.0934
34159SOL    HW212408   1.335  10.983   1.632 -0.4826 -1.0886  0.5686
34160SOL     OW12409   5.664   2.744   1.082  0.1897 -0.8359 -0.1149
34160SOL    HW112410   5.719   2.666   1.075  0.0846 -0.8524 -0.8235
34160SOL    HW212411   5.683   2.779   1.169  0.2795 -1.6198  0.1889
34161SOL     OW12412   7.472   8.526   5.785  0.0510  0.3723  0.0583
34161SOL    HW112413   7.511   8.585   5.720  0.7215  0.8578  0.8809
34161SOL    HW212414   7.458   8.581   5.862  1.0184 -0.5988  0.9690
34162SOL     OW12415   9.126   4.970   4.803 -0.2494  0.6507  0.1065
34162SOL    HW112416   9.126   5.061   4.773  0.3688  0.1748 -1.4211
34162SOL    HW212417   9.215   4.956   4.835  0.1770  0.1011 -1.2697
34163SOL     OW12418   3.321   2.400  12.293  0.0508  0.2723 -0.0044
34163SOL    HW112419   3.340   2.324  12.239  0.2084 -0.1517  0.6422
34163SOL    HW212420   3.283   2.464  12.232 -0.4627 -0.4676 -0.4728
34164SOL     OW12421   7.421   7.601   1.429  0.3081 -0.0144  0.5486
34164SOL    HW112422   7.330   7.606   1.457  0.0315  2.6086 -0.4641
34164SOL    HW212423   7.419   7.627   1.336  2.2566  2.9687  1.1737
34165SOL     OW12424   5.252   0.136   3.472 -0.1635 -0.4197 -0.4233
34165SOL    HW112425   5.177   0.089   3.509 -0.1013 -0.8837 -0.8900
34165SOL    HW212426   5.221   0.226   3.463 -1.8167 -1.1562 -3.5673
34166SOL     OW12427   9.499   7.776   4.880  0.1273 -0.2536 -0.2521
34166SOL    HW112428   9.438   7.844   4.909  0.6804 -0.1207  0.6511
34166SOL    HW212429   9.585   7.817   4.891  0.4702 -1.1175  0.3602
34167SOL     OW12430  10.949   7.344   4.134  0.8977  0.1355 -0.1175
34167SOL    HW112431  10.869   7.368   4.182  0.8173 -1.4432  0.6123
34167SOL    HW212432  10.951   7.404   4.059  0.2441  1.6956  1.0570
34168SOL     OW12433   2.234   5.086   8.070  0.2122  0.5399 -0.5627
34168SOL    HW112434   2.171   5.119   8.006  1.0959  0.9227 -1.2566
34168SOL    HW212435   2.253   4.996   8.040  0.3548  0.5943 -0.6380
34169SOL     OW12436  12.209   1.516   8.422 -0.3436  0.2968 -0.4620
34169SOL    HW112437  12.128   1.522   8.372 -2.0745  2.6247  2.2986
34169SOL    HW212438  12.197   1.439   8.478  0.0255 -0.2271 -1.0973
34170SOL     OW12439   6.307  13.055   9.755 -0.3986  0.3921  0.0174
34170SOL    HW112440   6.339  13.135   9.797  0.4193  1.3871 -2.3872
34170SOL    HW212441   6.384  13.015   9.716 -0.5704 -2.2955  2.1375
34171SOL     OW12442  12.372   7.951   9.522  0.0599 -0.5099 -0.0781
34171SOL    HW112443  12.453   7.937   9.472 -0.6709  0.1266 -1.4855
34171SOL    HW212444  12.308   7.893   9.481 -0.6959  0.4328 -0.2666
34172SOL     OW12445   2.036   8.836   0.496  0.0379 -0.5561 -0.2034
34172SOL    HW112446   1.993   8.872   0.418 -1.6808  0.4688  1.1488
34172SOL    HW212447   2.013   8.743   0.495 -1.6901 -0.1629  0.1133
34173SOL     OW12448   3.604  12.084   0.909  0.0581  0.6542 -0.5444
34173SOL    HW112449   3.577  12.176   0.897 -0.1649  0.6821  0.0915
34173SOL    HW212450   3.561  12.037   0.838 -0.2524  0.9711 -0.5707
34174SOL     OW12451   5.588   5.161   0.105  0.4589 -0.0427  0.6715
34174SOL    HW112452   5.499   5.133   0.085  1.2983 -3.4129  1.0212
34174SOL    HW212453   5.626   5.183   0.020  0.1159 -1.3985  0.1443
34175SOL     OW12454  11.796   0.445   2.153  0.1970  0.7819 -0.0068
34175SOL    HW112455  11.771   0.352   2.150  0.4773  0.7236 -0.8388
34175SOL    HW212456  11.890   0.445   2.139  0.6733  1.0365  2.7304
34176SOL     OW12457   0.021   2.188   7.824  0.4076  0.5416  0.7067
34176SOL    HW112458   0.019   2.275   7.864  2.0043  1.6547 -1.4771
34176SOL    HW212459   0.075   2.198   7.746 -2.0877 -1.6275 -1.5162
34177SOL     OW12460  12.505  13.264   6.819 -0.1261 -0.0817  0.2737
34177SOL    HW112461  12.572  13.196   6.827  1.9601  1.5203 -1.9957
34177SOL    HW212462  12.496  13.300   6.907  3.2760  0.6696  0.4368
34178SOL     OW12463   0.719   3.551   4.774  0.5179  0.2509  0.3493
34178SOL    HW112464   0.742   3.458   4.772 -1.4849 -0.2826 -0.0192
34178SOL    HW212465   0.696   3.571   4.683 -0.7190  0.6322  0.7288
34179SOL     OW12466  11.759   5.256   7.277 -0.1996 -0.0424 -0.0917
34179SOL    HW112467  11.703   5.278   7.203  0.9142  0.9788 -0.6675
34179SOL    HW212468  11.748   5.328   7.339 -0.2592 -0.3251  0.2333
34180SOL     OW12469  13.302   6.481   1.550 -0.0407 -0.6012  0.2751
34180SOL    HW112470  13.386   6.504   1.510  0.2232 -0.3461  0.9438
34180SOL    HW212471  13.301   6.531   1.632 -1.2166  0.0238 -0.1078
34181SOL     OW12472   7.446   8.004   2.157  0.0039 -0.6377  0.1040
34181SOL    HW112473   7.490   8.030   2.076  0.8706  0.2697  0.8329
34181SOL    HW212474   7.371   8.064   2.163  0.4206 -0.1337  0.3849
34182SOL     OW12475   1.389   1.393  11.465  0.2675 -0.4895 -0.1575
34182SOL    HW112476   1.299   1.370  11.487  0.1503  1.7653  2.0608
34182SOL    HW212477   1.385   1.484  11.435  1.6951 -0.7043 -1.1535
34183SOL     OW12478   9.121  12.935   1.402  0.6873  0.3546  0.0249
34183SOL    HW112479   9.098  12.842   1.402  2.1337 -0.0430  1.5436
34183SOL    HW212480   9.041  12.979   1.372  0.8728 -1.5223 -3.7638
34184SOL     OW12481   4.322   3.046   6.997  0.6368  0.4486  0.4763
34184SOL    HW112482   4.326   3.122   6.939  0.3377  0.6941  0.7746
34184SOL    HW212483   4.233   3.013   6.986  0.3499  0.9117  1.3122
34185SOL     OW12484   0.286   1.280   8.398  0.3918 -0.2882  0.4513
34185SOL    HW112485   0.376   1.310   8.413  0.9043 -2.6898  2.9087
34185SOL    HW212486   0.233   1.336   8.454  0.1555  1.5860 -1.5049
34186SOL     OW12487  13.100   0.942   2.969 -0.2129 -0.2605  0.0122
34186SOL    HW112488  13.183   0.974   3.005 -0.5485 -0.6405  1.1720
34186SOL    HW212489  13.077   0.869   3.025 -0.6887 -0.9952 -1.1124
34187SOL     OW12490  10.472   6.544  11.511  0.0401  0.0897 -0.1323
34187SOL    HW112491  10.385   6.506  11.520 -0.4393  0.9838 -0.7733
34187SOL    HW212492  10.513   6.494  11.440 -0.0046 -0.2272  0.0629
34188SOL     OW12493   6.613   0.319   5.634  0.3910 -0.1415 -0.2161
34188SOL    HW112494   6.692   0.271   5.662  1.1913  0.3755 -1.5024
34188SOL    HW212495   6.589   0.371   5.710  2.3692  1.0576 -0.3239
34189SOL     OW12496  11.270  10.362   8.488  0.0368  0.1911 -0.9660
34189SOL    HW112497  11.352  10.377   8.535  0.5156 -0.1137 -1.6917
34189SOL    HW212498  11.271  10.268   8.468 -0.7032  0.0983 -0.5846
34190SOL     OW12499  11.558   3.102   4.376 -0.2008  0.0098 -0.1150
34190SOL    HW112500  11.580   3.192   4.400 -0.6102 -0.1145  0.7637
34190SOL    HW212501  11.590   3.049   4.449 -2.4988 -0.2668  0.7615
34191SOL     OW12502   5.226   5.365   2.537 -0.1505 -0.8460  0.2482
34191SOL    HW112503   5.286   5.436   2.559 -0.6931 -0.0502 -0.7677
34191SOL    HW212504   5.173   5.353   2.615 -0.6629  0.4988  0.1166
34192SOL     OW12505   7.047   2.290   0.068 -0.1912 -0.4709  0.0447
34192SOL    HW112506   6.976   2.293   0.003 -0.3533  1.2249  0.2546
34192SOL    HW212507   7.010   2.333   0.145  0.8196 -0.2893  0.4337
34193SOL     OW12508   7.032   9.070   8.219 -0.4346  0.0764 -0.1488
34193SOL    HW112509   7.115   9.024   8.231 -0.4628  0.0919  0.1151
34193SOL    HW212510   6.979   9.009   8.167 -0.4276 -0.1371  0.0928
34194SOL     OW12511   9.562  12.834   0.943  0.3157 -0.2610  0.0833
34194SOL    HW112512   9.545  12.851   1.035  1.1527  0.2939  0.1424
34194SOL    HW212513   9.511  12.756   0.923  1.0221 -1.0631  1.3082
34195SOL     OW12514   3.041   2.786   8.455  0.4483 -0.1055 -0.2385
34195SOL    HW112515   2.974   2.852   8.471  1.2386  0.6211  0.1028
34195SOL    HW212516   2.997   2.703   8.474 -0.4109  0.3428 -0.2169
34196SOL     OW12517  11.136   7.952  10.806  0.2492  0.2829  0.6336
34196SOL    HW112518  11.189   7.916  10.877 -0.9080 -0.8023  0.9811
34196SOL    HW212519  11.150   7.892  10.733 -1.3816 -0.7171  1.0910
34197SOL     OW12520  10.026   5.658   3.671  0.3257 -0.1579 -0.1635
34197SOL    HW112521   9.934   5.640   3.652  1.1593 -1.6416 -3.4920
34197SOL    HW212522  10.043   5.744   3.633  0.8662 -1.0789 -2.1661
34198SOL     OW12523   9.808   5.354   0.997  0.1095 -0.4916  0.8301
34198SOL    HW112524   9.880   5.413   0.974 -1.2275  0.7052 -0.4687
34198SOL    HW212525   9.846   5.266   0.989  1.6586  0.1215  1.0871
34199SOL     OW12526   7.694   7.493   3.324  0.0265  0.2580 -0.3413
34199SOL    HW112527   7.614   7.540   3.300  0.9702  1.5242 -1.1153
34199SOL    HW212528   7.700   7.420   3.262 -0.6849 -0.0532 -0.0584
34200SOL     OW12529   6.492   0.906   2.038  0.2004  0.4148 -0.4336
34200SOL    HW112530   6.425   0.885   1.973 -0.7218  1.2477  0.2383
34200SOL    HW212531   6.519   0.995   2.017 -0.0265  0.6507  0.2469
34201SOL     OW12532   5.534   4.463   2.067 -0.1218  0.8146 -0.3074
34201SOL    HW112533   5.588   4.384   2.072 -1.9970 -0.7542 -2.5935
34201SOL    HW212534   5.597   4.535   2.066  1.7728 -0.7511 -0.3023
34202SOL     OW12535   8.261   9.483   4.468  0.8237  0.5603  0.4798
34202SOL    HW112536   8.297   9.415   4.525 -2.8852 -2.9371 -0.8984
34202SOL    HW212537   8.222   9.546   4.528  0.0058 -1.1949  1.8784
34203SOL     OW12538   7.961   0.473   7.994  0.2463 -0.0767  0.1443
34203SOL    HW112539   7.989   0.431   7.913  1.6571 -1.6481  1.3669
34203SOL    HW212540   8.014   0.431   8.062 -0.0817  1.9756  1.7619
34204SOL     OW12541  13.028  11.756   7.375 -0.4151  0.3418 -0.4536
34204SOL    HW112542  13.114  11.797   7.369 -0.5102  0.9925  1.7290
34204SOL    HW212543  13.037  11.673   7.330  1.3497  0.4216 -0.3097
34205SOL     OW12544   4.604   9.260   9.127  0.2382  0.4128 -0.1617
34205SOL    HW112545   4.526   9.259   9.070 -0.3237  1.2422  0.5618
34205SOL    HW212546   4.569   9.279   9.214  1.1872  0.0900  0.2983
34206SOL     OW12547  11.109   2.780  10.028  0.4281 -0.3077  0.0751
34206SOL    HW112548  11.131   2.686  10.025 -1.0755 -0.6921  0.2736
34206SOL    HW212549  11.025   2.783  10.074  0.7389  1.2090  0.5885
34207SOL     OW12550   9.424  12.554   3.417  0.1458  0.2420  0.2071
34207SOL    HW112551   9.363  12.524   3.485  0.0832 -0.8895 -0.3281
34207SOL    HW212552   9.490  12.485   3.412  0.9095  0.9641  0.0457
34208SOL     OW12553   6.327  12.508   0.735  0.3082  0.5824  0.2270
34208SOL    HW112554   6.411  12.493   0.693  1.2046  1.9685  1.4301
34208SOL    HW212555   6.328  12.601   0.759 -1.3330  0.5024  0.7732
34209SOL     OW12556   2.007   1.245   2.013 -0.0559 -0.3085  0.2661
34209SOL    HW112557   2.005   1.292   2.097  0.5720  0.0913  0.0649
34209SOL    HW212558   2.013   1.153   2.037 -0.8251 -0.2637  0.6668
34210SOL     OW12559   8.433   1.931  12.301  0.2586  0.4455 -0.2674
34210SOL    HW112560   8.471   1.855  12.257  2.4159  0.5977  1.1435
34210SOL    HW212561   8.505   1.965  12.355 -1.7884  1.1052  2.2281
34211SOL     OW12562   3.479   5.969   2.123  0.0337  0.1355  0.2743
34211SOL    HW112563   3.471   5.925   2.207 -1.0026 -0.3589 -0.0648
34211SOL    HW212564   3.414   6.039   2.126  0.1200  0.2313 -0.0403
34212SOL     OW12565  10.580   6.470   0.458  0.3565  0.8108  0.1878
34212SOL    HW112566  10.598   6.493   0.549  0.5538  0.7160  0.1736
34212SOL    HW212567  10.487   6.448   0.457  0.2148  1.3900  0.2440
34213SOL     OW12568   9.263  13.024   1.190  0.0991  0.1365 -0.0027
34213SOL    HW112569   9.350  12.986   1.189  0.5341  0.8900  2.2959
34213SOL    HW212570   9.231  13.008   1.279 -1.7781  0.5957 -0.5413
34214SOL     OW12571   5.386   6.882   3.802  0.5195 -0.1377  0.1925
34214SOL    HW112572   5.336   6.857   3.880  1.5356 -1.0318  0.6031
34214SOL    HW212573   5.388   6.977   3.803 -2.6362  0.0372 -0.8315
34215SOL     OW12574  11.905  10.007  13.121 -0.8221  0.6533 -0.2538
34215SOL    HW112575  11.830  10.034  13.068  0.3527  1.0251 -1.7614
34215SOL    HW212576  11.981  10.017  13.064  0.4248  0.4640  1.2944
34216SOL     OW12577   0.096   0.628   3.915 -0.8762 -0.0188 -0.9141
34216SOL    HW112578   0.152   0.638   3.992 -0.1400  0.8315 -1.5294
34216SOL    HW212579   0.018   0.680   3.934  0.1490  1.8016 -1.4960
34217SOL     OW12580   8.259   4.814  10.439  0.3499 -0.9444  0.3190
34217SOL    HW112581   8.313   4.857  10.505 -0.4457 -2.0652  1.7877
34217SOL    HW212582   8.321   4.787  10.371  1.0090  1.4080 -0.0904
34218SOL     OW12583   1.469  11.062  11.985  0.6915 -0.1324  0.1931
34218SOL    HW112584   1.482  10.987  12.044  0.1078 -0.3162  0.0945
34218SOL    HW212585   1.385  11.045  11.943  0.0885  1.0319  0.8600
34219SOL     OW12586   9.535  10.424  11.954 -0.6946  0.9630 -0.3649
34219SOL    HW112587   9.580  10.384  11.880 -0.7534  0.6765 -0.2493
34219SOL    HW212588   9.605  10.460  12.009 -0.5756  0.0926  0.0613
34220SOL     OW12589   2.343   6.479   6.155 -0.1968  0.6325 -0.7290
34220SOL    HW112590   2.401   6.410   6.188 -0.1113  0.8244 -0.4772
34220SOL    HW212591   2.256   6.455   6.187 -0.1907  0.5633 -0.7634
34221SOL     OW12592   1.050   9.931  11.390  0.3823 -0.3364  0.0945
34221SOL    HW112593   0.961   9.927  11.358  0.4161 -0.2958 -0.0051
34221SOL    HW212594   1.103   9.893  11.320  0.7486  2.0940 -1.0531
34222SOL     OW12595   4.261   2.298   7.689 -0.1736  0.1434  0.2553
34222SOL    HW112596   4.353   2.326   7.694  0.7022 -2.0699 -1.7877
34222SOL    HW212597   4.262   2.208   7.722 -1.8977  0.5045  1.4138
34223SOL     OW12598   7.434   8.153   7.227 -0.5284  0.4447 -0.3241
34223SOL    HW112599   7.372   8.183   7.160 -1.2389  0.5112  0.3386
34223SOL    HW212600   7.479   8.079   7.186 -0.7981  0.6125 -0.9468
34224SOL     OW12601  11.736  11.852   9.776  0.4270 -0.2150 -0.9796
34224SOL    HW112602  11.725  11.947   9.784  1.5833 -0.1566  0.3147
34224SOL    HW212603  11.734  11.820   9.866 -0.5391 -1.5195 -1.4242
34225SOL     OW12604   5.070  10.887   4.825 -0.0819  0.3149 -0.0727
34225SOL    HW112605   5.087  10.823   4.894 -3.0066 -0.0213  0.4446
34225SOL    HW212606   5.071  10.835   4.744 -0.2472  0.0363  0.1041
34226SOL     OW12607   6.025  11.730  10.984  0.0531 -0.2716 -0.3422
34226SOL    HW112608   6.031  11.725  10.889  0.3333  0.7536 -0.3988
34226SOL    HW212609   6.102  11.782  11.010 -0.8471  0.7925  0.2900
34227SOL     OW12610  11.493  10.137   6.455 -0.0913  0.2629  0.2067
34227SOL    HW112611  11.441  10.173   6.383  0.1936  1.6521  0.6717
34227SOL    HW212612  11.450  10.170   6.534  1.9320  2.1724  0.5964
34228SOL     OW12613  12.420   8.081   0.723 -0.6129  0.1536  0.1519
34228SOL    HW112614  12.372   8.017   0.670 -0.1789  0.9914 -1.3314
34228SOL    HW212615  12.479   8.029   0.777 -1.5484 -0.7691  0.3053
34229SOL     OW12616   4.006   0.987   0.501  0.0002  0.1653 -0.4974
34229SOL    HW112617   3.918   1.026   0.504 -0.2843 -0.3222  3.5468
34229SOL    HW212618   4.065   1.062   0.496 -0.6320  0.7624  0.5913
34230SOL     OW12619   0.708   1.251   2.761  0.5387 -0.2619 -0.2445
34230SOL    HW112620   0.614   1.266   2.758  0.2281 -1.8642  0.6375
34230SOL    HW212621   0.734   1.241   2.669 -0.1304  0.2058 -0.4925
34231SOL     OW12622  12.742   3.602   9.809  0.1926  0.0276 -0.4720
34231SOL    HW112623  12.702   3.605   9.896 -1.3786  0.3316 -1.1823
34231SOL    HW212624  12.832   3.571   9.825  0.1643  0.7733  1.3251
34232SOL     OW12625   6.433   5.093  11.979  0.5878  0.0438  0.2380
34232SOL    HW112626   6.356   5.038  11.991  1.1853 -0.5782  1.5117
34232SOL    HW212627   6.429   5.156  12.051  1.5433 -0.3580  0.6644
34233SOL     OW12628   2.104   5.905   6.097  0.0670  0.2755  0.4681
34233SOL    HW112629   2.108   5.839   6.165  1.3843  1.8548  2.0042
34233SOL    HW212630   2.195   5.925   6.076 -0.2275  2.4328  0.9570
34234SOL     OW12631   7.487  12.812  12.256 -0.5070  0.2609  0.3415
34234SOL    HW112632   7.506  12.905  12.270  0.9979  0.2192 -1.0941
34234SOL    HW212633   7.528  12.768  12.331 -0.5137  0.6776  0.5950
34235SOL     OW12634   8.290   1.121  12.375  0.1982 -0.0639 -0.2126
34235SOL    HW112635   8.241   1.202  12.357  0.7191 -0.1905 -2.5794
34235SOL    HW212636   8.231   1.051  12.347  0.1696 -0.4549  0.8038
34236SOL     OW12637   4.924   4.817   5.231 -0.3303  0.5752 -0.2037
34236SOL    HW112638   4.940   4.766   5.151  0.2334  0.6013 -0.1134
34236SOL    HW212639   4.921   4.908   5.202  1.6581  0.7594  0.0161
34237SOL     OW12640   2.496   8.952   7.327  0.0802  0.7048  0.2832
34237SOL    HW112641   2.536   8.893   7.391  0.8183  0.7695 -0.1021
34237SOL    HW212642   2.416   8.983   7.369  0.4980  0.6591  1.1213
34238SOL     OW12643  12.757   0.805   1.950 -0.3201  0.0725  0.2396
34238SOL    HW112644  12.842   0.836   1.979 -0.4440  1.1441 -0.4770
34238SOL    HW212645  12.710   0.784   2.030  1.0347 -1.7940  0.6249
34239SOL     OW12646   4.737  10.562  10.609  0.5991  0.5411 -0.2028
34239SOL    HW112647   4.782  10.571  10.693 -0.3391  2.1203  0.1685
34239SOL    HW212648   4.689  10.644  10.598 -0.3691 -0.1682 -1.6621
34240SOL     OW12649  12.534  10.206   5.993 -0.6061 -0.4226  0.1010
34240SOL    HW112650  12.506  10.153   5.919 -0.0758  1.7963 -1.7867
34240SOL    HW212651  12.630  10.210   5.985 -0.6574  1.0675 -0.0033
34241SOL     OW12652   8.838  11.039  12.225  0.1040  0.7956 -0.1346
34241SOL    HW112653   8.815  11.132  12.224 -0.0655  0.7830  1.1597
34241SOL    HW212654   8.872  11.022  12.137  0.0392  2.0483 -0.4229
34242SOL     OW12655   8.577   5.855   3.247  0.6597  0.2839  0.2165
34242SOL    HW112656   8.561   5.779   3.192  0.7682 -0.8244  1.6596
34242SOL    HW212657   8.571   5.822   3.337  0.3748  2.0381  0.8975
34243SOL     OW12658   6.755   3.062  10.280  0.0466  0.0237  0.2235
34243SOL    HW112659   6.802   2.978  10.281 -0.1205 -0.0661  0.7999
34243SOL    HW212660   6.665   3.039  10.304  0.1695  0.4685  1.1400
34244SOL     OW12661   0.470   9.575   7.185 -0.1283 -0.2759 -0.1672
34244SOL    HW112662   0.447   9.653   7.236  0.0096 -0.2625 -0.1229
34244SOL    HW212663   0.449   9.501   7.242  0.2962 -0.2530  0.0227
34245SOL     OW12664  12.585  12.174   3.568  0.1935  0.5922 -0.4149
34245SOL    HW112665  12.658  12.204   3.514  0.6032 -1.2508 -0.9615
34245SOL    HW212666  12.507  12.204   3.521  0.5241 -1.3077 -2.3426
34246SOL     OW12667   3.769   8.618   2.475 -0.2204  0.0109  0.0305
34246SOL    HW112668   3.796   8.653   2.390 -0.5444  0.0684 -0.0490
34246SOL    HW212669   3.711   8.545   2.453  0.0725 -0.2792  0.1998
34247SOL     OW12670   7.669   6.161   5.358 -0.1749 -0.4577 -0.1807
34247SOL    HW112671   7.581   6.128   5.379  0.4255 -1.0785  1.5257
34247SOL    HW212672   7.691   6.217   5.432  0.4435  0.6175 -1.1440
34248SOL     OW12673  10.791   9.714   4.056 -0.2389 -0.4619  0.7580
34248SOL    HW112674  10.817   9.805   4.068 -3.1677  0.7266 -1.0767
34248SOL    HW212675  10.860   9.664   4.100  2.2603  2.5297  0.5502
34249SOL     OW12676  12.776   0.986   1.518  0.4184 -0.7283  0.5120
34249SOL    HW112677  12.790   1.078   1.494  0.6570 -0.7662  0.4982
34249SOL    HW212678  12.727   0.990   1.600  0.6770 -0.5833  0.6610
34250SOL     OW12679   4.596  10.713  10.165  0.1078 -0.0875 -0.2797
34250SOL    HW112680   4.676  10.700  10.218 -0.6776  0.8585  1.2264
34250SOL    HW212681   4.618  10.786  10.107 -0.2447  1.5783  1.5552
34251SOL     OW12682   4.072   5.889   6.499 -0.3184 -0.3665 -0.3546
34251SOL    HW112683   4.086   5.932   6.415  1.4336 -1.5124 -0.7040
34251SOL    HW212684   4.158   5.854   6.522 -0.7042  0.1140  2.0432
34252SOL     OW12685   4.114  11.394  10.978  0.0259  0.1234  0.0257
34252SOL    HW112686   4.032  11.428  11.014 -0.8080 -2.0954  0.3659
34252SOL    HW212687   4.103  11.401  10.883 -0.5240 -0.1007  0.0709
34253SOL     OW12688  10.686   9.338   4.032 -0.0197 -0.6384 -0.1235
34253SOL    HW112689  10.644   9.424   4.034 -2.4094 -1.7012 -0.3062
34253SOL    HW212690  10.709   9.321   4.124  0.3329  0.1307 -0.0663
34254SOL     OW12691   3.451  12.998   0.342  0.5976  0.2261  0.3260
34254SOL    HW112692   3.391  12.972   0.412 -0.4581  0.2312 -0.5504
34254SOL    HW212693   3.406  12.973   0.261  1.8933  0.0062 -0.3519
34255SOL     OW12694   6.955   6.590   6.894 -0.3420  0.0422  0.3073
34255SOL    HW112695   6.865   6.568   6.920 -0.2218  0.4369  1.0785
34255SOL    HW212696   6.949   6.681   6.866 -0.5793 -0.5245 -1.6278
34256SOL     OW12697   9.045   4.358   2.879 -0.0965 -0.4919  0.1548
34256SOL    HW112698   8.991   4.410   2.938 -1.4324 -0.5518 -0.9619
34256SOL    HW212699   8.995   4.355   2.797  2.0220  0.1734 -1.2295
34257SOL     OW12700   6.502   8.706  12.566 -0.5330 -0.2128  0.4570
34257SOL    HW112701   6.437   8.676  12.629 -0.8230 -0.1056  0.2126
34257SOL    HW212702   6.575   8.646  12.576 -0.1204  0.4716  1.6840
34258SOL     OW12703   9.845   2.570   5.148 -0.0396  0.1751  0.0961
34258SOL    HW112704   9.813   2.552   5.237 -0.9311  0.6154 -0.1263
34258SOL    HW212705   9.936   2.539   5.149 -0.6330 -1.6757  0.5718
34259SOL     OW12706   8.594   3.177   2.644 -0.0832  0.1865  0.5643
34259SOL    HW112707   8.652   3.176   2.720  1.5141 -1.4222 -0.6030
34259SOL    HW212708   8.533   3.105   2.660  0.6252 -0.5307  0.0608
34260SOL     OW12709  10.467  11.200   4.161 -0.4357 -0.3587  0.5560
34260SOL    HW112710  10.552  11.220   4.200 -0.0352  0.1861 -0.5698
34260SOL    HW212711  10.435  11.125   4.211  0.9421 -0.9069  0.6535
34261SOL     OW12712   6.033   3.075  13.042 -0.0651  0.6166  0.1924
34261SOL    HW112713   5.966   3.133  13.007 -0.7474 -0.3174 -0.0933
34261SOL    HW212714   6.094   3.061  12.969  0.0791  0.9371  0.2503
34262SOL     OW12715  12.608   2.431   8.781 -0.1802 -0.0943 -0.8477
34262SOL    HW112716  12.574   2.399   8.698  0.0984 -0.2499 -0.9049
34262SOL    HW212717  12.611   2.526   8.771  0.0595 -0.1252 -1.1006
34263SOL     OW12718   4.189  10.936  11.024 -0.0682  0.2383  0.2373
34263SOL    HW112719   4.158  10.948  10.935  0.1387  1.0730  0.2685
34263SOL    HW212720   4.268  10.990  11.030 -0.0540  0.1617  0.9095
34264SOL     OW12721   9.209   2.234   2.817  0.0609 -0.3780 -0.9095
34264SOL    HW112722   9.136   2.180   2.844  0.9094 -0.0611  2.3600
34264SOL    HW212723   9.255   2.181   2.752 -0.9283 -2.1817 -0.2012
34265SOL     OW12724   2.910   0.004   0.184  0.4858 -0.3052  0.5252
34265SOL    HW112725   2.829   0.025   0.138  1.3570  0.6270 -0.6434
34265SOL    HW212726   2.927   0.079   0.241  1.1428  0.0631 -0.1383
34266SOL     OW12727   0.879   2.492  11.144  0.3313  0.2152 -0.7814
34266SOL    HW112728   0.913   2.553  11.079  1.7672 -1.5730 -1.7947
34266SOL    HW212729   0.950   2.431  11.160 -1.2416 -1.6010 -0.3132
34267SOL     OW12730   4.086   0.557   4.604 -0.0353 -0.1686  0.0928
34267SOL    HW112731   4.142   0.604   4.543  0.8637 -0.9671  0.2809
34267SOL    HW212732   4.134   0.476   4.623 -0.1980  0.1426  1.9923
34268SOL     OW12733   6.862   3.046   1.866 -0.1085  0.2404 -0.4184
34268SOL    HW112734   6.822   3.093   1.939  2.1014  0.4145  0.7569
34268SOL    HW212735   6.813   2.963   1.862 -1.3865  0.9326  0.1025
34269SOL     OW12736   6.697   8.788   1.041  0.2524  0.1905 -0.1695
34269SOL    HW112737   6.700   8.881   1.015  0.1004 -0.3318 -2.2960
34269SOL    HW212738   6.649   8.746   0.969 -2.0835 -1.1748  2.0184
34270SOL     OW12739  12.406   2.487  10.016  0.1764  0.1990  0.4065
34270SOL    HW112740  12.389   2.574   9.980 -0.7772 -0.2550 -0.3251
34270SOL    HW212741  12.398   2.429   9.940 -1.8634 -0.7986  1.2957
34271SOL     OW12742   7.897  10.883  12.488 -0.2527  0.4540 -0.0494
34271SOL    HW112743   7.876  10.880  12.581 -1.0383 -0.1029 -0.2382
34271SOL    HW212744   7.824  10.840  12.445  0.6366 -0.3369 -0.8319
34272SOL     OW12745   5.500   9.284   2.070  0.7206 -0.0671 -0.4911
34272SOL    HW112746   5.450   9.361   2.094 -0.1250 -0.5754 -0.5948
34272SOL    HW212747   5.526   9.245   2.154  0.0911 -0.3447 -0.4194
34273SOL     OW12748   8.466   7.839   7.902  0.4791 -0.2319  0.1759
34273SOL    HW112749   8.436   7.905   7.965 -1.5967  0.2577 -1.2440
34273SOL    HW212750   8.425   7.864   7.819  2.3678 -1.4088 -1.1884
34274SOL     OW12751  10.782   8.100  10.911  0.2542  0.2277 -0.5713
34274SOL    HW112752  10.800   8.145  10.828 -0.6089  1.2451 -0.2219
34274SOL    HW212753  10.778   8.007  10.886  0.9409  0.4250 -1.4996
34275SOL     OW12754   5.366   9.182   1.555  0.0151  0.0579  0.3543
34275SOL    HW112755   5.377   9.185   1.650 -0.0953  0.6888  0.3503
34275SOL    HW212756   5.406   9.263   1.524  0.0424 -0.1409 -0.1422
34276SOL     OW12757  11.837   5.586  10.724  0.0537  0.4562  0.0285
34276SOL    HW112758  11.812   5.567  10.814  2.3271  0.6099  0.7683
34276SOL    HW212759  11.807   5.511  10.674 -2.3083  0.9136  0.6623
34277SOL     OW12760   3.359   7.745  12.778  0.5392 -0.3561  0.2914
34277SOL    HW112761   3.314   7.718  12.859 -1.7214  0.9666 -0.4444
34277SOL    HW212762   3.351   7.669  12.720 -0.0923 -0.4105  0.4446
34278SOL     OW12763  12.247  11.862  12.726  0.4788  0.1418  0.0595
34278SOL    HW112764  12.216  11.774  12.705 -2.3066  0.2720  2.8296
34278SOL    HW212765  12.273  11.899  12.642 -1.9794 -1.9991 -1.8234
34279SOL     OW12766   0.157  11.703   6.709 -0.1149  0.2686 -0.0157
34279SOL    HW112767   0.242  11.745   6.695  2.0574 -2.8633  2.5546
34279SOL    HW212768   0.153  11.635   6.642 -0.2095 -0.1414  0.4063
34280SOL     OW12769   2.389   9.084   4.353 -0.1406 -0.4233 -0.2232
34280SOL    HW112770   2.355   9.049   4.435  0.4785  1.9338  1.1331
34280SOL    HW212771   2.473   9.039   4.341  0.3098  0.0273  1.0813
34281SOL     OW12772   6.147   5.641   7.953 -0.1395 -0.1103 -0.6316
34281SOL    HW112773   6.105   5.569   7.998  1.1902 -1.0780 -0.8868
34281SOL    HW212774   6.147   5.615   7.861 -2.8500  1.8510 -1.3086
34282SOL     OW12775   3.726   2.730   0.707  0.0927  0.5226 -0.7167
34282SOL    HW112776   3.808   2.685   0.684  0.2705  0.4960 -0.0622
34282SOL    HW212777   3.753   2.797   0.770 -0.3993  0.4359 -0.4075
34283SOL     OW12778   4.039   0.109   0.784 -0.1141 -0.2011  0.3257
34283SOL    HW112779   4.030   0.045   0.855  0.0029  0.7620  1.2328
34283SOL    HW212780   4.114   0.162   0.809  0.8651 -0.7491 -1.2700
34284SOL     OW12781   1.416  11.195   7.529 -0.2182  0.1643 -0.5447
34284SOL    HW112782   1.370  11.232   7.454  0.3863 -0.4096 -1.2142
34284SOL    HW212783   1.359  11.126   7.561 -0.1058 -0.1461 -1.0022
34285SOL     OW12784   7.345   6.074   6.887 -0.2106 -0.0489  0.0227
34285SOL    HW112785   7.316   6.165   6.897  1.7257  0.4721  1.4536
34285SOL    HW212786   7.430   6.082   6.843  1.0590 -0.9651  2.1991
34286SOL     OW12787   9.161   3.957   5.810  0.0666 -0.0271 -0.5036
34286SOL    HW112788   9.132   4.036   5.855  0.5499  0.6179 -1.2873
34286SOL    HW212789   9.151   3.978   5.717 -0.3605 -1.1102 -0.7113
34287SOL     OW12790  12.274   3.486  10.482  0.2906  0.5109 -0.0000
34287SOL    HW112791  12.318   3.568  10.458  0.4135 -0.0268 -1.7669
34287SOL    HW212792  12.342   3.419  10.471  0.2658  0.1603  1.6705
34288SOL     OW12793  11.041   1.887  11.395 -0.4095  0.0355 -0.1012
34288SOL    HW112794  11.041   1.833  11.473 -1.7975  0.7621  0.4487
34288SOL    HW212795  10.959   1.937  11.400 -0.3790  0.3476 -1.8478
34289SOL     OW12796  12.060   7.391   2.142  0.0373  0.0609 -0.0831
34289SOL    HW112797  12.154   7.374   2.137  0.0697  0.4758 -1.1201
34289SOL    HW212798  12.050   7.481   2.111 -0.3689  1.2611  3.1632
34290SOL     OW12799   0.697   0.227   8.278 -0.0442  0.7879  0.4040
34290SOL    HW112800   0.742   0.162   8.332  0.5335 -0.4702 -1.4650
34290SOL    HW212801   0.622   0.180   8.241 -0.6622  1.7340  0.4230
34291SOL     OW12802   2.737   0.844   2.899 -0.1521  0.2894  0.2203
34291SOL    HW112803   2.786   0.855   2.817 -0.3832  0.5647  0.1162
34291SOL    HW212804   2.778   0.769   2.942 -1.1177 -0.9439 -0.9354
34292SOL     OW12805  12.811   6.342  12.361 -0.3835  0.1538 -0.0226
34292SOL    HW112806  12.832   6.394  12.283 -1.7366 -1.0229 -1.2386
34292SOL    HW212807  12.811   6.251  12.330  2.2341 -0.6765  2.1316
34293SOL     OW12808   3.661   3.506   7.201  0.0326 -0.8309  0.0881
34293SOL    HW112809   3.634   3.527   7.290  1.3897 -1.3832  0.6605
34293SOL    HW212810   3.581   3.477   7.157 -0.8978  0.6368  0.7321
34294SOL     OW12811   6.701   3.177  11.426 -0.1617 -0.1540 -0.8572
34294SOL    HW112812   6.611   3.202  11.443 -0.2549 -0.6442 -0.6195
34294SOL    HW212813   6.753   3.236  11.481 -0.3382  0.0800 -0.9399
34295SOL     OW12814   8.274   3.026  12.480 -0.4113  0.4887 -0.2351
34295SOL    HW112815   8.351   3.079  12.464 -1.1235  1.4227 -0.6383
34295SOL    HW212816   8.309   2.938  12.496  0.6144  0.2535 -3.1070
34296SOL     OW12817  11.210   2.861   6.578 -0.4703  0.3685  0.2293
34296SOL    HW112818  11.258   2.779   6.589 -1.3459 -0.0024  1.4634
34296SOL    HW212819  11.119   2.838   6.595 -0.7285  1.6086  0.6281
34297SOL     OW12820   2.091  11.546  10.629 -0.7258  0.0737  0.1638
34297SOL    HW112821   2.069  11.587  10.712 -0.0569  0.7190  0.0353
34297SOL    HW212822   2.054  11.458  10.635 -0.6904  0.1113  1.1403
34298SOL     OW12823   5.881  12.355   2.919 -0.4763 -0.0474  0.3954
34298SOL    HW112824   5.952  12.368   2.982 -1.1654  1.3523  0.9279
34298SOL    HW212825   5.814  12.308   2.968 -0.1652 -0.8554  0.0618
34299SOL     OW12826   7.272   3.082   0.726 -0.0818  0.0926  0.1939
34299SOL    HW112827   7.364   3.091   0.700  0.0862 -2.2082 -0.2304
34299SOL    HW212828   7.267   2.996   0.766 -1.8368  0.6842  1.3706
34300SOL     OW12829   6.429   9.151  12.621  0.1279 -0.1278 -0.2210
34300SOL    HW112830   6.499   9.095  12.586  1.2699  0.3947  1.1439
34300SOL    HW212831   6.454   9.240  12.594 -0.7171 -0.0667 -0.8367
34301SOL     OW12832   5.844  13.076   8.298 -0.0584 -0.3438  0.4667
34301SOL    HW112833   5.757  13.109   8.320 -0.4421 -1.5047  0.7209
34301SOL    HW212834   5.889  13.152   8.260 -1.2115  0.2428  0.2237
34302SOL     OW12835   1.264   9.648   0.272  0.3436 -0.8644 -0.2917
34302SOL    HW112836   1.249   9.554   0.277  0.3830 -0.9194 -1.0997
34302SOL    HW212837   1.355   9.660   0.299 -0.2239 -0.8361  1.7754
34303SOL     OW12838  12.872   0.831  11.382  0.6542 -0.1849 -0.3877
34303SOL    HW112839  12.862   0.926  11.393 -0.2017 -0.4164  1.1096
34303SOL    HW212840  12.941   0.806  11.443 -0.7031 -0.8247  0.9323
34304SOL     OW12841   1.800  12.012   0.517 -0.1064  0.0191 -0.5683
34304SOL    HW112842   1.793  11.918   0.537  1.4597 -0.0235 -0.0622
34304SOL    HW212843   1.865  12.044   0.579  0.3475  1.1779 -1.6115
34305SOL     OW12844   4.505   3.265  12.215  0.0097 -0.2561  0.3564
34305SOL    HW112845   4.441   3.245  12.146  0.3041  2.2723 -0.7667
34305SOL    HW212846   4.558   3.185  12.222  1.2782 -0.0521 -3.9054
34306SOL     OW12847  10.917   6.723   5.488  0.3208 -0.0266  0.1532
34306SOL    HW112848  10.865   6.780   5.545  0.2791 -0.7413  0.8435
34306SOL    HW212849  11.008   6.748   5.507  0.2832  0.2139  0.0191
34307SOL     OW12850   2.251   7.213   7.790  0.2569 -0.2531 -0.2029
34307SOL    HW112851   2.161   7.223   7.823  0.3979 -0.8308  0.3790
34307SOL    HW212852   2.297   7.290   7.822  0.2110 -0.4542  0.3656
34308SOL     OW12853   5.422   9.074   3.649  0.2696  0.0923  0.4828
34308SOL    HW112854   5.333   9.059   3.682  0.1738 -0.6621 -0.1055
34308SOL    HW212855   5.476   9.011   3.697  0.3701  0.0488  0.3149
34309SOL     OW12856   6.508   5.746   3.690  0.0543  0.5601  0.5008
34309SOL    HW112857   6.584   5.803   3.705  0.4170 -0.0017  0.8649
34309SOL    HW212858   6.439   5.805   3.659  0.3264  1.2520  1.1598
34310SOL     OW12859  10.466  11.221   2.756  0.6218 -0.6392 -0.0525
34310SOL    HW112860  10.445  11.195   2.846  0.1263  1.3524  0.4458
34310SOL    HW212861  10.387  11.199   2.706 -0.2914  0.9708  0.6044
34311SOL     OW12862   9.930  10.119   1.307  0.1338 -0.0106 -0.1514
34311SOL    HW112863  10.018  10.097   1.338  0.4308  0.8322 -0.3715
34311SOL    HW212864   9.913  10.206   1.343 -0.2872  0.1717 -0.7771
34312SOL     OW12865   0.514   5.994   9.427  0.3967 -0.0394 -0.3122
34312SOL    HW112866   0.519   6.085   9.399 -1.6443 -0.5604 -2.6613
34312SOL    HW212867   0.583   5.949   9.377 -0.4644 -0.2372 -1.3513
34313SOL     OW12868  11.113   4.655  11.720 -0.1938 -0.2285  0.4247
34313SOL    HW112869  11.111   4.564  11.691  0.3663 -0.5695  1.4094
34313SOL    HW212870  11.187   4.659  11.780 -0.8170  0.6427  1.1559
34314SOL     OW12871   0.298   2.456   8.306 -0.3477 -0.9823  0.0843
34314SOL    HW112872   0.235   2.528   8.302 -0.4161 -1.0573 -0.1650
34314SOL    HW212873   0.333   2.449   8.217 -0.9236 -1.7773 -0.0929
34315SOL     OW12874  12.035   2.568  10.388 -0.0993  0.0653  0.0871
34315SOL    HW112875  12.096   2.533  10.322  0.2036  1.6520 -0.5172
34315SOL    HW212876  12.063   2.527  10.470  1.3661  0.2427 -0.2946
34316SOL     OW12877   7.513   8.624   2.368  0.2230  0.4593  0.2099
34316SOL    HW112878   7.525   8.683   2.293  0.4575 -1.3224 -1.2250
34316SOL    HW212879   7.423   8.593   2.359  0.6806 -0.8012 -0.1394
34317SOL     OW12880   5.455   1.958  12.863 -0.3329  0.4558  0.1014
34317SOL    HW112881   5.482   1.942  12.954  0.3447  1.1238  0.0268
34317SOL    HW212882   5.529   2.006  12.824 -0.2008 -0.6492 -1.0760
34318SOL     OW12883  12.267   3.503  11.693 -0.4632 -0.4554  0.5810
34318SOL    HW112884  12.353   3.543  11.678 -2.2750  2.7803 -2.6542
34318SOL    HW212885  12.283   3.409  11.685  2.8349 -0.0454  0.8162
34319SOL     OW12886   1.951   1.770   3.331  0.0494  0.4409  0.1715
34319SOL    HW112887   1.987   1.852   3.365 -0.0816  1.6597 -2.4482
34319SOL    HW212888   1.861   1.768   3.364 -0.3379  1.9947 -0.7156
34320SOL     OW12889   6.699  12.495   5.219 -0.0506  0.0598 -0.2670
34320SOL    HW112890   6.741  12.563   5.166  0.1545 -0.3601 -0.6517
34320SOL    HW212891   6.719  12.413   5.173  1.4381 -0.4898  1.2768
34321SOL     OW12892   0.023   9.238   3.450  0.0795  0.3955  0.6175
34321SOL    HW112893  -0.001   9.329   3.470  1.1039  0.7202  0.4393
34321SOL    HW212894   0.108   9.226   3.492  0.2692 -0.2670  0.0533
34322SOL     OW12895   5.834   2.443   9.930 -0.1883  0.0839 -0.1145
34322SOL    HW112896   5.751   2.447   9.976 -0.4209  0.3493 -0.5562
34322SOL    HW212897   5.828   2.365   9.874 -0.2870  0.3095 -0.4223
34323SOL     OW12898  11.872  11.389   3.655 -0.2072 -0.0285  0.2477
34323SOL    HW112899  11.815  11.320   3.689 -0.0587 -0.0949  0.3646
34323SOL    HW212900  11.891  11.443   3.732 -1.6169  1.0821 -0.1281
34324SOL     OW12901   3.073   5.499   5.714  0.2588 -0.3672 -0.3208
34324SOL    HW112902   3.071   5.452   5.631  0.3533 -0.0796 -0.4870
34324SOL    HW212903   2.986   5.485   5.752  0.2847 -0.6712 -0.3704
34325SOL     OW12904   7.131   0.002   6.418  0.2993 -0.4961 -0.1504
34325SOL    HW112905   7.072  -0.020   6.346 -0.8358  1.3099  0.1563
34325SOL    HW212906   7.091  -0.036   6.496 -0.6087  0.8524  0.0808
34326SOL     OW12907   0.691  11.856   7.115 -0.0051  0.5944 -0.3174
34326SOL    HW112908   0.638  11.826   7.189  0.2796  1.5862  0.2915
34326SOL    HW212909   0.695  11.779   7.057  0.7437 -0.5691  1.2111
34327SOL     OW12910   4.899   3.277  11.056  0.1571 -0.4690 -0.2774
34327SOL    HW112911   4.936   3.207  11.002  2.0656 -0.3893  0.8484
34327SOL    HW212912   4.975   3.318  11.098 -1.2070 -0.5129  2.4362
34328SOL     OW12913   4.008  11.549   0.453  0.0660 -0.3308  0.5634
34328SOL    HW112914   4.001  11.616   0.522  1.5073 -1.9222  2.3465
34328SOL    HW212915   4.024  11.468   0.500  0.7466 -1.5664 -1.6731
34329SOL     OW12916   8.852   2.609   2.555  0.7306 -0.3440  0.2032
34329SOL    HW112917   8.801   2.529   2.569  0.7751 -0.2757  0.7739
34329SOL    HW212918   8.809   2.674   2.609  1.0048 -0.1076  0.1348
34330SOL     OW12919   1.780   4.059  11.436  0.2203 -0.2067  0.0001
34330SOL    HW112920   1.815   4.147  11.420  2.2674 -0.9896 -0.1501
34330SOL    HW212921   1.856   4.009  11.466 -0.2886 -2.5343 -2.2678
34331SOL     OW12922   1.933  11.007   0.270  0.1592 -0.0759  0.3329
34331SOL    HW112923   1.843  11.001   0.304  0.6406  0.2922  1.7157
34331SOL    HW212924   1.926  11.067   0.196 -0.7606 -0.1772  0.3217
34332SOL     OW12925  12.102  10.627   1.398 -0.0639 -0.1502 -0.2880
34332SOL    HW112926  12.194  10.600   1.392  0.4514  1.3835  0.2031
34332SOL    HW212927  12.105  10.713   1.439 -1.5820  0.7791 -1.9866
34333SOL     OW12928   1.828   8.950  10.344  0.1064  0.1128 -0.0468
34333SOL    HW112929   1.743   8.914  10.317 -1.6270  1.2857  3.2896
34333SOL    HW212930   1.861   8.888  10.410  1.1276  0.4802 -0.1897
34334SOL     OW12931   9.752   0.720  10.736 -0.0296 -0.2881  0.2603
34334SOL    HW112932   9.756   0.625  10.749 -1.0533 -0.7827 -2.3537
34334SOL    HW212933   9.800   0.735  10.654 -2.0103  1.0591 -0.7306
34335SOL     OW12934   0.443   2.231   4.591  0.3712 -0.1323  0.1386
34335SOL    HW112935   0.392   2.306   4.621 -1.1080 -0.7846 -0.6304
34335SOL    HW212936   0.389   2.192   4.522  0.3663 -2.7672  1.4899
34336SOL     OW12937   6.891   3.766   4.048  0.2081 -0.4464 -0.5097
34336SOL    HW112938   6.825   3.707   4.085 -0.6221 -0.4695 -1.9581
34336SOL    HW212939   6.841   3.841   4.016  0.9405 -0.2068 -1.1313
34337SOL     OW12940   1.789  10.081  11.667 -0.2761 -0.3549  0.5673
34337SOL    HW112941   1.758   9.999  11.705  0.5059 -1.1858 -0.5081
34337SOL    HW212942   1.731  10.097  11.593 -1.2582  0.7929  1.5666
34338SOL     OW12943   9.280   7.408   8.263  0.9103 -0.5498  0.2439
34338SOL    HW112944   9.201   7.361   8.292  0.7008 -1.3089 -1.4248
34338SOL    HW212945   9.298   7.470   8.334  1.0774 -2.9474  2.4853
34339SOL     OW12946   5.597   5.052   5.057 -0.1245 -0.4307 -0.4357
34339SOL    HW112947   5.541   5.084   5.128  1.8128 -1.1252  1.5084
34339SOL    HW212948   5.660   5.123   5.043 -0.6158 -0.2096 -1.6741
34340SOL     OW12949   8.713  10.372   1.574  0.7010  0.3282 -0.3798
34340SOL    HW112950   8.727  10.407   1.485  0.2581 -0.6747 -0.8581
34340SOL    HW212951   8.756  10.287   1.572 -0.9835 -0.5613 -0.2581
34341SOL     OW12952  13.038   5.528   3.076  0.0188  0.4043  0.0631
34341SOL    HW112953  12.958   5.513   3.126 -0.0734  1.7540  0.3583
34341SOL    HW212954  13.037   5.460   3.008 -1.7445  0.8237 -0.3748
34342SOL     OW12955   5.654   5.706   1.030 -0.2735  0.4295 -0.0234
34342SOL    HW112956   5.697   5.744   1.106  2.6281 -1.5442 -0.5026
34342SOL    HW212957   5.681   5.763   0.957 -2.4364  1.8833  0.2344
34343SOL     OW12958   8.227   1.536  11.095 -0.1159  0.2447 -0.1451
34343SOL    HW112959   8.170   1.474  11.141  1.1993  0.0377  1.2958
34343SOL    HW212960   8.245   1.495  11.011 -0.4892 -0.6163  0.1799
34344SOL     OW12961   5.911   1.213   3.661  0.3332 -0.1998  0.0233
34344SOL    HW112962   5.994   1.231   3.706 -0.9872 -1.9403  3.5515
34344SOL    HW212963   5.866   1.150   3.718 -3.5540  0.8454 -1.5478
34345SOL     OW12964   3.509   3.080   5.217 -0.6663 -0.4185  0.1922
34345SOL    HW112965   3.547   3.033   5.291  0.6084 -1.0739 -0.8221
34345SOL    HW212966   3.544   3.034   5.140 -1.3396  0.7052 -0.8140
34346SOL     OW12967   2.433   3.851   1.735  0.4674  0.4440  0.4167
34346SOL    HW112968   2.525   3.830   1.719  0.7097  0.1165  2.0404
34346SOL    HW212969   2.432   3.943   1.759  0.2128  0.7305 -0.6420
34347SOL     OW12970   7.799   2.405  10.809 -0.0629  0.1781 -0.4209
34347SOL    HW112971   7.854   2.480  10.791 -0.1928  0.1423 -0.9911
34347SOL    HW212972   7.850   2.351  10.870 -0.8665  1.7715  1.7623
34348SOL     OW12973   9.762   5.376   2.721 -0.9958  0.3723 -0.2955
34348SOL    HW112974   9.702   5.303   2.738  0.7386 -0.7411  1.5479
34348SOL    HW212975   9.821   5.376   2.797  2.8455 -0.1567 -2.9687
34349SOL     OW12976   0.936  12.030  12.177 -0.0247  0.0813  0.1268
34349SOL    HW112977   0.900  11.956  12.129  1.4322 -0.7923  0.3081
34349SOL    HW212978   0.973  12.087  12.110 -0.1250  0.0604  0.0553
34350SOL     OW12979   2.706   3.232  12.773 -0.0910  0.5649  0.0556
34350SOL    HW112980   2.733   3.155  12.723  0.4902  0.3726  0.6501
34350SOL    HW212981   2.744   3.306  12.726 -0.2771  0.4520 -0.2712
34351SOL     OW12982   8.986   2.912  10.667  0.0143  0.4149  0.0548
34351SOL    HW112983   8.994   2.857  10.590  0.3500  0.8182 -0.2045
34351SOL    HW212984   8.961   2.852  10.738  0.1974 -0.0339 -0.2597
34352SOL     OW12985   6.976  10.971   0.778  0.1184 -0.0915 -0.2368
34352SOL    HW112986   6.948  10.996   0.690  0.7132 -0.4990 -0.5597
34352SOL    HW212987   6.899  10.983   0.833  0.0459  1.2446 -0.5958
34353SOL     OW12988   0.177   9.185  11.663  0.5932  0.2988 -0.3234
34353SOL    HW112989   0.171   9.090  11.664  1.2853  0.2422 -0.7835
34353SOL    HW212990   0.209   9.206  11.575  0.2884  0.9668 -0.2808
34354SOL     OW12991   0.770   0.962   0.469  0.1738  0.0853 -0.0831
34354SOL    HW112992   0.708   0.893   0.493  0.3007 -0.5644 -1.5204
34354SOL    HW212993   0.856   0.925   0.489  0.1972  0.1972  0.0249
34355SOL     OW12994   5.282   6.129  13.191  0.8087 -0.1242 -0.0484
34355SOL    HW112995   5.328   6.175  13.120 -0.9571 -1.4137 -2.1742
34355SOL    HW212996   5.214   6.190  13.219  1.9108  0.6475  1.0892
34356SOL     OW12997  10.976  11.536   3.591 -0.1628 -0.5630  0.1186
34356SOL    HW112998  11.038  11.475   3.550  0.2178 -1.0832  1.4220
34356SOL    HW212999  10.976  11.512   3.684 -1.6283  0.0334  0.3024
34357SOL     OW13000   3.576   9.007   0.986 -0.6987  0.2750  0.0629
34357SOL    HW113001   3.593   9.101   0.989  1.3685 -0.0372 -0.4665
34357SOL    HW213002   3.486   9.001   0.953 -0.3638  2.0521 -1.3941
34358SOL     OW13003   4.428   1.715   5.376 -0.4651  0.1578  0.2414
34358SOL    HW113004   4.342   1.742   5.345  0.8417  4.4457 -0.2683
34358SOL    HW213005   4.469   1.674   5.300 -1.1072  0.5327 -0.3248
34359SOL     OW13006   0.072  13.060   6.485  0.5228 -0.2364  0.4287
34359SOL    HW113007   0.008  13.117   6.441 -0.4187 -2.4848 -1.3761
34359SOL    HW213008   0.157  13.097   6.462 -0.0656  0.7124 -0.3122
34360SOL     OW13009   7.583   9.191   3.979 -0.2261 -0.3471  0.1709
34360SOL    HW113010   7.610   9.208   4.070  0.4403  0.9751 -0.2461
34360SOL    HW213011   7.660   9.150   3.939 -0.0190  0.3212 -0.1353
34361SOL     OW13012   9.437   6.887   4.865  0.3144  0.0948  0.0008
34361SOL    HW113013   9.424   6.797   4.835 -0.6275  0.5712 -1.0772
34361SOL    HW213014   9.522   6.885   4.908  0.4286 -1.2513 -0.2277
34362SOL     OW13015   8.270   9.486   3.026  0.3530 -0.4887 -0.1634
34362SOL    HW113016   8.188   9.438   3.029 -0.3387  0.6923  1.4779
34362SOL    HW213017   8.326   9.436   2.966 -1.3204 -1.6662 -0.7993
34363SOL     OW13018   9.887   5.326   5.134 -0.2494  0.2356 -0.2797
34363SOL    HW113019   9.931   5.410   5.117 -1.8239  1.1220 -0.1534
34363SOL    HW213020   9.810   5.349   5.185 -1.0894 -1.2240 -0.8206
34364SOL     OW13021  11.935   4.265   9.904 -0.5705  0.3296  0.3787
34364SOL    HW113022  12.002   4.319   9.862 -0.3107 -1.2026 -1.2849
34364SOL    HW213023  11.860   4.270   9.844 -1.0399 -0.0281  0.9339
34365SOL     OW13024   0.947  11.641   1.569 -0.1239  0.2816 -0.4074
34365SOL    HW113025   0.984  11.585   1.501  0.5949 -1.7173  1.5220
34365SOL    HW213026   1.009  11.713   1.577  1.6417 -1.2577  0.4444
34366SOL     OW13027   9.152  10.784  12.389 -0.2177  0.1310  0.0394
34366SOL    HW113028   9.194  10.867  12.411 -0.0350 -0.0577  0.4076
34366SOL    HW213029   9.104  10.759  12.468 -0.7021  0.1453 -0.2446
34367SOL     OW13030   9.864  12.287   9.332  0.0802  0.2285  0.0648
34367SOL    HW113031   9.777  12.264   9.300 -0.8987  1.3403  1.8217
34367SOL    HW213032   9.914  12.306   9.252 -1.9631  1.8830 -0.9134
34368SOL     OW13033   6.624   9.301   7.668 -0.1199  0.0465  0.2572
34368SOL    HW113034   6.688   9.311   7.738 -2.2043 -1.0575  2.4587
34368SOL    HW213035   6.561   9.372   7.682 -1.1672 -0.8505  0.2060
34369SOL     OW13036   7.235   9.292  13.014  0.9221  0.7586 -0.1339
34369SOL    HW113037   7.307   9.354  13.007  0.6760  0.9923 -0.6233
34369SOL    HW213038   7.166   9.341  13.059  0.8450  0.7350 -0.2261
34370SOL     OW13039  12.146   9.822  10.707  0.0358  0.0284  0.0148
34370SOL    HW113040  12.194   9.900  10.735  2.5946 -1.4021 -0.0557
34370SOL    HW213041  12.065   9.824  10.758 -0.2763  2.9966 -0.4341
34371SOL     OW13042  12.133   7.205   1.595  0.3935 -0.2344 -0.0917
34371SOL    HW113043  12.186   7.192   1.673  0.7608  2.2196  0.1534
34371SOL    HW213044  12.075   7.277   1.617  1.0121  1.0409 -2.2770
34372SOL     OW13045   4.140   5.850   5.880 -0.1600  0.0427  0.8542
34372SOL    HW113046   4.098   5.911   5.942 -0.4286  0.6026  0.1339
34372SOL    HW213047   4.137   5.896   5.796 -0.1330 -0.8632  0.3501
34373SOL     OW13048   8.399   1.925   1.382 -0.0151 -0.5196 -0.0382
34373SOL    HW113049   8.384   1.831   1.395  0.1045 -0.8438 -1.9133
34373SOL    HW213050   8.494   1.932   1.370 -0.0524 -0.1970 -0.1431
34374SOL     OW13051   3.793  11.351   9.597 -0.5123  0.8390  0.5313
34374SOL    HW113052   3.721  11.410   9.616  0.8329  2.1119  1.9581
34374SOL    HW213053   3.823  11.376   9.509 -1.2269  0.8911  0.3005
34375SOL     OW13054   0.571  12.370  12.714 -0.1510 -0.2586 -0.5718
34375SOL    HW113055   0.569  12.334  12.803  1.7433 -0.1233 -0.4341
34375SOL    HW213056   0.518  12.450  12.719  0.3246  0.0003  0.5714
34376SOL     OW13057   4.631  12.118  11.322  0.5578 -0.0588  0.5958
34376SOL    HW113058   4.590  12.194  11.364 -1.4651  0.4995 -2.0995
34376SOL    HW213059   4.585  12.043  11.358 -1.4226  0.4323 -0.7785
34377SOL     OW13060   9.744   2.013  13.113  0.1147 -0.0377 -0.2686
34377SOL    HW113061   9.761   1.973  13.028 -1.2536 -0.0364 -0.5647
34377SOL    HW213062   9.649   2.011  13.122  0.1613  1.0165  0.7437
34378SOL     OW13063   6.991   9.242   5.806  0.6622 -0.4032 -0.6303
34378SOL    HW113064   7.001   9.213   5.896  0.2609 -2.3972 -1.1854
34378SOL    HW213065   6.901   9.274   5.801  0.6154 -0.4910 -0.3741
34379SOL     OW13066   5.645   5.375   1.404 -0.0580  0.0756 -0.3951
34379SOL    HW113067   5.667   5.288   1.370  0.3536  0.0703 -0.1211
34379SOL    HW213068   5.577   5.407   1.346  1.7572  0.7600 -2.2794
34380SOL     OW13069   2.502   0.448   2.354 -0.5321  0.5169  0.0643
34380SOL    HW113070   2.518   0.532   2.311 -0.9751  0.5165 -0.1105
34380SOL    HW213071   2.508   0.383   2.284 -0.5378  0.4391  0.1354
34381SOL     OW13072   9.268   4.428  11.657 -0.5055  0.1468 -0.0821
34381SOL    HW113073   9.189   4.432  11.709 -0.9196  0.8907 -0.7418
34381SOL    HW213074   9.241   4.456  11.569  0.4697  0.3819 -0.3279
34382SOL     OW13075   3.704  12.470   5.576 -0.5240 -0.1808 -0.3392
34382SOL    HW113076   3.665  12.552   5.547  0.8616  0.1362 -1.4145
34382SOL    HW213077   3.787  12.495   5.616 -1.4103 -0.8232  2.0719
34383SOL     OW13078   1.489   0.175   7.839  0.0920 -0.1528  0.3321
34383SOL    HW113079   1.518   0.155   7.750  0.0143 -0.6193  0.4064
34383SOL    HW213080   1.510   0.096   7.889 -2.2800 -0.9485  0.1676
34384SOL     OW13081   6.280   0.533   7.008 -0.4759  0.3700 -0.4410
34384SOL    HW113082   6.364   0.491   7.026 -1.2356 -0.2975  1.8636
34384SOL    HW213083   6.219   0.461   6.995 -1.2408  0.7381  0.8535
34385SOL     OW13084   3.370   3.803   2.392  0.0827  0.2710  0.2336
34385SOL    HW113085   3.441   3.805   2.456 -0.3483 -1.4461  0.8243
34385SOL    HW213086   3.328   3.889   2.399  1.0479  0.6888  1.0843
34386SOL     OW13087   8.698   4.360   1.925  0.1243  0.2002  0.1711
34386SOL    HW113088   8.709   4.328   2.015  1.6889  1.0606  0.3264
34386SOL    HW213089   8.743   4.295   1.872 -2.1232 -1.1420 -0.2087
34387SOL     OW13090   4.836   7.102   4.200  0.1817  0.3116  0.5343
34387SOL    HW113091   4.765   7.060   4.249  0.5358  0.8403  1.5378
34387SOL    HW213092   4.916   7.062   4.234  0.5225  1.7640  1.5239
34388SOL     OW13093   3.506   5.349   7.922  0.4729 -0.1970  0.2718
34388SOL    HW113094   3.564   5.386   7.856 -0.8628  1.2946 -0.1257
34388SOL    HW213095   3.429   5.406   7.921 -0.1142 -0.8619  2.2431
34389SOL     OW13096   8.130   8.122   4.095 -0.1952 -0.3167 -0.2449
34389SOL    HW113097   8.154   8.204   4.052  0.4291 -0.4775 -0.2044
34389SOL    HW213098   8.070   8.149   4.165  0.3841  0.1604  0.0757
34390SOL     OW13099   3.630  10.633   4.436 -0.2274  0.5788 -0.3844
34390SOL    HW113100   3.643  10.606   4.345 -1.3341 -1.1840 -0.0752
34390SOL    HW213101   3.537  10.655   4.441 -0.2365  0.4057  0.3648
34391SOL     OW13102   0.813  12.120   4.201  0.1045 -0.6100 -0.1666
34391SOL    HW113103   0.864  12.093   4.125  2.3368  0.0614  0.9997
34391SOL    HW213104   0.879  12.133   4.270 -1.7258 -0.1569  1.5728
34392SOL     OW13105   1.780   9.923  11.279  1.3149 -0.0504 -0.0997
34392SOL    HW113106   1.816   9.835  11.288  0.2641 -0.4079  0.7773
34392SOL    HW213107   1.850   9.981  11.309  1.9003 -0.5874 -0.3933
34393SOL     OW13108   8.762   6.250   0.784  0.3536  0.0815  0.5770
34393SOL    HW113109   8.680   6.282   0.821  0.6498  0.5573  0.8223
34393SOL    HW213110   8.830   6.298   0.830  0.7142  1.3876 -1.2049
34394SOL     OW13111   3.924   4.957  12.703 -0.4429  0.1779 -0.3949
34394SOL    HW113112   3.974   4.920  12.630 -0.2830  0.3416 -0.3703
34394SOL    HW213113   3.980   5.027  12.737 -0.5790  0.1957 -0.2057
34395SOL     OW13114   1.052   7.454   9.254  0.2933  0.3551  0.0380
34395SOL    HW113115   1.093   7.482   9.172  1.1379  0.4322  0.4699
34395SOL    HW213116   1.004   7.374   9.231 -1.5292  1.7013 -1.0496
34396SOL     OW13117   4.603  11.753   8.573 -0.1943  0.1399 -0.5542
34396SOL    HW113118   4.666  11.792   8.512  0.3666  0.3455  0.1488
34396SOL    HW213119   4.650  11.747   8.656 -0.9565 -0.1179 -0.1312
34397SOL     OW13120   8.492   6.505   7.886  0.1991 -0.2091  0.2000
34397SOL    HW113121   8.458   6.586   7.849 -2.0721 -0.4677  1.5312
34397SOL    HW213122   8.584   6.523   7.904 -0.2838  2.1031  0.5750
34398SOL     OW13123   9.087   7.964  11.502  0.7875  0.3570 -0.0966
34398SOL    HW113124   9.028   7.935  11.433  2.0280  0.8187 -1.3817
34398SOL    HW213125   9.132   7.885  11.530  0.4853  0.2163 -0.0004
34399SOL     OW13126   4.007   7.176   0.020 -0.0210  0.3645 -0.1897
34399SOL    HW113127   4.008   7.088  -0.017 -0.7947 -0.3775  1.4505
34399SOL    HW213128   3.914   7.199   0.024  0.2292  2.0890 -2.3705
34400SOL     OW13129   0.391   9.717   6.144  0.3945  0.0283 -0.2119
34400SOL    HW113130   0.481   9.693   6.169  0.0615 -1.3956 -0.3103
34400SOL    HW213131   0.362   9.646   6.088 -0.3181  1.1834 -1.3657
34401SOL     OW13132   0.256   9.107   1.404  0.3939 -0.4499 -0.2653
34401SOL    HW113133   0.206   9.046   1.458 -1.2328  0.0502 -1.1319
34401SOL    HW213134   0.251   9.069   1.316  2.4881 -0.9431 -0.2059
34402SOL     OW13135   4.001  13.146   9.917 -0.5268 -0.0690 -0.4010
34402SOL    HW113136   3.961  13.118   9.835 -0.5516  1.2614 -0.8609
34402SOL    HW213137   3.996  13.068   9.973  0.3641 -1.2981 -1.9502
34403SOL     OW13138   9.522  11.138   0.494  0.0293 -0.1106  0.3035
34403SOL    HW113139   9.576  11.185   0.430  1.4324 -0.6112  1.0746
34403SOL    HW213140   9.514  11.198   0.567 -2.0627  0.6893 -0.5192
34404SOL     OW13141   6.819   4.440  11.821 -0.1798 -0.5360 -0.4214
34404SOL    HW113142   6.836   4.527  11.785 -2.1206 -0.0029 -0.1685
34404SOL    HW213143   6.823   4.452  11.916  3.3041 -1.5921 -0.3023
34405SOL     OW13144   3.931   9.082  12.899  0.1190  0.1595  0.0034
34405SOL    HW113145   3.870   9.038  12.960  0.5515 -0.4539  0.0038
34405SOL    HW213146   3.882   9.158  12.867  0.0378  0.7575  1.4611
34406SOL     OW13147   6.963  10.112   3.330 -0.4483  0.4589 -0.4251
34406SOL    HW113148   6.964  10.191   3.384  2.8149  0.6932 -0.6392
34406SOL    HW213149   6.966  10.040   3.393 -0.6250  0.6075 -0.2472
34407SOL     OW13150   6.569   0.092   0.372  0.0768  0.2086 -0.3199
34407SOL    HW113151   6.651   0.134   0.347 -0.2065  0.6061 -0.5858
34407SOL    HW213152   6.543   0.042   0.295  1.4468 -2.1500  0.6226
34408SOL     OW13153   1.116  12.564  12.734  0.1940  0.0142  0.3354
34408SOL    HW113154   1.090  12.643  12.781  1.7082 -0.5358  2.2082
34408SOL    HW213155   1.125  12.592  12.643 -2.3787  1.2216  0.3565
34409SOL     OW13156   0.440   7.992   2.433 -0.3043 -0.2328  0.0208
34409SOL    HW113157   0.491   7.911   2.431 -2.3577 -1.6249 -2.4112
34409SOL    HW213158   0.481   8.047   2.367 -0.0888 -0.0578  0.2964
34410SOL     OW13159   3.492   0.340   9.834 -0.6045 -0.5534 -0.0455
34410SOL    HW113160   3.497   0.264   9.893  0.2271 -0.3365  0.1697
34410SOL    HW213161   3.573   0.388   9.850  0.5731 -1.4585 -2.7114
34411SOL     OW13162   2.949   1.106   7.413 -0.4928  0.1015  0.0696
34411SOL    HW113163   2.984   1.052   7.484  0.3089  1.0211  0.4049
34411SOL    HW213164   2.855   1.112   7.431 -0.4317 -0.3707  0.5779
34412SOL     OW13165   3.473   0.212   3.558 -0.4202  0.1774 -0.7110
34412SOL    HW113166   3.556   0.258   3.570 -0.4774  0.4655 -1.3960
34412SOL    HW213167   3.464   0.158   3.636  0.7692 -0.4000 -0.9567
34413SOL     OW13168   1.775   5.644   8.230  0.4231  0.5863  0.1399
34413SOL    HW113169   1.799   5.586   8.158 -0.5136 -2.2096  1.9217
34413SOL    HW213170   1.730   5.717   8.188 -2.3139 -2.1090 -2.0268
34414SOL     OW13171   7.012   8.206   9.694  0.5336  0.0037  0.1007
34414SOL    HW113172   6.944   8.160   9.644 -0.2551  1.0519  0.1751
34414SOL    HW213173   7.087   8.147   9.691  0.9157  0.4520 -3.2443
34415SOL     OW13174   1.790   7.351  11.348 -0.1998 -0.4025 -0.5538
34415SOL    HW113175   1.775   7.429  11.401  0.9676 -1.3461  1.2432
34415SOL    HW213176   1.713   7.296  11.364  0.8304 -1.3380  1.4420
34416SOL     OW13177  11.014  11.596  10.793 -0.6446 -0.3441  0.2623
34416SOL    HW113178  10.923  11.596  10.823  0.0202 -1.9183  2.5968
34416SOL    HW213179  11.064  11.626  10.868  0.8254 -0.0255 -0.8073
34417SOL     OW13180   4.429   8.930   6.371  0.6323  0.1952 -0.0375
34417SOL    HW113181   4.467   9.018   6.369 -0.8080  0.8297  0.0193
34417SOL    HW213182   4.343   8.939   6.331  0.4567 -1.1993 -0.0408
34418SOL     OW13183  10.684   0.172  12.526  0.4125  0.3073  0.0775
34418SOL    HW113184  10.778   0.187  12.532  0.2462  0.7594  1.8647
34418SOL    HW213185  10.649   0.252  12.487  0.5966  0.8213  0.9450
34419SOL     OW13186   6.009  11.445   2.721 -0.2346 -0.1548  0.3080
34419SOL    HW113187   5.946  11.447   2.793  0.8201  0.3246  1.2468
34419SOL    HW213188   6.027  11.352   2.708  1.4104 -0.2042  2.3794
34420SOL     OW13189   0.162   5.311  12.118  0.0423  0.0517 -0.4401
34420SOL    HW113190   0.230   5.337  12.180  1.6842  1.3096 -2.6203
34420SOL    HW213191   0.170   5.216  12.113 -0.1360 -0.0718  1.2447
34421SOL     OW13192  13.292   5.965   4.498 -0.1491  0.1966 -0.0827
34421SOL    HW113193  13.254   5.921   4.422  0.2522 -0.5004  0.1120
34421SOL    HW213194  13.221   5.967   4.562 -0.0390 -0.5840  0.0728
34422SOL     OW13195   4.913   5.076   0.125 -0.1478 -0.0659 -0.0300
34422SOL    HW113196   4.835   5.096   0.073 -1.0941 -0.7484  1.0843
34422SOL    HW213197   4.923   4.981   0.116  0.4724 -0.0021 -0.0299
34423SOL     OW13198   9.091   0.286   5.344  0.1617 -0.4905  0.8093
34423SOL    HW113199   9.024   0.276   5.275  1.4052  0.6770 -0.6288
34423SOL    HW213200   9.109   0.380   5.347  0.7040 -0.6233  2.2019
34424SOL     OW13201   8.823   3.874   7.719  0.2152  0.1944 -0.8269
34424SOL    HW113202   8.764   3.882   7.644 -0.6660  1.2843 -0.0531
34424SOL    HW213203   8.902   3.921   7.692  0.5621 -0.8261 -1.6699
34425SOL     OW13204   9.178  11.835  12.827  0.0504 -0.2257 -0.3030
34425SOL    HW113205   9.196  11.846  12.921  0.0644  1.6121 -0.4813
34425SOL    HW213206   9.093  11.877  12.814 -0.0029 -0.5709 -1.1009
34426SOL     OW13207   5.384   2.178   3.427 -0.2668  0.5537 -0.3855
34426SOL    HW113208   5.379   2.083   3.431  0.7920  0.4659 -0.7505
34426SOL    HW213209   5.318   2.204   3.363 -0.5738  0.0644 -0.2646
34427SOL     OW13210  11.699   9.370   3.250  0.0160  0.1452  0.4098
34427SOL    HW113211  11.768   9.405   3.306  0.8236 -0.8459  0.0479
34427SOL    HW213212  11.741   9.300   3.200 -0.4753  1.3993 -1.9532
34428SOL     OW13213   0.260   6.447   2.315 -0.2432 -0.2761 -0.1813
34428SOL    HW113214   0.188   6.478   2.260 -0.3948 -1.2597 -0.5608
34428SOL    HW213215   0.234   6.358   2.339 -0.0391  0.0333  1.2490
34429SOL     OW13216   2.813   4.481  12.199  0.4561  0.0521 -0.1155
34429SOL    HW113217   2.782   4.475  12.109 -2.2045 -0.0454  0.7315
34429SOL    HW213218   2.903   4.450  12.195 -0.7614 -3.8616 -2.1228
34430SOL     OW13219   3.291   4.700  11.713  0.0633  0.2505  0.2986
34430SOL    HW113220   3.285   4.796  11.709  0.3520  0.2795  0.5007
34430SOL    HW213221   3.334   4.682  11.796 -0.3758 -0.0775  0.4586
34431SOL     OW13222   6.904   6.780   8.499  0.0222  0.3699  0.3243
34431SOL    HW113223   6.850   6.702   8.493 -0.2837  0.4479  1.6113
34431SOL    HW213224   6.841   6.852   8.505  0.2118  0.4336  2.1624
34432SOL     OW13225   8.383  10.376   3.572 -0.2715 -0.6315  0.0168
34432SOL    HW113226   8.332  10.409   3.498  1.1916  0.6081 -0.5015
34432SOL    HW213227   8.458  10.333   3.533 -0.3721 -1.5214  0.7702
34433SOL     OW13228   9.264   2.116  10.419  0.4248  0.2508 -0.0342
34433SOL    HW113229   9.264   2.107  10.514 -1.0406  1.6686  0.1529
34433SOL    HW213230   9.352   2.090  10.392  1.6775  2.0215  1.9712
34434SOL     OW13231   8.632   5.619   6.245  0.3562 -0.1895 -0.3771
34434SOL    HW113232   8.682   5.687   6.200  0.0506 -0.0095 -0.4479
34434SOL    HW213233   8.555   5.665   6.278  0.8376 -0.1915  0.8103
34435SOL     OW13234   3.160   7.279  13.233  0.2884  0.3223 -0.2551
34435SOL    HW113235   3.200   7.362  13.259 -0.2965  0.3403  0.6230
34435SOL    HW213236   3.119   7.298  13.148  0.7508  0.7372 -0.3912
34436SOL     OW13237   7.096   6.343  12.929 -0.0934 -0.1431  0.4888
34436SOL    HW113238   7.026   6.284  12.954  1.0397 -1.8814 -0.2349
34436SOL    HW213239   7.078   6.424  12.976 -1.2239 -1.3566  2.2345
34437SOL     OW13240   9.223  12.097  11.778  0.8320 -0.0447  0.4553
34437SOL    HW113241   9.275  12.052  11.712  2.6572  0.5949  1.3929
34437SOL    HW213242   9.213  12.033  11.849  0.2905 -0.1722  0.2727
34438SOL     OW13243   8.569  10.963  12.441 -0.0276 -0.0817 -0.0656
34438SOL    HW113244   8.504  10.946  12.509 -0.7143 -2.4374 -1.2179
34438SOL    HW213245   8.581  11.058  12.443 -2.3235  0.2555  1.2436
34439SOL     OW13246   3.758   8.064   8.734  0.3608 -0.5548 -0.4489
34439SOL    HW113247   3.797   8.093   8.651 -0.5635  0.8342 -0.4256
34439SOL    HW213248   3.831   8.023   8.781  1.5937  1.1003 -0.8168
34440SOL     OW13249  12.450   5.652   8.029 -0.3615  0.2873  0.3749
34440SOL    HW113250  12.354   5.655   8.034 -0.7172 -1.9607 -2.3685
34440SOL    HW213251  12.472   5.719   7.964 -0.3034 -0.3598 -0.2944
34441SOL     OW13252   6.895   0.352   1.092  0.4976  0.2576  0.5097
34441SOL    HW113253   6.962   0.420   1.096 -0.0098  0.7998 -0.0569
34441SOL    HW213254   6.818   0.390   1.135 -0.1061  0.4310 -0.6928
34442SOL     OW13255  10.139   1.661  12.773  0.2096  0.2812  0.1947
34442SOL    HW113256  10.157   1.575  12.810 -0.1010 -0.0765 -0.4641
34442SOL    HW213257  10.223   1.691  12.739  0.0746 -0.3135 -0.6892
34443SOL     OW13258   9.845   0.106   7.474 -0.0475  0.1303 -0.2508
34443SOL    HW113259   9.912   0.048   7.439 -0.9922 -0.3111 -1.3845
34443SOL    HW213260   9.817   0.065   7.556  0.5540 -0.0457 -0.1274
34444SOL     OW13261   6.620   8.986   7.648 -0.3052  0.1331  0.6077
34444SOL    HW113262   6.560   8.943   7.587 -0.3246 -2.4858  2.3435
34444SOL    HW213263   6.585   9.075   7.657 -1.0190  0.2202 -2.1361
34445SOL     OW13264  12.848  12.605   4.316 -0.1297  0.4260  0.9406
34445SOL    HW113265  12.850  12.524   4.367  1.5485 -0.2623 -0.1263
34445SOL    HW213266  12.858  12.576   4.225  2.3077  1.8767  0.6582
34446SOL     OW13267  11.584   2.532   6.047  0.3660  0.1295  0.0073
34446SOL    HW113268  11.607   2.615   6.088 -0.5347  1.2125 -1.5517
34446SOL    HW213269  11.642   2.525   5.971  0.6713 -0.8472  0.3127
34447SOL     OW13270   3.311   0.991   3.258  0.3520 -0.3660  0.7359
34447SOL    HW113271   3.245   1.053   3.228  1.2003  0.5627  0.7393
34447SOL    HW213272   3.332   0.939   3.180  0.5309  0.1773  0.4169
34448SOL     OW13273  11.262   2.379   4.730  0.3244 -0.5027  0.0653
34448SOL    HW113274  11.215   2.422   4.801 -1.0776 -0.6398 -0.7510
34448SOL    HW213275  11.308   2.449   4.685  0.9636 -0.3728  0.8957
34449SOL     OW13276   0.063   8.422   9.193  0.7455  0.4861 -0.5660
34449SOL    HW113277   0.061   8.431   9.288  0.6660  0.4210 -0.5612
34449SOL    HW213278   0.154   8.400   9.173  0.5877 -0.3235 -0.4257
34450SOL     OW13279  10.386  11.442  10.910  0.4099 -0.5631  0.0393
34450SOL    HW113280  10.297  11.464  10.882 -0.4863  2.4541  4.2482
34450SOL    HW213281  10.441  11.511  10.874  0.1242  0.3947  1.3720
34451SOL     OW13282   2.947  10.482   6.858 -0.5589 -0.2722 -0.7877
34451SOL    HW113283   3.025  10.514   6.903 -0.4194  0.3686 -1.4551
34451SOL    HW213284   2.953  10.387   6.863 -1.7064 -0.2869  2.5043
34452SOL     OW13285   1.322   0.016  10.944  0.6705 -0.3779  0.3474
34452SOL    HW113286   1.345  -0.012  11.033 -0.3124 -1.4540  0.2856
34452SOL    HW213287   1.383   0.087  10.925  1.1629 -0.3963  1.7293
34453SOL     OW13288   8.831   0.945   9.605 -0.3076 -0.1275  0.0553
34453SOL    HW113289   8.739   0.921   9.601 -0.7371  1.1029  1.7120
34453SOL    HW213290   8.832   1.041   9.602  0.8539 -0.0870  0.7837
34454SOL     OW13291  13.137   7.948   5.088  0.1824  0.0962 -0.1272
34454SOL    HW113292  13.114   7.872   5.142  0.1480  0.8598  0.9891
34454SOL    HW213293  13.217   7.982   5.128  0.7325  0.0850 -1.2084
34455SOL     OW13294  10.598   0.840   2.946 -0.4945 -0.0246 -0.4947
34455SOL    HW113295  10.509   0.842   2.911 -0.0722  1.7426 -1.5825
34455SOL    HW213296  10.588   0.864   3.039 -0.9653  3.0872 -1.2333
34456SOL     OW13297   7.485   2.624   3.739  0.2502 -0.3567  0.3116
34456SOL    HW113298   7.402   2.574   3.738  0.3705 -0.5855  0.8812
34456SOL    HW213299   7.472   2.688   3.809  0.5170 -0.3328  0.3379
34457SOL     OW13300   4.119   9.756   5.516 -0.1361  0.3062  0.3145
34457SOL    HW113301   4.048   9.699   5.546 -0.6427  1.7842  2.1414
34457SOL    HW213302   4.186   9.696   5.484 -1.2424 -1.2292  0.7554
34458SOL     OW13303   1.289   2.387   6.712  0.1389  0.7067 -0.5560
34458SOL    HW113304   1.313   2.350   6.627 -0.4847 -0.5196 -0.2184
34458SOL    HW213305   1.287   2.482   6.697  1.7434  0.6323 -1.4500
34459SOL     OW13306  11.459   3.617  13.025  0.2582 -0.0354  0.3053
34459SOL    HW113307  11.554   3.629  13.025  0.1602  0.8772 -0.6306
34459SOL    HW213308  11.423   3.705  13.017 -0.5840 -0.5163 -2.5670
34460SOL     OW13309  12.495   7.093   2.885  0.5106  0.5396  0.1424
34460SOL    HW113310  12.470   7.051   2.967 -1.2159 -0.3637 -0.7753
34460SOL    HW213311  12.463   7.183   2.892 -1.5847 -0.1141 -0.3106
34461SOL     OW13312   2.384   7.303  12.670  0.2103  0.7145 -0.2800
34461SOL    HW113313   2.298   7.261  12.662  0.2358  0.2778  1.2510
34461SOL    HW213314   2.364   7.390  12.705  0.2747  1.3903 -1.8629
34462SOL     OW13315   2.586   4.737  11.778 -0.4583 -0.1387  0.5414
34462SOL    HW113316   2.595   4.653  11.824 -1.2691 -1.4102 -1.4615
34462SOL    HW213317   2.658   4.737  11.714 -0.4219  0.7464  0.5701
34463SOL     OW13318   1.781  11.992   2.968 -0.2863  0.0115  0.1233
34463SOL    HW113319   1.859  12.022   2.921  0.7833  0.5996  2.1732
34463SOL    HW213320   1.814  11.960   3.052 -2.1843 -0.3278  0.7878
34464SOL     OW13321  13.242   2.672  11.059 -0.7793  0.1976 -0.0420
34464SOL    HW113322  13.327   2.631  11.042 -1.4456 -0.6841 -1.4533
34464SOL    HW213323  13.260   2.766  11.058 -0.1119  0.1140 -2.3082
34465SOL     OW13324   7.737   1.536   0.583 -0.1692 -0.2829 -0.1719
34465SOL    HW113325   7.674   1.508   0.649 -0.6507 -2.0021 -1.2827
34465SOL    HW213326   7.684   1.549   0.504  0.2215  2.7621 -0.0597
34466SOL     OW13327   0.382   8.409   5.552  0.1839  0.5201 -0.3627
34466SOL    HW113328   0.301   8.456   5.571  1.1005  1.6138  1.1206
34466SOL    HW213329   0.441   8.477   5.520  0.6840 -0.1642 -0.9240
34467SOL     OW13330   4.816   9.939   5.160 -0.3382 -0.1733  0.0852
34467SOL    HW113331   4.897   9.902   5.126  0.6088  1.0100  0.9817
34467SOL    HW213332   4.747   9.888   5.117  0.8506 -2.5697  0.8029
34468SOL     OW13333   3.955   6.524   5.921 -0.6129  0.1656  1.4052
34468SOL    HW113334   3.990   6.522   6.010 -1.0689 -1.6876  1.5835
34468SOL    HW213335   3.873   6.475   5.927 -0.5093 -0.2263 -0.0825
34469SOL     OW13336   2.188   0.519   7.345  0.7516  0.8696  0.4554
34469SOL    HW113337   2.226   0.603   7.319 -0.2242  1.2867  0.3381
34469SOL    HW213338   2.147   0.536   7.430 -0.4988  0.8407 -0.1233
34470SOL     OW13339   0.707   5.761   8.983  0.1603 -0.0901  0.0214
34470SOL    HW113340   0.651   5.701   9.033  0.5385  0.0741  0.6494
34470SOL    HW213341   0.668   5.847   8.999  0.6566  0.0396  0.5583
34471SOL     OW13342   3.525   9.654   3.976 -0.2661  0.0526  0.1267
34471SOL    HW113343   3.561   9.666   4.063 -1.1008 -0.4119  0.5538
34471SOL    HW213344   3.594   9.610   3.926  0.0432 -0.1024  0.6940
34472SOL     OW13345   9.218   9.171   5.675 -0.3510 -0.4744 -0.1501
34472SOL    HW113346   9.286   9.115   5.712  0.0603 -0.0382 -0.2242
34472SOL    HW213347   9.224   9.158   5.581  0.0038 -0.0314 -0.1955
34473SOL     OW13348   7.656   6.191  12.466  0.1400 -0.1278 -0.2446
34473SOL    HW113349   7.603   6.112  12.468 -0.6791  0.3929 -0.7661
34473SOL    HW213350   7.615   6.246  12.399  0.5505  0.8378  0.2751
34474SOL     OW13351   3.757   9.141  10.747  0.1405 -0.0514  0.2303
34474SOL    HW113352   3.809   9.121  10.825 -1.1322 -0.6269  0.9668
34474SOL    HW213353   3.746   9.056  10.704  1.3161  0.3487 -0.9119
34475SOL     OW13354   4.134   9.611  12.855  0.1663 -0.4148 -0.3374
34475SOL    HW113355   4.214   9.658  12.832  0.0967 -0.7571 -1.3308
34475SOL    HW213356   4.107   9.568  12.774 -1.4254  0.2805 -0.2264
34476SOL     OW13357   3.767  10.737  12.851 -0.0203 -0.3804  0.0989
34476SOL    HW113358   3.773  10.691  12.767 -0.2003 -1.4521  0.6486
34476SOL    HW213359   3.847  10.789  12.856  0.0824 -0.4599 -0.6477
34477SOL     OW13360   7.012   1.192   8.242  0.0871  0.4762  0.5501
34477SOL    HW113361   6.917   1.200   8.247 -0.1375 -0.6511 -1.1518
34477SOL    HW213362   7.042   1.276   8.208 -0.6110 -0.1047 -1.6146
34478SOL     OW13363   3.461  10.684   8.459 -0.1897  0.0285 -0.1674
34478SOL    HW113364   3.447  10.706   8.551 -0.3011 -0.0868 -0.1571
34478SOL    HW213365   3.433  10.593   8.451  0.8919 -0.3336 -0.0631
34479SOL     OW13366   8.289  13.246  11.755  0.6278  0.0263 -0.3528
34479SOL    HW113367   8.250  13.223  11.670  3.2761  0.4716 -1.8161
34479SOL    HW213368   8.297  13.163  11.801  0.7568 -0.5025 -1.3072
34480SOL     OW13369   0.026   1.771  10.337 -0.0382  0.4810 -0.1809
34480SOL    HW113370  -0.035   1.697  10.334  0.2079  0.0248  2.8219
34480SOL    HW213371  -0.016   1.839  10.286 -2.5983 -0.1750  0.8759
34481SOL     OW13372  12.005   3.694   1.200 -0.3962 -0.2604 -0.8189
34481SOL    HW113373  11.993   3.711   1.106 -0.7820  0.1440 -0.7025
34481SOL    HW213374  12.047   3.609   1.204 -0.0632 -0.1243 -1.3736
34482SOL     OW13375   1.064   5.210  12.519 -0.0598 -0.3095  0.3924
34482SOL    HW113376   0.987   5.154  12.527 -0.1933 -0.1369  0.3302
34482SOL    HW213377   1.077   5.220  12.425 -0.0852 -0.1678  0.4043
34483SOL     OW13378  10.046   3.046  11.169  0.1201  0.2957 -0.1857
34483SOL    HW113379   9.991   3.023  11.244  0.6327  0.6880  0.3170
34483SOL    HW213380  10.042   3.142  11.166  0.0820  0.2792 -0.6754
34484SOL     OW13381   9.612   9.282   7.228 -0.0477  0.0476  0.4001
34484SOL    HW113382   9.536   9.266   7.284 -0.8186  2.2893  0.0863
34484SOL    HW213383   9.688   9.267   7.285 -0.8028  1.2812  1.7830
34485SOL     OW13384  10.286  10.216   7.396 -0.0438  0.7085 -0.4799
34485SOL    HW113385  10.193  10.235   7.385  0.0985  1.4662 -0.4603
34485SOL    HW213386  10.323  10.297   7.431  0.4505  0.0966  0.4720
34486SOL     OW13387   2.312   3.673   9.518  0.0515  0.1686 -0.4631
34486SOL    HW113388   2.226   3.642   9.489 -0.8462  0.7414  1.3970
34486SOL    HW213389   2.300   3.688   9.612  1.6670  2.0634 -0.5247
34487SOL     OW13390   0.155   0.013   0.964 -0.4171 -0.1698 -0.4775
34487SOL    HW113391   0.239   0.002   1.009 -0.9386 -0.4854  0.4426
34487SOL    HW213392   0.109   0.080   1.015 -1.5565 -1.4952  0.3023
34488SOL     OW13393   5.982   9.274  11.906 -0.2636  0.1201 -0.0963
34488SOL    HW113394   6.030   9.313  11.833 -0.9767  2.9674  0.8143
34488SOL    HW213395   6.042   9.211  11.944  0.8870  0.0696 -1.8935
34489SOL     OW13396   9.520  11.147   6.708  0.3827 -0.3489 -0.0980
34489SOL    HW113397   9.523  11.222   6.648  0.6537  0.0300  0.3719
34489SOL    HW213398   9.490  11.185   6.791 -1.1431 -1.0714 -0.2828
34490SOL     OW13399   6.444   7.813  10.471  0.4161  0.1939 -0.4664
34490SOL    HW113400   6.368   7.867  10.448  0.2126  1.4006  2.5797
34490SOL    HW213401   6.417   7.724  10.448 -2.1276  0.5255  0.8194
34491SOL     OW13402  11.083   2.038   8.522  0.2001  0.0243 -0.3963
34491SOL    HW113403  11.129   2.065   8.601  0.2241  0.1777 -0.4622
34491SOL    HW213404  11.013   2.102   8.512  0.4700  0.2704 -0.7474
34492SOL     OW13405  10.706  11.410   2.833 -0.2000 -0.2419 -0.0002
34492SOL    HW113406  10.642  11.459   2.782 -2.5148 -2.5797  0.4531
34492SOL    HW213407  10.654  11.354   2.891  2.2828  0.0636  2.8047
34493SOL     OW13408   5.708   8.863   6.352 -0.6515 -0.0058  0.1446
34493SOL    HW113409   5.651   8.788   6.339  0.0593 -0.6160  0.4565
34493SOL    HW213410   5.652   8.929   6.394 -1.4031 -0.1718 -0.5740
34494SOL     OW13411  10.322   0.867  12.510  0.0773  0.2796 -0.0076
34494SOL    HW113412  10.292   0.922  12.582 -1.6029 -0.6364  0.0640
34494SOL    HW213413  10.375   0.924  12.455  0.2899  1.3315  1.2593
34495SOL     OW13414   1.142   3.857   9.587  1.0372  0.8570 -0.3226
34495SOL    HW113415   1.059   3.870   9.633 -0.0640  2.3396 -2.5611
34495SOL    HW213416   1.158   3.763   9.593 -0.6199  0.5935  0.4715
34496SOL     OW13417   2.924   4.572   8.599 -0.4383 -0.0206 -0.6010
34496SOL    HW113418   2.837   4.586   8.635  0.7949  2.7477  1.7019
34496SOL    HW213419   2.968   4.514   8.661 -0.2353 -0.4399 -1.1223
34497SOL     OW13420   5.791   7.835   8.171 -0.1335 -0.0007 -0.8672
34497SOL    HW113421   5.854   7.818   8.101 -0.0016 -0.1548 -0.7077
34497SOL    HW213422   5.832   7.802   8.250 -0.0353  0.6957 -0.6168
34498SOL     OW13423   6.053   9.520   7.193 -0.2731 -0.5907 -0.1598
34498SOL    HW113424   5.965   9.536   7.161 -0.5496 -1.0208  0.3682
34498SOL    HW213425   6.110   9.548   7.121 -0.8146  0.1143 -0.3298
34499SOL     OW13426   8.358   6.092  12.681 -0.6505 -0.1280  0.4724
34499SOL    HW113427   8.374   6.127  12.594 -2.2897 -0.7288 -0.1031
34499SOL    HW213428   8.298   6.154  12.722 -1.1547 -0.6673  0.5706
34500SOL     OW13429  11.135   3.474   1.166  0.0629 -0.9598 -0.1919
34500SOL    HW113430  11.069   3.494   1.232 -2.0675 -2.2369 -1.8225
34500SOL    HW213431  11.218   3.473   1.215 -1.1193  0.3201  1.9989
34501SOL     OW13432   1.182   2.473   8.377 -0.5033 -0.4358  0.2489
34501SOL    HW113433   1.231   2.555   8.382 -1.0209 -0.0083 -1.1729
34501SOL    HW213434   1.126   2.474   8.455 -1.0731  0.9775 -0.1419
34502SOL     OW13435   2.393   8.646   5.464  0.6572 -1.1507 -0.1012
34502SOL    HW113436   2.438   8.670   5.383 -0.3518  0.9225 -0.1313
34502SOL    HW213437   2.300   8.650   5.441  0.2720  1.0605  1.4710
34503SOL     OW13438  10.875  12.683   0.264 -0.3181  0.3778  0.5678
34503SOL    HW113439  10.863  12.637   0.347  0.3828  1.2759  1.1887
34503SOL    HW213440  10.811  12.642   0.205  0.7560 -1.8640  0.8529
34504SOL     OW13441   6.706   9.203   6.142  0.2924 -0.4557 -0.3214
34504SOL    HW113442   6.646   9.145   6.095  0.6889  1.5665 -3.6333
34504SOL    HW213443   6.790   9.157   6.140 -0.1420 -1.3125  0.3360
34505SOL     OW13444   4.575   0.539  10.159  0.2521  0.1443  0.9736
34505SOL    HW113445   4.602   0.485  10.233 -2.3513 -1.8945  0.6109
34505SOL    HW213446   4.485   0.565  10.180 -0.7580 -0.9220 -1.5761
34506SOL     OW13447   0.252   1.423   9.193  0.7624  0.1225  0.6077
34506SOL    HW113448   0.197   1.477   9.137 -1.2373 -0.8713  1.5083
34506SOL    HW213449   0.342   1.446   9.169 -0.0211  2.7174 -0.0564
34507SOL     OW13450   2.959  11.732   1.632 -1.2123  0.4033 -0.5917
34507SOL    HW113451   2.880  11.689   1.600 -1.1823 -0.4407  0.4251
34507SOL    HW213452   3.008  11.754   1.553 -1.5230 -0.8780 -1.1656
34508SOL     OW13453   7.981   7.562   1.222  0.0682 -0.1400  0.0940
34508SOL    HW113454   7.914   7.629   1.208 -0.0311 -0.3561 -0.4595
34508SOL    HW213455   8.020   7.585   1.307 -0.3888  0.2537  0.2010
34509SOL     OW13456   5.690  10.875  10.309 -0.1375  0.4991 -0.3358
34509SOL    HW113457   5.626  10.929  10.356 -1.8001 -0.3814 -1.4729
34509SOL    HW213458   5.644  10.847  10.230  1.4854 -0.6464 -0.9293
34510SOL     OW13459   3.718   2.957   0.190 -0.0908 -0.4210  0.1914
34510SOL    HW113460   3.738   3.038   0.144  1.4315 -0.1013  1.3442
34510SOL    HW213461   3.642   2.977   0.244  1.1855  0.7609  1.6472
34511SOL     OW13462   4.234   6.591   7.814  0.2921  0.7209 -0.3558
34511SOL    HW113463   4.264   6.678   7.838  0.6133  0.1944  1.2763
34511SOL    HW213464   4.173   6.566   7.884  0.7984 -0.6669 -0.3835
34512SOL     OW13465   4.764  12.792  13.214  0.2217 -0.4137  0.3854
34512SOL    HW113466   4.711  12.713  13.199 -0.0637 -0.4200  1.3338
34512SOL    HW213467   4.739  12.851  13.143 -0.7381 -0.5938  0.5524
34513SOL     OW13468   7.750   4.079   2.911 -0.6864  0.4189  0.3880
34513SOL    HW113469   7.761   4.145   2.842 -0.7718  1.0225  0.9469
34513SOL    HW213470   7.761   4.127   2.993  1.5898 -0.6712  0.8146
34514SOL     OW13471   1.824  11.067  11.506 -0.1319 -0.2147  0.1963
34514SOL    HW113472   1.891  11.136  11.502 -1.2305  0.8523 -0.1924
34514SOL    HW213473   1.779  11.072  11.422 -0.7651 -0.8657  0.4917
34515SOL     OW13474   0.723   5.910   0.787  0.0340  0.6014  1.0105
34515SOL    HW113475   0.763   5.903   0.700  1.1984  0.4271  1.5367
34515SOL    HW213476   0.714   5.819   0.817  2.6281  0.6731  2.3381
34516SOL     OW13477   6.171  10.810   2.568  0.5157  0.1959 -0.3480
34516SOL    HW113478   6.098  10.789   2.511  0.1140  1.3919 -0.3078
34516SOL    HW213479   6.213  10.886   2.527  0.3990  0.8948  0.7700
34517SOL     OW13480   6.784   8.041   9.073 -0.4391 -0.5754  0.1881
34517SOL    HW113481   6.694   8.041   9.040 -0.9025 -0.0618  1.3887
34517SOL    HW213482   6.784   7.975   9.143 -0.1472  0.1302  0.8631
34518SOL     OW13483   9.497  10.654   5.000 -0.6189 -0.0495 -0.2968
34518SOL    HW113484   9.517  10.565   5.028 -1.4522 -0.5174 -1.1444
34518SOL    HW213485   9.454  10.694   5.075 -2.0012 -0.9945 -0.5458
34519SOL     OW13486  10.525   3.559   5.981  0.4146 -0.2735 -0.2213
34519SOL    HW113487  10.518   3.572   5.886  1.8820 -0.7571 -0.4315
34519SOL    HW213488  10.462   3.620   6.019 -0.9869 -0.8436 -1.5289
34520SOL     OW13489  10.064   4.555   1.106  0.4754 -0.3728 -0.3368
34520SOL    HW113490  10.146   4.602   1.125  1.6796 -3.2429  2.4852
34520SOL    HW213491   9.999   4.596   1.163  0.7101 -0.0390 -0.3058
34521SOL     OW13492   9.370   3.086   2.180 -0.0488  0.5952  0.0987
34521SOL    HW113493   9.277   3.106   2.188 -0.8121 -1.6043 -1.9157
34521SOL    HW213494   9.393   3.114   2.091 -0.1659 -3.1590 -1.3114
34522SOL     OW13495  11.082   7.552   1.569 -0.6652  0.0188  0.2418
34522SOL    HW113496  11.079   7.457   1.579 -1.6427 -0.1320 -1.2381
34522SOL    HW213497  11.143   7.566   1.496 -1.2347  0.4616 -0.1581
34523SOL     OW13498   6.678   4.623   3.571 -0.0348  0.0917  0.1944
34523SOL    HW113499   6.590   4.589   3.554  0.0427 -1.1185  1.9116
34523SOL    HW213500   6.663   4.714   3.599 -0.9205 -0.4788  1.7356
34524SOL     OW13501   9.647   5.795   2.623  0.1736  0.2531  0.3139
34524SOL    HW113502   9.625   5.715   2.574  0.5008  0.2429  0.1813
34524SOL    HW213503   9.728   5.772   2.670 -0.1334  0.2621  0.8605
34525SOL     OW13504   4.210   1.541   6.041 -0.1164 -0.2058  0.1113
34525SOL    HW113505   4.242   1.541   6.131 -0.0894 -1.3430  0.1099
34525SOL    HW213506   4.283   1.509   5.988  0.7228  2.7096 -0.6782
34526SOL     OW13507   6.014  10.085   0.991  0.3979 -0.1330 -0.9471
34526SOL    HW113508   6.038  10.110   0.902 -2.3944 -0.3162 -1.8562
34526SOL    HW213509   5.954  10.154   1.020  0.2700 -0.7456  0.3283
34527SOL     OW13510   7.297   0.230  11.788  0.3319  0.2693 -0.6797
34527SOL    HW113511   7.228   0.246  11.852 -0.7073 -0.0048 -1.6878
34527SOL    HW213512   7.373   0.279  11.821 -0.3862  0.7187  0.3633
34528SOL     OW13513   3.520   9.766   3.668  0.6336  0.5051 -0.5080
34528SOL    HW113514   3.486   9.812   3.745  1.3201  1.1703 -0.5962
34528SOL    HW213515   3.557   9.685   3.704 -1.2759 -0.4003 -0.4452
34529SOL     OW13516  10.905  10.598   1.983  0.6316 -0.2308 -0.6801
34529SOL    HW113517  10.926  10.508   2.007  1.0564 -0.1275 -0.6453
34529SOL    HW213518  10.819  10.615   2.020  0.0404 -0.9974 -1.6544
34530SOL     OW13519   3.720   4.171   3.413  0.1464 -0.5755 -0.1621
34530SOL    HW113520   3.741   4.249   3.464  0.0806 -0.2650 -0.6093
34530SOL    HW213521   3.718   4.100   3.478 -3.4091  0.3104  0.9602
34531SOL     OW13522   7.866   0.274   1.920 -0.2073  0.3191  0.2895
34531SOL    HW113523   7.800   0.298   1.854  0.2340  1.0058  0.0857
34531SOL    HW213524   7.821   0.212   1.978 -0.9288  0.5285 -0.0387
34532SOL     OW13525   1.794   0.642   4.635  0.1458  0.3694 -0.0381
34532SOL    HW113526   1.814   0.691   4.556 -0.6436  1.0560  0.1847
34532SOL    HW213527   1.704   0.665   4.656  0.4031  0.3431  1.1629
34533SOL     OW13528   3.200   1.889   0.032 -0.0694  0.2503 -0.1003
34533SOL    HW113529   3.113   1.857   0.056  0.2283  0.5034  1.4407
34533SOL    HW213530   3.227   1.834  -0.042 -0.8608 -0.9431  0.4753
34534SOL     OW13531   5.903   2.031   8.402 -0.1268 -0.8684  0.0234
34534SOL    HW113532   5.847   2.042   8.479  1.4356  0.3244  1.0357
34534SOL    HW213533   5.974   1.975   8.431  1.0243  0.4139 -0.2058
34535SOL     OW13534  11.910  12.784   0.005  0.3309 -0.1998 -0.0484
34535SOL    HW113535  11.902  12.704   0.057  1.2632  0.0309  0.4854
34535SOL    HW213536  12.002  12.787  -0.021  0.1433  0.3257 -0.6767
34536SOL     OW13537   7.344  11.174   4.745  0.3450 -0.3620  0.2030
34536SOL    HW113538   7.320  11.153   4.835 -0.8076  0.5564  0.1326
34536SOL    HW213539   7.280  11.127   4.691 -1.3732  1.9920  0.0083
34537SOL     OW13540   5.708   2.993  11.772 -0.5190 -0.0694  0.1958
34537SOL    HW113541   5.613   2.981  11.776 -0.2901 -2.2616  0.1282
34537SOL    HW213542   5.743   2.905  11.757  1.4943  0.7894 -0.4702
34538SOL     OW13543   4.407  12.184   7.231 -0.2216 -0.4786 -0.4285
34538SOL    HW113544   4.358  12.248   7.179 -1.0152 -0.7683 -0.0502
34538SOL    HW213545   4.371  12.192   7.319 -1.1049 -2.1768 -0.5884
34539SOL     OW13546  10.113   9.042   5.882  0.3452  0.4340  0.3537
34539SOL    HW113547  10.101   8.954   5.846  1.1390 -0.2100  1.6151
34539SOL    HW213548  10.093   9.100   5.809  1.7665 -0.8281 -1.1196
34540SOL     OW13549   6.956   9.671   1.972 -0.9415  0.1368  0.0812
34540SOL    HW113550   6.961   9.733   1.900  0.9627 -0.0892 -0.0501
34540SOL    HW213551   6.953   9.585   1.930  0.7603 -0.0249  0.2165
34541SOL     OW13552   2.281   7.543  10.187  0.2004 -0.2052  0.1946
34541SOL    HW113553   2.294   7.506  10.274 -1.1602 -0.8653  0.1441
34541SOL    HW213554   2.255   7.469  10.133 -0.9767  0.5223 -0.2889
34542SOL     OW13555   6.973   9.245  12.303  0.3522  0.5317  0.0494
34542SOL    HW113556   6.892   9.291  12.283  0.0244 -0.1319 -0.2091
34542SOL    HW213557   6.945   9.170  12.357  1.0496  1.4801  1.8041
34543SOL     OW13558   8.208  11.531   2.649  0.2098  0.2430  0.1639
34543SOL    HW113559   8.151  11.602   2.617 -0.0785  0.6903  1.6224
34543SOL    HW213560   8.244  11.565   2.730  1.5194 -0.5851 -0.0533
34544SOL     OW13561  12.521  11.124   0.388 -0.5165 -0.1907  0.0938
34544SOL    HW113562  12.485  11.103   0.302 -1.3066  1.2153  0.0366
34544SOL    HW213563  12.557  11.212   0.377  1.2094 -0.7828  0.6861
34545SOL     OW13564   3.895   1.250   8.296  0.1902  0.4676 -0.5684
34545SOL    HW113565   3.984   1.239   8.262  0.4439 -0.6649  0.3687
34545SOL    HW213566   3.852   1.309   8.234  2.0364  2.2785 -0.2269
34546SOL     OW13567   3.095   0.987   0.864  0.4764  0.3349  0.0346
34546SOL    HW113568   3.173   0.961   0.816  1.3816 -0.1225  1.6836
34546SOL    HW213569   3.127   1.014   0.949 -1.2021 -0.4178  0.9613
34547SOL     OW13570   8.697   4.085   8.608 -0.1550 -0.0137 -0.3626
34547SOL    HW113571   8.679   4.010   8.664  1.3720  0.2270  0.5174
34547SOL    HW213572   8.689   4.051   8.519  0.7796 -1.3101  0.0162
34548SOL     OW13573   8.271  12.845   7.875  0.2968 -0.2879 -0.0208
34548SOL    HW113574   8.256  12.839   7.780  0.5036 -1.4686 -0.0034
34548SOL    HW213575   8.185  12.831   7.914  0.3892 -0.8886 -0.0234
34549SOL     OW13576   4.201   1.996  11.527  0.3263 -0.4244 -0.2826
34549SOL    HW113577   4.175   2.050  11.602  0.4195 -2.0451  0.9547
34549SOL    HW213578   4.133   2.013  11.461 -0.9988 -0.6359  0.9836
34550SOL     OW13579  12.089   2.749   8.868  0.1957 -0.2228 -0.1193
34550SOL    HW113580  12.176   2.781   8.894 -0.7227  0.8009  1.9023
34550SOL    HW213581  12.049   2.824   8.824 -0.3949  0.0046  0.7876
34551SOL     OW13582  12.746  11.112   8.117  0.2013  0.0468  0.9391
34551SOL    HW113583  12.744  11.049   8.045 -0.2141  0.3544  0.6752
34551SOL    HW213584  12.702  11.189   8.082  2.2574  1.1396  0.6489
34552SOL     OW13585  12.514   7.818   5.986 -0.0145 -0.2368  0.2864
34552SOL    HW113586  12.481   7.786   5.902  0.2299  1.9983 -0.7404
34552SOL    HW213587  12.609   7.813   5.977  0.0360 -2.1571  1.3818
34553SOL     OW13588   9.646  10.607   3.417 -0.3159 -0.6481  0.3265
34553SOL    HW113589   9.582  10.535   3.416  1.6604 -2.5258  1.2833
34553SOL    HW213590   9.683  10.605   3.506  3.1059 -1.6217 -0.9604
34554SOL     OW13591   3.031  10.835   6.393 -0.1138  0.5282 -0.1482
34554SOL    HW113592   3.023  10.928   6.414  1.2891  0.8875 -1.1135
34554SOL    HW213593   3.085  10.798   6.463 -1.3423  0.2367  0.6853
34555SOL     OW13594   6.476   6.232   9.622  0.2957 -0.1348  0.1601
34555SOL    HW113595   6.390   6.211   9.659 -0.2161  2.3879  0.6199
34555SOL    HW213596   6.486   6.172   9.549 -1.1125 -1.6001  1.0980
34556SOL     OW13597   7.144   4.657   9.587 -0.2984 -0.1117  0.5034
34556SOL    HW113598   7.124   4.682   9.677 -1.1829 -1.7090  0.7728
34556SOL    HW213599   7.070   4.603   9.559  0.0467  0.2054 -1.1275
34557SOL     OW13600   9.067   1.513  13.024 -0.0365 -0.5848  0.0141
34557SOL    HW113601   9.083   1.595  12.976 -2.4380  0.0663  0.1876
34557SOL    HW213602   9.039   1.451  12.957  0.8418 -1.0028  0.0193
34558SOL     OW13603  12.011   4.213  11.206  0.1073 -0.5828  0.2459
34558SOL    HW113604  11.944   4.258  11.155  0.4783  1.3504  1.3583
34558SOL    HW213605  12.079   4.192  11.143 -0.0047  0.6211 -0.3038
34559SOL     OW13606   2.990   1.426  12.934 -0.0245  0.0824 -0.2032
34559SOL    HW113607   2.906   1.412  12.979  0.0773 -0.9012 -0.2989
34559SOL    HW213608   2.981   1.512  12.893 -0.9111  0.0791 -0.0381
34560SOL     OW13609   8.917   0.144   5.163 -0.2478 -0.4894  0.3570
34560SOL    HW113610   8.882   0.111   5.080  0.1081  1.3216 -0.5761
34560SOL    HW213611   9.003   0.102   5.171  0.4339  0.5189 -1.0726
34561SOL     OW13612   4.643   4.653   9.647 -0.0415  0.0217 -0.0467
34561SOL    HW113613   4.736   4.656   9.670 -0.3172 -4.5426  3.1020
34561SOL    HW213614   4.639   4.596   9.570 -0.2363 -2.2019  1.5212
34562SOL     OW13615  11.741   4.519   1.502  0.2135  0.4600  0.3869
34562SOL    HW113616  11.656   4.561   1.486 -0.3726 -0.3751  1.1965
34562SOL    HW213617  11.758   4.468   1.423 -0.3623  0.1099  0.4818
34563SOL     OW13618  11.276   3.647   8.979  0.4994  0.2006 -0.0537
34563SOL    HW113619  11.368   3.627   8.991  0.0222 -0.7840  2.7530
34563SOL    HW213620  11.266   3.737   9.012  0.4006  0.1962 -0.0690
34564SOL     OW13621   0.032   4.903   7.428 -0.3209  0.0722  0.2480
34564SOL    HW113622   0.024   4.827   7.485  0.6563 -0.2328  0.0057
34564SOL    HW213623   0.075   4.969   7.482  0.8951 -0.3215 -0.1892
34565SOL     OW13624   4.035   3.834   8.898  0.8089  0.3995 -0.0369
34565SOL    HW113625   4.000   3.800   8.816 -0.8493  1.7523  0.0503
34565SOL    HW213626   4.122   3.795   8.905 -0.0065 -1.7957 -1.1316
34566SOL     OW13627   3.909   4.861   3.167  0.0947 -0.0634 -0.5439
34566SOL    HW113628   4.001   4.883   3.170  0.5088 -1.7190  1.8109
34566SOL    HW213629   3.864   4.934   3.210  0.5379 -0.0558 -0.0851
34567SOL     OW13630   6.448  12.511  12.584 -0.6398 -0.6564 -0.2158
34567SOL    HW113631   6.483  12.509  12.673  0.8778 -1.1185 -0.7952
34567SOL    HW213632   6.504  12.574  12.538 -1.4774 -0.3470 -0.8259
34568SOL     OW13633   3.079   5.685   6.103 -0.4144 -1.0206 -0.2155
34568SOL    HW113634   3.074   5.608   6.160 -2.2820 -1.3608 -0.7907
34568SOL    HW213635   3.047   5.655   6.018  0.9183 -0.1352 -1.0677
34569SOL     OW13636   1.675  10.480   2.860  0.1757  0.1414 -1.2803
34569SOL    HW113637   1.615  10.407   2.871  0.6537 -0.0789  0.0517
34569SOL    HW213638   1.621  10.551   2.825 -1.3408  0.5454  1.5729
34570SOL     OW13639   3.541  12.454   3.428  0.0935  0.8374 -0.0406
34570SOL    HW113640   3.465  12.469   3.372 -0.0180  1.1523  0.1926
34570SOL    HW213641   3.586  12.379   3.389  0.0529  1.0974 -0.5888
34571SOL     OW13642   5.194   2.717   0.842 -0.1972  0.6961  0.5143
34571SOL    HW113643   5.245   2.797   0.827  0.9556 -0.1632 -0.3706
34571SOL    HW213644   5.228   2.681   0.923  0.1222  0.4947  0.2939
34572SOL     OW13645   3.690   5.692   3.341  0.1371  0.3599  0.3305
34572SOL    HW113646   3.622   5.627   3.325  1.1584 -0.9627  1.1012
34572SOL    HW213647   3.761   5.667   3.280  0.5110  0.7942  0.5822
34573SOL     OW13648  11.696   5.599  11.232 -0.5437 -0.8713 -0.1391
34573SOL    HW113649  11.653   5.579  11.315 -1.9106  3.4430  0.4235
34573SOL    HW213650  11.626   5.595  11.167 -0.9441  1.6817  0.0337
34574SOL     OW13651   5.421   7.565   0.692 -0.1203  0.6325 -0.0217
34574SOL    HW113652   5.427   7.635   0.757 -0.4810  0.6723 -0.0242
34574SOL    HW213653   5.505   7.520   0.697  0.6061  1.8223 -0.8865
34575SOL     OW13654   4.518  11.419  11.189 -0.0740 -0.9034  0.6889
34575SOL    HW113655   4.519  11.348  11.125 -0.6735  0.3029 -0.7037
34575SOL    HW213656   4.465  11.487  11.149  2.8747  1.5757  0.6112
34576SOL     OW13657   5.459   8.318   3.210  0.0966 -0.1506  0.1622
34576SOL    HW113658   5.464   8.358   3.297  1.1198  0.5139 -0.1886
34576SOL    HW213659   5.490   8.228   3.223 -1.2669 -0.5777  0.7598
34577SOL     OW13660   8.123   7.224   0.690 -0.0525 -0.2491  0.2325
34577SOL    HW113661   8.212   7.247   0.664 -0.2579  1.0052  0.5650
34577SOL    HW213662   8.125   7.222   0.785 -0.1497 -1.2509  0.2238
34578SOL     OW13663   2.519   8.640   7.993  0.5411 -0.4367  0.6532
34578SOL    HW113664   2.454   8.589   8.042 -1.3021  1.3468  0.2422
34578SOL    HW213665   2.554   8.579   7.928 -1.9135 -1.1243 -0.1345
34579SOL     OW13666   4.499   1.800   3.609  0.8444  0.5630 -0.0886
34579SOL    HW113667   4.527   1.876   3.661 -0.1985 -0.2694  1.7699
34579SOL    HW213668   4.465   1.838   3.528 -2.4774  2.4534  1.9724
34580SOL     OW13669   3.648  11.184  10.390  0.4329 -0.5016 -0.0841
34580SOL    HW113670   3.646  11.090  10.407  1.6038 -0.3583  0.9575
34580SOL    HW213671   3.738  11.201  10.363  0.4800  0.4609  0.6385
34581SOL     OW13672   9.788  11.128   0.737 -0.5484 -0.0021  0.0441
34581SOL    HW113673   9.801  11.221   0.754  1.0582 -0.2152  0.1382
34581SOL    HW213674   9.696  11.112   0.759 -0.9859  1.6519 -0.4722
34582SOL     OW13675  11.283   4.998   5.868 -0.3978 -0.0634 -0.3378
34582SOL    HW113676  11.308   4.994   5.776  0.8430 -2.0806  0.0202
34582SOL    HW213677  11.245   4.912   5.887 -1.4376  0.6206  0.8323
34583SOL     OW13678   2.412   1.926   5.294 -0.0056  0.0775  0.1484
34583SOL    HW113679   2.334   1.919   5.349  0.6795 -0.3451  1.0940
34583SOL    HW213680   2.404   1.854   5.231  0.5618 -1.1864  1.4852
34584SOL     OW13681   4.876   3.780  12.291  0.0550 -0.3491  0.0572
34584SOL    HW113682   4.938   3.708  12.300  0.6486  0.3356  1.7896
34584SOL    HW213683   4.797   3.750  12.335  1.2973  1.0933  3.6379
34585SOL     OW13684   2.087  12.654   0.958 -0.5084  0.1547 -0.2773
34585SOL    HW113685   2.090  12.649   1.053  0.5295 -0.2634 -0.3242
34585SOL    HW213686   1.999  12.623   0.935 -0.6985  0.0809  0.5215
34586SOL     OW13687   8.018   1.606  11.710  0.5635 -0.1104 -0.2793
34586SOL    HW113688   8.026   1.701  11.715  1.4368 -0.2164  0.9494
34586SOL    HW213689   8.108   1.575  11.696  0.4490 -0.7823  0.3604
34587SOL     OW13690   9.618  10.146   5.515 -0.2279 -0.3464 -0.6081
34587SOL    HW113691   9.616  10.062   5.559  2.5348  0.1803  0.7266
34587SOL    HW213692   9.554  10.200   5.562  1.4345 -0.3127  1.7560
34588SOL     OW13693  12.528   7.593   5.046  0.2517  0.3387  0.3260
34588SOL    HW113694  12.445   7.567   5.087  0.7090  0.8988  1.6857
34588SOL    HW213695  12.560   7.514   5.003 -0.0817 -0.4006  1.3917
34589SOL     OW13696   6.328  10.823   5.032  0.0615  0.0039  0.3811
34589SOL    HW113697   6.339  10.745   5.087 -0.9834  1.1613  2.3587
34589SOL    HW213698   6.259  10.873   5.075 -0.6082  1.1538 -1.8876
34590SOL     OW13699  12.143   7.935   0.686  0.5792  0.1529  0.6738
34590SOL    HW113700  12.200   7.873   0.731 -0.6834 -0.4274  1.4996
34590SOL    HW213701  12.112   7.994   0.754  0.0280  0.3380  0.2739
34591SOL     OW13702   9.144   2.238   4.504  0.8074  0.7402  0.0656
34591SOL    HW113703   9.080   2.281   4.448  1.8252  0.7615 -1.1163
34591SOL    HW213704   9.092   2.202   4.576 -0.3928  1.6146 -0.3291
34592SOL     OW13705  11.246   3.358   5.797  0.4029 -0.3085  0.0688
34592SOL    HW113706  11.294   3.401   5.867 -0.5284  0.5659  0.1957
34592SOL    HW213707  11.162   3.405   5.793  0.0923 -0.9205 -1.0294
34593SOL     OW13708   7.086  11.319   6.049  0.5367 -0.0590 -0.0734
34593SOL    HW113709   7.144  11.383   6.091  1.0890 -0.1839 -0.6340
34593SOL    HW213710   7.033  11.372   5.989  0.7352 -0.0736 -0.2632
34594SOL     OW13711   7.617   0.581   1.865 -0.6698  0.1558  0.1132
34594SOL    HW113712   7.614   0.673   1.839 -2.5295 -0.6236 -2.9587
34594SOL    HW213713   7.675   0.579   1.941  0.5717  3.6348 -0.5763
34595SOL     OW13714   2.549   7.960   0.061 -0.2809  0.1688  1.0357
34595SOL    HW113715   2.601   8.041   0.055 -0.2071  0.0497 -0.5539
34595SOL    HW213716   2.593   7.908   0.128  0.1524  1.1178  1.5026
34596SOL     OW13717   2.175  10.442   4.736 -0.0072 -0.1001  0.5313
34596SOL    HW113718   2.256  10.418   4.691  0.8172  0.8297  1.4658
34596SOL    HW213719   2.171  10.383   4.811  0.2831  0.4736  0.9954
34597SOL     OW13720  12.610   4.229   7.497  0.3201  0.1911  0.0583
34597SOL    HW113721  12.706   4.230   7.493  0.2980  1.3937 -1.1703
34597SOL    HW213722  12.583   4.275   7.417 -1.3383 -2.3423 -0.9578
34598SOL     OW13723   1.032   0.066  11.232 -0.6413  0.5512  0.0884
34598SOL    HW113724   1.023   0.075  11.327  0.7068  2.9099  0.0541
34598SOL    HW213725   1.091   0.136  11.207  0.6296 -1.2259 -2.2798
34599SOL     OW13726  12.609   6.814   0.985  0.5163  0.4470  0.5060
34599SOL    HW113727  12.627   6.729   1.024  2.0452  0.4862 -0.0586
34599SOL    HW213728  12.601   6.797   0.891  0.5239  0.8778  0.4225
34600SOL     OW13729   4.603   5.875   7.007 -0.1509 -0.2616 -0.6405
34600SOL    HW113730   4.532   5.940   7.008  0.3754  0.3233 -1.1364
34600SOL    HW213731   4.610   5.848   7.099 -0.6569  0.0691 -0.4958
34601SOL     OW13732   8.687  10.183   5.660  0.5320  0.2628 -0.2593
34601SOL    HW113733   8.759  10.242   5.637 -1.4931  2.0506 -2.5808
34601SOL    HW213734   8.631  10.236   5.716 -0.8954  0.3267 -1.6796
34602SOL     OW13735   3.318  12.079  12.718  0.4660 -0.0540  0.5425
34602SOL    HW113736   3.309  12.055  12.625  2.6921  0.3726  0.1508
34602SOL    HW213737   3.349  12.000  12.760  0.6233  0.0892  0.6954
34603SOL     OW13738   7.641   4.761   2.995 -0.0124 -0.1003 -0.0255
34603SOL    HW113739   7.645   4.747   2.901 -1.2707 -0.8186 -0.0063
34603SOL    HW213740   7.727   4.793   3.019 -0.7538  4.0575 -2.0043
34604SOL     OW13741   6.006  10.187   4.034  0.1644 -0.0188 -0.2878
34604SOL    HW113742   5.993  10.166   3.942  3.8698  1.5185 -1.3264
34604SOL    HW213743   6.042  10.107   4.072 -0.7162 -0.4349 -0.3057
34605SOL     OW13744   5.382   4.633   2.933  0.2900 -0.2231 -0.4620
34605SOL    HW113745   5.316   4.594   2.876 -0.7897 -0.7185  1.0538
34605SOL    HW213746   5.400   4.565   2.998  0.3153  0.8483  0.7018
34606SOL     OW13747   3.969   2.109   1.679 -0.5256  0.1474  0.2056
34606SOL    HW113748   3.890   2.133   1.631 -1.4301  1.5313  2.2462
34606SOL    HW213749   4.040   2.119   1.616 -1.8160  0.1148 -1.3157
34607SOL     OW13750  11.501   9.913   0.947  0.4918 -0.0104 -0.2525
34607SOL    HW113751  11.533   9.845   1.007 -0.8307 -0.0679  0.4243
34607SOL    HW213752  11.473   9.864   0.870  2.6320  0.1027 -1.1772
34608SOL     OW13753   8.326  10.075  11.995  0.0759 -0.1932  0.6721
34608SOL    HW113754   8.331   9.990  12.041  0.2746  0.0676  1.1451
34608SOL    HW213755   8.353  10.055  11.906  1.2648 -0.4327  1.0557
34609SOL     OW13756   6.205   5.765   8.217 -0.3449 -0.0358  0.0988
34609SOL    HW113757   6.190   5.726   8.130  0.7847 -1.1507  0.3671
34609SOL    HW213758   6.279   5.824   8.204  0.7899 -1.3049  0.5636
34610SOL     OW13759   7.565   6.018   2.164  0.5883  0.0119  0.3203
34610SOL    HW113760   7.506   5.946   2.143  1.9467 -0.7272 -1.1656
34610SOL    HW213761   7.507   6.093   2.179 -0.7280 -0.2059 -2.8931
34611SOL     OW13762  11.718   9.091   4.701  0.3599  0.4673  0.1639
34611SOL    HW113763  11.768   9.127   4.627  1.1716  1.3376  1.1169
34611SOL    HW213764  11.672   9.167   4.738 -0.3386 -0.0313  0.3300
34612SOL     OW13765   6.278  12.102  11.254 -0.4342  0.2642  0.1426
34612SOL    HW113766   6.269  12.056  11.170  2.1308 -0.0768 -0.0495
34612SOL    HW213767   6.331  12.179  11.232  1.2735 -0.4351  1.5932
34613SOL     OW13768   9.235   0.387   1.287 -0.0266 -0.5317  0.2541
34613SOL    HW113769   9.150   0.429   1.298  1.0120  1.7526  0.2924
34613SOL    HW213770   9.243   0.329   1.362 -1.8663 -1.4532 -0.2038
34614SOL     OW13771   9.999   6.553  11.590  0.1327  0.4908 -0.4269
34614SOL    HW113772  10.010   6.460  11.609  1.0108  0.8392  0.9693
34614SOL    HW213773  10.068   6.573  11.528 -0.9680 -0.0669 -1.8809
34615SOL     OW13774  12.084   1.867  10.210 -0.1140  0.2751  0.8486
34615SOL    HW113775  12.046   1.801  10.152 -0.9394  0.3770  1.2620
34615SOL    HW213776  12.117   1.817  10.285  0.5660  0.1883  0.4967
34616SOL     OW13777   4.178  10.485   2.182  0.5162  0.2379 -0.0304
34616SOL    HW113778   4.121  10.408   2.182 -0.5791  0.9149  2.6485
34616SOL    HW213779   4.184  10.511   2.090  0.0576 -2.3960 -0.8832
34617SOL     OW13780  10.382   7.073   2.157 -0.0040 -0.5147 -0.1292
34617SOL    HW113781  10.400   7.001   2.218 -1.5383  1.3037  2.6804
34617SOL    HW213782  10.327   7.034   2.089 -0.9296 -2.0088  1.3980
34618SOL     OW13783  12.654  10.423   1.443 -0.4989 -0.1527  0.5238
34618SOL    HW113784  12.658  10.368   1.364 -1.2436  1.8190 -0.9810
34618SOL    HW213785  12.736  10.472   1.442 -0.0472 -0.8528  1.5955
34619SOL     OW13786   1.997   3.575   9.960  0.6576  0.5183 -0.2027
34619SOL    HW113787   2.032   3.656   9.997  0.3331  1.1848 -1.3110
34619SOL    HW213788   2.041   3.505  10.010  2.1949  1.3485 -0.3270
34620SOL     OW13789   0.815   9.580   1.676  0.3555  0.6420 -0.0012
34620SOL    HW113790   0.801   9.588   1.581  1.0017 -1.0019 -0.2704
34620SOL    HW213791   0.797   9.488   1.695  0.2622  0.9481  1.4835
34621SOL     OW13792   3.710  12.463   1.479 -0.6430  0.6257  0.1348
34621SOL    HW113793   3.642  12.508   1.530 -1.3879  0.0270 -0.3131
34621SOL    HW213794   3.663  12.393   1.433  0.5107 -0.6645  0.8701
34622SOL     OW13795   0.998   2.157  12.493 -0.2670 -0.0825 -0.3525
34622SOL    HW113796   0.998   2.080  12.550  0.1820  1.4068  1.7801
34622SOL    HW213797   0.920   2.206  12.520 -1.9766 -0.8621 -3.3759
34623SOL     OW13798   4.055   8.877  12.746 -0.1245  0.1578  0.3515
34623SOL    HW113799   4.020   8.946  12.802  0.6394  1.4798 -0.7322
34623SOL    HW213800   4.054   8.798  12.801 -1.1170  0.9921  1.5847
34624SOL     OW13801   0.837   4.053   7.842  0.0010 -0.0159  0.2133
34624SOL    HW113802   0.746   4.049   7.873 -0.1059  3.4434  0.7360
34624SOL    HW213803   0.832   4.032   7.749 -1.2219 -0.4813  0.3695
34625SOL     OW13804   6.663   3.200   4.511 -0.1126  0.0364  0.8926
34625SOL    HW113805   6.707   3.225   4.592  1.0015 -2.7343  1.2675
34625SOL    HW213806   6.732   3.203   4.445 -0.7574  1.1738  0.2347
34626SOL     OW13807  11.736   0.373   8.623  0.0632 -0.3791  0.7380
34626SOL    HW113808  11.829   0.397   8.631  0.6279 -2.3488  0.5551
34626SOL    HW213809  11.717   0.324   8.702 -0.4564 -1.0949  0.1782
34627SOL     OW13810   3.643  11.635   6.790 -0.4052 -0.4331  0.3512
34627SOL    HW113811   3.662  11.560   6.847 -0.1278 -0.3167  0.4134
34627SOL    HW213812   3.565  11.675   6.828 -0.7808 -0.9118  0.0997
34628SOL     OW13813  10.961   1.573   5.328 -0.2095  0.0082 -0.9915
34628SOL    HW113814  11.047   1.615   5.335  0.1656 -0.7841 -0.6717
34628SOL    HW213815  10.981   1.480   5.314 -0.9751 -0.7425  2.1816
34629SOL     OW13816   3.690   1.402  11.361  0.2233 -0.1942 -0.6893
34629SOL    HW113817   3.683   1.426  11.269 -1.1961  0.0549 -0.5421
34629SOL    HW213818   3.669   1.308  11.363 -0.0370 -0.1336 -0.5859
34630SOL     OW13819   6.395   9.026   5.248  0.1835 -0.2576  0.1624
34630SOL    HW113820   6.442   8.955   5.205 -1.5488 -0.5917 -1.3245
34630SOL    HW213821   6.316   8.985   5.283  0.7042  0.3705  2.1734
34631SOL     OW13822   0.265  10.265   0.846 -0.2650 -0.3711 -0.6585
34631SOL    HW113823   0.304  10.353   0.849 -0.3615 -0.3258  2.5985
34631SOL    HW213824   0.340  10.206   0.837 -0.0405 -0.0489 -0.9311
34632SOL     OW13825   9.350   6.621   4.771  0.3120  0.7663 -0.0556
34632SOL    HW113826   9.355   6.527   4.788 -1.9677  0.8636  1.5305
34632SOL    HW213827   9.268   6.632   4.723 -0.9289  2.1858  2.2195
34633SOL     OW13828  12.415   3.007   7.229  0.0211  0.8020  0.5055
34633SOL    HW113829  12.435   2.955   7.151  0.7373  0.1719  1.0880
34633SOL    HW213830  12.494   3.000   7.283 -0.6806  0.7382  1.5537
34634SOL     OW13831   9.449  10.604  10.493 -0.3688 -0.1067  0.2684
34634SOL    HW113832   9.398  10.535  10.535  1.0152 -2.8258 -2.0859
34634SOL    HW213833   9.499  10.558  10.425  1.4811  3.1145 -0.7745
34635SOL     OW13834   3.384   4.869   2.690 -0.0154  0.1377  0.7336
34635SOL    HW113835   3.415   4.849   2.602 -0.2415  0.4173  0.5885
34635SOL    HW213836   3.289   4.872   2.682 -0.0566 -0.1852  1.0638
34636SOL     OW13837   1.600   7.950   5.690  0.3382  0.2697 -0.3203
34636SOL    HW113838   1.514   7.920   5.722 -0.2467  1.1463 -1.0323
34636SOL    HW213839   1.603   7.922   5.599  0.8630  0.1604 -0.2724
34637SOL     OW13840  10.179   5.477   7.558  0.0427  0.0571  0.0353
34637SOL    HW113841  10.213   5.564   7.581 -0.1060 -0.2540  1.5221
34637SOL    HW213842  10.257   5.423   7.549  0.0803 -0.3054  1.9929
34638SOL     OW13843   4.325   6.166   3.183 -0.1402  0.2204 -0.3050
34638SOL    HW113844   4.283   6.081   3.180  0.2520 -0.0455  1.1310
34638SOL    HW213845   4.302   6.207   3.100  1.0817 -1.9329 -1.7897
34639SOL     OW13846   3.409   7.227   6.618 -0.0285  0.3596 -0.0393
34639SOL    HW113847   3.482   7.220   6.556 -0.1186  0.1531 -0.1233
34639SOL    HW213848   3.435   7.297   6.678  0.3521  0.1205  0.0797
34640SOL     OW13849   8.719   8.902   3.191  0.0564 -0.1464  0.2957
34640SOL    HW113850   8.648   8.934   3.136  1.7567  1.2675 -1.2267
34640SOL    HW213851   8.722   8.808   3.173 -1.4599 -0.2490  0.4724
34641SOL     OW13852   8.874   1.136   3.451 -0.6552 -0.0419 -0.1960
34641SOL    HW113853   8.967   1.134   3.427  0.2306 -1.8719  2.8345
34641SOL    HW213854   8.848   1.227   3.435  2.2108  1.0478  0.6287
34642SOL     OW13855   1.058  12.120  11.658 -0.0473  0.3347  0.1207
34642SOL    HW113856   1.149  12.148  11.670  0.0892  0.1534 -0.4366
34642SOL    HW213857   1.019  12.190  11.605 -0.4204  0.7469  0.9304
34643SOL     OW13858   9.987  10.993   6.620  0.2600 -0.2994 -0.2026
34643SOL    HW113859  10.032  10.908   6.628 -0.5107 -0.6589  0.5031
34643SOL    HW213860   9.994  11.031   6.707 -0.7081 -0.3181 -0.1112
34644SOL     OW13861   8.236  12.726  12.210 -0.1963 -0.2690 -0.4575
34644SOL    HW113862   8.186  12.776  12.146 -0.6842  1.5091  1.2054
34644SOL    HW213863   8.254  12.642  12.167 -1.6972  0.3133 -2.3507
34645SOL     OW13864   0.683   6.900   8.711  0.2855 -0.7442 -0.2244
34645SOL    HW113865   0.762   6.851   8.736  0.6371 -1.3086 -2.2717
34645SOL    HW213866   0.715   6.969   8.654 -0.5357  0.1443  0.3718
34646SOL     OW13867   3.433   6.662   2.355 -0.2841  0.2664  0.2890
34646SOL    HW113868   3.523   6.638   2.331  0.0573  2.2858 -0.6881
34646SOL    HW213869   3.426   6.640   2.448 -0.0013 -3.2100 -0.3520
34647SOL     OW13870   1.151   0.645   3.531 -0.0260 -0.5596  0.2664
34647SOL    HW113871   1.124   0.577   3.470  0.6948 -0.1889 -0.4908
34647SOL    HW213872   1.069   0.680   3.567 -0.4340 -1.1090 -0.1233
34648SOL     OW13873   1.291   6.711   9.126 -0.8605  0.4635  0.1964
34648SOL    HW113874   1.313   6.748   9.212 -1.9616 -0.1398  0.7749
34648SOL    HW213875   1.267   6.620   9.145 -1.3155  0.3786 -0.7231
34649SOL     OW13876   6.624   4.020   9.380  0.5376 -0.0833 -0.2303
34649SOL    HW113877   6.695   3.986   9.434  0.1767 -0.8955 -0.2586
34649SOL    HW213878   6.553   3.956   9.389  0.6556 -0.5381 -2.0792
34650SOL     OW13879   8.546   5.069   1.297  0.0544 -0.3747  0.0793
34650SOL    HW113880   8.493   5.137   1.255 -0.9356 -0.7139  0.7398
34650SOL    HW213881   8.538   4.993   1.239 -0.5205 -0.5449  0.3706
34651SOL     OW13882   1.388  11.870   7.895 -0.2462 -0.0507 -0.4144
34651SOL    HW113883   1.304  11.828   7.917 -0.5463 -0.0726 -1.5428
34651SOL    HW213884   1.437  11.803   7.849 -0.8755  0.8739 -2.5754
34652SOL     OW13885   4.274  13.106   0.984 -0.1249  0.3753 -0.3233
34652SOL    HW113886   4.351  13.052   0.967 -0.3747  0.7864 -3.2200
34652SOL    HW213887   4.201  13.044   0.984 -0.0723  0.3122 -0.4245
34653SOL     OW13888   9.392   2.516   0.329 -0.2252  0.1856 -0.1014
34653SOL    HW113889   9.362   2.603   0.303  0.3927  0.6139  0.5896
34653SOL    HW213890   9.461   2.495   0.266 -0.1254  0.3566 -0.0516
34654SOL     OW13891   5.797   3.603   0.567  0.1431 -0.1272  0.6342
34654SOL    HW113892   5.814   3.514   0.598 -0.1473 -0.0373  1.0551
34654SOL    HW213893   5.884   3.639   0.547  0.1590 -1.1973 -1.4843
34655SOL     OW13894   1.886   6.091   8.435 -0.4434 -0.1040  0.2787
34655SOL    HW113895   1.846   6.004   8.438  0.9998 -0.8155 -0.1095
34655SOL    HW213896   1.812   6.152   8.438 -1.5812 -1.3544 -1.1001
34656SOL     OW13897  12.269   6.135   5.318  0.4373  0.0739 -0.1522
34656SOL    HW113898  12.187   6.105   5.280  0.7641  0.1633 -0.9538
34656SOL    HW213899  12.336   6.103   5.257  0.9497  0.5089  0.1788
34657SOL     OW13900  12.154   3.965   9.619  0.0632 -0.3618 -0.1900
34657SOL    HW113901  12.208   3.970   9.698 -1.5173  1.6634  0.8366
34657SOL    HW213902  12.112   3.879   9.625  1.8185 -1.2699 -0.1631
34658SOL     OW13903   3.096  11.753  11.202  0.8323 -0.2674 -0.0921
34658SOL    HW113904   3.114  11.774  11.294  0.5748 -1.8636  0.3507
34658SOL    HW213905   3.003  11.774  11.191  1.0918  0.8459 -0.2797
34659SOL     OW13906  11.811   6.809   5.173 -0.2224 -0.1491 -0.2197
34659SOL    HW113907  11.777   6.862   5.245 -0.2672 -0.6777  0.1497
34659SOL    HW213908  11.734   6.766   5.136  0.0470 -1.5107  0.7496
34660SOL     OW13909  10.904   2.382   2.174  0.5835  0.0993 -0.3164
34660SOL    HW113910  10.969   2.420   2.115  0.4818 -0.3402 -0.7151
34660SOL    HW213911  10.952   2.362   2.254  0.6674  0.9460 -0.1455
34661SOL     OW13912  10.192  11.721  12.204  0.1143  0.1348  0.3566
34661SOL    HW113913  10.285  11.706  12.223 -0.4124 -3.7717  0.8230
34661SOL    HW213914  10.183  11.698  12.111 -0.0988  2.7669 -0.3458
34662SOL     OW13915   6.158  13.220  13.111 -0.0218  0.2140  0.4797
34662SOL    HW113916   6.097  13.225  13.184  0.2429 -1.1681  0.8101
34662SOL    HW213917   6.244  13.228  13.152  0.0989  4.2499 -0.1532
34663SOL     OW13918   5.397   0.797  12.701  0.2261 -0.1040 -0.0136
34663SOL    HW113919   5.477   0.756  12.734  0.0178 -0.5215 -0.0262
34663SOL    HW213920   5.407   0.890  12.723  0.0597 -0.3756  1.3124
34664SOL     OW13921   2.453  12.512   2.108  0.4307  0.2898  0.1056
34664SOL    HW113922   2.451  12.480   2.198  0.2932 -0.7650 -0.2518
34664SOL    HW213923   2.386  12.580   2.105  1.0853  1.0105  1.0256
34665SOL     OW13924   7.232   8.894   3.385 -0.1091  0.5270  0.1457
34665SOL    HW113925   7.258   8.938   3.304 -0.3073 -0.6472 -0.5678
34665SOL    HW213926   7.137   8.910   3.391 -0.1577  0.3224 -0.0459
34666SOL     OW13927  12.770   6.043   6.018 -0.3357  0.4696  0.2697
34666SOL    HW113928  12.710   6.020   5.947 -0.1167  0.2893  0.1426
34666SOL    HW213929  12.840   5.978   6.013 -0.0946  0.7181  0.3766
34667SOL     OW13930   0.285  11.631   1.814 -0.2904 -0.6553  0.1115
34667SOL    HW113931   0.367  11.648   1.768 -0.8453 -0.0493 -0.6710
34667SOL    HW213932   0.275  11.536   1.809  0.1888 -0.7026 -0.0866
34668SOL     OW13933   0.198   2.954   1.618 -0.0166 -0.3710 -0.0544
34668SOL    HW113934   0.253   2.881   1.648  0.3631 -0.4294 -0.8489
34668SOL    HW213935   0.156   2.921   1.538 -0.3501  0.0599 -0.0609
34669SOL     OW13936  12.836   4.082   9.951  0.3602  0.5296 -0.0630
34669SOL    HW113937  12.747   4.102   9.980  0.1586 -1.1613  0.6007
34669SOL    HW213938  12.824   4.022   9.877  0.9400  0.3410 -0.0092
34670SOL     OW13939   4.051   7.251   2.692  0.0569 -0.3882 -0.0585
34670SOL    HW113940   3.977   7.192   2.705 -0.9099  0.8215  0.1974
34670SOL    HW213941   4.089   7.224   2.608 -1.1412 -0.5645 -0.5590
34671SOL     OW13942   7.301   6.247   4.227 -0.3373 -0.1777  0.3861
34671SOL    HW113943   7.252   6.165   4.222 -1.3469  0.3186  1.5897
34671SOL    HW213944   7.260   6.305   4.163 -0.0294 -0.3969 -0.0146
34672SOL     OW13945   7.705   3.731   2.654 -0.5554  0.0091  0.2161
34672SOL    HW113946   7.629   3.789   2.643 -0.1149  0.4223 -0.7122
34672SOL    HW213947   7.740   3.755   2.740 -0.2383  1.3210 -0.2513
34673SOL     OW13948   3.949  10.058  10.105  0.0853  0.0618  0.4972
34673SOL    HW113949   3.931  10.149  10.079 -3.1696 -0.5670  0.0554
34673SOL    HW213950   4.023  10.064  10.165  0.8993  2.8258 -0.6305
34674SOL     OW13951   4.587  11.237   1.545  0.1451  0.1693 -0.1805
34674SOL    HW113952   4.555  11.248   1.634 -0.1576 -0.1383 -0.2505
34674SOL    HW213953   4.594  11.142   1.533 -0.1347  0.1975 -0.5933
34675SOL     OW13954   8.237   5.365   0.979  0.2541  0.3593  0.2683
34675SOL    HW113955   8.210   5.433   0.917  0.2493  0.2208  0.1195
34675SOL    HW213956   8.181   5.290   0.959 -0.5973  0.7060  1.2426
34676SOL     OW13957  12.141  10.094   1.887  0.0783 -0.9221 -0.0767
34676SOL    HW113958  12.060  10.143   1.876  0.4294 -0.4610 -0.6184
34676SOL    HW213959  12.197  10.123   1.815  1.7953  0.8721  1.8628
34677SOL     OW13960  11.408  11.229   2.640 -0.6152 -0.1589 -0.0775
34677SOL    HW113961  11.414  11.228   2.545  0.3069 -1.1412 -0.0246
34677SOL    HW213962  11.365  11.312   2.660 -1.3581 -0.2013 -1.3684
34678SOL     OW13963   4.116   0.073   2.033 -0.0243  0.5949  0.1129
34678SOL    HW113964   4.096   0.124   1.954 -0.7065 -0.2311 -0.2622
34678SOL    HW213965   4.093  -0.017   2.010 -0.3816  0.3645  1.3141
34679SOL     OW13966   6.455   8.531  10.625  0.0637 -0.1836 -0.4072
34679SOL    HW113967   6.367   8.551  10.657 -0.1841 -1.2626 -0.3764
34679SOL    HW213968   6.500   8.492  10.701  0.5048  0.1729 -0.4804
34680SOL     OW13969   6.659   0.415   7.473  0.1600 -0.1771 -0.0410
34680SOL    HW113970   6.680   0.326   7.502  1.6961 -0.2579 -1.2382
34680SOL    HW213971   6.737   0.467   7.494 -1.2546  1.2638  1.9429
34681SOL     OW13972   4.460   8.334   9.334 -0.1645  0.3504 -0.4426
34681SOL    HW113973   4.447   8.282   9.254 -1.8865 -0.2473  0.1867
34681SOL    HW213974   4.532   8.393   9.312  0.1281 -0.5391 -2.0643
34682SOL     OW13975   7.386   0.189  10.516  0.4626  0.2565 -0.3238
34682SOL    HW113976   7.325   0.262  10.519 -1.5212 -1.1438 -2.6959
34682SOL    HW213977   7.356   0.130  10.585  0.1000  0.3013 -0.4406
34683SOL     OW13978  11.695   4.670  13.199 -0.1122  0.0797 -0.6036
34683SOL    HW113979  11.790   4.662  13.190 -0.4109 -2.8059 -2.4242
34683SOL    HW213980  11.667   4.719  13.121 -0.1621  0.8145 -0.1351
34684SOL     OW13981   4.540   1.161   5.131  0.3014  0.3299  0.2564
34684SOL    HW113982   4.627   1.189   5.105 -0.0502  1.4435  0.2387
34684SOL    HW213983   4.482   1.233   5.105 -0.4246  0.2815  1.6439
34685SOL     OW13984  11.836   3.742  10.446 -0.0723  0.1625  0.7783
34685SOL    HW113985  11.922   3.704  10.462 -0.5840 -1.6051 -0.2802
34685SOL    HW213986  11.785   3.670  10.408 -1.2878  1.8080 -0.9273
34686SOL     OW13987   0.594   5.291   1.859  0.1158  0.2700  0.5610
34686SOL    HW113988   0.615   5.288   1.766  0.0047  2.3241  0.4265
34686SOL    HW213989   0.502   5.266   1.864  0.4886 -1.2565  0.3113
34687SOL     OW13990   9.932  10.430  11.449 -0.1288  0.0109  0.5093
34687SOL    HW113991   9.952  10.523  11.454 -1.5695  0.3132  1.1629
34687SOL    HW213992   9.886  10.420  11.366 -0.4699 -0.0187  0.7020
34688SOL     OW13993   0.587   7.312   9.469 -0.2204 -0.3224  0.0053
34688SOL    HW113994   0.491   7.310   9.462 -0.2594  0.4095  0.3036
34688SOL    HW213995   0.606   7.267   9.551 -0.4233  1.1089  0.8623
34689SOL     OW13996   0.580   2.223  10.441  0.1604  0.3531  0.0057
34689SOL    HW113997   0.608   2.312  10.458  1.3077  0.0857 -0.4234
34689SOL    HW213998   0.501   2.212  10.494 -0.6856  1.9919 -0.8475
34690SOL     OW13999   9.248   9.277  10.697  0.3873  1.0582 -0.6014
34690SOL    HW114000   9.192   9.201  10.715 -0.2874  1.8017  0.5400
34690SOL    HW214001   9.246   9.286  10.602  0.0858 -0.0554 -0.7224
34691SOL     OW14002  10.448  11.594   2.811 -0.0332 -0.0027 -0.3976
34691SOL    HW114003  10.426  11.518   2.757  0.4994  0.6518 -1.5649
34691SOL    HW214004  10.363  11.633   2.833 -0.2501 -0.2072 -0.8623
34692SOL     OW14005  11.194   2.713   0.009  0.1202  0.2857  0.0710
34692SOL    HW114006  11.137   2.640   0.033  0.2448  0.5579  1.2573
34692SOL    HW214007  11.202   2.707  -0.086 -0.3059 -0.9191  0.0942
34693SOL     OW14008   4.335   7.787   4.420  0.1063  0.0057  0.2187
34693SOL    HW114009   4.352   7.694   4.436  2.8931  0.0950 -1.4176
34693SOL    HW214010   4.302   7.790   4.330  3.3238  0.6745 -1.0987
34694SOL     OW14011   6.993  10.699   9.358  0.0469  0.6069  0.6724
34694SOL    HW114012   7.038  10.635   9.303 -0.1952  0.5823  0.4967
34694SOL    HW214013   7.048  10.777   9.355  0.5157  0.2973  1.1633
34695SOL     OW14014   5.805   6.094   1.136  0.1507 -0.0456 -0.1515
34695SOL    HW114015   5.761   6.129   1.214 -0.7817 -0.6910 -0.3647
34695SOL    HW214016   5.835   6.007   1.162  0.8261  0.1803 -0.1757
34696SOL     OW14017   2.360   2.065   3.085 -0.2354 -0.3891 -0.0671
34696SOL    HW114018   2.273   2.103   3.084 -0.0986  0.2500  3.0424
34696SOL    HW214019   2.419   2.139   3.099  0.6753 -0.9891 -0.5591
34697SOL     OW14020   6.045  10.326   8.400 -0.4901  0.8117 -0.2012
34697SOL    HW114021   6.067  10.325   8.493 -1.7554 -0.3679  0.1232
34697SOL    HW214022   6.129  10.320   8.355  0.1359  1.3616  0.8524
34698SOL     OW14023   0.972   1.337  12.884  0.2715  0.1947  0.1332
34698SOL    HW114024   0.965   1.274  12.956 -1.6250  1.4619  1.1417
34698SOL    HW214025   1.060   1.373  12.892  1.5835 -2.5177 -0.7205
34699SOL     OW14026   9.499   2.479  12.750 -0.1889  0.2145  0.0961
34699SOL    HW114027   9.536   2.396  12.781 -1.6825 -0.4568  0.1246
34699SOL    HW214028   9.538   2.545  12.808 -1.4735 -0.8137  2.2549
34700SOL     OW14029  12.261   7.177  11.752 -0.4764  0.7705  0.3515
34700SOL    HW114030  12.338   7.175  11.696 -0.4999  1.0696  0.3068
34700SOL    HW214031  12.232   7.086  11.756 -0.3755  0.7216  0.0154
34701SOL     OW14032  10.616  13.036   4.320 -0.2231 -0.0791  1.1054
34701SOL    HW114033  10.637  13.022   4.228  0.0286  0.2788  1.1055
34701SOL    HW214034  10.700  13.049   4.362 -0.3845  0.6428  1.2270
34702SOL     OW14035   9.783   8.654   7.695  0.9017  0.0836  0.1806
34702SOL    HW114036   9.860   8.624   7.647  0.8667  2.3944 -1.4444
34702SOL    HW214037   9.760   8.738   7.655  0.1658  1.6323  3.4831
34703SOL     OW14038   9.057  10.422   5.104 -0.3054 -0.3751 -0.7312
34703SOL    HW114039   9.066  10.506   5.150  0.3209  0.4476 -2.2806
34703SOL    HW214040   9.121  10.427   5.034  0.1111 -2.4053 -0.5365
34704SOL     OW14041  12.368   0.493   4.906 -0.3413  0.3030 -0.5120
34704SOL    HW114042  12.339   0.433   4.838  0.4028 -1.3165  0.5556
34704SOL    HW214043  12.463   0.493   4.900 -0.1996 -0.7251  1.1908
34705SOL     OW14044   6.629  10.740   7.352 -0.3191 -0.1357 -0.5919
34705SOL    HW114045   6.542  10.777   7.364 -0.0279 -0.0747  1.6916
34705SOL    HW214046   6.628  10.707   7.262 -3.3113 -1.7505 -0.1044
34706SOL     OW14047   1.123   9.801  11.154  0.4256  0.5021  0.2310
34706SOL    HW114048   1.194   9.737  11.157  3.1546  3.3006  0.6388
34706SOL    HW214049   1.129   9.841  11.067 -1.1664  0.3649  0.0128
34707SOL     OW14050  10.213  10.407   4.788  0.2321 -0.3309  0.4048
34707SOL    HW114051  10.212  10.331   4.730  1.0037 -0.1780  0.1933
34707SOL    HW214052  10.282  10.388   4.852 -0.5178 -0.4414  1.2081
34708SOL     OW14053  10.069   1.117   1.737  0.0939 -0.2077  0.3285
34708SOL    HW114054  10.029   1.056   1.799  1.1763 -0.5341  0.7267
34708SOL    HW214055  10.012   1.113   1.660 -2.0889  1.2610  1.7468
34709SOL     OW14056   2.092   6.251   6.597  1.0633 -0.7572  0.1065
34709SOL    HW114057   2.129   6.211   6.676 -1.4309  1.9803  2.9282
34709SOL    HW214058   2.007   6.210   6.586 -0.0933  1.2003  1.0718
34710SOL     OW14059   1.938   4.882  12.006 -0.1288 -0.3047 -0.2720
34710SOL    HW114060   1.907   4.792  11.996 -2.4740 -0.1125  3.5148
34710SOL    HW214061   1.859   4.935  12.006  0.8254  1.2382  1.5626
34711SOL     OW14062   1.421   7.520  12.888 -0.4897 -0.0737 -0.5138
34711SOL    HW114063   1.373   7.455  12.939  0.8503 -2.8478 -2.5239
34711SOL    HW214064   1.492   7.548  12.947 -0.0893 -1.7766 -0.1128
34712SOL     OW14065  11.202   2.477   9.996 -0.7698 -0.4474 -0.0951
34712SOL    HW114066  11.249   2.395   9.978  2.0785  1.2637 -1.1902
34712SOL    HW214067  11.257   2.522  10.060 -1.6478  1.1002 -0.3867
34713SOL     OW14068   0.052   9.467  12.756  0.4723 -0.1075 -0.7964
34713SOL    HW114069   0.085   9.547  12.715  1.8480 -1.4291 -2.4315
34713SOL    HW214070  -0.000   9.498  12.831  1.7779  2.2508 -0.7598
34714SOL     OW14071   2.151   0.306   2.010 -0.1766 -0.6848  0.0120
34714SOL    HW114072   2.227   0.312   1.952 -0.6738 -0.4291 -0.6178
34714SOL    HW214073   2.076   0.324   1.954 -0.6071  0.3789  0.8900
34715SOL     OW14074   6.989   0.736   2.005 -0.5121  0.3932 -0.5598
34715SOL    HW114075   7.042   0.788   2.066  2.8587  0.0196 -2.8840
34715SOL    HW214076   6.922   0.797   1.973 -1.2641  1.0810  2.0940
34716SOL     OW14077  12.080  10.357  10.932  0.3465  0.2739  0.2027
34716SOL    HW114078  12.119  10.290  10.989  1.2785  0.2273 -0.4628
34716SOL    HW214079  12.087  10.438  10.983  0.2333  0.0590  0.5652
34717SOL     OW14080   0.904  10.992   8.935 -0.3801 -0.6700 -0.6022
34717SOL    HW114081   0.817  11.032   8.941  0.1032  0.2814  0.2487
34717SOL    HW214082   0.964  11.065   8.925  0.6728 -0.9922  2.3613
34718SOL     OW14083   2.051  11.985   5.266 -0.2417 -0.4484  0.2086
34718SOL    HW114084   1.970  12.034   5.255 -0.0776 -0.3207 -0.4400
34718SOL    HW214085   2.103  12.006   5.189  0.5779 -0.2123  0.8220
34719SOL     OW14086  12.810   6.147   4.620 -0.3823 -0.7922  0.2036
34719SOL    HW114087  12.872   6.176   4.688  0.0088  0.1059 -0.5052
34719SOL    HW214088  12.829   6.204   4.545 -2.1341 -0.4316 -0.0121
34720SOL     OW14089   3.926   7.610   5.750 -0.3455 -0.6088  0.2267
34720SOL    HW114090   3.923   7.522   5.712  0.8854 -1.1366  1.2847
34720SOL    HW214091   4.009   7.613   5.798 -0.7588  0.8398  0.9074
34721SOL     OW14092   8.592   2.350   3.667  0.3864 -0.2699 -0.7810
34721SOL    HW114093   8.616   2.289   3.597  1.3307 -0.4987 -0.2707
34721SOL    HW214094   8.620   2.436   3.635  0.1960 -0.2748 -0.9653
34722SOL     OW14095   0.083   7.166   6.720 -0.0824 -0.0039 -0.3668
34722SOL    HW114096   0.052   7.075   6.712  0.8435 -0.4452  0.7185
34722SOL    HW214097   0.073   7.185   6.813  1.7185  0.2578 -0.2054
34723SOL     OW14098   2.504  11.344   8.937 -0.1929 -0.3802 -0.1755
34723SOL    HW114099   2.460  11.428   8.950 -0.5962 -0.5356 -0.4926
34723SOL    HW214100   2.437  11.288   8.895  0.1532 -0.7728 -0.2144
34724SOL     OW14101  10.790   0.297   6.529  0.0515 -0.0971 -0.1052
34724SOL    HW114102  10.807   0.387   6.501  1.1369 -0.4634 -0.6535
34724SOL    HW214103  10.701   0.280   6.498  0.4263  0.2438 -1.4700
34725SOL     OW14104  11.391   8.589   9.325  0.0319 -0.2869 -0.1225
34725SOL    HW114105  11.401   8.656   9.257 -1.7691  1.7347  1.4485
34725SOL    HW214106  11.299   8.564   9.320  0.0625 -0.6711  1.0643
34726SOL     OW14107   9.964   9.350  12.834 -0.8377 -0.2514  0.3633
34726SOL    HW114108  10.020   9.273  12.838  0.8753  0.9760  1.7526
34726SOL    HW214109   9.997   9.400  12.759 -0.3467  0.2514  0.9042
34727SOL     OW14110   2.231   8.044   2.689  0.2021  0.1789 -0.4494
34727SOL    HW114111   2.244   7.995   2.770 -1.1208 -0.9926 -0.9181
34727SOL    HW214112   2.286   8.122   2.700 -1.6454  1.2545  2.5724
34728SOL     OW14113  11.369   2.119  11.310  0.1969 -0.6116 -0.0656
34728SOL    HW114114  11.316   2.084  11.239  0.1030  0.1216 -0.3752
34728SOL    HW214115  11.443   2.059  11.318 -1.9203 -3.1318  2.1116
34729SOL     OW14116   2.521   9.919   6.465 -0.5572 -0.3750 -0.0180
34729SOL    HW114117   2.537   9.953   6.377  1.3266 -0.4923  0.2280
34729SOL    HW214118   2.484   9.832   6.451 -1.6799  0.2009 -0.6753
34730SOL     OW14119   2.342   8.590   1.684 -0.0044 -0.1894  0.4616
34730SOL    HW114120   2.355   8.627   1.772 -2.5955  1.2642  0.3434
34730SOL    HW214121   2.366   8.661   1.624 -1.3030 -0.0023  0.1272
34731SOL     OW14122   1.407   5.195   0.150 -0.0372 -0.2585 -0.2211
34731SOL    HW114123   1.351   5.135   0.200 -0.6773 -0.3080 -0.9743
34731SOL    HW214124   1.496   5.163   0.165 -0.2503 -0.5047  0.5615
34732SOL     OW14125   6.830   6.325   2.302  0.5748  0.1398  0.0033
34732SOL    HW114126   6.758   6.293   2.356  0.1996  0.1790 -0.4664
34732SOL    HW214127   6.904   6.269   2.326  0.2924 -0.1444  0.2239
34733SOL     OW14128   9.605   4.707  11.240  0.6858 -0.5238 -0.0101
34733SOL    HW114129   9.513   4.691  11.217  1.0529 -3.2986  0.0991
34733SOL    HW214130   9.628   4.786  11.192 -1.3940 -0.5200 -1.1309
34734SOL     OW14131   4.907   9.765   9.137  0.8248  0.3591  0.0742
34734SOL    HW114132   4.961   9.740   9.212  0.4144 -0.8817 -0.0313
34734SOL    HW214133   4.971   9.791   9.070  1.1799  2.6918  1.1992
34735SOL     OW14134   3.280   5.764   4.564 -0.5911  0.2251  0.2260
34735SOL    HW114135   3.372   5.736   4.557  0.7907  4.4594 -1.1219
34735SOL    HW214136   3.253   5.732   4.650  2.2714 -0.8039  0.8815
34736SOL     OW14137   6.007  10.653   5.011 -0.0018  0.3477 -0.6340
34736SOL    HW114138   5.935  10.698   5.053 -0.9094 -1.2267 -0.4239
34736SOL    HW214139   6.055  10.611   5.083  2.0549  2.5398 -0.5946
34737SOL     OW14140   0.134   3.200   2.602  0.1794 -0.4762  0.3628
34737SOL    HW114141   0.054   3.224   2.556  0.3258 -0.0385  0.3303
34737SOL    HW214142   0.138   3.261   2.676  0.5619 -0.3922  0.2734
34738SOL     OW14143   6.743   1.523  12.807 -0.0705  0.5577 -0.3000
34738SOL    HW114144   6.787   1.482  12.732 -0.9713 -0.4088 -0.3311
34738SOL    HW214145   6.800   1.504  12.881  0.4282  0.8178 -0.6096
34739SOL     OW14146   6.751  11.744   1.398 -0.5733  0.1536  0.1660
34739SOL    HW114147   6.806  11.704   1.330 -1.3508 -0.8972  0.1303
34739SOL    HW214148   6.694  11.804   1.349  1.0169  1.8447  0.2917
34740SOL     OW14149   4.909   8.776   7.753  0.0105 -0.1077 -0.6081
34740SOL    HW114150   4.960   8.821   7.685  0.9649 -1.8613 -1.1107
34740SOL    HW214151   4.938   8.816   7.835  1.1234 -0.0694 -1.0022
34741SOL     OW14152  12.552   8.092  10.784 -0.5456  0.0809  0.1465
34741SOL    HW114153  12.571   8.020  10.724  1.3548 -0.8639  1.7712
34741SOL    HW214154  12.629   8.149  10.779 -1.2422  1.0599  0.2257
34742SOL     OW14155   0.348   9.426   9.032 -0.3157 -1.5385  0.3587
34742SOL    HW114156   0.307   9.410   8.947 -1.4534 -2.0215  0.9726
34742SOL    HW214157   0.277   9.460   9.086  0.7110  0.1032  0.7390
34743SOL     OW14158  10.885   2.787  10.157  0.0121  0.2201  0.1744
34743SOL    HW114159  10.861   2.824  10.242 -0.7206 -0.0150  0.0726
34743SOL    HW214160  10.868   2.857  10.094  1.1820  0.6260  0.2836
34744SOL     OW14161  10.774   7.089  11.563  0.2572 -0.2599 -0.2143
34744SOL    HW114162  10.756   7.113  11.472 -1.3042 -0.0743  0.1153
34744SOL    HW214163  10.810   7.001  11.557 -0.2490 -0.4303 -1.0026
34745SOL     OW14164   3.436   7.027   1.756 -0.7369 -0.2416  0.0272
34745SOL    HW114165   3.490   7.092   1.800 -0.2088 -0.5089 -0.2139
34745SOL    HW214166   3.413   7.066   1.672  0.2923 -0.6921 -0.4797
34746SOL     OW14167   8.685  12.985   0.654 -0.5670 -0.3521  0.1503
34746SOL    HW114168   8.602  12.960   0.614 -0.1289  0.3390 -1.2367
34746SOL    HW214169   8.751  12.955   0.592  0.3662 -2.3591  1.9764
34747SOL     OW14170   7.685   0.815   4.395 -0.4213 -0.1218  0.2982
34747SOL    HW114171   7.663   0.878   4.327 -4.6037 -0.7495  0.7845
34747SOL    HW214172   7.719   0.739   4.347 -2.7522 -0.3406 -1.1791
34748SOL     OW14173   5.696   3.627   1.580 -0.1870 -0.0590 -0.0589
34748SOL    HW114174   5.619   3.635   1.524 -0.2368 -1.0333 -0.1584
34748SOL    HW214175   5.674   3.678   1.658 -0.2827  0.9656 -0.7378
34749SOL     OW14176   5.359   4.883  11.917  0.9625  0.6841 -0.2180
34749SOL    HW114177   5.414   4.851  11.845  1.5696  2.9082 -0.8136
34749SOL    HW214178   5.358   4.978  11.906  0.0908  0.9948  2.0349
34750SOL     OW14179   6.836   7.331  12.459  0.4214 -0.5658  0.0528
34750SOL    HW114180   6.929   7.323  12.478  0.8461 -3.0512 -2.4511
34750SOL    HW214181   6.831   7.396  12.388  0.1700 -0.1215  0.4680
34751SOL     OW14182   6.040  12.069  10.103  0.4437 -0.1805 -0.5335
34751SOL    HW114183   6.080  12.120  10.174  1.0417  0.4245 -1.2822
34751SOL    HW214184   5.947  12.094  10.105  0.7381  1.0435 -0.9472
34752SOL     OW14185   6.212   6.033  12.598  0.2608  0.7011 -0.4154
34752SOL    HW114186   6.154   6.054  12.525  0.6132 -0.6119 -1.0854
34752SOL    HW214187   6.154   6.001  12.667  0.1142  0.2001 -0.7763
34753SOL     OW14188  12.291   2.654   8.427 -0.5952 -0.5028 -0.6846
34753SOL    HW114189  12.344   2.595   8.374  0.9462 -0.3282  0.5959
34753SOL    HW214190  12.333   2.653   8.513 -0.1713  2.8324 -0.7190
34754SOL     OW14191   9.967   9.490   6.115 -0.4680 -0.2608  0.5322
34754SOL    HW114192  10.018   9.410   6.118  1.4317  0.8903  0.5331
34754SOL    HW214193   9.886   9.469   6.162 -0.8724 -2.6944 -1.0701
34755SOL     OW14194   5.606   9.793  12.821  0.1195  0.2744  0.1276
34755SOL    HW114195   5.644   9.870  12.863  1.9898 -1.7506  2.3944
34755SOL    HW214196   5.513   9.814  12.814  0.4472  2.4541  1.2923
34756SOL     OW14197   4.327   9.836  11.832 -0.0218  0.3672 -0.7027
34756SOL    HW114198   4.311   9.906  11.896  1.9196 -0.7867  1.1983
34756SOL    HW214199   4.240   9.799  11.816 -0.4838 -0.3263  2.6259
34757SOL     OW14200   9.311   1.782   0.726 -0.1984 -0.0388 -0.0881
34757SOL    HW114201   9.300   1.862   0.675 -0.4722 -0.0267 -0.0109
34757SOL    HW214202   9.373   1.805   0.795 -0.2960  0.1148 -0.0508
34758SOL     OW14203   9.199  11.027  11.952 -0.2010 -0.0049  0.0032
34758SOL    HW114204   9.111  11.062  11.941 -0.7292 -0.7594  1.5267
34758SOL    HW214205   9.219  10.985  11.869 -0.8261  1.1484 -0.7415
34759SOL     OW14206   2.446  11.009   9.196 -0.0143 -0.6403 -0.2479
34759SOL    HW114207   2.519  11.025   9.255 -0.3917 -1.3696  0.4425
34759SOL    HW214208   2.485  11.010   9.109  0.8139 -0.9708  0.1039
34760SOL     OW14209  11.243   2.991   1.241 -0.3439 -0.5129  0.7777
34760SOL    HW114210  11.262   3.065   1.298  2.3920  1.2720 -2.1255
34760SOL    HW214211  11.286   3.013   1.158 -0.9870 -4.5467 -0.8487
34761SOL     OW14212   9.290   1.268  12.167 -0.1180 -0.0542 -0.9830
34761SOL    HW114213   9.384   1.278  12.180  0.3651  0.5815 -4.1973
34761SOL    HW214214   9.277   1.174  12.156  0.5710  0.0112 -2.7115
34762SOL     OW14215   1.896   2.237   5.524  0.1845  0.2997 -0.4882
34762SOL    HW114216   1.819   2.194   5.561 -0.3112  0.3181 -1.4757
34762SOL    HW214217   1.864   2.323   5.497  0.8176  0.7288  0.0993
34763SOL     OW14218   2.523   4.180  10.850  0.1265 -0.6911  0.2954
34763SOL    HW114219   2.556   4.144  10.768  0.5301 -0.0978  0.1869
34763SOL    HW214220   2.599   4.180  10.909  0.4928  1.1369 -0.1101
34764SOL     OW14221   0.734   3.215   0.514 -0.2751 -0.2172 -0.1743
34764SOL    HW114222   0.728   3.240   0.606  0.2818 -0.2539 -0.1240
34764SOL    HW214223   0.813   3.258   0.483 -1.0576  0.6950 -0.9347
34765SOL     OW14224  12.784   2.283   0.042 -0.3616 -0.3782  0.0293
34765SOL    HW114225  12.742   2.240   0.116  0.6268  1.0529  1.5018
34765SOL    HW214226  12.875   2.252   0.045 -0.3478 -0.4370 -0.7113
34766SOL     OW14227  10.165   2.349   4.211 -0.0278  0.0141 -0.1138
34766SOL    HW114228  10.099   2.312   4.270  0.1107  0.4289  0.3045
34766SOL    HW214229  10.195   2.274   4.160 -1.5830  0.0045 -1.0591
34767SOL     OW14230   2.774   4.911   0.004 -0.0015  0.0143 -0.6325
34767SOL    HW114231   2.765   4.858   0.083  0.8700  0.0489 -0.4916
34767SOL    HW214232   2.860   4.953   0.014 -0.6720  1.4456 -0.7443
34768SOL     OW14233  10.437  10.926   9.045 -0.0698 -0.1992  0.1800
34768SOL    HW114234  10.388  11.007   9.055 -0.9762 -0.6726 -0.2762
34768SOL    HW214235  10.485  10.916   9.127  1.6873  1.8353 -0.4928
34769SOL     OW14236   4.474  11.966   2.275 -0.2532  0.0271 -0.4619
34769SOL    HW114237   4.436  11.879   2.274  0.2997 -0.2756  1.3941
34769SOL    HW214238   4.418  12.016   2.334  1.8110 -0.2997  1.9514
34770SOL     OW14239  13.271   6.393   2.789 -0.3943  0.0944 -0.1955
34770SOL    HW114240  13.364   6.414   2.794 -0.5557  0.8517 -0.2122
34770SOL    HW214241  13.254   6.379   2.696 -0.3651  0.3035 -0.2329
34771SOL     OW14242   2.525   5.873   2.847 -0.6738  0.1017 -0.2451
34771SOL    HW114243   2.589   5.927   2.894  0.4747 -0.6074 -0.9373
34771SOL    HW214244   2.578   5.811   2.798 -1.9405 -1.7661  0.6238
34772SOL     OW14245   6.499   0.818   4.333 -0.0943 -0.2816 -0.1768
34772SOL    HW114246   6.428   0.816   4.398 -0.5685 -1.6417 -0.7143
34772SOL    HW214247   6.454   0.809   4.249  0.2905  3.4319 -0.9728
34773SOL     OW14248   3.994  11.134   3.457  0.0676 -0.3141  0.3761
34773SOL    HW114249   4.018  11.122   3.365  0.5416 -1.7413  0.6753
34773SOL    HW214250   3.905  11.099   3.463  0.1435 -0.4771  0.5326
34774SOL     OW14251  10.068   8.803   8.284 -0.1438  0.0772 -0.4230
34774SOL    HW114252  10.032   8.866   8.221  0.0135  1.2190  0.5890
34774SOL    HW214253  10.047   8.840   8.369  0.1987 -1.1231  0.2026
34775SOL     OW14254   3.185   2.974  13.075 -0.5422  0.0090  0.1932
34775SOL    HW114255   3.120   2.904  13.082 -0.0804 -0.5317 -0.6514
34775SOL    HW214256   3.172   3.028  13.153 -0.8454 -1.0720  0.9010
34776SOL     OW14257   4.100   1.244   9.935  0.4749  0.2388  0.2152
34776SOL    HW114258   4.112   1.265   9.843  0.8443  1.6641  0.5725
34776SOL    HW214259   4.179   1.195   9.958  2.2566  3.0951  0.6603
34777SOL     OW14260  13.287   2.807   8.799  0.1763 -0.7840 -0.6398
34777SOL    HW114261  13.346   2.732   8.806  0.1204 -0.7242  0.9066
34777SOL    HW214262  13.306   2.859   8.878 -2.9884 -1.5484  0.7787
34778SOL     OW14263   1.470   2.477   1.275  0.4978  0.0728 -0.0071
34778SOL    HW114264   1.428   2.543   1.220  1.7029  2.4850  1.7674
34778SOL    HW214265   1.564   2.491   1.263  0.7930 -1.2419  0.5606
34779SOL     OW14266   3.183  11.931   6.276  0.2540 -0.0967 -0.1589
34779SOL    HW114267   3.236  11.947   6.354  1.2502  0.7809 -0.9790
34779SOL    HW214268   3.098  11.969   6.297  0.7540  0.8439  0.2044
34780SOL     OW14269   8.045   7.517   5.705  0.1451 -0.2020 -0.1966
34780SOL    HW114270   7.999   7.484   5.628  0.6019 -1.5309  0.0762
34780SOL    HW214271   8.031   7.450   5.772 -0.3212  0.9632  0.9288
34781SOL     OW14272   0.409   4.215  11.829 -0.2008 -0.0447 -0.1089
34781SOL    HW114273   0.452   4.300  11.827 -0.7118  0.2108 -0.3670
34781SOL    HW214274   0.358   4.215  11.910  0.3870 -0.4057  0.2716
34782SOL     OW14275   0.643   2.314   2.311  0.2454  0.0538  0.7953
34782SOL    HW114276   0.698   2.245   2.348 -1.3094 -1.9152 -0.3606
34782SOL    HW214277   0.680   2.395   2.346  2.6206 -1.2769  1.6150
34783SOL     OW14278   0.240   5.382  10.127 -0.2470  0.0983 -0.2609
34783SOL    HW114279   0.210   5.431  10.203  0.1958  0.5571 -0.3789
34783SOL    HW214280   0.299   5.315  10.163  0.3533  0.6279 -0.2373
34784SOL     OW14281  11.602   2.749   1.623 -0.0877  0.1882 -0.1827
34784SOL    HW114282  11.542   2.820   1.645 -1.3074 -0.0955 -2.2512
34784SOL    HW214283  11.683   2.792   1.598 -1.0326  0.9763 -2.1012
34785SOL     OW14284   4.367   0.150   2.480  0.3581 -0.1280  0.2834
34785SOL    HW114285   4.273   0.150   2.499  0.1267 -1.6896 -0.6677
34785SOL    HW214286   4.406   0.191   2.557 -1.0688  0.1773  0.8897
34786SOL     OW14287   3.986  12.624   9.726 -0.9589  0.9146 -0.4862
34786SOL    HW114288   3.950  12.607   9.639 -1.7314  1.6073 -0.3165
34786SOL    HW214289   4.076  12.593   9.721 -1.7151 -1.4644 -0.7215
34787SOL     OW14290   3.807   6.318   5.168  0.1708  0.3940  0.4155
34787SOL    HW114291   3.816   6.396   5.221 -1.0811  0.9588 -0.1599
34787SOL    HW214292   3.745   6.263   5.216 -0.0336  0.3727  0.1297
34788SOL     OW14293   2.282  10.622   9.148  0.1580  0.7854  0.3041
34788SOL    HW114294   2.192  10.599   9.169  1.0429 -1.6387  1.8745
34788SOL    HW214295   2.309  10.681   9.219  0.1709  0.4641  0.5721
34789SOL     OW14296   1.644   4.449  10.247 -0.5411  0.5920 -0.4089
34789SOL    HW114297   1.574   4.514  10.237  1.4537  2.8255 -0.5605
34789SOL    HW214298   1.646   4.403  10.163 -2.3093 -0.1131 -0.1283
34790SOL     OW14299   2.339  12.676   1.183 -1.0047 -0.0694 -0.1209
34790SOL    HW114300   2.368  12.604   1.127  0.7907  1.0477 -0.7114
34790SOL    HW214301   2.358  12.755   1.133 -0.3331  0.9232  1.6059
34791SOL     OW14302   5.477  11.750   9.426  0.2645 -0.3359  0.0044
34791SOL    HW114303   5.392  11.708   9.420 -0.3178  0.9028 -0.8158
34791SOL    HW214304   5.485  11.776   9.518 -1.2270  1.4492 -0.3129
34792SOL     OW14305   7.174  13.105  13.264  0.5434  0.3127  0.0125
34792SOL    HW114306   7.108  13.045  13.301  1.4972 -0.7601  0.0363
34792SOL    HW214307   7.152  13.190  13.301  0.9486 -0.5520  2.4904
34793SOL     OW14308   4.014   0.681   3.646 -0.2217 -0.4245  0.1425
34793SOL    HW114309   4.005   0.585   3.644  0.1109 -0.4435 -0.5870
34793SOL    HW214310   4.092   0.699   3.594 -0.7361  0.2997 -0.3922
34794SOL     OW14311  10.448   7.006  10.580 -0.0470  0.7254  0.2432
34794SOL    HW114312  10.364   6.962  10.589  0.6132 -0.5473  0.4808
34794SOL    HW214313  10.456   7.023  10.486  0.1794 -0.7667 -0.0442
34795SOL     OW14314   9.262   9.469  11.062  0.8332  1.0158  0.1916
34795SOL    HW114315   9.234   9.529  11.131 -1.7267  0.7853 -0.5360
34795SOL    HW214316   9.231   9.510  10.981 -1.6762 -1.4643 -0.2876
34796SOL     OW14317   4.488   1.044   5.547  0.3147 -0.1721 -0.3417
34796SOL    HW114318   4.483   0.996   5.464 -1.1142 -0.0991 -0.3161
34796SOL    HW214319   4.564   1.006   5.592 -0.7570 -2.4419 -0.3141
34797SOL     OW14320   5.029   8.587   5.734  0.6194  0.4649 -0.2453
34797SOL    HW114321   5.086   8.542   5.797  0.1328 -0.4178 -0.4200
34797SOL    HW214322   5.081   8.662   5.706  1.4851 -0.0100  0.0178
34798SOL     OW14323   5.544   5.022   1.641 -0.0205  0.0048  0.3949
34798SOL    HW114324   5.580   5.104   1.673  0.3035  0.1768 -0.4072
34798SOL    HW214325   5.586   5.007   1.557 -2.1007  0.4205 -0.7876
34799SOL     OW14326   4.653  11.118  11.994  0.2963 -0.5040 -0.1341
34799SOL    HW114327   4.690  11.091  11.910  0.4089 -1.3304  0.1737
34799SOL    HW214328   4.664  11.041  12.051 -1.2651 -0.5286  0.1716
34800SOL     OW14329   4.899   3.360  10.418  0.1954 -0.3071  0.0903
34800SOL    HW114330   4.899   3.425  10.348 -0.3573 -0.9840 -0.5482
34800SOL    HW214331   4.981   3.376  10.466  0.4462  0.3322 -0.5409
34801SOL     OW14332   0.864   6.768   6.306  0.1494  0.7281 -0.2712
34801SOL    HW114333   0.918   6.745   6.230  0.5439  1.7218 -0.3137
34801SOL    HW214334   0.840   6.860   6.291 -1.9985  0.1853 -0.5066
34802SOL     OW14335   4.004  13.279   6.234 -0.0638  0.3903 -0.2761
34802SOL    HW114336   3.983  13.336   6.308 -1.1313 -0.0885 -0.1967
34802SOL    HW214337   4.037  13.198   6.274  0.9345  0.7284 -0.3770
34803SOL     OW14338  11.130  13.127   8.789  0.0175 -0.1235 -0.6399
34803SOL    HW114339  11.188  13.082   8.851  1.0805 -0.3340 -1.7665
34803SOL    HW214340  11.168  13.109   8.703  0.0728  2.3310 -1.1837
34804SOL     OW14341  10.289   5.416   3.267  0.3139 -0.2403  0.3076
34804SOL    HW114342  10.313   5.431   3.175  1.5886 -0.7617  0.5313
34804SOL    HW214343  10.242   5.495   3.293  1.6025  0.7501 -0.2564
34805SOL     OW14344   9.295   3.392   0.308 -0.3614  0.3302 -0.6416
34805SOL    HW114345   9.220   3.452   0.299 -1.7163 -1.4403 -1.9096
34805SOL    HW214346   9.276   3.341   0.387  0.3445  0.9284 -0.0671
34806SOL     OW14347   8.451   0.808  11.211 -0.2736 -0.0966 -0.1197
34806SOL    HW114348   8.521   0.770  11.265  1.1206  1.1610 -0.9536
34806SOL    HW214349   8.455   0.758  11.129 -1.4692 -1.0901  0.3955
34807SOL     OW14350   6.882   0.590   4.079  0.1702 -0.1807  0.0124
34807SOL    HW114351   6.918   0.513   4.034  0.3642 -0.6903  1.0046
34807SOL    HW214352   6.894   0.662   4.017  2.0155 -0.5226 -0.0715
34808SOL     OW14353   4.863  10.952   1.884  0.0430 -0.2315 -0.0803
34808SOL    HW114354   4.813  11.033   1.891  2.1045  1.2723 -1.5556
34808SOL    HW214355   4.951  10.980   1.857  1.3077 -2.8388  0.9491
34809SOL     OW14356   0.497   3.150   6.677  0.3738  0.3319 -0.2346
34809SOL    HW114357   0.485   3.200   6.757  2.0009  1.7161 -0.7834
34809SOL    HW214358   0.583   3.108   6.688 -0.0561 -0.7048 -0.6456
34810SOL     OW14359   6.110   0.724  12.614  0.3424  1.1809 -0.0021
34810SOL    HW114360   6.034   0.674  12.584  0.4279  0.0939  1.4654
34810SOL    HW214361   6.123   0.791  12.547 -0.4162 -0.1268 -1.5140
34811SOL     OW14362  12.739  10.758   1.839  0.1615  0.2060  0.0203
34811SOL    HW114363  12.779  10.732   1.922 -2.2517  0.5490  1.3533
34811SOL    HW214364  12.709  10.675   1.800  0.2322  0.1601  0.0631
34812SOL     OW14365   4.329   4.376  11.351  0.5150 -0.0239  0.0231
34812SOL    HW114366   4.381   4.444  11.307 -0.1046  0.3065 -0.2106
34812SOL    HW214367   4.362   4.294  11.315  0.1357  0.2374 -0.9388
34813SOL     OW14368   2.504   3.729   0.266 -0.3596 -0.1674 -0.4470
34813SOL    HW114369   2.548   3.812   0.282 -0.8507  0.0437 -0.1655
34813SOL    HW214370   2.574   3.669   0.239  0.4166 -0.3635  1.7993
34814SOL     OW14371   9.672   8.341   2.794 -0.3409  0.2747  0.0042
34814SOL    HW114372   9.610   8.293   2.740 -2.3216  1.3483  1.2288
34814SOL    HW214373   9.666   8.431   2.762  0.0272  0.5305  0.6409
34815SOL     OW14374   3.200   4.974   3.446  0.4389 -0.0570 -0.0635
34815SOL    HW114375   3.254   5.044   3.483 -0.1408  0.8870 -0.9519
34815SOL    HW214376   3.258   4.898   3.444  1.2959  0.5710  0.2934
34816SOL     OW14377   4.276   1.159   5.907 -0.0897 -0.1582 -0.4032
34816SOL    HW114378   4.280   1.204   5.823  1.6614 -0.0887 -0.3209
34816SOL    HW214379   4.183   1.160   5.930 -0.3914  1.3459 -1.5070
34817SOL     OW14380   0.248   6.724   2.004 -0.3683 -0.3977  0.1022
34817SOL    HW114381   0.275   6.807   2.044  0.6163 -0.4334 -0.4614
34817SOL    HW214382   0.287   6.725   1.917  1.5782 -2.3899  0.8545
34818SOL     OW14383   8.460   9.903   2.035 -0.0862  0.0741 -0.0089
34818SOL    HW114384   8.445   9.899   2.130  2.1445 -2.1357  0.3640
34818SOL    HW214385   8.381   9.942   2.000 -1.1509  0.6184  2.7294
34819SOL     OW14386  11.022  10.615   7.499 -0.6590 -0.3228 -0.3586
34819SOL    HW114387  10.956  10.681   7.519 -0.6337  0.0475 -1.4462
34819SOL    HW214388  11.105  10.662   7.504 -0.5900 -0.4352 -0.4484
34820SOL     OW14389   2.676   8.097   3.554 -0.4548  0.0394 -0.1420
34820SOL    HW114390   2.602   8.157   3.542  0.0908  0.4127 -1.7699
34820SOL    HW214391   2.635   8.012   3.571 -1.2356  0.7018  1.6282
34821SOL     OW14392   2.748   9.051   9.493 -0.0833 -0.3470 -0.2275
34821SOL    HW114393   2.684   8.982   9.475  1.3175 -2.2960  1.6212
34821SOL    HW214394   2.822   9.030   9.436 -0.7579  1.5655 -1.9446
34822SOL     OW14395   9.854  12.148   8.688  0.4478 -1.1334 -0.7049
34822SOL    HW114396   9.831  12.229   8.733  0.4495 -1.1018 -0.7600
34822SOL    HW214397   9.935  12.118   8.729 -0.3806 -1.9497  0.3891
34823SOL     OW14398  12.658   3.529   7.792 -0.3347 -0.4616 -0.8684
34823SOL    HW114399  12.675   3.438   7.769  1.1240 -0.4625  0.0361
34823SOL    HW214400  12.722   3.579   7.741  0.0112 -0.1153 -0.1203
34824SOL     OW14401   3.548   0.267  10.624 -0.5498  0.1122  0.0685
34824SOL    HW114402   3.615   0.234  10.684 -0.3070  2.1567  1.0173
34824SOL    HW214403   3.480   0.200  10.624  0.7479 -1.2550  0.3482
34825SOL     OW14404   3.785  12.989   8.957  0.1853 -0.0404  0.3235
34825SOL    HW114405   3.799  12.969   9.049 -0.9711 -1.2660  0.2682
34825SOL    HW214406   3.755  13.080   8.956  0.3796  0.0328  1.1376
34826SOL     OW14407   9.669   1.547   9.777  0.0289  0.5304  0.5519
34826SOL    HW114408   9.761   1.542   9.750  0.6694 -3.0141  2.6730
34826SOL    HW214409   9.629   1.469   9.739 -1.9667  1.6549  0.2373
34827SOL     OW14410   1.876   4.313  10.656  0.2058 -0.1574 -0.2127
34827SOL    HW114411   1.908   4.387  10.707 -2.4942 -0.9899  3.1353
34827SOL    HW214412   1.812   4.351  10.595  0.5947  0.4882 -0.2258
34828SOL     OW14413   9.901   5.007   3.683  0.8284  0.6418 -0.3619
34828SOL    HW114414   9.837   4.989   3.753  2.5366  2.0064  1.6925
34828SOL    HW214415   9.854   5.061   3.620 -0.5129  0.1684  0.1985
34829SOL     OW14416  11.882   4.646   7.904 -0.2141 -0.5245 -0.1570
34829SOL    HW114417  11.832   4.702   7.962  0.8251 -0.4053  0.6549
34829SOL    HW214418  11.876   4.689   7.818  0.8328  1.0429  0.5124
34830SOL     OW14419   5.597   9.071   0.221 -0.0134 -0.5866 -0.0940
34830SOL    HW114420   5.578   9.073   0.127  0.8023 -1.4931 -0.3033
34830SOL    HW214421   5.607   8.978   0.241 -0.3884 -0.4142  0.9408
34831SOL     OW14422   0.857   8.979  12.515  0.2054 -0.1579  0.6366
34831SOL    HW114423   0.896   8.972  12.602 -1.4751 -0.8994  1.3776
34831SOL    HW214424   0.780   8.923  12.519 -0.4063  0.5017 -1.0546
34832SOL     OW14425   1.505  11.645  12.374  0.2532 -0.5721  0.4255
34832SOL    HW114426   1.552  11.691  12.304 -1.7105  0.8135 -0.0961
34832SOL    HW214427   1.448  11.712  12.411 -0.3843 -1.8558  1.8505
34833SOL     OW14428  11.750   3.219   3.190 -0.5120  0.5034  0.1557
34833SOL    HW114429  11.771   3.277   3.117 -1.6179 -0.3880 -0.8964
34833SOL    HW214430  11.690   3.154   3.154  2.1351 -2.5479  0.7380
34834SOL     OW14431   2.155   5.820   6.815 -0.2774  0.2404  0.2254
34834SOL    HW114432   2.219   5.782   6.755 -0.7105  0.6068 -0.4784
34834SOL    HW214433   2.198   5.816   6.901  0.5278  0.1204 -0.1714
34835SOL     OW14434   7.300   8.127  10.764  0.1343 -0.7285 -0.1404
34835SOL    HW114435   7.254   8.193  10.817  0.5263  0.5628 -1.3476
34835SOL    HW214436   7.233   8.093  10.705  0.2377 -0.3924 -0.4558
34836SOL     OW14437   6.123   5.407   2.312 -0.6396  0.0226 -0.5589
34836SOL    HW114438   6.175   5.395   2.232  1.5631 -2.1540  1.0461
34836SOL    HW214439   6.064   5.332   2.314  0.9103 -1.2417  0.8830
34837SOL     OW14440   9.743   8.183   0.413  0.6261  0.1156 -0.2851
34837SOL    HW114441   9.756   8.094   0.381 -1.0303 -0.7520  1.2738
34837SOL    HW214442   9.713   8.232   0.337  0.6297 -0.8934 -0.9491
34838SOL     OW14443   2.640  11.936   4.628 -0.4414 -0.1305  0.3241
34838SOL    HW114444   2.693  11.857   4.629 -0.1298  0.0628  2.0482
34838SOL    HW214445   2.578  11.925   4.701  0.3651  1.6638  1.3670
34839SOL     OW14446   9.964   7.062   6.468  0.5642  0.3351  0.1382
34839SOL    HW114447   9.954   7.131   6.535 -0.8368 -0.0265  0.3276
34839SOL    HW214448   9.909   7.091   6.395 -0.6876 -0.9263  0.5259
34840SOL     OW14449   3.786   2.511   0.397  0.4557 -0.6797  0.4356
34840SOL    HW114450   3.713   2.549   0.445  0.1075 -1.6183  0.6772
34840SOL    HW214451   3.791   2.561   0.316 -0.4970 -0.6444  0.3895
34841SOL     OW14452   7.503   2.163   3.072 -0.3861 -0.2103 -0.0139
34841SOL    HW114453   7.480   2.191   3.160 -0.2369  1.9881 -0.6245
34841SOL    HW214454   7.433   2.101   3.048 -0.6389 -0.5430  1.4677
34842SOL     OW14455   5.703   8.575   6.900  0.1751 -1.0645 -0.7017
34842SOL    HW114456   5.785   8.615   6.871 -0.3660 -1.3519 -2.8154
34842SOL    HW214457   5.717   8.555   6.993  1.9229  0.2633 -0.6301
34843SOL     OW14458   6.306   7.065  12.733 -0.2505 -0.8186 -0.6150
34843SOL    HW114459   6.398   7.044  12.747 -0.2304  0.0334  0.5990
34843SOL    HW214460   6.260   7.022  12.806 -0.5039  1.0041  0.3390
34844SOL     OW14461   3.489   5.683  10.552  0.3278 -0.0681 -0.0858
34844SOL    HW114462   3.576   5.641  10.548  0.3715  0.0974 -2.0441
34844SOL    HW214463   3.506   5.770  10.588  0.6364 -0.7303  1.4762
34845SOL     OW14464  10.493   9.833  11.654 -0.4263 -0.1375 -0.3512
34845SOL    HW114465  10.531   9.745  11.653  0.2224  0.1407 -0.8327
34845SOL    HW214466  10.410   9.823  11.609 -1.2756 -0.8872  1.2644
34846SOL     OW14467   3.502   9.647   8.325 -0.1079 -1.2214 -0.3085
34846SOL    HW114468   3.413   9.669   8.299  0.2510 -0.0913 -0.6115
34846SOL    HW214469   3.557   9.686   8.258  0.7063 -0.3574  0.8283
34847SOL     OW14470  10.509   5.438   5.413 -0.0112 -0.4057 -0.9044
34847SOL    HW114471  10.553   5.471   5.335 -0.3200 -0.4502 -1.0943
34847SOL    HW214472  10.417   5.456   5.399  0.1686  2.7402  0.9075
34848SOL     OW14473   5.741   6.344   1.964 -0.2991 -0.1272  0.1507
34848SOL    HW114474   5.800   6.272   1.988  1.3924  1.2254  0.2132
34848SOL    HW214475   5.791   6.396   1.901 -2.4339 -0.3598 -1.8811
34849SOL     OW14476   2.127  10.311   2.993  0.0685  0.0313  0.4616
34849SOL    HW114477   2.099  10.264   3.073 -0.0945  0.8423  0.8907
34849SOL    HW214478   2.045  10.343   2.955  0.1535 -0.2943  0.0021
34850SOL     OW14479   9.755   9.658   7.842 -0.1248  0.2833 -0.4531
34850SOL    HW114480   9.845   9.687   7.853  0.6103 -1.8353 -0.4412
34850SOL    HW214481   9.702   9.726   7.883  1.3425  2.3496 -1.8235
34851SOL     OW14482  12.806  13.299   0.594 -0.3261  0.3046 -0.0483
34851SOL    HW114483  12.747  13.291   0.669  1.5619  1.7514  1.7205
34851SOL    HW214484  12.812  13.211   0.558 -3.2323  0.0503 -0.1186
34852SOL     OW14485   0.356   5.674   6.783  0.3822  0.1387  0.9577
34852SOL    HW114486   0.319   5.759   6.806 -0.0540 -0.2310  1.6801
34852SOL    HW214487   0.288   5.632   6.729 -0.2779 -0.5219  2.2465
34853SOL     OW14488   1.972   7.471   4.966 -0.1362 -0.4893  0.2468
34853SOL    HW114489   1.881   7.470   4.937 -0.2557  0.3830  0.5555
34853SOL    HW214490   1.993   7.380   4.985 -0.7811 -0.7597 -0.3272
34854SOL     OW14491  11.097  10.028   5.792  0.3714 -0.7653  0.3847
34854SOL    HW114492  11.189  10.053   5.798 -0.3085  2.1870 -0.0181
34854SOL    HW214493  11.056  10.064   5.870 -0.6335 -1.1723  0.0786
34855SOL     OW14494  12.219  10.056  11.541  0.3118 -0.1543 -0.1927
34855SOL    HW114495  12.166  10.136  11.532  0.9270  0.4262  1.0498
34855SOL    HW214496  12.294  10.083  11.594  1.6294 -1.0731 -1.5156
34856SOL     OW14497  10.621   5.736  12.644 -0.2697 -0.4602 -0.4571
34856SOL    HW114498  10.670   5.695  12.715 -1.3407 -1.4147 -0.2269
34856SOL    HW214499  10.584   5.815  12.683  0.5845 -0.0506 -0.4658
34857SOL     OW14500   3.967   5.779  12.115  0.2173  0.2374  0.2192
34857SOL    HW114501   3.956   5.874  12.106  1.9067  0.4254 -0.1608
34857SOL    HW214502   3.915   5.742  12.043  1.1887  0.9979 -0.9193
34858SOL     OW14503   0.787  12.922  13.104 -0.1297  0.0191 -0.2759
34858SOL    HW114504   0.748  12.963  13.181 -0.9666  0.1425 -0.7481
34858SOL    HW214505   0.757  12.976  13.031 -1.9840 -1.9096 -1.0177
34859SOL     OW14506   4.717   1.381   2.254  0.1453 -0.3911 -0.4155
34859SOL    HW114507   4.737   1.412   2.166 -1.7370 -0.7646 -1.0231
34859SOL    HW214508   4.656   1.446   2.289 -0.0569 -0.8668  0.1400
34860SOL     OW14509   4.625   8.713   0.027 -0.0032  0.5418  0.2558
34860SOL    HW114510   4.649   8.638   0.081 -1.4606 -0.7563 -0.8051
34860SOL    HW214511   4.531   8.726   0.045 -0.2487  0.7858 -1.1029
34861SOL     OW14512  10.798  11.115   3.191 -0.0620  0.5630 -0.0990
34861SOL    HW114513  10.753  11.056   3.252  1.8499 -1.0791 -0.1457
34861SOL    HW214514  10.736  11.185   3.174 -2.7628 -1.7922 -0.5757
34862SOL     OW14515   2.773   3.252   0.660 -0.1091  0.0462  0.4592
34862SOL    HW114516   2.704   3.227   0.722  0.3177 -0.1456  0.8640
34862SOL    HW214517   2.730   3.311   0.599 -0.6492 -0.1214  0.6704
34863SOL     OW14518  10.868  10.624   7.814 -0.0017  0.1721 -0.1516
34863SOL    HW114519  10.789  10.648   7.862 -0.3791 -0.6039 -0.3749
34863SOL    HW214520  10.845  10.637   7.722 -0.9700 -2.9812 -0.4705
34864SOL     OW14521  11.644  12.198   5.164  0.3702 -0.2779  0.4538
34864SOL    HW114522  11.638  12.283   5.208  0.0364 -1.3131  2.5636
34864SOL    HW214523  11.723  12.158   5.200 -1.0381 -2.0188  1.8423
34865SOL     OW14524   3.342   6.251   6.481 -0.5217  0.4586  0.1278
34865SOL    HW114525   3.275   6.246   6.413  0.3964 -0.6328 -0.7502
34865SOL    HW214526   3.299   6.293   6.555 -2.4500 -1.0427 -0.0712
34866SOL     OW14527  12.640   5.315   8.206  0.1450  0.0203  0.5713
34866SOL    HW114528  12.704   5.382   8.230  0.9420  0.1630 -1.7283
34866SOL    HW214529  12.581   5.310   8.282  1.6031  1.4149  1.8706
34867SOL     OW14530   3.618   4.079   4.506 -0.1628 -0.5607  0.0687
34867SOL    HW114531   3.564   4.055   4.582 -1.8826  1.3340 -0.4607
34867SOL    HW214532   3.559   4.130   4.450  1.3451 -1.0321 -2.0800
34868SOL     OW14533   9.018   2.496   2.162 -0.7095  0.4102  0.2139
34868SOL    HW114534   8.940   2.518   2.213  0.6300  1.5949  1.8644
34868SOL    HW214535   9.048   2.581   2.128 -0.7808 -0.1834 -1.4533
34869SOL     OW14536  12.892   4.594   2.461 -0.0490  0.3867 -0.2888
34869SOL    HW114537  12.865   4.647   2.536  1.0935  0.9229 -0.2404
34869SOL    HW214538  12.961   4.537   2.496 -2.2689 -2.3167  0.0683
34870SOL     OW14539  12.433   0.073   8.963  0.1002 -0.3242  0.3664
34870SOL    HW114540  12.403   0.118   8.883 -0.6436  0.2604  0.9611
34870SOL    HW214541  12.353   0.050   9.009  0.5290  0.3775  1.5095
34871SOL     OW14542  11.468   5.072   0.330  0.2867 -0.1658 -0.4852
34871SOL    HW114543  11.418   5.146   0.297  0.2577 -0.4514 -1.0992
34871SOL    HW214544  11.485   5.093   0.422  0.6174  0.7758 -0.7572
34872SOL     OW14545  10.367  12.607   8.397  0.2042  0.4138 -0.0882
34872SOL    HW114546  10.351  12.541   8.329  0.9354  0.6346 -0.4886
34872SOL    HW214547  10.461  12.602   8.413  0.2829  1.4121 -0.1810
34873SOL     OW14548   8.778   5.701   0.067 -0.1273 -0.1383  0.0007
34873SOL    HW114549   8.718   5.667   0.001 -1.0219 -0.8909  1.1539
34873SOL    HW214550   8.742   5.785   0.093 -0.5375 -0.4541  0.4767
34874SOL     OW14551   3.073   0.235   1.623 -0.5457  0.3631  0.4411
34874SOL    HW114552   3.152   0.182   1.633 -1.3509 -0.6581  1.7531
34874SOL    HW214553   3.035   0.207   1.540 -0.7279 -0.8247  0.9121
34875SOL     OW14554  12.161  13.309   0.275 -0.5319 -0.5289  0.1787
34875SOL    HW114555  12.128  13.235   0.224  0.9846 -1.3082  0.2680
34875SOL    HW214556  12.210  13.269   0.347  1.7851  0.5030 -0.7394
34876SOL     OW14557   5.991  10.302  12.742  0.5268 -0.2228 -0.0027
34876SOL    HW114558   6.024  10.388  12.714 -0.4257  0.4750  0.9319
34876SOL    HW214559   5.959  10.316  12.831  1.0033 -1.7383  0.4341
34877SOL     OW14560  10.932   7.128   7.211 -0.4928 -0.5118 -0.4766
34877SOL    HW114561  10.912   7.136   7.304 -2.0618 -0.0714 -0.8301
34877SOL    HW214562  11.014   7.079   7.209 -0.2605 -0.2515  1.1393
34878SOL     OW14563   7.055  10.818   1.175  0.2302  0.4925  0.0812
34878SOL    HW114564   7.048  10.804   1.270  0.5937  1.0503  0.1940
34878SOL    HW214565   7.047  10.731   1.138  0.3101  0.2400  0.6403
34879SOL     OW14566   7.834   5.225  12.527 -0.0758  0.1256  0.2992
34879SOL    HW114567   7.843   5.320  12.540 -0.2131  0.2344 -0.3479
34879SOL    HW214568   7.920   5.190  12.549 -0.5147  0.1897  2.2333
34880SOL     OW14569   3.477   9.634   5.590  0.5798 -0.0034  0.3323
34880SOL    HW114570   3.519   9.647   5.675  0.5742 -0.3386  0.3905
34880SOL    HW214571   3.405   9.574   5.608  1.6724 -1.5720 -0.1958
34881SOL     OW14572   5.948   3.734   3.726 -0.1765 -0.1150 -0.4938
34881SOL    HW114573   6.019   3.707   3.783 -0.1396  2.6429  0.9650
34881SOL    HW214574   5.869   3.727   3.780 -0.3170  1.3339 -0.4675
34882SOL     OW14575  11.640   2.640   6.640  0.3094  0.0697  0.4424
34882SOL    HW114576  11.687   2.691   6.573  0.5071  0.9463  1.2289
34882SOL    HW214577  11.553   2.679   6.642  0.2160 -0.1430  0.4955
34883SOL     OW14578  10.838  10.709  11.054 -0.1767  0.3801 -0.1562
34883SOL    HW114579  10.905  10.703  10.985  0.1850 -1.0918  0.2931
34883SOL    HW214580  10.888  10.718  11.135 -0.4206 -1.9975  0.3281
34884SOL     OW14581   1.336   3.153   6.336 -0.2081  0.4266 -0.6370
34884SOL    HW114582   1.354   3.205   6.258  0.5544  1.3692  0.1232
34884SOL    HW214583   1.403   3.182   6.399 -0.0221 -1.1935 -0.0410
34885SOL     OW14584   9.067   0.808   4.794 -0.5193 -0.3871  0.3419
34885SOL    HW114585   9.010   0.875   4.831  2.1270  3.2679 -1.5129
34885SOL    HW214586   9.059   0.733   4.854 -4.0715  1.3193  2.3008
34886SOL     OW14587  11.063   4.591  12.872  0.3171 -0.6483 -0.2885
34886SOL    HW114588  11.010   4.618  12.797  1.8113  0.6998 -0.9216
34886SOL    HW214589  11.054   4.663  12.935  1.7473 -0.1407 -0.6216
34887SOL     OW14590   0.074   4.801   2.299  0.6107 -0.1166 -0.7812
34887SOL    HW114591   0.157   4.798   2.253  0.4348  2.0392 -1.3396
34887SOL    HW214592   0.095   4.835   2.386  0.3439  0.2454 -0.8556
34888SOL     OW14593  11.042   3.846   3.628 -0.0369 -0.2408  0.1185
34888SOL    HW114594  11.100   3.820   3.557  1.3680  1.0658  0.7319
34888SOL    HW214595  11.034   3.941   3.619  0.3082 -0.0260  1.7906
34889SOL     OW14596   8.508   4.703   9.700  0.2259 -0.2908  0.3483
34889SOL    HW114597   8.581   4.668   9.752 -0.6635 -0.0232  1.8418
34889SOL    HW214598   8.446   4.630   9.694  0.6421 -0.5584 -1.0319
34890SOL     OW14599  12.591   5.907   5.540 -0.6327  0.4085  1.4246
34890SOL    HW114600  12.500   5.898   5.512 -0.5518  0.2239  1.2221
34890SOL    HW214601  12.587   5.961   5.620 -0.7837  1.9533  0.4254
34891SOL     OW14602  12.419   8.164  12.803  0.1515  0.3330 -0.1437
34891SOL    HW114603  12.397   8.146  12.894  2.2660 -1.2630  0.1349
34891SOL    HW214604  12.503   8.119  12.789 -0.6187 -0.4128 -3.1908
34892SOL     OW14605  12.708   6.588  12.470 -0.2409  0.3142 -0.6268
34892SOL    HW114606  12.710   6.555  12.559  0.5712 -0.4715 -0.9200
34892SOL    HW214607  12.769   6.532  12.422  0.1877  1.4185 -1.4295
34893SOL     OW14608  12.701   9.016   6.482 -0.5493  0.2516 -0.4275
34893SOL    HW114609  12.618   9.000   6.438 -0.8397 -0.2890  0.2902
34893SOL    HW214610  12.735   9.096   6.442 -0.9659 -0.0332 -1.3749
34894SOL     OW14611   2.936  10.845   5.251 -0.3182 -0.0510 -0.0686
34894SOL    HW114612   2.892  10.761   5.260  1.0708 -0.7645  0.3734
34894SOL    HW214613   2.865  10.909   5.247 -1.3882 -1.1740  0.2818
34895SOL     OW14614   8.095  11.709  10.062  0.3781 -0.2307 -0.0838
34895SOL    HW114615   8.171  11.673  10.108 -0.9641 -3.8985 -0.4715
34895SOL    HW214616   8.043  11.751  10.132  1.9230  0.9733  0.4087
34896SOL     OW14617   1.672  11.349   3.342  0.3662 -0.7137  0.3824
34896SOL    HW114618   1.733  11.391   3.403  0.3973 -2.1709  1.3989
34896SOL    HW214619   1.587  11.390   3.362  0.1038 -2.0835  2.3951
34897SOL     OW14620  12.878  10.455   7.086 -0.3380 -0.1468 -0.0557
34897SOL    HW114621  12.920  10.511   7.151 -1.4937 -1.9878  2.4765
34897SOL    HW214622  12.934  10.377   7.081 -0.0400  0.1379 -1.6594
34898SOL     OW14623   3.584   9.352  12.344  0.2023 -0.0336 -0.1857
34898SOL    HW114624   3.497   9.346  12.384  1.5260  1.0158  3.1220
34898SOL    HW214625   3.591   9.443  12.316 -0.1430 -0.4055 -1.5757
34899SOL     OW14626   5.997   0.417   3.032  0.0817 -0.1797 -0.1098
34899SOL    HW114627   5.998   0.355   2.959  0.9226 -0.6800  0.3141
34899SOL    HW214628   5.924   0.388   3.087 -1.2432  0.8165 -1.2301
34900SOL     OW14629   1.149  10.137   1.587  0.0182  0.4090 -0.4695
34900SOL    HW114630   1.208  10.062   1.593 -2.0972 -1.3329  0.3146
34900SOL    HW214631   1.116  10.149   1.676 -2.5042 -0.2574 -1.2180
34901SOL     OW14632   3.741  13.052   7.384  0.4254  0.1302 -0.1939
34901SOL    HW114633   3.689  13.104   7.322 -1.0736 -0.7469  0.2874
34901SOL    HW214634   3.702  12.964   7.380 -1.5890  0.5900  3.9127
34902SOL     OW14635   9.163   1.969   3.960  0.8175  0.5585  0.3479
34902SOL    HW114636   9.137   1.962   4.052 -2.0273  0.8348 -0.3293
34902SOL    HW214637   9.111   1.902   3.915  0.6635  1.7086 -1.2951
34903SOL     OW14638   0.006   1.098  10.993  0.0186 -0.6711  0.5226
34903SOL    HW114639  -0.060   1.130  10.931  1.0918  0.0826 -0.2722
34903SOL    HW214640  -0.027   1.013  11.022 -0.5088 -1.0679 -1.1262
34904SOL     OW14641  10.095  12.085   9.335  0.1584 -0.5552 -0.7416
34904SOL    HW114642  10.112  12.174   9.304 -0.1121 -0.0116  0.5755
34904SOL    HW214643  10.179  12.055   9.370 -0.4241  0.4266  1.6931
34905SOL     OW14644   6.208  11.998   3.986 -0.7749 -0.0775  0.5473
34905SOL    HW114645   6.299  12.021   3.968 -1.3463  3.3618  1.2451
34905SOL    HW214646   6.212  11.911   4.027  2.4399  0.8017  2.4578
34906SOL     OW14647   7.775   6.609   5.590  0.5589  0.2874  0.3689
34906SOL    HW114648   7.800   6.543   5.656 -1.7261 -0.4302  0.5957
34906SOL    HW214649   7.741   6.682   5.642  1.2979  0.8833  0.0374
34907SOL     OW14650   0.987  10.848   5.931  0.7347  0.5228  0.2192
34907SOL    HW114651   0.960  10.919   5.990  0.3560  0.1521  0.4920
34907SOL    HW214652   0.937  10.863   5.851 -0.7473 -0.4904  0.9190
34908SOL     OW14653   4.504   5.956   2.522  0.0153 -0.1062  0.3121
34908SOL    HW114654   4.428   5.902   2.541 -0.1272 -0.0589 -0.1021
34908SOL    HW214655   4.520   5.943   2.428  1.2089 -1.0048  0.6102
34909SOL     OW14656   9.027   8.676   1.221  0.4596  0.4425  0.5423
34909SOL    HW114657   9.047   8.657   1.312  0.0568 -1.9219  0.1948
34909SOL    HW214658   9.041   8.593   1.175  1.8636  1.8542 -1.7960
34910SOL     OW14659  10.468   5.568   6.096 -0.1218 -0.5503 -0.4588
34910SOL    HW114660  10.512   5.638   6.047 -0.5093  0.3908  0.5021
34910SOL    HW214661  10.539   5.512   6.127  0.1586 -0.9338 -1.7179
34911SOL     OW14662   9.244  11.507   6.306 -0.2789 -0.6010 -0.2203
34911SOL    HW114663   9.214  11.591   6.270 -1.2668 -0.6637  0.4463
34911SOL    HW214664   9.262  11.525   6.398  0.8674 -0.7924 -0.3925
34912SOL     OW14665   1.303  11.662   5.795  0.2296  0.5539 -0.2329
34912SOL    HW114666   1.277  11.753   5.779  1.5011  0.8686 -0.5925
34912SOL    HW214667   1.363  11.668   5.869  0.8148  0.0892 -0.6634
34913SOL     OW14668   8.706  12.868   6.203 -0.0781  0.3018 -0.2106
34913SOL    HW114669   8.624  12.907   6.235  0.4948  0.5427  0.9963
34913SOL    HW214670   8.765  12.871   6.278  1.2477  0.6848 -1.2408
34914SOL     OW14671   5.978   0.629   4.471 -0.2056  0.1319  0.4944
34914SOL    HW114672   6.066   0.596   4.452 -0.2601  1.0131 -1.6047
34914SOL    HW214673   5.920   0.554   4.456  0.1236 -0.2445  1.1073
34915SOL     OW14674   1.684  10.709   0.532  0.2211  0.2672 -0.4191
34915SOL    HW114675   1.633  10.645   0.582  1.0174  0.3822  0.5707
34915SOL    HW214676   1.737  10.657   0.473 -0.7015  0.1270 -1.1571
34916SOL     OW14677   0.682   7.094  11.334 -0.3499 -0.3578  0.3794
34916SOL    HW114678   0.688   7.189  11.336 -1.7108 -0.2181 -0.6142
34916SOL    HW214679   0.588   7.075  11.341 -0.2284 -1.5485 -0.6990
34917SOL     OW14680   7.799  13.052   2.600  0.0385 -0.5767  0.0869
34917SOL    HW114681   7.787  13.104   2.521  3.3446 -1.8438 -1.4303
34917SOL    HW214682   7.849  13.109   2.659  0.6582 -0.8269 -0.1892
34918SOL     OW14683   8.875   7.568  10.783  0.2373 -0.1339  1.0577
34918SOL    HW114684   8.947   7.511  10.755  1.2344  1.2319  0.7009
34918SOL    HW214685   8.875   7.640  10.720 -0.7856  0.4155  1.6555
34919SOL     OW14686   1.633  12.196  13.030  0.6401  0.0846 -0.4277
34919SOL    HW114687   1.601  12.144  12.956  1.1382 -0.7997 -0.0422
34919SOL    HW214688   1.579  12.275  13.029  1.0359  0.3653 -2.0898
34920SOL     OW14689   7.962   4.739  11.056 -0.0633  0.0580  0.2595
34920SOL    HW114690   8.019   4.662  11.050 -0.5292 -0.3949  1.4797
34920SOL    HW214691   7.893   4.714  11.117 -1.3167  0.7761 -0.8131
34921SOL     OW14692   1.178  12.537   8.320 -0.1527 -0.1404  0.3289
34921SOL    HW114693   1.150  12.582   8.400 -0.0978  1.5927 -0.5938
34921SOL    HW214694   1.096  12.514   8.276 -0.1790  0.7664 -0.1114
34922SOL     OW14695   7.275   0.381   3.187  0.2399 -0.2391 -0.0890
34922SOL    HW114696   7.345   0.372   3.123  0.3428  0.1110 -0.0252
34922SOL    HW214697   7.318   0.412   3.267 -0.0136  0.1707 -0.1087
34923SOL     OW14698   8.189  10.420   9.188  0.5891 -0.0935 -0.1344
34923SOL    HW114699   8.118  10.464   9.141  0.6001 -0.5423 -0.5757
34923SOL    HW214700   8.226  10.488   9.245  0.1872  0.2931 -0.3328
34924SOL     OW14701   8.950   7.947   1.677 -0.1439 -0.0424 -0.1577
34924SOL    HW114702   8.875   7.982   1.629  0.6176  1.0723 -0.5672
34924SOL    HW214703   8.917   7.868   1.719 -1.0391 -0.6204 -1.8785
34925SOL     OW14704  11.526   6.301   5.834 -0.2791 -0.3462 -0.0660
34925SOL    HW114705  11.463   6.362   5.872  0.8586  0.0914  1.1860
34925SOL    HW214706  11.598   6.356   5.803  0.1550 -0.9535 -0.1544
34926SOL     OW14707   5.269   5.856   5.115 -0.3889  0.1913 -0.0655
34926SOL    HW114708   5.348   5.887   5.158 -0.5446 -0.1124  0.4453
34926SOL    HW214709   5.210   5.833   5.187 -1.0089  0.5902 -0.4375
34927SOL     OW14710   5.746   0.599   3.422  0.0485  0.4171  0.5463
34927SOL    HW114711   5.768   0.692   3.428  0.3588  0.4908 -1.2595
34927SOL    HW214712   5.680   0.586   3.490  0.6329  1.7424  1.4262
34928SOL     OW14713   5.725   3.356   0.087  0.5242 -0.2962  0.1260
34928SOL    HW114714   5.802   3.406   0.113  0.2679  0.1242  0.1073
34928SOL    HW214715   5.754   3.266   0.081  1.2437 -0.0227 -0.7709
34929SOL     OW14716   8.659   8.315   1.806 -0.2193  0.3746  0.3213
34929SOL    HW114717   8.602   8.390   1.790  0.6064  0.8796 -0.3879
34929SOL    HW214718   8.600   8.242   1.818 -1.0270  0.6442 -1.5851
34930SOL     OW14719   8.809   0.584   9.664  0.5595 -0.4425 -0.3627
34930SOL    HW114720   8.823   0.495   9.698  0.7147 -0.5116 -0.6112
34930SOL    HW214721   8.894   0.627   9.673  0.6179 -0.4835 -0.7406
34931SOL     OW14722  12.149  10.516   2.058  0.6360  0.0526  0.2083
34931SOL    HW114723  12.084  10.537   2.126 -0.7607 -0.2368 -0.9880
34931SOL    HW214724  12.097  10.506   1.978  2.1309 -0.5940 -0.7134
34932SOL     OW14725   3.875   4.070   4.573 -0.0090 -0.3623 -0.2294
34932SOL    HW114726   3.784   4.060   4.544 -0.6878 -1.2063  1.9420
34932SOL    HW214727   3.867   4.104   4.662  1.7811 -1.1651  0.2699
34933SOL     OW14728  10.073   8.602   3.366 -0.0810  1.2798 -0.2702
34933SOL    HW114729  10.137   8.658   3.409  1.7304 -0.1887 -0.9090
34933SOL    HW214730  10.119   8.519   3.353 -1.5021  0.7493 -2.4291
34934SOL     OW14731   5.312   2.939  13.075  0.1437  0.5302 -0.1164
34934SOL    HW114732   5.222   2.915  13.098 -0.5223  1.5794 -1.5018
34934SOL    HW214733   5.340   2.871  13.014  0.6053 -0.2367  0.9165
34935SOL     OW14734  12.494  10.720   3.462 -0.2306  0.0985 -0.1047
34935SOL    HW114735  12.449  10.676   3.390 -0.3946  2.0154 -1.2623
34935SOL    HW214736  12.427  10.776   3.501  0.0055 -0.5076  1.1884
34936SOL     OW14737   2.617   8.798   9.797  0.6457 -0.4628  0.7309
34936SOL    HW114738   2.560   8.732   9.836 -1.0245 -0.8782 -2.1175
34936SOL    HW214739   2.680   8.749   9.745  0.7194  0.1255  0.2478
34937SOL     OW14740  11.715  11.798   8.105  0.6808 -0.2415  0.3498
34937SOL    HW114741  11.657  11.758   8.170  0.8730 -1.1525 -0.0117
34937SOL    HW214742  11.664  11.799   8.025  1.3786 -1.7534 -0.1597
34938SOL     OW14743   4.368   5.320   6.081  0.1419  0.1919 -0.1524
34938SOL    HW114744   4.463   5.311   6.085  0.2023  0.1805 -1.2444
34938SOL    HW214745   4.351   5.409   6.112  0.2925 -0.5329  2.1941
34939SOL     OW14746   8.607   4.816   3.803 -0.2138  0.2242  0.2442
34939SOL    HW114747   8.603   4.796   3.896 -2.0721 -3.0811 -0.3943
34939SOL    HW214748   8.700   4.811   3.781  0.2998  1.5279  1.9413
34940SOL     OW14749   2.351   1.826   4.480  0.2094  0.1703 -0.0822
34940SOL    HW114750   2.298   1.834   4.559 -0.0162  0.5997 -0.2734
34940SOL    HW214751   2.328   1.740   4.444 -1.9395  1.1698 -1.2872
34941SOL     OW14752   9.653   2.328   2.116  0.1804 -0.0924  0.3707
34941SOL    HW114753   9.655   2.233   2.108 -0.9627  0.0345 -2.2401
34941SOL    HW214754   9.627   2.360   2.030  1.1011  2.6444  0.9807
34942SOL     OW14755   5.040   0.200   7.452 -0.1701 -0.3767 -0.5170
34942SOL    HW114756   5.017   0.198   7.359 -1.5660 -2.0079 -0.1940
34942SOL    HW214757   4.987   0.130   7.491 -0.3019  0.8549  1.6646
34943SOL     OW14758  10.874  11.796   9.895  0.8729  0.1626  0.4281
34943SOL    HW114759  10.898  11.716   9.848 -1.0629 -1.3567  1.8587
34943SOL    HW214760  10.844  11.855   9.827  1.3501 -0.6992 -0.5656
34944SOL     OW14761  10.874   8.322  11.321 -0.3999 -0.0188  0.2344
34944SOL    HW114762  10.966   8.311  11.299 -0.0748  1.3068  0.8060
34944SOL    HW214763  10.868   8.412  11.354 -1.8235 -0.2120  0.5681
34945SOL     OW14764  12.457  12.483   3.697 -0.3329 -0.1676  0.5751
34945SOL    HW114765  12.504  12.417   3.749 -1.0487 -1.3992 -0.2831
34945SOL    HW214766  12.502  12.482   3.613 -0.9518 -0.2531  0.2469
34946SOL     OW14767  13.070   9.616   8.810  0.3357 -0.6212 -0.0736
34946SOL    HW114768  12.998   9.678   8.817  1.3338  0.4969  0.7713
34946SOL    HW214769  13.038   9.547   8.752 -1.0176  0.3786 -0.5428
34947SOL     OW14770   2.618   2.576   3.865 -0.1426 -0.0821 -0.5190
34947SOL    HW114771   2.580   2.526   3.793  1.9060  0.1824 -1.8523
34947SOL    HW214772   2.570   2.658   3.866  0.5114  0.3625 -2.3439
34948SOL     OW14773  10.760  11.501   4.061 -0.1052 -0.2685 -0.4804
34948SOL    HW114774  10.698  11.526   3.993 -0.6985  1.4436  0.6374
34948SOL    HW214775  10.731  11.414   4.089 -1.9027  0.3924 -0.1480
34949SOL     OW14776   7.810   5.587   3.090 -0.2853 -0.0688 -0.3131
34949SOL    HW114777   7.733   5.615   3.140 -1.3202 -0.6010 -1.5480
34949SOL    HW214778   7.884   5.617   3.142 -1.3075 -0.2722  1.3480
34950SOL     OW14779  12.364   5.655  12.534  0.6589 -0.6685  0.3245
34950SOL    HW114780  12.400   5.729  12.582  0.2187 -0.4602  0.3439
34950SOL    HW214781  12.406   5.659  12.448  0.8713 -0.5827  0.4322
34951SOL     OW14782  13.128   7.056   5.336 -0.3697 -0.0224 -0.1372
34951SOL    HW114783  13.157   7.122   5.399 -0.1479 -1.0343  0.8517
34951SOL    HW214784  13.140   7.097   5.250  0.4108  0.9620  0.4261
34952SOL     OW14785   5.294   0.830   0.744 -0.0488  0.4204 -0.0075
34952SOL    HW114786   5.352   0.904   0.725  1.8250 -0.2790  2.4387
34952SOL    HW214787   5.213   0.870   0.775  0.9256  1.5140  1.2657
34953SOL     OW14788  10.158  11.455   9.201 -0.2899 -0.3342 -0.0598
34953SOL    HW114789  10.125  11.539   9.167  0.4106  0.4614  1.1402
34953SOL    HW214790  10.142  11.393   9.130 -0.2088  0.9507 -1.2622
34954SOL     OW14791   3.300   0.238  13.034 -0.3131 -0.3414  0.0056
34954SOL    HW114792   3.207   0.259  13.048 -0.5620 -1.8257  0.8261
34954SOL    HW214793   3.343   0.270  13.113 -0.0242  0.8238 -0.6079
34955SOL     OW14794   4.342   7.344   5.182 -0.1981 -0.1221 -0.0065
34955SOL    HW114795   4.355   7.289   5.105 -0.6576  0.0493 -0.2103
34955SOL    HW214796   4.334   7.282   5.255 -2.8369 -0.4868 -0.5001
34956SOL     OW14797   7.252   6.645   1.389  0.1346 -0.5577  0.2923
34956SOL    HW114798   7.162   6.675   1.388 -0.1325 -1.2970  1.0625
34956SOL    HW214799   7.246   6.551   1.405  0.9906 -0.8545 -0.9598
34957SOL     OW14800   3.722   1.491   5.146  0.0472 -0.4286  0.1477
34957SOL    HW114801   3.669   1.567   5.122  0.9652 -0.2898 -1.5945
34957SOL    HW214802   3.659   1.425   5.173 -0.8841  0.3705 -0.0151
34958SOL     OW14803  12.320   1.383  11.671  0.3695 -0.2322  0.2693
34958SOL    HW114804  12.286   1.464  11.635  0.7794  0.1268  0.6858
34958SOL    HW214805  12.383   1.352  11.607  1.9907  1.0242  1.1985
34959SOL     OW14806   7.159   1.023   8.400 -0.1816 -0.0236  0.0659
34959SOL    HW114807   7.236   1.068   8.365 -1.1661  2.1902  0.5308
34959SOL    HW214808   7.084   1.070   8.363 -1.3509 -1.9645 -0.1856
34960SOL     OW14809   2.873   7.517   9.079  0.6297 -0.6169 -0.0734
34960SOL    HW114810   2.918   7.465   9.013  0.4636 -1.4826  0.4770
34960SOL    HW214811   2.922   7.501   9.160  0.1181 -0.5306  0.2599
34961SOL     OW14812   2.491   4.954   2.525  0.3739  0.2145 -0.3931
34961SOL    HW114813   2.454   4.966   2.613  0.0950 -2.8303  0.0222
34961SOL    HW214814   2.583   4.976   2.534 -0.1208  2.3481 -0.0121
34962SOL     OW14815   5.767   7.589   1.853  0.4204  0.0141  0.2462
34962SOL    HW114816   5.766   7.667   1.796  0.5578  1.0276  1.5906
34962SOL    HW214817   5.798   7.621   1.937  0.1737 -1.4529  0.9279
34963SOL     OW14818   1.719  10.820  11.415 -0.3567  0.0500 -0.6639
34963SOL    HW114819   1.779  10.774  11.473 -0.3406  0.5640 -0.2746
34963SOL    HW214820   1.723  10.911  11.443 -2.4161 -0.1157  0.3352
34964SOL     OW14821   2.889  11.437   0.988 -0.2063 -0.1782  0.5869
34964SOL    HW114822   2.954  11.374   0.958 -0.8931 -1.9288  2.5485
34964SOL    HW214823   2.909  11.517   0.940  2.1313 -1.2227 -0.3112
34965SOL     OW14824   9.187  11.692   0.693 -0.0221 -0.0447  0.4213
34965SOL    HW114825   9.118  11.758   0.704 -0.2013 -0.4427  1.9333
34965SOL    HW214826   9.178  11.635   0.769  0.6539 -1.3480 -0.4404
34966SOL     OW14827   4.804   9.075   6.275  0.7872  0.0186 -0.0326
34966SOL    HW114828   4.714   9.107   6.272  0.2888 -0.9823  2.0804
34966SOL    HW214829   4.840   9.093   6.188 -0.7421  2.4320 -0.2395
34967SOL     OW14830   3.249   7.133   1.953 -0.0395  0.0306  0.9860
34967SOL    HW114831   3.284   7.068   1.892  0.6132  0.4118  0.9445
34967SOL    HW214832   3.315   7.203   1.955 -0.6304  0.5969  1.1893
34968SOL     OW14833   9.300   5.359   8.112 -0.0105  0.0514  0.2263
34968SOL    HW114834   9.271   5.274   8.144  1.9364 -0.6301  0.2771
34968SOL    HW214835   9.392   5.365   8.138  0.5159  1.2125 -1.6709
34969SOL     OW14836   3.480   9.007   3.259  0.1191 -0.5876 -0.2202
34969SOL    HW114837   3.496   9.046   3.345  1.1299 -0.4343 -0.4695
34969SOL    HW214838   3.482   8.913   3.274  0.1200 -0.5606 -0.0502
34970SOL     OW14839   1.510   6.926   9.648  0.3013  0.3417  0.4148
34970SOL    HW114840   1.474   6.987   9.584 -0.1388  1.3244  1.5545
34970SOL    HW214841   1.439   6.913   9.712  1.4977  1.3202  2.0261
34971SOL     OW14842  13.037   8.378   4.994  0.1555  0.3125 -0.3840
34971SOL    HW114843  13.065   8.353   4.906 -0.4866 -2.5511  0.1222
34971SOL    HW214844  13.109   8.349   5.051 -0.6845 -0.5785  0.2591
34972SOL     OW14845   5.862   9.545   5.081 -0.3142 -0.2938  0.4595
34972SOL    HW114846   5.947   9.571   5.117 -0.5241 -0.8835  1.4202
34972SOL    HW214847   5.813   9.626   5.075  0.7085  0.2555 -1.2648
34973SOL     OW14848   0.694   1.807  10.187 -0.3907  0.1238 -0.4221
34973SOL    HW114849   0.612   1.767  10.159  0.3976 -0.9348 -1.3350
34973SOL    HW214850   0.728   1.850  10.108 -0.3778  1.1473  0.1171
34974SOL     OW14851  12.784   8.073   4.091  0.3484 -0.1069  0.2959
34974SOL    HW114852  12.878   8.060   4.097  0.3910  0.3249  0.6741
34974SOL    HW214853  12.773   8.148   4.033  0.2461 -0.0930  0.3312
34975SOL     OW14854   0.689   9.848  10.231 -0.5374 -0.1896  0.1162
34975SOL    HW114855   0.614   9.892  10.193 -1.7718  0.1133  2.7103
34975SOL    HW214856   0.764   9.903  10.207 -1.5838  1.3759  0.3512
34976SOL     OW14857  12.254  12.712   0.253 -0.0361 -0.0009 -0.1875
34976SOL    HW114858  12.177  12.689   0.305 -0.2261  1.7122  0.3508
34976SOL    HW214859  12.279  12.799   0.284  1.1317  0.1656 -1.4954
34977SOL     OW14860   6.528  11.667   1.856  0.6789 -0.5127  0.1803
34977SOL    HW114861   6.574  11.677   1.773 -0.4166 -1.5449 -0.5814
34977SOL    HW214862   6.591  11.623   1.913  1.1403 -0.6182 -0.3962
34978SOL     OW14863   0.846   7.677   3.296  0.1278 -0.3199 -0.1207
34978SOL    HW114864   0.770   7.629   3.329 -0.1695  0.5865  0.5575
34978SOL    HW214865   0.914   7.610   3.283  0.4026 -0.7059  2.7278
34979SOL     OW14866   8.128   8.296  11.346 -0.4307  0.5641 -0.1074
34979SOL    HW114867   8.205   8.238  11.350 -1.4186 -0.7280  1.2423
34979SOL    HW214868   8.159   8.378  11.384  1.0154  1.0060 -2.1072
34980SOL     OW14869   8.578   9.761  12.315 -0.4048 -0.0798 -0.2198
34980SOL    HW114870   8.487   9.788  12.300 -0.6956 -1.0307 -0.2264
34980SOL    HW214871   8.572   9.699  12.388  0.3944  0.7620  0.5901
34981SOL     OW14872   4.300   7.663   0.315 -0.2469  0.0145  0.7793
34981SOL    HW114873   4.268   7.684   0.403  0.8516 -2.1463  1.7785
34981SOL    HW214874   4.394   7.682   0.318 -0.3675  0.8573 -0.2632
34982SOL     OW14875   2.177   2.054   5.558 -0.1416  0.2673 -0.1804
34982SOL    HW114876   2.228   2.127   5.592  0.0237 -0.2414  0.6769
34982SOL    HW214877   2.120   2.028   5.630  2.1024 -2.5942  0.7806
34983SOL     OW14878   9.576   2.740  11.507 -0.0690  0.5735  0.2453
34983SOL    HW114879   9.544   2.669  11.451  1.8376 -0.1975  0.0761
34983SOL    HW214880   9.668   2.750  11.483 -0.1594  2.7957  0.6245
34984SOL     OW14881   8.635   1.859   3.270  0.2102  0.6132 -0.0653
34984SOL    HW114882   8.699   1.878   3.338  2.3385  0.3440 -1.8810
34984SOL    HW214883   8.683   1.871   3.188 -1.4803 -1.5706 -1.4797
34985SOL     OW14884   5.344   0.691   4.888 -0.1905  0.4547 -0.0646
34985SOL    HW114885   5.322   0.648   4.806 -2.6069  0.1275  0.6731
34985SOL    HW214886   5.334   0.622   4.955 -0.0075  1.1378  0.6875
34986SOL     OW14887   0.561  10.193   0.198  0.1939 -0.2347 -0.7827
34986SOL    HW114888   0.586  10.274   0.153  0.0518 -0.7850 -1.8759
34986SOL    HW214889   0.598  10.202   0.285  2.8938 -0.3256 -1.8262
34987SOL     OW14890   3.405   3.621  11.980  0.1660 -0.0477 -0.5841
34987SOL    HW114891   3.342   3.559  12.016  0.8745 -1.1355 -1.1560
34987SOL    HW214892   3.393   3.615  11.885  0.0834  0.8753 -0.6390
34988SOL     OW14893  11.755   2.487   3.186 -0.0206  0.4589 -0.2510
34988SOL    HW114894  11.686   2.515   3.246 -1.4473 -2.3648 -0.4093
34988SOL    HW214895  11.716   2.415   3.137  3.0386 -1.2758 -0.3809
34989SOL     OW14896   7.956  12.912  11.259  0.3885  0.0059  0.7305
34989SOL    HW114897   7.997  12.998  11.245  0.6198 -0.2616 -0.3142
34989SOL    HW214898   8.030  12.854  11.280  0.4061 -0.2289  0.0289
34990SOL     OW14899   7.737   8.425  12.800  0.3920 -0.3218 -0.0531
34990SOL    HW114900   7.672   8.463  12.859 -1.0747  1.0547 -2.4008
34990SOL    HW214901   7.821   8.436  12.846 -0.6021  1.1851  1.5209
34991SOL     OW14902   5.003   7.678   9.455  0.4935  0.1645  0.1391
34991SOL    HW114903   4.994   7.760   9.503  0.5098  0.3729 -0.2134
34991SOL    HW214904   5.008   7.611   9.523 -1.2202  0.2769  0.4234
34992SOL     OW14905   1.100   9.837   1.086  0.0448 -0.4858  0.4955
34992SOL    HW114906   1.187   9.827   1.046  0.6169  1.6618  1.0563
34992SOL    HW214907   1.118   9.855   1.178 -0.8962  0.9149  0.4475
34993SOL     OW14908   0.724   6.721  12.097 -0.6242  0.3954 -0.1039
34993SOL    HW114909   0.705   6.814  12.088  0.2874  0.4298 -2.3271
34993SOL    HW214910   0.748   6.711  12.189  0.2919  2.5936 -0.0196
34994SOL     OW14911   5.992  12.214   5.559 -0.3153 -0.3491  0.4464
34994SOL    HW114912   5.897  12.213   5.561 -0.3125 -1.8608  0.8560
34994SOL    HW214913   6.019  12.195   5.649  0.3859  0.5785  0.4510
34995SOL     OW14914  10.390   6.778   8.826  0.6594 -0.0137  0.2523
34995SOL    HW114915  10.395   6.831   8.746  2.2939  1.3924  1.2260
34995SOL    HW214916  10.300   6.746   8.828  0.3885  0.4614 -1.7948
34996SOL     OW14917   6.436   9.481   7.318 -0.4609  0.2314  0.0378
34996SOL    HW114918   6.509   9.512   7.372 -1.4982  1.0125  1.0456
34996SOL    HW214919   6.363   9.538   7.342 -1.4810 -0.7145 -0.7367
34997SOL     OW14920   3.754   4.498  10.775  0.7666 -0.3770  0.5945
34997SOL    HW114921   3.757   4.526  10.867 -0.6784 -1.6910  1.0913
34997SOL    HW214922   3.676   4.442  10.770 -1.7451  2.8997 -2.3611
34998SOL     OW14923   2.331   6.051   5.008 -0.1977  0.1979 -0.6695
34998SOL    HW114924   2.425   6.056   4.991 -0.2443  1.5929 -0.6651
34998SOL    HW214925   2.310   6.134   5.050 -1.2581 -0.5136  0.2698
34999SOL     OW14926   9.941   9.381   5.426  0.3082  0.7133 -0.2501
34999SOL    HW114927  10.021   9.424   5.457 -1.1812  1.2150  3.4355
34999SOL    HW214928   9.966   9.289   5.416  1.1780  0.5944  2.1635
35000SOL     OW14929  10.740   9.365   1.184 -0.3362  0.0758 -0.0208
35000SOL    HW114930  10.749   9.351   1.278 -1.8993 -0.8697  0.0235
35000SOL    HW214931  10.779   9.287   1.144  1.0104  0.8159 -0.2240
35001SOL     OW14932   8.851   1.244  11.947  0.6480  0.1775  0.7324
35001SOL    HW114933   8.863   1.308  12.018  0.3314 -0.7163  1.6073
35001SOL    HW214934   8.907   1.171  11.971  0.4215 -0.2023  0.1241
35002SOL     OW14935  10.300   5.418   5.761 -0.0387  0.3670 -0.6485
35002SOL    HW114936  10.304   5.323   5.745 -1.4824 -0.3135  2.1944
35002SOL    HW214937  10.391   5.442   5.780  0.2857 -0.5409 -0.9608
35003SOL     OW14938   6.933   8.032   3.365 -0.0493  0.0765  0.0247
35003SOL    HW114939   6.910   8.054   3.275  2.2712 -1.1868 -0.9752
35003SOL    HW214940   6.984   8.108   3.396  0.2090 -0.0099 -0.1842
35004SOL     OW14941   5.337   7.187   9.131 -0.2061 -0.4533 -0.0866
35004SOL    HW114942   5.343   7.103   9.177 -1.6933 -0.5095  0.0300
35004SOL    HW214943   5.310   7.250   9.198 -0.8162 -0.2208 -0.5461
35005SOL     OW14944  10.996   4.380   7.959 -0.4222  0.1836 -0.4398
35005SOL    HW114945  11.035   4.355   7.875 -0.8152  2.0019 -1.1944
35005SOL    HW214946  10.903   4.363   7.948 -0.3513 -0.5312  0.0066
35006SOL     OW14947  11.816   3.479   9.455  0.4905 -0.2572 -0.0192
35006SOL    HW114948  11.767   3.511   9.531  1.0924  2.7655 -0.7644
35006SOL    HW214949  11.899   3.447   9.492  0.1436 -0.3057  0.7448
35007SOL     OW14950   0.092   5.597   4.713  0.3797  0.1341 -0.0322
35007SOL    HW114951   0.027   5.599   4.642 -0.8680  1.0721  1.0871
35007SOL    HW214952   0.154   5.666   4.690  0.3478 -0.0042 -0.5445
35008SOL     OW14953  12.397   1.244   7.896  0.1161  0.4384  0.0299
35008SOL    HW114954  12.429   1.159   7.864  3.0876  1.0944  0.8679
35008SOL    HW214955  12.365   1.226   7.984 -0.6223 -0.0466 -0.3331
35009SOL     OW14956  11.782   0.954   4.014 -0.1009 -0.8662 -0.3102
35009SOL    HW114957  11.776   1.034   4.065  0.8775 -0.0914 -1.3631
35009SOL    HW214958  11.699   0.909   4.029 -0.2073 -0.2261  1.1928
35010SOL     OW14959   8.077   0.497   1.125 -0.1095  1.2860  0.0369
35010SOL    HW114960   8.131   0.425   1.094 -0.4485 -0.2091  2.6077
35010SOL    HW214961   7.994   0.488   1.078  0.8397  1.9073 -1.8678
35011SOL     OW14962  10.925   2.478  10.072  0.3167  0.2614  0.2962
35011SOL    HW114963  10.867   2.528  10.015  0.5686  0.3180  0.0865
35011SOL    HW214964  11.006   2.467  10.021  0.5613  0.3520  0.6586
35012SOL     OW14965  13.258   4.731   5.806 -0.1208 -0.1357  0.0851
35012SOL    HW114966  13.167   4.750   5.830 -0.4820 -0.5348 -0.9077
35012SOL    HW214967  13.251   4.669   5.734  0.9184  0.7815 -0.8382
35013SOL     OW14968   9.178   5.138   3.123  0.0663 -0.2965 -0.2526
35013SOL    HW114969   9.117   5.157   3.194  1.8388  0.8502  1.0286
35013SOL    HW214970   9.233   5.068   3.158 -0.2006 -1.0307 -1.2448
35014SOL     OW14971   6.948   1.077   8.973 -0.6698 -0.3395 -0.0105
35014SOL    HW114972   6.990   1.015   8.913 -0.2035 -1.5635  1.5131
35014SOL    HW214973   6.941   1.029   9.056 -2.0263  1.0183  0.7060
35015SOL     OW14974   9.225   9.425   5.309  0.2249 -0.2770 -0.0044
35015SOL    HW114975   9.186   9.495   5.361  1.3724  0.3965 -0.0208
35015SOL    HW214976   9.183   9.432   5.223  0.9840  0.9904 -0.2925
35016SOL     OW14977   0.084  10.313   3.337  0.3028 -0.4709 -0.0093
35016SOL    HW114978   0.170  10.284   3.366 -0.2214 -2.3881 -0.2580
35016SOL    HW214979   0.027  10.301   3.413  0.0065 -0.4019 -0.2167
35017SOL     OW14980  12.214   3.806   1.999 -0.1832 -0.2555 -0.7806
35017SOL    HW114981  12.137   3.862   1.991 -0.9609 -0.7176  2.1278
35017SOL    HW214982  12.179   3.718   2.015  0.9602 -0.7318 -0.7684
35018SOL     OW14983   0.385   7.930  12.948 -0.2959 -0.2132  0.5062
35018SOL    HW114984   0.379   7.874  12.870  1.1999 -1.0268  0.9408
35018SOL    HW214985   0.309   7.906  13.001 -1.5018  0.5482 -0.7851
35019SOL     OW14986   9.533   5.099   9.712 -0.2089 -0.2743  0.0780
35019SOL    HW114987   9.574   5.016   9.689  2.2167  0.2117  2.1865
35019SOL    HW214988   9.492   5.082   9.797 -2.0664  0.0304 -0.7088
35020SOL     OW14989  11.042   8.095   9.314 -0.6713 -0.0483 -0.0043
35020SOL    HW114990  11.103   8.165   9.289  0.6743 -1.0045  0.4910
35020SOL    HW214991  10.977   8.094   9.243 -1.8115  2.8759  0.8598
35021SOL     OW14992   1.169   4.254   9.451 -0.2238 -0.5202 -0.5353
35021SOL    HW114993   1.230   4.213   9.390 -0.3519  1.3916 -2.0293
35021SOL    HW214994   1.088   4.204   9.441 -0.0273 -0.6792 -1.3862
35022SOL     OW14995   6.418  10.028   1.307  0.4342 -0.5772 -0.9759
35022SOL    HW114996   6.476  10.103   1.315  0.9659 -0.8854 -1.8259
35022SOL    HW214997   6.341  10.062   1.260 -0.7831  0.1913  1.4294
35023SOL     OW14998  13.062  12.322   5.958 -0.8723 -0.4296  0.2478
35023SOL    HW114999  13.121  12.267   6.011 -1.7863 -3.1240 -1.3267
35023SOL    HW215000  13.120  12.386   5.917  0.5490 -1.2415  0.8734
35024SOL     OW15001   3.319   5.761  12.113 -0.3916  0.3278  0.7305
35024SOL    HW115002   3.346   5.677  12.149 -0.6520 -0.1840 -0.2244
35024SOL    HW215003   3.377   5.775  12.038  1.1011  2.0597  2.1174
35025SOL     OW15004   9.835   7.960   3.609  0.3349  0.0382 -0.3227
35025SOL    HW115005   9.770   7.982   3.676  0.3217 -1.7503  0.3150
35025SOL    HW215006   9.791   7.976   3.526 -0.6272 -0.2782  0.1106
35026SOL     OW15007   6.904   1.569   4.159 -0.4893  0.2648 -0.1744
35026SOL    HW115008   6.964   1.495   4.144 -1.1918 -0.8273  2.0121
35026SOL    HW215009   6.833   1.554   4.097  0.0338 -0.1256 -0.6969
35027SOL     OW15010   2.533   1.515   9.299 -0.3211  0.7176 -0.5954
35027SOL    HW115011   2.601   1.448   9.288 -0.3247  0.2322  1.7614
35027SOL    HW215012   2.579   1.588   9.341 -1.1884  0.4383  0.8902
35028SOL     OW15013   2.096   4.846   8.686 -0.3356  0.5883  0.5442
35028SOL    HW115014   2.062   4.787   8.619  0.5024  1.9222 -1.1239
35028SOL    HW215015   2.023   4.904   8.706 -0.4389  0.4965  0.4363
35029SOL     OW15016   4.028  12.279   5.573  0.6125  0.3971 -0.1488
35029SOL    HW115017   3.952  12.236   5.611  0.4568  0.4298 -0.4208
35029SOL    HW215018   4.048  12.350   5.634  2.0800 -1.2145  1.3766
35030SOL     OW15019   9.392  10.765  11.333 -0.2493 -0.4945 -0.2080
35030SOL    HW115020   9.329  10.719  11.277  0.5846  0.1489 -1.7518
35030SOL    HW215021   9.343  10.842  11.364 -1.3512 -1.8689  1.6477
35031SOL     OW15022   6.689   6.431   2.068  0.0148 -0.1209 -0.0460
35031SOL    HW115023   6.645   6.364   2.016  2.4039 -1.3714 -0.5755
35031SOL    HW215024   6.737   6.382   2.134  0.7947  1.1587  0.3685
35032SOL     OW15025  10.686   4.113   9.956 -0.1057  0.2403 -0.2708
35032SOL    HW115026  10.671   4.029   9.914 -0.4224  0.2251 -0.1266
35032SOL    HW215027  10.763   4.149   9.912 -0.6839  0.4166 -1.1483
35033SOL     OW15028  13.310   0.415  10.072  0.2881  0.1178 -0.0439
35033SOL    HW115029  13.269   0.349  10.127 -1.3194  0.5343 -0.6780
35033SOL    HW215030  13.326   0.489  10.130 -1.9043  0.7655 -0.1903
35034SOL     OW15031   2.360   8.098  10.491  0.3302 -0.5734  0.2728
35034SOL    HW115032   2.333   8.007  10.474  0.3111 -0.0951 -2.7876
35034SOL    HW215033   2.455   8.093  10.501  0.3837 -0.8978 -0.3304
35035SOL     OW15034  11.906  10.515  10.726 -0.2088  0.0560 -0.4904
35035SOL    HW115035  11.950  10.549  10.804  1.1073 -0.4800 -0.9840
35035SOL    HW215036  11.846  10.449  10.761  0.2895 -0.1056  0.0875
35036SOL     OW15037   2.745  12.202   9.872 -0.3362 -0.2868  0.2210
35036SOL    HW115038   2.816  12.140   9.888 -1.2945 -1.7943 -1.0296
35036SOL    HW215039   2.712  12.179   9.785 -1.8597  0.8506  0.4530
35037SOL     OW15040  10.023  10.794  10.845  0.6321  0.8791 -0.3238
35037SOL    HW115041  10.086  10.867  10.836  0.5654  0.9555 -0.1713
35037SOL    HW215042   9.941  10.829  10.810  0.7920  0.6201 -0.9723
35038SOL     OW15043   0.982  12.554  10.996 -0.0432 -0.2786 -0.2869
35038SOL    HW115044   0.899  12.507  11.009  0.7588 -1.7363 -0.2888
35038SOL    HW215045   0.959  12.627  10.939 -1.6558  0.3682  1.0935
35039SOL     OW15046  11.922   1.530  10.197  0.3620  0.4218  0.0272
35039SOL    HW115047  11.891   1.536  10.287 -0.1987 -2.1204  0.0843
35039SOL    HW215048  11.944   1.437  10.185 -1.2885  0.2749 -2.9559
35040SOL     OW15049   1.815   9.079   0.444  0.6322 -0.2985  0.2627
35040SOL    HW115050   1.845   9.089   0.535  1.2198 -2.4726  0.3672
35040SOL    HW215051   1.722   9.101   0.447  0.1380 -2.2816  1.8729
35041SOL     OW15052   4.400  10.575  12.592  0.3844 -0.3556 -0.3314
35041SOL    HW115053   4.421  10.664  12.619 -1.8798  0.1889 -0.2113
35041SOL    HW215054   4.474  10.523  12.623 -0.1238  0.8401  3.3488
35042SOL     OW15055   0.912   7.200  11.242  0.1709 -0.2367 -0.0626
35042SOL    HW115056   0.882   7.283  11.205  1.0681 -1.2521 -3.4849
35042SOL    HW215057   0.836   7.143  11.237  0.2767 -0.3581 -0.3035
35043SOL     OW15058   1.975  10.060   7.561  0.2199  0.2763  0.1098
35043SOL    HW115059   1.952  10.037   7.651 -0.2411 -0.0881 -0.0925
35043SOL    HW215060   1.892  10.053   7.514  0.7064 -0.8998 -0.6177
35044SOL     OW15061   7.670   8.778   4.142  0.2382 -0.5612 -0.6122
35044SOL    HW115062   7.697   8.861   4.181  0.7406 -0.4282 -1.2323
35044SOL    HW215063   7.635   8.727   4.215 -0.9888  0.5571 -0.3830
35045SOL     OW15064   4.952  11.402   4.475  0.0267 -0.2341  0.2450
35045SOL    HW115065   4.975  11.371   4.388  1.1077  1.2798 -0.0452
35045SOL    HW215066   4.989  11.490   4.480  0.8136 -0.6250  2.5647
35046SOL     OW15067  12.610   6.034  12.810 -0.2468  0.0449 -0.3204
35046SOL    HW115068  12.528   6.048  12.858  0.7112  2.1870  0.8429
35046SOL    HW215069  12.611   5.940  12.792 -2.3535 -0.2477  0.7089
35047SOL     OW15070  12.799   0.370   7.329 -0.0143 -0.3825  0.3476
35047SOL    HW115071  12.780   0.351   7.421 -1.4116  0.9711  0.3747
35047SOL    HW215072  12.765   0.294   7.281 -1.4434 -0.0402  0.7797
35048SOL     OW15073   6.614   5.252  12.688  0.0807 -0.1988  0.3314
35048SOL    HW115074   6.520   5.262  12.708  0.1525  0.5908  0.2884
35048SOL    HW215075   6.640   5.173  12.736 -0.7925 -0.9002 -0.3129
35049SOL     OW15076   2.293   7.586   2.017 -0.5002  0.0753 -0.2807
35049SOL    HW115077   2.385   7.576   1.990 -0.8908 -0.8220 -1.3918
35049SOL    HW215078   2.246   7.600   1.935 -1.3258  0.9174  0.3155
35050SOL     OW15079   7.218  10.169   1.439 -0.2549  0.1292  0.0273
35050SOL    HW115080   7.264  10.113   1.376 -0.1735  1.8344 -1.5024
35050SOL    HW215081   7.179  10.238   1.386  0.8107  2.3319  1.9535
35051SOL     OW15082   8.531   8.938  13.024  0.0971 -0.5274  0.1932
35051SOL    HW115083   8.581   8.856  13.031  1.6056  0.3890  0.6795
35051SOL    HW215084   8.513   8.947  12.931 -1.7556 -2.3301  0.3153
35052SOL     OW15085   3.110  12.302   8.673 -0.4265 -0.1093 -0.1211
35052SOL    HW115086   3.067  12.235   8.726 -0.0007 -0.5664 -0.3449
35052SOL    HW215087   3.089  12.278   8.583 -0.2676  0.0562 -0.2025
35053SOL     OW15088   0.595   8.225  10.596 -0.0439 -0.2828  0.1765
35053SOL    HW115089   0.679   8.190  10.626 -0.0948 -1.5200 -1.0417
35053SOL    HW215090   0.616   8.311  10.561  1.1733 -1.4327 -2.1408
35054SOL     OW15091   1.262   6.026   5.446  0.3720 -0.1599 -0.0765
35054SOL    HW115092   1.276   6.060   5.534 -0.7773  0.1731 -0.0117
35054SOL    HW215093   1.212   5.945   5.459  0.5527 -0.3308 -0.4117
35055SOL     OW15094   3.663  11.424  11.907  0.1620  0.2192 -0.6544
35055SOL    HW115095   3.693  11.455  11.822 -0.5455  0.5747 -0.7845
35055SOL    HW215096   3.592  11.363  11.886 -1.4842  1.9248 -0.2885
35056SOL     OW15097   4.924   0.742   1.089  0.1246 -0.2185 -0.6370
35056SOL    HW115098   4.966   0.797   1.155 -0.4653  1.2633 -1.4655
35056SOL    HW215099   4.920   0.655   1.130 -0.8331  0.7870  1.5456
35057SOL     OW15100   5.029   4.452  10.788 -0.9973 -0.0459  0.3989
35057SOL    HW115101   5.099   4.517  10.795 -1.4769  0.4297  0.7868
35057SOL    HW215102   5.074   4.373  10.758 -0.4993  0.6148 -0.6948
35058SOL     OW15103   2.694  12.517   0.669 -0.9898 -0.4030  0.0223
35058SOL    HW115104   2.656  12.528   0.582 -0.3106  0.9515 -0.1419
35058SOL    HW215105   2.781  12.558   0.663 -0.0896 -2.0903  0.7832
35059SOL     OW15106   1.778   7.674   8.574  0.5592 -0.0986 -0.5778
35059SOL    HW115107   1.767   7.732   8.649 -0.6713  0.0217 -0.8245
35059SOL    HW215108   1.813   7.731   8.505 -1.1062  0.5151 -0.9690
35060SOL     OW15109   1.436   9.418   9.759 -0.3452  0.0188  0.3784
35060SOL    HW115110   1.382   9.466   9.822  0.0605  0.4019  0.4388
35060SOL    HW215111   1.438   9.328   9.793 -4.5882 -1.2239 -1.9210
35061SOL     OW15112   3.859   3.578   8.736 -0.3334  0.0565 -0.0262
35061SOL    HW115113   3.902   3.553   8.654 -0.3465  0.2111 -0.0800
35061SOL    HW215114   3.785   3.517   8.743 -0.0052 -0.3283  0.1599
35062SOL     OW15115  11.991   5.914   5.879  0.1981  0.4678 -0.8810
35062SOL    HW115116  11.957   5.826   5.868  2.5050 -0.5015 -0.8424
35062SOL    HW215117  11.984   5.954   5.792 -0.8489  0.2703 -0.8984
35063SOL     OW15118   7.676   1.433  12.343  0.3593 -0.3361  0.3599
35063SOL    HW115119   7.657   1.466  12.255 -0.1827 -3.5032 -0.8654
35063SOL    HW215120   7.770   1.417  12.343  0.4429  0.1574  0.5469
35064SOL     OW15121   2.867   0.228   3.992  0.0637 -0.0947 -0.2260
35064SOL    HW115122   2.867   0.288   4.066 -0.2150 -1.1241  0.6346
35064SOL    HW215123   2.776   0.197   3.986  0.4018 -1.1724 -0.0168
35065SOL     OW15124   9.589   7.421   9.983  0.4709 -0.3889  0.5646
35065SOL    HW115125   9.650   7.375  10.041 -0.1974 -2.2543 -0.1405
35065SOL    HW215126   9.646   7.463   9.918  1.0664 -1.0700  0.6282
35066SOL     OW15127  12.506   9.387   8.066 -0.6608  0.0329  0.3124
35066SOL    HW115128  12.420   9.382   8.025 -1.1249 -1.1682  1.3950
35066SOL    HW215129  12.496   9.452   8.135 -0.8916 -0.5932  0.8722
35067SOL     OW15130   5.107   3.815   5.668 -0.4100  0.5185 -0.0045
35067SOL    HW115131   5.196   3.849   5.674  0.1875 -1.0718  0.7453
35067SOL    HW215132   5.115   3.735   5.615 -1.6420  1.0912 -1.1257
35068SOL     OW15133   0.014  12.342   8.440  0.2726 -0.1670 -0.1859
35068SOL    HW115134   0.013  12.395   8.361 -0.0345 -0.4090 -0.3465
35068SOL    HW215135   0.065  12.393   8.503  2.6177 -1.0285 -1.2683
35069SOL     OW15136   8.225  12.583   5.795  0.3284  0.0693 -0.4119
35069SOL    HW115137   8.139  12.552   5.768 -0.6397  1.7671  0.5424
35069SOL    HW215138   8.280  12.505   5.795 -1.5406 -1.3258  0.2749
35070SOL     OW15139   6.344   3.344   0.725  0.2376 -0.4500  0.5545
35070SOL    HW115140   6.344   3.390   0.642 -2.0980 -1.8639 -0.3142
35070SOL    HW215141   6.352   3.252   0.701  2.6573 -0.7449  2.1250
35071SOL     OW15142   5.346   6.279   2.520 -0.6686 -0.6588  0.0093
35071SOL    HW115143   5.327   6.204   2.576 -2.3184  0.0853  0.5237
35071SOL    HW215144   5.333   6.247   2.431  1.2391 -1.6539  0.0390
35072SOL     OW15145   0.484   7.351   6.114 -0.4897  0.4076  0.4261
35072SOL    HW115146   0.426   7.275   6.103  0.1966 -0.0041 -0.5538
35072SOL    HW215147   0.444   7.420   6.062  0.0217  0.0341 -0.4968
35073SOL     OW15148   6.004   3.023  10.853 -0.0859 -0.4938 -0.2138
35073SOL    HW115149   5.980   2.933  10.875  0.2948 -0.7589 -0.8475
35073SOL    HW215150   6.016   3.066  10.937 -1.0899 -0.8102  0.1061
35074SOL     OW15151   7.635   3.457   8.799  0.3945 -0.3533  0.2428
35074SOL    HW115152   7.657   3.421   8.885 -2.1774 -2.3775  0.1789
35074SOL    HW215153   7.552   3.416   8.777 -0.8229  2.7841 -1.6761
35075SOL     OW15154  13.117   7.791  11.310  0.5243 -0.2877  0.0313
35075SOL    HW115155  13.086   7.769  11.398 -2.1440  0.0730 -0.7288
35075SOL    HW215156  13.112   7.886  11.307 -0.0220 -0.3340 -0.6935
35076SOL     OW15157   6.193  10.335   5.311 -0.2894 -0.0619 -0.2661
35076SOL    HW115158   6.235  10.408   5.355  0.5856 -0.8168  0.1820
35076SOL    HW215159   6.265  10.277   5.287 -0.9084 -0.4325 -1.2548
35077SOL     OW15160   9.075  11.584  12.039 -1.0001  0.1431  0.4372
35077SOL    HW115161   9.079  11.493  12.008 -2.5320  0.4342 -0.7473
35077SOL    HW215162   9.160  11.598  12.081  0.1592 -1.1565 -1.2999
35078SOL     OW15163   5.424   7.018  11.038  0.2182 -0.2460 -0.7860
35078SOL    HW115164   5.367   7.026  10.962  3.2649 -1.9694 -3.5193
35078SOL    HW215165   5.434   6.924  11.051  1.0925  0.0089  0.6706
35079SOL     OW15166  13.055   8.178   6.138 -0.0885  0.4457  0.4287
35079SOL    HW115167  13.139   8.132   6.132  0.8324  2.0839  0.0539
35079SOL    HW215168  13.023   8.159   6.226  0.6775 -0.2152  0.5740
35080SOL     OW15169   6.339  12.178   1.265 -0.2362 -0.2746 -0.0189
35080SOL    HW115170   6.255  12.137   1.243 -0.0832  0.6523 -2.8012
35080SOL    HW215171   6.316  12.260   1.309 -0.8848  0.3752 -1.5002
35081SOL     OW15172  12.291   5.200  12.718 -0.0182 -0.4224 -0.6403
35081SOL    HW115173  12.268   5.114  12.754 -0.2713 -0.2148 -0.2982
35081SOL    HW215174  12.230   5.213  12.645 -0.3314 -0.3071 -0.3615
35082SOL     OW15175  10.644   8.212   1.840 -0.5900  1.0828  0.4102
35082SOL    HW115176  10.699   8.138   1.866  0.8337  1.9569  0.0291
35082SOL    HW215177  10.705   8.286   1.837 -1.7317  2.0180 -0.4119
35083SOL     OW15178   5.473   7.543   6.490  0.3390 -0.1997  0.6442
35083SOL    HW115179   5.543   7.548   6.425 -0.5929  0.1936 -0.3718
35083SOL    HW215180   5.474   7.629   6.533 -1.0908  0.7755 -1.1178
35084SOL     OW15181   0.158   2.802   3.555 -0.2793 -0.0155 -0.5582
35084SOL    HW115182   0.146   2.897   3.563  0.3557  0.0674 -0.5172
35084SOL    HW215183   0.217   2.779   3.627  0.5394 -0.2466 -1.2814
35085SOL     OW15184   9.841   8.656   9.530 -0.3131  0.3254 -0.0484
35085SOL    HW115185   9.771   8.637   9.468  0.2693 -2.9464  0.1077
35085SOL    HW215186   9.796   8.692   9.606 -2.0484 -2.1762  0.2683
35086SOL     OW15187   4.994   8.008   4.660 -0.4217 -0.2513  0.0305
35086SOL    HW115188   4.909   7.972   4.635 -0.8541 -0.2630  1.4599
35086SOL    HW215189   4.980   8.102   4.665 -0.0505 -0.1422 -0.8147
35087SOL     OW15190   4.358   8.617  10.318  0.3427 -0.7856 -0.0561
35087SOL    HW115191   4.381   8.525  10.314  1.0115 -0.5936 -0.8893
35087SOL    HW215192   4.263   8.619  10.303  0.3196 -1.3378  0.0192
35088SOL     OW15193   2.690   4.876   2.962 -0.3667  0.1531  0.2894
35088SOL    HW115194   2.704   4.965   2.930 -2.0394  1.0682  1.9288
35088SOL    HW215195   2.717   4.879   3.054  2.4768 -1.8954 -0.3330
35089SOL     OW15196   2.356  11.696   4.583 -0.1848 -0.8479 -0.3380
35089SOL    HW115197   2.403  11.728   4.507  1.3693  0.9276  1.2725
35089SOL    HW215198   2.295  11.766   4.606  1.4051 -0.0050  1.6745
35090SOL     OW15199   7.405   6.273   2.006 -0.0699  0.6365 -0.1396
35090SOL    HW115200   7.425   6.364   1.983  1.1518  0.1438 -1.1599
35090SOL    HW215201   7.393   6.275   2.100  3.0291  1.3869  0.3713
35091SOL     OW15202  12.859  10.094   4.344  0.4218  0.3526 -0.2004
35091SOL    HW115203  12.841  10.177   4.387 -1.2251 -0.6378  1.1769
35091SOL    HW215204  12.864  10.115   4.251  1.7450  2.2060  0.2414
35092SOL     OW15205   9.688   9.785  11.215 -0.1585  0.0838  0.0302
35092SOL    HW115206   9.746   9.813  11.143 -0.1260  0.3365  0.1529
35092SOL    HW215207   9.603   9.824  11.194 -0.2699 -0.2383 -0.1183
35093SOL     OW15208   0.273   2.536   8.662  0.7421 -0.1202  0.6816
35093SOL    HW115209   0.306   2.625   8.654 -0.4977  0.2631 -0.6750
35093SOL    HW215210   0.331   2.484   8.606  0.9203 -0.0036  0.7578
35094SOL     OW15211  11.562   6.367  11.846  0.0606  0.2606  0.2015
35094SOL    HW115212  11.602   6.418  11.775 -0.5310  1.0020  0.3906
35094SOL    HW215213  11.475   6.344  11.813 -0.8683  2.0047  1.2683
35095SOL     OW15214   2.767   2.073  12.016  0.4901  0.0644  0.2514
35095SOL    HW115215   2.764   2.165  11.989  0.0477 -0.1131 -0.3053
35095SOL    HW215216   2.687   2.060  12.066  0.1651 -0.2250 -0.3395
35096SOL     OW15217   9.255   9.574   2.815  0.0923 -0.4553  0.3941
35096SOL    HW115218   9.271   9.491   2.771 -1.4707 -0.9903  0.7633
35096SOL    HW215219   9.204   9.625   2.752  0.4496 -0.0456  0.4336
35097SOL     OW15220   8.953   8.791  11.420 -0.0552 -0.4212  0.8536
35097SOL    HW115221   8.872   8.758  11.383  0.3296  0.2338 -0.6525
35097SOL    HW215222   9.003   8.823  11.345  1.7070 -1.0350  1.7033
35098SOL     OW15223   8.589  11.298   9.483 -0.6782 -0.4165  0.2411
35098SOL    HW115224   8.614  11.206   9.476  0.5690 -0.2197  1.5476
35098SOL    HW215225   8.646  11.333   9.551  0.5034  1.8797 -1.7719
35099SOL     OW15226  13.226   1.367   4.527  0.0584 -0.2575 -0.4352
35099SOL    HW115227  13.224   1.313   4.606  3.0622  1.6320  1.1238
35099SOL    HW215228  13.147   1.421   4.531  0.3485  0.0644  1.5087
35100SOL     OW15229   9.078   2.101  11.854 -0.3962  0.3608  0.3210
35100SOL    HW115230   9.071   2.196  11.844 -2.0578  0.1791 -0.8368
35100SOL    HW215231   9.087   2.068  11.764  3.7465 -0.4560  0.8556
35101SOL     OW15232  10.189   8.161   9.993  0.5851 -0.5840 -0.5020
35101SOL    HW115233  10.164   8.225   9.927 -1.3219 -0.4348  0.3000
35101SOL    HW215234  10.272   8.124   9.960  1.8673  2.3443 -0.9029
35102SOL     OW15235   1.840  12.002  11.148  0.5024 -0.3951 -0.0921
35102SOL    HW115236   1.759  11.955  11.168 -0.5502  0.8326 -1.3072
35102SOL    HW215237   1.857  11.983  11.056 -0.3457  2.0873 -0.8314
35103SOL     OW15238  10.201   8.398  11.353 -0.2426 -0.7866 -0.0699
35103SOL    HW115239  10.286   8.374  11.315 -0.6300  1.0051 -2.3073
35103SOL    HW215240  10.167   8.465  11.294 -2.2366  0.1621  2.0167
35104SOL     OW15241   4.174   3.564   6.146  0.1968  0.3031 -0.4646
35104SOL    HW115242   4.093   3.549   6.096  0.1246 -0.8862 -0.0380
35104SOL    HW215243   4.244   3.541   6.086  0.1356 -0.4534 -0.2571
35105SOL     OW15244   4.384   7.445   1.266  0.6606  0.3368 -0.9352
35105SOL    HW115245   4.411   7.407   1.182 -0.4883 -0.6172 -0.9044
35105SOL    HW215246   4.296   7.410   1.281  0.3831  1.4033  0.1205
35106SOL     OW15247   8.734   6.662   2.695  0.2918 -0.2557  0.1755
35106SOL    HW115248   8.752   6.571   2.673 -1.5636 -0.4607 -0.6704
35106SOL    HW215249   8.746   6.710   2.612  2.0913  0.4509  0.7907
35107SOL     OW15250   0.197   1.410  12.587 -0.1505  0.5995  0.1242
35107SOL    HW115251   0.165   1.497  12.610 -2.1641 -0.0300 -0.1056
35107SOL    HW215252   0.164   1.394  12.499 -0.5996 -0.7252  0.4985
35108SOL     OW15253  10.261  12.165   2.690  0.1903  0.0556  0.0424
35108SOL    HW115254  10.170  12.163   2.659  0.2197  0.6707 -0.0813
35108SOL    HW215255  10.284  12.073   2.701 -0.4013 -0.1089 -0.0712
35109SOL     OW15256   9.145  13.185   5.518  0.0868  0.3109 -0.0609
35109SOL    HW115257   9.218  13.180   5.456 -0.1604  0.0576 -0.3357
35109SOL    HW215258   9.161  13.264   5.568  1.1181 -0.2775  0.5802
35110SOL     OW15259  11.606  11.294   3.568  0.0927 -0.6110 -0.1473
35110SOL    HW115260  11.566  11.267   3.651  0.2290 -0.2531  0.0363
35110SOL    HW215261  11.614  11.389   3.575 -0.6730 -0.4751 -0.9150
35111SOL     OW15262   6.809  12.909   2.704 -0.0017  0.3632  0.3689
35111SOL    HW115263   6.731  12.918   2.650  0.8360  0.5983 -0.8618
35111SOL    HW215264   6.869  12.976   2.670  1.5360 -1.2146 -0.1880
35112SOL     OW15265   4.426   3.950   6.643 -0.0413  0.5864  0.1277
35112SOL    HW115266   4.346   3.999   6.620  0.6822  1.0629 -1.5242
35112SOL    HW215267   4.497   4.006   6.612  0.8316 -1.3862 -1.6372
35113SOL     OW15268   4.365   9.587   9.675 -0.4001  0.5205  0.0068
35113SOL    HW115269   4.376   9.599   9.769  0.6997  2.0483 -0.2839
35113SOL    HW215270   4.450   9.609   9.637 -0.3539 -1.5732 -1.2554
35114SOL     OW15271   9.356   6.458   0.681  0.0614  0.6552  0.2582
35114SOL    HW115272   9.431   6.512   0.656  0.2541 -0.7502 -2.4695
35114SOL    HW215273   9.381   6.421   0.766  1.7932  1.3979  0.1184
35115SOL     OW15274   3.796  11.207   9.812  0.6165  0.1345  0.0825
35115SOL    HW115275   3.813  11.247   9.727  0.9865 -0.7856 -0.2860
35115SOL    HW215276   3.753  11.276   9.863  0.1819  0.6211 -0.9200
35116SOL     OW15277  10.444   7.269   4.401 -0.0168  0.1823  0.1965
35116SOL    HW115278  10.350   7.254   4.394 -0.1208  1.1981 -1.0036
35116SOL    HW215279  10.455   7.315   4.484 -0.4114 -0.9548  0.9092
35117SOL     OW15280   1.470  10.910  11.302  0.2266 -0.7156  0.3589
35117SOL    HW115281   1.558  10.883  11.328  0.3637 -0.7421 -0.1174
35117SOL    HW215282   1.413  10.839  11.330  0.1420 -0.0299  2.0363
35118SOL     OW15283   3.247   5.202  12.470  0.0454 -0.4578  0.0164
35118SOL    HW115284   3.301   5.124  12.460  0.7853  0.2667 -2.2131
35118SOL    HW215285   3.228   5.229  12.380  0.1809  2.1598  0.7089
35119SOL     OW15286   6.764   9.708   6.416  0.1278 -0.0614 -0.0040
35119SOL    HW115287   6.784   9.637   6.477 -1.6841  0.9176  1.8673
35119SOL    HW215288   6.842   9.764   6.417  0.6319 -0.7562  0.3779
35120SOL     OW15289   6.678   1.740   2.766  0.3485  0.0139  0.0071
35120SOL    HW115290   6.620   1.761   2.693  1.9650  1.0597 -1.0373
35120SOL    HW215291   6.634   1.775   2.843  0.1813  1.9768 -0.9265
35121SOL     OW15292   2.762   3.154   6.056 -0.4142  0.0286 -0.2581
35121SOL    HW115293   2.837   3.214   6.054  0.2838 -0.8471 -0.8278
35121SOL    HW215294   2.721   3.171   6.141  1.1368 -0.3129  0.5969
35122SOL     OW15295   3.283   4.412   8.231  0.3666 -0.3338 -0.0705
35122SOL    HW115296   3.287   4.327   8.276  2.8089 -0.4883 -0.4387
35122SOL    HW215297   3.290   4.390   8.138  1.1809  0.2546 -0.1602
35123SOL     OW15298   4.643   3.012   4.393 -0.0701  0.4809  0.0571
35123SOL    HW115299   4.660   3.067   4.470 -1.6731 -1.6815  2.0772
35123SOL    HW215300   4.549   3.021   4.379  0.1689  0.6671 -1.5869
35124SOL     OW15301   8.842  11.222  11.216 -0.0052 -0.0014  0.2548
35124SOL    HW115302   8.786  11.260  11.149  0.7312  0.2606 -0.2248
35124SOL    HW215303   8.790  11.152  11.255 -0.0071 -0.9662 -1.4198
35125SOL     OW15304   7.724  10.394  11.723 -0.0824 -0.3768  0.0717
35125SOL    HW115305   7.655  10.402  11.789 -0.0070  0.1232  0.0969
35125SOL    HW215306   7.694  10.448  11.650  0.2349 -0.2239  0.0491
35126SOL     OW15307   6.730   8.017   2.290 -0.2642  0.4223 -0.1742
35126SOL    HW115308   6.818   8.054   2.294  0.3786 -0.7477 -1.9867
35126SOL    HW215309   6.676   8.087   2.252  0.0876  0.8083  0.0281
35127SOL     OW15310   9.240   7.968   4.534  0.4633  0.2456  0.0605
35127SOL    HW115311   9.253   7.906   4.463 -0.6163 -0.5398  0.5296
35127SOL    HW215312   9.210   7.915   4.608 -1.5401  1.4142  0.1585
35128SOL     OW15313   9.340   9.652   4.767  0.1119 -0.1345 -0.2184
35128SOL    HW115314   9.369   9.572   4.809  1.1759 -0.9756 -2.3816
35128SOL    HW215315   9.255   9.629   4.728 -1.7991  1.1680  2.7740
35129SOL     OW15316   2.081   1.279  12.092 -0.2862 -0.0101  0.2842
35129SOL    HW115317   1.990   1.277  12.120 -0.6907 -1.3824 -0.9929
35129SOL    HW215318   2.126   1.220  12.153 -0.6475 -0.8881 -0.2847
35130SOL     OW15319  11.833   1.353  11.362  0.1723  0.3860 -0.0819
35130SOL    HW115320  11.747   1.394  11.349 -0.8990 -1.2971  1.2787
35130SOL    HW215321  11.816   1.280  11.421  2.2479 -1.0922 -1.1878
35131SOL     OW15322  10.486   7.407   3.255 -0.2782  0.1080 -0.4997
35131SOL    HW115323  10.555   7.384   3.192  0.7431  1.2984  0.1397
35131SOL    HW215324  10.411   7.429   3.200  0.6187  1.2148 -1.3476
35132SOL     OW15325  10.017   2.404   1.073 -0.1637  0.4183 -0.0530
35132SOL    HW115326  10.026   2.399   1.168  0.1827  2.5674  0.0663
35132SOL    HW215327  10.104   2.382   1.039 -0.7053 -2.1024 -0.0233
35133SOL     OW15328   8.258   5.909  10.167 -0.0944  0.1613 -0.3094
35133SOL    HW115329   8.256   5.813  10.167  0.9772  0.1199  0.3739
35133SOL    HW215330   8.351   5.931  10.169 -0.3353  1.2104  0.5143
35134SOL     OW15331   0.603  12.029   0.809  0.3843 -0.4516  0.3944
35134SOL    HW115332   0.515  12.055   0.781  0.6171 -0.5609 -0.4693
35134SOL    HW215333   0.593  12.009   0.902 -0.3939  0.0249  0.4299
35135SOL     OW15334   4.799   5.309   4.774  0.0390  0.2197 -0.0718
35135SOL    HW115335   4.717   5.261   4.784 -0.3426  0.8749 -0.0093
35135SOL    HW215336   4.809   5.359   4.855 -0.1470  1.1163 -0.5903
35136SOL     OW15337   7.931  10.839   7.584 -0.1058  0.1874 -0.3112
35136SOL    HW115338   7.956  10.761   7.535  1.1990  0.4451 -0.1038
35136SOL    HW215339   7.848  10.867   7.545 -1.3366 -2.0744  0.5520
35137SOL     OW15340   1.933   2.802  10.058 -0.1450  0.0191 -0.2946
35137SOL    HW115341   1.941   2.837  10.147 -0.2809  0.5798 -0.5013
35137SOL    HW215342   1.928   2.707  10.070 -0.5374  0.1125  0.3250
35138SOL     OW15343  11.660   5.503   2.719 -0.3168  0.3982 -0.6474
35138SOL    HW115344  11.696   5.495   2.631  0.0667 -0.4020 -0.4269
35138SOL    HW215345  11.594   5.434   2.725 -0.1977  0.3163 -0.2425
35139SOL     OW15346   3.576   5.539   6.273 -0.0576  0.1122  0.7005
35139SOL    HW115347   3.589   5.539   6.178  2.3090  0.5894  0.9733
35139SOL    HW215348   3.518   5.464   6.289 -0.0982 -0.2802 -1.0651
35140SOL     OW15349   2.967   9.267   5.347  0.2097  0.2047  0.4746
35140SOL    HW115350   2.990   9.292   5.258 -0.6221  1.6804  0.6356
35140SOL    HW215351   3.015   9.328   5.403 -2.7854  2.4567  0.8444
35141SOL     OW15352  12.105  11.690   2.943  0.3658  0.1801 -0.8252
35141SOL    HW115353  12.183  11.696   2.888  2.1861 -1.2178  1.4162
35141SOL    HW215354  12.125  11.620   3.005 -1.7431  1.3286  1.3083
35142SOL     OW15355   7.389   2.111  10.495  0.2344 -0.3039  0.1571
35142SOL    HW115356   7.455   2.133  10.560  1.0634 -0.4282 -0.6233
35142SOL    HW215357   7.418   2.027  10.459 -0.1880 -0.2181 -0.4005
35143SOL     OW15358  12.987   3.801   6.153 -0.4087  0.6624 -0.0134
35143SOL    HW115359  12.893   3.788   6.164 -0.2629 -1.0802 -0.5099
35143SOL    HW215360  13.017   3.837   6.236 -1.1220 -1.2521  1.1361
35144SOL     OW15361   7.081  11.374  12.292  0.2973  0.0378  0.1808
35144SOL    HW115362   7.022  11.348  12.362  2.1313  0.1117  1.8364
35144SOL    HW215363   7.102  11.466  12.310 -0.0093  0.3950 -1.1099
35145SOL     OW15364   5.401   5.576  11.012 -0.0110 -0.6399 -0.0228
35145SOL    HW115365   5.444   5.530  11.084  0.3820  1.3736  1.1316
35145SOL    HW215366   5.472   5.627  10.972 -0.5486 -0.4951 -0.7913
35146SOL     OW15367   7.611  11.383   7.700  0.3736 -0.0955  0.0027
35146SOL    HW115368   7.622  11.297   7.739  1.2573 -0.2208 -0.4992
35146SOL    HW215369   7.700  11.416   7.688  0.0439  1.0502  0.5321
35147SOL     OW15370  12.420   3.617   8.342 -0.0446 -0.0482  0.9938
35147SOL    HW115371  12.455   3.677   8.408  2.9708 -0.5851  0.0201
35147SOL    HW215372  12.470   3.637   8.263 -2.0433 -0.8980 -0.5755
35148SOL     OW15373   6.767   6.390   6.281 -0.0088  0.1021  0.2580
35148SOL    HW115374   6.689   6.355   6.325  0.2740  0.0103  0.6892
35148SOL    HW215375   6.747   6.381   6.188 -0.6062  0.2821  0.3595
35149SOL     OW15376   3.846   7.720   2.804 -0.2863  0.5861  0.4999
35149SOL    HW115377   3.867   7.724   2.711 -0.6810  1.5690  0.4526
35149SOL    HW215378   3.756   7.751   2.811 -1.0652 -1.5422  0.9722
35150SOL     OW15379   2.388   5.605   6.245  0.1221 -0.2795 -0.0323
35150SOL    HW115380   2.463   5.657   6.276  0.1742 -0.6565  0.4787
35150SOL    HW215381   2.312   5.661   6.259  0.1577 -0.3998  0.6858
35151SOL     OW15382   9.674   1.416   4.723 -0.4145  0.3982 -0.1894
35151SOL    HW115383   9.705   1.373   4.803 -0.6149  2.0889  0.8754
35151SOL    HW215384   9.731   1.493   4.714 -1.5343  1.2021 -0.6418
35152SOL     OW15385  11.112   1.412   3.400  0.2062 -0.5234 -0.0671
35152SOL    HW115386  11.144   1.483   3.455  0.4070 -0.3771 -0.3753
35152SOL    HW215387  11.019   1.431   3.388 -0.3816 -1.6729  1.9701
35153SOL     OW15388   5.686   6.923   3.314  0.0166 -0.0202  0.0757
35153SOL    HW115389   5.593   6.919   3.334 -0.0886  2.4591  0.3539
35153SOL    HW215390   5.727   6.950   3.397  1.0547 -1.3394  0.0378
35154SOL     OW15391   5.315   2.571   9.713  0.1624 -0.5033 -0.1245
35154SOL    HW115392   5.403   2.600   9.738  0.4568 -0.5053 -1.1461
35154SOL    HW215393   5.329   2.506   9.645 -0.5400 -2.1927  1.2423
35155SOL     OW15394   2.372   4.089   1.053 -0.2854  0.2870 -0.2791
35155SOL    HW115395   2.314   4.014   1.065  0.8733 -0.5544  0.2266
35155SOL    HW215396   2.360   4.142   1.132 -1.8806  1.2309 -1.0895
35156SOL     OW15397  11.787   3.308   4.286  0.7468 -0.2359  0.7284
35156SOL    HW115398  11.726   3.334   4.355 -0.7645 -0.1069 -0.6052
35156SOL    HW215399  11.811   3.218   4.308 -0.5868 -0.5868  0.8479
35157SOL     OW15400   0.936   0.725   9.388  0.6222 -1.0751  0.4423
35157SOL    HW115401   0.917   0.695   9.477 -1.5876  1.7306  1.0514
35157SOL    HW215402   0.957   0.818   9.397  0.3017 -0.7001 -1.9465
35158SOL     OW15403   0.631   3.309   4.148 -0.0145 -0.0569  0.1635
35158SOL    HW115404   0.662   3.359   4.223 -0.8360 -1.5608  1.5762
35158SOL    HW215405   0.541   3.340   4.135 -1.1354 -2.1678  2.1099
35159SOL     OW15406   3.210   6.493   9.199 -0.1281  0.1221 -0.5298
35159SOL    HW115407   3.276   6.527   9.259  0.7583 -1.8507 -0.2788
35159SOL    HW215408   3.127   6.522   9.234  0.4623  0.1961  0.8601
35160SOL     OW15409   6.694   8.679   9.606  0.3704  0.2094 -0.5577
35160SOL    HW115410   6.685   8.612   9.673  0.0531 -0.5382 -1.3369
35160SOL    HW215411   6.749   8.746   9.646  0.4046 -0.3522  0.3487
35161SOL     OW15412   7.260  12.686   4.187  0.2014  0.5367  0.2911
35161SOL    HW115413   7.176  12.726   4.163  0.1163  0.2900  0.1679
35161SOL    HW215414   7.247  12.592   4.170  0.5335  0.5089  0.1801
35162SOL     OW15415   4.039  11.419   1.006 -0.4276  0.1590  0.3833
35162SOL    HW115416   3.991  11.500   1.022 -0.4189  0.3022 -0.3014
35162SOL    HW215417   4.063  11.388   1.093 -1.2168  0.4164  0.7019
35163SOL     OW15418  12.177   4.540   5.388 -0.2346 -0.6221 -0.3923
35163SOL    HW115419  12.172   4.620   5.440 -0.0230 -1.9164  1.7102
35163SOL    HW215420  12.095   4.537   5.339 -0.8311  0.1984  0.5360
35164SOL     OW15421  11.021   5.954   6.708  0.3694  0.4525 -0.5286
35164SOL    HW115422  11.098   5.974   6.761  0.0339 -0.0840  0.1710
35164SOL    HW215423  10.976   5.884   6.755  1.1251 -1.5060 -2.5312
35165SOL     OW15424   2.876   9.530   3.169  0.4855  0.0678 -0.1746
35165SOL    HW115425   2.856   9.499   3.257  1.6691 -2.5453 -0.7234
35165SOL    HW215426   2.947   9.594   3.181  0.9325 -0.5772  0.7654
35166SOL     OW15427   1.385   1.464   5.167 -0.1459 -0.2023 -0.1612
35166SOL    HW115428   1.402   1.534   5.103  1.2130 -0.9253 -0.6449
35166SOL    HW215429   1.471   1.446   5.205 -0.5269 -1.4008  0.1691
35167SOL     OW15430   0.892   7.914  11.918 -0.8459 -0.1054  0.3513
35167SOL    HW115431   0.942   7.907  11.999  0.4530 -1.1265 -0.4973
35167SOL    HW215432   0.917   7.837  11.868 -1.5179  0.5672 -1.0761
35168SOL     OW15433   8.807   8.930   8.407 -0.4792 -0.4094 -0.4420
35168SOL    HW115434   8.808   8.962   8.317  0.3135 -0.7811 -0.5821
35168SOL    HW215435   8.898   8.903   8.423 -0.9371 -1.8504 -0.0900
35169SOL     OW15436   0.157   6.700   4.193 -0.3202 -0.4054 -0.4023
35169SOL    HW115437   0.188   6.783   4.228 -1.2640  0.1895 -0.9432
35169SOL    HW215438   0.229   6.639   4.210 -0.0718  0.2345  1.0539
35170SOL     OW15439   4.706   3.409   5.864 -0.8298  0.0156 -0.5146
35170SOL    HW115440   4.669   3.323   5.842  2.2853 -0.6795 -4.2592
35170SOL    HW215441   4.647   3.472   5.823 -0.4827 -0.7724 -2.3310
35171SOL     OW15442   9.233   9.161   5.402 -0.7755  0.0291  0.1320
35171SOL    HW115443   9.225   9.248   5.363  1.4882  1.2463  2.0785
35171SOL    HW215444   9.275   9.108   5.334 -2.4489  0.3170 -1.1883
35172SOL     OW15445   4.851   3.274   5.224  0.2439 -0.2366 -0.1640
35172SOL    HW115446   4.945   3.282   5.207  0.0025  2.7680 -0.7100
35172SOL    HW215447   4.816   3.231   5.146  1.0040 -0.1369 -0.5731
35173SOL     OW15448   4.193   6.335   8.131 -0.5226 -0.1756  0.4725
35173SOL    HW115449   4.286   6.356   8.118 -0.8378 -0.0613 -2.3356
35173SOL    HW215450   4.151   6.419   8.146 -0.3368 -0.0831  0.4788
35174SOL     OW15451   7.327   2.557  10.261 -0.0125 -0.8977 -0.3124
35174SOL    HW115452   7.313   2.503  10.338 -0.3943 -0.3405  0.0127
35174SOL    HW215453   7.406   2.521  10.221 -0.2840 -1.7103 -0.1188
35175SOL     OW15454   2.121  10.689   1.570 -0.5401  0.8346  0.2022
35175SOL    HW115455   2.152  10.613   1.620  0.4883  0.9586 -0.2165
35175SOL    HW215456   2.160  10.677   1.483 -0.0031  2.0591  0.2592
35176SOL     OW15457  11.708  12.266   6.464 -0.1533 -0.1904  0.5477
35176SOL    HW115458  11.678  12.175   6.454 -1.0709  0.2028 -0.6640
35176SOL    HW215459  11.764  12.265   6.541  0.1687 -1.8646  0.3362
35177SOL     OW15460  12.979   6.973   3.023  0.7367  0.7246 -0.0732
35177SOL    HW115461  13.006   6.948   3.112 -1.8904  2.1761  1.2609
35177SOL    HW215462  12.992   7.068   3.020 -1.1754  1.0200 -0.3996
35178SOL     OW15463   9.736  10.784   7.137  0.5672  0.6851 -0.3123
35178SOL    HW115464   9.649  10.744   7.145 -1.2238  3.9954 -1.1249
35178SOL    HW215465   9.770  10.784   7.226  0.3243 -1.7130 -0.1518
35179SOL     OW15466   4.812   4.342   1.425  0.2415 -0.0619 -0.1057
35179SOL    HW115467   4.718   4.356   1.425  0.2174 -0.0645 -1.5001
35179SOL    HW215468   4.850   4.429   1.413  0.3889 -0.1474 -0.2721
35180SOL     OW15469  11.032   5.514   9.268 -0.5100 -0.2330 -0.2460
35180SOL    HW115470  10.992   5.487   9.351  0.0696 -1.8037 -0.4460
35180SOL    HW215471  11.069   5.434   9.232  0.0337  0.5948 -1.6054
35181SOL     OW15472  10.095  11.710   2.303  0.3539  0.4186 -0.4119
35181SOL    HW115473  10.074  11.780   2.241  1.1605 -0.2294 -1.4701
35181SOL    HW215474  10.111  11.633   2.247 -0.1401 -0.5229  0.6897
35182SOL     OW15475   1.690   5.231   7.555  0.5157 -0.6418 -0.3833
35182SOL    HW115476   1.644   5.174   7.493 -3.5145  1.7823  0.0131
35182SOL    HW215477   1.723   5.303   7.501  0.8347 -0.6741 -0.2316
35183SOL     OW15478   8.847  12.777   9.820  0.3536 -0.1320 -0.0435
35183SOL    HW115479   8.760  12.795   9.857  0.6237 -0.0608  0.5811
35183SOL    HW215480   8.842  12.806   9.729 -0.2873 -0.1636 -0.0210
35184SOL     OW15481  12.018   8.716   4.978  0.0596 -0.5214  0.2011
35184SOL    HW115482  11.997   8.797   4.932 -0.7761 -2.2365 -2.7199
35184SOL    HW215483  12.103   8.733   5.019 -0.5922  2.1360  0.6406
35185SOL     OW15484   1.329  10.216   0.489  0.1080  0.0318  0.2091
35185SOL    HW115485   1.359  10.289   0.435 -0.2414 -1.3900 -2.1015
35185SOL    HW215486   1.277  10.256   0.558  1.6301  2.0638  0.2581
35186SOL     OW15487   7.572   7.778   1.571  0.6812  0.4099 -0.8151
35186SOL    HW115488   7.525   7.707   1.527  0.1058 -0.5081  1.1615
35186SOL    HW215489   7.598   7.837   1.500 -1.3826 -0.2634 -2.2359
35187SOL     OW15490   9.989   9.524   1.875  0.0482 -0.3981  0.8313
35187SOL    HW115491   9.941   9.478   1.807 -0.2015 -0.8894  1.3390
35187SOL    HW215492   9.964   9.481   1.956  0.7423 -0.1532  1.1836
35188SOL     OW15493   4.033  11.423   1.767 -0.0692 -0.1380  0.2009
35188SOL    HW115494   3.941  11.450   1.768 -0.0467  0.0058 -0.5977
35188SOL    HW215495   4.034  11.340   1.815 -0.3848  0.5260  1.4018
35189SOL     OW15496   7.094  10.488  11.778 -0.3403  0.5597  0.2893
35189SOL    HW115497   7.024  10.457  11.836  0.1204  1.6055  1.4599
35189SOL    HW215498   7.106  10.417  11.715 -0.6429 -0.7779  1.6631
35190SOL     OW15499   2.536   6.681   0.457  0.1641  0.4716 -0.4479
35190SOL    HW115500   2.550   6.762   0.507  0.8593  0.3829 -0.4893
35190SOL    HW215501   2.608   6.623   0.484 -1.2198 -0.7486  0.7958
35191SOL     OW15502   3.148   9.182   1.236 -0.1028 -0.2345  0.2704
35191SOL    HW115503   3.198   9.101   1.233 -0.1435 -0.3149  1.2686
35191SOL    HW215504   3.208   9.248   1.201 -0.6105 -0.9122 -2.0439
35192SOL     OW15505   9.923   8.504   6.219  0.3138 -0.4466 -0.2458
35192SOL    HW115506   9.967   8.589   6.215  0.1058 -0.3739 -1.3899
35192SOL    HW215507   9.946   8.461   6.137 -0.5886 -0.9825 -0.2392
35193SOL     OW15508   0.884   5.747   6.443  0.5351 -0.4047  0.1454
35193SOL    HW115509   0.795   5.727   6.412  0.2502 -1.1888  1.4122
35193SOL    HW215510   0.941   5.696   6.386  0.1085 -0.7338  0.0112
35194SOL     OW15511   9.900   1.296   3.910  0.0568  0.3625  0.4578
35194SOL    HW115512   9.911   1.224   3.971  2.1447 -0.1468 -0.4137
35194SOL    HW215513   9.937   1.264   3.827  0.1185  2.0551 -0.2263
35195SOL     OW15514  13.034   9.156   0.903 -0.8935  0.2258  0.3813
35195SOL    HW115515  13.006   9.141   0.993 -0.2921 -2.0529  0.2643
35195SOL    HW215516  13.100   9.088   0.887 -0.6129  0.8992 -1.6179
35196SOL     OW15517   0.880   9.605   3.148 -0.4980 -0.0560 -0.2848
35196SOL    HW115518   0.966   9.572   3.174 -0.6400  0.1876  0.5244
35196SOL    HW215519   0.874   9.586   3.054 -0.6577 -2.4989  0.1726
35197SOL     OW15520   6.447   0.623   6.803  0.3562 -0.0931  0.8072
35197SOL    HW115521   6.496   0.590   6.878 -0.2624 -0.3839  1.0944
35197SOL    HW215522   6.364   0.654   6.840  0.6093  1.0659  0.4304
35198SOL     OW15523   6.063   5.282   9.650  0.6228 -0.1624  0.1129
35198SOL    HW115524   6.102   5.194   9.644  0.0436 -0.3799 -0.7755
35198SOL    HW215525   6.109   5.333   9.584 -1.2484 -0.7166 -1.7485
35199SOL     OW15526  10.577   4.470   6.017  0.0265  0.7870 -0.6829
35199SOL    HW115527  10.533   4.433   6.094  2.0977 -0.0181  0.1880
35199SOL    HW215528  10.595   4.561   6.043 -0.6426  0.9804 -0.8596
35200SOL     OW15529   3.673   6.535   6.847  0.3780  0.2877 -0.8410
35200SOL    HW115530   3.715   6.604   6.795  0.8380  0.6913  0.0509
35200SOL    HW215531   3.597   6.579   6.886  0.2029  0.0639 -0.9296
35201SOL     OW15532   4.113  11.640   9.130 -0.3690  0.2355  0.3169
35201SOL    HW115533   4.168  11.618   9.205  0.2015 -0.6274 -0.3460
35201SOL    HW215534   4.047  11.701   9.166  0.8714  1.1279  1.1664
35202SOL     OW15535   3.714   3.818   4.229  0.1129  0.1509 -0.0060
35202SOL    HW115536   3.650   3.755   4.196  0.2276 -0.1002  0.2386
35202SOL    HW215537   3.789   3.764   4.254  0.3109  0.4147 -0.0358
35203SOL     OW15538   1.345   9.682   5.760 -0.3487  0.3664 -0.0983
35203SOL    HW115539   1.256   9.653   5.740 -0.6261  0.2896  1.1738
35203SOL    HW215540   1.359   9.757   5.703 -0.1685 -1.2853 -2.3745
35204SOL     OW15541   4.093   8.597  12.307  0.4691 -0.1845  0.4856
35204SOL    HW115542   4.182   8.562  12.307  1.0800  1.2766 -0.6654
35204SOL    HW215543   4.101   8.683  12.350  0.3843  1.6061 -2.7923
35205SOL     OW15544  10.710  10.465   0.998 -0.3580  0.6239 -0.5636
35205SOL    HW115545  10.718  10.511   0.914 -0.0523 -0.9038 -1.4045
35205SOL    HW215546  10.761  10.517   1.059  1.4244  0.4974 -1.8799
35206SOL     OW15547  11.440   6.162   6.486  0.5725  0.0572  0.2290
35206SOL    HW115548  11.444   6.183   6.393  0.1302 -0.3610  0.1113
35206SOL    HW215549  11.499   6.224   6.527  0.2922  0.6579 -0.2583
35207SOL     OW15550   4.663  12.874   1.766 -0.2938 -0.0876 -0.7130
35207SOL    HW115551   4.569  12.892   1.762 -0.0357  1.3896 -0.8336
35207SOL    HW215552   4.669  12.786   1.802 -1.6961  0.8116  2.0160
35208SOL     OW15553   6.180   4.087   4.780 -0.0988  0.2793 -0.1482
35208SOL    HW115554   6.199   4.130   4.863 -0.7175  0.7557 -0.2393
35208SOL    HW215555   6.262   4.092   4.731 -0.0225  0.9388  0.0303
35209SOL     OW15556   2.711   9.023   1.799  0.0287  0.4667  0.0299
35209SOL    HW115557   2.763   9.070   1.864  0.1702  0.4374 -0.0597
35209SOL    HW215558   2.621   9.049   1.816 -0.1209 -0.7730  1.2625
35210SOL     OW15559  11.981   0.820   7.201  0.6618 -0.1297 -0.1578
35210SOL    HW115560  11.895   0.807   7.240  1.1082 -1.3708  0.4588
35210SOL    HW215561  12.022   0.734   7.205  1.6789  0.2893 -1.0788
35211SOL     OW15562  12.374  12.526   7.575  0.0745  1.2419 -0.1504
35211SOL    HW115563  12.381  12.484   7.489 -1.1983  0.6276  0.0145
35211SOL    HW215564  12.435  12.600   7.571  3.9789 -1.6462  0.2213
35212SOL     OW15565   6.721   1.605   9.594  0.7115  0.4234 -0.1411
35212SOL    HW115566   6.695   1.685   9.641 -1.1845 -1.3066  1.9853
35212SOL    HW215567   6.650   1.591   9.531  1.1674  0.5254 -0.6841
35213SOL     OW15568   0.429   1.373   3.075  0.0901  0.2601 -0.0466
35213SOL    HW115569   0.374   1.392   2.999 -0.5510 -0.0568  0.3332
35213SOL    HW215570   0.422   1.451   3.130 -0.0475  0.1828  0.0446
35214SOL     OW15571   6.954  11.116   6.270 -0.2205 -0.0675 -0.3049
35214SOL    HW115572   6.899  11.097   6.193 -1.1332  1.0479  0.0529
35214SOL    HW215573   6.995  11.200   6.251  1.2102 -0.7666 -0.4541
35215SOL     OW15574   3.738   6.766   9.435  0.0410 -0.1365  0.3171
35215SOL    HW115575   3.707   6.676   9.443 -0.6289  0.2279  2.4630
35215SOL    HW215576   3.829   6.758   9.408  0.2590 -1.5085  1.3526
35216SOL     OW15577   9.482  11.066   3.112  0.3476  0.0398  0.0360
35216SOL    HW115578   9.406  11.116   3.144  0.6109  0.2875  0.2821
35216SOL    HW215579   9.552  11.086   3.175  0.3134 -1.0566  0.4411
35217SOL     OW15580   1.686   2.253   9.991  1.0211  0.4880 -0.6577
35217SOL    HW115581   1.596   2.225  10.010  1.7751 -1.6007  0.1516
35217SOL    HW215582   1.699   2.329  10.048  0.4945 -0.6209  1.0289
35218SOL     OW15583   2.009   0.137   3.047  0.3255 -0.1410 -0.1988
35218SOL    HW115584   2.056   0.055   3.057 -1.6149 -1.4234 -0.9295
35218SOL    HW215585   2.005   0.174   3.136  0.5947 -1.2185  0.2704
35219SOL     OW15586  13.161   5.081   6.209  0.5614 -0.5736 -0.3187
35219SOL    HW115587  13.155   5.156   6.149  0.6735  0.9648  1.4958
35219SOL    HW215588  13.092   5.022   6.180  0.3324  0.3085 -1.6887
35220SOL     OW15589   5.038   5.261   7.001  1.0227  0.2338 -0.1897
35220SOL    HW115590   5.000   5.250   7.088  0.9573 -1.5651 -0.4039
35220SOL    HW215591   5.117   5.206   7.002  1.7567  1.2304 -0.8611
35221SOL     OW15592   0.611   2.340   1.513  0.2928  0.1872  0.4882
35221SOL    HW115593   0.552   2.375   1.446  0.2656  0.7666  0.8049
35221SOL    HW215594   0.632   2.252   1.483  0.5183  0.5392 -0.4304
35222SOL     OW15595   3.339   4.749   1.503  0.2587 -0.0418 -0.2666
35222SOL    HW115596   3.408   4.794   1.454  0.2231  0.3268  0.0183
35222SOL    HW215597   3.262   4.754   1.446  0.4539 -0.4086 -0.5615
35223SOL     OW15598  11.639   6.186  10.308  0.5996 -0.3326 -0.1528
35223SOL    HW115599  11.723   6.192  10.262 -0.5726 -1.0312 -2.5612
35223SOL    HW215600  11.599   6.272  10.297  1.1712  0.1772  1.4679
35224SOL     OW15601  11.316   1.959   1.788 -0.1078 -0.2753  0.0486
35224SOL    HW115602  11.275   2.043   1.767 -0.6096 -0.4875  0.1589
35224SOL    HW215603  11.263   1.924   1.859  0.6980 -0.2338  0.6754
35225SOL     OW15604  10.678   7.477   1.898 -0.5076  0.0446  0.4918
35225SOL    HW115605  10.743   7.520   1.954 -1.8075  0.3607  1.8281
35225SOL    HW215606  10.715   7.482   1.810  0.5206  1.7088  0.9707
35226SOL     OW15607  12.997   0.716   9.289 -0.6641 -0.3211  0.2318
35226SOL    HW115608  12.983   0.810   9.306 -0.8296  0.0235 -1.6335
35226SOL    HW215609  12.939   0.672   9.351 -2.2970  0.8755 -0.3806
35227SOL     OW15610   1.241   2.300   3.789 -0.9610 -0.0088 -0.4975
35227SOL    HW115611   1.299   2.361   3.835 -0.0579  0.5568 -2.2593
35227SOL    HW215612   1.300   2.239   3.745 -1.7655 -0.4916 -0.9339
35228SOL     OW15613  10.405   4.557   1.526  0.0657  0.2003  0.2696
35228SOL    HW115614  10.390   4.464   1.542  1.1714 -0.2300 -1.0018
35228SOL    HW215615  10.318   4.592   1.506 -0.4298 -0.4431  1.2119
35229SOL     OW15616   5.656   2.020   3.231  0.3924  0.5393  0.1816
35229SOL    HW115617   5.574   2.052   3.195  0.7269  0.0630 -1.0591
35229SOL    HW215618   5.677   2.081   3.302 -0.3123  1.4942 -0.4137
35230SOL     OW15619   2.391  12.155   3.523 -0.3749  0.3299  0.3157
35230SOL    HW115620   2.318  12.140   3.463  0.0640 -0.2552 -0.0920
35230SOL    HW215621   2.351  12.196   3.599 -1.3096 -0.9120  0.5399
35231SOL     OW15622  11.084  10.849  13.198  0.0129 -0.0520  0.5036
35231SOL    HW115623  11.024  10.921  13.221 -0.2887 -0.0025 -0.3879
35231SOL    HW215624  11.130  10.829  13.279 -1.6821 -0.5357  1.3843
35232SOL     OW15625   1.497  12.646   3.526 -0.4345  0.2872  0.3284
35232SOL    HW115626   1.529  12.717   3.470  1.2270  0.4130  1.4003
35232SOL    HW215627   1.404  12.667   3.539  0.0083  2.2970  0.6330
35233SOL     OW15628  12.762  10.115  12.024  0.5043  0.2794 -0.0622
35233SOL    HW115629  12.697  10.046  12.008 -0.3761  0.7498  1.2648
35233SOL    HW215630  12.845  10.069  12.033  0.0190 -0.5550  0.2718
35234SOL     OW15631   1.915   8.413   9.772 -0.2574 -0.5683  0.1693
35234SOL    HW115632   1.919   8.444   9.863 -0.1075 -2.1253  0.7289
35234SOL    HW215633   1.830   8.371   9.765 -0.6499  0.3346 -0.7088
35235SOL     OW15634   7.197  11.537   1.158 -0.0769 -0.0523 -0.2795
35235SOL    HW115635   7.179  11.464   1.218  0.0921  0.6459  0.6309
35235SOL    HW215636   7.214  11.494   1.074  0.7538 -1.1279  0.4036
35236SOL     OW15637   7.963   4.986   3.955  0.6687  0.4389  0.4199
35236SOL    HW115638   7.935   5.068   3.996 -0.3900  0.0048  0.6010
35236SOL    HW215639   7.888   4.958   3.902  0.5889 -0.9672  1.2237
35237SOL     OW15640  12.289   2.003   5.092  0.1884  0.0847  0.6289
35237SOL    HW115641  12.259   2.094   5.087 -1.6860 -0.5327 -0.4900
35237SOL    HW215642  12.248   1.961   5.016  2.0617 -1.4239  0.3880
35238SOL     OW15643   4.712  12.615   1.841 -0.0802  0.9812  0.1251
35238SOL    HW115644   4.771  12.630   1.915  2.2517 -1.3131 -1.0974
35238SOL    HW215645   4.644  12.557   1.876  1.6018 -0.9788  0.3083
35239SOL     OW15646   6.539  12.840   5.124 -0.3619  0.0552  0.6981
35239SOL    HW115647   6.490  12.775   5.175  0.6137 -0.9685  0.3858
35239SOL    HW215648   6.630  12.830   5.155 -0.0965  0.8406  0.1943
35240SOL     OW15649   6.406   0.726  11.083 -0.1516  0.1154  0.3262
35240SOL    HW115650   6.335   0.662  11.078  0.4370 -0.5729  0.6026
35240SOL    HW215651   6.480   0.684  11.040  0.8827 -0.2873  2.3893
35241SOL     OW15652   4.028   9.005   4.761  0.3304  0.1344  0.5776
35241SOL    HW115653   4.059   9.073   4.701 -0.6394  0.4959  0.4698
35241SOL    HW215654   3.933   9.002   4.748  0.3478 -1.2140  0.6245
35242SOL     OW15655  12.297   9.611  10.227 -0.7610  0.0887  0.2674
35242SOL    HW115656  12.257   9.661  10.156  0.4724 -0.7073 -1.0368
35242SOL    HW215657  12.275   9.660  10.306 -4.0770 -0.1584 -0.3433
35243SOL     OW15658   9.469  11.075  12.920  0.3087  0.0734  0.3890
35243SOL    HW115659   9.485  11.142  12.854  0.8253 -0.1878  0.2451
35243SOL    HW215660   9.386  11.101  12.961  1.2452  1.6423  1.3928
35244SOL     OW15661  13.194   9.551  10.086  0.6587 -0.0778 -0.1088
35244SOL    HW115662  13.279   9.510  10.099 -0.1571 -1.5514  0.8162
35244SOL    HW215663  13.131   9.480  10.094 -0.8773  1.4043  2.1796
35245SOL     OW15664   3.962   7.639   4.606  0.0383  0.5544  0.1647
35245SOL    HW115665   3.885   7.694   4.617 -0.4892  0.3949 -2.3129
35245SOL    HW215666   3.928   7.549   4.604  0.5343  0.3317  0.8814
35246SOL     OW15667   2.489   6.412   8.928 -0.1970  0.4190  0.4990
35246SOL    HW115668   2.557   6.357   8.889  0.8954  0.5009  2.1797
35246SOL    HW215669   2.433   6.437   8.855  1.3031 -0.0668 -0.8667
35247SOL     OW15670  10.804   1.668  11.436  0.5069  0.0276 -0.4823
35247SOL    HW115671  10.733   1.610  11.409  0.2364  0.3632 -0.4996
35247SOL    HW215672  10.809   1.735  11.367  0.0755  0.6633  0.0863
35248SOL     OW15673   1.158   5.042   4.080  0.1072  0.7367 -0.0564
35248SOL    HW115674   1.139   5.013   3.991  1.3642 -1.3099  0.2835
35248SOL    HW215675   1.073   5.039   4.125 -0.5109  1.6697 -1.1326
35249SOL     OW15676   7.404  11.584  12.827 -0.2500  0.4578 -0.0609
35249SOL    HW115677   7.434  11.509  12.776  0.1957 -0.2686  1.2344
35249SOL    HW215678   7.398  11.552  12.916 -0.1760  1.9328  0.5035
35250SOL     OW15679   1.254   0.991   0.639  0.3681 -0.1400  0.0072
35250SOL    HW115680   1.219   1.075   0.668  0.3896 -0.3680  0.7083
35250SOL    HW215681   1.348   0.996   0.659  0.8397  0.5849 -2.1235
35251SOL     OW15682   7.097   6.927   9.722  0.1221 -0.0356 -0.5580
35251SOL    HW115683   7.136   6.918   9.809 -0.6780 -1.1844 -0.2978
35251SOL    HW215684   7.171   6.923   9.662  0.9062  2.5033  0.0933
35252SOL     OW15685   3.607   6.245  10.210  0.6770  0.0741 -0.5380
35252SOL    HW115686   3.672   6.192  10.164 -0.1050 -1.0647 -0.3581
35252SOL    HW215687   3.545   6.272  10.143  0.2494 -0.5097 -0.3873
35253SOL     OW15688   7.991  11.256  11.863  0.4783 -0.2280 -0.0604
35253SOL    HW115689   7.937  11.211  11.798  1.4274 -0.3389 -0.8001
35253SOL    HW215690   7.973  11.211  11.946 -1.9060  0.8727  0.1090
35254SOL     OW15691   4.949   9.484  11.526  0.1901 -0.0958 -0.2705
35254SOL    HW115692   4.949   9.460  11.433  0.5806  1.0518 -0.5803
35254SOL    HW215693   4.883   9.553  11.532  1.0355  0.6892  0.0754
35255SOL     OW15694   9.549  12.519   2.599  0.5318  0.7879 -0.0945
35255SOL    HW115695   9.464  12.502   2.558  0.5756 -0.9455  0.4243
35255SOL    HW215696   9.539  12.603   2.642 -1.5968 -0.2029  1.5432
35256SOL     OW15697   3.945   0.373   8.968 -0.1242 -0.5921  0.6269
35256SOL    HW115698   3.872   0.320   9.001 -0.9961  0.1600 -0.0372
35256SOL    HW215699   4.014   0.310   8.949 -1.4104 -1.6132 -0.9046
35257SOL     OW15700   8.679   5.025   8.157 -0.2101 -0.0262 -0.1624
35257SOL    HW115701   8.597   5.056   8.193 -0.4698 -1.8264  0.9068
35257SOL    HW215702   8.656   4.945   8.109  0.8995 -0.5840  0.1943
35258SOL     OW15703  12.898   0.104   4.354  0.3811  1.0843  0.1517
35258SOL    HW115704  12.936   0.078   4.438 -1.9707 -0.8737  0.7374
35258SOL    HW215705  12.960   0.072   4.289 -0.1186 -2.0476  1.0597
35259SOL     OW15706  12.448   7.296  13.269 -0.3761 -0.2094  0.7688
35259SOL    HW115707  12.499   7.320  13.347 -1.6639 -1.4969  2.0563
35259SOL    HW215708  12.513   7.257  13.210  0.5346  0.2894  1.4082
35260SOL     OW15709   4.548  10.220   2.786  0.3055 -0.4773  0.6409
35260SOL    HW115710   4.628  10.229   2.733 -0.1503 -2.4953 -0.5131
35260SOL    HW215711   4.477  10.222   2.722 -0.4034 -0.8961  1.4081
35261SOL     OW15712  10.583   1.848   6.581  0.4638  0.2446 -0.5577
35261SOL    HW115713  10.629   1.789   6.642  1.1507  1.1922 -0.1198
35261SOL    HW215714  10.519   1.793   6.537 -0.8580 -0.2894  1.8329
35262SOL     OW15715  10.676   1.058   5.238  0.2836 -0.2002 -0.2731
35262SOL    HW115716  10.749   1.077   5.296 -0.5933 -2.4994  1.7890
35262SOL    HW215717  10.604   1.111   5.272 -0.0023 -0.9020  0.2528
35263SOL     OW15718   2.041   4.651   3.732  0.1002  0.1628  0.4334
35263SOL    HW115719   2.035   4.683   3.822 -1.0061 -0.1919  0.4985
35263SOL    HW215720   2.124   4.688   3.699 -0.0063  1.1825  1.2439
35264SOL     OW15721  11.226  10.963   5.005 -0.2076 -0.7068 -0.0106
35264SOL    HW115722  11.213  10.969   5.100  3.1018 -1.2821  0.6185
35264SOL    HW215723  11.198  11.049   4.972  0.2401  0.1905  1.7724
35265SOL     OW15724  10.211  11.021  12.799 -0.5567 -0.1211 -0.1965
35265SOL    HW115725  10.141  10.972  12.842 -1.2991 -0.1687 -1.3944
35265SOL    HW215726  10.179  11.033  12.709  1.0243 -0.2156 -0.7965
35266SOL     OW15727   2.857   9.901  12.907 -1.0552 -0.5822 -0.2284
35266SOL    HW115728   2.825   9.991  12.911  0.1606 -0.1843  1.6812
35266SOL    HW215729   2.805   9.860  12.837 -1.9359  1.4541 -0.8355
35267SOL     OW15730   0.203   8.554   2.889  0.2251  0.3710  0.3519
35267SOL    HW115731   0.186   8.549   2.983  5.5057 -0.6332  1.5589
35267SOL    HW215732   0.221   8.463   2.863 -0.2574  0.7510 -1.4927
35268SOL     OW15733   4.062   3.546   0.405 -0.1353  0.1006 -0.0416
35268SOL    HW115734   4.081   3.537   0.498 -0.6175 -0.9839 -0.0304
35268SOL    HW215735   4.007   3.470   0.384  1.0156 -0.3846 -1.4838
35269SOL     OW15736  11.538   4.154   1.721  0.0738 -0.0903  0.4738
35269SOL    HW115737  11.447   4.146   1.748  0.3958 -0.9394  1.3828
35269SOL    HW215738  11.549   4.247   1.700 -0.8719  0.1040  0.7956
35270SOL     OW15739   5.575  12.427   5.392  0.5845 -0.5900 -0.3149
35270SOL    HW115740   5.649  12.481   5.419  0.0216 -0.1778  0.4551
35270SOL    HW215741   5.545  12.465   5.310  0.6250 -0.1465 -0.1285
35271SOL     OW15742  10.871   4.910   1.155  0.2093 -0.2285  0.8339
35271SOL    HW115743  10.783   4.897   1.189 -0.3729  1.0457 -0.1048
35271SOL    HW215744  10.925   4.920   1.233 -0.5961 -0.3321  1.4152
35272SOL     OW15745   1.051   3.854  13.235 -0.2432  0.4677  0.1206
35272SOL    HW115746   1.117   3.905  13.188  0.2586  1.1577  1.5279
35272SOL    HW215747   0.984   3.919  13.259 -1.3942 -0.1907 -1.1372
35273SOL     OW15748   4.400   1.276   9.561 -0.1262  0.3204  0.6881
35273SOL    HW115749   4.442   1.217   9.498 -1.2766 -2.4586  2.3228
35273SOL    HW215750   4.466   1.343   9.579  2.2107 -1.7528  0.4255
35274SOL     OW15751  10.723  12.961   7.958 -0.7755 -0.2262  0.3076
35274SOL    HW115752  10.679  12.897   7.902 -1.4908 -0.4688  1.1190
35274SOL    HW215753  10.806  12.979   7.914 -1.3041 -0.4316 -0.7987
35275SOL     OW15754   8.457   7.189  10.172 -0.3696  0.3438  0.5926
35275SOL    HW115755   8.458   7.236  10.256  1.2153 -2.1108  2.0810
35275SOL    HW215756   8.508   7.110  10.188 -0.8365 -0.7232 -2.4608
35276SOL     OW15757   5.966  10.123   3.766 -0.0138 -0.4773  0.5354
35276SOL    HW115758   5.924  10.038   3.749  2.3658 -1.9305  1.3542
35276SOL    HW215759   5.894  10.186   3.763 -1.6356 -2.2392 -1.9126
35277SOL     OW15760  12.315   5.560   3.180  0.2623 -0.6414  0.0225
35277SOL    HW115761  12.258   5.624   3.137  0.3689  0.1036  0.9746
35277SOL    HW215762  12.254   5.499   3.222  0.1602 -0.4944  0.0904
35278SOL     OW15763   7.289   7.230   6.602  0.5611 -0.1328  0.2862
35278SOL    HW115764   7.369   7.177   6.599  0.9754  0.4938 -1.7045
35278SOL    HW215765   7.267   7.244   6.510  0.1030  2.5471  0.7196
35279SOL     OW15766   3.392   6.798  12.877  0.3215 -0.6696  0.8185
35279SOL    HW115767   3.445   6.839  12.809 -0.6336 -0.6102  0.0937
35279SOL    HW215768   3.393   6.862  12.949 -0.2098  0.1442  0.1347
35280SOL     OW15769   3.554  11.113  10.814  0.1251  0.5660 -0.1631
35280SOL    HW115770   3.460  11.097  10.825  0.2679 -0.1371  0.0633
35280SOL    HW215771   3.567  11.203  10.844 -0.8355  1.4670 -2.2212
35281SOL     OW15772  11.577  11.394   5.796 -0.0574 -0.1357  0.2024
35281SOL    HW115773  11.645  11.327   5.785 -0.9155 -0.8385 -1.1514
35281SOL    HW215774  11.511  11.351   5.850 -0.1513 -0.0181  0.1800
35282SOL     OW15775   9.914   9.224   4.406 -0.7474 -0.2345  0.0876
35282SOL    HW115776   9.949   9.301   4.451 -1.5543 -0.0585  0.4340
35282SOL    HW215777   9.819   9.236   4.409 -0.8762  0.8939 -3.5304
35283SOL     OW15778  11.164  12.981   6.675  0.5215  0.0418 -0.3548
35283SOL    HW115779  11.233  12.921   6.648  1.1050  0.8975 -0.8464
35283SOL    HW215780  11.162  13.047   6.606  0.4064  0.9861  0.5195
35284SOL     OW15781   3.586  10.170   2.562 -0.1160  0.0536  0.2921
35284SOL    HW115782   3.532  10.156   2.640 -1.0026 -0.4008 -0.3772
35284SOL    HW215783   3.548  10.111   2.497  0.7312  0.2904 -0.4252
35285SOL     OW15784   4.476   5.634  12.944 -0.8216  0.5696 -0.2416
35285SOL    HW115785   4.460   5.682  13.026 -0.2953  0.5936 -0.1476
35285SOL    HW215786   4.548   5.681  12.903 -1.0770  0.5482 -0.7178
35286SOL     OW15787   2.040   5.327  13.151  0.0136 -0.4522 -0.3164
35286SOL    HW115788   1.979   5.371  13.211 -0.0316  1.0987 -1.4561
35286SOL    HW215789   1.984   5.269  13.099 -0.3835  0.2963 -0.7477
35287SOL     OW15790   8.517   8.710   3.768  0.3157 -0.1928  0.3046
35287SOL    HW115791   8.593   8.732   3.821  1.8052 -0.8363 -1.4563
35287SOL    HW215792   8.480   8.794   3.742  1.6623  0.1980 -0.4647
35288SOL     OW15793  12.043  11.464  10.120  0.3620  0.0791 -0.2722
35288SOL    HW115794  11.995  11.529  10.067 -1.1050 -0.7643 -0.0435
35288SOL    HW215795  11.993  11.383  10.108  1.2473 -0.6309  0.7148
35289SOL     OW15796   4.429   8.553   2.000  0.5510 -0.1253  0.0705
35289SOL    HW115797   4.506   8.515   1.958  1.5045  3.2784 -1.5898
35289SOL    HW215798   4.363   8.558   1.931 -0.1614 -0.2697  0.7157
35290SOL     OW15799   4.492   9.634   1.041  0.0526 -0.4163 -0.3846
35290SOL    HW115800   4.432   9.612   1.113  0.2007 -0.5983 -0.3144
35290SOL    HW215801   4.510   9.550   0.998  0.4326 -0.3991 -0.2652
35291SOL     OW15802  11.090   6.869   3.661 -0.5682  0.0434 -0.0794
35291SOL    HW115803  11.074   6.889   3.569 -0.4913  0.5542  0.0139
35291SOL    HW215804  11.185   6.876   3.670 -0.4767 -0.9396 -0.1689
35292SOL     OW15805  12.300   3.828  11.182 -0.0340 -0.1305 -0.2170
35292SOL    HW115806  12.218   3.874  11.202  0.7750  1.2129  0.1509
35292SOL    HW215807  12.310   3.838  11.088 -0.8201 -1.2326 -0.4322
35293SOL     OW15808  10.614   7.780  11.045  0.2097 -0.1636  0.2856
35293SOL    HW115809  10.691   7.727  11.024 -0.7064 -1.7782  0.8555
35293SOL    HW215810  10.552   7.762  10.974  0.6835  1.9126 -0.7172
35294SOL     OW15811   7.250   3.531  10.842 -0.1468  0.3320  0.1482
35294SOL    HW115812   7.163   3.564  10.866 -0.6921 -0.3654 -0.7836
35294SOL    HW215813   7.261   3.558  10.751  0.4423  0.0504  0.1349
35295SOL     OW15814   8.628  12.096   0.820 -0.5264  0.1647  0.1973
35295SOL    HW115815   8.627  12.027   0.754  0.2675 -0.2707  0.6360
35295SOL    HW215816   8.720  12.118   0.832 -0.7039  0.6539  0.7392
35296SOL     OW15817   3.460  12.714   3.804  0.0352  0.5144 -0.3962
35296SOL    HW115818   3.473  12.788   3.863  1.0315  0.1260 -0.1072
35296SOL    HW215819   3.538  12.713   3.749 -1.0517  1.1136 -2.0368
35297SOL     OW15820   8.017   4.514  10.848  0.1109  0.1592 -0.0725
35297SOL    HW115821   8.075   4.502  10.773 -0.8168  1.9493 -1.1694
35297SOL    HW215822   8.036   4.441  10.906  0.9452 -1.2322 -2.0038
35298SOL     OW15823   0.160   8.687   4.199 -0.0354 -0.0016 -0.3371
35298SOL    HW115824   0.160   8.728   4.112 -0.3414  0.8386  0.0546
35298SOL    HW215825   0.253   8.675   4.219  0.1181  1.5228  0.0045
35299SOL     OW15826   1.493  11.636  13.000 -0.2683  0.2202  0.0072
35299SOL    HW115827   1.461  11.547  12.985  3.4214 -1.2506  0.0258
35299SOL    HW215828   1.465  11.684  12.922 -2.6852 -0.7365  0.1678
35300SOL     OW15829   7.453   3.719   8.105  0.4647 -0.3912 -0.6734
35300SOL    HW115830   7.399   3.768   8.167  0.1981 -0.9382 -0.4672
35300SOL    HW215831   7.508   3.664   8.160  3.0619  1.9407 -0.7453
35301SOL     OW15832   6.809   6.523  12.015 -0.2329  0.1232  0.3003
35301SOL    HW115833   6.813   6.586  12.087 -2.9041 -1.3037  1.8584
35301SOL    HW215834   6.745   6.560  11.954  1.4564  0.9534 -1.0699
35302SOL     OW15835   4.896   2.956   6.693  0.5531  0.0347 -0.0422
35302SOL    HW115836   4.845   3.030   6.662  2.1236  0.7498 -1.0709
35302SOL    HW215837   4.904   2.899   6.616 -1.3577 -1.6903  0.9514
35303SOL     OW15838   2.931   3.009  11.853  0.3174 -0.1980  0.5432
35303SOL    HW115839   2.868   2.998  11.924 -1.1220 -0.0686 -0.6844
35303SOL    HW215840   2.974   3.092  11.873  1.8901 -1.4265  2.6898
35304SOL     OW15841  10.103   0.496  12.726  0.1290  0.4133 -0.3464
35304SOL    HW115842  10.171   0.545  12.680 -1.3499  1.7244 -1.2464
35304SOL    HW215843  10.045   0.563  12.761 -0.6203 -0.6641  0.5281
35305SOL     OW15844  10.711   0.352   7.293  0.0700  0.0047  0.2821
35305SOL    HW115845  10.650   0.403   7.347  0.8076  1.0526  0.1576
35305SOL    HW215846  10.767   0.307   7.356 -0.3781 -0.3995  0.3941
35306SOL     OW15847   8.781   7.007   6.273 -0.3293 -0.3678  0.2056
35306SOL    HW115848   8.687   6.999   6.290 -0.2748 -2.7083 -0.3345
35306SOL    HW215849   8.794   7.100   6.251 -2.7745 -0.3222 -1.3158
35307SOL     OW15850   6.143   2.909   5.591  0.0688 -0.2537  0.1856
35307SOL    HW115851   6.215   2.852   5.567  0.3020 -0.1146  0.5410
35307SOL    HW215852   6.111   2.944   5.508  0.7031  0.0370  0.0601
35308SOL     OW15853   9.796   6.757   0.108 -0.9072  0.3644  0.7045
35308SOL    HW115854   9.771   6.668   0.086 -0.2529  0.7145 -1.8488
35308SOL    HW215855   9.716   6.808   0.100 -0.8346  0.3510 -0.1930
35309SOL     OW15856   3.797  10.330   2.461 -0.3488 -0.4386  0.0529
35309SOL    HW115857   3.836  10.357   2.544 -0.3036 -1.5009  0.3880
35309SOL    HW215858   3.747  10.252   2.482  0.1543 -1.0803 -1.0247
35310SOL     OW15859   5.853   6.712   1.573  0.0321 -0.1187  0.0165
35310SOL    HW115860   5.935   6.665   1.568 -1.4041 -2.8317  0.2596
35310SOL    HW215861   5.813   6.701   1.487 -0.1468  1.1085 -0.0845
35311SOL     OW15862  12.344   0.362   3.668  1.0392  0.2860  0.3834
35311SOL    HW115863  12.319   0.311   3.745  2.4020 -1.4378 -0.2531
35311SOL    HW215864  12.296   0.444   3.677  0.1619 -0.3888  2.3888
35312SOL     OW15865   8.298  12.824   6.536 -0.0418 -0.5012 -0.2035
35312SOL    HW115866   8.329  12.857   6.452 -0.4554 -1.8619 -0.9164
35312SOL    HW215867   8.272  12.902   6.585  1.3802  0.4081 -0.8388
35313SOL     OW15868   0.700  11.702   6.651  0.6345 -0.6905  0.3013
35313SOL    HW115869   0.732  11.792   6.657  0.2165 -0.2808 -2.3849
35313SOL    HW215870   0.778  11.649   6.634  0.4407  0.0071 -3.8579
35314SOL     OW15871  12.548  11.679   7.377  0.4798  0.2590 -0.0317
35314SOL    HW115872  12.534  11.584   7.385  1.8963 -0.0511 -0.8739
35314SOL    HW215873  12.461  11.714   7.358  0.2524 -1.1465 -1.9002
35315SOL     OW15874   7.112   7.089  11.630  0.1932  0.1652  0.2031
35315SOL    HW115875   7.140   7.176  11.660 -0.4700  0.2583  0.5884
35315SOL    HW215876   7.124   7.033  11.707  0.8553 -0.1468 -0.1186
35316SOL     OW15877   4.553  12.479   5.165  0.0791  0.0044  0.0953
35316SOL    HW115878   4.622  12.546   5.155 -0.2875  0.4893  0.7031
35316SOL    HW215879   4.599  12.396   5.152  0.7847  0.3213  0.4670
35317SOL     OW15880   6.951  11.184   1.829 -0.1421 -0.4774  0.3152
35317SOL    HW115881   7.036  11.227   1.835 -0.6898  0.5803  0.8922
35317SOL    HW215882   6.931  11.185   1.735  0.5907 -0.9727  0.1494
35318SOL     OW15883   2.666   1.729   9.411  0.7899 -0.1231  0.1451
35318SOL    HW115884   2.728   1.794   9.377  1.2693 -0.6164  0.0595
35318SOL    HW215885   2.591   1.781   9.441  1.5060  0.5490  0.8361
35319SOL     OW15886  12.909   4.654   2.936  0.0538  0.5317  0.1313
35319SOL    HW115887  12.995   4.626   2.904 -0.1664  0.1960 -0.1860
35319SOL    HW215888  12.926   4.696   3.020  0.4142 -0.5050  0.5897
35320SOL     OW15889  11.260   3.408   8.716 -0.0332 -0.5871  0.7130
35320SOL    HW115890  11.189   3.367   8.765  0.3898 -2.2351  0.0094
35320SOL    HW215891  11.340   3.370   8.754  0.3722 -0.4163  0.0412
35321SOL     OW15892   0.125  11.048   7.166  0.0231  0.1904  0.7365
35321SOL    HW115893   0.181  11.118   7.201  2.4299 -2.1907  1.9681
35321SOL    HW215894   0.162  11.029   7.079 -0.8145  0.6059  0.2784
35322SOL     OW15895  12.183   0.860   3.975 -1.6959  0.4444  0.4180
35322SOL    HW115896  12.233   0.844   4.055 -0.6292 -0.3651 -0.3936
35322SOL    HW215897  12.197   0.953   3.957 -0.4500  0.2297  0.1933
35323SOL     OW15898   4.915  11.260   1.687 -0.0024 -0.1896  0.0654
35323SOL    HW115899   4.895  11.351   1.663  0.0640  0.1010  1.0323
35323SOL    HW215900   4.942  11.266   1.779 -1.7061 -1.4170  0.6902
35324SOL     OW15901   9.357   3.087   0.163  0.0112 -0.3315 -0.0273
35324SOL    HW115902   9.389   2.998   0.177 -0.3152 -0.4665 -0.1238
35324SOL    HW215903   9.291   3.100   0.231  1.8490  0.7672  1.6423
35325SOL     OW15904   7.553  13.124   9.763  0.6387  0.0655 -0.4798
35325SOL    HW115905   7.624  13.170   9.719 -0.0387  0.3549 -1.2951
35325SOL    HW215906   7.496  13.093   9.692  0.0514 -0.3304  0.1447
35326SOL     OW15907  11.995   2.526   2.537 -0.2759  0.2346 -0.3183
35326SOL    HW115908  12.076   2.572   2.515 -0.4725  1.2498  0.9404
35326SOL    HW215909  12.015   2.434   2.523  0.8041  0.5429 -0.8994
35327SOL     OW15910   7.906   5.061   6.963  0.0409  0.5932 -0.4178
35327SOL    HW115911   7.846   5.002   7.009  1.4056  0.4485  1.2653
35327SOL    HW215912   7.893   5.040   6.870 -0.4742 -1.4299  0.0578
35328SOL     OW15913   2.117  11.688   3.113  0.3458 -0.5493  0.4187
35328SOL    HW115914   2.065  11.609   3.093 -1.3772  0.1333  1.9205
35328SOL    HW215915   2.159  11.710   3.030 -0.5826 -2.0152 -0.5000
35329SOL     OW15916   5.350   4.539   2.512  0.5119  0.3718 -0.2874
35329SOL    HW115917   5.328   4.530   2.420  0.4543  0.1671 -0.2549
35329SOL    HW215918   5.386   4.453   2.537 -0.8220 -0.0645  0.2462
35330SOL     OW15919  13.123   6.892   0.204 -0.0286  0.3960 -0.7957
35330SOL    HW115920  13.176   6.827   0.249 -0.5653 -0.3149 -1.1803
35330SOL    HW215921  13.038   6.851   0.193 -1.0130  1.9128  0.7409
35331SOL     OW15922   7.537  12.876   0.345 -0.7745  0.8707 -0.2730
35331SOL    HW115923   7.498  12.858   0.431 -1.2534  1.0998 -0.4413
35331SOL    HW215924   7.496  12.957   0.316  1.4700  2.4211  0.5540
35332SOL     OW15925   2.398   2.368  11.528  0.3086  0.4057  0.1954
35332SOL    HW115926   2.377   2.430  11.458  2.3051  0.2256 -0.6479
35332SOL    HW215927   2.490   2.347  11.513  0.0807 -1.6148  1.3775
35333SOL     OW15928   1.144   3.534   6.450 -0.6934  0.3839 -0.0518
35333SOL    HW115929   1.109   3.499   6.368 -0.1403  0.5466 -0.3589
35333SOL    HW215930   1.142   3.629   6.437 -1.9870  0.4854  0.6923
35334SOL     OW15931   0.990   4.022   7.602 -0.8709  0.2710 -0.4089
35334SOL    HW115932   1.045   4.039   7.526 -2.2597 -2.4192 -2.1896
35334SOL    HW215933   0.913   4.078   7.589 -0.1057  1.5152  0.2856
35335SOL     OW15934   4.503   4.041   5.133  0.4791  0.7846 -0.3727
35335SOL    HW115935   4.446   4.113   5.162 -0.1675  0.5379 -0.9932
35335SOL    HW215936   4.565   4.081   5.073 -0.7026  0.6321 -1.7467
35336SOL     OW15937   1.886  11.501   3.067 -0.1297 -0.1636  0.7111
35336SOL    HW115938   1.817  11.515   3.131 -2.8893  1.7483 -2.3517
35336SOL    HW215939   1.878  11.408   3.043 -0.2861 -0.4347  1.7787
35337SOL     OW15940   4.434   1.406   7.481 -0.0366  0.1307  0.4763
35337SOL    HW115941   4.355   1.454   7.504 -0.1088  0.1478  0.1918
35337SOL    HW215942   4.466   1.448   7.401  0.1377 -0.0162  0.4681
35338SOL     OW15943   6.154   2.568   3.516  0.1143  0.7288 -0.0703
35338SOL    HW115944   6.102   2.487   3.520 -0.2094  0.8030 -1.8829
35338SOL    HW215945   6.089   2.636   3.499  0.6209  1.0686 -0.6588
35339SOL     OW15946   4.223   1.619   0.116 -0.5730 -0.7987  0.1663
35339SOL    HW115947   4.211   1.651   0.027 -1.2035  0.5352  0.7102
35339SOL    HW215948   4.190   1.689   0.172 -0.0641 -1.5533  1.4633
35340SOL     OW15949   6.857   5.467   4.162 -0.4476 -0.4182  0.2483
35340SOL    HW115950   6.872   5.373   4.154 -0.5376 -0.2397 -2.9970
35340SOL    HW215951   6.896   5.505   4.084 -0.2532  2.3267  1.5525
35341SOL     OW15952   5.933   0.796  11.135 -0.1625  0.7211  0.3032
35341SOL    HW115953   6.006   0.737  11.119 -0.6169  0.3125 -0.2773
35341SOL    HW215954   5.858   0.753  11.096 -0.4495  1.8269 -0.3990
35342SOL     OW15955   0.754   8.485  12.998  0.1626  0.0623  0.2778
35342SOL    HW115956   0.832   8.454  13.045 -0.8172 -0.8940  1.3678
35342SOL    HW215957   0.729   8.411  12.943 -0.4916  0.0187  0.6301
35343SOL     OW15958   3.110  11.109   0.730  0.0498  0.0035 -0.0667
35343SOL    HW115959   3.016  11.126   0.742  0.0851  0.6115 -0.6370
35343SOL    HW215960   3.143  11.187   0.686  1.1721  0.5943  1.7150
35344SOL     OW15961   6.338   8.535   0.200 -0.2464 -0.1726 -0.5947
35344SOL    HW115962   6.271   8.515   0.136 -0.5365 -0.1992 -0.2835
35344SOL    HW215963   6.393   8.601   0.157 -2.2374  2.2038  0.2253
35345SOL     OW15964   0.376   2.036   9.987 -0.0014  0.2175  0.1067
35345SOL    HW115965   0.381   2.056  10.080  2.3406  0.1497  0.0464
35345SOL    HW215966   0.466   2.043   9.956 -0.2892 -2.4233 -1.5982
35346SOL     OW15967   8.733   6.302   3.396  0.4139 -0.1426  0.0249
35346SOL    HW115968   8.733   6.397   3.402  1.7420 -0.2306  3.2259
35346SOL    HW215969   8.825   6.277   3.399  0.2089 -1.5573 -2.4881
35347SOL     OW15970   2.019   3.152   6.474 -0.3239 -0.6177  0.4582
35347SOL    HW115971   1.945   3.185   6.525 -0.0337 -1.0882  1.2166
35347SOL    HW215972   2.041   3.223   6.414 -1.1054 -0.3016  0.5330
35348SOL     OW15973   0.719   3.411   7.730 -0.3387  0.2113 -0.8316
35348SOL    HW115974   0.650   3.344   7.724 -0.0490 -0.0637 -1.1033
35348SOL    HW215975   0.738   3.416   7.824 -1.3255  0.9012 -0.6593
35349SOL     OW15976  12.968  12.504   8.315  0.3778 -0.0971  0.6645
35349SOL    HW115977  12.996  12.426   8.268 -0.7426 -0.3474  0.3759
35349SOL    HW215978  12.987  12.484   8.407  2.4724  0.3542  0.3857
35350SOL     OW15979   9.259   0.880   1.594  0.3963  0.8691  0.4770
35350SOL    HW115980   9.325   0.868   1.526  1.1664  1.0340  1.1836
35350SOL    HW215981   9.302   0.931   1.662 -0.0437 -0.0850  1.5207
35351SOL     OW15982   3.316   8.219   7.463 -0.7323  0.3941 -0.1842
35351SOL    HW115983   3.289   8.129   7.478 -0.2077  0.3095  0.2681
35351SOL    HW215984   3.237   8.271   7.483 -1.2603 -0.0040 -1.1755
35352SOL     OW15985  12.612   0.258   3.167 -0.0523 -0.5099  0.0512
35352SOL    HW115986  12.587   0.343   3.130 -0.8995 -1.5404 -1.8504
35352SOL    HW215987  12.707   0.259   3.167 -0.0488  0.3797 -0.0768
35353SOL     OW15988   6.404  10.620   5.225 -0.4932 -0.5706 -0.2539
35353SOL    HW115989   6.390  10.648   5.316 -0.8126  0.7118 -0.6840
35353SOL    HW215990   6.484  10.566   5.229  0.9651  1.5280  0.4160
35354SOL     OW15991   0.913  12.689   2.759 -0.1908 -1.2593  0.3963
35354SOL    HW115992   0.848  12.750   2.723  0.0177 -0.9373  0.5654
35354SOL    HW215993   0.919  12.713   2.851  2.4969  0.8364 -0.2174
35355SOL     OW15994   9.256  12.077   2.999  0.0197  0.1825 -0.4145
35355SOL    HW115995   9.197  12.150   2.980 -0.3477  0.1854  0.6635
35355SOL    HW215996   9.258  12.072   3.095 -1.7301 -2.5784 -0.4035
35356SOL     OW15997   0.076  12.413   3.885  0.2795 -0.0756 -0.2189
35356SOL    HW115998   0.045  12.499   3.913  1.0387 -0.2038  1.0371
35356SOL    HW215999  -0.001  12.373   3.844 -0.6084  0.4898  0.8377
35357SOL     OW16000   5.613   1.557   1.445 -0.2521  0.1555  0.1499
35357SOL    HW116001   5.622   1.493   1.375  0.3916  1.9613 -1.5132
35357SOL    HW216002   5.575   1.508   1.518 -0.4106 -1.9251 -1.2515
35358SOL     OW16003   2.727  11.505  11.616  0.0357  0.0041  0.4464
35358SOL    HW116004   2.779  11.501  11.697  1.9051 -0.1545 -0.7175
35358SOL    HW216005   2.678  11.422  11.617  0.8184 -0.4762  0.9250
35359SOL     OW16006  10.282   8.373  10.626  0.2601 -0.0471  0.3149
35359SOL    HW116007  10.215   8.407  10.566  0.3170 -1.2232 -0.4504
35359SOL    HW216008  10.335   8.315  10.571  2.1299  1.1039  0.8230
35360SOL     OW16009   0.925   9.343   4.912 -0.1992  0.2255  0.1999
35360SOL    HW116010   0.991   9.379   4.971 -0.7507 -0.5037  1.2975
35360SOL    HW216011   0.957   9.365   4.824  1.3326  0.1651  0.7069
35361SOL     OW16012   7.372   9.932   5.408  0.0868  0.2126 -0.1109
35361SOL    HW116013   7.374   9.996   5.336  1.6313  1.2603  0.8014
35361SOL    HW216014   7.281   9.929   5.435 -0.4879 -0.0182 -1.9450
35362SOL     OW16015   4.099   2.637   8.991 -0.3646 -0.3643  0.5580
35362SOL    HW116016   4.028   2.697   8.968 -1.8708 -2.1198  0.4416
35362SOL    HW216017   4.178   2.680   8.958 -1.6662  0.4035 -1.7783
35363SOL     OW16018   7.769   0.229   1.383  0.1691  0.4520  0.0266
35363SOL    HW116019   7.862   0.209   1.387  0.4998  1.5445 -1.5450
35363SOL    HW216020   7.727   0.145   1.364  0.8502  0.0239  0.3788
35364SOL     OW16021   9.072  11.137  11.029 -0.1697  0.2482  0.1110
35364SOL    HW116022   9.139  11.195  11.066 -0.0715  0.0099  0.3088
35364SOL    HW216023   9.057  11.072  11.097  0.6385 -0.7126 -0.5946
35365SOL     OW16024   3.834   4.279   8.350 -0.2999 -0.3647 -0.1411
35365SOL    HW116025   3.883   4.360   8.366 -1.1726  0.1659 -0.0730
35365SOL    HW216026   3.823   4.276   8.255 -0.7632 -0.0893 -0.1019
35366SOL     OW16027   3.342  10.863   1.033  0.4083 -0.0595 -0.7051
35366SOL    HW116028   3.286  10.940   1.036  0.9139  0.3306 -1.1036
35366SOL    HW216029   3.310  10.812   0.959  0.7390  0.2959 -1.1006
35367SOL     OW16030   2.526   3.493   5.412  0.1916  0.4551  0.0499
35367SOL    HW116031   2.514   3.427   5.344  2.1588  1.9051 -1.8352
35367SOL    HW216032   2.595   3.458   5.468 -0.2897 -0.0097  0.3675
35368SOL     OW16033   0.041   4.224   3.585 -0.2138 -0.0335  0.5519
35368SOL    HW116034   0.001   4.268   3.510  1.0500  0.9244  0.4037
35368SOL    HW216035   0.051   4.133   3.557 -2.1312 -0.2905  0.5627
35369SOL     OW16036   6.256   7.789   4.648  0.5360 -0.2121  1.0161
35369SOL    HW116037   6.247   7.694   4.658  1.6267 -0.4048  0.2849
35369SOL    HW216038   6.265   7.821   4.738  1.0098 -0.9001  1.2244
35370SOL     OW16039   6.113   6.484  11.277 -0.3150  0.0481  0.6664
35370SOL    HW116040   6.103   6.578  11.290 -0.3485  0.4439 -1.7942
35370SOL    HW216041   6.108   6.447  11.365 -1.8846  2.1799  1.5497
35371SOL     OW16042  12.468   8.961   5.300 -0.5580 -0.2219 -0.2341
35371SOL    HW116043  12.532   9.025   5.332  0.6963 -1.5660  0.0380
35371SOL    HW216044  12.425   9.006   5.228  0.9738  0.5974 -0.7041
35372SOL     OW16045  10.231  10.655   4.123  0.9092 -0.8373 -0.3236
35372SOL    HW116046  10.144  10.675   4.158  0.8534 -0.7168 -0.5286
35372SOL    HW216047  10.216  10.589   4.056  1.1203 -1.7543  0.5069
35373SOL     OW16048  10.879  10.135   2.887  0.3334  0.4325 -0.2511
35373SOL    HW116049  10.895  10.067   2.952 -1.9659 -0.4694 -0.5284
35373SOL    HW216050  10.961  10.142   2.838  1.1529 -0.9461  0.8468
35374SOL     OW16051   8.202   3.804   3.096  0.1254  0.3313  0.7051
35374SOL    HW116052   8.168   3.757   3.173  0.5817 -0.7673  0.2544
35374SOL    HW216053   8.135   3.870   3.077  0.4272  1.2732  2.5941
35375SOL     OW16054  13.045   4.573   7.386  0.0845 -0.2477 -0.2830
35375SOL    HW116055  13.079   4.600   7.301 -1.0617  0.2265 -0.6115
35375SOL    HW216056  13.003   4.651   7.422 -1.6329 -1.0619 -0.4060
35376SOL     OW16057  13.128   8.681  10.018 -0.4602  0.3487 -0.1207
35376SOL    HW116058  13.141   8.709  10.108 -0.5656  0.1093 -0.0309
35376SOL    HW216059  13.047   8.726   9.991  0.0416  1.1135 -0.3832
35377SOL     OW16060   0.187  10.575  12.312 -0.2078 -0.9090 -0.4606
35377SOL    HW116061   0.144  10.599  12.230 -0.9639 -2.7222 -0.6234
35377SOL    HW216062   0.140  10.626  12.379  1.7139  2.1806 -1.2413
35378SOL     OW16063   3.335  11.177  12.943  0.3807 -0.4450  0.1550
35378SOL    HW116064   3.341  11.218  12.857  0.8517  0.7085  0.7182
35378SOL    HW216065   3.297  11.090  12.926  0.1068 -0.0861 -1.1525
35379SOL     OW16066   3.380   6.999  10.428 -0.6285  0.3632  0.3240
35379SOL    HW116067   3.407   7.049  10.350 -1.0058  1.0912  0.6516
35379SOL    HW216068   3.399   7.057  10.501  2.3948 -1.3543  1.0930
35380SOL     OW16069   7.547  11.057   8.887 -0.0546 -0.1551 -0.0195
35380SOL    HW116070   7.531  10.968   8.918  1.6632 -0.6636 -0.4537
35380SOL    HW216071   7.642  11.060   8.871 -0.3772  1.0987 -2.0685
35381SOL     OW16072  12.889   5.286   9.464 -0.1594 -0.2140  0.0779
35381SOL    HW116073  12.938   5.308   9.384  1.5863  2.1670  1.6530
35381SOL    HW216074  12.807   5.335   9.455 -0.3065 -0.5623 -0.5657
35382SOL     OW16075   0.912   5.776  10.132  0.0627  0.1706 -0.5521
35382SOL    HW116076   0.837   5.717  10.119  0.8188 -0.9718  0.1106
35382SOL    HW216077   0.963   5.735  10.202  0.0955  2.1533  0.6560
35383SOL     OW16078   7.704   2.664   1.965  0.1831 -0.2456 -0.0629
35383SOL    HW116079   7.708   2.593   1.901 -0.7628  0.5332 -1.0108
35383SOL    HW216080   7.761   2.635   2.036  0.3144 -1.6646 -0.7166
35384SOL     OW16081   6.434  12.420  11.938  0.1696  0.2426 -0.1768
35384SOL    HW116082   6.517  12.432  11.891 -0.1179  1.6868 -0.3610
35384SOL    HW216083   6.458  12.426  12.031  0.4078 -0.3502 -0.1959
35385SOL     OW16084   4.487   1.254   2.532  0.9430 -0.5770  0.1824
35385SOL    HW116085   4.474   1.328   2.591 -2.1685 -1.1493  0.3881
35385SOL    HW216086   4.436   1.275   2.454  0.2687 -2.3209  0.0960
35386SOL     OW16087   5.812  12.761   5.767 -0.2507 -0.4471 -0.1108
35386SOL    HW116088   5.752  12.788   5.698  0.0443 -0.1145 -0.2414
35386SOL    HW216089   5.819  12.838   5.824 -1.5509 -1.1454  1.0589
35387SOL     OW16090   4.086  11.736   7.985 -0.1259 -0.1335 -0.4756
35387SOL    HW116091   4.080  11.644   8.008 -0.3629 -0.3071 -1.2041
35387SOL    HW216092   4.006  11.754   7.935 -1.9846  1.3974  2.7609
35388SOL     OW16093   4.726   2.134   4.866 -0.6505  0.5859 -0.6155
35388SOL    HW116094   4.720   2.201   4.798 -2.0022  0.9520 -0.1789
35388SOL    HW216095   4.727   2.051   4.818  1.6615  0.8707 -1.1913
35389SOL     OW16096   8.382   7.763   1.523 -0.0594  0.5199  0.1391
35389SOL    HW116097   8.457   7.772   1.581 -0.5031  1.0844  0.6313
35389SOL    HW216098   8.364   7.852   1.492 -0.1459  0.3029 -0.4651
35390SOL     OW16099  11.216   4.618   7.585  0.0906  0.5553  0.6049
35390SOL    HW116100  11.237   4.591   7.496 -0.2676 -0.4357  0.8026
35390SOL    HW216101  11.285   4.680   7.609  0.0747  0.9720 -0.4243
35391SOL     OW16102   2.918   1.003  12.628 -0.0659  0.0972  0.0139
35391SOL    HW116103   2.858   1.038  12.693  0.5161  1.7658 -0.2941
35391SOL    HW216104   2.970   0.938  12.676  0.6787  1.6279  1.3986
35392SOL     OW16105  11.563   9.163  12.775 -0.0722 -0.1508 -0.1687
35392SOL    HW116106  11.656   9.186  12.782 -0.4503  1.2335  0.6936
35392SOL    HW216107  11.562   9.083  12.722  1.6473 -0.5405  0.3214
35393SOL     OW16108   9.115   6.764   5.711 -0.2640 -0.2664  0.1254
35393SOL    HW116109   9.171   6.781   5.787  0.2181 -1.6002  0.0931
35393SOL    HW216110   9.108   6.849   5.667  0.6949  0.1982  0.8367
35394SOL     OW16111   9.037   3.645   7.871  0.2324 -0.5136 -0.6713
35394SOL    HW116112   9.014   3.596   7.791  2.0694 -0.8665 -1.0263
35394SOL    HW216113   9.017   3.584   7.942  2.4560 -1.8700 -1.1069
35395SOL     OW16114   6.086   1.668   3.908 -0.2046 -0.8125  1.0618
35395SOL    HW116115   6.067   1.761   3.900 -1.4420 -1.0620  1.0039
35395SOL    HW216116   6.153   1.663   3.976  1.3642  0.2780 -0.2833
35396SOL     OW16117   5.980   4.082   1.005  0.0823  0.5406  0.2140
35396SOL    HW116118   6.065   4.046   1.028 -0.4100 -1.2006 -0.4680
35396SOL    HW216119   5.998   4.147   0.937  1.0024  1.5482  1.3927
35397SOL     OW16120   2.425  11.376   4.964  0.2309  0.3853  0.1835
35397SOL    HW116121   2.501  11.396   4.910  0.4964 -2.9470 -0.9471
35397SOL    HW216122   2.352  11.420   4.921  0.8754 -0.0127 -1.3958
35398SOL     OW16123  12.969  12.313  12.297  0.3544 -0.1864  0.5522
35398SOL    HW116124  12.960  12.222  12.323 -1.4988 -0.6022 -1.2885
35398SOL    HW216125  12.888  12.354  12.328  0.0931  0.2693 -0.6894
35399SOL     OW16126   8.102   0.254   1.763 -0.0462  0.3797  0.2994
35399SOL    HW116127   8.195   0.248   1.785 -0.1703 -0.8197  0.5469
35399SOL    HW216128   8.057   0.248   1.848 -0.3742  0.1472  0.1118
35400SOL     OW16129   5.269   1.086   5.501 -0.0114  0.1202  0.5025
35400SOL    HW116130   5.257   1.014   5.562 -0.9762  1.4254  1.9389
35400SOL    HW216131   5.286   1.044   5.416 -0.1225 -1.7517  1.3700
35401SOL     OW16132  10.851  12.064   4.233 -0.2522 -0.1319  0.0081
35401SOL    HW116133  10.911  12.089   4.163 -1.3006 -1.6629 -1.5397
35401SOL    HW216134  10.800  12.143   4.251 -1.2443 -0.1432 -2.3713
35402SOL     OW16135   9.855   3.180   0.830  0.4500 -0.1023  0.2961
35402SOL    HW116136   9.827   3.247   0.768 -3.0573 -1.5524  0.1153
35402SOL    HW216137   9.891   3.110   0.775 -0.8172 -0.5526  0.0182
35403SOL     OW16138   6.991   9.964  12.470  0.1283 -0.5673  0.0680
35403SOL    HW116139   7.061   9.947  12.533  1.6312 -1.8586 -1.8215
35403SOL    HW216140   7.032   9.951  12.384 -1.0802  3.5668 -1.4104
35404SOL     OW16141   4.357  11.839   2.587 -0.2104 -0.4216  0.2321
35404SOL    HW116142   4.356  11.809   2.497 -2.2324 -0.8401  0.3404
35404SOL    HW216143   4.320  11.766   2.637 -1.7006  0.7924  0.9934
35405SOL     OW16144   1.702   8.745   9.648 -0.2596 -0.0989  0.4440
35405SOL    HW116145   1.666   8.686   9.583 -1.1682 -0.0175  0.8556
35405SOL    HW216146   1.689   8.833   9.612  0.2283 -0.1041  0.2528
35406SOL     OW16147  10.510   1.135   1.070  0.3286  0.3394  0.3172
35406SOL    HW116148  10.545   1.046   1.064  2.8098  1.2338  0.7605
35406SOL    HW216149  10.449   1.131   1.145 -1.2287 -1.4157 -0.9364
35407SOL     OW16150   4.424  12.284  10.492 -0.1535  0.3680  0.6673
35407SOL    HW116151   4.372  12.362  10.511 -0.4268  0.4561 -0.3611
35407SOL    HW216152   4.500  12.318  10.443 -0.7206 -0.0805 -0.5735
35408SOL     OW16153   6.817  11.298   3.097 -0.8459 -0.2589  0.1733
35408SOL    HW116154   6.737  11.245   3.096 -1.1155  0.1245 -1.4945
35408SOL    HW216155   6.788  11.385   3.069 -0.3307  0.7013  2.4111
35409SOL     OW16156   4.470   8.652   9.945  0.2907  0.2700  0.6959
35409SOL    HW116157   4.520   8.608   9.876  0.6829 -1.6013  2.0896
35409SOL    HW216158   4.492   8.744   9.935  0.2457  0.0968 -1.7241
35410SOL     OW16159   4.273   8.537   2.727  0.3869 -0.5605 -0.2386
35410SOL    HW116160   4.201   8.490   2.771  1.0447 -0.5300  0.9160
35410SOL    HW216161   4.249   8.629   2.736 -0.3218 -0.6081 -1.4721
35411SOL     OW16162   4.991   8.285   4.330 -0.0239 -0.2475 -0.2509
35411SOL    HW116163   4.955   8.225   4.396  0.0108 -0.5098 -0.4663
35411SOL    HW216164   4.970   8.372   4.363  0.0223 -0.3741  0.1243
35412SOL     OW16165  11.755   5.749   6.546  0.5455  0.0091 -0.8897
35412SOL    HW116166  11.677   5.747   6.602 -0.0797  2.4617 -1.5764
35412SOL    HW216167  11.823   5.707   6.599 -0.0915  1.9221  1.6210
35413SOL     OW16168   6.475   7.080  10.014 -0.6715 -0.6543  0.0387
35413SOL    HW116169   6.504   7.170  10.002  0.0503 -0.7741  0.7660
35413SOL    HW216170   6.553   7.033  10.045 -0.6001 -1.8995 -1.8480
35414SOL     OW16171  12.602   3.592   5.329 -0.1712 -0.1518 -0.2140
35414SOL    HW116172  12.510   3.600   5.307  0.0608  1.4337 -0.7871
35414SOL    HW216173  12.612   3.639   5.412  0.1197 -0.3429 -0.1360
35415SOL     OW16174   5.342   7.360  11.768 -0.4650 -0.4365  0.1910
35415SOL    HW116175   5.306   7.412  11.696  1.9461  0.6030 -0.3457
35415SOL    HW216176   5.406   7.417  11.809  0.1676 -1.9864  1.4447
35416SOL     OW16177   1.431   4.468   5.275  0.1045  0.4592 -0.2371
35416SOL    HW116178   1.342   4.442   5.251 -0.4987  1.9073  0.3279
35416SOL    HW216179   1.450   4.419   5.355  0.3148 -0.7911 -1.0219
35417SOL     OW16180   8.768  11.442   7.422  0.5929 -0.5748 -0.3059
35417SOL    HW116181   8.767  11.535   7.446  0.0586 -0.6359 -0.0673
35417SOL    HW216182   8.705  11.434   7.351  1.7821 -0.4946 -1.3941
35418SOL     OW16183   1.845  12.534   0.606  0.2077  0.4437 -0.1825
35418SOL    HW116184   1.755  12.521   0.575 -0.3283  1.0688  1.0488
35418SOL    HW216185   1.857  12.469   0.675  0.4978  0.7293  0.0419
35419SOL     OW16186   1.354   2.711   8.689 -1.0912  0.8219  0.1036
35419SOL    HW116187   1.448   2.698   8.699 -1.0082  1.7041  0.6387
35419SOL    HW216188   1.343   2.806   8.692 -2.1235  0.6882  1.2067
35420SOL     OW16189  10.771  10.547   9.984  0.1186 -0.3004 -0.0269
35420SOL    HW116190  10.834  10.517   9.919  0.6210 -0.5680  0.5748
35420SOL    HW216191  10.776  10.483  10.055  1.2541  1.1641  1.3111
35421SOL     OW16192   7.094  10.666   6.213  0.2520  0.2139  0.1439
35421SOL    HW116193   7.177  10.673   6.260  0.0696  0.3539  0.4479
35421SOL    HW216194   7.027  10.678   6.280 -0.0101  0.7285 -0.1995
35422SOL     OW16195  12.912   7.403   8.618 -0.3878  0.2163 -0.4758
35422SOL    HW116196  12.955   7.329   8.661 -0.1293  0.5641 -0.1365
35422SOL    HW216197  12.888   7.369   8.531  1.9907  0.4485 -1.3035
35423SOL     OW16198   3.192   0.215   8.197  0.3475  0.0068  0.0833
35423SOL    HW116199   3.140   0.203   8.277  0.7168  1.0711  0.4997
35423SOL    HW216200   3.140   0.172   8.129  0.5025 -1.8358  1.0370
35424SOL     OW16201   8.285  12.907   1.435  0.4126  0.3336  0.3902
35424SOL    HW116202   8.217  12.945   1.380  1.1813 -0.4385 -1.1585
35424SOL    HW216203   8.364  12.909   1.381  1.2049 -0.4216  1.4753
35425SOL     OW16204   7.318   6.149   0.651 -0.2795 -0.1903  0.3819
35425SOL    HW116205   7.240   6.187   0.610  0.3501  0.9748  0.2099
35425SOL    HW216206   7.317   6.181   0.741 -0.0789 -0.2640  0.4120
35426SOL     OW16207   4.831   5.566  12.314 -0.0732  0.3112  0.0429
35426SOL    HW116208   4.745   5.597  12.284  0.4609  2.3607  0.4457
35426SOL    HW216209   4.872   5.644  12.353  0.6942 -1.3266  2.8036
35427SOL     OW16210   3.735  12.450   9.633  0.4877  0.4495 -0.2629
35427SOL    HW116211   3.661  12.401   9.598  0.7330  0.4269 -0.7418
35427SOL    HW216212   3.745  12.417   9.723 -0.5793  1.0034  0.0884
35428SOL     OW16213  11.613   3.325   2.602 -0.1683  0.0234  0.7120
35428SOL    HW116214  11.524   3.292   2.615 -1.2660  2.1550 -0.7930
35428SOL    HW216215  11.639   3.358   2.688 -0.9400 -0.4146  1.1238
35429SOL     OW16216   4.698   3.084  11.648  0.3269  0.4790  0.2582
35429SOL    HW116217   4.696   3.140  11.570  1.5140  0.1214 -0.0497
35429SOL    HW216218   4.642   3.129  11.711 -1.5942  0.2059 -1.1582
35430SOL     OW16219   8.695   9.671  12.077  0.1494  0.2127 -0.1854
35430SOL    HW116220   8.716   9.758  12.044 -0.3425  0.3885 -0.0481
35430SOL    HW216221   8.680   9.684  12.171  0.1590 -0.0377 -0.1480
35431SOL     OW16222   3.870   7.126   8.529  0.0189  0.2609 -0.1215
35431SOL    HW116223   3.912   7.190   8.471  2.1680 -1.7444 -0.9599
35431SOL    HW216224   3.831   7.063   8.469 -1.1119  0.1776  0.6851
35432SOL     OW16225   1.238  10.431   8.065 -0.1712 -0.3354 -0.0288
35432SOL    HW116226   1.333  10.436   8.053  0.0218 -0.5187  1.2291
35432SOL    HW216227   1.208  10.521   8.060 -0.0820 -0.3596 -1.4037
35433SOL     OW16228   5.112   8.084   8.834  0.0101  0.0353  0.4809
35433SOL    HW116229   5.174   8.030   8.882  0.3866 -0.6124 -0.6945
35433SOL    HW216230   5.054   8.022   8.790 -0.8685  0.6218  0.7789
35434SOL     OW16231   1.442   8.239  12.667  0.0602  0.0611  0.3183
35434SOL    HW116232   1.403   8.159  12.633  3.1265 -1.6827  0.5387
35434SOL    HW216233   1.440   8.300  12.593  0.3535 -1.2699 -0.8224
35435SOL     OW16234  10.361   1.382   1.907  0.2304 -0.3571 -0.2001
35435SOL    HW116235  10.362   1.471   1.940  0.1823 -0.5200  0.2502
35435SOL    HW216236  10.449   1.348   1.925  0.3956 -0.2536 -0.7875
35436SOL     OW16237   8.070   8.852   4.809 -0.1868  0.1621  0.0033
35436SOL    HW116238   7.979   8.861   4.839 -0.4556 -1.3127 -0.3112
35436SOL    HW216239   8.123   8.880   4.884 -0.8758 -1.7258  1.2577
35437SOL     OW16240   2.879  10.771  12.292 -0.1660  0.3536  0.1465
35437SOL    HW116241   2.811  10.724  12.340 -0.3802  0.3797 -0.1286
35437SOL    HW216242   2.944  10.704  12.271 -0.3909  0.2090 -0.0989
35438SOL     OW16243   1.061  12.629  10.489  0.3439 -0.0137 -0.4212
35438SOL    HW116244   1.119  12.706  10.483 -0.2998  0.3784 -2.1302
35438SOL    HW216245   0.973  12.664  10.477  0.0410 -1.0017 -1.2551
35439SOL     OW16246   7.362  10.524   7.893  0.1453 -0.6433  0.0384
35439SOL    HW116247   7.286  10.560   7.847  0.9642 -1.1951 -1.8419
35439SOL    HW216248   7.437  10.568   7.854  0.8596 -0.5496  1.4505
35440SOL     OW16249  10.813  12.182   3.973 -0.4025 -0.0250 -0.0159
35440SOL    HW116250  10.784  12.094   3.999  0.0549  0.1814  1.2748
35440SOL    HW216251  10.737  12.238   3.988  0.3155  0.3829  2.6310
35441SOL     OW16252   7.827   0.305   8.413  0.0328 -0.3794 -0.1329
35441SOL    HW116253   7.912   0.345   8.394  0.4553 -1.2004  0.0121
35441SOL    HW216254   7.819   0.310   8.508  0.0017 -0.4735 -0.1309
35442SOL     OW16255   4.212   4.296   0.488  0.2418 -0.4776  0.0854
35442SOL    HW116256   4.150   4.265   0.421 -0.6806  1.8544 -0.2183
35442SOL    HW216257   4.195   4.239   0.563 -2.1852 -0.0605 -0.0566
35443SOL     OW16258   4.671   8.468   1.915  0.6113  0.1283  0.5186
35443SOL    HW116259   4.695   8.416   1.838 -0.2645 -0.2818  0.5044
35443SOL    HW216260   4.751   8.515   1.939  0.8917  0.2900 -0.6667
35444SOL     OW16261   0.124   9.470   8.423  0.3321 -0.0164 -0.1818
35444SOL    HW116262   0.195   9.477   8.487  0.0965 -0.6406  0.1577
35444SOL    HW216263   0.061   9.538   8.449  0.1583 -0.3735  0.3639
35445SOL     OW16264   6.173  12.207  12.541 -0.3761 -0.4060 -0.0040
35445SOL    HW116265   6.199  12.226  12.631 -0.6762  0.7874 -0.1525
35445SOL    HW216266   6.085  12.242  12.533 -0.5794 -1.0244 -0.5980
35446SOL     OW16267   6.955   6.316  12.485  0.2254  0.1591  0.2195
35446SOL    HW116268   6.888   6.376  12.451 -0.1989 -0.8456 -0.7934
35446SOL    HW216269   6.913   6.230  12.482  1.4913 -0.4541 -0.2015
35447SOL     OW16270   7.883   3.587   0.980 -0.4064  0.1021  0.1072
35447SOL    HW116271   7.925   3.605   1.064 -0.3536  0.3399  0.0314
35447SOL    HW216272   7.897   3.667   0.928 -1.3069  0.3460  0.2257
35448SOL     OW16273   9.756   1.715   3.947 -0.3327 -0.3184 -0.1537
35448SOL    HW116274   9.773   1.640   3.892  0.5565  0.6830 -1.2898
35448SOL    HW216275   9.802   1.788   3.905 -2.0328  1.1034  0.3015
35449SOL     OW16276   6.803   2.418   3.574  0.5912 -0.5514  0.3711
35449SOL    HW116277   6.755   2.497   3.597 -0.3187 -0.6341 -1.1095
35449SOL    HW216278   6.783   2.403   3.482  3.8317 -0.3250 -0.5031
35450SOL     OW16279  10.232  11.472   8.592 -0.7883  0.1078 -0.3758
35450SOL    HW116280  10.313  11.509   8.557  0.0630 -0.5126  0.8890
35450SOL    HW216281  10.175  11.464   8.515 -0.1030  1.6655 -1.0886
35451SOL     OW16282   0.909   4.114  12.955  0.2389  0.2729 -0.2802
35451SOL    HW116283   0.983   4.129  13.013  1.9930  1.1053 -2.5768
35451SOL    HW216284   0.941   4.138  12.868 -2.0330 -1.4770 -1.7313
35452SOL     OW16285   7.793   6.778   8.763 -0.9111 -0.0411 -0.4604
35452SOL    HW116286   7.706   6.782   8.723 -1.4911 -1.7374  0.5282
35452SOL    HW216287   7.852   6.767   8.689 -1.4729  1.4344 -1.1723
35453SOL     OW16288   4.599   9.163   0.787  0.4445 -0.4274 -0.0178
35453SOL    HW116289   4.674   9.160   0.728  0.0725  2.3159 -0.7942
35453SOL    HW216290   4.587   9.073   0.817  2.5952 -1.3347 -1.6717
35454SOL     OW16291   8.326  10.555   0.863 -0.2386  0.0884 -0.0404
35454SOL    HW116292   8.257  10.609   0.900  2.1425  1.9135  2.1392
35454SOL    HW216293   8.358  10.606   0.788 -1.1652 -0.7206 -1.0043
35455SOL     OW16294   2.079   1.740  12.851  0.1141 -0.3260 -0.1288
35455SOL    HW116295   2.078   1.835  12.837  0.6195 -0.1865  0.7067
35455SOL    HW216296   2.168   1.721  12.883  0.2298 -1.1799 -0.9053
35456SOL     OW16297   6.301   5.306  11.819 -0.5225 -0.7957 -0.3223
35456SOL    HW116298   6.380   5.255  11.839 -0.2047  0.4108  1.7679
35456SOL    HW216299   6.293   5.300  11.724  2.4325 -0.5181 -0.6972
35457SOL     OW16300   4.232   7.963   7.692  0.3926 -0.4172 -0.5393
35457SOL    HW116301   4.215   7.882   7.741 -0.2884  0.5513  0.8777
35457SOL    HW216302   4.146   8.006   7.686  1.3612  2.3928  2.7943
35458SOL     OW16303   7.730   6.648  13.311 -0.1088  0.1802  0.3635
35458SOL    HW116304   7.758   6.723  13.364  0.6534  0.2859 -0.1756
35458SOL    HW216305   7.741   6.677  13.221 -0.1625 -0.4536  0.1520
35459SOL     OW16306   2.410   7.125   5.204 -0.0856 -0.4959  0.4086
35459SOL    HW116307   2.342   7.165   5.149  0.5798  0.6888  0.4164
35459SOL    HW216308   2.478   7.192   5.211  1.9951 -2.3114 -1.1722
35460SOL     OW16309   0.642  11.942   5.277  0.4239  0.3956  0.6546
35460SOL    HW116310   0.670  11.907   5.192  1.2088  2.2783  0.0661
35460SOL    HW216311   0.547  11.932   5.278  0.5325 -0.7614  0.0817
35461SOL     OW16312  12.615   5.758   6.466 -0.3165  0.0181  0.6926
35461SOL    HW116313  12.641   5.707   6.543 -2.1813 -1.2087  0.5765
35461SOL    HW216314  12.588   5.843   6.501  2.4226  0.8951  0.9298
35462SOL     OW16315   3.299  10.854   4.619  0.7674 -0.4780 -0.0702
35462SOL    HW116316   3.284  10.764   4.593 -0.0707 -0.4462  0.2749
35462SOL    HW216317   3.219  10.880   4.664  0.7329  0.6465 -0.7277
35463SOL     OW16318   3.901   9.570   1.954  0.6213  0.0119  0.4446
35463SOL    HW116319   3.874   9.544   1.866  0.3303 -1.0972  0.8396
35463SOL    HW216320   3.995   9.584   1.948  0.4870  0.6805 -0.2017
35464SOL     OW16321   7.732   9.477   1.557 -0.7403 -0.0221 -0.1741
35464SOL    HW116322   7.821   9.509   1.571 -1.4243  1.1085  1.8946
35464SOL    HW216323   7.708   9.509   1.470  0.5475  0.4131 -0.3871
35465SOL     OW16324  10.599   0.758   6.149 -0.0532  0.0322 -0.0655
35465SOL    HW116325  10.610   0.804   6.232 -0.8769  0.4505 -0.1876
35465SOL    HW216326  10.506   0.762   6.130  0.0903 -0.2665 -0.9020
35466SOL     OW16327   0.004   2.967   2.045  0.4200  0.1734 -0.0431
35466SOL    HW116328   0.069   3.007   2.103  0.5633  1.3351 -0.9770
35466SOL    HW216329   0.041   2.976   1.957  0.2348 -1.6258 -0.3399
35467SOL     OW16330   8.783   7.340   2.900  0.0179  0.4343  0.6521
35467SOL    HW116331   8.791   7.272   2.967 -0.5379  2.1241  2.5494
35467SOL    HW216332   8.699   7.323   2.858  0.8168 -1.2364 -0.3907
35468SOL     OW16333   7.033   4.636  12.245  0.1318  0.0505 -0.0106
35468SOL    HW116334   7.095   4.706  12.223  0.7016 -0.6321 -0.6165
35468SOL    HW216335   7.088   4.558  12.256 -0.6785 -0.7355 -1.3093
35469SOL     OW16336  11.125  11.139  13.112  0.3564  0.2468  0.2361
35469SOL    HW116337  11.181  11.196  13.060 -0.3283 -0.9029 -1.9066
35469SOL    HW216338  11.180  11.065  13.134 -0.0977 -0.6579 -1.4636
35470SOL     OW16339   6.014   7.253   4.713 -0.6207  0.2231 -0.6300
35470SOL    HW116340   5.989   7.324   4.772  1.8276  1.4202 -0.9137
35470SOL    HW216341   5.992   7.173   4.761  0.8407  1.1556  1.7872
35471SOL     OW16342   7.554  10.453   4.953 -0.3134 -0.0674 -0.6117
35471SOL    HW116343   7.526  10.493   5.036  0.2881 -1.4480  0.3058
35471SOL    HW216344   7.650  10.451   4.960 -0.3191 -1.2913 -0.8020
35472SOL     OW16345   2.409   3.872   5.407 -0.2178  0.5459  0.8353
35472SOL    HW116346   2.320   3.906   5.401 -0.6041 -0.6385 -0.6302
35472SOL    HW216347   2.418   3.812   5.333  1.2865 -0.5367  1.8178
35473SOL     OW16348   5.693   8.288  11.256 -0.0339 -0.2752  0.5845
35473SOL    HW116349   5.617   8.230  11.253 -0.1528 -0.1167  0.4455
35473SOL    HW216350   5.756   8.243  11.311 -0.1860 -0.4621  0.6074
35474SOL     OW16351  10.572   9.762   0.218 -0.3864 -0.3275  0.3482
35474SOL    HW116352  10.589   9.806   0.301  0.8089  0.6366 -0.3695
35474SOL    HW216353  10.527   9.681   0.242  1.2188 -0.7828  2.0617
35475SOL     OW16354   5.461  11.182   8.982 -0.7928  0.2370 -0.2114
35475SOL    HW116355   5.375  11.159   8.946 -0.1487 -0.3991 -1.4486
35475SOL    HW216356   5.506  11.098   8.990 -0.3450  0.5471  0.5909
35476SOL     OW16357   1.790   1.656   2.618 -0.1725 -0.8282 -0.1727
35476SOL    HW116358   1.863   1.717   2.625 -0.4114 -0.5728  0.1294
35476SOL    HW216359   1.831   1.571   2.602  0.1335 -0.4876 -1.2998
35477SOL     OW16360   6.736  11.114   9.060  0.2844 -0.1441 -0.0805
35477SOL    HW116361   6.765  11.034   9.104  4.7159  0.4742 -1.4137
35477SOL    HW216362   6.702  11.083   8.975  0.9065 -0.7227 -0.1328
35478SOL     OW16363   6.977   8.684   7.661 -0.9828  0.4959  0.0841
35478SOL    HW116364   7.038   8.757   7.676  1.4471 -1.6421  1.2428
35478SOL    HW216365   6.962   8.647   7.747 -0.9763 -1.2412 -0.6166
35479SOL     OW16366   5.964   5.538   0.485  0.0157  0.0946  0.3109
35479SOL    HW116367   5.898   5.469   0.488  0.2118 -0.0621  1.4674
35479SOL    HW216368   6.046   5.493   0.502  0.0076  0.7427  2.3297
35480SOL     OW16369  10.608   9.208  11.019 -0.4618  0.6674 -0.0371
35480SOL    HW116370  10.514   9.220  11.032  0.0057  3.9713  1.5411
35480SOL    HW216371  10.644   9.204  11.108  1.0178  1.2296 -0.5764
35481SOL     OW16372  10.994   7.750   1.826  0.0596  0.1876  0.2066
35481SOL    HW116373  10.937   7.734   1.901 -0.4534  1.7672  0.2016
35481SOL    HW216374  10.973   7.840   1.799  0.5342 -0.1842 -1.5573
35482SOL     OW16375   6.854   7.632  12.592  0.7361  0.1622 -0.0364
35482SOL    HW116376   6.839   7.717  12.551 -0.7134 -0.6989 -1.4067
35482SOL    HW216377   6.875   7.574  12.519 -0.4645 -1.1055  0.5856
35483SOL     OW16378   7.969   3.594   3.814  0.1667  0.1284 -0.1573
35483SOL    HW116379   7.929   3.517   3.855 -1.0887  0.8436 -0.0172
35483SOL    HW216380   7.966   3.662   3.881  2.8339 -0.1336  0.3232
35484SOL     OW16381   9.522   3.568   7.745  0.4569  0.0789  0.1395
35484SOL    HW116382   9.602   3.522   7.770 -0.2971 -0.6655  1.3084
35484SOL    HW216383   9.469   3.568   7.825 -1.0203 -0.1193 -0.8083
35485SOL     OW16384   6.216  12.687  12.445 -0.2087 -0.1796  0.0877
35485SOL    HW116385   6.228  12.598  12.414  0.2559  0.4399 -1.5962
35485SOL    HW216386   6.125  12.707  12.425 -0.5790 -0.5525  1.2921
35486SOL     OW16387  12.341  11.234  11.471  0.2125 -0.5572  0.2019
35486SOL    HW116388  12.351  11.290  11.394 -0.7028 -1.8820 -0.9057
35486SOL    HW216389  12.247  11.235  11.490  0.3375 -0.8033  0.8806
35487SOL     OW16390   3.231   0.894   0.038  0.0334  0.0104 -0.3629
35487SOL    HW116391   3.166   0.904  -0.032  0.4568  0.5568 -0.6849
35487SOL    HW216392   3.303   0.950   0.012 -0.0782  0.7568  0.8682
35488SOL     OW16393   8.868   9.924   5.778  0.4125  0.1002 -0.1673
35488SOL    HW116394   8.937   9.861   5.758 -0.7452 -1.1798 -0.2047
35488SOL    HW216395   8.797   9.872   5.815 -0.4965  1.4140  0.0056
35489SOL     OW16396   7.269   8.899   5.847  0.0755  0.2289 -0.0515
35489SOL    HW116397   7.194   8.846   5.875 -0.6342  1.0793 -0.3113
35489SOL    HW216398   7.344   8.839   5.855 -0.6046 -0.6072  0.3034
35490SOL     OW16399   9.541  12.269   7.805  0.2498  0.4198 -0.0321
35490SOL    HW116400   9.544  12.331   7.732  0.4996 -0.7200 -1.0132
35490SOL    HW216401   9.480  12.309   7.867  0.8822  1.9572 -0.3354
35491SOL     OW16402   0.181  12.053   3.047  0.1844 -0.2612  0.0344
35491SOL    HW116403   0.109  12.113   3.031  2.1660  2.2606 -0.1131
35491SOL    HW216404   0.220  12.083   3.130  3.4865  1.2514 -1.8587
35492SOL     OW16405   3.946   9.291  12.060 -0.5032 -0.2209 -0.7449
35492SOL    HW116406   3.889   9.261  11.989 -1.8433 -0.8667  0.5455
35492SOL    HW216407   3.995   9.213  12.086  0.2020  0.0833 -1.1408
35493SOL     OW16408   0.827   5.471   3.137 -0.5952 -0.5822 -0.2141
35493SOL    HW116409   0.825   5.411   3.062  0.9245 -1.0350  0.0693
35493SOL    HW216410   0.914   5.510   3.133 -0.0568 -1.4503  1.9337
35494SOL     OW16411  10.289   4.745   2.989 -0.2095  0.1755 -0.2714
35494SOL    HW116412  10.327   4.691   3.058 -2.1352 -0.4248  0.3953
35494SOL    HW216413  10.230   4.804   3.035 -0.8159  0.4067 -1.3098
35495SOL     OW16414   6.099  12.563  11.692 -0.3542 -0.7452  0.1337
35495SOL    HW116415   6.099  12.563  11.788 -0.7798  0.8248  0.1602
35495SOL    HW216416   6.090  12.655  11.668  0.2039 -1.0696 -1.4300
35496SOL     OW16417   5.202   9.784  10.703  0.3877  0.0405 -0.8338
35496SOL    HW116418   5.132   9.836  10.744  0.0157 -0.6012 -0.6349
35496SOL    HW216419   5.257   9.756  10.776 -0.2298 -1.0392 -0.7613
35497SOL     OW16420   4.035   1.606   4.179 -0.0400 -0.3189 -0.0904
35497SOL    HW116421   4.041   1.620   4.084  0.5887  0.4166  0.0514
35497SOL    HW216422   4.126   1.599   4.208 -0.2571 -2.3801  0.2146
35498SOL     OW16423   2.023  12.057   2.853  0.1858  0.2558 -1.0804
35498SOL    HW116424   2.109  12.029   2.885  0.3026  1.7174 -0.0068
35498SOL    HW216425   2.040  12.141   2.810 -0.9761  1.7615  1.1935
35499SOL     OW16426   7.956   6.994   6.888  0.4986  0.8652 -0.1357
35499SOL    HW116427   7.878   7.020   6.840  0.6418 -0.9323 -1.4004
35499SOL    HW216428   7.944   6.901   6.905  1.7636  0.8581  0.8415
35500SOL     OW16429   5.851   9.782   8.940  0.0992  0.1809 -0.5922
35500SOL    HW116430   5.759   9.794   8.919  0.2129  0.1955 -1.1160
35500SOL    HW216431   5.861   9.814   9.029 -1.0151 -2.6100  0.6340
35501SOL     OW16432   6.259   3.254   2.086  0.3038  0.2476  0.0445
35501SOL    HW116433   6.326   3.323   2.092  1.3528 -0.7123 -0.2460
35501SOL    HW216434   6.306   3.174   2.109 -0.9232 -0.3563  0.4683
35502SOL     OW16435   6.800   9.886   9.114 -0.3282 -0.5749 -0.1413
35502SOL    HW116436   6.893   9.909   9.106 -0.9931  1.7083 -2.8654
35502SOL    HW216437   6.777   9.852   9.027 -1.9894 -1.4723  0.6182
35503SOL     OW16438   6.641   5.036  10.175 -0.3374  0.1069  0.2743
35503SOL    HW116439   6.554   5.042  10.137 -0.3413  0.2996  0.3130
35503SOL    HW216440   6.671   5.127  10.182 -0.5478  0.1202  1.2238
35504SOL     OW16441   8.674   3.808   0.886  0.3890  0.0433  0.0517
35504SOL    HW116442   8.734   3.802   0.812  0.6943 -1.2912  0.3772
35504SOL    HW216443   8.599   3.857   0.853  0.6423 -0.2848 -1.0416
35505SOL     OW16444   0.885  12.513   4.871 -0.3604  0.4651 -0.2756
35505SOL    HW116445   0.805  12.461   4.881 -0.4549  0.7998  0.7875
35505SOL    HW216446   0.907  12.504   4.778 -1.9522  0.8491 -0.7261
35506SOL     OW16447   7.167   7.523   8.021 -0.2000  0.0267  0.4875
35506SOL    HW116448   7.179   7.428   8.026 -0.2956  0.0858  2.8416
35506SOL    HW216449   7.072   7.536   8.031 -0.3427  0.3431 -1.0485
35507SOL     OW16450   1.087  12.868   4.999 -0.2358 -0.9370  0.1261
35507SOL    HW116451   1.134  12.823   5.070  0.2254 -0.5886  0.0438
35507SOL    HW216452   1.107  12.816   4.921  2.2043  0.6615 -0.4090
35508SOL     OW16453   5.884   9.620  11.415 -0.3044  0.1596 -0.3089
35508SOL    HW116454   5.967   9.654  11.384 -0.0321  0.0033  0.2329
35508SOL    HW216455   5.835   9.600  11.335  0.2356  0.1051 -0.6344
35509SOL     OW16456   9.872   9.157   9.846 -0.1812  0.2029  0.2614
35509SOL    HW116457   9.848   9.088   9.784 -1.3444  0.5856  0.2680
35509SOL    HW216458   9.961   9.183   9.820 -0.2732 -0.3238 -0.6168
35510SOL     OW16459   8.111   1.984   4.469  0.0600  0.1310 -0.3738
35510SOL    HW116460   8.189   1.977   4.525 -0.2570  0.1052  0.0714
35510SOL    HW216461   8.054   2.046   4.515 -0.8370 -1.0037  0.0919
35511SOL     OW16462   3.831   1.410   5.543 -0.0577  0.5358  0.4397
35511SOL    HW116463   3.746   1.432   5.580  0.9836 -0.4133  3.7220
35511SOL    HW216464   3.828   1.315   5.531  0.6366  0.4534  0.8744
35512SOL     OW16465   8.226   8.367   4.011  0.8719  0.1656  0.2305
35512SOL    HW116466   8.303   8.402   4.057  1.6426 -1.0268 -0.1064
35512SOL    HW216467   8.216   8.423   3.935  3.0660 -1.1634 -1.1784
35513SOL     OW16468   0.094   6.374  13.232 -0.6566  0.7469  0.3942
35513SOL    HW116469   0.093   6.462  13.270  1.0510  1.2681 -0.6794
35513SOL    HW216470   0.045   6.383  13.150  0.6500  1.0400 -0.3721
35514SOL     OW16471   3.820   8.944   1.428 -0.1052  0.1333  0.3704
35514SOL    HW116472   3.851   8.895   1.351 -0.1553 -0.1371  0.5213
35514SOL    HW216473   3.856   9.031   1.416 -0.0967  0.0885  0.0461
35515SOL     OW16474  10.154   0.653   5.923  1.0129  0.6408  0.1267
35515SOL    HW116475  10.067   0.682   5.896  0.6522 -0.6749 -0.2330
35515SOL    HW216476  10.203   0.646   5.841  1.2086  0.6079  0.2458
35516SOL     OW16477   4.187   7.589  10.937  0.0113 -0.2135  0.4413
35516SOL    HW116478   4.265   7.585  10.881 -1.0833  0.2056 -1.2035
35516SOL    HW216479   4.215   7.551  11.020  1.5404 -1.5102 -0.6077
35517SOL     OW16480   4.928   8.166   9.941 -0.4467  0.2185 -0.2338
35517SOL    HW116481   5.021   8.169   9.963 -0.2786 -0.3239 -0.8243
35517SOL    HW216482   4.916   8.237   9.878 -0.3254 -0.0139 -0.5219
35518SOL     OW16483  12.768  11.100  10.189 -0.4602 -0.6067 -0.9738
35518SOL    HW116484  12.808  11.153  10.258 -0.3164  0.8303 -2.1063
35518SOL    HW216485  12.696  11.054  10.233 -1.5229  1.6545 -0.1747
35519SOL     OW16486  12.545   6.692   3.371 -0.3211 -0.5967  0.3840
35519SOL    HW116487  12.483   6.752   3.330  0.3473  1.0202  1.6758
35519SOL    HW216488  12.489   6.624   3.411 -1.0849 -0.7664 -0.9018
35520SOL     OW16489   0.093   4.944  12.453  0.3512 -0.3636 -0.2294
35520SOL    HW116490   0.071   4.852  12.468 -0.3845 -0.0996  0.3927
35520SOL    HW216491   0.049   4.967  12.372 -2.1169  0.2520  1.1620
35521SOL     OW16492  10.511   9.231   1.910 -0.3798 -0.4321  0.1423
35521SOL    HW116493  10.450   9.255   1.981 -0.7493 -1.2045  0.0994
35521SOL    HW216494  10.470   9.265   1.831 -0.9096 -1.1830  0.0795
35522SOL     OW16495   1.438  11.665   3.890 -0.5336  0.0840  0.0527
35522SOL    HW116496   1.487  11.732   3.937 -0.3966  0.5648 -0.7607
35522SOL    HW216497   1.501  11.594   3.876 -0.4292  0.1600  0.1380
35523SOL     OW16498   1.748   2.934   4.106 -0.4647 -0.3055  0.1918
35523SOL    HW116499   1.819   2.997   4.118 -1.3841  1.2527 -1.9477
35523SOL    HW216500   1.787   2.849   4.128  0.9973  0.8959  2.5234
35524SOL     OW16501   1.294  11.305  10.319  0.3579  0.3537 -0.2653
35524SOL    HW116502   1.357  11.358  10.369  1.1447 -0.7238 -0.0613
35524SOL    HW216503   1.243  11.368  10.270  0.6940  1.3493  0.6246
35525SOL     OW16504   4.205   2.970   5.540  0.1873 -0.2742 -0.2950
35525SOL    HW116505   4.156   2.929   5.611  2.1615 -0.8954  0.8085
35525SOL    HW216506   4.297   2.962   5.567  0.8307  2.6578 -1.2206
35526SOL     OW16507   5.859   3.278   3.605  0.2447 -1.2602  0.1689
35526SOL    HW116508   5.886   3.214   3.539  0.5774  0.3827 -1.3639
35526SOL    HW216509   5.767   3.295   3.585  0.3040 -0.8718  0.2141
35527SOL     OW16510   2.077   8.791   8.497  0.0720  0.1070  0.4535
35527SOL    HW116511   2.155   8.734   8.499  0.0861  0.1395  0.7686
35527SOL    HW216512   2.009   8.739   8.539 -0.6282 -0.7336 -1.5841
35528SOL     OW16513  13.206   0.472   0.731  0.1250 -0.0840 -0.6936
35528SOL    HW116514  13.114   0.492   0.747 -0.1440 -1.7412  0.0537
35528SOL    HW216515  13.206   0.417   0.652  0.9084  3.1746 -3.1492
35529SOL     OW16516   3.128  12.070   0.374 -0.1665  0.0980 -0.1426
35529SOL    HW116517   3.131  12.108   0.462 -0.3850  0.2630 -0.2058
35529SOL    HW216518   3.044  12.025   0.370 -1.3412  2.2189 -1.1342
35530SOL     OW16519   0.190   2.124   0.642  0.0353  0.2839 -0.1305
35530SOL    HW116520   0.128   2.052   0.628 -1.0983  0.8066  1.8219
35530SOL    HW216521   0.148   2.200   0.602  1.2058 -0.0532 -2.1389
35531SOL     OW16522   7.902   3.806   6.998  0.2188  0.2444  0.1424
35531SOL    HW116523   7.985   3.763   7.022 -0.2201  0.0838  1.4546
35531SOL    HW216524   7.895   3.791   6.904  0.9933 -0.9810  0.2421
35532SOL     OW16525  12.076   7.592   6.536 -0.0954 -0.5267  0.2066
35532SOL    HW116526  12.119   7.597   6.621  0.9762 -2.0527 -0.1966
35532SOL    HW216527  12.148   7.600   6.473 -0.6688 -1.0320 -0.5268
35533SOL     OW16528   5.253   6.793  10.630  0.0298 -0.0215 -0.2993
35533SOL    HW116529   5.179   6.840  10.591  0.1499  0.3712 -0.0598
35533SOL    HW216530   5.220   6.765  10.716  0.6698  1.5765  0.5116
35534SOL     OW16531   3.459  12.589   4.906  0.2651 -0.5394 -0.0121
35534SOL    HW116532   3.385  12.587   4.845 -0.2056 -0.7956  0.5594
35534SOL    HW216533   3.424  12.630   4.985  0.4880 -1.4318  0.5702
35535SOL     OW16534   7.273   9.277   6.233 -0.1398 -0.1356 -0.2905
35535SOL    HW116535   7.356   9.287   6.188  0.3219  0.6047  0.6708
35535SOL    HW216536   7.290   9.309   6.322 -1.2614 -0.6352  0.1290
35536SOL     OW16537   2.725   3.856   6.011 -0.0791  0.5032  0.1276
35536SOL    HW116538   2.741   3.761   6.006 -1.8270  0.2150 -0.5074
35536SOL    HW216539   2.693   3.870   6.100  0.6361  0.5870  0.3777
35537SOL     OW16540   8.563  12.118   6.993  0.4441 -0.1704  0.1770
35537SOL    HW116541   8.554  12.025   7.013 -0.2146 -0.0491  0.4792
35537SOL    HW216542   8.539  12.125   6.900  0.9081 -0.3590  0.0408
35538SOL     OW16543   2.583   0.058   1.323  0.3770  0.3602  0.1248
35538SOL    HW116544   2.546  -0.008   1.381  0.1308 -0.4172 -0.8802
35538SOL    HW216545   2.605   0.009   1.243  3.0603  0.8821  0.4667
35539SOL     OW16546  10.600   9.380   9.143  0.5886  0.3672 -0.0534
35539SOL    HW116547  10.669   9.413   9.201 -0.9941  0.4559  1.9033
35539SOL    HW216548  10.639   9.305   9.100  2.0189  0.6024  0.7670
35540SOL     OW16549   8.984   2.799  10.213 -0.2517 -0.5655 -0.1439
35540SOL    HW116550   8.956   2.868  10.273 -0.6981 -1.5722  0.8667
35540SOL    HW216551   8.903   2.754  10.189 -0.0373 -0.3585 -1.2819
35541SOL     OW16552   1.397   7.128   8.237  0.3427 -0.5065  0.1720
35541SOL    HW116553   1.355   7.188   8.298  0.6351 -0.0776 -0.0377
35541SOL    HW216554   1.437   7.061   8.292 -1.1146 -1.2541  0.3412
35542SOL     OW16555   4.979   6.893  11.940 -0.1589  0.1069  0.2705
35542SOL    HW116556   5.058   6.912  11.990 -0.8034 -0.9333  1.7334
35542SOL    HW216557   4.996   6.809  11.898 -0.4054 -0.0350  0.4468
35543SOL     OW16558   4.252   2.719   6.706  0.3916  0.0847 -0.6043
35543SOL    HW116559   4.255   2.721   6.802  0.0023  1.5122 -0.5873
35543SOL    HW216560   4.215   2.804   6.682  0.3634 -0.3011 -2.0255
35544SOL     OW16561   0.135  10.943  12.925  0.6614  0.5862 -0.0100
35544SOL    HW116562   0.128  10.860  12.971 -1.7796 -0.0452 -1.3423
35544SOL    HW216563   0.181  10.922  12.843  0.3094  0.5913 -0.2123
35545SOL     OW16564  12.613   6.914  11.980 -0.1175 -0.3192 -0.6138
35545SOL    HW116565  12.546   6.875  12.037 -0.2656 -0.6038 -0.9804
35545SOL    HW216566  12.608   7.008  11.998 -0.6183 -0.3371 -0.6397
35546SOL     OW16567   4.141   4.869   4.089  0.4549  0.1590  0.0600
35546SOL    HW116568   4.184   4.801   4.037 -0.2461 -0.7918  0.6794
35546SOL    HW216569   4.192   4.948   4.073  2.5912 -0.9556  0.9429
35547SOL     OW16570   0.218   5.103   4.582  0.5985  0.3759 -0.2542
35547SOL    HW116571   0.254   5.045   4.514  1.3012  0.8009 -0.2622
35547SOL    HW216572   0.178   5.044   4.645  2.6771 -0.2749  0.5548
35548SOL     OW16573  13.220   5.648   3.549 -0.3934  0.4791  0.7315
35548SOL    HW116574  13.249   5.612   3.466  0.1316 -1.0124  1.5326
35548SOL    HW216575  13.292   5.633   3.609 -0.5376  2.0460  1.3535
35549SOL     OW16576  10.768   2.925   6.085  0.0923  0.2462  0.2147
35549SOL    HW116577  10.816   2.965   6.012 -0.8983  2.1529  0.5451
35549SOL    HW216578  10.750   2.836   6.055  1.6478  0.2643 -0.9257
35550SOL     OW16579   6.599  10.425   5.272  0.9921  0.2575  0.0148
35550SOL    HW116580   6.599  10.402   5.365 -1.9450 -2.2542 -0.4829
35550SOL    HW216581   6.648  10.355   5.229  2.0017  1.2027 -0.4661
35551SOL     OW16582  12.454  10.764   9.975 -0.2172  0.2314 -0.1274
35551SOL    HW116583  12.388  10.810  10.026  0.0578  0.8828 -0.3513
35551SOL    HW216584  12.405  10.724   9.903 -0.7169 -1.2852  1.0046
35552SOL     OW16585  11.570   7.024   5.274  0.1188  0.0171 -0.0163
35552SOL    HW116586  11.508   6.951   5.276 -1.8155  1.4724 -1.9762
35552SOL    HW216587  11.574   7.055   5.365 -1.8836 -0.3042  0.2310
35553SOL     OW16588   0.288   8.808   5.019  0.0392  0.1994  0.7373
35553SOL    HW116589   0.296   8.729   4.964 -0.8745  0.3656  0.3399
35553SOL    HW216590   0.378   8.835   5.036  0.3993 -1.3203  1.4558
35554SOL     OW16591   7.872  10.571   5.289  0.8368 -0.3700  0.5746
35554SOL    HW116592   7.843  10.630   5.220  0.7523 -3.4655 -2.2783
35554SOL    HW216593   7.967  10.567   5.280  0.9199 -0.1895  1.2456
35555SOL     OW16594   4.384   9.397  12.931  0.3921 -0.9015  0.5238
35555SOL    HW116595   4.408   9.397  12.838  1.7972 -2.2166  0.8382
35555SOL    HW216596   4.303   9.347  12.935  1.1034 -2.1214  0.1464
35556SOL     OW16597   9.870   7.636   0.513  0.2158  0.2256  0.1155
35556SOL    HW116598   9.921   7.682   0.447 -1.2005 -0.1335 -1.2924
35556SOL    HW216599   9.861   7.699   0.585  0.6976  1.0941 -0.5677
35557SOL     OW16600   2.052  11.239   1.639 -1.0205  0.1241 -0.1724
35557SOL    HW116601   2.145  11.255   1.628 -0.6184 -1.3874  0.8079
35557SOL    HW216602   2.014  11.326   1.655  0.8770  0.4058  3.8557
35558SOL     OW16603  12.041   9.780   6.541  0.4323 -0.1601  0.6479
35558SOL    HW116604  12.002   9.739   6.619 -0.0986 -0.5051  0.2100
35558SOL    HW216605  12.020   9.720   6.470  1.1358  0.0303  0.2782
35559SOL     OW16606   3.120   2.615  11.880 -0.4410 -0.1417 -0.2741
35559SOL    HW116607   3.199   2.644  11.835  1.0684 -0.8678  1.7257
35559SOL    HW216608   3.087   2.543  11.827  0.6156 -0.2464 -0.8111
35560SOL     OW16609   3.660   9.249   1.014 -0.1934 -0.2721  0.2459
35560SOL    HW116610   3.752   9.243   1.038 -0.1114 -0.1906 -0.0385
35560SOL    HW216611   3.626   9.321   1.068 -0.3972 -1.1147  1.2588
35561SOL     OW16612   0.728   1.379   9.538 -0.2156 -0.1051 -0.2522
35561SOL    HW116613   0.645   1.383   9.585 -0.0067  1.3962  0.0332
35561SOL    HW216614   0.766   1.466   9.548  1.9308 -1.0526  0.6023
35562SOL     OW16615   1.501  11.262   8.004  0.0654 -0.0123  0.3071
35562SOL    HW116616   1.553  11.191   7.966 -1.1191 -0.0546 -1.3473
35562SOL    HW216617   1.563  11.335   8.013  1.0470 -0.8981  1.0440
35563SOL     OW16618   5.193   7.346  11.280 -0.2551 -0.1119  0.2177
35563SOL    HW116619   5.225   7.383  11.198  0.2103 -0.0978  0.4044
35563SOL    HW216620   5.098   7.348  11.271 -0.2871  1.8813  0.5518
35564SOL     OW16621   5.352   6.206   6.848  0.2076 -0.4970 -0.3780
35564SOL    HW116622   5.414   6.274   6.876  1.2288 -1.3945 -0.4146
35564SOL    HW216623   5.361   6.137   6.914 -1.3291 -0.3332  0.0504
35565SOL     OW16624   8.980  10.679  11.619 -0.1347  0.2632  0.0328
35565SOL    HW116625   9.009  10.632  11.540 -2.3228  0.3435 -0.8631
35565SOL    HW216626   8.983  10.612  11.687  1.4935  0.1139 -0.1271
35566SOL     OW16627   3.905   8.294   7.573 -0.1741  0.1699  0.2276
35566SOL    HW116628   3.879   8.246   7.652  0.5482  0.7040  0.7969
35566SOL    HW216629   3.931   8.381   7.605  3.2598 -0.5969 -0.1543
35567SOL     OW16630  11.600  10.308  10.781 -0.2355 -0.6377  0.3580
35567SOL    HW116631  11.638  10.375  10.838 -0.6903 -0.5980  0.6198
35567SOL    HW216632  11.672  10.281  10.724 -0.4229  1.1937 -0.8178
35568SOL     OW16633   8.373   1.598  11.601 -0.0013 -0.0313 -0.2354
35568SOL    HW116634   8.467   1.607  11.587  0.0800 -1.2253 -0.5659
35568SOL    HW216635   8.355   1.650  11.679  0.8676  0.4814 -0.3684
35569SOL     OW16636  12.783   8.435   5.318  0.1227  0.3349  0.3212
35569SOL    HW116637  12.769   8.471   5.406 -0.8433 -1.0392  0.7639
35569SOL    HW216638  12.707   8.465   5.268 -0.5497 -0.8127  0.6195
35570SOL     OW16639   0.431  10.932   8.037  0.5374 -0.3078  0.2117
35570SOL    HW116640   0.403  10.966   7.952 -1.3012 -0.0332  0.8676
35570SOL    HW216641   0.433  11.010   8.094  4.0259 -0.0678 -0.0275
35571SOL     OW16642   0.211   2.177   4.448 -0.1099  0.7536 -0.4627
35571SOL    HW116643   0.132   2.230   4.451  1.1430  2.7135  0.2272
35571SOL    HW216644   0.181   2.088   4.464 -2.0706  1.5541  0.7057
35572SOL     OW16645   6.866   7.694   4.918  0.1022 -0.5451 -0.0554
35572SOL    HW116646   6.829   7.655   4.838 -0.9699 -1.5564  0.9017
35572SOL    HW216647   6.789   7.716   4.971  0.8098  0.1243  0.7060
35573SOL     OW16648   2.760   6.206  10.148 -0.6597 -0.8064  0.2298
35573SOL    HW116649   2.761   6.300  10.130 -0.7445 -0.8037  0.2395
35573SOL    HW216650   2.844   6.175  10.114 -1.2969 -0.9975 -1.2375
35574SOL     OW16651  11.523   9.066  10.476 -0.1594  0.7551  0.4305
35574SOL    HW116652  11.515   9.026  10.389  1.4846 -0.2692  0.7060
35574SOL    HW216653  11.554   9.154  10.459  1.1592  0.2325 -0.0158
35575SOL     OW16654   1.224   4.505   9.266  0.1982 -0.2494  0.0258
35575SOL    HW116655   1.185   4.419   9.274  2.4073 -1.1770  1.9402
35575SOL    HW216656   1.195   4.553   9.344 -1.0934  0.8550 -1.0655
35576SOL     OW16657  11.316  12.557   8.170 -0.2700 -0.3999 -0.0297
35576SOL    HW116658  11.311  12.637   8.222 -2.4818 -0.4785 -0.0191
35576SOL    HW216659  11.392  12.570   8.113  0.5220  0.8862  1.2509
35577SOL     OW16660   1.183   3.708   9.871  0.3403  0.4611  0.2510
35577SOL    HW116661   1.215   3.797   9.883  1.8897 -0.0240 -0.0914
35577SOL    HW216662   1.261   3.653   9.877 -0.6092 -0.8999  0.6451
35578SOL     OW16663   8.970   9.719  11.908  0.2096  0.1699 -0.6592
35578SOL    HW116664   8.936   9.737  11.820  0.5100 -1.6936 -1.1938
35578SOL    HW216665   8.932   9.634  11.932 -0.8021  1.1399  1.5279
35579SOL     OW16666   4.396   2.987   9.004 -0.0715 -0.0567  0.6804
35579SOL    HW116667   4.382   2.910   8.950 -0.0596  1.0682 -0.9791
35579SOL    HW216668   4.337   2.975   9.078  0.7799 -2.2022  1.0990
35580SOL     OW16669   3.052  11.787   9.319 -0.0781 -0.0166 -0.2537
35580SOL    HW116670   3.025  11.774   9.410 -1.0783  0.2936 -0.4982
35580SOL    HW216671   2.986  11.742   9.267  0.8661 -0.7985 -0.8266
35581SOL     OW16672  12.015   8.933   2.709  0.0828  0.3984 -0.1429
35581SOL    HW116673  11.988   8.843   2.692 -0.2996  0.4514  0.1723
35581SOL    HW216674  11.957   8.987   2.655  1.4224  0.3892 -1.6556
35582SOL     OW16675   9.568   7.240   4.637 -0.5175 -0.0201  0.3187
35582SOL    HW116676   9.519   7.159   4.653 -0.4776  0.1404  1.2875
35582SOL    HW216677   9.653   7.211   4.604 -0.9893 -0.3199 -0.7041
35583SOL     OW16678   8.099   7.250   9.705 -0.2936 -0.0694 -0.2659
35583SOL    HW116679   8.126   7.314   9.771 -2.3765  1.1618 -0.5167
35583SOL    HW216680   8.075   7.304   9.629 -0.6079 -1.2843 -1.0475
35584SOL     OW16681   5.378   7.787   4.007 -0.1321 -0.2090  0.4263
35584SOL    HW116682   5.318   7.771   4.079  0.5139 -0.3553  0.9363
35584SOL    HW216683   5.465   7.763   4.041  0.1868 -0.2357 -0.3742
35585SOL     OW16684   5.998  11.421   5.962 -0.2342 -0.6975  0.9038
35585SOL    HW116685   6.066  11.444   5.899  0.3942 -0.3495  1.6944
35585SOL    HW216686   5.916  11.449   5.920  0.3054  0.8877  0.8563
35586SOL     OW16687   3.151   8.830   4.776  0.1626  0.4022  0.1029
35586SOL    HW116688   3.190   8.744   4.793 -0.2047  0.5502  1.8351
35586SOL    HW216689   3.082   8.814   4.713  0.7028 -0.4178 -0.2922
35587SOL     OW16690   5.013   6.445   0.227 -0.5159  0.3847 -0.2166
35587SOL    HW116691   4.961   6.446   0.147  0.6495  0.6784 -0.9882
35587SOL    HW216692   5.064   6.525   0.224 -0.0465  0.1296  0.5502
35588SOL     OW16693  11.086   2.068   3.493 -0.0071  0.1292  0.7286
35588SOL    HW116694  11.085   2.082   3.398 -1.4934 -0.0749  0.6771
35588SOL    HW216695  11.175   2.040   3.513  0.0590 -0.8170 -0.7623
35589SOL     OW16696  12.629  12.978   7.635 -0.4749  0.0358 -0.0017
35589SOL    HW116697  12.666  13.022   7.712 -1.1319  0.6890 -0.0530
35589SOL    HW216698  12.588  13.048   7.585 -1.7840 -0.6691  0.0532
35590SOL     OW16699   3.680   8.195   4.975  0.1366  0.2218  0.5854
35590SOL    HW116700   3.664   8.186   4.881 -1.6679  0.6605  0.8076
35590SOL    HW216701   3.633   8.121   5.014  1.5239 -0.4055  1.1108
35591SOL     OW16702   0.035   3.549  13.046  0.1880 -0.0972  0.1157
35591SOL    HW116703   0.121   3.573  13.011 -0.2430  1.4342  0.0032
35591SOL    HW216704  -0.010   3.507  12.973  0.4098  0.2158 -0.2038
35592SOL     OW16705   3.365   8.263   5.965  0.0281  0.0030  0.5794
35592SOL    HW116706   3.424   8.193   5.993  2.5988  1.3268 -1.2106
35592SOL    HW216707   3.380   8.334   6.029  0.4406  0.3660  0.0847
35593SOL     OW16708   7.069   8.728   7.053  0.3969  0.5136 -0.4398
35593SOL    HW116709   7.160   8.727   7.085  1.1580  0.1724 -2.4708
35593SOL    HW216710   7.016   8.734   7.132  2.2174  1.7561  0.7647
35594SOL     OW16711   4.330  11.368   1.401 -0.6554  0.3809 -0.1888
35594SOL    HW116712   4.238  11.346   1.415 -0.3667 -1.3678 -0.7374
35594SOL    HW216713   4.377  11.320   1.470 -0.0047 -0.5151 -1.2202
35595SOL     OW16714   6.080  11.827  10.208  0.3976 -1.0675  0.1190
35595SOL    HW116715   6.006  11.780  10.171 -0.2132 -0.2768  0.2902
35595SOL    HW216716   6.088  11.905  10.153 -1.0782  0.5769  2.0614
35596SOL     OW16717   4.004   9.974  12.649  0.0847 -0.1127 -0.7391
35596SOL    HW116718   4.073   9.933  12.701 -0.4412 -0.3970 -0.2574
35596SOL    HW216719   4.024  10.068  12.652 -1.5201  0.2829  2.4687
35597SOL     OW16720   1.284   9.525   2.675 -0.3447 -0.4095 -0.1317
35597SOL    HW116721   1.246   9.609   2.703  0.2699 -0.0426 -0.3882
35597SOL    HW216722   1.252   9.462   2.740 -1.1774 -0.0611 -0.1902
35598SOL     OW16723   1.758   8.772   3.913  0.0576  0.0993 -0.2541
35598SOL    HW116724   1.708   8.839   3.866 -0.9499 -0.4692 -0.0358
35598SOL    HW216725   1.696   8.738   3.978  1.0580  0.0425  0.6859
35599SOL     OW16726   6.708  10.502   2.086  0.0299  0.0513 -0.4097
35599SOL    HW116727   6.615  10.483   2.099  0.1348 -0.6148 -0.5799
35599SOL    HW216728   6.739  10.529   2.173 -0.0074 -1.1511  0.0084
35600SOL     OW16729   5.801   4.838  11.827 -0.1985 -0.5710  0.0378
35600SOL    HW116730   5.823   4.769  11.890  2.3656 -0.5383 -0.6778
35600SOL    HW216731   5.875   4.899  11.832 -0.3926 -0.0583 -2.2634
35601SOL     OW16732  10.049   6.113   8.242  0.1417  0.0258 -0.0653
35601SOL    HW116733  10.056   6.191   8.188  0.1381 -1.5829 -2.5472
35601SOL    HW216734  10.124   6.117   8.301  0.3004  1.7389 -0.3410
35602SOL     OW16735   2.710   7.336   2.793  0.6073 -0.0077  0.1648
35602SOL    HW116736   2.642   7.397   2.821  0.0668 -1.7423  3.1138
35602SOL    HW216737   2.665   7.274   2.736 -0.1243 -0.6104  1.3594
35603SOL     OW16738  12.757  10.512   2.399  0.1942 -0.2881 -0.2529
35603SOL    HW116739  12.806  10.463   2.333  0.1078 -0.7898  0.0497
35603SOL    HW216740  12.738  10.448   2.467 -0.1649  0.1015  0.0205
35604SOL     OW16741  12.827   0.500   8.890 -0.3225  0.2028 -0.3532
35604SOL    HW116742  12.765   0.570   8.908 -0.2191 -0.3429  2.5362
35604SOL    HW216743  12.900   0.516   8.949  1.3734 -0.3726 -2.1783
35605SOL     OW16744  11.181   8.673  10.551 -0.5672 -0.3487  0.0366
35605SOL    HW116745  11.201   8.615  10.477 -1.0294  0.2375 -0.5643
35605SOL    HW216746  11.192   8.762  10.516 -1.3511 -0.0541  0.5043
35606SOL     OW16747  10.099  10.938   2.013  0.2002  0.2135 -0.0433
35606SOL    HW116748  10.145  10.863   1.975  0.5486  0.7266 -0.6671
35606SOL    HW216749  10.158  11.012   1.997  0.1163  0.5428  1.0452
35607SOL     OW16750   1.751  10.475   5.209  0.4474  0.2561 -0.1228
35607SOL    HW116751   1.800  10.435   5.281  0.0700 -0.8520 -0.4735
35607SOL    HW216752   1.675  10.515   5.252  0.8175  0.6029  0.2230
35608SOL     OW16753  10.417   0.182   1.428  0.1361 -0.3123  0.0886
35608SOL    HW116754  10.378   0.161   1.343  0.0056  0.9350 -0.1812
35608SOL    HW216755  10.344   0.212   1.482  0.4503  0.4371  0.1139
35609SOL     OW16756   9.177   9.989   6.844  0.6012  0.0993 -0.1187
35609SOL    HW116757   9.099   9.942   6.872  1.2887 -2.0961 -1.6425
35609SOL    HW216758   9.249   9.928   6.859  1.6077  0.8298 -1.6520
35610SOL     OW16759   7.047   9.569   6.233  0.0770 -0.7747  0.0437
35610SOL    HW116760   7.141   9.580   6.248  0.1453 -0.4567 -0.5538
35610SOL    HW216761   7.010   9.657   6.243 -0.2888 -1.0403  1.1000
35611SOL     OW16762   1.808  11.720  12.419  0.2553  0.5589  0.1141
35611SOL    HW116763   1.782  11.779  12.348 -0.3389 -0.8608 -0.8913
35611SOL    HW216764   1.726  11.695  12.461  0.5004  0.3953  0.5037
35612SOL     OW16765   2.925   7.939   7.196 -0.1871  0.3546 -0.4415
35612SOL    HW116766   2.888   7.967   7.113 -1.1355  1.2651  0.2642
35612SOL    HW216767   2.949   7.847   7.182 -2.4037 -0.1981 -1.0557
35613SOL     OW16768   5.084  11.938   0.777 -0.3888 -0.3172  0.5709
35613SOL    HW116769   5.013  11.879   0.803 -1.5957  1.5374  1.6946
35613SOL    HW216770   5.056  12.025   0.807  2.1920  0.5603  0.6800
35614SOL     OW16771   9.469   4.501   8.413  0.3690  0.5215  0.0666
35614SOL    HW116772   9.505   4.517   8.500  0.4898  2.0878 -0.2544
35614SOL    HW216773   9.546   4.480   8.359  0.6113  1.9082 -0.1718
35615SOL     OW16774   3.604  10.476   7.508  0.6138  0.2694  0.0127
35615SOL    HW116775   3.663  10.551   7.513  0.0217  0.6875  1.2566
35615SOL    HW216776   3.662  10.402   7.487  1.0391  1.2081 -2.4165
35616SOL     OW16777   5.877  11.826   4.449 -0.5905  0.0935 -1.2036
35616SOL    HW116778   5.907  11.736   4.443  0.9672  0.6765 -3.1548
35616SOL    HW216779   5.846  11.835   4.540  1.4912 -1.6891 -0.2278
35617SOL     OW16780  11.441  11.514   2.057  0.2807 -0.2672  0.2969
35617SOL    HW116781  11.401  11.465   1.984 -1.0317  0.8309  0.2626
35617SOL    HW216782  11.535  11.502   2.043  0.0314 -2.5570  0.1414
35618SOL     OW16783  12.172  11.739   8.655 -0.3153  0.6257  0.0146
35618SOL    HW116784  12.253  11.756   8.703 -0.1101 -0.5149  0.1021
35618SOL    HW216785  12.107  11.720   8.723 -1.5530  4.5703  0.2022
35619SOL     OW16786   6.586  11.881   1.220 -0.1118  0.1738 -0.9350
35619SOL    HW116787   6.579  11.960   1.167  1.8423  1.5200  0.7094
35619SOL    HW216788   6.509  11.883   1.277  0.0267  0.9712 -0.7781
35620SOL     OW16789   3.972   2.521  12.827 -0.4298  0.3065 -0.3767
35620SOL    HW116790   3.942   2.548  12.740  1.2125 -1.1881 -1.4529
35620SOL    HW216791   3.971   2.426  12.825 -0.2293  0.2379  1.2111
35621SOL     OW16792   4.773   1.749   0.351  0.1371  0.7057 -0.7252
35621SOL    HW116793   4.821   1.670   0.328  0.2796  0.8456 -0.9083
35621SOL    HW216794   4.806   1.816   0.291 -0.8444  0.6219 -1.3878
35622SOL     OW16795   5.596   7.029   1.052 -0.2185 -0.4589 -0.0585
35622SOL    HW116796   5.691   7.036   1.063 -0.2217 -0.7282  0.1811
35622SOL    HW216797   5.583   7.022   0.958  0.0524 -1.0412 -0.0600
35623SOL     OW16798  11.056   6.655   6.654 -0.2983 -0.2412  0.4441
35623SOL    HW116799  10.973   6.669   6.701 -0.0393  2.0245  0.3519
35623SOL    HW216800  11.116   6.717   6.695  1.0735 -1.1130 -0.2034
35624SOL     OW16801  12.594   5.002   5.031 -0.7032 -0.0724  0.7684
35624SOL    HW116802  12.542   4.939   5.081 -1.7334 -0.3996 -0.6684
35624SOL    HW216803  12.546   5.085   5.040 -1.2050 -0.2554 -0.1132
35625SOL     OW16804   9.504   6.339   0.882  0.0497  0.4188 -0.4428
35625SOL    HW116805   9.523   6.245   0.889  1.1466  0.7321  1.6862
35625SOL    HW216806   9.589   6.382   0.893 -0.6875  1.6994  0.5247
35626SOL     OW16807   1.581   8.033   3.204 -0.2918 -0.5406  0.0595
35626SOL    HW116808   1.597   7.940   3.220  0.4836 -0.2720  0.9642
35626SOL    HW216809   1.665   8.068   3.175 -1.2217 -0.6243 -3.1135
35627SOL     OW16810  10.483   5.256  12.504  0.9584 -0.0386  0.1649
35627SOL    HW116811  10.424   5.332  12.510  1.6779  0.5427  0.0822
35627SOL    HW216812  10.561   5.291  12.462  1.5123 -0.7080  0.6323
35628SOL     OW16813   8.934   8.819   1.774  0.6023 -0.4629 -0.3020
35628SOL    HW116814   8.893   8.886   1.718 -0.4043  0.5193  1.5224
35628SOL    HW216815   8.987   8.767   1.714 -2.3963 -1.0977 -2.6416
35629SOL     OW16816   8.214  11.261   2.744  0.3690 -0.9866 -0.5162
35629SOL    HW116817   8.192  11.344   2.702 -3.3994 -2.0676 -1.1107
35629SOL    HW216818   8.225  11.200   2.671 -1.9658 -1.9673 -0.1518
35630SOL     OW16819   0.913  10.692   8.076  0.0034 -0.4592  0.5007
35630SOL    HW116820   0.835  10.733   8.040 -0.8301 -0.0774  2.5882
35630SOL    HW216821   0.879  10.625   8.136  1.1307  1.1186  3.0969
35631SOL     OW16822   8.242   5.129  10.237 -0.1042 -0.0135  0.7477
35631SOL    HW116823   8.154   5.143  10.272 -0.7441 -0.2730 -0.6631
35631SOL    HW216824   8.271   5.215  10.208 -1.0300 -0.3136 -1.2314
35632SOL     OW16825   9.268   2.592  12.649  0.2723  0.3543 -0.5284
35632SOL    HW116826   9.317   2.537  12.710 -2.5361 -0.2839  1.3006
35632SOL    HW216827   9.184   2.608  12.692 -1.2332  1.2839 -3.5239
35633SOL     OW16828  11.796  12.603   3.010 -0.5154  0.2615  0.0984
35633SOL    HW116829  11.783  12.608   2.915  2.9933  2.3659 -0.4686
35633SOL    HW216830  11.728  12.660   3.047  0.6511  2.9548 -1.6194
35634SOL     OW16831   2.154   3.784   4.619  0.0258 -0.3406 -0.0381
35634SOL    HW116832   2.135   3.694   4.645  0.5945 -0.3209  0.4457
35634SOL    HW216833   2.104   3.837   4.680 -0.6827 -0.3246 -0.6156
35635SOL     OW16834   8.901   0.266  12.456 -0.1202 -0.1388 -0.5672
35635SOL    HW116835   8.993   0.280  12.436 -0.3877  0.3801 -1.5233
35635SOL    HW216836   8.883   0.177  12.425  0.3408 -0.7234  0.7686
35636SOL     OW16837   2.451   5.684   8.156 -0.0243  0.0307 -0.0067
35636SOL    HW116838   2.532   5.687   8.106  1.0524  1.4026  1.6949
35636SOL    HW216839   2.457   5.603   8.207  0.7462  0.5650  0.7855
35637SOL     OW16840  11.281   6.959   2.203 -0.3993 -0.0895  0.2229
35637SOL    HW116841  11.280   6.873   2.162  1.6347 -0.1386  0.2120
35637SOL    HW216842  11.325   7.016   2.140 -0.9710  0.7857  0.5838
35638SOL     OW16843   5.379  10.452   5.939  0.5952 -0.1316 -0.3683
35638SOL    HW116844   5.454  10.437   5.882  1.0506 -1.4975  0.5481
35638SOL    HW216845   5.375  10.374   5.995 -1.0680  0.2435  0.0865
35639SOL     OW16846   2.659   3.438   9.301 -0.3516  0.5547  0.1410
35639SOL    HW116847   2.749   3.427   9.332 -1.0387  0.2493  2.2069
35639SOL    HW216848   2.639   3.357   9.255  0.0546  0.0977  0.7510
35640SOL     OW16849   6.287   0.325   7.617  0.6023  0.0383 -0.1645
35640SOL    HW116850   6.241   0.407   7.638 -2.6747 -1.2212 -1.7393
35640SOL    HW216851   6.327   0.342   7.532 -1.2624 -0.3314 -1.1685
35641SOL     OW16852  13.192   2.521   6.777  0.3328 -0.2958 -0.0327
35641SOL    HW116853  13.119   2.563   6.731  0.0955  1.4989  1.8197
35641SOL    HW216854  13.257   2.504   6.709 -1.0575 -0.2570 -1.4288
35642SOL     OW16855   0.438   6.807   4.839  0.2684  0.1293 -0.4337
35642SOL    HW116856   0.404   6.727   4.801  1.5609 -0.7367  0.1410
35642SOL    HW216857   0.517   6.779   4.885 -1.2321  1.0575  2.9914
35643SOL     OW16858   9.359   1.259   5.532  0.0236 -0.4338  0.4529
35643SOL    HW116859   9.378   1.165   5.523  0.0183 -0.7339  3.0521
35643SOL    HW216860   9.442   1.298   5.559 -0.3411  0.0770  0.8486
35644SOL     OW16861   3.108  11.947   9.116  0.2825 -0.3029  0.8255
35644SOL    HW116862   3.047  12.021   9.110  0.4449 -0.2702 -0.7707
35644SOL    HW216863   3.080  11.901   9.195 -1.5416 -0.0233  0.4075
35645SOL     OW16864  11.307  12.594   8.731  0.5188 -0.1935 -0.5983
35645SOL    HW116865  11.287  12.578   8.823  1.0050 -1.1114 -0.6484
35645SOL    HW216866  11.402  12.595   8.726  0.4995 -0.2254 -1.1031
35646SOL     OW16867   5.512   0.433   0.063 -0.5172 -0.2125  0.3749
35646SOL    HW116868   5.559   0.393  -0.010 -0.4659 -0.1054  0.3487
35646SOL    HW216869   5.476   0.514   0.028 -0.1087  0.0683  0.5846
35647SOL     OW16870  12.713   4.978   0.725  0.1979  0.0722  0.2278
35647SOL    HW116871  12.633   5.008   0.768  1.4632  1.0391  2.0285
35647SOL    HW216872  12.713   4.883   0.740 -0.5573  0.0729  0.2846
35648SOL     OW16873  11.628  11.205  12.975 -0.1812  0.0500 -0.1273
35648SOL    HW116874  11.641  11.145  13.048  0.1285  0.0198 -0.2028
35648SOL    HW216875  11.635  11.292  13.015  1.4810  0.0513 -0.3427
35649SOL     OW16876   0.115   6.646   8.014 -0.2531 -0.2943 -0.7173
35649SOL    HW116877   0.187   6.634   7.952  0.3490 -2.1839  0.2597
35649SOL    HW216878   0.124   6.573   8.076 -3.3664 -1.0400 -0.9375
35650SOL     OW16879  13.096  12.800   4.969  0.1267 -0.0742  0.2224
35650SOL    HW116880  13.035  12.803   4.895  0.1811 -0.7548  0.1434
35650SOL    HW216881  13.182  12.819   4.929  0.2333 -0.9626  0.0162
35651SOL     OW16882   3.237  12.562   3.766  0.2939  0.2328 -0.3285
35651SOL    HW116883   3.322  12.606   3.771 -0.1119  0.9117  0.6582
35651SOL    HW216884   3.251  12.494   3.700  1.4904  0.5831 -0.4752
35652SOL     OW16885   4.867   1.313   5.832  0.0993 -0.5949 -0.2660
35652SOL    HW116886   4.857   1.356   5.917 -1.2690 -0.5624 -0.4166
35652SOL    HW216887   4.838   1.378   5.768  0.9045 -0.6960 -0.7507
35653SOL     OW16888   2.485  12.671  12.504 -0.5818 -0.0435 -0.8115
35653SOL    HW116889   2.436  12.637  12.579 -0.4017 -0.2181 -0.7714
35653SOL    HW216890   2.572  12.691  12.539 -0.4142 -0.3708 -1.0258
35654SOL     OW16891  10.816   1.886   1.244 -0.2974 -0.6950  0.3013
35654SOL    HW116892  10.865   1.909   1.165 -1.8289 -0.9120 -0.7621
35654SOL    HW216893  10.773   1.803   1.222  0.6763 -1.7249  2.0405
35655SOL     OW16894   3.255   0.358   9.655  0.0403  0.4628  0.1788
35655SOL    HW116895   3.311   0.387   9.584  1.7087  0.0861  1.2874
35655SOL    HW216896   3.312   0.356   9.732 -1.6656  0.7875  1.5386
35656SOL     OW16897  12.803   9.828   1.761 -0.8785  0.3598 -0.1927
35656SOL    HW116898  12.853   9.798   1.837  0.4156 -0.4468 -1.3127
35656SOL    HW216899  12.817   9.923   1.760  1.5199  0.0774 -1.0040
35657SOL     OW16900   3.917  11.969   8.708  0.8475 -0.0690  0.3418
35657SOL    HW116901   3.969  12.026   8.652  1.3321 -0.4818  0.3573
35657SOL    HW216902   3.828  12.004   8.703  0.9388  0.0680 -0.4616
35658SOL     OW16903   0.937   5.293   1.245 -0.0795  0.1012  0.3870
35658SOL    HW116904   1.032   5.282   1.253 -0.2069 -1.0028  0.4853
35658SOL    HW216905   0.924   5.388   1.247  1.3924  0.5969 -3.7744
35659SOL     OW16906  10.674   0.978  10.378 -0.6192 -0.7554  0.6052
35659SOL    HW116907  10.746   1.040  10.370 -0.2196 -1.1508  1.0589
35659SOL    HW216908  10.600   1.030  10.410 -0.8140 -0.1635 -0.7390
35660SOL     OW16909   9.710   5.459   4.190  0.2426  0.1202 -0.1815
35660SOL    HW116910   9.771   5.533   4.194  1.2594 -0.7283  0.4800
35660SOL    HW216911   9.629   5.497   4.155  0.6610  1.5874  0.3613
35661SOL     OW16912   1.083   9.472  10.244 -0.0237 -0.4769  0.1130
35661SOL    HW116913   1.087   9.444  10.336 -1.6905 -0.8919  0.0978
35661SOL    HW216914   1.029   9.551  10.246 -1.2212 -1.2481 -0.6464
35662SOL     OW16915  12.291  10.419   9.275 -0.6205 -0.1850  0.3447
35662SOL    HW116916  12.338  10.492   9.316 -1.2472  1.1988 -1.3165
35662SOL    HW216917  12.272  10.360   9.348  2.3345 -0.1155  1.3333
35663SOL     OW16918   2.735  12.633  11.847  0.3050 -0.4201 -0.4950
35663SOL    HW116919   2.795  12.708  11.844  2.5039 -2.0726 -3.4457
35663SOL    HW216920   2.793  12.558  11.863 -1.5524 -1.7116  0.4268
35664SOL     OW16921   4.503   2.240  12.011  0.5007 -0.2948 -0.1670
35664SOL    HW116922   4.517   2.167  11.951  0.2473  0.1476 -0.7691
35664SOL    HW216923   4.554   2.217  12.089  0.7430 -0.9228 -0.5079
35665SOL     OW16924   0.985   2.846   7.934  0.3321  0.1540  0.3752
35665SOL    HW116925   1.041   2.880   7.864 -1.6982  1.9119 -0.5410
35665SOL    HW216926   1.024   2.878   8.015  0.3645  1.8605 -0.2781
35666SOL     OW16927   5.969   2.828   1.206 -0.1795 -0.1265 -0.3524
35666SOL    HW116928   6.004   2.909   1.170 -1.0276  0.5281  0.2256
35666SOL    HW216929   5.948   2.774   1.130 -1.5549  1.0577 -0.8729
35667SOL     OW16930   3.904   1.506   0.009  0.5957  0.1483  0.0991
35667SOL    HW116931   3.917   1.600   0.001  0.7130  0.1343  0.1226
35667SOL    HW216932   3.819   1.489  -0.032 -0.0009  0.4379  1.1895
35668SOL     OW16933   0.512  11.770   2.034 -0.0715  0.2303 -0.2986
35668SOL    HW116934   0.539  11.774   2.126 -0.7190  0.1775 -0.1020
35668SOL    HW216935   0.523  11.859   2.002 -3.6322  1.2898  0.9434
35669SOL     OW16936  12.557   9.617   1.303 -0.1713 -0.2611  0.4169
35669SOL    HW116937  12.565   9.582   1.392  0.1624 -0.1846  0.4158
35669SOL    HW216938  12.486   9.681   1.309 -0.5638 -0.6977  0.4907
35670SOL     OW16939   6.548   6.496   2.384 -0.2791  0.2966  0.3364
35670SOL    HW116940   6.586   6.563   2.327 -1.2692  2.1474  1.7327
35670SOL    HW216941   6.453   6.510   2.377 -0.4884 -0.7298  0.9295
35671SOL     OW16942   6.924   0.314   5.476  0.2617 -0.4210  0.3491
35671SOL    HW116943   6.854   0.282   5.418 -0.2985 -3.2501  2.3572
35671SOL    HW216944   7.004   0.296   5.427 -0.2318 -1.9828  0.0292
35672SOL     OW16945  12.272   9.338   7.251  0.1796 -0.3456  0.0158
35672SOL    HW116946  12.177   9.347   7.244 -0.1924 -1.6051  2.3840
35672SOL    HW216947  12.301   9.421   7.287 -0.3112 -0.6408  1.1342
35673SOL     OW16948   8.690   8.312   6.100 -0.2774 -0.5070 -0.0843
35673SOL    HW116949   8.651   8.260   6.171 -2.7329  0.1417 -0.8672
35673SOL    HW216950   8.680   8.258   6.022  2.3621 -1.1917 -0.0374
35674SOL     OW16951   6.853   0.612   5.836 -0.2966  0.3130 -0.3839
35674SOL    HW116952   6.773   0.650   5.872 -1.1290 -0.8874 -0.8992
35674SOL    HW216953   6.911   0.687   5.821 -1.1782  1.1633  0.3368
35675SOL     OW16954   1.689   9.790   0.027  0.3517 -0.1463  0.2587
35675SOL    HW116955   1.635   9.793  -0.052  2.1777 -1.2894 -1.1243
35675SOL    HW216956   1.753   9.860   0.014  0.1633  0.2166  1.1693
35676SOL     OW16957  13.301   6.899  11.024  0.4745  0.2849 -0.0986
35676SOL    HW116958  13.249   6.866  11.098 -1.6142 -2.0832 -2.4184
35676SOL    HW216959  13.377   6.842  11.021  1.4132  1.4133  1.0994
35677SOL     OW16960   6.640  12.941   5.813  0.1290  0.5901 -0.1637
35677SOL    HW116961   6.556  12.972   5.779 -1.0914 -0.7210  1.4542
35677SOL    HW216962   6.643  12.973   5.903  0.9129 -0.1623  0.0917
35678SOL     OW16963   6.774   9.951   1.114 -0.4918 -0.2846 -0.0135
35678SOL    HW116964   6.717   9.874   1.123  1.6995 -1.8934  0.8260
35678SOL    HW216965   6.773   9.991   1.200  0.8173 -1.2251  0.4666
35679SOL     OW16966   0.772   2.919   3.765  0.1688  0.7089  0.0321
35679SOL    HW116967   0.810   2.866   3.835  1.5669  3.2612  1.3574
35679SOL    HW216968   0.678   2.919   3.784  0.0171 -1.7203 -0.4029
35680SOL     OW16969   3.100  12.076  10.544  0.1937  0.3966 -0.3118
35680SOL    HW116970   3.156  12.153  10.555 -0.3930  0.7953 -0.0581
35680SOL    HW216971   3.142  12.026  10.474  1.9814 -0.3375  1.1870
35681SOL     OW16972   1.906   7.580  12.795  0.1041  0.0054 -0.0664
35681SOL    HW116973   1.971   7.645  12.769 -0.5647  0.0667 -1.7671
35681SOL    HW216974   1.880   7.605  12.883  0.9314  1.1640 -0.1320
35682SOL     OW16975   4.192   0.159   6.036  0.0941 -0.4139 -0.1428
35682SOL    HW116976   4.129   0.166   6.108  0.7956 -2.1327  0.7137
35682SOL    HW216977   4.190   0.244   5.993 -2.5109 -0.2962  0.0965
35683SOL     OW16978   9.212   7.373   0.401 -0.0068 -0.4040 -0.0341
35683SOL    HW116979   9.176   7.389   0.488  0.2546  0.2796 -0.0387
35683SOL    HW216980   9.157   7.304   0.364 -2.3706  1.6752 -0.6695
35684SOL     OW16981   3.869  10.694   4.562  0.2765 -0.2936 -0.6690
35684SOL    HW116982   3.785  10.675   4.521 -0.7034  0.0289  1.0726
35684SOL    HW216983   3.896  10.610   4.600 -0.2355  0.0213  0.4228
35685SOL     OW16984   8.653   6.796   2.034 -0.4605  0.2612  0.2359
35685SOL    HW116985   8.576   6.854   2.039 -1.7285 -0.9792 -2.7489
35685SOL    HW216986   8.658   6.756   2.121 -3.7026 -0.1752  0.3440
35686SOL     OW16987   0.681   0.773   2.184 -0.0066 -0.4690  0.7350
35686SOL    HW116988   0.760   0.823   2.202  0.4046 -0.6320 -0.5614
35686SOL    HW216989   0.612   0.819   2.233  0.2410  1.6988 -0.8175
35687SOL     OW16990   4.699   8.153   6.259 -0.1767  0.2779 -0.5543
35687SOL    HW116991   4.653   8.237   6.268  1.3940  1.0475  0.7877
35687SOL    HW216992   4.774   8.174   6.203 -0.5878 -0.6296 -1.4900
35688SOL     OW16993  11.603   2.094  12.622  0.4260  0.2113  0.5746
35688SOL    HW116994  11.573   2.010  12.588  1.4049  1.1567 -3.0026
35688SOL    HW216995  11.531   2.155  12.604  1.1099  0.8089 -0.2154
35689SOL     OW16996   0.231  10.507   6.297 -0.5222 -0.6558  0.5995
35689SOL    HW116997   0.148  10.494   6.343 -0.9794 -0.3231 -0.1215
35689SOL    HW216998   0.221  10.591   6.252  0.1444 -0.6916  0.3718
35690SOL     OW16999   1.998   2.119   3.214 -0.0947  0.2856  1.0678
35690SOL    HW117000   1.978   2.076   3.131  0.0697 -0.4183  1.3835
35690SOL    HW217001   2.054   2.193   3.190  0.6391 -0.3949  0.6295
35691SOL     OW17002   4.662   5.992   8.177  0.4041  0.2384  0.0516
35691SOL    HW117003   4.645   5.998   8.271 -1.3846 -0.9792 -0.1535
35691SOL    HW217004   4.694   5.902   8.164  0.5459  0.3672 -0.5237
35692SOL     OW17005   6.661  11.613  13.151 -0.2560  0.1400  0.0080
35692SOL    HW117006   6.756  11.600  13.158 -0.1510 -2.1960 -3.3839
35692SOL    HW217007   6.625  11.525  13.152 -2.3552  0.9609  0.5025
35693SOL     OW17008  12.532   0.110   0.001  0.0773 -0.8615  0.4405
35693SOL    HW117009  12.561   0.139   0.087  0.6263  0.0223 -0.0214
35693SOL    HW217010  12.521   0.191  -0.049  1.5338 -1.4020 -0.8665
35694SOL     OW17011  13.073   2.401   1.289  0.1640 -0.4688  0.6299
35694SOL    HW117012  13.057   2.491   1.317 -0.3810 -0.4755  0.3417
35694SOL    HW217013  12.990   2.370   1.254  0.6009 -0.7488 -0.2112
35695SOL     OW17014   9.175   0.437   3.706  0.4259 -0.1895 -0.1640
35695SOL    HW117015   9.243   0.409   3.766 -0.2275 -1.4625  0.0197
35695SOL    HW217016   9.094   0.400   3.741 -0.0840 -0.3102 -1.3899
35696SOL     OW17017  11.562   9.615  12.708 -0.1537 -0.6803 -0.3600
35696SOL    HW117018  11.522   9.535  12.741 -0.3106 -1.0313 -1.3763
35696SOL    HW217019  11.540   9.616  12.615  1.0663 -0.1953 -0.6572
35697SOL     OW17020   4.197   8.033  12.767 -0.5396  0.4983  0.3766
35697SOL    HW117021   4.170   7.952  12.811  0.8559 -0.0381  0.3006
35697SOL    HW217022   4.282   8.053  12.806 -0.1066  1.0136 -0.8034
35698SOL     OW17023  10.412   8.441   0.783 -0.2099 -0.5480  0.2470
35698SOL    HW117024  10.395   8.474   0.695 -1.0041 -1.2752  0.1116
35698SOL    HW217025  10.417   8.520   0.838 -0.7329 -0.1341 -0.2820
35699SOL     OW17026   1.574   2.960   3.131 -0.3221 -0.9366 -0.7634
35699SOL    HW117027   1.648   3.013   3.102  0.9346 -0.5060  2.7531
35699SOL    HW217028   1.531   2.933   3.050  0.8489  2.7468 -2.8484
35700SOL     OW17029   1.477   5.582   1.821 -0.4281  0.2257  0.4977
35700SOL    HW117030   1.460   5.524   1.895 -1.6519 -0.8940 -0.6159
35700SOL    HW217031   1.516   5.525   1.754 -0.6260  0.9168 -0.2197
35701SOL     OW17032   6.636   1.650  12.452  0.1348  0.3985  0.0195
35701SOL    HW117033   6.545   1.621  12.440 -0.3191  0.6828  2.2951
35701SOL    HW217034   6.629   1.739  12.486  1.1679  0.0154  1.3537
35702SOL     OW17035  11.495  12.795   4.947 -0.4270  0.1634 -0.3061
35702SOL    HW117036  11.521  12.848   4.872 -0.4360 -0.9469 -1.1176
35702SOL    HW217037  11.415  12.750   4.918 -0.0173 -0.8547  0.0707
35703SOL     OW17038   6.506  11.208   9.513  0.0024 -0.0409 -0.0295
35703SOL    HW117039   6.537  11.118   9.520  0.1122  0.0526  0.7214
35703SOL    HW217040   6.518  11.230   9.421  0.8023 -0.4984 -0.0410
35704SOL     OW17041   1.160  10.903   5.512  0.0196 -0.2270  0.0685
35704SOL    HW117042   1.152  10.894   5.417  0.5067  0.1485 -0.0171
35704SOL    HW217043   1.163  10.813   5.545 -0.9108 -0.3622 -0.1957
35705SOL     OW17044   6.983  10.735   1.933  0.4978  0.2911  0.2106
35705SOL    HW117045   6.987  10.766   1.843 -1.0301  0.9238  0.3228
35705SOL    HW217046   7.008  10.812   1.985 -4.6000  2.1275  0.5652
35706SOL     OW17047   5.065   9.100   2.016  0.0387 -0.2727  0.0922
35706SOL    HW117048   5.094   9.190   2.001  1.9929 -0.8063  0.3937
35706SOL    HW217049   5.133   9.046   1.977 -1.3595 -1.6571 -0.5418
35707SOL     OW17050  13.110   0.550   5.374  0.4949  0.7414  0.4965
35707SOL    HW117051  13.019   0.582   5.378  0.2395  0.0161  0.6381
35707SOL    HW217052  13.116   0.507   5.289 -0.0452 -1.3665  1.4568
35708SOL     OW17053   4.292   9.546   5.474 -0.1367 -0.2041 -0.3562
35708SOL    HW117054   4.386   9.551   5.489 -0.2272 -0.7316  0.4209
35708SOL    HW217055   4.280   9.465   5.424 -0.0165  0.7177 -1.9759
35709SOL     OW17056   1.216   4.115   4.445  0.0007  0.0003 -0.2047
35709SOL    HW117057   1.184   4.093   4.358 -1.2181 -1.9206  0.6685
35709SOL    HW217058   1.311   4.108   4.439 -0.0776 -0.1492 -1.3600
35710SOL     OW17059   4.509   7.333   7.543  0.3905 -0.0033  0.2852
35710SOL    HW117060   4.537   7.397   7.608  1.4003 -1.1944  1.0512
35710SOL    HW217061   4.586   7.319   7.488 -0.0152 -0.1035 -0.2687
35711SOL     OW17062   6.581  12.912  10.467 -0.2109  0.6128  0.7167
35711SOL    HW117063   6.494  12.881  10.492 -0.0687 -0.8980 -0.5303
35711SOL    HW217064   6.636  12.834  10.471  0.7180  1.2050 -0.1602
35712SOL     OW17065   7.801  11.404   3.660 -0.6728 -0.1586  0.5559
35712SOL    HW117066   7.839  11.482   3.622 -1.1186 -0.3159 -0.2346
35712SOL    HW217067   7.716  11.432   3.695 -0.9063 -0.3098  0.1262
35713SOL     OW17068   6.644   4.078   0.584 -0.0352 -0.0343  0.4461
35713SOL    HW117069   6.606   4.150   0.634 -1.6580  0.5831 -1.5681
35713SOL    HW217070   6.720   4.117   0.540 -0.6717  0.3727 -0.3161
35714SOL     OW17071  11.488   5.412  10.349  0.7826 -0.2762 -0.4111
35714SOL    HW117072  11.458   5.503  10.349 -0.5852 -0.6694  1.4123
35714SOL    HW217073  11.581   5.418  10.371  0.5679  0.6695  0.3320
35715SOL     OW17074  11.037  12.865   0.553  0.4264 -0.9660 -0.2221
35715SOL    HW117075  11.099  12.937   0.565  0.6643 -1.2221  0.1169
35715SOL    HW217076  10.988  12.888   0.475  0.8787 -0.7059 -0.4314
35716SOL     OW17077  12.980   7.821  10.807 -0.1364  0.0553 -0.0675
35716SOL    HW117078  12.967   7.806  10.713  2.6428  0.0953 -0.5252
35716SOL    HW217079  13.000   7.735  10.842 -2.1889 -0.1490  0.7715
35717SOL     OW17080   4.433   3.914   1.331  0.1622 -0.4010 -0.3512
35717SOL    HW117081   4.461   3.933   1.420 -0.7375 -1.9563  0.3050
35717SOL    HW217082   4.481   3.976   1.277  0.0903  1.1429  1.2842
35718SOL     OW17083   6.362   4.026   0.475 -0.2111 -0.5451  0.4905
35718SOL    HW117084   6.457   4.040   0.482 -0.0427 -1.8443  1.1558
35718SOL    HW217085   6.353   3.939   0.437 -1.1752  0.0775 -0.8051
35719SOL     OW17086   3.668   0.191   6.293  0.7044 -0.7366 -0.3450
35719SOL    HW117087   3.701   0.276   6.321  0.6921 -0.5919 -0.7604
35719SOL    HW217088   3.615   0.160   6.366  2.1413 -1.1952  0.5528
35720SOL     OW17089   8.249   4.352   9.951 -0.1784 -0.3337 -0.2135
35720SOL    HW117090   8.230   4.262   9.976 -0.2569  0.2209  1.9270
35720SOL    HW217091   8.278   4.394  10.032  1.3541  1.1924 -1.4686
35721SOL     OW17092   7.834   0.878   0.715  0.0353 -0.3558 -0.1272
35721SOL    HW117093   7.919   0.920   0.732  0.3377 -1.3802  0.9564
35721SOL    HW217094   7.787   0.884   0.798 -0.3065 -1.2489 -0.2478
35722SOL     OW17095   0.120   0.049   4.737  0.0769  0.0945  0.6520
35722SOL    HW117096   0.202   0.001   4.739 -0.6236 -1.1024  1.6004
35722SOL    HW217097   0.108   0.082   4.826  0.2714  1.6143  0.1550
35723SOL     OW17098   3.565   1.321   2.098  0.4315  0.2661 -0.6314
35723SOL    HW117099   3.591   1.395   2.044 -0.0962  1.7917  1.0917
35723SOL    HW217100   3.470   1.320   2.094  0.2543  1.5436  1.5705
35724SOL     OW17101   4.253   1.834   3.449  0.1517 -0.0419 -0.5514
35724SOL    HW117102   4.291   1.763   3.396 -0.6125  0.3951 -1.7370
35724SOL    HW217103   4.272   1.914   3.398  1.9696  0.7863  1.2856
35725SOL     OW17104   3.324   3.991   2.808  0.3780 -0.3472  0.1322
35725SOL    HW117105   3.234   3.978   2.838  0.3219  0.0437  0.1444
35725SOL    HW217106   3.367   4.036   2.881  0.8895 -1.5216  0.5744
35726SOL     OW17107   0.172   4.071   4.874  0.4043 -0.2946 -0.3363
35726SOL    HW117108   0.230   4.141   4.904  0.0802  0.4154 -1.2999
35726SOL    HW217109   0.209   4.043   4.790  0.6378 -1.4245  0.1229
35727SOL     OW17110   3.159   7.765   9.051  0.0528  0.1053  0.6582
35727SOL    HW117111   3.068   7.764   9.021 -0.0009  0.8751  0.7802
35727SOL    HW217112   3.164   7.841   9.110  1.0073  0.6608 -0.1141
35728SOL     OW17113   8.122   9.230   6.821 -0.2890 -0.5439 -0.2282
35728SOL    HW117114   8.053   9.172   6.855 -0.7905  0.4333  0.4841
35728SOL    HW217115   8.178   9.248   6.897 -0.2857  0.0939 -0.3764
35729SOL     OW17116  10.920   2.886   3.775  0.3701  0.0175 -0.5435
35729SOL    HW117117  10.913   2.941   3.854 -0.5548 -0.1942 -0.4655
35729SOL    HW217118  11.002   2.838   3.787 -0.0733 -0.4832  0.5997
35730SOL     OW17119   1.567   4.214   1.090  0.1629  0.5443  0.4129
35730SOL    HW117120   1.544   4.130   1.131 -0.8340  1.1541  1.1794
35730SOL    HW217121   1.502   4.275   1.125 -0.1522  1.3027 -1.4070
35731SOL     OW17122   0.364   4.692  10.324 -0.6283  0.2149 -0.3048
35731SOL    HW117123   0.316   4.693  10.241 -1.9668 -1.6231  0.3817
35731SOL    HW217124   0.328   4.766  10.373 -0.1574  1.0314 -1.1577
35732SOL     OW17125   2.990   2.377  13.004 -0.3754 -0.4652  0.1038
35732SOL    HW117126   3.027   2.329  13.078  0.6264  1.0098  0.6012
35732SOL    HW217127   3.034   2.462  13.006 -1.2082  0.0389 -1.4765
35733SOL     OW17128   5.480  10.045   6.341 -0.0071  0.0714 -0.1570
35733SOL    HW117129   5.515  10.129   6.371  0.6867  0.1125 -1.0230
35733SOL    HW217130   5.439  10.065   6.257  0.8310 -0.5825 -0.7340
35734SOL     OW17131  10.735   8.805   7.444 -0.1776 -0.1154 -0.3095
35734SOL    HW117132  10.799   8.849   7.501 -0.6386  0.8000 -0.4699
35734SOL    HW217133  10.718   8.869   7.375  1.4250 -1.7005 -2.3265
35735SOL     OW17134   4.763  10.613   8.636 -0.1926  0.5666 -0.0040
35735SOL    HW117135   4.678  10.648   8.665  1.1299  3.9318  0.1868
35735SOL    HW217136   4.783  10.662   8.557  0.3598 -2.2506 -1.7499
35736SOL     OW17137   6.320   6.098   1.130 -0.3781  0.2489 -0.8615
35736SOL    HW117138   6.372   6.111   1.209  0.0723 -0.9278 -0.9381
35736SOL    HW217139   6.260   6.027   1.152 -0.5531  0.2114 -1.4405
35737SOL     OW17140  12.737  12.967   8.685  0.3201  0.4262 -0.0468
35737SOL    HW117141  12.698  13.049   8.715  0.5327  0.3562  0.4457
35737SOL    HW217142  12.670  12.901   8.701  0.5841  0.3250  0.6845
35738SOL     OW17143   4.610   2.016   7.702 -0.1525 -0.8309  0.4003
35738SOL    HW117144   4.695   2.031   7.741 -0.0732  0.2585 -0.1646
35738SOL    HW217145   4.622   1.937   7.649  0.6936 -0.3268 -0.1867
35739SOL     OW17146   4.717   7.892   6.115 -0.1177 -0.1703 -0.9062
35739SOL    HW117147   4.707   7.985   6.132  2.4925 -0.0050  0.1889
35739SOL    HW217148   4.687   7.850   6.196  1.7147 -0.0133 -0.0733
35740SOL     OW17149   8.942   4.233   4.028 -0.3218 -0.3437 -0.1239
35740SOL    HW117150   8.987   4.154   4.000  0.8704  0.7985 -1.6584
35740SOL    HW217151   9.012   4.297   4.042 -1.2676  0.5371  0.7345
35741SOL     OW17152   5.847   9.544  12.262 -0.5067  0.3948 -0.3534
35741SOL    HW117153   5.939   9.548  12.288 -0.6520 -1.3717  0.5659
35741SOL    HW217154   5.798   9.567  12.341 -0.8747  1.5032 -0.8850
35742SOL     OW17155   7.081   7.087   4.892 -0.3194 -0.4525 -0.2125
35742SOL    HW117156   7.139   7.138   4.948 -0.8349 -1.6077  1.4293
35742SOL    HW217157   7.054   7.012   4.945 -2.7576 -0.3508 -1.1451
35743SOL     OW17158   7.400  11.231   7.447 -0.0043  0.2301  0.0277
35743SOL    HW117159   7.479  11.205   7.494 -2.0169 -2.3576  2.2991
35743SOL    HW217160   7.383  11.159   7.387 -0.3303  1.0669 -0.9156
35744SOL     OW17161  12.852   7.553  13.150 -0.0968  0.0148  0.2040
35744SOL    HW117162  12.854   7.529  13.243 -1.4269 -0.0061  0.2510
35744SOL    HW217163  12.944   7.564  13.126  0.3214 -0.8938  1.2857
35745SOL     OW17164   7.644  10.624   3.486 -0.3620 -0.4056 -0.0611
35745SOL    HW117165   7.567  10.680   3.493 -0.5676 -0.7790  0.6749
35745SOL    HW217166   7.718  10.685   3.494 -0.5790 -0.1670  0.1512
35746SOL     OW17167   9.887   7.513  10.463 -0.0001  0.1441 -0.1994
35746SOL    HW117168   9.978   7.490  10.444  0.4145  0.2470  1.4931
35746SOL    HW217169   9.885   7.528  10.558 -1.9203 -0.4986 -0.0888
35747SOL     OW17170   0.793   4.958   6.367 -0.4825  0.1450 -0.2039
35747SOL    HW117171   0.785   4.938   6.460 -2.4131  1.4237 -0.0494
35747SOL    HW217172   0.809   4.873   6.325 -0.6348 -0.5834  1.1723
35748SOL     OW17173  12.695  10.747   7.515 -0.1420 -0.4467 -0.1761
35748SOL    HW117174  12.670  10.805   7.443  0.8479 -0.8001 -0.8263
35748SOL    HW217175  12.613  10.704   7.541 -0.5650 -0.1015 -0.9032
35749SOL     OW17176   3.123   9.871   4.418 -1.0029 -0.6040  0.6813
35749SOL    HW117177   3.091   9.942   4.473  0.4894  0.2495  0.4712
35749SOL    HW217178   3.187   9.825   4.472 -0.8891 -0.8968  0.3070
35750SOL     OW17179   0.321   3.975   5.390  0.5500 -0.1280  0.4512
35750SOL    HW117180   0.233   3.998   5.420  0.0883  0.6448 -1.3864
35750SOL    HW217181   0.366   4.059   5.382  0.9408 -0.3917 -0.1639
35751SOL     OW17182  12.736   1.098   0.177 -0.3112  0.1363 -0.1451
35751SOL    HW117183  12.784   1.162   0.229 -0.3269 -0.7723  1.0075
35751SOL    HW217184  12.646   1.105   0.209 -0.2016 -0.8627  0.3991
35752SOL     OW17185   3.383  11.296   6.379 -0.1579 -0.7758  0.5383
35752SOL    HW117186   3.326  11.266   6.450 -0.0377  1.2771  1.5869
35752SOL    HW217187   3.365  11.390   6.372  1.2922 -0.5535 -0.8019
35753SOL     OW17188  12.297   3.215   7.107 -0.3514 -0.2502 -0.2132
35753SOL    HW117189  12.359   3.283   7.133 -0.7055  0.1007 -0.2718
35753SOL    HW217190  12.328   3.136   7.151 -0.1946  0.0476  0.2146
35754SOL     OW17191  12.619   6.418   9.678 -0.1760  0.6164 -0.2457
35754SOL    HW117192  12.709   6.440   9.652  0.3840  0.1453  1.1739
35754SOL    HW217193  12.620   6.324   9.691 -0.2773  0.8537  1.8241
35755SOL     OW17194  11.892  12.193   7.444 -0.2446 -0.4342  0.0567
35755SOL    HW117195  11.892  12.111   7.395  1.3672  0.1966 -1.0931
35755SOL    HW217196  11.953  12.178   7.516 -0.3503 -0.4014  0.1539
35756SOL     OW17197  13.172   8.063   4.685  0.4322 -0.3582 -0.0429
35756SOL    HW117198  13.243   8.074   4.622  0.7995  1.6741  0.6576
35756SOL    HW217199  13.203   7.994   4.744  0.7080 -1.2423 -1.1838
35757SOL     OW17200   0.462   3.931   3.967 -0.1587 -0.4383 -0.6837
35757SOL    HW117201   0.406   3.866   4.009 -1.1027  1.2063  0.7134
35757SOL    HW217202   0.533   3.879   3.928 -2.2844 -2.5388 -2.0254
35758SOL     OW17203   9.153   4.514  10.062 -0.0038 -0.6439  0.4586
35758SOL    HW117204   9.080   4.465  10.026  0.1201 -1.4010  1.1906
35758SOL    HW217205   9.123   4.604  10.066 -0.1770 -0.6239 -1.0604
35759SOL     OW17206   1.708   6.222  12.051 -0.1334  0.5196 -0.4228
35759SOL    HW117207   1.626   6.211  12.004  0.6090  3.7726 -2.7636
35759SOL    HW217208   1.694   6.297  12.109  1.0411  0.8384 -0.5179
35760SOL     OW17209   5.886   9.515   6.176 -0.6341  0.3976  0.4452
35760SOL    HW117210   5.935   9.597   6.170 -1.0050  0.5434 -2.5778
35760SOL    HW217211   5.820   9.530   6.243  0.7420  1.7114  1.5695
35761SOL     OW17212   0.327   0.674   2.015  0.0944 -0.6052  0.2729
35761SOL    HW117213   0.360   0.653   1.928  0.5907 -0.1098  0.3354
35761SOL    HW217214   0.288   0.761   2.006  0.3470 -0.4519  0.5855
35762SOL     OW17215   8.057   6.626  11.110 -0.1929 -0.2354 -0.2918
35762SOL    HW117216   8.119   6.685  11.154 -1.0666  0.7836 -0.3830
35762SOL    HW217217   8.111   6.555  11.076  0.7444 -0.0793  0.8143
35763SOL     OW17218   0.321  10.747   4.414 -0.0901  0.2123  0.4641
35763SOL    HW117219   0.263  10.710   4.481  0.0259 -3.2576 -1.1328
35763SOL    HW217220   0.263  10.799   4.359 -1.4354 -1.7814 -0.1080
35764SOL     OW17221   5.690   3.448   8.522  0.7570  0.0689 -0.0069
35764SOL    HW117222   5.727   3.443   8.434  2.7678  1.0807  0.7331
35764SOL    HW217223   5.766   3.455   8.580 -0.3100 -3.4836  2.1224
35765SOL     OW17224   7.558  11.126  11.921 -0.3076 -0.2244 -0.0346
35765SOL    HW117225   7.536  11.075  11.999  0.0116 -0.5867 -0.1772
35765SOL    HW217226   7.630  11.077  11.880  0.7785  0.9126  0.4280
35766SOL     OW17227   0.226   8.986   1.783 -0.1019  0.5644  0.6066
35766SOL    HW117228   0.167   9.055   1.753  1.0568  1.4768  0.3291
35766SOL    HW217229   0.302   8.993   1.725 -1.1949 -3.0077 -1.5269
35767SOL     OW17230   3.268  12.740  12.527  0.1676  0.4367 -0.2272
35767SOL    HW117231   3.233  12.711  12.612 -2.9835  1.6093 -0.9816
35767SOL    HW217232   3.280  12.659  12.477  0.3727 -0.1375  0.7298
35768SOL     OW17233   4.097  12.435  12.347 -0.0455  0.2640 -0.9469
35768SOL    HW117234   4.072  12.432  12.255 -0.1743 -0.6025 -0.8856
35768SOL    HW217235   4.187  12.403  12.349  0.1049  0.6800 -0.8156
35769SOL     OW17236   3.450   9.162   1.424  0.0272  0.0264  0.5776
35769SOL    HW117237   3.465   9.096   1.357  2.0457  0.3779  0.6132
35769SOL    HW217238   3.423   9.113   1.502 -0.7393 -0.5217 -0.0161
35770SOL     OW17239   2.625   9.619   2.545 -0.3406 -0.2254  0.3410
35770SOL    HW117240   2.541   9.611   2.591  0.6703  0.8972  2.5549
35770SOL    HW217241   2.643   9.713   2.545  0.8049 -0.4312 -0.3282
35771SOL     OW17242  11.614   8.592   8.882  0.1035 -0.1547 -0.2747
35771SOL    HW117243  11.707   8.597   8.862  0.0405 -0.9652 -0.7912
35771SOL    HW217244  11.609   8.539   8.961 -0.1000 -2.9367 -2.0203
35772SOL     OW17245   9.837   3.846   7.200 -0.1212 -0.0795 -0.0620
35772SOL    HW117246   9.913   3.880   7.247  0.1150 -1.5894  0.7099
35772SOL    HW217247   9.870   3.768   7.155 -0.8274  0.1981 -1.0905
35773SOL     OW17248   6.572   1.781  11.032  0.7698 -0.5437  0.0606
35773SOL    HW117249   6.528   1.825  11.105  0.9525 -0.4923  0.1406
35773SOL    HW217250   6.642   1.842  11.007  3.1867 -2.1980  2.3126
35774SOL     OW17251   4.821  11.031   7.553  0.0754 -0.1906 -0.6243
35774SOL    HW117252   4.824  10.955   7.496  1.7341 -0.0187 -0.8108
35774SOL    HW217253   4.913  11.057   7.565 -0.4161  1.5745 -0.2921
35775SOL     OW17254  12.568  10.575   9.548 -0.0022  0.3947 -0.1403
35775SOL    HW117255  12.650  10.529   9.533  0.1254  0.0439  1.4578
35775SOL    HW217256  12.501  10.516   9.512  0.3730  0.1990 -0.5184
35776SOL     OW17257   6.633  11.205   0.292 -0.9265 -0.9366 -0.3753
35776SOL    HW117258   6.630  11.185   0.198 -0.5793 -1.1590 -0.3403
35776SOL    HW217259   6.647  11.121   0.334 -1.6407 -0.9135 -0.0851
35777SOL     OW17260   6.221  11.459  10.368  0.0066  0.1186  0.1561
35777SOL    HW117261   6.228  11.551  10.344 -0.5803 -0.4703 -2.5245
35777SOL    HW217262   6.130  11.448  10.395 -0.1705  0.1382 -0.4257
35778SOL     OW17263   6.497   1.969   8.776 -1.1492 -0.3128 -0.0145
35778SOL    HW117264   6.485   1.950   8.869  1.4279  1.1270  0.6917
35778SOL    HW217265   6.588   1.945   8.758 -1.3980  0.0706 -2.0160
35779SOL     OW17266   4.776   9.671   4.619  0.3872 -0.1570 -0.2301
35779SOL    HW117267   4.806   9.725   4.545  0.1292 -0.6319 -0.6861
35779SOL    HW217268   4.691   9.708   4.643  0.5954  0.1712  0.0134
35780SOL     OW17269   6.557  11.955   1.597 -0.2433  0.1003  0.1661
35780SOL    HW117270   6.579  12.002   1.677 -1.4861  0.8485  0.1081
35780SOL    HW217271   6.630  11.896   1.582 -0.0503 -0.1546  1.9226
35781SOL     OW17272   3.847   7.993   9.523 -0.0338 -0.1903 -0.6686
35781SOL    HW117273   3.898   8.059   9.570  0.2423  0.1026 -1.3655
35781SOL    HW217274   3.906   7.917   9.517  0.4543  0.2354 -1.6996
35782SOL     OW17275   9.441   3.718  11.618 -0.1758 -0.0747 -0.1015
35782SOL    HW117276   9.444   3.623  11.602  2.1039  0.0577 -0.6977
35782SOL    HW217277   9.434   3.726  11.713 -2.4508 -0.7896 -0.1281
35783SOL     OW17278   4.301   7.715  12.648 -0.3388 -0.3852  0.1056
35783SOL    HW117279   4.362   7.643  12.629  1.1539  0.8471 -0.0287
35783SOL    HW217280   4.243   7.717  12.573  0.7001 -0.3887 -0.7269
35784SOL     OW17281   5.194  12.698   9.686  0.2978  0.0744 -0.0785
35784SOL    HW117282   5.195  12.612   9.729 -0.5602 -0.3282 -0.8240
35784SOL    HW217283   5.283  12.732   9.698 -0.0278  0.2355  2.4714
35785SOL     OW17284   9.957  11.451   3.190 -0.1607  0.2544 -0.3678
35785SOL    HW117285   9.909  11.441   3.108  0.0259  1.2124 -0.6047
35785SOL    HW217286   9.958  11.545   3.206 -0.4971  0.0522  0.9251
35786SOL     OW17287  11.147   2.037   5.306  0.1870 -0.5930 -0.7136
35786SOL    HW117288  11.110   1.987   5.379 -0.0974  0.1413 -0.3459
35786SOL    HW217289  11.120   2.127   5.322 -1.6405 -0.6657 -2.8010
35787SOL     OW17290  10.662   4.672   1.040 -0.6288 -0.3274 -0.0452
35787SOL    HW117291  10.750   4.634   1.041 -0.1781  0.6884  0.2653
35787SOL    HW217292  10.616   4.630   1.113 -0.1218 -0.2304  0.3303
35788SOL     OW17293   6.505   5.799   9.203 -0.4418 -0.3018  0.2396
35788SOL    HW117294   6.520   5.836   9.116  0.8096 -0.5331  0.3374
35788SOL    HW217295   6.412   5.776   9.203 -1.1279  2.1348 -0.0807
35789SOL     OW17296   0.502   0.175   4.590 -0.7202 -0.4508  0.3451
35789SOL    HW117297   0.569   0.118   4.552  0.7563  1.0720  0.5536
35789SOL    HW217298   0.433   0.178   4.523  0.3934 -0.3604 -0.8534
35790SOL     OW17299  12.692   9.724   4.708  0.1743  0.1724  0.0363
35790SOL    HW117300  12.773   9.723   4.758  0.2877 -0.1836 -0.1541
35790SOL    HW217301  12.658   9.813   4.720  0.2658  0.1308  0.6311
35791SOL     OW17302  11.574   8.466   9.139 -0.1543 -0.5969  0.2991
35791SOL    HW117303  11.518   8.497   9.210  0.0149 -0.3781  0.3408
35791SOL    HW217304  11.612   8.385   9.172 -1.0889 -1.1942 -0.0565
35792SOL     OW17305   9.529   6.338  10.184 -0.7041  0.3665 -0.2001
35792SOL    HW117306   9.554   6.260  10.135  0.1296  0.5035 -0.0122
35792SOL    HW217307   9.540   6.314  10.276 -2.2770  0.1048 -0.0478
35793SOL     OW17308  11.563  10.276   5.833  0.3800  0.2979  0.1008
35793SOL    HW117309  11.542  10.353   5.779 -0.0711 -0.1807 -0.4123
35793SOL    HW217310  11.638  10.236   5.790  0.3209  0.1840  0.1039
35794SOL     OW17311   2.825   5.009   7.663 -0.0423 -0.6069  0.8147
35794SOL    HW117312   2.806   4.917   7.645  1.0060 -1.0403  1.7942
35794SOL    HW217313   2.901   5.007   7.722 -0.5584  0.8582  1.5740
35795SOL     OW17314  12.458   8.913   4.650  0.1009  0.3241 -0.2485
35795SOL    HW117315  12.524   8.977   4.624  1.1648 -0.5224  0.2733
35795SOL    HW217316  12.374   8.953   4.626  0.8793  0.2788 -3.4410
35796SOL     OW17317   9.137  10.501   1.126 -0.2844 -0.0830 -0.1016
35796SOL    HW117318   9.147  10.529   1.035  0.6159 -0.3855 -0.1063
35796SOL    HW217319   9.112  10.409   1.120  0.5097 -0.3121 -0.0461
35797SOL     OW17320   2.786   6.579  12.551  0.0187 -0.3771  0.0884
35797SOL    HW117321   2.803   6.560  12.643 -1.5578  1.6208  0.8768
35797SOL    HW217322   2.828   6.664  12.536  0.6130 -0.8785 -1.1602
35798SOL     OW17323   0.892   7.830   9.976 -0.7620 -0.2095 -0.2254
35798SOL    HW117324   0.928   7.849  10.063 -1.2983 -0.2564  0.0089
35798SOL    HW217325   0.818   7.889   9.968  0.0394  0.6981 -1.1715
35799SOL     OW17326  11.638   9.801  10.914 -0.4525 -0.0604 -0.6940
35799SOL    HW117327  11.659   9.718  10.956 -2.0012  0.4003  1.1490
35799SOL    HW217328  11.670   9.868  10.975  0.3241  0.7232 -1.9114
35800SOL     OW17329  12.523   2.111  11.794 -0.1391 -0.4312 -0.3886
35800SOL    HW117330  12.562   2.190  11.755 -0.2102 -1.1064 -1.9182
35800SOL    HW217331  12.583   2.086  11.864 -0.2530  1.1134  0.3029
35801SOL     OW17332   6.313   7.307   1.630 -0.9387  0.3233 -0.8068
35801SOL    HW117333   6.345   7.224   1.595 -0.4182 -0.7588  1.9290
35801SOL    HW217334   6.290   7.358   1.553  1.1377 -1.3596 -2.7059
35802SOL     OW17335   9.127  11.957   5.402 -0.4407 -0.1487 -0.3098
35802SOL    HW117336   9.158  11.887   5.459  1.8347 -1.2672 -2.7621
35802SOL    HW217337   9.188  12.029   5.416 -1.5802  0.6812  0.6889
35803SOL     OW17338   8.999  10.038   2.859 -0.1696  0.2238 -0.3062
35803SOL    HW117339   9.002   9.964   2.919  0.6379  0.8276  0.4284
35803SOL    HW217340   9.012  10.000   2.772  1.6566 -0.3843  0.1883
35804SOL     OW17341  10.332   4.568   0.167  0.4519  0.1249 -0.1454
35804SOL    HW117342  10.240   4.567   0.195  0.6529  2.0746  0.6731
35804SOL    HW217343  10.373   4.638   0.218  2.3766 -0.5929 -0.6142
35805SOL     OW17344  12.718  10.082   5.547  0.1848  0.1232 -0.1096
35805SOL    HW117345  12.744  10.147   5.482 -1.0013 -0.5071 -1.2617
35805SOL    HW217346  12.773  10.006   5.529  0.9016  0.4443  0.6255
35806SOL     OW17347   2.244   1.629   7.747  0.1304  0.2854 -0.0579
35806SOL    HW117348   2.181   1.626   7.819 -1.2199 -0.2985 -1.2222
35806SOL    HW217349   2.319   1.677   7.783 -1.1715  1.4696  1.2025
35807SOL     OW17350   5.666   9.879   2.543 -0.1308  0.6989  0.0421
35807SOL    HW117351   5.591   9.896   2.601 -0.1185  1.3473 -0.1300
35807SOL    HW217352   5.716   9.812   2.589 -0.5876  0.5748  0.3695
35808SOL     OW17353  12.994   0.909   7.413  1.2569 -0.3111 -0.3251
35808SOL    HW117354  12.960   0.895   7.501 -1.7317 -0.2450 -1.3566
35808SOL    HW217355  13.023   1.001   7.413 -2.3736  0.9717 -0.3757
35809SOL     OW17356  10.334   9.741   7.478 -0.0068  0.1925 -0.5814
35809SOL    HW117357  10.401   9.673   7.473  0.0216  0.1759  0.0082
35809SOL    HW217358  10.383   9.823   7.489 -0.0667  0.2334 -0.6133
35810SOL     OW17359  11.687  13.210  10.187 -0.3683  0.0564  0.5504
35810SOL    HW117360  11.623  13.255  10.131 -1.4521  1.4723  2.7821
35810SOL    HW217361  11.636  13.145  10.234 -0.3103  1.3742  2.5491
35811SOL     OW17362   3.539   1.171  10.145 -0.6617 -0.3312 -0.3653
35811SOL    HW117363   3.556   1.246  10.088  0.2636 -0.0854  0.2079
35811SOL    HW217364   3.599   1.103  10.115 -2.1825 -1.2236 -1.5232
35812SOL     OW17365  10.139   7.032   7.512  0.0140 -0.1964 -0.1322
35812SOL    HW117366  10.220   7.079   7.489  0.3606 -1.6812 -2.2923
35812SOL    HW217367  10.080   7.052   7.440 -0.9985 -0.4118  0.6285
35813SOL     OW17368   8.552   8.361   7.069  0.6960 -0.1296 -0.1340
35813SOL    HW117369   8.588   8.443   7.102 -2.0219  1.9363 -1.9088
35813SOL    HW217370   8.627   8.315   7.032  1.9916  2.7348 -1.3535
35814SOL     OW17371   1.192   5.347   3.617 -0.1487  0.0971 -0.0945
35814SOL    HW117372   1.244   5.403   3.559  1.5003 -1.6320 -0.3646
35814SOL    HW217373   1.257   5.297   3.667 -1.5438 -1.3669  0.3272
35815SOL     OW17374   1.243   7.379  10.636  0.3483 -0.4104  0.3463
35815SOL    HW117375   1.297   7.432  10.578  0.3053  1.0546  1.5906
35815SOL    HW217376   1.297   7.301  10.653  1.6817  0.5695  0.7856
35816SOL     OW17377   3.849   0.099  10.544  0.5393 -0.0888  0.5522
35816SOL    HW117378   3.930   0.148  10.558 -0.6643  2.1603  0.1146
35816SOL    HW217379   3.821   0.074  10.632  2.2813 -2.0336  0.6463
35817SOL     OW17380  10.877   8.999   2.705  0.3102  0.0805  0.2065
35817SOL    HW117381  10.951   8.985   2.646 -0.5959  0.6624 -1.0833
35817SOL    HW217382  10.809   8.940   2.673 -0.1032  0.1835  0.8673
35818SOL     OW17383   7.727   7.733   0.849  0.7151  0.8381  0.1721
35818SOL    HW117384   7.718   7.775   0.763  0.6501  1.6075  0.5412
35818SOL    HW217385   7.795   7.785   0.892  2.2548 -0.8131 -0.1684
35819SOL     OW17386   2.104  12.033   7.530 -0.3083  0.2874 -0.2376
35819SOL    HW117387   2.170  12.102   7.541 -0.0483 -0.0421  0.3202
35819SOL    HW217388   2.048  12.041   7.608 -0.0825 -0.3365 -0.0063
35820SOL     OW17389   2.901  10.982   8.564  0.3257 -0.2895 -0.3337
35820SOL    HW117390   2.809  10.977   8.590  0.0870  0.0430 -1.1011
35820SOL    HW217391   2.922  11.075   8.569  1.1564 -0.5441  1.6259
35821SOL     OW17392  10.235   4.794  11.311 -0.2446 -0.6929  0.4935
35821SOL    HW117393  10.176   4.722  11.286 -0.3061 -0.0805 -1.2603
35821SOL    HW217394  10.302   4.795  11.242 -0.1674  0.8265  0.5562
35822SOL     OW17395   1.473  12.360   6.370 -0.1749  0.2310 -0.3154
35822SOL    HW117396   1.526  12.353   6.449  0.9043  0.1151 -1.0181
35822SOL    HW217397   1.383  12.368   6.401 -0.2439 -3.4583  0.8968
35823SOL     OW17398  10.614   8.796   3.212 -0.3646  0.0122 -0.0700
35823SOL    HW117399  10.596   8.748   3.293 -0.7858  2.3287  1.2871
35823SOL    HW217400  10.643   8.728   3.151 -2.2390 -2.1926  1.2725
35824SOL     OW17401   3.630   9.421   9.905  0.3268  0.0222  0.0371
35824SOL    HW117402   3.596   9.334   9.926 -0.0104  0.1237 -0.0880
35824SOL    HW217403   3.628   9.469   9.988  2.0101 -0.5739  0.4727
35825SOL     OW17404  11.730   2.451  12.151 -0.5263 -0.4026  0.5150
35825SOL    HW117405  11.816   2.491  12.142 -1.2279  1.5350  1.7584
35825SOL    HW217406  11.668   2.525  12.147 -2.1631 -1.7528 -0.5496
35826SOL     OW17407  12.324  10.880  13.240  0.2220 -0.3923 -0.0834
35826SOL    HW117408  12.356  10.793  13.219  1.6577  0.2272 -0.6040
35826SOL    HW217409  12.261  10.901  13.171  0.1903 -0.8397 -0.1895
35827SOL     OW17410   9.349   4.667   8.250  0.0300 -0.5790 -0.3958
35827SOL    HW117411   9.382   4.634   8.334  0.0685 -1.3339 -0.6960
35827SOL    HW217412   9.425   4.710   8.210 -0.4716  1.5329  0.7819
35828SOL     OW17413   5.868   8.752   6.567 -0.6839 -0.6969 -0.0935
35828SOL    HW117414   5.962   8.764   6.560 -0.8026 -0.0754 -0.6844
35828SOL    HW217415   5.832   8.786   6.485 -1.2619 -2.9339 -0.8263
35829SOL     OW17416  11.428  11.625   2.647 -0.6176  0.0543  0.0435
35829SOL    HW117417  11.427  11.562   2.575 -0.4273 -0.0790  0.1592
35829SOL    HW217418  11.453  11.574   2.724  0.8396  0.5133 -0.0945
35830SOL     OW17419   7.728   8.703   1.930 -0.0871  0.7669 -0.6116
35830SOL    HW117420   7.745   8.797   1.939  1.1752  0.6466 -1.4653
35830SOL    HW217421   7.763   8.664   2.010  0.8118  0.8824 -0.9307
35831SOL     OW17422   8.497   6.506   5.704 -0.1789 -0.0489  0.5377
35831SOL    HW117423   8.530   6.475   5.788  0.6634 -0.8887 -0.0732
35831SOL    HW217424   8.482   6.599   5.717  0.4390 -0.0650  1.4715
35832SOL     OW17425   7.777   1.614  13.300  0.1959  0.0686  0.1632
35832SOL    HW117426   7.766   1.604  13.205 -0.9170 -2.3702  0.4626
35832SOL    HW217427   7.871   1.609  13.314  0.3431 -0.0831 -0.7909
35833SOL     OW17428   3.354  10.991   6.403  0.1205 -0.0486  0.3510
35833SOL    HW117429   3.261  10.984   6.424  0.3965 -2.0420  1.1252
35833SOL    HW217430   3.390  11.050   6.470 -0.2694 -0.7504  1.1894
35834SOL     OW17431   2.255  10.268  12.715  0.4170  0.4829 -0.4620
35834SOL    HW117432   2.321  10.334  12.693  0.3090  0.2351 -1.6046
35834SOL    HW217433   2.173  10.305  12.681  0.4205 -0.3997 -1.5087
35835SOL     OW17434   4.735   7.909   8.749 -0.3039  0.4693 -0.5779
35835SOL    HW117435   4.761   7.819   8.768  1.6050  1.3594  1.5369
35835SOL    HW217436   4.687   7.938   8.826  0.4339  1.7091 -0.5521
35836SOL     OW17437   9.479  12.386   6.751 -0.0066  0.3535 -0.3178
35836SOL    HW117438   9.439  12.336   6.822 -1.6089 -0.2511 -1.5590
35836SOL    HW217439   9.570  12.359   6.750 -0.4275 -1.1607  0.2319
35837SOL     OW17440   5.948   8.300   2.369 -0.2359  0.2845 -0.3082
35837SOL    HW117441   5.966   8.389   2.398  1.2852 -0.1772  0.2942
35837SOL    HW217442   5.947   8.248   2.450 -1.8900 -0.1606 -0.5639
35838SOL     OW17443   3.048   2.552   0.513  0.7417 -0.0357  0.2363
35838SOL    HW117444   2.954   2.535   0.503  0.1042  2.0486  1.8410
35838SOL    HW217445   3.080   2.564   0.424 -0.6052 -0.3768 -0.3194
35839SOL     OW17446   1.791   0.257   4.466  0.4401  0.0927 -0.9292
35839SOL    HW117447   1.704   0.234   4.434  0.2773 -1.5573  0.5498
35839SOL    HW217448   1.834   0.299   4.392 -1.8342  1.5942 -1.4894
35840SOL     OW17449  10.342   9.410   8.328  0.2320  0.2824  0.8629
35840SOL    HW117450  10.403   9.471   8.369  1.8418 -0.6469 -0.0727
35840SOL    HW217451  10.344   9.333   8.384 -1.8856  1.0349  2.1059
35841SOL     OW17452   8.085  13.159   6.052  0.4163  0.0891  0.6051
35841SOL    HW117453   8.078  13.093   5.983  1.9419 -0.9909  1.4353
35841SOL    HW217454   8.177  13.183   6.053  1.0089 -1.8084  3.9078
35842SOL     OW17455   0.991   5.602   5.204 -0.1745  0.0729  0.2430
35842SOL    HW117456   0.942   5.608   5.286  0.1941  0.0423  0.4656
35842SOL    HW217457   1.079   5.574   5.230  0.2670  1.1515 -0.0388
35843SOL     OW17458   4.905   6.002  12.641  0.5089  0.0569 -0.0446
35843SOL    HW117459   4.969   6.045  12.585 -0.4765  0.7959 -0.6293
35843SOL    HW217460   4.866   5.934  12.586 -0.0920  0.4365 -0.0957
35844SOL     OW17461   2.816   0.821   1.033 -0.0394 -0.2415 -0.7242
35844SOL    HW117462   2.892   0.825   1.090 -0.8091  0.6522  0.2739
35844SOL    HW217463   2.852   0.811   0.945  1.2010 -0.2189 -0.2324
35845SOL     OW17464   1.016   6.730  12.711 -0.3195  0.3461  0.1851
35845SOL    HW117465   1.071   6.806  12.729  0.9660 -0.1578 -1.4279
35845SOL    HW217466   0.947   6.763  12.654  0.6943  0.1986 -1.1846
35846SOL     OW17467   7.006  10.753   1.434 -0.1468  0.0921 -0.4850
35846SOL    HW117468   7.061  10.772   1.510 -0.7553  2.3682 -0.5309
35846SOL    HW217469   6.928  10.710   1.471 -0.6514  1.6009  0.2893
35847SOL     OW17470   3.295   5.081   2.304 -0.5242 -0.1592  0.1129
35847SOL    HW117471   3.266   5.068   2.395 -1.0386  0.5129  0.0490
35847SOL    HW217472   3.371   5.023   2.295  0.9915  1.4644  1.6864
35848SOL     OW17473  12.946   0.514   3.777  0.0471  0.2578 -0.1237
35848SOL    HW117474  12.952   0.480   3.867  0.5924 -0.2576 -0.3440
35848SOL    HW217475  13.033   0.498   3.740 -0.1339  0.5918 -0.7004
35849SOL     OW17476   0.656  11.394   3.711 -0.4163  0.1244 -0.1604
35849SOL    HW117477   0.630  11.426   3.798 -0.4169  2.0577 -0.8213
35849SOL    HW217478   0.576  11.356   3.675  0.1067 -2.8969  1.5157
35850SOL     OW17479  13.270   7.569   6.814 -0.1134  0.2081  0.5516
35850SOL    HW117480  13.271   7.484   6.859 -1.2624  0.6283  1.4300
35850SOL    HW217481  13.178   7.581   6.788  0.7031 -0.6978 -3.3500
35851SOL     OW17482   1.800   9.250   5.343 -1.0371 -0.0750 -0.2819
35851SOL    HW117483   1.738   9.256   5.416  0.3566 -2.1151  1.1836
35851SOL    HW217484   1.745   9.223   5.269 -2.3934  1.4399  0.1108
35852SOL     OW17485   9.274   7.040   9.861 -0.1353  0.7164 -0.2655
35852SOL    HW117486   9.261   6.976   9.930  2.8018  1.4089  1.0854
35852SOL    HW217487   9.198   7.098   9.867 -0.3871  0.2428  1.8163
35853SOL     OW17488  10.230  10.082  12.454  0.0622 -0.1798 -0.0854
35853SOL    HW117489  10.209  10.175  12.451 -1.1320 -0.3621  1.3634
35853SOL    HW217490  10.304  10.072  12.395  0.3118  1.7080 -0.1457
35854SOL     OW17491  12.798   1.582   4.746 -0.4721 -0.1546 -0.1983
35854SOL    HW117492  12.842   1.551   4.667 -1.2553  0.0671 -0.7430
35854SOL    HW217493  12.866   1.624   4.797  0.4682 -2.0708  0.2078
35855SOL     OW17494   8.728  12.450   5.162 -0.1052  0.2827 -0.7130
35855SOL    HW117495   8.807  12.503   5.151  0.3444  0.2769  1.9626
35855SOL    HW217496   8.670  12.505   5.215 -0.6077 -0.9573  0.0460
35856SOL     OW17497   4.667   7.462   6.806  0.0326 -0.4004 -0.6408
35856SOL    HW117498   4.728   7.430   6.873 -0.2071  1.0103  0.2965
35856SOL    HW217499   4.665   7.557   6.819 -1.0648 -0.2405 -1.7821
35857SOL     OW17500  11.907   6.831   7.064  0.5975  0.6706  0.7399
35857SOL    HW117501  11.890   6.738   7.080  2.2530  0.4362  1.2654
35857SOL    HW217502  11.848   6.853   6.992 -0.6526 -0.4804  1.3559
35858SOL     OW17503   7.577   3.581   8.310 -0.1819 -0.4146  0.0370
35858SOL    HW117504   7.512   3.594   8.380  1.1719  2.1667  0.9476
35858SOL    HW217505   7.645   3.528   8.351 -0.3514 -0.6571  0.0069
35859SOL     OW17506   4.923   9.654  10.141  0.0004 -0.1874  0.0394
35859SOL    HW117507   4.930   9.736  10.093 -1.4430  0.4493  0.8492
35859SOL    HW217508   4.935   9.678  10.232 -1.8355 -0.6056  0.4373
35860SOL     OW17509   5.282   2.791   2.127  0.2498  0.4805  0.1006
35860SOL    HW117510   5.264   2.855   2.196  0.2083 -0.3878  0.9128
35860SOL    HW217511   5.231   2.714   2.150  0.5629  0.0186 -0.6748
35861SOL     OW17512   0.659   3.931   8.652  0.2529  0.5201  0.3430
35861SOL    HW117513   0.687   3.872   8.582  0.2820 -1.6601  2.0532
35861SOL    HW217514   0.735   3.935   8.711 -0.7358 -0.1554  1.7242
35862SOL     OW17515   2.869   7.563   8.675 -0.3310  0.0424 -0.5657
35862SOL    HW117516   2.887   7.493   8.737 -0.6615  0.2175 -0.2709
35862SOL    HW217517   2.948   7.617   8.675 -1.0372  1.1787  1.2126
35863SOL     OW17518   5.316   9.800   1.886 -0.9659  0.1766  0.5320
35863SOL    HW117519   5.374   9.857   1.836 -1.0707  1.0326  1.3648
35863SOL    HW217520   5.229   9.822   1.855 -0.9555 -0.0704  0.3232
35864SOL     OW17521   1.688   4.544  11.083  0.4149  0.1039  0.4336
35864SOL    HW117522   1.686   4.518  11.175  1.6833  1.4101  0.8666
35864SOL    HW217523   1.780   4.563  11.065 -0.0369  1.5098 -0.6131
35865SOL     OW17524  13.171   2.729   9.192  0.8374 -0.2629  0.3515
35865SOL    HW117525  13.253   2.739   9.145  0.8140 -0.0408  0.3580
35865SOL    HW217526  13.106   2.773   9.138  0.6537 -0.7609  0.1623
35866SOL     OW17527   4.235   7.429   3.192  0.9112  0.4412 -0.3332
35866SOL    HW117528   4.178   7.397   3.122  0.1315  0.5279  0.2434
35866SOL    HW217529   4.296   7.357   3.208 -0.2480 -0.4343  0.3225
35867SOL     OW17530   5.102  10.179  12.985  0.1604  0.1606 -0.4629
35867SOL    HW117531   5.048  10.153  13.060 -0.7725  0.4799 -0.9989
35867SOL    HW217532   5.039  10.191  12.914  1.1234 -1.2144 -1.6164
35868SOL     OW17533   5.463   0.125   0.759  0.5769  0.2663  0.3767
35868SOL    HW117534   5.369   0.128   0.745  0.5348 -1.6414 -0.0784
35868SOL    HW217535   5.474   0.099   0.850  0.4818 -3.4696 -0.4946
35869SOL     OW17536  10.134   8.608  10.213  0.3647 -0.0501 -0.0171
35869SOL    HW117537  10.103   8.590  10.124  0.4003 -1.6914  0.2656
35869SOL    HW217538  10.058   8.645  10.258  0.0178 -0.2442 -0.4354
35870SOL     OW17539  11.502   4.772   3.055  0.2003  0.0318  0.3524
35870SOL    HW117540  11.584   4.785   3.006 -0.0747 -0.1548 -0.1697
35870SOL    HW217541  11.530   4.747   3.143  0.7604 -2.6238 -0.4821
35871SOL     OW17542   0.841   6.871   9.744  0.1759 -0.6001  0.1822
35871SOL    HW117543   0.937   6.874   9.749  0.1240  0.8474  0.9215
35871SOL    HW217544   0.818   6.785   9.778  1.1722 -0.5788  0.9685
35872SOL     OW17545   9.106   7.519   9.725  0.2575 -0.3038  0.0517
35872SOL    HW117546   9.187   7.558   9.694  0.0127 -0.3939 -0.7115
35872SOL    HW217547   9.041   7.588   9.715  0.2315 -0.2318  0.6623
35873SOL     OW17548   4.260   3.799   4.066 -0.0829 -0.3687 -0.4121
35873SOL    HW117549   4.346   3.840   4.070 -0.8439  1.3598 -0.7801
35873SOL    HW217550   4.269   3.717   4.114  1.7427 -0.1906 -0.4131
35874SOL     OW17551   9.131   9.521   8.843  0.2016  0.0018  0.4425
35874SOL    HW117552   9.097   9.605   8.813  0.5041  1.1430  3.0475
35874SOL    HW217553   9.226   9.535   8.848  0.1654 -0.1142  1.8359
35875SOL     OW17554   5.842  10.745   3.565  0.3510  0.0323 -0.4470
35875SOL    HW117555   5.796  10.699   3.495 -1.3256  0.9873 -0.0311
35875SOL    HW217556   5.786  10.735   3.642  1.3111  0.4593  0.3373
35876SOL     OW17557  11.795   7.322   3.869 -0.2929 -0.1652 -0.5056
35876SOL    HW117558  11.836   7.377   3.803  0.9436 -0.1573  0.2337
35876SOL    HW217559  11.702   7.319   3.845 -0.0781  0.8663 -1.4957
35877SOL     OW17560   1.025   3.946   3.504 -0.1651 -0.3725 -0.2501
35877SOL    HW117561   1.055   4.034   3.527 -1.3780 -0.1440  0.5613
35877SOL    HW217562   1.098   3.907   3.457  0.5840  0.8895 -0.1705
35878SOL     OW17563  10.463  10.115  11.685  0.3972 -1.1529  0.4263
35878SOL    HW117564  10.473  10.021  11.666 -1.4078 -0.8835 -2.4552
35878SOL    HW217565  10.412  10.119  11.765  1.0557 -2.6065  0.9480
35879SOL     OW17566  11.360   3.421   3.400  0.3714  0.6277 -0.0532
35879SOL    HW117567  11.342   3.369   3.321  0.2537 -0.2486  0.5278
35879SOL    HW217568  11.351   3.358   3.472 -0.0728  1.5241  0.7050
35880SOL     OW17569   0.810   8.286  10.899  0.4651  0.5409  0.2891
35880SOL    HW117570   0.797   8.192  10.887 -1.4227  0.9791 -1.6545
35880SOL    HW217571   0.730   8.317  10.942  0.7109  1.3916  0.1580
35881SOL     OW17572   6.833   0.543   1.893  0.2704 -0.8373 -0.2269
35881SOL    HW117573   6.852   0.616   1.952 -0.5544 -1.2819  0.6178
35881SOL    HW217574   6.918   0.518   1.858  0.8631 -0.9036  1.2026
35882SOL     OW17575   5.218   1.800   4.799  0.3375 -0.1652  0.3888
35882SOL    HW117576   5.130   1.837   4.804  0.2814 -0.1706 -0.3572
35882SOL    HW217577   5.205   1.713   4.762  0.6130 -0.3527  0.7300
35883SOL     OW17578   0.314   8.921   8.967 -0.0155 -0.3076 -0.3073
35883SOL    HW117579   0.308   8.827   8.949  2.1138 -0.5152 -0.2001
35883SOL    HW217580   0.367   8.956   8.896 -0.3969  0.7567 -0.0900
35884SOL     OW17581   3.216   2.952   9.975  0.0159  0.3588 -0.8204
35884SOL    HW117582   3.261   2.921  10.054  0.8417  1.0701 -0.9934
35884SOL    HW217583   3.126   2.966  10.003 -0.2420 -1.4768 -0.5617
35885SOL     OW17584   3.555   3.152   8.864 -0.4387  1.0930 -0.0059
35885SOL    HW117585   3.646   3.162   8.890 -0.6487  2.1321  0.3581
35885SOL    HW217586   3.559   3.097   8.785  0.3063 -0.8333  1.2979
35886SOL     OW17587  11.860   3.488   8.519 -0.4310 -0.7975 -0.1508
35886SOL    HW117588  11.947   3.525   8.508 -1.3516  0.9547 -2.1059
35886SOL    HW217589  11.876   3.398   8.549  1.9886 -0.2777  0.3306
35887SOL     OW17590   0.735   3.382  12.042 -0.1746  0.2105  0.0886
35887SOL    HW117591   0.790   3.339  12.108 -1.0883 -0.5209  0.3925
35887SOL    HW217592   0.795   3.438  11.994  0.4074  1.3763  2.0433
35888SOL     OW17593   8.350  12.861  11.615  0.7500  0.0472  0.4873
35888SOL    HW117594   8.341  12.779  11.567  1.9687  0.0845  0.1423
35888SOL    HW217595   8.444  12.866  11.636  0.5001  0.7746  1.5436
35889SOL     OW17596   6.895  10.686   0.816 -0.0077 -0.2651 -0.4377
35889SOL    HW117597   6.886  10.765   0.763  1.1514  0.0233 -0.2263
35889SOL    HW217598   6.817  10.635   0.796  0.0032  0.2120 -1.7829
35890SOL     OW17599   2.289   1.066   6.386 -0.1704  0.0566 -0.0976
35890SOL    HW117600   2.198   1.038   6.370 -0.2622 -0.0194  0.5337
35890SOL    HW217601   2.294   1.154   6.350 -1.1619  0.9924  1.8905
35891SOL     OW17602   2.793   1.794   4.401  0.6197 -0.0918 -0.0425
35891SOL    HW117603   2.838   1.829   4.324 -3.4010 -0.3499 -2.8450
35891SOL    HW217604   2.819   1.702   4.404  2.8103  0.4968  0.6059
35892SOL     OW17605   8.304   8.093   0.788  0.5612  0.2179  0.0639
35892SOL    HW117606   8.327   8.001   0.793 -1.3094 -0.2480  1.4754
35892SOL    HW217607   8.254   8.101   0.706 -0.3339 -0.3291  0.5381
35893SOL     OW17608   0.006   6.604   0.011  0.0719 -0.0502 -0.3715
35893SOL    HW117609  -0.087   6.591   0.030 -0.5632 -1.8121 -3.8397
35893SOL    HW217610   0.006   6.669  -0.060  1.3693 -0.8382 -1.1244
35894SOL     OW17611   5.188  12.468   3.870  0.1065 -0.1087 -0.6312
35894SOL    HW117612   5.198  12.437   3.960  1.4572  0.7240 -0.4695
35894SOL    HW217613   5.200  12.390   3.816 -1.9922 -0.8704 -0.0907
35895SOL     OW17614  12.080   1.642   3.663  0.0388  0.1749 -0.1426
35895SOL    HW117615  12.059   1.693   3.741  1.3990 -1.3730  1.3203
35895SOL    HW217616  12.175   1.647   3.657 -0.0430  0.2001 -1.6797
35896SOL     OW17617   8.415   0.446  11.800  0.1572  0.1205 -0.3628
35896SOL    HW117618   8.460   0.382  11.855  0.1516  1.1830  0.9647
35896SOL    HW217619   8.347   0.482  11.857 -2.3777 -1.3432 -2.2740
35897SOL     OW17620   9.513   2.721   9.005 -0.7604  0.1115 -0.1478
35897SOL    HW117621   9.448   2.654   8.983  0.8697 -1.8651  0.6497
35897SOL    HW217622   9.491   2.747   9.094 -1.7669  1.1550 -0.6740
35898SOL     OW17623   2.096   5.067  10.515  0.1727  0.0179  0.1053
35898SOL    HW117624   2.078   5.064  10.609 -0.0186  0.3920  0.0814
35898SOL    HW217625   2.175   5.121  10.508 -0.8625  1.5637 -0.0902
35899SOL     OW17626  10.461   3.541  12.464  0.4727 -1.0112 -0.1641
35899SOL    HW117627  10.470   3.552  12.559  1.3649 -1.4941 -0.1826
35899SOL    HW217628  10.524   3.602  12.426  0.2090 -0.9112 -0.4421
35900SOL     OW17629   1.343   3.344   0.357 -0.4043 -0.1439  0.4345
35900SOL    HW117630   1.383   3.343   0.444  2.6604  0.8699 -0.8475
35900SOL    HW217631   1.299   3.429   0.351 -0.4445 -0.1321  0.8835
35901SOL     OW17632  10.669  12.274  12.439 -0.2175 -0.0208  0.1439
35901SOL    HW117633  10.597  12.323  12.477 -2.4575 -1.4669 -1.9469
35901SOL    HW217634  10.691  12.209  12.505  0.7242  1.7600  1.6768
35902SOL     OW17635   0.616   2.187   4.795 -0.4328 -0.2425 -0.1921
35902SOL    HW117636   0.571   2.208   4.713 -3.2335 -0.1071  1.2447
35902SOL    HW217637   0.624   2.271   4.840  0.4825 -0.4099 -0.0255
35903SOL     OW17638   4.003  12.121  10.016  0.2313 -0.0934  0.3274
35903SOL    HW117639   4.000  12.193   9.953 -0.2310 -0.2182  0.1986
35903SOL    HW217640   3.934  12.061   9.987 -0.4432  0.1659  1.3356
35904SOL     OW17641   6.437   2.210   5.222 -0.0919 -0.2346  0.3406
35904SOL    HW117642   6.527   2.241   5.209 -0.0816 -0.3258  0.1849
35904SOL    HW217643   6.386   2.290   5.237  0.5267 -0.3429  3.8007
35905SOL     OW17644   9.216   3.376   2.047 -0.0776 -0.2699 -0.5699
35905SOL    HW117645   9.177   3.437   1.986  0.5085 -1.2999 -2.0285
35905SOL    HW217646   9.296   3.346   2.004 -1.0702 -3.1767 -0.6294
35906SOL     OW17647   9.248   5.843   5.373 -0.0235  0.0270 -0.7381
35906SOL    HW117648   9.239   5.791   5.293 -0.5388  1.8308 -1.9018
35906SOL    HW217649   9.191   5.799   5.436  0.3813 -1.4150 -1.3350
35907SOL     OW17650   4.241  12.404   7.108  0.1243  0.1811  0.3909
35907SOL    HW117651   4.185  12.328   7.092  2.7343 -1.5709 -1.1335
35907SOL    HW217652   4.220  12.465   7.036  0.8319 -0.9092 -0.7764
35908SOL     OW17653   9.612   1.409   0.771 -0.0976  0.3243  0.1685
35908SOL    HW117654   9.597   1.491   0.818  0.8537  0.5382  0.1023
35908SOL    HW217655   9.680   1.430   0.707  0.9835 -0.8040  0.9121
35909SOL     OW17656   2.853   7.013   8.261 -0.0330 -0.0146 -0.4131
35909SOL    HW117657   2.926   6.979   8.210  0.6963 -0.3876  0.8380
35909SOL    HW217658   2.856   6.965   8.344 -2.5425 -1.0370 -0.7969
35910SOL     OW17659  11.096   3.663   2.697  0.0395  0.0466  0.0359
35910SOL    HW117660  11.103   3.597   2.766  0.3886  0.4869  0.4265
35910SOL    HW217661  11.094   3.613   2.616 -1.7204 -0.5627  0.4097
35911SOL     OW17662   3.925   3.358   9.190  0.1906  1.0564  0.4047
35911SOL    HW117663   3.960   3.391   9.108  0.6196  0.3443  0.2977
35911SOL    HW217664   3.891   3.436   9.235  0.0957  1.4667 -0.3702
35912SOL     OW17665   3.117  11.678  10.517 -0.4283  0.7607 -0.0264
35912SOL    HW117666   3.209  11.668  10.493 -0.0733  2.5413  0.4407
35912SOL    HW217667   3.118  11.718  10.604 -1.6436  0.6649  0.0601
35913SOL     OW17668  12.347   4.455   0.163 -0.5125 -0.4451 -0.6638
35913SOL    HW117669  12.340   4.509   0.084 -0.0071 -0.2634 -0.5905
35913SOL    HW217670  12.442   4.441   0.174 -0.4356  1.0117  0.8842
35914SOL     OW17671   0.948   3.116   3.698 -0.0591  0.2031  0.2372
35914SOL    HW117672   0.936   3.111   3.603 -2.3688  1.9507  0.3766
35914SOL    HW217673   0.913   3.033   3.731  1.3704 -0.7102 -0.4235
35915SOL     OW17674   2.273   0.916   0.964 -0.2364  0.5926  0.3958
35915SOL    HW117675   2.368   0.932   0.966 -0.1158 -0.0042 -0.1258
35915SOL    HW217676   2.244   0.931   1.054  0.4495  0.2315  0.6893
35916SOL     OW17677   5.881   9.834   6.531  0.3391 -0.0234  0.0751
35916SOL    HW117678   5.970   9.869   6.519  0.2000  0.2654 -0.1357
35916SOL    HW217679   5.831   9.908   6.565 -0.3339  0.4600 -1.8509
35917SOL     OW17680   5.588   8.975   3.840  0.2766 -0.4027  0.4791
35917SOL    HW117681   5.630   9.024   3.912  1.9899  0.4536 -1.0163
35917SOL    HW217682   5.651   8.906   3.818  1.2991  1.2233 -2.1683
35918SOL     OW17683   1.519   4.533   7.458 -0.1073 -0.0722 -0.4170
35918SOL    HW117684   1.487   4.623   7.458  0.3503  0.0874 -0.2257
35918SOL    HW217685   1.614   4.540   7.462 -0.0870 -0.5714  0.1200
35919SOL     OW17686   9.768   7.350   9.524  0.0139 -0.1228 -0.2120
35919SOL    HW117687   9.855   7.321   9.499  0.4636  0.4556  0.6600
35919SOL    HW217688   9.728   7.273   9.564  0.9899  0.2439  1.5529
35920SOL     OW17689   9.452  10.063   3.265 -0.3354  0.3879 -0.1245
35920SOL    HW117690   9.506  10.080   3.342 -0.2596  1.4357 -0.3947
35920SOL    HW217691   9.505  10.006   3.210  0.5499  1.4800 -0.4286
35921SOL     OW17692  10.826   5.121   1.566 -0.3535 -0.3158  0.1427
35921SOL    HW117693  10.896   5.072   1.522  1.4066  1.0648  1.2270
35921SOL    HW217694  10.779   5.056   1.617 -0.4052 -1.4222 -1.2501
35922SOL     OW17695   9.862  10.428   4.679  0.2593  0.5838 -0.1797
35922SOL    HW117696   9.839  10.378   4.757 -0.7036  1.7639  0.3192
35922SOL    HW217697   9.917  10.368   4.628  1.2702 -0.0576  1.5875
35923SOL     OW17698   0.123   5.822   7.344  0.1167 -0.4393  0.3903
35923SOL    HW117699   0.210   5.804   7.308 -0.4229 -0.3269 -1.0482
35923SOL    HW217700   0.116   5.918   7.342  0.1123 -0.4258  0.9006
35924SOL     OW17701   1.811   2.920   2.290  0.5718  0.1014  0.0330
35924SOL    HW117702   1.773   3.003   2.261  0.3331  1.0925  2.8575
35924SOL    HW217703   1.737   2.860   2.295  0.3598  0.3635  0.0797
35925SOL     OW17704   8.504   9.845   5.341 -0.0828  0.0935 -0.0703
35925SOL    HW117705   8.577   9.785   5.327  0.4615  0.9220 -0.8862
35925SOL    HW217706   8.541   9.932   5.326 -0.4561  0.8129  2.6635
35926SOL     OW17707  13.283   2.621   1.582 -0.0042  0.5419  0.1137
35926SOL    HW117708  13.239   2.673   1.649 -0.4041 -0.7824  0.9056
35926SOL    HW217709  13.233   2.638   1.502  0.5617  2.2394  0.0693
35927SOL     OW17710   1.665   9.724   5.266 -0.3676 -0.5862  0.3379
35927SOL    HW117711   1.743   9.670   5.250 -0.2226 -0.5986  1.0340
35927SOL    HW217712   1.596   9.681   5.216  0.0850 -0.5387 -0.3483
35928SOL     OW17713  10.026   5.743   1.231  0.7253 -0.0677 -0.5730
35928SOL    HW117714   9.967   5.676   1.196  0.1509 -0.0238  0.2834
35928SOL    HW217715  10.092   5.693   1.279 -0.0700 -0.0194  0.6190
35929SOL     OW17716   4.367  10.758   2.928 -0.3354 -0.0831 -0.4407
35929SOL    HW117717   4.394  10.708   2.851 -0.5158 -0.7298 -0.0936
35929SOL    HW217718   4.395  10.705   3.002  0.0428  0.6450 -0.0486
35930SOL     OW17719   5.816   5.003   1.228  0.0209 -0.8463 -0.8581
35930SOL    HW117720   5.762   4.977   1.153 -0.5295  0.1081 -0.8025
35930SOL    HW217721   5.859   5.084   1.200 -2.4841  1.2450  0.8292
35931SOL     OW17722   7.181   5.059   1.838  0.2586  0.2135  0.3233
35931SOL    HW117723   7.097   5.012   1.840  0.2664  0.1814 -0.1490
35931SOL    HW217724   7.163   5.137   1.786  0.2025  0.8272  1.2394
35932SOL     OW17725  13.030   1.300   7.126 -1.0665 -0.1712 -0.5206
35932SOL    HW117726  13.033   1.337   7.038  1.9672  0.3064 -0.3125
35932SOL    HW217727  13.006   1.373   7.183 -0.1281  0.2513 -0.6582
35933SOL     OW17728   2.093   1.032  12.995 -0.3897  0.1081 -0.1694
35933SOL    HW117729   2.149   1.004  13.066 -0.3815  1.9691  0.6111
35933SOL    HW217730   2.070   1.122  13.016  1.4287  1.5794 -3.6033
35934SOL     OW17731   9.756   1.083   3.718 -0.7127  0.3320 -0.6306
35934SOL    HW117732   9.706   1.145   3.771 -1.2990  0.3165 -1.1489
35934SOL    HW217733   9.817   1.138   3.669  1.1125  0.1995  1.3665
35935SOL     OW17734  10.844  11.031  13.293  0.0625 -0.1637  0.1566
35935SOL    HW117735  10.761  11.058  13.331 -0.4620  0.7378 -1.5323
35935SOL    HW217736  10.820  10.993  13.209  1.1897 -1.9401  0.5902
35936SOL     OW17737  12.748   2.280   6.633  0.1261 -1.0318 -0.5706
35936SOL    HW117738  12.796   2.270   6.716 -0.4017 -0.3215 -0.1723
35936SOL    HW217739  12.815   2.278   6.566  0.4737 -2.8762 -0.2334
35937SOL     OW17740   7.074   8.508   8.329 -0.2541 -0.1692  0.2624
35937SOL    HW117741   7.026   8.569   8.272  0.9998 -1.1878 -2.0309
35937SOL    HW217742   7.031   8.424   8.315  1.0168 -0.7381 -0.4384
35938SOL     OW17743   5.071   3.516   5.568 -0.2833 -0.3695 -0.6432
35938SOL    HW117744   5.107   3.428   5.580  2.0660  0.6669  0.4369
35938SOL    HW217745   5.038   3.516   5.478 -1.6221 -2.7406 -0.2258
35939SOL     OW17746  10.815   3.936   1.564 -0.1138  0.0335  0.1212
35939SOL    HW117747  10.853   3.872   1.623  2.3605 -0.2377 -1.5910
35939SOL    HW217748  10.824   4.020   1.609 -0.5492 -0.4458  1.1113
35940SOL     OW17749   6.215   8.355  12.384 -0.0264 -0.2036 -0.4758
35940SOL    HW117750   6.210   8.449  12.400  0.2009 -0.2278 -0.2504
35940SOL    HW217751   6.307   8.333  12.398  0.3662 -0.0966 -2.5758
35941SOL     OW17752  10.694   1.637   1.302 -0.1489 -0.4637  0.2365
35941SOL    HW117753  10.685   1.624   1.396 -0.9872 -0.2375  0.1959
35941SOL    HW217754  10.647   1.563   1.263  1.9230 -1.7018 -0.0286
35942SOL     OW17755   7.721   8.306   1.119  0.0007  0.0707 -0.0049
35942SOL    HW117756   7.766   8.353   1.189 -0.0077  1.4455 -0.8833
35942SOL    HW217757   7.695   8.374   1.057 -0.5437 -1.0405 -1.0445
35943SOL     OW17758   1.880   7.237   5.580  0.4723  0.2519 -0.5827
35943SOL    HW117759   1.891   7.258   5.487  0.1324  0.7497 -0.5122
35943SOL    HW217760   1.853   7.319   5.620 -0.5531 -0.2374 -0.2437
35944SOL     OW17761   5.363   8.312   8.455 -0.3778  0.0138  0.0930
35944SOL    HW117762   5.446   8.340   8.417 -0.5066  1.7817  1.0280
35944SOL    HW217763   5.387   8.273   8.539 -0.4211 -0.3298 -0.0526
35945SOL     OW17764   4.294  13.145   4.073  0.1021  0.6986  0.3744
35945SOL    HW117765   4.340  13.150   3.989 -0.7806 -1.5565 -0.3227
35945SOL    HW217766   4.248  13.228   4.081  0.0817  0.8913 -1.4726
35946SOL     OW17767   3.540   4.569   1.567 -0.0861 -0.2584  0.1178
35946SOL    HW117768   3.574   4.607   1.648 -0.2945  0.0890  0.0416
35946SOL    HW217769   3.482   4.636   1.531 -0.2337 -0.5331 -0.1615
35947SOL     OW17770   5.071  12.887   4.059  0.0347  0.1960 -0.6121
35947SOL    HW117771   5.004  12.954   4.070  1.9599  2.0821  0.1979
35947SOL    HW217772   5.140  12.929   4.009  2.0083 -0.5777  1.2889
35948SOL     OW17773   8.021   7.594  10.517 -0.0420  0.8541 -0.7978
35948SOL    HW117774   7.990   7.649  10.445  2.0490  2.3360 -0.6564
35948SOL    HW217775   8.050   7.655  10.584 -0.2836 -0.4802  0.5905
35949SOL     OW17776  12.976   1.773   5.900  0.1970 -0.3334 -0.0646
35949SOL    HW117777  12.974   1.680   5.879  1.1456 -0.1379 -1.1270
35949SOL    HW217778  12.936   1.816   5.825  1.5718  0.2246 -0.5226
35950SOL     OW17779   9.073   7.884  12.397  0.1848 -0.0565 -0.6338
35950SOL    HW117780   9.052   7.841  12.314 -1.5324  0.2949 -0.4204
35950SOL    HW217781   8.997   7.939  12.415  0.7199  0.2101  0.9589
35951SOL     OW17782  11.740   2.758   6.072 -0.5757  0.1136 -0.1496
35951SOL    HW117783  11.824   2.804   6.069 -0.5358 -0.0269 -1.8866
35951SOL    HW217784  11.680   2.820   6.113  0.5849 -0.1838  2.1417
35952SOL     OW17785   2.572  13.001   2.012 -0.3962 -1.0713  0.8141
35952SOL    HW117786   2.507  13.071   2.011  0.9110  0.1714 -1.1999
35952SOL    HW217787   2.606  12.997   1.923  3.0027 -0.9871  1.9595
35953SOL     OW17788   2.164  10.447   4.146 -0.1637  0.3358 -0.6344
35953SOL    HW117789   2.082  10.493   4.127 -1.6037 -0.3032  3.1296
35953SOL    HW217790   2.220  10.512   4.188 -1.5235 -0.5820  3.0354
35954SOL     OW17791   9.934   4.141   1.959 -0.6966  0.2902  0.3647
35954SOL    HW117792  10.015   4.192   1.956 -2.2718  2.9200  0.1134
35954SOL    HW217793   9.916   4.118   1.868 -1.4627  1.8221  0.1080
35955SOL     OW17794   4.303   6.646  12.637  0.0101 -0.0843  0.5466
35955SOL    HW117795   4.277   6.737  12.625  1.3206  0.1408 -0.9679
35955SOL    HW217796   4.357   6.647  12.716  0.5397  0.5951  0.1921
35956SOL     OW17797   9.793  11.313   5.985  0.7296  0.0981  0.4805
35956SOL    HW117798   9.787  11.246   5.917  3.4156  0.9393 -0.6963
35956SOL    HW217799   9.702  11.330   6.009 -0.1441 -2.5210 -0.5692
35957SOL     OW17800   8.351   8.104   0.210  0.5535  0.2848 -0.4548
35957SOL    HW117801   8.375   8.057   0.130  1.2296  0.6081 -0.4467
35957SOL    HW217802   8.258   8.084   0.223  0.8332 -1.1316 -0.4103
35958SOL     OW17803   5.295   9.364   4.976  0.5016  0.3521 -0.3314
35958SOL    HW117804   5.263   9.276   4.997  0.4266  0.5443  0.4160
35958SOL    HW217805   5.369   9.377   5.036  1.3078  0.3243 -1.3002
35959SOL     OW17806  12.358   7.926  10.542 -0.3363  0.6821  0.1730
35959SOL    HW117807  12.364   7.874  10.462 -1.1624  2.1050 -0.8603
35959SOL    HW217808  12.449   7.933  10.573  0.4222  2.2982 -2.1293
35960SOL     OW17809  10.111   8.393   4.263  0.2955  0.4861 -0.2161
35960SOL    HW117810  10.200   8.394   4.301  0.9113 -0.4903 -1.5542
35960SOL    HW217811  10.098   8.481   4.230  0.8286  0.5986 -0.1337
35961SOL     OW17812  12.960   5.030   8.633 -0.1141 -0.2455 -0.0746
35961SOL    HW117813  13.036   4.972   8.628 -0.4888 -0.6655 -1.4674
35961SOL    HW217814  12.934   5.043   8.542 -1.2357  0.5428  0.3325
35962SOL     OW17815  11.517   3.661   7.463  0.2105 -0.6301 -0.3333
35962SOL    HW117816  11.461   3.724   7.507 -0.5666 -1.6413  0.1875
35962SOL    HW217817  11.538   3.701   7.379 -0.1097  0.3791  0.0582
35963SOL     OW17818   2.009  11.134  11.025  0.1237  0.0181  0.4379
35963SOL    HW117819   1.990  11.227  11.037  2.0103  0.3841  0.8517
35963SOL    HW217820   2.031  11.125  10.932 -2.8067 -0.6130 -0.3214
35964SOL     OW17821  10.921  10.307   4.414  0.3299  0.3911 -0.5242
35964SOL    HW117822  10.980  10.358   4.470  0.3591  0.9997 -1.1041
35964SOL    HW217823  10.851  10.278   4.473  1.5641 -0.9783  0.3427
35965SOL     OW17824   2.006   4.258   2.155  0.2084 -0.1796  0.2385
35965SOL    HW117825   1.945   4.314   2.107 -0.5829 -0.8418  0.4673
35965SOL    HW217826   2.087   4.310   2.158  0.2867 -0.0962 -1.7634
35966SOL     OW17827   5.832  10.225   6.437  0.0431  0.4344 -0.4111
35966SOL    HW117828   5.744  10.248   6.409 -0.4548 -0.2026  0.5777
35966SOL    HW217829   5.820  10.172   6.516  1.3299  0.9182  0.1521
35967SOL     OW17830   4.373   0.728  12.575  0.0749 -0.1919  0.2077
35967SOL    HW117831   4.424   0.699  12.651 -0.9812 -0.0737  0.9961
35967SOL    HW217832   4.338   0.647  12.537  1.8428 -0.3864 -1.1077
35968SOL     OW17833  12.401   4.598   2.529  0.4356  0.1504  0.0109
35968SOL    HW117834  12.422   4.631   2.442 -1.3228  0.4897 -0.3377
35968SOL    HW217835  12.392   4.504   2.517  1.2716  0.0568  0.0755
35969SOL     OW17836   2.908   5.059   8.058  0.4790  0.1162 -0.0923
35969SOL    HW117837   2.862   5.002   7.996  3.0471 -1.7346 -0.4981
35969SOL    HW217838   2.849   5.066   8.133 -0.6446 -1.7509 -0.7210
35970SOL     OW17839  12.619   1.895   5.832 -0.2532  0.0380 -0.2213
35970SOL    HW117840  12.604   1.980   5.790 -0.0143 -0.4709 -1.3792
35970SOL    HW217841  12.691   1.856   5.783 -1.1117 -1.3156 -0.4601
35971SOL     OW17842   4.733   7.190  13.138  0.5720  0.0447 -0.3101
35971SOL    HW117843   4.796   7.136  13.186 -1.1439 -0.7716  1.1529
35971SOL    HW217844   4.745   7.278  13.173  0.2889 -0.2862  0.6401
35972SOL     OW17845   7.282   5.178   9.432  0.0387  0.2872 -0.2305
35972SOL    HW117846   7.201   5.149   9.474  0.5790  0.0512  0.6877
35972SOL    HW217847   7.281   5.273   9.439  0.0478  0.2578  0.1798
35973SOL     OW17848  10.658  10.692   7.967 -0.2136  0.0990  0.6641
35973SOL    HW117849  10.661  10.697   8.062 -2.2133 -0.2341  0.7980
35973SOL    HW217850  10.613  10.772   7.940  2.4723  1.4191 -0.2544
35974SOL     OW17851  10.405   4.724   2.427 -0.1450 -0.8645  0.3798
35974SOL    HW117852  10.450   4.658   2.480 -0.5928 -0.1618  1.6895
35974SOL    HW217853  10.428   4.807   2.468  0.6292 -0.1450 -1.4065
35975SOL     OW17854  11.688   6.180   6.657 -0.3649 -0.3104  0.3290
35975SOL    HW117855  11.760   6.134   6.698  0.2215 -0.3415 -0.7093
35975SOL    HW217856  11.715   6.272   6.656  0.5144 -0.5439 -1.7149
35976SOL     OW17857   2.120  13.250   6.441  0.3990 -0.0602  0.8064
35976SOL    HW117858   2.056  13.205   6.386 -0.4163 -0.6081  2.1459
35976SOL    HW217859   2.172  13.180   6.480  1.5387  0.3601  0.0964
35977SOL     OW17860   6.035   6.442  10.328 -0.0034 -0.1070 -0.7079
35977SOL    HW117861   6.069   6.402  10.248 -0.9905 -1.9182 -0.2677
35977SOL    HW217862   6.101   6.424  10.394  0.7079  1.1975 -1.0273
35978SOL     OW17863   1.302   6.846   5.724 -0.3768 -0.1180 -0.0218
35978SOL    HW117864   1.268   6.768   5.681 -1.6975  0.7433 -0.5917
35978SOL    HW217865   1.380   6.869   5.674 -1.2317  0.1831 -1.2636
35979SOL     OW17866   3.384   2.333   0.382 -0.2923  0.6238  0.0349
35979SOL    HW117867   3.323   2.259   0.384 -1.6252  1.6755  1.9494
35979SOL    HW217868   3.407   2.346   0.474  0.3310  2.2475 -0.3316
35980SOL     OW17869   1.004  11.789   2.758  0.2575  1.1239  0.2019
35980SOL    HW117870   1.035  11.821   2.673 -1.3805  0.3628 -0.7331
35980SOL    HW217871   0.948  11.859   2.791  1.9182  1.9821  1.3177
35981SOL     OW17872   8.723   7.712   4.771  0.2239 -0.0230  0.4017
35981SOL    HW117873   8.779   7.655   4.823 -0.2571 -1.7760 -0.9094
35981SOL    HW217874   8.776   7.736   4.695 -0.0659  0.1151  0.2398
35982SOL     OW17875   7.501   0.908  12.676  0.0426  1.0016 -0.2081
35982SOL    HW117876   7.482   0.815  12.666  2.4266  0.6501 -2.4277
35982SOL    HW217877   7.436   0.952  12.620  0.2032  0.5047 -0.7926
35983SOL     OW17878   2.173  11.947   2.546 -0.3457 -0.0530 -0.7079
35983SOL    HW117879   2.253  11.980   2.585  0.6634 -1.4355 -1.5219
35983SOL    HW217880   2.156  11.865   2.591 -0.4017 -0.5553 -1.6159
35984SOL     OW17881   5.140   7.401  12.031 -0.0058 -0.4147  0.4333
35984SOL    HW117882   5.197   7.399  11.954 -0.3730  0.2472  0.1357
35984SOL    HW217883   5.077   7.331  12.017  0.5718 -0.9901  0.6477
35985SOL     OW17884   6.095   7.606   6.940  0.3233  0.2225  0.1071
35985SOL    HW117885   6.101   7.510   6.939 -0.0462  0.1959 -0.7320
35985SOL    HW217886   6.063   7.628   7.027 -0.7433 -0.5018 -0.0855
35986SOL     OW17887   9.236   5.758   1.958  0.9075 -0.2305 -0.1311
35986SOL    HW117888   9.322   5.722   1.981  1.7883  1.9290  0.1837
35986SOL    HW217889   9.253   5.851   1.940 -0.6549 -0.5500 -4.2137
35987SOL     OW17890  10.861   5.488   7.362  0.2552 -0.2847  0.4839
35987SOL    HW117891  10.886   5.407   7.318  0.6187 -0.7348  1.5050
35987SOL    HW217892  10.930   5.551   7.339 -0.2347 -0.1289 -0.6364
35988SOL     OW17893   7.879  11.773  11.378 -0.1482  0.1495 -0.6431
35988SOL    HW117894   7.823  11.751  11.453 -0.4454  0.2889 -0.8184
35988SOL    HW217895   7.827  11.746  11.302 -0.2406  0.8539 -0.8338
35989SOL     OW17896   1.845   8.481   8.088 -0.0485  0.3331 -0.3411
35989SOL    HW117897   1.817   8.426   8.014  0.2830 -1.7733  0.9972
35989SOL    HW217898   1.766   8.493   8.140  0.2269 -0.4078  0.2699
35990SOL     OW17899   1.794   1.172   4.347 -0.8506  0.8906 -0.2102
35990SOL    HW117900   1.772   1.092   4.395 -0.9753  1.1965  0.2485
35990SOL    HW217901   1.812   1.142   4.258 -2.9627  0.5866 -0.6026
35991SOL     OW17902   0.667   5.747   9.973  0.6782 -0.6654  0.0314
35991SOL    HW117903   0.674   5.798   9.893  2.2845 -0.0446  0.5373
35991SOL    HW217904   0.592   5.784  10.019 -0.7150 -1.4914 -1.4696
35992SOL     OW17905   5.835  12.861   6.443 -0.3311  0.6425 -0.1231
35992SOL    HW117906   5.891  12.784   6.447  0.6328  1.2453 -1.2539
35992SOL    HW217907   5.752  12.833   6.483 -0.5080 -1.4231 -1.7607
35993SOL     OW17908   7.595  12.337  12.756  0.0541  0.3289 -0.8713
35993SOL    HW117909   7.671  12.279  12.754  1.1559  1.7291 -1.3625
35993SOL    HW217910   7.608  12.391  12.835 -1.4376 -0.6671  0.1004
35994SOL     OW17911  13.088   9.893   5.655  0.3090 -0.3207  1.0311
35994SOL    HW117912  13.120   9.804   5.647 -0.7020 -0.6345  0.4021
35994SOL    HW217913  13.158   9.939   5.702  1.6181 -1.0074 -0.1839
35995SOL     OW17914  10.877   9.423   6.286 -0.0902 -0.6286 -0.1629
35995SOL    HW117915  10.916   9.497   6.334  0.3194 -0.8402 -0.1679
35995SOL    HW217916  10.829   9.465   6.214 -0.0664 -0.3552 -0.0242
35996SOL     OW17917   6.413  11.303   2.860  0.5111  0.6420  0.4907
35996SOL    HW117918   6.476  11.251   2.911 -0.5989 -0.3237  0.9059
35996SOL    HW217919   6.328  11.281   2.898 -0.2692  0.5216 -1.2643
35997SOL     OW17920   2.339   0.932   8.413  0.4093  0.5508  0.2752
35997SOL    HW117921   2.333   0.931   8.317 -0.5751 -1.1637  0.3133
35997SOL    HW217922   2.251   0.957   8.442  0.5415  0.4678  0.7501
35998SOL     OW17923   5.623   3.123  10.831  0.3299  0.2581  0.3841
35998SOL    HW117924   5.674   3.166  10.900  0.2747  0.0354  0.5631
35998SOL    HW217925   5.555   3.187  10.809  1.6422  1.2568 -1.0069
35999SOL     OW17926   6.296   0.063   8.615 -0.4100 -0.6057 -0.3899
35999SOL    HW117927   6.359   0.010   8.663 -0.2755 -0.3819 -0.3146
35999SOL    HW217928   6.277   0.014   8.535  1.3043  0.1893 -1.3333
36000SOL     OW17929  10.178   5.594   5.219 -0.1448  0.2670  0.3736
36000SOL    HW117930  10.086   5.593   5.246 -0.1541 -0.0969  0.3415
36000SOL    HW217931  10.194   5.683   5.190 -0.8601  0.0248 -0.8543
36001SOL     OW17932   0.904   6.235  12.616  0.3902 -0.0826  0.0299
36001SOL    HW117933   0.859   6.270  12.693  0.3750 -1.6468  0.7747
36001SOL    HW217934   0.951   6.310  12.579 -1.2978  1.1789  0.3112
36002SOL     OW17935   9.926   0.685   0.482  0.1633 -0.3229 -0.3194
36002SOL    HW117936   9.841   0.666   0.522  0.9879 -2.2824  0.6157
36002SOL    HW217937   9.984   0.704   0.555  1.2225 -2.0221 -0.6503
36003SOL     OW17938   3.337  10.355   8.719  0.1270  0.1471 -0.1139
36003SOL    HW117939   3.249  10.369   8.752  0.0950 -1.1802  0.4555
36003SOL    HW217940   3.353  10.261   8.734  1.5602  0.3288 -0.3553
36004SOL     OW17941  12.068  11.123   2.344 -0.8701  0.0429 -0.4554
36004SOL    HW117942  12.137  11.185   2.322 -0.1038 -0.3411  0.8324
36004SOL    HW217943  11.997  11.145   2.283 -1.5986  3.8125  1.4595
36005SOL     OW17944   4.177   9.727   1.696  0.1487 -0.3780 -0.6323
36005SOL    HW117945   4.165   9.763   1.608  0.3624  0.8685 -0.1672
36005SOL    HW217946   4.264   9.755   1.723  0.4425 -1.5070 -0.3564
36006SOL     OW17947   5.244   5.953  12.097  0.3928  0.5064  0.8733
36006SOL    HW117948   5.310   5.971  12.029  0.1452  0.1420  0.5289
36006SOL    HW217949   5.186   5.888  12.057 -0.9715  1.7968  0.6654
36007SOL     OW17950   0.200   0.698   7.876 -0.0218  0.2965 -0.5260
36007SOL    HW117951   0.143   0.678   7.950 -0.3245  1.2485 -0.4830
36007SOL    HW217952   0.284   0.657   7.897 -0.3049  0.0001  0.0299
36008SOL     OW17953   2.418   8.656   3.333  0.3330 -0.4745 -0.1374
36008SOL    HW117954   2.401   8.747   3.355  1.5607 -0.3294  0.2588
36008SOL    HW217955   2.403   8.651   3.239  1.3634  0.4093 -0.3671
36009SOL     OW17956   7.391   9.734   2.820 -0.1964 -0.1355 -0.1024
36009SOL    HW117957   7.424   9.679   2.891  2.3214  0.0587 -1.0387
36009SOL    HW217958   7.441   9.707   2.743 -2.0160  0.4790 -1.5907
36010SOL     OW17959  12.146   1.327   7.800 -0.7211 -0.1429 -0.3360
36010SOL    HW117960  12.155   1.398   7.864 -2.1234 -1.1048  0.9949
36010SOL    HW217961  12.233   1.288   7.796 -0.2969  0.7380  0.0062
36011SOL     OW17962   1.861   6.622   7.103 -0.0847  0.3170 -0.0451
36011SOL    HW117963   1.956   6.637   7.099  0.1111 -0.9184 -0.8073
36011SOL    HW217964   1.824   6.707   7.127  1.2991  0.5122  1.5564
36012SOL     OW17965   3.559   2.481   9.220  0.0278 -0.5306 -0.4141
36012SOL    HW117966   3.464   2.488   9.212 -0.0127 -0.6183 -0.0553
36012SOL    HW217967   3.573   2.460   9.313  0.5023  1.4223 -0.0021
36013SOL     OW17968   7.003   1.313   1.839  0.3231  0.3041  0.0057
36013SOL    HW117969   6.968   1.298   1.927  1.9134  2.4186  1.1149
36013SOL    HW217970   6.940   1.373   1.798  0.3373  0.5349  0.3117
36014SOL     OW17971   0.455   6.240   0.185 -0.1922 -0.2342 -0.2712
36014SOL    HW117972   0.396   6.247   0.110  0.1495  0.8694 -0.4556
36014SOL    HW217973   0.542   6.237   0.147 -0.1058 -1.7121  0.0099
36015SOL     OW17974  13.309   1.283   4.788 -0.2145  0.0708 -0.7200
36015SOL    HW117975  13.312   1.348   4.858 -1.2703 -0.8958  0.2701
36015SOL    HW217976  13.364   1.211   4.819 -1.3379 -0.7127 -0.4577
36016SOL     OW17977  11.490   3.114   3.705 -0.1389  0.6084  0.0514
36016SOL    HW117978  11.436   3.191   3.719  0.1423  0.4395  2.4173
36016SOL    HW217979  11.434   3.040   3.731 -0.2192  0.0102 -1.6644
36017SOL     OW17980   0.534   9.202   5.173 -0.0058  0.1762 -0.3430
36017SOL    HW117981   0.515   9.265   5.243 -2.1911 -0.4197 -0.3264
36017SOL    HW217982   0.580   9.254   5.107  1.1876  0.9878  1.0661
36018SOL     OW17983   9.828   0.344   0.561 -0.4535 -0.3380  0.6735
36018SOL    HW117984   9.853   0.265   0.513  0.0926  1.0834 -1.5413
36018SOL    HW217985   9.910   0.377   0.599  0.1140  1.1144 -1.5956
36019SOL     OW17986   9.515   7.717   2.166  0.5434 -0.1554  0.3615
36019SOL    HW117987   9.430   7.733   2.208 -0.6438  1.5487 -2.4647
36019SOL    HW217988   9.516   7.622   2.152 -0.9147 -0.2108  0.4317
36020SOL     OW17989  12.212   3.527   0.423  0.2278  0.2086 -0.2285
36020SOL    HW117990  12.129   3.484   0.405  0.4484  0.1216 -1.0906
36020SOL    HW217991  12.246   3.482   0.500  0.8169 -1.7126 -1.5454
36021SOL     OW17992  10.308  10.626  11.259  0.8756 -0.3716 -0.2633
36021SOL    HW117993  10.269  10.550  11.302  1.1790  0.4222  1.5086
36021SOL    HW217994  10.233  10.674  11.224  0.1069  1.0865  3.0204
36022SOL     OW17995   0.201   7.607   4.509 -0.5107 -0.0426  0.3355
36022SOL    HW117996   0.163   7.536   4.459 -1.1544  1.1134 -0.8772
36022SOL    HW217997   0.144   7.682   4.493  1.6670  1.5062 -0.7683
36023SOL     OW17998   9.282   6.757   0.217 -0.2297 -0.2364 -1.0032
36023SOL    HW117999   9.295   6.668   0.251 -0.3568 -0.4540 -1.5059
36023SOL    HW218000   9.210   6.792   0.269  1.2405  0.3932  0.7073
36024SOL     OW18001  10.778   5.047   4.203 -0.0815  0.3074 -0.3197
36024SOL    HW118002  10.871   5.061   4.217  0.3817 -1.4186 -1.3605
36024SOL    HW218003  10.743   5.026   4.289  0.7425 -0.2004 -0.1006
36025SOL     OW18004  11.027   5.219   2.509  0.1406  0.1431 -0.1694
36025SOL    HW118005  11.036   5.162   2.433  2.7248 -2.3371  1.7755
36025SOL    HW218006  11.056   5.305   2.478  1.1445 -0.7834 -2.0022
36026SOL     OW18007  12.018  10.531  11.493  0.3219 -0.3662 -0.2034
36026SOL    HW118008  12.055  10.583  11.421 -0.5193  0.7514  0.1429
36026SOL    HW218009  12.069  10.557  11.570 -2.6747  3.1953  0.8333
36027SOL     OW18010   0.187  10.134   8.550  0.1878 -0.2373  0.0520
36027SOL    HW118011   0.176  10.049   8.593  2.3137 -1.4312 -1.5495
36027SOL    HW218012   0.130  10.131   8.474 -0.1531  0.0162  0.2941
36028SOL     OW18013   7.965  13.155  13.152 -0.1034 -0.1965 -0.2633
36028SOL    HW118014   7.930  13.095  13.218 -0.5255  0.5855  0.2542
36028SOL    HW218015   7.895  13.161  13.087 -0.4837  0.4811  0.1902
36029SOL     OW18016   8.355   5.900   0.698  0.2081 -0.5742 -0.2814
36029SOL    HW118017   8.311   5.910   0.782  0.5250  0.2764 -0.2000
36029SOL    HW218018   8.289   5.860   0.641  0.1339 -1.5582  0.4797
36030SOL     OW18019  11.850   9.124   2.073 -0.4459  0.1766 -0.6845
36030SOL    HW118020  11.834   9.045   2.022 -1.5850  0.0831 -0.2217
36030SOL    HW218021  11.885   9.093   2.156 -2.7435 -0.0643  0.2845
36031SOL     OW18022   1.004  11.660   0.766 -0.0168  0.0541 -0.4488
36031SOL    HW118023   0.909  11.655   0.774  0.1295 -0.6988  1.1933
36031SOL    HW218024   1.028  11.583   0.716 -0.2563  0.1166 -0.6601
36032SOL     OW18025   0.995   9.705   1.837  0.3878  0.4259 -0.4556
36032SOL    HW118026   0.942   9.784   1.845 -0.3349 -0.2138  1.9312
36032SOL    HW218027   0.934   9.639   1.805  0.8761  0.6832 -1.9880
36033SOL     OW18028   7.915   4.902  10.813  0.3195  0.5275  0.0852
36033SOL    HW118029   7.905   4.866  10.901  2.0712  3.3256  1.5847
36033SOL    HW218030   7.830   4.941  10.793 -0.3060 -0.7399  0.1808
36034SOL     OW18031  12.434   1.485   2.506 -0.3602  0.3282 -0.4382
36034SOL    HW118032  12.427   1.562   2.450  1.4840  1.6089  0.9615
36034SOL    HW218033  12.384   1.509   2.585 -0.0541 -0.0447 -0.1271
36035SOL     OW18034   2.287   7.862   9.448  0.2227  0.1737  0.0145
36035SOL    HW118035   2.223   7.929   9.424  0.8270  0.7926  0.1265
36035SOL    HW218036   2.337   7.847   9.368  0.0937 -0.1490 -0.0094
36036SOL     OW18037   4.842   3.853   9.479 -0.6342 -0.0267  0.5665
36036SOL    HW118038   4.766   3.812   9.519  0.9887 -1.7865  2.0557
36036SOL    HW218039   4.898   3.877   9.552  1.0722 -0.4868 -0.5316
36037SOL     OW18040   7.065  13.281   6.964  0.1370 -0.6874 -0.0576
36037SOL    HW118041   7.102  13.328   7.039  0.9815  0.3970 -1.1074
36037SOL    HW218042   7.105  13.194   6.967  1.3925 -0.1321 -0.1317
36038SOL     OW18043   9.192   7.874   1.540  0.1423  0.4742 -0.1873
36038SOL    HW118044   9.127   7.805   1.557  0.3684  0.1019 -0.8092
36038SOL    HW218045   9.140   7.952   1.523 -0.1098  0.6222  1.1453
36039SOL     OW18046   1.278   6.258   7.459  0.4474 -0.2441 -0.1443
36039SOL    HW118047   1.319   6.195   7.400  2.4629 -0.4417  1.3670
36039SOL    HW218048   1.302   6.343   7.424 -0.9471 -0.2844 -1.2895
36040SOL     OW18049   5.191   5.532  11.427 -0.4705 -0.1751 -0.5323
36040SOL    HW118050   5.162   5.600  11.366  0.0692  0.1121 -0.4673
36040SOL    HW218051   5.162   5.450  11.386 -0.8970  0.0731 -0.7346
36041SOL     OW18052  10.041   9.414   3.561 -0.6767  0.1685  0.3199
36041SOL    HW118053  10.073   9.326   3.582  1.6028  0.9448  0.3464
36041SOL    HW218054  10.037   9.416   3.465 -0.4841  0.1193  0.3114
36042SOL     OW18055  11.882   3.662  11.351  0.2251  0.1478 -0.1528
36042SOL    HW118056  11.956   3.683  11.409  0.6203  0.8542 -0.8920
36042SOL    HW218057  11.904   3.576  11.314  0.9799  0.6048 -0.8061
36043SOL     OW18058   2.844  13.127   0.360  0.0935  0.1937  0.0813
36043SOL    HW118059   2.864  13.194   0.294  0.9382 -0.5389 -0.4411
36043SOL    HW218060   2.761  13.154   0.398 -0.9398  0.1317 -1.9847
36044SOL     OW18061  11.290   8.606  12.643  0.0222 -0.0630 -0.1002
36044SOL    HW118062  11.307   8.556  12.723  2.8105  0.2932 -0.3478
36044SOL    HW218063  11.244   8.545  12.586 -2.7181 -0.0803  1.9576
36045SOL     OW18064  12.302   8.484   2.496  0.1088  0.4533 -0.2653
36045SOL    HW118065  12.277   8.568   2.458  2.0758  0.9456 -0.6092
36045SOL    HW218066  12.278   8.492   2.588  0.1752  1.3828 -0.3109
36046SOL     OW18067   6.038   5.571   0.229  0.1690  0.0929  0.0931
36046SOL    HW118068   6.094   5.494   0.217 -1.1248 -0.9848  0.6235
36046SOL    HW218069   6.005   5.562   0.318 -0.5754  0.8746 -0.0956
36047SOL     OW18070  11.099   9.562   2.078 -0.7580  0.1048  0.3092
36047SOL    HW118071  11.181   9.513   2.077 -0.4590  0.5544  1.4291
36047SOL    HW218072  11.068   9.560   1.987  1.2428  1.2071 -0.4498
36048SOL     OW18073   7.799  11.858   8.800  0.0091 -0.6775  0.3490
36048SOL    HW118074   7.742  11.934   8.804  1.1708  0.1898  0.8026
36048SOL    HW218075   7.817  11.846   8.706 -0.0800 -0.3196  0.2849
36049SOL     OW18076   8.326   3.088   2.676  0.4276  0.2122 -0.1913
36049SOL    HW118077   8.317   3.183   2.684 -2.5070 -0.0289  0.8031
36049SOL    HW218078   8.323   3.055   2.766  1.9592 -0.8273 -0.4842
36050SOL     OW18079   2.509   6.907   7.759  0.1043  0.0647  0.0405
36050SOL    HW118080   2.526   6.818   7.790  1.1860 -0.0124 -0.7027
36050SOL    HW218081   2.420   6.926   7.789  0.7310 -0.3387  2.3245
36051SOL     OW18082   2.102   5.878  11.901  0.1424 -0.2498 -0.0738
36051SOL    HW118083   2.192   5.849  11.886  0.8580  0.7917  1.8458
36051SOL    HW218084   2.062   5.807  11.951 -0.1059 -0.6848 -0.8719
36052SOL     OW18085   2.699  10.486   8.463 -0.2517 -0.2712 -0.4551
36052SOL    HW118086   2.680  10.402   8.505  0.4185 -0.3982 -0.3829
36052SOL    HW218087   2.729  10.542   8.535  0.3134 -0.2969 -0.6661
36053SOL     OW18088   2.270   9.039   7.488  0.4083 -0.0780  0.2460
36053SOL    HW118089   2.276   9.066   7.580  1.5505  2.5511 -0.4871
36053SOL    HW218090   2.251   9.120   7.441 -1.9107 -1.6493 -1.7296
36054SOL     OW18091  10.390   9.225   4.021 -0.2288  0.1929  0.4807
36054SOL    HW118092  10.406   9.277   4.100  1.3673  0.7530 -0.1653
36054SOL    HW218093  10.372   9.291   3.953 -0.6495 -0.2369  0.1678
36055SOL     OW18094  11.086   0.705   1.061 -0.6844  0.3810 -0.2945
36055SOL    HW118095  11.107   0.757   1.138  1.2008 -0.9863  0.1809
36055SOL    HW218096  10.990   0.702   1.060 -0.7680  0.8279  1.7171
36056SOL     OW18097  10.751  11.879   1.777  0.2361  0.7212 -0.0202
36056SOL    HW118098  10.656  11.895   1.780 -0.2841 -1.9108  3.2660
36056SOL    HW218099  10.785  11.922   1.856  1.3528 -0.5105  0.1898
36057SOL     OW18100   4.134   1.094  12.450  0.0623  0.5482 -0.0545
36057SOL    HW118101   4.132   1.130  12.361 -1.0668  2.4592  0.6818
36057SOL    HW218102   4.098   1.006  12.441 -0.9857  1.0686 -1.3708
36058SOL     OW18103   2.382   5.317   0.943  0.4704  0.3632 -0.4700
36058SOL    HW118104   2.470   5.334   0.977  0.3857  1.4853 -0.7516
36058SOL    HW218105   2.324   5.345   1.013  0.3313  0.1479 -0.5000
36059SOL     OW18106   9.298   1.744   0.385 -0.1047  0.2125 -0.1294
36059SOL    HW118107   9.272   1.810   0.321  1.4585 -1.1117 -2.2766
36059SOL    HW218108   9.218   1.693   0.401 -0.2845 -0.1590 -2.0132
36060SOL     OW18109   7.210   9.104  12.284  0.1046  0.5358  0.2557
36060SOL    HW118110   7.271   9.149  12.225  0.0464 -0.3532 -0.5129
36060SOL    HW218111   7.128   9.153  12.276 -0.4557 -0.5930 -1.8597
36061SOL     OW18112   3.483   1.469   2.562 -0.8182  0.2573 -0.5839
36061SOL    HW118113   3.415   1.495   2.499 -1.5358 -1.3003 -0.4994
36061SOL    HW218114   3.511   1.383   2.532  1.7062  1.1504 -1.0459
36062SOL     OW18115   4.622   6.808   2.151 -0.2037 -0.2761  0.6511
36062SOL    HW118116   4.537   6.766   2.133  0.4054 -1.4184  0.3175
36062SOL    HW218117   4.682   6.768   2.089  0.3065  1.6103 -0.1172
36063SOL     OW18118   1.742   9.483  11.708 -0.3205  0.3741  0.4281
36063SOL    HW118119   1.798   9.561  11.709 -0.4475  0.4659  1.4597
36063SOL    HW218120   1.658   9.515  11.674 -0.0195  0.4280 -0.2750
36064SOL     OW18121   9.848   3.094   5.048 -0.0141  0.0110 -0.2933
36064SOL    HW118122   9.935   3.134   5.048  0.3554 -0.7161  1.7135
36064SOL    HW218123   9.864   3.001   5.032 -0.4813 -0.0462 -0.4486
36065SOL     OW18124   5.805   7.861  12.433 -0.0794  0.1894  0.3644
36065SOL    HW118125   5.782   7.773  12.463 -0.2332  0.0443 -0.1661
36065SOL    HW218126   5.900   7.861  12.430 -0.0520 -1.2079 -3.1418
36066SOL     OW18127   5.087  12.545   6.650 -0.1425 -0.2826  0.5604
36066SOL    HW118128   5.080  12.521   6.742 -1.1074  0.3135  0.6550
36066SOL    HW218129   5.026  12.618   6.639  1.9528  1.4864  0.0711
36067SOL     OW18130   8.100   5.041   6.526 -0.1296  0.4024  0.3209
36067SOL    HW118131   8.072   4.998   6.445 -0.7682  2.4323 -0.5891
36067SOL    HW218132   8.026   5.029   6.586  0.0339 -0.4481  0.3627
36068SOL     OW18133   4.732   7.908  10.954  0.0012  0.2228  0.1603
36068SOL    HW118134   4.800   7.883  10.891 -0.4419 -1.9413  0.4496
36068SOL    HW218135   4.773   7.894  11.039  0.0799  1.6158  0.3680
36069SOL     OW18136   5.104   0.730   5.273  0.0380  0.0216  0.2157
36069SOL    HW118137   5.010   0.723   5.292 -0.0007  0.3852  0.1592
36069SOL    HW218138   5.108   0.758   5.181  0.1350  2.8541  0.9923
36070SOL     OW18139   8.477   3.368   1.964  0.1612  0.3047  0.5015
36070SOL    HW118140   8.489   3.448   1.913  0.5991 -0.0970 -0.0433
36070SOL    HW218141   8.416   3.393   2.034  2.3185  1.8543  1.9894
36071SOL     OW18142   2.627   6.750   1.227  0.7214 -0.0675  0.1550
36071SOL    HW118143   2.612   6.660   1.255 -0.3054  0.3289  0.9623
36071SOL    HW218144   2.588   6.756   1.140  0.5854 -0.3433  0.1974
36072SOL     OW18145   3.471  11.277   7.870  0.4262  0.0316 -0.2732
36072SOL    HW118146   3.412  11.215   7.913  1.2808 -0.0365  0.8901
36072SOL    HW218147   3.558  11.249   7.899  1.1036 -0.2531 -2.4261
36073SOL     OW18148  10.532   1.529   2.144  0.1307  0.3255 -0.0926
36073SOL    HW118149  10.438   1.532   2.161 -0.4048 -0.3714 -2.5358
36073SOL    HW218150  10.571   1.509   2.229 -2.0489 -0.9442  0.6951
36074SOL     OW18151  10.703   5.874   1.402  0.0141 -0.7166 -0.2219
36074SOL    HW118152  10.789   5.834   1.415 -0.4135 -1.0813  1.9216
36074SOL    HW218153  10.690   5.929   1.479 -1.5240 -0.3904 -0.6752
36075SOL     OW18154   8.468   8.379   0.261  0.1162  0.0507  0.3296
36075SOL    HW118155   8.460   8.285   0.246  1.1240 -0.0012  0.0025
36075SOL    HW218156   8.483   8.387   0.356 -1.0088 -0.0289  0.5239
36076SOL     OW18157  12.950   4.850  10.567  0.4318 -0.1448 -0.7319
36076SOL    HW118158  12.920   4.806  10.487  1.6243  0.8528 -1.7581
36076SOL    HW218159  13.045   4.849  10.561  0.5139  1.8818 -0.4173
36077SOL     OW18160   1.480   9.393   9.054 -0.3941 -0.1642 -0.2573
36077SOL    HW118161   1.433   9.343   8.987  2.3296 -0.9239 -1.7331
36077SOL    HW218162   1.547   9.334   9.086  0.6687  1.4057  0.5233
36078SOL     OW18163   1.572  11.867   4.717 -0.0883 -0.4258 -0.3568
36078SOL    HW118164   1.620  11.798   4.670  0.9377 -0.1563  0.2734
36078SOL    HW218165   1.480  11.844   4.705  0.1725 -0.8127 -1.8069
36079SOL     OW18166   0.729   5.530  11.551 -0.4548  0.0618 -0.8199
36079SOL    HW118167   0.780   5.449  11.558 -0.3810  0.1744  0.1530
36079SOL    HW218168   0.754   5.580  11.629 -2.0198  0.1374 -0.3394
36080SOL     OW18169  12.923   6.998  10.443 -0.2361  0.6136 -0.1791
36080SOL    HW118170  13.012   7.034  10.440  0.6527 -1.4948 -1.0050
36080SOL    HW218171  12.912   6.956  10.358 -1.7323  0.1521  0.2202
36081SOL     OW18172   7.655   6.725  10.515  0.8481  0.4024 -0.1351
36081SOL    HW118173   7.603   6.805  10.518  0.2024 -0.0470  1.3218
36081SOL    HW218174   7.592   6.654  10.525  1.6276 -0.1839  0.9410
36082SOL     OW18175  11.165   3.634  10.032  0.7621  0.1041 -0.1791
36082SOL    HW118176  11.206   3.605   9.950  0.1735 -0.2362 -0.3594
36082SOL    HW218177  11.203   3.578  10.099 -0.5693 -1.3217 -0.5600
36083SOL     OW18178   5.232   2.192   7.737  0.4735  0.2428 -0.0027
36083SOL    HW118179   5.324   2.184   7.713  0.1221  0.4001 -1.4771
36083SOL    HW218180   5.219   2.124   7.804  1.5510 -0.0469 -0.0655
36084SOL     OW18181   6.113   6.070   8.259 -0.9376  0.2631  0.4069
36084SOL    HW118182   6.040   6.047   8.317 -0.0275 -0.0903  1.4273
36084SOL    HW218183   6.179   6.107   8.317 -0.7953  1.8327 -0.6725
36085SOL     OW18184   6.048  12.828   9.427 -0.1098  0.3942 -0.5276
36085SOL    HW118185   6.033  12.922   9.434 -0.0646  0.3703 -0.0863
36085SOL    HW218186   6.131  12.820   9.379  0.7626  0.6201  0.9002
36086SOL     OW18187   3.773   4.993   1.428 -0.4973  0.1339 -0.2538
36086SOL    HW118188   3.835   5.027   1.492  0.3262  0.7617 -1.3571
36086SOL    HW218189   3.749   5.068   1.374 -1.4472 -0.3083 -0.4744
36087SOL     OW18190   6.688   8.674   8.922  0.4383 -0.2428  0.3827
36087SOL    HW118191   6.746   8.628   8.861 -0.4486 -0.9553  0.0488
36087SOL    HW218192   6.656   8.749   8.872  1.5210  0.5154  0.7716
36088SOL     OW18193   2.630   8.558   3.762 -0.3891  0.0321 -0.1617
36088SOL    HW118194   2.548   8.600   3.790 -0.3229 -0.0892  0.2293
36088SOL    HW218195   2.647   8.492   3.830  0.0471  0.0791 -0.2213
36089SOL     OW18196   2.643   8.882   7.586  0.1283 -0.1352 -0.1919
36089SOL    HW118197   2.588   8.860   7.661 -0.4008 -1.9847 -1.0840
36089SOL    HW218198   2.707   8.811   7.582 -0.8528 -0.9713 -2.4334
36090SOL     OW18199   6.314  10.898   5.750  0.0277  0.1132  0.6711
36090SOL    HW118200   6.332  10.960   5.821  1.1631  1.2395 -0.5248
36090SOL    HW218201   6.341  10.945   5.671 -2.1884 -0.6740 -0.6513
36091SOL     OW18202   8.409   1.436  12.538 -0.0736  0.6197 -0.3281
36091SOL    HW118203   8.397   1.518  12.587 -2.1820  0.2184 -0.0511
36091SOL    HW218204   8.339   1.437  12.473 -0.7279 -1.3395  0.2603
36092SOL     OW18205   4.127  13.151  11.468  0.6162  0.0508  0.4617
36092SOL    HW118206   4.155  13.096  11.395  1.1544  1.9806 -0.8711
36092SOL    HW218207   4.043  13.114  11.495 -0.6341  0.4379 -2.5088
36093SOL     OW18208   0.922   7.245   5.002  0.2039  0.4879  0.3835
36093SOL    HW118209   0.834   7.241   4.963  0.4778 -2.5464 -0.2037
36093SOL    HW218210   0.915   7.311   5.071 -3.0198 -0.7666  1.4343
36094SOL     OW18211  10.294   8.647  10.445  0.7190  0.5683  0.2724
36094SOL    HW118212  10.243   8.642  10.364  1.2143  1.9442 -0.1422
36094SOL    HW218213  10.369   8.591  10.428  0.1368 -0.2494  0.3131
36095SOL     OW18214  13.148   4.452   2.542  0.4652  0.1220 -0.5525
36095SOL    HW118215  13.209   4.523   2.564  1.1619 -0.1806 -1.4782
36095SOL    HW218216  13.185   4.375   2.585 -0.8116  0.4733  1.2714
36096SOL     OW18217   3.233   5.354   9.652 -0.2484 -0.4217  0.4495
36096SOL    HW118218   3.304   5.291   9.665 -0.5230 -0.4917  1.7597
36096SOL    HW218219   3.190   5.324   9.572 -0.2323 -1.7751  0.9145
36097SOL     OW18220   9.425   8.385   2.441  0.1812  0.1873  0.2183
36097SOL    HW118221   9.336   8.372   2.409 -0.3186 -0.5413  1.8016
36097SOL    HW218222   9.451   8.470   2.405 -0.9638  0.2066 -0.6404
36098SOL     OW18223  11.493   9.006   4.912 -0.2187  0.0379 -0.7635
36098SOL    HW118224  11.421   8.970   4.964 -1.3320  2.4852 -0.4522
36098SOL    HW218225  11.531   9.074   4.968 -0.6119  1.8746 -2.5865
36099SOL     OW18226   3.086   8.560   8.196  0.0524 -0.8875  0.4630
36099SOL    HW118227   3.106   8.654   8.201 -0.1374 -0.8281  0.1796
36099SOL    HW218228   2.993   8.557   8.173 -0.4064 -1.1504  2.1853
36100SOL     OW18229   1.134  12.377  10.555 -0.2364 -0.0223 -0.4157
36100SOL    HW118230   1.068  12.317  10.589  0.8558 -1.4101 -0.6134
36100SOL    HW218231   1.085  12.453  10.523 -1.9115 -1.7003 -2.0937
36101SOL     OW18232   3.389   2.320   9.915  0.0320  0.4667 -0.0305
36101SOL    HW118233   3.465   2.365   9.876 -0.4939  1.7928  0.3956
36101SOL    HW218234   3.331   2.303   9.841  1.7401 -2.8405 -0.7950
36102SOL     OW18235   0.164   7.106   9.535 -0.0940  0.4801  0.6006
36102SOL    HW118236   0.072   7.127   9.522 -0.1862 -0.5079 -0.4735
36102SOL    HW218237   0.198   7.178   9.588 -1.4291  0.9567  0.8324
36103SOL     OW18238  11.066   4.667   8.290 -0.4588 -0.0556  0.2827
36103SOL    HW118239  11.102   4.702   8.372  0.4502  0.5065 -0.3451
36103SOL    HW218240  10.988   4.721   8.274  0.5607  1.2980 -0.3248
36104SOL     OW18241   1.978   0.731   5.537 -0.2657 -0.3154  0.2024
36104SOL    HW118242   2.011   0.765   5.620  0.4685 -0.4577 -0.0231
36104SOL    HW218243   1.922   0.801   5.503  1.0086  0.5800 -0.1295
36105SOL     OW18244   5.376  12.912   6.702 -0.3194 -0.4649  1.0410
36105SOL    HW118245   5.341  12.823   6.697 -0.3913 -0.4369  1.0376
36105SOL    HW218246   5.314  12.958   6.758 -1.3625  0.0969 -0.5227
36106SOL     OW18247  12.689   6.257   6.544 -0.2638  0.4512  0.0686
36106SOL    HW118248  12.738   6.180   6.574 -0.2741  0.8382  1.1056
36106SOL    HW218249  12.702   6.257   6.449  3.6827  1.7818  0.4122
36107SOL     OW18250  12.024   8.377   8.434  0.3240 -0.2939 -0.8480
36107SOL    HW118251  11.973   8.369   8.514  1.7819 -1.1960  0.0370
36107SOL    HW218252  11.963   8.416   8.371 -0.5344  1.5107  0.9737
36108SOL     OW18253   2.921  10.625   7.851  0.3182 -0.2748  0.1371
36108SOL    HW118254   2.931  10.566   7.926  0.3493  0.0721  0.4119
36108SOL    HW218255   2.898  10.709   7.891  1.5570  0.2199 -0.1726
36109SOL     OW18256   4.304   6.028  12.994 -0.2731  0.1664  0.8264
36109SOL    HW118257   4.270   6.107  12.952  0.6390  0.1249 -0.0040
36109SOL    HW218258   4.327   6.055  13.083 -1.0627  0.5432  0.9229
36110SOL     OW18259   4.303   8.391  11.500 -0.3039 -0.2832 -0.0623
36110SOL    HW118260   4.275   8.479  11.476  0.4250 -0.1531 -0.4536
36110SOL    HW218261   4.384   8.377  11.451 -0.4346 -1.1871 -0.0403
36111SOL     OW18262   8.980   4.535   1.323 -0.2798  0.0546 -0.5753
36111SOL    HW118263   8.895   4.576   1.340  0.0625  0.0910  1.3282
36111SOL    HW218264   8.962   4.470   1.256 -1.6791  0.5041 -0.6809
36112SOL     OW18265   9.093   7.043   7.643 -0.5192 -0.1565 -0.0250
36112SOL    HW118266   9.167   6.985   7.622 -0.9583 -1.0339  0.7672
36112SOL    HW218267   9.107   7.067   7.735 -2.0866 -1.7280  0.6869
36113SOL     OW18268  11.968   1.028   5.444  0.0732  0.4737  0.0628
36113SOL    HW118269  11.970   0.949   5.389 -0.6566 -0.5913  1.4869
36113SOL    HW218270  11.883   1.067   5.426  0.0906  0.4750 -0.0199
36114SOL     OW18271   2.128   5.720   8.127 -0.4820  0.0011 -0.2052
36114SOL    HW118272   2.217   5.717   8.161 -0.6192 -0.7340  0.1250
36114SOL    HW218273   2.072   5.713   8.205 -0.8491  1.5602 -0.3065
36115SOL     OW18274   0.299   4.228   7.575  0.5367  0.7962  0.2240
36115SOL    HW118275   0.317   4.135   7.593  0.2099  0.7689  0.4297
36115SOL    HW218276   0.304   4.235   7.480  1.5846  0.7884  0.2718
36116SOL     OW18277  12.698   3.551   5.057  0.3797 -0.3044  0.0081
36116SOL    HW118278  12.722   3.631   5.102  0.2194  0.0066 -0.4496
36116SOL    HW218279  12.628   3.513   5.110  0.0810  0.1387 -0.0603
36117SOL     OW18280   2.825   9.827   9.920  0.4605  0.1875  0.1471
36117SOL    HW118281   2.863   9.879   9.991 -1.3934  0.0636  1.3132
36117SOL    HW218282   2.900   9.786   9.877  1.8212  2.1651  0.5083
36118SOL     OW18283   8.405   0.627  12.377  0.2888  0.6730  0.4645
36118SOL    HW118284   8.498   0.647  12.378  0.2239  0.9566  1.2767
36118SOL    HW218285   8.396   0.550  12.432  0.3602 -0.9196 -1.6209
36119SOL     OW18286  12.902   9.451   6.775 -0.2918 -0.1723 -0.7209
36119SOL    HW118287  12.987   9.416   6.748  0.0927 -1.6935  2.0375
36119SOL    HW218288  12.922   9.504   6.852 -1.9803 -2.7391  1.6724
36120SOL     OW18289   5.526  12.593   0.226  0.2500 -0.5527 -0.3529
36120SOL    HW118290   5.607  12.542   0.222  0.0557 -0.8917 -0.0232
36120SOL    HW218291   5.457  12.530   0.211 -0.1283 -0.8008  1.9450
36121SOL     OW18292   5.734  12.777   3.340 -0.1029  0.0203  0.6142
36121SOL    HW118293   5.776  12.793   3.425 -0.8918  0.0489  1.0131
36121SOL    HW218294   5.745  12.859   3.292 -0.9396  0.5418  1.2673
36122SOL     OW18295  10.936   1.404  12.782 -0.0341  0.2737 -0.4793
36122SOL    HW118296  11.016   1.372  12.741  0.4553 -1.2753  1.5280
36122SOL    HW218297  10.965   1.454  12.858 -0.9486 -0.4739  0.3904
36123SOL     OW18298   3.039   4.115   7.998 -0.6209  0.4072 -0.5665
36123SOL    HW118299   2.991   4.124   8.080  1.0993 -2.8674  0.9751
36123SOL    HW218300   3.116   4.172   8.008 -1.5891  1.8705 -1.0201
36124SOL     OW18301   7.055   6.788   5.853  0.0525  0.0498  0.4190
36124SOL    HW118302   6.974   6.782   5.802  1.1177  1.0798 -1.4882
36124SOL    HW218303   7.042   6.726   5.925 -2.2391 -0.1371 -0.0715
36125SOL     OW18304  12.310   0.444   6.194 -0.0593 -0.3664 -0.6027
36125SOL    HW118305  12.227   0.486   6.168  0.7166  1.8333  0.2782
36125SOL    HW218306  12.291   0.405   6.279 -0.1819  0.2258 -0.3498
36126SOL     OW18307   8.717   6.584   6.420  0.5177 -0.1664 -0.1707
36126SOL    HW118308   8.753   6.570   6.507 -0.1851 -1.2279 -0.0240
36126SOL    HW218309   8.622   6.571   6.431 -0.0871  3.2554 -0.3977
36127SOL     OW18310   7.082   2.121  11.912  0.0048  0.4567 -0.2192
36127SOL    HW118311   7.011   2.185  11.904 -1.8286 -1.2574  1.1005
36127SOL    HW218312   7.086   2.078  11.827  0.6633  1.6985 -0.8377
36128SOL     OW18313  10.991  10.251   6.684 -0.2965  0.1554  0.6051
36128SOL    HW118314  10.916  10.262   6.742 -0.3171 -1.3329  0.8973
36128SOL    HW218315  11.036  10.174   6.718 -0.6333 -1.1265 -1.7038
36129SOL     OW18316   7.513   4.756   0.966 -0.1673 -0.1854 -0.5175
36129SOL    HW118317   7.419   4.741   0.978 -0.2443 -0.4500 -1.3623
36129SOL    HW218318   7.544   4.785   1.051 -0.8101 -1.1803  0.0711
36130SOL     OW18319   0.643  12.397   0.935 -0.4271 -0.5295 -0.2432
36130SOL    HW118320   0.679  12.342   1.004  1.2569 -1.3602 -1.7022
36130SOL    HW218321   0.552  12.410   0.960  0.0148 -1.1593  1.8818
36131SOL     OW18322   1.258   9.646  10.532  0.2090  0.1546  0.5370
36131SOL    HW118323   1.288   9.735  10.549 -0.5426  0.4759  0.2629
36131SOL    HW218324   1.216   9.619  10.613 -0.3091  0.3784  0.3509
36132SOL     OW18325  12.898   2.870  10.365  0.3026  0.2600  0.1661
36132SOL    HW118326  12.922   2.785  10.328 -0.6325 -0.4490  1.1284
36132SOL    HW218327  12.948   2.875  10.447  2.0522  1.6424 -0.9091
36133SOL     OW18328   3.969   6.167   0.655 -0.2796  0.3528 -0.2155
36133SOL    HW118329   4.026   6.111   0.707 -1.0821 -2.2754 -1.9793
36133SOL    HW218330   4.000   6.256   0.672  2.3317 -0.7399  1.2128
36134SOL     OW18331   8.649  11.242  12.482  0.2655  0.1053 -0.2328
36134SOL    HW118332   8.636  11.272  12.392 -1.8618 -0.6911 -0.2684
36134SOL    HW218333   8.742  11.255  12.499  0.7652  0.1324 -2.6014
36135SOL     OW18334   3.754   6.596  12.963 -0.0517 -0.0570  0.1037
36135SOL    HW118335   3.705   6.542  13.025  1.7713  0.2880  1.9383
36135SOL    HW218336   3.746   6.685  12.998 -0.4902  0.4380 -1.1992
36136SOL     OW18337   2.046   5.359   5.449  0.3563  0.0057 -0.5249
36136SOL    HW118338   2.102   5.299   5.499 -1.6621 -2.2686 -0.7864
36136SOL    HW218339   1.984   5.393   5.514 -1.7333 -2.2989 -1.1599
36137SOL     OW18340   3.010   5.239  12.034  0.4232  0.0016  0.4705
36137SOL    HW118341   2.922   5.269  12.012  0.5402 -0.3205 -0.4557
36137SOL    HW218342   2.997   5.151  12.070  0.5379 -0.9454 -1.6930
36138SOL     OW18343  11.428   1.042  10.238  0.0886  0.0266  0.0104
36138SOL    HW118344  11.395   1.112  10.294  0.8741  1.7261 -1.5307
36138SOL    HW218345  11.522   1.040  10.254  0.1305 -0.3724 -0.2634
36139SOL     OW18346   0.421   6.718   1.789  0.7045 -0.0174  0.1349
36139SOL    HW118347   0.456   6.792   1.838 -0.2791  0.8697 -0.4800
36139SOL    HW218348   0.491   6.652   1.793  0.2161 -0.4743  3.6970
36140SOL     OW18349   2.462   1.794  12.056  0.8942 -0.1951  0.4517
36140SOL    HW118350   2.426   1.852  11.990  2.3439 -1.2135 -1.3123
36140SOL    HW218351   2.509   1.851  12.116  0.6480  0.6248 -0.1222
36141SOL     OW18352   4.515   4.873   1.585 -0.0353 -0.1473 -0.1023
36141SOL    HW118353   4.436   4.821   1.600 -0.4845  0.5690  0.0596
36141SOL    HW218354   4.583   4.809   1.564 -0.5851 -0.7915  0.0761
36142SOL     OW18355  10.997   4.978  12.208  0.5846 -0.3790  0.5818
36142SOL    HW118356  10.916   5.005  12.251 -0.4960  0.5776 -1.8773
36142SOL    HW218357  11.049   5.058  12.202  0.4868 -0.3602 -0.2634
36143SOL     OW18358   8.472   1.425  13.129  0.0754  0.6883 -0.0533
36143SOL    HW118359   8.432   1.443  13.214 -0.3719 -0.2360 -0.0533
36143SOL    HW218360   8.450   1.502  13.075  1.1483  1.7006  0.9206
36144SOL     OW18361   2.260   1.250   5.959 -0.0863  0.1339  0.3068
36144SOL    HW118362   2.294   1.182   5.901 -1.3057  0.0518 -0.3262
36144SOL    HW218363   2.321   1.324   5.948 -0.1102 -0.0054 -0.8042
36145SOL     OW18364  12.833   7.772   9.516 -0.8218  0.3200  0.3863
36145SOL    HW118365  12.830   7.823   9.597  1.6298  2.4405 -0.7080
36145SOL    HW218366  12.847   7.838   9.447  0.6598 -1.6516 -1.3345
36146SOL     OW18367   7.252   4.503   3.016  0.3969  0.5960 -0.5479
36146SOL    HW118368   7.332   4.475   3.060 -0.1133 -0.7190 -0.4205
36146SOL    HW218369   7.249   4.450   2.936 -0.8293 -0.0855 -0.0746
36147SOL     OW18370   0.026  11.642   4.888 -0.3155  0.3867  0.1300
36147SOL    HW118371  -0.007  11.723   4.926  0.2740  0.4513  0.5106
36147SOL    HW218372   0.019  11.578   4.959  1.4748  0.6768  0.6229
36148SOL     OW18373  11.856   4.677   1.120 -0.3061 -0.2123 -0.0880
36148SOL    HW118374  11.795   4.737   1.078 -0.0179 -0.1234 -0.3747
36148SOL    HW218375  11.924   4.661   1.055  0.0620 -0.1926  0.2880
36149SOL     OW18376   3.845   9.978   6.614 -0.7337 -0.2320  0.3926
36149SOL    HW118377   3.930   9.937   6.632  0.3251  2.3895  1.7941
36149SOL    HW218378   3.839   9.978   6.518  1.4483  0.5798  0.1909
36150SOL     OW18379   2.804   9.036   5.089  0.0132  0.1806  0.5468
36150SOL    HW118380   2.796   9.120   5.136  0.7433  0.9637 -0.6623
36150SOL    HW218381   2.896   9.032   5.065 -0.0757 -0.8672  0.3618
36151SOL     OW18382  12.332   0.321   6.984 -0.0667 -0.6282 -0.0424
36151SOL    HW118383  12.323   0.284   7.071 -1.5772 -1.3245 -0.4590
36151SOL    HW218384  12.244   0.353   6.962  0.8397  1.9653 -0.2672
36152SOL     OW18385   9.334   8.651   2.598  0.2861 -0.3677  0.2409
36152SOL    HW118386   9.282   8.690   2.668 -1.2719 -1.2204 -0.4070
36152SOL    HW218387   9.275   8.591   2.554  1.8584 -1.4916 -0.4550
36153SOL     OW18388   0.407  11.468   9.079 -0.0239 -0.1753  0.6781
36153SOL    HW118389   0.435  11.457   8.988  0.2857  0.1373  0.7301
36153SOL    HW218390   0.459  11.404   9.127  0.1902  0.0083  0.6976
36154SOL     OW18391  11.777   0.411  10.448 -0.0305  0.6300  0.1231
36154SOL    HW118392  11.843   0.448  10.507 -1.1140 -0.2923  2.0179
36154SOL    HW218393  11.695   0.417  10.497 -1.0692  0.2078 -1.4831
36155SOL     OW18394   7.749   9.616   0.327 -0.1448  0.2172  0.3531
36155SOL    HW118395   7.662   9.576   0.320 -0.2321  0.0116  2.1570
36155SOL    HW218396   7.739   9.684   0.393  1.0098  0.3878  0.3753
36156SOL     OW18397   3.150   6.477   2.366 -0.5763  0.2397  0.2132
36156SOL    HW118398   3.103   6.544   2.416  0.4230 -0.4774  2.2380
36156SOL    HW218399   3.118   6.394   2.401 -0.2960 -0.3158 -0.8059
36157SOL     OW18400   2.503   9.105  10.055  0.3741  0.0039 -0.2183
36157SOL    HW118401   2.537   9.192  10.036 -0.1624  0.3270  0.2671
36157SOL    HW218402   2.473   9.072   9.970  0.0602  0.5244 -0.3148
36158SOL     OW18403   8.111   4.039   9.759 -0.6978 -0.1275  0.0517
36158SOL    HW118404   8.028   4.046   9.806 -2.2093 -3.0924 -1.8444
36158SOL    HW218405   8.175   4.018   9.826 -2.3238 -1.9745  1.1127
36159SOL     OW18406   8.045  10.809  12.963 -0.3473  0.3657 -0.1935
36159SOL    HW118407   8.003  10.740  12.912 -1.2296  0.5216  0.3065
36159SOL    HW218408   8.045  10.885  12.904  1.9148 -0.3775 -1.2870
36160SOL     OW18409  10.374   4.456   8.795  0.2825  0.2700 -0.2207
36160SOL    HW118410  10.448   4.443   8.855 -1.1659  0.0153  1.6043
36160SOL    HW218411  10.319   4.378   8.808 -1.5688  1.6119  0.4327
36161SOL     OW18412  13.023  12.634  11.901 -0.0792  0.0184 -0.0371
36161SOL    HW118413  13.020  12.588  11.817 -0.7495 -0.1072  0.0441
36161SOL    HW218414  13.108  12.677  11.903  0.1199 -0.3447 -0.5863
36162SOL     OW18415   3.533   8.854   4.388 -0.5267  0.0020 -1.0362
36162SOL    HW118416   3.569   8.766   4.396  1.7901  0.9778  0.5172
36162SOL    HW218417   3.456   8.855   4.444  0.0410 -0.7677 -0.2308
36163SOL     OW18418  13.238  10.509   2.786  0.3349 -0.0731  0.2413
36163SOL    HW118419  13.285  10.425   2.792 -1.0614 -0.8460  0.8014
36163SOL    HW218420  13.307  10.575   2.786  1.3951 -1.1154  2.0315
36164SOL     OW18421   4.664   2.819  11.710  0.4023 -0.4187  0.7521
36164SOL    HW118422   4.670   2.910  11.682  0.4949 -0.2935  1.1820
36164SOL    HW218423   4.581   2.815  11.758  0.7507 -0.3897  1.3649
36165SOL     OW18424   1.947  11.056  12.069  0.1179  0.0612  0.7045
36165SOL    HW118425   1.997  10.977  12.049  0.3733  0.4167 -0.1136
36165SOL    HW218426   1.926  11.093  11.983  1.5869  1.8737  1.0651
36166SOL     OW18427   5.389   6.241   0.417  0.2264 -0.3035  0.0069
36166SOL    HW118428   5.326   6.169   0.421  0.1563 -0.1978  1.3415
36166SOL    HW218429   5.474   6.198   0.410  0.1666 -0.5200  0.5540
36167SOL     OW18430   5.068   0.417   5.251 -0.2348  0.3719  0.0987
36167SOL    HW118431   5.148   0.371   5.226  0.2312  1.4270 -0.4114
36167SOL    HW218432   5.082   0.507   5.223 -0.9130  0.9633  1.5269
36168SOL     OW18433  11.314   1.158  12.382  0.5797 -0.2086  0.2445
36168SOL    HW118434  11.247   1.225  12.369 -0.0238 -0.8350  0.0772
36168SOL    HW218435  11.377   1.199  12.441 -0.0474  0.3299  0.5572
36169SOL     OW18436   2.449  10.328   8.711  0.4857 -0.3855 -0.4524
36169SOL    HW118437   2.429  10.421   8.718  1.2435 -0.2430 -0.0496
36169SOL    HW218438   2.464  10.300   8.802 -2.0355 -1.4433 -0.2779
36170SOL     OW18439   7.745  12.207  10.924  0.1039 -0.0144 -1.0888
36170SOL    HW118440   7.705  12.138  10.976 -1.1490  1.0821 -0.5365
36170SOL    HW218441   7.673  12.266  10.903  1.4725  2.3768  0.4603
36171SOL     OW18442   4.679   8.098  11.867  0.0532 -0.6498  0.1616
36171SOL    HW118443   4.694   8.107  11.773 -0.1076 -0.6058  0.1402
36171SOL    HW218444   4.688   8.187  11.902  2.7607 -0.9961  0.5867
36172SOL     OW18445   4.734   8.634   3.242  0.2309  0.0423 -0.0401
36172SOL    HW118446   4.769   8.546   3.230  0.3173  0.1985 -0.9477
36172SOL    HW218447   4.717   8.640   3.336 -1.7549 -1.7007 -0.2302
36173SOL     OW18448   6.966  11.844   7.919  0.4631 -0.3674 -0.2498
36173SOL    HW118449   7.019  11.772   7.952 -1.0822 -2.0603 -1.2821
36173SOL    HW218450   6.912  11.870   7.994  1.1466 -0.1557  0.1745
36174SOL     OW18451   5.135   9.947   9.226  0.0405 -0.0008 -0.6692
36174SOL    HW118452   5.203   9.920   9.165 -2.2187 -1.2911 -2.8219
36174SOL    HW218453   5.125  10.041   9.210  0.4657 -0.0453 -1.2338
36175SOL     OW18454   0.897   7.625   4.810  0.2140 -0.3425 -0.1238
36175SOL    HW118455   0.845   7.582   4.879  0.2726  0.0499  0.1635
36175SOL    HW218456   0.873   7.577   4.730 -2.0463  1.0067 -0.3524
36176SOL     OW18457   3.325   2.767  12.706 -0.6189 -0.1731 -0.4334
36176SOL    HW118458   3.396   2.831  12.696 -0.1262 -0.8615 -1.5330
36176SOL    HW218459   3.337   2.706  12.633 -0.7462 -1.8500  0.8710
36177SOL     OW18460   7.458   9.485   4.159 -0.6311 -0.2014 -0.1861
36177SOL    HW118461   7.485   9.423   4.227  1.6168  0.2794 -0.5662
36177SOL    HW218462   7.386   9.534   4.198  0.0980 -0.4630  1.5682
36178SOL     OW18463   3.172   4.563   6.442 -0.3584  0.4936 -0.0475
36178SOL    HW118464   3.130   4.647   6.426  0.6684  0.7624 -1.4408
36178SOL    HW218465   3.114   4.499   6.401 -0.6813  0.5947  0.2416
36179SOL     OW18466   4.387  12.990   1.827  0.7923  0.4681 -0.2975
36179SOL    HW118467   4.359  13.074   1.864 -0.5648  0.7688 -1.8720
36179SOL    HW218468   4.374  13.000   1.732 -0.0572 -1.7158 -0.4802
36180SOL     OW18469   6.018   5.825   0.899  0.0243  0.2648 -0.0761
36180SOL    HW118470   6.021   5.835   0.804  1.7042  0.5302 -0.0242
36180SOL    HW218471   5.998   5.914   0.931  0.1881  0.3272 -0.1485
36181SOL     OW18472  11.638   3.924   6.895 -0.3189 -0.4397  0.0587
36181SOL    HW118473  11.552   3.906   6.933 -0.1594  0.4723  0.8872
36181SOL    HW218474  11.632   4.014   6.863  0.3327 -0.3553  0.1546
36182SOL     OW18475   6.188   0.511   9.028 -0.0959 -0.2603 -0.4894
36182SOL    HW118476   6.230   0.426   9.011  0.6715  0.2952 -1.4628
36182SOL    HW218477   6.116   0.490   9.088 -0.9981 -1.8782 -2.0142
36183SOL     OW18478   3.736   1.054   8.535 -0.2631  1.0262 -0.5947
36183SOL    HW118479   3.780   1.118   8.479 -0.0044  0.2217 -1.3237
36183SOL    HW218480   3.643   1.077   8.527 -0.0090  2.9291  1.2047
36184SOL     OW18481   1.459   8.061   8.961  0.3035  0.5530 -0.4388
36184SOL    HW118482   1.503   8.119   9.023 -1.4183  0.5378  0.8751
36184SOL    HW218483   1.367   8.087   8.965 -0.4320 -1.8497 -0.2633
36185SOL     OW18484   0.877  11.043   6.129  0.5886 -0.0707  0.3398
36185SOL    HW118485   0.812  11.098   6.173 -0.6360  0.1259 -1.5713
36185SOL    HW218486   0.958  11.093   6.133  0.4112  0.1292  1.9166
36186SOL     OW18487   2.407   1.826   7.918  0.2365 -0.0283  0.0975
36186SOL    HW118488   2.466   1.860   7.985 -1.2726  1.0110  0.9578
36186SOL    HW218489   2.381   1.903   7.867  1.9913 -0.8906 -2.2943
36187SOL     OW18490   0.630   6.292  12.095 -0.6717  0.3983  0.4719
36187SOL    HW118491   0.645   6.323  12.184  0.4932  2.1271 -0.2767
36187SOL    HW218492   0.642   6.369  12.040  1.2206 -1.1307 -1.4170
36188SOL     OW18493  10.170   0.119   7.243 -0.1296 -0.0381  0.1855
36188SOL    HW118494  10.132   0.052   7.299  0.8587 -0.1380  0.7480
36188SOL    HW218495  10.228   0.168   7.300 -0.9924  1.4564 -0.1552
36189SOL     OW18496   5.845   9.119   9.791  0.5452 -0.1566  0.1613
36189SOL    HW118497   5.761   9.072   9.785 -0.2714  1.0216  1.5463
36189SOL    HW218498   5.880   9.119   9.702 -1.4844  0.2856 -0.6888
36190SOL     OW18499   0.208  12.965   9.856  0.0269  0.4967  0.5359
36190SOL    HW118500   0.187  12.967   9.763 -1.7933  1.6830  0.9196
36190SOL    HW218501   0.296  12.927   9.860  0.0045  0.0904 -1.6203
36191SOL     OW18502   9.486  10.870   4.553  0.0822  0.0250  0.1719
36191SOL    HW118503   9.444  10.822   4.482 -1.0414  0.4226  0.5354
36191SOL    HW218504   9.427  10.857   4.628 -0.1814  1.8091  0.3152
36192SOL     OW18505   8.329  10.405   0.571  0.0278 -0.3235 -0.1375
36192SOL    HW118506   8.257  10.403   0.633  0.2511 -1.6942  0.1043
36192SOL    HW218507   8.380  10.482   0.596 -1.1287  0.4392 -0.0822
36193SOL     OW18508   3.018  11.153  12.708 -0.1347 -0.7368 -0.3797
36193SOL    HW118509   2.992  11.239  12.740 -1.7162 -1.5407  0.6361
36193SOL    HW218510   3.002  11.156  12.614 -2.9473 -0.7686  0.0039
36194SOL     OW18511   2.970  11.518  11.466  0.5111 -0.0177  0.1608
36194SOL    HW118512   3.023  11.562  11.532 -1.1979 -1.3862  2.6057
36194SOL    HW218513   2.880  11.536  11.491 -0.2318 -0.5015 -1.9202
36195SOL     OW18514   7.181   4.012  13.251 -0.1224  0.3912  0.1896
36195SOL    HW118515   7.141   3.925  13.245  0.9866 -0.3432  2.4137
36195SOL    HW218516   7.125   4.068  13.197 -2.7766 -1.0485  1.2398
36196SOL     OW18517   8.400   2.411   7.159  0.2248 -0.0914 -0.5050
36196SOL    HW118518   8.409   2.411   7.255  0.1815  1.3865 -0.4884
36196SOL    HW218519   8.308   2.433   7.144 -0.0700 -1.4873 -0.8920
36197SOL     OW18520   7.923   9.614  11.888 -0.3161  0.4842 -0.1146
36197SOL    HW118521   7.888   9.526  11.874  0.3189  0.1992  0.0363
36197SOL    HW218522   7.997   9.601  11.947 -1.0969  1.2901  1.0982
36198SOL     OW18523  10.896   6.205   3.648 -0.2638  0.1967  0.2294
36198SOL    HW118524  10.940   6.127   3.682  0.3038 -0.5198 -1.9453
36198SOL    HW218525  10.845   6.172   3.573  0.3400  1.9631 -1.0217
36199SOL     OW18526  10.385   0.259   7.390  0.1803 -0.1255  0.6468
36199SOL    HW118527  10.438   0.194   7.345  0.6978  0.3995  0.4795
36199SOL    HW218528  10.449   0.320   7.427 -0.2172 -0.7144  2.3738
36200SOL     OW18529  10.219   4.396  10.841 -0.0948 -0.1343  0.0462
36200SOL    HW118530  10.307   4.433  10.848  0.0210 -0.3610 -0.1926
36200SOL    HW218531  10.213   4.333  10.913 -0.8049  1.3622  1.3478
36201SOL     OW18532   6.032   5.216   9.966 -0.1551 -0.0242 -0.2723
36201SOL    HW118533   6.108   5.273   9.957  0.4127 -0.7997 -0.5847
36201SOL    HW218534   5.958   5.270   9.940  0.3759  0.5358 -0.6594
36202SOL     OW18535  11.479   4.397   9.764  0.2201  0.5125  0.4543
36202SOL    HW118536  11.510   4.483   9.791  1.9697  0.6622 -1.8034
36202SOL    HW218537  11.446   4.409   9.675  2.0357 -1.4023 -0.5784
36203SOL     OW18538   3.233   4.390   9.792  0.6637 -0.4626  0.0835
36203SOL    HW118539   3.208   4.456   9.727  0.7979 -1.3616 -0.9240
36203SOL    HW218540   3.239   4.438   9.874  1.7253  0.9731 -0.7814
36204SOL     OW18541   2.251   9.194   7.113 -0.1497  0.4124 -0.0614
36204SOL    HW118542   2.319   9.240   7.164  0.3805 -1.0233  0.6028
36204SOL    HW218543   2.299   9.127   7.065 -1.0091 -0.1691 -0.1334
36205SOL     OW18544   7.633   3.076   2.612  0.8239 -0.1135 -0.1662
36205SOL    HW118545   7.542   3.101   2.597  0.8341 -0.2910 -0.5176
36205SOL    HW218546   7.635   3.052   2.705  0.4529 -0.3520 -0.2135
36206SOL     OW18547   5.366   5.040   4.799  0.1543 -0.4378 -0.3466
36206SOL    HW118548   5.371   5.072   4.889  1.4017 -0.7158 -0.2990
36206SOL    HW218549   5.316   4.959   4.805 -0.6336  0.0587 -0.0617
36207SOL     OW18550   2.711   8.048   6.395 -0.0055 -0.4544  0.3643
36207SOL    HW118551   2.760   7.978   6.438 -0.4954 -0.7156  0.4992
36207SOL    HW218552   2.727   8.035   6.302  0.7169 -0.1398  0.4374
36208SOL     OW18553   0.086  10.087   6.697  0.2861  0.4256  0.0487
36208SOL    HW118554   0.167  10.072   6.647  0.0806  0.8464 -0.4246
36208SOL    HW218555   0.046  10.001   6.705 -0.4691  0.5457 -1.8930
36209SOL     OW18556   1.114   4.694   6.293  0.0656 -0.4809 -0.5090
36209SOL    HW118557   1.128   4.715   6.386 -1.1573 -0.8611 -0.2166
36209SOL    HW218558   1.020   4.705   6.280 -0.1185 -2.3960 -1.1691
36210SOL     OW18559  10.513   7.441   6.170 -0.4214 -0.8824  0.2702
36210SOL    HW118560  10.534   7.374   6.236  0.5567  1.8741  2.9560
36210SOL    HW218561  10.576   7.426   6.100  1.7867 -1.0404  2.1561
36211SOL     OW18562   3.623   4.515   7.533  0.1246 -0.0662  0.0228
36211SOL    HW118563   3.546   4.553   7.576  1.0860 -0.0958  1.8924
36211SOL    HW218564   3.633   4.429   7.574  0.7186 -0.3663 -0.7383
36212SOL     OW18565  13.001   7.789  12.118 -0.1206 -0.2286 -0.7005
36212SOL    HW118566  13.005   7.851  12.045 -1.7776  0.3654 -0.3326
36212SOL    HW218567  13.087   7.748  12.120  1.5123  2.9394 -0.2226
36213SOL     OW18568   7.591  10.040   0.029 -0.3142  0.2794 -0.0641
36213SOL    HW118569   7.622  10.062  -0.059 -3.4712 -0.9306 -1.6579
36213SOL    HW218570   7.637   9.959   0.052 -1.8520 -1.3328 -2.2156
36214SOL     OW18571   4.032   8.443   8.204 -0.4423 -0.5370  0.1143
36214SOL    HW118572   3.971   8.461   8.276 -0.5295 -0.4111  0.0088
36214SOL    HW218573   4.000   8.496   8.131  0.7058  0.7390  0.5042
36215SOL     OW18574   6.479   9.043  12.246 -1.2775 -0.4882 -0.5300
36215SOL    HW118575   6.473   9.022  12.153  1.1420  0.5399 -1.0060
36215SOL    HW218576   6.443   8.966  12.291 -2.6011 -0.9471 -2.2916
36216SOL     OW18577  13.266  12.856   6.840 -0.6048  1.0005 -0.3934
36216SOL    HW118578  13.274  12.847   6.745 -0.4478  0.8650 -0.3679
36216SOL    HW218579  13.277  12.950   6.856 -0.0781  0.9562 -0.4572
36217SOL     OW18580   5.583  10.206   3.566 -0.2944  0.3062  0.1019
36217SOL    HW118581   5.560  10.288   3.609  0.5002 -0.1756  1.5093
36217SOL    HW218582   5.526  10.141   3.605 -0.2056  0.0053 -0.2589
36218SOL     OW18583  12.441   6.918   0.761 -0.1330  0.3164 -0.1821
36218SOL    HW118584  12.478   6.972   0.691  0.3961 -0.8230 -0.8129
36218SOL    HW218585  12.367   6.969   0.794 -0.7457  0.6476 -1.9456
36219SOL     OW18586   2.958   9.035   8.721  0.5617  0.0101 -0.2222
36219SOL    HW118587   2.972   9.113   8.775 -1.7186 -0.2787  0.9494
36219SOL    HW218588   2.911   8.974   8.779  2.0997 -2.1994 -1.1501
36220SOL     OW18589   5.982   0.499   6.594  0.8046 -0.1823 -0.1556
36220SOL    HW118590   6.060   0.486   6.541  0.3768 -0.2542 -0.7791
36220SOL    HW218591   5.959   0.412   6.625  0.7215 -0.2236 -0.3328
36221SOL     OW18592   7.063  12.915   1.437 -0.2449 -0.3532 -0.0292
36221SOL    HW118593   7.005  12.874   1.373 -0.6477 -2.3217  1.5231
36221SOL    HW218594   7.130  12.849   1.456  0.2761  0.4536  1.0494
36222SOL     OW18595  12.436   7.148   8.185 -0.5269 -0.2437 -0.0769
36222SOL    HW118596  12.508   7.196   8.224  0.8530 -1.9620 -0.3810
36222SOL    HW218597  12.371   7.215   8.163 -0.1893  1.0843  2.5523
36223SOL     OW18598  10.834   9.540   7.384 -0.1599  0.2830  0.0644
36223SOL    HW118599  10.881   9.596   7.447 -0.7541  0.9745 -0.1010
36223SOL    HW218600  10.904   9.493   7.338  0.2807 -1.6646  2.4819
36224SOL     OW18601   6.206  10.379   0.655  0.1591  0.5316 -0.6980
36224SOL    HW118602   6.194  10.285   0.665  0.7679  0.5281  0.1914
36224SOL    HW218603   6.290  10.397   0.698 -0.5382  1.6602  0.2740
36225SOL     OW18604   7.780   4.366   3.359  0.4953  0.1601  0.7161
36225SOL    HW118605   7.773   4.460   3.346 -1.6639  0.0427  0.6645
36225SOL    HW218606   7.824   4.356   3.443  2.5319  1.1445 -0.1769
36226SOL     OW18607   9.262   7.986   8.876 -0.1699  0.5497 -0.3073
36226SOL    HW118608   9.175   7.947   8.890  0.4227 -0.3877  0.9708
36226SOL    HW218609   9.300   7.936   8.805 -0.1528  0.0398  0.0557
36227SOL     OW18610   7.939   5.064   9.943 -0.0082 -0.3756  0.2275
36227SOL    HW118611   8.025   5.064   9.987  0.4967  1.1069 -0.6786
36227SOL    HW218612   7.902   5.150   9.965 -0.1783 -0.0119 -1.3754
36228SOL     OW18613  11.576   9.448   4.259 -0.0796  0.3929 -0.5347
36228SOL    HW118614  11.528   9.464   4.341  0.8394  1.4944 -0.1841
36228SOL    HW218615  11.667   9.437   4.287  0.1862  0.4122 -1.3775
36229SOL     OW18616  12.812  12.500   4.742 -1.0507  0.3441 -0.2224
36229SOL    HW118617  12.784  12.464   4.826 -2.1227  0.4238 -0.5341
36229SOL    HW218618  12.837  12.423   4.690  1.5957  0.4004  0.8158
36230SOL     OW18619   0.744  11.890   3.260 -0.1264 -0.4413 -0.6482
36230SOL    HW118620   0.788  11.975   3.251 -1.8178  0.4761 -0.7806
36230SOL    HW218621   0.651  11.911   3.251 -0.5856 -2.3266 -0.6497
36231SOL     OW18622   7.249   9.119   1.960  0.6049  0.2518  0.0262
36231SOL    HW118623   7.220   9.156   1.877  3.1947  2.7126  0.0672
36231SOL    HW218624   7.224   9.184   2.026  2.1671  0.3349  0.5801
36232SOL     OW18625   4.223  12.869   7.591  0.2160 -0.5950 -0.0810
36232SOL    HW118626   4.257  12.886   7.679 -0.4274 -1.2067  0.2924
36232SOL    HW218627   4.156  12.801   7.603 -2.0455  1.4109 -0.6053
36233SOL     OW18628   4.108   8.950   2.989  0.1219  0.6939  0.5651
36233SOL    HW118629   4.091   9.004   3.066 -0.2125  0.1979  0.8487
36233SOL    HW218630   4.023   8.911   2.969 -0.0655  1.6930 -0.7431
36234SOL     OW18631   5.643   0.835   0.344  0.3505  0.2062  0.4740
36234SOL    HW118632   5.580   0.856   0.275  0.4399 -1.1012 -0.0289
36234SOL    HW218633   5.708   0.779   0.302  0.3923 -0.6428  1.6039
36235SOL     OW18634   3.973   2.392  11.592  0.1732  0.1201  0.7228
36235SOL    HW118635   3.954   2.482  11.565 -1.3465  0.3823  2.4809
36235SOL    HW218636   3.927   2.338  11.529  2.1761  0.4468 -1.1651
36236SOL     OW18637   6.332   8.801   3.795  0.0201  0.3225 -0.2967
36236SOL    HW118638   6.364   8.832   3.880  1.7666 -0.5240 -0.6026
36236SOL    HW218639   6.282   8.722   3.815  0.4073  0.1401 -0.0423
36237SOL     OW18640   1.061   2.388   0.759 -0.5738  0.0776  0.2822
36237SOL    HW118641   1.006   2.451   0.713  0.0522  2.0136  2.0075
36237SOL    HW218642   1.002   2.318   0.785 -1.6624  0.8145 -0.1469
36238SOL     OW18643   2.784   1.475   4.713  0.4801  0.8623 -0.4438
36238SOL    HW118644   2.822   1.561   4.698 -2.4186  2.1140 -1.1588
36238SOL    HW218645   2.721   1.463   4.643 -0.6097 -0.9988  0.7512
36239SOL     OW18646   9.767   4.296   4.116  0.3642  0.5303 -0.2774
36239SOL    HW118647   9.794   4.239   4.189 -0.6011 -0.0467 -0.3587
36239SOL    HW218648   9.758   4.237   4.042  3.3773  1.3861 -1.4776
36240SOL     OW18649   8.649   0.900  10.702 -0.7979  0.0842  0.1133
36240SOL    HW118650   8.677   0.817  10.741  0.2840  0.4852  0.2108
36240SOL    HW218651   8.670   0.966  10.768  1.7888  0.8813 -1.3482
36241SOL     OW18652   3.015   4.288  10.121  0.4414  0.0072  0.0878
36241SOL    HW118653   2.969   4.312  10.041  1.3186 -0.8456 -0.7011
36241SOL    HW218654   3.056   4.204  10.101  0.5057 -0.3375  1.5108
36242SOL     OW18655   4.720   2.447   7.383 -0.0157  0.5613 -0.3715
36242SOL    HW118656   4.753   2.529   7.421  1.3700  0.4099 -1.1860
36242SOL    HW218657   4.630   2.467   7.358 -0.5676  1.0434  1.7967
36243SOL     OW18658   4.307  10.560   3.530  0.0310 -0.6125 -0.5006
36243SOL    HW118659   4.265  10.572   3.445  1.1702  1.8453 -0.8016
36243SOL    HW218660   4.401  10.561   3.510  0.3232 -2.4411  0.5498
36244SOL     OW18661   6.819  12.620   0.628 -0.4515 -0.1268 -0.4499
36244SOL    HW118662   6.774  12.700   0.600  1.3902  0.9693 -0.4647
36244SOL    HW218663   6.832  12.571   0.547 -2.6644 -1.0738 -0.2830
36245SOL     OW18664  11.794   9.092   8.360 -0.1726 -0.4942 -0.1897
36245SOL    HW118665  11.773   9.076   8.268 -0.4556  1.3152 -0.4761
36245SOL    HW218666  11.720   9.142   8.394  1.2033  1.4169  0.1888
36246SOL     OW18667   2.532   8.226   6.081  0.6786  0.0491 -0.1555
36246SOL    HW118668   2.623   8.204   6.061  0.4340  0.1526 -1.4549
36246SOL    HW218669   2.485   8.215   5.998 -0.3931  0.5544  0.3553
36247SOL     OW18670  10.872   5.275  10.308 -0.4222  0.1321 -0.3792
36247SOL    HW118671  10.896   5.363  10.281 -1.2446  0.3125 -0.5471
36247SOL    HW218672  10.884   5.222  10.229  0.0087  0.1033 -0.2953
36248SOL     OW18673  12.190   9.659   4.892  0.0718  0.3981 -0.0965
36248SOL    HW118674  12.237   9.715   4.829  0.3185 -0.6964 -0.9132
36248SOL    HW218675  12.112   9.631   4.845 -0.1772  0.2554  0.4001
36249SOL     OW18676   7.074   6.713  12.353  0.0925 -0.0766  0.0749
36249SOL    HW118677   7.134   6.696  12.425  2.2678 -1.3112 -1.8734
36249SOL    HW218678   7.100   6.800  12.320 -0.1231 -0.0034  0.1013
36250SOL     OW18679   8.252  11.774   3.453 -0.8459  0.0889 -0.3609
36250SOL    HW118680   8.328  11.736   3.409 -0.4838  0.2486  0.1049
36250SOL    HW218681   8.261  11.745   3.544 -1.6696 -0.3694 -0.4241
36251SOL     OW18682   7.959   0.023   5.442 -0.3225  0.4533 -0.5092
36251SOL    HW118683   7.952   0.029   5.347 -1.6964  2.3429 -0.3372
36251SOL    HW218684   8.048   0.052   5.462  0.0294 -0.1190 -1.2120
36252SOL     OW18685  11.621   5.080   2.955 -0.1712 -0.1949  0.1485
36252SOL    HW118686  11.659   4.993   2.966 -1.6800 -1.1212 -1.4285
36252SOL    HW218687  11.526   5.064   2.955 -0.4625  1.0204 -2.8942
36253SOL     OW18688   3.065   3.447   3.737  0.0943  0.0920 -0.3671
36253SOL    HW118689   3.138   3.386   3.724 -0.7756 -1.1212  0.2266
36253SOL    HW218690   3.033   3.426   3.825 -0.3341  1.3163 -0.2190
36254SOL     OW18691   4.272   6.377   5.895  0.1524  0.1557 -0.2825
36254SOL    HW118692   4.241   6.450   5.949  1.8360 -0.0494  1.0279
36254SOL    HW218693   4.363   6.364   5.922  0.3261 -1.4819 -1.5336
36255SOL     OW18694   4.074   2.634   5.300  0.3292  0.1596  0.4515
36255SOL    HW118695   4.058   2.543   5.274  0.3256  0.1714  0.4117
36255SOL    HW218696   4.038   2.641   5.388 -1.2839  0.5818 -0.1911
36256SOL     OW18697   1.097   7.659   7.730  0.0298  0.7733 -0.2139
36256SOL    HW118698   1.090   7.610   7.648 -1.9489  1.2029 -0.3553
36256SOL    HW218699   1.062   7.599   7.796  0.0064  1.0546  0.0281
36257SOL     OW18700   7.741  11.530   7.343 -0.5229  0.1313 -0.6499
36257SOL    HW118701   7.827  11.518   7.302  0.1861 -0.4546  0.9280
36257SOL    HW218702   7.761  11.562   7.431 -1.9299 -0.1326 -0.2135
36258SOL     OW18703   4.983   0.304   5.692  0.0498 -0.0045 -0.1733
36258SOL    HW118704   5.064   0.261   5.663 -0.2660 -1.8012  1.3933
36258SOL    HW218705   5.001   0.397   5.684  2.4469 -0.3388  0.5284
36259SOL     OW18706   3.595   5.547   2.314  0.1310  0.1073 -0.0776
36259SOL    HW118707   3.679   5.517   2.279 -0.6869 -1.3996 -0.8495
36259SOL    HW218708   3.529   5.495   2.267 -1.3100  1.9128 -0.1934
36260SOL     OW18709   8.537  10.622   5.051  0.1527 -0.7356  0.4125
36260SOL    HW118710   8.485  10.543   5.060 -0.0206 -0.5097  1.5801
36260SOL    HW218711   8.576  10.635   5.138  0.6019  0.1641  0.0891
36261SOL     OW18712  10.486  12.017   2.340 -0.1247  0.7905  0.1741
36261SOL    HW118713  10.555  12.045   2.280  0.6645  1.7839  1.5102
36261SOL    HW218714  10.416  12.081   2.328 -0.9759 -0.3531 -1.3568
36262SOL     OW18715   1.215   7.688   1.510 -0.4667  0.0804  0.0963
36262SOL    HW118716   1.208   7.628   1.583  0.0024 -0.6812 -0.4754
36262SOL    HW218717   1.308   7.688   1.486 -0.1494  2.2039  1.0452
36263SOL     OW18718  11.229   3.928   4.851 -0.1251 -0.0021 -0.3267
36263SOL    HW118719  11.147   3.880   4.860 -0.3625 -0.1053 -2.5324
36263SOL    HW218720  11.292   3.879   4.904 -0.8331 -1.6008 -0.9215
36264SOL     OW18721  12.726   3.007   1.317  0.0004  0.8426  0.4857
36264SOL    HW118722  12.734   2.923   1.271 -0.7442 -0.2301  2.2077
36264SOL    HW218723  12.817   3.033   1.335  0.2199 -0.2815  1.0907
36265SOL     OW18724   7.050   4.414   3.194 -0.2687 -0.2630 -0.1508
36265SOL    HW118725   7.086   4.444   3.277  0.9860 -1.6997 -0.1243
36265SOL    HW218726   7.107   4.455   3.128 -0.3134 -0.3432 -0.2391
36266SOL     OW18727  12.077   0.621   4.667  0.0755  0.4037  0.5678
36266SOL    HW118728  12.168   0.628   4.697 -0.1630  2.0743  0.9877
36266SOL    HW218729  12.084   0.615   4.572  0.6651 -0.8940  0.6666
36267SOL     OW18730   9.897   2.148   4.266  0.2865  0.7460  0.1217
36267SOL    HW118731   9.909   2.072   4.323 -1.2691  0.7447  0.5066
36267SOL    HW218732   9.884   2.111   4.179 -2.3926  0.3457  0.5817
36268SOL     OW18733  13.191   7.216   0.671  0.2762 -0.1432  0.0648
36268SOL    HW118734  13.184   7.206   0.766 -1.4217 -1.9024 -0.1938
36268SOL    HW218735  13.151   7.301   0.653 -0.6598 -0.4032  0.8116
36269SOL     OW18736   8.285   4.934  13.206 -0.0402  0.3950 -0.3781
36269SOL    HW118737   8.374   4.958  13.229 -0.0311  0.2502 -0.2648
36269SOL    HW218738   8.251   4.889  13.283 -0.1202  0.2110 -0.5212
36270SOL     OW18739  12.501   0.241  12.286  0.1142  0.2816 -0.1180
36270SOL    HW118740  12.568   0.292  12.331  0.1897 -0.0886  0.1930
36270SOL    HW218741  12.509   0.154  12.323 -0.7557  0.3130  0.1581
36271SOL     OW18742   1.847   8.252   4.770 -0.7793  0.1973 -0.4409
36271SOL    HW118743   1.791   8.312   4.819 -0.5108  0.4758 -0.4741
36271SOL    HW218744   1.877   8.189   4.836  0.4195  1.1724 -0.0002
36272SOL     OW18745   1.102   2.823   3.745  0.3703  0.3683  0.8079
36272SOL    HW118746   1.162   2.897   3.743  0.1653  0.5270  0.4266
36272SOL    HW218747   1.110   2.788   3.833  2.0602 -0.4802  0.3511
36273SOL     OW18748  12.511   3.039   9.789 -0.3661 -0.1654 -0.8007
36273SOL    HW118749  12.604   3.019   9.777 -0.3014  0.9037 -2.3014
36273SOL    HW218750  12.465   2.977   9.733 -0.4990  0.0045 -0.8804
36274SOL     OW18751   3.457   6.431   4.860 -0.1958  0.1698 -0.3534
36274SOL    HW118752   3.495   6.344   4.845  2.1380  0.8718  0.8841
36274SOL    HW218753   3.456   6.440   4.955  0.7178  1.8965 -0.4606
36275SOL     OW18754   7.386   4.290   5.220 -0.4942  0.2719 -0.0191
36275SOL    HW118755   7.300   4.316   5.252 -0.0971  1.0746  0.4213
36275SOL    HW218756   7.423   4.371   5.182  0.4122  0.1547  0.5850
36276SOL     OW18757   5.161   8.265  10.129 -0.3310 -0.1825 -0.3933
36276SOL    HW118758   5.176   8.289  10.220  0.7006  0.7692 -0.7825
36276SOL    HW218759   5.181   8.172  10.124  0.9548  0.0491  0.0901
36277SOL     OW18760   9.144   0.558  12.675  0.0853  0.3278  0.4913
36277SOL    HW118761   9.143   0.491  12.606 -1.0894 -0.2882  1.0823
36277SOL    HW218762   9.063   0.544  12.724  0.4010  1.4225  1.3704
36278SOL     OW18763  10.673   9.795   6.372 -0.4180 -0.2513  0.0420
36278SOL    HW118764  10.690   9.809   6.279 -0.5640  0.6423  0.1410
36278SOL    HW218765  10.716   9.869   6.416 -0.7111 -0.4334  0.6523
36279SOL     OW18766   4.034   7.754   8.779  0.1236 -0.1482  0.7220
36279SOL    HW118767   4.060   7.704   8.701 -0.9489 -0.3228  0.4541
36279SOL    HW218768   3.954   7.799   8.752  0.8372  1.4042  1.0922
36280SOL     OW18769   1.242   3.790  12.571 -0.4904  0.0820  0.2730
36280SOL    HW118770   1.183   3.840  12.515 -1.8297 -1.1164  0.5679
36280SOL    HW218771   1.324   3.840  12.569 -0.9537  0.8566 -1.5284
36281SOL     OW18772   5.820   3.282   1.748 -0.9965 -0.3669  0.1069
36281SOL    HW118773   5.904   3.244   1.774 -0.5571  1.1455  0.9656
36281SOL    HW218774   5.827   3.292   1.653 -0.4863 -0.8664  0.0833
36282SOL     OW18775   1.839   9.997   0.849  0.4063 -0.2833 -0.4231
36282SOL    HW118776   1.873  10.085   0.865  0.9560 -0.5436 -0.1293
36282SOL    HW218777   1.851   9.984   0.754  0.7904 -0.2300 -0.3834
36283SOL     OW18778   5.613   1.888  12.554  0.1396  0.1770 -0.3753
36283SOL    HW118779   5.573   1.824  12.494  2.2761 -0.9964 -0.6423
36283SOL    HW218780   5.622   1.840  12.637 -1.1721  1.2183  0.4083
36284SOL     OW18781   1.604   5.002   9.254  0.2041  0.2097  0.4794
36284SOL    HW118782   1.672   5.054   9.297  0.9678 -0.0903 -0.3307
36284SOL    HW218783   1.537   5.065   9.229  0.8905  0.7428 -0.0564
36285SOL     OW18784   3.062   9.765   6.847 -0.3563 -0.1426 -0.3925
36285SOL    HW118785   3.014   9.722   6.775 -0.5281  0.2623 -0.5227
36285SOL    HW218786   3.064   9.699   6.916  0.7871 -0.9521 -1.1650
36286SOL     OW18787   3.458   0.556   4.316  0.3044 -0.1659 -0.3127
36286SOL    HW118788   3.435   0.464   4.303 -0.0391  0.0242 -1.1527
36286SOL    HW218789   3.464   0.592   4.227  0.3657  0.6342  0.0038
36287SOL     OW18790   2.218   9.140  12.327 -0.2520  0.7327  0.0586
36287SOL    HW118791   2.305   9.105  12.307  0.2037  2.2799 -0.8375
36287SOL    HW218792   2.222   9.160  12.421  0.8139  1.9163 -0.2120
36288SOL     OW18793   7.813   7.443   0.828 -0.2823  0.2925 -0.1894
36288SOL    HW118794   7.754   7.368   0.842  0.7339 -0.5450 -0.2394
36288SOL    HW218795   7.762   7.519   0.855 -0.6051 -0.6181  1.9675
36289SOL     OW18796  12.842  11.505   4.911 -0.2812  0.0810 -0.1975
36289SOL    HW118797  12.789  11.433   4.877  0.4394 -0.2936 -0.5549
36289SOL    HW218798  12.831  11.501   5.006 -0.4145 -0.3642 -0.2309
36290SOL     OW18799   1.785   7.762   9.681  0.2673  0.6528  0.1212
36290SOL    HW118800   1.774   7.667   9.672  0.4437  0.3865  2.1681
36290SOL    HW218801   1.746   7.782   9.766  1.6410  2.1723  0.4449
36291SOL     OW18802   7.092   8.950   7.513 -0.2875  0.2180 -0.0664
36291SOL    HW118803   7.152   8.879   7.492 -0.4183  0.1516 -0.2215
36291SOL    HW218804   7.091   9.005   7.434 -1.0219 -0.1999 -0.3625
36292SOL     OW18805   6.582   0.645   1.514  0.0852  0.0638  0.3043
36292SOL    HW118806   6.676   0.628   1.507  0.5323  2.1356  0.7599
36292SOL    HW218807   6.544   0.559   1.535  1.7458 -0.9834 -0.7468
36293SOL     OW18808   5.188  10.209   7.990  0.0969 -0.4709 -0.1562
36293SOL    HW118809   5.161  10.142   7.928 -1.4588 -0.2147  0.1845
36293SOL    HW218810   5.278  10.231   7.965  0.8685 -3.0827  0.1225
36294SOL     OW18811   5.304  11.335   4.898 -0.7173  0.4519 -0.0305
36294SOL    HW118812   5.226  11.380   4.931 -0.6723 -0.2001  1.0038
36294SOL    HW218813   5.270  11.261   4.849 -0.8123  1.8810 -2.2594
36295SOL     OW18814   3.965   5.333  11.912 -0.6196  0.2004  0.1502
36295SOL    HW118815   4.026   5.290  11.972 -1.1295 -1.2474 -0.3245
36295SOL    HW218816   3.932   5.262  11.857 -1.3773  1.2463 -0.7825
36296SOL     OW18817  13.241   1.937   9.793 -0.0535 -0.7024 -0.0749
36296SOL    HW118818  13.333   1.964   9.789 -0.8891  3.2611  1.8030
36296SOL    HW218819  13.236   1.876   9.866  0.9319 -0.0428  0.5552
36297SOL     OW18820  11.506   8.060  12.968  0.0237  0.7514 -0.1542
36297SOL    HW118821  11.586   8.075  13.018  0.6865  0.0024 -0.9454
36297SOL    HW218822  11.457   8.142  12.974  0.8963  1.2504  0.2619
36298SOL     OW18823   0.389   2.117   1.631  0.0084 -0.4287 -0.6738
36298SOL    HW118824   0.483   2.101   1.639 -0.2477 -2.6841 -1.4771
36298SOL    HW218825   0.365   2.078   1.547 -1.5439  0.8002 -0.8561
36299SOL     OW18826   1.268   5.920   0.470  0.1345  0.2920  0.2271
36299SOL    HW118827   1.265   5.932   0.375 -0.6994  0.5736  0.2744
36299SOL    HW218828   1.277   6.009   0.505 -1.1185  0.3647  0.4390
36300SOL     OW18829   4.864   7.019  12.885 -0.5942 -0.1311 -0.2538
36300SOL    HW118830   4.821   7.093  12.842 -1.8383 -0.6065  0.1141
36300SOL    HW218831   4.886   6.959  12.814  1.0822  0.8915 -0.6313
36301SOL     OW18832   3.647   7.299   4.868 -0.3682  0.2428 -0.1724
36301SOL    HW118833   3.646   7.357   4.944  0.1543 -0.9192  0.7621
36301SOL    HW218834   3.694   7.348   4.800  2.1343  0.1168  1.3236
36302SOL     OW18835   3.330   2.848   0.565  0.4955 -0.0400  0.3107
36302SOL    HW118836   3.310   2.784   0.633 -0.8429 -1.4991 -1.3580
36302SOL    HW218837   3.354   2.796   0.488  1.7600  1.5375 -0.4314
36303SOL     OW18838  10.886   1.759   4.841  0.6356  0.1460 -0.5759
36303SOL    HW118839  10.927   1.698   4.780  1.0041  0.5913 -0.7791
36303SOL    HW218840  10.928   1.740   4.925  0.5334 -0.0794 -0.5732
36304SOL     OW18841   8.165   9.945   8.518 -0.3705  0.1405  0.2106
36304SOL    HW118842   8.123   9.921   8.435  0.3651 -1.4734  0.2781
36304SOL    HW218843   8.097   9.993   8.566 -2.0899 -2.1014  0.1839
36305SOL     OW18844   0.388   2.457   9.233 -0.1278  0.6049  0.3964
36305SOL    HW118845   0.386   2.534   9.290 -1.3568  0.2743  0.8397
36305SOL    HW218846   0.388   2.493   9.144  0.6703  1.1143  0.5864
36306SOL     OW18847  11.884   3.557  12.211 -0.9811  0.3032 -0.2022
36306SOL    HW118848  11.899   3.631  12.269 -0.1106  0.9047 -1.1638
36306SOL    HW218849  11.792   3.565  12.186 -0.8022  1.2863 -0.5827
36307SOL     OW18850   0.411   0.495   6.802  0.4862 -0.5504 -0.2598
36307SOL    HW118851   0.444   0.419   6.851  1.9250 -0.6435 -1.3110
36307SOL    HW218852   0.485   0.524   6.750 -0.1256  1.4287 -0.1075
36308SOL     OW18853   5.022   4.826   9.743  0.3926  0.1464  0.3786
36308SOL    HW118854   4.976   4.747   9.773  0.5160  0.5419  1.6708
36308SOL    HW218855   4.970   4.899   9.778 -0.0326  0.6737 -1.2750
36309SOL     OW18856   1.525  10.360   3.464  0.1455 -0.3022  0.5834
36309SOL    HW118857   1.614  10.326   3.461  0.5169  0.6343  0.7308
36309SOL    HW218858   1.526  10.423   3.536  0.0887  1.6621 -1.0389
36310SOL     OW18859   0.721  12.293   0.127 -0.3452  0.3941  0.1863
36310SOL    HW118860   0.783  12.225   0.099 -0.3744  0.3731  0.1735
36310SOL    HW218861   0.670  12.252   0.196  0.1617  0.6576  0.7287
36311SOL     OW18862  12.694   8.106   8.195  0.4162  0.0662 -0.0545
36311SOL    HW118863  12.766   8.165   8.174 -0.0559  0.7475  0.2010
36311SOL    HW218864  12.632   8.160   8.244 -0.2529 -0.5166 -0.2363
36312SOL     OW18865   1.384   4.909  13.152 -0.2011 -0.0162  0.8701
36312SOL    HW118866   1.398   4.898  13.246  2.4444  1.0703  0.7018
36312SOL    HW218867   1.456   4.965  13.123 -1.6802  0.7916 -1.6048
36313SOL     OW18868   2.119   9.291  10.436  0.2413  0.8760  0.6346
36313SOL    HW118869   2.153   9.210  10.474 -2.3369 -0.1756  0.8692
36313SOL    HW218870   2.197   9.339  10.408  1.8660 -2.6343 -1.5442
36314SOL     OW18871  10.207   7.284  11.245 -0.1247 -0.5792  0.2778
36314SOL    HW118872  10.125   7.321  11.276 -0.0102 -0.4676  0.4542
36314SOL    HW218873  10.215   7.314  11.154 -0.4990 -0.9655  0.1170
36315SOL     OW18874   1.108   9.722   8.195  0.1164 -0.2189 -0.1631
36315SOL    HW118875   1.202   9.737   8.186  0.0741  1.0125  1.2527
36315SOL    HW218876   1.076   9.795   8.247 -1.5697 -0.8434 -0.2547
36316SOL     OW18877   3.491   1.879  12.303 -0.1572 -0.0423 -0.1435
36316SOL    HW118878   3.501   1.810  12.368 -0.2690  0.1523  0.0813
36316SOL    HW218879   3.498   1.834  12.219 -3.0486 -0.8105 -0.0741
36317SOL     OW18880   3.526   4.493   0.830  0.5636  0.2337 -0.5672
36317SOL    HW118881   3.594   4.549   0.794  0.2836  1.3286  0.5314
36317SOL    HW218882   3.535   4.410   0.783  4.1412 -0.4858  1.0913
36318SOL     OW18883   0.319   1.460   5.991  0.6958 -0.2509 -0.2758
36318SOL    HW118884   0.271   1.533   6.029  1.3059  1.8542 -3.2528
36318SOL    HW218885   0.280   1.382   6.032 -0.9629  1.5991  1.9544
36319SOL     OW18886   3.366   4.586   4.839 -0.5658  0.2204 -0.2184
36319SOL    HW118887   3.289   4.561   4.788 -1.1285  0.2244  0.6197
36319SOL    HW218888   3.398   4.504   4.877  0.2121  0.1233 -1.0447
36320SOL     OW18889   7.649   1.224  10.444  0.2107  0.2763 -0.6109
36320SOL    HW118890   7.684   1.142  10.479  0.3744  0.3031 -0.7141
36320SOL    HW218891   7.617   1.202  10.357  0.6679  0.4254 -0.8152
36321SOL     OW18892   2.971   3.107   3.942  0.1957  0.5169  0.2634
36321SOL    HW118893   3.028   3.110   3.865 -0.4989  2.7931 -0.2414
36321SOL    HW218894   2.883   3.119   3.906 -0.1900  1.0644  1.3749
36322SOL     OW18895   2.988   2.129   8.093  0.4871 -0.2531 -0.3877
36322SOL    HW118896   3.030   2.210   8.123 -0.7439  0.4255 -0.4144
36322SOL    HW218897   2.996   2.069   8.167  1.6049 -0.1951 -0.4434
36323SOL     OW18898   0.433   2.200  11.379 -0.1822 -0.4145  0.6247
36323SOL    HW118899   0.480   2.169  11.456  1.6378 -0.3018 -0.3968
36323SOL    HW218900   0.342   2.172  11.394 -0.4735  1.7535  3.9513
36324SOL     OW18901  12.556   6.375   3.620  0.0031 -0.3443 -0.1946
36324SOL    HW118902  12.470   6.415   3.633 -0.4026 -0.8351 -1.2840
36324SOL    HW218903  12.570   6.322   3.698 -0.1756  0.5983  0.5068
36325SOL     OW18904   8.951   5.848   1.765 -0.0799  0.6768 -0.5145
36325SOL    HW118905   8.883   5.913   1.747 -1.5392  0.0570  2.1764
36325SOL    HW218906   8.963   5.852   1.860  3.0050  0.0501 -0.7742
36326SOL     OW18907   6.943   2.996  10.827  0.4912 -0.0464  0.5174
36326SOL    HW118908   7.035   2.970  10.822  0.8503  0.7906  2.0455
36326SOL    HW218909   6.943   3.089  10.805  0.3770  0.5185  2.6176
36327SOL     OW18910  12.190   9.448   9.184  0.4310 -0.3068 -0.4980
36327SOL    HW118911  12.161   9.529   9.143  0.8190 -0.4249 -1.0122
36327SOL    HW218912  12.283   9.461   9.202  0.3431 -0.3842  0.0402
36328SOL     OW18913   4.360  11.699   2.357  0.3887  0.3770  0.0993
36328SOL    HW118914   4.375  11.605   2.373  1.2711  0.5213  0.1966
36328SOL    HW218915   4.372  11.709   2.262 -0.7669  0.2190 -0.0758
36329SOL     OW18916   5.430   5.276   3.026  0.2519 -0.5149 -0.7684
36329SOL    HW118917   5.520   5.289   3.059  0.2267  1.2145 -1.2983
36329SOL    HW218918   5.440   5.272   2.931 -0.1682 -0.9790 -0.7934
36330SOL     OW18919   5.068   2.615  13.135 -0.3085 -0.0729 -0.1246
36330SOL    HW118920   5.063   2.699  13.180  2.7118 -0.3410  0.9693
36330SOL    HW218921   5.129   2.630  13.063 -2.6184 -0.4653 -2.2751
36331SOL     OW18922   8.781   7.710   6.254  0.2937  0.4360  0.7531
36331SOL    HW118923   8.827   7.724   6.336  1.2092 -0.8539  0.4954
36331SOL    HW218924   8.845   7.731   6.186 -0.2030  0.7388  0.3688
36332SOL     OW18925   1.929  11.902   8.785 -0.0609  0.6581 -0.2317
36332SOL    HW118926   1.929  11.807   8.775  0.6441  0.2349  2.7077
36332SOL    HW218927   1.874  11.934   8.714 -0.5673 -1.9538 -1.1288
36333SOL     OW18928   4.061  12.195  11.257 -0.8367  0.0138  0.2905
36333SOL    HW118929   3.984  12.198  11.200 -1.4737  0.4152  1.1622
36333SOL    HW218930   4.033  12.146  11.334  0.0699 -0.6564  0.2259
36334SOL     OW18931   4.433  10.613  12.284  0.3072 -0.0081  0.7704
36334SOL    HW118932   4.420  10.525  12.319  2.9992 -0.2542  1.3923
36334SOL    HW218933   4.477  10.600  12.200 -2.0577  0.7317 -0.6799
36335SOL     OW18934   4.048   8.821   7.792  0.2899 -0.7614  0.0518
36335SOL    HW118935   4.089   8.871   7.864 -0.9816 -1.8772  1.6262
36335SOL    HW218936   4.009   8.888   7.736  2.1755  0.1970 -0.1973
36336SOL     OW18937  12.425   2.605   7.667  0.2238 -0.0238 -0.0411
36336SOL    HW118938  12.394   2.582   7.755 -1.2218  2.8598  0.3212
36336SOL    HW218939  12.365   2.560   7.608  0.3183 -0.8217  0.4468
36337SOL     OW18940   0.962   7.428   4.074  0.1567  0.6199  0.0808
36337SOL    HW118941   0.888   7.417   4.134 -1.0125 -0.1489 -1.4363
36337SOL    HW218942   1.019   7.352   4.092 -0.2251  0.3497  0.1633
36338SOL     OW18943   4.922   5.113  10.271 -0.6144  0.6844  0.3136
36338SOL    HW118944   4.863   5.050  10.230  0.6898 -0.1009 -0.4300
36338SOL    HW218945   4.871   5.152  10.342 -2.1272  0.3037 -0.5336
36339SOL     OW18946   8.192   5.053   7.392 -0.0867  0.6347 -0.6213
36339SOL    HW118947   8.213   5.129   7.446  1.4935  0.3085 -0.7269
36339SOL    HW218948   8.244   4.982   7.428 -0.5856 -0.0968 -1.3017
36340SOL     OW18949  11.495   6.678   0.521 -0.6235 -0.8208 -0.0154
36340SOL    HW118950  11.549   6.757   0.527  0.4879 -1.6194  1.0802
36340SOL    HW218951  11.469   6.673   0.429  1.0615 -0.3110 -0.5547
36341SOL     OW18952  11.538   2.398   8.744  0.1901 -0.0085 -0.4513
36341SOL    HW118953  11.540   2.314   8.698 -0.0976 -0.5840  0.5635
36341SOL    HW218954  11.629   2.410   8.773  0.2866  0.1619 -0.8125
36342SOL     OW18955  10.923   6.680   2.113  0.1759  0.2414 -0.1881
36342SOL    HW118956  10.932   6.669   2.018 -1.8737 -0.2350 -0.3843
36342SOL    HW218957  11.005   6.646   2.149  1.4858  1.4768 -1.8162
36343SOL     OW18958   4.131   2.722   9.713 -0.1324  0.1128 -0.3437
36343SOL    HW118959   4.093   2.753   9.631 -2.6794 -0.7575  0.4082
36343SOL    HW218960   4.164   2.635   9.693 -0.9525 -0.1878 -0.4137
36344SOL     OW18961   1.369   6.068   8.908  0.3550 -0.1326  0.1878
36344SOL    HW118962   1.391   6.161   8.912 -1.2462  0.3121 -0.3605
36344SOL    HW218963   1.391   6.042   8.818  2.9481 -0.9111  0.9872
36345SOL     OW18964   2.592   7.854   3.590 -0.6491  0.2643  0.2805
36345SOL    HW118965   2.522   7.847   3.653  0.4916 -3.3665  1.3941
36345SOL    HW218966   2.554   7.822   3.508 -0.9368  0.7282  0.2287
36346SOL     OW18967   2.739   3.329   1.083 -0.1493 -0.1972 -0.1954
36346SOL    HW118968   2.677   3.277   1.031 -1.3132  1.1777 -0.2338
36346SOL    HW218969   2.767   3.270   1.153 -1.2138 -0.9681 -0.3987
36347SOL     OW18970   3.200   0.950  12.908 -0.2527  0.2270 -0.0504
36347SOL    HW118971   3.252   1.029  12.897 -1.2951  0.7045 -1.9782
36347SOL    HW218972   3.125   0.977  12.961 -1.3367  0.9637 -1.8478
36348SOL     OW18973   8.156   7.802   3.034  0.5188 -0.1069  0.5575
36348SOL    HW118974   8.197   7.869   3.089  3.9039 -2.0627  0.7352
36348SOL    HW218975   8.184   7.824   2.945  1.0700 -0.8549  0.5351
36349SOL     OW18976  11.383   4.224  10.008  0.3711 -0.0801  0.7436
36349SOL    HW118977  11.446   4.152  10.003 -0.5633 -0.8233 -2.1917
36349SOL    HW218978  11.341   4.226   9.922 -2.6017  1.3414  2.0722
36350SOL     OW18979  11.269   3.323   1.715 -0.2131 -0.1915 -0.1901
36350SOL    HW118980  11.232   3.243   1.753  1.7999 -0.2224  1.9651
36350SOL    HW218981  11.352   3.295   1.677  0.3374  0.7689  0.2592
36351SOL     OW18982   4.510   5.514   9.524  0.2640 -0.2775 -0.5268
36351SOL    HW118983   4.554   5.434   9.496  1.1972  0.1816 -0.4395
36351SOL    HW218984   4.529   5.577   9.455 -0.8088 -0.2380 -0.7933
36352SOL     OW18985   9.537  10.695   8.187  0.4281 -0.3888  0.3482
36352SOL    HW118986   9.539  10.645   8.269  1.1889 -1.5781 -0.3647
36352SOL    HW218987   9.628  10.721   8.172  0.3431 -0.4268 -0.2544
36353SOL     OW18988   1.488   7.899   3.825 -0.0508 -0.4797 -0.0381
36353SOL    HW118989   1.554   7.837   3.855  0.2393  0.1879  0.7045
36353SOL    HW218990   1.482   7.964   3.894  0.2394  0.7919 -1.1697
36354SOL     OW18991   5.844   1.685   4.762  0.0329  0.2013  0.6176
36354SOL    HW118992   5.802   1.708   4.680  1.4801  0.5929 -0.0472
36354SOL    HW218993   5.869   1.769   4.801 -0.2934  0.0029  1.2660
36355SOL     OW18994   9.141   1.769  10.720  0.1059  0.8052 -0.1134
36355SOL    HW118995   9.183   1.735  10.641 -0.7261  0.7552 -0.5426
36355SOL    HW218996   9.123   1.692  10.773  1.3805  0.8995  0.5092
36356SOL     OW18997  13.262  10.727   7.685  0.4892 -0.5629 -0.0439
36356SOL    HW118998  13.271  10.689   7.772 -1.5110  0.0513  0.4899
36356SOL    HW218999  13.170  10.711   7.661  0.1475  1.9121 -0.7102
36357SOL     OW19000  12.794   0.892  11.742 -0.3614  0.0230 -0.4019
36357SOL    HW119001  12.710   0.888  11.695 -0.1804  0.2393 -0.7499
36357SOL    HW219002  12.856   0.849  11.683 -0.0317  0.7426 -0.5970
36358SOL     OW19003   2.269  12.552   0.290 -0.0878 -0.3490  0.1325
36358SOL    HW119004   2.251  12.507   0.208 -1.6400  0.5380 -0.0559
36358SOL    HW219005   2.202  12.520   0.350  1.0633 -1.0349  1.1081
36359SOL     OW19006  10.025  11.853  12.573 -0.0159  0.3405  0.0170
36359SOL    HW119007  10.110  11.896  12.581 -0.4487  1.5170 -1.2801
36359SOL    HW219008   9.997  11.839  12.663  0.7792  1.5456  0.4878
36360SOL     OW19009  13.079   9.061   9.148  0.2348 -0.6860  0.5205
36360SOL    HW119010  13.163   9.043   9.106  0.1668 -0.5887  0.3415
36360SOL    HW219011  13.099   9.066   9.242  0.8678  1.6857  0.3283
36361SOL     OW19012   0.883   8.706   7.962 -0.6582 -0.4672 -0.2537
36361SOL    HW119013   0.800   8.670   7.931 -0.2027 -1.0106 -0.8572
36361SOL    HW219014   0.947   8.636   7.947  0.4084  0.8536 -2.1717
36362SOL     OW19015  11.016   5.419   3.989 -0.2486 -0.6118  0.2976
36362SOL    HW119016  11.017   5.435   4.084  1.0893 -1.0947  0.3892
36362SOL    HW219017  10.953   5.348   3.978  0.1644 -1.0949  0.9381
36363SOL     OW19018  10.755   7.954  12.620  0.1424 -0.2766  0.0390
36363SOL    HW119019  10.721   8.043  12.615  1.4962  0.3420  1.1591
36363SOL    HW219020  10.725   7.922  12.705 -1.5743 -1.4759 -0.9509
36364SOL     OW19021   0.029   0.849  10.765 -0.2917  0.0635 -0.3172
36364SOL    HW119022  -0.025   0.830  10.842 -0.7505 -1.8897 -1.0676
36364SOL    HW219023   0.115   0.871  10.800 -1.0568  1.3586  0.8251
36365SOL     OW19024  12.273   7.969   0.302 -0.7191 -0.0995  0.0034
36365SOL    HW119025  12.210   8.019   0.354 -2.0042 -1.7803  0.1222
36365SOL    HW219026  12.244   7.979   0.212 -1.0433 -0.7066  0.0376
36366SOL     OW19027   2.411   8.685  12.272 -0.2650 -0.0799  0.3505
36366SOL    HW119028   2.449   8.642  12.195 -0.5042 -0.1459  0.2669
36366SOL    HW219029   2.441   8.633  12.346 -1.8200 -1.3701  0.1534
36367SOL     OW19030   8.641   7.068   5.402 -0.5901  0.3119 -0.2811
36367SOL    HW119031   8.701   7.020   5.460 -0.3120  1.9628  0.8829
36367SOL    HW219032   8.557   7.023   5.412 -0.5792  0.6062  1.5483
36368SOL     OW19033   3.282   3.004   5.660  0.1648  0.0251 -1.0074
36368SOL    HW119034   3.327   2.922   5.679  0.0303  0.1507 -0.0830
36368SOL    HW219035   3.194   2.992   5.695 -0.3731 -0.0240 -2.3287
36369SOL     OW19036   2.899   1.730   6.963 -0.3149 -0.0822  0.1172
36369SOL    HW119037   2.831   1.797   6.964  1.6642  2.0647  0.5692
36369SOL    HW219038   2.891   1.687   7.048 -0.5950  0.7408  0.5221
36370SOL     OW19039  12.608   7.353  11.819  0.2986  0.0296 -0.0469
36370SOL    HW119040  12.635   7.436  11.859  1.0095 -0.4906  0.5684
36370SOL    HW219041  12.591   7.295  11.894 -1.1568 -0.0948 -0.4437
36371SOL     OW19042  12.944   0.251  10.668 -0.4058 -0.3859 -0.2197
36371SOL    HW119043  12.933   0.308  10.591 -0.2785 -0.7862 -0.5361
36371SOL    HW219044  12.856   0.219  10.687 -0.4127 -0.4124 -0.2960
36372SOL     OW19045  11.906  11.550   3.422  0.3047 -0.7489 -0.0801
36372SOL    HW119046  11.961  11.496   3.365  0.7833 -0.0090 -0.3189
36372SOL    HW219047  11.898  11.498   3.502 -2.0742 -2.7700 -1.4923
36373SOL     OW19048  10.758  11.392   8.092  0.5014 -0.6713 -0.4189
36373SOL    HW119049  10.785  11.442   8.170 -2.1282  0.3170 -0.0326
36373SOL    HW219050  10.708  11.319   8.127  1.3527 -1.6124 -1.1304
36374SOL     OW19051   4.778  12.691   4.982 -0.1048 -0.4571 -0.1966
36374SOL    HW119052   4.821  12.609   4.957  0.7687  0.0602 -0.4511
36374SOL    HW219053   4.784  12.692   5.078 -0.2284 -0.7469 -0.1843
36375SOL     OW19054   1.750  11.149   1.000 -0.1341  0.3876 -0.1596
36375SOL    HW119055   1.757  11.161   1.095 -2.5671  3.1983 -0.1982
36375SOL    HW219056   1.678  11.086   0.989  0.4966 -0.3438 -0.1644
36376SOL     OW19057   1.260   1.264   3.148 -0.2696  0.3763 -0.9330
36376SOL    HW119058   1.235   1.200   3.215 -1.5149 -0.5558 -2.2125
36376SOL    HW219059   1.355   1.270   3.154 -0.2007 -1.0158 -0.2549
36377SOL     OW19060   8.422  13.006   9.937  0.0959 -0.8851  0.2626
36377SOL    HW119061   8.512  13.020   9.908 -0.0035  0.0662  0.3858
36377SOL    HW219062   8.368  13.043   9.867 -0.1700 -0.3109  0.7505
36378SOL     OW19063  12.546   1.185  11.718  0.7130  0.1900  0.6737
36378SOL    HW119064  12.464   1.144  11.692  0.6427  0.6687  0.1131
36378SOL    HW219065  12.603   1.175  11.641  1.6369 -1.2924  1.5044
36379SOL     OW19066   5.391   7.785  10.156 -0.4056 -0.2211 -0.3320
36379SOL    HW119067   5.319   7.731  10.124  0.0933 -1.3510  0.3745
36379SOL    HW219068   5.400   7.759  10.248  0.6358  0.1914 -0.3107
36380SOL     OW19069   9.423   5.933   0.897 -0.1733 -0.5933  0.6098
36380SOL    HW119070   9.403   5.971   0.983  0.6610  0.8505  0.2017
36380SOL    HW219071   9.518   5.924   0.896 -0.2667 -1.6356  0.2345
36381SOL     OW19072  10.712   3.057   5.733  0.2668 -0.0590  0.1785
36381SOL    HW119073  10.791   3.025   5.777  0.6031  0.7534  0.1859
36381SOL    HW219074  10.722   3.028   5.642 -0.1432 -1.2245  0.4847
36382SOL     OW19075   6.083   2.294  11.946  0.0972  0.1416 -0.7244
36382SOL    HW119076   6.117   2.297  11.857  0.2761  0.9960 -0.6359
36382SOL    HW219077   6.022   2.220  11.947  1.1382 -0.7399 -1.1783
36383SOL     OW19078   4.856   4.348   5.311 -0.5539 -0.0902  0.7444
36383SOL    HW119079   4.823   4.264   5.345 -0.0629 -0.0259  1.4080
36383SOL    HW219080   4.896   4.390   5.387 -1.5074  1.1109  0.5974
36384SOL     OW19081   2.301   5.872  11.548 -0.1551 -0.3013 -0.1321
36384SOL    HW119082   2.308   5.858  11.454 -1.3574  0.3315 -0.3333
36384SOL    HW219083   2.238   5.807  11.578 -2.0739  1.3878 -0.2881
36385SOL     OW19084   4.117   9.453   1.022  0.7038 -0.1913  0.1678
36385SOL    HW119085   4.175   9.467   1.097  0.5088 -0.3768  0.3538
36385SOL    HW219086   4.075   9.538   1.008 -0.3690 -0.5374  1.2061
36386SOL     OW19087   1.878   4.642   5.721 -0.8233  0.3638 -0.0018
36386SOL    HW119088   1.827   4.721   5.742 -0.6190  0.5476 -0.1952
36386SOL    HW219089   1.855   4.580   5.790  0.4275  1.2310  1.2601
36387SOL     OW19090  12.756   3.936   8.978 -0.1178  0.0709  0.0460
36387SOL    HW119091  12.847   3.916   8.954 -0.5410  0.3597 -1.9679
36387SOL    HW219092  12.710   3.853   8.964 -0.0049 -0.4284  2.2620
36388SOL     OW19093  13.068   4.144   7.195  0.6086 -0.1048 -0.6476
36388SOL    HW119094  13.033   4.204   7.260  0.9027 -0.6959  0.0619
36388SOL    HW219095  13.162   4.161   7.194  0.4333  1.0390 -2.1018
36389SOL     OW19096   5.170  11.440   8.073  0.0288  0.5325 -0.1713
36389SOL    HW119097   5.253  11.420   8.116  0.0507 -2.2881 -1.3048
36389SOL    HW219098   5.191  11.441   7.980 -1.1926 -0.1606 -0.4749
36390SOL     OW19099   3.320   6.990  13.089  0.4094  0.3560  0.0676
36390SOL    HW119100   3.342   7.081  13.069  0.3119  0.5483  0.8206
36390SOL    HW219101   3.375   6.968  13.164 -1.5756  0.6996  1.6844
36391SOL     OW19102   0.014   3.189   2.939 -0.0435 -0.2700 -0.1915
36391SOL    HW119103  -0.002   3.280   2.967  0.0556  0.0862 -1.2391
36391SOL    HW219104   0.039   3.143   3.019  1.0946  0.9094  0.1619
36392SOL     OW19105   8.559   8.320   9.742 -0.1788 -0.5410 -0.3715
36392SOL    HW119106   8.616   8.323   9.818 -1.2257 -1.2299  0.4741
36392SOL    HW219107   8.529   8.229   9.738 -3.0821  0.2568  0.6915
36393SOL     OW19108   9.460   6.687  10.964  0.1069 -0.7094  0.6961
36393SOL    HW119109   9.434   6.775  10.991  1.9702 -0.0277  0.3765
36393SOL    HW219110   9.470   6.638  11.046 -0.9252 -0.6377  0.8715
36394SOL     OW19111   1.393  12.037   3.322  0.6674  0.1336 -0.7422
36394SOL    HW119112   1.466  12.044   3.260  0.7097 -2.3512 -1.0832
36394SOL    HW219113   1.325  11.992   3.272 -0.3630  0.6348  0.1848
36395SOL     OW19114   4.552   5.500   7.669 -0.0765  0.0370 -0.3408
36395SOL    HW119115   4.572   5.476   7.760 -1.5770 -1.7447 -0.4333
36395SOL    HW219116   4.628   5.471   7.619 -0.8125 -2.5514 -0.1098
36396SOL     OW19117   1.717  11.477   3.587  0.1995 -0.0206 -0.0260
36396SOL    HW119118   1.703  11.533   3.663 -0.8840  0.2513 -0.4031
36396SOL    HW219119   1.641  11.493   3.531  0.3162 -1.2018 -0.5611
36397SOL     OW19120  11.813   4.423  10.305 -0.1322  0.4609  0.0032
36397SOL    HW119121  11.735   4.369  10.297 -0.9408  1.2970  1.7030
36397SOL    HW219122  11.812   4.480  10.229  0.0814 -1.0419 -1.1740
36398SOL     OW19123   2.608   1.259   2.344 -0.1966  0.3849  0.1540
36398SOL    HW119124   2.519   1.261   2.377 -0.3723 -1.8095 -0.0432
36398SOL    HW219125   2.600   1.278   2.251 -0.1971  2.2199  0.5056
36399SOL     OW19126  12.779   6.049   2.661 -0.0222  0.0388 -0.0528
36399SOL    HW119127  12.741   6.110   2.598 -1.0408  0.6550  1.1147
36399SOL    HW219128  12.707   6.026   2.719  0.5159 -1.7457 -0.0322
36400SOL     OW19129  10.710  10.202  11.992  0.4347  0.2333  0.1175
36400SOL    HW119130  10.627  10.200  12.040 -0.7366  0.7624 -1.7664
36400SOL    HW219131  10.772  10.158  12.050 -0.8185  1.0182  2.1765
36401SOL     OW19132   5.444   7.853   6.514 -0.0912 -0.7158  0.4448
36401SOL    HW119133   5.381   7.909   6.559  0.1572 -0.3984  0.4060
36401SOL    HW219134   5.521   7.909   6.502  0.3501 -1.2143  0.8614
36402SOL     OW19135   9.242   7.234  10.324  0.1368  0.3177 -0.0804
36402SOL    HW119136   9.179   7.197  10.386  0.2058  1.3741  0.6502
36402SOL    HW219137   9.328   7.218  10.364  0.1426  1.6473  0.4851
36403SOL     OW19138  11.959   2.787   5.724  0.1793  0.8110 -0.8009
36403SOL    HW119139  12.051   2.813   5.716  0.1424  1.3654  0.3580
36403SOL    HW219140  11.937   2.750   5.639  1.8167 -0.4637 -0.7247
36404SOL     OW19141   4.960   7.596   2.260  0.4785  0.0551 -0.5785
36404SOL    HW119142   5.042   7.581   2.212  1.0058 -0.1866  0.3749
36404SOL    HW219143   4.938   7.687   2.240  0.6169 -0.0795 -1.3802
36405SOL     OW19144   0.367  12.610  12.113  0.4509  0.6375 -0.1795
36405SOL    HW119145   0.363  12.520  12.146  1.2466 -0.0407 -1.8099
36405SOL    HW219146   0.305  12.658  12.169  0.6341 -0.7140  1.2870
36406SOL     OW19147   1.957   3.362   4.088  0.4760  0.0845  1.1290
36406SOL    HW119148   1.959   3.372   3.993 -1.9813 -1.7355  0.8180
36406SOL    HW219149   1.922   3.446   4.120 -0.0472  0.1832  0.3163
36407SOL     OW19150   3.840   4.434   2.978 -0.2847 -0.2052  0.3108
36407SOL    HW119151   3.934   4.414   2.981  0.0137  0.9194 -0.6888
36407SOL    HW219152   3.806   4.401   3.061  0.4259 -3.3215 -0.4964
36408SOL     OW19153   7.023   7.601   9.136 -0.0051 -0.2037 -0.2376
36408SOL    HW119154   7.080   7.528   9.112  1.5647  0.9871 -0.2776
36408SOL    HW219155   6.996   7.638   9.052 -0.6967 -0.6541 -0.2157
36409SOL     OW19156  11.035   5.485   3.101 -0.1714 -0.0478  0.3144
36409SOL    HW119157  11.128   5.505   3.091 -0.4647  2.1812  1.4407
36409SOL    HW219158  10.992   5.571   3.105 -2.2863 -1.0173 -0.0687
36410SOL     OW19159   2.821   1.738  10.410 -0.0725 -0.2879 -0.3642
36410SOL    HW119160   2.779   1.810  10.363 -0.1781 -0.2351 -0.1927
36410SOL    HW219161   2.753   1.704  10.468  0.6439  1.1004  1.3837
36411SOL     OW19162   0.072   4.314  11.387 -0.2285  0.7193  0.4418
36411SOL    HW119163   0.101   4.227  11.416  1.6119  0.9564 -0.5648
36411SOL    HW219164   0.030   4.299  11.303  1.0987  0.9047 -0.2781
36412SOL     OW19165   6.726   9.614   4.191 -0.6239  0.3498  0.2696
36412SOL    HW119166   6.779   9.636   4.115 -0.4561  0.5586  0.4458
36412SOL    HW219167   6.737   9.520   4.202 -1.6164  0.0837 -0.7017
36413SOL     OW19168   7.689  11.917   3.071  0.3622  0.7041 -0.3999
36413SOL    HW119169   7.678  12.011   3.055 -1.1868  0.3647 -1.6071
36413SOL    HW219170   7.727  11.883   2.990 -0.2596  0.1283 -0.4672
36414SOL     OW19171   9.891  10.000   6.855 -0.0700  0.5732 -0.0021
36414SOL    HW119172   9.961  10.062   6.835  0.1831  0.8114  1.5330
36414SOL    HW219173   9.822  10.020   6.791 -0.1578  2.7069  0.7012
36415SOL     OW19174   8.881   8.210   5.241 -0.7762  0.4947  0.0390
36415SOL    HW119175   8.854   8.294   5.204 -0.9901  1.6245  2.5470
36415SOL    HW219176   8.976   8.208   5.228 -0.9475  0.4079 -1.3333
36416SOL     OW19177  10.903   7.441  13.170  0.1462 -0.2438 -0.6020
36416SOL    HW119178  10.838   7.414  13.106 -0.2323 -1.4557  0.2641
36416SOL    HW219179  10.968   7.370  13.171 -0.0838 -0.4726  0.6519
36417SOL     OW19180   7.099   9.358   7.015 -0.1858 -0.1511 -0.1564
36417SOL    HW119181   7.188   9.349   7.051 -0.0594 -0.3313 -0.5129
36417SOL    HW219182   7.049   9.396   7.087  0.3363  0.6193 -0.1849
36418SOL     OW19183   9.826   1.323   4.309  0.1269  0.0013  0.5502
36418SOL    HW119184   9.898   1.275   4.270  1.0334  1.8848 -0.2186
36418SOL    HW219185   9.820   1.404   4.258 -0.6510  1.1737  2.3885
36419SOL     OW19186   3.861   3.518  11.448  0.1973  0.1356  0.1095
36419SOL    HW119187   3.813   3.494  11.369  2.3644 -2.1138 -0.6219
36419SOL    HW219188   3.931   3.576  11.418  1.1459 -0.8782  0.3208
36420SOL     OW19189  10.473   2.927   4.777 -0.0065  0.0413  0.8208
36420SOL    HW119190  10.466   2.831   4.781  0.0168 -0.0928 -1.1308
36420SOL    HW219191  10.411   2.952   4.708 -1.8039  1.7074  2.8813
36421SOL     OW19192  10.792   8.492  12.865  0.0192  0.7327  0.3108
36421SOL    HW119193  10.788   8.571  12.811 -1.1331  0.5931  0.1693
36421SOL    HW219194  10.742   8.514  12.944  1.1689  0.7271  1.0704
36422SOL     OW19195   0.066   8.077   5.213 -0.1288  0.2757  1.0248
36422SOL    HW119196   0.091   7.985   5.201 -0.3849 -0.0089  2.5291
36422SOL    HW219197   0.150   8.124   5.217  0.0011  0.1478  0.1381
36423SOL     OW19198  11.157  10.939   6.470  0.2383  0.2656  0.0317
36423SOL    HW119199  11.167  10.847   6.446 -0.7621 -0.5796  2.5098
36423SOL    HW219200  11.220  10.953   6.540  1.6769  2.0675 -1.4970
36424SOL     OW19201   9.730  12.121   0.695 -0.0082 -0.3062 -0.1172
36424SOL    HW119202   9.821  12.116   0.724 -0.1694  0.2251  0.4936
36424SOL    HW219203   9.689  12.186   0.753 -0.7199 -0.3704 -0.5314
36425SOL     OW19204   2.319   5.830   8.599 -0.2617  0.1372 -0.0334
36425SOL    HW119205   2.261   5.778   8.543  0.7055  1.8126 -2.7728
36425SOL    HW219206   2.403   5.784   8.596  0.3425  1.2636 -1.7109
36426SOL     OW19207  10.768   8.770   0.217  0.4364 -0.8867 -0.3074
36426SOL    HW119208  10.709   8.761   0.292  1.3043 -0.5787  0.4317
36426SOL    HW219209  10.759   8.687   0.170 -1.9458 -0.1838 -1.2723
36427SOL     OW19210   9.058  11.671   7.446  0.2510 -0.2025 -0.5499
36427SOL    HW119211   9.113  11.718   7.383  0.1165  0.2404 -0.3476
36427SOL    HW219212   9.009  11.608   7.394  1.1417 -0.7806 -0.6951
36428SOL     OW19213  11.348   3.686   0.664  0.2480 -0.1003 -0.4509
36428SOL    HW119214  11.402   3.629   0.609  0.7761  0.1415 -0.1940
36428SOL    HW219215  11.276   3.630   0.692  0.2438 -0.3692 -0.9745
36429SOL     OW19216  12.494  11.456   6.287  0.3339 -0.0390 -0.0265
36429SOL    HW119217  12.567  11.467   6.226  1.4977 -1.1931  1.1051
36429SOL    HW219218  12.448  11.378   6.254  2.0674 -1.8399  1.5237
36430SOL     OW19219  11.210   1.063   6.595 -0.1463  0.2260  0.4540
36430SOL    HW119220  11.205   1.144   6.646  0.4042  0.9437 -0.5751
36430SOL    HW219221  11.124   1.023   6.604 -0.2877  0.7134  1.3249
36431SOL     OW19222   1.724   1.904   9.813 -0.5350  0.2879  0.1010
36431SOL    HW119223   1.643   1.884   9.860 -0.8670 -0.5001 -0.7809
36431SOL    HW219224   1.782   1.830   9.833 -0.3549  0.3986 -0.0120
36432SOL     OW19225   1.824   2.420   6.191 -0.1276  0.1706 -0.2454
36432SOL    HW119226   1.778   2.503   6.201 -1.0486 -0.3590  0.0621
36432SOL    HW219227   1.793   2.386   6.107  1.3859  0.8192 -1.0919
36433SOL     OW19228   9.112   0.373   4.966 -0.0146 -0.3132 -0.0905
36433SOL    HW119229   9.206   0.370   4.984 -0.1190  0.5987  0.7243
36433SOL    HW219230   9.104   0.357   4.872  0.8912 -1.0983 -0.0421
36434SOL     OW19231   2.709  12.086   0.778 -0.2056 -0.0013  0.7990
36434SOL    HW119232   2.731  12.063   0.868 -2.2911  1.0501  1.6306
36434SOL    HW219233   2.757  12.167   0.761  0.6184 -0.4932  0.7639
36435SOL     OW19234   2.112  10.503   1.264 -0.0212 -0.0956 -0.0661
36435SOL    HW119235   2.188  10.476   1.316  0.0882  0.1658 -0.0884
36435SOL    HW219236   2.145  10.510   1.174  0.1645  0.9136  0.0609
36436SOL     OW19237   0.571   6.336   9.122  0.6951 -0.2691  0.2269
36436SOL    HW119238   0.516   6.375   9.053  0.6926 -1.2114 -0.3227
36436SOL    HW219239   0.613   6.261   9.080  1.9724  0.0886  0.8018
36437SOL     OW19240   0.762  11.092  10.079  0.0788  0.2205 -0.4084
36437SOL    HW119241   0.818  11.019  10.106 -0.8436 -0.8985 -1.4286
36437SOL    HW219242   0.698  11.101  10.149  0.0612 -0.0830 -0.3858
36438SOL     OW19243   5.243   3.629   2.178 -0.0503 -0.6876  0.1985
36438SOL    HW119244   5.282   3.667   2.257 -1.6210  0.4452  0.4678
36438SOL    HW219245   5.317   3.619   2.118  1.2453 -1.9415  1.9073
36439SOL     OW19246   3.648   0.600   8.867 -0.0410 -0.0550 -0.9614
36439SOL    HW119247   3.657   0.521   8.920 -0.3612  0.4269 -0.1771
36439SOL    HW219248   3.594   0.573   8.793 -0.0458 -0.5987 -0.7620
36440SOL     OW19249  12.049   6.757   9.924 -0.5444  0.3171  0.0034
36440SOL    HW119250  12.086   6.677   9.888 -2.6713  0.3313 -2.5319
36440SOL    HW219251  11.971   6.728   9.972 -1.1675  0.8104 -0.6908
36441SOL     OW19252   6.637   9.364  12.061  0.3603  0.2103 -0.0933
36441SOL    HW119253   6.649   9.447  12.016 -3.3230  0.3237 -1.2263
36441SOL    HW219254   6.638   9.298  11.992  1.6734 -0.5614  0.6086
36442SOL     OW19255   6.094  12.144   7.357 -0.0006 -0.2311  0.5493
36442SOL    HW119256   6.013  12.114   7.317 -0.0789  1.3246 -0.5489
36442SOL    HW219257   6.098  12.098   7.441 -3.1758  1.3078  1.7151
36443SOL     OW19258   1.866   8.159   6.836 -0.4273  0.2064 -0.0442
36443SOL    HW119259   1.887   8.085   6.892 -4.4492  1.3099  3.3684
36443SOL    HW219260   1.804   8.125   6.772 -0.3986  0.1314 -0.0316
36444SOL     OW19261   9.954   6.103   3.182  0.6036  0.3835  1.0780
36444SOL    HW119262  10.037   6.074   3.146 -1.1029 -0.7097 -2.4085
36444SOL    HW219263   9.958   6.199   3.179  2.0125  0.3619  1.7635
36445SOL     OW19264  13.115  10.302   7.914 -0.0886 -0.1162  0.1511
36445SOL    HW119265  13.176  10.349   7.970  1.0885 -2.2966  0.8186
36445SOL    HW219266  13.102  10.359   7.839  1.2033  1.2731  0.9422
36446SOL     OW19267   9.459  10.366  11.407  0.0603 -0.1026  0.0256
36446SOL    HW119268   9.423  10.440  11.454 -4.0776 -0.4332 -2.1337
36446SOL    HW219269   9.510  10.405  11.336 -2.0305  0.8080 -1.0601
36447SOL     OW19270  12.957   9.768   4.531 -0.4744  0.5631 -0.0122
36447SOL    HW119271  12.865   9.796   4.526 -0.4304  0.7330  0.1325
36447SOL    HW219272  12.993   9.791   4.445 -0.5192  0.6712 -0.0029
36448SOL     OW19273  11.377   1.683   9.967 -0.3191 -0.2758 -0.0409
36448SOL    HW119274  11.339   1.748  10.027  0.8524 -0.2740  0.7341
36448SOL    HW219275  11.313   1.611   9.966 -1.1884  0.4693 -0.1835
36449SOL     OW19276   3.367  12.687   1.178  0.3282  0.4966 -0.1993
36449SOL    HW119277   3.415  12.620   1.128 -2.3439 -0.9943 -0.9575
36449SOL    HW219278   3.343  12.643   1.260 -1.8338  0.3106 -0.8863
36450SOL     OW19279   0.929   4.975   7.546 -0.0899  0.2706  0.1478
36450SOL    HW119280   0.915   4.968   7.451 -0.4592  1.4301  0.1028
36450SOL    HW219281   0.885   4.898   7.582 -0.6810  0.2620 -0.5638
36451SOL     OW19282   5.203   4.152  12.937  0.4078 -0.5578  0.8268
36451SOL    HW119283   5.170   4.070  12.975 -0.4982  0.1327  1.5699
36451SOL    HW219284   5.248   4.125  12.857 -0.0450 -1.7595  0.9608
36452SOL     OW19285  11.119  10.179   7.139  0.0422  0.4885 -0.3260
36452SOL    HW119286  11.084  10.148   7.223  0.5930 -0.5934 -0.4785
36452SOL    HW219287  11.042  10.213   7.093 -0.4850 -0.0824  0.1085
36453SOL     OW19288   1.093   7.063   8.371 -0.0335 -0.3768  0.1869
36453SOL    HW119289   1.096   6.984   8.426  0.4043  0.9052  2.1019
36453SOL    HW219290   1.141   7.129   8.422  0.7738  0.7795 -1.9656
36454SOL     OW19291  12.350   0.916   1.285 -0.0871  0.0828 -0.4140
36454SOL    HW119292  12.273   0.862   1.268  0.3251 -0.2488 -1.3230
36454SOL    HW219293  12.357   0.921   1.380  0.1121 -1.8465 -0.2932
36455SOL     OW19294   7.062   5.285   6.282  0.0960 -0.2842 -0.0287
36455SOL    HW119295   6.971   5.309   6.260 -0.3151  0.5089  2.1948
36455SOL    HW219296   7.102   5.261   6.198 -1.2372  2.4725 -1.5949
36456SOL     OW19297   1.866  12.500   3.568 -0.1904 -0.2993 -0.2269
36456SOL    HW119298   1.778  12.463   3.564 -0.2286 -0.2386  0.0649
36456SOL    HW219299   1.853  12.594   3.554 -0.0858 -0.3957 -1.0527
36457SOL     OW19300   1.594   9.493   1.352 -0.4955 -0.3419  0.6293
36457SOL    HW119301   1.630   9.451   1.430 -0.5161  0.5429  1.1174
36457SOL    HW219302   1.522   9.436   1.325 -0.8778 -0.3360  1.6003
36458SOL     OW19303   0.967   6.153   6.110  0.5380 -0.6844  0.3559
36458SOL    HW119304   1.010   6.068   6.121  0.3125 -0.7043  1.1953
36458SOL    HW219305   0.991   6.202   6.189 -1.4218 -0.9021  1.1507
36459SOL     OW19306   4.713  12.196   5.880  0.0945 -0.1154 -0.2292
36459SOL    HW119307   4.669  12.158   5.804 -3.8093  2.7982  0.2648
36459SOL    HW219308   4.703  12.129   5.948 -2.2340 -0.2907 -0.6419
36460SOL     OW19309   0.901   0.192   2.499 -0.4733 -0.4837 -0.1826
36460SOL    HW119310   0.885   0.284   2.520  1.3286 -0.1055 -0.3099
36460SOL    HW219311   0.923   0.192   2.406  0.9169 -0.8186  0.1239
36461SOL     OW19312   8.493  11.341   4.392 -0.2003 -0.0644  0.0552
36461SOL    HW119313   8.439  11.392   4.452  0.6034  0.2699  0.5220
36461SOL    HW219314   8.544  11.407   4.345 -0.9399 -0.3158 -1.1241
36462SOL     OW19315   8.119   5.507   2.745  0.0265 -0.0050  0.1458
36462SOL    HW119316   8.212   5.527   2.743  0.2163 -0.8757 -0.8512
36462SOL    HW219317   8.114   5.417   2.777 -0.8210  1.4817  5.0384
36463SOL     OW19318   3.360   7.358   8.596 -0.0224 -0.4972  0.7857
36463SOL    HW119319   3.433   7.378   8.655  0.4993 -1.8816  0.6477
36463SOL    HW219320   3.402   7.322   8.517 -0.7062  1.1806 -0.4147
36464SOL     OW19321   9.675   8.626  11.255  0.5248 -0.5899 -0.2197
36464SOL    HW119322   9.690   8.537  11.287  2.0604 -0.9499 -1.7875
36464SOL    HW219323   9.748   8.643  11.196  1.9342  2.8291  2.1618
36465SOL     OW19324   1.281  10.923   3.527  0.7350 -0.2582 -0.1695
36465SOL    HW119325   1.367  10.927   3.485  0.8323 -0.6683 -0.0158
36465SOL    HW219326   1.288  10.981   3.603 -0.0072  1.9518 -1.6873
36466SOL     OW19327   6.618   7.086   4.881 -0.4315 -0.0978  0.4968
36466SOL    HW119328   6.577   7.021   4.824 -0.8805 -0.6610  1.4452
36466SOL    HW219329   6.585   7.066   4.969  0.1449  0.8359  0.9460
36467SOL     OW19330   3.086   5.597   3.498 -0.1920 -0.0319 -0.9891
36467SOL    HW119331   3.024   5.613   3.427  0.9871 -2.4911 -2.7244
36467SOL    HW219332   3.101   5.502   3.495  0.7181 -0.0639  1.9026
36468SOL     OW19333   3.090   2.236   3.179  0.3963 -0.0898 -0.1205
36468SOL    HW119334   3.110   2.144   3.192  2.5161  0.5192  1.4413
36468SOL    HW219335   3.063   2.268   3.266  0.7353  0.9798 -0.3867
36469SOL     OW19336   9.744   7.898   1.068 -0.1316  0.1834  0.3515
36469SOL    HW119337   9.743   7.894   0.972 -1.8164  0.6683  0.3282
36469SOL    HW219338   9.695   7.820   1.095  0.2235  0.1241  0.8321
36470SOL     OW19339   7.505   4.343   4.407 -0.3635 -0.9903 -0.1313
36470SOL    HW119340   7.558   4.406   4.359  1.6271 -2.1037  0.4698
36470SOL    HW219341   7.420   4.385   4.417 -0.0908  0.2443 -2.4850
36471SOL     OW19342   0.695  10.672   6.293  0.2976 -0.6255 -0.0966
36471SOL    HW119343   0.728  10.737   6.355 -0.6125  0.3442 -0.5877
36471SOL    HW219344   0.620  10.633   6.338 -0.1797 -0.1342 -0.4601
36472SOL     OW19345   5.401   8.031   9.908 -0.5895 -0.0295 -0.0930
36472SOL    HW119346   5.429   8.119   9.882 -0.4964 -0.0603 -0.0960
36472SOL    HW219347   5.480   7.978   9.904 -0.7326 -0.2165 -0.5305
36473SOL     OW19348   9.491  11.159   1.671  0.8381 -0.1250  0.2501
36473SOL    HW119349   9.516  11.076   1.712 -0.0321 -0.1980  0.6734
36473SOL    HW219350   9.395  11.155   1.668  0.6949  1.4979  1.6560
36474SOL     OW19351   5.186   0.788  10.645 -0.2717  0.2107  0.0445
36474SOL    HW119352   5.170   0.801  10.552  1.7184  2.7576 -0.0647
36474SOL    HW219353   5.100   0.766  10.682 -1.3167  0.2955 -2.1894
36475SOL     OW19354   9.258   9.465   7.702 -0.1128 -0.0458 -0.1612
36475SOL    HW119355   9.300   9.399   7.647 -0.9044 -0.0478 -0.7848
36475SOL    HW219356   9.185   9.498   7.649 -0.3425  0.6104  0.5333
36476SOL     OW19357  10.926   2.053   6.365 -0.5694 -0.2692 -0.0143
36476SOL    HW119358  10.854   2.108   6.397 -1.2479  0.2125 -2.2085
36476SOL    HW219359  10.986   2.048   6.439 -2.1143  0.5926  1.3826
36477SOL     OW19360  13.311  12.926   4.835  0.3385  0.4159 -0.8413
36477SOL    HW119361  13.285  12.905   4.745  0.7830 -0.8424 -0.6958
36477SOL    HW219362  13.400  12.894   4.843 -0.5992 -2.0894  0.8449
36478SOL     OW19363   6.183   4.463  10.595 -0.1567  0.5321  0.1367
36478SOL    HW119364   6.154   4.456  10.686 -2.4110 -2.3205 -0.6359
36478SOL    HW219365   6.266   4.417  10.593 -1.3962 -1.8694  0.3652
36479SOL     OW19366   8.953  10.702  12.904  0.5932  0.4871 -0.4631
36479SOL    HW119367   8.888  10.707  12.974 -0.3100  2.1031 -1.3604
36479SOL    HW219368   8.974  10.609  12.898  0.8498  0.3167  2.0499
36480SOL     OW19369  11.096  10.076  11.231 -0.2566  0.5015 -0.0617
36480SOL    HW119370  11.007  10.055  11.203 -0.6134 -3.5713  3.1324
36480SOL    HW219371  11.085  10.113  11.318  1.0870 -0.8767  0.7489
36481SOL     OW19372   1.331  11.303   6.575  0.8744  0.0027  0.7998
36481SOL    HW119373   1.402  11.312   6.512 -0.3568 -0.8161 -0.7739
36481SOL    HW219374   1.256  11.275   6.523 -0.1209 -1.0659  2.6941
36482SOL     OW19375   5.418   6.319   5.286 -0.4860 -0.2232 -0.0274
36482SOL    HW119376   5.372   6.257   5.343 -0.3444 -2.5040 -2.2416
36482SOL    HW219377   5.370   6.317   5.203  1.1042  0.6237 -1.0242
36483SOL     OW19378   2.042  12.945   2.867 -0.5933  0.0427 -0.3386
36483SOL    HW119379   2.034  12.854   2.839 -1.3176  0.2358 -0.7895
36483SOL    HW219380   2.126  12.974   2.830 -1.1565  0.0562 -1.6859
36484SOL     OW19381   1.277   4.707   5.032  0.3611  0.0339 -0.5617
36484SOL    HW119382   1.368   4.687   5.010  0.2844  0.6360 -1.4751
36484SOL    HW219383   1.264   4.668   5.118  1.7356  0.6403 -0.0544
36485SOL     OW19384   3.984   2.748   1.549 -0.2591 -0.1581  0.4245
36485SOL    HW119385   3.929   2.740   1.628 -2.7583 -0.9913 -1.2739
36485SOL    HW219386   4.051   2.811   1.573 -2.3914  1.5112  2.4733
36486SOL     OW19387   0.608  12.054   8.168  0.1529 -0.2098 -0.4234
36486SOL    HW119388   0.624  12.043   8.075  1.1976 -0.5748 -0.2096
36486SOL    HW219389   0.692  12.033   8.210 -0.6823 -1.4979  0.6963
36487SOL     OW19390  13.175   5.830   8.082 -0.0532 -0.5238 -0.0311
36487SOL    HW119391  13.126   5.860   8.158  0.2233  0.6255 -0.2899
36487SOL    HW219392  13.127   5.864   8.007  1.6025  1.4429 -0.2660
36488SOL     OW19393   2.868   0.233   2.081 -0.0765 -0.0164 -0.0443
36488SOL    HW119394   2.815   0.214   2.004 -0.3344  0.2571  0.0573
36488SOL    HW219395   2.943   0.282   2.048  1.0042 -1.8676 -0.4030
36489SOL     OW19396  10.215  11.116  13.125 -0.0676  0.3095  0.1291
36489SOL    HW119397  10.121  11.122  13.143 -0.0839 -1.0739  0.6018
36489SOL    HW219398  10.234  11.022  13.130  0.9926  0.3752 -1.7760
36490SOL     OW19399   0.903   8.085   5.642 -0.5322 -0.9234  0.2966
36490SOL    HW119400   0.845   8.159   5.628  0.2830 -0.1795  0.7525
36490SOL    HW219401   0.897   8.033   5.562  0.1464  0.5134 -0.7308
36491SOL     OW19402   2.587  10.850   6.051  0.1195  0.1376 -0.0776
36491SOL    HW119403   2.663  10.848   6.109 -0.5868 -0.0033  0.8792
36491SOL    HW219404   2.618  10.813   5.969  1.0105 -0.1888  0.3930
36492SOL     OW19405   5.540  11.094  10.921 -0.1231  0.2530  0.3683
36492SOL    HW119406   5.531  11.017  10.978 -0.2867 -2.0578 -2.5667
36492SOL    HW219407   5.631  11.092  10.892 -0.4159  0.5330 -0.5843
36493SOL     OW19408   3.379   5.035  12.266 -0.4767  0.2772  0.2936
36493SOL    HW119409   3.349   4.989  12.187  2.6972 -2.1886  0.3300
36493SOL    HW219410   3.423   5.113  12.234 -0.8919  0.3077 -0.2170
36494SOL     OW19411   3.589  11.373   5.092  0.0163  0.0946 -0.3020
36494SOL    HW119412   3.651  11.329   5.150 -1.8250 -0.0046  1.7145
36494SOL    HW219413   3.565  11.306   5.027  0.3633 -0.5425  0.2165
36495SOL     OW19414   6.480   1.661   0.002  0.3450  0.2678  0.6058
36495SOL    HW119415   6.486   1.587  -0.058  0.1026  0.1080  0.7763
36495SOL    HW219416   6.544   1.724  -0.031  1.1748 -0.3744  0.9732
36496SOL     OW19417   5.698   7.898  11.149 -0.0535 -0.5654 -0.4861
36496SOL    HW119418   5.761   7.894  11.221 -0.9955 -1.2474  0.3237
36496SOL    HW219419   5.752   7.898  11.070  1.0096  0.4641  0.2145
36497SOL     OW19420  11.008   4.996   1.408  0.0658  0.1205  0.1743
36497SOL    HW119421  11.068   5.068   1.388  1.2572 -0.4182  1.6159
36497SOL    HW219422  11.064   4.919   1.415 -1.2398 -1.1227 -1.9011
36498SOL     OW19423   8.287   9.133  12.461  0.3663 -0.1125  0.5912
36498SOL    HW119424   8.342   9.204  12.496  0.2467  1.2022 -1.6626
36498SOL    HW219425   8.198   9.165  12.470  0.3522  0.4362 -1.1604
36499SOL     OW19426  13.121   3.560  11.601  0.2430 -0.1327  0.4659
36499SOL    HW119427  13.064   3.637  11.605  1.0961  0.5160  0.3218
36499SOL    HW219428  13.060   3.486  11.602 -0.6425  0.5562 -0.4948
36500SOL     OW19429   7.555  10.206  11.047 -0.2939 -0.2890 -0.2846
36500SOL    HW119430   7.483  10.253  11.090 -0.5217 -1.7939  1.0688
36500SOL    HW219431   7.632  10.259  11.063 -0.5005 -0.4619  1.4403
36501SOL     OW19432  10.145   8.737  11.627  0.3711 -0.3410 -0.3342
36501SOL    HW119433  10.090   8.798  11.577  0.4468  1.1208  1.2704
36501SOL    HW219434  10.092   8.658  11.636 -1.1823  0.7525  0.5197
36502SOL     OW19435   1.289   3.394   9.236 -0.2207 -0.0727 -0.2208
36502SOL    HW119436   1.294   3.365   9.145 -2.1077 -1.7097  0.1266
36502SOL    HW219437   1.232   3.330   9.278  2.5049 -0.8612  2.7259
36503SOL     OW19438  13.163   5.668  12.078  0.1799 -0.1855  0.1656
36503SOL    HW119439  13.234   5.718  12.119  0.5245  0.2514 -0.9200
36503SOL    HW219440  13.206   5.620  12.008 -0.0993 -2.2530  1.3479
36504SOL     OW19441   9.500   0.068   4.423  0.4091  0.1143 -0.2649
36504SOL    HW119442   9.565   0.023   4.477 -0.3549 -0.2478  0.3832
36504SOL    HW219443   9.508   0.028   4.337  1.2569  0.2992 -0.2746
36505SOL     OW19444   5.162   6.213  11.727  0.7913 -0.2795  0.2619
36505SOL    HW119445   5.162   6.289  11.785  1.0242  0.2151 -0.3792
36505SOL    HW219446   5.097   6.154  11.765  2.1756 -0.7635  2.0517
36506SOL     OW19447   3.073   6.688   0.279 -0.0736 -0.1225 -0.4893
36506SOL    HW119448   3.007   6.755   0.260 -0.8576 -1.0515 -1.1546
36506SOL    HW219449   3.151   6.738   0.305 -1.4746  0.9861  1.9181
36507SOL     OW19450   6.214  10.776   3.025  0.2922  0.1197 -0.1358
36507SOL    HW119451   6.196  10.819   3.108 -0.9539  0.9682 -0.8165
36507SOL    HW219452   6.299  10.810   2.998  0.4488  0.2557  0.5066
36508SOL     OW19453   1.269   3.529   1.543 -0.0226  0.1769  0.3221
36508SOL    HW119454   1.264   3.618   1.509  0.4993  0.2122  0.3205
36508SOL    HW219455   1.352   3.526   1.591 -0.2538 -0.1753  0.7088
36509SOL     OW19456  12.087   1.117  10.467 -0.0187 -0.1847 -0.3643
36509SOL    HW119457  12.119   1.133  10.555  1.8912 -1.9058 -0.6839
36509SOL    HW219458  12.097   1.023  10.453 -0.8160 -0.0514 -2.2279
36510SOL     OW19459   7.653   9.578   0.670 -0.1775 -0.0880 -0.4484
36510SOL    HW119460   7.693   9.650   0.621  0.6961 -0.3811 -0.1886
36510SOL    HW219461   7.620   9.620   0.750  0.4791  0.0028 -0.2206
36511SOL     OW19462   9.463   3.884   1.984 -0.2282  0.4402  0.2884
36511SOL    HW119463   9.436   3.949   2.050  1.0866  0.7663  0.5199
36511SOL    HW219464   9.384   3.870   1.931 -0.8279  1.4380  0.8855
36512SOL     OW19465   1.200   4.325   5.274  0.6571  0.4880 -0.0810
36512SOL    HW119466   1.208   4.276   5.192  1.6403 -0.1765  0.3892
36512SOL    HW219467   1.123   4.289   5.317  1.1133 -0.3482  0.0503
36513SOL     OW19468   3.079   7.464   1.578 -0.0490 -0.5009 -0.1971
36513SOL    HW119469   3.062   7.372   1.559  0.2080 -0.8426  1.1281
36513SOL    HW219470   3.150   7.488   1.518 -1.3947 -0.5857 -1.9247
36514SOL     OW19471   5.457  10.581   7.682  0.3443  0.0922  0.0235
36514SOL    HW119472   5.390  10.591   7.614  1.5539 -0.0380 -1.2341
36514SOL    HW219473   5.411  10.601   7.764 -0.9537  1.0846 -0.8990
36515SOL     OW19474   6.012  12.520   3.099 -0.1507  0.5050  0.4961
36515SOL    HW119475   5.941  12.483   3.151 -0.6304 -1.0962 -1.2081
36515SOL    HW219476   5.979  12.605   3.070 -1.1052  0.0686  0.2781
36516SOL     OW19477   8.216   0.899   0.081  0.6219 -0.0337  0.5507
36516SOL    HW119478   8.237   0.806   0.091  0.8663 -0.0061  0.3175
36516SOL    HW219479   8.124   0.905   0.104  0.6619 -0.2960  0.7952
36517SOL     OW19480   2.482  11.574  10.780 -0.0108 -0.4391  0.1869
36517SOL    HW119481   2.447  11.508  10.840  0.5606 -1.0072 -0.1018
36517SOL    HW219482   2.561  11.535  10.745  0.3411  0.4107  0.0200
36518SOL     OW19483   4.005   6.841   8.894  0.2315 -0.0482 -0.7960
36518SOL    HW119484   4.048   6.756   8.889  1.7035  0.2529  3.2292
36518SOL    HW219485   3.925   6.825   8.944  1.1589  1.0635  1.1283
36519SOL     OW19486   6.079   7.971   6.146 -0.3006  0.2844  0.0510
36519SOL    HW119487   6.005   7.958   6.204 -0.5713 -0.6512 -0.4845
36519SOL    HW219488   6.064   8.057   6.107 -1.1261  0.0988 -0.0670
36520SOL     OW19489   9.851   3.090  11.647 -0.0932  0.6150  0.5306
36520SOL    HW119490   9.875   3.063  11.736 -0.7653  0.4529  0.6726
36520SOL    HW219491   9.755   3.089  11.647 -0.1030  0.3076 -0.2905
36521SOL     OW19492   7.593   9.115   5.722 -0.0602 -0.0742 -0.1551
36521SOL    HW119493   7.594   9.207   5.697  0.7163 -0.3024 -1.0218
36521SOL    HW219494   7.636   9.112   5.807 -0.3376  0.3969  0.0018
36522SOL     OW19495   1.594   3.056   8.670 -0.5794  0.4091 -0.0157
36522SOL    HW119496   1.596   3.152   8.670 -0.4658  0.4088  0.6457
36522SOL    HW219497   1.503   3.035   8.690 -0.2361  0.3834  1.6005
36523SOL     OW19498   8.848   7.477  12.386  0.7781 -0.5779 -0.3161
36523SOL    HW119499   8.854   7.492  12.292 -0.9023  0.9666 -0.2332
36523SOL    HW219500   8.812   7.559  12.421  1.3528 -1.1194  1.6710
36524SOL     OW19501  11.879   3.361   2.316  0.1591  0.2105 -0.2012
36524SOL    HW119502  11.830   3.433   2.276 -1.2503  0.2032  1.4291
36524SOL    HW219503  11.821   3.285   2.307 -0.4148  0.3026  2.1849
36525SOL     OW19504   2.537   0.580   7.656 -0.1294 -0.3695  0.4531
36525SOL    HW119505   2.562   0.525   7.731  1.5701  0.5046  0.5718
36525SOL    HW219506   2.441   0.571   7.651 -0.2009 -1.0685  2.2211
36526SOL     OW19507  12.331   5.626   5.419  0.0138  0.3190  0.2479
36526SOL    HW119508  12.310   5.711   5.459 -1.4167  0.2778 -0.3749
36526SOL    HW219509  12.303   5.634   5.328  4.1702  0.7879 -1.2256
36527SOL     OW19510   6.160   7.515   4.601  0.1184  0.0716  0.0881
36527SOL    HW119511   6.110   7.557   4.531  2.0842 -0.6846 -1.9105
36527SOL    HW219512   6.229   7.467   4.555  3.4193  1.9565  2.6269
36528SOL     OW19513   6.009   9.551  11.700  0.1521  1.0830 -0.1356
36528SOL    HW119514   6.016   9.456  11.685 -3.3397  0.0391  3.0819
36528SOL    HW219515   5.978   9.586  11.616  2.2635 -0.3922 -1.6307
36529SOL     OW19516   8.736   7.223   6.975 -0.8235 -0.0395  0.0185
36529SOL    HW119517   8.701   7.134   6.966 -1.0387  0.1205 -0.8790
36529SOL    HW219518   8.810   7.214   7.035 -1.6355 -0.6002  0.9603
36530SOL     OW19519  13.045   1.095   8.501 -0.1119  0.0726  1.0006
36530SOL    HW119520  13.063   1.022   8.560  0.3682  1.1417  2.2453
36530SOL    HW219521  12.965   1.070   8.455  0.5568 -1.6301  0.6814
36531SOL     OW19522   9.714  12.364  12.620 -0.0619  0.3564 -0.5183
36531SOL    HW119523   9.706  12.336  12.529 -0.2672  0.5781 -0.5694
36531SOL    HW219524   9.798  12.408  12.625 -0.8616  2.0059 -1.0479
36532SOL     OW19525   8.901   9.407   4.873 -0.0336  0.0164 -0.1015
36532SOL    HW119526   8.873   9.324   4.912  0.9106 -0.3718 -0.2346
36532SOL    HW219527   8.927   9.384   4.784 -0.7316  0.6429 -0.4810
36533SOL     OW19528   0.529   9.212  10.616 -0.2629  0.5922  0.4608
36533SOL    HW119529   0.438   9.209  10.585 -0.5755 -0.0848  1.3840
36533SOL    HW219530   0.542   9.128  10.659  0.6983  0.8298  0.6540
36534SOL     OW19531   4.950   3.286   2.052  0.1528 -0.1222 -0.0217
36534SOL    HW119532   4.973   3.368   2.009  1.6268 -1.3803 -1.7814
36534SOL    HW219533   5.028   3.231   2.041 -1.4142 -2.3577 -0.4366
36535SOL     OW19534   1.459   7.578  10.561 -0.1738  0.2212  0.0670
36535SOL    HW119535   1.447   7.665  10.521  1.1080  0.3478 -0.0719
36535SOL    HW219536   1.514   7.595  10.638 -0.8496 -0.3280  0.6878
36536SOL     OW19537   4.604   8.723  10.216 -0.5323  0.1597  0.2339
36536SOL    HW119538   4.521   8.696  10.257 -1.1277  3.2047  1.2966
36536SOL    HW219539   4.577   8.761  10.132 -0.1447  0.6380  0.3250
36537SOL     OW19540   9.388   9.533   0.399 -0.4375  0.3523 -0.2638
36537SOL    HW119541   9.339   9.615   0.400 -0.8517  0.1154 -0.4925
36537SOL    HW219542   9.403   9.516   0.306  0.7110  0.7847 -0.1714
36538SOL     OW19543   6.875  10.360   1.702 -0.5360  0.5733  0.7908
36538SOL    HW119544   6.963  10.383   1.673 -1.2780  1.1285 -1.2111
36538SOL    HW219545   6.847  10.434   1.756  0.0610  0.5815  1.0919
36539SOL     OW19546   3.753   6.368   0.969  0.0408 -0.2810  0.3831
36539SOL    HW119547   3.702   6.303   0.921 -0.3858 -0.6503  1.3050
36539SOL    HW219548   3.723   6.452   0.934  1.2136 -0.5674 -1.4232
36540SOL     OW19549   4.212  10.588   1.200 -0.3765 -0.3332 -0.5902
36540SOL    HW119550   4.176  10.597   1.112  0.5456 -0.5546 -0.9933
36540SOL    HW219551   4.179  10.503   1.231 -1.7580  0.3064 -0.2054
36541SOL     OW19552   4.489   8.247  12.620 -0.1973 -0.6487  0.0607
36541SOL    HW119553   4.565   8.212  12.573 -0.5493 -0.9620 -0.2809
36541SOL    HW219554   4.489   8.201  12.704  1.1453  0.7928  0.8897
36542SOL     OW19555  13.217   7.505   0.863 -0.2238  0.0201 -0.3058
36542SOL    HW119556  13.300   7.552   0.868 -0.6443  0.7553 -0.0417
36542SOL    HW219557  13.228   7.430   0.922 -0.5181  1.3549  1.5467
36543SOL     OW19558   9.855  10.959   8.299  0.1361  0.0763 -0.1251
36543SOL    HW119559   9.852  10.905   8.378  0.9852 -0.4376 -0.4390
36543SOL    HW219560   9.867  11.048   8.332 -2.1578  0.2290  0.4351
36544SOL     OW19561  12.933   8.506   1.391  0.5376 -0.0434 -0.2344
36544SOL    HW119562  12.987   8.581   1.417 -1.5576  1.4497  0.0630
36544SOL    HW219563  12.939   8.504   1.296 -0.5423  1.5051 -0.3818
36545SOL     OW19564  10.886  13.215  10.754 -0.1366 -0.1697  0.1288
36545SOL    HW119565  10.802  13.170  10.765 -0.8409  0.5848 -1.6999
36545SOL    HW219566  10.863  13.296  10.708  1.5791  0.1548 -0.2108
36546SOL     OW19567   4.834   9.126   2.991  0.2509  0.7131 -0.0839
36546SOL    HW119568   4.904   9.189   3.005  2.4577 -1.1198 -2.0212
36546SOL    HW219569   4.853   9.055   3.052 -0.0274  0.2689 -0.5061
36547SOL     OW19570   8.978   4.573  11.350  0.2860 -0.2400 -0.4451
36547SOL    HW119571   8.960   4.486  11.315  1.4949 -1.1505  1.0935
36547SOL    HW219572   8.918   4.631  11.302 -0.3561 -1.8599 -1.6817
36548SOL     OW19573   8.677   8.264   4.305  0.1860 -0.9950 -0.1516
36548SOL    HW119574   8.653   8.226   4.220 -1.2419  0.3280 -0.3776
36548SOL    HW219575   8.706   8.189   4.357 -1.4485 -2.2316 -0.9391
36549SOL     OW19576   4.007  12.471   6.165  0.3438  0.1417 -0.3755
36549SOL    HW119577   3.912  12.469   6.154 -0.0969  1.0403  2.3946
36549SOL    HW219578   4.036  12.384   6.137 -1.5754 -0.8467  0.4787
36550SOL     OW19579   2.623   8.903  11.059  0.1829  0.2659 -0.8705
36550SOL    HW119580   2.595   8.899  10.968 -2.0265 -0.7969 -0.2197
36550SOL    HW219581   2.613   8.814  11.092  3.1160  0.1265 -0.1276
36551SOL     OW19582   0.528   2.296   3.520  0.0731 -0.4384  0.1825
36551SOL    HW119583   0.596   2.284   3.454  0.2685 -1.0855  0.4964
36551SOL    HW219584   0.474   2.368   3.486  1.4242  0.6889  0.3603
36552SOL     OW19585   5.661   4.590   2.995  0.4252 -0.0679 -0.1811
36552SOL    HW119586   5.690   4.654   3.059  1.8447 -1.4062  0.5832
36552SOL    HW219587   5.586   4.546   3.036  0.8962 -0.4498  0.2767
36553SOL     OW19588  10.922   6.499   7.316  0.4683 -0.3903 -0.1163
36553SOL    HW119589  10.931   6.407   7.292  0.1071 -0.8235  1.3411
36553SOL    HW219590  10.886   6.498   7.405  0.1259  1.1605 -0.2040
36554SOL     OW19591  13.153   9.493  11.653  0.6439 -0.6282 -0.1529
36554SOL    HW119592  13.245   9.466  11.659  0.9163  0.4745  0.9489
36554SOL    HW219593  13.155   9.588  11.658 -0.5055 -0.5345 -1.1019
36555SOL     OW19594   7.225  11.166  10.239  0.3065 -0.3235 -0.3290
36555SOL    HW119595   7.218  11.072  10.219 -2.2832 -0.1072 -0.8009
36555SOL    HW219596   7.210  11.172  10.333 -0.3507 -0.3269 -0.4319
36556SOL     OW19597   7.476  12.414  10.290  0.2004  0.5543 -0.7815
36556SOL    HW119598   7.549  12.467  10.260  1.8556 -0.8709  0.5177
36556SOL    HW219599   7.470  12.432  10.384  0.6527 -1.2971 -0.3560
36557SOL     OW19600   8.816   7.757   5.179 -0.2920 -0.1166  0.7922
36557SOL    HW119601   8.815   7.712   5.094  0.3996  1.0111  0.1734
36557SOL    HW219602   8.766   7.837   5.164  0.0077  0.1879  1.3989
36558SOL     OW19603   8.687   3.945   7.484  0.1990  0.1069 -0.3238
36558SOL    HW119604   8.719   3.974   7.399 -1.3136 -0.2024 -1.0320
36558SOL    HW219605   8.664   3.853   7.470 -2.4960  0.7138 -0.3449
36559SOL     OW19606  11.270   1.251   1.535 -0.0066 -0.4023  0.1628
36559SOL    HW119607  11.300   1.326   1.586 -3.0024 -0.1220  1.7291
36559SOL    HW219608  11.289   1.175   1.591 -0.5522 -0.3949  0.3646
36560SOL     OW19609   2.025   3.077   0.587 -0.0603  0.2376 -0.1258
36560SOL    HW119610   2.119   3.068   0.600 -0.1490  1.3816  1.6099
36560SOL    HW219611   2.000   3.000   0.536  1.4046 -1.4010  1.5064
36561SOL     OW19612  11.526   4.578   1.138 -0.3226 -0.5215 -0.5404
36561SOL    HW119613  11.528   4.585   1.042  0.3383 -1.0730 -0.5756
36561SOL    HW219614  11.617   4.559   1.162 -1.0032 -3.5549 -0.0538
36562SOL     OW19615   6.505   3.766   4.824  0.5067  0.1386  0.2126
36562SOL    HW119616   6.435   3.703   4.844  0.1974  0.1938 -0.6554
36562SOL    HW219617   6.459   3.844   4.793  0.9274  0.4590  0.3814
36563SOL     OW19618   2.102   7.869   0.588 -0.3742  0.5998 -0.4458
36563SOL    HW119619   2.195   7.890   0.577 -0.3944  0.5204 -0.7718
36563SOL    HW219620   2.077   7.827   0.506 -0.0674 -1.6893  0.5511
36564SOL     OW19621   4.739  12.791   9.613 -0.4643  0.6380  0.0848
36564SOL    HW119622   4.697  12.863   9.566  0.4214  1.1148 -0.0010
36564SOL    HW219623   4.833  12.811   9.609 -0.2818  0.0169  0.9518
36565SOL     OW19624   4.248  12.432   9.430  0.0655  0.1682 -0.1854
36565SOL    HW119625   4.162  12.472   9.412 -0.3800 -1.0403 -0.9032
36565SOL    HW219626   4.252  12.424   9.525 -1.4994 -1.4942 -0.1927
36566SOL     OW19627   0.795   7.571   6.709 -0.0394 -0.4580  0.3670
36566SOL    HW119628   0.708   7.540   6.736  0.1835 -2.0488 -0.5481
36566SOL    HW219629   0.842   7.586   6.790 -0.7126 -1.0189  0.8765
36567SOL     OW19630   6.817   8.630   4.757 -0.4068  0.2005  0.5253
36567SOL    HW119631   6.881   8.692   4.722  0.3083  0.3131  1.9313
36567SOL    HW219632   6.763   8.606   4.683  0.6373  0.8950 -0.4937
36568SOL     OW19633  10.987   7.613   4.600  0.0908  0.2504  0.5730
36568SOL    HW119634  11.079   7.602   4.623  0.7747 -0.9091 -2.2467
36568SOL    HW219635  10.983   7.701   4.562 -0.2406  0.7566  1.7600
36569SOL     OW19636   4.182   0.825   0.802 -0.2739  0.2372  0.3159
36569SOL    HW119637   4.111   0.776   0.761 -1.1097  1.7451 -0.1336
36569SOL    HW219638   4.245   0.840   0.732 -0.1767  0.0963  0.3722
36570SOL     OW19639   5.772   4.275  13.106  0.4116  0.5903  0.8629
36570SOL    HW119640   5.716   4.200  13.087  1.4947 -0.1594  0.5694
36570SOL    HW219641   5.750   4.298  13.197  0.2547 -0.2550  1.0514
36571SOL     OW19642   7.018   8.781  10.533  0.7506 -0.3408 -0.0334
36571SOL    HW119643   7.033   8.687  10.540  0.3495 -0.3567  0.7684
36571SOL    HW219644   6.941   8.797  10.588 -0.1393  0.2225 -1.3616
36572SOL     OW19645   2.535  13.036   8.317 -0.1546 -0.9107 -0.2402
36572SOL    HW119646   2.611  13.073   8.361  1.4182 -2.0363 -1.8790
36572SOL    HW219647   2.571  12.969   8.259 -2.2665 -0.6294 -2.0157
36573SOL     OW19648   8.527  10.410  10.604 -0.1754 -0.7436 -0.2531
36573SOL    HW119649   8.576  10.334  10.635  1.0752 -0.1465 -0.7052
36573SOL    HW219650   8.552  10.481  10.663  1.0950  0.0494 -1.6838
36574SOL     OW19651  13.061   2.311   1.634 -0.3150  0.0459  0.0002
36574SOL    HW119652  13.113   2.247   1.682 -0.0684  0.6122  0.4989
36574SOL    HW219653  13.098   2.309   1.545  1.0657  0.9561  0.5172
36575SOL     OW19654   0.979   8.903   9.999  0.7746 -0.4803  0.2102
36575SOL    HW119655   1.072   8.889  10.018  0.5033 -0.1167  1.9929
36575SOL    HW219656   0.953   8.975  10.057 -0.7811 -1.0482  0.2713
36576SOL     OW19657   8.202  13.079   6.668  0.3903  0.4239  0.0518
36576SOL    HW119658   8.160  13.147   6.615 -1.5649 -0.4605  0.3884
36576SOL    HW219659   8.203  13.116   6.757 -1.9573 -0.4489  0.5113
36577SOL     OW19660  12.310   2.271   6.630  0.2266  0.1133  0.3438
36577SOL    HW119661  12.282   2.196   6.682  0.4156 -1.2376 -1.4409
36577SOL    HW219662  12.228   2.317   6.609 -0.0470 -0.4395  0.1785
36578SOL     OW19663   8.830   9.798   1.625  0.2654 -0.4564 -0.5314
36578SOL    HW119664   8.778   9.732   1.580 -2.0355  1.4186 -0.8389
36578SOL    HW219665   8.897   9.823   1.561 -1.2931  0.2497 -1.9662
36579SOL     OW19666   1.955   5.662  12.128 -0.7252 -0.5807 -0.1141
36579SOL    HW119667   2.031   5.699  12.173  0.0692 -1.2704 -0.8646
36579SOL    HW219668   1.915   5.603  12.192 -0.0116 -1.0225 -0.0713
36580SOL     OW19669   6.277   7.417  11.213  0.2563  0.5789 -0.5550
36580SOL    HW119670   6.254   7.500  11.256  0.6032  0.6916 -0.5847
36580SOL    HW219671   6.224   7.416  11.133  0.2641  0.7796 -0.5623
36581SOL     OW19672   7.854  10.946   6.575 -0.4161  0.0734 -0.1092
36581SOL    HW119673   7.781  10.902   6.618  0.6566 -0.2197  1.5342
36581SOL    HW219674   7.896  10.877   6.523 -0.2078 -0.2674  0.4845
36582SOL     OW19675   6.673   4.740   3.000  0.0708 -0.8036  0.3594
36582SOL    HW119676   6.646   4.699   3.082 -1.4433 -0.4677  0.0532
36582SOL    HW219677   6.750   4.690   2.973  0.2547 -1.2806  1.6872
36583SOL     OW19678  13.247   4.681  11.109  0.1423 -0.3614 -0.2394
36583SOL    HW119679  13.281   4.643  11.190  0.6809 -1.0311 -0.7677
36583SOL    HW219680  13.227   4.772  11.131  0.7270 -0.4129  0.5222
36584SOL     OW19681   2.607   5.479   2.523  0.1753  0.0258  0.4032
36584SOL    HW119682   2.686   5.461   2.471  0.4963  0.1101  0.8502
36584SOL    HW219683   2.596   5.401   2.577 -0.4517 -0.2751 -0.1465
36585SOL     OW19684   9.806  10.273   3.697  0.0212 -0.3915 -0.4373
36585SOL    HW119685   9.831  10.301   3.609  0.8239  0.8153  0.1349
36585SOL    HW219686   9.793  10.179   3.690 -1.6359 -0.0876 -2.2298
36586SOL     OW19687   6.901   5.879   6.740  0.1895 -0.5155 -0.7777
36586SOL    HW119688   6.996   5.870   6.748  0.0146 -1.3370  0.5995
36586SOL    HW219689   6.884   5.862   6.647  1.2502 -1.7906 -0.7726
36587SOL     OW19690  12.814   3.033  10.964 -0.1570  0.1145  0.6869
36587SOL    HW119691  12.803   3.119  11.004 -0.1138  0.7832 -0.6888
36587SOL    HW219692  12.752   3.032  10.891 -0.8450 -1.3921  1.2288
36588SOL     OW19693   6.885   4.816  12.857 -0.2614 -0.0719 -1.0568
36588SOL    HW119694   6.959   4.799  12.915 -0.4248  2.0560 -0.1467
36588SOL    HW219695   6.829   4.739  12.866  0.2890 -0.3006  0.7489
36589SOL     OW19696   4.441   6.482   1.468  0.1701 -0.3326 -0.0502
36589SOL    HW119697   4.526   6.438   1.460  0.2716  0.1417 -1.9498
36589SOL    HW219698   4.401   6.474   1.382 -1.3940  0.1521  0.5888
36590SOL     OW19699  11.745   7.189   0.377 -0.0705  0.1785 -0.7504
36590SOL    HW119700  11.694   7.269   0.370  0.6419  0.6154 -1.0042
36590SOL    HW219701  11.681   7.122   0.402 -0.1421  1.4609  3.1427
36591SOL     OW19702   9.162   6.795  12.271 -0.3082  0.3266 -0.4737
36591SOL    HW119703   9.252   6.813  12.300 -0.1418 -1.2807  0.0899
36591SOL    HW219704   9.107   6.828  12.342 -0.0425 -0.7413  0.2475
36592SOL     OW19705  10.331  10.930   6.489  0.0749  0.0229 -0.5294
36592SOL    HW119706  10.398  10.978   6.538  0.2828  2.0059 -2.5975
36592SOL    HW219707  10.375  10.850   6.461  0.4444 -0.3754  1.0826
36593SOL     OW19708  12.636   3.473  10.176 -0.2970 -0.5829 -0.3191
36593SOL    HW119709  12.606   3.445  10.262 -0.0868  0.0023 -0.0526
36593SOL    HW219710  12.570   3.441  10.115 -1.5431  0.8079  0.2611
36594SOL     OW19711   4.215  10.926   3.499 -0.2872  0.0919  0.2197
36594SOL    HW119712   4.170  11.008   3.478 -1.2574 -0.4693  0.0780
36594SOL    HW219713   4.160  10.858   3.463  0.1295 -0.6768  0.9924
36595SOL     OW19714   0.040  10.861   1.027 -0.0714  0.1183 -0.5876
36595SOL    HW119715  -0.032  10.924   1.018 -0.8999 -1.0123 -2.3662
36595SOL    HW219716   0.079  10.881   1.112 -3.1395  0.1113  0.9443
36596SOL     OW19717   1.284   0.871   3.494  0.2353  0.1648 -0.5869
36596SOL    HW119718   1.249   0.788   3.527 -0.9508  0.3946 -1.2032
36596SOL    HW219719   1.379   0.863   3.504  0.0320 -0.4216  1.3114
36597SOL     OW19720   1.538   3.903   0.218  0.2621 -0.4249 -0.0581
36597SOL    HW119721   1.461   3.889   0.163  0.2045 -0.9138  0.1391
36597SOL    HW219722   1.532   3.994   0.246  0.0546 -0.3004 -0.4953
36598SOL     OW19723   3.948   9.376   4.173 -0.3959 -0.1801  0.2948
36598SOL    HW119724   3.903   9.316   4.233  0.4526 -1.3737 -0.2076
36598SOL    HW219725   4.040   9.348   4.177  0.4115  2.3892  1.5426
36599SOL     OW19726   1.791   4.738   6.922  0.3572  0.3622 -0.7024
36599SOL    HW119727   1.854   4.667   6.932 -0.9475 -0.5901  1.8928
36599SOL    HW219728   1.790   4.782   7.007 -1.5592  1.0878 -1.0358
36600SOL     OW19729   2.284   7.843   5.465 -0.1136 -0.4849  0.1389
36600SOL    HW119730   2.243   7.842   5.551 -0.7588  1.1224 -0.0948
36600SOL    HW219731   2.376   7.824   5.481 -0.0948  0.4828  1.2848
36601SOL     OW19732   0.726   2.557   9.448 -0.2064 -0.5231 -0.2501
36601SOL    HW119733   0.790   2.486   9.438 -1.3337 -1.6782  0.3425
36601SOL    HW219734   0.645   2.512   9.474 -1.6126  0.7515 -2.1691
36602SOL     OW19735  10.621   0.549  11.150  0.3714 -0.0683 -0.3924
36602SOL    HW119736  10.592   0.583  11.235 -0.8136 -1.3078 -0.2728
36602SOL    HW219737  10.579   0.607  11.086  0.0728 -0.0268 -0.1625
36603SOL     OW19738   3.716   4.381   3.219 -0.2121  0.2526  0.3694
36603SOL    HW119739   3.708   4.332   3.301  2.1871 -1.2391 -0.1746
36603SOL    HW219740   3.779   4.451   3.239 -1.1519  1.1512  0.2779
36604SOL     OW19741   7.045  12.265   1.346  0.2230 -0.3668 -0.8890
36604SOL    HW119742   6.971  12.257   1.405  0.8188 -0.2513 -0.1153
36604SOL    HW219743   7.103  12.192   1.369  1.0138  0.3580 -0.5129
36605SOL     OW19744  12.380  10.530   1.847  0.2382  0.0005 -0.3311
36605SOL    HW119745  12.437  10.482   1.906 -1.2027 -0.2542  0.9271
36605SOL    HW219746  12.294  10.489   1.859 -1.0344  2.7350  0.6910
36606SOL     OW19747  12.379   0.602  12.882 -0.2710  0.1169 -0.3888
36606SOL    HW119748  12.387   0.666  12.811 -1.2866  1.1270  0.3754
36606SOL    HW219749  12.469   0.573  12.897  0.1518  0.9962 -1.0948
36607SOL     OW19750   6.334   8.501   4.722 -0.7821 -0.0831  0.5503
36607SOL    HW119751   6.368   8.418   4.756  1.5600  0.3461 -0.5527
36607SOL    HW219752   6.378   8.568   4.776  0.5777  0.5014 -1.1884
36608SOL     OW19753   6.568  12.034   9.306  0.5739  0.2003  0.2412
36608SOL    HW119754   6.581  12.064   9.216  0.4183  2.1696  0.8181
36608SOL    HW219755   6.629  12.087   9.358 -1.1252  0.9739  1.5644
36609SOL     OW19756   1.550  12.681   9.438 -0.2014 -0.4106 -0.2278
36609SOL    HW119757   1.551  12.761   9.385  2.2077  0.0171  0.3597
36609SOL    HW219758   1.640  12.671   9.469 -0.9191 -2.1552  1.5300
36610SOL     OW19759   5.582   0.311   1.931 -0.6365 -0.3152  0.5282
36610SOL    HW119760   5.651   0.376   1.922 -1.5316  0.7097  0.8814
36610SOL    HW219761   5.501   0.361   1.925 -1.3773 -1.5744 -0.5281
36611SOL     OW19762   9.699   3.234   3.792 -0.1314 -0.0269 -0.2880
36611SOL    HW119763   9.742   3.229   3.878 -0.9190  0.1688  0.1244
36611SOL    HW219764   9.733   3.159   3.744 -0.2871 -0.5901  0.4712
36612SOL     OW19765   1.424  11.617   7.412  0.0956 -0.3656  0.4449
36612SOL    HW119766   1.412  11.528   7.378 -0.8075  0.1985 -0.7915
36612SOL    HW219767   1.514  11.618   7.445  0.5198 -1.4084 -0.5887
36613SOL     OW19768  11.720   2.197  12.051  0.2777 -0.2697 -0.0905
36613SOL    HW119769  11.729   2.282  12.095 -1.3651  0.7638 -1.6353
36613SOL    HW219770  11.654   2.150  12.103 -1.4928  0.8583 -1.2387
36614SOL     OW19771   6.745  11.276  12.598 -0.3044  0.1984 -0.5491
36614SOL    HW119772   6.705  11.192  12.623  0.3840  0.3203  1.0904
36614SOL    HW219773   6.813  11.290  12.664 -0.7233  2.2785 -0.5182
36615SOL     OW19774   9.988   9.540   7.364  0.0339  0.7047  0.5110
36615SOL    HW119775   9.898   9.571   7.368 -0.3058 -0.2406  0.3949
36615SOL    HW219776  10.030   9.578   7.441 -0.4872  1.0615  0.6240
36616SOL     OW19777  10.784   7.716  11.736  0.4413  0.2916  0.8285
36616SOL    HW119778  10.839   7.752  11.667  0.3862 -3.3323 -1.3554
36616SOL    HW219779  10.846   7.680  11.800  0.7022 -1.8564 -0.5467
36617SOL     OW19780   2.058   2.003   0.346 -0.4991  0.0618  0.0936
36617SOL    HW119781   1.982   2.000   0.288 -0.7653 -0.7554  0.4638
36617SOL    HW219782   2.103   1.920   0.330  0.1529  0.4129  0.0916
36618SOL     OW19783   4.843   0.755   5.327 -0.1586 -0.3443 -0.1150
36618SOL    HW119784   4.749   0.753   5.345  0.2387  0.3932  2.4627
36618SOL    HW219785   4.866   0.848   5.333  1.3064 -0.8002  3.1727
36619SOL     OW19786   3.007   1.863   1.581  0.4125 -0.2852  0.8312
36619SOL    HW119787   3.010   1.943   1.635 -1.8308  2.0334 -2.1618
36619SOL    HW219788   3.085   1.870   1.525  1.4117 -1.4339  2.0114
36620SOL     OW19789   3.411  10.616  10.543  0.2665  0.0824  0.1167
36620SOL    HW119790   3.479  10.623  10.610 -0.2759  0.8409  0.6093
36620SOL    HW219791   3.400  10.705  10.510 -2.2226  0.5152  1.8353
36621SOL     OW19792   0.093   9.883   4.822 -0.1910  0.1726 -0.2055
36621SOL    HW119793   0.133   9.863   4.737 -1.2575  3.6979 -1.7042
36621SOL    HW219794  -0.001   9.876   4.807 -0.3839 -0.5162  1.1374
36622SOL     OW19795  12.687  10.029   8.086 -0.2275 -0.4127  0.0547
36622SOL    HW119796  12.778  10.015   8.060 -0.5302 -0.1055 -1.2461
36622SOL    HW219797  12.672  10.122   8.072 -1.3146 -0.7974 -1.8264
36623SOL     OW19798   5.350   2.432   2.138  0.4553  0.4593  0.5940
36623SOL    HW119799   5.419   2.417   2.203 -1.1730  0.2475  2.3995
36623SOL    HW219800   5.392   2.483   2.069  2.0403  1.7435  2.3783
36624SOL     OW19801   5.825   9.701   7.482  0.3511  0.2973 -0.0680
36624SOL    HW119802   5.857   9.791   7.479  0.1804  0.3850  0.5324
36624SOL    HW219803   5.763   9.700   7.555 -1.4378  0.2714 -1.4903
36625SOL     OW19804   3.227  11.194   7.548  0.0429 -0.2884  0.3466
36625SOL    HW119805   3.199  11.261   7.611 -0.8334  1.3837 -1.6842
36625SOL    HW219806   3.318  11.215   7.531 -0.1947  0.3369 -0.1907
36626SOL     OW19807   3.848   0.969  11.870 -0.1161  0.0786 -0.3374
36626SOL    HW119808   3.791   0.953  11.794 -0.7448 -0.6898  0.2840
36626SOL    HW219809   3.903   0.891  11.876  0.7543  0.6540 -0.7022
36627SOL     OW19810   8.263   2.018   1.583 -0.1052 -0.3635  0.1323
36627SOL    HW119811   8.318   1.975   1.517  1.0610 -0.5160  1.1590
36627SOL    HW219812   8.305   2.103   1.596  0.3548 -0.7782  1.4825
36628SOL     OW19813  10.678   6.683   8.351 -0.5358 -0.2958  0.1211
36628SOL    HW119814  10.708   6.773   8.368  0.4698 -0.1436 -2.0599
36628SOL    HW219815  10.583   6.691   8.341 -0.4358  0.5686 -0.2172
36629SOL     OW19816   8.400  11.969   5.527  0.1600 -0.0650 -0.6109
36629SOL    HW119817   8.478  12.000   5.573 -0.0256  0.1573 -0.4423
36629SOL    HW219818   8.429  11.890   5.481 -0.0226 -1.2117  1.1668
36630SOL     OW19819   0.112   5.667   4.148  0.1096 -0.0846 -0.0925
36630SOL    HW119820   0.046   5.656   4.079 -0.6875  0.1332  0.6200
36630SOL    HW219821   0.073   5.628   4.225 -0.4499  2.5513  1.0818
36631SOL     OW19822  11.611   3.142   5.026 -0.1751 -0.4167  0.4025
36631SOL    HW119823  11.584   3.221   4.981 -1.2554  0.0253  1.7484
36631SOL    HW219824  11.663   3.173   5.101 -0.7817 -0.9499  1.0624
36632SOL     OW19825   3.075   7.339   5.631  0.3481  0.3783 -0.0293
36632SOL    HW119826   3.133   7.265   5.613 -0.5980 -0.1259 -1.1729
36632SOL    HW219827   3.124   7.395   5.690  1.8736 -0.1852 -0.7173
36633SOL     OW19828   9.367   0.603   2.540  0.1400  0.2859 -0.1206
36633SOL    HW119829   9.296   0.638   2.487  0.2664  0.6903 -0.0271
36633SOL    HW219830   9.323   0.561   2.614 -0.0031  0.5279 -0.0671
36634SOL     OW19831   6.702  12.739  10.797  0.2789  0.2203  0.1602
36634SOL    HW119832   6.787  12.709  10.830 -0.2558 -2.6501 -0.8516
36634SOL    HW219833   6.711  12.738  10.702 -0.2218  2.2222  0.0311
36635SOL     OW19834   9.932  12.462  12.721  0.6760  0.2830  0.0808
36635SOL    HW119835   9.914  12.554  12.701 -1.7956 -0.2516 -0.4900
36635SOL    HW219836   9.928  12.457  12.817 -0.5694  0.5337  0.0490
36636SOL     OW19837   4.246   6.004   2.307  0.1121 -0.3822 -0.6765
36636SOL    HW119838   4.325   5.951   2.306 -0.5413 -1.3752 -1.8704
36636SOL    HW219839   4.265   6.077   2.249  1.2542  1.1637  1.4726
36637SOL     OW19840   2.676   6.126   1.942 -0.1606  0.3540 -0.5145
36637SOL    HW119841   2.649   6.094   2.028  0.4561  1.6092  0.1808
36637SOL    HW219842   2.622   6.078   1.879 -0.0578 -1.1604  0.5278
36638SOL     OW19843   3.718  12.618   3.060  0.0927 -0.4024  0.7666
36638SOL    HW119844   3.664  12.682   3.106 -0.5741  1.4294 -2.2941
36638SOL    HW219845   3.660  12.581   2.994  0.6516 -3.8539  2.0192
36639SOL     OW19846   0.451  12.838   7.303 -0.0898  0.5217  0.0403
36639SOL    HW119847   0.380  12.856   7.364  0.0019 -3.3222  1.5334
36639SOL    HW219848   0.408  12.810   7.223 -0.2917 -0.6344  0.5399
36640SOL     OW19849   1.379   6.893   0.336 -0.6322 -0.3079 -0.5656
36640SOL    HW119850   1.431   6.951   0.279  0.8065 -3.0533 -2.2858
36640SOL    HW219851   1.428   6.891   0.418 -1.3831  1.7580  0.0125
36641SOL     OW19852   5.706   6.361  11.189  0.3660  0.3736 -1.3300
36641SOL    HW119853   5.756   6.441  11.206  0.6726  0.7622 -3.6904
36641SOL    HW219854   5.658   6.344  11.270  2.3368  1.4368  0.1307
36642SOL     OW19855   6.594   8.334   4.176  0.7866 -0.8837  0.2062
36642SOL    HW119856   6.632   8.303   4.258 -0.4141 -2.4913  0.2137
36642SOL    HW219857   6.669   8.362   4.123  1.8430 -2.4848  0.7836
36643SOL     OW19858  13.241  11.936  10.538 -0.0437 -0.4398 -0.6185
36643SOL    HW119859  13.220  11.951  10.446 -0.1575  1.6624 -0.2930
36643SOL    HW219860  13.263  11.843  10.543  1.9372 -0.2003 -3.1622
36644SOL     OW19861   6.835   9.032   4.280  0.0739 -1.0769  0.1227
36644SOL    HW119862   6.919   9.017   4.324  0.0369 -1.6738  0.0063
36644SOL    HW219863   6.854   9.021   4.187 -0.0632 -0.8837  0.0714
36645SOL     OW19864   6.421  11.257   3.185  0.0611  0.2072 -0.1643
36645SOL    HW119865   6.457  11.266   3.273 -0.1547 -1.3597  0.1060
36645SOL    HW219866   6.484  11.201   3.139 -0.0877  0.6036 -0.8656
36646SOL     OW19867   4.789   3.374  11.782 -0.0718  0.3242  0.3258
36646SOL    HW119868   4.718   3.313  11.801 -0.6787  0.5459 -1.1109
36646SOL    HW219869   4.863   3.341  11.833 -1.0861 -0.1187  1.5734
36647SOL     OW19870  11.225   3.314   9.003 -0.0434 -0.0411 -0.2854
36647SOL    HW119871  11.291   3.254   8.969 -1.3585 -0.9100 -1.4372
36647SOL    HW219872  11.275   3.383   9.045  1.5889 -0.7208 -1.0063
36648SOL     OW19873   4.862  11.947  11.527 -0.0945  0.1015 -0.6130
36648SOL    HW119874   4.781  11.896  11.517  0.0296 -0.1556 -0.3308
36648SOL    HW219875   4.929  11.881  11.546 -0.5496  0.5693  3.5466
36649SOL     OW19876   9.710   0.745   9.208  0.0024 -0.0217 -0.0909
36649SOL    HW119877   9.783   0.719   9.264  0.8913  3.1128  0.4341
36649SOL    HW219878   9.632   0.722   9.258  0.6712 -1.1291  0.4887
36650SOL     OW19879   8.618   9.982   1.668  0.1613 -0.2493 -0.3070
36650SOL    HW119880   8.604   9.927   1.746 -2.4643  0.4202 -0.2159
36650SOL    HW219881   8.692   9.940   1.623  0.4263 -1.8724  1.4534
36651SOL     OW19882   5.802   8.583   7.166 -0.1696  0.1842 -0.6165
36651SOL    HW119883   5.810   8.677   7.179  1.1016  0.2549 -1.6611
36651SOL    HW219884   5.875   8.546   7.216 -0.0434 -0.1501 -1.0412
36652SOL     OW19885   9.797   6.672   9.561 -1.1161 -0.1757 -0.0673
36652SOL    HW119886   9.875   6.695   9.511 -0.0782 -2.1155  0.5313
36652SOL    HW219887   9.739   6.747   9.552  0.0155  0.5346 -2.1507
36653SOL     OW19888  12.168   2.917   7.338 -0.2571  0.2010  0.3011
36653SOL    HW119889  12.188   2.825   7.355  0.9044 -0.0872 -2.2851
36653SOL    HW219890  12.251   2.956   7.313 -1.1349  1.4123 -0.8440
36654SOL     OW19891   0.983   3.021  13.225 -0.3718 -0.3764  0.4533
36654SOL    HW119892   1.000   3.067  13.307  0.6307 -0.7278  0.4628
36654SOL    HW219893   0.986   3.089  13.157  2.7778 -0.5490  0.2583
36655SOL     OW19894   2.217   6.859   8.412  0.2988 -0.7102  0.4666
36655SOL    HW119895   2.222   6.954   8.423  1.8031 -0.7870  0.6949
36655SOL    HW219896   2.132   6.844   8.370  0.0897  0.7341  0.3113
36656SOL     OW19897   9.015   1.421   3.498  0.4558 -0.1178 -0.1113
36656SOL    HW119898   9.075   1.403   3.425 -1.0150  0.6135 -1.5800
36656SOL    HW219899   8.930   1.430   3.456  0.0863  4.3741  1.0623
36657SOL     OW19900   6.962  10.195   8.263  0.5866  0.1236  0.1447
36657SOL    HW119901   6.992  10.154   8.345  0.2403 -1.5391 -0.5146
36657SOL    HW219902   6.866  10.193   8.270  0.5465  2.1058  0.6746
36658SOL     OW19903   5.040   3.940   2.849 -0.3053 -0.7136 -0.2051
36658SOL    HW119904   5.089   4.004   2.798  0.2659 -0.3127  0.7997
36658SOL    HW219905   4.950   3.950   2.820 -0.4880  1.5789  0.8739
36659SOL     OW19906  13.008   3.005   1.384 -0.4918 -0.3295  0.1551
36659SOL    HW119907  13.061   3.045   1.315  0.4234 -0.6956  0.6427
36659SOL    HW219908  13.048   3.035   1.466 -0.9521 -0.7300  0.5335
36660SOL     OW19909   2.101  12.303   1.644 -0.4916 -0.0116  0.5478
36660SOL    HW119910   2.181  12.252   1.657 -1.0502 -1.0188  0.1275
36660SOL    HW219911   2.035  12.239   1.617 -0.9367  1.0768 -1.1071
36661SOL     OW19912   3.310   7.065   6.332  0.4061 -0.0026 -0.6982
36661SOL    HW119913   3.271   7.125   6.268  0.3760  0.5583 -0.1603
36661SOL    HW219914   3.294   7.106   6.417  0.1235 -0.9257 -0.2954
36662SOL     OW19915  10.609   4.668   8.170  0.3374  0.1091  0.4109
36662SOL    HW119916  10.597   4.582   8.212  0.4909  0.0494  0.3314
36662SOL    HW219917  10.668   4.715   8.230 -0.1277  0.3324  0.7000
36663SOL     OW19918  11.843   9.285   1.874  0.1154  0.4226 -0.8304
36663SOL    HW119919  11.773   9.344   1.903 -0.9563 -0.7130 -1.0518
36663SOL    HW219920  11.848   9.219   1.942  1.3284  0.7576 -0.5772
36664SOL     OW19921   8.470   9.596   7.780  0.0951  0.6474 -0.5024
36664SOL    HW119922   8.456   9.504   7.759  1.5333  0.0181  1.0345
36664SOL    HW219923   8.563   9.612   7.762  1.1176  0.4166  3.4758
36665SOL     OW19924   2.162   6.239   2.377  0.3745  0.2735  0.1821
36665SOL    HW119925   2.090   6.278   2.426 -0.0483 -0.4424  0.1454
36665SOL    HW219926   2.120   6.174   2.321  0.7482  1.5248 -1.6456
36666SOL     OW19927   1.247   7.296  12.684  0.0656 -0.1235 -0.7555
36666SOL    HW119928   1.290   7.223  12.639 -0.6567  0.6329 -2.7576
36666SOL    HW219929   1.314   7.365  12.686  0.4052 -0.4635  0.2144
36667SOL     OW19930  12.273   3.491   5.460 -0.7505  0.1545  0.3407
36667SOL    HW119931  12.206   3.559   5.452  0.2529  1.1531  0.0930
36667SOL    HW219932  12.288   3.482   5.554 -0.6691  0.5052  0.3621
36668SOL     OW19933   4.171   6.403  10.226 -0.4038  0.0514 -0.4096
36668SOL    HW119934   4.132   6.437  10.145 -2.0255 -1.7065 -0.4261
36668SOL    HW219935   4.158   6.473  10.290 -2.3848  0.0858 -0.7781
36669SOL     OW19936   7.145  10.588   7.749 -0.4544 -0.7738 -0.6366
36669SOL    HW119937   7.062  10.561   7.790 -0.6903 -0.1800 -0.7135
36669SOL    HW219938   7.119  10.641   7.674 -0.0007 -0.2165 -0.4061
36670SOL     OW19939   0.365  11.804   4.417 -0.7849 -0.3683 -0.3504
36670SOL    HW119940   0.442  11.849   4.451 -0.7658 -1.0302  0.5077
36670SOL    HW219941   0.355  11.837   4.328  0.8398 -0.7118 -0.6830
36671SOL     OW19942   2.301   0.260   9.236 -0.0863  0.0394 -0.0487
36671SOL    HW119943   2.291   0.195   9.305  2.5486 -2.3521 -1.6690
36671SOL    HW219944   2.305   0.344   9.282 -1.2243 -1.1401  2.3659
36672SOL     OW19945   4.432   5.579   6.862  0.3959  0.0252 -1.1750
36672SOL    HW119946   4.469   5.592   6.776  0.6654  2.3950 -0.7534
36672SOL    HW219947   4.486   5.632   6.921  1.7223 -3.3065  0.9364
36673SOL     OW19948   8.113   6.990  10.225 -0.5386  0.2180  0.4967
36673SOL    HW119949   8.031   6.958  10.189 -0.2459 -0.6668  0.5762
36673SOL    HW219950   8.115   6.956  10.315 -0.2143  0.4632  0.5877
36674SOL     OW19951   4.217   9.493   0.178  0.0251  0.0734 -0.1592
36674SOL    HW119952   4.218   9.405   0.143 -1.4692 -0.6548  1.4353
36674SOL    HW219953   4.131   9.528   0.152  0.0268  0.5176  0.4052
36675SOL     OW19954   4.346   3.199   0.601 -0.2302  0.2735  0.4633
36675SOL    HW119955   4.414   3.200   0.533 -0.3936  1.4943  0.2945
36675SOL    HW219956   4.267   3.170   0.555 -0.2550  0.7395  0.1965
36676SOL     OW19957   9.129  10.730   6.888 -0.5441  0.3751 -0.7076
36676SOL    HW119958   9.224  10.744   6.894 -0.7292  1.1251  1.3977
36676SOL    HW219959   9.105  10.761   6.801  1.4732 -2.2257 -2.3521
36677SOL     OW19960   5.337  10.163   8.304  0.2605  0.1252 -0.1247
36677SOL    HW119961   5.314  10.193   8.392  0.0714 -0.2622 -0.0412
36677SOL    HW219962   5.402  10.226   8.274  0.0158  0.5027  0.1288
36678SOL     OW19963   8.866  13.162   0.816 -0.2951  0.3533  0.0445
36678SOL    HW119964   8.929  13.096   0.847 -0.8519 -0.5364 -0.6710
36678SOL    HW219965   8.839  13.130   0.731 -1.7287  0.7240  0.3421
36679SOL     OW19966  10.854   4.460   0.840  0.3382  0.0460  0.0563
36679SOL    HW119967  10.928   4.427   0.788  1.7242  0.5713  1.6159
36679SOL    HW219968  10.895   4.508   0.912 -1.5650  1.1963  0.4249
36680SOL     OW19969   2.673  10.080   4.418  0.2691  0.2383  0.0496
36680SOL    HW119970   2.755  10.071   4.370  0.6717 -2.4423  1.0824
36680SOL    HW219971   2.606  10.083   4.350  1.0388 -0.3078 -0.7663
36681SOL     OW19972   9.938  11.974  10.845  0.0919 -0.6203  0.7848
36681SOL    HW119973   9.895  11.915  10.908 -0.1990 -0.1481  1.0385
36681SOL    HW219974   9.886  12.054  10.849 -0.5517 -0.9244 -0.8163
36682SOL     OW19975   3.490  11.142   1.779  0.2016 -0.6098  0.0889
36682SOL    HW119976   3.468  11.162   1.870 -0.7919 -0.6599 -0.1253
36682SOL    HW219977   3.531  11.222   1.746  0.0037 -0.3783  0.4012
36683SOL     OW19978   8.866   2.100   4.236 -0.0346 -0.5322 -0.1465
36683SOL    HW119979   8.951   2.056   4.242  0.6771  0.7160 -0.7364
36683SOL    HW219980   8.860   2.129   4.145 -1.1574 -0.7059 -0.1445
36684SOL     OW19981   8.269   8.718   0.882 -0.8539 -0.0732 -0.0088
36684SOL    HW119982   8.305   8.787   0.938 -0.2208 -1.0073  0.7510
36684SOL    HW219983   8.188   8.756   0.847  0.0066  1.4634 -0.4609
36685SOL     OW19984   0.673  11.573   1.060  0.1446  0.2627  0.1403
36685SOL    HW119985   0.740  11.508   1.038 -0.4254 -0.4437  0.4631
36685SOL    HW219986   0.675  11.579   1.156  0.3600  0.9159  0.1060
36686SOL     OW19987   5.806  11.256   1.196  0.2891 -0.1436  0.0799
36686SOL    HW119988   5.796  11.342   1.154  1.2938 -0.0204  0.0519
36686SOL    HW219989   5.871  11.211   1.142  0.2213 -0.6919  0.4479
36687SOL     OW19990   0.551   7.663  12.456  0.3297 -0.5615 -0.0060
36687SOL    HW119991   0.565   7.644  12.549  1.0836  0.1874  0.0473
36687SOL    HW219992   0.600   7.595  12.410  0.8341 -0.3142  0.1569
36688SOL     OW19993   5.930   7.022   9.638  0.5484 -0.3190  1.0309
36688SOL    HW119994   5.912   7.047   9.728 -0.2182  0.0484  0.7860
36688SOL    HW219995   5.945   6.927   9.642  0.1892 -0.3597  1.4950
36689SOL     OW19996   8.427   0.318   4.817  0.0240  0.7636  0.2588
36689SOL    HW119997   8.337   0.315   4.784 -0.4259  1.3939  1.3977
36689SOL    HW219998   8.447   0.227   4.841 -0.5530  0.7435  0.6623
36690SOL     OW19999  12.458   9.361   1.567 -0.3146 -0.6983  0.0684
36690SOL    HW120000  12.401   9.316   1.630 -1.0659 -0.8141 -0.6732
36690SOL    HW220001  12.465   9.450   1.600 -1.2911 -0.5652 -0.0417
36691SOL     OW20002   4.263   0.805   8.649 -0.0063  0.0406  0.4368
36691SOL    HW120003   4.342   0.757   8.674 -0.1947  0.0684  1.1204
36691SOL    HW220004   4.244   0.860   8.725  0.3800  1.4399 -0.4566
36692SOL     OW20005   0.750   8.028  11.471 -0.3645 -0.2649 -0.5009
36692SOL    HW120006   0.738   8.062  11.382 -0.7845  0.1762 -0.2724
36692SOL    HW220007   0.838   8.058  11.496 -0.2098 -0.4626 -0.7958
36693SOL     OW20008  11.911   5.401   1.940 -0.7900  0.2437 -0.0900
36693SOL    HW120009  11.923   5.367   2.029  3.9393 -2.3949 -1.3628
36693SOL    HW220010  11.876   5.327   1.891  2.7289 -0.7611 -1.4441
36694SOL     OW20011   4.098   2.080   8.006 -0.4686 -0.3372 -0.5342
36694SOL    HW120012   4.033   2.128   8.057  1.1184  2.1216 -0.6549
36694SOL    HW220013   4.050   2.047   7.931 -1.9176 -0.0598  0.2310
36695SOL     OW20014   1.746   3.351   9.001 -0.0399 -0.2529  0.1296
36695SOL    HW120015   1.681   3.383   9.064 -0.2593  2.0364 -1.1580
36695SOL    HW220016   1.761   3.425   8.943  2.3092 -1.3592 -0.7842
36696SOL     OW20017  12.983   5.435   2.283 -0.1934  0.1664 -0.3911
36696SOL    HW120018  13.028   5.407   2.363 -0.5325  0.1045 -0.2216
36696SOL    HW220019  12.931   5.511   2.311 -3.1893 -1.9780  0.3271
36697SOL     OW20020   2.840   0.514   2.248 -0.5797 -0.2819  0.4329
36697SOL    HW120021   2.844   0.554   2.335 -1.9723  1.0449 -0.0638
36697SOL    HW220022   2.886   0.431   2.257  2.9173  1.5638  1.4167
36698SOL     OW20023   0.033   0.563   9.855  0.0672  0.2852 -0.6632
36698SOL    HW120024  -0.018   0.506   9.913 -0.0743  1.5377  0.4941
36698SOL    HW220025  -0.034   0.612   9.806  0.1314  1.0399 -0.0307
36699SOL     OW20026   1.705   3.146   1.523  0.9550  0.1793 -0.1038
36699SOL    HW120027   1.717   3.172   1.432  0.6255  0.7636  0.0128
36699SOL    HW220028   1.693   3.051   1.520 -0.2567  0.3352 -0.7918
36700SOL     OW20029   4.754   9.154   9.352  0.4237 -0.2186  0.5670
36700SOL    HW120030   4.774   9.062   9.332 -0.2396 -0.4752  1.0302
36700SOL    HW220031   4.699   9.182   9.278  0.4618 -0.2569  0.5234
36701SOL     OW20032  12.994  12.098   1.904 -0.1545  0.0066 -0.9436
36701SOL    HW120033  12.988  12.188   1.935 -2.3556 -0.1397 -0.7780
36701SOL    HW220034  13.077  12.065   1.939 -0.9280  0.8933  1.9530
36702SOL     OW20035   2.023   3.547   1.041 -0.3228  0.5092 -0.2629
36702SOL    HW120036   2.101   3.498   1.014 -0.0421  1.8195 -1.9720
36702SOL    HW220037   2.008   3.518   1.131  2.1409  0.2030  0.1374
36703SOL     OW20038  13.132   6.334   0.286 -0.3323 -0.3486  0.1403
36703SOL    HW120039  13.097   6.417   0.254  0.8194  0.7552  1.6097
36703SOL    HW220040  13.223   6.353   0.309  0.1791 -2.2087 -0.1380
36704SOL     OW20041   5.188   9.568  12.589 -0.2237 -0.1449  0.5092
36704SOL    HW120042   5.118   9.622  12.627 -0.3876  0.5388 -0.6951
36704SOL    HW220043   5.151   9.480  12.585 -0.3283 -0.1636  1.5701
36705SOL     OW20044   2.343   3.302   3.829 -0.4053  0.5994 -0.2803
36705SOL    HW120045   2.250   3.301   3.852 -0.4499  1.4588 -0.3811
36705SOL    HW220046   2.381   3.232   3.880 -0.9630  0.8065  0.4385
36706SOL     OW20047  12.412  12.539  12.058  0.3265 -0.4631  0.0224
36706SOL    HW120048  12.329  12.539  12.106  0.2137  0.7884 -0.1409
36706SOL    HW220049  12.388  12.512  11.970 -0.0231  0.4715 -0.1804
36707SOL     OW20050   6.581  10.300  12.326 -0.0882  0.7436  0.3593
36707SOL    HW120051   6.629  10.341  12.398 -1.6258  0.7233  1.4474
36707SOL    HW220052   6.587  10.206  12.344  1.5271  0.5426 -0.9029
36708SOL     OW20053   3.142   3.155  12.721 -0.3860  0.2351 -0.1999
36708SOL    HW120054   3.228   3.156  12.763 -0.0619  0.2139 -0.8481
36708SOL    HW220055   3.083   3.117  12.786  0.0514  0.4554  0.3288
36709SOL     OW20056   2.617   2.911   7.981  0.5280 -0.0117  0.5316
36709SOL    HW120057   2.596   2.975   7.912  1.4432  1.4242  1.5265
36709SOL    HW220058   2.566   2.834   7.958  0.9517  0.3388 -1.8581
36710SOL     OW20059  12.484  11.255  10.795 -0.4014 -0.5448 -0.2808
36710SOL    HW120060  12.413  11.193  10.778 -0.2631 -1.0332  0.8794
36710SOL    HW220061  12.546  11.240  10.723 -0.6347 -1.3690 -0.3211
36711SOL     OW20062   7.600   2.571   5.056  0.0690 -0.4590 -0.3249
36711SOL    HW120063   7.689   2.549   5.084 -0.5859 -0.8054  1.6146
36711SOL    HW220064   7.600   2.555   4.962  1.4074 -2.6765 -0.0117
36712SOL     OW20065   4.647  12.925  11.926  0.4411  0.1866  0.0960
36712SOL    HW120066   4.556  12.903  11.944 -0.6769  0.7615 -3.9048
36712SOL    HW220067   4.648  13.020  11.915  1.4788  0.1780 -0.0766
36713SOL     OW20068   6.515   2.021   8.050  0.2814 -0.0967 -0.0179
36713SOL    HW120069   6.579   1.967   8.004  0.3146 -1.4472  1.5080
36713SOL    HW220070   6.567   2.091   8.090  0.6290 -0.4759  0.1957
36714SOL     OW20071   2.814  11.195   6.652 -0.5286  0.0550  0.2750
36714SOL    HW120072   2.821  11.278   6.605 -2.4385  0.6845  1.0276
36714SOL    HW220073   2.803  11.129   6.584 -0.8201  0.6482 -0.2582
36715SOL     OW20074   4.935  11.767   6.577 -0.0920  0.1570 -1.4225
36715SOL    HW120075   5.003  11.802   6.634  0.4565 -0.8051 -1.4636
36715SOL    HW220076   4.864  11.744   6.636  1.4027 -3.1565 -0.6952
36716SOL     OW20077  11.516  12.259   9.550  0.1415  0.2213 -0.0231
36716SOL    HW120078  11.438  12.266   9.495 -0.2817  0.2931  0.5808
36716SOL    HW220079  11.567  12.188   9.512 -0.2391  0.1470 -0.3943
36717SOL     OW20080   6.577   7.693  12.450 -0.7827  0.2193  0.2075
36717SOL    HW120081   6.547   7.610  12.414 -0.9121 -0.2180  1.2903
36717SOL    HW220082   6.561   7.686  12.544  1.1859  0.6248  0.6176
36718SOL     OW20083   6.778   2.327   4.160 -0.5867  0.1482  0.0382
36718SOL    HW120084   6.849   2.315   4.223 -0.9922 -0.8210  0.3418
36718SOL    HW220085   6.783   2.418   4.134  2.4369 -0.4692 -1.9361
36719SOL     OW20086   2.302   3.222   7.821 -0.2765  0.5512  0.5589
36719SOL    HW120087   2.376   3.169   7.851 -0.1640  0.1069 -0.4641
36719SOL    HW220088   2.226   3.165   7.836 -0.3041  0.6246  0.6984
36720SOL     OW20089   6.258   1.468   0.546  0.4681 -0.0153 -0.0865
36720SOL    HW120090   6.228   1.499   0.460  1.6885 -0.0765 -0.5538
36720SOL    HW220091   6.180   1.432   0.587  0.1532 -1.4998 -1.8427
36721SOL     OW20092  13.218   3.661   2.135  0.3553  0.7294 -0.2037
36721SOL    HW120093  13.295   3.603   2.138  1.2648  1.9032  2.7262
36721SOL    HW220094  13.254   3.749   2.149 -1.4084  1.4888 -0.1921
36722SOL     OW20095   5.543   0.429   2.494 -0.1698 -0.2435 -0.1358
36722SOL    HW120096   5.610   0.391   2.550  0.9123  1.4009 -0.2491
36722SOL    HW220097   5.555   0.385   2.409 -0.3638 -1.1471  0.2906
36723SOL     OW20098  12.092   0.177   2.228 -0.6721  0.4846  0.5517
36723SOL    HW120099  12.173   0.164   2.178 -0.2098 -0.0327  1.4111
36723SOL    HW220100  12.050   0.252   2.186 -0.0822  0.3442 -0.3295
36724SOL     OW20101   7.896  11.715   5.004  0.2632  0.5239  0.0711
36724SOL    HW120102   7.979  11.748   4.969 -0.3900 -0.0630 -2.2061
36724SOL    HW220103   7.829  11.756   4.950 -0.9805  1.1003  1.9707
36725SOL     OW20104  10.040   1.249   0.080  0.4164  0.6173 -0.8676
36725SOL    HW120105  10.111   1.312   0.091  0.1709  0.9236 -1.0260
36725SOL    HW220106  10.023   1.216   0.168 -0.2452  1.6357 -0.6085
36726SOL     OW20107   1.407   7.448   0.726 -0.1302  0.0531  0.4320
36726SOL    HW120108   1.321   7.430   0.687  0.4346 -0.7363 -0.4814
36726SOL    HW220109   1.449   7.507   0.665  0.9631 -1.5967 -0.4893
36727SOL     OW20110   1.770   2.335  12.250  0.0696  0.5158  0.1196
36727SOL    HW120111   1.687   2.379  12.271 -0.4361  0.5568 -1.7670
36727SOL    HW220112   1.749   2.242  12.248 -0.2701  0.6043 -1.6115
36728SOL     OW20113   5.484  12.414   8.851  0.6247  0.4349  0.5734
36728SOL    HW120114   5.507  12.459   8.932 -0.6600  0.7658  0.7665
36728SOL    HW220115   5.412  12.356   8.874  0.0659  0.7202 -0.3829
36729SOL     OW20116   1.578  11.244   1.426 -0.2281 -0.2713 -0.9653
36729SOL    HW120117   1.584  11.163   1.476 -0.4905 -0.7877 -1.7443
36729SOL    HW220118   1.491  11.277   1.445  0.2576  0.3893  0.1741
36730SOL     OW20119   4.442  13.014   7.790  0.5697 -0.1598  0.0812
36730SOL    HW120120   4.489  12.959   7.854  1.9448  1.0603  0.1606
36730SOL    HW220121   4.379  13.062   7.843  1.3370  0.4452  0.4778
36731SOL     OW20122  11.071   7.760   3.500 -0.1801  0.6005 -0.5064
36731SOL    HW120123  10.988   7.711   3.501  0.6214 -0.8200  0.2122
36731SOL    HW220124  11.069   7.810   3.582  0.2654 -0.5493  0.2398
36732SOL     OW20125  10.395   6.309  13.086 -0.2593 -0.5978 -0.8097
36732SOL    HW120126  10.445   6.391  13.084 -1.0412 -0.1158 -0.7409
36732SOL    HW220127  10.426   6.265  13.165  0.6735 -0.7016 -1.2186
36733SOL     OW20128   1.945   8.102   9.571 -0.1167 -0.4559 -0.1764
36733SOL    HW120129   2.008   8.162   9.530  1.4413 -1.4000  0.7031
36733SOL    HW220130   1.861   8.126   9.534  0.6497  1.3893 -0.8333
36734SOL     OW20131   3.940   2.796   7.222 -0.1210 -0.2333 -0.4017
36734SOL    HW120132   4.012   2.859   7.223  0.9297 -1.3299 -2.0099
36734SOL    HW220133   3.976   2.718   7.265 -1.2084 -0.0023  1.0193
36735SOL     OW20134   8.281  10.500   8.315  0.5463  0.2477  0.9555
36735SOL    HW120135   8.248  10.561   8.250  1.6639 -1.0324 -0.9290
36735SOL    HW220136   8.216  10.501   8.385 -0.3415  2.2276  0.1603
36736SOL     OW20137   7.330   3.239  11.884 -1.1679 -0.2643  0.2462
36736SOL    HW120138   7.363   3.190  11.808  0.0482  1.6207 -0.5054
36736SOL    HW220139   7.408   3.275  11.926 -2.0249  1.7295  0.2411
36737SOL     OW20140   9.953  13.225   8.637  0.2084 -0.3448  0.3630
36737SOL    HW120141   9.870  13.264   8.666  0.0288  0.9501 -1.7317
36737SOL    HW220142   9.986  13.286   8.571  1.4493 -2.2548 -0.8529
36738SOL     OW20143   6.391   1.629  12.093 -0.8097 -0.5781  1.2992
36738SOL    HW120144   6.351   1.582  12.167 -0.8071 -0.2457  1.5136
36738SOL    HW220145   6.409   1.560  12.028 -1.5392 -0.7651  1.2841
36739SOL     OW20146   3.080  12.834   0.750  0.0079  0.1125 -0.3169
36739SOL    HW120147   3.100  12.800   0.838 -2.8517  0.1887  0.4713
36739SOL    HW220148   3.054  12.925   0.765  2.5170  1.1872 -1.7519
36740SOL     OW20149   7.264  12.817   2.926  0.3230  0.2150  0.4829
36740SOL    HW120150   7.172  12.844   2.928 -0.3130 -1.7405  0.0146
36740SOL    HW220151   7.309  12.890   2.885 -1.0075  1.2572  0.7848
36741SOL     OW20152   8.333   7.147  11.596 -0.1649 -0.4912  0.2412
36741SOL    HW120153   8.315   7.117  11.685 -1.0392 -0.5295  0.0639
36741SOL    HW220154   8.248   7.143  11.552 -0.3756  2.2443  0.1966
36742SOL     OW20155  13.194   8.359   8.582  0.0571  0.2270  0.2244
36742SOL    HW120156  13.217   8.287   8.642  0.6432 -1.8081 -2.2674
36742SOL    HW220157  13.130   8.410   8.631 -0.0519 -1.7160  2.3263
36743SOL     OW20158   1.405   2.383  11.321 -0.4250 -0.1632  0.2015
36743SOL    HW120159   1.465   2.315  11.353  1.2236  1.2010  0.1276
36743SOL    HW220160   1.456   2.464  11.323 -2.0141  0.9263 -0.6718
36744SOL     OW20161   6.326   8.297   4.422  0.3929 -0.4301  0.2123
36744SOL    HW120162   6.399   8.296   4.483 -0.9789 -0.7108  1.9356
36744SOL    HW220163   6.258   8.243   4.464 -1.6430  1.6531 -0.1840
36745SOL     OW20164   2.004   8.417   2.422  0.1110 -0.1884  0.2433
36745SOL    HW120165   1.972   8.507   2.418  0.1554 -0.1244  1.1661
36745SOL    HW220166   2.066   8.417   2.494 -0.1064 -1.0318  0.4364
36746SOL     OW20167   4.313  13.222   6.101  0.4453 -0.3001  0.1174
36746SOL    HW120168   4.293  13.314   6.081 -1.8868 -0.6803  0.3769
36746SOL    HW220169   4.302  13.177   6.017  2.1478 -0.2829 -0.1313
36747SOL     OW20170  13.101   3.884   0.576  0.5209 -0.2231 -0.8309
36747SOL    HW120171  13.158   3.868   0.501  0.3521 -0.7817 -0.8417
36747SOL    HW220172  13.151   3.946   0.630  0.3687  0.6777 -1.6949
36748SOL     OW20173   3.037  10.782  10.211  0.6897 -0.4015  0.4522
36748SOL    HW120174   2.974  10.716  10.182 -0.1495  0.2805  0.7089
36748SOL    HW220175   3.121  10.736  10.208  0.2486 -1.1990 -0.2844
36749SOL     OW20176   8.083   0.923  12.239  0.2209  0.0149 -0.0073
36749SOL    HW120177   8.095   0.960  12.151  2.0962  1.2175  0.6986
36749SOL    HW220178   8.115   0.833  12.231  0.5712  0.1791 -0.5031
36750SOL     OW20179   5.804  10.059   3.479  0.7280 -0.0771  0.1881
36750SOL    HW120180   5.742  10.114   3.525  1.0954 -0.2662  0.9187
36750SOL    HW220181   5.838  10.114   3.409 -1.7252 -0.5727 -1.5259
36751SOL     OW20182   0.009   4.620   2.671  0.3586 -0.2998  0.2439
36751SOL    HW120183   0.025   4.708   2.639 -0.6454 -0.9334 -2.3314
36751SOL    HW220184   0.093   4.590   2.706  0.7311  1.5985  1.0559
36752SOL     OW20185   3.832  10.922   0.693 -0.1327  0.6477  0.3688
36752SOL    HW120186   3.859  10.995   0.749 -1.1102  2.7611 -1.6957
36752SOL    HW220187   3.905  10.909   0.633 -0.5591  1.0608 -0.2645
36753SOL     OW20188   9.545   2.872  12.109 -0.2742 -0.0582  0.4120
36753SOL    HW120189   9.570   2.952  12.063 -2.2052  0.8697  0.8560
36753SOL    HW220190   9.588   2.878  12.194  1.2741 -0.5576 -0.2982
36754SOL     OW20191  11.815   1.575  10.473  0.1340 -0.3303  0.1378
36754SOL    HW120192  11.727   1.589  10.438  0.5637 -0.9426 -1.2756
36754SOL    HW220193  11.801   1.533  10.558 -0.9503  1.0857  0.7169
36755SOL     OW20194   3.191   3.554   6.824 -0.0260 -0.1870 -0.1441
36755SOL    HW120195   3.214   3.632   6.774 -0.0063 -1.1420 -1.6856
36755SOL    HW220196   3.241   3.483   6.783 -0.1549 -1.0416  1.1248
36756SOL     OW20197   8.829   9.954   1.926  0.5089  0.3600  0.6007
36756SOL    HW120198   8.921   9.969   1.904  0.1731  0.6162 -0.7748
36756SOL    HW220199   8.782   9.969   1.843 -0.9137  1.5170  1.5598
36757SOL     OW20200   6.629   7.348   2.167  0.3163 -0.3057  0.3047
36757SOL    HW120201   6.590   7.274   2.213  0.0597 -0.3229  0.0616
36757SOL    HW220202   6.614   7.329   2.074  1.2410 -0.5143  0.1774
36758SOL     OW20203  12.133   7.510  13.150  0.0778 -0.1124 -0.0512
36758SOL    HW120204  12.134   7.429  13.199  1.0388  0.1672  0.4120
36758SOL    HW220205  12.220   7.516  13.110 -0.2473  0.2997 -0.7266
36759SOL     OW20206   0.750   8.317   9.542  0.2045 -0.1227 -0.8117
36759SOL    HW120207   0.753   8.399   9.591  1.3764 -0.9860  0.6403
36759SOL    HW220208   0.755   8.343   9.450 -1.1379  1.4952 -0.4774
36760SOL     OW20209   2.748  11.170   6.923  0.7183 -0.1062  0.6205
36760SOL    HW120210   2.657  11.189   6.944  0.1239 -2.7409  0.8554
36760SOL    HW220211   2.755  11.184   6.829  0.2522  0.7283  0.7041
36761SOL     OW20212   7.633  11.239  10.091  0.4876  0.3317 -0.1262
36761SOL    HW120213   7.619  11.167  10.153  2.0528 -0.0512 -0.1566
36761SOL    HW220214   7.549  11.250  10.048  0.2773 -1.7434 -0.3642
36762SOL     OW20215   5.903   2.049  12.254  0.6159 -0.3803  0.5763
36762SOL    HW120216   5.986   2.041  12.208  0.2954 -0.3009 -0.0354
36762SOL    HW220217   5.920   2.014  12.341  1.0066 -1.4015  0.1151
36763SOL     OW20218   1.940  10.513   0.603  0.4340  0.0725 -0.2483
36763SOL    HW120219   2.029  10.518   0.568  0.7829 -0.4606  0.5557
36763SOL    HW220220   1.885  10.501   0.525  1.0741  0.2233 -0.7326
36764SOL     OW20221  10.166   8.084   9.676 -0.1738 -0.3680 -0.1721
36764SOL    HW120222  10.163   8.004   9.624  0.4579 -0.0683 -0.6749
36764SOL    HW220223  10.206   8.058   9.759  0.0196 -0.5705 -0.3322
36765SOL     OW20224   3.386  11.533   5.480  0.0473  0.1420 -0.2408
36765SOL    HW120225   3.408  11.623   5.456 -0.9373  0.2833 -0.6671
36765SOL    HW220226   3.368  11.490   5.396 -0.1368 -0.2750  0.0081
36766SOL     OW20227  10.735   9.747  11.365  0.1756 -0.0764 -0.2180
36766SOL    HW120228  10.737   9.826  11.311 -0.3998  0.6496  0.7789
36766SOL    HW220229  10.813   9.753  11.420 -0.9283  0.9381  1.3485
36767SOL     OW20230   6.151   7.414  10.674  0.3747  0.1337  0.0221
36767SOL    HW120231   6.095   7.345  10.710 -0.4395  0.4955 -0.5033
36767SOL    HW220232   6.186   7.459  10.750  0.7743 -0.7394  0.3729
36768SOL     OW20233   8.160   0.234  10.195  0.4750  0.2102 -0.0804
36768SOL    HW120234   8.204   0.223  10.111  1.8482 -0.1187  0.6579
36768SOL    HW220235   8.118   0.150  10.212  1.0105 -0.0344  0.0227
36769SOL     OW20236   5.775  12.418   7.829 -0.1134 -0.4542  0.4116
36769SOL    HW120237   5.764  12.488   7.893  0.4205  0.8613 -0.8602
36769SOL    HW220238   5.685  12.391   7.808 -0.2840 -1.6485  2.4028
36770SOL     OW20239   0.362  11.219   8.686 -0.6945  0.0313 -0.1111
36770SOL    HW120240   0.395  11.226   8.597  0.0462  0.8202  0.2107
36770SOL    HW220241   0.389  11.131   8.715  0.5335  0.4034 -0.0944
36771SOL     OW20242   8.786   0.111   8.825 -0.2731 -0.1601  0.3779
36771SOL    HW120243   8.827   0.177   8.881 -1.0381  0.0294  0.7297
36771SOL    HW220244   8.859   0.057   8.794  0.5453  1.6493 -1.0255
36772SOL     OW20245   9.805   5.992   0.235  0.3928  0.2690 -0.1583
36772SOL    HW120246   9.835   6.050   0.165 -1.3196  0.1406 -1.0385
36772SOL    HW220247   9.717   6.022   0.255 -0.4467 -1.8160 -0.4427
36773SOL     OW20248  11.534   0.260   6.049 -0.2122  0.0476 -0.2637
36773SOL    HW120249  11.456   0.256   6.105 -0.5507  0.3513 -0.7054
36773SOL    HW220250  11.522   0.188   5.987  1.1228 -1.5647  1.2539
36774SOL     OW20251   9.113   7.216   4.870 -0.0316 -0.3427 -0.1643
36774SOL    HW120252   9.158   7.131   4.864  1.8234  0.5552  0.2301
36774SOL    HW220253   9.183   7.278   4.893 -1.7126  0.9470  1.7878
36775SOL     OW20254   6.435  12.776   1.565 -0.1377  0.1910 -0.1958
36775SOL    HW120255   6.453  12.793   1.657  0.0788  1.5792 -0.4651
36775SOL    HW220256   6.506  12.820   1.518 -1.1662  0.9925 -1.0641
36776SOL     OW20257   4.834   0.180  11.579 -0.1902 -0.1522 -0.3518
36776SOL    HW120258   4.823   0.275  11.566 -0.5059 -0.0899  0.3184
36776SOL    HW220259   4.805   0.141  11.496 -0.2531  0.3264 -0.5601
36777SOL     OW20260   1.973  10.494  10.145 -0.6206 -0.0496 -0.3738
36777SOL    HW120261   2.037  10.457  10.205  1.8864  1.4114 -1.9411
36777SOL    HW220262   1.897  10.514  10.199 -0.1733 -2.7287  1.3993
36778SOL     OW20263   7.617   8.663   5.620  0.0608 -0.1910  0.1146
36778SOL    HW120264   7.612   8.756   5.596  1.7231 -0.0607  0.2051
36778SOL    HW220265   7.653   8.620   5.543  1.1965 -0.4433  0.7646
36779SOL     OW20266   0.816   8.510   3.220 -0.4821 -0.3064  0.1139
36779SOL    HW120267   0.745   8.466   3.173  0.1655 -1.0243 -0.2118
36779SOL    HW220268   0.896   8.476   3.180  0.0508  1.8518 -0.7569
36780SOL     OW20269  11.733   2.767   3.766  0.2815  0.4369  0.2873
36780SOL    HW120270  11.718   2.807   3.851  1.7225  0.4120  0.5732
36780SOL    HW220271  11.795   2.696   3.783 -0.5048 -0.4806 -0.5659
36781SOL     OW20272  10.349   9.290   8.069  0.2129 -0.4365 -0.4905
36781SOL    HW120273  10.337   9.322   8.159 -1.1835 -1.0163 -0.4366
36781SOL    HW220274  10.383   9.365   8.021 -0.3356  0.3014  0.2329
36782SOL     OW20275   2.310   5.143   0.130 -0.3221  0.1935  0.2748
36782SOL    HW120276   2.276   5.163   0.043  0.1567  1.0784  0.2761
36782SOL    HW220277   2.395   5.103   0.113 -1.3390 -2.1401  0.2663
36783SOL     OW20278   6.553   3.009  10.525  0.3651  0.1255 -0.4766
36783SOL    HW120279   6.571   2.976  10.612 -3.7078 -0.8855  0.1953
36783SOL    HW220280   6.531   3.101  10.538 -1.7344 -0.3868 -0.1002
36784SOL     OW20281  11.076   8.587   6.550 -0.5289  0.0747  0.1412
36784SOL    HW120282  11.132   8.664   6.560 -1.1261  0.4942  0.2599
36784SOL    HW220283  11.024   8.584   6.630  0.0471 -0.9213  0.5059
36785SOL     OW20284   8.514   5.056  13.273  0.7183  0.3318 -0.4637
36785SOL    HW120285   8.560   4.978  13.305  1.1859  0.1254 -1.5991
36785SOL    HW220286   8.526   5.054  13.178 -0.9561  0.7177 -0.7258
36786SOL     OW20287  11.321   4.032   2.605 -0.6160 -0.2740 -0.0260
36786SOL    HW120288  11.289   4.042   2.515 -1.5445  2.3328  0.4851
36786SOL    HW220289  11.264   4.090   2.656  1.8434  0.7508  1.7197
36787SOL     OW20290   8.643   7.780   1.357 -0.4959 -0.1740  0.0723
36787SOL    HW120291   8.625   7.863   1.313 -0.0178  0.9449  1.8319
36787SOL    HW220292   8.640   7.803   1.450  1.0641 -1.8373  0.5701
36788SOL     OW20293   5.620   4.689   1.198  0.0851  0.2649  0.1599
36788SOL    HW120294   5.570   4.761   1.161 -0.0375  0.2797  0.3543
36788SOL    HW220295   5.700   4.685   1.145 -1.6393 -2.0855 -2.6230
36789SOL     OW20296   9.438   1.335   8.351  0.4556  0.3556  0.2061
36789SOL    HW120297   9.390   1.413   8.377 -0.8339 -0.8088  1.4607
36789SOL    HW220298   9.526   1.348   8.387  0.7740  1.9208 -1.0089
36790SOL     OW20299   3.619  11.753  10.898  0.2895  0.4625 -0.0104
36790SOL    HW120300   3.710  11.762  10.925 -0.0389  0.7560  1.0930
36790SOL    HW220301   3.579  11.698  10.966  0.1417 -1.6343 -1.6950
36791SOL     OW20302  11.023   7.551  11.567  0.5874  0.0831 -0.3267
36791SOL    HW120303  11.052   7.542  11.477 -1.7652 -0.9084 -1.0553
36791SOL    HW220304  11.014   7.645  11.581 -1.4380  0.1822 -1.9927
36792SOL     OW20305   7.963   0.421   1.604 -0.0577 -0.3729 -0.2296
36792SOL    HW120306   8.032   0.485   1.586 -0.2050  0.8022  2.8594
36792SOL    HW220307   8.006   0.351   1.652 -1.0170  0.7992  2.5499
36793SOL     OW20308   4.323  12.808   7.217  0.0174 -0.0006  0.5173
36793SOL    HW120309   4.278  12.746   7.274 -0.5225 -0.3130 -0.2232
36793SOL    HW220310   4.282  12.892   7.237 -1.1279 -0.3274 -0.3468
36794SOL     OW20311   5.142   6.682   2.703  0.0469 -0.3882  0.1918
36794SOL    HW120312   5.156   6.611   2.641 -0.1504 -1.1855  1.0380
36794SOL    HW220313   5.090   6.643   2.773  0.6134  0.3787  1.0694
36795SOL     OW20314   5.026   7.596   3.982 -0.0231  0.3780 -0.3149
36795SOL    HW120315   4.936   7.602   4.012  0.6269 -1.9988  2.5097
36795SOL    HW220316   5.065   7.680   4.005 -1.5174  1.6109 -1.9770
36796SOL     OW20317   9.791   2.055  12.226 -0.0533  0.2075 -0.3914
36796SOL    HW120318   9.739   1.988  12.181  0.7450 -1.4276  1.0050
36796SOL    HW220319   9.735   2.084  12.299  0.2804 -0.2560  0.0557
36797SOL     OW20320   5.020   5.362   4.529  0.7120 -0.1395 -0.0729
36797SOL    HW120321   4.956   5.346   4.459  0.9962  1.4146 -0.7321
36797SOL    HW220322   5.103   5.330   4.492  0.8857  0.7916 -0.5476
36798SOL     OW20323  12.415   5.107   9.519  0.0917  0.5478  0.3383
36798SOL    HW120324  12.476   5.093   9.447  0.1580 -2.2668  0.8163
36798SOL    HW220325  12.329   5.085   9.483 -0.1265  0.8544  0.6623
36799SOL     OW20326   4.848   8.990  12.472  0.1378 -0.6784 -0.2716
36799SOL    HW120327   4.835   8.896  12.483 -0.2664 -0.5656  0.2134
36799SOL    HW220328   4.930   9.009  12.518 -0.7401 -0.4775  1.2735
36800SOL     OW20329   0.989  11.036  12.688 -0.0344 -0.5135 -0.0994
36800SOL    HW120330   0.895  11.036  12.707 -0.1626 -1.1132 -0.6709
36800SOL    HW220331   1.026  10.969  12.745  0.4342  1.2430  1.7667
36801SOL     OW20332  12.968  11.695   6.571 -0.7871  0.0466 -0.0877
36801SOL    HW120333  13.027  11.717   6.643 -1.1158  0.5524  0.0293
36801SOL    HW220334  12.965  11.600   6.571 -2.0584  0.0398  1.6147
36802SOL     OW20335   4.527  13.002   5.040 -0.7428  0.5972  0.2420
36802SOL    HW120336   4.525  13.039   4.952  2.3187 -0.2315 -0.3158
36802SOL    HW220337   4.518  12.908   5.027  0.1192  0.4327  0.7491
36803SOL     OW20338   8.406   3.044   7.624 -0.2102  0.4070  0.2509
36803SOL    HW120339   8.442   3.124   7.662 -1.7833  1.0057  0.5476
36803SOL    HW220340   8.409   2.980   7.695 -0.5964  0.7219  0.5517
36804SOL     OW20341   1.226   2.344  12.223  0.1775 -0.1382  0.5738
36804SOL    HW120342   1.136   2.344  12.191  0.7315 -0.0473 -1.0718
36804SOL    HW220343   1.221   2.301  12.308 -1.4884  0.2934  0.7250
36805SOL     OW20344   4.307  13.272   9.589 -0.1451  0.4614  0.7114
36805SOL    HW120345   4.264  13.252   9.672 -1.8221  0.9243 -0.0054
36805SOL    HW220346   4.280  13.361   9.568  1.8068  1.0743  0.5766
36806SOL     OW20347  11.997  12.288   4.909 -0.3300 -0.0992  0.1958
36806SOL    HW120348  11.988  12.196   4.885  1.2446 -0.1246 -0.4274
36806SOL    HW220349  12.003  12.334   4.826  0.7408  0.3413  0.5006
36807SOL     OW20350   9.214   4.980   7.276  0.2384  0.2554  0.6668
36807SOL    HW120351   9.269   4.907   7.245  0.7962  1.1916 -0.6102
36807SOL    HW220352   9.259   5.010   7.355 -0.1120 -0.9005  1.3313
36808SOL     OW20353   9.868   9.200   3.397 -0.1301 -0.4220 -0.5061
36808SOL    HW120354   9.874   9.129   3.333 -0.5182 -0.3956 -0.5768
36808SOL    HW220355   9.860   9.156   3.482 -1.0299 -0.4835 -0.6062
36809SOL     OW20356   4.161  10.309  11.041 -0.4455  0.3741 -0.4429
36809SOL    HW120357   4.218  10.335  11.113 -2.1130  1.3532  0.6152
36809SOL    HW220358   4.170  10.379  10.976 -0.4411  0.5379 -0.2677
36810SOL     OW20359  12.345   6.027  12.486  0.1654  0.0028  0.0146
36810SOL    HW120360  12.415   6.013  12.550  1.6143  1.0217 -1.2986
36810SOL    HW220361  12.286   6.089  12.529  2.4364  2.7273 -0.4490
36811SOL     OW20362   7.158   7.627   1.523  0.0155 -0.5042 -0.0140
36811SOL    HW120363   7.067   7.647   1.547  0.4435  1.2855  0.2795
36811SOL    HW220364   7.189   7.570   1.593 -0.1284  0.9841  1.3257
36812SOL     OW20365  12.824  11.604  11.127  0.0516 -0.3059  0.1552
36812SOL    HW120366  12.755  11.618  11.193  0.3000 -0.2258  0.3983
36812SOL    HW220367  12.829  11.687  11.079 -0.7079 -0.6329 -0.5180
36813SOL     OW20368   9.952   8.972   5.037  0.0206 -0.1826  0.1609
36813SOL    HW120369   9.905   8.974   4.954 -0.4756 -1.0196  0.4132
36813SOL    HW220370  10.016   8.901   5.027  0.4180  0.1549  0.2590
36814SOL     OW20371   7.052   0.952  10.855 -0.3734  0.4047 -0.4034
36814SOL    HW120372   7.102   0.953  10.937  1.1872  0.0574 -1.3024
36814SOL    HW220373   7.043   1.044  10.831  0.2779  0.4515 -0.4811
36815SOL     OW20374   0.007   4.370   8.508  0.8422 -0.0738 -0.5442
36815SOL    HW120375  -0.077   4.325   8.520  1.2043 -0.6619 -0.1387
36815SOL    HW220376  -0.015   4.463   8.507  0.2264 -0.2053 -0.0385
36816SOL     OW20377   5.265   9.607   3.720 -0.0509 -0.9393 -0.3158
36816SOL    HW120378   5.305   9.525   3.747 -0.9210 -0.7110  1.8998
36816SOL    HW220379   5.262   9.660   3.800 -3.1787 -0.3230 -0.7097
36817SOL     OW20380   6.529   6.328   0.880 -0.3872  0.1541  0.0732
36817SOL    HW120381   6.589   6.334   0.806 -0.0242  1.0314  0.4165
36817SOL    HW220382   6.501   6.237   0.881  1.1660 -0.3632  0.0680
36818SOL     OW20383   5.435   8.157   5.865  0.5004 -0.1949 -1.2195
36818SOL    HW120384   5.378   8.163   5.788  0.5576 -0.8011 -1.3125
36818SOL    HW220385   5.453   8.249   5.888  0.8962  0.0010 -2.2355
36819SOL     OW20386   5.311  11.419   8.950 -0.4861  0.0780  0.4109
36819SOL    HW120387   5.388  11.475   8.945  0.2003 -0.7711  1.1506
36819SOL    HW220388   5.342  11.338   8.991 -1.9674  0.0872  1.6640
36820SOL     OW20389  11.956   8.060   9.591  0.4987  0.2128  0.6241
36820SOL    HW120390  12.048   8.070   9.615  0.4916  0.0093  0.7391
36820SOL    HW220391  11.919   8.004   9.659  0.6140 -0.8466 -0.1546
36821SOL     OW20392   0.118  10.247   4.840 -0.8475  0.1713  0.3089
36821SOL    HW120393   0.134  10.235   4.746  0.1796  0.0175  0.4881
36821SOL    HW220394   0.030  10.284   4.845  0.1938  3.1757 -0.9393
36822SOL     OW20395   1.058   4.482   4.667  0.2688  0.5534 -0.1095
36822SOL    HW120396   1.056   4.484   4.571  0.7475 -0.1367 -0.1354
36822SOL    HW220397   1.039   4.391   4.690  1.6326  0.3801  0.4067
36823SOL     OW20398   6.069   6.639   6.369 -0.0268 -0.1499 -0.6500
36823SOL    HW120399   6.001   6.620   6.304  0.3108 -0.7037 -0.8382
36823SOL    HW220400   6.150   6.606   6.331  0.7114  2.1178 -1.2387
36824SOL     OW20401  10.313   9.371   5.933 -0.7666 -0.1843 -0.0992
36824SOL    HW120402  10.276   9.459   5.930 -2.7134 -0.9425  0.5290
36824SOL    HW220403  10.262   9.326   6.000  0.5332 -1.6632 -0.0592
36825SOL     OW20404   8.032  10.110   6.262  0.5694  0.3953  0.1372
36825SOL    HW120405   8.017  10.032   6.315 -0.5868  0.3023 -0.3041
36825SOL    HW220406   7.948  10.128   6.220  1.5671  0.0656 -2.1976
36826SOL     OW20407   9.683   0.059   1.697  0.3037 -0.0372 -0.0352
36826SOL    HW120408   9.751   0.056   1.764 -0.5825  0.8410  0.9460
36826SOL    HW220409   9.619  -0.007   1.724  1.0326 -1.3063 -1.2927
36827SOL     OW20410   0.291  12.075   1.951 -0.1635  0.2936 -0.0485
36827SOL    HW120411   0.278  12.098   1.859  0.8097 -1.0825 -0.5781
36827SOL    HW220412   0.375  12.029   1.952 -0.6758 -0.6871  1.3350
36828SOL     OW20413   9.811   7.199   1.986 -0.6342 -0.2121 -0.3228
36828SOL    HW120414   9.858   7.253   2.050  0.7391  0.0151 -1.4650
36828SOL    HW220415   9.765   7.262   1.930  0.4953 -0.2071 -1.2940
36829SOL     OW20416   7.998   5.954   3.197  0.5472 -0.5816 -0.6289
36829SOL    HW120417   8.067   6.006   3.237 -0.7341 -0.2991  1.3554
36829SOL    HW220418   8.028   5.864   3.203  1.1054 -0.3960 -0.5819
36830SOL     OW20419   8.555  12.977   0.264  0.2425 -0.0580  0.2718
36830SOL    HW120420   8.612  12.967   0.188 -0.6692 -1.6825 -0.2375
36830SOL    HW220421   8.479  12.922   0.245 -0.5342  0.3994  1.8623
36831SOL     OW20422   5.802   2.074  11.646  0.5188 -0.3114  0.3927
36831SOL    HW120423   5.838   2.058  11.733 -0.9171 -1.0891  0.8811
36831SOL    HW220424   5.859   2.026  11.587  1.3458 -0.0053  0.9173
36832SOL     OW20425   7.762   4.639   3.367  0.4053 -1.0167  0.1296
36832SOL    HW120426   7.746   4.691   3.446 -0.5674 -1.0381 -0.0458
36832SOL    HW220427   7.830   4.687   3.320 -0.8509  0.4043 -0.2982
36833SOL     OW20428   3.829   9.743  11.637  0.0997  0.5000 -0.2288
36833SOL    HW120429   3.805   9.659  11.599 -0.2707 -0.4252  1.9163
36833SOL    HW220430   3.748   9.794  11.636  0.5650  1.3272 -2.5451
36834SOL     OW20431   7.762   3.707   3.644  0.3783 -0.2634  0.2015
36834SOL    HW120432   7.705   3.699   3.720 -0.2618  1.1152 -0.0912
36834SOL    HW220433   7.838   3.653   3.664 -0.8204 -1.7938  0.7937
36835SOL     OW20434   6.641   2.156   2.300  0.5232  0.1600 -0.2974
36835SOL    HW120435   6.610   2.230   2.353  0.2048  0.3351 -0.7293
36835SOL    HW220436   6.561   2.119   2.263  0.4410 -1.6399  1.4953
36836SOL     OW20437   6.600  10.231  13.311  0.1751 -0.0210 -0.1024
36836SOL    HW120438   6.584  10.151  13.261 -1.8931  0.4961 -0.3602
36836SOL    HW220439   6.687  10.259  13.283  0.6647 -1.7992 -0.5000
36837SOL     OW20440   0.535   8.169  13.025  0.4166  0.1631  0.1197
36837SOL    HW120441   0.488   8.086  13.011 -0.5714  0.7616 -0.2091
36837SOL    HW220442   0.552   8.202  12.937  0.4227  0.5183  0.2534
36838SOL     OW20443  13.016   9.553   6.985  0.1881  0.6064  0.3614
36838SOL    HW120444  13.001   9.647   6.975  0.5010  0.7491  1.1267
36838SOL    HW220445  13.108   9.546   7.010  0.2731  0.0636 -0.0746
36839SOL     OW20446   3.171   1.648   6.879 -0.5401  0.0088  0.0568
36839SOL    HW120447   3.193   1.641   6.971 -1.7681  0.2163  0.3906
36839SOL    HW220448   3.076   1.634   6.876 -0.2194 -2.6050 -1.4711
36840SOL     OW20449  11.394   8.734   0.102 -0.1362 -0.2384 -0.0236
36840SOL    HW120450  11.465   8.711   0.042 -1.0651  0.2864 -1.3610
36840SOL    HW220451  11.338   8.656   0.103 -1.6176  0.7198 -2.1052
36841SOL     OW20452  13.092   6.594   0.193  0.1412  0.7755  0.1833
36841SOL    HW120453  13.151   6.642   0.251 -0.1164  1.5887 -0.2205
36841SOL    HW220454  13.007   6.638   0.202 -0.6124 -0.8039  1.2910
36842SOL     OW20455   0.334   9.851   8.985  0.1875 -0.3185 -0.2331
36842SOL    HW120456   0.323   9.848   8.890  0.3181  1.2526 -0.3241
36842SOL    HW220457   0.408   9.911   8.999 -0.0578 -0.2473  0.8622
36843SOL     OW20458   3.869   1.071   1.023  0.0164 -0.5314 -0.5358
36843SOL    HW120459   3.921   0.991   1.026  0.9983  0.0841 -0.4895
36843SOL    HW220460   3.855   1.094   1.115 -0.8091 -0.9712 -0.5378
36844SOL     OW20461   7.419   5.968   9.552  0.0266 -0.0975 -0.2047
36844SOL    HW120462   7.492   6.025   9.578  0.0224 -0.5222  0.8047
36844SOL    HW220463   7.431   5.956   9.458  2.5697 -1.9216  0.2502
36845SOL     OW20464   9.871   8.794   5.531 -0.0424 -0.0630 -0.1171
36845SOL    HW120465   9.921   8.817   5.453 -0.1450  0.5356 -0.0152
36845SOL    HW220466   9.875   8.873   5.586 -0.1760 -0.3889  0.3725
36846SOL     OW20467   5.223   9.616  13.189 -0.0720 -0.0184 -0.2222
36846SOL    HW120468   5.206   9.709  13.208  2.9032  0.0718  3.0071
36846SOL    HW220469   5.166   9.569  13.250  0.3179 -0.2047  0.0002
36847SOL     OW20470   3.241  10.029   0.491 -0.5413 -0.6352 -0.8725
36847SOL    HW120471   3.302  10.094   0.455 -1.8148  1.1448  0.0612
36847SOL    HW220472   3.295   9.975   0.548  1.0373 -1.9819 -3.4428
36848SOL     OW20473   7.832   5.414   8.709  0.0630  0.1331 -0.0400
36848SOL    HW120474   7.838   5.504   8.739 -0.3905  0.5926 -1.2741
36848SOL    HW220475   7.867   5.362   8.781  1.7307  1.3896  0.1049
36849SOL     OW20476   2.118  12.339   4.269  0.6021  0.7379  0.2289
36849SOL    HW120477   2.168  12.398   4.213  1.5101 -1.1408 -1.0349
36849SOL    HW220478   2.157  12.253   4.255 -0.9622 -0.2759  1.6464
36850SOL     OW20479   9.805   0.194   1.150 -0.5070 -0.9255 -0.4765
36850SOL    HW120480   9.752   0.248   1.208 -1.6191 -1.3926 -1.0133
36850SOL    HW220481   9.889   0.184   1.195  0.5441  2.8339 -1.1642
36851SOL     OW20482  12.363   3.499   0.012  0.2717 -0.4078 -0.1436
36851SOL    HW120483  12.432   3.555   0.046 -0.3455  0.0432  0.3993
36851SOL    HW220484  12.351   3.527  -0.079  1.4820 -1.1768 -0.5631
36852SOL     OW20485   3.663   3.170  12.975 -0.2177  0.9765  0.0500
36852SOL    HW120486   3.594   3.104  12.989  0.0610  0.4136 -1.0937
36852SOL    HW220487   3.618   3.254  12.985 -0.7222  0.6248  0.8819
36853SOL     OW20488  12.342   7.782   4.828 -0.0840 -0.0053 -0.4738
36853SOL    HW120489  12.413   7.768   4.765  1.0870 -0.8756  0.9600
36853SOL    HW220490  12.387   7.814   4.906 -1.5337  1.3939 -0.1638
36854SOL     OW20491   0.252  10.720  11.566 -0.1979  0.2148  0.4999
36854SOL    HW120492   0.311  10.686  11.633  0.4202  0.6937  0.2070
36854SOL    HW220493   0.176  10.751  11.614  0.3379  0.7672  1.0098
36855SOL     OW20494   2.914  11.242   2.341  0.1318  0.9083 -1.0384
36855SOL    HW120495   2.962  11.160   2.355  0.9523  1.3972 -0.9421
36855SOL    HW220496   2.824  11.221   2.369  1.1189  1.1357  3.0026
36856SOL     OW20497   2.201   4.868   5.689  0.5402 -0.1856  0.4295
36856SOL    HW120498   2.201   4.857   5.784  3.6476 -0.4352  0.4934
36856SOL    HW220499   2.269   4.808   5.657  0.7912  1.1419 -1.7557
36857SOL     OW20500  11.226   3.848   7.947  0.3586  0.1037  0.0806
36857SOL    HW120501  11.274   3.930   7.941 -1.0745  1.0551  0.9426
36857SOL    HW220502  11.161   3.863   8.016 -0.5132 -1.4493 -0.3431
36858SOL     OW20503   4.918  10.964   9.442 -0.9492  0.0080 -0.3729
36858SOL    HW120504   4.880  11.048   9.414 -0.2406  0.0459 -1.2908
36858SOL    HW220505   4.952  10.981   9.530 -1.5322  0.4481 -0.2247
36859SOL     OW20506   6.896  10.554   4.197 -0.6568  0.5186 -0.7394
36859SOL    HW120507   6.849  10.487   4.244  0.0990 -0.1666 -0.9304
36859SOL    HW220508   6.981  10.560   4.241 -0.7564  1.4220 -0.6569
36860SOL     OW20509   0.887  13.281   1.650  0.0431  0.2469  0.0140
36860SOL    HW120510   0.831  13.294   1.573 -0.4242 -1.5106  0.0061
36860SOL    HW220511   0.904  13.370   1.682 -1.3489  0.9301 -0.9846
36861SOL     OW20512   4.121   3.276   3.095  0.2334 -0.2062 -0.1303
36861SOL    HW120513   4.176   3.355   3.091 -0.5877  0.3409 -1.1083
36861SOL    HW220514   4.138   3.239   3.181  1.5612  0.3689 -0.1225
36862SOL     OW20515  10.616   1.542  13.087 -0.2816 -0.1143 -0.1736
36862SOL    HW120516  10.611   1.493  13.004 -0.3298 -0.4619  0.0292
36862SOL    HW220517  10.526   1.541  13.121 -0.3102  0.2456 -0.2403
36863SOL     OW20518   4.880  10.787  13.259 -0.3232 -0.2247  0.0890
36863SOL    HW120519   4.930  10.858  13.301 -1.5883 -1.0307  3.2216
36863SOL    HW220520   4.828  10.832  13.192  0.3352  1.5080  0.6645
36864SOL     OW20521   9.621   9.795  10.054  0.2041 -0.0400 -0.4789
36864SOL    HW120522   9.621   9.853   9.978 -0.6309  0.9114  0.2245
36864SOL    HW220523   9.577   9.716  10.023 -2.7127  1.3718 -0.3016
36865SOL     OW20524   5.983  12.059   3.662 -0.4119  0.2437 -0.2243
36865SOL    HW120525   6.049  12.115   3.704 -1.1470  0.9614 -0.0031
36865SOL    HW220526   5.996  12.072   3.568 -0.1285  0.2502 -0.1846
36866SOL     OW20527   8.596  11.237   3.374  0.0331  0.0208 -0.7149
36866SOL    HW120528   8.651  11.208   3.447  1.1350  2.3177 -0.5428
36866SOL    HW220529   8.533  11.166   3.362  0.1538 -0.6881  2.0936
36867SOL     OW20530   9.854   0.908   5.095 -0.7378 -0.5733  0.1851
36867SOL    HW120531   9.815   0.859   5.167  1.3302  0.9744  2.5256
36867SOL    HW220532   9.948   0.890   5.103 -0.4317 -0.1973 -2.0505
36868SOL     OW20533  11.270   8.953   6.096 -0.1659 -0.2210 -0.2883
36868SOL    HW120534  11.224   8.926   6.017  0.9351 -1.7613 -0.4519
36868SOL    HW220535  11.267   8.876   6.153  0.1895  0.4327  0.6341
36869SOL     OW20536   6.037  12.038   2.947  0.3197  0.7668  0.1275
36869SOL    HW120537   6.021  12.084   2.865  0.9299  1.3630  0.3294
36869SOL    HW220538   6.133  12.030   2.951  0.2687  0.2999  0.5412
36870SOL     OW20539   4.005   7.067   9.186  0.4142 -0.0013  0.2420
36870SOL    HW120540   4.046   6.990   9.225 -0.5563 -1.1519 -0.9191
36870SOL    HW220541   4.059   7.086   9.109 -0.8002 -1.1364 -0.9347
36871SOL     OW20542   3.787   2.710   2.271 -0.4433 -0.6533 -0.0649
36871SOL    HW120543   3.756   2.642   2.211  1.4532 -1.0434 -0.6712
36871SOL    HW220544   3.847   2.664   2.330 -0.9473  0.0651  1.0254
36872SOL     OW20545   1.066   2.654   6.235  0.2787  0.5428 -0.4539
36872SOL    HW120546   1.146   2.697   6.266 -0.7867  2.1337  0.2779
36872SOL    HW220547   1.038   2.600   6.309  0.3824  0.4101 -0.5106
36873SOL     OW20548   8.602   1.937   2.005  0.1273 -0.1178 -0.1819
36873SOL    HW120549   8.641   1.942   2.092 -2.4876 -3.4071  1.3845
36873SOL    HW220550   8.572   1.847   1.996 -2.1025  0.7366 -3.4322
36874SOL     OW20551   4.715   2.420  12.238  0.5535  0.0095  0.2506
36874SOL    HW120552   4.683   2.338  12.201  2.3232 -0.6226  0.0071
36874SOL    HW220553   4.730   2.401  12.330  0.5627  0.1806  0.2850
36875SOL     OW20554   5.016   3.591   0.363 -0.4195 -0.1997 -0.1165
36875SOL    HW120555   5.080   3.647   0.320 -0.2519  1.1185  1.7233
36875SOL    HW220556   5.032   3.604   0.457 -2.3528 -1.0255  0.3764
36876SOL     OW20557   0.728   9.520   1.223  0.5658 -0.3911 -0.3864
36876SOL    HW120558   0.702   9.467   1.148  0.2857 -0.0216 -0.5575
36876SOL    HW220559   0.645   9.542   1.266  0.6683  0.0147 -0.3932
36877SOL     OW20560   9.813   6.184   3.405  0.7948  0.3319 -0.9687
36877SOL    HW120561   9.831   6.140   3.321 -0.2258 -1.3097 -0.3868
36877SOL    HW220562   9.899   6.210   3.437  1.5729 -1.9108 -1.0461
36878SOL     OW20563  10.848  10.383   6.310  0.4359  0.2910 -0.1969
36878SOL    HW120564  10.860  10.478   6.309  0.1052  0.3420  0.3552
36878SOL    HW220565  10.755  10.371   6.290  0.3007  0.1221  0.5267
36879SOL     OW20566   3.313  13.047   7.658  0.4170  0.2968  0.3712
36879SOL    HW120567   3.388  13.104   7.675  1.3218 -1.0794  1.0949
36879SOL    HW220568   3.270  13.038   7.743 -1.0871  1.7239 -0.1791
36880SOL     OW20569   4.534   5.007   8.556  0.7432  0.5624 -0.6240
36880SOL    HW120570   4.570   4.924   8.587 -1.3592 -0.1336  0.1432
36880SOL    HW220571   4.570   5.073   8.615  2.3681  0.2329 -1.1886
36881SOL     OW20572  13.045   5.551  10.563  0.1234 -0.0276  0.1105
36881SOL    HW120573  12.959   5.512  10.548 -0.0392  0.9060 -1.5651
36881SOL    HW220574  13.100   5.516  10.493  0.8427  0.1408  0.5857
36882SOL     OW20575   3.450   2.658  12.026 -0.0226 -0.5118 -0.8424
36882SOL    HW120576   3.416   2.585  11.973  1.7791 -0.4072 -2.2341
36882SOL    HW220577   3.515   2.617  12.083  2.1213  0.1008 -2.6807
36883SOL     OW20578  12.278   7.435   5.113 -0.6168  0.0952 -0.4574
36883SOL    HW120579  12.240   7.476   5.191 -0.3800  1.5679 -1.0794
36883SOL    HW220580  12.206   7.430   5.051 -0.2079  1.4285 -1.0762
36884SOL     OW20581   9.077   2.254   1.011  0.6660 -0.2445  0.0161
36884SOL    HW120582   9.041   2.321   0.953 -0.0373  0.8889  1.6815
36884SOL    HW220583   9.018   2.179   1.001  0.8575 -0.2608 -1.0906
36885SOL     OW20584   9.436  12.668  11.245 -0.0712  0.0239 -0.0012
36885SOL    HW120585   9.388  12.655  11.327 -2.1662  1.4914 -0.8943
36885SOL    HW220586   9.419  12.759  11.223  0.5783 -0.3058 -1.9877
36886SOL     OW20587   9.764  11.177   8.082  0.5821 -0.0074 -0.1072
36886SOL    HW120588   9.724  11.189   7.996  3.2169  2.4223 -1.1364
36886SOL    HW220589   9.789  11.084   8.083 -1.4770 -0.6405 -0.9511
36887SOL     OW20590  12.750   6.124   5.458 -0.9215  0.2443 -0.4060
36887SOL    HW120591  12.719   6.178   5.386 -0.4085 -0.9713 -1.5715
36887SOL    HW220592  12.689   6.050   5.461 -1.8251  0.9879  1.3957
36888SOL     OW20593  10.305   5.187   4.259 -0.5095  0.0284 -0.3026
36888SOL    HW120594  10.320   5.133   4.181  1.9469 -0.0644  0.1602
36888SOL    HW220595  10.393   5.208   4.291 -1.4375  2.0609  1.0910
36889SOL     OW20596   2.426   2.506   9.855 -0.1618  0.1288  0.1308
36889SOL    HW120597   2.430   2.432   9.916  1.3358 -0.7862 -1.0165
36889SOL    HW220598   2.421   2.584   9.912  2.0439 -0.6271  1.4968
36890SOL     OW20599   4.842   7.268   3.259  0.2187  0.6441 -0.0491
36890SOL    HW120600   4.869   7.189   3.305 -0.8649 -1.0999 -2.1934
36890SOL    HW220601   4.913   7.284   3.197  0.7853  1.8421  0.8770
36891SOL     OW20602   4.251  13.099   2.144 -0.8145 -0.2243  0.1968
36891SOL    HW120603   4.180  13.149   2.104  0.6396  0.6265 -1.4534
36891SOL    HW220604   4.225  13.007   2.132 -1.7847  0.0687 -0.0509
36892SOL     OW20605   5.979   0.638   2.594  0.0342  0.2505 -0.1840
36892SOL    HW120606   5.936   0.555   2.575  0.0111  0.1252  0.3799
36892SOL    HW220607   5.976   0.687   2.512  1.2581 -0.8351 -0.9045
36893SOL     OW20608   5.947   5.163   0.023 -0.1528 -0.4188 -0.5506
36893SOL    HW120609   5.987   5.177   0.109 -2.0814  1.7025  0.1131
36893SOL    HW220610   5.965   5.244  -0.025 -1.1319 -0.5862 -1.2409
36894SOL     OW20611   3.201   8.267   1.190 -0.3989 -0.2749 -0.7759
36894SOL    HW120612   3.240   8.227   1.112 -0.9826  0.1288 -1.2827
36894SOL    HW220613   3.151   8.342   1.156  0.7545  0.9600  0.1676
36895SOL     OW20614   0.047  10.579   9.625  0.5556 -0.7813  0.0852
36895SOL    HW120615  -0.035  10.567   9.576  0.5978 -0.5135 -0.0509
36895SOL    HW220616   0.019  10.586   9.716  0.4436 -0.8821  0.0590
36896SOL     OW20617   5.521  12.476   1.495 -0.2718  0.1603  0.0515
36896SOL    HW120618   5.454  12.414   1.526 -1.8994  1.2015 -1.1824
36896SOL    HW220619   5.496  12.560   1.534  0.7929  0.4264  0.1914
36897SOL     OW20620  11.286   1.964   8.285 -0.0647  0.3062 -0.0998
36897SOL    HW120621  11.375   1.996   8.269 -0.6572  1.5373 -1.0724
36897SOL    HW220622  11.248   1.955   8.198 -1.5589  1.7905  0.3519
36898SOL     OW20623   0.694   9.368   6.056 -0.4450  0.2861 -0.2307
36898SOL    HW120624   0.779   9.332   6.030 -0.2360  2.0953 -2.3821
36898SOL    HW220625   0.640   9.291   6.074  1.8901 -0.9211  2.3577
36899SOL     OW20626   6.597   9.112   3.660 -0.3055 -0.5977 -0.0371
36899SOL    HW120627   6.575   9.073   3.745 -1.5035 -0.7515 -0.3909
36899SOL    HW220628   6.548   9.195   3.660 -0.0189 -0.4298 -0.4314
36900SOL     OW20629   7.346  12.168   2.573  0.1535 -0.4813 -0.2134
36900SOL    HW120630   7.359  12.262   2.582 -0.7883 -0.5715  3.1256
36900SOL    HW220631   7.435  12.133   2.561  0.6799  0.7028  0.1011
36901SOL     OW20632   1.036  13.104   4.613 -0.2063  0.0455 -0.4796
36901SOL    HW120633   0.962  13.073   4.664 -0.6804 -0.2481 -1.3181
36901SOL    HW220634   1.006  13.100   4.522  1.0498 -0.7116 -0.8957
36902SOL     OW20635   1.923  12.046   2.468  0.0581  0.2042 -0.7738
36902SOL    HW120636   2.009  12.036   2.509 -1.5110 -1.4766  2.5258
36902SOL    HW220637   1.895  12.133   2.495 -0.2286 -0.2021  0.2973
36903SOL     OW20638   8.827   8.243   7.270  0.0601 -0.6205  0.0648
36903SOL    HW120639   8.785   8.249   7.184  0.2144  0.4380  0.0571
36903SOL    HW220640   8.838   8.333   7.298  0.6201 -0.9394  0.9063
36904SOL     OW20641   5.837   1.853   7.250  0.3850  0.3348 -0.0581
36904SOL    HW120642   5.836   1.758   7.237  0.8086  0.3434 -0.1819
36904SOL    HW220643   5.885   1.887   7.174  1.3971  0.5326  0.6454
36905SOL     OW20644   0.517   3.783   9.544  0.1188  0.3783  0.6473
36905SOL    HW120645   0.507   3.746   9.631  2.1823 -0.1845  0.6967
36905SOL    HW220646   0.566   3.717   9.495  0.6701  1.4907 -0.3580
36906SOL     OW20647   0.954   1.083  12.419  0.0391 -0.1504  0.2253
36906SOL    HW120648   0.911   1.167  12.436 -1.8383 -0.9353 -0.4772
36906SOL    HW220649   0.885   1.026  12.387  0.9404 -2.4269  2.0185
36907SOL     OW20650   6.749   4.520   1.259 -0.3182 -0.3485 -0.2696
36907SOL    HW120651   6.718   4.609   1.247  0.3698  0.0715  0.9531
36907SOL    HW220652   6.809   4.506   1.186  0.4683  0.6125  0.1737
36908SOL     OW20653   7.106   6.812   7.310  0.0839  0.5349  0.1014
36908SOL    HW120654   7.067   6.887   7.354  0.9605  1.3489 -0.4583
36908SOL    HW220655   7.146   6.761   7.381 -0.8065  0.4087  0.5227
36909SOL     OW20656   1.225   0.169   3.747 -0.2788  0.5896 -0.2249
36909SOL    HW120657   1.269   0.197   3.827  0.1936 -0.8004  0.0163
36909SOL    HW220658   1.143   0.131   3.777  0.4994 -1.2013 -0.2402
36910SOL     OW20659  13.099   5.780   0.740 -0.7208 -0.3095  0.1976
36910SOL    HW120660  13.051   5.862   0.732 -0.9966 -0.1805  2.4211
36910SOL    HW220661  13.163   5.797   0.809  0.1803 -1.5518 -0.3022
36911SOL     OW20662   3.526  11.652   4.024 -0.1969  0.5638 -0.0741
36911SOL    HW120663   3.441  11.694   4.040 -0.2145  0.5771 -0.2022
36911SOL    HW220664   3.588  11.724   4.024 -0.3307  0.7015 -1.1240
36912SOL     OW20665   8.593  12.844  11.726 -0.2510  0.4702  0.0251
36912SOL    HW120666   8.671  12.816  11.678 -0.3966 -2.7932  1.4421
36912SOL    HW220667   8.626  12.876  11.810 -0.3853 -0.5640  0.4817
36913SOL     OW20668   9.837   4.726   5.533 -0.9298 -0.4444  0.4776
36913SOL    HW120669   9.902   4.778   5.580 -0.1994 -0.5531 -0.3742
36913SOL    HW220670   9.887   4.652   5.499 -1.4413 -0.3919 -0.4173
36914SOL     OW20671   8.190   9.566   9.412  0.2243  0.4264 -0.0300
36914SOL    HW120672   8.210   9.476   9.438 -0.8310  0.5753  1.4805
36914SOL    HW220673   8.104   9.560   9.369  0.5986  0.5933 -0.8193
36915SOL     OW20674  12.525  10.478   4.965  0.7014  0.2562  0.0307
36915SOL    HW120675  12.607  10.501   4.922  0.2779  0.5058 -0.6668
36915SOL    HW220676  12.477  10.561   4.971  0.6847  0.1984  0.8583
36916SOL     OW20677   3.255   8.899   9.318 -0.0169 -0.2370  0.2671
36916SOL    HW120678   3.256   8.833   9.387  0.7100 -0.3355  0.1713
36916SOL    HW220679   3.179   8.877   9.264 -0.2416 -0.5153  0.6972
36917SOL     OW20680   3.694   9.445   6.014  0.3362 -0.5374  0.0294
36917SOL    HW120681   3.676   9.508   6.083 -2.5246  0.9503 -1.8682
36917SOL    HW220682   3.743   9.494   5.948  0.4611 -1.0826 -0.3002
36918SOL     OW20683   9.472   2.653   2.376  0.0477 -0.6907  0.2106
36918SOL    HW120684   9.446   2.681   2.288 -1.2871 -4.1680 -0.6421
36918SOL    HW220685   9.561   2.619   2.365 -0.2941 -1.5624  0.0646
36919SOL     OW20686  12.211   4.370   5.597  0.1088 -0.6658 -0.6468
36919SOL    HW120687  12.190   4.409   5.512  0.0482  1.7937  0.3936
36919SOL    HW220688  12.306   4.371   5.601  0.1063 -0.4329 -0.5743
36920SOL     OW20689   5.350   9.324   6.166  0.0734 -0.0853 -0.3028
36920SOL    HW120690   5.315   9.354   6.082 -0.7240 -0.6479 -0.1799
36920SOL    HW220691   5.277   9.330   6.227 -0.4032 -3.0067 -0.4514
36921SOL     OW20692   6.291   1.879   7.497 -0.6203  0.2341 -0.4779
36921SOL    HW120693   6.315   1.948   7.436  0.3244 -0.7612 -1.2547
36921SOL    HW220694   6.336   1.801   7.465  0.1963 -0.2577  1.6648
36922SOL     OW20695   7.807   3.537   3.311  0.8155 -0.5786 -0.1610
36922SOL    HW120696   7.838   3.457   3.354  0.2198  0.1604  1.7746
36922SOL    HW220697   7.726   3.558   3.356  1.0978  1.2497 -0.4455
36923SOL     OW20698   7.898   6.334  10.726 -0.2054  0.9865 -0.5139
36923SOL    HW120699   7.896   6.428  10.707 -1.4188  0.9254 -0.8094
36923SOL    HW220700   7.875   6.293  10.642  0.0122  0.4436 -0.3092
36924SOL     OW20701  11.429   8.561  12.887 -0.1670 -0.1698 -0.4460
36924SOL    HW120702  11.460   8.647  12.915  0.3139 -0.1425 -1.0375
36924SOL    HW220703  11.417   8.512  12.969  2.2926 -0.4686 -0.2010
36925SOL     OW20704  11.235   4.359   7.730  0.2101 -0.0257 -0.5996
36925SOL    HW120705  11.228   4.448   7.695 -0.6122 -0.1396 -0.7537
36925SOL    HW220706  11.323   4.331   7.707 -0.1705  0.0403 -2.3026
36926SOL     OW20707  12.836   2.480   8.460 -0.2793 -0.2471  0.1647
36926SOL    HW120708  12.845   2.484   8.365 -0.3520 -0.4461  0.1497
36926SOL    HW220709  12.747   2.510   8.478  0.0250  0.6345  0.2326
36927SOL     OW20710   2.660   0.266   3.086  0.3028 -0.0411 -0.0271
36927SOL    HW120711   2.686   0.323   3.158 -0.0337 -0.0201  0.0787
36927SOL    HW220712   2.740   0.219   3.063  0.0205 -1.3755  1.5549
36928SOL     OW20713  13.062   4.504   8.293  0.1675  0.4257  0.5786
36928SOL    HW120714  13.061   4.427   8.351 -0.6304  1.0377  1.4028
36928SOL    HW220715  13.004   4.567   8.336 -0.1241  1.0547 -0.6944
36929SOL     OW20716  12.142  10.682  12.996  0.1816 -0.1866  0.5275
36929SOL    HW120717  12.210  10.687  13.064 -0.5958 -2.1264  1.4953
36929SOL    HW220718  12.189  10.654  12.918  0.4881 -2.0074  1.3107
36930SOL     OW20719   3.509   0.077   4.473 -0.2556  0.1468  0.3547
36930SOL    HW120720   3.558   0.156   4.449 -1.4351  0.3779 -1.5664
36930SOL    HW220721   3.564   0.032   4.536  1.8713  0.9884 -0.8010
36931SOL     OW20722   7.019   3.357   7.525  0.1882 -0.3108 -0.2596
36931SOL    HW120723   7.009   3.265   7.500 -0.1680  0.1581 -1.9730
36931SOL    HW220724   6.953   3.370   7.593 -1.1469 -0.8467 -1.3967
36932SOL     OW20725   8.837   2.294   5.318  0.2351  0.0569  0.4068
36932SOL    HW120726   8.922   2.262   5.285  0.2372  1.2255 -0.7945
36932SOL    HW220727   8.801   2.219   5.365  0.6995 -1.3981 -1.4087
36933SOL     OW20728  11.814  10.619   7.152  0.3488  0.4359 -0.1160
36933SOL    HW120729  11.802  10.659   7.066  1.3434 -1.5202 -1.2513
36933SOL    HW220730  11.880  10.551   7.138  0.2850 -0.1845  2.1330
36934SOL     OW20731  12.608   3.354   4.146  0.0659  0.3460  0.1557
36934SOL    HW120732  12.553   3.422   4.108 -0.9812 -0.7855 -0.4027
36934SOL    HW220733  12.599   3.366   4.241  0.1190  1.1506  0.0628
36935SOL     OW20734   5.439   7.847   9.314  0.4118  0.2996  0.1836
36935SOL    HW120735   5.426   7.865   9.221 -0.2374  1.1132  0.4222
36935SOL    HW220736   5.399   7.761   9.328 -0.5471  0.6843 -0.0708
36936SOL     OW20737  11.652   5.418   2.354  0.5087 -0.1953  0.2852
36936SOL    HW120738  11.570   5.402   2.308  1.6292  1.5518 -2.6497
36936SOL    HW220739  11.692   5.332   2.364 -0.9302 -0.8855  0.3197
36937SOL     OW20740  11.743   9.741   2.899 -0.0569  0.4113 -0.0420
36937SOL    HW120741  11.749   9.674   2.968  1.1053 -0.0159 -0.5381
36937SOL    HW220742  11.706   9.694   2.824 -0.9396  0.7788  0.1469
36938SOL     OW20743  11.198   8.882  10.381 -0.4466  0.3833 -0.3326
36938SOL    HW120744  11.230   8.884  10.291 -1.6218 -0.2241 -0.7914
36938SOL    HW220745  11.181   8.973  10.403 -0.3115  0.5227 -0.7918
36939SOL     OW20746   9.867   9.132  12.071  0.6057  0.4846  0.4466
36939SOL    HW120747   9.932   9.153  12.004 -0.6117  1.0722 -0.5853
36939SOL    HW220748   9.905   9.165  12.152  1.5371  0.9132 -0.1468
36940SOL     OW20749   8.932   2.170   9.784  0.7487 -0.0755  0.0901
36940SOL    HW120750   8.949   2.076   9.784 -2.3345 -0.7216 -0.3251
36940SOL    HW220751   8.862   2.182   9.848  0.6215  1.8598 -0.3400
36941SOL     OW20752   8.914  12.096  11.024  0.4740  0.0208 -0.8739
36941SOL    HW120753   8.954  12.183  11.028 -0.4134  0.4203 -0.4503
36941SOL    HW220754   8.855  12.099  10.949 -0.1977  0.0727 -0.3520
36942SOL     OW20755   8.415   6.791   0.165  0.0711 -0.8374  0.5363
36942SOL    HW120756   8.409   6.860   0.232  0.9591  0.1265 -0.3402
36942SOL    HW220757   8.480   6.824   0.103 -3.7571  0.4835 -3.2926
36943SOL     OW20758  13.141   6.549   1.245  0.2682 -0.1042  0.2373
36943SOL    HW120759  13.124   6.461   1.213 -1.6093 -0.0491  0.9665
36943SOL    HW220760  13.068   6.601   1.211 -0.5483  0.4232  2.6021
36944SOL     OW20761   2.704  12.477   4.372 -0.1510 -0.1718 -0.6185
36944SOL    HW120762   2.697  12.394   4.418  0.7972  0.1809  0.1835
36944SOL    HW220763   2.646  12.537   4.420 -1.7846 -0.6425 -1.9104
36945SOL     OW20764   1.681   5.742   7.532 -0.0504 -0.1853 -0.1173
36945SOL    HW120765   1.588   5.760   7.549  0.2250  1.2835  0.0102
36945SOL    HW220766   1.703   5.671   7.591 -0.4179  1.3221  1.9536
36946SOL     OW20767   4.708  10.799   4.015  0.1918 -0.2012 -0.4851
36946SOL    HW120768   4.793  10.807   3.972  0.5622  0.1732  0.2764
36946SOL    HW220769   4.730  10.774   4.105 -0.3926  1.4845  0.1691
36947SOL     OW20770   9.715   9.122   7.023 -0.4731 -0.4325 -0.1762
36947SOL    HW120771   9.659   9.175   7.080 -0.3329 -0.6897  0.2060
36947SOL    HW220772   9.702   9.159   6.936 -0.4563  0.1621  0.0691
36948SOL     OW20773  12.688  12.563   8.374 -0.1912  0.3333  0.5486
36948SOL    HW120774  12.675  12.657   8.360  1.1886  0.4160 -0.2962
36948SOL    HW220775  12.778  12.546   8.346 -0.4892 -1.2911  0.4659
36949SOL     OW20776  10.267  13.097   7.598  0.5777  0.4183  0.1163
36949SOL    HW120777  10.352  13.086   7.555  1.1835 -0.0729  1.3857
36949SOL    HW220778  10.259  13.020   7.655 -0.3055  0.9226  0.6926
36950SOL     OW20779   2.494  10.897   4.379 -0.4045  0.4415 -0.7008
36950SOL    HW120780   2.477  10.815   4.334  1.9280 -0.3432 -0.2428
36950SOL    HW220781   2.457  10.885   4.467  1.1673 -0.7161 -0.1591
36951SOL     OW20782   3.959   1.177   8.998  0.2704 -0.5546 -0.1688
36951SOL    HW120783   3.910   1.118   8.941 -1.1219  1.2394 -0.9227
36951SOL    HW220784   3.913   1.173   9.082  0.5961 -1.0478 -0.0107
36952SOL     OW20785   2.897   7.238   6.272 -0.2161 -0.4259 -0.2686
36952SOL    HW120786   2.887   7.193   6.356 -0.1567 -1.1917 -0.6583
36952SOL    HW220787   2.964   7.187   6.226  2.0710  1.7548  0.4049
36953SOL     OW20788   4.983   5.947   8.584 -0.0719 -0.7393 -0.4107
36953SOL    HW120789   5.078   5.933   8.580  0.0707 -0.4547  1.2152
36953SOL    HW220790   4.972   6.019   8.647 -1.3182 -0.0745 -1.3452
36954SOL     OW20791   6.620  13.223   2.711 -0.0639  0.0747 -0.0724
36954SOL    HW120792   6.606  13.233   2.805 -2.1872  0.1925 -0.3460
36954SOL    HW220793   6.672  13.299   2.686  0.3239  0.1637  0.9539
36955SOL     OW20794   3.690   7.737  13.027 -1.0233 -0.1429 -0.2409
36955SOL    HW120795   3.777   7.777  13.029 -0.8271 -0.4612 -1.5554
36955SOL    HW220796   3.655   7.751  13.115 -1.6349  4.4283 -0.9625
36956SOL     OW20797   5.690  11.789   9.274  0.0624 -0.3158 -0.4779
36956SOL    HW120798   5.612  11.766   9.323 -0.7291 -1.6255 -2.2383
36956SOL    HW220799   5.707  11.713   9.218  1.5727  0.6326 -1.3951
36957SOL     OW20800   6.625  11.468   2.235 -0.1977  0.2424  0.1308
36957SOL    HW120801   6.688  11.533   2.203  1.8205 -2.7077 -2.5855
36957SOL    HW220802   6.680  11.403   2.280 -1.9671 -0.2989  1.6291
36958SOL     OW20803   2.117   3.662   1.319 -0.2643  0.4683 -0.2296
36958SOL    HW120804   2.073   3.577   1.330  0.2451  0.1990 -0.2554
36958SOL    HW220805   2.159   3.678   1.404 -0.5915  0.8310 -0.1329
36959SOL     OW20806  10.634   8.589   5.110 -0.2944  0.0542 -0.3060
36959SOL    HW120807  10.554   8.596   5.161  0.7822  0.0062  1.4693
36959SOL    HW220808  10.672   8.505   5.137  0.1725 -0.1073 -1.4133
36960SOL     OW20809   4.942   3.272   6.891  0.1089  0.1808 -0.0911
36960SOL    HW120810   4.870   3.227   6.848  0.3827  0.6247 -1.0377
36960SOL    HW220811   4.929   3.254   6.984 -0.7286 -0.4526 -0.3163
36961SOL     OW20812  12.295   5.384   8.155  0.5508 -0.6158  0.4180
36961SOL    HW120813  12.234   5.423   8.092 -0.1164 -2.5298 -0.1904
36961SOL    HW220814  12.343   5.318   8.104  2.3293  0.0222  1.1756
36962SOL     OW20815   2.941   4.155   9.142  0.0812  0.2866 -0.1389
36962SOL    HW120816   2.910   4.065   9.150 -0.4701  0.6089  1.7929
36962SOL    HW220817   2.933   4.191   9.230  2.0671  1.6603 -0.4509
36963SOL     OW20818   4.852   4.302  11.632 -0.0392 -0.2858  0.5012
36963SOL    HW120819   4.770   4.293  11.681 -0.7620  0.3122 -0.5616
36963SOL    HW220820   4.920   4.297  11.699 -0.9164 -1.1894  1.3586
36964SOL     OW20821   7.348   7.227   1.058 -0.5258 -0.2451 -0.1746
36964SOL    HW120822   7.336   7.137   1.087  1.5153 -0.4851  0.1255
36964SOL    HW220823   7.289   7.279   1.112 -2.0320 -1.4065 -0.6280
36965SOL     OW20824   4.714   6.379   3.295 -0.4927 -0.0940 -0.2725
36965SOL    HW120825   4.738   6.466   3.263  2.4678 -1.0360 -0.9053
36965SOL    HW220826   4.638   6.354   3.241 -1.0897  1.8468 -0.4112
36966SOL     OW20827   5.336   0.135  13.145 -0.2281 -0.0472 -0.0705
36966SOL    HW120828   5.403   0.201  13.162  0.9512 -0.9540 -1.0676
36966SOL    HW220829   5.281   0.174  13.076 -0.8472  0.7511  0.8428
36967SOL     OW20830   5.807   6.393   9.483 -0.0445 -0.0857  0.3976
36967SOL    HW120831   5.790   6.309   9.440 -0.5436 -1.1590  2.5488
36967SOL    HW220832   5.900   6.410   9.468 -0.2784 -0.1956 -1.3794
36968SOL     OW20833  12.880   5.018   5.126  0.4433 -0.1439 -0.4555
36968SOL    HW120834  12.884   5.090   5.062  0.3327  0.3943  0.1333
36968SOL    HW220835  12.789   5.016   5.155  0.5481 -0.2149 -0.1262
36969SOL     OW20836   2.878   0.317  11.690  0.5132  0.0548 -0.0385
36969SOL    HW120837   2.855   0.228  11.663  0.7436 -0.6389  1.8904
36969SOL    HW220838   2.960   0.307  11.739  0.4346  1.3082  0.3815
36970SOL     OW20839   2.350   5.668  12.499  0.7292  0.3783 -0.0964
36970SOL    HW120840   2.304   5.611  12.561  0.4742  0.0423 -0.5936
36970SOL    HW220841   2.439   5.673  12.534  0.0654  1.9594  1.5241
36971SOL     OW20842  12.754   9.435   9.839 -0.0117  0.5161 -0.6447
36971SOL    HW120843  12.677   9.459   9.789  0.0482  0.0956 -0.9407
36971SOL    HW220844  12.819   9.501   9.817 -0.4489  1.1773  0.0124
36972SOL     OW20845  10.961  11.531   1.629  0.2922  0.0904 -0.2709
36972SOL    HW120846  10.933  11.603   1.573  1.5151  0.9792  0.2197
36972SOL    HW220847  10.935  11.558   1.717  1.3817  0.2635  0.0021
36973SOL     OW20848   4.307   6.045   2.916 -0.2126 -0.1337 -0.4598
36973SOL    HW120849   4.290   6.064   2.824  1.0496  1.9170 -0.3360
36973SOL    HW220850   4.351   5.961   2.915  0.5388  0.2433 -1.8172
36974SOL     OW20851  11.193  12.618  11.494  0.0917  0.3591  0.1939
36974SOL    HW120852  11.155  12.650  11.412  0.1951 -1.4961 -0.6301
36974SOL    HW220853  11.266  12.678  11.511  0.7032  0.1987 -1.6241
36975SOL     OW20854   9.750   4.757  11.480  0.2441 -0.3209  0.3864
36975SOL    HW120855   9.690   4.780  11.409 -1.1864 -0.2368  1.5711
36975SOL    HW220856   9.833   4.736  11.436 -0.3816  0.4249 -1.2338
36976SOL     OW20857   6.905   9.276   4.550  0.0237 -0.0910 -0.1393
36976SOL    HW120858   6.987   9.318   4.524 -0.3704 -0.6649 -2.5106
36976SOL    HW220859   6.931   9.206   4.609  1.2026 -0.0722 -0.6204
36977SOL     OW20860   5.762   0.780   5.299  0.6667  0.3518 -0.1109
36977SOL    HW120861   5.696   0.839   5.335  1.7484  2.4703 -1.3694
36977SOL    HW220862   5.836   0.788   5.360  1.2186  1.2084 -0.8697
36978SOL     OW20863   1.564   9.728   2.076 -0.1981 -0.7117  0.2723
36978SOL    HW120864   1.588   9.817   2.101 -1.2375 -0.1188 -0.7594
36978SOL    HW220865   1.488   9.707   2.130 -1.5643  0.0375 -1.2793
36979SOL     OW20866  10.198  11.419   0.151 -0.0703 -0.3487 -0.0006
36979SOL    HW120867  10.292  11.435   0.146 -0.1475 -0.0960 -0.7292
36979SOL    HW220868  10.180  11.408   0.245  0.6011  0.0745  0.1813
36980SOL     OW20869   7.610   1.008   2.163  0.6759 -0.4189 -0.3959
36980SOL    HW120870   7.662   0.978   2.237  0.4147  0.3878  0.1259
36980SOL    HW220871   7.632   1.101   2.154 -2.9508  0.8965  1.9195
36981SOL     OW20872   6.270  10.562   4.228 -0.3219 -0.4728  0.1731
36981SOL    HW120873   6.204  10.518   4.175 -0.2676 -0.4944  0.1224
36981SOL    HW220874   6.353  10.527   4.197 -0.2679 -0.1958  0.0047
36982SOL     OW20875   1.321  10.391   4.370  0.7334  0.6466 -0.3511
36982SOL    HW120876   1.259  10.447   4.324  0.7160  0.2303 -0.8469
36982SOL    HW220877   1.405  10.436   4.360  0.5181  1.2400  0.3717
36983SOL     OW20878   8.679  13.081   9.831 -0.5929  0.0307  0.2772
36983SOL    HW120879   8.765  13.050   9.804 -0.4321 -0.5431  1.3501
36983SOL    HW220880   8.697  13.159   9.884 -0.8549  0.8123 -0.7669
36984SOL     OW20881   3.000  12.625   0.960 -0.2633 -0.0903  0.1375
36984SOL    HW120882   2.905  12.621   0.944 -0.4743 -0.0190  1.3019
36984SOL    HW220883   3.010  12.691   1.028  0.5743 -0.5493  0.4710
36985SOL     OW20884   4.254   3.292   8.956 -0.1817 -0.3500 -0.0544
36985SOL    HW120885   4.161   3.281   8.978 -0.1206  1.4440  1.2478
36985SOL    HW220886   4.301   3.250   9.028  0.0238 -0.0547 -0.0170
36986SOL     OW20887   7.986  11.362  13.210 -0.0013 -0.2176 -0.2052
36986SOL    HW120888   7.904  11.396  13.172  0.2833  0.5058 -0.1887
36986SOL    HW220889   8.054  11.417  13.171  0.3858 -0.1160  0.5997
36987SOL     OW20890   6.128  10.523   7.834  0.3159 -0.1628 -0.4389
36987SOL    HW120891   6.058  10.465   7.803  0.8145 -0.7086 -0.5784
36987SOL    HW220892   6.087  10.609   7.841 -0.3877 -0.4920 -0.4318
36988SOL     OW20893   5.651  12.059   1.899 -0.5426 -0.5466  0.4516
36988SOL    HW120894   5.584  12.057   1.966 -0.6653  1.5690  0.4634
36988SOL    HW220895   5.697  11.976   1.908 -2.0989 -1.3298  1.5239
36989SOL     OW20896   6.922  12.695  11.662  0.0339 -0.3192  0.5594
36989SOL    HW120897   6.873  12.629  11.613  0.3632  0.1724 -0.4511
36989SOL    HW220898   6.882  12.694  11.749 -2.5643  0.8802 -0.5254
36990SOL     OW20899  12.188   3.925   8.473 -0.1085  0.3066 -0.0735
36990SOL    HW120900  12.130   3.955   8.403 -1.3313  1.1139  1.2372
36990SOL    HW220901  12.139   3.858   8.519  0.8903 -0.5910 -0.2622
36991SOL     OW20902  13.072   9.841   0.530  0.5044 -0.0157  0.0861
36991SOL    HW120903  13.161   9.816   0.506  0.7364 -0.2063  1.0930
36991SOL    HW220904  13.037   9.764   0.576 -0.5121 -0.2858 -1.0995
36992SOL     OW20905   8.843   7.250  12.738 -0.0690 -0.1805 -0.1240
36992SOL    HW120906   8.792   7.214  12.810  0.5176 -0.4332  0.1625
36992SOL    HW220907   8.785   7.316  12.699 -0.1706  0.3755  0.9399
36993SOL     OW20908  11.536   7.064  11.577  0.1665 -0.2202  0.1289
36993SOL    HW120909  11.514   7.137  11.635  0.0818  0.1977 -0.4201
36993SOL    HW220910  11.632   7.064  11.574  0.1529  0.8144 -1.0314
36994SOL     OW20911   4.890   1.634   9.677 -0.1130 -0.6197  0.4032
36994SOL    HW120912   4.847   1.704   9.628 -1.0160 -1.6665 -0.3488
36994SOL    HW220913   4.821   1.598   9.733  0.0531 -1.5682  0.0230
36995SOL     OW20914  11.870   2.634  12.888 -0.0015  0.1110  0.1679
36995SOL    HW120915  11.810   2.602  12.821  0.0943  0.3567 -0.0367
36995SOL    HW220916  11.899   2.555  12.933  0.4078 -0.1127 -0.4786
36996SOL     OW20917   7.252   1.557   1.212 -0.4620 -0.0781 -0.0488
36996SOL    HW120918   7.222   1.472   1.244  1.3521 -0.4245  0.8891
36996SOL    HW220919   7.198   1.620   1.261 -0.0019 -0.6696  1.2863
36997SOL     OW20920   6.839   1.435   0.706  0.1388 -0.3362 -0.5122
36997SOL    HW120921   6.851   1.355   0.655  0.2575  0.4434 -1.7496
36997SOL    HW220922   6.863   1.505   0.646  2.8132  0.5372  1.4138
36998SOL     OW20923   2.378   7.799  11.505 -0.3430 -0.7306 -0.1811
36998SOL    HW120924   2.364   7.889  11.534 -1.7408 -0.6706 -0.9768
36998SOL    HW220925   2.430   7.808  11.425  0.5228 -0.7146  0.3670
36999SOL     OW20926   0.573   1.309   2.278  0.3356  0.0159  0.0299
36999SOL    HW120927   0.518   1.385   2.255 -0.4477 -0.4017  0.4958
36999SOL    HW220928   0.648   1.347   2.323 -0.4875  0.4580  1.0625
37000SOL     OW20929   8.819   5.778  11.098  0.6601  0.5857 -0.3275
37000SOL    HW120930   8.754   5.779  11.169  1.5719  1.7793  0.5371
37000SOL    HW220931   8.767   5.769  11.018 -0.3483 -1.6404  0.4975
37001SOL     OW20932   4.817   7.303   9.829 -0.1770  0.1748  0.8676
37001SOL    HW120933   4.803   7.255   9.911  0.6672 -2.0090 -0.1886
37001SOL    HW220934   4.832   7.234   9.764 -1.1712  1.8274 -1.2061
37002SOL     OW20935   1.506   6.561   0.222  0.1806  0.2286  0.1617
37002SOL    HW120936   1.472   6.536   0.308 -0.3262  0.3114 -0.0121
37002SOL    HW220937   1.441   6.528   0.160  0.6584 -0.0265 -0.2020
37003SOL     OW20938   5.185  10.397  12.629 -0.6079  0.2942 -0.2946
37003SOL    HW120939   5.124  10.446  12.574 -1.6554 -0.7668 -0.1122
37003SOL    HW220940   5.229  10.464  12.681 -1.6229  1.0908 -0.4212
37004SOL     OW20941  12.833   6.938  12.938 -0.1326  0.2882  0.4116
37004SOL    HW120942  12.908   6.878  12.936 -1.4736 -1.5171  1.2419
37004SOL    HW220943  12.852   7.003  12.871  1.3289 -1.1818 -0.6640
37005SOL     OW20944   8.545   3.037   4.214 -0.0578  0.6645  0.3796
37005SOL    HW120945   8.561   2.947   4.186 -1.1368  0.4557  0.3766
37005SOL    HW220946   8.599   3.048   4.292 -1.2638 -0.6208  1.4583
37006SOL     OW20947  10.237  12.828   5.457 -0.0865  0.1919 -0.2298
37006SOL    HW120948  10.324  12.866   5.468  0.4452 -0.7432 -1.1014
37006SOL    HW220949  10.180  12.903   5.439  0.4819  0.8337  0.5576
37007SOL     OW20950   9.937   2.965  11.424  0.2175  0.0798  0.0948
37007SOL    HW120951   9.889   2.888  11.452  2.0366 -1.3554 -0.5280
37007SOL    HW220952   9.924   3.029  11.494 -1.6921 -0.6098  0.4100
37008SOL     OW20953   3.325   2.868  12.134  0.2806 -0.5782 -0.7115
37008SOL    HW120954   3.229   2.870  12.137  0.1984  0.3385 -2.3619
37008SOL    HW220955   3.346   2.780  12.104  0.1270 -1.6200  1.9691
37009SOL     OW20956   5.841   5.160  12.042 -0.6925  0.5478 -0.1332
37009SOL    HW120957   5.922   5.208  12.026 -1.1867  1.0226 -1.4210
37009SOL    HW220958   5.845   5.134  12.134  0.3367  1.6518  0.1563
37010SOL     OW20959  12.510  12.331  13.168 -0.1492 -0.4209  0.1408
37010SOL    HW120960  12.415  12.335  13.169 -0.1336  0.8002 -0.6782
37010SOL    HW220961  12.538  12.413  13.208  0.5216 -0.0373 -1.0421
37011SOL     OW20962  10.219  10.833   2.555  0.0409 -0.8190 -0.6031
37011SOL    HW120963  10.296  10.800   2.602 -0.2617 -0.4755  0.1631
37011SOL    HW220964  10.255  10.892   2.489  0.4086  0.3242  0.5592
37012SOL     OW20965  11.191   3.364  12.403 -0.3370  0.0981 -0.2366
37012SOL    HW120966  11.147   3.372  12.488 -1.2587  0.7908 -0.7592
37012SOL    HW220967  11.283   3.383  12.421 -0.5288  0.2565  0.6036
37013SOL     OW20968  11.349  10.010   1.944  0.0221 -0.1024  0.4607
37013SOL    HW120969  11.407  10.068   1.993  0.9296 -0.3852 -0.2541
37013SOL    HW220970  11.297   9.966   2.011  0.2971  0.5067  1.0863
37014SOL     OW20971   9.495   7.819   5.725  0.1238  0.0352  0.1603
37014SOL    HW120972   9.460   7.902   5.757  1.2927  0.6018  0.0258
37014SOL    HW220973   9.537   7.841   5.642  0.6589 -0.6429  0.2371
37015SOL     OW20974   9.480   0.801   9.384 -0.1440  0.4298  0.3416
37015SOL    HW120975   9.430   0.722   9.364  1.9035 -1.2071  1.3985
37015SOL    HW220976   9.465   0.858   9.309 -1.7524 -0.9045 -0.4060
37016SOL     OW20977   8.566   9.870   5.674 -0.0625 -0.9976 -0.1275
37016SOL    HW120978   8.613   9.820   5.741  0.4560  3.3320  3.1919
37016SOL    HW220979   8.630   9.882   5.604  1.9042 -0.1118  1.7009
37017SOL     OW20980   7.267   3.928   1.210  0.3756 -0.8651 -0.1144
37017SOL    HW120981   7.189   3.965   1.251  0.4687 -1.0645  0.2435
37017SOL    HW220982   7.290   3.991   1.141  0.5955 -0.2023  0.5542
37018SOL     OW20983   5.491  11.745  11.809 -0.3130  0.4281  0.3234
37018SOL    HW120984   5.564  11.800  11.780 -2.0676  1.5653 -2.3310
37018SOL    HW220985   5.437  11.733  11.731 -1.7007 -2.4887  1.5641
37019SOL     OW20986   8.504  11.987   8.072 -0.7362 -0.1180  0.0349
37019SOL    HW120987   8.567  12.010   8.142 -2.5310 -0.7108  1.9470
37019SOL    HW220988   8.423  11.969   8.119 -2.6738  1.6585 -2.4342
37020SOL     OW20989   9.615   9.758   9.404 -0.3762  0.0390 -0.8006
37020SOL    HW120990   9.671   9.681   9.409 -0.5690 -0.0798 -0.4683
37020SOL    HW220991   9.609   9.778   9.310  0.3344  0.1416 -0.8243
37021SOL     OW20992   0.278   5.288   2.344 -0.0970  0.4462 -0.2084
37021SOL    HW120993   0.319   5.365   2.304  1.2633 -0.8844 -1.4642
37021SOL    HW220994   0.203   5.269   2.288 -0.5467  0.9464  0.2119
37022SOL     OW20995   9.344   3.404   0.609 -0.6387  0.4539 -0.1459
37022SOL    HW120996   9.334   3.410   0.704  0.0578 -0.3403 -0.0099
37022SOL    HW220997   9.254   3.403   0.576 -0.9171 -0.3952  0.5876
37023SOL     OW20998   2.286   7.194   0.953  0.2675  0.5009 -0.5400
37023SOL    HW120999   2.335   7.113   0.938  0.0711  0.4497 -0.9038
37023SOL    HW221000   2.238   7.177   1.034  1.8236  1.0150  0.5504
37024SOL     OW21001   3.854   9.759   4.771 -0.0308  0.6594  0.6935
37024SOL    HW121002   3.853   9.765   4.867 -0.2402  0.5008  0.7014
37024SOL    HW221003   3.942   9.725   4.750 -0.0531  0.5069  0.8410
37025SOL     OW21004  13.123   3.569   5.856 -0.4077  0.3395  0.3332
37025SOL    HW121005  13.213   3.597   5.839  0.1968 -0.6222  1.7335
37025SOL    HW221006  13.121   3.553   5.950 -2.3089  1.1897  0.4801
37026SOL     OW21007   7.356  10.361   5.622  0.1443  0.6244  0.4476
37026SOL    HW121008   7.425  10.421   5.649  1.3624  0.1739 -1.4837
37026SOL    HW221009   7.368  10.283   5.677  1.3928  0.4297 -0.0802
37027SOL     OW21010   3.348   7.858   7.412 -0.3943  0.2582 -0.0948
37027SOL    HW121011   3.259   7.889   7.424 -0.3855  0.6556 -1.0362
37027SOL    HW221012   3.353   7.831   7.321  0.2865 -0.3070  0.0974
37028SOL     OW21013   9.710   7.401   6.556 -0.2476  0.1541  0.0640
37028SOL    HW121014   9.706   7.446   6.472 -1.5919 -0.2264 -0.0874
37028SOL    HW221015   9.800   7.417   6.587  0.5139 -0.2904 -1.7603
37029SOL     OW21016   0.369   0.586   6.227  0.5944  0.1882  0.6128
37029SOL    HW121017   0.350   0.568   6.135 -0.2271 -1.0275  0.9930
37029SOL    HW221018   0.457   0.551   6.241  1.0911  1.1989  0.0814
37030SOL     OW21019  10.826   7.033  12.843  0.0797 -0.0106 -0.1745
37030SOL    HW121020  10.756   7.031  12.778  0.4797  1.0694 -0.6508
37030SOL    HW221021  10.896   7.085  12.803 -0.4501  2.4834  1.8352
37031SOL     OW21022   0.267   1.492   1.132 -0.3204 -0.5810  0.4460
37031SOL    HW121023   0.253   1.580   1.167  0.7852 -0.8840  1.7266
37031SOL    HW221024   0.193   1.477   1.073 -0.9465  0.8883  0.8305
37032SOL     OW21025  11.766  12.546   1.605  0.3776 -0.2235 -0.2555
37032SOL    HW121026  11.769  12.629   1.557  2.1777 -0.6686 -0.9547
37032SOL    HW221027  11.759  12.573   1.697 -0.6133  0.6631 -0.5639
37033SOL     OW21028   7.650   1.136  12.470 -0.0893  0.2205  0.1218
37033SOL    HW121029   7.629   1.195  12.398  0.4067 -0.4539 -0.5881
37033SOL    HW221030   7.565   1.112  12.507 -0.3357  0.7365 -0.0992
37034SOL     OW21031  10.522   9.840   2.026  0.4006 -0.2284 -0.3992
37034SOL    HW121032  10.609   9.802   2.036  0.5182  0.2598  0.4666
37034SOL    HW221033  10.534   9.933   2.047 -0.4376 -0.2710  0.3024
37035SOL     OW21034   0.301   1.446   2.483  0.1999 -0.0660  0.2478
37035SOL    HW121035   0.255   1.369   2.449  1.6537 -0.7690 -0.2223
37035SOL    HW221036   0.302   1.507   2.409  0.7296 -0.3846 -0.0141
37036SOL     OW21037  10.497   9.039  10.515  0.7104  0.0584  0.6765
37036SOL    HW121038  10.535   9.025  10.429 -0.2894 -0.1125  0.2495
37036SOL    HW221039  10.538   8.973  10.571  0.3152 -0.7694  0.0053
37037SOL     OW21040   2.700   8.189   0.054  0.2449  0.0305 -0.5199
37037SOL    HW121041   2.662   8.235   0.129 -0.2921 -0.2089 -0.6388
37037SOL    HW221042   2.794   8.194   0.068  0.1829  0.9348 -0.3973
37038SOL     OW21043   2.521   0.510  11.881  0.3814 -0.6294  0.1497
37038SOL    HW121044   2.439   0.480  11.842 -0.4288  1.5850  0.0407
37038SOL    HW221045   2.496   0.540  11.968  1.3998 -1.4345  0.7387
37039SOL     OW21046  12.381   0.095  10.193 -0.5093  0.5975 -0.3564
37039SOL    HW121047  12.291   0.129  10.190 -0.6746  0.1343 -2.7188
37039SOL    HW221048  12.425   0.140  10.120  0.9423  0.1809  0.2423
37040SOL     OW21049   9.418  12.906  11.141 -0.4882 -0.4386 -0.0753
37040SOL    HW121050   9.489  12.933  11.082 -0.5769  1.7006  0.7054
37040SOL    HW221051   9.408  12.980  11.201 -1.0455 -2.1487  2.0443
37041SOL     OW21052   7.329   0.943   9.228 -0.0993 -0.5454  0.4390
37041SOL    HW121053   7.387   0.867   9.223  0.6764  0.0464  0.1491
37041SOL    HW221054   7.378   1.013   9.184 -0.2485  0.4589  1.8135
37042SOL     OW21055  11.943   9.704   5.893 -0.1452 -0.2166 -0.2667
37042SOL    HW121056  11.871   9.673   5.947  0.9138  0.8168  1.8786
37042SOL    HW221057  11.983   9.774   5.945  1.0237  0.7818 -2.3850
37043SOL     OW21058   8.270   7.360   3.967 -0.0969 -0.3082  0.1527
37043SOL    HW121059   8.341   7.424   3.975  0.0519 -0.5430  0.7743
37043SOL    HW221060   8.274   7.309   4.048 -1.0215 -0.2842  0.2214
37044SOL     OW21061   8.394   4.332   0.275 -0.0372 -0.1957  0.3690
37044SOL    HW121062   8.361   4.300   0.191  2.0572  1.6481 -1.2673
37044SOL    HW221063   8.317   4.366   0.320 -1.3141 -1.8718 -0.4438
37045SOL     OW21064   8.455   9.620   9.739  0.1358  0.2451 -0.7424
37045SOL    HW121065   8.455   9.656   9.828  2.2747  1.4152 -1.1636
37045SOL    HW221066   8.364   9.632   9.709 -0.8666 -0.9841  1.5391
37046SOL     OW21067   0.629   6.811   0.746  0.2447 -0.3743 -0.0463
37046SOL    HW121068   0.601   6.740   0.688 -0.9081 -1.4023  1.6803
37046SOL    HW221069   0.654   6.882   0.686 -2.0371 -0.9185 -1.8220
37047SOL     OW21070   1.673   4.070   9.269  0.0505 -0.1082 -0.2990
37047SOL    HW121071   1.594   4.016   9.259 -0.0594 -0.2296  1.0545
37047SOL    HW221072   1.639   4.156   9.293  0.3149 -0.2493  0.6406
37048SOL     OW21073   3.883   7.569   2.323  0.5028  0.3791 -0.8955
37048SOL    HW121074   3.951   7.547   2.386 -0.4113 -2.2840 -0.7260
37048SOL    HW221075   3.900   7.511   2.248 -0.3416  1.1943 -1.7537
37049SOL     OW21076   2.362   7.015   5.473  0.2824 -0.2748  0.0102
37049SOL    HW121077   2.454   7.000   5.494  0.9789  2.0614 -0.9773
37049SOL    HW221078   2.364   7.058   5.388 -1.8075 -0.9138 -0.4231
37050SOL     OW21079   6.330   8.287   1.476 -0.0727  0.3317 -0.3463
37050SOL    HW121080   6.261   8.353   1.484 -1.5613 -1.2457  0.6553
37050SOL    HW221081   6.315   8.229   1.551  1.3579 -0.9610 -1.0259
37051SOL     OW21082   0.829   2.834   7.165 -0.6026  0.0667 -0.6091
37051SOL    HW121083   0.885   2.909   7.144 -0.6568 -0.1731 -1.7073
37051SOL    HW221084   0.756   2.870   7.214 -0.2178  0.6013 -0.4202
37052SOL     OW21085  12.689   6.433   8.050 -0.0676  0.1390 -0.2761
37052SOL    HW121086  12.717   6.389   7.970 -1.5180  1.2338 -1.4287
37052SOL    HW221087  12.598   6.408   8.061  0.2060 -0.2886  1.2666
37053SOL     OW21088  10.787   5.714   0.971  0.3489 -0.0226 -0.1235
37053SOL    HW121089  10.732   5.689   1.045  2.7166 -0.6370  1.5184
37053SOL    HW221090  10.865   5.659   0.978  1.2413  0.8345 -2.3198
37054SOL     OW21091   1.118   2.444   7.017 -0.3934 -0.1336 -0.4246
37054SOL    HW121092   1.205   2.472   6.988  0.3413 -1.1309  0.7114
37054SOL    HW221093   1.071   2.526   7.035  0.7164  0.4162  0.0673
37055SOL     OW21094   8.114  12.571   8.239  0.4929  0.3876 -0.2367
37055SOL    HW121095   8.036  12.515   8.236  0.4268  0.3968  0.9888
37055SOL    HW221096   8.083  12.654   8.275  0.6387  1.1705 -1.8299
37056SOL     OW21097   6.033   4.932  11.946  0.0748 -0.4675  0.2359
37056SOL    HW121098   6.023   5.026  11.928  1.1758 -0.1720  1.0694
37056SOL    HW221099   6.079   4.928  12.029 -0.5013 -1.7694  0.5206
37057SOL     OW21100   5.401  10.066   4.003 -0.0962 -0.8308 -0.4894
37057SOL    HW121101   5.347  10.008   3.950  0.9338 -0.2367 -2.2818
37057SOL    HW221102   5.367  10.056   4.092 -2.1449 -1.5715 -1.2999
37058SOL     OW21103   6.086  12.604   6.234  0.5490 -0.1820  0.0019
37058SOL    HW121104   6.019  12.628   6.171  1.8023  2.2559 -0.5402
37058SOL    HW221105   6.059  12.645   6.316  0.4596 -0.7782  0.2796
37059SOL     OW21106   1.224   9.620  12.800 -0.3774 -0.0244 -0.1031
37059SOL    HW121107   1.148   9.677  12.810  0.1254  0.2193  3.6766
37059SOL    HW221108   1.256   9.639  12.712 -1.8555  3.4832 -0.0627
37060SOL     OW21109   5.205   6.897   3.584  0.0097 -0.2528 -0.2885
37060SOL    HW121110   5.268   6.862   3.646 -0.4337  0.8017  0.7826
37060SOL    HW221111   5.136   6.935   3.638 -0.7889 -0.0184 -1.4308
37061SOL     OW21112  10.765   7.148   4.522  0.1887  0.3292  0.6042
37061SOL    HW121113  10.821   7.070   4.524 -0.3266 -0.0562  2.7173
37061SOL    HW221114  10.695   7.127   4.462  1.7859  0.4834 -1.4275
37062SOL     OW21115   3.826   2.782   4.558  0.0967 -0.1950 -0.1738
37062SOL    HW121116   3.814   2.699   4.605 -1.7618 -0.2527 -0.6446
37062SOL    HW221117   3.791   2.848   4.618 -0.2400 -0.0087 -0.5683
37063SOL     OW21118   9.636   8.488  12.928  0.4808 -0.2448 -0.9853
37063SOL    HW121119   9.591   8.425  12.872  0.9588 -1.8463  0.3541
37063SOL    HW221120   9.712   8.441  12.962 -0.4089  0.2010  1.9530
37064SOL     OW21121  10.235  10.977   7.263  1.0868 -0.0955  0.5737
37064SOL    HW121122  10.208  10.918   7.334 -0.1765 -0.2746 -0.0159
37064SOL    HW221123  10.152  11.014   7.231  1.5800 -0.3380 -1.0793
37065SOL     OW21124   9.129   7.842   1.895 -0.0005  0.4310  0.3422
37065SOL    HW121125   9.107   7.840   1.801 -1.1639 -0.1395  0.6005
37065SOL    HW221126   9.130   7.750   1.921 -3.8629  0.5677  1.7393
37066SOL     OW21127   0.313   1.558  10.721  0.5938 -0.1036 -0.4826
37066SOL    HW121128   0.291   1.544  10.813 -0.1157  1.2065 -0.4207
37066SOL    HW221129   0.386   1.621  10.723  0.0566  0.5450 -0.8120
37067SOL     OW21130   1.142   2.305   4.108  0.0719  0.1489  0.2412
37067SOL    HW121131   1.097   2.379   4.066  2.4785  2.4132  1.3354
37067SOL    HW221132   1.180   2.342   4.188  1.1433 -2.3778  1.0126
37068SOL     OW21133  10.551   7.071   2.856 -0.2897  0.0977 -0.7277
37068SOL    HW121134  10.548   7.020   2.937 -0.0660  1.5331  0.2207
37068SOL    HW221135  10.610   7.022   2.799  1.5373  0.2842  0.8782
37069SOL     OW21136   8.576   9.280  12.649 -0.1900  0.2691  0.0350
37069SOL    HW121137   8.628   9.338  12.594 -0.3455 -0.4895 -0.9368
37069SOL    HW221138   8.608   9.192  12.629 -1.0993 -0.1188  0.2172
37070SOL     OW21139   5.930   8.618   5.704 -0.4263 -0.3245 -0.2896
37070SOL    HW121140   5.920   8.713   5.690 -2.3269 -0.3966  0.2109
37070SOL    HW221141   5.912   8.580   5.618 -1.0496 -0.2713 -0.1916
37071SOL     OW21142   8.581   9.850   9.360 -0.4760  0.2011 -0.0151
37071SOL    HW121143   8.505   9.792   9.356  0.5523 -1.1530 -0.4707
37071SOL    HW221144   8.621   9.833   9.445  1.1513 -1.5502 -1.0593
37072SOL     OW21145  12.717  10.937   2.146 -0.0624 -0.2266 -0.0856
37072SOL    HW121146  12.631  10.905   2.120 -0.9667  1.0718  1.1968
37072SOL    HW221147  12.746  10.990   2.072 -1.4813  1.3363  0.4289
37073SOL     OW21148   1.298   1.874   5.816 -0.4502 -0.2980  0.0286
37073SOL    HW121149   1.218   1.869   5.869  1.1987 -1.5138  2.5600
37073SOL    HW221150   1.335   1.786   5.819  0.6819  0.0670 -1.6605
37074SOL     OW21151   2.343   1.627   5.530 -0.0447  0.0548  0.1665
37074SOL    HW121152   2.324   1.695   5.465  2.8325 -1.0468 -2.1075
37074SOL    HW221153   2.418   1.580   5.493  1.1258 -1.3508  3.8851
37075SOL     OW21154   6.040   7.444   1.290 -0.2792  0.1052  0.4167
37075SOL    HW121155   5.994   7.411   1.213  0.8773 -1.0497  0.1746
37075SOL    HW221156   5.984   7.420   1.363 -1.6886  1.7536 -0.0764
37076SOL     OW21157   3.100   4.159   4.111  0.2001 -0.0753  0.0962
37076SOL    HW121158   3.127   4.121   4.028 -1.7618 -1.4123 -0.0100
37076SOL    HW221159   3.023   4.108   4.136 -0.3201  1.4721  1.8447
37077SOL     OW21160   8.675   8.041   8.776  0.0196 -0.1404  0.0601
37077SOL    HW121161   8.598   8.023   8.722 -0.2892 -1.1256  0.7949
37077SOL    HW221162   8.643   8.094   8.848 -0.1765 -1.2998  0.8522
37078SOL     OW21163   1.186   0.782   4.551 -0.0629  0.1900  0.7308
37078SOL    HW121164   1.210   0.729   4.627  1.1979  1.2995  1.1484
37078SOL    HW221165   1.112   0.835   4.581  1.2017  1.5219  1.6454
37079SOL     OW21166   2.144   6.603   1.999  0.6325 -0.3131  0.2710
37079SOL    HW121167   2.145   6.552   2.079  0.6208 -0.9288 -0.1153
37079SOL    HW221168   2.066   6.573   1.952 -0.0544  0.9261  0.5867
37080SOL     OW21169  10.456  12.138   3.901  0.3346 -0.0359 -0.0988
37080SOL    HW121170  10.391  12.147   3.832  0.8100  0.6007 -0.4644
37080SOL    HW221171  10.530  12.095   3.860 -1.0593 -4.0147  1.0903
37081SOL     OW21172   8.806  10.923   8.119 -0.7560 -0.3232 -0.2033
37081SOL    HW121173   8.867  10.996   8.108  1.1627 -1.7919  0.0298
37081SOL    HW221174   8.731  10.945   8.065 -1.1877  2.7450  1.3982
37082SOL     OW21175   0.988   6.848   7.352  0.2202  0.1758  0.2102
37082SOL    HW121176   1.046   6.918   7.324  2.1821 -1.3558  0.2705
37082SOL    HW221177   0.960   6.806   7.270 -1.8608  1.6015  0.0880
37083SOL     OW21178  10.515   5.950   7.757 -0.3769 -0.4055 -0.7186
37083SOL    HW121179  10.562   5.882   7.805 -1.2890 -1.1703 -0.8632
37083SOL    HW221180  10.426   5.946   7.792 -0.2813  1.2361 -0.2041
37084SOL     OW21181   4.937   0.829   9.459  0.4132  0.0011  0.0889
37084SOL    HW121182   4.921   0.810   9.551 -0.0030  1.1311  0.2690
37084SOL    HW221183   4.939   0.744   9.416 -3.3574 -0.4324  0.4858
37085SOL     OW21184   1.740   0.623   2.801 -0.0609  0.0680 -0.6278
37085SOL    HW121185   1.752   0.672   2.719 -1.8348  0.1069 -0.8971
37085SOL    HW221186   1.710   0.536   2.773 -3.1176  0.8144 -0.0497
37086SOL     OW21187   7.109   9.505   0.610  0.7294 -0.2160  0.0113
37086SOL    HW121188   7.149   9.515   0.524  0.8428  0.7858  0.1653
37086SOL    HW221189   7.077   9.415   0.612  1.1065 -0.3767 -0.9120
37087SOL     OW21190   9.260   3.119  13.221  0.4587  0.0480  0.6294
37087SOL    HW121191   9.184   3.072  13.186  0.2905 -0.6090  1.8341
37087SOL    HW221192   9.279   3.075  13.303  2.5216 -0.1708  0.0795
37088SOL     OW21193   0.224   3.217  12.625 -0.4456  0.0922  0.9147
37088SOL    HW121194   0.189   3.211  12.713 -1.4998 -2.8595  0.4085
37088SOL    HW221195   0.295   3.152  12.622  0.1897  0.7960 -0.1677
37089SOL     OW21196   7.877  11.161   8.159  0.5516 -0.2395  0.3529
37089SOL    HW121197   7.946  11.189   8.218  1.4790  0.1668 -0.8737
37089SOL    HW221198   7.804  11.221   8.177  1.2262  0.6163  0.3036
37090SOL     OW21199   2.510  11.843   0.457 -0.1921 -0.2875  0.0857
37090SOL    HW121200   2.416  11.826   0.453 -0.1233 -0.4621 -1.2803
37090SOL    HW221201   2.526  11.872   0.547 -1.5818 -0.0503  0.2712
37091SOL     OW21202   0.987   6.603  12.065 -0.0353  0.0751 -0.2203
37091SOL    HW121203   1.015   6.515  12.090  0.1162  0.4998  1.1949
37091SOL    HW221204   0.901   6.613  12.105  0.2580  0.8243  0.2467
37092SOL     OW21205  10.095   1.241  10.641 -0.4499  0.3857 -0.5846
37092SOL    HW121206  10.053   1.223  10.556 -0.9153 -2.2096  0.1029
37092SOL    HW221207  10.024   1.276  10.695 -0.9791 -0.9386 -0.3789
37093SOL     OW21208   1.272   5.964   5.912  0.5612  0.4327  0.0934
37093SOL    HW121209   1.259   5.989   6.003  0.6713 -0.9454  0.5169
37093SOL    HW221210   1.203   5.899   5.895 -0.2891  1.5944 -1.2204
37094SOL     OW21211   5.210  10.743   0.955  0.6572  0.8247  0.2132
37094SOL    HW121212   5.189  10.664   0.904  2.3779  0.5496 -0.1608
37094SOL    HW221213   5.147  10.809   0.925  1.6610  0.7137 -2.4487
37095SOL     OW21214   1.522  13.233   0.929  0.2216 -0.2350  0.4423
37095SOL    HW121215   1.513  13.218   1.023  0.1011  0.0982  0.4878
37095SOL    HW221216   1.610  13.202   0.908 -0.1869 -1.4126  0.4342
37096SOL     OW21217  12.758  11.250   4.453  0.2514 -0.3053  0.2558
37096SOL    HW121218  12.828  11.280   4.512 -0.1693 -1.0316  1.1624
37096SOL    HW221219  12.694  11.321   4.453  0.6636  0.0723 -0.0323
37097SOL     OW21220   8.116  12.363   5.070  0.2141  0.2072  0.2373
37097SOL    HW121221   8.139  12.395   4.983 -0.1639 -2.1646 -0.8307
37097SOL    HW221222   8.094  12.441   5.120  3.4831  1.9666 -0.8089
37098SOL     OW21223   3.972  12.235   0.654 -0.6508  0.2273  0.1217
37098SOL    HW121224   3.998  12.320   0.619  0.3940 -0.6493 -1.3523
37098SOL    HW221225   4.008  12.234   0.743 -0.6691  1.3188  0.1543
37099SOL     OW21226   2.884  10.888   7.943  0.0458 -0.1151 -0.0647
37099SOL    HW121227   2.828  10.913   8.017 -2.0562  0.2716 -1.6744
37099SOL    HW221228   2.891  10.969   7.891 -1.8529 -1.2349 -2.2624
37100SOL     OW21229   7.733  13.061   9.971 -0.0289 -0.1276  0.6088
37100SOL    HW121230   7.673  13.109   9.914 -0.0030 -0.3014  0.4332
37100SOL    HW221231   7.814  13.053   9.921  0.0271 -0.1936  0.7083
37101SOL     OW21232   6.175   6.497  12.209  0.0806 -0.0099 -0.2104
37101SOL    HW121233   6.082   6.484  12.228 -0.0955 -1.3722 -1.7385
37101SOL    HW221234   6.182   6.588  12.180 -0.5539  0.4475  1.0159
37102SOL     OW21235   2.830   8.096  12.447  0.5415 -0.2491  0.2663
37102SOL    HW121236   2.794   8.007  12.451  0.5219 -0.2152  1.3685
37102SOL    HW221237   2.906   8.089  12.390  0.6994 -1.0396  0.5594
37103SOL     OW21238  10.681   1.917   2.975  0.1005 -0.1845 -0.4448
37103SOL    HW121239  10.694   1.839   3.030 -0.0538  1.2621  1.7354
37103SOL    HW221240  10.769   1.946   2.953  0.2222  0.3259  0.6779
37104SOL     OW21241   8.211  10.218   8.735  0.0334 -0.8632 -0.1278
37104SOL    HW121242   8.134  10.179   8.694 -0.1998 -0.5591  0.0122
37104SOL    HW221243   8.182  10.242   8.823  0.3971 -1.0888  0.0538
37105SOL     OW21244  11.398   2.259  12.527 -0.1908 -0.3351 -0.0478
37105SOL    HW121245  11.303   2.269  12.515 -0.0547  0.4393 -0.5835
37105SOL    HW221246  11.435   2.292  12.445  0.4884 -2.0853 -0.4694
37106SOL     OW21247   9.129   1.994   0.571  0.2741 -0.6175  0.1489
37106SOL    HW121248   9.064   1.941   0.617  0.1653  0.0050  0.7342
37106SOL    HW221249   9.155   1.941   0.496 -0.5643 -1.0747  0.1687
37107SOL     OW21250   3.311   1.679   7.519  0.6397  0.1012 -0.3035
37107SOL    HW121251   3.279   1.639   7.600 -1.4088  1.5855 -0.2769
37107SOL    HW221252   3.238   1.669   7.457  2.3333 -1.4115 -2.1564
37108SOL     OW21253   3.515   0.764   9.070  0.1901  0.0388  0.7218
37108SOL    HW121254   3.562   0.712   9.005 -0.9884 -1.0449  0.6989
37108SOL    HW221255   3.525   0.715   9.152 -0.0057  0.3521  0.9370
37109SOL     OW21256   2.212   8.486  11.758  0.2080 -0.2214  0.1235
37109SOL    HW121257   2.223   8.406  11.809 -0.0481 -1.7287 -2.0247
37109SOL    HW221258   2.119   8.486  11.734  0.5852 -0.3242 -1.4497
37110SOL     OW21259  11.879   5.387   8.354 -0.1534 -0.2158 -0.2385
37110SOL    HW121260  11.919   5.305   8.325 -0.1529 -0.0379 -0.7538
37110SOL    HW221261  11.898   5.392   8.447 -2.5968 -2.2303  0.4822
37111SOL     OW21262   1.209  12.094   5.964 -0.1134  0.0955  0.2418
37111SOL    HW121263   1.183  12.024   5.903 -1.7375  0.9373 -0.1090
37111SOL    HW221264   1.126  12.129   5.997  0.7047  0.4638  2.0447
37112SOL     OW21265   9.429   8.299   9.993  0.2715 -0.2076  0.1809
37112SOL    HW121266   9.369   8.225   9.994 -1.0625  0.8246  0.1026
37112SOL    HW221267   9.481   8.288   9.913 -0.1330 -0.8725  0.0111
37113SOL     OW21268   4.058  10.601   0.190 -0.6631  0.2811 -0.2286
37113SOL    HW121269   4.061  10.532   0.256 -0.0923  2.4535  2.2070
37113SOL    HW221270   4.147  10.605   0.155 -0.7628 -0.3612 -0.5625
37114SOL     OW21271  11.421   5.998   8.756 -0.0383 -0.2626 -0.1997
37114SOL    HW121272  11.388   5.909   8.743  1.2036 -0.4763 -2.4629
37114SOL    HW221273  11.361   6.053   8.707  0.2956 -0.1186 -0.4562
37115SOL     OW21274   4.703   0.052   6.268  0.0509 -0.2405 -0.2109
37115SOL    HW121275   4.695   0.029   6.176  1.3727  0.1932 -0.4606
37115SOL    HW221276   4.797   0.041   6.287 -0.2205 -0.4158  1.0985
37116SOL     OW21277   4.868   6.311  12.360  0.1586 -0.6366 -0.6518
37116SOL    HW121278   4.863   6.232  12.306 -1.1432 -1.5150  0.6755
37116SOL    HW221279   4.961   6.333  12.361  0.4864 -1.8528 -1.4511
37117SOL     OW21280   3.832   5.100   3.687  0.3153 -0.0803 -0.1494
37117SOL    HW121281   3.902   5.124   3.748 -1.3770  0.6375  1.6213
37117SOL    HW221282   3.788   5.027   3.730 -1.2675  0.8128 -0.1941
37118SOL     OW21283   2.142   4.766   8.249 -0.2195 -0.1806 -0.2241
37118SOL    HW121284   2.116   4.855   8.273 -1.7716 -0.7647  0.3610
37118SOL    HW221285   2.189   4.776   8.166  0.8030  1.3152  0.4911
37119SOL     OW21286   0.442  13.095   8.560  0.2247 -0.7584  0.6312
37119SOL    HW121287   0.522  13.126   8.519 -1.8064  0.5270 -2.7702
37119SOL    HW221288   0.416  13.018   8.509 -2.1737  0.5986 -0.3528
37120SOL     OW21289   2.828   1.356  11.909  0.2838  0.2071 -0.1982
37120SOL    HW121290   2.790   1.279  11.865  0.9338 -0.9755  1.2131
37120SOL    HW221291   2.791   1.431  11.862  0.4130 -0.9467 -2.2971
37121SOL     OW21292  12.996   5.919   9.443  0.2358 -0.0023 -0.7157
37121SOL    HW121293  13.027   5.895   9.355  0.1637 -1.5661 -0.3444
37121SOL    HW221294  13.076   5.935   9.493  0.2868  0.6168 -0.9935
37122SOL     OW21295   0.286   8.330   7.003 -0.0255 -0.1558 -0.5724
37122SOL    HW121296   0.329   8.406   6.964  2.8482 -1.1313  0.4688
37122SOL    HW221297   0.310   8.335   7.096  0.1648 -2.2821 -0.4695
37123SOL     OW21298  12.855  11.628   7.533 -0.7259  0.2776 -0.2289
37123SOL    HW121299  12.810  11.673   7.604  1.0333  1.2173  0.3451
37123SOL    HW221300  12.899  11.698   7.485 -2.1365 -0.2822 -2.4935
37124SOL     OW21301   2.321   9.292  11.637  1.1626  0.5847 -0.2096
37124SOL    HW121302   2.235   9.306  11.677  0.2832 -0.2736 -1.7081
37124SOL    HW221303   2.349   9.380  11.609 -0.0099  0.6573 -1.2049
37125SOL     OW21304   2.961   2.411  11.718 -0.0781 -0.3670  0.0168
37125SOL    HW121305   2.989   2.322  11.699 -1.2855 -0.5956 -0.8130
37125SOL    HW221306   2.890   2.401  11.782  0.6368  0.0957  0.9078
37126SOL     OW21307  11.042   4.151   1.478  0.3943  0.4793  0.3128
37126SOL    HW121308  11.036   4.093   1.553  1.9333 -1.5712 -1.0236
37126SOL    HW221309  11.108   4.216   1.503 -0.6084  1.0901  1.4531
37127SOL     OW21310   3.579   1.773   4.883  0.3982  0.1539 -0.6032
37127SOL    HW121311   3.668   1.746   4.864  0.9544  1.8476 -0.5760
37127SOL    HW221312   3.566   1.750   4.975  0.6788 -0.4341 -0.7109
37128SOL     OW21313   6.244  11.909   1.538 -0.2253  0.0633  0.0400
37128SOL    HW121314   6.213  11.839   1.595 -2.2962  1.9190  1.3513
37128SOL    HW221315   6.334  11.925   1.568 -0.0567 -1.3157  0.3651
37129SOL     OW21316   4.156   1.221   1.897  0.3101  0.2076  0.1414
37129SOL    HW121317   4.238   1.176   1.917  0.0685 -0.8681 -1.0982
37129SOL    HW221318   4.124   1.252   1.981  1.6433  0.0349  0.7354
37130SOL     OW21319   8.407   4.261  11.126  0.6043 -0.4197  0.4722
37130SOL    HW121320   8.363   4.246  11.210  2.0393 -1.2682  1.1191
37130SOL    HW221321   8.456   4.180  11.110 -0.1249 -0.5304 -1.5251
37131SOL     OW21322   9.092  11.045   5.408  0.2232  0.1982 -0.0814
37131SOL    HW121323   9.044  11.119   5.371 -0.5730 -0.2746 -0.0084
37131SOL    HW221324   9.103  11.067   5.501  2.5611  1.5660 -0.5915
37132SOL     OW21325   7.336   7.389  10.109 -0.8007 -0.2825  0.3549
37132SOL    HW121326   7.416   7.349  10.143  1.0374  2.3111 -0.6345
37132SOL    HW221327   7.298   7.434  10.184 -1.4360 -1.5668  0.8414
37133SOL     OW21328   5.798   1.447   4.476 -0.1343  0.1550  0.3530
37133SOL    HW121329   5.808   1.367   4.425 -0.3561  1.4553 -1.8844
37133SOL    HW221330   5.885   1.487   4.476 -0.4005  0.7525 -0.0718
37134SOL     OW21331   3.296   1.892  11.974  0.0963  0.1127 -0.0659
37134SOL    HW121332   3.351   1.924  11.902  0.3532 -0.6207 -0.1944
37134SOL    HW221333   3.310   1.956  12.044  2.5881 -1.0613  0.5857
37135SOL     OW21334  12.398  13.268  10.733 -0.0668 -0.1647  0.5886
37135SOL    HW121335  12.460  13.317  10.678 -1.7262  0.8844 -0.4466
37135SOL    HW221336  12.403  13.179  10.700 -0.9441  0.4247 -1.2659
37136SOL     OW21337   9.377   1.722   3.490 -0.1142 -0.2457 -0.1810
37136SOL    HW121338   9.339   1.794   3.439 -0.2392  0.3928  0.7905
37136SOL    HW221339   9.455   1.697   3.441  0.3733  1.0863 -0.1330
37137SOL     OW21340   6.396   0.249   6.260 -0.4923  0.3250  0.3430
37137SOL    HW121341   6.383   0.207   6.345 -1.7057  2.0408  1.0711
37137SOL    HW221342   6.328   0.317   6.257 -0.0642  0.7161 -1.7348
37138SOL     OW21343   8.485   8.442  11.849  0.0154  0.1561 -0.5163
37138SOL    HW121344   8.561   8.384  11.848 -0.9416 -1.2333  1.1490
37138SOL    HW221345   8.516   8.522  11.891  0.7940 -0.0273 -0.7345
37139SOL     OW21346  12.926  11.565  10.037 -0.5182 -0.1417  0.1852
37139SOL    HW121347  12.996  11.544   9.976  0.4116 -1.3502  1.5975
37139SOL    HW221348  12.846  11.556   9.985  0.2911  0.1021 -1.1524
37140SOL     OW21349  10.728  11.812   5.413  0.0767 -0.7340 -0.2997
37140SOL    HW121350  10.686  11.729   5.390  0.8093 -1.1400 -0.1900
37140SOL    HW221351  10.670  11.879   5.377 -1.1784 -1.2500  0.6972
37141SOL     OW21352  11.746  11.225   1.350 -0.2048  0.2826  0.7562
37141SOL    HW121353  11.727  11.317   1.367 -1.8257  0.2155 -0.4529
37141SOL    HW221354  11.803  11.226   1.273  0.7975  0.2944  1.4777
37142SOL     OW21355   5.835   1.267  12.862 -0.2678  0.2187 -0.5146
37142SOL    HW121356   5.780   1.193  12.889 -0.2131  0.3645  0.0155
37142SOL    HW221357   5.786   1.309  12.791  0.8625 -1.8149 -2.6302
37143SOL     OW21358  12.493   9.995   9.182 -0.0716 -0.1055  0.7821
37143SOL    HW121359  12.492   9.931   9.254 -2.4102  1.1357  1.9771
37143SOL    HW221360  12.568  10.051   9.200  1.5860 -1.9721  0.1156
37144SOL     OW21361  10.566   2.854   7.159 -0.7424 -0.1965 -0.0296
37144SOL    HW121362  10.472   2.838   7.149 -1.0997  0.4989  1.8765
37144SOL    HW221363  10.576   2.890   7.247  1.3484 -0.4384 -0.1006
37145SOL     OW21364   4.062   2.059  11.315  0.0261  0.1908 -0.7664
37145SOL    HW121365   4.077   2.148  11.284  1.1355  0.6145  0.8019
37145SOL    HW221366   4.093   2.003  11.244  1.2979  1.0852 -0.9602
37146SOL     OW21367   7.296   6.254   9.798  0.4906 -0.0714 -0.1594
37146SOL    HW121368   7.297   6.278   9.705  0.6819 -0.4591 -0.2610
37146SOL    HW221369   7.299   6.158   9.797  2.0517 -0.0431  0.2721
37147SOL     OW21370   6.828  10.878  11.289 -0.2669  0.3955  0.2407
37147SOL    HW121371   6.802  10.965  11.321  1.9132  1.1045  0.2438
37147SOL    HW221372   6.883  10.842  11.358  1.3420  0.3375 -1.0062
37148SOL     OW21373   1.406   9.356   6.460 -0.3727  0.3743 -0.2684
37148SOL    HW121374   1.498   9.338   6.478 -0.8748 -3.0274 -0.4219
37148SOL    HW221375   1.391   9.443   6.496  3.6341  2.6548 -3.3273
37149SOL     OW21376  12.893  13.143   2.523  0.6302  0.5377  0.0709
37149SOL    HW121377  12.853  13.143   2.436  0.5707  1.0672  0.0950
37149SOL    HW221378  12.985  13.163   2.507  0.4425  1.5408  0.2010
37150SOL     OW21379   5.650   5.538   4.842  0.9065 -0.3253  0.3546
37150SOL    HW121380   5.644   5.622   4.797  0.3196 -0.9565 -0.7845
37150SOL    HW221381   5.574   5.489   4.813  0.5938 -0.8377  1.9265
37151SOL     OW21382   9.130  12.902  10.176 -0.0838  0.1051  0.3459
37151SOL    HW121383   9.150  12.823  10.127  0.2288  0.4256 -0.0518
37151SOL    HW221384   9.044  12.929  10.143  0.2751  0.5110 -0.2935
37152SOL     OW21385   8.781   3.003   9.371 -0.1077 -0.1778 -0.5291
37152SOL    HW121386   8.782   3.098   9.367 -2.1910 -0.1290 -1.7820
37152SOL    HW221387   8.733   2.982   9.452  3.6377 -0.3486  1.8929
37153SOL     OW21388   4.424  11.078  12.537  0.5780 -0.4437 -0.2973
37153SOL    HW121389   4.367  11.001  12.524 -2.6914  1.8386 -0.8592
37153SOL    HW221390   4.459  11.096  12.450  0.5028 -0.7085 -0.3836
37154SOL     OW21391  11.540  13.236   0.386  0.1389 -0.3528 -0.2617
37154SOL    HW121392  11.535  13.221   0.481  2.0161  1.2418  0.1565
37154SOL    HW221393  11.583  13.159   0.352 -2.1997 -1.8051 -0.1529
37155SOL     OW21394   5.736  12.650   5.126 -0.2988 -0.4514 -0.5487
37155SOL    HW121395   5.775  12.599   5.197 -1.3968 -0.5749  0.0007
37155SOL    HW221396   5.796  12.723   5.113 -0.1088 -0.3812  0.5762
37156SOL     OW21397   6.573   0.052   5.925  0.6597 -0.1439  0.5020
37156SOL    HW121398   6.595   0.015   5.839  0.7960  0.3333  0.3282
37156SOL    HW221399   6.501  -0.003   5.956  1.3240 -0.9925  0.5665
37157SOL     OW21400   3.932   2.858   8.936  0.0535  0.5529  0.0865
37157SOL    HW121401   3.916   2.908   8.856  2.3519  0.3764 -0.5676
37157SOL    HW221402   3.929   2.923   9.006 -0.0418  1.0652 -0.3879
37158SOL     OW21403   4.850  11.705   2.191  0.0009 -0.0811  0.6512
37158SOL    HW121404   4.795  11.782   2.205  1.0361  0.6581  0.7523
37158SOL    HW221405   4.937  11.731   2.223  0.8771 -0.5653 -1.2075
37159SOL     OW21406   0.365  12.194   2.304  0.0942 -0.2273  0.0580
37159SOL    HW121407   0.443  12.148   2.273 -0.9372 -0.8068 -1.8360
37159SOL    HW221408   0.382  12.286   2.287  1.1115 -0.1309  1.4463
37160SOL     OW21409   1.547   7.911  11.866  0.1623 -0.3039 -0.1099
37160SOL    HW121410   1.616   7.946  11.810 -0.7754  1.1458 -0.4306
37160SOL    HW221411   1.580   7.922  11.955  0.3483  0.3918 -0.2584
37161SOL     OW21412   3.638  12.795  10.396  0.3078  0.2203  0.1738
37161SOL    HW121413   3.697  12.848  10.342  0.3744 -0.4135 -0.3929
37161SOL    HW221414   3.678  12.708  10.396  1.6542  0.7299  3.2993
37162SOL     OW21415  11.141  12.573   0.373 -0.7566  0.1598 -0.1229
37162SOL    HW121416  11.178  12.608   0.291  1.7628 -0.3436  0.7092
37162SOL    HW221417  11.110  12.486   0.350  0.4370 -0.1979 -0.4768
37163SOL     OW21418   3.599   2.118  12.378  0.8012 -0.2190 -0.0568
37163SOL    HW121419   3.650   2.118  12.297 -0.9487 -0.3198 -1.2104
37163SOL    HW221420   3.559   2.031  12.382  0.1042  0.1092  0.3963
37164SOL     OW21421   2.081   8.042   2.465  0.2866 -0.3435 -0.3982
37164SOL    HW121422   2.125   8.045   2.550 -0.1216  1.5030 -0.2162
37164SOL    HW221423   2.013   7.975   2.476  0.5162 -0.4365  0.5693
37165SOL     OW21424   9.352   6.046   0.624 -0.8554 -0.0282 -0.7387
37165SOL    HW121425   9.329   5.965   0.579  0.5208 -0.6222 -0.4286
37165SOL    HW221426   9.328   6.030   0.715 -1.1030  0.1327 -0.7748
37166SOL     OW21427  10.979   5.646   1.626 -0.1702  0.5029 -0.4547
37166SOL    HW121428  11.062   5.628   1.670 -0.2889  0.2890 -0.3182
37166SOL    HW221429  10.947   5.561   1.599 -1.1120  0.4034  0.8915
37167SOL     OW21430   4.101   5.219   5.952  0.2673 -0.1303  0.1050
37167SOL    HW121431   4.162   5.278   5.996  2.0244 -1.0945 -0.9482
37167SOL    HW221432   4.138   5.132   5.965 -1.3557 -0.8622  0.1438
37168SOL     OW21433   0.450   3.532   6.028  0.2196 -0.2150 -0.4939
37168SOL    HW121434   0.502   3.608   6.054 -0.3171  0.5305 -1.5372
37168SOL    HW221435   0.420   3.552   5.940 -0.6329 -1.2758 -0.4711
37169SOL     OW21436   9.186   0.640   1.994 -0.1059 -0.1358  0.2296
37169SOL    HW121437   9.123   0.578   2.030  1.7535 -1.4039  1.4340
37169SOL    HW221438   9.182   0.716   2.052  0.1165 -0.5844  0.8320
37170SOL     OW21439   9.785  11.808   6.246 -0.1460  0.1883  0.9825
37170SOL    HW121440   9.844  11.878   6.217 -2.8127  1.0578 -3.2117
37170SOL    HW221441   9.724  11.851   6.306  0.0152  0.7506  0.7453
37171SOL     OW21442   8.758  10.501   5.284  0.6389  0.3290 -0.3120
37171SOL    HW121443   8.699  10.577   5.290  1.3013  1.0729 -2.2821
37171SOL    HW221444   8.812  10.506   5.363 -0.2924  1.0758  0.2949
37172SOL     OW21445   5.281   5.984  11.058  0.0876  0.2396 -0.1750
37172SOL    HW121446   5.252   6.075  11.066 -2.0401 -0.4679  0.7623
37172SOL    HW221447   5.231   5.949  10.985 -1.0166 -0.8299  1.0449
37173SOL     OW21448   3.462   3.670  10.292 -0.4200  0.2841 -0.6507
37173SOL    HW121449   3.464   3.749  10.345  0.6834  0.4567 -0.9289
37173SOL    HW221450   3.553   3.654  10.268 -0.7373 -0.5363 -1.3895
37174SOL     OW21451   4.638   1.066   8.247 -0.3952  0.7869 -0.3306
37174SOL    HW121452   4.720   1.058   8.296 -0.6338  1.1556  0.1262
37174SOL    HW221453   4.578   1.004   8.290 -0.0441 -0.2866 -1.3321
37175SOL     OW21454   8.206   9.936   3.588  0.4784 -0.1362 -0.3685
37175SOL    HW121455   8.214   9.880   3.510  4.0676 -1.0578  0.4718
37175SOL    HW221456   8.286   9.988   3.588 -0.6737  1.7650  1.3522
37176SOL     OW21457   8.249   0.592  13.156  0.2002  0.2598 -0.3368
37176SOL    HW121458   8.251   0.618  13.064 -1.0301 -0.5147 -0.6144
37176SOL    HW221459   8.340   0.570  13.177  0.3600 -0.4559 -1.6497
37177SOL     OW21460   9.190   9.979   3.811 -0.5171 -0.4020  0.0837
37177SOL    HW121461   9.223  10.004   3.897  1.0278 -1.8326 -0.0454
37177SOL    HW221462   9.111   9.928   3.829 -1.3226  0.9438  0.5201
37178SOL     OW21463   7.733   7.055  11.761  0.1886  0.5121  0.7562
37178SOL    HW121464   7.706   7.147  11.763  1.2788  0.9253 -1.1057
37178SOL    HW221465   7.821   7.054  11.798  0.6147  0.4257 -0.2174
37179SOL     OW21466   4.380  12.355   6.380  0.3577 -0.0475 -0.1463
37179SOL    HW121467   4.398  12.422   6.314  0.2239  0.3684  0.2370
37179SOL    HW221468   4.286  12.357   6.392  0.2807 -0.7271 -0.5659
37180SOL     OW21469   1.422   5.694   7.837  0.1227  0.0492  0.3122
37180SOL    HW121470   1.357   5.763   7.843 -1.0665 -0.7853 -1.9033
37180SOL    HW221471   1.388   5.625   7.894 -1.5295 -0.7512 -1.5193
37181SOL     OW21472   6.206   4.459   1.556  0.0926 -0.0983  0.1996
37181SOL    HW121473   6.277   4.497   1.505  0.8945 -1.9720 -0.1621
37181SOL    HW221474   6.126   4.495   1.517  0.7508 -0.0978 -1.2086
37182SOL     OW21475   5.165   9.224   1.355  0.2687 -0.1444  0.1450
37182SOL    HW121476   5.193   9.160   1.290  1.4749  1.2322 -0.7726
37182SOL    HW221477   5.222   9.208   1.430  0.2143 -0.4876  0.1127
37183SOL     OW21478  10.844   9.122   7.979 -0.0565 -0.4684 -0.1807
37183SOL    HW121479  10.862   9.081   8.063 -0.4781 -0.0507  0.1201
37183SOL    HW221480  10.750   9.111   7.967 -0.0573 -0.2001 -0.4240
37184SOL     OW21481   1.762  12.180   3.518 -0.1291 -0.3999 -0.6082
37184SOL    HW121482   1.836  12.232   3.551  1.9180 -1.3521 -3.2801
37184SOL    HW221483   1.718  12.148   3.597  2.1115  0.4935  1.1235
37185SOL     OW21484   8.396  11.587   4.070  0.0416  0.0972  0.2604
37185SOL    HW121485   8.334  11.603   4.141  1.2042  0.9217  1.1268
37185SOL    HW221486   8.472  11.547   4.112  0.8921  0.9248 -0.4356
37186SOL     OW21487   0.366   8.830   7.515 -0.5892  0.5577 -0.0716
37186SOL    HW121488   0.459   8.806   7.524 -0.7726  0.2557  1.2193
37186SOL    HW221489   0.329   8.763   7.458 -0.1637  0.2597 -0.0021
37187SOL     OW21490   3.856   1.800   7.496 -0.2151  0.6166  0.0310
37187SOL    HW121491   3.828   1.792   7.405  0.5309 -1.0333 -0.0930
37187SOL    HW221492   3.775   1.799   7.547 -0.5703 -2.0948 -0.4301
37188SOL     OW21493   4.065   1.092   6.916  0.1769 -0.2455  0.5165
37188SOL    HW121494   4.126   1.125   6.850  2.2560 -3.2416  0.7452
37188SOL    HW221495   4.040   1.170   6.966  3.0328  1.3158 -0.2269
37189SOL     OW21496   0.296  11.665   3.437 -0.3967  0.5807 -0.1598
37189SOL    HW121497   0.382  11.646   3.400 -0.4152  0.6369 -0.2300
37189SOL    HW221498   0.250  11.713   3.369 -0.7491 -0.0880 -0.4022
37190SOL     OW21499  11.460   2.259   2.057  0.1157 -0.3171  0.3101
37190SOL    HW121500  11.375   2.216   2.050 -0.1111  0.1721  0.0223
37190SOL    HW221501  11.481   2.286   1.968  1.8189 -2.7414 -0.1298
37191SOL     OW21502   8.205   6.993   4.520  0.8760  0.1948 -0.0904
37191SOL    HW121503   8.160   6.912   4.495  0.4915  0.1487  0.7194
37191SOL    HW221504   8.136   7.050   4.554  1.1780  0.7748 -0.4308
37192SOL     OW21505   1.794   9.768   2.395 -0.3315  0.0973  0.2275
37192SOL    HW121506   1.858   9.833   2.423 -0.3649  1.0345 -1.7332
37192SOL    HW221507   1.817   9.689   2.443  2.2727  0.4143 -0.3655
37193SOL     OW21508   7.177  11.555   0.001  0.2975  0.0018 -0.1966
37193SOL    HW121509   7.111  11.618   0.029 -0.8310 -0.9459 -0.6610
37193SOL    HW221510   7.174  11.486   0.067  0.5954 -0.2084 -0.3984
37194SOL     OW21511   2.461   5.345  13.233 -0.5637  0.3724  0.6616
37194SOL    HW121512   2.498   5.311  13.314 -2.5959 -1.5710  0.8608
37194SOL    HW221513   2.523   5.412  13.205  2.2844 -1.5921  1.7366
37195SOL     OW21514   0.241   6.239   4.410  0.0364 -0.1571  0.5179
37195SOL    HW121515   0.151   6.208   4.423 -0.4585  1.3453  0.9237
37195SOL    HW221516   0.272   6.193   4.332  0.1694 -3.3080  2.2981
37196SOL     OW21517   6.256   0.539  10.420 -0.4893  0.0632 -0.0009
37196SOL    HW121518   6.202   0.462  10.441 -1.1287  1.0106  2.1727
37196SOL    HW221519   6.197   0.613  10.433  0.4305  0.9799 -0.9520
37197SOL     OW21520   2.456   3.323   4.696  0.0728 -0.0645 -0.1897
37197SOL    HW121521   2.422   3.335   4.785 -0.8843 -0.1010 -0.5388
37197SOL    HW221522   2.400   3.378   4.641  0.8977  0.2593 -0.7258
37198SOL     OW21523   0.484   7.111   5.097 -0.0883  0.4108  0.2303
37198SOL    HW121524   0.558   7.062   5.060 -1.8458 -1.3253 -1.2105
37198SOL    HW221525   0.525   7.178   5.152  2.5488 -0.1990 -0.8244
37199SOL     OW21526   1.603   5.666   6.680 -0.0311 -0.0585  0.4345
37199SOL    HW121527   1.560   5.691   6.598 -0.6272 -3.4248 -0.4357
37199SOL    HW221528   1.582   5.737   6.741  0.0979  2.3865 -2.1321
37200SOL     OW21529   2.717   7.748   1.509 -0.0263 -0.3757  0.2018
37200SOL    HW121530   2.636   7.796   1.496  0.7543  0.6672 -1.0323
37200SOL    HW221531   2.705   7.703   1.593 -1.6733  0.1249  0.2700
37201SOL     OW21532   0.908   2.050   5.458 -0.7458  0.2013 -0.1056
37201SOL    HW121533   0.887   2.131   5.505 -0.3654  0.0008  0.4254
37201SOL    HW221534   1.004   2.048   5.458 -0.7402  0.1639 -0.8453
37202SOL     OW21535   5.402   4.718  12.904  0.8392 -0.5905 -0.1823
37202SOL    HW121536   5.455   4.717  12.825 -0.1522 -0.0904 -0.8827
37202SOL    HW221537   5.411   4.631  12.941  2.3630 -0.4345 -0.1133
37203SOL     OW21538   5.958  11.431   5.659  0.1651  0.2031 -0.2347
37203SOL    HW121539   5.880  11.465   5.703 -1.4224 -1.3130 -1.7312
37203SOL    HW221540   5.937  11.437   5.566  2.5606  1.3195 -0.7703
37204SOL     OW21541   8.606   1.260   5.491 -0.2022  0.2343 -0.6211
37204SOL    HW121542   8.590   1.347   5.528 -0.4078 -0.3307  0.6620
37204SOL    HW221543   8.655   1.213   5.559  0.8498 -0.3281 -1.7179
37205SOL     OW21544   7.581   7.902  11.167  0.4053  0.7852 -0.1242
37205SOL    HW121545   7.636   7.857  11.103 -0.5649 -1.8539  0.7661
37205SOL    HW221546   7.523   7.958  11.115 -0.4127 -1.3340 -1.6148
37206SOL     OW21547   0.451   4.927  11.226 -0.1639 -0.7216  0.4124
37206SOL    HW121548   0.392   4.856  11.202 -0.9716  0.3132 -0.7757
37206SOL    HW221549   0.535   4.884  11.244 -0.3884 -1.8954 -1.1622
37207SOL     OW21550  12.823   2.196   1.612  0.3884 -0.1712  0.0638
37207SOL    HW121551  12.873   2.274   1.635 -0.2210 -0.3708  2.3222
37207SOL    HW221552  12.887   2.138   1.572  1.5160  0.3982  0.9665
37208SOL     OW21553  11.732   4.578   0.786 -0.1950 -0.3303 -0.0462
37208SOL    HW121554  11.678   4.656   0.798  0.0624 -0.3472  1.3719
37208SOL    HW221555  11.791   4.600   0.714 -0.4024  0.6363  0.0697
37209SOL     OW21556   3.910   8.816   1.199  0.1572 -0.3622  0.5729
37209SOL    HW121557   3.983   8.878   1.187  0.2994 -0.3164  1.5430
37209SOL    HW221558   3.859   8.822   1.119 -0.6684  2.1395  1.2031
37210SOL     OW21559   8.264   2.331   2.945 -0.3268  0.2446 -0.2600
37210SOL    HW121560   8.352   2.310   2.976 -0.6018 -2.2710 -0.9241
37210SOL    HW221561   8.273   2.417   2.904  1.4489  0.7412  1.0290
37211SOL     OW21562   1.094   6.635  11.422 -0.0527  0.0306 -0.7561
37211SOL    HW121563   1.127   6.647  11.333  1.3325  0.0510 -0.2543
37211SOL    HW221564   1.094   6.722  11.460  0.8598 -0.1847 -0.2372
37212SOL     OW21565   9.571   7.039   8.912  0.1877  0.0924  0.2950
37212SOL    HW121566   9.560   7.134   8.913 -0.6109  0.0274  2.2506
37212SOL    HW221567   9.666   7.026   8.919  0.2123  0.8009  1.8499
37213SOL     OW21568   8.157   6.450   4.879  0.1111  0.3885  0.2908
37213SOL    HW121569   8.064   6.445   4.858  0.0385 -1.6287  0.9460
37213SOL    HW221570   8.165   6.408   4.965  1.9098 -1.5947 -0.7502
37214SOL     OW21571  12.183  10.489  13.294  0.2604  0.4676  0.1241
37214SOL    HW121572  12.142  10.425  13.352 -0.4672  0.1342 -0.7297
37214SOL    HW221573  12.249  10.438  13.246  0.3962  0.5914  0.1800
37215SOL     OW21574   3.033  11.043  11.950 -0.3603  0.0046  0.7167
37215SOL    HW121575   2.996  10.970  11.901 -0.5306  0.2345  0.4998
37215SOL    HW221576   3.127  11.035  11.938 -0.4163  0.2798  0.0298
37216SOL     OW21577   6.669   0.591   6.296 -0.2489  0.3723 -0.2922
37216SOL    HW121578   6.715   0.508   6.283  1.5812  1.4214 -0.8657
37216SOL    HW221579   6.579   0.566   6.316  0.5048 -1.7853  0.6996
37217SOL     OW21580   4.673   1.816   1.951 -0.0774  0.0540 -0.0023
37217SOL    HW121581   4.684   1.819   1.856  1.1652  1.8746  0.1728
37217SOL    HW221582   4.759   1.834   1.987 -0.1488 -2.2053  1.5394
37218SOL     OW21583   7.155   9.063   6.626 -0.2955  0.1916  0.0762
37218SOL    HW121584   7.150   8.995   6.693 -2.7142 -0.6670 -0.8633
37218SOL    HW221585   7.166   9.144   6.676 -2.2596 -0.3959  1.5928
37219SOL     OW21586   9.929  10.943   2.342  0.1555  0.0020  0.0348
37219SOL    HW121587   9.906  11.021   2.392 -0.5565 -0.6942  0.8282
37219SOL    HW221588   9.928  10.872   2.407  0.6953 -0.6823 -0.6871
37220SOL     OW21589   3.889  10.609   0.692  0.3993  0.3490  0.1672
37220SOL    HW121590   3.805  10.567   0.674  0.8052 -0.7960  0.8411
37220SOL    HW221591   3.867  10.686   0.745 -0.4267  1.5158 -1.7791
37221SOL     OW21592  12.392   4.732   4.140 -0.3122  0.0758  0.3955
37221SOL    HW121593  12.415   4.730   4.047 -0.4188  3.3663  0.1538
37221SOL    HW221594  12.297   4.720   4.141 -0.6843  2.3357 -0.2775
37222SOL     OW21595   1.191   7.523   3.529  0.2151 -0.3331 -0.4131
37222SOL    HW121596   1.252   7.524   3.603  1.0433 -0.8987 -1.0830
37222SOL    HW221597   1.122   7.462   3.556 -0.0830  0.3276  0.3555
37223SOL     OW21598   4.576   2.711   1.106  0.2748  0.0515 -0.5509
37223SOL    HW121599   4.641   2.781   1.096  0.1518  0.1805 -0.4557
37223SOL    HW221600   4.620   2.645   1.159  0.3603  0.1012 -0.5600
37224SOL     OW21601  11.311   5.053   8.794 -0.0538 -0.6445  0.0050
37224SOL    HW121602  11.289   5.043   8.702  0.3339 -0.9297 -0.0571
37224SOL    HW221603  11.383   5.115   8.796  0.3954 -1.1598  0.0595
37225SOL     OW21604  11.147  12.684   5.399  0.3656 -0.1135 -0.1046
37225SOL    HW121605  11.241  12.690   5.414  0.1806  0.8872  0.8043
37225SOL    HW221606  11.108  12.682   5.486 -0.4676 -0.3710 -0.4671
37226SOL     OW21607   4.233  10.723   6.594  0.4420  0.0020  0.1076
37226SOL    HW121608   4.215  10.745   6.686  1.0721 -2.7630  0.9852
37226SOL    HW221609   4.146  10.722   6.553  0.0648  0.4712  0.8692
37227SOL     OW21610   4.504   9.419   0.878  0.2231  0.6382 -0.3778
37227SOL    HW121611   4.523   9.329   0.852  0.9328  0.3737  0.9187
37227SOL    HW221612   4.412   9.432   0.858  0.3522 -0.0503 -1.4619
37228SOL     OW21613   1.997   7.512   8.613 -0.1398 -0.1150 -0.1531
37228SOL    HW121614   2.060   7.567   8.660 -0.6178  0.0808  0.2663
37228SOL    HW221615   1.922   7.569   8.596  1.1654  0.8026 -3.9160
37229SOL     OW21616   9.029   6.641   7.264  0.0386 -0.2614 -0.3664
37229SOL    HW121617   8.995   6.675   7.181  0.2966  1.3679  0.1500
37229SOL    HW221618   9.123   6.660   7.260 -0.2652  1.8930  1.1710
37230SOL     OW21619   8.585   9.477   3.766 -0.2246 -0.1469  0.2013
37230SOL    HW121620   8.599   9.527   3.686  0.9412 -0.8636 -0.0602
37230SOL    HW221621   8.610   9.387   3.744 -0.3329 -0.4470  1.2266
37231SOL     OW21622   2.523   6.036   5.330  0.3780  0.3645  0.3792
37231SOL    HW121623   2.477   6.118   5.314  0.8908  0.5021 -0.4621
37231SOL    HW221624   2.558   6.011   5.245  1.2189 -0.1248  0.8540
37232SOL     OW21625   8.327  11.145   3.759  0.0534  0.3453 -0.3128
37232SOL    HW121626   8.321  11.176   3.669 -1.6784  0.3635 -0.2250
37232SOL    HW221627   8.321  11.224   3.812  0.6400  0.2909 -0.1516
37233SOL     OW21628   7.690   0.244   7.446  0.1214  0.3373  0.3718
37233SOL    HW121629   7.714   0.280   7.532  1.1303  0.2768  0.1285
37233SOL    HW221630   7.742   0.294   7.384  0.7289 -0.7924 -0.0549
37234SOL     OW21631   3.493   9.053  10.529  0.0417 -0.0695 -0.1827
37234SOL    HW121632   3.439   9.062  10.608  0.6319 -1.5559  0.4319
37234SOL    HW221633   3.562   8.991  10.555  1.6379  1.2354 -1.1552
37235SOL     OW21634  10.582  11.962   6.054  0.0077 -0.2322 -0.0443
37235SOL    HW121635  10.635  11.999   5.984 -0.2697 -0.2869 -0.2859
37235SOL    HW221636  10.571  12.035   6.116 -0.6555  0.1433 -0.5870
37236SOL     OW21637   1.228   3.984  11.777  0.5604  0.0067 -0.3083
37236SOL    HW121638   1.280   4.050  11.732  0.8262  0.3212  0.4362
37236SOL    HW221639   1.150   4.031  11.807  0.5113 -0.1343 -0.2110
37237SOL     OW21640  11.558  10.322   6.102 -0.2076 -0.0500 -0.2057
37237SOL    HW121641  11.484  10.286   6.151 -0.0761 -0.4279 -0.2822
37237SOL    HW221642  11.551  10.282   6.015  0.7930 -1.0509  0.1533
37238SOL     OW21643  12.229  10.307  10.716  0.0125 -0.2002  0.3358
37238SOL    HW121644  12.270  10.223  10.736 -1.0468 -0.8249 -0.0064
37238SOL    HW221645  12.189  10.334  10.798  0.2031 -0.1219  0.4022
37239SOL     OW21646   5.410  12.701   3.713 -0.0580  0.4506  0.5222
37239SOL    HW121647   5.355  12.747   3.649  0.6511  2.1700  1.0762
37239SOL    HW221648   5.355  12.692   3.791 -1.0828 -2.0664 -0.4067
37240SOL     OW21649   4.080   7.013  10.480 -0.0303 -0.0275  0.5262
37240SOL    HW121650   4.108   7.100  10.507 -1.9017  0.6224  0.5384
37240SOL    HW221651   3.988   7.023  10.458 -1.1450 -2.5461  3.2235
37241SOL     OW21652  10.794   2.822  10.423 -0.7022  0.3688 -0.2183
37241SOL    HW121653  10.882   2.823  10.462 -0.5258  0.4257 -0.6086
37241SOL    HW221654  10.743   2.881  10.477 -0.8396 -0.6208  0.7826
37242SOL     OW21655   4.147  10.766   6.110  0.0711  0.0912 -0.0163
37242SOL    HW121656   4.058  10.801   6.110  0.3844  0.9004  0.6133
37242SOL    HW221657   4.175  10.773   6.019 -0.5606 -0.3058 -0.2462
37243SOL     OW21658   9.450   5.058  12.470 -0.1580 -0.7810  0.1722
37243SOL    HW121659   9.378   5.032  12.413  0.2366 -0.9383 -0.2585
37243SOL    HW221660   9.410   5.063  12.557 -1.5291  2.4362 -0.4960
37244SOL     OW21661  11.511   3.404   4.146 -0.8597 -0.2814 -0.2913
37244SOL    HW121662  11.460   3.477   4.111 -1.7988 -0.1955  1.1732
37244SOL    HW221663  11.508   3.416   4.241  2.3219 -0.0010 -0.1055
37245SOL     OW21664   1.529  12.430   0.880  0.1871 -0.1719  0.3528
37245SOL    HW121665   1.492  12.345   0.905 -0.1687 -0.4222 -0.9285
37245SOL    HW221666   1.474  12.494   0.924 -0.8459 -0.5808 -0.3068
37246SOL     OW21667   5.246   4.228  10.524  0.3178  0.1506 -0.1294
37246SOL    HW121668   5.202   4.200  10.604  0.8662  0.6160  0.3401
37246SOL    HW221669   5.338   4.208  10.539  0.4545  0.4636 -0.5524
37247SOL     OW21670  11.141   4.811   4.172 -0.0396 -0.1130  0.1179
37247SOL    HW121671  11.103   4.787   4.256 -1.9038 -1.9621 -1.1574
37247SOL    HW221672  11.106   4.746   4.110  1.5380  0.9541 -2.0272
37248SOL     OW21673   6.935   8.857   5.679 -0.5715  0.2664 -0.1760
37248SOL    HW121674   7.016   8.889   5.639 -0.7055 -0.2445 -0.8602
37248SOL    HW221675   6.877   8.838   5.605 -0.7669 -0.8312  0.2452
37249SOL     OW21676   4.768   5.011  11.329  0.3840  0.6884  0.3119
37249SOL    HW121677   4.680   4.976  11.343  0.4458  0.3140 -0.1861
37249SOL    HW221678   4.765   5.049  11.241  1.5175 -2.0499 -1.0645
37250SOL     OW21679   9.643   2.904  12.475  0.6662 -0.1657 -0.3622
37250SOL    HW121680   9.642   2.813  12.447  1.0410 -1.2114  2.6616
37250SOL    HW221681   9.724   2.913  12.526 -1.4085  0.5037  3.1307
37251SOL     OW21682   3.646   8.428   9.992 -0.2870  0.3268  0.0174
37251SOL    HW121683   3.713   8.494  10.011  1.2902 -1.1470 -0.1826
37251SOL    HW221684   3.585   8.472   9.933  0.8486  1.5459 -0.2993
37252SOL     OW21685   3.588   5.648   2.580 -0.2568 -0.2691 -0.1372
37252SOL    HW121686   3.495   5.630   2.574 -1.0116  3.3079 -1.8643
37252SOL    HW221687   3.625   5.613   2.499 -0.4919  0.0593 -0.3901
37253SOL     OW21688   5.782  10.021   6.892  0.2251 -0.3195 -0.4311
37253SOL    HW121689   5.846  10.004   6.961  0.6689 -2.3345 -1.2712
37253SOL    HW221690   5.710   9.960   6.910 -0.6189  0.5967 -0.5850
37254SOL     OW21691   3.217  10.718   7.814 -0.1462 -0.0313  0.1532
37254SOL    HW121692   3.123  10.724   7.825 -0.4809 -1.1089 -1.6149
37254SOL    HW221693   3.237  10.625   7.823  0.9788  0.3221  1.8114
37255SOL     OW21694  12.683   6.107  10.510  0.1357 -0.1891 -0.0932
37255SOL    HW121695  12.759   6.163  10.493  0.0134 -0.2613 -0.9149
37255SOL    HW221696  12.610   6.153  10.469  0.1519 -1.2879 -1.3988
37256SOL     OW21697   5.620   2.959   9.110 -0.5667  0.2502 -0.5927
37256SOL    HW121698   5.579   2.877   9.137 -1.2568  0.5329 -0.7577
37256SOL    HW221699   5.553   3.003   9.057 -0.9566  1.8126  1.1086
37257SOL     OW21700  10.836   4.952  10.823 -0.4935  0.5219  0.4124
37257SOL    HW121701  10.877   4.881  10.873 -1.6748 -0.6911 -0.2562
37257SOL    HW221702  10.909   5.006  10.794  0.4151 -0.1682  1.3219
37258SOL     OW21703   4.758   8.732   5.971 -0.5026  0.1077  0.1477
37258SOL    HW121704   4.784   8.788   5.898 -0.9665 -1.6128 -1.4082
37258SOL    HW221705   4.781   8.643   5.943  0.5823 -0.5283  2.6808
37259SOL     OW21706   9.116  11.388   2.397 -0.5654 -0.4567 -0.4507
37259SOL    HW121707   9.030  11.383   2.355  0.0825 -0.4453 -1.8472
37259SOL    HW221708   9.147  11.298   2.399  0.0565 -0.2773 -1.4463
37260SOL     OW21709   2.170  10.209   6.918  0.0826 -0.1297  0.4768
37260SOL    HW121710   2.130  10.125   6.895  1.9355 -1.1241  0.7593
37260SOL    HW221711   2.240  10.187   6.979  1.0064  1.5564  0.0741
37261SOL     OW21712   4.483   7.505  10.174  0.0134  0.2703 -0.1450
37261SOL    HW121713   4.565   7.490  10.126 -0.4602  0.6461 -1.1024
37261SOL    HW221714   4.435   7.567  10.119 -0.1074  1.5698  1.3494
37262SOL     OW21715  13.141  13.295  10.308 -0.0596 -0.0361  0.3225
37262SOL    HW121716  13.143  13.228  10.239 -2.4771 -0.1291  0.2713
37262SOL    HW221717  13.049  13.301  10.333  0.5280  1.1842  2.4122
37263SOL     OW21718  11.451   6.076   1.434  0.3188 -0.0430 -0.0236
37263SOL    HW121719  11.530   6.035   1.469  0.4363  0.2483  0.0565
37263SOL    HW221720  11.477   6.113   1.350 -0.0604 -1.0732 -0.6132
37264SOL     OW21721   7.176   1.525   2.374  0.5407  0.0738  0.3095
37264SOL    HW121722   7.122   1.603   2.359  1.7403  0.9315  0.3548
37264SOL    HW221723   7.253   1.558   2.421  0.7978 -1.2340  0.8423
37265SOL     OW21724   6.369   9.632  10.873 -0.1479  0.6596  0.3436
37265SOL    HW121725   6.439   9.671  10.821  0.1210  1.8228  1.5105
37265SOL    HW221726   6.414   9.573  10.934 -0.5120 -1.1683 -1.0843
37266SOL     OW21727   5.263   3.576  12.582 -0.0544  0.3969 -0.5611
37266SOL    HW121728   5.192   3.583  12.645 -0.7878 -0.7115 -1.2454
37266SOL    HW221729   5.335   3.535  12.632 -0.0566  1.0355 -0.0161
37267SOL     OW21730   5.952   2.570   0.020  0.6139  0.8270 -0.4900
37267SOL    HW121731   5.997   2.589  -0.062 -0.0615  1.4165 -0.7410
37267SOL    HW221732   5.859   2.565  -0.005  0.4158  0.9119  0.2139
37268SOL     OW21733   4.732   9.690   0.706 -0.4368  0.1247 -0.3385
37268SOL    HW121734   4.657   9.749   0.693  0.6324  1.7597  0.5410
37268SOL    HW221735   4.759   9.666   0.617 -1.7286 -0.1343 -0.6732
37269SOL     OW21736  13.216  11.337  10.117  0.2145 -0.5000 -0.1561
37269SOL    HW121737  13.279  11.291  10.173 -0.5136 -0.6636  0.5499
37269SOL    HW221738  13.268  11.371  10.044  1.2106 -0.1164  0.7217
37270SOL     OW21739   0.010   8.372   8.919 -0.0668  0.0885 -0.1682
37270SOL    HW121740  -0.081   8.346   8.936  0.3448 -0.2765  1.6660
37270SOL    HW221741   0.042   8.404   9.003  1.6055 -0.0775 -0.7102
37271SOL     OW21742   3.691   5.162  12.893 -0.3363 -0.3678 -0.0028
37271SOL    HW121743   3.656   5.220  12.826 -0.7046  0.2921  0.7522
37271SOL    HW221744   3.621   5.098  12.909  0.5649 -1.9328 -1.8232
37272SOL     OW21745   6.135   8.575   9.821 -0.2492  0.5761 -0.5109
37272SOL    HW121746   6.080   8.511   9.867  1.3621  0.7248  1.7835
37272SOL    HW221747   6.106   8.570   9.730 -1.4336 -2.0747 -0.0803
37273SOL     OW21748  13.002  10.619   1.611  0.0187 -0.0382  0.1969
37273SOL    HW121749  13.057  10.696   1.628  0.5312 -0.5251  0.7632
37273SOL    HW221750  12.953  10.643   1.532  1.0404  0.4081 -0.3316
37274SOL     OW21751  10.435   2.008   6.122 -0.2553  0.0839 -0.0336
37274SOL    HW121752  10.425   2.081   6.183 -0.8608 -0.7538  0.9111
37274SOL    HW221753  10.405   2.042   6.038 -2.4008  0.3900  0.7948
37275SOL     OW21754   9.531  11.278   1.395 -0.0297  0.1425  0.1431
37275SOL    HW121755   9.512  11.206   1.335  0.8808 -0.3403  0.4198
37275SOL    HW221756   9.486  11.255   1.476 -0.5046  0.3507 -0.0533
37276SOL     OW21757   1.053   9.185  10.874  0.2238 -0.6157 -0.6311
37276SOL    HW121758   0.984   9.249  10.888 -0.4608 -1.5824  0.6528
37276SOL    HW221759   1.020   9.129  10.804  0.9652  0.5820 -1.9835
37277SOL     OW21760  11.337   7.680   6.237 -0.1724 -0.3960  0.0403
37277SOL    HW121761  11.431   7.666   6.235  0.0247  0.7710  0.3741
37277SOL    HW221762  11.303   7.616   6.299  0.6101  0.2169  1.1281
37278SOL     OW21763   4.180   7.001   2.117 -0.6663 -0.0150 -0.2482
37278SOL    HW121764   4.229   7.082   2.102 -0.9649  0.4745  1.2886
37278SOL    HW221765   4.227   6.957   2.188 -1.4137 -0.4202  0.0060
37279SOL     OW21766   3.658   4.302   6.588 -0.2827 -0.1133  0.4477
37279SOL    HW121767   3.604   4.279   6.663 -0.8965 -1.1252 -0.2789
37279SOL    HW221768   3.616   4.380   6.551 -0.6653 -0.3093  0.4671
37280SOL     OW21769  12.000   8.008   9.985  0.1073 -0.3000  0.6459
37280SOL    HW121770  11.960   8.093   9.965 -2.0209 -1.4093 -0.2303
37280SOL    HW221771  12.003   8.005  10.080 -0.8783  0.3081  0.7131
37281SOL     OW21772   5.123   0.253   2.683  1.3924 -0.3684 -0.2128
37281SOL    HW121773   5.193   0.311   2.712 -0.0368  0.5796  1.5854
37281SOL    HW221774   5.051   0.312   2.660  0.5659 -1.3536 -0.2255
37282SOL     OW21775   2.917   7.249  10.517 -0.9138 -0.1365  0.1547
37282SOL    HW121776   2.871   7.283  10.440  1.3941  1.6569 -0.5732
37282SOL    HW221777   2.946   7.162  10.492  0.3866  0.6827 -1.3348
37283SOL     OW21778   6.792  12.444  11.557  0.3352  0.5473 -0.4457
37283SOL    HW121779   6.849  12.435  11.481  0.8861  1.4657 -0.1548
37283SOL    HW221780   6.715  12.391  11.536  1.6626 -1.4854 -0.4535
37284SOL     OW21781  10.598  11.460   8.580  0.0420 -0.4272 -0.5740
37284SOL    HW121782  10.551  11.427   8.503 -1.1904 -0.4704  0.1707
37284SOL    HW221783  10.618  11.382   8.631  3.1534 -0.7021 -2.0226
37285SOL     OW21784  10.728  10.890  11.936  0.4366 -0.0796  0.3800
37285SOL    HW121785  10.764  10.976  11.960 -1.2666  0.8930 -0.3892
37285SOL    HW221786  10.634  10.900  11.944 -0.0053 -0.9831 -2.3982
37286SOL     OW21787   5.675   6.891   4.330  0.2630  0.1448  0.2734
37286SOL    HW121788   5.700   6.983   4.339 -0.6188  0.3006  1.2466
37286SOL    HW221789   5.579   6.892   4.327  0.1925 -0.8173  1.4042
37287SOL     OW21790   2.879  10.214   6.974 -0.1185  0.2253  0.3114
37287SOL    HW121791   2.925  10.200   6.891 -1.1214  2.5769 -0.7147
37287SOL    HW221792   2.838  10.130   6.993  1.5914 -0.8891 -0.5963
37288SOL     OW21793   6.291  12.925   8.327  0.1944  0.1277  0.8650
37288SOL    HW121794   6.319  13.005   8.283 -1.8462  1.4101  1.7376
37288SOL    HW221795   6.264  12.954   8.414 -0.1610 -1.6053  1.3701
37289SOL     OW21796   3.484   2.886  10.715 -0.0803  0.3612 -0.1669
37289SOL    HW121797   3.549   2.820  10.691 -0.0506 -0.0184  0.8748
37289SOL    HW221798   3.487   2.887  10.811 -2.6130 -0.7131 -0.0016
37290SOL     OW21799   8.889  10.567  13.216 -0.6557  0.6612  0.0233
37290SOL    HW121800   8.905  10.620  13.293  0.4786  1.5917 -0.8142
37290SOL    HW221801   8.795  10.552  13.215 -0.5669 -0.4962  2.2798
37291SOL     OW21802   4.776   7.107   2.713 -0.3066 -0.2612 -0.1623
37291SOL    HW121803   4.699   7.091   2.658 -0.1832 -2.2166  0.1869
37291SOL    HW221804   4.829   7.028   2.705  2.2176  1.3850 -1.1985
37292SOL     OW21805  10.566   8.570   6.682  0.7289 -0.5982 -0.3437
37292SOL    HW121806  10.561   8.547   6.589 -0.1399 -0.2664 -0.3890
37292SOL    HW221807  10.550   8.664   6.684  0.5550 -0.6378  0.1585
37293SOL     OW21808   7.321   6.077  11.776 -0.2587  0.1331  0.0967
37293SOL    HW121809   7.310   6.098  11.684 -0.3171 -0.6215 -0.0775
37293SOL    HW221810   7.331   6.161  11.820  0.1360  0.4710 -0.6461
37294SOL     OW21811   5.544  10.926  11.706  0.1019 -0.0797  0.0764
37294SOL    HW121812   5.602  10.853  11.681 -0.2765 -0.4439  0.2453
37294SOL    HW221813   5.478  10.929  11.636  0.1481  0.1379  0.0414
37295SOL     OW21814  13.203   9.252   7.733 -0.1486 -0.3739  0.0640
37295SOL    HW121815  13.143   9.325   7.744  2.4592  1.4633  4.4272
37295SOL    HW221816  13.236   9.261   7.643 -2.8601  1.2041 -0.8964
37296SOL     OW21817   6.321   7.407   6.741  0.1383  0.6903 -0.7197
37296SOL    HW121818   6.264   7.382   6.669  0.4567 -1.5945 -0.2500
37296SOL    HW221819   6.292   7.354   6.815 -0.2762  3.0721  0.9355
37297SOL     OW21820   4.447   8.420   3.544 -0.1276  0.2492  1.3600
37297SOL    HW121821   4.518   8.439   3.483 -1.6928 -1.6494 -1.2615
37297SOL    HW221822   4.489   8.374   3.617  1.1499 -3.7750 -1.5647
37298SOL     OW21823   8.529  12.010   1.782  0.6350 -0.0629  0.1960
37298SOL    HW121824   8.598  12.044   1.725  1.1158 -0.9973  0.2127
37298SOL    HW221825   8.517  12.078   1.849  0.0520  1.0590 -1.0011
37299SOL     OW21826   5.698   3.772   3.858  0.2347 -0.2176  0.0544
37299SOL    HW121827   5.714   3.852   3.808 -2.7419  0.5172  0.0925
37299SOL    HW221828   5.740   3.788   3.943 -0.9689  1.7349  0.3499
37300SOL     OW21829  12.671   9.878   4.439 -0.2595 -0.4429  0.8373
37300SOL    HW121830  12.696   9.970   4.438 -1.3944  0.0459 -3.7502
37300SOL    HW221831  12.577   9.878   4.458 -0.2230 -0.6731  1.0220
37301SOL     OW21832   2.201   8.011  12.235  0.5149 -0.5828  0.0768
37301SOL    HW121833   2.219   8.000  12.142  0.5386 -1.2769  0.1628
37301SOL    HW221834   2.196   8.106  12.247 -0.0662 -0.4990 -0.7436
37302SOL     OW21835   4.096  11.076  12.744 -0.2995 -0.1847 -0.6702
37302SOL    HW121836   4.143  11.039  12.819 -2.9063 -0.2066  1.0719
37302SOL    HW221837   4.039  11.005  12.715 -2.1913  0.9941 -0.0631
37303SOL     OW21838   8.689  10.660   3.933  0.3765  0.3102 -0.5449
37303SOL    HW121839   8.645  10.737   3.896  0.4604  1.1964  1.1022
37303SOL    HW221840   8.655  10.653   4.023  2.4941  0.1774  0.3129
37304SOL     OW21841   0.491  13.079   1.285 -0.6564  0.0584  0.1178
37304SOL    HW121842   0.477  12.993   1.324 -0.4849 -0.0871 -0.1380
37304SOL    HW221843   0.409  13.127   1.302 -0.7291 -0.1331  0.3097
37305SOL     OW21844   9.372   7.211  13.073 -0.0747 -0.6352  0.0262
37305SOL    HW121845   9.447   7.263  13.041 -0.0537 -1.5796 -1.5820
37305SOL    HW221846   9.341   7.258  13.150  1.9755 -0.0331  0.5468
37306SOL     OW21847   2.022   8.827  11.101  0.1198  0.2241 -0.4146
37306SOL    HW121848   1.936   8.843  11.064 -0.4912  0.8358  1.1547
37306SOL    HW221849   2.041   8.905  11.153  1.8570  0.3276 -1.1346
37307SOL     OW21850   1.523  12.171   7.165  0.5535  0.2999 -0.1705
37307SOL    HW121851   1.590  12.195   7.229  1.1145  1.4211 -1.1216
37307SOL    HW221852   1.572  12.134   7.091 -0.0391 -0.5275 -0.1651
37308SOL     OW21853  12.642  10.341   0.291  0.7371 -0.1098 -0.3844
37308SOL    HW121854  12.596  10.406   0.344  0.7931 -0.4468  0.0854
37308SOL    HW221855  12.649  10.264   0.348 -0.6973 -1.0857 -1.4636
37309SOL     OW21856   5.969   6.101   0.920  0.0727  0.4727  0.1614
37309SOL    HW121857   5.926   6.135   0.841 -1.1736 -1.1445  0.0989
37309SOL    HW221858   5.909   6.124   0.992  0.8403  1.2737  0.5732
37310SOL     OW21859   4.806   4.379   4.243  0.0653 -0.3029  0.3062
37310SOL    HW121860   4.834   4.467   4.218  0.2437 -0.0349  1.4104
37310SOL    HW221861   4.711   4.381   4.236  0.0296  0.1545  0.8759
37311SOL     OW21862   1.236   2.238   2.613  0.0469  0.2988  0.3044
37311SOL    HW121863   1.208   2.308   2.554  1.3285 -0.0929 -0.8336
37311SOL    HW221864   1.331   2.249   2.620  0.2541 -1.2010  0.2213
37312SOL     OW21865  12.254   5.817   3.900  0.5208 -0.3863 -0.3217
37312SOL    HW121866  12.307   5.891   3.870  0.3543  0.0900  0.5128
37312SOL    HW221867  12.309   5.772   3.963  0.3288 -0.5079 -0.2380
37313SOL     OW21868   0.529   3.231   8.359 -0.4307 -0.2376  0.1022
37313SOL    HW121869   0.538   3.271   8.446  2.1763 -0.3836 -0.0187
37313SOL    HW221870   0.502   3.141   8.376 -1.3600  0.1256  0.6442
37314SOL     OW21871   4.171   4.769   7.327 -0.1311  0.5757  0.4026
37314SOL    HW121872   4.123   4.725   7.257 -1.3299  2.8412 -0.3006
37314SOL    HW221873   4.260   4.736   7.320 -0.6862 -0.7550 -0.8864
37315SOL     OW21874   0.056   6.230   1.665  0.1533  0.8289  0.5786
37315SOL    HW121875   0.061   6.314   1.618  2.2491  1.7440  2.2567
37315SOL    HW221876   0.121   6.175   1.621  1.7056  1.4978  1.9324
37316SOL     OW21877  11.358   1.094   4.859  0.0909  0.5902 -0.5629
37316SOL    HW121878  11.367   1.017   4.803 -0.2863  1.1948 -1.4973
37316SOL    HW221879  11.416   1.159   4.819  1.4863  0.3821  1.0271
37317SOL     OW21880   7.343   3.962   0.163  0.0844 -0.5459 -0.0592
37317SOL    HW121881   7.409   3.909   0.118  0.7234  0.3468 -0.1881
37317SOL    HW221882   7.278   3.981   0.095 -0.6567 -1.9188  0.2051
37318SOL     OW21883   2.941   9.686   6.624  0.1963 -0.2008  0.0200
37318SOL    HW121884   2.847   9.683   6.607  0.1360 -1.1679  0.4661
37318SOL    HW221885   2.966   9.775   6.602 -0.6483 -0.2016 -1.0283
37319SOL     OW21886  11.874   3.792   2.412  0.2438  0.4574  0.4503
37319SOL    HW121887  11.783   3.799   2.385  0.2636  0.7653  0.4517
37319SOL    HW221888  11.921   3.764   2.333  0.2848  1.2399  0.1821
37320SOL     OW21889   6.223   1.179   1.223  0.0560  0.1152 -0.3120
37320SOL    HW121890   6.152   1.134   1.178  0.0605  0.3001 -0.5058
37320SOL    HW221891   6.179   1.232   1.290 -0.1292  1.4402 -1.4417
37321SOL     OW21892  10.818   2.601   1.828  0.6863  0.1957  0.3175
37321SOL    HW121893  10.900   2.644   1.803  0.2473  0.4550 -0.7092
37321SOL    HW221894  10.765   2.601   1.749  0.4608 -1.7941  0.4067
37322SOL     OW21895   7.148   3.360  12.952 -0.6537  0.7080 -0.2625
37322SOL    HW121896   7.095   3.372  12.873  0.2213  1.5909 -0.7362
37322SOL    HW221897   7.087   3.324  13.016 -1.6956  1.1645 -0.9629
37323SOL     OW21898   1.483   8.712   6.656  0.5256 -0.0047 -0.3265
37323SOL    HW121899   1.483   8.806   6.642 -0.4037 -0.1029 -1.1133
37323SOL    HW221900   1.441   8.676   6.577 -0.4144 -0.9694  0.5762
37324SOL     OW21901   7.303   3.226   3.155 -0.2700 -0.1892 -0.2132
37324SOL    HW121902   7.345   3.306   3.124  0.1552 -0.6321 -0.7971
37324SOL    HW221903   7.241   3.203   3.086  1.4404 -1.7708 -1.3305
37325SOL     OW21904   9.573   8.152  12.063 -0.2392 -0.2710  0.1728
37325SOL    HW121905   9.621   8.232  12.089  0.4117 -0.8868  0.9154
37325SOL    HW221906   9.504   8.184  12.006  2.3083  0.5012 -2.7483
37326SOL     OW21907   1.654   3.302   6.286  0.0422 -0.1512 -0.4130
37326SOL    HW121908   1.589   3.351   6.238  2.0556  0.7513 -2.3828
37326SOL    HW221909   1.675   3.357   6.362 -0.4957  0.1631 -0.4884
37327SOL     OW21910   6.844  12.044   7.777 -0.0225 -0.6710 -0.3425
37327SOL    HW121911   6.840  12.033   7.682 -1.4478 -2.2980 -0.1436
37327SOL    HW221912   6.855  11.955   7.811  2.5335  0.0720  0.9752
37328SOL     OW21913   6.953  11.807  11.452 -0.1668 -0.1182  0.0763
37328SOL    HW121914   6.958  11.883  11.394 -0.5015  0.1774  0.4251
37328SOL    HW221915   7.036  11.761  11.439  0.0150  0.2789 -0.1796
37329SOL     OW21916   9.671  13.221   4.644  0.1764 -0.1568  0.2586
37329SOL    HW121917   9.717  13.188   4.720 -0.7547 -0.9763  0.4900
37329SOL    HW221918   9.721  13.189   4.569  0.6405 -0.0379  0.5195
37330SOL     OW21919  10.529   4.003   7.368 -0.3790 -0.3949 -0.1904
37330SOL    HW121920  10.614   4.014   7.325  0.1007  1.7300  1.1146
37330SOL    HW221921  10.551   3.967   7.455 -0.7678  0.2963  0.2031
37331SOL     OW21922   1.586  11.261   7.016 -0.0415  0.1526  0.0227
37331SOL    HW121923   1.534  11.181   7.012 -1.7856  1.1660  0.8865
37331SOL    HW221924   1.560  11.311   6.939  0.4919  0.2079 -0.1254
37332SOL     OW21925   3.789   3.837   9.066  0.1950  0.1963 -0.0032
37332SOL    HW121926   3.809   3.919   9.110  1.1786 -0.6013  1.0932
37332SOL    HW221927   3.855   3.830   8.997  0.1065  0.3294 -0.1013
37333SOL     OW21928   9.051   6.362   4.330  0.4139 -0.2030 -0.6250
37333SOL    HW121929   9.107   6.312   4.389  0.9534  0.1889 -0.7909
37333SOL    HW221930   9.020   6.298   4.266  0.2947 -0.5170 -0.2500
37334SOL     OW21931   2.621   6.706  11.047  0.0171  0.0312 -0.1333
37334SOL    HW121932   2.613   6.614  11.072  1.6508 -0.4939 -1.3255
37334SOL    HW221933   2.691   6.740  11.103 -0.6970  0.6030  0.4208
37335SOL     OW21934   0.478   1.558   9.150  0.0345  0.0678 -0.1507
37335SOL    HW121935   0.559   1.567   9.201 -0.3071  1.3096  0.2148
37335SOL    HW221936   0.485   1.625   9.082 -0.9475  0.6177  0.2666
37336SOL     OW21937  10.463  10.295   5.281 -0.2552 -0.2658  0.5131
37336SOL    HW121938  10.517  10.346   5.341  1.5368 -0.8599 -0.5084
37336SOL    HW221939  10.507  10.210   5.276 -1.2126 -0.7280 -0.4667
37337SOL     OW21940   2.651   7.776   9.229  0.1595  0.4308 -0.4726
37337SOL    HW121941   2.564   7.736   9.229  1.2201 -2.1540  0.8774
37337SOL    HW221942   2.685   7.758   9.317  1.5554  2.6006 -0.5068
37338SOL     OW21943  10.428   3.315   6.705 -0.0052 -0.3992 -0.6037
37338SOL    HW121944  10.370   3.363   6.765  0.6978 -0.2163 -0.0515
37338SOL    HW221945  10.510   3.305   6.754 -0.0941 -2.0993 -0.7473
37339SOL     OW21946   9.344   1.867   5.745  0.1935 -0.5762 -0.4050
37339SOL    HW121947   9.299   1.870   5.660  0.3713  2.3914 -0.5084
37339SOL    HW221948   9.274   1.848   5.808 -0.1901 -1.4631 -1.0731
37340SOL     OW21949  11.920   0.751   3.929 -0.0573 -0.2535 -0.5231
37340SOL    HW121950  11.868   0.825   3.960 -0.5541 -0.5223 -0.7095
37340SOL    HW221951  12.011   0.781   3.936 -0.3093  1.0565 -2.3091
37341SOL     OW21952   6.036  10.372   7.445  0.0221 -0.5096 -0.2293
37341SOL    HW121953   6.064  10.309   7.379 -1.3431 -0.6366 -0.7116
37341SOL    HW221954   5.942  10.382   7.430 -0.0109  0.6714  0.6690
37342SOL     OW21955  12.456   3.077   6.267  0.3234 -0.3788 -0.1583
37342SOL    HW121956  12.551   3.086   6.266  0.2792  0.2843 -1.3025
37342SOL    HW221957  12.431   3.088   6.175 -0.9341  0.5445  0.2624
37343SOL     OW21958   6.694   0.624  11.754  0.5351 -0.2221  0.2674
37343SOL    HW121959   6.625   0.563  11.730  1.4893 -1.6928  1.0931
37343SOL    HW221960   6.722   0.596  11.841  0.8007  1.6012  0.8051
37344SOL     OW21961  11.436   6.965   8.171  0.0950  0.5364 -0.1237
37344SOL    HW121962  11.355   6.927   8.205  0.3619 -0.6221 -0.6975
37344SOL    HW221963  11.408   7.034   8.111 -0.5706 -0.9544 -1.6212
37345SOL     OW21964   1.874   0.526  12.944  0.0340  0.4792 -0.3807
37345SOL    HW121965   1.842   0.531  12.854  0.3349  1.0587 -0.4584
37345SOL    HW221966   1.855   0.612  12.981 -1.3497 -0.1697  0.5500
37346SOL     OW21967  12.736   0.591   0.755 -0.0644  0.5568 -0.0843
37346SOL    HW121968  12.754   0.612   0.847 -0.4843 -0.4533  0.2386
37346SOL    HW221969  12.794   0.518   0.735  0.1062  0.8468 -0.6655
37347SOL     OW21970   4.951   4.859  11.460  0.2922 -0.1193  0.4211
37347SOL    HW121971   4.875   4.801  11.464 -1.6453  2.2299 -0.0611
37347SOL    HW221972   4.920   4.937  11.414  3.4051  0.4206 -1.0628
37348SOL     OW21973   2.848  12.319   0.738 -0.3618  0.6157  0.4496
37348SOL    HW121974   2.777  12.377   0.711 -2.1753 -2.0393 -0.8878
37348SOL    HW221975   2.919  12.338   0.676 -0.7264  1.7089  0.3531
37349SOL     OW21976   8.474   0.542   4.974 -0.3015 -0.5409  0.1349
37349SOL    HW121977   8.477   0.468   4.913 -2.3520  0.6661 -1.5694
37349SOL    HW221978   8.381   0.560   4.985  0.1346  1.5438  0.8095
37350SOL     OW21979   8.449  13.244   5.410 -0.1458  0.2199  0.7978
37350SOL    HW121980   8.506  13.319   5.393  0.7348 -0.4780  0.6121
37350SOL    HW221981   8.381  13.250   5.342  1.4987 -0.6946 -1.0351
37351SOL     OW21982   3.063  11.844   7.871  0.3746  0.6777  0.7138
37351SOL    HW121983   2.980  11.887   7.893  0.3096  1.9601 -1.6892
37351SOL    HW221984   3.130  11.907   7.898  0.5854 -0.0302  1.9453
37352SOL     OW21985  11.893  12.281   6.685  0.4578 -0.3866  0.0814
37352SOL    HW121986  11.978  12.263   6.724  0.7551 -0.6308 -0.6556
37352SOL    HW221987  11.830  12.238   6.741  0.8302 -0.2902  0.5764
37353SOL     OW21988   3.717  11.113   2.604 -0.3873 -0.1227  0.6628
37353SOL    HW121989   3.696  11.025   2.636 -0.8092 -0.4124 -0.3696
37353SOL    HW221990   3.797  11.137   2.651  1.3115 -2.1686 -0.9272
37354SOL     OW21991  12.100   8.203   4.143  0.6021 -0.2202  0.1061
37354SOL    HW121992  12.179   8.158   4.114 -0.2210 -1.6325 -0.0545
37354SOL    HW221993  12.131   8.286   4.178  1.8382  0.6841 -2.8435
37355SOL     OW21994   2.384   9.849   7.801  0.0861  0.1338 -0.3308
37355SOL    HW121995   2.470   9.889   7.810  0.2414  0.3167 -2.2511
37355SOL    HW221996   2.373   9.798   7.881  1.0600  1.7811  0.9214
37356SOL     OW21997  10.523   5.969   1.609  0.3447 -0.0480 -0.4024
37356SOL    HW121998  10.446   5.916   1.629  1.2063 -1.4404 -0.5795
37356SOL    HW221999  10.569   5.975   1.693  0.9011 -0.7143 -0.6471
37357SOL     OW22000   5.871   1.613   7.123 -0.3296 -0.0576 -0.4440
37357SOL    HW122001   5.949   1.557   7.127 -0.1994  0.0759 -0.9707
37357SOL    HW222002   5.797   1.554   7.133 -0.1514 -0.1511  0.3506
37358SOL     OW22003   0.102   2.933   2.572  0.3552  0.0859 -0.2319
37358SOL    HW122004   0.131   3.022   2.595  3.2497 -1.3420  2.3823
37358SOL    HW222005   0.183   2.887   2.548 -1.0025 -2.0094 -1.0372
37359SOL     OW22006   9.525   6.000   3.332  0.1850 -0.3218 -0.5181
37359SOL    HW122007   9.571   6.072   3.288  0.1785 -0.5946 -0.9834
37359SOL    HW222008   9.488   5.949   3.260 -0.9639 -0.0318 -0.1490
37360SOL     OW22009   2.333   1.196   4.465  0.4694 -0.5777  0.0237
37360SOL    HW122010   2.243   1.204   4.432  0.2397  0.6133  0.8872
37360SOL    HW222011   2.386   1.241   4.400  0.4052 -0.9639 -0.3005
37361SOL     OW22012   8.498   6.713   5.275  0.7022  0.5023 -0.0339
37361SOL    HW122013   8.476   6.638   5.330 -1.1945 -0.1823 -1.6022
37361SOL    HW222014   8.449   6.786   5.314  2.2899  0.9317  1.2954
37362SOL     OW22015  10.159   7.065  12.698  0.8764 -0.3401  0.7987
37362SOL    HW122016  10.114   7.129  12.753  1.5552  0.9463 -0.0798
37362SOL    HW222017  10.251   7.090  12.703  1.0268 -0.5589 -0.4345
37363SOL     OW22018   0.931  10.181   1.408 -0.0287 -0.3598 -0.0574
37363SOL    HW122019   0.866  10.208   1.473  1.1340 -0.0564  1.0229
37363SOL    HW222020   1.015  10.192   1.453  0.8511  0.3491 -1.7904
37364SOL     OW22021  12.584   4.825  12.503 -0.3016 -0.3040  0.3939
37364SOL    HW122022  12.547   4.764  12.440  0.9011 -1.2284  0.5387
37364SOL    HW222023  12.560   4.789  12.589 -4.2308  2.3272  0.6744
37365SOL     OW22024  10.128  11.645   2.838 -0.4555  0.4224  0.0066
37365SOL    HW122025  10.058  11.708   2.819  1.4583  2.2424 -1.4948
37365SOL    HW222026  10.152  11.610   2.752 -1.1416 -2.1206  0.7592
37366SOL     OW22027  10.583   9.583   4.410  0.0592  0.0005 -0.0418
37366SOL    HW122028  10.657   9.642   4.425 -0.0188  0.0281  0.2457
37366SOL    HW222029  10.527   9.631   4.350  0.5897 -0.2911 -0.7857
37367SOL     OW22030  11.493   2.374   9.806  0.4072 -0.7325  0.1086
37367SOL    HW122031  11.441   2.296   9.791 -0.0475 -0.5312  0.6187
37367SOL    HW222032  11.531   2.362   9.893 -0.6465  0.1506  0.7142
37368SOL     OW22033  12.946   0.176   8.137  0.6548  0.0561 -0.8646
37368SOL    HW122034  12.980   0.252   8.183  2.3380  0.0403 -2.0206
37368SOL    HW222035  12.940   0.108   8.204 -1.8062  1.3802  0.4202
37369SOL     OW22036   0.452   3.669   8.656 -0.1129 -0.0677  0.4553
37369SOL    HW122037   0.531   3.706   8.617 -0.7665  0.3320 -0.5363
37369SOL    HW222038   0.432   3.726   8.730 -0.9776  1.4905 -0.9131
37370SOL     OW22039   9.396   3.831   1.037  0.2288 -0.1276  0.3023
37370SOL    HW122040   9.405   3.883   0.957 -0.1849  0.4587  0.6238
37370SOL    HW222041   9.447   3.880   1.103 -0.1186 -0.1553  0.5946
37371SOL     OW22042   1.120   7.865   2.132 -0.3545 -0.3605 -0.2064
37371SOL    HW122043   1.191   7.853   2.069  0.2811  1.7284  0.0432
37371SOL    HW222044   1.164   7.867   2.217 -0.6995  0.8621 -0.0417
37372SOL     OW22045   2.959   9.328  11.812 -0.2008 -0.0499 -0.2085
37372SOL    HW122046   2.948   9.401  11.751  0.0123  1.0261  1.0063
37372SOL    HW222047   2.876   9.280  11.808 -0.7605  0.8989 -0.1889
37373SOL     OW22048   7.120   5.620   5.270 -0.2803 -0.1962  0.4887
37373SOL    HW122049   7.042   5.650   5.318 -0.4084 -0.9346  0.7583
37373SOL    HW222050   7.116   5.524   5.275  0.7691 -0.2415  0.7065
37374SOL     OW22051   2.678   8.848  11.398  0.4665  0.1318  0.5040
37374SOL    HW122052   2.663   8.888  11.483  0.2836 -1.0986  1.0729
37374SOL    HW222053   2.747   8.901  11.358  0.2428  0.9914  1.2241
37375SOL     OW22054  11.378  10.457  10.776  0.3796  0.1651 -0.1091
37375SOL    HW122055  11.450  10.396  10.784 -0.4147 -0.8642 -0.5812
37375SOL    HW222056  11.377  10.482  10.683  0.0223  0.0259 -0.1461
37376SOL     OW22057   7.536   0.538   3.649 -1.0230  0.0391  0.3651
37376SOL    HW122058   7.578   0.539   3.735 -2.3901 -1.0448  1.0973
37376SOL    HW222059   7.446   0.508   3.667 -0.8477 -1.9225 -1.6236
37377SOL     OW22060   3.498   3.899  10.986  0.1031 -0.1336 -0.2126
37377SOL    HW122061   3.493   3.849  10.905 -0.2364  2.0111 -1.5853
37377SOL    HW222062   3.466   3.839  11.053  1.1154 -2.2304 -1.5055
37378SOL     OW22063   6.908  12.684  13.144  0.1640 -0.1688  0.3876
37378SOL    HW122064   6.849  12.671  13.218  1.1141 -1.8619  0.9153
37378SOL    HW222065   6.891  12.609  13.086  1.5988 -0.5860  0.4616
37379SOL     OW22066   5.671   2.007   6.325  0.7399 -0.0158 -0.8657
37379SOL    HW122067   5.662   1.915   6.352 -0.9324  0.0386 -1.1272
37379SOL    HW222068   5.636   2.009   6.236  1.5256  0.7489 -1.1762
37380SOL     OW22069   6.250   9.644   4.990  0.2742  0.0134 -0.0599
37380SOL    HW122070   6.252   9.553   4.961  1.1241  0.0480 -0.1450
37380SOL    HW222071   6.179   9.647   5.054 -0.8277 -0.3435 -1.2071
37381SOL     OW22072  11.876   6.864   2.137  0.3053 -0.2497 -0.0715
37381SOL    HW122073  11.870   6.959   2.151  0.0986 -0.0784 -1.2139
37381SOL    HW222074  11.968   6.849   2.117 -0.0369  0.0595 -2.0617
37382SOL     OW22075   4.480   6.971  12.708  0.1438 -0.1852  0.2214
37382SOL    HW122076   4.549   7.019  12.663 -0.8385  0.8485 -0.2572
37382SOL    HW222077   4.508   6.968  12.799  1.1618 -0.4463 -0.0923
37383SOL     OW22078  10.424   2.563   1.959  0.0625 -0.0877 -0.2711
37383SOL    HW122079  10.386   2.625   2.021 -0.1670  0.6755 -1.1472
37383SOL    HW222080  10.518   2.565   1.978 -0.0111  0.0898  0.0912
37384SOL     OW22081   6.514   2.324   8.968  0.2331 -0.2772  0.4986
37384SOL    HW122082   6.528   2.288   8.880  1.1989 -0.7587  0.8390
37384SOL    HW222083   6.568   2.403   8.970 -0.7097  0.3912  0.2701
37385SOL     OW22084   1.439   4.745   9.654  0.4424  0.2750 -0.4297
37385SOL    HW122085   1.523   4.730   9.698  0.9342  2.2777 -0.6024
37385SOL    HW222086   1.463   4.760   9.563 -0.1081  0.8706 -0.4751
37386SOL     OW22087   8.521  11.994   9.231  0.0630  0.8055  0.6299
37386SOL    HW122088   8.483  12.021   9.315 -2.1275  0.1101 -0.0470
37386SOL    HW222089   8.498  11.901   9.223  1.0164  0.6336 -0.3323
37387SOL     OW22090   7.241   9.081  13.225 -0.6057  0.4785  0.0974
37387SOL    HW122091   7.197   9.010  13.178 -0.1134  0.5846 -0.5323
37387SOL    HW222092   7.254   9.149  13.159 -0.5426  0.9192  0.5566
37388SOL     OW22093   4.241  10.970   7.995 -0.5293 -0.8004  0.1639
37388SOL    HW122094   4.246  10.874   7.992  1.4322 -0.7457  0.0478
37388SOL    HW222095   4.302  10.998   7.927 -1.5805  0.5502 -0.2523
37389SOL     OW22096  11.604   0.408   6.601  0.1130 -0.0510  0.1149
37389SOL    HW122097  11.596   0.328   6.549  0.7624  0.5333 -0.9212
37389SOL    HW222098  11.522   0.455   6.586  0.1789 -0.0208 -0.1635
37390SOL     OW22099  11.383   2.168   3.228  0.0718  0.8370  0.1762
37390SOL    HW122100  11.456   2.109   3.248 -0.8392 -0.4859 -0.3141
37390SOL    HW222101  11.414   2.220   3.154 -0.3038 -1.3883 -1.6364
37391SOL     OW22102   6.735   5.619   1.882 -0.2254 -0.4953  0.0567
37391SOL    HW122103   6.641   5.636   1.868 -0.4326 -0.7094  1.1184
37391SOL    HW222104   6.760   5.565   1.807 -0.6167  0.6719 -0.9690
37392SOL     OW22105   5.812   2.717   7.307  0.5422  0.2144  0.1729
37392SOL    HW122106   5.730   2.693   7.265 -0.5932  4.0108 -0.1722
37392SOL    HW222107   5.880   2.676   7.253 -1.0403  0.7929 -2.4043
37393SOL     OW22108   8.192  11.015  11.841  0.4758 -0.2223 -0.2880
37393SOL    HW122109   8.279  11.013  11.800  1.0373 -3.0140  0.8299
37393SOL    HW222110   8.132  11.005  11.767  1.2348 -0.6505 -0.8759
37394SOL     OW22111   7.410   1.250   0.496 -0.1670  0.0352 -0.2160
37394SOL    HW122112   7.354   1.235   0.420  1.1158 -0.4682 -1.0925
37394SOL    HW222113   7.397   1.174   0.552 -0.6951  0.1380 -0.2013
37395SOL     OW22114   7.773   2.147  12.929 -0.6643  0.2159  0.4061
37395SOL    HW122115   7.679   2.148  12.948 -0.6416  1.1916  0.5001
37395SOL    HW222116   7.778   2.140  12.833 -0.8089 -1.0890  0.4776
37396SOL     OW22117  12.771  12.825  10.066  0.0767  0.0318 -0.2184
37396SOL    HW122118  12.827  12.890  10.107 -0.3222  0.2477 -0.0137
37396SOL    HW222119  12.829  12.778  10.005  0.1735  1.1053 -0.9699
37397SOL     OW22120   5.958   4.338  10.854  0.2841 -0.1163 -0.5805
37397SOL    HW122121   5.903   4.306  10.926 -1.4433  1.0887 -1.2776
37397SOL    HW222122   5.986   4.425  10.883  2.1128 -0.8062 -0.1317
37398SOL     OW22123   8.193  10.466   9.813  0.9102 -0.8143 -0.3333
37398SOL    HW122124   8.141  10.393   9.848  1.1117 -0.2450  1.2419
37398SOL    HW222125   8.136  10.543   9.824  1.8041 -0.2860  0.8389
37399SOL     OW22126  12.352   4.612   0.937 -0.3270  0.6990  0.0812
37399SOL    HW122127  12.383   4.703   0.942  1.5976  0.1287 -0.6640
37399SOL    HW222128  12.363   4.587   0.846 -2.6038  0.2509 -0.1344
37400SOL     OW22129   3.821   9.698   0.634 -0.3370  0.5294 -0.0581
37400SOL    HW122130   3.872   9.769   0.594 -1.0548  0.9246 -0.2921
37400SOL    HW222131   3.884   9.627   0.646  0.4644  1.2938  0.4286
37401SOL     OW22132   3.789  11.886  11.534 -0.0449 -0.4764  1.0164
37401SOL    HW122133   3.745  11.868  11.451  2.5229  1.0435 -0.8136
37401SOL    HW222134   3.771  11.809  11.588 -1.1078 -1.9098 -1.2387
37402SOL     OW22135  13.023   7.548   4.081  0.2619  0.0553  0.2261
37402SOL    HW122136  13.035   7.480   4.147 -0.6446 -0.2876  0.0474
37402SOL    HW222137  13.008   7.500   4.000 -2.6106  0.3564  0.4564
37403SOL     OW22138  11.346  12.382   3.751 -0.2392  0.4698  0.3730
37403SOL    HW122139  11.279  12.314   3.755 -0.9518  1.1017 -0.3595
37403SOL    HW222140  11.367  12.389   3.657  0.9700  0.1798  0.6064
37404SOL     OW22141   5.881   4.371  12.220 -0.1821  1.5112 -0.3239
37404SOL    HW122142   5.795   4.351  12.256 -0.4234  1.0550 -1.1257
37404SOL    HW222143   5.869   4.366  12.125  0.9929  0.2669 -0.4441
37405SOL     OW22144  11.239   4.886   1.832 -0.2491 -0.4945  0.4827
37405SOL    HW122145  11.302   4.826   1.871 -0.3111 -1.2026 -0.5000
37405SOL    HW222146  11.162   4.879   1.889  0.3722  0.0412  1.4264
37406SOL     OW22147   9.661  13.038   6.331 -0.3430  0.1633 -0.7055
37406SOL    HW122148   9.650  12.990   6.413  2.1287 -2.5339 -1.8050
37406SOL    HW222149   9.630  12.977   6.263 -2.1940  2.2667 -1.9019
37407SOL     OW22150  12.558   4.590   7.652 -0.7443 -0.6047 -0.5470
37407SOL    HW122151  12.601   4.587   7.567 -1.3398  0.8836 -0.9435
37407SOL    HW222152  12.628   4.575   7.716 -0.0894 -0.6103 -1.2572
37408SOL     OW22153   8.954  10.344   1.940 -0.2845  0.2972  0.3326
37408SOL    HW122154   8.877  10.374   1.893  1.0457  2.9547 -0.3703
37408SOL    HW222155   8.921  10.311   2.023 -2.5380 -2.9818 -1.6721
37409SOL     OW22156   2.222   8.706  10.499  0.4077  0.3724 -0.3412
37409SOL    HW122157   2.285   8.647  10.540 -0.5430 -1.4714 -1.4136
37409SOL    HW222158   2.264   8.732  10.417  0.6730  0.9362 -0.0350
37410SOL     OW22159  10.290   3.114   1.108 -0.1065 -0.1011  0.2369
37410SOL    HW122160  10.323   3.198   1.141  0.9956 -0.1928 -0.5808
37410SOL    HW222161  10.228   3.137   1.040  0.2385  0.0563 -0.0266
37411SOL     OW22162   3.442   8.801   2.728  0.7459  0.4800  0.0533
37411SOL    HW122163   3.470   8.855   2.654  0.3151  2.2176  1.1040
37411SOL    HW222164   3.386   8.859   2.780 -0.8655 -1.4068  0.5430
37412SOL     OW22165   7.898  11.173   6.328 -0.3335  0.1664  0.4025
37412SOL    HW122166   7.815  11.208   6.359 -0.0425  0.8709  0.3952
37412SOL    HW222167   7.897  11.188   6.234  0.6843  2.1054  0.6568
37413SOL     OW22168   2.477   0.536   6.245 -0.4830 -0.6712 -0.2106
37413SOL    HW122169   2.412   0.603   6.267 -1.3936 -1.2464 -1.0638
37413SOL    HW222170   2.558   0.566   6.287 -1.3039  0.0291  0.9240
37414SOL     OW22171   5.526  12.892   5.899  0.5061  0.2383 -0.1849
37414SOL    HW122172   5.441  12.871   5.937  1.1638 -0.8856  0.7105
37414SOL    HW222173   5.510  12.891   5.805  0.0669 -2.6399 -0.1681
37415SOL     OW22174  12.547  11.472  10.233  0.1820 -0.4542  0.2449
37415SOL    HW122175  12.465  11.424  10.219 -0.9985  1.5968 -0.2871
37415SOL    HW222176  12.583  11.483  10.145 -0.2593  0.7545  0.1979
37416SOL     OW22177   4.348   3.776   5.178  0.0682  0.7604 -0.1218
37416SOL    HW122178   4.313   3.791   5.266  2.2369 -0.3021  1.0134
37416SOL    HW222179   4.363   3.864   5.143  0.1856  1.2173  1.0218
37417SOL     OW22180   3.976   5.338   4.939 -0.2968 -0.6344  0.2742
37417SOL    HW122181   4.055   5.391   4.923 -0.2003 -1.1032 -0.9157
37417SOL    HW222182   3.999   5.250   4.908 -1.6870 -0.4881 -1.3533
37418SOL     OW22183   1.186   7.922  12.773 -0.6006 -0.0988  0.3834
37418SOL    HW122184   1.113   7.907  12.714 -1.0891  1.6206  0.4729
37418SOL    HW222185   1.257   7.953  12.716 -0.5067 -0.1178  0.4888
37419SOL     OW22186   0.330  10.482   2.667  0.1879 -0.1279  0.7946
37419SOL    HW122187   0.415  10.457   2.705 -0.1433 -2.4680  0.1672
37419SOL    HW222188   0.268  10.473   2.739  0.2305 -0.1540  0.8284
37420SOL     OW22189   5.761   2.053   8.643  0.0586 -0.4369 -0.4373
37420SOL    HW122190   5.844   2.075   8.684 -0.6600  4.3502 -0.9529
37420SOL    HW222191   5.698   2.053   8.716 -0.0467  0.1034 -0.5207
37421SOL     OW22192   3.013   1.755   9.737 -0.2140 -0.2648  0.1590
37421SOL    HW122193   2.972   1.669   9.747 -1.9436  0.3592 -1.0714
37421SOL    HW222194   2.964   1.812   9.795 -0.7822  0.3865 -0.9210
37422SOL     OW22195   3.601   0.781   9.648 -0.2120 -0.3508  0.3948
37422SOL    HW122196   3.510   0.809   9.661 -0.6259 -1.3884 -0.1349
37422SOL    HW222197   3.645   0.857   9.611 -1.4570 -0.5523 -1.6693
37423SOL     OW22198  12.942   7.997   4.559  0.0261  0.0717 -0.0007
37423SOL    HW122199  13.019   8.017   4.613  0.8217 -0.4133 -0.9270
37423SOL    HW222200  12.933   8.073   4.501 -1.7041  1.2694  1.7266
37424SOL     OW22201   0.735  11.606  10.447  0.1211  0.1553  0.0778
37424SOL    HW122202   0.787  11.643  10.376  0.3600  1.3561  0.8673
37424SOL    HW222203   0.750  11.663  10.522  1.0394 -1.9082  1.5583
37425SOL     OW22204   8.533   9.364   4.704 -0.2343  0.4632  0.5013
37425SOL    HW122205   8.438   9.360   4.714 -0.3724  1.4457 -0.3110
37425SOL    HW222206   8.560   9.440   4.755  0.1489  0.0339  0.9434
37426SOL     OW22207   7.822  10.490   1.719  0.2540 -0.0181 -0.5857
37426SOL    HW122208   7.899  10.453   1.675  1.2653 -2.1330  2.5903
37426SOL    HW222209   7.852  10.574   1.754  1.3058 -0.9014  0.7754
37427SOL     OW22210   3.703  12.615   1.867 -0.2472 -0.2730  0.3326
37427SOL    HW122211   3.632  12.674   1.844 -0.1762 -0.6018 -0.7518
37427SOL    HW222212   3.659  12.541   1.911 -0.7882 -1.2166 -1.6913
37428SOL     OW22213   6.289  12.052   3.404  0.1799  0.3475  0.2448
37428SOL    HW122214   6.199  12.071   3.430 -0.0361 -1.7644  1.2340
37428SOL    HW222215   6.343  12.094   3.471  0.0312  2.2226 -0.7319
37429SOL     OW22216   8.737   9.921   8.190  0.7015 -0.4057  0.1829
37429SOL    HW122217   8.715   9.998   8.138  0.4368 -1.0935 -0.7616
37429SOL    HW222218   8.816   9.945   8.237  2.8221 -0.7274 -2.9106
37430SOL     OW22219   6.345  10.153  10.932  0.0545 -0.2715 -0.2391
37430SOL    HW122220   6.321  10.068  10.968  1.6803 -0.8274 -0.3601
37430SOL    HW222221   6.441  10.149  10.924  0.1952  1.6779  0.0226
37431SOL     OW22222   6.012   4.138   7.833 -0.1262  0.0136 -0.6067
37431SOL    HW122223   5.917   4.133   7.823 -0.4086  2.6897 -0.0870
37431SOL    HW222224   6.029   4.107   7.921 -0.7744  1.1626 -0.0531
37432SOL     OW22225   5.212   1.982   9.285  0.1022  0.3367  0.8212
37432SOL    HW122226   5.133   1.972   9.338 -1.8134 -1.1442 -2.0782
37432SOL    HW222227   5.190   1.943   9.201  3.6820  0.6445 -0.4253
37433SOL     OW22228   0.464  11.197  10.993  0.4669 -0.0841 -0.0828
37433SOL    HW122229   0.392  11.135  11.008  1.2028 -0.9808 -0.2089
37433SOL    HW222230   0.419  11.278  10.967 -0.4900 -1.0874 -1.8248
37434SOL     OW22231  12.357   4.560   9.950 -0.1794 -0.0692  0.4862
37434SOL    HW122232  12.404   4.641   9.930 -0.3153 -0.2739 -0.7346
37434SOL    HW222233  12.379   4.542  10.041 -0.2261  1.3864  0.8103
37435SOL     OW22234  12.007   5.378   0.565 -0.4510  0.1877  0.6496
37435SOL    HW122235  12.023   5.468   0.536  1.2141 -0.5750 -0.9454
37435SOL    HW222236  12.093   5.336   0.565 -1.3138 -1.7188  0.2823
37436SOL     OW22237   9.758   4.529   0.078 -0.3360  0.3693 -0.3900
37436SOL    HW122238   9.664   4.546   0.073 -0.1312  2.1183  0.6544
37436SOL    HW222239   9.794   4.607   0.121  1.4631 -0.7313  0.2201
37437SOL     OW22240   4.310   5.068   4.951 -0.2009  1.0954 -0.7915
37437SOL    HW122241   4.317   5.048   5.044 -0.6756 -1.0734 -1.1596
37437SOL    HW222242   4.391   5.035   4.912  0.3615  2.7237 -1.0694
37438SOL     OW22243  12.775   1.309   9.085 -0.2905 -0.3829 -0.6935
37438SOL    HW122244  12.849   1.368   9.101 -0.4642 -0.0779 -1.0040
37438SOL    HW222245  12.698   1.366   9.089 -0.4334 -0.5341 -1.3182
37439SOL     OW22246  12.062   3.402   0.825 -0.0323  0.4589  0.3619
37439SOL    HW122247  11.985   3.445   0.789 -0.1651  0.3584  0.5238
37439SOL    HW222248  12.078   3.446   0.908  0.1356  0.5379  0.2864
37440SOL     OW22249   9.119  11.877  11.920 -0.0128 -0.0770  0.6817
37440SOL    HW122250   9.081  11.796  11.955 -2.5896  0.7485  0.0591
37440SOL    HW222251   9.156  11.853  11.836 -0.4651 -0.6943  0.6537
37441SOL     OW22252  10.977   2.459   7.997  0.1644 -0.0866 -0.1059
37441SOL    HW122253  10.914   2.433   8.065  0.7443  0.1400  0.5279
37441SOL    HW222254  10.923   2.502   7.931 -0.5595 -1.2964 -0.3318
37442SOL     OW22255  13.026  11.215  13.043 -0.4693 -0.1853 -0.1407
37442SOL    HW122256  12.946  11.163  13.052  0.0308 -1.3069 -1.7434
37442SOL    HW222257  13.053  11.202  12.952  1.3931  0.3626  0.2929
37443SOL     OW22258   7.755   6.893   4.275 -0.1725  0.0617  0.2678
37443SOL    HW122259   7.798   6.968   4.316 -0.0135  1.0665 -1.6339
37443SOL    HW222260   7.662   6.917   4.272 -0.6109 -1.1346  2.3073
37444SOL     OW22261   4.760  10.727   8.396  0.3055 -0.8290  0.2943
37444SOL    HW122262   4.708  10.682   8.329 -0.5382 -0.9206  0.9844
37444SOL    HW222263   4.847  10.736   8.357 -0.1003 -1.0826 -0.7191
37445SOL     OW22264   7.467   5.793   6.585 -0.6964  0.1661 -0.5034
37445SOL    HW122265   7.481   5.735   6.511  1.4330  0.0372 -0.0506
37445SOL    HW222266   7.383   5.764   6.623  0.3528 -2.7597 -0.1799
37446SOL     OW22267   6.966  12.288   2.789 -0.2303 -0.1679  0.4927
37446SOL    HW122268   6.984  12.368   2.838  2.2233  0.1435 -0.7762
37446SOL    HW222269   6.902  12.241   2.843 -0.2192  1.7002  2.2613
37447SOL     OW22270  11.170   2.720   8.810  0.0516  0.0514  0.1163
37447SOL    HW122271  11.223   2.648   8.775 -0.3234 -1.0686  1.7454
37447SOL    HW222272  11.114   2.746   8.737 -0.4211 -1.9176 -0.2908
37448SOL     OW22273   0.733   7.447   0.737  0.3578 -0.3749 -0.0803
37448SOL    HW122274   0.719   7.516   0.803 -2.0400 -1.0791  0.2374
37448SOL    HW222275   0.772   7.493   0.663  0.8524  0.9063  0.9305
37449SOL     OW22276  11.567   4.225   6.414  0.3765  0.2348  0.3849
37449SOL    HW122277  11.651   4.211   6.371  0.7372  0.5202  0.9934
37449SOL    HW222278  11.537   4.137   6.437  0.8706  0.1873  0.8563
37450SOL     OW22279   7.940  10.371   4.432 -0.1907 -0.2562 -0.5770
37450SOL    HW122280   7.915  10.452   4.476  2.0351 -0.6820  1.7546
37450SOL    HW222281   7.924  10.388   4.339  1.4346  3.4150 -0.3634
37451SOL     OW22282  13.230   2.862   6.297 -0.1276  0.2229  0.6179
37451SOL    HW122283  13.295   2.791   6.301  0.9061  1.1397  0.7486
37451SOL    HW222284  13.155   2.824   6.252  1.0880 -0.4575 -0.9634
37452SOL     OW22285   9.253  11.731   9.722  0.3252  0.3946 -0.1131
37452SOL    HW122286   9.261  11.636   9.713 -2.3376  0.0035  0.7104
37452SOL    HW222287   9.165  11.751   9.690  0.9351  2.6662 -0.5799
37453SOL     OW22288   0.063   4.632  10.693  0.6363 -0.0300 -0.1465
37453SOL    HW122289   0.042   4.581  10.772  0.6313 -1.0461 -0.7807
37453SOL    HW222290   0.153   4.660  10.705  0.8734 -0.7905 -0.0794
37454SOL     OW22291  12.265   8.326   8.676  0.0859 -0.3786  0.3838
37454SOL    HW122292  12.219   8.263   8.732 -1.1857  1.6624  1.7985
37454SOL    HW222293  12.204   8.343   8.604  0.6331 -1.0877 -0.2621
37455SOL     OW22294   0.653   3.142   3.659  0.0492 -0.0399 -0.1066
37455SOL    HW122295   0.717   3.160   3.590  0.0937 -1.9480 -0.6205
37455SOL    HW222296   0.701   3.092   3.724 -0.4046  0.3435  0.5331
37456SOL     OW22297   3.140   4.864   6.728  0.0910 -0.6747 -0.3903
37456SOL    HW122298   3.169   4.947   6.764 -0.0975 -1.3196  1.3698
37456SOL    HW222299   3.220   4.815   6.709  0.2082 -0.0206 -1.7032
37457SOL     OW22300   7.614   0.166   9.807 -0.2606  0.2391 -0.3067
37457SOL    HW122301   7.558   0.194   9.735 -1.2162 -0.9328 -0.0428
37457SOL    HW222302   7.660   0.089   9.773 -0.3103  0.0046  0.1602
37458SOL     OW22303   5.210   0.903   0.062  0.1576  0.0435 -0.5989
37458SOL    HW122304   5.193   0.970   0.128 -1.9034 -0.3397 -0.6794
37458SOL    HW222305   5.131   0.902   0.008  0.6667 -1.5739 -1.3651
37459SOL     OW22306  10.317   8.315   1.026 -0.3907  0.1929  0.0204
37459SOL    HW122307  10.343   8.354   0.943 -0.0310  0.5723  0.3058
37459SOL    HW222308  10.395   8.270   1.058 -0.1851  0.9812  0.6774
37460SOL     OW22309   5.980   4.112   0.166 -0.7079 -0.2140 -0.1049
37460SOL    HW122310   5.885   4.105   0.164 -0.8303 -0.4503  3.0139
37460SOL    HW222311   6.010   4.040   0.221  1.0219  1.4299  1.2610
37461SOL     OW22312   7.577   0.045   4.475 -0.0312 -0.4104 -0.2335
37461SOL    HW122313   7.483   0.026   4.467  0.0409 -0.8204 -0.1086
37461SOL    HW222314   7.586   0.082   4.562  0.1388 -1.7140  0.3252
37462SOL     OW22315  10.517   3.901   1.557  0.0955  0.2152  0.3794
37462SOL    HW122316  10.514   3.819   1.507  0.4403  0.5158 -0.1444
37462SOL    HW222317  10.611   3.922   1.561 -0.0174  0.7498  0.2267
37463SOL     OW22318   2.661  11.213   1.288 -0.0231  0.1618 -0.2698
37463SOL    HW122319   2.630  11.289   1.238 -0.7002  0.8713  1.1828
37463SOL    HW222320   2.630  11.137   1.238  1.4352  0.7626 -2.2426
37464SOL     OW22321   2.268   5.362   8.150  0.1660 -0.1193  0.3989
37464SOL    HW122322   2.330   5.367   8.077 -0.0881 -0.6680  0.1373
37464SOL    HW222323   2.247   5.269   8.157 -1.1491  0.1243  0.0363
37465SOL     OW22324   4.161   2.292   0.854  0.2348  0.5545  0.2053
37465SOL    HW122325   4.243   2.305   0.903  0.3927 -0.0628  0.1137
37465SOL    HW222326   4.104   2.245   0.916  0.4278 -0.2113 -0.1854
37466SOL     OW22327   0.381  12.664  11.474  0.1669 -0.1150 -0.2112
37466SOL    HW122328   0.293  12.656  11.510  0.1544 -0.9113 -0.4035
37466SOL    HW222329   0.424  12.582  11.497  1.2678  0.7365  0.9366
37467SOL     OW22330   2.358  11.239   8.517 -0.3941 -0.3730  0.3963
37467SOL    HW122331   2.420  11.201   8.455 -1.4267 -1.2746 -0.1174
37467SOL    HW222332   2.378  11.333   8.515 -0.5306 -0.3364 -1.4914
37468SOL     OW22333   9.215   4.029   7.833  0.0447  0.3848  0.4381
37468SOL    HW122334   9.161   4.092   7.785  0.2828  1.1459  1.1525
37468SOL    HW222335   9.194   3.945   7.793 -0.4763  0.8782 -0.3592
37469SOL     OW22336   8.589   8.817   0.115 -0.6145  0.1102  0.5023
37469SOL    HW122337   8.646   8.894   0.102 -2.4012  1.2773 -0.9128
37469SOL    HW222338   8.610   8.760   0.041  0.4045 -0.6044  1.3179
37470SOL     OW22339   4.232  10.001   9.096  0.2357 -0.3484  0.0532
37470SOL    HW122340   4.217   9.980   9.004 -0.4473 -0.9953  0.3067
37470SOL    HW222341   4.166   9.951   9.144 -0.0584  0.7532  0.8301
37471SOL     OW22342   2.647   7.030   6.684  0.0708 -0.1509 -0.1861
37471SOL    HW122343   2.735   6.996   6.668  0.2080  1.2477 -3.1184
37471SOL    HW222344   2.657   7.090   6.757  1.4966 -0.2052 -0.3050
37472SOL     OW22345   1.257   6.204  10.075 -0.2220  0.3231 -0.1349
37472SOL    HW122346   1.275   6.267  10.006 -1.8052  0.5345 -0.3983
37472SOL    HW222347   1.164   6.215  10.094 -0.3179 -1.2610  0.4939
37473SOL     OW22348   9.959   1.834   0.755  0.0865  0.0339  0.3018
37473SOL    HW122349   9.871   1.845   0.792 -0.3572 -1.9105 -0.0707
37473SOL    HW222350   9.948   1.770   0.685  1.5527  0.9487 -0.8114
37474SOL     OW22351   0.634  10.867   0.489 -0.5663  0.2000 -0.0320
37474SOL    HW122352   0.664  10.777   0.475 -0.1941  0.4250 -0.7444
37474SOL    HW222353   0.541  10.866   0.465 -0.6124 -0.0331  0.1542
37475SOL     OW22354   2.130   7.355   8.969 -0.1785  0.7332 -0.2601
37475SOL    HW122355   2.112   7.270   8.930  2.0174  0.1647 -0.1637
37475SOL    HW222356   2.044   7.388   8.997 -0.9064 -2.3676  1.5948
37476SOL     OW22357   9.485   3.315   2.770 -0.2382  0.5738  0.5459
37476SOL    HW122358   9.570   3.274   2.786 -0.5465 -0.0749  0.5806
37476SOL    HW222359   9.478   3.320   2.674 -0.7196 -0.6314  0.4894
37477SOL     OW22360  12.717  11.979   9.627 -0.4405 -0.0592 -0.3989
37477SOL    HW122361  12.684  11.991   9.716 -0.9623  0.2632 -0.6339
37477SOL    HW222362  12.806  12.015   9.630  0.3107 -1.8770  0.5000
37478SOL     OW22363   6.215   7.845   4.927 -0.4592 -0.2700  0.3138
37478SOL    HW122364   6.134   7.867   4.974  0.0178  0.7093  0.6986
37478SOL    HW222365   6.231   7.753   4.950 -1.5692 -0.5497  0.0524
37479SOL     OW22366   2.246  12.813   3.541  0.2864  0.5195 -0.5746
37479SOL    HW122367   2.170  12.786   3.593 -0.3888  2.3340 -0.5492
37479SOL    HW222368   2.218  12.894   3.498  2.5203  1.7644  0.1605
37480SOL     OW22369   8.612   1.585  11.467 -0.0069 -0.0457 -0.0957
37480SOL    HW122370   8.623   1.494  11.496  0.4459  0.3950  1.2139
37480SOL    HW222371   8.567   1.579  11.383  0.3994 -1.4956 -0.2314
37481SOL     OW22372   6.879  11.992   5.335  0.2856  0.3715  0.1975
37481SOL    HW122373   6.865  11.981   5.241 -1.8126 -1.5372  0.6487
37481SOL    HW222374   6.946  11.927   5.358  0.3047  0.3709  0.1395
37482SOL     OW22375   5.982   2.676   5.939  0.1000 -0.1717  0.5028
37482SOL    HW122376   6.076   2.679   5.924 -0.0004  0.2247 -0.0983
37482SOL    HW222377   5.956   2.587   5.915  0.3230 -0.2900  0.6991
37483SOL     OW22378   2.796   0.965   0.455  0.6305 -0.3824  0.2959
37483SOL    HW122379   2.789   1.058   0.435  1.0034 -0.5037 -0.4266
37483SOL    HW222380   2.890   0.950   0.469  0.4472 -0.4021  1.7077
37484SOL     OW22381   4.435   3.031   9.466 -0.6022  0.2558  0.0436
37484SOL    HW122382   4.386   3.111   9.445 -2.5868 -0.8584  0.1580
37484SOL    HW222383   4.455   2.993   9.380  3.5653  2.5343 -0.2588
37485SOL     OW22384   3.003   2.483  12.663 -0.2902  0.7743 -0.0744
37485SOL    HW122385   3.061   2.513  12.733 -0.0295  1.6931 -0.6690
37485SOL    HW222386   3.061   2.434  12.605 -0.2086  1.2547 -0.4008
37486SOL     OW22387   2.245   3.060   4.170 -0.2251  0.1229  0.0793
37486SOL    HW122388   2.162   3.080   4.213  0.1924 -0.0317  0.9735
37486SOL    HW222389   2.297   3.139   4.181 -0.0609  0.0261 -0.0070
37487SOL     OW22390   7.823   0.830  10.150  0.3493 -0.7206 -0.2328
37487SOL    HW122391   7.836   0.778  10.229 -1.9165 -0.0777  0.6309
37487SOL    HW222392   7.786   0.769  10.087 -0.1991 -0.6841  0.0469
37488SOL     OW22393   1.482   7.818  10.414 -0.3384 -0.2873 -0.3231
37488SOL    HW122394   1.512   7.908  10.400 -0.1377 -0.0002  1.7423
37488SOL    HW222395   1.546   7.765  10.367  1.8511  0.4845  1.6015
37489SOL     OW22396   3.785   3.352   6.681 -0.7121  0.1193 -0.0418
37489SOL    HW122397   3.755   3.334   6.770  0.6252  0.4663  0.5148
37489SOL    HW222398   3.817   3.443   6.685 -0.6459  0.1342 -0.8676
37490SOL     OW22399   5.289   9.667   4.300 -0.2803 -0.2724  0.0685
37490SOL    HW122400   5.335   9.652   4.382 -0.1627 -0.0342  0.0462
37490SOL    HW222401   5.312   9.756   4.275 -0.8898 -0.0869  0.1476
37491SOL     OW22402   9.812   6.858  13.087 -0.5442 -0.0300 -0.6202
37491SOL    HW122403   9.780   6.935  13.134 -1.6783 -0.0790 -1.2854
37491SOL    HW222404   9.903   6.849  13.116 -0.8810  0.5789  0.7261
37492SOL     OW22405   4.173   3.955   6.980  0.5674 -0.3377 -0.2077
37492SOL    HW122406   4.089   3.984   6.944  0.7841  0.7570  0.1240
37492SOL    HW222407   4.199   3.883   6.923 -1.3312 -1.7687  0.6205
37493SOL     OW22408   2.584   8.637   1.211 -0.3885 -0.2343  0.1584
37493SOL    HW122409   2.496   8.612   1.183  0.0976 -1.2824 -0.5344
37493SOL    HW222410   2.589   8.731   1.195 -1.0242 -0.3520 -0.8372
37494SOL     OW22411   1.336   4.859  11.571  0.5149 -0.4568 -0.3743
37494SOL    HW122412   1.363   4.773  11.603 -0.7596 -1.4633 -1.8725
37494SOL    HW222413   1.258   4.842  11.518 -1.1094  1.9017  1.0804
37495SOL     OW22414   5.108  10.856  10.596  0.3811  0.6356  0.1664
37495SOL    HW122415   5.152  10.816  10.521  1.5225 -0.5697  1.4328
37495SOL    HW222416   5.017  10.827  10.590  0.8502 -0.9197  0.1960
37496SOL     OW22417  10.172   7.451   4.558 -0.3840  0.2278  0.4005
37496SOL    HW122418  10.258   7.442   4.599 -0.7941  1.1243  1.5155
37496SOL    HW222419  10.118   7.493   4.625 -2.3012 -2.2175  0.4929
37497SOL     OW22420   0.874  10.642  11.330  0.2729  0.3383  0.1326
37497SOL    HW122421   0.906  10.552  11.323  0.0730  0.3605 -1.3980
37497SOL    HW222422   0.908  10.673  11.414 -0.5898 -1.5144  1.2208
37498SOL     OW22423  12.024   0.353   2.658  0.4798 -0.1879 -0.4443
37498SOL    HW122424  12.048   0.392   2.742 -1.1251  0.8254 -0.3996
37498SOL    HW222425  12.035   0.259   2.671  0.7592 -0.0084  0.7296
37499SOL     OW22426   6.802   6.418  10.167 -0.2107 -0.2318  0.1020
37499SOL    HW122427   6.751   6.375  10.236 -1.1335  0.9230  0.1840
37499SOL    HW222428   6.808   6.354  10.097 -1.4266 -0.5442  0.2689
37500SOL     OW22429  12.369  11.124  11.864  0.0818  0.4062  0.0317
37500SOL    HW122430  12.453  11.079  11.862 -1.2527 -2.2550 -0.6530
37500SOL    HW222431  12.367  11.175  11.783  2.1385  2.8853  1.4114
37501SOL     OW22432   6.583   9.931   2.696 -0.5382  0.0648 -0.3738
37501SOL    HW122433   6.666   9.914   2.742 -0.6055 -1.1847 -0.6926
37501SOL    HW222434   6.607   9.929   2.603 -0.6546  1.2656 -0.4497
37502SOL     OW22435  12.435   9.450   6.643  0.0583 -0.1959  0.3236
37502SOL    HW122436  12.361   9.411   6.690  0.3098 -0.2128  0.7128
37502SOL    HW222437  12.395   9.494   6.568 -0.4188  0.3540  0.8912
37503SOL     OW22438   5.171   9.422   6.451  0.1848  0.2468 -0.0830
37503SOL    HW122439   5.171   9.429   6.547  1.2937 -1.8765  0.1307
37503SOL    HW222440   5.109   9.352   6.432  0.3602  0.2965 -0.8838
37504SOL     OW22441  11.661   8.306   7.596  0.5348 -0.0095 -0.2724
37504SOL    HW122442  11.619   8.237   7.544 -0.2195 -0.5949  1.0497
37504SOL    HW222443  11.720   8.259   7.654  1.5554  0.6545 -0.7515
37505SOL     OW22444   7.507   8.366   6.491 -0.9742 -0.0418 -0.2325
37505SOL    HW122445   7.490   8.456   6.463 -0.0089  0.3899  0.5259
37505SOL    HW222446   7.602   8.359   6.494 -1.0286 -0.4814  1.5504
37506SOL     OW22447  13.125  13.021  12.007  0.0059  0.0779  0.1914
37506SOL    HW122448  13.138  12.964  11.931 -0.6109  0.5420 -0.2611
37506SOL    HW222449  13.212  13.059  12.024 -0.1177  0.9737 -1.0838
37507SOL     OW22450   0.155   4.748   5.325  0.3530 -0.2115  0.0233
37507SOL    HW122451   0.130   4.718   5.238 -0.4053  1.4426 -0.3742
37507SOL    HW222452   0.076   4.790   5.360  0.9864  0.1890  1.0234
37508SOL     OW22453   4.123   4.899  12.300  0.0983 -0.0285  0.3187
37508SOL    HW122454   4.030   4.906  12.322  0.0898 -0.0639  0.2963
37508SOL    HW222455   4.152   4.989  12.288 -0.5682 -0.0868 -2.3059
37509SOL     OW22456   5.516   0.925   4.646  0.0402  0.1731 -0.1125
37509SOL    HW122457   5.464   0.955   4.720 -1.7303 -0.4989 -1.0459
37509SOL    HW222458   5.476   0.842   4.619  1.4109 -0.2305 -1.0715
37510SOL     OW22459   8.019  11.929   3.030  0.2788 -0.2054 -0.4563
37510SOL    HW122460   8.110  11.961   3.026  0.1955  0.2009  0.6367
37510SOL    HW222461   8.024  11.849   3.081 -0.2682  1.0356  1.6482
37511SOL     OW22462  13.035   6.752   2.097  0.8396 -0.7339 -0.0760
37511SOL    HW122463  13.065   6.776   2.009 -2.1447  1.2289 -0.7419
37511SOL    HW222464  13.003   6.662   2.088  3.6004 -1.8287 -0.0147
37512SOL     OW22465  11.358   2.910   5.698 -0.0205  0.0222  0.5044
37512SOL    HW122466  11.432   2.962   5.729  0.4876 -0.1042 -0.4546
37512SOL    HW222467  11.286   2.973   5.687  0.7124  0.6234 -1.0750
37513SOL     OW22468   8.275   4.266   3.072  0.1028 -0.3807 -0.2742
37513SOL    HW122469   8.205   4.203   3.057  0.4108 -0.6882 -0.4530
37513SOL    HW222470   8.275   4.279   3.167  0.6988 -1.4419 -0.1063
37514SOL     OW22471   9.919   1.243   3.591 -0.1441  0.0623 -0.0392
37514SOL    HW122472   9.882   1.255   3.504  0.7420 -1.2374 -0.6262
37514SOL    HW222473  10.011   1.267   3.582 -0.2328  0.7687  0.7684
37515SOL     OW22474   3.871   4.902   6.125  0.6444  0.0522  0.3611
37515SOL    HW122475   3.844   4.986   6.163  0.9467 -0.0038  0.7047
37515SOL    HW222476   3.789   4.860   6.099  0.4695  0.3166  0.4867
37516SOL     OW22477   7.706  12.783   1.858  0.1842 -0.1094  0.1417
37516SOL    HW122478   7.739  12.693   1.868 -1.0948 -0.8597 -1.8320
37516SOL    HW222479   7.744  12.812   1.775 -0.6921  0.5790 -0.0229
37517SOL     OW22480   1.020   4.125   6.111 -0.3129  0.0221 -0.5656
37517SOL    HW122481   0.985   4.094   6.194  1.2040 -1.7408 -0.5072
37517SOL    HW222482   0.993   4.059   6.047  0.3940  0.1783 -1.0433
37518SOL     OW22483   0.322   6.876   2.698 -0.0443 -0.0524 -0.0711
37518SOL    HW122484   0.241   6.826   2.698  0.2402 -0.5246 -0.7905
37518SOL    HW222485   0.389   6.814   2.729 -0.0989  0.5982  1.4365
37519SOL     OW22486   4.677   9.850   4.305  0.2966  0.3447 -0.0181
37519SOL    HW122487   4.731   9.927   4.286  0.3235  0.2476 -0.3341
37519SOL    HW222488   4.649   9.863   4.396  0.7317  0.4705  0.1042
37520SOL     OW22489   3.870   5.045   1.017 -0.1183 -0.1711  0.2708
37520SOL    HW122490   3.917   5.017   0.939 -0.0795 -0.4494  0.3908
37520SOL    HW222491   3.788   5.082   0.985  0.3620  0.7000  0.0353
37521SOL     OW22492   0.689   6.523   4.343 -0.0399  0.3058 -0.2796
37521SOL    HW122493   0.596   6.545   4.349  0.2664  1.0906  2.6271
37521SOL    HW222494   0.732   6.578   4.408  2.1515 -1.7663  0.1785
37522SOL     OW22495   1.228   6.096   0.747 -0.1418 -0.5736  0.2249
37522SOL    HW122496   1.136   6.121   0.746 -0.2993 -1.1225 -0.6968
37522SOL    HW222497   1.227   6.000   0.756  0.1654 -1.0340 -3.2866
37523SOL     OW22498   0.486  12.465   8.532  0.1836  0.1166 -0.0220
37523SOL    HW122499   0.430  12.442   8.457  0.1771 -0.4758  0.1624
37523SOL    HW222500   0.505  12.558   8.519  0.6235 -0.0945 -1.0603
37524SOL     OW22501   2.972   6.487  10.395  0.1721 -0.4550  0.1769
37524SOL    HW122502   2.907   6.468  10.462 -1.2251 -0.2323 -1.0483
37524SOL    HW222503   2.924   6.478  10.312  1.5084  0.4825 -0.7469
37525SOL     OW22504   5.168   6.391   2.993 -0.9792  0.5616 -0.0177
37525SOL    HW122505   5.082   6.421   2.964 -1.9286 -1.8993 -0.0143
37525SOL    HW222506   5.149   6.321   3.055  0.8952 -2.1547 -2.2462
37526SOL     OW22507   2.574   2.015  11.684  0.3186 -0.4106  0.1335
37526SOL    HW122508   2.661   1.980  11.701 -0.1903 -1.6096  0.3661
37526SOL    HW222509   2.588   2.087  11.622  1.4109 -1.0091 -0.3320
37527SOL     OW22510   6.610   5.985  11.352  0.0510  0.2699 -1.0461
37527SOL    HW122511   6.568   5.962  11.269  0.4249 -1.2533 -0.8372
37527SOL    HW222512   6.603   6.080  11.357 -6.3687  0.1924  0.4820
37528SOL     OW22513   3.046   0.472   9.812 -0.4129 -0.0598  0.3861
37528SOL    HW122514   3.055   0.424   9.729 -0.5338 -1.6203  1.2322
37528SOL    HW222515   3.124   0.527   9.816 -0.1389 -0.3562 -0.5216
37529SOL     OW22516   7.490  12.500   9.047  0.3837 -0.3722 -0.6215
37529SOL    HW122517   7.583  12.510   9.064  0.4079 -0.4762 -0.6919
37529SOL    HW222518   7.486  12.452   8.964  0.2871  1.4988 -1.7652
37530SOL     OW22519   2.423   8.837   5.853  0.2849  0.0730  0.1644
37530SOL    HW122520   2.340   8.789   5.852  0.2449  0.1409  0.1724
37530SOL    HW222521   2.470   8.807   5.776  0.2870 -0.0269  0.2044
37531SOL     OW22522   0.992   4.227   3.788  0.5110  0.4992  0.0410
37531SOL    HW122523   1.056   4.210   3.718 -0.7685  1.5409 -1.4500
37531SOL    HW222524   1.006   4.318   3.812  0.8037  0.2053  1.0475
37532SOL     OW22525   6.657   5.762   0.695  0.1955  0.1850  0.1240
37532SOL    HW122526   6.656   5.709   0.774  0.0667  0.3746  0.2513
37532SOL    HW222527   6.565   5.770   0.669  0.2236  0.2528  0.0421
37533SOL     OW22528  12.989  10.472   2.610  0.1199  0.7162  0.1421
37533SOL    HW122529  13.052  10.491   2.680  1.4163  0.5478 -0.9445
37533SOL    HW222530  12.919  10.536   2.623  0.4647  0.8637  1.4186
37534SOL     OW22531  10.944  13.310   0.576 -0.2105  0.3163  0.5873
37534SOL    HW122532  11.039  13.322   0.584 -0.2621 -0.1368  2.2213
37534SOL    HW222533  10.912  13.316   0.666 -1.8938  1.5983 -0.0483
37535SOL     OW22534  10.985  11.086  12.717 -0.6676  0.4295 -0.4085
37535SOL    HW122535  11.072  11.122  12.734 -0.8777  0.8769 -0.2567
37535SOL    HW222536  10.988  11.055  12.627 -0.2763  0.2232 -0.3252
37536SOL     OW22537   8.520   5.666  11.803 -0.5759 -0.2743  0.5777
37536SOL    HW122538   8.519   5.732  11.872  0.4673  1.3896 -0.9176
37536SOL    HW222539   8.599   5.614  11.820 -1.8321 -1.7665  2.2365
37537SOL     OW22540   4.975  11.586  12.909 -0.7423 -0.1765 -0.2056
37537SOL    HW122541   4.941  11.567  12.822 -0.9173 -0.7640 -0.0144
37537SOL    HW222542   4.907  11.637  12.952  0.0071  1.5326 -0.9562
37538SOL     OW22543   0.461   0.906   4.638  0.5210 -0.1621 -0.4518
37538SOL    HW122544   0.505   0.989   4.623  1.9454 -0.8935 -0.4816
37538SOL    HW222545   0.444   0.904   4.732  1.3900 -0.2601 -0.2906
37539SOL     OW22546   0.063  13.208   2.342  0.0523  0.3856 -0.0470
37539SOL    HW122547   0.038  13.116   2.354  1.8106  0.0395  1.2174
37539SOL    HW222548   0.154  13.205   2.312  0.6702  1.7102  1.5097
37540SOL     OW22549   0.396   5.596   7.514 -1.0158 -0.2870  0.3958
37540SOL    HW122550   0.459   5.539   7.556  3.6168  4.0611  0.2607
37540SOL    HW222551   0.356   5.645   7.586 -0.5233  0.3019  0.2792
37541SOL     OW22552   8.272   1.771   5.809  0.1060  0.6049 -0.0017
37541SOL    HW122553   8.340   1.749   5.872  0.2364  0.3682 -0.2223
37541SOL    HW222554   8.305   1.739   5.725  1.7366  4.4165 -0.9879
37542SOL     OW22555  10.406  10.338   3.049 -0.3468 -0.0837 -0.3066
37542SOL    HW122556  10.401  10.433   3.055  1.0398  0.1729 -2.1919
37542SOL    HW222557  10.483  10.315   3.102 -0.0619 -0.0275 -0.6904
37543SOL     OW22558  12.281   1.143   3.923 -0.2489  0.1948 -0.0222
37543SOL    HW122559  12.330   1.093   3.857 -1.5830 -3.1990  1.2844
37543SOL    HW222560  12.198   1.164   3.880  0.4972  1.8255 -0.7341
37544SOL     OW22561   5.299  12.498  13.286 -0.4343  0.0828  0.2252
37544SOL    HW122562   5.248  12.579  13.273 -1.4707 -0.6932 -0.8079
37544SOL    HW222563   5.234  12.428  13.280  0.8158 -1.0110 -1.9951
37545SOL     OW22564   1.715   6.422  12.962 -0.7758 -0.2367 -0.4788
37545SOL    HW122565   1.685   6.405  12.873 -1.1511 -1.7511 -0.0897
37545SOL    HW222566   1.685   6.346  13.013 -0.7619  0.6946  0.9856
37546SOL     OW22567   0.016   4.140   3.019 -0.5925  0.0927  0.5101
37546SOL    HW122568   0.081   4.207   3.038 -0.8280  0.6182 -0.4454
37546SOL    HW222569  -0.061   4.166   3.070 -0.4634  0.1789  0.6604
37547SOL     OW22570   8.728   6.493  12.221 -0.3813 -0.0070  0.2901
37547SOL    HW122571   8.810   6.447  12.241 -0.6627 -0.3203  0.7361
37547SOL    HW222572   8.752   6.585  12.222  0.2026 -0.1241 -0.6622
37548SOL     OW22573   2.716   3.444   1.791 -0.5094 -0.5734  0.6560
37548SOL    HW122574   2.641   3.384   1.783 -0.7704 -0.4044  1.7193
37548SOL    HW222575   2.786   3.390   1.826 -0.4334 -0.4913  0.6300
37549SOL     OW22576   5.588   8.848   6.987  0.7631  0.0565  0.0797
37549SOL    HW122577   5.610   8.772   6.933  1.7185  0.0444  0.4692
37549SOL    HW222578   5.642   8.838   7.066 -0.8766 -0.1405  1.2431
37550SOL     OW22579   7.054   3.635   0.253  0.7101  0.9895  0.0962
37550SOL    HW122580   7.115   3.656   0.182  1.2060  1.5470  0.6710
37550SOL    HW222581   7.047   3.716   0.304  0.3136  0.6223  0.6491
37551SOL     OW22582   6.586   7.188   8.154 -1.5171  0.1959  0.1965
37551SOL    HW122583   6.671   7.195   8.197 -1.1407  1.9186 -0.7667
37551SOL    HW222584   6.561   7.096   8.167 -0.7138  0.2608  2.6805
37552SOL     OW22585   1.774   6.899  12.739  0.3337 -0.6081  0.2250
37552SOL    HW122586   1.719   6.923  12.664  0.5316 -1.7573 -0.3097
37552SOL    HW222587   1.724   6.831  12.784  0.4683 -0.3108  0.8387
37553SOL     OW22588  10.047   7.223   5.920  0.5988 -0.0425 -0.0904
37553SOL    HW122589   9.996   7.156   5.965 -1.2672  2.2058  1.4342
37553SOL    HW222590  10.040   7.200   5.827  0.4494 -2.1771  0.3898
37554SOL     OW22591   2.272   9.035   4.616 -0.0296  0.4695 -0.3403
37554SOL    HW122592   2.366   9.046   4.631 -0.0330  0.1340 -0.0626
37554SOL    HW222593   2.233   9.118   4.645  0.0409  0.1054  0.8394
37555SOL     OW22594  10.946   0.901   4.730 -0.5071  0.1861 -0.4451
37555SOL    HW122595  10.937   0.842   4.805 -1.1595  0.4682 -0.2900
37555SOL    HW222596  10.916   0.849   4.655 -0.6073  0.1542 -0.3843
37556SOL     OW22597   2.709  10.637   4.710 -0.3204 -0.4706  0.2881
37556SOL    HW122598   2.651  10.577   4.757 -2.2680  1.8129  0.9939
37556SOL    HW222599   2.664  10.721   4.713  2.6229  1.2438 -0.0265
37557SOL     OW22600   2.894   3.630   2.557 -0.3599  0.1844  0.2555
37557SOL    HW122601   2.967   3.587   2.603 -1.1225  0.8219  2.1750
37557SOL    HW222602   2.844   3.558   2.519  0.9251 -0.2980 -0.5692
37558SOL     OW22603   1.626   8.984  11.724  0.1548  0.5850  0.1834
37558SOL    HW122604   1.536   9.004  11.747  0.0379  0.1094  0.1482
37558SOL    HW222605   1.619   8.909  11.665  0.6138  0.1006  0.7348
37559SOL     OW22606   0.304   4.628   5.565  0.4085  0.0800 -0.2447
37559SOL    HW122607   0.224   4.653   5.518  0.9081  0.3591 -0.9574
37559SOL    HW222608   0.312   4.693   5.635  0.2995  0.3625 -0.4948
37560SOL     OW22609   4.860   8.210  11.088 -0.2896 -0.4760  0.7285
37560SOL    HW122610   4.937   8.172  11.046 -0.5741  0.0008 -0.2560
37560SOL    HW222611   4.809   8.247  11.016 -0.7314  0.4874  1.5098
37561SOL     OW22612  11.928  12.749   1.100  0.3894 -0.1319  0.1551
37561SOL    HW122613  11.905  12.665   1.138  1.9350 -0.2160  0.9881
37561SOL    HW222614  12.018  12.765   1.130  0.6743  1.0899 -1.2414
37562SOL     OW22615   1.384   5.540  11.382 -0.0058 -0.4262 -0.6407
37562SOL    HW122616   1.469   5.508  11.413  0.8650  1.2997 -1.1492
37562SOL    HW222617   1.360   5.480  11.311 -0.0520 -1.9234  0.5827
37563SOL     OW22618   5.800   6.184   2.231  0.4633  0.5240 -0.3155
37563SOL    HW122619   5.793   6.090   2.216 -0.9650  0.3919  0.9750
37563SOL    HW222620   5.885   6.208   2.194  1.0259 -1.3366 -0.3189
37564SOL     OW22621   8.263  12.422   9.917  0.1021  0.3113 -0.3880
37564SOL    HW122622   8.224  12.389   9.998  0.3967 -0.2685 -0.4771
37564SOL    HW222623   8.202  12.489   9.886  0.6562  1.5330  1.0314
37565SOL     OW22624   5.604   6.723   9.779  0.4681 -0.2117  0.8367
37565SOL    HW122625   5.680   6.665   9.778  0.4791 -0.2080 -0.4829
37565SOL    HW222626   5.534   6.672   9.737  0.4379  0.6594 -0.1987
37566SOL     OW22627   3.107   8.025  12.285  0.1282 -0.1839  0.4893
37566SOL    HW122628   3.127   7.932  12.283  1.9216  0.1795 -1.5074
37566SOL    HW222629   3.091   8.049  12.194  1.4393  1.7617  0.7046
37567SOL     OW22630   3.860   9.651  11.199  0.5561 -0.1682  0.3609
37567SOL    HW122631   3.865   9.742  11.230  0.4222 -0.2578  0.6462
37567SOL    HW222632   3.904   9.600  11.266  1.0906 -0.2572 -0.0513
37568SOL     OW22633   4.674   0.487   4.971 -0.2014  0.1271 -0.2442
37568SOL    HW122634   4.706   0.468   5.059 -0.7582 -0.5437 -0.1805
37568SOL    HW222635   4.586   0.449   4.968 -0.0315 -0.2170 -1.2283
37569SOL     OW22636   7.895   3.821   4.010  0.1472 -0.0685 -0.0258
37569SOL    HW122637   7.837   3.887   4.048 -0.3081  0.6009 -1.7832
37569SOL    HW222638   7.983   3.855   4.025  0.0197 -0.2036  1.0807
37570SOL     OW22639   9.773   6.483   5.263  1.0321 -0.1984 -0.6012
37570SOL    HW122640   9.837   6.415   5.283  0.3528 -0.8708 -0.6758
37570SOL    HW222641   9.786   6.501   5.169  1.7087  0.3166 -0.4222
37571SOL     OW22642   1.497   9.615   5.072  0.0151  0.5533  0.5618
37571SOL    HW122643   1.444   9.642   4.997  1.2128 -1.1913 -1.0145
37571SOL    HW222644   1.488   9.520   5.073  2.1577  0.3119  0.9460
37572SOL     OW22645   3.757   6.476  10.267  0.5616 -0.5998  0.3540
37572SOL    HW122646   3.710   6.395  10.247  1.2219 -0.9680  0.2619
37572SOL    HW222647   3.701   6.545  10.231 -0.7533 -0.8855  1.7650
37573SOL     OW22648  11.293  12.253  11.134 -0.4987  0.2902  0.4346
37573SOL    HW122649  11.364  12.189  11.124  0.6016  1.6193 -0.5975
37573SOL    HW222650  11.327  12.318  11.195 -0.5394  1.3141 -0.6057
37574SOL     OW22651  13.218   0.355   0.383  0.0030  0.4056  0.2331
37574SOL    HW122652  13.198   0.296   0.310  1.5570  1.0114 -0.7195
37574SOL    HW222653  13.174   0.314   0.458 -1.6598 -0.2279 -1.0033
37575SOL     OW22654   7.700  11.507  12.453  0.5863  0.1832  0.4222
37575SOL    HW122655   7.662  11.441  12.511 -0.6598  0.6196  0.1232
37575SOL    HW222656   7.775  11.462  12.413  0.1125 -0.8589  0.6678
37576SOL     OW22657   0.658   6.116   9.750 -0.5109  0.0902  0.4324
37576SOL    HW122658   0.580   6.154   9.710 -0.8175  0.2840  1.1982
37576SOL    HW222659   0.729   6.177   9.729 -0.5763 -0.0524 -0.2088
37577SOL     OW22660   9.180   4.759   5.674 -0.2049  0.5268  0.3172
37577SOL    HW122661   9.259   4.786   5.629  0.9188 -0.4203  1.6288
37577SOL    HW222662   9.173   4.665   5.656 -0.9566  0.5716  0.3262
37578SOL     OW22663   4.441   5.889   5.200 -0.0157 -0.6476 -0.3140
37578SOL    HW122664   4.455   5.794   5.195  0.8277 -0.5082 -4.1929
37578SOL    HW222665   4.525   5.925   5.228  1.2465 -0.9590 -3.2565
37579SOL     OW22666   8.502  11.310   1.011 -0.4991  0.1494  0.2434
37579SOL    HW122667   8.451  11.275   0.938 -1.0759  1.5584 -0.0586
37579SOL    HW222668   8.452  11.386   1.041  1.0777  1.1963  0.3455
37580SOL     OW22669  13.063  11.858  11.914  0.1508 -0.2099 -0.0596
37580SOL    HW122670  13.075  11.837  11.821 -0.3841  2.5887 -0.8643
37580SOL    HW222671  13.147  11.837  11.954  1.0185  0.2359 -1.5661
37581SOL     OW22672  12.275   1.465  10.401 -0.1005 -0.0059  0.1280
37581SOL    HW122673  12.190   1.510  10.403  0.2690  0.9520 -2.1761
37581SOL    HW222674  12.270   1.410  10.322  0.8734 -1.1380  0.8249
37582SOL     OW22675   7.575  12.503   1.975  0.1973 -0.8222 -0.0214
37582SOL    HW122676   7.665  12.507   2.009  0.0799 -1.4895  0.3725
37582SOL    HW222677   7.521  12.540   2.045  0.4625  2.9592 -1.5652
37583SOL     OW22678   2.734   0.560   0.437 -0.2503  0.1071  0.1047
37583SOL    HW122679   2.740   0.555   0.532  1.4777  0.2869  0.0467
37583SOL    HW222680   2.693   0.644   0.419 -0.2257  0.2455  0.6976
37584SOL     OW22681  10.553   2.820  12.986 -0.0388  0.0822  0.0297
37584SOL    HW122682  10.619   2.888  12.982 -0.5740  0.7122  1.2079
37584SOL    HW222683  10.593   2.750  13.038  0.0158  0.1062  0.0196
37585SOL     OW22684   4.764   2.472   8.288  0.1895 -0.1353 -0.1287
37585SOL    HW122685   4.776   2.435   8.200  0.5012 -0.5192  0.0729
37585SOL    HW222686   4.670   2.492   8.292  0.4961  1.7753 -1.2668
37586SOL     OW22687   3.544  11.155   6.092 -0.1601 -0.1557 -0.2720
37586SOL    HW122688   3.581  11.210   6.162 -1.4993  0.4022  0.0297
37586SOL    HW222689   3.481  11.212   6.048 -0.9886 -1.2023 -0.4725
37587SOL     OW22690   4.559   7.815   7.446 -0.6327  0.1281 -0.0262
37587SOL    HW122691   4.632   7.773   7.492 -0.4920 -0.6844 -0.9576
37587SOL    HW222692   4.519   7.744   7.396 -1.2554  0.8408 -0.5574
37588SOL     OW22693  10.294  11.246  12.627  0.2257  0.3565 -0.3276
37588SOL    HW122694  10.294  11.337  12.657 -0.0226 -0.0846  1.0844
37588SOL    HW222695  10.219  11.240  12.569  0.6750  1.2296 -1.0199
37589SOL     OW22696   8.401   9.179  12.859 -0.0215  0.7066  0.2065
37589SOL    HW122697   8.313   9.213  12.841  0.3003  0.2127 -2.7680
37589SOL    HW222698   8.449   9.193  12.777  1.4602 -2.7049  0.3393
37590SOL     OW22699   3.677  12.504   4.515  0.1243  0.3821 -0.6353
37590SOL    HW122700   3.625  12.500   4.596 -0.0024 -0.2693 -0.7405
37590SOL    HW222701   3.647  12.429   4.464 -1.3178  1.9701 -2.2418
37591SOL     OW22702   8.177   1.470  11.493  0.6994 -0.1979 -0.0007
37591SOL    HW122703   8.198   1.383  11.525  1.1328 -0.3100 -0.5720
37591SOL    HW222704   8.242   1.527  11.534 -1.6507  0.4810  3.2348
37592SOL     OW22705   3.011   7.769   1.444  0.3901  0.5830  0.3418
37592SOL    HW122706   3.053   7.792   1.527  0.1189 -0.2603  0.7214
37592SOL    HW222707   2.917   7.778   1.461  0.3628  1.4059 -0.1857
37593SOL     OW22708  10.835   1.664  12.287 -0.1121 -0.2120 -0.0381
37593SOL    HW122709  10.882   1.747  12.296  1.9477 -1.3074 -0.1332
37593SOL    HW222710  10.803   1.644  12.375 -0.0218  0.3334  0.1220
37594SOL     OW22711   9.760   6.488   3.155  0.1805 -0.0279 -0.3951
37594SOL    HW122712   9.759   6.573   3.112 -0.0938 -0.1106 -0.5598
37594SOL    HW222713   9.697   6.498   3.227 -0.2463 -0.2460 -0.7308
37595SOL     OW22714  12.557   0.904  12.007  0.2502 -0.1710 -0.8776
37595SOL    HW122715  12.639   0.856  12.022 -0.9501 -2.0072  0.1951
37595SOL    HW222716  12.513   0.856  11.937 -1.0057 -0.7436  0.2540
37596SOL     OW22717  11.550  11.536   3.286  0.7002 -0.6422  0.0551
37596SOL    HW122718  11.456  11.541   3.298  0.7202  0.3081 -0.1314
37596SOL    HW222719  11.587  11.585   3.359  0.9401  1.4709 -1.4020
37597SOL     OW22720   8.003   3.189   2.601  0.1348 -0.0988  0.2108
37597SOL    HW122721   7.968   3.180   2.690  1.2637  0.8538  0.7842
37597SOL    HW222722   8.074   3.125   2.598  0.5421  0.3471  0.2391
37598SOL     OW22723   1.441   7.675   7.764  0.3577 -0.5053 -0.2494
37598SOL    HW122724   1.461   7.604   7.824 -1.2446  0.5542  1.6647
37598SOL    HW222725   1.462   7.755   7.813  0.0346  0.3914 -1.5070
37599SOL     OW22726   8.025   1.355   3.559  0.4031 -0.3233 -0.4079
37599SOL    HW122727   8.032   1.328   3.651 -0.4629 -0.2191 -0.3035
37599SOL    HW222728   7.935   1.336   3.536  0.9056 -1.3611 -1.5703
37600SOL     OW22729   5.242   5.534  10.015 -0.0101  0.6656  0.9244
37600SOL    HW122730   5.151   5.545   9.985 -1.0237 -0.4165  3.3509
37600SOL    HW222731   5.248   5.588  10.094  0.4804 -1.5695  2.5120
37601SOL     OW22732   1.583   4.480  12.125  0.2852  0.1516  0.3871
37601SOL    HW122733   1.654   4.449  12.181  0.5795 -0.6517 -0.3984
37601SOL    HW222734   1.553   4.401  12.079  0.1443  0.7990 -0.6643
37602SOL     OW22735  11.061   7.996   3.678  0.1922  0.5477 -0.4342
37602SOL    HW122736  11.150   7.980   3.645 -0.4198 -0.9926 -1.4212
37602SOL    HW222737  11.022   8.055   3.613 -0.0271 -0.0621 -0.8586
37603SOL     OW22738  11.225  11.944   0.407 -0.0642  0.0276  0.1623
37603SOL    HW122739  11.178  11.864   0.430 -1.2091  1.3766  3.0556
37603SOL    HW222740  11.295  11.950   0.472 -0.4857  1.7101  0.5231
37604SOL     OW22741  10.817   7.265   2.877 -0.1300  0.0649 -0.7997
37604SOL    HW122742  10.856   7.217   2.950 -0.5891 -0.8470 -1.1340
37604SOL    HW222743  10.724   7.268   2.898 -0.1437  0.5594 -0.9280
37605SOL     OW22744  10.975  10.114   9.222  0.1368  0.4323  0.1455
37605SOL    HW122745  10.913  10.175   9.261  0.7854  0.6560  0.8624
37605SOL    HW222746  10.953  10.112   9.129  1.0246  2.9121 -0.1808
37606SOL     OW22747   9.019   6.462   8.579  0.0520 -0.5128  0.5142
37606SOL    HW122748   8.984   6.551   8.581 -0.3796 -0.6852  0.5492
37606SOL    HW222749   9.020   6.438   8.487 -0.0874 -0.5753  0.5297
37607SOL     OW22750   1.263   2.440  11.886 -0.2836 -0.1063  0.2535
37607SOL    HW122751   1.284   2.512  11.946 -1.2258 -0.6190  1.2184
37607SOL    HW222752   1.291   2.361  11.932 -1.5322 -0.5514  0.2640
37608SOL     OW22753   1.669   2.740   6.727 -0.0257  0.1621  0.3943
37608SOL    HW122754   1.736   2.764   6.663 -1.4194  1.9776 -0.4912
37608SOL    HW222755   1.650   2.822   6.773 -0.9025 -0.5443  1.3325
37609SOL     OW22756   1.330   3.933   8.216  0.0393 -0.1618 -0.4211
37609SOL    HW122757   1.326   4.029   8.207 -0.9677 -0.1440  0.0318
37609SOL    HW222758   1.328   3.918   8.310  0.6822 -0.6214 -0.4756
37610SOL     OW22759   3.443   7.793   2.451  0.1286  0.3055  0.1600
37610SOL    HW122760   3.527   7.839   2.449 -0.6673  1.8265  0.1963
37610SOL    HW222761   3.461   7.712   2.499  1.6274  0.4567 -0.0978
37611SOL     OW22762  11.010   6.624   9.124  0.1383 -0.8409 -0.1702
37611SOL    HW122763  10.932   6.570   9.125 -0.0918 -0.5653 -1.4001
37611SOL    HW222764  11.013   6.665   9.210 -1.0295 -0.9107 -0.0883
37612SOL     OW22765  12.795   1.302   4.913  0.4505  0.2785 -0.2752
37612SOL    HW122766  12.801   1.362   4.839 -1.4272  0.0951 -0.6229
37612SOL    HW222767  12.865   1.238   4.898  0.7254  0.8128 -1.3394
37613SOL     OW22768   3.378   0.293   4.186 -0.2770 -0.2350 -0.1199
37613SOL    HW122769   3.372   0.198   4.184 -0.8460 -0.2031 -2.3430
37613SOL    HW222770   3.468   0.312   4.158 -0.2341 -0.1156  0.0992
37614SOL     OW22771   0.568   1.567   4.085 -0.2644 -0.3277  0.3496
37614SOL    HW122772   0.561   1.478   4.050  0.7350 -0.4237  0.3714
37614SOL    HW222773   0.606   1.618   4.014  2.0740 -0.5916  1.3212
37615SOL     OW22774   0.038   4.041   5.469 -0.2010 -0.2437  0.0306
37615SOL    HW122775   0.016   4.046   5.375 -2.3938  2.8761  0.5473
37615SOL    HW222776  -0.012   3.966   5.501  0.5120 -1.3050 -1.2206
37616SOL     OW22777   1.644   8.369   3.006  0.3994 -0.9388  0.1105
37616SOL    HW122778   1.686   8.296   3.052  0.9257 -0.5512  0.2505
37616SOL    HW222779   1.587   8.326   2.942  0.9451 -1.4854 -0.0306
37617SOL     OW22780   6.330   7.089  13.005  0.0235  0.7965  0.4308
37617SOL    HW122781   6.332   7.136  12.922  1.9382  1.1469  0.6268
37617SOL    HW222782   6.422   7.081  13.031 -0.2232 -2.5337  0.7311
37618SOL     OW22783  12.004  10.589   3.103  0.8447 -0.0297  0.0903
37618SOL    HW122784  11.994  10.603   3.197 -1.0244  0.2728 -0.1333
37618SOL    HW222785  12.044  10.669   3.070  0.6525  0.2224  0.4749
37619SOL     OW22786   2.266   5.254  11.028  0.0600  0.5799 -0.5116
37619SOL    HW122787   2.302   5.192  10.964  1.0984  1.1579 -0.4997
37619SOL    HW222788   2.342   5.292  11.070 -0.5924  1.3027  0.0314
37620SOL     OW22789   7.013   7.264   5.600 -0.3880 -0.5859  0.2217
37620SOL    HW122790   7.024   7.357   5.585  1.1303 -0.3886  2.1522
37620SOL    HW222791   7.007   7.226   5.512  0.5953  1.1475 -0.6465
37621SOL     OW22792   5.607   3.731   0.395 -0.1918  0.2032 -0.0095
37621SOL    HW122793   5.557   3.668   0.342  1.0230 -1.3400  0.5876
37621SOL    HW222794   5.687   3.684   0.419 -0.0340  1.3551  1.9535
37622SOL     OW22795   1.603   5.436   1.633 -0.4734  0.1336  0.3264
37622SOL    HW122796   1.617   5.389   1.551 -0.0205 -1.1535  1.1183
37622SOL    HW222797   1.679   5.493   1.642 -2.0068  2.7489 -1.6995
37623SOL     OW22798  12.886  11.267   5.672 -0.2718 -0.6201  0.0960
37623SOL    HW122799  12.865  11.360   5.672  0.0269 -0.5355  1.3608
37623SOL    HW222800  12.934  11.253   5.590  0.0554  0.4247  0.1011
37624SOL     OW22801   1.573  10.072   8.417  0.5499 -0.5212  0.2757
37624SOL    HW122802   1.598  10.017   8.491  0.4090 -1.3217 -0.2613
37624SOL    HW222803   1.495  10.118   8.448  1.1235 -0.0127  1.0095
37625SOL     OW22804   9.940   0.945   1.888  0.0283 -0.1028  0.1611
37625SOL    HW122805   9.916   0.861   1.848 -0.8954  0.3804 -0.3308
37625SOL    HW222806   9.857   0.983   1.915  0.2321  1.4143 -1.1668
37626SOL     OW22807   9.018  12.128   6.582 -0.4147  0.4275 -0.2482
37626SOL    HW122808   9.084  12.190   6.614 -0.9207  1.0527 -0.3942
37626SOL    HW222809   8.950  12.183   6.542 -0.4723 -0.2653 -1.1449
37627SOL     OW22810   0.186   7.721   6.830 -0.4149  0.0977  0.0012
37627SOL    HW122811   0.171   7.795   6.889 -0.3348 -1.4946  2.1472
37627SOL    HW222812   0.098   7.694   6.804 -0.4726  0.5209 -0.2606
37628SOL     OW22813   0.357   3.751   3.616 -0.3360  0.1878  0.3082
37628SOL    HW122814   0.356   3.840   3.580 -0.2936  0.1747  0.2752
37628SOL    HW222815   0.420   3.754   3.688 -0.0278  0.0822  0.0456
37629SOL     OW22816  11.013   7.923   5.535  0.0307 -0.4910 -0.1932
37629SOL    HW122817  11.065   7.977   5.475 -1.4028  0.5506 -0.5519
37629SOL    HW222818  10.932   7.905   5.487 -1.3752  0.8072  1.5483
37630SOL     OW22819  12.029   1.651   4.999 -1.0052 -0.1178  0.1218
37630SOL    HW122820  11.952   1.633   5.052 -0.2077  1.3304  1.8600
37630SOL    HW222821  12.098   1.597   5.037 -0.5590  0.4936  0.1889
37631SOL     OW22822   8.868   7.330   4.809  0.0377  0.1625  0.6897
37631SOL    HW122823   8.864   7.293   4.721  1.6768  0.9701  0.2375
37631SOL    HW222824   8.957   7.309   4.840 -0.3630  0.2705  1.9828
37632SOL     OW22825   7.362   1.709   3.246 -0.8692 -0.9502  0.7235
37632SOL    HW122826   7.329   1.799   3.258  0.5492 -0.1962 -0.6685
37632SOL    HW222827   7.325   1.680   3.163 -1.1989 -1.6110  1.0942
37633SOL     OW22828   9.115   7.846   0.273 -0.1585 -0.1239  0.3526
37633SOL    HW122829   9.195   7.874   0.227  0.5637 -1.0993  0.9697
37633SOL    HW222830   9.096   7.760   0.238 -1.0880  0.1952  0.0572
37634SOL     OW22831  11.144  12.956  11.662  0.2643 -0.0362  0.0623
37634SOL    HW122832  11.128  13.050  11.645  1.4413  0.2555  0.5065
37634SOL    HW222833  11.235  12.942  11.634  0.1692 -1.0021  0.2143
37635SOL     OW22834   1.326   5.027   8.017 -0.2834 -0.3411  0.3349
37635SOL    HW122835   1.237   4.995   8.030 -0.6641  0.5931  0.0979
37635SOL    HW222836   1.320   5.084   7.941  0.6573 -0.7955 -0.0922
37636SOL     OW22837  10.875   2.861  13.188 -0.3343 -0.0197  0.6701
37636SOL    HW122838  10.945   2.817  13.139  1.2175 -1.1671  3.6741
37636SOL    HW222839  10.841   2.793  13.247 -3.0171  0.9385  0.3758
37637SOL     OW22840  10.480   7.274  12.999  0.7008 -0.0823 -0.2931
37637SOL    HW122841  10.443   7.362  13.006 -2.2414 -1.1600 -0.8396
37637SOL    HW222842  10.524   7.260  13.082 -2.2979  0.4967  1.5452
37638SOL     OW22843   5.998   5.298   1.739  0.4794 -0.2356  0.3345
37638SOL    HW122844   5.946   5.337   1.669  0.4297  0.3557  0.6991
37638SOL    HW222845   6.036   5.220   1.699 -0.7331 -0.7208  0.0881
37639SOL     OW22846   7.117  12.816  10.039  0.3824  0.1746  0.4625
37639SOL    HW122847   7.046  12.829  10.103  0.4617 -0.3769  0.6627
37639SOL    HW222848   7.153  12.730  10.060 -1.5359 -1.4467 -2.1977
37640SOL     OW22849   2.566  10.225   3.470  0.8587  0.3953 -0.1921
37640SOL    HW122850   2.481  10.262   3.448  0.5870  0.1994  0.5056
37640SOL    HW222851   2.551  10.130   3.470  0.9490  0.3747  0.3993
37641SOL     OW22852   2.732   2.721  10.685 -0.0702  0.3974 -0.1438
37641SOL    HW122853   2.796   2.701  10.754 -1.4468  1.2961  1.4883
37641SOL    HW222854   2.756   2.808  10.654  0.7837 -0.1646 -1.1227
37642SOL     OW22855  11.308   4.945   7.111 -0.1011  0.4716  0.2112
37642SOL    HW122856  11.256   4.951   7.191  0.8644 -0.9344  0.9915
37642SOL    HW222857  11.299   4.853   7.084  0.8109  0.5547 -0.4215
37643SOL     OW22858   3.720  12.906   5.459  0.2923 -0.6205 -0.4018
37643SOL    HW122859   3.764  12.935   5.539 -1.2804 -0.7215  0.5534
37643SOL    HW222860   3.674  12.984   5.428  1.2453 -0.4697 -1.4771
37644SOL     OW22861   6.396   3.969  11.286  0.2342 -0.2769  0.3863
37644SOL    HW122862   6.430   3.880  11.294 -0.9985 -0.7838  0.2181
37644SOL    HW222863   6.333   3.977  11.357  0.7216  0.6529  0.7233
37645SOL     OW22864   7.321  11.639   0.362 -0.2917 -0.0293 -0.0023
37645SOL    HW122865   7.244  11.690   0.339 -0.6341  0.0570  1.2805
37645SOL    HW222866   7.325  11.570   0.295 -2.4928 -1.0955  0.8540
37646SOL     OW22867   8.518   6.046  10.816 -0.2901 -0.0010 -0.7375
37646SOL    HW122868   8.431   6.008  10.831 -0.3944  0.4348 -0.2142
37646SOL    HW222869   8.578   5.983  10.855 -0.4215  0.0401 -0.4628
37647SOL     OW22870   3.735  10.733  10.228 -0.8105 -0.1913 -0.0043
37647SOL    HW122871   3.731  10.699  10.318 -0.8625 -1.5756 -0.5081
37647SOL    HW222872   3.646  10.720  10.194 -0.2941 -1.5212 -0.8888
37648SOL     OW22873   1.448   6.230  11.924  0.5460 -0.2555 -0.1747
37648SOL    HW122874   1.370   6.249  11.872  0.2258 -0.3695  0.2593
37648SOL    HW222875   1.418   6.165  11.989  0.8351  0.1948  0.4180
37649SOL     OW22876   3.148   3.339   9.862 -0.7936 -0.2485  0.2055
37649SOL    HW122877   3.089   3.302   9.927  1.3530 -1.8549  1.3853
37649SOL    HW222878   3.188   3.414   9.906 -0.2678 -0.5822  0.3172
37650SOL     OW22879   9.276   9.677   6.087 -0.3485 -0.1837  0.0388
37650SOL    HW122880   9.201   9.726   6.054 -0.1780 -0.3430 -0.6168
37650SOL    HW222881   9.304   9.723   6.166  0.6725  1.6141 -1.2949
37651SOL     OW22882   9.396   6.872  12.432  0.3551  0.0191  0.1564
37651SOL    HW122883   9.474   6.927  12.445  0.0143  0.2137  1.4180
37651SOL    HW222884   9.348   6.877  12.514 -1.5261  0.6949 -0.9129
37652SOL     OW22885   8.383   6.196   1.471  0.1814 -0.2830 -0.0147
37652SOL    HW122886   8.334   6.138   1.413 -0.6163  0.2240  0.1309
37652SOL    HW222887   8.474   6.173   1.456 -0.0466 -0.6453 -0.9484
37653SOL     OW22888   8.620   6.846   3.439 -0.5675  0.0749 -0.0219
37653SOL    HW122889   8.603   6.918   3.379  0.6568  0.0065 -0.4756
37653SOL    HW222890   8.649   6.889   3.520  0.4412  0.1003 -0.3854
37654SOL     OW22891  12.023   9.410   5.806  0.4191 -0.0193 -0.0207
37654SOL    HW122892  11.959   9.347   5.773  0.1827 -1.1864  2.4381
37654SOL    HW222893  11.973   9.492   5.814 -0.4671 -0.6153  0.7565
37655SOL     OW22894   1.712   4.716   0.865 -0.1971  0.1221 -0.3567
37655SOL    HW122895   1.774   4.662   0.816  0.2927  0.5611 -0.2345
37655SOL    HW222896   1.714   4.801   0.821  0.0514  0.4416  0.2519
37656SOL     OW22897   4.557   5.885   9.113 -0.3224 -0.1727 -0.4193
37656SOL    HW122898   4.533   5.902   9.022  1.5546  1.5468 -0.6731
37656SOL    HW222899   4.546   5.969   9.157  2.7864  0.1820 -0.0884
37657SOL     OW22900  10.072  11.008   4.050 -0.6911 -0.4543 -0.1157
37657SOL    HW122901  10.040  10.921   4.025 -2.1030  0.1276 -0.4048
37657SOL    HW222902   9.993  11.061   4.060  0.1159  0.6631  0.6202
37658SOL     OW22903  10.293   0.646   0.945 -0.2099 -0.0557 -0.1454
37658SOL    HW122904  10.251   0.730   0.966  0.6948  0.3816 -0.0297
37658SOL    HW222905  10.374   0.671   0.900  1.2320 -0.7809  1.9288
37659SOL     OW22906   1.220   3.084   3.773 -0.5115  0.9154  0.4824
37659SOL    HW122907   1.239   3.138   3.850  0.8414  1.2909 -0.0842
37659SOL    HW222908   1.125   3.088   3.764 -0.6156  1.5520  1.6370
37660SOL     OW22909  13.279   9.119  13.101  0.2621 -0.6672  0.1286
37660SOL    HW122910  13.258   9.149  13.013 -1.1952  2.1935  1.3254
37660SOL    HW222911  13.203   9.067  13.127 -0.5117  0.6236  0.5511
37661SOL     OW22912   1.135   4.398   2.461 -0.6032 -0.1925  0.0369
37661SOL    HW122913   1.107   4.312   2.431 -2.2726  0.7790 -1.3792
37661SOL    HW222914   1.214   4.416   2.410 -0.5795 -0.6473 -0.0951
37662SOL     OW22915  11.175   8.088   5.384 -0.4416 -0.4740 -0.4439
37662SOL    HW122916  11.220   8.172   5.383  0.3405 -0.8666  0.2649
37662SOL    HW222917  11.167   8.064   5.291  0.4103 -0.1777 -0.6064
37663SOL     OW22918   0.671   4.308  11.121  0.7595 -0.0889  0.4603
37663SOL    HW122919   0.678   4.291  11.027  0.8514  1.0128  0.2527
37663SOL    HW222920   0.601   4.250  11.151 -0.6866  0.9986 -0.6793
37664SOL     OW22921   7.177   6.017   2.267  0.6980  0.5165 -0.1160
37664SOL    HW122922   7.084   6.039   2.267  0.9281  1.5904  1.1479
37664SOL    HW222923   7.196   5.994   2.359  2.1848  2.6692  0.1820
37665SOL     OW22924   9.938   9.281   9.588 -0.3205 -0.1906 -0.4514
37665SOL    HW122925   9.890   9.208   9.549 -0.6262  0.2814 -0.9755
37665SOL    HW222926   9.933   9.351   9.522 -0.9515  0.6696  0.4762
37666SOL     OW22927   1.992  12.369   5.887  0.0827 -0.6859 -0.0260
37666SOL    HW122928   1.938  12.309   5.835 -0.6104 -0.5168  0.4737
37666SOL    HW222929   2.044  12.417   5.823  0.6870 -1.8462 -0.4363
37667SOL     OW22930   9.544  10.745  13.092 -0.1423  0.5102  0.1101
37667SOL    HW122931   9.528  10.838  13.075 -0.3230  0.4717  0.0716
37667SOL    HW222932   9.590  10.714  13.014  0.6088  0.7444  0.4472
37668SOL     OW22933   0.804   6.490   1.119 -0.2825 -0.1816 -0.1135
37668SOL    HW122934   0.782   6.579   1.145 -1.3179 -0.5706  0.4224
37668SOL    HW222935   0.899   6.488   1.115 -0.2592  1.1199 -0.7655
37669SOL     OW22936   7.054   0.102   8.053 -0.2799  0.0741  0.1238
37669SOL    HW122937   7.006   0.176   8.016  2.7680  1.1148 -2.2000
37669SOL    HW222938   6.989   0.031   8.059 -2.4967  1.8950 -0.8758
37670SOL     OW22939   9.219   4.188  11.971 -0.1419 -0.2910 -0.4368
37670SOL    HW122940   9.213   4.216  11.879  0.2010  0.9677 -0.1036
37670SOL    HW222941   9.280   4.114  11.970  0.9802  0.5930 -1.0799
37671SOL     OW22942   8.532   2.294   4.131  0.4371 -0.3935 -1.0062
37671SOL    HW122943   8.483   2.361   4.082  2.5727  1.8515 -0.2645
37671SOL    HW222944   8.619   2.294   4.091  0.6979 -2.2790 -0.5226
37672SOL     OW22945   5.537  12.403  13.242 -0.6580  0.2040  0.0165
37672SOL    HW122946   5.599  12.457  13.193 -1.1608 -0.7117 -1.7303
37672SOL    HW222947   5.458  12.456  13.248  0.0133  1.0901  1.6183
37673SOL     OW22948   7.689   0.144  11.621 -0.1326 -0.1524 -0.0221
37673SOL    HW122949   7.624   0.127  11.553  0.4358  2.0956 -1.2167
37673SOL    HW222950   7.764   0.090  11.598  0.1858  0.8449 -1.4359
37674SOL     OW22951   3.143   6.680   0.828  0.5778  0.4852  0.0077
37674SOL    HW122952   3.087   6.604   0.845  0.2281  0.1488 -2.3646
37674SOL    HW222953   3.231   6.644   0.822  0.4818  0.3515 -0.5863
37675SOL     OW22954  13.250  10.061   4.196  0.1910 -0.5087  0.2561
37675SOL    HW122955  13.225  10.143   4.239 -1.2121  0.1529 -1.6795
37675SOL    HW222956  13.222  10.072   4.105  0.6137 -2.8656 -0.2212
37676SOL     OW22957   6.127  10.213  12.459 -0.0082 -0.8444 -0.2701
37676SOL    HW122958   6.191  10.261  12.406  1.8291 -3.0996 -0.2436
37676SOL    HW222959   6.179  10.172  12.528 -1.7161 -1.6195  0.6197
37677SOL     OW22960   8.133   1.751   0.562  0.4328  0.5097 -0.1832
37677SOL    HW122961   8.220   1.720   0.586 -0.2001 -1.2179  0.0458
37677SOL    HW222962   8.092   1.676   0.518 -0.7268  1.4862 -0.8394
37678SOL     OW22963  10.052  10.448  12.793 -0.6558 -0.0738  0.1429
37678SOL    HW122964   9.990  10.461  12.865 -0.8555 -2.2844  0.4342
37678SOL    HW222965   9.998  10.416  12.721 -0.5063  2.4146 -1.1728
37679SOL     OW22966  11.016  12.048   6.082 -0.3176 -0.2818  0.2965
37679SOL    HW122967  10.951  12.016   6.019 -0.1580 -0.2252  0.1023
37679SOL    HW222968  11.072  11.973   6.099  0.5020  0.0672 -0.7174
37680SOL     OW22969  12.452  12.471  10.471 -0.1503  0.0955  0.1381
37680SOL    HW122970  12.460  12.405  10.402 -1.8780 -1.0259  0.9235
37680SOL    HW222971  12.483  12.427  10.550 -1.2875  0.1828  0.6624
37681SOL     OW22972   6.184   7.172   4.518 -0.1459 -0.1998 -0.4074
37681SOL    HW122973   6.124   7.198   4.588 -0.7903 -0.6751 -0.7734
37681SOL    HW222974   6.254   7.238   4.521 -0.8623  0.5689 -0.2025
37682SOL     OW22975  10.615   6.040  11.412  0.3409 -0.0171  0.0216
37682SOL    HW122976  10.627   6.017  11.320  0.1700  0.6299 -0.1658
37682SOL    HW222977  10.690   6.001  11.457  0.0450 -0.9640 -0.2782
37683SOL     OW22978  10.799   9.320   3.792 -0.9262 -0.3191  0.0640
37683SOL    HW122979  10.893   9.309   3.806 -0.8668 -2.0587 -1.4582
37683SOL    HW222980  10.762   9.319   3.881  0.2401 -2.2454  0.5746
37684SOL     OW22981  12.656   5.755  11.563 -0.0321 -0.4134 -0.1200
37684SOL    HW122982  12.718   5.790  11.499  1.2604  3.2293  2.7258
37684SOL    HW222983  12.596   5.701  11.512  3.3169 -1.2203 -3.6164
37685SOL     OW22984  10.668   6.001   3.722 -0.2736 -0.1139 -0.6068
37685SOL    HW122985  10.680   5.928   3.661  2.2827 -0.4718  0.2168
37685SOL    HW222986  10.752   6.047   3.723  0.0351 -0.4518  2.9987
37686SOL     OW22987   9.820   1.774  10.333 -0.1755  0.5132  0.3678
37686SOL    HW122988   9.776   1.826  10.400  1.1894  2.7030 -0.3398
37686SOL    HW222989   9.901   1.745  10.375 -0.6248 -0.5544  0.5419
37687SOL     OW22990   8.626   0.178   0.893  0.2883  0.8717  0.3440
37687SOL    HW122991   8.585   0.254   0.851 -1.8088 -0.3342  0.0916
37687SOL    HW222992   8.570   0.159   0.968  1.1720 -0.0443  0.7947
37688SOL     OW22993   7.470   2.366   1.302  0.2466  0.0298  0.0475
37688SOL    HW122994   7.511   2.432   1.246 -0.1123 -0.1510 -0.4295
37688SOL    HW222995   7.467   2.406   1.389  0.1685  0.5769 -0.2088
37689SOL     OW22996  11.411  10.458   1.245 -0.0820  0.3610 -0.6108
37689SOL    HW122997  11.439  10.545   1.218  1.5356  0.0873  0.0531
37689SOL    HW222998  11.468  10.398   1.197  0.2456 -0.2490  0.4872
37690SOL     OW22999   7.100   5.302  10.381  0.3098  0.6673 -0.5705
37690SOL    HW123000   7.061   5.246  10.313 -2.4101  0.9197  0.6369
37690SOL    HW223001   7.167   5.247  10.421 -1.0880 -1.1620 -0.5682
37691SOL     OW23002   6.454   9.848   0.737  0.1904 -0.6506  0.1028
37691SOL    HW123003   6.382   9.816   0.683  0.1450 -1.2670  0.5167
37691SOL    HW223004   6.464   9.781   0.806  1.6491 -0.9581 -0.3742
37692SOL     OW23005   1.146   1.601  12.914 -0.3587  0.5063  0.4200
37692SOL    HW123006   1.128   1.566  13.002 -2.1244 -1.1049 -0.5281
37692SOL    HW223007   1.080   1.669  12.901 -1.0813 -0.2877 -0.1975
37693SOL     OW23008   1.193   9.612   3.748 -0.3833  0.0879  0.2514
37693SOL    HW123009   1.223   9.562   3.672 -1.7632 -1.3493  0.5986
37693SOL    HW223010   1.178   9.700   3.714  1.8452  0.2720 -0.4426
37694SOL     OW23011   5.896   9.531  13.158  0.0205 -0.1932  0.3521
37694SOL    HW123012   5.863   9.503  13.243  2.4137  0.9589  1.7401
37694SOL    HW223013   5.856   9.617  13.144 -0.6721 -0.5448  0.0844
37695SOL     OW23014   6.388   6.358   5.943 -0.2410  0.4484 -0.0248
37695SOL    HW123015   6.445   6.381   6.017 -1.0363 -1.6968  1.3524
37695SOL    HW223016   6.315   6.420   5.948  0.2388  0.9916  0.3294
37696SOL     OW23017   0.972  11.533   7.946 -0.4701 -0.5515  0.4947
37696SOL    HW123018   0.946  11.569   8.031 -0.7735  1.0782 -0.2439
37696SOL    HW223019   1.057  11.492   7.962 -0.6159 -0.4542  1.6207
37697SOL     OW23020   2.196   8.971  13.287 -0.2702 -0.0316 -0.7091
37697SOL    HW123021   2.173   8.882  13.315  0.2255 -0.5594 -1.9120
37697SOL    HW223022   2.253   9.004  13.357 -1.1393 -0.3293  0.1614
37698SOL     OW23023  10.342  10.382   2.583 -0.4290 -0.2987  0.1441
37698SOL    HW123024  10.423  10.414   2.622  0.5074 -0.0628 -1.8677
37698SOL    HW223025  10.348  10.286   2.591  0.4259 -0.3285 -0.6094
37699SOL     OW23026   0.873   7.044   2.356 -0.9118 -0.3352 -0.6733
37699SOL    HW123027   0.880   7.139   2.369  0.5263 -0.5174  0.1105
37699SOL    HW223028   0.938   7.024   2.289  0.6666 -1.0727  0.9972
37700SOL     OW23029   1.620  10.129  13.172  0.4201 -0.0683  0.4391
37700SOL    HW123030   1.702  10.111  13.126  0.5413 -1.2396  1.0732
37700SOL    HW223031   1.557  10.068  13.134  0.4060 -0.7262  1.4819
37701SOL     OW23032   7.311   9.801   4.558  0.3145 -0.3583  0.4566
37701SOL    HW123033   7.395   9.786   4.602  0.9424 -2.3153 -1.2490
37701SOL    HW223034   7.333   9.851   4.480 -0.1315 -0.6390  0.1426
37702SOL     OW23035   1.971  10.917  13.240 -0.3076  0.2207  0.1180
37702SOL    HW123036   1.961  11.003  13.280  2.3486  1.6382 -1.9539
37702SOL    HW223037   1.907  10.916  13.169  0.0900  0.7663 -0.2522
37703SOL     OW23038   1.659   9.003   9.857  0.3749 -0.1429  0.1518
37703SOL    HW123039   1.746   8.965   9.872  0.5745  0.5076  0.7149
37703SOL    HW223040   1.637   9.045   9.940  0.5188  1.6319 -0.6610
37704SOL     OW23041   5.763  11.473   3.375 -0.4124  0.2772  0.3824
37704SOL    HW123042   5.742  11.536   3.445  3.7250  1.6414  0.6795
37704SOL    HW223043   5.736  11.517   3.294 -0.4327  1.0586  0.8055
37705SOL     OW23044  11.805  10.776   7.381 -0.2381 -0.1871  0.2577
37705SOL    HW123045  11.818  10.744   7.292  0.8958  0.3350  0.2097
37705SOL    HW223046  11.773  10.700   7.430 -0.9547 -0.4521 -0.6044
37706SOL     OW23047   3.418   2.673   8.548 -0.1306  0.0736  0.3194
37706SOL    HW123048   3.381   2.588   8.574  0.5757 -0.6396 -0.9054
37706SOL    HW223049   3.511   2.665   8.565 -0.0707  0.6452  0.2684
37707SOL     OW23050  10.429   9.272   9.605 -0.2768  0.5161 -1.0646
37707SOL    HW123051  10.420   9.225   9.522  0.6537 -1.6001 -0.0536
37707SOL    HW223052  10.360   9.236   9.661  0.2047  0.6221 -0.3824
37708SOL     OW23053   6.390   0.180   5.598  0.1919  0.3242 -0.4169
37708SOL    HW123054   6.326   0.249   5.610 -0.9754 -0.8976  0.7052
37708SOL    HW223055   6.475   0.224   5.604 -0.4062  2.3821 -4.2792
37709SOL     OW23056  12.360  11.137   9.632  0.0611  0.2766  0.1205
37709SOL    HW123057  12.440  11.182   9.656 -0.3757  1.7447 -1.0134
37709SOL    HW223058  12.388  11.074   9.565  0.0944  1.8961 -1.4688
37710SOL     OW23059   3.983   7.836  13.006 -0.0042  0.1246 -0.5277
37710SOL    HW123060   4.016   7.799  12.924  0.3547 -1.6188  0.3575
37710SOL    HW223061   4.048   7.812  13.071 -0.7319  0.7077  0.4396
37711SOL     OW23062  10.363   8.155   1.730 -0.7187 -0.4839 -0.0184
37711SOL    HW123063  10.285   8.211   1.733 -0.4368 -0.1061  0.5806
37711SOL    HW223064  10.346   8.087   1.795 -1.2582 -1.3762 -1.0723
37712SOL     OW23065   3.715   2.514   2.112  0.0703 -0.0977 -0.3046
37712SOL    HW123066   3.654   2.518   2.038 -0.5178  0.9402  0.2184
37712SOL    HW223067   3.736   2.421   2.121  1.4564 -0.1330 -2.8122
37713SOL     OW23068   9.009   4.951  11.713  0.2709  0.1486  0.5434
37713SOL    HW123069   8.971   5.017  11.771 -0.4294  0.2449 -0.0076
37713SOL    HW223070   8.957   4.956  11.633  3.3220  2.4661 -1.5323
37714SOL     OW23071  11.010   6.681  12.801  0.0399 -0.4317 -0.2498
37714SOL    HW123072  11.055   6.763  12.781 -1.9178  0.1620 -2.7365
37714SOL    HW223073  10.927   6.708  12.841  0.3645 -1.3501  1.1264
37715SOL     OW23074   4.069  10.738   3.409 -0.1284 -0.3377 -0.1228
37715SOL    HW123075   3.978  10.759   3.388  0.1193  0.0649 -0.8084
37715SOL    HW223076   4.097  10.679   3.339  0.3947  0.2141 -0.3862
37716SOL     OW23077   4.084  12.554   0.970 -0.2127  0.5258 -0.3689
37716SOL    HW123078   4.110  12.552   1.062  0.2657 -1.8378 -0.5026
37716SOL    HW223079   3.992  12.578   0.972 -0.7702 -1.5113  0.9171
37717SOL     OW23080   3.569   3.355   3.408  0.2411 -0.0465 -0.2115
37717SOL    HW123081   3.610   3.357   3.494 -0.8448 -1.4658  0.3762
37717SOL    HW223082   3.550   3.446   3.388 -0.4693  0.2163  1.5412
37718SOL     OW23083   2.286   2.065   9.143 -0.1028 -0.4526  0.8224
37718SOL    HW123084   2.278   1.973   9.169 -0.4946 -0.7349 -0.2367
37718SOL    HW223085   2.276   2.063   9.048  0.7091  0.5970  0.7004
37719SOL     OW23086   1.697   7.046   2.158 -0.8716  0.2750 -0.6304
37719SOL    HW123087   1.764   7.074   2.221 -1.9976 -0.7342  1.1014
37719SOL    HW223088   1.733   7.072   2.072  0.9863  1.1819  0.3431
37720SOL     OW23089   2.374   1.196   2.544  0.5350  0.7456 -0.4911
37720SOL    HW123090   2.456   1.149   2.559  0.3111  1.0886  2.2123
37720SOL    HW223091   2.305   1.133   2.566  0.1093  1.0450 -0.9261
37721SOL     OW23092   6.322   9.871   7.330 -0.1279 -0.3562 -0.2226
37721SOL    HW123093   6.245   9.917   7.295 -0.1603 -0.5393 -0.3975
37721SOL    HW223094   6.355   9.820   7.255  0.4568  0.1096 -0.2860
37722SOL     OW23095   7.708  10.968   3.769 -0.1268  0.0639  0.5041
37722SOL    HW123096   7.719  10.879   3.801 -0.6647 -0.8609 -1.6711
37722SOL    HW223097   7.757  11.023   3.831  0.3992 -1.7482  1.7626
37723SOL     OW23098   8.534   4.925   2.590 -0.1911 -0.5934  0.7726
37723SOL    HW123099   8.447   4.900   2.621 -0.6917  0.4987  0.3037
37723SOL    HW223100   8.550   4.868   2.515 -1.3843  0.5376 -0.3863
37724SOL     OW23101   7.554  10.029  11.652 -0.2822  0.1494  0.5221
37724SOL    HW123102   7.517  10.113  11.627  0.5057  0.0862 -0.9795
37724SOL    HW223103   7.647  10.045  11.663 -0.3949 -0.1509  2.0951
37725SOL     OW23104   7.119   9.300  12.060  0.4978  0.3967  0.2697
37725SOL    HW123105   7.064   9.237  12.013  0.5572  0.3572  0.2536
37725SOL    HW223106   7.094   9.289  12.152  1.6143 -0.7594  0.4645
37726SOL     OW23107   9.632   1.581  10.838 -0.4249  0.4469 -0.2983
37726SOL    HW123108   9.547   1.626  10.838 -1.0840 -0.6919  1.7017
37726SOL    HW223109   9.613   1.495  10.800 -0.5910 -0.4467  1.7055
37727SOL     OW23110   8.134   8.876   1.381  0.6472 -0.3248 -0.5618
37727SOL    HW123111   8.218   8.846   1.415  0.0332 -1.7599 -0.2389
37727SOL    HW223112   8.110   8.810   1.316 -1.3759 -1.3632  1.1229
37728SOL     OW23113   5.061  10.419  11.018 -0.6527 -0.0790  0.5754
37728SOL    HW123114   5.108  10.344  10.982  1.1900  0.4762  1.6919
37728SOL    HW223115   4.970  10.405  10.992  0.1011 -1.1951 -1.6772
37729SOL     OW23116   5.866   7.010   4.804  0.0711 -0.2275 -0.0239
37729SOL    HW123117   5.831   6.925   4.827  1.1413 -0.8779 -0.6982
37729SOL    HW223118   5.839   7.024   4.713  0.3171 -0.0784 -0.0771
37730SOL     OW23119   0.928   2.303   1.373  0.2692 -0.1593 -0.0329
37730SOL    HW123120   0.900   2.373   1.432 -0.8531 -1.8981  1.6212
37730SOL    HW223121   0.848   2.253   1.355  1.1653 -1.4975 -0.4941
37731SOL     OW23122   7.836   0.267   6.893  0.3128 -0.5782  0.1565
37731SOL    HW123123   7.862   0.325   6.965 -2.0168  0.4768  0.2317
37731SOL    HW223124   7.751   0.232   6.920 -0.0951 -1.0189 -1.6040
37732SOL     OW23125  13.267   7.890   9.320 -0.1240 -0.0385 -0.4440
37732SOL    HW123126  13.325   7.817   9.343 -0.4471  0.3798  1.9060
37732SOL    HW223127  13.315   7.938   9.253  2.5300  0.5459  1.7087
37733SOL     OW23128  10.748   2.370   8.237  0.2689 -0.1212 -0.7717
37733SOL    HW123129  10.723   2.421   8.314  0.7552 -0.5061 -0.3450
37733SOL    HW223130  10.715   2.282   8.255 -0.4462  0.0033 -1.4393
37734SOL     OW23131   1.035  10.993   0.157  0.6072 -0.0413  0.2708
37734SOL    HW123132   1.025  10.911   0.205 -0.3673 -0.3534 -0.4368
37734SOL    HW223133   1.027  11.061   0.223 -1.5768 -0.4280  0.4909
37735SOL     OW23134   5.928  11.799   5.921 -0.2635  0.5534  0.1150
37735SOL    HW123135   5.852  11.815   5.978 -0.3091  0.0678  0.1938
37735SOL    HW223136   5.998  11.853   5.959 -0.9410  2.1169 -0.7837
37736SOL     OW23137   7.593   0.066  13.149 -0.3971 -0.0959  0.0861
37736SOL    HW123138   7.663   0.108  13.200 -0.9495  0.5527  0.3297
37736SOL    HW223139   7.594  -0.025  13.177  1.0924 -0.3720 -0.7387
37737SOL     OW23140  12.989   9.433   9.091 -0.4735  1.0056 -0.3168
37737SOL    HW123141  12.991   9.408   9.183  0.1209  1.0066 -0.3247
37737SOL    HW223142  12.937   9.513   9.089  2.0853  2.7846  0.4756
37738SOL     OW23143   8.557  12.684   7.423 -0.1100  0.6014 -0.2078
37738SOL    HW123144   8.555  12.720   7.512  2.1049  0.4036 -0.0119
37738SOL    HW223145   8.465  12.671   7.400 -0.7715  1.5023  1.6988
37739SOL     OW23146  12.484   7.029   5.453 -0.4340 -0.6729  0.3458
37739SOL    HW123147  12.427   7.084   5.398  0.2375 -1.5505 -1.2710
37739SOL    HW223148  12.572   7.064   5.439  0.0319 -2.2541 -0.8722
37740SOL     OW23149   3.136   2.978   4.328 -0.0327  0.2618 -0.3191
37740SOL    HW123150   3.210   3.006   4.383 -0.3451 -0.6615  0.6148
37740SOL    HW223151   3.069   3.044   4.342  0.7450  1.3594 -1.5276
37741SOL     OW23152   4.102   2.139   3.172 -0.6037 -0.1597 -0.2878
37741SOL    HW123153   4.032   2.195   3.139 -1.0192 -1.0641 -0.9644
37741SOL    HW223154   4.093   2.058   3.123 -0.5637 -1.1568  1.2757
37742SOL     OW23155  13.120   4.632   0.676 -0.0687  0.1013  0.7372
37742SOL    HW123156  13.051   4.652   0.613  1.3403 -2.4440 -1.8648
37742SOL    HW223157  13.100   4.543   0.706  1.7474 -0.5028  0.2992
37743SOL     OW23158   0.186   1.639   1.735  0.8284  0.1829 -0.3362
37743SOL    HW123159   0.256   1.660   1.797  2.6868 -0.5882 -2.0260
37743SOL    HW223160   0.183   1.543   1.734 -0.7400  0.2095  0.1732
37744SOL     OW23161   8.222   5.071   3.865 -0.1586 -0.2053  0.3924
37744SOL    HW123162   8.199   5.155   3.906  0.8640  0.9586 -1.3219
37744SOL    HW223163   8.142   5.019   3.873 -1.7263  1.8473 -0.7795
37745SOL     OW23164   6.937   5.782   2.605 -0.3926  0.5308 -0.2075
37745SOL    HW123165   6.858   5.777   2.552 -0.9662 -0.5274  0.7132
37745SOL    HW223166   6.961   5.875   2.604 -1.7700  0.9022 -0.3220
37746SOL     OW23167   2.654   9.972   4.930  0.5085 -0.0070 -0.6642
37746SOL    HW123168   2.735  10.017   4.907 -0.1167  1.8140  0.4813
37746SOL    HW223169   2.678   9.914   5.002  1.0576 -0.5646 -1.2798
37747SOL     OW23170   3.042   6.511  12.207 -0.5446  0.1600 -0.6180
37747SOL    HW123171   3.108   6.581  12.200  0.2728 -0.5451 -0.1572
37747SOL    HW223172   3.022   6.507  12.300 -0.6422 -0.1737 -0.6528
37748SOL     OW23173   9.798   9.360   7.888  0.4815 -0.2324  0.0831
37748SOL    HW123174   9.750   9.422   7.943  0.4744 -1.0343  1.0124
37748SOL    HW223175   9.784   9.392   7.799 -1.3513 -0.1359  0.3535
37749SOL     OW23176  11.949   0.337   1.776 -0.0331  0.1186  0.4401
37749SOL    HW123177  11.856   0.327   1.756  0.2350  0.0103 -0.8702
37749SOL    HW223178  11.985   0.248   1.769 -0.1032 -0.1389  2.6476
37750SOL     OW23179   4.681  10.791  11.571  0.4071  0.4891 -0.2412
37750SOL    HW123180   4.764  10.817  11.611  0.7984  0.5357 -1.0657
37750SOL    HW223181   4.648  10.721  11.627  1.2309  0.1569 -0.1616
37751SOL     OW23182   4.313   2.871   0.354 -0.3492  0.5756 -0.2273
37751SOL    HW123183   4.348   2.960   0.365  0.7302  0.3065 -1.2399
37751SOL    HW223184   4.341   2.845   0.266 -2.6030  0.0645 -0.8517
37752SOL     OW23185  10.369  11.028   5.034  0.2146  0.5089  0.2534
37752SOL    HW123186  10.397  11.018   5.125  0.4033 -1.4576  0.0179
37752SOL    HW223187  10.275  11.043   5.039  0.1442 -0.0692  0.7626
37753SOL     OW23188   2.815   6.388   3.616  0.0853  0.6819  0.2725
37753SOL    HW123189   2.870   6.462   3.589  0.1990  0.7546  0.6969
37753SOL    HW223190   2.748   6.382   3.548  2.7209 -1.7717 -2.4165
37754SOL     OW23191   2.838   7.635  10.338  0.3434 -0.7406  0.0257
37754SOL    HW123192   2.796   7.655  10.422 -0.6876 -4.0088  0.4652
37754SOL    HW223193   2.766   7.604  10.283  1.3301 -0.6435 -1.3657
37755SOL     OW23194   3.085   3.825   8.022  0.2019 -0.3138  0.4983
37755SOL    HW123195   3.080   3.917   8.047 -0.7443  0.2605 -1.6160
37755SOL    HW223196   3.176   3.813   7.995  0.6832 -0.3960  2.0493
37756SOL     OW23197   8.159   4.746   4.092 -0.1104 -0.1592  0.1885
37756SOL    HW123198   8.075   4.792   4.096  0.5888  1.0719  2.0451
37756SOL    HW223199   8.138   4.654   4.110 -1.0331  0.2206  1.1444
37757SOL     OW23200   4.493   9.986   6.438 -0.4098  0.0779 -0.0072
37757SOL    HW123201   4.532  10.068   6.467  0.3214  0.5972 -2.2688
37757SOL    HW223202   4.568   9.933   6.409 -1.1083 -0.0142 -1.7614
37758SOL     OW23203   6.146   2.716   7.381 -0.3661 -0.3776 -0.0855
37758SOL    HW123204   6.178   2.700   7.470 -0.2576  0.5707  0.0607
37758SOL    HW223205   6.094   2.796   7.389  0.6786  0.4258 -1.0944
37759SOL     OW23206   9.338   9.146   0.287 -0.2530 -0.8881  0.1062
37759SOL    HW123207   9.256   9.115   0.325 -1.7617  1.7764 -0.6993
37759SOL    HW223208   9.380   9.196   0.357 -0.7978  0.1872 -0.3068
37760SOL     OW23209   3.900   2.273   3.049 -0.1691  0.3028 -0.2705
37760SOL    HW123210   3.855   2.213   2.990  0.2801 -0.8133  0.4755
37760SOL    HW223211   3.917   2.351   2.996  1.0852 -1.0136 -1.9264
37761SOL     OW23212   5.125   2.572   0.615 -0.2643 -0.0159  0.0018
37761SOL    HW123213   5.081   2.613   0.541 -1.0647  2.8440  1.8956
37761SOL    HW223214   5.120   2.637   0.685  0.7334 -2.4229  2.4942
37762SOL     OW23215   4.648   8.111  13.054 -0.6343  0.4702  0.0233
37762SOL    HW123216   4.724   8.114  13.112 -1.2938 -0.8723  1.0311
37762SOL    HW223217   4.573   8.101  13.113 -1.3819 -0.3560 -1.0105
37763SOL     OW23218   5.140   8.645   0.657  0.0547 -0.3278  0.1378
37763SOL    HW123219   5.176   8.731   0.678  0.3154 -0.6192  0.9204
37763SOL    HW223220   5.193   8.583   0.709  0.4634 -1.0433 -1.0870
37764SOL     OW23221   7.324  11.996   5.981  0.0171 -0.0557 -0.2948
37764SOL    HW123222   7.239  12.005   5.938 -0.7020  0.8938  1.2441
37764SOL    HW223223   7.359  12.086   5.983  1.7531 -0.6050 -2.1807
37765SOL     OW23224  10.939   6.593   6.405  0.1056 -0.0057 -0.5990
37765SOL    HW123225  10.858   6.636   6.376  0.3070  0.4541 -0.4993
37765SOL    HW223226  10.956   6.631   6.491 -0.4784 -1.3483  0.1315
37766SOL     OW23227   7.089   8.780  12.599 -0.2176  0.6324  0.3855
37766SOL    HW123228   7.103   8.873  12.617 -1.0346  0.7372  0.5526
37766SOL    HW223229   7.176   8.741  12.600  0.1243  1.3878  0.3782
37767SOL     OW23230   2.002   9.883   4.487 -0.1409  0.3565  0.3707
37767SOL    HW123231   2.085   9.857   4.446  0.5861 -0.5609  2.2926
37767SOL    HW223232   2.018   9.970   4.522  0.2654 -0.0585  1.2716
37768SOL     OW23233   8.914   3.271  12.616 -0.1847  0.2726 -0.0685
37768SOL    HW123234   8.927   3.328  12.692 -1.1775  0.1616  0.2043
37768SOL    HW223235   9.001   3.262  12.577  0.2787  0.6026  0.8633
37769SOL     OW23236   1.574   0.584  13.262  0.4819 -0.2958  0.1487
37769SOL    HW123237   1.516   0.557  13.334  0.9433 -2.8181 -0.3546
37769SOL    HW223238   1.630   0.509  13.247  1.2392  0.6434 -2.0520
37770SOL     OW23239  10.557   2.402   3.760 -0.1832  0.2564 -0.1838
37770SOL    HW123240  10.649   2.411   3.785 -0.3104  0.6560  0.1492
37770SOL    HW223241  10.515   2.479   3.798 -0.7368 -0.1478  0.0228
37771SOL     OW23242   1.249  12.016   1.791 -0.2939  0.5904 -0.4347
37771SOL    HW123243   1.342  12.007   1.812 -0.1703  0.6152 -0.9446
37771SOL    HW223244   1.246  12.084   1.724 -0.5379 -0.2792 -1.3326
37772SOL     OW23245   5.759   9.226  10.950 -0.4947  0.2176  0.0851
37772SOL    HW123246   5.704   9.228  11.028 -0.1111 -1.2063  0.4212
37772SOL    HW223247   5.702   9.191  10.882 -0.9600  1.8701 -0.4132
37773SOL     OW23248   3.404  12.160   9.135 -0.7488 -0.0976  0.7100
37773SOL    HW123249   3.367  12.248   9.136 -0.2670  0.1344  2.4045
37773SOL    HW223250   3.330  12.101   9.152 -1.1711 -0.0942 -1.0027
37774SOL     OW23251   5.285  12.505   2.107  0.2940 -0.6385 -0.5174
37774SOL    HW123252   5.347  12.530   2.174  0.7160 -2.6667 -0.0831
37774SOL    HW223253   5.199  12.529   2.143  0.5553 -1.2154  0.5151
37775SOL     OW23254  12.988  12.978   7.523  0.0105 -0.0139  0.1553
37775SOL    HW123255  12.971  12.933   7.440  0.0422 -0.7247  0.5285
37775SOL    HW223256  13.022  13.064   7.497  0.3777 -0.3700 -0.5625
37776SOL     OW23257   8.813   3.007   5.563  0.4855 -0.6638  0.2007
37776SOL    HW123258   8.735   3.015   5.618 -0.0795 -1.2812 -0.4940
37776SOL    HW223259   8.874   3.070   5.600 -1.3541  2.0341 -0.9839
37777SOL     OW23260   9.198   3.947   0.080  0.5301 -0.0256 -0.3922
37777SOL    HW123261   9.153   3.881   0.133  0.3310  0.5026  0.1046
37777SOL    HW223262   9.288   3.916   0.075  0.2888 -0.7154 -0.7902
37778SOL     OW23263   6.698  10.150   9.481  0.2075  0.3535 -0.2612
37778SOL    HW123264   6.613  10.183   9.511 -0.5430 -1.7754  0.2092
37778SOL    HW223265   6.675  10.088   9.411  1.2855 -0.7348  0.3067
37779SOL     OW23266   5.987   2.876   2.328  0.2611 -0.0695 -0.3546
37779SOL    HW123267   5.893   2.874   2.346 -0.6305  0.2018 -4.1179
37779SOL    HW223268   6.011   2.968   2.336  0.4560 -0.2334  1.3457
37780SOL     OW23269   1.885   0.357   7.875  0.0670 -0.2590  0.5360
37780SOL    HW123270   1.873   0.322   7.786  0.5143  2.4137 -0.6934
37780SOL    HW223271   1.797   0.368   7.909 -0.1356 -0.8193  0.1965
37781SOL     OW23272  10.703  10.847   7.171  0.0360  0.2709 -0.0409
37781SOL    HW123273  10.752  10.821   7.092  0.6277  0.1525  0.3601
37781SOL    HW223274  10.770  10.876   7.232 -0.3853 -0.0005  0.5589
37782SOL     OW23275   1.135   2.195   7.515  0.5913 -0.0349  0.4423
37782SOL    HW123276   1.156   2.231   7.429  0.1570 -0.3925  0.1828
37782SOL    HW223277   1.042   2.215   7.528  1.4235  3.2897  2.4444
37783SOL     OW23278   3.692   9.337   0.032 -0.0027  0.2195 -0.4007
37783SOL    HW123279   3.606   9.310   0.001 -0.6435  2.4300 -0.6764
37783SOL    HW223280   3.675   9.408   0.093  1.5131 -1.1582  1.7526
37784SOL     OW23281  10.763   5.460   0.065 -0.2867  0.1563  0.4662
37784SOL    HW123282  10.751   5.396   0.135 -1.6938 -0.0190  0.0875
37784SOL    HW223283  10.738   5.543   0.105 -1.4376  0.0059  0.1025
37785SOL     OW23284   6.973   5.069   1.209 -0.5125  0.3683  0.0583
37785SOL    HW123285   6.918   5.145   1.187 -1.7096 -0.6167 -0.5349
37785SOL    HW223286   6.939   5.039   1.293 -0.2473  0.3199  0.1461
37786SOL     OW23287   5.646   8.582   0.845 -0.2634 -0.3417  0.0242
37786SOL    HW123288   5.634   8.511   0.783  0.8538  0.6466 -1.3776
37786SOL    HW223289   5.733   8.617   0.826  0.2726 -0.2221  2.3990
37787SOL     OW23290   5.472   9.045   6.096 -0.4583  0.5750 -0.2418
37787SOL    HW123291   5.497   8.955   6.118  2.6867  1.4873  0.3463
37787SOL    HW223292   5.443   9.040   6.005  1.6042 -0.7510 -0.8939
37788SOL     OW23293   3.539   2.678   0.913  0.2219  0.2057 -0.0058
37788SOL    HW123294   3.551   2.773   0.926  1.1506  0.1521 -0.3878
37788SOL    HW223295   3.602   2.655   0.845  0.1289 -0.7264  0.2112
37789SOL     OW23296   3.935  13.027   8.498  0.1313 -0.1422 -0.1686
37789SOL    HW123297   3.908  12.965   8.566 -0.3748 -1.7731 -1.7888
37789SOL    HW223298   4.019  13.060   8.528  0.0806 -1.0578  1.0889
37790SOL     OW23299   1.304   7.264   1.652 -0.1711  0.0047  0.1600
37790SOL    HW123300   1.279   7.173   1.641  0.5271 -0.1552 -0.1591
37790SOL    HW223301   1.350   7.286   1.570  0.6897  0.2905  0.7096
37791SOL     OW23302   9.220   9.636  11.757 -0.1430  0.1074 -0.1684
37791SOL    HW123303   9.141   9.628  11.810  1.8036 -0.3573  2.8817
37791SOL    HW223304   9.224   9.728  11.732 -2.3907 -0.1583 -1.7532
37792SOL     OW23305   0.396   5.235   5.949 -0.5183  0.0002  0.0707
37792SOL    HW123306   0.411   5.251   6.042 -0.8881  0.9859 -0.0322
37792SOL    HW223307   0.316   5.181   5.947 -0.9887  0.6739  0.2928
37793SOL     OW23308   5.947   5.465   9.922 -0.4971  0.0800  0.3142
37793SOL    HW123309   5.970   5.522   9.996 -1.3426  1.9815 -0.7976
37793SOL    HW223310   5.854   5.480   9.908 -0.6328 -1.2391 -0.3548
37794SOL     OW23311   6.828   0.895   2.969  0.6481  0.1313  0.8603
37794SOL    HW123312   6.854   0.954   3.039  0.5450 -0.3372  1.2953
37794SOL    HW223313   6.785   0.822   3.013 -0.4875  0.3970  0.2230
37795SOL     OW23314   3.726   1.648   2.979  0.4246  0.7604 -0.7089
37795SOL    HW123315   3.656   1.584   2.976 -1.2157  2.2680  1.7524
37795SOL    HW223316   3.797   1.605   3.027  0.5453 -0.1631 -1.6735
37796SOL     OW23317   9.496   8.137   0.175 -0.1473  0.2828  0.1080
37796SOL    HW123318   9.426   8.198   0.197 -0.8949 -0.1897 -0.8793
37796SOL    HW223319   9.501   8.078   0.250 -1.1865 -0.0080 -0.0320
37797SOL     OW23320  12.127  12.519   9.194  0.1815  0.0486 -0.0508
37797SOL    HW123321  12.095  12.583   9.257  0.3684  0.7308 -0.6360
37797SOL    HW223322  12.222  12.524   9.201  0.2064  0.2154 -0.4690
37798SOL     OW23323   9.612  13.103   1.792 -0.2921  0.5533 -0.3241
37798SOL    HW123324   9.561  13.071   1.866 -0.1709  1.8556  0.3423
37798SOL    HW223325   9.702  13.082   1.814 -0.1960  1.4688  0.1900
37799SOL     OW23326  12.332   0.364  11.412  0.3910 -0.3248 -0.5929
37799SOL    HW123327  12.326   0.279  11.368  1.0695 -0.8472  0.2882
37799SOL    HW223328  12.348   0.426  11.342 -0.1835 -0.9060 -1.2637
37800SOL     OW23329   2.459   2.872  11.121  0.7527  0.2124 -0.1307
37800SOL    HW123330   2.422   2.950  11.080  0.9176  0.4484  0.1620
37800SOL    HW223331   2.402   2.854  11.196  0.1646 -0.5070 -0.7369
37801SOL     OW23332   9.343   1.579   5.262  0.3467  0.0063 -0.2105
37801SOL    HW123333   9.427   1.591   5.219 -0.2801 -1.7716 -2.0565
37801SOL    HW223334   9.294   1.659   5.240  0.7046 -0.0409 -1.2371
37802SOL     OW23335  12.496   3.706   4.346 -0.0851  0.0799  0.4602
37802SOL    HW123336  12.527   3.618   4.326 -2.3058 -0.9485  1.1448
37802SOL    HW223337  12.413   3.691   4.393 -0.7596  2.5406  0.1603
37803SOL     OW23338   4.793  10.206   4.553  0.0306  0.7603  0.4968
37803SOL    HW123339   4.820  10.203   4.462  0.4030  1.0698  0.5943
37803SOL    HW223340   4.698  10.196   4.551 -0.1253  2.0993 -0.0226
37804SOL     OW23341   1.755   8.912  12.527 -0.2268  0.3564 -0.2419
37804SOL    HW123342   1.805   8.833  12.548  1.0516  0.7858 -1.5325
37804SOL    HW223343   1.702   8.928  12.605  2.8016  0.7772  1.9025
37805SOL     OW23344   7.439   4.896  11.788 -0.0931 -0.4257 -0.6567
37805SOL    HW123345   7.487   4.917  11.868 -0.5067 -0.5327 -0.3722
37805SOL    HW223346   7.378   4.969  11.777 -0.3064 -0.6009 -0.6528
37806SOL     OW23347   6.589   3.091   1.592  0.7288 -0.5081 -0.2291
37806SOL    HW123348   6.595   3.145   1.513  0.6999 -2.0012 -1.2820
37806SOL    HW223349   6.679   3.090   1.627  0.8957 -0.4317 -0.6485
37807SOL     OW23350   7.603   4.890   0.149 -0.3560 -0.0359 -0.6707
37807SOL    HW123351   7.523   4.851   0.113 -0.3641 -0.8543  0.2065
37807SOL    HW223352   7.584   4.900   0.243  0.8798 -1.0467 -0.2872
37808SOL     OW23353  11.999   6.640  11.167 -0.4997  0.6400  0.0531
37808SOL    HW123354  11.993   6.558  11.117 -0.8481  0.3462  0.5675
37808SOL    HW223355  11.984   6.709  11.102 -0.8995  0.2642 -0.2619
37809SOL     OW23356   3.814  12.182   7.559 -0.4105  0.3529  0.1776
37809SOL    HW123357   3.833  12.090   7.573 -0.4784  0.3401  0.1869
37809SOL    HW223358   3.799  12.217   7.647  1.5203  0.7960  0.3598
37810SOL     OW23359   7.516   9.920   8.660 -0.7813 -0.1034 -0.0093
37810SOL    HW123360   7.515   9.910   8.565 -0.9756  0.0769 -0.0275
37810SOL    HW223361   7.542   9.833   8.693 -0.8123 -0.1938 -0.2210
37811SOL     OW23362   3.679   8.299  10.830  0.3180  0.2382  0.2761
37811SOL    HW123363   3.588   8.295  10.800 -0.5267  1.2415  2.5059
37811SOL    HW223364   3.720   8.221  10.792 -1.4878 -0.3186 -0.6671
37812SOL     OW23365   1.954  11.660   0.940  0.0788 -0.1875  0.1701
37812SOL    HW123366   1.867  11.699   0.925  0.4437  0.7306  0.3712
37812SOL    HW223367   1.939  11.593   1.006 -0.5938 -0.4942 -0.2825
37813SOL     OW23368   6.579   8.852   4.712 -0.7357 -0.0648 -0.2930
37813SOL    HW123369   6.615   8.800   4.639  0.4363 -2.4899  1.8495
37813SOL    HW223370   6.653   8.906   4.741 -0.9655  0.3014 -0.3815
37814SOL     OW23371  12.693   4.220   7.827 -0.4846 -0.0660 -0.0106
37814SOL    HW123372  12.665   4.188   7.741  1.3504  1.9165 -1.4332
37814SOL    HW223373  12.612   4.225   7.878 -1.8284  0.0163 -2.0486
37815SOL     OW23374   4.292   8.358   8.653 -0.3215  1.0156  0.4390
37815SOL    HW123375   4.335   8.432   8.610 -0.4217  0.9614  0.2452
37815SOL    HW223376   4.205   8.391   8.676 -0.4045  0.9246  0.2567
37816SOL     OW23377  10.205  12.308   4.753 -0.1096  0.0363 -0.3527
37816SOL    HW123378  10.277  12.351   4.801  0.1235 -1.6979  0.9601
37816SOL    HW223379  10.148  12.274   4.822 -0.9861 -0.5790 -1.3615
37817SOL     OW23380   4.471   5.381   2.860  0.2228 -0.0688 -0.0315
37817SOL    HW123381   4.540   5.358   2.923 -0.2860 -0.6510  0.3162
37817SOL    HW223382   4.519   5.406   2.781  0.8415 -2.6799 -0.5684
37818SOL     OW23383   5.755   1.852   0.960 -0.0223 -0.9779 -0.2590
37818SOL    HW123384   5.822   1.920   0.968  1.9750 -3.0453  2.4905
37818SOL    HW223385   5.715   1.868   0.874  1.3143  2.6924 -0.3881
37819SOL     OW23386   5.311  11.190  10.306  0.2736  0.4987  0.0790
37819SOL    HW123387   5.224  11.194  10.345 -0.3468 -1.1001 -0.9981
37819SOL    HW223388   5.371  11.212  10.377 -0.9857  1.4845  0.8800
37820SOL     OW23389   5.470  12.070  10.424  0.8560 -0.2316  0.7913
37820SOL    HW123390   5.388  12.026  10.449  0.0126  0.6588 -0.3008
37820SOL    HW223391   5.537  12.003  10.433  0.0567 -0.9204  1.9452
37821SOL     OW23392   0.243   1.289   1.565  0.1622  0.3194  0.2398
37821SOL    HW123393   0.164   1.300   1.617  0.0625 -0.8908  0.3895
37821SOL    HW223394   0.257   1.373   1.523 -2.1507  0.1026 -1.1305
37822SOL     OW23395  11.739   0.489   3.235 -0.2947  0.0936  0.2347
37822SOL    HW123396  11.821   0.472   3.280  1.1883  3.1763 -0.9784
37822SOL    HW223397  11.710   0.573   3.270 -1.9707 -0.0622 -0.6895
37823SOL     OW23398   8.805  12.511   7.990 -0.0876  0.3268 -0.3308
37823SOL    HW123399   8.747  12.511   7.914 -0.6266  0.7114  0.0774
37823SOL    HW223400   8.881  12.459   7.962 -0.9070 -0.7410 -0.6490
37824SOL     OW23401   3.444   0.007   6.474 -0.3057  0.2796 -0.4478
37824SOL    HW123402   3.502  -0.062   6.443  0.0108  1.0752 -1.6749
37824SOL    HW223403   3.356  -0.025   6.454 -0.1553  0.2935 -1.1639
37825SOL     OW23404   0.412   6.675  12.739  0.2285  0.2122  0.3606
37825SOL    HW123405   0.507   6.660  12.736  0.1059 -0.8444  1.1290
37825SOL    HW223406   0.399   6.728  12.818  0.1670  0.2610  0.3175
37826SOL     OW23407   3.343   0.677  10.400  0.0461  0.5727 -0.5431
37826SOL    HW123408   3.420   0.635  10.362  1.1364  1.1864  0.8902
37826SOL    HW223409   3.269   0.641  10.351  1.0169 -2.0561 -0.2278
37827SOL     OW23410   2.671   2.664   8.966  0.2394  0.6770  0.5387
37827SOL    HW123411   2.759   2.647   8.998 -0.1092  0.8050  1.6056
37827SOL    HW223412   2.634   2.577   8.949 -0.4855  0.4083  3.0820
37828SOL     OW23413  10.082   3.836   1.891  0.4222 -0.4698  0.4530
37828SOL    HW123414  10.126   3.837   1.976  1.8894 -1.3270 -0.2700
37828SOL    HW223415  10.120   3.909   1.843 -0.1077 -0.2393  0.3719
37829SOL     OW23416   6.439   2.566   7.785 -0.0939  0.3332  0.0233
37829SOL    HW123417   6.368   2.559   7.721  0.1536 -1.7643 -0.0926
37829SOL    HW223418   6.407   2.517   7.862 -0.3554  2.7305  1.5412
37830SOL     OW23419  11.174   3.829   1.498 -0.3753  0.3888  0.1157
37830SOL    HW123420  11.167   3.891   1.572  0.1751  1.4239 -0.6658
37830SOL    HW223421  11.186   3.744   1.540 -1.4169  0.7580  1.2381
37831SOL     OW23422  10.730   6.594  10.406  0.3051  0.5938  0.2858
37831SOL    HW123423  10.784   6.669  10.380 -1.4059  2.4968  1.8128
37831SOL    HW223424  10.791   6.533  10.447  1.5936  1.7053  0.1045
37832SOL     OW23425  10.444  11.511   3.492 -0.2819 -0.3069 -0.1229
37832SOL    HW123426  10.379  11.566   3.536  0.7012  1.0602 -0.3070
37832SOL    HW223427  10.479  11.455   3.561 -0.2947  0.3021  0.3891
37833SOL     OW23428   5.655   8.300   8.339 -0.2081 -0.4617 -0.4298
37833SOL    HW123429   5.672   8.210   8.312  0.1824 -0.2079 -1.0588
37833SOL    HW223430   5.700   8.310   8.422  0.6608 -0.5282 -0.8848
37834SOL     OW23431   4.693  11.188   4.320 -0.1585 -0.1500  0.3438
37834SOL    HW123432   4.675  11.275   4.356 -0.3081  0.4931 -1.2227
37834SOL    HW223433   4.609  11.158   4.287  0.0707 -0.5290  0.0972
37835SOL     OW23434   0.672   0.594   0.507  0.0431 -0.4648 -0.6730
37835SOL    HW123435   0.720   0.551   0.436  0.0233 -0.6150 -0.5951
37835SOL    HW223436   0.594   0.540   0.520 -0.7921  0.4570 -1.6426
37836SOL     OW23437   0.347   3.204   6.011 -0.0402  0.1123  0.3203
37836SOL    HW123438   0.339   3.136   5.944 -1.2422  1.6575 -1.1874
37836SOL    HW223439   0.263   3.251   6.008  0.8679  1.8821  1.0555
37837SOL     OW23440   6.584   0.867   6.278  0.1463 -0.2468  0.0463
37837SOL    HW123441   6.648   0.814   6.231 -0.0962 -0.8426  0.3894
37837SOL    HW223442   6.593   0.842   6.369 -0.1031  0.1654  0.1877
37838SOL     OW23443   6.947  10.861   5.360  0.2034 -0.3306  0.6505
37838SOL    HW123444   6.898  10.817   5.291  0.1203  0.1059  0.4278
37838SOL    HW223445   6.924  10.814   5.440  0.6785 -1.1582  0.3166
37839SOL     OW23446  12.118  11.614  11.190  0.1550 -0.2212 -0.2544
37839SOL    HW123447  12.066  11.565  11.254  1.1883 -0.7256  0.2180
37839SOL    HW223448  12.184  11.551  11.160  0.6245  0.4733 -0.6844
37840SOL     OW23449  11.358  11.463   9.279 -0.0269 -0.6054  0.3813
37840SOL    HW123450  11.430  11.496   9.225 -0.6628  0.5150  0.1842
37840SOL    HW223451  11.283  11.519   9.256 -0.6570 -0.9885  1.4427
37841SOL     OW23452   2.302   3.011   6.037  0.5022 -0.3549  0.3318
37841SOL    HW123453   2.272   2.973   5.955 -0.1738 -1.0408  0.8788
37841SOL    HW223454   2.238   2.982   6.102 -0.1918  1.8866  0.7574
37842SOL     OW23455  10.304   3.035   5.408 -0.9986 -0.3176 -0.5290
37842SOL    HW123456  10.221   3.075   5.434 -0.1662  1.8359 -0.9787
37842SOL    HW223457  10.366   3.064   5.475 -0.0010  0.6478 -1.8192
37843SOL     OW23458   0.698   0.589   3.539 -0.6065  0.4119 -0.4672
37843SOL    HW123459   0.686   0.681   3.514  0.0101  0.6751  0.1883
37843SOL    HW223460   0.689   0.588   3.634 -2.8376 -0.5750 -0.6311
37844SOL     OW23461   6.562  10.625   6.340 -0.7710 -0.5561  0.1159
37844SOL    HW123462   6.573  10.586   6.427 -1.7299 -2.8672 -0.7076
37844SOL    HW223463   6.492  10.689   6.351 -0.4809 -0.3926  1.1563
37845SOL     OW23464  10.298   5.955   4.677 -0.5440 -0.5005 -0.1934
37845SOL    HW123465  10.315   5.864   4.703 -2.2923 -0.7261  0.2503
37845SOL    HW223466  10.223   5.982   4.729 -0.2277  1.1323 -0.5217
37846SOL     OW23467  11.449  11.745  10.603 -0.0902 -0.6802  0.4416
37846SOL    HW123468  11.409  11.730  10.689  0.0989 -1.0612  0.4632
37846SOL    HW223469  11.542  11.733  10.618 -0.0734 -0.9178  0.1470
37847SOL     OW23470   5.489   2.981  12.101  0.4604 -0.5529 -0.2523
37847SOL    HW123471   5.533   3.063  12.120 -0.9197 -0.2157  1.8567
37847SOL    HW223472   5.400   3.006  12.078 -0.4724 -1.4154  2.0152
37848SOL     OW23473   0.571   5.348   1.153  0.3521  0.0568  0.2899
37848SOL    HW123474   0.490   5.297   1.153  0.9752 -1.0390 -1.4527
37848SOL    HW223475   0.637   5.289   1.117  1.8379  1.0891  1.1896
37849SOL     OW23476   2.888   9.410   8.125  0.0100 -0.3321  0.5687
37849SOL    HW123477   2.904   9.338   8.065  0.2679 -0.6469  1.0144
37849SOL    HW223478   2.792   9.418   8.127 -0.0656 -1.2317  1.1781
37850SOL     OW23479  11.541   5.266  12.046 -0.3690 -0.0503 -0.0483
37850SOL    HW123480  11.502   5.354  12.052 -1.4509 -0.4636 -0.5968
37850SOL    HW223481  11.591   5.268  11.964  1.0576  0.5759  0.8053
37851SOL     OW23482  10.830   7.196   3.710  0.0719 -0.4761  0.5965
37851SOL    HW123483  10.798   7.285   3.696 -0.2053 -0.4237  1.4913
37851SOL    HW223484  10.925   7.206   3.718  0.1069 -0.3513  0.0077
37852SOL     OW23485   5.230   1.085   1.874  0.1831  0.5389  0.2960
37852SOL    HW123486   5.315   1.120   1.902 -0.6190  0.4356  3.1236
37852SOL    HW223487   5.192   1.155   1.821  2.0970  0.4547 -1.3260
37853SOL     OW23488   2.288   3.748   8.937  0.0978  0.5100 -0.1574
37853SOL    HW123489   2.347   3.680   8.969 -0.2200  0.6393  0.7153
37853SOL    HW223490   2.330   3.780   8.857 -0.0512 -1.1381 -0.9558
37854SOL     OW23491   3.335   5.276   0.036 -0.4182  0.2920  0.4077
37854SOL    HW123492   3.374   5.219  -0.030  1.7586  1.5114  0.5558
37854SOL    HW223493   3.337   5.223   0.116  2.9398  0.8817  0.8892
37855SOL     OW23494  13.230   9.218   6.776 -0.1838  0.2629  0.0080
37855SOL    HW123495  13.238   9.185   6.866 -0.5094  0.9166  0.2822
37855SOL    HW223496  13.194   9.144   6.727 -0.3285  0.0077  0.4894
37856SOL     OW23497   6.795   5.047   3.485 -0.6618  0.1733  0.3455
37856SOL    HW123498   6.890   5.058   3.475 -0.3023 -2.7351 -0.1600
37856SOL    HW223499   6.758   5.127   3.447  1.5452  0.6530 -0.9979
37857SOL     OW23500   6.625  11.441   7.640  0.1778  0.2732 -0.9710
37857SOL    HW123501   6.557  11.375   7.635 -0.2505  0.7203 -1.1515
37857SOL    HW223502   6.698  11.405   7.590  0.5390 -0.7391  0.2413
37858SOL     OW23503   2.467   1.476   8.568 -0.4576  0.8043 -0.2960
37858SOL    HW123504   2.534   1.542   8.552  0.3736 -0.2680 -1.4336
37858SOL    HW223505   2.418   1.470   8.486  0.6754 -1.2722 -0.8933
37859SOL     OW23506  11.052   6.718  10.941  0.8562  0.1200  0.0573
37859SOL    HW123507  11.141   6.753  10.940  0.4787  1.1313 -1.8460
37859SOL    HW223508  11.063   6.623  10.935  1.7924  0.2725 -0.7679
37860SOL     OW23509   5.297  13.240   6.359 -0.4999 -0.2007 -0.0513
37860SOL    HW123510   5.267  13.271   6.445  2.1933 -1.2044  1.3582
37860SOL    HW223511   5.316  13.148   6.372  1.4070 -0.0274 -1.2923
37861SOL     OW23512   1.385  10.454   9.381  0.7261  0.1155  0.1154
37861SOL    HW123513   1.310  10.482   9.329  1.0383  2.9135  0.9830
37861SOL    HW223514   1.441  10.406   9.320 -0.7030 -0.0296 -1.1193
37862SOL     OW23515   1.083   6.536   3.343  0.3207 -0.0699 -0.1048
37862SOL    HW123516   1.171   6.570   3.328  0.2657 -0.1244 -0.5755
37862SOL    HW223517   1.034   6.610   3.380  0.8376 -0.3395  1.1686
37863SOL     OW23518   3.153  11.638   7.150  0.0900  0.8415  0.5142
37863SOL    HW123519   3.110  11.722   7.136  0.1607  0.3812 -3.7288
37863SOL    HW223520   3.081  11.578   7.173 -0.7516  1.2168 -0.9726
37864SOL     OW23521   6.954   6.767   2.727 -0.4524 -0.4231  0.1037
37864SOL    HW123522   6.874   6.806   2.761 -0.5002  0.6060 -1.1245
37864SOL    HW223523   7.012   6.842   2.712  0.0101 -0.9690 -0.8893
37865SOL     OW23524   2.799   4.586   7.854 -0.3000  0.4154  0.3086
37865SOL    HW123525   2.747   4.600   7.933  0.1648 -1.9231  1.1173
37865SOL    HW223526   2.761   4.507   7.815  0.7178  0.4197 -0.7269
37866SOL     OW23527   9.356   8.096   9.558  0.4290  0.5595  0.2105
37866SOL    HW123528   9.390   8.024   9.506 -0.3552  0.6817 -0.4908
37866SOL    HW223529   9.401   8.173   9.524  3.1818  0.1923  2.6252
37867SOL     OW23530   0.883   7.709   1.448  0.1748  0.2402  0.0406
37867SOL    HW123531   0.978   7.723   1.454  0.3123  0.2419 -1.6996
37867SOL    HW223532   0.853   7.775   1.385 -1.0752  0.5461  0.9138
37868SOL     OW23533  11.923  11.229  10.042 -0.0439 -0.3460 -0.4958
37868SOL    HW123534  11.931  11.181   9.960  1.0524  0.9630 -1.1898
37868SOL    HW223535  11.829  11.234  10.058 -0.3291  0.0752 -2.1248
37869SOL     OW23536   4.703  10.967  13.155  0.1798  0.0573  0.6259
37869SOL    HW123537   4.717  11.034  13.222  0.1476 -0.1033  0.7955
37869SOL    HW223538   4.623  10.995  13.110  0.4454  0.3993  0.3652
37870SOL     OW23539   6.840   9.424   3.949  0.3193  0.2852  0.0808
37870SOL    HW123540   6.901   9.378   4.007 -1.6291 -2.3193  0.2433
37870SOL    HW223541   6.881   9.418   3.863  0.0787 -1.9977  0.0719
37871SOL     OW23542  12.802   0.165  12.431  0.2838 -0.3227 -0.4236
37871SOL    HW123543  12.741   0.161  12.505  1.5580 -0.3542  0.6699
37871SOL    HW223544  12.793   0.081  12.388  2.2891 -1.9610  2.0563
37872SOL     OW23545   1.113   5.961   0.256  0.0473 -0.2425 -0.2774
37872SOL    HW123546   1.045   6.028   0.266 -1.7329 -2.1202  0.8240
37872SOL    HW223547   1.078   5.900   0.192  2.8957  1.2396 -3.5417
37873SOL     OW23548   4.941   2.874  12.217  0.0079  0.2825  0.6475
37873SOL    HW123549   4.989   2.799  12.252 -0.7557 -0.4122  0.2484
37873SOL    HW223550   4.855   2.839  12.195  0.3699  0.6944 -1.7299
37874SOL     OW23551  12.093   0.779   2.529 -0.4690 -0.0113 -0.1314
37874SOL    HW123552  12.013   0.755   2.576 -1.2966 -0.8238 -1.8980
37874SOL    HW223553  12.137   0.695   2.513 -0.2377  0.2531 -0.8805
37875SOL     OW23554   5.759   2.572   4.254  0.1537 -0.1521 -0.3760
37875SOL    HW123555   5.854   2.558   4.250  0.1951  0.1223 -0.3643
37875SOL    HW223556   5.723   2.511   4.189  0.3863  0.1731 -0.8176
37876SOL     OW23557  10.552   6.355  11.038  0.4262  0.2729 -0.6133
37876SOL    HW123558  10.468   6.388  11.069  0.2963  0.3860 -1.0818
37876SOL    HW223559  10.593   6.429  10.995  1.4144  0.6312  0.8904
37877SOL     OW23560   7.971   2.667   4.944  0.4616  0.1265  0.3370
37877SOL    HW123561   8.034   2.701   4.881  1.2325 -0.6963  0.6443
37877SOL    HW223562   7.987   2.573   4.947 -1.0807 -0.1717  0.1094
37878SOL     OW23563   5.785   3.138   4.604  0.2026  0.5909  0.0150
37878SOL    HW123564   5.849   3.148   4.674  0.5042 -0.2343 -0.1259
37878SOL    HW223565   5.824   3.073   4.545  0.5331  2.1918 -1.6032
37879SOL     OW23566   0.268   1.425   2.853  0.4813 -0.2400  0.1162
37879SOL    HW123567   0.324   1.364   2.805  0.5693 -0.0380 -0.0398
37879SOL    HW223568   0.252   1.497   2.791 -1.0125 -0.8964 -0.3090
37880SOL     OW23569   6.610   0.644  10.869  0.3043 -0.1447  0.1423
37880SOL    HW123570   6.621   0.600  10.784  1.5449  0.0159  0.1993
37880SOL    HW223571   6.667   0.721  10.863 -1.4896  1.2667  0.2055
37881SOL     OW23572  10.785   6.050  10.232 -0.6321 -0.3424  0.0433
37881SOL    HW123573  10.768   6.138  10.199 -0.8310 -1.0974 -1.9738
37881SOL    HW223574  10.759   6.054  10.324  0.9788  2.1658  0.5174
37882SOL     OW23575   5.783   7.097   7.201  0.1539  0.1521  0.0058
37882SOL    HW123576   5.785   7.021   7.259 -1.5791  1.0659  1.3614
37882SOL    HW223577   5.834   7.163   7.246 -0.2211  0.4991 -0.0722
37883SOL     OW23578   5.377   0.763   9.155 -0.7589 -0.2557  0.6521
37883SOL    HW123579   5.309   0.768   9.087 -0.5882  2.5357  0.5742
37883SOL    HW223580   5.459   0.780   9.108 -0.3760 -0.4975  1.2261
37884SOL     OW23581  11.393   3.918   1.361 -0.1740 -0.2685  0.5442
37884SOL    HW123582  11.320   3.898   1.419  2.0541 -1.6950  3.1392
37884SOL    HW223583  11.425   3.832   1.333  0.9816  0.2677  0.1562
37885SOL     OW23584  11.509   6.557   4.706 -0.3854 -0.2623 -0.5119
37885SOL    HW123585  11.511   6.475   4.756 -1.0842  0.0962  0.1216
37885SOL    HW223586  11.427   6.553   4.657 -0.4003  0.0496 -0.5123
37886SOL     OW23587   1.650   6.196   5.549 -0.5687 -0.0313  0.6575
37886SOL    HW123588   1.602   6.272   5.517 -1.2269 -1.2358 -1.3693
37886SOL    HW223589   1.725   6.233   5.597 -1.8602  1.8574  1.3303
37887SOL     OW23590  11.349  11.197   8.911 -0.3938 -0.0434  0.3045
37887SOL    HW123591  11.427  11.244   8.882 -0.6656  0.5687  0.5697
37887SOL    HW223592  11.382  11.111   8.937 -0.2019 -0.8787 -2.3755
37888SOL     OW23593   5.970   0.868   8.398 -0.0495 -0.6803  0.1193
37888SOL    HW123594   5.879   0.895   8.411  0.3970  1.3199 -0.6572
37888SOL    HW223595   5.964   0.790   8.342 -1.2608 -0.2809 -0.3350
37889SOL     OW23596   2.110  10.660   6.647  0.3007 -0.4168  0.5725
37889SOL    HW123597   2.033  10.712   6.626  1.0445  0.6221  0.3449
37889SOL    HW223598   2.117  10.663   6.742  1.0766  1.0289  0.4933
37890SOL     OW23599   1.342   1.080   5.502 -0.1584 -0.3146  0.0930
37890SOL    HW123600   1.405   1.059   5.433  0.2006  0.4650  0.1780
37890SOL    HW223601   1.394   1.125   5.569 -0.0630 -2.6932  1.7814
37891SOL     OW23602   4.038   5.177  10.767  0.4561  0.2184 -0.5796
37891SOL    HW123603   3.964   5.178  10.828 -0.5523  0.0981 -1.7453
37891SOL    HW223604   4.006   5.124  10.693  1.9078 -0.2576 -0.8890
37892SOL     OW23605   6.868   7.908   6.486 -0.0597  0.5575 -0.5807
37892SOL    HW123606   6.790   7.935   6.533  0.2538  0.7216 -0.1466
37892SOL    HW223607   6.863   7.954   6.402 -0.8927 -0.1598 -0.9330
37893SOL     OW23608   7.796   2.106   4.250 -0.3589 -0.0005  0.0414
37893SOL    HW123609   7.771   2.024   4.208  0.3850  0.1507 -0.7130
37893SOL    HW223610   7.888   2.119   4.227 -0.9197  1.9321 -1.3578
37894SOL     OW23611  11.317  11.841   5.087 -0.1867  0.1764  0.3537
37894SOL    HW123612  11.289  11.874   5.001  0.4842 -0.6987 -0.2113
37894SOL    HW223613  11.249  11.873   5.147 -0.1323  1.6682 -0.3213
37895SOL     OW23614   7.065   3.831   0.728 -0.6894  0.3841  0.0544
37895SOL    HW123615   7.094   3.751   0.771 -1.7168  0.4994  1.0036
37895SOL    HW223616   6.998   3.867   0.786 -0.7810  1.5366 -0.7296
37896SOL     OW23617   2.682   5.984   9.808 -0.5644 -0.2841 -0.2807
37896SOL    HW123618   2.744   6.002   9.738 -0.8617  2.6073  0.1031
37896SOL    HW223619   2.735   5.945   9.878  0.1412 -1.0056 -1.1840
37897SOL     OW23620   1.481   2.218  10.229  0.4758 -0.2133 -0.1125
37897SOL    HW123621   1.427   2.295  10.245  2.1748  0.9619  0.2071
37897SOL    HW223622   1.460   2.192  10.139 -1.9262 -0.9328  0.5808
37898SOL     OW23623   9.641  10.024   6.251 -0.0638  0.1708  0.5779
37898SOL    HW123624   9.581  10.005   6.323 -1.0949  1.4717  0.1100
37898SOL    HW223625   9.590  10.005   6.172 -0.1191  1.8989  0.1551
37899SOL     OW23626  12.384  11.336   0.065 -0.5082 -0.4681 -0.1930
37899SOL    HW123627  12.436  11.411   0.097 -2.0061  0.9472 -0.9384
37899SOL    HW223628  12.397  11.337  -0.030  0.4175 -1.9357 -0.1051
37900SOL     OW23629   2.039  11.927   5.809  0.0385 -0.3102  0.5511
37900SOL    HW123630   2.127  11.903   5.836  0.3283  1.5275  1.3924
37900SOL    HW223631   2.021  11.871   5.733  0.7221 -2.8637  2.1612
37901SOL     OW23632   2.750   8.569  10.247 -0.0453 -0.2900 -0.1833
37901SOL    HW123633   2.727   8.596  10.336  1.6605 -0.8850  0.4938
37901SOL    HW223634   2.782   8.480  10.257  0.5857 -0.2066 -1.3222
37902SOL     OW23635   6.191   8.576  11.790 -0.3093  0.0129 -0.0673
37902SOL    HW123636   6.126   8.628  11.837 -1.5687 -1.6540  0.1049
37902SOL    HW223637   6.238   8.528  11.859 -0.3211 -0.3856 -0.3327
37903SOL     OW23638  11.103   7.380   6.556 -0.7891 -0.4095  0.3929
37903SOL    HW123639  11.163   7.413   6.623 -0.3560 -0.5521  0.0784
37903SOL    HW223640  11.118   7.285   6.556 -2.0364 -0.6281  1.3027
37904SOL     OW23641   1.404  10.517   3.083  0.0631  0.5412 -0.7514
37904SOL    HW123642   1.481  10.566   3.111 -0.1436  0.9244 -0.8453
37904SOL    HW223643   1.440  10.442   3.035  0.5138 -1.2815  2.1940
37905SOL     OW23644   6.021  10.034   1.940 -0.4251  0.1315 -0.3333
37905SOL    HW123645   6.009   9.945   1.906 -1.0352 -0.3496  1.0522
37905SOL    HW223646   6.114  10.040   1.961 -0.5060 -0.4367  0.2126
37906SOL     OW23647  10.570   6.724  12.319  0.0865  0.0997 -0.2179
37906SOL    HW123648  10.586   6.751  12.229 -0.7715  0.2648 -0.3252
37906SOL    HW223649  10.527   6.799  12.359 -0.8152 -0.4854 -0.0638
37907SOL     OW23650   0.817   9.796   4.923  0.4082 -0.5365  0.3144
37907SOL    HW123651   0.743   9.735   4.920 -0.2357  0.2959 -2.0101
37907SOL    HW223652   0.796   9.855   4.995 -2.4091  1.0942 -1.6720
37908SOL     OW23653   4.030   5.905   8.986  0.0326 -0.5223  0.1549
37908SOL    HW123654   4.031   5.836   9.053  0.5812 -0.6298  0.0377
37908SOL    HW223655   3.986   5.979   9.028  1.9785  0.0543  1.2840
37909SOL     OW23656   9.863   9.438   7.631 -0.5128 -0.3646 -0.0435
37909SOL    HW123657   9.883   9.531   7.632  0.0930 -0.4575 -1.3153
37909SOL    HW223658   9.949   9.395   7.633 -0.7689 -1.0066  3.3404
37910SOL     OW23659  13.075   1.686   7.455 -0.0395 -0.1083  0.3377
37910SOL    HW123660  13.042   1.769   7.420 -1.0229 -0.2549  0.8796
37910SOL    HW223661  13.147   1.712   7.513 -0.0852  0.3358  0.2012
37911SOL     OW23662   1.626   2.658  12.751 -0.1580  0.8286  0.1143
37911SOL    HW123663   1.608   2.598  12.678 -1.7863 -0.0480  1.1962
37911SOL    HW223664   1.720   2.648  12.766  0.1897  0.8840 -1.7110
37912SOL     OW23665   4.722   9.449   7.784  0.4553 -0.0388 -0.3020
37912SOL    HW123666   4.659   9.478   7.717  0.6191 -0.1599 -0.5097
37912SOL    HW223667   4.801   9.429   7.735  0.8034  0.5486  0.0103
37913SOL     OW23668   2.259   9.221   5.140  0.4173  0.7700  0.1429
37913SOL    HW123669   2.310   9.180   5.210  3.2751  1.8960 -1.1013
37913SOL    HW223670   2.236   9.148   5.082 -2.5040 -0.2734  2.3544
37914SOL     OW23671   5.862   4.040   1.414 -0.1974  0.5646 -0.4098
37914SOL    HW123672   5.817   3.961   1.382  0.8048 -0.5235  0.7498
37914SOL    HW223673   5.831   4.049   1.504 -1.0493  2.1112 -0.8274
37915SOL     OW23674   8.382   0.720   1.830  0.3906  0.0575  0.0045
37915SOL    HW123675   8.344   0.633   1.838  2.7952 -0.8701  3.0924
37915SOL    HW223676   8.372   0.742   1.737 -1.2818 -2.9791 -0.6569
37916SOL     OW23677  10.969  10.493   3.119 -0.0177 -0.0525  0.7531
37916SOL    HW123678  10.881  10.471   3.088 -0.2214 -0.0145  1.2952
37916SOL    HW223679  11.027  10.466   3.048 -0.4073 -0.7180  0.6851
37917SOL     OW23680  13.235   5.490   2.566  0.5282  0.2926  0.3296
37917SOL    HW123681  13.242   5.396   2.548  0.1724  0.1748  0.7922
37917SOL    HW223682  13.228   5.531   2.479  0.2629 -0.1441  0.1420
37918SOL     OW23683  12.752   1.091   4.249  0.3428 -0.2440  0.0708
37918SOL    HW123684  12.825   1.150   4.262  0.0070  0.3140 -0.4973
37918SOL    HW223685  12.698   1.133   4.182  0.5770 -1.6313 -1.0559
37919SOL     OW23686   6.192   2.540   5.056  0.3643 -0.3559 -0.3552
37919SOL    HW123687   6.111   2.524   5.007  0.6995 -0.1421 -0.9841
37919SOL    HW223688   6.169   2.608   5.119  0.7207  1.6913 -2.3264
37920SOL     OW23689   5.467   5.656   5.337 -0.7346 -0.1445 -0.1365
37920SOL    HW123690   5.531   5.675   5.269  0.3138  0.4488  0.9863
37920SOL    HW223691   5.445   5.741   5.374 -2.0649 -0.3525 -0.3760
37921SOL     OW23692   6.726   5.168   0.212  0.0315  0.3015 -0.2543
37921SOL    HW123693   6.693   5.128   0.132 -0.2532 -0.1662  0.0955
37921SOL    HW223694   6.821   5.159   0.205  0.0049  0.2101 -0.5155
37922SOL     OW23695   4.660   8.399  12.269  0.0287 -0.1512 -0.5706
37922SOL    HW123696   4.671   8.309  12.298  0.1631 -0.1922 -0.7559
37922SOL    HW223697   4.663   8.451  12.350 -0.6032 -0.3630 -0.4037
37923SOL     OW23698   9.086  10.792   2.857 -0.1635  0.3784 -0.4296
37923SOL    HW123699   9.172  10.810   2.895 -0.1282 -1.6217  0.5685
37923SOL    HW223700   9.029  10.860   2.892  0.7261  0.9125  0.0016
37924SOL     OW23701  11.686   6.782   5.912 -0.1720 -0.3009  1.1222
37924SOL    HW123702  11.641   6.788   5.996 -1.3247 -0.1944  0.5102
37924SOL    HW223703  11.767   6.735   5.932 -0.8785 -1.1549  2.1165
37925SOL     OW23704   4.319   3.041   1.026 -0.0071  0.3080 -0.2745
37925SOL    HW123705   4.332   3.111   0.962  1.0802  0.7750  0.4122
37925SOL    HW223706   4.405   3.030   1.066 -0.5744 -0.2419  0.8314
37926SOL     OW23707   4.974   9.928  10.765  0.6036 -0.2563 -0.2382
37926SOL    HW123708   4.900   9.944  10.707  1.6047 -0.3035 -1.5792
37926SOL    HW223709   4.953   9.844  10.807 -1.2705  0.9331  1.3837
37927SOL     OW23710  11.792  12.472  12.974 -0.4455 -0.0854  0.1259
37927SOL    HW123711  11.874  12.506  12.937  0.3209  0.6185  2.3220
37927SOL    HW223712  11.724  12.530  12.939 -0.0151 -0.5075 -1.5013
37928SOL     OW23713  10.738   6.845   5.659 -0.2180 -0.1672  0.1437
37928SOL    HW123714  10.726   6.937   5.679 -2.4499 -0.4723  0.4357
37928SOL    HW223715  10.698   6.799   5.733 -0.7005 -1.3410 -0.8098
37929SOL     OW23716   1.648   9.896   3.071 -0.0220 -0.0966  0.3901
37929SOL    HW123717   1.633   9.878   3.164  1.3792 -3.8199  0.0406
37929SOL    HW223718   1.570   9.863   3.027  0.1199 -0.0405  0.0917
37930SOL     OW23719   6.219   0.880   7.540 -0.5346  0.1611  0.8067
37930SOL    HW123720   6.253   0.883   7.450 -0.6536  0.7780  0.7798
37930SOL    HW223721   6.271   0.811   7.582 -1.6361 -1.3617 -0.1939
37931SOL     OW23722  10.988   3.829   4.918 -0.1401  0.3525 -0.3003
37931SOL    HW123723  10.897   3.854   4.935 -0.1398 -1.4279  3.5032
37931SOL    HW223724  10.984   3.735   4.903  1.0623  0.2481 -0.0421
37932SOL     OW23725  12.564   5.757   5.162  0.2301  0.0088 -0.1767
37932SOL    HW123726  12.549   5.665   5.184  1.5682 -0.9438 -2.8084
37932SOL    HW223727  12.658   5.762   5.142  0.6747  2.4889  2.0193
37933SOL     OW23728   1.321  13.148   3.989 -0.3528 -0.1729 -0.9170
37933SOL    HW123729   1.408  13.147   3.948  0.0596 -0.3311 -0.0572
37933SOL    HW223730   1.261  13.128   3.917  0.4908 -2.0464 -1.1707
37934SOL     OW23731  10.671   5.576   7.605 -0.8489 -0.0753 -0.5114
37934SOL    HW123732  10.724   5.563   7.684  0.0248  0.1259 -1.0512
37934SOL    HW223733  10.735   5.588   7.535 -1.6153 -0.0033 -1.2128
37935SOL     OW23734   8.165  10.558  11.377 -0.2648 -0.3849 -0.1485
37935SOL    HW123735   8.253  10.560  11.416 -0.2783 -0.4101 -0.1178
37935SOL    HW223736   8.131  10.647  11.390 -0.0279 -0.2139 -0.6461
37936SOL     OW23737  10.122  13.044   9.676  0.1946  0.3202  0.1091
37936SOL    HW123738  10.148  13.135   9.691 -0.7322  0.3999  1.3995
37936SOL    HW223739  10.036  13.051   9.633 -0.7647  0.1022  1.8934
37937SOL     OW23740   5.816  11.404  12.745  0.0108  0.8766  0.2808
37937SOL    HW123741   5.781  11.336  12.802  1.2090  0.7836  0.9417
37937SOL    HW223742   5.890  11.363  12.700  0.7116  1.7105  0.6396
37938SOL     OW23743   3.107   0.556   0.850 -0.7100  0.1542 -0.3819
37938SOL    HW123744   3.163   0.620   0.896  0.8962  0.2485 -2.3082
37938SOL    HW223745   3.124   0.473   0.894 -0.6132  0.5556  0.3484
37939SOL     OW23746   8.124   0.375   8.194 -0.4664 -0.0087 -0.7525
37939SOL    HW123747   8.097   0.460   8.229  1.0057  0.6687 -1.1799
37939SOL    HW223748   8.157   0.327   8.270  1.6610  1.0342 -0.9447
37940SOL     OW23749   4.182   7.432  12.847  0.1209  0.3949 -0.0554
37940SOL    HW123750   4.169   7.431  12.942  0.5345  0.2118  0.0023
37940SOL    HW223751   4.277   7.436  12.836  0.0637  2.9116 -0.4486
37941SOL     OW23752   4.067   1.831  11.112  0.4166  0.3972  0.2138
37941SOL    HW123753   4.041   1.823  11.020  1.1854 -1.5102  0.1311
37941SOL    HW223754   4.020   1.761  11.157  0.7112  0.7696  1.1224
37942SOL     OW23755   3.447   9.448   6.364  0.4930 -0.1350  0.8385
37942SOL    HW123756   3.357   9.466   6.339 -0.0874 -2.3085  1.1939
37942SOL    HW223757   3.488   9.534   6.371 -1.0127  0.8081 -1.2179
37943SOL     OW23758  10.421   6.468  10.686  0.0677  0.1778 -0.0975
37943SOL    HW123759  10.502   6.419  10.670 -0.0496  0.0774 -0.3840
37943SOL    HW223760  10.441   6.521  10.763  0.0852 -0.5774  0.4379
37944SOL     OW23761   8.461   5.841  12.000  0.6184  0.2577 -0.4075
37944SOL    HW123762   8.431   5.798  12.080 -0.5542  1.7641  0.0153
37944SOL    HW223763   8.549   5.873  12.021  0.9425 -0.7032 -0.2699
37945SOL     OW23764   8.429   6.823   6.263 -0.6229  0.1863 -0.0003
37945SOL    HW123765   8.337   6.822   6.236 -0.4210 -1.2414 -0.7080
37945SOL    HW223766   8.432   6.766   6.340 -0.2332 -0.2512 -0.3376
37946SOL     OW23767  11.164   3.716   4.207 -0.0729 -0.2662  0.2179
37946SOL    HW123768  11.115   3.795   4.185 -0.9063 -0.5610  0.9597
37946SOL    HW223769  11.169   3.716   4.302 -0.3618 -1.2692  0.2412
37947SOL     OW23770   9.892  12.307  11.739  0.3254  0.8975  0.3269
37947SOL    HW123771   9.965  12.246  11.748 -1.4808 -1.3652  0.4216
37947SOL    HW223772   9.881  12.344  11.827 -2.7364 -3.8653  2.3426
37948SOL     OW23773  11.996   2.500   8.751  0.3508 -0.4771 -0.3975
37948SOL    HW123774  11.974   2.533   8.665 -1.2869  0.5232  0.3658
37948SOL    HW223775  12.037   2.574   8.796  1.2982 -1.0221 -0.3357
37949SOL     OW23776   6.709   6.876   2.790  0.6800 -0.6141 -0.1472
37949SOL    HW123777   6.664   6.792   2.799  1.1161 -1.0768 -1.9862
37949SOL    HW223778   6.639   6.939   2.772  0.5186 -0.8585 -0.3703
37950SOL     OW23779   5.923  10.548   8.275  0.2739  0.2480  0.0518
37950SOL    HW123780   5.875  10.510   8.201 -0.6157  1.0546  0.1895
37950SOL    HW223781   5.954  10.472   8.324 -0.0496 -0.3010 -0.5613
37951SOL     OW23782   8.207   6.409   2.464  0.7418 -0.3348 -0.7539
37951SOL    HW123783   8.148   6.356   2.518  0.4463  0.6011 -0.1348
37951SOL    HW223784   8.278   6.434   2.524  1.3132 -0.7206 -1.2626
37952SOL     OW23785   2.853   1.527   9.456  1.0409  0.2588 -0.1981
37952SOL    HW123786   2.870   1.511   9.364  1.0499  2.7300 -0.6920
37952SOL    HW223787   2.775   1.582   9.457  0.4799 -0.4980  1.3521
37953SOL     OW23788  10.595   2.857  10.044  0.4936  0.0934  0.1256
37953SOL    HW123789  10.596   2.850  10.139  2.3208 -2.0474  0.0495
37953SOL    HW223790  10.668   2.916  10.024  1.6187 -1.2612  0.0495
37954SOL     OW23791   3.531   4.880   1.367 -0.5965 -0.2017  0.4042
37954SOL    HW123792   3.623   4.902   1.383 -0.4274  0.3404 -1.1961
37954SOL    HW223793   3.495   4.959   1.327 -1.9604 -0.1503  1.6335
37955SOL     OW23794  10.605   4.857   5.254 -0.8173  0.0590  0.0324
37955SOL    HW123795  10.613   4.870   5.348 -0.2074  2.1662 -0.2497
37955SOL    HW223796  10.632   4.941   5.216  2.1946 -1.7090 -2.1598
37956SOL     OW23797   0.720  10.557   0.278  0.2929  0.2031  0.2304
37956SOL    HW123798   0.650  10.577   0.341  1.6721 -0.2706  1.9845
37956SOL    HW223799   0.801  10.583   0.322  1.3122  0.0342 -1.4463
37957SOL     OW23800  12.555   2.983   9.065  0.2752  0.2366  0.5154
37957SOL    HW123801  12.496   3.028   9.125  0.4249 -0.2809  1.0633
37957SOL    HW223802  12.625   3.046   9.048 -0.6819  1.0431 -0.5497
37958SOL     OW23803  12.962   1.560   2.874  0.4917  0.1460 -0.0032
37958SOL    HW123804  12.914   1.494   2.825  0.4991  0.7142 -0.7976
37958SOL    HW223805  12.921   1.562   2.960 -0.1210 -0.2240 -0.2848
37959SOL     OW23806   1.621   0.630  11.179  0.1436  0.2335  0.3891
37959SOL    HW123807   1.600   0.580  11.258  0.9842 -0.5210  0.1496
37959SOL    HW223808   1.709   0.664  11.196  0.3395  0.0430 -0.2270
37960SOL     OW23809   5.553  11.656   3.591  0.0988 -0.2573 -0.3793
37960SOL    HW123810   5.480  11.694   3.639  2.2562  4.1056 -0.0619
37960SOL    HW223811   5.593  11.594   3.652 -0.6403  0.7911  1.2211
37961SOL     OW23812   2.415   7.102   2.664  0.3146 -0.1460 -0.0566
37961SOL    HW123813   2.444   7.013   2.686  0.1705 -0.2535 -0.2945
37961SOL    HW223814   2.489   7.141   2.618  0.1481 -0.3595 -0.5076
37962SOL     OW23815   5.332   8.531   1.858 -0.0525 -0.5251  0.5474
37962SOL    HW123816   5.375   8.446   1.865 -0.5262 -0.9256 -0.8685
37962SOL    HW223817   5.402   8.592   1.838  0.1002 -0.8951 -0.1179
37963SOL     OW23818  10.817   0.828   3.270  1.1030 -1.0998 -0.6293
37963SOL    HW123819  10.777   0.766   3.208 -0.5331 -0.3416 -0.3913
37963SOL    HW223820  10.883   0.777   3.316  1.7576 -1.9148 -2.3861
37964SOL     OW23821   7.818  11.343   0.288 -0.4386  0.2414 -0.6112
37964SOL    HW123822   7.807  11.411   0.221 -0.3031  0.6479 -0.2237
37964SOL    HW223823   7.865  11.387   0.358  1.9211 -0.9141 -1.3831
37965SOL     OW23824   6.023  10.413   8.974 -0.0494 -0.4087  0.1407
37965SOL    HW123825   5.944  10.361   8.988  0.5730 -1.5580 -0.4786
37965SOL    HW223826   5.993  10.492   8.929 -0.8782 -0.6931  0.1926
37966SOL     OW23827   3.099   0.808  12.725  0.0468  0.0899  0.0731
37966SOL    HW123828   3.136   0.720  12.723  0.7740  0.3855  0.0947
37966SOL    HW223829   3.133   0.846  12.807 -2.1157 -0.3840  1.2640
37967SOL     OW23830   1.141   5.564   2.057 -0.1442 -0.5514  0.5044
37967SOL    HW123831   1.207   5.537   2.121  0.1009 -2.4736 -0.4982
37967SOL    HW223832   1.071   5.500   2.066  0.4970 -1.7164 -2.0349
37968SOL     OW23833   2.329   2.281   5.677 -0.0754 -1.0456 -0.1657
37968SOL    HW123834   2.350   2.274   5.771  0.2368  0.9887 -0.0357
37968SOL    HW223835   2.406   2.321   5.639 -1.5311  1.5046 -0.6377
37969SOL     OW23836   1.902  12.161   1.522 -0.4378 -0.8960 -0.0819
37969SOL    HW123837   1.867  12.179   1.435 -0.1801  0.4480  0.0647
37969SOL    HW223838   1.825  12.146   1.577 -0.6021 -1.6926 -0.5223
37970SOL     OW23839   0.355   7.591  13.047 -0.9760  0.0112  0.2546
37970SOL    HW123840   0.445   7.618  13.030 -1.4801  1.0328 -1.1131
37970SOL    HW223841   0.338   7.618  13.137 -0.2220  0.7601  0.1879
37971SOL     OW23842  12.813   7.269   4.948 -0.3455 -0.3753 -0.3805
37971SOL    HW123843  12.738   7.311   4.904  0.7261  1.0670 -0.8997
37971SOL    HW223844  12.784   7.259   5.039 -0.6736  1.5105 -0.2320
37972SOL     OW23845   5.625   2.503   8.150 -0.1042  0.4290 -0.5795
37972SOL    HW123846   5.617   2.413   8.118  0.4579  0.1808 -0.0330
37972SOL    HW223847   5.719   2.520   8.153 -0.1805  0.7905 -0.0152
37973SOL     OW23848   2.778   0.591   6.637  0.5907  0.8781 -0.3034
37973SOL    HW123849   2.711   0.523   6.642 -1.2781  2.6709  0.6735
37973SOL    HW223850   2.854   0.547   6.599 -0.7886 -1.5099 -0.5151
37974SOL     OW23851  11.395   3.455   4.397  0.5849 -0.2508  0.2908
37974SOL    HW123852  11.436   3.542   4.396 -0.1694  0.1111 -0.6826
37974SOL    HW223853  11.434   3.411   4.473  1.4481  0.7068  0.4244
37975SOL     OW23854   4.044   7.631   8.557 -0.1821  0.5601  0.5549
37975SOL    HW123855   4.087   7.568   8.499 -0.7477  2.7599 -2.5339
37975SOL    HW223856   3.964   7.587   8.586  0.4694 -0.8866  0.2155
37976SOL     OW23857   3.748   1.670   9.623 -0.0249  0.3131  0.0854
37976SOL    HW123858   3.778   1.591   9.669  1.2883 -0.2772 -1.6897
37976SOL    HW223859   3.812   1.737   9.648 -0.1206  0.3618  0.2026
37977SOL     OW23860   3.063   8.412  11.979 -0.2688  0.3284  0.7617
37977SOL    HW123861   3.113   8.345  12.024 -0.0550  0.8027  1.2471
37977SOL    HW223862   3.041   8.476  12.047  0.8137  1.5080  0.0646
37978SOL     OW23863   6.149   4.738   0.081  0.5170  0.2253  0.3337
37978SOL    HW123864   6.055   4.739   0.098  0.0074  0.2339 -2.0714
37978SOL    HW223865   6.173   4.645   0.085  0.7303  0.3320  2.2729
37979SOL     OW23866  11.747   1.965   0.525  0.3717  0.5959  0.3370
37979SOL    HW123867  11.775   1.907   0.454  0.7779  0.8206  0.3098
37979SOL    HW223868  11.743   2.052   0.485  0.7519  0.7488  0.6214
37980SOL     OW23869   2.075   4.737   9.335 -0.0328  0.1147  0.4351
37980SOL    HW123870   1.996   4.723   9.386 -0.6350  0.8835 -0.2512
37980SOL    HW223871   2.046   4.732   9.244  1.1153 -1.7937  0.1113
37981SOL     OW23872   3.172  12.572   7.574  0.2291  0.0788 -0.1128
37981SOL    HW123873   3.121  12.506   7.525 -0.6520 -0.6644  1.6954
37981SOL    HW223874   3.140  12.564   7.664  0.4316  2.6995  0.2620
37982SOL     OW23875   4.121   8.967   1.136  0.5916 -0.5538  0.0627
37982SOL    HW123876   4.175   8.967   1.057  0.8050  0.3807  0.1857
37982SOL    HW223877   4.167   9.027   1.196 -0.7495  0.5488  0.0463
37983SOL     OW23878   4.161   6.705   4.925  0.9288  0.1470  0.0026
37983SOL    HW123879   4.194   6.632   4.873 -1.2946 -0.5538 -0.5112
37983SOL    HW223880   4.077   6.728   4.884  0.3506  1.2869  1.7329
37984SOL     OW23881  12.760   6.911   8.540 -0.4866 -0.2159  0.5636
37984SOL    HW123882  12.827   6.921   8.472 -0.6582 -0.7788  0.3028
37984SOL    HW223883  12.784   6.975   8.607  0.4340 -0.5562  0.5727
37985SOL     OW23884   1.269   4.752   0.626  0.0410 -0.3309  0.4484
37985SOL    HW123885   1.283   4.717   0.714 -0.6361 -1.1855  0.2352
37985SOL    HW223886   1.200   4.697   0.589  0.3272  0.0009 -0.6293
37986SOL     OW23887  11.552   9.400   4.814 -0.0673 -0.2028  0.2629
37986SOL    HW123888  11.463   9.412   4.847 -0.3487 -0.0961 -0.5141
37986SOL    HW223889  11.609   9.422   4.888 -0.6165  2.2395  0.0266
37987SOL     OW23890   2.201   7.381   8.509  0.5604  0.5010 -0.1242
37987SOL    HW123891   2.116   7.417   8.535 -0.1459 -0.0265 -1.6153
37987SOL    HW223892   2.265   7.443   8.543 -0.4093  0.9200  1.0079
37988SOL     OW23893   5.340   6.616   4.994 -0.2291 -0.1599 -0.5949
37988SOL    HW123894   5.329   6.672   4.917  0.4215 -1.9356 -2.0338
37988SOL    HW223895   5.396   6.545   4.964 -0.8856 -1.5050  1.2282
37989SOL     OW23896   8.803   9.947   4.284  0.5781 -0.5737 -0.0616
37989SOL    HW123897   8.816  10.002   4.206  0.6499 -0.3669  0.0929
37989SOL    HW223898   8.727   9.985   4.327 -0.0051 -1.2387 -0.4941
37990SOL     OW23899   1.448  10.491   1.082  0.0693  0.1365  0.3793
37990SOL    HW123900   1.421  10.406   1.048  0.2562 -0.0198  0.6179
37990SOL    HW223901   1.514  10.522   1.019 -0.7184  0.5628 -0.2539
37991SOL     OW23902   7.616   7.913   8.984  0.0606  0.1738  0.5993
37991SOL    HW123903   7.585   7.822   8.989 -1.2411  0.6527  3.0701
37991SOL    HW223904   7.545   7.961   8.943  0.5634  0.1680 -0.2958
37992SOL     OW23905   8.919   6.386   8.853 -0.6161  1.0919 -0.2390
37992SOL    HW123906   8.870   6.388   8.771  0.4194 -0.1460 -0.9372
37992SOL    HW223907   8.941   6.477   8.871 -1.4464  1.4449 -0.9653
37993SOL     OW23908   4.279  13.209   7.916 -0.3085  0.0029 -0.2228
37993SOL    HW123909   4.321  13.290   7.947  1.0109  0.3899 -2.7943
37993SOL    HW223910   4.198  13.238   7.875 -1.4741 -0.3872  1.6968
37994SOL     OW23911   1.609  11.981   0.313  0.5776  0.5682  0.3880
37994SOL    HW123912   1.608  11.886   0.299  1.3726  0.4973  0.7521
37994SOL    HW223913   1.674  11.994   0.382  1.4181  1.4925 -0.5413
37995SOL     OW23914  10.161  12.990   8.519 -0.6016  0.0263  0.3678
37995SOL    HW123915  10.127  13.049   8.586 -0.2596  0.6613 -0.0154
37995SOL    HW223916  10.245  13.027   8.494 -2.2036  1.8477 -2.9557
37996SOL     OW23917   4.644  12.405   6.625  0.1584  0.2867  0.1171
37996SOL    HW123918   4.682  12.434   6.708  2.0402 -2.4393  0.3587
37996SOL    HW223919   4.660  12.478   6.565  0.2212  1.6744  1.7476
37997SOL     OW23920   3.267  12.321   7.757  0.4386  0.1250 -0.2815
37997SOL    HW123921   3.174  12.331   7.776  0.4282 -0.1407 -0.1859
37997SOL    HW223922   3.276  12.230   7.729  0.8608 -0.1939  0.8468
37998SOL     OW23923   3.238  11.176   6.147 -0.5148 -0.2211  0.1244
37998SOL    HW123924   3.253  11.231   6.070 -0.5423 -0.2132  0.1246
37998SOL    HW223925   3.325  11.160   6.182 -0.6242  1.3575  1.1911
37999SOL     OW23926   5.597   5.586   8.570 -0.1424 -0.1499  0.6772
37999SOL    HW123927   5.527   5.581   8.636 -0.5847  1.4902  0.3801
37999SOL    HW223928   5.672   5.545   8.612 -1.5430 -3.0653  0.5710
38000SOL     OW23929  11.039   5.048   2.276 -0.7555  1.1416  0.3971
38000SOL    HW123930  10.996   4.967   2.305 -0.0925  0.0657 -1.4176
38000SOL    HW223931  10.971   5.097   2.231 -0.2774 -0.4342 -2.2334
38001SOL     OW23932   9.406   7.245   9.663 -0.1093  0.0846 -0.1895
38001SOL    HW123933   9.338   7.232   9.597 -0.6856  2.7223 -0.2239
38001SOL    HW223934   9.459   7.166   9.659 -1.4716 -0.8027 -2.1871
38002SOL     OW23935  10.466   7.554   7.748  0.1500 -0.1739  0.1960
38002SOL    HW123936  10.456   7.647   7.767 -0.3872 -0.0494 -0.6644
38002SOL    HW223937  10.428   7.542   7.661 -1.3269 -1.5024  0.9642
38003SOL     OW23938   1.414   2.273   2.246 -0.1232 -0.5280 -0.1518
38003SOL    HW123939   1.383   2.349   2.296  1.5224 -0.4438  0.7940
38003SOL    HW223940   1.358   2.272   2.169 -0.3347  1.5584 -0.1008
38004SOL     OW23941   2.556   3.162   2.566 -0.2789  0.1839 -0.3586
38004SOL    HW123942   2.536   3.193   2.654 -1.4825 -0.0223 -0.5324
38004SOL    HW223943   2.478   3.185   2.515  0.7567  1.0903 -1.5730
38005SOL     OW23944   6.769  12.476  12.659 -0.3617 -0.0938  0.1208
38005SOL    HW123945   6.694  12.498  12.715 -1.3751 -0.8221 -0.9066
38005SOL    HW223946   6.779  12.382  12.668  0.3308 -0.0280  0.0992
38006SOL     OW23947   4.503   6.222   7.456  0.4479 -0.2927 -1.0310
38006SOL    HW123948   4.447   6.146   7.470  1.1287 -0.7047 -0.5235
38006SOL    HW223949   4.501   6.236   7.361 -0.9997  0.0852 -0.9657
38007SOL     OW23950   3.722   7.416   9.727 -1.4188  0.1448  0.7248
38007SOL    HW123951   3.661   7.348   9.698  0.2398 -2.5000  2.9440
38007SOL    HW223952   3.803   7.398   9.680 -1.1561  1.1175  0.7696
38008SOL     OW23953   2.246   6.473   6.490  0.2395  0.4319  0.1161
38008SOL    HW123954   2.188   6.533   6.443 -0.6520 -0.5128 -0.0219
38008SOL    HW223955   2.202   6.389   6.486  1.1480 -0.1025  0.8932
38009SOL     OW23956  10.023   9.085  11.455  0.3530 -0.3749  0.3469
38009SOL    HW123957  10.038   9.119  11.367 -1.5338  0.8843  0.4473
38009SOL    HW223958   9.992   8.995  11.442 -1.1214  0.2113 -0.3872
38010SOL     OW23959   1.617   4.200   8.458 -0.4539  0.0936  0.0488
38010SOL    HW123960   1.618   4.239   8.545 -1.0247  0.6381 -0.1800
38010SOL    HW223961   1.573   4.116   8.470 -1.3418  0.5590  0.1399
38011SOL     OW23962   1.059   6.573   5.875  0.1757 -0.0244  0.3239
38011SOL    HW123963   1.056   6.486   5.916 -1.9579 -0.8974 -1.4678
38011SOL    HW223964   1.137   6.571   5.821 -0.1589 -1.1032 -0.1591
38012SOL     OW23965   3.014   9.831  10.831  0.2203  0.3026  0.2093
38012SOL    HW123966   3.008   9.919  10.870  1.9657 -0.2369  1.8397
38012SOL    HW223967   3.106   9.807  10.842 -0.4412 -2.1828  0.8157
38013SOL     OW23968   7.205   0.377  10.339 -0.1274  0.6875 -0.2056
38013SOL    HW123969   7.279   0.430  10.309  1.9189 -1.4100  0.8071
38013SOL    HW223970   7.192   0.312  10.270  1.6177 -1.3385  1.2490
38014SOL     OW23971   2.507   6.819   3.955 -0.4761  0.4880 -0.2196
38014SOL    HW123972   2.442   6.783   4.015  0.6210 -1.5727 -0.1687
38014SOL    HW223973   2.565   6.872   4.011 -1.2475  1.1431 -0.0287
38015SOL     OW23974   6.761  11.512   2.941  0.5719 -0.1640  0.4749
38015SOL    HW123975   6.718  11.551   2.865  0.9975  3.0939  1.7353
38015SOL    HW223976   6.828  11.576   2.966  0.2331 -0.9127  3.7642
38016SOL     OW23977   6.518   3.432   2.028 -0.3379  0.6691 -0.2512
38016SOL    HW123978   6.465   3.452   1.951  0.7605 -0.4286 -1.3546
38016SOL    HW223979   6.594   3.491   2.022 -0.5032  0.9433  0.2843
38017SOL     OW23980   4.172   7.960   7.411 -0.2309  0.3635 -0.5307
38017SOL    HW123981   4.249   7.976   7.465 -1.0424 -0.3697  0.9130
38017SOL    HW223982   4.113   8.033   7.432 -0.3473  0.3561 -0.8272
38018SOL     OW23983  13.050   4.235   8.793 -0.2932  0.2064  0.0883
38018SOL    HW123984  13.123   4.174   8.777 -0.4406 -0.0291  0.3068
38018SOL    HW223985  12.971   4.183   8.775 -0.4215  0.3193  0.3241
38019SOL     OW23986  10.803  13.229   5.090 -0.0348 -0.3032 -0.3405
38019SOL    HW123987  10.710  13.248   5.101 -0.1522 -1.0106 -0.0854
38019SOL    HW223988  10.845  13.274   5.164 -0.3700 -1.4511  0.5801
38020SOL     OW23989   2.603  10.851  10.062  0.1482  0.0941 -0.0924
38020SOL    HW123990   2.581  10.817  10.149 -1.1551 -0.4045 -0.5849
38020SOL    HW223991   2.538  10.919  10.046  1.2418  1.1525 -0.1226
38021SOL     OW23992   3.395   3.862   8.625  0.2154  0.2579  0.1777
38021SOL    HW123993   3.430   3.781   8.661  2.7495  1.1819  0.0699
38021SOL    HW223994   3.366   3.839   8.537 -0.8264 -0.8817  0.8030
38022SOL     OW23995   7.695   8.989  12.497  0.6255 -0.2629 -0.4055
38022SOL    HW123996   7.721   9.080  12.484 -0.6248  0.1764 -0.0113
38022SOL    HW223997   7.777   8.942  12.511  1.2929  0.7869 -0.7090
38023SOL     OW23998   9.592   8.016  10.744  0.1764 -0.2054  0.2290
38023SOL    HW123999   9.515   8.047  10.792 -0.2264  2.5303 -1.9250
38023SOL    HW224000   9.572   8.035  10.653  2.1767 -2.3258 -0.7417
38024SOL     OW24001   6.839   5.112  11.046  0.1314 -0.0600  0.1909
38024SOL    HW124002   6.909   5.176  11.034  1.3085 -0.4356  3.8824
38024SOL    HW224003   6.760   5.157  11.015  1.7041  0.8112 -2.9918
38025SOL     OW24004   4.721   8.651   8.214  0.3945 -0.5167 -0.0931
38025SOL    HW124005   4.648   8.691   8.167  1.0618  1.2961  0.3238
38025SOL    HW224006   4.687   8.567   8.245 -2.0855  0.9571  1.5010
38026SOL     OW24007   8.350  10.634   6.070 -0.2944  0.0021  0.7256
38026SOL    HW124008   8.444  10.651   6.071 -0.4049  1.0986 -1.5935
38026SOL    HW224009   8.340  10.555   6.017 -0.6825 -0.2581  1.1720
38027SOL     OW24010   0.113   4.602  11.688 -0.4309 -0.0685  0.3282
38027SOL    HW124011   0.029   4.644  11.670 -0.0240  0.9547  0.7701
38027SOL    HW224012   0.172   4.674  11.710  0.1358 -0.8959  1.6782
38028SOL     OW24013   9.008   3.427  12.861  0.0040 -0.0858 -0.5377
38028SOL    HW124014   9.059   3.493  12.814  0.2624 -0.4929 -0.8330
38028SOL    HW224015   8.949   3.478  12.916 -0.4260  0.4061 -1.4262
38029SOL     OW24016   7.976   9.557   1.024  0.4470  0.2810  0.3751
38029SOL    HW124017   7.925   9.627   0.983 -0.6696 -1.1121 -0.7407
38029SOL    HW224018   7.947   9.557   1.115 -0.2231  0.6805  0.1695
38030SOL     OW24019   7.049   5.387   8.673 -0.3226  0.5097  0.0315
38030SOL    HW124020   7.101   5.464   8.651 -0.0397  0.1209 -0.6909
38030SOL    HW224021   7.040   5.340   8.591  1.4221 -1.3988  0.8435
38031SOL     OW24022  12.683   0.865   7.793 -0.0110  0.3484 -0.0755
38031SOL    HW124023  12.677   0.959   7.809 -2.0420  0.3826 -0.6538
38031SOL    HW224024  12.690   0.826   7.880 -1.0280  0.9741  0.3133
38032SOL     OW24025   2.098  10.798  11.196  0.2175 -0.1440 -0.5368
38032SOL    HW124026   2.166  10.800  11.263 -0.6973 -0.1471  0.4012
38032SOL    HW224027   2.074  10.890  11.182  0.0387 -0.1826 -0.4852
38033SOL     OW24028   7.936   8.669  10.383  0.0044  0.0825  0.3854
38033SOL    HW124029   8.027   8.656  10.359  0.1490 -1.3297  1.5775
38033SOL    HW224030   7.923   8.614  10.460 -1.6264  0.9234  0.7603
38034SOL     OW24031   0.016  11.979   5.898 -0.2532 -0.1236  0.1506
38034SOL    HW124032   0.077  11.949   5.965 -0.0969 -1.2686 -0.4637
38034SOL    HW224033   0.069  11.990   5.820 -0.5262  0.6874  0.0686
38035SOL     OW24034  12.411   6.384   4.649  0.2373 -0.3122 -0.2811
38035SOL    HW124035  12.486   6.326   4.644  0.9813  0.5911  0.0578
38035SOL    HW224036  12.448   6.470   4.667 -0.9777 -0.1161  1.5092
38036SOL     OW24037  13.292  10.192   6.386 -0.4625 -0.1653  0.4609
38036SOL    HW124038  13.342  10.156   6.461 -0.9051 -3.2783 -0.5817
38036SOL    HW224039  13.340  10.161   6.309 -1.0022  1.4893 -0.5812
38037SOL     OW24040   5.795   2.692  13.063 -0.6723 -0.1395 -0.4406
38037SOL    HW124041   5.715   2.644  13.043 -1.1351  1.2031 -2.1359
38037SOL    HW224042   5.829   2.717  12.977  0.4335  1.0799  0.3205
38038SOL     OW24043   3.124   3.587   4.010  0.6807  0.0625 -0.2898
38038SOL    HW124044   3.049   3.643   3.989  0.2363  0.0816  1.2224
38038SOL    HW224045   3.093   3.498   3.991  0.7369  0.1662 -0.8948
38039SOL     OW24046   4.191   0.891   2.628  0.1680 -0.3769  0.6355
38039SOL    HW124047   4.211   0.875   2.721  1.1603 -0.9937  0.3245
38039SOL    HW224048   4.177   0.804   2.591  2.0748 -0.3305 -0.2911
38040SOL     OW24049   9.269   5.803  12.959 -0.4798 -0.1034 -0.3207
38040SOL    HW124050   9.298   5.796  13.050  0.1266 -0.6226 -0.5439
38040SOL    HW224051   9.349   5.818  12.910 -0.6218 -1.1602 -0.9068
38041SOL     OW24052  11.316   6.600   4.486  0.0811  0.0978 -0.2734
38041SOL    HW124053  11.223   6.615   4.466 -0.0471 -0.0377  0.2219
38041SOL    HW224054  11.337   6.517   4.442 -0.3103 -0.4118  0.4826
38042SOL     OW24055   1.685   7.406   9.414  0.4158 -0.1564  0.0150
38042SOL    HW124056   1.651   7.352   9.343  2.5114  1.9759 -2.8462
38042SOL    HW224057   1.606   7.439   9.457 -0.9517 -1.7476 -1.1147
38043SOL     OW24058  12.927   6.301   3.003 -0.3353 -0.8638 -0.1530
38043SOL    HW124059  12.922   6.206   3.003 -0.7068 -0.8771 -1.6362
38043SOL    HW224060  12.872   6.329   3.076  0.8591 -1.7987  1.1613
38044SOL     OW24061  12.996  10.066   9.411  0.6604  0.3307 -0.6980
38044SOL    HW124062  13.002  10.132   9.480  1.2375 -0.5060  0.0761
38044SOL    HW224063  13.061  10.094   9.345 -1.2894  2.2413 -1.9337
38045SOL     OW24064  10.380   8.278   0.110  0.3899 -0.6371  0.4565
38045SOL    HW124065  10.342   8.278   0.022  0.8255  2.8565  0.1259
38045SOL    HW224066  10.361   8.191   0.144 -1.4092 -1.5083 -2.3847
38046SOL     OW24067   0.728   6.713  11.727 -0.1956 -0.0774 -0.0844
38046SOL    HW124068   0.696   6.745  11.642 -0.8881  0.2298  0.2799
38046SOL    HW224069   0.672   6.757  11.791  0.3682 -0.2547  0.5358
38047SOL     OW24070   7.463   2.640   0.775 -0.0787  0.2305  0.5511
38047SOL    HW124071   7.531   2.645   0.707 -0.5158 -1.8377 -0.1017
38047SOL    HW224072   7.391   2.693   0.740  0.3928  0.6994  0.2665
38048SOL     OW24073   5.550   7.959  10.459 -0.0659 -0.3665  0.1972
38048SOL    HW124074   5.551   7.997  10.547 -2.9794  1.2216 -0.3308
38048SOL    HW224075   5.463   7.919  10.451  0.5267 -1.3921 -1.6047
38049SOL     OW24076   4.838   0.924   0.176 -0.2039  0.0201 -0.3813
38049SOL    HW124077   4.863   0.997   0.118  0.3265  2.7856  3.0208
38049SOL    HW224078   4.753   0.951   0.211 -1.7012 -2.7798 -1.5896
38050SOL     OW24079   2.967   3.695   9.802  0.4546 -0.2661 -0.1091
38050SOL    HW124080   3.058   3.683   9.772 -0.0904 -1.4951 -1.4365
38050SOL    HW224081   2.915   3.649   9.736 -1.0186 -1.1580  1.5914
38051SOL     OW24082   3.374   0.950  11.259 -0.0987  0.2793  0.8215
38051SOL    HW124083   3.404   0.923  11.173  1.9870  2.0270  0.9094
38051SOL    HW224084   3.343   1.040  11.247 -3.0405 -0.5657  1.2935
38052SOL     OW24085   8.607   5.501   1.087  0.0484  0.1890 -0.3740
38052SOL    HW124086   8.696   5.525   1.113 -0.0738 -0.3610  0.6434
38052SOL    HW224087   8.551   5.545   1.151 -0.3505 -0.1217 -0.5036
38053SOL     OW24088   2.225   2.292   9.945 -0.0945 -0.4434  0.4196
38053SOL    HW124089   2.183   2.214   9.908  1.7143 -1.4262  0.3371
38053SOL    HW224090   2.155   2.336   9.994 -0.3749 -4.2691  4.0047
38054SOL     OW24091   0.938   4.065   4.010  0.2208  0.4412  0.6782
38054SOL    HW124092   0.863   4.100   4.058 -0.6466 -0.4014 -0.0207
38054SOL    HW224093   0.958   4.131   3.945  0.4096  0.8944  1.1911
38055SOL     OW24094   0.459   0.082   5.050 -0.2362  0.5877  0.3880
38055SOL    HW124095   0.446  -0.002   5.093 -0.7712 -0.2316 -1.2964
38055SOL    HW224096   0.500   0.060   4.966  1.3882  2.1725  0.7005
38056SOL     OW24097   2.325   4.408  11.878 -0.0515  0.4354 -0.1727
38056SOL    HW124098   2.324   4.325  11.924 -1.0306  1.2413  1.3504
38056SOL    HW224099   2.413   4.442  11.891  0.6736 -0.7759 -1.6550
38057SOL     OW24100   0.631   4.185   8.851  0.1621 -0.0648  0.5070
38057SOL    HW124101   0.582   4.105   8.833  1.5444 -0.4559 -1.8553
38057SOL    HW224102   0.622   4.238   8.772  2.3310  0.4706  0.5612
38058SOL     OW24103   4.362   0.271  12.620  0.1747 -0.2168 -0.0008
38058SOL    HW124104   4.294   0.205  12.608  0.9332 -0.8604 -0.9040
38058SOL    HW224105   4.439   0.235  12.576  0.2137  1.8921 -1.8809
38059SOL     OW24106   0.990   1.196   6.436 -0.1126 -0.4001  0.2832
38059SOL    HW124107   1.032   1.252   6.501 -2.5256 -0.1070  1.7458
38059SOL    HW224108   0.980   1.112   6.479 -2.4797  0.0249  0.7131
38060SOL     OW24109   7.179   0.767   5.136  0.0750  0.0817  0.0248
38060SOL    HW124110   7.243   0.836   5.120 -0.8212  0.8743 -0.2129
38060SOL    HW224111   7.122   0.802   5.205 -2.4688  1.0704 -2.3911
38061SOL     OW24112  11.163   7.135   8.492 -0.0990 -0.1412 -0.0967
38061SOL    HW124113  11.177   7.098   8.579  1.0982  0.0898 -0.1818
38061SOL    HW224114  11.163   7.060   8.434 -0.0263 -0.2147 -0.0012
38062SOL     OW24115   3.068   4.430  12.276 -0.2016 -0.3167  0.2320
38062SOL    HW124116   3.139   4.414  12.338  0.4045 -0.2891 -0.4360
38062SOL    HW224117   3.094   4.383  12.197 -1.1238 -0.6313  0.1012
38063SOL     OW24118   7.400   3.313   3.937  0.0999 -0.3532  0.1060
38063SOL    HW124119   7.371   3.221   3.935 -2.7976  0.2688  3.5751
38063SOL    HW224120   7.342   3.358   3.877  1.3778 -0.6422 -1.4254
38064SOL     OW24121   0.616   4.884   7.885 -0.1198  1.0162  0.1331
38064SOL    HW124122   0.639   4.855   7.973  0.1209  0.9879  0.0616
38064SOL    HW224123   0.665   4.826   7.827 -0.3394  0.9819 -0.0230
38065SOL     OW24124   7.248  12.060   5.244  0.0341  0.3801  0.1060
38065SOL    HW124125   7.300  12.038   5.167 -1.9161  0.2124 -1.2469
38065SOL    HW224126   7.312  12.077   5.312  1.8232 -0.3275 -1.3106
38066SOL     OW24127  11.062   6.434  13.178  0.2087  0.0895 -0.2138
38066SOL    HW124128  11.131   6.420  13.113  0.4860 -0.5833  0.2301
38066SOL    HW224129  10.996   6.485  13.130  0.9373  0.6180 -0.6803
38067SOL     OW24130   4.855   3.664   7.919  0.0646 -0.0609 -0.5306
38067SOL    HW124131   4.846   3.755   7.945  2.8506 -0.4238  2.4937
38067SOL    HW224132   4.885   3.667   7.828  0.5932  2.0988 -0.3286
38068SOL     OW24133   8.223   8.596   8.501  0.3011 -0.5505 -0.2077
38068SOL    HW124134   8.142   8.547   8.511 -0.0854 -0.3267 -1.9188
38068SOL    HW224135   8.216   8.637   8.415  2.6620 -1.3157 -0.8354
38069SOL     OW24136   6.040  10.570   3.437  0.4318  0.8956 -0.4799
38069SOL    HW124137   5.959  10.546   3.392  0.0003  1.5765 -0.0945
38069SOL    HW224138   6.108  10.520   3.393 -0.3383 -0.5478 -0.1009
38070SOL     OW24139   6.171  12.622   4.341 -0.2915 -0.2719 -0.0215
38070SOL    HW124140   6.185  12.535   4.377  1.6902  0.0788  0.1378
38070SOL    HW224141   6.117  12.667   4.407 -1.1218 -1.2642  0.0043
38071SOL     OW24142   6.596   0.772   6.545 -0.2725 -0.1263  0.0194
38071SOL    HW124143   6.526   0.744   6.605  0.4799 -1.9363  0.1183
38071SOL    HW224144   6.665   0.706   6.556  0.8558  0.8093 -1.1369
38072SOL     OW24145  12.349   5.205  11.945 -0.8781  0.1143 -0.1570
38072SOL    HW124146  12.430   5.248  11.971 -2.0645  2.6126 -0.3404
38072SOL    HW224147  12.301   5.193  12.026 -0.9661  0.0061 -0.2238
38073SOL     OW24148   4.881  12.108  10.782  0.1776 -0.0192 -0.3037
38073SOL    HW124149   4.970  12.133  10.808  1.5241 -3.5919 -0.8418
38073SOL    HW224150   4.838  12.085  10.864  0.0436  0.8611 -0.1224
38074SOL     OW24151   1.657   8.733   5.115  0.6100  0.0101 -0.0727
38074SOL    HW124152   1.575   8.685   5.110  0.5529  0.1530 -0.5821
38074SOL    HW224153   1.706   8.705   5.037  0.2066  1.4313 -0.8816
38075SOL     OW24154   3.068  13.188   3.489 -0.3926  0.3416  0.1713
38075SOL    HW124155   3.126  13.112   3.488  1.3113  1.5448  1.2067
38075SOL    HW224156   2.980  13.151   3.482  0.3890 -1.6889  0.3203
38076SOL     OW24157   2.483   1.506  11.491  0.1976 -0.8288  0.1363
38076SOL    HW124158   2.399   1.513  11.446 -0.8006 -2.3764  1.6172
38076SOL    HW224159   2.460   1.500  11.584  2.0044 -0.4750  0.6438
38077SOL     OW24160  11.222   4.283   8.577  0.4912 -0.3142 -0.0601
38077SOL    HW124161  11.258   4.370   8.591  5.1095 -2.1312  1.3882
38077SOL    HW224162  11.219   4.273   8.482  0.4601  1.1907 -0.2343
38078SOL     OW24163   3.661   1.494   6.674  0.2085  0.2984  0.1023
38078SOL    HW124164   3.633   1.459   6.589  2.0514 -2.8155  0.5811
38078SOL    HW224165   3.585   1.541   6.708 -1.2343 -0.0509 -2.3965
38079SOL     OW24166   4.474   9.634  12.231 -0.2041  0.6267  0.1068
38079SOL    HW124167   4.412   9.702  12.261  0.0710  1.5486 -1.3074
38079SOL    HW224168   4.477   9.646  12.136  1.0502 -0.3650  0.0107
38080SOL     OW24169   9.461   4.036   5.358  0.1898  0.1968  0.1240
38080SOL    HW124170   9.499   4.108   5.409 -0.2579 -0.2148  1.0571
38080SOL    HW224171   9.535   4.001   5.308  0.6560  0.5737  0.5400
38081SOL     OW24172  11.884  11.790   2.216  0.0553 -0.4271  0.2619
38081SOL    HW124173  11.878  11.822   2.305  0.3830 -1.2851  0.6047
38081SOL    HW224174  11.977  11.767   2.205  0.0690 -0.0948 -0.3775
38082SOL     OW24175   2.178   4.956   4.096  0.0433  0.5166  0.2673
38082SOL    HW124176   2.193   4.970   4.189  0.2000  2.4959 -0.0141
38082SOL    HW224177   2.186   5.043   4.056 -0.8320 -0.1344 -1.4830
38083SOL     OW24178   4.984   9.537  12.943  0.2147 -0.2988 -0.9937
38083SOL    HW124179   5.040   9.459  12.947 -0.7152 -1.0009 -1.3068
38083SOL    HW224180   5.030   9.602  12.995  1.3517 -0.8404 -1.2774
38084SOL     OW24181   6.575   2.480   2.360 -0.1445  0.2986 -0.0584
38084SOL    HW124182   6.640   2.478   2.430 -0.2792  1.2135  0.0980
38084SOL    HW224183   6.491   2.488   2.405 -0.3106 -0.0678 -0.2939
38085SOL     OW24184  12.534   2.813   4.475 -0.0330  0.0380  0.0638
38085SOL    HW124185  12.473   2.842   4.408  1.6084 -0.6322 -1.8051
38085SOL    HW224186  12.520   2.874   4.548 -0.0129  2.5491 -1.8872
38086SOL     OW24187   7.691  11.753   4.321 -0.2128  0.2997 -0.0200
38086SOL    HW124188   7.750  11.715   4.386 -0.5400 -0.5471 -0.2105
38086SOL    HW224189   7.727  11.841   4.305 -0.1332  0.5415  1.3167
38087SOL     OW24190   6.907  12.181   0.764  0.2744  0.2063  0.3028
38087SOL    HW124191   6.973  12.222   0.708  0.6972  0.3906  0.9323
38087SOL    HW224192   6.940  12.192   0.853  1.5917 -3.5315  0.4446
38088SOL     OW24193   1.534   7.755   6.052 -0.5903 -0.2135 -0.0593
38088SOL    HW124194   1.523   7.848   6.071 -0.5448  0.3970 -2.6808
38088SOL    HW224195   1.610   7.751   5.994 -2.5286 -1.4251 -2.6977
38089SOL     OW24196   9.967  13.228  13.155  0.2195 -0.4002  0.6212
38089SOL    HW124197   9.989  13.199  13.067 -0.4677  2.7395 -0.7054
38089SOL    HW224198   9.877  13.199  13.168 -0.4852  1.0799 -0.6965
38090SOL     OW24199  12.835   9.492   7.575 -0.0292 -0.5473 -0.9135
38090SOL    HW124200  12.876   9.478   7.660  1.0478 -0.5611 -1.4138
38090SOL    HW224201  12.875   9.574   7.543 -0.1027 -0.7669 -1.5836
38091SOL     OW24202   7.283   6.448   4.434 -0.4695 -0.6597  0.1853
38091SOL    HW124203   7.327   6.533   4.424 -0.8283 -0.2852  1.6212
38091SOL    HW224204   7.298   6.404   4.350  2.0421 -0.2772  0.3597
38092SOL     OW24205  12.824  11.739   6.907  0.3516 -0.5548 -0.1186
38092SOL    HW124206  12.751  11.719   6.966 -0.7202  0.4560 -1.0431
38092SOL    HW224207  12.898  11.758   6.965 -0.1489 -1.4328  0.8433
38093SOL     OW24208   2.196   0.323   1.528  0.1391  0.0836 -0.3598
38093SOL    HW124209   2.246   0.322   1.446 -0.8152  1.4974 -1.0109
38093SOL    HW224210   2.133   0.252   1.519  1.2535 -0.9884 -0.0096
38094SOL     OW24211  10.052   3.452   2.092 -0.0313 -0.4956 -0.7308
38094SOL    HW124212  10.024   3.435   2.002  1.2804  1.0816 -1.4939
38094SOL    HW224213   9.976   3.492   2.133 -0.2405 -0.0547 -1.5258
38095SOL     OW24214   9.148   5.204   4.984 -0.5750 -0.0286 -0.3045
38095SOL    HW124215   9.130   5.271   5.050  1.2980  0.5520 -0.3335
38095SOL    HW224216   9.197   5.137   5.031  0.1268  0.0384 -0.9316
38096SOL     OW24217   5.684   2.728  12.757 -0.2562  0.1810 -0.0861
38096SOL    HW124218   5.652   2.797  12.699  1.8948  1.1422 -0.2170
38096SOL    HW224219   5.710   2.657  12.698  0.0126  0.3355 -0.1549
38097SOL     OW24220   4.025   3.663  11.286 -0.0217 -0.2939 -0.3407
38097SOL    HW124221   4.117   3.636  11.290 -0.0585 -0.5353 -1.0499
38097SOL    HW224222   4.001   3.654  11.194 -0.4510  0.7912 -0.3536
38098SOL     OW24223   3.927   0.085   1.343  0.0935  0.3381  0.1813
38098SOL    HW124224   3.893   0.126   1.263  0.9694  2.4650  0.8339
38098SOL    HW224225   3.896   0.141   1.414  2.1728  0.4960  1.0470
38099SOL     OW24226   9.436  11.041   1.278  0.3530  0.1921 -0.0276
38099SOL    HW124227   9.396  10.954   1.275 -0.0783  0.3517  0.8492
38099SOL    HW224228   9.507  11.036   1.214  0.9932 -1.1372  0.7344
38100SOL     OW24229   3.274   4.781   5.018  0.2664  0.2614 -0.2529
38100SOL    HW124230   3.315   4.848   4.962 -0.0511  0.7995  0.1495
38100SOL    HW224231   3.313   4.698   4.989 -1.7340  0.1530 -3.1002
38101SOL     OW24232  11.305   4.108   3.612  0.2509  0.1730  0.1008
38101SOL    HW124233  11.332   4.103   3.521  1.1575  1.5536  0.2695
38101SOL    HW224234  11.244   4.181   3.616  1.0464  0.8251  0.7722
38102SOL     OW24235   3.850   1.192  12.497  0.0689  0.5256 -0.5736
38102SOL    HW124236   3.801   1.110  12.500  0.9586 -0.2799 -3.7260
38102SOL    HW224237   3.794   1.253  12.449 -0.0705  1.4116  0.6592
38103SOL     OW24238   1.428  13.133  10.600  0.4217  0.3399  0.1403
38103SOL    HW124239   1.384  13.119  10.684  0.2016 -0.3694 -0.0931
38103SOL    HW224240   1.483  13.056  10.588 -1.2827 -0.6925 -1.4493
38104SOL     OW24241   7.485   1.290   3.658 -0.0574  0.0236 -0.1247
38104SOL    HW124242   7.542   1.355   3.616 -2.0309  3.0181  1.4275
38104SOL    HW224243   7.410   1.283   3.600 -0.6465  0.5687  0.5391
38105SOL     OW24244   0.144  12.723   0.368 -0.3107 -0.3268 -0.3815
38105SOL    HW124245   0.081  12.782   0.409 -0.6826  0.7159 -2.3658
38105SOL    HW224246   0.097  12.684   0.295  1.1054 -0.0929 -1.4541
38106SOL     OW24247   4.803   9.003  10.600 -0.0484 -0.2530  0.1797
38106SOL    HW124248   4.722   9.053  10.612 -0.1140 -0.3508  0.1499
38106SOL    HW224249   4.786   8.949  10.523 -0.3105 -0.9718  0.7271
38107SOL     OW24250   3.118   9.493  13.120  0.2121  0.1321 -0.1978
38107SOL    HW124251   3.121   9.553  13.194 -1.1731 -0.0184  0.0053
38107SOL    HW224252   3.099   9.549  13.045  1.4145  0.2582 -0.4326
38108SOL     OW24253  13.233   1.752   7.695  0.4808 -0.3583  0.1814
38108SOL    HW124254  13.329   1.755   7.687  0.6483 -2.6547  0.5549
38108SOL    HW224255  13.211   1.827   7.749  1.8071  1.5135 -1.6667
38109SOL     OW24256   2.919   7.846   6.324 -0.4780 -0.5731 -0.2737
38109SOL    HW124257   2.853   7.795   6.275 -0.0935 -1.7436  0.3949
38109SOL    HW224258   2.973   7.780   6.367  0.4326  0.4062  0.1194
38110SOL     OW24259   9.201   3.097   8.955  0.0469 -0.4055 -0.1434
38110SOL    HW124260   9.205   3.188   8.926 -0.0960 -0.4364 -0.2593
38110SOL    HW224261   9.282   3.058   8.923  0.1439 -0.3000 -0.0288
38111SOL     OW24262   8.900  13.125   5.384  0.2359  0.1343 -0.1983
38111SOL    HW124263   8.985  13.134   5.427 -0.3656 -2.5976  1.8974
38111SOL    HW224264   8.868  13.215   5.373  2.0568  1.1127  1.8361
38112SOL     OW24265   6.315   1.996   7.748 -0.7071 -0.6242  0.2234
38112SOL    HW124266   6.324   1.962   7.659 -0.0204 -1.2463  0.5167
38112SOL    HW224267   6.367   2.077   7.748  1.3622 -1.8793  0.6888
38113SOL     OW24268   3.503   8.779   9.285  0.0907 -0.7615 -0.3025
38113SOL    HW124269   3.416   8.815   9.303  0.3348 -0.8338  1.1129
38113SOL    HW224270   3.485   8.691   9.251 -0.3963 -0.5529 -0.6090
38114SOL     OW24271  12.263  10.562  11.907 -0.3073  0.2235 -0.4615
38114SOL    HW124272  12.349  10.538  11.874  0.1048 -0.4667  1.0353
38114SOL    HW224273  12.268  10.547  12.001 -1.1406  2.9592  0.1091
38115SOL     OW24274   6.760   3.820  10.556  0.2612 -0.1697 -0.2150
38115SOL    HW124275   6.696   3.794  10.622 -1.5367  1.5341 -1.2237
38115SOL    HW224276   6.727   3.902  10.520  2.0794 -0.1600 -2.0519
38116SOL     OW24277   9.893  12.010  12.943  0.4190  0.1404 -0.0753
38116SOL    HW124278   9.915  11.922  12.911  0.3323  0.1512 -0.1634
38116SOL    HW224279   9.893  12.064  12.864  1.8270  0.4975  0.1328
38117SOL     OW24280   4.520   6.661  11.725  0.5100 -0.6996  0.1948
38117SOL    HW124281   4.509   6.594  11.792  1.0060 -0.5279  0.4539
38117SOL    HW224282   4.615   6.676  11.721  0.3001  1.4834  1.6513
38118SOL     OW24283   0.230   6.712   3.748 -0.0030  0.0932 -0.1291
38118SOL    HW124284   0.163   6.666   3.798  1.4430 -1.5411  0.4390
38118SOL    HW224285   0.211   6.690   3.657 -0.8627  0.5587 -0.0731
38119SOL     OW24286   1.155   4.607   9.009 -0.1385 -0.0406  0.5937
38119SOL    HW124287   1.219   4.584   9.076  0.2710 -1.3887 -0.2355
38119SOL    HW224288   1.076   4.557   9.033 -0.6223  0.9258  1.1024
38120SOL     OW24289  10.018  11.891   9.143 -0.1719  0.5815 -0.0186
38120SOL    HW124290  10.005  11.815   9.199  1.1432 -0.5068 -1.1154
38120SOL    HW224291  10.059  11.957   9.199 -1.7104  0.6863  1.0511
38121SOL     OW24292  10.643   6.291   0.149 -0.1706  0.3286  0.2134
38121SOL    HW124293  10.715   6.340   0.189 -0.3117  0.1611  0.6745
38121SOL    HW224294  10.576   6.356   0.131 -0.4410  0.2740  1.0137
38122SOL     OW24295  11.511   5.374   8.503 -0.0607  0.3946  0.8129
38122SOL    HW124296  11.443   5.441   8.510 -1.7176 -1.1672  0.4500
38122SOL    HW224297  11.558   5.397   8.423 -2.6682 -0.5654 -1.1489
38123SOL     OW24298   0.752   8.679  11.486  0.2149  0.1791  0.0106
38123SOL    HW124299   0.676   8.733  11.507 -0.1889 -0.1220 -0.6516
38123SOL    HW224300   0.827   8.732  11.512 -0.1619  1.1690 -0.8638
38124SOL     OW24301   9.778   1.380   5.672 -0.3722  0.0624  0.1527
38124SOL    HW124302   9.737   1.303   5.711 -0.3039  0.0480  0.1966
38124SOL    HW224303   9.853   1.345   5.623  0.2115  0.1863  0.9332
38125SOL     OW24304   1.709  10.920   4.609 -0.2522  0.2514  0.4939
38125SOL    HW124305   1.751  10.913   4.694  0.7477  0.3588  0.0243
38125SOL    HW224306   1.692  11.013   4.598  4.0819  1.0684 -1.4305
38126SOL     OW24307   5.529   7.390   9.079 -0.2832  0.0001 -0.1896
38126SOL    HW124308   5.469   7.315   9.073  1.3164 -1.3765  0.1627
38126SOL    HW224309   5.615   7.350   9.090  0.6910  1.9192 -0.5216
38127SOL     OW24310   7.925  11.792  10.245  0.2252 -0.1047 -0.3480
38127SOL    HW124311   7.889  11.806  10.333  0.7460 -0.5481 -0.0579
38127SOL    HW224312   7.849  11.793  10.188 -0.1295  0.1068  0.1167
38128SOL     OW24313   5.315   7.985   5.230  0.1426  0.0438 -0.1671
38128SOL    HW124314   5.382   7.918   5.241  1.3187  1.2899  0.6488
38128SOL    HW224315   5.235   7.937   5.210  1.1867 -1.5076 -0.7328
38129SOL     OW24316  12.951   3.337  12.276 -0.2251 -0.3974  0.0391
38129SOL    HW124317  13.005   3.398  12.226 -0.5564 -1.0676 -1.1977
38129SOL    HW224318  13.011   3.266  12.300 -0.0211  0.0186  0.7685
38130SOL     OW24319   7.119  12.610  12.299  0.2872 -0.1323 -0.0471
38130SOL    HW124320   7.193  12.581  12.244  0.5550 -1.2990  0.8744
38130SOL    HW224321   7.069  12.530  12.315 -0.5008  0.4297  0.3600
38131SOL     OW24322   9.510   8.096   5.759 -0.1509 -0.3486 -0.0716
38131SOL    HW124323   9.423   8.115   5.795 -0.0269 -0.5834  0.3698
38131SOL    HW224324   9.550   8.181   5.744 -0.0575 -0.2433  0.7310
38132SOL     OW24325   2.954   3.375   3.981 -0.1433  0.2424  0.1677
38132SOL    HW124326   2.880   3.408   4.032  0.5669  1.1821  0.6295
38132SOL    HW224327   2.953   3.280   3.996 -0.7238  0.3515  0.8837
38133SOL     OW24328   4.093  10.272   2.460  0.3548 -0.5008  0.0106
38133SOL    HW124329   4.022  10.335   2.454 -1.0198 -1.9469  0.3462
38133SOL    HW224330   4.129  10.284   2.548  0.3870  0.0923 -0.0825
38134SOL     OW24331   1.806   0.556   3.590  0.2990  0.0106 -0.2765
38134SOL    HW124332   1.798   0.569   3.685 -0.6075  1.4923 -0.5252
38134SOL    HW224333   1.717   0.532   3.561  0.2798  0.7830 -0.9008
38135SOL     OW24334   3.073   7.193  10.742 -0.3452 -0.7807  0.3105
38135SOL    HW124335   3.032   7.232  10.664  0.5858 -0.6617 -0.1310
38135SOL    HW224336   3.003   7.141  10.782 -0.6681 -1.3663 -0.9575
38136SOL     OW24337   6.666   9.335  12.617 -0.2299 -0.1874 -0.5012
38136SOL    HW124338   6.755   9.356  12.648 -0.7929  0.0414  1.0738
38136SOL    HW224339   6.677   9.318  12.524  1.8729 -2.5501  0.0606
38137SOL     OW24340  12.994  11.140   2.122 -0.5222  0.0359  0.1968
38137SOL    HW124341  13.032  11.227   2.132 -0.6854  0.0577  0.6151
38137SOL    HW224342  13.011  11.118   2.030  1.9267 -0.6260  0.7227
38138SOL     OW24343   9.938   7.274   0.258 -0.5854 -0.0690  0.0723
38138SOL    HW124344   9.877   7.200   0.262  0.2716 -0.7473  1.8452
38138SOL    HW224345   9.898   7.335   0.196 -2.1454 -1.2830 -0.1875
38139SOL     OW24346   0.030   6.294   9.030  0.1711  0.1516  0.0639
38139SOL    HW124347   0.057   6.213   9.072  0.0008 -0.0282 -0.1666
38139SOL    HW224348  -0.055   6.274   8.991 -0.0162  0.5311  0.2680
38140SOL     OW24349   2.036   2.391  12.288  0.3787  0.2601  0.1121
38140SOL    HW124350   2.039   2.395  12.193 -1.3704 -3.8026 -0.3267
38140SOL    HW224351   1.943   2.400  12.310  0.8123  1.7702  1.5641
38141SOL     OW24352  13.156   0.800   1.424 -0.1743  0.2496  0.5419
38141SOL    HW124353  13.088   0.751   1.471 -0.4149  0.2894  0.2378
38141SOL    HW224354  13.236   0.748   1.438 -0.7955 -1.4036 -1.4921
38142SOL     OW24355   2.270  12.299  13.027 -0.1544 -0.3377  0.2063
38142SOL    HW124356   2.242  12.329  12.941  1.4816  1.1572  0.1443
38142SOL    HW224357   2.243  12.207  13.030  1.0067 -0.8502 -2.4810
38143SOL     OW24358   9.527   0.264   4.083  0.3863 -0.0523  0.6274
38143SOL    HW124359   9.538   0.328   4.154  0.0095 -0.3320  0.9450
38143SOL    HW224360   9.616   0.249   4.050  0.4705  0.6802  0.5100
38144SOL     OW24361   4.553   3.349   8.867 -0.0476  0.5673 -0.1008
38144SOL    HW124362   4.460   3.368   8.854 -0.0788  0.1292 -0.5497
38144SOL    HW224363   4.595   3.435   8.873 -0.3473  0.7834 -0.9424
38145SOL     OW24364   6.022  10.745  13.168 -0.4035  0.2079 -0.1362
38145SOL    HW124365   5.959  10.752  13.240 -0.2396  0.6414 -0.0368
38145SOL    HW224366   6.072  10.826  13.171 -1.0499  0.6786 -1.3744
38146SOL     OW24367   0.555   8.247   3.362  0.3121 -0.3353 -0.5264
38146SOL    HW124368   0.637   8.206   3.389  0.2394  0.1225  0.4339
38146SOL    HW224369   0.571   8.276   3.273  0.3945 -2.3318 -1.2133
38147SOL     OW24370   9.977   8.639   1.159  0.1813 -0.4566  0.6027
38147SOL    HW124371   9.886   8.645   1.129  0.8072 -0.6007 -1.5231
38147SOL    HW224372   9.988   8.713   1.218 -0.4801  1.5411 -1.6050
38148SOL     OW24373   5.104   2.719   1.311  0.5978  0.1104 -0.2876
38148SOL    HW124374   5.087   2.647   1.250 -0.0383  0.1690 -0.1862
38148SOL    HW224375   5.069   2.797   1.267 -0.5135  0.0503  0.4265
38149SOL     OW24376  11.087   2.796  13.058  0.3305  0.1951  0.3895
38149SOL    HW124377  11.149   2.724  13.068  0.8560  0.8903  3.2780
38149SOL    HW224378  11.134   2.861  13.005  0.2661 -1.0657 -1.2979
38150SOL     OW24379   8.861   4.485   3.040 -0.5598 -0.0971 -0.6650
38150SOL    HW124380   8.822   4.565   3.005 -1.5868 -0.3910 -0.2015
38150SOL    HW224381   8.819   4.472   3.124 -0.7810 -1.4152 -0.9701
38151SOL     OW24382   1.202   8.281  13.206  0.2713  0.1998  0.3049
38151SOL    HW124383   1.248   8.266  13.289 -0.4072 -0.2531  0.6010
38151SOL    HW224384   1.163   8.197  13.184  1.1229  0.0882 -0.9096
38152SOL     OW24385   0.731   7.618   8.053 -0.1722 -0.1731  0.3200
38152SOL    HW124386   0.760   7.532   8.024 -0.3640 -0.3909  0.7656
38152SOL    HW224387   0.711   7.607   8.146  1.9577  0.8858  0.9688
38153SOL     OW24388   2.647   2.101   6.693  0.0375 -0.3485 -0.0224
38153SOL    HW124389   2.597   2.180   6.673  0.7135 -0.1587 -1.0707
38153SOL    HW224390   2.591   2.051   6.752 -1.3581 -0.1122 -1.1028
38154SOL     OW24391  10.276   6.159   9.112 -0.6403 -0.0243 -0.2709
38154SOL    HW124392  10.264   6.181   9.020 -1.3070 -0.5097 -0.3068
38154SOL    HW224393  10.210   6.212   9.158 -2.0230 -1.6139 -0.3256
38155SOL     OW24394   4.910   6.989   5.682  0.1917  0.2028  0.1592
38155SOL    HW124395   4.929   6.984   5.776 -0.2312 -0.8335  0.2033
38155SOL    HW224396   4.988   7.028   5.643  0.7841 -0.2991  0.8215
38156SOL     OW24397   6.627   7.871  10.254 -0.1188  0.6062 -0.3028
38156SOL    HW124398   6.608   7.962  10.229 -0.2973  0.1792 -1.7542
38156SOL    HW224399   6.589   7.862  10.341  0.2644  2.0461  0.0413
38157SOL     OW24400   4.328   2.456   5.176  0.1938 -0.5074  0.5466
38157SOL    HW124401   4.382   2.387   5.217  0.7535  0.2732  1.1653
38157SOL    HW224402   4.238   2.433   5.198  0.3552 -1.1882  0.5126
38158SOL     OW24403  10.943   1.313   1.930 -0.6666 -0.2539  0.3313
38158SOL    HW124404  10.887   1.347   1.860 -0.5426  1.6344  1.0885
38158SOL    HW224405  11.023   1.364   1.924  1.1715 -3.0565 -0.8602
38159SOL     OW24406   7.750   4.585   1.362 -0.3421  0.6744 -0.1057
38159SOL    HW124407   7.778   4.502   1.322  1.1769  1.5790 -1.0156
38159SOL    HW224408   7.792   4.585   1.448  1.0837  1.2261 -0.7717
38160SOL     OW24409   9.774   4.793   8.267  0.0096 -0.5774  0.3955
38160SOL    HW124410   9.815   4.706   8.257  0.2899 -0.5415  1.1664
38160SOL    HW224411   9.751   4.798   8.359 -1.1512 -0.3217  0.1031
38161SOL     OW24412   4.331  12.616   0.627 -0.3498 -0.2102 -0.1314
38161SOL    HW124413   4.373  12.620   0.712 -1.0311 -2.0358  0.3333
38161SOL    HW224414   4.315  12.523   0.612  0.2661  0.0033 -2.5306
38162SOL     OW24415   8.449   7.542   1.369 -0.3600  0.4339 -0.8546
38162SOL    HW124416   8.431   7.626   1.412  0.2206  0.2343 -0.2006
38162SOL    HW224417   8.507   7.564   1.297 -0.8045  0.6899 -1.1370
38163SOL     OW24418  11.274   8.145   6.141  0.0954  0.0029 -0.6406
38163SOL    HW124419  11.230   8.201   6.205  2.2768  1.3330 -0.2170
38163SOL    HW224420  11.267   8.057   6.177 -0.3126  0.4818  0.4878
38164SOL     OW24421  12.760   0.079   9.948 -0.1291 -0.0153 -0.1949
38164SOL    HW124422  12.717  -0.007   9.946 -0.3934  0.0478  1.5011
38164SOL    HW224423  12.694   0.140   9.915 -0.4812 -0.2471  0.0823
38165SOL     OW24424   5.810   8.967  12.785 -0.4756 -0.0526  0.1919
38165SOL    HW124425   5.807   8.889  12.730 -0.9291  1.2162 -1.7024
38165SOL    HW224426   5.718   8.987  12.802 -0.4847  1.1554 -1.0597
38166SOL     OW24427   5.199   9.728   5.713  0.3645  0.8797  0.3970
38166SOL    HW124428   5.292   9.719   5.692  0.4395  0.9553  0.6848
38166SOL    HW224429   5.196   9.722   5.809  0.0642  0.7961  0.3825
38167SOL     OW24430  12.755   5.522   7.072  0.0641  0.1536 -0.1933
38167SOL    HW124431  12.824   5.497   7.133  1.0967  0.0869 -1.3336
38167SOL    HW224432  12.691   5.451   7.077  0.4332 -0.1420  0.3717
38168SOL     OW24433   0.521   0.119   7.824  0.2696  0.0549  0.2478
38168SOL    HW124434   0.452   0.058   7.797  0.1149 -0.4384  1.6628
38168SOL    HW224435   0.483   0.167   7.897  1.0809  0.4885  0.3908
38169SOL     OW24436   0.314   5.839   4.220 -0.5327 -0.5982 -0.4601
38169SOL    HW124437   0.301   5.846   4.315  0.0411  1.7588 -0.4987
38169SOL    HW224438   0.239   5.788   4.190 -1.8223  0.3208  1.0395
38170SOL     OW24439  12.502   1.093   5.212 -0.1988  0.1657  0.3851
38170SOL    HW124440  12.536   1.094   5.122  3.1690  1.4894  1.5197
38170SOL    HW224441  12.493   1.000   5.233  0.3853 -0.2019 -0.8706
38171SOL     OW24442   9.101  12.734   9.616 -0.2647 -0.4025 -0.6041
38171SOL    HW124443   9.173  12.672   9.629  0.5479  0.4524 -0.9266
38171SOL    HW224444   9.069  12.752   9.704  0.7406  0.1465 -0.3325
38172SOL     OW24445  10.785   4.304   3.656  0.2621 -0.1095  0.4905
38172SOL    HW124446  10.873   4.341   3.658  0.1340  0.2218  0.1626
38172SOL    HW224447  10.798   4.211   3.634  0.6232 -0.3992  1.8587
38173SOL     OW24448   1.000   4.767   7.336 -0.0175  0.1214  0.1061
38173SOL    HW124449   1.079   4.713   7.342 -0.5282 -0.6246  0.2270
38173SOL    HW224450   0.928   4.704   7.328 -0.3872  0.7606 -3.0872
38174SOL     OW24451   4.614   6.405  12.796 -0.0492  0.1178  0.6160
38174SOL    HW124452   4.670   6.329  12.809 -0.0265 -0.1774 -0.9670
38174SOL    HW224453   4.581   6.396  12.706  0.1769  2.1033  0.2713
38175SOL     OW24454   1.601  11.071   8.283 -0.3725 -0.0265 -0.4482
38175SOL    HW124455   1.524  11.028   8.244 -0.4278  0.2668 -0.6688
38175SOL    HW224456   1.564  11.138   8.341 -0.3267 -1.5558  1.4363
38176SOL     OW24457  13.156   7.901   2.577 -0.1910 -0.3027  0.1850
38176SOL    HW124458  13.242   7.869   2.549 -0.7169 -2.5113  0.9297
38176SOL    HW224459  13.094   7.857   2.519 -0.8232  3.5462 -2.4255
38177SOL     OW24460  11.150  10.664   1.322 -0.0275  0.2301 -0.3107
38177SOL    HW124461  11.204  10.675   1.244  0.5444  1.8344  0.2728
38177SOL    HW224462  11.090  10.738   1.321  0.7305  0.9213  1.3133
38178SOL     OW24463   5.936   5.079   5.590  0.3416 -0.3734 -0.5555
38178SOL    HW124464   5.977   5.100   5.674 -1.1744 -1.8879  0.6249
38178SOL    HW224465   5.924   5.164   5.548 -1.4725  0.7698  2.0280
38179SOL     OW24466   4.355  12.431   1.355  0.0602 -0.0732  0.6666
38179SOL    HW124467   4.400  12.455   1.436 -0.7293  3.0666  0.3057
38179SOL    HW224468   4.425  12.423   1.290  0.3656  2.3392  0.6360
38180SOL     OW24469   4.900   6.701   7.031 -0.6187  0.3132  0.2645
38180SOL    HW124470   4.840   6.728   6.961 -0.2370  1.4471  0.3645
38180SOL    HW224471   4.859   6.735   7.111  0.7335  2.1863  0.2214
38181SOL     OW24472  11.345   7.893   4.622 -0.4172 -0.1016 -0.0792
38181SOL    HW124473  11.355   7.801   4.648 -0.4098  0.4645  2.1551
38181SOL    HW224474  11.295   7.933   4.693 -0.1716  1.6959 -0.8495
38182SOL     OW24475   5.089  10.450   8.068  0.0186 -0.0400  0.2039
38182SOL    HW124476   5.010  10.475   8.019  0.5723 -0.4414 -0.9344
38182SOL    HW224477   5.119  10.370   8.025  2.6502  1.5962 -1.2728
38183SOL     OW24478   2.560   2.199   9.411 -0.4572  0.0568  0.1251
38183SOL    HW124479   2.525   2.259   9.345  0.2942  3.1271  2.3165
38183SOL    HW224480   2.654   2.199   9.396 -0.6139 -3.6598 -2.1195
38184SOL     OW24481  10.977   7.409   5.900  0.1912 -0.4438  0.4890
38184SOL    HW124482  11.024   7.347   5.844 -0.2789  0.4588 -0.9387
38184SOL    HW224483  10.891   7.369   5.913  0.2024 -0.5242  0.3231
38185SOL     OW24484   9.938  13.302   9.568 -0.5509 -0.0338 -0.1658
38185SOL    HW124485   9.897  13.378   9.609  0.5100 -0.9920  2.9715
38185SOL    HW224486  10.016  13.337   9.526 -0.8947  0.8291 -0.1069
38186SOL     OW24487   5.647   2.443  12.606 -0.0948 -0.2071  0.5214
38186SOL    HW124488   5.634   2.348  12.597 -0.0721 -0.3296  1.6934
38186SOL    HW224489   5.731   2.452  12.651  0.2591  0.4023 -0.2350
38187SOL     OW24490   1.109  10.020   7.340 -0.3660  0.2012 -0.0503
38187SOL    HW124491   1.025  10.024   7.294 -0.4247  0.0843  0.0477
38187SOL    HW224492   1.086  10.033   7.432 -0.1460  1.5388 -0.1575
38188SOL     OW24493   2.633   7.554   2.236  0.1818 -0.1177 -0.0190
38188SOL    HW124494   2.593   7.517   2.315  1.3633  0.3262  0.8363
38188SOL    HW224495   2.710   7.499   2.221  0.0390 -0.1118 -0.7853
38189SOL     OW24496   6.978   8.814   4.595  0.2712  0.1338  0.4757
38189SOL    HW124497   6.985   8.862   4.512 -1.2084  0.1091  0.3070
38189SOL    HW224498   7.030   8.866   4.657 -0.0313  1.1169 -0.0679
38190SOL     OW24499   0.474   5.890  10.537  0.3294  0.1724 -0.6428
38190SOL    HW124500   0.458   5.969  10.486  1.9497  0.5211 -0.6679
38190SOL    HW224501   0.532   5.919  10.608 -0.3032 -0.6981  0.2631
38191SOL     OW24502  13.108   9.231   1.978  0.5367 -0.1673 -0.1291
38191SOL    HW124503  13.198   9.259   1.963  0.6245 -0.4855 -0.1930
38191SOL    HW224504  13.055   9.292   1.925  0.6813  0.2936  0.2515
38192SOL     OW24505   1.972  11.938  12.475  0.1289  0.1229  0.3683
38192SOL    HW124506   1.895  11.881  12.470 -0.6933  1.0452  1.8703
38192SOL    HW224507   2.027  11.910  12.402 -2.2651  0.4215 -1.6611
38193SOL     OW24508  11.774  11.992   2.949 -0.2401 -0.7294 -0.3158
38193SOL    HW124509  11.853  11.966   2.902  0.1854  0.4412 -0.2726
38193SOL    HW224510  11.726  12.046   2.887 -0.2984 -0.2443  0.1453
38194SOL     OW24511   9.415   4.270   3.181 -0.3996  0.1684  0.3229
38194SOL    HW124512   9.333   4.265   3.130  0.0727  0.7426 -0.5154
38194SOL    HW224513   9.463   4.192   3.155  1.4477  2.2009 -3.0315
38195SOL     OW24514  11.532   6.034   2.531  0.6428  0.0447 -0.0691
38195SOL    HW124515  11.456   5.982   2.504  1.1314 -0.8811  0.2890
38195SOL    HW224516  11.540   6.019   2.625  0.5811  1.0755  0.1181
38196SOL     OW24517   0.935  10.375   4.974 -0.1004 -0.0343 -0.7950
38196SOL    HW124518   0.983  10.439   4.921  3.3780 -0.0190  2.0505
38196SOL    HW224519   0.886  10.428   5.036  1.0784 -0.0413  0.1738
38197SOL     OW24520   9.391   7.294   8.872 -0.0755 -0.1986 -0.3974
38197SOL    HW124521   9.319   7.230   8.868  0.3365 -0.7188  0.3868
38197SOL    HW224522   9.400   7.314   8.965  2.8873 -2.5634 -0.0333
38198SOL     OW24523   1.845   4.132  10.239 -0.3753 -0.5223 -0.2013
38198SOL    HW124524   1.800   4.212  10.266 -2.0216 -2.0218  1.7875
38198SOL    HW224525   1.775   4.071  10.217  0.7745 -1.9391 -0.0875
38199SOL     OW24526   7.352   8.288  11.210 -0.0598  0.7165  0.4603
38199SOL    HW124527   7.354   8.351  11.138 -1.0748 -0.4616 -0.6594
38199SOL    HW224528   7.409   8.216  11.180  1.4357  1.2278  1.8985
38200SOL     OW24529  12.960   7.383   0.836  0.4173  0.3147 -0.3158
38200SOL    HW124530  12.952   7.299   0.882  2.2095 -0.9315 -2.0640
38200SOL    HW224531  13.011   7.438   0.895 -0.1834 -0.0378  0.5644
38201SOL     OW24532  10.440   0.509   6.647 -0.0926  0.4239  0.0456
38201SOL    HW124533  10.469   0.591   6.607  1.0104 -0.6115 -1.3775
38201SOL    HW224534  10.460   0.442   6.581  0.8275 -1.2480  1.9249
38202SOL     OW24535   1.322   8.207   0.536  0.4193  0.0865 -0.3087
38202SOL    HW124536   1.349   8.256   0.458  0.4339  0.9312  0.2128
38202SOL    HW224537   1.367   8.250   0.608  0.8128 -1.0214  0.1146
38203SOL     OW24538  10.584   8.281   1.113  0.3863  0.8934  0.5645
38203SOL    HW124539  10.670   8.294   1.073  0.4817  2.0682  1.1316
38203SOL    HW224540  10.592   8.198   1.159  0.8861  0.4834 -0.2320
38204SOL     OW24541   8.397   7.282   9.869 -0.3655  0.2214 -0.1432
38204SOL    HW124542   8.331   7.350   9.858  0.6984  1.2013 -0.7163
38204SOL    HW224543   8.364   7.228   9.941 -1.6523  0.8260 -0.2498
38205SOL     OW24544  10.849   5.296   3.172 -0.5599 -0.3950 -0.2701
38205SOL    HW124545  10.911   5.256   3.233 -1.9156  0.4283  1.7715
38205SOL    HW224546  10.894   5.373   3.138 -0.8413  0.9984  2.2737
38206SOL     OW24547   0.235  13.144   8.729 -0.0910  0.2078  0.2809
38206SOL    HW124548   0.291  13.111   8.659 -1.1704  0.8746 -0.9271
38206SOL    HW224549   0.288  13.210   8.773  0.2855  0.4110 -0.4691
38207SOL     OW24550   9.279   8.694   3.456 -0.1212 -0.4831 -0.3817
38207SOL    HW124551   9.198   8.697   3.506  0.8991 -1.8771  1.5337
38207SOL    HW224552   9.319   8.780   3.469  0.3073 -0.9266  1.6742
38208SOL     OW24553   3.492  11.665   2.184 -0.1481 -0.0843  0.1207
38208SOL    HW124554   3.471  11.644   2.093  0.7802  2.2797 -0.7187
38208SOL    HW224555   3.409  11.656   2.231 -1.3992  1.6656 -1.6012
38209SOL     OW24556   2.870  11.469   9.415 -0.4419  0.2961  0.2648
38209SOL    HW124557   2.893  11.530   9.345  1.2101 -0.6722 -0.0751
38209SOL    HW224558   2.774  11.467   9.414 -0.4686  0.6543 -1.6637
38210SOL     OW24559   2.717  11.654   1.532 -0.4118 -0.2174  0.1035
38210SOL    HW124560   2.713  11.643   1.437 -0.6878  1.7039 -0.1516
38210SOL    HW224561   2.637  11.612   1.564 -0.2121 -1.0648 -0.4857
38211SOL     OW24562   4.651   6.787  10.229  0.7446 -0.1129 -0.1927
38211SOL    HW124563   4.596   6.835  10.167  0.6322  1.8427  1.3360
38211SOL    HW224564   4.735   6.833  10.227  0.7438 -0.0321  1.0739
38212SOL     OW24565   5.758   9.023   8.461  0.0131  0.0963  0.3612
38212SOL    HW124566   5.723   9.112   8.456 -0.5023 -0.1592 -0.9707
38212SOL    HW224567   5.682   8.969   8.486  0.6901  0.2151  2.9119
38213SOL     OW24568  13.079  10.430   3.021  0.0925 -0.5263 -0.1845
38213SOL    HW124569  13.050  10.345   2.989 -0.8824 -0.2138 -0.1816
38213SOL    HW224570  13.151  10.455   2.964 -0.0003 -1.0931 -0.5534
38214SOL     OW24571   2.407  13.156   6.515 -0.0796 -0.1590  0.2359
38214SOL    HW124572   2.427  13.194   6.429 -1.1913  1.4881  0.6450
38214SOL    HW224573   2.354  13.079   6.496  1.1461 -0.8399 -0.5909
38215SOL     OW24574   1.133  10.667  12.514 -0.3067  0.1100 -0.3788
38215SOL    HW124575   1.044  10.679  12.546 -0.4394  0.3713 -0.8344
38215SOL    HW224576   1.137  10.574  12.489 -0.1490 -0.1340  0.5334
38216SOL     OW24577  12.893  11.097   3.380 -0.1063  0.2418  0.5241
38216SOL    HW124578  12.974  11.126   3.422 -0.1996  1.1365  0.0967
38216SOL    HW224579  12.853  11.177   3.346 -1.3563 -0.1402  1.0431
38217SOL     OW24580   7.409  11.011   0.752  0.5192 -0.2271  0.0591
38217SOL    HW124581   7.359  11.079   0.798  0.3452 -2.4083  3.4290
38217SOL    HW224582   7.491  11.053   0.729  0.7319  1.0041  2.7505
38218SOL     OW24583   0.273   1.531   1.431 -0.0721 -0.3077 -0.4460
38218SOL    HW124584   0.342   1.596   1.441 -0.5626  0.3196 -1.0303
38218SOL    HW224585   0.212   1.570   1.369 -1.0510 -0.7652  0.1964
38219SOL     OW24586  10.910  11.805   0.918 -0.1264 -0.2971 -0.5574
38219SOL    HW124587  10.854  11.736   0.954  0.4204 -0.2404  0.4318
38219SOL    HW224588  10.977  11.819   0.985  1.7252 -1.1132 -2.1303
38220SOL     OW24589   4.966   8.007   5.378  0.9013  0.3512  0.1475
38220SOL    HW124590   5.035   7.952   5.341  2.0994  1.8695  0.0446
38220SOL    HW224591   4.889   7.989   5.324  1.1241 -1.5316  0.3955
38221SOL     OW24592   7.702  12.520   3.145  0.2552  0.0819  0.3389
38221SOL    HW124593   7.750  12.497   3.224 -1.5061  0.3448  1.5357
38221SOL    HW224594   7.749  12.475   3.074  3.1010  1.4792  1.1658
38222SOL     OW24595   6.140   7.236   2.061  0.0001 -0.0867 -0.3763
38222SOL    HW124596   6.112   7.185   2.137 -1.3270 -0.8140 -1.3118
38222SOL    HW224597   6.073   7.304   2.053 -1.1151 -1.2938 -2.1099
38223SOL     OW24598  12.886   0.729   3.306 -0.0015  0.1345 -0.1570
38223SOL    HW124599  12.799   0.721   3.267  0.1385 -0.4234 -0.3689
38223SOL    HW224600  12.944   0.685   3.245  0.7895  2.3647 -1.1069
38224SOL     OW24601   9.813  10.216  10.044 -0.1144  0.1036  0.4408
38224SOL    HW124602   9.862  10.296  10.022 -0.5372  0.5104  0.9390
38224SOL    HW224603   9.877  10.160  10.088  0.4470 -0.2617 -0.8031
38225SOL     OW24604  12.087   6.397   2.901 -0.2038  0.0696 -0.3263
38225SOL    HW124605  12.178   6.416   2.881  0.0797 -2.7101 -2.1801
38225SOL    HW224606  12.091   6.342   2.980 -0.0864 -1.2196 -1.1925
38226SOL     OW24607  10.902   7.992   6.401 -0.5774  0.1451 -0.2597
38226SOL    HW124608  10.985   7.950   6.425 -1.3871 -0.7940  0.9795
38226SOL    HW224609  10.862   7.931   6.338 -0.7590  0.1086 -0.1112
38227SOL     OW24610   9.545  11.187  11.265 -0.4781  0.2184 -0.1116
38227SOL    HW124611   9.576  11.251  11.329 -0.6082  0.2968 -0.1254
38227SOL    HW224612   9.537  11.105  11.313  3.1216 -0.7321 -0.8378
38228SOL     OW24613   5.793   0.486   5.873  0.5991  0.1618  0.5435
38228SOL    HW124614   5.829   0.569   5.841  0.2178 -0.0005 -0.3064
38228SOL    HW224615   5.725   0.512   5.935  0.4316  0.4795  0.2264
38229SOL     OW24616  11.242   7.673  12.578 -1.0245 -0.1659  0.1557
38229SOL    HW124617  11.159   7.721  12.585 -0.8794  0.2677 -0.8270
38229SOL    HW224618  11.306   7.732  12.617 -1.1843 -0.5344  0.9868
38230SOL     OW24619  11.762  12.782   7.058  0.2728 -0.2896  0.3179
38230SOL    HW124620  11.723  12.728   7.126 -1.5772  0.6437  0.0471
38230SOL    HW224621  11.693  12.843   7.032  1.6266  0.8333 -0.8503
38231SOL     OW24622  11.759  13.127   3.945 -0.4559 -0.0420 -0.1894
38231SOL    HW124623  11.672  13.151   3.975 -0.3925 -0.7846  0.6496
38231SOL    HW224624  11.756  13.031   3.936 -0.0389  0.0293 -1.1892
38232SOL     OW24625   8.387   4.561   9.361 -0.6550 -0.5423 -0.1704
38232SOL    HW124626   8.336   4.531   9.286 -2.9166  1.7437  0.3317
38232SOL    HW224627   8.326   4.614   9.413  2.2440  2.7421  0.2741
38233SOL     OW24628   2.577   4.404   3.251 -0.7243 -0.2658  0.0685
38233SOL    HW124629   2.498   4.394   3.304 -0.4531 -1.5141  0.2513
38233SOL    HW224630   2.549   4.383   3.162 -0.2752 -2.3048  0.3705
38234SOL     OW24631   0.460   2.805  11.394 -0.3171  0.2312  0.3283
38234SOL    HW124632   0.419   2.728  11.432  2.0921 -1.3081  0.0105
38234SOL    HW224633   0.550   2.779  11.377  1.0561  3.5571  1.5498
38235SOL     OW24634   8.288  11.461  10.481  0.0538 -0.4320 -0.6966
38235SOL    HW124635   8.359  11.506  10.527 -0.2756 -1.3199  0.7162
38235SOL    HW224636   8.288  11.372  10.517 -1.7825 -0.4519 -0.6664
38236SOL     OW24637   4.258  10.578   5.708  0.0101  0.1957  0.2434
38236SOL    HW124638   4.199  10.520   5.659 -0.4873  0.0807  0.9459
38236SOL    HW224639   4.268  10.655   5.652 -1.2979  0.4708  0.3569
38237SOL     OW24640  12.582   1.042  10.487 -0.7461 -0.6561 -0.3642
38237SOL    HW124641  12.626   1.099  10.549 -1.3765 -1.6061  1.0123
38237SOL    HW224642  12.538   1.101  10.426  0.2123  0.2932 -0.1545
38238SOL     OW24643  11.142  10.584   4.022 -0.7201  0.1326  0.0313
38238SOL    HW124644  11.210  10.543   3.969 -1.3822 -0.8470 -0.0838
38238SOL    HW224645  11.070  10.522   4.021 -1.0830  0.5048  1.3468
38239SOL     OW24646   6.422   2.559  12.093  0.0431 -0.5403  0.1359
38239SOL    HW124647   6.463   2.644  12.110 -3.9772  1.8618 -0.7659
38239SOL    HW224648   6.443   2.539  12.002 -0.2014  0.2751 -0.1023
38240SOL     OW24649   4.566   2.709   2.802  0.4570  0.5583 -0.5719
38240SOL    HW124650   4.514   2.638   2.763 -1.9021  1.2765  1.0353
38240SOL    HW224651   4.637   2.665   2.848 -0.6751 -0.7520 -0.0249
38241SOL     OW24652   1.706  11.673  10.613  0.4341  0.2482  0.2559
38241SOL    HW124653   1.788  11.720  10.593  1.2523 -1.1283  0.2567
38241SOL    HW224654   1.665  11.661  10.527  0.0898  1.1839  0.2843
38242SOL     OW24655   3.986   7.821   0.715 -0.0222  0.6886 -0.4504
38242SOL    HW124656   3.998   7.818   0.621 -0.1776 -0.0153 -0.4533
38242SOL    HW224657   4.075   7.829   0.751  0.1591 -0.4452 -0.6121
38243SOL     OW24658   0.058   7.713   1.937 -0.3027  0.3184 -0.1055
38243SOL    HW124659   0.008   7.645   1.892  0.4312 -0.4485  0.2094
38243SOL    HW224660   0.133   7.729   1.879 -0.2373  0.5294  0.0404
38244SOL     OW24661   4.893   9.998   3.839 -0.2562  0.1795  0.0120
38244SOL    HW124662   4.919   9.906   3.844 -2.6869 -0.5816 -0.1742
38244SOL    HW224663   4.835  10.002   3.763 -2.6683  1.1381  1.7546
38245SOL     OW24664   6.517  12.610   1.320  0.4393  0.0669 -0.1618
38245SOL    HW124665   6.453  12.679   1.338  0.9459  0.7315 -0.8205
38245SOL    HW224666   6.484  12.566   1.242  0.9061  0.5912 -0.6691
38246SOL     OW24667   3.654   9.912   9.148 -0.0491  0.0621  0.1585
38246SOL    HW124668   3.735   9.911   9.200  0.2274 -0.3927 -0.2696
38246SOL    HW224669   3.611   9.829   9.169  0.4568 -0.4948 -0.9288
38247SOL     OW24670   0.363   2.667  12.086  0.4976  0.3430  0.3269
38247SOL    HW124671   0.383   2.729  12.156 -0.8392  0.0061  1.0483
38247SOL    HW224672   0.378   2.581  12.125 -0.8981  0.1319  0.4481
38248SOL     OW24673   4.487   1.128   7.479  0.2572  0.0042  0.3430
38248SOL    HW124674   4.455   1.215   7.454  0.3368  0.0068  0.2510
38248SOL    HW224675   4.582   1.134   7.471  0.2885  0.0154  0.6789
38249SOL     OW24676   7.464   2.417   8.513 -0.4751  0.0694  0.5978
38249SOL    HW124677   7.551   2.456   8.520  0.2381 -1.2068 -0.6688
38249SOL    HW224678   7.431   2.446   8.428 -1.2686  0.4762  1.0301
38250SOL     OW24679  11.593   0.450  10.620 -0.3204  0.1105 -0.3252
38250SOL    HW124680  11.562   0.386  10.684 -1.3435 -0.7614 -1.6552
38250SOL    HW224681  11.547   0.531  10.643  2.0776  0.9017  2.2904
38251SOL     OW24682   4.578  10.267   6.568 -0.2756  0.1528  0.1996
38251SOL    HW124683   4.669  10.271   6.598  0.0281  1.1209 -0.7637
38251SOL    HW224684   4.537  10.346   6.604 -0.4559  0.2392 -0.1795
38252SOL     OW24685  10.885   2.377  12.244  0.0670 -0.0763 -0.6052
38252SOL    HW124686  10.803   2.427  12.242  0.4468  0.5735 -0.3615
38252SOL    HW224687  10.872   2.312  12.312  0.0951  0.6518  0.1204
38253SOL     OW24688   6.778   4.961  10.407  0.2504  0.1764 -0.2100
38253SOL    HW124689   6.711   4.964  10.474  0.3326 -0.9698 -0.0712
38253SOL    HW224690   6.730   4.962  10.324  0.0187 -1.2634 -0.1097
38254SOL     OW24691  10.826   8.747   0.543 -0.2899 -0.0636 -0.3302
38254SOL    HW124692  10.852   8.700   0.463 -2.7182 -0.0135 -1.2466
38254SOL    HW224693  10.846   8.839   0.524 -1.8260  0.0933 -1.3791
38255SOL     OW24694   4.564   9.435   6.879  0.1777 -0.0235  0.1023
38255SOL    HW124695   4.542   9.507   6.937 -0.8749 -1.9666  2.2984
38255SOL    HW224696   4.660   9.437   6.873  0.3080  0.4001  1.7386
38256SOL     OW24697   9.250  12.481   5.735  0.1081 -0.2960 -0.1028
38256SOL    HW124698   9.252  12.569   5.696 -2.4527  0.7352  1.7791
38256SOL    HW224699   9.157  12.459   5.741  0.6966 -3.7090 -1.5299
38257SOL     OW24700   4.154   5.200  12.307  0.3452 -0.6679  0.5322
38257SOL    HW124701   4.234   5.251  12.312  1.2982 -2.0320 -0.1990
38257SOL    HW224702   4.142   5.183  12.213 -1.0921 -0.0499  0.5720
38258SOL     OW24703  11.893  10.676   6.897  0.0463  0.5546  0.3165
38258SOL    HW124704  11.890  10.657   6.804 -0.0347  0.5166  0.3275
38258SOL    HW224705  11.984  10.657   6.923 -0.0020  0.3077  0.3026
38259SOL     OW24706  10.629   4.763  10.972  0.1537  0.3019  0.4133
38259SOL    HW124707  10.632   4.717  10.888 -1.1465 -0.7969  0.9373
38259SOL    HW224708  10.701   4.826  10.967 -0.7440  1.2649 -2.0987
38260SOL     OW24709  12.864   7.496   3.666  0.5270  0.5791  0.1197
38260SOL    HW124710  12.799   7.435   3.631  1.1108  0.7246 -1.3011
38260SOL    HW224711  12.877   7.560   3.596  2.7870  0.0744 -0.0098
38261SOL     OW24712  11.089   8.694  12.001 -0.4025  0.3487  0.2896
38261SOL    HW124713  11.039   8.702  11.920 -1.2535 -0.3788  0.7214
38261SOL    HW224714  11.067   8.772  12.052  0.4678  1.0239 -0.3350
38262SOL     OW24715  11.549  11.779   7.885  0.1868 -0.4120 -0.0655
38262SOL    HW124716  11.502  11.817   7.811 -0.0197 -0.4745  0.0346
38262SOL    HW224717  11.526  11.686   7.883 -0.5162 -0.2574  0.6046
38263SOL     OW24718  10.343   7.182  11.465 -1.0453  0.5381 -0.1038
38263SOL    HW124719  10.294   7.233  11.401 -0.3320 -0.8096 -1.8184
38263SOL    HW224720  10.379   7.109  11.415  1.5071  0.6684  1.3443
38264SOL     OW24721  12.510   1.257   5.985 -0.4233 -0.1943  0.7936
38264SOL    HW124722  12.465   1.335   6.017  0.2066  0.8829 -0.7829
38264SOL    HW224723  12.445   1.214   5.929  0.0469  0.7161 -0.5184
38265SOL     OW24724   5.120   5.997   7.946  0.5524 -0.3782  0.5992
38265SOL    HW124725   5.181   6.066   7.973 -0.0532  1.1032 -1.5404
38265SOL    HW224726   5.040   6.044   7.923 -0.4061 -1.9823  0.5239
38266SOL     OW24727   9.572  12.604   2.049 -0.3934  0.5116  0.0893
38266SOL    HW124728   9.501  12.548   2.018 -0.3014  0.5386 -0.1701
38266SOL    HW224729   9.650  12.550   2.043  0.1822  1.5059 -2.8322
38267SOL     OW24730  12.193  10.313  11.650  0.3520  0.2893  0.4519
38267SOL    HW124731  12.271  10.353  11.609 -0.6548  2.0146  0.1086
38267SOL    HW224732  12.173  10.371  11.724 -1.4184  0.7294 -0.3193
38268SOL     OW24733   6.891   9.119  11.926  0.0029 -0.3641  0.9895
38268SOL    HW124734   6.826   9.179  11.890  0.9000 -0.5780 -1.1161
38268SOL    HW224735   6.855   9.093  12.011 -1.6087  1.1624  0.8351
38269SOL     OW24736   8.768   4.903  10.102  0.4307 -0.0680  0.5812
38269SOL    HW124737   8.754   4.974  10.164  1.3230  0.6209  0.0243
38269SOL    HW224738   8.687   4.899  10.050  0.2521  0.3150  0.8330
38270SOL     OW24739  10.049  11.367   8.166 -0.4273 -0.2536 -0.4420
38270SOL    HW124740  10.060  11.319   8.248 -0.8722 -0.6923 -0.6351
38270SOL    HW224741   9.989  11.313   8.115  0.7179 -0.5541 -1.5095
38271SOL     OW24742  11.036  12.540   9.770  0.2441 -0.1618  0.1914
38271SOL    HW124743  11.069  12.568   9.855  0.7025  0.7819 -0.2920
38271SOL    HW224744  11.097  12.471   9.742  1.3299  0.9790 -0.3100
38272SOL     OW24745   8.051  12.634   5.233  0.4376 -0.1692 -0.7668
38272SOL    HW124746   8.123  12.611   5.292 -0.0340 -0.8649 -0.4572
38272SOL    HW224747   8.006  12.706   5.277 -0.2689 -1.0741  0.0293
38273SOL     OW24748   3.813   8.897   0.304  0.1115 -0.1498 -0.1523
38273SOL    HW124749   3.836   8.882   0.395  0.6154  1.7596  0.0913
38273SOL    HW224750   3.858   8.979   0.281  0.5168 -0.8994 -2.3051
38274SOL     OW24751   3.215  10.576  10.137  0.1420  0.4228  0.0802
38274SOL    HW124752   3.290  10.635  10.143 -0.6766  1.4054  1.4174
38274SOL    HW224753   3.228  10.528  10.056  1.0017  2.2535 -0.9268
38275SOL     OW24754   4.931   7.566  12.044  0.4431  0.0675 -0.1573
38275SOL    HW124755   4.918   7.559  12.138  0.2735 -0.7529 -0.2317
38275SOL    HW224756   5.008   7.512  12.027 -0.2748 -0.8202 -0.6527
38276SOL     OW24757   8.360   3.316   2.318 -0.2986  0.5091  0.3073
38276SOL    HW124758   8.422   3.382   2.348 -1.3762  1.0590  1.4490
38276SOL    HW224759   8.293   3.365   2.271  0.1481 -0.0871 -1.0084
38277SOL     OW24760  12.473   4.806   4.665  0.1016 -0.0316  0.4419
38277SOL    HW124761  12.568   4.808   4.673  0.0854 -1.8172  1.7295
38277SOL    HW224762  12.443   4.770   4.749 -1.4995 -2.2710 -0.9849
38278SOL     OW24763   2.104   0.421   3.003  0.3776  0.0300  0.0101
38278SOL    HW124764   2.060   0.504   2.983 -0.3698 -0.0485  1.2202
38278SOL    HW224765   2.033   0.362   3.026  1.0802 -0.1937  1.7234
38279SOL     OW24766  10.176   8.018   5.988  0.3960 -0.2272  0.4765
38279SOL    HW124767  10.200   8.022   5.896  0.0639 -1.7427  0.2852
38279SOL    HW224768  10.110   7.948   5.992  0.3833 -0.1680  1.8496
38280SOL     OW24769  11.218   8.358   6.569  0.0691  0.2165 -0.3216
38280SOL    HW124770  11.192   8.345   6.660  0.6322 -0.5713 -0.2577
38280SOL    HW224771  11.176   8.439   6.543 -0.8535 -0.0307  0.3576
38281SOL     OW24772   5.756   9.598   0.385  0.5673  0.2437  0.0369
38281SOL    HW124773   5.678   9.605   0.440 -1.4338  0.3955 -2.5709
38281SOL    HW224774   5.750   9.511   0.346  1.4410  0.4362 -0.5567
38282SOL     OW24775   2.347   8.918  11.195  0.6049 -0.0383 -0.4711
38282SOL    HW124776   2.315   8.990  11.140  0.9581  0.1691 -0.4091
38282SOL    HW224777   2.381   8.962  11.273  0.5741 -0.2956 -0.3140
38283SOL     OW24778   2.253   7.850   4.305 -0.2059  0.4237 -0.3130
38283SOL    HW124779   2.206   7.924   4.266 -0.2456  0.1763 -0.7325
38283SOL    HW224780   2.220   7.773   4.259 -0.2567  0.1278  0.2054
38284SOL     OW24781   8.826   6.697  11.339 -0.1428 -0.3999  0.0330
38284SOL    HW124782   8.742   6.741  11.349 -0.6217 -1.1719 -0.4440
38284SOL    HW224783   8.803   6.605  11.325  0.6853 -0.3794 -1.7739
38285SOL     OW24784   4.048   0.554   3.255 -0.3959 -0.3212  0.8448
38285SOL    HW124785   4.072   0.605   3.177 -0.2564 -2.0583 -0.3085
38285SOL    HW224786   4.115   0.575   3.320  1.1146 -0.9115 -0.4629
38286SOL     OW24787   9.451  11.520   3.537 -0.7134  0.1599  0.8863
38286SOL    HW124788   9.507  11.444   3.523 -0.4124  0.3382  1.0998
38286SOL    HW224789   9.396  11.497   3.611 -1.7829 -0.4915 -0.0729
38287SOL     OW24790  12.051   1.868  13.236  0.2356  0.3248  0.6434
38287SOL    HW124791  12.105   1.902  13.307  2.1781  0.7320 -0.9166
38287SOL    HW224792  12.077   1.920  13.160 -1.2306 -0.5737 -0.5209
38288SOL     OW24793   0.071   9.800   6.352 -0.0901 -0.1244 -0.1590
38288SOL    HW124794   0.062   9.705   6.355  1.2319 -0.3878 -2.2972
38288SOL    HW224795   0.146   9.819   6.408 -0.8466 -0.2333  0.9061
38289SOL     OW24796   5.251   1.083   4.116 -0.1225  0.4455  0.2794
38289SOL    HW124797   5.336   1.097   4.158 -0.7120  2.8508  0.8366
38289SOL    HW224798   5.189   1.078   4.188 -0.5382 -0.7818 -0.1433
38290SOL     OW24799   9.482   1.281  11.553  0.1121 -0.3038 -0.5021
38290SOL    HW124800   9.502   1.289  11.646  0.8322 -0.5121 -0.6287
38290SOL    HW224801   9.397   1.323  11.542 -1.7972 -3.4733  0.8813
38291SOL     OW24802   3.557   9.798   7.495  0.5208  0.2209 -0.1689
38291SOL    HW124803   3.643   9.839   7.484 -0.6197  2.2852 -2.2490
38291SOL    HW224804   3.538   9.807   7.588  2.1012  0.7137  0.1306
38292SOL     OW24805   0.373   8.404  10.148  0.5777 -0.0268  0.6422
38292SOL    HW124806   0.388   8.345  10.074  0.4750  0.5110  0.1818
38292SOL    HW224807   0.402   8.355  10.224 -0.5520 -1.0952  0.4116
38293SOL     OW24808   2.326  10.796  11.016  0.0223  0.7248 -0.6321
38293SOL    HW124809   2.310  10.751  10.934 -0.1841  0.2695 -0.3469
38293SOL    HW224810   2.258  10.763  11.075  0.0449  1.1954 -0.3364
38294SOL     OW24811   9.873   9.350   9.140 -0.2319 -0.1067 -0.1380
38294SOL    HW124812   9.785   9.316   9.153  0.0896  0.1725  4.1751
38294SOL    HW224813   9.861   9.443   9.123 -0.7614 -0.0822  0.3710
38295SOL     OW24814   7.558   4.576   3.196  0.3614  0.0674 -0.6263
38295SOL    HW124815   7.569   4.618   3.111 -1.1886  1.9059  0.0075
38295SOL    HW224816   7.641   4.593   3.242  0.6424  0.3751 -1.2373
38296SOL     OW24817   4.007   7.038   9.628  0.4755  0.3839  0.6277
38296SOL    HW124818   3.942   7.038   9.557  0.1875  2.1260  0.8370
38296SOL    HW224819   4.001   7.126   9.666  0.4353 -0.5842  3.0169
38297SOL     OW24820   5.194   4.861  10.259  0.0569  0.2367  0.2373
38297SOL    HW124821   5.135   4.873  10.184  0.8055  2.2406 -0.0996
38297SOL    HW224822   5.136   4.864  10.336 -0.8685 -2.9390 -0.1873
38298SOL     OW24823  11.688   3.834   3.449  0.2081  0.0184  0.1758
38298SOL    HW124824  11.712   3.774   3.520 -1.5241  2.1251  2.7451
38298SOL    HW224825  11.629   3.782   3.394 -0.3223 -1.0347  1.6449
38299SOL     OW24826   2.989   1.059   5.417 -0.2772 -0.2689  0.4937
38299SOL    HW124827   2.937   1.035   5.340  0.1679  0.0047  0.1082
38299SOL    HW224828   3.064   1.001   5.415  0.6415  0.9069 -0.2657
38300SOL     OW24829   8.394   2.649   3.038 -0.1195 -0.0496  0.1606
38300SOL    HW124830   8.369   2.663   3.129 -0.2615  0.1194  0.0981
38300SOL    HW224831   8.486   2.673   3.034 -0.2569  0.4928  0.1424
38301SOL     OW24832   3.381   1.868   2.455  0.0738  0.3028 -0.2374
38301SOL    HW124833   3.442   1.876   2.529 -0.6289 -0.3148  0.4296
38301SOL    HW224834   3.300   1.836   2.494 -0.0287 -0.9629 -1.4048
38302SOL     OW24835  10.015   8.213  13.182  0.0686  0.1386  0.2781
38302SOL    HW124836  10.098   8.176  13.152  1.0937  1.7464  0.9736
38302SOL    HW224837  10.008   8.187  13.274 -1.4193 -1.9748 -0.3612
38303SOL     OW24838   7.053  13.097   9.891  0.1721  0.1174  0.1606
38303SOL    HW124839   7.044  13.106   9.986  0.5507 -1.1289  0.3438
38303SOL    HW224840   7.133  13.045   9.880 -1.1696 -1.9013 -0.6862
38304SOL     OW24841   6.768   9.458  10.403  0.3962  0.3496  0.0125
38304SOL    HW124842   6.821   9.533  10.429  0.0315  0.3339  0.8140
38304SOL    HW224843   6.747   9.413  10.485 -2.8490  1.6810  0.0813
38305SOL     OW24844  13.063   3.973  10.415  0.2925  0.1599  0.2771
38305SOL    HW124845  13.052   4.033  10.341  1.0343  1.6721  1.3222
38305SOL    HW224846  13.128   4.016  10.471  0.4233 -1.3707  1.3659
38306SOL     OW24847   8.625   0.683   2.824  0.2480 -0.1132  0.3488
38306SOL    HW124848   8.664   0.610   2.872  1.2482  0.6525  0.7428
38306SOL    HW224849   8.666   0.761   2.863  1.8902  0.5213 -2.3795
38307SOL     OW24850  11.652   1.631   1.805  0.3582  0.1472  0.3799
38307SOL    HW124851  11.656   1.727   1.807 -0.2510  0.1755  2.0409
38307SOL    HW224852  11.561   1.611   1.826  0.8718 -0.7921  1.9207
38308SOL     OW24853   3.711   7.805   4.411  0.7110  0.0321  0.0011
38308SOL    HW124854   3.717   7.805   4.506  2.2403  2.3663  0.0050
38308SOL    HW224855   3.673   7.891   4.390 -1.4734 -1.2028 -1.4766
38309SOL     OW24856   3.457   3.141   1.742  1.2632  0.0230  0.7226
38309SOL    HW124857   3.481   3.098   1.824  1.9724 -0.6694  0.1574
38309SOL    HW224858   3.529   3.202   1.725  1.6128 -0.5607  0.0963
38310SOL     OW24859  12.374   1.332   5.239  0.3780 -0.2933 -0.1135
38310SOL    HW124860  12.289   1.294   5.261 -0.0380  0.6906  0.0402
38310SOL    HW224861  12.434   1.258   5.238 -0.4033 -0.9428  0.2000
38311SOL     OW24862   3.280  11.428   5.769  0.7934  0.4136  0.3245
38311SOL    HW124863   3.301  11.406   5.678  0.1404 -1.2452  0.5423
38311SOL    HW224864   3.273  11.523   5.769 -2.0851  0.3532 -2.0699
38312SOL     OW24865   7.970  12.213   8.339  0.2020  0.3373  0.0571
38312SOL    HW124866   8.054  12.234   8.380  0.8629 -0.5718 -0.7934
38312SOL    HW224867   7.914  12.186   8.412  1.4521 -1.5549  0.3669
38313SOL     OW24868   6.589   9.179   3.246  0.2014 -0.4056  0.1822
38313SOL    HW124869   6.659   9.114   3.243  0.7040  0.1044  0.5600
38313SOL    HW224870   6.630   9.257   3.284 -0.3673  0.1548 -0.3146
38314SOL     OW24871   3.975   8.143   5.871  0.3016  0.2417 -0.2365
38314SOL    HW124872   3.979   8.228   5.827 -2.2417  1.1536  1.0834
38314SOL    HW224873   4.064   8.130   5.905  0.8707  2.1704 -0.8127
38315SOL     OW24874   8.821   4.119  12.624  0.3184  0.1729 -0.0558
38315SOL    HW124875   8.851   4.147  12.710  2.0782  1.4982 -1.0541
38315SOL    HW224876   8.900   4.090  12.579 -0.1670  1.6474 -1.9959
38316SOL     OW24877   3.198   5.613   7.102  0.2137 -0.1541  0.2217
38316SOL    HW124878   3.261   5.657   7.159 -0.5799  2.8782 -1.0141
38316SOL    HW224879   3.174   5.680   7.038 -1.9658 -2.1517 -1.1978
38317SOL     OW24880   2.263  13.146   5.935  0.1163  0.3876 -0.2082
38317SOL    HW124881   2.356  13.169   5.935  0.0856  0.5179  0.0775
38317SOL    HW224882   2.247  13.110   6.022 -0.2755  1.0770  0.0075
38318SOL     OW24883  10.070   0.925  11.902  0.3362  0.0777 -0.5698
38318SOL    HW124884  10.093   0.848  11.954  0.0427 -0.3461 -1.0585
38318SOL    HW224885   9.985   0.953  11.937  0.3117  0.0174 -0.5838
38319SOL     OW24886   2.064   5.162   4.878 -0.0378 -0.9428  0.2739
38319SOL    HW124887   1.989   5.140   4.933  0.8304 -2.8501  0.7744
38319SOL    HW224888   2.118   5.220   4.932 -1.2559  0.7201 -0.2127
38320SOL     OW24889   4.873   0.576  10.032  0.1851  0.2846  0.3441
38320SOL    HW124890   4.891   0.581  10.126 -0.3416  1.6978  0.3983
38320SOL    HW224891   4.851   0.666  10.007 -0.8937 -0.2915 -0.8943
38321SOL     OW24892   4.875   6.051   2.374 -0.2947 -0.0358 -0.0665
38321SOL    HW124893   4.784   6.056   2.344 -1.0282 -1.9577  1.5573
38321SOL    HW224894   4.890   6.134   2.419 -0.7133  0.9095 -1.6030
38322SOL     OW24895   5.688   9.471   9.209  0.2218  0.3303 -0.0542
38322SOL    HW124896   5.782   9.459   9.219  0.4016  0.5793 -1.3116
38322SOL    HW224897   5.674   9.481   9.115 -1.2847 -1.5439 -0.0964
38323SOL     OW24898  10.729   8.113   4.097 -0.2746 -0.2847 -0.4289
38323SOL    HW124899  10.789   8.113   4.023  0.5764 -0.3137  0.2442
38323SOL    HW224900  10.704   8.205   4.108  0.3297 -0.1492 -0.1758
38324SOL     OW24901   1.704  12.929   1.013  0.3771  0.3827  0.2930
38324SOL    HW124902   1.775  12.872   1.041  0.4224 -0.1279 -0.8152
38324SOL    HW224903   1.658  12.879   0.946  0.7076  1.8144 -1.0543
38325SOL     OW24904  12.784   9.046   6.118 -0.3563 -0.0704 -0.8766
38325SOL    HW124905  12.713   8.984   6.136 -0.2785 -0.1353 -0.7984
38325SOL    HW224906  12.858   9.015   6.169 -0.3859  0.2198 -0.6549
38326SOL     OW24907   4.098   2.101  10.813 -0.3724  0.0041  0.2889
38326SOL    HW124908   4.064   2.030  10.868  0.4572 -1.5315 -1.0908
38326SOL    HW224909   4.192   2.083  10.808 -0.2132  0.9929 -0.4020
38327SOL     OW24910  12.433   0.327   7.250  0.4748  0.1015  0.4347
38327SOL    HW124911  12.462   0.399   7.193  2.8397  0.4730  1.9650
38327SOL    HW224912  12.351   0.358   7.287 -0.0656  0.7113 -1.2014
38328SOL     OW24913   0.691   4.470   7.646  0.2185 -0.1148 -0.8515
38328SOL    HW124914   0.675   4.387   7.691  1.5856  0.7138  1.3564
38328SOL    HW224915   0.609   4.518   7.655  0.0651 -0.4610 -0.3537
38329SOL     OW24916  13.029   3.790   2.357 -0.1895  0.1525 -0.3815
38329SOL    HW124917  13.034   3.882   2.328  0.6433  0.5844  1.0430
38329SOL    HW224918  13.102   3.747   2.313  0.4667  0.5743  0.2884
38330SOL     OW24919   3.244  11.893   0.131  0.8632 -0.3125  0.7176
38330SOL    HW124920   3.276  11.812   0.171 -1.8869 -2.4626 -1.1133
38330SOL    HW224921   3.198  11.938   0.202  1.6975 -0.7224  1.5440
38331SOL     OW24922   5.306   5.491   8.177 -0.1204 -0.0126  0.3374
38331SOL    HW124923   5.351   5.406   8.183 -0.3410 -0.2756 -1.2886
38331SOL    HW224924   5.213   5.468   8.181 -0.1646  0.3096  1.3698
38332SOL     OW24925   3.331   8.674   7.984  1.0096  0.1519  0.4350
38332SOL    HW124926   3.253   8.688   7.931  2.3732 -0.5312 -1.9197
38332SOL    HW224927   3.326   8.740   8.054 -1.2970  0.5337 -0.0350
38333SOL     OW24928  10.453   2.857  12.575 -0.1351  0.5447  0.4596
38333SOL    HW124929  10.427   2.809  12.497 -2.3605  0.1643  1.3433
38333SOL    HW224930  10.449   2.792  12.645 -0.0607  1.2975  1.1773
38334SOL     OW24931   7.386   6.108   1.539 -0.6852  0.1614 -0.4123
38334SOL    HW124932   7.416   6.102   1.630 -0.3955 -0.7806 -0.5535
38334SOL    HW224933   7.295   6.077   1.543 -1.0725  1.2732 -0.2682
38335SOL     OW24934   3.525   1.708   2.281 -0.2426  0.4008  0.6821
38335SOL    HW124935   3.478   1.767   2.339  1.3901 -0.7230  3.3144
38335SOL    HW224936   3.617   1.717   2.307  0.4654 -0.7521 -1.2165
38336SOL     OW24937   1.814  11.313  10.619 -0.1394  0.4364 -0.1328
38336SOL    HW124938   1.817  11.376  10.691 -1.1753 -0.4930  0.7737
38336SOL    HW224939   1.869  11.240  10.648 -1.4296 -0.4274  0.2529
38337SOL     OW24940   6.796   4.996   2.997  0.1013  0.2286  0.1597
38337SOL    HW124941   6.720   4.957   3.040 -0.0330  0.6056  0.2695
38337SOL    HW224942   6.871   4.956   3.041 -0.0334 -0.0177  0.1668
38338SOL     OW24943   5.823   0.829   9.290  0.2382 -0.3364  0.4918
38338SOL    HW124944   5.803   0.771   9.363  1.8763  0.2790  1.5054
38338SOL    HW224945   5.830   0.916   9.330  2.1962 -0.1373 -0.1667
38339SOL     OW24946   5.947   8.914   8.179  0.1344  0.1951  0.2771
38339SOL    HW124947   6.006   8.954   8.115  0.9149 -0.5464  0.5214
38339SOL    HW224948   5.926   8.985   8.240 -0.2500  0.7891 -0.5327
38340SOL     OW24949   7.018   9.632   3.021  0.1693 -0.1917  0.3107
38340SOL    HW124950   6.924   9.652   3.025  0.2385  0.6737 -1.4704
38340SOL    HW224951   7.028   9.582   2.940  1.3360  0.2179  0.1915
38341SOL     OW24952   1.056  12.158   1.469  0.1025 -0.6334 -0.2036
38341SOL    HW124953   1.040  12.090   1.403  1.1293 -0.3264 -0.7890
38341SOL    HW224954   1.151  12.163   1.476  0.0210 -0.0621  0.6957
38342SOL     OW24955   9.931   6.927   3.546  0.5061  0.1632  0.5158
38342SOL    HW124956   9.856   6.871   3.566  0.4941 -0.4888 -1.1744
38342SOL    HW224957   9.965   6.893   3.464  0.7213  2.4089 -0.4040
38343SOL     OW24958   9.484   9.811   2.414 -0.2465 -0.2170  0.3543
38343SOL    HW124959   9.466   9.860   2.334  1.4399  1.8000  1.1049
38343SOL    HW224960   9.403   9.765   2.433 -1.2407  0.6352 -1.5611
38344SOL     OW24961   0.577   5.005   3.897 -0.0465 -0.6211  0.2056
38344SOL    HW124962   0.637   4.932   3.917 -0.0096 -0.5435  0.3827
38344SOL    HW224963   0.631   5.083   3.906 -0.0752 -0.5750 -0.0315
38345SOL     OW24964  12.518   1.420  11.463  0.4610 -0.2976  0.9630
38345SOL    HW124965  12.501   1.327  11.446 -1.7287  0.2804 -0.5420
38345SOL    HW224966  12.576   1.446  11.391 -0.8938 -0.0200 -0.0783
38346SOL     OW24967  13.167   1.708   8.987  0.4054 -0.0194 -0.0638
38346SOL    HW124968  13.228   1.683   9.057  0.6188 -2.0182 -0.8837
38346SOL    HW224969  13.132   1.792   9.015  0.4472 -0.7488  2.4775
38347SOL     OW24970   2.329   1.739   5.091  0.1217 -0.4254 -0.3345
38347SOL    HW124971   2.277   1.663   5.120  0.3808 -0.5842 -0.2845
38347SOL    HW224972   2.263   1.804   5.067 -0.1932  0.6989  3.0689
38348SOL     OW24973   5.388   1.220   5.099 -0.0383  0.1342 -0.3056
38348SOL    HW124974   5.346   1.298   5.135  0.1695  0.5609 -0.9652
38348SOL    HW224975   5.365   1.221   5.006  1.0279  0.1145 -0.5795
38349SOL     OW24976   6.070   9.051   2.255 -0.3854  0.1267  0.1372
38349SOL    HW124977   6.123   9.121   2.217  0.4333 -0.6307 -0.1499
38349SOL    HW224978   5.980   9.073   2.229  0.0791 -0.0838 -1.8360
38350SOL     OW24979   1.135   4.542  10.056 -0.4685 -0.3266 -0.1701
38350SOL    HW124980   1.201   4.473  10.057 -0.0224 -0.0474 -2.9414
38350SOL    HW224981   1.126   4.568  10.148  2.1571 -1.4050  0.4802
38351SOL     OW24982  12.746  10.650   1.021  0.4568  0.5243  0.0993
38351SOL    HW124983  12.804  10.589   1.066 -0.4379 -1.6754 -1.5422
38351SOL    HW224984  12.794  10.673   0.941 -0.2161 -0.0285 -0.4780
38352SOL     OW24985  12.603   9.015   2.108 -0.0659  0.1692  0.1357
38352SOL    HW124986  12.542   9.085   2.132 -1.0415 -0.7968  0.6029
38352SOL    HW224987  12.682   9.033   2.159 -0.4770  0.6881  0.5994
38353SOL     OW24988   3.468   0.197  11.995  0.5663 -0.0532 -0.4030
38353SOL    HW124989   3.435   0.278  11.957 -0.3100  0.3165  1.0785
38353SOL    HW224990   3.535   0.167  11.933  2.9104  3.2138  0.2656
38354SOL     OW24991   9.303  13.304   4.613 -0.6531  0.6934 -0.1760
38354SOL    HW124992   9.364  13.311   4.687  1.5346 -2.8924 -1.3777
38354SOL    HW224993   9.353  13.337   4.538 -0.7432 -0.7845 -0.9152
38355SOL     OW24994   9.660  11.367  12.349 -0.0891  0.4081  0.5731
38355SOL    HW124995   9.648  11.276  12.319 -1.1757  0.5407  0.5644
38355SOL    HW224996   9.706  11.359  12.432 -1.0842 -0.2232  1.0789
38356SOL     OW24997   0.141   3.604   9.113 -0.0935  0.1034 -0.1523
38356SOL    HW124998   0.186   3.673   9.160  0.3185  0.2272 -0.7144
38356SOL    HW224999   0.191   3.525   9.132  1.0583  0.4221 -1.6587
38357SOL     OW25000   0.734   1.904   4.687 -0.0276  0.4181  0.1982
38357SOL    HW125001   0.721   1.837   4.620 -0.8485  1.3763 -0.6537
38357SOL    HW225002   0.707   1.986   4.644 -1.3285  0.9630  1.9350
38358SOL     OW25003   0.368  11.950  10.302 -0.0189 -0.4203  0.0285
38358SOL    HW125004   0.443  11.955  10.244 -0.5700 -0.3317 -0.6982
38358SOL    HW225005   0.304  11.896  10.255 -0.6507  0.0292  0.3408
38359SOL     OW25006   0.832   7.585  12.195  0.1873 -0.0913 -0.3960
38359SOL    HW125007   0.751   7.542  12.222  0.3360 -0.1171  0.0076
38359SOL    HW225008   0.902   7.536  12.239  0.5498 -1.0860 -1.9816
38360SOL     OW25009  11.873  10.381   1.588 -0.2812  0.6237  0.3761
38360SOL    HW125010  11.810  10.440   1.630  1.4766  1.6340  1.7494
38360SOL    HW225011  11.864  10.299   1.635 -1.2653  0.4335 -0.1222
38361SOL     OW25012  12.212  12.843   4.026 -0.2755  0.0492  0.3367
38361SOL    HW125013  12.228  12.937   4.019 -0.2280 -0.0611 -1.5073
38361SOL    HW225014  12.197  12.828   4.119  0.3635  1.7701  0.7506
38362SOL     OW25015  11.585   1.017  11.334  0.5556 -0.3335  0.1523
38362SOL    HW125016  11.642   1.060  11.270  1.1433  1.5685  1.8456
38362SOL    HW225017  11.548   1.088  11.385  1.2285 -1.7727  2.8475
38363SOL     OW25018   6.041   0.788   6.620  0.0048  0.6268  0.3863
38363SOL    HW125019   6.051   0.708   6.569 -0.6942  0.4848  0.4645
38363SOL    HW225020   6.000   0.760   6.701  2.1268  0.6708  1.5469
38364SOL     OW25021  11.613   5.015   3.727 -0.3380  0.3295 -0.4126
38364SOL    HW125022  11.567   5.004   3.810  0.8695 -0.4623  0.1822
38364SOL    HW225023  11.544   5.027   3.662 -1.3068  1.0950  0.7095
38365SOL     OW25024  11.188   1.261  11.244 -0.2580  1.0776  0.0648
38365SOL    HW125025  11.211   1.311  11.323  1.0796  0.5527  0.0363
38365SOL    HW225026  11.094   1.274  11.234 -0.7381  0.0463  2.5460
38366SOL     OW25027   9.863   2.972  12.605  0.1553 -0.1588  0.9126
38366SOL    HW125028   9.890   2.991  12.695  2.1261 -0.5404  0.4393
38366SOL    HW225029   9.943   2.944  12.561 -0.3010  1.9268 -1.5026
38367SOL     OW25030   0.062   0.989   2.434  0.6352 -0.0615  0.0728
38367SOL    HW125031   0.125   0.995   2.505  1.2115  2.4142 -0.5713
38367SOL    HW225032   0.050   1.079   2.403 -1.3486 -0.7546 -1.4581
38368SOL     OW25033   7.847   3.456   7.481 -0.2658 -0.1028 -0.0268
38368SOL    HW125034   7.774   3.407   7.442 -0.0253 -0.8321  0.4016
38368SOL    HW225035   7.807   3.534   7.518 -0.8476 -0.5257  0.2567
38369SOL     OW25036   7.764  10.237  11.346 -0.2024  0.4676 -0.3916
38369SOL    HW125037   7.791  10.165  11.289  0.8639  0.8136 -0.3378
38369SOL    HW225038   7.669  10.225  11.355 -0.1645 -0.4655 -1.0170
38370SOL     OW25039   1.367   0.009   9.697  0.0605 -0.1015 -0.3510
38370SOL    HW125040   1.360   0.022   9.603  3.0806 -0.8262 -0.7992
38370SOL    HW225041   1.435   0.071   9.725  0.7571 -1.3468  0.9004
38371SOL     OW25042   6.623  12.759  12.780 -0.1641  0.9596 -0.4851
38371SOL    HW125043   6.577  12.680  12.805  0.9471  0.1306 -0.9554
38371SOL    HW225044   6.671  12.785  12.859 -0.8746  1.4202 -0.2032
38372SOL     OW25045   0.845   6.496  10.076 -0.1094  0.0227 -0.1656
38372SOL    HW125046   0.829   6.436  10.149 -2.3233  0.6811 -0.0553
38372SOL    HW225047   0.866   6.580  10.117  1.0254 -0.1638 -0.3228
38373SOL     OW25048  11.785   3.879   4.926 -0.2596  0.1819 -0.4776
38373SOL    HW125049  11.726   3.954   4.934 -1.6726 -0.7881 -1.2707
38373SOL    HW225050  11.846   3.889   4.999 -1.1267  1.4819  0.1172
38374SOL     OW25051   3.033   1.128   9.553  0.5487 -0.2320 -0.2804
38374SOL    HW125052   3.077   1.046   9.531  0.7363  0.0969 -1.1875
38374SOL    HW225053   3.104   1.190   9.568  0.4296 -0.4073  1.2207
38375SOL     OW25054  11.975   7.976   5.177  0.0824  0.5478 -0.9972
38375SOL    HW125055  12.016   7.946   5.096 -1.1936  0.3951 -1.6014
38375SOL    HW225056  11.916   7.905   5.202  1.3938 -0.0052  0.8051
38376SOL     OW25057   6.573  10.073   8.092 -0.3615 -0.1025  0.4919
38376SOL    HW125058   6.524  10.135   8.036 -0.0431  0.8511  1.2498
38376SOL    HW225059   6.511  10.049   8.161 -0.5774 -0.8673  0.0434
38377SOL     OW25060   6.914  13.271  12.008  0.5235  0.0108 -0.4470
38377SOL    HW125061   6.870  13.202  12.058  0.3856 -0.1466 -0.7860
38377SOL    HW225062   6.846  13.336  11.991  0.6688  0.2719 -0.0663
38378SOL     OW25063   8.248   6.556   2.049 -0.0799 -0.0094  0.3025
38378SOL    HW125064   8.191   6.488   2.087  0.9951 -0.6045  0.9027
38378SOL    HW225065   8.327   6.509   2.024  0.8673  1.0936  1.1346
38379SOL     OW25066   4.904   8.240   7.467  0.4163  0.5588  0.3716
38379SOL    HW125067   4.927   8.331   7.448  0.5394  0.5074  0.2758
38379SOL    HW225068   4.856   8.211   7.389  0.6301  0.4517  0.2770
38380SOL     OW25069   3.499   0.361   7.913 -0.6376  0.1804 -0.7651
38380SOL    HW125070   3.505   0.369   7.817 -0.1976 -1.8440 -0.9506
38380SOL    HW225071   3.590   0.354   7.942 -0.7966  0.2234 -0.2443
38381SOL     OW25072   9.129   1.078   7.308  0.1599  0.3969  0.5959
38381SOL    HW125073   9.194   1.091   7.239 -0.0333  1.8196  0.6585
38381SOL    HW225074   9.178   1.033   7.377  0.8375  0.6040  0.2671
38382SOL     OW25075  10.384   3.383   3.730  0.1081 -0.5854 -0.1717
38382SOL    HW125076  10.341   3.322   3.791 -0.1844 -1.2016 -0.9820
38382SOL    HW225077  10.478   3.369   3.745  0.0627  0.5274  1.3688
38383SOL     OW25078   7.243  10.134   6.168 -0.1733  0.1113 -0.8145
38383SOL    HW125079   7.329  10.141   6.127 -1.1137  3.1177 -2.6424
38383SOL    HW225080   7.213  10.225   6.175 -1.3416 -0.3540  4.0834
38384SOL     OW25081  10.512   4.534   4.260 -0.7783  0.0390  0.2990
38384SOL    HW125082  10.465   4.510   4.179  0.9757  0.1294 -0.7991
38384SOL    HW225083  10.459   4.604   4.298 -1.0848  0.7693 -1.3587
38385SOL     OW25084  11.314   7.638   0.681  0.0348  0.3367 -0.0094
38385SOL    HW125085  11.381   7.701   0.654 -0.7663  1.5246  0.6664
38385SOL    HW225086  11.303   7.653   0.775 -0.6175 -0.3906  0.0464
38386SOL     OW25087  12.167  12.185   3.226 -0.1978  0.0607 -0.5552
38386SOL    HW125088  12.129  12.099   3.243  1.1530 -0.4046  0.2894
38386SOL    HW225089  12.143  12.204   3.135  0.2841 -1.6640 -1.0898
38387SOL     OW25090   4.467   7.815  12.337 -0.3659  0.0091 -0.2289
38387SOL    HW125091   4.400   7.881  12.319 -0.7583  0.4142  2.3761
38387SOL    HW225092   4.535   7.831  12.272 -1.3063  1.7392 -0.8476
38388SOL     OW25093   3.609   8.769   3.072  0.1822  0.0157  0.2214
38388SOL    HW125094   3.603   8.762   3.167  3.7498  0.1563  0.5828
38388SOL    HW225095   3.551   8.841   3.049 -1.3730 -0.5445  2.1426
38389SOL     OW25096   2.752  11.992  13.264 -0.1481 -0.3931  0.0116
38389SOL    HW125097   2.834  12.018  13.307  1.0957 -2.5308 -0.9178
38389SOL    HW225098   2.778  11.923  13.203 -2.5217 -0.4322 -1.0462
38390SOL     OW25099   6.824   7.298   5.153  0.3157 -0.7371 -0.1859
38390SOL    HW125100   6.779   7.383   5.147 -0.9316 -1.4288 -0.8478
38390SOL    HW225101   6.913   7.316   5.121 -0.5966 -0.1449 -2.5901
38391SOL     OW25102   0.093   0.222   0.772  0.3047  0.2110 -0.0870
38391SOL    HW125103   0.010   0.228   0.724  0.5220 -0.8528 -0.6104
38391SOL    HW225104   0.090   0.136   0.814  0.3717  0.8834  1.3592
38392SOL     OW25105   0.780   1.081   6.259  0.2698 -0.1038 -0.0687
38392SOL    HW125106   0.779   0.986   6.258 -1.2008 -0.1264  0.5849
38392SOL    HW225107   0.691   1.106   6.287  0.3710  1.4665 -1.0157
38393SOL     OW25108   8.405   7.944   4.655  0.0738  0.1427  0.5509
38393SOL    HW125109   8.431   8.036   4.653 -3.0803  1.1951  2.3843
38393SOL    HW225110   8.412   7.918   4.747  0.4008 -1.3187  0.1490
38394SOL     OW25111   2.040  11.415  13.199  0.1899  0.0277  0.6352
38394SOL    HW125112   2.037  11.446  13.289 -1.6324  0.2734  0.5094
38394SOL    HW225113   2.009  11.488  13.146  2.1901  0.2476 -0.3390
38395SOL     OW25114   4.701   1.820   3.057 -0.2126 -0.4245  0.5735
38395SOL    HW125115   4.706   1.801   2.963 -1.9480  0.0236  0.3623
38395SOL    HW225116   4.692   1.734   3.098 -0.2065 -0.5673  0.2789
38396SOL     OW25117   6.688   6.896  10.559  0.4701 -0.5527 -0.2879
38396SOL    HW125118   6.683   6.989  10.539 -0.4640 -0.3790  0.6883
38396SOL    HW225119   6.739   6.892  10.641 -0.0126 -0.8416  0.0023
38397SOL     OW25120  12.121  11.454   7.767  0.3727  0.5657  0.5263
38397SOL    HW125121  12.033  11.478   7.797 -0.1017  0.5866 -0.8026
38397SOL    HW225122  12.108  11.374   7.716  1.3163 -0.1246  1.3280
38398SOL     OW25123   5.296   3.973   1.194 -0.0254  0.5791 -0.5026
38398SOL    HW125124   5.209   3.945   1.222 -0.7951  1.0271 -2.3161
38398SOL    HW225125   5.282   4.055   1.148  1.1034 -0.1121 -2.2160
38399SOL     OW25126   2.919   1.113   5.166  0.1316  0.3499 -0.4842
38399SOL    HW125127   2.852   1.181   5.174 -1.4250 -0.9991 -1.2359
38399SOL    HW225128   2.963   1.131   5.083  0.8275  1.3313  0.0829
38400SOL     OW25129  13.128   5.505   9.494  0.9696 -0.0406  0.0208
38400SOL    HW125130  13.055   5.562   9.516  0.2083 -0.4272 -1.3746
38400SOL    HW225131  13.201   5.537   9.547  1.2119  3.6557 -2.1962
38401SOL     OW25132   5.811   0.226   9.036 -0.1606  0.5342 -0.1715
38401SOL    HW125133   5.779   0.137   9.020 -2.3542  1.2788 -0.3745
38401SOL    HW225134   5.806   0.237   9.131 -2.5253  1.2452 -0.3032
38402SOL     OW25135  12.445   5.262   5.053 -0.0605 -0.3547 -0.3440
38402SOL    HW125136  12.461   5.295   5.142  0.2866 -0.4382 -0.3729
38402SOL    HW225137  12.438   5.341   4.999 -0.4612 -0.2990 -0.2118
38403SOL     OW25138   5.093   7.377   8.079  0.3294  0.5236 -0.4069
38403SOL    HW125139   5.122   7.428   8.154  0.4524 -1.6668  1.1201
38403SOL    HW225140   5.165   7.383   8.016  0.4688  1.9181 -0.1420
38404SOL     OW25141   9.096  10.015  12.987 -0.2380 -0.4782  0.0114
38404SOL    HW125142   9.013  10.040  13.027 -0.8921 -1.0361 -0.9680
38404SOL    HW225143   9.162  10.068  13.033 -1.1954  0.4100  0.3882
38405SOL     OW25144   5.039   5.937  10.581  0.2912  0.2818 -0.0795
38405SOL    HW125145   4.954   5.973  10.557  0.5920 -0.1718 -1.9456
38405SOL    HW225146   5.089   6.013  10.613 -0.7347  0.5716  0.8758
38406SOL     OW25147   8.433   6.940   2.075 -0.1269  0.7672 -0.1092
38406SOL    HW125148   8.356   6.885   2.060  0.8522 -0.5222 -0.6204
38406SOL    HW225149   8.410   6.993   2.151 -2.0931  1.5400 -1.1703
38407SOL     OW25150   3.278  12.721   5.483  0.0831  0.1473  0.2994
38407SOL    HW125151   3.304  12.629   5.485  0.9939  0.3963  0.6989
38407SOL    HW225152   3.359  12.768   5.462 -0.5302  0.8074 -0.7201
38408SOL     OW25153  11.715  10.251   4.929 -0.1484  0.1326 -0.0092
38408SOL    HW125154  11.781  10.271   4.995  0.2384 -0.8589 -0.0895
38408SOL    HW225155  11.745  10.298   4.851  0.4426 -0.2640 -0.0288
38409SOL     OW25156   6.827  10.337   9.205  0.2206 -0.3070  0.5084
38409SOL    HW125157   6.887  10.263   9.208 -0.3381 -0.7314  1.5590
38409SOL    HW225158   6.830  10.374   9.293  0.8580  1.2371 -0.1193
38410SOL     OW25159   2.570   6.121   2.687 -0.1250  0.3576 -0.3237
38410SOL    HW125160   2.545   6.040   2.730  2.1978  0.2942  1.0750
38410SOL    HW225161   2.656   6.103   2.650  0.7013  2.3352  0.5202
38411SOL     OW25162   5.366  10.895   4.179 -0.0216  0.1177  0.4641
38411SOL    HW125163   5.432  10.871   4.244 -0.8404 -0.8966  0.9625
38411SOL    HW225164   5.320  10.970   4.217  0.1937  0.1984  0.5676
38412SOL     OW25165   0.715   1.833   3.105  0.4536  0.5001 -0.1581
38412SOL    HW125166   0.724   1.845   3.200  2.7461  3.1011 -0.5716
38412SOL    HW225167   0.625   1.803   3.093  0.3412 -0.7067  2.8659
38413SOL     OW25168   4.079  10.960  10.741  0.2297  0.3865 -0.0179
38413SOL    HW125169   4.110  11.043  10.704  0.1888 -0.4722 -2.0809
38413SOL    HW225170   3.985  10.959  10.724  0.1473  0.1085  0.4283
38414SOL     OW25171   5.028   8.451   6.100 -0.2186  0.6363  0.3276
38414SOL    HW125172   5.048   8.456   6.007 -0.4051  1.8183  0.3396
38414SOL    HW225173   4.933   8.461   6.105 -0.4387 -1.1392  0.5454
38415SOL     OW25174  10.374   7.793   7.841  0.1670  0.8993  0.0533
38415SOL    HW125175  10.354   7.867   7.784  1.1389  1.1811  0.0556
38415SOL    HW225176  10.289   7.755   7.862 -0.5717  3.3156  1.8260
38416SOL     OW25177   9.461   9.041   9.411 -0.5445 -0.2207  0.1340
38416SOL    HW125178   9.519   9.019   9.484 -2.1786  0.2782  1.6614
38416SOL    HW225179   9.435   8.957   9.374  0.3232 -0.4733  0.0575
38417SOL     OW25180   9.161   6.309   0.168 -0.5827  0.1141  0.2365
38417SOL    HW125181   9.185   6.236   0.111 -0.1946 -0.3057  0.9235
38417SOL    HW225182   9.225   6.306   0.239 -0.7669  0.9208  0.4491
38418SOL     OW25183   3.023   9.368   2.955  0.2790  0.3928 -0.4230
38418SOL    HW125184   3.111   9.376   2.992  0.2077 -0.0390 -0.1456
38418SOL    HW225185   2.965   9.372   3.032 -0.0166  1.8077 -0.7015
38419SOL     OW25186   5.630   0.656   6.958 -0.1744  0.3200  0.6839
38419SOL    HW125187   5.633   0.563   6.981  1.0961 -0.1138 -0.9963
38419SOL    HW225188   5.537   0.673   6.938 -0.3221 -0.7645  0.3831
38420SOL     OW25189   4.764   2.592   2.915 -0.0835  0.2939  0.0492
38420SOL    HW125190   4.751   2.541   2.995  1.2170 -2.0859 -1.1674
38420SOL    HW225191   4.798   2.676   2.946  0.6530 -0.6501  1.9958
38421SOL     OW25192   7.037  12.312   1.919  0.2547 -0.2863  0.0622
38421SOL    HW125193   7.024  12.327   1.825 -3.7608 -0.2715  0.4502
38421SOL    HW225194   7.059  12.398   1.954  0.7205 -0.0773 -0.7268
38422SOL     OW25195   2.522   8.679   4.560 -0.9666 -0.0994 -0.3225
38422SOL    HW125196   2.506   8.710   4.649  0.1621  0.9413 -0.4564
38422SOL    HW225197   2.449   8.621   4.541 -1.2357 -0.3046  1.2695
38423SOL     OW25198  10.731  11.695   2.977  0.2513 -0.4555  0.5396
38423SOL    HW125199  10.731  11.626   2.911 -2.1825  0.8325 -0.9197
38423SOL    HW225200  10.793  11.760   2.943  1.9703 -1.4709  1.5483
38424SOL     OW25201   8.395  10.890  10.996  0.9148 -0.2692  0.1188
38424SOL    HW125202   8.427  10.972  11.035  0.3408  1.2747 -2.4383
38424SOL    HW225203   8.472  10.833  10.994  2.6610  1.9131 -2.2046
38425SOL     OW25204   4.358  12.246   5.319 -0.2331 -0.4942 -0.4425
38425SOL    HW125205   4.352  12.320   5.259 -0.3037 -0.3042 -0.2006
38425SOL    HW225206   4.347  12.284   5.406 -1.0087 -0.8774 -0.3600
38426SOL     OW25207   3.662   7.775   5.177 -0.3616  0.0308  0.3026
38426SOL    HW125208   3.626   7.863   5.167 -0.3255  0.0640  0.4690
38426SOL    HW225209   3.639   7.749   5.265 -0.5982 -0.2336  0.1625
38427SOL     OW25210  10.698  12.273   9.346 -0.0607 -0.1023  0.3044
38427SOL    HW125211  10.603  12.282   9.348 -0.1283 -0.8480  2.4405
38427SOL    HW225212  10.729  12.328   9.418  1.1910  0.4604 -0.6237
38428SOL     OW25213   8.663   9.595   8.593 -0.0855  0.1428  0.0976
38428SOL    HW125214   8.649   9.668   8.533  1.6211 -0.0278 -0.5688
38428SOL    HW225215   8.610   9.524   8.558  0.2630  0.2974 -0.7723
38429SOL     OW25216  12.452   0.627  10.236 -0.2688 -0.1088  0.6802
38429SOL    HW125217  12.488   0.713  10.211 -0.4354 -0.1829  0.1692
38429SOL    HW225218  12.490   0.609  10.322 -0.8626  0.8377  1.1450
38430SOL     OW25219   6.474   3.196   5.233  0.3126 -0.3875  0.1464
38430SOL    HW125220   6.538   3.141   5.188  0.1486 -0.6385  0.2186
38430SOL    HW225221   6.410   3.219   5.166 -0.6591 -1.8530  0.5357
38431SOL     OW25222  12.160  11.171   7.977  0.4094  0.5673 -0.3366
38431SOL    HW125223  12.250  11.153   8.004  0.8919  0.6236 -1.8121
38431SOL    HW225224  12.135  11.249   8.028  1.0075  0.2605  0.4405
38432SOL     OW25225   2.520  13.129   3.457 -0.7167 -0.0451 -0.2660
38432SOL    HW125226   2.428  13.113   3.478 -0.9111  0.0294 -1.0201
38432SOL    HW225227   2.526  13.225   3.450 -0.4893 -0.0248  0.1651
38433SOL     OW25228   7.145   8.921   5.104  0.2300 -0.2368  1.1399
38433SOL    HW125229   7.063   8.919   5.153 -0.7212 -0.4013 -0.4181
38433SOL    HW225230   7.176   9.011   5.113 -0.3905 -0.0381  1.2863
38434SOL     OW25231   6.181  10.809   6.143 -0.1427  0.0096  0.1805
38434SOL    HW125232   6.092  10.802   6.106 -0.3820 -1.3371  0.9696
38434SOL    HW225233   6.217  10.721   6.138  1.8980  0.8607 -1.8241
38435SOL     OW25234   4.674   5.043  11.868 -0.2021 -0.2036 -0.3429
38435SOL    HW125235   4.725   5.124  11.879  0.3628 -0.6350  0.3706
38435SOL    HW225236   4.741   4.974  11.861 -0.6618 -0.8289  0.9646
38436SOL     OW25237   3.077   0.148   6.734  0.0319 -0.9838  0.5269
38436SOL    HW125238   3.045   0.184   6.817  0.2297 -1.8520  0.9867
38436SOL    HW225239   3.162   0.190   6.721 -1.2912  1.5677 -0.8498
38437SOL     OW25240   0.256   9.906   0.950 -0.0900  0.5484 -0.3818
38437SOL    HW125241   0.204   9.858   0.886  0.1709  0.5377 -0.5838
38437SOL    HW225242   0.339   9.924   0.906  1.0026 -1.4646  0.7037
38438SOL     OW25243   0.855   7.091   1.172  0.1030 -0.3755 -0.8239
38438SOL    HW125244   0.850   7.175   1.217 -0.3796  0.1135 -1.7652
38438SOL    HW225245   0.948   7.067   1.175 -0.0271 -0.7710  1.1372
38439SOL     OW25246   9.285  11.357  12.625  0.4292  0.7459 -0.0379
38439SOL    HW125247   9.231  11.422  12.671  0.4342  1.1478 -0.5919
38439SOL    HW225248   9.237  11.338  12.545  0.4193  0.0356  0.1292
38440SOL     OW25249   7.818   9.452   8.686 -0.5669 -0.5115 -0.2135
38440SOL    HW125250   7.854   9.436   8.599  0.2253 -0.4642  0.0964
38440SOL    HW225251   7.784   9.367   8.714 -1.5188 -0.3593 -0.8693
38441SOL     OW25252  12.178   0.042   9.017 -0.1209  0.2288 -0.2911
38441SOL    HW125253  12.159   0.135   9.025 -2.0884  0.0490 -1.8932
38441SOL    HW225254  12.134   0.002   9.092  1.0391  0.5847  0.6059
38442SOL     OW25255   1.561   3.119   3.862 -0.1632  0.1072  0.4043
38442SOL    HW125256   1.526   3.131   3.773 -0.4743  1.9776  0.7426
38442SOL    HW225257   1.485   3.092   3.914  0.0240 -1.0138  0.1270
38443SOL     OW25258   8.913   6.153   2.576 -0.1221 -0.3153  0.3726
38443SOL    HW125259   8.911   6.119   2.665  0.1054 -0.0652  0.4777
38443SOL    HW225260   9.000   6.193   2.568  1.1067 -2.9963 -0.9710
38444SOL     OW25261  12.860   0.010   8.334 -0.2041 -0.1008  0.0992
38444SOL    HW125262  12.771  -0.023   8.318  0.6217 -2.0123 -0.9641
38444SOL    HW225263  12.872   0.001   8.429 -0.5564 -1.5200  0.0305
38445SOL     OW25264   0.172   2.577   7.553 -0.3297  0.0132 -0.3405
38445SOL    HW125265   0.159   2.657   7.503 -0.3535  0.0578 -0.2635
38445SOL    HW225266   0.136   2.507   7.498  2.4314 -0.3861 -1.7993
38446SOL     OW25267  12.619   9.020  10.055  0.3292  0.2943 -0.2461
38446SOL    HW125268  12.573   9.003   9.972  0.8819 -0.5830 -0.3874
38446SOL    HW225269  12.559   8.988  10.122  0.2290  0.2376 -0.3612
38447SOL     OW25270   9.239   0.661   3.538 -0.1329  0.5725  0.9745
38447SOL    HW125271   9.325   0.627   3.513 -1.2555 -0.7634 -1.3779
38447SOL    HW225272   9.202   0.595   3.595 -0.0150  0.6607  1.1549
38448SOL     OW25273   2.790  11.025   4.138  0.2386 -0.1075 -0.0236
38448SOL    HW125274   2.822  11.096   4.082 -0.2432 -1.5527 -2.2688
38448SOL    HW225275   2.850  10.952   4.121 -0.4075 -0.8353  0.7361
38449SOL     OW25276  13.033   2.746   0.134  0.1836  0.4242 -0.1428
38449SOL    HW125277  12.943   2.718   0.150  0.8816 -0.9886  1.7347
38449SOL    HW225278  13.073   2.671   0.089  1.0995 -0.1595  1.5456
38450SOL     OW25279  12.711   2.723   8.987 -0.5404  0.1110  0.1902
38450SOL    HW125280  12.790   2.740   9.039 -0.6956 -0.4092  0.6043
38450SOL    HW225281  12.645   2.783   9.022 -0.1401  1.0766 -0.6442
38451SOL     OW25282  10.115   3.644   2.669 -0.5220 -0.3288  0.0480
38451SOL    HW125283  10.104   3.712   2.736 -0.9244  0.2975 -0.6382
38451SOL    HW225284  10.207   3.619   2.676 -0.9919 -1.7214  2.1712
38452SOL     OW25285   3.158   0.888  10.523 -0.0463 -0.6634 -0.0924
38452SOL    HW125286   3.102   0.834  10.467 -1.2940  0.7426 -0.2867
38452SOL    HW225287   3.114   0.974  10.524  1.7037  0.2705  0.4075
38453SOL     OW25288   5.138   7.382   3.878 -0.2886 -0.1972  0.5698
38453SOL    HW125289   5.091   7.314   3.927 -0.0580 -0.9415 -0.2115
38453SOL    HW225290   5.104   7.464   3.912  0.6048 -0.6456  2.7242
38454SOL     OW25291   0.455   3.705   7.010  0.5874  0.0998  1.0646
38454SOL    HW125292   0.547   3.684   6.993  0.5335  2.0763 -2.3727
38454SOL    HW225293   0.413   3.619   7.019  2.6827 -0.8564  2.7592
38455SOL     OW25294   7.758   0.234   4.874  0.1566 -0.2760  0.2626
38455SOL    HW125295   7.784   0.316   4.831  0.4317 -0.2385  0.5051
38455SOL    HW225296   7.783   0.245   4.965 -0.1419 -0.4854  0.3714
38456SOL     OW25297   3.449   6.710  11.531  0.6939  0.5036 -0.5450
38456SOL    HW125298   3.517   6.662  11.579 -0.9894 -1.4623  0.0079
38456SOL    HW225299   3.476   6.702  11.439  0.1154 -2.2932 -0.5676
38457SOL     OW25300   1.552  10.405  13.185  0.2427  0.1843 -0.0359
38457SOL    HW125301   1.477  10.404  13.125 -0.4168  1.0305  0.7471
38457SOL    HW225302   1.576  10.313  13.194 -2.1919 -0.3987  1.4730
38458SOL     OW25303   7.812  10.527  12.411 -0.4516  0.2011 -0.0012
38458SOL    HW125304   7.776  10.504  12.497 -0.9252 -1.6084 -0.6469
38458SOL    HW225305   7.757  10.600  12.381 -1.8935 -0.7826  0.1733
38459SOL     OW25306   9.879   9.179   0.217 -0.2279  0.8646  0.3777
38459SOL    HW125307   9.791   9.193   0.251 -0.6816 -0.0624 -0.3852
38459SOL    HW225308   9.867   9.121   0.141  0.8999  1.7181 -0.4931
38460SOL     OW25309   1.898   5.135   0.154 -0.9706 -0.0091  0.0933
38460SOL    HW125310   1.808   5.109   0.134 -1.0599  0.0205  0.4627
38460SOL    HW225311   1.953   5.070   0.110 -1.1858 -0.5707  0.6462
38461SOL     OW25312   3.699   8.390   6.611 -0.0533 -0.0923  0.2719
38461SOL    HW125313   3.694   8.431   6.524  1.1467  0.6779  0.5475
38461SOL    HW225314   3.610   8.399   6.646  0.2007  2.6071  0.4414
38462SOL     OW25315   1.765   7.999  10.817 -0.2511  0.0674 -0.2207
38462SOL    HW125316   1.782   7.998  10.911 -0.7268  0.4390 -0.1243
38462SOL    HW225317   1.784   8.089  10.791  0.5106 -0.1986 -0.6044
38463SOL     OW25318  11.352  12.205   7.028  0.0078  0.3247  0.5637
38463SOL    HW125319  11.429  12.197   7.084 -0.3963 -1.2554  0.9359
38463SOL    HW225320  11.314  12.117   7.026 -0.5004  0.5449 -1.4661
38464SOL     OW25321  12.620   9.410  11.139 -0.0911 -0.5400 -0.1625
38464SOL    HW125322  12.572   9.466  11.078 -0.4177  1.0423  1.4688
38464SOL    HW225323  12.584   9.322  11.123  0.0039 -0.2509 -2.3611
38465SOL     OW25324   7.831   6.081   0.729 -0.1430 -0.3781  0.1446
38465SOL    HW125325   7.820   5.987   0.712 -1.5666 -0.2324  0.1220
38465SOL    HW225326   7.763   6.123   0.676 -0.8285  0.5050  1.6543
38466SOL     OW25327   9.541  10.165   5.848  0.9959  0.1068  0.3578
38466SOL    HW125328   9.506  10.247   5.813  1.0406  0.5097  1.2411
38466SOL    HW225329   9.483  10.143   5.921  1.4812 -0.2048  0.6552
38467SOL     OW25330   8.594   7.357   0.878  0.4523  0.8903  0.0403
38467SOL    HW125331   8.540   7.402   0.813 -0.0577 -0.7858 -0.7650
38467SOL    HW225332   8.682   7.358   0.839 -0.0887 -1.2902 -1.4320
38468SOL     OW25333   3.333   7.865  11.939 -0.2236 -0.3653  0.1712
38468SOL    HW125334   3.272   7.937  11.925 -0.8332 -1.2324 -1.9857
38468SOL    HW225335   3.280   7.797  11.980 -0.1549 -0.3265  0.3240
38469SOL     OW25336   6.285   2.051  10.165  0.4921  0.2888  0.6497
38469SOL    HW125337   6.252   2.055  10.075  2.4200 -0.1377 -0.1375
38469SOL    HW225338   6.246   2.127  10.209  0.5686  1.2986 -0.9466
38470SOL     OW25339  10.261   5.632  10.408 -0.1947 -0.6580 -0.1850
38470SOL    HW125340  10.252   5.723  10.382 -1.8705 -1.0987 -1.2893
38470SOL    HW225341  10.228   5.629  10.498 -1.0757 -0.3313 -0.4905
38471SOL     OW25342   4.099   8.628   2.309  0.3145  0.3661  0.1894
38471SOL    HW125343   4.014   8.607   2.272  0.3164  1.4828 -0.4803
38471SOL    HW225344   4.079   8.675   2.390  0.2927  0.4621  0.1286
38472SOL     OW25345   4.621   7.168   6.064 -0.6219  0.5356  0.0412
38472SOL    HW125346   4.664   7.201   5.985  0.9602 -0.6362  0.3562
38472SOL    HW225347   4.551   7.111   6.031 -0.1806  0.3046 -0.5211
38473SOL     OW25348   5.635   9.320   7.586 -0.5212 -0.3444 -0.5347
38473SOL    HW125349   5.650   9.226   7.576 -1.7214 -0.5959 -0.0268
38473SOL    HW225350   5.645   9.336   7.680 -0.3963  0.0291 -0.6116
38474SOL     OW25351   3.163   2.307   8.512  0.0740 -0.0725  0.0852
38474SOL    HW125352   3.168   2.377   8.578 -0.2657 -0.4892  0.5641
38474SOL    HW225353   3.080   2.263   8.531  0.9849 -1.5711  0.7782
38475SOL     OW25354   4.969   2.200  11.445  0.0752 -0.1004 -0.3825
38475SOL    HW125355   4.915   2.121  11.435 -0.2426 -0.1740  1.5915
38475SOL    HW225356   5.037   2.174  11.507  0.1941  1.0875 -0.0064
38476SOL     OW25357  10.158   3.873   1.457  0.2489  1.1045  0.5875
38476SOL    HW125358  10.090   3.939   1.441  0.1395  0.5787 -1.4947
38476SOL    HW225359  10.123   3.820   1.528 -0.9742  1.5870  0.3837
38477SOL     OW25360   7.028   8.779  10.241 -0.9336 -0.3860 -0.1599
38477SOL    HW125361   7.052   8.788  10.333 -0.4886 -1.1417 -0.1963
38477SOL    HW225362   7.081   8.844  10.195 -0.7949 -0.3455  0.0590
38478SOL     OW25363   1.302   1.856  10.683  0.2406 -0.0613  0.5164
38478SOL    HW125364   1.302   1.769  10.642 -0.3618  0.3091 -0.3049
38478SOL    HW225365   1.343   1.843  10.768 -0.3949 -1.2731  0.6569
38479SOL     OW25366   1.793   1.569   1.019  0.0179 -0.2928  0.3017
38479SOL    HW125367   1.853   1.518   1.074 -1.1828 -2.9672 -0.6610
38479SOL    HW225368   1.801   1.529   0.933 -0.4856  1.7130 -0.7175
38480SOL     OW25369   5.422   3.214  10.053 -0.5092 -0.8627 -0.6492
38480SOL    HW125370   5.368   3.286  10.085  0.2526  0.0299 -1.3455
38480SOL    HW225371   5.427   3.228   9.958 -0.8015 -2.1477 -0.8781
38481SOL     OW25372   7.010   6.615   5.448  0.0754 -0.2317  0.5175
38481SOL    HW125373   7.069   6.602   5.522  0.2014 -2.3849  0.0990
38481SOL    HW225374   7.045   6.692   5.403  0.0885  1.0371  2.5552
38482SOL     OW25375   6.298   9.598   8.118  0.0732  0.1310  0.3865
38482SOL    HW125376   6.255   9.528   8.069 -2.9003  1.8615  0.2590
38482SOL    HW225377   6.356   9.553   8.180  2.0727 -2.2121 -2.8858
38483SOL     OW25378  10.780   7.023  11.291 -0.0357  0.1402 -0.2527
38483SOL    HW125379  10.819   7.079  11.225 -0.0236  0.7006  0.2224
38483SOL    HW225380  10.779   6.936  11.251  3.3273 -0.3084  0.2723
38484SOL     OW25381   2.042   8.910   6.194  0.2639  0.3072 -0.8975
38484SOL    HW125382   2.075   8.825   6.225  0.8165 -0.1752 -2.7147
38484SOL    HW225383   1.948   8.906   6.211  0.5110  0.0326  0.5783
38485SOL     OW25384  10.913   2.764   3.148 -0.3217 -0.3674 -0.6681
38485SOL    HW125385  10.940   2.761   3.057  1.5180 -1.9130 -0.1235
38485SOL    HW225386  10.972   2.828   3.189 -0.5603 -0.3222 -0.3896
38486SOL     OW25387  10.748   0.381  13.175 -0.3148  0.0508  0.1790
38486SOL    HW125388  10.750   0.332  13.093 -0.0055  1.1217 -0.4815
38486SOL    HW225389  10.833   0.363  13.216 -0.2106  0.0064 -0.0510
38487SOL     OW25390   9.121   8.138  11.254  0.3293  0.4130 -0.7081
38487SOL    HW125391   9.192   8.184  11.211  0.0565  0.5260 -1.0475
38487SOL    HW225392   9.159   8.104  11.335  0.7696  0.4560 -0.8941
38488SOL     OW25393   6.915   5.598   9.299 -0.2642 -0.1989  0.2836
38488SOL    HW125394   6.910   5.619   9.392 -1.9163  0.3075  0.1128
38488SOL    HW225395   6.990   5.540   9.291  0.1744  0.1205  1.8598
38489SOL     OW25396   6.229   7.098   9.742  0.0368 -0.0721 -0.0496
38489SOL    HW125397   6.308   7.123   9.693  0.8474 -1.9546  0.2137
38489SOL    HW225398   6.157   7.112   9.681  0.6177  1.1335 -0.4914
38490SOL     OW25399  13.248   0.315   5.990 -0.2607  0.5179 -0.3090
38490SOL    HW125400  13.266   0.409   5.991  1.8110  0.1858  1.6488
38490SOL    HW225401  13.300   0.281   5.917 -1.3629  0.8902 -1.3074
38491SOL     OW25402  12.120   2.240   9.038  0.0144  0.2127  0.4442
38491SOL    HW125403  12.036   2.279   9.063 -1.2350 -1.6213 -0.6409
38491SOL    HW225404  12.159   2.211   9.121 -1.2724 -0.4794  0.8376
38492SOL     OW25405   2.637   2.375  10.872 -0.6366 -0.4739 -0.3930
38492SOL    HW125406   2.576   2.390  10.944 -0.0574 -0.3035  0.0664
38492SOL    HW225407   2.718   2.418  10.899 -0.9418  1.1708 -1.9470
38493SOL     OW25408   5.028   7.356   4.545  0.0088 -0.1456  0.0903
38493SOL    HW125409   5.001   7.434   4.594 -0.8308  0.2209 -0.9266
38493SOL    HW225410   5.021   7.381   4.453  1.2085 -0.9442 -0.2433
38494SOL     OW25411  11.747  10.030   8.602 -0.7164  0.1807 -0.2132
38494SOL    HW125412  11.838  10.052   8.583 -0.6476 -0.5647 -0.7643
38494SOL    HW225413  11.742   9.935   8.592 -1.2400  0.0435  1.1551
38495SOL     OW25414   9.131   4.053   6.633  0.6510  0.1743  0.3266
38495SOL    HW125415   9.136   4.088   6.722 -0.4356 -0.2620  0.5695
38495SOL    HW225416   9.210   4.086   6.591 -0.0220  2.4751  0.7061
38496SOL     OW25417   2.701  10.738   0.224  0.2725  0.1723  0.2169
38496SOL    HW125418   2.697  10.717   0.131 -0.1481 -3.8773  0.9549
38496SOL    HW225419   2.794  10.738   0.245  0.3594  0.9293 -0.1484
38497SOL     OW25420   1.140  12.295  12.424  0.0942 -0.1321 -0.7276
38497SOL    HW125421   1.135  12.369  12.484  0.2080 -0.7466  0.0614
38497SOL    HW225422   1.161  12.220  12.480 -1.2714 -0.9950 -1.3200
38498SOL     OW25423   1.604   6.441   8.556  0.6164 -0.4469 -0.0816
38498SOL    HW125424   1.603   6.484   8.470  0.1121  0.8052  0.5274
38498SOL    HW225425   1.613   6.513   8.619 -2.7535 -0.9221  1.1563
38499SOL     OW25426   0.440   2.550   7.280 -0.0560  0.4580  0.3942
38499SOL    HW125427   0.386   2.471   7.279  0.2824  0.2271  0.1357
38499SOL    HW225428   0.466   2.563   7.189  0.1167  0.7169  0.4782
38500SOL     OW25429  11.415   7.717  10.112  0.6353 -0.0671  0.1882
38500SOL    HW125430  11.429   7.652  10.180  0.6806 -1.8945 -1.4662
38500SOL    HW225431  11.500   7.724  10.067  0.8516  1.7457  0.7990
38501SOL     OW25432   7.367   6.212  12.966 -0.2290  0.4240  0.2836
38501SOL    HW125433   7.275   6.238  12.953  0.0393  1.4013  0.2836
38501SOL    HW225434   7.416   6.294  12.962  1.1965 -0.3596 -4.2102
38502SOL     OW25435   5.930   6.242   6.758 -0.4593 -0.3572  0.7253
38502SOL    HW125436   6.007   6.265   6.809  1.4293 -2.0944 -1.1331
38502SOL    HW225437   5.907   6.154   6.788 -2.0257  0.3067  1.5560
38503SOL     OW25438  10.306   7.476   8.818  0.5640  0.4866  0.0148
38503SOL    HW125439  10.311   7.414   8.891  2.5636  0.0653 -0.4105
38503SOL    HW225440  10.235   7.443   8.763  1.2992 -1.2035  0.0242
38504SOL     OW25441   3.419   8.996   5.381  0.7691  0.3571  0.2996
38504SOL    HW125442   3.502   9.031   5.414 -0.1536  1.1794  1.8494
38504SOL    HW225443   3.353   9.026   5.443 -0.3857 -2.4010  0.5759
38505SOL     OW25444   3.862   4.620   3.304  0.7538 -0.0321 -0.2441
38505SOL    HW125445   3.932   4.579   3.354  0.3704 -0.5820 -0.1474
38505SOL    HW225446   3.905   4.690   3.256  1.6400 -1.2088 -1.2450
38506SOL     OW25447  11.633   3.610   0.176  0.1737  0.4440  0.4799
38506SOL    HW125448  11.690   3.658   0.115 -0.9110  2.1451  0.7341
38506SOL    HW225449  11.595   3.678   0.231 -2.2938 -0.5748  0.1699
38507SOL     OW25450   2.986   9.283   1.055 -0.0542  0.1146  0.4338
38507SOL    HW125451   3.042   9.239   1.120  0.2914  1.4216  1.0470
38507SOL    HW225452   2.918   9.326   1.107  1.3463  2.8432  0.1977
38508SOL     OW25453   5.557   7.752   9.807  0.5474 -0.5045 -0.0368
38508SOL    HW125454   5.568   7.666   9.767 -2.6880 -0.9655 -0.1781
38508SOL    HW225455   5.545   7.812   9.733  2.4682  0.0684  0.0719
38509SOL     OW25456   3.934   6.781   9.972  0.7628 -0.1245 -0.0479
38509SOL    HW125457   3.884   6.726   9.912  1.7942  0.0451 -1.1097
38509SOL    HW225458   3.896   6.869   9.962  0.9380 -0.0946 -0.4746
38510SOL     OW25459   2.360   4.361   8.503  0.1037 -0.6230 -0.1209
38510SOL    HW125460   2.319   4.335   8.585  1.0416 -0.8296  0.2857
38510SOL    HW225461   2.293   4.415   8.460 -0.1083  0.1384  1.1167
38511SOL     OW25462   6.164  10.405   1.721 -0.5884  0.0511  0.5672
38511SOL    HW125463   6.250  10.403   1.679  0.6166 -0.1377  2.8476
38511SOL    HW225464   6.132  10.315   1.715 -0.5930  0.0978 -0.1969
38512SOL     OW25465  12.532   9.683   0.901 -0.0825 -0.1693 -0.4023
38512SOL    HW125466  12.533   9.659   0.809 -0.2505  0.6003 -0.6162
38512SOL    HW225467  12.593   9.622   0.943 -1.0931 -1.4704 -0.7553
38513SOL     OW25468   6.325   3.579   2.187  0.3074 -0.2859 -0.0218
38513SOL    HW125469   6.311   3.663   2.143 -1.0265 -0.7588 -0.5340
38513SOL    HW225470   6.408   3.547   2.152 -0.5796 -0.5186 -2.0101
38514SOL     OW25471  10.374   6.692   2.486  0.0345 -0.0828 -0.4099
38514SOL    HW125472  10.373   6.599   2.463 -0.7783 -0.0212 -0.6747
38514SOL    HW225473  10.399   6.693   2.579  2.4665 -0.3784 -1.0044
38515SOL     OW25474   7.060   0.736   0.483 -0.2797  0.6616  0.1577
38515SOL    HW125475   7.141   0.750   0.434 -0.9420  3.0506 -0.3649
38515SOL    HW225476   7.000   0.696   0.420  0.0292  0.2368  0.1288
38516SOL     OW25477  10.257   5.135  11.068  0.6447  0.1704  0.7218
38516SOL    HW125478  10.250   5.141  11.163 -1.3498  0.8580  0.5849
38516SOL    HW225479  10.204   5.059  11.045  0.7806  0.2497  0.1294
38517SOL     OW25480   5.193   6.368   0.776  0.0139 -0.1365 -0.4096
38517SOL    HW125481   5.209   6.307   0.704 -0.3493 -0.6214 -0.0870
38517SOL    HW225482   5.166   6.312   0.849 -0.9636  0.4722 -0.2892
38518SOL     OW25483   4.995   9.205  12.871  0.0336  0.8507  0.4070
38518SOL    HW125484   4.905   9.238  12.867  0.2941  1.5025 -1.8170
38518SOL    HW225485   5.000   9.159  12.954 -2.8953 -0.7756 -0.1741
38519SOL     OW25486  10.028  10.561  12.042  0.3304 -0.3211  0.3128
38519SOL    HW125487  10.039  10.568  11.947  0.0032  0.1287  0.3052
38519SOL    HW225488   9.957  10.497  12.054 -0.7406  0.8143  0.1978
38520SOL     OW25489   5.324   0.042  11.433 -0.4452 -0.2193  0.1749
38520SOL    HW125490   5.396   0.070  11.376 -0.5043 -0.5248 -0.0506
38520SOL    HW225491   5.352   0.067  11.521  1.4096 -3.2037  0.5667
38521SOL     OW25492   2.321   9.593  11.011  0.2582 -0.2904 -0.2025
38521SOL    HW125493   2.284   9.657  11.072 -1.6512 -0.9145 -0.6559
38521SOL    HW225494   2.357   9.525  11.068  0.7110  0.3146  0.2511
38522SOL     OW25495   5.004  12.636   6.908 -0.3954 -0.7095  0.5074
38522SOL    HW125496   4.976  12.550   6.942 -0.7651 -0.2856  1.3190
38522SOL    HW225497   4.939  12.697   6.943 -0.9100 -0.2525 -1.1577
38523SOL     OW25498   5.772  13.222   3.023 -0.5360 -0.4760  0.2448
38523SOL    HW125499   5.831  13.183   3.087  1.2348 -0.3400 -1.2332
38523SOL    HW225500   5.811  13.201   2.938 -1.8461  0.8500 -0.7420
38524SOL     OW25501   3.352   9.603   0.903  0.5077  0.0186  0.0484
38524SOL    HW125502   3.395   9.553   0.833  1.2418 -0.2169  0.6581
38524SOL    HW225503   3.418   9.610   0.972 -0.4057 -0.2910  0.9772
38525SOL     OW25504   5.440  11.007  13.310  0.3761  0.0564  0.4121
38525SOL    HW125505   5.362  10.998  13.256  0.8062 -1.4146 -0.0118
38525SOL    HW225506   5.493  11.072  13.265 -1.1125  2.0777  1.3913
38526SOL     OW25507   3.456  10.316  12.690 -0.2350  0.1899 -0.2152
38526SOL    HW125508   3.413  10.367  12.759  0.2896 -0.6493  0.7406
38526SOL    HW225509   3.517  10.378  12.650 -0.3185  0.5955  0.2689
38527SOL     OW25510   5.933   7.488  10.150  0.1331 -0.7141  0.9249
38527SOL    HW125511   5.986   7.566  10.168  1.5263 -2.0921  3.4344
38527SOL    HW225512   5.853   7.502  10.202 -0.1530 -0.4521  0.4203
38528SOL     OW25513  11.580   6.705  10.334 -0.4116  0.2304 -0.3917
38528SOL    HW125514  11.548   6.765  10.401  1.3173 -0.6362  1.2940
38528SOL    HW225515  11.665   6.739  10.309  0.0537 -0.8248 -0.2980
38529SOL     OW25516   1.678   8.121   0.150 -0.3882  0.8244  0.3034
38529SOL    HW125517   1.641   8.108   0.063  1.2853  0.8592 -0.4367
38529SOL    HW225518   1.767   8.153   0.135  0.3100 -0.1522  2.0013
38530SOL     OW25519   0.832  10.222  10.553 -0.3166 -0.0003 -0.4623
38530SOL    HW125520   0.762  10.197  10.614 -0.2755  0.4583 -0.2281
38530SOL    HW225521   0.871  10.300  10.591  0.3683 -0.2867 -0.5653
38531SOL     OW25522   3.889   1.478   3.122  0.1471  0.0088  0.3021
38531SOL    HW125523   3.911   1.393   3.083  0.1846  0.5277 -0.8530
38531SOL    HW225524   3.849   1.456   3.206  0.3403 -1.1421  0.1136
38532SOL     OW25525   8.591  10.922   2.338 -0.3281 -0.4660  0.5395
38532SOL    HW125526   8.581  10.865   2.415 -0.1819 -1.5752 -0.2402
38532SOL    HW225527   8.645  10.871   2.278  0.4942  0.8392  0.1302
38533SOL     OW25528   0.739   3.015   8.273 -0.1105 -0.3927  0.5633
38533SOL    HW125529   0.662   3.015   8.330 -1.3761 -0.1494 -1.0742
38533SOL    HW225530   0.717   2.954   8.203  1.0151  0.0083 -0.1642
38534SOL     OW25531   5.628  11.172  12.419 -0.1899 -0.2129 -0.2255
38534SOL    HW125532   5.603  11.081  12.402  0.7810 -1.0162  2.1481
38534SOL    HW225533   5.719  11.178  12.391 -0.4535  0.2271 -0.9923
38535SOL     OW25534   6.747   6.575   5.535  0.1282  0.1769 -0.5715
38535SOL    HW125535   6.830   6.578   5.487  0.6296 -1.0680  0.1767
38535SOL    HW225536   6.686   6.532   5.474  0.6498 -1.0132 -0.2838
38536SOL     OW25537   4.872   5.562   4.259  0.3048  0.4302 -0.2868
38536SOL    HW125538   4.839   5.636   4.207  1.6412  1.5204  0.3547
38536SOL    HW225539   4.923   5.603   4.329 -0.8655 -1.0160  1.5193
38537SOL     OW25540   0.776   4.150   9.792  0.1146 -0.7279  0.7936
38537SOL    HW125541   0.805   4.216   9.729 -1.2346 -0.5219  0.3756
38537SOL    HW225542   0.712   4.098   9.744  0.9205 -2.1738  1.2116
38538SOL     OW25543  13.112  11.307  12.334  0.3171 -0.2991 -0.3723
38538SOL    HW125544  13.114  11.375  12.267  2.3477  0.2367  0.1512
38538SOL    HW225545  13.204  11.283  12.346  0.0743 -0.2715  2.2858
38539SOL     OW25546   9.525   7.713   0.238 -0.0406 -0.0959 -0.1846
38539SOL    HW125547   9.594   7.705   0.172  0.0842 -1.3895  0.0698
38539SOL    HW225548   9.498   7.623   0.254 -2.1196  0.4085 -0.5961
38540SOL     OW25549   2.920   9.731  11.077 -0.7293 -0.2123 -0.5501
38540SOL    HW125550   2.927   9.763  10.987  1.4693 -0.0398 -0.3781
38540SOL    HW225551   2.991   9.775  11.124  0.1929 -2.6608  0.5145
38541SOL     OW25552   1.238   7.382  11.968 -0.0566 -0.4164  0.0902
38541SOL    HW125553   1.311   7.422  11.920 -0.4000 -0.0723 -0.1558
38541SOL    HW225554   1.191   7.331  11.902  0.2686 -1.0731  0.3645
38542SOL     OW25555   2.010   6.459   8.941 -0.0855  0.1674 -0.6395
38542SOL    HW125556   1.938   6.396   8.939  1.5722 -1.9212  0.6339
38542SOL    HW225557   2.063   6.437   8.865 -0.0958  0.8335 -0.8481
38543SOL     OW25558   7.714  11.105   0.090 -0.5627 -0.1723  0.4941
38543SOL    HW125559   7.702  11.158   0.168 -2.6655 -0.3849  0.3770
38543SOL    HW225560   7.712  11.014   0.121 -2.1430 -0.2780  0.1514
38544SOL     OW25561  13.065   0.659   9.801  0.2946 -0.2406 -0.8116
38544SOL    HW125562  13.024   0.744   9.784 -0.5438 -0.7911 -1.6236
38544SOL    HW225563  13.109   0.671   9.885 -2.7565 -0.0216  0.9157
38545SOL     OW25564  11.870   8.211   0.036 -0.1359  0.3334  0.2893
38545SOL    HW125565  11.893   8.286   0.091  1.0657  1.0054 -1.0606
38545SOL    HW225566  11.863   8.138   0.098  0.7398  1.1365  1.3878
38546SOL     OW25567   4.656  10.844   4.932  0.2580 -0.0706 -0.4517
38546SOL    HW125568   4.688  10.917   4.880 -1.1961  2.3033  1.7501
38546SOL    HW225569   4.562  10.842   4.916  0.1546 -0.8969  0.1923
38547SOL     OW25570   5.625  11.427  10.045 -0.0327 -0.0312 -0.3606
38547SOL    HW125571   5.693  11.392  10.102 -0.6894  1.0546  1.1481
38547SOL    HW225572   5.671  11.449   9.964  0.8892 -1.7623 -0.3548
38548SOL     OW25573   8.556   1.265  11.071  0.2531  0.1695  0.1936
38548SOL    HW125574   8.624   1.276  11.137  2.8477 -1.0464 -2.0485
38548SOL    HW225575   8.544   1.353  11.034  0.3509  0.4577  0.8375
38549SOL     OW25576   3.534   0.450   2.356 -0.0895  0.1865  0.6672
38549SOL    HW125577   3.606   0.512   2.345 -1.4402  1.4406 -2.3248
38549SOL    HW225578   3.567   0.368   2.321  0.3128  0.4063  0.5311
38550SOL     OW25579   4.468   2.679  11.153  0.3295  0.0011  0.2540
38550SOL    HW125580   4.452   2.597  11.200 -2.0064  0.8248  1.0582
38550SOL    HW225581   4.510   2.735  11.217 -0.6611  0.3236  0.6510
38551SOL     OW25582   5.043   7.178   0.210  0.8336  0.3149 -0.8137
38551SOL    HW125583   4.987   7.254   0.190 -0.6527 -0.4655  0.1995
38551SOL    HW225584   5.102   7.209   0.279 -1.3335 -0.0031  1.3384
38552SOL     OW25585  11.133   0.214   0.297  0.3104 -0.2562 -0.8149
38552SOL    HW125586  11.223   0.185   0.316  0.5643  0.8844 -0.1826
38552SOL    HW225587  11.079   0.140   0.323  1.0361 -0.7624 -0.7016
38553SOL     OW25588   8.143  13.221   9.154  0.2256 -0.0142  0.1614
38553SOL    HW125589   8.117  13.129   9.145  3.1816 -0.8197 -1.7857
38553SOL    HW225590   8.181  13.243   9.069  2.0558  2.1272  1.4202
38554SOL     OW25591   0.972   9.456  11.526  0.1815 -0.4739 -0.0194
38554SOL    HW125592   0.974   9.551  11.519 -0.3115 -0.4434  0.2081
38554SOL    HW225593   0.966   9.439  11.620 -4.2700 -0.5835 -0.1165
38555SOL     OW25594  10.211  10.169   9.723  0.6171 -0.3146  0.2523
38555SOL    HW125595  10.264  10.091   9.711  0.2673 -0.3350 -1.3731
38555SOL    HW225596  10.127  10.137   9.755  0.5240 -0.5992 -0.2721
38556SOL     OW25597   2.013   5.294   7.221  0.2851 -1.3443  0.0535
38556SOL    HW125598   2.058   5.316   7.139 -0.2199  0.1216  0.1301
38556SOL    HW225599   2.072   5.235   7.267  2.2451  0.6620  0.2431
38557SOL     OW25600   1.541   7.731   8.302  0.5193 -0.5226  0.0101
38557SOL    HW125601   1.589   7.809   8.274  1.2874 -0.2938  1.8304
38557SOL    HW225602   1.489   7.760   8.376 -0.0569 -1.4895 -0.0012
38558SOL     OW25603   3.231   7.491   0.591  0.6137  0.2239  0.1980
38558SOL    HW125604   3.239   7.510   0.685 -0.0398  0.9799  0.1085
38558SOL    HW225605   3.312   7.445   0.569 -0.0801 -1.7967  1.5732
38559SOL     OW25606   1.563   5.141   8.104  0.5749  0.3624  0.0504
38559SOL    HW125607   1.479   5.098   8.086  0.8240  0.8982 -2.8441
38559SOL    HW225608   1.628   5.071   8.098  0.8060  0.7052 -3.0507
38560SOL     OW25609  11.196   1.061   7.065  0.2737  0.2881  0.0192
38560SOL    HW125610  11.235   1.145   7.088  0.3585  0.3217 -0.2484
38560SOL    HW225611  11.184   1.065   6.970  0.3901 -0.0512 -0.0097
38561SOL     OW25612   1.538   1.137   0.253  0.5515  0.1239 -0.5077
38561SOL    HW125613   1.482   1.169   0.324  0.4082 -0.6807 -0.2392
38561SOL    HW225614   1.619   1.111   0.296  1.0820  1.1080 -0.8706
38562SOL     OW25615   5.938   8.904   6.036 -0.0700  0.3334 -0.3111
38562SOL    HW125616   5.966   8.940   6.120  0.6769 -0.7081 -0.0980
38562SOL    HW225617   5.975   8.816   6.033  1.6108  1.0152 -2.5547
38563SOL     OW25618  12.801  11.494   2.402  0.3071  0.1415  0.8629
38563SOL    HW125619  12.811  11.578   2.356  1.3844 -0.1256  0.5718
38563SOL    HW225620  12.765  11.518   2.487  1.4452  1.0162  1.1263
38564SOL     OW25621   7.768   6.121   3.740  0.1618 -0.5429  0.1741
38564SOL    HW125622   7.676   6.139   3.719  0.5269 -1.5665 -2.7129
38564SOL    HW225623   7.812   6.205   3.729 -0.1411 -0.4374 -0.2403
38565SOL     OW25624   0.630   5.907   1.077  0.0663  0.1955 -0.5408
38565SOL    HW125625   0.623   5.872   1.165 -0.4872 -1.2345 -1.1243
38565SOL    HW225626   0.707   5.964   1.079  0.3478 -0.2174  0.7195
38566SOL     OW25627   0.329   8.713   6.301  0.0945 -0.0776  0.0575
38566SOL    HW125628   0.272   8.638   6.319 -0.8661  0.5682 -0.2052
38566SOL    HW225629   0.346   8.751   6.388 -2.0710  1.2622 -0.0222
38567SOL     OW25630   5.704  10.689   4.341  0.1612  0.5077  0.1671
38567SOL    HW125631   5.737  10.763   4.290  0.8778 -0.4336 -0.7858
38567SOL    HW225632   5.611  10.709   4.355 -0.5371  0.0978 -2.9641
38568SOL     OW25633   2.215   1.727   6.601 -0.3982  0.2365 -0.4374
38568SOL    HW125634   2.294   1.761   6.641  0.3815 -1.6179 -0.2791
38568SOL    HW225635   2.237   1.716   6.508 -0.8024  0.6172 -0.5836
38569SOL     OW25636   3.894   6.310  11.929  0.3069 -0.2611  0.7263
38569SOL    HW125637   3.880   6.388  11.877  0.7107 -0.2775  0.5879
38569SOL    HW225638   3.884   6.339  12.020 -0.2539 -0.2041  0.6510
38570SOL     OW25639   7.797   1.113   9.613  0.5678  0.0351 -0.0610
38570SOL    HW125640   7.833   1.097   9.701 -0.3865  1.5037  0.6389
38570SOL    HW225641   7.720   1.056   9.609 -0.1285  0.9026  0.5828
38571SOL     OW25642  11.683   4.783   5.163  0.2965  0.4086  0.1544
38571SOL    HW125643  11.654   4.692   5.169  0.5487  0.3203  0.0562
38571SOL    HW225644  11.603   4.832   5.144  0.2814  0.1083 -0.6047
38572SOL     OW25645   5.239   1.422  12.880  0.0071 -0.4414  0.2596
38572SOL    HW125646   5.242   1.474  12.799  0.9066 -1.6326 -0.5002
38572SOL    HW225647   5.195   1.341  12.854  0.6496 -0.9926  0.8630
38573SOL     OW25648   8.102  12.670   9.840 -0.0045  0.0627 -0.1029
38573SOL    HW125649   8.179  12.705   9.886  2.0255 -1.9925 -1.6707
38573SOL    HW225650   8.102  12.714   9.755 -1.8087  1.4764  0.5696
38574SOL     OW25651   8.113   9.958   2.152  0.4226  0.0617  0.6706
38574SOL    HW125652   8.023   9.925   2.149  0.4274 -0.0734  1.6848
38574SOL    HW225653   8.161   9.892   2.201  0.9200  0.4702  0.7393
38575SOL     OW25654   6.694   1.474   4.383 -0.1859 -0.1819  0.0034
38575SOL    HW125655   6.773   1.499   4.431  0.1760 -0.3644 -0.4886
38575SOL    HW225656   6.721   1.399   4.330 -0.9463 -0.8852  0.5739
38576SOL     OW25657   1.029   7.581   1.996 -0.2314 -0.3577  0.2959
38576SOL    HW125658   1.118   7.608   2.020 -0.5362 -1.3211  2.8824
38576SOL    HW225659   1.037   7.545   1.908  2.0333 -0.8639  0.6633
38577SOL     OW25660   3.730   5.815   7.695  0.0956 -0.5138  0.2290
38577SOL    HW125661   3.797   5.866   7.740 -1.9882 -0.6611  3.9025
38577SOL    HW225662   3.714   5.740   7.752 -1.7770 -1.5525 -1.5319
38578SOL     OW25663   6.781  12.350   0.278  0.2016  0.4094  0.0505
38578SOL    HW125664   6.754  12.441   0.287  1.2062  0.7797 -0.5575
38578SOL    HW225665   6.700  12.303   0.257 -0.0989  1.3762 -1.0632
38579SOL     OW25666   4.428   8.393   7.267  0.1287  0.3154  0.2192
38579SOL    HW125667   4.418   8.298   7.278 -1.5820  0.4486 -0.0707
38579SOL    HW225668   4.504   8.415   7.322  0.4001 -1.1702  0.4806
38580SOL     OW25669   8.971   7.495   3.710  0.4957 -0.4328  0.0517
38580SOL    HW125670   9.039   7.449   3.660  0.5445 -1.1265  0.7394
38580SOL    HW225671   8.938   7.429   3.771 -0.1529  0.1673  0.3559
38581SOL     OW25672  13.028   4.837   0.890 -0.6721  0.2484 -0.5661
38581SOL    HW125673  13.023   4.752   0.933  0.9809  1.2262  1.7008
38581SOL    HW225674  13.048   4.816   0.798 -0.2482 -1.7976 -0.0492
38582SOL     OW25675  11.193   6.133   8.711 -0.3013  0.1910  0.1245
38582SOL    HW125676  11.130   6.089   8.768  0.4624 -0.5258  0.4329
38582SOL    HW225677  11.168   6.226   8.716 -1.6511 -0.1238 -0.1763
38583SOL     OW25678   5.353  11.840   3.159  0.2135  0.1857 -0.8873
38583SOL    HW125679   5.362  11.905   3.229  0.7302  0.0762 -0.8484
38583SOL    HW225680   5.308  11.766   3.200  4.0169 -1.6074  0.5285
38584SOL     OW25681   0.282   6.877   8.610 -0.7736  0.2450  0.1723
38584SOL    HW125682   0.300   6.795   8.564 -1.0974 -0.4533  1.2734
38584SOL    HW225683   0.201   6.910   8.570 -0.8847 -0.1984  0.0294
38585SOL     OW25684   8.430  10.342   5.033  0.0611 -0.2428 -0.2588
38585SOL    HW125685   8.407  10.268   5.089 -1.3740 -0.4108 -1.0359
38585SOL    HW225686   8.466  10.302   4.954  1.1916 -0.0346  0.1406
38586SOL     OW25687   5.598   5.673  12.263  0.1379  0.0936 -0.0258
38586SOL    HW125688   5.521   5.632  12.303  0.9080 -0.5119  0.8833
38586SOL    HW225689   5.580   5.671  12.169 -0.1520 -1.7658  0.0314
38587SOL     OW25690  10.392  10.969  11.058  0.2137 -0.0713 -0.3090
38587SOL    HW125691  10.464  10.910  11.077  0.7357  0.0707 -1.7321
38587SOL    HW225692  10.421  11.019  10.982 -0.7608  1.0795  0.0409
38588SOL     OW25693   6.992   9.413   1.857  0.2980 -0.3565  0.0379
38588SOL    HW125694   7.053   9.341   1.844 -0.7449 -0.8317 -2.8501
38588SOL    HW225695   6.914   9.372   1.894  0.8615 -0.1065  1.5804
38589SOL     OW25696   5.004   6.005  11.840  0.1335  0.2774 -0.0831
38589SOL    HW125697   4.922   6.049  11.860 -0.3952 -0.9043  0.4332
38589SOL    HW225698   4.995   5.918  11.879  1.7737  0.2412  0.3167
38590SOL     OW25699   8.742   8.232   2.893 -0.0844  0.1529  0.6275
38590SOL    HW125700   8.688   8.260   2.819 -0.1157 -0.4917  0.3936
38590SOL    HW225701   8.822   8.199   2.852  1.3465  2.8670  1.0631
38591SOL     OW25702   7.389   9.649   8.254  0.2410 -0.0074 -0.3569
38591SOL    HW125703   7.300   9.683   8.250 -0.2797 -1.4259 -1.8751
38591SOL    HW225704   7.422   9.658   8.164  1.7309  0.6968  0.2157
38592SOL     OW25705   9.367  12.343   0.552  0.2471 -0.2962  0.3909
38592SOL    HW125706   9.345  12.396   0.629 -0.0431  1.3643 -0.7682
38592SOL    HW225707   9.373  12.253   0.585  1.0796  0.4695  2.5259
38593SOL     OW25708   5.544  12.491   3.576  0.2824 -0.1503 -0.1767
38593SOL    HW125709   5.510  12.572   3.615  1.5598  0.3610 -0.0931
38593SOL    HW225710   5.495  12.422   3.619  0.3153  0.4979  0.9412
38594SOL     OW25711  12.656   4.304  12.718 -0.4252  0.2906  0.6486
38594SOL    HW125712  12.591   4.242  12.686  0.4103 -0.5282  0.5161
38594SOL    HW225713  12.700   4.258  12.789  0.5626  0.5165  0.1993
38595SOL     OW25714   5.437   5.324  12.072  0.3688  0.3835  0.2469
38595SOL    HW125715   5.355   5.337  12.024  0.0537 -0.2345  0.5999
38595SOL    HW225716   5.459   5.410  12.106 -0.6511  0.3894  0.9502
38596SOL     OW25717   1.456   9.439  12.592  0.4652 -0.2095 -0.0549
38596SOL    HW125718   1.460   9.353  12.634  1.2586 -0.9006 -1.4227
38596SOL    HW225719   1.363   9.457  12.582  0.2688 -0.1730  1.6452
38597SOL     OW25720   1.741   6.725  11.460 -0.0753 -0.0707  0.2159
38597SOL    HW125721   1.724   6.684  11.375  0.0319 -3.8168  1.8188
38597SOL    HW225722   1.750   6.652  11.521  0.9581  2.4018  3.3100
38598SOL     OW25723   3.908  11.960   2.452 -0.4889  0.0199 -0.1344
38598SOL    HW125724   3.881  12.041   2.495 -0.4488  0.5497 -1.0872
38598SOL    HW225725   3.830  11.932   2.403 -0.3187 -0.1919 -0.2856
38599SOL     OW25726  10.655   4.422   6.411 -0.3582 -0.1362 -0.0409
38599SOL    HW125727  10.571   4.409   6.366 -0.0724 -2.2933 -0.0915
38599SOL    HW225728  10.712   4.461   6.345 -0.8059 -0.3963 -0.5940
38600SOL     OW25729  13.014   5.067   1.016  0.0579  0.5168  0.2628
38600SOL    HW125730  13.006   4.975   0.990 -1.3427  0.2996  1.3695
38600SOL    HW225731  12.965   5.115   0.950  0.2334  0.4016  0.0482
38601SOL     OW25732  12.521   6.434   9.222 -0.2395  0.3683  0.9044
38601SOL    HW125733  12.548   6.392   9.304 -0.7879 -0.8685  0.4659
38601SOL    HW225734  12.580   6.397   9.156  0.8446  2.0778  0.8623
38602SOL     OW25735   2.157   1.340   6.343 -0.0215  0.0428 -0.4231
38602SOL    HW125736   2.086   1.399   6.370  1.2677  1.3352  0.2905
38602SOL    HW225737   2.236   1.382   6.377  1.0539 -1.5495 -0.8908
38603SOL     OW25738   3.569  12.523  10.798 -0.5153  0.8257  0.0706
38603SOL    HW125739   3.506  12.451  10.801 -1.1287  1.3085 -0.7551
38603SOL    HW225740   3.550  12.567  10.716  0.4245  1.4228  0.1646
38604SOL     OW25741   5.501   2.379   5.562 -0.9441  0.3013  0.3579
38604SOL    HW125742   5.594   2.401   5.568 -0.3756 -1.8480  0.1512
38604SOL    HW225743   5.474   2.412   5.476 -0.3496  0.7961  0.3522
38605SOL     OW25744  12.104  11.237   1.580 -0.2451  0.0808 -0.0608
38605SOL    HW125745  12.094  11.323   1.619  0.6570 -0.2406  0.9126
38605SOL    HW225746  12.149  11.185   1.646  1.4857 -0.4460 -1.5673
38606SOL     OW25747   7.871   0.997   4.644 -0.3765  0.8238  0.1832
38606SOL    HW125748   7.785   1.021   4.679 -0.7281  1.5415 -1.0881
38606SOL    HW225749   7.882   1.054   4.567  0.7251 -0.0689 -0.3477
38607SOL     OW25750   4.000   3.475   7.567  0.5012  0.4152  0.0916
38607SOL    HW125751   4.052   3.426   7.504 -0.0838 -0.3140  0.1644
38607SOL    HW225752   3.981   3.558   7.523  2.1425  0.9235  0.2607
38608SOL     OW25753   2.759   3.352   7.037 -0.1510 -0.0785  0.0315
38608SOL    HW125754   2.849   3.377   7.015  0.0504 -1.3260 -0.6295
38608SOL    HW225755   2.706   3.392   6.968 -0.0687  0.3023  0.1838
38609SOL     OW25756  12.829   3.102   6.544 -0.1926  0.0712 -0.1813
38609SOL    HW125757  12.859   3.106   6.453  0.2500 -0.6413 -0.0743
38609SOL    HW225758  12.830   3.193   6.574 -1.0526  0.4102 -1.1123
38610SOL     OW25759   5.997   6.258  11.134 -0.1134 -0.1645 -0.9055
38610SOL    HW125760   5.912   6.257  11.178 -0.2015 -0.1757 -1.0754
38610SOL    HW225761   6.040   6.338  11.166  0.0262 -0.4371 -0.4139
38611SOL     OW25762  10.445   4.217   4.232  0.2433 -0.5523  0.1567
38611SOL    HW125763  10.386   4.237   4.305  0.8873  1.6312  0.1327
38611SOL    HW225764  10.422   4.279   4.164  0.9987 -1.2459 -0.7687
38612SOL     OW25765   8.722   7.087   4.122  0.4399 -0.1630  1.0115
38612SOL    HW125766   8.779   7.030   4.072  0.3691 -0.2135  0.9875
38612SOL    HW225767   8.774   7.113   4.198  0.3690 -0.5032  1.1790
38613SOL     OW25768   6.467   5.724   1.742  0.3801 -0.7470 -0.2324
38613SOL    HW125769   6.376   5.713   1.716  0.4449 -2.9185  0.2676
38613SOL    HW225770   6.503   5.786   1.679 -1.7658  1.3441  0.4362
38614SOL     OW25771   6.221  11.898  11.064  0.0680  0.6442  0.2868
38614SOL    HW125772   6.296  11.860  11.019  0.0269 -1.7942  2.0390
38614SOL    HW225773   6.191  11.969  11.007 -0.6259 -2.7542 -4.0405
38615SOL     OW25774   6.324   4.935   7.423 -0.1691  0.1992 -0.0479
38615SOL    HW125775   6.303   4.991   7.348  0.0168 -0.9858 -1.0083
38615SOL    HW225776   6.280   4.852   7.405  0.9125 -0.5285  0.5335
38616SOL     OW25777   8.675   4.731  11.862 -0.1116  0.2910  0.0856
38616SOL    HW125778   8.602   4.763  11.808 -1.4261 -0.4571  1.3414
38616SOL    HW225779   8.679   4.637  11.844 -0.0956  0.1605  0.7652
38617SOL     OW25780   0.204   7.945   6.108  0.3205 -0.0644 -0.0513
38617SOL    HW125781   0.238   7.876   6.051  1.5736  0.8607 -0.4503
38617SOL    HW225782   0.250   7.932   6.191 -0.2799 -0.3820  0.2428
38618SOL     OW25783   6.624   6.822   1.420  0.2176  0.0632 -0.2583
38618SOL    HW125784   6.685   6.863   1.359 -1.6282  0.4846 -1.9238
38618SOL    HW225785   6.632   6.728   1.403 -1.6305  0.2410 -2.6534
38619SOL     OW25786   3.757  12.492   0.617  0.0554  0.0543 -0.8308
38619SOL    HW125787   3.739  12.542   0.537  1.5914  1.5487 -0.3022
38619SOL    HW225788   3.845  12.519   0.643 -0.6703  0.2165  1.7753
38620SOL     OW25789   7.173   9.623   1.697 -0.1185 -0.1728  0.1790
38620SOL    HW125790   7.150   9.571   1.773 -0.1788 -0.6266 -0.1473
38620SOL    HW225791   7.200   9.708   1.733  1.1195 -0.7988  0.7972
38621SOL     OW25792   6.426   2.467   4.010 -0.0908  1.2675 -0.0684
38621SOL    HW125793   6.402   2.559   4.000 -0.0831  1.1305 -1.4768
38621SOL    HW225794   6.509   2.458   3.963  0.1702  0.6330  0.4827
38622SOL     OW25795  12.951   3.972   3.272  0.0672 -0.3102 -0.1446
38622SOL    HW125796  12.938   3.903   3.207 -1.0253 -0.3478  0.0861
38622SOL    HW225797  12.901   4.046   3.237  0.0911 -0.0885  0.2853
38623SOL     OW25798   3.615   2.423   8.824 -0.2468 -0.3030  0.4979
38623SOL    HW125799   3.644   2.507   8.858 -1.8387  0.8827 -0.9215
38623SOL    HW225800   3.630   2.428   8.730 -0.4486 -1.5828  0.3721
38624SOL     OW25801   8.342  11.247  12.586 -0.3115  0.1018  0.2834
38624SOL    HW125802   8.371  11.336  12.604  0.6901 -0.1833  0.1340
38624SOL    HW225803   8.383  11.225  12.502  0.0602 -0.7550  0.6717
38625SOL     OW25804   3.773   4.334   8.766  0.4976  0.1171 -0.2443
38625SOL    HW125805   3.802   4.245   8.784  0.8263 -0.8643 -4.6420
38625SOL    HW225806   3.677   4.329   8.768  0.5075  0.0962  0.9822
38626SOL     OW25807   4.815  11.337   4.951 -0.6734 -0.9905  0.0008
38626SOL    HW125808   4.886  11.400   4.967 -0.7045 -1.4236  2.0773
38626SOL    HW225809   4.828  11.310   4.860  1.2784 -0.3799  0.0476
38627SOL     OW25810   9.320  12.525  10.596  0.2705  0.1190  0.3857
38627SOL    HW125811   9.251  12.468  10.561  0.9067  0.5932 -1.7956
38627SOL    HW225812   9.322  12.599  10.536  3.1824 -0.2515 -0.1224
38628SOL     OW25813   5.355  13.267   8.840  0.2100 -0.5404  0.2450
38628SOL    HW125814   5.401  13.300   8.763 -1.9610  0.0182 -0.8876
38628SOL    HW225815   5.354  13.341   8.900 -2.4850  0.7896 -1.2963
38629SOL     OW25816   2.418   0.708   6.595  0.1162 -0.0655  1.1099
38629SOL    HW125817   2.378   0.639   6.542 -1.1998  0.5221  1.2986
38629SOL    HW225818   2.361   0.784   6.581  1.0626  0.7456  1.5658
38630SOL     OW25819  10.163   6.447   1.527  0.6872 -0.1548 -0.0445
38630SOL    HW125820  10.069   6.456   1.545  1.1729  0.9513  2.2576
38630SOL    HW225821  10.186   6.526   1.478  0.6117  0.1447  0.3938
38631SOL     OW25822   4.214   5.846  12.802 -0.4590  0.4659  0.1283
38631SOL    HW125823   4.230   5.900  12.879 -0.9931  0.9655 -0.1028
38631SOL    HW225824   4.152   5.779  12.831  1.9128 -1.5150  1.0439
38632SOL     OW25825   3.435   8.107   0.679  0.0020 -0.2996 -0.2431
38632SOL    HW125826   3.516   8.104   0.730 -1.0491  0.6958  1.6070
38632SOL    HW225827   3.455   8.164   0.606  0.0153  3.1968  2.2435
38633SOL     OW25828  11.313   0.771   5.881  0.4992 -0.2498 -0.2924
38633SOL    HW125829  11.353   0.848   5.922 -0.4684 -0.0608  0.3286
38633SOL    HW225830  11.246   0.806   5.823 -0.5911 -0.6276  0.6974
38634SOL     OW25831   7.091  10.322   9.897 -0.0997 -0.0935  0.3715
38634SOL    HW125832   7.094  10.312   9.992  0.9511 -2.1456  0.1787
38634SOL    HW225833   7.013  10.375   9.880 -1.6145 -1.6075  2.2408
38635SOL     OW25834  10.552   9.928   3.962 -0.0581  0.4976 -0.2619
38635SOL    HW125835  10.518   9.855   4.013 -0.3920  1.2595  0.6366
38635SOL    HW225836  10.476   9.984   3.947  0.3565  1.0798 -0.2157
38636SOL     OW25837   1.745   9.491   7.939  0.3684 -0.0801  0.3589
38636SOL    HW125838   1.737   9.586   7.945 -2.5642 -0.1765 -0.5108
38636SOL    HW225839   1.734   9.460   8.029  0.4465  0.3726  0.5238
38637SOL     OW25840  12.416   3.064   9.342 -0.0848  0.1906  0.1035
38637SOL    HW125841  12.459   3.119   9.408 -0.0082  1.4148 -0.9199
38637SOL    HW225842  12.446   2.975   9.362  2.1718  0.8686  0.0225
38638SOL     OW25843   1.061  11.270   3.474  0.0885  0.2238  0.8643
38638SOL    HW125844   1.148  11.302   3.450 -0.2438  0.8238  0.4072
38638SOL    HW225845   1.026  11.337   3.532 -1.0832  1.3741 -1.0440
38639SOL     OW25846  11.886   1.249  12.039  0.2994 -0.1608  0.9523
38639SOL    HW125847  11.824   1.177  12.050  1.2083 -0.9010  1.3937
38639SOL    HW225848  11.882   1.270  11.946 -1.4587  0.6143  1.1631
38640SOL     OW25849  12.764  11.163  13.139  0.2041  0.6341  0.4496
38640SOL    HW125850  12.749  11.245  13.186  0.0498  0.0015  1.5456
38640SOL    HW225851  12.690  11.157  13.078  0.9795  1.9954 -0.6840
38641SOL     OW25852   5.570   5.866   0.218  0.6512 -0.1594 -0.3040
38641SOL    HW125853   5.497   5.881   0.278  0.3131 -0.5970 -0.5975
38641SOL    HW225854   5.617   5.949   0.217  0.2211  0.0950 -0.0254
38642SOL     OW25855   5.897   3.480   4.445  0.9985  0.3637 -0.0050
38642SOL    HW125856   5.961   3.525   4.500  1.7054 -0.2466 -0.3261
38642SOL    HW225857   5.942   3.463   4.363  0.0580  0.9456 -0.6738
38643SOL     OW25858  10.616   3.513  11.103  0.3593  0.7233  0.0494
38643SOL    HW125859  10.679   3.581  11.078  0.5214  0.0887 -1.4125
38643SOL    HW225860  10.603   3.462  11.023 -0.5227 -0.3616  0.8442
38644SOL     OW25861   6.133  12.656  10.464  0.3268 -0.2440 -0.4061
38644SOL    HW125862   6.131  12.692  10.375  0.4363 -1.0024 -0.7225
38644SOL    HW225863   6.042  12.663  10.494  0.1555 -0.5582 -0.8232
38645SOL     OW25864   6.941   5.716   4.922  0.1631  0.8326  0.2249
38645SOL    HW125865   7.031   5.737   4.947  1.2245  0.3121 -2.8224
38645SOL    HW225866   6.939   5.620   4.917 -0.1665  0.8851 -0.9386
38646SOL     OW25867   4.191   0.367  11.028  0.5271 -0.5054 -0.5029
38646SOL    HW125868   4.167   0.286  11.074 -1.0991 -0.9914 -2.0767
38646SOL    HW225869   4.281   0.384  11.055 -0.1928 -0.9470  2.4822
38647SOL     OW25870   7.863   7.769   7.108  0.0565 -0.4084 -0.2128
38647SOL    HW125871   7.886   7.859   7.083 -1.4509  0.2757  0.7591
38647SOL    HW225872   7.869   7.768   7.203  3.2736 -2.3008 -0.2904
38648SOL     OW25873  11.661  12.123   9.758  0.3327  0.4004  0.2479
38648SOL    HW125874  11.676  12.177   9.835  0.2470 -0.2589  0.7342
38648SOL    HW225875  11.585  12.163   9.715  0.6332  1.0118  0.2766
38649SOL     OW25876  11.683  11.421   7.458 -0.3293  0.0542 -0.0105
38649SOL    HW125877  11.596  11.429   7.498 -0.6273  0.6389 -0.7501
38649SOL    HW225878  11.665  11.389   7.369  0.3376 -1.4763  0.3885
38650SOL     OW25879  11.933  11.687   1.949 -0.0280 -0.0875  0.3938
38650SOL    HW125880  11.928  11.736   2.031 -1.1481  2.2439 -0.9409
38650SOL    HW225881  12.021  11.707   1.915 -0.3712  0.8481 -0.0001
38651SOL     OW25882   0.793  11.789  12.134  0.3754 -0.0905  0.0037
38651SOL    HW125883   0.703  11.759  12.126 -0.0503  1.1117  0.0538
38651SOL    HW225884   0.835  11.725  12.192 -0.4332 -0.6805 -0.0545
38652SOL     OW25885   2.353   5.134  11.415  0.4428 -0.0723  0.7104
38652SOL    HW125886   2.305   5.080  11.478 -0.4087 -1.4499 -1.0266
38652SOL    HW225887   2.429   5.081  11.391  0.7100  0.3930  0.5233
38653SOL     OW25888  10.176   2.330   8.845  0.2592  0.0947  1.1063
38653SOL    HW125889  10.120   2.271   8.795  0.9612 -0.6759  1.2116
38653SOL    HW225890  10.115   2.378   8.902 -0.6020  1.2782 -0.7289
38654SOL     OW25891   4.807   8.065   4.377 -0.2117  0.0404  0.2920
38654SOL    HW125892   4.767   7.988   4.417 -1.9190 -0.2091 -1.7269
38654SOL    HW225893   4.756   8.139   4.412  0.8804  0.2216  1.5747
38655SOL     OW25894  11.008   0.974   7.332  0.4240  0.5237 -0.0129
38655SOL    HW125895  11.053   0.897   7.367 -1.6436 -0.5537  0.4187
38655SOL    HW225896  11.003   1.034   7.407  0.2685  0.2413  0.2036
38656SOL     OW25897   2.148   2.376   6.539 -0.1480 -0.0752 -0.3446
38656SOL    HW125898   2.221   2.423   6.581  0.8919  0.5473 -2.6717
38656SOL    HW225899   2.165   2.284   6.559  1.4784  0.0282 -1.0355
38657SOL     OW25900  11.693   5.810  13.090  0.2620 -0.0734  0.3583
38657SOL    HW125901  11.692   5.899  13.054 -0.1340 -0.1061  0.2856
38657SOL    HW225902  11.682   5.823  13.184  0.5445 -0.0300  0.3875
38658SOL     OW25903   7.323   7.673   5.201 -0.0724  0.2084 -0.3210
38658SOL    HW125904   7.337   7.733   5.274  1.5844  2.9267 -2.6847
38658SOL    HW225905   7.233   7.688   5.174 -1.0525 -1.5797  1.6739
38659SOL     OW25906  12.654   8.194   2.025 -0.1709  0.1598  0.5119
38659SOL    HW125907  12.569   8.158   2.000  0.4832 -0.4212 -1.0449
38659SOL    HW225908  12.689   8.228   1.943 -0.2014  3.2687  1.6603
38660SOL     OW25909   3.544   3.157   7.051  0.1958  0.5461  0.2468
38660SOL    HW125910   3.500   3.101   7.114 -0.6776  0.1077 -0.7345
38660SOL    HW225911   3.474   3.210   7.011  0.7600  1.0021 -0.1708
38661SOL     OW25912  12.166  10.687  11.689  0.2856 -0.1569  0.2365
38661SOL    HW125913  12.184  10.639  11.770  1.3672 -0.0108  0.0951
38661SOL    HW225914  12.183  10.778  11.711  0.0440 -0.0515 -0.0096
38662SOL     OW25915   5.668   7.279  10.806 -0.1885 -0.4767 -0.1086
38662SOL    HW125916   5.658   7.374  10.802 -0.5824 -0.4590  0.9759
38662SOL    HW225917   5.626   7.254  10.888 -2.3772 -1.8823 -1.5484
38663SOL     OW25918   9.313   1.436  12.907 -0.0526 -0.1130  0.4860
38663SOL    HW125919   9.356   1.479  12.981 -0.3059  0.8181  0.1152
38663SOL    HW225920   9.231   1.403  12.944 -0.4894  0.9370  0.4865
38664SOL     OW25921   4.089  11.715   1.275 -0.4072 -0.0488  0.4202
38664SOL    HW125922   4.180  11.708   1.303  0.2303  0.8767 -1.2462
38664SOL    HW225923   4.039  11.676   1.346  1.2325  0.0275  1.6901
38665SOL     OW25924   2.053   6.646  10.886 -0.7180  0.5373 -0.4058
38665SOL    HW125925   1.974   6.593  10.887 -1.9461  2.2830 -0.5939
38665SOL    HW225926   2.054   6.688  10.972  0.1333  0.3706 -0.3249
38666SOL     OW25927   3.713   0.286   8.746 -0.5799 -0.0936  0.0676
38666SOL    HW125928   3.784   0.351   8.740 -0.2146 -0.5684 -0.9710
38666SOL    HW225929   3.698   0.276   8.840  0.5541  0.2196  0.3035
38667SOL     OW25930   2.776  11.650   8.411 -0.7905 -0.6820 -0.7238
38667SOL    HW125931   2.839  11.666   8.341  0.6762 -2.2112  0.1871
38667SOL    HW225932   2.729  11.571   8.384 -0.3551 -1.1646 -0.0860
38668SOL     OW25933  11.237  13.031   6.945 -0.4598  0.2396 -0.1122
38668SOL    HW125934  11.182  13.026   6.867 -0.8610 -0.1501  0.1876
38668SOL    HW225935  11.247  13.124   6.961 -1.0070  0.3169 -0.1938
38669SOL     OW25936   0.518   9.949  10.915 -0.0509  0.2758 -0.6735
38669SOL    HW125937   0.609   9.927  10.897 -0.0866  1.4743 -2.5625
38669SOL    HW225938   0.522  10.031  10.964 -0.1099  0.5151 -1.0651
38670SOL     OW25939   2.521   0.260   5.849 -0.1292 -0.5529 -0.1387
38670SOL    HW125940   2.595   0.251   5.788  1.0738 -0.2434  1.2022
38670SOL    HW225941   2.536   0.344   5.892 -1.7690 -0.0806 -0.4244
38671SOL     OW25942   3.238  11.525   8.870  0.0592 -0.0217  0.0532
38671SOL    HW125943   3.215  11.608   8.911 -0.2114 -0.0870  0.0347
38671SOL    HW225944   3.251  11.546   8.778 -1.6475 -0.2837 -0.2805
38672SOL     OW25945   7.069  12.282   5.776 -0.5878 -0.0613 -0.2542
38672SOL    HW125946   7.069  12.348   5.707  1.2599 -0.2336 -0.4689
38672SOL    HW225947   7.120  12.322   5.847 -1.6246 -0.2761  0.6435
38673SOL     OW25948   2.368  10.688   5.349  0.1536 -0.2777  0.1502
38673SOL    HW125949   2.381  10.596   5.374  0.5745 -0.7501 -1.6388
38673SOL    HW225950   2.453  10.728   5.366  0.3795 -0.5443 -0.3350
38674SOL     OW25951   8.215   6.373   5.130  0.2435  0.5376 -0.5967
38674SOL    HW125952   8.207   6.404   5.220  0.5122  0.8711 -0.6834
38674SOL    HW225953   8.159   6.296   5.125  1.3772 -0.3641  0.2601
38675SOL     OW25954  12.059   1.873   7.035 -0.7357 -0.0694 -0.1516
38675SOL    HW125955  12.064   1.940   6.967  0.5942  1.0216  0.9343
38675SOL    HW225956  11.971   1.838   7.029 -0.5230 -0.3227 -2.6851
38676SOL     OW25957  10.236   1.508   2.139  0.2748  0.3685  0.2492
38676SOL    HW125958  10.170   1.557   2.091  0.3089  0.1075 -0.0666
38676SOL    HW225959  10.190   1.432   2.173  0.3836  0.2535  0.1384
38677SOL     OW25960  13.200   4.801   4.520 -0.0148  0.0900 -0.2885
38677SOL    HW125961  13.279   4.747   4.521  0.6454  0.9880 -1.0320
38677SOL    HW225962  13.138   4.755   4.576  0.0731 -2.0911 -1.8393
38678SOL     OW25963   6.143   3.766   6.131 -0.1845 -0.3923  0.0314
38678SOL    HW125964   6.105   3.692   6.177 -0.1767 -0.1083  0.4961
38678SOL    HW225965   6.103   3.843   6.171 -0.2237 -0.1413 -0.4731
38679SOL     OW25966   3.024   4.771  10.685 -0.3587  0.0291  0.2893
38679SOL    HW125967   2.941   4.817  10.680 -0.1863  0.4658  1.2671
38679SOL    HW225968   3.084   4.832  10.728 -0.6356 -1.7516  3.4854
38680SOL     OW25969  13.164  10.621   7.918  0.0116  0.7986 -0.3832
38680SOL    HW125970  13.087  10.624   7.974  0.0480  0.5069 -0.3130
38680SOL    HW225971  13.221  10.557   7.960  1.8761  3.5308  1.5616
38681SOL     OW25972   7.158   6.051   3.407  0.4467 -0.5036  0.9092
38681SOL    HW125973   7.150   6.145   3.417 -0.3460 -0.1983 -1.6909
38681SOL    HW225974   7.099   6.014   3.472  0.4017  0.7902  1.6271
38682SOL     OW25975   9.248   1.578   0.135 -0.2043 -0.1048  0.0951
38682SOL    HW125976   9.264   1.631   0.057 -2.2402  2.8108  1.4898
38682SOL    HW225977   9.322   1.598   0.193 -1.3408  2.0361  0.9273
38683SOL     OW25978   9.638  10.976   5.879 -0.4423 -0.2369  0.3922
38683SOL    HW125979   9.692  10.906   5.842 -0.0090  1.1466 -1.7980
38683SOL    HW225980   9.661  11.054   5.828 -0.9747  1.5178  2.6636
38684SOL     OW25981   9.728  12.723   3.906 -0.1710  0.0441  0.7319
38684SOL    HW125982   9.668  12.676   3.963  0.7690 -2.0231  0.1498
38684SOL    HW225983   9.677  12.743   3.828 -0.6028 -0.0345  0.9960
38685SOL     OW25984   8.416   8.245   5.634  0.2506  0.2145  0.4828
38685SOL    HW125985   8.438   8.238   5.542 -0.4389 -0.1999  0.3444
38685SOL    HW225986   8.365   8.326   5.640  1.0482  0.7176  0.6605
38686SOL     OW25987   7.284   7.871   7.176 -0.7083 -0.0682  0.2534
38686SOL    HW125988   7.260   7.784   7.146 -0.0665  0.2569 -1.3229
38686SOL    HW225989   7.354   7.857   7.239 -1.8018 -0.7550  1.3634
38687SOL     OW25990  11.080   9.287   6.007  0.1567 -0.0656 -0.3886
38687SOL    HW125991  11.133   9.346   6.061  0.6725 -1.9684  1.2692
38687SOL    HW225992  11.062   9.338   5.928  2.8665  1.3554 -0.2162
38688SOL     OW25993  12.769   1.021   3.785  0.2145 -0.0462  0.0414
38688SOL    HW125994  12.794   0.970   3.709  0.2810 -1.1359  0.7759
38688SOL    HW225995  12.837   1.088   3.793 -0.2728  0.6459 -1.3562
38689SOL     OW25996  13.242   0.328   3.320 -0.6859 -0.8917 -0.7561
38689SOL    HW125997  13.318   0.325   3.261 -0.4495 -0.8942 -0.4564
38689SOL    HW225998  13.171   0.362   3.266 -0.1586  0.3382 -0.7118
38690SOL     OW25999   0.986   1.181   7.997  0.1386 -0.5398 -0.1566
38690SOL    HW126000   1.039   1.191   7.918  3.2056 -1.2425  1.6147
38690SOL    HW226001   0.975   1.270   8.031  0.6193 -0.4067 -0.3370
38691SOL     OW26002   4.426   9.296   1.947  0.2169 -0.1183 -0.5509
38691SOL    HW126003   4.387   9.244   2.017 -1.6243 -0.1137 -1.5230
38691SOL    HW226004   4.463   9.373   1.990  0.9975 -1.1275  0.6367
38692SOL     OW26005  10.853   3.897   4.148  0.4426 -0.4464  0.2887
38692SOL    HW126006  10.869   3.889   4.054 -1.9691 -0.6367 -0.1717
38692SOL    HW226007  10.799   3.975   4.156  0.1106 -0.7838  1.4425
38693SOL     OW26008  10.253   4.823   0.342 -0.2100  0.2714 -0.6955
38693SOL    HW126009  10.244   4.908   0.384  1.3793  0.1584 -0.0742
38693SOL    HW226010  10.199   4.764   0.395  0.6196  0.4203  0.3205
38694SOL     OW26011   2.775   9.767  11.700  0.1939 -0.2719 -0.5450
38694SOL    HW126012   2.736   9.814  11.773 -1.0826  0.7132 -1.8360
38694SOL    HW226013   2.701   9.729  11.653  0.9486 -0.3330 -1.7133
38695SOL     OW26014   3.605  10.431   2.822  0.5021  0.0621 -0.0798
38695SOL    HW126015   3.674  10.386   2.774  0.9787  0.4880  0.2030
38695SOL    HW226016   3.569  10.494   2.759  0.0541 -0.4796 -0.3731
38696SOL     OW26017   3.912   4.441   1.871  0.1606 -0.6093  0.5785
38696SOL    HW126018   3.966   4.497   1.927 -1.0976  0.0253  1.2033
38696SOL    HW226019   3.903   4.489   1.790 -0.4349 -0.1603  0.9044
38697SOL     OW26020   4.650  10.820   9.181  0.0377  0.1743  0.1737
38697SOL    HW126021   4.742  10.798   9.191 -0.4059 -1.4283  1.1348
38697SOL    HW226022   4.609  10.739   9.150 -1.1320  0.6831  0.3314
38698SOL     OW26023   3.337   7.023   8.863 -0.3615 -0.4568  0.0315
38698SOL    HW126024   3.396   6.954   8.893  1.5575  0.9420 -0.2978
38698SOL    HW226025   3.387   7.104   8.875 -1.4680  0.6293 -2.1125
38699SOL     OW26026   1.470   6.509  10.759  0.2621 -0.1105  0.1977
38699SOL    HW126027   1.481   6.601  10.784  0.1104 -0.3658  1.2677
38699SOL    HW226028   1.409   6.474  10.824 -0.1189 -0.8325 -0.5363
38700SOL     OW26029   0.551   6.742  10.949  0.0335 -0.2033 -0.5414
38700SOL    HW126030   0.511   6.669  10.996  2.8716 -1.8391 -0.4146
38700SOL    HW226031   0.534   6.819  11.003 -2.0879 -0.9208 -0.1138
38701SOL     OW26032   8.645   3.547   7.182  0.0222  0.1490 -0.2646
38701SOL    HW126033   8.580   3.479   7.165  0.2127 -0.2950  0.6795
38701SOL    HW226034   8.655   3.547   7.277  0.0476  1.4917 -0.2478
38702SOL     OW26035   0.695  11.328   0.701 -0.4989  0.1600 -0.0372
38702SOL    HW126036   0.717  11.284   0.783 -1.3168  0.2453  0.2345
38702SOL    HW226037   0.599  11.330   0.699 -0.4828  0.8075 -0.6465
38703SOL     OW26038  11.551  10.738   0.125  0.1986 -0.1278  0.3444
38703SOL    HW126039  11.606  10.815   0.141  1.6674 -0.6211 -1.8907
38703SOL    HW226040  11.555  10.725   0.030  0.0434 -2.9843  0.6601
38704SOL     OW26041  12.539   9.244  11.417 -0.0488  0.1401 -0.1205
38704SOL    HW126042  12.510   9.185  11.347  0.6037  0.1935 -0.4405
38704SOL    HW226043  12.553   9.328  11.373 -0.6301  0.4514  0.2693
38705SOL     OW26044  13.298   3.734   8.432 -0.7400  0.0418  0.2773
38705SOL    HW126045  13.207   3.757   8.453 -1.2759 -1.0656 -0.7432
38705SOL    HW226046  13.324   3.673   8.501 -2.0758 -2.5943 -1.3904
38706SOL     OW26047   8.305   0.075   4.741  0.4951 -0.2222  0.4264
38706SOL    HW126048   8.326   0.005   4.803 -1.4941 -2.0626 -0.8249
38706SOL    HW226049   8.378   0.075   4.679 -0.1147 -2.2118 -0.3505
38707SOL     OW26050  11.572   9.400   8.008 -0.0248 -0.1398  0.7181
38707SOL    HW126051  11.575   9.305   7.993 -0.8301 -0.0679  0.0502
38707SOL    HW226052  11.661   9.430   7.990 -0.2340 -0.4879 -1.0859
38708SOL     OW26053  12.677   7.330  11.361 -0.3802  0.1066 -0.1646
38708SOL    HW126054  12.646   7.295  11.444 -2.0215  1.7940  0.0029
38708SOL    HW226055  12.719   7.413  11.384  0.0286  0.1252 -0.9262
38709SOL     OW26056   9.998   4.565  11.820  0.3472 -0.5430 -0.1564
38709SOL    HW126057  10.041   4.498  11.766  1.5808 -0.1316  0.2744
38709SOL    HW226058  10.044   4.562  11.903  0.1062  0.5075  0.0357
38710SOL     OW26059  11.377   8.926   0.309 -0.8480  0.2840  0.4676
38710SOL    HW126060  11.391   8.860   0.242  0.6392  0.6901  0.3240
38710SOL    HW226061  11.376   9.009   0.261 -0.3156  0.5320  0.8686
38711SOL     OW26062   2.064   7.642   8.200  0.0633 -0.1416  0.1225
38711SOL    HW126063   2.076   7.667   8.291 -1.0149  0.4042  0.1361
38711SOL    HW226064   2.142   7.675   8.155 -0.3554  1.4710  0.5036
38712SOL     OW26065   0.285   2.036  13.073 -0.0919 -0.3806  0.0390
38712SOL    HW126066   0.225   2.072  13.008  0.3802 -0.3005 -0.3592
38712SOL    HW226067   0.270   2.088  13.151 -0.6248 -0.4411 -0.0234
38713SOL     OW26068   9.398   1.746   2.048 -0.6001 -0.1414  0.0355
38713SOL    HW126069   9.412   1.833   2.085  1.3591 -1.3059  2.3237
38713SOL    HW226070   9.307   1.747   2.017 -0.7461  2.5639  0.3353
38714SOL     OW26071   0.105  11.008   8.335 -0.2003  0.3011  0.1753
38714SOL    HW126072   0.054  10.996   8.415 -1.0056 -1.3111 -0.5197
38714SOL    HW226073   0.189  10.966   8.354 -0.7248 -0.9179 -0.1002
38715SOL     OW26074   3.473   3.351   3.736 -0.5347  0.7564 -0.3860
38715SOL    HW126075   3.490   3.257   3.735 -0.9644  0.6516  0.6508
38715SOL    HW226076   3.482   3.376   3.828  1.1368  2.0379 -0.8431
38716SOL     OW26077   6.210   5.147  11.318  0.1400 -0.3186 -0.4771
38716SOL    HW126078   6.115   5.138  11.312 -0.2559  2.3927  0.1184
38716SOL    HW226079   6.225   5.182  11.405  1.7162 -0.7867 -0.5322
38717SOL     OW26080   5.375   8.698  13.287 -0.1118  0.0975  0.0663
38717SOL    HW126081   5.281   8.682  13.284 -0.0457 -0.4164  0.5537
38717SOL    HW226082   5.398   8.723  13.197 -0.8073  0.7996  0.0810
38718SOL     OW26083   2.793   9.402  10.558 -0.1131  0.0930  0.3571
38718SOL    HW126084   2.820   9.456  10.484 -2.0556  0.3256 -0.2475
38718SOL    HW226085   2.818   9.452  10.635  1.4649  0.0864 -0.1164
38719SOL     OW26086   6.651   0.586   7.249  0.0144 -0.1548  0.2353
38719SOL    HW126087   6.625   0.663   7.299  1.7112  1.1890 -0.8593
38719SOL    HW226088   6.652   0.515   7.314 -1.7385  0.6548  1.2323
38720SOL     OW26089   6.183  12.985  12.714 -0.0696 -0.2135  0.1393
38720SOL    HW126090   6.130  13.026  12.782 -1.1159 -0.9843 -0.1902
38720SOL    HW226091   6.125  12.982  12.638  0.5993 -0.6836 -0.3604
38721SOL     OW26092   3.664   6.967  10.226  0.3211  0.4498  0.1405
38721SOL    HW126093   3.648   6.936  10.137  0.8059 -0.4734  0.3613
38721SOL    HW226094   3.587   7.019  10.247  1.1479  2.5187 -1.5842
38722SOL     OW26095  10.244   1.647   3.105 -0.0252 -0.1576  0.4642
38722SOL    HW126096  10.288   1.726   3.073  0.7767 -0.4141  0.8878
38722SOL    HW226097  10.160   1.646   3.060 -0.4607  1.4527  1.1708
38723SOL     OW26098  12.036  10.180   1.019  0.2094 -0.3041  0.5851
38723SOL    HW126099  12.100  10.222   1.077 -0.3500  1.2910  0.0883
38723SOL    HW226100  11.965  10.243   1.012 -0.6900 -1.3725 -0.1672
38724SOL     OW26101   6.631   4.386   3.940 -0.6294 -0.0139  0.1660
38724SOL    HW126102   6.576   4.317   3.976 -1.6111  0.2904 -0.6662
38724SOL    HW226103   6.710   4.385   3.993 -1.5485 -0.2983  1.5797
38725SOL     OW26104   3.887   9.515  10.894  0.4984 -0.0343 -0.0184
38725SOL    HW126105   3.893   9.608  10.912  1.0682 -0.0793  0.0567
38725SOL    HW226106   3.900   9.508  10.799  2.5028 -0.1860  0.2283
38726SOL     OW26107  12.105  10.601   8.106  0.0952 -0.4033  0.0131
38726SOL    HW126108  12.073  10.686   8.075 -0.5196 -0.5204  0.3137
38726SOL    HW226109  12.199  10.614   8.119  0.2247 -0.1055 -1.0758
38727SOL     OW26110   2.911  10.614   9.501 -0.6729 -0.1041 -0.0241
38727SOL    HW126111   2.847  10.685   9.505 -0.0697  0.4461  0.1227
38727SOL    HW226112   2.862  10.539   9.469 -1.3035  0.4119 -0.2927
38728SOL     OW26113  10.539   1.306  12.886 -0.5274 -0.3968 -0.3399
38728SOL    HW126114  10.616   1.250  12.900 -0.2222 -0.2328 -1.2620
38728SOL    HW226115  10.473   1.248  12.848 -0.6344 -0.4031 -0.1415
38729SOL     OW26116  12.831   4.789   3.477 -0.2142  0.0409 -0.2539
38729SOL    HW126117  12.800   4.804   3.567  0.1776 -1.3409  0.1392
38729SOL    HW226118  12.751   4.783   3.425 -0.4444  0.8527 -0.0156
38730SOL     OW26119  12.613   1.543   4.431 -0.1615  0.2309 -0.4774
38730SOL    HW126120  12.557   1.467   4.419  0.0421  0.0949 -0.5632
38730SOL    HW226121  12.586   1.579   4.516 -0.3206  0.1181 -0.4801
38731SOL     OW26122   8.799  10.309   5.056  0.2157  0.1062  0.0693
38731SOL    HW126123   8.884  10.351   5.042  0.9394 -1.2701  0.1373
38731SOL    HW226124   8.771  10.338   5.142  0.7372  0.3925  0.1432
38732SOL     OW26125   5.895  10.944   0.018 -0.3916 -0.2148 -0.1482
38732SOL    HW126126   5.832  10.880   0.051  0.5327 -0.0655  2.1026
38732SOL    HW226127   5.841  11.013  -0.020 -1.5729 -0.5079  0.9091
38733SOL     OW26128  11.674   7.929  11.564  0.4170 -0.2405 -0.5170
38733SOL    HW126129  11.651   7.999  11.502  1.0947  0.3330 -0.1328
38733SOL    HW226130  11.768   7.940  11.579  0.1976 -0.1009  0.9286
38734SOL     OW26131  11.302   7.104   4.839  0.0109 -0.6062  0.3763
38734SOL    HW126132  11.333   7.066   4.756  0.7908  0.1515  0.3042
38734SOL    HW226133  11.207   7.099   4.834  0.0852 -2.3876  0.3014
38735SOL     OW26134  11.414   1.498   5.849 -0.0570  0.1222 -0.2533
38735SOL    HW126135  11.355   1.475   5.921 -0.5255  0.8226 -0.3974
38735SOL    HW226136  11.485   1.547   5.891 -0.2249  0.3558 -0.2404
38736SOL     OW26137   9.385   2.851   2.985  0.1748  0.3434  0.3740
38736SOL    HW126138   9.302   2.842   3.032 -0.1380 -0.1322 -0.2500
38736SOL    HW226139   9.362   2.901   2.906  0.5974  0.7067  0.4782
38737SOL     OW26140   0.486   5.294   0.142 -0.7547  0.6275  0.1300
38737SOL    HW126141   0.461   5.309   0.233 -1.2614  1.0203 -0.0672
38737SOL    HW226142   0.538   5.213   0.144 -1.5682  0.1016  0.6380
38738SOL     OW26143   4.701  11.694   0.305  0.3198 -0.1819  0.5350
38738SOL    HW126144   4.715  11.714   0.398 -0.1697 -2.0224  1.0601
38738SOL    HW226145   4.606  11.694   0.294  0.3655 -0.3028  0.1188
38739SOL     OW26146   9.892  11.026   5.469 -0.2402  0.1898 -0.1024
38739SOL    HW126147   9.907  10.975   5.548 -1.0696 -1.0081 -0.6943
38739SOL    HW226148   9.908  10.965   5.397 -0.8400  0.8669 -0.8337
38740SOL     OW26149   1.607   2.252   9.420  0.1555 -0.1107 -0.2640
38740SOL    HW126150   1.670   2.275   9.352 -0.9789  0.1256 -1.2760
38740SOL    HW226151   1.637   2.300   9.497  1.8432 -0.8998 -0.3928
38741SOL     OW26152   7.794   6.896   5.387 -0.3225  0.1330 -0.1496
38741SOL    HW126153   7.741   6.842   5.446 -1.2612  1.5980  0.3965
38741SOL    HW226154   7.761   6.876   5.300 -0.3589 -0.4918  0.0046
38742SOL     OW26155  12.190   0.884   5.971 -0.0629 -0.4048 -0.5117
38742SOL    HW126156  12.158   0.813   5.916  0.2277 -0.4170 -0.6664
38742SOL    HW226157  12.119   0.899   6.034 -0.4676 -0.2780 -0.9871
38743SOL     OW26158   9.356  10.117  13.069 -0.4220  0.3096 -0.7571
38743SOL    HW126159   9.399  10.043  13.025 -1.4978  0.6434 -2.4632
38743SOL    HW226160   9.398  10.194  13.031 -0.8456  0.5963 -0.6363
38744SOL     OW26161   0.554  13.072   7.431 -0.3318 -0.4309  0.1638
38744SOL    HW126162   0.525  13.002   7.373  0.6026 -0.8567  0.1896
38744SOL    HW226163   0.495  13.145   7.412 -0.0201 -0.5400 -1.3533
38745SOL     OW26164   3.187   0.063   7.614  0.0994 -0.5995  0.1069
38745SOL    HW126165   3.104   0.097   7.647 -0.6984 -1.7081 -0.7046
38745SOL    HW226166   3.239   0.046   7.693 -0.5131 -0.0903  0.6315
38746SOL     OW26167   2.735   0.301   6.453 -0.6990 -0.2236 -0.3336
38746SOL    HW126168   2.687   0.319   6.533  0.9467 -1.3549  0.9797
38746SOL    HW226169   2.776   0.385   6.430  0.1361 -0.2420  0.9717
38747SOL     OW26170   7.835  13.123   7.798 -0.3592  0.1488  0.3779
38747SOL    HW126171   7.931  13.130   7.792 -0.2039  0.9008  2.6626
38747SOL    HW226172   7.808  13.093   7.711  1.9054  0.2708 -0.4519
38748SOL     OW26173  11.895  11.574   8.154 -0.6076  0.1887  0.0215
38748SOL    HW126174  11.808  11.588   8.192  0.1459  0.7910  1.6350
38748SOL    HW226175  11.945  11.651   8.180  1.3399 -1.6032  2.0656
38749SOL     OW26176   3.647   5.098  11.862  0.2667 -0.4766 -0.4446
38749SOL    HW126177   3.703   5.139  11.928 -0.7106  1.4747 -0.7411
38749SOL    HW226178   3.651   5.157  11.787 -1.6691 -0.5919 -0.6943
38750SOL     OW26179   5.640   0.761   9.055  0.8060  0.0049 -0.2521
38750SOL    HW126180   5.639   0.814   8.975  0.5814  0.7807  0.2551
38750SOL    HW226181   5.719   0.790   9.102  2.4718 -2.3015 -1.3805
38751SOL     OW26182   6.313   9.649   2.665  0.3197 -0.0528  0.1865
38751SOL    HW126183   6.391   9.649   2.609 -0.6117 -1.0993 -1.1779
38751SOL    HW226184   6.326   9.576   2.725  1.0036  0.6462  0.9221
38752SOL     OW26185   4.439   9.580   4.404  0.2871  0.3447 -0.5437
38752SOL    HW126186   4.347   9.605   4.407  0.1844 -0.0881 -0.0224
38752SOL    HW226187   4.484   9.649   4.453  0.1955  0.3802 -0.5088
38753SOL     OW26188   8.390   3.571   3.746  0.5421  0.3487 -0.1981
38753SOL    HW126189   8.382   3.591   3.652 -0.9600 -0.5995 -0.3025
38753SOL    HW226190   8.459   3.505   3.750 -0.9240 -1.3344 -0.9614
38754SOL     OW26191  10.917   2.039   6.683  0.7599  0.0607  0.1858
38754SOL    HW126192  10.954   2.071   6.765 -0.1538  0.8251  0.3223
38754SOL    HW226193  10.843   2.097   6.666 -0.6743 -1.6806  0.1737
38755SOL     OW26194  10.949   0.563   2.250 -0.1170 -0.1356 -0.1573
38755SOL    HW126195  10.869   0.608   2.222  0.0387  0.9902  1.0807
38755SOL    HW226196  10.997   0.630   2.299  0.2232 -1.6190  1.5962
38756SOL     OW26197   1.440   6.449   7.134 -0.4536  0.0143 -0.0255
38756SOL    HW126198   1.498   6.502   7.079  1.2622 -0.0524  1.5784
38756SOL    HW226199   1.388   6.399   7.073  1.7627 -0.4992 -1.6284
38757SOL     OW26200   0.222   3.873   5.063  0.2336  0.1307  0.2763
38757SOL    HW126201   0.231   3.941   4.996  1.2843 -0.8570 -0.6219
38757SOL    HW226202   0.310   3.837   5.074 -0.1743 -0.6282  1.2167
38758SOL     OW26203  11.121   3.589   8.293  0.6772  0.2283  0.2135
38758SOL    HW126204  11.085   3.537   8.365 -0.2789  2.6369  1.5799
38758SOL    HW226205  11.076   3.673   8.299  1.8046  1.1014 -2.1959
38759SOL     OW26206   4.758   6.616   8.317  0.8194 -0.5338  0.0280
38759SOL    HW126207   4.760   6.679   8.245  1.6760 -0.8876 -0.2751
38759SOL    HW226208   4.812   6.543   8.285  0.2763 -1.1799  0.5834
38760SOL     OW26209   2.312  12.441  11.652 -0.5799  0.1890 -0.0955
38760SOL    HW126210   2.298  12.535  11.644 -0.5161  0.0692 -2.1760
38760SOL    HW226211   2.399  12.432  11.690 -0.5301  0.9616 -0.0244
38761SOL     OW26212   3.112   3.789   2.756  0.9819 -0.2428 -0.0586
38761SOL    HW126213   3.052   3.850   2.713 -0.0695  0.7693  2.6224
38761SOL    HW226214   3.142   3.731   2.686 -1.3556  0.6511 -1.9246
38762SOL     OW26215   6.852   1.236  12.269  0.1178  0.1993  0.0756
38762SOL    HW126216   6.903   1.155  12.279  1.7233  1.3384  1.8648
38762SOL    HW226217   6.846   1.249  12.175 -0.0792 -1.9148 -0.2514
38763SOL     OW26218  12.398   5.563   3.748  0.4140 -0.2063 -0.2643
38763SOL    HW126219  12.334   5.492   3.750  1.5685 -1.2610 -0.4030
38763SOL    HW226220  12.349   5.639   3.780 -0.8398 -1.0417 -0.1233
38764SOL     OW26221   4.533   2.795  10.190  0.1082  0.0185  0.0767
38764SOL    HW126222   4.513   2.806  10.097  1.3618 -0.1201 -0.2215
38764SOL    HW226223   4.527   2.883  10.226  1.1607  0.3360 -0.4690
38765SOL     OW26224  11.785  12.966   8.078 -0.6537 -0.1076  0.0890
38765SOL    HW126225  11.771  12.875   8.051 -0.1691 -0.0175 -0.4918
38765SOL    HW226226  11.879  12.971   8.095 -0.8815 -0.0526  1.4135
38766SOL     OW26227   8.956  10.512   3.557  0.7398 -0.3248  0.3003
38766SOL    HW126228   9.006  10.465   3.490  0.2764 -0.3532 -0.0283
38766SOL    HW226229   8.925  10.590   3.513 -1.5342 -1.4470 -0.2424
38767SOL     OW26230   9.778  11.974   6.744 -0.3856 -0.0282 -0.2829
38767SOL    HW126231   9.861  11.986   6.698  0.3970  0.6076  1.2144
38767SOL    HW226232   9.756  12.061   6.777 -0.0522 -0.6947  1.8926
38768SOL     OW26233   6.015  12.286   2.378 -0.2493  0.3902 -0.0873
38768SOL    HW126234   5.953  12.313   2.446  0.4507  0.7456  0.4127
38768SOL    HW226235   5.959  12.259   2.305 -1.0208 -0.0636  0.6427
38769SOL     OW26236   9.431   0.743  11.812 -0.2515 -0.1710 -0.1281
38769SOL    HW126237   9.423   0.661  11.763 -1.6715  0.3410 -0.8167
38769SOL    HW226238   9.434   0.812  11.745  0.8005  0.3641  0.4453
38770SOL     OW26239  10.792   1.794   5.596 -0.2607  0.5482 -0.1076
38770SOL    HW126240  10.742   1.806   5.677  0.9458  2.1031  0.4539
38770SOL    HW226241  10.727   1.763   5.533 -1.6915  1.3729  0.8849
38771SOL     OW26242   0.095  10.045  12.039  0.9864  0.1435 -0.0916
38771SOL    HW126243   0.056  10.055  12.125  1.1208 -2.0713  0.2793
38771SOL    HW226244   0.178   9.999  12.055  0.3088 -1.6865 -1.4792
38772SOL     OW26245  11.889   8.364   5.142  0.6143 -0.5255  0.3414
38772SOL    HW126246  11.844   8.287   5.177  1.1690 -1.1342 -0.2697
38772SOL    HW226247  11.945   8.394   5.213  0.4355 -0.7132  0.5636
38773SOL     OW26248   4.825  10.632   2.073  0.3720 -0.2403 -0.3575
38773SOL    HW126249   4.767  10.640   1.997  0.5566  0.3370 -0.4440
38773SOL    HW226250   4.770  10.653   2.148  0.4507  0.2513 -0.4344
38774SOL     OW26251  11.861  12.967  11.743 -0.3270 -0.1921 -0.0032
38774SOL    HW126252  11.837  12.985  11.834 -3.2860 -3.4963  0.1012
38774SOL    HW226253  11.951  12.936  11.747  0.4648  2.0567  1.3575
38775SOL     OW26254   9.733   7.585   1.236  0.1557 -0.3381  0.8734
38775SOL    HW126255   9.779   7.512   1.196  1.8195  1.5237 -0.8182
38775SOL    HW226256   9.798   7.628   1.291 -0.4254  0.5934  0.8561
38776SOL     OW26257   4.089   6.489   4.776  0.4564  0.7915  0.2788
38776SOL    HW126258   4.116   6.545   4.703  1.1714  0.7885  0.5341
38776SOL    HW226259   4.081   6.402   4.736 -0.8796  1.0948 -0.1657
38777SOL     OW26260   1.954   3.750   3.185  0.0495  0.1215  0.4077
38777SOL    HW126261   1.962   3.702   3.102 -1.2684 -1.0444  0.9077
38777SOL    HW226262   2.038   3.737   3.229  1.0158  1.3064 -0.9886
38778SOL     OW26263   6.636  12.791   9.930 -0.5924  0.2727 -0.1812
38778SOL    HW126264   6.729  12.808   9.911 -1.0985 -0.2727 -4.1945
38778SOL    HW226265   6.599  12.877   9.947  0.3223  0.7633 -0.5735
38779SOL     OW26266   8.750   5.131   3.115 -0.2550  0.1413 -0.6220
38779SOL    HW126267   8.751   5.064   3.183  2.3032  0.3702 -0.3079
38779SOL    HW226268   8.717   5.087   3.037 -3.1106 -0.1740  0.6424
38780SOL     OW26269   9.226  12.700   5.568  0.1950 -0.6576 -0.0950
38780SOL    HW126270   9.142  12.731   5.537 -0.7926 -1.9353  1.1441
38780SOL    HW226271   9.261  12.773   5.620  0.1186  0.0646 -1.0286
38781SOL     OW26272   0.100  12.141   9.752 -0.0143 -0.0634  0.0036
38781SOL    HW126273   0.158  12.079   9.796  1.8396  1.3261 -0.3949
38781SOL    HW226274   0.106  12.119   9.659  0.7950  0.8107 -0.1595
38782SOL     OW26275   2.100   7.165   0.319  0.3836 -0.0552 -0.4000
38782SOL    HW126276   2.087   7.173   0.413  1.6986 -0.2390 -0.1892
38782SOL    HW226277   2.122   7.254   0.290 -0.3692  0.0753 -0.6118
38783SOL     OW26278   7.520   6.550   4.124  0.0872  0.3604  0.2435
38783SOL    HW126279   7.542   6.625   4.069 -0.7736  1.1213  0.9206
38783SOL    HW226280   7.531   6.474   4.066 -0.6621  1.1286 -0.9430
38784SOL     OW26281   2.539  13.042   6.928  0.0127 -0.6796 -0.4336
38784SOL    HW126282   2.517  13.133   6.908  1.8999  0.1222  0.8625
38784SOL    HW226283   2.494  13.024   7.011  0.1091 -0.7285 -0.3916
38785SOL     OW26284   7.925   0.996   0.075  0.1694  0.0709  0.1682
38785SOL    HW126285   7.862   0.928   0.050  1.2178 -0.9843  0.2864
38785SOL    HW226286   7.936   0.985   0.170  0.9476 -0.1520  0.0640
38786SOL     OW26287   6.443  10.795   4.082 -0.3246  0.9289  0.5438
38786SOL    HW126288   6.436  10.771   4.174 -0.8099 -1.4483 -0.0332
38786SOL    HW226289   6.533  10.824   4.071  0.0565  0.1780  1.5797
38787SOL     OW26290   1.440  10.477   4.701 -0.3759 -0.4423 -0.1117
38787SOL    HW126291   1.385  10.550   4.730 -1.3382 -0.9011 -0.7342
38787SOL    HW226292   1.449  10.490   4.607  2.1645  0.6590  0.1761
38788SOL     OW26293   6.683  12.849   6.733 -0.3346  0.8581  0.1852
38788SOL    HW126294   6.636  12.806   6.662  0.7751 -0.5469  0.2631
38788SOL    HW226295   6.623  12.847   6.807 -0.1561 -0.9511  0.3073
38789SOL     OW26296   2.799  11.666   4.468 -0.0892 -0.2614 -0.0336
38789SOL    HW126297   2.720  11.651   4.416  0.3930 -0.6860 -0.6615
38789SOL    HW226298   2.866  11.691   4.404  0.4875 -0.6873  0.3903
38790SOL     OW26299  11.929   9.493   5.456 -0.1805  0.0079 -0.0458
38790SOL    HW126300  12.007   9.443   5.479 -0.0466  0.7659  1.2375
38790SOL    HW226301  11.962   9.574   5.418 -0.1234  1.8941  3.6112
38791SOL     OW26302   1.369   5.935   3.297 -0.7596  0.1649  0.7047
38791SOL    HW126303   1.385   5.980   3.215  0.9325 -3.1253 -0.9807
38791SOL    HW226304   1.289   5.975   3.331 -1.7643  1.4359 -2.7325
38792SOL     OW26305  13.257   2.582   2.810  0.3168 -0.7818  0.4298
38792SOL    HW126306  13.282   2.668   2.778 -2.5156  0.9889  2.5669
38792SOL    HW226307  13.335   2.528   2.796  2.7426  2.4510  0.3050
38793SOL     OW26308   8.429   3.540  12.691 -0.1999  0.5721  0.0844
38793SOL    HW126309   8.503   3.531  12.630  0.1829  1.3511  0.4215
38793SOL    HW226310   8.352   3.530  12.636  0.1436 -0.7464 -0.1994
38794SOL     OW26311  10.061  13.023   4.196  0.3004 -0.4293 -0.6722
38794SOL    HW126312  10.030  12.988   4.113 -0.6459 -1.2537  0.0028
38794SOL    HW226313  10.108  12.950   4.237  0.2372 -0.2159 -0.2115
38795SOL     OW26314   3.379  11.163   0.483  0.8785  0.1586 -0.3844
38795SOL    HW126315   3.461  11.120   0.459  0.6528  0.4626 -1.7803
38795SOL    HW226316   3.315  11.128   0.422  0.2645  0.9632 -0.2132
38796SOL     OW26317   4.163  10.607   0.647 -0.4257  0.3484 -0.0151
38796SOL    HW126318   4.188  10.677   0.587 -1.9184  1.2843  0.3943
38796SOL    HW226319   4.067  10.608   0.646 -0.5975 -3.3233 -1.8641
38797SOL     OW26320   5.116   7.465   6.615 -0.2619  0.3957  0.1378
38797SOL    HW126321   5.198   7.452   6.662  0.1142  0.9874 -0.3432
38797SOL    HW226322   5.142   7.499   6.530 -1.0466  1.2746  0.2383
38798SOL     OW26323   3.780  11.853   8.383 -0.6225 -0.0032  0.4773
38798SOL    HW126324   3.873  11.832   8.385 -0.7126 -0.6829 -0.8996
38798SOL    HW226325   3.775  11.943   8.414  0.5368  0.1426  0.2858
38799SOL     OW26326   1.892   4.833   9.736  0.3894  0.4086  0.2414
38799SOL    HW126327   1.948   4.865   9.666 -2.0020  2.0629 -1.0789
38799SOL    HW226328   1.828   4.777   9.691  2.3175 -3.6592  2.0189
38800SOL     OW26329   5.671   7.019  11.891  0.1148  0.0754 -0.3962
38800SOL    HW126330   5.761   7.022  11.924 -0.7359  1.1056  2.1303
38800SOL    HW226331   5.625   6.965  11.955 -1.0897 -0.3423 -1.5911
38801SOL     OW26332   9.329   9.958   8.137 -0.1932 -0.1611  0.2514
38801SOL    HW126333   9.299   9.922   8.221 -1.1216 -1.2799 -0.5326
38801SOL    HW226334   9.369  10.042   8.160  1.3969 -1.3421  2.0584
38802SOL     OW26335   1.129   8.822   3.275  0.0781 -0.1066  0.0385
38802SOL    HW126336   1.123   8.891   3.341 -1.2441  0.4454 -0.6148
38802SOL    HW226337   1.041   8.819   3.236  0.1748 -1.9966 -0.1292
38803SOL     OW26338   4.296   0.247   0.743  0.4305 -0.0245 -0.3593
38803SOL    HW126339   4.331   0.184   0.806  0.7876  0.9875  0.4862
38803SOL    HW226340   4.361   0.317   0.740 -0.5055  0.8741 -0.3636
38804SOL     OW26341   8.672  12.799   2.096  0.3763 -0.0919  0.6570
38804SOL    HW126342   8.745  12.742   2.073  0.3596 -0.9026  2.3955
38804SOL    HW226343   8.712  12.879   2.130  0.4010  0.7297 -1.2060
38805SOL     OW26344   3.457   0.717  11.360  0.2117 -0.0936 -0.3460
38805SOL    HW126345   3.460   0.656  11.287 -1.4894 -1.0609  0.3310
38805SOL    HW226346   3.406   0.791  11.328  0.4408 -0.0018 -0.4976
38806SOL     OW26347   8.090   9.129  11.093 -0.2511  0.5569  0.1476
38806SOL    HW126348   8.002   9.100  11.068 -1.2781  1.5350  2.3717
38806SOL    HW226349   8.145   9.053  11.075 -1.6118 -0.2525 -0.8514
38807SOL     OW26350   6.378   5.391   1.050  0.1051  0.1797 -0.2558
38807SOL    HW126351   6.301   5.447   1.043 -0.0869 -0.1685 -1.0464
38807SOL    HW226352   6.436   5.420   0.979  1.1277  1.0657  0.9017
38808SOL     OW26353   3.089   8.914   2.867 -0.0251  0.5146  0.1197
38808SOL    HW126354   3.144   8.990   2.846 -0.4555  0.7839 -0.0642
38808SOL    HW226355   3.015   8.952   2.914 -0.0399  0.1536  0.3856
38809SOL     OW26356   4.760   3.443   5.543  0.2234  0.7428  0.2987
38809SOL    HW126357   4.836   3.498   5.524  1.4079 -1.1785 -0.8158
38809SOL    HW226358   4.722   3.425   5.456 -0.9621  0.9018  0.7650
38810SOL     OW26359  12.386  12.490   1.164  0.1485 -0.0085 -0.2713
38810SOL    HW126360  12.362  12.476   1.073  1.0298  0.4096 -0.5752
38810SOL    HW226361  12.340  12.571   1.189  0.1483  0.0400 -0.4303
38811SOL     OW26362   5.749   0.700   8.781 -0.1189  0.4110  0.2240
38811SOL    HW126363   5.726   0.792   8.797 -1.6342 -0.2569  2.2349
38811SOL    HW226364   5.845   0.698   8.787  0.1352  2.1775 -1.9847
38812SOL     OW26365   8.037   2.607  10.505 -0.4672  0.2395 -0.1906
38812SOL    HW126366   8.108   2.569  10.455  0.5293  0.3684  1.0813
38812SOL    HW226367   7.965   2.617  10.442 -0.2838 -2.3463 -0.8935
38813SOL     OW26368   0.941   8.474   6.794 -0.5290  0.6070  0.0392
38813SOL    HW126369   1.001   8.544   6.769  0.8317 -0.7854 -0.7231
38813SOL    HW226370   0.903   8.504   6.877  1.0015  1.6727  0.3972
38814SOL     OW26371   3.089  11.484   3.680 -0.5297 -0.0050  0.0484
38814SOL    HW126372   3.157  11.431   3.637 -0.3939  0.1911  0.0204
38814SOL    HW226373   3.099  11.571   3.642  0.0430  0.3495  0.9731
38815SOL     OW26374  10.741   2.103   4.449 -0.5324 -0.0753 -0.3851
38815SOL    HW126375  10.718   2.080   4.540 -1.4420  0.2398 -0.5246
38815SOL    HW226376  10.732   2.198   4.446  2.5781  0.3138  0.0136
38816SOL     OW26377   1.222   0.765   5.099 -0.0305 -0.0809  0.5277
38816SOL    HW126378   1.253   0.767   5.189  0.9969 -3.2864  0.3668
38816SOL    HW226379   1.297   0.795   5.047 -0.4110  1.1419  0.6477
38817SOL     OW26380   4.927  10.629  11.888  0.0713 -0.0227  0.2065
38817SOL    HW126381   4.914  10.535  11.873  0.7805 -0.0957  0.0164
38817SOL    HW226382   5.022  10.639  11.898  0.0139  0.6949  0.0912
38818SOL     OW26383   0.564   3.352   1.687  0.4362  0.2176  0.3197
38818SOL    HW126384   0.633   3.404   1.729 -0.2800  2.7467 -1.3947
38818SOL    HW226385   0.483   3.389   1.721 -0.1083 -0.5104 -0.1636
38819SOL     OW26386   0.838   5.742   8.738  0.5779 -0.0876 -0.0426
38819SOL    HW126387   0.803   5.741   8.827  0.8850 -0.8765  0.0780
38819SOL    HW226388   0.859   5.650   8.719 -1.3407 -0.2705 -1.6793
38820SOL     OW26389  11.731  11.356   8.754  0.0974  0.3322  0.5167
38820SOL    HW126390  11.729  11.314   8.840 -1.2850  1.1154  0.8967
38820SOL    HW226391  11.704  11.287   8.693 -0.1282  0.1086  0.8669
38821SOL     OW26392   5.985  12.755   2.145  0.0158  0.6203 -0.4746
38821SOL    HW126393   5.967  12.825   2.081 -0.1088  2.3252  1.3432
38821SOL    HW226394   5.976  12.674   2.094  0.9246  1.9008 -2.8561
38822SOL     OW26395   3.474   9.118  11.058  0.1003  0.4261 -0.0194
38822SOL    HW126396   3.538   9.052  11.035  2.4222  2.3118  0.6349
38822SOL    HW226397   3.455   9.103  11.151  0.4044  0.4926  0.0545
38823SOL     OW26398   9.798   8.183   8.089 -0.2369  0.5211 -0.4360
38823SOL    HW126399   9.783   8.278   8.084 -0.8469  0.3659 -2.1687
38823SOL    HW226400   9.864   8.173   8.158 -2.0025  1.9783  1.6308
38824SOL     OW26401   3.853   0.760  12.575  0.2347 -0.1405 -0.3894
38824SOL    HW126402   3.765   0.796  12.572 -0.0579 -0.8799 -0.7633
38824SOL    HW226403   3.841   0.666  12.588  0.9928 -0.0921  0.9070
38825SOL     OW26404   6.353  11.187  10.216  0.2477  0.2277  0.1326
38825SOL    HW126405   6.413  11.246  10.261  0.1366  0.5872 -0.1927
38825SOL    HW226406   6.277  11.180  10.274  0.5723 -0.1790  0.5141
38826SOL     OW26407  11.819  11.442   0.508  1.0335  0.3010 -0.3584
38826SOL    HW126408  11.753  11.410   0.446 -0.5726  1.1829  0.7954
38826SOL    HW226409  11.859  11.517   0.464 -0.6547  1.4235 -0.1140
38827SOL     OW26410   8.552   2.666  11.092 -0.3226 -0.6278  0.2703
38827SOL    HW126411   8.520   2.662  11.182 -1.2179 -1.5586 -0.0731
38827SOL    HW226412   8.620   2.733  11.094 -1.0419  0.1033  1.4194
38828SOL     OW26413  11.468   9.040   5.500 -0.3550  0.1594 -0.0602
38828SOL    HW126414  11.489   8.960   5.549 -0.2753  0.6603  0.7585
38828SOL    HW226415  11.430   9.099   5.566  0.3561  1.0932 -0.4576
38829SOL     OW26416   4.584   7.832   2.541  0.5603 -0.4854  0.4340
38829SOL    HW126417   4.616   7.879   2.464  0.2901  0.9444  1.1656
38829SOL    HW226418   4.490   7.848   2.542  0.6256 -0.1087  1.3163
38830SOL     OW26419   4.138   2.076   0.671 -0.0364  0.5234  0.0214
38830SOL    HW126420   4.207   2.010   0.662  0.1348  0.5902  0.7682
38830SOL    HW226421   4.162   2.125   0.750 -1.1535  0.2908  0.5268
38831SOL     OW26422   5.269   6.628   6.550 -0.0320  0.2498  0.5395
38831SOL    HW126423   5.212   6.552   6.555 -1.3776  1.2397  1.0583
38831SOL    HW226424   5.304   6.638   6.639  0.0948  0.2599  0.4883
38832SOL     OW26425   6.467   2.781   6.193 -0.1191  0.5213  0.2056
38832SOL    HW126426   6.444   2.708   6.135 -0.0991  0.7981 -0.1517
38832SOL    HW226427   6.526   2.836   6.141 -0.9674  1.3515  0.0994
38833SOL     OW26428   6.238   3.655   2.573 -0.6643  0.4016 -0.2478
38833SOL    HW126429   6.258   3.740   2.612 -0.7141  0.2333  0.1506
38833SOL    HW226430   6.237   3.594   2.647  0.7426 -0.1951 -0.6708
38834SOL     OW26431   8.911  11.861   2.111  0.5894  0.4198  0.1262
38834SOL    HW126432   8.957  11.785   2.148  0.5023 -1.1500 -2.6654
38834SOL    HW226433   8.823  11.856   2.149  0.9463 -0.1150  0.9279
38835SOL     OW26434   0.615  10.044   3.783 -0.1194 -0.7435 -0.6622
38835SOL    HW126435   0.676  10.074   3.716 -0.8322 -0.0916 -1.0388
38835SOL    HW226436   0.636   9.951   3.794  1.2907 -0.4171 -0.3873
38836SOL     OW26437   3.328  10.541   6.829 -0.4163 -0.2136  0.3093
38836SOL    HW126438   3.415  10.580   6.819 -0.8794  1.0862  1.1175
38836SOL    HW226439   3.343  10.447   6.823  0.8294  0.0430 -1.0729
38837SOL     OW26440  11.532   4.159   1.399  0.4171 -0.8219 -0.3964
38837SOL    HW126441  11.561   4.094   1.335 -1.9511 -1.2979 -1.0944
38837SOL    HW226442  11.506   4.107   1.475  0.5910 -0.5027 -0.1212
38838SOL     OW26443  10.010   9.280   5.788 -0.1788 -0.9453  0.2031
38838SOL    HW126444  10.055   9.365   5.785  0.8075 -1.4853 -0.9770
38838SOL    HW226445   9.959   9.283   5.869 -1.5334  1.4412 -0.6568
38839SOL     OW26446   5.387  13.247   0.562 -0.0532  0.3211 -0.0382
38839SOL    HW126447   5.409  13.269   0.471 -0.0823 -1.1352 -0.4269
38839SOL    HW226448   5.414  13.324   0.613  0.9234  0.7511 -1.1567
38840SOL     OW26449   4.059   4.872  10.026 -0.6665 -0.9036 -0.5697
38840SOL    HW126450   4.010   4.797  10.058 -1.8534 -0.0668 -0.3954
38840SOL    HW226451   4.112   4.836   9.954 -2.4815 -1.6022 -1.6388
38841SOL     OW26452   2.990   4.577   9.685 -0.3970  0.5826 -0.1865
38841SOL    HW126453   3.030   4.635   9.620 -0.5060  2.8878  1.6765
38841SOL    HW226454   2.896   4.593   9.677 -0.3778  1.3503  0.8911
38842SOL     OW26455   2.960   3.516   8.861  0.1791  0.0661  0.0533
38842SOL    HW126456   3.031   3.580   8.866  1.0689 -0.9674  1.4451
38842SOL    HW226457   2.996   3.444   8.809  0.1392 -0.4263  0.6929
38843SOL     OW26458  10.970   8.663   7.624 -0.2814 -0.5088 -0.4224
38843SOL    HW126459  10.919   8.736   7.660 -0.1985 -0.2082 -0.9031
38843SOL    HW226460  10.976   8.683   7.530 -2.0851 -2.1985 -0.9673
38844SOL     OW26461   7.524  12.628   1.323  0.1814 -0.6047  0.2663
38844SOL    HW126462   7.467  12.555   1.300  0.2799 -1.2650  1.9834
38844SOL    HW226463   7.601  12.586   1.363  1.3095  0.3345 -0.8314
38845SOL     OW26464   5.963  11.585   4.557 -0.3497 -0.4129  0.4810
38845SOL    HW126465   6.033  11.520   4.549 -0.1895 -0.4195  1.6744
38845SOL    HW226466   5.948  11.593   4.652 -0.6371  1.0023  0.3453
38846SOL     OW26467   8.424   3.363   0.667  0.5326 -0.0155 -0.0633
38846SOL    HW126468   8.501   3.386   0.614  0.1661 -0.2123 -0.6823
38846SOL    HW226469   8.382   3.292   0.619 -0.9691  1.1879 -0.6074
38847SOL     OW26470   4.337  12.815  12.701 -0.0040  0.1138 -0.0896
38847SOL    HW126471   4.251  12.778  12.720  0.1363 -1.2115 -1.8445
38847SOL    HW226472   4.320  12.879  12.631  0.4882 -0.5445 -0.8235
38848SOL     OW26473  10.137   6.075   6.970  0.1404 -0.1055 -0.2497
38848SOL    HW126474  10.181   6.034   6.895 -1.5744  0.8313 -1.8612
38848SOL    HW226475  10.199   6.065   7.042  2.2845 -0.2542 -1.9892
38849SOL     OW26476   0.977   9.333   8.073 -0.3190  0.0276  0.1840
38849SOL    HW126477   0.959   9.240   8.061  1.2472 -0.3235  0.3919
38849SOL    HW226478   0.975   9.371   7.985  0.8864 -0.5669 -0.1104
38850SOL     OW26479  11.028  12.026  12.419  0.1255  0.1197 -0.0486
38850SOL    HW126480  11.034  12.108  12.468 -0.1916  0.3414 -0.3751
38850SOL    HW226481  10.985  12.051  12.337 -1.2475 -0.6261  0.4337
38851SOL     OW26482   0.506   5.384   8.012  0.4789 -0.0883 -0.5261
38851SOL    HW126483   0.509   5.288   8.006  2.2330 -0.1300  0.2814
38851SOL    HW226484   0.590   5.412   7.976  0.5391  1.0617  0.4660
38852SOL     OW26485   1.366  10.392  11.346  0.2959 -0.0657 -0.1774
38852SOL    HW126486   1.450  10.430  11.371 -0.1490  0.2135  0.9357
38852SOL    HW226487   1.328  10.360  11.428 -1.0429  0.5381 -0.5387
38853SOL     OW26488   4.274   1.642   3.717  0.6777  0.5574 -0.5829
38853SOL    HW126489   4.349   1.701   3.711  2.9687 -1.8368  1.7966
38853SOL    HW226490   4.293   1.572   3.655  0.2254  0.1263 -0.2506
38854SOL     OW26491  11.594   8.311   6.989  0.2110 -0.4957 -0.3644
38854SOL    HW126492  11.631   8.384   6.940 -0.3454  0.6522  0.8827
38854SOL    HW226493  11.518   8.284   6.938 -0.6645  1.0271  0.0840
38855SOL     OW26494   1.561   1.932  11.894  0.2304  0.6834 -0.0985
38855SOL    HW126495   1.596   1.880  11.966 -2.2116 -2.0587 -0.7278
38855SOL    HW226496   1.623   1.919  11.822 -0.2524 -1.3316 -0.1962
38856SOL     OW26497  12.189  12.433   3.527 -0.0581  0.2715  0.8058
38856SOL    HW126498  12.112  12.458   3.578 -1.9038 -0.7403 -1.2959
38856SOL    HW226499  12.262  12.447   3.586 -1.9054  0.5074  3.2055
38857SOL     OW26500   4.707   9.691   1.246  0.7310 -0.4785 -0.0477
38857SOL    HW126501   4.669   9.666   1.162 -0.7444  0.3492  0.3491
38857SOL    HW226502   4.734   9.607   1.285 -0.0696 -1.0278 -0.6346
38858SOL     OW26503   5.418   6.973   4.275  0.0803  0.2121 -0.6073
38858SOL    HW126504   5.416   6.902   4.211  0.4316  0.3108 -0.7255
38858SOL    HW226505   5.354   7.036   4.242 -1.7751 -0.9508  0.5510
38859SOL     OW26506   6.069   9.045   1.609  0.1128  0.4895 -0.2208
38859SOL    HW126507   5.983   9.058   1.570 -0.1638  0.5614  0.3966
38859SOL    HW226508   6.051   8.997   1.690  0.5749  1.1411  0.2765
38860SOL     OW26509   0.465   5.941   9.042 -0.1156 -0.1045 -0.5069
38860SOL    HW126510   0.392   5.986   9.085  0.4499  0.3921 -0.0375
38860SOL    HW226511   0.478   5.988   8.960 -0.5165 -0.3870 -0.7344
38861SOL     OW26512   4.409   7.441   3.706 -0.0821  0.1612 -0.3101
38861SOL    HW126513   4.477   7.471   3.644  0.9138 -1.9479 -0.3180
38861SOL    HW226514   4.358   7.378   3.656  0.7634 -1.6166  0.9634
38862SOL     OW26515  10.862   7.822   8.473 -0.2378 -0.1161  0.3956
38862SOL    HW126516  10.858   7.859   8.561  0.7156  0.5460  0.1676
38862SOL    HW226517  10.777   7.845   8.434 -0.2347  0.5405  0.7610
38863SOL     OW26518   4.933   1.413   4.582 -0.3679 -0.4507 -0.2655
38863SOL    HW126519   4.967   1.421   4.493  0.0037 -2.0733 -0.3025
38863SOL    HW226520   5.009   1.390   4.635 -0.6518  0.1732  0.4273
38864SOL     OW26521   0.271   3.748  11.886  0.5167  0.3369 -0.1048
38864SOL    HW126522   0.288   3.717  11.974 -0.8082 -0.6509 -0.1663
38864SOL    HW226523   0.337   3.706  11.831  0.9982  0.5257  0.3268
38865SOL     OW26524   6.700   4.924   7.329 -0.0817  0.0168  0.9661
38865SOL    HW126525   6.667   4.954   7.414 -0.6177  1.5475  0.2635
38865SOL    HW226526   6.745   4.842   7.348 -1.3775 -0.3964  2.5143
38866SOL     OW26527   3.427   7.568   4.784 -0.1675  0.1303 -0.7236
38866SOL    HW126528   3.426   7.531   4.696  0.4353 -1.9912  0.1060
38866SOL    HW226529   3.340   7.549   4.819 -0.1798  0.3755 -0.6172
38867SOL     OW26530   1.157   9.763   5.530  0.5615  0.5196 -0.4794
38867SOL    HW126531   1.085   9.807   5.485  1.5921  1.5502 -1.1634
38867SOL    HW226532   1.115   9.693   5.580 -0.9700  1.4471 -0.4277
38868SOL     OW26533   1.944  11.394  11.023  0.5127  0.2171 -0.1852
38868SOL    HW126534   2.004  11.465  11.046 -0.4752  0.9951  0.0625
38868SOL    HW226535   1.886  11.433  10.957 -0.6498 -0.0399  0.6553
38869SOL     OW26536   9.599   4.979  10.406 -0.0318  0.4331 -0.1968
38869SOL    HW126537   9.664   4.987  10.336  1.1825  0.3195  0.8759
38869SOL    HW226538   9.644   4.930  10.475 -1.5802 -0.4648  0.2225
38870SOL     OW26539  10.234   7.863   9.530 -0.0160  0.4960  0.4855
38870SOL    HW126540  10.159   7.812   9.499 -0.2090  2.4882 -2.8938
38870SOL    HW226541  10.307   7.802   9.526 -0.6182 -0.2052 -1.2400
38871SOL     OW26542   5.851  11.046   3.718  0.1212  0.2148 -0.0723
38871SOL    HW126543   5.757  11.028   3.708 -0.0854  1.4382 -0.6573
38871SOL    HW226544   5.862  11.132   3.676  1.3914  0.3663  0.5467
38872SOL     OW26545   7.801  12.746   0.014 -0.7317  0.5982  0.2007
38872SOL    HW126546   7.834  12.696  -0.061  0.2963  0.7746  0.5281
38872SOL    HW226547   7.765  12.680   0.073 -2.8387  0.5394 -1.0283
38873SOL     OW26548   0.147  13.014   5.912  0.0339  0.0240  0.1533
38873SOL    HW126549   0.086  12.949   5.877  0.9365 -0.5142 -0.4799
38873SOL    HW226550   0.180  12.975   5.993  3.3302 -2.1531 -1.9550
38874SOL     OW26551   9.055  12.701   6.321  0.8955 -0.3143  0.1336
38874SOL    HW126552   9.121  12.688   6.389 -0.1948 -1.4981  1.0152
38874SOL    HW226553   8.996  12.768   6.357  1.8242  1.1044 -0.8568
38875SOL     OW26554   5.687   6.462   2.367  0.4973 -0.0460 -0.3628
38875SOL    HW126555   5.777   6.429   2.374  0.5539 -0.0617 -1.0682
38875SOL    HW226556   5.697   6.555   2.348  0.3514  0.0865  0.1839
38876SOL     OW26557  12.564   5.560  11.768  0.1053 -0.5445  0.2808
38876SOL    HW126558  12.567   5.645  11.723  1.9593 -0.8217 -0.1875
38876SOL    HW226559  12.476   5.557  11.807 -1.0099  0.3934 -1.9812
38877SOL     OW26560   9.089   2.605   0.084 -0.5554 -0.1128  0.4357
38877SOL    HW126561   9.092   2.522   0.131 -2.3735  0.6667  2.0740
38877SOL    HW226562   9.031   2.589   0.010 -2.2407  0.0426  1.6593
38878SOL     OW26563  12.198   8.820   7.380 -0.2484 -0.0170 -0.4299
38878SOL    HW126564  12.135   8.763   7.424  1.6133  0.1149  2.7218
38878SOL    HW226565  12.144   8.884   7.332 -2.5066 -0.2688  1.6075
38879SOL     OW26566   6.226   5.603  11.463 -0.5044 -0.0959 -0.1923
38879SOL    HW126567   6.189   5.661  11.530 -0.3769  0.0356 -0.2359
38879SOL    HW226568   6.317   5.590  11.490 -0.6605 -0.6664  0.0850
38880SOL     OW26569   7.106   7.480   6.082  0.4144  0.3797  0.1938
38880SOL    HW126570   7.131   7.486   5.990 -0.1998  2.8274  0.1231
38880SOL    HW226571   7.187   7.495   6.130  0.8198 -1.3297  0.0982
38881SOL     OW26572  12.700   7.093   0.893 -0.1049  0.3998 -0.8957
38881SOL    HW126573  12.676   7.002   0.876  0.1545 -0.5006  2.8140
38881SOL    HW226574  12.794   7.091   0.912  0.1088  1.6425 -1.6543
38882SOL     OW26575   9.102   1.896   4.229  0.0836  0.4219 -0.0830
38882SOL    HW126576   9.168   1.910   4.297  1.1825 -2.4739 -0.4175
38882SOL    HW226577   9.041   1.833   4.267 -0.4081  0.2726 -1.0755
38883SOL     OW26578  10.022   8.779   6.303  0.5210  0.2730  0.4518
38883SOL    HW126579  10.024   8.873   6.320 -3.2416  0.8743 -1.2631
38883SOL    HW226580  10.012   8.772   6.208 -0.3905 -1.7727  0.6322
38884SOL     OW26581   1.230  11.536   6.713  0.2078 -0.3727  0.6319
38884SOL    HW126582   1.242  11.495   6.799  0.9414 -1.5691 -0.0228
38884SOL    HW226583   1.253  11.468   6.650  0.8154  0.8461 -0.5016
38885SOL     OW26584  12.742   9.043   2.372  0.1052 -0.5972 -0.3312
38885SOL    HW126585  12.708   9.070   2.457 -0.3065  1.1410 -1.0091
38885SOL    HW226586  12.816   8.986   2.393  0.8218  0.8272  1.2279
38886SOL     OW26587   8.166  12.072   7.877 -0.0570  0.0430 -0.1517
38886SOL    HW126588   8.186  12.141   7.940 -2.9103  0.1973  0.7436
38886SOL    HW226589   8.196  11.991   7.918 -0.7973  0.2833  0.8932
38887SOL     OW26590   0.942   3.447   4.570 -0.7251  0.5448  0.3348
38887SOL    HW126591   1.005   3.404   4.628  0.1502  2.1562  0.6249
38887SOL    HW226592   0.995   3.498   4.510 -1.6463 -0.6873 -1.6159
38888SOL     OW26593  11.541   8.032   9.154 -0.6651  0.3059 -0.2819
38888SOL    HW126594  11.498   8.016   9.238 -1.1464 -0.5778 -0.6833
38888SOL    HW226595  11.607   7.963   9.147  1.1055  1.8552  0.4898
38889SOL     OW26596  11.752   8.063   6.080 -0.2165  0.0592  0.1480
38889SOL    HW126597  11.704   8.142   6.105 -0.2515 -0.1789  0.8720
38889SOL    HW226598  11.800   8.039   6.160  0.2024 -0.3550 -0.2254
38890SOL     OW26599   8.883  11.378   6.333 -0.2596  0.7749 -0.2232
38890SOL    HW126600   8.822  11.306   6.314  0.3334  0.3394 -0.5328
38890SOL    HW226601   8.921  11.398   6.248  1.8494 -0.6411  0.3108
38891SOL     OW26602   6.091   2.371   6.781 -0.3932  0.8365  0.0450
38891SOL    HW126603   6.060   2.381   6.871 -1.3257  1.9672 -0.3795
38891SOL    HW226604   6.015   2.334   6.735  0.4622 -0.8943 -0.0558
38892SOL     OW26605   0.270   1.922  10.975  0.3407  0.0085 -0.3773
38892SOL    HW126606   0.219   1.923  11.056  1.8719  0.3297  0.6077
38892SOL    HW226607   0.361   1.928  11.003  0.9329 -0.3062 -2.1104
38893SOL     OW26608   2.672   7.975   7.307  0.0211 -0.5472 -0.6302
38893SOL    HW126609   2.727   7.936   7.239  0.4751  1.5714 -1.5424
38893SOL    HW226610   2.733   8.014   7.368 -0.3709  1.2851 -1.3221
38894SOL     OW26611   0.830   1.380   6.179 -0.7258  0.1403  0.1584
38894SOL    HW126612   0.746   1.375   6.135  0.2080  0.4175 -1.7713
38894SOL    HW226613   0.810   1.415   6.266 -2.8905 -2.4463  0.8194
38895SOL     OW26614   5.580  10.532   5.774 -0.1511  0.2353 -0.4524
38895SOL    HW126615   5.561  10.614   5.728 -0.2898  0.1412 -0.5622
38895SOL    HW226616   5.675  10.525   5.772 -0.1638  0.1616 -0.8491
38896SOL     OW26617   8.336  10.827   5.275  0.3973  0.1160  0.2040
38896SOL    HW126618   8.335  10.922   5.285  0.0589 -0.0753  2.5324
38896SOL    HW226619   8.429  10.804   5.275  0.5294  0.2574  2.9644
38897SOL     OW26620   0.820   2.521   2.114  0.0249 -0.4046  0.3410
38897SOL    HW126621   0.725   2.513   2.122  0.0306 -3.0216 -1.4077
38897SOL    HW226622   0.834   2.586   2.045 -0.5126 -0.9782 -0.3041
38898SOL     OW26623   2.641   2.451   2.511  1.0418  0.5572 -0.5412
38898SOL    HW126624   2.552   2.476   2.532  1.3718  1.2766  0.0329
38898SOL    HW226625   2.650   2.362   2.545  0.8811  0.8959  0.4137
38899SOL     OW26626  11.366   0.123   7.892  0.1499  0.8789 -0.6955
38899SOL    HW126627  11.341   0.099   7.981 -2.5577  1.2011 -1.2752
38899SOL    HW226628  11.461   0.134   7.896  0.1824  0.3843  2.0082
38900SOL     OW26629   4.907   7.117   7.265 -0.6026  0.4111  0.2407
38900SOL    HW126630   4.887   7.086   7.177 -2.3403  0.0767  0.7100
38900SOL    HW226631   4.872   7.049   7.323 -1.0371  1.4364  1.2113
38901SOL     OW26632   1.597  10.674   8.070  0.0492 -0.3473 -0.4376
38901SOL    HW126633   1.565  10.584   8.066  0.6597 -0.5989  0.1798
38901SOL    HW226634   1.689  10.668   8.045  0.1657  0.0650 -0.1207
38902SOL     OW26635   1.585   0.229  11.177 -0.6278  0.3347  0.4157
38902SOL    HW126636   1.664   0.177  11.162 -1.6136 -1.3299  0.7059
38902SOL    HW226637   1.593   0.258  11.268 -0.8300 -0.7350  0.7899
38903SOL     OW26638   8.381   9.072   9.661 -0.3315  0.2352  0.2804
38903SOL    HW126639   8.446   9.068   9.731 -0.3312 -3.2995  0.2343
38903SOL    HW226640   8.429   9.108   9.586  0.0123  2.7911  1.6260
38904SOL     OW26641   7.723   7.115   6.125 -0.2307  0.0268 -0.5846
38904SOL    HW126642   7.672   7.038   6.149  0.2499 -1.0186 -2.6642
38904SOL    HW226643   7.722   7.115   6.030  0.9970  1.7946 -0.6359
38905SOL     OW26644  11.466   5.597   0.585 -0.4458 -0.2312 -0.1883
38905SOL    HW126645  11.401   5.655   0.625 -0.0486 -0.8966  1.5342
38905SOL    HW226646  11.435   5.509   0.606  1.0982 -0.5622  0.9213
38906SOL     OW26647  11.569  10.405  12.941 -0.3350  0.2988  0.6627
38906SOL    HW126648  11.574  10.353  13.021 -0.8796  0.4381  0.7901
38906SOL    HW226649  11.479  10.438  12.939 -0.8461 -1.0389 -0.8432
38907SOL     OW26650   1.515   2.487   1.901  0.2212  0.2921 -0.2149
38907SOL    HW126651   1.529   2.582   1.906  1.7896  0.0610  0.3946
38907SOL    HW226652   1.588   2.450   1.951 -0.9523 -1.2057  0.4380
38908SOL     OW26653   2.065  12.379   7.247  0.4964  0.5239 -0.4317
38908SOL    HW126654   1.974  12.400   7.230 -0.0226  0.0585  1.4700
38908SOL    HW226655   2.074  12.287   7.221  0.3098  0.4547 -0.2544
38909SOL     OW26656   8.189  13.084  12.374 -0.3369 -0.0507  0.7082
38909SOL    HW126657   8.238  13.140  12.433  1.0504 -1.7422  1.2507
38909SOL    HW226658   8.232  13.095  12.289 -1.4674  1.3420  0.2882
38910SOL     OW26659   2.844   1.013   1.307  0.2222  0.1095  0.1911
38910SOL    HW126660   2.859   1.084   1.369 -0.0356 -0.0727  0.4639
38910SOL    HW226661   2.750   1.018   1.287  0.0910 -0.4835  0.6227
38911SOL     OW26662   5.068   3.881  10.205 -0.0530  0.3744  0.2759
38911SOL    HW126663   5.111   3.961  10.236 -0.7180  0.9790 -0.3206
38911SOL    HW226664   5.078   3.819  10.277  0.4539  0.9985  0.7580
38912SOL     OW26665   9.278   5.716  10.417 -0.1719 -0.1624 -0.3921
38912SOL    HW126666   9.203   5.749  10.366 -0.2521 -0.0653 -0.2112
38912SOL    HW226667   9.255   5.626  10.438 -1.0265  0.3754  1.1442
38913SOL     OW26668   5.234  11.078   4.327  0.3654 -0.0255  0.6220
38913SOL    HW126669   5.162  11.044   4.381  0.1077  0.6320  0.6998
38913SOL    HW226670   5.263  11.157   4.374  1.9126 -0.9018  1.2297
38914SOL     OW26671   0.335   7.263  10.516  0.3684 -0.5210 -0.2688
38914SOL    HW126672   0.286   7.327  10.569  2.0334  0.3903  0.2389
38914SOL    HW226673   0.416   7.250  10.564  1.5166 -0.4356 -2.0945
38915SOL     OW26674   0.130   6.671   2.648 -0.4110  0.0013  0.2003
38915SOL    HW126675   0.056   6.665   2.588  0.1090  1.5232 -0.6455
38915SOL    HW226676   0.206   6.645   2.595 -0.0439  0.6139  0.4227
38916SOL     OW26677   1.976   8.036   2.950  0.2289 -1.2334  0.3174
38916SOL    HW126678   1.960   8.049   2.857  0.7545 -2.1200  0.0915
38916SOL    HW226679   2.052   8.091   2.969  0.0853 -1.0051  0.2441
38917SOL     OW26680   7.099   9.751  13.111 -0.2278 -0.5409 -0.9694
38917SOL    HW126681   7.097   9.658  13.135 -0.6632 -0.1128  0.8550
38917SOL    HW226682   7.165   9.789  13.170 -1.1153  0.5580 -0.6530
38918SOL     OW26683   3.671   2.532   3.909 -0.4805  0.6981 -0.0625
38918SOL    HW126684   3.620   2.453   3.927 -0.9605  0.9389 -0.3413
38918SOL    HW226685   3.758   2.513   3.945 -0.9610  0.5689  1.0685
38919SOL     OW26686   7.167   7.342   3.904  0.1853 -0.1143  0.1046
38919SOL    HW126687   7.167   7.391   3.986  2.1539  1.4553 -0.7551
38919SOL    HW226688   7.082   7.298   3.903 -1.1550  2.2167  1.5635
38920SOL     OW26689  13.152   8.219   8.203  0.3841  0.0972 -0.0566
38920SOL    HW126690  13.214   8.289   8.223  1.6811 -0.6944 -1.1745
38920SOL    HW226691  13.202   8.138   8.213 -0.9008 -0.6567  0.5361
38921SOL     OW26692   7.809   6.383  10.478 -0.2677 -0.5617  0.3091
38921SOL    HW126693   7.714   6.381  10.464 -0.2382 -2.0956  0.1110
38921SOL    HW226694   7.825   6.465  10.524 -1.4001  0.8005 -1.6041
38922SOL     OW26695   1.615   8.467   7.683 -0.2149  0.1408  0.4524
38922SOL    HW126696   1.652   8.467   7.594 -1.9037  1.0458 -0.2861
38922SOL    HW226697   1.655   8.543   7.725 -0.3557  0.4397  0.0524
38923SOL     OW26698   8.280   0.242  11.287 -0.1376 -0.1660 -0.0771
38923SOL    HW126699   8.296   0.304  11.359 -0.3648  0.3045 -0.4253
38923SOL    HW226700   8.356   0.252  11.230 -2.1639  3.2272 -2.5646
38924SOL     OW26701   0.002   9.033   8.971  0.3665  0.4037 -0.3746
38924SOL    HW126702   0.029   9.039   8.880 -0.3990 -1.4449 -0.7776
38924SOL    HW226703   0.076   8.992   9.015  0.6680  1.1360 -0.1964
38925SOL     OW26704  12.459  11.622   5.619  0.4850 -0.0702 -0.0557
38925SOL    HW126705  12.451  11.712   5.650 -1.9940  0.0158 -0.7148
38925SOL    HW226706  12.485  11.631   5.527 -0.1373  0.0073 -0.2290
38926SOL     OW26707  12.700   7.917   8.005 -0.1491  0.7796 -0.0079
38926SOL    HW126708  12.690   7.990   8.067  0.2385  0.7517  0.0933
38926SOL    HW226709  12.659   7.842   8.049 -1.0936  1.0726 -0.3749
38927SOL     OW26710   7.071  12.924   8.802  0.6103 -0.2101 -0.2205
38927SOL    HW126711   7.007  12.853   8.793 -0.8344  1.1581 -1.4822
38927SOL    HW226712   7.090  12.951   8.711 -1.1301  2.8599  0.1811
38928SOL     OW26713   8.042  13.294   3.077  0.0475  0.3604 -0.3245
38928SOL    HW126714   8.045  13.258   3.165  1.2547 -1.2106 -0.9363
38928SOL    HW226715   7.955  13.271   3.044  0.1414 -0.4253 -0.0511
38929SOL     OW26716   0.537   5.365   8.566  0.1058 -0.0075  0.5706
38929SOL    HW126717   0.483   5.292   8.595  3.1841 -1.7934  2.2626
38929SOL    HW226718   0.558   5.345   8.475 -0.4324 -0.3120  0.5108
38930SOL     OW26719   6.506   5.660   1.297 -0.0887  0.9420  0.2746
38930SOL    HW126720   6.441   5.592   1.314 -0.2044  0.7077 -0.9617
38930SOL    HW226721   6.482   5.733   1.353 -0.2841  0.1586  1.2269
38931SOL     OW26722  11.538   3.196   5.999  0.8804  0.5716 -0.0451
38931SOL    HW126723  11.619   3.221   6.043  1.7353 -0.8837 -0.7080
38931SOL    HW226724  11.533   3.253   5.923  0.4341  1.7388  0.8356
38932SOL     OW26725  12.084   7.787   9.482 -0.0929 -0.2756 -0.5951
38932SOL    HW126726  12.117   7.774   9.571  1.8487 -0.4580 -1.2902
38932SOL    HW226727  12.070   7.698   9.449 -0.5302 -0.2152 -0.5748
38933SOL     OW26728   8.779   8.716  10.437  0.1023 -0.0788  0.3071
38933SOL    HW126729   8.821   8.641  10.395  0.1204  0.1992 -0.1822
38933SOL    HW226730   8.759   8.775  10.365  0.4493  0.5699  0.7351
38934SOL     OW26731  11.734   9.137   1.614 -0.2093 -0.0500  0.0523
38934SOL    HW126732  11.793   9.062   1.611 -0.5471 -0.3066 -0.2428
38934SOL    HW226733  11.791   9.212   1.633  0.1636 -0.3417  0.0782
38935SOL     OW26734   3.996   3.856  13.121 -0.2890  0.1800  0.2794
38935SOL    HW126735   4.023   3.787  13.061  0.7572 -1.5494  2.6127
38935SOL    HW226736   4.016   3.938  13.074  1.7131 -1.0637 -1.1906
38936SOL     OW26737   6.928   2.858   3.517 -0.3714  0.4442 -0.2393
38936SOL    HW126738   6.883   2.873   3.434  0.3547  1.3578 -0.4878
38936SOL    HW226739   6.866   2.886   3.584 -0.7303  0.2768 -0.4997
38937SOL     OW26740   1.995   4.135   6.863 -0.2086 -0.1977 -0.0672
38937SOL    HW126741   1.994   4.185   6.781  3.5784 -1.4442 -1.0806
38937SOL    HW226742   1.988   4.044   6.835  0.4474 -0.6051  1.0563
38938SOL     OW26743   8.227   5.600  11.170  0.2005  0.2472  0.2494
38938SOL    HW126744   8.162   5.535  11.198 -1.0211  1.7517  1.0742
38938SOL    HW226745   8.288   5.551  11.115 -2.0636 -1.0813 -1.2339
38939SOL     OW26746   7.270   9.161   5.777  0.0017 -0.0860  0.6174
38939SOL    HW126747   7.178   9.175   5.801 -0.2803  0.2078 -0.6034
38939SOL    HW226748   7.287   9.070   5.803 -0.6470 -0.1592  0.8038
38940SOL     OW26749   9.371  11.895   0.417  0.2383  0.1090  0.0475
38940SOL    HW126750   9.398  11.960   0.353 -0.7671  1.8352  1.2868
38940SOL    HW226751   9.453  11.870   0.461  1.0056 -1.4000 -2.0514
38941SOL     OW26752  11.717   3.095   8.823  0.4008 -0.0107  0.0637
38941SOL    HW126753  11.699   3.063   8.912  1.8837 -0.6086  0.1701
38941SOL    HW226754  11.732   3.016   8.771 -2.3686  0.2020 -1.2296
38942SOL     OW26755   6.676  10.821   3.468  0.4311  0.0772  0.2622
38942SOL    HW126756   6.699  10.822   3.561  0.9592 -0.9492  0.1520
38942SOL    HW226757   6.667  10.728   3.446  0.5597  0.2993 -0.7805
38943SOL     OW26758   2.992   8.329   2.606  0.0817  0.1576 -0.1150
38943SOL    HW126759   3.068   8.290   2.563  0.7278  0.3450  0.8269
38943SOL    HW226760   2.971   8.406   2.553 -0.3867 -0.6907 -1.2227
38944SOL     OW26761  12.561   4.729  13.202  0.2658 -0.2084  0.5481
38944SOL    HW126762  12.576   4.636  13.189 -0.2369 -0.2952  0.5683
38944SOL    HW226763  12.469   4.736  13.227 -0.0340  0.3868 -0.6026
38945SOL     OW26764   1.159   6.946  12.776 -0.2210  0.2440 -0.2070
38945SOL    HW126765   1.235   6.912  12.729  0.3703  1.0687  0.1386
38945SOL    HW226766   1.128   7.018  12.721  0.3025  1.0285  0.5002
38946SOL     OW26767   3.507   5.547   1.055 -0.5492  0.3502 -0.2935
38946SOL    HW126768   3.491   5.586   1.141  0.2854 -0.7536  0.3909
38946SOL    HW226769   3.503   5.621   0.994 -2.3185  0.9998  0.5174
38947SOL     OW26770  11.942  10.271   5.069 -0.0615 -0.0675 -0.2933
38947SOL    HW126771  11.924  10.235   5.156  0.7882 -0.3822 -0.2377
38947SOL    HW226772  11.968  10.361   5.085 -2.4799  0.7233 -0.4561
38948SOL     OW26773   1.954   7.302   6.671 -0.0561 -0.1397  1.0763
38948SOL    HW126774   1.981   7.386   6.634  1.8940 -1.1543  0.0948
38948SOL    HW226775   1.880   7.275   6.617  1.3280 -0.5258 -0.6869
38949SOL     OW26776   1.198   1.251   9.048  0.7597  0.0022 -0.0444
38949SOL    HW126777   1.242   1.174   9.011 -0.2468 -0.7041  0.2022
38949SOL    HW226778   1.115   1.217   9.082  1.5223  0.6424  2.6815
38950SOL     OW26779   7.962   8.366   2.845 -0.2481 -0.0204 -0.2091
38950SOL    HW126780   7.966   8.306   2.920 -1.3917 -0.4470 -0.4790
38950SOL    HW226781   8.032   8.337   2.787 -1.1240 -1.4726 -0.5955
38951SOL     OW26782  11.879   6.348   0.624 -0.1896  0.6040 -0.2410
38951SOL    HW126783  11.953   6.291   0.643 -0.4631 -0.5800 -2.3586
38951SOL    HW226784  11.916   6.436   0.619  0.2110  0.7627  3.2428
38952SOL     OW26785  13.058   5.722   4.795 -0.4757  0.2162  0.4344
38952SOL    HW126786  13.035   5.696   4.884 -0.2603  0.3642  0.5351
38952SOL    HW226787  13.098   5.645   4.756  0.0807  0.3663  0.7019
38953SOL     OW26788  11.137  10.716  11.835  0.5198  0.1227 -0.0380
38953SOL    HW126789  11.131  10.622  11.850 -0.7744  0.4137  1.5960
38953SOL    HW226790  11.073  10.734  11.766  1.1620 -0.2400 -0.7447
38954SOL     OW26791   9.017   1.939  13.125  0.0614 -0.2135 -0.0367
38954SOL    HW126792   9.060   1.875  13.068 -3.3406 -2.1725 -0.6691
38954SOL    HW226793   9.009   1.895  13.210  0.7725  0.7888  0.5698
38955SOL     OW26794  11.464   5.683   6.382  0.1009  0.6718 -0.2459
38955SOL    HW126795  11.448   5.647   6.470  1.9323 -0.4158 -0.3094
38955SOL    HW226796  11.494   5.772   6.398 -0.6142  0.8475  0.1585
38956SOL     OW26797   2.630   7.335   7.506  0.0791 -0.6602 -0.0233
38956SOL    HW126798   2.682   7.367   7.579 -0.8666 -0.2327  0.4825
38956SOL    HW226799   2.554   7.293   7.546 -0.7241  0.0493 -0.7473
38957SOL     OW26800   9.040   7.198   9.117  0.4052 -0.0544 -0.1095
38957SOL    HW126801   9.107   7.164   9.176 -0.1001  1.3333  1.3418
38957SOL    HW226802   8.957   7.174   9.159 -0.0018 -0.5991 -1.1986
38958SOL     OW26803  12.650  13.162   6.078 -0.5686 -0.0058  0.0331
38958SOL    HW126804  12.558  13.179   6.100 -0.0632 -0.0362  2.3764
38958SOL    HW226805  12.699  13.230   6.124  0.7047 -1.0850  0.3410
38959SOL     OW26806   9.509  12.397   4.106 -0.5147 -0.6240 -0.5428
38959SOL    HW126807   9.517  12.492   4.104 -0.3126 -0.6174 -2.9500
38959SOL    HW226808   9.435  12.378   4.049 -0.5974 -1.9210 -0.0490
38960SOL     OW26809  11.986   5.778   5.484  0.0906 -0.0924  0.4922
38960SOL    HW126810  11.893   5.799   5.471  0.4204  0.5331 -1.0743
38960SOL    HW226811  11.987   5.684   5.502 -0.8922  0.0233  1.2388
38961SOL     OW26812  11.082   6.282   4.633 -0.6778  0.3895 -0.3497
38961SOL    HW126813  11.092   6.360   4.578 -0.2840  1.3568  1.0427
38961SOL    HW226814  10.989   6.281   4.656 -0.4890  1.0491  0.4700
38962SOL     OW26815   7.968   6.867   4.015  0.1084 -0.1440  0.0803
38962SOL    HW126816   8.064   6.866   4.011  0.0748 -0.3047 -0.9385
38962SOL    HW226817   7.947   6.935   4.078  0.9264 -1.6744  2.0854
38963SOL     OW26818   7.695   9.971   4.425  0.4877  0.2333  0.3214
38963SOL    HW126819   7.775   9.993   4.377  1.5117 -2.1968  0.7572
38963SOL    HW226820   7.710  10.006   4.513  0.7112  0.5228  0.1714
38964SOL     OW26821   0.558  13.205   3.586  0.3820  0.1759 -0.0590
38964SOL    HW126822   0.463  13.211   3.594  0.3536  1.1766 -0.8980
38964SOL    HW226823   0.590  13.292   3.609  1.0381  0.0542 -0.4700
38965SOL     OW26824   9.908  12.626  11.365 -0.3455  0.5720  0.0215
38965SOL    HW126825   9.915  12.532  11.378 -0.4895  0.3531 -1.3143
38965SOL    HW226826   9.927  12.664  11.450 -2.4117 -0.7324  1.1521
38966SOL     OW26827   3.623  10.671   6.811  0.1780 -0.4084 -0.1347
38966SOL    HW126828   3.712  10.638   6.799 -0.4220 -1.8253 -0.9304
38966SOL    HW226829   3.592  10.688   6.722 -1.6984 -3.7431 -0.2789
38967SOL     OW26830   8.463   0.655   8.344 -0.4539 -0.3553  0.2393
38967SOL    HW126831   8.382   0.654   8.292  1.3307 -2.3941 -2.8433
38967SOL    HW226832   8.451   0.586   8.409 -1.5623  0.0637  0.4974
38968SOL     OW26833  10.719   7.397   7.119  0.1447  0.2424  0.0688
38968SOL    HW126834  10.663   7.369   7.046  0.7844  1.7878 -1.0578
38968SOL    HW226835  10.808   7.387   7.087  0.5921 -1.7456  1.6885
38969SOL     OW26836   4.967  12.423   3.078  0.3873 -0.3544 -0.3509
38969SOL    HW126837   4.883  12.467   3.091  0.6609 -0.2085  1.1065
38969SOL    HW226838   4.947  12.330   3.085  0.3802 -0.3116  0.1854
38970SOL     OW26839   0.876   1.112   6.751 -0.5070  0.3914 -0.0747
38970SOL    HW126840   0.893   1.072   6.666  0.2181 -0.2899  0.3702
38970SOL    HW226841   0.804   1.061   6.788 -1.4924  1.3138 -0.6750
38971SOL     OW26842   0.157   2.367  12.018 -0.0541 -0.2573  0.2243
38971SOL    HW126843   0.150   2.453  12.061 -0.1633 -0.0314 -0.2405
38971SOL    HW226844   0.136   2.304  12.086 -0.9663  0.1325  0.3086
38972SOL     OW26845   8.679   7.974  10.367  0.3747 -0.3949 -0.0687
38972SOL    HW126846   8.598   7.923  10.360  0.7309 -1.0495  0.4092
38972SOL    HW226847   8.678   8.007  10.457  0.8806 -0.8314  0.1000
38973SOL     OW26848   4.943   9.619   2.777  0.6111  0.2281  0.1810
38973SOL    HW126849   4.939   9.620   2.681  1.6126  1.4817  0.1244
38973SOL    HW226850   4.852   9.611   2.805  0.4327 -3.5732 -0.8187
38974SOL     OW26851   9.902   1.232   9.887  0.1042 -0.3567  0.3284
38974SOL    HW126852   9.834   1.294   9.914 -0.4609  0.4698 -2.6756
38974SOL    HW226853   9.867   1.147   9.915 -1.7401  0.1437 -0.2640
38975SOL     OW26854  13.180   2.044   9.537  0.8484  0.5614  0.4124
38975SOL    HW126855  13.150   1.959   9.504 -1.3631  0.5333  2.2389
38975SOL    HW226856  13.210   2.025   9.626 -0.1322  1.7499  1.0187
38976SOL     OW26857   9.834   4.360  12.232 -0.1170 -0.0018 -0.3802
38976SOL    HW126858   9.761   4.344  12.173 -0.6361 -0.0061  0.2466
38976SOL    HW226859   9.807   4.321  12.315  1.1367 -1.1564 -0.4673
38977SOL     OW26860  11.683  10.141   4.395 -0.4719 -0.1412  0.2048
38977SOL    HW126861  11.640  10.117   4.314  0.8592 -0.7986 -0.3447
38977SOL    HW226862  11.701  10.235   4.386 -0.1304 -0.2568 -0.3693
38978SOL     OW26863   0.804   6.919   0.927  0.0441 -0.3066  0.4205
38978SOL    HW126864   0.825   7.011   0.910  2.0855 -0.9296 -0.7570
38978SOL    HW226865   0.737   6.897   0.863  0.0933  0.1867  0.1954
38979SOL     OW26866   1.968  10.654   1.831  0.0325  0.2290 -0.0890
38979SOL    HW126867   1.938  10.726   1.775 -1.7090  0.0502  0.5744
38979SOL    HW226868   2.010  10.698   1.906 -0.6928  0.5524  0.1320
38980SOL     OW26869  12.623   0.239   0.553 -0.3125  0.0351  0.3058
38980SOL    HW126870  12.614   0.149   0.522 -0.3116  0.5778 -1.4012
38980SOL    HW226871  12.538   0.260   0.591 -0.4017 -0.5889  0.4643
38981SOL     OW26872   4.090   9.037   5.378  0.1598 -0.1464  0.1432
38981SOL    HW126873   4.087   9.076   5.291 -0.2489  0.9523  0.6176
38981SOL    HW226874   4.043   9.100   5.433  0.0628 -1.0141  1.0819
38982SOL     OW26875   5.729   9.127   7.231 -0.4586 -0.2861 -0.2039
38982SOL    HW126876   5.679   9.185   7.174  1.8459  0.8678 -1.2158
38982SOL    HW226877   5.814   9.171   7.241  0.1419 -1.7576  1.9792
38983SOL     OW26878   6.966   0.902   9.665  0.2964 -0.7084  0.1138
38983SOL    HW126879   6.977   0.936   9.754 -0.0480 -0.0758 -0.0803
38983SOL    HW226880   7.047   0.927   9.620  1.0748 -2.2154  0.6037
38984SOL     OW26881   4.785   8.203   8.130  0.0958 -0.3690 -0.0937
38984SOL    HW126882   4.735   8.170   8.056 -1.5925 -1.7968  1.5702
38984SOL    HW226883   4.728   8.188   8.206  1.7426  0.9909  1.5122
38985SOL     OW26884   6.092   0.898  12.400  0.0870  0.0412  0.3392
38985SOL    HW126885   6.153   0.943  12.341  0.4633  0.5708  1.1218
38985SOL    HW226886   6.057   0.826  12.347  1.3592 -0.2553 -0.1411
38986SOL     OW26887   6.517   0.340   0.886 -0.7002 -0.5390  0.2540
38986SOL    HW126888   6.475   0.425   0.902 -0.4272 -0.2433 -0.5298
38986SOL    HW226889   6.451   0.290   0.838 -1.4587 -1.3641  2.0885
38987SOL     OW26890   7.713   0.938   0.990  0.2874  0.1987  0.9354
38987SOL    HW126891   7.640   0.891   1.030 -0.9009  3.5888  3.1931
38987SOL    HW226892   7.791   0.892   1.022 -0.7707 -0.3976  2.8651
38988SOL     OW26893  11.041   9.517   1.816 -0.5939  0.0438  0.2868
38988SOL    HW126894  11.000   9.458   1.751 -0.4580 -0.6267  0.7987
38988SOL    HW226895  11.042   9.602   1.773 -1.5464 -0.1524 -0.1600
38989SOL     OW26896   2.299   7.383  11.335  0.0682  0.1942  0.3754
38989SOL    HW126897   2.382   7.385  11.382 -0.5796  0.4925  1.5583
38989SOL    HW226898   2.243   7.327  11.389  0.3238 -2.4552 -1.9035
38990SOL     OW26899   3.072   0.406   5.673  0.4286  0.8435  0.8974
38990SOL    HW126900   3.055   0.378   5.763 -0.3778  1.8223  1.0654
38990SOL    HW226901   3.021   0.486   5.662  0.0119  0.4068 -0.6426
38991SOL     OW26902   2.892  12.010   0.540 -0.6595 -0.3074  0.2297
38991SOL    HW126903   2.884  12.093   0.493 -1.0386 -0.4850 -0.0181
38991SOL    HW226904   2.850  12.027   0.625 -2.5889 -0.8295 -0.5604
38992SOL     OW26905   9.244   1.244   9.286 -0.0799 -0.1647  0.0671
38992SOL    HW126906   9.218   1.157   9.316 -2.4371  0.3341 -0.3564
38992SOL    HW226907   9.199   1.254   9.202  0.5552  1.2770 -0.1170
38993SOL     OW26908   5.168   3.461   7.817  0.5356  0.2647 -0.1714
38993SOL    HW126909   5.229   3.416   7.758  0.1443 -0.5277  0.0126
38993SOL    HW226910   5.093   3.402   7.823 -0.1489  1.1192 -0.2066
38994SOL     OW26911  11.180   0.402   5.190  0.1275  0.4974 -0.2902
38994SOL    HW126912  11.085   0.391   5.186  0.0066  1.4388 -0.3936
38994SOL    HW226913  11.203   0.384   5.281  0.2525 -2.4244 -0.8224
38995SOL     OW26914  13.076  10.849   4.713  0.1299  0.1528  0.1033
38995SOL    HW126915  13.165  10.880   4.726  0.6788  0.0913 -2.7654
38995SOL    HW226916  13.024  10.895   4.779  2.2572  0.0627  1.9476
38996SOL     OW26917   6.449  12.722  10.875  0.0934  0.1565 -0.2800
38996SOL    HW126918   6.527  12.747  10.827 -1.0184  0.9925 -1.7372
38996SOL    HW226919   6.450  12.776  10.953  1.3878 -0.4608  0.1616
38997SOL     OW26920   8.061   8.512   7.217  0.1764  0.2055 -0.2685
38997SOL    HW126921   8.084   8.419   7.209 -2.9980 -1.0514  2.4785
38997SOL    HW226922   8.068   8.530   7.311 -2.4862  1.6838 -0.2611
38998SOL     OW26923  10.990   8.105   8.338 -0.6896 -0.6682  0.3339
38998SOL    HW126924  11.058   8.110   8.405 -0.4325 -1.9368  0.1882
38998SOL    HW226925  10.914   8.148   8.377  0.5658  2.1019 -0.0355
38999SOL     OW26926   5.158  11.521   7.219  0.4468  0.0702  0.2790
38999SOL    HW126927   5.177  11.453   7.284  2.7726  0.7485  0.3993
38999SOL    HW226928   5.186  11.483   7.136  0.1918  0.2800  0.0973
39000SOL     OW26929   8.155   2.794   7.904  0.1617  0.1786  0.2309
39000SOL    HW126930   8.242   2.806   7.866  0.8123 -0.9726  1.2715
39000SOL    HW226931   8.156   2.844   7.986  0.3284 -0.8700  0.8964
39001SOL     OW26932   5.634  13.103  12.345  0.0097 -0.0147 -0.4492
39001SOL    HW126933   5.651  13.181  12.293 -0.0193  0.5442  0.3534
39001SOL    HW226934   5.687  13.034  12.305  1.8036  0.9582  0.1740
39002SOL     OW26935  11.600   6.141  12.724 -0.2490  0.2972 -0.3470
39002SOL    HW126936  11.508   6.159  12.702 -1.0548 -1.8118  1.0147
39002SOL    HW226937  11.615   6.188  12.806 -0.0519  0.7840 -0.6604
39003SOL     OW26938   7.844   4.947   2.600  0.2847 -0.1249 -0.3203
39003SOL    HW126939   7.784   5.014   2.632 -0.4294 -0.6453 -0.5621
39003SOL    HW226940   7.798   4.905   2.528  2.4093  2.0085 -3.1822
39004SOL     OW26941   9.025   6.722   5.247 -0.1327 -0.0529 -0.0112
39004SOL    HW126942   9.084   6.650   5.226  0.1652 -0.2331  1.3369
39004SOL    HW226943   8.941   6.697   5.207 -0.1983 -1.4566  0.9165
39005SOL     OW26944   3.917   5.190  11.691  0.4511  0.5511 -0.2129
39005SOL    HW126945   3.846   5.235  11.646 -0.2671  1.7972  2.0456
39005SOL    HW226946   3.997   5.230  11.656 -0.0879  1.6941 -0.1777
39006SOL     OW26947   9.378   6.319   3.572  0.1778  0.1155  0.0082
39006SOL    HW126948   9.285   6.307   3.591  0.3878 -2.2576 -0.1723
39006SOL    HW226949   9.421   6.243   3.612  1.9337  0.7151 -0.6389
39007SOL     OW26950  11.736  10.973   8.884  0.8423 -0.1728  0.0612
39007SOL    HW126951  11.792  11.037   8.841  0.4578  0.1280  0.0092
39007SOL    HW226952  11.795  10.927   8.945  0.8736  1.0411  0.9753
39008SOL     OW26953   6.082  12.183   0.230 -0.0399  0.3873  0.2552
39008SOL    HW126954   6.127  12.107   0.266 -0.0272  0.2686 -0.0108
39008SOL    HW226955   6.149  12.228   0.178 -0.4197 -0.2173 -0.7947
39009SOL     OW26956   3.454   0.291  11.243 -0.1879  0.6736  0.1288
39009SOL    HW126957   3.526   0.264  11.300 -0.5329  0.2292  0.3653
39009SOL    HW226958   3.382   0.312  11.303 -0.1421  1.4728 -0.0895
39010SOL     OW26959   1.406   8.692   5.550 -0.0168  0.1528 -0.4599
39010SOL    HW126960   1.372   8.642   5.624  1.5479  1.2075  1.0614
39010SOL    HW226961   1.401   8.633   5.475 -2.8522 -0.5211  0.1734
39011SOL     OW26962   4.337   4.477   5.059 -0.1138 -0.0699 -0.3154
39011SOL    HW126963   4.400   4.543   5.033  0.0271  0.4799  1.3370
39011SOL    HW226964   4.253   4.524   5.063 -0.1048 -0.1085  0.3560
39012SOL     OW26965   1.731   6.229   4.354 -0.2760  0.1701 -0.1980
39012SOL    HW126966   1.772   6.145   4.334  0.2569  0.4145 -0.1561
39012SOL    HW226967   1.638   6.209   4.364  0.0128 -0.6705  1.1991
39013SOL     OW26968  11.763   2.521   0.932 -0.0681  0.3683 -0.6780
39013SOL    HW126969  11.715   2.478   1.003 -0.4149  0.9078 -0.5786
39013SOL    HW226970  11.851   2.534   0.966 -0.1992  0.5107 -0.3863
39014SOL     OW26971   2.499  13.026   4.502 -0.1423  0.2176  0.9910
39014SOL    HW126972   2.498  13.107   4.451  1.2923 -0.1250  0.3820
39014SOL    HW226973   2.565  13.040   4.570  2.1067 -1.3436 -0.7345
39015SOL     OW26974   8.985   4.352   4.338  0.0954  0.2191  0.0495
39015SOL    HW126975   8.908   4.303   4.367 -0.5434  0.3508 -1.3193
39015SOL    HW226976   9.009   4.407   4.412 -0.0185 -1.1367  1.1311
39016SOL     OW26977   1.522   5.225   5.674  0.2797  0.5314 -0.6547
39016SOL    HW126978   1.582   5.226   5.599 -0.2949 -1.9324 -1.2431
39016SOL    HW226979   1.439   5.194   5.637  0.2387 -1.6609  1.1136
39017SOL     OW26980   4.774   5.265  10.767  0.2821 -0.1958 -0.1942
39017SOL    HW126981   4.767   5.170  10.778 -1.1365  0.0508  1.3864
39017SOL    HW226982   4.687   5.299  10.786  1.3641  1.6450  2.0690
39018SOL     OW26983  10.575  11.797  11.425  0.0505 -0.5707 -0.9427
39018SOL    HW126984  10.555  11.707  11.448 -0.2119 -1.3376 -3.7661
39018SOL    HW226985  10.499  11.848  11.454  0.0506 -1.2866  0.3565
39019SOL     OW26986   3.212   9.823   5.026 -0.0148 -0.2083  0.1933
39019SOL    HW126987   3.305   9.818   5.045  0.4008 -0.1373 -1.5950
39019SOL    HW226988   3.192   9.740   4.983 -0.5223  0.1924 -0.3678
39020SOL     OW26989  11.291   2.923  12.831  0.2974 -0.3093 -0.1969
39020SOL    HW126990  11.261   3.005  12.793 -0.6738 -0.2911  0.5671
39020SOL    HW226991  11.312   2.868  12.755 -2.1299 -0.4826 -0.8295
39021SOL     OW26992   0.375   7.716   8.294 -0.2426 -0.1173 -0.1109
39021SOL    HW126993   0.343   7.796   8.253  0.3489  0.4836  0.5624
39021SOL    HW226994   0.467   7.735   8.315 -0.5170 -0.4013  1.4478
39022SOL     OW26995   7.948   9.354   7.960  0.9938 -0.2967  0.1641
39022SOL    HW126996   7.862   9.314   7.969  0.4272  0.7168 -0.5111
39022SOL    HW226997   7.993   9.300   7.894  0.7455 -0.6206  0.2597
39023SOL     OW26998   5.258   5.495  12.724 -0.1820 -0.5762 -0.2672
39023SOL    HW126999   5.285   5.406  12.748  2.1970  0.2925  0.5670
39023SOL    HW227000   5.193   5.482  12.655  0.2016 -2.9509 -0.2847
39024SOL     OW27001   7.092   5.569   2.734 -0.3968 -0.3642 -0.2356
39024SOL    HW127002   7.019   5.615   2.694 -0.6586 -0.7476 -0.1947
39024SOL    HW227003   7.132   5.634   2.792 -2.1882 -0.8705  1.6383
39025SOL     OW27004   5.233  10.188   4.799 -0.0659 -0.2917  0.3835
39025SOL    HW127005   5.192  10.184   4.886  1.8473 -0.5370  1.3430
39025SOL    HW227006   5.211  10.104   4.758 -1.4319  0.0456  0.4033
39026SOL     OW27007  12.384   8.871  11.286  0.0342  0.2329 -0.1489
39026SOL    HW127008  12.425   8.895  11.370  0.7262 -1.0638 -0.0804
39026SOL    HW227009  12.355   8.781  11.300  0.8485 -0.2726 -1.5386
39027SOL     OW27010   6.817   3.417   9.837 -0.3640 -0.3319  0.1396
39027SOL    HW127011   6.818   3.494   9.780 -1.0694 -1.6026 -1.7135
39027SOL    HW227012   6.741   3.367   9.808  0.4130 -2.0119  0.8554
39028SOL     OW27013   6.891   5.656  11.124  0.1939  0.6236  0.0447
39028SOL    HW127014   6.846   5.717  11.065  1.6389  2.7308  1.0037
39028SOL    HW227015   6.821   5.622  11.180 -1.2602 -1.5878 -2.8311
39029SOL     OW27016  13.053  12.911   2.222 -0.1035 -0.3606 -0.0557
39029SOL    HW127017  13.125  12.971   2.243  0.4138 -0.0002 -2.5210
39029SOL    HW227018  12.975  12.966   2.223  0.4702  0.7088 -3.1719
39030SOL     OW27019   9.868   4.748   1.527  0.6298 -0.1051 -0.5678
39030SOL    HW127020   9.846   4.841   1.519  2.2421  0.3056 -0.5524
39030SOL    HW227021   9.896   4.739   1.618  0.1780 -0.7005 -0.4794
39031SOL     OW27022   1.068  12.498   2.646  0.2980 -0.1188  0.2627
39031SOL    HW127023   1.101  12.512   2.557 -1.2530  1.1369 -0.1667
39031SOL    HW227024   1.000  12.564   2.657  0.8866  0.1804  2.6520
39032SOL     OW27025   3.345  12.543   3.235  0.6321 -0.4057 -0.0948
39032SOL    HW127026   3.321  12.623   3.281  2.2692 -0.2905  0.6649
39032SOL    HW227027   3.353  12.568   3.144  1.4559  0.4143  0.1866
39033SOL     OW27028   2.952  10.569   5.707 -0.8065 -0.0688 -0.2011
39033SOL    HW127029   3.008  10.508   5.660  0.8173  0.4918  0.9085
39033SOL    HW227030   2.952  10.649   5.654 -0.2203  0.0535 -0.0258
39034SOL     OW27031   3.616   4.749   9.871  0.1401  0.3097 -0.3030
39034SOL    HW127032   3.671   4.672   9.864 -1.3675 -0.8437 -0.0337
39034SOL    HW227033   3.640   4.803   9.795  2.5199  0.5068  0.5318
39035SOL     OW27034   0.684  13.036   9.635  0.2587 -0.3308  0.0102
39035SOL    HW127035   0.767  12.989   9.635 -0.1465 -1.0653 -1.1290
39035SOL    HW227036   0.671  13.060   9.727  1.6882 -0.2549  0.2219
39036SOL     OW27037  12.431   2.684   4.911 -0.0553 -0.2540 -0.0743
39036SOL    HW127038  12.383   2.653   4.988  0.8316 -2.0564 -0.1984
39036SOL    HW227039  12.514   2.717   4.946 -0.1566  0.0686 -0.1393
39037SOL     OW27040   1.672  11.831  12.215  0.0542  0.1592 -0.1459
39037SOL    HW127041   1.594  11.810  12.163 -0.2653 -0.4506  0.5760
39037SOL    HW227042   1.729  11.877  12.153 -1.8591  2.8772 -0.0946
39038SOL     OW27043   4.378   2.995   4.366  0.6260  0.2975 -0.1134
39038SOL    HW127044   4.325   3.072   4.387  0.8842  0.1052  1.3876
39038SOL    HW227045   4.333   2.953   4.293 -0.5231  0.8849  0.2383
39039SOL     OW27046  12.321   4.580   5.140 -0.2022 -0.0931  0.3812
39039SOL    HW127047  12.372   4.655   5.172  0.3485 -0.9348  1.5370
39039SOL    HW227048  12.267   4.554   5.215 -0.8404 -0.4826 -0.2051
39040SOL     OW27049  12.754   4.506   6.763 -0.5978 -0.7511  0.2195
39040SOL    HW127050  12.827   4.492   6.823 -0.0905 -0.8429 -0.4182
39040SOL    HW227051  12.734   4.599   6.770 -0.5668 -0.7665  0.5501
39041SOL     OW27052  11.388   6.528   8.488 -0.5688 -0.1209  0.7577
39041SOL    HW127053  11.402   6.611   8.534 -1.9611  0.7890 -0.3698
39041SOL    HW227054  11.296   6.506   8.507 -1.2091  0.3104 -1.5692
39042SOL     OW27055   2.519   6.336   5.301 -0.1744  0.0795 -0.4455
39042SOL    HW127056   2.429   6.332   5.270 -0.1247  0.5954 -0.6641
39042SOL    HW227057   2.571   6.351   5.222  0.0789  0.0678 -0.2836
39043SOL     OW27058   1.130  10.570  11.018 -0.5033  0.1564  0.1392
39043SOL    HW127059   1.057  10.547  11.075 -0.3398 -0.4983  0.0968
39043SOL    HW227060   1.096  10.642  10.964 -0.7449  0.5970  0.8659
39044SOL     OW27061   4.258  12.582   9.669  0.3860 -1.0478 -0.2049
39044SOL    HW127062   4.310  12.647   9.623  1.3705 -0.5618  1.5309
39044SOL    HW227063   4.312  12.555   9.743 -2.3168  0.5709  2.5834
39045SOL     OW27064   4.482   5.845   2.256  0.4877  0.4698  0.2773
39045SOL    HW127065   4.554   5.867   2.198 -0.5177 -0.9123 -1.6185
39045SOL    HW227066   4.468   5.752   2.243 -1.2760  0.5903  1.0137
39046SOL     OW27067   6.045   7.375   5.177  0.4672 -0.2799 -0.0108
39046SOL    HW127068   6.030   7.289   5.137  2.3146 -1.4611  1.6120
39046SOL    HW227069   6.038   7.359   5.272  0.5277  1.4431  0.3224
39047SOL     OW27070   9.874   7.210  10.888 -0.1366 -0.3232 -0.2175
39047SOL    HW127071   9.783   7.230  10.910 -0.0812 -0.7793  0.4578
39047SOL    HW227072   9.872   7.188  10.795 -0.3400  1.8601 -0.7826
39048SOL     OW27073   4.062  11.668   3.382 -0.2998 -0.1434 -0.0766
39048SOL    HW127074   4.156  11.675   3.366 -0.5215  1.0912 -0.9518
39048SOL    HW227075   4.023  11.654   3.295 -1.0493  0.9004  0.0749
39049SOL     OW27076  12.625   6.581   1.177  0.1865 -0.0728  0.7818
39049SOL    HW127077  12.633   6.487   1.160 -0.6384  0.0698 -0.5419
39049SOL    HW227078  12.562   6.587   1.248 -1.2602 -0.4729 -0.4181
39050SOL     OW27079   7.819   5.033   0.059 -0.6013  0.0039 -0.0883
39050SOL    HW127080   7.876   5.049   0.135  0.4335 -0.7420 -0.6850
39050SOL    HW227081   7.754   4.969   0.090 -0.2327 -0.2349  0.1930
39051SOL     OW27082   2.496  10.535   0.154 -0.2021  0.6165  0.3726
39051SOL    HW127083   2.511  10.475   0.080 -0.9208  0.6578  0.1794
39051SOL    HW227084   2.579  10.581   0.165 -0.1974  0.8948 -0.6775
39052SOL     OW27085   0.890   7.348  11.529  0.1833  0.0937 -0.1924
39052SOL    HW127086   0.836   7.372  11.454  1.1401  1.2885 -0.5362
39052SOL    HW227087   0.887   7.252  11.531 -0.8364  0.0897 -1.0042
39053SOL     OW27088   4.335   5.911   1.524 -0.2103 -0.3610 -0.5769
39053SOL    HW127089   4.340   5.905   1.429  0.7673 -2.5778 -0.4453
39053SOL    HW227090   4.249   5.875   1.547  0.6903 -2.6122 -0.5133
39054SOL     OW27091   9.235   9.003   6.111 -0.4948  0.0237  0.3440
39054SOL    HW127092   9.140   8.998   6.124 -0.2810 -1.3720  1.7405
39054SOL    HW227093   9.266   8.914   6.130  1.0190  0.2594 -0.8617
39055SOL     OW27094   1.675   5.578   8.474 -0.2548  0.0994 -0.0370
39055SOL    HW127095   1.670   5.485   8.454 -4.6888  0.1580 -0.2993
39055SOL    HW227096   1.710   5.619   8.395 -3.0392 -1.0152 -1.9943
39056SOL     OW27097   9.225   3.425   8.171 -0.0904 -0.1133 -0.3333
39056SOL    HW127098   9.181   3.504   8.201 -0.6748 -0.7117  0.4254
39056SOL    HW227099   9.234   3.371   8.250 -1.5126 -1.6644 -1.1651
39057SOL     OW27100   5.667  13.302   8.653 -0.2922  0.2467  0.1097
39057SOL    HW127101   5.630  13.388   8.672 -0.9106  0.0821 -0.3008
39057SOL    HW227102   5.593  13.251   8.620  0.5410  0.2795 -1.9448
39058SOL     OW27103   6.467   8.277   8.589  0.0233  0.2986 -0.2252
39058SOL    HW127104   6.427   8.249   8.672  2.3728 -0.7365  0.6307
39058SOL    HW227105   6.422   8.225   8.522 -0.5957 -0.2605  0.5977
39059SOL     OW27106   4.601   5.090   3.971  0.3361 -0.0329  0.2609
39059SOL    HW127107   4.533   5.146   3.932 -0.4093 -1.3693 -0.4625
39059SOL    HW227108   4.683   5.127   3.939  0.0335  1.9882  1.6356
39060SOL     OW27109   8.387  12.131  10.040 -0.3599 -0.0854 -0.3748
39060SOL    HW127110   8.437  12.110  10.119  0.5364 -1.1749 -1.1833
39060SOL    HW227111   8.454  12.146   9.973 -0.9948 -3.3915 -1.9465
39061SOL     OW27112   4.541   7.610   6.068 -0.0720  0.3177 -0.4035
39061SOL    HW127113   4.471   7.635   6.128  0.0139  0.4598 -0.3609
39061SOL    HW227114   4.502   7.545   6.010  0.0311 -0.3381  0.2423
39062SOL     OW27115  11.624  11.139   8.234 -0.1949  0.4021 -0.3922
39062SOL    HW127116  11.658  11.194   8.304  0.1769 -0.7633  0.3881
39062SOL    HW227117  11.693  11.074   8.220 -2.2760 -2.5555  1.7975
39063SOL     OW27118   8.142   7.315   5.210  0.1948  0.7714 -0.6169
39063SOL    HW127119   8.077   7.362   5.159 -0.7635 -0.1342 -0.2650
39063SOL    HW227120   8.186   7.382   5.262 -0.3274  1.4178 -1.0025
39064SOL     OW27121   0.486   7.101   4.839  0.2894 -0.5568  0.1365
39064SOL    HW127122   0.484   7.125   4.932 -0.6239  2.0181 -0.4667
39064SOL    HW227123   0.467   7.008   4.838 -0.7564 -0.4403  2.4902
39065SOL     OW27124   2.998   9.073   6.782 -0.3301  0.3627  0.5302
39065SOL    HW127125   3.088   9.104   6.789  0.1430 -0.8020 -0.0380
39065SOL    HW227126   2.955   9.106   6.860  0.3052  1.8250  0.2923
39066SOL     OW27127  12.830   4.227   1.840  0.0779  0.2021  0.2182
39066SOL    HW127128  12.780   4.308   1.828  1.9754  1.3517 -0.4502
39066SOL    HW227129  12.897   4.250   1.905 -0.1694 -1.2561  1.0204
39067SOL     OW27130   3.935   8.416   3.951  0.2374 -0.5654 -0.0909
39067SOL    HW127131   4.030   8.430   3.945  0.1496  1.5398  2.0113
39067SOL    HW227132   3.917   8.347   3.888  3.3595 -1.9796  0.3957
39068SOL     OW27133   9.030   6.619   2.376  0.4216 -0.2695 -0.3312
39068SOL    HW127134   9.090   6.554   2.341 -0.6783  0.2202 -3.4873
39068SOL    HW227135   8.947   6.572   2.387  0.4048 -0.0930  0.3147
39069SOL     OW27136   0.509   9.480   8.801  0.3128 -0.7211  0.6475
39069SOL    HW127137   0.571   9.413   8.830  0.5621 -0.5103  0.6090
39069SOL    HW227138   0.508   9.544   8.872 -0.3451 -1.0387  0.9321
39070SOL     OW27139   9.406   7.541  11.260  0.2070 -0.0697 -0.4389
39070SOL    HW127140   9.453   7.592  11.325  0.8824 -1.4161  0.1759
39070SOL    HW227141   9.436   7.575  11.176  0.3281  0.7936 -0.0546
39071SOL     OW27142   3.810   4.398   3.516 -0.4234 -0.0494  0.5371
39071SOL    HW127143   3.776   4.487   3.518  0.1004  0.3115 -2.4810
39071SOL    HW227144   3.853   4.387   3.601 -1.5570  2.1101  1.4586
39072SOL     OW27145  11.942   1.673   0.067  0.6209 -0.0190 -0.8748
39072SOL    HW127146  12.007   1.728   0.023 -1.0243  1.3212 -1.7233
39072SOL    HW227147  11.903   1.730   0.133 -0.7274 -0.3332 -1.3865
39073SOL     OW27148   5.294   7.271  10.006  0.6824  0.1253 -0.1344
39073SOL    HW127149   5.294   7.263   9.910  2.0402  0.1312 -0.1489
39073SOL    HW227150   5.377   7.313  10.027 -0.2634  1.5475  0.9638
39074SOL     OW27151   0.260  11.697   2.862  0.2313 -0.3030 -0.1020
39074SOL    HW127152   0.353  11.685   2.876 -0.2402 -4.4169  0.8505
39074SOL    HW227153   0.218  11.636   2.923 -3.0339  0.5220 -1.2842
39075SOL     OW27154   1.540   3.932  11.267 -0.2118  0.1078 -0.4694
39075SOL    HW127155   1.536   3.982  11.186  0.2050 -1.1159 -1.2788
39075SOL    HW227156   1.608   3.974  11.319  0.0942  0.4053 -1.1053
39076SOL     OW27157   5.095   5.754   1.381  0.2309 -0.1682  0.4623
39076SOL    HW127158   5.159   5.821   1.407 -0.4522 -0.1890  2.3825
39076SOL    HW227159   5.126   5.674   1.424 -1.5436  0.0388  2.3034
39077SOL     OW27160   8.887   8.145   9.391  0.0563  0.2290  0.7309
39077SOL    HW127161   8.816   8.120   9.450  0.8299  1.5949  2.3456
39077SOL    HW227162   8.923   8.062   9.359 -0.2462 -0.5730  2.3757
39078SOL     OW27163   6.581   2.863   5.401 -0.0156  0.3552  0.1551
39078SOL    HW127164   6.569   2.871   5.307 -1.2598  0.3908  0.3035
39078SOL    HW227165   6.671   2.831   5.411 -0.3121 -0.9760 -1.0928
39079SOL     OW27166  10.060   7.541   4.328  0.4125  0.2775 -0.0177
39079SOL    HW127167  10.086   7.506   4.414  1.2638 -0.0857 -0.4136
39079SOL    HW227168  10.131   7.598   4.302 -0.8131  2.1148  0.4572
39080SOL     OW27169   9.047  12.679   6.711 -0.8019  0.4378 -0.3837
39080SOL    HW127170   9.096  12.702   6.632  1.2836 -0.8092  0.4562
39080SOL    HW227171   9.112  12.682   6.782 -1.3525 -3.1644  0.5180
39081SOL     OW27172   6.414   2.696  13.208  0.3278 -0.3372  0.1702
39081SOL    HW127173   6.433   2.709  13.301 -1.7198 -0.7695  0.6955
39081SOL    HW227174   6.475   2.627  13.180  0.4749 -0.7115  1.3767
39082SOL     OW27175  13.034  11.491   9.189 -0.1260 -0.0287  0.3736
39082SOL    HW127176  13.042  11.586   9.202  0.1187  0.3072 -1.9085
39082SOL    HW227177  13.120  11.457   9.213  0.4031  0.5758 -0.6031
39083SOL     OW27178   6.967   7.323   3.112 -0.1144  0.4147  0.2954
39083SOL    HW127179   6.965   7.242   3.061 -0.9366 -0.0826  1.0715
39083SOL    HW227180   6.887   7.369   3.088 -0.6630  0.0379  1.3066
39084SOL     OW27181   2.761   2.654   4.891  0.0170 -0.1806 -0.7307
39084SOL    HW127182   2.782   2.733   4.840  0.7459 -0.8412 -1.4756
39084SOL    HW227183   2.672   2.631   4.864  0.0156  0.0609 -0.9375
39085SOL     OW27184   4.360  10.549   2.370 -0.2485  0.2372  0.0929
39085SOL    HW127185   4.386  10.470   2.418  2.3203  1.2626  0.6049
39085SOL    HW227186   4.307  10.517   2.298  2.2667 -2.2637 -0.8599
39086SOL     OW27187   8.339   6.056  11.870 -0.4708 -0.0006  0.0519
39086SOL    HW127188   8.321   6.099  11.953 -2.1380 -0.9051  0.2020
39086SOL    HW227189   8.361   5.966  11.893 -1.9334 -0.5275 -0.5188
39087SOL     OW27190  12.192   9.826  13.296 -0.3024  0.5287 -0.0727
39087SOL    HW127191  12.222   9.871  13.217 -2.2635  1.8828 -0.1173
39087SOL    HW227192  12.133   9.758  13.263  1.3648 -1.1008  0.1016
39088SOL     OW27193   9.049   7.783   1.161 -0.9161  0.1255  0.1012
39088SOL    HW127194   9.051   7.812   1.069 -0.6028 -1.1421 -0.3150
39088SOL    HW227195   9.024   7.860   1.210  0.2022  1.1859 -0.9193
39089SOL     OW27196   1.389   0.710   1.760  0.1526  0.4793 -0.1346
39089SOL    HW127197   1.468   0.762   1.770 -1.2332  2.4745  1.0932
39089SOL    HW227198   1.418   0.629   1.718  3.0262  0.6229  1.3653
39090SOL     OW27199   0.833   9.025   0.832  0.2974 -0.1634  0.1885
39090SOL    HW127200   0.882   8.946   0.855  0.1212 -0.2562  0.2474
39090SOL    HW227201   0.900   9.090   0.813  0.5125 -1.0379 -2.5198
39091SOL     OW27202  11.763   2.135   5.486  0.1697 -0.2185 -0.2363
39091SOL    HW127203  11.797   2.084   5.413 -1.1832  0.8425 -1.6782
39091SOL    HW227204  11.712   2.073   5.537 -0.0393 -0.6875 -1.0020
39092SOL     OW27205  12.628  12.825  12.260 -0.3802 -0.2032 -0.0030
39092SOL    HW127206  12.704  12.876  12.289 -0.0243 -0.4925 -0.4085
39092SOL    HW227207  12.617  12.849  12.168 -1.2277  0.3777  0.2469
39093SOL     OW27208   8.014   7.582   0.751  0.1202 -0.1301 -0.5594
39093SOL    HW127209   7.931   7.534   0.744  0.5580 -1.4256  1.9901
39093SOL    HW227210   8.050   7.579   0.662 -1.1376 -2.2781 -1.0894
39094SOL     OW27211   2.031   9.268   9.570 -0.0503 -0.0283 -0.1992
39094SOL    HW127212   1.990   9.354   9.577  1.6176  0.7225  1.1836
39094SOL    HW227213   2.025   9.232   9.658  0.8126 -0.5637 -0.3486
39095SOL     OW27214  10.115   3.782   3.130  0.0130 -0.2228 -0.1005
39095SOL    HW127215  10.023   3.790   3.155  0.1874 -1.5327  1.0493
39095SOL    HW227216  10.162   3.836   3.193  0.1581 -0.7485  0.2429
39096SOL     OW27217   6.258   5.324  11.542  0.4784  0.0566 -0.9300
39096SOL    HW127218   6.346   5.288  11.536  0.3272 -0.1072 -3.1489
39096SOL    HW227219   6.263   5.408  11.497 -0.2744  0.5473 -0.1337
39097SOL     OW27220   7.505   7.179   8.899  0.1400  0.2798 -0.2438
39097SOL    HW127221   7.584   7.171   8.846  0.8610  0.7585  0.7207
39097SOL    HW227222   7.465   7.092   8.894  1.4443 -0.4003  0.3008
39098SOL     OW27223   0.156   0.073   6.165 -0.4319  0.3563 -0.2990
39098SOL    HW127224   0.190   0.160   6.143  1.4950 -0.4079 -0.5695
39098SOL    HW227225   0.222   0.036   6.224 -0.0756 -1.7269 -1.8805
39099SOL     OW27226  11.952   7.459  11.194  0.4106  0.4146 -0.3232
39099SOL    HW127227  11.880   7.522  11.198 -0.2797 -0.2647 -1.5095
39099SOL    HW227228  12.028   7.511  11.169  0.2589  1.0747  0.5498
39100SOL     OW27229  11.554   7.954   8.765 -0.8021 -0.9351 -0.1956
39100SOL    HW127230  11.525   7.936   8.675 -0.7122 -1.0816 -0.1964
39100SOL    HW227231  11.615   7.882   8.785  2.6388  1.3381 -1.5736
39101SOL     OW27232   9.831   6.495   6.939  0.0158  0.2385 -0.3163
39101SOL    HW127233   9.880   6.435   6.883  0.5722  0.6527 -0.2767
39101SOL    HW227234   9.795   6.560   6.878  0.0518  0.3000 -0.2713
39102SOL     OW27235   0.503   1.158   8.036  0.2177 -0.5604  0.4650
39102SOL    HW127236   0.414   1.175   8.068  0.3233 -1.5537  1.3286
39102SOL    HW227237   0.493   1.149   7.941 -0.2523  1.4623  0.2645
39103SOL     OW27238   6.632   3.803   0.574  0.9256 -0.1918 -0.4076
39103SOL    HW127239   6.645   3.898   0.579 -4.1303  0.8112 -1.1105
39103SOL    HW227240   6.662   3.780   0.486 -0.8017  1.5318 -1.5381
39104SOL     OW27241   5.991  11.174   5.344 -0.1565 -0.0483 -0.1429
39104SOL    HW127242   5.966  11.265   5.356  0.2216  0.2074 -1.2207
39104SOL    HW227243   5.958  11.130   5.422  0.0185  1.0786  0.5932
39105SOL     OW27244   0.256  11.884   3.618 -0.3065  0.4743  0.2636
39105SOL    HW127245   0.163  11.885   3.595 -0.2680 -1.2416 -0.1120
39105SOL    HW227246   0.294  11.817   3.561  0.9684  0.4467  1.1094
39106SOL     OW27247  11.117   4.180   2.769  0.0447  0.6384  0.3386
39106SOL    HW127248  11.083   4.141   2.849 -0.0647 -0.6795 -0.3112
39106SOL    HW227249  11.193   4.231   2.797  0.0218  0.1761  1.2714
39107SOL     OW27250  10.404  11.091  10.705 -0.0290  0.0020  0.3605
39107SOL    HW127251  10.423  11.001  10.678 -0.0490  0.3299 -0.8042
39107SOL    HW227252  10.416  11.143  10.625 -2.2494  0.7197  0.4259
39108SOL     OW27253   9.289  10.389  11.828  0.1511 -0.1669  0.6707
39108SOL    HW127254   9.333  10.347  11.902  0.9969  0.7825  0.7278
39108SOL    HW227255   9.360  10.422  11.773 -0.4775 -0.0026 -0.0662
39109SOL     OW27256   4.219   8.998   0.889 -0.4302 -0.3465 -0.2294
39109SOL    HW127257   4.212   9.069   0.825 -0.2966 -0.2011 -0.0840
39109SOL    HW227258   4.158   8.932   0.858 -0.1903 -0.3769 -0.6380
39110SOL     OW27259   6.449  13.025   3.583  0.8464 -0.4158  0.1721
39110SOL    HW127260   6.445  13.118   3.562  0.3160 -0.0072  1.8518
39110SOL    HW227261   6.533  12.995   3.548 -0.1033  0.0397 -2.6851
39111SOL     OW27262   7.203   9.437   3.880  0.2254 -0.0344 -0.5112
39111SOL    HW127263   7.159   9.479   3.807  0.9325 -1.6348 -1.9218
39111SOL    HW227264   7.274   9.386   3.840  0.9227 -0.6123  1.3263
39112SOL     OW27265  13.086   6.251  11.671  0.3567  0.8510 -0.1021
39112SOL    HW127266  13.093   6.327  11.614 -1.8757  1.6735  0.6000
39112SOL    HW227267  13.109   6.284  11.758 -0.4126  0.6967  0.1691
39113SOL     OW27268   8.934   8.561   8.954 -0.2133 -0.1016 -0.1195
39113SOL    HW127269   9.029   8.567   8.963 -0.2705 -1.5213  3.2372
39113SOL    HW227270   8.907   8.647   8.922  2.0845  0.9835  0.6115
39114SOL     OW27271   3.589   3.414   5.494  0.4967 -0.0893 -0.1183
39114SOL    HW127272   3.506   3.374   5.519  1.5083 -1.9280  0.5570
39114SOL    HW227273   3.627   3.444   5.576  0.9290 -0.1651 -0.2874
39115SOL     OW27274   5.491   7.911   9.591 -0.1547  0.5144  0.0559
39115SOL    HW127275   5.441   7.992   9.596 -0.1818  0.5160 -0.2238
39115SOL    HW227276   5.481   7.882   9.500 -1.1239 -0.4230  0.4384
39116SOL     OW27277  10.078   8.587   2.986 -0.0409  0.2121  0.5489
39116SOL    HW127278  10.098   8.535   3.064 -0.4290  0.9387  1.1512
39116SOL    HW227279  10.085   8.678   3.016  3.3417  0.6738 -1.0919
39117SOL     OW27280   0.488   4.585   4.708  0.0790  0.0922 -0.5642
39117SOL    HW127281   0.502   4.613   4.798  0.3250  0.0313 -0.5819
39117SOL    HW227282   0.414   4.637   4.677  0.7152  0.9324 -0.6915
39118SOL     OW27283   2.414   8.720   4.232 -0.2346  0.0577  0.4700
39118SOL    HW127284   2.388   8.763   4.151  3.3093 -1.4553 -1.7109
39118SOL    HW227285   2.465   8.786   4.279  0.8811 -0.1249 -0.4271
39119SOL     OW27286   8.551   8.462   9.392 -0.5296 -0.3113 -0.0386
39119SOL    HW127287   8.610   8.408   9.339 -1.0435 -0.6174 -0.3140
39119SOL    HW227288   8.609   8.515   9.447  0.0690  0.7306 -1.5952
39120SOL     OW27289   4.886   0.685   3.016  0.5268  0.1919 -0.0685
39120SOL    HW127290   4.911   0.651   2.931 -0.9085  0.0961 -0.4908
39120SOL    HW227291   4.795   0.657   3.027  0.3465  1.1092  1.0147
39121SOL     OW27292  12.574   6.424   6.729  0.4437 -0.9024  0.5185
39121SOL    HW127293  12.499   6.378   6.767 -0.2549 -1.0448 -0.9490
39121SOL    HW227294  12.607   6.364   6.662 -0.5233  0.6992 -1.4885
39122SOL     OW27295   3.618  11.596  12.107 -0.0731 -0.0346  0.2366
39122SOL    HW127296   3.618  11.689  12.083 -1.1539 -0.0613  0.0757
39122SOL    HW227297   3.637  11.550  12.025 -3.3391 -0.1039 -0.6350
39123SOL     OW27298   7.791  11.102   7.116 -0.1849  0.5332 -0.5770
39123SOL    HW127299   7.756  11.022   7.156  0.1929  0.7349  0.1630
39123SOL    HW227300   7.748  11.106   7.030 -1.1240  0.1865 -0.1370
39124SOL     OW27301  11.126  10.724   2.137 -0.2173 -0.1832  0.4746
39124SOL    HW127302  11.057  10.694   2.078 -1.4776 -1.2683  2.4251
39124SOL    HW227303  11.168  10.644   2.168  1.5539  0.4431 -0.1801
39125SOL     OW27304   7.618   5.751   3.230 -0.5376 -0.4119 -0.2219
39125SOL    HW127305   7.654   5.832   3.268 -0.9408  0.4106 -1.5261
39125SOL    HW227306   7.529   5.745   3.267 -0.5706 -0.1635 -0.2582
39126SOL     OW27307   2.205   1.079   7.767  0.2764 -0.1146  0.4245
39126SOL    HW127308   2.117   1.043   7.782  0.2135 -0.8046 -1.3338
39126SOL    HW227309   2.191   1.172   7.754 -0.1860 -0.1993  0.3039
39127SOL     OW27310   2.878  12.737   4.927  0.3251 -0.1547 -1.0941
39127SOL    HW127311   2.932  12.670   4.886 -0.2483 -0.7490 -0.8911
39127SOL    HW227312   2.796  12.736   4.877  0.2942  0.3560 -1.0575
39128SOL     OW27313  11.926   2.564   5.192  0.1592 -0.4957  0.5083
39128SOL    HW127314  11.881   2.645   5.214  0.3106 -0.3722  0.3654
39128SOL    HW227315  11.862   2.495   5.212  0.3210 -0.3974  1.3925
39129SOL     OW27316   1.584   5.467  12.475  0.5868  0.0956  0.2870
39129SOL    HW127317   1.627   5.383  12.462  2.0835  1.1814 -2.7912
39129SOL    HW227318   1.491   5.449  12.465  0.9836 -1.0161 -2.0675
39130SOL     OW27319   2.135   8.036  11.956 -0.0281  0.3573  0.3503
39130SOL    HW127320   2.104   8.119  11.990  0.5129  0.7171 -0.0121
39130SOL    HW227321   2.196   8.060  11.886 -0.2541 -0.3494 -0.1008
39131SOL     OW27322   4.588   7.930   8.995 -0.7541 -0.2040 -0.3115
39131SOL    HW127323   4.511   7.878   8.971 -0.5309 -0.2746 -0.8849
39131SOL    HW227324   4.633   7.877   9.060 -2.4436  0.8771  1.8837
39132SOL     OW27325  10.897   6.707   7.738 -0.2982 -0.3683 -0.5846
39132SOL    HW127326  10.867   6.641   7.676  1.1130 -0.6019 -1.0402
39132SOL    HW227327  10.847   6.785   7.716 -0.0677 -0.5485 -1.7786
39133SOL     OW27328   5.745   7.859   3.255 -0.0203 -0.2980 -0.6015
39133SOL    HW127329   5.825   7.826   3.295 -1.1854 -1.2663  1.0266
39133SOL    HW227330   5.729   7.943   3.298 -0.3024 -0.4856 -0.3369
39134SOL     OW27331  10.926   0.789  12.438 -0.5603 -0.3877 -0.2797
39134SOL    HW127332  10.861   0.846  12.396 -0.6037 -0.0358  0.2625
39134SOL    HW227333  10.993   0.776  12.371  0.4865  1.9728  0.2200
39135SOL     OW27334   0.259   5.028  11.429  0.2317  0.4400  0.0603
39135SOL    HW127335   0.311   5.105  11.453  0.6026  0.8394 -1.8488
39135SOL    HW227336   0.309   4.986  11.360 -2.0649  1.0276 -2.1329
39136SOL     OW27337   2.676  11.185   3.333  0.0485 -0.1422 -0.0770
39136SOL    HW127338   2.752  11.127   3.339  1.6349  1.8731  0.4122
39136SOL    HW227339   2.691  11.252   3.399 -3.1259 -0.6418  1.3277
39137SOL     OW27340   8.050   8.029   5.710  0.2376  0.1240  0.3345
39137SOL    HW127341   8.107   8.085   5.761 -0.6350  0.2555  1.1992
39137SOL    HW227342   8.049   7.945   5.757  1.5742 -0.6647 -0.9749
39138SOL     OW27343  11.632  13.159   8.223  0.6235 -0.4677  0.0151
39138SOL    HW127344  11.710  13.124   8.180  1.2178  1.3324 -0.4644
39138SOL    HW227345  11.657  13.170   8.314  1.2291  0.8548 -0.2927
39139SOL     OW27346   2.534   9.244  13.220  0.2674  0.5575  0.3788
39139SOL    HW127347   2.626   9.220  13.209  0.4097  0.8637  0.8166
39139SOL    HW227348   2.534   9.340  13.211 -0.2626  0.4298 -1.2210
39140SOL     OW27349   3.643  12.789   4.480  0.3987 -0.3385  0.4697
39140SOL    HW127350   3.672  12.700   4.461  1.3868  0.1003 -0.2180
39140SOL    HW227351   3.595  12.782   4.562  1.1830 -1.3756  0.8673
39141SOL     OW27352   4.376   4.593   9.220  0.6659 -0.1675 -0.0496
39141SOL    HW127353   4.326   4.638   9.153  0.2692  0.4828  0.6659
39141SOL    HW227354   4.322   4.517   9.242  1.4846 -1.2043 -1.4799
39142SOL     OW27355   2.775  12.630   7.908 -0.2573 -0.4704 -0.1216
39142SOL    HW127356   2.846  12.598   7.963  1.5044 -0.7480 -2.4285
39142SOL    HW227357   2.817  12.660   7.828 -2.4848  1.9934 -0.5027
39143SOL     OW27358   3.901  11.301   8.383  0.2126 -0.3383 -0.3661
39143SOL    HW127359   3.961  11.367   8.419 -1.0104 -1.0778  3.5330
39143SOL    HW227360   3.822  11.351   8.360  0.3839 -0.0374 -0.3071
39144SOL     OW27361  10.770   1.234  12.602 -0.3855 -0.0290  0.5643
39144SOL    HW127362  10.802   1.254  12.690  0.4513 -0.6712  0.4146
39144SOL    HW227363  10.849   1.227  12.548 -0.8849  0.2926 -0.2345
39145SOL     OW27364   2.960   0.143   1.401  0.2425  0.1967  0.1697
39145SOL    HW127365   3.029   0.113   1.342  0.1165  1.0481 -0.4425
39145SOL    HW227366   2.880   0.106   1.365  0.3909 -1.0285  1.0454
39146SOL     OW27367   8.553   4.715   2.304  0.1262 -0.2914  0.4645
39146SOL    HW127368   8.644   4.739   2.286  0.2164 -0.6794  0.3921
39146SOL    HW227369   8.509   4.724   2.219 -0.3972  2.0248  0.9260
39147SOL     OW27370   4.085   5.960   1.934 -0.0521  0.4641 -0.5784
39147SOL    HW127371   4.140   6.034   1.961 -1.3134  0.8679  1.0383
39147SOL    HW227372   4.145   5.885   1.931  0.7165  1.0128  0.4590
39148SOL     OW27373   0.674   9.583   8.249 -0.1771 -0.6942  0.3031
39148SOL    HW127374   0.691   9.490   8.261  1.5163 -0.4392  0.1368
39148SOL    HW227375   0.730   9.609   8.176 -0.2542  0.5461  0.6538
39149SOL     OW27376   9.245   8.545  11.211  0.6353  0.6111  0.0964
39149SOL    HW127377   9.251   8.623  11.155 -1.0703  0.7173  0.0131
39149SOL    HW227378   9.205   8.577  11.292  0.8177 -0.0087  0.4347
39150SOL     OW27379   3.586  12.880  11.109  0.2089 -0.3214 -0.2660
39150SOL    HW127380   3.661  12.900  11.166 -0.0738 -0.2711  0.0929
39150SOL    HW227381   3.620  12.816  11.046  0.3275 -0.9490  0.4257
39151SOL     OW27382  11.820  11.329   6.709 -0.4415  0.2283  0.0630
39151SOL    HW127383  11.851  11.412   6.744 -0.9123 -0.3461  1.9396
39151SOL    HW227384  11.890  11.267   6.729 -0.7427 -0.1280  0.0200
39152SOL     OW27385   7.399   5.707   3.432  0.6360  0.4573 -0.1847
39152SOL    HW127386   7.322   5.681   3.381 -0.5398 -0.1122  1.7974
39152SOL    HW227387   7.440   5.624   3.457  1.4336  0.7454 -0.5011
39153SOL     OW27388   0.912  12.717   7.515 -0.3015 -0.0476  0.4871
39153SOL    HW127389   0.935  12.743   7.605  0.1646 -1.6360  0.8583
39153SOL    HW227390   0.984  12.660   7.488 -1.7953 -1.8765  0.1774
39154SOL     OW27391   9.123   0.512   1.587 -0.2331 -0.4280  0.6365
39154SOL    HW127392   9.152   0.425   1.559 -0.1939 -0.3629  0.4720
39154SOL    HW227393   9.200   0.550   1.630  0.5177  0.4146 -1.3206
39155SOL     OW27394   0.251   4.882  12.844 -0.1561  0.1597  0.5204
39155SOL    HW127395   0.160   4.912  12.841 -0.4923 -0.8609  0.2181
39155SOL    HW227396   0.250   4.797  12.801  1.0119  0.2880  0.1898
39156SOL     OW27397   8.029   8.041   8.488 -0.3375  0.5610 -0.5386
39156SOL    HW127398   8.121   8.048   8.462 -0.1406  0.7537  0.1932
39156SOL    HW227399   7.985   8.108   8.436 -0.1619  0.0985 -1.3022
39157SOL     OW27400   6.010  11.455   6.861 -0.2207  0.1226 -0.5109
39157SOL    HW127401   5.934  11.510   6.880 -0.2361 -0.3298  0.9010
39157SOL    HW227402   6.012  11.448   6.766 -1.0144  1.4310 -0.6565
39158SOL     OW27403   2.049   5.465   8.901  0.2309 -0.2386 -0.2068
39158SOL    HW127404   2.092   5.387   8.935  0.1060 -0.3192 -0.2330
39158SOL    HW227405   2.025   5.515   8.979 -0.5428 -0.6834 -0.1468
39159SOL     OW27406   4.997  11.062   6.521 -0.0177 -0.2832 -0.1279
39159SOL    HW127407   5.084  11.103   6.514  0.0785 -0.6355 -1.3103
39159SOL    HW227408   5.014  10.968   6.513 -0.4341 -0.4198  0.5141
39160SOL     OW27409  12.220   3.283   0.189 -0.1268 -0.1215 -0.0569
39160SOL    HW127410  12.253   3.337   0.117  0.6350 -0.2108  0.2207
39160SOL    HW227411  12.175   3.210   0.147  0.4061 -0.2283 -0.4446
39161SOL     OW27412   6.305   2.791   1.516 -0.3164 -0.1010  0.6544
39161SOL    HW127413   6.289   2.702   1.485 -2.8932  0.7114 -0.5640
39161SOL    HW227414   6.346   2.835   1.441 -0.8062  0.2244  0.5735
39162SOL     OW27415   7.928   1.492  10.678  0.3934 -0.1097  0.0529
39162SOL    HW127416   7.934   1.398  10.660 -1.1722 -0.4477  1.1475
39162SOL    HW227417   7.899   1.530  10.596  0.0236 -0.7126 -0.1043
39163SOL     OW27418  10.810   0.541   0.839  0.0482 -0.2068  0.0378
39163SOL    HW127419  10.844   0.623   0.876 -2.0536  1.0035 -0.5547
39163SOL    HW227420  10.766   0.499   0.913 -0.1514 -0.0720 -0.0040
39164SOL     OW27421  11.461   7.301  13.308 -0.0779 -0.1862  0.1860
39164SOL    HW127422  11.405   7.248  13.251 -1.2439  0.1207  1.0143
39164SOL    HW227423  11.549   7.289  13.273 -0.7204 -0.2780 -1.4660
39165SOL     OW27424   1.198   1.560   5.612 -0.2023 -0.2882 -0.3012
39165SOL    HW127425   1.121   1.562   5.669 -0.1750 -0.1593 -0.2689
39165SOL    HW227426   1.179   1.626   5.545  0.7420  1.1946  0.8181
39166SOL     OW27427   7.958   1.593   1.675 -0.0645 -0.3619  0.2370
39166SOL    HW127428   7.902   1.524   1.641  1.6107 -0.8845 -1.6275
39166SOL    HW227429   7.913   1.674   1.650 -1.5427 -0.7200  1.5797
39167SOL     OW27430  10.848   6.396   1.523  0.0983 -0.2165 -0.4891
39167SOL    HW127431  10.897   6.321   1.490 -0.3204 -0.8976  0.4067
39167SOL    HW227432  10.841   6.381   1.617  0.8400  1.4463 -0.1374
39168SOL     OW27433   6.974   0.270  12.384  0.4546  0.0019 -0.2043
39168SOL    HW127434   7.055   0.225  12.406 -1.5757 -3.6603  0.5173
39168SOL    HW227435   6.910   0.237  12.448 -1.7832  2.2387 -1.1289
39169SOL     OW27436  11.326   2.612   6.516 -0.0549 -0.7187  0.0729
39169SOL    HW127437  11.327   2.516   6.523  1.4279 -0.6666  1.0162
39169SOL    HW227438  11.357   2.629   6.427 -0.7522 -1.1073 -0.2563
39170SOL     OW27439  12.080   1.122   0.932 -0.2737 -0.1999 -0.0463
39170SOL    HW127440  12.142   1.088   0.868  0.3994 -0.4632  0.7288
39170SOL    HW227441  12.130   1.186   0.982 -0.3262 -1.1228  1.2359
39171SOL     OW27442   8.247  11.107   2.503 -0.9739  1.0035  0.3184
39171SOL    HW127443   8.273  11.133   2.415 -1.7256  2.8513  0.5955
39171SOL    HW227444   8.280  11.018   2.513 -0.3944  0.9679 -1.6172
39172SOL     OW27445   2.234  10.486   9.938 -0.4425  0.0415  0.0082
39172SOL    HW127446   2.173  10.425   9.981 -1.2539  0.3577 -0.6531
39172SOL    HW227447   2.226  10.567   9.988 -0.1505 -0.0731  0.2473
39173SOL     OW27448   2.560  13.118  12.994  0.2778  0.3367 -0.3171
39173SOL    HW127449   2.631  13.183  12.991  1.6470 -0.9178  1.9266
39173SOL    HW227450   2.555  13.093  13.086 -1.6049 -1.2626 -0.7934
39174SOL     OW27451   1.193  11.855   2.230  0.2975 -0.2791 -0.0615
39174SOL    HW127452   1.131  11.917   2.192  0.7413  0.8328  0.9597
39174SOL    HW227453   1.140  11.798   2.285  0.1220  0.4802  0.5744
39175SOL     OW27454   4.100   2.521  10.856 -0.3462 -0.1879 -0.9356
39175SOL    HW127455   4.136   2.494  10.941 -0.0534 -0.6621 -1.2094
39175SOL    HW227456   4.155   2.596  10.831 -0.4475 -0.0317 -0.6994
39176SOL     OW27457   5.199   9.209   9.271 -0.2365 -0.2592  0.4662
39176SOL    HW127458   5.198   9.203   9.366 -0.7384 -0.6650  0.4404
39176SOL    HW227459   5.292   9.214   9.249 -0.1580  2.0038  1.0736
39177SOL     OW27460   2.204  10.998   6.869 -0.0084  0.4842 -0.0718
39177SOL    HW127461   2.201  10.997   6.964  1.2306 -1.2006 -0.0171
39177SOL    HW227462   2.121  10.960   6.841  0.3750 -0.7361  0.3947
39178SOL     OW27463   7.174  10.352   0.562 -0.3952  0.2651 -0.1242
39178SOL    HW127464   7.183  10.409   0.639 -1.2517 -0.0246  0.1944
39178SOL    HW227465   7.264  10.324   0.543  0.1084  2.0064 -0.5172
39179SOL     OW27466   2.050  11.152   0.511 -0.3793  0.2574  0.4906
39179SOL    HW127467   1.975  11.193   0.553 -0.9183  0.0573 -0.2523
39179SOL    HW227468   2.012  11.100   0.440  0.5318  0.8605 -0.4596
39180SOL     OW27469   3.832   4.923   7.110 -0.2709 -0.0884 -0.2571
39180SOL    HW127470   3.844   4.832   7.137 -0.8903 -0.0367  0.2244
39180SOL    HW227471   3.746   4.947   7.145  0.0194  0.7760 -0.1203
39181SOL     OW27472   5.932   2.504   7.921  1.0007  0.1013  0.0287
39181SOL    HW127473   5.850   2.486   7.875  0.2691  0.4409  1.1453
39181SOL    HW227474   5.997   2.449   7.877 -0.2069 -1.6641  0.3061
39182SOL     OW27475   6.580   7.119  12.567 -0.3870 -0.3468 -0.0122
39182SOL    HW127476   6.571   7.029  12.596 -1.3014  0.3506  2.1161
39182SOL    HW227477   6.554   7.118  12.475 -1.2426 -2.0830  0.2153
39183SOL     OW27478  10.270  11.958   9.848  0.3684 -0.5614  0.0237
39183SOL    HW127479  10.308  11.960   9.936  0.9551 -0.9732 -0.2059
39183SOL    HW227480  10.176  11.969   9.861  0.4313 -0.8012  0.7161
39184SOL     OW27481  11.999   6.014   2.374  0.4449 -0.0577 -0.6938
39184SOL    HW127482  11.980   5.920   2.371  0.9490 -0.1411 -1.8394
39184SOL    HW227483  11.927   6.052   2.425 -0.0743 -0.9881 -0.7159
39185SOL     OW27484   3.866   8.646   8.553  0.2261 -0.2648 -0.3629
39185SOL    HW127485   3.889   8.555   8.537  0.2168 -0.3022 -0.1676
39185SOL    HW227486   3.856   8.652   8.648  0.5083  0.0054 -0.3451
39186SOL     OW27487   3.173  10.694   2.682  0.5921 -0.7342  0.5090
39186SOL    HW127488   3.092  10.667   2.639  0.1720 -1.0883  1.4854
39186SOL    HW227489   3.167  10.657   2.770  1.1570  0.4506  1.0690
39187SOL     OW27490   6.238   3.330  12.785  0.4647  0.1434  0.5500
39187SOL    HW127491   6.309   3.395  12.785 -0.7996  1.6268 -1.3595
39187SOL    HW227492   6.269   3.261  12.725  0.1409  1.0100 -0.6432
39188SOL     OW27493   2.476   6.289  12.247 -0.6749  0.1253  0.2029
39188SOL    HW127494   2.562   6.312  12.282  0.6267 -2.4783 -1.0551
39188SOL    HW227495   2.487   6.292  12.152 -1.1730 -2.6532 -0.0190
39189SOL     OW27496   4.805  11.809  10.613 -0.0141 -0.0841  1.1568
39189SOL    HW127497   4.730  11.776  10.565 -1.3912  2.0179  1.7239
39189SOL    HW227498   4.767  11.859  10.686  1.8360  2.1837  0.7096
39190SOL     OW27499   7.028   1.354  13.191 -0.0031 -0.0145 -0.4996
39190SOL    HW127500   7.118   1.326  13.171  0.2224 -0.4187  0.9739
39190SOL    HW227501   6.973   1.284  13.155  0.3255 -0.1980 -0.6501
39191SOL     OW27502  11.698   2.859   1.050  0.7810 -0.4090  0.4109
39191SOL    HW127503  11.721   2.843   1.141  1.0144 -0.6708  0.3049
39191SOL    HW227504  11.759   2.807   0.999  0.4330 -0.5327  0.1117
39192SOL     OW27505   5.091   3.132   1.411  0.3089 -0.4884 -0.5700
39192SOL    HW127506   5.159   3.197   1.395  0.9203 -1.6402 -3.2322
39192SOL    HW227507   5.009   3.179   1.396  0.5068  0.5802  1.4050
39193SOL     OW27508  11.709   6.458   0.438 -0.1088  0.0515  0.1513
39193SOL    HW127509  11.766   6.440   0.513  0.3201 -1.1433 -0.4418
39193SOL    HW227510  11.652   6.529   0.468  1.4697  1.0919  0.8659
39194SOL     OW27511   2.081   0.719   8.265 -0.2959  0.6871  0.2689
39194SOL    HW127512   2.030   0.773   8.325 -1.6481  0.1221 -0.3398
39194SOL    HW227513   2.070   0.763   8.180 -0.8663 -0.1646 -0.1064
39195SOL     OW27514   5.938   0.876   9.023 -0.0739  0.2766 -0.3295
39195SOL    HW127515   5.963   0.791   8.987  0.3551  0.9047 -1.5883
39195SOL    HW227516   5.922   0.860   9.116 -0.1965 -1.2115 -0.5901
39196SOL     OW27517   3.356   6.533   8.849  0.7142  0.0562 -0.2586
39196SOL    HW127518   3.331   6.604   8.907  0.7625  0.7555 -1.0825
39196SOL    HW227519   3.280   6.474   8.850  1.3109 -0.7825  1.7293
39197SOL     OW27520   3.406   3.123  11.064  0.0508 -0.1075 -0.5634
39197SOL    HW127521   3.398   3.106  11.158  0.5335  0.5594 -0.3941
39197SOL    HW227522   3.494   3.092  11.042  0.2052  0.3852 -0.6476
39198SOL     OW27523   2.021  13.278   9.376 -0.9703 -0.1242  0.5470
39198SOL    HW127524   2.034  13.224   9.298  0.5677 -0.9300  1.3251
39198SOL    HW227525   2.104  13.324   9.388 -1.3216  0.2993  1.4979
39199SOL     OW27526   7.779   2.168  12.647  0.1249 -0.3829  0.1808
39199SOL    HW127527   7.693   2.192  12.612 -0.1489  0.3176  1.2942
39199SOL    HW227528   7.841   2.191  12.577 -0.5023 -0.0622 -0.2819
39200SOL     OW27529   7.083   0.509   9.371  0.1162 -0.7049  0.1826
39200SOL    HW127530   7.029   0.583   9.400  0.9486  0.1601 -0.4070
39200SOL    HW227531   7.125   0.477   9.451  1.5629  0.9771  0.1569
39201SOL     OW27532   5.987  13.306   8.215 -0.1429 -0.4379  0.2657
39201SOL    HW127533   6.030  13.288   8.132  0.8887  0.9969  0.4353
39201SOL    HW227534   5.896  13.326   8.192 -0.3989 -2.1058 -0.2601
39202SOL     OW27535   9.713   3.391   3.311  0.0109 -0.8958 -0.7408
39202SOL    HW127536   9.755   3.305   3.320  0.9487 -0.4852 -1.1286
39202SOL    HW227537   9.778   3.453   3.343  0.0635 -0.1651 -2.2229
39203SOL     OW27538   5.848  10.371   9.527 -0.1967  0.2350  0.1015
39203SOL    HW127539   5.844  10.373   9.431 -0.1935  0.0839  0.0973
39203SOL    HW227540   5.939  10.392   9.547 -0.0448 -0.3455  0.0455
39204SOL     OW27541   0.627   4.759  11.535  0.2180 -0.5205 -0.7726
39204SOL    HW127542   0.716   4.730  11.559  0.4908  0.5411 -0.4118
39204SOL    HW227543   0.614   4.839  11.586 -1.1039 -0.8613 -0.5371
39205SOL     OW27544   1.908   4.824   3.537 -0.1679  0.3326 -0.3868
39205SOL    HW127545   1.970   4.882   3.581 -0.6253  0.8101 -0.3634
39205SOL    HW227546   1.921   4.739   3.579  1.9362 -0.1128 -1.7811
39206SOL     OW27547   0.294   8.749   7.989  0.1810 -0.2498  0.1341
39206SOL    HW127548   0.237   8.693   7.937 -0.0287 -0.4585  0.5899
39206SOL    HW227549   0.326   8.814   7.926  0.9042 -1.2229 -0.5343
39207SOL     OW27550  12.446   3.333   8.363  0.4655 -0.5831  0.0349
39207SOL    HW127551  12.446   3.427   8.345 -0.7050 -0.8048 -1.2129
39207SOL    HW227552  12.460   3.291   8.278 -1.6683 -1.5872  0.1273
39208SOL     OW27553  10.611   4.478   5.041 -0.4913  0.2545  0.2802
39208SOL    HW127554  10.603   4.434   5.126 -0.6241 -1.8608 -0.7387
39208SOL    HW227555  10.562   4.422   4.981 -1.5202  2.4037 -0.9787
39209SOL     OW27556   9.737   6.858   8.239  0.3327 -0.2137  0.0414
39209SOL    HW127557   9.775   6.825   8.321 -0.1163 -0.9135 -0.0235
39209SOL    HW227558   9.807   6.849   8.175  0.6514  0.2326  0.3171
39210SOL     OW27559   0.968   0.396  10.911  0.2166  0.2881  0.2541
39210SOL    HW127560   0.960   0.351  10.995  0.0857  1.0011  0.6296
39210SOL    HW227561   0.987   0.326  10.848  1.5250 -0.1056  1.0528
39211SOL     OW27562   5.195   5.730   2.515 -0.0208 -0.1626 -0.3737
39211SOL    HW127563   5.101   5.738   2.527  0.2021 -0.0433  1.6066
39211SOL    HW227564   5.225   5.820   2.501  0.0084  0.0417  0.9228
39212SOL     OW27565  10.620   1.616  12.121  0.8859 -0.3068  0.5449
39212SOL    HW127566  10.635   1.585  12.032  0.5264  1.4060 -0.1568
39212SOL    HW227567  10.707   1.631  12.157  1.0537  0.9283 -0.2830
39213SOL     OW27568   2.877   2.147  10.562 -0.0692 -0.5657  0.3944
39213SOL    HW127569   2.934   2.192  10.499  0.4848 -0.5632  0.8895
39213SOL    HW227570   2.805   2.112  10.509 -1.6834  2.6622  0.2257
39214SOL     OW27571   7.156   1.273   5.321 -0.4399  0.2002 -0.3847
39214SOL    HW127572   7.085   1.220   5.284  0.8916 -1.3195 -0.8791
39214SOL    HW227573   7.214   1.210   5.363 -0.0000  1.5381  1.1005
39215SOL     OW27574   4.174   0.965   8.861  0.0902 -0.0904  0.1663
39215SOL    HW127575   4.080   0.981   8.848  0.3288 -0.4802 -2.9872
39215SOL    HW227576   4.212   1.053   8.865 -0.3612  0.0720  1.4956
39216SOL     OW27577   6.500   2.914  11.034  1.1707 -0.1776  0.2412
39216SOL    HW127578   6.560   2.947  11.101  1.2749  0.1923 -0.0311
39216SOL    HW227579   6.454   2.992  11.002  0.5839 -0.4468  0.4047
39217SOL     OW27580   7.941   0.391   0.830 -0.3968 -0.2509  0.0761
39217SOL    HW127581   7.935   0.448   0.753  0.7831 -0.4844 -0.2133
39217SOL    HW227582   7.856   0.397   0.872 -1.1410 -0.2960 -1.3859
39218SOL     OW27583   2.233   3.401   8.330 -0.4563 -0.0818  0.0731
39218SOL    HW127584   2.209   3.312   8.303 -0.0504  0.2207 -1.4140
39218SOL    HW227585   2.201   3.457   8.259  0.6492  0.7888  0.2272
39219SOL     OW27586   2.543   4.093   2.543 -0.0888 -0.2510 -0.2678
39219SOL    HW127587   2.468   4.094   2.603  0.7636 -0.9785  0.8717
39219SOL    HW227588   2.510   4.051   2.464 -1.3289  1.0094 -0.4587
39220SOL     OW27589  12.102   4.210   7.735 -0.1344  0.3863  0.2847
39220SOL    HW127590  12.185   4.182   7.696 -0.2452  0.5216 -0.0519
39220SOL    HW227591  12.061   4.262   7.667  0.3942  2.0006  1.1522
39221SOL     OW27592   2.238   7.137   5.881  0.9031  0.0184 -0.3575
39221SOL    HW127593   2.289   7.059   5.901 -0.7846 -0.6652  1.6140
39221SOL    HW227594   2.265   7.201   5.947 -1.6772 -0.8286  1.6688
39222SOL     OW27595  12.391   3.179   1.045  0.8727  0.4147  0.6008
39222SOL    HW127596  12.483   3.155   1.054  0.5466 -0.7325  1.0356
39222SOL    HW227597  12.384   3.215   0.957  1.3622 -1.3674 -0.2138
39223SOL     OW27598   2.896   5.938   1.270 -0.0898 -0.2279 -0.2622
39223SOL    HW127599   2.966   5.972   1.327  0.7531 -0.9322 -0.8530
39223SOL    HW227600   2.889   6.003   1.200  0.3506 -0.4216 -0.4884
39224SOL     OW27601  12.825   6.986  10.710 -0.3795  0.0082 -0.3303
39224SOL    HW127602  12.798   6.900  10.743  1.2578 -0.6695 -0.6799
39224SOL    HW227603  12.858   6.968  10.622 -0.3211  1.0662 -0.5336
39225SOL     OW27604   2.153   5.866   1.837  0.2375  0.1387 -0.6184
39225SOL    HW127605   2.124   5.918   1.911 -1.4498 -1.6482  0.0603
39225SOL    HW227606   2.248   5.867   1.842  0.2492  2.4833 -0.2311
39226SOL     OW27607  12.366   5.556  11.941  0.1805  0.3441  0.4200
39226SOL    HW127608  12.334   5.646  11.935 -0.6027 -0.0055 -1.0531
39226SOL    HW227609  12.294   5.508  11.982  0.6614  0.4027  1.3558
39227SOL     OW27610  11.785  12.046   8.115 -0.5849  0.0781 -0.0198
39227SOL    HW127611  11.762  12.071   8.025 -1.1640  0.4135  0.2153
39227SOL    HW227612  11.765  11.952   8.119 -1.6821  0.2988  0.0877
39228SOL     OW27613   0.783  11.202   8.686 -0.6839  1.1572 -0.5382
39228SOL    HW127614   0.739  11.164   8.762  0.2608 -0.5464 -0.7858
39228SOL    HW227615   0.876  11.194   8.706 -0.4487  2.5123 -1.0371
39229SOL     OW27616   1.092   2.633   6.692 -0.8138 -0.0986 -0.6249
39229SOL    HW127617   1.031   2.563   6.717 -1.2998 -0.0678 -1.6914
39229SOL    HW227618   1.128   2.664   6.776 -1.7275 -0.5945 -0.0287
39230SOL     OW27619   8.701   6.824   7.068  0.3543  0.7615 -0.1398
39230SOL    HW127620   8.620   6.830   7.018  0.0858  0.9105  0.3065
39230SOL    HW227621   8.685   6.756   7.133  1.8463 -1.9009 -2.3257
39231SOL     OW27622   5.845   6.121   8.050  0.0872  0.3770 -0.6824
39231SOL    HW127623   5.875   6.136   8.140  0.7333 -0.2392 -0.7908
39231SOL    HW227624   5.915   6.158   7.995  0.5772 -0.8784 -0.9369
39232SOL     OW27625   6.903   8.029   5.566 -0.1116  0.2578  0.3362
39232SOL    HW127626   6.891   7.992   5.653  1.1180  0.8567  0.7928
39232SOL    HW227627   6.977   8.090   5.576  0.7786 -0.4717 -1.3569
39233SOL     OW27628   4.857   5.805   9.189 -0.7287  0.1837 -0.8171
39233SOL    HW127629   4.834   5.745   9.260  0.7534  0.2059 -0.2814
39233SOL    HW227630   4.774   5.846   9.165 -1.6496 -1.4626 -0.6384
39234SOL     OW27631  11.664   9.108   4.305 -0.0847  0.2839  0.2348
39234SOL    HW127632  11.589   9.084   4.360 -1.3401  1.8805 -0.7036
39234SOL    HW227633  11.697   9.189   4.344 -0.2501  0.7910 -0.6653
39235SOL     OW27634   2.097   4.606   4.222 -0.5954 -0.4421 -0.2837
39235SOL    HW127635   2.043   4.617   4.300 -0.3858 -2.8219  0.2665
39235SOL    HW227636   2.186   4.627   4.251 -0.8897  1.7588 -0.7545
39236SOL     OW27637   8.752   2.655   1.609  0.1105  0.4232 -0.2406
39236SOL    HW127638   8.806   2.582   1.639 -0.7323  0.1750  0.7337
39236SOL    HW227639   8.682   2.613   1.558  0.0064  0.6090 -0.2508
39237SOL     OW27640   3.390   4.421   6.203  0.2353  0.1321  0.1907
39237SOL    HW127641   3.468   4.476   6.208 -0.7684  1.8984 -1.8509
39237SOL    HW227642   3.318   4.482   6.190 -1.2595 -1.5578  0.1084
39238SOL     OW27643   5.093   8.923  11.897 -0.2296  0.1843  0.1400
39238SOL    HW127644   5.103   8.858  11.967  0.7920  1.1937  0.9808
39238SOL    HW227645   5.068   9.004  11.943  0.3534  0.8417 -0.6631
39239SOL     OW27646  12.124  11.190  13.314  0.5715  0.2234 -0.4559
39239SOL    HW127647  12.157  11.279  13.324 -1.3847  1.2353 -2.0685
39239SOL    HW227648  12.108  11.181  13.220 -1.5961 -0.9061 -0.0565
39240SOL     OW27649  10.378  13.298   3.381 -0.5099 -0.0713  0.3792
39240SOL    HW127650  10.442  13.365   3.403  0.2084 -0.4414 -0.4915
39240SOL    HW227651  10.388  13.231   3.448 -1.1123  0.6045  1.1556
39241SOL     OW27652   6.465   0.162  13.010  0.0952  0.8579 -0.4514
39241SOL    HW127653   6.404   0.139  12.940 -0.5819  1.0633  0.0569
39241SOL    HW227654   6.519   0.084  13.023 -0.5594  0.4145 -0.3955
39242SOL     OW27655   9.305   5.419  12.536  0.5351 -0.2398 -0.4642
39242SOL    HW127656   9.377   5.370  12.496 -0.1539 -1.2198 -0.5560
39242SOL    HW227657   9.299   5.499  12.484  2.0288  0.2207  0.0188
39243SOL     OW27658   3.179   2.111   2.681 -0.2502  0.2267  0.4465
39243SOL    HW127659   3.237   2.050   2.727  0.4186  0.8073  0.3871
39243SOL    HW227660   3.174   2.076   2.592 -1.6647 -0.9839  0.9562
39244SOL     OW27661   2.462  10.833   3.752  0.0311 -0.2886 -0.2261
39244SOL    HW127662   2.533  10.774   3.727  1.3731  0.6407  1.1510
39244SOL    HW227663   2.389  10.808   3.697  0.6491 -2.9896  0.0381
39245SOL     OW27664   4.394   8.231   5.485 -0.0565 -0.0645  0.1420
39245SOL    HW127665   4.443   8.150   5.471 -0.2481 -0.2615  0.5862
39245SOL    HW227666   4.446   8.279   5.550  0.2942  0.3749 -0.4635
39246SOL     OW27667   8.424  13.069   7.165  0.3167  0.0312 -0.2431
39246SOL    HW127668   8.458  13.101   7.249  1.1291 -0.5491 -0.3395
39246SOL    HW227669   8.500  13.031   7.121 -0.2897 -0.5298 -0.8383
39247SOL     OW27670   4.226   4.598   2.240  0.0862 -0.0074 -0.1428
39247SOL    HW127671   4.170   4.527   2.272  0.9951 -1.8968 -2.3889
39247SOL    HW227672   4.234   4.581   2.146  3.9076  0.4394 -0.0861
39248SOL     OW27673   6.950  13.208   3.623  0.4865 -0.2892 -0.0630
39248SOL    HW127674   6.997  13.269   3.566  1.3286 -0.2702  0.6326
39248SOL    HW227675   7.014  13.185   3.690  0.0138 -1.5521 -0.0329
39249SOL     OW27676  13.239   5.473   1.172 -0.3619  0.2665  0.2037
39249SOL    HW127677  13.305   5.439   1.232 -0.1838  0.8256  0.3344
39249SOL    HW227678  13.245   5.568   1.182 -0.1778  0.3804 -0.8541
39250SOL     OW27679   5.264  11.285   7.345 -0.0520  0.1983  0.0923
39250SOL    HW127680   5.257  11.212   7.406  1.4237  1.8124  2.3548
39250SOL    HW227681   5.355  11.316   7.354 -1.1832  3.6784  0.9616
39251SOL     OW27682   8.475   9.566  10.310 -0.8206  0.6398 -0.0457
39251SOL    HW127683   8.471   9.472  10.327 -0.0600  0.7485  0.7930
39251SOL    HW227684   8.567   9.589  10.321 -0.5944  1.1103 -2.3970
39252SOL     OW27685   6.506   7.978   3.374  0.9125  0.0074 -0.4341
39252SOL    HW127686   6.485   8.067   3.349 -0.8369 -0.4015 -0.5858
39252SOL    HW227687   6.485   7.925   3.297 -1.9713 -0.9471  0.8619
39253SOL     OW27688   7.963   6.741  11.853 -0.4066  0.4193  0.2338
39253SOL    HW127689   7.898   6.682  11.817  0.2041 -0.5136  0.6271
39253SOL    HW227690   7.917   6.789  11.922 -0.8837  0.3743 -0.0476
39254SOL     OW27691   2.492   5.942   0.164  0.1902  0.2591 -0.6442
39254SOL    HW127692   2.404   5.910   0.182  0.1882  1.2731  1.5707
39254SOL    HW227693   2.480   6.035   0.142  0.5949  0.0326 -1.8735
39255SOL     OW27694   1.802   2.658  10.447  0.1134  0.7706 -0.6468
39255SOL    HW127695   1.869   2.707  10.398  0.2105 -1.3836 -2.8751
39255SOL    HW227696   1.847   2.579  10.477 -0.2328  1.5346  2.2116
39256SOL     OW27697  12.380   7.587   4.494 -0.0101 -0.1204  0.4111
39256SOL    HW127698  12.460   7.610   4.541  0.9675  2.9218 -2.4013
39256SOL    HW227699  12.312   7.642   4.533  0.0572 -0.0643  0.4501
39257SOL     OW27700   2.344   8.483   4.547 -0.1989  0.3990 -0.1943
39257SOL    HW127701   2.312   8.407   4.595 -2.5436  0.3750 -1.6521
39257SOL    HW227702   2.360   8.452   4.458  1.4083  1.0510 -0.1713
39258SOL     OW27703   1.878   8.612   0.269  0.1325  0.0892  0.4011
39258SOL    HW127704   1.936   8.584   0.340  0.8988 -0.0748 -0.2646
39258SOL    HW227705   1.900   8.704   0.255 -0.5309  0.3242  0.8449
39259SOL     OW27706   1.897   0.230  12.596 -0.0085  0.0655  0.2470
39259SOL    HW127707   1.909   0.212  12.690  0.0871  0.3374  0.2866
39259SOL    HW227708   1.914   0.145  12.554  0.4687  0.0607  0.4340
39260SOL     OW27709   7.166   7.005   1.206  0.2705 -0.2170  0.5395
39260SOL    HW127710   7.097   7.059   1.168  1.3857  0.1112 -1.1368
39260SOL    HW227711   7.202   7.057   1.278 -0.2644  0.2115  0.4988
39261SOL     OW27712   3.373  12.975   4.131 -0.2029  0.2134 -0.5868
39261SOL    HW127713   3.365  12.991   4.225  1.3927  2.0787 -0.6990
39261SOL    HW227714   3.323  13.046   4.091  1.4345  1.1067 -1.1257
39262SOL     OW27715   0.231   7.333   4.842  0.3896 -0.3077  0.3552
39262SOL    HW127716   0.208   7.241   4.854 -2.0855  0.0052 -1.1571
39262SOL    HW227717   0.193   7.378   4.917  0.0906 -0.3459  0.2297
39263SOL     OW27718  10.077   1.708  11.451 -0.2450 -0.1767 -0.2320
39263SOL    HW127719  10.120   1.627  11.478 -0.3611 -0.0413  0.3942
39263SOL    HW227720  10.031   1.738  11.530 -0.1391  0.5331 -0.4284
39264SOL     OW27721   0.746   4.877   4.850 -0.4404 -0.3709 -0.7506
39264SOL    HW127722   0.699   4.945   4.802  0.7630 -0.8698 -2.7857
39264SOL    HW227723   0.837   4.888   4.823  0.2101 -1.0730  1.0372
39265SOL     OW27724   2.951   8.625   6.345  0.0127  0.9827  0.0365
39265SOL    HW127725   3.006   8.678   6.403 -0.3999  2.4624 -0.8858
39265SOL    HW227726   2.999   8.621   6.262 -1.4962  2.8479 -0.9966
39266SOL     OW27727   0.489  12.937   9.964 -0.2671 -0.2591  0.0830
39266SOL    HW127728   0.562  12.983   9.922 -0.7466  0.6618  0.2236
39266SOL    HW227729   0.513  12.844   9.959  1.4778  0.0865  1.1937
39267SOL     OW27730   9.761   8.126  11.227  0.2484 -0.4960  0.4372
39267SOL    HW127731   9.752   8.197  11.291 -0.4085 -0.5104  0.3688
39267SOL    HW227732   9.854   8.104  11.229  0.2865 -0.3169  1.1964
39268SOL     OW27733   6.914  10.929  11.953 -0.4190  0.1935 -0.0062
39268SOL    HW127734   6.837  10.872  11.943 -1.7486  1.6467  1.2433
39268SOL    HW227735   6.884  10.998  12.013  1.3422  1.7779 -0.8624
39269SOL     OW27736  10.212   6.573   7.199  0.3472  0.8940 -0.0820
39269SOL    HW127737  10.238   6.665   7.188  0.0117  0.8581 -1.2060
39269SOL    HW227738  10.276   6.539   7.262  1.0249  1.6648 -0.3229
39270SOL     OW27739   4.059   5.100   4.842  0.1393 -0.1401 -0.5109
39270SOL    HW127740   4.077   5.111   4.749  0.9769 -1.4860 -0.5384
39270SOL    HW227741   4.145   5.101   4.883 -0.0662 -1.5253  0.0030
39271SOL     OW27742  13.183   2.423  12.437 -0.2635  0.0936  0.2064
39271SOL    HW127743  13.094   2.393  12.422 -0.8159  1.8286 -0.2401
39271SOL    HW227744  13.216   2.445  12.350 -0.3491  1.9356  0.6086
39272SOL     OW27745   9.868   9.397   2.109  1.1709  0.1573  0.0508
39272SOL    HW127746   9.921   9.349   2.173  1.8482  1.2411  0.3239
39272SOL    HW227747   9.821   9.328   2.061  3.5263 -0.9425 -0.8348
39273SOL     OW27748   3.595  12.815   7.402 -0.7664  0.2071  0.1697
39273SOL    HW127749   3.645  12.735   7.419 -0.3574  0.8661  2.2868
39273SOL    HW227750   3.524  12.813   7.466 -1.1017  1.2507 -0.1497
39274SOL     OW27751   8.167   1.836   2.655 -0.6593 -0.4115 -0.0651
39274SOL    HW127752   8.160   1.878   2.740  1.6935 -0.2594  0.1221
39274SOL    HW227753   8.129   1.750   2.667  1.9348 -1.4018  1.9737
39275SOL     OW27754   8.219   3.809   2.677  0.1407 -0.1884 -0.5226
39275SOL    HW127755   8.150   3.752   2.710 -0.0162  0.6689  0.7136
39275SOL    HW227756   8.189   3.836   2.590 -0.5957 -0.6298 -0.4128
39276SOL     OW27757   4.387  10.949   1.090  0.2654  0.0054  0.0993
39276SOL    HW127758   4.424  10.864   1.113  0.3876  0.4156  1.4807
39276SOL    HW227759   4.434  11.012   1.144 -1.3569  0.7008  0.7850
39277SOL     OW27760   9.838   3.188   3.067 -0.1533 -0.1689  0.5236
39277SOL    HW127761   9.871   3.275   3.087 -0.5741 -0.1285  1.0516
39277SOL    HW227762   9.916   3.135   3.052  0.1329  0.0604  1.1872
39278SOL     OW27763   7.560   8.256   6.093 -0.9108  0.0575 -0.0446
39278SOL    HW127764   7.581   8.292   6.007  0.1892  1.6303  0.8350
39278SOL    HW227765   7.489   8.312   6.126 -1.2115 -0.4289  0.1446
39279SOL     OW27766   8.985   9.559   1.648 -0.1127  0.1769 -0.1987
39279SOL    HW127767   8.965   9.520   1.733  2.4821  0.8671  0.8457
39279SOL    HW227768   8.924   9.632   1.640 -1.8491 -1.1873  0.0043
39280SOL     OW27769   5.902  10.218  10.994 -0.5461 -0.0672  0.2001
39280SOL    HW127770   5.963  10.235  10.922 -0.6104  0.8513  0.3482
39280SOL    HW227771   5.953  10.169  11.058 -0.7635 -1.8004 -0.8859
39281SOL     OW27772  12.475   8.189   6.340  0.0912  0.4293 -0.0888
39281SOL    HW127773  12.467   8.277   6.378 -0.9855  0.1281  0.4133
39281SOL    HW227774  12.551   8.195   6.282 -0.2259  1.8176 -0.3964
39282SOL     OW27775  11.760   5.196   1.850 -0.3452  0.0500 -0.2199
39282SOL    HW127776  11.805   5.139   1.787 -0.5047  0.2203 -0.4946
39282SOL    HW227777  11.703   5.138   1.899  1.6296 -0.5369  1.5425
39283SOL     OW27778   2.294   9.622   4.186 -0.2376  0.2404 -0.0131
39283SOL    HW127779   2.221   9.644   4.129  1.4344  1.4207 -1.8019
39283SOL    HW227780   2.333   9.543   4.146 -0.3166 -0.1854  0.7305
39284SOL     OW27781  13.200  12.612   0.605 -0.1116  0.3026  0.6194
39284SOL    HW127782  13.108  12.628   0.587 -0.5697  0.9454  3.1685
39284SOL    HW227783  13.238  12.699   0.617  0.9382  0.0619 -0.6925
39285SOL     OW27784   5.829  10.661   6.521 -0.3085  0.7723 -0.3419
39285SOL    HW127785   5.876  10.639   6.601  1.7705  1.2086 -1.3607
39285SOL    HW227786   5.751  10.708   6.550  0.7318  1.4987  1.3970
39286SOL     OW27787   6.909   0.354  10.632  0.5739 -0.1605  0.0454
39286SOL    HW127788   6.878   0.274  10.673  0.3628 -0.5215 -0.7864
39286SOL    HW227789   6.838   0.416  10.644  0.6133 -0.1853  0.4262
39287SOL     OW27790   1.433  12.573   7.632  0.5830 -0.0574 -0.1901
39287SOL    HW127791   1.413  12.483   7.606 -0.5817  0.0647  0.2061
39287SOL    HW227792   1.430  12.572   7.728 -1.3716  0.7747 -0.1884
39288SOL     OW27793  11.916  12.753  12.400 -0.9868 -0.0850 -0.0933
39288SOL    HW127794  11.993  12.697  12.413 -1.7650 -0.8776  1.3530
39288SOL    HW227795  11.873  12.754  12.485 -3.4152 -0.9128 -1.2141
39289SOL     OW27796   8.585   2.973   1.644  0.0471 -0.1902 -0.1599
39289SOL    HW127797   8.590   3.016   1.730  0.8675 -0.3565 -0.1236
39289SOL    HW227798   8.538   2.892   1.661 -0.9778  0.3941 -0.1182
39290SOL     OW27799  12.198  12.270   5.307  0.0054 -0.7546  0.1987
39290SOL    HW127800  12.278  12.261   5.359 -0.4506 -1.0276  0.8747
39290SOL    HW227801  12.211  12.213   5.232  0.3248 -1.0240  0.4549
39291SOL     OW27802   3.317   3.544   5.039 -0.4016 -0.1034  0.3261
39291SOL    HW127803   3.309   3.452   5.065 -0.3910  0.1924  1.4556
39291SOL    HW227804   3.296   3.593   5.119 -1.2482  0.8929 -0.4729
39292SOL     OW27805  10.213   8.797   2.726  0.3064 -0.3081  0.5506
39292SOL    HW127806  10.119   8.783   2.727  0.5819 -2.8295  1.9812
39292SOL    HW227807  10.230   8.854   2.801  0.0880 -2.2907  2.2170
39293SOL     OW27808   0.980   9.251   8.389 -0.1886 -0.1720  0.1476
39293SOL    HW127809   1.047   9.318   8.399  0.5508 -1.1460  2.3755
39293SOL    HW227810   1.030   9.169   8.380 -0.9593 -1.0524  2.9107
39294SOL     OW27811   5.262   4.201   1.010 -0.1034 -0.4849 -0.6614
39294SOL    HW127812   5.188   4.259   1.027 -1.6144 -1.9162 -1.9230
39294SOL    HW227813   5.278   4.209   0.916  0.4788 -1.1664 -0.6352
39295SOL     OW27814   3.941   1.524  11.561  0.3776  0.4324  0.0954
39295SOL    HW127815   3.941   1.590  11.630 -2.8316  1.2456 -0.5053
39295SOL    HW227816   3.890   1.451  11.597  2.6096 -1.1972  0.1951
39296SOL     OW27817   6.778  11.219   7.034  0.3047  0.4785 -0.3885
39296SOL    HW127818   6.810  11.287   6.974 -0.1348  0.2735 -0.8547
39296SOL    HW227819   6.771  11.140   6.981 -1.9793  0.7413 -0.5756
39297SOL     OW27820   8.956  11.659   1.502  0.5487 -0.1385  0.3384
39297SOL    HW127821   8.869  11.628   1.478  0.5420 -1.6614  2.1260
39297SOL    HW227822   8.988  11.704   1.424 -1.4969 -0.2656 -0.6309
39298SOL     OW27823  10.395   7.503  12.696 -0.1507  0.5082 -0.0841
39298SOL    HW127824  10.300   7.503  12.701 -0.2634  0.6750 -1.6477
39298SOL    HW227825  10.424   7.546  12.776 -1.3103 -0.9885  1.1984
39299SOL     OW27826   8.978  10.863  10.427  0.1758 -0.8824  0.2351
39299SOL    HW127827   9.050  10.875  10.489 -0.7007  1.0152  0.9879
39299SOL    HW227828   8.970  10.949  10.384 -1.2557 -1.2324 -0.2412
39300SOL     OW27829   8.526  11.963   2.875  0.1250 -0.5162 -1.0028
39300SOL    HW127830   8.472  11.909   2.933  0.8732 -1.1051 -0.8437
39300SOL    HW227831   8.479  12.046   2.869 -0.0876 -0.5326  0.2399
39301SOL     OW27832   3.377  10.289   3.312 -0.0696  0.2622 -0.0481
39301SOL    HW127833   3.429  10.210   3.327  1.4354  1.4076  1.1495
39301SOL    HW227834   3.339  10.309   3.398  1.2091  1.9014  0.1948
39302SOL     OW27835  13.220   0.908   9.614 -0.1990  0.4006  0.4230
39302SOL    HW127836  13.134   0.907   9.655 -0.4978 -0.1910 -0.1849
39302SOL    HW227837  13.248   0.816   9.614  0.2298  0.5270  0.2178
39303SOL     OW27838   4.364   1.058  11.124  0.3290  0.2617 -0.2215
39303SOL    HW127839   4.357   1.014  11.209  1.0739  1.6293  0.5656
39303SOL    HW227840   4.402   0.991  11.066  2.3947  0.1266  1.1880
39304SOL     OW27841  11.612  12.005  10.745 -0.2305  0.0618  0.5391
39304SOL    HW127842  11.686  11.965  10.698 -1.3497  0.7724 -2.0113
39304SOL    HW227843  11.542  12.010  10.679 -1.2771  2.9984  1.7122
39305SOL     OW27844  12.116   8.784  10.357 -0.2701 -0.4554 -0.0403
39305SOL    HW127845  12.198   8.809  10.315 -0.3115  0.2830  0.2886
39305SOL    HW227846  12.140   8.769  10.449 -0.5614  0.1334  0.1365
39306SOL     OW27847   6.904   6.975   7.368 -0.3846 -0.5782  0.2599
39306SOL    HW127848   6.846   6.900   7.384 -1.3854 -0.0260 -0.6293
39306SOL    HW227849   6.905   6.984   7.273 -0.0241  0.3476  0.3456
39307SOL     OW27850   9.321  12.258   8.150 -0.4112  0.1429 -0.0149
39307SOL    HW127851   9.235  12.279   8.115 -0.4955  0.8294  0.5667
39307SOL    HW227852   9.358  12.194   8.089 -1.0877  0.2983 -0.5939
39308SOL     OW27853   8.214   7.445   4.892  0.0040  0.1564 -0.0451
39308SOL    HW127854   8.133   7.484   4.925 -0.1587  0.0526 -0.3125
39308SOL    HW227855   8.281   7.510   4.912 -0.0093 -0.1089  0.9037
39309SOL     OW27856   0.529  11.724   2.960 -0.3038 -0.1247 -0.2412
39309SOL    HW127857   0.520  11.780   3.037 -0.3446 -0.4497 -0.0117
39309SOL    HW227858   0.599  11.765   2.909 -0.5434  0.3149 -0.2279
39310SOL     OW27859   4.849  11.779   4.236 -0.1987 -0.0772  0.6342
39310SOL    HW127860   4.920  11.754   4.176  0.4127  0.0839  1.2764
39310SOL    HW227861   4.879  11.861   4.274  0.3997 -1.1828  2.6860
39311SOL     OW27862   2.493   1.283   0.993  0.0801  0.1734  0.2875
39311SOL    HW127863   2.436   1.242   0.928 -1.2468 -0.9396  2.0593
39311SOL    HW227864   2.572   1.230   0.992 -1.5367 -2.5401  2.4098
39312SOL     OW27865   2.928  12.173   2.242  0.2161 -0.9103 -0.4269
39312SOL    HW127866   2.833  12.159   2.242  0.3423 -2.1838  1.4277
39312SOL    HW227867   2.965  12.085   2.232  1.1582 -0.7867  1.5881
39313SOL     OW27868  12.654  10.888   7.983 -0.1647  0.1756  0.0250
39313SOL    HW127869  12.723  10.862   7.921 -0.9310  0.2074 -0.8630
39313SOL    HW227870  12.634  10.808   8.031  1.7324  0.5630  1.5707
39314SOL     OW27871  13.040   9.043   7.678  0.3949  0.4223  0.5270
39314SOL    HW127872  13.019   9.133   7.654 -0.2934  0.4256  1.0964
39314SOL    HW227873  13.134   9.035   7.664  0.6013  1.4804  1.2209
39315SOL     OW27874   4.767   7.656   9.184  0.3851 -0.9500  0.8957
39315SOL    HW127875   4.802   7.666   9.095  1.5704 -0.4849  1.4054
39315SOL    HW227876   4.780   7.741   9.225 -0.4004 -1.0849  1.4405
39316SOL     OW27877   4.522   0.214  11.839  0.0221 -0.2625 -0.6127
39316SOL    HW127878   4.468   0.169  11.905  1.4191  0.8689  1.4104
39316SOL    HW227879   4.559   0.289  11.885  0.4095  1.0976 -2.9723
39317SOL     OW27880  12.196   3.249  12.997 -0.0433  0.2778  0.3317
39317SOL    HW127881  12.133   3.304  12.952 -2.2389 -2.6612 -0.5183
39317SOL    HW227882  12.188   3.272  13.090 -2.3502  0.0648  0.2310
39318SOL     OW27883   5.082   0.840   0.356 -0.9747  0.4729 -0.4559
39318SOL    HW127884   5.026   0.765   0.334 -1.9043  0.9304  0.2475
39318SOL    HW227885   5.021   0.905   0.392  0.0835  0.7928  0.8406
39319SOL     OW27886  12.175   8.904   8.173  0.5094  0.1429 -0.3024
39319SOL    HW127887  12.228   8.981   8.150 -0.6281  0.9956 -0.1382
39319SOL    HW227888  12.204   8.880   8.261  0.4860  0.7266 -0.1314
39320SOL     OW27889   0.814   1.703   7.548  0.0852  0.4379 -0.2380
39320SOL    HW127890   0.749   1.670   7.609  1.3852 -1.3456  0.2536
39320SOL    HW227891   0.888   1.730   7.603  0.4359  0.8388 -0.8862
39321SOL     OW27892   6.076   0.488   7.927 -0.1359 -0.5443  0.5277
39321SOL    HW127893   5.981   0.473   7.922 -0.5626 -0.0437  4.1707
39321SOL    HW227894   6.109   0.415   7.979  1.8664 -1.5529 -1.9343
39322SOL     OW27895   8.034   1.710   4.450 -0.3456  0.7761  0.3592
39322SOL    HW127896   8.022   1.690   4.358 -1.4800  0.0964  0.6387
39322SOL    HW227897   8.055   1.804   4.452  3.4775  0.1347 -0.8378
39323SOL     OW27898  10.266  13.288   2.984  0.0388 -0.2814 -0.3440
39323SOL    HW127899  10.331  13.240   2.932 -0.2240 -0.9158 -0.1013
39323SOL    HW227900  10.260  13.238   3.066 -0.5403 -0.0597 -0.2495
39324SOL     OW27901   9.260  12.382   4.484 -0.4848  0.3124 -0.2218
39324SOL    HW127902   9.238  12.345   4.399  2.5334 -0.1617 -0.9296
39324SOL    HW227903   9.222  12.321   4.548 -3.0276  0.8287 -1.1393
39325SOL     OW27904   4.692   9.972   8.623 -0.3553  0.3642  0.1161
39325SOL    HW127905   4.744   9.893   8.636  1.6366  1.3872 -1.1382
39325SOL    HW227906   4.699   9.990   8.530 -0.7732  1.9970  0.3692
39326SOL     OW27907   9.567  11.952  10.299 -0.7907  1.1173 -0.1452
39326SOL    HW127908   9.517  11.941  10.380  0.3974 -1.0815  0.3666
39326SOL    HW227909   9.513  12.011  10.246 -3.1514  0.1128  0.9762
39327SOL     OW27910  12.573   7.885   4.386 -0.6007  0.0123  0.4963
39327SOL    HW127911  12.503   7.950   4.394  0.5316  1.2712  0.6913
39327SOL    HW227912  12.572   7.860   4.293 -1.8273 -0.6177  0.6679
39328SOL     OW27913   8.584   8.915  11.718 -0.1117  0.5027  0.4704
39328SOL    HW127914   8.496   8.899  11.686  0.3411 -1.0802 -0.0566
39328SOL    HW227915   8.573   8.980  11.787 -1.3278  2.5413 -1.5228
39329SOL     OW27916  10.902  10.093   1.872 -0.2469  0.8391 -0.1730
39329SOL    HW127917  10.928  10.185   1.867  1.2484  0.5105  0.9325
39329SOL    HW227918  10.837  10.089   1.942  1.0653  0.7931  1.0746
39330SOL     OW27919   4.384   6.113  13.221 -0.2784  0.4027  1.0219
39330SOL    HW127920   4.433   6.076  13.294  1.8132  0.6169 -0.1797
39330SOL    HW227921   4.370   6.204  13.246 -1.8201 -0.1156  2.2016
39331SOL     OW27922   6.013   8.303   9.018  0.3038 -0.8198  0.5812
39331SOL    HW127923   6.003   8.398   9.030 -1.0588 -0.5451 -2.0066
39331SOL    HW227924   5.966   8.265   9.092  0.5347  0.4962  1.4481
39332SOL     OW27925   6.659  12.900   1.451  0.1957 -0.2811 -0.2139
39332SOL    HW127926   6.749  12.904   1.419  0.1103  0.6463 -0.3711
39332SOL    HW227927   6.606  12.926   1.376 -0.0719  0.9071  0.3488
39333SOL     OW27928  12.658   9.205  10.303  0.4909 -0.3129 -0.5437
39333SOL    HW127929  12.647   9.299  10.319  1.2638 -0.3557  0.3162
39333SOL    HW227930  12.635   9.194  10.211  0.0205  0.6556 -0.5598
39334SOL     OW27931  12.802  11.744   3.010 -0.0120 -1.4937 -0.3346
39334SOL    HW127932  12.804  11.839   3.022 -0.3619 -1.7257  2.0473
39334SOL    HW227933  12.714  11.725   2.978  0.3435 -0.9766 -1.7028
39335SOL     OW27934  11.924   5.818   4.968 -0.1212  0.4158  0.1049
39335SOL    HW127935  11.873   5.786   4.894  1.2247  0.1334 -0.7328
39335SOL    HW227936  12.014   5.816   4.938  0.6140 -0.8618  2.1561
39336SOL     OW27937   6.979  11.709   6.238 -0.6565  0.0615 -0.0247
39336SOL    HW127938   6.890  11.730   6.207 -0.1287  0.7890 -1.0910
39336SOL    HW227939   7.016  11.794   6.262 -0.6423 -0.3634  1.5498
39337SOL     OW27940   8.420   2.468   3.929  0.7133  0.1390  0.2756
39337SOL    HW127941   8.450   2.537   3.870 -0.4682  1.2865  0.9473
39337SOL    HW227942   8.373   2.407   3.872  0.9849  0.3640 -0.2008
39338SOL     OW27943   8.029   8.005  11.288  0.1022  0.3329  0.0825
39338SOL    HW127944   8.037   7.997  11.193  0.1628 -1.7474  0.2015
39338SOL    HW227945   8.056   7.919  11.321 -0.4820  0.8221  1.9437
39339SOL     OW27946   5.303   3.658   0.535  0.3645 -0.1595 -0.1760
39339SOL    HW127947   5.266   3.597   0.471 -0.8310 -2.3663  2.4336
39339SOL    HW227948   5.365   3.606   0.585  1.0942  1.4341  0.6305
39340SOL     OW27949   7.471   2.208   7.264  0.5521  0.2192  0.2031
39340SOL    HW127950   7.542   2.257   7.221  0.7255  0.3652  0.6494
39340SOL    HW227951   7.408   2.191   7.194 -0.4470  2.7495  0.3980
39341SOL     OW27952  12.519  11.761   0.965 -0.0252  0.4854 -0.1338
39341SOL    HW127953  12.441  11.779   0.912  0.6250  1.7218 -0.7058
39341SOL    HW227954  12.545  11.672   0.940  0.8588  1.3712 -2.7195
39342SOL     OW27955   7.295   4.507   4.457 -0.0619 -1.1422 -0.3068
39342SOL    HW127956   7.287   4.545   4.545  1.8966 -0.6696 -0.2997
39342SOL    HW227957   7.254   4.572   4.400 -2.4241 -1.9846  0.3180
39343SOL     OW27958   0.839   2.466   6.669 -0.0507  0.0835 -0.2410
39343SOL    HW127959   0.795   2.543   6.705 -0.2235 -0.2938  0.3785
39343SOL    HW227960   0.823   2.398   6.734  2.1909  0.1484  0.4856
39344SOL     OW27961   5.621   8.509   0.232  0.3970  0.3005  0.2325
39344SOL    HW127962   5.689   8.501   0.300  2.5828  0.0307 -1.8321
39344SOL    HW227963   5.609   8.603   0.221  1.7404  0.4172 -0.5107
39345SOL     OW27964   6.827   8.211  11.730 -0.3049 -0.9822 -0.4880
39345SOL    HW127965   6.894   8.145  11.714 -0.8177 -1.4339 -0.8025
39345SOL    HW227966   6.745   8.169  11.704 -0.6416 -0.2236 -0.6786
39346SOL     OW27967   4.860   4.630   4.159 -0.1158  0.0309  0.0523
39346SOL    HW127968   4.785   4.689   4.147  0.2933  0.6084  0.2670
39346SOL    HW227969   4.897   4.620   4.071  0.6172  1.1976  0.2048
39347SOL     OW27970   3.279  11.356   2.073 -0.2044  0.8875 -0.2585
39347SOL    HW127971   3.267  11.437   2.122  0.0613  1.1326 -0.5905
39347SOL    HW227972   3.193  11.338   2.036  0.0940  1.9422 -1.5692
39348SOL     OW27973   1.773   1.234   6.167 -0.0927 -0.2241 -0.3021
39348SOL    HW127974   1.729   1.205   6.247  0.8203  1.7223  0.9951
39348SOL    HW227975   1.817   1.315   6.192 -2.1032  2.0998 -3.4710
39349SOL     OW27976   2.583   2.465   8.716 -0.0445 -0.4360 -0.3451
39349SOL    HW127977   2.531   2.425   8.646 -0.6628 -0.4910  0.1342
39349SOL    HW227978   2.673   2.465   8.682 -0.6137  1.5382 -2.0405
39350SOL     OW27979   3.467  12.949   9.915 -0.0833 -0.0214 -0.0938
39350SOL    HW127980   3.548  12.966   9.866 -0.7034  1.5761 -0.6142
39350SOL    HW227981   3.454  13.028   9.967 -1.4247 -0.1867 -0.1563
39351SOL     OW27982   2.637   1.258  12.406  0.2559 -0.2448 -0.0199
39351SOL    HW127983   2.680   1.312  12.473 -0.1613  0.7022 -0.4930
39351SOL    HW227984   2.705   1.244  12.340  0.2125  0.1680 -0.1542
39352SOL     OW27985  10.781   9.995  12.823  0.4670 -0.3704 -1.0841
39352SOL    HW127986  10.875  10.013  12.830  0.2409  0.5889 -0.4876
39352SOL    HW227987  10.760   9.948  12.904  0.1172  0.8764 -0.4227
39353SOL     OW27988   3.439   3.021   0.306  0.5077 -0.3137 -0.1640
39353SOL    HW127989   3.403   3.065   0.383 -0.7404 -0.1719 -0.7974
39353SOL    HW227990   3.423   2.928   0.322 -0.3842 -0.2351 -0.5444
39354SOL     OW27991   4.602   7.607   8.662  0.8953 -0.3156 -0.0673
39354SOL    HW127992   4.622   7.588   8.754  0.3866  1.2189  0.3881
39354SOL    HW227993   4.549   7.533   8.633  0.8048 -0.6685  0.9734
39355SOL     OW27994   3.774  11.856  12.533  0.2760 -0.1712  0.3976
39355SOL    HW127995   3.793  11.898  12.449 -0.2603 -1.4039 -0.3717
39355SOL    HW227996   3.708  11.790  12.512 -1.7393  1.1368  2.2402
39356SOL     OW27997   7.528   5.936   9.252  0.4702  0.2820 -0.2273
39356SOL    HW127998   7.469   5.861   9.262 -0.1520  0.7196 -0.5440
39356SOL    HW227999   7.614   5.896   9.242  0.5025 -0.3161  1.9365
39357SOL     OW28000   5.006   1.773  10.828 -0.1278 -0.0274  0.4194
39357SOL    HW128001   4.999   1.867  10.842 -0.6170 -0.1936  1.4096
39357SOL    HW228002   5.071   1.763  10.758 -0.6737  1.0707 -0.2632
39358SOL     OW28003  11.375   2.022  13.014  0.4504  0.1780  0.2783
39358SOL    HW128004  11.415   2.027  13.101  0.6525  0.3075  0.1759
39358SOL    HW228005  11.383   2.110  12.978 -1.9367  0.8152  1.1421
39359SOL     OW28006  10.364  13.051   8.040  0.5162  0.0274 -0.1479
39359SOL    HW128007  10.311  13.131   8.045 -1.2886 -1.1029 -0.4447
39359SOL    HW228008  10.413  13.060   7.958  1.1352  1.2601  0.3223
39360SOL     OW28009  11.975  12.412  10.321 -0.1738  0.9947  0.1835
39360SOL    HW128010  11.922  12.350  10.372  1.2428  0.1429  0.6535
39360SOL    HW228011  12.060  12.412  10.364  0.7621  1.0036 -1.6113
39361SOL     OW28012   3.988   0.421   7.162  0.4583 -0.4086  0.2885
39361SOL    HW128013   3.974   0.493   7.223  0.0814 -0.7924  0.6516
39361SOL    HW228014   4.083   0.410   7.159  0.7459  1.6782 -1.5890
39362SOL     OW28015   8.201   6.313   3.985  0.4695  0.3962 -0.0905
39362SOL    HW128016   8.288   6.328   3.948  1.0838  1.7722  1.7620
39362SOL    HW228017   8.143   6.372   3.936  1.1890  1.8865  0.8069
39363SOL     OW28018   1.055   0.281   7.286  0.4410 -0.1936 -0.0980
39363SOL    HW128019   1.046   0.195   7.327  1.4738 -0.1123  0.3447
39363SOL    HW228020   0.989   0.335   7.329 -0.1672 -0.7502 -0.3296
39364SOL     OW28021   5.987  10.213  11.812 -0.0364  0.0818  0.2369
39364SOL    HW128022   5.955  10.302  11.799 -2.7509 -0.9828 -1.2380
39364SOL    HW228023   6.061  10.205  11.753 -2.4006  0.1931 -2.9941
39365SOL     OW28024   1.734  11.018  12.242 -0.5630 -0.1023 -0.0921
39365SOL    HW128025   1.660  11.070  12.213 -1.7242 -2.2530 -1.2403
39365SOL    HW228026   1.805  11.040  12.181 -1.1846 -0.1890 -0.8570
39366SOL     OW28027  10.842   7.066   4.194 -0.1580  0.6664  0.3216
39366SOL    HW128028  10.897   7.128   4.148  0.0162  0.3304  0.0716
39366SOL    HW228029  10.902   6.999   4.226 -0.5889 -0.6473 -1.4489
39367SOL     OW28030   5.011   6.149  10.212  0.2477 -0.8456 -0.2105
39367SOL    HW128031   4.934   6.205  10.200  0.2743 -0.7050  0.2764
39367SOL    HW228032   4.976   6.070  10.253  0.3506 -0.8149 -0.0649
39368SOL     OW28033   3.214   5.770  12.919  0.2529  0.6459  0.7197
39368SOL    HW128034   3.263   5.852  12.929 -0.4580  1.3389 -0.9864
39368SOL    HW228035   3.246   5.733  12.837 -0.3295 -0.1627  0.8435
39369SOL     OW28036   9.116   1.457   0.369  0.3095  0.7490  0.3229
39369SOL    HW128037   9.069   1.513   0.307 -0.3684  0.7736  0.8522
39369SOL    HW228038   9.202   1.444   0.329 -0.3405  0.2270 -0.9342
39370SOL     OW28039   3.910   9.115  10.406  0.0742 -0.0637  0.2812
39370SOL    HW128040   3.857   9.178  10.454  0.3950 -0.8794  1.7411
39370SOL    HW228041   3.995   9.157  10.396 -0.4811  0.7986 -1.1119
39371SOL     OW28042   2.645   5.625   4.397 -0.2125  0.6831  0.0208
39371SOL    HW128043   2.732   5.623   4.436  0.1630  0.5243 -0.8051
39371SOL    HW228044   2.649   5.694   4.332 -0.5889  0.4312 -0.2785
39372SOL     OW28045   6.260   3.035  12.910  0.3022  0.4650  0.4435
39372SOL    HW128046   6.247   2.952  12.865  2.8183  0.8752 -1.3031
39372SOL    HW228047   6.263   3.100  12.840 -1.8665  2.1514  1.7745
39373SOL     OW28048  10.753   3.983   5.801  0.3521 -0.3052  0.0705
39373SOL    HW128049  10.780   4.011   5.713 -0.5847 -0.8588 -0.4194
39373SOL    HW228050  10.708   4.059   5.837 -0.6949 -0.5890 -0.5883
39374SOL     OW28051   6.389   9.142  12.888 -0.2285  0.5281 -0.0792
39374SOL    HW128052   6.374   9.126  12.794  0.0420  2.3241 -0.4555
39374SOL    HW228053   6.332   9.215  12.909 -2.1903 -1.3985  1.8095
39375SOL     OW28054  11.537   9.602   1.010  0.3667  0.3299  0.3501
39375SOL    HW128055  11.609   9.635   1.064  1.0134 -1.4627  0.6881
39375SOL    HW228056  11.576   9.528   0.962 -0.8264  0.3754 -0.7421
39376SOL     OW28057   1.779   2.304   0.679 -0.2076  0.0535 -0.2684
39376SOL    HW128058   1.860   2.332   0.635 -0.8056 -0.3157 -1.6552
39376SOL    HW228059   1.806   2.231   0.734  0.6773  0.9199  0.4772
39377SOL     OW28060   4.933   9.250   6.447  0.3186  0.1322 -0.3419
39377SOL    HW128061   4.898   9.196   6.376  0.6488  0.6090 -0.8815
39377SOL    HW228062   4.946   9.189   6.520 -2.0580  0.0211  0.0651
39378SOL     OW28063   5.645   3.283  11.755 -0.4059 -0.0234  0.1781
39378SOL    HW128064   5.568   3.290  11.699  1.1844  1.6456 -1.9554
39378SOL    HW228065   5.665   3.189  11.756 -1.3035 -0.2511 -0.9148
39379SOL     OW28066   0.231   2.815   0.595 -0.3541  0.0330  0.1300
39379SOL    HW128067   0.152   2.868   0.590 -0.9068 -0.2628  3.5503
39379SOL    HW228068   0.258   2.820   0.687  2.2913 -1.7654 -0.4283
39380SOL     OW28069   2.796   1.169  13.303 -0.1991  0.1436  0.3029
39380SOL    HW128070   2.837   1.121  13.374  2.0276  0.3870 -0.7243
39380SOL    HW228071   2.854   1.155  13.228 -1.0913  1.9728 -0.8006
39381SOL     OW28072   8.630  10.609   1.333  0.9356  0.6430 -0.0485
39381SOL    HW128073   8.576  10.553   1.390  0.1654 -0.3373 -1.6525
39381SOL    HW228074   8.705  10.554   1.312  0.7841  0.6689 -0.6572
39382SOL     OW28075  12.025   7.455   9.168 -0.9277 -0.0484  0.6660
39382SOL    HW128076  11.972   7.413   9.236 -0.1065  0.5687  1.7188
39382SOL    HW228077  11.976   7.441   9.087 -2.0828 -0.5313  1.4266
39383SOL     OW28078   7.692   0.365   1.699 -0.1092  0.4728  0.5908
39383SOL    HW128079   7.769   0.386   1.646 -0.3930 -0.0227 -0.0303
39383SOL    HW228080   7.671   0.447   1.744  1.5653  0.2846  1.8281
39384SOL     OW28081  12.546   2.554  10.265 -0.6849  0.2106  0.5700
39384SOL    HW128082  12.599   2.631  10.243 -1.0049  0.1013 -0.6219
39384SOL    HW228083  12.498   2.533  10.185 -0.3850 -1.4255  0.7850
39385SOL     OW28084   7.186   6.583   5.640  0.2143 -0.4969  0.0543
39385SOL    HW128085   7.146   6.646   5.701  0.4058 -0.1737 -0.1528
39385SOL    HW228086   7.279   6.584   5.662  0.0923 -1.4079  0.6796
39386SOL     OW28087   0.183   6.925  10.795 -0.8838  0.2293 -0.3086
39386SOL    HW128088   0.165   6.852  10.854  1.7494  1.4955  2.3177
39386SOL    HW228089   0.235   6.887  10.724  2.7640 -0.3107  2.3487
39387SOL     OW28090  10.474  12.254   2.869  0.5985  0.3941 -0.0948
39387SOL    HW128091  10.475  12.166   2.908  0.8731  0.1261 -0.6967
39387SOL    HW228092  10.392  12.258   2.821  1.3955 -0.2154 -1.5704
39388SOL     OW28093   3.724   2.451   9.465 -0.4125 -0.1135 -0.5097
39388SOL    HW128094   3.762   2.371   9.502 -0.9566 -0.8241 -1.4470
39388SOL    HW228095   3.754   2.521   9.523  1.9011 -0.7034 -0.8737
39389SOL     OW28096   3.540   6.204   6.272 -0.0527  0.0439 -0.2245
39389SOL    HW128097   3.615   6.145   6.266 -0.0628 -0.0788  0.7497
39389SOL    HW228098   3.513   6.200   6.364 -0.5785  0.9186 -0.3289
39390SOL     OW28099   7.956   9.719   9.107 -0.0139 -0.0569  0.0083
39390SOL    HW128100   8.024   9.786   9.107 -0.2600  0.2659 -2.6843
39390SOL    HW228101   7.903   9.739   9.185  1.3148  1.3703  0.5966
39391SOL     OW28102  10.926   6.185  10.604 -0.4053  0.2686 -0.0653
39391SOL    HW128103  10.895   6.207  10.691 -0.1773  1.5924 -0.2931
39391SOL    HW228104  10.904   6.093  10.592 -0.9267  0.2251  1.1702
39392SOL     OW28105   5.881   2.298   4.648 -0.1560 -0.6090 -0.5273
39392SOL    HW128106   5.904   2.391   4.641 -0.2416 -0.6354 -1.1839
39392SOL    HW228107   5.833   2.292   4.730  0.5122 -0.2105 -0.0906
39393SOL     OW28108   4.592   7.743   0.413  0.1552 -0.0787  0.5414
39393SOL    HW128109   4.667   7.703   0.456  0.7338 -0.5243 -0.8288
39393SOL    HW228110   4.630   7.801   0.347 -0.7008  0.6633  0.6800
39394SOL     OW28111   7.586   2.230   3.472 -0.4625 -0.0360 -0.1631
39394SOL    HW128112   7.679   2.237   3.492 -0.8036  0.9805  1.2463
39394SOL    HW228113   7.560   2.147   3.512 -0.2162 -0.1985 -0.3372
39395SOL     OW28114   1.190   4.970   0.125 -1.0663 -0.0513 -0.1798
39395SOL    HW128115   1.110   4.945   0.078 -1.5231  1.3900 -0.2106
39395SOL    HW228116   1.193   4.912   0.201 -2.3074  0.0716 -0.0191
39396SOL     OW28117  12.010   8.220   8.725  0.1726 -0.5385  0.0010
39396SOL    HW128118  11.937   8.277   8.700  1.7020  1.9808  0.9330
39396SOL    HW228119  11.988   8.190   8.813  0.9499  1.6085  0.9880
39397SOL     OW28120   0.290   2.283   6.674  0.6867 -0.0118  0.0952
39397SOL    HW128121   0.365   2.287   6.615  0.3950 -0.9033 -0.3554
39397SOL    HW228122   0.322   2.319   6.756  1.0642  1.3884 -0.6325
39398SOL     OW28123  10.705   2.390   1.453 -0.0449 -0.2780  0.1783
39398SOL    HW128124  10.711   2.475   1.408 -1.4917 -0.1576  0.1504
39398SOL    HW228125  10.705   2.325   1.383  2.0535 -0.3950  0.2428
39399SOL     OW28126   8.780  11.836   2.919  0.5059  0.6960  0.5420
39399SOL    HW128127   8.712  11.901   2.903  0.8955  0.6131 -1.8945
39399SOL    HW228128   8.856  11.888   2.946  0.0611  0.9712  1.3038
39400SOL     OW28129   2.214  11.284   3.817 -0.3471  0.1934 -0.0070
39400SOL    HW128130   2.193  11.207   3.764  3.0313 -0.5648 -0.4727
39400SOL    HW228131   2.195  11.358   3.760 -0.2440 -0.4703 -0.9366
39401SOL     OW28132   7.433  11.258   9.070 -0.1626 -0.1726 -0.8024
39401SOL    HW128133   7.491  11.190   9.035  0.1814 -0.7102  0.7319
39401SOL    HW228134   7.345  11.224   9.054 -0.0254 -0.2917 -1.3423
39402SOL     OW28135   0.560   3.832   7.689  0.4547 -0.0083  0.2860
39402SOL    HW128136   0.595   3.848   7.776  2.6321 -1.5685 -0.2190
39402SOL    HW228137   0.612   3.759   7.655 -0.3420  0.5245 -2.3090
39403SOL     OW28138   9.390   3.550  12.809  0.4775 -0.8890  0.6637
39403SOL    HW128139   9.434   3.599  12.740 -0.2876  1.7844  1.9323
39403SOL    HW228140   9.307   3.522  12.770  0.6054 -0.5040  0.1081
39404SOL     OW28141   3.331   0.041   5.161 -0.1953 -0.3124 -0.3541
39404SOL    HW128142   3.318   0.033   5.066  0.1886  2.8903 -0.7778
39404SOL    HW228143   3.246   0.019   5.199 -1.3472  1.4911 -1.7253
39405SOL     OW28144   9.433   9.916   6.979  0.1581 -0.8297 -0.3449
39405SOL    HW128145   9.397   9.869   7.053  1.1615 -1.2323 -0.0909
39405SOL    HW228146   9.505   9.861   6.948  0.0895 -0.4163 -1.2901
39406SOL     OW28147   1.212   4.019  13.105  0.3614  0.2994 -0.0246
39406SOL    HW128148   1.184   4.111  13.103 -0.7865 -0.0374 -0.7603
39406SOL    HW228149   1.307   4.022  13.098  0.2887  1.4263 -0.7722
39407SOL     OW28150   1.098   3.886   4.573 -0.3245 -0.1891  0.1621
39407SOL    HW128151   1.010   3.922   4.574  0.1698  1.0829 -0.1891
39407SOL    HW228152   1.152   3.956   4.536  0.6243 -1.4247 -0.8852
39408SOL     OW28153   3.547   1.888   8.458  0.0273 -0.3924  0.2646
39408SOL    HW128154   3.524   1.980   8.441 -3.2032 -1.2863 -1.0808
39408SOL    HW228155   3.520   1.873   8.548  2.6604  0.4360  1.2854
39409SOL     OW28156  10.108   6.535   5.091  0.7005  0.4731  0.2390
39409SOL    HW128157  10.194   6.493   5.092  1.5849  2.2013 -0.0330
39409SOL    HW228158  10.103   6.579   5.176  0.6239  1.3954 -0.2369
39410SOL     OW28159   0.665  12.349   4.921  0.2003 -0.4085  0.2998
39410SOL    HW128160   0.693  12.307   5.002  0.3522 -0.8506  0.0217
39410SOL    HW228161   0.679  12.282   4.853  0.5672  0.1299 -0.1658
39411SOL     OW28162   8.182   4.236   0.568  0.4972  0.2207 -0.3908
39411SOL    HW128163   8.215   4.326   0.565  2.3302 -0.2956  1.5967
39411SOL    HW228164   8.115   4.236   0.636  0.3002  0.1187 -0.5806
39412SOL     OW28165   3.936   7.904   4.908  0.6807 -0.3973  0.5115
39412SOL    HW128166   3.990   7.882   4.832 -0.1011 -0.2008 -0.1063
39412SOL    HW228167   3.923   7.998   4.903  1.5891 -0.1933  1.5476
39413SOL     OW28168   3.161   4.150   2.127  0.0295  0.1105  0.2170
39413SOL    HW128169   3.212   4.186   2.054 -0.1022  0.7249  0.4232
39413SOL    HW228170   3.132   4.065   2.096  2.1794 -0.8003  0.5339
39414SOL     OW28171   7.355   8.957   4.291 -0.6194 -0.1850  0.6243
39414SOL    HW128172   7.400   9.026   4.340  0.2960  1.1213 -1.8687
39414SOL    HW228173   7.400   8.877   4.316  2.4130  0.9095 -0.8172
39415SOL     OW28174   2.795   8.907  10.377 -0.2704  0.2086 -0.0397
39415SOL    HW128175   2.771   8.830  10.429  2.6048 -1.9343 -1.5895
39415SOL    HW228176   2.731   8.908  10.305  0.4135 -1.6636 -0.7502
39416SOL     OW28177   3.596   3.689   6.619  0.5655  0.1974  0.2206
39416SOL    HW128178   3.688   3.711   6.613  0.6380  0.2604  1.3281
39416SOL    HW228179   3.551   3.753   6.564  1.1597  0.3344 -0.1021
39417SOL     OW28180   2.306   5.181   2.421 -0.3040  0.3865  0.0133
39417SOL    HW128181   2.247   5.226   2.481 -1.0817 -0.5287 -0.0440
39417SOL    HW228182   2.382   5.158   2.474 -0.6820  0.2037  0.4801
39418SOL     OW28183  12.748   9.445  13.010 -0.4889 -0.6414 -0.1931
39418SOL    HW128184  12.802   9.381  13.055  0.7215 -0.9567 -1.9773
39418SOL    HW228185  12.788   9.529  13.032  0.4205 -0.8302 -1.0395
39419SOL     OW28186   2.449   7.494   1.729 -0.6851  0.0530 -0.6643
39419SOL    HW128187   2.370   7.545   1.748 -1.3015 -0.8881 -0.6216
39419SOL    HW228188   2.438   7.413   1.779  0.9973  0.4933  0.5073
39420SOL     OW28189  11.651   8.156   9.613  0.2389 -0.0919 -0.3139
39420SOL    HW128190  11.590   8.227   9.593 -0.2715 -0.4190  0.0519
39420SOL    HW228191  11.643   8.096   9.539 -0.4570 -0.5060  0.0784
39421SOL     OW28192   6.359  11.691   7.774 -0.2623  0.6745  0.1103
39421SOL    HW128193   6.433  11.750   7.778  1.4994 -0.8449 -3.9703
39421SOL    HW228194   6.385  11.615   7.827 -0.9353  1.8798  2.2797
39422SOL     OW28195   6.122   6.834  12.849 -0.1903 -0.0979  0.1436
39422SOL    HW128196   6.040   6.860  12.891 -0.5077 -0.9730  0.0905
39422SOL    HW228197   6.095   6.771  12.782  0.5034 -0.1729 -0.0667
39423SOL     OW28198  12.730  10.227   6.811 -0.3228 -0.3581  0.4674
39423SOL    HW128199  12.640  10.226   6.780 -0.1122 -0.9210 -0.1459
39423SOL    HW228200  12.781  10.256   6.735 -0.1037  1.1492  1.1516
39424SOL     OW28201   1.081   2.028  10.712 -0.0984 -0.2544 -0.0672
39424SOL    HW128202   1.030   1.984  10.644  0.7263  0.6130 -1.2918
39424SOL    HW228203   1.163   1.980  10.717  0.4626  0.5999 -0.8031
39425SOL     OW28204  12.791   7.211   3.557  0.1138 -0.1507 -0.1144
39425SOL    HW128205  12.885   7.224   3.562  0.0892 -0.2252  0.6748
39425SOL    HW228206  12.773   7.139   3.617 -0.6851  1.2173  1.3959
39426SOL     OW28207   5.699  12.584  13.095 -0.0293 -0.0722  0.2372
39426SOL    HW128208   5.629  12.570  13.031 -1.4330 -0.1714  1.7373
39426SOL    HW228209   5.734  12.670  13.074 -0.3791 -0.1598 -0.7379
39427SOL     OW28210   1.203   1.052  12.524 -0.2457 -0.0875 -0.3449
39427SOL    HW128211   1.248   1.051  12.439  0.8173 -0.4510  0.2013
39427SOL    HW228212   1.111   1.064  12.502 -0.0614 -0.7346 -1.5872
39428SOL     OW28213   6.502   9.685   0.307 -0.8036  0.3796 -0.0360
39428SOL    HW128214   6.416   9.655   0.280 -0.9567  0.1736  0.6655
39428SOL    HW228215   6.497   9.780   0.302 -0.3809  0.3330 -2.0659
39429SOL     OW28216   4.590  13.245  10.043  0.6585 -0.1039 -0.6370
39429SOL    HW128217   4.556  13.289   9.964 -1.0876 -0.0565  0.1019
39429SOL    HW228218   4.673  13.290  10.060 -0.3498  1.9568 -0.7618
39430SOL     OW28219   9.172   5.328   0.221 -0.0537 -0.0542  0.6049
39430SOL    HW128220   9.115   5.317   0.297  0.3791  0.1323  0.9649
39430SOL    HW228221   9.143   5.261   0.159 -0.4575 -0.1634  0.9069
39431SOL     OW28222   3.718   0.971   2.483 -0.0100 -0.0058  0.8022
39431SOL    HW128223   3.757   0.888   2.455  0.9840  0.4526  0.7909
39431SOL    HW228224   3.696   0.957   2.575  0.3324 -0.2219  0.8537
39432SOL     OW28225   0.402   4.220   4.118 -0.0884 -0.3472  0.3372
39432SOL    HW128226   0.470   4.188   4.059 -0.0932  0.6818 -0.2585
39432SOL    HW228227   0.447   4.283   4.174 -0.4822  0.1361  0.1191
39433SOL     OW28228  11.853   6.266   1.712 -0.0565 -0.1872  0.2183
39433SOL    HW128229  11.928   6.209   1.729  0.2620  0.5833  1.5197
39433SOL    HW228230  11.867   6.341   1.769 -0.9621  0.7570 -0.7735
39434SOL     OW28231   4.652   5.985   3.698  0.0514  0.1224  0.0968
39434SOL    HW128232   4.634   5.971   3.605  0.2873 -2.2747  0.3466
39434SOL    HW228233   4.576   5.950   3.743  0.8352 -0.6748  0.8493
39435SOL     OW28234   0.981   0.963   3.185 -0.3325 -0.3725 -0.6245
39435SOL    HW128235   0.945   0.922   3.264  0.9314 -0.0698  0.1388
39435SOL    HW228236   0.905   0.990   3.135 -1.2240  1.5676  1.6094
39436SOL     OW28237   7.896  10.029   9.930  0.1846  0.5492  0.0016
39436SOL    HW128238   7.810   9.986   9.932 -0.0557  1.0205  0.2066
39436SOL    HW228239   7.904  10.069  10.016  0.2247  1.2295 -0.3074
39437SOL     OW28240   0.943   6.269  12.315 -0.6919  0.0444  0.4010
39437SOL    HW128241   0.849   6.284  12.309 -0.6049  0.0830 -1.4048
39437SOL    HW228242   0.955   6.227  12.400 -1.8151  3.5550  2.5214
39438SOL     OW28243   4.563   4.568   3.368 -0.4481 -0.2024  0.3629
39438SOL    HW128244   4.646   4.521   3.375 -1.0993 -1.6227 -0.8968
39438SOL    HW228245   4.535   4.580   3.459 -0.3366 -2.4904  0.7554
39439SOL     OW28246  10.915   5.249  11.560 -0.4885  0.3500 -0.1688
39439SOL    HW128247  10.821   5.244  11.579 -0.5269  0.1906 -0.3958
39439SOL    HW228248  10.951   5.169  11.598 -0.9643 -1.3854 -3.0201
39440SOL     OW28249   7.199   2.113   0.903 -0.2710  0.0140  0.6888
39440SOL    HW128250   7.139   2.187   0.911  0.1264  0.7944 -2.1781
39440SOL    HW228251   7.286   2.151   0.912 -0.0824 -0.1732 -0.2013
39441SOL     OW28252  10.636   6.110   1.304 -0.1315 -0.6152 -0.0967
39441SOL    HW128253  10.646   6.014   1.303  2.5045 -0.4491  1.0205
39441SOL    HW228254  10.600   6.128   1.391  2.2747 -0.4918  0.9573
39442SOL     OW28255  13.077   4.021   7.664  0.4039  0.1968  0.2712
39442SOL    HW128256  13.127   4.002   7.743  0.9899  1.1931  0.1495
39442SOL    HW228257  13.134   3.994   7.592 -0.5016 -1.6148  0.1658
39443SOL     OW28258   8.631  10.980   4.661 -0.1297  0.3573 -0.4095
39443SOL    HW128259   8.687  10.952   4.589  1.4582  1.8633  0.1650
39443SOL    HW228260   8.559  11.026   4.619 -0.1793 -0.3348 -1.1015
39444SOL     OW28261   3.014   8.813  13.163  0.0474  0.3958 -0.2849
39444SOL    HW128262   3.065   8.733  13.170  4.4260  2.7240 -1.8426
39444SOL    HW228263   3.008   8.846  13.253 -0.1702 -0.6796  0.1118
39445SOL     OW28264   7.407   4.088   4.365 -0.1042  0.2775 -0.3196
39445SOL    HW128265   7.354   4.017   4.329  0.1480  0.7883 -1.7863
39445SOL    HW228266   7.343   4.157   4.387 -0.1457  0.5291 -1.1984
39446SOL     OW28267   3.517   9.267   3.116  0.6141 -0.4477 -0.5349
39446SOL    HW128268   3.571   9.192   3.089  0.6995  0.2858 -2.6131
39446SOL    HW228269   3.578   9.341   3.118 -0.1879  0.3704 -2.8119
39447SOL     OW28270  13.048  11.958   5.874 -0.7342 -0.7477 -0.2290
39447SOL    HW128271  13.024  12.025   5.810 -1.6392  0.0644  0.9129
39447SOL    HW228272  13.143  11.963   5.880 -0.8354  1.0605  0.4565
39448SOL     OW28273   8.040   7.324   8.816  0.0645 -0.5254  0.2083
39448SOL    HW128274   8.060   7.239   8.777 -0.4840 -0.8147  0.5432
39448SOL    HW228275   7.948   7.318   8.843 -0.0091  0.2054  0.1589
39449SOL     OW28276   9.795  10.821   1.287 -0.2612 -0.8404  0.1063
39449SOL    HW128277   9.751  10.854   1.365 -0.3299 -2.4252  0.7788
39449SOL    HW228278   9.853  10.752   1.319  1.9762  0.4737 -0.9009
39450SOL     OW28279   8.202   0.391   3.848 -0.4442 -0.2786 -0.0801
39450SOL    HW128280   8.137   0.449   3.888 -1.6882 -1.2080 -0.7060
39450SOL    HW228281   8.169   0.374   3.760 -0.8358 -2.9476  0.4822
39451SOL     OW28282   9.776   7.892  11.735 -0.0983 -0.4445  0.2571
39451SOL    HW128283   9.825   7.937  11.804  1.4943 -0.7414 -0.6525
39451SOL    HW228284   9.812   7.927  11.653 -0.9201 -1.2025 -0.4480
39452SOL     OW28285  11.189   9.375  11.858  0.2315 -0.7232 -0.2525
39452SOL    HW128286  11.146   9.362  11.942 -0.1063 -0.9392 -0.4585
39452SOL    HW228287  11.140   9.445  11.816  0.5139 -0.4868 -0.1935
39453SOL     OW28288   0.193  10.057   5.288 -0.5924 -0.2894  0.0276
39453SOL    HW128289   0.149   9.986   5.334 -0.2931 -0.9865 -0.7381
39453SOL    HW228290   0.173  10.042   5.196  0.7257 -0.2880 -0.2822
39454SOL     OW28291   3.049   8.884   7.521 -0.4594  0.1287 -0.0961
39454SOL    HW128292   3.069   8.816   7.457  2.5891  1.1362 -0.3611
39454SOL    HW228293   3.074   8.966   7.478 -1.8178  1.2290  1.0857
39455SOL     OW28294   3.293   6.621   8.097 -0.1528  0.0225 -0.2597
39455SOL    HW128295   3.198   6.622   8.084 -0.8069 -1.5368  3.3466
39455SOL    HW228296   3.322   6.542   8.052 -0.6520  0.1181 -0.7739
39456SOL     OW28297   6.163   0.055   1.517 -0.2680  0.1425 -0.0989
39456SOL    HW128298   6.124   0.045   1.603  1.0375  1.5190  0.7086
39456SOL    HW228299   6.168  -0.034   1.482 -0.5095 -0.4771  1.3808
39457SOL     OW28300   7.483   5.065  11.441 -0.1339  0.2522  0.8537
39457SOL    HW128301   7.449   5.111  11.519  0.3315  1.5198  0.3414
39457SOL    HW228302   7.406   5.054  11.385 -0.1857  0.7261  0.8297
39458SOL     OW28303   8.348  10.675   9.309 -0.2229 -0.7122  0.1263
39458SOL    HW128304   8.366  10.762   9.345  0.3781 -0.9287  0.3654
39458SOL    HW228305   8.281  10.638   9.367 -0.4954 -0.4055  0.0108
39459SOL     OW28306  10.924   7.169   3.116 -0.3031 -0.6463  0.0208
39459SOL    HW128307  10.994   7.166   3.181 -0.8069 -1.3252  0.5498
39459SOL    HW228308  10.843   7.165   3.167 -0.7573  0.5803 -0.5520
39460SOL     OW28309   7.879   4.768  11.696  0.5365 -0.4915 -0.2333
39460SOL    HW128310   7.799   4.809  11.662  0.4377 -1.2056 -0.9055
39460SOL    HW228311   7.848   4.690  11.743  0.8102 -0.5376 -0.1272
39461SOL     OW28312   4.963  10.403  10.104 -0.1034 -0.1246 -0.3672
39461SOL    HW128313   5.007  10.401  10.019 -0.6735 -0.5343 -0.6572
39461SOL    HW228314   5.030  10.435  10.164  0.3326  0.0827 -0.9525
39462SOL     OW28315   3.723  12.513  10.422  0.0097 -0.1640  0.7092
39462SOL    HW128316   3.708  12.421  10.443  0.5449 -0.3030  0.4844
39462SOL    HW228317   3.799  12.538  10.474  2.5095 -1.0039 -2.2891
39463SOL     OW28318   5.288   7.241  12.358 -0.0648  0.4218  0.6341
39463SOL    HW128319   5.339   7.194  12.292 -0.4396  0.1011  0.5709
39463SOL    HW228320   5.325   7.213  12.442  1.3911  1.9434  0.5407
39464SOL     OW28321   3.153  12.736  12.809  0.5443  0.3334 -0.1668
39464SOL    HW128322   3.184  12.649  12.834 -0.8348  0.1286  0.9658
39464SOL    HW228323   3.058  12.726  12.800  0.3986  1.6558 -0.3305
39465SOL     OW28324   6.496   5.622   3.052  0.1055  0.1614  0.2382
39465SOL    HW128325   6.575   5.593   3.097 -0.1856 -0.7375  0.1853
39465SOL    HW228326   6.528   5.671   2.976  0.6912 -1.8725 -0.9197
39466SOL     OW28327  10.867   7.421  11.952  0.4011  0.1384 -0.2030
39466SOL    HW128328  10.960   7.435  11.936  0.6304 -0.9008  0.1138
39466SOL    HW228329  10.865   7.354  12.021 -0.5784  0.5871  0.2147
39467SOL     OW28330  12.963   3.742  10.063  0.4301 -0.3741 -0.0362
39467SOL    HW128331  13.041   3.778  10.105  0.3830  0.6195 -0.7634
39467SOL    HW228332  12.947   3.799   9.988 -2.8975  1.5420  1.8594
39468SOL     OW28333  12.797   7.847   6.010  0.0048 -0.2232 -0.1207
39468SOL    HW128334  12.837   7.825   6.094  1.5495 -0.2351 -0.8279
39468SOL    HW228335  12.803   7.766   5.958 -0.8938 -0.2058 -0.2647
39469SOL     OW28336   6.018   8.346   9.941  0.0524 -0.3153  0.3325
39469SOL    HW128337   5.932   8.310   9.961  0.5057 -1.6895 -0.0277
39469SOL    HW228338   6.074   8.317  10.013  0.2558  0.4237  0.4799
39470SOL     OW28339   9.469  10.513   0.402 -0.1553 -0.2035 -0.3180
39470SOL    HW128340   9.382  10.528   0.365  0.8091  2.0945 -1.9085
39470SOL    HW228341   9.512  10.457   0.337  0.0253 -0.1080 -0.2801
39471SOL     OW28342   0.287   4.988   2.802 -0.3012  0.1675  0.4510
39471SOL    HW128343   0.252   4.919   2.859 -1.5980  0.6836  0.3223
39471SOL    HW228344   0.249   5.068   2.837  1.9914  0.9882  1.2324
39472SOL     OW28345  11.368  11.191   2.119  0.5364 -0.2528  0.6336
39472SOL    HW128346  11.346  11.102   2.091  1.1850 -0.1399 -0.3062
39472SOL    HW228347  11.440  11.179   2.181  0.2709 -0.4102  0.9140
39473SOL     OW28348  12.712   9.523   6.337  0.4422 -0.1721 -0.3220
39473SOL    HW128349  12.807   9.533   6.330  0.5058  0.0389  0.7892
39473SOL    HW228350  12.677   9.610   6.320  0.5143  0.0062  0.4309
39474SOL     OW28351   5.637  12.893   4.060 -0.3648 -0.2542 -0.4107
39474SOL    HW128352   5.668  12.807   4.032  2.2927  0.6245 -0.5036
39474SOL    HW228353   5.683  12.955   4.003 -1.1067  1.2842  0.5810
39475SOL     OW28354   6.840  12.028  10.603  0.7466 -0.1219  0.6676
39475SOL    HW128355   6.861  11.935  10.595 -0.7169 -0.4343  0.2531
39475SOL    HW228356   6.907  12.072  10.550 -0.5448 -1.2197 -2.0886
39476SOL     OW28357   0.899   5.173   3.618  0.1939 -0.6970 -0.0053
39476SOL    HW128358   0.871   5.253   3.661  0.9244 -0.1806 -0.4673
39476SOL    HW228359   0.992   5.164   3.640  0.3494 -0.9180 -0.6930
39477SOL     OW28360   2.565   6.576   0.810 -0.0134  0.2104 -0.1737
39477SOL    HW128361   2.493   6.519   0.839 -0.2626  0.8226  0.4284
39477SOL    HW228362   2.613   6.523   0.746  0.4418 -1.0956  1.2047
39478SOL     OW28363   4.424   2.413   0.380 -0.0418  0.1412  0.4638
39478SOL    HW128364   4.376   2.335   0.407 -0.9750  1.0747  1.5667
39478SOL    HW228365   4.409   2.419   0.285  0.4235 -1.2483  0.2799
39479SOL     OW28366   2.252  13.145   2.795 -0.5124  0.3129  0.1613
39479SOL    HW128367   2.304  13.181   2.867  0.6988  0.4419 -0.7303
39479SOL    HW228368   2.187  13.213   2.777  1.3842  1.9153 -1.1170
39480SOL     OW28369  13.090   3.403   7.756  0.1794 -0.1566  0.5396
39480SOL    HW128370  13.141   3.349   7.817  0.2650 -0.5151  0.1508
39480SOL    HW228371  13.139   3.399   7.674 -0.9882 -1.3106 -0.1266
39481SOL     OW28372   9.746  13.066  12.209  0.1272 -0.5990  0.3687
39481SOL    HW128373   9.802  13.130  12.165  3.2792 -4.1325 -1.2886
39481SOL    HW228374   9.680  13.043  12.143  0.2680 -0.5757  0.2209
39482SOL     OW28375   1.373   4.081   4.043 -0.2961  0.1877  0.2760
39482SOL    HW128376   1.310   4.153   4.049 -1.4032 -0.5039 -1.9429
39482SOL    HW228377   1.381   4.065   3.949  3.0660  0.0804  0.4827
39483SOL     OW28378  11.621   0.796  12.936  0.0190 -0.0353 -0.0137
39483SOL    HW128379  11.698   0.830  12.890 -0.6088  0.1592 -0.9611
39483SOL    HW228380  11.589   0.725  12.880  0.3037 -1.0454  1.0737
39484SOL     OW28381  13.242   6.355   8.646  0.1759  0.7503 -0.5062
39484SOL    HW128382  13.238   6.291   8.717  2.2935  0.3991 -0.6421
39484SOL    HW228383  13.155   6.353   8.607 -0.1883 -1.1184  0.2961
39485SOL     OW28384  11.408   6.196   0.293 -0.5725 -0.0718 -0.7368
39485SOL    HW128385  11.418   6.110   0.253  1.5799  0.0110 -0.5031
39485SOL    HW228386  11.443   6.257   0.228  0.3281  0.3424  0.1067
39486SOL     OW28387   5.658  13.187   0.355 -0.1354 -0.5011 -0.9726
39486SOL    HW128388   5.599  13.258   0.333  1.5856  1.7032  1.0492
39486SOL    HW228389   5.735  13.201   0.300  1.0576  0.5255  0.8555
39487SOL     OW28390   8.472   9.157   6.570  0.5210 -0.0899  0.4443
39487SOL    HW128391   8.459   9.082   6.627 -1.5305  0.2229  0.4774
39487SOL    HW228392   8.434   9.130   6.486  1.8565  0.1028 -0.2449
39488SOL     OW28393   4.143  12.588   9.206 -0.0185 -0.1455 -0.0886
39488SOL    HW128394   4.065  12.582   9.260 -1.2345  0.4715 -1.6874
39488SOL    HW228395   4.187  12.668   9.236 -0.8743  0.3919 -0.2281
39489SOL     OW28396   3.612   7.065   7.101  0.2738 -0.2690  0.0204
39489SOL    HW128397   3.670   7.141   7.110  1.0046 -0.6993 -0.7921
39489SOL    HW228398   3.595   7.037   7.190  1.7467 -0.4266  0.2762
39490SOL     OW28399  11.787   0.457  12.915 -0.6361 -0.1301  0.1339
39490SOL    HW128400  11.837   0.493  12.989  0.9973 -0.9740 -0.5125
39490SOL    HW228401  11.696   0.463  12.944 -0.0379 -0.8928  2.4630
39491SOL     OW28402   8.802  12.777   6.807  0.5526  0.3641  0.0957
39491SOL    HW128403   8.732  12.712   6.815  0.9437 -0.2953 -1.4459
39491SOL    HW228404   8.882  12.726   6.796  1.1428  1.1160  0.7505
39492SOL     OW28405   8.832  10.495   4.559 -0.8847  0.0800 -0.0426
39492SOL    HW128406   8.842  10.419   4.502 -2.3020  0.0378 -0.2453
39492SOL    HW228407   8.911  10.494   4.614 -1.6119 -2.4831  1.0853
39493SOL     OW28408   8.602  10.611   4.573  0.1287 -0.3839  0.3215
39493SOL    HW128409   8.640  10.696   4.593  1.3632 -1.1559  1.4713
39493SOL    HW228410   8.678  10.551   4.569 -0.7816 -1.5991  0.5612
39494SOL     OW28411   4.281   7.742   5.839 -0.1002 -0.4162 -0.0881
39494SOL    HW128412   4.195   7.757   5.880  0.3051 -0.3570  0.7666
39494SOL    HW228413   4.339   7.806   5.881  0.5705 -1.1095  0.0654
39495SOL     OW28414   4.627   1.482   7.040 -0.3909 -0.3067  0.0357
39495SOL    HW128415   4.714   1.522   7.029 -0.9177  1.6312  2.2437
39495SOL    HW228416   4.626   1.410   6.977  1.8427  1.1955 -1.8847
39496SOL     OW28417  13.274   3.433   5.411 -0.0787 -0.0727  0.6949
39496SOL    HW128418  13.214   3.492   5.457 -0.7665  4.5218 -4.9103
39496SOL    HW228419  13.217   3.379   5.356  0.7143  0.1135 -0.3493
39497SOL     OW28420   4.005   8.545   3.590 -0.2213 -0.2873  0.3114
39497SOL    HW128421   3.982   8.529   3.498  1.4603 -0.0533 -0.1954
39497SOL    HW228422   3.993   8.460   3.633  1.1516 -1.0091 -0.6498
39498SOL     OW28423   2.270   4.546   2.421 -0.0239  0.1511  0.2676
39498SOL    HW128424   2.258   4.625   2.473  0.8275  0.3657  0.1540
39498SOL    HW228425   2.278   4.475   2.485 -2.1497 -0.0766  0.3486
39499SOL     OW28426  11.589   0.351   4.311  0.2543  0.1474 -0.0879
39499SOL    HW128427  11.604   0.432   4.263  0.1103  0.8193  0.9796
39499SOL    HW228428  11.508   0.366   4.360 -0.2618 -0.9681 -0.5462
39500SOL     OW28429   8.832   3.810   7.988  0.3621  0.1472 -0.3733
39500SOL    HW128430   8.888   3.733   8.000 -0.8677 -0.5751  1.1732
39500SOL    HW228431   8.823   3.818   7.893  0.5264 -1.6436 -0.5814
39501SOL     OW28432   3.699  13.221  10.917 -0.4701 -0.1741 -0.1243
39501SOL    HW128433   3.782  13.174  10.915  1.1142  2.4090 -1.1624
39501SOL    HW228434   3.684  13.239  11.010  0.1188 -0.6956  0.0769
39502SOL     OW28435   5.223   6.522  12.016 -0.4959  0.5023  0.3574
39502SOL    HW128436   5.183   6.580  11.951 -1.6887  0.7800  1.2908
39502SOL    HW228437   5.180   6.438  12.005 -0.7543  0.5686  0.8194
39503SOL     OW28438   0.529  10.819  11.440  0.1474  0.3400  0.0753
39503SOL    HW128439   0.527  10.910  11.469  0.5860  0.5497 -0.5330
39503SOL    HW228440   0.439  10.789  11.449 -0.0198  0.8608  0.1833
39504SOL     OW28441   3.587   9.512   1.070  0.0902 -0.0397 -0.3882
39504SOL    HW128442   3.529   9.549   1.136  0.1818  0.9145 -0.8188
39504SOL    HW228443   3.674   9.518   1.108 -0.1349 -2.3001  0.6294
39505SOL     OW28444  13.156   8.147  11.735  0.5600 -0.4470  0.1924
39505SOL    HW128445  13.117   8.232  11.758  1.5053 -0.4211  1.8733
39505SOL    HW228446  13.192   8.114  11.817  0.4350 -2.3877 -0.4797
39506SOL     OW28447   7.536   5.233  13.174 -0.0884  0.4259  0.6875
39506SOL    HW128448   7.482   5.154  13.165  0.2589  0.0488  1.7850
39506SOL    HW228449   7.615   5.213  13.123 -0.6981  0.7368 -0.4103
39507SOL     OW28450   1.756  12.506  13.091 -0.2347  0.4366 -0.2834
39507SOL    HW128451   1.684  12.443  13.104  2.0971 -2.9752 -2.1983
39507SOL    HW228452   1.748  12.533  13.000 -0.3975  1.9202  0.1492
39508SOL     OW28453  10.422   4.728   5.564 -0.7824  0.2319  0.1001
39508SOL    HW128454  10.486   4.694   5.627 -0.8004  2.0789  1.1813
39508SOL    HW228455  10.338   4.725   5.610 -1.1395 -0.2114 -0.5570
39509SOL     OW28456   7.047   4.376   2.203  0.4518  0.1826  0.1011
39509SOL    HW128457   7.024   4.391   2.112  0.4887  1.5651  0.3038
39509SOL    HW228458   7.110   4.445   2.224  1.4244 -0.8747  0.8164
39510SOL     OW28459   4.994   8.246  12.606  0.4412  0.1577  0.0664
39510SOL    HW128460   5.040   8.282  12.531 -1.1810  0.3119 -0.8793
39510SOL    HW228461   4.972   8.157  12.580  1.0612 -0.2620  0.9140
39511SOL     OW28462   5.318   7.840  11.893 -0.6599  0.0238 -0.0273
39511SOL    HW128463   5.227   7.840  11.861 -1.2571  1.0338  1.5201
39511SOL    HW228464   5.364   7.899  11.834 -0.6546 -1.5231 -1.6436
39512SOL     OW28465   4.946   6.770   0.906  0.3509  0.1141  0.1279
39512SOL    HW128466   4.941   6.684   0.863  0.4735  0.9413 -1.6127
39512SOL    HW228467   4.893   6.760   0.985 -1.9626 -0.8032 -1.4153
39513SOL     OW28468   7.176   5.112   6.556  0.2159  0.0465 -0.5376
39513SOL    HW128469   7.142   5.160   6.631 -1.6033 -0.3068 -1.0863
39513SOL    HW228470   7.231   5.043   6.593  1.4969  1.4486  0.3219
39514SOL     OW28471   9.463   1.994   6.218 -0.1503  0.2468 -0.8305
39514SOL    HW128472   9.524   2.031   6.155  0.3669  0.1194 -0.4055
39514SOL    HW228473   9.389   1.964   6.164  0.6654 -0.6619 -1.4764
39515SOL     OW28474  13.304   4.784  10.173 -0.4039 -0.3441  0.4158
39515SOL    HW128475  13.333   4.810  10.260  1.4779 -3.3305  0.8151
39515SOL    HW228476  13.383   4.753  10.129 -1.4602  0.1919 -2.0708
39516SOL     OW28477   9.959  12.691   2.240  0.4790 -0.6636 -0.0179
39516SOL    HW128478   9.929  12.616   2.190 -0.5974  0.8767 -1.7882
39516SOL    HW228479  10.042  12.716   2.199 -1.1807  1.5874 -2.2573
39517SOL     OW28480  10.742   9.242   0.477  0.6443 -0.8372  0.2902
39517SOL    HW128481  10.713   9.177   0.542  1.6863  0.2960  1.9661
39517SOL    HW228482  10.811   9.291   0.522  1.0634  0.3192 -1.5391
39518SOL     OW28483  12.906   8.110   5.633  0.0819  0.3953  0.9856
39518SOL    HW128484  12.814   8.116   5.607  0.8200  2.0716 -1.6450
39518SOL    HW228485  12.933   8.201   5.646  2.1687  0.2544 -1.6571
39519SOL     OW28486   9.738  11.227   7.020 -0.1359  0.3871 -0.5098
39519SOL    HW128487   9.754  11.296   6.956  0.1907 -1.0094 -2.0062
39519SOL    HW228488   9.730  11.147   6.968 -0.5257 -0.7188  1.1515
39520SOL     OW28489   5.865   7.922  11.400 -0.1765 -0.0673 -0.5901
39520SOL    HW128490   5.891   8.013  11.414  0.0163 -0.1296 -0.5359
39520SOL    HW228491   5.794   7.907  11.462 -0.5758  0.2078 -0.9845
39521SOL     OW28492   0.730   1.726   0.205  0.6639  0.3820 -0.1924
39521SOL    HW128493   0.746   1.641   0.164 -0.2139  0.3051 -0.4070
39521SOL    HW228494   0.739   1.710   0.299 -0.6606 -0.2462 -0.1470
39522SOL     OW28495   8.673   7.007   8.378 -0.2488  0.4421 -0.2666
39522SOL    HW128496   8.652   7.083   8.323 -0.3424 -0.0516 -0.9348
39522SOL    HW228497   8.700   6.939   8.315  1.3786  0.4155  0.4380
39523SOL     OW28498   1.713   5.137  12.171  0.1574  0.3301  0.0772
39523SOL    HW128499   1.766   5.165  12.245 -0.4932  1.0361  0.2878
39523SOL    HW228500   1.747   5.187  12.097  0.0974  0.4355  0.1195
39524SOL     OW28501   8.018   0.088   1.316 -0.2335  0.0764  0.3992
39524SOL    HW128502   7.977   0.030   1.252 -0.3969 -0.7371  1.2233
39524SOL    HW228503   8.095   0.122   1.271  0.1151 -1.1361  0.0518
39525SOL     OW28504   8.146  13.277   8.481 -0.3668  0.0858 -0.6043
39525SOL    HW128505   8.073  13.281   8.420  0.7616 -0.1707 -2.0266
39525SOL    HW228506   8.158  13.183   8.498  0.6746 -0.0054 -1.7215
39526SOL     OW28507  11.353   9.815  12.845 -0.1067 -0.0793 -0.3010
39526SOL    HW128508  11.337   9.785  12.934  0.5182 -0.1582 -0.2060
39526SOL    HW228509  11.407   9.747  12.806 -0.1489  0.0848 -0.6502
39527SOL     OW28510   5.396   4.495   4.602  0.2317 -0.1869 -0.2681
39527SOL    HW128511   5.480   4.542   4.598 -0.0403  0.4447  0.8273
39527SOL    HW228512   5.375   4.494   4.696 -1.9152  1.3696 -0.6584
39528SOL     OW28513   2.330   5.839  12.762  0.4239 -0.5914 -0.7424
39528SOL    HW128514   2.338   5.851  12.668  2.1734 -0.4133 -0.6177
39528SOL    HW228515   2.244   5.873  12.785 -0.3793 -1.4332 -2.3774
39529SOL     OW28516   8.231   2.417  10.412 -0.0489 -0.3411  0.2318
39529SOL    HW128517   8.155   2.360  10.406  0.6270 -1.2341 -0.0163
39529SOL    HW228518   8.302   2.368  10.369  0.5171  0.7251 -0.0966
39530SOL     OW28519   0.518   4.575   7.189  0.0928  0.4531 -0.7151
39530SOL    HW128520   0.557   4.514   7.127  2.0291  2.1446 -1.2899
39530SOL    HW228521   0.482   4.645   7.135 -1.0713  0.4098 -0.0307
39531SOL     OW28522   2.331   1.450   2.525  0.0521 -0.3085  0.2275
39531SOL    HW128523   2.339   1.371   2.578 -0.9121 -0.5812 -0.0141
39531SOL    HW228524   2.325   1.418   2.435 -0.6721  0.0188  0.1565
39532SOL     OW28525  12.293   3.392   9.228  0.3518 -0.7423  0.2194
39532SOL    HW128526  12.368   3.386   9.169  0.7594 -0.5037  0.7080
39532SOL    HW228527  12.261   3.302   9.235  1.8050 -1.1902  1.5582
39533SOL     OW28528   0.528  10.564   0.470  0.3494 -0.1610  0.0042
39533SOL    HW128529   0.481  10.572   0.553 -0.2952  3.3435 -0.5723
39533SOL    HW228530   0.463  10.528   0.410  0.0333 -0.2637  0.3993
39534SOL     OW28531   0.943   6.430   6.280  0.3581  0.3489  0.1865
39534SOL    HW128532   0.848   6.422   6.273  0.0080  3.2136  0.6505
39534SOL    HW228533   0.971   6.346   6.318 -1.6345 -1.4742 -2.0160
39535SOL     OW28534   0.526   4.924  13.303 -0.2702  0.5114 -0.6521
39535SOL    HW128535   0.441   4.966  13.296 -0.6895 -0.4704 -1.7574
39535SOL    HW228536   0.520   4.846  13.247  0.4038 -1.1453  1.4180
39536SOL     OW28537   8.804   9.414   1.783  0.4337 -0.2904 -0.3278
39536SOL    HW128538   8.805   9.416   1.879 -1.8383  0.1753 -0.2587
39536SOL    HW228539   8.725   9.462   1.759 -0.8010 -3.1027 -2.3529
39537SOL     OW28540   3.627   4.691   0.614  1.1666 -0.3576  0.2098
39537SOL    HW128541   3.659   4.715   0.701  1.4591 -2.1672  0.6389
39537SOL    HW228542   3.700   4.645   0.573  1.1736  0.8069 -1.1784
39538SOL     OW28543  10.832   0.866   1.009 -0.2099 -0.0077  0.0852
39538SOL    HW128544  10.818   0.907   0.923 -0.5086 -1.0064 -0.3583
39538SOL    HW228545  10.862   0.937   1.065 -2.1069  1.1338 -0.2717
39539SOL     OW28546   2.363   2.596  11.709 -0.3874 -0.3756  0.4364
39539SOL    HW128547   2.303   2.549  11.652 -0.5428  1.2795 -0.8414
39539SOL    HW228548   2.308   2.631  11.780 -0.5674 -0.6391  0.4254
39540SOL     OW28549   2.962   4.797   4.091  0.0528  0.5268  0.6050
39540SOL    HW128550   2.914   4.751   4.160 -0.7958 -1.2328 -1.0631
39540SOL    HW228551   3.041   4.744   4.078 -0.3282  0.2005 -0.4930
39541SOL     OW28552   7.543   6.174   2.651 -0.1681 -0.1962 -0.0384
39541SOL    HW128553   7.526   6.083   2.675 -0.4205  0.0488  0.7331
39541SOL    HW228554   7.456   6.209   2.629 -0.2296  0.1672  0.7678
39542SOL     OW28555  12.194  13.039   1.893  0.4201 -0.8445  0.1854
39542SOL    HW128556  12.212  12.946   1.905  1.7480 -0.4069  2.3318
39542SOL    HW228557  12.115  13.055   1.945  0.4964 -0.6880  0.2542
39543SOL     OW28558   5.548   6.009   5.228 -0.3394  0.2874  0.2722
39543SOL    HW128559   5.622   5.979   5.282 -0.6845  0.1932  0.7044
39543SOL    HW228560   5.588   6.043   5.148  0.2169  0.8626  0.7879
39544SOL     OW28561   5.457   2.220   3.091  0.0659  0.4148  0.4618
39544SOL    HW128562   5.396   2.153   3.062  1.1025 -0.1686 -0.4446
39544SOL    HW228563   5.521   2.227   3.020  0.6625  1.5023  1.0776
39545SOL     OW28564  12.625  11.510   6.788 -0.2785  0.2990 -0.4182
39545SOL    HW128565  12.646  11.552   6.705 -0.0651 -1.3712 -1.2556
39545SOL    HW228566  12.559  11.567   6.828  0.7221  1.9338 -0.9995
39546SOL     OW28567   9.849   4.613   1.266  0.1998 -0.5372 -0.1731
39546SOL    HW128568   9.854   4.678   1.336  0.2384  0.5566 -1.1581
39546SOL    HW228569   9.757   4.590   1.260 -0.1563  0.9620 -1.1278
39547SOL     OW28570   8.907   7.929   3.162 -0.3044 -0.7850 -0.2076
39547SOL    HW128571   8.903   8.000   3.226 -1.1643 -1.3679  0.4114
39547SOL    HW228572   8.932   7.852   3.213  2.3006 -0.6716 -1.1354
39548SOL     OW28573   6.339   0.162   1.053  0.2398 -0.2347  0.4259
39548SOL    HW128574   6.353   0.120   0.968 -0.3152 -0.6432  0.5331
39548SOL    HW228575   6.266   0.113   1.092 -1.3115  1.6122 -0.0001
39549SOL     OW28576   6.822  11.258   2.433 -1.3136  0.0287 -0.1848
39549SOL    HW128577   6.832  11.172   2.473  1.0258  0.6629  0.7582
39549SOL    HW228578   6.890  11.261   2.366 -2.0128  0.8074 -0.8860
39550SOL     OW28579   8.113   9.733   2.799 -0.0738 -0.6264  0.8397
39550SOL    HW128580   8.196   9.752   2.843 -0.3357 -1.3424  1.6624
39550SOL    HW228581   8.067   9.817   2.796  0.7540 -0.1789  0.1842
39551SOL     OW28582   4.168  12.645  12.083  0.7214 -0.1270 -0.3920
39551SOL    HW128583   4.087  12.612  12.122  1.1101 -1.5258 -0.7063
39551SOL    HW228584   4.141  12.681  11.999  0.5289 -1.5136 -0.9528
39552SOL     OW28585  10.901   7.850   0.179 -0.3910  0.0439 -0.2228
39552SOL    HW128586  10.929   7.934   0.143 -0.8200 -0.1479 -1.0350
39552SOL    HW228587  10.894   7.793   0.102 -0.7470 -0.5477  0.2446
39553SOL     OW28588   0.651   6.333  11.690 -0.1392  0.1608 -0.1134
39553SOL    HW128589   0.568   6.305  11.729 -0.7835  1.2310 -0.6726
39553SOL    HW228590   0.713   6.264  11.713 -1.5817 -1.5851 -1.2062
39554SOL     OW28591   7.194   8.424   0.471 -0.1624 -0.2997  0.0208
39554SOL    HW128592   7.286   8.419   0.499  0.1620  2.1021 -0.4046
39554SOL    HW228593   7.198   8.420   0.376 -0.1246  2.7817 -0.1993
39555SOL     OW28594   8.653   8.752   2.560  0.2995 -0.3411  0.3083
39555SOL    HW128595   8.582   8.701   2.521 -0.1643 -0.1221  0.8358
39555SOL    HW228596   8.629   8.759   2.653 -0.0467  1.4455  0.1291
39556SOL     OW28597   8.290   5.452   1.958  0.3628 -0.6475  0.6631
39556SOL    HW128598   8.232   5.423   2.028 -0.9683  0.0854 -0.0909
39556SOL    HW228599   8.237   5.514   1.907  1.3713 -0.9609 -0.8297
39557SOL     OW28600   1.324  12.814   7.565  0.5109 -0.0524 -0.0676
39557SOL    HW128601   1.342  12.722   7.582 -0.9977 -0.7028 -1.6977
39557SOL    HW228602   1.409  12.851   7.544  1.1258 -1.0811  0.5227
39558SOL     OW28603   0.928  11.992   2.936 -0.2316 -0.2534 -0.0438
39558SOL    HW128604   0.948  11.932   3.008 -0.4381  0.6075  0.7615
39558SOL    HW228605   1.011  12.038   2.919 -0.0686 -0.7767 -0.6686
39559SOL     OW28606   2.688  12.714   6.550  0.7557 -0.0944  0.3310
39559SOL    HW128607   2.654  12.750   6.632  0.9282  1.0956 -0.0949
39559SOL    HW228608   2.778  12.689   6.571  1.4680  2.0036  0.0731
39560SOL     OW28609   5.882   9.684   2.669  0.0374  0.2483  0.2012
39560SOL    HW128610   5.939   9.743   2.719 -0.7254  1.5736 -0.4256
39560SOL    HW228611   5.843   9.627   2.735 -0.9043  1.9232  1.1535
39561SOL     OW28612   8.852   6.535   1.846  0.6078 -0.2527  0.9546
39561SOL    HW128613   8.826   6.483   1.771 -0.4532  0.6694  0.6515
39561SOL    HW228614   8.945   6.553   1.832  0.3602  0.1311 -0.2835
39562SOL     OW28615  13.314   7.416  11.643 -0.3087 -0.2585 -0.1391
39562SOL    HW128616  13.290   7.474  11.715 -2.3065 -0.8184 -0.3199
39562SOL    HW228617  13.324   7.475  11.567  1.9692  0.3569  0.5395
39563SOL     OW28618  10.090   6.913   2.662 -0.1762 -0.1598 -0.2295
39563SOL    HW128619  10.171   6.956   2.636  0.2115 -0.4269  0.5198
39563SOL    HW228620  10.082   6.838   2.603 -0.1867  0.1916 -0.6854
39564SOL     OW28621   7.420  11.270   2.699  0.0675 -0.5479 -0.0237
39564SOL    HW128622   7.350  11.207   2.718  0.1321 -0.8121 -0.6476
39564SOL    HW228623   7.389  11.352   2.737 -0.4072 -0.7542  0.0465
39565SOL     OW28624  11.639   3.020  10.142  0.3005 -0.1091 -0.1785
39565SOL    HW128625  11.604   2.931  10.149 -1.5998  0.5391 -0.9495
39565SOL    HW228626  11.723   3.008  10.097  0.2831 -1.5566  0.1127
39566SOL     OW28627   1.569   1.680   2.440  0.3446  0.7346  0.1029
39566SOL    HW128628   1.653   1.710   2.475  0.3466 -1.5184  2.3027
39566SOL    HW228629   1.504   1.732   2.488  0.4321 -0.0999  1.1628
39567SOL     OW28630   7.765   5.397   2.265 -0.0021  0.2432 -0.0590
39567SOL    HW128631   7.708   5.463   2.227  1.3185  0.1811 -2.3568
39567SOL    HW228632   7.713   5.317   2.265 -0.9991  0.8596  1.0505
39568SOL     OW28633  11.395   8.970   1.320 -0.4932  0.2541  0.2260
39568SOL    HW128634  11.423   9.060   1.300  2.5748 -0.8469 -1.1284
39568SOL    HW228635  11.398   8.964   1.415  0.6086  1.2355  0.2734
39569SOL     OW28636   1.674   7.861   6.906  0.1885  0.3841 -0.4962
39569SOL    HW128637   1.660   7.931   6.842 -1.4501 -1.3436 -2.1133
39569SOL    HW228638   1.758   7.822   6.881 -0.4842 -0.3379 -1.6721
39570SOL     OW28639   6.904   7.529   3.375  0.2032  0.5503 -0.4537
39570SOL    HW128640   6.841   7.485   3.432  0.0936 -0.7831 -1.5722
39570SOL    HW228641   6.988   7.517   3.419 -0.1495  1.4895  0.5432
39571SOL     OW28642  12.181   6.354   9.320 -0.1267 -0.2133 -0.1041
39571SOL    HW128643  12.224   6.290   9.377 -0.3209 -0.5584 -0.3422
39571SOL    HW228644  12.229   6.349   9.237 -0.2066 -0.1236 -0.1575
39572SOL     OW28645   6.436   0.718  10.588  0.0131  0.0863 -0.0408
39572SOL    HW128646   6.499   0.646  10.597 -0.5280 -0.2077  1.6880
39572SOL    HW228647   6.376   0.689  10.519  1.5867  0.2826 -1.5686
39573SOL     OW28648   0.838   0.894  11.002 -0.0786  0.5292  0.2564
39573SOL    HW128649   0.913   0.902  11.061 -0.6506  0.0286  1.0669
39573SOL    HW228650   0.837   0.802  10.976 -0.4298  0.5260  0.2753
39574SOL     OW28651   5.838   3.244  11.026 -1.2600 -0.8160  0.0188
39574SOL    HW128652   5.884   3.186  11.086  1.1664  1.3549  0.4489
39574SOL    HW228653   5.779   3.295  11.082 -2.8453 -2.2197 -0.2646
39575SOL     OW28654   9.533  10.361  12.580 -0.2363 -0.4284 -0.5067
39575SOL    HW128655   9.612  10.377  12.528 -0.8411  0.3227 -1.2075
39575SOL    HW228656   9.545  10.418  12.657 -0.3755  0.1537 -0.9095
39576SOL     OW28657   7.163  13.258  11.126 -0.0800  0.1323  0.1726
39576SOL    HW128658   7.166  13.353  11.143  2.1189  0.3299 -0.9012
39576SOL    HW228659   7.249  13.226  11.154  0.5847 -0.8862 -2.6712
39577SOL     OW28660   8.541   7.347  10.589 -0.2944 -0.2183  0.7915
39577SOL    HW128661   8.618   7.396  10.559 -1.3626  1.5462  0.7935
39577SOL    HW228662   8.553   7.259  10.552  1.7490 -0.0302  0.8654
39578SOL     OW28663   1.070   0.620  12.844  0.0489  0.7847 -0.2459
39578SOL    HW128664   1.066   0.533  12.805 -0.4183  0.7287 -0.0806
39578SOL    HW228665   1.152   0.621  12.893 -1.3120 -0.6010  2.2050
39579SOL     OW28666   6.823   8.566   3.196 -0.4115  0.1755 -0.5743
39579SOL    HW128667   6.777   8.649   3.201  0.5160  0.7873 -1.8456
39579SOL    HW228668   6.753   8.500   3.188 -1.1164  0.9054 -0.5053
39580SOL     OW28669  13.261   6.104   8.791  0.2390 -0.5549  0.1489
39580SOL    HW128670  13.204   6.029   8.775 -1.6430  0.3012  2.2625
39580SOL    HW228671  13.205   6.167   8.836  1.9585  1.8351 -0.8655
39581SOL     OW28672   3.557   0.422   5.800 -0.2832  0.4001 -0.4681
39581SOL    HW128673   3.494   0.350   5.795 -1.3010  1.1656  0.7833
39581SOL    HW228674   3.631   0.393   5.747 -0.9459 -1.2798 -0.5200
39582SOL     OW28675   0.770   9.888   0.010 -0.0438  0.1145  0.1531
39582SOL    HW128676   0.679   9.914   0.026  0.1499  0.9550 -0.0665
39582SOL    HW228677   0.809   9.964  -0.032  0.4620 -0.6629 -0.8173
39583SOL     OW28678  10.961   4.459   4.516 -0.4938 -0.5331  0.1521
39583SOL    HW128679  10.871   4.479   4.488  0.0753 -1.7079 -2.7934
39583SOL    HW228680  10.979   4.524   4.585 -2.7137  1.3799 -0.9250
39584SOL     OW28681   2.565   5.443  11.387 -0.1452 -0.4347  0.0076
39584SOL    HW128682   2.564   5.536  11.411 -0.8967 -0.3680 -0.2540
39584SOL    HW228683   2.654   5.414  11.407  0.3373  0.5361 -0.6343
39585SOL     OW28684  10.452   5.706   4.717  0.2263 -0.0168  0.0466
39585SOL    HW128685  10.536   5.753   4.707  0.3410  0.1869  1.6689
39585SOL    HW228686  10.470   5.638   4.781 -0.6723 -0.4911 -0.1836
39586SOL     OW28687   7.206  12.940   7.831 -0.6775 -0.1086  0.1859
39586SOL    HW128688   7.183  12.853   7.798  0.0815 -0.8362  1.4736
39586SOL    HW228689   7.294  12.956   7.796 -0.9546  0.3003 -0.3332
39587SOL     OW28690  10.964   8.934   7.222  0.0739  0.3438  0.1051
39587SOL    HW128691  10.980   8.974   7.136 -0.3860 -1.4375 -0.8751
39587SOL    HW228692  10.868   8.932   7.230  0.1019  0.0281  0.4105
39588SOL     OW28693   2.053   8.802   2.562  0.1752  0.3800 -0.0556
39588SOL    HW128694   1.962   8.831   2.570  0.8432  2.6225  0.0970
39588SOL    HW228695   2.067   8.792   2.468 -0.2947 -0.2563 -0.0640
39589SOL     OW28696   1.261   7.800   7.139  0.2120  0.1843  0.3618
39589SOL    HW128697   1.305   7.772   7.059  1.9180  1.3942  0.7994
39589SOL    HW228698   1.170   7.815   7.114  0.2542 -1.4076 -0.8430
39590SOL     OW28699   4.564   5.478   8.726 -0.2104 -0.0077 -0.4142
39590SOL    HW128700   4.486   5.432   8.695 -0.7052  0.5270  0.0003
39590SOL    HW228701   4.539   5.514   8.811  0.7170 -0.3977  0.0364
39591SOL     OW28702   4.752   4.577   4.698  0.3504 -0.3121  0.1757
39591SOL    HW128703   4.685   4.571   4.630  0.0883 -1.2239  0.5049
39591SOL    HW228704   4.800   4.495   4.692  1.6189  0.4339 -0.2241
39592SOL     OW28705  10.746   4.965  13.144  0.3496  0.4278  0.0954
39592SOL    HW128706  10.697   4.918  13.212 -0.7402  0.9020 -0.3458
39592SOL    HW228707  10.755   5.054  13.178 -0.1657  0.6573 -0.3478
39593SOL     OW28708  12.721   9.877   0.185 -0.3407 -0.0320 -0.3306
39593SOL    HW128709  12.803   9.901   0.141  0.6368 -1.2865  0.7140
39593SOL    HW228710  12.744   9.801   0.238 -2.2660 -0.5783 -0.1980
39594SOL     OW28711  12.700  10.290   2.621  0.0284 -0.5356 -0.4191
39594SOL    HW128712  12.764  10.229   2.584  1.9906  0.1998  1.5708
39594SOL    HW228713  12.709  10.280   2.716  0.5109  2.8131  0.0242
39595SOL     OW28714  10.747   5.311   1.377  0.1869 -0.0543 -0.1061
39595SOL    HW128715  10.661   5.330   1.414 -0.2252 -0.6096 -0.7580
39595SOL    HW228716  10.796   5.271   1.450 -0.6610 -1.2576 -0.1583
39596SOL     OW28717   1.426   5.820  11.435  0.6387 -0.2425  0.1035
39596SOL    HW128718   1.378   5.740  11.413  0.5647  0.2665 -1.7423
39596SOL    HW228719   1.443   5.812  11.528 -0.5964 -1.7490  0.2487
39597SOL     OW28720  10.014   3.510   4.835 -0.3562 -0.0775 -0.0270
39597SOL    HW128721   9.947   3.487   4.771  0.5046  0.7651 -1.2597
39597SOL    HW228722  10.096   3.505   4.788  0.2893  0.7607  0.9490
39598SOL     OW28723  10.717   4.276   8.303  0.2847 -0.1118  0.0446
39598SOL    HW128724  10.639   4.299   8.252 -0.1047  1.9394  1.4374
39598SOL    HW228725  10.785   4.336   8.271  0.2440  0.6644  1.3637
39599SOL     OW28726   0.857  10.096   1.153  0.1035 -0.5790  0.6023
39599SOL    HW128727   0.869  10.118   1.245 -0.2755  1.3307  0.2405
39599SOL    HW228728   0.937  10.128   1.110  0.0176 -0.9168  0.1871
39600SOL     OW28729   2.562   8.766   0.294  0.7115  0.1098  0.3730
39600SOL    HW128730   2.553   8.854   0.256  2.7591  0.2172  0.0235
39600SOL    HW228731   2.490   8.759   0.356  0.0778  1.7615 -0.1335
39601SOL     OW28732  10.110   1.935  11.065  0.3213  0.5247  0.3817
39601SOL    HW128733  10.097   2.020  11.106 -1.4077  0.3964  0.1872
39601SOL    HW228734  10.051   1.876  11.112  0.0393 -0.1278 -0.7374
39602SOL     OW28735   8.946  12.621   5.108 -0.1958 -0.1910  0.8265
39602SOL    HW128736   9.024  12.619   5.052  1.4258 -1.6744  2.9387
39602SOL    HW228737   8.934  12.713   5.129 -0.1062  0.2587 -0.8937
39603SOL     OW28738   2.271   9.783  11.261  0.0429  0.2916  0.4286
39603SOL    HW128739   2.308   9.768  11.348 -0.1859  1.0585  0.6728
39603SOL    HW228740   2.321   9.857  11.227 -0.6772  0.7862  0.4145
39604SOL     OW28741  12.654   3.729   6.027  0.1527  0.1285  0.2857
39604SOL    HW128742  12.659   3.633   6.026  0.7549  0.1590  0.0072
39604SOL    HW228743  12.681   3.754   6.115 -2.0444 -0.0422  1.0796
39605SOL     OW28744   6.963   4.133   5.291  0.2204 -0.6334 -0.2026
39605SOL    HW128745   6.937   4.114   5.381  0.2799  1.6898  0.3666
39605SOL    HW228746   6.920   4.065   5.238  0.1381 -2.0041  1.5398
39606SOL     OW28747   8.364   1.699   1.495  0.3393  0.5133 -0.4295
39606SOL    HW128748   8.274   1.706   1.461  0.6150  0.2599 -1.2257
39606SOL    HW228749   8.355   1.647   1.574 -0.0188 -0.9095 -1.3671
39607SOL     OW28750   8.795   6.418   2.580  0.4484 -0.5826 -0.3856
39607SOL    HW128751   8.805   6.456   2.492 -2.1604 -0.1109 -0.5528
39607SOL    HW228752   8.837   6.332   2.574  1.8891  0.1523 -1.5392
39608SOL     OW28753   5.008  11.241   6.909 -0.0774  0.0934  0.0009
39608SOL    HW128754   5.091  11.235   6.957 -0.6743  0.0535  1.0532
39608SOL    HW228755   5.003  11.160   6.858  0.7708  0.3364 -0.4865
39609SOL     OW28756   0.254  11.918   2.288 -0.1080  0.1149  0.0357
39609SOL    HW128757   0.162  11.934   2.267 -0.7824 -1.5610  1.4205
39609SOL    HW228758   0.302  11.953   2.214 -1.8273  1.4611 -0.5102
39610SOL     OW28759   9.615   9.857   7.967 -0.1304  0.3838  0.1569
39610SOL    HW128760   9.684   9.918   7.993 -0.8602  1.5344 -0.5119
39610SOL    HW228761   9.542   9.876   8.026  1.1856 -3.3093  3.3850
39611SOL     OW28762  11.802   4.147   1.163 -0.2933  0.2474  0.5738
39611SOL    HW128763  11.771   4.063   1.197  0.8954 -0.1253  0.7714
39611SOL    HW228764  11.830   4.128   1.074  1.1023  0.1361  1.0077
39612SOL     OW28765   8.433   6.688   1.184 -0.3776  0.0947  0.3685
39612SOL    HW128766   8.516   6.731   1.205 -0.2230  0.0004 -0.0384
39612SOL    HW228767   8.368   6.735   1.236 -0.3379  1.3799 -0.6759
39613SOL     OW28768   3.559   7.373  13.281 -0.0268 -0.3297 -0.4544
39613SOL    HW128769   3.618   7.448  13.275 -0.7322  0.2367 -0.4557
39613SOL    HW228770   3.559   7.349  13.373  1.1648 -1.1269 -0.6467
39614SOL     OW28771  11.719   8.913  12.901  0.3479  0.0634 -0.2309
39614SOL    HW128772  11.776   8.839  12.879  0.9662  0.8826 -1.5743
39614SOL    HW228773  11.773   8.990  12.884 -1.6008  0.9530 -3.2112
39615SOL     OW28774   8.559  12.995   9.084 -0.0881 -0.0821  0.4785
39615SOL    HW128775   8.564  13.077   9.133 -2.0223  0.5352 -0.2529
39615SOL    HW228776   8.465  12.979   9.073  0.2379 -0.7217 -2.1136
39616SOL     OW28777  12.907   1.366   1.905 -0.4646 -0.2434  0.3446
39616SOL    HW128778  12.853   1.340   1.830 -0.4762 -1.5358  0.7732
39616SOL    HW228779  12.952   1.286   1.930 -2.2534 -0.4781  3.1960
39617SOL     OW28780   6.934   2.375   8.319 -0.3420  0.1645 -0.0793
39617SOL    HW128781   6.937   2.310   8.390  0.4672 -0.5756 -0.7652
39617SOL    HW228782   6.856   2.428   8.338 -0.9781 -0.9592  0.5369
39618SOL     OW28783  10.063   8.766   5.778  0.8282 -0.1735 -0.4650
39618SOL    HW128784  10.012   8.763   5.697  0.6841  0.6502 -0.4156
39618SOL    HW228785  10.150   8.735   5.753  0.7336 -0.1015 -0.8885
39619SOL     OW28786  12.087   0.556   6.074  0.7373 -0.0882 -0.2286
39619SOL    HW128787  12.080   0.635   6.127 -1.7617 -0.7087  0.5261
39619SOL    HW228788  12.047   0.580   5.990 -1.0651 -0.7898  0.3843
39620SOL     OW28789  10.471   5.313   0.819 -0.1034 -0.4172  0.4160
39620SOL    HW128790  10.484   5.404   0.794 -0.6449 -0.1567  1.0502
39620SOL    HW228791  10.432   5.273   0.741 -0.0937 -0.0487  0.2170
39621SOL     OW28792   5.441   0.331   9.111 -0.0065  0.2277  0.4710
39621SOL    HW128793   5.491   0.375   9.042 -1.1553 -0.8934 -1.1525
39621SOL    HW228794   5.476   0.242   9.113  1.1129  0.6463  2.5190
39622SOL     OW28795   5.598   9.506   4.814 -0.1605 -0.3223  0.0101
39622SOL    HW128796   5.603   9.436   4.750 -0.7339 -0.6628  0.3232
39622SOL    HW228797   5.597   9.461   4.899  0.6076  0.1218  0.2568
39623SOL     OW28798   8.097   3.915   1.722  0.1655  0.3460  0.3306
39623SOL    HW128799   8.050   3.849   1.773  1.3529 -1.3741 -0.6965
39623SOL    HW228800   8.188   3.886   1.723  0.6961  1.8761 -0.3560
39624SOL     OW28801   8.906  11.932   4.171  0.1126  0.0173  0.1613
39624SOL    HW128802   8.925  12.012   4.123  2.8268  0.3807  1.6454
39624SOL    HW228803   8.868  11.873   4.106  0.8989  1.4761 -1.6891
39625SOL     OW28804   2.455   7.976   8.925 -0.1969 -0.0106 -0.4446
39625SOL    HW128805   2.467   8.069   8.907  0.5501  0.2760  1.3736
39625SOL    HW228806   2.543   7.939   8.921 -0.1791 -0.1923  1.0465
39626SOL     OW28807   8.196   8.391  10.131  0.0532  0.2329 -0.3965
39626SOL    HW128808   8.116   8.368  10.083  0.1735 -1.4454  0.1460
39626SOL    HW228809   8.222   8.476  10.095 -0.3051 -0.5761 -2.7357
39627SOL     OW28810   7.545  12.258  11.504  0.4022 -0.4266  0.0375
39627SOL    HW128811   7.589  12.342  11.499 -1.1825  0.4265 -0.4694
39627SOL    HW228812   7.456  12.279  11.534 -0.1288 -1.8742 -0.4128
39628SOL     OW28813   5.284   4.568   0.858 -0.1582  0.0940 -0.0667
39628SOL    HW128814   5.298   4.631   0.787 -0.1807 -0.8949 -0.9888
39628SOL    HW228815   5.371   4.533   0.877 -0.2610 -0.2474 -0.2067
39629SOL     OW28816  13.169   5.029   2.018  0.2594 -0.5202 -0.1264
39629SOL    HW128817  13.257   4.991   2.015 -0.5711 -2.8274  1.8196
39629SOL    HW228818  13.111   4.955   2.035 -1.7484  1.3266  1.7591
39630SOL     OW28819   8.137   9.868   1.198  0.8774 -0.7295  0.2620
39630SOL    HW128820   8.166   9.921   1.124 -0.5529 -0.9078 -0.4752
39630SOL    HW228821   8.206   9.877   1.263  0.6298  2.1842  0.2511
39631SOL     OW28822   4.044   2.574   4.534 -0.7583 -0.4476 -0.5862
39631SOL    HW128823   4.067   2.528   4.454 -0.8502  0.4433 -1.1387
39631SOL    HW228824   3.965   2.530   4.565 -0.2493 -1.3273 -0.5295
39632SOL     OW28825   6.058  10.586   0.592  0.0368  0.0168 -0.2997
39632SOL    HW128826   6.084  10.505   0.636 -0.9187 -0.1808 -0.0848
39632SOL    HW228827   6.009  10.557   0.515 -0.3982  0.3905 -0.1631
39633SOL     OW28828   6.466  12.247   7.708 -0.6393 -0.3268 -0.2616
39633SOL    HW128829   6.430  12.318   7.654 -0.5905  0.5436  0.8038
39633SOL    HW228830   6.389  12.208   7.750 -0.5165  0.5341  0.8246
39634SOL     OW28831   1.816  12.316   2.487  0.2308 -0.1168  0.5060
39634SOL    HW128832   1.721  12.307   2.485  0.1094  0.8363 -1.9086
39634SOL    HW228833   1.831  12.411   2.491  1.0941 -0.2551  0.9100
39635SOL     OW28834   1.338  10.670   1.268 -0.1391 -0.1850 -0.1087
39635SOL    HW128835   1.256  10.626   1.291 -0.2829 -0.0854 -0.4275
39635SOL    HW228836   1.360  10.637   1.181  1.4033 -2.0050  0.8928
39636SOL     OW28837   4.200   6.927   4.570  0.1898 -0.0198  0.0685
39636SOL    HW128838   4.258   6.999   4.596 -0.8793  0.9477 -0.1357
39636SOL    HW228839   4.211   6.920   4.475 -0.7396  0.8354 -0.1174
39637SOL     OW28840  12.751   7.711  11.338 -0.0351 -0.2301 -0.3998
39637SOL    HW128841  12.812   7.780  11.364 -1.6891  0.9585  0.4708
39637SOL    HW228842  12.771   7.637  11.396  0.7744  0.0176 -0.3516
39638SOL     OW28843   4.801   6.460   6.354 -0.1031  0.2552 -0.1783
39638SOL    HW128844   4.711   6.442   6.327 -0.1089 -1.2776  0.7173
39638SOL    HW228845   4.834   6.375   6.384  2.0154  0.5099 -1.5182
39639SOL     OW28846   5.040  10.281   5.952 -0.5447 -0.2421  0.5041
39639SOL    HW128847   5.012  10.333   5.877 -0.2169 -1.5897 -0.5778
39639SOL    HW228848   4.958  10.245   5.988 -0.6742  0.1967  0.6611
39640SOL     OW28849   7.349   8.280   1.236 -0.2010  0.2023 -0.6180
39640SOL    HW128850   7.344   8.263   1.142 -2.2262  0.6636 -0.6325
39640SOL    HW228851   7.273   8.235   1.273  0.4121  0.2443  0.7812
39641SOL     OW28852   2.537   7.501   5.508  0.1558 -0.5427  0.0855
39641SOL    HW128853   2.543   7.468   5.597  2.3514  0.9721  0.5624
39641SOL    HW228854   2.627   7.514   5.480 -0.5067  0.3627 -1.8473
39642SOL     OW28855   9.613   8.259   9.501 -0.9363  0.1189  0.0085
39642SOL    HW128856   9.582   8.206   9.428 -1.8171 -0.1232  0.5424
39642SOL    HW228857   9.697   8.295   9.471 -1.4767  0.3525 -1.2625
39643SOL     OW28858   4.013  12.120   3.553  0.0775 -0.2813 -0.2162
39643SOL    HW128859   4.060  12.171   3.618 -0.3908  0.9615 -0.8239
39643SOL    HW228860   4.049  12.147   3.469 -0.9627 -0.0887 -0.6214
39644SOL     OW28861   2.149  11.681   4.282 -0.3117 -0.1813 -0.6485
39644SOL    HW128862   2.093  11.703   4.207 -0.1099  0.1201 -0.7104
39644SOL    HW228863   2.226  11.737   4.272  0.2484 -0.9749 -0.8514
39645SOL     OW28864   5.770  10.165   4.472  0.3132  0.4830  0.4755
39645SOL    HW128865   5.861  10.192   4.482  0.8383 -0.7332 -0.8435
39645SOL    HW228866   5.774  10.079   4.431 -1.4388  0.4163  0.3659
39646SOL     OW28867   7.893   3.484   0.481  0.2117 -0.0351 -0.2738
39646SOL    HW128868   7.877   3.402   0.527 -0.0428  1.3739  2.3751
39646SOL    HW228869   7.811   3.533   0.490  0.7909  1.0334 -0.6053
39647SOL     OW28870   1.542   5.641   9.866 -0.3984  0.2153 -0.3483
39647SOL    HW128871   1.636   5.635   9.848  0.1668 -0.4812  2.3268
39647SOL    HW228872   1.524   5.735   9.868  0.3366  0.3654 -0.4601
39648SOL     OW28873   4.373   9.386   7.197  0.3830 -0.6033  0.7096
39648SOL    HW128874   4.326   9.302   7.200 -0.8853  0.0588  0.1884
39648SOL    HW228875   4.331   9.434   7.125  1.3782  0.3171  0.7243
39649SOL     OW28876  11.202   8.060   1.312 -0.7675  0.7827  0.1023
39649SOL    HW128877  11.126   8.117   1.294 -0.6204  1.0154  0.2070
39649SOL    HW228878  11.170   8.000   1.380 -0.8337  0.9367  0.2095
39650SOL     OW28879   3.132   3.178   1.399  0.3791  0.4001 -0.1122
39650SOL    HW128880   3.190   3.104   1.383  0.4947  0.9984 -3.1237
39650SOL    HW228881   3.133   3.189   1.494  1.0458 -2.8452  0.3708
39651SOL     OW28882   6.028   6.112  12.370 -0.2680 -0.3942  0.4067
39651SOL    HW128883   6.114   6.142  12.341 -1.3757  1.3204 -1.3745
39651SOL    HW228884   6.025   6.020  12.344  0.0222  0.2444 -2.1627
39652SOL     OW28885   6.917   2.473   0.852  0.1873  0.4919  0.1822
39652SOL    HW128886   6.922   2.557   0.805  2.9397 -0.4147 -1.3670
39652SOL    HW228887   6.885   2.411   0.787  1.8725 -0.3489  0.1049
39653SOL     OW28888   2.153   3.172   8.232 -0.1113  0.1199  0.1643
39653SOL    HW128889   2.132   3.138   8.319 -0.4613  1.7580  0.7537
39653SOL    HW228890   2.125   3.103   8.172 -0.1337 -0.9154  1.3280
39654SOL     OW28891   0.859   3.221   2.792 -0.4084 -0.0583  0.4461
39654SOL    HW128892   0.853   3.239   2.886 -2.0065  0.3622  0.2795
39654SOL    HW228893   0.785   3.266   2.753  0.2948 -0.1174 -1.0600
39655SOL     OW28894   9.346   9.207   9.628 -0.1578 -0.0709 -0.2268
39655SOL    HW128895   9.266   9.229   9.581 -0.3614  0.1502  0.2256
39655SOL    HW228896   9.370   9.120   9.594 -1.8222 -1.1549  1.2419
39656SOL     OW28897   7.413   9.613   8.826  0.2958 -0.8477 -0.6074
39656SOL    HW128898   7.451   9.625   8.913  1.7618 -0.3396 -1.2887
39656SOL    HW228899   7.336   9.557   8.841 -0.3293  0.4225  1.1778
39657SOL     OW28900   8.561   6.959  12.148  0.0820 -0.1700  0.1058
39657SOL    HW128901   8.489   6.967  12.211 -0.1517  0.4094 -0.2275
39657SOL    HW228902   8.621   7.030  12.171  0.6557 -0.7711  0.5091
39658SOL     OW28903   0.578   4.258   2.570  0.2713  0.5772 -0.4768
39658SOL    HW128904   0.577   4.245   2.475 -1.0075  3.9049 -1.0652
39658SOL    HW228905   0.665   4.296   2.587  1.0220 -1.2333 -0.0201
39659SOL     OW28906   5.411   9.056   8.945  0.5305 -0.0548 -0.1771
39659SOL    HW128907   5.414   9.030   9.036  2.6854 -0.2149 -0.2462
39659SOL    HW228908   5.415   8.974   8.896  0.3195  0.0707 -0.4071
39660SOL     OW28909   5.499   4.250   2.945 -0.3261 -1.2202  0.4090
39660SOL    HW128910   5.522   4.159   2.924  0.2430 -1.1209  0.5846
39660SOL    HW228911   5.464   4.246   3.034 -2.0168 -1.5281 -0.2383
39661SOL     OW28912   7.689   7.112   8.698  0.1006  0.1316  0.1029
39661SOL    HW128913   7.629   7.061   8.644  1.0543  1.6463 -2.6303
39661SOL    HW228914   7.775   7.075   8.679  0.2559 -1.4763  3.3254
39662SOL     OW28915   5.026   1.388   7.438  0.1410 -0.2214  0.2245
39662SOL    HW128916   5.015   1.319   7.372 -2.9623  1.9218 -1.7928
39662SOL    HW228917   4.999   1.347   7.520 -0.7057 -1.6962 -0.7353
39663SOL     OW28918  13.268   0.711   8.444  0.0121  0.1222 -0.1339
39663SOL    HW128919  13.282   0.616   8.440 -1.4934 -0.1169 -0.2446
39663SOL    HW228920  13.295   0.742   8.357  4.2076  0.4177  1.0604
39664SOL     OW28921   0.831   8.327   6.586 -0.6949 -0.0940  0.0356
39664SOL    HW128922   0.894   8.346   6.656  2.2600 -0.5043 -2.3257
39664SOL    HW228923   0.748   8.364   6.618  1.0966  2.1289  2.5541
39665SOL     OW28924   7.330  11.299   8.672 -0.0045  0.4727  0.1350
39665SOL    HW128925   7.357  11.214   8.637  1.0160  0.6465  0.4905
39665SOL    HW228926   7.252  11.279   8.724 -0.8334  0.0292 -1.2190
39666SOL     OW28927  10.800   3.682   4.317 -0.1740  0.2164 -0.2385
39666SOL    HW128928  10.803   3.752   4.251 -2.4577  0.9202  0.3193
39666SOL    HW228929  10.825   3.603   4.268  0.1179  1.0190 -1.4574
39667SOL     OW28930   5.027  10.540   9.374 -0.5013 -0.3467  0.5874
39667SOL    HW128931   5.017  10.481   9.448 -1.8765  1.3202  1.8221
39667SOL    HW228932   4.938  10.553   9.341 -0.3020  1.2676  0.5899
39668SOL     OW28933   9.687  11.500   4.473 -0.0348 -0.1147 -0.4435
39668SOL    HW128934   9.686  11.479   4.380  0.9942  1.2783 -0.8123
39668SOL    HW228935   9.656  11.591   4.478  0.2962 -0.0354  0.5067
39669SOL     OW28936   5.295   1.699   8.663 -0.4341 -0.0295  0.1086
39669SOL    HW128937   5.295   1.780   8.714  0.6695 -0.2751  0.5400
39669SOL    HW228938   5.292   1.729   8.572  0.4133  0.5383  0.2452
39670SOL     OW28939   2.768   2.096   2.526  0.1167 -0.2216 -0.3573
39670SOL    HW128940   2.777   2.007   2.560  0.6760 -0.3174 -0.7474
39670SOL    HW228941   2.709   2.139   2.588  0.4196 -0.6536  0.2424
39671SOL     OW28942  12.270  10.402   9.746  0.2933  0.4224 -0.2310
39671SOL    HW128943  12.177  10.379   9.752 -0.1036  1.6610 -1.0570
39671SOL    HW228944  12.313  10.345   9.809 -1.2160  0.8552  1.2811
39672SOL     OW28945   1.900   5.885   9.017 -0.4450 -0.4091 -0.1343
39672SOL    HW128946   1.912   5.916   8.927  1.0688 -0.7992 -0.0904
39672SOL    HW228947   1.831   5.818   9.010  1.0290 -1.8912 -1.3787
39673SOL     OW28948   2.324   0.664   1.625  0.0645  0.3451  0.0818
39673SOL    HW128949   2.400   0.716   1.651  1.3013 -0.5740 -1.5064
39673SOL    HW228950   2.354   0.615   1.549 -2.2451  0.2183 -0.8263
39674SOL     OW28951   0.968   8.671   5.250 -0.1009 -0.3573  0.4912
39674SOL    HW128952   1.038   8.691   5.189  0.0065  2.6280  1.4360
39674SOL    HW228953   1.012   8.641   5.330 -0.0927 -1.2568  0.1634
39675SOL     OW28954   0.234  10.326  13.157  0.2914 -0.3593 -0.0394
39675SOL    HW128955   0.327  10.339  13.141  0.8474 -1.3316  2.1099
39675SOL    HW228956   0.223  10.232  13.165 -1.1348 -0.3560 -1.5091
39676SOL     OW28957   3.582   0.757  12.709 -0.4097  1.1066  0.3336
39676SOL    HW128958   3.587   0.792  12.798 -0.2273  0.5744  0.5382
39676SOL    HW228959   3.618   0.668  12.716 -4.1315 -0.5590  0.5711
39677SOL     OW28960   5.258   8.940   1.287 -0.2020  0.2596  0.1354
39677SOL    HW128961   5.352   8.955   1.289  0.3888 -2.8489  0.3893
39677SOL    HW228962   5.239   8.892   1.368 -1.7429 -0.4476 -0.5955
39678SOL     OW28963  11.676   4.205   0.254  0.6987  0.0013 -0.0374
39678SOL    HW128964  11.684   4.263   0.329  1.7861  0.0171 -0.1504
39678SOL    HW228965  11.696   4.261   0.179 -1.7647  0.3442 -0.5049
39679SOL     OW28966   9.093  13.163  13.175 -0.3059  0.4722  0.0849
39679SOL    HW128967   9.149  13.103  13.127 -0.8498 -2.6815  2.9814
39679SOL    HW228968   9.138  13.247  13.171  1.7481 -0.6195 -2.2069
39680SOL     OW28969   0.642   6.152  10.018  0.1527 -0.1801 -0.2192
39680SOL    HW128970   0.594   6.140   9.936  1.7801 -1.2099 -1.0659
39680SOL    HW228971   0.727   6.110  10.003  0.8122  0.3570  1.7059
39681SOL     OW28972   6.162   4.548   0.764 -0.5070  0.0684 -0.3899
39681SOL    HW128973   6.231   4.531   0.828  0.5755  1.1175 -1.2498
39681SOL    HW228974   6.204   4.539   0.679 -1.5831  0.0861 -0.9458
39682SOL     OW28975  12.416   7.524   5.568 -0.3080  0.3690 -0.0836
39682SOL    HW128976  12.342   7.531   5.507  1.2901 -0.4119 -2.2601
39682SOL    HW228977  12.404   7.439   5.611  0.2038 -0.6706 -1.8362
39683SOL     OW28978   7.647   0.010   7.582 -0.2444  0.4466  0.7501
39683SOL    HW128979   7.721   0.038   7.636  0.1450 -1.4709  1.3004
39683SOL    HW228980   7.638   0.078   7.516  3.5382 -0.3028 -0.7947
39684SOL     OW28981   5.556  11.190  11.711  0.3583 -0.5915  0.0455
39684SOL    HW128982   5.497  11.216  11.640 -0.5015 -0.9127  0.6231
39684SOL    HW228983   5.544  11.096  11.719 -0.5439 -0.3790  1.4701
39685SOL     OW28984  10.558   1.989   2.752  0.4022  0.1439 -0.0859
39685SOL    HW128985  10.612   1.967   2.828 -2.0077 -0.9569  1.4477
39685SOL    HW228986  10.621   2.008   2.682  2.7259 -1.0277  1.5538
39686SOL     OW28987  11.726  12.054   4.162  0.1979  0.0977  0.0874
39686SOL    HW128988  11.695  12.065   4.251 -0.9636 -1.9928  0.0076
39686SOL    HW228989  11.814  12.016   4.171  0.6179  1.1037  0.3178
39687SOL     OW28990   6.689  10.488   0.624  0.6700 -0.2259 -0.3890
39687SOL    HW128991   6.658  10.451   0.541 -1.7490  1.0923 -0.1668
39687SOL    HW228992   6.738  10.417   0.665 -0.6673 -1.9469 -1.6168
39688SOL     OW28993  11.792   8.486  10.653  0.2446 -0.5893 -0.0016
39688SOL    HW128994  11.805   8.480  10.559 -1.0903 -2.3433 -0.1093
39688SOL    HW228995  11.799   8.580  10.672  3.1169 -0.3974 -1.3953
39689SOL     OW28996   3.126   0.548   0.563 -0.3706 -0.0447 -0.2232
39689SOL    HW128997   3.114   0.566   0.657  1.8844 -1.6117  0.4479
39689SOL    HW228998   3.066   0.475   0.545  0.6850 -1.1679  0.5922
39690SOL     OW28999  10.481  13.186   0.802 -0.5426  0.3189  0.3158
39690SOL    HW129000  10.523  13.252   0.858 -1.3028  2.2219 -1.2291
39690SOL    HW229001  10.478  13.107   0.856  2.4719  0.8475  1.4740
39691SOL     OW29002   1.819   8.171   3.137  0.2282 -0.3290 -0.5045
39691SOL    HW129003   1.872   8.240   3.177 -1.3360  1.2902 -1.0770
39691SOL    HW229004   1.883   8.108   3.103  1.8166  1.6360 -1.3946
39692SOL     OW29005   0.616  10.116   9.629 -0.2067 -0.5219  0.2405
39692SOL    HW129006   0.552  10.045   9.635 -0.5650 -0.1058  1.6017
39692SOL    HW229007   0.650  10.126   9.718  1.6619 -0.6235 -0.4048
39693SOL     OW29008   8.177  11.887  12.256  0.2688 -0.1629  0.3851
39693SOL    HW129009   8.123  11.918  12.183  1.1514  0.4855 -0.0163
39693SOL    HW229010   8.243  11.955  12.268 -0.1925  0.0254  2.1856
39694SOL     OW29011   2.349  11.120   4.278 -0.0985 -0.0964  0.5135
39694SOL    HW129012   2.396  11.053   4.328  0.2016  0.0458  0.4265
39694SOL    HW229013   2.401  11.130   4.198 -1.6606 -1.7997 -0.8049
39695SOL     OW29014   7.110  12.989   8.085 -0.5157  0.1026 -0.1133
39695SOL    HW129015   7.132  12.996   7.992 -0.6668  0.5843 -0.1163
39695SOL    HW229016   7.110  12.895   8.103  1.5507  0.0661 -0.1050
39696SOL     OW29017  12.657  12.135  13.298 -0.0166 -0.1691 -0.5089
39696SOL    HW129018  12.624  12.198  13.234  0.8316  1.5684  0.6747
39696SOL    HW229019  12.717  12.186  13.353  0.1969 -1.8693  0.9262
39697SOL     OW29020   0.336   3.729   8.193 -0.2652 -0.1154  0.2185
39697SOL    HW129021   0.397   3.755   8.262 -2.2311 -0.1137  2.0426
39697SOL    HW229022   0.286   3.657   8.231 -1.9717  0.4319 -0.8855
39698SOL     OW29023  10.591  12.952   7.061  0.3600 -0.3710 -0.2621
39698SOL    HW129024  10.514  12.922   7.108  1.1661  0.8034  1.9748
39698SOL    HW229025  10.656  12.970   7.129  1.8400  0.8522 -1.8710
39699SOL     OW29026   8.228  11.270  12.032 -0.2282 -0.0449  0.0289
39699SOL    HW129027   8.169  11.203  11.996  1.5894 -2.1199  0.7032
39699SOL    HW229028   8.275  11.304  11.956  1.1396 -1.9315 -0.0316
39700SOL     OW29029   3.369   2.710   1.452  0.1767 -0.4738  0.8308
39700SOL    HW129030   3.455   2.669   1.455  0.0067 -1.0155 -0.7055
39700SOL    HW229031   3.317   2.652   1.397 -0.7898  0.5093  0.6788
39701SOL     OW29032   2.047  11.103   2.918 -0.3517  0.4654 -0.2266
39701SOL    HW129033   2.095  11.181   2.891  0.3014  0.5082  1.0105
39701SOL    HW229034   2.057  11.042   2.845  1.7370  0.4076  0.0517
39702SOL     OW29035  10.108  10.539   6.417 -0.2265 -0.8228  0.0430
39702SOL    HW129036  10.140  10.614   6.367  2.1757 -2.1794 -0.6195
39702SOL    HW229037  10.025  10.516   6.376 -0.7881  1.1351 -0.0300
39703SOL     OW29038   0.048   9.022  10.924  0.1506 -0.0020 -0.1322
39703SOL    HW129039   0.119   8.977  10.877 -0.3707 -1.1349  0.1183
39703SOL    HW229040   0.086   9.105  10.951  1.0409 -0.1192 -0.9567
39704SOL     OW29041   1.238   6.618   2.310  0.5038  0.0850  0.3788
39704SOL    HW129042   1.195   6.579   2.234 -0.1114  0.2417  0.6389
39704SOL    HW229043   1.288   6.547   2.349  0.9935  0.0522 -0.2880
39705SOL     OW29044   8.964  11.012  13.175 -0.1259 -0.2103 -0.7000
39705SOL    HW129045   8.967  11.074  13.248  3.0442  0.1934 -1.0065
39705SOL    HW229046   8.988  10.928  13.215 -0.3968 -0.4038 -0.9442
39706SOL     OW29047   0.357   6.595   2.517  0.1993 -0.3424  0.4981
39706SOL    HW129048   0.416   6.655   2.471 -0.5089  0.5243  0.6847
39706SOL    HW229049   0.322   6.538   2.448  0.6163 -0.3205  0.2633
39707SOL     OW29050  12.590  12.589   2.483  0.2564  0.4532  0.5580
39707SOL    HW129051  12.566  12.681   2.469 -0.6762  0.2065  0.4415
39707SOL    HW229052  12.670  12.592   2.535  1.6273  1.3598 -1.5106
39708SOL     OW29053  13.088   4.866   3.466  0.4418 -0.0218 -0.2840
39708SOL    HW129054  13.125   4.818   3.540 -1.8699  2.2394  2.5884
39708SOL    HW229055  12.997   4.837   3.460 -0.1679  1.7659 -0.4227
39709SOL     OW29056   5.507   1.269   3.661  0.1986 -0.3085  0.0928
39709SOL    HW129057   5.460   1.218   3.594 -0.2325  1.0584 -0.6705
39709SOL    HW229058   5.439   1.296   3.722  0.3473 -0.1911  0.2055
39710SOL     OW29059   5.499   7.810   5.331  0.1976  0.0198  0.0917
39710SOL    HW129060   5.513   7.715   5.326  0.5112 -0.0306  1.4604
39710SOL    HW229061   5.587   7.847   5.327  0.0003  0.3625 -1.8484
39711SOL     OW29062  11.910   5.746   8.290  0.0464 -0.1113  0.4838
39711SOL    HW129063  11.819   5.735   8.264 -0.8648  3.4951  1.5435
39711SOL    HW229064  11.948   5.659   8.283 -3.3984 -1.7210 -0.1991
39712SOL     OW29065   4.825   7.560   0.434  0.8693 -0.1297  0.0460
39712SOL    HW129066   4.877   7.640   0.427  2.1061 -0.8863  0.2782
39712SOL    HW229067   4.890   7.491   0.451 -0.3642 -0.7796  2.6437
39713SOL     OW29068   4.998   6.295   5.905  0.2536 -0.1036 -0.4880
39713SOL    HW129069   4.910   6.286   5.868 -0.2950  1.4783  0.3038
39713SOL    HW229070   5.040   6.363   5.852  0.5500  0.0226 -0.0981
39714SOL     OW29071  12.858   2.705   5.575 -0.3270  0.1123  0.2672
39714SOL    HW129072  12.923   2.745   5.634 -1.0330 -1.0008  1.8532
39714SOL    HW229073  12.839   2.620   5.614 -0.4735 -0.8780 -1.8651
39715SOL     OW29074   9.049  12.895   7.560 -0.3869  0.2824 -0.7684
39715SOL    HW129075   9.131  12.870   7.604 -0.1553  0.3215 -1.1708
39715SOL    HW229076   9.077  12.922   7.472 -0.6921  1.3981 -0.5407
39716SOL     OW29077   7.138  11.727  12.881  0.4235 -0.4013  0.0438
39716SOL    HW129078   7.189  11.683  12.812  0.7861  0.4506 -0.2420
39716SOL    HW229079   7.109  11.809  12.841  0.9713  0.2962  1.0341
39717SOL     OW29080  12.439   7.734  11.028 -0.4685 -0.3540  0.2148
39717SOL    HW129081  12.483   7.813  10.997  1.2184 -1.7186 -1.0889
39717SOL    HW229082  12.474   7.721  11.116 -1.8331  1.0689  1.0156
39718SOL     OW29083   4.437   3.726   9.341 -0.1518 -0.0560 -0.1046
39718SOL    HW129084   4.359   3.770   9.307 -0.4568 -0.1178  0.5045
39718SOL    HW229085   4.475   3.682   9.265  0.0550  1.0929 -0.6853
39719SOL     OW29086   7.548   7.170   9.804 -0.7379  0.1520  0.4501
39719SOL    HW129087   7.481   7.188   9.871 -0.5533  1.5532  0.2806
39719SOL    HW229088   7.567   7.077   9.815 -2.8574 -0.3503  0.3795
39720SOL     OW29089   4.184  11.709   5.418 -0.0830 -0.3425  0.0925
39720SOL    HW129090   4.110  11.761   5.451  0.8777  1.3321 -0.2698
39720SOL    HW229091   4.249  11.712   5.489  0.1669 -0.6727 -0.1197
39721SOL     OW29092  12.094  10.478   6.358 -0.2201  0.1997 -0.3095
39721SOL    HW129093  12.141  10.433   6.429 -1.3365 -1.2098 -0.4033
39721SOL    HW229094  12.005  10.442   6.363 -0.3967  0.3024 -2.2251
39722SOL     OW29095   8.872  12.416   1.561 -0.1206  0.6718  0.7210
39722SOL    HW129096   8.908  12.422   1.649  0.5031  3.9788  0.3735
39722SOL    HW229097   8.780  12.440   1.571 -0.0310  1.1235  0.4714
39723SOL     OW29098   2.476   1.452   5.146  0.1095 -0.7854 -0.2002
39723SOL    HW129099   2.480   1.523   5.083  0.2916  0.3044  1.0078
39723SOL    HW229100   2.498   1.374   5.095 -1.6190 -0.2421 -1.8971
39724SOL     OW29101   1.836   9.138  11.640 -0.0233 -0.0466  0.2060
39724SOL    HW129102   1.869   9.171  11.724 -0.6508 -0.5875  0.6822
39724SOL    HW229103   1.754   9.093  11.663 -0.4211  0.1685 -0.7625
39725SOL     OW29104   7.600   8.326   8.294  0.0162 -0.1553 -0.3580
39725SOL    HW129105   7.675   8.386   8.304 -0.9678  1.0751 -0.1002
39725SOL    HW229106   7.607   8.295   8.204  0.6189  0.2746 -0.4701
39726SOL     OW29107   5.397   1.307   5.417 -0.1853  0.6083 -0.0024
39726SOL    HW129108   5.323   1.253   5.445 -0.1736  1.7557  2.5021
39726SOL    HW229109   5.474   1.250   5.427 -0.4997  0.1023 -0.4650
39727SOL     OW29110   6.511  10.733   5.543  0.6256 -0.1314 -0.4596
39727SOL    HW129111   6.586  10.774   5.586  0.0447  1.2004 -0.6740
39727SOL    HW229112   6.435  10.780   5.578  0.0796  0.4731 -2.3515
39728SOL     OW29113   7.232  12.788   0.320 -0.3364  0.2526 -0.5808
39728SOL    HW129114   7.144  12.794   0.283 -0.5093  1.5673 -0.0042
39728SOL    HW229115   7.248  12.875   0.357  1.1974  0.0202 -0.6566
39729SOL     OW29116  12.269   4.687  12.958  0.4277  0.5086 -0.1723
39729SOL    HW129117  12.184   4.730  12.951 -0.8864 -2.0872 -1.9971
39729SOL    HW229118  12.268   4.645  13.044 -0.3892  0.0705 -0.3822
39730SOL     OW29119   9.685   7.084   2.673  0.1647  0.0724  0.2135
39730SOL    HW129120   9.679   7.124   2.587  1.1280  0.2294  0.2106
39730SOL    HW229121   9.705   7.156   2.732  3.3157 -0.4754  0.0213
39731SOL     OW29122   0.509  13.246   3.895  0.0380  0.2989 -0.0660
39731SOL    HW129123   0.539  13.162   3.860  3.2137  0.2233  2.4336
39731SOL    HW229124   0.552  13.312   3.840  0.4074  0.2226  0.1258
39732SOL     OW29125   7.294   7.674   1.157  0.6604 -0.0137  0.4124
39732SOL    HW129126   7.237   7.631   1.094 -0.9812  0.7573  1.3103
39732SOL    HW229127   7.357   7.722   1.104 -1.1621  1.2783 -0.6930
39733SOL     OW29128   1.216   6.115  12.175  0.3983  0.4692  0.1641
39733SOL    HW129129   1.154   6.066  12.121  0.4663 -0.6026  1.0345
39733SOL    HW229130   1.295   6.062  12.176  0.8659  1.1444  0.2229
39734SOL     OW29131  12.032   6.706   8.066  0.1632  0.5667 -0.1369
39734SOL    HW129132  12.069   6.710   8.154  0.1892  0.0916 -0.1229
39734SOL    HW229133  11.976   6.784   8.059  2.3238  2.1676 -0.7054
39735SOL     OW29134   0.137  10.440   3.789  0.2793 -0.9575  0.2046
39735SOL    HW129135   0.231  10.446   3.805  0.0041 -0.7717  2.0434
39735SOL    HW229136   0.121  10.502   3.718  1.4387 -0.3429  0.4467
39736SOL     OW29137   9.545   0.677   4.802  0.3972 -0.2451 -0.4062
39736SOL    HW129138   9.459   0.720   4.796  0.2682 -0.2615  0.9870
39736SOL    HW229139   9.608   0.749   4.795  0.2573 -0.1618 -0.8233
39737SOL     OW29140   0.939   4.892   5.534 -0.3645 -0.8122  0.9138
39737SOL    HW129141   0.996   4.860   5.464  0.2705  0.9876  0.5507
39737SOL    HW229142   0.994   4.891   5.612 -0.5822 -1.3005  1.0662
39738SOL     OW29143   3.067   7.369   0.236 -0.1330 -0.5445 -0.4527
39738SOL    HW129144   3.060   7.377   0.141  2.2503 -1.7567 -0.7878
39738SOL    HW229145   3.099   7.454   0.266 -0.7624 -0.2065 -0.7287
39739SOL     OW29146  12.944   3.454   8.495  0.2515  0.4431 -0.7588
39739SOL    HW129147  12.971   3.529   8.442 -0.0611  0.4132 -0.9610
39739SOL    HW229148  12.856   3.476   8.524  0.3908  0.4258 -0.3096
39740SOL     OW29149   3.669  10.374  11.380  0.2552  0.4087 -0.5429
39740SOL    HW129150   3.671  10.450  11.439 -0.6887 -1.0459  1.4805
39740SOL    HW229151   3.728  10.310  11.421 -0.4796 -0.6764 -1.1208
39741SOL     OW29152   9.874  11.966   7.665 -0.2546 -0.0581  0.3424
39741SOL    HW129153   9.790  11.920   7.665 -0.1402 -0.2811 -0.3306
39741SOL    HW229154   9.899  11.969   7.572  0.7534 -0.4813  0.5949
39742SOL     OW29155   0.513   0.979   5.108 -0.3785  0.1470 -0.1605
39742SOL    HW129156   0.603   0.990   5.078 -0.3469  1.3621  0.3346
39742SOL    HW229157   0.466   0.943   5.033  0.3400  0.3080 -0.6917
39743SOL     OW29158  11.499   7.829   8.495 -0.0926  0.1431 -0.5352
39743SOL    HW129159  11.540   7.850   8.411  2.6447 -0.2966  0.5708
39743SOL    HW229160  11.516   7.735   8.507 -1.3521 -0.0219  0.0626
39744SOL     OW29161   2.354  10.375   5.239 -0.2588  0.0192  0.0267
39744SOL    HW129162   2.321  10.297   5.284  0.2900 -0.3283 -0.1655
39744SOL    HW229163   2.278  10.433   5.234 -0.4434 -0.1054  1.0242
39745SOL     OW29164   9.394   0.037   1.873  0.1940  0.6597 -0.5040
39745SOL    HW129165   9.451   0.028   1.949  1.0859  1.5323 -1.0463
39745SOL    HW229166   9.337  -0.040   1.876  1.4247 -0.2658  0.0315
39746SOL     OW29167  12.933   5.659   9.549 -0.1832  0.2725  0.0790
39746SOL    HW129168  12.883   5.673   9.630 -1.0189  1.2657 -0.5820
39746SOL    HW229169  12.956   5.748   9.519 -2.9515  0.2419 -2.6288
39747SOL     OW29170   9.430   1.108   3.090  0.1765  0.1102  0.0441
39747SOL    HW129171   9.500   1.172   3.103  0.1170  0.0717  0.5969
39747SOL    HW229172   9.461   1.030   3.137  0.2911 -0.2990 -0.6996
39748SOL     OW29173   9.355   2.322  10.624  0.0144 -0.0053  0.4263
39748SOL    HW129174   9.429   2.300  10.568 -0.3487  0.4150 -0.2276
39748SOL    HW229175   9.286   2.349  10.564 -0.6750 -0.3873  1.0296
39749SOL     OW29176   6.886   0.977   0.780  0.2340  0.2552  0.3257
39749SOL    HW129177   6.963   0.930   0.748 -0.4554  0.6398 -2.1342
39749SOL    HW229178   6.896   1.066   0.745 -1.7046  0.0865 -0.8306
39750SOL     OW29179  12.761   0.473   2.125 -0.1514 -0.2095 -0.7363
39750SOL    HW129180  12.706   0.551   2.132  0.6274  0.2428  0.8158
39750SOL    HW229181  12.699   0.400   2.121 -0.8684  0.3723 -0.4286
39751SOL     OW29182   5.066   1.634  12.397 -0.1364 -0.4287  0.4532
39751SOL    HW129183   5.022   1.683  12.466 -0.0136 -0.2404  0.3962
39751SOL    HW229184   4.998   1.615  12.333  0.2062  1.3142 -0.4605
39752SOL     OW29185   1.843   2.090   9.700 -0.4062 -0.8798  0.3484
39752SOL    HW129186   1.794   2.024   9.749  0.1595 -0.1274  1.9639
39752SOL    HW229187   1.791   2.170   9.708 -1.0810 -1.0522 -1.5830
39753SOL     OW29188   5.160   8.016   3.719  0.2640 -0.0579  0.4332
39753SOL    HW129189   5.231   7.997   3.659  2.1557  1.2139  2.1392
39753SOL    HW229190   5.157   8.112   3.724 -0.7385 -0.1103  1.3552
39754SOL     OW29191   0.584   7.927   5.437 -0.5446 -0.0182  0.3713
39754SOL    HW129192   0.556   8.011   5.473 -0.9098  0.3918 -0.8408
39754SOL    HW229193   0.534   7.917   5.357  0.3264 -0.8604 -0.0845
39755SOL     OW29194   6.685   8.389   0.212 -0.4408  0.2557 -0.0629
39755SOL    HW129195   6.725   8.303   0.223 -1.0262 -0.0865 -0.5847
39755SOL    HW229196   6.666   8.418   0.301  2.7409  1.3210  0.4219
39756SOL     OW29197   5.002   1.144   0.071  0.5087 -0.2526  0.6488
39756SOL    HW129198   5.077   1.176   0.120 -0.0738  0.4574  1.0725
39756SOL    HW229199   4.977   1.217   0.014  0.7222 -0.8127 -0.1902
39757SOL     OW29200  11.347   9.437   7.444 -0.2583 -0.5493 -0.0458
39757SOL    HW129201  11.407   9.428   7.518  0.3044 -0.8844 -0.5288
39757SOL    HW229202  11.280   9.370   7.459  0.3231 -1.1994 -0.2596
39758SOL     OW29203   6.825  10.813   3.718  0.6559  0.0273 -0.1077
39758SOL    HW129204   6.881  10.760   3.775  0.6120  1.5480  1.4039
39758SOL    HW229205   6.886  10.869   3.670  0.5465  0.3429  0.1219
39759SOL     OW29206  10.573  12.910  12.012 -0.0238  0.0062 -0.3673
39759SOL    HW129207  10.658  12.954  12.009  0.2865 -0.6005 -0.8773
39759SOL    HW229208  10.509  12.981  12.016  0.5157  0.4618  0.3825
39760SOL     OW29209  12.586   4.090   2.031  0.4693  0.1809  0.1061
39760SOL    HW129210  12.624   4.071   1.945  0.3822  0.4674  0.0041
39760SOL    HW229211  12.530   4.014   2.049  0.6978 -0.0095  0.0345
39761SOL     OW29212   5.969   5.709   1.705 -0.4744  0.6822  0.1035
39761SOL    HW129213   6.038   5.645   1.722 -1.3065  0.4921  3.3743
39761SOL    HW229214   6.010   5.794   1.723  0.4705  1.2388 -3.7161
39762SOL     OW29215   0.121   3.095   8.104 -0.0855  0.0530  0.7592
39762SOL    HW129216   0.144   3.012   8.062 -2.0539  0.1975 -0.7877
39762SOL    HW229217   0.037   3.078   8.146 -0.8812  1.4049 -0.1935
39763SOL     OW29218   3.102   8.291   6.264  0.0518  0.4755 -0.8442
39763SOL    HW129219   3.122   8.317   6.354  0.8262 -1.2772 -0.4740
39763SOL    HW229220   3.187   8.288   6.220  0.1796 -2.2360 -0.5889
39764SOL     OW29221  10.022  10.882  12.976  0.0840 -0.5004  0.0995
39764SOL    HW129222  10.058  10.795  12.990 -1.6702 -1.3651 -0.4078
39764SOL    HW229223   9.940  10.882  13.025  0.6148  1.3063  1.0612
39765SOL     OW29224  12.124  11.698   4.148 -0.2041 -0.1939  0.4006
39765SOL    HW129225  12.190  11.699   4.217  0.7537 -1.1802 -0.4595
39765SOL    HW229226  12.072  11.620   4.166 -2.3252  1.4832  2.0832
39766SOL     OW29227   9.050   6.585   2.744  0.0570 -0.7348  0.0996
39766SOL    HW129228   9.037   6.515   2.808  0.7225 -1.1187 -0.1764
39766SOL    HW229229   9.069   6.539   2.662  0.3216 -0.2303 -0.1269
39767SOL     OW29230   5.529  12.528   4.852  0.1523 -0.5261 -0.1197
39767SOL    HW129231   5.514  12.605   4.797  1.1771 -0.6195 -0.5485
39767SOL    HW229232   5.574  12.466   4.794  0.6882 -0.8658  0.6477
39768SOL     OW29233   5.146   3.312  10.062  0.0562 -0.3301  0.5665
39768SOL    HW129234   5.093   3.247  10.017  0.6445  0.0698 -0.7560
39768SOL    HW229235   5.197   3.261  10.126 -1.2113 -0.8271  1.2075
39769SOL     OW29236  10.160   4.828   7.137  0.2220 -0.3113  1.2185
39769SOL    HW129237  10.203   4.907   7.104  0.7949 -1.2386 -0.4028
39769SOL    HW229238  10.092   4.860   7.197 -0.4212  1.4709 -0.3664
39770SOL     OW29239   1.890   8.535  10.045  0.2338 -0.4951 -0.2544
39770SOL    HW129240   1.825   8.597  10.011 -1.0252 -1.8544 -0.3839
39770SOL    HW229241   1.895   8.555  10.138  0.1634  0.0720 -0.3648
39771SOL     OW29242   3.595   1.226   4.590 -0.2717 -0.1350 -0.0468
39771SOL    HW129243   3.549   1.310   4.584  0.8337  0.7544  2.4867
39771SOL    HW229244   3.658   1.228   4.518 -1.3081  0.5102 -0.9517
39772SOL     OW29245   3.668   0.980  12.526  0.1923 -0.4670  0.1550
39772SOL    HW129246   3.624   1.035  12.590  0.3074  0.7133 -0.7404
39772SOL    HW229247   3.599   0.953  12.465  0.4283  0.1673 -0.4105
39773SOL     OW29248   1.737   3.839  11.038 -0.3446 -0.5577 -0.2230
39773SOL    HW129249   1.742   3.934  11.027 -1.6156 -0.3657  0.6713
39773SOL    HW229250   1.792   3.822  11.115  1.7420 -0.8751 -1.6860
39774SOL     OW29251   2.346   4.367   6.278  0.1796  0.5374 -0.4311
39774SOL    HW129252   2.279   4.308   6.313  0.2395  0.3595 -0.6176
39774SOL    HW229253   2.421   4.310   6.259  0.0301  0.5723 -1.1741
39775SOL     OW29254   3.241  13.109   7.113 -0.2880 -0.2340 -0.5476
39775SOL    HW129255   3.311  13.103   7.047  0.9354 -1.4029  0.7821
39775SOL    HW229256   3.286  13.097   7.196 -2.1313 -1.4752  0.3354
39776SOL     OW29257  11.813   3.300   6.999  0.1658  0.3456 -0.0071
39776SOL    HW129258  11.762   3.292   7.080  2.2381 -2.6826  1.2022
39776SOL    HW229259  11.877   3.368   7.018  1.2178 -0.9533  1.3523
39777SOL     OW29260   4.699   0.513   7.585  0.3453 -0.0542 -0.1633
39777SOL    HW129261   4.746   0.508   7.502 -1.1438 -0.5056 -1.0215
39777SOL    HW229262   4.659   0.427   7.596  1.4221 -0.3909  1.6194
39778SOL     OW29263   5.270   5.641   4.288  0.1562 -0.0073  0.5252
39778SOL    HW129264   5.290   5.699   4.214 -0.9588 -0.4587 -0.1582
39778SOL    HW229265   5.177   5.657   4.306 -0.4637 -2.2818 -0.3489
39779SOL     OW29266   5.517  11.228   9.459 -0.4875  0.2880  0.4417
39779SOL    HW129267   5.486  11.231   9.369  0.0729  0.2840  0.2442
39779SOL    HW229268   5.567  11.147   9.465  0.5242  0.8896  0.4005
39780SOL     OW29269   2.158   8.038   3.497  0.2590  0.0253  0.8132
39780SOL    HW129270   2.098   8.004   3.432  1.6281 -0.3753 -0.2910
39780SOL    HW229271   2.119   8.120   3.526 -0.8788 -0.3086  0.2618
39781SOL     OW29272   7.709   8.708   7.641  0.5958 -0.5853  0.1158
39781SOL    HW129273   7.678   8.756   7.565  1.5928 -1.2181 -0.7188
39781SOL    HW229274   7.785   8.758   7.672 -0.6002  0.4202  1.5515
39782SOL     OW29275  10.360  13.227   8.676 -0.0087 -0.4249 -0.4207
39782SOL    HW129276  10.303  13.214   8.752  0.9562 -0.3078  0.3278
39782SOL    HW229277  10.445  13.249   8.712  0.6631 -1.1051 -1.5207
39783SOL     OW29278  10.765   5.139   3.425  0.4676  0.7036 -0.3275
39783SOL    HW129279  10.788   5.232   3.423  4.9288 -0.0979  1.4478
39783SOL    HW229280  10.695   5.133   3.490  1.1596  2.7108  0.6866
39784SOL     OW29281  10.978   5.330   1.215 -0.0296  0.0353 -0.4191
39784SOL    HW129282  11.042   5.278   1.265  0.0968  0.8188  0.2523
39784SOL    HW229283  10.894   5.313   1.258  0.0923  0.7769  0.1246
39785SOL     OW29284   6.240   1.820   8.826  0.4472 -0.0776 -0.3020
39785SOL    HW129285   6.318   1.790   8.779  0.3039 -0.9881  0.0240
39785SOL    HW229286   6.270   1.835   8.916  0.6770  1.4730 -0.5972
39786SOL     OW29287   0.399   0.913   7.794  0.1617  0.5165  0.1468
39786SOL    HW129288   0.377   1.004   7.776 -0.4845  0.0224 -1.8320
39786SOL    HW229289   0.315   0.868   7.800  0.3461 -0.7129 -3.6825
39787SOL     OW29290  12.305   8.290   0.380 -0.4803 -0.0698 -0.0570
39787SOL    HW129291  12.248   8.227   0.423 -1.1299  0.3419 -0.2933
39787SOL    HW229292  12.305   8.264   0.288  0.2595 -0.4700  0.0526
39788SOL     OW29293  12.820   4.723  11.034 -0.5074  0.1353  0.3446
39788SOL    HW129294  12.796   4.693  10.946 -0.0239 -2.1785  0.9349
39788SOL    HW229295  12.818   4.819  11.028 -1.4779  0.0410 -1.8925
39789SOL     OW29296   7.336   0.553   0.228  0.0147  0.0382 -0.1912
39789SOL    HW129297   7.282   0.503   0.289 -1.2637  0.8823 -0.5928
39789SOL    HW229298   7.322   0.645   0.252  1.4257  0.2817 -0.1961
39790SOL     OW29299   7.473  11.423   3.493 -0.2406 -0.4372 -0.0134
39790SOL    HW129300   7.487  11.472   3.412  0.0672 -1.6832 -0.7381
39790SOL    HW229301   7.445  11.489   3.557  0.4220  0.7125 -0.8814
39791SOL     OW29302   6.763   7.126   3.378  0.2224  0.3359 -0.5573
39791SOL    HW129303   6.738   7.151   3.467  0.3151 -0.3082 -0.3435
39791SOL    HW229304   6.855   7.152   3.371 -0.2140  1.8338 -1.0171
39792SOL     OW29305   7.394   8.656   1.118  0.1070 -0.8395  0.0108
39792SOL    HW129306   7.461   8.702   1.167  1.0101  0.1385 -2.0445
39792SOL    HW229307   7.352   8.599   1.183  1.5459  0.0088  1.7718
39793SOL     OW29308   6.194  12.083   2.415 -0.1998  0.5013  0.3336
39793SOL    HW129309   6.270  12.141   2.423  0.0889  0.2900 -0.7723
39793SOL    HW229310   6.118  12.142   2.421 -0.0223  0.6105  2.4556
39794SOL     OW29311   9.766   4.383   2.961  0.5702 -0.2292  0.0991
39794SOL    HW129312   9.763   4.317   3.030  0.8831 -1.8131 -1.3475
39794SOL    HW229313   9.701   4.354   2.897  0.5767  0.9773 -0.4961
39795SOL     OW29314   8.611   8.703   2.830 -0.0873  0.0660 -0.6491
39795SOL    HW129315   8.522   8.674   2.849  0.5066 -1.7254 -0.4535
39795SOL    HW229316   8.667   8.633   2.863  1.5578  2.1717  1.4257
39796SOL     OW29317   1.725   2.540   5.703 -0.3204 -0.1154 -0.2257
39796SOL    HW129318   1.809   2.544   5.750 -0.5506 -1.8887  0.4099
39796SOL    HW229319   1.747   2.504   5.617 -0.1801  1.3550 -0.8515
39797SOL     OW29320  12.425   9.788   2.772  0.1968 -0.1717 -0.3301
39797SOL    HW129321  12.377   9.718   2.816  0.1934 -0.5371 -0.9088
39797SOL    HW229322  12.395   9.785   2.681 -1.0934  1.7257 -0.0090
39798SOL     OW29323   8.700   9.943   0.167 -0.0285 -0.5896  0.3467
39798SOL    HW129324   8.721   9.875   0.103 -0.5541 -1.2852  0.8928
39798SOL    HW229325   8.654  10.010   0.117  2.3138  0.4121 -0.6380
39799SOL     OW29326   4.098  12.577   2.046 -0.3068 -0.6501 -0.0034
39799SOL    HW129327   4.079  12.607   1.957  2.4632  0.2878 -0.3768
39799SOL    HW229328   4.012  12.557   2.083 -1.6266 -0.1515 -2.5465
39800SOL     OW29329   7.203   3.978  11.016  0.3278  0.0032  0.0237
39800SOL    HW129330   7.298   3.981  11.026  0.0958 -0.1691  3.5561
39800SOL    HW229331   7.172   4.055  11.064 -1.3915 -2.1543  2.6936
39801SOL     OW29332   1.740   4.328   7.038  0.5268 -0.3968 -0.5436
39801SOL    HW129333   1.763   4.245   7.081  1.5793  0.8795  1.4894
39801SOL    HW229334   1.644   4.327   7.034  0.5391 -1.8835 -0.9228
39802SOL     OW29335   5.768   9.144   6.589  0.2155  0.2528 -0.1453
39802SOL    HW129336   5.751   9.233   6.623 -1.6561  0.0532 -0.4338
39802SOL    HW229337   5.698   9.130   6.525  0.8332 -1.2300 -0.5155
39803SOL     OW29338  12.915   1.140  11.138  0.5740 -0.1783 -0.3861
39803SOL    HW129339  12.963   1.101  11.065  0.0410  1.8051 -1.8695
39803SOL    HW229340  12.823   1.119  11.120  0.5293 -0.7376  0.4211
39804SOL     OW29341  12.596   0.459   1.296  0.1727  0.0793  0.6197
39804SOL    HW129342  12.528   0.501   1.244  0.9640 -0.4148 -0.8684
39804SOL    HW229343  12.593   0.503   1.381 -0.0983  1.9996 -0.3464
39805SOL     OW29344  10.929   3.695  12.250  0.3633  0.2144 -0.6317
39805SOL    HW129345  10.972   3.726  12.330  0.8220 -2.5513  0.2905
39805SOL    HW229346  10.881   3.617  12.278 -0.9011  0.1801 -2.7358
39806SOL     OW29347  10.159   1.800   0.515 -0.3658 -0.1877 -0.3290
39806SOL    HW129348  10.248   1.793   0.480 -0.5784  1.0541 -1.1767
39806SOL    HW229349  10.149   1.893   0.536 -0.4714 -0.7581  2.5196
39807SOL     OW29350   8.148   1.240  13.153  0.5105  0.4694 -0.4869
39807SOL    HW129351   8.166   1.264  13.062 -1.7516  0.1174 -1.0898
39807SOL    HW229352   8.054   1.252  13.162  1.0408  4.1651  2.9357
39808SOL     OW29353   9.372   6.536   6.706 -0.4378 -0.6045  0.0726
39808SOL    HW129354   9.280   6.509   6.713 -0.0750 -1.5174  2.2635
39808SOL    HW229355   9.412   6.469   6.650 -0.4302 -2.3286  2.0293
39809SOL     OW29356   2.424   5.747   7.182 -0.3103 -0.1645  0.5727
39809SOL    HW129357   2.504   5.699   7.200 -0.6669  0.1165  3.2446
39809SOL    HW229358   2.354   5.682   7.186 -0.4223 -0.0732  0.2183
39810SOL     OW29359  11.116   9.171   6.544 -0.2811  0.1346  0.0987
39810SOL    HW129360  11.049   9.189   6.478 -0.8082  1.3464  0.9218
39810SOL    HW229361  11.197   9.161   6.494 -0.6095  1.3238 -0.7315
39811SOL     OW29362  12.642   5.216   5.703  0.0430 -0.5237 -0.2244
39811SOL    HW129363  12.696   5.278   5.655 -0.0723  0.0918  0.4310
39811SOL    HW229364  12.681   5.213   5.791 -1.4630  0.5852  0.5262
39812SOL     OW29365  13.285   6.547   6.637  0.4398 -0.4504  0.1379
39812SOL    HW129366  13.258   6.596   6.559  0.1815 -2.6105 -1.2071
39812SOL    HW229367  13.223   6.573   6.704  0.8549  1.7095 -0.2122
39813SOL     OW29368   2.923   2.944   6.409 -0.4267  0.5206  0.6986
39813SOL    HW129369   2.833   2.912   6.402 -0.4588  0.8521 -0.8900
39813SOL    HW229370   2.973   2.869   6.442 -0.6224 -1.0622 -2.2305
39814SOL     OW29371   2.965   7.827   0.530  0.4925 -0.4933 -0.4875
39814SOL    HW129372   2.929   7.874   0.456 -0.6640  0.0196  0.3791
39814SOL    HW229373   3.037   7.882   0.561  0.4826 -0.3298 -0.7550
39815SOL     OW29374   3.957   0.722   5.296 -0.5210 -0.4928 -0.1545
39815SOL    HW129375   3.941   0.781   5.370 -0.6250 -0.6869 -0.0206
39815SOL    HW229376   3.879   0.666   5.294 -0.9422  0.0916 -0.9630
39816SOL     OW29377  13.058   7.178   9.746  0.4256  0.3018  0.0087
39816SOL    HW129378  13.023   7.265   9.723 -1.2202 -0.2934  0.0845
39816SOL    HW229379  13.074   7.136   9.662  0.4316  0.3787 -0.0288
39817SOL     OW29380   3.061   4.010   0.447  0.0953  0.2765  0.1638
39817SOL    HW129381   2.974   4.021   0.486 -0.0926 -1.4030  0.2998
39817SOL    HW229382   3.049   4.034   0.355 -0.0185  1.9592  0.5918
39818SOL     OW29383   4.413  11.022   9.884 -0.4406  0.0625  0.1306
39818SOL    HW129384   4.383  10.992   9.798 -1.2844 -1.6261  0.9621
39818SOL    HW229385   4.507  11.004   9.884 -0.4009  0.2533 -0.5144
39819SOL     OW29386   2.402   8.931   2.163 -0.0202 -0.0812  0.0511
39819SOL    HW129387   2.494   8.959   2.169 -0.3383  1.5327 -1.5033
39819SOL    HW229388   2.406   8.848   2.115  0.6338  0.1637 -0.3425
39820SOL     OW29389   8.517  10.834   0.260 -0.2532  0.1947  0.2998
39820SOL    HW129390   8.546  10.815   0.349 -1.0576 -0.1576  0.4904
39820SOL    HW229391   8.440  10.778   0.246  0.5050 -0.5964 -1.0068
39821SOL     OW29392   2.951   0.642   5.590  0.0334  0.5714  0.0928
39821SOL    HW129393   2.856   0.644   5.575  0.2281  1.5384 -1.2468
39821SOL    HW229394   2.971   0.729   5.624  0.4723  0.4199  0.2203
39822SOL     OW29395  11.270   8.424   6.001  0.1408 -0.4662 -0.1786
39822SOL    HW129396  11.336   8.372   6.047 -0.0244 -0.4762  0.0500
39822SOL    HW229397  11.223   8.360   5.947  0.7017 -0.3622 -0.7939
39823SOL     OW29398   5.393   1.025   4.878 -0.2546  0.0585  0.0573
39823SOL    HW129399   5.344   1.014   4.960 -1.1350 -0.7125 -0.5461
39823SOL    HW229400   5.485   1.013   4.903 -0.4110  0.9212  1.1092
39824SOL     OW29401   6.720   1.965   1.301 -0.1189 -0.0218 -0.0942
39824SOL    HW129402   6.713   2.052   1.263  0.6602  0.0716 -0.0397
39824SOL    HW229403   6.650   1.915   1.260 -1.1596  0.8592  0.5381
39825SOL     OW29404   4.970  10.998   4.185 -0.3193  0.5333  0.3794
39825SOL    HW129405   5.050  10.952   4.209 -0.8455 -0.2749  0.6094
39825SOL    HW229406   4.902  10.960   4.240 -1.1636  0.0912 -0.9122
39826SOL     OW29407   3.891   1.348   6.750 -0.5702  0.2293  0.1930
39826SOL    HW129408   3.940   1.412   6.801  0.2366 -0.2376  0.0204
39826SOL    HW229409   3.810   1.394   6.726 -0.3740  0.8974  0.7630
39827SOL     OW29410   6.257   6.484   2.434  0.7725 -0.2075  0.0557
39827SOL    HW129411   6.271   6.469   2.527  0.7651  1.5458  0.3845
39827SOL    HW229412   6.177   6.537   2.431  1.1941  0.4016 -0.8750
39828SOL     OW29413  12.359   7.022   0.145  0.2233 -0.5325  0.6164
39828SOL    HW129414  12.308   7.086   0.095 -0.0975 -0.3271  1.2020
39828SOL    HW229415  12.321   6.938   0.122 -0.7628 -0.3336  1.4962
39829SOL     OW29416   0.936   2.888   9.987 -0.0252  0.3157 -0.2771
39829SOL    HW129417   1.007   2.942   9.953  0.4313 -0.8298 -1.1999
39829SOL    HW229418   0.912   2.930  10.070  1.3732  1.0121 -0.1940
39830SOL     OW29419  10.064   1.992   8.104 -0.7219 -0.2499 -0.2238
39830SOL    HW129420  10.036   1.901   8.113  0.7505 -0.6128  1.0380
39830SOL    HW229421  10.143   1.988   8.050 -0.0420  0.1573  0.7298
39831SOL     OW29422   2.640  12.256   5.135 -0.0120  0.2878  0.1394
39831SOL    HW129423   2.678  12.236   5.221 -1.1961  0.5953  0.7606
39831SOL    HW229424   2.617  12.349   5.141 -1.5066 -0.0544  0.0678
39832SOL     OW29425   7.539  10.264   1.350  0.0896 -0.3081  0.3507
39832SOL    HW129426   7.621  10.311   1.364 -0.9549  1.4314  0.9477
39832SOL    HW229427   7.512  10.235   1.437 -0.8401  0.7870  0.4526
39833SOL     OW29428  12.027   8.149   5.377  0.1641  0.1690 -0.0281
39833SOL    HW129429  11.935   8.162   5.400  0.1466  1.3685 -0.7338
39833SOL    HW229430  12.025   8.081   5.310 -0.2169  0.2478 -0.1004
39834SOL     OW29431   1.877  12.205   7.673  0.5762  0.4183 -0.1754
39834SOL    HW129432   1.942  12.267   7.705  1.5131 -0.5256 -0.1803
39834SOL    HW229433   1.797  12.227   7.721  0.9545  1.4419  0.0147
39835SOL     OW29434   0.166   1.971   7.962  0.6178 -1.1613  0.5928
39835SOL    HW129435   0.260   1.977   7.941  0.5589 -0.5095  0.4717
39835SOL    HW229436   0.131   2.055   7.931  0.0119 -1.3692  0.7249
39836SOL     OW29437   5.810  11.908   5.693  0.1582  0.4307  0.0221
39836SOL    HW129438   5.845  11.856   5.766  0.2251 -0.7348 -0.8215
39836SOL    HW229439   5.715  11.901   5.702  0.1526 -1.1510 -0.9709
39837SOL     OW29440   5.877  10.200  11.452 -0.1783 -0.6355  0.2328
39837SOL    HW129441   5.941  10.197  11.381  0.9074  0.4743  1.1112
39837SOL    HW229442   5.917  10.150  11.523 -1.3362 -1.8948  0.0331
39838SOL     OW29443   4.187   7.598  12.141  0.0975 -0.4480  0.2236
39838SOL    HW129444   4.129   7.640  12.077 -1.7921 -0.7252  1.6362
39838SOL    HW229445   4.259   7.563  12.089 -0.8024  0.2514 -1.5994
39839SOL     OW29446  12.005   4.572   6.518 -0.4008 -0.2028 -0.0221
39839SOL    HW129447  11.937   4.552   6.454  0.0599 -0.4165 -0.4569
39839SOL    HW229448  11.961   4.566   6.603 -1.0103  0.0582 -0.3191
39840SOL     OW29449  10.643  10.650  11.802  0.1337  0.5757  0.2431
39840SOL    HW129450  10.617  10.719  11.863  0.0582  0.5913  0.1936
39840SOL    HW229451  10.669  10.697  11.722 -0.0986  0.5398  0.1433
39841SOL     OW29452  12.284   4.038   6.799  0.3062 -0.3207  0.4325
39841SOL    HW129453  12.377   4.063   6.797 -0.0144  1.0580  1.3443
39841SOL    HW229454  12.284   3.946   6.774  1.8061 -0.0611 -0.7438
39842SOL     OW29455   5.435   3.361   4.696  0.3127  0.2767 -0.3058
39842SOL    HW129456   5.381   3.391   4.770 -0.1134 -0.2971 -0.3745
39842SOL    HW229457   5.512   3.417   4.699  0.9388 -0.6019  1.3988
39843SOL     OW29458   3.071  11.041  10.298  0.2348  0.1472 -0.0501
39843SOL    HW129459   3.064  10.961  10.247 -0.4454 -0.7305  1.3528
39843SOL    HW229460   3.153  11.032  10.346  0.2543  0.3841 -0.0385
39844SOL     OW29461   0.617   7.087   9.900 -0.4972 -0.3255  0.1652
39844SOL    HW129462   0.679   7.112   9.968 -1.6745  3.1197  0.1549
39844SOL    HW229463   0.665   7.102   9.818 -1.1598  2.3380  0.1568
39845SOL     OW29464   7.719  12.314   6.609  0.4365 -0.6695 -0.1632
39845SOL    HW129465   7.667  12.245   6.650  0.0786 -0.1670  0.2246
39845SOL    HW229466   7.803  12.271   6.590 -0.4186 -1.7811 -1.6982
39846SOL     OW29467   3.077   4.738   3.601  0.0701 -0.0759  0.1459
39846SOL    HW129468   3.144   4.750   3.668  0.3589  0.2359 -0.1901
39846SOL    HW229469   3.038   4.825   3.590  0.7555  0.1280 -0.8371
39847SOL     OW29470   2.342   9.592   3.278 -0.1698  0.6978  0.7840
39847SOL    HW129471   2.258   9.585   3.232  0.6484 -1.5720 -0.4930
39847SOL    HW229472   2.328   9.545   3.360 -0.5525  1.6428  1.2828
39848SOL     OW29473   3.070   6.877  10.158  0.2397  0.3521 -0.2108
39848SOL    HW129474   3.090   6.821  10.233 -0.8856 -2.0569 -1.5893
39848SOL    HW229475   3.151   6.880  10.108  0.4022  0.2596  0.0466
39849SOL     OW29476   8.017   1.488  13.012 -0.9650 -0.0891  0.1982
39849SOL    HW129477   7.932   1.471  12.973 -1.0305  1.5396 -0.4625
39849SOL    HW229478   8.081   1.464  12.945 -0.9754  0.1588  0.0970
39850SOL     OW29479   5.950   6.213   5.102  0.2479  0.1194  0.1860
39850SOL    HW129480   5.989   6.127   5.084 -0.5473  0.1443 -1.8390
39850SOL    HW229481   5.913   6.204   5.190  1.3588 -1.1510  0.5638
39851SOL     OW29482   3.783  10.471   8.701 -0.0419  0.0334  0.3149
39851SOL    HW129483   3.767  10.386   8.742 -0.9892  0.5788  1.1021
39851SOL    HW229484   3.697  10.500   8.671  0.7760 -1.1593 -3.8123
39852SOL     OW29485   1.575   9.065   0.585 -0.1324 -0.0722 -0.0507
39852SOL    HW129486   1.551   9.110   0.666  1.9344 -0.8218  1.0581
39852SOL    HW229487   1.536   8.978   0.594  2.5802 -1.2672  1.7189
39853SOL     OW29488  12.062   2.016   0.423  0.0677  0.5202  0.1058
39853SOL    HW129489  12.062   2.058   0.509 -1.8927 -0.3431  0.5705
39853SOL    HW229490  12.007   1.939   0.433  2.0782 -1.2067 -1.2109
39854SOL     OW29491  12.951   9.166   8.043  0.5156  0.3848 -0.1438
39854SOL    HW129492  12.911   9.091   7.999 -0.5121  0.0990  1.2058
39854SOL    HW229493  13.035   9.133   8.074  0.8338  0.3165 -1.0599
39855SOL     OW29494   4.534   3.961   1.625  0.0303 -0.3147  0.5014
39855SOL    HW129495   4.472   3.929   1.690 -0.0956  0.7303  0.9175
39855SOL    HW229496   4.619   3.958   1.670  0.1804 -1.0348  0.1858
39856SOL     OW29497  11.740   4.176   9.400  0.1657 -0.1225  0.3303
39856SOL    HW129498  11.648   4.200   9.387  0.2969 -0.4394 -1.4478
39856SOL    HW229499  11.782   4.256   9.430 -0.3888  0.4750 -0.4449
39857SOL     OW29500   9.022   3.118   3.471 -0.4585 -0.2358 -0.2965
39857SOL    HW129501   9.070   3.036   3.468 -2.3586 -1.4172  0.0046
39857SOL    HW229502   9.077   3.176   3.524  0.7480 -1.3982 -0.2205
39858SOL     OW29503   0.440   3.218   7.139  0.2546  0.1746  0.7887
39858SOL    HW129504   0.350   3.223   7.172 -0.5809  0.1774 -1.3348
39858SOL    HW229505   0.494   3.243   7.214 -1.5478  1.0015  1.8899
39859SOL     OW29506  10.256   0.936   0.362 -0.2664 -0.3216  0.1726
39859SOL    HW129507  10.169   0.899   0.347 -0.6680  0.7789 -0.3974
39859SOL    HW229508  10.314   0.885   0.306 -0.6432 -0.6856  0.1077
39860SOL     OW29509   8.859   7.467   9.532  0.5748 -0.0809  0.3594
39860SOL    HW129510   8.837   7.458   9.625 -0.6158 -0.1457  0.0902
39860SOL    HW229511   8.851   7.561   9.515 -0.1394 -0.1748  0.1226
39861SOL     OW29512   5.176   7.717   7.152 -0.0517  0.2260 -0.5511
39861SOL    HW129513   5.145   7.807   7.155 -3.2383 -0.7635 -0.3261
39861SOL    HW229514   5.172   7.693   7.059 -3.5166 -0.8859 -0.2606
39862SOL     OW29515   8.678   1.944  12.963 -0.5018 -0.0398 -0.0698
39862SOL    HW129516   8.713   2.012  13.021 -1.6753  0.8563 -0.3760
39862SOL    HW229517   8.587   1.933  12.991 -0.3899 -1.3762 -0.1494
39863SOL     OW29518   0.530   2.056   6.436  0.4909 -0.1591 -0.3575
39863SOL    HW129519   0.601   2.052   6.500  0.1869  0.9104  0.0647
39863SOL    HW229520   0.476   1.979   6.454  0.4597  0.0842  0.6171
39864SOL     OW29521   7.824   2.591   1.482  0.3663 -0.1065  0.2871
39864SOL    HW129522   7.750   2.634   1.526 -0.3394 -2.1243  1.1606
39864SOL    HW229523   7.819   2.623   1.391 -0.7925  0.7658  0.6282
39865SOL     OW29524   0.855  10.232   1.780  0.2181  0.0925  0.2585
39865SOL    HW129525   0.949  10.244   1.765 -0.0854  1.0998 -1.0658
39865SOL    HW229526   0.834  10.291   1.852  0.5903 -0.1378  0.5613
39866SOL     OW29527   7.300   8.709   9.141  0.4434  0.0753  0.3022
39866SOL    HW129528   7.216   8.742   9.172 -0.4012 -2.7004  1.3278
39866SOL    HW229529   7.353   8.698   9.220  1.4912  0.9618 -0.2415
39867SOL     OW29530   2.521  12.554   0.409 -0.3427  0.2590 -0.4712
39867SOL    HW129531   2.539  12.463   0.433 -0.3608 -0.2557 -2.2921
39867SOL    HW229532   2.435  12.551   0.368 -0.5676  1.2070 -0.0928
39868SOL     OW29533  10.737   7.091   8.541 -0.5596 -0.0642 -0.2767
39868SOL    HW129534  10.705   7.074   8.630  0.2451 -1.1408 -0.1729
39868SOL    HW229535  10.806   7.156   8.553  0.8315 -1.5474  0.1541
39869SOL     OW29536   2.608   6.951   6.179 -0.4502 -0.0291  0.1544
39869SOL    HW129537   2.664   6.957   6.101  0.8597  2.1837  1.1803
39869SOL    HW229538   2.655   6.891   6.237 -1.9273 -2.5027 -1.0432
39870SOL     OW29539  10.053   3.719   3.715  0.1683 -0.2212 -0.3642
39870SOL    HW129540  10.092   3.770   3.787  0.7144  0.5062 -1.1567
39870SOL    HW229541  10.046   3.630   3.751 -0.8568  0.3943  1.0592
39871SOL     OW29542   2.948  10.116   7.747 -0.2675 -0.6970  0.1648
39871SOL    HW129543   2.880  10.126   7.813  0.8085 -2.5301  1.6347
39871SOL    HW229544   2.973  10.206   7.724 -1.6263 -0.0217  1.1841
39872SOL     OW29545   2.981   8.127   1.294 -0.1133  0.5217 -0.0806
39872SOL    HW129546   2.994   8.108   1.387 -1.4742  1.0623  0.2421
39872SOL    HW229547   3.057   8.180   1.269  1.0323 -0.8688  0.3222
39873SOL     OW29548   5.773   1.606   2.095  0.4586 -0.0629  0.4401
39873SOL    HW129549   5.798   1.687   2.051  1.8412 -0.6990  0.0106
39873SOL    HW229550   5.684   1.589   2.064  0.4804  0.8369 -0.1422
39874SOL     OW29551  12.956   6.593   8.119  0.1616  0.2572 -0.0515
39874SOL    HW129552  12.916   6.678   8.135 -2.0948 -0.7235 -0.1437
39874SOL    HW229553  12.890   6.544   8.070  1.5014 -1.4850 -0.2261
39875SOL     OW29554   4.700  13.061   0.291  0.1752  0.0001 -0.4034
39875SOL    HW129555   4.777  13.101   0.333 -0.5159  1.0193 -0.0714
39875SOL    HW229556   4.717  12.967   0.296  1.0225  0.1736  0.4065
39876SOL     OW29557   2.507   6.754   6.867 -0.1249 -0.2576  0.0859
39876SOL    HW129558   2.451   6.769   6.791  1.7427  1.4980 -1.0553
39876SOL    HW229559   2.463   6.799   6.939 -0.9403 -0.2539 -0.4102
39877SOL     OW29560   6.129   8.455   6.569 -0.4593  0.1640  0.0131
39877SOL    HW129561   6.085   8.385   6.521 -1.2860 -0.4325  1.5352
39877SOL    HW229562   6.222   8.436   6.559 -0.6644 -1.2478  0.4683
39878SOL     OW29563   0.970   2.124   1.720  0.2720  0.2456 -0.8320
39878SOL    HW129564   0.997   2.039   1.754  0.1251  0.6334  0.2869
39878SOL    HW229565   1.035   2.185   1.753 -1.0503  0.9572  0.6107
39879SOL     OW29566   7.337  11.779  13.098  0.2500 -0.3173  0.1971
39879SOL    HW129567   7.291  11.724  13.035  2.9765 -2.9497  0.2961
39879SOL    HW229568   7.268  11.809  13.158 -1.7184 -1.6357 -1.2559
39880SOL     OW29569   3.142   7.941   6.499  0.7152 -0.0469 -0.3053
39880SOL    HW129570   3.165   7.853   6.468 -1.5153 -0.6047 -0.5630
39880SOL    HW229571   3.089   7.978   6.429 -0.4103  0.5479  0.8137
39881SOL     OW29572  13.145   2.960   4.540  0.0427 -0.3399 -0.1695
39881SOL    HW129573  13.202   3.014   4.485 -0.0329 -1.0188 -0.9248
39881SOL    HW229574  13.056   2.985   4.514  0.0080 -1.1125 -0.8139
39882SOL     OW29575   5.447   4.198   5.422 -0.5635 -0.4001 -1.1628
39882SOL    HW129576   5.464   4.210   5.515  2.1258  2.2864 -1.8606
39882SOL    HW229577   5.520   4.144   5.391 -0.6293 -0.0392 -1.9681
39883SOL     OW29578   5.076   6.755  12.485  0.6097 -0.3404  0.4289
39883SOL    HW129579   5.147   6.814  12.511  0.6607 -0.4649  0.5744
39883SOL    HW229580   5.097   6.729  12.395  0.3097  0.2766  0.1744
39884SOL     OW29581   6.615   2.936   2.424 -0.0850  0.2231 -0.4082
39884SOL    HW129582   6.613   2.972   2.336 -1.1257  1.1848 -0.0047
39884SOL    HW229583   6.544   2.980   2.470  0.9344  0.3398  1.1404
39885SOL     OW29584   3.897   7.010   0.312 -0.3958  0.4335  0.6389
39885SOL    HW129585   3.953   7.064   0.255 -0.8350 -0.3489 -0.5670
39885SOL    HW229586   3.879   7.067   0.387 -0.2029  1.6912 -0.2258
39886SOL     OW29587   3.902   1.240   2.928 -0.1726 -0.2597 -0.1684
39886SOL    HW129588   3.817   1.265   2.890  0.1756 -0.1887 -0.9118
39886SOL    HW229589   3.933   1.169   2.873 -0.1729 -0.9207  0.6719
39887SOL     OW29590   3.784   8.117  11.689  0.3881  0.0456  0.5485
39887SOL    HW129591   3.849   8.103  11.758  0.1454  0.1946  0.8090
39887SOL    HW229592   3.759   8.028  11.661 -0.2061 -0.0346  1.3088
39888SOL     OW29593   4.727   1.489   3.043  0.4169  0.4265  0.1462
39888SOL    HW129594   4.762   1.491   2.954 -0.2889 -0.4982 -0.1645
39888SOL    HW229595   4.747   1.400   3.074 -1.5216 -0.0903  0.0025
39889SOL     OW29596  11.636   1.928   4.475 -0.4485 -0.0548 -0.8170
39889SOL    HW129597  11.727   1.913   4.499 -0.8150  1.2055  1.6446
39889SOL    HW229598  11.636   2.014   4.432 -0.7046  0.9527  1.1073
39890SOL     OW29599   2.798   0.467   5.885  0.4242 -0.1201 -0.1912
39890SOL    HW129600   2.708   0.482   5.913  0.3208 -1.2517  0.1717
39890SOL    HW229601   2.847   0.543   5.917 -0.2550  0.0978  0.3451
39891SOL     OW29602   6.672   0.375  10.143  0.4078 -0.6422 -0.2112
39891SOL    HW129603   6.753   0.368  10.195 -0.1710  2.0091  1.2576
39891SOL    HW229604   6.686   0.451  10.087 -1.6491  1.0309  1.3835
39892SOL     OW29605   1.904   5.219   9.008 -0.4715 -0.1534  0.2667
39892SOL    HW129606   2.000   5.216   9.003 -0.4776  1.6610 -2.1246
39892SOL    HW229607   1.884   5.307   9.041 -1.3529 -0.6277  1.0624
39893SOL     OW29608  11.174   9.109  12.374 -0.3422  0.0099  0.2299
39893SOL    HW129609  11.100   9.134  12.318 -0.8221 -0.7634  0.5009
39893SOL    HW229610  11.138   9.108  12.462  0.1999  0.4016  0.4605
39894SOL     OW29611   2.895   6.989   9.400 -0.4242 -0.4671 -0.2981
39894SOL    HW129612   2.892   7.022   9.310 -0.7277 -1.8789 -0.8348
39894SOL    HW229613   2.986   6.964   9.413  0.0383  1.4385  0.4698
39895SOL     OW29614   2.857   3.464   7.698 -0.2837  0.0062 -0.3836
39895SOL    HW129615   2.871   3.521   7.622 -1.7490 -0.4087 -0.9920
39895SOL    HW229616   2.912   3.502   7.767  1.3871  0.1812 -1.7264
39896SOL     OW29617   7.917   5.958   3.581  0.1015  0.0449 -0.7593
39896SOL    HW129618   7.972   5.912   3.645 -0.8695 -1.7729 -1.1622
39896SOL    HW229619   7.874   6.027   3.632  0.8624 -0.0989  0.0977
39897SOL     OW29620   3.489   6.448  12.323 -0.2962  0.1249 -0.2474
39897SOL    HW129621   3.547   6.463  12.248  2.6587 -0.0248  1.8364
39897SOL    HW229622   3.500   6.526  12.378  0.5232 -1.2985  1.7173
39898SOL     OW29623   0.350   6.126   2.113 -0.2997  0.2306  0.4529
39898SOL    HW129624   0.364   6.115   2.207 -1.2422 -1.2948  0.4417
39898SOL    HW229625   0.385   6.213   2.094 -0.2409  0.6322  2.2365
39899SOL     OW29626  13.057   7.789   3.068  0.4787 -0.2103 -0.1045
39899SOL    HW129627  12.971   7.833   3.068 -0.1010 -1.3119 -0.3844
39899SOL    HW229628  13.069   7.760   2.978  1.0075 -0.3346  0.0059
39900SOL     OW29629   2.500  12.057   9.401  0.0853 -0.1036  0.1414
39900SOL    HW129630   2.532  12.084   9.315  0.3927 -0.5202  0.1190
39900SOL    HW229631   2.509  11.962   9.401  0.8647 -0.0508  0.9251
39901SOL     OW29632   3.377   1.879   1.615 -0.0163  0.0050  0.4397
39901SOL    HW129633   3.322   1.918   1.547  0.7012  0.0202 -0.1493
39901SOL    HW229634   3.443   1.946   1.634 -1.5543  0.9550  2.8615
39902SOL     OW29635   4.864   4.530  12.348 -0.2281  0.2254  0.1118
39902SOL    HW129636   4.823   4.444  12.357  1.3200 -0.4289  1.3688
39902SOL    HW229637   4.866   4.566  12.437 -0.1753  1.2412 -0.2834
39903SOL     OW29638  12.286   9.585   6.475 -0.8257 -0.6130 -0.1656
39903SOL    HW129639  12.304   9.679   6.485  0.0717 -0.8693  0.7034
39903SOL    HW229640  12.193   9.576   6.498 -0.5113 -0.1699  1.3565
39904SOL     OW29641   0.817  11.059   4.339  0.0647  0.1643  0.8272
39904SOL    HW129642   0.802  11.150   4.365  0.5513  0.5360 -0.1360
39904SOL    HW229643   0.906  11.058   4.306  0.4347 -0.9136  1.8057
39905SOL     OW29644   6.806   4.898   6.188 -0.1945  0.1305  0.3508
39905SOL    HW129645   6.896   4.908   6.220 -0.9332  3.4350  1.7823
39905SOL    HW229646   6.782   4.985   6.157 -3.5261 -0.1113  1.8890
39906SOL     OW29647   2.964   5.819   8.564  0.3686 -0.4952  0.2563
39906SOL    HW129648   2.970   5.759   8.489 -0.6042  0.7855 -0.8879
39906SOL    HW229649   2.892   5.785   8.616 -0.3656 -0.1968 -0.5378
39907SOL     OW29650  10.296   4.034  11.514 -0.9810  0.0318  0.0518
39907SOL    HW129651  10.265   4.123  11.495 -0.9102 -0.1032 -0.7244
39907SOL    HW229652  10.237   3.977  11.464 -1.6395 -0.4260  1.2952
39908SOL     OW29653   1.973   7.821   4.651 -0.1085 -0.0938 -0.6296
39908SOL    HW129654   2.057   7.778   4.635 -0.2918 -0.7403  0.0636
39908SOL    HW229655   1.963   7.882   4.578  1.2044  0.3804 -0.4325
39909SOL     OW29656   3.647  12.062   9.098 -0.2257 -0.1637 -0.2780
39909SOL    HW129657   3.558  12.086   9.122  0.2376  1.6273 -0.2187
39909SOL    HW229658   3.643  11.968   9.082 -2.0709 -0.1505 -0.0830
39910SOL     OW29659   3.419   9.347   5.671  0.2252  0.1148 -0.3855
39910SOL    HW129660   3.485   9.293   5.713 -1.0703 -1.5092 -0.3392
39910SOL    HW229661   3.358   9.369   5.741 -0.0914  0.3347 -0.7252
39911SOL     OW29662   0.223   5.216   4.172 -0.0852  0.1821  0.6076
39911SOL    HW129663   0.250   5.234   4.262  0.2996  2.0273  0.1683
39911SOL    HW229664   0.128   5.233   4.172 -0.2672 -0.7762  0.8660
39912SOL     OW29665  13.043   4.531   9.840 -0.0345 -0.5641  0.0424
39912SOL    HW129666  13.022   4.525   9.747  0.4419 -1.5047 -0.0141
39912SOL    HW229667  13.138   4.521   9.844 -0.0658 -0.6578  0.6434
39913SOL     OW29668   7.551  10.591   3.024 -0.8195  0.2868 -0.0380
39913SOL    HW129669   7.640  10.582   2.991 -0.0312 -4.7583  2.5882
39913SOL    HW229670   7.557  10.660   3.090  1.5834 -0.8980  1.0979
39914SOL     OW29671   4.920   1.095   9.461  0.0350  0.0700 -0.7626
39914SOL    HW129672   4.928   1.000   9.465  1.8623  0.1857 -0.8005
39914SOL    HW229673   4.860   1.117   9.533  1.1468 -0.9750  0.5468
39915SOL     OW29674   9.095   9.998   0.328 -0.2088 -0.2189  0.9062
39915SOL    HW129675   9.166  10.054   0.359  0.0287  1.3202 -2.0474
39915SOL    HW229676   9.026  10.059   0.301 -0.2204 -1.3085 -1.8068
39916SOL     OW29677   5.853   7.675   3.060 -0.2473 -0.4467 -0.0217
39916SOL    HW129678   5.905   7.654   2.983  0.4802  1.0927  0.0104
39916SOL    HW229679   5.918   7.692   3.129 -0.7390  1.5558  0.0089
39917SOL     OW29680   0.800  11.622  11.206  0.1875  0.0788 -0.1854
39917SOL    HW129681   0.851  11.556  11.159  1.4491  1.7485 -1.3051
39917SOL    HW229682   0.861  11.695  11.216 -0.9979  0.8847  1.4758
39918SOL     OW29683   8.788  10.886  11.608 -0.5628 -0.5873 -0.3028
39918SOL    HW129684   8.709  10.848  11.568 -0.1950  0.2832 -1.9207
39918SOL    HW229685   8.856  10.821  11.593 -0.7861 -1.0345  0.5031
39919SOL     OW29686   8.372   5.960  11.452  0.5874  0.3150  0.0357
39919SOL    HW129687   8.426   5.998  11.521 -0.7681 -0.3322  1.5084
39919SOL    HW229688   8.366   5.867  11.474  0.3986  0.0214 -1.1563
39920SOL     OW29689   2.056   4.386   6.031 -0.3768  0.3608  0.2405
39920SOL    HW129690   2.026   4.312   6.084  0.3386  0.9528  1.5077
39920SOL    HW229691   2.003   4.460   6.061 -0.1057  0.6600 -0.0090
39921SOL     OW29692   1.733   4.767   7.272 -0.1139 -0.6834  0.2312
39921SOL    HW129693   1.797   4.836   7.292  0.4504 -1.3443  0.7484
39921SOL    HW229694   1.742   4.705   7.344 -0.8232 -1.1575 -0.0835
39922SOL     OW29695   2.525   6.927   3.301 -0.0982 -0.5756 -0.6915
39922SOL    HW129696   2.474   6.846   3.307 -1.0559  0.0805  0.4302
39922SOL    HW229697   2.479   6.988   3.358  0.1837  0.9841 -2.0557
39923SOL     OW29698  12.621   6.322   0.620  0.3807 -0.0044  0.3373
39923SOL    HW129699  12.648   6.319   0.712  0.4292 -0.1208  0.3195
39923SOL    HW229700  12.673   6.254   0.578  1.2528  0.8596 -0.0104
39924SOL     OW29701   8.838   5.254   0.095 -0.2177  0.4831 -0.2207
39924SOL    HW129702   8.884   5.328   0.057  0.1580 -0.4744 -1.7274
39924SOL    HW229703   8.867   5.179   0.043  0.6932 -1.0128  2.2641
39925SOL     OW29704   6.576   2.945   3.140 -0.2581 -0.1598 -0.0156
39925SOL    HW129705   6.541   2.865   3.178  0.9573 -0.0157  1.4553
39925SOL    HW229706   6.520   3.014   3.174  0.5590 -0.0785  1.2022
39926SOL     OW29707   2.058   9.401   5.263 -0.3426  0.5324  0.2723
39926SOL    HW129708   2.133   9.357   5.225  0.4673  0.2925  2.0457
39926SOL    HW229709   1.995   9.331   5.281  0.5407  0.1533  2.1632
39927SOL     OW29710   9.756   8.041   1.299  0.5977  0.5326 -0.6650
39927SOL    HW129711   9.780   7.985   1.226  1.4612  1.7629 -1.3655
39927SOL    HW229712   9.838   8.052   1.349  0.0229 -0.2936  0.5205
39928SOL     OW29713   7.379   6.920   4.023 -0.0852  0.2286 -0.0829
39928SOL    HW129714   7.363   7.002   3.976  1.9317  0.8294  0.1832
39928SOL    HW229715   7.415   6.861   3.957 -0.1344  0.0516  0.0462
39929SOL     OW29716  12.030   9.462   6.609  0.3080 -0.2339 -0.1277
39929SOL    HW129717  12.015   9.377   6.649  0.6305 -0.5481 -0.6517
39929SOL    HW229718  12.018   9.525   6.680 -0.8679 -0.6384  0.0641
39930SOL     OW29719   8.393   9.731  12.662  0.6543 -0.3179  0.2881
39930SOL    HW129720   8.338   9.807  12.643  1.3661  0.1384  0.0348
39930SOL    HW229721   8.467   9.767  12.711 -0.3598 -1.2289  2.6718
39931SOL     OW29722   3.709  13.131   1.594 -0.0091 -0.0213 -0.1596
39931SOL    HW129723   3.670  13.044   1.582  1.5523 -0.5805 -1.6197
39931SOL    HW229724   3.647  13.192   1.555 -0.6919 -0.5755  0.0431
39932SOL     OW29725   2.235   1.707   9.964 -0.2825 -1.0642  0.2813
39932SOL    HW129726   2.148   1.668   9.954 -1.2044  0.7537  0.7135
39932SOL    HW229727   2.234   1.743  10.053  0.4666 -0.0057 -0.1243
39933SOL     OW29728   2.247  11.893  10.578 -0.6528 -0.3926  0.4716
39933SOL    HW129729   2.250  11.911  10.484 -0.2418 -0.0078  0.5565
39933SOL    HW229730   2.194  11.813  10.585  1.0273 -1.6227 -0.2537
39934SOL     OW29731  10.367   2.454   3.220 -0.4265 -0.2149 -0.3846
39934SOL    HW129732  10.380   2.514   3.147 -0.2476  2.1084  1.4344
39934SOL    HW229733  10.410   2.497   3.294 -0.6811 -2.4075  1.1389
39935SOL     OW29734   6.363  11.003   5.519  0.1120  0.2982 -0.6620
39935SOL    HW129735   6.397  10.957   5.441  2.0977 -0.3502  0.5073
39935SOL    HW229736   6.349  11.093   5.489  0.3286 -0.0617 -1.9125
39936SOL     OW29737   7.816   6.701   3.316 -0.0916 -0.4285  0.5977
39936SOL    HW129738   7.876   6.769   3.347  1.2061  0.1029 -2.7292
39936SOL    HW229739   7.871   6.623   3.308 -0.0245 -0.2131 -1.4590
39937SOL     OW29740   2.668   1.243   5.739 -0.0857 -0.9159 -0.1600
39937SOL    HW129741   2.752   1.202   5.717 -1.2361 -2.4288 -2.0009
39937SOL    HW229742   2.606   1.207   5.676 -1.6127  2.2401 -0.6411
39938SOL     OW29743  12.877   5.594   0.867  0.0138 -0.5314 -0.5848
39938SOL    HW129744  12.944   5.579   0.801  0.0835 -2.2526 -0.1731
39938SOL    HW229745  12.802   5.543   0.838  0.3585 -2.0824  1.0820
39939SOL     OW29746  13.155   7.874   1.871  0.1491  0.3027 -0.0273
39939SOL    HW129747  13.238   7.843   1.908  0.5738  0.3167 -0.9519
39939SOL    HW229748  13.180   7.935   1.802 -0.6508  0.8211  0.1257
39940SOL     OW29749   1.542   1.153   0.742  0.1999 -0.4643  0.2332
39940SOL    HW129750   1.579   1.179   0.826 -0.3536  2.1013 -0.2325
39940SOL    HW229751   1.618   1.137   0.686  0.6883  1.7428  0.1585
39941SOL     OW29752   9.165   6.802  13.021 -0.0790 -0.0208  0.0335
39941SOL    HW129753   9.095   6.738  13.008 -0.1744 -0.2103  1.2907
39941SOL    HW229754   9.152   6.834  13.111 -0.3611  2.1728 -0.7332
39942SOL     OW29755   8.961  12.605  10.839  0.0584  0.0205  0.3769
39942SOL    HW129756   9.055  12.625  10.838  0.0385  0.1550 -1.5748
39942SOL    HW229757   8.921  12.674  10.787 -0.9833 -0.6885  0.2073
39943SOL     OW29758   9.349   7.309   0.004 -0.4612 -0.5198 -0.0808
39943SOL    HW129759   9.352   7.218   0.035  0.0117 -1.0101 -1.5105
39943SOL    HW229760   9.400   7.358   0.069  0.7052 -1.5538 -0.1850
39944SOL     OW29761   5.361   2.495  12.082 -0.7909  0.1912 -0.2753
39944SOL    HW129762   5.414   2.553  12.028  0.4850 -0.0993  0.6166
39944SOL    HW229763   5.370   2.531  12.171 -1.8748 -0.0302 -0.0640
39945SOL     OW29764   3.361  10.594   3.328  0.5714  0.4404  0.2374
39945SOL    HW129765   3.388  10.506   3.352 -0.8525 -0.3782 -0.9560
39945SOL    HW229766   3.377  10.599   3.233 -2.0549  0.3330 -0.3070
39946SOL     OW29767   6.963   7.684   8.876 -0.2425 -0.0118  0.0018
39946SOL    HW129768   6.959   7.629   8.798 -2.7334  1.3352 -0.9367
39946SOL    HW229769   6.877   7.724   8.881 -0.0839  0.1545  3.3605
39947SOL     OW29770   1.148   4.262   9.881 -0.2771 -0.2680 -0.1226
39947SOL    HW129771   1.209   4.275   9.953 -1.4956  1.4044  0.6960
39947SOL    HW229772   1.066   4.238   9.923 -1.6781  3.0186 -0.6028
39948SOL     OW29773  10.056  13.193  12.872 -0.3512 -0.1588 -0.5037
39948SOL    HW129774  10.003  13.229  12.801 -0.9249 -2.6299 -1.4562
39948SOL    HW229775  10.021  13.105  12.885  1.4008 -0.6793  1.1251
39949SOL     OW29776  10.356   3.002   3.664 -0.0119  0.2092 -0.3187
39949SOL    HW129777  10.271   2.990   3.621 -0.5840  0.7619  0.6304
39949SOL    HW229778  10.334   3.021   3.755  1.0293  2.7390 -0.5229
39950SOL     OW29779   5.274   8.975   5.382 -0.1052 -0.1083  0.6750
39950SOL    HW129780   5.208   9.041   5.361 -0.9291 -0.9664  0.5178
39950SOL    HW229781   5.251   8.899   5.329  3.7816  1.0162 -3.1688
39951SOL     OW29782   7.119   4.213   3.029  0.0839 -0.4398 -0.4333
39951SOL    HW129783   7.040   4.232   2.978 -0.2742 -0.4663  0.0907
39951SOL    HW229784   7.111   4.270   3.106  1.0060  0.1768 -0.7841
39952SOL     OW29785   9.310  11.502   3.769  0.1332  0.4111  0.2618
39952SOL    HW129786   9.269  11.459   3.845 -0.0472 -0.8880 -0.5344
39952SOL    HW229787   9.243  11.561   3.736 -0.6723 -0.7661 -0.2727
39953SOL     OW29788   3.314  11.667  10.227 -0.0517 -0.2888 -0.2828
39953SOL    HW129789   3.246  11.734  10.240  0.9951  0.8390 -0.4378
39953SOL    HW229790   3.270  11.598  10.177 -1.8385 -0.8699  1.9203
39954SOL     OW29791   4.212   6.361   4.048 -0.2978 -0.0615 -0.6278
39954SOL    HW129792   4.157   6.425   4.093 -0.0133 -0.4051  0.2288
39954SOL    HW229793   4.190   6.278   4.089  3.3113  0.1557  2.3404
39955SOL     OW29794   9.654   6.340   1.276 -0.3414  0.1618 -0.4348
39955SOL    HW129795   9.637   6.249   1.300 -0.8744  0.0274 -1.2797
39955SOL    HW229796   9.719   6.335   1.207  3.9419  0.6927  3.1293
39956SOL     OW29797   1.476   2.738   2.007 -0.4824 -0.6125 -0.0915
39956SOL    HW129798   1.513   2.697   2.085  0.2006 -0.3533 -0.2732
39956SOL    HW229799   1.529   2.817   1.994 -0.6895 -0.5730 -0.7286
39957SOL     OW29800   7.066  11.101   5.370 -0.0829 -0.6256 -0.1147
39957SOL    HW129801   7.035  11.125   5.283 -0.5087  0.8449  0.4131
39957SOL    HW229802   7.024  11.018   5.389 -1.0506 -0.2940 -0.7647
39958SOL     OW29803   5.832   0.757  10.652 -0.9616  0.2129  0.1332
39958SOL    HW129804   5.788   0.694  10.709  0.4227 -0.9037  0.0076
39958SOL    HW229805   5.881   0.813  10.711  2.4788 -2.4550  0.0992
39959SOL     OW29806  12.575   6.738   0.239 -0.1996  0.6669  0.4106
39959SOL    HW129807  12.615   6.683   0.307 -1.0482  0.4747  0.7641
39959SOL    HW229808  12.484   6.747   0.266 -0.0650  2.3453  0.4091
39960SOL     OW29809   2.935  13.015   2.107  0.1964 -0.0655  0.2315
39960SOL    HW129810   2.926  12.921   2.092  0.2104 -0.1889  0.9525
39960SOL    HW229811   2.944  13.053   2.020 -0.3366 -0.6769 -0.0938
39961SOL     OW29812   3.143   6.355  11.080 -0.4986 -0.1439  0.3486
39961SOL    HW129813   3.231   6.324  11.058 -0.7181 -0.3603 -0.2308
39961SOL    HW229814   3.096   6.277  11.107 -0.0850  0.1817  2.1583
39962SOL     OW29815   5.810   0.318  10.985 -0.0409  0.0089  0.2635
39962SOL    HW129816   5.746   0.320  10.913 -0.2875 -0.7431  0.4582
39962SOL    HW229817   5.894   0.305  10.941 -0.0740  0.4683  0.0484
39963SOL     OW29818  12.503   9.164   1.771  0.3581  0.2759 -0.0453
39963SOL    HW129819  12.515   9.073   1.798  0.8359  0.4986  0.5213
39963SOL    HW229820  12.592   9.198   1.758  0.1615  0.4153 -1.1293
39964SOL     OW29821   7.935  10.109  13.280  0.5977 -0.2793  0.5540
39964SOL    HW129822   7.941  10.142  13.370  0.9030 -1.2652  0.9027
39964SOL    HW229823   7.957  10.017  13.286  1.4790 -0.1780 -0.6783
39965SOL     OW29824   4.136  12.845  11.441 -0.0710 -0.1596 -0.0225
39965SOL    HW129825   4.228  12.867  11.428  0.5297 -1.8193  1.1769
39965SOL    HW229826   4.105  12.818  11.354  0.5096  0.5495 -0.4572
39966SOL     OW29827   5.778   4.615  12.005  0.0418  0.3931 -0.1282
39966SOL    HW129828   5.829   4.549  11.958 -1.5641 -0.4879 -0.6961
39966SOL    HW229829   5.698   4.570  12.030 -1.4647  2.3322 -1.2422
39967SOL     OW29830   1.285   8.894   4.748  0.0223 -0.3245 -0.1279
39967SOL    HW129831   1.314   8.954   4.679 -0.6996 -0.2480 -0.3676
39967SOL    HW229832   1.223   8.836   4.705 -1.9182  0.9330  0.8601
39968SOL     OW29833   6.087   1.118   7.355 -0.1215 -0.1762  0.3487
39968SOL    HW129834   6.071   1.145   7.265 -0.3133 -0.3860  0.3196
39968SOL    HW229835   6.001   1.093   7.388 -0.0635 -0.0272  0.6141
39969SOL     OW29836   3.787   0.832   1.912 -0.5142  0.2100  0.6660
39969SOL    HW129837   3.761   0.918   1.946  0.5484  1.3524 -1.2661
39969SOL    HW229838   3.749   0.828   1.825  0.6214 -0.6850  0.1855
39970SOL     OW29839   4.442   7.619   1.776  0.0875 -0.3182  0.4732
39970SOL    HW129840   4.359   7.583   1.744  0.8923  0.0056 -2.2244
39970SOL    HW229841   4.442   7.709   1.745  0.2082  0.6358  3.0269
39971SOL     OW29842   2.068   8.187   1.026 -0.3498  0.4686 -0.2612
39971SOL    HW129843   2.110   8.262   1.068 -0.0888  1.4951 -2.2247
39971SOL    HW229844   1.977   8.192   1.054  0.3149 -0.5426  2.3470
39972SOL     OW29845   3.886   2.872   8.199  0.3375  0.4421  0.2439
39972SOL    HW129846   3.823   2.819   8.248  0.4118  0.9449  0.9078
39972SOL    HW229847   3.834   2.918   8.133 -0.3375  2.2352  1.9146
39973SOL     OW29848   6.128   1.483   2.300  0.1954 -0.1825 -0.0037
39973SOL    HW129849   6.058   1.509   2.360  0.9056  2.1464 -0.0866
39973SOL    HW229850   6.207   1.523   2.336  1.2988 -1.8168 -0.5278
39974SOL     OW29851  12.181  11.429   0.267 -0.4719 -0.5207  0.3828
39974SOL    HW129852  12.205  11.412   0.358 -0.2266 -1.9844  0.0648
39974SOL    HW229853  12.255  11.396   0.216 -1.7844 -2.2839 -0.4695
39975SOL     OW29854   4.805   7.136   2.290  0.3855  0.2416 -0.0442
39975SOL    HW129855   4.898   7.141   2.311  0.1422 -1.3805  1.6533
39975SOL    HW229856   4.803   7.123   2.195  1.9787 -1.2017  0.0682
39976SOL     OW29857   6.628   3.060  12.709  0.2089 -0.7535  0.2714
39976SOL    HW129858   6.653   3.152  12.699 -1.0933  0.0255  3.1148
39976SOL    HW229859   6.534   3.059  12.694 -0.1596 -1.1658  2.3216
39977SOL     OW29860  12.734  11.802   8.672  0.1650  0.1485  0.1841
39977SOL    HW129861  12.692  11.723   8.708  1.0595 -0.8747 -0.9116
39977SOL    HW229862  12.820  11.804   8.713  0.2189  0.4420  0.0589
39978SOL     OW29863  12.892   9.694  13.141 -0.2880 -0.1200  0.5224
39978SOL    HW129864  12.907   9.773  13.193 -1.1779 -0.8115  1.9160
39978SOL    HW229865  12.952   9.629  13.178 -0.6602 -0.5174  0.4392
39979SOL     OW29866   3.422   2.491   5.518 -0.0011 -0.2655  0.5327
39979SOL    HW129867   3.502   2.488   5.466  0.1030 -1.8276  0.7225
39979SOL    HW229868   3.452   2.499   5.608 -0.1114  0.3645  0.5174
39980SOL     OW29869   1.527   0.299   1.339 -0.0267 -0.3009  0.0122
39980SOL    HW129870   1.497   0.358   1.409  0.8809 -0.0763  0.2181
39980SOL    HW229871   1.470   0.223   1.347 -1.4419  0.6545 -0.4609
39981SOL     OW29872   1.241   3.094  12.000  0.4340 -0.6578  0.0646
39981SOL    HW129873   1.181   3.089  12.075  0.8631  0.1609  0.4795
39981SOL    HW229874   1.194   3.148  11.936  0.9548  0.5354  0.6449
39982SOL     OW29875  12.360   0.047   9.358 -0.1305 -0.5681  0.0849
39982SOL    HW129876  12.337   0.036   9.450 -1.6815  0.5523 -0.1434
39982SOL    HW229877  12.326   0.133   9.334 -1.3985 -1.5774 -2.0223
39983SOL     OW29878   1.814   6.776   4.566 -0.1730  0.4044  0.0940
39983SOL    HW129879   1.753   6.768   4.493  1.1532 -0.1836 -0.9920
39983SOL    HW229880   1.841   6.868   4.564  0.6395  0.1591 -0.8279
39984SOL     OW29881   1.678   1.334  11.038  0.1998 -0.1141  0.2054
39984SOL    HW129882   1.633   1.256  11.005 -2.0744  1.8740 -1.6952
39984SOL    HW229883   1.608   1.394  11.063  1.8583  1.7183  0.6796
39985SOL     OW29884   9.507   8.707   7.448  0.2594 -0.1884  0.4849
39985SOL    HW129885   9.429   8.764   7.451  0.9469  0.7192  1.8936
39985SOL    HW229886   9.581   8.768   7.453  1.0420 -1.1458  0.7164
39986SOL     OW29887   5.827  11.518   3.668 -0.3706 -0.2865  0.0442
39986SOL    HW129888   5.869  11.529   3.753 -1.1879  1.1069  0.2956
39986SOL    HW229889   5.876  11.574   3.608 -0.7386 -0.0634 -0.0553
39987SOL     OW29890  11.805   3.689   9.722  0.3123  0.5439 -0.3662
39987SOL    HW129891  11.864   3.620   9.691  0.3100 -1.4001  3.3228
39987SOL    HW229892  11.717   3.655   9.705  0.2934  0.9283 -1.0342
39988SOL     OW29893  11.298  10.331   4.480 -0.2326 -0.0632  0.0249
39988SOL    HW129894  11.329  10.417   4.451 -0.3490 -0.2798 -0.7639
39988SOL    HW229895  11.283  10.342   4.574 -1.6355  1.2060 -0.2956
39989SOL     OW29896   1.167   4.139   5.089 -0.9086  0.6333 -0.2623
39989SOL    HW129897   1.221   4.129   5.011 -1.1042 -0.9569 -0.2244
39989SOL    HW229898   1.127   4.053   5.102  0.1389  0.4535  2.3413
39990SOL     OW29899   0.563   2.605   7.046 -0.1527  0.3700 -0.5707
39990SOL    HW129900   0.642   2.551   7.054 -0.6558 -0.2261  0.5091
39990SOL    HW229901   0.595   2.687   7.007  1.1254  0.4202  0.5059
39991SOL     OW29902  10.909  11.618   2.040  0.1103  0.3172  0.0133
39991SOL    HW129903  10.905  11.646   2.132  1.0788 -0.1355  0.2042
39991SOL    HW229904  10.996  11.643   2.011  0.0341 -0.1064 -0.5990
39992SOL     OW29905   5.495   6.410   0.632 -0.1531 -0.2123  0.0583
39992SOL    HW129906   5.441   6.393   0.555 -1.2055  0.6651  0.5665
39992SOL    HW229907   5.539   6.327   0.651  0.1609 -0.4258 -1.4970
39993SOL     OW29908   0.638   5.944  12.173  0.2638  1.0287 -0.3215
39993SOL    HW129909   0.608   6.009  12.236  0.8501  0.2772  0.7735
39993SOL    HW229910   0.728   5.925  12.199 -0.0643 -0.6021 -0.2502
39994SOL     OW29911   3.121  10.570   6.064 -0.4549  0.2843  0.2276
39994SOL    HW129912   3.105  10.652   6.111  1.1794  0.0822  1.2016
39994SOL    HW229913   3.197  10.589   6.009  0.0086 -0.5960  0.5458
39995SOL     OW29914   4.967   2.557   3.971  0.7756 -0.0398 -0.2344
39995SOL    HW129915   5.027   2.499   4.017  0.4212 -0.4792 -0.3161
39995SOL    HW229916   4.880   2.528   4.000  0.6039  0.6066 -0.0906
39996SOL     OW29917   1.450   8.133   3.427 -0.0046  0.1369  0.2293
39996SOL    HW129918   1.399   8.213   3.433 -1.0308 -0.5550  1.2851
39996SOL    HW229919   1.473   8.125   3.334 -1.0528  0.9456 -0.1161
39997SOL     OW29920   0.260   5.992   5.452  0.2408 -0.3389  0.4533
39997SOL    HW129921   0.227   6.003   5.363  0.6673 -0.2197  0.3097
39997SOL    HW229922   0.184   6.011   5.508  0.0417 -0.1577  0.1263
39998SOL     OW29923   7.810   5.214  11.636  0.8246 -0.6522 -0.3733
39998SOL    HW129924   7.869   5.140  11.654 -1.7605 -2.4487  1.5039
39998SOL    HW229925   7.805   5.261  11.719 -0.6320 -0.7586 -0.3855
39999SOL     OW29926   9.346   9.213  10.031  0.3881 -0.2204  0.0739
39999SOL    HW129927   9.305   9.298  10.013 -0.4669 -0.9586 -1.6204
39999SOL    HW229928   9.356   9.172   9.946  1.0533 -1.7265  0.8388
40000SOL     OW29929   5.914   9.756   9.247  0.1408  0.2224 -0.6783
40000SOL    HW129930   5.849   9.728   9.311  0.9935 -0.2178  0.0227
40000SOL    HW229931   5.992   9.705   9.269  1.3420  2.1831 -0.1928
40001SOL     OW29932   7.685   0.439  11.673  0.3096 -0.2989 -0.2139
40001SOL    HW129933   7.678   0.429  11.768  1.9509  0.8375  0.0680
40001SOL    HW229934   7.701   0.350  11.641  2.9427 -0.3669  0.9667
40002SOL     OW29935   0.435   1.950   0.493  0.3927  0.6109 -0.0105
40002SOL    HW129936   0.386   2.013   0.546 -0.0562  0.5980 -0.4036
40002SOL    HW229937   0.369   1.891   0.459  0.9020 -0.6745  1.1303
40003SOL     OW29938   2.417   1.582   6.864 -0.2301  0.1926 -0.1444
40003SOL    HW129939   2.460   1.502   6.835 -1.4020  0.5307 -3.1481
40003SOL    HW229940   2.422   1.641   6.788 -3.6377  1.1536  0.2139
40004SOL     OW29941   2.450   9.063  12.826  0.1150  0.0265  0.3937
40004SOL    HW129942   2.509   8.987  12.831  1.7428  1.2325  0.2556
40004SOL    HW229943   2.429   9.083  12.918  1.8574  0.9882  0.6314
40005SOL     OW29944  11.465  11.459   2.865  0.8544  0.3249  0.5087
40005SOL    HW129945  11.374  11.475   2.890  0.6427 -0.6788  0.4358
40005SOL    HW229946  11.484  11.372   2.901  1.0315 -0.5135 -1.4587
40006SOL     OW29947   2.667   2.435   7.369  0.2114  0.2667  0.2062
40006SOL    HW129948   2.607   2.415   7.297 -1.6458 -3.3161  2.4808
40006SOL    HW229949   2.732   2.494   7.330 -1.2801 -0.5543 -4.0602
40007SOL     OW29950  12.546  12.751   5.315 -0.1555  0.1212  0.1969
40007SOL    HW129951  12.542  12.769   5.409 -0.0605  1.0612  0.0250
40007SOL    HW229952  12.628  12.792   5.286  0.5884 -1.4295 -0.0385
40008SOL     OW29953   6.701   5.322  10.162  0.2666  0.3806  0.5520
40008SOL    HW129954   6.787   5.363  10.175  0.1192  0.4750  1.2526
40008SOL    HW229955   6.647   5.357  10.233 -0.5914  0.9464 -0.3572
40009SOL     OW29956   2.381   1.967  11.856 -0.0356 -0.2181 -0.8445
40009SOL    HW129957   2.395   2.059  11.877  1.8118 -0.8917  1.3102
40009SOL    HW229958   2.436   1.951  11.780  1.1995  0.0620 -0.0382
40010SOL     OW29959   8.566   2.526   2.385  0.5132 -0.0589  0.4217
40010SOL    HW129960   8.534   2.598   2.439  1.7636  1.1534 -0.3695
40010SOL    HW229961   8.548   2.553   2.295  1.9353 -0.2227  0.0601
40011SOL     OW29962   4.744  11.372   2.733  0.7535  0.0044 -0.1963
40011SOL    HW129963   4.673  11.417   2.778  1.1943 -0.1722  0.7121
40011SOL    HW229964   4.739  11.282   2.764 -0.2400 -0.6642 -2.1411
40012SOL     OW29965   5.974   7.182   6.987  0.1750 -0.3491  0.3623
40012SOL    HW129966   5.921   7.107   7.017 -0.1499 -0.6351 -0.8546
40012SOL    HW229967   5.977   7.241   7.062 -0.3726 -1.1561  1.0379
40013SOL     OW29968  12.269   5.867   6.942 -0.1312  0.3690 -0.3953
40013SOL    HW129969  12.359   5.849   6.968  0.1070  0.0997 -1.3938
40013SOL    HW229970  12.244   5.944   6.994  0.9467  0.9453 -0.7054
40014SOL     OW29971   7.528   2.050   1.239  0.5863 -0.2096 -0.0433
40014SOL    HW129972   7.608   2.048   1.291  0.0236  1.2010  0.9614
40014SOL    HW229973   7.531   2.134   1.193 -0.2134 -0.2155 -0.1296
40015SOL     OW29974   4.593   0.452   6.913  0.1366  0.0229  0.1527
40015SOL    HW129975   4.523   0.453   6.979  0.8034  2.1947  0.9122
40015SOL    HW229976   4.665   0.499   6.954  1.8685 -1.6407 -0.8498
40016SOL     OW29977   9.549   6.690   5.194 -0.2773  0.0030  0.1443
40016SOL    HW129978   9.517   6.618   5.140 -1.0161  0.9335 -0.6993
40016SOL    HW229979   9.473   6.747   5.206 -0.2857 -0.4466  2.6845
40017SOL     OW29980   3.264  12.713   1.950 -0.0764 -0.1200 -0.5179
40017SOL    HW129981   3.283  12.620   1.938 -0.4180  0.1059 -3.4423
40017SOL    HW229982   3.177  12.714   1.991  0.3563 -1.0374  0.5113
40018SOL     OW29983  10.953  12.907   3.231  0.1626  0.2535  0.4244
40018SOL    HW129984  10.905  12.895   3.313 -0.1381 -0.7765  0.1161
40018SOL    HW229985  10.951  13.001   3.216 -3.1745  0.1832 -0.3690
40019SOL     OW29986  11.493  13.201   4.617 -0.0038  0.2682  0.1546
40019SOL    HW129987  11.443  13.280   4.634 -0.2730  0.3258 -0.8350
40019SOL    HW229988  11.430  13.142   4.573  0.4360 -0.1512  0.0775
40020SOL     OW29989  10.315  11.420   8.085  0.4592 -0.0681 -0.6698
40020SOL    HW129990  10.347  11.391   8.000  1.2188  0.7294 -0.6738
40020SOL    HW229991  10.220  11.413   8.079  0.4612  0.6608 -1.8546
40021SOL     OW29992   2.551   6.350   0.570 -0.1934  0.2449 -0.2359
40021SOL    HW129993   2.529   6.307   0.487 -1.1614  1.8705 -0.8580
40021SOL    HW229994   2.536   6.282   0.636  0.8432 -1.1577 -1.3780
40022SOL     OW29995   5.866  10.388  12.024  0.2784  0.0891 -0.3401
40022SOL    HW129996   5.918  10.309  12.009 -0.6462 -0.4882 -0.5774
40022SOL    HW229997   5.790  10.378  11.967  0.4198  1.4292 -0.8056
40023SOL     OW29998   5.738   4.816   1.752 -0.0898  0.3448  0.1060
40023SOL    HW129999   5.780   4.782   1.673  1.8667  1.9722  0.3665
40023SOL    HW230000   5.678   4.884   1.719 -1.4996 -0.9799 -0.1538
40024SOL     OW30001  11.639   7.238   1.155 -0.1315 -0.2687 -0.0482
40024SOL    HW130002  11.589   7.165   1.118  0.1650  0.0580 -1.1320
40024SOL    HW230003  11.637   7.223   1.250 -2.5930 -0.0435 -0.0192
40025SOL     OW30004   0.823   3.632   8.894 -0.4075  0.5499  0.3279
40025SOL    HW130005   0.802   3.585   8.975 -0.5522  0.6344  0.3409
40025SOL    HW230006   0.799   3.571   8.824 -0.6696  0.6317  0.3432
40026SOL     OW30007   9.475  11.913  12.138 -0.1559 -0.1845  0.0565
40026SOL    HW130008   9.460  11.893  12.230 -2.8188 -0.7477 -0.4117
40026SOL    HW230009   9.524  11.838  12.105  0.5816 -0.1056  0.9334
40027SOL     OW30010   5.283   5.817   7.144  0.0611  0.4718 -0.2986
40027SOL    HW130011   5.333   5.895   7.120 -0.2876  0.1821 -2.0807
40027SOL    HW230012   5.340   5.744   7.124 -0.2042  0.2198 -0.1394
40028SOL     OW30013  11.451  11.551   3.885  0.3547 -0.4129 -0.4459
40028SOL    HW130014  11.400  11.585   3.958  0.8014 -0.7977  0.0576
40028SOL    HW230015  11.392  11.556   3.810  0.2643  1.0573 -0.3069
40029SOL     OW30016   9.719  11.370   9.112  0.1061 -0.3721 -0.5348
40029SOL    HW130017   9.726  11.443   9.050 -0.2783  1.5003  1.4980
40029SOL    HW230018   9.692  11.295   9.059 -0.2619  1.1459 -2.5917
40030SOL     OW30019   1.277  12.716   4.782 -0.0750  0.2590 -0.5105
40030SOL    HW130020   1.284  12.650   4.714 -0.7892  1.2733 -1.6005
40030SOL    HW230021   1.280  12.799   4.736  0.0828  0.9927  0.7634
40031SOL     OW30022   1.062   0.515   0.856 -0.3701  0.2612  0.0939
40031SOL    HW130023   1.109   0.440   0.820 -0.7662  0.2567 -0.4224
40031SOL    HW230024   0.997   0.537   0.790  1.4548  2.7659 -1.0433
40032SOL     OW30025   8.761   2.998  13.150 -0.1661  0.3381 -0.0348
40032SOL    HW130026   8.718   2.922  13.189 -0.1827 -0.1447 -0.9696
40032SOL    HW230027   8.696   3.067  13.153  0.6328  1.1206  3.1300
40033SOL     OW30028   1.411   8.007   8.171  0.0291 -0.4762  0.8056
40033SOL    HW130029   1.500   7.997   8.204 -0.1961 -0.5267  1.3952
40033SOL    HW230030   1.409   7.952   8.092 -0.3995 -3.0518  2.4845
40034SOL     OW30031  12.986   5.958   6.431  0.2931  0.6044  0.0705
40034SOL    HW130032  12.967   5.971   6.524  0.2358 -0.6450  0.2606
40034SOL    HW230033  13.012   6.044   6.399  2.8469  0.6159  1.8431
40035SOL     OW30034   1.516   6.263  12.704  0.0284 -0.2543 -0.0413
40035SOL    HW130035   1.569   6.224  12.773 -0.5865  0.0921  0.6346
40035SOL    HW230036   1.503   6.193  12.641 -0.4506 -0.9323  0.8005
40036SOL     OW30037   3.854   1.174  12.049 -0.5545 -0.1339 -0.1566
40036SOL    HW130038   3.785   1.167  12.114 -1.3664  0.2897 -0.9457
40036SOL    HW230039   3.846   1.094  11.997  0.0901 -0.4710  0.2509
40037SOL     OW30040   3.829  10.199   2.873 -0.0847  0.5486 -0.0784
40037SOL    HW130041   3.835  10.195   2.969 -0.9754 -0.2118 -0.0370
40037SOL    HW230042   3.910  10.160   2.842 -0.1377  0.0646  0.3747
40038SOL     OW30043   9.479   6.222   4.179  0.2386 -0.2068 -0.8165
40038SOL    HW130044   9.449   6.308   4.207 -2.2253 -1.6692  1.5823
40038SOL    HW230045   9.541   6.195   4.247  0.6583 -0.5144 -1.3110
40039SOL     OW30046  12.410  11.231   0.887  0.0833  0.3526 -0.5355
40039SOL    HW130047  12.411  11.195   0.798 -0.1044 -1.7736  0.2512
40039SOL    HW230048  12.338  11.185   0.930  1.2264  0.0704  1.1818
40040SOL     OW30049   2.155   5.848   3.699  0.1686 -0.2740  0.0279
40040SOL    HW130050   2.078   5.891   3.737 -1.1732 -1.2567 -1.4519
40040SOL    HW230051   2.229   5.883   3.749 -1.0140  2.3445  0.0846
40041SOL     OW30052   5.827  12.966   6.191 -0.2767 -0.2382  0.6885
40041SOL    HW130053   5.774  13.034   6.232 -0.1591  0.6075 -0.4988
40041SOL    HW230054   5.838  12.899   6.259 -0.4712  0.8817  1.8608
40042SOL     OW30055   7.108   8.507  10.591 -0.0895 -0.0600  0.4556
40042SOL    HW130056   7.186   8.491  10.645 -0.3238  0.0803  0.8371
40042SOL    HW230057   7.045   8.442  10.621 -0.2748  0.1188  0.4545
40043SOL     OW30058   0.690   5.038   1.329 -0.3544  0.3404 -0.1077
40043SOL    HW130059   0.722   4.994   1.408 -0.5162 -0.5390 -0.5245
40043SOL    HW230060   0.615   5.090   1.359 -2.1260 -2.0617 -0.0992
40044SOL     OW30061  11.581   6.785   6.162 -0.9387 -0.1350  0.0317
40044SOL    HW130062  11.510   6.726   6.186 -0.8477  0.6293  2.4958
40044SOL    HW230063  11.600   6.834   6.242  1.1964  0.9217 -1.0150
40045SOL     OW30064   9.594   9.388  13.052  0.1395 -0.1363 -0.0515
40045SOL    HW130065   9.659   9.382  13.122  1.7277  1.4636 -1.3086
40045SOL    HW230066   9.548   9.304  13.056  1.4348 -0.8375  1.6776
40046SOL     OW30067   1.635   2.018   6.325 -0.4495  0.5866  0.6464
40046SOL    HW130068   1.661   2.109   6.335  0.3724  0.4150  0.1578
40046SOL    HW230069   1.633   1.983   6.414 -1.4803  1.2605  0.9027
40047SOL     OW30070   9.791  11.769  11.064  0.5439 -0.1063 -0.1279
40047SOL    HW130071   9.852  11.816  11.121  1.3731  0.2609 -1.2835
40047SOL    HW230072   9.803  11.677  11.087  0.1328  0.1018  0.9805
40048SOL     OW30073  11.014   8.870   0.110  0.3021 -0.4454 -0.1529
40048SOL    HW130074  11.042   8.937   0.173  0.8365 -0.7166 -0.0959
40048SOL    HW230075  10.943   8.823   0.154  0.6436 -0.6070  0.2344
40049SOL     OW30076   8.278   3.613   1.206 -0.2327  0.2176  0.0407
40049SOL    HW130077   8.184   3.631   1.211  0.1045  2.1561  0.2732
40049SOL    HW230078   8.296   3.555   1.280 -1.3623 -0.8216 -0.4779
40050SOL     OW30079  12.037  13.246   9.970 -0.0420 -0.1004  0.3950
40050SOL    HW130080  12.015  13.261   9.878  0.5503 -1.8976 -0.0955
40050SOL    HW230081  12.110  13.305   9.987 -1.2395  1.4914  0.2517
40051SOL     OW30082   6.360  13.015   0.723 -0.6292  0.5931 -0.1795
40051SOL    HW130083   6.342  13.091   0.777 -1.1980  1.0582 -0.9940
40051SOL    HW230084   6.408  13.050   0.648  1.4490 -0.2530  0.7018
40052SOL     OW30085   2.015   5.006   1.389 -0.3549 -0.0080  0.0546
40052SOL    HW130086   1.936   5.056   1.408 -0.8650 -0.0205 -1.8297
40052SOL    HW230087   1.989   4.914   1.404 -1.0569 -0.1027 -1.5623
40053SOL     OW30088  10.427   6.015   8.787  0.1402  0.0099 -0.2167
40053SOL    HW130089  10.457   5.964   8.861  1.1244  0.0725 -0.5605
40053SOL    HW230090  10.496   6.007   8.722  0.9702  2.7637  0.1710
40054SOL     OW30091   1.980   7.085  11.524  0.7118  0.2430  0.1572
40054SOL    HW130092   2.002   7.009  11.578  1.7170  0.2896 -0.1553
40054SOL    HW230093   1.908   7.057  11.469  1.9026 -0.9186 -0.8654
40055SOL     OW30094   0.060   7.270   0.226 -0.1940 -0.3806 -0.2386
40055SOL    HW130095   0.068   7.362   0.253  0.6207 -0.7334  0.7885
40055SOL    HW230096   0.011   7.274   0.143  1.6983  1.1642 -1.3823
40056SOL     OW30097   8.635   7.455   6.222  0.1388  0.6336  0.7846
40056SOL    HW130098   8.540   7.445   6.230 -0.2839  2.2491 -1.4438
40056SOL    HW230099   8.654   7.541   6.258  0.5343  0.9355 -0.1191
40057SOL     OW30100   1.896  10.835   7.618 -0.6378 -0.0816 -0.5182
40057SOL    HW130101   1.938  10.749   7.609 -1.3198 -0.5398  0.4599
40057SOL    HW230102   1.907  10.857   7.710 -1.1157  0.5448 -0.6051
40058SOL     OW30103   0.481   3.195  13.024 -0.5877 -0.2064 -0.6744
40058SOL    HW130104   0.438   3.264  13.074 -0.6554  0.0828 -1.1285
40058SOL    HW230105   0.525   3.241  12.952 -0.0489 -0.5632 -0.5787
40059SOL     OW30106  12.918   6.310   5.537 -0.1568  0.4734 -0.1588
40059SOL    HW130107  12.966   6.270   5.610  1.4238 -0.0031 -1.4238
40059SOL    HW230108  12.869   6.238   5.498  0.5441  0.3171 -0.7619
40060SOL     OW30109   8.900   1.430   8.967  0.0724  0.3426  0.2702
40060SOL    HW130110   8.986   1.400   8.996 -0.0419 -0.6222 -0.3595
40060SOL    HW230111   8.870   1.487   9.037  2.0929  2.3802 -0.3757
40061SOL     OW30112   8.703  10.526   8.955  0.0951  0.1310  0.4747
40061SOL    HW130113   8.795  10.549   8.938  0.4124 -0.0447  1.8795
40061SOL    HW230114   8.693  10.533   9.049 -1.1315 -0.6730  0.4296
40062SOL     OW30115   6.149  12.848   5.091 -0.0579 -0.2699 -0.3326
40062SOL    HW130116   6.207  12.784   5.133  0.4798  0.0319 -0.6136
40062SOL    HW230117   6.114  12.802   5.015 -1.0309 -0.8175  0.4180
40063SOL     OW30118   3.229  10.048  13.059  0.2116 -0.2445 -0.5536
40063SOL    HW130119   3.186  10.125  13.098 -0.4471 -0.3420 -1.0719
40063SOL    HW230120   3.206  10.052  12.967  1.5936 -0.1330 -0.9183
40064SOL     OW30121   4.409   1.368  11.195  0.1996 -0.0437  0.4264
40064SOL    HW130122   4.379   1.278  11.185 -0.7209  0.1319  1.4094
40064SOL    HW230123   4.342   1.421  11.152  1.2053  0.1423 -0.9680
40065SOL     OW30124  12.010   9.043  11.536  0.2903 -0.4316 -0.2184
40065SOL    HW130125  12.054   9.124  11.509  3.2507 -2.5742 -2.5752
40065SOL    HW230126  12.035   9.032  11.628  2.3467 -0.0593 -0.6834
40066SOL     OW30127   8.616  13.012   1.072  0.1365 -0.0404 -0.7344
40066SOL    HW130128   8.524  12.989   1.085  0.2472 -0.1698 -0.1837
40066SOL    HW230129   8.644  12.959   0.997 -0.3338  0.2698 -1.1386
40067SOL     OW30130   6.514   9.055   5.739 -0.3771  0.0893 -0.0222
40067SOL    HW130131   6.457   9.132   5.741 -0.2818  0.1551  0.9362
40067SOL    HW230132   6.455   8.980   5.733 -0.4387  0.2484 -1.8969
40068SOL     OW30133   1.173   2.086   6.542  0.1362 -0.0819 -0.1796
40068SOL    HW130134   1.146   1.996   6.525  1.6513 -0.6988  0.4895
40068SOL    HW230135   1.101   2.124   6.591 -0.1517 -1.2240  0.3202
40069SOL     OW30136   2.802  13.130   5.529 -0.3532  0.0486  0.0445
40069SOL    HW130137   2.853  13.077   5.590 -3.0993 -2.4017  0.4909
40069SOL    HW230138   2.843  13.115   5.444  1.9799  1.4445  0.8371
40070SOL     OW30139   9.531   8.596   5.681  0.5923 -0.1083  0.6154
40070SOL    HW130140   9.529   8.678   5.632  3.1598  0.6155  1.5115
40070SOL    HW230141   9.476   8.612   5.757  1.3816  0.9885  0.9858
40071SOL     OW30142   9.359   6.025  13.203 -0.3306  0.1012  0.0133
40071SOL    HW130143   9.452   6.043  13.188 -0.3693  2.2726  1.8178
40071SOL    HW230144   9.355   5.932  13.223  1.7035  0.2538  1.3845
40072SOL     OW30145   8.319   7.405   6.309  0.0765  0.1484 -0.0767
40072SOL    HW130146   8.260   7.477   6.289  0.6241  0.5120 -0.3934
40072SOL    HW230147   8.289   7.372   6.394  0.6997  1.6513  0.7526
40073SOL     OW30148   8.960   6.401  11.996 -0.4576  0.1413 -0.3591
40073SOL    HW130149   8.930   6.310  11.993  0.6748 -0.2392 -0.5245
40073SOL    HW230150   8.992   6.412  12.085 -0.4739  0.3466 -0.3791
40074SOL     OW30151   8.551   9.026   1.587 -0.1894  0.5267 -0.0379
40074SOL    HW130152   8.600   9.031   1.505 -0.4875 -0.0284 -0.2583
40074SOL    HW230153   8.484   9.094   1.579  0.4485  1.2001  0.2105
40075SOL     OW30154   2.701  12.079   2.893  0.3411  0.6842  0.2518
40075SOL    HW130155   2.669  11.989   2.879  0.5050  0.5976  0.4417
40075SOL    HW230156   2.770  12.070   2.958  0.0169  1.0165  0.6446
40076SOL     OW30157   3.271   7.976   2.021 -0.2474  0.0844 -0.5845
40076SOL    HW130158   3.300   8.035   2.091  0.9963  1.6113 -2.2845
40076SOL    HW230159   3.348   7.966   1.965 -1.1249 -1.3117 -1.6003
40077SOL     OW30160   7.773  12.452   4.611 -0.5611 -0.2253  0.6615
40077SOL    HW130161   7.787  12.360   4.588  0.5533 -0.4655  2.1235
40077SOL    HW230162   7.748  12.450   4.704 -0.4060  0.9604  0.7464
40078SOL     OW30163   1.221  12.084   6.358  0.0894  0.5754 -0.5865
40078SOL    HW130164   1.246  12.106   6.448  0.2460 -0.1701 -0.4391
40078SOL    HW230165   1.305  12.081   6.311  0.3232 -1.7548 -0.1327
40079SOL     OW30166   6.732  13.273  11.424  0.3100  0.3161 -0.1311
40079SOL    HW130167   6.729  13.328  11.502  0.9820  0.7276 -0.3878
40079SOL    HW230168   6.645  13.280  11.386 -0.5650 -1.1722  1.4427
40080SOL     OW30169   4.688   3.136   1.644  0.1054  0.4500 -0.1291
40080SOL    HW130170   4.729   3.172   1.566 -1.3428  0.9261 -0.7014
40080SOL    HW230171   4.608   3.094   1.612 -0.9112  1.3192  1.1759
40081SOL     OW30172   0.447   4.147   1.195  0.2825 -0.5448 -0.7020
40081SOL    HW130173   0.393   4.202   1.139  0.4120  0.3316  0.0033
40081SOL    HW230174   0.480   4.079   1.138 -1.2530 -0.8745 -1.2324
40082SOL     OW30175  11.919   9.293  10.870  0.2773 -0.0401 -0.1204
40082SOL    HW130176  11.913   9.205  10.907  0.1828  0.9814  2.4832
40082SOL    HW230177  11.930   9.351  10.945  1.8355  2.0823 -1.8325
40083SOL     OW30178   2.396   0.394  10.054 -0.2586 -0.2962  0.2162
40083SOL    HW130179   2.325   0.457  10.041 -0.4704 -0.7777 -1.1067
40083SOL    HW230180   2.443   0.393   9.971 -1.5812 -3.4415 -0.6772
40084SOL     OW30181   6.762   3.410   8.348  0.2945  0.1253  0.0322
40084SOL    HW130182   6.762   3.377   8.438 -1.6471 -1.4117 -0.4662
40084SOL    HW230183   6.844   3.377   8.311  0.9290  0.4492  1.0933
40085SOL     OW30184   6.277   1.852  11.994  0.2914 -0.1009 -0.0720
40085SOL    HW130185   6.240   1.807  11.918 -0.0643  0.8941 -0.5044
40085SOL    HW230186   6.335   1.787  12.035  0.4543 -0.6651 -1.1651
40086SOL     OW30187   9.220   1.228   0.520 -0.8401 -0.8655 -0.0979
40086SOL    HW130188   9.197   1.307   0.470 -1.3022 -0.0675  1.3204
40086SOL    HW230189   9.293   1.190   0.471 -1.9380 -0.7196 -1.9543
40087SOL     OW30190  12.651   6.853  10.432  0.6247  0.2657  0.1100
40087SOL    HW130191  12.696   6.785  10.481 -1.1863 -1.4843 -0.5242
40087SOL    HW230192  12.718   6.888  10.373  1.6954 -0.7101  0.7050
40088SOL     OW30193   1.590   4.245   7.505  0.2476 -0.2756  0.3768
40088SOL    HW130194   1.500   4.219   7.525  0.9257 -1.3788  2.2429
40088SOL    HW230195   1.584   4.339   7.485 -1.3501 -0.4073  0.1015
40089SOL     OW30196   7.708   0.215   4.286  0.1683  0.2167 -0.1708
40089SOL    HW130197   7.651   0.237   4.211  0.0995  1.3643  0.1961
40089SOL    HW230198   7.661   0.146   4.332  1.2057 -2.1092 -2.3404
40090SOL     OW30199   1.141   5.289   3.287 -0.1697 -0.6671  0.2410
40090SOL    HW130200   1.147   5.329   3.200 -0.5105  0.5360  0.7431
40090SOL    HW230201   1.182   5.353   3.345 -0.6783 -1.0845  1.0722
40091SOL     OW30202   7.142  12.453   6.090  0.3702  0.4329  0.4033
40091SOL    HW130203   7.073  12.509   6.126  1.0814  2.9627 -1.8253
40091SOL    HW230204   7.222  12.504   6.101  1.6655 -1.6549  1.2858
40092SOL     OW30205   3.437   1.335   8.394 -0.8791 -0.2361 -0.5216
40092SOL    HW130206   3.348   1.370   8.385 -0.7165  0.5656  0.8045
40092SOL    HW230207   3.493   1.404   8.358 -0.5392  1.1231  2.3361
40093SOL     OW30208  11.652   0.004   5.403  0.0441  0.3616  0.5882
40093SOL    HW130209  11.560  -0.018   5.387 -0.2019 -0.5777  2.8486
40093SOL    HW230210  11.700  -0.038   5.332 -1.1687 -0.4790  0.2399
40094SOL     OW30211  13.282   3.039   2.361  0.2202 -0.8183 -0.0084
40094SOL    HW130212  13.359   3.064   2.310 -1.3143  1.3304 -1.4942
40094SOL    HW230213  13.315   3.023   2.449  2.3939 -0.2945 -0.6662
40095SOL     OW30214  10.045  11.400   4.852 -0.2166 -0.3155  0.1798
40095SOL    HW130215  10.101  11.476   4.836  0.3035 -0.6190  0.4972
40095SOL    HW230216   9.988  11.395   4.775  0.1205  0.0672 -0.0995
40096SOL     OW30217   9.696   9.180   2.324 -0.4062 -0.4376 -0.0062
40096SOL    HW130218   9.625   9.120   2.345  0.8044 -1.6165  0.9319
40096SOL    HW230219   9.705   9.236   2.402 -0.1515 -0.4671 -0.0116
40097SOL     OW30220  11.263   4.175   0.677 -0.2517  0.2330  0.2424
40097SOL    HW130221  11.211   4.115   0.729 -1.0502  0.9141  0.2498
40097SOL    HW230222  11.240   4.155   0.586  1.2617 -1.0669  0.0953
40098SOL     OW30223   2.687   9.799   3.237  0.0152 -0.3504 -0.0912
40098SOL    HW130224   2.740   9.839   3.306 -0.3325 -1.7329  1.0327
40098SOL    HW230225   2.654   9.873   3.186  0.2346  0.7159  1.2619
40099SOL     OW30226   1.768   0.044   9.274  0.0597 -0.1350  0.1369
40099SOL    HW130227   1.848   0.031   9.325 -0.2162 -3.8246 -0.0793
40099SOL    HW230228   1.796   0.038   9.183 -0.0234  2.3698 -0.1162
40100SOL     OW30229  11.908   1.498  12.473 -0.1061  0.2131 -0.3921
40100SOL    HW130230  11.995   1.457  12.475 -0.2733 -0.1202  0.5240
40100SOL    HW230231  11.860   1.448  12.406  0.4627  0.5335 -1.0533
40101SOL     OW30232   6.534  10.905   9.348 -0.5187  0.3549  0.1339
40101SOL    HW130233   6.582  10.871   9.272  0.7536 -0.7569  1.3935
40101SOL    HW230234   6.499  10.828   9.391 -0.7550  0.9249  0.9888
40102SOL     OW30235   2.054   4.953   0.418  0.3628  0.3414 -0.5856
40102SOL    HW130236   2.098   5.038   0.412  1.2713 -0.1485 -1.0026
40102SOL    HW230237   2.071   4.910   0.334  1.8404 -1.1666  0.4268
40103SOL     OW30238  12.254  12.937   7.442 -0.1756  0.0046  0.1603
40103SOL    HW130239  12.317  12.983   7.386 -1.0136  0.9312 -0.0548
40103SOL    HW230240  12.217  12.869   7.386  0.1166 -0.0823  0.0708
40104SOL     OW30241  12.181   6.534   5.882 -0.1353  0.1368  0.0083
40104SOL    HW130242  12.218   6.461   5.932 -1.5476 -1.0141 -0.5446
40104SOL    HW230243  12.223   6.612   5.917 -1.5245 -0.5272  3.5048
40105SOL     OW30244   0.219   1.839   3.182 -0.4781  0.2337 -0.2198
40105SOL    HW130245   0.230   1.775   3.252  0.4053 -0.3354 -0.8507
40105SOL    HW230246   0.137   1.815   3.139  0.3183 -1.0969 -1.0481
40106SOL     OW30247   7.849  11.163   5.556 -0.0051  0.1461  0.2128
40106SOL    HW130248   7.760  11.147   5.524 -0.6224  1.4240  1.1827
40106SOL    HW230249   7.866  11.091   5.617  0.3141 -1.0413 -1.2140
40107SOL     OW30250   2.643   4.258   2.834  0.0145  0.1343 -0.3392
40107SOL    HW130251   2.718   4.239   2.890  0.0010 -0.4924 -0.5228
40107SOL    HW230252   2.622   4.174   2.793 -0.0442  0.5597 -1.1959
40108SOL     OW30253   8.779   5.958   4.886 -0.4352  0.1766 -0.1209
40108SOL    HW130254   8.757   5.977   4.795 -0.4327 -0.6023 -0.2927
40108SOL    HW230255   8.708   5.999   4.937 -0.8247  0.0019 -0.5135
40109SOL     OW30256  12.546   4.219  12.446 -0.3657 -0.3582  0.0246
40109SOL    HW130257  12.473   4.281  12.455 -0.2405 -0.4156  1.7645
40109SOL    HW230258  12.624   4.274  12.444 -0.2978 -0.4114  0.8917
40110SOL     OW30259   9.155   3.341   3.311 -0.5050  0.2982  0.2142
40110SOL    HW130260   9.248   3.328   3.332 -0.2211  1.4084 -0.2675
40110SOL    HW230261   9.119   3.252   3.305  0.2886 -0.1286  1.3945
40111SOL     OW30262  10.941   6.448   9.676 -0.6502 -0.8649  0.0025
40111SOL    HW130263  10.978   6.386   9.613  0.8538 -1.8833  1.7891
40111SOL    HW230264  10.976   6.533   9.650 -0.2973 -1.2157 -0.6984
40112SOL     OW30265  12.076   7.028   2.466 -0.0590 -0.1880 -0.0820
40112SOL    HW130266  11.992   7.052   2.427  0.4443  0.0223 -1.0930
40112SOL    HW230267  12.105   7.106   2.513 -0.4784 -0.3012  0.3729
40113SOL     OW30268  11.047   0.383  12.439  0.1378 -0.4715  0.2629
40113SOL    HW130269  11.027   0.467  12.481  0.3525  0.0145 -0.5810
40113SOL    HW230270  11.124   0.401  12.385 -0.1623 -1.0613 -0.3797
40114SOL     OW30271   4.592   0.673   2.986  0.2532  0.0232 -0.4232
40114SOL    HW130272   4.585   0.665   3.081 -0.0882 -2.3534 -0.5864
40114SOL    HW230273   4.519   0.730   2.962  0.3019  0.6006  0.7237
40115SOL     OW30274   9.031  12.960   0.915 -0.1990  0.5993  0.5334
40115SOL    HW130275   9.010  12.871   0.889 -2.3267  0.7845  1.4509
40115SOL    HW230276   9.099  12.951   0.982 -0.5150 -0.3339  0.7280
40116SOL     OW30277   5.810   1.545   2.344  0.2077 -0.1162 -1.1498
40116SOL    HW130278   5.775   1.625   2.384 -0.6351 -0.9598 -0.1354
40116SOL    HW230279   5.816   1.565   2.251 -1.2839  0.6988 -1.1075
40117SOL     OW30280   9.892   7.710   1.768 -0.2165  0.1794  0.1664
40117SOL    HW130281   9.887   7.684   1.860 -1.4165 -0.5594 -0.0905
40117SOL    HW230282   9.806   7.691   1.732  0.9184 -1.9052 -1.7377
40118SOL     OW30283   6.414   7.979   8.299  0.5064  0.4243  0.3502
40118SOL    HW130284   6.496   7.988   8.250 -0.2879  1.3839 -0.8662
40118SOL    HW230285   6.410   8.058   8.353  1.8460 -1.0665  2.8147
40119SOL     OW30286  11.970   4.284   5.385 -0.3271  0.5759 -0.2498
40119SOL    HW130287  11.927   4.355   5.339 -0.7343  0.2324 -0.4070
40119SOL    HW230288  11.913   4.265   5.460 -1.2665 -0.8718 -1.2698
40120SOL     OW30289   6.476   7.828  11.614 -0.6469  0.1258  0.2195
40120SOL    HW130290   6.557   7.778  11.618 -1.1772 -0.6899  1.0921
40120SOL    HW230291   6.411   7.773  11.657 -1.2016  1.6617  1.4611
40121SOL     OW30292   2.905   4.307   2.163 -0.1175  0.0107 -0.0190
40121SOL    HW130293   3.000   4.319   2.167 -0.0981 -0.3267  0.6657
40121SOL    HW230294   2.878   4.354   2.084  0.3657  1.7415  0.8059
40122SOL     OW30295   2.261   6.462   6.775  0.0516  0.3177  0.8427
40122SOL    HW130296   2.237   6.444   6.684 -0.3739  0.9015  0.8315
40122SOL    HW230297   2.199   6.410   6.827 -0.4876  0.9099  0.8032
40123SOL     OW30298   0.693  11.422   3.334 -0.3326  0.2107 -0.0411
40123SOL    HW130299   0.770  11.479   3.327 -0.6835  0.6010 -0.8438
40123SOL    HW230300   0.728  11.333   3.338  0.2034  0.4475  0.8070
40124SOL     OW30301  10.998   3.356   0.667 -0.4013  0.3172 -0.1896
40124SOL    HW130302  10.903   3.364   0.680 -0.2431  1.4687  0.3843
40124SOL    HW230303  11.013   3.385   0.577 -0.4883  1.1618  0.0596
40125SOL     OW30304   6.258   6.279   7.147 -0.2250  0.2681 -0.4068
40125SOL    HW130305   6.179   6.234   7.116 -0.2731 -0.3761  0.6186
40125SOL    HW230306   6.240   6.372   7.131 -0.7601  0.0555 -1.1241
40126SOL     OW30307   7.381   0.034   9.365 -0.4750 -0.2048  0.2952
40126SOL    HW130308   7.301   0.082   9.387 -0.7320 -0.3610 -0.2939
40126SOL    HW230309   7.424   0.088   9.299 -0.6917 -0.7039 -0.2654
40127SOL     OW30310   4.698   4.411   0.486  0.5142 -0.2566  0.3980
40127SOL    HW130311   4.741   4.332   0.454  1.5807 -0.0321  1.2309
40127SOL    HW230312   4.715   4.477   0.419 -0.8624 -0.8346 -0.5830
40128SOL     OW30313   5.238   1.081   9.373  0.3362  0.0863 -0.3821
40128SOL    HW130314   5.216   1.103   9.282  1.2068 -0.0464 -0.6342
40128SOL    HW230315   5.272   0.992   9.368  0.0772 -0.0414  0.1246
40129SOL     OW30316   7.652   9.913   6.230 -0.6443 -0.0670 -0.3173
40129SOL    HW130317   7.642   9.927   6.136  0.5624  0.0634 -0.4377
40129SOL    HW230318   7.580   9.963   6.270 -0.2139  1.2160 -1.0880
40130SOL     OW30319   6.250   8.309   8.209  0.6282  0.0178  0.1023
40130SOL    HW130320   6.223   8.292   8.118 -1.8328  0.2786  0.7243
40130SOL    HW230321   6.231   8.402   8.223  2.7651  0.4762  0.3768
40131SOL     OW30322   7.286   7.157  12.575  0.2656  0.1525  0.2022
40131SOL    HW130323   7.327   7.151  12.489 -0.0658  0.3126  0.0328
40131SOL    HW230324   7.337   7.225  12.620  0.3311  0.1907  0.0720
40132SOL     OW30325  10.747   8.735   9.345  0.2599  0.1659 -0.6020
40132SOL    HW130326  10.692   8.658   9.332 -0.5101  0.6096 -0.0557
40132SOL    HW230327  10.748   8.778   9.260 -0.2901  0.1797 -0.6087
40133SOL     OW30328   4.220   0.963   4.957 -0.1200  0.5288 -0.4949
40133SOL    HW130329   4.190   1.053   4.947 -2.6889 -0.3561 -1.6043
40133SOL    HW230330   4.164   0.927   5.027  1.1515 -0.1200  0.2272
40134SOL     OW30331   8.019  11.916  11.967  0.8339  0.5457 -0.6870
40134SOL    HW130332   7.957  11.913  11.893  1.4250 -2.0646 -1.1689
40134SOL    HW230333   8.089  11.974  11.937  0.1182  1.0895 -1.3589
40135SOL     OW30334   9.138   2.608   2.619 -0.9093  0.5122 -0.1801
40135SOL    HW130335   9.135   2.692   2.665  0.3227  2.5766 -3.4980
40135SOL    HW230336   9.049   2.593   2.589 -1.0340  0.9213 -0.0121
40136SOL     OW30337   3.152   7.490   4.885  0.4666  0.3662 -0.2498
40136SOL    HW130338   3.118   7.407   4.919  0.4567  0.3439 -0.3135
40136SOL    HW230339   3.093   7.557   4.919  0.1518  0.2965 -0.6453
40137SOL     OW30340  11.804  12.162  12.142 -0.0180  0.3825  0.3516
40137SOL    HW130341  11.840  12.099  12.080  0.0975  0.1843  0.6156
40137SOL    HW230342  11.880  12.213  12.171  0.1725 -0.4301  1.3649
40138SOL     OW30343   7.498   8.905   6.153  0.2353  0.2806  0.4316
40138SOL    HW130344   7.470   8.882   6.242  0.4615 -0.4803  0.3135
40138SOL    HW230345   7.453   8.841   6.097  0.2086  0.6664  0.0149
40139SOL     OW30346   1.784   2.872   1.179 -0.0355 -0.2320  0.0892
40139SOL    HW130347   1.863   2.904   1.135 -0.5263 -1.2176 -1.5908
40139SOL    HW230348   1.796   2.778   1.185 -0.5208 -0.2490  1.0339
40140SOL     OW30349   0.852   4.437  13.101 -0.1391 -0.3693 -0.1171
40140SOL    HW130350   0.845   4.525  13.137 -0.9086  0.6673 -2.6511
40140SOL    HW230351   0.785   4.387  13.148  0.2653  0.3434  1.3102
40141SOL     OW30352   6.273  10.786  11.814 -0.0755  0.5636 -0.2804
40141SOL    HW130353   6.180  10.777  11.833 -0.2212  0.1431 -1.1365
40141SOL    HW230354   6.292  10.879  11.828 -0.8407  0.8399 -0.9933
40142SOL     OW30355   8.629  12.746  11.379 -0.5186  0.1709 -0.3376
40142SOL    HW130356   8.675  12.809  11.324  1.2665 -2.0238 -1.5184
40142SOL    HW230357   8.688  12.730  11.452 -0.7659 -0.4418 -0.2698
40143SOL     OW30358   2.261  12.237   7.661 -1.0574 -0.0917 -0.0030
40143SOL    HW130359   2.319  12.285   7.602 -1.2173 -1.4778 -1.3576
40143SOL    HW230360   2.203  12.304   7.697  2.6291  1.8107  3.1947
40144SOL     OW30361   4.428   6.092   3.436  0.4121 -0.0082  0.0521
40144SOL    HW130362   4.410   6.137   3.354  0.3667  3.4919  1.8111
40144SOL    HW230363   4.344   6.057   3.464  0.4440 -1.3093 -1.3394
40145SOL     OW30364   6.404   5.373   6.453  0.2613  0.0284 -0.0408
40145SOL    HW130365   6.471   5.441   6.462 -0.3373  0.9221 -1.8140
40145SOL    HW230366   6.429   5.307   6.517  3.4336 -0.1391 -1.2511
40146SOL     OW30367   1.833   8.242  11.035  0.0702  0.0500  0.4827
40146SOL    HW130368   1.905   8.184  11.061  0.1899  0.1363  0.3396
40146SOL    HW230369   1.876   8.321  11.002 -0.0865  0.0326  0.2369
40147SOL     OW30370   3.986   3.515  10.133  0.4547  0.7443 -0.6602
40147SOL    HW130371   4.064   3.568  10.149  0.2087  1.4002 -1.5354
40147SOL    HW230372   3.922   3.577  10.099 -0.4141  0.1884 -0.0866
40148SOL     OW30373  12.556  12.719   0.901 -0.1019  0.1004 -0.6405
40148SOL    HW130374  12.465  12.691   0.907 -0.6754  1.0520 -3.4233
40148SOL    HW230375  12.557  12.806   0.939 -1.0210  1.2125 -2.9926
40149SOL     OW30376   7.428   3.498   2.149  0.0496 -0.4835 -0.1690
40149SOL    HW130377   7.388   3.562   2.208  1.0564  0.8894 -0.9093
40149SOL    HW230378   7.358   3.475   2.088 -0.9580 -1.7964  1.3732
40150SOL     OW30379   4.661   0.505   2.439  0.1082 -0.3869 -0.2206
40150SOL    HW130380   4.688   0.413   2.445  1.4995 -0.0335 -0.7140
40150SOL    HW230381   4.566   0.501   2.429  0.1990 -1.8001 -0.8084
40151SOL     OW30382   4.632   6.685   2.628  0.0631 -0.6100  0.4127
40151SOL    HW130383   4.639   6.596   2.592  1.1346 -0.1673 -0.5215
40151SOL    HW230384   4.676   6.740   2.564 -0.9035  0.6600  0.8072
40152SOL     OW30385   7.890   1.951   1.267  0.4964 -0.0660 -0.2938
40152SOL    HW130386   7.855   2.013   1.331  0.4466  1.1661 -1.4726
40152SOL    HW230387   7.879   1.865   1.308  0.5620  0.6957  1.3709
40153SOL     OW30388  10.141  12.645   7.717  0.2677  0.3893 -0.2875
40153SOL    HW130389  10.135  12.641   7.812  2.7928  1.0093 -0.0101
40153SOL    HW230390  10.085  12.719   7.692 -0.7739 -0.0600  0.6401
40154SOL     OW30391   1.484   5.856  10.539  0.6022 -0.0425  0.2320
40154SOL    HW130392   1.440   5.838  10.456  0.2829 -1.3001  0.6535
40154SOL    HW230393   1.413   5.857  10.603  0.9066  0.4002  0.5650
40155SOL     OW30394  12.772   5.138   2.944  0.2968 -0.1797  0.0997
40155SOL    HW130395  12.702   5.198   2.921  1.4642  0.6664 -1.4391
40155SOL    HW230396  12.757   5.061   2.889  0.2396 -0.2480  0.2108
40156SOL     OW30397  10.500   8.107   4.349 -0.1917  0.4308  0.0074
40156SOL    HW130398  10.502   8.016   4.318 -0.8833  0.3377  0.2258
40156SOL    HW230399  10.441   8.106   4.424 -0.7093  1.1733 -0.3694
40157SOL     OW30400  12.733  11.024  12.464 -0.3139 -0.0168  0.1774
40157SOL    HW130401  12.639  11.008  12.470 -0.4618  0.8798  0.4077
40157SOL    HW230402  12.741  11.119  12.473  0.4585  0.1264 -1.7297
40158SOL     OW30403  12.150  10.309   3.555 -0.0331 -0.0117  0.0228
40158SOL    HW130404  12.230  10.269   3.588 -0.0369  0.5055  0.6922
40158SOL    HW230405  12.081  10.247   3.576  0.1588 -0.3456 -0.3303
40159SOL     OW30406   9.062   8.789  11.859 -0.1159 -0.1237  0.4706
40159SOL    HW130407   9.006   8.747  11.793  0.7637 -0.4935 -0.0510
40159SOL    HW230408   9.070   8.879  11.829  3.2718 -1.0681 -2.0779
40160SOL     OW30409   6.125   2.892  11.445  0.1065 -0.4854  0.2225
40160SOL    HW130410   6.179   2.874  11.368  0.0666  1.2042 -0.2492
40160SOL    HW230411   6.036   2.868  11.419  0.3507 -1.6739  0.4163
40161SOL     OW30412   3.145   8.560   2.205 -0.6432  0.7675 -0.1492
40161SOL    HW130413   3.101   8.500   2.265  0.2757 -1.4111 -1.5063
40161SOL    HW230414   3.095   8.552   2.123  0.8959 -0.0560 -1.0573
40162SOL     OW30415  10.541   1.421   1.192  0.3358 -0.6733  0.3079
40162SOL    HW130416  10.544   1.430   1.097  1.5614  0.1291  0.3935
40162SOL    HW230417  10.448   1.414   1.213  0.1252 -3.6237 -1.1605
40163SOL     OW30418   7.618   5.664   1.105 -0.2064 -0.3585  0.1708
40163SOL    HW130419   7.666   5.589   1.071  0.4503  0.2776 -0.3354
40163SOL    HW230420   7.596   5.716   1.028 -1.0065 -0.2184  0.4776
40164SOL     OW30421   6.195   8.585   0.990 -0.0754 -0.4385 -0.8642
40164SOL    HW130422   6.220   8.569   0.899  0.2015 -1.6156 -0.6002
40164SOL    HW230423   6.202   8.499   1.032  0.4157  0.2025  0.4137
40165SOL     OW30424   1.387   1.539   7.273  0.3320 -0.1818  0.3339
40165SOL    HW130425   1.475   1.528   7.236 -0.2657 -0.6784 -1.0148
40165SOL    HW230426   1.350   1.612   7.224  0.8476  1.7084  2.6307
40166SOL     OW30427   9.582   6.952   0.436  0.3338 -0.4002  0.1357
40166SOL    HW130428   9.567   7.041   0.403  0.4586 -0.9626 -1.5432
40166SOL    HW230429   9.675   6.950   0.460  0.6920 -0.4666 -1.1830
40167SOL     OW30430  12.372   3.671   4.843 -0.0507 -0.2481  0.4916
40167SOL    HW130431  12.361   3.745   4.783 -1.4602 -1.7426 -1.2439
40167SOL    HW230432  12.308   3.687   4.912  0.6569  0.8381  0.9175
40168SOL     OW30433   2.689   9.989   0.443  0.2207 -0.3089 -0.2946
40168SOL    HW130434   2.782  10.008   0.429  0.2816 -1.1340 -1.0573
40168SOL    HW230435   2.671  10.026   0.530  0.9814  0.8210 -0.5918
40169SOL     OW30436   2.984   0.632   8.374  0.0757 -0.2570 -0.1031
40169SOL    HW130437   3.079   0.620   8.375  0.2941  1.0735 -1.2258
40169SOL    HW230438   2.950   0.548   8.341  0.8249 -0.8091  0.4826
40170SOL     OW30439   0.890   0.887   8.950  0.3672 -0.4892 -0.1048
40170SOL    HW130440   0.830   0.864   9.020  0.6255 -2.6793 -0.5546
40170SOL    HW230441   0.849   0.963   8.908 -0.3783  0.1254  1.6376
40171SOL     OW30442   1.669   0.027  12.023 -0.1070 -0.0251 -0.5566
40171SOL    HW130443   1.591   0.071  12.057 -1.6490 -1.8643 -1.4769
40171SOL    HW230444   1.694  -0.034  12.092 -0.4327 -0.5089 -0.8589
40172SOL     OW30445   4.496  11.127  12.926 -0.5020  0.2101  0.0211
40172SOL    HW130446   4.457  11.159  12.845 -1.5207  1.0205  0.7992
40172SOL    HW230447   4.570  11.185  12.942  0.1751 -0.4274 -0.7039
40173SOL     OW30448   2.673   5.236   3.629  0.1404 -0.3055 -0.4766
40173SOL    HW130449   2.682   5.254   3.722 -1.5864  1.8774 -0.6556
40173SOL    HW230450   2.762   5.237   3.595  0.6273  1.6063  0.7290
40174SOL     OW30451   7.464   7.601   9.689 -0.8917  0.5537  0.3457
40174SOL    HW130452   7.504   7.656   9.622  1.3905 -1.6291 -0.2706
40174SOL    HW230453   7.487   7.644   9.772  0.4089  0.8156 -0.1253
40175SOL     OW30454   1.150   7.097  10.195  0.1884 -0.6287  0.2212
40175SOL    HW130455   1.104   7.103  10.279 -0.4574 -0.9439 -0.1011
40175SOL    HW230456   1.241   7.083  10.218  0.2594  0.7362  0.8945
40176SOL     OW30457   6.492   4.750   2.775 -0.4247 -0.0955  0.0130
40176SOL    HW130458   6.401   4.773   2.795 -1.0978 -1.3772 -1.3603
40176SOL    HW230459   6.539   4.762   2.857 -2.3081 -1.7000  1.3961
40177SOL     OW30460   7.128   7.788  10.797  0.2597  0.7357 -0.0921
40177SOL    HW130461   7.046   7.814  10.756 -0.0416  1.0312  0.6826
40177SOL    HW230462   7.154   7.863  10.850 -0.0488 -0.1017  1.2926
40178SOL     OW30463  13.199  10.670   9.348  0.0619 -0.5491 -0.0710
40178SOL    HW130464  13.249  10.589   9.359  0.8831  0.0370  0.7321
40178SOL    HW230465  13.238  10.713   9.272 -0.1210 -0.7315 -0.2661
40179SOL     OW30466   9.594   7.251   5.054  0.4140  0.0780 -0.2771
40179SOL    HW130467   9.688   7.235   5.050  0.5170  0.8322 -1.5103
40179SOL    HW230468   9.583   7.339   5.017 -0.6243  0.6665  1.3206
40180SOL     OW30469   0.242   8.380   6.146  0.0056 -0.5032  0.3018
40180SOL    HW130470   0.215   8.361   6.236 -0.1551 -0.9925  0.1543
40180SOL    HW230471   0.195   8.315   6.093 -0.1779  0.0039 -0.1681
40181SOL     OW30472   7.127  11.406   4.722  0.6076  0.4149 -0.4924
40181SOL    HW130473   7.055  11.346   4.739  0.1131  0.4772 -2.2014
40181SOL    HW230474   7.160  11.429   4.809 -0.8251 -0.3382  0.2832
40182SOL     OW30475   5.854   6.169   2.946  0.0829  0.0625 -0.0461
40182SOL    HW130476   5.844   6.084   2.989 -0.3966  1.7407  3.5400
40182SOL    HW230477   5.768   6.185   2.906 -0.3335 -0.4817  0.5959
40183SOL     OW30478  12.580   1.565  12.333  0.0875 -0.3981  0.5833
40183SOL    HW130479  12.672   1.540  12.325  0.0619 -0.8822  1.6127
40183SOL    HW230480  12.532   1.495  12.290  0.2445  0.6941 -1.4878
40184SOL     OW30481  10.180   9.443   7.072 -0.1940  0.5252  0.2423
40184SOL    HW130482  10.174   9.348   7.078 -1.0253  0.5557 -0.0052
40184SOL    HW230483  10.190   9.472   7.163 -0.3930  0.2233  0.3614
40185SOL     OW30484   5.487   5.217   4.425  0.3967  0.0061  0.4876
40185SOL    HW130485   5.556   5.187   4.365  1.6075  0.6793  1.5114
40185SOL    HW230486   5.448   5.292   4.381  2.0443  1.2067  1.0021
40186SOL     OW30487   4.025   6.803   1.497  0.1698 -0.1304 -0.5299
40186SOL    HW130488   4.083   6.739   1.537  1.3452 -1.1973 -3.6055
40186SOL    HW230489   4.047   6.886   1.539  2.4447 -0.8697 -0.1421
40187SOL     OW30490  12.741   9.394   1.996 -0.0486 -0.3072 -0.3767
40187SOL    HW130491  12.769   9.329   2.061 -0.6381  0.6191  0.8423
40187SOL    HW230492  12.691   9.458   2.046  1.1989  1.5493 -1.3572
40188SOL     OW30493   0.187   9.313   6.874 -0.3352 -0.5699  0.3979
40188SOL    HW130494   0.201   9.231   6.921  0.2198 -1.7535 -1.7451
40188SOL    HW230495   0.093   9.318   6.860 -0.2094 -1.7331 -0.9688
40189SOL     OW30496  12.203   4.595   2.727  0.3007 -0.4306  0.3189
40189SOL    HW130497  12.215   4.676   2.776 -0.8612  0.4205 -0.7254
40189SOL    HW230498  12.272   4.596   2.661  2.7093 -2.2223  2.6128
40190SOL     OW30499   1.375   9.587   3.467 -0.3836 -0.4556 -0.3214
40190SOL    HW130500   1.314   9.513   3.456 -1.1937 -0.0973  1.5218
40190SOL    HW230501   1.422   9.567   3.547  0.9984 -0.0357 -0.9994
40191SOL     OW30502   0.315   8.486  10.512 -0.3690 -0.6250  0.6488
40191SOL    HW130503   0.273   8.545  10.449  0.3550 -0.1440  0.6058
40191SOL    HW230504   0.408   8.494  10.493 -0.3165 -3.2583 -0.6534
40192SOL     OW30505   7.543   8.866  12.849  0.5694  0.4539  0.1049
40192SOL    HW130506   7.622   8.871  12.902 -0.2436  0.1128  1.3740
40192SOL    HW230507   7.572   8.827  12.766  1.4826 -1.0444  1.0874
40193SOL     OW30508   7.448  12.417   5.709  0.2048  0.4718  0.3819
40193SOL    HW130509   7.430  12.369   5.790  0.2861  0.1098  0.1861
40193SOL    HW230510   7.387  12.380   5.645  1.4938 -0.6325 -0.2381
40194SOL     OW30511   0.365   7.977   0.974  0.0899 -0.4676 -0.2328
40194SOL    HW130512   0.408   7.941   1.051  1.4845  0.3612 -0.5930
40194SOL    HW230513   0.280   8.007   1.006  0.5020 -0.4727  0.9013
40195SOL     OW30514   8.476   1.007   0.264 -0.4929  0.2958  0.2414
40195SOL    HW130515   8.510   1.084   0.310  0.1927 -0.5257  1.1548
40195SOL    HW230516   8.397   1.039   0.220  0.0175  1.6200  0.2401
40196SOL     OW30517   8.613  12.258   2.761 -0.1944  0.6859  0.2174
40196SOL    HW130518   8.656  12.177   2.732  1.2363  0.8047  1.8315
40196SOL    HW230519   8.526  12.230   2.789  0.4400 -0.4225  1.1893
40197SOL     OW30520  12.197   1.905  11.651  0.7061  0.0267  0.2837
40197SOL    HW130521  12.103   1.924  11.651  0.0965 -2.4604 -1.5856
40197SOL    HW230522  12.234   1.966  11.588  0.3946  1.1309  1.1424
40198SOL     OW30523   7.739   1.537   9.624 -0.0763  0.0897  0.0144
40198SOL    HW130524   7.787   1.550   9.707  0.9550  1.8375 -0.8023
40198SOL    HW230525   7.799   1.569   9.557 -1.6622  0.5031 -1.2448
40199SOL     OW30526   3.833   9.387   8.198  0.6814 -0.5479 -0.2845
40199SOL    HW130527   3.767   9.351   8.258  0.6300 -0.1894 -0.1260
40199SOL    HW230528   3.785   9.405   8.118  0.7461 -1.0088 -0.4318
40200SOL     OW30529   8.454   4.554   2.524 -0.1541 -0.3402  0.3195
40200SOL    HW130530   8.533   4.583   2.478  0.3372 -3.6556 -1.2460
40200SOL    HW230531   8.382   4.573   2.464 -0.0777 -0.5411  0.1626
40201SOL     OW30532  13.289   0.638   8.058  0.1931  0.9119 -0.0281
40201SOL    HW130533  13.327   0.567   8.109  0.6493  1.9015  1.0409
40201SOL    HW230534  13.292   0.714   8.116 -3.2041  1.1393  0.0550
40202SOL     OW30535   6.441   9.917   6.679 -0.0831  0.2251  0.1515
40202SOL    HW130536   6.348   9.932   6.662 -0.1760 -3.1813 -4.0807
40202SOL    HW230537   6.487   9.978   6.622  0.0368 -1.2546 -1.4134
40203SOL     OW30538   7.173   7.841   1.369 -0.5094 -0.4243  0.2751
40203SOL    HW130539   7.171   7.764   1.426 -0.9500 -1.1571 -0.7162
40203SOL    HW230540   7.216   7.811   1.289 -2.5970 -0.2564 -0.9821
40204SOL     OW30541  11.511   6.014  12.321  0.4906 -0.0009 -0.0983
40204SOL    HW130542  11.535   5.924  12.341 -0.1040 -0.2745 -0.6034
40204SOL    HW230543  11.586   6.048  12.272  0.0845 -0.7046 -1.2516
40205SOL     OW30544   6.132   6.629   1.590  0.4720 -0.3441 -0.0563
40205SOL    HW130545   6.148   6.634   1.496 -0.6296  1.0440 -0.2071
40205SOL    HW230546   6.215   6.652   1.630  1.0775 -1.3828 -0.6591
40206SOL     OW30547   2.029   8.018  10.981 -0.1862  0.3958  0.5038
40206SOL    HW130548   2.052   7.926  10.989  0.5458  0.5977  0.8391
40206SOL    HW230549   2.074   8.061  11.054  2.8384  1.6245 -1.8921
40207SOL     OW30550   0.261  12.868   4.788 -0.0769  0.3677 -0.5294
40207SOL    HW130551   0.271  12.818   4.707 -0.0266  0.1367 -0.3805
40207SOL    HW230552   0.248  12.802   4.855  1.8357  0.4261 -0.0305
40208SOL     OW30553  12.250   9.919   6.668 -0.3156 -0.4597 -0.4227
40208SOL    HW130554  12.264   9.975   6.592 -1.0191  0.3814  0.0509
40208SOL    HW230555  12.185   9.855   6.638 -0.3544 -0.3282 -0.6222
40209SOL     OW30556   1.338  11.826  12.484  0.5304 -0.5467 -0.7736
40209SOL    HW130557   1.330  11.911  12.441  0.8087  0.9860  1.9841
40209SOL    HW230558   1.262  11.776  12.452  0.4301  0.6387 -2.5404
40210SOL     OW30559   4.147  13.119   9.352  0.1052 -0.4633 -0.4850
40210SOL    HW130560   4.221  13.161   9.396 -0.1665 -1.2065  0.7451
40210SOL    HW230561   4.145  13.159   9.265 -0.2155  2.1488  0.6189
40211SOL     OW30562   7.301   5.974   9.790  0.1310 -0.2296  0.9604
40211SOL    HW130563   7.333   5.951   9.702 -1.6020 -0.2349  0.2873
40211SOL    HW230564   7.374   5.953   9.848  1.7801  0.9170 -0.5915
40212SOL     OW30565   2.782   5.342  12.358 -0.1121 -0.1423  0.4238
40212SOL    HW130566   2.733   5.268  12.321 -0.6601 -0.0531  0.9475
40212SOL    HW230567   2.722   5.416  12.351  1.2174  0.8342 -2.1665
40213SOL     OW30568   4.044  11.982   0.485 -0.0916  0.1149  0.0130
40213SOL    HW130569   3.996  12.041   0.542 -0.8429 -1.0144  0.5811
40213SOL    HW230570   4.131  11.976   0.525 -0.7608 -1.0740  1.4029
40214SOL     OW30571   6.494   1.272   3.479 -0.0764 -0.6493  0.1826
40214SOL    HW130572   6.447   1.338   3.427  0.2244 -0.3987  0.2247
40214SOL    HW230573   6.534   1.215   3.414 -0.5478 -0.9471  0.1460
40215SOL     OW30574   3.039   0.146   8.401  0.3979 -0.1784  0.4107
40215SOL    HW130575   2.998   0.187   8.477 -0.0270 -1.2046  0.7586
40215SOL    HW230576   3.050   0.055   8.427 -1.8923 -1.1444 -1.5545
40216SOL     OW30577  10.827  12.554   3.236  0.3306  0.2274  0.1087
40216SOL    HW130578  10.883  12.582   3.309  0.3990  1.5032 -0.3988
40216SOL    HW230579  10.830  12.628   3.175 -0.4596 -0.4456 -0.7622
40217SOL     OW30580   5.634   7.114   5.588 -0.9393  0.2841  0.1575
40217SOL    HW130581   5.592   7.194   5.618  0.6995  1.8357 -1.4182
40217SOL    HW230582   5.575   7.078   5.522 -0.6323  1.5096 -0.8171
40218SOL     OW30583   1.413   3.303   2.497  0.2663  0.3331  0.1400
40218SOL    HW130584   1.359   3.364   2.448  0.8961  1.7277  1.1012
40218SOL    HW230585   1.429   3.347   2.581  0.4039 -1.3378  1.0434
40219SOL     OW30586   9.813   4.023  11.845 -0.2117  0.1370 -0.2907
40219SOL    HW130587   9.818   4.096  11.783 -0.2304  1.0824  0.7912
40219SOL    HW230588   9.896   3.978  11.836 -0.6066 -0.3523 -1.7189
40220SOL     OW30589   4.545   1.732   9.063  0.0044  0.4927 -0.4823
40220SOL    HW130590   4.502   1.681   9.132 -0.2447  3.2692  1.5503
40220SOL    HW230591   4.491   1.715   8.985 -2.1479  0.3539  0.9427
40221SOL     OW30592   4.075   5.804   7.367 -0.3555 -0.5127 -0.0940
40221SOL    HW130593   3.982   5.795   7.344 -0.6902  0.2654  0.8833
40221SOL    HW230594   4.077   5.800   7.463  0.0110  3.7619  0.2896
40222SOL     OW30595   0.483  12.092   2.879 -0.3824 -0.0519  0.3874
40222SOL    HW130596   0.390  12.116   2.869 -0.5305 -0.6446  0.3054
40222SOL    HW230597   0.511  12.068   2.790 -0.7028 -1.7972  0.7283
40223SOL     OW30598   8.965   0.144   3.649 -0.2941  0.2898 -0.1174
40223SOL    HW130599   9.039   0.093   3.681 -1.9712 -2.0501  0.2744
40223SOL    HW230600   8.980   0.232   3.682  1.3288 -0.5554  1.5491
40224SOL     OW30601   2.009  13.197   7.543 -0.5883  0.4482 -0.0878
40224SOL    HW130602   2.002  13.197   7.448 -0.6240 -1.1037 -0.1149
40224SOL    HW230603   2.082  13.256   7.563 -0.0437  0.1395 -1.1240
40225SOL     OW30604  11.817   0.393   5.660 -0.1263 -0.7783  0.0557
40225SOL    HW130605  11.803   0.425   5.749  2.0042 -1.5306  0.7155
40225SOL    HW230606  11.753   0.323   5.649 -1.9840  0.8332  0.1013
40226SOL     OW30607  13.033  10.754   0.939  0.2147 -0.3416 -0.3626
40226SOL    HW130608  12.980  10.731   1.016  0.0123 -0.5509 -0.5610
40226SOL    HW230609  13.058  10.669   0.902  0.8171 -0.2465 -0.1899
40227SOL     OW30610   9.294   8.800   4.686  0.2671  0.0639  0.0917
40227SOL    HW130611   9.296   8.744   4.608 -0.7608  0.7148 -0.4252
40227SOL    HW230612   9.248   8.747   4.752 -0.2555  0.0978 -0.2395
40228SOL     OW30613   0.230  11.870  13.004 -0.5014 -0.1836 -0.0709
40228SOL    HW130614   0.293  11.862  12.932 -0.2012 -0.3237  0.2033
40228SOL    HW230615   0.164  11.804  12.985 -1.2562  0.8064 -1.0370
40229SOL     OW30616   5.714   5.780  11.206  0.5593 -0.3338 -0.5911
40229SOL    HW130617   5.788   5.811  11.258  1.9871 -0.6103 -2.3573
40229SOL    HW230618   5.718   5.685  11.212  0.5989 -0.3618 -1.0219
40230SOL     OW30619   6.690   6.817  13.203  0.6939  0.5142 -0.6959
40230SOL    HW130620   6.598   6.838  13.222  1.1337 -0.3745  3.3190
40230SOL    HW230621   6.695   6.722  13.211  1.7984  0.4334 -2.0444
40231SOL     OW30622   0.799   8.319   0.008 -0.3701  0.1887 -0.3866
40231SOL    HW130623   0.773   8.374   0.082 -1.0199 -1.0593  0.3682
40231SOL    HW230624   0.853   8.250   0.047  0.4658  0.2933 -1.3084
40232SOL     OW30625   4.670   1.254   6.890 -0.3351  0.0421 -0.1871
40232SOL    HW130626   4.686   1.193   6.817 -0.5426 -0.0379 -0.1673
40232SOL    HW230627   4.609   1.207   6.947  1.8572 -1.0447  1.4467
40233SOL     OW30628  11.506  10.833   0.706  0.2890 -0.9088 -0.1602
40233SOL    HW130629  11.503  10.858   0.614  0.0019 -1.5748 -0.3423
40233SOL    HW230630  11.570  10.762   0.709  1.4313  0.1285  0.4199
40234SOL     OW30631   3.378   0.561  10.083 -1.0237 -0.1741  0.2541
40234SOL    HW130632   3.314   0.542  10.151 -0.2940 -1.2287  0.6706
40234SOL    HW230633   3.458   0.583  10.130  0.0196 -2.6859 -0.1814
40235SOL     OW30634   0.976   3.349   5.912  0.5912  0.4228 -0.6748
40235SOL    HW130635   0.951   3.257   5.923 -1.8019  1.1020  0.1503
40235SOL    HW230636   0.949   3.371   5.823 -2.0472  1.1524  0.2115
40236SOL     OW30637   2.659   4.132   9.304 -0.2304 -0.4203 -0.3862
40236SOL    HW130638   2.740   4.145   9.353  1.7728 -2.2040 -2.8988
40236SOL    HW230639   2.601   4.086   9.365  0.5034  1.1337  1.5669
40237SOL     OW30640  12.053   6.582   4.669  0.1014  0.2332 -0.1422
40237SOL    HW130641  11.985   6.559   4.606  1.5175  1.2309 -2.1595
40237SOL    HW230642  12.028   6.669   4.700  0.0519  0.2691 -0.2831
40238SOL     OW30643   5.809   9.568   0.108 -0.0986  0.2404  0.0716
40238SOL    HW130644   5.792   9.598   0.197 -0.1926  1.7207 -0.4257
40238SOL    HW230645   5.750   9.620   0.054 -1.6246 -2.1205 -0.7118
40239SOL     OW30646   4.055   6.132  10.506 -0.4294  0.7252  0.6317
40239SOL    HW130647   4.056   6.172  10.593 -0.2369  0.5406  0.7156
40239SOL    HW230648   4.146   6.110  10.488 -0.8060 -2.6490  2.0019
40240SOL     OW30649   0.752   4.102   1.313  0.1785  0.3334 -0.3790
40240SOL    HW130650   0.664   4.109   1.276  0.8775 -1.1869 -2.5709
40240SOL    HW230651   0.744   4.040   1.384 -0.9908  2.4020  1.4174
40241SOL     OW30652   3.786   0.496  12.589 -0.2766  0.0220  0.3262
40241SOL    HW130653   3.720   0.448  12.540  0.1438 -0.6541  0.4143
40241SOL    HW230654   3.856   0.433  12.604 -0.0267  0.4580  1.0619
40242SOL     OW30655   9.297  12.296   0.017 -0.1370 -0.3146 -1.0422
40242SOL    HW130656   9.338  12.332   0.096 -2.2045 -0.5713  0.2063
40242SOL    HW230657   9.320  12.359  -0.052  3.6047 -1.2179 -0.8556
40243SOL     OW30658   7.721   2.092   1.473 -0.0687  0.3096 -0.2435
40243SOL    HW130659   7.639   2.066   1.517 -0.3669  0.7983 -0.5012
40243SOL    HW230660   7.747   2.172   1.518  0.0736  0.3552 -0.4103
40244SOL     OW30661  11.564  12.939   9.061 -0.3160  0.2101  0.1865
40244SOL    HW130662  11.519  12.914   9.142 -1.3413  1.2693 -0.0373
40244SOL    HW230663  11.603  13.024   9.080  1.2775 -0.4941  0.2313
40245SOL     OW30664  12.267   3.532  11.400 -0.0210  0.0640  0.5836
40245SOL    HW130665  12.188   3.531  11.454 -0.5997  1.9034 -0.1533
40245SOL    HW230666  12.281   3.624  11.381  0.6189 -0.4596 -1.7462
40246SOL     OW30667   3.163   4.744   7.467 -0.5260 -0.3886  0.3617
40246SOL    HW130668   3.148   4.705   7.380 -1.5749 -0.4369  0.5474
40246SOL    HW230669   3.091   4.710   7.521 -1.1037  1.2740  0.7087
40247SOL     OW30670   4.064   8.712  11.636 -0.0002  0.1518 -0.1558
40247SOL    HW130671   4.084   8.788  11.690  0.2014 -1.2253  1.7927
40247SOL    HW230672   3.989   8.670  11.679  0.0657 -0.9212 -1.0342
40248SOL     OW30673   2.767   0.911  11.471  0.2745  0.1167 -0.2633
40248SOL    HW130674   2.790   0.880  11.383 -0.6187  0.0787 -0.4894
40248SOL    HW230675   2.679   0.876  11.486  0.2132  0.5667  0.4350
40249SOL     OW30676   9.642   7.220   8.093  1.0229 -0.3915 -0.3481
40249SOL    HW130677   9.566   7.202   8.148  0.7133 -0.2190 -0.7143
40249SOL    HW230678   9.606   7.260   8.014  1.6795  1.5956  0.3165
40250SOL     OW30679   8.604   0.574  12.654  0.4201  0.0649 -0.7972
40250SOL    HW130680   8.512   0.577  12.626  0.2194  0.5960 -0.0923
40250SOL    HW230681   8.600   0.572  12.750  1.1453 -0.0700 -0.7664
40251SOL     OW30682  12.397   3.295  11.403  0.0984 -0.1429 -0.1467
40251SOL    HW130683  12.457   3.288  11.329  0.1749  1.1148 -0.2198
40251SOL    HW230684  12.368   3.386  11.402 -0.2358 -0.2219  1.1160
40252SOL     OW30685  11.584   3.156  10.364 -0.7758  0.0572 -0.1429
40252SOL    HW130686  11.600   3.135  10.272 -1.7386  0.4837 -0.4227
40252SOL    HW230687  11.655   3.112  10.412 -0.3658 -0.3108 -1.0674
40253SOL     OW30688  12.853  10.185   3.219 -0.4156 -0.4152  0.1918
40253SOL    HW130689  12.936  10.215   3.255 -0.1293 -0.0653 -0.7094
40253SOL    HW230690  12.871  10.174   3.125 -0.9814 -1.7731  0.2230
40254SOL     OW30691   4.283   4.027   8.984  0.3606  0.1893  0.3826
40254SOL    HW130692   4.249   4.007   8.897  0.5264 -0.4902  0.4697
40254SOL    HW230693   4.279   4.122   8.990  2.9673  0.5017 -1.4225
40255SOL     OW30694  12.966   2.558   9.143  0.2038 -0.0161  0.3105
40255SOL    HW130695  12.946   2.602   9.061  2.1462 -0.6287 -0.5569
40255SOL    HW230696  13.043   2.604   9.177  0.9469 -1.3315  0.4750
40256SOL     OW30697  11.260   9.368   2.940 -0.0489  0.0300  0.3391
40256SOL    HW130698  11.270   9.372   3.035  1.0828 -2.4273  0.4295
40256SOL    HW230699  11.344   9.399   2.906 -0.0618 -0.0995  0.1873
40257SOL     OW30700   1.602  12.582   0.473  0.5718 -0.9685  0.1004
40257SOL    HW130701   1.542  12.628   0.415  2.1672  1.8884  0.5216
40257SOL    HW230702   1.547  12.549   0.544 -0.8268 -0.8410 -0.8840
40258SOL     OW30703   3.819   0.979  10.531 -0.1697  0.7423  0.2771
40258SOL    HW130704   3.909   0.946  10.532 -0.1388  0.8287  1.0157
40258SOL    HW230705   3.817   1.045  10.601 -0.4075  1.8486 -0.7500
40259SOL     OW30706   9.355   5.105   3.578  0.5646 -0.0665  0.5168
40259SOL    HW130707   9.291   5.175   3.562  0.5414 -0.1354  0.3061
40259SOL    HW230708   9.430   5.149   3.617 -0.1284 -0.1721  2.0251
40260SOL     OW30709   2.325   1.830   3.463  0.1845  0.1917 -0.0874
40260SOL    HW130710   2.242   1.876   3.449 -0.1473 -0.4738 -0.3219
40260SOL    HW230711   2.305   1.762   3.527  0.9223  1.0270  1.0784
40261SOL     OW30712   2.603  10.608   3.408 -0.0653  0.0026  0.0885
40261SOL    HW130713   2.610  10.601   3.503 -0.2047  0.2307  0.1174
40261SOL    HW230714   2.692  10.625   3.378 -0.3465  2.4157  0.4063
40262SOL     OW30715   8.559   2.264   3.109 -0.2920 -0.2859  0.2394
40262SOL    HW130716   8.650   2.277   3.135  0.1148 -2.3241  0.0284
40262SOL    HW230717   8.519   2.222   3.185 -1.1648  0.9055  0.4544
40263SOL     OW30718  12.770   2.646  12.981  0.0719  0.0668 -0.3340
40263SOL    HW130719  12.768   2.665  13.075 -0.9859  0.9994 -0.5177
40263SOL    HW230720  12.691   2.688  12.947  0.5740 -0.0409 -1.6863
40264SOL     OW30721   0.549  12.576   3.385  0.3103  0.2564  0.3463
40264SOL    HW130722   0.573  12.488   3.355 -0.2453  0.6524 -1.2942
40264SOL    HW230723   0.563  12.632   3.310 -2.0303  1.1322  0.5042
40265SOL     OW30724   8.346   4.317   6.244 -0.2347  0.0099  0.4121
40265SOL    HW130725   8.265   4.356   6.211  0.2715 -0.1514 -1.1091
40265SOL    HW230726   8.416   4.372   6.208  0.3632  0.0579  1.5718
40266SOL     OW30727   3.341   0.712   2.805  0.0089  0.3302 -0.1136
40266SOL    HW130728   3.354   0.637   2.747  0.7518 -0.3194  0.8498
40266SOL    HW230729   3.289   0.774   2.754 -0.6601 -0.8617 -0.9105
40267SOL     OW30730   8.314   5.608   1.550  0.8765 -0.4140  0.6844
40267SOL    HW130731   8.234   5.608   1.498  0.6609  0.7193  0.9899
40267SOL    HW230732   8.330   5.516   1.570  0.4396 -0.7758 -0.5627
40268SOL     OW30733   7.699   4.826   7.006 -0.2666 -0.1823  0.0075
40268SOL    HW130734   7.666   4.839   7.095 -1.4107  2.4029 -0.7064
40268SOL    HW230735   7.633   4.772   6.963 -0.9085  0.4987  0.1158
40269SOL     OW30736   0.740   6.260   7.706  0.0910 -0.5257  0.5606
40269SOL    HW130737   0.732   6.183   7.762  0.5293 -1.9297 -1.1977
40269SOL    HW230738   0.825   6.298   7.729  0.6704 -1.5991  0.2579
40270SOL     OW30739   6.398   3.245  11.192 -0.2785 -0.4026 -0.3071
40270SOL    HW130740   6.459   3.191  11.242 -0.6069 -1.4582 -1.0174
40270SOL    HW230741   6.396   3.206  11.105 -0.6426  0.6752 -0.8100
40271SOL     OW30742  10.302   9.508   0.058 -0.3186 -0.1830 -0.4319
40271SOL    HW130743  10.240   9.446   0.096  0.9538 -0.9701  0.4434
40271SOL    HW230744  10.351   9.541   0.134  0.2532  0.5193 -1.0936
40272SOL     OW30745   5.769   5.524  11.189 -0.0131 -0.0203 -0.4437
40272SOL    HW130746   5.797   5.487  11.105  1.0867  0.6193 -0.3881
40272SOL    HW230747   5.838   5.498  11.251 -1.0618 -0.8954  0.3740
40273SOL     OW30748  10.830   9.546  11.099 -0.0342 -0.0539  0.3042
40273SOL    HW130749  10.856   9.455  11.083 -3.1076 -0.7988 -1.1497
40273SOL    HW230750  10.907   9.598  11.076  1.2577 -2.1755 -0.4001
40274SOL     OW30751   5.626   2.540   0.040  0.1332  0.0066  0.1768
40274SOL    HW130752   5.599   2.584  -0.040 -0.2156  1.3422  1.0018
40274SOL    HW230753   5.582   2.587   0.110  0.3478 -1.1920  1.1694
40275SOL     OW30754   5.774  12.065   2.562 -0.5287 -0.0355  0.9439
40275SOL    HW130755   5.693  12.104   2.532  0.0093  1.6167  1.5056
40275SOL    HW230756   5.775  11.977   2.524 -0.9683  1.0851 -1.8645
40276SOL     OW30757   0.338   1.108   3.631 -0.1379  0.2044 -0.2285
40276SOL    HW130758   0.431   1.123   3.650  0.7319 -2.4669 -1.8572
40276SOL    HW230759   0.322   1.155   3.549 -0.5042  1.3528  0.4743
40277SOL     OW30760   5.111  12.302   5.636  0.1429 -0.1338 -0.2305
40277SOL    HW130761   5.087  12.365   5.568 -0.2811  0.6778  0.6338
40277SOL    HW230762   5.206  12.302   5.637  0.1969 -1.3685 -1.8948
40278SOL     OW30763   1.080   6.280   5.890  0.0287 -0.0871  0.1361
40278SOL    HW130764   1.079   6.269   5.985  0.4520 -3.3946 -0.0896
40278SOL    HW230765   1.023   6.210   5.857  1.4815 -0.3377 -2.0827
40279SOL     OW30766   0.692   5.060   5.903 -0.0131  0.3882  0.0787
40279SOL    HW130767   0.644   5.136   5.871  1.8467  0.9787 -1.4578
40279SOL    HW230768   0.628   4.989   5.900 -1.2045  1.4406 -0.4153
40280SOL     OW30769   1.509   2.652   8.014  0.0282  0.1012 -0.2622
40280SOL    HW130770   1.515   2.679   7.922  1.1478 -0.0279 -0.2403
40280SOL    HW230771   1.526   2.557   8.011 -0.9828 -0.1002 -0.0246
40281SOL     OW30772   9.345  12.294   6.331 -0.1531  0.2786  0.6847
40281SOL    HW130773   9.328  12.300   6.425  0.0798 -1.9135  0.9141
40281SOL    HW230774   9.285  12.227   6.299  0.4234  0.3188 -0.5533
40282SOL     OW30775   8.164   0.643   1.618  0.2175 -0.1225 -0.0780
40282SOL    HW130776   8.196   0.733   1.612 -0.3072  0.0541 -0.2499
40282SOL    HW230777   8.241   0.589   1.601  0.5095  0.2936 -0.0927
40283SOL     OW30778  12.609   9.445   9.546 -0.6592  0.0986  0.3424
40283SOL    HW130779  12.653   9.385   9.486 -2.8821 -1.5053  0.1999
40283SOL    HW230780  12.566   9.388   9.610  0.4144  1.7011  2.6885
40284SOL     OW30781   9.846   4.258   5.200 -0.1449 -0.5889 -0.3981
40284SOL    HW130782   9.863   4.335   5.146 -2.0084 -1.6125 -2.6143
40284SOL    HW230783   9.928   4.208   5.196 -0.2340 -0.6604 -2.4156
40285SOL     OW30784   8.390   2.293   7.932  0.6196  0.3421 -0.1980
40285SOL    HW130785   8.336   2.220   7.903  1.1962 -0.7069  1.2841
40285SOL    HW230786   8.362   2.311   8.022  1.5717  0.8990  0.0094
40286SOL     OW30787   9.026   7.498   4.034 -0.5833  0.0190  0.4186
40286SOL    HW130788   8.971   7.445   3.977 -1.4075 -0.7302  1.8702
40286SOL    HW230789   9.033   7.448   4.115  1.5076  0.5274  0.6047
40287SOL     OW30790  12.101   7.320   1.224 -0.4287  0.5358 -0.5526
40287SOL    HW130791  12.023   7.290   1.177  0.3471  0.7783 -2.0545
40287SOL    HW230792  12.143   7.240   1.255 -0.8200  0.3615 -0.4650
40288SOL     OW30793  10.631   7.114  10.146  0.5097 -0.0148 -0.0322
40288SOL    HW130794  10.637   7.095  10.052  1.7509  0.6285 -0.1012
40288SOL    HW230795  10.702   7.175  10.163 -1.6723  2.4748  0.7272
40289SOL     OW30796   8.309   4.493  11.350 -0.4071  0.6065 -0.1432
40289SOL    HW130797   8.290   4.401  11.370 -0.4402  0.4852 -0.7287
40289SOL    HW230798   8.396   4.508  11.385 -0.2047  0.2133 -0.4793
40290SOL     OW30799  12.393  10.632  13.127 -0.3166 -0.4037  1.0546
40290SOL    HW130800  12.406  10.596  13.215  1.5196 -2.5688  0.0189
40290SOL    HW230801  12.428  10.564  13.068 -0.0957  1.5861 -1.2838
40291SOL     OW30802   3.080  12.509  10.675  0.8021  0.1863 -0.4398
40291SOL    HW130803   3.090  12.472  10.763 -0.3230 -0.0580 -0.3995
40291SOL    HW230804   3.078  12.603  10.689 -1.0808  0.1087  0.0161
40292SOL     OW30805   2.422  10.364   0.890 -0.4688 -0.6184  0.2745
40292SOL    HW130806   2.406  10.295   0.954 -2.8436 -1.4859 -1.1002
40292SOL    HW230807   2.517  10.375   0.889 -0.3021  0.6982  5.1069
40293SOL     OW30808   4.143  12.940   6.155  0.0904 -0.1030 -0.4975
40293SOL    HW130809   4.093  12.925   6.074 -0.8462 -0.9117  0.1958
40293SOL    HW230810   4.162  12.852   6.188 -1.9948  0.1241  1.5881
40294SOL     OW30811   7.013   7.237   3.387  0.3169  0.5823 -1.0080
40294SOL    HW130812   7.015   7.256   3.293  0.1102  1.1318 -0.9083
40294SOL    HW230813   7.103   7.250   3.416  0.4218  0.2123 -1.1659
40295SOL     OW30814  11.921  11.405   2.946  0.1168 -0.5955  0.7511
40295SOL    HW130815  11.848  11.463   2.971 -1.6156 -3.3815  2.8375
40295SOL    HW230816  11.989  11.424   3.010  0.7579  1.0275 -0.3382
40296SOL     OW30817   8.501  12.775   7.689 -0.1013 -0.3432 -0.0538
40296SOL    HW130818   8.426  12.764   7.747  0.9529 -0.5405  1.3339
40296SOL    HW230819   8.533  12.863   7.707  0.0726 -0.3041 -0.5386
40297SOL     OW30820   5.026  12.923   5.005 -0.4963  0.4142 -0.1038
40297SOL    HW130821   5.064  12.926   4.917 -1.3897  0.2158 -0.5059
40297SOL    HW230822   4.938  12.889   4.992  0.4767 -3.0658  1.2714
40298SOL     OW30823   0.667   2.626   0.266  0.3497  0.1998 -0.3831
40298SOL    HW130824   0.686   2.535   0.246  1.0023  0.4258 -0.8115
40298SOL    HW230825   0.661   2.629   0.362 -2.5950 -0.8418 -0.4269
40299SOL     OW30826  11.064   6.389   7.908  0.1303  0.4053  0.1285
40299SOL    HW130827  11.155   6.387   7.878  0.0706  1.6180 -0.1802
40299SOL    HW230828  11.047   6.481   7.926 -1.5453  0.4478 -1.4093
40300SOL     OW30829   2.134  10.731   3.358  0.0024  0.5468 -0.0983
40300SOL    HW130830   2.138  10.636   3.351  1.0442  0.3967  1.7621
40300SOL    HW230831   2.043  10.753   3.342 -0.2620 -0.7719 -0.5192
40301SOL     OW30832   7.557   0.982   9.629 -0.2083 -0.7319  0.5106
40301SOL    HW130833   7.553   0.901   9.578 -1.5886 -0.5858  0.3402
40301SOL    HW230834   7.529   0.957   9.717 -1.4245 -0.3342  0.2691
40302SOL     OW30835   0.996   2.692   7.000 -0.0683 -0.2369  0.7297
40302SOL    HW130836   0.935   2.739   7.057 -0.4719  2.5622 -1.7436
40302SOL    HW230837   1.072   2.751   6.992 -0.6089  0.2349 -2.5341
40303SOL     OW30838   8.398   5.413   0.645  0.2551 -0.4788 -0.0435
40303SOL    HW130839   8.485   5.417   0.607  0.0137  1.8351 -0.4999
40303SOL    HW230840   8.413   5.401   0.739  0.9668 -1.9350 -0.3133
40304SOL     OW30841  13.006   6.035   7.389 -0.5572  0.0068  0.1716
40304SOL    HW130842  13.083   5.997   7.431  0.0981 -0.3697 -1.3127
40304SOL    HW230843  12.947   5.960   7.376 -1.2442  0.3078  1.3845
40305SOL     OW30844   8.965   4.378  12.774 -0.1670 -0.4039 -0.2166
40305SOL    HW130845   8.999   4.462  12.743 -1.0089  1.0588  2.5488
40305SOL    HW230846   9.015   4.359  12.853 -0.4279 -2.2398 -0.4400
40306SOL     OW30847   8.877   7.199   4.569 -0.3166  0.1666  0.0765
40306SOL    HW130848   8.888   7.207   4.475 -0.1093 -0.9832 -0.0042
40306SOL    HW230849   8.782   7.193   4.582 -0.3648  0.6735 -0.0226
40307SOL     OW30850   7.633   0.870   3.984 -0.1003  0.2453  0.6409
40307SOL    HW130851   7.571   0.801   3.963  1.8655 -1.3905 -0.0615
40307SOL    HW230852   7.627   0.932   3.911 -0.7477  0.0064  0.4910
40308SOL     OW30853   8.078   3.927   2.459  0.4282  0.1530  0.2752
40308SOL    HW130854   8.003   3.986   2.458  1.3679  1.4270 -1.0902
40308SOL    HW230855   8.153   3.985   2.471  1.3069 -0.8725 -0.1130
40309SOL     OW30856  12.043   4.834   3.259 -0.6701 -0.0928  0.0746
40309SOL    HW130857  11.989   4.900   3.216 -0.4761 -0.8591 -1.4130
40309SOL    HW230858  12.133   4.863   3.243 -0.5992 -0.3707 -0.0390
40310SOL     OW30859   5.252  12.734   9.027  0.1392 -0.5637 -0.2398
40310SOL    HW130860   5.339  12.767   9.050  0.6616 -0.9269 -1.5960
40310SOL    HW230861   5.220  12.694   9.108  1.5979 -1.1833  0.0663
40311SOL     OW30862   4.212   6.408   3.796  0.1326 -0.7523 -0.1032
40311SOL    HW130863   4.264   6.489   3.800  0.5405 -1.0027 -0.2404
40311SOL    HW230864   4.201   6.382   3.888 -1.4030  0.3284  0.0561
40312SOL     OW30865   5.450  10.744   4.423  0.6281 -0.5783  0.1486
40312SOL    HW130866   5.438  10.799   4.500 -0.6265 -2.3923  1.3083
40312SOL    HW230867   5.393  10.668   4.437  1.6819 -1.8193 -1.7412
40313SOL     OW30868  12.457   8.592  12.789  0.2580  0.2539 -0.9147
40313SOL    HW130869  12.382   8.557  12.838  1.0313  0.2098  0.2654
40313SOL    HW230870  12.459   8.540  12.708 -2.0908  1.4648 -1.8859
40314SOL     OW30871  11.835   2.851   4.514 -0.4112  0.0677 -0.1184
40314SOL    HW130872  11.863   2.836   4.605 -2.5852  0.9977  0.7851
40314SOL    HW230873  11.807   2.765   4.483  2.0916 -0.6376 -0.6300
40315SOL     OW30874   7.307   5.180  10.479  0.1939 -0.1140 -0.4623
40315SOL    HW130875   7.371   5.200  10.411 -0.6757 -0.8177 -1.5231
40315SOL    HW230876   7.349   5.207  10.560  1.6163 -0.0597 -1.1824
40316SOL     OW30877   3.112   7.350   9.500 -0.5836  0.1356 -0.0521
40316SOL    HW130878   3.176   7.379   9.436 -1.4834  0.3993 -0.8500
40316SOL    HW230879   3.122   7.410   9.574  2.1504 -1.6095  1.1968
40317SOL     OW30880   3.868   8.827   9.700  0.2484  0.5136  0.4952
40317SOL    HW130881   3.889   8.815   9.792  0.1571  1.0522  0.5916
40317SOL    HW230882   3.911   8.910   9.677  0.0070  0.5407  0.1379
40318SOL     OW30883  11.430  10.124  10.199 -0.5348 -0.1580  0.6782
40318SOL    HW130884  11.382  10.165  10.272 -2.4812 -1.2007  0.0554
40318SOL    HW230885  11.393  10.036  10.193 -1.4321  0.3181 -2.3960
40319SOL     OW30886   3.389   9.810   8.699  0.1325 -0.5390 -0.3555
40319SOL    HW130887   3.376   9.764   8.782 -0.8966  0.4800  0.0707
40319SOL    HW230888   3.302   9.842   8.675  0.4790 -0.4900 -1.6453
40320SOL     OW30889  11.605  10.162   7.662 -0.3650  0.3479  0.2728
40320SOL    HW130890  11.528  10.215   7.643 -1.4105 -1.0315  0.4266
40320SOL    HW230891  11.647  10.205   7.736 -0.6489  1.4429 -0.1864
40321SOL     OW30892   9.251   4.052   0.552  0.1011 -0.3839 -0.2591
40321SOL    HW130893   9.255   4.001   0.471  1.1866  0.0359 -0.4875
40321SOL    HW230894   9.171   4.104   0.543  0.4690  0.0419 -1.3136
40322SOL     OW30895   4.045  11.124   3.179 -0.1430 -0.2673  0.5473
40322SOL    HW130896   4.128  11.089   3.145 -0.2612 -0.5242  0.5219
40322SOL    HW230897   4.047  11.217   3.156 -0.4329 -0.5279 -0.5923
40323SOL     OW30898  11.372   3.290   8.036  0.2160 -0.0853  0.2095
40323SOL    HW130899  11.438   3.222   8.025 -0.0996 -0.4024  0.2429
40323SOL    HW230900  11.310   3.253   8.100 -1.5620 -0.9953 -1.9047
40324SOL     OW30901   9.063   1.082   8.486  0.5595 -0.0043 -0.5300
40324SOL    HW130902   9.074   1.020   8.558  2.3518 -0.7378 -1.3647
40324SOL    HW230903   9.031   1.030   8.413 -0.5494  0.5948 -0.4895
40325SOL     OW30904   3.312  11.710   5.761 -0.0074  0.0842  0.5130
40325SOL    HW130905   3.291  11.783   5.703 -0.2832 -0.2447  0.1881
40325SOL    HW230906   3.298  11.744   5.849  0.5927  0.6414  0.3966
40326SOL     OW30907   0.168   3.212   1.153  0.1304 -0.4872  0.4101
40326SOL    HW130908   0.198   3.246   1.237  0.6480  0.1612 -0.0329
40326SOL    HW230909   0.244   3.219   1.096 -0.8893  1.3812 -0.7960
40327SOL     OW30910   7.892   8.173   8.299 -0.2304 -0.2179 -0.4217
40327SOL    HW130911   7.861   8.085   8.277 -2.4303  0.5561 -0.6691
40327SOL    HW230912   7.880   8.223   8.219  1.7047  0.1814 -0.5037
40328SOL     OW30913   9.675   1.627  12.401  0.3418  0.0917 -0.1457
40328SOL    HW130914   9.624   1.668  12.471 -0.5855 -2.1496  0.5708
40328SOL    HW230915   9.610   1.603  12.335  1.0313  0.8243 -1.1403
40329SOL     OW30916   8.013   7.769  11.409  0.0170  0.2011 -0.7329
40329SOL    HW130917   7.954   7.710  11.363 -1.1389 -1.7314  2.8136
40329SOL    HW230918   8.073   7.711  11.456  2.0018  2.0432 -0.8255
40330SOL     OW30919   3.617   2.235  12.979 -0.0022  0.5113 -0.5887
40330SOL    HW130920   3.588   2.144  12.971  0.5851  0.2732 -0.0247
40330SOL    HW230921   3.547   2.286  12.938 -0.6262 -0.1489 -0.3538
40331SOL     OW30922   8.508   1.615  10.451  0.0447  0.1524  0.1829
40331SOL    HW130923   8.500   1.703  10.414 -0.4328  0.5174  1.1354
40331SOL    HW230924   8.463   1.559  10.389  0.4720  0.5563 -0.5058
40332SOL     OW30925  10.244   1.085   2.590 -0.3232 -0.5900 -0.3112
40332SOL    HW130926  10.303   1.153   2.561 -1.1458  0.2142 -0.1576
40332SOL    HW230927  10.253   1.084   2.686  0.5001 -1.4736 -0.3822
40333SOL     OW30928  12.975   8.923   2.498  0.3468 -0.4048 -0.5930
40333SOL    HW130929  12.965   8.865   2.573 -0.4471 -0.1990 -0.5235
40333SOL    HW230930  13.017   9.001   2.534 -0.4106 -0.1361 -0.2575
40334SOL     OW30931   6.567  12.784   4.520  0.4746 -0.4024 -0.3321
40334SOL    HW130932   6.563  12.871   4.480  0.8764 -0.5932 -0.7952
40334SOL    HW230933   6.574  12.801   4.614  0.2765  0.0617 -0.3986
40335SOL     OW30934  13.109   0.284  11.924  0.2238  0.1902 -0.0433
40335SOL    HW130935  13.172   0.330  11.980  1.3358 -0.8243 -0.4315
40335SOL    HW230936  13.093   0.201  11.969  2.1526 -1.2301 -1.8042
40336SOL     OW30937   1.038  13.187  10.761 -0.2198  0.1700 -0.8628
40336SOL    HW130938   0.999  13.191  10.848  0.3090  4.1477 -0.6541
40336SOL    HW230939   1.132  13.180  10.778 -0.0285  2.0283 -1.0304
40337SOL     OW30940  10.282   0.254   6.140  1.3041 -0.0494  0.2314
40337SOL    HW130941  10.194   0.281   6.114  1.4698  1.3716  1.1054
40337SOL    HW230942  10.268   0.175   6.193  0.6994 -0.7857 -0.9761
40338SOL     OW30943   7.491   2.500  12.131  0.2525 -0.2004 -0.6471
40338SOL    HW130944   7.546   2.421  12.131 -0.0202 -0.4570  1.5180
40338SOL    HW230945   7.403   2.467  12.113  0.5232  0.0145 -2.5589
40339SOL     OW30946   6.597   7.069   5.154  0.6579 -0.1636 -0.0053
40339SOL    HW130947   6.557   7.143   5.199 -0.2537 -1.6986  1.8960
40339SOL    HW230948   6.690   7.089   5.152  0.3984  1.1346  0.2086
40340SOL     OW30949  11.153   9.617   0.100  0.0049 -0.1995  0.1767
40340SOL    HW130950  11.096   9.546   0.129 -1.8585  1.4691  0.8715
40340SOL    HW230951  11.107   9.656   0.025  0.6033  0.6860  0.2541
40341SOL     OW30952   9.896   8.767   7.115  0.1089 -0.5049 -0.3857
40341SOL    HW130953   9.854   8.684   7.092 -2.3758  0.5480 -0.0266
40341SOL    HW230954   9.971   8.742   7.169 -0.5060 -2.5054 -0.3664
40342SOL     OW30955  12.895  12.506   4.028 -0.0570 -0.0880  0.8226
40342SOL    HW130956  12.814  12.469   4.062 -0.3062  0.2579  0.5986
40342SOL    HW230957  12.957  12.433   4.032 -0.4801 -0.4638  0.6176
40343SOL     OW30958   4.295  13.235   8.319 -0.0504  0.3327 -0.2056
40343SOL    HW130959   4.214  13.192   8.292  0.2793 -1.1332  0.9807
40343SOL    HW230960   4.363  13.195   8.264  0.1883 -0.3578  0.5604
40344SOL     OW30961   0.141   5.325   9.206  0.1354 -0.0202 -0.6900
40344SOL    HW130962   0.094   5.402   9.173 -0.8449 -0.9333 -1.4899
40344SOL    HW230963   0.143   5.265   9.132  1.0309 -0.7141 -0.1228
40345SOL     OW30964  10.852  11.163   4.410  0.1168  0.0826  0.6984
40345SOL    HW130965  10.781  11.099   4.415 -0.2496  0.3989 -0.2560
40345SOL    HW230966  10.823  11.234   4.467 -0.4633  0.3192  0.1280
40346SOL     OW30967   5.772   3.550  11.781 -0.2461 -0.9593  0.4380
40346SOL    HW130968   5.699   3.487  11.785 -0.0830 -1.0996  2.8928
40346SOL    HW230969   5.790   3.571  11.873  1.4888  0.6391 -0.2109
40347SOL     OW30970   8.702   6.932   1.574  0.3009 -0.2656 -0.0178
40347SOL    HW130971   8.707   7.027   1.586 -1.0734 -0.1397 -0.2264
40347SOL    HW230972   8.752   6.896   1.647 -0.3656  0.6019  0.9031
40348SOL     OW30973   2.346  11.469   2.097 -0.1959  0.1741 -0.2726
40348SOL    HW130974   2.258  11.500   2.076  0.6294  1.8508 -1.5297
40348SOL    HW230975   2.401  11.547   2.087  1.1338 -0.2034  2.8627
40349SOL     OW30976  13.008  12.626  12.700 -0.2417 -0.1310 -0.1767
40349SOL    HW130977  13.052  12.691  12.646  0.8365  0.5648  1.4787
40349SOL    HW230978  12.915  12.648  12.694 -0.1984 -0.3016 -1.9956
40350SOL     OW30979   4.724   6.214  10.865  0.3970 -0.3209 -0.3763
40350SOL    HW130980   4.702   6.141  10.807  0.4202  0.6175 -1.6132
40350SOL    HW230981   4.812   6.193  10.897 -0.9120 -2.5669  2.1676
40351SOL     OW30982   0.972   1.790  12.042 -0.1613  0.0420  0.4922
40351SOL    HW130983   0.892   1.739  12.038  0.0883 -0.3368  0.2490
40351SOL    HW230984   0.956   1.866  11.986  0.2661 -0.9213 -0.9945
40352SOL     OW30985   2.635   6.164   7.808  0.1017 -0.6142  0.0601
40352SOL    HW130986   2.647   6.142   7.901  1.9346 -0.4396 -0.1056
40352SOL    HW230987   2.595   6.085   7.771 -1.0461 -0.5415  1.0381
40353SOL     OW30988  11.306   1.354   5.366  0.2384 -0.1609 -0.0329
40353SOL    HW130989  11.300   1.279   5.306 -1.5345  1.0709 -1.4867
40353SOL    HW230990  11.234   1.341   5.428  1.2878 -0.7597  1.1202
40354SOL     OW30991   4.789   5.276  10.469 -0.2060  0.0998 -0.1540
40354SOL    HW130992   4.695   5.270  10.454 -0.2697  1.0111 -0.1404
40354SOL    HW230993   4.801   5.243  10.558 -0.6118  0.7138  0.1338
40355SOL     OW30994   7.980   7.114   5.390  0.3046  0.0314 -0.5694
40355SOL    HW130995   7.996   7.119   5.296 -1.7757 -0.4218 -0.9787
40355SOL    HW230996   7.918   7.042   5.401 -1.1161  1.3824  0.8985
40356SOL     OW30997   3.802  10.014   1.867 -0.4954  0.4405 -0.4471
40356SOL    HW130998   3.812  10.089   1.925 -0.8836 -0.0441  0.2505
40356SOL    HW230999   3.808   9.938   1.924 -2.1638 -0.0160 -0.8495
40357SOL     OW31000  13.244   9.533  12.430  0.1808 -0.7231 -0.0334
40357SOL    HW131001  13.318   9.583  12.465  1.4401 -0.8484 -2.3292
40357SOL    HW231002  13.171   9.595  12.431  0.6350 -0.1849  1.0755
40358SOL     OW31003   7.831  12.533   2.112 -0.2724  0.4507 -0.3348
40358SOL    HW131004   7.922  12.536   2.080  0.4391  1.2802  1.5901
40358SOL    HW231005   7.821  12.614   2.161 -1.4174 -0.5396  1.1314
40359SOL     OW31006  11.237   9.510   6.503  0.2544 -0.2918  0.3832
40359SOL    HW131007  11.288   9.467   6.572  1.3315 -0.1725 -0.3072
40359SOL    HW231008  11.303   9.544   6.443 -0.6497  0.1464 -0.3816
40360SOL     OW31009   5.030   7.255  12.436  0.3274 -0.1225 -0.2826
40360SOL    HW131010   5.116   7.231  12.400  0.8291  2.9623 -1.3860
40360SOL    HW231011   5.050   7.287  12.524  0.1240 -0.4513 -0.1137
40361SOL     OW31012  10.379   5.395  11.032  0.0980 -0.0524 -0.1054
40361SOL    HW131013  10.343   5.307  11.046 -1.0199  0.5281  0.8650
40361SOL    HW231014  10.347   5.421  10.946  1.8444 -1.2198 -1.1774
40362SOL     OW31015  13.145  10.787   5.494 -0.7207  0.3663 -0.3972
40362SOL    HW131016  13.208  10.858   5.483 -1.2055  0.8589 -0.0336
40362SOL    HW231017  13.104  10.778   5.408  0.1579 -0.2700 -0.7661
40363SOL     OW31018   6.912   8.233  11.051 -0.1723  0.2218 -0.8125
40363SOL    HW131019   6.827   8.250  11.011 -1.9241 -2.9844  1.0694
40363SOL    HW231020   6.916   8.292  11.126 -0.5771  0.6239 -1.1023
40364SOL     OW31021   3.393  10.205   1.405 -0.1423  0.3477  0.3433
40364SOL    HW131022   3.324  10.247   1.456 -1.9748 -1.6254 -0.3225
40364SOL    HW231023   3.387  10.112   1.429  1.6823 -0.0177 -0.4321
40365SOL     OW31024  11.336   0.177   3.809 -0.6476 -0.3228 -0.1519
40365SOL    HW131025  11.424   0.144   3.794 -0.1101  1.1837 -0.5150
40365SOL    HW231026  11.325   0.176   3.904 -0.2569 -0.5425 -0.1083
40366SOL     OW31027   4.306   3.570   2.587 -0.1248 -0.3787 -0.3904
40366SOL    HW131028   4.334   3.502   2.648 -0.5440  0.2609  0.5273
40366SOL    HW231029   4.253   3.524   2.522 -1.0163 -0.8212  0.6341
40367SOL     OW31030  10.618   3.817   8.205 -0.6947 -0.0655 -0.0052
40367SOL    HW131031  10.625   3.818   8.110  1.8793  3.3218  0.0190
40367SOL    HW231032  10.528   3.844   8.224 -0.8571  0.4807 -1.4866
40368SOL     OW31033   7.322   8.724   1.797 -0.1016 -0.1403 -0.1930
40368SOL    HW131034   7.245   8.716   1.854  0.8939 -0.1019  1.2121
40368SOL    HW231035   7.373   8.796   1.834  0.8515 -0.4682 -0.8083
40369SOL     OW31036   6.672   9.094   8.586 -0.2070 -0.4176 -0.6242
40369SOL    HW131037   6.688   9.174   8.637 -1.6195 -0.8990  0.6518
40369SOL    HW231038   6.750   9.085   8.531  1.6044 -0.0644  1.7088
40370SOL     OW31039  10.123   9.575  10.129 -0.0052  0.1380 -0.6292
40370SOL    HW131040  10.039   9.606  10.094 -0.6845 -2.1148 -1.1743
40370SOL    HW231041  10.114   9.585  10.224 -0.8379  0.0574 -0.6879
40371SOL     OW31042   3.702   0.166  11.876 -0.3329  0.2068  0.0733
40371SOL    HW131043   3.773   0.230  11.886 -0.2128 -0.0168  0.6642
40371SOL    HW231044   3.710   0.137  11.785  1.1890 -0.7973  0.4856
40372SOL     OW31045   6.719   5.282   6.481  0.1316  0.4996  0.3833
40372SOL    HW131046   6.636   5.236   6.486  0.2383  0.3887  1.1843
40372SOL    HW231047   6.702   5.367   6.522  0.2836  0.6773  0.0857
40373SOL     OW31048  12.031   4.371   1.193 -0.0368 -0.2002  0.1078
40373SOL    HW131049  12.002   4.307   1.258 -1.3542 -0.8368 -1.0565
40373SOL    HW231050  12.062   4.319   1.120  1.0698  0.5111  0.0449
40374SOL     OW31051   8.953   5.534   0.795  0.3810 -0.0883  0.3306
40374SOL    HW131052   9.034   5.574   0.765 -0.1573 -1.2241 -3.0052
40374SOL    HW231053   8.884   5.576   0.744 -0.8099 -1.2125  0.9380
40375SOL     OW31054  11.150   5.221  12.212 -0.5213 -0.1801  0.0897
40375SOL    HW131055  11.215   5.174  12.159 -1.8901  0.2711 -2.1251
40375SOL    HW231056  11.202   5.279  12.267  0.9946 -0.0390 -1.3873
40376SOL     OW31057   1.265   6.045   6.930 -0.6264  0.1935  0.1599
40376SOL    HW131058   1.172   6.059   6.911 -0.6433 -0.8348 -0.6294
40376SOL    HW231059   1.300   6.133   6.945 -1.7962  0.5668  0.8665
40377SOL     OW31060   2.251   6.279   8.021  0.3919  0.2556 -0.3753
40377SOL    HW131061   2.238   6.361   7.973  1.7125 -0.0844 -1.3556
40377SOL    HW231062   2.192   6.217   7.979 -0.8540  0.7314  0.5749
40378SOL     OW31063  12.393  12.235  11.827 -0.0179  0.8942 -0.3952
40378SOL    HW131064  12.376  12.329  11.819  3.3149  1.7667  0.8438
40378SOL    HW231065  12.482  12.230  11.863  0.0200 -2.7657 -0.6071
40379SOL     OW31066   3.804   8.279   2.313  1.0772  0.3689  0.4134
40379SOL    HW131067   3.792   8.192   2.350  0.3771  0.3800  0.2191
40379SOL    HW231068   3.726   8.327   2.339  1.6924  1.1058  0.9668
40380SOL     OW31069   5.174  12.275   5.212 -1.0499  0.1912 -0.2688
40380SOL    HW131070   5.134  12.320   5.286 -0.9538  1.6080 -1.0254
40380SOL    HW231071   5.225  12.343   5.168  1.6510 -1.3694  0.2448
40381SOL     OW31072  12.718   7.504   6.305 -0.4288 -0.5386  0.3087
40381SOL    HW131073  12.809   7.522   6.283 -0.3069  1.8521  2.3006
40381SOL    HW231074  12.713   7.409   6.311  1.8494 -0.7420 -0.1253
40382SOL     OW31075   6.615  12.344   2.489  0.0273  0.0529  0.3390
40382SOL    HW131076   6.569  12.427   2.503 -2.0599 -0.6417 -1.6400
40382SOL    HW231077   6.707  12.368   2.485 -0.3367  1.9570  1.7960
40383SOL     OW31078   1.733   6.697  10.049  0.3170  0.5285 -0.1440
40383SOL    HW131079   1.779   6.761  10.103 -2.5315  3.8639 -1.2974
40383SOL    HW231080   1.710   6.745   9.970 -0.6824 -2.4545 -1.8074
40384SOL     OW31081   8.103   0.291   6.595 -0.3140 -0.1937 -0.2011
40384SOL    HW131082   8.126   0.368   6.647  1.8943 -1.4184  0.7669
40384SOL    HW231083   8.008   0.289   6.595 -0.4070  2.0085  0.5102
40385SOL     OW31084   0.644   6.517  10.456  0.4693 -0.2089  0.1783
40385SOL    HW131085   0.614   6.465  10.381 -0.6219  0.1396  0.3491
40385SOL    HW231086   0.632   6.607  10.428 -0.1468 -0.0752  0.8278
40386SOL     OW31087  13.187   4.136   8.166  0.0049 -0.3189  1.0289
40386SOL    HW131088  13.095   4.152   8.150  0.3380  0.5824 -0.1309
40386SOL    HW231089  13.229   4.149   8.081  1.2236 -0.5167  1.5731
40387SOL     OW31090   8.868   0.482  12.644 -0.2617  0.2746  0.3446
40387SOL    HW131091   8.892   0.400  12.599  0.4617  0.3776  0.5263
40387SOL    HW231092   8.778   0.499  12.617 -0.3221 -0.4354  0.0809
40388SOL     OW31093   2.715   1.341   3.306  0.0900 -0.2024  0.3300
40388SOL    HW131094   2.777   1.280   3.344 -2.5743 -2.3308  1.5968
40388SOL    HW231095   2.661   1.288   3.247 -0.4952  1.5600 -0.8165
40389SOL     OW31096  11.726   1.961   4.859  0.2787 -0.2068 -0.3628
40389SOL    HW131097  11.729   1.928   4.769 -1.0598 -0.3221 -0.3758
40389SOL    HW231098  11.653   1.915   4.900 -0.3016  1.1820  0.2395
40390SOL     OW31099   6.424   6.911  10.790 -0.1101 -0.5792 -0.0123
40390SOL    HW131100   6.356   6.977  10.775  1.0928  0.8889  0.5991
40390SOL    HW231101   6.434   6.867  10.705 -0.5437  0.4606 -0.6296
40391SOL     OW31102   6.998  11.782  11.111  0.0152  0.2892 -0.1451
40391SOL    HW131103   6.962  11.865  11.141 -0.7877 -0.0585 -0.1302
40391SOL    HW231104   7.039  11.802  11.027 -0.4507  0.6342 -0.2892
40392SOL     OW31105   8.101  10.818  11.499  0.1447  0.6135  0.4421
40392SOL    HW131106   8.100  10.908  11.532 -0.8300  1.1119 -0.8548
40392SOL    HW231107   8.031  10.816  11.433 -0.8302 -1.4823  1.4444
40393SOL     OW31108  10.934   8.624   4.560 -0.3566 -0.3787 -0.3304
40393SOL    HW131109  10.998   8.556   4.538  2.6637  2.0507  0.1792
40393SOL    HW231110  10.977   8.676   4.629 -2.0985  2.4591 -1.1865
40394SOL     OW31111   0.652  11.252   4.111  0.0801 -0.6105 -0.0179
40394SOL    HW131112   0.692  11.280   4.193 -0.8168  1.1538 -0.1449
40394SOL    HW231113   0.571  11.208   4.138 -0.7467  0.8897  0.0467
40395SOL     OW31114   2.184   3.125  10.695 -0.2327 -0.3434 -0.5673
40395SOL    HW131115   2.123   3.159  10.761 -0.7988 -2.1480 -0.0959
40395SOL    HW231116   2.210   3.202  10.645 -1.6255  0.7353  0.2725
40396SOL     OW31117   3.582   9.519   0.209 -0.5940  0.6562  0.1886
40396SOL    HW131118   3.507   9.469   0.240  0.8168 -0.8134  1.4604
40396SOL    HW231119   3.583   9.597   0.263 -0.7132  0.2563  0.7777
40397SOL     OW31120   0.591  12.599   2.114 -0.5055 -0.9099  0.2584
40397SOL    HW131121   0.613  12.525   2.170  2.2860 -1.1991 -1.0544
40397SOL    HW231122   0.586  12.562   2.026 -1.3664  0.0891 -0.1319
40398SOL     OW31123   8.928   2.299   3.689 -0.3467  0.3648  0.1519
40398SOL    HW131124   9.015   2.269   3.716 -0.4864 -0.3789 -0.2126
40398SOL    HW231125   8.933   2.395   3.697  0.5257  0.3352  0.0784
40399SOL     OW31126   6.348   2.296   6.737 -0.4693  0.1576  0.7829
40399SOL    HW131127   6.377   2.341   6.657 -0.1952 -0.3535  0.5916
40399SOL    HW231128   6.254   2.314   6.742 -0.3112  1.0213  0.8840
40400SOL     OW31129   8.501   6.063  12.375  0.1214 -0.0319  0.0748
40400SOL    HW131130   8.442   6.135  12.399  2.1403  1.4507  0.9657
40400SOL    HW231131   8.502   6.006  12.452  0.5045  0.4269  0.4176
40401SOL     OW31132   6.642  10.038  12.360  0.5703  0.6052  0.0517
40401SOL    HW131133   6.663   9.961  12.307  1.3516  0.5747  0.3962
40401SOL    HW231134   6.719  10.051  12.415  1.1070  2.5700 -1.0915
40402SOL     OW31135   3.797   6.311   6.428  0.0659 -0.2363 -0.0042
40402SOL    HW131136   3.741   6.341   6.356  0.1280  2.0340  0.8159
40402SOL    HW231137   3.743   6.323   6.506  1.0876  0.3458  0.6278
40403SOL     OW31138   6.979  11.817   1.545 -0.9612  0.1553 -0.0218
40403SOL    HW131139   6.891  11.802   1.511 -1.2508  2.6341 -0.5453
40403SOL    HW231140   7.024  11.865   1.475  0.5305 -0.2928  0.5921
40404SOL     OW31141  12.391   8.561   7.417 -0.5009 -0.2504 -0.2692
40404SOL    HW131142  12.332   8.552   7.492 -0.1636 -2.7181 -0.2217
40404SOL    HW231143  12.344   8.524   7.343 -0.0274  0.2285 -0.8237
40405SOL     OW31144  10.393   2.698   3.696 -0.0265 -0.0556 -0.6831
40405SOL    HW131145  10.416   2.640   3.623 -0.3862  0.2131 -1.0111
40405SOL    HW231146  10.438   2.780   3.677 -2.1587  0.8982 -1.9736
40406SOL     OW31147   3.656   7.926   3.554 -0.4430  0.6371 -0.2797
40406SOL    HW131148   3.744   7.899   3.528 -0.6867  0.1794 -0.6550
40406SOL    HW231149   3.654   7.915   3.649 -0.7024 -1.2566 -0.4584
40407SOL     OW31150   8.485   4.145  11.425 -0.0054 -0.0324 -0.1293
40407SOL    HW131151   8.400   4.150  11.381  0.2506 -2.0094 -0.9377
40407SOL    HW231152   8.474   4.077  11.491  0.6754  0.3959  0.4338
40408SOL     OW31153  10.668  12.775  11.204 -0.0261  0.0965 -0.1816
40408SOL    HW131154  10.633  12.862  11.222 -0.6671 -0.4581  1.4937
40408SOL    HW231155  10.726  12.787  11.129 -0.1630  1.9477 -0.0284
40409SOL     OW31156   5.392   4.974   5.420  0.5677 -0.5144 -0.5751
40409SOL    HW131157   5.422   4.964   5.510 -0.0548  1.1645 -0.1461
40409SOL    HW231158   5.335   4.898   5.405  2.7744 -2.3056 -0.5260
40410SOL     OW31159   0.421   5.298  10.324  0.3787  0.2145  0.2083
40410SOL    HW131160   0.427   5.203  10.320 -0.7799  0.1410  0.0618
40410SOL    HW231161   0.421   5.317  10.418  0.6045  0.0841  0.2377
40411SOL     OW31162  10.072   0.014   0.401 -0.5286  0.3738  0.3054
40411SOL    HW131163  10.048  -0.068   0.358 -0.2765  0.0838  0.7131
40411SOL    HW231164  10.165   0.025   0.384 -0.4268  0.2588  0.7721
40412SOL     OW31165   0.125  12.810   1.438 -0.1445 -0.4826 -0.1505
40412SOL    HW131166   0.218  12.829   1.425 -0.4174  0.7816 -0.3814
40412SOL    HW231167   0.123  12.750   1.512  0.9419 -1.7135 -1.0770
40413SOL     OW31168   6.411   2.705   2.939 -0.1705 -0.0004  0.0295
40413SOL    HW131169   6.343   2.637   2.935  0.1272 -0.4384  1.7587
40413SOL    HW231170   6.492   2.656   2.956 -0.0942  0.8073  2.2767
40414SOL     OW31171   7.958   8.226  10.453 -0.4199  0.1825 -0.1798
40414SOL    HW131172   7.995   8.306  10.415 -2.0245  0.4507 -1.2939
40414SOL    HW231173   7.865   8.246  10.465 -0.8712 -1.5134 -0.5447
40415SOL     OW31174   7.034  11.631   4.504 -0.6102 -0.4988 -0.0142
40415SOL    HW131175   7.096  11.576   4.553 -0.1947  0.2547  0.3314
40415SOL    HW231176   7.079  11.715   4.496 -1.9153  0.3298  0.9616
40416SOL     OW31177   0.999   1.256  11.811  0.3544 -0.4364  0.3744
40416SOL    HW131178   0.918   1.297  11.779  0.9729 -0.1725 -0.9137
40416SOL    HW231179   1.068   1.293  11.757  1.5924  0.5783  2.5147
40417SOL     OW31180  10.522   7.667   9.830  1.1883  0.5419  0.0325
40417SOL    HW131181  10.510   7.615   9.909  0.3245 -1.4946 -1.3667
40417SOL    HW231182  10.594   7.624   9.784 -1.0741 -0.9893 -2.2868
40418SOL     OW31183   7.396   0.010   4.070  0.4554  0.0825  0.3006
40418SOL    HW131184   7.397   0.100   4.038  0.7268  0.6973  1.9947
40418SOL    HW231185   7.476  -0.029   4.035  1.3602  1.0938  1.1776
40419SOL     OW31186   0.102   8.411   1.031 -0.1162 -0.0222 -0.4375
40419SOL    HW131187   0.069   8.473   0.967 -0.2915 -0.5952 -0.9076
40419SOL    HW231188   0.025   8.384   1.081 -0.1098 -0.1587 -0.4982
40420SOL     OW31189   7.021  12.762  11.269 -0.2367 -0.4492 -0.2122
40420SOL    HW131190   7.081  12.766  11.194  0.8680  2.2005  0.6922
40420SOL    HW231191   7.078  12.758  11.345 -1.2410  0.2749  0.5997
40421SOL     OW31192   0.434   1.130  12.855  0.4059 -0.2610 -0.0904
40421SOL    HW131193   0.438   1.091  12.768 -0.2330  2.7197 -1.5902
40421SOL    HW231194   0.344   1.113  12.884 -0.1471  0.7794 -1.1155
40422SOL     OW31195   9.229  10.257   6.842  0.3524 -0.1824 -0.4447
40422SOL    HW131196   9.152  10.306   6.811  1.4395  1.8197 -0.1640
40422SOL    HW231197   9.198  10.167   6.849 -1.2960  0.1091 -2.6597
40423SOL     OW31198   4.724   0.102   9.532  0.1629  0.1947  0.4210
40423SOL    HW131199   4.649   0.123   9.475  1.0509  0.6217 -0.6224
40423SOL    HW231200   4.743   0.010   9.514  1.5370  0.7649 -1.3545
40424SOL     OW31201   3.797   6.413   7.068 -0.4825 -0.1523  0.5317
40424SOL    HW131202   3.755   6.461   7.140  1.1335  1.3081  0.5519
40424SOL    HW231203   3.767   6.456   6.989 -1.6797 -1.2992  0.3248
40425SOL     OW31204  12.819  10.137   8.874  0.0533  0.5014 -0.5073
40425SOL    HW131205  12.770  10.194   8.933  1.1639  0.6265  0.3342
40425SOL    HW231206  12.823  10.185   8.792 -0.0904  1.0896 -0.1771
40426SOL     OW31207  10.322  10.051   7.191  1.0596 -0.1290  0.1070
40426SOL    HW131208  10.328  10.113   7.264 -1.1331  1.7167 -1.1651
40426SOL    HW231209  10.240  10.004   7.205  2.6799 -2.9537  1.0591
40427SOL     OW31210   2.284   9.373   5.917 -0.3759 -0.0226  0.3008
40427SOL    HW131211   2.248   9.285   5.907 -0.5994 -0.2277  2.3729
40427SOL    HW231212   2.255   9.420   5.839 -0.4125 -1.7105 -0.7692
40428SOL     OW31213  11.672   3.986   4.035 -0.3818 -0.5785 -0.0732
40428SOL    HW131214  11.760   3.979   3.998  0.0341  1.3296  0.4324
40428SOL    HW231215  11.624   3.914   3.995  0.1640  0.9603 -3.9220
40429SOL     OW31216  10.885   8.668   6.722  0.5515 -0.3105  0.2612
40429SOL    HW131217  10.845   8.729   6.660  2.4860 -0.0540 -0.8471
40429SOL    HW231218  10.812   8.632   6.772 -0.9943  0.2547 -1.4723
40430SOL     OW31219  10.733   9.550   0.661 -0.3893 -0.1243  0.4063
40430SOL    HW131220  10.765   9.579   0.746  0.6190 -0.8831  0.3029
40430SOL    HW231221  10.798   9.487   0.631 -2.0676 -1.8696  0.2423
40431SOL     OW31222  12.280   5.717   2.465  0.2479 -0.1743  1.0172
40431SOL    HW131223  12.221   5.644   2.446 -0.1478  0.2294  0.6439
40431SOL    HW231224  12.366   5.676   2.475  0.2186 -0.6005 -0.1941
40432SOL     OW31225   4.012  10.756   0.936 -0.0412  0.3020  0.0226
40432SOL    HW131226   3.983  10.749   1.026 -0.9992  1.1866 -0.1984
40432SOL    HW231227   4.010  10.667   0.902 -1.7632  0.2111  0.2651
40433SOL     OW31228  12.849   8.992   8.611  0.0388  0.0037 -0.0514
40433SOL    HW131229  12.903   8.997   8.533 -0.7577  2.6945 -0.5440
40433SOL    HW231230  12.910   9.004   8.684  0.4227  0.5731 -0.4609
40434SOL     OW31231   1.947   1.394   4.009 -0.3714 -0.3944  0.0558
40434SOL    HW131232   1.945   1.456   4.082 -0.4814  0.2369 -0.4759
40434SOL    HW231233   1.915   1.444   3.934  0.8201 -0.6938 -0.6820
40435SOL     OW31234   0.293  11.817   5.699  0.1369 -0.7754  0.8265
40435SOL    HW131235   0.288  11.903   5.656 -1.1129 -0.8692  0.7314
40435SOL    HW231236   0.383  11.789   5.686  0.5746  0.5259  0.8564
40436SOL     OW31237   1.650   1.719  13.096 -0.2881 -0.0086 -0.2370
40436SOL    HW131238   1.581   1.662  13.061  0.4194 -1.0774  0.0651
40436SOL    HW231239   1.716   1.721  13.027  0.4525 -0.9491  0.4174
40437SOL     OW31240  10.252  11.992  12.370 -0.9603 -0.1432  0.0151
40437SOL    HW131241  10.192  11.947  12.310  0.3451 -1.2996 -0.4957
40437SOL    HW231242  10.326  12.018  12.314 -0.8484  0.9852  0.6737
40438SOL     OW31243   4.748   1.486  12.979 -0.5897  0.0349  0.3202
40438SOL    HW131244   4.776   1.440  12.900 -0.8636 -0.8334  0.7101
40438SOL    HW231245   4.829   1.521  13.017 -0.3239 -0.4704  0.2229
40439SOL     OW31246   0.111   9.257   9.329 -0.7459 -0.1788 -0.2619
40439SOL    HW131247   0.059   9.179   9.317 -0.2452 -0.3775 -1.2027
40439SOL    HW231248   0.100   9.307   9.248 -0.8215  0.5862  0.2057
40440SOL     OW31249   4.836   7.580  12.647 -0.2003  0.0714 -0.4953
40440SOL    HW131250   4.745   7.579  12.676 -0.1788  3.8204  0.1472
40440SOL    HW231251   4.886   7.564  12.727 -0.2592  0.9490 -0.2821
40441SOL     OW31252   7.586   1.767  11.199  0.3468  0.0445 -0.3512
40441SOL    HW131253   7.676   1.736  11.203  0.0247 -1.3428 -2.1664
40441SOL    HW231254   7.533   1.687  11.193 -1.2072  0.7376  2.4540
40442SOL     OW31255   3.446  13.172  10.127 -0.3948 -0.9829  0.3428
40442SOL    HW131256   3.540  13.172  10.141 -0.1879 -0.6429 -0.9179
40442SOL    HW231257   3.426  13.259  10.093 -1.0208 -1.3544 -0.2705
40443SOL     OW31258   9.418  12.551  12.902 -0.4511  0.4489  0.3488
40443SOL    HW131259   9.410  12.646  12.917  1.2306  0.9815 -1.6699
40443SOL    HW231260   9.512  12.536  12.897 -0.6823 -1.4205  0.9308
40444SOL     OW31261  10.838   2.413   4.154 -0.2496 -0.0174  0.1713
40444SOL    HW131262  10.817   2.423   4.247 -1.7300 -1.2645  0.0054
40444SOL    HW231263  10.934   2.417   4.151 -0.1892  0.5254  1.6727
40445SOL     OW31264   5.650   3.827  11.452 -0.1311 -0.2177  0.0671
40445SOL    HW131265   5.703   3.892  11.405 -0.0919 -0.4603 -0.2290
40445SOL    HW231266   5.587   3.797  11.387 -1.1450  0.6256  0.6294
40446SOL     OW31267   1.153   4.313   0.260 -0.1419  0.4289 -0.7065
40446SOL    HW131268   1.232   4.303   0.207  0.8054  0.1409  0.6985
40446SOL    HW231269   1.175   4.381   0.323 -0.8845  0.0708 -0.0453
40447SOL     OW31270   3.221   0.674   9.894 -0.1873 -0.1486  0.6010
40447SOL    HW131271   3.182   0.731   9.960  1.7413  1.5789  0.3630
40447SOL    HW231272   3.295   0.633   9.940 -0.5782 -1.2166  0.2984
40448SOL     OW31273   4.623   4.710   2.512 -0.3245  0.3650 -0.6586
40448SOL    HW131274   4.715   4.694   2.535 -0.6958  0.1475  0.7014
40448SOL    HW231275   4.620   4.804   2.493 -0.0213  0.5810  0.3081
40449SOL     OW31276  10.525   9.965   4.341  0.1131  0.1751  0.3506
40449SOL    HW131277  10.568  10.007   4.266 -0.8348 -1.2717 -1.0620
40449SOL    HW231278  10.447  10.018   4.356  1.3378  1.7226  1.7535
40450SOL     OW31279   8.196   5.988   2.400  0.6507  0.0145 -0.1073
40450SOL    HW131280   8.227   6.039   2.475  0.8085  0.8278 -0.7154
40450SOL    HW231281   8.221   5.898   2.420 -2.4624 -0.4754  2.5624
40451SOL     OW31282   3.499   1.035   7.130 -0.2338 -0.4078 -0.7805
40451SOL    HW131283   3.451   1.088   7.067  1.0175  0.3315 -1.1511
40451SOL    HW231284   3.582   1.014   7.086  0.3367 -0.5368  0.3215
40452SOL     OW31285   2.562   8.764   5.628  0.3646 -0.0771 -0.1311
40452SOL    HW131286   2.619   8.820   5.576  0.9064 -1.1753 -0.7589
40452SOL    HW231287   2.513   8.713   5.563  0.8530 -1.2850  0.4221
40453SOL     OW31288   8.039   3.629   2.777  0.4256 -0.1223  0.1401
40453SOL    HW131289   8.006   3.539   2.778 -1.0089  0.3807 -0.3064
40453SOL    HW231290   7.972   3.680   2.821  1.2891  0.7303  0.5053
40454SOL     OW31291   2.438   5.320   1.240 -0.1500  0.2131 -0.1315
40454SOL    HW131292   2.493   5.260   1.290  0.2254  0.3262 -0.4105
40454SOL    HW231293   2.396   5.375   1.306 -1.7512 -1.3737  0.2852
40455SOL     OW31294   7.897  13.262   8.377 -0.1947 -0.7274 -0.1084
40455SOL    HW131295   7.837  13.243   8.449 -0.9278 -0.2702 -0.5882
40455SOL    HW231296   7.856  13.334   8.329  0.1760 -1.1613 -1.1122
40456SOL     OW31297   9.977  11.874   2.715  0.5838  0.6560 -0.4548
40456SOL    HW131298   9.933  11.956   2.738  0.3502  0.1931  0.8521
40456SOL    HW231299   9.919  11.832   2.652 -0.9664  0.0139  1.3108
40457SOL     OW31300  12.263   7.143   4.617 -0.6051  0.6500 -0.5995
40457SOL    HW131301  12.193   7.208   4.617 -0.8781  0.4780  1.9879
40457SOL    HW231302  12.342   7.192   4.595 -0.7052  2.0641  1.8549
40458SOL     OW31303   7.386   3.768   4.995 -0.3355  0.5416 -0.3162
40458SOL    HW131304   7.407   3.813   4.913  1.5738  1.5929  0.6676
40458SOL    HW231305   7.369   3.839   5.057  2.1289 -0.0339  1.1284
40459SOL     OW31306   5.062   6.420   8.865 -0.1996  0.0327  0.5849
40459SOL    HW131307   4.990   6.366   8.897 -0.8551  0.8996  0.6203
40459SOL    HW231308   5.105   6.451   8.945  0.2203 -0.4802  0.5642
40460SOL     OW31309   4.966   9.663   5.275  0.1794 -0.4257 -0.1787
40460SOL    HW131310   4.932   9.622   5.196  0.3085 -3.9823  1.4240
40460SOL    HW231311   5.061   9.655   5.268  0.1822 -1.0871  0.4352
40461SOL     OW31312   0.574   0.244   7.263 -0.3769 -0.5356  0.4238
40461SOL    HW131313   0.662   0.219   7.293  0.0434 -1.1086 -1.1806
40461SOL    HW231314   0.549   0.315   7.322  1.2864 -0.1491  0.7336
40462SOL     OW31315   2.770   4.144   6.347 -0.5560  0.2344  0.1512
40462SOL    HW131316   2.790   4.159   6.440  0.0018 -1.5900  0.3744
40462SOL    HW231317   2.786   4.050   6.335 -0.4831  0.4742 -1.8366
40463SOL     OW31318   5.724   2.367   3.701 -0.1628  0.1434 -0.1137
40463SOL    HW131319   5.793   2.433   3.696 -1.2017  1.3332  0.5339
40463SOL    HW231320   5.766   2.291   3.743  0.7436  0.8429  0.2812
40464SOL     OW31321   6.296   7.784   4.135 -0.0590  0.2760 -0.0930
40464SOL    HW131322   6.288   7.857   4.073 -2.1483  0.7716  0.6643
40464SOL    HW231323   6.357   7.815   4.201  0.2625  0.7240 -0.5924
40465SOL     OW31324   8.856   2.035   8.140 -0.2861  0.0015 -0.3209
40465SOL    HW131325   8.784   2.093   8.116  0.4394 -0.0315 -2.8992
40465SOL    HW231326   8.933   2.091   8.141  0.0429 -0.4477 -0.1797
40466SOL     OW31327   6.383   8.986   2.974  0.1325 -0.3837 -0.0867
40466SOL    HW131328   6.288   8.976   2.968  0.2299 -1.1206 -0.5112
40466SOL    HW231329   6.415   8.960   2.887  0.5960  1.6588 -0.5824
40467SOL     OW31330  12.683   0.351   5.243 -0.5471  0.4697  1.1811
40467SOL    HW131331  12.691   0.285   5.312  2.6017 -1.3461 -0.6727
40467SOL    HW231332  12.619   0.313   5.182  0.7618 -0.6643  0.4523
40468SOL     OW31333   1.680  10.765  12.249 -0.1985 -0.7402 -0.3146
40468SOL    HW131334   1.600  10.717  12.226 -0.5857 -0.7995  1.0671
40468SOL    HW231335   1.661  10.856  12.226 -0.4727 -0.8389 -0.4778
40469SOL     OW31336  10.492   6.721   7.460  0.2860 -0.8197  0.3133
40469SOL    HW131337  10.453   6.735   7.546  0.4397 -2.7350  0.7494
40469SOL    HW231338  10.444   6.646   7.423  0.5498 -0.3435 -1.0676
40470SOL     OW31339  12.440  10.171   2.558  0.5076  0.1895 -0.2115
40470SOL    HW131340  12.432  10.250   2.612  0.1528 -1.6976  2.7167
40470SOL    HW231341  12.535  10.158   2.550  0.5819 -0.0748  0.9177
40471SOL     OW31342   6.820   9.416   0.352  0.1792 -0.7393 -0.2501
40471SOL    HW131343   6.786   9.369   0.276 -0.6506  2.1487 -1.8045
40471SOL    HW231344   6.744   9.429   0.408  0.5616 -1.8388  0.5597
40472SOL     OW31345  11.983  10.194  10.377  0.2170  0.1207  0.1110
40472SOL    HW131346  11.984  10.163  10.287 -1.7700  1.7784 -0.5493
40472SOL    HW231347  11.898  10.236  10.387  0.9941  1.3141  2.3009
40473SOL     OW31348  10.363  13.020   2.002  0.1508  0.4414  0.5793
40473SOL    HW131349  10.414  13.064   2.070 -1.3358  0.0016  2.0420
40473SOL    HW231350  10.275  13.056   2.010 -0.1374  0.1763 -0.9619
40474SOL     OW31351   6.457  12.601   9.284 -0.1809 -0.4575 -0.2723
40474SOL    HW131352   6.388  12.668   9.290 -0.1058 -0.5055  2.1066
40474SOL    HW231353   6.538  12.650   9.300  0.2041 -0.6432 -1.6040
40475SOL     OW31354   8.164  10.491   1.330 -0.3480  0.4831  0.7227
40475SOL    HW131355   8.114  10.454   1.257 -1.2530 -2.4509  2.6488
40475SOL    HW231356   8.245  10.440   1.331  0.5612  1.8700  0.6094
40476SOL     OW31357   8.653   0.223   6.956  0.7757  0.0715  0.6362
40476SOL    HW131358   8.652   0.292   7.022 -0.5438 -0.5915  1.3423
40476SOL    HW231359   8.669   0.142   7.005  1.6079 -0.2252 -0.0948
40477SOL     OW31360   8.451   7.226   4.217  0.0296  0.0299  0.1980
40477SOL    HW131361   8.531   7.229   4.165 -0.5183  0.0802 -0.6645
40477SOL    HW231362   8.461   7.148   4.272  0.1727 -0.6022 -0.7162
40478SOL     OW31363   7.297  12.785   1.574  0.2972 -0.4186  0.2799
40478SOL    HW131364   7.350  12.841   1.518 -1.1994 -0.4997 -1.3150
40478SOL    HW231365   7.340  12.700   1.572  1.0162 -0.0568  0.3693
40479SOL     OW31366  10.840  11.511   6.177  0.0283 -0.3713 -0.3249
40479SOL    HW131367  10.774  11.479   6.115 -1.2629 -0.2203  0.9180
40479SOL    HW231368  10.804  11.593   6.211  1.3940  0.3059 -0.4204
40480SOL     OW31369  11.580   9.552  11.779 -0.1086 -0.3245  0.2191
40480SOL    HW131370  11.558   9.633  11.734  0.7749  0.3924  1.0186
40480SOL    HW231371  11.542   9.482  11.725  1.8073  0.3957 -2.2251
40481SOL     OW31372   2.295   7.197   4.288 -0.3578 -0.0138  0.0954
40481SOL    HW131373   2.296   7.140   4.210  2.1223  0.4157 -0.2655
40481SOL    HW231374   2.312   7.138   4.361 -1.8563 -0.2931  0.2468
40482SOL     OW31375   8.889   5.584   2.046  0.1783 -0.3951  0.0039
40482SOL    HW131376   8.815   5.548   2.095 -1.2853  1.3579 -0.8219
40482SOL    HW231377   8.851   5.621   1.967  1.9098  0.7134 -0.3770
40483SOL     OW31378   5.509   3.267  10.359 -0.2940 -0.2785 -0.2869
40483SOL    HW131379   5.515   3.338  10.295 -1.6296  0.0574 -0.0529
40483SOL    HW231380   5.594   3.268  10.403 -0.6161  1.8246  0.3839
40484SOL     OW31381   1.759   9.257  12.255  0.5738  0.3220 -0.3983
40484SOL    HW131382   1.777   9.291  12.167  1.7269  0.0575 -0.2741
40484SOL    HW231383   1.760   9.334  12.311 -0.1757  0.4940 -0.6133
40485SOL     OW31384   6.340   2.553  10.338 -0.2193  0.2065  0.0304
40485SOL    HW131385   6.422   2.549  10.386  1.1866  0.2024 -2.2234
40485SOL    HW231386   6.363   2.589  10.252 -1.9570 -2.6097 -1.8077
40486SOL     OW31387   5.357   1.689   2.393  0.1891 -0.2572 -0.5134
40486SOL    HW131388   5.430   1.708   2.334  0.8995 -0.8502  0.1505
40486SOL    HW231389   5.377   1.602   2.429 -0.9604 -0.5363 -0.4861
40487SOL     OW31390   1.732   8.305  11.658 -0.4502 -0.5215  0.1762
40487SOL    HW131391   1.660   8.268  11.709 -0.6955 -1.1277 -0.5753
40487SOL    HW231392   1.706   8.395  11.639  0.9255  0.7302  3.5063
40488SOL     OW31393   7.880   7.514   4.388  0.0007  0.8984 -0.3807
40488SOL    HW131394   7.918   7.591   4.346 -1.0496  1.4249 -0.4004
40488SOL    HW231395   7.955   7.456   4.404  1.2038  2.8690  1.7300
40489SOL     OW31396   5.838   7.538   9.210 -0.2366 -0.3455 -0.0901
40489SOL    HW131397   5.886   7.484   9.148 -1.0081  0.5976 -1.5507
40489SOL    HW231398   5.754   7.556   9.168 -0.0777  1.8385  0.4002
40490SOL     OW31399   4.991  12.421  10.180  0.3701 -0.0814  0.2265
40490SOL    HW131400   5.010  12.328  10.194  0.5133 -0.3403 -1.4780
40490SOL    HW231401   5.060  12.451  10.121 -0.3433  0.8258 -0.1760
40491SOL     OW31402  13.268  13.042   7.325  0.4970 -0.6902 -0.7714
40491SOL    HW131403  13.243  13.123   7.370  0.6535 -1.6439  1.1469
40491SOL    HW231404  13.190  13.019   7.273 -0.3381 -0.4127  0.3167
40492SOL     OW31405   0.905   5.086   8.706 -0.2742  0.0209  0.0238
40492SOL    HW131406   0.933   4.995   8.720 -0.0028  0.2206  0.8433
40492SOL    HW231407   0.810   5.084   8.716 -0.3344 -0.2697 -0.5506
40493SOL     OW31408   9.170   5.852   0.881 -0.2987 -0.2874 -0.7442
40493SOL    HW131409   9.264   5.850   0.897  0.1458  0.1408 -2.9744
40493SOL    HW231410   9.147   5.945   0.880 -0.3322 -0.2822 -2.0748
40494SOL     OW31411   2.045   0.153   2.229 -0.4237 -0.4413  0.0809
40494SOL    HW131412   2.086   0.193   2.305  0.3835 -2.3652  0.7381
40494SOL    HW231413   2.093   0.187   2.154 -0.4112  0.5286  0.5240
40495SOL     OW31414   9.408  10.242   0.997  0.3830 -0.5242  0.3574
40495SOL    HW131415   9.414  10.337   0.994 -1.2889 -0.3563  1.0539
40495SOL    HW231416   9.494  10.211   0.968 -0.1974  1.1321 -3.7606
40496SOL     OW31417   4.329  11.002   2.795  0.2078  0.0201 -0.0691
40496SOL    HW131418   4.319  11.069   2.863 -0.2391 -0.3755  0.2580
40496SOL    HW231419   4.312  10.919   2.839 -1.2366 -0.1687 -0.8977
40497SOL     OW31420   8.214   9.656  10.332  0.2381 -0.1380  0.2459
40497SOL    HW131421   8.303   9.625  10.315 -0.1109 -0.3047 -1.5434
40497SOL    HW231422   8.158   9.583  10.305 -0.4515 -0.1007  1.5102
40498SOL     OW31423  12.423  10.415   6.117 -0.1738  0.2436 -0.0065
40498SOL    HW131424  12.471  10.400   6.199 -0.9855 -0.4987  0.3539
40498SOL    HW231425  12.449  10.341   6.061 -1.0440 -0.2972  0.2769
40499SOL     OW31426   0.091   9.139   9.728 -0.1411 -0.2974 -0.0147
40499SOL    HW131427   0.021   9.204   9.729 -0.5988 -0.7798 -0.3166
40499SOL    HW231428   0.159   9.178   9.674 -1.0153 -0.6752 -1.4231
40500SOL     OW31429   7.048  13.044  10.850 -0.0385 -0.3733 -0.3579
40500SOL    HW131430   7.021  13.022  10.761  0.5033  0.2494 -0.6847
40500SOL    HW231431   6.986  12.997  10.907 -1.3704  0.4865 -1.0670
40501SOL     OW31432  12.721  11.976   5.466 -0.1815 -0.7656 -0.1672
40501SOL    HW131433  12.790  11.948   5.526  0.0382  2.3216  1.2015
40501SOL    HW231434  12.762  11.971   5.379  0.8278 -1.5238  0.3353
40502SOL     OW31435   0.215   9.099   8.108 -0.0627 -0.2106  0.6292
40502SOL    HW131436   0.232   9.180   8.155  2.5317 -0.3480  0.0413
40502SOL    HW231437   0.182   9.127   8.023 -2.2538  0.0897  1.5105
40503SOL     OW31438   4.471   2.409   9.102  0.4720 -0.2608  0.2732
40503SOL    HW131439   4.493   2.340   9.164  1.7782 -0.7465 -0.6958
40503SOL    HW231440   4.375   2.404   9.094  0.5274 -1.7979  0.3910
40504SOL     OW31441  11.637   7.361  10.402 -0.0088 -0.0132 -0.2550
40504SOL    HW131442  11.599   7.311  10.475  1.0754 -0.3140  0.1220
40504SOL    HW231443  11.713   7.404  10.439  0.3327  0.1512 -1.1184
40505SOL     OW31444   4.378   9.698   6.244 -0.5910  0.0376 -0.4221
40505SOL    HW131445   4.401   9.615   6.203 -0.7769 -0.5391  0.6061
40505SOL    HW231446   4.458   9.751   6.240 -0.4095 -0.2711 -0.8806
40506SOL     OW31447   4.727   9.516  10.325  0.0695  0.0381 -0.3190
40506SOL    HW131448   4.775   9.433  10.325  0.9075  0.5127 -0.4581
40506SOL    HW231449   4.763   9.564  10.250  0.5554  1.0687  0.5491
40507SOL     OW31450  10.643   0.585   6.868 -0.1304  0.5718 -0.0173
40507SOL    HW131451  10.632   0.522   6.940  0.3969  0.4777 -0.0209
40507SOL    HW231452  10.567   0.569   6.811  0.4809 -0.7135 -0.5113
40508SOL     OW31453   4.873   1.747  11.591 -0.2149 -0.0822  0.5222
40508SOL    HW131454   4.908   1.821  11.540  0.2902 -0.1780  0.7220
40508SOL    HW231455   4.802   1.786  11.642 -2.1822 -0.3929 -1.7718
40509SOL     OW31456   5.003  11.105  12.204  0.0456 -0.5774  0.1191
40509SOL    HW131457   5.070  11.067  12.260 -1.2216 -1.8825  0.8249
40509SOL    HW231458   5.043  11.107  12.116  1.4790  0.0266  0.7524
40510SOL     OW31459   4.124   3.961   8.359  0.5338 -0.5407 -0.4550
40510SOL    HW131460   4.140   4.017   8.435  2.1694  0.0894 -1.2353
40510SOL    HW231461   4.043   3.914   8.382  1.5853 -1.2725  2.1808
40511SOL     OW31462  12.955   7.781  10.527 -0.0589 -0.5688 -0.1943
40511SOL    HW131463  12.940   7.809  10.437 -4.2249  1.4694  0.8519
40511SOL    HW231464  12.913   7.695  10.533 -1.0819 -0.0789  0.0261
40512SOL     OW31465   5.237  13.161   4.173  0.6988 -0.1845  0.3196
40512SOL    HW131466   5.324  13.123   4.188  0.0864 -1.4560  0.7823
40512SOL    HW231467   5.177  13.103   4.221 -0.7090 -1.0150 -2.2587
40513SOL     OW31468   8.969  10.997  12.880 -0.7469  0.3073 -0.4238
40513SOL    HW131469   8.980  11.029  12.970 -1.3347  1.3450 -0.7027
40513SOL    HW231470   9.004  10.908  12.882  0.2655  0.6996  0.5676
40514SOL     OW31471   1.375   7.858   5.813  0.2078 -0.3959 -0.1243
40514SOL    HW131472   1.341   7.780   5.768 -0.2009  0.0136 -0.5315
40514SOL    HW231473   1.318   7.870   5.888 -0.0551 -0.1862 -0.3544
40515SOL     OW31474   8.960   1.284   7.273  0.1346 -0.0996  0.3421
40515SOL    HW131475   8.954   1.329   7.357  1.3752  1.4137 -0.3481
40515SOL    HW231476   9.026   1.216   7.287  0.3915  0.1960  0.5668
40516SOL     OW31477   5.600   2.425   4.080 -0.0091 -0.1496 -0.5678
40516SOL    HW131478   5.648   2.354   4.037  3.2541  1.6341 -0.1629
40516SOL    HW231479   5.524   2.440   4.024 -0.2233 -3.1328 -1.2657
40517SOL     OW31480  10.318   2.929   5.140  0.6307 -0.2809  0.2069
40517SOL    HW131481  10.283   2.842   5.160 -2.7972  0.9058  0.0179
40517SOL    HW231482  10.305   2.979   5.220  1.9578  0.2932  0.0891
40518SOL     OW31483   6.079   8.801   4.594 -0.2403 -0.5467 -0.4194
40518SOL    HW131484   6.119   8.872   4.645  1.5383 -0.3965 -1.9001
40518SOL    HW231485   6.010   8.844   4.543 -0.0728 -0.1300 -0.2984
40519SOL     OW31486   0.488  10.580   6.430 -0.4019  0.1645  0.5502
40519SOL    HW131487   0.407  10.587   6.379 -0.3189  0.6269  0.4853
40519SOL    HW231488   0.458  10.568   6.521 -0.6330 -3.6917  0.1225
40520SOL     OW31489   8.356  12.921   1.708  0.2802  0.2708 -0.2931
40520SOL    HW131490   8.354  12.879   1.622  1.9076 -0.9611  0.1993
40520SOL    HW231491   8.282  12.981   1.708 -0.1978 -0.2504 -2.2680
40521SOL     OW31492  12.922   3.264  11.881 -0.0360 -0.5618  0.3115
40521SOL    HW131493  12.900   3.199  11.949  0.6382 -0.9983  0.1247
40521SOL    HW231494  13.016   3.256  11.870 -0.1446 -0.5585 -0.7433
40522SOL     OW31495   2.940  11.720   8.724  0.3408  0.0035  0.2059
40522SOL    HW131496   3.009  11.721   8.658  0.0559 -0.8286 -0.1230
40522SOL    HW231497   2.982  11.751   8.804  1.1932 -0.8456  0.0982
40523SOL     OW31498   3.774   5.365   6.090 -0.4247 -0.3241  0.5481
40523SOL    HW131499   3.702   5.412   6.048 -1.4914 -0.4049  2.1950
40523SOL    HW231500   3.827   5.331   6.017 -1.9437 -0.1197 -0.6969
40524SOL     OW31501   7.164  13.036   5.155 -0.0345  0.0975  0.2800
40524SOL    HW131502   7.191  12.952   5.119  1.4836  1.3058 -1.5965
40524SOL    HW231503   7.188  13.031   5.248  2.8453 -0.5155 -0.3914
40525SOL     OW31504   0.017   5.619   6.445  0.0422 -0.3165 -0.3799
40525SOL    HW131505   0.006   5.529   6.413 -1.2073 -0.2087 -0.3152
40525SOL    HW231506  -0.037   5.671   6.386 -0.2438  0.2221  0.3482
40526SOL     OW31507   2.013   1.638   0.343  0.7021 -0.3970  0.1288
40526SOL    HW131508   2.094   1.678   0.376  0.7507  0.0548 -0.5274
40526SOL    HW231509   1.975   1.595   0.420  0.3973  1.3131  0.9826
40527SOL     OW31510   9.714  11.591  12.849 -0.0770 -0.2556 -0.2934
40527SOL    HW131511   9.742  11.585  12.941  1.1303  1.3530 -0.5072
40527SOL    HW231512   9.619  11.583  12.852  0.0400 -1.6060  0.9347
40528SOL     OW31513  11.568   1.612   9.773 -0.0546  0.6550 -0.0338
40528SOL    HW131514  11.508   1.652   9.836 -0.2970  2.8752 -1.5478
40528SOL    HW231515  11.544   1.520   9.771 -1.1916  0.8720  1.7988
40529SOL     OW31516  13.304   0.990   6.086 -0.2272  0.0802 -0.2751
40529SOL    HW131517  13.374   0.954   6.141  0.0894  0.2307 -0.5752
40529SOL    HW231518  13.321   0.954   5.999 -0.9402 -0.4508 -0.2099
40530SOL     OW31519  10.662  10.370   2.127 -0.5448 -0.3591  0.2437
40530SOL    HW131520  10.631  10.459   2.138 -1.4323 -0.4326 -1.4578
40530SOL    HW231521  10.622  10.322   2.200 -1.1714  0.3573  0.3852
40531SOL     OW31522   3.749  13.164  12.882  0.0968  0.3006 -0.3140
40531SOL    HW131523   3.691  13.239  12.870 -1.2240 -0.8152 -1.2605
40531SOL    HW231524   3.690  13.088  12.883  1.3675 -0.7212  0.8155
40532SOL     OW31525  10.420  11.114   4.482  0.1883  0.1048  0.5447
40532SOL    HW131526  10.457  11.041   4.532 -1.3818  0.8230  2.9413
40532SOL    HW231527  10.383  11.073   4.404 -0.4489 -1.6758  1.7156
40533SOL     OW31528   5.798   9.442   4.406  0.2563 -0.2740 -0.0881
40533SOL    HW131529   5.728   9.379   4.419  0.0027  0.3562  1.9243
40533SOL    HW231530   5.769   9.495   4.332 -1.3689 -0.0925  0.6336
40534SOL     OW31531   4.035   2.024  11.991  0.0134  0.5728 -0.4607
40534SOL    HW131532   4.107   2.025  12.054  0.4837  0.2012 -0.9868
40534SOL    HW231533   4.075   1.997  11.909 -1.2525 -3.2081 -0.0585
40535SOL     OW31534   8.647   3.389   0.876 -0.3684 -0.5196 -0.5860
40535SOL    HW131535   8.589   3.317   0.854 -0.1357 -0.3943 -1.6569
40535SOL    HW231536   8.685   3.417   0.792 -0.0735  0.5142 -0.1344
40536SOL     OW31537   0.281   5.348  11.689  0.2260  0.1158 -0.2186
40536SOL    HW131538   0.248   5.438  11.686 -1.3186 -0.3885  0.7925
40536SOL    HW231539   0.211   5.298  11.731  1.3834 -1.4259 -0.0525
40537SOL     OW31540   8.560   7.973   7.108  0.3686  0.2914  0.2404
40537SOL    HW131541   8.619   7.913   7.062 -2.3480 -0.7607 -2.1686
40537SOL    HW231542   8.547   8.046   7.047 -3.2112 -1.0595 -0.8639
40538SOL     OW31543   5.856   5.773   4.939 -0.2484  0.0045  0.1605
40538SOL    HW131544   5.799   5.746   4.867  0.9747 -1.1447 -0.4123
40538SOL    HW231545   5.911   5.841   4.901 -0.0630 -0.1190  0.2091
40539SOL     OW31546   0.061   3.953   7.259  0.0382  0.0390  0.0042
40539SOL    HW131547   0.039   4.016   7.191 -1.8051 -0.5416  0.0257
40539SOL    HW231548   0.142   3.912   7.229  0.7124  1.6575 -0.4997
40540SOL     OW31549   6.905   3.503   3.561 -0.0894  0.2301 -0.3377
40540SOL    HW131550   6.876   3.542   3.478  0.5778 -0.2302 -0.7946
40540SOL    HW231551   7.000   3.508   3.558 -0.0687  1.8948  1.2347
40541SOL     OW31552   3.893   1.264  10.099 -0.4068  0.2832 -0.1005
40541SOL    HW131553   3.831   1.194  10.079 -1.2075  1.3436 -1.4944
40541SOL    HW231554   3.960   1.257  10.032  0.0304  0.2800  0.3268
40542SOL     OW31555   7.739   0.691  12.946 -0.5337  0.3360 -0.1911
40542SOL    HW131556   7.732   0.751  13.021 -0.8629 -0.4695  0.4282
40542SOL    HW231557   7.652   0.654  12.937 -0.3168 -0.0875 -0.5392
40543SOL     OW31558   4.676   9.619  10.556 -0.8244 -0.2817  0.4064
40543SOL    HW131559   4.688   9.591  10.465  0.9393 -0.1916  0.5836
40543SOL    HW231560   4.621   9.698  10.549  0.5563  0.6307 -0.7338
40544SOL     OW31561  11.580  11.876  13.212 -0.2364  0.2033 -0.4099
40544SOL    HW131562  11.637  11.806  13.183 -0.9190 -0.7903  0.5614
40544SOL    HW231563  11.592  11.880  13.307  0.2063  1.7928 -0.4961
40545SOL     OW31564  12.345   1.988  10.835  0.6998 -0.0829  0.3978
40545SOL    HW131565  12.312   1.963  10.922  1.0592  0.2764  0.6404
40545SOL    HW231566  12.301   2.071  10.816 -0.7037 -0.9932 -0.5286
40546SOL     OW31567  12.213   6.825   2.931  0.0686 -0.4848  0.6742
40546SOL    HW131568  12.121   6.805   2.911  0.3645 -2.1573  0.8547
40546SOL    HW231569  12.257   6.824   2.846 -0.1231  0.7043  0.5421
40547SOL     OW31570   5.049   9.906   7.158 -0.0521  0.7227  0.0739
40547SOL    HW131571   5.143   9.913   7.142  0.3237 -2.0422  0.5907
40547SOL    HW231572   5.030   9.977   7.220  1.9093  0.7039  0.7719
40548SOL     OW31573   7.601   7.165   9.525 -0.3154  0.5215 -0.2244
40548SOL    HW131574   7.567   7.172   9.614 -0.6290  0.7925 -0.3644
40548SOL    HW231575   7.672   7.102   9.532 -0.6997  0.1167  0.1177
40549SOL     OW31576  12.980   6.980   9.925 -0.3171  0.0489 -0.2502
40549SOL    HW131577  12.997   6.905   9.869  1.9644  0.6836 -0.5327
40549SOL    HW231578  13.003   7.056   9.871  1.3240  0.7080  1.2572
40550SOL     OW31579   3.776   3.191   7.209 -0.1443 -0.0754 -0.2048
40550SOL    HW131580   3.695   3.202   7.158  1.2999  2.6859 -2.2161
40550SOL    HW231581   3.762   3.243   7.288 -1.1360 -1.5342  0.6137
40551SOL     OW31582  12.995   5.393  11.460 -0.4411  0.0822 -0.1433
40551SOL    HW131583  13.048   5.405  11.381 -0.0620 -0.3230  0.0387
40551SOL    HW231584  13.031   5.313  11.500 -2.1875 -1.0973 -0.7984
40552SOL     OW31585   4.798  11.568   6.970 -0.0350  0.0829 -0.0852
40552SOL    HW131586   4.778  11.527   7.054  1.5334  0.6331  0.5872
40552SOL    HW231587   4.868  11.631   6.990 -0.6781  1.3172 -1.5273
40553SOL     OW31588  12.160  12.950   2.636  0.0501 -0.3929 -0.6840
40553SOL    HW131589  12.203  12.983   2.715  0.8209 -1.2479 -0.7167
40553SOL    HW231590  12.158  13.024   2.576  0.2869  0.0207 -0.1831
40554SOL     OW31591  10.589   5.127   0.412  0.0851 -0.3978  0.9427
40554SOL    HW131592  10.639   5.207   0.396 -0.0067 -0.3878  0.6978
40554SOL    HW231593  10.646   5.057   0.379  0.3958 -0.4819  1.6504
40555SOL     OW31594   3.008   9.251   0.796  0.3964 -0.1008 -0.3395
40555SOL    HW131595   2.987   9.243   0.889  1.7906  1.9415  0.2310
40555SOL    HW231596   3.099   9.220   0.789  0.4219  0.0836 -0.9346
40556SOL     OW31597   3.123   1.806   6.226  0.1361  0.1150 -0.3493
40556SOL    HW131598   3.119   1.857   6.145 -0.6635  0.5450 -0.0558
40556SOL    HW231599   3.087   1.864   6.293  2.4693  0.4467  0.7076
40557SOL     OW31600   0.536   3.250   3.103 -0.1867 -0.0825  0.3541
40557SOL    HW131601   0.526   3.338   3.137  0.2042 -0.3123  1.0775
40557SOL    HW231602   0.489   3.251   3.019  2.1465  1.5965 -1.0294
40558SOL     OW31603   2.474  11.977   5.649  0.2604 -0.1648  0.5427
40558SOL    HW131604   2.516  11.915   5.708 -0.4334 -0.9714  0.2067
40558SOL    HW231605   2.545  12.007   5.592  0.5213 -0.9647  0.4375
40559SOL     OW31606  11.632  12.521   9.967 -0.4415  0.2629  0.2561
40559SOL    HW131607  11.667  12.532   9.879 -3.4662  0.6740 -0.9979
40559SOL    HW231608  11.709  12.524  10.024  1.5169  0.9333 -2.2631
40560SOL     OW31609   6.894  11.144   4.009 -0.0390  0.1094 -0.0143
40560SOL    HW131610   6.856  11.099   4.085  1.2025  0.3313  0.7743
40560SOL    HW231611   6.943  11.076   3.963  0.9731  0.4006  0.5963
40561SOL     OW31612   1.891   6.143  10.440 -0.2181 -0.1020  0.1914
40561SOL    HW131613   1.981   6.113  10.428  0.0790  0.3339  1.2860
40561SOL    HW231614   1.884   6.221  10.385 -0.2660 -0.7359 -0.7349
40562SOL     OW31615   5.173   3.460  11.712 -0.6030  0.0024 -0.3734
40562SOL    HW131616   5.141   3.545  11.682  0.4148  0.1259 -1.1590
40562SOL    HW231617   5.142   3.398  11.645 -0.4295 -0.0815 -0.3769
40563SOL     OW31618   7.091   8.332  11.992 -0.6080  0.1340 -0.2474
40563SOL    HW131619   7.120   8.345  11.902  1.5632 -0.3430  0.3347
40563SOL    HW231620   7.120   8.244  12.015 -4.1624 -1.1687 -0.1157
40564SOL     OW31621   1.254   7.794  13.301 -0.0467  0.1023  0.6076
40564SOL    HW131622   1.261   7.860  13.370  0.7500 -0.7039  1.3363
40564SOL    HW231623   1.160   7.779  13.291 -0.2250  1.1743  0.5799
40565SOL     OW31624   6.007   6.669   1.951  0.4967  0.3922  0.2710
40565SOL    HW131625   6.022   6.666   2.045  1.2756 -0.9525  0.1248
40565SOL    HW231626   6.068   6.736   1.919  1.5710 -0.4584  0.5030
40566SOL     OW31627   6.212  13.299   5.739 -0.2744  0.0599  0.4221
40566SOL    HW131628   6.124  13.333   5.749  0.1325  1.2408  0.1739
40566SOL    HW231629   6.259  13.367   5.691  0.6532 -0.7496  0.1337
40567SOL     OW31630  10.163   6.597   2.208 -0.3059  0.5981  0.3189
40567SOL    HW131631  10.241   6.637   2.171  0.0875 -0.8239 -0.4576
40567SOL    HW231632  10.194   6.514   2.244 -1.7094 -0.8099 -1.5459
40568SOL     OW31633   8.106  11.785  11.216 -0.2442 -0.0932  0.3905
40568SOL    HW131634   8.197  11.778  11.245 -0.3382 -0.8121  0.5137
40568SOL    HW231635   8.054  11.758  11.292 -0.6670  2.3717  1.0884
40569SOL     OW31636   2.606   9.408   4.319 -0.0034 -0.3675  0.7195
40569SOL    HW131637   2.592   9.396   4.413  2.2935 -0.9182  1.0345
40569SOL    HW231638   2.647   9.327   4.289 -0.8182 -0.2682 -0.8280
40570SOL     OW31639   7.401  12.672   6.322 -0.3953 -0.2106  0.4522
40570SOL    HW131640   7.490  12.678   6.357  0.2297  0.6911 -1.1657
40570SOL    HW231641   7.350  12.732   6.376  0.0018 -0.6317  1.3092
40571SOL     OW31642   6.927   9.672   3.971  0.2873 -0.3531 -0.1969
40571SOL    HW131643   6.982   9.666   4.048  1.9528  0.6536 -1.2417
40571SOL    HW231644   6.924   9.582   3.936  2.9588 -0.1385 -1.1869
40572SOL     OW31645   4.836   8.685   8.526  0.0827  0.0572 -0.1099
40572SOL    HW131646   4.784   8.614   8.565  0.5119 -1.0900 -1.5498
40572SOL    HW231647   4.820   8.678   8.432  2.5991 -0.1749 -0.5924
40573SOL     OW31648   7.471   8.726   2.775  0.1261 -0.3812 -0.2897
40573SOL    HW131649   7.463   8.636   2.806 -2.0310 -0.4462 -0.8811
40573SOL    HW231650   7.426   8.779   2.840  3.4913  0.7004  1.3924
40574SOL     OW31651   8.515   8.345  10.786  0.5513  0.0925 -0.4658
40574SOL    HW131652   8.600   8.382  10.810 -0.0053  0.0923  1.6844
40574SOL    HW231653   8.456   8.372  10.856 -1.5149  1.0037 -2.4536
40575SOL     OW31654   3.074   5.437   1.503  0.1685 -0.3446 -0.2162
40575SOL    HW131655   3.124   5.515   1.526  0.3326 -0.8573  1.2797
40575SOL    HW231656   3.140   5.368   1.493 -0.1535 -1.0126  1.7210
40576SOL     OW31657  12.266   5.434   9.403  0.0400 -0.2209 -0.5149
40576SOL    HW131658  12.297   5.520   9.375  0.9502 -1.3073 -3.1136
40576SOL    HW231659  12.277   5.436   9.499 -0.1203  2.5528 -0.4492
40577SOL     OW31660   6.355  10.650   6.949 -0.7211  0.0902 -0.1657
40577SOL    HW131661   6.341  10.568   6.903 -1.9326 -0.1825  0.6278
40577SOL    HW231662   6.302  10.642   7.029  0.8722  0.7471  1.0187
40578SOL     OW31663   8.683   8.154   0.330 -0.4799  0.0854  0.1531
40578SOL    HW131664   8.741   8.082   0.305 -1.1271 -0.1457 -0.7028
40578SOL    HW231665   8.622   8.115   0.392 -2.7076 -0.9292 -2.4854
40579SOL     OW31666   1.314  10.143   3.450 -0.3356  0.1032 -0.0135
40579SOL    HW131667   1.336  10.059   3.410 -1.6259 -0.3521  0.1910
40579SOL    HW231668   1.395  10.193   3.445  0.7322 -1.4597  0.6458
40580SOL     OW31669   9.917   3.844   8.063  0.5994 -0.5449 -0.3138
40580SOL    HW131670   9.833   3.820   8.102  0.0752  0.7329 -0.5999
40580SOL    HW231671   9.894   3.883   7.979  1.5964 -1.5459 -1.0906
40581SOL     OW31672  10.181   0.926  10.321 -0.7132  0.0160  0.4433
40581SOL    HW131673  10.180   0.979  10.401  1.6072  1.8221 -0.6202
40581SOL    HW231674  10.231   0.978  10.258  1.7589 -3.4087 -0.7233
40582SOL     OW31675   2.393   4.923   3.702 -0.1973 -0.1224  0.1396
40582SOL    HW131676   2.359   4.835   3.718 -0.7995  0.2588  1.0139
40582SOL    HW231677   2.427   4.951   3.787  0.3182  0.3592 -0.2178
40583SOL     OW31678   8.315   9.386  12.635  0.2705 -0.2854 -0.4862
40583SOL    HW131679   8.402   9.351  12.650 -0.5813 -1.3560  2.5804
40583SOL    HW231680   8.268   9.374  12.717 -2.0899  2.4009 -1.2270
40584SOL     OW31681   4.567   3.097  10.603 -0.3392 -0.1636 -0.1179
40584SOL    HW131682   4.555   3.107  10.509  0.8071  1.0695 -0.1694
40584SOL    HW231683   4.515   3.020  10.626 -0.6725 -0.4606 -1.7377
40585SOL     OW31684   6.050   1.372   0.698  0.4100  0.1574 -0.3666
40585SOL    HW131685   6.060   1.284   0.736 -2.6384 -0.7762 -1.4369
40585SOL    HW231686   5.991   1.417   0.757 -0.5080  0.3768 -1.4202
40586SOL     OW31687   4.375   4.417   3.008  0.3281  0.4980  0.0794
40586SOL    HW131688   4.461   4.446   2.977  0.7773 -0.5382  0.3104
40586SOL    HW231689   4.355   4.339   2.955 -0.5152  0.7847 -0.0382
40587SOL     OW31690  12.647  11.114   0.906 -0.4019 -0.1442  0.1069
40587SOL    HW131691  12.627  11.087   0.816 -0.7020 -0.4796  0.2745
40587SOL    HW231692  12.573  11.168   0.932 -0.4674 -0.3126  0.2677
40588SOL     OW31693   9.217  12.174   8.425 -0.0042  0.1683 -0.3059
40588SOL    HW131694   9.308  12.163   8.397  0.0377 -1.1539  0.2609
40588SOL    HW231695   9.168  12.114   8.369 -0.0181 -1.9151  1.7799
40589SOL     OW31696   9.848  11.718   4.299  0.5142 -0.2088 -0.3375
40589SOL    HW131697   9.839  11.811   4.319  0.5944 -0.3694  0.4845
40589SOL    HW231698   9.789  11.703   4.225  1.0562  0.6425 -0.9523
40590SOL     OW31699   0.446   2.172   3.751  0.6466  0.6740  0.0276
40590SOL    HW131700   0.494   2.090   3.765 -0.0135  0.5099  1.5936
40590SOL    HW231701   0.481   2.207   3.670  3.1337  0.3861  0.8936
40591SOL     OW31702  11.423   0.240   2.254 -0.0817 -0.4290 -0.1674
40591SOL    HW131703  11.440   0.164   2.309  0.9072  0.4527  0.7981
40591SOL    HW231704  11.378   0.302   2.312 -0.0772  0.0676 -0.6841
40592SOL     OW31705  11.494   9.867   4.228 -0.0262 -0.6758 -0.3219
40592SOL    HW131706  11.547   9.845   4.305 -0.8410 -2.5918 -0.2341
40592SOL    HW231707  11.476   9.960   4.236 -0.6162 -0.9407  2.1815
40593SOL     OW31708   1.525   0.718   4.674  0.0970  0.0257 -0.2841
40593SOL    HW131709   1.505   0.748   4.763  0.9329  0.3394 -0.1840
40593SOL    HW231710   1.516   0.796   4.619  0.5031  0.0555 -0.3153
40594SOL     OW31711   2.083   5.253   0.672  0.5223 -0.3461 -0.3207
40594SOL    HW131712   2.024   5.241   0.746  0.1207  1.0333 -0.3958
40594SOL    HW231713   2.161   5.202   0.694 -0.8003 -2.5598 -0.3966
40595SOL     OW31714  11.972   9.389   1.666  0.2306 -0.4179 -0.4010
40595SOL    HW131715  12.024   9.466   1.690  1.2594 -1.2588  0.1808
40595SOL    HW231716  11.929   9.363   1.748 -2.6884  1.3215 -1.2125
40596SOL     OW31717   1.640   0.300  10.251  0.0233  0.9823 -0.1004
40596SOL    HW131718   1.645   0.313  10.346 -3.9512  0.5900  0.3285
40596SOL    HW231719   1.583   0.370  10.220 -0.6773 -0.2786 -1.8237
40597SOL     OW31720   6.636  11.309   1.172 -0.4784  0.5780  0.3094
40597SOL    HW131721   6.637  11.347   1.084 -0.4064 -1.0940 -0.4575
40597SOL    HW231722   6.597  11.376   1.227  0.1093  1.9398 -0.8624
40598SOL     OW31723   2.551   3.428   0.589  0.0607  0.2071  0.7703
40598SOL    HW131724   2.488   3.496   0.609 -0.2106 -0.1076  1.0060
40598SOL    HW231725   2.516   3.349   0.631  1.0777  0.2263  1.7233
40599SOL     OW31726   7.890   7.064   5.769 -0.1993 -0.3178 -0.2396
40599SOL    HW131727   7.799   7.086   5.790 -1.2296 -1.1324 -3.3262
40599SOL    HW231728   7.894   6.968   5.774 -0.2340 -0.4828 -2.3119
40600SOL     OW31729   9.083  10.693  10.928  0.2249 -0.0423 -0.0676
40600SOL    HW131730   8.992  10.721  10.921 -0.0996 -0.8841  0.6256
40600SOL    HW231731   9.132  10.761  10.882 -0.5043  1.8775  1.7849
40601SOL     OW31732   4.722   7.115  10.994  0.0090 -0.1978  0.5148
40601SOL    HW131733   4.641   7.166  10.990  0.8132  1.0563 -0.6674
40601SOL    HW231734   4.730   7.075  10.907  1.7897  1.6061 -0.2504
40602SOL     OW31735   0.084   1.740   6.355 -0.0299  0.1256  0.6511
40602SOL    HW131736   0.095   1.825   6.398 -1.9813  0.5727  0.3718
40602SOL    HW231737  -0.011   1.729   6.349  0.1977 -1.5677 -0.3439
40603SOL     OW31738   1.487  11.215  11.436 -0.2760 -0.1333 -0.7137
40603SOL    HW131739   1.500  11.237  11.528 -0.5380  0.9275 -0.9171
40603SOL    HW231740   1.565  11.166  11.411 -0.3082 -0.6260  0.1273
40604SOL     OW31741   6.828   2.390   0.579 -0.1126 -0.7482  0.0510
40604SOL    HW131742   6.909   2.417   0.536  0.9023 -1.4391  1.4438
40604SOL    HW231743   6.832   2.294   0.580 -1.5860 -0.8510 -1.0142
40605SOL     OW31744  12.589   2.920   3.953  0.1257  0.6807 -0.1622
40605SOL    HW131745  12.553   2.883   3.872  1.6841  2.0244 -1.5344
40605SOL    HW231746  12.574   3.014   3.945 -0.2805  0.7881  1.4553
40606SOL     OW31747   7.831   5.747  12.922 -0.1729  0.6128 -0.5926
40606SOL    HW131748   7.924   5.724  12.928  0.2196  1.5354 -2.2762
40606SOL    HW231749   7.829   5.821  12.861 -1.8545  1.7281  0.7112
40607SOL     OW31750   7.028   0.810   3.567  0.2512  0.1564  0.2664
40607SOL    HW131751   7.048   0.719   3.542  0.1169 -0.4024  2.0549
40607SOL    HW231752   7.077   0.823   3.648 -1.3473  1.0045  1.1220
40608SOL     OW31753   3.592   1.497  12.655 -0.3569 -0.2102 -0.5767
40608SOL    HW131754   3.518   1.457  12.699 -1.2638  0.2113 -1.6559
40608SOL    HW231755   3.668   1.448  12.686 -1.3015 -2.0843 -1.0610
40609SOL     OW31756  10.935  10.231   9.995  0.4215  0.2982  0.9500
40609SOL    HW131757  10.840  10.230  10.011  0.3459 -0.1457  0.5117
40609SOL    HW231758  10.972  10.182  10.068  0.3035  0.3789  1.0647
40610SOL     OW31759   2.161   3.450   9.042  0.4590  0.5730 -0.5872
40610SOL    HW131760   2.237   3.500   9.011  0.7249  0.3385 -0.3244
40610SOL    HW231761   2.188   3.416   9.128 -0.3973  1.5211  0.0796
40611SOL     OW31762  13.085   2.375   8.867  0.3465  0.2448  0.3258
40611SOL    HW131763  13.088   2.465   8.835 -0.1578 -0.3874 -1.6727
40611SOL    HW231764  13.013   2.335   8.818  0.3136 -1.1561  1.4525
40612SOL     OW31765  10.042   7.234   6.692  0.2234  0.3723  0.3189
40612SOL    HW131766  10.129   7.213   6.657 -0.8801  0.0905 -2.5425
40612SOL    HW231767  10.018   7.316   6.648 -1.9267 -0.8331 -0.9062
40613SOL     OW31768  12.041   2.108   9.379  0.0671 -0.0981 -0.4212
40613SOL    HW131769  12.058   2.202   9.371  1.9130 -0.3116  0.3902
40613SOL    HW231770  12.030   2.093   9.473  0.1848 -0.7414 -0.5024
40614SOL     OW31771  11.066   5.865  11.842  0.7624  0.4204  0.0374
40614SOL    HW131772  10.978   5.873  11.804  0.8471 -0.4464 -0.3762
40614SOL    HW231773  11.052   5.830  11.929  0.5610  2.4850  0.8824
40615SOL     OW31774   4.113  11.534   2.149 -0.3751  0.0814  0.4512
40615SOL    HW131775   4.066  11.614   2.173  2.3222  1.5247  1.3602
40615SOL    HW231776   4.089  11.470   2.216 -0.1671  1.1360  1.5498
40616SOL     OW31777   0.006   6.343   9.644 -0.5090 -0.1754  0.3931
40616SOL    HW131778   0.048   6.258   9.659 -0.5541 -0.3997 -0.6745
40616SOL    HW231779   0.069   6.391   9.590 -1.0573 -0.0223 -0.1126
40617SOL     OW31780   4.614   1.112  10.689 -0.6670  0.7058 -0.2723
40617SOL    HW131781   4.524   1.103  10.721 -0.3204  1.0644  0.8563
40617SOL    HW231782   4.658   1.164  10.756  0.3388  0.6924 -0.9036
40618SOL     OW31783   6.548   9.652  10.661  0.0471 -0.5611 -0.0593
40618SOL    HW131784   6.569   9.605  10.581  0.8794 -0.5622  0.1550
40618SOL    HW231785   6.632   9.668  10.703 -0.4516 -1.6057  1.4126
40619SOL     OW31786   6.518   9.632   4.670 -0.6511  0.3498 -0.0271
40619SOL    HW131787   6.523   9.617   4.576  0.5710 -1.3566  0.2456
40619SOL    HW231788   6.439   9.684   4.682 -0.2389  1.5462 -2.0791
40620SOL     OW31789   9.734   9.123  10.117  0.5524 -0.2342 -0.6375
40620SOL    HW131790   9.754   9.194  10.177 -0.1175  0.8756 -1.6849
40620SOL    HW231791   9.787   9.142  10.039  1.0293 -1.3687 -0.6113
40621SOL     OW31792   2.910   9.043   5.977  0.4535  0.6086  0.0141
40621SOL    HW131793   2.834   9.036   5.919 -0.1507 -1.1386  0.9458
40621SOL    HW231794   2.976   8.987   5.938  0.8636  1.1967 -0.1580
40622SOL     OW31795   5.591   6.172  10.976  0.1498  0.4610  0.1818
40622SOL    HW131796   5.650   6.237  11.014 -0.2626  1.3250 -0.6239
40622SOL    HW231797   5.538   6.142  11.049 -0.7682  2.2443  0.2976
40623SOL     OW31798  10.607   3.131   3.754  0.0726 -0.5103 -0.5966
40623SOL    HW131799  10.606   3.076   3.833 -1.4546  0.5015  0.1372
40623SOL    HW231800  10.534   3.099   3.702  0.6427 -0.7104 -1.2764
40624SOL     OW31801   7.707   8.457  11.178  0.0963  0.2350  0.6303
40624SOL    HW131802   7.627   8.494  11.141  1.9339  0.9661 -3.1278
40624SOL    HW231803   7.707   8.366  11.150  0.6341  0.2780  0.4710
40625SOL     OW31804   7.517   4.940  10.084  0.2755 -0.4417 -0.4335
40625SOL    HW131805   7.579   4.869  10.099  1.4207  0.6264  0.0368
40625SOL    HW231806   7.553   4.989  10.010 -1.5982 -1.5040 -2.1779
40626SOL     OW31807  12.328   4.964  13.133  0.3519  0.0652  0.6873
40626SOL    HW131808  12.306   4.871  13.130 -0.9186  0.3564  0.7253
40626SOL    HW231809  12.308   4.990  13.222 -0.6280  0.6844  0.2961
40627SOL     OW31810   4.972   9.677  12.710 -0.0513  0.4213 -0.3584
40627SOL    HW131811   4.910   9.623  12.662 -0.0891  1.5200 -1.6044
40627SOL    HW231812   4.986   9.631  12.793  0.8530 -2.0901 -1.8321
40628SOL     OW31813   2.985  10.847   0.425 -0.0706 -0.3910 -0.7391
40628SOL    HW131814   2.975  10.752   0.416 -0.2836 -0.2430 -2.3653
40628SOL    HW231815   2.904  10.876   0.466  0.1227 -0.9452  0.0463
40629SOL     OW31816   4.805   2.246   1.594 -0.2062 -0.9568  0.7140
40629SOL    HW131817   4.831   2.333   1.564  0.5339 -1.0789  0.9694
40629SOL    HW231818   4.726   2.226   1.544 -0.1594 -0.2999  0.3655
40630SOL     OW31819   0.308   9.332  11.421 -0.2292 -0.5929  0.4700
40630SOL    HW131820   0.261   9.414  11.407 -0.3466 -0.8074 -0.4180
40630SOL    HW231821   0.294   9.282  11.341 -0.2748 -1.5454  1.0641
40631SOL     OW31822  12.017  12.475   6.944  0.4518 -0.0302 -0.6957
40631SOL    HW131823  12.092  12.439   6.896  1.4923 -0.5637  1.2105
40631SOL    HW231824  12.038  12.459   7.036 -1.9329 -0.0183 -0.0819
40632SOL     OW31825   5.580   0.836  10.476  0.3811 -0.3844  0.1403
40632SOL    HW131826   5.655   0.821  10.533  0.8222  0.7819 -0.0944
40632SOL    HW231827   5.519   0.766  10.497  1.3022 -1.0274  0.7334
40633SOL     OW31828   7.494   5.962   5.120 -0.0598  0.1020 -0.3493
40633SOL    HW131829   7.553   6.007   5.181 -1.0386  1.2922 -0.2212
40633SOL    HW231830   7.407   5.998   5.140 -0.7213 -1.0425 -1.0321
40634SOL     OW31831   4.963  12.594   7.384 -0.4123  0.0840  0.0238
40634SOL    HW131832   4.877  12.576   7.422  0.1941 -1.9992  0.5545
40634SOL    HW231833   4.960  12.687   7.361 -2.1602  0.4929  1.6391
40635SOL     OW31834   0.673   6.396   3.030  0.3754  0.2316  1.1065
40635SOL    HW131835   0.681   6.457   2.956  1.0708  0.1547  1.1158
40635SOL    HW231836   0.696   6.448   3.107 -1.2166  0.5648  1.4119
40636SOL     OW31837   2.434   8.519   8.817 -0.2724 -0.4786 -0.3713
40636SOL    HW131838   2.392   8.565   8.890 -0.1883 -1.4601  0.3178
40636SOL    HW231839   2.376   8.535   8.742 -0.0445  1.0390 -0.2528
40637SOL     OW31840   2.797   7.371   7.259 -0.4861 -0.3003 -0.4894
40637SOL    HW131841   2.720   7.361   7.204 -0.5116 -2.3951 -0.1377
40637SOL    HW231842   2.767   7.348   7.347  0.6384 -1.8242 -0.4538
40638SOL     OW31843   8.653  11.433   0.759  0.0537  0.7704 -0.7215
40638SOL    HW131844   8.621  11.411   0.847  0.8883  0.2588 -0.5284
40638SOL    HW231845   8.582  11.405   0.700  0.8745 -2.2094 -0.4580
40639SOL     OW31846   9.360   3.265   3.070  0.0566  0.0191 -0.7260
40639SOL    HW131847   9.317   3.317   3.001 -0.8756  0.9863  0.5379
40639SOL    HW231848   9.394   3.331   3.131  0.1580 -0.8447  0.1572
40640SOL     OW31849   1.740  13.237   2.410 -0.5436  0.4232  0.1152
40640SOL    HW131850   1.759  13.327   2.384  0.3747  0.4708  0.9241
40640SOL    HW231851   1.644  13.233   2.412 -0.6123  1.1053 -0.8445
40641SOL     OW31852   6.101   1.298   6.296  0.5157  0.5533 -0.6415
40641SOL    HW131853   6.009   1.311   6.315  0.7185  4.2029 -1.4776
40641SOL    HW231854   6.115   1.203   6.306 -2.9250  0.0811  0.8877
40642SOL     OW31855   7.866   7.313   4.827  0.0203  0.5089  0.4007
40642SOL    HW131856   7.866   7.378   4.897  0.5491 -0.5875  1.4634
40642SOL    HW231857   7.811   7.350   4.759 -0.5061  1.6119  1.4018
40643SOL     OW31858   8.109  10.261   9.983 -0.5787  0.7568 -0.4148
40643SOL    HW131859   8.203  10.275   9.996 -0.3323  1.5343 -2.5353
40643SOL    HW231860   8.079  10.222  10.065  2.0905 -2.0125 -0.5417
40644SOL     OW31861   5.489   9.865   0.334  0.3550  0.5060 -0.6848
40644SOL    HW131862   5.500   9.867   0.429  2.0598 -1.0701 -0.8002
40644SOL    HW231863   5.578   9.871   0.299  0.0644 -2.0267 -2.0695
40645SOL     OW31864  11.646   5.776   9.658  0.4309  0.3090 -0.4102
40645SOL    HW131865  11.634   5.774   9.753  0.3866 -1.2116 -0.4140
40645SOL    HW231866  11.562   5.806   9.624  0.6758  1.5740  0.0432
40646SOL     OW31867   6.435   4.525   0.855 -1.0003  1.0078  0.4615
40646SOL    HW131868   6.488   4.598   0.825 -0.4567  1.1417  1.7007
40646SOL    HW231869   6.449   4.521   0.949 -0.0722 -1.4033  0.3106
40647SOL     OW31870   6.655  11.950  13.299  0.0027  0.5148 -0.3715
40647SOL    HW131871   6.700  11.908  13.226 -0.6189  2.0136 -1.6786
40647SOL    HW231872   6.562  11.929  13.285  0.1066 -2.1294  2.0172
40648SOL     OW31873   5.294  10.031   7.435  0.3212  0.7329  0.2065
40648SOL    HW131874   5.202  10.039   7.409  1.0418  1.8940 -2.2180
40648SOL    HW231875   5.292   9.970   7.509 -2.3305  0.2666 -0.1455
40649SOL     OW31876   4.227   7.216  11.678  0.3265 -0.0550 -0.1521
40649SOL    HW131877   4.292   7.162  11.633 -0.7537 -0.9968 -0.6547
40649SOL    HW231878   4.235   7.302  11.637  2.8098  0.5414  1.3905
40650SOL     OW31879  12.969  12.762  11.625 -0.1808 -0.5332  0.1539
40650SOL    HW131880  12.945  12.670  11.638 -0.3000 -0.6068 -0.5554
40650SOL    HW231881  12.904  12.811  11.675 -1.4307 -0.7499 -1.2012
40651SOL     OW31882   6.943   6.923   4.420 -0.1601  0.4174  0.5969
40651SOL    HW131883   6.955   6.839   4.375  0.7857  0.2899  1.0520
40651SOL    HW231884   6.953   6.901   4.513 -1.5384  0.7688  0.8422
40652SOL     OW31885   6.012   6.419  12.525 -0.3604 -0.0733  0.0231
40652SOL    HW131886   5.946   6.356  12.553  0.4076 -1.2316 -0.6789
40652SOL    HW231887   5.968   6.472  12.458 -1.0257  0.1919  0.6569
40653SOL     OW31888  11.345  10.758   4.836 -0.2709 -0.0403  0.6673
40653SOL    HW131889  11.430  10.795   4.815  0.3954 -1.2042  1.2506
40653SOL    HW231890  11.303  10.826   4.890  0.1459  0.6653  0.1264
40654SOL     OW31891   0.814  11.817   8.502 -0.1847 -0.1580 -0.3313
40654SOL    HW131892   0.721  11.799   8.517  0.1416  0.1487  2.5472
40654SOL    HW231893   0.816  11.859   8.416 -2.4698 -1.7899 -1.2993
40655SOL     OW31894   5.449   9.815   0.607 -0.1624 -0.4372 -0.3721
40655SOL    HW131895   5.527   9.794   0.659  0.4335 -0.5758 -1.2991
40655SOL    HW231896   5.389   9.856   0.669  0.7217 -0.1676  0.3203
40656SOL     OW31897  10.316   6.638   4.601 -0.1851 -0.5472  0.0090
40656SOL    HW131898  10.253   6.701   4.636  0.0744  0.0480 -0.5763
40656SOL    HW231899  10.387   6.692   4.566 -1.0952 -0.9939 -2.7620
40657SOL     OW31900  10.435  10.816   4.087 -0.2866 -0.6890 -0.3717
40657SOL    HW131901  10.417  10.868   4.165 -0.9804  3.0789 -2.8032
40657SOL    HW231902  10.369  10.746   4.089  0.0190 -0.9971  2.5267
40658SOL     OW31903   2.374   0.292  10.913  0.9686  0.3816  0.1800
40658SOL    HW131904   2.373   0.202  10.879 -0.5136  0.2592  0.4510
40658SOL    HW231905   2.386   0.282  11.007 -2.0919  0.1977  0.6657
40659SOL     OW31906   8.054   0.405   3.602 -0.6155 -0.3559  0.1782
40659SOL    HW131907   8.089   0.375   3.519  1.7835 -0.3354  1.1084
40659SOL    HW231908   8.008   0.487   3.581 -2.5771 -1.7888 -1.5034
40660SOL     OW31909   6.206   1.572   5.771  0.1625  0.5185  0.3224
40660SOL    HW131910   6.203   1.619   5.688  3.0833  2.4308  1.1398
40660SOL    HW231911   6.246   1.488   5.750 -1.3604 -0.0445 -0.5098
40661SOL     OW31912   6.907   7.680   1.619  0.1786  0.2991  0.1437
40661SOL    HW131913   6.892   7.592   1.654  0.4137 -0.0264 -0.5605
40661SOL    HW231914   6.898   7.737   1.695 -0.1947 -0.3094  0.5706
40662SOL     OW31915   7.077   5.023   4.636  0.6228 -0.1203  0.0270
40662SOL    HW131916   7.039   4.948   4.682 -1.3120  0.2536 -0.8275
40662SOL    HW231917   7.089   5.089   4.704  1.7811 -0.9786  0.6819
40663SOL     OW31918  10.435   6.982   9.017 -0.1675  0.2121  0.2431
40663SOL    HW131919  10.419   6.897   8.975 -1.8275 -1.1803  3.2880
40663SOL    HW231920  10.497   6.963   9.087 -2.1053  0.9624  2.2883
40664SOL     OW31921  12.267  10.156   4.701 -0.1778 -0.3966  0.5003
40664SOL    HW131922  12.180  10.116   4.694 -0.3358 -0.2088  1.2800
40664SOL    HW231923  12.278  10.205   4.620  0.2254 -2.3904 -0.7351
40665SOL     OW31924   6.163  11.905   1.849 -0.1228 -0.3280 -0.0547
40665SOL    HW131925   6.162  11.970   1.920  1.2972  0.3741 -0.6472
40665SOL    HW231926   6.075  11.910   1.811 -0.3427  0.5397  0.5400
40666SOL     OW31927   5.373  11.584   1.433  0.1424  0.4163  0.2959
40666SOL    HW131928   5.357  11.491   1.449 -0.9377  0.2983 -1.2798
40666SOL    HW231929   5.312  11.629   1.491  0.2758  0.1401  0.6576
40667SOL     OW31930   1.301   2.827   1.814 -0.2671 -0.5838  0.1549
40667SOL    HW131931   1.331   2.918   1.821 -2.1265  0.1002 -0.2130
40667SOL    HW231932   1.356   2.779   1.876  1.5945  0.5469 -0.5410
40668SOL     OW31933   3.617   3.627   9.371 -0.1125  0.3510 -0.4490
40668SOL    HW131934   3.569   3.698   9.328 -0.3282  0.1197 -0.5956
40668SOL    HW231935   3.582   3.548   9.332 -0.3195  0.1344  0.1587
40669SOL     OW31936   0.167  12.449   6.810 -0.0928 -0.2388  0.4543
40669SOL    HW131937   0.216  12.531   6.820 -0.2137 -0.1824  0.5845
40669SOL    HW231938   0.161  12.436   6.715 -1.8280  0.9569  0.3586
40670SOL     OW31939  12.460   0.358   2.806  0.0907 -0.2550  0.5536
40670SOL    HW131940  12.374   0.394   2.831  0.6110  0.0271  2.0400
40670SOL    HW231941  12.519   0.387   2.876  1.3364 -0.7323 -0.2751
40671SOL     OW31942  12.588   4.510   5.265 -0.2898 -0.2144 -0.1217
40671SOL    HW131943  12.573   4.422   5.231  0.3117  0.2294 -1.6392
40671SOL    HW231944  12.681   4.527   5.247  0.0311  0.1225  1.6711
40672SOL     OW31945   2.865  11.141   9.017 -0.2501 -0.1076 -0.0450
40672SOL    HW131946   2.829  11.184   8.939 -0.6823 -0.5484 -0.0968
40672SOL    HW231947   2.910  11.211   9.065 -0.4658  0.2831 -0.4026
40673SOL     OW31948   8.571   0.790  10.439 -0.0286  0.0727  0.0090
40673SOL    HW131949   8.634   0.742  10.386 -0.3536  0.1102 -0.4099
40673SOL    HW231950   8.607   0.786  10.528  0.0627 -0.7530 -0.0546
40674SOL     OW31951  10.420   4.684  10.064  0.3613 -0.3506  0.2205
40674SOL    HW131952  10.474   4.618  10.021  0.3388  0.2545 -0.7510
40674SOL    HW231953  10.335   4.640  10.077  0.0771 -0.2474 -1.1962
40675SOL     OW31954   4.639   3.287  11.435 -0.0336  0.1720 -0.3280
40675SOL    HW131955   4.652   3.337  11.354 -0.1202  0.7489  0.0109
40675SOL    HW231956   4.548   3.302  11.459  0.0382  0.1439 -0.0304
40676SOL     OW31957   7.935  13.272   4.465  0.1686  0.8909 -0.3325
40676SOL    HW131958   7.917  13.290   4.557  2.3687  1.5083  0.0353
40676SOL    HW231959   7.914  13.179   4.454 -0.4031  0.8808  0.7023
40677SOL     OW31960   4.943   4.380   3.866  0.2455  0.4191  0.3515
40677SOL    HW131961   5.024   4.367   3.818  0.0114 -0.1589  0.1038
40677SOL    HW231962   4.878   4.329   3.818 -0.0397 -0.0006  1.1626
40678SOL     OW31963  10.369   1.965  13.174 -0.5550 -0.2018 -0.4021
40678SOL    HW131964  10.378   1.902  13.244  0.2207  0.7160  0.3652
40678SOL    HW231965  10.277   1.961  13.148 -0.8981 -0.4074  0.8081
40679SOL     OW31966   9.567  11.765   2.886 -0.1146 -0.2900 -0.9499
40679SOL    HW131967   9.516  11.745   2.965 -0.7640 -0.6886 -1.4648
40679SOL    HW231968   9.502  11.795   2.823  0.4164  0.1172 -1.3158
40680SOL     OW31969  11.684  12.899   9.577 -0.0649  0.1656  0.1931
40680SOL    HW131970  11.780  12.902   9.574 -0.0906 -0.0365 -1.6770
40680SOL    HW231971  11.665  12.817   9.623  0.6526  0.2338  0.6337
40681SOL     OW31972   7.269   8.711   8.591 -0.0142 -0.6472  0.3329
40681SOL    HW131973   7.272   8.803   8.567  1.4559 -0.4046  1.3197
40681SOL    HW231974   7.179   8.684   8.570 -0.1952  0.7325 -0.8732
40682SOL     OW31975   9.324  11.201   0.815 -0.1968 -1.1837 -0.3629
40682SOL    HW131976   9.331  11.246   0.730 -0.0707 -0.0277  0.2419
40682SOL    HW231977   9.239  11.157   0.812 -0.9240  0.1764 -0.4756
40683SOL     OW31978   7.068   2.567   1.408 -0.1715  0.0883  0.0118
40683SOL    HW131979   7.048   2.613   1.489  2.2652 -0.4144  0.9857
40683SOL    HW231980   7.065   2.474   1.432 -0.8256 -0.1270 -0.8518
40684SOL     OW31981   6.663   7.344   7.094  0.2238  0.5425  0.2346
40684SOL    HW131982   6.679   7.424   7.145  0.0064  0.2128  0.8305
40684SOL    HW231983   6.742   7.334   7.039  0.6564  0.6730  0.8214
40685SOL     OW31984   9.264  10.598   6.326  0.2710 -0.2081  0.2140
40685SOL    HW131985   9.268  10.680   6.374  2.4829 -0.7878  1.1471
40685SOL    HW231986   9.265  10.530   6.394 -1.0707 -1.0454 -0.5493
40686SOL     OW31987   4.107  10.413   4.178 -0.0470 -0.3486  0.2562
40686SOL    HW131988   4.175  10.347   4.184 -0.2202 -0.7865 -2.0100
40686SOL    HW231989   4.034  10.369   4.134 -0.1908  1.2853 -1.2383
40687SOL     OW31990   2.697   7.864   1.259  0.1472  0.4571  0.0653
40687SOL    HW131991   2.726   7.821   1.339  1.7259  0.9732 -0.1918
40687SOL    HW231992   2.624   7.810   1.228  0.3690 -0.5062  1.1470
40688SOL     OW31993   0.260   9.255   9.552  0.1019  0.5615  0.4049
40688SOL    HW131994   0.351   9.260   9.524 -0.2062 -0.9986 -1.1033
40688SOL    HW231995   0.210   9.265   9.471 -1.3722  5.5179  1.5620
40689SOL     OW31996   7.000  10.246  12.626 -0.1288 -0.4633  0.2247
40689SOL    HW131997   6.981  10.297  12.705  4.0083  1.0533  0.5130
40689SOL    HW231998   7.000  10.155  12.655  0.7456  0.0360  1.9200
40690SOL     OW31999   1.564   1.010  10.760 -0.1445  0.1564 -0.0012
40690SOL    HW132000   1.611   1.086  10.728 -0.5138  1.0834  1.5409
40690SOL    HW232001   1.632   0.949  10.788  0.2052  1.2343  1.6490
40691SOL     OW32002  13.220   1.028   2.130  0.4629  0.3711 -0.2359
40691SOL    HW132003  13.141   0.995   2.173  1.3034 -0.3413  0.8234
40691SOL    HW232004  13.292   0.982   2.173  1.4533  0.8445 -1.3243
40692SOL     OW32005  11.931   8.284   5.764  0.9448 -0.4715 -0.2696
40692SOL    HW132006  11.968   8.344   5.699  1.8744  1.2535  1.7454
40692SOL    HW232007  12.005   8.233   5.795  0.8901  0.0632  0.7802
40693SOL     OW32008   7.034   1.379  11.371  0.1644 -0.0140 -0.3017
40693SOL    HW132009   6.980   1.351  11.298 -0.4600 -0.3241  0.2604
40693SOL    HW232010   6.993   1.459  11.403  0.0444 -0.2361  0.1118
40694SOL     OW32011  11.813   2.012   5.860  0.1471 -0.6566  0.5506
40694SOL    HW132012  11.855   2.092   5.827 -0.1150 -1.1493 -1.0760
40694SOL    HW232013  11.793   2.031   5.952  1.0763  0.7363  0.4953
40695SOL     OW32014   9.304   8.870   2.140  0.0221 -0.0571 -0.0803
40695SOL    HW132015   9.378   8.841   2.088  0.3057  0.4929  0.0122
40695SOL    HW232016   9.254   8.927   2.081  1.3730  2.1451  0.7909
40696SOL     OW32017   4.973   9.773   0.830 -0.0028  0.1730  0.1154
40696SOL    HW132018   4.891   9.780   0.782 -0.7832 -0.7060  1.2711
40696SOL    HW232019   4.947   9.757   0.920  1.3994  2.3909  1.0141
40697SOL     OW32020   8.051   7.445  12.132 -0.1519 -0.1200 -0.1393
40697SOL    HW132021   8.010   7.466  12.216  0.9744 -0.6692  0.5653
40697SOL    HW232022   7.983   7.399  12.083 -1.0235  0.7563  0.2148
40698SOL     OW32023  10.407   1.728   0.344  0.4486 -0.5154  0.0637
40698SOL    HW132024  10.338   1.672   0.309  0.9982 -2.2914  1.6531
40698SOL    HW232025  10.488   1.690   0.309  0.6968  1.2964 -1.4580
40699SOL     OW32026  13.080  12.691   3.630 -0.1825  0.1422 -0.0682
40699SOL    HW132027  13.013  12.622   3.633  1.3487 -1.4445 -0.7498
40699SOL    HW232028  13.103  12.699   3.537  1.0452  0.1518  0.2148
40700SOL     OW32029   3.796  10.014   6.347 -0.1893  0.2220 -0.1754
40700SOL    HW132030   3.824  10.057   6.267  0.1665  0.2339 -0.0460
40700SOL    HW232031   3.719  10.063   6.376  1.3730  2.0732  1.0675
40701SOL     OW32032   7.352   9.018   6.426  0.0662 -0.7650 -0.5764
40701SOL    HW132033   7.310   9.005   6.341  1.0270 -1.8231 -0.9119
40701SOL    HW232034   7.280   9.013   6.490 -0.5047 -1.1187 -1.2388
40702SOL     OW32035   7.395   1.950   2.491  0.1586 -0.6742  0.0898
40702SOL    HW132036   7.454   1.958   2.566  1.0107 -1.3755 -0.4813
40702SOL    HW232037   7.327   2.015   2.507  1.9987  1.4131 -0.0678
40703SOL     OW32038   0.716   4.119   7.588  0.0763 -0.1196  0.1145
40703SOL    HW132039   0.627   4.086   7.600 -0.3296  1.1514  0.8919
40703SOL    HW232040   0.719   4.151   7.498 -0.2841 -0.1186  0.1038
40704SOL     OW32041  12.988   0.934   8.886 -0.2674  0.2316  0.2075
40704SOL    HW132042  13.032   0.999   8.831 -0.5429 -0.5731 -1.0006
40704SOL    HW232043  12.916   0.901   8.832 -2.4293  1.5090  2.1278
40705SOL     OW32044   2.178   7.262   1.689 -0.4343  0.4367  0.2671
40705SOL    HW132045   2.149   7.171   1.694  0.6888 -0.0519 -1.3721
40705SOL    HW232046   2.232   7.275   1.767 -0.4424 -0.3490  0.4095
40706SOL     OW32047   5.813   8.135   7.205  0.5222  0.3266  0.2555
40706SOL    HW132048   5.863   8.071   7.155 -0.1703 -0.4737  0.5520
40706SOL    HW232049   5.832   8.115   7.297 -1.1942 -0.7734  0.4288
40707SOL     OW32050   7.341   2.969  11.285 -0.4038  0.1311  0.3930
40707SOL    HW132051   7.365   2.906  11.217 -1.0347 -0.2089  0.4735
40707SOL    HW232052   7.268   3.017  11.249  0.3378  1.1180  0.1724
40708SOL     OW32053  12.157  12.060   5.064  0.2698  0.2677 -0.3788
40708SOL    HW132054  12.230  12.099   5.015  0.3664  1.0107  0.3503
40708SOL    HW232055  12.094  12.035   4.996  1.0680 -0.1147 -0.9949
40709SOL     OW32056  11.075   5.841  13.115  0.2676  0.4103  0.4253
40709SOL    HW132057  10.988   5.803  13.126 -0.4987  2.3919  1.5729
40709SOL    HW232058  11.110   5.797  13.038 -0.4790 -2.6959  1.6974
40710SOL     OW32059   0.543   5.532   1.332 -0.0498 -0.3907  0.0830
40710SOL    HW132060   0.564   5.472   1.260  2.8980 -1.8256  1.9383
40710SOL    HW232061   0.602   5.607   1.319 -0.2036 -0.2015  0.4577
40711SOL     OW32062   5.071   5.291   9.867  0.0897 -0.3515  0.3410
40711SOL    HW132063   5.090   5.292   9.960  2.0562 -1.5791  0.0008
40711SOL    HW232064   5.017   5.369   9.853  3.3200  2.4099  1.8139
40712SOL     OW32065  12.564   0.872   3.885 -0.1192 -0.0398 -0.5179
40712SOL    HW132066  12.647   0.917   3.869 -0.5957  1.1881  0.3149
40712SOL    HW232067  12.511   0.894   3.808 -0.3125  0.7449 -0.1654
40713SOL     OW32068   4.501   8.561   2.893 -0.0907 -0.1884  0.3431
40713SOL    HW132069   4.490   8.556   2.988  0.5234 -2.0371  0.3575
40713SOL    HW232070   4.416   8.537   2.857  0.0888 -0.9763  0.4360
40714SOL     OW32071   6.910  12.125   3.159  0.1930 -0.2334 -0.0355
40714SOL    HW132072   6.893  12.174   3.240  0.3008 -1.4449  0.7334
40714SOL    HW232073   6.835  12.146   3.103  1.4483  2.8524 -0.7750
40715SOL     OW32074   7.122  12.092   7.762 -0.6692  0.2807 -0.2768
40715SOL    HW132075   7.110  12.003   7.731 -0.3829  0.0376  0.2856
40715SOL    HW232076   7.053  12.104   7.827  0.4915 -0.2421  1.1115
40716SOL     OW32077   6.640   6.794  12.880  0.1738 -0.5978 -0.4902
40716SOL    HW132078   6.581   6.779  12.953 -0.0638  0.0267 -0.5505
40716SOL    HW232079   6.718   6.742  12.901  1.5472  2.1717  1.9170
40717SOL     OW32080   5.313  13.055   9.708  0.9949 -0.0967 -0.0776
40717SOL    HW132081   5.264  13.118   9.655 -0.2977  1.4630  2.7377
40717SOL    HW232082   5.405  13.075   9.691  0.6368  2.6783  0.6789
40718SOL     OW32083   1.931   4.890   2.170 -0.4131  0.0127  0.6783
40718SOL    HW132084   1.997   4.884   2.238 -1.7316 -2.2521  1.8547
40718SOL    HW232085   1.979   4.875   2.088  0.4905 -2.2560  1.5449
40719SOL     OW32086  10.503   2.984   4.341 -0.0948  0.1021  0.4133
40719SOL    HW132087  10.466   2.977   4.253 -0.5258  2.8203  0.2926
40719SOL    HW232088  10.502   2.894   4.375  0.5582 -1.1213 -2.5043
40720SOL     OW32089   8.352   8.583  12.610  0.6210  0.4095 -0.2026
40720SOL    HW132090   8.369   8.677  12.602  1.0571  0.3906  0.4475
40720SOL    HW232091   8.302   8.561  12.531  1.1845  1.0290 -0.7441
40721SOL     OW32092   8.076   7.248   2.621 -0.5804  0.0714 -0.4961
40721SOL    HW132093   8.021   7.220   2.548 -2.3232  1.3864  0.2569
40721SOL    HW232094   8.030   7.219   2.699 -0.5773  1.7980  0.1760
40722SOL     OW32095  10.085   7.678   9.377  0.3062  0.0077 -0.8390
40722SOL    HW132096  10.153   7.615   9.356 -1.0939 -1.3752 -1.4167
40722SOL    HW232097  10.003   7.635   9.351 -0.8514  1.3520  0.3830
40723SOL     OW32098   3.888   5.606   2.709 -0.8437  0.2282  0.4966
40723SOL    HW132099   3.945   5.580   2.637 -0.1311  1.3598  0.6344
40723SOL    HW232100   3.802   5.621   2.668 -1.3584 -2.3826  0.4278
40724SOL     OW32101   0.268  11.019  11.025 -0.0042 -0.4267 -0.3906
40724SOL    HW132102   0.222  11.075  10.961 -1.6196 -2.6498 -1.2899
40724SOL    HW232103   0.224  11.036  11.108  1.5137  1.8012  0.0578
40725SOL     OW32104  12.037  12.994   8.753  0.4001  0.3151 -0.6793
40725SOL    HW132105  12.055  13.055   8.681  0.2947  0.1867 -0.8141
40725SOL    HW232106  11.971  13.038   8.806  0.8477  0.6357 -0.3755
40726SOL     OW32107   1.115   8.824   8.352 -0.4188 -0.0243  0.0334
40726SOL    HW132108   1.135   8.735   8.325 -1.6186 -0.0449 -0.8652
40726SOL    HW232109   1.106   8.819   8.447  0.2559 -0.7025  0.0703
40727SOL     OW32110   4.133   6.027   0.100  0.3222 -0.1761 -0.0376
40727SOL    HW132111   4.192   5.962   0.139  2.5260  1.5700 -0.2840
40727SOL    HW232112   4.121   5.997   0.010 -0.9676 -1.6668  0.5686
40728SOL     OW32113   0.807   4.558  10.562 -0.4121  0.5265  0.6917
40728SOL    HW132114   0.854   4.565  10.479  0.2131  0.1531  1.0075
40728SOL    HW232115   0.857   4.494  10.613 -1.0716  0.3752  1.1660
40729SOL     OW32116   2.919   2.720   1.368  0.1660  0.1145 -0.1764
40729SOL    HW132117   2.882   2.643   1.411 -0.9293  0.5568 -0.2716
40729SOL    HW232118   2.959   2.770   1.438 -0.7389  0.3474  0.1890
40730SOL     OW32119  12.386  12.472  10.839  0.3770 -0.2062 -0.1576
40730SOL    HW132120  12.322  12.401  10.844  2.7299 -2.3972  1.3669
40730SOL    HW232121  12.450  12.442  10.774  2.1818 -0.2448  1.5525
40731SOL     OW32122   9.486   4.561   7.862  0.3487  0.2803  0.3349
40731SOL    HW132123   9.443   4.563   7.776 -1.3177 -0.8297  1.1028
40731SOL    HW232124   9.458   4.643   7.904 -0.8672 -0.3218  0.7361
40732SOL     OW32125   2.147   2.562   6.032 -0.0734 -0.1419 -0.5945
40732SOL    HW132126   2.133   2.545   6.125 -1.1573 -0.5821 -0.8146
40732SOL    HW232127   2.215   2.500   6.006  0.6432  0.3793  0.0213
40733SOL     OW32128   2.461   9.076  11.730 -0.3362  0.5790  0.3496
40733SOL    HW132129   2.420   9.156  11.697 -2.1873 -0.7290 -0.6641
40733SOL    HW232130   2.388   9.019  11.752  0.9378 -0.4787  2.0686
40734SOL     OW32131  12.639  10.637   8.089 -0.2884  0.0504  0.0774
40734SOL    HW132132  12.591  10.555   8.084 -0.2908  0.0883 -0.5835
40734SOL    HW232133  12.731  10.611   8.083 -0.3368  0.2657 -3.0847
40735SOL     OW32134  10.288  12.988  10.122  0.4880  0.2618  0.6546
40735SOL    HW132135  10.382  12.974  10.114  0.4739  0.3588  0.3162
40735SOL    HW232136  10.275  13.009  10.214  0.6227 -1.1561  1.0304
40736SOL     OW32137   6.110   9.013   2.908  0.1214  0.2373 -1.2435
40736SOL    HW132138   6.035   8.961   2.878  0.5821 -1.4379  0.2849
40736SOL    HW232139   6.072   9.096   2.935 -1.1091 -0.3251 -1.1480
40737SOL     OW32140  11.508   5.027   7.648 -0.1844 -0.4987  0.3720
40737SOL    HW132141  11.518   5.061   7.737  1.5551 -0.3617  0.1713
40737SOL    HW232142  11.593   5.043   7.607 -1.3599  0.7190 -1.7807
40738SOL     OW32143   5.967   9.323   0.089 -0.1792 -0.2509 -0.1094
40738SOL    HW132144   6.031   9.360   0.150 -0.1333 -1.4030  0.5761
40738SOL    HW232145   5.899   9.390   0.081  0.1700  0.2050  0.6473
40739SOL     OW32146   2.202  12.882   9.167  0.0030  0.4582 -0.2195
40739SOL    HW132147   2.134  12.949   9.174  0.8885  1.3010  0.4691
40739SOL    HW232148   2.221  12.876   9.074 -1.6875 -0.5012 -0.5527
40740SOL     OW32149   3.637  12.790   3.262  0.0204  0.0682 -0.1118
40740SOL    HW132150   3.592  12.865   3.301  0.3235  0.6925 -0.9383
40740SOL    HW232151   3.722  12.788   3.306  1.3407  2.2614 -2.3429
40741SOL     OW32152  10.443   6.137   2.213 -0.9912 -0.3820  0.8392
40741SOL    HW132153  10.498   6.080   2.267  0.9880  0.2720 -0.3708
40741SOL    HW232154  10.393   6.076   2.158 -0.7231 -0.9785  1.2456
40742SOL     OW32155  12.184   2.344  11.003  0.1329  0.1129  0.1374
40742SOL    HW132156  12.268   2.353  11.047 -0.4737 -1.2605  1.6455
40742SOL    HW232157  12.205   2.354  10.910  1.8145  0.6660  0.5423
40743SOL     OW32158   6.205   5.206   4.943  0.1667 -0.5298  0.2100
40743SOL    HW132159   6.122   5.218   4.896 -0.6212  0.8287  1.8592
40743SOL    HW232160   6.261   5.158   4.881 -2.0051 -1.9730 -0.7590
40744SOL     OW32161   2.999  12.334   1.205 -0.3476  0.2450  0.4075
40744SOL    HW132162   2.920  12.383   1.182  0.8657  1.3001 -1.9134
40744SOL    HW232163   3.055  12.341   1.127  2.4048  0.2752  2.2314
40745SOL     OW32164   8.974   1.442   0.624  0.5700 -0.6692  0.2437
40745SOL    HW132165   9.020   1.439   0.540  0.0715 -1.4641 -0.0057
40745SOL    HW232166   9.039   1.479   0.684  1.5085 -1.6210 -0.1354
40746SOL     OW32167  12.225   2.974   5.657 -0.1147  0.3264 -0.1495
40746SOL    HW132168  12.267   3.054   5.626 -0.7104 -0.0471 -2.0761
40746SOL    HW232169  12.272   2.903   5.612 -0.9251 -0.2607 -0.0951
40747SOL     OW32170   5.672   7.367   2.693 -0.3653  0.0648 -0.0331
40747SOL    HW132171   5.588   7.362   2.739 -1.7510  0.4510 -2.3462
40747SOL    HW232172   5.675   7.287   2.640  1.9032 -1.1371  1.6991
40748SOL     OW32173   1.696   0.608   1.273 -0.0692 -0.6468  0.6393
40748SOL    HW132174   1.734   0.622   1.360  0.2920  0.2793  0.3413
40748SOL    HW232175   1.740   0.531   1.239  1.8118  0.5543  0.1782
40749SOL     OW32176   2.527   1.765   4.689 -0.2829 -0.3442  0.2817
40749SOL    HW132177   2.506   1.756   4.596 -0.4308 -0.2742  0.3086
40749SOL    HW232178   2.583   1.843   4.693  0.1017 -0.6099  0.1929
40750SOL     OW32179   8.755   8.420   7.668  0.0523 -0.3720  0.2732
40750SOL    HW132180   8.814   8.435   7.742 -0.9218  0.0949  0.9812
40750SOL    HW232181   8.716   8.335   7.686  1.2003 -1.1358 -0.6993
40751SOL     OW32182  11.700   2.897   9.044  0.1355 -0.1772  0.1932
40751SOL    HW132183  11.620   2.896   9.097 -1.4572  0.4718 -1.9975
40751SOL    HW232184  11.700   2.813   8.999  1.0765 -0.4472  0.6931
40752SOL     OW32185   7.361   1.776   4.848 -0.4946  0.0896  0.6255
40752SOL    HW132186   7.271   1.766   4.819 -1.0282 -0.2659  2.3152
40752SOL    HW232187   7.384   1.691   4.887 -0.2330  0.8878  2.2935
40753SOL     OW32188   5.508  13.007   1.261 -0.1409 -0.4240  0.5467
40753SOL    HW132189   5.556  12.941   1.211 -0.3640 -1.1807  1.2954
40753SOL    HW232190   5.576  13.063   1.298 -0.0025  1.5292 -2.3021
40754SOL     OW32191   5.695   2.138   2.920 -0.0862 -0.2189 -0.1915
40754SOL    HW132192   5.741   2.202   2.974  3.7661 -1.3604 -1.7848
40754SOL    HW232193   5.722   2.053   2.955 -1.4137 -0.9834 -0.9483
40755SOL     OW32194   7.010   1.887  12.830 -0.0549 -0.0728  0.2094
40755SOL    HW132195   6.954   1.902  12.753  0.0186 -1.4624 -0.1410
40755SOL    HW232196   7.091   1.851  12.794 -0.7213 -2.5741  1.0191
40756SOL     OW32197   7.756   4.660   7.454 -0.0079  0.5546  0.1639
40756SOL    HW132198   7.847   4.631   7.451 -0.4258 -0.8082 -2.7963
40756SOL    HW232199   7.756   4.733   7.516  2.6408 -0.7959  1.9119
40757SOL     OW32200   3.290   2.228  10.143  0.1006  0.2170 -0.2215
40757SOL    HW132201   3.283   2.267  10.056 -0.2811 -0.7496 -0.6342
40757SOL    HW232202   3.297   2.134  10.127  1.1311  0.1051  0.7486
40758SOL     OW32203   1.082   0.967  10.482 -0.2375  0.2773 -0.0905
40758SOL    HW132204   1.063   1.056  10.511 -1.5856  0.3122 -0.9918
40758SOL    HW232205   1.176   0.968  10.460 -0.3025  1.5511 -0.3727
40759SOL     OW32206   8.225   3.400   3.435 -0.0202  0.4722  0.7447
40759SOL    HW132207   8.194   3.439   3.517  0.2909  0.9942  0.6203
40759SOL    HW232208   8.283   3.330   3.463 -0.8691 -0.1494  0.9751
40760SOL     OW32209   6.900  11.208  12.822 -0.3492  0.3599  0.1000
40760SOL    HW132210   6.921  11.156  12.900 -2.4017  1.2998  1.3941
40760SOL    HW232211   6.957  11.284  12.827  1.0733 -0.6222 -0.5671
40761SOL     OW32212   3.180   3.334   2.337  0.3022  0.1698  0.0104
40761SOL    HW132213   3.253   3.394   2.327  0.2269  0.2557 -0.0265
40761SOL    HW232214   3.202   3.259   2.282  0.8507 -0.2688  0.7896
40762SOL     OW32215   7.359   2.831   8.014  0.2903  0.2344 -0.7608
40762SOL    HW132216   7.435   2.803   8.066  0.8210  1.6907 -0.7051
40762SOL    HW232217   7.292   2.766   8.033  0.7617  0.2240  1.0543
40763SOL     OW32218   4.002   7.314   3.953 -0.0986  0.1899 -0.3733
40763SOL    HW132219   4.021   7.386   3.893  0.2750  0.0990 -0.3653
40763SOL    HW232220   3.946   7.254   3.902  0.4025  0.0007 -0.7074
40764SOL     OW32221   8.053  10.380   1.566  0.7920  0.0406  0.3821
40764SOL    HW132222   8.068  10.441   1.493 -1.5224  0.4298  0.1699
40764SOL    HW232223   7.999  10.311   1.528  0.3039 -0.2145  1.5282
40765SOL     OW32224   8.044  11.088  10.422 -0.0752 -0.4420 -0.1416
40765SOL    HW132225   7.966  11.100  10.368  0.5630  1.2923 -0.7414
40765SOL    HW232226   8.034  11.152  10.493 -0.3227 -1.8731  1.1734
40766SOL     OW32227   5.391  12.684   8.183 -0.0572 -0.0601  0.8240
40766SOL    HW132228   5.400  12.769   8.226 -0.2762 -0.5563  1.9001
40766SOL    HW232229   5.413  12.620   8.252  0.6110 -0.8604 -0.1014
40767SOL     OW32230  11.714   3.697  10.751 -0.7716 -0.3096 -0.2017
40767SOL    HW132231  11.714   3.714  10.845 -0.1668 -0.7688 -0.1054
40767SOL    HW232232  11.807   3.695  10.727 -0.9235  1.4930 -1.1466
40768SOL     OW32233   4.056   5.135   7.944 -0.0241  0.4310  0.3634
40768SOL    HW132234   3.996   5.205   7.971  1.5178  1.3527  1.5750
40768SOL    HW232235   4.102   5.110   8.025  1.8014  0.3521 -0.6387
40769SOL     OW32236   1.413  11.657   4.284  0.2443 -0.3132 -0.0956
40769SOL    HW132237   1.373  11.703   4.358  1.3191  0.2518  0.1454
40769SOL    HW232238   1.371  11.570   4.285  1.1506 -0.7908  1.9868
40770SOL     OW32239   0.449   7.538   4.854  0.3185 -0.0224 -0.3646
40770SOL    HW132240   0.374   7.485   4.826 -0.7203  0.6812  0.9777
40770SOL    HW232241   0.478   7.583   4.775 -0.8618 -0.0984 -0.8596
40771SOL     OW32242  13.020   6.681  12.318 -0.3968  0.7416  0.5937
40771SOL    HW132243  12.996   6.762  12.362 -1.8184  0.5155  0.2711
40771SOL    HW232244  13.043   6.621  12.388 -0.1199  1.1644  0.8718
40772SOL     OW32245   1.218   8.457   9.250 -0.1287  0.0584 -0.0071
40772SOL    HW132246   1.193   8.450   9.158 -1.2285  0.5094  0.2442
40772SOL    HW232247   1.308   8.491   9.247  1.6551 -4.0821 -0.9871
40773SOL     OW32248  12.594  11.195   5.109 -0.2707  0.2575 -0.0228
40773SOL    HW132249  12.555  11.275   5.145  0.1057  1.4221 -2.0611
40773SOL    HW232250  12.657  11.167   5.176 -1.1531  1.0396  1.1844
40774SOL     OW32251  11.604   3.185   0.703 -0.3576  0.0717  0.2698
40774SOL    HW132252  11.605   3.094   0.731 -1.3152  0.1171  0.4944
40774SOL    HW232253  11.512   3.212   0.711 -0.4946  0.4386 -1.7889
40775SOL     OW32254   3.857   6.090   0.187  0.0084  0.0941  0.5344
40775SOL    HW132255   3.869   6.118   0.278 -1.8464 -0.6112  1.0407
40775SOL    HW232256   3.946   6.074   0.155  0.6627 -0.5824  2.5329
40776SOL     OW32257  11.406   7.033   0.250 -0.5677  0.2028 -0.5947
40776SOL    HW132258  11.335   7.084   0.212  0.6134  0.9160 -1.9056
40776SOL    HW232259  11.455   7.000   0.176 -0.7848 -2.1981  0.2297
40777SOL     OW32260   8.142   6.269  10.443 -0.0501  0.0139  0.2287
40777SOL    HW132261   8.117   6.186  10.403 -1.0501  0.2891  0.2551
40777SOL    HW232262   8.164   6.247  10.533  0.5021 -0.3396  0.0162
40778SOL     OW32263   2.931   0.380   4.819  0.0349  0.6567 -0.4678
40778SOL    HW132264   3.012   0.359   4.774 -0.4410  0.9445 -1.4955
40778SOL    HW232265   2.866   0.321   4.782 -0.4760  1.2489 -0.5414
40779SOL     OW32266   6.814   8.250  12.984 -0.3617  0.1768 -0.6305
40779SOL    HW132267   6.897   8.296  12.994 -0.2207 -0.2323  0.2339
40779SOL    HW232268   6.798   8.212  13.070 -2.2314  1.5534 -0.2983
40780SOL     OW32269  10.486   1.876  12.077 -0.1017  0.4138 -0.4699
40780SOL    HW132270  10.542   1.802  12.055  1.7522  1.5741  0.0744
40780SOL    HW232271  10.399   1.838  12.088  1.1641 -2.1314  2.1227
40781SOL     OW32272   0.891   5.567   1.251 -0.1418  0.3433 -0.0911
40781SOL    HW132273   0.969   5.620   1.266 -0.5057  0.6996  0.5644
40781SOL    HW232274   0.820   5.614   1.295 -0.7434  0.0497 -0.7132
40782SOL     OW32275   3.396   2.380  12.835 -0.1895  0.2961  0.3307
40782SOL    HW132276   3.337   2.455  12.846 -1.2631 -0.2153 -1.4752
40782SOL    HW232277   3.384   2.354  12.744  1.2886 -1.1636  0.5064
40783SOL     OW32278  10.999  12.112  12.112  0.2045  0.5920 -0.6907
40783SOL    HW132279  10.911  12.111  12.150  1.1363 -0.9859  1.7014
40783SOL    HW232280  11.010  12.200  12.076 -1.1056  2.0360  2.1316
40784SOL     OW32281  11.776   1.031   3.471 -0.3647  0.2982 -0.3891
40784SOL    HW132282  11.737   1.055   3.387 -0.8547  0.6520 -0.0618
40784SOL    HW232283  11.708   0.984   3.517 -0.7330  1.6644  0.5352
40785SOL     OW32284  13.279  11.716   6.052  0.0343  0.3734 -0.3526
40785SOL    HW132285  13.364  11.694   6.014  0.0005  1.0488 -0.8270
40785SOL    HW232286  13.254  11.637   6.101  0.7826  0.0548 -0.4681
40786SOL     OW32287  10.970   0.614  12.624  0.1304 -0.0990  0.1336
40786SOL    HW132288  11.061   0.628  12.649 -0.4715  0.5586  2.1693
40786SOL    HW232289  10.957   0.669  12.547  1.4777 -0.3800 -0.3313
40787SOL     OW32290  10.895  12.855   1.317  0.2526  0.3180 -0.6115
40787SOL    HW132291  10.971  12.821   1.269 -0.0783  1.1924 -1.8174
40787SOL    HW232292  10.900  12.950   1.306 -0.2661  0.4884  0.4677
40788SOL     OW32293  12.882  10.218   5.130  0.2597 -0.3334  0.2513
40788SOL    HW132294  12.921  10.273   5.063  1.1812  0.8678  1.7012
40788SOL    HW232295  12.922  10.131   5.118  0.0099 -0.2751 -1.0501
40789SOL     OW32296   8.282  11.969  11.441 -0.1595  0.0381 -0.0896
40789SOL    HW132297   8.210  11.943  11.499 -2.4593 -0.6280 -2.9984
40789SOL    HW232298   8.347  12.009  11.499 -1.9971 -1.1010  2.9529
40790SOL     OW32299   3.161   6.216   0.614  0.2860  0.2815 -0.5304
40790SOL    HW132300   3.205   6.272   0.550 -0.3333 -0.9950 -2.1548
40790SOL    HW232301   3.175   6.127   0.582  1.6671 -0.6142  2.2423
40791SOL     OW32302   4.241   7.423   1.629  0.4401  0.6621 -0.0691
40791SOL    HW132303   4.296   7.347   1.642  0.1763  0.3013 -0.9926
40791SOL    HW232304   4.279   7.469   1.554  1.0078  1.8319  0.8923
40792SOL     OW32305   7.428   9.157   7.847 -0.1677 -0.3406  0.1361
40792SOL    HW132306   7.334   9.146   7.831 -0.3909  0.3486  0.8713
40792SOL    HW232307   7.470   9.108   7.777 -1.0818  0.5058 -1.0465
40793SOL     OW32308  10.148   8.996   3.389 -0.7463  0.2562  0.2392
40793SOL    HW132309  10.185   8.922   3.436 -0.9613 -0.9779 -1.4400
40793SOL    HW232310  10.054   8.979   3.387 -0.7928  0.5384 -0.1852
40794SOL     OW32311   5.035   8.865  10.299 -0.3709  0.3815 -0.4223
40794SOL    HW132312   5.010   8.891  10.210  0.5760 -1.9842 -1.4675
40794SOL    HW232313   4.992   8.781  10.312  1.6144 -0.5909  0.2824
40795SOL     OW32314   9.312  11.537   2.097  0.1511  0.6270  0.5862
40795SOL    HW132315   9.381  11.470   2.096  0.3723  0.8576 -0.6944
40795SOL    HW232316   9.343  11.604   2.037 -0.8446  1.0977  0.5787
40796SOL     OW32317   0.906   3.835   5.367  0.3574 -0.1948 -0.1741
40796SOL    HW132318   0.961   3.883   5.306 -0.4460  0.6417 -0.2737
40796SOL    HW232319   0.956   3.833   5.449  0.1461  1.4095  0.0253
40797SOL     OW32320   0.481  12.306   3.318  0.3299  0.3333 -0.2951
40797SOL    HW132321   0.460  12.229   3.371  1.7769  0.1703  0.0864
40797SOL    HW232322   0.527  12.271   3.242 -0.9435  0.6494 -1.2389
40798SOL     OW32323   6.322   7.549   5.406  0.3445 -0.3184  0.2572
40798SOL    HW132324   6.242   7.581   5.365  0.0730 -0.7130  0.4787
40798SOL    HW232325   6.295   7.475   5.459  0.9476 -0.8596 -0.1633
40799SOL     OW32326   5.575   8.376   7.981  0.7486 -0.3492 -0.2700
40799SOL    HW132327   5.484   8.372   7.950  1.0907  1.3104 -1.6621
40799SOL    HW232328   5.581   8.460   8.026  1.5871 -0.4770 -0.1359
40800SOL     OW32329   6.380   2.546   8.332 -0.3933 -0.7641 -0.1583
40800SOL    HW132330   6.391   2.521   8.424  1.2790  0.6545  0.0912
40800SOL    HW232331   6.367   2.640   8.334 -0.0355 -0.6703 -1.3897
40801SOL     OW32332   3.051  12.054   7.530  0.2095  0.2043 -0.1828
40801SOL    HW132333   3.134  12.062   7.579  0.2813  3.3162 -0.5728
40801SOL    HW232334   2.993  12.005   7.589  1.5471  0.2490  1.2457
40802SOL     OW32335  11.151  12.986  10.584 -0.0815 -0.1969 -0.1757
40802SOL    HW132336  11.211  12.995  10.658  0.1563 -0.4079 -0.3365
40802SOL    HW232337  11.197  12.926  10.524 -0.1888  0.1185 -0.5756
40803SOL     OW32338  13.119   3.929   1.972  0.6291 -0.2195 -0.1855
40803SOL    HW132339  13.120   4.006   2.028  1.2302  1.3478 -2.2283
40803SOL    HW232340  13.034   3.931   1.928 -0.0594 -1.7322  0.9884
40804SOL     OW32341   0.727  12.682   5.558  0.2290 -0.3372  0.7279
40804SOL    HW132342   0.654  12.744   5.557 -0.2280 -0.8011  2.1173
40804SOL    HW232343   0.770  12.698   5.642  0.7274 -1.2030  0.6499
40805SOL     OW32344   9.286  10.759   7.492  0.1263 -0.0119  0.3323
40805SOL    HW132345   9.288  10.818   7.567  0.6300  0.8351 -0.3313
40805SOL    HW232346   9.265  10.815   7.417 -3.6652 -1.2808  0.2169
40806SOL     OW32347  12.692   2.011   4.249 -0.1232  0.2666  0.2362
40806SOL    HW132348  12.622   2.050   4.302  1.4453  2.0501  1.1208
40806SOL    HW232349  12.755   1.979   4.314  0.0337 -1.0525 -0.5484
40807SOL     OW32350   6.414   7.246   8.622  0.1615  0.4108 -0.1426
40807SOL    HW132351   6.391   7.286   8.538  0.0031  0.9146  0.1369
40807SOL    HW232352   6.416   7.319   8.683 -1.3641 -0.1510  0.6343
40808SOL     OW32353   3.800   7.370   4.622 -0.0431 -0.4094  0.3141
40808SOL    HW132354   3.853   7.378   4.700  0.0349  0.8750  0.1439
40808SOL    HW232355   3.856   7.325   4.558  1.3527  2.0358 -0.2860
40809SOL     OW32356  10.141   9.638   4.687  0.0434  0.4004 -0.2557
40809SOL    HW132357  10.069   9.634   4.750  0.3758  2.6104  0.3394
40809SOL    HW232358  10.099   9.657   4.603 -0.2384 -0.7352 -0.3939
40810SOL     OW32359   4.547   5.679   0.944 -0.0363 -0.3867  0.4293
40810SOL    HW132360   4.596   5.599   0.965 -0.2431 -0.2407  1.5558
40810SOL    HW232361   4.456   5.651   0.940  0.1014 -0.6587 -1.6743
40811SOL     OW32362   4.794   4.345   8.691 -0.0224 -0.0657  0.2490
40811SOL    HW132363   4.758   4.265   8.653  1.4306 -1.1358  0.9829
40811SOL    HW232364   4.875   4.360   8.642 -0.6198  1.3882 -0.3448
40812SOL     OW32365  12.578   1.578  12.832  0.2455  0.1235 -0.0999
40812SOL    HW132366  12.534   1.663  12.834  1.7528  0.9167  0.0020
40812SOL    HW232367  12.671   1.598  12.822  0.4841 -1.5572 -1.9151
40813SOL     OW32368  12.293   9.963  13.031 -0.2788 -0.3700  0.3317
40813SOL    HW132369  12.362  10.028  13.016  0.7635 -1.5024 -0.0214
40813SOL    HW232370  12.215  10.001  12.992  0.3054  0.6735  0.1418
40814SOL     OW32371   1.128   1.473   7.301 -0.0103  0.4100  0.1768
40814SOL    HW132372   1.117   1.382   7.275 -1.8288  0.4097  0.8494
40814SOL    HW232373   1.223   1.487   7.299  0.2327 -1.1762 -0.9549
40815SOL     OW32374  10.578   0.553   5.316 -0.0316 -0.1631  0.0909
40815SOL    HW132375  10.543   0.561   5.227  0.0145  1.1752  0.1731
40815SOL    HW232376  10.665   0.515   5.305  0.0072  0.0787 -0.4421
40816SOL     OW32377   6.020   5.933   9.506  0.0826  0.3428 -0.3179
40816SOL    HW132378   5.950   5.960   9.564  0.5697  1.5721 -0.2727
40816SOL    HW232379   6.097   5.983   9.535  0.7871 -0.3922 -0.8502
40817SOL     OW32380  11.306   6.628   6.495 -0.0782 -0.0428 -0.1028
40817SOL    HW132381  11.346   6.559   6.549 -2.4864 -0.5954  1.1019
40817SOL    HW232382  11.215   6.631   6.523 -0.3625  2.8476 -0.9598
40818SOL     OW32383  10.507  11.771  10.384  0.3005 -0.0777 -0.3094
40818SOL    HW132384  10.486  11.735  10.298 -0.2021 -2.2120  0.6492
40818SOL    HW232385  10.445  11.843  10.395  1.1712  1.0211 -2.1978
40819SOL     OW32386   4.439   8.213   2.550 -0.0499  0.6561  0.8850
40819SOL    HW132387   4.509   8.229   2.613  0.4443 -1.5125  0.9814
40819SOL    HW232388   4.484   8.200   2.467 -0.3669 -0.0897  0.8186
40820SOL     OW32389   8.932   2.573  12.415 -0.2559  0.4573  0.2755
40820SOL    HW132390   8.865   2.637  12.391  0.3975  1.5300  1.2229
40820SOL    HW232391   9.009   2.600  12.366 -0.5264 -0.8604 -0.9252
40821SOL     OW32392  12.010   5.923   3.775  0.3090  0.7834 -0.0040
40821SOL    HW132393  12.097   5.899   3.808 -1.1146 -1.9127  2.0982
40821SOL    HW232394  11.988   6.003   3.822  0.4310 -0.2181  1.8381
40822SOL     OW32395   3.793   8.174   8.419  0.1480 -0.0707  0.0642
40822SOL    HW132396   3.846   8.249   8.392 -1.4912  0.4313 -2.0055
40822SOL    HW232397   3.857   8.108   8.445  1.8433  0.4565 -2.3858
40823SOL     OW32398  10.395   8.808  12.372 -0.4719  0.2877 -0.2011
40823SOL    HW132399  10.352   8.870  12.313 -0.8424 -1.1667 -1.5351
40823SOL    HW232400  10.448   8.753  12.315 -1.5423 -1.7611  0.6597
40824SOL     OW32401  11.671   1.250   4.195  0.0022  0.6862 -0.8034
40824SOL    HW132402  11.661   1.342   4.220  0.1278  0.2173  1.1378
40824SOL    HW232403  11.761   1.243   4.163  0.8115  0.8069  1.3010
40825SOL     OW32404   7.683  10.257   3.565 -0.6347  0.6334 -0.5608
40825SOL    HW132405   7.690  10.347   3.535  0.3687  0.0513 -2.1952
40825SOL    HW232406   7.703  10.204   3.488  1.8720 -0.9756  1.0523
40826SOL     OW32407   2.104   2.724   1.220  0.2289  0.5789  0.0180
40826SOL    HW132408   2.171   2.764   1.164  0.0333  1.2705  0.2664
40826SOL    HW232409   2.069   2.797   1.272  0.7151 -0.1090  1.3698
40827SOL     OW32410   7.161   7.902   6.914  0.3428  0.8453  0.3919
40827SOL    HW132411   7.209   7.886   6.994  2.8015  0.4254 -1.0701
40827SOL    HW232412   7.112   7.822   6.897 -0.5125  1.0840  1.6218
40828SOL     OW32413   0.395  12.544   0.899  0.5301  0.1385  0.0769
40828SOL    HW132414   0.315  12.588   0.870  0.1447 -0.4368  0.2492
40828SOL    HW232415   0.461  12.568   0.834  0.3741  1.1035  0.2555
40829SOL     OW32416  12.885   0.732   6.841 -0.3436  0.2813  0.2474
40829SOL    HW132417  12.847   0.790   6.907 -1.1048 -0.9100  0.8749
40829SOL    HW232418  12.836   0.650   6.849  1.4092 -0.8301  0.1217
40830SOL     OW32419   5.901  11.884   1.447 -0.4911  0.1931 -0.1224
40830SOL    HW132420   5.855  11.963   1.418 -1.6439 -0.5125 -0.2936
40830SOL    HW232421   5.952  11.913   1.523 -1.1538  1.0420  0.0282
40831SOL     OW32422  10.544   0.982   3.211  0.1688 -0.0150 -0.0481
40831SOL    HW132423  10.604   0.927   3.261 -0.3141  0.8308  1.5322
40831SOL    HW232424  10.461   0.976   3.259 -0.9839 -0.9098 -1.9896
40832SOL     OW32425   4.332   3.550   8.588 -0.2304  0.0509 -0.3087
40832SOL    HW132426   4.301   3.587   8.505  1.4380 -0.8548 -1.3905
40832SOL    HW232427   4.309   3.457   8.583 -3.9242  0.6323  2.1575
40833SOL     OW32428   3.046   6.290   3.802 -0.3186  0.2910 -0.1984
40833SOL    HW132429   3.004   6.355   3.746  0.5388  0.0403 -1.1622
40833SOL    HW232430   3.106   6.340   3.857 -0.0827  0.3787 -0.5349
40834SOL     OW32431   3.420   1.556   8.660 -0.1865  0.0598 -0.2173
40834SOL    HW132432   3.498   1.513   8.693  1.2529  1.8609 -1.1068
40834SOL    HW232433   3.375   1.487   8.610  0.6443 -1.0876  0.5543
40835SOL     OW32434   1.992  11.240   9.482  0.1184  0.4305  0.0793
40835SOL    HW132435   1.906  11.197   9.476  0.4671 -0.2079 -0.5728
40835SOL    HW232436   1.977  11.329   9.453 -0.2931  0.2652 -0.2214
40836SOL     OW32437   1.622  12.817   6.616 -0.3821 -0.1629  0.0847
40836SOL    HW132438   1.571  12.894   6.590  0.4763 -0.1856 -1.8263
40836SOL    HW232439   1.657  12.782   6.534  2.3743 -0.4025  1.2528
40837SOL     OW32440   3.739  10.365   6.588  0.0384  0.1017  0.8024
40837SOL    HW132441   3.751  10.297   6.654 -0.2919 -1.1936 -0.3958
40837SOL    HW232442   3.648  10.353   6.558  0.4293  0.1063 -0.4362
40838SOL     OW32443   3.085   8.584   3.085 -0.2741 -0.1517  0.4204
40838SOL    HW132444   3.119   8.528   3.155  0.4571  1.0468  1.0524
40838SOL    HW232445   3.048   8.660   3.131  1.1632  1.1663 -0.5020
40839SOL     OW32446   7.327   8.178   9.058  0.6458  0.4207  0.1264
40839SOL    HW132447   7.327   8.083   9.047  1.1019  0.4701 -0.3045
40839SOL    HW232448   7.303   8.191   9.150 -1.3300 -0.0482 -0.2684
40840SOL     OW32449  10.820   8.896  12.430 -0.2585  0.5182  0.2394
40840SOL    HW132450  10.833   8.897  12.525 -0.1816  1.4472  0.2336
40840SOL    HW232451  10.908   8.897  12.393 -0.2673 -0.7437  0.1356
40841SOL     OW32452   4.375   1.101   2.126  0.0619 -0.1156 -0.1903
40841SOL    HW132453   4.340   1.184   2.161 -0.2699 -0.0944 -0.5728
40841SOL    HW232454   4.430   1.068   2.197  0.7469  0.7690 -0.2844
40842SOL     OW32455  13.200   0.404  10.408  0.1107 -0.1250  0.4495
40842SOL    HW132456  13.207   0.320  10.363 -1.6203 -0.0388 -0.0399
40842SOL    HW232457  13.113   0.436  10.385 -0.1328  0.7544  2.4537
40843SOL     OW32458  10.950   2.386   4.454 -0.2004  0.3748  0.4283
40843SOL    HW132459  11.031   2.347   4.420 -1.1190 -0.7041 -0.5844
40843SOL    HW232460  10.892   2.312   4.469 -1.8343  1.2642 -1.1218
40844SOL     OW32461   9.576  12.186   0.914 -0.1506  0.5083 -0.0932
40844SOL    HW132462   9.587  12.253   0.981  2.8478 -0.0557  0.1204
40844SOL    HW232463   9.552  12.107   0.963 -1.2957  0.8498 -0.0839
40845SOL     OW32464   2.793  13.312   5.165 -0.3614  0.1017  0.1710
40845SOL    HW132465   2.864  13.276   5.217 -0.1397  0.6104  0.2318
40845SOL    HW232466   2.816  13.405   5.154 -0.2586 -0.0502 -1.0780
40846SOL     OW32467  12.826  10.732   4.588 -0.0714 -0.0198 -0.1576
40846SOL    HW132468  12.916  10.748   4.617  0.1482 -1.9321  0.3936
40846SOL    HW232469  12.835  10.681   4.508 -0.6574 -0.5252  0.0891
40847SOL     OW32470   6.933   1.574   4.511 -0.3964 -0.1130 -0.3418
40847SOL    HW132471   6.938   1.663   4.476  1.7436  0.7531  1.9315
40847SOL    HW232472   6.911   1.585   4.603  1.3588 -1.7818  0.3532
40848SOL     OW32473   5.985  10.644  11.871  0.6080 -0.2026  0.0489
40848SOL    HW132474   5.941  10.573  11.826  2.7252 -1.0184 -0.8845
40848SOL    HW232475   5.921  10.715  11.874 -2.2904 -2.6172  2.6519
40849SOL     OW32476   4.811  11.447   2.171  0.0105 -0.4245 -0.7154
40849SOL    HW132477   4.840  11.537   2.158  4.1495 -1.4093 -0.0023
40849SOL    HW232478   4.820  11.432   2.265  0.4665 -1.8298 -0.9520
40850SOL     OW32479   1.322  11.824   2.956 -0.1495  0.5108  0.1714
40850SOL    HW132480   1.414  11.814   2.934  0.3681  0.2205  2.3205
40850SOL    HW232481   1.279  11.750   2.912  0.7607  0.1653 -0.1634
40851SOL     OW32482  12.755   9.829  12.192  0.2904 -0.2008  0.6280
40851SOL    HW132483  12.752   9.907  12.247 -0.3654 -0.3299  0.7707
40851SOL    HW232484  12.689   9.844  12.125  0.7526 -0.2569  0.1467
40852SOL     OW32485   6.406   5.868   2.470  0.3415  0.5390  0.0733
40852SOL    HW132486   6.321   5.882   2.429  0.6640  1.7410 -0.2236
40852SOL    HW232487   6.390   5.800   2.535 -0.9667  1.1225  0.3955
40853SOL     OW32488  12.825   6.728   9.881  0.3047 -0.0777 -0.7367
40853SOL    HW132489  12.787   6.645   9.910 -0.4496  0.7129  0.6268
40853SOL    HW232490  12.908   6.735   9.928  1.2622 -0.8836 -2.2360
40854SOL     OW32491   4.354   1.908   1.700 -0.1829 -0.0068 -0.1596
40854SOL    HW132492   4.279   1.966   1.688 -0.8607 -0.5082  1.3839
40854SOL    HW232493   4.429   1.967   1.704 -0.5560  0.5560 -1.0750
40855SOL     OW32494   8.898  10.078   3.218 -0.0331 -0.0405  0.2094
40855SOL    HW132495   8.952  10.031   3.282 -0.4749 -0.5953  0.1785
40855SOL    HW232496   8.962  10.117   3.158  0.3419 -0.9351  0.0039
40856SOL     OW32497  11.330  10.509   4.890  0.4663 -0.2557  0.0610
40856SOL    HW132498  11.326  10.601   4.865 -1.8282  0.0604  1.2952
40856SOL    HW232499  11.413  10.501   4.936  2.0580  0.4613 -2.4998
40857SOL     OW32500  13.104   5.415   3.871  0.3063 -0.2266  0.5568
40857SOL    HW132501  13.113   5.410   3.966  1.4917 -0.8817  0.4325
40857SOL    HW232502  13.013   5.441   3.856  0.5832  1.7224  1.9006
40858SOL     OW32503   1.966   4.568  10.745 -0.3637  0.2429 -0.5757
40858SOL    HW132504   2.033   4.618  10.792 -0.8029  1.5360 -1.2521
40858SOL    HW232505   1.948   4.621  10.666 -1.7274 -0.3721 -0.7115
40859SOL     OW32506   6.896  12.282  10.077  0.3210 -0.3040 -0.0186
40859SOL    HW132507   6.841  12.321  10.009 -0.5359  0.9541  1.3454
40859SOL    HW232508   6.976  12.334  10.076  1.0161 -1.3525 -1.1657
40860SOL     OW32509   1.386  12.177   0.880 -0.2086  0.5557 -0.0666
40860SOL    HW132510   1.301  12.218   0.892 -0.1452  0.3378  1.2536
40860SOL    HW232511   1.366  12.085   0.865 -0.2502  0.7072 -1.0231
40861SOL     OW32512   8.108   6.606   1.662 -0.2669 -0.2105 -0.2013
40861SOL    HW132513   8.018   6.576   1.648 -1.1775  1.6910  1.0953
40861SOL    HW232514   8.153   6.530   1.701 -1.4207 -1.0372 -0.4317
40862SOL     OW32515   2.804  11.100   9.613  0.1704  0.3735 -0.5329
40862SOL    HW132516   2.812  11.092   9.708 -0.4561 -0.0965 -0.5044
40862SOL    HW232517   2.893  11.114   9.581  0.2549  1.6619  0.2162
40863SOL     OW32518  10.528  12.696  11.432  0.0618  0.6975  0.1211
40863SOL    HW132519  10.537  12.762  11.501 -2.0877  2.1084 -0.8309
40863SOL    HW232520  10.594  12.720  11.367  2.6529 -1.1094  1.8894
40864SOL     OW32521   5.089   8.834   9.529 -0.1787 -0.0109  0.0053
40864SOL    HW132522   5.109   8.852   9.438 -0.8014 -0.8399 -0.3168
40864SOL    HW232523   5.005   8.877   9.544 -0.5261 -0.6493 -0.0873
40865SOL     OW32524   7.022   0.130   8.506  0.5152  0.2460  0.3107
40865SOL    HW132525   6.986   0.202   8.455 -2.5274  0.4838  2.4765
40865SOL    HW232526   6.986   0.051   8.465  0.2909  0.2717  0.4520
40866SOL     OW32527   1.940   5.492   5.208 -0.0662 -0.6481  0.1605
40866SOL    HW132528   2.003   5.542   5.260  1.4656 -0.8057 -1.4765
40866SOL    HW232529   1.982   5.407   5.194 -0.6786 -0.7969 -0.8845
40867SOL     OW32530   9.132   9.826   0.583  0.2110  0.3580 -0.3190
40867SOL    HW132531   9.078   9.782   0.517  0.2471  0.0187 -0.1229
40867SOL    HW232532   9.173   9.898   0.535  0.7360 -0.2675 -0.8272
40868SOL     OW32533   5.148  12.790   7.500  0.3745 -0.4671 -0.8001
40868SOL    HW132534   5.086  12.834   7.442 -0.9652 -0.1010  0.8242
40868SOL    HW232535   5.121  12.698   7.498 -0.5237 -0.2487  0.1999
40869SOL     OW32536   7.016   1.005   2.195 -0.2387 -0.3605  0.2527
40869SOL    HW132537   6.962   1.082   2.213 -0.1868 -0.4160  0.6383
40869SOL    HW232538   7.070   0.994   2.272 -0.8844 -1.3241  0.5936
40870SOL     OW32539   1.650   1.075   6.889 -0.2830 -0.3022 -0.2340
40870SOL    HW132540   1.594   1.002   6.915 -1.0166  0.4359  0.3229
40870SOL    HW232541   1.725   1.070   6.948 -0.4705 -0.4345 -0.0074
40871SOL     OW32542   8.159   7.128  13.231  0.2591 -0.7700 -0.4868
40871SOL    HW132543   8.220   7.058  13.253 -0.2379 -1.1615 -0.3201
40871SOL    HW232544   8.099   7.089  13.167 -1.6704 -1.3919  1.5593
40872SOL     OW32545   5.476   6.874   6.605  1.0058  0.1289 -0.3233
40872SOL    HW132546   5.513   6.789   6.630  1.6192  0.4754 -0.0277
40872SOL    HW232547   5.434   6.857   6.521 -2.2520 -1.3689  1.4454
40873SOL     OW32548   2.653  12.983   5.303 -0.5127  0.4689  0.0346
40873SOL    HW132549   2.691  12.899   5.279 -1.1053  0.0802  0.4216
40873SOL    HW232550   2.711  13.048   5.264 -1.1662 -0.1242 -2.0521
40874SOL     OW32551   1.042   2.480  12.496 -0.0980 -0.5635 -0.1050
40874SOL    HW132552   1.122   2.512  12.538 -1.1030  0.1766  1.3260
40874SOL    HW232553   1.067   2.396  12.459  1.8746  0.5330 -1.4933
40875SOL     OW32554   6.129   7.826  11.439 -0.1868  0.3882  0.1386
40875SOL    HW132555   6.036   7.849  11.440 -0.6735 -1.4253  0.7482
40875SOL    HW232556   6.162   7.855  11.524  0.0551  1.8313 -0.4151
40876SOL     OW32557   3.329   8.943   2.377 -0.5705  0.2114 -0.4483
40876SOL    HW132558   3.265   9.013   2.392  0.0511  0.6058  0.4129
40876SOL    HW232559   3.287   8.864   2.409 -0.8772  0.3628 -0.4772
40877SOL     OW32560   9.622   4.757  12.294 -0.3735 -0.2019  0.0269
40877SOL    HW132561   9.617   4.766  12.199 -0.1547  0.0248  0.0366
40877SOL    HW232562   9.654   4.842  12.325  0.8287 -0.6906  0.1878
40878SOL     OW32563   1.121   9.553   2.042 -0.1066  0.6947  0.0777
40878SOL    HW132564   1.094   9.616   1.974 -1.2933 -0.5507 -0.6563
40878SOL    HW232565   1.051   9.488   2.043 -0.9245  1.4333  3.5612
40879SOL     OW32566  10.026   3.981   2.507  0.5950 -0.0071  0.2347
40879SOL    HW132567   9.958   4.041   2.477  1.3628  1.1647  0.7701
40879SOL    HW232568   9.996   3.895   2.479 -1.6697  0.3146  1.4025
40880SOL     OW32569   9.453   8.437  10.230 -0.3108  0.2653 -0.4488
40880SOL    HW132570   9.441   8.372  10.299 -1.5101  1.1934  0.2695
40880SOL    HW232571   9.456   8.386  10.149  1.0908 -0.8441  0.2462
40881SOL     OW32572   4.560   0.347  10.347 -0.1956  0.5139  0.2563
40881SOL    HW132573   4.511   0.379  10.423 -0.0405  2.1382 -0.2671
40881SOL    HW232574   4.505   0.279  10.310 -0.1462 -0.5010  1.9517
40882SOL     OW32575   1.020   0.824   1.299  0.4925  0.0504  0.0961
40882SOL    HW132576   1.015   0.781   1.214  0.3352  0.8106 -0.2959
40882SOL    HW232577   0.931   0.855   1.317  0.8453  1.3722 -0.2818
40883SOL     OW32578  11.033  12.741   8.391  0.6108  0.2606  0.1113
40883SOL    HW132579  10.962  12.804   8.380  1.3396  0.8404 -1.6047
40883SOL    HW232580  10.997  12.675   8.451 -0.6061  1.6273  0.9663
40884SOL     OW32581   0.830   4.676   1.796  1.0439 -0.5968  0.1979
40884SOL    HW132582   0.910   4.648   1.841  1.2458 -0.9295 -0.3646
40884SOL    HW232583   0.836   4.771   1.792 -0.6681 -0.0852  4.1354
40885SOL     OW32584   6.863   3.168   1.624 -0.1250  0.2805 -0.0720
40885SOL    HW132585   6.842   3.135   1.712 -1.1922  2.7088  0.6679
40885SOL    HW232586   6.951   3.135   1.607  0.9513  1.3487  2.7903
40886SOL     OW32587   6.319   5.116   4.061  0.3781  0.2163 -0.0016
40886SOL    HW132588   6.261   5.180   4.020  0.2014 -0.5267 -0.9705
40886SOL    HW232589   6.381   5.093   3.991  1.4534  0.5427  0.8313
40887SOL     OW32590   2.784   4.452   9.309 -0.0035 -0.1632 -0.7264
40887SOL    HW132591   2.709   4.435   9.365  0.8385 -1.8894 -0.0594
40887SOL    HW232592   2.753   4.434   9.221 -0.1754 -1.6454 -0.3823
40888SOL     OW32593   0.517  12.373   6.011 -0.4426 -0.0534 -0.2917
40888SOL    HW132594   0.571  12.351   6.087 -0.3274  0.7447 -0.1338
40888SOL    HW232595   0.581  12.386   5.941 -0.2821  2.1755  0.1975
40889SOL     OW32596  10.401   2.670  11.584  1.0047  0.1952  0.0439
40889SOL    HW132597  10.382   2.683  11.677 -0.2919 -2.0299  0.1445
40889SOL    HW232598  10.339   2.727  11.539 -0.6366 -1.1410  0.5289
40890SOL     OW32599   8.567   5.649   1.767 -0.6316 -0.2030  0.2430
40890SOL    HW132600   8.529   5.567   1.735 -0.1407  0.4260 -2.0964
40890SOL    HW232601   8.660   5.629   1.780 -0.2426  0.2603 -1.5691
40891SOL     OW32602   4.506   9.208   9.615  0.3238 -0.3088 -0.0785
40891SOL    HW132603   4.462   9.218   9.699 -0.2241  0.0408 -0.3950
40891SOL    HW232604   4.592   9.247   9.627  0.2272 -0.2110  0.3043
40892SOL     OW32605  11.658   1.635  12.884  0.3628 -0.3383 -0.3246
40892SOL    HW132606  11.638   1.558  12.938  1.5366 -0.3013  0.1917
40892SOL    HW232607  11.631   1.609  12.795  0.1474 -1.1006 -0.0470
40893SOL     OW32608   1.979   0.468   1.461  0.0161 -0.2439  0.0035
40893SOL    HW132609   1.975   0.559   1.493 -0.9608 -1.2270  3.0382
40893SOL    HW232610   2.046   0.427   1.515 -0.4572 -1.6208 -0.4212
40894SOL     OW32611   1.122   4.786   2.618 -0.5047  0.1151 -0.3717
40894SOL    HW132612   1.186   4.715   2.628  1.5927  1.8638 -0.5407
40894SOL    HW232613   1.114   4.823   2.706  0.3551  1.1707 -0.7044
40895SOL     OW32614   0.510  12.424   7.464 -0.0504  0.3910  0.6443
40895SOL    HW132615   0.438  12.486   7.455  0.7978  1.2073 -1.0798
40895SOL    HW232616   0.585  12.469   7.423  0.4924 -1.8902 -1.0553
40896SOL     OW32617   5.138  13.146  11.335 -0.7650 -0.1909  0.5336
40896SOL    HW132618   5.191  13.198  11.395  0.3404 -0.3462 -0.2881
40896SOL    HW232619   5.104  13.210  11.272 -0.7052 -0.2397  0.4524
40897SOL     OW32620   7.237   2.354  10.808 -0.7971 -0.5690  0.2589
40897SOL    HW132621   7.178   2.430  10.812  0.9976  0.9188 -0.1120
40897SOL    HW232622   7.318   2.385  10.847 -0.0224 -2.3376  0.1277
40898SOL     OW32623   9.188   7.557  11.764 -0.0790  0.0004  0.0168
40898SOL    HW132624   9.253   7.590  11.826  0.1517  0.8614 -0.6561
40898SOL    HW232625   9.177   7.465  11.787 -0.4836  0.4542  1.7360
40899SOL     OW32626   7.597   4.426  11.188  0.4358 -0.6840 -0.4521
40899SOL    HW132627   7.550   4.471  11.258 -0.4966 -0.1463 -1.4005
40899SOL    HW232628   7.622   4.495  11.127  2.0331 -1.0329 -0.2344
40900SOL     OW32629   8.820  12.509   6.516 -0.6839  0.1320 -0.6129
40900SOL    HW132630   8.796  12.549   6.599  2.1087  0.4460  0.1214
40900SOL    HW232631   8.840  12.418   6.537 -1.6044 -0.2568 -1.3022
40901SOL     OW32632  10.534   8.148   5.838 -0.1288  0.2697 -0.3893
40901SOL    HW132633  10.475   8.130   5.911 -0.6665 -0.1971 -0.9266
40901SOL    HW232634  10.618   8.112   5.865  0.0750  1.4337  0.6207
40902SOL     OW32635   9.171  11.155   9.396  0.0678  0.2953 -0.3074
40902SOL    HW132636   9.139  11.245   9.395  0.0430  0.3218  0.8614
40902SOL    HW232637   9.118  11.111   9.462 -1.2949 -1.1439 -2.2664
40903SOL     OW32638   6.974  10.843  10.580  0.5228 -0.1888 -0.4424
40903SOL    HW132639   6.895  10.875  10.625  1.4060  2.6138 -0.6620
40903SOL    HW232640   6.983  10.902  10.505  1.4177 -2.1290 -1.9373
40904SOL     OW32641   7.787   0.404  10.377 -0.1517 -0.4694 -0.2189
40904SOL    HW132642   7.793   0.367  10.289 -0.8173 -0.8400 -0.1116
40904SOL    HW232643   7.815   0.333  10.434  0.2229 -0.2473 -0.1251
40905SOL     OW32644   8.939   9.234   3.626  0.0773 -0.0687 -0.4007
40905SOL    HW132645   8.924   9.293   3.552 -0.2368 -1.3746 -1.4154
40905SOL    HW232646   9.017   9.269   3.669 -0.3151  1.2897 -0.7382
40906SOL     OW32647   7.088  10.942   6.641  0.4958  0.7088  0.6218
40906SOL    HW132648   7.080  11.037   6.642 -1.9753  0.5767 -0.1558
40906SOL    HW232649   7.017  10.912   6.584  0.2005 -1.6772  2.0820
40907SOL     OW32650   0.668   8.989   9.606  0.6106  0.2484 -0.7085
40907SOL    HW132651   0.686   9.030   9.522  1.4433  0.7723 -0.2979
40907SOL    HW232652   0.755   8.977   9.645  0.2790 -0.5908 -0.2093
40908SOL     OW32653   4.801   8.347   4.927 -0.0010  0.1288 -0.2860
40908SOL    HW132654   4.718   8.389   4.904  0.1385 -0.0282 -1.0976
40908SOL    HW232655   4.838   8.403   4.995  0.5505  1.8103 -1.8707
40909SOL     OW32656   2.540   4.338   0.256 -0.4850  0.1386  0.9755
40909SOL    HW132657   2.544   4.409   0.320  1.0569  0.5591  0.4745
40909SOL    HW232658   2.631   4.310   0.247 -0.6089  0.3084 -1.2420
40910SOL     OW32659   6.161   1.935  11.454  0.0135 -0.4013  0.2895
40910SOL    HW132660   6.145   1.906  11.544 -0.1080 -2.1032 -0.2483
40910SOL    HW232661   6.085   1.989  11.432 -0.1569 -0.3123  1.0693
40911SOL     OW32662   0.517   1.053   7.192 -0.2087  0.0218  0.0130
40911SOL    HW132663   0.592   0.995   7.176  0.5794  1.1781 -0.6512
40911SOL    HW232664   0.456   1.034   7.121  0.5984  0.8481 -0.9385
40912SOL     OW32665   3.819   5.737   7.258 -0.0706 -0.3323 -0.2641
40912SOL    HW132666   3.735   5.741   7.304  0.0297  0.4776 -0.1424
40912SOL    HW232667   3.803   5.781   7.174 -0.2140 -1.6792 -0.9714
40913SOL     OW32668   2.415   7.640   0.000  0.6587  0.1532  0.4485
40913SOL    HW132669   2.359   7.711   0.030 -0.1402 -0.9771  1.7672
40913SOL    HW232670   2.417   7.578   0.073  0.1538 -1.8639 -1.1422
40914SOL     OW32671  12.732   2.692  11.202 -0.1206 -0.2308  0.0671
40914SOL    HW132672  12.669   2.722  11.267 -0.5471  0.5912 -0.7086
40914SOL    HW232673  12.679   2.653  11.132  0.2258  0.2936 -0.5038
40915SOL     OW32674   7.404   6.013  13.279 -0.0944  0.5653  0.4422
40915SOL    HW132675   7.397   5.919  13.300 -0.6162  0.3025 -0.8474
40915SOL    HW232676   7.418   6.016  13.185  0.4127  1.7877  0.5334
40916SOL     OW32677   9.648  10.519  10.994 -0.0096 -0.1690  0.0609
40916SOL    HW132678   9.659  10.614  11.003 -1.1392  0.0942 -1.0000
40916SOL    HW232679   9.705  10.496  10.920 -0.2763 -0.1871 -0.1412
40917SOL     OW32680   4.333   9.499  10.479 -0.5353 -0.5145  0.2705
40917SOL    HW132681   4.282   9.512  10.559 -2.6001  1.2502 -1.1937
40917SOL    HW232682   4.274   9.527  10.409  1.2189 -1.8878 -1.8853
40918SOL     OW32683  12.617   2.774   7.570 -0.1344 -0.3218 -0.3670
40918SOL    HW132684  12.550   2.728   7.620  0.2145 -0.4427 -0.0054
40918SOL    HW232685  12.664   2.705   7.523  0.3506 -0.3293  0.1297
40919SOL     OW32686  12.572  11.044   9.484 -0.3131 -0.1607 -0.3517
40919SOL    HW132687  12.613  10.957   9.487  0.0366  0.0106 -0.1699
40919SOL    HW232688  12.573  11.067   9.391 -0.7197 -0.4979 -0.4443
40920SOL     OW32689   6.764  11.381   4.211  0.5285 -0.1076 -0.2843
40920SOL    HW132690   6.831  11.391   4.145  0.0478  0.2234 -0.7251
40920SOL    HW232691   6.805  11.409   4.293  0.8928  0.1788 -0.5678
40921SOL     OW32692   0.806   7.214   6.080 -0.3315 -0.0161 -0.0464
40921SOL    HW132693   0.794   7.277   6.008  0.0928 -0.4846 -0.5382
40921SOL    HW232694   0.862   7.146   6.042 -0.7568 -0.6707  0.4950
40922SOL     OW32695   6.998   0.733  11.836 -0.2374 -0.3501  0.1935
40922SOL    HW132696   6.957   0.819  11.837 -1.4658 -0.8982  1.8491
40922SOL    HW232697   6.991   0.703  11.745  0.0990  1.2096 -0.3717
40923SOL     OW32698  10.310  13.257  12.345 -0.2461  0.0208 -0.1868
40923SOL    HW132699  10.311  13.345  12.382  1.1901  0.4148 -1.0785
40923SOL    HW232700  10.251  13.207  12.402 -0.1341  1.2517  1.0476
40924SOL     OW32701   6.717  12.346   2.171 -0.0725 -0.1918 -0.7366
40924SOL    HW132702   6.651  12.375   2.235  1.4952  2.8059 -0.2731
40924SOL    HW232703   6.704  12.404   2.096  0.6125 -1.0814 -1.5576
40925SOL     OW32704   4.553   1.516  13.262  0.0392 -0.4089 -0.1257
40925SOL    HW132705   4.542   1.597  13.313 -1.6677 -0.1326 -0.8599
40925SOL    HW232706   4.568   1.448  13.328 -1.8000 -0.0015  0.7716
40926SOL     OW32707   9.322  13.019   0.443  0.2319  0.6380 -0.1053
40926SOL    HW132708   9.349  13.105   0.476  2.2050 -0.3808  1.1112
40926SOL    HW232709   9.306  12.967   0.521 -1.8630  0.1206 -0.8303
40927SOL     OW32710  11.633  11.789   8.909 -0.1951 -0.5342 -0.6296
40927SOL    HW132711  11.650  11.720   8.845 -1.8317 -0.8773 -0.7337
40927SOL    HW232712  11.543  11.815   8.893 -0.0820  0.5924  0.4105
40928SOL     OW32713   8.422   8.027   0.462 -0.2496  0.1447 -0.3818
40928SOL    HW132714   8.396   7.936   0.478 -0.1946  0.2133  0.1075
40928SOL    HW232715   8.393   8.044   0.372  1.0728 -0.8301 -1.0349
40929SOL     OW32716   3.759  11.021   2.905 -0.7853 -0.3333 -0.0442
40929SOL    HW132717   3.721  11.109   2.914  1.0488  0.3429  1.9305
40929SOL    HW232718   3.831  11.032   2.843 -0.9660 -0.5990 -0.3007
40930SOL     OW32719  10.115  12.063  10.243 -0.0942  0.1859  0.2069
40930SOL    HW132720  10.171  12.133  10.210  1.3457 -1.1479 -0.3102
40930SOL    HW232721  10.025  12.095  10.230  0.5116  2.0073  0.2396
40931SOL     OW32722   1.011   8.823  11.882  0.5152  0.2301  0.0105
40931SOL    HW132723   0.924   8.836  11.844  0.4537 -0.6180 -0.1611
40931SOL    HW232724   1.016   8.887  11.952  0.1495  0.9845 -0.6334
40932SOL     OW32725   1.734   8.709   7.741  0.4349  0.3796  0.1137
40932SOL    HW132726   1.692   8.790   7.714  1.3358  0.0441 -2.7217
40932SOL    HW232727   1.828   8.727   7.732  0.6431 -0.9641 -0.6997
40933SOL     OW32728   6.018   0.667  12.215  0.0180  0.5489  0.2490
40933SOL    HW132729   6.085   0.607  12.181  1.0875 -0.1520  3.2911
40933SOL    HW232730   5.992   0.719  12.139  2.2226 -0.8318 -1.5836
40934SOL     OW32731   4.551   9.874  12.740 -0.4915 -0.0305  0.0554
40934SOL    HW132732   4.588   9.808  12.681 -0.8725  0.4721 -0.7630
40934SOL    HW232733   4.530   9.825  12.819  0.0857 -0.7089 -0.1995
40935SOL     OW32734   5.430   2.634   1.951  0.0654  0.0747 -0.0177
40935SOL    HW132735   5.375   2.695   1.999 -0.4850 -2.6593  3.1526
40935SOL    HW232736   5.520   2.660   1.974  0.0228  1.6675 -1.4526
40936SOL     OW32737   6.502   8.787   4.291  1.0758  0.5171 -0.0940
40936SOL    HW132738   6.425   8.778   4.346  0.1213 -4.3149 -1.7451
40936SOL    HW232739   6.485   8.865   4.237 -2.1264  0.2745  0.3837
40937SOL     OW32740   5.501   2.324   0.510  0.4784  0.2197  0.4949
40937SOL    HW132741   5.523   2.347   0.420  0.6948  1.2612  0.8054
40937SOL    HW232742   5.416   2.280   0.503  1.0075 -0.7215 -0.3272
40938SOL     OW32743   6.917   7.978   4.864 -0.1297 -0.3695  0.2843
40938SOL    HW132744   6.917   7.890   4.901 -1.2248 -0.8394 -0.7806
40938SOL    HW232745   6.824   8.002   4.859  0.1658  1.0064  0.8963
40939SOL     OW32746   5.587  10.570   0.357  0.3349 -0.0805 -0.2839
40939SOL    HW132747   5.552  10.483   0.338  0.2031 -0.0622 -0.1286
40939SOL    HW232748   5.510  10.624   0.369  0.4169 -0.1259  0.4506
40940SOL     OW32749   7.376   6.289  12.625  0.0873 -0.0072 -0.4068
40940SOL    HW132750   7.367   6.223  12.556 -0.5075  1.0189 -1.3192
40940SOL    HW232751   7.300   6.275  12.681  1.7146 -2.3720  1.4528
40941SOL     OW32752   1.474  11.163   5.798 -0.3914  0.5727 -0.0850
40941SOL    HW132753   1.565  11.173   5.772  0.5380 -5.0357 -0.0778
40941SOL    HW232754   1.429  11.131   5.720 -1.2425 -1.0505  1.0061
40942SOL     OW32755   7.966   8.895   0.856  0.0272  0.0438  0.4875
40942SOL    HW132756   7.944   8.885   0.764 -1.0979 -0.0166  0.7429
40942SOL    HW232757   7.996   8.986   0.864 -2.1584  0.8230  0.4646
40943SOL     OW32758   2.148   1.904   5.015 -0.4199  0.0395  0.4883
40943SOL    HW132759   2.138   1.971   4.948 -2.1138 -1.4998 -0.9293
40943SOL    HW232760   2.097   1.936   5.090 -0.0996  0.9087  0.3388
40944SOL     OW32761  11.665   4.813   5.566 -0.1012  0.3268  0.3232
40944SOL    HW132762  11.643   4.766   5.647 -1.4724  0.5835  0.1147
40944SOL    HW232763  11.730   4.878   5.594 -0.3170  0.2021  1.1597
40945SOL     OW32764   2.886   8.230   6.104  0.1540 -0.1286  0.4367
40945SOL    HW132765   2.956   8.265   6.160  0.1255  1.2696 -0.3538
40945SOL    HW232766   2.849   8.307   6.061  0.9102 -1.1830 -2.3702
40946SOL     OW32767  10.017   9.532   0.563  0.1675 -0.4477 -0.7200
40946SOL    HW132768   9.930   9.552   0.528  0.3376  1.9453  0.0531
40946SOL    HW232769  10.002   9.513   0.655  0.5103  0.7849 -0.3903
40947SOL     OW32770   9.361   6.642  10.697  0.2272  0.4623 -0.0308
40947SOL    HW132771   9.384   6.625  10.788 -0.7291 -0.3695  0.0674
40947SOL    HW232772   9.420   6.586  10.647 -1.3234 -1.5150  0.2154
40948SOL     OW32773   2.484   2.777   8.532 -0.1815 -0.4877  0.6266
40948SOL    HW132774   2.553   2.723   8.494 -0.2741  0.9461 -1.7415
40948SOL    HW232775   2.520   2.805   8.617  1.9007 -0.3221 -0.2490
40949SOL     OW32776   5.213   1.797  11.707 -0.3878  0.3271 -0.4952
40949SOL    HW132777   5.278   1.770  11.642 -1.4457 -0.6592 -1.1620
40949SOL    HW232778   5.165   1.868  11.664 -0.0417  0.7763 -0.1558
40950SOL     OW32779  11.623   6.139   7.919  0.7162 -0.3250 -0.4844
40950SOL    HW132780  11.528   6.127   7.916  0.5142  0.2964  1.7599
40950SOL    HW232781  11.650   6.138   7.827 -1.7083  1.3443 -1.3093
40951SOL     OW32782   1.162   7.021   1.624  0.1240  0.0197 -0.6271
40951SOL    HW132783   1.121   6.987   1.703  0.3305  0.1487 -0.4639
40951SOL    HW232784   1.172   6.945   1.567  0.5279 -0.1780 -0.2902
40952SOL     OW32785   3.629  11.259   5.819  0.4944  0.6985 -0.2070
40952SOL    HW132786   3.658  11.169   5.836 -1.6678 -0.0761 -0.2405
40952SOL    HW232787   3.644  11.305   5.902 -0.8954 -0.4632  0.7478
40953SOL     OW32788  11.452   7.013  10.012  0.6397 -0.0151 -0.1950
40953SOL    HW132789  11.531   6.963  10.034  0.8109  0.8598  1.2832
40953SOL    HW232790  11.470   7.048   9.925  2.3555  1.0330  0.5375
40954SOL     OW32791  13.099  11.076   5.737  0.4430  0.0686  0.0567
40954SOL    HW132792  13.033  11.139   5.707 -0.6171 -0.6931  0.7407
40954SOL    HW232793  13.059  10.991   5.723  0.4949 -0.3665  2.1992
40955SOL     OW32794   2.949   7.020   0.352 -0.1922 -0.3237  0.2821
40955SOL    HW132795   2.881   7.011   0.419 -1.2896 -0.0320 -0.7603
40955SOL    HW232796   3.007   7.088   0.386 -2.5972  2.2971 -0.4963
40956SOL     OW32797   6.212   1.189   1.700  0.3422  0.2072  0.4528
40956SOL    HW132798   6.302   1.182   1.670  1.1820  1.8571  2.3849
40956SOL    HW232799   6.218   1.202   1.794 -1.9257  0.2559  0.6615
40957SOL     OW32800   3.073   7.140   7.928 -0.3179 -0.2253  0.0163
40957SOL    HW132801   3.078   7.094   8.012 -1.6156 -0.6828 -0.1461
40957SOL    HW232802   3.000   7.099   7.882 -3.3457  3.5392  0.8773
40958SOL     OW32803  11.664   1.100   8.134  0.4601  0.3210 -0.4136
40958SOL    HW132804  11.582   1.073   8.176  0.3852  1.7433  0.4225
40958SOL    HW232805  11.686   1.183   8.176  1.4264  0.8334 -1.8567
40959SOL     OW32806   6.594   8.892   1.986 -0.5235 -0.4252  0.3755
40959SOL    HW132807   6.575   8.933   1.901  0.0225  0.9442  0.8990
40959SOL    HW232808   6.570   8.800   1.973 -3.0981  0.2667 -0.4246
40960SOL     OW32809   3.214   6.382   6.668  0.3929 -0.0521  0.0767
40960SOL    HW132810   3.248   6.466   6.636 -1.6392  1.1016  0.7469
40960SOL    HW232811   3.132   6.405   6.713 -0.4593 -2.4578 -0.1003
40961SOL     OW32812   2.971  10.800  11.875 -0.0806  0.0892  0.1991
40961SOL    HW132813   2.875  10.793  11.869 -0.0708  0.5272 -0.7456
40961SOL    HW232814   3.003  10.714  11.847 -0.1931  0.1452 -0.1128
40962SOL     OW32815   8.251   0.149   4.206 -0.4455 -0.3209 -0.0895
40962SOL    HW132816   8.266   0.168   4.113 -0.2898  1.1998  0.2191
40962SOL    HW232817   8.156   0.156   4.216 -0.5545 -1.3701 -0.2993
40963SOL     OW32818   1.217   5.533   6.626 -0.5389 -0.5618  0.0885
40963SOL    HW132819   1.241   5.592   6.555  0.4798 -0.3291  0.6028
40963SOL    HW232820   1.165   5.465   6.585  0.8273 -0.9516 -1.0679
40964SOL     OW32821   1.602   9.244  11.455  0.0974 -0.2773  0.3292
40964SOL    HW132822   1.631   9.160  11.420 -0.4338 -1.0253  1.6312
40964SOL    HW232823   1.675   9.304  11.435  0.8461 -1.2269  0.1276
40965SOL     OW32824   7.063   4.434   0.317 -0.4828 -0.2726 -0.2515
40965SOL    HW132825   7.086   4.378   0.243  0.3959 -0.3367  0.0542
40965SOL    HW232826   7.143   4.438   0.370 -0.5940  1.0617 -0.1366
40966SOL     OW32827   3.821   2.516   3.637 -0.1107 -0.0066  0.4484
40966SOL    HW132828   3.824   2.429   3.677  1.8632 -0.2007  0.0222
40966SOL    HW232829   3.764   2.567   3.694 -1.1510 -1.5188  0.8152
40967SOL     OW32830   7.481  12.780   9.258 -0.1827 -0.6378  0.0843
40967SOL    HW132831   7.394  12.789   9.219 -0.3855  2.3813  0.9733
40967SOL    HW232832   7.541  12.805   9.187 -0.2075 -0.4850  0.1164
40968SOL     OW32833   0.046  10.871   6.246 -0.2884 -0.4636  0.3401
40968SOL    HW132834   0.061  10.870   6.341 -1.4193 -1.3500  0.5280
40968SOL    HW232835   0.014  10.783   6.226  1.1517 -0.7071 -1.0944
40969SOL     OW32836   0.288   2.815   0.859 -0.0701  0.4362 -0.4103
40969SOL    HW132837   0.308   2.842   0.948  1.4173  0.6367 -0.7859
40969SOL    HW232838   0.201   2.775   0.865  0.6547 -1.0230  1.4239
40970SOL     OW32839   2.984   9.464  12.754  0.1409 -0.5153  0.1507
40970SOL    HW132840   2.919   9.433  12.817 -0.0080 -0.0759  0.2196
40970SOL    HW232841   3.001   9.555  12.781  0.0045 -0.2907 -0.5043
40971SOL     OW32842   1.501   4.467   7.054  0.0575 -0.1510 -0.7244
40971SOL    HW132843   1.540   4.492   7.138  0.5295 -0.7169 -0.7693
40971SOL    HW232844   1.406   4.467   7.070  0.1804 -1.2910  0.1146
40972SOL     OW32845   9.719   9.760   1.240 -0.5446  0.3552 -0.1074
40972SOL    HW132846   9.672   9.743   1.158  1.1232 -2.9810 -0.5457
40972SOL    HW232847   9.724   9.675   1.283  1.9943  1.2414  1.5864
40973SOL     OW32848  12.089   8.723   6.466 -0.5253 -0.2171 -0.2252
40973SOL    HW132849  12.096   8.722   6.562 -0.9029 -0.2557 -0.1977
40973SOL    HW232850  12.096   8.631   6.441  1.8211 -0.0575 -0.4101
40974SOL     OW32851  10.713   4.669   6.864 -0.2917  0.3492  0.0929
40974SOL    HW132852  10.696   4.756   6.899 -0.6703  1.0589 -1.7186
40974SOL    HW232853  10.629   4.624   6.870 -0.2390  0.3098  0.5171
40975SOL     OW32854   8.778   7.383   6.720  0.4507  0.3809  0.6201
40975SOL    HW132855   8.865   7.363   6.685 -0.0016  0.4162 -0.5899
40975SOL    HW232856   8.778   7.345   6.808  2.3439  2.0615  1.4210
40976SOL     OW32857   9.935  11.122  13.153 -0.4192  0.5179  0.2336
40976SOL    HW132858   9.909  11.213  13.142 -2.1399  0.2923  1.8742
40976SOL    HW232859   9.866  11.071  13.112  0.7235 -0.0950 -1.0189
40977SOL     OW32860  11.156   1.900   1.989 -0.3036  0.4712 -0.4934
40977SOL    HW132861  11.206   1.903   2.071 -0.4040 -1.1080 -0.3409
40977SOL    HW232862  11.065   1.897   2.017 -0.3214 -0.5644 -0.6355
40978SOL     OW32863   8.673   5.270  10.860 -0.5012 -0.1188 -0.3827
40978SOL    HW132864   8.699   5.350  10.815 -0.0195 -0.2412 -0.3294
40978SOL    HW232865   8.756   5.230  10.888 -0.7909 -0.0341  0.6340
40979SOL     OW32866   8.780  12.135   9.308 -0.1070  0.3455  0.1747
40979SOL    HW132867   8.792  12.123   9.402 -0.4310 -2.2334 -0.0586
40979SOL    HW232868   8.690  12.107   9.292  0.3813 -0.5449 -1.0971
40980SOL     OW32869   7.824   0.804   0.465  0.1095  0.0055 -0.3450
40980SOL    HW132870   7.811   0.710   0.469  0.7632 -0.0444  1.1409
40980SOL    HW232871   7.828   0.833   0.556 -0.9600  1.6134 -0.7594
40981SOL     OW32872  12.734   2.029  11.977 -0.3646 -0.6511  0.2168
40981SOL    HW132873  12.780   1.991  11.902  1.3625 -1.0468  1.4170
40981SOL    HW232874  12.682   1.956  12.012 -0.9764 -0.5329 -0.4268
40982SOL     OW32875  13.096   7.287  11.141  0.0083  0.1365  0.3161
40982SOL    HW132876  13.151   7.359  11.110 -0.9794  0.2474 -1.3121
40982SOL    HW232877  13.112   7.216  11.078 -1.3356  0.0147  0.0810
40983SOL     OW32878   1.291   5.393   8.276  0.9553 -0.3613 -0.8509
40983SOL    HW132879   1.196   5.391   8.274  0.7939  2.2863 -0.2534
40983SOL    HW232880   1.317   5.388   8.183  0.1497  0.0576 -1.1084
40984SOL     OW32881   0.469   5.135   5.580  0.5933 -0.0584  0.1634
40984SOL    HW132882   0.564   5.131   5.585  0.9313  3.6005 -1.0367
40984SOL    HW232883   0.448   5.111   5.490  0.2260 -1.6612  0.6355
40985SOL     OW32884   2.433   6.773   8.935  0.4617  0.0858  0.0276
40985SOL    HW132885   2.514   6.811   8.970 -0.2281  1.2964  0.3694
40985SOL    HW232886   2.382   6.749   9.013  0.5043 -0.7308 -0.1868
40986SOL     OW32887   1.700   7.392  10.053 -0.5109 -0.1990  0.4193
40986SOL    HW132888   1.625   7.405   9.995  0.3120  0.7171 -0.4689
40986SOL    HW232889   1.677   7.439  10.133 -1.4210 -1.0136  0.6607
40987SOL     OW32890   2.914   8.163   3.953 -0.6497  0.4916  0.2164
40987SOL    HW132891   2.885   8.080   3.991  1.1808 -0.8430 -1.1685
40987SOL    HW232892   2.835   8.201   3.915 -1.3162 -1.1895 -0.1499
40988SOL     OW32893   0.887   8.445   6.356 -0.1569  0.5351  0.0755
40988SOL    HW132894   0.837   8.519   6.391 -0.6892 -0.5410  1.6489
40988SOL    HW232895   0.871   8.373   6.417 -0.5007 -1.2276 -1.9677
40989SOL     OW32896   9.055  10.735   4.282  0.4456  0.5298  0.6743
40989SOL    HW132897   9.002  10.661   4.251 -1.1986  1.8867  0.0188
40989SOL    HW232898   9.102  10.765   4.204 -0.1316  1.1141  0.5323
40990SOL     OW32899   4.308  10.353  12.012 -0.2035 -0.0898 -0.4932
40990SOL    HW132900   4.225  10.389  11.978 -0.8881  0.4078  1.5421
40990SOL    HW232901   4.286  10.263  12.037 -0.0165 -0.0955 -0.3514
40991SOL     OW32902   3.145   3.977   1.738 -0.0933  0.1412 -0.3834
40991SOL    HW132903   3.065   3.933   1.768 -0.9986 -0.2377 -3.1279
40991SOL    HW232904   3.190   3.912   1.684  1.9000  0.5018  0.7252
40992SOL     OW32905   8.518   9.164  11.441  0.0239  0.4134 -0.3787
40992SOL    HW132906   8.449   9.229  11.450  0.0329  0.2935  0.7902
40992SOL    HW232907   8.508   9.129  11.353 -0.8943  0.9737 -0.5036
40993SOL     OW32908   2.964   1.602   5.712  0.1487  0.0641  1.0946
40993SOL    HW132909   2.948   1.544   5.787  0.8007 -0.1186  1.0963
40993SOL    HW232910   3.059   1.615   5.712 -0.0974  2.4903  2.1190
40994SOL     OW32911   2.938   0.115   0.946  0.0040  0.1757 -0.0445
40994SOL    HW132912   3.022   0.160   0.936  0.5601 -0.8592 -0.2070
40994SOL    HW232913   2.874   0.185   0.957  1.0493  0.9667  1.2794
40995SOL     OW32914   6.990   3.369   3.978 -0.1793  0.0577 -0.3533
40995SOL    HW132915   6.992   3.274   3.984  1.3617  0.1289  0.8422
40995SOL    HW232916   6.897   3.392   3.985 -0.6386 -1.3589 -1.3378
40996SOL     OW32917   9.769   3.999  12.757 -0.0721 -0.4603 -0.4308
40996SOL    HW132918   9.747   4.085  12.723 -0.1516 -0.3689 -0.1539
40996SOL    HW232919   9.687   3.965  12.792  0.3652  0.2703  1.4430
40997SOL     OW32920   8.472  10.878   2.713 -0.3003  0.2710  0.4230
40997SOL    HW132921   8.420  10.831   2.778  0.4366  0.6258  1.3040
40997SOL    HW232922   8.499  10.811   2.650 -1.0443 -0.0760  0.4689
40998SOL     OW32923   5.097   4.843   3.781 -0.5104 -0.7537  0.5984
40998SOL    HW132924   5.097   4.936   3.806 -0.4404 -0.5741 -0.0490
40998SOL    HW232925   5.178   4.809   3.818 -0.9903 -0.7834  1.6404
40999SOL     OW32926  12.835  10.436   8.156  0.1771 -0.2022  0.2776
40999SOL    HW132927  12.757  10.387   8.130 -0.2957  0.3136  0.7112
40999SOL    HW232928  12.888  10.372   8.204  0.0276 -0.5542 -0.0185
41000SOL     OW32929  11.042  10.448  11.694 -0.1983  0.5366  0.9722
41000SOL    HW132930  11.051  10.502  11.616 -0.3263 -0.1980  0.4386
41000SOL    HW232931  10.959  10.401  11.681  1.2237 -1.8893  0.0727
41001SOL     OW32932   4.798  13.240   5.100 -0.3313 -0.4659 -0.2456
41001SOL    HW132933   4.754  13.169   5.146  0.6406 -0.1666  1.1899
41001SOL    HW232934   4.753  13.319   5.130 -0.5246 -0.3578 -0.8024
41002SOL     OW32935   8.704   6.058  11.242 -0.0307 -0.1427 -0.2832
41002SOL    HW132936   8.642   5.985  11.241 -0.4950  0.2490 -0.2656
41002SOL    HW232937   8.658   6.129  11.198  0.4581  0.1110 -0.3876
41003SOL     OW32938   9.205  11.832   7.238  0.4576 -0.0945 -0.9749
41003SOL    HW132939   9.280  11.860   7.186  1.7517 -2.1516 -0.3379
41003SOL    HW232940   9.214  11.881   7.320 -0.1166  1.2183 -1.6729
41004SOL     OW32941   2.196   2.313   3.132 -0.2516  0.4806  0.5467
41004SOL    HW132942   2.136   2.370   3.082  0.2165 -1.0688 -1.9879
41004SOL    HW232943   2.283   2.340   3.103 -0.0315 -2.0195 -1.5458
41005SOL     OW32944   8.100   5.555   0.221  0.1182  0.1680 -0.0483
41005SOL    HW132945   8.187   5.543   0.182 -0.1567 -0.5293 -0.4814
41005SOL    HW232946   8.043   5.502   0.165 -0.7372  1.3615 -0.3271
41006SOL     OW32947  12.290   1.961  12.119 -0.5478 -0.3171  0.5233
41006SOL    HW132948  12.342   1.931  12.045  0.8683  1.5361  0.7004
41006SOL    HW232949  12.305   1.896  12.188 -0.3203 -1.0110 -0.1667
41007SOL     OW32950   2.768  10.562   9.147 -1.0165 -0.1143 -0.5354
41007SOL    HW132951   2.715  10.627   9.193  0.1619  0.2065  0.4294
41007SOL    HW232952   2.725  10.478   9.166 -1.3520  0.1700 -0.0102
41008SOL     OW32953   3.665  11.652   1.310  0.3815 -0.3664  0.9661
41008SOL    HW132954   3.616  11.626   1.232  1.4471 -0.5777  0.3452
41008SOL    HW232955   3.684  11.569   1.355  0.7100 -0.3539  0.8587
41009SOL     OW32956   0.464   7.787  11.157 -0.0773 -0.0095  0.8468
41009SOL    HW132957   0.438   7.867  11.202  0.4212  0.1251  0.9015
41009SOL    HW232958   0.542   7.812  11.107 -0.9297 -0.0102 -0.5386
41010SOL     OW32959   3.338   8.156  10.390  0.1368 -0.2437 -0.1228
41010SOL    HW132960   3.390   8.081  10.363 -1.3430 -0.4734 -2.6269
41010SOL    HW232961   3.295   8.186  10.310 -1.3870  1.6348  1.2927
41011SOL     OW32962   5.176   7.708  12.798 -0.1284 -0.1157  0.1561
41011SOL    HW132963   5.258   7.665  12.774 -0.1505  0.3273 -0.7528
41011SOL    HW232964   5.203   7.786  12.847 -0.0244 -0.1543  0.1605
41012SOL     OW32965   4.527   9.350   0.216  0.6978  0.2738 -0.3938
41012SOL    HW132966   4.443   9.304   0.222  0.7668  0.2914  0.9482
41012SOL    HW232967   4.549   9.346   0.123 -0.7470  0.2078 -0.7592
41013SOL     OW32968  12.537   6.135  11.217 -0.3997 -0.0543  0.4744
41013SOL    HW132969  12.535   6.171  11.128  2.0252  0.7743  0.6864
41013SOL    HW232970  12.471   6.066  11.216 -0.6245  0.1028 -1.8935
41014SOL     OW32971   9.593  10.468   5.482  0.6205  0.2708 -0.2359
41014SOL    HW132972   9.522  10.407   5.502 -0.4058  0.8766 -1.8173
41014SOL    HW232973   9.658  10.452   5.549 -0.5105 -1.1345  0.5808
41015SOL     OW32974   3.609   3.316   8.566 -0.1823 -0.2718 -0.6602
41015SOL    HW132975   3.516   3.302   8.548 -0.6410  0.7913  0.7138
41015SOL    HW232976   3.611   3.343   8.658  1.2183  2.2546 -1.3570
41016SOL     OW32977   0.543   8.604  10.446  0.1223  0.4400  0.0534
41016SOL    HW132978   0.574   8.675  10.502  0.9375  0.9031 -0.9474
41016SOL    HW232979   0.622   8.554  10.424 -0.2888 -0.1663 -0.0878
41017SOL     OW32980   2.117  13.040   3.193  0.3191  0.5015 -0.5634
41017SOL    HW132981   2.116  12.996   3.107  2.5636  0.1006 -0.4482
41017SOL    HW232982   2.209  13.036   3.220  0.0393  2.5601  0.8868
41018SOL     OW32983   5.005   6.503   4.662 -0.1128  0.1587 -0.8829
41018SOL    HW132984   5.002   6.500   4.758  0.3127  0.5157 -0.8538
41018SOL    HW232985   5.048   6.586   4.642  1.5878 -0.7882 -1.3329
41019SOL     OW32986   5.050   2.493   1.159  0.2771  0.5977 -0.1704
41019SOL    HW132987   4.978   2.477   1.098 -0.2170  0.0749  0.5372
41019SOL    HW232988   5.099   2.411   1.159  2.1879  1.6334 -2.3149
41020SOL     OW32989   5.342   4.245  11.023  0.4515  0.6045 -0.4360
41020SOL    HW132990   5.422   4.283  10.988  0.9644  0.1294  0.1894
41020SOL    HW232991   5.286   4.320  11.044  1.6162  1.0625  1.1840
41021SOL     OW32992   0.807  12.307  11.106  0.0039  0.0254 -0.3856
41021SOL    HW132993   0.807  12.215  11.131 -0.4622 -0.0028 -0.4725
41021SOL    HW232994   0.716  12.325  11.083  0.2722  0.2551 -1.3062
41022SOL     OW32995   8.363   9.406   9.136 -0.2164 -0.5959 -0.4398
41022SOL    HW132996   8.380   9.461   9.059  1.0976  1.0555  0.9469
41022SOL    HW232997   8.270   9.387   9.132 -0.8623  2.2288 -0.7450
41023SOL     OW32998   9.901   7.708   1.404 -0.7774 -0.2515  0.2261
41023SOL    HW132999   9.942   7.664   1.479 -1.5936 -0.6211  0.4693
41023SOL    HW233000   9.974   7.748   1.357 -0.1888 -0.5114  0.8947
41024SOL     OW33001  11.609   7.297   9.963 -0.4001  0.1886  0.0500
41024SOL    HW133002  11.671   7.257  10.024 -0.8488  0.1221  0.4734
41024SOL    HW233003  11.656   7.372   9.926  0.4913 -0.7768 -0.8366
41025SOL     OW33004   1.138   7.961   6.861 -0.3863 -0.2356  0.1925
41025SOL    HW133005   1.078   8.031   6.838 -0.3323  0.4132  1.8637
41025SOL    HW233006   1.085   7.898   6.910 -0.5720 -1.7310 -1.7776
41026SOL     OW33007  11.760   3.359   3.997 -0.7390 -0.4012 -0.1742
41026SOL    HW133008  11.825   3.288   4.000  1.0458  1.0986 -0.9745
41026SOL    HW233009  11.691   3.332   4.057 -0.4078 -3.0554 -0.8990
41027SOL     OW33010   9.937   1.694  10.050 -0.0205 -0.4809 -0.1078
41027SOL    HW133011   9.921   1.746  10.129 -0.9440  1.3109 -1.4178
41027SOL    HW233012   9.905   1.607  10.072  0.0499 -0.1180  1.5951
41028SOL     OW33013   9.209   8.861  10.080 -0.3425  0.3067 -0.0601
41028SOL    HW133014   9.296   8.828  10.100  0.7914  0.6307 -3.8153
41028SOL    HW233015   9.149   8.791  10.109  1.4595 -1.7750 -1.0942
41029SOL     OW33016   7.139  12.541   0.497 -0.1123 -0.1910 -0.1495
41029SOL    HW133017   7.225  12.581   0.484 -0.6036  0.9945  0.1905
41029SOL    HW233018   7.076  12.612   0.487 -0.9475 -0.6288  1.5145
41030SOL     OW33019   7.642   7.983   1.331 -0.0109 -0.3596  0.5979
41030SOL    HW133020   7.580   7.980   1.258  1.0023 -1.1406 -0.2480
41030SOL    HW233021   7.646   8.076   1.355  0.6033  0.1221 -1.1969
41031SOL     OW33022  12.647   0.533   7.739 -0.0394  0.1230  0.2372
41031SOL    HW133023  12.697   0.548   7.819 -0.7709  0.0354  0.7251
41031SOL    HW233024  12.689   0.457   7.698 -0.3276 -0.5344  1.1202
41032SOL     OW33025   1.629   8.715   1.646  0.4525 -0.5854  0.1881
41032SOL    HW133026   1.691   8.736   1.716  1.5034  1.3417 -1.2396
41032SOL    HW233027   1.657   8.629   1.615  1.3289 -0.4984  0.7080
41033SOL     OW33028   0.200   4.377   1.421 -0.1373  0.2594 -0.2777
41033SOL    HW133029   0.290   4.397   1.396 -0.2940 -0.1903 -1.2784
41033SOL    HW233030   0.164   4.331   1.345 -0.6129 -1.3475  0.8699
41034SOL     OW33031   9.844  11.360   2.422 -0.1982 -0.4436  0.1179
41034SOL    HW133032   9.763  11.408   2.441 -0.5980 -1.5906  1.4983
41034SOL    HW233033   9.909  11.401   2.479 -0.1486 -0.4330  0.0521
41035SOL     OW33034   3.261   2.070   0.377  0.1065 -0.3160  0.0457
41035SOL    HW133035   3.344   2.024   0.362 -0.1969 -0.8444 -0.0313
41035SOL    HW233036   3.227   2.032   0.458 -0.4071 -0.6107 -0.3076
41036SOL     OW33037   0.086  11.392   2.044 -0.4166 -0.1393 -1.1290
41036SOL    HW133038   0.096  11.304   2.081 -0.8747  0.4431  0.4474
41036SOL    HW233039   0.175  11.422   2.029 -0.2244 -0.5102 -0.7596
41037SOL     OW33040  12.885  10.242   5.399  0.7908 -0.6651 -0.5769
41037SOL    HW133041  12.974  10.276   5.400  0.7951 -0.6765 -0.5228
41037SOL    HW233042  12.860  10.241   5.306  0.5715  0.0741 -0.5342
41038SOL     OW33043   3.872   6.169   1.761  0.2939  1.1078  0.9379
41038SOL    HW133044   3.932   6.107   1.719  1.0427  2.9836 -0.9830
41038SOL    HW233045   3.878   6.150   1.854  0.7958 -1.3828  0.4705
41039SOL     OW33046   1.337   2.981   6.731  0.1831  0.1487 -0.0943
41039SOL    HW133047   1.266   2.989   6.668  0.6586  1.8685 -0.4445
41039SOL    HW233048   1.417   2.992   6.679  0.6109  0.6925  0.6601
41040SOL     OW33049   9.273  11.285  11.216 -0.2906  0.2476 -0.1662
41040SOL    HW133050   9.323  11.337  11.153  0.4655  1.3063  1.2498
41040SOL    HW233051   9.326  11.287  11.295 -2.8405  2.0167  1.6486
41041SOL     OW33052   9.852   7.116  12.115 -0.1097 -0.6073  0.2865
41041SOL    HW133053   9.816   7.187  12.170 -1.0424 -0.9545  0.1323
41041SOL    HW233054   9.904   7.063  12.176  0.7926  0.3177  0.3628
41042SOL     OW33055   0.097   8.328   0.730 -0.6017 -0.1272 -0.4170
41042SOL    HW133056   0.005   8.312   0.749 -0.3231 -0.3482  0.8162
41042SOL    HW233057   0.132   8.243   0.704  0.0408 -0.9166  2.6135
41043SOL     OW33058   0.705   2.910   0.124  0.0566  0.5162 -0.2041
41043SOL    HW133059   0.715   2.917   0.219 -0.3784  1.2197 -0.1935
41043SOL    HW233060   0.631   2.850   0.112  2.1163 -2.1979 -0.2096
41044SOL     OW33061   6.369  10.678   4.446 -0.0453  0.0208  0.8614
41044SOL    HW133062   6.389  10.770   4.428 -1.0110  0.3835  1.5026
41044SOL    HW233063   6.344  10.641   4.362  2.9301 -0.3973  0.0784
41045SOL     OW33064   7.260  10.174   4.427  0.1855  0.3790 -0.1229
41045SOL    HW133065   7.200  10.111   4.468  0.1240  1.5828  1.7821
41045SOL    HW233066   7.303  10.124   4.358 -1.1868 -1.2261  0.0978
41046SOL     OW33067   7.264   8.919   3.913 -0.1429  0.0231 -0.0279
41046SOL    HW133068   7.350   8.877   3.921  0.1575  0.4021 -1.1261
41046SOL    HW233069   7.279   9.010   3.940 -0.2976 -0.0142  0.1847
41047SOL     OW33070   8.725   3.551   3.889 -0.4747  0.2276  0.5429
41047SOL    HW133071   8.761   3.501   3.816  1.2982  0.3366  1.2904
41047SOL    HW233072   8.802   3.581   3.938 -1.5750  1.3571  1.6566
41048SOL     OW33073   8.282   5.470   2.481  0.8327 -0.5623  0.8541
41048SOL    HW133074   8.197   5.426   2.489  0.4156 -0.1968 -0.9844
41048SOL    HW233075   8.344   5.409   2.521 -0.0531 -1.6977  0.5672
41049SOL     OW33076  12.068  12.731   8.830  0.4112 -0.4348  0.0499
41049SOL    HW133077  12.068  12.813   8.781  3.6857 -0.3262  0.0175
41049SOL    HW233078  11.987  12.734   8.881 -0.4630  1.9367 -1.3009
41050SOL     OW33079  10.029   9.053   6.376  0.8153 -0.1716  0.0819
41050SOL    HW133080   9.963   9.051   6.445  2.4016  0.2184  1.6799
41050SOL    HW233081  10.112   9.066   6.422  1.7715  1.8389 -2.0156
41051SOL     OW33082   6.638  11.379   5.671 -0.4598  0.0385  0.1095
41051SOL    HW133083   6.632  11.470   5.643  0.5407 -0.6198 -2.5887
41051SOL    HW233084   6.712  11.376   5.731  0.8841  0.7047 -1.4506
41052SOL     OW33085   9.714   5.490   3.133  0.0654  0.0029 -0.1504
41052SOL    HW133086   9.757   5.451   3.057  1.7826 -0.0708  0.8174
41052SOL    HW233087   9.654   5.422   3.164 -0.2776 -0.1507 -1.1211
41053SOL     OW33088   8.066   5.009   9.021 -0.4117 -0.3787  0.2838
41053SOL    HW133089   8.025   4.965   8.947  1.5260  1.2792 -1.9228
41053SOL    HW233090   8.127   4.945   9.056 -0.4375 -0.7689 -0.3622
41054SOL     OW33091  11.868   0.273  10.189  0.2382  0.1432 -0.2898
41054SOL    HW133092  11.826   0.187  10.185 -0.2562  0.3791 -0.3635
41054SOL    HW233093  11.828   0.316  10.264  1.5939 -0.2433  0.6859
41055SOL     OW33094   2.540  12.443   4.734 -0.2809 -0.3209  0.1126
41055SOL    HW133095   2.517  12.519   4.681  0.4506  1.4667  2.2378
41055SOL    HW233096   2.629  12.421   4.708  0.2991  0.9308  0.9604
41056SOL     OW33097   2.621   6.979   4.153 -0.2320 -0.2461 -0.2820
41056SOL    HW133098   2.680   7.053   4.168 -0.3245 -0.3966  0.9552
41056SOL    HW233099   2.562   6.980   4.229  1.1450 -2.9158  0.9485
41057SOL     OW33100   9.457   2.284  13.050 -0.1270  0.2186 -0.7261
41057SOL    HW133101   9.411   2.210  13.089  0.2087 -0.3790 -1.4452
41057SOL    HW233102   9.468   2.260  12.958  1.9345  0.1865 -0.5177
41058SOL     OW33103   0.729  13.151  12.370  0.1787 -0.0599 -0.3376
41058SOL    HW133104   0.731  13.243  12.346 -0.1935  0.0330 -0.0262
41058SOL    HW233105   0.818  13.131  12.400  0.3184  0.1375 -0.6203
41059SOL     OW33106   4.675   9.128   5.885 -0.3589  0.2538 -0.2894
41059SOL    HW133107   4.682   9.221   5.863 -0.0630 -0.3352 -3.0649
41059SOL    HW233108   4.623   9.126   5.966 -1.0122  2.7852 -0.5649
41060SOL     OW33109  10.429  10.032   0.377 -0.3134  0.1833 -0.1024
41060SOL    HW133110  10.518  10.049   0.408  0.0356  0.4687 -1.2160
41060SOL    HW233111  10.373  10.058   0.450  0.4939  0.3711  0.4701
41061SOL     OW33112  10.548  12.090   1.607  0.8560  0.3719  0.6995
41061SOL    HW133113  10.455  12.098   1.586  0.5418  1.5203  2.3323
41061SOL    HW233114  10.589  12.062   1.525 -0.7939  0.6833 -0.2759
41062SOL     OW33115   1.471   5.148  10.484  0.2684  0.0601 -0.3340
41062SOL    HW133116   1.391   5.196  10.463  0.0933 -0.5843 -1.1779
41062SOL    HW233117   1.446   5.088  10.554  0.3421  0.7542  0.3019
41063SOL     OW33118   6.992   2.238   8.539 -0.2098  0.0338  0.3257
41063SOL    HW133119   7.055   2.173   8.570 -0.9460 -0.9308 -0.1299
41063SOL    HW233120   6.989   2.304   8.609  0.5719 -0.4053  0.7867
41064SOL     OW33121  11.045   8.658  11.417  0.0569  0.8196  0.5280
41064SOL    HW133122  10.972   8.717  11.440  0.6586  1.8502 -0.1425
41064SOL    HW233123  11.030   8.635  11.326 -0.4093 -0.4516  0.9008
41065SOL     OW33124  10.216   1.148  11.840  0.4947  0.1149  0.6437
41065SOL    HW133125  10.229   1.195  11.923  0.5572 -0.9442  1.2563
41065SOL    HW233126  10.159   1.074  11.864  1.4351 -0.8448 -0.0214
41066SOL     OW33127   3.833   8.531   1.315  0.2828  0.0181 -0.3970
41066SOL    HW133128   3.808   8.620   1.292 -1.1036 -0.2852 -0.1473
41066SOL    HW233129   3.904   8.509   1.255  0.5385  1.2353 -0.5512
41067SOL     OW33130  12.380   9.999   4.895 -0.1491  0.0848  0.7281
41067SOL    HW133131  12.344  10.017   4.808  1.5181 -0.8793 -0.2317
41067SOL    HW233132  12.346  10.069   4.950  0.0025  1.6683 -1.0676
41068SOL     OW33133   7.452  12.884   5.409  0.0235  0.0874  0.0625
41068SOL    HW133134   7.545  12.907   5.416  0.1841 -0.4539 -0.2305
41068SOL    HW233135   7.411  12.962   5.371  0.3455  0.3546  0.2622
41069SOL     OW33136   2.263  10.614   2.165  0.2295 -0.1498 -0.3886
41069SOL    HW133137   2.258  10.528   2.123 -1.5959  0.2181 -0.9811
41069SOL    HW233138   2.173  10.635   2.188  0.9480  0.4313  2.2133
41070SOL     OW33139  12.553   9.888  12.006 -0.5289 -0.5087  0.2655
41070SOL    HW133140  12.517   9.863  11.921  0.6266  1.0822 -0.7445
41070SOL    HW233141  12.479   9.922  12.055 -1.0451 -0.5983 -0.4365
41071SOL     OW33142   2.140   9.016   5.463 -0.8007 -0.5105 -0.0248
41071SOL    HW133143   2.131   9.001   5.369  0.8381 -1.4181 -0.0693
41071SOL    HW233144   2.113   8.934   5.503  0.1637 -0.7266  0.1955
41072SOL     OW33145   2.708   4.215   8.741  0.3277 -0.6384 -0.4495
41072SOL    HW133146   2.791   4.182   8.706  1.7369  2.5417 -0.4964
41072SOL    HW233147   2.733   4.291   8.794 -2.5417  0.2060 -0.1243
41073SOL     OW33148   9.939   1.130   0.916  0.3398 -0.1439  0.1431
41073SOL    HW133149   9.917   1.222   0.904 -0.7521 -0.5601 -1.2502
41073SOL    HW233150   9.875   1.099   0.980 -0.0484 -0.2190 -0.2827
41074SOL     OW33151   2.713   4.741  12.489  0.4044  0.1201 -0.5602
41074SOL    HW133152   2.675   4.808  12.432 -1.0353 -1.1953 -1.1864
41074SOL    HW233153   2.807   4.743  12.467  0.1252  0.7311 -1.8198
41075SOL     OW33154   0.543   7.165  10.648  0.0858 -0.0374 -0.2516
41075SOL    HW133155   0.547   7.070  10.665  0.3187 -0.3587 -1.9546
41075SOL    HW233156   0.634   7.192  10.644  0.0594 -0.1345 -1.7491
41076SOL     OW33157   7.885   3.044   4.079 -0.6081  0.3063  0.1191
41076SOL    HW133158   7.806   3.080   4.039 -0.6680  0.1518  0.0983
41076SOL    HW233159   7.957   3.080   4.028 -0.6744  0.2975  0.0193
41077SOL     OW33160   2.182   9.502   5.722 -0.2206  0.0667  0.1486
41077SOL    HW133161   2.112   9.538   5.777 -1.0226 -1.4282  0.1819
41077SOL    HW233162   2.148   9.508   5.633  0.5151  1.2602 -0.0667
41078SOL     OW33163   0.858  11.014   2.756  0.7929  0.5254 -0.4930
41078SOL    HW133164   0.892  10.926   2.740  1.0237  0.8894 -2.1044
41078SOL    HW233165   0.934  11.071   2.745  0.6775  0.9391  0.6865
41079SOL     OW33166   1.836   1.163   5.713  0.1748  0.2319 -0.0876
41079SOL    HW133167   1.924   1.199   5.713  0.4462 -0.4130 -0.4514
41079SOL    HW233168   1.783   1.228   5.667  0.5413  0.4256 -0.2364
41080SOL     OW33169   2.284   0.246   5.730  0.4946  0.2947 -0.9900
41080SOL    HW133170   2.365   0.236   5.781  0.1049  1.6812 -0.0369
41080SOL    HW233171   2.216   0.209   5.787  0.3730 -0.3556 -1.5506
41081SOL     OW33172   1.166  13.181   9.816  0.2943  0.6002 -0.2095
41081SOL    HW133173   1.205  13.187   9.904  0.2896  0.6810 -0.2138
41081SOL    HW233174   1.226  13.230   9.760  0.2879  0.5636 -0.2489
41082SOL     OW33175  13.114   4.694   1.621  0.0915  0.1484 -0.0430
41082SOL    HW133176  13.115   4.772   1.566 -0.2326  0.3087  0.1783
41082SOL    HW233177  13.206   4.667   1.625  0.4062  1.2686  0.9413
41083SOL     OW33178   5.526   8.002   0.737  0.3697  0.2463  0.2406
41083SOL    HW133179   5.493   7.917   0.766 -0.2047  0.1232 -0.7168
41083SOL    HW233180   5.496   8.064   0.804 -1.2871  0.0377 -0.2523
41084SOL     OW33181   2.392   6.372   9.193 -0.1448  0.2466 -0.2285
41084SOL    HW133182   2.437   6.375   9.108  0.3038 -1.3568 -0.0844
41084SOL    HW233183   2.301   6.390   9.172  0.1322  0.9166 -0.9007
41085SOL     OW33184   9.189   8.809   8.904 -0.2785  0.2722 -0.2073
41085SOL    HW133185   9.123   8.810   8.835  1.4445  1.3007 -1.9308
41085SOL    HW233186   9.213   8.716   8.912  2.0187  0.3797 -3.6586
41086SOL     OW33187  12.141   8.109   0.491  0.0063  0.3262  0.8368
41086SOL    HW133188  12.142   8.040   0.556 -0.2460  0.9710  1.5444
41086SOL    HW233189  12.049   8.135   0.485  0.4331  2.7846  2.9914
41087SOL     OW33190  10.000   9.252   0.935  0.1748 -0.1198  0.0211
41087SOL    HW133191   9.931   9.193   0.907 -0.1210  0.6950 -1.0329
41087SOL    HW233192   9.996   9.325   0.873  0.7161  0.8639  1.1134
41088SOL     OW33193   0.827  10.325  11.173  0.1391  0.4535 -0.8350
41088SOL    HW133194   0.759  10.390  11.193  0.1737 -0.0245  0.9486
41088SOL    HW233195   0.778  10.245  11.156  0.2348 -0.1984  1.6461
41089SOL     OW33196  10.065   3.668   1.644 -0.4226  0.0162 -0.2579
41089SOL    HW133197  10.046   3.683   1.736 -0.9843 -3.3904  0.2962
41089SOL    HW233198   9.981   3.640   1.607  0.2116 -0.4294 -1.3864
41090SOL     OW33199   4.771  13.007   0.811  0.5279  0.2457 -0.3424
41090SOL    HW133200   4.784  13.061   0.888  0.3180 -2.3905  1.6908
41090SOL    HW233201   4.841  13.033   0.751  2.2092  0.7806  1.7237
41091SOL     OW33202   6.205   9.060   8.493 -0.3277 -0.1459  0.3011
41091SOL    HW133203   6.131   9.004   8.516  0.2388 -0.1317  2.3196
41091SOL    HW233204   6.242   9.088   8.577  3.8663 -2.6091 -0.4299
41092SOL     OW33205   1.515   6.270   6.018 -0.4881  0.5608  0.1069
41092SOL    HW133206   1.577   6.340   5.998 -0.3787  0.7667  1.1209
41092SOL    HW233207   1.570   6.198   6.049 -0.4769 -0.4715 -2.1309
41093SOL     OW33208  10.696   4.237   0.848 -0.4066  0.0812  0.0558
41093SOL    HW133209  10.749   4.316   0.839 -0.1146 -0.0844  0.3070
41093SOL    HW233210  10.759   4.168   0.867 -0.3512 -0.7148 -2.5744
41094SOL     OW33211   1.459  12.904   5.383  0.3788  1.5391  0.2319
41094SOL    HW133212   1.366  12.894   5.362  0.7702 -3.5200 -0.5236
41094SOL    HW233213   1.496  12.949   5.307 -0.8898 -0.6241 -1.8209
41095SOL     OW33214   2.695  11.090   9.372  0.5789  0.2851  0.3253
41095SOL    HW133215   2.772  11.090   9.317  0.0785 -2.1880 -0.4707
41095SOL    HW233216   2.728  11.106   9.460  1.6910  1.5358 -0.2911
41096SOL     OW33217   5.721   9.468   2.807 -0.5524 -0.2004 -0.1693
41096SOL    HW133218   5.653   9.448   2.742  0.6334  1.1237 -1.9137
41096SOL    HW233219   5.795   9.413   2.782 -0.3861 -0.3667  0.6608
41097SOL     OW33220   0.235   2.997   9.203 -0.4582 -0.2619  0.2901
41097SOL    HW133221   0.270   2.948   9.276  0.5516 -0.2129 -0.1520
41097SOL    HW233222   0.227   3.087   9.235  2.5058  0.3577 -0.4025
41098SOL     OW33223   5.622   7.303   0.503 -0.3670 -0.4494 -0.3737
41098SOL    HW133224   5.550   7.364   0.485 -0.0806  0.4728  1.4201
41098SOL    HW233225   5.580   7.218   0.509 -1.7091  0.2767  2.4053
41099SOL     OW33226   0.530   6.637   6.334  0.3389 -0.2803 -0.5391
41099SOL    HW133227   0.524   6.580   6.411  0.3485 -0.1857 -0.4679
41099SOL    HW233228   0.473   6.711   6.354 -1.5934 -1.3983 -1.6381
41100SOL     OW33229   7.041   5.694  11.462 -0.1514 -0.9349  0.4578
41100SOL    HW133230   7.074   5.677  11.550 -0.6000  0.5161  0.9308
41100SOL    HW233231   6.977   5.764  11.473 -0.2063 -0.7101 -1.0352
41101SOL     OW33232   2.295   0.125   8.842 -0.4533  0.2428 -0.1077
41101SOL    HW133233   2.311   0.039   8.880 -0.4229  0.3004  0.0092
41101SOL    HW233234   2.207   0.148   8.871 -0.7525 -0.0721 -0.7466
41102SOL     OW33235   0.520   3.022  10.999  0.2957 -0.0706 -0.1100
41102SOL    HW133236   0.485   3.076  10.928 -0.6831  0.7979  0.9837
41102SOL    HW233237   0.442   2.992  11.047  0.9448  0.8702  1.6424
41103SOL     OW33238  10.867  11.153  12.940  0.0384 -0.2056 -0.1374
41103SOL    HW133239  10.919  11.144  12.860  0.5260  0.5816  0.0732
41103SOL    HW233240  10.931  11.141  13.011  0.0778  1.3476  0.1296
41104SOL     OW33241   4.621   5.842   1.168  0.2755 -0.4602  0.2977
41104SOL    HW133242   4.701   5.802   1.202  0.2705  0.8048  1.9263
41104SOL    HW233243   4.607   5.799   1.083  2.5651 -0.8293  0.0394
41105SOL     OW33244  12.765  10.375   9.685 -0.2918 -0.1888  0.2043
41105SOL    HW133245  12.840  10.319   9.705  0.4715 -0.1029 -2.0930
41105SOL    HW233246  12.690  10.330   9.725  0.6287 -1.6022  0.4265
41106SOL     OW33247   5.985   6.098   4.429 -0.1518 -0.7627 -0.0546
41106SOL    HW133248   6.068   6.145   4.439 -0.8213  0.3667  0.3209
41106SOL    HW233249   6.012   6.008   4.409  1.1754 -0.5865  0.7559
41107SOL     OW33250   8.035  11.697   6.551 -0.1769  0.2102 -0.5449
41107SOL    HW133251   8.013  11.605   6.537 -0.3620 -0.1043  1.4610
41107SOL    HW233252   7.950  11.740   6.564  0.0036 -0.0423  2.0045
41108SOL     OW33253   5.804  11.806   4.985  0.0451  0.2232  0.0094
41108SOL    HW133254   5.868  11.825   5.054 -0.5889  2.3411  0.0900
41108SOL    HW233255   5.723  11.846   5.015 -0.1976  1.4074 -1.9994
41109SOL     OW33256  13.294   4.029   5.204 -0.1685  0.1152  0.4338
41109SOL    HW133257  13.239   4.002   5.131  0.6384 -0.1064 -0.1082
41109SOL    HW233258  13.383   4.009   5.175  0.3063  1.6876  0.7482
41110SOL     OW33259   0.596   2.312   9.326  0.4499  0.2064 -0.0791
41110SOL    HW133260   0.524   2.375   9.314  2.3479  3.0200  1.9240
41110SOL    HW233261   0.645   2.317   9.244  0.6225  1.4773  0.0776
41111SOL     OW33262   1.792   6.166   6.610  0.3720 -0.5934 -0.4031
41111SOL    HW133263   1.714   6.173   6.556  0.5175 -1.8341 -0.7999
41111SOL    HW233264   1.763   6.125   6.691  0.5055 -0.5037 -0.3078
41112SOL     OW33265   7.022   3.392  12.319 -0.5557  0.0006  0.2770
41112SOL    HW133266   6.958   3.422  12.255  0.7279 -0.4371 -1.2658
41112SOL    HW233267   7.035   3.467  12.377 -0.3288  1.1062 -1.1412
41113SOL     OW33268   4.061   4.569   0.533  0.1024  0.2026  0.0066
41113SOL    HW133269   4.093   4.502   0.593  2.0011 -0.5251 -1.7083
41113SOL    HW233270   4.140   4.608   0.495 -0.8548  4.0536  1.4919
41114SOL     OW33271   1.034   7.048   0.349  0.4665 -0.0646 -0.1975
41114SOL    HW133272   1.011   7.000   0.269 -0.1169  1.9049 -1.2680
41114SOL    HW233273   1.129   7.037   0.357  0.5538 -0.1703 -1.2526
41115SOL     OW33274  10.932  10.548  10.747 -0.0644  0.1979 -0.2053
41115SOL    HW133275  10.975  10.632  10.766  0.4287 -0.2986  1.0339
41115SOL    HW233276  10.997  10.482  10.772 -1.9399 -0.6399  3.2504
41116SOL     OW33277   9.874   2.979   2.405 -0.1813  0.5471 -0.1432
41116SOL    HW133278   9.924   2.959   2.326  0.2488 -1.1007  0.5147
41116SOL    HW233279   9.782   2.969   2.379 -0.0126 -1.2796 -0.1391
41117SOL     OW33280   0.352   4.008   3.508 -0.1460 -0.9387  0.5466
41117SOL    HW133281   0.356   4.086   3.453 -1.9228 -1.8195 -0.9498
41117SOL    HW233282   0.329   4.042   3.595  0.6948  0.3058  0.3128
41118SOL     OW33283  12.281  11.240   5.727 -0.2453  0.0454 -0.5609
41118SOL    HW133284  12.226  11.259   5.651 -1.5386  2.0734  0.8072
41118SOL    HW233285  12.370  11.259   5.697 -0.7796  1.3113 -1.4351
41119SOL     OW33286  12.842   0.055  11.337 -0.0246  0.3216  0.0681
41119SOL    HW133287  12.902   0.125  11.365  1.7417 -0.7857 -0.8275
41119SOL    HW233288  12.779   0.099  11.281  0.1801  1.4398  0.6765
41120SOL     OW33289  10.132   7.674   7.938  0.6658  0.0921  0.0772
41120SOL    HW133290  10.168   7.655   8.025 -2.6119 -1.2959  1.2720
41120SOL    HW233291  10.051   7.722   7.955 -0.1077 -0.2540 -2.2192
41121SOL     OW33292   0.051   7.698  12.300  0.4337  0.6277 -0.0323
41121SOL    HW133293   0.084   7.724  12.387  0.2649 -0.6700  0.4377
41121SOL    HW233294  -0.025   7.644  12.318 -0.0693  0.9745 -1.0316
41122SOL     OW33295   2.990   2.713   9.829 -0.0801 -0.0252  0.1439
41122SOL    HW133296   2.959   2.705   9.739 -0.1089 -0.7733  0.2131
41122SOL    HW233297   2.912   2.731   9.881 -0.0115  0.7993 -0.0214
41123SOL     OW33298   4.316  12.185   1.939 -0.0853  0.0640 -0.6988
41123SOL    HW133299   4.367  12.243   1.882  2.1844 -0.3074  0.8384
41123SOL    HW233300   4.290  12.240   2.013 -0.4876 -0.1689 -0.6616
41124SOL     OW33301   5.744  12.065  10.181 -0.4480  0.1324 -0.0135
41124SOL    HW133302   5.780  12.089  10.267 -0.9984 -0.8414  0.5112
41124SOL    HW233303   5.716  11.974  10.192 -1.5607  0.3538 -0.8915
41125SOL     OW33304  11.828   8.633   9.132  0.3648  0.0931  0.0403
41125SOL    HW133305  11.756   8.585   9.171  0.5691 -0.0741  0.2135
41125SOL    HW233306  11.839   8.595   9.045  1.1992 -0.8980  0.5472
41126SOL     OW33307   6.096  11.325  11.229 -0.2731  0.2469 -0.0857
41126SOL    HW133308   6.072  11.376  11.307 -0.8983 -0.4819  0.2096
41126SOL    HW233309   6.024  11.264  11.217  0.5507 -0.7200 -0.2991
41127SOL     OW33310   3.158  11.696   4.491  0.4922  0.3256  0.1514
41127SOL    HW133311   3.136  11.756   4.563 -0.0833 -3.0880  3.1432
41127SOL    HW233312   3.084  11.703   4.430 -0.4306  1.3431  1.3435
41128SOL     OW33313   5.745   5.386   3.201 -0.4021 -0.5459 -0.3971
41128SOL    HW133314   5.728   5.356   3.112  1.3302 -0.6820 -0.7124
41128SOL    HW233315   5.833   5.354   3.221 -0.6664 -0.3046  1.2790
41129SOL     OW33316  11.580   8.778   2.342 -0.6532 -0.5448 -0.4182
41129SOL    HW133317  11.652   8.751   2.285 -0.1738  1.8114 -1.0360
41129SOL    HW233318  11.618   8.779   2.430  0.5949  2.0061 -0.8870
41130SOL     OW33319  10.065   0.548  10.800  0.2486  0.4088 -0.3991
41130SOL    HW133320  10.032   0.536  10.711  0.2638  0.4800 -0.4149
41130SOL    HW233321  10.104   0.636  10.798 -1.6026  1.2993  0.2534
41131SOL     OW33322   7.266  11.202  12.795 -0.2990 -0.6116 -0.0642
41131SOL    HW133323   7.203  11.262  12.834 -1.2520 -0.7952 -1.2794
41131SOL    HW233324   7.301  11.153  12.870 -1.6346 -0.5430  0.6377
41132SOL     OW33325  10.273   0.869  11.046 -0.2292 -0.4337  0.0517
41132SOL    HW133326  10.237   0.866  10.958  0.5027 -0.5328 -0.2430
41132SOL    HW233327  10.234   0.794  11.090  1.3532 -1.8879 -0.9389
41133SOL     OW33328   8.040   7.972   7.025  0.1004  0.0444 -0.6420
41133SOL    HW133329   8.108   7.970   7.092  1.1505  0.2906 -1.6537
41133SOL    HW233330   8.059   7.897   6.969 -1.4165 -0.8009 -0.0689
41134SOL     OW33331   5.233   4.486   9.180 -0.0410 -0.3857 -0.2911
41134SOL    HW133332   5.189   4.469   9.264  0.7711 -0.2762  0.1637
41134SOL    HW233333   5.177   4.551   9.137 -0.3559 -0.2809  0.2623
41135SOL     OW33334   8.084   8.803  12.243 -0.1162 -0.2830  0.7094
41135SOL    HW133335   8.094   8.785  12.150  0.9679  1.7934  0.3820
41135SOL    HW233336   8.004   8.856  12.249 -0.2495 -0.5122  0.9834
41136SOL     OW33337   6.946  10.086   1.508 -0.2183 -0.1549  0.0294
41136SOL    HW133338   6.926  10.091   1.602 -1.6777  0.7848 -0.2994
41136SOL    HW233339   7.036  10.117   1.501 -0.3823  0.6006  1.0260
41137SOL     OW33340   0.958   3.547   7.144 -0.1070 -0.0318  0.1305
41137SOL    HW133341   1.030   3.576   7.200  1.8872 -4.8211  0.6031
41137SOL    HW233342   0.888   3.523   7.205 -0.6715  1.0837 -0.0508
41138SOL     OW33343   2.633  11.029  11.733  0.1994 -0.3580 -0.5207
41138SOL    HW133344   2.635  10.951  11.788 -1.0482  1.0539  1.6654
41138SOL    HW233345   2.701  11.086  11.770 -0.4655  0.5043 -0.5926
41139SOL     OW33346   2.503  13.092  12.298 -0.1428 -0.2801  0.1821
41139SOL    HW133347   2.553  13.144  12.361  0.5575  0.6340 -1.0922
41139SOL    HW233348   2.451  13.156  12.250  0.2399 -0.8152 -0.9728
41140SOL     OW33349   2.497   7.190   4.839 -0.4559  0.1703  0.5793
41140SOL    HW133350   2.447   7.133   4.781  1.7263 -1.2970  0.0280
41140SOL    HW233351   2.567   7.135   4.874  1.6964  2.3878  0.1254
41141SOL     OW33352   0.314   7.092   6.605  0.4283  0.0936 -0.3795
41141SOL    HW133353   0.282   7.089   6.515  1.5006  0.2507 -0.7779
41141SOL    HW233354   0.241   7.127   6.656  0.2578  1.2446 -1.3938
41142SOL     OW33355  11.298  13.025   6.317 -0.7495  0.7160  0.2985
41142SOL    HW133356  11.249  13.015   6.236 -1.1765  0.5421  0.5720
41142SOL    HW233357  11.238  13.072   6.375 -0.8183 -0.0003  0.8268
41143SOL     OW33358   8.748  12.082  10.781 -0.2013 -0.4263  0.1844
41143SOL    HW133359   8.748  11.987  10.773 -1.6204 -0.4190 -0.1200
41143SOL    HW233360   8.659  12.105  10.806 -0.0094  0.8575 -0.1984
41144SOL     OW33361  12.047   6.333  10.329  0.5996 -0.3229  0.4238
41144SOL    HW133362  12.007   6.404  10.379 -0.4350  0.3923 -1.3667
41144SOL    HW233363  12.140   6.356  10.325  0.5970 -0.0613  1.4258
41145SOL     OW33364  10.473  13.126  13.078  0.5753  0.0393  0.1198
41145SOL    HW133365  10.409  13.195  13.066 -1.2738 -1.7959 -1.2371
41145SOL    HW233366  10.437  13.072  13.149  1.8012  0.2118  0.9122
41146SOL     OW33367   3.793  11.345  12.126  0.3363 -0.2560  0.2414
41146SOL    HW133368   3.748  11.377  12.049  0.5244  0.8789  0.5882
41146SOL    HW233369   3.883  11.374  12.116 -0.1215  2.1356  2.0167
41147SOL     OW33370   9.572   5.165   3.276 -0.5335  0.8812  0.5678
41147SOL    HW133371   9.492   5.218   3.284 -1.5753 -0.6500  0.7383
41147SOL    HW233372   9.548   5.095   3.215 -0.8835 -2.2255  3.9069
41148SOL     OW33373   8.239   1.012   5.783  0.4133 -0.4014  0.0968
41148SOL    HW133374   8.290   1.088   5.756 -2.4134  1.0655 -1.5401
41148SOL    HW233375   8.268   0.942   5.725  1.8560 -0.1672  0.4958
41149SOL     OW33376   9.695  10.769  12.850  0.3837 -0.3190  0.0851
41149SOL    HW133377   9.615  10.718  12.844  0.9906 -1.2765 -0.2327
41149SOL    HW233378   9.708  10.804  12.762  0.5588 -0.5609  0.0130
41150SOL     OW33379   8.346   8.152  10.051  0.2842 -0.0279 -0.2263
41150SOL    HW133380   8.293   8.231  10.045 -0.0343 -0.1429  0.8576
41150SOL    HW233381   8.284   8.080  10.039 -0.6883 -0.3608  4.5904
41151SOL     OW33382   8.695   6.711   3.873  0.5266 -0.0124  0.4229
41151SOL    HW133383   8.602   6.696   3.890  0.4236  0.9969  0.8251
41151SOL    HW233384   8.728   6.748   3.955  1.1353  0.2562  0.0617
41152SOL     OW33385   1.452   1.235   7.287 -0.3936  0.5891  0.0265
41152SOL    HW133386   1.525   1.174   7.297  0.1004  1.3502  1.2770
41152SOL    HW233387   1.487   1.305   7.232 -0.0629  1.1198  0.9023
41153SOL     OW33388   9.524   6.462   3.302  0.2581 -0.3293  0.1904
41153SOL    HW133389   9.524   6.448   3.207  1.0325 -0.2253  0.1650
41153SOL    HW233390   9.502   6.376   3.338 -1.5882 -0.0135 -0.1001
41154SOL     OW33391   5.447   6.849  10.147  0.1908  0.3862 -0.0632
41154SOL    HW133392   5.491   6.787  10.204  3.1133 -1.3094 -3.7599
41154SOL    HW233393   5.510   6.920  10.134 -1.4281  2.0716  0.6862
41155SOL     OW33394   7.583  12.305  11.168  0.0515 -0.0393 -0.3524
41155SOL    HW133395   7.532  12.224  11.163 -0.8771  0.4940  0.1374
41155SOL    HW233396   7.531  12.369  11.118  0.2635  0.5029  0.1131
41156SOL     OW33397   2.313   5.767   8.918  0.5719  0.2510  0.2745
41156SOL    HW133398   2.260   5.775   8.997  0.0808 -0.2995  0.0025
41156SOL    HW233399   2.264   5.814   8.851 -0.1235 -1.1649 -0.2383
41157SOL     OW33400   3.206   2.093   9.695 -0.0928 -0.4818 -0.4889
41157SOL    HW133401   3.110   2.097   9.700 -0.2468 -3.1323  0.0073
41157SOL    HW233402   3.224   2.012   9.650  1.9430 -0.7334  0.6603
41158SOL     OW33403   3.005   3.006   2.491 -0.0478  1.0288  0.7427
41158SOL    HW133404   3.067   2.958   2.437  1.4362  1.3989  2.0400
41158SOL    HW233405   3.058   3.069   2.540 -1.1555  0.2151  3.1926
41159SOL     OW33406   9.590   4.111   1.783 -0.1228  0.5425 -0.4720
41159SOL    HW133407   9.532   4.059   1.727 -1.6306  1.6934 -0.0426
41159SOL    HW233408   9.609   4.054   1.858  0.3146 -0.2897 -1.2027
41160SOL     OW33409   6.449   4.440  11.353 -0.0800  0.0352  0.0906
41160SOL    HW133410   6.430   4.516  11.297 -0.2100 -0.0154  0.0650
41160SOL    HW233411   6.537   4.455  11.385  0.9596 -1.0911 -2.0236
41161SOL     OW33412   6.163  10.159   3.400 -0.5286  0.0536  0.0158
41161SOL    HW133413   6.198  10.156   3.489  0.5629 -0.4107 -0.4054
41161SOL    HW233414   6.080  10.206   3.408 -0.0608  0.7322  1.1461
41162SOL     OW33415   7.648   9.840  11.474 -0.0116 -0.0330 -0.8397
41162SOL    HW133416   7.570   9.808  11.427 -0.3067  0.6569 -0.8254
41162SOL    HW233417   7.615   9.908  11.532  0.6441  0.4750 -1.0492
41163SOL     OW33418   9.896   7.417   2.136  0.5007  0.1569 -0.0643
41163SOL    HW133419   9.846   7.460   2.205 -0.6454 -1.0069 -0.1363
41163SOL    HW233420   9.906   7.484   2.068 -2.2352  0.0464 -0.6814
41164SOL     OW33421   6.074   3.738   4.496 -0.0559  0.1345 -0.1343
41164SOL    HW133422   6.142   3.704   4.553  1.0328  0.6700 -1.0776
41164SOL    HW233423   6.048   3.821   4.536 -0.1587 -0.0652  0.2198
41165SOL     OW33424   9.184   7.377   3.589  0.2614 -0.6095 -0.0787
41165SOL    HW133425   9.256   7.317   3.608 -0.1700 -1.9636 -2.2929
41165SOL    HW233426   9.133   7.332   3.521 -2.0132  0.8154  0.5708
41166SOL     OW33427  13.220  12.672   2.087  0.3525 -0.2096  0.6097
41166SOL    HW133428  13.130  12.696   2.109  0.0134 -0.4300 -0.5041
41166SOL    HW233429  13.216  12.644   1.996  1.5983  0.0313  0.4679
41167SOL     OW33430  11.187   7.065   3.968 -0.2577  0.1943  0.1562
41167SOL    HW133431  11.245   7.011   3.915  0.5533  1.5448 -0.3661
41167SOL    HW233432  11.228   7.066   4.055  0.1802  0.6580 -0.0555
41168SOL     OW33433   0.906   4.414  10.268 -0.3148 -0.5192 -0.0955
41168SOL    HW133434   0.930   4.506  10.259 -0.7124 -0.3961  0.0998
41168SOL    HW233435   0.859   4.393  10.188  1.6479 -1.1521 -1.1513
41169SOL     OW33436   5.321  12.615   7.803  0.3514 -0.0137  0.1951
41169SOL    HW133437   5.278  12.668   7.870  0.2794  1.0823 -0.6835
41169SOL    HW233438   5.249  12.575   7.754  0.3830 -0.0761  0.1991
41170SOL     OW33439   1.251  13.155   0.629  0.0343  0.5446 -0.2923
41170SOL    HW133440   1.244  13.248   0.607  2.1568  0.5166 -1.3155
41170SOL    HW233441   1.222  13.110   0.550  0.3849  0.3492 -0.3089
41171SOL     OW33442   5.206  10.861   1.755 -0.7066  0.1143  0.5001
41171SOL    HW133443   5.265  10.906   1.815 -0.3723  0.3018  0.0345
41171SOL    HW233444   5.237  10.771   1.754 -0.1767  0.3039 -0.0598
41172SOL     OW33445   6.080   6.202   5.520  0.3712 -0.5807  0.2673
41172SOL    HW133446   6.132   6.280   5.535 -0.2343 -0.4721  2.0983
41172SOL    HW233447   5.989   6.233   5.516  0.1660 -1.1225  0.4958
41173SOL     OW33448   7.451   0.295   9.579 -0.7843  0.4039 -0.0258
41173SOL    HW133449   7.418   0.232   9.644  0.8126 -3.1441 -2.3127
41173SOL    HW233450   7.404   0.273   9.498  1.2216  0.7883 -1.3717
41174SOL     OW33451   7.320   7.396   2.655 -0.1361  0.2602 -0.4844
41174SOL    HW133452   7.256   7.467   2.661 -1.2503 -0.7714  0.5470
41174SOL    HW233453   7.335   7.385   2.561 -0.3275  1.5072 -0.6800
41175SOL     OW33454   4.904   5.027   9.848  0.4466  0.2108  0.4732
41175SOL    HW133455   4.944   5.112   9.865 -0.1531  0.4157  0.9100
41175SOL    HW233456   4.834   5.045   9.785  0.4420  0.0086  0.4176
41176SOL     OW33457   9.229   4.628   3.037  0.0751 -0.1385  0.0303
41176SOL    HW133458   9.167   4.648   2.966 -0.5119 -0.0136  0.5685
41176SOL    HW233459   9.174   4.616   3.114  0.8359  1.6734  0.9017
41177SOL     OW33460   5.202  11.778   1.237 -0.4497 -0.2219 -0.4554
41177SOL    HW133461   5.110  11.791   1.261 -0.2228 -0.5761  0.6579
41177SOL    HW233462   5.243  11.742   1.316  0.5015 -0.7326 -1.1578
41178SOL     OW33463   3.753   5.913   8.003 -0.2473 -0.0666  0.1863
41178SOL    HW133464   3.784   5.947   8.088 -1.9503  4.2883 -0.6621
41178SOL    HW233465   3.828   5.925   7.944 -0.9336  3.1850 -0.2028
41179SOL     OW33466   4.061   0.632   8.953 -0.4072 -0.0269  0.3123
41179SOL    HW133467   4.035   0.540   8.945 -0.2956 -0.0797  0.5476
41179SOL    HW233468   4.150   0.634   8.916  0.1912 -0.3111  1.6752
41180SOL     OW33469  10.652  12.346   7.061 -0.2374 -0.0069 -0.7344
41180SOL    HW133470  10.683  12.437   7.059  0.3657 -0.2114 -1.5588
41180SOL    HW233471  10.731  12.294   7.043 -0.0253 -0.8756  2.2822
41181SOL     OW33472   4.675  12.009   9.617 -0.3371  0.0552 -0.0402
41181SOL    HW133473   4.681  12.095   9.659 -1.7005  1.5819 -2.7178
41181SOL    HW233474   4.710  11.949   9.682  1.1016  2.6578  1.8037
41182SOL     OW33475   8.653  11.835   7.758 -0.5692 -0.2136 -0.2137
41182SOL    HW133476   8.597  11.913   7.757  0.8976  0.8831 -0.0478
41182SOL    HW233477   8.707  11.843   7.680  0.5694 -0.3125  0.5364
41183SOL     OW33478  10.167   1.011   3.554 -0.5258 -0.4228  0.3779
41183SOL    HW133479  10.092   0.973   3.600  1.4023 -1.4675  2.9296
41183SOL    HW233480  10.140   1.101   3.535 -1.9634 -0.3304  2.4937
41184SOL     OW33481   8.602   3.220  11.877  0.3017  0.1100  0.3891
41184SOL    HW133482   8.683   3.174  11.899 -0.2379 -0.5682  1.0041
41184SOL    HW233483   8.537   3.184  11.937 -0.9390 -0.7990 -1.4225
41185SOL     OW33484   8.675   7.520  13.165  0.6589 -0.0345 -0.6584
41185SOL    HW133485   8.685   7.481  13.252  1.5903  0.4482 -0.5311
41185SOL    HW233486   8.581   7.519  13.149  0.5470 -0.9460 -0.0240
41186SOL     OW33487  11.595  10.621  10.168 -0.2822  0.0485 -0.1994
41186SOL    HW133488  11.634  10.628  10.255 -0.4530  0.4020 -0.1470
41186SOL    HW233489  11.530  10.691  10.165 -1.7626 -1.2616  0.1575
41187SOL     OW33490   1.734  12.966  10.267  0.0068  0.1291 -0.5269
41187SOL    HW133491   1.781  13.035  10.219  0.5504 -0.5340 -0.9721
41187SOL    HW233492   1.760  12.885  10.223  0.3228 -0.4805  0.7494
41188SOL     OW33493  12.294   3.759   0.336 -0.1091 -0.1885 -0.6448
41188SOL    HW133494  12.294   3.735   0.243 -1.5964 -1.8292 -0.2817
41188SOL    HW233495  12.274   3.677   0.382  1.8743  0.2917  1.2406
41189SOL     OW33496   2.949  11.763   0.492 -0.4315 -0.2382  0.6417
41189SOL    HW133497   2.914  11.852   0.500 -0.8214 -0.2568 -0.6124
41189SOL    HW233498   2.976  11.740   0.581  1.5749  1.8805  0.6780
41190SOL     OW33499   9.307   0.055  10.931 -0.4030 -0.2810  0.6965
41190SOL    HW133500   9.347   0.112  10.865  0.1844 -0.9815  0.4317
41190SOL    HW233501   9.322   0.101  11.014  1.1908 -0.6267  0.6389
41191SOL     OW33502   3.244   0.567   5.031 -0.4383 -0.0979 -0.2993
41191SOL    HW133503   3.336   0.545   5.020 -0.3396 -1.4160  2.3423
41191SOL    HW233504   3.238   0.604   5.119 -2.2404  1.3199 -0.9499
41192SOL     OW33505   4.224   6.241   7.132 -0.5555  0.1543 -0.1162
41192SOL    HW133506   4.233   6.147   7.116 -1.4446  0.2490 -1.2925
41192SOL    HW233507   4.170   6.247   7.210  2.5911 -0.3090  2.2868
41193SOL     OW33508   0.503   6.187   1.252  0.0262 -0.7766  0.2039
41193SOL    HW133509   0.533   6.205   1.163 -1.3360 -2.6179 -0.7162
41193SOL    HW233510   0.573   6.219   1.308  1.4750 -0.6374 -1.5782
41194SOL     OW33511   7.388   5.980   3.534 -0.4649 -0.1260  0.0274
41194SOL    HW133512   7.387   5.886   3.513 -0.0107 -0.1492  0.0901
41194SOL    HW233513   7.340   6.021   3.461 -2.1838 -0.5566  0.8702
41195SOL     OW33514  10.025   0.458   3.697 -0.2949  0.2129  0.2500
41195SOL    HW133515  10.030   0.377   3.647 -2.1333 -0.3491  0.9084
41195SOL    HW233516   9.940   0.496   3.674  1.4101  3.1620 -1.7697
41196SOL     OW33517   7.365   5.367   2.139 -0.1587 -0.6915  0.6326
41196SOL    HW133518   7.274   5.377   2.166  0.0499  1.7426  0.6525
41196SOL    HW233519   7.415   5.372   2.220  0.0313 -1.3037  0.5540
41197SOL     OW33520  12.271   2.327  12.320  0.4700  0.2200  0.3413
41197SOL    HW133521  12.197   2.269  12.339 -0.6957  0.8852 -1.8845
41197SOL    HW233522  12.269   2.391  12.391 -0.5643 -0.2727  0.7831
41198SOL     OW33523   7.271   8.697   8.311  0.0897  0.0903  0.3072
41198SOL    HW133524   7.356   8.674   8.273  0.5670  1.2356  0.6273
41198SOL    HW233525   7.223   8.614   8.316  0.6302 -0.3409 -1.2454
41199SOL     OW33526   9.687  10.562   6.514  0.0778  0.4566 -0.5454
41199SOL    HW133527   9.761  10.568   6.575 -0.5097 -1.3525  0.4087
41199SOL    HW233528   9.728  10.546   6.428  0.8614 -3.1704  0.3330
41200SOL     OW33529   6.675   5.595   3.451  0.0690  0.1485  0.3100
41200SOL    HW133530   6.629   5.659   3.505 -1.0191 -1.0919  0.8986
41200SOL    HW233531   6.754   5.573   3.501  0.9405  1.6744 -0.3250
41201SOL     OW33532  10.905  10.756  11.650 -0.3657  0.4047 -0.3577
41201SOL    HW133533  10.889  10.686  11.586 -0.1662  0.7880 -0.8351
41201SOL    HW233534  10.817  10.779  11.681 -0.3827 -0.5460  0.3505
41202SOL     OW33535   2.042   5.174   5.235  0.5987  0.4618 -0.2013
41202SOL    HW133536   1.950   5.156   5.215  0.8596 -2.1264  0.6217
41202SOL    HW233537   2.040   5.236   5.308 -0.4251  1.6489 -1.1891
41203SOL     OW33538   2.655  12.236   4.476  0.6915 -0.0130 -0.2258
41203SOL    HW133539   2.582  12.183   4.443  1.1572  0.5387 -2.3114
41203SOL    HW233540   2.672  12.201   4.563 -1.0683 -1.1644 -0.2764
41204SOL     OW33541   2.542   4.254   7.196  0.2644  0.2353  0.3830
41204SOL    HW133542   2.521   4.302   7.116 -1.5653  1.4432  1.4987
41204SOL    HW233543   2.607   4.309   7.240  0.6921 -0.0410  0.1068
41205SOL     OW33544   6.680   0.436   1.197  0.4194  0.0258 -0.4184
41205SOL    HW133545   6.669   0.343   1.214  1.1080 -0.4879 -2.5451
41205SOL    HW233546   6.591   0.470   1.189  0.1152 -0.1061  1.7668
41206SOL     OW33547  12.272   5.234   7.046  0.5869 -0.2392 -0.2092
41206SOL    HW133548  12.277   5.198   6.958 -0.0988  0.2797 -0.4788
41206SOL    HW233549  12.232   5.320   7.034 -0.1446 -0.4351  0.6736
41207SOL     OW33550   9.472  10.452   1.265  0.3941  0.0253 -0.2368
41207SOL    HW133551   9.386  10.472   1.303  0.3698 -1.2791  0.4484
41207SOL    HW233552   9.466  10.484   1.175 -1.6436 -1.9722 -0.9221
41208SOL     OW33553   6.481  10.924   4.381  0.1146  0.0871  0.8272
41208SOL    HW133554   6.468  11.012   4.345 -0.3288 -0.6449 -0.9146
41208SOL    HW233555   6.576  10.912   4.380  0.1162  0.0397 -0.3081
41209SOL     OW33556   4.031  11.776   4.077  0.2860  0.1380  0.7129
41209SOL    HW133557   4.111  11.752   4.123  0.4146 -2.2764 -0.6169
41209SOL    HW233558   4.062  11.826   4.001  0.3937  0.6052  1.0623
41210SOL     OW33559   8.925   2.093  11.564  0.5578  0.1848 -0.1753
41210SOL    HW133560   8.842   2.115  11.606  0.7418 -0.3641  0.4956
41210SOL    HW233561   8.901   2.035  11.492  0.3782 -0.2017  0.1932
41211SOL     OW33562   5.287  13.154  10.181 -0.0743 -0.2587  0.1457
41211SOL    HW133563   5.366  13.203  10.205 -1.1610  1.6841 -0.0930
41211SOL    HW233564   5.272  13.096  10.256 -1.0693  2.7767  2.5187
41212SOL     OW33565  10.184   4.914   9.106  0.4519 -0.8393 -0.4900
41212SOL    HW133566  10.111   4.937   9.048  0.0797 -0.9477 -0.0692
41212SOL    HW233567  10.154   4.938   9.194  1.2753 -0.0325 -0.4090
41213SOL     OW33568   0.451  13.124   1.927 -0.0185 -0.2711  0.4862
41213SOL    HW133569   0.452  13.142   1.833 -0.9239  0.5347  0.6206
41213SOL    HW233570   0.541  13.140   1.956 -0.3800  2.5805  0.2981
41214SOL     OW33571   4.204   8.076   9.382  0.4886  0.3011 -0.1273
41214SOL    HW133572   4.276   8.013   9.384  0.1804 -0.0625 -0.4368
41214SOL    HW233573   4.232   8.142   9.318  1.2748  1.0462  0.9593
41215SOL     OW33574  12.126  11.895   1.312  0.3320  0.3372 -0.1844
41215SOL    HW133575  12.037  11.929   1.323  0.6293  0.5288  2.0317
41215SOL    HW233576  12.168  11.907   1.397  1.5340 -2.4970 -0.2403
41216SOL     OW33577   3.292   5.956   3.917 -0.1513 -0.6429  0.1402
41216SOL    HW133578   3.345   5.988   3.989 -1.7881  0.4044  0.9349
41216SOL    HW233579   3.290   6.028   3.854  0.0023 -0.9757 -0.2549
41217SOL     OW33580   0.142   9.857   3.872 -0.0619  0.3780  0.0396
41217SOL    HW133581   0.201   9.862   3.947 -0.3835 -0.8456  0.3977
41217SOL    HW233582   0.198   9.843   3.797  0.1561 -0.0508  0.2806
41218SOL     OW33583   2.795   9.468   0.561 -0.2411 -0.2929 -0.3648
41218SOL    HW133584   2.772   9.535   0.625  0.0652  0.2047 -0.7622
41218SOL    HW233585   2.771   9.506   0.476  0.5760 -0.3951 -0.6525
41219SOL     OW33586   8.602   0.573  12.036  0.0018 -0.2298 -0.2398
41219SOL    HW133587   8.631   0.495  11.990  0.6635  0.4143 -0.9524
41219SOL    HW233588   8.643   0.567  12.123  0.6646 -0.3086 -0.5552
41220SOL     OW33589   6.115   9.424  11.375  0.1629 -0.2218  0.1800
41220SOL    HW133590   6.077   9.402  11.290  1.6909  1.8831 -1.1627
41220SOL    HW233591   6.145   9.515  11.365 -0.0928  0.2966  3.1675
41221SOL     OW33592   2.979   5.021  12.331 -0.2431  0.1279 -0.4695
41221SOL    HW133593   2.981   4.926  12.322 -0.2377 -0.5141  4.1760
41221SOL    HW233594   2.898   5.047  12.287 -2.0441 -2.5240  1.0324
41222SOL     OW33595  10.645   9.088   7.639 -0.1404 -0.2420  1.0460
41222SOL    HW133596  10.567   9.121   7.594 -0.1858 -1.7550 -0.0817
41222SOL    HW233597  10.634   9.115   7.730 -1.4310  0.5282  0.6824
41223SOL     OW33598   8.140   7.364  10.271 -0.4193  0.7632 -0.0117
41223SOL    HW133599   8.172   7.449  10.240  1.0998 -0.3445 -1.6924
41223SOL    HW233600   8.069   7.342  10.210  0.2649  0.1446 -0.6131
41224SOL     OW33601  10.485  13.012   9.607  0.2735 -0.8439 -0.1509
41224SOL    HW133602  10.428  12.956   9.661 -0.2251  0.1823  0.4335
41224SOL    HW233603  10.564  13.022   9.660 -0.6353  1.0475  0.9679
41225SOL     OW33604   9.747   6.542   4.943 -0.1256  1.0626  0.0141
41225SOL    HW133605   9.704   6.578   4.865 -0.7944  1.3689  0.5226
41225SOL    HW233606   9.676   6.507   4.996  0.4881 -1.0290 -0.4525
41226SOL     OW33607   3.800   4.104  10.342 -0.2868  0.3235 -0.4070
41226SOL    HW133608   3.744   4.150  10.405 -0.5445  0.8665 -1.0136
41226SOL    HW233609   3.740   4.080  10.271  0.1584  0.5070 -0.8534
41227SOL     OW33610  10.963   7.814  12.552 -0.2642 -0.2842 -0.5035
41227SOL    HW133611  10.886   7.869  12.558  0.0726  0.4016 -1.9953
41227SOL    HW233612  11.021   7.845  12.622  0.4191  2.1385 -2.0311
41228SOL     OW33613   1.687   9.555  10.017 -0.2402 -0.4161 -0.1668
41228SOL    HW133614   1.752   9.490  10.046  1.7115  0.9843 -1.1719
41228SOL    HW233615   1.661   9.526   9.930 -1.0729 -1.0380  0.2812
41229SOL     OW33616   2.065   6.791  11.446 -0.4338  0.2208 -0.0694
41229SOL    HW133617   1.972   6.812  11.445 -0.4743  0.0949  0.6637
41229SOL    HW233618   2.069   6.697  11.426 -0.5309  0.0171  0.8439
41230SOL     OW33619   1.563  12.836   8.050 -0.1580  0.1191 -0.0180
41230SOL    HW133620   1.505  12.911   8.039  1.5528  1.4855 -0.2821
41230SOL    HW233621   1.547  12.805   8.140  0.5034  2.1046  0.8392
41231SOL     OW33622   3.297  12.670   0.196  0.2282 -0.1169 -0.0823
41231SOL    HW133623   3.376  12.622   0.169  0.5096 -0.2853  0.9913
41231SOL    HW233624   3.326  12.762   0.202  0.1737 -0.0841 -0.3250
41232SOL     OW33625   2.243  10.402  10.862  0.2258 -0.4607 -0.1182
41232SOL    HW133626   2.181  10.339  10.826 -1.1421  1.2691 -0.9067
41232SOL    HW233627   2.257  10.373  10.952  0.6429 -2.5882 -0.7985
41233SOL     OW33628   9.933  11.115  12.254  0.4903  0.2858  1.1391
41233SOL    HW133629   9.842  11.139  12.237 -0.4170 -2.1299  2.1487
41233SOL    HW233630   9.968  11.089  12.169 -0.0829  0.2222  0.9245
41234SOL     OW33631  11.552   1.938   0.188  0.1501  0.3022  0.5020
41234SOL    HW133632  11.507   2.022   0.181 -0.1642  0.0736 -0.3660
41234SOL    HW233633  11.527   1.904   0.274 -2.2004 -0.2799 -0.3366
41235SOL     OW33634  10.811   6.722   9.864 -0.2429 -0.0824  0.2829
41235SOL    HW133635  10.880   6.656   9.857 -1.2881 -1.3021  0.9294
41235SOL    HW233636  10.762   6.697   9.943 -1.0624  1.1025  0.1844
41236SOL     OW33637   3.578   4.909   0.191  0.1358 -0.4070 -0.0730
41236SOL    HW133638   3.615   4.996   0.174  0.7345 -0.6704 -0.1210
41236SOL    HW233639   3.611   4.854   0.121 -0.7334 -0.5462 -0.3847
41237SOL     OW33640   4.633   7.237   3.813  0.2198  0.6683  0.1238
41237SOL    HW133641   4.581   7.207   3.887  1.7313 -2.1320  0.2004
41237SOL    HW233642   4.571   7.244   3.740 -0.7197  0.2389  0.8682
41238SOL     OW33643   0.790   0.490   4.942  0.6245 -0.7086  0.0994
41238SOL    HW133644   0.708   0.503   4.990  3.0319  0.6541  4.3012
41238SOL    HW233645   0.806   0.396   4.946 -0.1773 -0.8530  0.1384
41239SOL     OW33646   4.284  12.171   7.467 -0.0517  0.0052 -0.3539
41239SOL    HW133647   4.293  12.208   7.555 -0.0431 -0.2286 -0.2585
41239SOL    HW233648   4.193  12.187   7.443  0.2393  1.1594 -0.7849
41240SOL     OW33649   6.370   3.211   6.529 -0.0886 -0.2103 -0.1557
41240SOL    HW133650   6.375   3.267   6.606  0.4123 -1.0134  0.4059
41240SOL    HW233651   6.282   3.174   6.531  0.3895 -1.3485  0.8454
41241SOL     OW33652   0.663  10.441   3.663 -0.1067  0.3201 -0.0161
41241SOL    HW133653   0.730  10.398   3.717 -0.3230 -1.3867 -1.0206
41241SOL    HW233654   0.661  10.531   3.694  0.0637 -0.4851  2.5141
41242SOL     OW33655   3.903   1.702   2.120 -0.0026  1.1409  0.6880
41242SOL    HW133656   3.896   1.791   2.086  0.6690  0.9818  0.1025
41242SOL    HW233657   3.961   1.657   2.059 -0.2647  0.3198  1.0208
41243SOL     OW33658   3.897   2.494  10.369 -0.1879 -0.2244 -0.1204
41243SOL    HW133659   3.892   2.455  10.457 -0.8663 -0.5364 -0.2871
41243SOL    HW233660   3.860   2.581  10.379 -1.4684 -0.7158 -0.3351
41244SOL     OW33661   7.065   6.678  10.888  0.9244 -0.0784  0.4284
41244SOL    HW133662   6.990   6.734  10.910  0.7116  0.0739 -0.6100
41244SOL    HW233663   7.033   6.589  10.901  1.0265  0.0219  1.3807
41245SOL     OW33664   1.701   3.257   9.570 -0.2076  0.1704 -0.5953
41245SOL    HW133665   1.764   3.260   9.641 -1.0831 -2.0790  0.3757
41245SOL    HW233666   1.623   3.300   9.605 -0.1767  0.3379 -0.7287
41246SOL     OW33667   3.167   4.580   7.233  0.2419 -0.0179 -0.1509
41246SOL    HW133668   3.248   4.626   7.214 -0.3560  1.9985  1.7569
41246SOL    HW233669   3.108   4.601   7.161  0.5236  0.8647 -0.1284
41247SOL     OW33670   9.123   6.670   9.923  0.4944 -0.0428 -0.0221
41247SOL    HW133671   9.092   6.761   9.925 -0.4564 -0.3496 -0.1466
41247SOL    HW233672   9.155   6.657   9.834 -0.1156 -0.0595 -0.2451
41248SOL     OW33673   0.479  12.840   1.957  0.3659 -0.4810  0.2011
41248SOL    HW133674   0.502  12.820   2.048 -0.5558  0.1864  0.5909
41248SOL    HW233675   0.464  12.934   1.956 -1.2571 -0.7133 -0.2639
41249SOL     OW33676   6.329   3.534   8.910  0.2066  0.3534  0.0326
41249SOL    HW133677   6.246   3.488   8.924 -0.3114  1.6616  1.5191
41249SOL    HW233678   6.311   3.595   8.838  0.6077 -0.9886 -1.2591
41250SOL     OW33679   8.154  12.159   4.753 -0.4092  0.5136  0.5744
41250SOL    HW133680   8.197  12.154   4.839  0.1186  0.1897  0.3004
41250SOL    HW233681   8.217  12.205   4.697 -0.2995 -0.1854  0.1041
41251SOL     OW33682  12.823   7.982   7.008  0.0296 -0.1366 -0.4922
41251SOL    HW133683  12.872   8.017   7.082 -1.6305  0.0014  0.5926
41251SOL    HW233684  12.815   7.888   7.026  2.4308 -0.7630 -2.2055
41252SOL     OW33685   2.023   8.797  10.083  0.6352  0.0437  0.5531
41252SOL    HW133686   2.063   8.872  10.126  0.7289 -0.2567  1.0037
41252SOL    HW233687   1.966   8.834  10.016 -1.2063  0.6584  2.3220
41253SOL     OW33688  11.808   9.926   5.620  0.2040 -0.1601 -0.5061
41253SOL    HW133689  11.769   9.841   5.642  0.6999 -0.1813  0.3344
41253SOL    HW233690  11.849   9.913   5.534 -0.1772 -0.6127 -0.6233
41254SOL     OW33691   3.556   5.052   4.973 -0.3361 -0.1939  0.0514
41254SOL    HW133692   3.551   5.092   5.059 -2.0800  0.4664 -0.3140
41254SOL    HW233693   3.485   5.093   4.923 -0.3507 -1.6805 -1.2213
41255SOL     OW33694  10.453   9.917   8.286 -0.6788 -0.0092  0.1121
41255SOL    HW133695  10.520   9.972   8.246  0.4780  0.1885  2.2152
41255SOL    HW233696  10.406   9.879   8.212  1.8970 -0.3461 -1.4306
41256SOL     OW33697   4.534  12.201   4.143  0.8581  0.2157  0.4234
41256SOL    HW133698   4.505  12.111   4.155 -0.4543  0.3826 -1.0829
41256SOL    HW233699   4.480  12.234   4.070 -0.0853  2.8181  2.1522
41257SOL     OW33700   5.713  11.353  11.888 -0.4937  0.3712 -0.3497
41257SOL    HW133701   5.647  11.417  11.914 -1.5151 -0.0206 -1.8496
41257SOL    HW233702   5.668  11.297  11.825  1.2595  0.0511 -1.3759
41258SOL     OW33703   0.712   7.453   5.966 -0.2540 -0.4602 -0.2782
41258SOL    HW133704   0.650   7.424   5.899  1.3504 -2.8940 -0.8284
41258SOL    HW233705   0.760   7.525   5.924 -1.4999  0.3091 -0.4538
41259SOL     OW33706   5.163   0.228  12.964 -0.2158  0.4926  0.5447
41259SOL    HW133707   5.094   0.248  13.027  1.1611  3.4819  1.2872
41259SOL    HW233708   5.125   0.251  12.879 -1.5361 -2.0797  0.3332
41260SOL     OW33709   2.371   8.491  10.599 -0.6081 -0.2812  0.1773
41260SOL    HW133710   2.318   8.430  10.651 -0.4819  0.0983  0.7541
41260SOL    HW233711   2.457   8.489  10.641 -0.6480  0.4170  0.2882
41261SOL     OW33712   7.627  12.026  11.364  0.0980 -0.1222  0.2141
41261SOL    HW133713   7.611  12.110  11.408 -0.4878 -0.0490 -0.1281
41261SOL    HW233714   7.719  12.030  11.338 -0.0314  0.5971 -0.1691
41262SOL     OW33715   7.114   4.160   2.331  0.0351  0.7800  0.4032
41262SOL    HW133716   7.202   4.181   2.364 -0.5928  1.8063  1.4580
41262SOL    HW233717   7.094   4.230   2.269  1.2640 -1.1957 -2.5101
41263SOL     OW33718  11.076   6.966  10.337 -0.0752 -0.0350 -0.4280
41263SOL    HW133719  11.136   7.015  10.281 -0.2260 -0.6044 -1.0968
41263SOL    HW233720  11.117   6.969  10.424  0.7407 -0.1132 -0.8006
41264SOL     OW33721  10.096   2.781  12.589 -0.2026  0.2434  0.1927
41264SOL    HW133722  10.093   2.815  12.678  2.0500 -0.7105  0.7143
41264SOL    HW233723  10.162   2.711  12.592 -1.5116 -1.2035 -1.7686
41265SOL     OW33724   4.993   4.544   0.900  0.2755 -0.1686  0.2381
41265SOL    HW133725   4.947   4.480   0.846  0.4743  0.4359 -0.6829
41265SOL    HW233726   5.085   4.538   0.873  0.8789 -1.6674  2.3605
41266SOL     OW33727   9.798   4.265   2.685  0.3112  0.4813  0.7400
41266SOL    HW133728   9.766   4.316   2.611 -0.0903 -1.0610 -0.1874
41266SOL    HW233729   9.719   4.231   2.727  0.5986 -0.3446  0.6313
41267SOL     OW33730   4.696   0.771   0.686  0.0071 -0.0968  0.2589
41267SOL    HW133731   4.781   0.807   0.709 -0.6907  1.1000  1.1020
41267SOL    HW233732   4.696   0.770   0.590  0.0572  2.3057  0.1537
41268SOL     OW33733  11.916   7.735   1.094 -0.1689  0.0868  0.0826
41268SOL    HW133734  11.878   7.753   1.180  1.2992  0.6305  0.6444
41268SOL    HW233735  12.001   7.778   1.096 -0.4773  0.8775 -1.9897
41269SOL     OW33736   8.949   2.934   0.334 -0.7569  0.0293  0.0807
41269SOL    HW133737   8.867   2.981   0.345 -1.6748 -1.2650 -0.8611
41269SOL    HW233738   8.957   2.920   0.240  0.3485 -0.1997  0.1909
41270SOL     OW33739   2.307   5.716   6.606  0.0169 -0.9569  0.0074
41270SOL    HW133740   2.269   5.686   6.524 -0.9775 -0.5694  0.3129
41270SOL    HW233741   2.392   5.673   6.610 -0.0183 -1.1664 -1.1060
41271SOL     OW33742  11.597  13.178   3.260 -0.0389  0.0992  0.0861
41271SOL    HW133743  11.635  13.131   3.185  0.3627  1.0279 -0.3082
41271SOL    HW233744  11.672  13.220   3.302 -0.2969 -0.2360  0.8969
41272SOL     OW33745  11.049   3.440   8.498  0.3294 -0.0332 -0.0743
41272SOL    HW133746  11.059   3.515   8.556  1.5187 -1.3615  1.5485
41272SOL    HW233747  11.067   3.364   8.554  0.3361 -1.4578 -1.9108
41273SOL     OW33748  12.977   9.131  12.676  0.5599  0.2156 -0.5809
41273SOL    HW133749  13.025   9.112  12.595  0.3338  0.7559 -0.8454
41273SOL    HW233750  12.928   9.211  12.657  0.4641  0.3185  0.0737
41274SOL     OW33751   6.960   4.833   3.476 -0.3413  0.3924  0.4716
41274SOL    HW133752   6.932   4.764   3.416  0.7700  0.1476  0.2194
41274SOL    HW233753   6.881   4.885   3.490 -1.7142 -1.9397  2.1286
41275SOL     OW33754  10.330   8.002  10.770  0.1205 -0.3758  0.7806
41275SOL    HW133755  10.262   8.039  10.714 -0.2467  0.5290  1.8077
41275SOL    HW233756  10.312   8.036  10.857  1.2811 -0.9569  1.2756
41276SOL     OW33757  11.191  11.567  11.395  0.2153  0.3025 -0.0923
41276SOL    HW133758  11.232  11.647  11.364 -2.5774  2.0736  0.4802
41276SOL    HW233759  11.187  11.510  11.318  0.8402  1.2914 -0.8781
41277SOL     OW33760   3.890   3.423   0.998  0.1687  0.5052 -0.0577
41277SOL    HW133761   3.979   3.445   0.971  0.1994  0.3400 -0.0904
41277SOL    HW233762   3.853   3.506   1.027  0.0710  0.7243 -0.7932
41278SOL     OW33763   9.812   9.844   8.174  0.2356  0.2555 -0.1339
41278SOL    HW133764   9.821   9.757   8.134  1.0881  1.0654 -1.7848
41278SOL    HW233765   9.882   9.847   8.240 -1.0299 -0.9985  1.3502
41279SOL     OW33766  12.058   3.151  11.196  0.3486  0.2886  0.4723
41279SOL    HW133767  12.069   3.155  11.291  0.2497 -1.4088  0.5759
41279SOL    HW233768  12.043   3.059  11.176 -0.9335  0.7773 -1.0711
41280SOL     OW33769   1.681   3.823   1.221 -0.0694  0.1185 -0.2199
41280SOL    HW133770   1.691   3.756   1.288 -2.1335 -0.1074 -0.0760
41280SOL    HW233771   1.766   3.865   1.216  1.4421 -2.7681 -0.6001
41281SOL     OW33772   0.983   3.785   1.565 -0.4841  0.6661  0.1483
41281SOL    HW133773   1.026   3.870   1.570  2.5024 -0.7712  0.5964
41281SOL    HW233774   0.965   3.761   1.656  2.3071 -0.7997  0.4195
41282SOL     OW33775   1.036   5.304   3.886 -0.2902 -0.4463  0.2455
41282SOL    HW133776   1.060   5.385   3.840 -0.5734 -1.3984 -1.6593
41282SOL    HW233777   1.099   5.298   3.957 -0.6329  1.7596  0.8347
41283SOL     OW33778   2.676  11.962   2.492 -0.4282 -0.4896 -0.9023
41283SOL    HW133779   2.683  12.056   2.510  1.4296 -0.4563 -1.6107
41283SOL    HW233780   2.729  11.920   2.559 -2.3476 -1.1815  0.2508
41284SOL     OW33781   5.165   4.214  10.787 -0.5730  0.1180 -0.1421
41284SOL    HW133782   5.118   4.132  10.772 -0.3422  0.1110 -0.8671
41284SOL    HW233783   5.229   4.194  10.855 -1.1825 -0.0403  0.3914
41285SOL     OW33784   1.050   1.076   1.638  1.0011  0.1811  0.9777
41285SOL    HW133785   1.126   1.020   1.624  0.9194 -0.5818  3.1484
41285SOL    HW233786   1.082   1.146   1.694  0.2746  0.2351  1.3395
41286SOL     OW33787   9.523   7.607   2.625  0.9046  0.4297  0.4120
41286SOL    HW133788   9.578   7.629   2.550  1.7350 -3.7969 -0.4897
41286SOL    HW233789   9.439   7.582   2.587  1.1795 -1.2829  0.8327
41287SOL     OW33790   1.994   6.790   9.291 -0.1912  0.6195  0.2529
41287SOL    HW133791   1.996   6.781   9.387 -0.0002 -0.1990  0.1858
41287SOL    HW233792   1.905   6.819   9.271  0.7691  4.4883  0.9263
41288SOL     OW33793   1.641  13.156   9.564 -0.4637  0.3991  0.5132
41288SOL    HW133794   1.651  13.184   9.655  0.1118  3.0672 -0.2991
41288SOL    HW233795   1.730  13.138   9.534 -0.7616 -2.1242  0.8431
41289SOL     OW33796  12.787  10.751  10.449  0.2278  0.6117  0.2176
41289SOL    HW133797  12.860  10.707  10.494 -0.2843 -0.3929  0.0993
41289SOL    HW233798  12.732  10.679  10.417 -0.5882  1.3519 -0.0763
41290SOL     OW33799   3.787   8.403   5.631  0.0421 -0.0082  0.1655
41290SOL    HW133800   3.777   8.497   5.648  0.2755 -0.0965  0.8064
41290SOL    HW233801   3.701   8.366   5.654  0.1014 -0.0175  0.3708
41291SOL     OW33802   7.736   3.696  11.249 -0.0754  0.3454 -0.6064
41291SOL    HW133803   7.829   3.683  11.266 -0.5202 -1.1199  1.0266
41291SOL    HW233804   7.728   3.693  11.154  1.2627 -1.9830 -0.7158
41292SOL     OW33805   1.076   8.870   8.069  0.3655  0.5273  0.7279
41292SOL    HW133806   1.060   8.850   8.161  2.0090 -2.2206  0.5239
41292SOL    HW233807   1.003   8.829   8.023  0.9879 -0.5019  0.6463
41293SOL     OW33808  11.509   0.939   1.353 -0.0808 -0.0529 -0.0434
41293SOL    HW133809  11.426   0.922   1.395  1.1175 -2.0448  1.6745
41293SOL    HW233810  11.488   0.999   1.281 -2.7907  0.2891  0.9446
41294SOL     OW33811   3.661   1.108   7.756  0.1833  0.5453 -0.0373
41294SOL    HW133812   3.649   1.083   7.847  0.4389  0.9919  0.1205
41294SOL    HW233813   3.669   1.025   7.709  2.1764  0.3033  0.6322
41295SOL     OW33814  12.123  12.372  10.850 -0.3068  0.5039  0.5252
41295SOL    HW133815  12.071  12.390  10.929  2.6202 -0.5393  2.8728
41295SOL    HW233816  12.090  12.288  10.818 -3.1189  2.0060 -0.9304
41296SOL     OW33817   9.784   9.927   9.643  0.2327 -0.5133 -0.4812
41296SOL    HW133818   9.837   9.854   9.612  2.0795  0.6008 -0.1318
41296SOL    HW233819   9.841   9.973   9.705 -0.9023  1.1624 -0.6210
41297SOL     OW33820   1.249   8.241   6.227 -0.1122 -0.1587 -0.3547
41297SOL    HW133821   1.338   8.277   6.228  0.1251 -0.7294  0.3561
41297SOL    HW233822   1.192   8.317   6.215  0.4336  0.3005 -0.0811
41298SOL     OW33823   2.444  11.651   6.664 -0.0350 -0.0451  0.1282
41298SOL    HW133824   2.437  11.740   6.698 -1.0525 -0.5096  1.2002
41298SOL    HW233825   2.507  11.609   6.723 -2.2640 -1.0298  1.9479
41299SOL     OW33826   6.256   8.925   6.870 -0.1067  0.1271 -0.4887
41299SOL    HW133827   6.263   8.847   6.925  0.3653 -1.2361 -2.3812
41299SOL    HW233828   6.165   8.952   6.877 -0.0371  0.0506  1.0002
41300SOL     OW33829   7.410   7.781   4.828 -0.3381 -0.6686  0.0317
41300SOL    HW133830   7.327   7.822   4.805 -0.4426 -0.8510  0.0760
41300SOL    HW233831   7.470   7.805   4.758 -0.2428  0.0259  0.3417
41301SOL     OW33832   3.767   0.307   2.209 -0.1429  0.4485  0.3093
41301SOL    HW133833   3.844   0.252   2.198 -1.6227 -1.9194  1.0260
41301SOL    HW233834   3.724   0.306   2.124  0.1910  1.1524  0.1208
41302SOL     OW33835   2.795   5.961  10.242  0.1644  0.2067 -0.4233
41302SOL    HW133836   2.754   6.044  10.220 -1.3226  1.0052  4.1665
41302SOL    HW233837   2.812   5.919  10.158 -0.9062  4.1933 -2.9002
41303SOL     OW33838   0.300  10.305   6.494 -0.4952 -0.3051 -0.3976
41303SOL    HW133839   0.280  10.361   6.419 -0.3539  0.2628 -0.0165
41303SOL    HW233840   0.331  10.365   6.562 -0.2994 -0.8495  0.0050
41304SOL     OW33841  13.167   3.233   9.879  0.3447  0.3183 -0.1664
41304SOL    HW133842  13.157   3.139   9.861  1.0548  0.1759  0.1573
41304SOL    HW233843  13.118   3.275   9.808 -0.0627 -0.2944 -0.2640
41305SOL     OW33844   9.743   9.175  11.623 -0.5091 -0.5344  0.2686
41305SOL    HW133845   9.834   9.200  11.604 -0.3603  0.7438  2.3248
41305SOL    HW233846   9.690   9.240  11.576 -0.4934 -2.0043 -1.9541
41306SOL     OW33847   4.323   5.840   9.389 -0.1033 -0.2218  0.5817
41306SOL    HW133848   4.397   5.782   9.367 -0.0768  0.6739 -2.1106
41306SOL    HW233849   4.247   5.781   9.391  0.0867 -0.5851 -1.0353
41307SOL     OW33850  10.760   3.604   5.013  0.1915 -0.0986 -0.4551
41307SOL    HW133851  10.695   3.603   4.943 -0.2515 -0.5399 -0.0453
41307SOL    HW233852  10.815   3.527   4.997 -0.0405 -0.3207 -0.2041
41308SOL     OW33853  10.392  11.500   1.743 -0.0650  0.2511 -0.4877
41308SOL    HW133854  10.376  11.571   1.681  1.0862  0.9276 -0.0320
41308SOL    HW233855  10.455  11.536   1.806  0.1390 -0.9999  0.0578
41309SOL     OW33856   9.427   0.475  10.049 -0.2503 -0.3147 -0.0358
41309SOL    HW133857   9.474   0.440   9.973 -4.1526 -1.6780 -2.0809
41309SOL    HW233858   9.408   0.398  10.103 -1.2002  0.0016  0.0890
41310SOL     OW33859   8.784   9.697   3.011  0.7345  0.5640 -0.4005
41310SOL    HW133860   8.719   9.629   2.997  0.7680  0.5216 -0.3499
41310SOL    HW233861   8.845   9.659   3.074  0.3764  0.8952  0.1534
41311SOL     OW33862   4.739   3.713   8.476  0.5893  0.0813 -0.3636
41311SOL    HW133863   4.728   3.714   8.381  3.3392 -0.0737 -0.7656
41311SOL    HW233864   4.723   3.622   8.501 -0.0566  0.1043 -0.6660
41312SOL     OW33865   1.951   9.730   3.382  0.4220 -0.0613  0.1020
41312SOL    HW133866   2.025   9.766   3.334 -0.9717  1.4777 -0.9927
41312SOL    HW233867   1.900   9.683   3.317 -0.6726  0.7321  0.3468
41313SOL     OW33868  12.978   2.061   2.788  0.2316 -0.1286 -0.3989
41313SOL    HW133869  12.975   2.126   2.857  0.3941  0.2982 -0.7854
41313SOL    HW233870  13.070   2.053   2.766  0.2211 -0.5532 -0.2960
41314SOL     OW33871   9.518   8.005   4.459  0.1031 -0.3915  0.0567
41314SOL    HW133872   9.428   8.011   4.490  0.1804  2.5158 -0.0488
41314SOL    HW233873   9.511   7.965   4.372 -0.9996 -0.6388  0.2533
41315SOL     OW33874   0.298  10.476   4.246 -0.6797 -0.0405 -0.1109
41315SOL    HW133875   0.258  10.472   4.159  0.6539 -0.4760 -0.7251
41315SOL    HW233876   0.249  10.544   4.292 -1.4829  0.1028 -1.1529
41316SOL     OW33877   5.136   6.110  12.522  0.5859  0.3276  0.0902
41316SOL    HW133878   5.143   6.035  12.464  0.7269  1.2329 -1.1041
41316SOL    HW233879   5.202   6.094  12.590  3.7450  1.3137 -2.4667
41317SOL     OW33880   7.583  12.790  12.007  0.0879 -0.0840  0.1346
41317SOL    HW133881   7.542  12.707  11.982  1.0494 -0.6726  0.4728
41317SOL    HW233882   7.538  12.814  12.088  0.5154 -0.8160  0.6015
41318SOL     OW33883   2.689   1.615   7.411  0.4833 -0.2347 -0.2259
41318SOL    HW133884   2.610   1.579   7.452  0.3470 -1.4003 -1.4638
41318SOL    HW233885   2.683   1.709   7.427 -0.4251 -0.4615  0.9322
41319SOL     OW33886   0.230   3.843   2.847 -0.2506  0.0168 -0.7006
41319SOL    HW133887   0.150   3.887   2.817 -0.7089 -0.1573  0.2309
41319SOL    HW233888   0.299   3.878   2.791 -0.6878  1.5102 -0.3484
41320SOL     OW33889   0.847  12.461   9.282 -0.3567  0.6221 -0.1206
41320SOL    HW133890   0.838  12.539   9.226 -1.2434  1.1983  0.7882
41320SOL    HW233891   0.926  12.476   9.333 -0.0167  0.4850 -0.5924
41321SOL     OW33892   0.252   4.340   2.374  0.5220  0.4475  1.0277
41321SOL    HW133893   0.214   4.278   2.436 -0.3826  0.3591  0.4074
41321SOL    HW233894   0.195   4.417   2.379 -0.7742 -0.2844 -1.0679
41322SOL     OW33895  12.569   1.803   6.249 -0.4359  0.1924  0.8057
41322SOL    HW133896  12.512   1.809   6.172 -1.2641 -1.6015  1.2302
41322SOL    HW233897  12.611   1.717   6.241  2.5028  1.5487  0.3714
41323SOL     OW33898  11.811   2.135   6.725  0.0589 -0.3120 -0.2232
41323SOL    HW133899  11.779   2.111   6.637  1.7299  1.1553 -1.3082
41323SOL    HW233900  11.798   2.230   6.730  2.9689  0.1822 -0.2690
41324SOL     OW33901   2.297   3.548  10.020 -0.0676 -0.2037 -0.3636
41324SOL    HW133902   2.256   3.472  10.060 -0.3113 -0.2949 -0.7800
41324SOL    HW233903   2.352   3.585  10.089  0.5476 -1.1176 -0.3386
41325SOL     OW33904  11.062   4.776   0.516  1.0226  0.2753 -0.1760
41325SOL    HW133905  11.029   4.709   0.456  0.9097 -0.6123  0.8443
41325SOL    HW233906  10.991   4.840   0.522 -0.4043 -1.3172  1.5491
41326SOL     OW33907   2.106   6.388   8.711  0.4280 -0.3503  0.5780
41326SOL    HW133908   2.142   6.319   8.656  1.4358  0.5398  0.0636
41326SOL    HW233909   2.143   6.469   8.674 -0.6615  0.4564  1.1947
41327SOL     OW33910   7.845   3.465  13.148  0.5848 -0.5219  0.8166
41327SOL    HW133911   7.928   3.431  13.113 -0.9934 -3.7676 -0.2227
41327SOL    HW233912   7.842   3.431  13.238  1.9521  2.7801  2.2390
41328SOL     OW33913   9.198   2.894  12.385  0.2647 -0.3673 -0.0741
41328SOL    HW133914   9.149   2.893  12.467  1.3128 -0.8366  0.5754
41328SOL    HW233915   9.286   2.922  12.411  0.4176  0.1816 -1.1617
41329SOL     OW33916  11.148   9.933   6.421 -0.2872 -0.0255 -0.3348
41329SOL    HW133917  11.112  10.006   6.371 -0.7583  0.4051  0.6065
41329SOL    HW233918  11.187   9.876   6.355 -0.8537  0.5434 -1.1879
41330SOL     OW33919   6.670  13.004   0.030  0.1118 -0.8794 -0.0984
41330SOL    HW133920   6.623  13.023  -0.051 -1.0374 -1.7221  0.3532
41330SOL    HW233921   6.681  12.909   0.030  2.2887 -0.6777 -0.4279
41331SOL     OW33922   4.858   1.939  11.271  0.1922  0.3202  0.4247
41331SOL    HW133923   4.823   1.942  11.182 -1.0561 -1.8033  0.7626
41331SOL    HW233924   4.781   1.932  11.327  1.0060 -0.0223  1.5437
41332SOL     OW33925  11.334   4.389   6.358 -0.0540 -0.1461 -0.6188
41332SOL    HW133926  11.304   4.321   6.298 -0.7943 -1.6851  1.3774
41332SOL    HW233927  11.426   4.369   6.373 -0.6571 -1.8570  1.2660
41333SOL     OW33928   0.894   5.880  12.295  0.0315  0.5747 -0.2268
41333SOL    HW133929   0.856   5.868  12.381  0.1509 -0.4632 -0.3018
41333SOL    HW233930   0.957   5.808  12.286  0.2677  0.8646 -1.0435
41334SOL     OW33931   7.948   5.401  12.265  0.4663  0.4625  0.1648
41334SOL    HW133932   7.895   5.321  12.267  0.2961  0.5473 -0.4740
41334SOL    HW233933   7.976   5.414  12.355  1.3183 -0.8616  0.1146
41335SOL     OW33934   0.455  10.647  12.683 -0.1598  0.2467 -0.4367
41335SOL    HW133935   0.443  10.557  12.712  0.3215 -0.1521 -1.4014
41335SOL    HW233936   0.467  10.640  12.588  1.3437  1.1621 -0.3570
41336SOL     OW33937   4.343   9.052  10.733  0.1167 -0.0807  0.4283
41336SOL    HW133938   4.407   9.118  10.758  0.4801 -0.6049  0.8806
41336SOL    HW233939   4.338   9.059  10.638 -0.7420  1.4257  0.5404
41337SOL     OW33940   1.055   3.593   9.180 -0.0427  0.0763 -0.6299
41337SOL    HW133941   1.025   3.683   9.191 -1.1220 -0.3388 -0.0493
41337SOL    HW233942   1.013   3.544   9.251  0.0777 -0.9940 -1.2707
41338SOL     OW33943   2.312  11.859   5.965  0.6147 -0.2231  0.1732
41338SOL    HW133944   2.373  11.930   5.942 -0.3120  1.1020  1.5957
41338SOL    HW233945   2.333  11.789   5.904  1.3791  1.3751 -1.5050
41339SOL     OW33946   3.297   9.504   7.685  0.2764 -0.2413  0.0563
41339SOL    HW133947   3.293   9.409   7.697 -1.6057 -0.5943 -2.5571
41339SOL    HW233948   3.285   9.518   7.591 -0.7036  2.6327  0.4858
41340SOL     OW33949  12.096   5.024   5.359 -0.4001 -0.1333 -0.0711
41340SOL    HW133950  12.068   5.108   5.323  0.3383 -0.7858 -2.3526
41340SOL    HW233951  12.021   4.965   5.346  0.0865 -0.5319 -1.2393
41341SOL     OW33952   4.209   8.102   3.295  0.8464 -0.4329  0.1758
41341SOL    HW133953   4.179   8.125   3.208  1.4302 -0.1857  0.0381
41341SOL    HW233954   4.194   8.180   3.348 -2.3348 -1.4857  1.0693
41342SOL     OW33955   3.808   4.701   9.431  0.4109  0.2834 -0.6008
41342SOL    HW133956   3.788   4.609   9.411  2.2841 -0.3214  0.0968
41342SOL    HW233957   3.902   4.708   9.420  1.0099  1.0026  3.4523
41343SOL     OW33958   3.791   5.347   9.849  0.2218  0.1606 -0.2663
41343SOL    HW133959   3.794   5.356   9.754  1.5804 -0.2552 -0.2819
41343SOL    HW233960   3.734   5.272   9.865  1.5689 -1.0299 -0.8662
41344SOL     OW33961  12.252   7.927   3.686  0.1483 -0.6786 -0.0723
41344SOL    HW133962  12.283   7.943   3.775 -0.3121 -1.0115  0.1459
41344SOL    HW233963  12.187   7.858   3.694  0.1678 -0.7748 -0.6802
41345SOL     OW33964   6.809  11.109  12.150  0.6477 -0.1030  0.0984
41345SOL    HW133965   6.751  11.183  12.170  0.1005  0.0138 -1.7355
41345SOL    HW233966   6.812  11.059  12.232 -1.7149  0.1168  0.4077
41346SOL     OW33967   3.234  11.119   1.389 -0.0437 -0.3641 -0.1317
41346SOL    HW133968   3.261  11.176   1.461 -0.5498 -0.3488  0.0484
41346SOL    HW233969   3.314  11.072   1.365  0.8388  1.6832 -1.4706
41347SOL     OW33970   7.130   7.369   8.488 -0.3653  0.3307  0.1155
41347SOL    HW133971   7.211   7.326   8.516 -0.4095  1.2366  1.7131
41347SOL    HW233972   7.113   7.332   8.401  1.6409 -0.0297 -0.1837
41348SOL     OW33973   9.811  10.669   9.243  0.0742  0.0139  0.1129
41348SOL    HW133974   9.862  10.679   9.323 -0.4139 -0.2027  0.4538
41348SOL    HW233975   9.720  10.664   9.272 -0.1289  0.1742 -0.4709
41349SOL     OW33976  10.979   1.774   2.911 -0.2309  0.0381 -0.1809
41349SOL    HW133977  11.019   1.719   2.845  0.5718  1.2444 -0.7410
41349SOL    HW233978  10.975   1.719   2.990  1.2748 -0.5623 -0.4971
41350SOL     OW33979   4.803   2.983   5.750  0.0816 -0.0632 -0.1155
41350SOL    HW133980   4.844   2.957   5.668 -0.2711 -0.8817 -0.0369
41350SOL    HW233981   4.833   3.073   5.764  0.6913 -0.1546 -0.7864
41351SOL     OW33982  12.442   7.700   3.388 -0.0371  0.1719  0.0418
41351SOL    HW133983  12.467   7.744   3.306  0.9481  1.0297  0.7797
41351SOL    HW233984  12.498   7.622   3.390  0.8140  0.7776  0.4635
41352SOL     OW33985   0.923   9.070   0.446 -0.4595  0.2942 -0.6650
41352SOL    HW133986   0.947   9.149   0.495  0.7064 -0.6452  0.3656
41352SOL    HW233987   0.828   9.069   0.446 -0.5061  1.9811 -1.1932
41353SOL     OW33988   8.583   7.511   5.638  1.0822  0.1388 -0.0677
41353SOL    HW133989   8.603   7.418   5.625  0.6777  0.2454 -1.6179
41353SOL    HW233990   8.544   7.514   5.726  1.5798 -1.0653  0.2225
41354SOL     OW33991   0.190   2.404   5.644 -0.8181 -0.5388 -0.2141
41354SOL    HW133992   0.143   2.390   5.727 -0.0822  0.4889  0.4129
41354SOL    HW233993   0.191   2.319   5.602 -1.6852 -0.9668  0.5897
41355SOL     OW33994  12.542   8.905   1.865  0.0035  0.2383  0.0874
41355SOL    HW133995  12.588   8.928   1.946  1.4493 -3.2260  0.4348
41355SOL    HW233996  12.495   8.824   1.886  0.1360 -0.5738 -2.3887
41356SOL     OW33997   5.683   8.226  12.944  0.3077  0.0243 -1.1276
41356SOL    HW133998   5.763   8.173  12.935  1.5851  1.4866  0.8252
41356SOL    HW233999   5.714   8.316  12.940 -0.9894  0.6410  1.0910
41357SOL     OW34000   9.223   9.509   9.546  0.5533 -0.0238  0.0021
41357SOL    HW134001   9.164   9.436   9.565  0.8981  0.0752  1.5979
41357SOL    HW234002   9.235   9.553   9.630  1.7567  0.8171 -0.5759
41358SOL     OW34003  11.942   4.762  11.332 -0.0697 -0.1614 -0.6840
41358SOL    HW134004  11.870   4.740  11.272  0.1269 -0.1164 -0.9407
41358SOL    HW234005  11.943   4.857  11.335 -0.4771 -0.1747 -0.1172
41359SOL     OW34006   4.025   1.769   7.894 -0.0104 -0.1975 -0.0092
41359SOL    HW134007   4.118   1.753   7.881  0.3505  2.1345 -0.7040
41359SOL    HW234008   3.983   1.727   7.819  0.7865  1.2245 -1.2950
41360SOL     OW34009   9.783   9.267   7.434 -0.0851  0.4291  0.4076
41360SOL    HW134010   9.865   9.219   7.423 -0.1428  0.3697  0.2326
41360SOL    HW234011   9.796   9.319   7.514 -0.5293 -0.9070  1.3750
41361SOL     OW34012   9.688   7.032   7.186  0.0227  0.4395  0.2782
41361SOL    HW134013   9.767   7.042   7.134  0.8439 -0.9241  1.1901
41361SOL    HW234014   9.658   6.943   7.168  0.2915 -0.0500  2.0181
41362SOL     OW34015  11.589   5.952  10.175 -0.4823  0.3618 -0.2614
41362SOL    HW134016  11.505   5.974  10.135 -0.3194  0.5903 -0.4801
41362SOL    HW234017  11.600   6.015  10.246 -0.4885  0.3438 -0.2448
41363SOL     OW34018  10.810   6.240  12.405  0.4298 -0.1502 -0.1678
41363SOL    HW134019  10.778   6.330  12.396 -0.2182 -0.5742 -2.7726
41363SOL    HW234020  10.783   6.214  12.493  0.6490  2.1739  0.6620
41364SOL     OW34021  12.986   9.565   6.320 -0.2527  0.4597 -0.2005
41364SOL    HW134022  13.031   9.502   6.264  0.0023 -0.0448  0.5518
41364SOL    HW234023  13.032   9.648   6.307 -0.8157  0.5832 -1.4747
41365SOL     OW34024   4.011   1.696   1.853  0.2285 -0.1293 -0.5174
41365SOL    HW134025   4.040   1.785   1.835  2.4558 -1.0244 -1.7325
41365SOL    HW234026   3.942   1.680   1.788  0.3090  0.4752 -0.7545
41366SOL     OW34027   0.072   5.232   6.899  0.5560 -0.1946  0.0526
41366SOL    HW134028   0.164   5.258   6.898  0.1067  1.5873 -1.2640
41366SOL    HW234029   0.055   5.205   6.989  2.1408  0.3261  0.5265
41367SOL     OW34030  12.315   7.181   9.444  0.2795 -0.3364 -0.2566
41367SOL    HW134031  12.255   7.115   9.479 -2.1289  1.5488 -0.6195
41367SOL    HW234032  12.314   7.252   9.508  2.4661 -0.3612 -0.1014
41368SOL     OW34033   0.104  11.818   0.894  0.8032 -0.7811  0.5445
41368SOL    HW134034   0.055  11.880   0.947  1.7634 -0.3925  0.9950
41368SOL    HW234035   0.049  11.740   0.891 -1.2856  0.6692 -1.5592
41369SOL     OW34036   0.761  10.953  10.494  0.3027 -0.2072 -0.5575
41369SOL    HW134037   0.724  11.042  10.500  1.1185  0.1247 -0.4262
41369SOL    HW234038   0.689  10.896  10.521 -0.3360  0.3878 -0.9587
41370SOL     OW34039   3.157   8.569   4.098 -0.0430  0.3523 -0.2653
41370SOL    HW134040   3.239   8.551   4.052  0.5251  2.3795 -0.1645
41370SOL    HW234041   3.180   8.559   4.191 -0.1641 -0.0451 -0.2804
41371SOL     OW34042   7.781   7.543   5.304 -1.0142  0.4630 -0.4094
41371SOL    HW134043   7.835   7.467   5.324 -0.3888  0.6209 -1.4641
41371SOL    HW234044   7.786   7.597   5.383 -0.9037 -0.2490  0.0838
41372SOL     OW34045   5.828   9.440   1.382 -0.1084  0.7751  0.6086
41372SOL    HW134046   5.781   9.507   1.432  0.2386  1.5795 -0.1179
41372SOL    HW234047   5.904   9.419   1.436 -1.1332 -0.3374  1.6668
41373SOL     OW34048  11.146   6.324   0.907  0.7733 -0.2224  0.0370
41373SOL    HW134049  11.238   6.298   0.913  0.7409 -0.6236 -1.0055
41373SOL    HW234050  11.128   6.326   0.813 -0.2357  0.0175  0.2294
41374SOL     OW34051  10.277   4.163  10.665 -0.1264 -0.1751 -0.3035
41374SOL    HW134052  10.366   4.136  10.687 -0.0230  0.8539  0.6487
41374SOL    HW234053  10.251   4.221  10.737 -0.3103  2.2864 -2.1946
41375SOL     OW34054  10.206  11.316  10.369  0.0500  0.2253 -0.3932
41375SOL    HW134055  10.135  11.379  10.359 -0.6560 -0.1021  2.0300
41375SOL    HW234056  10.285  11.367  10.354 -0.5513  1.4995  0.5695
41376SOL     OW34057  10.534   7.151   0.140 -0.0949  0.2955  0.2153
41376SOL    HW134058  10.536   7.168   0.045 -2.0471 -1.4017 -0.1976
41376SOL    HW234059  10.556   7.059   0.148 -0.5314  0.2809  1.3674
41377SOL     OW34060   2.219   3.394   0.942  0.1559  0.4963 -0.8383
41377SOL    HW134061   2.277   3.353   1.007  1.7326  1.2776 -1.6877
41377SOL    HW234062   2.144   3.335   0.936  0.0408  0.2925  1.5141
41378SOL     OW34063   2.428  11.838   2.494  0.6246 -0.4310  0.0212
41378SOL    HW134064   2.517  11.849   2.529  0.8595 -1.2124 -0.3147
41378SOL    HW234065   2.431  11.876   2.406  0.2730  0.7024  0.4698
41379SOL     OW34066   3.594   4.998  11.244 -0.2772  0.4566 -0.2376
41379SOL    HW134067   3.502   4.984  11.267 -0.0161  0.3324  0.8070
41379SOL    HW234068   3.592   5.053  11.166 -1.2549 -0.6030 -0.9846
41380SOL     OW34069  12.465   9.607   2.029  0.6838 -0.1584  0.2833
41380SOL    HW134070  12.404   9.544   1.992  1.6314 -0.2497 -1.2080
41380SOL    HW234071  12.511   9.559   2.099 -0.3007 -0.3465  0.8121
41381SOL     OW34072   2.548   3.841  10.769 -0.5446 -0.0032 -0.0694
41381SOL    HW134073   2.626   3.837  10.712  0.8773  2.7867  1.4710
41381SOL    HW234074   2.485   3.893  10.719 -0.7418 -0.7414 -0.5974
41382SOL     OW34075   0.520   7.274  10.120  0.1557 -0.4413  0.4749
41382SOL    HW134076   0.515   7.209  10.050  0.5318 -0.3241  0.3332
41382SOL    HW234077   0.596   7.328  10.097  0.0849 -0.1988  0.7994
41383SOL     OW34078   4.599   4.160  11.525 -0.1710  0.1892  0.7369
41383SOL    HW134079   4.651   4.234  11.494 -1.0511  0.9478  1.0052
41383SOL    HW234080   4.558   4.125  11.446  1.0501 -0.6937  0.4577
41384SOL     OW34081  12.785   7.202   2.905 -0.3474 -0.0629  0.8894
41384SOL    HW134082  12.707   7.188   2.959 -0.9085 -0.4419  0.0003
41384SOL    HW234083  12.858   7.192   2.966 -0.9592 -0.5534  1.5635
41385SOL     OW34084   0.918   5.122   3.354  0.4321  0.6413  1.0828
41385SOL    HW134085   0.986   5.188   3.338 -0.3018  1.0328 -0.5478
41385SOL    HW234086   0.871   5.155   3.431  0.5707  1.6049  0.7705
41386SOL     OW34087   5.127   7.688   6.854  0.3391 -0.1096  0.2324
41386SOL    HW134088   5.077   7.754   6.806  1.7970  0.0226 -1.1875
41386SOL    HW234089   5.076   7.608   6.843 -1.3244  0.6665  1.7658
41387SOL     OW34090   0.867   4.602  11.538  0.3636  0.2616  0.6074
41387SOL    HW134091   0.940   4.632  11.482 -0.7792  0.2726 -0.9469
41387SOL    HW234092   0.825   4.533  11.486 -0.8762  0.4265  1.3792
41388SOL     OW34093   2.324   8.607   0.215  0.0009  0.1802  0.7551
41388SOL    HW134094   2.290   8.539   0.273  0.1641 -1.6914 -1.2453
41388SOL    HW234095   2.348   8.679   0.274 -0.6632 -1.2643  2.8876
41389SOL     OW34096  13.191   7.382   7.019  0.5932  0.6903 -0.3713
41389SOL    HW134097  13.163   7.293   6.998 -0.2451  0.1295  2.6228
41389SOL    HW234098  13.286   7.377   7.026  0.4729 -0.2309  0.7556
41390SOL     OW34099  12.710   1.921   3.584 -0.1968 -0.1463 -0.1081
41390SOL    HW134100  12.660   1.932   3.503  1.5678 -2.4515 -1.6447
41390SOL    HW234101  12.784   1.981   3.574  0.0583 -0.4818 -0.2649
41391SOL     OW34102   6.902   2.930  12.154  0.1299  0.4880 -0.3313
41391SOL    HW134103   6.982   2.967  12.117 -0.3705  0.0346 -1.9752
41391SOL    HW234104   6.839   3.003  12.155  0.3201  0.6511  0.2336
41392SOL     OW34105   2.869   3.554  10.608  0.4388  0.3582 -0.2256
41392SOL    HW134106   2.837   3.643  10.623  2.4216  1.0583  0.0820
41392SOL    HW234107   2.954   3.551  10.651 -0.3939 -2.3282  1.5289
41393SOL     OW34108   3.582   1.356   1.192  0.2017  0.4356 -0.8161
41393SOL    HW134109   3.641   1.321   1.125  1.7210  1.7598 -0.2369
41393SOL    HW234110   3.568   1.447   1.166 -0.7196  0.4408 -0.3361
41394SOL     OW34111   0.027   8.835   5.614  0.6518  0.0602  0.0992
41394SOL    HW134112  -0.049   8.884   5.583  1.0108  0.7173  0.2572
41394SOL    HW234113   0.097   8.858   5.554  0.7205 -0.5807 -0.0710
41395SOL     OW34114   3.951   2.760   1.995  0.3224  0.0850 -0.1547
41395SOL    HW134115   3.905   2.687   2.037 -0.5695  1.1850  0.8659
41395SOL    HW234116   4.044   2.740   2.005  0.0908 -1.1065 -0.2760
41396SOL     OW34117   7.668   1.692   4.962  0.0109 -0.0336  0.0065
41396SOL    HW134118   7.593   1.730   5.008  0.1438  1.1834 -0.7265
41396SOL    HW234119   7.630   1.637   4.893 -0.1945 -0.2989  0.3308
41397SOL     OW34120   5.515   5.491   6.369  0.5571  1.2108  0.8583
41397SOL    HW134121   5.529   5.449   6.284 -1.0889 -0.8456  1.4976
41397SOL    HW234122   5.426   5.526   6.364  0.3555  0.8773  1.7668
41398SOL     OW34123   7.729  10.186   2.884  0.5398  0.0707 -0.1373
41398SOL    HW134124   7.797  10.186   2.951  1.2736  0.5226 -0.8518
41398SOL    HW234125   7.769  10.142   2.809  0.3173  0.9791 -0.8190
41399SOL     OW34126   3.077   2.971   9.489 -0.2981 -0.1388  0.0804
41399SOL    HW134127   3.124   3.053   9.474 -0.7394  0.1896  0.4527
41399SOL    HW234128   3.053   2.973   9.581 -0.5032 -0.5889  0.0416
41400SOL     OW34129  11.903   9.505   9.940 -0.2955 -0.5402  0.4823
41400SOL    HW134130  11.848   9.516   9.862  2.3562 -0.0622 -1.4781
41400SOL    HW234131  11.953   9.586   9.945  1.3525 -1.5617  1.1829
41401SOL     OW34132  13.071   7.001   9.518  0.0223 -0.0183  0.3880
41401SOL    HW134133  13.048   6.981   9.427 -1.3040  1.5185  0.3383
41401SOL    HW234134  13.106   6.919   9.552  0.9603 -0.5182 -1.6216
41402SOL     OW34135   4.507  12.018   1.043  0.4199 -0.1451 -0.1901
41402SOL    HW134136   4.598  12.024   1.072  1.0865  1.5567 -2.3784
41402SOL    HW234137   4.459  12.076   1.102  0.3400 -2.3610  2.0935
41403SOL     OW34138   4.739   5.704   3.319 -0.3436  0.2117 -0.6068
41403SOL    HW134139   4.749   5.770   3.250 -0.0507 -0.3684 -1.1304
41403SOL    HW234140   4.653   5.722   3.357 -0.1182  1.1131 -0.5047
41404SOL     OW34141   2.049   3.773  10.119 -0.5297  0.0605 -0.1847
41404SOL    HW134142   2.125   3.822  10.089 -1.5272  1.8016 -0.0358
41404SOL    HW234143   2.029   3.809  10.205 -1.3413 -0.5830 -0.0873
41405SOL     OW34144   6.079   9.647  10.646 -0.6252  0.5790 -0.0547
41405SOL    HW134145   6.127   9.627  10.566  1.2047  0.1781  1.0937
41405SOL    HW234146   6.133   9.710  10.692 -0.2557 -1.1915  2.0992
41406SOL     OW34147   3.222   9.947   6.702  0.2049 -0.2072 -0.4949
41406SOL    HW134148   3.158   9.906   6.761  2.5551 -1.6286  1.2355
41406SOL    HW234149   3.196   9.919   6.615 -1.4327 -0.8575  0.1623
41407SOL     OW34150   6.440   8.031   5.255  0.0048  0.3579 -0.5790
41407SOL    HW134151   6.456   7.937   5.265  0.7121  0.5480  0.2606
41407SOL    HW234152   6.350   8.043   5.286 -0.9397 -0.3367 -2.7928
41408SOL     OW34153   7.572   6.728   3.924 -0.3184  0.3014  0.1284
41408SOL    HW134154   7.526   6.718   3.840  1.0309 -0.8245 -0.5098
41408SOL    HW234155   7.623   6.808   3.914  0.5326 -0.3065 -0.4791
41409SOL     OW34156   6.834   5.505   5.116  0.1849 -0.3567 -0.1285
41409SOL    HW134157   6.783   5.585   5.127 -0.2993 -0.7616  0.6460
41409SOL    HW234158   6.866   5.485   5.204 -1.8595 -2.4397  0.2176
41410SOL     OW34159   9.527  10.177  10.527 -0.7070  0.5180  0.6107
41410SOL    HW134160   9.529  10.081  10.532  0.0244  0.5147  0.3761
41410SOL    HW234161   9.617  10.204  10.546 -0.5885  1.0890 -0.6747
41411SOL     OW34162   1.719   0.403   7.082 -0.3443  0.3104  0.3695
41411SOL    HW134163   1.684   0.349   7.012  0.8783 -0.9369  0.6959
41411SOL    HW234164   1.790   0.453   7.041 -0.7702  0.8943  0.3250
41412SOL     OW34165   4.465   2.016   5.430 -0.7402  0.1024 -0.3435
41412SOL    HW134166   4.428   1.972   5.353  1.0065 -2.9497  0.3813
41412SOL    HW234167   4.427   1.971   5.505  0.2112  0.6541  0.5021
41413SOL     OW34168   8.629   0.995  13.093 -0.7408  0.0607 -0.2250
41413SOL    HW134169   8.588   1.069  13.047 -1.8187 -1.1296 -1.2680
41413SOL    HW234170   8.571   0.977  13.166 -1.9620 -1.3859 -1.4862
41414SOL     OW34171  10.444   8.288  11.257 -0.4232 -0.2736 -0.4268
41414SOL    HW134172  10.432   8.195  11.278  0.2980 -0.1855  0.3951
41414SOL    HW234173  10.501   8.288  11.180  0.0345 -0.5012 -0.0900
41415SOL     OW34174   4.500  10.450   7.344  0.4130  0.6855 -0.2860
41415SOL    HW134175   4.487  10.538   7.377  0.8565  0.9362 -0.7670
41415SOL    HW234176   4.587  10.425   7.376 -0.2204 -0.0667  0.9108
41416SOL     OW34177   2.135  10.112   6.597  0.3234 -0.1076 -0.5135
41416SOL    HW134178   2.045  10.079   6.593 -0.6479  2.3716 -0.9789
41416SOL    HW234179   2.128  10.195   6.644  1.7577  1.8410 -3.4482
41417SOL     OW34180   9.257  11.236  13.067 -0.3213  0.4261  0.0391
41417SOL    HW134181   9.193  11.272  13.005 -0.6803  0.0650  0.1929
41417SOL    HW234182   9.219  11.255  13.153 -0.0710  0.4807  0.1360
41418SOL     OW34183   0.802  11.352   7.552 -0.2127  0.3939 -0.0861
41418SOL    HW134184   0.886  11.309   7.564 -0.0476  0.4676 -0.8929
41418SOL    HW234185   0.737  11.282   7.563  0.0657 -0.1447 -1.6132
41419SOL     OW34186   8.353   6.998   5.909  0.1870 -0.4383  0.2483
41419SOL    HW134187   8.432   7.025   5.956  2.4064 -2.8393 -1.7918
41419SOL    HW234188   8.298   7.076   5.907  3.1755  1.8407  0.4256
41420SOL     OW34189   6.971   4.181  12.352 -0.2523 -0.4994  0.2801
41420SOL    HW134190   7.004   4.244  12.288 -2.0489 -0.1025 -0.2830
41420SOL    HW234191   6.877   4.179  12.338 -0.8046  0.0593  3.3376
41421SOL     OW34192  10.353  13.102   2.790  0.7196 -0.5162  0.2471
41421SOL    HW134193  10.425  13.058   2.743 -0.0948 -0.6604 -0.8969
41421SOL    HW234194  10.281  13.040   2.786  0.6599 -0.5867  1.8489
41422SOL     OW34195   6.004   7.402   9.023 -0.0427  0.2590  0.1199
41422SOL    HW134196   6.016   7.404   8.928  0.8767  1.3626  0.2443
41422SOL    HW234197   6.092   7.399   9.059 -0.3939 -0.8669  0.9512
41423SOL     OW34198  11.948   0.422  11.264  0.3142  0.2122 -0.2381
41423SOL    HW134199  11.955   0.331  11.237  2.2921  0.2765 -0.0452
41423SOL    HW234200  11.926   0.418  11.357  1.3148 -0.0872 -0.0077
41424SOL     OW34201   7.857  11.514   7.645  0.2328 -0.2154  0.0869
41424SOL    HW134202   7.937  11.483   7.601  0.4469  1.4020 -0.7475
41424SOL    HW234203   7.888  11.556   7.725  0.1416 -0.1804  0.1043
41425SOL     OW34204   6.071   5.937   3.811  0.0826  0.3338 -0.4563
41425SOL    HW134205   6.038   5.990   3.739  1.0544  0.7178 -0.6362
41425SOL    HW234206   6.078   5.849   3.775  0.1264  0.4324 -0.6873
41426SOL     OW34207  10.607   6.363   5.256 -0.3693 -0.7038 -0.0018
41426SOL    HW134208  10.571   6.329   5.175 -1.5596 -2.1685  1.0851
41426SOL    HW234209  10.652   6.288   5.296  1.8922  0.4718 -0.1774
41427SOL     OW34210   8.803   8.793   8.889  0.0232 -0.0744  0.6059
41427SOL    HW134211   8.748   8.793   8.810  0.6424 -0.6053  0.1710
41427SOL    HW234212   8.839   8.882   8.893  0.8548 -0.3507 -0.3300
41428SOL     OW34213   1.363   6.977   4.044  0.3177 -0.0705 -0.0246
41428SOL    HW134214   1.422   7.021   3.982  1.1349 -1.5275 -0.3275
41428SOL    HW234215   1.307   6.922   3.988  1.2458 -1.6109  0.5272
41429SOL     OW34216  10.896   0.143   0.104 -0.4240 -0.1988  0.1098
41429SOL    HW134217  10.902   0.182   0.016 -1.4863 -0.4198 -0.0692
41429SOL    HW234218  10.947   0.203   0.159  1.8515 -1.0256 -0.9383
41430SOL     OW34219   5.186  13.089   8.607 -0.5027  0.7035 -0.1055
41430SOL    HW134220   5.139  13.084   8.690 -1.4818 -0.2797 -0.6883
41430SOL    HW234221   5.128  13.045   8.545  0.2140  1.4130 -1.3093
41431SOL     OW34222   6.943  12.288   3.410  0.3099  0.0857 -0.3021
41431SOL    HW134223   7.034  12.260   3.398 -0.4286 -2.7256 -0.0511
41431SOL    HW234224   6.944  12.339   3.491  1.4132 -1.3553  0.6335
41432SOL     OW34225  10.093   6.347   4.199  0.1240 -0.5928  0.7750
41432SOL    HW134226  10.162   6.390   4.148  0.1052 -2.8268 -1.3465
41432SOL    HW234227  10.112   6.371   4.289  0.6495  2.9221 -0.1319
41433SOL     OW34228  11.799  13.291   8.582 -0.6881  0.1721 -0.6207
41433SOL    HW134229  11.733  13.222   8.579 -1.3761  0.7953 -0.2188
41433SOL    HW234230  11.797  13.331   8.496  0.5981 -1.0883 -1.2832
41434SOL     OW34231   9.469   6.498   6.207  0.0148 -0.4610  0.4477
41434SOL    HW134232   9.508   6.477   6.292 -0.6568 -0.3631  0.7876
41434SOL    HW234233   9.523   6.451   6.144  2.1857  1.5298  0.6603
41435SOL     OW34234   1.744   5.450   4.119  0.3866 -0.3058  0.5774
41435SOL    HW134235   1.708   5.504   4.189  1.8880  1.4767  0.0524
41435SOL    HW234236   1.792   5.381   4.165  0.8187  0.4648  1.3148
41436SOL     OW34237   7.846   0.669  12.126 -0.3379 -0.7880  0.2995
41436SOL    HW134238   7.912   0.690  12.061 -1.6540  1.6495 -0.3805
41436SOL    HW234239   7.894   0.627  12.197  1.5586 -1.0473 -1.0791
41437SOL     OW34240   2.803   8.924   6.378 -0.3204  0.0178 -0.0416
41437SOL    HW134241   2.890   8.929   6.338 -0.2622 -1.2532 -0.1003
41437SOL    HW234242   2.819   8.931   6.472 -0.2135  0.2923 -0.0777
41438SOL     OW34243   3.669  11.527   7.615 -0.7016 -0.2521  0.3406
41438SOL    HW134244   3.634  11.547   7.529  0.2842 -2.5166 -0.6812
41438SOL    HW234245   3.754  11.486   7.597 -0.4307 -0.7095  2.4018
41439SOL     OW34246   7.618   3.438   3.572  0.3180 -0.0900  0.0551
41439SOL    HW134247   7.617   3.487   3.655  0.1491  0.1268 -0.0723
41439SOL    HW234248   7.615   3.346   3.598 -0.6870 -0.0103  0.2766
41440SOL     OW34249  12.911   1.842  12.883  0.2112  0.3169 -0.0180
41440SOL    HW134250  12.981   1.795  12.928 -0.4364 -0.2785  0.3720
41440SOL    HW234251  12.954   1.920  12.847  1.4218 -0.8442 -1.1715
41441SOL     OW34252   4.148   2.509  12.562 -0.1968  0.0764  0.1740
41441SOL    HW134253   4.056   2.532  12.573 -0.7614 -1.4618 -1.0035
41441SOL    HW234254   4.147   2.417  12.537  1.6577  0.1107 -0.1678
41442SOL     OW34255   0.443   9.140   9.819 -0.0584 -0.1720 -0.4078
41442SOL    HW134256   0.403   9.172   9.738 -0.1274  0.6436 -0.0586
41442SOL    HW234257   0.491   9.062   9.792 -1.3504 -0.8233 -0.9636
41443SOL     OW34258   6.397   6.909   6.721 -0.0710 -0.0027 -0.2820
41443SOL    HW134259   6.451   6.987   6.706  1.6629 -0.5092  2.6045
41443SOL    HW234260   6.310   6.944   6.739  0.4383  1.2174 -0.0603
41444SOL     OW34261   3.638   2.933   0.921  0.6203 -0.4309 -0.4943
41444SOL    HW134262   3.594   3.017   0.927  0.4922 -0.5766  1.2633
41444SOL    HW234263   3.731   2.953   0.934  0.5803 -0.5409  0.0193
41445SOL     OW34264   2.130   5.988   9.363 -0.4452  0.1403  0.1655
41445SOL    HW134265   2.216   6.009   9.324  0.7082 -2.5772  0.9859
41445SOL    HW234266   2.143   6.000   9.457 -0.4192 -1.7631  0.4447
41446SOL     OW34267   4.886  10.998   6.775  0.0327  0.8710  0.7545
41446SOL    HW134268   4.810  10.945   6.750  1.1998 -1.3410  1.6536
41446SOL    HW234269   4.932  11.013   6.693 -1.2819  2.2079  0.2002
41447SOL     OW34270   7.404   2.313   2.340  0.5608 -0.1590 -0.0214
41447SOL    HW134271   7.476   2.370   2.366 -0.7675  0.8599  1.5809
41447SOL    HW234272   7.330   2.340   2.394 -0.6589 -2.1363 -0.5806
41448SOL     OW34273  12.931   7.166  13.164 -1.2391 -0.4002  0.5939
41448SOL    HW134274  12.943   7.115  13.244 -3.0984  0.3449  1.4183
41448SOL    HW234275  12.989   7.241  13.174 -0.4950 -0.9668  0.6208
41449SOL     OW34276   0.992   2.974   6.175  0.5654 -0.1419  0.1243
41449SOL    HW134277   0.946   2.890   6.167  0.0893  0.2286 -1.2494
41449SOL    HW234278   1.084   2.950   6.186  0.1683 -0.8851  2.3471
41450SOL     OW34279   2.772   2.123   1.095  0.6304  0.6265 -0.1307
41450SOL    HW134280   2.842   2.126   1.160  0.4723 -0.5706  0.1021
41450SOL    HW234281   2.696   2.091   1.142  0.6696 -0.8713 -1.0233
41451SOL     OW34282  10.279   7.154   9.438  0.8859  0.6460  0.2485
41451SOL    HW134283  10.254   7.118   9.523  0.8647 -0.1757 -0.0994
41451SOL    HW234284  10.373   7.136   9.431  0.3048 -2.4485 -1.3535
41452SOL     OW34285  11.461  12.768   2.687  0.0740 -0.2847  0.1929
41452SOL    HW134286  11.399  12.755   2.759 -0.4637 -0.3808 -0.2794
41452SOL    HW234287  11.406  12.782   2.610  0.6418  0.7135 -0.0495
41453SOL     OW34288   8.361   0.875   4.685 -0.2549  0.2053 -0.3038
41453SOL    HW134289   8.439   0.850   4.736 -1.4420 -1.0638  0.9810
41453SOL    HW234290   8.318   0.942   4.738  0.1952  1.2846 -1.2611
41454SOL     OW34291   5.048   5.324   0.985  0.7947 -0.2937  0.0467
41454SOL    HW134292   5.111   5.252   0.984  0.6743 -0.4379  1.3551
41454SOL    HW234293   5.072   5.377   1.061 -0.9505 -0.6264  0.8790
41455SOL     OW34294   6.777  10.595   1.822  0.4347 -0.2665 -0.5589
41455SOL    HW134295   6.705  10.576   1.883  0.7814 -0.0204 -0.0711
41455SOL    HW234296   6.834  10.655   1.870  0.3848  0.4322 -1.3557
41456SOL     OW34297  11.398   0.712   3.110 -0.1566 -0.4421  0.0036
41456SOL    HW134298  11.430   0.791   3.154 -0.0142  1.1501 -2.7378
41456SOL    HW234299  11.417   0.641   3.171  0.1958  1.5452  2.3712
41457SOL     OW34300  10.841  12.098   7.648  0.2131  0.1670 -0.0356
41457SOL    HW134301  10.756  12.059   7.665  0.6157 -0.9464 -0.4908
41457SOL    HW234302  10.866  12.139   7.731 -1.5259  2.0680 -0.3717
41458SOL     OW34303  10.402   0.982   6.685 -0.4310  0.0734 -0.6683
41458SOL    HW134304  10.337   1.045   6.715  0.6252  0.8775 -0.0095
41458SOL    HW234305  10.485   1.030   6.687  0.2200 -0.9881 -1.2910
41459SOL     OW34306   3.335  13.303   4.900  0.7678 -0.1748 -0.3390
41459SOL    HW134307   3.370  13.377   4.850  0.9794  0.1208  0.2311
41459SOL    HW234308   3.392  13.230   4.878  0.9789 -0.0002 -0.3735
41460SOL     OW34309   4.942   0.713   6.555  0.4226  0.0958  0.3953
41460SOL    HW134310   5.028   0.742   6.525  0.4108  1.0214  1.2070
41460SOL    HW234311   4.904   0.667   6.480  0.5716  1.9516 -0.8736
41461SOL     OW34312   0.777   4.883   0.396 -0.5290  0.0216 -0.9238
41461SOL    HW134313   0.851   4.941   0.381  0.2727 -0.2723  1.4228
41461SOL    HW234314   0.736   4.873   0.310  0.8037  1.9868 -1.8597
41462SOL     OW34315   1.790   7.498   5.668  0.2296 -0.1740  0.1615
41462SOL    HW134316   1.850   7.561   5.629  0.1511 -0.1601  0.0617
41462SOL    HW234317   1.704   7.523   5.634  0.0311  0.4187  1.0691
41463SOL     OW34318   7.866   0.294   9.018  0.0329  0.2452  0.2602
41463SOL    HW134319   7.894   0.312   8.928  0.0394  1.1358  0.4322
41463SOL    HW234320   7.899   0.205   9.036 -2.1078 -0.9704 -1.4400
41464SOL     OW34321   2.433   5.991   5.614  0.5178  0.4422 -0.0651
41464SOL    HW134322   2.352   6.036   5.636 -1.8646 -2.7206 -1.4404
41464SOL    HW234323   2.438   5.998   5.518  0.3780 -1.5452 -0.2566
41465SOL     OW34324  11.965  10.111   3.632 -0.0231 -0.4807  0.0484
41465SOL    HW134325  11.903  10.046   3.597  0.6744 -0.6792 -0.8605
41465SOL    HW234326  11.911  10.168   3.686 -1.0334 -0.5804 -0.8101
41466SOL     OW34327   4.212  11.346   8.372  0.4816 -0.5187  0.0995
41466SOL    HW134328   4.257  11.370   8.453 -3.4757 -2.2997  3.1160
41466SOL    HW234329   4.234  11.254   8.359  0.0851 -0.5858 -0.1072
41467SOL     OW34330   8.149   1.822   3.704  0.5761 -0.2570 -0.1984
41467SOL    HW134331   8.155   1.863   3.790  1.2708 -0.0050 -0.3636
41467SOL    HW234332   8.102   1.740   3.720 -0.7627  0.5352  0.1508
41468SOL     OW34333  12.182   7.661   3.469  0.5479 -0.3523 -0.6930
41468SOL    HW134334  12.276   7.668   3.453  0.3586  1.3622 -1.2733
41468SOL    HW234335  12.171   7.681   3.562  0.7009  0.1064 -0.7718
41469SOL     OW34336   7.839   8.341   2.542  0.0633  0.0090  0.4409
41469SOL    HW134337   7.934   8.345   2.535 -0.0303  0.9612 -0.4307
41469SOL    HW234338   7.820   8.248   2.560  1.1707 -0.0951  1.1706
41470SOL     OW34339   6.969   4.358   2.732 -0.3237  0.0553  0.2978
41470SOL    HW134340   7.016   4.275   2.728  0.4622  0.3387  2.4519
41470SOL    HW234341   6.884   4.338   2.691  0.4715 -1.2995 -0.8187
41471SOL     OW34342   4.359   4.785   3.882  0.5337  0.6139 -0.0157
41471SOL    HW134343   4.311   4.706   3.905  1.1387 -0.0604 -0.9624
41471SOL    HW234344   4.451   4.760   3.889  0.7294  1.2229 -0.3238
41472SOL     OW34345  13.013   4.289   3.618  0.0789 -0.3219  0.0537
41472SOL    HW134346  12.921   4.313   3.618  0.3845  1.0430 -1.5003
41472SOL    HW234347  13.026   4.239   3.699 -1.9483 -0.3395  0.4003
41473SOL     OW34348   2.913   6.519   5.822  0.2880 -0.2613  0.1308
41473SOL    HW134349   2.931   6.434   5.783 -2.0556  0.4390 -2.8400
41473SOL    HW234350   2.850   6.501   5.892 -0.9377 -0.9435 -1.0993
41474SOL     OW34351   5.087   9.692   4.512 -0.5418 -0.2292  0.2643
41474SOL    HW134352   5.181   9.674   4.508 -0.5914 -0.6116  0.7555
41474SOL    HW234353   5.067   9.730   4.427 -0.4496 -2.6771 -0.9447
41475SOL     OW34354  12.981   2.677   2.291 -0.8089  0.4989  0.2840
41475SOL    HW134355  12.938   2.592   2.281 -0.5301  0.4118 -0.1919
41475SOL    HW234356  13.022   2.694   2.206  2.5884 -0.7548  1.5096
41476SOL     OW34357   1.250   2.021   2.944 -0.0780 -0.6781  0.4880
41476SOL    HW134358   1.286   1.944   2.900  0.5793 -1.2342  1.9157
41476SOL    HW234359   1.324   2.083   2.948 -0.7266  0.2407 -1.0587
41477SOL     OW34360  10.815  12.476   6.058  0.0906  0.0146  0.4493
41477SOL    HW134361  10.897  12.516   6.088  0.3436  0.2450 -0.5058
41477SOL    HW234362  10.842  12.418   5.987 -0.5859  0.1890  0.0406
41478SOL     OW34363  10.739   2.947   1.017 -0.0561  0.4127  0.1396
41478SOL    HW134364  10.774   2.886   0.951 -1.5526  0.0838 -0.3947
41478SOL    HW234365  10.816   2.978   1.065  0.8416 -1.1457 -0.2298
41479SOL     OW34366   9.471  10.608   9.683  0.5153 -0.6119 -0.3965
41479SOL    HW134367   9.466  10.648   9.596 -0.5882  0.9189  0.3203
41479SOL    HW234368   9.380  10.590   9.707  0.6911  0.0684  0.8962
41480SOL     OW34369   1.094   5.665   9.897  0.4623 -0.4304  0.1681
41480SOL    HW134370   1.065   5.668   9.988  0.5671 -0.2511  0.1972
41480SOL    HW234371   1.187   5.641   9.902 -0.3313 -4.1186 -0.0622
41481SOL     OW34372   5.601  11.887   3.114 -0.2413  0.3871  0.1014
41481SOL    HW134373   5.511  11.880   3.144 -0.2535 -0.9110 -0.2048
41481SOL    HW234374   5.597  11.951   3.043 -0.5917  1.7170  1.2741
41482SOL     OW34375   2.548   9.076   9.179 -0.1546 -0.2435  0.6014
41482SOL    HW134376   2.500   9.006   9.135 -1.7048  0.4805  1.0664
41482SOL    HW234377   2.480   9.128   9.221  0.5051  3.5871 -2.4986
41483SOL     OW34378   3.170   9.473   5.791 -0.6832  0.4892  0.3793
41483SOL    HW134379   3.146   9.522   5.712  0.0986 -0.0488 -0.2127
41483SOL    HW234380   3.087   9.444   5.828 -1.0331  0.1094 -0.6677
41484SOL     OW34381   0.109   2.337   0.509 -0.0245  0.6479 -0.5747
41484SOL    HW134382   0.072   2.290   0.434  0.9353  1.0861 -1.3488
41484SOL    HW234383   0.108   2.429   0.482  3.2465  0.5748 -1.4562
41485SOL     OW34384   9.763   7.528   2.347 -0.3728  0.1480 -0.2478
41485SOL    HW134385   9.672   7.499   2.349  0.2161 -1.8849 -0.7200
41485SOL    HW234386   9.803   7.489   2.424  0.3313  0.1697 -0.5869
41486SOL     OW34387   9.730   3.023   3.645 -0.0723  0.4351  0.3712
41486SOL    HW134388   9.743   3.046   3.553  0.4040 -0.0471  0.3103
41486SOL    HW234389   9.796   2.955   3.662 -1.3180 -0.7425  0.5911
41487SOL     OW34390   4.547   1.108   0.897 -0.1024 -0.4025  0.0269
41487SOL    HW134391   4.620   1.169   0.910 -1.7423  1.2953  2.1440
41487SOL    HW234392   4.569   1.032   0.951  0.1575  0.0790  0.6183
41488SOL     OW34393   2.903   0.245   5.153 -0.6950  0.1348  0.6407
41488SOL    HW134394   2.976   0.283   5.201 -1.2760  0.1217  1.5639
41488SOL    HW234395   2.886   0.307   5.082 -0.2794  0.5203  0.8733
41489SOL     OW34396   0.357  12.054   0.504 -0.2833 -0.2144 -0.0346
41489SOL    HW134397   0.358  12.119   0.574 -0.6023 -0.2959  0.0448
41489SOL    HW234398   0.282  12.077   0.449  1.7430  1.8053 -2.2105
41490SOL     OW34399   2.078   8.805   4.875  0.0011 -0.1085  0.3906
41490SOL    HW134400   2.018   8.877   4.861 -0.7820 -0.8939 -0.4545
41490SOL    HW234401   2.082   8.760   4.790 -1.8184 -2.7702  1.5706
41491SOL     OW34402   7.542  12.420   0.819  0.0998  0.0915 -0.0569
41491SOL    HW134403   7.606  12.461   0.761  0.1084  1.0047  0.5738
41491SOL    HW234404   7.570  12.329   0.826  0.8208  0.2779 -0.4882
41492SOL     OW34405   8.787   6.911   7.319  0.2736 -0.0478  0.4766
41492SOL    HW134406   8.879   6.930   7.335 -0.2240  1.7721  1.4474
41492SOL    HW234407   8.781   6.894   7.225  1.3275  1.5905  0.0815
41493SOL     OW34408   3.909  10.419   6.035 -0.5440 -0.1500  0.3400
41493SOL    HW134409   3.875  10.463   5.957  1.0483 -0.9423 -0.8711
41493SOL    HW234410   4.003  10.407   6.016 -0.1576 -0.5380  2.3022
41494SOL     OW34411   4.887   5.301  11.461  0.0408 -0.4855 -0.2087
41494SOL    HW134412   4.883   5.214  11.501 -0.5067 -0.0234  0.7810
41494SOL    HW234413   4.878   5.362  11.534 -1.5577  0.3897 -1.0639
41495SOL     OW34414  10.245   7.624  11.056  0.9424  0.3746 -0.0061
41495SOL    HW134415  10.316   7.559  11.061  0.2490 -0.4731 -0.7854
41495SOL    HW234416  10.189   7.604  11.132  1.1401  0.5699  0.1933
41496SOL     OW34417   4.889   0.810  10.732 -0.1599  0.8997  0.1946
41496SOL    HW134418   4.848   0.820  10.647 -1.3343  0.9694  0.7550
41496SOL    HW234419   4.898   0.900  10.766 -0.3888  0.8206  0.4660
41497SOL     OW34420  13.198  10.908  12.520 -0.2751  0.0284  0.4294
41497SOL    HW134421  13.198  10.977  12.454  0.6286  1.3637  1.7479
41497SOL    HW234422  13.136  10.938  12.587 -1.8989 -1.7482 -0.1758
41498SOL     OW34423   3.352  11.944  11.038 -0.1776 -1.1099  0.0450
41498SOL    HW134424   3.317  12.016  11.091 -0.5519 -1.9352  0.9492
41498SOL    HW234425   3.339  11.866  11.092  0.3199 -1.8471 -0.8730
41499SOL     OW34426  13.169  11.467   3.323  0.1673  0.3501  0.1354
41499SOL    HW134427  13.094  11.524   3.309  0.6880  1.0702  0.2530
41499SOL    HW234428  13.216  11.468   3.239  0.8379  1.0721  0.5134
41500SOL     OW34429   3.085   7.127   0.745  0.0457  0.2187  0.6297
41500SOL    HW134430   3.021   7.135   0.674  0.0104  1.4173  0.7909
41500SOL    HW234431   3.156   7.076   0.706 -0.9006 -0.9830  0.4003
41501SOL     OW34432   1.028   4.809   8.875  0.4453  0.0929 -0.5263
41501SOL    HW134433   0.937   4.796   8.902  0.4510 -0.0062 -0.5553
41501SOL    HW234434   1.076   4.740   8.921  0.5845  0.4835 -0.0767
41502SOL     OW34435   9.045   9.262  12.326  0.4331 -0.1977  0.1222
41502SOL    HW134436   9.034   9.173  12.292  1.2736  0.0825 -0.9231
41502SOL    HW234437   9.015   9.256  12.416  0.2419 -1.4876  0.0030
41503SOL     OW34438   7.716   5.621   3.830 -0.4934  0.3786  0.0485
41503SOL    HW134439   7.733   5.715   3.840 -0.9015  0.6520 -1.4866
41503SOL    HW234440   7.629   5.608   3.867 -0.5005  0.6445  0.1281
41504SOL     OW34441   3.362   1.991   2.868  0.5253  0.6210  0.9906
41504SOL    HW134442   3.370   2.055   2.939  1.2952  1.1442  0.4555
41504SOL    HW234443   3.325   1.913   2.910  1.3168  0.7876  2.0427
41505SOL     OW34444   7.754  12.025  11.875 -0.2800 -0.0240 -0.3515
41505SOL    HW134445   7.660  12.008  11.888 -0.2611 -1.6782 -1.9912
41505SOL    HW234446   7.758  12.074  11.794  0.2451  0.7960  0.1589
41506SOL     OW34447   4.833   5.018   8.411  0.1210 -0.1836  0.1471
41506SOL    HW134448   4.904   5.082   8.409  0.5582 -0.6187  0.9987
41506SOL    HW234449   4.769   5.056   8.471 -0.1685  0.0095 -0.2837
41507SOL     OW34450   2.101  10.894  12.888  0.2000  0.6217  0.2459
41507SOL    HW134451   2.034  10.917  12.823  1.0863  0.2354 -0.8358
41507SOL    HW234452   2.053  10.892  12.971 -1.4903 -1.0777 -0.6643
41508SOL     OW34453  10.213   1.854   5.076 -0.3193  0.3638  0.1673
41508SOL    HW134454  10.198   1.788   5.144 -0.9751  0.7669  0.4259
41508SOL    HW234455  10.304   1.840   5.049 -0.8195 -1.5065 -0.7242
41509SOL     OW34456   7.103   1.981   8.363  0.0852 -0.2946 -0.5293
41509SOL    HW134457   7.054   1.916   8.312 -1.7759  0.7773 -0.1683
41509SOL    HW234458   7.109   2.057   8.305  1.1502 -0.3196 -0.4697
41510SOL     OW34459   7.865  11.769   9.041 -0.9971  0.6816 -0.1733
41510SOL    HW134460   7.813  11.690   9.048 -0.1604  0.2496  2.0489
41510SOL    HW234461   7.838  11.809   8.959 -2.1661 -1.3750 -0.8502
41511SOL     OW34462  12.232  11.589  12.610 -0.2589 -0.0449 -0.1729
41511SOL    HW134463  12.215  11.598  12.517  1.3908  0.7860 -0.4401
41511SOL    HW234464  12.323  11.619  12.621  0.1541 -1.6551  1.4426
41512SOL     OW34465   9.076   7.036   2.313 -0.5413 -0.4531 -0.0848
41512SOL    HW134466   9.027   7.019   2.393 -3.7525  2.3381 -1.2257
41512SOL    HW234467   9.084   6.950   2.272 -3.9914 -1.2691  0.5806
41513SOL     OW34468   5.060  10.575   6.856  0.0754  0.1805 -0.2298
41513SOL    HW134469   5.067  10.668   6.878  0.4264  0.0907  0.0568
41513SOL    HW234470   5.133  10.534   6.903 -1.4414 -0.5961  1.6248
41514SOL     OW34471  11.715   1.479   1.285 -0.0722 -0.0696 -0.2558
41514SOL    HW134472  11.757   1.446   1.206  1.2665  2.8293 -0.8620
41514SOL    HW234473  11.664   1.554   1.256 -2.0984 -0.7746  1.2139
41515SOL     OW34474  12.983  12.727  11.269 -0.0655 -0.0249  0.2805
41515SOL    HW134475  13.015  12.803  11.317  0.4476  0.8550 -1.3457
41515SOL    HW234476  12.948  12.764  11.187  1.6309 -1.6076 -1.2719
41516SOL     OW34477   2.792   6.330   0.131 -0.1466  0.0502 -0.1942
41516SOL    HW134478   2.754   6.417   0.144  1.8193  0.9858 -0.2908
41516SOL    HW234479   2.745   6.294   0.056 -2.4909  0.0806  1.1687
41517SOL     OW34480  11.344   6.180  12.682  0.6875 -0.1164  0.2291
41517SOL    HW134481  11.320   6.198  12.591  1.1815 -0.0258  0.1150
41517SOL    HW234482  11.294   6.101  12.704 -0.4073  0.5719  0.2858
41518SOL     OW34483   8.179   2.539   7.703  0.4484 -0.3636  0.8187
41518SOL    HW134484   8.260   2.573   7.664  0.2067 -0.3747  0.2995
41518SOL    HW234485   8.192   2.549   7.798  0.7023  0.4228  0.7020
41519SOL     OW34486   2.473  10.995   5.650  0.1782  0.6852 -0.4363
41519SOL    HW134487   2.502  10.959   5.565 -0.3463 -1.7369  0.3205
41519SOL    HW234488   2.489  11.089   5.643  0.3977  0.5323 -3.1181
41520SOL     OW34489  12.203   7.967   4.434 -0.3390  0.0488 -0.3899
41520SOL    HW134490  12.278   7.988   4.378 -0.4848 -0.3777 -0.7504
41520SOL    HW234491  12.158   8.051   4.447 -0.5680  0.0732 -1.2998
41521SOL     OW34492   3.834   6.860   3.985  0.1337 -0.3859  0.2216
41521SOL    HW134493   3.784   6.909   3.920 -2.6736 -0.4977  2.1444
41521SOL    HW234494   3.846   6.774   3.946  1.1777  0.3973 -1.3161
41522SOL     OW34495   2.054   8.041   7.107  0.5588  0.4650 -0.3316
41522SOL    HW134496   2.012   8.048   7.192 -1.1553 -0.1529 -1.0717
41522SOL    HW234497   2.051   8.130   7.071 -0.1318  0.4384 -0.3585
41523SOL     OW34498   6.103   6.959   4.383 -0.1295  0.1744  0.4183
41523SOL    HW134499   6.141   7.037   4.422 -0.2910  0.4430  0.0403
41523SOL    HW234500   6.096   6.897   4.456  0.0458  0.4918  0.7084
41524SOL     OW34501  11.831   9.158  12.863 -0.1969  0.0319  0.1211
41524SOL    HW134502  11.836   9.178  12.957 -1.9963  1.1496  0.0269
41524SOL    HW234503  11.888   9.223  12.822  1.6036 -1.2472  0.4755
41525SOL     OW34504   8.079  11.836   1.875 -0.0474  0.0493  0.0251
41525SOL    HW134505   8.122  11.911   1.916  0.3968 -1.2167  2.0179
41525SOL    HW234506   8.110  11.761   1.925 -0.4507 -1.4959 -1.9203
41526SOL     OW34507   3.903   6.868   6.163 -0.0782 -0.4476  0.3416
41526SOL    HW134508   3.891   6.807   6.236 -0.1144 -0.7829  0.0573
41526SOL    HW234509   3.887   6.815   6.085  2.1718 -0.6746 -0.0363
41527SOL     OW34510   0.031   4.689   1.238  0.1312 -0.3083  0.1032
41527SOL    HW134511   0.017   4.747   1.313 -0.6735 -0.1514 -0.1613
41527SOL    HW234512   0.052   4.747   1.166  2.3437 -0.5390  0.4998
41528SOL     OW34513   7.598  11.670  13.191 -0.6024 -0.1397  0.3803
41528SOL    HW134514   7.515  11.712  13.169 -0.1763  0.4244 -0.2055
41528SOL    HW234515   7.644  11.735  13.244  0.0109  0.1087 -0.4269
41529SOL     OW34516  11.461   1.434  13.061  0.3257  0.4893 -0.5270
41529SOL    HW134517  11.545   1.435  13.108 -1.6419 -0.2747  3.4012
41529SOL    HW234518  11.418   1.516  13.086 -0.7268  0.1838 -1.2586
41530SOL     OW34519   3.747   8.747   6.359  0.4985  0.4308  0.4965
41530SOL    HW134520   3.738   8.661   6.400  1.0492  0.2539  0.2630
41530SOL    HW234521   3.668   8.757   6.306  0.9367 -0.4327 -0.3604
41531SOL     OW34522  12.077   1.924  12.481 -0.2544 -0.8529  0.0825
41531SOL    HW134523  12.122   1.891  12.559 -0.5895 -2.3111 -0.3150
41531SOL    HW234524  12.079   1.851  12.420  0.1824  0.3225 -1.3772
41532SOL     OW34525   1.049   2.967   1.294  0.0981 -0.2749  0.5156
41532SOL    HW134526   1.029   2.873   1.296  2.3554 -0.8480 -0.8114
41532SOL    HW234527   0.997   3.001   1.221  0.2261 -0.7472  0.2036
41533SOL     OW34528   4.321   2.490  12.089  0.2502 -0.0161  0.2181
41533SOL    HW134529   4.347   2.433  12.162 -1.8093 -1.0340  0.2303
41533SOL    HW234530   4.245   2.538  12.122  2.3798  3.5410  0.5138
41534SOL     OW34531   4.110  10.026   5.863  0.1464 -0.9449  0.0656
41534SOL    HW134532   4.139   9.948   5.910  1.6638 -0.5657 -0.1841
41534SOL    HW234533   4.166  10.028   5.785 -0.7824 -0.3239 -0.6006
41535SOL     OW34534   0.532   3.304  10.333  0.4228 -0.6303 -0.1083
41535SOL    HW134535   0.611   3.358  10.325 -0.5471  1.0143  0.8159
41535SOL    HW234536   0.511   3.305  10.426 -1.2710 -0.1248 -0.4598
41536SOL     OW34537   8.748   0.543   9.401  0.0909 -0.7184 -0.1294
41536SOL    HW134538   8.699   0.462   9.406 -1.0588 -0.0371  0.0363
41536SOL    HW234539   8.795   0.548   9.485  0.4765 -1.3762 -0.2965
41537SOL     OW34540   4.892   6.238   9.029  0.1004 -0.1617 -0.0410
41537SOL    HW134541   4.816   6.295   9.013 -0.6536 -1.0855  0.1381
41537SOL    HW234542   4.905   6.242   9.124 -0.4672 -0.8939  0.0807
41538SOL     OW34543   2.443  12.836   7.919 -0.1903 -0.6519 -0.1347
41538SOL    HW134544   2.423  12.925   7.949  0.1831 -1.1846  1.8362
41538SOL    HW234545   2.476  12.848   7.830  1.0595  1.3457  0.5118
41539SOL     OW34546   4.383   2.117   4.740 -0.3451 -0.3549  0.3777
41539SOL    HW134547   4.423   2.138   4.824 -0.1653 -0.6651  0.3705
41539SOL    HW234548   4.353   2.201   4.706 -0.1076 -0.1824  0.5922
41540SOL     OW34549   4.456   7.170   3.589  0.6530 -0.0565 -0.3985
41540SOL    HW134550   4.477   7.202   3.502 -0.6261 -0.8885 -1.0397
41540SOL    HW234551   4.360   7.167   3.591  0.5606  1.6257  1.6609
41541SOL     OW34552   3.715  10.619  12.032 -0.0305 -0.0033  0.1641
41541SOL    HW134553   3.728  10.588  12.122  1.7258 -2.3446 -0.7915
41541SOL    HW234554   3.794  10.669  12.013 -0.4678  0.6117 -0.0317
41542SOL     OW34555   6.688   9.760   0.010  0.3618 -0.0254  0.1538
41542SOL    HW134556   6.708   9.694  -0.056 -0.4530 -0.7726  0.6288
41542SOL    HW234557   6.614   9.724   0.059  0.0450  1.1436  0.5765
41543SOL     OW34558   7.536   3.920  12.640 -0.3889 -0.2088 -0.0232
41543SOL    HW134559   7.470   3.888  12.702  0.5172  0.7266  1.4876
41543SOL    HW234560   7.486   3.974  12.578 -1.0796  0.4064  1.0337
41544SOL     OW34561  11.548   4.905   0.145 -0.3596  0.0748 -0.1710
41544SOL    HW134562  11.644   4.910   0.147 -0.1049 -1.7321 -2.6636
41544SOL    HW234563  11.520   4.959   0.218  2.5395  1.2541  0.2205
41545SOL     OW34564  10.344   2.777   2.573 -0.4029 -0.2076 -0.6134
41545SOL    HW134565  10.383   2.759   2.487  0.7417  1.8902 -0.6139
41545SOL    HW234566  10.327   2.871   2.571 -0.4652 -0.1418  1.4247
41546SOL     OW34567   4.372   8.900   3.477  0.3484  0.0468  0.2391
41546SOL    HW134568   4.342   8.813   3.502  0.7171 -0.0019  0.5262
41546SOL    HW234569   4.339   8.957   3.547  0.7773  0.0204  0.4613
41547SOL     OW34570   9.746  12.631  10.847 -0.1120  0.0894 -0.1026
41547SOL    HW134571   9.734  12.582  10.929  1.6205  0.9811  0.7250
41547SOL    HW234572   9.747  12.723  10.874  2.3170  0.3372 -0.8185
41548SOL     OW34573  10.537   5.122   6.100  0.0397  0.0164  0.0028
41548SOL    HW134574  10.541   5.163   6.014  0.4913  0.1934  0.1034
41548SOL    HW234575  10.627   5.129   6.134  0.0036 -0.6078  0.2278
41549SOL     OW34576   3.599   2.619   5.114 -0.2229 -0.0419 -0.0952
41549SOL    HW134577   3.508   2.602   5.090 -0.2711  2.9728 -2.6182
41549SOL    HW234578   3.619   2.704   5.076  4.1240 -1.1876 -0.9887
41550SOL     OW34579   9.099   7.863   5.164  0.4863  0.3821  0.2335
41550SOL    HW134580   9.137   7.874   5.077  1.4092 -1.1053  0.4278
41550SOL    HW234581   9.018   7.816   5.149 -0.8531  2.6203 -0.0669
41551SOL     OW34582   0.112   1.628   3.574 -0.3219 -0.0594 -0.7298
41551SOL    HW134583   0.100   1.546   3.622 -1.4602  0.6671  0.2513
41551SOL    HW234584   0.040   1.684   3.601  0.2949  1.2053 -1.5697
41552SOL     OW34585  12.763   1.509   9.787 -0.2778  0.3291 -0.4462
41552SOL    HW134586  12.747   1.433   9.730 -0.5821  2.4256 -3.3921
41552SOL    HW234587  12.807   1.572   9.730 -0.0196  2.4002  1.8917
41553SOL     OW34588   7.797   6.629   0.891  0.5732  0.5002  0.2141
41553SOL    HW134589   7.892   6.620   0.897  0.4045 -1.0190  1.1568
41553SOL    HW234590   7.780   6.718   0.922  1.5623  0.1121  2.0373
41554SOL     OW34591   8.058   8.161   7.406 -0.3643  0.0390 -0.1609
41554SOL    HW134592   8.054   8.224   7.478  1.0269  0.6610 -0.5799
41554SOL    HW234593   7.993   8.094   7.428  0.2046  0.0754  1.7961
41555SOL     OW34594  11.075   7.915   9.737 -0.3395  0.0694 -0.1170
41555SOL    HW134595  11.144   7.980   9.749 -2.4032  2.4212 -0.1610
41555SOL    HW234596  11.056   7.917   9.643 -1.8940  1.0873  0.1838
41556SOL     OW34597   9.527   7.603  12.097  0.6952  0.0707  0.1415
41556SOL    HW134598   9.594   7.580  12.033 -0.4335  0.5311 -1.2642
41556SOL    HW234599   9.488   7.520  12.122  0.6984 -0.0553 -0.2688
41557SOL     OW34600   3.288   0.195   2.264  0.9024  0.5489  0.3589
41557SOL    HW134601   3.240   0.112   2.255 -1.9956  1.9438  1.6488
41557SOL    HW234602   3.295   0.228   2.174 -2.0576  0.9623  0.1673
41558SOL     OW34603   9.715  11.027   2.788  0.1986 -0.9031 -0.8019
41558SOL    HW134604   9.698  11.112   2.830  1.5885 -0.9580 -0.0672
41558SOL    HW234605   9.724  11.049   2.695  0.4220 -0.2593 -0.6377
41559SOL     OW34606   8.921  10.666   6.364 -0.3825  0.5101 -0.1948
41559SOL    HW134607   8.876  10.704   6.288 -1.3117 -0.5948 -0.2110
41559SOL    HW234608   8.946  10.578   6.336  0.3633  0.5289  0.3824
41560SOL     OW34609  12.649   8.034   0.499 -0.2535  0.2720 -0.4558
41560SOL    HW134610  12.721   8.032   0.436 -0.2517  2.0697 -0.5621
41560SOL    HW234611  12.591   8.103   0.467 -1.8934 -0.9290 -0.1943
41561SOL     OW34612   7.790   0.586   5.684 -0.2321  0.1536 -0.1717
41561SOL    HW134613   7.868   0.532   5.670  0.4568  0.9174  0.5601
41561SOL    HW234614   7.739   0.576   5.604  0.6101 -0.3910 -0.6584
41562SOL     OW34615   4.089   5.593   2.518  0.5357 -0.1530  0.3258
41562SOL    HW134616   4.159   5.534   2.548 -0.0169 -1.4759 -0.8868
41562SOL    HW234617   4.103   5.599   2.423 -1.0082 -0.4923  0.0562
41563SOL     OW34618   6.236   7.820  11.786  0.2600 -0.2657 -0.3218
41563SOL    HW134619   6.141   7.825  11.770  0.2565 -1.4730 -0.7710
41563SOL    HW234620   6.268   7.908  11.764 -0.8910  0.5245  0.9557
41564SOL     OW34621  12.501   2.579   4.340 -0.6766 -0.3991  0.0595
41564SOL    HW134622  12.513   2.649   4.404 -0.0275 -0.0407 -0.4382
41564SOL    HW234623  12.519   2.620   4.256 -0.6887 -1.0677 -0.2783
41565SOL     OW34624  12.293   0.284   4.740  0.1204 -0.0342 -0.2333
41565SOL    HW134625  12.353   0.274   4.667  0.0964 -0.8722 -0.1527
41565SOL    HW234626  12.215   0.235   4.714 -0.3899  0.7338 -0.1804
41566SOL     OW34627   5.322   9.488   2.257  0.1734 -0.3700 -0.2381
41566SOL    HW134628   5.357   9.577   2.251 -1.0029  0.0521 -1.1108
41566SOL    HW234629   5.238   9.497   2.301 -0.5346 -0.8663 -1.4321
41567SOL     OW34630   3.843   4.868   6.797 -0.4187 -0.6234  0.5890
41567SOL    HW134631   3.797   4.900   6.718  0.4538  0.8083  0.6343
41567SOL    HW234632   3.853   4.945   6.852 -0.6516 -1.5300  1.9601
41568SOL     OW34633  12.700   0.145   4.569 -0.2225 -0.1664 -0.7315
41568SOL    HW134634  12.765   0.100   4.515  1.0054  0.8412 -0.1573
41568SOL    HW234635  12.731   0.130   4.659 -0.0484  1.3791 -0.5068
41569SOL     OW34636   5.720   2.636  11.967  0.7371  0.1798 -0.7537
41569SOL    HW134637   5.711   2.546  11.999 -0.5761  0.2954 -0.7217
41569SOL    HW234638   5.632   2.659  11.937  0.8344  1.7734  0.0935
41570SOL     OW34639  10.515   8.586  12.192  0.2901  0.1034  0.5907
41570SOL    HW134640  10.567   8.564  12.115  0.2746 -1.7255  1.0420
41570SOL    HW234641  10.578   8.591  12.263 -0.0352 -1.9104  1.1013
41571SOL     OW34642  12.070   2.506  11.673 -0.4445 -0.0197 -0.0035
41571SOL    HW134643  12.046   2.596  11.652 -0.0976 -0.2070 -1.2759
41571SOL    HW234644  12.154   2.492  11.628 -0.3016 -0.8556  0.4958
41572SOL     OW34645   4.602   9.005   7.038 -0.9591  0.0907 -0.2955
41572SOL    HW134646   4.694   9.024   7.053 -0.7344  0.5020 -1.9769
41572SOL    HW234647   4.575   8.953   7.113  0.3395  0.9052  0.7797
41573SOL     OW34648   2.688  11.715  12.306 -0.6204  0.3423  0.2588
41573SOL    HW134649   2.698  11.731  12.213  0.1904  0.6803  0.4011
41573SOL    HW234650   2.748  11.643  12.325  1.4284  2.1778  1.0544
41574SOL     OW34651  10.303  13.204   0.283 -0.1593 -0.3954 -0.3073
41574SOL    HW134652  10.354  13.197   0.364 -1.5785 -1.9406  0.5053
41574SOL    HW234653  10.368  13.228   0.217  1.3022 -0.5047  1.0224
41575SOL     OW34654  12.465   2.706   1.153  0.0210  0.5753 -0.2300
41575SOL    HW134655  12.469   2.610   1.151  0.2723  0.5895 -0.4265
41575SOL    HW234656  12.543   2.733   1.200 -0.6381  0.6462  0.8437
41576SOL     OW34657   7.404   9.827   4.076  0.3270  0.5727 -0.0216
41576SOL    HW134658   7.319   9.816   4.034 -1.1127  0.4259  2.7085
41576SOL    HW234659   7.468   9.813   4.006 -1.8100 -1.8736 -1.6441
41577SOL     OW34660   1.434  11.935   2.338  0.0099 -0.0172  0.4932
41577SOL    HW134661   1.422  11.957   2.430 -0.1594  0.5574  0.3399
41577SOL    HW234662   1.348  11.901   2.310 -0.6287  1.8677  0.0017
41578SOL     OW34663   3.184   1.408   5.231 -0.1549 -0.3619  0.2268
41578SOL    HW134664   3.104   1.382   5.277 -0.5192 -2.8854 -1.5989
41578SOL    HW234665   3.215   1.327   5.191  1.9044  1.0706 -1.2440
41579SOL     OW34666   9.261   9.876  12.672  0.5289 -0.5269 -0.0088
41579SOL    HW134667   9.276   9.782  12.667  1.4743 -0.3226 -1.6053
41579SOL    HW234668   9.348   9.915  12.667  0.0939  0.4551 -0.2502
41580SOL     OW34669   1.304   3.853   7.330 -0.3623 -0.3041 -0.1030
41580SOL    HW134670   1.337   3.868   7.419 -2.8464 -0.9327  1.0117
41580SOL    HW234671   1.237   3.921   7.318  0.1142 -0.0686 -1.6317
41581SOL     OW34672   3.027   3.683  11.547  0.2755  0.2974 -0.7440
41581SOL    HW134673   3.012   3.657  11.638 -3.3799 -0.9940 -1.5800
41581SOL    HW234674   3.011   3.777  11.546  0.5758  0.3630 -0.0430
41582SOL     OW34675   5.932   6.376   7.152  0.1612 -0.1251  0.3251
41582SOL    HW134676   5.911   6.322   7.076 -1.5093 -0.0213  0.6715
41582SOL    HW234677   5.998   6.438   7.120 -0.4284 -0.1581 -1.0177
41583SOL     OW34678   4.555   1.687   7.570 -0.5855  0.2534 -0.2007
41583SOL    HW134679   4.498   1.685   7.493 -1.9898 -1.8269  0.7811
41583SOL    HW234680   4.628   1.630   7.546 -1.2136 -0.7084  0.0850
41584SOL     OW34681  10.872   0.164   3.287 -0.1108  0.2036  0.1888
41584SOL    HW134682  10.873   0.094   3.354 -1.7057  1.8501  2.0755
41584SOL    HW234683  10.964   0.177   3.264  0.5925  0.0155  2.6208
41585SOL     OW34684   7.570   9.521   6.175  0.1361 -0.7665  0.3161
41585SOL    HW134685   7.621   9.591   6.135  0.6995 -1.0787  0.4726
41585SOL    HW234686   7.543   9.465   6.103  0.5207 -0.9241  0.2940
41586SOL     OW34687  12.867   4.729  12.023 -0.2727  0.8032  0.0998
41586SOL    HW134688  12.953   4.771  12.012 -0.8139  1.9355 -0.0501
41586SOL    HW234689  12.841   4.706  11.934 -0.1669  0.5375  0.1363
41587SOL     OW34690   3.387  10.664   7.450  0.3623 -0.7063 -0.2832
41587SOL    HW134691   3.437  10.745   7.447  1.7280 -1.3624  2.1873
41587SOL    HW234692   3.445  10.601   7.493 -1.6352 -2.2454  0.3276
41588SOL     OW34693  11.788   5.698   7.192 -0.2788 -0.3710 -0.2266
41588SOL    HW134694  11.751   5.635   7.254 -1.2828  0.4943  0.0653
41588SOL    HW234695  11.774   5.783   7.233  0.0086  0.1330 -1.1594
41589SOL     OW34696   3.878  10.779   7.148  0.0637 -0.0205 -0.4304
41589SOL    HW134697   3.904  10.786   7.056 -0.5890  0.1942 -0.6066
41589SOL    HW234698   3.806  10.842   7.157  1.6918  1.8018  0.8336
41590SOL     OW34699  13.263   9.530   5.059  0.0503  0.1456  0.4821
41590SOL    HW134700  13.320   9.506   5.131  0.2950  0.9010  0.5484
41590SOL    HW234701  13.321   9.538   4.983  0.0450  0.9575  0.5581
41591SOL     OW34702  11.800   7.281  11.907 -0.0110  0.1065 -0.4965
41591SOL    HW134703  11.783   7.332  11.828  0.0213 -0.0021 -0.5733
41591SOL    HW234704  11.891   7.254  11.899 -0.2883 -0.7492 -0.9091
41592SOL     OW34705   9.860  10.817   3.999  0.0765 -0.0458  0.8766
41592SOL    HW134706   9.786  10.877   3.992  0.8954  0.8978 -0.1805
41592SOL    HW234707   9.856  10.765   3.918  0.4774 -0.1032  0.8912
41593SOL     OW34708   4.957  10.044   0.328 -0.1114 -0.0091 -0.3290
41593SOL    HW134709   4.876  10.055   0.379 -0.8256  1.0177 -1.6051
41593SOL    HW234710   4.969   9.950   0.322  0.5026 -0.1880  2.4353
41594SOL     OW34711   9.294   1.562  12.667  0.0856  0.5740 -0.3637
41594SOL    HW134712   9.284   1.504  12.743 -0.9597 -0.3911 -1.2116
41594SOL    HW234713   9.206   1.595  12.651 -0.3288 -1.4795 -2.8682
41595SOL     OW34714   4.830   6.911   4.959  0.1174  0.1954 -0.2328
41595SOL    HW134715   4.826   7.006   4.969 -0.5822  0.5561 -3.1335
41595SOL    HW234716   4.912   6.895   4.912 -0.0142 -0.5877 -0.2153
41596SOL     OW34717   8.676  11.767   9.517  0.1179  0.1878  0.0713
41596SOL    HW134718   8.662  11.709   9.442 -1.5187  0.5798  0.0482
41596SOL    HW234719   8.645  11.717   9.592 -1.7026  1.1301  0.0010
41597SOL     OW34720   1.956   9.664   1.912  0.2656 -0.2673 -0.0402
41597SOL    HW134721   2.033   9.706   1.949 -0.4196 -0.9146  2.3138
41597SOL    HW234722   1.990   9.604   1.845  1.6578  0.4518  0.0052
41598SOL     OW34723  11.766   3.909   9.458  0.0657  1.0052 -0.4851
41598SOL    HW134724  11.749   4.001   9.438 -1.5807  0.7400 -0.4468
41598SOL    HW234725  11.679   3.870   9.469  0.7360 -0.4961 -0.2059
41599SOL     OW34726   1.377   1.082  10.542 -0.0494  0.3175  0.5899
41599SOL    HW134727   1.417   1.038  10.617 -0.3238  0.8405  1.0516
41599SOL    HW234728   1.307   1.135  10.580  0.8562  1.8713  0.1604
41600SOL     OW34729   2.262   9.147  12.018  1.0621 -0.1648  0.2664
41600SOL    HW134730   2.260   9.084  12.091  3.1627 -0.8734 -0.2048
41600SOL    HW234731   2.275   9.093  11.940  0.1263  0.6855 -0.5070
41601SOL     OW34732   7.265  11.957  12.069 -0.3518 -0.3232 -0.0054
41601SOL    HW134733   7.283  12.030  12.129 -0.6274  1.2338 -1.7107
41601SOL    HW234734   7.192  11.911  12.108 -0.8022  0.9043  0.6674
41602SOL     OW34735  10.640   4.943   4.423  0.3556 -0.3927 -0.0987
41602SOL    HW134736  10.618   4.885   4.496 -1.8159 -1.3949 -1.4335
41602SOL    HW234737  10.638   5.031   4.461  0.6285 -0.9740  1.3249
41603SOL     OW34738  10.712   4.559   7.925  0.2443  0.1508 -0.2491
41603SOL    HW134739  10.658   4.481   7.912  0.0367  0.3333 -0.4783
41603SOL    HW234740  10.689   4.590   8.013  0.0262  0.1907 -0.3206
41604SOL     OW34741   9.637  11.632  12.387 -0.1374  0.2491  0.0182
41604SOL    HW134742   9.658  11.635  12.480 -1.3833 -0.5216  0.3463
41604SOL    HW234743   9.628  11.539  12.367  1.2625  0.3252 -1.1733
41605SOL     OW34744   3.936   2.692  10.061 -0.1729  0.3763  0.0792
41605SOL    HW134745   3.902   2.607  10.090 -1.4622  0.8945  0.1565
41605SOL    HW234746   3.894   2.707   9.976 -0.5003  1.2381  0.3782
41606SOL     OW34747   4.664   1.439   4.102 -0.2447  0.9403 -1.0279
41606SOL    HW134748   4.654   1.344   4.106  0.8471  0.5594 -4.2535
41606SOL    HW234749   4.595   1.469   4.043  0.2257  1.9702 -1.0889
41607SOL     OW34750  12.838  12.892   3.380  0.4626  0.3571 -0.0175
41607SOL    HW134751  12.904  12.954   3.412 -0.5301  1.9455 -0.9511
41607SOL    HW234752  12.790  12.940   3.313 -1.1462 -1.0332  0.0787
41608SOL     OW34753  13.079   6.807   8.563 -0.3701 -0.5010  0.2469
41608SOL    HW134754  13.014   6.784   8.630 -1.5042 -1.3703 -1.1066
41608SOL    HW234755  13.161   6.770   8.596 -0.9235 -0.9851  1.1131
41609SOL     OW34756   5.934   4.286   9.784 -0.6148 -0.1674 -0.1348
41609SOL    HW134757   5.853   4.237   9.773 -0.3054 -0.7389  0.0900
41609SOL    HW234758   5.912   4.376   9.758 -1.5276 -0.1366  0.6786
41610SOL     OW34759   1.344   1.023   4.551 -0.3965 -0.0158 -0.4822
41610SOL    HW134760   1.302   1.045   4.467 -3.7599  2.8303  1.6732
41610SOL    HW234761   1.292   0.949   4.584 -0.3074  0.0899 -0.1037
41611SOL     OW34762   4.931   0.737   8.464  0.1980  0.6874 -0.1072
41611SOL    HW134763   4.975   0.799   8.522 -0.4448  2.2480 -1.2054
41611SOL    HW234764   4.844   0.775   8.451 -1.3466 -1.9859  1.5405
41612SOL     OW34765  13.090   6.848   1.059  0.0642 -0.2850 -0.5355
41612SOL    HW134766  13.146   6.861   1.135  1.4456  1.1200 -1.7306
41612SOL    HW234767  13.021   6.788   1.090  0.6239  0.1609  1.7526
41613SOL     OW34768   5.956   1.353   9.361 -0.4385  0.2740 -0.9068
41613SOL    HW134769   5.977   1.437   9.322  2.1693 -0.0097 -0.3222
41613SOL    HW234770   5.934   1.374   9.452  2.7845  0.2213 -0.0059
41614SOL     OW34771   0.460   1.391  12.715  0.1376  0.3211  0.1642
41614SOL    HW134772   0.373   1.392  12.676 -0.2616  1.8192  1.0198
41614SOL    HW234773   0.471   1.301  12.746 -1.2639  0.2039  0.3791
41615SOL     OW34774  11.950   9.909   0.964  0.4500 -0.0166  0.2596
41615SOL    HW134775  12.032   9.861   0.980  0.5489  0.4037  1.0738
41615SOL    HW234776  11.978   9.991   0.924  0.3712 -0.1594 -0.0873
41616SOL     OW34777   6.154  10.063   5.612  0.0639 -0.0185  0.3344
41616SOL    HW134778   6.114  10.143   5.580  1.8431  0.4381 -0.9284
41616SOL    HW234779   6.160  10.007   5.535  1.5568 -0.1531  0.5091
41617SOL     OW34780  10.583   3.786   8.654  0.4922 -0.6261  0.2603
41617SOL    HW134781  10.494   3.762   8.629  0.9666  0.2216 -2.6969
41617SOL    HW234782  10.571   3.856   8.718 -1.0226 -0.1125 -0.5158
41618SOL     OW34783   2.606   5.306   7.100 -0.2716  0.1808  0.1733
41618SOL    HW134784   2.559   5.223   7.109 -1.1695  0.5776 -0.6310
41618SOL    HW234785   2.648   5.301   7.014 -0.6824  0.7097 -0.0692
41619SOL     OW34786   2.153  12.898  11.189 -0.2364 -0.1803  0.3051
41619SOL    HW134787   2.125  12.860  11.106 -1.1980  0.3678  0.3616
41619SOL    HW234788   2.181  12.823  11.242  1.6618 -0.4491 -0.9384
41620SOL     OW34789   5.073   7.246   3.493  0.3048  0.3109 -0.6665
41620SOL    HW134790   4.982   7.245   3.522  0.4305  0.2902 -0.2680
41620SOL    HW234791   5.121   7.287   3.565  0.6462  0.0933 -0.7649
41621SOL     OW34792   0.840  10.491   8.701  0.4609 -0.0552  0.5728
41621SOL    HW134793   0.782  10.554   8.658 -1.3312 -0.9914  1.5111
41621SOL    HW234794   0.870  10.537   8.779 -1.6284 -0.6249  1.7799
41622SOL     OW34795   8.991   2.140   1.888  0.3844 -0.4370 -0.3015
41622SOL    HW134796   8.987   2.140   1.984 -3.5762 -0.4146 -0.2791
41622SOL    HW234797   8.936   2.065   1.862  0.4162  0.2515 -2.5493
41623SOL     OW34798  10.824  11.900  10.890  0.4800  0.1383 -0.2183
41623SOL    HW134799  10.905  11.940  10.858 -0.4591  0.7576 -1.9151
41623SOL    HW234800  10.803  11.949  10.969  1.6925  0.0203  0.2076
41624SOL     OW34801   7.279   1.352   1.622  0.1718  0.0595 -0.5342
41624SOL    HW134802   7.198   1.403   1.617  0.1702  0.0729 -0.3957
41624SOL    HW234803   7.276   1.312   1.709  1.1611  1.4960  0.2047
41625SOL     OW34804   2.123   3.443   7.148  0.2333 -0.5725 -0.2382
41625SOL    HW134805   2.077   3.499   7.211 -1.6662  0.6402 -2.5226
41625SOL    HW234806   2.086   3.468   7.063  2.9660 -1.8092 -1.9195
41626SOL     OW34807   8.971   6.468   8.301 -0.5290  0.4035 -0.3195
41626SOL    HW134808   8.888   6.445   8.259 -0.2880  0.8374 -1.0416
41626SOL    HW234809   9.036   6.412   8.258 -0.3574  0.4757 -0.1550
41627SOL     OW34810   1.693  10.087   5.568 -0.0864  0.4579  0.1874
41627SOL    HW134811   1.722  10.027   5.499  0.1032  1.9589 -1.0926
41627SOL    HW234812   1.622  10.040   5.612 -0.8217 -0.2029 -1.6001
41628SOL     OW34813   5.148   7.264   4.791  0.0946 -0.5139 -0.1241
41628SOL    HW134814   5.104   7.304   4.866  0.5866 -1.8324  0.9098
41628SOL    HW234815   5.116   7.313   4.716 -0.7189  0.5978  0.9007
41629SOL     OW34816   7.482  12.334   1.207  0.2240  0.1995  0.8566
41629SOL    HW134817   7.478  12.238   1.209 -0.6862  0.1252 -1.3632
41629SOL    HW234818   7.570  12.355   1.238  0.2884 -1.3038  1.8067
41630SOL     OW34819   5.822  12.569   0.595 -0.1175  0.6767 -0.8999
41630SOL    HW134820   5.808  12.649   0.544 -0.7690  0.3029 -1.3302
41630SOL    HW234821   5.785  12.588   0.681  0.7907  1.2377 -0.6205
41631SOL     OW34822  10.122  12.215   4.351 -0.3325 -0.1125  0.1493
41631SOL    HW134823  10.159  12.187   4.267 -1.6222 -0.1883 -0.4171
41631SOL    HW234824  10.193  12.263   4.394  0.2742  0.1304 -1.0834
41632SOL     OW34825   9.409  10.990   8.559 -0.3362  0.0702 -0.4274
41632SOL    HW134826   9.397  10.962   8.468 -2.8290  0.3476 -0.2368
41632SOL    HW234827   9.326  11.029   8.584  0.3981  0.3230  1.8966
41633SOL     OW34828   8.602   0.002   1.443 -0.1053  0.0513  0.5482
41633SOL    HW134829   8.679   0.043   1.483  0.5455  1.6896 -2.1090
41633SOL    HW234830   8.638  -0.073   1.395 -0.0905  0.9163 -0.8308
41634SOL     OW34831   7.625   8.293   5.777  0.3543 -0.1605  0.0944
41634SOL    HW134832   7.592   8.382   5.777  3.9227  1.3691  0.8541
41634SOL    HW234833   7.628   8.267   5.685 -2.1709 -0.2142 -0.0324
41635SOL     OW34834   0.965   0.550   4.635  0.0479 -0.1484  0.4047
41635SOL    HW134835   1.040   0.574   4.689  0.0351  0.7376  0.0640
41635SOL    HW234836   0.974   0.456   4.620  0.8332 -0.1332  0.7487
41636SOL     OW34837   4.648   8.437   0.465 -0.3679  0.5061  0.1198
41636SOL    HW134838   4.659   8.342   0.468 -1.6801  0.3257 -0.2170
41636SOL    HW234839   4.722   8.471   0.515  0.0437 -0.6930  0.3711
41637SOL     OW34840   7.994   4.163   3.323 -0.5440 -0.1766  0.1400
41637SOL    HW134841   8.036   4.203   3.399 -0.9481 -0.4563  0.5174
41637SOL    HW234842   7.913   4.213   3.312 -0.6050 -0.2953  0.0497
41638SOL     OW34843   1.699   9.005   1.934 -0.1798  0.3970 -0.2372
41638SOL    HW134844   1.629   9.021   1.997 -0.4276  1.0384 -0.6559
41638SOL    HW234845   1.749   8.933   1.971 -0.2674  0.8133  0.7388
41639SOL     OW34846   5.868   7.018   3.526  0.0762 -0.4180  0.4990
41639SOL    HW134847   5.941   7.050   3.579 -1.1966  1.3168  1.2902
41639SOL    HW234848   5.808   6.979   3.589 -0.3849 -0.4445  0.0487
41640SOL     OW34849   2.240   6.798   0.536  0.5889  0.0336  0.6510
41640SOL    HW134850   2.251   6.809   0.630 -1.5994 -1.8755  1.2257
41640SOL    HW234851   2.146   6.790   0.524  0.9420 -2.4994 -1.2990
41641SOL     OW34852   6.477   6.231   1.289 -0.3543 -0.2233  0.6125
41641SOL    HW134853   6.556   6.273   1.255 -0.3524  0.3429  1.2992
41641SOL    HW234854   6.477   6.251   1.382 -1.7988  0.5850  0.4626
41642SOL     OW34855   4.874   6.613   6.132 -0.0646  0.4397 -0.3639
41642SOL    HW134856   4.789   6.650   6.108 -0.1892  2.1123  2.2331
41642SOL    HW234857   4.857   6.563   6.212  1.5374  1.9958  1.0551
41643SOL     OW34858   7.900  13.037   4.146 -0.3460  0.3630  0.1809
41643SOL    HW134859   7.827  12.988   4.108  0.6171 -0.5308 -0.5768
41643SOL    HW234860   7.872  13.054   4.236 -1.6843  0.4704 -0.2304
41644SOL     OW34861   8.258  10.104   5.519  0.2884 -0.7125 -0.3909
41644SOL    HW134862   8.251  10.196   5.492 -1.3924 -1.0448 -1.1698
41644SOL    HW234863   8.290  10.108   5.610  0.1323  0.6308 -0.3803
41645SOL     OW34864   8.733   9.237   0.843  0.1229 -0.6347  0.0606
41645SOL    HW134865   8.681   9.312   0.816 -0.7831 -1.6508 -1.1072
41645SOL    HW234866   8.823   9.269   0.841 -0.3694  1.3135  2.6399
41646SOL     OW34867  12.509   2.214   1.670 -0.1993 -0.3220 -0.1895
41646SOL    HW134868  12.591   2.196   1.624  0.5652  1.7795  0.1934
41646SOL    HW234869  12.534   2.276   1.740 -1.8547 -0.8772  0.9694
41647SOL     OW34870  11.333   1.486   2.326 -0.4005  0.6852  0.2717
41647SOL    HW134871  11.338   1.494   2.422 -0.9923  1.3714  0.2590
41647SOL    HW234872  11.370   1.400   2.307 -1.5834 -0.0877  1.2542
41648SOL     OW34873   0.001   1.917  12.052 -0.4151  0.0941 -0.0257
41648SOL    HW134874  -0.070   1.855  12.040  0.0813 -0.1740 -1.9212
41648SOL    HW234875  -0.033   2.000  12.018 -0.1529  0.2174  0.0054
41649SOL     OW34876   5.724   5.674  10.202  0.1921 -0.1114 -0.0453
41649SOL    HW134877   5.683   5.674  10.288 -0.6501  0.6179 -0.4442
41649SOL    HW234878   5.754   5.583  10.190 -0.4660 -0.4232  0.6385
41650SOL     OW34879   0.423   3.813   5.678  0.4269  0.7021  0.2538
41650SOL    HW134880   0.515   3.824   5.656  0.2829  1.6375  0.0501
41650SOL    HW234881   0.394   3.901   5.704 -0.3148  0.3492  0.6570
41651SOL     OW34882   6.655   5.636   9.520 -0.1766  0.1077 -0.0579
41651SOL    HW134883   6.595   5.602   9.454 -0.1439 -0.6619  0.2941
41651SOL    HW234884   6.625   5.725   9.536 -2.0224 -0.6484  1.0063
41652SOL     OW34885   3.574   5.651  11.485  0.6360  0.0332 -0.3830
41652SOL    HW134886   3.574   5.747  11.491  1.0150  0.0531 -0.6193
41652SOL    HW234887   3.593   5.633  11.393  1.1366 -0.2677 -0.2262
41653SOL     OW34888   1.716   3.845   9.116  0.1857  0.3109  0.2002
41653SOL    HW134889   1.802   3.810   9.092 -0.0279 -1.3685  1.7268
41653SOL    HW234890   1.736   3.921   9.171  0.7550 -0.8466  1.6547
41654SOL     OW34891  11.586   8.547   3.114 -0.1370  0.2543 -0.1130
41654SOL    HW134892  11.577   8.500   3.031 -0.4721 -0.7343  0.4620
41654SOL    HW234893  11.564   8.482   3.181 -0.0525  1.0818  0.7454
41655SOL     OW34894   2.232   3.327  10.480 -0.0666 -0.0059 -0.4050
41655SOL    HW134895   2.163   3.370  10.429  1.1293  1.6034 -0.7412
41655SOL    HW234896   2.281   3.399  10.520 -0.2699 -1.1645  2.1657
41656SOL     OW34897   5.293   4.887   6.012  0.1332 -0.7736 -0.4793
41656SOL    HW134898   5.388   4.893   6.022  0.1211 -1.1930 -0.1025
41656SOL    HW234899   5.270   4.963   5.958  0.3372  1.1064  1.9011
41657SOL     OW34900   6.151   5.501   5.554  0.2227  0.3057  0.3806
41657SOL    HW134901   6.130   5.541   5.638  2.0414  2.1362  0.0188
41657SOL    HW234902   6.111   5.558   5.489  1.9789  1.0283 -0.1083
41658SOL     OW34903  10.755   8.528   9.753  0.1860 -0.3846 -0.3995
41658SOL    HW134904  10.799   8.495   9.831  0.5433  0.4275 -0.2434
41658SOL    HW234905  10.663   8.530   9.776 -0.0960 -2.8903 -1.0061
41659SOL     OW34906  12.254   1.124  11.635 -0.4199  0.3465  0.5184
41659SOL    HW134907  12.245   1.203  11.687 -0.3743  0.2798  0.6285
41659SOL    HW234908  12.214   1.055  11.688  0.9418 -0.0073  1.1377
41660SOL     OW34909   1.727   7.050   5.786  0.1891 -0.2964 -0.4018
41660SOL    HW134910   1.727   7.142   5.813  0.5645 -0.2174 -0.6765
41660SOL    HW234911   1.817   7.020   5.800  0.2693 -0.3939 -1.0911
41661SOL     OW34912   1.607  12.674   4.433  0.3301 -0.3344  0.8658
41661SOL    HW134913   1.590  12.690   4.340  2.2616 -0.7886  0.3738
41661SOL    HW234914   1.580  12.584   4.447 -1.8658  0.3367  1.3002
41662SOL     OW34915   3.082  12.530   9.925 -0.0863 -0.2702 -0.3637
41662SOL    HW134916   3.173  12.558   9.933 -0.2495 -0.2029  1.8438
41662SOL    HW234917   3.051  12.574   9.846  1.5381  0.3992 -0.6835
41663SOL     OW34918   0.428   1.171   0.920 -0.2794  0.1761 -0.1877
41663SOL    HW134919   0.474   1.126   0.849  0.1898  1.3394 -0.6398
41663SOL    HW234920   0.336   1.170   0.893 -0.2951 -0.6214 -0.1240
41664SOL     OW34921   5.756   8.895  10.858  0.0020 -0.0910  0.3054
41664SOL    HW134922   5.681   8.954  10.869 -0.2686 -0.6266  1.4807
41664SOL    HW234923   5.729   8.836  10.788 -0.1224  0.5493 -0.1992
41665SOL     OW34924   0.581   2.381  11.770 -0.2589  0.3730 -0.3465
41665SOL    HW134925   0.501   2.334  11.793 -0.3718  0.3314 -0.8098
41665SOL    HW234926   0.569   2.406  11.678 -0.2080  1.3444 -0.0911
41666SOL     OW34927   2.181   1.619   1.071 -0.0220  0.1244 -0.3052
41666SOL    HW134928   2.238   1.574   1.009  0.4893 -1.8413  1.4573
41666SOL    HW234929   2.241   1.669   1.126 -0.5085  2.2385 -1.6075
41667SOL     OW34930   3.265   6.226   1.785 -0.0152  0.7471 -0.1455
41667SOL    HW134931   3.218   6.239   1.702 -1.4934 -0.4392  0.4752
41667SOL    HW234932   3.270   6.314   1.823  1.0408  1.3775 -1.6453
41668SOL     OW34933   1.735   8.986   4.847 -0.1445  0.3351  0.0961
41668SOL    HW134934   1.812   9.032   4.814  0.9421  0.4218  2.4858
41668SOL    HW234935   1.714   8.921   4.780  2.9031 -0.6652 -0.0361
41669SOL     OW34936  10.313  11.179   0.253  0.0240  0.0715  0.2632
41669SOL    HW134937  10.339  11.270   0.244  2.5240 -0.3968  1.7359
41669SOL    HW234938  10.223  11.176   0.220  0.2254  2.8249 -0.7851
41670SOL     OW34939   7.544   7.398   9.072  0.0200 -0.0985  0.0761
41670SOL    HW134940   7.630   7.408   9.031  0.5695 -2.2255  0.6050
41670SOL    HW234941   7.505   7.323   9.029  0.3562 -2.0246  2.8699
41671SOL     OW34942   2.159   3.646   3.333 -0.4873  0.8326  0.0172
41671SOL    HW134943   2.243   3.671   3.372  0.0662 -0.1992 -0.4843
41671SOL    HW234944   2.108   3.612   3.407  0.8214 -1.7925 -0.1988
41672SOL     OW34945   0.829   9.750  11.506  0.4849 -0.4405 -0.7484
41672SOL    HW134946   0.771   9.722  11.577  1.2585 -1.0990 -0.3526
41672SOL    HW234947   0.784   9.823  11.465 -0.7816 -1.1410 -0.6659
41673SOL     OW34948  13.156   2.723   7.335  0.4876 -0.2562 -0.1739
41673SOL    HW134949  13.246   2.752   7.349  0.4557  0.1917 -0.8389
41673SOL    HW234950  13.104   2.771   7.399  0.5153  0.7231 -0.8618
41674SOL     OW34951   6.675   1.857   4.780 -0.1637 -0.6547  0.1630
41674SOL    HW134952   6.676   1.951   4.795  0.1216 -0.6118 -0.1284
41674SOL    HW234953   6.654   1.848   4.687  0.2445 -0.8694  0.0922
41675SOL     OW34954  12.595   1.476   4.133 -0.3778  0.0675  0.0149
41675SOL    HW134955  12.613   1.405   4.195 -0.8556  0.3912  0.5331
41675SOL    HW234956  12.507   1.457   4.099 -0.4705  0.3494  0.0870
41676SOL     OW34957   2.062   6.358  10.077 -0.0304  0.5467 -0.0364
41676SOL    HW134958   2.113   6.410  10.139  0.8732 -0.4777  0.1043
41676SOL    HW234959   2.017   6.423  10.023  0.6665  1.4670  0.4580
41677SOL     OW34960   1.989   6.074  10.104 -0.3605  0.3642  0.0270
41677SOL    HW134961   1.904   6.071  10.061 -0.2846 -0.5868 -0.0880
41677SOL    HW234962   2.006   6.167  10.119 -1.4123  0.5580  0.0491
41678SOL     OW34963   6.742  10.194   5.274  0.2342 -0.0628 -0.1684
41678SOL    HW134964   6.748  10.111   5.320 -1.2896  0.4324  0.9891
41678SOL    HW234965   6.747  10.170   5.181 -0.6101 -1.4888  0.1246
41679SOL     OW34966  12.097  10.844   5.383 -0.1711 -0.8623 -0.3366
41679SOL    HW134967  12.005  10.826   5.362 -1.0774  1.7430  0.9184
41679SOL    HW234968  12.100  10.845   5.479 -0.1619  3.9413 -0.1327
41680SOL     OW34969   1.727   6.850   5.271  0.1155 -0.5607  0.0604
41680SOL    HW134970   1.728   6.927   5.328 -0.8944 -1.7008  1.7130
41680SOL    HW234971   1.820   6.830   5.256  0.3929  0.2184  0.6717
41681SOL     OW34972   4.752  10.357   0.537  0.2974 -0.3488  0.3745
41681SOL    HW134973   4.658  10.348   0.556 -0.0601  0.4801 -0.8543
41681SOL    HW234974   4.765  10.305   0.458  0.5298  0.7637 -0.3461
41682SOL     OW34975   5.810   0.556  11.674 -0.3219 -0.1801 -0.4575
41682SOL    HW134976   5.866   0.554  11.597  2.2216 -0.9482  1.2891
41682SOL    HW234977   5.851   0.619  11.733 -0.9616 -1.1561  1.1050
41683SOL     OW34978   4.744   0.311  12.250  0.8868 -1.0083  0.0378
41683SOL    HW134979   4.815   0.354  12.203  0.5007 -0.0792  0.2828
41683SOL    HW234980   4.789   0.254  12.314  1.4015 -1.3061 -0.5764
41684SOL     OW34981   8.305  11.678   2.851 -0.1135  0.3204 -0.2497
41684SOL    HW134982   8.359  11.696   2.928  0.1886  1.5517 -0.7374
41684SOL    HW234983   8.216  11.672   2.884  0.3666 -4.0458  0.9830
41685SOL     OW34984   0.933   9.457  10.591  0.5927 -0.2354  0.1917
41685SOL    HW134985   0.857   9.427  10.542  0.5302 -0.2591  0.3019
41685SOL    HW234986   0.912   9.438  10.682  0.2726  0.7049  0.3323
41686SOL     OW34987  11.315   8.774   1.142  0.2116 -0.3313 -0.2380
41686SOL    HW134988  11.329   8.841   1.209 -1.3537  0.8484 -1.0185
41686SOL    HW234989  11.313   8.691   1.190 -0.2460  0.4324  1.0987
41687SOL     OW34990   7.181   4.052   3.599  0.2645  0.0412  0.0758
41687SOL    HW134991   7.168   3.959   3.617 -0.6280  0.1705  0.1300
41687SOL    HW234992   7.102   4.079   3.552  0.4078  0.8206  0.2645
41688SOL     OW34993   5.635   6.464  13.145 -0.5921  0.0324  0.2097
41688SOL    HW134994   5.704   6.529  13.128 -0.9261  0.1574 -0.7595
41688SOL    HW234995   5.682   6.383  13.165 -0.1334 -0.0858 -1.2204
41689SOL     OW34996  12.289   4.226   9.622 -0.3358  0.1101  0.1915
41689SOL    HW134997  12.223   4.276   9.573 -0.1271 -1.2035 -1.5180
41689SOL    HW234998  12.290   4.140   9.579  3.6367  0.5734 -0.9805
41690SOL     OW34999   3.694   0.306   2.611  0.3745  0.7047 -0.9512
41690SOL    HW135000   3.777   0.336   2.573  0.6633  0.8120 -0.2450
41690SOL    HW235001   3.652   0.257   2.540  1.8701 -0.9196 -0.7724
41691SOL     OW35002  13.105   0.214   2.486 -0.3068  0.0398  0.3773
41691SOL    HW135003  13.049   0.148   2.446 -2.5252  2.1791 -0.2641
41691SOL    HW235004  13.054   0.248   2.560  0.7561  1.0463  0.6899
41692SOL     OW35005   3.162   3.619  12.850  0.2189  0.1950  0.2500
41692SOL    HW135006   3.119   3.547  12.896  0.9056 -0.1352  0.3939
41692SOL    HW235007   3.177   3.685  12.918 -0.8045  0.6709  0.0317
41693SOL     OW35008   0.047   5.133   0.113 -0.0048  0.2248  0.4900
41693SOL    HW135009   0.061   5.110   0.205  0.9682  0.5433  0.4348
41693SOL    HW235010   0.046   5.229   0.112  0.1540  0.2255  0.1530
41694SOL     OW35011  12.123   9.981   5.134  0.3225 -0.6101 -0.4199
41694SOL    HW135012  12.161   9.986   5.222  0.2187 -0.4801 -0.3821
41694SOL    HW235013  12.160  10.057   5.088  0.2113 -0.5588 -0.4244
41695SOL     OW35014   4.240   5.438   1.904 -0.6024  0.4719 -0.6363
41695SOL    HW135015   4.289   5.359   1.927  0.8001  0.7164 -2.5573
41695SOL    HW235016   4.306   5.501   1.878 -1.7800  1.8822 -0.3751
41696SOL     OW35017  11.546   0.060  10.966  0.3876  0.3011  0.4493
41696SOL    HW135018  11.590   0.057  11.051  0.1950 -3.2168  0.5640
41696SOL    HW235019  11.481  -0.010  10.970 -0.0329  0.4151 -2.3972
41697SOL     OW35020  10.033   6.896   8.831  0.0414  0.2020 -0.0183
41697SOL    HW135021  10.113   6.941   8.804 -0.2361  0.2402 -0.8077
41697SOL    HW235022  10.038   6.810   8.789  0.2211 -0.2396  0.8898
41698SOL     OW35023   7.457   7.544   4.216  0.0074 -0.4837 -0.0912
41698SOL    HW135024   7.412   7.604   4.275 -0.6402 -1.2881  0.2672
41698SOL    HW235025   7.516   7.494   4.272 -2.3008 -2.8899  0.3797
41699SOL     OW35026   6.851   1.353   9.017  0.3085 -0.2701  0.2506
41699SOL    HW135027   6.892   1.391   8.939  0.2658  0.6717  0.6733
41699SOL    HW235028   6.843   1.260   8.996 -1.2514  0.2071 -1.5658
41700SOL     OW35029  11.647   6.850  11.402 -0.0940 -0.0205  0.5779
41700SOL    HW135030  11.601   6.911  11.460  0.8511  1.3313 -0.0230
41700SOL    HW235031  11.654   6.898  11.319  2.0294 -0.3088  0.5385
41701SOL     OW35032   6.268  11.854   8.257 -0.0246 -0.2655 -0.3088
41701SOL    HW135033   6.228  11.869   8.171 -0.2719 -0.0988 -0.1666
41701SOL    HW235034   6.223  11.915   8.315  1.8237  1.4078 -0.5184
41702SOL     OW35035  10.300  10.576   2.348  0.2751  0.8829  0.5216
41702SOL    HW135036  10.217  10.531   2.332  0.9634 -0.7046  1.1402
41702SOL    HW235037  10.320  10.558   2.440  2.3018 -0.6347 -0.1137
41703SOL     OW35038   2.738   7.720   6.954 -0.5348 -0.5026 -0.1140
41703SOL    HW135039   2.679   7.792   6.932  1.3033  0.8718 -0.7418
41703SOL    HW235040   2.722   7.703   7.047 -2.0208 -0.3077 -0.3095
41704SOL     OW35041   6.081  10.538   1.371  0.3327  0.2507 -0.0866
41704SOL    HW135042   6.045  10.585   1.296  2.4070  0.7868 -0.8277
41704SOL    HW235043   6.107  10.607   1.432 -0.4833 -0.1436  0.7273
41705SOL     OW35044   0.707  10.718   0.985  0.3615 -0.3195 -0.5869
41705SOL    HW135045   0.658  10.638   0.968 -1.5802  0.8744 -0.9575
41705SOL    HW235046   0.700  10.769   0.904  2.7506 -0.3223 -0.8504
41706SOL     OW35047  12.348   9.266   8.605  0.0950  0.0049 -0.0866
41706SOL    HW135048  12.425   9.209   8.608  0.1725  0.0989 -0.2844
41706SOL    HW235049  12.317   9.258   8.515 -1.8518 -2.3436  0.6719
41707SOL     OW35050   3.520   2.249   0.145  0.1643  0.5488  0.1899
41707SOL    HW135051   3.507   2.294   0.229 -0.0568 -0.1858  0.5577
41707SOL    HW235052   3.440   2.199   0.131  0.8218 -0.5912  0.3359
41708SOL     OW35053  12.261  12.339   5.674 -0.1152 -0.2349 -0.0858
41708SOL    HW135054  12.310  12.257   5.672 -0.1353 -0.2426 -0.2434
41708SOL    HW235055  12.249  12.358   5.768  1.4825  0.5411 -0.0097
41709SOL     OW35056   6.093   6.675   8.330 -0.1827 -0.1369  0.1213
41709SOL    HW135057   6.028   6.627   8.381 -0.8727  0.1383 -0.4705
41709SOL    HW235058   6.043   6.746   8.289  1.0909  2.1785  2.3173
41710SOL     OW35059   6.210   6.326   6.417  0.3136 -0.2477  0.0660
41710SOL    HW135060   6.237   6.380   6.491  0.5138  1.0269 -0.9051
41710SOL    HW235061   6.200   6.387   6.344 -1.0302 -1.2876 -0.6882
41711SOL     OW35062   2.400   1.648   7.140 -0.0223  0.3174  0.3893
41711SOL    HW135063   2.394   1.606   7.054 -0.1660  1.3952 -0.1453
41711SOL    HW235064   2.412   1.575   7.202  2.4712 -0.3652 -0.7551
41712SOL     OW35065   8.270  12.016   3.041  0.3782 -0.8591  0.0108
41712SOL    HW135066   8.316  12.082   3.091  0.2697  0.8525 -2.0041
41712SOL    HW235067   8.310  11.933   3.067  1.7900  0.1758  1.2417
41713SOL     OW35068   5.793   5.896   2.253  0.0821  0.2008  0.1818
41713SOL    HW135069   5.708   5.852   2.247  0.6541 -0.6931 -2.7509
41713SOL    HW235070   5.855   5.827   2.276  0.3880  0.3499 -0.1930
41714SOL     OW35071   8.233  12.012   9.557 -0.0356  0.8241 -0.3773
41714SOL    HW135072   8.274  11.931   9.527  0.8939  1.4428 -0.8593
41714SOL    HW235073   8.139  11.995   9.555  0.1788 -0.6159  0.6517
41715SOL     OW35074   2.784   8.072  10.850 -0.4529 -0.1709  0.5838
41715SOL    HW135075   2.844   8.019  10.797  1.1647 -0.3982  2.5005
41715SOL    HW235076   2.825   8.073  10.937 -1.1363  3.1115  0.9801
41716SOL     OW35077  12.515   3.549   9.408  0.2904  0.1372 -0.1392
41716SOL    HW135078  12.460   3.508   9.342  0.8841  0.4518 -0.8477
41716SOL    HW235079  12.468   3.629   9.434 -1.2089 -1.2597  1.7535
41717SOL     OW35080   1.715   4.182   4.725 -0.1379  0.1606  0.4640
41717SOL    HW135081   1.718   4.111   4.789  0.5337  1.3270  1.7761
41717SOL    HW235082   1.625   4.182   4.693 -0.0217 -1.5636  0.0861
41718SOL     OW35083   4.191   7.238   2.443 -0.1547  0.2993 -0.0303
41718SOL    HW135084   4.162   7.307   2.383  0.8270  0.0271 -0.8517
41718SOL    HW235085   4.282   7.221   2.417  0.3025  0.1702  1.5349
41719SOL     OW35086  12.922   0.864   7.690 -0.0852  0.0327  0.4887
41719SOL    HW135087  12.953   0.777   7.714  2.7302  1.3012  1.9112
41719SOL    HW235088  12.831   0.866   7.718 -0.5071 -2.6928 -0.4291
41720SOL     OW35089   4.761  10.963   4.465  0.6259 -0.0089  0.0966
41720SOL    HW135090   4.750  10.986   4.557  1.4724  0.8904 -0.0142
41720SOL    HW235091   4.719  11.034   4.417  1.5714  0.3463 -0.2229
41721SOL     OW35092   8.928   3.683  10.790  0.6710 -0.3553  0.2042
41721SOL    HW135093   8.954   3.727  10.871  0.1339 -0.1114  0.2509
41721SOL    HW235094   8.852   3.631  10.815 -0.3383  0.7621 -0.4108
41722SOL     OW35095   3.958   5.463   9.219  0.0141 -0.9024 -0.1078
41722SOL    HW135096   3.997   5.457   9.132 -0.5234  1.7409 -0.6218
41722SOL    HW235097   3.866   5.439   9.205 -0.1494 -0.1652 -0.3801
41723SOL     OW35098   1.739  10.574   9.293 -0.1906  0.0366  0.1832
41723SOL    HW135099   1.733  10.480   9.276  2.0899 -0.4516  1.6906
41723SOL    HW235100   1.690  10.586   9.375 -2.4952  0.6356 -1.2036
41724SOL     OW35101   4.010   0.785   6.520 -0.6317 -0.1986 -0.5736
41724SOL    HW135102   3.965   0.797   6.437 -0.7875 -2.9724 -1.0082
41724SOL    HW235103   4.093   0.744   6.497 -0.0857  0.2558  0.5442
41725SOL     OW35104  10.657   7.585   9.299  0.5564 -1.0963  0.2289
41725SOL    HW135105  10.571   7.616   9.328  1.7872  1.1155  1.7938
41725SOL    HW235106  10.652   7.490   9.306 -2.0263 -1.1115 -0.6253
41726SOL     OW35107  13.074   4.852   8.309 -0.7348  0.9158  0.4501
41726SOL    HW135108  13.010   4.804   8.362 -0.2540 -1.3464 -0.8847
41726SOL    HW235109  13.156   4.843   8.356 -0.1379 -1.7872 -0.9282
41727SOL     OW35110  11.412   5.868   8.334  0.1906 -0.1135 -0.3038
41727SOL    HW135111  11.465   5.836   8.407  1.3251  1.8210 -0.2212
41727SOL    HW235112  11.373   5.949   8.366  0.2330  0.4624 -1.6368
41728SOL     OW35113  13.096   2.406  10.473  0.7046  0.4450 -0.4494
41728SOL    HW135114  13.132   2.469  10.535  2.3208 -0.0646 -0.8200
41728SOL    HW235115  13.141   2.323  10.494 -0.9930 -0.4784 -0.2927
41729SOL     OW35116   3.800   3.334  12.715  0.2537 -0.7505  0.6458
41729SOL    HW135117   3.771   3.283  12.790  1.3886 -1.1651  0.8313
41729SOL    HW235118   3.882   3.375  12.743  0.0642  0.0831  0.0403
41730SOL     OW35119  13.156   7.770   6.022 -0.2091  0.0998 -0.3491
41730SOL    HW135120  13.085   7.808   5.971  0.1538  2.2157  0.5769
41730SOL    HW235121  13.179   7.690   5.976 -2.3439 -0.0036 -1.3644
41731SOL     OW35122   6.217   9.830   4.466 -0.7274  0.0270  0.3247
41731SOL    HW135123   6.272   9.822   4.544  0.3965 -1.4273 -0.5716
41731SOL    HW235124   6.273   9.875   4.402 -0.0584 -2.5102 -0.9878
41732SOL     OW35125   8.843   6.987   3.079  0.3632  0.6301  0.5844
41732SOL    HW135126   8.769   7.030   3.035  0.2648  0.9321  1.0361
41732SOL    HW235127   8.886   6.937   3.010 -0.2362  0.4886  0.3017
41733SOL     OW35128   8.738   9.886  11.377 -0.0927  0.7456 -0.2369
41733SOL    HW135129   8.673   9.824  11.342  0.8131 -0.4185  0.0675
41733SOL    HW235130   8.822   9.843  11.361  0.5790  1.9593 -0.0876
41734SOL     OW35131   7.082  10.183   0.211  1.1670 -0.2201  0.0865
41734SOL    HW135132   7.032  10.191   0.293  1.6758 -0.1203  0.3882
41734SOL    HW235133   7.033  10.117   0.161  1.3363 -0.9445  0.8376
41735SOL     OW35134   3.800   1.876   6.265  0.3627  0.2977  0.0832
41735SOL    HW135135   3.773   1.912   6.350  0.0876 -0.3558  0.2802
41735SOL    HW235136   3.826   1.952   6.214 -0.7491  0.8398  0.2956
41736SOL     OW35137   9.115  10.577   7.116  0.7322 -0.0203 -0.4468
41736SOL    HW135138   9.090  10.620   7.034  1.1607  0.1926 -0.4674
41736SOL    HW235139   9.092  10.485   7.102  1.8565 -0.2075 -1.2636
41737SOL     OW35140  12.714  10.087   9.335  0.1790 -0.4952  0.1543
41737SOL    HW135141  12.671  10.100   9.420 -0.0547 -0.0232 -0.0342
41737SOL    HW235142  12.805  10.113   9.351 -0.6582  3.6773 -0.7252
41738SOL     OW35143   1.798   8.100   1.984 -0.2383 -0.2106 -0.3922
41738SOL    HW135144   1.804   8.041   1.909  0.6116  1.3000 -1.5581
41738SOL    HW235145   1.803   8.042   2.060  0.9994 -1.6036 -1.4792
41739SOL     OW35146   6.219   1.062  10.874  0.0451 -0.4459  0.0234
41739SOL    HW135147   6.299   1.060  10.926 -0.3864 -0.7811  0.7016
41739SOL    HW235148   6.149   1.065  10.940 -0.4818  1.9778 -0.5265
41740SOL     OW35149   8.025   2.478   2.630  0.4320  0.4462 -0.1557
41740SOL    HW135150   8.104   2.424   2.620  0.6252  0.6919  0.0525
41740SOL    HW235151   8.034   2.519   2.716 -0.1236  0.1515  0.0504
41741SOL     OW35152  10.919   5.954  11.072  0.0911  0.4829  0.1422
41741SOL    HW135153  10.833   5.992  11.053 -0.2637  0.2773  1.2407
41741SOL    HW235154  10.900   5.883  11.133  1.0685  0.5938  0.5905
41742SOL     OW35155  11.936   1.375   4.869 -0.1502 -0.1312  0.3062
41742SOL    HW135156  12.031   1.364   4.871 -0.2574 -1.1093  0.9003
41742SOL    HW235157  11.913   1.381   4.777  0.6367  1.6561  0.1930
41743SOL     OW35158   1.809   5.569  11.925  0.3224 -0.4378 -0.1620
41743SOL    HW135159   1.773   5.489  11.964  1.9218 -1.6685 -1.0836
41743SOL    HW235160   1.861   5.608  11.995 -1.2360  0.3988  0.6063
41744SOL     OW35161  11.353   3.302   9.461  0.4105  0.3494  0.3455
41744SOL    HW135162  11.274   3.263   9.498  0.7043 -0.1895  0.4067
41744SOL    HW235163  11.404   3.330   9.537  0.4891  0.2873  0.3155
41745SOL     OW35164   2.052   1.378  11.193 -0.1273 -0.5543  0.8032
41745SOL    HW135165   2.045   1.473  11.185  0.8707 -0.2797  2.6156
41745SOL    HW235166   2.146   1.361  11.185 -0.5384 -1.8974 -3.4508
41746SOL     OW35167   4.019   1.736   4.628  0.6682  0.2949  0.0834
41746SOL    HW135168   4.025   1.830   4.644 -0.2569  0.6967 -1.6972
41746SOL    HW235169   3.931   1.712   4.655  1.7159 -0.6762  3.0695
41747SOL     OW35170   3.132  10.184  11.921 -0.2036  0.2456  0.4075
41747SOL    HW135171   3.217  10.139  11.920  0.2785  1.0532  1.9315
41747SOL    HW235172   3.123  10.217  11.831  1.3289  0.5584  0.3286
41748SOL     OW35173   9.387   2.222   0.132 -0.7121 -0.0211 -0.4787
41748SOL    HW135174   9.325   2.264   0.191 -1.5786 -0.3634 -1.1115
41748SOL    HW235175   9.460   2.283   0.124  1.0209 -1.2838  3.4556
41749SOL     OW35176   6.305   1.196   7.482 -0.4431 -0.1220  0.0183
41749SOL    HW135177   6.300   1.177   7.576 -0.9319  0.1662  0.0521
41749SOL    HW235178   6.219   1.172   7.448 -1.3852  2.6816  0.1842
41750SOL     OW35179   3.095   2.830   9.064 -0.1303 -0.1594 -0.0640
41750SOL    HW135180   3.075   2.888   8.991  0.5465 -0.0436 -0.1600
41750SOL    HW235181   3.033   2.855   9.132  0.3360  0.8599 -0.0046
41751SOL     OW35182  12.958  11.383  11.222 -0.5869  0.2113 -0.1421
41751SOL    HW135183  12.911  11.457  11.184 -0.9067 -0.7196 -1.6407
41751SOL    HW235184  13.048  11.393  11.189 -0.9457 -0.7912 -1.4738
41752SOL     OW35185   9.561   7.723  13.132 -0.4454 -0.3574  0.7717
41752SOL    HW135186   9.594   7.637  13.106  0.1550  0.4921 -1.5308
41752SOL    HW235187   9.471   7.725  13.101 -0.3766 -0.0874  0.5795
41753SOL     OW35188  10.795   5.135   6.138  0.2654 -0.5435  0.0247
41753SOL    HW135189  10.835   5.200   6.197 -0.6260 -0.5544  0.6573
41753SOL    HW235190  10.837   5.151   6.053  0.0947  0.8297  0.1785
41754SOL     OW35191  10.687   2.001   1.480  0.0077 -0.3476  0.2662
41754SOL    HW135192  10.703   1.976   1.571 -2.9265  1.7528  1.5283
41754SOL    HW235193  10.736   1.937   1.428  0.6276 -2.5185  3.2627
41755SOL     OW35194  11.703   6.820  12.887  0.3624  1.0584  0.5441
41755SOL    HW135195  11.747   6.812  12.802  1.4853  1.6024  1.0392
41755SOL    HW235196  11.610   6.825  12.866  0.6377  1.4599 -0.6747
41756SOL     OW35197  11.827   4.227   1.579 -0.4612  0.5880  0.6095
41756SOL    HW135198  11.739   4.190   1.579 -0.4059  0.4121 -0.4826
41756SOL    HW235199  11.814   4.322   1.585 -0.7304  0.5727  0.2715
41757SOL     OW35200   1.990  11.488   6.924 -0.1707 -0.2330 -0.5637
41757SOL    HW135201   2.026  11.565   6.879 -2.1595  1.9111  1.2594
41757SOL    HW235202   2.034  11.414   6.883  1.2328  1.7954 -3.0255
41758SOL     OW35203  11.915   1.731   2.935 -0.7393  0.1465 -0.8154
41758SOL    HW135204  11.973   1.660   2.907  1.3457  0.6778  1.7941
41758SOL    HW235205  11.929   1.801   2.870 -1.3661 -1.0609 -2.3156
41759SOL     OW35206   6.734   5.491   1.633 -0.1928  0.1643  0.3883
41759SOL    HW135207   6.753   5.544   1.555  0.5804  0.8962  1.0552
41759SOL    HW235208   6.639   5.479   1.631 -0.2212  0.4688 -0.4764
41760SOL     OW35209   7.149   7.540  13.297  0.5532  0.2946  0.4123
41760SOL    HW135210   7.232   7.575  13.330  1.8035 -1.1319 -1.0179
41760SOL    HW235211   7.149   7.449  13.324  0.3463 -0.1945 -1.1429
41761SOL     OW35212   0.429   8.022   4.593 -0.1751  0.2329  0.3225
41761SOL    HW135213   0.436   8.117   4.604 -0.0579  0.5131 -1.7587
41761SOL    HW235214   0.517   7.990   4.612  0.9924  1.0884 -2.9628
41762SOL     OW35215  10.048   8.723  10.617 -0.7346  0.1075 -0.9180
41762SOL    HW135216  10.065   8.629  10.615  1.2384  0.4226 -1.9174
41762SOL    HW235217  10.107   8.759  10.551  0.0062  2.2280  0.7697
41763SOL     OW35218   1.553   2.872   1.504 -0.1970  0.1198  0.2191
41763SOL    HW135219   1.607   2.827   1.569  0.6149  0.9465  0.1299
41763SOL    HW235220   1.465   2.835   1.516  0.4018 -1.3792  0.2445
41764SOL     OW35221   1.307  13.263  10.387  0.4807  0.2707 -0.5487
41764SOL    HW135222   1.327  13.224  10.472 -0.3131 -0.5446 -0.7098
41764SOL    HW235223   1.312  13.357  10.401  1.0727  0.1326  0.2155
41765SOL     OW35224  12.024  10.554   7.452  0.6341  0.3540 -0.3050
41765SOL    HW135225  12.039  10.609   7.375 -0.6291  0.2665 -0.6340
41765SOL    HW235226  12.015  10.616   7.524  1.7532  0.4386 -0.2184
41766SOL     OW35227  11.483   5.280   8.046 -0.0948 -0.0654 -0.2246
41766SOL    HW135228  11.568   5.259   8.007  1.0933  2.1286  1.0178
41766SOL    HW235229  11.501   5.352   8.106 -2.2732 -1.6175  2.5211
41767SOL     OW35230   2.679   4.495   6.177  0.2653 -0.7092 -0.2881
41767SOL    HW135231   2.735   4.566   6.146  1.6829 -1.2375  0.9334
41767SOL    HW235232   2.686   4.427   6.110  0.9312 -0.6803 -0.2543
41768SOL     OW35233   8.891   9.030   0.985  0.2002 -0.2890  0.0757
41768SOL    HW135234   8.803   9.038   1.022 -0.2081 -0.9386 -0.7414
41768SOL    HW235235   8.943   9.095   1.033 -0.7656  0.2369  0.4327
41769SOL     OW35236  12.970   9.921   5.080  0.6076  0.2459 -0.0296
41769SOL    HW135237  12.905   9.888   5.142 -1.4607  2.3642 -0.8884
41769SOL    HW235238  13.038   9.960   5.135 -0.6056  1.0671  0.9424
41770SOL     OW35239  10.460  11.929   8.790 -0.3903  0.2478  0.1446
41770SOL    HW135240  10.506  11.889   8.716 -1.1274 -2.4138  1.0076
41770SOL    HW235241  10.371  11.943   8.758 -0.3807  0.2805  0.1330
41771SOL     OW35242   3.013   2.879  10.986 -0.1842  0.2187  0.1978
41771SOL    HW135243   2.952   2.880  11.060  1.0995  0.6433  1.3124
41771SOL    HW235244   3.055   2.965  10.989 -0.0276  0.1951 -0.9646
41772SOL     OW35245  12.410   7.189   6.789 -0.0346 -0.8127  0.1421
41772SOL    HW135246  12.457   7.200   6.872 -1.7868 -1.3703  1.2492
41772SOL    HW235247  12.420   7.096   6.768  0.9404 -0.5492 -0.6348
41773SOL     OW35248  12.707  11.418  11.763  0.3264 -0.3288 -0.3274
41773SOL    HW135249  12.769  11.349  11.741  2.9478  0.7260  2.9528
41773SOL    HW235250  12.633  11.372  11.803 -1.3065 -1.6078 -4.3220
41774SOL     OW35251  10.861   6.744   9.599 -0.7051 -0.0633 -0.4581
41774SOL    HW135252  10.786   6.790   9.560  0.6540  2.6281 -0.1656
41774SOL    HW235253  10.842   6.742   9.692 -1.2104 -1.0260 -0.5739
41775SOL     OW35254   2.675   6.567   3.825 -0.6606  0.0427 -0.5111
41775SOL    HW135255   2.713   6.483   3.799 -0.5202 -0.1145  0.1738
41775SOL    HW235256   2.713   6.585   3.911 -1.3514  0.3913 -0.2710
41776SOL     OW35257   5.771   8.801   3.084 -0.0275  0.3151 -0.5771
41776SOL    HW135258   5.747   8.710   3.097  0.3121  0.5643  2.5918
41776SOL    HW235259   5.715   8.831   3.012 -0.1768 -2.3071 -1.6740
41777SOL     OW35260  12.643   8.547   5.942 -0.0344  0.2301  0.0199
41777SOL    HW135261  12.692   8.611   5.891 -0.1716  1.1315  1.0036
41777SOL    HW235262  12.581   8.510   5.880  1.0238 -0.0309 -0.9326
41778SOL     OW35263   2.244   8.983   6.495  0.2045 -0.0327 -0.4956
41778SOL    HW135264   2.253   9.053   6.431  0.5566 -0.1228 -0.5477
41778SOL    HW235265   2.328   8.981   6.540 -0.0599  0.0667  0.0084
41779SOL     OW35266  10.251   6.937   1.620  0.0385 -0.0202 -0.3800
41779SOL    HW135267  10.326   6.876   1.621 -0.0381 -0.1107  0.7696
41779SOL    HW235268  10.174   6.880   1.618 -0.0198  0.0476 -0.0940
41780SOL     OW35269   6.199   9.849   2.443 -0.3700 -0.0114  0.0548
41780SOL    HW135270   6.215   9.916   2.509 -0.7295  0.0327  0.1012
41780SOL    HW235271   6.240   9.771   2.477  1.3166  0.5151 -0.6587
41781SOL     OW35272   1.441   5.065   1.184 -0.0360 -0.4209  0.2717
41781SOL    HW135273   1.517   5.069   1.125 -1.5266 -0.6939 -1.7748
41781SOL    HW235274   1.407   4.976   1.173 -0.1993 -0.5734  1.8180
41782SOL     OW35275  10.041   4.864  12.697 -0.0318  0.0945 -0.1252
41782SOL    HW135276  10.061   4.948  12.657  1.5939  0.4814  1.3598
41782SOL    HW235277  10.124   4.815  12.694  0.1189  0.0516  2.3981
41783SOL     OW35278   4.409  10.206   9.088 -0.2896  0.0837 -0.4767
41783SOL    HW135279   4.361  10.124   9.096  0.2669 -0.2654 -0.6798
41783SOL    HW235280   4.402  10.247   9.174 -2.0444  0.6600 -0.8471
41784SOL     OW35281   1.140  10.961   0.898  0.0272 -0.2201 -0.2766
41784SOL    HW135282   1.220  10.968   0.847 -0.2531  2.8061 -0.4967
41784SOL    HW235283   1.144  10.874   0.939  3.5576 -0.0457 -0.0047
41785SOL     OW35284  12.176   2.471  12.591  0.0883 -0.4659 -0.2283
41785SOL    HW135285  12.251   2.468  12.651  1.0943  0.2628 -1.3823
41785SOL    HW235286  12.108   2.422  12.635  1.5809 -2.0670  0.4202
41786SOL     OW35287   9.199   9.566  11.480  0.1420  0.4554  0.4642
41786SOL    HW135288   9.182   9.472  11.479  1.5672  0.1053  2.1927
41786SOL    HW235289   9.255   9.578  11.557  1.3211  2.4816 -0.6319
41787SOL     OW35290   8.477   4.830   0.737 -0.0600  0.2446 -1.0071
41787SOL    HW135291   8.565   4.826   0.698  0.0382 -2.2898 -0.6846
41787SOL    HW235292   8.472   4.918   0.775  1.7996  0.9472 -2.2041
41788SOL     OW35293   5.501   6.336   1.465 -0.1046 -0.3617 -0.0555
41788SOL    HW135294   5.405   6.340   1.459 -0.1492 -1.2689 -0.0995
41788SOL    HW235295   5.519   6.337   1.559 -0.0913  0.8724 -0.0567
41789SOL     OW35296   4.119   3.617   6.618 -0.2499  0.1991 -0.4850
41789SOL    HW135297   4.032   3.590   6.646  0.3432  1.1665  2.7036
41789SOL    HW235298   4.107   3.704   6.581 -0.5933  0.5861  0.5124
41790SOL     OW35299   5.092   8.188   3.382  0.5214 -0.3455 -0.0489
41790SOL    HW135300   5.094   8.094   3.365  0.1601 -0.8497  2.2996
41790SOL    HW235301   5.000   8.213   3.372  0.7754  0.0359 -1.7473
41791SOL     OW35302  11.311  10.259  13.014  0.1828  0.5540  0.2645
41791SOL    HW135303  11.228  10.262  13.063  0.4319  0.8411  0.6817
41791SOL    HW235304  11.377  10.241  13.080  0.3259 -0.9269 -0.2560
41792SOL     OW35305  11.699   4.813   3.972  0.4286 -0.5403  0.0903
41792SOL    HW135306  11.743   4.897   3.956 -4.5200  2.6944  1.1172
41792SOL    HW235307  11.711   4.797   4.065  1.3955 -1.0503 -0.1099
41793SOL     OW35308  11.510   4.065   6.102  0.1126 -0.7785 -0.1166
41793SOL    HW135309  11.528   4.157   6.081  0.9677 -1.0136 -0.4575
41793SOL    HW235310  11.567   4.047   6.177  0.8706 -1.3689 -0.8244
41794SOL     OW35311   3.440   2.279   4.774 -0.2133 -0.4550  0.0704
41794SOL    HW135312   3.440   2.335   4.696 -0.8731  0.6869  0.8546
41794SOL    HW235313   3.364   2.222   4.762 -0.7297  0.1956  0.1965
41795SOL     OW35314  11.500   2.300   1.796 -0.0256 -0.0824  0.1806
41795SOL    HW135315  11.442   2.376   1.786  0.9533  0.5807 -0.8083
41795SOL    HW235316  11.485   2.248   1.717 -0.9252 -1.1184  1.0012
41796SOL     OW35317  10.679   2.664   1.294 -0.0734 -0.0468  0.1683
41796SOL    HW135318  10.655   2.729   1.360  0.9718  0.1466  0.3758
41796SOL    HW235319  10.608   2.669   1.229  0.2900  1.7710 -0.1533
41797SOL     OW35320  11.165   2.907   6.025  0.4366 -0.0278  0.3817
41797SOL    HW135321  11.256   2.899   5.997  0.7558 -0.0937  1.4000
41797SOL    HW235322  11.170   2.921   6.119 -0.6411 -0.7610  0.5691
41798SOL     OW35323   5.071  11.206  10.459  0.0049  0.3379 -0.0836
41798SOL    HW135324   5.097  11.197  10.550 -0.3268  2.1500  0.2221
41798SOL    HW235325   4.975  11.203  10.461 -0.0103 -2.1782 -0.7217
41799SOL     OW35326   1.487  11.151   4.797 -0.7372 -0.6067  0.6460
41799SOL    HW135327   1.473  11.136   4.703 -1.0226 -0.3911  0.6527
41799SOL    HW235328   1.428  11.223   4.818 -0.6615 -0.6467  0.9886
41800SOL     OW35329  10.102   0.954   9.940 -0.1723 -0.5164 -0.3732
41800SOL    HW135330  10.013   0.919   9.936 -0.5325  0.4381 -1.1368
41800SOL    HW235331  10.098   1.024  10.005 -0.2277  0.1526 -1.0759
41801SOL     OW35332   6.578  11.308   9.248  0.2836 -0.0112 -0.2589
41801SOL    HW135333   6.545  11.392   9.216 -0.3678 -1.4279 -3.6973
41801SOL    HW235334   6.668  11.326   9.276  0.5902  1.6481 -2.1106
41802SOL     OW35335  11.903   9.097   9.416 -0.4034  0.0843  0.0252
41802SOL    HW135336  11.953   9.104   9.334  1.0072  0.2880  0.8720
41802SOL    HW235337  11.911   9.005   9.441 -0.8268  0.0245 -0.0560
41803SOL     OW35338   0.684  11.148   5.659 -0.1370 -0.0473  0.0941
41803SOL    HW135339   0.686  11.169   5.753 -1.3189 -0.2840  0.1800
41803SOL    HW235340   0.775  11.126   5.639  0.5504  1.9179  0.7268
41804SOL     OW35341   0.416   6.013   8.355  0.3735 -0.0918  0.3039
41804SOL    HW135342   0.453   6.100   8.343  0.1367 -0.2181 -1.6351
41804SOL    HW235343   0.330   6.028   8.395 -0.5943  0.7990 -1.9254
41805SOL     OW35344   5.806  12.826   1.626  0.3279  0.0899 -1.0006
41805SOL    HW135345   5.816  12.782   1.542  0.2459 -0.4676 -0.7169
41805SOL    HW235346   5.893  12.861   1.646  0.2479  0.6003 -1.5227
41806SOL     OW35347  11.223  11.270   5.377 -0.3929  0.0194 -0.0055
41806SOL    HW135348  11.185  11.353   5.347 -0.3609  0.0849  0.1360
41806SOL    HW235349  11.227  11.279   5.472  1.8151  0.8107 -0.1176
41807SOL     OW35350   8.846  10.971   5.117 -0.3837  0.8911 -0.0587
41807SOL    HW135351   8.834  10.913   5.192 -0.1429  1.4704  0.4465
41807SOL    HW235352   8.940  10.990   5.117 -0.2503  0.2651 -0.9929
41808SOL     OW35353   3.787   0.282   5.421  0.2067 -0.0866  0.0262
41808SOL    HW135354   3.733   0.350   5.463  0.7286  0.9383 -0.9171
41808SOL    HW235355   3.724   0.218   5.389 -0.3796  0.5077 -0.0373
41809SOL     OW35356   1.270   1.205  12.041  0.4493 -0.2633 -0.2978
41809SOL    HW135357   1.201   1.269  12.058  0.4484 -0.1733 -0.6336
41809SOL    HW235358   1.350   1.256  12.031  0.2172 -0.1622 -1.9982
41810SOL     OW35359  12.244   5.827   8.561  0.9424 -0.1842  0.8196
41810SOL    HW135360  12.155   5.849   8.533  0.9150  1.5363  2.1472
41810SOL    HW235361  12.271   5.758   8.500 -1.2748 -0.7437  0.3741
41811SOL     OW35362   5.183   5.717   0.917 -0.0295  0.3632  0.6198
41811SOL    HW135363   5.223   5.744   1.000 -0.3147 -1.4551  1.3829
41811SOL    HW235364   5.237   5.643   0.887 -2.9500 -2.5018  1.9201
41812SOL     OW35365  12.403  11.491  10.517 -0.2250  0.3386  0.3246
41812SOL    HW135366  12.484  11.449  10.488  0.6770  2.2242 -0.0116
41812SOL    HW235367  12.338  11.466  10.452  0.6773  0.7743 -0.7693
41813SOL     OW35368   2.607  11.993   1.296  0.2293  0.3997 -0.2059
41813SOL    HW135369   2.658  11.913   1.299  2.3342  1.6578 -0.6632
41813SOL    HW235370   2.631  12.040   1.375  1.2363  1.8189 -1.3051
41814SOL     OW35371   7.014  10.595   7.369 -0.1028  0.4137  0.2737
41814SOL    HW135372   6.938  10.547   7.402  1.0687 -1.5021  0.3564
41814SOL    HW235373   6.989  10.620   7.280 -1.0955  0.4469  0.5459
41815SOL     OW35374   1.455   9.438   2.203 -0.1451 -0.3524 -0.6309
41815SOL    HW135375   1.547   9.461   2.199  1.1492 -4.8680 -2.9747
41815SOL    HW235376   1.451   9.362   2.261 -2.8714  0.9078  1.0707
41816SOL     OW35377   5.129   8.368   9.340  0.3252 -0.2551  0.5953
41816SOL    HW135378   5.116   8.313   9.262  1.0097 -1.1891  1.1244
41816SOL    HW235379   5.086   8.451   9.318 -2.0569 -1.4687  0.3443
41817SOL     OW35380   4.160   7.720  11.308 -0.0798 -0.3027  0.3485
41817SOL    HW135381   4.168   7.776  11.385  0.8258  0.3455 -0.1875
41817SOL    HW235382   4.150   7.782  11.235  0.6844 -0.8402 -0.2233
41818SOL     OW35383   8.936  13.053   8.837 -0.3916 -0.2046  0.3942
41818SOL    HW135384   8.987  13.128   8.807  0.4551  0.4521  3.1738
41818SOL    HW235385   8.845  13.080   8.826 -0.1386  0.1068 -1.1344
41819SOL     OW35386  11.847   3.501   2.781 -0.2934 -0.1074  0.6130
41819SOL    HW135387  11.818   3.516   2.690 -2.3919 -0.5933  1.1340
41819SOL    HW235388  11.871   3.587   2.813  2.2240 -0.1543 -0.9009
41820SOL     OW35389   2.032   9.098  12.844  0.1863  0.0456 -0.0306
41820SOL    HW135390   2.041   9.132  12.933 -1.6707 -0.5530  0.4435
41820SOL    HW235391   1.972   9.024  12.854  0.5566 -0.5043 -1.6850
41821SOL     OW35392  11.978  10.590   9.670  0.1505 -0.0828  0.0694
41821SOL    HW135393  12.048  10.528   9.694  0.7234  0.0253 -1.2595
41821SOL    HW235394  12.024  10.673   9.657 -0.4528  0.3526  0.6505
41822SOL     OW35395   4.669  10.243   9.569  0.2439  0.3368  0.2097
41822SOL    HW135396   4.746  10.239   9.512 -0.8258  0.1516 -1.3058
41822SOL    HW235397   4.637  10.333   9.560  0.5888  0.5700  1.2680
41823SOL     OW35398  13.177   5.992   4.022 -0.6144 -0.5099 -0.3799
41823SOL    HW135399  13.260   5.978   3.975  0.1873 -1.7526  1.2992
41823SOL    HW235400  13.152   5.904   4.053 -1.3912  0.1638  0.9967
41824SOL     OW35401   2.203   9.932   1.690  0.1607  0.3561  0.1896
41824SOL    HW135402   2.269   9.973   1.634 -1.2315  1.9134 -0.3876
41824SOL    HW235403   2.126   9.923   1.633 -0.5732 -0.1048  1.2347
41825SOL     OW35404   1.997   2.677   4.611  0.1687  0.0864  0.7509
41825SOL    HW135405   2.080   2.709   4.575 -0.1821  0.5631  0.3368
41825SOL    HW235406   1.947   2.648   4.534 -0.2346  0.2639  0.9390
41826SOL     OW35407   9.609   6.590   0.641  0.3275 -0.1872  0.2047
41826SOL    HW135408   9.699   6.568   0.664  0.1774  0.3147  1.3153
41826SOL    HW235409   9.580   6.649   0.710 -0.8972 -0.4341 -0.0738
41827SOL     OW35410   3.730   5.221   8.652 -0.3215 -0.4946 -0.4184
41827SOL    HW135411   3.643   5.222   8.613  0.6168  0.0799 -2.6574
41827SOL    HW235412   3.725   5.284   8.725 -1.5066  0.3005 -1.1554
41828SOL     OW35413   3.552   7.316   0.231  0.2526 -0.3254 -0.7015
41828SOL    HW135414   3.468   7.280   0.258  0.5214 -1.1854 -0.9772
41828SOL    HW235415   3.615   7.278   0.293  0.6650 -1.1069 -1.5647
41829SOL     OW35416   3.119   5.333  10.633 -0.4936 -0.2939 -0.1046
41829SOL    HW135417   3.144   5.424  10.642 -0.8019 -0.1193 -0.9163
41829SOL    HW235418   3.039   5.325  10.685 -0.0585 -0.2949  0.5826
41830SOL     OW35419  10.038   2.055   8.417  0.2540  0.4821  0.5914
41830SOL    HW135420  10.104   2.029   8.352  1.0803  0.3447  1.4757
41830SOL    HW235421   9.973   2.103   8.366 -2.2619 -4.4431 -1.5896
41831SOL     OW35422   9.832   6.892   6.140 -0.7748 -0.8396 -0.2364
41831SOL    HW135423   9.801   6.820   6.195  0.1038 -1.7299 -0.8728
41831SOL    HW235424   9.890   6.851   6.076 -0.3172  0.4267 -0.6779
41832SOL     OW35425   2.520   9.886   7.496  0.1558 -0.4817  0.3157
41832SOL    HW135426   2.449   9.907   7.557  0.3022 -1.7428  0.9404
41832SOL    HW235427   2.593   9.940   7.526 -0.0638 -0.3635  0.6441
41833SOL     OW35428   5.882   3.171   2.877  1.5267  0.5480  0.9236
41833SOL    HW135429   5.887   3.156   2.783 -0.4267 -0.5659  0.9436
41833SOL    HW235430   5.904   3.087   2.917 -2.8777 -0.7703  1.2103
41834SOL     OW35431   0.822   2.135   9.608 -0.1330 -0.2785 -0.3264
41834SOL    HW135432   0.863   2.171   9.687  0.0541 -0.1382 -0.4858
41834SOL    HW235433   0.831   2.204   9.543 -1.3434  0.0694 -0.1428
41835SOL     OW35434  11.566   7.346   2.596  0.1809 -0.4959 -0.2893
41835SOL    HW135435  11.492   7.404   2.579 -0.3402 -1.6621 -2.2787
41835SOL    HW235436  11.527   7.266   2.631  0.6851 -0.4814  0.3320
41836SOL     OW35437   1.094   1.298   9.815 -0.4662  0.6269  0.4666
41836SOL    HW135438   1.102   1.319   9.722 -2.4244 -0.4224  0.0007
41836SOL    HW235439   1.146   1.218   9.826 -1.8432 -0.4144 -0.2343
41837SOL     OW35440   8.879   9.599   9.246 -0.5046 -0.2227 -0.2207
41837SOL    HW135441   8.890   9.532   9.178  0.2595 -1.6632  1.2590
41837SOL    HW235442   8.789   9.587   9.277 -0.3735 -0.5826  0.0332
41838SOL     OW35443  11.091  11.282   8.817  0.2446  0.2626 -0.3186
41838SOL    HW135444  11.102  11.262   8.724  0.1191 -0.4421 -0.1864
41838SOL    HW235445  11.173  11.252   8.857  0.0351 -0.0467 -0.1134
41839SOL     OW35446   0.183   0.184  10.625  0.4759  0.4550 -0.0959
41839SOL    HW135447   0.099   0.166  10.667  0.3432  0.4847 -0.3467
41839SOL    HW235448   0.176   0.274  10.594  1.2317  1.0558  1.3676
41840SOL     OW35449  10.483   8.347   3.253 -0.0829 -0.3955 -0.6118
41840SOL    HW135450  10.414   8.336   3.187  1.4969 -2.1636 -2.0825
41840SOL    HW235451  10.564   8.324   3.207  1.5120  1.4394  1.1012
41841SOL     OW35452  10.752   5.433  11.405 -0.5708 -0.1631 -0.0943
41841SOL    HW135453  10.845   5.416  11.391 -1.0053 -2.2219 -0.8331
41841SOL    HW235454  10.745   5.453  11.499  0.8357  2.0712 -0.4060
41842SOL     OW35455   8.550   7.159   0.441  0.1572  0.0708  0.2685
41842SOL    HW135456   8.526   7.103   0.514  0.4553  1.9431  1.8881
41842SOL    HW235457   8.634   7.124   0.410 -0.5424 -1.4471  0.0176
41843SOL     OW35458   1.221   7.956   0.622  0.5408  0.1706 -0.4020
41843SOL    HW135459   1.264   8.039   0.605  0.7398 -0.1205 -1.3790
41843SOL    HW235460   1.290   7.890   0.612  0.2258 -0.1740 -0.3687
41844SOL     OW35461   2.183  10.135   3.524  0.5462  0.3872  0.1103
41844SOL    HW135462   2.196  10.082   3.603 -0.3495  0.8350  0.5681
41844SOL    HW235463   2.150  10.219   3.556  2.2461  1.3866 -0.5741
41845SOL     OW35464  10.524   6.275   7.793 -0.5218  0.2891 -0.2911
41845SOL    HW135465  10.485   6.233   7.869  0.6295 -1.5521 -0.6646
41845SOL    HW235466  10.491   6.226   7.718  1.8905 -0.9068 -0.6513
41846SOL     OW35467   7.807   5.172  12.275 -0.3338  0.2425 -0.2094
41846SOL    HW135468   7.819   5.178  12.370 -1.5607  0.6692 -0.0698
41846SOL    HW235469   7.891   5.139  12.243 -0.5294 -1.7991  1.2127
41847SOL     OW35470   2.882   2.619   0.026 -0.3094  0.2443 -0.1033
41847SOL    HW135471   2.962   2.627  -0.026  1.8070 -0.3850  2.7867
41847SOL    HW235472   2.888   2.532   0.066 -1.3709  0.9803  1.7865
41848SOL     OW35473  12.364   8.798   8.567 -0.4515 -0.4768 -0.2898
41848SOL    HW135474  12.271   8.778   8.576 -0.3889 -0.1508  1.5128
41848SOL    HW235475  12.406   8.749   8.637  0.2699  2.0224  1.1808
41849SOL     OW35476   3.293   9.792   9.682  0.3802  0.4013  0.1875
41849SOL    HW135477   3.287   9.878   9.723  0.3002  0.6184 -0.2666
41849SOL    HW235478   3.379   9.791   9.640 -0.1783  0.8323 -1.0357
41850SOL     OW35479   5.286   9.258  12.293  0.0245 -0.9260  0.4818
41850SOL    HW135480   5.248   9.337  12.254  2.2927  0.1987  0.3813
41850SOL    HW235481   5.316   9.206  12.218  0.1796 -1.0010  0.5957
41851SOL     OW35482  11.841   9.176   8.997  0.5549 -0.1406  0.1972
41851SOL    HW135483  11.841   9.250   8.936 -0.8050  0.4168  0.8440
41851SOL    HW235484  11.916   9.192   9.054  0.5553  0.4781  0.0276
41852SOL     OW35485   2.604  10.107   6.761  0.4298 -0.0306  0.4137
41852SOL    HW135486   2.520  10.079   6.726  0.6800 -0.8816  0.4831
41852SOL    HW235487   2.651  10.026   6.780  2.1737  0.3719 -1.7520
41853SOL     OW35488  11.296   3.789   3.502  0.1600 -0.0848 -0.2444
41853SOL    HW135489  11.313   3.863   3.443 -0.1091  1.1231  1.1580
41853SOL    HW235490  11.334   3.713   3.456  2.6263  1.2981 -0.6449
41854SOL     OW35491  10.832   4.397   9.651  0.6096 -0.2541  0.2062
41854SOL    HW135492  10.783   4.475   9.678  1.1699 -0.5008  2.0170
41854SOL    HW235493  10.812   4.332   9.718  1.6259 -1.0817 -0.2794
41855SOL     OW35494   3.823   3.174   7.698  0.1720 -0.0797 -0.4897
41855SOL    HW135495   3.869   3.174   7.781  1.0137 -1.6542 -0.9229
41855SOL    HW235496   3.823   3.082   7.669  2.0325  0.6790 -3.3562
41856SOL     OW35497   8.956   8.083  10.785  0.4050  0.5820  0.1540
41856SOL    HW135498   8.926   8.155  10.841  2.5489  1.9835 -0.3717
41856SOL    HW235499   8.970   8.011  10.846 -2.8781  0.1115  0.5445
41857SOL     OW35500   4.554   4.627   4.991  0.0752  0.2729 -0.1202
41857SOL    HW135501   4.603   4.642   5.072  0.5843  0.5843 -0.4837
41857SOL    HW235502   4.587   4.544   4.958 -0.7773 -0.3094  0.4527
41858SOL     OW35503  12.967   5.527  10.234 -0.0486  0.1331  0.2078
41858SOL    HW135504  12.911   5.532  10.311  0.0997  1.1420  0.2617
41858SOL    HW235505  13.026   5.453  10.252  0.8019  1.0986  1.6417
41859SOL     OW35506   2.113   2.432   4.241  0.0676 -0.4574 -0.6847
41859SOL    HW135507   2.035   2.458   4.290  0.7578  1.6155 -0.5843
41859SOL    HW235508   2.186   2.468   4.292  0.9765 -0.8528 -1.6798
41860SOL     OW35509   7.861   2.373   9.651  0.3227  0.0127  0.9983
41860SOL    HW135510   7.796   2.319   9.605  0.5190  0.1294  0.5823
41860SOL    HW235511   7.813   2.452   9.675 -0.2257 -0.7134  2.4273
41861SOL     OW35512   1.623   3.533   7.907 -0.0691  0.4288 -0.1907
41861SOL    HW135513   1.605   3.494   7.993 -0.0690 -0.5298 -0.6220
41861SOL    HW235514   1.675   3.468   7.861 -1.4268  0.2350 -1.5112
41862SOL     OW35515   8.587  12.511   2.619  0.0671 -0.0041  0.4232
41862SOL    HW135516   8.493  12.526   2.632  0.3598  0.6700  2.1564
41862SOL    HW235517   8.601  12.420   2.644 -0.1236 -0.1005  0.1749
41863SOL     OW35518   1.967   9.040   8.444  0.4845  0.7494 -0.4097
41863SOL    HW135519   2.054   9.076   8.427  0.2576  0.7202 -1.7473
41863SOL    HW235520   1.983   8.951   8.473  0.8850  0.2698 -1.9906
41864SOL     OW35521   1.418  10.878  12.191 -0.0258  0.0415  0.0512
41864SOL    HW135522   1.362  10.902  12.265 -0.5184  0.9789 -0.6070
41864SOL    HW235523   1.383  10.794  12.161  0.3217 -0.4642  1.0097
41865SOL     OW35524   5.618   5.219  10.907  0.6318 -0.4527 -0.4451
41865SOL    HW135525   5.623   5.184  10.996 -0.0264  1.4484  0.3856
41865SOL    HW235526   5.524   5.228  10.890  0.7685 -0.0862 -1.0328
41866SOL     OW35527   7.257   2.651  11.646  0.3714  0.0823 -0.2686
41866SOL    HW135528   7.211   2.724  11.605  0.4705  0.2923 -0.0048
41866SOL    HW235529   7.332   2.691  11.690 -0.1980 -0.0201  0.8457
41867SOL     OW35530  13.187   8.608   5.668  0.7090  0.2421 -0.1578
41867SOL    HW135531  13.112   8.635   5.615  0.2123 -0.1281  0.3418
41867SOL    HW235532  13.250   8.679   5.659  0.4151  0.4264 -0.8111
41868SOL     OW35533   8.664   9.042   1.349 -0.3643  0.4246 -0.4266
41868SOL    HW135534   8.734   8.976   1.346 -2.3823 -1.9353  0.3072
41868SOL    HW235535   8.646   9.062   1.257  0.9384  0.7488 -0.6358
41869SOL     OW35536   1.244   0.967   7.979 -0.3941 -0.0969  0.0914
41869SOL    HW135537   1.187   1.001   7.910  0.0439 -1.7366 -1.1349
41869SOL    HW235538   1.313   1.033   7.988 -1.3298  0.9118  0.1464
41870SOL     OW35539   1.441  13.003   6.586 -0.7412  0.3710  0.4749
41870SOL    HW135540   1.459  13.095   6.603 -0.9644  0.6589 -0.7406
41870SOL    HW235541   1.388  12.974   6.660 -0.9699  1.3156  0.6905
41871SOL     OW35542   4.131   3.734  11.766 -0.0542  0.8247 -0.1992
41871SOL    HW135543   4.056   3.687  11.730 -0.3988  0.1610  1.2899
41871SOL    HW235544   4.097   3.777  11.845  1.5709 -1.4592  1.9285
41872SOL     OW35545   0.017   0.242   1.086  0.4846  0.2880 -0.1696
41872SOL    HW135546  -0.007   0.223   1.176 -0.6124 -0.1078 -0.5260
41872SOL    HW235547  -0.041   0.314   1.060  0.6903  0.3029 -0.6009
41873SOL     OW35548  11.056   6.137   4.389 -0.0139  0.4530 -0.1760
41873SOL    HW135549  10.978   6.159   4.339 -0.9805 -0.1422  1.0275
41873SOL    HW235550  11.057   6.200   4.462  0.5748  0.3941 -0.1248
41874SOL     OW35551  10.546  11.784   8.602 -0.5126  0.6776  0.5585
41874SOL    HW135552  10.629  11.753   8.567  0.4873  2.6575  0.9934
41874SOL    HW235553  10.488  11.790   8.526  0.7647  2.2923 -0.3484
41875SOL     OW35554   3.585   5.950  12.177 -0.2971 -0.0500  0.1108
41875SOL    HW135555   3.644   6.026  12.172 -0.7175  0.2587 -0.2977
41875SOL    HW235556   3.619   5.888  12.113  1.4088 -1.2120  2.0331
41876SOL     OW35557  12.403  11.799   8.801 -0.2410 -0.3993  0.2511
41876SOL    HW135558  12.474  11.863   8.798 -0.7271  0.1827 -3.1540
41876SOL    HW235559  12.402  11.768   8.891  1.8407  2.3322  1.3482
41877SOL     OW35560   1.077   7.774   3.617 -0.0083  0.5688  0.1455
41877SOL    HW135561   1.083   7.771   3.521 -0.3228 -0.9959  0.1544
41877SOL    HW235562   1.118   7.693   3.646 -1.4853  0.1757  1.2349
41878SOL     OW35563   0.935  13.034   0.124 -0.0612  0.1363 -0.1115
41878SOL    HW135564   0.916  12.976   0.199 -0.7994  0.0845 -0.3315
41878SOL    HW235565   0.866  13.014   0.061  0.0075  0.8631 -0.4205
41879SOL     OW35566  11.515   6.044   1.850 -0.4908  0.4328 -0.0451
41879SOL    HW135567  11.559   5.982   1.791 -1.5145  1.0332 -1.4669
41879SOL    HW235568  11.587   6.085   1.898  0.2801 -1.0467  0.1382
41880SOL     OW35569   0.360  10.089   9.370 -0.1174  0.0958  0.1167
41880SOL    HW135570   0.363   9.999   9.341 -1.7740  0.0556 -0.0220
41880SOL    HW235571   0.452  10.113   9.385  0.6679 -0.5167 -3.0790
41881SOL     OW35572   0.850   2.851   3.509 -0.2329  0.4035  0.0270
41881SOL    HW135573   0.797   2.881   3.583 -1.1388  2.9158 -1.4917
41881SOL    HW235574   0.802   2.775   3.475 -0.8032  0.3626  0.8907
41882SOL     OW35575   0.203  12.344   6.272  0.5011  0.2648  0.5949
41882SOL    HW135576   0.152  12.374   6.196 -0.0722  0.2282  0.9549
41882SOL    HW235577   0.281  12.399   6.272  0.8080 -0.1534 -0.3758
41883SOL     OW35578   4.038   9.817  11.767  0.1611 -0.0530 -0.2068
41883SOL    HW135579   3.960   9.779  11.727  0.3068 -2.2003  1.3953
41883SOL    HW235580   4.015   9.827  11.859  0.9622  1.6438 -0.1453
41884SOL     OW35581  11.354  11.237  13.004 -0.0826 -0.2801  0.7024
41884SOL    HW135582  11.442  11.228  12.967 -0.0249 -0.3659  0.8605
41884SOL    HW235583  11.296  11.238  12.928  0.0255 -0.5906  0.6129
41885SOL     OW35584   1.413   8.358   8.918  0.6861 -0.9406 -0.0756
41885SOL    HW135585   1.324   8.324   8.922  0.6392 -0.7196  1.1683
41885SOL    HW235586   1.415   8.413   8.840 -0.4003 -0.5867  0.1354
41886SOL     OW35587   8.059  11.173   4.782 -0.1854 -0.3797 -0.4611
41886SOL    HW135588   8.139  11.190   4.832 -1.4442  0.3815  1.3904
41886SOL    HW235589   8.048  11.078   4.786  0.4006 -0.4466 -0.3984
41887SOL     OW35590   3.687  10.844   9.951  0.2996  0.0829 -0.1363
41887SOL    HW135591   3.645  10.856  10.036 -0.1945  0.9104 -0.4851
41887SOL    HW235592   3.761  10.906   9.953  1.1839 -0.9575  0.2559
41888SOL     OW35593   3.991   2.862   3.667  0.0780 -0.3454 -0.0096
41888SOL    HW135594   3.908   2.905   3.644  0.3057  0.1240  0.0311
41888SOL    HW235595   4.006   2.887   3.759  0.3079 -0.3536 -0.0444
41889SOL     OW35596   4.347  12.977   4.262  0.0753 -0.0908 -0.1110
41889SOL    HW135597   4.335  13.039   4.191  0.9996 -0.6034 -0.7332
41889SOL    HW235598   4.388  12.901   4.221  2.6520  0.4133  1.2739
41890SOL     OW35599   5.620  13.140   5.434 -0.1594  0.3409 -0.9691
41890SOL    HW135600   5.703  13.184   5.418 -0.2461  0.8099 -0.1916
41890SOL    HW235601   5.601  13.093   5.352  0.4812  0.8536 -1.4207
41891SOL     OW35602   0.644   3.103   7.003  0.0204  0.4714  0.4915
41891SOL    HW135603   0.558   3.142   7.014  0.3930  1.0277  1.5827
41891SOL    HW235604   0.704   3.163   7.049  0.5873 -1.4627  2.4617
41892SOL     OW35605   1.359  10.834   2.398  0.2249 -0.0276  0.6122
41892SOL    HW135606   1.275  10.879   2.408  0.5313  0.0425  3.3829
41892SOL    HW235607   1.418  10.901   2.364 -0.6155  0.1032 -0.6789
41893SOL     OW35608   1.833   5.723   1.360 -0.7910  0.6178  0.0470
41893SOL    HW135609   1.788   5.720   1.275 -1.2007  1.1213  0.2406
41893SOL    HW235610   1.762   5.727   1.425 -0.4834  1.5688  0.3508
41894SOL     OW35611   7.333   7.743   2.840  0.1942  0.4500 -0.2030
41894SOL    HW135612   7.281   7.769   2.917 -0.3412  0.9698 -0.7309
41894SOL    HW235613   7.391   7.674   2.873 -1.0379 -0.3633  0.3293
41895SOL     OW35614   5.275   6.858   9.916  0.0998  0.7765 -0.1457
41895SOL    HW135615   5.338   6.870   9.987  0.2415  1.3292 -0.3583
41895SOL    HW235616   5.329   6.847   9.838 -0.0279 -1.0511 -0.0090
41896SOL     OW35617   5.843  11.503   4.203 -0.2213 -0.4429  0.0324
41896SOL    HW135618   5.937  11.486   4.210 -0.1343  0.3108  1.0382
41896SOL    HW235619   5.837  11.585   4.155 -0.2509  0.3638  1.3446
41897SOL     OW35620   3.103   1.290   2.405  0.0939 -0.2468 -0.0682
41897SOL    HW135621   3.133   1.353   2.340  2.2346 -1.2746 -0.1718
41897SOL    HW235622   3.008   1.287   2.394  0.1691  1.3167 -1.5347
41898SOL     OW35623  11.308  11.910   9.317  0.1069  0.6524 -0.4188
41898SOL    HW135624  11.236  11.881   9.260  0.4078  0.1085 -0.5349
41898SOL    HW235625  11.374  11.944   9.257  0.3056  0.3428 -0.3803
41899SOL     OW35626   3.987   7.310   9.656  0.2309  0.5336  0.1959
41899SOL    HW135627   4.048   7.337   9.725  0.3463 -1.1570  0.8049
41899SOL    HW235628   4.018   7.356   9.577  2.9431 -1.0241  0.2369
41900SOL     OW35629   3.091  10.806  11.035  0.1367 -0.3630  0.3012
41900SOL    HW135630   3.107  10.775  10.946  0.5853  1.0899 -0.1541
41900SOL    HW235631   3.179  10.826  11.069  0.0600 -1.7041  1.4087
41901SOL     OW35632   8.297   5.090  12.840  0.1914 -0.6934 -0.2403
41901SOL    HW135633   8.367   5.062  12.900 -0.4617 -0.5692  0.5907
41901SOL    HW235634   8.246   5.011  12.824  0.7967 -0.9076 -1.2697
41902SOL     OW35635   1.828   7.076  13.272  0.1467  0.8029 -0.2107
41902SOL    HW135636   1.888   7.033  13.332 -1.5029 -2.4697 -0.7143
41902SOL    HW235637   1.872   7.072  13.187  0.1469  0.4125 -0.1919
41903SOL     OW35638   2.895   7.975   8.655  0.4987 -0.4047 -0.5269
41903SOL    HW135639   2.971   7.921   8.634  0.5941 -0.1272 -0.8981
41903SOL    HW235640   2.864   8.007   8.570 -0.2132 -0.7564 -0.4109
41904SOL     OW35641  12.533   3.667  10.422  0.2709  1.0497  0.2113
41904SOL    HW135642  12.580   3.729  10.367 -0.1216  0.2342 -1.1024
41904SOL    HW235643  12.531   3.707  10.508  1.3510  2.1453 -0.2506
41905SOL     OW35644   1.895   5.134  13.031  0.3645  0.1301  0.1985
41905SOL    HW135645   1.865   5.050  13.066 -0.7709  0.2790 -0.3497
41905SOL    HW235646   1.923   5.114  12.942  1.8904  0.0078  0.6877
41906SOL     OW35647   7.257   8.516  10.360  0.0973 -0.1415  0.2592
41906SOL    HW135648   7.204   8.516  10.440 -0.2365 -1.8879  0.0600
41906SOL    HW235649   7.209   8.574  10.300  0.6984  1.7499  1.4920
41907SOL     OW35650  10.083  12.249   9.823  0.2140 -0.5521 -0.2373
41907SOL    HW135651  10.039  12.256   9.738 -2.1846  0.2927  0.9926
41907SOL    HW235652  10.050  12.167   9.860 -1.6896  0.8503  1.3595
41908SOL     OW35653   9.682  12.030  11.207 -0.5505  0.3069 -0.1056
41908SOL    HW135654   9.744  11.997  11.272 -0.3636  1.0267  0.0936
41908SOL    HW235655   9.648  12.111  11.245 -0.7779  0.5015 -0.7043
41909SOL     OW35656   7.145   5.732   0.381 -0.0092 -0.2687 -0.3618
41909SOL    HW135657   7.125   5.674   0.454  1.8290 -1.1075 -0.4656
41909SOL    HW235658   7.085   5.805   0.391 -2.3353 -2.1071 -0.1509
41910SOL     OW35659   6.880   5.512   5.400 -0.2563  0.2446 -0.1257
41910SOL    HW135660   6.917   5.529   5.487 -0.3494  0.0681 -0.0505
41910SOL    HW235661   6.796   5.469   5.418 -0.7154  1.0549 -0.2827
41911SOL     OW35662   4.007  11.550   5.870 -0.2775  0.1398 -0.1011
41911SOL    HW135663   3.999  11.638   5.833 -0.6254 -0.2877 -1.0644
41911SOL    HW235664   3.917  11.520   5.881 -0.1596 -0.0859  0.2752
41912SOL     OW35665   0.843   0.228   5.052  0.4220  0.9137 -0.0343
41912SOL    HW135666   0.917   0.223   5.112 -0.8016 -0.1134  1.4573
41912SOL    HW235667   0.833   0.139   5.018 -1.3259  0.5221  1.3503
41913SOL     OW35668   7.305   9.659   6.574 -0.6203  0.1803 -0.4916
41913SOL    HW135669   7.247   9.734   6.586 -0.6016  0.8969 -3.9736
41913SOL    HW235670   7.392   9.692   6.595 -1.0183 -0.1127  1.9445
41914SOL     OW35671   7.751  12.573  10.684  0.0280 -0.1811 -0.0412
41914SOL    HW135672   7.785  12.652  10.727  0.7268 -0.6230  0.2317
41914SOL    HW235673   7.805  12.564  10.605 -0.0924 -0.3457 -0.1040
41915SOL     OW35674   4.782   3.331   3.159 -0.4441  0.0164  0.0451
41915SOL    HW135675   4.810   3.396   3.224 -2.4644  1.9839 -0.9402
41915SOL    HW235676   4.864   3.297   3.123  0.7094 -0.2017  2.6532
41916SOL     OW35677   0.531   2.377  10.024  0.1495 -0.3952  0.2296
41916SOL    HW135678   0.500   2.307   9.966 -0.3756 -1.1914  1.4306
41916SOL    HW235679   0.452   2.407  10.070  0.1791  1.7177 -0.9649
41917SOL     OW35680   6.861   6.947  13.043 -0.1171 -0.5398 -0.0158
41917SOL    HW135681   6.789   6.909  13.094 -1.7265 -2.0209 -3.1278
41917SOL    HW235682   6.923   6.874  13.031  0.9506  0.1823  0.9464
41918SOL     OW35683  12.303  11.088   3.084  0.1886  0.5144 -0.1124
41918SOL    HW135684  12.328  11.178   3.061  2.3957 -0.4164 -1.6984
41918SOL    HW235685  12.365  11.063   3.152  1.3661 -0.6534 -1.5581
41919SOL     OW35686  12.900   3.647   2.801  0.3853 -0.1415  0.1460
41919SOL    HW135687  12.891   3.564   2.847 -2.6093 -0.3077 -0.5373
41919SOL    HW235688  12.890   3.625   2.708 -0.0231  0.9346 -0.0847
41920SOL     OW35689   3.738  11.496   8.141  0.3377  0.0551  0.0243
41920SOL    HW135690   3.806  11.546   8.095 -0.4708  0.5278 -0.6765
41920SOL    HW235691   3.751  11.519   8.233  1.3918 -0.1866 -0.0507
41921SOL     OW35692   9.321  10.585   0.625  0.6678 -0.1352  0.3604
41921SOL    HW135693   9.405  10.608   0.664  0.7437 -0.0516  0.1511
41921SOL    HW235694   9.339  10.507   0.573  0.7324  0.1757 -0.0957
41922SOL     OW35695  10.621  11.550   3.842 -0.0933 -0.4970  0.2923
41922SOL    HW135696  10.527  11.531   3.849  0.0813 -1.4161  0.1889
41922SOL    HW235697  10.625  11.626   3.784 -0.7339 -0.9383 -0.3456
41923SOL     OW35698   6.825   7.521   3.997  0.7580  0.5658  0.2872
41923SOL    HW135699   6.859   7.462   4.064  1.0929 -0.4604 -0.7584
41923SOL    HW235700   6.758   7.470   3.951  0.4857  1.2768 -0.1227
41924SOL     OW35701  11.064   5.478  13.112 -0.5081  0.2718 -1.0071
41924SOL    HW135702  10.997   5.474  13.043 -2.0110 -0.6624  0.4343
41924SOL    HW235703  11.093   5.387  13.122 -0.6414  0.3220 -0.1055
41925SOL     OW35704   3.349   4.062   0.554  0.2016 -0.0069  0.8735
41925SOL    HW135705   3.271   4.033   0.506  1.4915 -0.7404 -0.8869
41925SOL    HW235706   3.372   3.987   0.609  0.7592 -0.5681 -0.0858
41926SOL     OW35707   1.613  11.957   8.418  0.0343  0.1233  0.3883
41926SOL    HW135708   1.656  11.954   8.503  0.2048 -1.3980  0.2889
41926SOL    HW235709   1.526  11.994   8.436  0.2841  0.3631  1.1179
41927SOL     OW35710   5.525   3.817   2.561  0.0147  0.3552 -0.5537
41927SOL    HW135711   5.555   3.791   2.648 -0.2200  0.0813 -0.5535
41927SOL    HW235712   5.547   3.910   2.554  2.2714 -0.1634 -1.1416
41928SOL     OW35713  11.371   6.751  10.807 -0.4338  0.3134 -0.0494
41928SOL    HW135714  11.409   6.687  10.747 -0.0571  0.8092 -0.3457
41928SOL    HW235715  11.419   6.832  10.789  0.5103  0.1962  1.7563
41929SOL     OW35716   2.754  11.262   3.715 -0.1379  0.4903 -0.2998
41929SOL    HW135717   2.847  11.248   3.698  0.0728  1.0371  0.3941
41929SOL    HW235718   2.720  11.175   3.736  0.0193  0.1357 -1.4506
41930SOL     OW35719   6.519   9.166  13.185  0.2724 -0.4831  0.2806
41930SOL    HW135720   6.454   9.144  13.251 -1.8956 -0.9827 -1.8683
41930SOL    HW235721   6.484   9.243  13.141  1.5920 -0.2186 -0.3493
41931SOL     OW35722   4.925   6.032   6.704 -0.1327 -0.0284 -0.7523
41931SOL    HW135723   4.861   5.961   6.710 -1.1698  0.9353 -0.2274
41931SOL    HW235724   4.934   6.064   6.793 -2.4638  2.9009 -1.4455
41932SOL     OW35725   8.897  10.178   1.634  0.1597  0.0933 -0.0314
41932SOL    HW135726   8.911  10.218   1.719  0.8926  2.0159 -1.0025
41932SOL    HW235727   8.982  10.140   1.610 -0.1620 -0.8430  0.2686
41933SOL     OW35728   3.195  12.279   2.283 -0.5743  0.4040  0.8887
41933SOL    HW135729   3.117  12.224   2.276 -0.5945  0.6674 -1.8918
41933SOL    HW235730   3.268  12.219   2.265 -0.3078  0.6359  1.1850
41934SOL     OW35731  11.751  10.966  11.353  0.4675 -0.2911  0.2453
41934SOL    HW135732  11.757  11.030  11.281 -1.1947 -0.8820 -0.4747
41934SOL    HW235733  11.682  11.001  11.409  0.7727 -0.5624  0.7879
41935SOL     OW35734   0.877   9.963  12.311  0.2294  0.0896 -0.1154
41935SOL    HW135735   0.856   9.916  12.230 -0.4575  0.9839 -0.4664
41935SOL    HW235736   0.893  10.053  12.283  1.2767  0.1307  0.5877
41936SOL     OW35737  13.281   9.107   3.199 -0.2291  0.1454 -0.2962
41936SOL    HW135738  13.317   9.157   3.273 -3.0979  1.2838  0.4789
41936SOL    HW235739  13.260   9.174   3.134 -1.0045 -0.4507 -0.6637
41937SOL     OW35740   5.271   5.846  11.780 -0.1821 -0.3199 -0.3638
41937SOL    HW135741   5.301   5.824  11.692 -0.3474  0.6866 -0.6868
41937SOL    HW235742   5.200   5.784  11.797 -1.3461  0.5782 -1.6658
41938SOL     OW35743   8.603   5.057   3.522  0.2694 -0.2061  0.3141
41938SOL    HW135744   8.622   5.026   3.610 -0.1371 -0.4529  0.3182
41938SOL    HW235745   8.510   5.080   3.524  0.3093 -0.0113  0.0079
41939SOL     OW35746   2.840   7.904  12.904 -0.0215 -0.1187 -0.5896
41939SOL    HW135747   2.776   7.834  12.918 -1.1723  0.8595 -0.7239
41939SOL    HW235748   2.794   7.983  12.933  1.6981  0.4357  0.7658
41940SOL     OW35749   5.449  12.977   8.650 -0.4006  0.2849  0.0269
41940SOL    HW135750   5.428  13.059   8.694  0.3600  0.3033  0.3711
41940SOL    HW235751   5.384  12.915   8.684 -0.4233  0.5304  0.4441
41941SOL     OW35752   8.238   0.133   7.066  0.9981 -0.0083  0.5715
41941SOL    HW135753   8.278   0.111   7.150  1.4093 -0.2323  0.3206
41941SOL    HW235754   8.277   0.071   7.004 -0.1883 -0.6502  0.4264
41942SOL     OW35755   1.343   2.198   5.253 -0.1398 -0.1045 -0.0556
41942SOL    HW135756   1.320   2.228   5.165  0.4761  0.7096  0.0438
41942SOL    HW235757   1.272   2.139   5.278 -0.7611  0.3243 -0.7591
41943SOL     OW35758  10.932   7.858  10.961  0.2113  0.2746 -0.0782
41943SOL    HW135759  10.984   7.911  10.900  2.5934 -1.2154  0.5100
41943SOL    HW235760  10.996   7.800  11.003 -1.9949 -1.9411  0.4811
41944SOL     OW35761   8.948  11.115   1.480 -0.2537  0.2285  0.5935
41944SOL    HW135762   8.899  11.158   1.550 -2.0990  0.6646 -0.8805
41944SOL    HW235763   8.933  11.021   1.494 -0.6544  0.3150  0.7360
41945SOL     OW35764   7.964   0.568   0.619 -0.0450 -0.5730  0.2586
41945SOL    HW135765   8.026   0.614   0.562 -1.3000  1.9760  0.8237
41945SOL    HW235766   7.879   0.583   0.579 -0.9975  1.4681  2.7790
41946SOL     OW35767   7.294  12.235   0.628 -0.1397  0.2094 -0.5443
41946SOL    HW135768   7.211  12.233   0.581 -0.3382 -0.9164 -0.1936
41946SOL    HW235769   7.279  12.295   0.701 -0.2802  0.8746 -1.1157
41947SOL     OW35770   9.174   8.600  11.470 -0.1838  0.6285 -0.0484
41947SOL    HW135771   9.229   8.668  11.508  0.2907  0.1078  0.2060
41947SOL    HW235772   9.103   8.648  11.427 -1.1425  1.2293  2.0803
41948SOL     OW35773   8.243  10.867   7.886 -0.4156 -0.0546  0.9700
41948SOL    HW135774   8.151  10.865   7.862 -0.5556 -2.3400  1.4647
41948SOL    HW235775   8.247  10.928   7.959 -1.1674  1.5675 -0.2902
41949SOL     OW35776   6.456   2.336   1.424 -0.2842  0.1981 -0.4157
41949SOL    HW135777   6.464   2.243   1.444  1.4895  0.0672 -1.5736
41949SOL    HW235778   6.533   2.376   1.464 -1.0097  1.1994  0.0421
41950SOL     OW35779   5.296   4.712  11.245 -0.3643  0.1354 -0.4262
41950SOL    HW135780   5.352   4.786  11.270 -0.0222 -0.6094  1.1253
41950SOL    HW235781   5.307   4.648  11.315 -1.7090 -0.8346 -1.0414
41951SOL     OW35782   1.100  10.175  13.199 -0.5380  0.2593 -0.4805
41951SOL    HW135783   1.065  10.116  13.132 -2.0315  0.3554  0.1645
41951SOL    HW235784   1.098  10.123  13.279  1.6121  0.0107 -0.5382
41952SOL     OW35785  11.143   1.374  12.328  0.3875 -0.3595 -0.4776
41952SOL    HW135786  11.159   1.457  12.374 -1.3737  0.5749 -1.4382
41952SOL    HW235787  11.099   1.400  12.247 -0.3422 -2.2372 -0.7242
41953SOL     OW35788   9.062   9.239   0.014  0.0678 -0.4507  0.5735
41953SOL    HW135789   9.008   9.165  -0.015 -1.8310  0.8296  0.6383
41953SOL    HW235790   9.057   9.235   0.110 -1.2148  0.5363  0.5681
41954SOL     OW35791   4.525   4.401   8.868  0.1439  0.2849  0.5865
41954SOL    HW135792   4.592   4.332   8.873 -0.0509  0.0370 -0.1442
41954SOL    HW235793   4.550   4.453   8.792 -0.3998  0.3016  0.4217
41955SOL     OW35794   4.273   0.960   9.458 -0.1179  0.6723  0.1511
41955SOL    HW135795   4.288   1.040   9.407  0.3327  1.4250  1.4312
41955SOL    HW235796   4.179   0.963   9.478  0.3127  2.2269  2.2940
41956SOL     OW35797   8.600  10.439   8.180  0.5416 -0.4035 -0.3559
41956SOL    HW135798   8.675  10.397   8.138 -0.1600 -1.0028 -1.0635
41956SOL    HW235799   8.577  10.512   8.123  0.3418 -0.4679 -0.3606
41957SOL     OW35800   5.040   8.525   4.645 -0.0450  0.0466  0.4821
41957SOL    HW135801   5.011   8.559   4.730  2.1803 -0.2944  1.4547
41957SOL    HW235802   5.094   8.595   4.609 -0.4649 -0.0644 -0.3799
41958SOL     OW35803   4.550   4.817   9.339 -0.2094  0.2655  0.1462
41958SOL    HW135804   4.493   4.744   9.313 -0.1559  0.2299  0.1275
41958SOL    HW235805   4.497   4.895   9.325  0.6517  0.4523 -2.4125
41959SOL     OW35806   2.743  10.343   3.604  0.0965  0.2241  0.0917
41959SOL    HW135807   2.683  10.357   3.678  0.1961 -1.7941  0.6200
41959SOL    HW235808   2.695  10.284   3.546  1.0352 -0.3133 -0.1511
41960SOL     OW35809  10.687   5.346  12.354  0.4682  0.3417  0.0233
41960SOL    HW135810  10.653   5.396  12.280  1.3274 -0.0783 -0.6716
41960SOL    HW235811  10.778   5.372  12.361  0.7701 -0.6665  0.0246
41961SOL     OW35812   7.930   5.553   3.997 -0.5202 -0.4567 -0.5175
41961SOL    HW135813   7.946   5.632   4.048 -0.1046 -0.6887 -0.2883
41961SOL    HW235814   7.858   5.577   3.938  0.7629  0.6453 -1.6785
41962SOL     OW35815   9.478   8.795   5.489 -0.6239  0.9715  0.3970
41962SOL    HW135816   9.548   8.860   5.484  1.7933 -1.3778  1.3825
41962SOL    HW235817   9.456   8.777   5.398  0.1101  1.7125  0.0567
41963SOL     OW35818  12.444   4.131   4.317  0.4135 -0.1509  0.2515
41963SOL    HW135819  12.378   4.065   4.338  0.5206 -0.9190 -1.6158
41963SOL    HW235820  12.395   4.206   4.285  0.3318  0.4062  1.6303
41964SOL     OW35821   6.236  11.806   7.004  0.4162  0.3012 -0.5178
41964SOL    HW135822   6.224  11.737   7.069  0.7843 -0.6108 -1.3951
41964SOL    HW235823   6.171  11.787   6.936 -1.8859  2.7959  0.7576
41965SOL     OW35824   8.528   1.154   0.662  0.3694 -0.4747  0.5891
41965SOL    HW135825   8.460   1.088   0.675 -0.4672  0.4325  1.0323
41965SOL    HW235826   8.504   1.224   0.723 -0.1167  1.2509 -1.4603
41966SOL     OW35827  12.971  10.916   1.230 -0.6936 -0.3024  0.0254
41966SOL    HW135828  13.013  10.970   1.297 -1.5931 -0.9934  1.1962
41966SOL    HW235829  12.914  10.976   1.183  0.3091  0.2904 -0.4647
41967SOL     OW35830   4.196   6.379  12.085  0.1081 -0.3934 -0.2446
41967SOL    HW135831   4.111   6.384  12.042  0.1266 -0.5353 -0.2990
41967SOL    HW235832   4.227   6.290  12.067 -0.1741 -0.6794  0.5936
41968SOL     OW35833   0.265   6.350   5.734 -0.1621 -0.4974 -0.7906
41968SOL    HW135834   0.325   6.423   5.719 -1.3525  0.9246  0.8984
41968SOL    HW235835   0.321   6.276   5.755  1.0624  0.1600 -1.6336
41969SOL     OW35836   0.160   1.290  11.986  0.2125  0.0580 -0.2490
41969SOL    HW135837   0.233   1.234  11.958  0.4165 -0.0801  0.5514
41969SOL    HW235838   0.198   1.378  11.992 -0.2133  0.4017 -1.9520
41970SOL     OW35839  12.103   7.377   8.370  0.0688 -0.0530  0.2016
41970SOL    HW135840  12.160   7.321   8.423  0.9845 -0.9568 -1.6246
41970SOL    HW235841  12.033   7.319   8.340 -0.8245  0.6138  0.9580
41971SOL     OW35842   9.461   3.673   5.283 -0.1813  0.2024  0.4706
41971SOL    HW135843   9.502   3.586   5.279 -1.8133 -0.5777 -0.0792
41971SOL    HW235844   9.503   3.723   5.213  1.1647  0.0658  1.1415
41972SOL     OW35845   1.841   2.907  13.087  0.2554 -0.6064 -0.5515
41972SOL    HW135846   1.780   2.973  13.054 -0.7337 -1.5744 -0.7323
41972SOL    HW235847   1.878   2.946  13.166 -0.7437 -0.0396 -0.3411
41973SOL     OW35848   3.646  11.899   8.160  0.4342  0.1943 -0.2232
41973SOL    HW135849   3.715  11.873   8.221 -0.6662  1.0858  1.4585
41973SOL    HW235850   3.684  11.883   8.073  2.4828  0.0189  0.6539
41974SOL     OW35851  12.648  10.900  11.562  0.1811  0.1132  0.5307
41974SOL    HW135852  12.740  10.880  11.544 -0.4444 -0.5773 -2.4691
41974SOL    HW235853  12.646  10.996  11.566  1.0244  0.1445  0.5062
41975SOL     OW35854   7.177   2.535  12.087 -0.0752  0.3530 -0.1049
41975SOL    HW135855   7.178   2.445  12.053 -0.1355  0.1854  0.3346
41975SOL    HW235856   7.087   2.548  12.116  0.0946  0.3243  0.4385
41976SOL     OW35857  13.208   4.816   3.942 -0.1837 -0.3891 -0.3135
41976SOL    HW135858  13.158   4.893   3.913 -1.8051 -1.6557 -1.0068
41976SOL    HW235859  13.151   4.742   3.924  1.9345 -1.9307 -1.0528
41977SOL     OW35860   4.661   4.479   9.446 -0.6741 -0.3338 -0.1542
41977SOL    HW135861   4.643   4.473   9.352 -1.2984 -1.8573  0.0297
41977SOL    HW235862   4.739   4.426   9.460 -0.5273 -0.0356  0.1708
41978SOL     OW35863  10.712   1.188  13.208 -0.6790 -0.1625 -0.5569
41978SOL    HW135864  10.630   1.237  13.216 -0.7524 -0.4829  1.0084
41978SOL    HW235865  10.740   1.174  13.298  0.3227 -1.3734 -1.0294
41979SOL     OW35866   9.772   9.539   9.420 -0.2117 -0.1547 -0.0910
41979SOL    HW135867   9.866   9.524   9.408 -0.0350  0.5180  0.3667
41979SOL    HW235868   9.752   9.501   9.506 -0.2319  0.2187  0.0718
41980SOL     OW35869   8.790   4.236   0.940 -0.1777 -0.2377 -0.3000
41980SOL    HW135870   8.814   4.177   0.868 -3.7097 -2.8898  0.4687
41980SOL    HW235871   8.701   4.264   0.920 -0.6057  0.3987  2.1517
41981SOL     OW35872   0.010   3.396   8.673 -0.2896  0.0886 -0.0378
41981SOL    HW135873  -0.029   3.444   8.746 -1.2776  1.1727 -1.2409
41981SOL    HW235874   0.073   3.456   8.635  2.2320 -1.4133  1.4805
41982SOL     OW35875   7.731  10.533   6.141 -0.0082 -0.7752  0.3715
41982SOL    HW135876   7.812  10.522   6.190  0.0530 -1.2327  0.1720
41982SOL    HW235877   7.693  10.614   6.175 -0.4508 -1.5816  1.8546
41983SOL     OW35878   4.519   3.024   3.472  0.4094  0.5177  0.2730
41983SOL    HW135879   4.500   3.088   3.540 -1.1628 -0.7531  1.0982
41983SOL    HW235880   4.436   3.012   3.426  0.8602 -0.3928 -0.3511
41984SOL     OW35881   6.153   2.595   2.938 -0.3719 -0.0229  0.0425
41984SOL    HW135882   6.068   2.625   2.906 -0.0264  0.3767 -0.5232
41984SOL    HW235883   6.132   2.533   3.008 -1.1292 -0.0927 -0.2370
41985SOL     OW35884   4.626   0.889   5.901 -0.3643 -0.1093 -0.2204
41985SOL    HW135885   4.683   0.900   5.977 -1.3594  0.1437  0.5053
41985SOL    HW235886   4.623   0.976   5.860 -0.0133 -0.1904 -0.4232
41986SOL     OW35887  12.278   2.277   5.056 -0.0236 -0.4438 -0.0446
41986SOL    HW135888  12.199   2.320   5.091  0.6321  0.2590  0.6246
41986SOL    HW235889  12.347   2.304   5.116  0.8107 -0.6935 -0.8800
41987SOL     OW35890   5.179   5.205   5.472  0.4121 -0.4427  0.1969
41987SOL    HW135891   5.187   5.114   5.443  0.7068  0.4043 -2.7345
41987SOL    HW235892   5.261   5.222   5.519  0.9686 -1.3638 -0.3965
41988SOL     OW35893   1.532  11.542   0.629 -0.1749  0.2238 -0.4832
41988SOL    HW135894   1.503  11.517   0.542 -0.4031 -0.3919 -0.2396
41988SOL    HW235895   1.460  11.594   0.665 -1.2208 -1.6486  0.2765
41989SOL     OW35896   4.964   6.760   2.255 -0.1415 -0.0558 -0.1579
41989SOL    HW135897   5.037   6.818   2.235  0.1674  0.2687  1.7255
41989SOL    HW235898   4.914   6.756   2.173 -0.3264  3.0635 -0.3352
41990SOL     OW35899   2.881   9.713   5.779 -0.1051  0.5015 -0.5871
41990SOL    HW135900   2.805   9.746   5.826  0.5868  0.7500  0.3893
41990SOL    HW235901   2.850   9.633   5.736 -0.7354  0.1940  0.4045
41991SOL     OW35902   1.602   7.849   4.964  0.3297  0.2383  0.5423
41991SOL    HW135903   1.644   7.902   4.896 -2.5745  2.3761  0.2077
41991SOL    HW235904   1.644   7.877   5.045  1.2395  0.4696  0.0078
41992SOL     OW35905   0.061   1.188  10.119 -0.1819 -0.2070  0.2664
41992SOL    HW135906   0.047   1.235  10.202 -0.0909  1.4511 -0.6099
41992SOL    HW235907  -0.026   1.184  10.079 -0.1351 -0.5066  0.1976
41993SOL     OW35908   6.309   9.963  12.192  0.0016 -0.0745 -0.0585
41993SOL    HW135909   6.361   9.913  12.255 -0.5060 -1.3794 -0.6516
41993SOL    HW235910   6.229   9.986  12.239  0.0302 -0.2365  0.0702
41994SOL     OW35911   2.054   8.984   4.471  0.7423 -0.4395 -0.0080
41994SOL    HW135912   2.087   8.939   4.393  2.1359  0.4280  0.0451
41994SOL    HW235913   2.131   8.994   4.526 -0.0042  0.0104  0.9683
41995SOL     OW35914   7.645   7.967  11.834 -0.1083 -0.1618 -0.4075
41995SOL    HW135915   7.702   7.914  11.889 -1.4503  0.9448  2.2556
41995SOL    HW235916   7.558   7.959  11.874 -0.4231  3.8392  0.1865
41996SOL     OW35917   6.493  10.590   0.267 -0.4343  0.7134  0.1912
41996SOL    HW135918   6.557  10.521   0.285  0.1106  1.4088  0.9839
41996SOL    HW235919   6.470  10.625   0.353 -1.2513  1.0483 -0.1454
41997SOL     OW35920   8.474  12.080  11.604  0.2954  0.7224  0.2418
41997SOL    HW135921   8.517  12.165  11.601  0.7418  0.4832 -0.5603
41997SOL    HW235922   8.537  12.021  11.646  0.3010  0.6216  0.0952
41998SOL     OW35923  12.215   1.436   1.802  0.7172 -0.1084 -0.3797
41998SOL    HW135924  12.135   1.383   1.809 -0.2701  1.1793 -1.3158
41998SOL    HW235925  12.185   1.519   1.766  2.2910  0.9229  0.5550
41999SOL     OW35926   8.742   6.432  11.230  0.1210 -0.0904  0.0764
41999SOL    HW135927   8.673   6.374  11.198 -2.6102  3.0607 -0.2626
41999SOL    HW235928   8.776   6.474  11.151 -0.3594  1.1958  0.5247
42000SOL     OW35929   6.813   7.641   5.748  0.5454 -0.2276 -0.1686
42000SOL    HW135930   6.737   7.695   5.725 -0.6507 -1.9038 -0.3069
42000SOL    HW235931   6.804   7.625   5.841  1.1065  0.0984 -0.0519
42001SOL     OW35932  12.753   9.762   3.844 -0.2069 -0.1805  0.3752
42001SOL    HW135933  12.678   9.821   3.833  0.5231  0.4501 -1.6799
42001SOL    HW235934  12.724   9.679   3.805 -0.1327 -0.2100  0.3838
42002SOL     OW35935   9.280  13.092   1.574 -0.6326  0.2215  0.3395
42002SOL    HW135936   9.308  13.165   1.518 -0.2063  0.0132  0.2792
42002SOL    HW235937   9.238  13.031   1.513  1.8325 -1.0815 -0.1893
42003SOL     OW35938  11.904  10.992   4.098  0.2392  0.7286 -0.1268
42003SOL    HW135939  11.921  11.080   4.062 -0.8950  1.6340  1.4372
42003SOL    HW235940  11.813  10.973   4.074  1.0451 -0.9345 -2.1656
42004SOL     OW35941   1.836  12.341   6.651 -0.2291 -0.3281 -0.3882
42004SOL    HW135942   1.741  12.332   6.651 -0.2272 -0.5518 -1.6947
42004SOL    HW235943   1.866  12.283   6.581  0.7987  0.4153 -0.5948
42005SOL     OW35944   4.136   6.427  12.550  0.0797 -0.0796  0.3785
42005SOL    HW135945   4.070   6.484  12.511  0.5660 -0.0054 -0.3446
42005SOL    HW235946   4.178   6.481  12.617 -0.8500 -0.2542  1.1297
42006SOL     OW35947  12.399   0.006   8.152  0.1262  0.6280 -0.0204
42006SOL    HW135948  12.449   0.067   8.098 -0.4465 -1.7901 -3.5629
42006SOL    HW235949  12.462  -0.026   8.217  1.7399  1.3475 -1.1728
42007SOL     OW35950   6.956  11.697   2.971 -0.7460 -0.2179 -0.1056
42007SOL    HW135951   6.992  11.746   2.897  0.1374 -0.5007  0.1243
42007SOL    HW235952   6.971  11.754   3.047 -0.5473 -0.4495  0.0295
42008SOL     OW35953   7.039   3.953  12.779 -0.0818 -0.6227 -0.1944
42008SOL    HW135954   7.083   3.958  12.695  0.5707 -3.0603 -0.0648
42008SOL    HW235955   7.107   3.927  12.841 -0.7745  0.0371  0.8754
42009SOL     OW35956   6.983  10.607   8.066 -0.4663 -0.2827 -0.6425
42009SOL    HW135957   6.911  10.626   8.126 -0.6099 -2.3958 -0.0727
42009SOL    HW235958   7.011  10.519   8.089  3.2995  0.9375  0.1591
42010SOL     OW35959  11.807   7.765   5.555  0.0704 -0.3655 -0.4329
42010SOL    HW135960  11.874   7.815   5.603 -0.8148  0.4189  0.0258
42010SOL    HW235961  11.729   7.820   5.560 -0.1637 -0.4590 -2.4421
42011SOL     OW35962   0.298   0.192   1.930 -0.2464  0.1213  0.0755
42011SOL    HW135963   0.382   0.232   1.906 -0.8790  1.3251 -0.1907
42011SOL    HW235964   0.257   0.170   1.847  0.3721 -1.7895  0.2073
42012SOL     OW35965  12.228   9.003   3.836  0.7549  0.2529 -0.3053
42012SOL    HW135966  12.213   8.934   3.901  1.6648 -1.1120 -1.4592
42012SOL    HW235967  12.152   9.059   3.842  0.6782 -0.0047  1.7154
42013SOL     OW35968  13.108   9.090  10.915  0.3866  0.7694  0.0409
42013SOL    HW135969  13.120   9.171  10.964  2.4324  0.4261  0.1727
42013SOL    HW235970  13.196   9.055  10.902 -0.3412 -0.8218 -1.0767
42014SOL     OW35971  11.858  13.202   8.853  0.0388 -0.1634  0.2698
42014SOL    HW135972  11.802  13.216   8.777  0.7572 -0.4007 -0.3163
42014SOL    HW235973  11.943  13.239   8.828  0.4166 -0.6666  0.7696
42015SOL     OW35974   7.030  11.050  12.363 -0.0986  0.5927 -0.1605
42015SOL    HW135975   6.934  11.057  12.362 -0.3354 -1.8016 -0.0098
42015SOL    HW235976   7.048  10.962  12.331  1.9880  0.3310  1.5204
42016SOL     OW35977  10.036   0.630  10.028  0.1974  0.5317 -0.3936
42016SOL    HW135978  10.050   0.644  10.122 -0.7886  1.0881 -0.3068
42016SOL    HW235979  10.124   0.621   9.991  0.6797  1.7817  0.3775
42017SOL     OW35980   3.472   0.886   1.281 -1.0201 -0.2836  0.0256
42017SOL    HW135981   3.515   0.895   1.367  0.6085  1.0490 -0.8546
42017SOL    HW235982   3.506   0.803   1.246 -0.3671 -0.0040 -0.0138
42018SOL     OW35983   0.384  12.865   0.355 -0.3893 -0.2639  0.3887
42018SOL    HW135984   0.435  12.813   0.292 -0.4316 -0.7796  0.7746
42018SOL    HW235985   0.295  12.830   0.346 -0.2298 -0.9431  1.3578
42019SOL     OW35986  12.558  11.482   6.006  0.1351 -0.4635  0.2385
42019SOL    HW135987  12.532  11.568   5.975  0.2274 -1.4048 -2.7987
42019SOL    HW235988  12.479  11.429   6.000  0.3907 -0.9193  0.7884
42020SOL     OW35989   6.170   9.665   6.340 -0.0863 -0.3406  0.0623
42020SOL    HW135990   6.136   9.607   6.407 -0.5521  0.9743  0.9990
42020SOL    HW235991   6.226   9.609   6.286  0.7845 -1.3174  1.8865
42021SOL     OW35992  11.504   9.826   0.018 -0.6201  0.6238 -0.1294
42021SOL    HW135993  11.541   9.756   0.073  0.3404  0.1884 -1.2781
42021SOL    HW235994  11.571   9.894   0.017 -1.0489  1.0556  0.0147
42022SOL     OW35995   3.041   6.707   7.884 -0.3093  0.3653  0.1016
42022SOL    HW135996   2.999   6.726   7.800 -1.0731 -1.4788  0.0323
42022SOL    HW235997   2.969   6.697   7.945  0.2684  3.0692  1.3700
42023SOL     OW35998  12.994  11.250   9.951  0.1386  0.4822 -0.4320
42023SOL    HW135999  13.078  11.254   9.996  0.5962 -2.0636 -0.9094
42023SOL    HW236000  12.929  11.247  10.021  0.1941  3.9907 -0.0356
42024SOL     OW36001   9.029  12.085  12.067 -0.1437 -0.7338 -0.7160
42024SOL    HW136002   9.021  12.035  12.148  2.9834  0.4199  0.4662
42024SOL    HW236003   9.060  12.022  12.003 -0.7999 -1.2672 -0.5181
42025SOL     OW36004  10.479   1.010  10.688  0.1983 -0.2335 -0.0585
42025SOL    HW136005  10.567   0.994  10.722 -0.0386  0.0197  0.6934
42025SOL    HW236006  10.488   1.085  10.630  0.3346  0.2898  0.6383
42026SOL     OW36007  10.721   2.385   6.856  0.2410 -0.5682  0.0611
42026SOL    HW136008  10.632   2.407   6.883  0.4254 -0.1790  0.3642
42026SOL    HW236009  10.713   2.299   6.815  0.0440 -1.4359  1.8466
42027SOL     OW36010   4.218   6.622   1.334  0.1216  0.0216  0.6944
42027SOL    HW136011   4.133   6.578   1.339  0.1129 -0.3410 -1.5817
42027SOL    HW236012   4.235   6.651   1.423 -2.0837 -0.4717  1.3431
42028SOL     OW36013  12.696   4.155   0.222  0.2228 -0.4999 -0.2038
42028SOL    HW136014  12.636   4.081   0.213 -0.6039  0.2272 -0.8952
42028SOL    HW236015  12.706   4.167   0.316 -0.7138 -0.6485 -0.0798
42029SOL     OW36016   2.674   4.225  13.281 -0.3131 -0.0065 -0.2990
42029SOL    HW136017   2.663   4.309  13.325 -0.8220 -0.9189  1.3900
42029SOL    HW236018   2.758   4.233  13.235  1.0993  0.4859  2.1687
42030SOL     OW36019  10.822   9.705   5.573  0.6356 -0.0148 -0.0284
42030SOL    HW136020  10.775   9.776   5.529  0.8740  0.2935  0.2141
42030SOL    HW236021  10.753   9.647   5.606  0.3846  0.8717  1.0538
42031SOL     OW36022  12.476  10.088   9.558 -0.4036  0.2383 -0.3652
42031SOL    HW136023  12.431  10.037   9.625 -1.9106  0.7942 -0.9180
42031SOL    HW236024  12.485  10.028   9.484 -1.0732  0.3977 -0.5795
42032SOL     OW36025  12.748   3.414   1.086 -1.2475 -0.4102  0.1278
42032SOL    HW136026  12.662   3.449   1.061 -2.2639 -1.7984  1.5228
42032SOL    HW236027  12.734   3.320   1.096 -0.0788 -0.4319  2.2322
42033SOL     OW36028   3.397  11.691   4.621  0.1290  0.2376  0.2209
42033SOL    HW136029   3.321  11.726   4.573 -0.8056 -0.9693  0.7675
42033SOL    HW236030   3.372  11.601   4.642  1.6048 -0.0788  0.6900
42034SOL     OW36031   3.301   1.166   6.473 -0.0495 -0.2844  0.1381
42034SOL    HW136032   3.251   1.085   6.486 -0.0597 -0.1317  1.1363
42034SOL    HW236033   3.242   1.235   6.503 -0.9640  0.3763 -2.8347
42035SOL     OW36034   1.742   4.986  10.718  0.0567  0.6217  0.0755
42035SOL    HW136035   1.797   4.965  10.793 -0.4237  1.9514  0.8319
42035SOL    HW236036   1.792   5.052  10.669  0.9575 -1.1671 -1.5407
42036SOL     OW36037  12.417   9.814  10.861  0.3618  0.5394 -0.2261
42036SOL    HW136038  12.423   9.739  10.919 -0.5816  1.4681  1.1293
42036SOL    HW236039  12.428   9.890  10.918  0.3129  1.4588 -1.4005
42037SOL     OW36040   5.566   2.958   7.910 -0.4815 -0.4493 -0.5693
42037SOL    HW136041   5.601   2.955   7.998 -0.3663 -0.0756 -0.6040
42037SOL    HW236042   5.477   2.993   7.920  0.2949  1.7601 -0.8320
42038SOL     OW36043  11.703   8.555   0.622 -0.7348  0.0081  0.8771
42038SOL    HW136044  11.653   8.538   0.702 -1.7818  1.0204  0.4703
42038SOL    HW236045  11.769   8.619   0.648 -1.0078  0.2568  0.9602
42039SOL     OW36046  12.905   7.765   7.970 -0.5820 -0.4695 -0.5453
42039SOL    HW136047  12.830   7.825   7.971 -1.0336 -1.0163 -0.9438
42039SOL    HW236048  12.904   7.724   8.056 -0.0352  0.3787 -0.1294
42040SOL     OW36049   2.242  10.980   1.305 -0.6853 -0.4936  0.0095
42040SOL    HW136050   2.153  10.977   1.270 -0.5622 -0.8210 -0.2833
42040SOL    HW236051   2.247  11.064   1.350 -0.8497 -0.0544 -0.7615
42041SOL     OW36052  12.890   3.071   9.602  0.5139  0.3527 -0.6164
42041SOL    HW136053  12.905   2.978   9.580 -1.0164  0.2641 -1.4127
42041SOL    HW236054  12.868   3.070   9.695 -0.4953 -0.2309 -0.8434
42042SOL     OW36055   0.412   2.452  12.238 -0.6692  0.4414  0.0267
42042SOL    HW136056   0.410   2.366  12.195 -1.7130  1.3763 -1.9206
42042SOL    HW236057   0.367   2.438  12.322 -0.6530 -0.9340 -0.1763
42043SOL     OW36058  10.843  12.738   4.116 -0.7706  0.6288 -0.3084
42043SOL    HW136059  10.788  12.817   4.121  0.7543  2.0142 -3.1266
42043SOL    HW236060  10.826  12.703   4.029 -0.2074 -1.3109  0.3059
42044SOL     OW36061  11.142   1.225  12.018 -0.1417 -0.2694  0.1730
42044SOL    HW136062  11.115   1.313  12.043 -0.0853 -0.1108 -0.3196
42044SOL    HW236063  11.145   1.227  11.922 -3.5144 -1.7438 -0.1215
42045SOL     OW36064   5.871  11.592  11.796 -0.0188 -0.3474 -0.0239
42045SOL    HW136065   5.828  11.571  11.879 -1.2141 -1.2634 -0.8275
42045SOL    HW236066   5.895  11.684  11.803 -1.4882  0.0140  0.7722
42046SOL     OW36067   5.007   8.350  11.499  0.1976  0.3542 -0.1227
42046SOL    HW136068   5.031   8.429  11.450  0.8257  1.0716  1.2987
42046SOL    HW236069   4.956   8.382  11.573 -2.2165 -0.8597 -1.1499
42047SOL     OW36070  12.633   6.305   1.612 -0.7070  0.3402  0.2003
42047SOL    HW136071  12.566   6.369   1.590 -2.0541 -1.7317 -2.3196
42047SOL    HW236072  12.710   6.332   1.562 -1.1939  0.1987 -0.6559
42048SOL     OW36073   3.438  11.256   9.868  0.0136 -0.2763  0.0273
42048SOL    HW136074   3.344  11.238   9.862 -0.6950  2.5167  1.5179
42048SOL    HW236075   3.471  11.192   9.931 -1.0742 -0.6551  0.2230
42049SOL     OW36076   7.150  10.068  10.070 -0.6572 -0.4635 -0.3338
42049SOL    HW136077   7.058  10.063  10.042 -0.9029 -0.9200  0.5380
42049SOL    HW236078   7.194  10.113   9.998 -1.7095  0.4776 -0.4233
42050SOL     OW36079   6.214   8.482   1.681 -0.2653 -0.4236  0.1345
42050SOL    HW136080   6.214   8.387   1.692 -0.7191 -0.7610 -2.2062
42050SOL    HW236081   6.148   8.513   1.743  0.4616 -1.5101  1.5127
42051SOL     OW36082   3.334   6.204   4.135  0.0637  0.1081 -0.0490
42051SOL    HW136083   3.404   6.139   4.128  1.3146  1.2095  1.4309
42051SOL    HW236084   3.342   6.238   4.225 -2.3933  0.2807  0.1779
42052SOL     OW36085  12.265   9.948   4.224  1.1688 -0.1916 -0.9715
42052SOL    HW136086  12.206  10.006   4.272  2.3972  0.3884 -0.1269
42052SOL    HW236087  12.208   9.877   4.193 -0.0476  0.5706 -0.5748
42053SOL     OW36088   9.878   0.660  10.470 -0.6637  0.9407 -0.1503
42053SOL    HW136089   9.919   0.580  10.502 -1.7145  0.6883  0.6388
42053SOL    HW236090   9.796   0.631  10.430 -0.5586  1.5265 -0.8149
42054SOL     OW36091   3.757   8.511  12.176 -0.1756 -0.5500  0.2370
42054SOL    HW136092   3.774   8.540  12.266 -0.3566 -0.5072  0.2568
42054SOL    HW236093   3.827   8.551  12.124 -0.4500 -0.0432  0.2552
42055SOL     OW36094   9.374   5.016   8.104  0.1899 -0.1245 -0.1916
42055SOL    HW136095   9.381   4.921   8.105  0.0212 -0.1831 -1.8596
42055SOL    HW236096   9.457   5.046   8.142  0.8737 -0.9432 -0.9651
42056SOL     OW36097   7.082  11.588   2.682 -0.0426 -0.1411  0.4768
42056SOL    HW136098   7.060  11.499   2.709  1.2432 -0.4786  0.4789
42056SOL    HW236099   7.112  11.579   2.592  1.0786  0.1116  0.8062
42057SOL     OW36100   8.824   3.336   1.439 -0.3112  0.2501  0.4416
42057SOL    HW136101   8.744   3.284   1.436 -0.9034  1.1851 -0.9956
42057SOL    HW236102   8.831   3.374   1.352  2.6938 -1.2670 -0.1190
42058SOL     OW36103   3.593   1.791   8.127 -0.3118 -0.2765  0.0302
42058SOL    HW136104   3.511   1.839   8.136 -0.6435 -0.7437 -0.4273
42058SOL    HW236105   3.661   1.859   8.129 -0.6653  0.0578  0.9869
42059SOL     OW36106  10.595   8.343   4.228 -0.2213 -0.0174 -0.5303
42059SOL    HW136107  10.674   8.369   4.275  0.5745 -1.7528 -0.8308
42059SOL    HW236108  10.564   8.265   4.275 -1.4160  0.2652 -0.8050
42060SOL     OW36109  12.312   2.138   9.799 -0.1107 -0.6415 -0.2238
42060SOL    HW136110  12.366   2.105   9.727  1.1394  0.6318  0.0929
42060SOL    HW236111  12.320   2.072   9.867  0.6523 -0.7295 -0.3836
42061SOL     OW36112   9.702   5.046   4.335 -0.1152  0.0637 -0.0760
42061SOL    HW136113   9.718   4.979   4.402  1.9038 -0.4674 -1.0171
42061SOL    HW236114   9.612   5.074   4.350 -0.2113 -1.1254  1.8846
42062SOL     OW36115   6.393   4.088  10.551  0.2765 -0.0336 -0.5284
42062SOL    HW136116   6.428   4.173  10.577  0.4787  0.3120 -1.8324
42062SOL    HW236117   6.298   4.099  10.555  0.2865  0.4954 -1.3185
42063SOL     OW36118   5.267  11.714   6.180 -0.1592 -0.4824  0.4191
42063SOL    HW136119   5.246  11.640   6.238  1.4096  0.2518  2.0176
42063SOL    HW236120   5.227  11.790   6.223 -2.1405 -0.3599 -1.4350
42064SOL     OW36121   4.397   7.859   9.373 -0.5567  0.1482  0.3345
42064SOL    HW136122   4.431   7.806   9.302 -0.2378 -0.5455  0.9902
42064SOL    HW236123   4.404   7.803   9.451 -1.5566  0.6291  0.7899
42065SOL     OW36124   5.429   5.888   5.468  0.2495 -0.2017 -0.0334
42065SOL    HW136125   5.453   5.962   5.411  3.5432 -1.9207 -1.1936
42065SOL    HW236126   5.441   5.921   5.557 -2.7990  1.8755 -0.2439
42066SOL     OW36127   6.352   6.167   4.166  0.8030  0.0859  0.6374
42066SOL    HW136128   6.426   6.211   4.125  0.0122  0.5164 -0.3426
42066SOL    HW236129   6.286   6.159   4.097  0.4243 -1.4824  1.1241
42067SOL     OW36130   7.315   4.393   2.736 -0.0334  0.6127  0.1365
42067SOL    HW136131   7.314   4.302   2.706  0.3239  0.8111 -0.5153
42067SOL    HW236132   7.382   4.395   2.805 -0.3206  0.3021  0.4224
42068SOL     OW36133   6.325   2.453   7.344 -0.2176  0.0018  0.0970
42068SOL    HW136134   6.266   2.381   7.325  1.0607 -0.4439 -2.5736
42068SOL    HW236135   6.270   2.532   7.338 -0.8615 -0.5000 -0.7215
42069SOL     OW36136   3.055   8.932   5.759 -0.1577 -0.1135 -0.1498
42069SOL    HW136137   3.048   9.022   5.728 -1.7212  0.5903  1.9801
42069SOL    HW236138   2.993   8.883   5.706 -1.5554  0.7210  0.6502
42070SOL     OW36139   8.520   6.796   9.170  0.0688 -0.0161  0.1399
42070SOL    HW136140   8.604   6.815   9.128  0.1190 -1.3518 -0.4056
42070SOL    HW236141   8.511   6.701   9.163 -2.1291  0.2322 -1.0112
42071SOL     OW36142   8.576   2.082   4.712 -0.0599  0.2202  0.1943
42071SOL    HW136143   8.669   2.059   4.715 -0.0643  0.0972 -0.3610
42071SOL    HW236144   8.534   2.021   4.773  0.0907 -0.4653 -0.3640
42072SOL     OW36145   2.262   9.637   1.424 -0.2320 -0.2021 -0.0235
42072SOL    HW136146   2.177   9.599   1.400 -0.3375 -0.6290  0.9625
42072SOL    HW236147   2.324   9.565   1.412 -0.6226 -1.2719  3.1812
42073SOL     OW36148  12.512   3.977   4.809  0.5076  0.3018  0.2387
42073SOL    HW136149  12.465   4.060   4.814 -0.8687 -0.3539 -0.8211
42073SOL    HW236150  12.485   3.940   4.725 -0.5996 -2.1519  1.5592
42074SOL     OW36151   1.331   8.162   3.718 -0.2336 -0.2337  0.4083
42074SOL    HW136152   1.338   8.072   3.747  1.1258 -0.7311 -1.2731
42074SOL    HW236153   1.275   8.158   3.640 -1.2823  0.6071  1.0784
42075SOL     OW36154   1.137   9.492  11.809  0.4953  0.1864 -0.0013
42075SOL    HW136155   1.078   9.538  11.869  1.2073  0.8319  0.2286
42075SOL    HW236156   1.126   9.538  11.726  1.0192  0.6198  0.1642
42076SOL     OW36157   0.571   1.721   5.091 -0.1098 -0.5149  0.5853
42076SOL    HW136158   0.581   1.627   5.102  2.1751 -0.1778  2.0833
42076SOL    HW236159   0.625   1.743   5.015 -1.2357 -0.4826 -0.2233
42077SOL     OW36160   0.704   2.676   4.893 -0.1758  0.2243 -0.2222
42077SOL    HW136161   0.769   2.624   4.939  0.0544  0.7296  0.0260
42077SOL    HW236162   0.693   2.631   4.809 -1.5236 -1.4452  0.7625
42078SOL     OW36163   3.118   7.892   1.670  0.2029 -0.2508 -0.7704
42078SOL    HW136164   3.191   7.842   1.708 -2.5977 -3.2926  1.1064
42078SOL    HW236165   3.121   7.976   1.717 -0.5049 -2.2836  3.3958
42079SOL     OW36166  11.564   5.338   1.690  0.2578  0.3311  0.5006
42079SOL    HW136167  11.493   5.273   1.695 -0.7306  1.4292  1.6674
42079SOL    HW236168  11.640   5.292   1.724 -0.6647  0.0303  2.3197
42080SOL     OW36169   0.518  13.218  13.247 -0.1769  0.1881  0.3722
42080SOL    HW136170   0.493  13.128  13.225 -0.4731  0.2564  0.4161
42080SOL    HW236171   0.537  13.216  13.340 -1.0195  0.3485  0.5554
42081SOL     OW36172   0.288   3.415   0.189  0.3675 -0.2146 -0.2389
42081SOL    HW136173   0.378   3.394   0.165  0.6645  1.7008 -0.9637
42081SOL    HW236174   0.290   3.507   0.214 -1.4393 -0.0501 -0.5680
42082SOL     OW36175   5.133   7.061  10.905  0.2153  0.3191  0.0977
42082SOL    HW136176   5.055   7.006  10.894  1.3112 -1.3567  0.3397
42082SOL    HW236177   5.140   7.074  11.000  0.5043  0.0272  0.1192
42083SOL     OW36178   2.835   6.541   7.322  0.1451 -0.1905  0.5036
42083SOL    HW136179   2.819   6.450   7.345 -0.8998  0.0198  0.6672
42083SOL    HW236180   2.814   6.547   7.229  1.3569 -0.3647  0.2072
42084SOL     OW36181   5.303   2.914  10.132  0.3778 -0.1964 -0.5250
42084SOL    HW136182   5.353   2.882  10.057 -0.8529 -1.0044 -1.0270
42084SOL    HW236183   5.216   2.934  10.097  0.0460  0.2780  0.5173
42085SOL     OW36184   8.259  10.103   1.948  0.2252  0.0330 -0.1112
42085SOL    HW136185   8.189  10.073   2.006  1.9823  0.2122  2.2739
42085SOL    HW236186   8.224  10.181   1.906 -2.1407 -1.6890 -1.5704
42086SOL     OW36187  10.832   5.345  12.964  0.6720 -0.2454  0.1458
42086SOL    HW136188  10.864   5.265  12.923  1.1075  0.4132 -0.8333
42086SOL    HW236189  10.746   5.322  12.998  0.0797 -0.6920 -1.5775
42087SOL     OW36190   1.313   7.535   8.126 -0.0687 -0.3157 -0.1132
42087SOL    HW136191   1.395   7.489   8.110  0.1507 -0.3061  0.9337
42087SOL    HW236192   1.309   7.546   8.221 -0.9369  0.3216 -0.2061
42088SOL     OW36193   3.366   3.466   7.469  0.4632 -0.5672 -0.1026
42088SOL    HW136194   3.274   3.448   7.489  0.0608  0.2927 -1.0754
42088SOL    HW236195   3.373   3.451   7.375  0.9762  0.7160 -0.2837
42089SOL     OW36196   6.222   0.746   2.299  0.2514 -0.0343  0.2946
42089SOL    HW136197   6.240   0.840   2.303 -1.4191  0.3207  0.0271
42089SOL    HW236198   6.130   0.738   2.322  0.0059 -1.4748 -1.0454
42090SOL     OW36199   9.153  10.596   7.728 -0.1834  0.4704 -0.2678
42090SOL    HW136200   9.207  10.660   7.681  1.3777 -0.0134  0.7832
42090SOL    HW236201   9.099  10.649   7.786 -1.8260  1.0474 -2.2011
42091SOL     OW36202   9.971   8.228   5.764  0.2405  0.2925 -0.0336
42091SOL    HW136203   9.981   8.323   5.764 -1.4394  0.5151 -0.4425
42091SOL    HW236204   9.960   8.205   5.856 -0.9586  0.7303 -0.0472
42092SOL     OW36205   0.901  12.984   0.987 -0.2220  0.7690  0.3404
42092SOL    HW136206   0.961  12.943   1.050 -0.0752 -0.0694 -0.3403
42092SOL    HW236207   0.943  12.973   0.902  0.1722  2.9721  0.2011
42093SOL     OW36208  10.203   4.093  10.945  0.5261  0.0434  0.0118
42093SOL    HW136209  10.221   3.999  10.940 -0.1341 -0.0478 -0.8133
42093SOL    HW236210  10.117   4.098  10.987 -0.1042  0.2012 -1.2628
42094SOL     OW36211   8.652   1.059   2.611  0.1400 -0.5824 -0.1623
42094SOL    HW136212   8.572   1.026   2.652 -1.3540  2.4164 -0.3646
42094SOL    HW236213   8.622   1.109   2.536  2.2020  0.6151 -0.2677
42095SOL     OW36214   6.185   6.461   2.998 -0.7010 -0.3719  0.1401
42095SOL    HW136215   6.253   6.399   3.024  0.9411  1.0129 -0.6659
42095SOL    HW236216   6.109   6.436   3.050  1.3396  0.0684  3.6279
42096SOL     OW36217   3.972  11.207   5.683 -0.1831 -0.1198  0.1558
42096SOL    HW136218   3.905  11.274   5.676  0.6601  0.6796 -0.6672
42096SOL    HW236219   3.987  11.197   5.777 -2.1781 -1.0992  0.4117
42097SOL     OW36220   6.145   1.865   2.361  0.2272  0.1130 -0.3597
42097SOL    HW136221   6.065   1.887   2.314  0.1139 -0.8619 -0.6422
42097SOL    HW236222   6.203   1.828   2.294  1.4808  2.0877 -0.4644
42098SOL     OW36223  10.511   6.355   8.834 -0.3610  0.8349  0.1861
42098SOL    HW136224  10.415   6.354   8.834 -0.3669 -0.3019 -0.0306
42098SOL    HW236225  10.536   6.282   8.778  0.6020 -1.3574  3.1891
42099SOL     OW36226   1.377   0.445   7.062  0.2125  0.1507  0.1418
42099SOL    HW136227   1.471   0.444   7.048  0.5208  0.7857  1.8535
42099SOL    HW236228   1.355   0.354   7.085  1.0489  0.5571  3.0083
42100SOL     OW36229   8.061   7.498  11.506  0.2481 -0.4523  0.5694
42100SOL    HW136230   8.030   7.408  11.495  1.4820 -0.8646  0.3576
42100SOL    HW236231   8.142   7.489  11.557  0.9421  0.4394 -0.3504
42101SOL     OW36232   3.739   2.767   1.389 -0.2566  0.1863 -0.2385
42101SOL    HW136233   3.669   2.826   1.417 -0.3603  1.1920 -2.3684
42101SOL    HW236234   3.802   2.769   1.461 -2.1327 -0.3346  1.4947
42102SOL     OW36235   2.369  11.073   2.940  0.2472  0.1100  0.1638
42102SOL    HW136236   2.345  11.003   3.001 -1.5344  1.5867  1.2347
42102SOL    HW236237   2.462  11.090   2.959 -0.0946  0.0859  2.0318
42103SOL     OW36238  10.912   4.770  12.741  0.2153 -0.0423  0.3226
42103SOL    HW136239  10.940   4.843  12.685  0.9912  0.4088  1.2750
42103SOL    HW236240  10.836   4.804  12.788 -0.3580 -0.3800 -0.3243
42104SOL     OW36241  12.318  10.091   6.169  0.2776  0.1149  0.3157
42104SOL    HW136242  12.388  10.030   6.145  0.4136  0.0658  0.8111
42104SOL    HW236243  12.317  10.156   6.099  0.9231  0.2009  0.3824
42105SOL     OW36244   0.889   2.093   6.381 -0.0124 -0.3125  0.0919
42105SOL    HW136245   0.859   2.078   6.471  0.8710 -0.5551  0.3567
42105SOL    HW236246   0.872   2.011   6.336  1.5469 -0.9608  0.6200
42106SOL     OW36247   8.709  10.138  11.761  0.5175 -0.4370 -0.6317
42106SOL    HW136248   8.643  10.079  11.724 -1.2660  0.7878  0.3772
42106SOL    HW236249   8.662  10.221  11.772  2.1241  0.3707  0.5721
42107SOL     OW36250   8.522  13.243   8.555 -0.4378 -0.2290 -0.0300
42107SOL    HW136251   8.433  13.269   8.579 -1.9125 -2.8693 -2.0559
42107SOL    HW236252   8.510  13.181   8.483  2.9393 -2.0292  0.7450
42108SOL     OW36253   8.125   3.866  12.115 -0.1884 -0.3495  0.3118
42108SOL    HW136254   8.103   3.774  12.101 -0.6505 -0.1788 -0.1165
42108SOL    HW236255   8.169   3.868  12.200 -0.3249 -0.9398  0.3970
42109SOL     OW36256   2.308   9.826   8.737  0.1920  0.3806  0.5558
42109SOL    HW136257   2.213   9.840   8.743  0.1524 -0.5599  3.1118
42109SOL    HW236258   2.346   9.899   8.786  0.6448 -0.4451  1.4675
42110SOL     OW36259   3.272   6.394   3.265  0.5119 -0.0331 -0.5489
42110SOL    HW136260   3.347   6.440   3.303 -0.5021  0.2717  1.1826
42110SOL    HW236261   3.231   6.459   3.207  1.1073  0.0727 -0.8543
42111SOL     OW36262   1.850  12.850   2.570  0.2107  0.0098 -0.4649
42111SOL    HW136263   1.770  12.864   2.621  0.4800  1.5301 -0.3902
42111SOL    HW236264   1.916  12.826   2.635  0.0635 -0.1836 -0.3849
42112SOL     OW36265   2.447   0.222   8.353 -0.0985 -0.1216  0.1747
42112SOL    HW136266   2.479   0.311   8.366 -1.1129  0.5652 -1.6839
42112SOL    HW236267   2.508   0.183   8.291 -0.2032 -0.4043  0.2476
42113SOL     OW36268   6.727   8.990   6.353 -0.3967 -0.4210  0.0930
42113SOL    HW136269   6.808   9.014   6.397 -0.2209 -1.0975  0.1391
42113SOL    HW236270   6.669   9.065   6.368  0.1046 -0.0816  0.3465
42114SOL     OW36271   6.690   9.398  10.978  0.0635  0.1036  0.5511
42114SOL    HW136272   6.732   9.459  11.039 -1.0830  0.0685  1.4282
42114SOL    HW236273   6.597   9.405  10.998 -0.0758 -2.4438  1.1983
42115SOL     OW36274   4.650  12.885   9.171 -0.3275  0.5842 -0.1598
42115SOL    HW136275   4.655  12.801   9.218  0.2012  0.5318 -0.2947
42115SOL    HW236276   4.585  12.870   9.103  0.1676  0.0864 -0.5434
42116SOL     OW36277   7.249   2.955  11.571  0.9957  0.2835 -0.6845
42116SOL    HW136278   7.314   3.020  11.599  0.5055  1.0643 -1.3342
42116SOL    HW236279   7.230   2.976  11.480 -0.3800  0.2474 -0.4350
42117SOL     OW36280   2.537   9.264   3.583 -0.2835 -0.1621 -0.5259
42117SOL    HW136281   2.546   9.304   3.670  0.0579  1.4888 -1.2896
42117SOL    HW236282   2.575   9.176   3.594 -2.8755 -1.1561  1.7148
42118SOL     OW36283  11.384   8.859   7.843  0.1080  0.9075  0.1932
42118SOL    HW136284  11.348   8.860   7.755 -0.6104 -0.2059  0.4516
42118SOL    HW236285  11.478   8.854   7.831 -0.0531 -2.1908 -0.5771
42119SOL     OW36286   3.657   2.369   8.562  0.4087 -0.0326 -0.1514
42119SOL    HW136287   3.745   2.332   8.565  0.0949 -0.9088 -1.0511
42119SOL    HW236288   3.634   2.369   8.469 -1.2017 -1.4599  0.1895
42120SOL     OW36289   0.424   4.086   1.904 -0.4450  0.4246 -0.2264
42120SOL    HW136290   0.354   4.043   1.855 -1.1502  1.9468 -0.6051
42120SOL    HW236291   0.388   4.097   1.992 -0.8781  1.5867 -0.5305
42121SOL     OW36292   7.826   2.326  12.331 -0.4874  0.0984  0.3185
42121SOL    HW136293   7.834   2.238  12.295  2.1673  0.4276 -0.1443
42121SOL    HW236294   7.802   2.381  12.257  0.8403  0.1564 -0.1001
42122SOL     OW36295   3.757   0.366   7.057  0.1609  0.1438  0.0653
42122SOL    HW136296   3.846   0.401   7.063 -0.2525  1.3430 -0.4374
42122SOL    HW236297   3.755   0.318   6.975  0.3434  0.1317  0.0677
42123SOL     OW36298   7.518   8.102  10.304  0.1540  0.1718  0.4033
42123SOL    HW136299   7.476   8.043  10.366  1.4157  1.5534  2.7292
42123SOL    HW236300   7.452   8.170  10.288 -0.2993 -0.3703 -0.0814
42124SOL     OW36301   0.068   2.381   9.070 -0.2609  0.2583  0.0706
42124SOL    HW136302   0.072   2.348   9.160  0.9644 -0.1393 -0.1111
42124SOL    HW236303  -0.012   2.343   9.034  0.4729 -1.5805  0.2503
42125SOL     OW36304  11.076   7.398  10.533 -0.1177  0.5245 -0.2964
42125SOL    HW136305  11.065   7.371  10.442  0.7122  1.0674 -0.5693
42125SOL    HW236306  11.160   7.360  10.559  0.3350  1.5588 -0.2163
42126SOL     OW36307   6.946  11.727  10.014 -0.2757  0.2686  0.5957
42126SOL    HW136308   6.970  11.744   9.923 -1.8329 -2.2653 -0.3914
42126SOL    HW236309   6.906  11.809  10.044 -2.8660  0.1868 -2.1726
42127SOL     OW36310   0.286   6.342  12.041  0.3258 -0.1880 -0.4271
42127SOL    HW136311   0.325   6.263  12.079 -0.1623 -0.3693 -0.2997
42127SOL    HW236312   0.218   6.367  12.103 -0.7183 -0.6816 -1.3527
42128SOL     OW36313   3.241   5.887   8.526 -0.5084 -0.0053  0.3237
42128SOL    HW136314   3.146   5.873   8.535 -0.7612  0.8143 -0.8547
42128SOL    HW236315   3.276   5.799   8.510 -1.1091 -0.2667  0.3809
42129SOL     OW36316   2.471  10.549   2.377 -0.3010 -0.5735  0.3061
42129SOL    HW136317   2.565  10.562   2.365  0.1581 -0.6657  3.1600
42129SOL    HW236318   2.436  10.544   2.288  2.4650 -1.1635 -0.8496
42130SOL     OW36319   1.914   6.637   4.225 -0.0212 -0.5429 -0.1160
42130SOL    HW136320   1.833   6.605   4.266 -1.0790  2.3670  0.3662
42130SOL    HW236321   1.976   6.643   4.298  0.3337 -1.8397 -0.2966
42131SOL     OW36322   1.619   7.252   3.593  0.6079  0.4863 -0.0721
42131SOL    HW136323   1.552   7.259   3.525  1.5829  3.1132 -0.9260
42131SOL    HW236324   1.701   7.266   3.545  1.5031  0.3019  1.3711
42132SOL     OW36325   6.685   7.696   8.759  0.4147 -0.4084  0.1352
42132SOL    HW136326   6.659   7.712   8.850  2.0559 -2.0352  0.9465
42132SOL    HW236327   6.639   7.764   8.709  0.1619  1.0948  2.2678
42133SOL     OW36328  11.081   2.035   3.904  0.0120  0.3805 -0.2311
42133SOL    HW136329  11.175   2.043   3.920  0.0122  0.2555 -0.1651
42133SOL    HW236330  11.070   1.944   3.876 -0.0401  0.4908 -0.5709
42134SOL     OW36331   5.235   7.446  11.019  0.2040 -0.2714  0.3623
42134SOL    HW136332   5.150   7.438  10.977 -0.5034  1.2306  1.4142
42134SOL    HW236333   5.298   7.448  10.946 -0.8063  0.2444 -0.5303
42135SOL     OW36334   4.523  10.479   7.694  0.0029 -0.0120  0.6913
42135SOL    HW136335   4.531  10.528   7.613 -0.4048  0.6024  1.0172
42135SOL    HW236336   4.579  10.526   7.756 -0.5680  0.1845  1.0647
42136SOL     OW36337   1.904   6.052  13.011 -0.2569  0.5824  0.0748
42136SOL    HW136338   1.851   6.037  13.089 -0.4215  4.8857  1.0299
42136SOL    HW236339   1.986   6.089  13.043 -0.2274  2.2340 -1.7378
42137SOL     OW36340  10.126   0.695  12.017  0.1540  0.1305  0.1760
42137SOL    HW136341  10.084   0.617  11.982 -0.2669  0.3060  0.2908
42137SOL    HW236342  10.194   0.661  12.076 -0.3298 -0.1478  0.5774
42138SOL     OW36343   4.925   3.148   4.430  0.6566 -0.0083 -0.6341
42138SOL    HW136344   4.946   3.152   4.337  0.4209 -0.6448 -0.7179
42138SOL    HW236345   4.936   3.056   4.453  1.3028  0.2529  0.1068
42139SOL     OW36346   9.251  13.267   0.688  0.1901 -0.2067 -0.0693
42139SOL    HW136347   9.164  13.301   0.664 -0.3342 -0.3415  1.4883
42139SOL    HW236348   9.296  13.342   0.726  1.8976  0.6373 -3.3875
42140SOL     OW36349   5.642   6.740   2.298  0.0783 -0.1659 -0.1652
42140SOL    HW136350   5.643   6.770   2.207  2.4622 -1.4640 -0.6503
42140SOL    HW236351   5.706   6.796   2.342 -0.0878 -0.4114  0.3951
42141SOL     OW36352   2.594  10.868   6.929 -0.1614 -0.2717  0.1256
42141SOL    HW136353   2.567  10.917   6.851 -1.2207 -2.2233 -0.8041
42141SOL    HW236354   2.513  10.833   6.965 -0.1282  2.9139  3.9163
42142SOL     OW36355   3.228   7.695   6.447  0.0072  0.3872 -0.1222
42142SOL    HW136356   3.261   7.668   6.532  1.2434  1.2610 -0.2934
42142SOL    HW236357   3.233   7.616   6.393  0.3556  0.1236  0.2898
42143SOL     OW36358   2.996   0.751   7.833  0.1181 -0.6055  0.2586
42143SOL    HW136359   3.005   0.694   7.757 -0.7581  0.1584 -0.4445
42143SOL    HW236360   3.054   0.713   7.898 -0.3824 -2.2607 -0.1972
42144SOL     OW36361  11.957  13.029   4.960 -0.2114  0.1235 -0.3547
42144SOL    HW136362  11.901  12.961   5.000  0.5648 -0.5770 -0.4296
42144SOL    HW236363  11.999  12.985   4.886 -0.9798  1.1757 -1.4468
42145SOL     OW36364   8.817   4.078   0.243 -0.2471  0.0482 -0.2004
42145SOL    HW136365   8.814   4.119   0.157  1.5482 -0.2162 -0.4258
42145SOL    HW236366   8.747   4.013   0.241 -0.5826  0.4240 -1.2575
42146SOL     OW36367   5.855   7.204   6.193 -0.3982  0.1810  0.0610
42146SOL    HW136368   5.893   7.206   6.106 -2.8943  0.7607 -1.1147
42146SOL    HW236369   5.797   7.128   6.193 -1.0693  0.6667  0.9169
42147SOL     OW36370   4.793   2.500   9.715 -0.0322 -0.1055  0.4214
42147SOL    HW136371   4.885   2.478   9.729  0.1054  0.2025  0.0367
42147SOL    HW236372   4.744   2.424   9.747  0.3551 -0.2534  0.6601
42148SOL     OW36373   5.880   8.902  10.491  0.1624 -0.1557 -0.5607
42148SOL    HW136374   5.791   8.865  10.487  0.8351 -2.1345  0.8302
42148SOL    HW236375   5.919   8.878  10.407 -0.1512 -0.6401 -0.5751
42149SOL     OW36376   1.808  11.379   9.784  0.3930 -0.5062  0.0030
42149SOL    HW136377   1.898  11.409   9.771  0.8322  0.0555  3.3292
42149SOL    HW236378   1.812  11.284   9.768  1.7608 -0.5883  0.6910
42150SOL     OW36379  13.059   5.267   9.681  0.7348 -0.4930 -0.3948
42150SOL    HW136380  13.122   5.338   9.692 -1.7193  1.7391  0.3264
42150SOL    HW236381  13.007   5.294   9.605 -1.7441 -0.1817  1.2831
42151SOL     OW36382   0.668   0.055   1.965 -0.4926  0.4461 -0.0640
42151SOL    HW136383   0.742   0.004   1.933 -1.2836 -1.0540  0.3806
42151SOL    HW236384   0.664   0.036   2.059 -2.6964 -1.3153 -0.4074
42152SOL     OW36385  12.996   1.517  13.210 -0.1481 -0.4766  0.4145
42152SOL    HW136386  12.960   1.498  13.123 -0.1470  0.2957  0.2332
42152SOL    HW236387  13.083   1.553  13.191 -0.2650 -0.0307  0.7223
42153SOL     OW36388   8.918  13.243   5.741  0.2087  0.2120 -0.2762
42153SOL    HW136389   8.919  13.236   5.646 -1.8118  0.3661 -0.3495
42153SOL    HW236390   8.899  13.154   5.771 -1.5769  0.6159 -0.1450
42154SOL     OW36391   5.402   1.634   3.882 -0.3122  0.4239 -0.1347
42154SOL    HW136392   5.443   1.556   3.921 -1.1870  0.3149  0.5860
42154SOL    HW236393   5.310   1.626   3.904 -0.5313  1.2844 -0.7192
42155SOL     OW36394   1.776   7.000  11.358  0.2321 -0.3764  0.1122
42155SOL    HW136395   1.740   7.018  11.272 -0.4489 -0.3187  0.4023
42155SOL    HW236396   1.757   6.907  11.373 -2.3924  0.2868  1.4380
42156SOL     OW36397   1.496   6.324   8.889  0.6355  0.5364  0.5727
42156SOL    HW136398   1.518   6.386   8.958  0.6405  2.2225 -0.8697
42156SOL    HW236399   1.579   6.278   8.871  1.0928  1.4025  0.4227
42157SOL     OW36400   7.621   9.434  10.467  0.4388 -0.4892  0.2801
42157SOL    HW136401   7.639   9.460  10.376  0.3477 -0.5118  0.2549
42157SOL    HW236402   7.551   9.369  10.459  0.0108 -0.0509  0.4086
42158SOL     OW36403   4.713   4.308  11.300 -0.1069 -0.1577 -0.6746
42158SOL    HW136404   4.664   4.390  11.295  0.8989  0.4681 -0.5407
42158SOL    HW236405   4.757   4.300  11.215  1.7036  0.6918  0.1276
42159SOL     OW36406   1.019   0.076   4.230 -0.6535  0.8392  0.0059
42159SOL    HW136407   1.108   0.049   4.209 -0.8919  0.0389 -0.0128
42159SOL    HW236408   1.029   0.161   4.273  0.1043  0.8166 -0.1151
42160SOL     OW36409   2.864   6.243   1.594  0.2380 -0.2160 -0.6253
42160SOL    HW136410   2.889   6.211   1.680  4.0319  1.2608 -0.9704
42160SOL    HW236411   2.860   6.165   1.538  0.4727 -0.9276  0.3367
42161SOL     OW36412   0.290   9.619   6.390 -0.3204 -0.6873 -0.0650
42161SOL    HW136413   0.304   9.669   6.309  0.8478 -1.1631 -0.1749
42161SOL    HW236414   0.376   9.613   6.430 -0.7716 -1.0244  0.9008
42162SOL     OW36415   7.193   0.755  10.739 -0.2215  0.1675 -0.2101
42162SOL    HW136416   7.159   0.691  10.801  0.4029  0.0531  0.0229
42162SOL    HW236417   7.143   0.835  10.757 -0.0211  0.1454  0.4645
42163SOL     OW36418   7.270   1.769  11.638  0.0125 -0.3936  0.2491
42163SOL    HW136419   7.263   1.716  11.717 -1.0010 -1.8213 -0.7590
42163SOL    HW236420   7.233   1.715  11.569  1.0393  0.7408 -1.2592
42164SOL     OW36421   9.809   7.006   5.898  0.1403 -0.0936  0.2896
42164SOL    HW136422   9.848   6.949   5.832 -0.4785  0.0821 -0.2377
42164SOL    HW236423   9.803   6.951   5.977 -0.9653 -0.9516 -0.3612
42165SOL     OW36424   8.043  11.120   6.944  0.0385 -0.2448 -0.0458
42165SOL    HW136425   8.079  11.041   6.904 -1.2251 -0.4539 -0.8175
42165SOL    HW236426   7.957  11.094   6.976  0.0769  0.5344  0.7426
42166SOL     OW36427   5.567   0.470  12.491  0.0729 -0.0681  0.0068
42166SOL    HW136428   5.634   0.514  12.544  1.0144 -0.1486 -1.0953
42166SOL    HW236429   5.509   0.430  12.556  1.7803 -1.0544  1.0252
42167SOL     OW36430  11.913  10.348   7.102 -0.3877  0.0145 -0.6142
42167SOL    HW136431  11.882  10.291   7.173  1.3854  0.4860  0.6114
42167SOL    HW236432  12.001  10.374   7.129 -0.3515  1.6712 -2.1462
42168SOL     OW36433   0.991   0.069   3.871  0.1277 -0.0040  0.1639
42168SOL    HW136434   0.937   0.077   3.949  1.1231 -0.5503  0.9334
42168SOL    HW236435   0.941   0.112   3.802 -0.3380  1.3731  1.3109
42169SOL     OW36436   9.768   8.520   1.811 -0.5054  0.3702  0.2278
42169SOL    HW136437   9.852   8.558   1.836 -1.3621  1.2917  1.8900
42169SOL    HW236438   9.715   8.595   1.784 -0.8550 -0.1805 -0.6557
42170SOL     OW36439   0.705   6.499   2.792  0.7625  0.0579 -0.0955
42170SOL    HW136440   0.792   6.529   2.767  1.4125 -1.6209 -0.0111
42170SOL    HW236441   0.668   6.465   2.711 -0.0511  1.2564 -0.2440
42171SOL     OW36442  12.408  12.273   9.161  0.5994 -0.4433 -0.1707
42171SOL    HW136443  12.368  12.266   9.248  0.9990  1.8167  0.2635
42171SOL    HW236444  12.347  12.229   9.102 -1.6711  1.3114  0.7288
42172SOL     OW36445   6.375   7.829   7.829 -0.4366  0.7597 -0.2445
42172SOL    HW136446   6.390   7.810   7.736 -0.2972 -0.1149 -0.0565
42172SOL    HW236447   6.439   7.775   7.875 -1.5982 -0.1161  0.4211
42173SOL     OW36448   6.257  13.287   4.837 -0.0481  0.4391  0.2266
42173SOL    HW136449   6.180  13.248   4.879  1.0123 -0.3699  1.4789
42173SOL    HW236450   6.313  13.212   4.816  0.4131  1.0201 -0.6622
42174SOL     OW36451  11.654  11.134   6.001  0.0023 -0.0648  0.1664
42174SOL    HW136452  11.582  11.197   5.994 -0.7187 -1.0278 -1.8171
42174SOL    HW236453  11.668  11.124   6.095 -3.5569 -1.0422  0.7538
42175SOL     OW36454   9.328   4.249  10.910 -0.5948 -0.5872 -0.1033
42175SOL    HW136455   9.319   4.154  10.904 -1.6918 -0.4875 -0.2883
42175SOL    HW236456   9.422   4.265  10.898 -0.7354 -1.4379 -3.1087
42176SOL     OW36457   3.366   1.607   2.767  0.5742 -0.5857 -0.4587
42176SOL    HW136458   3.427   1.572   2.702  2.3839 -0.1845  0.9428
42176SOL    HW236459   3.418   1.617   2.847 -0.3365  3.2537 -0.1338
42177SOL     OW36460   6.867   0.124   0.628  0.1055  0.0699 -0.0230
42177SOL    HW136461   6.882   0.106   0.721 -0.2169 -0.1143 -0.0006
42177SOL    HW236462   6.822   0.045   0.596  2.1538 -0.8187 -0.8515
42178SOL     OW36463   7.219   4.669  10.607  0.0498 -0.2138  0.3760
42178SOL    HW136464   7.256   4.738  10.553  1.5831 -1.5121 -0.3266
42178SOL    HW236465   7.186   4.714  10.685 -1.4693  1.6050 -1.2237
42179SOL     OW36466   9.239   8.888   7.674  0.2014 -0.6395 -0.2578
42179SOL    HW136467   9.195   8.954   7.728 -2.6378 -2.2799 -0.3854
42179SOL    HW236468   9.169   8.849   7.622  2.1542 -2.1718 -1.8942
42180SOL     OW36469   1.929   1.048   8.882  0.1701  0.2751 -0.1636
42180SOL    HW136470   1.841   1.010   8.889  0.0163  0.8124  1.0710
42180SOL    HW236471   1.988   0.976   8.900 -0.0609  0.2170  0.3588
42181SOL     OW36472   3.297   5.170   3.063  0.0634 -0.2734  0.6215
42181SOL    HW136473   3.289   5.074   3.070  2.6323 -0.7464 -1.5316
42181SOL    HW236474   3.376   5.191   3.112  1.3240  0.2589 -1.5543
42182SOL     OW36475   7.790   8.433   7.251  0.8688 -0.2986  0.1984
42182SOL    HW136476   7.782   8.366   7.183  2.6157  0.6082 -0.9946
42182SOL    HW236477   7.883   8.456   7.250 -0.0099  4.0958 -1.4488
42183SOL     OW36478   8.023   9.261  12.558  0.5626  0.4277 -0.2009
42183SOL    HW136479   8.054   9.279  12.647  0.7114  2.2219 -0.5667
42183SOL    HW236480   7.931   9.238  12.569  0.1333  2.1971  0.3372
42184SOL     OW36481   4.258   4.638   5.416 -0.0893  0.2438  0.0080
42184SOL    HW136482   4.341   4.602   5.447  0.2670 -0.3763 -1.5499
42184SOL    HW236483   4.283   4.705   5.352 -0.7821  0.3223 -0.1862
42185SOL     OW36484   2.686   8.703  13.112  0.1814  0.2405  0.4452
42185SOL    HW136485   2.744   8.630  13.134 -0.4571  0.3100  2.6407
42185SOL    HW236486   2.602   8.661  13.092  0.0653  0.3095  0.7781
42186SOL     OW36487   9.712   6.523   8.085  0.4848 -0.1269 -0.3154
42186SOL    HW136488   9.687   6.607   8.046  1.3026  0.6147  0.6685
42186SOL    HW236489   9.635   6.467   8.075 -0.6985  1.2919  0.4741
42187SOL     OW36490   3.763  11.378   6.041  0.3137 -0.1395  0.1168
42187SOL    HW136491   3.742  11.465   6.009 -1.5483 -0.6250 -0.0526
42187SOL    HW236492   3.743  11.382   6.135  1.8449  0.0780  0.4637
42188SOL     OW36493   4.200   4.424  10.230  0.1025 -0.4710  0.1564
42188SOL    HW136494   4.286   4.444  10.266 -0.9369  3.3782  0.9298
42188SOL    HW236495   4.145   4.406  10.306 -0.2315 -0.7921 -0.1579
42189SOL     OW36496   7.303   6.906   9.549  0.0702  0.1198  0.3013
42189SOL    HW136497   7.371   6.841   9.568 -0.1160  0.1706  1.1484
42189SOL    HW236498   7.297   6.906   9.453 -0.1725 -1.3595  0.2984
42190SOL     OW36499  11.204   7.200   9.449 -0.0534 -0.4900 -0.1506
42190SOL    HW136500  11.212   7.132   9.382 -0.6330  0.0995 -0.8342
42190SOL    HW236501  11.204   7.152   9.532 -0.6057 -1.3413 -0.6303
42191SOL     OW36502   3.480   4.066   8.847  0.0441  0.0837 -0.3018
42191SOL    HW136503   3.515   4.022   8.770 -1.1439  1.3805 -1.6364
42191SOL    HW236504   3.398   4.020   8.865  0.7791 -0.8418  0.8229
42192SOL     OW36505  10.308   9.931   4.802 -0.2949  0.2793  0.4927
42192SOL    HW136506  10.273   9.851   4.763  0.4697  0.0673  0.2107
42192SOL    HW236507  10.403   9.925   4.787  0.0025  0.3201  2.1667
42193SOL     OW36508   7.826   2.689  12.701  0.1707 -0.4801 -0.4469
42193SOL    HW136509   7.915   2.725  12.709 -0.2059  0.8175 -1.6893
42193SOL    HW236510   7.836   2.596  12.721  1.6136 -0.1528  0.5054
42194SOL     OW36511   3.043   6.651   4.895  1.6357  0.3514 -0.3045
42194SOL    HW136512   3.106   6.626   4.827  2.0507  2.0871 -0.6294
42194SOL    HW236513   3.097   6.669   4.972  1.4049  0.5811 -0.1946
42195SOL     OW36514   9.168  11.506   0.887  0.5121  0.6481 -0.0080
42195SOL    HW136515   9.083  11.461   0.886  1.5171 -1.3564 -0.3665
42195SOL    HW236516   9.217  11.464   0.958  1.3266  1.5556 -0.0101
42196SOL     OW36517  11.326   7.958   3.610 -0.0997  0.1719 -0.3559
42196SOL    HW136518  11.344   7.948   3.516  1.1870  0.7701 -0.1992
42196SOL    HW236519  11.411   7.975   3.649 -0.9100  2.6226  0.5477
42197SOL     OW36520  11.033   1.511   8.082 -0.6588  0.0962  0.0266
42197SOL    HW136521  11.076   1.426   8.093  0.4932  0.6843  0.2531
42197SOL    HW236522  10.991   1.506   7.996 -0.5898 -0.6964  0.0325
42198SOL     OW36523   8.394   3.273  13.274  0.3560 -0.1060  0.2702
42198SOL    HW136524   8.372   3.236  13.189  1.0282 -0.1632  0.1231
42198SOL    HW236525   8.343   3.353  13.279  0.3985 -0.0479 -0.2307
42199SOL     OW36526   0.062   2.265   5.145  0.1308  0.1451  0.0895
42199SOL    HW136527   0.083   2.243   5.054  0.6170  0.6270  0.0745
42199SOL    HW236528   0.143   2.246   5.193 -0.0675  0.0613  0.3887
42200SOL     OW36529   3.150   8.161   3.815 -0.3817 -0.4495 -0.2534
42200SOL    HW136530   3.071   8.166   3.869  1.1851 -0.2086  2.1306
42200SOL    HW236531   3.144   8.238   3.758 -0.8879  0.7330  1.3229
42201SOL     OW36532   0.169   5.250   8.066  0.3842  0.4781 -0.4239
42201SOL    HW136533   0.199   5.292   8.147 -1.7322 -0.9704  1.2352
42201SOL    HW236534   0.212   5.164   8.066  0.0062  0.2870 -0.5829
42202SOL     OW36535   4.204   9.169   4.421  0.6582  0.5189  0.4199
42202SOL    HW136536   4.185   9.179   4.328  1.6042 -1.8383 -0.0890
42202SOL    HW236537   4.285   9.217   4.434  1.3340 -0.3719 -0.3456
42203SOL     OW36538   1.329   5.541  10.538  0.2659  0.4933 -0.1776
42203SOL    HW136539   1.417   5.547  10.576  0.1675  0.3196  0.0805
42203SOL    HW236540   1.310   5.447  10.536 -0.0696  0.5520  0.1278
42204SOL     OW36541   3.167   1.778  10.643  0.0513 -0.4455  0.1005
42204SOL    HW136542   3.167   1.703  10.584  3.5176 -1.3998  1.0558
42204SOL    HW236543   3.191   1.852  10.588  0.5716 -0.8142 -0.1814
42205SOL     OW36544  12.736   5.535   7.480  0.5055  0.0670  0.2960
42205SOL    HW136545  12.734   5.489   7.564 -0.2225  0.9144  0.7578
42205SOL    HW236546  12.645   5.552   7.459  0.6843 -0.0975 -0.6571
42206SOL     OW36547   2.098   1.815   9.519  0.9123 -0.0351  0.1419
42206SOL    HW136548   2.086   1.885   9.455  1.7915 -0.2512 -0.2667
42206SOL    HW236549   2.160   1.852   9.583  2.0742 -0.7351 -0.5526
42207SOL     OW36550   1.533  10.968   3.443 -0.4056 -0.2353  0.1135
42207SOL    HW136551   1.591  10.983   3.369 -0.9904  0.5112 -0.2075
42207SOL    HW236552   1.584  10.995   3.520  0.1096 -0.7671 -0.0398
42208SOL     OW36553   8.284   1.859   1.805 -0.3051 -0.1577  0.3103
42208SOL    HW136554   8.275   1.932   1.745 -0.6301 -0.1614  0.3507
42208SOL    HW236555   8.372   1.824   1.789 -0.0910  0.3391  0.4066
42209SOL     OW36556   3.429   0.366  12.567  0.3133 -0.2171 -0.1528
42209SOL    HW136557   3.483   0.413  12.504  1.2038  0.2611  0.9175
42209SOL    HW236558   3.400   0.288  12.521  3.4029 -1.4172 -0.2914
42210SOL     OW36559   2.434   4.919   4.690  0.1006 -0.3552 -0.2992
42210SOL    HW136560   2.482   4.999   4.669 -0.2262 -0.0512  0.0938
42210SOL    HW236561   2.388   4.939   4.772 -0.1199 -0.8852 -0.2871
42211SOL     OW36562   1.736   3.692  11.872 -0.1015 -0.1070  0.3133
42211SOL    HW136563   1.821   3.717  11.909  0.1936 -0.2382 -0.2594
42211SOL    HW236564   1.750   3.696  11.778 -0.9601  0.6309  0.2014
42212SOL     OW36565   1.165   1.513   4.256  0.6081  0.3136  0.0590
42212SOL    HW136566   1.201   1.429   4.226 -0.0064  0.7830 -2.1430
42212SOL    HW236567   1.081   1.490   4.296  1.5026 -0.3427  1.6453
42213SOL     OW36568  10.538   7.578   0.090  0.1627  0.1853 -0.0575
42213SOL    HW136569  10.525   7.672   0.102  2.5261  0.4482  1.0259
42213SOL    HW236570  10.544   7.543   0.179  0.5442 -0.7845 -0.4521
42214SOL     OW36571  10.184   6.760   6.242  0.3511 -0.3729 -0.3830
42214SOL    HW136572  10.224   6.679   6.209 -0.4749 -0.7679 -0.4321
42214SOL    HW236573  10.206   6.825   6.176 -0.8657 -1.0540 -1.5234
42215SOL     OW36574   3.007  11.052  10.754  0.1166  0.3797 -0.5560
42215SOL    HW136575   3.001  11.146  10.733 -1.0424  0.1773 -1.2573
42215SOL    HW236576   2.987  11.047  10.847 -2.1326  0.6588 -0.9653
42216SOL     OW36577   4.429   8.020   6.264 -0.0337  0.3736 -0.2805
42216SOL    HW136578   4.486   7.963   6.316  0.0653 -0.5761 -1.3981
42216SOL    HW236579   4.460   8.108   6.283  0.6566 -0.0195  0.4794
42217SOL     OW36580   1.823   0.316   6.500  0.0008 -0.0108 -0.3708
42217SOL    HW136581   1.770   0.239   6.523  0.6670 -0.7759 -1.3391
42217SOL    HW236582   1.812   0.375   6.575  0.0701 -1.3605  0.7503
42218SOL     OW36583   1.170   3.903  10.233 -0.5208 -0.4049 -0.0842
42218SOL    HW136584   1.126   3.819  10.246 -2.3330  0.3865 -0.7049
42218SOL    HW236585   1.103   3.968  10.252  1.2128  0.9768  1.7078
42219SOL     OW36586  12.930   7.712   0.193  0.1142  0.0407  0.5460
42219SOL    HW136587  12.897   7.622   0.194 -0.3259  0.2024  1.1410
42219SOL    HW236588  12.852   7.767   0.203  0.4711  0.4520  1.1455
42220SOL     OW36589   4.113  11.987   2.778 -0.3061  0.0386 -0.6791
42220SOL    HW136590   4.117  11.900   2.819  0.3213  0.4543  0.1575
42220SOL    HW236591   4.150  12.046   2.843 -1.0706  0.9967 -1.0968
42221SOL     OW36592   9.775  12.347  10.572  0.4265 -0.0781  0.8735
42221SOL    HW136593   9.812  12.272  10.618 -0.1680 -0.4415  0.7631
42221SOL    HW236594   9.835  12.419  10.592  1.6723 -0.8468 -0.0348
42222SOL     OW36595   1.365   9.767   0.550 -0.0359  0.2219  0.4098
42222SOL    HW136596   1.447   9.722   0.531  0.3846  1.6100 -1.3034
42222SOL    HW236597   1.303   9.697   0.572  0.6523 -1.1914 -1.8719
42223SOL     OW36598  11.801   9.962   1.949  0.0696 -0.2524 -0.0874
42223SOL    HW136599  11.845  10.025   2.006 -0.6553  0.6309 -0.4680
42223SOL    HW236600  11.770   9.894   2.009 -1.2082  0.9584  0.7238
42224SOL     OW36601   3.084   0.699   1.528 -0.2850  0.4890 -0.5725
42224SOL    HW136602   3.028   0.624   1.549 -0.3592  0.8057  0.4116
42224SOL    HW236603   3.166   0.660   1.498 -0.6691  0.0181 -1.0408
42225SOL     OW36604   8.810   3.196   7.764  0.5884 -0.5719 -0.1850
42225SOL    HW136605   8.801   3.161   7.852  3.7966 -0.8225  0.1754
42225SOL    HW236606   8.803   3.120   7.706  0.9837 -0.8144  0.0821
42226SOL     OW36607   7.985  10.594   0.978 -0.1007  0.6255 -0.0815
42226SOL    HW136608   7.940  10.643   1.047 -0.2882 -1.8338  1.6800
42226SOL    HW236609   7.951  10.505   0.986 -0.2249  0.2653 -3.5241
42227SOL     OW36610   2.917   5.763   7.924  0.2592 -0.3852 -0.6072
42227SOL    HW136611   2.901   5.725   8.010  0.7038 -0.3384 -0.5012
42227SOL    HW236612   2.955   5.849   7.943  1.0520 -0.6780 -0.8522
42228SOL     OW36613  11.275   5.442   3.636 -0.1353  0.3564 -0.0764
42228SOL    HW136614  11.224   5.375   3.590 -0.8476  1.1068 -0.4035
42228SOL    HW236615  11.348   5.462   3.577 -0.1444  0.1624 -0.1547
42229SOL     OW36616  12.061   0.984  12.378 -0.0140 -0.0019 -0.4618
42229SOL    HW136617  12.026   0.897  12.358 -2.0396  0.6729 -0.0247
42229SOL    HW236618  12.066   0.986  12.474  0.0211  0.3652 -0.4709
42230SOL     OW36619   3.572  12.598  11.583  0.0235  0.3407  0.5446
42230SOL    HW136620   3.504  12.664  11.569  0.0758  0.3921  0.5303
42230SOL    HW236621   3.609  12.619  11.669 -0.8956 -0.5112  1.1649
42231SOL     OW36622   1.805  10.974   4.885  0.2582  0.0406  0.1486
42231SOL    HW136623   1.807  10.892   4.934 -0.1077 -0.1606 -0.1725
42231SOL    HW236624   1.886  11.019   4.910  0.4110 -0.3728  0.3997
42232SOL     OW36625   6.002  10.882  12.137 -0.2272  0.2503  0.1015
42232SOL    HW136626   6.053  10.802  12.123 -0.5594  0.1368 -0.4962
42232SOL    HW236627   6.047  10.948  12.085  0.3562  0.5940  1.0112
42233SOL     OW36628   9.949   0.673   1.795 -0.1660  0.1694  0.1139
42233SOL    HW136629   9.966   0.688   1.888  1.8486  0.3732 -0.2405
42233SOL    HW236630   9.861   0.636   1.792 -0.3821  0.4259  2.0664
42234SOL     OW36631   2.846   3.188   7.661 -0.2530 -0.2389  0.8535
42234SOL    HW136632   2.866   3.148   7.746 -2.0092 -0.8605  1.0085
42234SOL    HW236633   2.859   3.282   7.675 -1.8472 -0.1888  2.2431
42235SOL     OW36634   1.422  10.767   5.835 -0.0218  0.2504  0.8494
42235SOL    HW136635   1.375  10.846   5.865  0.0145  0.3591  0.6192
42235SOL    HW236636   1.360  10.696   5.851 -1.5769  0.7160 -2.3134
42236SOL     OW36637   1.934   4.520   2.660  0.8173  0.1234  0.3600
42236SOL    HW136638   1.962   4.428   2.654  2.9705  0.7398  0.2501
42236SOL    HW236639   1.945   4.554   2.572  2.4217  1.1013  0.9077
42237SOL     OW36640   3.885  10.715   5.469  0.2148  0.0436 -0.0211
42237SOL    HW136641   3.825  10.722   5.543 -0.6353  1.9144 -0.8261
42237SOL    HW236642   3.833  10.739   5.392  1.7670  0.9938 -0.8476
42238SOL     OW36643   1.807   1.617   8.798 -0.3907 -0.0689  0.1289
42238SOL    HW136644   1.717   1.597   8.772 -0.0356  0.8479 -2.1079
42238SOL    HW236645   1.841   1.535   8.834 -2.3827 -0.1653  1.9937
42239SOL     OW36646  11.580   7.187   7.903 -0.0922 -0.2838  0.0953
42239SOL    HW136647  11.669   7.165   7.876  0.1008 -1.3356  1.4643
42239SOL    HW236648  11.530   7.108   7.888 -0.7254  0.1793 -0.2910
42240SOL     OW36649   4.933   9.583   6.649 -0.4794  0.0522 -0.3221
42240SOL    HW136650   4.850   9.537   6.661 -1.1245  1.3978  0.4750
42240SOL    HW236651   4.918   9.670   6.685  1.7033 -0.0964  1.1079
42241SOL     OW36652   8.434   0.798  12.133 -0.0035  0.1553  0.2110
42241SOL    HW136653   8.347   0.787  12.173 -0.0759  0.0831  0.0342
42241SOL    HW236654   8.495   0.793  12.207 -0.1713  0.5117  0.3783
42242SOL     OW36655   6.326   0.004  12.788  0.1094 -0.0123  0.2014
42242SOL    HW136656   6.287  -0.073  12.831  0.9050 -0.0306  0.9089
42242SOL    HW236657   6.257   0.036  12.730  0.3098 -2.3168 -1.4907
42243SOL     OW36658  12.838   5.234   5.871 -0.6857  0.0735 -1.1938
42243SOL    HW136659  12.831   5.246   5.966  0.9815 -1.5512 -0.8160
42243SOL    HW236660  12.927   5.261   5.850 -0.9464  0.1280 -2.2637
42244SOL     OW36661   5.560   8.514   7.273  0.5636 -0.1410  0.1866
42244SOL    HW136662   5.654   8.536   7.269  0.9674 -1.7616  0.0812
42244SOL    HW236663   5.546   8.486   7.363  0.4824 -1.1226 -0.1276
42245SOL     OW36664   8.038   4.423   9.435  0.3845  0.0640 -0.0008
42245SOL    HW136665   8.098   4.495   9.453 -0.1585  0.3483  0.7684
42245SOL    HW236666   8.033   4.417   9.340 -0.7075  2.0483 -0.1217
42246SOL     OW36667  12.124  13.027   9.388  0.1702 -0.4175 -0.0852
42246SOL    HW136668  12.213  13.038   9.356  0.1807 -0.1522  0.0332
42246SOL    HW236669  12.106  13.106   9.439 -0.9633  0.6426 -2.0162
42247SOL     OW36670   3.906  10.590   9.969 -0.1540  0.1070  0.4292
42247SOL    HW136671   3.876  10.641   9.894  2.3719  1.0208 -0.0278
42247SOL    HW236672   3.879  10.642  10.045  1.9122  1.9918 -0.0170
42248SOL     OW36673   4.956   7.911   6.776 -0.3341  0.3457  0.4394
42248SOL    HW136674   4.951   7.955   6.692 -1.2947  0.4983  0.5615
42248SOL    HW236675   4.989   7.978   6.837 -0.5303  0.5111  0.3647
42249SOL     OW36676  10.766  13.110   5.729 -0.3382 -0.4992 -0.3204
42249SOL    HW136677  10.834  13.132   5.665 -1.0059  0.3176 -0.7670
42249SOL    HW236678  10.688  13.155   5.698 -0.6452  0.0641  1.1512
42250SOL     OW36679   0.960   1.956   7.212 -1.0495  0.2501 -0.8095
42250SOL    HW136680   1.018   1.987   7.282  0.8377 -1.8235 -1.3282
42250SOL    HW236681   0.947   1.863   7.232 -3.6722  0.4869 -1.1344
42251SOL     OW36682   4.889   8.070   5.639 -0.5369 -0.0108 -0.1515
42251SOL    HW136683   4.969   8.117   5.663 -0.6167  0.4876 -0.8385
42251SOL    HW236684   4.902   8.046   5.548 -1.3495  0.4541 -0.3995
42252SOL     OW36685   5.318  10.725  10.367  0.1710  0.5726  0.2690
42252SOL    HW136686   5.369  10.774  10.431  1.5548  1.1617 -1.2336
42252SOL    HW236687   5.341  10.763  10.282  0.7795 -2.1895 -0.9081
42253SOL     OW36688   2.185   6.658   9.855 -0.5782  0.8021  0.3744
42253SOL    HW136689   2.168   6.749   9.878 -0.6163  0.8205  0.2748
42253SOL    HW236690   2.118   6.609   9.902 -1.8925  0.9953 -1.1777
42254SOL     OW36691   7.634   7.404   4.378  0.1021  0.1633  0.1671
42254SOL    HW136692   7.626   7.322   4.427  1.5328  1.1222  2.1746
42254SOL    HW236693   7.723   7.435   4.399 -0.1737  1.8933 -1.0687
42255SOL     OW36694  11.727   9.159  12.255 -0.3049 -0.3401 -0.0764
42255SOL    HW136695  11.640   9.138  12.289 -0.0136 -2.0339 -0.3180
42255SOL    HW236696  11.726   9.126  12.165  0.7841 -0.9352  0.1119
42256SOL     OW36697  13.210   3.346   8.309 -0.6827 -0.0467  0.3008
42256SOL    HW136698  13.190   3.329   8.401 -1.6823  0.0194  0.1061
42256SOL    HW236699  13.222   3.260   8.270  1.1026 -0.0475  0.7581
42257SOL     OW36700   0.855   4.712   6.251 -0.0670  0.4671 -1.1448
42257SOL    HW136701   0.865   4.678   6.162 -0.0805 -0.5206 -0.7824
42257SOL    HW236702   0.819   4.639   6.301  2.3620  0.1328  0.2601
42258SOL     OW36703   5.062   2.835   4.924  0.1578 -0.2907 -0.1615
42258SOL    HW136704   5.135   2.881   4.883  0.0480 -1.6012 -1.9576
42258SOL    HW236705   5.011   2.801   4.851 -2.6461  1.0586  0.9917
42259SOL     OW36706   7.188   5.622  11.677 -0.8939 -0.0514 -0.6899
42259SOL    HW136707   7.194   5.544  11.733 -0.8078  1.0590  0.9262
42259SOL    HW236708   7.278   5.653  11.669 -1.1946  1.5255  1.2046
42260SOL     OW36709   5.945  12.114  10.564  0.0944 -0.7016  0.5481
42260SOL    HW136710   5.896  12.176  10.618 -0.1114  2.6691 -3.0789
42260SOL    HW236711   6.027  12.101  10.611 -0.8998  0.2455  2.6790
42261SOL     OW36712   1.318   3.349   5.392 -0.2581 -0.4544 -0.3673
42261SOL    HW136713   1.236   3.398   5.382 -0.3271 -0.3803  0.4682
42261SOL    HW236714   1.307   3.300   5.474  1.0634  0.6627  0.5363
42262SOL     OW36715   9.662   9.545   0.654  0.4359  0.4117 -0.6078
42262SOL    HW136716   9.708   9.535   0.571  1.2209 -1.3535 -0.0165
42262SOL    HW236717   9.619   9.631   0.648  2.4897  1.4455 -1.8479
42263SOL     OW36718   3.696   9.467   3.167 -0.4698  0.6551  0.0036
42263SOL    HW136719   3.790   9.478   3.156 -0.5562  0.7883 -0.6023
42263SOL    HW236720   3.681   9.484   3.260  0.2190 -0.2086  0.2878
42264SOL     OW36721   1.351   5.378   6.869 -0.7223  0.2357  0.5879
42264SOL    HW136722   1.400   5.297   6.853 -2.8966 -1.1291  0.3913
42264SOL    HW236723   1.397   5.445   6.817 -0.1643 -1.3513 -1.0750
42265SOL     OW36724   5.829   1.040   9.911 -0.5791  0.0213 -0.2891
42265SOL    HW136725   5.912   1.058   9.866 -0.4029  1.7178  0.6402
42265SOL    HW236726   5.854   1.016  10.000 -1.0547 -0.5975 -0.3127
42266SOL     OW36727   5.105  12.662  11.473 -0.1430 -0.4600  0.5168
42266SOL    HW136728   5.128  12.749  11.440 -1.1205  0.1286  1.2982
42266SOL    HW236729   5.072  12.615  11.397  1.3823 -0.5271 -0.1294
42267SOL     OW36730   8.120   8.081   1.341 -0.3607 -0.4330  0.3706
42267SOL    HW136731   8.102   8.022   1.268 -1.1308 -0.6201  0.6988
42267SOL    HW236732   8.091   8.167   1.311  2.0516  0.1079 -0.6397
42268SOL     OW36733   3.276   3.592   6.377 -0.1637 -0.0917  0.1504
42268SOL    HW136734   3.186   3.585   6.410  0.3627 -0.5084  1.5730
42268SOL    HW236735   3.300   3.683   6.392 -0.2620 -0.0428  0.0108
42269SOL     OW36736   5.170   4.928   1.366 -0.0578 -0.0621  0.2982
42269SOL    HW136737   5.143   4.873   1.292 -0.2336 -0.2658  0.5156
42269SOL    HW236738   5.230   4.992   1.327 -0.5779  0.1760 -0.1228
42270SOL     OW36739   3.787   3.025   3.531  0.2347 -0.3042  0.1711
42270SOL    HW136740   3.808   3.027   3.438 -2.1294 -2.4069 -0.5353
42270SOL    HW236741   3.696   3.054   3.536 -0.0065 -1.1879  1.6699
42271SOL     OW36742  10.549   6.194   8.505  0.0337  0.0535 -0.2437
42271SOL    HW136743  10.630   6.211   8.456  0.9492  0.6857  1.3725
42271SOL    HW236744  10.554   6.101   8.528 -0.8890 -0.5031 -2.1019
42272SOL     OW36745   9.554   7.346   5.349 -0.6168  0.3810 -0.7637
42272SOL    HW136746   9.565   7.327   5.256 -0.3407  2.7065 -1.2733
42272SOL    HW236747   9.584   7.436   5.359 -1.1864  0.3897  1.4843
42273SOL     OW36748   2.601   2.881   9.879  0.1168 -0.1356 -0.3188
42273SOL    HW136749   2.652   2.957   9.906 -0.3064  0.6188 -1.5268
42273SOL    HW236750   2.510   2.907   9.893 -0.0216 -0.4909 -0.5508
42274SOL     OW36751   1.124  11.689   7.304 -0.3172  0.1661  0.0704
42274SOL    HW136752   1.194  11.676   7.368  0.5596 -0.5968 -1.0114
42274SOL    HW236753   1.056  11.627   7.330  0.1628 -0.3598  0.0846
42275SOL     OW36754   5.800   6.819   6.482  0.1915  0.1911  0.5836
42275SOL    HW136755   5.854   6.753   6.438 -3.0063 -0.4409 -2.8757
42275SOL    HW236756   5.754   6.771   6.550  1.2319 -0.0462  1.1466
42276SOL     OW36757   8.171  10.103   7.840  0.2161  0.5311 -0.3373
42276SOL    HW136758   8.242  10.072   7.784 -0.1439 -0.2099 -0.3896
42276SOL    HW236759   8.214  10.163   7.902  0.6696  1.0927 -1.1747
42277SOL     OW36760   5.599   3.304   1.934 -0.2121 -0.4145  0.0206
42277SOL    HW136761   5.516   3.332   1.895 -0.5287 -0.9874  0.2566
42277SOL    HW236762   5.659   3.294   1.860 -0.1392  0.6991 -0.0792
42278SOL     OW36763   1.042   2.174   9.066  0.5531 -0.1148 -0.5675
42278SOL    HW136764   1.029   2.081   9.082 -1.1645 -0.3265 -2.5849
42278SOL    HW236765   1.054   2.180   8.971 -0.7270  1.8035 -0.6595
42279SOL     OW36766   3.539   8.142  13.079  0.1651  0.5957  0.4234
42279SOL    HW136767   3.487   8.111  13.005 -1.1051  0.6943  1.2472
42279SOL    HW236768   3.569   8.229  13.052 -2.4400  1.7595  0.9718
42280SOL     OW36769   3.657   5.576  10.163  0.2987 -0.2393 -0.0607
42280SOL    HW136770   3.642   5.481  10.168 -0.3761 -0.1046  0.7359
42280SOL    HW236771   3.748   5.584  10.135  0.5101 -1.1348  0.3186
42281SOL     OW36772   2.992   8.663   7.664  0.1261  0.4723 -0.1034
42281SOL    HW136773   2.900   8.642   7.648  0.3124 -0.0773 -0.5035
42281SOL    HW236774   3.007   8.744   7.617 -0.4636  1.2336  0.9793
42282SOL     OW36775   5.140   1.853   9.033 -0.2444 -0.2511 -0.3124
42282SOL    HW136776   5.221   1.812   9.063  0.0124  1.4071  1.4684
42282SOL    HW236777   5.167   1.920   8.971 -0.3143 -0.2955 -0.3903
42283SOL     OW36778   4.393  11.206   9.493  0.1813  0.0620 -0.8505
42283SOL    HW136779   4.364  11.242   9.408 -0.9045 -2.2938 -1.5548
42283SOL    HW236780   4.318  11.219   9.551  0.6033  0.8773 -0.4702
42284SOL     OW36781  12.944   6.374   1.778  0.3608 -0.8821 -0.1291
42284SOL    HW136782  12.914   6.292   1.739  0.6252 -0.8081 -0.4962
42284SOL    HW236783  13.014   6.348   1.838 -0.3676 -1.0462  0.6672
42285SOL     OW36784  12.611   8.811   0.530 -0.7088  0.2710  0.5938
42285SOL    HW136785  12.608   8.829   0.436 -0.5237  1.7514  0.8456
42285SOL    HW236786  12.533   8.757   0.546 -2.2825  2.2108 -0.0106
42286SOL     OW36787   6.751   2.883   2.915 -0.1410 -0.3015 -0.5353
42286SOL    HW136788   6.688   2.910   2.982  2.6918  1.4762  1.6487
42286SOL    HW236789   6.734   2.942   2.841 -0.7104  0.4697  0.1901
42287SOL     OW36790   4.743   6.755   1.463 -0.2200  0.4757 -0.2428
42287SOL    HW136791   4.655   6.789   1.448 -1.0132 -0.7432  1.3501
42287SOL    HW236792   4.763   6.779   1.553  1.4656  1.4671 -0.8265
42288SOL     OW36793   3.046   4.997   7.822 -0.1973  0.2588  0.3087
42288SOL    HW136794   3.043   5.050   7.901  1.8945  0.4109  0.3491
42288SOL    HW236795   3.038   4.907   7.853  1.7437  0.2352  0.8779
42289SOL     OW36796   7.116  10.640  13.004  0.1185  0.2444  0.1828
42289SOL    HW136797   7.166  10.720  13.020  0.4888 -0.5199  3.6281
42289SOL    HW236798   7.025  10.666  13.019 -0.0658  0.5247 -1.2469
42290SOL     OW36799   7.521  12.799  10.583 -0.2487 -0.3621  0.4538
42290SOL    HW136800   7.611  12.788  10.614  0.2400  2.0651  0.1526
42290SOL    HW236801   7.516  12.749  10.502  1.2556  0.4896 -0.1976
42291SOL     OW36802   2.669   8.259   3.844 -0.0975 -0.1919  0.0567
42291SOL    HW136803   2.604   8.253   3.915 -0.1344 -1.5977 -0.0570
42291SOL    HW236804   2.632   8.205   3.774  1.0646 -0.7947 -0.1141
42292SOL     OW36805   9.752  11.004   1.523 -0.1138 -1.2521 -0.5974
42292SOL    HW136806   9.780  11.032   1.610 -1.5677 -0.3978 -0.3707
42292SOL    HW236807   9.711  10.918   1.537 -1.3810 -0.6046 -0.2269
42293SOL     OW36808   3.324   9.716   1.672  0.2807 -0.4419  0.1183
42293SOL    HW136809   3.304   9.634   1.719 -2.4097  1.2135  2.1841
42293SOL    HW236810   3.291   9.701   1.584 -2.3216 -0.9219  1.0766
42294SOL     OW36811   5.648  11.856   2.433 -0.5126  0.3610 -0.3159
42294SOL    HW136812   5.720  11.849   2.370 -0.1996  1.8535 -0.1634
42294SOL    HW236813   5.583  11.912   2.390 -2.8097 -2.9191 -1.4898
42295SOL     OW36814   8.354   1.616   4.032 -0.1533  0.3174 -0.0613
42295SOL    HW136815   8.416   1.567   3.979  0.1897 -0.1030  0.7179
42295SOL    HW236816   8.330   1.557   4.103 -1.1527  0.6144 -0.1292
42296SOL     OW36817   4.844   0.374   4.282 -0.2297  0.3703  0.2650
42296SOL    HW136818   4.910   0.312   4.252 -0.5679  0.3119 -0.3881
42296SOL    HW236819   4.788   0.389   4.205 -0.8272  0.6049  0.7321
42297SOL     OW36820   8.584   4.593   3.633  0.4383 -0.8613  0.4166
42297SOL    HW136821   8.561   4.674   3.679  0.6617 -0.7806  0.3892
42297SOL    HW236822   8.631   4.622   3.555 -0.7198 -0.9628 -0.3357
42298SOL     OW36823   7.352  10.708   6.375  0.2075  0.2299 -0.3481
42298SOL    HW136824   7.446  10.724   6.381  0.0761  0.7174  0.4855
42298SOL    HW236825   7.324  10.695   6.465 -0.7223  1.2638 -0.4639
42299SOL     OW36826   4.616   2.780   5.778  0.1495  0.1115 -0.1122
42299SOL    HW136827   4.603   2.751   5.869 -0.0327  0.2739 -0.0860
42299SOL    HW236828   4.680   2.851   5.785  0.3510 -0.0656 -0.1419
42300SOL     OW36829   3.230   9.845  13.259 -0.1370 -0.3531  0.0062
42300SOL    HW136830   3.194   9.897  13.331  1.2572 -0.3776  0.7522
42300SOL    HW236831   3.249   9.909  13.191 -3.1910 -0.5258 -1.1738
42301SOL     OW36832   5.633   5.474  12.761  0.0671  0.2455 -0.1431
42301SOL    HW136833   5.653   5.394  12.809 -1.0956 -0.3497 -0.6184
42301SOL    HW236834   5.609   5.444  12.673 -1.7621  0.9750  0.0710
42302SOL     OW36835   5.167   4.547  10.142 -0.3796 -0.4201  0.1243
42302SOL    HW136836   5.104   4.619  10.143 -0.9804 -0.9409  0.5582
42302SOL    HW236837   5.185   4.531  10.235 -2.2987 -2.5620  0.2184
42303SOL     OW36838   7.164   1.983   3.772  0.5631  0.8762 -0.3366
42303SOL    HW136839   7.121   2.028   3.699 -0.8450 -0.4173 -0.3549
42303SOL    HW236840   7.253   2.018   3.772  0.5000  1.2016 -2.4419
42304SOL     OW36841   5.882  10.667   1.700 -0.2114  0.1768 -0.0489
42304SOL    HW136842   5.859  10.576   1.720  0.1851  0.0486 -0.1648
42304SOL    HW236843   5.818  10.694   1.634 -0.3129 -0.0252 -0.0344
42305SOL     OW36844   2.413   6.999   0.699  0.0767  0.1864  0.0397
42305SOL    HW136845   2.421   7.032   0.609 -0.1073  0.1471  0.0083
42305SOL    HW236846   2.495   6.952   0.715 -0.0968 -0.2256 -0.2796
42306SOL     OW36847   3.272   8.452   4.585  0.5939  0.3768 -0.3824
42306SOL    HW136848   3.223   8.374   4.613  0.9390 -0.1693 -1.2388
42306SOL    HW236849   3.270   8.510   4.660  1.7732 -1.1601  0.8988
42307SOL     OW36850   5.096   8.801   4.611 -0.4213 -0.2125  0.1989
42307SOL    HW136851   5.014   8.831   4.651  0.3174  0.1848  1.4801
42307SOL    HW236852   5.122   8.873   4.553  0.2812  0.7983  1.7000
42308SOL     OW36853  10.046   1.841   6.240 -0.6137 -0.5288  0.2010
42308SOL    HW136854  10.033   1.759   6.192  0.9536 -0.4143 -0.4629
42308SOL    HW236855  10.048   1.815   6.332  2.7316 -1.7439 -0.0842
42309SOL     OW36856   0.148   5.996  12.461 -0.5572  0.5372  0.5483
42309SOL    HW136857   0.204   6.056  12.412 -1.7725  1.2407 -0.0030
42309SOL    HW236858   0.147   6.031  12.550 -0.8198  1.0194  0.3563
42310SOL     OW36859  11.931   4.095   0.496  0.2303 -0.0170 -0.0274
42310SOL    HW136860  11.913   4.001   0.489  2.0247 -0.3409 -1.0837
42310SOL    HW236861  11.884   4.134   0.423  1.0565 -0.3874 -0.7733
42311SOL     OW36862   7.737  12.928   1.479 -0.4677  0.3748  0.0126
42311SOL    HW136863   7.779  12.938   1.394 -1.8977 -0.0572 -0.7707
42311SOL    HW236864   7.648  12.898   1.459 -0.2753 -1.5711  1.7177
42312SOL     OW36865  10.691   5.451  11.680 -0.4449  0.1593 -0.8125
42312SOL    HW136866  10.661   5.361  11.684  0.4579 -0.1411 -0.6006
42312SOL    HW236867  10.661   5.491  11.761 -2.1478  0.4910 -1.5519
42313SOL     OW36868   1.597   0.422   4.629 -0.1836 -0.1198 -0.3714
42313SOL    HW136869   1.563   0.511   4.617  1.0380  0.3847 -0.2728
42313SOL    HW236870   1.526   0.376   4.674 -1.0138  0.6715 -0.8216
42314SOL     OW36871   3.311   2.625  11.641  0.3046 -0.2529 -0.0688
42314SOL    HW136872   3.348   2.559  11.582 -0.7042  0.2797 -1.3633
42314SOL    HW236873   3.245   2.670  11.587 -0.4728  0.4370  1.4070
42315SOL     OW36874  11.722   8.862   9.747 -0.1226 -0.1430 -0.3077
42315SOL    HW136875  11.725   8.781   9.798  0.0906  0.0447 -0.0165
42315SOL    HW236876  11.631   8.890   9.751 -0.4389 -0.9542 -1.3454
42316SOL     OW36877   5.260   0.468   2.782  0.7679 -0.2101  0.1095
42316SOL    HW136878   5.255   0.558   2.748  0.3334 -1.0841 -2.3014
42316SOL    HW236879   5.351   0.459   2.811  1.7876  0.0317 -2.6990
42317SOL     OW36880  10.849   5.439   6.162 -0.1259  0.8242 -0.0640
42317SOL    HW136881  10.856   5.497   6.087  1.5111  1.2109  0.3545
42317SOL    HW236882  10.928   5.385   6.159  0.2060  1.1380  1.5956
42318SOL     OW36883   4.633   9.688  12.552 -0.1225 -0.3677  0.6978
42318SOL    HW136884   4.719   9.650  12.533 -0.4801 -0.7454 -0.2409
42318SOL    HW236885   4.579   9.663  12.477 -0.8372  0.5469  0.8904
42319SOL     OW36886   1.431   7.572   3.315  0.1658  0.1839  0.1732
42319SOL    HW136887   1.453   7.578   3.408 -1.4539  0.6438  0.5628
42319SOL    HW236888   1.469   7.489   3.286  0.2620 -0.2040  1.3676
42320SOL     OW36889  13.024   1.032   6.045 -0.5213 -0.2878  0.0433
42320SOL    HW136890  12.995   0.990   5.964 -1.2486 -0.3637  0.3373
42320SOL    HW236891  13.120   1.032   6.039 -0.5649  1.6479 -1.8004
42321SOL     OW36892  13.296   8.458  11.917 -0.1324 -0.5100  0.3450
42321SOL    HW136893  13.322   8.447  12.009  0.2233  0.9199  0.4410
42321SOL    HW236894  13.209   8.497  11.922  0.1390  0.1312  0.0848
42322SOL     OW36895   2.380  11.609   9.928  0.6942 -0.1271 -0.0830
42322SOL    HW136896   2.365  11.518   9.902  2.1239 -0.3297 -0.2629
42322SOL    HW236897   2.436  11.604  10.005  0.7835  0.5982 -0.0894
42323SOL     OW36898   0.145   8.838   4.722 -0.3586  0.1304 -0.5711
42323SOL    HW136899   0.137   8.905   4.790 -1.6279 -1.0426  0.4802
42323SOL    HW236900   0.076   8.861   4.659  0.3742  0.8216 -1.1422
42324SOL     OW36901   0.244   5.753   2.744  0.3412  0.1141 -0.6322
42324SOL    HW136902   0.270   5.668   2.709  1.4494  0.7208 -1.3141
42324SOL    HW236903   0.314   5.777   2.805 -1.0586 -0.4523  1.3162
42325SOL     OW36904   4.649  11.305   9.069  0.8543  0.0463 -0.1411
42325SOL    HW136905   4.618  11.214   9.070  1.5555 -0.2123  1.5814
42325SOL    HW236906   4.612  11.341   8.989  1.1049 -1.9410 -1.2302
42326SOL     OW36907  11.916   7.353   8.943  0.1534 -0.2759  0.0387
42326SOL    HW136908  11.822   7.367   8.935 -0.1336 -1.8058  0.3783
42326SOL    HW236909  11.951   7.379   8.858 -0.8557 -1.5955 -0.8201
42327SOL     OW36910  13.037   8.826  12.781 -0.1906 -0.2068 -0.2927
42327SOL    HW136911  13.121   8.835  12.736 -0.2295  0.8023 -0.1953
42327SOL    HW236912  13.007   8.916  12.793 -1.5264 -0.5629 -0.7743
42328SOL     OW36913  11.031   3.537   5.791 -0.1585  0.3005 -0.4148
42328SOL    HW136914  11.017   3.542   5.696 -2.1819  0.4984 -0.1420
42328SOL    HW236915  10.976   3.606   5.827  0.4352  0.0989  0.9400
42329SOL     OW36916   1.944  11.249   2.624  0.4957  0.2191 -0.2932
42329SOL    HW136917   1.954  11.322   2.685 -1.5181  0.5594 -0.3070
42329SOL    HW236918   1.862  11.267   2.578  0.0886 -1.8935 -0.4986
42330SOL     OW36919  11.763   0.033   3.042 -0.1978 -0.1756 -0.4164
42330SOL    HW136920  11.744   0.104   2.981  0.6111 -0.0956 -0.5919
42330SOL    HW236921  11.768   0.075   3.128  3.5521  0.6556 -0.8694
42331SOL     OW36922   7.733  11.445  10.612 -1.0448  0.2054 -0.1127
42331SOL    HW136923   7.786  11.524  10.605 -0.6338  0.0129  0.6995
42331SOL    HW236924   7.724  11.414  10.522  1.9631 -0.8750 -0.1754
42332SOL     OW36925   8.940  11.994   0.013  0.0511  0.1525 -0.3690
42332SOL    HW136926   9.004  12.005  -0.058  1.0533  0.3561  0.5394
42332SOL    HW236927   8.941  12.077   0.059  1.1912 -0.7249  1.2905
42333SOL     OW36928   8.553   8.863   8.711  0.1786 -0.1838 -0.0116
42333SOL    HW136929   8.472   8.813   8.697 -0.2203  1.1213 -2.8723
42333SOL    HW236930   8.606   8.845   8.634  0.2749  3.2070 -0.8856
42334SOL     OW36931  11.388   0.215   6.262  0.0317  0.2402  0.0355
42334SOL    HW136932  11.402   0.121   6.276 -1.6067  0.0132  0.3692
42334SOL    HW236933  11.293   0.225   6.260  0.1756  1.9270  0.1726
42335SOL     OW36934   6.709   1.891   4.474  0.1576 -0.6356  0.2632
42335SOL    HW136935   6.686   1.867   4.384  0.7891 -0.5516  0.0747
42335SOL    HW236936   6.654   1.967   4.494 -0.8974 -1.4185  0.3999
42336SOL     OW36937   0.523  13.033  10.934  0.2561  0.2391  0.2632
42336SOL    HW136938   0.432  13.004  10.940  0.9411 -1.8900  1.3803
42336SOL    HW236939   0.569  12.960  10.893  1.4610  1.3734 -0.4999
42337SOL     OW36940   9.859   7.227   5.065  0.2019  0.5944 -0.3530
42337SOL    HW136941   9.910   7.148   5.047 -0.1132  0.4329 -0.5461
42337SOL    HW236942   9.909   7.273   5.133 -0.3679 -0.4981  0.8542
42338SOL     OW36943   2.470   6.324   3.137 -0.4221 -0.5613  0.0169
42338SOL    HW136944   2.520   6.344   3.058  0.1726 -0.1690  0.4816
42338SOL    HW236945   2.441   6.234   3.125  1.0373 -1.0691  0.0494
42339SOL     OW36946  10.666   4.877   3.318  0.1706 -0.6667  0.1505
42339SOL    HW136947  10.613   4.914   3.248  0.9399 -1.0451 -0.6543
42339SOL    HW236948  10.681   4.950   3.378 -0.7164 -0.4053  0.0576
42340SOL     OW36949   3.170   5.367   1.796  0.2864  0.2060 -0.2341
42340SOL    HW136950   3.209   5.311   1.729  1.8474  1.0146 -0.0386
42340SOL    HW236951   3.151   5.449   1.750  0.2712  0.3580  0.0431
42341SOL     OW36952   2.298   4.941   1.071  0.7690  0.5913  0.0128
42341SOL    HW136953   2.260   5.026   1.093 -1.7763 -0.7227  1.1357
42341SOL    HW236954   2.323   4.904   1.156  2.2237  0.3374 -0.4987
42342SOL     OW36955   2.389  10.255  10.118 -0.0634  0.3609  0.3080
42342SOL    HW136956   2.397  10.161  10.132  1.0041  0.0888 -1.7314
42342SOL    HW236957   2.357  10.263  10.028 -2.5991  1.9418  1.2326
42343SOL     OW36958  12.268   7.706   0.758  0.0392 -0.4576  0.4493
42343SOL    HW136959  12.294   7.691   0.848 -1.8493 -1.0861  0.9180
42343SOL    HW236960  12.343   7.675   0.706  1.2198  0.0774  1.7575
42344SOL     OW36961   8.928   3.521   0.048  0.4409  0.2138 -0.5714
42344SOL    HW136962   8.840   3.560   0.055  0.6203  1.2174 -3.0352
42344SOL    HW236963   8.912   3.434   0.013  0.4128  0.4770 -1.2322
42345SOL     OW36964  13.060   6.259   3.370 -0.5847 -0.1835  0.1880
42345SOL    HW136965  12.968   6.280   3.387 -0.6626 -1.4144  1.5071
42345SOL    HW236966  13.103   6.266   3.455  0.2557 -0.9604 -0.1477
42346SOL     OW36967  10.156   3.824   2.856 -0.4666 -0.4043  0.6448
42346SOL    HW136968  10.117   3.828   2.944 -1.3969  2.8141  0.2081
42346SOL    HW236969  10.178   3.915   2.836  1.0109 -1.2515 -1.9290
42347SOL     OW36970   5.338  10.496   4.500 -0.3053 -0.2266 -0.0747
42347SOL    HW136971   5.381  10.414   4.475  0.0311  0.1959 -0.9202
42347SOL    HW236972   5.268  10.469   4.559 -1.3082 -1.3230 -1.6678
42348SOL     OW36973   4.970  11.412  10.099 -0.0722  0.0738 -0.1113
42348SOL    HW136974   5.038  11.421  10.165 -0.7701 -0.9046  0.7858
42348SOL    HW236975   4.892  11.387  10.148 -0.5144 -1.1255 -1.3331
42349SOL     OW36976   4.965   2.210   7.611 -0.3304 -0.1466  0.2712
42349SOL    HW136977   5.051   2.207   7.653 -0.8904  1.6933  1.6702
42349SOL    HW236978   4.963   2.295   7.567 -1.3862 -0.2463  0.1031
42350SOL     OW36979  11.148   2.898   9.012 -0.0207  0.3423  0.2100
42350SOL    HW136980  11.167   2.828   9.073 -0.5042  1.6578  1.9471
42350SOL    HW236981  11.126   2.854   8.930 -1.1142 -1.5397  1.4551
42351SOL     OW36982   4.679   9.420   4.681  0.1630  0.2335 -0.1130
42351SOL    HW136983   4.736   9.493   4.659 -0.3301  0.6991  0.1243
42351SOL    HW236984   4.739   9.350   4.706  0.6333  0.6830  0.0472
42352SOL     OW36985   7.551  10.488  10.231  0.4712  0.2561  0.4878
42352SOL    HW136986   7.628  10.545  10.235  0.4990  0.2104  0.6245
42352SOL    HW236987   7.511  10.496  10.318  0.5812 -0.0773  0.5738
42353SOL     OW36988   7.931   1.397   0.163 -0.3788 -0.2739  0.2367
42353SOL    HW136989   7.952   1.490   0.174  1.2573 -0.5549 -0.1861
42353SOL    HW236990   7.900   1.369   0.249 -0.2911  0.5141  0.5376
42354SOL     OW36991   7.075   1.148  12.821 -0.3734  0.0336 -0.1420
42354SOL    HW136992   7.162   1.131  12.856 -0.2746 -0.9136 -0.7982
42354SOL    HW236993   7.015   1.125  12.891 -0.1606 -1.2977 -0.3761
42355SOL     OW36994  10.072   0.085   5.579  0.1035 -0.1635  0.1927
42355SOL    HW136995  10.138   0.138   5.624 -1.4705  0.1132  2.3243
42355SOL    HW236996  10.006   0.067   5.646 -0.4749 -3.0741 -1.0025
42356SOL     OW36997   1.509  10.340   2.595  0.2733  0.0868  0.0160
42356SOL    HW136998   1.428  10.366   2.639  0.5803 -0.4531  0.9281
42356SOL    HW236999   1.545  10.422   2.561  0.2421  0.5872  1.1452
42357SOL     OW37000   8.803   8.518   1.577  0.0736  0.1114  0.2058
42357SOL    HW137001   8.887   8.515   1.622  0.9800  0.6625 -1.3712
42357SOL    HW237002   8.809   8.450   1.509  0.1317  1.5790 -1.3301
42358SOL     OW37003   9.155   7.915   8.117  0.7729  0.2112 -0.3290
42358SOL    HW137004   9.200   7.933   8.035  0.7057 -1.2882 -0.7225
42358SOL    HW237005   9.224   7.887   8.177  1.0142  2.4553  0.5597
42359SOL     OW37006   2.462  11.347   5.430 -0.2355  0.2064  0.0779
42359SOL    HW137007   2.443  11.405   5.356 -0.7385  0.5157  0.4455
42359SOL    HW237008   2.519  11.280   5.393 -1.1980 -0.1463 -0.8087
42360SOL     OW37009   6.646   0.019   8.394 -0.3663  0.3174 -0.2654
42360SOL    HW137010   6.563  -0.018   8.364  0.2949  0.2278 -2.1097
42360SOL    HW237011   6.624   0.107   8.423 -0.7910  1.1713 -2.9510
42361SOL     OW37012   0.624  11.136   7.553 -0.4191  0.1416  0.6382
42361SOL    HW137013   0.639  11.044   7.574  0.9870 -0.6447 -3.1507
42361SOL    HW237014   0.528  11.145   7.548 -0.5689 -1.0233  1.2304
42362SOL     OW37015  12.073   0.400   9.880  0.1911  0.6578  0.2477
42362SOL    HW137016  12.025   0.475   9.845  1.4363  1.9625  1.1930
42362SOL    HW237017  12.150   0.438   9.922  1.5653 -1.2793 -0.3732
42363SOL     OW37018   8.565  13.021   4.846  0.3759 -0.0422 -0.7140
42363SOL    HW137019   8.631  12.986   4.906 -0.1420  1.2462  0.6666
42363SOL    HW237020   8.514  12.945   4.820  2.2806 -1.0388 -1.6857
42364SOL     OW37021  12.029   5.384   1.614 -0.7328 -0.2254  0.5823
42364SOL    HW137022  11.971   5.413   1.544 -0.8321 -0.3538  0.6103
42364SOL    HW237023  12.103   5.444   1.612  1.0925 -2.3357 -1.9826
42365SOL     OW37024   2.430   2.933   6.392 -0.2153  0.2631 -0.7451
42365SOL    HW137025   2.373   2.924   6.316 -0.9412  0.8105 -0.2735
42365SOL    HW237026   2.374   2.970   6.460  0.7863  1.2154 -0.4019
42366SOL     OW37027   4.941   1.912   0.198  0.3739  0.1183  0.4936
42366SOL    HW137028   5.032   1.882   0.192  0.1925 -0.6322  1.2204
42366SOL    HW237029   4.933   1.979   0.130  1.4580  0.1701  0.3969
42367SOL     OW37030   0.896  10.056   3.565  0.5416  0.0266 -0.7420
42367SOL    HW137031   0.821  10.098   3.523  0.1363 -0.8401 -0.9091
42367SOL    HW237032   0.930   9.996   3.499  0.2529 -0.9305 -0.0513
42368SOL     OW37033   1.101   0.307   4.618 -0.1438  0.0887 -0.4536
42368SOL    HW137034   1.074   0.222   4.651  1.6950  0.2612  1.7643
42368SOL    HW237035   1.196   0.301   4.609 -0.1365  1.4472 -1.7268
42369SOL     OW37036  10.008   8.339   7.385  0.2184  0.0661  0.6238
42369SOL    HW137037  10.082   8.296   7.343  0.4420  1.0090  0.0213
42369SOL    HW237038   9.946   8.269   7.403 -0.1622 -0.3012 -1.8399
42370SOL     OW37039   5.918   1.424   5.062 -0.1011  0.4082  0.1553
42370SOL    HW137040   5.882   1.439   5.149 -2.3891 -0.6415 -0.5565
42370SOL    HW237041   5.856   1.466   5.002 -0.7582 -2.2816 -1.1786
42371SOL     OW37042   8.499   1.768   4.307 -0.0171 -0.2389  0.2390
42371SOL    HW137043   8.484   1.762   4.212 -0.0609 -0.3969  0.2566
42371SOL    HW237044   8.581   1.818   4.315 -0.1659  0.0277  0.1256
42372SOL     OW37045   9.660   9.059   2.778 -0.4331  0.1140  0.1019
42372SOL    HW137046   9.613   9.003   2.840  1.1353  0.0032  1.2553
42372SOL    HW237047   9.598   9.072   2.706 -0.9686 -2.8398 -0.0815
42373SOL     OW37048   4.178   5.117  12.781 -0.6383 -0.0804 -0.2687
42373SOL    HW137049   4.118   5.110  12.854 -1.7023 -0.0916 -1.1208
42373SOL    HW237050   4.195   5.211  12.772 -1.0027 -0.0283 -0.4022
42374SOL     OW37051   6.973   0.356   7.535 -0.0890 -0.1713 -0.5010
42374SOL    HW137052   6.892   0.305   7.530  0.4258 -0.9911 -0.6860
42374SOL    HW237053   7.037   0.295   7.573  0.9735 -0.2433 -2.2893
42375SOL     OW37054   4.604  13.265   0.110  0.0484  0.1755  0.3977
42375SOL    HW137055   4.629  13.198   0.173  1.7368  1.3815  1.0791
42375SOL    HW237056   4.661  13.249   0.034 -0.7124 -0.1665 -0.1126
42376SOL     OW37057   1.239  11.748   1.007  0.2057 -0.0647 -0.5533
42376SOL    HW137058   1.273  11.743   1.096  0.5604  1.2317 -0.5889
42376SOL    HW237059   1.152  11.709   1.011 -0.0627  0.6078  0.5178
42377SOL     OW37060  12.549   3.336   5.341 -0.3526  0.3191 -0.0044
42377SOL    HW137061  12.559   3.429   5.361 -0.7919  0.2657  0.4950
42377SOL    HW237062  12.514   3.335   5.252 -0.5915  0.6463  0.0796
42378SOL     OW37063   7.909   8.568   3.913  0.1257  1.0481 -0.6146
42378SOL    HW137064   7.975   8.606   3.972  1.3911 -0.9271 -0.6819
42378SOL    HW237065   7.957   8.543   3.835 -0.5489 -0.9242 -0.4631
42379SOL     OW37066   1.748   9.489   8.451 -0.4470 -0.1734 -0.0772
42379SOL    HW137067   1.799   9.450   8.523  0.1034  0.4486 -0.1191
42379SOL    HW237068   1.761   9.583   8.462  0.1920 -0.0857 -1.3848
42380SOL     OW37069  10.761   8.458   0.459  0.5286  0.1400 -0.1247
42380SOL    HW137070  10.712   8.533   0.492  0.7466  0.0629  0.4037
42380SOL    HW237071  10.695   8.400   0.422  0.4420  0.9363 -1.2420
42381SOL     OW37072   5.062   3.273   3.341 -0.4407  0.3168  0.1858
42381SOL    HW137073   5.027   3.238   3.259 -1.3648  1.1075  0.2215
42381SOL    HW237074   4.998   3.338   3.368 -0.1518  0.0738  1.5383
42382SOL     OW37075   5.419   4.301   2.683 -0.4109 -0.1753  0.1285
42382SOL    HW137076   5.460   4.216   2.666 -1.0576 -0.4746  0.0554
42382SOL    HW237077   5.414   4.306   2.778  0.0192 -0.0260  0.1469
42383SOL     OW37078  12.585  11.916   8.452  0.6872  0.2532  0.0031
42383SOL    HW137079  12.635  11.877   8.381 -0.2776 -2.0031  0.5002
42383SOL    HW237080  12.623  11.878   8.532 -1.9464 -1.8512  0.3803
42384SOL     OW37081   7.548  11.015   5.820  0.2681 -0.0867 -0.7094
42384SOL    HW137082   7.573  11.107   5.814  2.1121 -0.4549  0.3372
42384SOL    HW237083   7.454  11.014   5.802  0.2964  1.9246 -1.2127
42385SOL     OW37084   0.823  12.315  12.125 -0.5810 -0.1547 -0.4913
42385SOL    HW137085   0.830  12.346  12.216 -2.8765  0.4665 -0.4503
42385SOL    HW237086   0.802  12.222  12.133 -1.3081  0.0176 -0.3571
42386SOL     OW37087   3.601   5.922  11.455  0.5072 -0.3521 -0.5282
42386SOL    HW137088   3.658   5.997  11.437 -0.2892  0.5877  0.6947
42386SOL    HW237089   3.514   5.961  11.466  0.0537 -1.4731 -0.0281
42387SOL     OW37090   7.396  13.296   2.087  0.0123 -0.3097  0.5646
42387SOL    HW137091   7.331  13.229   2.108 -0.5918  0.3063  0.7117
42387SOL    HW237092   7.424  13.276   1.998  0.3275 -1.1365  0.8414
42388SOL     OW37093   7.481   2.842   3.911 -0.1576  0.0414  0.6458
42388SOL    HW137094   7.565   2.821   3.870 -1.0324 -0.6374 -0.8570
42388SOL    HW237095   7.450   2.920   3.864 -0.4845  0.1463  1.0293
42389SOL     OW37096   5.428   4.707   9.195  0.6773  0.1409  0.2155
42389SOL    HW137097   5.403   4.615   9.185  1.9044 -0.2245  0.2893
42389SOL    HW237098   5.506   4.704   9.251  1.0726  1.1824 -0.2633
42390SOL     OW37099   8.577   9.368   2.612  0.1977  0.0610  0.1468
42390SOL    HW137100   8.487   9.373   2.645  0.8903  0.1931  2.1728
42390SOL    HW237101   8.596   9.275   2.610 -0.1612  0.0002 -0.8531
42391SOL     OW37102  11.343   5.469   4.399  0.2377 -0.0620  0.8281
42391SOL    HW137103  11.329   5.550   4.349 -0.4173 -0.8568 -0.3433
42391SOL    HW237104  11.307   5.401   4.342  1.3985 -1.2543  1.5009
42392SOL     OW37105   1.642   2.140   1.985  0.2341  0.2503 -0.3006
42392SOL    HW137106   1.630   2.137   1.890 -1.4510  1.9024 -0.2100
42392SOL    HW237107   1.673   2.229   2.003  0.3670  0.0187  0.7050
42393SOL     OW37108  11.943   8.277   3.923  0.0600 -0.6641 -0.4435
42393SOL    HW137109  11.991   8.275   4.005 -0.3763  2.4185  0.0136
42393SOL    HW237110  11.853   8.257   3.946  0.1166 -0.7757 -0.3261
42394SOL     OW37111  12.075   4.658   3.480 -0.0927 -0.0874 -0.6371
42394SOL    HW137112  12.161   4.617   3.474  0.5001  1.1607 -0.9708
42394SOL    HW237113  12.072   4.718   3.405 -0.5687  1.1324  0.3347
42395SOL     OW37114   9.671   1.459   8.151 -0.5754 -0.7678 -0.2766
42395SOL    HW137115   9.743   1.415   8.106 -1.6390 -1.4310 -1.3786
42395SOL    HW237116   9.673   1.423   8.240  0.2640 -0.9824 -0.3716
42396SOL     OW37117   7.631   4.671  11.046 -0.0699  0.3242  0.5145
42396SOL    HW137118   7.570   4.706  11.111  0.0177  1.6051 -0.0586
42396SOL    HW237119   7.624   4.731  10.972  1.5227  0.2285  0.2439
42397SOL     OW37120   3.982   7.987   3.871  0.0418 -0.4190  0.6241
42397SOL    HW137121   4.003   8.016   3.959 -0.6932  1.6943  0.1818
42397SOL    HW237122   3.890   7.962   3.875 -0.2764  0.6305  0.2826
42398SOL     OW37123  10.592   6.800   4.919 -0.2412 -0.4130 -0.0536
42398SOL    HW137124  10.510   6.848   4.931  1.0306  1.6334  1.0593
42398SOL    HW237125  10.618   6.774   5.008  0.5377 -0.6140 -0.3289
42399SOL     OW37126   2.185   4.728   3.985 -0.6863  0.6402  0.0986
42399SOL    HW137127   2.180   4.807   4.038  0.8979 -0.0250  1.3349
42399SOL    HW237128   2.136   4.662   4.035  0.4864  0.1094  0.5760
42400SOL     OW37129  12.463  10.068   7.231 -0.1770  0.1400 -0.6763
42400SOL    HW137130  12.461  10.137   7.165  1.7017 -1.4190 -2.5226
42400SOL    HW237131  12.390  10.011   7.208  0.6581 -0.5649 -1.6663
42401SOL     OW37132   5.905   1.006   2.081  0.1699  0.7044 -0.4919
42401SOL    HW137133   5.838   0.938   2.069 -0.3042  1.0614  0.1207
42401SOL    HW237134   5.974   0.981   2.020 -0.8578  0.7627 -1.7249
42402SOL     OW37135  12.579   3.643   0.114 -0.1798  0.4294  0.5662
42402SOL    HW137136  12.628   3.724   0.101  0.4449 -0.0238  0.0447
42402SOL    HW237137  12.590   3.624   0.207  0.8741  0.2029  0.4179
42403SOL     OW37138   5.348   5.724  12.560 -0.2233 -0.9806 -0.0077
42403SOL    HW137139   5.325   5.649  12.616 -1.0449 -0.2777  0.6125
42403SOL    HW237140   5.308   5.704  12.476  0.7047 -1.8680 -0.2678
42404SOL     OW37141  12.813   8.835  11.602 -0.1323  0.0624 -0.0656
42404SOL    HW137142  12.818   8.895  11.527 -0.2315 -0.5535 -0.5824
42404SOL    HW237143  12.849   8.884  11.675 -0.5374  0.8723 -0.3971
42405SOL     OW37144   9.495  12.680   0.200  0.1841 -0.0096  0.7692
42405SOL    HW137145   9.523  12.766   0.230  3.0330 -0.7816  0.5943
42405SOL    HW237146   9.575  12.638   0.168 -1.0041 -2.9011  1.2742
42406SOL     OW37147   7.515   9.090   8.099 -0.1958  0.1900 -0.1909
42406SOL    HW137148   7.459   9.030   8.149 -1.4378 -0.3536 -2.1146
42406SOL    HW237149   7.460   9.117   8.024  1.3542  1.4378 -0.9367
42407SOL     OW37150   4.370  10.371   1.449 -0.7093  0.0873  0.2372
42407SOL    HW137151   4.279  10.369   1.418 -1.0995  1.5011  1.1803
42407SOL    HW237152   4.397  10.462   1.435  0.1753 -0.0474  1.0244
42408SOL     OW37153   6.202   2.574  13.050  0.1409  0.0060  0.1221
42408SOL    HW137154   6.267   2.626  13.097 -0.4877  0.1419  0.8487
42408SOL    HW237155   6.181   2.502  13.109  0.6050 -0.7868 -0.6577
42409SOL     OW37156   6.093  12.389  10.829  0.7110  0.4022 -0.1504
42409SOL    HW137157   6.119  12.348  10.911  1.3230 -0.5324 -0.7999
42409SOL    HW237158   6.173  12.394  10.777  0.3895  1.2331 -0.5976
42410SOL     OW37159   4.111  12.152   8.528  0.3224  0.4854 -0.2086
42410SOL    HW137160   4.186  12.128   8.582 -0.7956 -0.6898  0.9104
42410SOL    HW237161   4.097  12.245   8.547  0.9931  0.5138  0.2023
42411SOL     OW37162   5.394   5.992   9.937 -0.1159 -0.4493 -0.0994
42411SOL    HW137163   5.314   6.043   9.925 -0.3319 -0.9030 -0.6227
42411SOL    HW237164   5.385   5.954  10.025  0.3514  0.9224  0.5665
42412SOL     OW37165   6.983  10.292   5.403  0.3406  0.3695 -0.5016
42412SOL    HW137166   6.898  10.289   5.360  0.2507 -0.6284 -0.2648
42412SOL    HW237167   6.974  10.361   5.469 -0.1370  0.5598 -0.7621
42413SOL     OW37168   9.163  11.786   3.211  0.9070  0.0794 -0.2355
42413SOL    HW137169   9.243  11.781   3.159  0.5486  1.3030 -0.9548
42413SOL    HW237170   9.170  11.714   3.273  2.8245  0.4843  0.0782
42414SOL     OW37171   9.538   8.219  11.418 -0.3084  0.2863  0.5597
42414SOL    HW137172   9.452   8.257  11.398 -0.3616 -1.1826 -2.5394
42414SOL    HW237173   9.520   8.126  11.430  0.6345  0.2482  1.7960
42415SOL     OW37174   6.928   8.275   7.121  0.4008 -0.0713  0.0969
42415SOL    HW137175   6.912   8.196   7.171  3.0831 -0.4798  0.4736
42415SOL    HW237176   6.889   8.258   7.035  1.3607 -2.0404  0.0058
42416SOL     OW37177   7.378   3.340   0.592 -0.1968  0.2440 -0.2275
42416SOL    HW137178   7.316   3.268   0.576 -0.8330  0.5991  0.5437
42416SOL    HW237179   7.322   3.414   0.618  0.5291  0.6679  0.1642
42417SOL     OW37180   4.258   5.642   8.118  0.2545 -0.0687 -0.2065
42417SOL    HW137181   4.249   5.734   8.145  1.4222 -0.2906  1.0391
42417SOL    HW237182   4.176   5.600   8.147 -0.3712  0.5962 -0.9576
42418SOL     OW37183   3.320   9.083  12.523  0.1572  0.5651 -0.2202
42418SOL    HW137184   3.299   9.083  12.616  3.6621 -0.1745  0.7281
42418SOL    HW237185   3.308   8.993  12.494  0.6837  0.4278 -0.0225
42419SOL     OW37186   6.574   5.910   6.035 -0.7073 -0.0439  0.0098
42419SOL    HW137187   6.559   5.947   6.122 -0.7323  1.4883 -0.6225
42419SOL    HW237188   6.489   5.915   5.991 -1.2047 -2.6216  0.4942
42420SOL     OW37189  12.053   2.249  12.012  0.3158  0.5720  0.3222
42420SOL    HW137190  12.093   2.219  12.094 -2.0564  1.5804  1.9475
42420SOL    HW237191  11.959   2.241  12.027 -0.2753 -2.3627 -3.5588
42421SOL     OW37192   2.433   8.473   6.159  0.6314 -0.5885 -0.2467
42421SOL    HW137193   2.476   8.495   6.241  0.8446 -1.5269 -0.0980
42421SOL    HW237194   2.468   8.388   6.135  0.4400 -0.4079 -1.2288
42422SOL     OW37195   6.705   7.521   0.509 -0.0211  0.8489 -0.3521
42422SOL    HW137196   6.787   7.557   0.542  1.7222 -3.5271  0.7732
42422SOL    HW237197   6.727   7.486   0.423 -0.4976 -0.7383  0.1306
42423SOL     OW37198  12.605  13.234   8.350  0.7213 -0.2867  1.0612
42423SOL    HW137199  12.568  13.293   8.416 -1.9184 -0.5041 -0.1195
42423SOL    HW237200  12.601  13.147   8.390 -0.6146 -0.3791  0.7653
42424SOL     OW37201  12.064   0.563   3.054 -0.8527  0.6615 -0.2815
42424SOL    HW137202  12.130   0.525   3.112 -0.3266  1.0679 -0.6056
42424SOL    HW237203  12.014   0.622   3.110 -0.4338  0.9493 -0.2055
42425SOL     OW37204   7.932  11.871   7.169  0.7862 -0.8134  0.5249
42425SOL    HW137205   7.865  11.878   7.237 -0.2215 -2.4650 -0.2418
42425SOL    HW237206   7.965  11.960   7.159 -1.9131  0.2593  0.3345
42426SOL     OW37207   3.670   1.710   8.697  0.0474  0.3033  0.3363
42426SOL    HW137208   3.743   1.710   8.760 -1.1765  0.3453  1.8009
42426SOL    HW237209   3.597   1.672   8.745 -0.5624 -1.0728 -1.5688
42427SOL     OW37210   1.303   0.409   5.297 -0.5122 -0.0061  0.3870
42427SOL    HW137211   1.312   0.362   5.379 -0.1352 -0.0724  0.3094
42427SOL    HW237212   1.208   0.416   5.283 -0.5816  0.1485  0.9060
42428SOL     OW37213   2.294   5.257   5.015  0.3566 -0.2589  0.2287
42428SOL    HW137214   2.307   5.348   4.988  0.4396 -0.8624 -1.9213
42428SOL    HW237215   2.287   5.261   5.111  1.2714  1.8819  0.2550
42429SOL     OW37216  10.799   1.025   6.944  0.0271 -0.0430 -0.4604
42429SOL    HW137217  10.706   1.038   6.928  0.3084  0.2225 -2.0022
42429SOL    HW237218  10.839   1.109   6.920  0.6832 -0.2177 -0.0015
42430SOL     OW37219   2.828   0.163   1.725  0.4939 -0.2611  0.0603
42430SOL    HW137220   2.916   0.179   1.691  0.1811  0.6235 -0.3604
42430SOL    HW237221   2.779   0.242   1.703 -0.8734 -1.4246 -1.2860
42431SOL     OW37222  11.496  12.598   3.527 -0.3090 -0.2015 -0.9595
42431SOL    HW137223  11.533  12.511   3.540 -0.1762 -0.0267 -0.1606
42431SOL    HW237224  11.521  12.648   3.605  1.1176  1.0901 -2.1703
42432SOL     OW37225  11.239  10.327   0.826 -0.0753 -0.1767  0.1361
42432SOL    HW137226  11.254  10.276   0.905 -0.2171  1.4211  1.2454
42432SOL    HW237227  11.306  10.395   0.828 -1.7041  1.5388  0.3716
42433SOL     OW37228   3.446   4.943   4.117  0.0027  0.7197 -0.2183
42433SOL    HW137229   3.519   4.999   4.142  0.3820 -0.6835  2.1920
42433SOL    HW237230   3.481   4.889   4.045  1.9439 -0.8971  1.7846
42434SOL     OW37231  11.564   6.417   4.943  0.4569 -0.0542 -0.1078
42434SOL    HW137232  11.474   6.391   4.925  0.5486  0.1448 -0.9052
42434SOL    HW237233  11.612   6.334   4.949  0.2542 -0.1551  0.1857
42435SOL     OW37234   5.183   1.575   4.639 -0.0578 -0.7700  0.1016
42435SOL    HW137235   5.234   1.549   4.561  1.4652  2.7504 -0.2693
42435SOL    HW237236   5.126   1.645   4.607 -0.1696  0.0064  1.9131
42436SOL     OW37237  13.239   2.194   0.026 -0.2668 -0.0967  0.1099
42436SOL    HW137238  13.237   2.211   0.120 -1.6260  2.9787 -0.3591
42436SOL    HW237239  13.323   2.230  -0.004 -0.0592 -0.6233  0.0295
42437SOL     OW37240   5.985   6.770   4.603  0.1277 -0.4261 -0.3472
42437SOL    HW137241   5.952   6.722   4.527 -1.3629 -2.5292  1.4970
42437SOL    HW237242   5.913   6.768   4.666  0.6918  2.6842  0.5933
42438SOL     OW37243   0.074  12.645   7.491  0.5821  0.4413  0.5424
42438SOL    HW137244  -0.009  12.632   7.537  1.2574  0.1932  1.7052
42438SOL    HW237245   0.049  12.645   7.398 -0.7001  0.2379  0.8640
42439SOL     OW37246   6.952  11.383   5.529  0.4323  0.1651 -0.2946
42439SOL    HW137247   6.911  11.434   5.460  1.0255 -1.4645 -1.9169
42439SOL    HW237248   6.993  11.309   5.484  1.5003 -0.5536  1.7162
42440SOL     OW37249   2.841  12.008  12.526 -0.6420 -0.7424 -0.1772
42440SOL    HW137250   2.757  12.009  12.572  0.2042 -0.4761  1.4318
42440SOL    HW237251   2.906  11.991  12.594  0.6722 -0.4278 -1.2946
42441SOL     OW37252  11.717   6.501   9.134  0.1719 -0.0943  0.1575
42441SOL    HW137253  11.692   6.594   9.136  0.1362 -0.1123  0.9032
42441SOL    HW237254  11.744   6.482   9.224  1.4436 -0.4791 -0.2875
42442SOL     OW37255   5.927   3.926  12.153 -0.4795  0.0075 -0.2261
42442SOL    HW137256   5.946   4.010  12.195 -0.6731 -0.9814  1.9987
42442SOL    HW237257   5.841   3.938  12.114 -0.4995  0.8538  0.0381
42443SOL     OW37258   8.164   6.358  11.346 -0.4708  0.3539 -0.2147
42443SOL    HW137259   8.194   6.402  11.266 -0.4718 -2.4890 -1.8832
42443SOL    HW237260   8.245   6.337  11.394 -0.3558  0.4383 -0.3715
42444SOL     OW37261   1.826   5.040  12.755  0.1783 -0.0008 -0.0003
42444SOL    HW137262   1.892   5.105  12.732 -0.2871 -0.0094 -1.4648
42444SOL    HW237263   1.859   4.958  12.717 -0.0010 -0.2968  0.4760
42445SOL     OW37264  12.034   5.637   0.490 -0.1788 -0.1206  0.2368
42445SOL    HW137265  11.945   5.664   0.515  0.4415  0.1781  2.3450
42445SOL    HW237266  12.052   5.684   0.409 -1.9170 -0.1344 -0.1982
42446SOL     OW37267   5.128  11.760   2.912  0.7101 -0.4270 -0.3814
42446SOL    HW137268   5.085  11.737   2.994  0.7158  0.5800 -0.0747
42446SOL    HW237269   5.220  11.776   2.937  0.6783  0.0364 -0.5386
42447SOL     OW37270   8.379  11.514  12.563 -0.0323 -0.1091  0.0936
42447SOL    HW137271   8.456  11.528  12.617  1.2635  1.4964 -2.0354
42447SOL    HW237272   8.323  11.589  12.581  1.0283  1.1804 -1.7082
42448SOL     OW37273   9.945   3.270  12.422 -0.5964 -0.3743 -0.6440
42448SOL    HW137274  10.009   3.199  12.411 -0.6539 -0.5093 -0.1350
42448SOL    HW237275   9.992   3.349  12.395 -1.9049 -1.0312 -6.0318
42449SOL     OW37276   8.291  12.148   3.792 -0.4367 -0.5503 -1.0027
42449SOL    HW137277   8.241  12.229   3.802 -0.3217 -0.4780 -1.0102
42449SOL    HW237278   8.361  12.171   3.731 -0.0335 -0.4891 -0.5208
42450SOL     OW37279   6.391   5.187  10.455 -0.2818 -0.0077 -0.1491
42450SOL    HW137280   6.444   5.117  10.493  0.6966  0.1453 -1.1936
42450SOL    HW237281   6.455   5.250  10.422 -1.1344  0.5859 -0.6924
42451SOL     OW37282   4.181   6.334   7.598 -0.0462 -0.0394 -0.6321
42451SOL    HW137283   4.105   6.314   7.544  0.3929  2.5810 -2.3833
42451SOL    HW237284   4.148   6.328   7.688 -1.0669 -3.4178 -1.0684
42452SOL     OW37285  10.301   3.835   8.119 -0.2962  0.6934 -0.7109
42452SOL    HW137286  10.262   3.763   8.169 -1.9993  2.5206  0.7792
42452SOL    HW237287  10.289   3.810   8.028 -1.9289 -0.4113 -0.2420
42453SOL     OW37288  11.842   8.270   2.745 -0.3456  0.3829  0.2402
42453SOL    HW137289  11.845   8.183   2.785  0.6376 -0.2012 -1.0325
42453SOL    HW237290  11.752   8.280   2.715 -0.4552 -0.2017  0.3659
42454SOL     OW37291   7.738   6.066   3.087 -0.1794 -0.2310 -0.0460
42454SOL    HW137292   7.817   6.018   3.112  0.4417  0.0152 -1.4016
42454SOL    HW237293   7.771   6.143   3.040 -1.2271 -0.0132 -0.4555
42455SOL     OW37294  10.778  12.333   2.277 -0.0642  0.1325  0.0928
42455SOL    HW137295  10.809  12.358   2.190  0.5738 -0.0456  0.2632
42455SOL    HW237296  10.710  12.268   2.261  1.0883 -1.0252 -0.2409
42456SOL     OW37297   8.647   7.828   3.468  0.4544  0.1075  0.5140
42456SOL    HW137298   8.700   7.880   3.528  1.5218 -0.2604 -0.0718
42456SOL    HW237299   8.704   7.754   3.445  0.0616  0.2290 -0.9244
42457SOL     OW37300   8.241   7.499   5.369  0.0453  0.1955 -0.2890
42457SOL    HW137301   8.210   7.574   5.419  0.2782 -1.0751  1.8993
42457SOL    HW237302   8.333   7.516   5.353 -0.2697  1.0903 -1.2646
42458SOL     OW37303   8.270   0.648  12.899  0.3709 -0.4793  0.4122
42458SOL    HW137304   8.224   0.607  12.825  0.0451  0.0592  0.3143
42458SOL    HW237305   8.268   0.741  12.880  0.5111 -0.3584  0.9757
42459SOL     OW37306   1.785  11.987  10.155 -0.4084 -0.0974 -0.5824
42459SOL    HW137307   1.846  12.033  10.098 -0.7460 -1.0665 -1.7775
42459SOL    HW237308   1.826  11.901  10.168 -0.6971 -0.1460  0.0153
42460SOL     OW37309  10.426  10.626   5.253  0.0734 -0.2125  0.0057
42460SOL    HW137310  10.364  10.616   5.181 -0.8033  2.6205  0.2284
42460SOL    HW237311  10.377  10.599   5.331  0.3661 -1.3863 -0.1969
42461SOL     OW37312  11.977   3.510  10.274  0.5566  0.0798 -0.3754
42461SOL    HW137313  11.941   3.577  10.215 -1.2558 -1.1020 -0.7151
42461SOL    HW237314  11.924   3.432  10.257  2.4110 -1.3919  0.1994
42462SOL     OW37315   5.552  10.786   9.863 -0.3532 -0.2671  0.3961
42462SOL    HW137316   5.644  10.793   9.837 -0.0868 -2.2313  0.7011
42462SOL    HW237317   5.554  10.790   9.958 -0.6774  0.3465  0.3851
42463SOL     OW37318   0.246   6.366   7.141  0.5509 -0.0465  0.0498
42463SOL    HW137319   0.248   6.450   7.187 -0.5006  0.1258 -0.2094
42463SOL    HW237320   0.199   6.307   7.201 -0.3705  0.0470 -0.5658
42464SOL     OW37321   1.869  12.642   2.380  0.4059 -0.4816 -0.2413
42464SOL    HW137322   1.825  12.702   2.440 -0.4940 -2.0413  0.7160
42464SOL    HW237323   1.955  12.628   2.420  1.3569  1.5172 -1.4180
42465SOL     OW37324   2.807   0.958  10.670 -0.0996 -0.4388  0.3353
42465SOL    HW137325   2.742   1.011  10.717 -1.0267 -0.8771 -0.4026
42465SOL    HW237326   2.766   0.872  10.663  0.3241 -0.5758 -0.6314
42466SOL     OW37327   5.581  12.130   4.771  0.5098  0.3529  0.0659
42466SOL    HW137328   5.531  12.121   4.689 -0.5736  1.0397  0.6346
42466SOL    HW237329   5.524  12.091   4.838  0.4699  1.6427  0.8134
42467SOL     OW37330  12.599   7.626  12.375  0.2239 -0.4990 -0.1345
42467SOL    HW137331  12.521   7.681  12.377 -0.3798 -1.3418  0.9984
42467SOL    HW237332  12.673   7.687  12.376 -0.4284  0.2951  0.1861
42468SOL     OW37333  13.091  11.028  12.144  0.5441 -0.4218 -0.5235
42468SOL    HW137334  13.026  10.981  12.196  0.4559 -3.0174 -2.7344
42468SOL    HW237335  13.054  11.114  12.130 -2.3707 -1.7073 -1.4724
42469SOL     OW37336   7.909   5.472   0.050  0.0051  0.7314 -0.3000
42469SOL    HW137337   7.918   5.544  -0.013  1.4653  0.5657 -0.2957
42469SOL    HW237338   7.918   5.393  -0.003  0.0479  0.5687 -0.0469
42470SOL     OW37339   2.828   8.865   8.892  0.0914  0.6042  0.1900
42470SOL    HW137340   2.883   8.787   8.883  0.4437  0.7290  1.1758
42470SOL    HW237341   2.744   8.839   8.854 -0.0782 -0.5633  1.3220
42471SOL     OW37342   8.030  12.269   3.150  0.5163  0.5919  0.1857
42471SOL    HW137343   8.109  12.227   3.115  1.7298  2.3094  0.7222
42471SOL    HW237344   7.979  12.197   3.186  2.7693 -0.4188  1.6358
42472SOL     OW37345   7.288   1.366  11.417  0.2474 -0.0479 -0.6255
42472SOL    HW137346   7.198   1.363  11.386 -0.2276 -1.4685  0.7507
42472SOL    HW237347   7.319   1.276  11.410  0.8783  0.0352  0.7840
42473SOL     OW37348   2.303   9.349   4.438 -0.4455 -0.6480 -0.0832
42473SOL    HW137349   2.345   9.306   4.364  0.0413 -1.0791  0.4371
42473SOL    HW237350   2.375   9.385   4.489 -0.7258 -1.0287  0.5959
42474SOL     OW37351  12.038  11.162   6.672  1.0233  0.5348 -0.2016
42474SOL    HW137352  12.025  11.119   6.588 -1.9831 -1.6769  1.2400
42474SOL    HW237353  12.133  11.160   6.685  1.2849 -2.7969 -1.7083
42475SOL     OW37354   1.493   2.478   4.654 -0.4080 -0.3899  0.3482
42475SOL    HW137355   1.588   2.477   4.646 -0.4279 -1.0588  0.0490
42475SOL    HW237356   1.472   2.394   4.696 -0.9511 -0.9135 -0.9172
42476SOL     OW37357  10.229   4.789   2.248  0.3713  0.2394 -0.3704
42476SOL    HW137358  10.295   4.795   2.318  1.8419 -2.6857 -1.3134
42476SOL    HW237359  10.178   4.711   2.270  2.4232 -2.3043 -3.5324
42477SOL     OW37360   7.905   5.660   2.836  0.1116 -0.7497 -0.2891
42477SOL    HW137361   7.873   5.658   2.926  1.3684 -1.6694  0.1580
42477SOL    HW237362   7.971   5.591   2.832  2.2632  1.2230 -1.0619
42478SOL     OW37363  12.465   9.098   3.701  0.6492 -0.2950 -0.1006
42478SOL    HW137364  12.377   9.075   3.732  1.1471 -0.5248  1.2388
42478SOL    HW237365  12.515   9.017   3.711  1.5885  0.4197  1.4879
42479SOL     OW37366  12.672   0.739   2.208  0.1358  0.1469  0.9329
42479SOL    HW137367  12.705   0.818   2.250  0.1959  0.3771  0.4623
42479SOL    HW237368  12.579   0.756   2.194  0.2993  0.4570  0.1373
42480SOL     OW37369  10.420  12.433   4.865 -0.1627  0.3720  0.2946
42480SOL    HW137370  10.369  12.510   4.891 -2.0125 -0.6313 -0.2122
42480SOL    HW237371  10.477  12.416   4.939 -1.5073  0.7729  1.4714
42481SOL     OW37372   4.444   7.365   4.176 -0.4551  0.1532  0.3310
42481SOL    HW137373   4.424   7.401   4.089 -1.3799 -0.9102  0.0865
42481SOL    HW237374   4.502   7.291   4.158 -0.1503  0.3056  0.6747
42482SOL     OW37375   5.942   4.829  10.315  0.0067 -0.8043 -0.9417
42482SOL    HW137376   5.852   4.805  10.294 -0.7027  0.3586  0.4996
42482SOL    HW237377   5.980   4.750  10.354 -1.6133 -0.3828  1.8088
42483SOL     OW37378  11.909   5.348   6.447 -0.1010 -0.0215  0.1836
42483SOL    HW137379  11.878   5.309   6.365 -0.9292  1.0212 -0.0201
42483SOL    HW237380  11.982   5.404   6.420  0.9894 -1.2594  0.4564
42484SOL     OW37381   1.832   1.422   8.493 -0.0910  0.2754  0.0766
42484SOL    HW137382   1.786   1.415   8.409 -0.3052  0.2434  0.1955
42484SOL    HW237383   1.802   1.346   8.543 -0.0593  0.3641  0.2295
42485SOL     OW37384   4.768   9.207   5.193 -0.4070 -0.6060  0.5048
42485SOL    HW137385   4.793   9.246   5.109  0.0004 -0.2366  0.7909
42485SOL    HW237386   4.813   9.261   5.258 -1.5961 -0.1954  1.0241
42486SOL     OW37387   6.690   2.816   4.836 -0.0999  0.0329  0.2667
42486SOL    HW137388   6.705   2.888   4.776 -1.4072 -1.0946 -1.5424
42486SOL    HW237389   6.658   2.745   4.781 -0.6374 -1.3414  2.2114
42487SOL     OW37390   3.799   3.668   1.042 -0.2393  0.1976  0.2026
42487SOL    HW137391   3.807   3.760   1.014 -0.0746  0.2658  0.4699
42487SOL    HW237392   3.709   3.661   1.075 -0.5455  0.0276 -0.6559
42488SOL     OW37393   5.682   7.561  10.295 -0.2632  0.3983 -0.0841
42488SOL    HW137394   5.669   7.508  10.374  1.3587 -0.5075 -0.3725
42488SOL    HW237395   5.688   7.651  10.327 -2.8835  0.4512  0.4351
42489SOL     OW37396  10.558   0.647   4.548 -0.2065  0.6903 -0.1150
42489SOL    HW137397  10.603   0.723   4.511  1.1551  1.0595  2.1443
42489SOL    HW237398  10.467   0.657   4.519  0.1096  2.7529 -0.5385
42490SOL     OW37399   5.349  11.785   4.282 -0.7746  0.4149  0.6432
42490SOL    HW137400   5.377  11.874   4.305  0.7574 -0.1358  1.0268
42490SOL    HW237401   5.414  11.728   4.324 -0.7891 -0.8277 -0.9292
42491SOL     OW37402   7.478  11.861  10.625  0.2327  0.1360 -0.1412
42491SOL    HW137403   7.545  11.805  10.663  0.5247  0.9511  0.5704
42491SOL    HW237404   7.511  11.950  10.635 -0.6951  0.5156 -0.2886
42492SOL     OW37405   5.048  11.331   1.354 -0.4987  0.1010  0.0342
42492SOL    HW137406   4.991  11.258   1.376  1.1061 -1.3825 -0.5424
42492SOL    HW237407   5.106  11.340   1.430 -0.6226  0.7352  0.0612
42493SOL     OW37408   9.252   1.804   8.180 -0.7861 -0.2862  0.3726
42493SOL    HW137409   9.210   1.721   8.159 -1.4788  0.0204  0.5064
42493SOL    HW237410   9.339   1.798   8.141 -1.7837  0.0005 -2.0798
42494SOL     OW37411   4.037   9.797   4.509  0.0422 -0.1768  0.1689
42494SOL    HW137412   4.043   9.747   4.590  2.6868 -1.3994 -0.6686
42494SOL    HW237413   4.004   9.734   4.444 -0.3476  0.2719 -0.0713
42495SOL     OW37414   1.258   4.387   3.452  0.4741  0.0488 -0.2730
42495SOL    HW137415   1.269   4.353   3.363  1.2127 -0.1642 -0.1073
42495SOL    HW237416   1.342   4.428   3.472  0.4189 -0.1892  0.4505
42496SOL     OW37417   4.609  10.759   1.186 -0.3535  0.0303 -0.6555
42496SOL    HW137418   4.690  10.809   1.199  0.0269 -0.9135  0.9238
42496SOL    HW237419   4.636  10.682   1.136  0.2917 -1.4583  1.7718
42497SOL     OW37420   7.405   3.407  11.027  0.2979  0.2090 -0.5311
42497SOL    HW137421   7.356   3.471  10.975  1.7884  1.0568 -0.9650
42497SOL    HW237422   7.371   3.418  11.116 -1.3806 -0.3522 -1.0854
42498SOL     OW37423   6.112   0.167   4.623  0.0533  0.8459  0.1462
42498SOL    HW137424   6.020   0.185   4.640  0.0355 -0.6874  2.1280
42498SOL    HW237425   6.112   0.087   4.571  0.2109 -0.4821  2.0669
42499SOL     OW37426   4.001   1.615   9.160 -0.3114 -0.0785 -0.2378
42499SOL    HW137427   4.092   1.589   9.175 -0.2104  0.7956  0.7434
42499SOL    HW237428   3.964   1.625   9.247 -1.5259 -0.9507 -0.6189
42500SOL     OW37429  11.288   0.797   3.894 -0.2796  0.4239  0.1520
42500SOL    HW137430  11.256   0.875   3.850 -1.4015 -0.2669 -0.2995
42500SOL    HW237431  11.261   0.808   3.985  0.5080  1.0426  0.3210
42501SOL     OW37432   3.827   0.838   7.164 -0.0187 -0.0645  0.2208
42501SOL    HW137433   3.825   0.789   7.083 -2.5614 -0.0054  0.1689
42501SOL    HW237434   3.804   0.928   7.139 -0.6726 -0.0114  0.9557
42502SOL     OW37435   7.041   0.456   9.857  0.2880 -0.5357  0.4441
42502SOL    HW137436   7.119   0.460   9.913  2.1081 -0.1374 -1.9699
42502SOL    HW237437   7.071   0.489   9.772 -3.0223  1.3863 -0.1074
42503SOL     OW37438  10.274  11.787   9.482 -0.4100 -0.0300  0.0834
42503SOL    HW137439  10.189  11.793   9.526 -1.0802  2.0392 -1.3346
42503SOL    HW237440  10.337  11.771   9.552 -1.6623  1.0385  1.5263
42504SOL     OW37441   8.323   8.207  12.767 -0.0381  0.1242  0.4638
42504SOL    HW137442   8.398   8.213  12.709  0.1249 -1.2206  0.5008
42504SOL    HW237443   8.329   8.284  12.823  0.7508  0.5476 -0.1930
42505SOL     OW37444   6.446  11.162   4.226 -0.1677  0.1148  0.0554
42505SOL    HW137445   6.409  11.142   4.140  1.7746  0.8857 -1.0254
42505SOL    HW237446   6.537  11.182   4.208 -0.0340  1.6412  2.1436
42506SOL     OW37447  10.691   3.847   3.029  0.5990 -0.0267 -0.1039
42506SOL    HW137448  10.690   3.780   3.097 -0.5023 -1.1587 -1.1848
42506SOL    HW237449  10.632   3.915   3.062  1.3293  0.2160  0.7678
42507SOL     OW37450  11.161  13.248   7.728  0.0898  0.1061 -0.1462
42507SOL    HW137451  11.130  13.296   7.806  0.0503  1.0312 -0.7149
42507SOL    HW237452  11.254  13.233   7.745 -0.0119 -0.0705  0.2646
42508SOL     OW37453  13.199   5.992  12.049 -0.0173  0.1898 -0.2327
42508SOL    HW137454  13.217   5.936  12.124 -1.1067  0.5978  0.3425
42508SOL    HW237455  13.198   6.081  12.084 -0.8902  0.3585 -0.6596
42509SOL     OW37456   1.110   5.719   1.282 -0.0365 -0.1421 -0.1280
42509SOL    HW137457   1.159   5.794   1.315 -0.3659  0.7561 -1.5961
42509SOL    HW237458   1.163   5.685   1.210  0.8693 -2.3084  1.4422
42510SOL     OW37459   8.327   8.512   8.104  0.1242  0.2757  0.4413
42510SOL    HW137460   8.346   8.574   8.175 -0.8992  0.0806  0.9085
42510SOL    HW237461   8.413   8.485   8.073  0.6195  2.3483 -0.1700
42511SOL     OW37462  10.145   6.014  11.755  0.0836 -0.1698  0.3826
42511SOL    HW137463  10.110   5.954  11.820 -1.3438  1.8141  1.5370
42511SOL    HW237464  10.224   6.050  11.795  0.2916 -0.3986  0.1807
42512SOL     OW37465  10.437   8.084   9.890 -0.4550  0.3410  0.4229
42512SOL    HW137466  10.434   8.179   9.903  0.9059  0.5777 -0.7417
42512SOL    HW237467  10.526   8.066   9.862 -0.8509 -1.2167  0.0379
42513SOL     OW37468   0.463   3.041  12.734 -0.1058 -0.1122 -0.3046
42513SOL    HW137469   0.454   2.970  12.798 -1.8360 -0.1261 -0.5137
42513SOL    HW237470   0.499   3.114  12.783 -4.5181  1.0245  1.7129
42514SOL     OW37471   8.382   7.580   8.349 -0.0760 -0.1258  0.5711
42514SOL    HW137472   8.317   7.604   8.282  1.0782 -1.3040 -1.0388
42514SOL    HW237473   8.440   7.656   8.354 -0.9672  0.5302  1.2939
42515SOL     OW37474   1.126   7.634  12.948 -0.1204  0.1318  0.3567
42515SOL    HW137475   1.179   7.607  13.024  1.3360 -5.3776 -2.0928
42515SOL    HW237476   1.190   7.666  12.885 -1.0419  2.4024  0.4897
42516SOL     OW37477   1.052   2.298   4.842 -1.1160 -0.1681  0.6863
42516SOL    HW137478   0.971   2.260   4.875 -1.0022 -1.2707 -0.2212
42516SOL    HW237479   1.027   2.339   4.759 -1.2082  1.6725  1.5882
42517SOL     OW37480   3.515   0.441   2.000 -0.6674  0.0544 -0.7413
42517SOL    HW137481   3.444   0.499   1.971 -0.1507  0.6289 -0.8668
42517SOL    HW237482   3.581   0.499   2.037 -0.4472 -0.5146 -0.2166
42518SOL     OW37483   7.545   6.774  10.780  0.4602  0.5755  1.0396
42518SOL    HW137484   7.459   6.790  10.740  0.8082  0.0727  0.0509
42518SOL    HW237485   7.548   6.833  10.855 -0.7699  0.5645  1.1192
42519SOL     OW37486   3.524   9.143   2.075  0.2866 -0.2064 -0.5546
42519SOL    HW137487   3.473   9.083   2.021  0.1031 -0.8018  0.2600
42519SOL    HW237488   3.459   9.187   2.131  0.4565  0.5039 -0.9073
42520SOL     OW37489   6.820  10.369   2.912  0.5428  0.4105  0.1458
42520SOL    HW137490   6.875  10.446   2.926  1.0708  0.1487 -0.4007
42520SOL    HW237491   6.779  10.353   2.997 -0.1501  1.7161  0.0797
42521SOL     OW37492   4.341  12.945  11.096  0.1480 -0.5909 -0.4923
42521SOL    HW137493   4.385  12.978  11.174 -0.3950  2.3087 -1.2942
42521SOL    HW237494   4.408  12.946  11.028  0.4954 -2.6543 -0.2393
42522SOL     OW37495   0.202  12.400   6.549  0.0696 -0.1984  0.2520
42522SOL    HW137496   0.240  12.317   6.575  1.5342  0.2796 -0.2905
42522SOL    HW237497   0.193  12.394   6.453 -2.6909 -0.8799  0.4727
42523SOL     OW37498   9.573   0.723   2.856 -0.4866 -0.6557 -0.1257
42523SOL    HW137499   9.497   0.762   2.813  0.5974  0.5061 -1.0715
42523SOL    HW237500   9.586   0.639   2.811 -0.3643 -0.2076 -0.9418
42524SOL     OW37501   6.366  11.613   6.802  0.4220 -0.3002  0.2294
42524SOL    HW137502   6.403  11.635   6.887 -0.1417 -0.4262  0.5155
42524SOL    HW237503   6.442  11.599   6.745  0.7988  0.1385  0.6170
42525SOL     OW37504   3.854  12.443   3.210 -0.2028  0.3993  0.3885
42525SOL    HW137505   3.812  12.388   3.275 -0.2007 -1.1130 -0.8214
42525SOL    HW237506   3.786  12.504   3.182 -0.2977  0.8410  1.5272
42526SOL     OW37507   4.872   4.119   1.023  0.3251  0.4167  0.0959
42526SOL    HW137508   4.800   4.173   0.991 -0.3672 -0.2930  0.4097
42526SOL    HW237509   4.930   4.180   1.067  1.1231  1.3676 -2.1395
42527SOL     OW37510   4.915   7.902  12.986 -0.1891 -0.0989  0.3240
42527SOL    HW137511   4.942   7.987  13.022  1.5065 -0.7514  0.6355
42527SOL    HW237512   4.872   7.925  12.903 -0.4444  1.1059  0.7559
42528SOL     OW37513  11.033   7.831  11.935  0.3708  0.4350 -0.0489
42528SOL    HW137514  11.103   7.809  11.996  1.0504  0.6808 -0.7219
42528SOL    HW237515  11.074   7.828  11.849  0.1222  2.6899 -0.3156
42529SOL     OW37516   4.923   4.307   1.742 -0.2249 -0.1518  0.5009
42529SOL    HW137517   4.987   4.307   1.813  0.7695 -2.9669 -0.2789
42529SOL    HW237518   4.931   4.394   1.703 -0.0631  1.0917  3.1152
42530SOL     OW37519   2.129   0.775   0.032  0.2710 -0.3382 -0.6028
42530SOL    HW137520   2.203   0.715   0.043  0.3896  0.1372  1.8441
42530SOL    HW237521   2.052   0.721   0.049  0.0940 -0.5796 -2.0519
42531SOL     OW37522   1.342   9.985  11.538  0.0811  0.0360 -0.2783
42531SOL    HW137523   1.265   9.935  11.512 -0.2028  0.1199  0.3859
42531SOL    HW237524   1.415   9.940  11.494 -0.3241 -0.1104 -0.8163
42532SOL     OW37525  13.194  11.871   5.045  0.2081  0.2134 -0.5400
42532SOL    HW137526  13.183  11.844   5.136  0.7588 -0.1453 -0.5728
42532SOL    HW237527  13.136  11.814   4.995  0.8736 -0.4796 -0.5400
42533SOL     OW37528   2.817  11.684  12.621 -0.4999 -0.4449 -0.1667
42533SOL    HW137529   2.781  11.674  12.533 -3.6416 -0.9736  1.0444
42533SOL    HW237530   2.871  11.763  12.615 -2.0804  0.6060 -2.1787
42534SOL     OW37531   8.758   8.884   7.827 -0.1444 -0.4489  0.0211
42534SOL    HW137532   8.783   8.827   7.901 -0.3875 -1.0459 -0.3540
42534SOL    HW237533   8.721   8.962   7.869 -0.4388 -0.8547  0.5338
42535SOL     OW37534  11.052   4.562   2.864  0.2605 -0.1374 -0.2162
42535SOL    HW137535  11.113   4.552   2.791 -0.1293 -1.0130 -0.4344
42535SOL    HW237536  11.082   4.498   2.929  0.9538  1.0218  0.6591
42536SOL     OW37537   2.971   6.784   2.720 -0.3761  0.4539  0.4343
42536SOL    HW137538   2.884   6.811   2.751 -0.4115  0.9822 -0.1106
42536SOL    HW237539   3.031   6.815   2.788 -0.6268 -0.1191  0.9306
42537SOL     OW37540   5.762   4.233  11.097  0.4386  0.1165  0.2048
42537SOL    HW137541   5.699   4.163  11.080  0.1135  0.7611 -1.4336
42537SOL    HW237542   5.738   4.266  11.184 -3.3139  2.0507 -1.3092
42538SOL     OW37543   4.584   9.905   7.178  0.1063  0.1923  0.3869
42538SOL    HW137544   4.521   9.898   7.250 -1.5631  0.9702 -0.9299
42538SOL    HW237545   4.651   9.965   7.211  0.9180 -1.6193  2.2807
42539SOL     OW37546  12.614   7.793   5.494 -0.2829  0.1417 -0.7899
42539SOL    HW137547  12.650   7.717   5.539  1.7205  1.1008 -0.6518
42539SOL    HW237548  12.595   7.762   5.406 -1.4494 -1.0000 -0.1731
42540SOL     OW37549   7.469  10.778  11.959 -0.0650 -0.0442  0.1823
42540SOL    HW137550   7.559  10.759  11.934  0.1924  0.0274  1.0447
42540SOL    HW237551   7.426  10.692  11.961  0.0313 -0.0981 -0.0068
42541SOL     OW37552   5.154   9.443   6.705  0.4615 -0.0575 -0.3768
42541SOL    HW137553   5.080   9.498   6.681  2.0338  1.9678 -0.8846
42541SOL    HW237554   5.188   9.482   6.785  2.6527  0.9093 -1.6748
42542SOL     OW37555   0.059   6.543  12.914 -0.4079  0.2731  0.4035
42542SOL    HW137556   0.079   6.550  12.821  0.6229  0.3950  0.6188
42542SOL    HW237557  -0.036   6.532  12.918 -0.2038 -2.6221 -0.7948
42543SOL     OW37558   1.115   6.847  11.583  0.0822 -0.3602 -0.2673
42543SOL    HW137559   1.046   6.903  11.618 -1.4169 -1.7851 -0.8604
42543SOL    HW237560   1.172   6.830  11.658  0.0579  1.1612  0.1365
42544SOL     OW37561   9.559   3.523   0.471 -0.8382 -0.9410 -0.0897
42544SOL    HW137562   9.507   3.514   0.551 -0.3149 -0.9764  0.2562
42544SOL    HW237563   9.506   3.483   0.403 -2.2785  1.0015 -0.1974
42545SOL     OW37564   9.783   4.286   3.235 -0.0454 -0.1357 -0.1198
42545SOL    HW137565   9.783   4.285   3.330 -0.0407 -1.7312 -0.1117
42545SOL    HW237566   9.714   4.225   3.210 -0.2000  0.4368 -1.1478
42546SOL     OW37567   5.508   3.211   2.184  0.5142 -0.4364  0.1175
42546SOL    HW137568   5.526   3.286   2.127  0.3363  1.3726  2.3225
42546SOL    HW237569   5.523   3.135   2.128 -0.2833  1.2018 -2.5262
42547SOL     OW37570   4.455   3.352   9.327  0.0067  0.4018  0.3952
42547SOL    HW137571   4.370   3.333   9.287  0.0082  1.2552 -0.0404
42547SOL    HW237572   4.437   3.424   9.388  0.4033  0.5600  0.3285
42548SOL     OW37573   9.726   2.647   3.464 -0.1259 -0.2039  0.0074
42548SOL    HW137574   9.770   2.691   3.391  1.3116 -1.6619 -0.0586
42548SOL    HW237575   9.746   2.555   3.451 -0.0090 -0.5177  2.1532
42549SOL     OW37576  10.717   7.575  10.381  0.5664  0.0865  0.1065
42549SOL    HW137577  10.637   7.600  10.335  0.2087 -0.6181  0.3264
42549SOL    HW237578  10.747   7.495  10.336  1.8746  1.0463 -0.8116
42550SOL     OW37579   8.375  12.400   7.363 -0.2520  0.0382  0.3422
42550SOL    HW137580   8.280  12.410   7.361 -0.2847 -0.2775  0.3105
42550SOL    HW237581   8.405  12.435   7.279 -0.2542  0.9861  0.7195
42551SOL     OW37582   9.465   1.437  11.266 -0.7821  0.3623 -0.1869
42551SOL    HW137583   9.511   1.365  11.310 -2.0857 -0.3310  0.0898
42551SOL    HW237584   9.452   1.503  11.334  0.3406  0.8393 -0.4192
42552SOL     OW37585   5.345   0.364   5.318  0.7103  0.0011  0.3250
42552SOL    HW137586   5.380   0.389   5.232  0.0795  0.5869  0.2260
42552SOL    HW237587   5.419   0.325   5.364  1.0889 -0.2035 -0.4407
42553SOL     OW37588   1.825   9.751   6.948  0.3737  0.2250 -0.0540
42553SOL    HW137589   1.884   9.685   6.985  1.1339  0.0754 -1.4644
42553SOL    HW237590   1.848   9.832   6.993  1.1977  0.0241 -0.0926
42554SOL     OW37591   6.469  11.639  12.530 -0.2036  0.0076  0.2431
42554SOL    HW137592   6.477  11.547  12.507 -0.6670 -0.0652  0.3631
42554SOL    HW237593   6.447  11.638  12.624 -0.3228  0.2325  0.2186
42555SOL     OW37594   9.145   3.724   7.459  0.0949  0.5383  0.3116
42555SOL    HW137595   9.156   3.730   7.554  0.8193  0.0537  0.2695
42555SOL    HW237596   9.212   3.782   7.424  0.6125 -0.1856  0.0827
42556SOL     OW37597   3.951   5.050   5.294  0.1826 -0.1086 -0.0553
42556SOL    HW137598   4.005   5.125   5.317  0.2509 -0.1705 -0.0115
42556SOL    HW237599   3.996   4.975   5.335 -0.7186  0.0248  1.2130
42557SOL     OW37600  10.012  13.300   1.123 -0.0325  0.3204  0.1167
42557SOL    HW137601   9.921  13.296   1.094 -0.5078 -2.1306  1.6367
42557SOL    HW237602  10.032  13.211   1.152  2.0080  1.3695  2.2941
42558SOL     OW37603   0.246   7.113  12.178  0.6496  0.0630  0.6997
42558SOL    HW137604   0.277   7.067  12.256  2.8654 -0.1416 -0.2408
42558SOL    HW237605   0.292   7.197  12.180  2.0177 -0.5970 -1.2149
42559SOL     OW37606  13.260   1.304   8.878  0.0202  0.2803  0.3057
42559SOL    HW137607  13.225   1.230   8.928  0.4165  0.9956  1.7099
42559SOL    HW237608  13.208   1.307   8.798 -0.3437 -1.1861  0.4610
42560SOL     OW37609   4.606  11.713   0.048 -0.4028  0.1934 -0.3104
42560SOL    HW137610   4.594  11.719  -0.047 -2.4532  0.8972 -0.0461
42560SOL    HW237611   4.542  11.774   0.084  0.6567  0.2744  1.5283
42561SOL     OW37612  11.225   7.884   3.981  0.2819  0.1846  0.4780
42561SOL    HW137613  11.247   7.791   3.993 -0.4665 -0.2205 -1.1072
42561SOL    HW237614  11.205   7.915   4.070  2.2326 -0.6865  1.2941
42562SOL     OW37615   5.983   6.339   1.560 -0.0992  0.4373  0.0438
42562SOL    HW137616   6.005   6.404   1.492  1.0574  1.3981  1.2708
42562SOL    HW237617   6.036   6.262   1.538 -0.0788  0.5782 -0.3998
42563SOL     OW37618   8.396   0.440   8.824 -0.0335 -0.1788 -0.2486
42563SOL    HW137619   8.432   0.370   8.771 -0.3764  0.3338 -1.1971
42563SOL    HW237620   8.310   0.409   8.851 -0.1308 -0.1746 -0.5570
42564SOL     OW37621   6.454   1.524  11.033 -0.6398  0.1797 -0.2401
42564SOL    HW137622   6.447   1.492  11.123 -1.1610  1.6435  0.2704
42564SOL    HW237623   6.484   1.615  11.042 -0.6022  0.3191 -1.5519
42565SOL     OW37624  12.480   7.784   2.172 -0.2028  0.0110 -0.6428
42565SOL    HW137625  12.479   7.777   2.268  1.6146  1.6965 -0.4465
42565SOL    HW237626  12.539   7.714   2.144 -0.0364  0.0817 -0.4712
42566SOL     OW37627  10.304   8.472   9.335 -0.0718 -0.0541  0.1728
42566SOL    HW137628  10.312   8.450   9.242 -1.1156  0.2932 -0.0084
42566SOL    HW237629  10.395   8.474   9.367  0.2518 -1.2238 -0.5848
42567SOL     OW37630   6.601   9.925   2.402  0.3857  0.1632 -0.8025
42567SOL    HW137631   6.517   9.970   2.394  0.0524 -0.4508 -0.8130
42567SOL    HW237632   6.663   9.981   2.355 -0.1396  0.2942 -1.3530
42568SOL     OW37633   6.661   3.216   9.727 -0.0506 -0.1120  0.9504
42568SOL    HW137634   6.717   3.141   9.708  0.6639  0.5567  0.3306
42568SOL    HW237635   6.574   3.190   9.697  0.9476  0.8345 -3.5334
42569SOL     OW37636   5.386   1.834  10.026 -0.2654  0.0973  0.3270
42569SOL    HW137637   5.346   1.763  10.076  1.7584  0.0831  2.0927
42569SOL    HW237638   5.321   1.857   9.959 -2.1963 -1.3848  1.5884
42570SOL     OW37639   1.981   8.123   9.895 -0.3282  0.2869  0.3355
42570SOL    HW137640   1.985   8.187   9.824 -1.9635  1.3829  1.1636
42570SOL    HW237641   2.067   8.127   9.936  0.7922 -0.6628 -1.7800
42571SOL     OW37642   8.741  12.177   8.348  0.3162 -0.5094 -0.1485
42571SOL    HW137643   8.647  12.159   8.343 -0.0283  1.4802 -2.7973
42571SOL    HW237644   8.749  12.245   8.415 -0.2948  0.0436 -0.6263
42572SOL     OW37645   2.839  12.967   8.423  0.0411  0.0862 -0.2998
42572SOL    HW137646   2.799  13.044   8.383 -0.3363 -0.0217 -0.1299
42572SOL    HW237647   2.894  12.931   8.354  1.0893  1.1245 -0.0518
42573SOL     OW37648   5.071   7.783   1.270  0.1680  0.4640 -0.6100
42573SOL    HW137649   5.095   7.694   1.295 -0.4578  0.2909 -0.6062
42573SOL    HW237650   5.034   7.775   1.182 -2.1596  0.3253  0.3099
42574SOL     OW37651  11.997   5.389   2.682 -0.1785 -0.0189 -0.7124
42574SOL    HW137652  12.063   5.398   2.614  0.1795 -0.0948 -0.3818
42574SOL    HW237653  11.973   5.296   2.680  0.3723 -0.1790 -0.2473
42575SOL     OW37654  11.844   3.046   5.429 -0.1831 -0.2334 -0.5076
42575SOL    HW137655  11.870   3.128   5.471  2.2184 -0.0132 -2.2508
42575SOL    HW237656  11.783   3.006   5.491 -0.2982  2.1600  1.0485
42576SOL     OW37657  12.340   7.279   9.887 -0.3233 -0.6294 -0.0979
42576SOL    HW137658  12.428   7.298   9.918 -0.5316 -0.4870  0.4246
42576SOL    HW237659  12.341   7.185   9.869  0.5066 -0.2949 -2.0165
42577SOL     OW37660   3.255   9.694   2.271 -0.2039  0.1955 -0.1195
42577SOL    HW137661   3.295   9.642   2.201 -2.3068 -0.2075 -1.0985
42577SOL    HW237662   3.221   9.629   2.333  2.4066  0.5454  1.8625
42578SOL     OW37663  13.252   3.736   1.826  0.5893  0.8093  0.0458
42578SOL    HW137664  13.174   3.763   1.874 -0.3803 -1.5861 -0.0543
42578SOL    HW237665  13.311   3.811   1.832 -1.7892  2.8043 -0.1003
42579SOL     OW37666   2.819   7.781   4.567  0.1238  0.2123 -0.2245
42579SOL    HW137667   2.885   7.837   4.607  2.0266 -0.4534 -2.2473
42579SOL    HW237668   2.785   7.832   4.493 -0.7334  0.0491  0.0402
42580SOL     OW37669   6.181   2.141   3.737 -0.2383  0.3380 -0.2439
42580SOL    HW137670   6.131   2.079   3.790 -0.2562  1.3211  0.9581
42580SOL    HW237671   6.268   2.142   3.777  0.7342 -1.2236 -2.2114
42581SOL     OW37672   5.924   6.355   4.447  0.2534  0.0958 -0.2508
42581SOL    HW137673   5.931   6.343   4.541 -1.2033 -1.5516 -0.2951
42581SOL    HW237674   5.925   6.266   4.411 -0.7694  0.6094 -1.6569
42582SOL     OW37675   4.956   8.599  10.506 -0.3936  0.2049 -0.4536
42582SOL    HW137676   4.956   8.610  10.411  1.4799 -0.5388 -0.5808
42582SOL    HW237677   4.869   8.567  10.527 -0.2504 -1.4697 -2.1834
42583SOL     OW37678   3.880   3.963  12.624 -0.0959  0.5121  0.4298
42583SOL    HW137679   3.970   3.982  12.651  1.0480  0.2335 -2.7550
42583SOL    HW237680   3.865   3.873  12.653  1.3179 -0.0412 -0.4217
42584SOL     OW37681  12.768   6.613   7.851 -0.0830 -0.5012 -1.0748
42584SOL    HW137682  12.697   6.598   7.914  0.0133  0.2426 -0.7787
42584SOL    HW237683  12.786   6.527   7.814 -0.0624 -0.9715 -0.0013
42585SOL     OW37684   4.470   4.544   2.679 -0.2863  0.5528  0.0904
42585SOL    HW137685   4.469   4.602   2.603  0.4839  1.3038  0.6342
42585SOL    HW237686   4.560   4.512   2.683 -0.7604 -0.9748 -0.3849
42586SOL     OW37687  10.087   3.536   5.093 -0.2552 -0.2022  0.3166
42586SOL    HW137688  10.073   3.535   4.998 -0.9713  0.8162  0.4029
42586SOL    HW237689  10.130   3.620   5.110  0.7198 -0.7828  0.7873
42587SOL     OW37690   1.887   5.280  10.857 -0.3544  0.0063 -0.1604
42587SOL    HW137691   1.938   5.199  10.849 -0.9722 -0.7515  2.5994
42587SOL    HW237692   1.914   5.333  10.782  3.7747 -0.7249  0.5762
42588SOL     OW37693   1.147  12.277   0.922  0.0276  0.2036  0.5134
42588SOL    HW137694   1.110  12.359   0.956 -0.5947  0.4208 -0.6324
42588SOL    HW237695   1.097  12.260   0.842  1.9243  0.1248 -0.7113
42589SOL     OW37696   3.158   7.415  10.869 -0.0042  0.1996  0.0116
42589SOL    HW137697   3.079   7.432  10.921 -1.0245 -1.1200 -1.0502
42589SOL    HW237698   3.147   7.326  10.837  1.9481 -0.0157 -0.1648
42590SOL     OW37699   8.056   4.027   2.151  0.1168 -0.7653 -0.5544
42590SOL    HW137700   8.055   3.962   2.081  0.7072 -1.3798 -0.0082
42590SOL    HW237701   8.122   3.994   2.213  1.0062  0.7664 -0.6512
42591SOL     OW37702   0.011   7.648   6.469 -0.0893 -0.6547  0.2754
42591SOL    HW137703   0.077   7.717   6.470 -0.3653 -0.3823 -0.1158
42591SOL    HW237704   0.061   7.568   6.452  0.0956 -0.3979 -0.4292
42592SOL     OW37705  11.502   9.904   4.974  0.4223 -0.1271 -0.0217
42592SOL    HW137706  11.452   9.840   4.922  1.2556 -1.6153  0.9299
42592SOL    HW237707  11.587   9.910   4.930 -0.3474  2.0399 -1.3638
42593SOL     OW37708  12.967   0.262  11.453  0.6784  0.2434  0.1746
42593SOL    HW137709  13.009   0.311  11.382  0.3576  3.1073  1.7952
42593SOL    HW237710  13.039   0.237  11.511  0.7194 -0.0576 -0.0063
42594SOL     OW37711   2.454   4.680   3.197  0.2447 -0.5154 -0.1195
42594SOL    HW137712   2.455   4.717   3.286  0.8110 -0.5235 -0.1202
42594SOL    HW237713   2.504   4.598   3.205  1.5628  0.1975 -0.7418
42595SOL     OW37714   8.828   7.809  13.201  0.0120  0.4411  0.1772
42595SOL    HW137715   8.792   7.819  13.289 -0.2094 -0.9803  0.2654
42595SOL    HW237716   8.824   7.715  13.183  0.6529  0.6289 -1.1017
42596SOL     OW37717   5.845   7.392   6.482 -0.2442  0.2877  0.1946
42596SOL    HW137718   5.896   7.330   6.430 -0.5438 -0.2579  0.5291
42596SOL    HW237719   5.816   7.341   6.558 -0.9879  0.6721  0.1843
42597SOL     OW37720   9.966  10.771   5.638 -0.3463 -0.2668 -0.2253
42597SOL    HW137721   9.962  10.677   5.623  1.1663 -0.5565  1.0218
42597SOL    HW237722   9.920  10.785   5.720  0.9544 -0.1736  0.5086
42598SOL     OW37723   3.534   4.717  12.921 -0.3978 -0.5279 -0.2184
42598SOL    HW137724   3.522   4.634  12.966 -0.9139  0.2740  1.1819
42598SOL    HW237725   3.626   4.716  12.893 -0.7974 -2.2249 -1.6836
42599SOL     OW37726  11.531   8.922  10.710 -0.0973  0.2590 -0.0365
42599SOL    HW137727  11.444   8.941  10.745  0.2014  0.4484  0.6267
42599SOL    HW237728  11.531   8.962  10.623 -0.6779  0.2394 -0.0496
42600SOL     OW37729   2.550   0.499   5.976  0.1007  0.2083 -0.2893
42600SOL    HW137730   2.520   0.576   5.929 -0.7880 -0.2251 -0.4558
42600SOL    HW237731   2.506   0.503   6.061 -0.9404 -0.7467 -0.7585
42601SOL     OW37732   4.620  10.385   1.735 -0.0252 -0.2807  0.6265
42601SOL    HW137733   4.653  10.428   1.656 -1.0596  1.6570  1.2006
42601SOL    HW237734   4.567  10.452   1.779 -0.5020 -1.7061  2.3285
42602SOL     OW37735   0.873   6.599   7.777 -0.1573  0.0958  0.1620
42602SOL    HW137736   0.885   6.514   7.818  0.6117 -0.4501 -1.1423
42602SOL    HW237737   0.891   6.584   7.684  0.7123  1.8253  0.0144
42603SOL     OW37738   5.580   8.998   7.556  0.1373  0.1272 -0.2914
42603SOL    HW137739   5.666   8.969   7.524 -0.7907 -1.1919 -1.7292
42603SOL    HW237740   5.530   8.918   7.568 -1.6583  0.9488 -1.8109
42604SOL     OW37741  10.227   0.172   9.963 -0.2347  0.2944  0.3163
42604SOL    HW137742  10.301   0.168   9.903 -1.0976  1.5814 -0.8709
42604SOL    HW237743  10.237   0.094  10.018  2.4702  0.8746  0.7784
42605SOL     OW37744   4.233   8.413   1.310 -0.0506 -0.0628  0.5580
42605SOL    HW137745   4.195   8.488   1.264  0.1978 -0.0652  0.3520
42605SOL    HW237746   4.256   8.447   1.397  1.1913  0.4214  0.0622
42606SOL     OW37747   5.219   4.805  13.151  0.3995 -0.2973 -0.4299
42606SOL    HW137748   5.213   4.832  13.059  0.9132 -1.3279 -0.7830
42606SOL    HW237749   5.286   4.736  13.151  0.1007 -0.5978  0.6505
42607SOL     OW37750   1.769  11.840   1.673 -0.1658 -0.1664  0.1282
42607SOL    HW137751   1.791  11.779   1.743 -0.9749 -0.4055  0.1899
42607SOL    HW237752   1.790  11.926   1.709  0.0810 -0.3363  0.3984
42608SOL     OW37753   3.146   8.446  11.444 -0.2872 -0.3055 -0.5749
42608SOL    HW137754   3.108   8.443  11.532  0.4690 -0.5282 -0.2509
42608SOL    HW237755   3.202   8.369  11.439  1.2850  0.7821 -0.4952
42609SOL     OW37756   5.541   7.539   1.219  0.1633  0.0208 -0.7071
42609SOL    HW137757   5.585   7.458   1.246  1.2944  0.6119 -0.6855
42609SOL    HW237758   5.611   7.604   1.218 -1.1013  1.5784  1.5938
42610SOL     OW37759  12.731  12.643   8.923  0.0112  0.1112  0.0060
42610SOL    HW137760  12.695  12.557   8.946  0.3506 -0.0903 -0.2110
42610SOL    HW237761  12.819  12.624   8.891 -0.2494  0.4450 -0.9209
42611SOL     OW37762   9.363   7.888   7.002 -0.0583 -0.2734 -0.2538
42611SOL    HW137763   9.301   7.867   7.072 -0.5446 -2.3743 -1.2135
42611SOL    HW237764   9.343   7.978   6.978 -0.9031 -0.0189  1.2672
42612SOL     OW37765   1.392   8.566   1.719 -0.1020 -0.3043 -0.1109
42612SOL    HW137766   1.340   8.609   1.651 -2.0198 -1.9906  0.1879
42612SOL    HW237767   1.481   8.598   1.705 -0.6810  0.4367 -2.5335
42613SOL     OW37768  12.897   4.676   0.524  0.1011 -0.5988  0.4643
42613SOL    HW137769  12.838   4.604   0.546  0.0375 -0.6830  0.0245
42613SOL    HW237770  12.849   4.727   0.459 -0.2406  0.3721  1.4449
42614SOL     OW37771  10.889   9.728   0.076  0.2862  0.1071 -0.2871
42614SOL    HW137772  10.855   9.817   0.069 -0.5860 -0.2565 -0.8505
42614SOL    HW237773  10.884   9.708   0.170  1.7577  1.1187  0.0322
42615SOL     OW37774   7.401   6.207   2.275 -0.2864  0.0305  0.4661
42615SOL    HW137775   7.389   6.296   2.308 -0.6169  0.4254 -0.6715
42615SOL    HW237776   7.312   6.170   2.271 -0.5314  0.7123 -1.8622
42616SOL     OW37777  12.651   6.728   3.619 -0.4986  0.1251  0.0684
42616SOL    HW137778  12.602   6.736   3.537  0.5472 -0.7257 -0.6641
42616SOL    HW237779  12.640   6.637   3.644  0.9764 -0.1839 -0.3063
42617SOL     OW37780   9.113   8.969  11.587  0.1308 -0.2712 -0.2320
42617SOL    HW137781   9.040   8.917  11.553  0.3529 -0.8245  0.1334
42617SOL    HW237782   9.189   8.938  11.537  0.4356 -0.9933  0.6576
42618SOL     OW37783   4.853   4.009   4.904  0.6716 -0.5828  0.7117
42618SOL    HW137784   4.910   3.962   4.965  0.8459 -1.4010 -0.0549
42618SOL    HW237785   4.768   3.966   4.911  1.0042 -1.5107 -0.4832
42619SOL     OW37786  13.214   9.284   2.908 -0.7867 -0.0062 -0.2724
42619SOL    HW137787  13.301   9.248   2.891 -1.5474 -1.4595 -1.2310
42619SOL    HW237788  13.204   9.355   2.845 -0.4045  0.0022 -0.3223
42620SOL     OW37789   7.292  11.416   8.145  0.0804 -0.0272 -0.0151
42620SOL    HW137790   7.214  11.423   8.091  0.3147 -0.5603 -0.4207
42620SOL    HW237791   7.261  11.372   8.225 -0.2192  0.5768  0.2129
42621SOL     OW37792  12.425   8.549   2.930  0.4013  0.2835 -0.1256
42621SOL    HW137793  12.465   8.542   2.843 -0.9407 -1.8875 -0.6345
42621SOL    HW237794  12.480   8.494   2.986  0.4972  0.6187  0.1132
42622SOL     OW37795   1.701   4.977   2.889  0.4647 -0.1575  0.4177
42622SOL    HW137796   1.764   5.049   2.880 -0.4534  0.4932 -1.1404
42622SOL    HW237797   1.756   4.899   2.900  1.4852  0.8510  3.6076
42623SOL     OW37798   7.397   6.613   3.139 -0.1577 -0.2660 -0.0607
42623SOL    HW137799   7.449   6.534   3.127 -1.1384 -0.9027 -0.1983
42623SOL    HW237800   7.310   6.582   3.166 -0.0236  0.8331  1.8859
42624SOL     OW37801   7.821   4.998  11.099  0.2788 -0.0682  0.3803
42624SOL    HW137802   7.802   5.054  11.174  0.0605 -0.4699  0.6274
42624SOL    HW237803   7.854   4.917  11.137  0.6111 -0.1061  0.0239
42625SOL     OW37804   2.703   9.721  12.693  0.3064 -0.1186  0.2699
42625SOL    HW137805   2.777   9.721  12.632  0.1732 -1.6119  0.0616
42625SOL    HW237806   2.628   9.747  12.639  0.3049 -0.7963 -0.0716
42626SOL     OW37807   0.328   4.070   4.552 -0.5351 -0.8042  0.3842
42626SOL    HW137808   0.370   4.156   4.560 -1.2866 -0.4915  1.1519
42626SOL    HW237809   0.351   4.040   4.464  1.8543 -0.9774  1.0076
42627SOL     OW37810   6.358   4.907  11.663 -0.1629  0.3135 -0.0482
42627SOL    HW137811   6.284   4.880  11.718 -0.7877  0.3321 -0.8591
42627SOL    HW237812   6.373   4.832  11.606 -0.8363  1.0443 -1.2086
42628SOL     OW37813   4.338  12.486   8.465  0.1438 -0.0793 -1.0458
42628SOL    HW137814   4.278  12.539   8.518  0.1875 -0.4007 -0.6663
42628SOL    HW237815   4.382  12.549   8.409  1.3812  0.5284  0.5221
42629SOL     OW37816  11.217   9.691  11.544  0.5573  0.0739 -0.4453
42629SOL    HW137817  11.301   9.708  11.587  0.7608  1.4712 -1.3323
42629SOL    HW237818  11.224   9.737  11.460 -1.4648  1.0413 -0.1297
42630SOL     OW37819   5.906   6.926   0.771  0.9890  0.1189  0.1830
42630SOL    HW137820   5.812   6.913   0.785  1.1272 -0.8895  0.2596
42630SOL    HW237821   5.913   6.969   0.686  0.5138 -0.8507 -0.3498
42631SOL     OW37822   3.104   6.374   8.338  0.0138  0.1678 -0.1121
42631SOL    HW137823   3.030   6.313   8.340 -0.2955  0.5008 -0.8645
42631SOL    HW237824   3.076   6.443   8.278  0.9887  0.2349 -0.5081
42632SOL     OW37825   9.640   1.781   2.996  0.4575  0.4322 -0.4321
42632SOL    HW137826   9.676   1.867   3.021  0.5531  0.7079 -1.4808
42632SOL    HW237827   9.695   1.753   2.923  0.7457 -0.7742  0.2305
42633SOL     OW37828   2.420  12.087   7.163 -0.0210 -0.1359  0.1008
42633SOL    HW137829   2.486  12.154   7.183  0.8336 -0.6543 -0.8901
42633SOL    HW237830   2.449  12.010   7.211 -0.0400 -0.2974 -0.1475
42634SOL     OW37831   0.169  11.463   5.639 -0.7497 -0.2577 -0.4506
42634SOL    HW137832   0.230  11.526   5.677 -0.9760 -0.2979 -0.0169
42634SOL    HW237833   0.170  11.389   5.699  0.0058 -0.9560 -1.2872
42635SOL     OW37834   4.790   6.290  10.131 -0.4342  0.3763  0.4580
42635SOL    HW137835   4.719   6.237  10.167 -0.2432  0.7914  1.4808
42635SOL    HW237836   4.757   6.380  10.135  0.0472  0.5484  0.7365
42636SOL     OW37837   8.792   1.806   0.865  0.2086  0.2873  0.2322
42636SOL    HW137838   8.758   1.756   0.939 -2.2257  1.5134  0.0477
42636SOL    HW237839   8.854   1.867   0.904 -0.2349  0.1922  1.1253
42637SOL     OW37840   9.259  12.233   2.654 -0.1230 -0.0268  0.1621
42637SOL    HW137841   9.258  12.287   2.575  2.0078  0.6921  0.5562
42637SOL    HW237842   9.290  12.147   2.625 -0.6865 -0.1766  0.0006
42638SOL     OW37843   6.619   4.029  10.455  0.0168 -0.5353  0.1456
42638SOL    HW137844   6.532   4.034  10.494 -0.2640 -3.1841  0.0028
42638SOL    HW237845   6.667   4.102  10.495 -2.2326  1.0058  0.1962
42639SOL     OW37846  10.477   6.415   7.493 -0.8306  0.1986  0.4481
42639SOL    HW137847  10.483   6.394   7.399 -1.4788  1.0525  0.2040
42639SOL    HW237848  10.466   6.330   7.535  0.5365 -0.3014 -0.1416
42640SOL     OW37849   0.781   3.089   4.624 -0.3144  0.0633  0.1185
42640SOL    HW137850   0.701   3.053   4.663 -0.2053 -2.0304 -1.3907
42640SOL    HW237851   0.764   3.090   4.530  1.4757 -0.7070 -0.2754
42641SOL     OW37852  11.524   2.575   3.343  0.3628 -0.3376  0.5516
42641SOL    HW137853  11.479   2.499   3.380 -1.8370  0.8951  0.6037
42641SOL    HW237854  11.510   2.644   3.407  1.1560  0.4542 -0.1111
42642SOL     OW37855   6.404  11.367   4.400  0.7296 -0.3629  0.1114
42642SOL    HW137856   6.395  11.306   4.326 -0.8419 -0.1134  0.0455
42642SOL    HW237857   6.479  11.422   4.377  1.7972 -1.8473 -0.1223
42643SOL     OW37858   0.556  12.255  10.090  0.1280 -0.3632 -0.5024
42643SOL    HW137859   0.485  12.248  10.027 -0.9139 -0.2463  0.6156
42643SOL    HW237860   0.536  12.332  10.142  0.7004 -0.7171  0.2807
42644SOL     OW37861   1.717   4.001   1.754  0.1676  0.5403 -0.5040
42644SOL    HW137862   1.680   3.936   1.814  2.3209  0.1990  0.5676
42644SOL    HW237863   1.702   3.964   1.667 -0.1252 -0.5851  0.0050
42645SOL     OW37864   6.833   2.219   0.911  0.4135  0.5267 -0.1118
42645SOL    HW137865   6.811   2.195   1.001  0.6678  0.4005 -0.0824
42645SOL    HW237866   6.898   2.289   0.919  1.5328 -0.4556 -0.1757
42646SOL     OW37867   2.851  11.782   4.743  0.1389 -0.1432  0.1578
42646SOL    HW137868   2.832  11.696   4.705  1.3716 -1.1455  1.6459
42646SOL    HW237869   2.942  11.798   4.719  0.0421  0.5406  0.2535
42647SOL     OW37870   4.930   4.756  10.145 -0.4780  0.4647 -0.3336
42647SOL    HW137871   4.844   4.723  10.170 -1.7784  1.9254 -2.5577
42647SOL    HW237872   4.917   4.850  10.132  0.5764  0.2806 -3.8199
42648SOL     OW37873   3.397   5.035  10.248 -0.3872 -0.1169  0.4076
42648SOL    HW137874   3.369   5.110  10.300 -1.4002  1.2407 -1.9068
42648SOL    HW237875   3.315   4.996  10.217  0.0574  1.0969 -2.6748
42649SOL     OW37876   6.249   1.342   9.157 -0.1570 -0.2080 -0.5525
42649SOL    HW137877   6.246   1.254   9.196  2.1928 -0.7318 -1.4301
42649SOL    HW237878   6.262   1.401   9.231  2.7040 -1.0467 -0.2932
42650SOL     OW37879   4.443   3.611   3.474 -0.2245 -0.2135  0.0397
42650SOL    HW137880   4.467   3.584   3.385 -1.8947 -1.3451 -0.1120
42650SOL    HW237881   4.492   3.551   3.531 -2.2129 -2.2479 -0.2543
42651SOL     OW37882   8.917   2.051   0.990 -0.1521 -0.1410  0.0660
42651SOL    HW137883   8.922   1.995   1.068 -1.2252 -0.0882  0.1878
42651SOL    HW237884   8.824   2.061   0.974  0.0528  0.1350 -1.0380
42652SOL     OW37885   8.120  11.403   6.512 -0.1428 -0.0291  0.7984
42652SOL    HW137886   8.108  11.421   6.419 -0.9613 -0.9131  0.7100
42652SOL    HW237887   8.213  11.415   6.528  0.1659 -0.7349 -0.3441
42653SOL     OW37888  11.898   2.628  10.697 -0.1176  0.4535  0.2690
42653SOL    HW137889  11.965   2.562  10.681 -0.6872 -0.5218  1.6974
42653SOL    HW237890  11.936   2.684  10.766 -0.4894  0.2933  0.6096
42654SOL     OW37891  12.044  12.376   5.531  0.4442 -0.3144  0.2722
42654SOL    HW137892  12.118  12.374   5.593  0.3237  3.0545  0.7087
42654SOL    HW237893  12.085  12.367   5.445  1.1405 -0.5797  0.6182
42655SOL     OW37894  12.834  11.230  12.589 -0.0191 -0.5924 -0.4364
42655SOL    HW137895  12.917  11.276  12.583 -0.0781 -0.4615 -0.2716
42655SOL    HW237896  12.835  11.189  12.675 -0.9518  1.0679  0.4340
42656SOL     OW37897   8.616  11.163   3.808 -0.0906  0.2458 -0.1921
42656SOL    HW137898   8.525  11.170   3.777  0.0850 -0.3514 -0.8676
42656SOL    HW237899   8.616  11.208   3.892 -1.0226  0.2350 -0.1757
42657SOL     OW37900  12.353   2.741   2.025  0.4075  0.1068  0.1822
42657SOL    HW137901  12.432   2.723   2.076  0.0233 -0.7247  0.5040
42657SOL    HW237902  12.381   2.805   1.959  2.3554 -2.9618 -2.2482
42658SOL     OW37903   0.888   6.575   5.667 -0.3055 -0.7533 -0.0875
42658SOL    HW137904   0.890   6.479   5.664 -1.1639 -0.8989  2.2715
42658SOL    HW237905   0.948   6.598   5.738  0.4989  0.5452 -1.1405
42659SOL     OW37906   5.438   8.002  11.696  0.5587 -0.2689 -0.0590
42659SOL    HW137907   5.355   7.965  11.665 -1.7664  2.0777  2.7687
42659SOL    HW237908   5.454   8.077  11.638 -0.7866  0.8172  0.9119
42660SOL     OW37909  11.740   1.867   3.116 -0.0588 -0.0770  0.4475
42660SOL    HW137910  11.794   1.819   3.053  0.7409  1.8370 -0.4092
42660SOL    HW237911  11.668   1.903   3.063  1.6897  3.2635  0.0135
42661SOL     OW37912   5.434   0.098  10.970  0.4451 -0.0833 -0.3076
42661SOL    HW137913   5.439   0.047  11.050  1.5075  2.0247  1.0478
42661SOL    HW237914   5.516   0.078  10.924  1.9037  1.8797  1.2511
42662SOL     OW37915   2.348   8.311   2.729  0.3890  0.3522  0.3216
42662SOL    HW137916   2.369   8.404   2.742 -2.4310  0.8791  1.7642
42662SOL    HW237917   2.263   8.312   2.684  1.0800 -1.5858 -1.1738
42663SOL     OW37918   0.817   8.051   9.616  0.3979  0.0729 -0.4016
42663SOL    HW137919   0.768   8.129   9.592 -0.3451 -0.1164  0.4519
42663SOL    HW237920   0.893   8.084   9.663  0.4388  0.3065 -0.6279
42664SOL     OW37921   9.494  12.806  11.823  0.0810  0.4629  0.2482
42664SOL    HW137922   9.512  12.869  11.893 -1.4567  2.2454 -0.8831
42664SOL    HW237923   9.427  12.847  11.769  0.7617 -1.1100 -1.9651
42665SOL     OW37924   7.135  10.859   9.622  0.1574 -0.4791  0.3833
42665SOL    HW137925   7.093  10.943   9.601  1.1485  0.3436  1.5051
42665SOL    HW237926   7.178  10.832   9.541 -1.1540 -0.5167 -0.3240
42666SOL     OW37927   1.656   5.072   0.960  0.7223 -0.4517  0.1899
42666SOL    HW137928   1.692   5.161   0.960 -0.4491  0.0413 -0.1818
42666SOL    HW237929   1.708   5.025   0.895  0.1617  0.4945 -0.9969
42667SOL     OW37930   8.718   0.716   2.576  0.2881 -0.2876 -0.0377
42667SOL    HW137931   8.809   0.690   2.564  1.2319  1.8040  1.8890
42667SOL    HW237932   8.695   0.686   2.664 -0.7481 -0.4180 -0.3385
42668SOL     OW37933  11.811   9.023  12.564  0.0950 -0.2989 -0.1196
42668SOL    HW137934  11.773   8.961  12.627  1.2479  0.4612  1.4053
42668SOL    HW237935  11.819   8.973  12.483 -2.1167 -1.1131  0.0707
42669SOL     OW37936  13.068   7.110  11.950  0.2357  0.1836 -0.4876
42669SOL    HW137937  13.106   7.122  11.863  1.3668 -0.4582 -0.1112
42669SOL    HW237938  13.144   7.093  12.006 -0.5833 -0.7460  0.3764
42670SOL     OW37939   1.873  10.230   6.018  0.2517 -0.0138 -0.5095
42670SOL    HW137940   1.941  10.184   6.068  0.2133 -0.5998 -0.9786
42670SOL    HW237941   1.870  10.183   5.935 -1.2934 -0.5055 -0.1928
42671SOL     OW37942   1.278   1.715   7.104  0.1317 -1.0720 -0.0503
42671SOL    HW137943   1.187   1.736   7.084 -0.2456 -1.8093  0.8309
42671SOL    HW237944   1.329   1.774   7.048 -0.8729  0.3354  0.4459
42672SOL     OW37945   5.872  12.683  10.554 -0.3887 -0.0566 -0.0557
42672SOL    HW137946   5.814  12.741  10.602 -2.2348 -1.0204 -1.0136
42672SOL    HW237947   5.829  12.598  10.558  2.7863 -1.8220  2.3755
42673SOL     OW37948  13.096   9.940   8.728 -0.0322  0.4669 -0.5770
42673SOL    HW137949  13.032   9.877   8.761  0.2531 -0.4175 -1.6490
42673SOL    HW237950  13.173   9.928   8.783 -0.7700  1.5544  0.7403
42674SOL     OW37951   9.674   7.306   1.676 -0.3871 -0.7516 -0.1485
42674SOL    HW137952   9.640   7.338   1.760 -0.0971  0.7692 -0.5919
42674SOL    HW237953   9.660   7.378   1.615 -2.0475 -2.3747 -1.8259
42675SOL     OW37954   5.454   8.668   2.849 -0.4216  0.1656 -0.0007
42675SOL    HW137955   5.442   8.574   2.863 -2.5582  0.5067  0.8469
42675SOL    HW237956   5.377   8.695   2.799 -0.5878  1.7007  0.9998
42676SOL     OW37957   0.397  10.559   0.706  0.6773 -0.4401 -0.1727
42676SOL    HW137958   0.318  10.512   0.682 -0.2115  0.5137  0.7959
42676SOL    HW237959   0.366  10.642   0.742  2.1008 -0.1591  0.4790
42677SOL     OW37960   1.920  10.872   6.321  0.3201  0.3204  0.2733
42677SOL    HW137961   1.931  10.958   6.281 -0.5527  0.2831 -0.0612
42677SOL    HW237962   1.928  10.810   6.248 -0.3895  0.2019  0.2872
42678SOL     OW37963  10.717   8.253   4.501  0.0425  0.2433  0.1084
42678SOL    HW137964  10.632   8.293   4.523  0.1839  0.2027  0.7451
42678SOL    HW237965  10.695   8.164   4.476 -0.4015  0.9756 -2.3578
42679SOL     OW37966   6.304   5.586  11.771 -0.1094 -0.4314 -0.2297
42679SOL    HW137967   6.303   5.492  11.789  0.1574 -0.6615 -1.3466
42679SOL    HW237968   6.382   5.618  11.816  0.6380 -1.0139 -1.0828
42680SOL     OW37969   7.002   7.131   6.727  0.4157  0.1793  0.6138
42680SOL    HW137970   6.947   7.123   6.650 -0.2364 -1.6971  1.2178
42680SOL    HW237971   7.081   7.175   6.696  0.1973 -0.5998 -1.1397
42681SOL     OW37972   5.236  12.719   7.052  0.2921 -0.3919  0.2369
42681SOL    HW137973   5.169  12.698   6.987  1.1660 -0.6734 -0.5924
42681SOL    HW237974   5.262  12.809   7.032  2.0589 -1.1707 -1.1915
42682SOL     OW37975   3.930   0.577  12.142  0.1561  0.5612  0.5786
42682SOL    HW137976   3.987   0.648  12.170 -1.3223  1.9935  0.1171
42682SOL    HW237977   3.985   0.498  12.146  1.0700  1.2391  3.8334
42683SOL     OW37978   7.602   1.966   4.838  0.0663 -0.5219 -0.1991
42683SOL    HW137979   7.552   1.895   4.799 -0.5922 -0.3993  0.4079
42683SOL    HW237980   7.673   1.982   4.776 -1.0735 -0.1924 -1.4742
42684SOL     OW37981  12.464   8.629   1.960  0.3865 -0.6702 -0.0663
42684SOL    HW137982  12.475   8.583   1.877  1.4228 -1.4090  0.4539
42684SOL    HW237983  12.481   8.562   2.027  2.0228  0.4475  0.7271
42685SOL     OW37984  10.622   5.866   2.278 -0.7643  0.0186 -0.1723
42685SOL    HW137985  10.689   5.801   2.297 -1.2790 -0.1153  1.3995
42685SOL    HW237986  10.578   5.834   2.199  0.2096 -0.5331 -0.4971
42686SOL     OW37987  11.537  10.914   7.305 -0.4557 -0.0714 -0.1973
42686SOL    HW137988  11.608  10.850   7.305 -0.6787 -0.4135 -2.2149
42686SOL    HW237989  11.464  10.867   7.263 -1.0142  1.0943 -0.5591
42687SOL     OW37990   2.069   2.494   6.272 -0.5547 -0.0302  0.3598
42687SOL    HW137991   1.977   2.473   6.255 -0.7379  0.9090  0.0855
42687SOL    HW237992   2.088   2.455   6.357 -1.0505 -0.6847  0.1769
42688SOL     OW37993   9.204   2.832   9.595 -0.0673  0.5658 -0.3060
42688SOL    HW137994   9.114   2.802   9.586 -0.8219  1.8777  2.0596
42688SOL    HW237995   9.246   2.807   9.513 -2.2442 -1.1733 -0.9716
42689SOL     OW37996   1.687   6.725   0.103  0.0817  0.5002 -0.0349
42689SOL    HW137997   1.610   6.674   0.128 -0.1020  0.3480 -0.8873
42689SOL    HW237998   1.679   6.806   0.153 -0.6327  0.4847 -0.1148
42690SOL     OW37999  13.294   5.519   4.346 -0.0165  0.0048  0.0967
42690SOL    HW138000  13.346   5.446   4.378 -0.7130 -0.5880 -0.0836
42690SOL    HW238001  13.239   5.544   4.420 -0.2557 -0.0944 -0.0474
42691SOL     OW38002   2.028   0.070   1.059 -0.4390  0.0167 -0.0857
42691SOL    HW138003   2.052  -0.021   1.076 -0.4345 -0.2112 -1.2493
42691SOL    HW238004   1.955   0.087   1.119 -0.6958 -0.8660 -0.1317
42692SOL     OW38005  10.949   8.810  12.969 -0.1416  0.0440 -0.6112
42692SOL    HW138006  11.014   8.801  12.899 -1.2136 -0.0208 -1.6363
42692SOL    HW238007  10.961   8.732  13.024  1.6484  0.7937  0.1174
42693SOL     OW38008  11.154  11.375  10.642 -0.4784  0.2056  0.0183
42693SOL    HW138009  11.100  11.434  10.695  1.6245  1.3574  1.0170
42693SOL    HW238010  11.177  11.425  10.564 -0.4921 -0.1220 -0.2018
42694SOL     OW38011   2.338   0.426   8.887 -0.1343  0.0694 -0.2104
42694SOL    HW138012   2.320   0.433   8.793 -0.3911 -2.2307 -0.3695
42694SOL    HW238013   2.253   0.411   8.928  0.0288  0.6413  0.3682
42695SOL     OW38014   6.420   9.685   3.157 -0.3953  0.6500 -0.1219
42695SOL    HW138015   6.337   9.706   3.114  0.0557  0.0112 -1.3481
42695SOL    HW238016   6.430   9.590   3.145  0.1700  0.6014  0.6383
42696SOL     OW38017   1.293  11.787   2.576 -0.0578  0.1184 -1.0228
42696SOL    HW138018   1.307  11.876   2.607 -0.6854  0.6477 -2.2070
42696SOL    HW238019   1.200  11.784   2.552 -0.0875 -0.9070 -0.8492
42697SOL     OW38020   1.630   9.758   6.778  0.1418 -0.6994  0.1190
42697SOL    HW138021   1.574   9.826   6.817  0.6982  0.2080 -0.6116
42697SOL    HW238022   1.711   9.762   6.829  0.2232 -0.7231 -0.0077
42698SOL     OW38023   8.752  12.330  11.188 -0.5898  0.5299 -0.1022
42698SOL    HW138024   8.682  12.394  11.184 -0.9582  0.1992  0.9073
42698SOL    HW238025   8.731  12.275  11.263  0.3231 -0.0704 -0.2657
42699SOL     OW38026   5.978   1.300  10.940 -0.2158  0.3263 -0.0709
42699SOL    HW138027   5.943   1.290  10.852  0.2317  1.2607 -0.3632
42699SOL    HW238028   6.053   1.358  10.930 -1.0987  1.7578  1.1301
42700SOL     OW38029  13.007  10.745  10.291 -0.4203  0.3138  0.5763
42700SOL    HW138030  12.923  10.718  10.329 -1.5126  2.0739 -0.4198
42700SOL    HW238031  13.022  10.833  10.327  1.8252 -0.5578  1.9420
42701SOL     OW38032   4.082   5.595   5.948 -0.6856 -0.0746 -0.4782
42701SOL    HW138033   4.110   5.678   5.909  0.6916  0.3402  1.2796
42701SOL    HW238034   4.107   5.529   5.883  2.3342  0.4980 -0.0626
42702SOL     OW38035  10.994   6.434   2.792  0.3427  0.3015 -0.0405
42702SOL    HW138036  11.005   6.524   2.761  0.2579  0.0104 -0.9301
42702SOL    HW238037  11.078   6.412   2.832  0.3865  0.7524  0.1226
42703SOL     OW38038   5.395   8.334   0.288 -0.9538  0.1905 -0.4462
42703SOL    HW138039   5.376   8.394   0.361  0.1636 -1.1932  1.0521
42703SOL    HW238040   5.486   8.351   0.266 -0.6136 -0.9300  0.0159
42704SOL     OW38041   8.365   9.387  12.225 -0.9588 -0.2947 -0.4089
42704SOL    HW138042   8.309   9.371  12.300  0.3409  0.2884  0.7177
42704SOL    HW238043   8.345   9.476  12.197 -1.2188 -0.4039 -0.5793
42705SOL     OW38044   5.709  10.232   4.129  0.4652 -0.0948  0.3832
42705SOL    HW138045   5.671  10.320   4.136  1.1558  0.4434 -1.8757
42705SOL    HW238046   5.801  10.247   4.107  0.8841 -1.4025  1.1058
42706SOL     OW38047   2.735   8.660   3.034 -0.3435 -0.0231  0.1792
42706SOL    HW138048   2.724   8.656   3.129  0.3912 -0.2210  0.2560
42706SOL    HW238049   2.827   8.682   3.020 -0.4560  0.0616 -0.4863
42707SOL     OW38050  12.773   1.040   5.123  0.2560 -0.2172 -0.2750
42707SOL    HW138051  12.738   1.071   5.039  0.9115  0.6359 -0.2505
42707SOL    HW238052  12.799   0.950   5.107 -0.1561 -0.2386 -0.8311
42708SOL     OW38053  11.614  10.009   1.257  0.2757 -0.2308 -0.6478
42708SOL    HW138054  11.587  10.081   1.200 -1.6168 -0.9395 -0.7164
42708SOL    HW238055  11.647  10.052   1.336  0.4183  0.7199 -1.2111
42709SOL     OW38056   9.859   0.002  11.533  0.1596 -0.0649 -0.0433
42709SOL    HW138057   9.888   0.037  11.617 -1.3485  0.2234  0.3854
42709SOL    HW238058   9.763   0.005  11.537  0.0529 -0.2188 -1.7055
42710SOL     OW38059  11.429   0.462   3.943 -0.1937  0.0922 -0.1755
42710SOL    HW138060  11.361   0.476   3.877 -0.2280  0.7244 -0.0087
42710SOL    HW238061  11.390   0.490   4.025  0.6203  1.5712 -0.2383
42711SOL     OW38062   8.133  10.780   1.246  0.8458 -0.3032  0.0148
42711SOL    HW138063   8.159  10.836   1.319  2.7805  0.8295 -1.4627
42711SOL    HW238064   8.119  10.694   1.286  4.3305 -0.3773  1.4606
42712SOL     OW38065   6.472   0.743  13.266 -0.7645 -0.3883 -0.0583
42712SOL    HW138066   6.415   0.770  13.194  0.8311  1.0562 -0.8392
42712SOL    HW238067   6.506   0.825  13.302  1.3395 -1.1815 -0.0898
42713SOL     OW38068   6.461  12.292   3.123  0.2855 -0.2357  0.0711
42713SOL    HW138069   6.398  12.349   3.167 -0.4341  1.0551 -2.4576
42713SOL    HW238070   6.530  12.351   3.094  0.5832 -0.9759 -0.7618
42714SOL     OW38071  10.412  10.660  10.210 -0.0088  0.1295  0.1171
42714SOL    HW138072  10.357  10.652  10.132  0.0433 -1.7953  0.2143
42714SOL    HW238073  10.352  10.644  10.283  0.3759 -0.5127  0.3067
42715SOL     OW38074  11.605   5.995   3.903  0.6424 -0.2559  0.3187
42715SOL    HW138075  11.552   5.917   3.887  0.2040  0.4241 -1.8925
42715SOL    HW238076  11.665   5.998   3.829  1.7841  0.6242  1.2446
42716SOL     OW38077   9.774  10.264   6.139 -0.2160 -0.1077 -0.8559
42716SOL    HW138078   9.783  10.261   6.044 -0.2954 -1.3030 -0.8371
42716SOL    HW238079   9.758  10.173   6.165  2.6142 -0.3135  0.5831
42717SOL     OW38080   6.203   8.144   2.780 -0.2961  0.3875  0.0559
42717SOL    HW138081   6.183   8.193   2.859 -1.6342  0.2521 -0.1805
42717SOL    HW238082   6.193   8.207   2.709 -0.9042  0.0705 -0.1497
42718SOL     OW38083   8.047   7.200  12.459  0.0070  0.1576 -0.6362
42718SOL    HW138084   7.978   7.165  12.516  0.8916 -0.3983  0.1169
42718SOL    HW238085   8.020   7.290  12.441 -1.0716 -0.1443 -0.6182
42719SOL     OW38086  11.149   5.007   5.004  0.0071 -0.3352 -1.2535
42719SOL    HW138087  11.103   4.943   4.948  1.5460 -0.1543 -2.8061
42719SOL    HW238088  11.156   5.085   4.950  1.2784 -0.0468 -0.7018
42720SOL     OW38089   4.887   3.126  12.195  0.7678 -0.0193  0.4510
42720SOL    HW138090   4.795   3.127  12.222  0.3478  0.9777 -0.8900
42720SOL    HW238091   4.907   3.033  12.185 -0.5296 -0.2388 -0.5102
42721SOL     OW38092   4.293   9.997   3.657 -0.1290  0.0638  0.4149
42721SOL    HW138093   4.346   9.998   3.737  1.3158 -2.1158 -0.4047
42721SOL    HW238094   4.275  10.089   3.638  1.2422  0.7328  2.1034
42722SOL     OW38095  10.075   3.132   5.528  0.7465  0.0837  0.9358
42722SOL    HW138096  10.096   3.186   5.605 -0.0113 -0.0916  1.2755
42722SOL    HW238097   9.980   3.136   5.521  0.8577  0.9422 -0.6255
42723SOL     OW38098   6.267   4.704   3.703  0.2673  0.7797 -0.1292
42723SOL    HW138099   6.336   4.644   3.673 -0.6903 -0.4861  0.1368
42723SOL    HW238100   6.204   4.648   3.748 -1.0720  1.8751 -0.5848
42724SOL     OW38101  12.763   3.511   9.284  0.0125 -0.1150 -0.1394
42724SOL    HW138102  12.769   3.574   9.356 -0.2089  0.5785 -0.7211
42724SOL    HW238103  12.669   3.500   9.270  0.0444 -0.7456  0.0961
42725SOL     OW38104   0.892  11.372  10.287  0.0124  0.0185  0.2574
42725SOL    HW138105   0.835  11.448  10.300 -0.8513 -0.2927 -1.4858
42725SOL    HW238106   0.836  11.307  10.244  0.7091 -1.6690  1.7432
42726SOL     OW38107  13.225   5.571   0.087  0.4772  0.2280 -0.2438
42726SOL    HW138108  13.214   5.665   0.101  0.9382 -0.0416  2.4722
42726SOL    HW238109  13.192   5.531   0.167  0.6874 -1.9246 -1.1660
42727SOL     OW38110  12.450   0.873   2.166 -0.0173  0.4271  0.1507
42727SOL    HW138111  12.475   0.947   2.220  2.7032 -0.3866  0.1696
42727SOL    HW238112  12.419   0.912   2.084  1.2408  1.6198  0.2022
42728SOL     OW38113   8.958   3.488   2.974 -0.2192 -0.2283  0.5110
42728SOL    HW138114   8.887   3.453   2.920  1.1319 -2.7698  0.2732
42728SOL    HW238115   9.031   3.429   2.960  0.7383 -0.0340  3.8518
42729SOL     OW38116   2.887   4.358   8.429 -0.2153  0.5992  0.1560
42729SOL    HW138117   2.802   4.353   8.471  0.1689  1.1937  1.0422
42729SOL    HW238118   2.935   4.424   8.480  0.9249 -0.0510 -0.0399
42730SOL     OW38119   1.221   1.187   1.115  0.0898 -0.0551 -0.3625
42730SOL    HW138120   1.246   1.097   1.134  2.1737  0.4824 -0.2352
42730SOL    HW238121   1.233   1.233   1.198  0.2910  0.5737 -0.7305
42731SOL     OW38122   4.630   1.898   1.424 -0.1130 -1.4337  0.2073
42731SOL    HW138123   4.670   1.894   1.337 -0.4021  0.2073 -0.0221
42731SOL    HW238124   4.554   1.840   1.418 -0.3389 -1.0453 -0.7551
42732SOL     OW38125   6.438   7.159  12.026 -0.1522  0.2698 -0.1594
42732SOL    HW138126   6.350   7.198  12.023 -0.5190 -0.3286  1.6538
42732SOL    HW238127   6.458   7.140  11.935 -2.7145 -1.3216 -0.5053
42733SOL     OW38128   3.563   7.525   2.380  0.2819  0.2830  0.1690
42733SOL    HW138129   3.646   7.545   2.337 -0.2341  2.3735  0.0329
42733SOL    HW238130   3.587   7.501   2.469  1.0280  1.2857  0.2566
42734SOL     OW38131   8.312  10.691   6.761  0.3238  0.5405  0.1363
42734SOL    HW138132   8.295  10.661   6.850  0.8352  0.8783  0.3563
42734SOL    HW238133   8.361  10.620   6.720 -0.8228 -0.0692 -0.2272
42735SOL     OW38134  12.848   4.833   9.171  0.4373  0.6595 -0.0833
42735SOL    HW138135  12.831   4.820   9.264  1.5800 -0.0822  0.0359
42735SOL    HW238136  12.895   4.755   9.144  1.0049  1.3186 -1.0519
42736SOL     OW38137   3.930  10.352  12.022  0.3635 -0.3298 -0.5062
42736SOL    HW138138   3.847  10.346  12.069 -0.2275 -0.6025 -1.5375
42736SOL    HW238139   3.973  10.268  12.040 -0.5600 -1.0902 -1.6738
42737SOL     OW38140  10.094   6.820   6.488 -0.2626 -0.3948 -0.6107
42737SOL    HW138141  10.123   6.796   6.400 -1.2815 -1.0558 -0.7751
42737SOL    HW238142  10.057   6.908   6.478 -1.1304 -0.7971 -1.0135
42738SOL     OW38143   4.952   0.567   0.349  0.0545 -0.7095  0.2421
42738SOL    HW138144   4.985   0.549   0.437  0.1923  1.8406  0.7910
42738SOL    HW238145   5.027   0.553   0.291  0.8884  0.6250  0.9487
42739SOL     OW38146   4.091   6.169   3.702  0.0184 -0.2755  0.0562
42739SOL    HW138147   4.165   6.224   3.727 -0.6785  0.5254  0.4121
42739SOL    HW238148   4.121   6.120   3.625  0.5485  0.8215 -0.4458
42740SOL     OW38149   7.770  10.424   1.385 -0.1274  0.5518  0.5066
42740SOL    HW138150   7.777  10.520   1.384 -0.8108  0.6379 -1.4644
42740SOL    HW238151   7.844  10.394   1.331  0.9289 -0.1503  2.2794
42741SOL     OW38152   4.936   0.538  11.772 -0.3745  0.1269  0.1410
42741SOL    HW138153   4.981   0.618  11.800 -0.0638  0.2011 -0.5400
42741SOL    HW238154   4.899   0.502  11.852 -0.5949  1.0049  0.4500
42742SOL     OW38155   0.367   1.569  11.407 -0.0690  0.1736 -0.1197
42742SOL    HW138156   0.417   1.517  11.469 -1.6781  0.3191  1.3573
42742SOL    HW238157   0.371   1.658  11.442  1.3666  0.8283 -1.7941
42743SOL     OW38158   0.063   9.649  13.215 -0.2115 -0.0703  0.6725
42743SOL    HW138159   0.002   9.681  13.282  1.9388  1.4035  2.0481
42743SOL    HW238160   0.128   9.599  13.265  2.3896  2.4423  0.0756
42744SOL     OW38161   8.525  13.002   9.533 -0.4719  0.3965  0.3038
42744SOL    HW138162   8.559  12.934   9.475 -0.8773 -0.5833  1.1738
42744SOL    HW238163   8.598  13.024   9.590 -0.4192  0.4975  0.1971
42745SOL     OW38164   2.418   8.972  12.274 -0.0238 -0.2179  0.3777
42745SOL    HW138165   2.491   9.011  12.321  0.7211  0.3226 -1.1567
42745SOL    HW238166   2.433   8.878  12.279  0.7624 -0.1105  0.1233
42746SOL     OW38167  10.782   1.708   3.786 -0.1362  0.0952 -0.0630
42746SOL    HW138168  10.854   1.757   3.747  0.5893  0.3529  1.5392
42746SOL    HW238169  10.758   1.643   3.719  0.9093  0.6491 -1.0065
42747SOL     OW38170  12.704   5.553   0.001  0.2293  0.5045 -0.3255
42747SOL    HW138171  12.761   5.476   0.004  0.2077  0.5123  0.5225
42747SOL    HW238172  12.728   5.597  -0.080  1.1785  0.3091 -0.1633
42748SOL     OW38173   1.632   2.810   5.830  0.0607  0.1214 -0.1901
42748SOL    HW138174   1.677   2.816   5.914  0.2361 -1.4364 -0.1410
42748SOL    HW238175   1.548   2.853   5.844  0.9513  1.8475  0.1150
42749SOL     OW38176  10.462   2.361   5.378 -0.3907  0.5181  0.4727
42749SOL    HW138177  10.449   2.455   5.366  0.3235  0.5960  0.2913
42749SOL    HW238178  10.557   2.349   5.377 -0.4253 -0.6717 -3.2817
42750SOL     OW38179  12.374  10.318   5.429  0.1383 -0.2874  0.3559
42750SOL    HW138180  12.398  10.231   5.460 -0.0063 -0.6541 -0.5220
42750SOL    HW238181  12.440  10.339   5.363  0.3706  0.4207  0.8101
42751SOL     OW38182   7.275   9.559   7.433 -0.0708 -0.3099 -0.0289
42751SOL    HW138183   7.253   9.487   7.491  0.1287 -0.5379 -0.2337
42751SOL    HW238184   7.214   9.629   7.457 -0.0839 -0.4510  0.3539
42752SOL     OW38185   2.213  12.815   0.360 -0.1117 -0.2141 -0.6044
42752SOL    HW138186   2.195  12.849   0.273  0.7222 -0.1293 -0.7549
42752SOL    HW238187   2.232  12.722   0.347 -0.2177 -0.2528 -0.4851
42753SOL     OW38188  12.035   0.938  12.038 -0.0020  0.2228  0.1616
42753SOL    HW138189  11.977   1.007  12.070  1.8219  2.1582 -0.4692
42753SOL    HW238190  12.017   0.933  11.944  0.5024  0.5052  0.0457
42754SOL     OW38191  11.965  11.053   7.847 -0.5864 -0.0884  0.6689
42754SOL    HW138192  11.994  11.082   7.760 -1.0233 -1.3574  0.0796
42754SOL    HW238193  12.024  11.097   7.907  0.7169 -0.3595 -0.3525
42755SOL     OW38194  11.797  11.562   5.023  0.1805 -0.4729  0.2014
42755SOL    HW138195  11.711  11.525   5.039 -0.3520  1.0031  0.9486
42755SOL    HW238196  11.855  11.516   5.083 -0.2776 -0.7474  0.4346
42756SOL     OW38197  12.272  11.906   9.071 -0.1518 -0.6440  0.0795
42756SOL    HW138198  12.281  11.811   9.083  1.1026 -0.5967 -0.3375
42756SOL    HW238199  12.353  11.942   9.108 -0.3763  0.2262 -0.2615
42757SOL     OW38200   1.743   4.045   0.053  0.2281 -0.2010  0.2900
42757SOL    HW138201   1.775   4.078   0.137 -2.6305 -1.5751  2.0651
42757SOL    HW238202   1.726   3.952   0.069  0.0132 -0.5884 -1.9706
42758SOL     OW38203   9.600  12.127   9.868 -0.2303  0.7091 -0.3828
42758SOL    HW138204   9.538  12.118   9.796 -1.4887  0.7752  0.6538
42758SOL    HW238205   9.573  12.060   9.931  0.6977  0.8047  0.1395
42759SOL     OW38206   9.857   7.448   7.983  0.2743  0.4284 -0.0122
42759SOL    HW138207   9.871   7.395   8.062  0.7960  0.3341 -0.1607
42759SOL    HW238208   9.936   7.434   7.931 -1.4405 -2.3271 -2.2045
42760SOL     OW38209  12.125   8.401  12.475  0.1854  0.8421  0.8666
42760SOL    HW138210  12.145   8.312  12.503  0.1460  0.0124 -1.5180
42760SOL    HW238211  12.202   8.428  12.425 -1.0208  0.9266 -1.0448
42761SOL     OW38212   8.626   5.860   0.672 -0.5988 -0.2975 -0.0342
42761SOL    HW138213   8.531   5.869   0.674 -0.4724  1.6530 -0.2571
42761SOL    HW238214   8.654   5.922   0.604  0.9489  0.7912  1.5086
42762SOL     OW38215   4.426   4.342   8.541  0.1068 -0.2894 -0.0763
42762SOL    HW138216   4.433   4.270   8.604  0.8039  0.6529  0.9830
42762SOL    HW238217   4.475   4.312   8.464  0.2963 -0.9908  0.3084
42763SOL     OW38218   2.725   8.696   3.572 -0.4672 -0.8909  0.3256
42763SOL    HW138219   2.642   8.713   3.528  0.4047 -0.8292 -1.3580
42763SOL    HW238220   2.701   8.643   3.648 -2.0440 -0.8064 -0.0747
42764SOL     OW38221   4.810   4.222   7.179  0.2568  0.1873 -0.1547
42764SOL    HW138222   4.804   4.302   7.231  2.1094 -0.8934  1.8358
42764SOL    HW238223   4.758   4.241   7.100  0.8006  3.3824  0.1481
42765SOL     OW38224   2.386  12.303   8.071 -0.4095  0.7013  0.0727
42765SOL    HW138225   2.315  12.239   8.062 -0.9330  1.5197 -2.1969
42765SOL    HW238226   2.351  12.368   8.133 -1.3562  0.6828 -0.4240
42766SOL     OW38227  12.915   3.913  12.990  0.5965  0.4211 -0.1273
42766SOL    HW138228  12.989   3.948  13.039 -0.0472  0.9247  0.5115
42766SOL    HW238229  12.885   3.985  12.935  0.7276  0.1452 -0.5665
42767SOL     OW38230  11.592   1.303   7.216  0.0326 -0.1683 -0.2540
42767SOL    HW138231  11.535   1.282   7.291 -0.3175  0.4202 -0.3461
42767SOL    HW238232  11.607   1.219   7.173 -0.3299 -0.4129  0.0844
42768SOL     OW38233  13.198   5.937   0.967  0.1477  0.5674  0.3123
42768SOL    HW138234  13.236   6.024   0.960 -1.1364  1.2338  1.2947
42768SOL    HW238235  13.106   5.952   0.987 -0.0288 -1.0185  0.8362
42769SOL     OW38236  13.100   9.229   2.252 -0.0218  0.4821  0.1977
42769SOL    HW138237  13.100   9.135   2.235  0.7889  0.6142 -0.5949
42769SOL    HW238238  13.159   9.266   2.186 -0.7276  1.6081  0.1630
42770SOL     OW38239   8.669  12.513   3.741 -0.3756 -0.2766 -0.5181
42770SOL    HW138240   8.694  12.605   3.729  1.6720 -0.6367  0.6452
42770SOL    HW238241   8.599  12.516   3.806  0.7032  0.3804  0.6571
42771SOL     OW38242   9.875   3.322   4.324  0.2911 -0.3019  0.3689
42771SOL    HW138243   9.942   3.360   4.267 -1.8205 -0.4835 -2.4987
42771SOL    HW238244   9.896   3.228   4.326  1.4949 -0.0309  1.5901
42772SOL     OW38245   0.857   3.131   9.671  0.2882 -0.1556  0.0773
42772SOL    HW138246   0.827   3.148   9.582  0.6790 -0.1129 -0.0490
42772SOL    HW238247   0.807   3.054   9.699  1.1208 -1.0015 -0.6742
42773SOL     OW38248   6.230   9.822   8.385 -0.3646  0.3736  0.5538
42773SOL    HW138249   6.143   9.840   8.352 -0.5099 -0.0193  0.7131
42773SOL    HW238250   6.223   9.735   8.426 -0.2436  0.9356  1.8000
42774SOL     OW38251   3.005   4.351   7.261  0.6770 -0.9795 -0.9483
42774SOL    HW138252   3.079   4.411   7.267  0.5533 -0.8910 -0.2282
42774SOL    HW238253   3.041   4.266   7.287  0.2343 -0.6783  0.7536
42775SOL     OW38254   1.815   2.839   6.484 -0.3309 -0.0263  0.0002
42775SOL    HW138255   1.889   2.815   6.428 -0.6425 -0.7425 -0.1119
42775SOL    HW238256   1.739   2.838   6.426 -0.7626 -1.4418  0.5540
42776SOL     OW38257   6.623   4.650  10.643  0.2059 -0.0697 -0.0918
42776SOL    HW138258   6.572   4.584  10.690  0.4748  0.9612  1.7531
42776SOL    HW238259   6.565   4.682  10.574 -0.5881 -0.8931  0.1774
42777SOL     OW38260   1.037  11.464   1.341 -0.6981  0.4490  0.3943
42777SOL    HW138261   1.049  11.485   1.248  0.2193  0.6301  0.5381
42777SOL    HW238262   1.006  11.373   1.341  1.5502 -0.3804 -0.0445
42778SOL     OW38263   3.654   6.775  11.850 -0.4647 -0.2933  0.2259
42778SOL    HW138264   3.589   6.841  11.876 -0.4885 -0.7913  1.5303
42778SOL    HW238265   3.703   6.757  11.930 -1.3349 -2.8250  0.2698
42779SOL     OW38266  12.647   0.294   4.319  0.3155  0.0530  0.0312
42779SOL    HW138267  12.738   0.274   4.339  0.5534  0.5369 -0.5308
42779SOL    HW238268  12.615   0.217   4.271  0.4213 -0.1278  0.2531
42780SOL     OW38269   6.351   6.425   6.648  0.1507 -0.3852 -0.2464
42780SOL    HW138270   6.426   6.366   6.636  1.1703  1.0721 -1.4398
42780SOL    HW238271   6.390   6.505   6.685 -0.9593  0.0925 -0.0863
42781SOL     OW38272   0.988  10.865   8.307  0.2762  0.1307 -0.1179
42781SOL    HW138273   1.026  10.941   8.350 -0.9426  0.9056 -0.3661
42781SOL    HW238274   0.991  10.885   8.214  1.6109 -0.9369 -0.3433
42782SOL     OW38275   1.888   2.076   8.535 -0.3098 -0.3176 -0.7506
42782SOL    HW138276   1.875   2.020   8.612  2.5707  0.9479  0.8176
42782SOL    HW238277   1.982   2.071   8.518 -0.7765 -0.0319 -3.8651
42783SOL     OW38278   6.992   7.792   2.228 -0.0277 -0.2886  0.1725
42783SOL    HW138279   7.056   7.742   2.178  1.4948  1.3658  0.3788
42783SOL    HW238280   7.044   7.841   2.292 -1.8327 -1.8290  3.0439
42784SOL     OW38281   8.350   6.988  12.385 -0.0561 -0.0314  1.2111
42784SOL    HW138282   8.342   7.027  12.472 -0.9685 -0.9124  1.5514
42784SOL    HW238283   8.329   6.895  12.399  0.5234 -0.3282  0.1783
42785SOL     OW38284   0.683   7.592  11.602  0.4891 -0.0867  0.0004
42785SOL    HW138285   0.739   7.623  11.531 -1.1473  1.2972 -0.7447
42785SOL    HW238286   0.626   7.526  11.562  0.9735 -0.8640  0.5545
42786SOL     OW38287   0.099   8.332   1.802 -0.7639  0.5905  0.3446
42786SOL    HW138288   0.027   8.395   1.795 -1.5444 -0.0957  1.7769
42786SOL    HW238289   0.063   8.260   1.854  1.0258  0.3286  1.2911
42787SOL     OW38290   8.161   4.809   3.426  0.1844 -0.1286 -0.4089
42787SOL    HW138291   8.086   4.799   3.367 -1.7415 -1.0497  2.0456
42787SOL    HW238292   8.174   4.721   3.463  0.7547  0.6001  1.1945
42788SOL     OW38293   8.495   8.036   9.729 -0.1376  0.0450  0.1566
42788SOL    HW138294   8.543   8.004   9.805 -0.8982 -0.0064  0.6237
42788SOL    HW238295   8.403   8.015   9.748 -0.1815 -1.5128 -1.5116
42789SOL     OW38296  10.763   5.396   5.864 -0.3589  0.1678  0.0628
42789SOL    HW138297  10.822   5.322   5.867 -1.5416 -0.7865  0.9599
42789SOL    HW238298  10.819   5.473   5.874  0.6906 -0.7130  1.1692
42790SOL     OW38299   5.468  10.422   8.672 -0.1726  0.4672 -0.0127
42790SOL    HW138300   5.407  10.441   8.601  1.1817  1.0990 -1.0456
42790SOL    HW238301   5.449  10.490   8.738 -0.1455  1.0794 -0.6211
42791SOL     OW38302   0.796  10.711  12.116  0.6397  0.0059 -0.1371
42791SOL    HW138303   0.742  10.784  12.086  0.3670  0.0114  0.3480
42791SOL    HW238304   0.869  10.753  12.162  1.1566  0.0033 -0.9339
42792SOL     OW38305   9.639   0.067  12.320 -0.1688  0.1601  0.1813
42792SOL    HW138306   9.720   0.038  12.278  0.3328  1.0537  0.5207
42792SOL    HW238307   9.660   0.151  12.360 -1.1773  0.2576  0.5538
42793SOL     OW38308  11.288   4.461  12.963 -0.4944  0.2792 -0.5152
42793SOL    HW138309  11.209   4.508  12.937 -0.8351  0.1047  0.1734
42793SOL    HW238310  11.268   4.427  13.050 -0.2186 -1.0325 -0.9386
42794SOL     OW38311   8.846  11.048   3.226 -0.2494  0.1802  0.2595
42794SOL    HW138312   8.861  10.974   3.286  0.6133  0.8660  0.9308
42794SOL    HW238313   8.751  11.052   3.216 -0.3703 -0.3997  1.0226
42795SOL     OW38314   6.616  12.167   0.169 -0.2867  0.5861  0.2579
42795SOL    HW138315   6.647  12.125   0.089 -0.1433  2.2015 -0.5899
42795SOL    HW238316   6.533  12.123   0.189  0.0022 -0.2848 -0.3968
42796SOL     OW38317   1.436   3.590  10.023  0.0789  0.3159  0.0140
42796SOL    HW138318   1.460   3.676  10.059 -0.8093  0.8026 -0.5346
42796SOL    HW238319   1.464   3.594   9.932  0.4585 -0.1624  0.1046
42797SOL     OW38320   6.279   8.252   5.458  0.0856 -0.3838 -0.2183
42797SOL    HW138321   6.295   8.330   5.404 -1.8630  1.7084  1.9852
42797SOL    HW238322   6.282   8.284   5.548 -1.4484 -2.7381  0.7582
42798SOL     OW38323   5.159   1.202  13.133  0.1348  0.1897 -0.1257
42798SOL    HW138324   5.064   1.188  13.131 -0.0335  1.0217  1.0643
42798SOL    HW238325   5.182   1.200  13.226  1.3178 -0.1351 -0.4032
42799SOL     OW38326  10.110   6.652  11.985  0.2582  0.1571  0.0355
42799SOL    HW138327  10.194   6.680  12.020 -0.0302  0.8019  0.2206
42799SOL    HW238328  10.045   6.689  12.045 -0.2724  1.7151 -1.4018
42800SOL     OW38329   1.295   4.889   8.887 -0.1367 -0.4614  0.6117
42800SOL    HW138330   1.345   4.899   8.806 -0.7752  1.3769  0.4101
42800SOL    HW238331   1.205   4.880   8.858 -0.3721  0.2373  1.1261
42801SOL     OW38332   4.519   1.201  11.430 -0.0103  0.4503 -0.3151
42801SOL    HW138333   4.429   1.171  11.414  0.0593 -0.1484  0.3334
42801SOL    HW238334   4.517   1.294  11.410 -0.7084  0.3857 -0.5918
42802SOL     OW38335   0.704  11.568   9.918  0.2850  0.1168 -0.2173
42802SOL    HW138336   0.797  11.562   9.939  0.4855 -0.8952 -1.2421
42802SOL    HW238337   0.694  11.654   9.876  0.6806  0.3682  0.1973
42803SOL     OW38338   1.706   3.005   5.371 -0.2964  0.6448  0.1239
42803SOL    HW138339   1.801   3.019   5.369 -0.3595  1.2245 -2.0337
42803SOL    HW238340   1.694   2.931   5.431  1.7299 -0.7518 -1.0442
42804SOL     OW38341   5.107   6.161   7.600  0.5946 -0.1163  0.5544
42804SOL    HW138342   5.117   6.174   7.694 -0.4372  1.2542  0.5030
42804SOL    HW238343   5.012   6.165   7.585  0.7343 -0.4369 -0.5302
42805SOL     OW38344   6.444   4.358   1.117  0.5080 -0.3258 -0.3193
42805SOL    HW138345   6.532   4.323   1.129 -0.7219 -3.7669 -0.2686
42805SOL    HW238346   6.424   4.343   1.024 -0.1518  0.0861 -0.2521
42806SOL     OW38347   5.807   1.889   3.045  0.5734  0.3366  0.2524
42806SOL    HW138348   5.855   1.827   3.100  2.1530  1.8677  0.7163
42806SOL    HW238349   5.744   1.931   3.104  0.2774 -0.0339  0.2012
42807SOL     OW38350   2.826   8.479  13.073 -0.2768  0.9599 -0.1385
42807SOL    HW138351   2.766   8.410  13.044 -2.7103  3.7895 -2.4442
42807SOL    HW238352   2.897   8.477  13.010  1.7609 -1.7165  1.9989
42808SOL     OW38353   5.417  10.542   1.999 -1.2153 -0.0080 -0.7252
42808SOL    HW138354   5.392  10.627   2.036 -1.1946 -0.3152  0.0211
42808SOL    HW238355   5.447  10.562   1.911 -1.1240  0.7734 -0.5284
42809SOL     OW38356   6.097   1.918   9.323 -0.1475  0.2858  0.0294
42809SOL    HW138357   6.122   1.840   9.273  1.7271  0.5702  0.4632
42809SOL    HW238358   6.055   1.882   9.402  1.8926 -0.4064  0.8737
42810SOL     OW38359   3.621   6.303   2.997 -0.0095 -0.2443 -0.4006
42810SOL    HW138360   3.631   6.219   3.041 -0.3062  0.4769  1.0818
42810SOL    HW238361   3.527   6.309   2.979 -0.0466 -0.0536 -0.1429
42811SOL     OW38362   9.743   9.637   8.544 -0.0852  0.0993  0.3765
42811SOL    HW138363   9.777   9.596   8.623 -0.2655 -0.1203  0.3423
42811SOL    HW238364   9.770   9.729   8.551  0.2098  0.0046  0.5162
42812SOL     OW38365   4.715  12.013   2.907  0.2207 -0.0508 -1.1333
42812SOL    HW138366   4.649  11.948   2.935  0.0291  0.6830  0.2136
42812SOL    HW238367   4.733  11.991   2.816  0.1346 -1.9890 -0.7306
42813SOL     OW38368   2.502   2.574  10.720 -0.2155 -0.0015 -0.3743
42813SOL    HW138369   2.544   2.488  10.713 -0.2860  0.0713 -1.9295
42813SOL    HW238370   2.567   2.635  10.684 -0.6499  0.4413 -0.4050
42814SOL     OW38371   8.525   3.050   7.347  0.2152 -0.1881 -0.4726
42814SOL    HW138372   8.464   3.033   7.419 -0.7049  1.4889 -0.8142
42814SOL    HW238373   8.534   2.965   7.303  0.7992 -1.2687  1.5689
42815SOL     OW38374   7.512   9.279   5.151 -0.1782 -0.2589  0.2631
42815SOL    HW138375   7.459   9.329   5.213  0.6939  0.7101  0.2481
42815SOL    HW238376   7.598   9.273   5.193  0.6083  0.9386 -1.1026
42816SOL     OW38377   5.967   2.487   8.183 -0.0286  0.3076 -0.3409
42816SOL    HW138378   6.017   2.413   8.218  1.7940  1.1193 -1.0870
42816SOL    HW238379   5.968   2.473   8.088 -1.5881  0.1546 -0.3551
42817SOL     OW38380   4.439   9.212  12.032  0.2652 -0.8572  0.0432
42817SOL    HW138381   4.411   9.125  12.004 -0.3212 -0.0669 -2.0763
42817SOL    HW238382   4.513   9.233  11.975 -0.6236  0.6402 -0.6257
42818SOL     OW38383   2.508   3.374   2.215 -0.3726  0.0849 -0.1555
42818SOL    HW138384   2.455   3.330   2.281  0.1222  1.8610  1.4964
42818SOL    HW238385   2.456   3.451   2.190 -1.3210 -1.3832 -3.1441
42819SOL     OW38386   1.069  10.819   1.669 -0.0503  0.0404 -0.5552
42819SOL    HW138387   1.085  10.758   1.741  0.4350 -0.2518 -0.9044
42819SOL    HW238388   1.026  10.766   1.601 -1.4160  0.5302 -0.1218
42820SOL     OW38389  10.801   6.716   6.706 -0.0599 -0.0524 -0.3864
42820SOL    HW138390  10.779   6.807   6.728  0.8225 -0.0285  0.4754
42820SOL    HW238391  10.776   6.666   6.783  2.0607 -0.1208  0.3339
42821SOL     OW38392   4.701   2.494   3.167  0.6940  0.2553 -0.7394
42821SOL    HW138393   4.692   2.533   3.254 -0.8079  2.7716 -1.9177
42821SOL    HW238394   4.612   2.492   3.132  1.3055 -0.3867 -2.3589
42822SOL     OW38395   9.279  11.132   0.305  0.0898 -0.2065  0.5488
42822SOL    HW138396   9.334  11.090   0.371 -0.6159  0.0783  1.3471
42822SOL    HW238397   9.311  11.222   0.301  1.1032 -0.6099 -0.5984
42823SOL     OW38398   5.791   1.294   2.064 -0.2851 -0.5147  0.2168
42823SOL    HW138399   5.830   1.213   2.032  0.9440  0.1684 -0.0843
42823SOL    HW238400   5.780   1.279   2.158  2.3119 -0.1625  0.6548
42824SOL     OW38401   8.334   8.445   7.404 -0.0665 -0.0150  0.0609
42824SOL    HW138402   8.415   8.401   7.429  0.9000  1.8549  0.3991
42824SOL    HW238403   8.286   8.457   7.486 -0.7512 -1.1627 -0.1449
42825SOL     OW38404  11.414  11.203   9.799  0.6882  0.0757 -0.1961
42825SOL    HW138405  11.348  11.160   9.744  1.4295 -0.2745 -0.8287
42825SOL    HW238406  11.364  11.238   9.873 -0.7385  2.5653 -2.1534
42826SOL     OW38407   1.030   7.146   2.667  0.4947 -0.0724 -0.5777
42826SOL    HW138408   1.074   7.232   2.666 -0.6419  0.7065  2.9535
42826SOL    HW238409   0.939   7.166   2.646  0.0436 -0.2237  1.1303
42827SOL     OW38410  12.770   6.989   4.613 -0.0298 -0.4222 -0.4528
42827SOL    HW138411  12.839   6.959   4.672  0.3997 -0.1881 -0.8272
42827SOL    HW238412  12.817   7.039   4.545 -0.6226  0.2283 -0.3957
42828SOL     OW38413   1.932   7.506   8.013 -0.5031  0.2236 -0.4828
42828SOL    HW138414   1.855   7.559   7.992 -1.4557 -0.2203  1.6100
42828SOL    HW238415   1.969   7.546   8.091  0.4089 -0.5626 -0.4824
42829SOL     OW38416   6.639   8.511   0.457 -0.1726 -0.2486  0.8418
42829SOL    HW138417   6.727   8.536   0.483 -0.4303 -0.9872  2.5769
42829SOL    HW238418   6.583   8.584   0.484 -0.1333  0.0854  0.0278
42830SOL     OW38419   6.514   8.704  10.384 -0.1053 -0.0524 -0.3219
42830SOL    HW138420   6.562   8.667  10.310  0.5540 -1.4372  0.7434
42830SOL    HW238421   6.508   8.632  10.447 -2.6479  0.3920  0.0574
42831SOL     OW38422  10.804  10.335  11.665  0.7290  0.5462  0.3774
42831SOL    HW138423  10.791  10.258  11.720  0.4791  0.0288 -0.3834
42831SOL    HW238424  10.716  10.368  11.649  0.6956  0.0350 -0.6064
42832SOL     OW38425  12.281   8.127   7.756  0.5250 -0.1794 -0.6551
42832SOL    HW138426  12.275   8.119   7.661 -1.7543 -0.2693 -0.5699
42832SOL    HW238427  12.225   8.057   7.789 -0.7284  1.3609  0.6739
42833SOL     OW38428   0.818  10.372   3.875 -0.2300 -0.1326  0.0338
42833SOL    HW138429   0.821  10.440   3.942 -0.4267  0.6795 -0.7595
42833SOL    HW238430   0.833  10.291   3.922  1.6933  0.6093  0.7876
42834SOL     OW38431   8.379   6.313   4.783  0.3214 -1.0231 -0.1153
42834SOL    HW138432   8.433   6.361   4.845 -0.3172  1.0542 -1.0780
42834SOL    HW238433   8.289   6.342   4.802  0.0585 -0.7516 -1.6250
42835SOL     OW38434   3.014   2.862   1.576 -0.0261 -0.2677  0.0979
42835SOL    HW138435   3.069   2.801   1.626  0.4784  0.1052  0.0048
42835SOL    HW238436   3.055   2.947   1.588 -1.3662  0.2698  1.1674
42836SOL     OW38437  11.311   1.240  10.652 -0.1495 -0.0724 -0.1478
42836SOL    HW138438  11.367   1.175  10.695  1.0568  2.1709  1.9092
42836SOL    HW238439  11.228   1.235  10.700 -0.2753 -0.4505 -0.3908
42837SOL     OW38440  10.501  11.983   9.555  0.2439  0.0985 -0.0850
42837SOL    HW138441  10.562  11.922   9.513 -1.6130 -1.8787 -0.0938
42837SOL    HW238442  10.414  11.949   9.533 -0.9586  3.2726 -0.7988
42838SOL     OW38443   6.433   3.721   1.287  0.5056  0.4872  0.3907
42838SOL    HW138444   6.478   3.639   1.305  0.1037  0.4065  1.0793
42838SOL    HW238445   6.426   3.764   1.373  1.3925  1.6025 -0.0670
42839SOL     OW38446   3.235   3.010   6.754  0.2669 -0.2507  0.0647
42839SOL    HW138447   3.142   3.023   6.775 -0.1412 -0.1876 -1.5803
42839SOL    HW238448   3.237   2.926   6.708  0.5938  0.8840 -2.1241
42840SOL     OW38449   0.595  10.975   6.648  0.5186 -0.5966  0.3735
42840SOL    HW138450   0.564  10.938   6.730  1.0651 -2.6996 -0.3009
42840SOL    HW238451   0.516  11.010   6.606 -0.2978 -2.3225  0.4235
42841SOL     OW38452   0.922   0.388   6.017 -0.1805 -0.5841 -0.3167
42841SOL    HW138453   0.831   0.358   6.020 -0.3116 -0.5695 -2.3804
42841SOL    HW238454   0.915   0.481   5.993  0.3646 -0.6149 -0.6094
42842SOL     OW38455   8.205   9.733   9.654  0.0486  0.5278 -0.1955
42842SOL    HW138456   8.135   9.761   9.714  0.6901  1.0832  0.3033
42842SOL    HW238457   8.169   9.656   9.610 -0.6030  0.3751  0.5796
42843SOL     OW38458  10.544  12.355   4.454  0.0982 -0.1021 -0.0987
42843SOL    HW138459  10.528  12.291   4.385  0.1296 -1.8404  1.4382
42843SOL    HW238460  10.457  12.386   4.479 -0.3080 -2.3817  1.6632
42844SOL     OW38461   4.285   0.746   3.591  0.7551  0.2386 -0.0653
42844SOL    HW138462   4.369   0.712   3.621  1.7121  1.7576 -0.8744
42844SOL    HW238463   4.284   0.838   3.620 -1.1985 -0.0521  1.0253
42845SOL     OW38464  12.773   6.355   7.007  0.4688  0.1409  0.1151
42845SOL    HW138465  12.762   6.260   7.011 -3.8734  0.4298 -0.1889
42845SOL    HW238466  12.768   6.383   7.099  0.2370  0.1759  0.0919
42846SOL     OW38467   9.019  11.833   1.295 -0.5352 -0.4292 -0.5645
42846SOL    HW138468   9.032  11.912   1.347 -0.5241  0.0387 -1.2529
42846SOL    HW238469   8.972  11.864   1.217  0.9891 -0.7719 -1.6807
42847SOL     OW38470  11.106  11.712   2.289  0.5060  0.0360  0.4724
42847SOL    HW138471  11.040  11.647   2.311  0.6421 -0.9347 -1.6843
42847SOL    HW238472  11.086  11.787   2.343 -0.4165 -1.3577  2.1505
42848SOL     OW38473   7.362  11.174  13.078 -0.0001  0.2279 -0.1434
42848SOL    HW138474   7.335  11.093  13.036  0.0969 -0.5257  1.1902
42848SOL    HW238475   7.452  11.157  13.108  0.6854  1.4461 -1.3709
42849SOL     OW38476  12.642   8.528  12.985 -0.3106  0.0028  0.1585
42849SOL    HW138477  12.679   8.611  13.014 -0.4684 -0.2523  1.1383
42849SOL    HW238478  12.582   8.551  12.914  0.1226  0.6477 -0.0020
42850SOL     OW38479  11.055   4.032   3.015  0.5067  0.0882 -0.1412
42850SOL    HW138480  11.025   4.038   3.105 -2.4707  2.6863 -1.1417
42850SOL    HW238481  10.994   3.971   2.973  0.1552  0.9590 -0.9410
42851SOL     OW38482  12.146  11.552  11.523 -0.8325  0.4002  0.0424
42851SOL    HW138483  12.230  11.597  11.531 -1.1172  1.1047 -0.7550
42851SOL    HW238484  12.129  11.516  11.610  0.4346 -0.0189  0.1369
42852SOL     OW38485   8.396  11.937   0.923  0.2855 -0.2302  0.1070
42852SOL    HW138486   8.456  11.992   0.872 -1.0554 -0.0929 -1.4033
42852SOL    HW238487   8.438  11.929   1.009  1.9321  0.7226 -0.5629
42853SOL     OW38488   3.499   1.998  12.982 -0.7061  0.2981  0.1323
42853SOL    HW138489   3.423   2.041  13.021 -1.4937 -1.1694  0.2926
42853SOL    HW238490   3.462   1.940  12.915  0.3476  0.1788 -0.3642
42854SOL     OW38491   1.601  10.550   8.866  0.6930 -0.0500  0.6444
42854SOL    HW138492   1.520  10.507   8.893  0.2963 -0.2401 -0.7494
42854SOL    HW238493   1.583  10.643   8.873  0.1331 -0.0824 -0.2168
42855SOL     OW38494  12.040   9.763   7.628 -0.2869 -0.5112  0.1112
42855SOL    HW138495  12.099   9.695   7.593  1.7467  1.3948 -0.3748
42855SOL    HW238496  12.089   9.803   7.699 -1.5560  0.3092  0.5461
42856SOL     OW38497   3.491   0.446  12.863  0.6614  0.1675  0.2835
42856SOL    HW138498   3.489   0.433  12.768  0.8595  2.4321 -0.0961
42856SOL    HW238499   3.421   0.390  12.896 -1.4476  1.5190 -1.5587
42857SOL     OW38500   2.669   5.104   7.397  0.0130 -0.3866  0.2088
42857SOL    HW138501   2.606   5.068   7.459  1.7381 -0.3123  2.0917
42857SOL    HW238502   2.618   5.163   7.342 -1.2209  1.4396  3.1080
42858SOL     OW38503  11.074   9.714   5.720  0.6308 -0.0763  0.5423
42858SOL    HW138504  11.062   9.801   5.759  2.0166  0.8930 -1.0234
42858SOL    HW238505  11.008   9.709   5.651  1.6217  0.5028 -0.4984
42859SOL     OW38506   3.269   3.612   1.778  0.2219 -0.0989  0.0524
42859SOL    HW138507   3.351   3.618   1.827  1.8609 -1.9000 -2.2371
42859SOL    HW238508   3.205   3.579   1.842  0.7249  2.8832  2.3240
42860SOL     OW38509  12.013   7.126   0.391 -0.4882  0.0127 -0.6503
42860SOL    HW138510  11.923   7.159   0.379 -0.4125  0.7926  0.7357
42860SOL    HW238511  12.012   7.085   0.478  0.1776 -1.1279 -1.1616
42861SOL     OW38512   0.366   4.924   6.451  0.0533  0.2721 -0.7197
42861SOL    HW138513   0.416   4.929   6.533 -0.2877 -1.2831 -0.3802
42861SOL    HW238514   0.412   4.859   6.399 -3.2484 -3.8827  0.9566
42862SOL     OW38515   5.444   2.296   4.292 -0.1464  0.4225  0.2062
42862SOL    HW138516   5.377   2.364   4.295 -0.2467  0.3223  0.3104
42862SOL    HW238517   5.505   2.319   4.362 -0.7779 -0.1926  0.9947
42863SOL     OW38518   9.414   1.773  10.912  0.4291 -0.2543  0.4417
42863SOL    HW138519   9.351   1.834  10.951  1.7382  1.3558  0.1513
42863SOL    HW238520   9.399   1.690  10.958 -0.9529  0.4546  1.3257
42864SOL     OW38521   2.182   8.583   9.978 -0.4050  0.1377 -0.3317
42864SOL    HW138522   2.119   8.655   9.983 -1.0567 -0.2921 -1.8741
42864SOL    HW238523   2.132   8.505  10.004 -0.1425 -0.0071 -0.2565
42865SOL     OW38524   5.396  11.273   4.514  0.1340  0.0780  0.2791
42865SOL    HW138525   5.490  11.266   4.533  0.2868  1.0412 -0.1062
42865SOL    HW238526   5.375  11.365   4.528 -0.1987  0.4155 -2.0940
42866SOL     OW38527   4.198   0.742   7.998 -0.3281  0.2419  0.4863
42866SOL    HW138528   4.147   0.816   7.965 -1.5389 -0.4299  0.7894
42866SOL    HW238529   4.229   0.771   8.084  0.3848  0.8964  0.0268
42867SOL     OW38530   4.557  11.975   8.201 -0.1650 -0.5151  0.0019
42867SOL    HW138531   4.579  12.006   8.288  0.3836 -0.8031 -0.0268
42867SOL    HW238532   4.601  11.889   8.194 -0.5632 -0.6927 -0.3907
42868SOL     OW38533   2.791  11.777   1.226  0.3490  0.0873 -0.3419
42868SOL    HW138534   2.811  11.685   1.243  0.2778  0.3577  1.3133
42868SOL    HW238535   2.876  11.819   1.216  0.5709  0.4620  2.4841
42869SOL     OW38536   3.937   4.174  12.246 -0.7459  0.2800 -0.6430
42869SOL    HW138537   3.846   4.203  12.238 -1.0292 -0.7673 -1.5076
42869SOL    HW238538   3.944   4.102  12.183  0.7514  0.5070 -0.7557
42870SOL     OW38539   0.972   4.658  11.801 -0.0215  0.1074  0.4075
42870SOL    HW138540   1.063   4.632  11.787  0.5116  1.2391  1.5443
42870SOL    HW238541   0.938   4.675  11.713  0.3615 -1.8385 -0.1553
42871SOL     OW38542   6.995  10.269   2.445 -0.1360 -0.2108 -0.2457
42871SOL    HW138543   7.076  10.289   2.492 -1.0198  0.0931  1.2476
42871SOL    HW238544   6.967  10.185   2.481 -0.3393 -0.4443 -0.9441
42872SOL     OW38545  12.871   0.371   6.551 -0.0222 -0.0853 -0.2573
42872SOL    HW138546  12.804   0.316   6.591  0.1261 -1.2404 -1.4932
42872SOL    HW238547  12.946   0.366   6.610 -1.0431  1.3672  1.2299
42873SOL     OW38548   4.868   9.945   8.343 -0.2664 -0.3879 -0.1757
42873SOL    HW138549   4.802   9.961   8.275 -2.7463  1.6342  2.4460
42873SOL    HW238550   4.951   9.962   8.299 -1.6485 -0.0366 -2.9140
42874SOL     OW38551   9.264   3.907  12.407 -0.1709 -0.1781  0.2404
42874SOL    HW138552   9.248   3.913  12.313 -0.2655  3.6032  0.3512
42874SOL    HW238553   9.351   3.946  12.419 -0.4446  0.0117  1.7756
42875SOL     OW38554   1.913  10.066   1.550 -0.3477  0.0437 -0.3707
42875SOL    HW138555   1.916  10.019   1.634 -0.3436  0.5925 -0.0580
42875SOL    HW238556   1.821  10.087   1.538 -0.6509 -1.7862 -1.5039
42876SOL     OW38557   1.265   1.273   8.461 -0.0284 -0.1029  0.1508
42876SOL    HW138558   1.357   1.285   8.439 -0.1331  1.7431  0.4870
42876SOL    HW238559   1.262   1.280   8.556 -0.3416 -1.7296  0.2792
42877SOL     OW38560   8.348   6.081   1.720  0.5323 -0.5553 -0.1667
42877SOL    HW138561   8.370   6.105   1.630 -0.0408 -2.4506 -0.8433
42877SOL    HW238562   8.351   5.986   1.722  0.0458 -0.5799  1.7141
42878SOL     OW38563  13.302   9.999   1.877  0.7575  0.0610  1.2192
42878SOL    HW138564  13.210   9.974   1.863  0.8172  1.3284 -2.9446
42878SOL    HW238565  13.298  10.092   1.901  0.9120  0.3543  0.1660
42879SOL     OW38566  10.406   0.330   3.707  0.3762 -0.0988 -0.3033
42879SOL    HW138567  10.354   0.253   3.729  0.7112 -0.1409  0.3577
42879SOL    HW238568  10.446   0.357   3.790 -0.2490  1.1648 -0.3792
42880SOL     OW38569   5.535   0.048   6.229  0.4309 -0.3133  0.5575
42880SOL    HW138570   5.453   0.060   6.276  0.7716 -2.6451  1.8870
42880SOL    HW238571   5.550   0.132   6.186 -1.7844  0.7125  1.6224
42881SOL     OW38572   1.238  10.637   9.568 -0.1070  0.2972  0.4605
42881SOL    HW138573   1.200  10.670   9.650 -0.4941  3.7285 -0.9507
42881SOL    HW238574   1.163  10.607   9.517 -0.1232  0.4287  0.4080
42882SOL     OW38575   9.832   9.924   8.549  0.0938 -0.4468 -0.1272
42882SOL    HW138576   9.908   9.920   8.492  0.4498 -0.7372  0.3580
42882SOL    HW238577   9.828  10.015   8.578  0.1740 -0.3989 -0.2674
42883SOL     OW38578  12.334   7.979  11.156 -0.2772  0.4267  0.4184
42883SOL    HW138579  12.363   7.889  11.144  1.5640  1.1015 -0.8287
42883SOL    HW238580  12.368   8.025  11.078 -1.1152  2.1881  1.0419
42884SOL     OW38581   4.647   9.736   2.926 -0.4176  0.7920  0.2819
42884SOL    HW138582   4.597   9.817   2.933 -1.7626  0.1852 -1.5125
42884SOL    HW238583   4.583   9.666   2.936  0.3478 -0.0321 -0.3032
42885SOL     OW38584   5.573  11.871   9.760 -0.4833 -0.3829  0.3671
42885SOL    HW138585   5.578  11.938   9.692 -0.4585 -1.1640 -0.4129
42885SOL    HW238586   5.557  11.920   9.841  2.2088  0.8056  0.2674
42886SOL     OW38587   0.394  10.128   2.746 -0.0736  0.1551  0.4569
42886SOL    HW138588   0.464  10.191   2.763 -0.9788  1.3617 -0.1076
42886SOL    HW238589   0.401  10.109   2.653 -2.1614  2.4848 -0.2871
42887SOL     OW38590   0.822   9.160  12.323  0.2240 -0.3861 -0.0281
42887SOL    HW138591   0.771   9.224  12.373 -0.1446 -0.8046  0.1370
42887SOL    HW238592   0.846   9.093  12.387  3.3383  1.1046  0.5655
42888SOL     OW38593   1.741   9.545   0.188  0.3193  0.8850 -0.5965
42888SOL    HW138594   1.697   9.605   0.127 -0.6068 -0.2752 -1.1022
42888SOL    HW238595   1.756   9.466   0.137  0.0468  0.1017  0.5152
42889SOL     OW38596   6.117   5.019   4.220 -0.1296 -0.2637 -0.2019
42889SOL    HW138597   6.194   5.008   4.165 -0.5912  0.8408 -1.1122
42889SOL    HW238598   6.046   4.979   4.171 -0.2895 -0.5417  0.2505
42890SOL     OW38599   5.682  11.310   4.564 -0.0545  0.0011  0.7420
42890SOL    HW138600   5.750  11.378   4.558 -0.3515  0.1837 -0.9125
42890SOL    HW238601   5.712  11.241   4.505 -1.1958  0.0000  0.1465
42891SOL     OW38602   2.100   3.391  12.114 -0.4360  0.1067  0.2795
42891SOL    HW138603   2.019   3.437  12.092 -0.7525  0.0239  1.2510
42891SOL    HW238604   2.169   3.454  12.095 -0.5896 -0.2664 -1.8601
42892SOL     OW38605  12.414   7.467   7.768  0.1920  0.3107 -0.6521
42892SOL    HW138606  12.463   7.396   7.727  0.3126  0.1885 -0.2995
42892SOL    HW238607  12.342   7.485   7.708  0.0242 -0.2704 -0.6253
42893SOL     OW38608   5.741   0.565   4.688  0.1252 -0.3684 -0.1418
42893SOL    HW138609   5.734   0.540   4.596  0.0373 -0.1810 -0.1863
42893SOL    HW238610   5.789   0.647   4.687 -0.1485 -0.2052 -0.0435
42894SOL     OW38611  11.204   4.769   9.588  0.3564  0.1395  0.6847
42894SOL    HW138612  11.216   4.709   9.662  2.4723 -0.2577  0.1016
42894SOL    HW238613  11.145   4.723   9.529  1.9475 -1.4644  0.2474
42895SOL     OW38614  13.009   5.089   7.290  0.1049  0.0513 -0.0151
42895SOL    HW138615  13.098   5.074   7.323  0.1181  1.4721  0.6790
42895SOL    HW238616  13.023   5.132   7.205  0.0772 -0.0670 -0.0798
42896SOL     OW38617   9.012  10.960   6.710  0.6529  0.4348 -0.2318
42896SOL    HW138618   9.056  10.886   6.669  1.1257  1.0263 -0.8181
42896SOL    HW238619   9.022  11.032   6.648  1.2857  1.3330  0.8636
42897SOL     OW38620   3.138   8.777   6.477  0.0586  0.3096 -0.2708
42897SOL    HW138621   3.182   8.862   6.470 -1.2078  1.1370  1.2985
42897SOL    HW238622   3.198   8.723   6.528 -0.3791  1.1952  1.2204
42898SOL     OW38623   2.016   8.973   5.917  0.2648  0.5188 -0.0913
42898SOL    HW138624   2.015   8.956   6.011 -0.4249  0.5442 -0.0845
42898SOL    HW238625   1.925   8.995   5.896  0.6141  1.5815 -0.5648
42899SOL     OW38626   7.845   8.506  10.564 -0.4880  0.0367  0.0208
42899SOL    HW138627   7.895   8.490  10.644 -1.5724  3.1009  1.4675
42899SOL    HW238628   7.775   8.441  10.566 -1.3031  0.8903  2.3967
42900SOL     OW38629   0.257   0.062   9.034 -0.4668  0.3269  0.0536
42900SOL    HW138630   0.205  -0.009   9.071  1.4052 -0.6812  0.9272
42900SOL    HW238631   0.312   0.091   9.106  0.4404  1.0658 -0.9045
42901SOL     OW38632   4.823   5.804   4.142  0.3607  0.2804  0.1227
42901SOL    HW138633   4.820   5.804   4.046 -0.3790 -0.1246  0.1379
42901SOL    HW238634   4.731   5.809   4.168  0.6091  1.6733  0.8168
42902SOL     OW38635  13.201  10.450   1.792 -0.2354  0.1567  0.3034
42902SOL    HW138636  13.163  10.506   1.860  0.6039  0.9987  0.1055
42902SOL    HW238637  13.145  10.464   1.716 -2.4105 -2.3237  1.2953
42903SOL     OW38638  13.087   2.413   5.069 -0.0345 -0.2138 -0.5845
42903SOL    HW138639  13.068   2.323   5.095 -0.1051 -0.4929 -1.5817
42903SOL    HW238640  13.005   2.460   5.084 -0.2393 -0.4929 -0.8259
42904SOL     OW38641  10.637   8.738  10.150 -0.0463  0.2768  0.4238
42904SOL    HW138642  10.555   8.787  10.152 -0.2119 -0.0020  0.6721
42904SOL    HW238643  10.616   8.657  10.197 -0.7279 -1.4974 -2.6683
42905SOL     OW38644   6.984   5.252   9.408  0.0386 -0.1923 -0.0973
42905SOL    HW138645   7.011   5.297   9.328 -1.4222 -0.5216 -0.8142
42905SOL    HW238646   6.922   5.186   9.378 -0.2790 -0.5370  1.2763
42906SOL     OW38647   3.598   5.319  10.190 -0.3187 -0.9014 -0.2475
42906SOL    HW138648   3.540   5.263  10.140 -0.5649 -1.7849  0.9717
42906SOL    HW238649   3.570   5.308  10.281 -0.9075  1.8094 -0.0055
42907SOL     OW38650   4.023  12.876  10.059  0.0244 -0.3960  0.7357
42907SOL    HW138651   3.962  12.843   9.993 -0.9317  0.6893  1.0641
42907SOL    HW238652   4.098  12.815  10.053 -0.4064 -0.8471 -0.7177
42908SOL     OW38653   4.507   8.879   7.252 -0.3890 -0.6476 -0.5899
42908SOL    HW138654   4.440   8.889   7.320 -2.5526 -0.0975 -2.6898
42908SOL    HW238655   4.492   8.792   7.215  1.8763 -1.6663  0.6282
42909SOL     OW38656   0.075   5.782   3.209 -0.1389  0.4053  0.1460
42909SOL    HW138657   0.096   5.710   3.148 -2.0142 -0.4946  0.4847
42909SOL    HW238658   0.141   5.848   3.192  0.2096 -0.4012 -1.9167
42910SOL     OW38659   4.477   1.390   6.626 -0.4384  0.2631 -0.6332
42910SOL    HW138660   4.568   1.419   6.620 -0.2071 -0.0664  0.9266
42910SOL    HW238661   4.468   1.326   6.555 -0.3031  2.3184 -2.6239
42911SOL     OW38662   6.818  12.119   1.797 -0.0959  0.2638 -0.3468
42911SOL    HW138663   6.803  12.033   1.838 -0.3154 -0.2844 -1.5494
42911SOL    HW238664   6.860  12.170   1.866  0.3615 -0.9207  0.2942
42912SOL     OW38665   6.192   1.761   7.840 -0.0462  0.4500 -0.0141
42912SOL    HW138666   6.188   1.686   7.780 -0.4236 -1.2114  1.9482
42912SOL    HW238667   6.226   1.833   7.787 -2.7130 -0.1840 -2.8686
42913SOL     OW38668   6.003   9.653   0.842 -0.4085 -0.4172 -0.0131
42913SOL    HW138669   5.982   9.717   0.775  0.4989 -0.6685 -0.5675
42913SOL    HW238670   5.999   9.701   0.925 -1.7104 -0.1463 -0.2212
42914SOL     OW38671  12.907  12.350   0.867 -0.4535 -0.2740 -0.3778
42914SOL    HW138672  12.906  12.267   0.914 -0.6306 -0.5388 -0.8408
42914SOL    HW238673  12.821  12.389   0.882 -0.0614  0.2598  0.5851
42915SOL     OW38674   8.412  11.748   9.240  0.0967 -0.3445 -0.0995
42915SOL    HW138675   8.377  11.667   9.205  0.3893  0.4255 -2.3155
42915SOL    HW238676   8.506  11.732   9.250  0.4817  0.2471 -2.3224
42916SOL     OW38677   4.856   4.433   5.006  0.1687 -0.4803 -0.2032
42916SOL    HW138678   4.861   4.358   4.947  0.5418 -0.5393 -0.1005
42916SOL    HW238679   4.824   4.397   5.089 -1.3606 -0.2292 -0.6457
42917SOL     OW38680   7.369   7.681  10.527  0.7010 -0.2762 -0.0873
42917SOL    HW138681   7.406   7.699  10.613 -0.4463  2.4355 -0.0639
42917SOL    HW238682   7.316   7.602  10.539 -0.3516  0.6786  2.0124
42918SOL     OW38683  11.515   9.340   7.673 -0.1441 -0.1580 -0.0002
42918SOL    HW138684  11.554   9.274   7.615 -0.7635 -1.1966  0.7301
42918SOL    HW238685  11.580   9.353   7.742 -0.1633 -0.2516  0.0361
42919SOL     OW38686   0.173   8.215  12.785  0.1089 -0.2796 -0.7415
42919SOL    HW138687   0.111   8.266  12.734 -0.8511 -0.2364  0.4226
42919SOL    HW238688   0.137   8.127  12.786 -1.2841  0.2083  1.8856
42920SOL     OW38689   0.224   3.772   2.277  0.3240 -0.0384  0.0343
42920SOL    HW138690   0.196   3.698   2.223  0.0554  1.0065 -1.3207
42920SOL    HW238691   0.313   3.750   2.303  1.0006  0.0479 -2.0476
42921SOL     OW38692  12.723  12.118  12.455  0.2370  0.0819  0.1148
42921SOL    HW138693  12.687  12.095  12.370  0.5965  2.0042 -0.6049
42921SOL    HW238694  12.814  12.086  12.452  0.6655  1.2957 -0.7822
42922SOL     OW38695  11.602  10.647   5.297 -0.1060 -0.4414 -0.4176
42922SOL    HW138696  11.536  10.715   5.306  0.5919  0.1106  0.8436
42922SOL    HW238697  11.558  10.567   5.325 -0.6580 -0.3537 -1.0191
42923SOL     OW38698   2.082   3.822   4.344 -0.0322  0.0078 -0.2584
42923SOL    HW138699   2.021   3.896   4.349  1.8764  1.7657 -0.9732
42923SOL    HW238700   2.124   3.819   4.430  1.3675  1.1987 -0.8501
42924SOL     OW38701   6.691   7.329  12.119  0.3577  0.2244 -0.4868
42924SOL    HW138702   6.621   7.276  12.082  0.7709 -0.1721 -0.7199
42924SOL    HW238703   6.656   7.361  12.201  0.3256 -0.9783 -0.0018
42925SOL     OW38704   8.667  11.284  11.017 -0.7674 -0.0718  0.4074
42925SOL    HW138705   8.735  11.262  10.952  0.3728  0.3647  1.4266
42925SOL    HW238706   8.605  11.339  10.969  0.0591  0.2470 -0.3129
42926SOL     OW38707   9.276   5.446   2.273 -0.3123 -0.6712 -0.1216
42926SOL    HW138708   9.310   5.371   2.322  0.5818  0.8932  1.7847
42926SOL    HW238709   9.202   5.411   2.224  1.0866 -3.1568 -0.6393
42927SOL     OW38710   2.483   5.653   1.748 -0.2170 -0.0530 -0.0977
42927SOL    HW138711   2.410   5.615   1.699 -0.1472 -0.0564 -0.2007
42927SOL    HW238712   2.559   5.636   1.693 -0.0748 -0.4262  0.2070
42928SOL     OW38713  10.339  10.212   5.809 -0.0519  0.4239 -0.0873
42928SOL    HW138714  10.332  10.124   5.771 -0.4407  1.3171 -2.1883
42928SOL    HW238715  10.267  10.216   5.872  0.7186 -1.1626  0.9653
42929SOL     OW38716  11.463   3.416   1.419 -0.1686 -0.3382  0.0308
42929SOL    HW138717  11.484   3.405   1.326  2.3290 -0.2259  0.5170
42929SOL    HW238718  11.436   3.507   1.426 -1.8990 -0.7451 -0.7962
42930SOL     OW38719  11.520   0.035   9.117  0.2851 -0.8415  0.4616
42930SOL    HW138720  11.447   0.018   9.176 -0.4903 -0.3842 -0.3544
42930SOL    HW238721  11.567   0.108   9.158  0.1953 -1.0326  0.9067
42931SOL     OW38722   1.901   1.177  11.095  0.0031  0.2284 -0.8677
42931SOL    HW138723   1.959   1.232  11.148 -2.2627  1.3546  0.6122
42931SOL    HW238724   1.824   1.231  11.080 -2.1497 -2.3029  0.2274
42932SOL     OW38725   7.558  11.295   6.451 -0.2519  0.5163 -0.4365
42932SOL    HW138726   7.541  11.225   6.514  1.5974  0.9769  0.6531
42932SOL    HW238727   7.471  11.327   6.427 -1.1619 -2.0606 -0.9396
42933SOL     OW38728  12.574   6.812  13.040 -0.6394 -0.7906  0.6270
42933SOL    HW138729  12.654   6.852  13.005 -0.8860 -1.2300 -0.4950
42933SOL    HW238730  12.508   6.827  12.972 -0.5589 -3.7225 -0.2595
42934SOL     OW38731  12.867   7.981   3.459 -0.1992  0.7414 -0.0658
42934SOL    HW138732  12.952   8.016   3.432 -0.0161 -0.8067 -1.6443
42934SOL    HW238733  12.851   8.021   3.545  0.7999  3.2435 -0.9306
42935SOL     OW38734   4.715   7.036   1.896  0.5569 -0.3053  0.5070
42935SOL    HW138735   4.748   6.981   1.825 -0.4579  1.2017 -1.2011
42935SOL    HW238736   4.622   7.015   1.902  0.3413  0.5814  0.4119
42936SOL     OW38737   8.193   7.605   8.861  0.0032  0.6681  0.2773
42936SOL    HW138738   8.208   7.699   8.852 -2.6745  1.1647  0.0489
42936SOL    HW238739   8.139   7.598   8.940 -2.6677 -0.2062 -1.4719
42937SOL     OW38740   2.013  12.388  11.130 -0.1181  0.3133  0.1668
42937SOL    HW138741   1.936  12.336  11.153  0.0550  0.2684  0.6717
42937SOL    HW238742   2.081  12.323  11.113 -0.4744  0.3198 -1.3788
42938SOL     OW38743   0.308  10.485   8.655 -0.5202  0.6042  0.2060
42938SOL    HW138744   0.347  10.535   8.583  0.1005  1.4318  1.1031
42938SOL    HW238745   0.351  10.400   8.651 -0.1365  0.8087 -0.1010
42939SOL     OW38746  13.063  10.941   9.407  0.0676 -0.1867  0.1342
42939SOL    HW138747  13.002  10.906   9.473 -0.3759 -0.9367 -0.6463
42939SOL    HW238748  13.063  10.875   9.337  1.4029  0.0478 -0.1127
42940SOL     OW38749   0.572   3.732   1.803 -0.0389  0.3074  0.1722
42940SOL    HW138750   0.555   3.783   1.724  2.4545  0.5310 -0.2926
42940SOL    HW238751   0.602   3.647   1.771  2.3244  0.8380  0.7505
42941SOL     OW38752   1.814  11.508   8.233  0.5186 -0.4686  0.2450
42941SOL    HW138753   1.871  11.580   8.261 -0.3522  0.1171  0.5622
42941SOL    HW238754   1.750  11.550   8.175  0.2161 -1.0559  0.1541
42942SOL     OW38755   5.045  10.955   4.492 -0.5624 -0.1664  0.5974
42942SOL    HW138756   4.949  10.962   4.491 -0.6016 -0.6778  0.0610
42942SOL    HW238757   5.063  10.872   4.448  0.1119 -0.3087  1.1319
42943SOL     OW38758  12.358   9.086  10.217  0.4372  0.0863  0.2560
42943SOL    HW138759  12.351   9.046  10.130  1.0562  0.2406  0.1299
42943SOL    HW238760  12.345   9.180  10.201  0.2765  0.0834  0.3701
42944SOL     OW38761  11.572  11.125  10.659 -0.1615 -0.4308 -0.5847
42944SOL    HW138762  11.507  11.074  10.708 -0.1043 -1.3287 -1.3997
42944SOL    HW238763  11.655  11.106  10.702 -0.2367 -0.4926 -0.4683
42945SOL     OW38764   3.003   3.312  12.578  0.3107  0.0153 -0.2637
42945SOL    HW138765   2.921   3.265  12.560 -1.1495  1.1893  2.6810
42945SOL    HW238766   3.054   3.250  12.632  0.7426 -0.1469 -0.8457
42946SOL     OW38767  12.435   9.232  12.764  0.3772 -0.2070  0.3072
42946SOL    HW138768  12.470   9.313  12.800  1.9999 -0.7691  0.0801
42946SOL    HW238769  12.381   9.260  12.690  0.9929  0.6612  0.1678
42947SOL     OW38770   2.290   5.625   3.495  0.7067 -0.3720 -0.0421
42947SOL    HW138771   2.314   5.689   3.428 -0.0229 -0.2401 -0.1925
42947SOL    HW238772   2.369   5.573   3.510  1.1349  0.1965 -0.3366
42948SOL     OW38773   8.189  12.318   1.123 -0.2498 -0.6677 -0.2939
42948SOL    HW138774   8.189  12.223   1.116 -1.2233 -0.7178  0.1988
42948SOL    HW238775   8.106  12.339   1.167 -0.7808  0.5029 -1.7363
42949SOL     OW38776   5.848  10.946   7.138 -0.1437  0.2117 -0.5440
42949SOL    HW138777   5.917  10.924   7.075  0.6741  1.6513 -0.1968
42949SOL    HW238778   5.887  11.013   7.193 -1.2172 -0.2546  0.8387
42950SOL     OW38779  12.647  12.292   7.202  0.1578 -0.5112 -0.6772
42950SOL    HW138780  12.666  12.210   7.156  0.2667 -0.4049 -0.8222
42950SOL    HW238781  12.662  12.361   7.137 -0.7403 -0.4208 -0.7966
42951SOL     OW38782  11.220   9.847   4.247  0.5881 -0.9420 -0.1093
42951SOL    HW138783  11.314   9.844   4.233  0.4205 -0.8809 -1.3804
42951SOL    HW238784  11.207   9.917   4.311  1.3241 -0.2018 -0.7412
42952SOL     OW38785  13.275   2.327   1.139 -0.4293  0.1069  0.5486
42952SOL    HW138786  13.206   2.362   1.196 -0.1642  0.4624  0.6568
42952SOL    HW238787  13.228   2.293   1.063 -0.6699  1.3159  0.1224
42953SOL     OW38788   8.700   8.754   1.856  0.1698  0.2383 -0.0259
42953SOL    HW138789   8.785   8.761   1.813  0.1568 -0.3236 -0.1485
42953SOL    HW238790   8.647   8.700   1.798 -0.7490  1.7746 -0.6567
42954SOL     OW38791   8.459   7.356   9.177 -0.0742  0.1959  0.0468
42954SOL    HW138792   8.488   7.446   9.167 -0.1644  0.1218 -0.9671
42954SOL    HW238793   8.387   7.347   9.115 -0.0422 -0.5864  0.1156
42955SOL     OW38794   6.239   7.997   5.509 -0.4043  0.8158  0.0534
42955SOL    HW138795   6.304   7.935   5.542  0.1378  1.1899 -0.3017
42955SOL    HW238796   6.277   8.083   5.527 -0.4083  1.0297 -0.9228
42956SOL     OW38797   8.645   9.619   3.518 -0.3928 -0.1527  0.0845
42956SOL    HW138798   8.662   9.711   3.539 -0.6452  0.4354 -2.0253
42956SOL    HW238799   8.598   9.622   3.435 -2.6245 -2.1071  1.1510
42957SOL     OW38800   0.777   6.014   6.843  0.2039  0.2854  0.5369
42957SOL    HW138801   0.845   6.074   6.812  0.8257 -0.1095  1.1164
42957SOL    HW238802   0.744   6.053   6.924 -2.2158  1.9077 -1.0933
42958SOL     OW38803   0.230   4.479   3.346  0.6751 -0.1645  0.4739
42958SOL    HW138804   0.264   4.526   3.270 -0.4741  1.1180  0.7104
42958SOL    HW238805   0.286   4.402   3.354  1.5829  0.3168 -0.9263
42959SOL     OW38806   6.222   5.357   8.705  0.0005  0.3281  0.0451
42959SOL    HW138807   6.194   5.315   8.786 -2.0030  0.3329 -0.5946
42959SOL    HW238808   6.259   5.441   8.733 -0.5635  0.2831  0.9591
42960SOL     OW38809   5.253   2.078   5.192 -0.0813 -0.5046 -0.0171
42960SOL    HW138810   5.194   2.116   5.127 -0.8040 -0.0699  0.8692
42960SOL    HW238811   5.195   2.031   5.252  0.6236 -1.3145  0.0345
42961SOL     OW38812   3.788   9.174   7.827 -0.4725 -0.1971 -0.1009
42961SOL    HW138813   3.821   9.136   7.909  0.5107 -0.6958 -0.7134
42961SOL    HW238814   3.696   9.148   7.825 -0.1467 -1.4585  0.1326
42962SOL     OW38815   3.750   1.972  10.840  0.3474 -0.1921  0.1541
42962SOL    HW138816   3.659   1.993  10.820  0.2059  0.7483  1.6816
42962SOL    HW238817   3.774   1.907  10.773 -1.2091  0.0524 -0.6972
42963SOL     OW38818   0.846   3.108  10.451 -0.6917 -0.1700  0.4267
42963SOL    HW138819   0.940   3.116  10.435 -0.6565  0.8652  1.1196
42963SOL    HW238820   0.806   3.178  10.399 -1.4660 -2.6371 -2.6908
42964SOL     OW38821  10.159   4.519  12.062 -0.6201 -0.1702 -0.7082
42964SOL    HW138822  10.175   4.428  12.085 -2.5007 -0.4592 -0.3300
42964SOL    HW238823  10.243   4.562  12.073  0.1535 -1.7265 -0.2400
42965SOL     OW38824   3.187  10.312   1.808  0.0217  0.3190 -0.0827
42965SOL    HW138825   3.148  10.287   1.724 -1.6015 -1.7017  1.1637
42965SOL    HW238826   3.199  10.407   1.801  1.1630  0.0714 -3.0221
42966SOL     OW38827   1.240   1.018   2.750 -0.3489 -0.3548  0.4585
42966SOL    HW138828   1.222   0.937   2.796 -0.5717  0.1527  1.2848
42966SOL    HW238829   1.166   1.075   2.770 -0.0417  0.1677  0.1558
42967SOL     OW38830   8.364  10.565  12.047 -0.2793 -0.0178  0.0964
42967SOL    HW138831   8.311  10.497  12.005 -1.2071 -0.0863  1.3321
42967SOL    HW238832   8.421  10.597  11.977 -3.4513  1.6531 -1.9571
42968SOL     OW38833   4.853   9.149   4.663 -0.4584  0.3824 -0.4700
42968SOL    HW138834   4.942   9.158   4.631  0.2276  0.2912  1.3186
42968SOL    HW238835   4.839   9.054   4.667 -0.5597  0.3943 -0.5226
42969SOL     OW38836  13.112   6.592   6.865 -0.7384  0.0415 -0.3316
42969SOL    HW138837  13.137   6.523   6.927  1.9331  0.0836 -1.2186
42969SOL    HW238838  13.022   6.570   6.840 -1.1407 -1.1773  1.9192
42970SOL     OW38839  10.552   3.923  11.564 -0.1962  0.3639 -0.0427
42970SOL    HW138840  10.461   3.952  11.553 -0.7021 -0.9456  0.5396
42970SOL    HW238841  10.546   3.843  11.615  1.2431 -0.1843 -0.6736
42971SOL     OW38842  13.252   5.841   1.710 -0.5514  0.3146  0.2359
42971SOL    HW138843  13.158   5.829   1.700 -0.6296 -2.0365  2.6718
42971SOL    HW238844  13.262   5.895   1.788  0.1015  0.0393  0.3488
42972SOL     OW38845   4.834   2.344   8.798  0.0523 -0.0105 -0.4159
42972SOL    HW138846   4.879   2.269   8.759 -0.1082  0.0873 -0.7967
42972SOL    HW238847   4.875   2.354   8.884 -0.4799 -1.0381 -0.0180
42973SOL     OW38848   1.102   8.684   6.809  0.3236  0.0242  0.0629
42973SOL    HW138849   1.083   8.750   6.741  0.8902 -0.1782 -0.2940
42973SOL    HW238850   1.091   8.732   6.892  0.3932  0.4783 -0.1855
42974SOL     OW38851   7.982  11.158  12.132 -0.0417  0.2001  0.1006
42974SOL    HW138852   8.057  11.197  12.176 -0.2200  0.3529  0.2686
42974SOL    HW238853   7.908  11.177  12.189 -0.0739 -0.7210  0.3760
42975SOL     OW38854  13.134  13.174   0.040 -0.0780  0.2922  0.4937
42975SOL    HW138855  13.193  13.105   0.070 -2.3416 -1.5496  0.9997
42975SOL    HW238856  13.048  13.133   0.038 -1.3388  2.7643 -0.4836
42976SOL     OW38857   2.020   5.546   9.168 -0.1933  0.3236  0.0130
42976SOL    HW138858   1.995   5.558   9.259  1.4735  0.2477  0.5044
42976SOL    HW238859   2.091   5.608   9.153  0.9755 -1.1077 -0.6140
42977SOL     OW38860   8.695   6.428   8.203  0.2421 -0.6539  0.0321
42977SOL    HW138861   8.607   6.391   8.196  0.1967 -0.3773 -1.0335
42977SOL    HW238862   8.725   6.436   8.112  0.3495  1.6819  0.2173
42978SOL     OW38863   2.999   0.394   3.798 -0.0576 -0.4800  0.2898
42978SOL    HW138864   2.924   0.351   3.840 -0.4994  0.8780  0.9529
42978SOL    HW238865   2.960   0.446   3.727  0.2321  0.3737  0.7503
42979SOL     OW38866   5.477   0.345   4.393 -0.6642 -0.3676 -0.5281
42979SOL    HW138867   5.520   0.396   4.324 -0.9080 -1.9547 -1.9426
42979SOL    HW238868   5.535   0.353   4.468 -0.3464  1.3707 -0.9109
42980SOL     OW38869   4.938   0.232  11.012 -0.0102 -0.3022  0.7384
42980SOL    HW138870   4.963   0.214  10.921 -0.2527 -0.2165  0.6540
42980SOL    HW238871   4.968   0.322  11.027 -1.0341  0.1203  0.3572
42981SOL     OW38872   8.095   3.501  11.513  0.1533  0.0959  0.6001
42981SOL    HW138873   8.071   3.445  11.439  0.6619 -2.0838  1.9639
42981SOL    HW238874   8.050   3.462  11.588  0.7414  1.3924  1.6759
42982SOL     OW38875   2.512   7.529   3.722  0.2101 -0.2584  0.0885
42982SOL    HW138876   2.502   7.470   3.647  0.4925 -1.0340  0.6424
42982SOL    HW238877   2.606   7.529   3.740  0.0102 -1.0431  1.1912
42983SOL     OW38878  10.255  11.456   7.128  0.4241 -0.4045  0.2238
42983SOL    HW138879  10.232  11.447   7.220  0.6977 -0.2189  0.3101
42983SOL    HW238880  10.231  11.372   7.089 -1.5500  0.1961  0.0532
42984SOL     OW38881   5.829  12.108   5.082  0.0756  0.0810 -0.2396
42984SOL    HW138882   5.835  12.030   5.137  0.5122 -0.6457 -1.2785
42984SOL    HW238883   5.736  12.127   5.077  0.0647  0.5206  1.2230
42985SOL     OW38884   5.916   0.364  10.631  0.3134  0.2586  0.2590
42985SOL    HW138885   5.931   0.362  10.537  0.1166 -1.8132  0.2227
42985SOL    HW238886   5.941   0.276  10.661 -1.7989  0.0903  1.7460
42986SOL     OW38887   7.239   0.612   9.089 -0.2545 -0.3968  0.0630
42986SOL    HW138888   7.166   0.617   9.150  0.2105 -1.1431  0.7046
42986SOL    HW238889   7.233   0.524   9.053 -0.4414 -0.0094 -0.8810
42987SOL     OW38890   0.561   0.549  10.428  0.2063  0.0147  0.0416
42987SOL    HW138891   0.596   0.460  10.427  0.7803  0.2078  0.8906
42987SOL    HW238892   0.617   0.595  10.491  0.7538  1.3229 -1.3370
42988SOL     OW38893   7.313  12.055   0.338 -0.0227 -0.4073  0.7005
42988SOL    HW138894   7.391  12.033   0.388  0.6585 -0.1667 -0.2247
42988SOL    HW238895   7.244  12.063   0.403  0.7427 -0.5305  1.5457
42989SOL     OW38896   1.191   3.042  12.697 -0.1112  0.7136  0.6867
42989SOL    HW138897   1.157   2.959  12.730 -0.6862  0.7435  0.1911
42989SOL    HW238898   1.267   3.061  12.752 -0.3591  0.1820  1.2183
42990SOL     OW38899   0.769  12.477   1.521  0.0131  0.4246  0.2739
42990SOL    HW138900   0.789  12.526   1.601 -0.8632  0.6553  0.3631
42990SOL    HW238901   0.791  12.386   1.543 -0.8394  0.3842  1.0176
42991SOL     OW38902   7.305  12.393  11.059  0.4332 -0.0669  0.1482
42991SOL    HW138903   7.319  12.322  10.997  1.1441  0.5252 -0.3815
42991SOL    HW238904   7.348  12.469  11.019 -2.2323  1.2803 -0.4324
42992SOL     OW38905   1.975   0.464   9.199  0.0784 -0.1462 -0.0220
42992SOL    HW138906   1.992   0.467   9.293 -0.0719  1.4315 -0.0204
42992SOL    HW238907   1.901   0.524   9.186  1.1855  1.0052 -1.3373
42993SOL     OW38908   4.480   2.884   7.785 -0.1227 -0.4325 -0.7632
42993SOL    HW138909   4.397   2.843   7.810 -0.3527 -0.4312 -1.5057
42993SOL    HW238910   4.467   2.977   7.801  0.3599 -0.5951  0.8139
42994SOL     OW38911  13.107  11.749   9.079  0.5221  0.8356 -0.0977
42994SOL    HW138912  13.110  11.761   9.174  1.1711  1.2001 -0.1568
42994SOL    HW238913  13.182  11.693   9.060 -0.2048 -0.0913 -0.2840
42995SOL     OW38914   3.071   2.091   4.242  0.2733 -0.0066  0.0898
42995SOL    HW138915   3.013   2.148   4.292  1.7950  1.8356 -0.1363
42995SOL    HW238916   3.013   2.043   4.183 -1.1627  0.5422  1.0076
42996SOL     OW38917  11.101   7.251  12.144 -0.0923 -0.6222  0.0799
42996SOL    HW138918  11.105   7.190  12.071  0.7565 -0.7605  0.2250
42996SOL    HW238919  11.160   7.213  12.210  1.1905  0.7889 -0.1922
42997SOL     OW38920  12.644   1.171  11.978 -0.3003  0.0409 -0.1924
42997SOL    HW138921  12.635   1.187  11.884 -0.4466 -2.1667 -0.6077
42997SOL    HW238922  12.608   1.083  11.991 -0.9066  0.5485  2.0548
42998SOL     OW38923   1.801  11.655  10.041 -0.5296 -0.3822  0.2220
42998SOL    HW138924   1.759  11.665   9.956  2.2812 -2.3349 -1.5471
42998SOL    HW238925   1.783  11.564  10.065 -0.4707 -0.1247  1.2841
42999SOL     OW38926   7.657   5.956   3.395  0.5377  0.0318 -0.2948
42999SOL    HW138927   7.604   5.969   3.474 -0.2292  0.8397 -0.9106
42999SOL    HW238928   7.747   5.955   3.426  0.2491  0.4285  0.5832
43000SOL     OW38929  12.358   8.652   6.341 -0.4458  0.3652  0.6464
43000SOL    HW138930  12.383   8.569   6.300  0.6393  0.6277  0.7577
43000SOL    HW238931  12.405   8.652   6.425 -1.7011  0.3717  1.3787
43001SOL     OW38932   4.971   5.515   0.366  0.1226 -0.1854  0.0605
43001SOL    HW138933   5.009   5.519   0.454  1.7190  1.3431 -0.6328
43001SOL    HW238934   4.981   5.605   0.332  0.9071 -1.0550 -2.2121
43002SOL     OW38935   5.875   1.445   2.672 -0.5157  0.0595  0.4325
43002SOL    HW138936   5.877   1.533   2.710 -0.0727  0.8894 -1.4122
43002SOL    HW238937   5.880   1.460   2.578 -2.1589 -1.8871 -0.0131
43003SOL     OW38938   5.846   6.657   0.830 -0.1800  0.4973 -0.4340
43003SOL    HW138939   5.782   6.631   0.764  2.2945 -1.1874 -2.3066
43003SOL    HW238940   5.881   6.740   0.799 -0.3502  0.6417 -0.2405
43004SOL     OW38941   6.192   2.828  10.093  0.0580  0.2148 -0.3885
43004SOL    HW138942   6.114   2.778  10.119 -0.8277  1.4328 -0.6395
43004SOL    HW238943   6.265   2.769  10.113 -1.0066 -2.0539 -2.5437
43005SOL     OW38944   6.694  10.778  12.742 -0.1533 -0.1912 -0.2978
43005SOL    HW138945   6.621  10.717  12.751  0.1699 -0.6149 -0.5024
43005SOL    HW238946   6.772  10.722  12.739  0.4100  0.3109  2.0870
43006SOL     OW38947   4.617   3.739   1.803  0.8240  0.2221  0.2346
43006SOL    HW138948   4.656   3.822   1.828  1.3120  0.1947 -0.4064
43006SOL    HW238949   4.686   3.694   1.754 -0.2739  0.5674 -1.7522
43007SOL     OW38950   1.579   0.128   8.309  0.3943  0.0237 -0.3876
43007SOL    HW138951   1.573   0.128   8.404  1.6910 -0.7691 -0.2745
43007SOL    HW238952   1.512   0.065   8.280 -0.0341  0.3036 -0.0079
43008SOL     OW38953  12.959   3.615   2.050 -0.3025 -0.0532  0.0356
43008SOL    HW138954  13.023   3.668   2.097 -0.5421  2.5591 -2.2977
43008SOL    HW238955  12.875   3.649   2.077 -0.5551 -0.5330 -0.1247
43009SOL     OW38956  10.844  11.978   8.695  0.4955  0.1842 -0.3503
43009SOL    HW138957  10.933  12.010   8.708  1.0701 -1.4377 -0.0496
43009SOL    HW238958  10.797  12.052   8.658  1.9144  1.1391 -0.3079
43010SOL     OW38959  12.544   6.726  11.484 -0.4102  0.1862 -0.0638
43010SOL    HW138960  12.520   6.637  11.509  1.2384  0.0683  1.3069
43010SOL    HW238961  12.481   6.781  11.531 -1.1721 -0.2261 -0.5825
43011SOL     OW38962  12.605  11.650  11.299  0.8399 -0.0332  0.4411
43011SOL    HW138963  12.515  11.681  11.307  0.4666 -0.3212 -1.8661
43011SOL    HW238964  12.615  11.585  11.369 -1.1471 -0.8195  0.0520
43012SOL     OW38965  12.734  11.299   2.190  0.2043  0.9077  0.0038
43012SOL    HW138966  12.803  11.253   2.142 -0.8375  0.7584 -1.4184
43012SOL    HW238967  12.781  11.362   2.245  1.5213 -0.0283  0.0173
43013SOL     OW38968   4.610   6.665   8.943 -0.6121  0.4661  0.6248
43013SOL    HW138969   4.706   6.668   8.942 -0.6354  1.2531  0.3054
43013SOL    HW238970   4.588   6.591   8.887 -0.1844  0.1685  0.8456
43014SOL     OW38971  10.608   7.351   3.971  0.0375  0.0666 -0.0316
43014SOL    HW138972  10.667   7.425   3.963 -0.4284  0.5112  0.5422
43014SOL    HW238973  10.534   7.385   4.022 -0.2285 -0.7648  0.1443
43015SOL     OW38974   3.127  13.204   5.867 -0.0586  0.4500  0.4055
43015SOL    HW138975   3.081  13.242   5.792 -1.1353  0.3919  1.0102
43015SOL    HW238976   3.067  13.217   5.941  0.3075 -0.8710  0.9642
43016SOL     OW38977   6.032  10.770   7.844  0.0244 -0.6324 -0.2164
43016SOL    HW138978   5.960  10.799   7.899 -0.3178 -2.1641  0.1818
43016SOL    HW238979   5.996  10.771   7.755 -0.0021  0.0793 -0.1973
43017SOL     OW38980   3.556   9.108   8.011 -0.1749  0.0280 -0.1644
43017SOL    HW138981   3.465   9.135   8.024 -0.0078  0.5168  0.0409
43017SOL    HW238982   3.590   9.098   8.100 -0.2359 -0.9083 -0.2355
43018SOL     OW38983   5.754  12.008  12.121 -0.0616 -0.7609  0.1107
43018SOL    HW138984   5.696  11.958  12.178 -0.9895  1.5067  1.2342
43018SOL    HW238985   5.696  12.060  12.066  0.8842 -0.8746 -1.0532
43019SOL     OW38986   6.042   2.625   4.405  0.0710 -0.4186 -0.5827
43019SOL    HW138987   6.109   2.638   4.472  1.0521 -1.3667 -1.3365
43019SOL    HW238988   6.092   2.614   4.324 -1.0597  0.0359 -1.3676
43020SOL     OW38989   1.705  11.497   0.107  0.3825  0.2851  0.1205
43020SOL    HW138990   1.758  11.545   0.044  0.4812  0.0544  0.0256
43020SOL    HW238991   1.768  11.446   0.157  0.2069 -0.4661 -0.3980
43021SOL     OW38992   5.887   2.041   5.529  0.2083 -0.8419  0.2214
43021SOL    HW138993   5.820   2.076   5.470  0.3122 -0.2534  0.4424
43021SOL    HW238994   5.863   1.949   5.541 -1.2977 -0.3596  1.2828
43022SOL     OW38995   0.324   7.694   5.510 -0.2071  0.3775 -0.2270
43022SOL    HW138996   0.416   7.683   5.484  0.1750  1.2943  0.6426
43022SOL    HW238997   0.323   7.672   5.604 -0.9387  0.0748 -0.2997
43023SOL     OW38998   6.869   7.666   1.350  0.2279 -0.4432 -0.4782
43023SOL    HW138999   6.957   7.631   1.334 -0.7003 -2.2448 -2.1744
43023SOL    HW239000   6.855   7.656   1.444  1.1596 -1.8991 -0.4702
43024SOL     OW39001   2.266   6.209   3.860 -0.2568  0.7677 -0.4886
43024SOL    HW139002   2.224   6.216   3.946 -2.0797  3.8186 -1.4550
43024SOL    HW239003   2.352   6.250   3.872  0.0400 -0.0063  0.1352
43025SOL     OW39004   0.785   2.891   5.067  0.1657 -0.1617  0.0336
43025SOL    HW139005   0.721   2.825   5.039 -0.5779  0.6660 -0.2751
43025SOL    HW239006   0.761   2.912   5.157 -0.1035  0.2565 -0.1307
43026SOL     OW39007   0.901   1.615   3.794  0.1083  0.0705  0.6028
43026SOL    HW139008   0.865   1.701   3.814 -1.7989 -0.7024  0.6672
43026SOL    HW239009   0.966   1.632   3.725 -0.5874  1.4920  0.2552
43027SOL     OW39010   2.707   6.996   4.987  0.4581  0.7619  0.5186
43027SOL    HW139011   2.740   6.946   4.912  0.1061 -0.7221  1.3224
43027SOL    HW239012   2.785   7.015   5.038  0.6167  1.2135  0.1187
43028SOL     OW39013   8.502   9.681   2.792 -0.2010  0.5576 -0.7313
43028SOL    HW139014   8.422   9.667   2.741 -0.0497  0.7323 -1.0256
43028SOL    HW239015   8.512   9.601   2.843 -0.1727  0.2264 -1.2379
43029SOL     OW39016   4.585   0.659   5.250  0.6146  0.5158  0.1837
43029SOL    HW139017   4.527   0.593   5.213  0.0039  0.3388  1.3851
43029SOL    HW239018   4.565   0.739   5.201  1.2848 -0.1398 -1.2074
43030SOL     OW39019   0.239   9.860   6.592  0.1513  0.0030 -0.2720
43030SOL    HW139020   0.293   9.835   6.667 -0.1710  0.8218  0.2500
43030SOL    HW239021   0.295   9.921   6.543  0.5791 -0.9760 -1.0223
43031SOL     OW39022   3.783   6.455   2.320 -0.0768 -0.2013  0.4066
43031SOL    HW139023   3.844   6.526   2.302  0.1706 -0.6728 -0.6867
43031SOL    HW239024   3.777   6.452   2.416  1.9191 -0.3763  0.5792
43032SOL     OW39025   3.329   6.084   8.360 -0.2206 -0.2976 -0.0994
43032SOL    HW139026   3.330   6.031   8.440  1.0478 -0.4882 -0.2305
43032SOL    HW239027   3.270   6.037   8.301 -0.7756 -0.4185  0.5410
43033SOL     OW39028  10.384   8.040   2.745  0.5662  0.1295 -0.4411
43033SOL    HW139029  10.321   8.097   2.789 -0.8272 -2.0253  0.5407
43033SOL    HW239030  10.458   8.035   2.806 -1.0360 -2.2379  1.5343
43034SOL     OW39031  11.926  10.296   6.839  0.2999  0.6099 -0.3044
43034SOL    HW139032  11.849  10.339   6.801 -0.5039 -0.6654 -0.1877
43034SOL    HW239033  11.896  10.268   6.926 -0.5684 -3.5167 -1.6825
43035SOL     OW39034   8.004   5.638   2.471  0.0848  0.2783  0.5577
43035SOL    HW139035   8.055   5.639   2.552  0.9128 -1.5815  0.1086
43035SOL    HW239036   7.951   5.558   2.477 -0.6803  0.7056 -0.2527
43036SOL     OW39037   4.294  10.746   8.545  0.0657  0.3723 -0.4818
43036SOL    HW139038   4.228  10.698   8.495 -0.8356  0.4530  0.5886
43036SOL    HW239039   4.254  10.831   8.562  0.8058  0.7394 -0.5523
43037SOL     OW39040   8.383   9.269   7.353 -0.2094  0.0898 -0.5868
43037SOL    HW139041   8.437   9.341   7.321 -0.3273 -0.5340 -2.3010
43037SOL    HW239042   8.445   9.203   7.381  0.0081 -0.7994 -2.9492
43038SOL     OW39043   0.029   8.294   7.484  0.8808 -0.8152  0.8973
43038SOL    HW139044  -0.045   8.245   7.521 -0.6568  2.0018  1.8741
43038SOL    HW239045   0.079   8.324   7.561 -1.2599  3.4679  0.9235
43039SOL     OW39046  10.000   6.770  12.758 -0.7320 -0.6171 -0.0985
43039SOL    HW139047  10.036   6.733  12.839 -2.5192  1.1862  1.6300
43039SOL    HW239048  10.052   6.849  12.743  1.6981 -2.4867 -2.6271
43040SOL     OW39049   8.786   7.704   0.737  0.0441 -0.0455 -0.1537
43040SOL    HW139050   8.726   7.697   0.811  0.2037  0.8371  0.0704
43040SOL    HW239051   8.850   7.634   0.752 -0.3521 -0.3538  0.1339
43041SOL     OW39052  10.012  10.374   8.832  0.2104  0.1387  0.2977
43041SOL    HW139053  10.083  10.367   8.769  0.9391  0.2456  1.0795
43041SOL    HW239054  10.047  10.337   8.913 -0.4280  0.6900  0.8520
43042SOL     OW39055  11.911   9.248   6.776 -0.3476  0.0947  0.0678
43042SOL    HW139056  11.934   9.236   6.868  1.5676 -0.8083 -0.4833
43042SOL    HW239057  11.815   9.242   6.775 -0.5451  1.8167  2.2019
43043SOL     OW39058  12.881   9.524   1.543  0.1654  0.1066 -0.0172
43043SOL    HW139059  12.926   9.551   1.463  0.9622 -0.4957  0.2086
43043SOL    HW239060  12.843   9.605   1.577  0.1552  0.4405 -0.7903
43044SOL     OW39061   5.453   1.914   3.986 -0.0895 -0.1965  0.6349
43044SOL    HW139062   5.476   1.830   4.027  0.7464 -1.0390 -1.4410
43044SOL    HW239063   5.495   1.980   4.042  1.0494 -1.2943  1.1357
43045SOL     OW39064  11.896   3.231   7.870  0.4159  0.1655 -0.4409
43045SOL    HW139065  11.946   3.184   7.804 -0.3081 -0.8935 -0.2518
43045SOL    HW239066  11.869   3.312   7.826 -0.5102 -0.7600 -1.6327
43046SOL     OW39067   8.659   5.756  11.335 -0.0813  0.7336 -0.2896
43046SOL    HW139068   8.570   5.748  11.369  0.4084 -0.6541  0.7576
43046SOL    HW239069   8.702   5.818  11.394 -0.4937  1.8839 -1.1607
43047SOL     OW39070   5.841   9.424   2.041 -0.1483 -0.0332  0.0095
43047SOL    HW139071   5.797   9.391   1.963 -0.0565 -0.1704  0.0145
43047SOL    HW239072   5.771   9.461   2.095 -0.7078 -2.7327  1.3060
43048SOL     OW39073  11.522   7.369   0.271  0.4062 -0.1713 -0.6556
43048SOL    HW139074  11.434   7.379   0.306  0.8938  0.7290  0.3839
43048SOL    HW239075  11.509   7.338   0.181 -0.9246 -1.0618 -0.1889
43049SOL     OW39076   7.355  12.308   9.720 -0.4614 -0.1556  0.0402
43049SOL    HW139077   7.420  12.255   9.767 -0.0409 -0.7315 -1.1645
43049SOL    HW239078   7.401  12.390   9.701  0.0438 -0.6796 -1.0815
43050SOL     OW39079   8.279  11.265   1.915 -0.2829  0.1890 -0.4034
43050SOL    HW139080   8.335  11.343   1.906  1.0430 -0.7584 -0.7062
43050SOL    HW239081   8.218  11.287   1.984  1.2399  0.8447  0.7918
43051SOL     OW39082   5.536   8.965  11.859  0.0114  0.1884 -0.3187
43051SOL    HW139083   5.569   8.894  11.804 -0.8183 -2.1854  2.0512
43051SOL    HW239084   5.610   8.987  11.917  0.1058  0.9467 -0.7122
43052SOL     OW39085   6.640   0.739   3.840  0.2846 -0.1122  0.3311
43052SOL    HW139086   6.715   0.790   3.871  1.4413 -0.3929 -1.8171
43052SOL    HW239087   6.678   0.663   3.796 -1.2768 -0.5290 -0.3861
43053SOL     OW39088   2.396   2.849   1.349  0.2425  0.2869 -0.1230
43053SOL    HW139089   2.370   2.800   1.427  1.8421  1.6876  1.3691
43053SOL    HW239090   2.455   2.790   1.302  0.5576  0.0422  0.5792
43054SOL     OW39091   1.398   1.797   3.233 -0.0606  0.5665 -0.4843
43054SOL    HW139092   1.359   1.714   3.258  2.0625 -0.1576  0.6868
43054SOL    HW239093   1.423   1.837   3.316 -0.8809  2.3308 -1.0375
43055SOL     OW39094   6.233   6.947   9.120 -0.3471  0.0898  0.4500
43055SOL    HW139095   6.230   6.861   9.079  0.8511 -0.2675  1.0832
43055SOL    HW239096   6.324   6.959   9.144 -0.1505  2.2713 -1.1208
43056SOL     OW39097  12.039   5.497  12.510  0.1987 -0.5377  0.1886
43056SOL    HW139098  12.029   5.573  12.568  0.7278 -0.3029 -0.0096
43056SOL    HW239099  12.111   5.523  12.451 -0.5105 -0.6585 -0.7451
43057SOL     OW39100   2.195   4.943  11.879 -0.6159  0.0354 -0.3054
43057SOL    HW139101   2.118   4.908  11.923  0.3938 -0.4351  1.1429
43057SOL    HW239102   2.265   4.936  11.943  0.4825  1.1450 -1.3350
43058SOL     OW39103  13.260   2.148  11.937 -0.2014  0.3415 -0.0566
43058SOL    HW139104  13.196   2.196  11.885 -0.1245  0.8817  0.3391
43058SOL    HW239105  13.299   2.214  11.995  0.0086 -0.1678  0.3957
43059SOL     OW39106   4.041   3.743   0.761 -0.1133 -0.0599 -0.0261
43059SOL    HW139107   3.952   3.750   0.727 -0.3797 -0.1439  0.6363
43059SOL    HW239108   4.077   3.831   0.751 -1.5089  0.9981  2.9846
43060SOL     OW39109   2.619   3.326   9.710 -0.4078 -0.6241 -0.0463
43060SOL    HW139110   2.554   3.318   9.779 -1.4037 -1.3570 -1.0316
43060SOL    HW239111   2.601   3.411   9.669  0.4186 -0.0212  0.7943
43061SOL     OW39112   6.445   0.257   3.536  0.2374 -0.1188 -0.0995
43061SOL    HW139113   6.484   0.315   3.602  0.2338 -0.8396  0.5587
43061SOL    HW239114   6.412   0.316   3.469  0.9655  0.5988  0.1458
43062SOL     OW39115   0.218   3.307   5.714  0.1273  0.4296 -0.2596
43062SOL    HW139116   0.133   3.285   5.676  0.4411 -1.2114 -0.0818
43062SOL    HW239117   0.269   3.226   5.708  0.5659  0.3965  2.6610
43063SOL     OW39118  13.188  11.930   0.030 -0.1375  0.5621 -0.1895
43063SOL    HW139119  13.232  11.857   0.074  0.8405 -0.6997 -2.9901
43063SOL    HW239120  13.119  11.956   0.091  0.6162 -1.5021  1.7159
43064SOL     OW39121   0.454  13.133  12.176  0.2418 -0.4215  0.4672
43064SOL    HW139122   0.502  13.060  12.214 -2.2759 -1.6377  1.5316
43064SOL    HW239123   0.365  13.099  12.163 -0.4203  1.7401 -1.2426
43065SOL     OW39124  10.228   1.803   5.551  0.5962 -0.1970  0.0769
43065SOL    HW139125  10.313   1.819   5.509  0.0402  1.1220 -0.5995
43065SOL    HW239126  10.244   1.819   5.644  0.6650  2.1113 -0.2630
43066SOL     OW39127   9.870   4.866  11.178  0.3261 -0.2443  0.5111
43066SOL    HW139128   9.906   4.931  11.238 -0.1039 -0.3511  0.8923
43066SOL    HW239129   9.897   4.781  11.215  0.1838 -0.3069  0.4719
43067SOL     OW39130  10.024   7.885   2.085  0.8611 -0.1869 -0.1061
43067SOL    HW139131  10.072   7.871   2.166  1.4152 -2.0089 -0.7105
43067SOL    HW239132  10.089   7.920   2.024  1.1330 -1.3632 -0.5216
43068SOL     OW39133   0.186  10.051   3.116 -0.5476  0.1692 -0.1351
43068SOL    HW139134   0.131   9.994   3.170  1.4129 -0.8890  0.8555
43068SOL    HW239135   0.140  10.134   3.114 -1.7333 -0.3996  1.4144
43069SOL     OW39136   3.876   4.283  13.204  0.1007  0.0838  0.2534
43069SOL    HW139137   3.801   4.296  13.145  0.1789 -0.1240  0.1061
43069SOL    HW239138   3.883   4.188  13.212 -0.5396  0.1196  1.4155
43070SOL     OW39139   1.829  11.755   7.026 -0.0746  0.2094  0.3826
43070SOL    HW139140   1.739  11.732   7.049 -0.0613  1.9558  2.5415
43070SOL    HW239141   1.883  11.691   7.074 -0.1430  0.6989  1.1249
43071SOL     OW39142   3.387   2.579   7.735  0.0264 -0.5106  0.1506
43071SOL    HW139143   3.479   2.562   7.757 -0.2954 -1.0851  1.0958
43071SOL    HW239144   3.385   2.671   7.711  1.1436 -0.8574 -1.4819
43072SOL     OW39145   8.969   7.499   7.454  0.0156  0.4479  0.0155
43072SOL    HW139146   9.030   7.434   7.489  0.3090  1.0807  0.7139
43072SOL    HW239147   8.885   7.454   7.450 -0.2822  0.6424  2.5950
43073SOL     OW39148  10.550   2.763  11.347  0.5310  0.1013 -0.1586
43073SOL    HW139149  10.531   2.857  11.346 -0.3548 -0.0707 -0.8684
43073SOL    HW239150  10.508   2.730  11.426  1.1350  0.3480  0.2749
43074SOL     OW39151   4.594  11.973   9.966  0.0325 -0.0031  0.9130
43074SOL    HW139152   4.648  11.915   9.911  0.1800  0.3619  0.6721
43074SOL    HW239153   4.632  12.060   9.954  0.9083 -0.0994  2.6176
43075SOL     OW39154   7.789   9.434   0.063  0.4273 -0.2041  0.0224
43075SOL    HW139155   7.880   9.438   0.035  0.2296  0.2009 -0.5578
43075SOL    HW239156   7.794   9.432   0.159  1.0375 -0.0796 -0.0041
43076SOL     OW39157   5.210   9.597  11.364 -0.2676  0.2022  0.2661
43076SOL    HW139158   5.129   9.557  11.395 -1.4901  1.1037 -1.6387
43076SOL    HW239159   5.215   9.680  11.412 -1.6761  1.1746 -1.1976
43077SOL     OW39160   3.770   3.327   2.207  0.1244  0.3000 -0.0992
43077SOL    HW139161   3.844   3.272   2.231  0.1501  0.4322  0.1377
43077SOL    HW239162   3.806   3.415   2.202 -0.2667  0.5779  1.3614
43078SOL     OW39163   6.529   5.185   4.411 -0.0211 -0.4823  0.3864
43078SOL    HW139164   6.619   5.175   4.442 -0.2818 -0.9193  1.0163
43078SOL    HW239165   6.513   5.279   4.413  0.8943 -0.2569 -1.1048
43079SOL     OW39166  13.266   4.199   4.802 -0.2856 -0.0120 -0.3002
43079SOL    HW139167  13.218   4.133   4.753 -1.5844  1.3443 -0.9040
43079SOL    HW239168  13.350   4.157   4.822 -1.4444 -2.2141  0.2557
43080SOL     OW39169  10.248   5.990   7.825  0.3780 -0.1983  0.2783
43080SOL    HW139170  10.170   5.964   7.874  0.8877 -1.0561  0.6324
43080SOL    HW239171  10.220   5.987   7.733 -0.1509 -0.0050  0.4307
43081SOL     OW39172   4.011   3.760   0.243  0.3152 -0.2906  0.7970
43081SOL    HW139173   4.007   3.697   0.314  0.5697 -2.5200 -1.0483
43081SOL    HW239174   4.103   3.786   0.240  1.1961 -3.1652 -1.0224
43082SOL     OW39175   7.722   0.107   3.441 -0.5309  0.5223 -0.1259
43082SOL    HW139176   7.766   0.142   3.519 -1.0312  0.5799  0.1391
43082SOL    HW239177   7.752   0.163   3.370 -0.3814  0.7273  0.0932
43083SOL     OW39178   4.584   3.127  10.014 -0.3577  0.1054  0.0181
43083SOL    HW139179   4.593   3.071   9.937  0.3867  1.4086 -0.8856
43083SOL    HW239180   4.492   3.152  10.015 -0.5055 -0.4229 -0.0816
43084SOL     OW39181   6.177   4.601   5.025 -0.6323  0.1546  0.4014
43084SOL    HW139182   6.215   4.650   5.098  1.3840 -0.9596  0.1776
43084SOL    HW239183   6.240   4.613   4.953 -0.6761 -1.7524 -0.0076
43085SOL     OW39184   2.702   2.019  11.351 -0.3482  0.0029  0.2720
43085SOL    HW139185   2.629   1.988  11.296  0.3431 -0.4752 -0.4004
43085SOL    HW239186   2.738   1.939  11.390 -0.3451  0.2671  0.8185
43086SOL     OW39187  12.954   9.555   8.531 -0.1629  0.6825  0.0105
43086SOL    HW139188  12.891   9.483   8.529  1.0999 -0.4756  0.2835
43086SOL    HW239189  12.938   9.604   8.450 -0.2075 -0.6541 -0.8180
43087SOL     OW39190  12.839  10.043  11.321  0.2418 -0.3631 -0.3485
43087SOL    HW139191  12.778   9.970  11.328  2.7912 -2.5503  0.8966
43087SOL    HW239192  12.835  10.070  11.229 -0.9178 -1.9568 -0.7991
43088SOL     OW39193   9.136   8.879   0.473 -0.3040 -0.0696 -0.1234
43088SOL    HW139194   9.052   8.921   0.490 -1.8055 -2.6189 -0.7299
43088SOL    HW239195   9.117   8.785   0.473  2.4556 -0.7377 -0.8215
43089SOL     OW39196   3.687   8.786   6.963 -0.0200  0.4817  0.4687
43089SOL    HW139197   3.669   8.695   6.986  2.6984 -0.0977  0.5293
43089SOL    HW239198   3.711   8.783   6.870  1.7494  0.8326  0.8803
43090SOL     OW39199  10.117  10.777   0.556  0.5388  0.1665  0.5792
43090SOL    HW139200  10.144  10.771   0.648 -0.8139  0.6683  1.0328
43090SOL    HW239201  10.086  10.867   0.546 -0.5283 -0.2558 -0.0253
43091SOL     OW39202   8.106   0.243  12.578 -0.1173  0.3048  0.1557
43091SOL    HW139203   8.012   0.258  12.569 -0.0005  0.1256 -1.8543
43091SOL    HW239204   8.118   0.152  12.550  0.5831  0.0552  1.1808
43092SOL     OW39205   6.136   2.181  10.915 -0.1333  0.1199 -0.5325
43092SOL    HW139206   6.146   2.197  10.821 -1.3225 -0.9581 -0.8781
43092SOL    HW239207   6.050   2.139  10.923 -1.7103  3.3608  1.4472
43093SOL     OW39208  10.963   2.632   7.375 -0.3440  0.7701 -0.2914
43093SOL    HW139209  11.002   2.705   7.422 -0.9270  0.9719 -0.1088
43093SOL    HW239210  10.881   2.667   7.339 -1.6602 -0.3039  1.4749
43094SOL     OW39211   0.731   1.098   1.068 -0.0453  0.1204  0.5655
43094SOL    HW139212   0.670   1.034   1.031 -0.6688  1.1131 -0.1876
43094SOL    HW239213   0.705   1.105   1.160  0.4084 -1.1161  0.8038
43095SOL     OW39214   1.529  11.257  11.705  0.2669  0.2902  0.0038
43095SOL    HW139215   1.508  11.164  11.700  1.2571  0.0221  0.6178
43095SOL    HW239216   1.511  11.281  11.796 -1.7715  1.1688 -0.5751
43096SOL     OW39217  11.874   5.681   5.763 -0.2697  0.2138 -0.5479
43096SOL    HW139218  11.797   5.697   5.710 -0.0711 -0.9912 -1.2359
43096SOL    HW239219  11.842   5.679   5.853 -1.4761 -2.5816 -0.9703
43097SOL     OW39220  10.536   9.545  12.577  0.1731  0.3534 -0.0345
43097SOL    HW139221  10.494   9.460  12.568  0.1528  0.3047  0.5060
43097SOL    HW239222  10.574   9.544  12.665 -0.4193  1.1569  0.2414
43098SOL     OW39223   4.923   9.139   6.039 -0.7355 -0.7709  0.2374
43098SOL    HW139224   4.882   9.115   5.955 -0.0018 -0.6390 -0.1650
43098SOL    HW239225   4.993   9.200   6.015 -1.6991  0.7306  1.1263
43099SOL     OW39226   3.507   3.425  12.965 -0.3162 -0.1763 -0.1003
43099SOL    HW139227   3.480   3.482  12.893 -0.7494 -0.0671  0.1451
43099SOL    HW239228   3.432   3.369  12.982  0.5428 -1.6877 -1.1558
43100SOL     OW39229   8.533   2.786   2.710  0.0211  0.0625 -0.5563
43100SOL    HW139230   8.612   2.839   2.698 -1.4548  2.7710  0.8823
43100SOL    HW239231   8.500   2.773   2.621  3.0367 -2.9836 -1.4647
43101SOL     OW39232   3.884   9.794  10.873 -0.8990 -0.2970  0.1490
43101SOL    HW139233   3.844   9.879  10.888  0.8124  0.4873  0.5272
43101SOL    HW239234   3.968   9.799  10.918 -0.1963 -1.7243 -0.9306
43102SOL     OW39235   8.508   9.251  10.078  0.0021 -0.4160 -0.4426
43102SOL    HW139236   8.542   9.330  10.036 -1.5834  0.1443 -0.7487
43102SOL    HW239237   8.572   9.230  10.145  1.1233  0.3578 -1.2380
43103SOL     OW39238   8.634   7.844   5.894  0.6708 -0.8643 -0.2371
43103SOL    HW139239   8.714   7.800   5.863  1.4640  0.9821 -0.9587
43103SOL    HW239240   8.563   7.787   5.866  1.6775 -1.9938 -0.5885
43104SOL     OW39241   2.777   1.265  10.432  0.3615 -0.0352  0.3064
43104SOL    HW139242   2.832   1.342  10.420  0.5081  0.0094  1.1915
43104SOL    HW239243   2.830   1.193  10.398  0.4335  0.1781 -0.0449
43105SOL     OW39244  10.590  10.108   9.782 -0.1582  0.4151 -0.3596
43105SOL    HW139245  10.532  10.183   9.794  0.0290  0.7947 -1.6486
43105SOL    HW239246  10.580  10.084   9.690  1.1479  0.0147 -0.4269
43106SOL     OW39247   7.605   2.545   3.436 -0.1814  0.5070  0.4428
43106SOL    HW139248   7.625   2.602   3.361 -2.2446 -0.4533 -0.9296
43106SOL    HW239249   7.636   2.459   3.409 -1.8579 -0.0560  0.2126
43107SOL     OW39250  10.565   2.614   4.126  0.4776  0.1529  0.0514
43107SOL    HW139251  10.645   2.659   4.101  0.6993 -0.0998  0.3015
43107SOL    HW239252  10.543   2.649   4.212 -0.3584  1.1203 -0.5200
43108SOL     OW39253   2.919   1.526   6.524  0.5284  0.0119  0.1631
43108SOL    HW139254   2.894   1.517   6.432  0.4164 -0.9333  0.2719
43108SOL    HW239255   2.855   1.587   6.561  1.2210  1.2494 -0.6181
43109SOL     OW39256  13.164   5.425  11.235  0.1682  0.1122 -0.1013
43109SOL    HW139257  13.247   5.431  11.282  0.4081  0.3594 -0.5444
43109SOL    HW239258  13.179   5.476  11.155  1.0038 -3.1927 -2.2239
43110SOL     OW39259   7.505  10.416   6.340 -0.0539 -0.0732  0.3238
43110SOL    HW139260   7.552  10.473   6.279 -0.1549  1.1764  1.3787
43110SOL    HW239261   7.514  10.458   6.425 -0.8815 -1.1861  0.9967
43111SOL     OW39262   6.650   1.011  10.924 -0.3892  0.3081 -0.2528
43111SOL    HW139263   6.726   0.966  10.886 -0.8378 -1.2326  0.5636
43111SOL    HW239264   6.585   1.010  10.854 -0.2721 -0.0293 -0.3628
43112SOL     OW39265  10.270   3.324   1.826  0.1831  0.3286 -0.1638
43112SOL    HW139266  10.179   3.295   1.825 -0.1704  1.3798 -0.1086
43112SOL    HW239267  10.291   3.343   1.735  0.0385  0.9515 -0.0775
43113SOL     OW39268   9.519  10.885   1.778 -0.1945 -0.0350 -0.0781
43113SOL    HW139269   9.570  10.850   1.705  0.2873 -1.1384  0.7401
43113SOL    HW239270   9.478  10.807   1.817 -0.5375  0.5458  0.7406
43114SOL     OW39271  11.034   9.587  11.756 -0.4201  0.1456 -0.5595
43114SOL    HW139272  10.978   9.643  11.811  0.1888 -0.2588  0.4939
43114SOL    HW239273  11.091   9.649  11.711  0.8416  0.3800  1.2607
43115SOL     OW39274   4.749   0.596   8.866 -0.1156 -0.4799  0.1241
43115SOL    HW139275   4.813   0.644   8.919  0.7350 -1.0169 -0.3840
43115SOL    HW239276   4.731   0.517   8.917  0.4984 -0.8677 -0.2444
43116SOL     OW39277   2.038  12.732   0.137 -0.5065  0.5614 -0.5377
43116SOL    HW139278   1.992  12.663   0.089  1.2330 -0.7778 -0.3858
43116SOL    HW239279   1.969  12.776   0.188 -1.7839 -0.5211 -1.2565
43117SOL     OW39280  13.000   9.675   8.113 -0.2748 -0.1649  0.7948
43117SOL    HW139281  12.977   9.670   8.206  0.5325 -0.6557  0.9739
43117SOL    HW239282  13.045   9.593   8.095 -2.8661 -1.3643 -0.7387
43118SOL     OW39283   6.827   5.643  11.666 -0.7624  0.4590  0.1532
43118SOL    HW139284   6.806   5.621  11.756 -0.9217  0.3301  0.0870
43118SOL    HW239285   6.759   5.705  11.640  0.2370  1.7887  0.6411
43119SOL     OW39286  13.157   9.423   6.615  0.2296 -0.1132  0.1867
43119SOL    HW139287  13.174   9.352   6.677 -1.6418  1.4906  2.7651
43119SOL    HW239288  13.238   9.475   6.614  0.4218 -0.3757  1.0593
43120SOL     OW39289   2.577   2.455   6.036 -0.3388 -0.0250 -0.2000
43120SOL    HW139290   2.610   2.372   6.071  1.1278  0.0552 -1.2988
43120SOL    HW239291   2.589   2.517   6.108 -1.1687 -0.6911  0.5283
43121SOL     OW39292  11.031  12.714   5.660  0.0424 -0.1003 -0.2807
43121SOL    HW139293  10.994  12.770   5.728 -1.3967 -1.1021 -0.2025
43121SOL    HW239294  10.996  12.627   5.678  1.9901 -1.0162 -0.5614
43122SOL     OW39295   4.390   0.407   3.222 -0.3981 -0.2764 -0.1616
43122SOL    HW139296   4.382   0.501   3.238 -0.4087 -0.2807 -0.1420
43122SOL    HW239297   4.303   0.371   3.241 -0.0538 -0.4772  1.1539
43123SOL     OW39298   7.258  12.246   3.948 -0.3866 -0.1326 -0.3039
43123SOL    HW139299   7.277  12.283   3.862  0.6094  1.2024  0.4585
43123SOL    HW239300   7.329  12.183   3.964  0.5448  1.0426  0.3352
43124SOL     OW39301   9.871   5.193   7.484 -0.0874 -0.4023 -0.0850
43124SOL    HW139302   9.935   5.213   7.416 -0.8044  0.8252 -0.4317
43124SOL    HW239303   9.788   5.184   7.437 -0.8294  1.6827  0.6855
43125SOL     OW39304   3.497   9.547   7.379  0.2375 -0.5503  0.3242
43125SOL    HW139305   3.495   9.638   7.410  0.5700 -0.6578  0.6615
43125SOL    HW239306   3.581   9.539   7.334  0.5155 -0.8825  0.8858
43126SOL     OW39307   4.114   6.585  10.413  0.4438  0.1804 -0.8127
43126SOL    HW139308   4.031   6.627  10.436  0.0679 -0.7423 -0.4328
43126SOL    HW239309   4.180   6.653  10.426 -0.1832  0.7420 -0.5063
43127SOL     OW39310   6.890   9.470  12.608  0.4645 -0.2575 -0.1974
43127SOL    HW139311   6.889   9.565  12.594  0.6556 -0.0199  1.2291
43127SOL    HW239312   6.923   9.460  12.698 -2.3901 -1.5147  0.8401
43128SOL     OW39313  13.300   0.472   4.655  0.2870  0.2990  0.0280
43128SOL    HW139314  13.217   0.488   4.609 -0.6051 -3.5122 -0.0768
43128SOL    HW239315  13.367   0.483   4.588 -0.4834  0.3263 -0.7562
43129SOL     OW39316  12.245   8.249   9.251  0.0462  0.2078  0.3907
43129SOL    HW139317  12.224   8.254   9.344  0.1692  0.3891  0.4095
43129SOL    HW239318  12.305   8.175   9.243  0.5723  0.6097  0.5552
43130SOL     OW39319   0.778   7.806   0.529  0.2438 -0.1737  0.4268
43130SOL    HW139320   0.798   7.886   0.481  0.2847 -0.9782 -0.9395
43130SOL    HW239321   0.765   7.836   0.619  2.2257  1.1101  0.3653
43131SOL     OW39322   0.046   6.181   7.258  0.1305 -0.0287  0.1595
43131SOL    HW139323  -0.039   6.210   7.224 -0.3444  0.8153  1.9421
43131SOL    HW239324   0.034   6.177   7.352  1.7106 -1.2002  0.3482
43132SOL     OW39325   4.874   5.450  11.687  0.2585 -0.2250  0.0378
43132SOL    HW139326   4.856   5.404  11.769 -0.7639  0.5546  0.2809
43132SOL    HW239327   4.938   5.517  11.711  0.0214 -0.0506  0.1984
43133SOL     OW39328   6.000  11.597  12.863 -0.7820  0.0727 -0.1190
43133SOL    HW139329   5.932  11.531  12.854  1.6278 -2.8264  1.2961
43133SOL    HW239330   6.035  11.607  12.774 -0.7741 -1.0574 -0.2550
43134SOL     OW39331   5.638   6.543  10.719 -0.3751 -0.2116 -0.3711
43134SOL    HW139332   5.657   6.629  10.683  1.2295 -1.2209 -2.1029
43134SOL    HW239333   5.723   6.508  10.744 -0.9299 -1.5019 -0.2308
43135SOL     OW39334  11.260   7.620   4.674  0.7427  0.7791  0.3691
43135SOL    HW139335  11.280   7.585   4.761  0.4490 -2.0063 -0.5773
43135SOL    HW239336  11.326   7.580   4.617 -1.8035 -1.2834 -1.3609
43136SOL     OW39337   9.842   9.042   2.149 -0.6955 -0.5095 -0.0973
43136SOL    HW139338   9.815   9.105   2.216 -3.3868 -0.7563 -0.8299
43136SOL    HW239339   9.864   8.963   2.199  0.0187  0.1486  0.6538
43137SOL     OW39340   7.753   9.101   1.346  0.3219 -0.1664  0.2773
43137SOL    HW139341   7.688   9.142   1.288 -2.3277 -1.4017  2.1754
43137SOL    HW239342   7.780   9.022   1.299 -1.2228 -0.7590  0.3208
43138SOL     OW39343   9.105  10.200   3.075 -0.1637  0.5479  0.1453
43138SOL    HW139344   9.131  10.288   3.049 -1.5345  1.2322  0.9322
43138SOL    HW239345   9.115  10.147   2.996  0.6491  1.4157 -0.3509
43139SOL     OW39346   9.913  11.936   7.381  0.4250 -0.4586  0.2704
43139SOL    HW139347   9.993  11.978   7.350 -0.2304  0.1736 -0.6407
43139SOL    HW239348   9.846  12.005   7.378 -0.7530 -1.5843 -1.5784
43140SOL     OW39349   2.666  12.868   8.158 -0.0775 -0.1040  0.3959
43140SOL    HW139350   2.615  12.813   8.099  0.3032 -1.6729  1.4931
43140SOL    HW239351   2.701  12.808   8.224 -1.6638  1.7541  3.1254
43141SOL     OW39352   9.860   6.567   0.347  0.3424 -0.3614 -0.6843
43141SOL    HW139353   9.794   6.630   0.378  0.3358 -0.6911 -0.0088
43141SOL    HW239354   9.927   6.567   0.415 -0.0495 -1.6791 -0.2765
43142SOL     OW39355  10.527  13.120  10.949 -0.5237 -0.3335  0.2223
43142SOL    HW139356  10.588  13.062  10.904  0.1147 -1.3203  2.2472
43142SOL    HW239357  10.559  13.208  10.931 -0.8037 -0.6255 -1.9025
43143SOL     OW39358  12.926   8.800   7.614  0.1446 -0.8760  0.0152
43143SOL    HW139359  12.923   8.809   7.519  3.2079 -2.2438 -0.3248
43143SOL    HW239360  12.954   8.886   7.645 -0.1993 -0.6221 -0.3587
43144SOL     OW39361   9.853   4.011   2.200  0.3504 -0.5139 -0.8918
43144SOL    HW139362   9.862   4.010   2.105  1.6518  0.4768 -0.8131
43144SOL    HW239363   9.903   4.088   2.227 -1.7043  0.4233  0.4352
43145SOL     OW39364   2.810  12.902   3.010  0.8613 -0.3372  0.0448
43145SOL    HW139365   2.727  12.948   3.023  1.3969  1.0677 -1.1494
43145SOL    HW239366   2.844  12.889   3.099 -0.6750 -1.0662  0.5623
43146SOL     OW39367  11.219   4.956   0.664 -0.1584  0.6839 -0.2743
43146SOL    HW139368  11.221   5.044   0.628  1.0199  0.7193 -0.1603
43146SOL    HW239369  11.177   4.903   0.596  0.4573  1.0688 -0.9666
43147SOL     OW39370  10.112   8.463   5.975  0.0983 -1.3170 -0.6264
43147SOL    HW139371  10.203   8.490   5.961  0.2613 -2.6043 -2.4088
43147SOL    HW239372  10.117   8.389   6.035  0.1561 -0.9030 -0.1216
43148SOL     OW39373   6.666   6.015   4.488 -0.1514 -0.3256 -0.7352
43148SOL    HW139374   6.731   5.981   4.426  0.0061  2.1683 -2.0580
43148SOL    HW239375   6.582   5.996   4.448 -0.1491 -0.9879 -0.4364
43149SOL     OW39376   9.301  10.348   3.619 -0.0188 -0.0070  0.4973
43149SOL    HW139377   9.312  10.404   3.543 -0.3969 -2.2709 -1.3247
43149SOL    HW239378   9.382  10.361   3.670 -0.7294  3.2431  1.0170
43150SOL     OW39379   2.106  12.729   6.107 -0.8847  0.0062  0.1251
43150SOL    HW139380   2.072  12.643   6.130  3.8075 -2.0296  0.5519
43150SOL    HW239381   2.115  12.727   6.012  0.8463 -0.7962  0.2675
43151SOL     OW39382   1.900  13.037  11.369 -0.0998 -0.2311 -0.1046
43151SOL    HW139383   1.879  12.954  11.327 -0.0159  0.0713 -0.7609
43151SOL    HW239384   1.832  13.049  11.435 -0.2022 -0.7415 -0.1161
43152SOL     OW39385  13.238  11.700   6.888  0.3344 -0.1310  0.3165
43152SOL    HW139386  13.219  11.607   6.876  0.1772 -0.0215 -0.3006
43152SOL    HW239387  13.302  11.720   6.819  0.5509  0.1628  0.6005
43153SOL     OW39388   3.922   1.419   1.914  0.6481  0.6709  0.3628
43153SOL    HW139389   3.967   1.423   1.830  2.1834  0.1244  1.1174
43153SOL    HW239390   3.837   1.459   1.898  1.5394  2.1118 -1.0228
43154SOL     OW39391  12.313   9.400   7.901  0.4554  0.1982  0.2344
43154SOL    HW139392  12.361   9.358   7.829 -0.5772 -0.6850  0.0326
43154SOL    HW239393  12.311   9.493   7.877  0.5336 -0.0110 -0.6476
43155SOL     OW39394   8.046  12.360  12.007 -0.1253 -0.4791  0.0765
43155SOL    HW139395   7.968  12.410  12.031  1.8460  2.8011  0.2603
43155SOL    HW239396   8.074  12.319  12.089 -0.5924 -0.1325  0.4145
43156SOL     OW39397  11.998  12.238   9.988 -0.2624 -0.1086  0.5115
43156SOL    HW139398  11.936  12.183  10.035  1.1351 -0.2058  2.3498
43156SOL    HW239399  11.945  12.308   9.951 -1.8386 -1.7278 -0.4306
43157SOL     OW39400   4.699  12.686   4.281 -0.2981 -0.2517  0.3619
43157SOL    HW139401   4.676  12.668   4.372 -0.0817  1.2042  0.7200
43157SOL    HW239402   4.722  12.600   4.245  2.4198 -0.5261  2.4493
43158SOL     OW39403  10.689  11.766   6.241 -0.2068 -0.2961  0.1551
43158SOL    HW139404  10.613  11.783   6.297 -1.5129 -0.1274 -1.5913
43158SOL    HW239405  10.670  11.813   6.160  0.7534 -1.9696 -1.1176
43159SOL     OW39406  12.273   7.083   9.177  0.5304 -0.5975  0.6445
43159SOL    HW139407  12.268   7.097   9.272 -0.1462  0.0556  0.5228
43159SOL    HW239408  12.256   6.989   9.165  0.1794 -0.6022  1.1448
43160SOL     OW39409   4.660   0.289   5.401  0.0519 -0.5568  0.1141
43160SOL    HW139410   4.566   0.271   5.396  0.0218 -0.4343  0.2144
43160SOL    HW239411   4.695   0.258   5.318  0.0977 -1.5874  0.5107
43161SOL     OW39412   8.591   0.138  12.508  0.1261  0.2981  0.0444
43161SOL    HW139413   8.650   0.066  12.487  0.6682  0.6229  0.4182
43161SOL    HW239414   8.578   0.131  12.603 -2.4319 -1.2596 -0.3228
43162SOL     OW39415   3.620   3.272   9.853 -0.3046 -0.0212 -0.4362
43162SOL    HW139416   3.542   3.221   9.830 -0.5095  0.3297 -0.5143
43162SOL    HW239417   3.693   3.216   9.825 -0.4182 -1.5324  1.9889
43163SOL     OW39418   5.020  12.128   7.093  0.2936 -0.0446 -0.5432
43163SOL    HW139419   5.089  12.095   7.035 -0.4083  0.4205 -1.6827
43163SOL    HW239420   4.947  12.068   7.080 -0.2245  0.6617 -0.9437
43164SOL     OW39421   5.965   1.876   2.158  0.1443  0.2907  0.5129
43164SOL    HW139422   5.890   1.895   2.101  0.5986  0.3916 -0.0638
43164SOL    HW239423   6.037   1.927   2.120  0.3286  0.7802  1.4943
43165SOL     OW39424   4.997   7.347   8.836  0.1255 -0.4145  0.8368
43165SOL    HW139425   5.081   7.306   8.818 -0.3868 -1.3018  0.3644
43165SOL    HW239426   5.019   7.430   8.878  1.2406 -0.3569  0.1817
43166SOL     OW39427   7.382   6.537  12.669  0.2593  0.3215 -0.0192
43166SOL    HW139428   7.379   6.445  12.643  1.9009  0.4242 -0.6442
43166SOL    HW239429   7.360   6.586  12.589 -1.2108  0.4822  0.4566
43167SOL     OW39430   2.562  10.353  12.139  0.5559  0.2110  0.3799
43167SOL    HW139431   2.629  10.364  12.206 -0.0334  2.8621  0.6487
43167SOL    HW239432   2.486  10.401  12.173 -0.9138 -1.2397 -0.6956
43168SOL     OW39433  10.877  10.000   8.931  0.0608 -0.2217 -0.7126
43168SOL    HW139434  10.880   9.912   8.893  0.9774 -1.2939  1.6191
43168SOL    HW239435  10.805   9.997   8.994  0.9815  0.2045  0.4039
43169SOL     OW39436   9.042  11.012  11.665  0.2685 -0.4604 -0.0752
43169SOL    HW139437   8.953  10.976  11.666 -0.3085  0.8957 -0.0408
43169SOL    HW239438   9.095  10.946  11.709 -1.2235 -0.0939  2.4964
43170SOL     OW39439   1.865   7.463   8.321  0.4592  0.2907 -0.4982
43170SOL    HW139440   1.903   7.550   8.307 -1.4048  1.0814 -0.9754
43170SOL    HW239441   1.926   7.403   8.279  2.4719  1.1973  0.9505
43171SOL     OW39442   7.325  10.653   2.879 -0.2886 -1.0063 -0.5762
43171SOL    HW139443   7.397  10.634   2.940  0.2107 -0.2693 -0.9164
43171SOL    HW239444   7.272  10.719   2.925 -0.1473 -0.7646 -0.7547
43172SOL     OW39445   7.730   4.004   6.461 -0.3081 -0.0775 -0.0126
43172SOL    HW139446   7.778   3.946   6.403 -3.9509 -1.3319 -2.1337
43172SOL    HW239447   7.689   3.946   6.525  0.0198  0.7711  0.9824
43173SOL     OW39448   5.181  12.742   6.281 -0.4843 -0.2791 -0.7868
43173SOL    HW139449   5.144  12.728   6.368  2.5036 -1.3071  0.4532
43173SOL    HW239450   5.142  12.673   6.227 -1.6795 -0.1905 -0.0772
43174SOL     OW39451   4.744   7.879   4.596 -0.9234 -0.4479  0.9064
43174SOL    HW139452   4.695   7.956   4.622 -0.5589 -0.4792  1.7002
43174SOL    HW239453   4.743   7.822   4.673  0.6655 -0.2906  1.0795
43175SOL     OW39454  10.190   2.912  12.202  0.0665 -0.0590 -0.2391
43175SOL    HW139455  10.283   2.903  12.181 -0.1802  0.4225 -1.6842
43175SOL    HW239456  10.146   2.895  12.119 -1.0818  0.5707  0.2301
43176SOL     OW39457   0.439  11.730  13.188 -0.3005  0.1895  0.5697
43176SOL    HW139458   0.385  11.801  13.153 -0.8397  0.2026  1.4103
43176SOL    HW239459   0.459  11.757  13.278 -0.8183 -0.8991  1.0242
43177SOL     OW39460   8.451   9.082   0.549 -0.3505 -0.0201 -0.2194
43177SOL    HW139461   8.542   9.054   0.559  0.2835  1.6032 -1.1146
43177SOL    HW239462   8.423   9.044   0.466 -0.3625 -0.1820 -0.1421
43178SOL     OW39463   1.907   2.319   6.635  0.3638 -0.4745  0.1516
43178SOL    HW139464   1.887   2.241   6.687  1.0904 -0.5545  0.3144
43178SOL    HW239465   2.002   2.324   6.634  0.3349  0.0920 -0.3398
43179SOL     OW39466   6.403  11.769   6.387  0.3511 -0.1064 -0.0988
43179SOL    HW139467   6.464  11.806   6.451  1.5499 -1.5308 -0.3645
43179SOL    HW239468   6.413  11.824   6.310  0.1366  0.6105  0.3746
43180SOL     OW39469   0.577   3.899   3.430  0.0545  0.3419 -0.3154
43180SOL    HW139470   0.498   3.951   3.444  0.6225  0.9437  0.8567
43180SOL    HW239471   0.607   3.878   3.519 -0.3327 -2.3090 -0.7418
43181SOL     OW39472  12.175   2.958   4.496 -0.2888  0.2501  0.2023
43181SOL    HW139473  12.136   2.951   4.584 -1.0880 -2.1324 -0.2688
43181SOL    HW239474  12.201   2.869   4.474  1.5682  1.0911 -1.2942
43182SOL     OW39475  12.648  11.743   4.674 -0.6394 -0.1208  0.2768
43182SOL    HW139476  12.664  11.837   4.663  0.1638 -0.2804 -0.0362
43182SOL    HW239477  12.614  11.714   4.590 -1.6277  0.0270  0.6191
43183SOL     OW39478   1.849  11.778   2.430  0.2102  0.2531  0.3571
43183SOL    HW139479   1.931  11.745   2.393 -0.2736  0.2216 -0.7326
43183SOL    HW239480   1.870  11.865   2.463  0.8144  0.0056  0.6366
43184SOL     OW39481   5.520   6.153   4.542 -0.3749  0.5503 -0.0627
43184SOL    HW139482   5.539   6.236   4.499  0.8185  0.5659  0.4436
43184SOL    HW239483   5.536   6.086   4.476 -0.0417  0.6601 -0.0954
43185SOL     OW39484   9.534  12.898  10.368 -1.0537  0.3407  0.5097
43185SOL    HW139485   9.469  12.950  10.320 -1.6590 -1.1329 -0.3184
43185SOL    HW239486   9.606  12.959  10.383 -1.9293  1.5502 -0.0133
43186SOL     OW39487   4.420   7.153   2.321  0.1095 -0.0001 -0.0208
43186SOL    HW139488   4.492   7.097   2.348  1.7568  0.3036 -3.2235
43186SOL    HW239489   4.454   7.242   2.328  0.3086  0.1272 -1.9668
43187SOL     OW39490  11.038   5.032   6.432 -0.0278 -0.1840  0.6513
43187SOL    HW139491  11.065   4.944   6.457 -1.4751 -1.1808 -1.0812
43187SOL    HW239492  11.086   5.090   6.492  1.6384 -2.0742  1.2373
43188SOL     OW39493   0.164   1.819   2.258 -0.0745 -0.1607  0.0994
43188SOL    HW139494   0.193   1.860   2.177  1.0280  0.1859  0.6410
43188SOL    HW239495   0.072   1.841   2.265 -0.1901 -0.2186 -1.0638
43189SOL     OW39496   5.012   1.550   6.453  0.3699  0.2937 -0.1742
43189SOL    HW139497   4.965   1.589   6.527  2.1538 -1.8938  2.3059
43189SOL    HW239498   4.973   1.463   6.443  0.1610  0.5520 -1.8899
43190SOL     OW39499   9.096   2.073  12.140 -0.1469  0.4573  0.0328
43190SOL    HW139500   9.022   2.114  12.183 -0.9940  0.3102 -1.2168
43190SOL    HW239501   9.087   2.098  12.048  0.2208 -1.1721 -0.4795
43191SOL     OW39502   9.960   9.305   8.325  0.0650  0.1676  0.5841
43191SOL    HW139503  10.009   9.224   8.315 -0.8920 -0.4866  1.0140
43191SOL    HW239504   9.925   9.301   8.414 -2.9886 -0.6982 -0.5332
43192SOL     OW39505   8.988   7.449   1.226  0.0491  0.1173 -0.8199
43192SOL    HW139506   9.017   7.362   1.198  1.9116 -0.1758  1.7148
43192SOL    HW239507   9.019   7.507   1.156  0.8049 -0.9911 -1.4548
43193SOL     OW39508   4.085   4.725  11.176  0.5368 -0.4440  0.2533
43193SOL    HW139509   4.108   4.807  11.220  0.1560  0.3669 -1.0160
43193SOL    HW239510   3.991   4.715  11.191  0.5635 -0.6081  0.3173
43194SOL     OW39511   1.843   4.631   5.137  0.0673  0.6964  0.3219
43194SOL    HW139512   1.821   4.715   5.178  1.7461  1.0320  0.5995
43194SOL    HW239513   1.933   4.642   5.107  0.4563 -1.1462  0.7176
43195SOL     OW39514  12.215   6.062   9.819  0.2087  0.1335 -0.2761
43195SOL    HW139515  12.219   6.086   9.727 -1.1081  0.2063 -0.3436
43195SOL    HW239516  12.260   6.133   9.865 -1.6839  1.6630 -0.6522
43196SOL     OW39517   3.839   7.606   9.488 -0.1664 -0.2595  0.1284
43196SOL    HW139518   3.932   7.596   9.509 -0.4775 -1.1400  1.1779
43196SOL    HW239519   3.803   7.654   9.563 -0.5464  0.1391 -0.3099
43197SOL     OW39520   6.848   6.800  12.596  0.3149 -0.0153 -0.0849
43197SOL    HW139521   6.890   6.861  12.536 -0.4619  0.3899 -0.2259
43197SOL    HW239522   6.779   6.852  12.639  1.6229  0.0724  2.0662
43198SOL     OW39523   2.828  12.800  13.146  0.1704 -0.0407 -0.8395
43198SOL    HW139524   2.811  12.820  13.053 -0.1066 -0.2013 -0.8221
43198SOL    HW239525   2.849  12.707  13.147  2.4843  0.3970 -1.0639
43199SOL     OW39526   2.568  13.026  11.630 -0.5063  0.1619 -0.2462
43199SOL    HW139527   2.612  13.098  11.674 -1.7628  1.0323 -0.3508
43199SOL    HW239528   2.628  12.952  11.639  0.1959  0.8519  1.0712
43200SOL     OW39529   2.830   6.368   9.739  0.2395  0.1432  0.0332
43200SOL    HW139530   2.748   6.340   9.779  0.5384 -0.2986  0.3510
43200SOL    HW239531   2.847   6.302   9.671  0.1497  0.4318 -0.2696
43201SOL     OW39532   3.885   3.719   9.949  0.2043  0.4085  0.1144
43201SOL    HW139533   3.893   3.783   9.878 -0.4465 -0.9025 -1.1771
43201SOL    HW239534   3.795   3.686   9.942  0.9957 -1.8039 -0.2802
43202SOL     OW39535   6.158   6.756   0.613 -0.6933  0.8891 -0.4263
43202SOL    HW139536   6.168   6.664   0.591  0.5179  1.0073 -0.4468
43202SOL    HW239537   6.072   6.762   0.655 -1.1775 -0.0755 -1.2583
43203SOL     OW39538  11.434   9.553   6.290  0.5627 -0.5302  0.5064
43203SOL    HW139539  11.527   9.556   6.314  0.6108 -0.4166  0.3102
43203SOL    HW239540  11.426   9.474   6.235  0.7639  0.0405 -0.3637
43204SOL     OW39541  10.886  11.131   1.170  0.2915  0.3186  0.5659
43204SOL    HW139542  10.842  11.206   1.210  0.8254  0.6814  0.4860
43204SOL    HW239543  10.959  11.169   1.121  1.4011 -0.3429  1.6257
43205SOL     OW39544   8.554   7.192   8.191  0.5339 -0.2440  0.2817
43205SOL    HW139545   8.586   7.176   8.102 -0.2596  2.4496 -0.5802
43205SOL    HW239546   8.459   7.188   8.183  0.4754 -1.4309  1.3613
43206SOL     OW39547   6.826  11.246   9.693 -0.0878 -0.6968  0.1839
43206SOL    HW139548   6.777  11.322   9.722  1.2804  0.1708  0.3338
43206SOL    HW239549   6.760  11.185   9.661 -1.1573  1.0388 -1.0963
43207SOL     OW39550  11.129  10.404   2.068  0.3689 -0.1837  0.1295
43207SOL    HW139551  11.142  10.433   1.978 -0.2311 -0.6173 -0.1015
43207SOL    HW239552  11.130  10.308   2.063  1.7969 -0.2436  0.7989
43208SOL     OW39553  10.827   1.698   2.303  0.4890  0.4098  0.3835
43208SOL    HW139554  10.750   1.642   2.304  1.3850 -1.0112 -2.4590
43208SOL    HW239555  10.879   1.669   2.378  0.7613 -2.4256 -0.7865
43209SOL     OW39556  10.424   0.370   6.416 -0.0679  0.2280  0.0623
43209SOL    HW139557  10.350   0.316   6.391  1.6958 -2.7702  0.7737
43209SOL    HW239558  10.456   0.408   6.334 -1.6253  0.5801 -0.4019
43210SOL     OW39559  10.570   5.621  11.246  0.3855  0.1932  0.3446
43210SOL    HW139560  10.624   5.555  11.291 -0.0429  0.2515  0.9575
43210SOL    HW239561  10.520   5.662  11.316 -0.7887 -0.1712 -0.2616
43211SOL     OW39562   0.337   1.958   6.091 -0.0610 -0.4631  0.1876
43211SOL    HW139563   0.379   1.924   6.012 -1.4273  0.5090 -1.0241
43211SOL    HW239564   0.406   2.004   6.138  0.3874  0.6743 -1.4911
43212SOL     OW39565  12.865   0.008   2.053  0.6932  0.0208 -0.2019
43212SOL    HW139566  12.960   0.002   2.053  0.7483  0.7867 -0.3928
43212SOL    HW239567  12.846   0.087   2.105  0.0545 -1.6113  2.2125
43213SOL     OW39568   0.534   2.220   5.605  0.6045 -0.2456 -0.8734
43213SOL    HW139569   0.553   2.313   5.592  0.7837 -0.1636 -0.0872
43213SOL    HW239570   0.592   2.193   5.676 -1.6266 -0.1779  1.1137
43214SOL     OW39571   8.661  12.894   3.109  0.2982 -0.1545  0.5176
43214SOL    HW139572   8.605  12.960   3.069  0.0502 -0.1046  0.9382
43214SOL    HW239573   8.722  12.869   3.040 -1.7910 -2.0395 -0.7678
43215SOL     OW39574   4.269  11.604  10.546 -0.4404  0.3162  0.7283
43215SOL    HW139575   4.294  11.669  10.612  0.5348  1.5694 -0.7936
43215SOL    HW239576   4.300  11.641  10.463 -2.2046 -0.8815 -0.5436
43216SOL     OW39577   6.663   6.244   3.354 -0.3303 -0.1110 -0.0015
43216SOL    HW139578   6.620   6.229   3.270  0.8640 -2.8970 -0.2265
43216SOL    HW239579   6.757   6.242   3.333  0.0165 -2.1734  1.5320
43217SOL     OW39580   7.820  12.428  10.357  0.0354  0.5571  0.3950
43217SOL    HW139581   7.822  12.372  10.434  1.9000  1.0680  0.7706
43217SOL    HW239582   7.832  12.368  10.283  1.0002  0.3472  0.7144
43218SOL     OW39583   3.118   7.857  12.917  0.4567  0.4669 -0.0115
43218SOL    HW139584   3.147   7.846  12.826 -0.4063 -0.7696 -0.1713
43218SOL    HW239585   3.029   7.891  12.910  1.0064  2.0676  0.4279
43219SOL     OW39586   4.938  10.760   7.823  0.4082 -0.2413 -0.3627
43219SOL    HW139587   5.022  10.784   7.786  0.4312 -0.1241 -0.2350
43219SOL    HW239588   4.904  10.841   7.862  0.6911 -0.5126  0.4699
43220SOL     OW39589   9.693   2.398   3.875  0.0536 -0.2585  0.2093
43220SOL    HW139590   9.653   2.483   3.857  0.7511 -0.1493 -0.9241
43220SOL    HW239591   9.772   2.419   3.925 -0.6989 -0.3954  1.5025
43221SOL     OW39592   6.956   1.273   4.982  0.1646 -0.1606  0.7644
43221SOL    HW139593   6.992   1.221   4.909 -1.4169 -0.9397  0.5014
43221SOL    HW239594   6.969   1.218   5.059  4.0841  1.6374  1.6550
43222SOL     OW39595   2.622   0.965   8.522 -0.3575  0.1533 -0.5188
43222SOL    HW139596   2.642   0.884   8.569  0.5845  0.9819  0.5751
43222SOL    HW239597   2.527   0.962   8.510 -0.4458 -0.7475  0.2014
43223SOL     OW39598  11.085  12.153   4.426  0.3182  0.3244 -0.4400
43223SOL    HW139599  10.998  12.189   4.444 -1.8056 -2.9862 -2.7710
43223SOL    HW239600  11.088  12.073   4.478  1.2407 -0.4660 -1.6696
43224SOL     OW39601  12.295   5.231   6.389  0.2165 -0.7060 -0.0933
43224SOL    HW139602  12.244   5.161   6.349  0.2838 -0.2744 -0.9586
43224SOL    HW239603  12.280   5.307   6.334  0.7091 -0.2170  0.4255
43225SOL     OW39604   3.206   5.247   7.235  0.0902 -0.5844 -0.7424
43225SOL    HW139605   3.273   5.306   7.269 -0.9580 -0.1591  0.6624
43225SOL    HW239606   3.230   5.161   7.269 -1.0201 -0.1443  1.3138
43226SOL     OW39607   4.876   3.096   9.779  0.3166  0.3889  0.1216
43226SOL    HW139608   4.891   3.183   9.742  0.9418  0.0048 -0.5647
43226SOL    HW239609   4.784   3.077   9.759  0.1095  0.9791  0.4863
43227SOL     OW39610   1.406   6.750   8.513  0.0271  0.2976  0.3626
43227SOL    HW139611   1.473   6.705   8.461  1.3134  2.0723  0.4071
43227SOL    HW239612   1.442   6.837   8.529 -2.0008  1.0819  1.0016
43228SOL     OW39613   6.118   7.908   9.954 -0.2413 -0.2400  0.8069
43228SOL    HW139614   6.058   7.835   9.941  1.4657 -1.3816 -1.3943
43228SOL    HW239615   6.150   7.929   9.867 -0.7741  3.3524  1.2989
43229SOL     OW39616  13.300   7.872   7.704  0.0873  0.4980 -0.1185
43229SOL    HW139617  13.287   7.851   7.611  0.5607  1.4131 -0.4059
43229SOL    HW239618  13.386   7.835   7.725  1.0295  2.2728 -0.6895
43230SOL     OW39619   6.841   7.420   1.715 -0.0083  0.0105  0.1899
43230SOL    HW139620   6.849   7.350   1.780  0.8580  0.8866  1.0534
43230SOL    HW239621   6.784   7.383   1.647 -0.9856 -0.9047  1.4590
43231SOL     OW39622   3.089   2.593   7.217  0.0420  0.0563  0.2142
43231SOL    HW139623   3.006   2.601   7.170  0.4759 -1.8005 -0.9619
43231SOL    HW239624   3.072   2.529   7.285  0.6656 -0.8176 -0.4412
43232SOL     OW39625  12.237   6.592   2.338 -0.0622  0.0471  1.0120
43232SOL    HW139626  12.306   6.566   2.399 -0.2608 -2.3508  0.2953
43232SOL    HW239627  12.220   6.684   2.359  3.6789  0.9426  0.8904
43233SOL     OW39628   5.956   9.569   6.552 -0.0271 -0.7489 -0.0030
43233SOL    HW139629   5.876   9.517   6.545  0.0357 -0.8961  0.3144
43233SOL    HW239630   5.930   9.658   6.529 -0.0387 -1.0001 -1.0108
43234SOL     OW39631   2.891   9.933   6.281  0.7384 -0.4680 -0.3535
43234SOL    HW139632   2.839   9.863   6.241  0.0998  0.2998 -0.9014
43234SOL    HW239633   2.830   9.978   6.339  0.4895  1.0079 -1.6884
43235SOL     OW39634  10.112   1.625   5.180  0.0296  0.3375  0.2306
43235SOL    HW139635  10.130   1.611   5.273 -0.6859  1.7156  0.6044
43235SOL    HW239636  10.034   1.573   5.163  0.4005 -0.2469  0.2958
43236SOL     OW39637  11.018   6.282   8.290  0.0619  0.2887 -0.4042
43236SOL    HW139638  11.032   6.325   8.375  2.0883 -1.3864  0.2088
43236SOL    HW239639  11.077   6.328   8.230 -0.5829  0.7817 -0.6718
43237SOL     OW39640   3.667   8.276  10.472 -0.0017 -0.0668  0.3463
43237SOL    HW139641   3.626   8.363  10.469  0.8591  0.3491 -2.1680
43237SOL    HW239642   3.594   8.215  10.470 -0.6121  0.5802  1.8175
43238SOL     OW39643  11.740  10.144   8.847  0.0625  0.2608 -0.0725
43238SOL    HW139644  11.654  10.183   8.865 -0.4933 -0.2844 -1.3823
43238SOL    HW239645  11.727  10.094   8.766  1.2066 -1.1361  0.5456
43239SOL     OW39646   7.938   8.322  10.050 -0.9238  0.3274 -0.4682
43239SOL    HW139647   7.917   8.241  10.097 -1.7591  0.6396 -0.2807
43239SOL    HW239648   7.872   8.327   9.980 -3.2565  2.6193  1.6736
43240SOL     OW39649  12.086   8.714  10.633  0.2377 -0.3626  0.3616
43240SOL    HW139650  12.006   8.694  10.681  0.5587 -0.0291  1.0508
43240SOL    HW239651  12.139   8.635  10.639  0.3561 -0.2584  0.7317
43241SOL     OW39652   5.933   1.458   7.440 -0.2301 -0.2853 -0.3604
43241SOL    HW139653   5.846   1.490   7.463 -0.7763 -1.5142 -0.5920
43241SOL    HW239654   5.929   1.364   7.460  0.4720 -0.6846 -1.9403
43242SOL     OW39655   3.454   3.690   1.466 -0.5769  0.0914 -0.1279
43242SOL    HW139656   3.548   3.687   1.446 -0.6201  1.1644 -0.5236
43242SOL    HW239657   3.415   3.630   1.403 -0.1980 -0.0768 -0.2105
43243SOL     OW39658   3.924   5.193   6.547 -0.1659 -0.5826 -0.2971
43243SOL    HW139659   3.880   5.278   6.556  0.5494 -0.1373 -0.8820
43243SOL    HW239660   3.957   5.193   6.457 -1.6564 -2.2135 -0.8870
43244SOL     OW39661   2.586   5.091   0.842  0.1216 -0.1097 -0.2464
43244SOL    HW139662   2.605   5.168   0.896  0.4379 -0.4585  0.1500
43244SOL    HW239663   2.583   5.125   0.753  0.2965  0.3582 -0.0810
43245SOL     OW39664   9.959   7.012   2.375  0.1354 -0.4397  0.4200
43245SOL    HW139665  10.017   6.937   2.369 -0.6267 -1.0526  0.4785
43245SOL    HW239666   9.999   7.070   2.440  0.8510 -0.6745  0.1931
43246SOL     OW39667   4.912   9.237   1.461  0.4959  0.5459  0.1624
43246SOL    HW139668   4.994   9.273   1.427  0.0696  1.3955 -0.0045
43246SOL    HW239669   4.891   9.165   1.402  1.2632  0.1484  0.3739
43247SOL     OW39670   3.528  13.099   4.780 -0.0724 -0.9262  0.0927
43247SOL    HW139671   3.623  13.098   4.778  0.0530  1.3730  1.2263
43247SOL    HW239672   3.502  13.052   4.701  2.0648  0.5223 -1.5868
43248SOL     OW39673   5.402   4.369   3.855  0.1570 -0.0971 -0.1638
43248SOL    HW139674   5.438   4.364   3.944 -0.1528  1.8546  0.1225
43248SOL    HW239675   5.478   4.365   3.798  0.3483 -1.5116  0.1628
43249SOL     OW39676   5.052   8.029  10.623  0.2369 -0.0963 -0.4136
43249SOL    HW139677   5.143   8.056  10.609  0.2701  0.5879  0.9715
43249SOL    HW239678   5.006   8.110  10.644 -0.8286 -0.3548 -1.6264
43250SOL     OW39679   6.570   9.483   0.492  0.7132  0.1168  0.1259
43250SOL    HW139680   6.545   9.525   0.574 -0.5394 -0.3439 -0.0072
43250SOL    HW239681   6.537   9.542   0.424  2.5416  0.9695 -0.0865
43251SOL     OW39682  10.733   6.535   5.736  0.1234  0.7185 -0.2441
43251SOL    HW139683  10.800   6.506   5.797 -0.4606  1.5776  0.8546
43251SOL    HW239684  10.777   6.598   5.679  0.7633 -0.3618 -0.9780
43252SOL     OW39685  11.092   8.213   8.580 -0.0335  0.6923 -0.2586
43252SOL    HW139686  11.171   8.236   8.630 -0.4527  0.3483  0.5924
43252SOL    HW239687  11.069   8.293   8.533 -0.6753  1.6437  1.5505
43253SOL     OW39688   1.969   4.642  13.312  0.2950 -0.5028  0.0318
43253SOL    HW139689   1.934   4.708  13.252  1.6187  0.6472  0.4665
43253SOL    HW239690   2.003   4.573  13.255 -1.7139 -1.1841 -0.4119
43254SOL     OW39691  11.983  10.539   1.836  0.4121 -0.2413 -0.0136
43254SOL    HW139692  11.914  10.602   1.818  2.2517  1.5740 -1.1225
43254SOL    HW239693  11.976  10.475   1.765 -0.1408 -0.0815 -0.1067
43255SOL     OW39694  12.367   1.690   6.646 -0.3715 -0.6749  0.1762
43255SOL    HW139695  12.384   1.783   6.635  0.5816 -0.6629  1.5895
43255SOL    HW239696  12.309   1.684   6.722 -1.4327 -1.1752 -0.6396
43256SOL     OW39697   5.432   6.750  12.545 -0.0026 -0.3310 -0.1728
43256SOL    HW139698   5.376   6.802  12.602  2.1720 -0.4936  2.2738
43256SOL    HW239699   5.383   6.668  12.532 -0.5430 -0.3387  1.5905
43257SOL     OW39700   3.674   5.781   6.820  0.0125  0.4761  0.1028
43257SOL    HW139701   3.705   5.816   6.903  0.7997 -3.5429  1.7456
43257SOL    HW239702   3.734   5.815   6.755  1.7999  0.7000  1.7933
43258SOL     OW39703   4.082   2.439   7.892  0.0771 -0.0832 -0.3318
43258SOL    HW139704   4.136   2.374   7.846  0.2408  0.0896 -0.3853
43258SOL    HW239705   4.068   2.401   7.979 -1.9376 -1.3678 -1.1565
43259SOL     OW39706   5.216   6.673   4.671 -0.6349 -0.0467  0.4520
43259SOL    HW139707   5.282   6.606   4.688 -1.2020 -0.7171  0.0668
43259SOL    HW239708   5.250   6.721   4.595 -0.0845  0.3143  0.9107
43260SOL     OW39709  12.716   4.439   5.721  0.2582 -0.0580  0.5815
43260SOL    HW139710  12.709   4.390   5.803  1.3867 -1.4364 -0.1158
43260SOL    HW239711  12.809   4.440   5.701 -0.0431 -0.2397 -0.9642
43261SOL     OW39712   4.754   7.692   5.112  0.3791  0.5777 -0.1054
43261SOL    HW139713   4.767   7.618   5.171  0.6945 -0.2868 -1.2383
43261SOL    HW239714   4.663   7.685   5.083  1.1012 -0.9309 -2.2314
43262SOL     OW39715  11.362   7.091   5.884 -0.5148 -0.0631  0.1832
43262SOL    HW139716  11.387   7.149   5.812  2.5207 -1.7874 -0.3451
43262SOL    HW239717  11.307   7.024   5.844 -0.1454 -0.1268 -0.2272
43263SOL     OW39718  10.021   5.858  11.966 -0.4640 -0.7983  0.1654
43263SOL    HW139719  10.041   5.877  12.058 -1.3462 -0.1587  0.2345
43263SOL    HW239720  10.016   5.763  11.962  1.1000 -0.9233  0.4397
43264SOL     OW39721   2.649   4.797   5.328  0.3541  0.4034 -0.5487
43264SOL    HW139722   2.603   4.768   5.406 -0.6284  1.5950 -0.6564
43264SOL    HW239723   2.720   4.851   5.360  0.7031 -0.1037 -0.4488
43265SOL     OW39724   3.603  13.309   3.367 -0.4184  0.5704 -0.0698
43265SOL    HW139725   3.583  13.396   3.333 -0.0312  0.2356 -1.1908
43265SOL    HW239726   3.673  13.324   3.431 -1.8521  1.3295  1.4076
43266SOL     OW39727   5.069   1.096   7.834  0.1230 -0.1976 -0.4657
43266SOL    HW139728   5.157   1.111   7.869 -0.0585  0.9066 -0.4617
43266SOL    HW239729   5.083   1.085   7.740  0.2293  0.3258 -0.5124
43267SOL     OW39730   9.132   0.989  11.897  0.2781 -0.3315 -0.4375
43267SOL    HW139731   9.143   0.898  11.922 -0.0324 -0.3615 -0.4096
43267SOL    HW239732   9.116   1.035  11.980 -0.2110 -0.3493 -0.5202
43268SOL     OW39733   2.177   8.984  10.208 -0.5738 -0.3271 -0.7049
43268SOL    HW139734   2.235   8.909  10.223 -0.1352 -0.1348 -1.3804
43268SOL    HW239735   2.234   9.061  10.218 -0.7843 -0.1248 -1.0270
43269SOL     OW39736  11.734  10.742   5.543  0.5378  0.3313  0.0389
43269SOL    HW139737  11.726  10.686   5.621  1.2057 -0.3143 -0.3379
43269SOL    HW239738  11.712  10.683   5.471  0.0487  0.8941 -0.2770
43270SOL     OW39739   9.023   8.988   3.521 -0.4837 -0.0861  0.5178
43270SOL    HW139740   9.008   9.010   3.430  0.5847  0.6954  0.5080
43270SOL    HW239741   8.975   9.054   3.571 -1.7366 -0.9843  0.5582
43271SOL     OW39742   7.099  10.397   1.271 -0.2371 -0.6430  1.0932
43271SOL    HW139743   7.009  10.421   1.292  0.2749  1.2126  1.3576
43271SOL    HW239744   7.092  10.343   1.192 -1.5768 -0.6107  1.1732
43272SOL     OW39745   1.212   1.789   4.200 -0.0810  0.6452 -0.6721
43272SOL    HW139746   1.144   1.841   4.157 -0.4575  0.0015 -0.8685
43272SOL    HW239747   1.165   1.714   4.236  0.4060  0.6092 -0.0986
43273SOL     OW39748   9.199   6.463   1.653  0.4635  0.0942  0.0518
43273SOL    HW139749   9.257   6.526   1.610  0.3858  1.0093  1.2460
43273SOL    HW239750   9.223   6.467   1.745  0.4677 -1.6654  0.1599
43274SOL     OW39751  11.846   3.635   5.147 -0.0756 -0.3733  0.0951
43274SOL    HW139752  11.937   3.665   5.142  0.3220 -1.5721 -0.1705
43274SOL    HW239753  11.839   3.567   5.080 -1.7434  1.0750 -1.3400
43275SOL     OW39754   8.531   8.368   2.760  0.1168 -0.3627 -0.2575
43275SOL    HW139755   8.461   8.427   2.734  2.0173  2.1177 -0.0338
43275SOL    HW239756   8.590   8.364   2.684  0.7969 -0.7611  0.2711
43276SOL     OW39757  11.116   5.889   5.843 -0.2198  0.3987  0.4188
43276SOL    HW139758  11.186   5.824   5.846  0.0903  0.2503 -3.8472
43276SOL    HW239759  11.157   5.967   5.804 -1.6197  1.6362  1.2910
43277SOL     OW39760   6.148   1.049   7.870 -0.0568 -0.0845 -0.4302
43277SOL    HW139761   6.081   1.079   7.932 -0.2889  0.4650 -0.9415
43277SOL    HW239762   6.179   0.966   7.907  0.7295  0.8537  1.1165
43278SOL     OW39763   6.164  12.805   0.659  0.6172 -0.4156  0.4585
43278SOL    HW139764   6.126  12.836   0.741 -0.4752 -0.1414 -0.1353
43278SOL    HW239765   6.232  12.869   0.638 -1.0173  1.1679 -0.2978
43279SOL     OW39766   1.091   0.090   0.279  0.5626 -0.2188 -0.2643
43279SOL    HW139767   1.107   0.049   0.363  0.9461  1.8573  0.7430
43279SOL    HW239768   1.003   0.060   0.253 -0.6185  0.9485  2.0804
43280SOL     OW39769   3.860   8.551   6.805 -0.1457  0.0772 -0.4677
43280SOL    HW139770   3.869   8.641   6.775  2.8373 -0.1088 -0.3538
43280SOL    HW239771   3.795   8.513   6.745 -2.2756  2.4834  0.1243
43281SOL     OW39772   0.029   3.914  10.943 -0.1420  0.4772  0.3281
43281SOL    HW139773   0.037   3.957  10.858 -0.0273  0.0784  0.1326
43281SOL    HW239774   0.109   3.861  10.951 -0.8780 -0.7428 -0.0439
43282SOL     OW39775   5.564   4.139  11.977  0.2590  0.1729  0.1550
43282SOL    HW139776   5.477   4.122  12.015 -0.0574 -0.4161 -0.7947
43282SOL    HW239777   5.550   4.135  11.882  1.1385  1.0606 -0.0270
43283SOL     OW39778   1.772   6.882   8.334  0.6796  0.4391 -0.0487
43283SOL    HW139779   1.756   6.793   8.366 -2.5031  0.1459 -2.0921
43283SOL    HW239780   1.836   6.871   8.264 -0.5934 -0.4997 -1.1238
43284SOL     OW39781   0.643   1.643   3.811 -0.2124  0.1940  0.4020
43284SOL    HW139782   0.723   1.598   3.785 -0.2709  0.7991 -0.8941
43284SOL    HW239783   0.577   1.614   3.748 -0.1441  2.3928 -0.7838
43285SOL     OW39784   3.957   0.233   2.981 -0.3164  0.5367 -0.3371
43285SOL    HW139785   3.906   0.276   3.049  0.5219  1.2426 -0.1396
43285SOL    HW239786   3.892   0.193   2.923 -1.0342 -0.5573  1.1647
43286SOL     OW39787   6.860   2.851  11.487  0.2208  0.1096  0.0188
43286SOL    HW139788   6.917   2.924  11.464 -0.3999  1.0900  1.4671
43286SOL    HW239789   6.772   2.888  11.490 -0.4997 -1.2868 -1.7518
43287SOL     OW39790   0.134   5.591  12.177 -0.0510  0.0866 -0.0509
43287SOL    HW139791   0.138   5.577  12.271 -0.2492 -0.0682 -0.0636
43287SOL    HW239792   0.106   5.506  12.142 -0.0157  0.1538 -0.2439
43288SOL     OW39793   7.573   9.175   6.198 -0.2904  0.4978  0.2243
43288SOL    HW139794   7.585   9.171   6.292 -1.1890  0.6294  0.3581
43288SOL    HW239795   7.544   9.087   6.173  2.0777 -0.2162 -0.2891
43289SOL     OW39796  11.397   6.456   4.284 -0.4467  0.2341 -0.0954
43289SOL    HW139797  11.318   6.462   4.230  0.2895  0.7128 -1.1788
43289SOL    HW239798  11.402   6.364   4.310 -1.3479  0.1970 -0.0204
43290SOL     OW39799  10.198  10.907   3.094 -0.6553  0.0595  0.1865
43290SOL    HW139800  10.230  10.848   3.163 -0.9697 -0.8576 -0.4264
43290SOL    HW239801  10.171  10.848   3.024 -0.4134  0.9751 -0.6905
43291SOL     OW39802  12.239   0.982  13.030 -0.1717  0.0875 -0.8100
43291SOL    HW139803  12.316   0.927  13.015 -0.2998 -0.8876  1.6612
43291SOL    HW239804  12.165   0.927  13.005 -0.3207 -1.1341  1.9635
43292SOL     OW39805   3.727   7.111  10.850 -0.1142  0.4104  0.3653
43292SOL    HW139806   3.810   7.069  10.827 -0.0978  0.9169 -0.5501
43292SOL    HW239807   3.714   7.090  10.943 -0.0075 -1.4182 -0.0026
43293SOL     OW39808  10.322  12.377   3.280  0.0948 -0.8677 -0.1840
43293SOL    HW139809  10.415  12.395   3.290  0.2226 -1.8819  0.6386
43293SOL    HW239810  10.293  12.435   3.210  0.9244  0.8507  0.8429
43294SOL     OW39811   9.744   8.904  12.522 -0.1937 -0.2744 -0.2064
43294SOL    HW139812   9.826   8.859  12.502 -0.1828 -1.3614  2.0057
43294SOL    HW239813   9.770   8.986  12.562 -0.2237  0.0143 -0.7570
43295SOL     OW39814   7.206   5.332   4.104 -0.2923  0.9808 -0.4570
43295SOL    HW139815   7.204   5.328   4.009  0.2649  0.5158 -0.4579
43295SOL    HW239816   7.198   5.241   4.132  0.4647  1.0158 -0.0913
43296SOL     OW39817   8.797   9.972  10.301  0.5179 -0.2568  0.7994
43296SOL    HW139818   8.888   9.955  10.326  0.2558 -2.6378  0.2771
43296SOL    HW239819   8.801   9.989  10.207  0.5174  0.6401  0.9521
43297SOL     OW39820  11.938   6.207   8.636 -0.5908 -0.0500  0.2811
43297SOL    HW139821  11.916   6.183   8.546 -0.3708  0.8329 -0.0090
43297SOL    HW239822  12.031   6.186   8.645 -0.8386 -1.0968  0.6345
43298SOL     OW39823  13.240   3.370  13.280 -0.4338 -0.0101  0.6626
43298SOL    HW139824  13.179   3.435  13.314  0.0665  0.4066  0.7630
43298SOL    HW239825  13.292   3.417  13.215  0.8879  0.0592  1.7426
43299SOL     OW39826   8.484   6.760   9.898  0.0558 -0.1008  0.0267
43299SOL    HW139827   8.571   6.795   9.877 -0.2728  1.1763  0.6886
43299SOL    HW239828   8.423   6.818   9.853 -0.4704 -1.7661 -1.5181
43300SOL     OW39829  12.149   0.557   5.356  0.3884  0.2605 -0.7639
43300SOL    HW139830  12.222   0.615   5.376 -0.1509  1.2797 -1.6383
43300SOL    HW239831  12.185   0.493   5.295  0.2600  1.5573 -2.2453
43301SOL     OW39832   6.562  11.915   6.588  0.0565  0.2726 -0.1809
43301SOL    HW139833   6.644  11.885   6.627 -0.6732 -2.3660 -0.4902
43301SOL    HW239834   6.502  11.924   6.662 -0.2989 -1.1913 -0.2527
43302SOL     OW39835   6.154  12.651   6.981  0.3518 -0.3882 -0.0795
43302SOL    HW139836   6.064  12.619   6.986  1.1747 -2.8978 -0.0025
43302SOL    HW239837   6.195  12.618   7.060  0.8779  2.6000  1.0339
43303SOL     OW39838   9.609   4.384   5.616 -0.0044  0.2848  0.3677
43303SOL    HW139839   9.620   4.354   5.526 -0.6569 -1.9893  0.9906
43303SOL    HW239840   9.578   4.474   5.607  1.7712  0.8031 -1.6233
43304SOL     OW39841   0.036  11.024   7.728  0.7008  0.0162 -0.3913
43304SOL    HW139842   0.030  10.940   7.682  0.2779  0.7892 -1.7790
43304SOL    HW239843  -0.007  11.008   7.813  0.3409 -1.0796 -0.7668
43305SOL     OW39844   8.698   0.531   9.098 -0.2346 -0.1066  0.0864
43305SOL    HW139845   8.707   0.580   9.180  1.1464 -0.1118 -0.0538
43305SOL    HW239846   8.608   0.497   9.101 -0.6014  0.8876  1.0369
43306SOL     OW39847  12.671   5.969  13.132 -0.3011 -0.7888  0.4735
43306SOL    HW139848  12.695   6.059  13.153 -0.2819 -0.6882  0.0315
43306SOL    HW239849  12.741   5.916  13.169 -1.2715 -0.7809  2.4287
43307SOL     OW39850   6.913   7.909  10.928  0.3309 -1.0272 -0.2259
43307SOL    HW139851   6.981   7.875  10.986  1.9028  0.1662 -1.3035
43307SOL    HW239852   6.884   7.990  10.971 -0.5996 -1.6174  0.3198
43308SOL     OW39853   8.477   0.332   2.968  0.3004  0.5751 -0.6090
43308SOL    HW139854   8.456   0.247   2.929  1.0578  1.1607 -2.4225
43308SOL    HW239855   8.552   0.314   3.025  0.8737  0.1138 -1.4844
43309SOL     OW39856   6.247  11.565   8.529 -0.3372  0.3564  0.2354
43309SOL    HW139857   6.310  11.497   8.507 -0.5396 -0.3292  1.6802
43309SOL    HW239858   6.299  11.634   8.569 -0.2974  0.5421 -0.1263
43310SOL     OW39859   2.523  11.639   9.670 -0.3432 -0.6498 -0.6653
43310SOL    HW139860   2.567  11.724   9.667  1.3192 -1.3987  0.6646
43310SOL    HW239861   2.504  11.626   9.763 -0.4476 -1.7899 -0.8372
43311SOL     OW39862   5.347   9.555  12.936  0.0733 -0.1635  0.3995
43311SOL    HW139863   5.351   9.635  12.883  0.8635  0.0577  0.7822
43311SOL    HW239864   5.317   9.585  13.022  0.9974 -0.1724  0.7323
43312SOL     OW39865   3.799  11.251   1.121  0.1134  0.0061 -0.4209
43312SOL    HW139866   3.705  11.240   1.138  0.4895 -2.0837  0.5834
43312SOL    HW239867   3.828  11.166   1.089  1.7393  0.5506 -0.4765
43313SOL     OW39868   7.568  11.935  13.023 -0.7370  0.2533 -0.2821
43313SOL    HW139869   7.500  11.873  13.048 -1.8390  1.7188  0.5966
43313SOL    HW239870   7.557  11.947  12.929 -1.2050 -0.0986 -0.2747
43314SOL     OW39871   5.508   1.260   3.263 -0.1229 -0.1794  0.5303
43314SOL    HW139872   5.480   1.229   3.349 -0.5940  0.0046  0.4509
43314SOL    HW239873   5.508   1.182   3.208 -1.3515 -0.0636  0.3178
43315SOL     OW39874   9.221   7.123  12.639 -0.4527  0.4866  0.8370
43315SOL    HW139875   9.292   7.126  12.574 -0.5546  0.5128  0.7260
43315SOL    HW239876   9.264   7.095  12.720 -0.0460  1.8679  1.1313
43316SOL     OW39877   5.016  11.252   9.873 -0.4904 -0.1502 -0.0632
43316SOL    HW139878   5.010  11.315   9.944 -0.5677 -0.4453  0.1905
43316SOL    HW239879   5.097  11.204   9.889  0.6628  1.2541 -1.3878
43317SOL     OW39880  12.948   3.493  10.250 -0.2764 -0.0259 -0.0392
43317SOL    HW139881  12.938   3.584  10.278  2.0554 -0.7195  3.7028
43317SOL    HW239882  12.859   3.460  10.243 -1.1995  2.5127 -1.7930
43318SOL     OW39883  10.780   5.492   4.723  0.0866 -0.0637  0.0812
43318SOL    HW139884  10.839   5.423   4.751 -1.0552 -1.6104 -1.1415
43318SOL    HW239885  10.711   5.494   4.788  0.3156  0.2105  0.3202
43319SOL     OW39886   0.665   5.163   7.972 -0.9045 -0.1854  0.0983
43319SOL    HW139887   0.757   5.189   7.977 -0.4975 -1.3692 -0.7194
43319SOL    HW239888   0.668   5.068   7.959 -2.2490 -0.2649  0.2335
43320SOL     OW39889   1.287   0.391   1.458  0.2632  0.0040 -0.1982
43320SOL    HW139890   1.206   0.396   1.508 -1.0915 -4.3418 -1.5865
43320SOL    HW239891   1.262   0.418   1.369  0.8776  0.5769 -0.2093
43321SOL     OW39892   3.172   8.380   3.662 -0.2053  0.1979 -0.2310
43321SOL    HW139893   3.152   8.474   3.666 -0.9984  0.0180  0.2613
43321SOL    HW239894   3.265   8.374   3.683 -0.1281  0.8833 -0.3563
43322SOL     OW39895  10.316   6.033   1.357 -0.0501 -0.4351 -0.6379
43322SOL    HW139896  10.277   6.090   1.424 -1.2463 -1.2066 -0.6505
43322SOL    HW239897  10.351   5.959   1.406  0.3270 -0.3288 -0.7440
43323SOL     OW39898   7.361   8.387  11.457 -0.2135  0.3814  0.7329
43323SOL    HW139899   7.358   8.349  11.369 -2.6640 -1.8669  1.6111
43323SOL    HW239900   7.447   8.427  11.464  0.7070 -0.8697 -2.0824
43324SOL     OW39901   9.412   6.500   4.315  0.6307 -0.3937  0.5922
43324SOL    HW139902   9.479   6.481   4.381  3.2169  0.7862 -1.5166
43324SOL    HW239903   9.430   6.590   4.287 -0.9767 -0.5158 -1.0299
43325SOL     OW39904   5.671   7.393   7.108  0.1079  0.5783  0.2430
43325SOL    HW139905   5.647   7.301   7.094  0.6612  0.6367 -1.3241
43325SOL    HW239906   5.589   7.435   7.135 -0.1806 -0.3445  0.8508
43326SOL     OW39907   9.048  12.820   5.791 -0.0753  0.4340  0.1608
43326SOL    HW139908   9.106  12.847   5.862  0.0095  1.0057 -0.1217
43326SOL    HW239909   8.960  12.824   5.829  0.0596 -0.5630  0.6315
43327SOL     OW39910   9.743  11.094   9.675  0.5030  0.3405 -0.3142
43327SOL    HW139911   9.740  11.038   9.752  0.6513  0.6369 -0.0917
43327SOL    HW239912   9.680  11.055   9.615 -0.1733  0.5456  0.2528
43328SOL     OW39913   7.134   9.786  12.275 -0.1100 -0.0769 -0.3303
43328SOL    HW139914   7.171   9.743  12.198 -2.6865 -0.5165 -1.4118
43328SOL    HW239915   7.123   9.716  12.339 -0.4676 -0.2464 -0.5732
43329SOL     OW39916  11.778   8.772   6.292  0.3264 -0.2859  0.3719
43329SOL    HW139917  11.873   8.778   6.278  0.5772 -3.6603 -0.2176
43329SOL    HW239918  11.767   8.785   6.386  1.5763 -1.1679  0.6672
43330SOL     OW39919   4.966   3.448   3.692 -0.4454  0.3160  0.1094
43330SOL    HW139920   4.925   3.510   3.632  0.3212 -0.2901 -1.0764
43330SOL    HW239921   4.916   3.367   3.680 -0.4147  0.2456  0.4467
43331SOL     OW39922   3.058   2.856  12.687  0.3795  0.0455 -0.0670
43331SOL    HW139923   3.149   2.842  12.714 -0.5466 -1.7408  2.5677
43331SOL    HW239924   3.027   2.928  12.742 -0.0319  0.0338 -0.2808
43332SOL     OW39925   4.423   4.834  10.410  0.1885 -0.8352  0.3057
43332SOL    HW139926   4.431   4.838  10.315  0.3735  0.5807  0.3622
43332SOL    HW239927   4.330   4.854  10.427  0.9190  3.3863  0.5430
43333SOL     OW39928  11.987   0.185   3.310 -0.0304  0.3794  0.4244
43333SOL    HW139929  11.949   0.262   3.352  0.3780  1.6978 -1.4981
43333SOL    HW239930  12.078   0.184   3.339  0.1129  0.9738  0.0118
43334SOL     OW39931   2.491   5.809   4.249 -0.0131  0.4383 -0.0292
43334SOL    HW139932   2.527   5.749   4.184  1.7432  0.6002  0.7312
43334SOL    HW239933   2.425   5.859   4.201  0.2530 -0.3884 -1.3161
43335SOL     OW39934   4.295   2.802   4.139 -0.7600 -0.3543 -0.1983
43335SOL    HW139935   4.279   2.803   4.045  0.0046 -0.5116 -0.3410
43335SOL    HW239936   4.274   2.712   4.166 -1.8733 -0.0644 -0.0389
43336SOL     OW39937  11.311   0.445  12.109  0.4460 -0.1236 -0.4059
43336SOL    HW139938  11.253   0.370  12.097  1.8869 -1.4563  0.5813
43336SOL    HW239939  11.359   0.426  12.189  0.4162  2.1871  0.2526
43337SOL     OW39940   6.731   5.260   3.115  0.0967 -0.3857  0.0509
43337SOL    HW139941   6.638   5.242   3.103 -0.6519  2.9470 -0.2007
43337SOL    HW239942   6.776   5.199   3.056 -1.9415 -1.6178 -0.3161
43338SOL     OW39943   9.928   5.636  12.645  0.1147  0.1324  0.2056
43338SOL    HW139944   9.891   5.608  12.562 -1.4175 -0.1304  0.9256
43338SOL    HW239945   9.951   5.555  12.691  1.0824  0.2792 -0.0059
43339SOL     OW39946   5.407   8.572  11.606  0.0861 -0.3521 -0.3795
43339SOL    HW139947   5.453   8.619  11.536  0.0478  0.6400  0.2511
43339SOL    HW239948   5.357   8.639  11.652  1.4908 -0.6581  1.7283
43340SOL     OW39949   2.918   5.283   3.134 -0.4567  0.0345  0.3098
43340SOL    HW139950   2.879   5.197   3.116  0.6223 -0.1443 -1.4677
43340SOL    HW239951   2.925   5.324   3.048  2.2851  0.4433  0.6486
43341SOL     OW39952   5.447   4.074   3.961 -0.2864  0.0708  0.0003
43341SOL    HW139953   5.534   4.115   3.959  0.2762 -1.1143 -0.5726
43341SOL    HW239954   5.423   4.075   4.054  0.6344 -0.1700  0.2576
43342SOL     OW39955   7.949  11.088  13.177  0.4422  0.8864  0.0849
43342SOL    HW139956   8.016  11.112  13.113  1.2438  0.2793  0.6642
43342SOL    HW239957   7.920  11.171  13.215  1.5904  1.1126  0.5113
43343SOL     OW39958   3.388   4.062   8.237  1.1483 -0.3965 -0.0165
43343SOL    HW139959   3.392   4.055   8.141 -2.4824  0.0367 -0.3487
43343SOL    HW239960   3.350   3.978   8.264  2.8833 -0.8346  1.2006
43344SOL     OW39961   8.700   3.543   7.876 -0.0011 -0.1426 -0.3124
43344SOL    HW139962   8.770   3.535   7.940 -0.3677  0.5812  0.2022
43344SOL    HW239963   8.620   3.541   7.928 -0.3485 -0.4900 -0.8471
43345SOL     OW39964  12.434   5.515  13.226  0.4624  0.3027 -0.5822
43345SOL    HW139965  12.521   5.481  13.246  0.0565 -0.6316 -0.3564
43345SOL    HW239966  12.374   5.452  13.265 -0.3944 -1.0650 -3.7555
43346SOL     OW39967  10.949   3.272   2.802 -0.3260 -0.4306  0.0481
43346SOL    HW139968  10.976   3.201   2.862 -0.0117 -1.2178 -0.9931
43346SOL    HW239969  11.023   3.281   2.741 -0.0711  1.2769  0.5535
43347SOL     OW39970   8.827  11.819   5.701  0.5272 -0.3333  0.1605
43347SOL    HW139971   8.734  11.842   5.710  0.0615 -0.6989 -2.6437
43347SOL    HW239972   8.871  11.903   5.688  0.3580 -0.2495  0.1220
43348SOL     OW39973   3.325   1.728   4.817  0.5529 -0.4623  0.4646
43348SOL    HW139974   3.418   1.734   4.838  0.8096 -2.2464  0.0359
43348SOL    HW239975   3.293   1.655   4.870 -0.7707  0.5289  1.0889
43349SOL     OW39976   5.377  12.877   4.171 -0.3533 -0.7681 -0.4883
43349SOL    HW139977   5.330  12.821   4.108 -0.3585  0.4251 -1.5703
43349SOL    HW239978   5.465  12.883   4.136 -0.5242  0.4189 -0.7384
43350SOL     OW39979  12.054   5.579   3.874 -0.3885 -0.8262  0.9768
43350SOL    HW139980  12.100   5.611   3.797  1.7065 -3.8991  0.7586
43350SOL    HW239981  11.973   5.541   3.839 -0.1041 -0.9681  0.4657
43351SOL     OW39982   4.349  11.042   0.455 -0.4235 -0.4170 -0.1239
43351SOL    HW139983   4.438  11.009   0.464 -0.4967 -0.6606 -0.2837
43351SOL    HW239984   4.347  11.122   0.508 -0.1279 -0.4435 -0.0750
43352SOL     OW39985   6.576   6.313   6.669 -0.0221  0.5804 -0.4491
43352SOL    HW139986   6.556   6.320   6.762 -2.4338 -0.4483 -0.8149
43352SOL    HW239987   6.670   6.330   6.663  0.0003  1.6726  2.0268
43353SOL     OW39988   3.342   8.252   7.907  0.5477  0.0023  0.3920
43353SOL    HW139989   3.353   8.166   7.949 -1.1238 -0.3381  0.2130
43353SOL    HW239990   3.341   8.232   7.813 -0.4257  0.1045  0.3641
43354SOL     OW39991  12.563   3.840   0.599  0.3058 -0.1905  0.2128
43354SOL    HW139992  12.561   3.935   0.583  1.8098  0.0142  1.1439
43354SOL    HW239993  12.490   3.807   0.546 -0.4539  1.5060  0.1027
43355SOL     OW39994   6.361  13.277   3.520 -0.8378 -0.0721  0.4007
43355SOL    HW139995   6.275  13.318   3.534 -0.8707 -0.4190  1.3002
43355SOL    HW239996   6.408  13.338   3.464 -1.8988 -0.1779 -0.6342
43356SOL     OW39997   0.278   3.754   4.014 -0.1722  0.0894 -0.4872
43356SOL    HW139998   0.187   3.725   4.021 -0.1063  0.0424  0.1987
43356SOL    HW239999   0.328   3.673   4.006 -0.0631  0.0282  0.6228
43357SOL     OW40000  12.506   7.207   7.469 -0.2185 -0.5529  0.9416
43357SOL    HW140001  12.543   7.214   7.381  1.2662  0.9539  1.6164
43357SOL    HW240002  12.412   7.203   7.455 -0.1188  1.2177 -0.7009
43358SOL     OW40003  12.457   8.594   0.536 -0.1417 -0.4450 -0.2452
43358SOL    HW140004  12.440   8.517   0.591  0.9283 -0.9918 -0.6601
43358SOL    HW240005  12.386   8.593   0.473 -0.0795 -1.1691 -0.3188
43359SOL     OW40006  10.692   8.081   0.016  0.2925  0.0123  0.3000
43359SOL    HW140007  10.705   8.162   0.064 -0.2581 -0.4491  1.2817
43359SOL    HW240008  10.776   8.035   0.022  0.8348  0.8082 -0.8901
43360SOL     OW40009  12.024   7.044   7.171 -0.3744  0.3767 -0.0835
43360SOL    HW140010  12.034   7.087   7.087  0.4202 -1.3080 -0.8908
43360SOL    HW240011  11.971   6.967   7.153  0.2847 -0.3207  0.8383
43361SOL     OW40012  12.087  12.126   9.751 -0.3228 -0.1470  0.2776
43361SOL    HW140013  12.099  12.192   9.819  1.1453  1.7382 -1.6697
43361SOL    HW240014  12.004  12.149   9.709 -0.0327  0.2268 -0.1075
43362SOL     OW40015  10.276   4.966   6.342 -0.1272  0.2650  0.1291
43362SOL    HW140016  10.329   4.894   6.378 -1.5347 -1.0573 -0.3306
43362SOL    HW240017  10.223   4.995   6.416 -1.5524 -1.0909 -0.2912
43363SOL     OW40018   6.725   8.174  13.271 -0.7089  0.4464  0.1177
43363SOL    HW140019   6.709   8.080  13.281 -0.6253  0.4220  0.0161
43363SOL    HW240020   6.783   8.196  13.344 -0.6929  0.4108  0.1164
43364SOL     OW40021   0.188   3.382   1.367 -0.3342 -0.4255 -0.3917
43364SOL    HW140022   0.116   3.416   1.314 -0.1758 -0.4115 -0.5992
43364SOL    HW240023   0.208   3.454   1.427  0.9663  0.4460 -1.7839
43365SOL     OW40024   9.706  12.816   4.794  0.2345 -0.5486  0.2221
43365SOL    HW140025   9.758  12.851   4.867  1.2151 -1.0462 -0.2237
43365SOL    HW240026   9.703  12.721   4.810 -2.6763 -0.3258  1.6010
43366SOL     OW40027  13.251   1.034   5.425 -0.4303 -0.6947 -0.3302
43366SOL    HW140028  13.274   0.957   5.374  2.3202 -0.0687 -0.1783
43366SOL    HW240029  13.306   1.029   5.503 -2.7151 -0.3204  1.4183
43367SOL     OW40030   5.937   7.769   2.728  1.0076  0.0632  0.5028
43367SOL    HW140031   6.009   7.713   2.698  1.6881  0.6969  0.8979
43367SOL    HW240032   5.861   7.712   2.731  2.1662 -1.5357  3.2536
43368SOL     OW40033  12.601   9.124   8.614 -0.1277  0.1096 -0.0335
43368SOL    HW140034  12.676   9.070   8.589 -0.5258 -0.2360 -0.5096
43368SOL    HW240035  12.611   9.137   8.708  1.9086  2.2161 -0.4616
43369SOL     OW40036   9.835   9.033   0.520  0.6895 -0.4755  0.0571
43369SOL    HW140037   9.787   8.968   0.470  0.2239 -1.1254  1.3314
43369SOL    HW240038   9.788   9.115   0.504  0.8943 -0.5603 -1.0273
43370SOL     OW40039   1.928   3.546   0.760 -0.5723  0.5751 -0.3151
43370SOL    HW140040   1.950   3.544   0.854  0.1960  1.0037 -0.4758
43370SOL    HW240041   1.886   3.630   0.747 -1.0757  0.3311 -0.2740
43371SOL     OW40042   6.124   3.469   0.364 -0.0530  0.1448 -0.3365
43371SOL    HW140043   6.156   3.380   0.373 -0.4771  0.0148 -0.0599
43371SOL    HW240044   6.100   3.477   0.272  0.3266  0.0934 -0.4410
43372SOL     OW40045   9.990   8.506   8.583 -0.3106  0.3265  0.0271
43372SOL    HW140046   9.914   8.448   8.578 -0.0351 -0.2197  1.5505
43372SOL    HW240047  10.020   8.498   8.673  2.5217 -0.7095 -0.8865
43373SOL     OW40048   3.476   2.005  10.726  0.6733  0.2201  0.0462
43373SOL    HW140049   3.436   1.918  10.722  0.7140  0.2128 -0.2371
43373SOL    HW240050   3.419   2.055  10.783  1.3377 -0.3525  1.2408
43374SOL     OW40051  10.127   0.414   9.362  0.2225  0.1354  0.3424
43374SOL    HW140052  10.179   0.489   9.391 -2.2042  3.0037 -2.0354
43374SOL    HW240053  10.052   0.412   9.421 -0.4399  0.5366 -0.4681
43375SOL     OW40054   9.694   3.516   4.402  0.4294 -0.0712 -0.2855
43375SOL    HW140055   9.753   3.441   4.390 -0.7897 -1.1766  0.3065
43375SOL    HW240056   9.627   3.505   4.334  0.0230  0.2506  0.0588
43376SOL     OW40057   3.205   7.931   7.043 -0.2090  0.1919  0.1265
43376SOL    HW140058   3.209   7.913   6.949  2.0026 -0.0899  0.2163
43376SOL    HW240059   3.200   7.844   7.084 -1.4158  0.3223  0.2811
43377SOL     OW40060   7.573   9.216   6.479 -0.3247 -0.3255  0.2103
43377SOL    HW140061   7.490   9.170   6.476 -0.7624  0.4746 -0.6111
43377SOL    HW240062   7.550   9.304   6.511  0.4062 -0.4899  1.2322
43378SOL     OW40063  12.544   8.136   7.881  0.2615 -0.2468  0.6255
43378SOL    HW140064  12.500   8.176   7.806  2.1436  0.2804 -0.2743
43378SOL    HW240065  12.500   8.052   7.894 -0.5688 -0.0242 -0.6143
43379SOL     OW40066   7.490   5.900   2.715 -0.1981 -0.4009 -0.1915
43379SOL    HW140067   7.517   5.858   2.797 -0.6833 -0.5738 -0.1158
43379SOL    HW240068   7.415   5.849   2.686 -1.4976  1.0732  0.4607
43380SOL     OW40069   7.442   2.347   0.567  0.5810  0.2670 -0.1028
43380SOL    HW140070   7.390   2.341   0.486  0.0696  0.2600  0.2185
43380SOL    HW240071   7.532   2.331   0.539  0.6688  2.0435 -0.9756
43381SOL     OW40072   7.764  13.173  12.964  0.5850  0.1518  0.0710
43381SOL    HW140073   7.701  13.105  12.988  1.8353 -1.2922 -0.4970
43381SOL    HW240074   7.711  13.246  12.934 -0.8260 -0.6289  0.5775
43382SOL     OW40075   0.221   4.363   9.155  0.2665 -0.3668 -0.0945
43382SOL    HW140076   0.279   4.378   9.081 -0.8064  1.0328 -0.6868
43382SOL    HW240077   0.258   4.415   9.226  0.9187 -1.1797  0.1754
43383SOL     OW40078  12.646   3.987   1.035 -0.0818 -0.2561  0.1945
43383SOL    HW140079  12.642   4.020   1.125  1.7983  0.2239  0.1327
43383SOL    HW240080  12.632   4.064   0.981  0.8890 -0.1529  0.0754
43384SOL     OW40081   2.636  12.529  10.847  0.0503  0.3534  0.7177
43384SOL    HW140082   2.601  12.492  10.929 -1.6233  0.5059  0.1067
43384SOL    HW240083   2.592  12.479  10.778 -1.0082  2.3541 -0.1157
43385SOL     OW40084   8.598  10.372   2.129  0.4551  0.3774  0.3939
43385SOL    HW140085   8.510  10.409   2.135  0.5469  0.4848  1.3559
43385SOL    HW240086   8.649  10.437   2.080 -0.2871 -0.2726 -1.2909
43386SOL     OW40087   1.065   7.325  10.445 -0.3108 -0.0253 -0.3217
43386SOL    HW140088   1.135   7.338  10.509 -0.8976  0.4827  0.2330
43386SOL    HW240089   1.037   7.234  10.457  1.7652 -0.9736 -2.1138
43387SOL     OW40090  10.597   9.786   3.710  0.0203 -0.0167 -0.2559
43387SOL    HW140091  10.689   9.806   3.697 -0.2278  0.5101 -1.4069
43387SOL    HW240092  10.573   9.829   3.792  0.4682  1.0477 -0.6680
43388SOL     OW40093  12.310   2.255   8.553 -0.0328 -0.3151 -0.2203
43388SOL    HW140094  12.225   2.289   8.524 -0.5120 -0.9568  0.4244
43388SOL    HW240095  12.313   2.275   8.646  1.0134  0.6910 -0.4460
43389SOL     OW40096   1.836  12.756   3.479  0.2185  0.2681  0.2267
43389SOL    HW140097   1.885  12.808   3.416 -1.8730  0.1239 -1.6226
43389SOL    HW240098   1.765  12.813   3.509 -0.3947 -0.5563  0.3888
43390SOL     OW40099  11.923   7.013   7.576 -0.1236  0.1532 -0.4101
43390SOL    HW140100  11.891   7.085   7.520  0.0877  0.9845  0.5045
43390SOL    HW240101  12.007   6.988   7.538  0.8859  1.9252  0.5140
43391SOL     OW40102   9.612   7.322   6.160  0.0714  0.4618 -0.7239
43391SOL    HW140103   9.531   7.274   6.146  0.4875 -0.5144  0.1185
43391SOL    HW240104   9.649   7.334   6.072 -0.3528 -0.2143 -1.0022
43392SOL     OW40105   4.515   2.252   9.291  0.0870  0.1265  0.2282
43392SOL    HW140106   4.422   2.232   9.303  0.2318 -0.7793 -0.0347
43392SOL    HW240107   4.547   2.268   9.380 -0.7413  2.5828  0.1529
43393SOL     OW40108   3.462   9.346   8.541  0.1000  0.9079  0.2526
43393SOL    HW140109   3.389   9.403   8.566 -1.4100 -0.8149 -0.0315
43393SOL    HW240110   3.480   9.369   8.450  0.4160  1.8433  0.5395
43394SOL     OW40111   6.617   4.889   0.240 -0.0059  0.4903  0.0646
43394SOL    HW140112   6.579   4.815   0.289 -0.4440  1.0911  0.6563
43394SOL    HW240113   6.551   4.958   0.248  0.3826  0.9296 -0.5174
43395SOL     OW40114   6.629   6.940   4.187  0.4196 -0.6787 -0.4829
43395SOL    HW140115   6.568   6.918   4.258  0.6502 -2.0912 -0.7051
43395SOL    HW240116   6.578   6.997   4.129 -0.8763 -2.2440 -0.9334
43396SOL     OW40117   3.418   3.491   9.901  0.2565  0.2922  0.1194
43396SOL    HW140118   3.387   3.474   9.990  1.2294  2.1972  0.8721
43396SOL    HW240119   3.423   3.405   9.861 -1.9553 -0.4645  1.2910
43397SOL     OW40120   1.842   8.301   0.387  0.0197 -0.2695  0.3938
43397SOL    HW140121   1.820   8.248   0.464 -0.9782 -0.7434 -0.1990
43397SOL    HW240122   1.918   8.256   0.349 -0.2976 -0.7939  0.3685
43398SOL     OW40123   7.086  11.855   3.973 -0.4939  0.0039  0.2677
43398SOL    HW140124   7.159  11.820   4.024 -0.0160  1.1391  0.4030
43398SOL    HW240125   7.059  11.934   4.021 -0.7568  0.4805 -0.6350
43399SOL     OW40126   1.459   7.802   2.733  0.2631 -0.0835  0.2652
43399SOL    HW140127   1.415   7.785   2.816  3.9834 -0.5249  2.3905
43399SOL    HW240128   1.440   7.725   2.679 -1.3999 -0.2659  1.0616
43400SOL     OW40129   3.139   1.827  11.724  0.4553 -0.6477 -0.1328
43400SOL    HW140130   3.175   1.915  11.713  2.0863 -1.4179 -1.5154
43400SOL    HW240131   3.092   1.810  11.642 -0.6748 -0.7264  0.5187
43401SOL     OW40132   2.802   6.438  11.626 -0.3382 -0.1745  0.0768
43401SOL    HW140133   2.880   6.494  11.632 -0.0907 -0.4568 -0.3875
43401SOL    HW240134   2.835   6.357  11.587 -0.7427 -0.5482  0.5149
43402SOL     OW40135  10.527   4.940   6.664 -1.1183  0.2457 -0.2291
43402SOL    HW140136  10.580   4.971   6.591  0.2941 -0.0978  0.5877
43402SOL    HW240137  10.525   4.845   6.654 -0.3402  0.1316  0.5075
43403SOL     OW40138   7.014   5.612   1.257  0.2233 -0.2213  0.3095
43403SOL    HW140139   7.038   5.547   1.324  1.0278 -0.5753 -0.3043
43403SOL    HW240140   7.022   5.696   1.301  3.4278 -0.2371 -0.0214
43404SOL     OW40141   7.827   2.968   3.420  0.3366 -0.8785  0.0378
43404SOL    HW140142   7.770   2.905   3.465 -0.3752 -0.4615 -0.2588
43404SOL    HW240143   7.868   2.918   3.350 -0.0979 -1.0661 -0.0912
43405SOL     OW40144   9.729   1.619   4.204 -0.4857  0.3458 -0.1690
43405SOL    HW140145   9.739   1.631   4.110  0.1817 -1.1614 -0.3200
43405SOL    HW240146   9.639   1.589   4.215 -0.5254  0.4004 -0.3404
43406SOL     OW40147   8.095   3.279   1.728  0.6084 -0.0727 -0.2757
43406SOL    HW140148   8.133   3.317   1.649 -2.9378  1.1727 -1.5905
43406SOL    HW240149   8.011   3.243   1.699  0.4084 -2.1044  2.4569
43407SOL     OW40150   1.760  11.981  12.022  0.1886 -0.5456  0.5306
43407SOL    HW140151   1.823  12.054  12.022 -0.6789  0.2199 -0.1479
43407SOL    HW240152   1.685  12.014  11.973 -0.7123 -1.4860  1.2481
43408SOL     OW40153  10.937   4.541   6.428  0.0288 -0.1254  0.0737
43408SOL    HW140154  10.945   4.446   6.438  1.3067  0.0218  0.6415
43408SOL    HW240155  10.971   4.577   6.510  0.8674  0.8456 -0.6735
43409SOL     OW40156  12.062   1.745   3.314 -0.0539 -0.4128  0.1615
43409SOL    HW140157  12.017   1.805   3.254  0.3814  0.3512  0.5901
43409SOL    HW240158  12.084   1.799   3.390 -0.3861 -1.3141  0.9165
43410SOL     OW40159   0.276   1.762   8.680 -0.7013  0.4627  0.0748
43410SOL    HW140160   0.213   1.773   8.751 -1.8315 -0.3159 -0.7695
43410SOL    HW240161   0.264   1.840   8.626 -1.0185  0.2629 -0.1430
43411SOL     OW40162  12.272  13.079   8.930  0.4571  0.8395  0.6231
43411SOL    HW140163  12.246  13.170   8.944  0.9331  1.5908 -2.6920
43411SOL    HW240164  12.197  13.040   8.884  1.1513  0.2191  0.0004
43412SOL     OW40165   5.010   4.407   4.627 -0.4711 -0.7175  0.4238
43412SOL    HW140166   5.095   4.379   4.661 -0.0778  0.1133  0.1562
43412SOL    HW240167   4.946   4.363   4.682  0.1383 -0.7498  1.1201
43413SOL     OW40168   3.146  12.328   9.561 -0.3359  0.3480  0.0006
43413SOL    HW140169   3.170  12.326   9.654  1.4145 -1.9077 -0.4113
43413SOL    HW240170   3.106  12.242   9.546 -1.7836  1.1710 -1.0942
43414SOL     OW40171  12.486   8.391  10.912 -0.7561 -0.2829  0.3165
43414SOL    HW140172  12.492   8.431  10.998 -0.5572  1.1767 -0.3412
43414SOL    HW240173  12.393   8.395  10.890 -0.7885 -0.5358  0.4023
43415SOL     OW40174   4.798   4.909   7.817  0.4451  0.3965  0.3295
43415SOL    HW140175   4.730   4.960   7.862  0.6363  0.7095  0.2723
43415SOL    HW240176   4.759   4.823   7.803  0.3757  0.2985  1.0795
43416SOL     OW40177   9.147   1.091   1.386  0.6462  0.6566 -0.2744
43416SOL    HW140178   9.080   1.077   1.452  0.5794 -1.0928 -0.6718
43416SOL    HW240179   9.127   1.026   1.318  0.4843  2.6241 -2.2060
43417SOL     OW40180   8.474  11.264   6.837  0.9341  0.1231  0.1181
43417SOL    HW140181   8.495  11.207   6.763  0.1547 -1.9938  1.4315
43417SOL    HW240182   8.379  11.270   6.836  1.0231  1.6966 -0.1798
43418SOL     OW40183   7.589   6.076  10.905 -0.1059  0.3949 -0.0342
43418SOL    HW140184   7.574   6.171  10.899  2.5372  0.8763 -0.4728
43418SOL    HW240185   7.638   6.054  10.826  0.9169 -0.9501  0.9122
43419SOL     OW40186   4.662   2.225   1.013 -0.2649 -0.6925  0.1489
43419SOL    HW140187   4.634   2.161   0.948  1.0438 -1.2693  0.1232
43419SOL    HW240188   4.742   2.188   1.051 -0.7837 -0.2002  1.8283
43420SOL     OW40189   6.807   4.595  12.428  0.2137 -0.1012 -0.2671
43420SOL    HW140190   6.773   4.668  12.479 -0.4570 -0.6554  0.0879
43420SOL    HW240191   6.856   4.637  12.356  0.6389  0.6814  0.4641
43421SOL     OW40192   1.042   4.893   9.834  0.2014 -0.0790  0.4844
43421SOL    HW140193   1.016   4.861   9.748 -1.0532 -1.2566  1.2608
43421SOL    HW240194   1.125   4.849   9.852  1.0091  0.9810 -0.5380
43422SOL     OW40195   9.534   0.331   7.107  0.7364  0.9296  0.4410
43422SOL    HW140196   9.624   0.309   7.130  0.8112  0.4551 -0.2779
43422SOL    HW240197   9.534   0.426   7.096  1.7765  0.7191 -2.0733
43423SOL     OW40198   3.814   2.403   4.930  0.1658 -0.3435  0.5464
43423SOL    HW140199   3.777   2.474   4.982 -0.1635 -0.3207  0.2911
43423SOL    HW240200   3.755   2.329   4.945 -1.5802  0.4026 -1.8841
43424SOL     OW40201   0.955  10.013  10.724 -0.1596  0.7068 -0.3923
43424SOL    HW140202   0.970  10.074  10.652  0.2650  1.8820  0.6547
43424SOL    HW240203   0.880  10.050  10.771  0.4989  0.7923  0.6201
43425SOL     OW40204   2.928   7.487   2.652 -0.3271 -0.2698 -0.2120
43425SOL    HW140205   2.859   7.439   2.698  0.9719 -1.1053  0.9461
43425SOL    HW240206   2.916   7.464   2.560 -2.8898  1.3238 -0.3720
43426SOL     OW40207   3.786   7.163   2.607 -0.5592 -0.0495 -0.2276
43426SOL    HW140208   3.780   7.168   2.702  0.4976  1.9290 -0.2263
43426SOL    HW240209   3.791   7.069   2.589 -1.0736 -0.4796  1.6250
43427SOL     OW40210  10.457  11.473  12.026 -0.0669  0.1364 -0.0310
43427SOL    HW140211  10.474  11.530  11.951  1.5358 -0.2355 -0.0037
43427SOL    HW240212  10.435  11.532  12.098  1.1988  0.7248 -0.0989
43428SOL     OW40213   3.917   4.222   2.576 -0.4966 -0.3218  0.2270
43428SOL    HW140214   3.960   4.180   2.650  1.7070  0.3392 -0.5877
43428SOL    HW240215   3.857   4.286   2.615 -1.4519 -1.8930  1.4216
43429SOL     OW40216  12.127   8.172   3.341  0.2137  0.3607 -0.8109
43429SOL    HW140217  12.171   8.148   3.259  0.0196  1.2891 -1.1931
43429SOL    HW240218  12.198   8.172   3.406  0.5292  0.5080 -1.1506
43430SOL     OW40219  11.764   7.870   0.435  0.1505  0.2945 -0.3410
43430SOL    HW140220  11.819   7.822   0.373 -0.6887 -1.1448 -0.0340
43430SOL    HW240221  11.800   7.849   0.521  0.8597  1.6879 -0.2748
43431SOL     OW40222   1.554   1.424   9.058 -0.5759 -0.3447  0.1977
43431SOL    HW140223   1.488   1.449   9.123 -1.3625  2.1186 -1.3941
43431SOL    HW240224   1.632   1.404   9.110 -0.9286  2.2532  1.9702
43432SOL     OW40225   1.797   5.480   4.942  0.2122 -0.4016  0.4989
43432SOL    HW140226   1.837   5.443   5.020 -0.8642 -0.6647  0.9476
43432SOL    HW240227   1.710   5.507   4.971  0.7636  2.0320  0.0665
43433SOL     OW40228  11.837   7.317   6.215  0.5146 -0.0370  0.0183
43433SOL    HW140229  11.819   7.223   6.210  0.6371 -0.1918  1.8120
43433SOL    HW240230  11.839   7.346   6.124 -4.6721 -0.7644 -0.6499
43434SOL     OW40231   4.665  11.934   9.350 -0.5396 -0.9379 -0.1917
43434SOL    HW140232   4.671  11.938   9.445 -0.5205 -0.3377 -0.2155
43434SOL    HW240233   4.684  11.843   9.329 -0.6058 -1.0889  0.3818
43435SOL     OW40234   9.748  13.249   9.337  0.0888 -0.0270  0.4031
43435SOL    HW140235   9.705  13.266   9.420 -1.2748 -1.3226  0.0008
43435SOL    HW240236   9.816  13.316   9.331  0.3862 -0.0299  2.6513
43436SOL     OW40237  13.203   8.630   3.177  0.5170  0.3820 -0.0166
43436SOL    HW140238  13.128   8.615   3.119 -0.2870  2.2157  0.4765
43436SOL    HW240239  13.172   8.603   3.263  0.5070  0.8860  0.1407
43437SOL     OW40240   2.431   5.118   7.216 -0.0632  0.4623  0.2592
43437SOL    HW140241   2.412   5.059   7.288 -0.1718  0.2613  0.0675
43437SOL    HW240242   2.373   5.089   7.145  1.3751 -0.5758 -0.5533
43438SOL     OW40243  11.987   6.388   7.601  0.1303  0.0046  0.1844
43438SOL    HW140244  12.068   6.439   7.606 -0.3263  0.7963 -0.3357
43438SOL    HW240245  12.016   6.297   7.607  1.1386  0.2413 -0.7884
43439SOL     OW40246   2.045   4.206  10.948 -0.4762  0.7396 -0.2162
43439SOL    HW140247   2.099   4.193  11.026 -0.2953 -0.9961 -0.5984
43439SOL    HW240248   2.054   4.299  10.928  1.5582  0.7137  0.3442
43440SOL     OW40249   8.427   9.697   6.712  0.1838  0.1680  0.0106
43440SOL    HW140250   8.341   9.726   6.680  0.8265  1.5122 -0.5803
43440SOL    HW240251   8.467   9.777   6.746  0.9553 -0.5747  0.8940
43441SOL     OW40252   1.788   5.373  11.236 -0.0345  0.8548 -0.1425
43441SOL    HW140253   1.741   5.401  11.157 -0.9891  0.3796  0.2439
43441SOL    HW240254   1.754   5.286  11.254 -0.6741  1.4127  1.4579
43442SOL     OW40255   4.727   3.909   3.544  0.4777  0.0367 -0.1250
43442SOL    HW140256   4.789   3.974   3.579 -0.3930  1.6625 -1.4460
43442SOL    HW240257   4.753   3.898   3.452 -0.2107 -0.4629 -0.2694
43443SOL     OW40258  12.976  12.344  12.011 -0.8729  0.1884 -0.1157
43443SOL    HW140259  12.969  12.435  12.039 -0.5824  0.1167  0.1857
43443SOL    HW240260  12.950  12.293  12.088  0.5848 -0.0292  0.2662
43444SOL     OW40261   9.483  12.170  12.678 -0.0002 -0.1915 -0.3245
43444SOL    HW140262   9.496  12.180  12.772  1.3053  0.5109 -0.5556
43444SOL    HW240263   9.570  12.146  12.644 -0.8888 -2.6074 -1.1035
43445SOL     OW40264  11.648   1.171   2.750  0.5633 -0.3376 -0.0767
43445SOL    HW140265  11.662   1.245   2.691  0.1116 -0.8211 -0.7993
43445SOL    HW240266  11.706   1.103   2.717  2.9902  0.4705  2.1115
43446SOL     OW40267   9.040   3.396  11.270 -0.3292  0.5330 -0.4253
43446SOL    HW140268   9.109   3.437  11.322  2.2791 -2.9912 -0.7294
43446SOL    HW240269   9.037   3.449  11.190  1.2695  1.4560  0.0714
43447SOL     OW40270  10.551  11.959   5.273 -0.0900 -0.2417  0.9247
43447SOL    HW140271  10.540  11.899   5.199  1.6886  2.4096 -1.7688
43447SOL    HW240272  10.461  11.986   5.295 -0.7322  2.2325 -3.5144
43448SOL     OW40273  12.250   6.349   3.654 -0.0663 -0.2867  0.2499
43448SOL    HW140274  12.242   6.280   3.588  0.8634  0.2294 -0.4451
43448SOL    HW240275  12.292   6.307   3.729  0.4498 -0.4968 -0.1513
43449SOL     OW40276   7.714  12.544   9.219  0.5334 -0.1494 -0.8681
43449SOL    HW140277   7.711  12.631   9.178  0.8457 -0.0596 -0.6988
43449SOL    HW240278   7.785  12.499   9.174  0.5846 -0.2066 -0.7286
43450SOL     OW40279   5.914   4.890   5.154  0.5492  0.3313  0.5399
43450SOL    HW140280   5.850   4.955   5.185  0.6228 -0.2386  1.9821
43450SOL    HW240281   5.929   4.834   5.230  0.8399 -1.1031 -0.5299
43451SOL     OW40282   4.391  10.476   6.642 -0.0239  0.0699  0.0527
43451SOL    HW140283   4.371  10.563   6.677  1.3513  0.9525 -1.2292
43451SOL    HW240284   4.322  10.460   6.577 -0.9008 -0.3091  1.0384
43452SOL     OW40285  13.299   2.777   5.475  0.4778 -0.2752 -0.1179
43452SOL    HW140286  13.276   2.706   5.535  0.6561  0.3409  0.6873
43452SOL    HW240287  13.366   2.738   5.417  1.9607 -0.2588  1.4860
43453SOL     OW40288  12.767   9.050  11.419  0.1238  0.3279 -0.0399
43453SOL    HW140289  12.819   9.096  11.353  0.5943 -0.3760 -0.1695
43453SOL    HW240290  12.700   9.113  11.444  0.9625  1.2122  0.0471
43454SOL     OW40291   0.975   5.721   0.427 -0.0300  0.1431 -0.6168
43454SOL    HW140292   0.934   5.799   0.389 -0.0601  0.3977 -0.0809
43454SOL    HW240293   1.065   5.748   0.445 -0.6860  0.9373  1.9474
43455SOL     OW40294  11.347   3.667   7.057  0.0756 -0.1856 -0.1994
43455SOL    HW140295  11.433   3.639   7.090  0.1560 -0.1650 -0.3903
43455SOL    HW240296  11.286   3.604   7.094  0.1141  0.0774  0.3233
43456SOL     OW40297   7.032   3.830   0.452 -0.0161  0.0445  0.5978
43456SOL    HW140298   7.038   3.803   0.543  0.1270  0.6740  0.7757
43456SOL    HW240299   6.939   3.848   0.438  0.0892  0.8132  0.8699
43457SOL     OW40300  13.043   8.284   2.515 -0.3706  0.1545  0.4718
43457SOL    HW140301  12.980   8.342   2.472  0.2981  1.0566  0.6702
43457SOL    HW240302  13.108   8.343   2.552  0.2356 -0.7258  0.8459
43458SOL     OW40303   4.020   7.259   4.481  0.2774 -0.6200  0.0938
43458SOL    HW140304   4.097   7.315   4.489  0.0301 -0.3699  0.7448
43458SOL    HW240305   4.012   7.244   4.387 -0.5345  1.6936 -0.2895
43459SOL     OW40306  11.159   0.590   9.872  0.0330  0.6034  0.3210
43459SOL    HW140307  11.250   0.562   9.883 -0.4108 -0.8816  0.4482
43459SOL    HW240308  11.125   0.597   9.961 -0.6078 -1.1298  0.2439
43460SOL     OW40309   5.005   4.553   1.898 -0.1090 -0.3438  0.2657
43460SOL    HW140310   5.000   4.545   1.993  1.3509  0.5390  0.4507
43460SOL    HW240311   5.079   4.498   1.873  0.1817  0.2603 -0.2266
43461SOL     OW40312  12.052   6.939   3.486  0.2808  0.3320 -0.2579
43461SOL    HW140313  11.975   6.906   3.440 -0.1210 -0.0570  0.6552
43461SOL    HW240314  12.082   7.013   3.434  0.1238 -0.3702 -1.3865
43462SOL     OW40315  10.623  10.630   1.915  0.0558  0.1556  0.1169
43462SOL    HW140316  10.672  10.556   1.878  1.2777  1.1817 -0.3698
43462SOL    HW240317  10.555  10.589   1.968  0.6201 -1.3262 -0.2503
43463SOL     OW40318   2.117   1.842  10.999 -0.2638 -0.2699  0.0517
43463SOL    HW140319   2.088   1.781  11.066 -0.9103 -0.2769 -0.2251
43463SOL    HW240320   2.151   1.786  10.929  1.0376 -0.2418  0.6452
43464SOL     OW40321   6.130   8.757   6.600  0.2763  0.2613  0.0124
43464SOL    HW140322   6.139   8.663   6.582 -1.0928  0.2068 -0.5277
43464SOL    HW240323   6.218   8.792   6.588  0.6294 -0.8058 -0.7224
43465SOL     OW40324  10.750   4.008   6.432  0.0336  0.0735  1.0289
43465SOL    HW140325  10.753   4.097   6.467 -0.3631  0.5757 -0.1606
43465SOL    HW240326  10.841   3.982   6.425  0.4373  1.8399 -2.0799
43466SOL     OW40327  12.938  12.072   3.024 -0.2062  0.1620  1.1301
43466SOL    HW140328  12.905  12.079   3.114  1.6068  1.1310  1.7748
43466SOL    HW240329  12.972  12.159   3.004  2.2161 -0.8162  0.6903
43467SOL     OW40330   0.992   7.877  13.011  0.0290 -0.2874 -0.1933
43467SOL    HW140331   0.971   7.935  12.938 -2.1816 -0.6241  0.1223
43467SOL    HW240332   1.007   7.792  12.971 -0.2163 -0.2620 -0.3379
43468SOL     OW40333   2.084   1.331   4.334 -0.1079 -0.0696 -0.0808
43468SOL    HW140334   2.033   1.380   4.398  1.3215  0.3002  0.8287
43468SOL    HW240335   2.048   1.356   4.249 -0.5323  1.2201  0.4695
43469SOL     OW40336   8.349   8.199   4.291  0.1815 -0.0170  0.2876
43469SOL    HW140337   8.436   8.180   4.258  0.7770  1.3210  1.0047
43469SOL    HW240338   8.289   8.155   4.231  1.3707 -3.9607  1.6832
43470SOL     OW40339   6.938   5.791   5.584 -0.0257 -0.5524  0.3214
43470SOL    HW140340   6.874   5.795   5.655  0.0414  0.2485  0.3479
43470SOL    HW240341   7.023   5.800   5.628  0.0780 -1.0994  0.2380
43471SOL     OW40342  13.075   9.451   5.226  0.4041  0.5073  0.6316
43471SOL    HW140343  13.078   9.526   5.285 -0.9291  2.2712 -1.3407
43471SOL    HW240344  13.131   9.476   5.153  1.3748 -1.2482  0.7296
43472SOL     OW40345   0.648  12.007  10.768  0.6032  0.0492  0.5482
43472SOL    HW140346   0.708  12.062  10.818 -1.0098  0.2508  2.3838
43472SOL    HW240347   0.561  12.031  10.800 -0.3277 -1.6812 -0.5324
43473SOL     OW40348   8.747   7.337   8.934  0.3737 -0.8040  0.2614
43473SOL    HW140349   8.717   7.343   9.025  0.4902 -0.7369  0.2958
43473SOL    HW240350   8.794   7.253   8.930 -0.9417 -1.5549 -0.1226
43474SOL     OW40351   4.528   3.692  12.701  0.0048 -0.6772  0.2163
43474SOL    HW140352   4.582   3.687  12.622 -1.2485  0.6267 -0.7784
43474SOL    HW240353   4.587   3.723  12.769  0.8504 -0.7530 -0.4630
43475SOL     OW40354   1.085   3.848   8.622 -0.0418 -0.0290  0.0867
43475SOL    HW140355   1.022   3.871   8.690  0.0662 -2.6238  1.1898
43475SOL    HW240356   1.034   3.798   8.558  0.2369  0.7956 -0.7965
43476SOL     OW40357  12.608  10.897   7.292  0.1270 -0.2182 -0.4094
43476SOL    HW140358  12.573  10.827   7.238 -0.2703 -1.3947  1.3103
43476SOL    HW240359  12.655  10.953   7.230  0.0293 -1.7056 -1.9054
43477SOL     OW40360   7.102  12.263   6.702  0.2351  0.0930 -0.3583
43477SOL    HW140361   7.169  12.296   6.762 -1.1620  0.9661  0.7702
43477SOL    HW240362   7.135  12.178   6.673  1.0654 -0.2266  1.4311
43478SOL     OW40363   9.658   2.466  10.871  0.2530  1.0216  0.1778
43478SOL    HW140364   9.618   2.467  10.784  0.4038 -0.1931  0.0778
43478SOL    HW240365   9.673   2.374  10.889  1.3024  1.3397  1.0064
43479SOL     OW40366   6.640   9.449   5.959 -0.6513 -0.0573  0.3996
43479SOL    HW140367   6.587   9.435   6.037 -0.3994  2.5478  1.1041
43479SOL    HW240368   6.730   9.456   5.991 -0.0602 -2.1729 -0.5491
43480SOL     OW40369  13.123  11.223   0.209 -0.1897 -0.3273 -0.2295
43480SOL    HW140370  13.218  11.229   0.196 -0.3525 -1.0899 -2.1008
43480SOL    HW240371  13.086  11.269   0.134 -1.2988 -0.9232 -0.0670
43481SOL     OW40372   7.890   4.931  13.093 -0.1896 -0.6868 -0.4570
43481SOL    HW140373   7.807   4.977  13.104  1.0001  2.3639 -2.6549
43481SOL    HW240374   7.944   4.961  13.166 -0.3098 -0.8565 -0.2990
43482SOL     OW40375  11.726   2.679   8.660 -0.3061 -0.3330 -0.5229
43482SOL    HW140376  11.643   2.681   8.613 -1.6645  0.4442  1.7527
43482SOL    HW240377  11.785   2.732   8.607 -2.3980  2.4201 -0.2957
43483SOL     OW40378   1.878  10.495  10.915  0.0816  0.2844  0.0758
43483SOL    HW140379   1.935  10.570  10.899 -0.1170  0.4730  0.2450
43483SOL    HW240380   1.905  10.464  11.002  2.7966 -2.1818 -1.4480
43484SOL     OW40381   3.261   6.663   5.047 -0.4484  0.3394 -1.2492
43484SOL    HW140382   3.327   6.668   4.978  1.4882  0.4362  0.5006
43484SOL    HW240383   3.283   6.736   5.106 -1.1014 -0.5899  0.2008
43485SOL     OW40384  11.214  10.473   7.118 -0.0036  0.3948 -0.1946
43485SOL    HW140385  11.232  10.409   7.187  1.2595  1.7037  0.7442
43485SOL    HW240386  11.127  10.507   7.139  0.7395  1.4462  1.3373
43486SOL     OW40387   8.195   6.814   2.055  0.5537  0.5908  0.3416
43486SOL    HW140388   8.099   6.813   2.051  0.5143  0.6202  1.0945
43486SOL    HW240389   8.218   6.729   2.093  0.8842  0.1958 -0.7092
43487SOL     OW40390   1.909   2.859   1.455  0.7916  0.0133 -0.0025
43487SOL    HW140391   1.858   2.792   1.500  0.3117  0.5876  0.3364
43487SOL    HW240392   1.858   2.881   1.377  1.7781 -1.2099 -1.0402
43488SOL     OW40393   3.695   0.220  10.217 -0.3471  0.0898 -0.0354
43488SOL    HW140394   3.617   0.206  10.271  0.2904  0.8820  1.1391
43488SOL    HW240395   3.684   0.309  10.181  0.6144  0.7483  1.2246
43489SOL     OW40396   8.704  12.446  12.290  0.4199 -0.0267 -0.3036
43489SOL    HW140397   8.794  12.479  12.298  1.0017 -0.8096 -2.6782
43489SOL    HW240398   8.714  12.352  12.275 -0.9452 -0.4717  1.2986
43490SOL     OW40399  10.652  12.919   6.594  1.0808 -0.3009  0.7337
43490SOL    HW140400  10.622  12.980   6.528 -1.7584 -1.9740  0.2986
43490SOL    HW240401  10.698  12.973   6.658  0.6749  1.8973 -0.7201
43491SOL     OW40402  12.605   5.895   7.196 -0.2572 -0.6871  0.0616
43491SOL    HW140403  12.537   5.910   7.262 -0.7629 -1.6143 -0.2285
43491SOL    HW240404  12.561   5.847   7.126  0.2194  0.4461 -1.0584
43492SOL     OW40405   3.770   1.115   9.218 -0.1891  0.0907 -0.4596
43492SOL    HW140406   3.753   1.027   9.251  0.2417 -0.0551 -0.6132
43492SOL    HW240407   3.808   1.162   9.292 -1.3603  0.4607 -0.0739
43493SOL     OW40408   2.782   2.731  12.938 -0.1875 -0.1251  0.1746
43493SOL    HW140409   2.845   2.682  12.992  0.5993 -0.1386 -0.7282
43493SOL    HW240410   2.815   2.722  12.849 -0.9119  0.7381 -0.1934
43494SOL     OW40411   2.573   1.013  12.022  0.2481  0.9160  0.0302
43494SOL    HW140412   2.609   0.941  12.075 -1.5610 -0.0382  0.0515
43494SOL    HW240413   2.632   1.018  11.947  0.4191 -0.6506  0.0105
43495SOL     OW40414  11.524   9.948   7.388 -0.0565  0.1558 -0.0315
43495SOL    HW140415  11.495   9.875   7.443 -0.2149  0.4168  0.2284
43495SOL    HW240416  11.453  10.012   7.393  0.5869  0.8251  0.6557
43496SOL     OW40417   5.569   9.442  13.020  0.5324 -0.1069  0.6016
43496SOL    HW140418   5.488   9.437  12.969  0.4122  1.6952  0.5802
43496SOL    HW240419   5.639   9.446  12.954  0.4990  0.4230  0.5990
43497SOL     OW40420   3.082   5.202  11.008  0.0929 -0.1325  0.1565
43497SOL    HW140421   3.141   5.262  11.053  0.9922 -0.1209 -1.0268
43497SOL    HW240422   3.036   5.256  10.944  0.1597 -0.5081 -0.2117
43498SOL     OW40423   2.032   7.277   7.909  0.5040 -1.0404 -0.5740
43498SOL    HW140424   1.990   7.360   7.929  0.9113 -0.3360 -2.3831
43498SOL    HW240425   1.967   7.211   7.931 -0.2980 -0.1681 -0.2604
43499SOL     OW40426   9.130  10.174   2.144 -0.4680  0.3413 -0.1804
43499SOL    HW140427   9.042  10.154   2.114 -0.3336 -0.7929  0.1472
43499SOL    HW240428   9.142  10.121   2.223  0.4768  0.5381 -0.1716
43500SOL     OW40429  12.797   5.107   4.660 -0.1828 -0.4206  0.4140
43500SOL    HW140430  12.719   5.143   4.618  0.6107  3.3145  1.7820
43500SOL    HW240431  12.855   5.086   4.587 -1.5494 -1.1555 -0.5245
43501SOL     OW40432   6.069   7.544  13.061 -0.4423  0.6387 -0.2032
43501SOL    HW140433   6.037   7.506  13.143 -0.8211  1.4204  0.0131
43501SOL    HW240434   6.153   7.585  13.085  0.1004 -0.2646 -0.4939
43502SOL     OW40435  12.763   0.140   1.038 -0.2084  0.2000  0.3605
43502SOL    HW140436  12.854   0.164   1.020 -0.2118  0.1044  0.2138
43502SOL    HW240437  12.713   0.220   1.020 -0.0486  0.5518  1.3829
43503SOL     OW40438   8.927   6.165   5.743  0.0058  0.0603 -0.1362
43503SOL    HW140439   8.895   6.157   5.654  0.6969  1.2008 -0.5079
43503SOL    HW240440   8.902   6.082   5.785  0.1444 -0.7175 -1.5231
43504SOL     OW40441   4.492   4.201  10.914  0.4541 -0.3831  0.0113
43504SOL    HW140442   4.510   4.291  10.884  0.3034  0.1884  1.5360
43504SOL    HW240443   4.568   4.151  10.884  0.4562  0.2027 -1.0203
43505SOL     OW40444   3.117  13.128  11.319 -0.1302  0.7593 -0.1421
43505SOL    HW140445   3.126  13.219  11.347 -0.2001  0.9567 -0.7384
43505SOL    HW240446   3.059  13.132  11.243  0.0737  0.2496 -0.3301
43506SOL     OW40447  10.165   4.396  13.092  0.1872 -0.1263  0.3023
43506SOL    HW140448  10.245   4.450  13.092 -0.5814  1.0814 -1.1955
43506SOL    HW240449  10.129   4.408  13.180 -0.2347  2.3164 -0.1246
43507SOL     OW40450   4.647   3.699  10.957  0.3056  0.1990  0.3800
43507SOL    HW140451   4.621   3.694  10.865 -0.0176  1.4405  0.3797
43507SOL    HW240452   4.581   3.755  10.997 -0.3341 -1.3937  1.6788
43508SOL     OW40453   6.770  10.525   6.042  0.3937  0.2391  0.3571
43508SOL    HW140454   6.759  10.473   5.962 -1.5219  1.5563 -0.3093
43508SOL    HW240455   6.825  10.470   6.099  1.5692 -0.8571 -1.7201
43509SOL     OW40456   7.371  11.201   9.469  0.0497  0.3183 -0.0498
43509SOL    HW140457   7.275  11.199   9.471 -0.0649 -3.1531 -1.2546
43509SOL    HW240458   7.392  11.184   9.377  1.7145 -1.7006  0.6325
43510SOL     OW40459   2.394   4.904  13.116 -0.5636 -0.8854 -0.2180
43510SOL    HW140460   2.386   4.855  13.198 -1.2349  0.2605  0.4322
43510SOL    HW240461   2.342   4.983  13.131  0.4555  0.0051 -1.2551
43511SOL     OW40462   1.528  12.574  12.111 -0.4072  0.1698  0.0440
43511SOL    HW140463   1.595  12.642  12.110 -1.0471  0.8114 -0.7843
43511SOL    HW240464   1.544  12.526  12.192  2.2719 -0.9294 -1.0160
43512SOL     OW40465   0.248   7.554   7.088 -0.1139 -0.4175 -0.2303
43512SOL    HW140466   0.184   7.609   7.133  2.7870  2.3689  0.8031
43512SOL    HW240467   0.237   7.575   6.995 -2.9900 -2.7568 -0.5964
43513SOL     OW40468  11.562   5.005  10.535 -0.4566  0.1700  0.0212
43513SOL    HW140469  11.622   4.935  10.506  1.0930  1.4901 -0.0977
43513SOL    HW240470  11.489   5.001  10.474  0.4370 -0.2488 -1.0632
43514SOL     OW40471  12.300   7.223   8.492 -0.0185  0.0894  0.0855
43514SOL    HW140472  12.319   7.247   8.583 -0.4907  1.3906 -0.1424
43514SOL    HW240473  12.379   7.177   8.463  1.0818  1.6562  0.4786
43515SOL     OW40474   2.859  11.050  12.167 -0.0363  0.0414 -0.4218
43515SOL    HW140475   2.912  11.028  12.090 -0.5917 -3.1937 -0.0365
43515SOL    HW240476   2.838  10.965  12.206 -2.0772  1.4372  1.7655
43516SOL     OW40477   5.659   9.186  12.409  0.3310 -0.2418  0.2983
43516SOL    HW140478   5.635   9.121  12.475  1.6215 -1.7984 -0.6720
43516SOL    HW240479   5.721   9.244  12.454  1.1946 -1.2783  0.5061
43517SOL     OW40480   1.267   3.879   0.109 -0.3013  0.9526  0.0206
43517SOL    HW140481   1.235   3.962   0.145 -2.7779 -0.3639  1.1426
43517SOL    HW240482   1.198   3.852   0.048  1.4535  0.6538 -1.9273
43518SOL     OW40483  12.115   4.398   6.104 -0.0177 -0.5883 -0.6971
43518SOL    HW140484  12.067   4.470   6.145 -0.3033 -1.6082  0.8499
43518SOL    HW240485  12.187   4.441   6.058  0.0201  0.6861  0.4566
43519SOL     OW40486   1.288   0.032   4.197 -0.3560  0.1114  0.6392
43519SOL    HW140487   1.314  -0.039   4.137  0.1485  0.9209 -0.1275
43519SOL    HW240488   1.296  -0.006   4.284  3.7790  0.2983  0.5619
43520SOL     OW40489   9.822  11.071   2.103  0.2487 -0.1360 -0.0082
43520SOL    HW140490   9.729  11.051   2.105  0.3859 -0.7519  0.3458
43520SOL    HW240491   9.827  11.163   2.130 -0.1526 -0.4812  1.2779
43521SOL     OW40492   3.061   6.488   7.084  0.4170  0.1641  0.9450
43521SOL    HW140493   3.137   6.480   7.142  1.1616 -1.8518 -0.2186
43521SOL    HW240494   2.999   6.423   7.117 -0.1065  0.6135  0.8560
43522SOL     OW40495  12.478   8.838   4.987  0.1696 -0.1421  0.1720
43522SOL    HW140496  12.569   8.832   5.017  0.1546  1.8704  0.7797
43522SOL    HW240497  12.485   8.851   4.892  0.8613  3.9953  0.5791
43523SOL     OW40498  10.338   4.359   0.698 -0.2710 -0.3734  0.2831
43523SOL    HW140499  10.316   4.325   0.611  1.2170  0.3102 -0.4079
43523SOL    HW240500  10.421   4.405   0.685 -1.1670  1.7804  1.5721
43524SOL     OW40501  11.130   2.872   6.288 -0.2506  0.0388 -0.1322
43524SOL    HW140502  11.154   2.782   6.312 -1.5390 -0.5990 -1.1299
43524SOL    HW240503  11.042   2.884   6.325  0.4305  1.3853  1.1592
43525SOL     OW40504  12.922   8.312   8.329 -0.3667 -0.3320 -0.5552
43525SOL    HW140505  13.007   8.305   8.286 -0.1531  0.0690 -0.2003
43525SOL    HW240506  12.932   8.263   8.411 -0.8025 -1.1816 -0.9937
43526SOL     OW40507   6.158   7.198   7.519 -0.3504 -0.0642 -0.4522
43526SOL    HW140508   6.241   7.153   7.533 -0.2664  0.8006  2.7074
43526SOL    HW240509   6.176   7.289   7.542 -1.5623  0.7345 -2.4002
43527SOL     OW40510  12.705   7.631   1.515  0.4536 -0.3901 -0.4414
43527SOL    HW140511  12.774   7.583   1.561  1.2789 -0.0309 -1.2638
43527SOL    HW240512  12.728   7.622   1.422  1.4648  2.7249 -0.6198
43528SOL     OW40513   8.762   6.723   7.630  0.1693  0.0690 -0.0747
43528SOL    HW140514   8.763   6.662   7.557  1.0251  0.5668 -0.5059
43528SOL    HW240515   8.854   6.731   7.656 -0.2634 -1.3983  2.1908
43529SOL     OW40516   9.863  10.024   4.592 -0.0334  0.3043  0.2373
43529SOL    HW140517   9.775   9.986   4.591  0.0985 -0.0179  0.5224
43529SOL    HW240518   9.898  10.000   4.678 -0.3437  1.9985  0.8791
43530SOL     OW40519   9.451   9.050   2.614 -0.0936  0.3504 -0.3077
43530SOL    HW140520   9.356   9.062   2.606  0.0541  1.1723 -0.9592
43530SOL    HW240521   9.471   8.981   2.551 -0.4912 -1.0874  1.0949
43531SOL     OW40522   3.874  12.163   4.954  0.2742  0.0301  0.2214
43531SOL    HW140523   3.800  12.158   5.015 -0.9066  1.9826 -0.8968
43531SOL    HW240524   3.949  12.183   5.009 -0.3755 -0.2051  1.2310
43532SOL     OW40525   4.297   7.598   2.808 -0.3926 -0.2529  0.1217
43532SOL    HW140526   4.333   7.685   2.794  0.9339 -0.9084 -0.6796
43532SOL    HW240527   4.249   7.578   2.728  1.1632 -1.1156 -0.6389
43533SOL     OW40528   3.593   1.496   9.242 -0.3722 -0.5808  0.5192
43533SOL    HW140529   3.669   1.516   9.296 -0.0316  0.3434 -0.2754
43533SOL    HW240530   3.530   1.565   9.262 -0.9815 -1.3051  1.1246
43534SOL     OW40531   7.889  10.491   6.345 -0.1814  0.5656  0.4507
43534SOL    HW140532   7.968  10.440   6.364 -1.3343 -1.1971  0.6940
43534SOL    HW240533   7.830  10.474   6.418 -1.7193 -0.1540 -0.8806
43535SOL     OW40534  13.025   7.191   4.067  0.1286  0.3543 -0.2004
43535SOL    HW140535  13.016   7.113   4.013 -0.8790 -0.3007  0.8655
43535SOL    HW240536  12.957   7.251   4.036 -1.9204 -0.8580  1.6391
43536SOL     OW40537  12.204   7.095   6.632  0.3564  0.4436 -0.4053
43536SOL    HW140538  12.254   7.141   6.698 -0.3577  0.5941  0.0449
43536SOL    HW240539  12.232   7.004   6.639 -0.3576  0.2973  0.7263
43537SOL     OW40540   5.203   3.413   0.596  0.4716 -0.2587 -0.0480
43537SOL    HW140541   5.196   3.464   0.677  1.7017 -0.8574  0.4645
43537SOL    HW240542   5.122   3.363   0.592 -0.5862  1.4157 -0.3554
43538SOL     OW40543   5.644  12.605   8.001  0.5831 -0.3991  0.3411
43538SOL    HW140544   5.676  12.679   8.051 -0.9542  1.0208 -0.6561
43538SOL    HW240545   5.552  12.598   8.024  0.5035 -1.4603 -0.2249
43539SOL     OW40546   7.008   9.260   1.181 -0.0816 -0.2899  0.3070
43539SOL    HW140547   6.970   9.182   1.222 -1.4019 -0.1147 -0.5415
43539SOL    HW240548   7.066   9.296   1.248 -2.8790  0.5618  2.4655
43540SOL     OW40549   3.601   6.977   7.360  0.1113 -0.2068 -0.4140
43540SOL    HW140550   3.546   6.979   7.438 -0.7089 -1.3567 -0.9499
43540SOL    HW240551   3.687   6.951   7.393 -0.3622 -1.2499  0.0383
43541SOL     OW40552  12.289   6.158   7.366  0.1106 -0.4630  0.5513
43541SOL    HW140553  12.353   6.227   7.349  1.3046 -1.7827 -0.5601
43541SOL    HW240554  12.211   6.205   7.395  0.9893  1.3213  0.1817
43542SOL     OW40555   0.659  12.632   4.093  0.0632 -0.3410  0.1580
43542SOL    HW140556   0.677  12.673   4.178 -1.5497  0.2150  0.2612
43542SOL    HW240557   0.730  12.663   4.037  0.7004 -0.0659  1.0829
43543SOL     OW40558   7.710   4.373   4.135  0.0667  0.0866 -0.0839
43543SOL    HW140559   7.717   4.300   4.196 -4.6406  0.3053  1.0724
43543SOL    HW240560   7.680   4.446   4.188 -1.6108  1.0081 -2.1620
43544SOL     OW40561   9.328   0.001   1.412  0.1401  0.0405 -0.4002
43544SOL    HW140562   9.266   0.001   1.339 -1.4177  2.4081  0.7927
43544SOL    HW240563   9.411   0.027   1.373  0.0565 -1.5564 -1.7525
43545SOL     OW40564  12.519   1.019   9.784 -0.6134 -0.4935  0.2109
43545SOL    HW140565  12.589   0.991   9.724 -2.0057 -1.2872 -1.1008
43545SOL    HW240566  12.473   0.938   9.806 -0.2602 -0.2037  2.2802
43546SOL     OW40567  10.994   2.410   6.583 -0.6506  0.6219 -0.8012
43546SOL    HW140568  10.927   2.350   6.550 -0.9993  1.1545 -1.0833
43546SOL    HW240569  10.990   2.400   6.678  0.1630 -0.7128 -0.8860
43547SOL     OW40570  10.849  10.030   8.195 -0.7722  0.2523 -0.4478
43547SOL    HW140571  10.933  10.028   8.149 -0.6862  3.5492 -0.6780
43547SOL    HW240572  10.871  10.019   8.287 -0.0946  0.7598 -0.5440
43548SOL     OW40573   9.958   2.474   2.524  0.1962  0.2780  0.2730
43548SOL    HW140574  10.031   2.444   2.579 -0.4926  1.0116  1.6398
43548SOL    HW240575   9.995   2.548   2.475  1.2427 -1.2911 -1.4322
43549SOL     OW40576  11.922   5.796  11.057 -0.4072  0.0401 -0.3585
43549SOL    HW140577  11.946   5.710  11.023 -4.0267 -1.6439  0.8574
43549SOL    HW240578  12.006   5.838  11.077  1.5529 -3.9060  0.6642
43550SOL     OW40579   2.846   1.164   2.469 -0.0973 -0.6373  0.0697
43550SOL    HW140580   2.780   1.204   2.413 -0.9833 -1.5531  0.4210
43550SOL    HW240581   2.885   1.096   2.414  1.1496  0.4365 -0.4076
43551SOL     OW40582  11.713   9.749   1.791 -0.3413  0.2232  0.4548
43551SOL    HW140583  11.751   9.818   1.845  2.2729 -0.3802 -0.4463
43551SOL    HW240584  11.738   9.772   1.701 -0.6512 -1.1310 -0.0062
43552SOL     OW40585  12.751   4.889   1.722  0.0524 -0.8557 -0.1400
43552SOL    HW140586  12.834   4.923   1.755  0.9413 -2.7953 -0.2538
43552SOL    HW240587  12.685   4.950   1.755  1.4125  0.1322  0.8423
43553SOL     OW40588   6.573   2.158   4.074  0.5033 -0.3717 -0.3429
43553SOL    HW140589   6.621   2.106   4.010  0.8685  0.1341 -0.4785
43553SOL    HW240590   6.636   2.223   4.106  0.1553 -0.2412  0.0919
43554SOL     OW40591   7.838  11.811   6.925  0.9276  0.0604 -0.1783
43554SOL    HW140592   7.896  11.738   6.902  1.1535 -0.1772  1.0386
43554SOL    HW240593   7.874  11.843   7.008 -0.5176  0.0930  0.4533
43555SOL     OW40594   1.069   8.150  11.769  0.3180 -0.5520 -0.0285
43555SOL    HW140595   1.015   8.078  11.803  0.2268 -0.7250 -0.5364
43555SOL    HW240596   1.007   8.205  11.720  0.3225  0.0496  0.6233
43556SOL     OW40597  12.043  11.957  10.388  0.6113  0.1523 -0.3834
43556SOL    HW140598  12.119  12.013  10.404  0.1465  0.7141 -0.0971
43556SOL    HW240599  12.040  11.898  10.463 -0.6372  1.7310  0.8725
43557SOL     OW40600   0.370  11.005   2.671  0.2831  0.4122  0.0025
43557SOL    HW140601   0.299  11.063   2.696  0.2045 -0.9585  3.5810
43557SOL    HW240602   0.448  11.060   2.673 -0.1845  1.0862 -0.0790
43558SOL     OW40603   1.726  11.868   7.751  0.0413  1.0504 -0.5032
43558SOL    HW140604   1.795  11.833   7.695  0.7038 -0.1516  1.0098
43558SOL    HW240605   1.687  11.938   7.699  1.0463  0.4130 -2.2013
43559SOL     OW40606   7.767  10.448   2.568  0.1652 -0.2545  0.3707
43559SOL    HW140607   7.828  10.477   2.636  0.7296  0.1957 -0.3090
43559SOL    HW240608   7.710  10.524   2.553  0.1648 -0.2840  0.2182
43560SOL     OW40609   2.497  10.226   1.274 -0.4125  0.7539 -0.7443
43560SOL    HW140610   2.588  10.249   1.291 -0.8857  0.6114  2.6316
43560SOL    HW240611   2.501  10.164   1.202  2.0614  1.2896 -1.1611
43561SOL     OW40612  10.352  11.886   3.587  0.0636 -0.6497  0.4249
43561SOL    HW140613  10.381  11.924   3.504 -2.0402 -0.3683 -0.2567
43561SOL    HW240614  10.270  11.840   3.565 -1.3276  0.6289  2.5744
43562SOL     OW40615   9.056  10.896   2.596  0.1723  0.4441  0.3160
43562SOL    HW140616   9.069  10.842   2.674  0.5832 -0.1414 -0.1422
43562SOL    HW240617   8.973  10.940   2.611 -1.0667 -1.6480 -0.0468
43563SOL     OW40618   8.090  11.792   7.550  0.7469 -0.2974 -0.0878
43563SOL    HW140619   8.097  11.821   7.459  0.9169 -0.8737 -0.2663
43563SOL    HW240620   7.998  11.767   7.560  0.1381  1.9682  0.6029
43564SOL     OW40621   1.017   7.836   4.903 -0.3016  0.1394  0.5151
43564SOL    HW140622   1.077   7.817   4.975  0.2082 -0.2984 -0.0214
43564SOL    HW240623   0.981   7.751   4.879  1.3233 -0.1072 -1.3024
43565SOL     OW40624   8.759  11.307   0.224 -0.3757 -0.3219 -0.1134
43565SOL    HW140625   8.676  11.353   0.211 -0.7613 -0.7793  0.6172
43565SOL    HW240626   8.799  11.352   0.299 -0.5164 -0.8314  0.2749
43566SOL     OW40627   0.097   1.222   0.367  0.0757  0.1312  0.1729
43566SOL    HW140628   0.126   1.297   0.314  1.4170  0.2400  0.9972
43566SOL    HW240629   0.102   1.148   0.307  1.2171  0.3114  0.0102
43567SOL     OW40630   8.781   9.639  11.678  0.1673 -0.4299 -0.0852
43567SOL    HW140631   8.800   9.546  11.684 -0.6632 -0.5121  2.1770
43567SOL    HW240632   8.847   9.674  11.619  0.4237 -2.4581 -1.0528
43568SOL     OW40633  12.606  12.660   1.471 -0.5078 -0.0560 -0.1932
43568SOL    HW140634  12.638  12.576   1.439 -0.3704 -0.2411  0.4032
43568SOL    HW240635  12.526  12.638   1.519  0.5768 -0.1665  1.7108
43569SOL     OW40636   9.520   4.637  10.889 -0.5816  0.1295  0.2108
43569SOL    HW140637   9.607   4.603  10.865 -1.3602 -0.8821 -1.2947
43569SOL    HW240638   9.491   4.580  10.960 -0.0448  0.4472  0.6962
43570SOL     OW40639   3.720   7.995  12.311  0.5416  0.1783  0.0712
43570SOL    HW140640   3.626   8.007  12.306  0.5492  1.6058  2.2044
43570SOL    HW240641   3.752   8.013  12.223 -1.2130 -1.1188 -0.8875
43571SOL     OW40642   8.891   9.752   5.146  0.0752 -0.2472  0.2498
43571SOL    HW140643   8.808   9.704   5.148 -0.1015  0.0748  0.9801
43571SOL    HW240644   8.926   9.734   5.059 -0.9872 -0.0058 -0.2479
43572SOL     OW40645  12.335   1.713   7.570  0.1018 -0.1675 -0.5125
43572SOL    HW140646  12.240   1.701   7.573  0.2922 -1.6433  0.6039
43572SOL    HW240647  12.359   1.743   7.657  0.8683 -1.7973 -0.1181
43573SOL     OW40648   2.949   1.548   8.661 -0.2446  0.3425 -0.5733
43573SOL    HW140649   3.022   1.582   8.712 -1.0426  2.3163 -0.6528
43573SOL    HW240650   2.907   1.484   8.718  0.2325  0.8290  0.3418
43574SOL     OW40651  11.004   0.148   6.645  0.1063  0.0036  0.2588
43574SOL    HW140652  10.943   0.215   6.614  0.0245 -0.7156 -1.2612
43574SOL    HW240653  11.086   0.167   6.600  0.6625  0.2488  1.3600
43575SOL     OW40654   4.078   1.935   3.019  0.5389  0.8441 -0.3224
43575SOL    HW140655   4.096   1.842   3.033  1.2752  0.7186 -1.9176
43575SOL    HW240656   3.992   1.936   2.976  0.4063  0.9249 -0.0578
43576SOL     OW40657   0.756  12.391   2.205  0.3274 -0.0704  0.0887
43576SOL    HW140658   0.744  12.298   2.223  0.4773  0.2398  2.0299
43576SOL    HW240659   0.817  12.394   2.131 -1.9814 -1.5031 -2.0403
43577SOL     OW40660   2.526   1.361   5.942  0.1494  0.2624  0.0114
43577SOL    HW140661   2.565   1.319   5.865  0.3217 -0.9692  0.7336
43577SOL    HW240662   2.477   1.435   5.907 -1.3005 -1.3135 -1.5108
43578SOL     OW40663  11.319  10.096   2.325  0.2640  0.0233  0.2362
43578SOL    HW140664  11.308  10.002   2.339  0.1660 -0.1523 -0.9506
43578SOL    HW240665  11.402  10.105   2.278  0.7275  0.6167  1.1301
43579SOL     OW40666   8.939   8.972   1.277 -0.2609  0.0552  0.3630
43579SOL    HW140667   8.991   8.921   1.215 -1.4875  0.4323 -1.0255
43579SOL    HW240668   8.959   9.063   1.256 -0.1074  0.1858  1.0498
43580SOL     OW40669   0.268   9.079   7.012 -0.4367 -0.6710 -0.1228
43580SOL    HW140670   0.354   9.056   7.047 -0.4316 -0.9137 -0.2905
43580SOL    HW240671   0.209   9.073   7.087 -0.1536  0.4207  0.1984
43581SOL     OW40672   2.429  11.754  10.331  0.5099 -0.3859 -0.1751
43581SOL    HW140673   2.409  11.687  10.396  1.3545  0.0306  0.5308
43581SOL    HW240674   2.365  11.823  10.348  0.6942 -0.3018  0.1794
43582SOL     OW40675   5.184   7.366   6.152 -0.0197 -1.1590  0.0977
43582SOL    HW140676   5.215   7.419   6.079 -0.4937  0.9682  1.3760
43582SOL    HW240677   5.260   7.313   6.176  0.9044 -0.0916 -0.3808
43583SOL     OW40678   6.620   6.544   4.366  0.4377 -0.2441  0.2820
43583SOL    HW140679   6.672   6.531   4.286 -1.5579  0.5973 -1.2417
43583SOL    HW240680   6.610   6.457   4.403  0.1215 -0.8907 -1.2637
43584SOL     OW40681   2.538   1.611   1.770  0.5290 -0.2818 -0.2377
43584SOL    HW140682   2.516   1.590   1.679  2.2285 -0.3664 -0.6676
43584SOL    HW240683   2.597   1.541   1.797 -0.2903 -0.4910  1.1067
43585SOL     OW40684  10.408   8.030   2.189  0.9298 -0.3119  0.7873
43585SOL    HW140685  10.444   8.113   2.159  0.7332 -0.5181 -0.0398
43585SOL    HW240686  10.431   8.026   2.282  1.5902  0.3211  0.6609
43586SOL     OW40687  12.800   1.125   2.952  0.1410  0.6830  0.0849
43586SOL    HW140688  12.720   1.176   2.946  0.3033  0.8261 -1.1358
43586SOL    HW240689  12.791   1.075   3.033 -1.4840  0.1870 -0.3639
43587SOL     OW40690  13.076   1.647  10.531 -0.4154  0.0464  0.1863
43587SOL    HW140691  13.140   1.583  10.498 -1.7455 -1.7783  0.9474
43587SOL    HW240692  13.052   1.698  10.454  0.6713 -0.3619 -0.4599
43588SOL     OW40693   3.238   9.673   9.172  0.4140  0.0988  0.2134
43588SOL    HW140694   3.288   9.608   9.222  0.2844  1.9080  2.9554
43588SOL    HW240695   3.272   9.757   9.203 -1.6589  1.3582 -0.7377
43589SOL     OW40696   1.529   8.833  12.666 -0.0520 -0.3277  0.2544
43589SOL    HW140697   1.502   8.796  12.750  2.3144 -2.0550  0.3432
43589SOL    HW240698   1.463   8.800  12.604  0.0520 -1.8705  0.9167
43590SOL     OW40699   1.573   2.291  10.934 -0.2423  0.3668 -0.4732
43590SOL    HW140700   1.638   2.288  10.863  2.3281  0.3452  1.7473
43590SOL    HW240701   1.579   2.380  10.968 -0.5582  0.0346  0.4740
43591SOL     OW40702   0.528  12.905  11.613 -0.1459 -0.0560 -0.2136
43591SOL    HW140703   0.530  12.814  11.585  0.5783  0.4251 -1.8416
43591SOL    HW240704   0.504  12.901  11.706 -0.9737 -1.8336 -0.4617
43592SOL     OW40705   8.003   8.428   8.469 -0.0995  0.2568 -0.1531
43592SOL    HW140706   7.932   8.457   8.411  0.8320  2.1182 -0.4236
43592SOL    HW240707   8.054   8.367   8.417  0.4661  1.5696 -1.1826
43593SOL     OW40708  10.966   6.367   8.727 -0.3291  0.4642  0.2430
43593SOL    HW140709  10.903   6.434   8.753  1.2642  1.6675  1.1981
43593SOL    HW240710  10.923   6.284   8.747 -2.3931  1.1398 -1.0489
43594SOL     OW40711   8.621   5.270   7.844 -0.1300 -0.2562  0.1310
43594SOL    HW140712   8.586   5.180   7.841  0.0080 -0.3757  1.6898
43594SOL    HW240713   8.715   5.258   7.857  0.0434  0.1137 -0.7335
43595SOL     OW40714   7.489   1.248   4.753  0.1590  0.4515  0.1303
43595SOL    HW140715   7.431   1.252   4.829  0.9410  1.0322  0.7166
43595SOL    HW240716   7.564   1.196   4.783  1.5448  2.5543  0.5485
43596SOL     OW40717   8.386   0.368  12.508 -0.8139 -0.0172 -0.0062
43596SOL    HW140718   8.454   0.335  12.567 -2.6356 -0.8423  1.7363
43596SOL    HW240719   8.316   0.303  12.513 -1.4859  0.4349 -2.3043
43597SOL     OW40720  13.121   9.082  10.183 -0.0595  0.3558 -0.0579
43597SOL    HW140721  13.066   9.048  10.254  1.4929  2.9990  2.6746
43597SOL    HW240722  13.175   9.007  10.156 -0.4316 -0.6752  1.9025
43598SOL     OW40723  11.457   7.264  11.754  0.1344 -0.4711  0.4583
43598SOL    HW140724  11.363   7.260  11.740  0.0392 -0.9008  1.1386
43598SOL    HW240725  11.471   7.211  11.833  0.8323  0.2842  0.8639
43599SOL     OW40726  12.189  10.704   0.161  1.1036  0.4207 -0.1406
43599SOL    HW140727  12.189  10.640   0.090  0.7841 -0.0171  0.2436
43599SOL    HW240728  12.159  10.785   0.121  2.4134  0.5744 -0.8385
43600SOL     OW40729   5.518  12.079   2.350 -0.1388  0.5156  0.5192
43600SOL    HW140730   5.440  12.135   2.354 -1.0308 -0.5881 -0.2971
43600SOL    HW240731   5.522  12.052   2.258  1.0281  0.2907  0.6301
43601SOL     OW40732   6.528   5.187   2.652 -0.2424 -0.2206  0.2260
43601SOL    HW140733   6.602   5.244   2.635 -0.2227 -0.6896 -1.4236
43601SOL    HW240734   6.540   5.113   2.592 -0.9029 -1.3667  1.4534
43602SOL     OW40735  10.456   8.042  10.168 -0.0356 -0.8321  0.2319
43602SOL    HW140736  10.520   8.107  10.136 -0.1300 -0.7606  0.1894
43602SOL    HW240737  10.420   8.003  10.089 -0.1199 -0.8011  0.2554
43603SOL     OW40738   3.211   3.087   7.886 -0.4980 -0.3095  0.1974
43603SOL    HW140739   3.213   3.176   7.849 -1.9122  0.2540  1.3827
43603SOL    HW240740   3.145   3.041   7.834 -0.2361 -0.4916  0.0170
43604SOL     OW40741   6.458   0.104   1.552  0.3023  0.2380  0.0491
43604SOL    HW140742   6.364   0.091   1.558  0.2116  1.1147  0.8054
43604SOL    HW240743   6.494   0.017   1.531 -0.6297 -0.1750  0.1417
43605SOL     OW40744  11.907   0.157   5.100  0.3656  0.2918  0.3773
43605SOL    HW140745  11.923   0.249   5.079  0.7493  0.0892 -0.2304
43605SOL    HW240746  11.897   0.114   5.015  1.4782 -0.4595  0.6067
43606SOL     OW40747   4.359  10.656   9.472 -0.2169  0.4675  0.0031
43606SOL    HW140748   4.330  10.617   9.555 -0.0020  0.2516 -0.0243
43606SOL    HW240749   4.438  10.704   9.495  0.0289  0.1342 -0.1419
43607SOL     OW40750   1.712   6.528   2.082  0.0450  0.2195  0.0764
43607SOL    HW140751   1.655   6.605   2.080 -0.9181 -0.4590  0.6717
43607SOL    HW240752   1.797   6.561   2.051 -0.5968  1.2977 -0.6248
43608SOL     OW40753   5.324   8.200   7.712 -0.7652  0.4371  0.1249
43608SOL    HW140754   5.352   8.110   7.728 -1.2984  0.3148  0.4001
43608SOL    HW240755   5.313   8.238   7.799 -0.8820  0.6552  0.0158
43609SOL     OW40756   8.283   9.197   4.539  0.0223 -0.1630  0.2162
43609SOL    HW140757   8.246   9.195   4.450  0.6298 -1.4212 -0.0284
43609SOL    HW240758   8.208   9.181   4.596 -0.3332  0.4161 -0.0718
43610SOL     OW40759   3.787   1.836  12.343 -0.2581  0.7319 -0.5770
43610SOL    HW140760   3.795   1.927  12.317 -1.3728  1.2535  0.7702
43610SOL    HW240761   3.810   1.836  12.436 -0.2247 -0.3777 -0.5707
43611SOL     OW40762   2.477   8.509  12.467 -0.8212 -0.4309 -0.5663
43611SOL    HW140763   2.567   8.541  12.474 -1.5775  1.6759  0.4183
43611SOL    HW240764   2.485   8.414  12.463  1.3475 -0.4677  2.0524
43612SOL     OW40765   1.084   1.806   6.581 -1.0388  0.0260  0.4237
43612SOL    HW140766   1.105   1.758   6.661  0.3994 -1.0562 -0.5469
43612SOL    HW240767   1.001   1.769   6.552 -2.2764  1.3563  2.0640
43613SOL     OW40768   0.898  11.327   4.603  0.1571 -0.9422  0.5299
43613SOL    HW140769   0.868  11.344   4.692  1.3663  1.0331  0.6305
43613SOL    HW240770   0.827  11.360   4.548  0.1552 -0.5339  0.7721
43614SOL     OW40771   1.721   5.005  11.879 -0.3314  0.3184 -0.3432
43614SOL    HW140772   1.732   4.962  11.794 -0.5548 -1.6564  0.5710
43614SOL    HW240773   1.627   5.011  11.891 -0.3209 -0.4032  0.2046
43615SOL     OW40774   3.857   0.440  11.635 -0.1997 -0.2309 -0.5872
43615SOL    HW140775   3.910   0.509  11.673  2.0564 -1.6139 -1.0829
43615SOL    HW240776   3.867   0.366  11.694 -0.1785 -1.0464 -1.5879
43616SOL     OW40777   4.014   5.250   0.733 -0.2144  0.1284  0.8352
43616SOL    HW140778   3.945   5.204   0.686 -0.2794 -0.0467  1.1003
43616SOL    HW240779   4.044   5.187   0.799 -0.1819  0.4000  1.0811
43617SOL     OW40780   7.976   0.095   2.252 -0.1292  0.4794  0.2479
43617SOL    HW140781   8.037   0.119   2.182  0.0061 -0.4729  0.0267
43617SOL    HW240782   8.024   0.031   2.305 -0.0667  1.5131  1.4761
43618SOL     OW40783   6.211   9.511   4.466 -0.6237 -0.2003 -0.3752
43618SOL    HW140784   6.156   9.487   4.541  1.2470 -0.8574  0.8703
43618SOL    HW240785   6.225   9.605   4.475 -2.4040  0.2119 -1.3671
43619SOL     OW40786   7.918  11.663   5.861  0.1317  0.3570 -0.2217
43619SOL    HW140787   7.894  11.585   5.911  1.4462 -0.4729 -0.8407
43619SOL    HW240788   7.889  11.736   5.916  0.0083 -0.5463  0.9539
43620SOL     OW40789  13.059   0.050  12.049 -0.3171  0.6016 -0.3872
43620SOL    HW140790  13.043   0.082  12.137  1.1779 -4.7644  2.2476
43620SOL    HW240791  12.973   0.024  12.017 -0.7218  1.5072 -0.0633
43621SOL     OW40792   4.698  10.117   1.013  0.1444 -0.7132 -0.4759
43621SOL    HW140793   4.789  10.087   1.015  0.5813  0.3031 -2.3750
43621SOL    HW240794   4.651  10.049   0.966  0.2569 -0.5029 -0.8998
43622SOL     OW40795   4.440  10.342   2.551  0.5901 -0.5378 -0.2958
43622SOL    HW140796   4.525  10.357   2.509  0.7732 -1.5319 -0.2961
43622SOL    HW240797   4.403  10.266   2.505  0.3531 -1.0255  0.6820
43623SOL     OW40798   6.857   9.351   1.576  0.3028 -0.2617 -0.3982
43623SOL    HW140799   6.914   9.320   1.647  0.2736  0.0596 -0.2320
43623SOL    HW240800   6.886   9.441   1.561 -0.3234 -0.0147 -0.1474
43624SOL     OW40801   2.631   4.999   8.880  0.3038  0.5836 -0.4494
43624SOL    HW140802   2.671   4.933   8.937  0.0875  1.1678  0.3850
43624SOL    HW240803   2.704   5.042   8.836  0.5886  1.3968  0.7917
43625SOL     OW40804  10.476   4.594   9.116 -0.1527  0.1136 -0.9201
43625SOL    HW140805  10.512   4.536   9.049  0.1135 -1.0375  0.1777
43625SOL    HW240806  10.387   4.561   9.131  0.6484 -1.3184  1.0912
43626SOL     OW40807  10.670   3.280   3.451  0.2835 -0.3465  0.0342
43626SOL    HW140808  10.618   3.288   3.372  0.1775  0.3927  0.1740
43626SOL    HW240809  10.667   3.367   3.491  3.1813  0.3024 -0.9097
43627SOL     OW40810  11.825   5.155   8.638  0.0252  0.2194 -0.1608
43627SOL    HW140811  11.846   5.062   8.633 -1.1593 -0.0638 -0.2268
43627SOL    HW240812  11.731   5.160   8.619 -0.0856  1.3508  0.5332
43628SOL     OW40813   4.817   3.156  10.755  0.1110 -0.0471  0.3351
43628SOL    HW140814   4.742   3.130  10.702 -1.0496  0.1048  1.8334
43628SOL    HW240815   4.810   3.251  10.761  0.2141 -0.0654  0.7704
43629SOL     OW40816   5.040   1.381  11.719  0.5637 -0.0674 -0.2176
43629SOL    HW140817   4.979   1.383  11.646 -0.3818 -0.2144  0.5463
43629SOL    HW240818   5.037   1.469  11.755  1.6996  0.2596 -0.8758
43630SOL     OW40819   0.467   0.497  11.604  0.0429  0.1789 -0.1373
43630SOL    HW140820   0.506   0.422  11.559 -2.0807 -0.8553 -0.3887
43630SOL    HW240821   0.424   0.459  11.680  0.8039  1.4835  0.9863
43631SOL     OW40822   0.300   2.948   9.779 -0.0631  0.5904 -0.4902
43631SOL    HW140823   0.224   2.997   9.751 -0.4535 -0.2473 -0.9621
43631SOL    HW240824   0.322   2.982   9.865 -0.6271  1.2261 -0.5967
43632SOL     OW40825  12.005   5.029  11.410  0.3789 -0.1726 -0.2530
43632SOL    HW140826  11.948   5.045  11.484  0.6648 -2.4145  0.5206
43632SOL    HW240827  11.990   5.103  11.351  0.8635  2.2224  2.4179
43633SOL     OW40828   8.311   3.560   1.692 -0.2096 -0.0939 -0.5118
43633SOL    HW140829   8.335   3.593   1.605  0.1756 -0.5774 -0.5910
43633SOL    HW240830   8.384   3.586   1.748 -1.2390  1.7795  0.0710
43634SOL     OW40831   5.093  12.040   9.687  0.3077 -0.2097  0.1160
43634SOL    HW140832   5.184  12.068   9.674  0.7355 -1.4907  0.1964
43634SOL    HW240833   5.097  11.944   9.688 -1.0160 -0.2864  0.3551
43635SOL     OW40834  11.679   9.278   6.161 -0.0585  0.0180  0.2351
43635SOL    HW140835  11.661   9.199   6.110  0.8869 -0.2196  0.2640
43635SOL    HW240836  11.641   9.349   6.109  0.0044 -0.3352 -0.2998
43636SOL     OW40837   5.645  10.103   8.584  0.5533 -0.1984  0.0495
43636SOL    HW140838   5.687  10.184   8.612 -1.0917  0.8529 -0.4419
43636SOL    HW240839   5.557  10.108   8.620 -0.1843 -0.8720 -1.5849
43637SOL     OW40840  10.799   0.903   0.699  0.5302  0.6078 -0.0930
43637SOL    HW140841  10.785   0.983   0.649  4.2650  1.7293  0.3038
43637SOL    HW240842  10.814   0.836   0.633 -3.6864 -0.2409 -0.4637
43638SOL     OW40843  11.353  10.325   5.208  0.2608  0.1821  0.3147
43638SOL    HW140844  11.419  10.384   5.172 -1.1085  1.8733  0.4759
43638SOL    HW240845  11.328  10.270   5.134 -0.3218  1.5807 -0.5793
43639SOL     OW40846   6.813   1.089   3.184  0.1334  0.4109 -0.3023
43639SOL    HW140847   6.821   1.033   3.262  1.8584  0.0445 -0.7130
43639SOL    HW240848   6.719   1.109   3.179 -0.8586 -3.5516 -0.9203
43640SOL     OW40849   6.357   3.080   0.618 -0.6059  0.3710 -0.3556
43640SOL    HW140850   6.366   3.048   0.528  1.6821 -0.3593  0.0649
43640SOL    HW240851   6.339   3.002   0.670  0.4250  0.4284  0.1014
43641SOL     OW40852   3.912   0.179   9.466 -0.4699  0.5877 -0.2231
43641SOL    HW140853   3.818   0.189   9.453 -0.7153  1.4837  1.8525
43641SOL    HW240854   3.920   0.109   9.531  0.4614 -1.0734 -2.0023
43642SOL     OW40855  10.007   2.115  11.915  0.0951 -0.6831  0.1999
43642SOL    HW140856   9.914   2.129  11.898  0.1377  1.5016  1.5206
43642SOL    HW240857  10.052   2.170  11.851  0.4149  0.4012  1.3441
43643SOL     OW40858   1.054   8.885   0.253 -0.1050 -0.0875  0.0635
43643SOL    HW140859   1.113   8.947   0.296 -1.7997  1.8104 -0.1637
43643SOL    HW240860   0.966   8.913   0.281 -1.1218 -0.3078 -2.6311
43644SOL     OW40861   5.513   0.535  10.589 -0.4216  0.0393  0.0723
43644SOL    HW140862   5.441   0.492  10.636  0.3772 -1.0186  0.3685
43644SOL    HW240863   5.531   0.477  10.515  1.8947 -1.1900  1.4925
43645SOL     OW40864   7.305   2.348  11.488  0.0718  0.4050 -0.2230
43645SOL    HW140865   7.311   2.369  11.581 -0.2418 -0.5380  0.0152
43645SOL    HW240866   7.338   2.427  11.444 -1.2170  1.4834  0.6395
43646SOL     OW40867   2.386   7.202   7.561 -0.4929  0.1041  0.3817
43646SOL    HW140868   2.344   7.195   7.647  0.1205  4.0379  1.2189
43646SOL    HW240869   2.325   7.254   7.509  0.0723 -0.4644 -0.8737
43647SOL     OW40870   4.286  10.544   8.741 -0.0513 -0.2719  0.1546
43647SOL    HW140871   4.202  10.542   8.786  0.6632  1.0075  1.6750
43647SOL    HW240872   4.275  10.609   8.671 -0.3304 -0.1205  0.3393
43648SOL     OW40873  10.052   7.953   3.040 -0.1454  0.0042 -0.3981
43648SOL    HW140874  10.083   7.867   3.068  0.2265  0.3497  0.2927
43648SOL    HW240875   9.965   7.961   3.078  0.4182  0.5328  0.8340
43649SOL     OW40876   7.619  11.378  11.460 -0.3754 -0.1286  0.2029
43649SOL    HW140877   7.684  11.384  11.531 -1.3154 -0.0741  1.0796
43649SOL    HW240878   7.561  11.306  11.487 -1.7291  0.9761  0.3257
43650SOL     OW40879   2.217   2.957  12.333 -0.2295 -0.1322  0.1856
43650SOL    HW140880   2.198   3.014  12.258  1.2111  0.4194  0.2074
43650SOL    HW240881   2.224   3.017  12.407  1.9234 -0.1976  0.1036
43651SOL     OW40882   3.714  12.238   3.338  0.1927  0.3339 -0.5557
43651SOL    HW140883   3.689  12.151   3.306  1.7338  0.2325 -1.5889
43651SOL    HW240884   3.726  12.226   3.432 -1.4836 -0.0880 -0.3629
43652SOL     OW40885  12.782   4.027  10.981 -0.0618  0.5539  0.1121
43652SOL    HW140886  12.805   4.066  10.897  0.6693 -1.7309 -0.8231
43652SOL    HW240887  12.865   4.018  11.028  0.2697 -2.2405 -0.8224
43653SOL     OW40888   3.554   4.525   4.451  0.0410 -0.0876  0.5869
43653SOL    HW140889   3.464   4.555   4.458 -0.9819 -2.5651 -0.7180
43653SOL    HW240890   3.581   4.509   4.542 -0.9194  0.3717  0.9657
43654SOL     OW40891   1.702  10.046   7.427 -0.6408 -0.4940  0.2443
43654SOL    HW140892   1.614  10.007   7.429 -0.4434 -1.0710 -1.0984
43654SOL    HW240893   1.686  10.139   7.411 -1.0363 -0.3632  1.2937
43655SOL     OW40894   6.066  12.530   0.106 -0.0402 -0.3628 -0.5086
43655SOL    HW140895   6.006  12.456   0.114  0.4020 -0.6018  1.0704
43655SOL    HW240896   6.054  12.561   0.017  0.2145 -2.7266 -1.4436
43656SOL     OW40897   6.253   6.808  11.737 -0.4856  0.4129 -0.0801
43656SOL    HW140898   6.209   6.893  11.732 -0.7843  0.2392 -0.4877
43656SOL    HW240899   6.209   6.755  11.671 -0.7766 -0.2776  0.6468
43657SOL     OW40900  12.437   2.984   1.892  0.3190 -0.0284  0.0122
43657SOL    HW140901  12.486   3.066   1.898  0.7802 -0.3187  0.1588
43657SOL    HW240902  12.346   3.010   1.907  0.5230  0.3837  0.5342
43658SOL     OW40903   0.269   5.631   0.037  0.4078 -0.2072  0.0898
43658SOL    HW140904   0.272   5.637   0.132  0.9720 -1.9037  0.2069
43658SOL    HW240905   0.215   5.706   0.010 -0.1748  0.0175  1.7592
43659SOL     OW40906   9.809   1.092   2.120 -0.2981  0.7813 -0.2314
43659SOL    HW140907   9.841   1.143   2.046 -0.9842  1.6552  0.0481
43659SOL    HW240908   9.744   1.149   2.162  1.6821  1.3253  2.4334
43660SOL     OW40909   3.873   6.731   2.305  0.0543  0.0043 -0.0285
43660SOL    HW140910   3.927   6.809   2.321  0.0768  0.1994 -1.0178
43660SOL    HW240911   3.793   6.748   2.356 -0.5207  1.3287 -1.2901
43661SOL     OW40912   3.345  11.379  11.365 -0.2103  0.0605 -0.0676
43661SOL    HW140913   3.294  11.427  11.300 -2.5653 -1.7946  0.2547
43661SOL    HW240914   3.327  11.424  11.447 -0.4936  0.0245 -0.1103
43662SOL     OW40915   8.489   1.014   5.404  0.0255 -0.1200 -0.0123
43662SOL    HW140916   8.423   1.063   5.355  1.5007 -0.1161 -2.0854
43662SOL    HW240917   8.559   1.078   5.419  0.5290 -0.7175  0.2056
43663SOL     OW40918   3.840   4.567   1.392 -0.2531  0.6093  0.0864
43663SOL    HW140919   3.840   4.479   1.355  1.6547  1.3206 -1.8089
43663SOL    HW240920   3.814   4.624   1.319 -1.7229  1.6497  1.3516
43664SOL     OW40921   1.929   6.233   3.942 -0.1072 -0.1076 -0.8975
43664SOL    HW140922   1.897   6.183   4.017 -0.9012 -0.0186 -1.1690
43664SOL    HW240923   1.992   6.295   3.980 -0.9542  0.3572 -0.2090
43665SOL     OW40924   5.093  12.573   1.889  0.0012  0.5758  0.3744
43665SOL    HW140925   5.093  12.652   1.836  1.0234 -1.1283 -2.3614
43665SOL    HW240926   5.181  12.570   1.928  0.0160  0.7015  0.3497
43666SOL     OW40927   0.597  12.423   2.740 -0.1933 -0.2079 -0.0192
43666SOL    HW140928   0.596  12.414   2.836 -2.2705  0.6934  0.0789
43666SOL    HW240929   0.671  12.368   2.713 -0.2073 -1.3601  2.0118
43667SOL     OW40930   3.610   7.185   8.864  0.3667  0.2309 -0.0820
43667SOL    HW140931   3.633   7.120   8.797  0.9542  1.3001 -0.9411
43667SOL    HW240932   3.687   7.188   8.921  0.9184  1.1581 -0.8480
43668SOL     OW40933  12.812   8.416   6.633 -0.3360 -0.2336 -0.1820
43668SOL    HW140934  12.765   8.338   6.606 -0.2060 -1.0953  1.9204
43668SOL    HW240935  12.761   8.489   6.596 -0.9874 -1.2564 -1.3630
43669SOL     OW40936  10.900   0.615   0.171  0.0249  0.1212 -0.1680
43669SOL    HW140937  10.915   0.689   0.113  0.3208  0.7029  0.6350
43669SOL    HW240938  10.982   0.565   0.167  0.6397  1.0022  0.9321
43670SOL     OW40939   3.741   7.840  11.682  0.4204  0.8110  1.0512
43670SOL    HW140940   3.697   7.816  11.763  1.8005  1.2718  1.9770
43670SOL    HW240941   3.776   7.758  11.648 -0.6205  0.5344  0.6173
43671SOL     OW40942   7.970   2.354   4.832 -0.0343 -0.2895 -0.5014
43671SOL    HW140943   8.056   2.365   4.872  1.0547 -1.2116 -2.4357
43671SOL    HW240944   7.923   2.296   4.891  1.0491 -0.5860  0.0875
43672SOL     OW40945  10.271   0.592   4.817  0.0334  0.6786 -0.4923
43672SOL    HW140946  10.363   0.568   4.824 -0.3497 -0.8291 -0.2603
43672SOL    HW240947  10.256   0.653   4.889  0.9770  1.4144 -0.8999
43673SOL     OW40948  12.227  12.439   2.796  0.1243 -0.2583  0.4038
43673SOL    HW140949  12.295  12.412   2.734  0.5099 -0.9923  1.1323
43673SOL    HW240950  12.207  12.530   2.771 -0.5613 -0.8774 -1.5288
43674SOL     OW40951   0.700   9.824   3.434 -0.3037  0.4474  0.1518
43674SOL    HW140952   0.776   9.820   3.492 -1.3145  1.1914  1.5714
43674SOL    HW240953   0.652   9.743   3.450 -0.2288  0.3362 -0.1705
43675SOL     OW40954   9.866   0.499  11.661 -0.4454 -0.0139 -0.2389
43675SOL    HW140955   9.939   0.522  11.719 -0.7004  1.2615 -0.4019
43675SOL    HW240956   9.857   0.574  11.602 -1.7817 -0.2231 -0.3332
43676SOL     OW40957  10.098   8.140   2.536  0.2472  0.3577  0.2551
43676SOL    HW140958  10.048   8.172   2.611  0.3011  0.1262  0.3910
43676SOL    HW240959  10.178   8.193   2.535  0.6976 -0.2890  0.9445
43677SOL     OW40960   0.219   7.556  12.133 -0.1498 -0.8704 -0.2282
43677SOL    HW140961   0.155   7.519  12.072 -1.3152 -1.5527  1.3493
43677SOL    HW240962   0.170   7.623  12.181 -0.2552 -2.5744  2.2004
43678SOL     OW40963   8.063   1.233  10.716 -0.1543 -0.5225  0.4720
43678SOL    HW140964   7.996   1.165  10.720 -0.5507 -0.1413  0.3897
43678SOL    HW240965   8.109   1.218  10.634 -0.6302 -0.3335  0.1666
43679SOL     OW40966   1.986   7.506   2.299  0.1465  0.1991  0.2175
43679SOL    HW140967   1.934   7.474   2.225 -0.3728 -2.7825  1.7487
43679SOL    HW240968   2.075   7.514   2.264 -0.2297 -0.3166 -0.9197
43680SOL     OW40969  10.398   2.974   6.446 -0.6465  0.2996  0.0410
43680SOL    HW140970  10.356   2.913   6.385  2.3115  0.3078 -2.1935
43680SOL    HW240971  10.472   2.925   6.482  1.5042  2.2685 -1.4234
43681SOL     OW40972  11.107   2.768  11.912 -0.5686  0.5279  0.2088
43681SOL    HW140973  11.136   2.838  11.970 -2.3204  0.6896  0.9393
43681SOL    HW240974  11.121   2.688  11.963  0.7791  0.3623 -0.3646
43682SOL     OW40975   5.126  12.386   3.308  0.6979  0.3792  0.1813
43682SOL    HW140976   5.092  12.375   3.220 -1.3219  0.2973  0.9191
43682SOL    HW240977   5.159  12.476   3.310 -0.5067  0.8406 -0.2644
43683SOL     OW40978   7.388   0.933   6.835  0.2945 -0.6773 -0.1744
43683SOL    HW140979   7.351   1.020   6.853 -0.4132 -0.6129 -1.7724
43683SOL    HW240980   7.382   0.924   6.740  0.7270 -2.3303 -0.0676
43684SOL     OW40981  10.869   6.177   6.615 -0.0416  0.1214  0.2922
43684SOL    HW140982  10.916   6.234   6.676  1.3467 -0.5121 -0.1420
43684SOL    HW240983  10.914   6.092   6.622 -0.2732 -0.1406 -1.1287
43685SOL     OW40984  11.564   8.596   3.804  0.1057 -0.0155 -0.2513
43685SOL    HW140985  11.515   8.515   3.819  0.4757  0.2138  2.8518
43685SOL    HW240986  11.500   8.657   3.768 -1.0433 -0.6968  0.5880
43686SOL     OW40987   6.590   6.404   5.346  0.1480 -0.5905 -0.1671
43686SOL    HW140988   6.523   6.382   5.410 -1.2790  1.0477 -1.0214
43686SOL    HW240989   6.568   6.351   5.269  1.3965 -1.9587  0.3567
43687SOL     OW40990  12.253   0.900   3.560  0.4576 -0.7436 -0.2256
43687SOL    HW140991  12.187   0.956   3.520 -0.8238 -0.7563  1.7084
43687SOL    HW240992  12.245   0.816   3.514 -0.1133 -0.4176 -0.7317
43688SOL     OW40993  11.915   6.180   9.653 -0.3661 -0.6970 -0.3188
43688SOL    HW140994  11.938   6.234   9.729 -1.5760 -0.8808  0.1944
43688SOL    HW240995  11.830   6.213   9.625 -1.1465 -2.3221  0.0253
43689SOL     OW40996   2.472   5.585   8.604  0.6280 -0.1398  0.4257
43689SOL    HW140997   2.444   5.516   8.543  2.2193 -1.1859  0.8133
43689SOL    HW240998   2.459   5.546   8.691  1.1647  0.1997  0.6621
43690SOL     OW40999   5.111  11.769  11.188 -0.3615 -0.3894 -0.5778
43690SOL    HW141000   5.091  11.824  11.111 -0.6541 -0.5528 -0.6220
43690SOL    HW241001   5.025  11.755  11.229 -0.0829  0.5427  0.3546
43691SOL     OW41002   4.871   1.710  12.580 -0.0090 -0.7640 -0.5167
43691SOL    HW141003   4.849   1.771  12.650 -0.7050  0.0968 -1.4396
43691SOL    HW241004   4.789   1.699  12.532  0.6839 -0.4657 -1.8162
43692SOL     OW41005   1.893   9.581   7.728 -0.0342 -0.2847  0.5984
43692SOL    HW141006   1.827   9.535   7.780 -0.0803  0.3577  1.1236
43692SOL    HW241007   1.946   9.627   7.792 -0.9892  1.7187  0.0190
43693SOL     OW41008   9.087   6.628   8.788  0.3006  0.1701 -0.2544
43693SOL    HW141009   9.076   6.709   8.838  1.3891  0.0973  0.1283
43693SOL    HW241010   9.146   6.652   8.716 -0.4546  0.0348 -0.9349
43694SOL     OW41011   2.892   0.523   3.591  0.8995  0.3386 -0.2554
43694SOL    HW141012   2.825   0.578   3.550 -0.2992 -2.4724 -2.3259
43694SOL    HW241013   2.958   0.510   3.523  1.3988 -0.4128  0.3554
43695SOL     OW41014  12.224  12.423  12.715  0.0264  0.3015 -0.4901
43695SOL    HW141015  12.291  12.393  12.776  1.8767 -2.0513 -3.3914
43695SOL    HW241016  12.168  12.347  12.702 -1.6455  1.4318 -0.1610
43696SOL     OW41017  11.271   3.827  12.700  0.1173 -0.5121  0.1235
43696SOL    HW141018  11.353   3.826  12.650  0.8290 -2.5647  1.1995
43696SOL    HW241019  11.299   3.823  12.791 -1.1903  0.4053  0.5842
43697SOL     OW41020   1.398   5.365  12.781  0.0038  0.2864  0.2091
43697SOL    HW141021   1.319   5.313  12.763  0.1391  0.1587 -0.0248
43697SOL    HW241022   1.468   5.300  12.787 -0.0907  0.2817  1.6109
43698SOL     OW41023   3.900  10.905   6.910  0.0993  0.1060 -0.5853
43698SOL    HW141024   3.924  10.890   6.819  0.2590  1.1500 -0.7250
43698SOL    HW241025   3.932  10.993   6.929 -1.5986  0.6471 -0.0862
43699SOL     OW41026   8.603   7.082   6.024  0.1557 -0.0947  0.2870
43699SOL    HW141027   8.667   7.125   5.968 -0.1354  0.6447  0.5171
43699SOL    HW241028   8.564   7.152   6.077 -0.1446 -0.6645  0.8506
43700SOL     OW41029   1.669   7.341   3.853 -0.4675  0.5421 -0.5625
43700SOL    HW141030   1.719   7.422   3.841  0.6794 -0.3185 -2.0346
43700SOL    HW241031   1.648   7.312   3.764  1.3432 -2.0484 -0.2815
43701SOL     OW41032   5.568   4.911   2.871 -0.3940 -0.2782 -0.3746
43701SOL    HW141033   5.560   4.817   2.852  1.1543 -0.1498 -1.9129
43701SOL    HW241034   5.662   4.925   2.884 -0.6030  1.0685 -0.1925
43702SOL     OW41035   9.883   3.738   6.896 -0.1139 -0.1192  0.1098
43702SOL    HW141036   9.794   3.716   6.921 -0.2115  0.5357  0.3618
43702SOL    HW241037   9.909   3.668   6.836 -0.5293 -0.7132  0.6067
43703SOL     OW41038   3.746   2.083   4.523 -0.6487  0.5093  0.9971
43703SOL    HW141039   3.832   2.093   4.562  1.1574 -3.2103 -1.4752
43703SOL    HW241040   3.702   2.018   4.578 -0.9248  0.5656  0.8482
43704SOL     OW41041   4.499  10.522   1.997 -0.2719 -0.3469 -0.7178
43704SOL    HW141042   4.533  10.588   1.936  0.2441 -2.3906 -2.8050
43704SOL    HW241043   4.406  10.543   2.005  0.4217  2.5477  1.3637
43705SOL     OW41044  10.739   1.401  11.402  0.2011  0.7406  0.0558
43705SOL    HW141045  10.798   1.326  11.410  0.3756  0.9130  0.3799
43705SOL    HW241046  10.665   1.367  11.352 -0.4486 -0.0896  1.5160
43706SOL     OW41047  11.615   1.919   9.995  0.2164  0.0217 -0.0545
43706SOL    HW141048  11.567   1.867  10.060 -1.2186  0.3306 -0.8196
43706SOL    HW241049  11.692   1.951  10.042  1.6042 -3.3326  0.3067
43707SOL     OW41050   4.132   5.715   9.696  0.5221  0.2274  0.1755
43707SOL    HW141051   4.127   5.622   9.672  0.3374  0.6278 -1.4786
43707SOL    HW241052   4.102   5.718   9.786  0.0675 -1.2601  0.1080
43708SOL     OW41053   3.822   5.066   0.383  0.1906 -0.5833 -0.0286
43708SOL    HW141054   3.857   5.155   0.380  1.7996 -1.2113 -3.1875
43708SOL    HW241055   3.727   5.077   0.375  0.0686  0.8667  2.3379
43709SOL     OW41056   7.656   8.082   6.384 -0.1456 -0.1680  0.3180
43709SOL    HW141057   7.624   8.171   6.372  0.0858 -0.2946 -1.4964
43709SOL    HW241058   7.646   8.065   6.478 -1.8990  1.1058  0.4079
43710SOL     OW41059   9.228  13.214   2.205 -0.2140 -0.5176 -0.0433
43710SOL    HW141060   9.200  13.214   2.114 -1.2300 -0.1912  0.2639
43710SOL    HW241061   9.171  13.277   2.249  0.5089 -0.3860  0.7537
43711SOL     OW41062   6.225   4.484   0.494 -0.0446  0.7923 -0.5760
43711SOL    HW141063   6.173   4.415   0.454  0.7404  0.3007 -0.7692
43711SOL    HW241064   6.316   4.458   0.478  0.2738  1.1696  0.5192
43712SOL     OW41065   9.443  11.966   7.140 -0.2068  0.1400 -0.5202
43712SOL    HW141066   9.533  11.975   7.108  0.0566  0.7403  0.3270
43712SOL    HW241067   9.410  12.056   7.144 -1.3469 -0.1714 -2.1413
43713SOL     OW41068   1.306   3.367   9.999  0.2512 -0.1158 -0.3893
43713SOL    HW141069   1.252   3.415   9.936  0.3865 -0.6087 -0.8872
43713SOL    HW241070   1.376   3.428  10.022  1.3509 -0.6154 -2.2412
43714SOL     OW41071   0.202   8.722   7.193  0.1750 -0.0497 -0.6365
43714SOL    HW141072   0.230   8.674   7.271  0.2662  1.3138  0.2059
43714SOL    HW241073   0.256   8.686   7.122 -0.2392 -1.6306 -0.1885
43715SOL     OW41074  10.021  10.017   5.539  0.3073 -0.9556 -0.0513
43715SOL    HW141075  10.038  10.111   5.528  1.2496 -0.8240  1.9625
43715SOL    HW241076  10.053   9.977   5.459  0.1714  0.4020 -0.8207
43716SOL     OW41077   2.765  11.379   7.869 -0.0206 -0.9702 -0.0731
43716SOL    HW141078   2.856  11.357   7.848 -0.4741 -0.3536 -3.1263
43716SOL    HW241079   2.768  11.471   7.897  0.2180 -0.7364 -0.8600
43717SOL     OW41080  12.629   8.966   3.378 -0.1703 -0.4601 -0.1512
43717SOL    HW141081  12.575   8.931   3.306  1.6580 -3.1278 -0.3903
43717SOL    HW241082  12.717   8.968   3.342  0.2555  2.0913  0.8050
43718SOL     OW41083   5.804   4.943   0.057  0.2599 -0.0641  0.0541
43718SOL    HW141084   5.866   5.005   0.019 -1.3119  0.1667 -2.3644
43718SOL    HW241085   5.744   4.997   0.108  1.2415 -0.1333  1.3172
43719SOL     OW41086   2.990   3.057  12.902  0.1986 -0.2302 -0.2721
43719SOL    HW141087   2.916   3.062  12.963  0.2659 -1.5029 -0.0713
43719SOL    HW241088   3.065   3.037  12.958  0.9387  2.1109 -0.3231
43720SOL     OW41089   3.393   3.749   3.842  0.0532 -0.5370  1.0992
43720SOL    HW141090   3.472   3.703   3.872 -0.9898 -1.4518  2.5833
43720SOL    HW241091   3.342   3.683   3.796  0.0002 -0.0151  0.3798
43721SOL     OW41092  10.637   0.118   2.564 -0.4021  0.4969  0.1506
43721SOL    HW141093  10.649   0.144   2.655 -0.5635  2.9778 -0.4644
43721SOL    HW241094  10.573   0.046   2.568  0.0787  0.1049  2.0007
43722SOL     OW41095   7.433  12.093  10.212  0.3454  0.0325 -0.3110
43722SOL    HW141096   7.352  12.135  10.239  0.3094 -0.4474  0.3645
43722SOL    HW241097   7.487  12.164  10.178 -0.6596  0.2375 -1.5412
43723SOL     OW41098   2.639  12.555   1.895  0.3571  0.0286 -0.5823
43723SOL    HW141099   2.576  12.593   1.833 -0.4288 -2.3475 -1.3420
43723SOL    HW241100   2.590  12.544   1.976 -0.0406 -1.1299 -0.9551
43724SOL     OW41101   1.801  10.328   1.115 -0.2609  0.0364  0.2095
43724SOL    HW141102   1.831  10.314   1.026  1.0261 -2.3342  0.9110
43724SOL    HW241103   1.875  10.299   1.170 -0.1135  3.4735  2.1128
43725SOL     OW41104  10.048   2.021   0.142  0.0807 -0.2544 -0.0363
43725SOL    HW141105  10.015   2.049   0.228 -0.9252  0.4274 -0.6133
43725SOL    HW241106  10.030   2.096   0.084  0.3208 -0.8758 -0.9354
43726SOL     OW41107   1.834   5.679   2.560  0.0318  0.1197 -0.0422
43726SOL    HW141108   1.884   5.607   2.523  0.6527  0.1390  0.7303
43726SOL    HW241109   1.813   5.651   2.649  0.1016  0.8085  0.1955
43727SOL     OW41110  13.016  12.376   1.233 -0.0845 -0.3858  0.3859
43727SOL    HW141111  13.013  12.349   1.141 -0.5850  0.8723  0.0146
43727SOL    HW241112  13.074  12.452   1.234 -0.4663 -0.0927  1.0243
43728SOL     OW41113  13.194   9.305   8.641  0.0371  0.4765 -0.1949
43728SOL    HW141114  13.165   9.260   8.561  0.0131  1.3277 -0.6769
43728SOL    HW241115  13.119   9.300   8.700 -0.1689  0.3804 -0.4618
43729SOL     OW41116   1.549   9.953   4.487 -0.0572  0.3463 -0.4497
43729SOL    HW141117   1.609   9.888   4.523 -0.9241 -0.8568 -1.1175
43729SOL    HW241118   1.605  10.028   4.466  1.0177 -0.3014  0.0014
43730SOL     OW41119  10.208   2.517  11.023 -0.9687  0.1410  0.5071
43730SOL    HW141120  10.300   2.505  10.999 -0.7855  1.2056  0.6055
43730SOL    HW241121  10.159   2.497  10.943 -0.7214 -1.2747  0.6962
43731SOL     OW41122  11.878  11.047   3.409  0.4953  0.0481  0.4241
43731SOL    HW141123  11.799  11.022   3.457  0.1771  2.0853  1.0723
43731SOL    HW241124  11.849  11.121   3.354  1.5864 -0.2237 -0.5372
43732SOL     OW41125   4.542   1.916  10.170 -0.3257  0.7646 -0.0917
43732SOL    HW141126   4.535   1.823  10.151 -0.6336  0.8468 -0.3640
43732SOL    HW241127   4.511   1.924  10.261 -0.7993  0.6800 -0.2444
43733SOL     OW41128   5.990   9.541   9.032  0.0585 -0.0428 -0.8316
43733SOL    HW141129   5.967   9.630   9.006 -1.0162  0.2523  0.9689
43733SOL    HW241130   6.052   9.552   9.104 -0.2768 -0.7587 -0.4256
43734SOL     OW41131  13.167   9.644   5.600 -0.0395  0.2394  0.1847
43734SOL    HW141132  13.242   9.633   5.660  0.3689 -0.3316 -0.4151
43734SOL    HW241133  13.110   9.569   5.620  0.5328 -0.4662 -0.7455
43735SOL     OW41134   2.412  13.093   3.059  0.5611  0.1642 -0.5513
43735SOL    HW141135   2.376  13.174   3.095  0.8121  1.0514 -2.1785
43735SOL    HW241136   2.494  13.080   3.106 -0.4218 -0.2837  1.1349
43736SOL     OW41137   2.256   5.138  13.148  0.1630 -0.6662  0.3658
43736SOL    HW141138   2.331   5.187  13.113  0.4423  0.4602  2.3357
43736SOL    HW241139   2.182   5.197  13.137 -0.1383 -1.1324 -0.1377
43737SOL     OW41140   8.322  12.145  12.513  0.4457  0.4786 -0.4918
43737SOL    HW141141   8.397  12.111  12.562  0.1771  0.0871 -0.3518
43737SOL    HW241142   8.355  12.157  12.424  0.0116 -2.1412 -1.0924
43738SOL     OW41143  12.200  12.117   0.273  0.0172  0.0269 -0.2939
43738SOL    HW141144  12.173  12.031   0.240  0.1447  0.2147 -0.9000
43738SOL    HW241145  12.250  12.098   0.353 -2.2578 -0.3057  1.1245
43739SOL     OW41146  13.250  13.301   1.830 -0.4207 -0.1378  0.2217
43739SOL    HW141147  13.278  13.391   1.845 -0.9474 -0.2327  2.1441
43739SOL    HW241148  13.330  13.253   1.808 -0.0281  0.6567 -0.1054
43740SOL     OW41149   1.326   6.554   1.841 -0.1784 -0.4544 -0.0111
43740SOL    HW141150   1.354   6.466   1.867  0.6501 -0.1216  0.2524
43740SOL    HW241151   1.251   6.539   1.783 -0.0092 -1.3323 -0.0157
43741SOL     OW41152  12.869   8.535   7.689 -0.1514  0.2886 -0.1637
43741SOL    HW141153  12.898   8.626   7.680  1.0587 -0.1148 -0.3974
43741SOL    HW241154  12.846   8.509   7.600  3.1178 -0.7944 -0.8204
43742SOL     OW41155  13.056   8.856  12.205 -0.4596 -0.1625  0.5504
43742SOL    HW141156  13.145   8.888  12.186 -0.6592  0.1520  0.1110
43742SOL    HW241157  13.069   8.784  12.266  0.1673 -0.6499 -0.1342
43743SOL     OW41158   8.746   7.312  11.525 -0.6935  0.0896 -0.2527
43743SOL    HW141159   8.786   7.381  11.472 -1.0579  0.6851  0.2459
43743SOL    HW241160   8.800   7.308  11.603 -2.2024  1.6673  0.9444
43744SOL     OW41161   2.816   4.945  10.632 -0.5217  0.3275  0.0343
43744SOL    HW141162   2.842   5.037  10.623 -1.1057  0.3444 -2.1519
43744SOL    HW241163   2.778   4.923  10.547 -0.0377 -2.0637  0.3668
43745SOL     OW41164   4.273  10.816   3.958  0.3010  0.3844  0.0481
43745SOL    HW141165   4.216  10.893   3.969 -0.7853 -0.3511 -0.2442
43745SOL    HW241166   4.240  10.773   3.879 -1.2364 -2.1382  1.9220
43746SOL     OW41167   7.583   0.763   9.260  0.7688 -0.0654  0.2351
43746SOL    HW141168   7.608   0.848   9.226 -1.4167 -0.1581 -1.8438
43746SOL    HW241169   7.611   0.701   9.193 -2.7671 -0.3359 -1.2351
43747SOL     OW41170  11.585   3.325  13.128  0.0799 -0.0211  0.1081
43747SOL    HW141171  11.536   3.248  13.100 -1.2786 -0.4299  3.1487
43747SOL    HW241172  11.676   3.297  13.130 -0.0463 -0.6321 -1.4790
43748SOL     OW41173  11.181   7.845  10.542  0.1516 -0.0500 -0.0149
43748SOL    HW141174  11.209   7.757  10.518 -0.3865  0.3498 -2.3533
43748SOL    HW241175  11.254   7.901  10.517 -0.1649  0.3268 -0.1075
43749SOL     OW41176   9.955   1.967   1.632  0.3182  0.0500 -0.3979
43749SOL    HW141177   9.940   1.930   1.719  0.6142 -1.3110 -0.8876
43749SOL    HW241178  10.002   1.897   1.585 -0.4283  0.4924 -1.8508
43750SOL     OW41179   2.699  10.166   5.399 -0.4409  0.1916 -0.5851
43750SOL    HW141180   2.773  10.141   5.453 -1.2115 -0.9620 -0.0208
43750SOL    HW241181   2.669  10.084   5.360 -1.5183  0.6151 -0.6798
43751SOL     OW41182   7.519   5.838  12.620  0.0977 -0.4686 -0.1329
43751SOL    HW141183   7.500   5.885  12.701 -0.0977 -1.9395  0.6992
43751SOL    HW241184   7.496   5.900  12.551  0.2880  0.8273  0.9121
43752SOL     OW41185  13.225   2.132   2.440  0.5447 -0.0328 -0.6240
43752SOL    HW141186  13.247   2.091   2.523  0.2786  0.8643 -0.1009
43752SOL    HW241187  13.288   2.203   2.430 -0.0134  0.4626 -0.7174
43753SOL     OW41188   7.278   3.671   1.137 -0.0417  0.0806  0.0719
43753SOL    HW141189   7.284   3.751   1.189 -0.0812  0.3315 -0.3093
43753SOL    HW241190   7.212   3.618   1.181  0.2075  0.1263  0.5015
43754SOL     OW41191   4.559   9.195   1.715  0.2522 -0.1417  0.1683
43754SOL    HW141192   4.500   9.253   1.763  0.0461  1.5402 -1.9355
43754SOL    HW241193   4.642   9.200   1.763  0.2614  2.0180  0.0324
43755SOL     OW41194   3.840   2.175   7.972 -0.6114 -0.1980  0.0772
43755SOL    HW141195   3.861   2.183   7.879 -1.1468 -4.0008 -0.5193
43755SOL    HW241196   3.746   2.189   7.976 -0.5298  0.3481  0.1135
43756SOL     OW41197  11.829  12.978   9.304  0.5985 -0.1328 -0.1666
43756SOL    HW141198  11.752  12.924   9.321  2.0315 -2.2783 -0.2170
43756SOL    HW241199  11.800  13.038   9.234 -1.2062 -0.3807  0.3044
43757SOL     OW41200   5.300  11.912   6.576  0.2261 -0.1548 -0.6460
43757SOL    HW141201   5.232  11.964   6.619  0.8820 -0.1327  0.3916
43757SOL    HW241202   5.329  11.968   6.504  0.1687  0.4715 -0.1994
43758SOL     OW41203  10.967   5.069   3.797  0.2852  0.1891  0.1063
43758SOL    HW141204  10.955   5.050   3.704 -1.4588  1.0892  0.1209
43758SOL    HW241205  11.001   4.987   3.833 -1.9198 -1.2158 -0.8049
43759SOL     OW41206   7.674   3.994  13.311  0.0874 -0.5315  0.0902
43759SOL    HW141207   7.635   3.961  13.230  0.2004 -0.2887 -0.0646
43759SOL    HW241208   7.649   4.086  13.314 -0.0336 -0.5733  0.4036
43760SOL     OW41209   6.862   4.972   1.920  0.1723  0.3273 -0.2816
43760SOL    HW141210   6.863   5.054   1.968 -1.3009 -1.4610  3.1947
43760SOL    HW241211   6.775   4.967   1.881  0.0653  0.2058 -0.0311
43761SOL     OW41212  10.469   8.487   7.647 -0.6417  0.7151  0.2394
43761SOL    HW141213  10.402   8.432   7.689 -0.1335  0.7674  1.1396
43761SOL    HW241214  10.451   8.478   7.553 -1.9420  0.7601  0.4587
43762SOL     OW41215   4.339   8.026  12.218 -0.1894 -0.1598  0.0486
43762SOL    HW141216   4.419   8.052  12.172 -0.2610 -2.2165 -1.3907
43762SOL    HW241217   4.334   8.085  12.293  2.2004  0.6154 -0.3178
43763SOL     OW41218   7.575   8.282   8.039  0.0492 -0.0576 -0.2051
43763SOL    HW141219   7.491   8.250   8.006 -0.0990  0.1188 -0.0050
43763SOL    HW241220   7.619   8.318   7.963 -0.3606  0.5044 -0.1908
43764SOL     OW41221  10.843   1.091   3.243 -0.7413 -0.0029  0.0576
43764SOL    HW141222  10.819   0.998   3.253  0.4684 -0.2186  1.3959
43764SOL    HW241223  10.935   1.094   3.270 -0.6387  1.5254 -0.4162
43765SOL     OW41224   2.212   7.195   6.765 -0.7879 -0.0274 -0.0517
43765SOL    HW141225   2.182   7.175   6.853 -1.4532  0.8150 -0.0625
43765SOL    HW241226   2.131   7.208   6.715 -0.4509  2.0255 -0.1564
43766SOL     OW41227   1.952   7.147   3.524  0.6239  0.2872  0.1998
43766SOL    HW141228   1.894   7.223   3.520  0.0169 -0.0974  1.3088
43766SOL    HW241229   2.021   7.173   3.584  0.2569 -0.1287  0.8114
43767SOL     OW41230   1.008   7.707   7.354 -0.3176  0.0886 -0.3804
43767SOL    HW141231   0.948   7.633   7.361 -0.3270  0.2645  2.7577
43767SOL    HW241232   1.095   7.668   7.345 -0.1824 -0.4643  2.4419
43768SOL     OW41233   7.399   8.037   6.144  0.4813  0.1968  0.4170
43768SOL    HW141234   7.482   8.081   6.126  0.9603 -0.9749 -0.3671
43768SOL    HW241235   7.341   8.068   6.074  0.2723  0.9214  0.8943
43769SOL     OW41236   5.161   5.856   3.165 -0.1773 -0.4383  0.0044
43769SOL    HW141237   5.225   5.861   3.094 -0.8815 -0.6070 -0.6417
43769SOL    HW241238   5.127   5.767   3.161  0.6581 -0.8506  1.3387
43770SOL     OW41239   8.451   9.372   1.137  0.5498 -0.2641  0.0424
43770SOL    HW141240   8.528   9.403   1.090  0.1200 -2.9840 -2.7505
43770SOL    HW241241   8.378   9.395   1.081 -0.4975  0.1799  1.5200
43771SOL     OW41242   7.952   5.755   4.177  0.2784  0.3331 -0.0991
43771SOL    HW141243   7.877   5.744   4.236 -0.0354  0.3856 -0.4859
43771SOL    HW241244   7.952   5.849   4.156  0.1114  0.2348 -0.5444
43772SOL     OW41245   4.859   5.495   2.903  0.1120 -0.2374  0.5091
43772SOL    HW141246   4.922   5.481   2.973 -0.3896  0.3270  1.0941
43772SOL    HW241247   4.800   5.420   2.908  0.7214 -0.7516 -0.0223
43773SOL     OW41248  10.827   7.399   5.121 -0.3764  0.1676  0.1864
43773SOL    HW141249  10.890   7.389   5.049 -1.5648 -1.4637 -0.6982
43773SOL    HW241250  10.768   7.468   5.091 -1.2404 -0.9345 -0.7297
43774SOL     OW41251  10.863   0.391   8.531  0.6569  0.5181  0.6418
43774SOL    HW141252  10.861   0.441   8.449  0.8057  0.5989  0.6864
43774SOL    HW241253  10.794   0.430   8.584  0.6053  0.5102  0.5814
43775SOL     OW41254   3.360  11.428   4.702 -0.7603 -0.0968 -0.2315
43775SOL    HW141255   3.427  11.395   4.642  1.2884 -1.0651  2.3716
43775SOL    HW241256   3.289  11.364   4.695  1.8652 -3.7699  2.4294
43776SOL     OW41257   4.544  11.895  12.591  0.3601 -0.5380 -0.6084
43776SOL    HW141258   4.475  11.831  12.610  0.2365 -0.4604 -0.7967
43776SOL    HW241259   4.608  11.846  12.539  0.6964 -0.7500 -0.0201
43777SOL     OW41260   2.592  12.316  11.347  0.1929  0.6718 -0.0598
43777SOL    HW141261   2.651  12.252  11.306  1.4173  0.8520  1.3315
43777SOL    HW241262   2.575  12.281  11.434 -1.6707  0.7157 -0.3827
43778SOL     OW41263  11.768   1.315   3.105  0.7373 -0.3229  0.1471
43778SOL    HW141264  11.844   1.300   3.049  0.5278 -0.0911 -0.2030
43778SOL    HW241265  11.756   1.232   3.151  0.3809 -0.8096 -0.7992
43779SOL     OW41266   1.189   3.463   4.165  0.5406  0.1350 -0.4520
43779SOL    HW141267   1.175   3.557   4.159 -0.3501 -0.0811 -2.4879
43779SOL    HW241268   1.163   3.440   4.254  1.9248  1.9641  0.4857
43780SOL     OW41269  12.881  13.064   1.595  0.0074  0.4310 -0.4543
43780SOL    HW141270  12.835  13.001   1.540 -1.3547 -0.9426  2.0890
43780SOL    HW241271  12.962  13.082   1.547 -0.1386 -2.2625 -1.9150
43781SOL     OW41272   7.255   0.835   4.165 -0.1135 -0.4991  0.3173
43781SOL    HW141273   7.331   0.778   4.157 -0.7339 -1.2035 -0.9923
43781SOL    HW241274   7.188   0.779   4.205 -0.6086 -0.5834 -0.6097
43782SOL     OW41275   6.968   0.016   5.261  0.2735 -0.0677 -0.8657
43782SOL    HW141276   6.977  -0.014   5.352  0.2535 -0.9124 -1.1369
43782SOL    HW241277   7.052  -0.004   5.220 -0.1543 -0.8976 -1.3695
43783SOL     OW41278  12.448   0.066   2.615  0.1461 -0.0006 -0.5585
43783SOL    HW141279  12.373   0.087   2.559  0.8433  2.3176 -0.7235
43783SOL    HW241280  12.465   0.147   2.662  1.7958 -0.8639  0.4003
43784SOL     OW41281   3.317   0.965   0.680  0.1295 -0.2016 -0.2178
43784SOL    HW141282   3.344   1.055   0.696  0.3940 -0.1560 -0.9134
43784SOL    HW241283   3.368   0.937   0.604  1.8386 -1.7130  1.3664
43785SOL     OW41284   1.623   6.441   2.602  0.2031 -0.4888  0.5945
43785SOL    HW141285   1.672   6.398   2.532  0.5185 -0.4401  0.7834
43785SOL    HW241286   1.690   6.471   2.663 -0.0647 -0.4497  0.8719
43786SOL     OW41287  10.081  12.100   1.344 -0.2019 -0.3276  0.2849
43786SOL    HW141288  10.086  12.151   1.425  1.1134  0.0487 -0.0212
43786SOL    HW241289  10.171  12.074   1.326 -0.4649 -0.3657 -1.0880
43787SOL     OW41290   4.944   8.316   0.748 -0.5130 -0.2495  0.0881
43787SOL    HW141291   4.920   8.264   0.824  0.5150 -1.3691 -0.3129
43787SOL    HW241292   4.888   8.393   0.752 -0.0174  0.0492  2.3357
43788SOL     OW41293   6.895   1.137  13.048 -0.1863  0.7459 -0.3784
43788SOL    HW141294   6.820   1.166  12.996 -0.3327  1.8990  0.4122
43788SOL    HW241295   6.863   1.061  13.097  0.0089 -0.4631 -2.0490
43789SOL     OW41296   2.217  11.340   5.543 -0.4821  0.0462 -0.3809
43789SOL    HW141297   2.148  11.285   5.507  0.7625 -1.8324 -0.0427
43789SOL    HW241298   2.296  11.313   5.496  0.1382  1.8412 -0.4667
43790SOL     OW41299   4.903  10.455   0.021  0.7847 -0.0885  0.3218
43790SOL    HW141300   4.885  10.380   0.078  0.6883 -0.5045 -0.2517
43790SOL    HW241301   4.875  10.531   0.072 -2.8647 -0.6628 -0.5820
43791SOL     OW41302   6.282   1.894   0.865  0.0044 -0.0748 -0.4211
43791SOL    HW141303   6.262   1.873   0.957 -1.0616  0.5422 -0.4919
43791SOL    HW241304   6.370   1.930   0.867 -0.4168  0.9643  0.5306
43792SOL     OW41305   9.962   0.906   3.694  0.0203  0.0046 -0.2557
43792SOL    HW141306  10.016   0.920   3.771 -1.0197 -0.7897  0.6496
43792SOL    HW241307   9.883   0.958   3.709  0.0376  0.2693 -1.0353
43793SOL     OW41308  12.916   8.525   1.913 -0.0978 -0.3002 -0.1585
43793SOL    HW141309  12.838   8.493   1.868  0.0553 -1.1252  0.1478
43793SOL    HW241310  12.894   8.615   1.939 -1.8874 -1.2632  2.0471
43794SOL     OW41311   1.470   6.539  11.514 -0.1423 -0.6761  0.4192
43794SOL    HW141312   1.387   6.495  11.534 -1.7427  1.4423 -1.0578
43794SOL    HW241313   1.481   6.603  11.583  1.2497 -2.0722  1.5700
43795SOL     OW41314   4.842   6.768   6.743  0.3457 -0.8819  0.1033
43795SOL    HW141315   4.910   6.737   6.684 -1.0302  0.1942 -2.2169
43795SOL    HW241316   4.826   6.859   6.716  0.0740 -0.0798  2.6173
43796SOL     OW41317   1.790  12.221   1.287 -0.5326 -0.2702  0.0258
43796SOL    HW141318   1.744  12.304   1.297 -0.3870  0.1239 -2.1518
43796SOL    HW241319   1.725  12.163   1.247 -0.5323 -1.1519  1.2358
43797SOL     OW41320   4.979   8.556   3.369  1.0029  0.7725  0.4338
43797SOL    HW141321   4.979   8.543   3.275  0.7611  1.9134  0.2601
43797SOL    HW241322   4.985   8.651   3.380  1.4620  0.6306  1.5716
43798SOL     OW41323  11.000  10.632   7.161 -0.0473 -0.2645  0.3776
43798SOL    HW141324  10.987  10.700   7.227 -0.8560 -0.2186  0.1768
43798SOL    HW241325  10.992  10.678   7.078 -0.1805 -0.5281  0.2445
43799SOL     OW41326   3.768   1.086  10.276 -0.5414  0.1584  0.2996
43799SOL    HW141327   3.753   1.065  10.368 -0.2295  0.7993  0.5045
43799SOL    HW241328   3.806   1.174  10.277 -1.6361  0.6701 -0.5149
43800SOL     OW41329   9.512   9.901   6.034 -0.8533 -0.1352  0.3938
43800SOL    HW141330   9.475   9.859   5.956  1.1169  1.2737 -1.4145
43800SOL    HW241331   9.452   9.973   6.052 -0.8983  0.0133 -0.3169
43801SOL     OW41332   5.443   9.480  12.620 -0.4786 -0.0360 -0.0148
43801SOL    HW141333   5.411   9.397  12.656 -0.3157  0.2631  0.8430
43801SOL    HW241334   5.364   9.525  12.592 -0.7005  0.1119  0.8223
43802SOL     OW41335  11.835   6.343  12.823 -0.0964  0.1333 -0.1218
43802SOL    HW141336  11.876   6.259  12.845  0.7486  0.1792 -1.4272
43802SOL    HW241337  11.882   6.407  12.875 -0.0731 -0.0770  0.1204
43803SOL     OW41338   2.036   1.297  12.973  0.0876 -0.0216 -0.0444
43803SOL    HW141339   1.980   1.368  13.003 -0.3687  0.4636 -1.9269
43803SOL    HW241340   2.035   1.304  12.877  2.3493 -0.7789 -0.1839
43804SOL     OW41341   8.897   6.113   1.993  0.4347  0.0498 -0.1113
43804SOL    HW141342   8.921   6.032   2.038  0.9882  0.6347  0.6759
43804SOL    HW241343   8.841   6.084   1.921 -1.9552 -0.8470  1.9131
43805SOL     OW41344   9.816  12.086   2.783  0.3858 -0.0541 -0.5156
43805SOL    HW141345   9.754  12.158   2.769 -0.1799 -0.7138 -1.4883
43805SOL    HW241346   9.793  12.052   2.870  1.8945  2.1039  0.8195
43806SOL     OW41347   4.388   3.070  13.222 -0.2366 -0.1219  0.1877
43806SOL    HW141348   4.361   3.138  13.161  2.1614  0.8027  0.0491
43806SOL    HW241349   4.483   3.080  13.228 -0.0330 -2.2991  1.5783
43807SOL     OW41350   5.694   5.539   3.700  0.2322  0.5619 -0.4540
43807SOL    HW141351   5.763   5.472   3.697 -0.1467  0.1466 -0.0760
43807SOL    HW241352   5.613   5.490   3.713 -0.0544  1.0922 -0.1999
43808SOL     OW41353   9.282   7.055   0.332  0.2884 -0.1350 -0.2314
43808SOL    HW141354   9.240   6.985   0.381  0.3078  0.1628  0.2191
43808SOL    HW241355   9.309   7.118   0.399 -1.1973  1.1063 -0.7377
43809SOL     OW41356   0.676   6.488   8.496  0.2622 -0.2714  0.1855
43809SOL    HW141357   0.627   6.508   8.415 -0.4666 -0.0552  0.6667
43809SOL    HW241358   0.753   6.545   8.492 -0.8559  1.3579  0.6512
43810SOL     OW41359  12.566   9.487   4.731 -0.0364  0.3361 -0.0788
43810SOL    HW141360  12.583   9.579   4.707  1.5597 -0.3227 -1.7120
43810SOL    HW241361  12.636   9.465   4.792  2.1652 -0.8734 -2.8031
43811SOL     OW41362   2.776   3.795  13.033  0.6179  0.4648 -0.3917
43811SOL    HW141363   2.813   3.711  13.060  0.5644  0.1210 -1.3414
43811SOL    HW241364   2.758   3.785  12.939 -1.1572  0.8879 -0.1402
43812SOL     OW41365   9.835   2.726  11.424  0.1135 -0.3185  0.1607
43812SOL    HW141366   9.885   2.646  11.410 -0.0554 -0.2531 -0.9008
43812SOL    HW241367   9.809   2.754  11.336  0.4459  1.0777  0.4819
43813SOL     OW41368  12.270  11.285   2.699  0.1931 -0.3293  0.0533
43813SOL    HW141369  12.275  11.194   2.669  0.0859 -0.4688  0.4592
43813SOL    HW241370  12.177  11.307   2.695  0.3520  0.2263 -1.3963
43814SOL     OW41371   4.057  10.776  11.701 -0.1661 -0.5744  0.1703
43814SOL    HW141372   4.039  10.704  11.640 -1.0229  0.4065 -0.7850
43814SOL    HW241373   3.997  10.846  11.673 -0.3703  0.0090  1.9724
43815SOL     OW41374   4.550   0.999   9.883  0.1146  0.1691 -0.1007
43815SOL    HW141375   4.631   1.035   9.846  0.1592  0.3742  0.1900
43815SOL    HW241376   4.579   0.952   9.961 -0.2508  1.9605  1.1794
43816SOL     OW41377  13.053   4.262   2.841  0.1743 -0.0293  0.5055
43816SOL    HW141378  12.988   4.241   2.908 -2.2587  1.7403 -1.1460
43816SOL    HW241379  13.082   4.351   2.862 -1.1434  0.8298 -1.0895
43817SOL     OW41380   2.434   5.256   9.533 -0.0776  0.3247 -0.1781
43817SOL    HW141381   2.340   5.235   9.533 -0.3765  1.5521  0.5751
43817SOL    HW241382   2.447   5.307   9.613  0.6189  2.7457 -1.7343
43818SOL     OW41383   4.720  12.030  11.882  0.7848 -0.2441 -0.1665
43818SOL    HW141384   4.649  12.092  11.900  0.4305 -0.6209 -0.2385
43818SOL    HW241385   4.756  12.058  11.798  1.2712  0.4468  0.2602
43819SOL     OW41386  10.075   6.341  12.312 -0.4594  0.9600 -0.4647
43819SOL    HW141387  10.035   6.418  12.351  0.2360 -0.0411  2.4854
43819SOL    HW241388  10.169   6.362  12.307 -0.0694 -0.0642  1.5610
43820SOL     OW41389   2.885   5.742   5.839 -0.3927  0.6433 -0.3329
43820SOL    HW141390   2.821   5.686   5.882  1.2868 -0.7970  0.4229
43820SOL    HW241391   2.884   5.712   5.748 -2.7157  2.5400 -1.0451
43821SOL     OW41392  11.717   1.708   0.362  0.3455  0.5409  0.2919
43821SOL    HW141393  11.638   1.685   0.411 -0.4639  1.2441 -0.6518
43821SOL    HW241394  11.690   1.704   0.270  1.5104  0.4533 -0.0583
43822SOL     OW41395   6.507   5.007   7.168  0.4143  0.2261  0.2069
43822SOL    HW141396   6.587   4.981   7.215  1.9771  2.5608 -0.9692
43822SOL    HW241397   6.470   5.078   7.221  0.0832  0.3085 -0.1285
43823SOL     OW41398   8.630   3.056   3.348  0.1380  0.0343 -0.0430
43823SOL    HW141399   8.628   3.124   3.415  1.0776  0.9502 -0.9087
43823SOL    HW241400   8.563   3.082   3.285  0.6205  0.2706 -0.4668
43824SOL     OW41401   9.470   4.518   0.792 -0.2079 -0.6316  0.4966
43824SOL    HW141402   9.512   4.470   0.863  0.5919 -2.5117 -1.1420
43824SOL    HW241403   9.477   4.459   0.716  0.3176  1.8787 -1.5224
43825SOL     OW41404   3.691   1.901  13.169  0.1050 -0.7873 -0.1918
43825SOL    HW141405   3.727   1.964  13.232 -1.1936 -1.6772  1.5061
43825SOL    HW241406   3.617   1.947  13.130  0.3647 -0.5633 -0.4315
43826SOL     OW41407   6.602   7.334   3.919 -0.9272 -0.2213 -0.1824
43826SOL    HW141408   6.536   7.363   3.981 -1.8348  0.4357 -1.4154
43826SOL    HW241409   6.603   7.239   3.928 -1.1500 -0.1483  0.7152
43827SOL     OW41410   7.042   1.378   0.145  0.4606 -0.6503  0.6603
43827SOL    HW141411   7.000   1.294   0.163 -0.0953 -0.6066 -0.3176
43827SOL    HW241412   7.022   1.394   0.052  1.3480  0.1126  0.5956
43828SOL     OW41413  10.837   3.299   4.124  0.5342 -0.0373 -0.2091
43828SOL    HW141414  10.842   3.387   4.085  1.5187  0.0186  0.0043
43828SOL    HW241415  10.745   3.275   4.118  0.1608  1.2231  0.1826
43829SOL     OW41416   3.709   7.590   0.038  0.1712 -0.3050  0.2367
43829SOL    HW141417   3.683   7.566   0.127  0.9883 -0.8379  0.3324
43829SOL    HW241418   3.656   7.668   0.019  1.6605  1.2926  2.0826
43830SOL     OW41419   6.966   5.062  10.586  0.3211  0.3150  0.1444
43830SOL    HW141420   7.050   5.027  10.617  0.0502 -1.0529 -0.6087
43830SOL    HW241421   6.948   5.014  10.506 -0.3981  1.7789 -0.5983
43831SOL     OW41422  10.420   6.515   6.794 -0.1338  0.8200 -0.3637
43831SOL    HW141423  10.374   6.597   6.775 -2.1406 -0.3137 -0.6086
43831SOL    HW241424  10.360   6.466   6.850  0.5411 -0.9708 -1.1542
43832SOL     OW41425   1.351  12.035   7.676 -0.0602 -0.3540  0.1797
43832SOL    HW141426   1.303  11.989   7.607  0.3366  0.3105 -0.5613
43832SOL    HW241427   1.363  11.970   7.745 -1.5934 -0.6614  0.1848
43833SOL     OW41428   0.431   8.568   4.673  0.0856 -0.3407  0.2787
43833SOL    HW141429   0.422   8.644   4.616  0.4081 -1.0312 -0.7234
43833SOL    HW241430   0.341   8.545   4.697 -0.0147  0.3125  0.5310
43834SOL     OW41431   4.530  10.390   3.226 -0.3049 -0.0159 -0.4256
43834SOL    HW141432   4.608  10.435   3.259 -1.6786  0.9259  1.7727
43834SOL    HW241433   4.530  10.408   3.132  2.4154 -0.5703 -0.6132
43835SOL     OW41434   7.828  12.250   2.183  0.1596 -0.0962  0.3426
43835SOL    HW141435   7.736  12.240   2.204 -0.4269  0.7081 -1.5853
43835SOL    HW241436   7.834  12.336   2.140  1.6648 -0.4445 -0.2355
43836SOL     OW41437  10.482   9.492   0.561  0.5677 -0.3366 -0.2861
43836SOL    HW141438  10.491   9.555   0.632  0.0545  0.5620 -1.0019
43836SOL    HW241439  10.559   9.435   0.571  1.4782  0.8757 -0.0953
43837SOL     OW41440   9.254   9.749   4.463  0.2932 -0.3824  0.1248
43837SOL    HW141441   9.227   9.835   4.431 -0.8056 -1.1830 -1.2127
43837SOL    HW241442   9.314   9.716   4.395 -0.0555 -1.0649  0.1431
43838SOL     OW41443  12.482   8.904  11.943 -0.0659 -0.4151  0.6243
43838SOL    HW141444  12.506   8.955  11.866  0.8446 -0.7683  0.6618
43838SOL    HW241445  12.450   8.821  11.908  0.3570 -0.5796  0.6124
43839SOL     OW41446   8.152   4.456   5.583 -0.7238  0.4728 -0.7964
43839SOL    HW141447   8.223   4.450   5.520 -0.7521  0.2112 -0.8032
43839SOL    HW241448   8.086   4.394   5.552 -1.0286  0.8258 -0.8804
43840SOL     OW41449   2.428   6.553   1.590  0.4131 -0.5175  1.0244
43840SOL    HW141450   2.394   6.515   1.671  1.1466 -1.1494  1.0429
43840SOL    HW241451   2.507   6.599   1.617  1.2400 -1.6034  0.5222
43841SOL     OW41452   6.658  12.102   8.350  0.2713 -0.6191 -0.1445
43841SOL    HW141453   6.608  12.028   8.315  0.5855  0.1959 -2.5291
43841SOL    HW241454   6.594  12.153   8.400 -0.2390 -1.8031  0.4562
43842SOL     OW41455   3.149   5.413   6.207 -0.0711  0.3236  0.2802
43842SOL    HW141456   3.057   5.417   6.180  0.1420  0.2179 -0.4648
43842SOL    HW241457   3.148   5.359   6.286 -0.3258 -1.9294 -1.1660
43843SOL     OW41458  10.071  12.584   4.340  0.2747  0.3277  0.1458
43843SOL    HW141459  10.131  12.545   4.403 -1.0060  3.2453  3.5475
43843SOL    HW241460   9.999  12.521   4.331  1.5726 -1.1372 -0.3070
43844SOL     OW41461  12.072   0.160   4.674  0.0065  0.4580 -0.3529
43844SOL    HW141462  12.099   0.068   4.681 -0.7735  0.2205 -0.3725
43844SOL    HW241463  12.005   0.160   4.605 -2.0876  0.5472  1.5914
43845SOL     OW41464   9.191   4.107   1.687 -0.5200 -0.1624 -0.1652
43845SOL    HW141465   9.221   4.167   1.756  0.9668  1.3578 -2.0311
43845SOL    HW241466   9.096   4.116   1.688 -0.4589  0.6471  0.9627
43846SOL     OW41467  11.543  12.822   8.502  0.2351  0.9461  0.4872
43846SOL    HW141468  11.451  12.808   8.478 -0.0988  1.2663  1.5142
43846SOL    HW241469  11.592  12.765   8.444 -0.4660  2.1952 -1.4276
43847SOL     OW41470   2.831   0.235  12.878 -0.0393  0.1682 -0.0251
43847SOL    HW141471   2.770   0.308  12.873 -0.4093 -0.1785 -0.7189
43847SOL    HW241472   2.908   0.264  12.829  0.4591  0.6904  1.0354
43848SOL     OW41473  10.920   3.033   4.001  0.6693 -0.1461 -0.1149
43848SOL    HW141474  11.002   3.036   4.049  0.9134  0.4466 -0.5526
43848SOL    HW241475  10.871   3.109   4.032 -0.1065 -0.9768  0.7946
43849SOL     OW41476   5.054  12.854   1.500  0.7768  0.3857  0.0255
43849SOL    HW141477   5.043  12.832   1.592  0.3246 -1.1806 -0.3708
43849SOL    HW241478   5.116  12.927   1.500  2.6819 -1.1012  1.4657
43850SOL     OW41479   1.617   3.812   5.622 -0.0985  0.0123 -0.7655
43850SOL    HW141480   1.699   3.786   5.580  0.6414  1.3994 -0.2391
43850SOL    HW241481   1.551   3.800   5.553  0.7129 -0.0813 -1.5542
43851SOL     OW41482  12.590   4.644  11.172  0.1780  0.1229 -0.3588
43851SOL    HW141483  12.678   4.636  11.134  0.0426  2.4562 -1.3895
43851SOL    HW241484  12.532   4.655  11.096 -0.8538 -0.2621  0.3511
43852SOL     OW41485   9.487   2.569   4.511 -0.4756  0.1946 -0.3440
43852SOL    HW141486   9.426   2.496   4.497 -0.1748 -0.6196  2.0528
43852SOL    HW241487   9.432   2.647   4.509 -1.2488 -0.3400 -0.3229
43853SOL     OW41488  13.159  11.436   1.055  0.4665 -0.3257 -0.5667
43853SOL    HW141489  13.066  11.421   1.041  0.4411 -0.8244  0.0680
43853SOL    HW241490  13.200  11.351   1.035  0.4381 -1.0599  2.0750
43854SOL     OW41491   5.181  13.148   7.291 -0.0592 -0.1808  0.3822
43854SOL    HW141492   5.138  13.063   7.278 -1.1030  0.5404 -1.2153
43854SOL    HW241493   5.117  13.201   7.337  0.1386  0.1079  0.3291
43855SOL     OW41494   5.326   6.878   2.725  0.0076  0.4659  0.1490
43855SOL    HW141495   5.260   6.810   2.715  1.2494 -0.8024  0.2638
43855SOL    HW241496   5.391   6.840   2.783  1.6358  1.0495 -1.2006
43856SOL     OW41497   3.290   5.712   5.346 -0.7794  0.2335  0.1958
43856SOL    HW141498   3.326   5.710   5.434  1.9108  0.6012 -0.8002
43856SOL    HW241499   3.237   5.792   5.343  0.2820  0.9846  1.0512
43857SOL     OW41500   0.171   5.033  12.108  0.4961 -0.4377 -0.0268
43857SOL    HW141501   0.214   4.953  12.140 -0.0423 -0.3400  1.0077
43857SOL    HW241502   0.081   5.027  12.142  0.1822  0.1655 -0.7246
43858SOL     OW41503   9.389   9.837   9.518  0.3302 -0.6815 -0.5150
43858SOL    HW141504   9.422   9.801   9.600  0.7221 -1.0811 -0.8450
43858SOL    HW241505   9.458   9.820   9.454  0.3969  0.3796 -0.7460
43859SOL     OW41506   2.980   1.648   8.034 -0.2709  0.2131 -0.1947
43859SOL    HW141507   3.003   1.704   8.109 -0.6029  0.5192 -0.3198
43859SOL    HW241508   2.904   1.598   8.064 -0.4500  0.3903 -0.3580
43860SOL     OW41509   6.100   3.888   1.267 -0.2838  0.3165 -0.6699
43860SOL    HW141510   6.127   3.886   1.358 -1.0056  0.7286 -0.4428
43860SOL    HW241511   6.055   3.971   1.256 -0.5719  0.0891 -1.2952
43861SOL     OW41512  12.423  11.644  11.038 -0.3144 -0.1912  0.4460
43861SOL    HW141513  12.406  11.560  11.081 -0.4861 -0.1066  0.5434
43861SOL    HW241514  12.418  11.625  10.945  1.4776 -0.6875  0.4127
43862SOL     OW41515   0.912  10.198   7.524 -0.3104  0.3552 -0.4214
43862SOL    HW141516   0.849  10.241   7.582  0.2734  0.0226  0.4699
43862SOL    HW241517   0.869  10.117   7.498 -0.2066  0.0674  0.2875
43863SOL     OW41518   2.882  10.084   2.069 -0.3670 -0.0301 -0.2771
43863SOL    HW141519   2.851  10.142   2.000  1.9370  1.2026 -0.3534
43863SOL    HW241520   2.891  10.141   2.146 -1.5909 -1.0955  0.7016
43864SOL     OW41521   7.419   7.295  12.744 -0.7648  0.3647 -0.4821
43864SOL    HW141522   7.413   7.382  12.781 -0.2057 -0.1597  0.9183
43864SOL    HW241523   7.453   7.240  12.816  0.6459 -0.6440 -1.8362
43865SOL     OW41524   5.848  11.289   0.414 -0.2923 -0.5384 -0.0401
43865SOL    HW141525   5.772  11.310   0.360  0.1780 -0.0219 -0.5038
43865SOL    HW241526   5.817  11.219   0.472 -2.6002  2.7212  3.1077
43866SOL     OW41527   8.177   8.125  11.686 -0.2327  0.5155 -0.1521
43866SOL    HW141528   8.243   8.110  11.618 -0.0758  0.0519  0.0909
43866SOL    HW241529   8.228   8.136  11.767 -0.4762 -1.7728  0.3823
43867SOL     OW41530   9.924   8.915   7.454 -0.1947 -0.5298  0.3216
43867SOL    HW141531   9.995   8.950   7.508 -0.9745  0.3654  0.7929
43867SOL    HW241532   9.963   8.903   7.368 -0.4407  3.9666 -0.6288
43868SOL     OW41533   7.441  10.054   3.772  0.2495  0.2176  0.6684
43868SOL    HW141534   7.427   9.964   3.801 -0.0239  0.2843  0.7499
43868SOL    HW241535   7.355  10.096   3.781  0.7849  1.0355  2.4837
43869SOL     OW41536  10.529   3.012   0.879 -0.7075  0.7520 -0.1475
43869SOL    HW141537  10.528   3.107   0.869  1.6667  0.5805 -3.3690
43869SOL    HW241538  10.599   2.996   0.943  1.0226  1.1518 -1.8549
43870SOL     OW41539  10.347   9.061   5.481 -1.0424  0.3353  0.4320
43870SOL    HW141540  10.418   9.085   5.421 -2.2935  1.1537 -0.7832
43870SOL    HW241541  10.352   9.127   5.550 -0.3047  0.0745  0.6388
43871SOL     OW41542   8.572   6.060   5.044 -0.1270  0.4776 -0.1532
43871SOL    HW141543   8.580   6.036   5.136  0.5701  2.5323  0.3712
43871SOL    HW241544   8.560   6.155   5.045 -0.9556  0.4467 -2.1556
43872SOL     OW41545  10.371   0.188   4.921  0.6133 -0.6042 -0.3942
43872SOL    HW141546  10.282   0.188   4.886 -0.5547 -2.0688  2.2657
43872SOL    HW241547  10.365   0.238   5.002  2.6726  0.7365 -0.9948
43873SOL     OW41548   3.686  11.698  11.764 -0.2011  0.5648 -0.3409
43873SOL    HW141549   3.603  11.746  11.767 -1.3650 -1.4218  1.2691
43873SOL    HW241550   3.735  11.731  11.839 -1.3530 -1.2629  1.2802
43874SOL     OW41551   0.401   8.092   0.741 -0.3004 -0.3210 -0.3471
43874SOL    HW141552   0.374   8.051   0.823 -1.3983  2.5580  0.8863
43874SOL    HW241553   0.323   8.090   0.685 -0.0497 -0.7978 -0.6866
43875SOL     OW41554   5.968   9.021   5.800  0.6263 -0.4121 -0.7263
43875SOL    HW141555   6.046   9.077   5.795 -0.8478  1.7586 -0.4188
43875SOL    HW241556   5.959   9.002   5.893  0.9365 -0.9363 -0.7959
43876SOL     OW41557   9.429   5.173   1.427  0.2314 -1.0327  0.0013
43876SOL    HW141558   9.432   5.086   1.465 -0.9452 -0.8435  0.5902
43876SOL    HW241559   9.497   5.222   1.474  2.0640 -2.0342 -1.4999
43877SOL     OW41560   2.763  12.145  10.954  0.1438  0.2068  0.2586
43877SOL    HW141561   2.704  12.128  10.881  0.2138  0.4135  0.1542
43877SOL    HW241562   2.850  12.123  10.920  0.1884  0.4055  0.2480
43878SOL     OW41563   7.414   0.597  12.887  0.0435 -0.7679 -0.3139
43878SOL    HW141564   7.447   0.511  12.912  2.7336  0.4129  0.4742
43878SOL    HW241565   7.409   0.594  12.791 -1.1503 -2.1757 -0.2421
43879SOL     OW41566   2.494  10.761   6.341 -0.1565  0.0377  0.0386
43879SOL    HW141567   2.439  10.839   6.330  0.6951  0.8260  1.1300
43879SOL    HW241568   2.525  10.741   6.253  1.5710  2.4311 -0.0146
43880SOL     OW41569   5.626   6.704  10.325  0.1495 -0.2399  0.4075
43880SOL    HW141570   5.570   6.646  10.376  0.3594 -0.8937 -0.0995
43880SOL    HW241571   5.714   6.688  10.358  0.1400  0.1984  0.6495
43881SOL     OW41572   2.930   2.594   3.369 -0.7150 -0.3219 -0.3595
43881SOL    HW141573   2.861   2.641   3.418 -1.1143 -1.4427  0.1915
43881SOL    HW241574   2.944   2.647   3.291 -1.8543  0.1973 -0.2363
43882SOL     OW41575   9.932   2.597   0.715 -0.5365  0.2004 -0.1745
43882SOL    HW141576   9.915   2.669   0.776  1.2615  1.2775 -0.8481
43882SOL    HW241577  10.027   2.584   0.720 -0.7217 -1.6119 -0.6678
43883SOL     OW41578  11.912  12.013   4.900  0.1022  0.1166 -0.1033
43883SOL    HW141579  11.880  11.951   4.965  0.0886 -0.5120 -0.6961
43883SOL    HW241580  11.838  12.071   4.882 -0.4211 -0.7475 -0.7832
43884SOL     OW41581   2.273   8.991   4.972 -0.3605  0.4263 -0.2608
43884SOL    HW141582   2.326   8.941   5.035 -1.3521 -0.0405  0.2158
43884SOL    HW241583   2.201   8.932   4.949  0.0661  0.5135 -1.9860
43885SOL     OW41584   8.081  12.809   7.625 -0.3082 -0.4999 -0.4485
43885SOL    HW141585   7.987  12.813   7.644  0.1195  0.4740  1.8929
43885SOL    HW241586   8.095  12.721   7.591 -2.0598 -0.6587 -0.8799
43886SOL     OW41587   1.077   9.048   1.795 -0.5063 -0.0043 -0.1604
43886SOL    HW141588   1.123   9.055   1.712  0.6689  0.5398  0.5079
43886SOL    HW241589   1.041   8.959   1.795 -0.0134 -0.2131 -0.9869
43887SOL     OW41590  10.745   5.805   7.443 -0.0199  0.4283 -0.1201
43887SOL    HW141591  10.726   5.880   7.498  0.3485 -0.4094  1.1865
43887SOL    HW241592  10.662   5.757   7.438 -0.3567  1.0805 -1.2630
43888SOL     OW41593   8.510   6.663  11.393  0.4364  0.2126  0.6733
43888SOL    HW141594   8.439   6.674  11.456  1.6880 -0.7420  2.3576
43888SOL    HW241595   8.535   6.752  11.368 -2.2466  0.5803 -1.1407
43889SOL     OW41596  13.220   9.958  10.728 -0.1784 -0.0788 -0.0919
43889SOL    HW141597  13.193   9.868  10.746 -0.6098  0.1142  0.2502
43889SOL    HW241598  13.304   9.967  10.775 -0.1348 -0.3018 -0.1265
43890SOL     OW41599   6.102   9.733   1.958 -0.0005  0.4928 -0.0292
43890SOL    HW141600   6.140   9.788   2.027 -0.1881 -0.1257  0.5726
43890SOL    HW241601   6.032   9.684   2.001  0.6564 -0.7881 -0.3683
43891SOL     OW41602  11.740   9.811   1.112 -0.0776 -0.0188 -0.5409
43891SOL    HW141603  11.807   9.857   1.061 -0.8315  1.1139 -0.5463
43891SOL    HW241604  11.692   9.881   1.156 -0.6582 -0.8740  0.2085
43892SOL     OW41605   2.108  12.873   9.785 -0.0128  0.2227  0.4778
43892SOL    HW141606   2.167  12.801   9.763 -0.4744  0.0094 -0.1209
43892SOL    HW241607   2.137  12.946   9.730  1.5660  1.0808  2.3486
43893SOL     OW41608   4.584   0.079   5.210  0.7492  0.7970  0.2362
43893SOL    HW141609   4.521   0.022   5.166 -0.2561  2.0887 -0.0775
43893SOL    HW241610   4.547   0.092   5.298  0.1743  2.0896 -0.1622
43894SOL     OW41611  12.419  11.734   6.936 -0.2102 -0.8898  0.0679
43894SOL    HW141612  12.361  11.663   6.963 -0.6509 -0.5044  0.1409
43894SOL    HW241613  12.455  11.767   7.019  1.0341 -1.8856 -0.0394
43895SOL     OW41614   7.054   1.795   4.150  0.4775 -0.2831  0.7802
43895SOL    HW141615   7.118   1.765   4.215  0.7106 -0.4307  0.4855
43895SOL    HW241616   7.007   1.716   4.124  1.6203 -0.5489 -0.5760
43896SOL     OW41617   1.459   2.234   4.325 -1.1651  0.0937 -0.0795
43896SOL    HW141618   1.447   2.214   4.418  0.0135 -0.2807  0.0028
43896SOL    HW241619   1.444   2.151   4.280 -2.6512  0.4635 -0.3378
43897SOL     OW41620  12.444  12.302  10.245  0.3817 -0.3798 -0.0352
43897SOL    HW141621  12.405  12.239  10.184  1.4358 -1.1121  0.0197
43897SOL    HW241622  12.509  12.348  10.192 -1.0942  1.4659 -0.3706
43898SOL     OW41623   1.746  10.178   0.160  0.2946  0.0941 -0.4098
43898SOL    HW141624   1.795  10.122   0.100 -0.3734  2.4630 -3.3802
43898SOL    HW241625   1.681  10.120   0.200  2.8131 -2.2299  0.5890
43899SOL     OW41626   3.619   4.805   3.087  0.5213  0.6697  0.1010
43899SOL    HW141627   3.625   4.867   3.014  2.0265  0.5969  0.1127
43899SOL    HW241628   3.710   4.794   3.116  0.0909 -0.2394  1.2050
43900SOL     OW41629  11.433   4.902   5.139  0.5835 -1.1815 -0.3762
43900SOL    HW141630  11.363   4.863   5.190 -1.5428  2.2518 -0.3344
43900SOL    HW241631  11.394   4.917   5.052  1.5091 -0.0036 -0.6248
43901SOL     OW41632  11.777   3.628   1.331 -0.2851 -0.4797 -0.5485
43901SOL    HW141633  11.766   3.558   1.267  1.1073 -2.8402  1.5931
43901SOL    HW241634  11.853   3.678   1.300  1.8275 -2.9710  0.2701
43902SOL     OW41635  12.044   8.893   7.044  0.2669  0.7903  0.4291
43902SOL    HW141636  12.129   8.868   7.007 -0.5138 -0.1866 -0.7780
43902SOL    HW241637  12.057   8.889   7.139  0.8743 -1.9748  0.3230
43903SOL     OW41638   8.342  10.561  13.176 -0.6858  0.3072 -0.2461
43903SOL    HW141639   8.322  10.598  13.090 -3.2803  0.9443  0.5322
43903SOL    HW241640   8.298  10.620  13.237  1.5916  0.2250  1.6266
43904SOL     OW41641  11.227   5.012   7.561  0.4635 -0.0058 -0.3908
43904SOL    HW141642  11.321   4.998   7.569  0.3926 -1.0959 -1.2667
43904SOL    HW241643  11.189   4.962   7.632  0.3077 -3.3765 -2.6337
43905SOL     OW41644  10.847   4.180   1.726 -0.1825 -0.1696  0.3025
43905SOL    HW141645  10.757   4.194   1.753  0.8635  2.0354  3.1292
43905SOL    HW241646  10.893   4.156   1.806  2.1215  0.9385 -0.5893
43906SOL     OW41647  13.143   0.638   0.439 -0.3012  0.0882  0.3891
43906SOL    HW141648  13.095   0.562   0.406 -1.4687  1.2675 -0.7548
43906SOL    HW241649  13.235   0.613   0.432 -0.3849  0.1742 -3.9460
43907SOL     OW41650  12.738  13.183   5.073  0.3324  0.1815  0.5978
43907SOL    HW141651  12.833  13.178   5.083  0.4223 -1.7697 -0.5637
43907SOL    HW241652  12.708  13.094   5.089 -1.3240  0.7708  0.9635
43908SOL     OW41653   2.916   0.810   0.039  0.2346  0.3859 -0.3009
43908SOL    HW141654   2.978   0.737   0.037  0.9152  0.9346  0.3369
43908SOL    HW241655   2.932   0.857  -0.044  2.0914  1.6401  0.6706
43909SOL     OW41656   0.459   5.807   6.071 -0.1922 -0.0891 -0.5071
43909SOL    HW141657   0.399   5.881   6.068  2.7925  2.5756  0.4302
43909SOL    HW241658   0.436   5.761   6.152 -1.8480 -0.0355 -0.9150
43910SOL     OW41659   6.598   1.227   3.102 -0.4301 -0.0857  0.6338
43910SOL    HW141660   6.563   1.313   3.126  1.1167  0.3763  1.3520
43910SOL    HW241661   6.521   1.175   3.079 -1.4782  1.1816  1.1785
43911SOL     OW41662   2.198   8.865   8.221  0.1339 -0.2635  0.2486
43911SOL    HW141663   2.160   8.835   8.304 -0.4447 -2.3066 -0.6856
43911SOL    HW241664   2.141   8.829   8.154  1.7793 -0.4739 -1.1173
43912SOL     OW41665  10.966   8.978   4.172  0.1242  0.1169 -0.4631
43912SOL    HW141666  11.012   9.062   4.178 -1.2505  0.8030  1.4824
43912SOL    HW241667  11.012   8.922   4.234 -0.3505  0.1589 -0.0690
43913SOL     OW41668   4.095  10.910   7.288  0.5394 -0.7685 -0.0103
43913SOL    HW141669   4.087  10.971   7.214 -1.3340  1.4470  1.8596
43913SOL    HW241670   4.028  10.844   7.271  1.1279 -1.1377 -0.9956
43914SOL     OW41671  11.674   4.952   3.249  0.2612 -0.5766 -0.4516
43914SOL    HW141672  11.737   5.023   3.247  0.8048 -1.0637 -0.7390
43914SOL    HW241673  11.589   4.995   3.236  0.6921 -0.1109 -1.9785
43915SOL     OW41674   5.030   9.265   3.061  0.2642 -0.5549  0.7768
43915SOL    HW141675   5.125   9.261   3.077  1.4913  1.7024 -4.1817
43915SOL    HW241676   5.004   9.352   3.094  1.2120  0.9910 -2.1721
43916SOL     OW41677   4.107   2.980   6.145  0.7983 -0.6572  0.3222
43916SOL    HW141678   4.116   2.920   6.071 -0.2776  1.2833 -1.5387
43916SOL    HW241679   4.194   2.985   6.183  1.6718 -0.9577 -1.5015
43917SOL     OW41680   5.495   9.957   2.734  0.9745 -0.4176  0.2797
43917SOL    HW141681   5.481  10.052   2.725  0.4482 -0.4576  0.5933
43917SOL    HW241682   5.452   9.935   2.817  0.1909 -1.1001 -0.2883
43918SOL     OW41683   4.217   6.933  11.130  0.4802  0.4573  0.0589
43918SOL    HW141684   4.150   6.988  11.089  0.7223 -0.3596 -1.5307
43918SOL    HW241685   4.273   6.906  11.057  1.1048 -0.8501  0.9923
43919SOL     OW41686  12.721   7.384   7.109  0.1375  0.3081  0.4382
43919SOL    HW141687  12.649   7.409   7.166  0.5358 -0.8290  1.4909
43919SOL    HW241688  12.710   7.290   7.097 -0.1829  0.5728 -1.7497
43920SOL     OW41689   4.357   7.089   7.506  0.6567  0.2834 -0.1276
43920SOL    HW141690   4.408   7.168   7.523  0.5984  0.3479 -0.2556
43920SOL    HW241691   4.307   7.108   7.427  2.8269 -0.9020 -1.9128
43921SOL     OW41692   3.920   6.350   7.513  0.0959 -0.1754  0.7323
43921SOL    HW141693   3.874   6.287   7.568  1.4245 -0.5544  1.4632
43921SOL    HW241694   3.876   6.434   7.529 -0.0224 -0.4291  1.7821
43922SOL     OW41695  13.085   9.083   2.716 -0.1677 -0.7818  0.3146
43922SOL    HW141696  13.036   9.018   2.767  0.0952 -0.3823  1.0933
43922SOL    HW241697  13.135   9.132   2.781 -0.6603  0.4576 -0.2128
43923SOL     OW41698  12.695  10.318  12.658 -0.2143 -0.1723  0.7800
43923SOL    HW141699  12.649  10.235  12.665 -0.4254 -0.0878  0.3792
43923SOL    HW241700  12.627  10.382  12.639  0.1166 -0.1060 -0.2041
43924SOL     OW41701   3.740  10.862   3.592 -0.1984  0.1343  0.4488
43924SOL    HW141702   3.807  10.794   3.602 -0.7103 -0.7200 -1.4093
43924SOL    HW241703   3.765  10.929   3.656  2.2412 -0.3107  0.0894
43925SOL     OW41704   8.091   5.117  12.566 -0.0288 -0.1910 -0.2687
43925SOL    HW141705   8.185   5.131  12.551 -0.1072 -1.0469 -1.7635
43925SOL    HW241706   8.077   5.025  12.544 -1.0547 -0.3460  0.9399
43926SOL     OW41707  11.745   6.612   3.167  0.4219 -0.6503  0.2073
43926SOL    HW141708  11.727   6.520   3.150 -1.8799  0.1080 -2.2128
43926SOL    HW241709  11.802   6.640   3.096  3.3847 -0.6821  2.3868
43927SOL     OW41710   9.302  10.682   8.586 -0.0612 -0.0665 -0.0260
43927SOL    HW141711   9.295  10.766   8.631  0.4385  0.6407 -1.2362
43927SOL    HW241712   9.380  10.689   8.532  0.1922 -1.4511  0.1195
43928SOL     OW41713  10.380   9.643  13.148 -0.4256  0.5154  0.0241
43928SOL    HW141714  10.356   9.629  13.240 -0.1422 -0.2674 -0.0157
43928SOL    HW241715  10.297   9.635  13.100 -0.4690  0.2418  0.1427
43929SOL     OW41716   9.192  12.147  10.985 -0.0719 -0.4668  0.0985
43929SOL    HW141717   9.121  12.211  10.979 -0.1129 -0.6221 -1.7324
43929SOL    HW241718   9.169  12.079  10.921  1.5577 -0.6716 -0.3239
43930SOL     OW41719  11.003  11.154   9.407  0.1420 -0.0444  0.3246
43930SOL    HW141720  11.009  11.084   9.472 -0.1487  0.4598  0.9027
43930SOL    HW241721  10.955  11.114   9.334 -1.6031  0.0495  1.3703
43931SOL     OW41722   8.157   5.557  12.882  0.1184 -0.8072 -0.0945
43931SOL    HW141723   8.203   5.551  12.798 -0.8789 -1.3495 -0.6089
43931SOL    HW241724   8.078   5.504  12.871  1.2467 -3.1578  2.0472
43932SOL     OW41725   3.497   1.959   0.355  0.4074 -0.3457  0.2608
43932SOL    HW141726   3.480   1.870   0.324 -1.5051 -0.4547  1.4569
43932SOL    HW241727   3.571   1.989   0.302 -0.2037 -1.9005 -1.5802
43933SOL     OW41728   4.174  10.721  13.138 -0.0559  0.1804 -0.1646
43933SOL    HW141729   4.161  10.811  13.109 -1.4480 -0.2208 -0.9043
43933SOL    HW241730   4.226  10.728  13.218  1.0474  1.5435 -0.9440
43934SOL     OW41731   6.768   1.863   8.692 -0.6803  0.1402  0.3936
43934SOL    HW141732   6.777   1.821   8.606 -0.0979 -0.8526  0.9235
43934SOL    HW241733   6.833   1.819   8.747 -0.9588  0.8564  1.3131
43935SOL     OW41734   3.064   0.675   2.096  0.4446 -0.3116  0.4344
43935SOL    HW141735   3.049   0.651   2.005  2.3502  1.4683 -0.4281
43935SOL    HW241736   2.983   0.719   2.123 -0.6491 -2.0059  0.0828
43936SOL     OW41737   3.329   9.360  12.459 -0.0647 -0.3015 -0.4483
43936SOL    HW141738   3.243   9.387  12.493 -0.0499 -0.8657  0.0591
43936SOL    HW241739   3.328   9.264  12.465  1.0580 -0.2624  0.7023
43937SOL     OW41740   1.249  10.657   6.678 -0.6170  0.1064  0.2406
43937SOL    HW141741   1.309  10.720   6.639 -0.8126  0.8981  1.1801
43937SOL    HW241742   1.203  10.618   6.603 -0.7895  1.3755 -0.3444
43938SOL     OW41743   5.548   9.118   5.718  0.2651  0.0143 -0.2175
43938SOL    HW141744   5.602   9.050   5.758 -0.4613 -1.6506 -1.8927
43938SOL    HW241745   5.567   9.197   5.769  1.8680 -1.2055  1.2083
43939SOL     OW41746   9.837   9.161   6.210 -0.4010  0.5597 -0.0860
43939SOL    HW141747   9.918   9.132   6.252 -0.6607  1.2022  0.8963
43939SOL    HW241748   9.847   9.256   6.202 -1.8786  0.9567  1.9729
43940SOL     OW41749   9.373  12.193   5.025  0.4228 -0.3011  0.1852
43940SOL    HW141750   9.403  12.128   5.089  0.0784 -1.1595 -0.5093
43940SOL    HW241751   9.293  12.229   5.064  0.2803 -0.7316  0.2919
43941SOL     OW41752   0.787   8.722   2.474  0.1539 -0.6608  0.3085
43941SOL    HW141753   0.780   8.709   2.569 -0.1473  1.0799  0.5660
43941SOL    HW241754   0.726   8.794   2.456  2.5386  1.2296 -0.6644
43942SOL     OW41755   7.971   3.208   7.932  0.8013 -0.3623  0.2973
43942SOL    HW141756   8.001   3.298   7.929 -0.4086  0.0669  0.3835
43942SOL    HW241757   7.959   3.183   7.840 -1.1587  0.3991  0.3054
43943SOL     OW41758  11.584  12.925  12.508 -0.2998 -0.0100  0.5925
43943SOL    HW141759  11.535  12.946  12.429  0.2455 -0.0326  0.2418
43943SOL    HW241760  11.559  12.992  12.571  1.1400  1.4948 -0.3874
43944SOL     OW41761   3.537  12.231   3.668 -0.0638 -0.1549  0.1719
43944SOL    HW141762   3.616  12.275   3.636  0.7318 -1.5194  0.1377
43944SOL    HW241763   3.552  12.220   3.762 -0.4765  0.0918  0.2667
43945SOL     OW41764   4.418   7.714   9.619 -0.8004  0.2456  0.4512
43945SOL    HW141765   4.452   7.626   9.636 -0.1652 -0.1083 -2.1510
43945SOL    HW241766   4.427   7.760   9.702  0.6629 -1.5947  1.3879
43946SOL     OW41767  10.356  13.262   9.633  0.3508 -0.6380  0.7276
43946SOL    HW141768  10.411  13.185   9.624  0.5382 -0.4590  0.3386
43946SOL    HW241769  10.409  13.324   9.683  1.4168  0.3904 -1.5475
43947SOL     OW41770   5.326  11.771   0.329  0.1928 -0.6510 -0.1801
43947SOL    HW141771   5.298  11.741   0.415 -1.8929 -0.8344 -0.8469
43947SOL    HW241772   5.250  11.820   0.295  1.3387  0.2908 -1.5002
43948SOL     OW41773   9.934   1.188   0.329 -0.4901  0.2460 -0.8777
43948SOL    HW141774   9.971   1.195   0.417 -0.5357  1.5574 -0.9508
43948SOL    HW241775   9.839   1.198   0.342 -0.6355 -0.8383 -0.9519
43949SOL     OW41776  11.505   3.784  12.544  0.1466  0.3308 -0.3571
43949SOL    HW141777  11.498   3.689  12.540  0.2869  0.1189  2.3225
43949SOL    HW241778  11.598   3.800  12.560 -0.1056  0.7795  0.7794
43950SOL     OW41779   6.572  11.456  11.760  0.1952  0.4213  0.8676
43950SOL    HW141780   6.624  11.535  11.744 -1.3229  1.0027 -1.8059
43950SOL    HW241781   6.580  11.405  11.679 -1.8813 -0.3511  1.0791
43951SOL     OW41782   6.005   2.620   2.528 -0.2355 -0.0750 -0.0018
43951SOL    HW141783   6.006   2.588   2.618 -0.6830 -2.6745 -0.8268
43951SOL    HW241784   6.057   2.700   2.530  1.8042 -1.3404  2.1266
43952SOL     OW41785   3.795   7.060   9.429 -0.1318 -0.2089  0.9729
43952SOL    HW141786   3.785   6.971   9.393  0.8505  0.8226 -2.2423
43952SOL    HW241787   3.716   7.106   9.401 -0.2107  0.1705  1.8105
43953SOL     OW41788  10.059   9.195   1.976  0.6976  0.3712  0.4329
43953SOL    HW141789  10.000   9.159   2.042  1.6792 -2.6127 -0.1756
43953SOL    HW241790  10.038   9.146   1.896  1.9301  1.4290 -0.5846
43954SOL     OW41791   5.102   3.333   9.461 -0.8190  0.1620 -0.1605
43954SOL    HW141792   5.078   3.421   9.434  0.5514  0.8449  0.7725
43954SOL    HW241793   5.120   3.340   9.555  0.7855 -0.7711 -0.3723
43955SOL     OW41794   6.690   4.844   0.835  0.2608  0.1958  0.8054
43955SOL    HW141795   6.641   4.872   0.759  0.5183 -1.8903 -0.2041
43955SOL    HW241796   6.779   4.828   0.802  1.1452  1.9369  2.1635
43956SOL     OW41797   6.130   5.503  12.749  0.2117  0.1774 -0.0007
43956SOL    HW141798   6.130   5.456  12.666  1.8137  0.0104  0.0611
43956SOL    HW241799   6.077   5.581  12.733 -1.7046 -1.1283 -0.3725
43957SOL     OW41800   5.635   5.226   3.580  0.4046  0.6873 -0.0683
43957SOL    HW141801   5.692   5.187   3.646 -0.2673  0.6935  0.5297
43957SOL    HW241802   5.587   5.153   3.543  0.1374  0.7844  0.0831
43958SOL     OW41803   3.052   6.449   1.660 -0.1519  0.5113  0.6756
43958SOL    HW141804   3.038   6.534   1.618  1.1626  0.8563  0.8809
43958SOL    HW241805   2.964   6.416   1.679 -0.7746  0.7015 -1.5958
43959SOL     OW41806   6.552   3.151   5.495 -0.9505  0.5564 -0.3394
43959SOL    HW141807   6.559   3.059   5.471  1.8287  0.6445 -0.2114
43959SOL    HW241808   6.553   3.198   5.411  2.3133  0.5734 -0.4327
43960SOL     OW41809   6.342   3.420   8.263 -0.1829  0.0623  0.0298
43960SOL    HW141810   6.251   3.390   8.269  0.1446 -0.9895 -0.0316
43960SOL    HW241811   6.381   3.395   8.347 -0.0334  0.8407  0.2016
43961SOL     OW41812   4.238   2.314   6.244  0.3113 -0.1670  0.0104
43961SOL    HW141813   4.233   2.293   6.338 -0.8286 -0.0062 -0.0021
43961SOL    HW241814   4.252   2.409   6.241 -0.8417  0.0136  0.0189
43962SOL     OW41815   5.919   7.986  10.911 -0.5158 -0.0215  0.2960
43962SOL    HW141816   5.921   8.067  10.961 -0.6749  0.3735 -0.3192
43962SOL    HW241817   6.010   7.972  10.885  0.2676 -2.0890  3.5391
43963SOL     OW41818  11.119  13.059   4.185  0.5321  0.2406  0.1824
43963SOL    HW141819  11.139  13.152   4.189 -1.8759  0.7954  0.6384
43963SOL    HW241820  11.079  13.046   4.098 -0.4293 -0.0548  0.6525
43964SOL     OW41821  12.337   8.768  11.055 -0.1979  0.0529 -0.0431
43964SOL    HW141822  12.411   8.708  11.043 -0.6031 -0.6337  0.7819
43964SOL    HW241823  12.348   8.801  11.144 -1.2029 -0.5186  0.3089
43965SOL     OW41824   9.930  12.354  11.344  0.3980  0.3451 -0.0216
43965SOL    HW141825   9.931  12.345  11.248 -0.5930  1.5366 -0.1689
43965SOL    HW241826   9.889  12.273  11.375 -0.6049  0.5758 -0.7066
43966SOL     OW41827   9.872   3.414  12.147 -0.2726 -0.3872  0.1594
43966SOL    HW141828   9.956   3.439  12.108 -0.3477 -1.6645 -0.9194
43966SOL    HW241829   9.893   3.340  12.204 -0.7090 -0.9895 -0.4449
43967SOL     OW41830  12.996  10.226  11.451  0.0643  0.4450 -0.0012
43967SOL    HW141831  13.028  10.280  11.379  2.2098 -1.6174 -0.6960
43967SOL    HW241832  12.938  10.162  11.409  0.3107  0.0237  0.2994
43968SOL     OW41833   5.488   7.570  11.143  0.7067  0.6994 -0.3112
43968SOL    HW141834   5.476   7.477  11.126  0.3832  0.3660  1.4513
43968SOL    HW241835   5.445   7.614  11.070 -1.0602 -0.5522 -0.1089
43969SOL     OW41836   4.814   4.189  11.075 -0.2955 -0.6854 -0.3185
43969SOL    HW141837   4.775   4.113  11.031  0.1193 -1.8141  1.1789
43969SOL    HW241838   4.879   4.152  11.134  1.4953  1.0096 -1.1202
43970SOL     OW41839   2.577   0.837   0.946  0.1392  0.2749 -0.0579
43970SOL    HW141840   2.545   0.896   1.014  0.8478  0.9798 -0.3238
43970SOL    HW241841   2.668   0.820   0.969  1.0082  2.0607 -1.8056
43971SOL     OW41842   8.146  11.391   8.796 -0.1957 -0.0124 -0.2641
43971SOL    HW141843   8.132  11.457   8.864  0.8927 -1.6385  1.6204
43971SOL    HW241844   8.058  11.364   8.771 -0.6310  1.3417 -0.2826
43972SOL     OW41845   3.958   4.887   1.243 -0.3518  0.2761 -0.2413
43972SOL    HW141846   3.949   4.911   1.151  1.7301  2.4625  0.0217
43972SOL    HW241847   3.872   4.905   1.282 -0.8744  0.5591 -1.5004
43973SOL     OW41848  10.496   1.828   5.472  0.0015 -0.7611  0.3882
43973SOL    HW141849  10.494   1.920   5.446 -2.3789 -0.5023  1.2614
43973SOL    HW241850  10.546   1.785   5.402  0.6768  1.0816 -0.3299
43974SOL     OW41851   7.013   8.878  11.913 -0.3480  0.0903  0.3050
43974SOL    HW141852   7.094   8.905  11.956 -0.5162 -1.1742  1.5129
43974SOL    HW241853   6.960   8.957  11.909  1.3742  1.2697 -1.6890
43975SOL     OW41854   7.044   0.594   1.117 -0.4461  0.0901 -0.3357
43975SOL    HW141855   7.111   0.590   1.185 -0.0781  0.3508 -0.6790
43975SOL    HW241856   6.968   0.634   1.160  0.1638  1.3199 -0.3813
43976SOL     OW41857   5.938   0.896   4.451  0.2257  0.4862 -0.1431
43976SOL    HW141858   6.026   0.934   4.447  0.0614  0.7948 -0.9226
43976SOL    HW241859   5.953   0.804   4.472  0.5909  1.1320  2.8943
43977SOL     OW41860   1.167  12.745  11.456  0.0796  0.3840 -0.2499
43977SOL    HW141861   1.170  12.841  11.452 -2.8716  0.5428 -2.8658
43977SOL    HW241862   1.113  12.726  11.532  0.4963  0.8021  0.1558
43978SOL     OW41863   2.729   7.429   4.297 -0.2689 -0.2022  0.2706
43978SOL    HW141864   2.739   7.356   4.358  1.6206  1.8081  2.5495
43978SOL    HW241865   2.776   7.401   4.218  3.5624 -0.2493  2.3579
43979SOL     OW41866   2.039   7.875   6.217  0.0899  0.1058  0.4144
43979SOL    HW141867   1.990   7.824   6.280 -2.0661  3.6766  1.9486
43979SOL    HW241868   2.112   7.913   6.267 -0.7090  1.6864  0.4500
43980SOL     OW41869   4.785   5.524   5.450 -0.5317  0.8158  0.1731
43980SOL    HW141870   4.867   5.483   5.423 -0.9676  0.8534 -1.2728
43980SOL    HW241871   4.787   5.611   5.411 -0.1328  1.8087  2.2751
43981SOL     OW41872   1.090   1.866   2.703  0.3982  0.3315  0.1006
43981SOL    HW141873   1.180   1.872   2.670  0.2030  2.7524 -0.1759
43981SOL    HW241874   1.094   1.803   2.774  1.9969 -0.7268 -0.8657
43982SOL     OW41875  12.773   7.103   8.743  0.3589  0.1594  0.0298
43982SOL    HW141876  12.723   7.182   8.724 -1.7675 -1.2768 -0.6328
43982SOL    HW241877  12.733   7.067   8.823 -0.8024 -1.8224 -1.3550
43983SOL     OW41878  12.388   0.930   1.887 -0.1227 -0.5986 -0.0980
43983SOL    HW141879  12.348   0.844   1.876 -0.5994 -0.5002  0.8023
43983SOL    HW241880  12.335   0.988   1.833 -1.8265 -0.2996  1.7865
43984SOL     OW41881  12.542   5.729   6.989  0.5372  0.2356  0.3120
43984SOL    HW141882  12.570   5.667   7.057 -0.7173 -2.7867 -1.7057
43984SOL    HW241883  12.600   5.710   6.915 -1.0187  0.1603 -0.9445
43985SOL     OW41884   7.185   0.753  11.235 -0.1378  0.2609 -0.1266
43985SOL    HW141885   7.176   0.786  11.324  1.0164  0.5869 -0.1147
43985SOL    HW241886   7.148   0.664  11.238  2.2461 -0.7686  1.3416
43986SOL     OW41887   3.437  12.646   4.161  0.0608 -0.5799 -0.1348
43986SOL    HW141888   3.529  12.619   4.149  0.3423 -0.3833  1.4597
43986SOL    HW241889   3.442  12.732   4.201 -0.8091 -1.0840  1.1097
43987SOL     OW41890   8.455   6.075   3.112 -0.1829  0.1559  0.4009
43987SOL    HW141891   8.499   6.001   3.154 -0.6989 -0.0341  0.6104
43987SOL    HW241892   8.363   6.064   3.136 -0.2137  1.0444  0.6961
43988SOL     OW41893   4.746  10.522   3.302 -0.4904 -0.1476 -0.0973
43988SOL    HW141894   4.729  10.516   3.396 -1.7342  1.6034 -0.1635
43988SOL    HW241895   4.818  10.460   3.287  1.1683  1.0147  2.3482
43989SOL     OW41896   1.883   0.259  10.117 -0.6975  0.6039  0.2135
43989SOL    HW141897   1.965   0.237  10.161 -0.7603 -0.4480 -0.1607
43989SOL    HW241898   1.818   0.262  10.187 -0.2328  2.1759  0.6179
43990SOL     OW41899   7.177  11.573  12.614 -0.0821  0.3271  0.1031
43990SOL    HW141900   7.178  11.606  12.524  0.6608 -0.0145 -0.0223
43990SOL    HW241901   7.257  11.520  12.621 -0.4653 -0.1801  0.7638
43991SOL     OW41902   1.314  10.428   2.304  0.0547  0.3508  0.2600
43991SOL    HW141903   1.340  10.340   2.277  0.8666  0.9596 -1.0258
43991SOL    HW241904   1.285  10.417   2.395 -2.0731 -1.6424 -0.5616
43992SOL     OW41905   2.799   2.436   4.384  0.3080  0.2188  0.2180
43992SOL    HW141906   2.849   2.365   4.424 -0.2882 -1.3391 -1.5909
43992SOL    HW241907   2.863   2.484   4.332  0.2378 -0.9388 -1.0075
43993SOL     OW41908   9.884  11.234   3.978  0.0495  0.3110  1.1636
43993SOL    HW141909   9.959  11.289   3.954  0.8239 -1.7224 -1.5908
43993SOL    HW241910   9.901  11.211   4.070  2.1288  0.9584  1.0085
43994SOL     OW41911   0.622   3.994   2.421  0.2541 -0.2385  0.2680
43994SOL    HW141912   0.684   3.991   2.494  0.4031  0.6924  0.1847
43994SOL    HW241913   0.674   3.969   2.345  0.3826 -0.0549  0.2951
43995SOL     OW41914  13.275   4.097   9.771 -0.0348  0.6044  0.3600
43995SOL    HW141915  13.222   4.089   9.692 -0.0145  1.1283  0.2885
43995SOL    HW241916  13.347   4.034   9.759 -0.3503  0.2677  0.2257
43996SOL     OW41917   8.305   4.469   9.700 -0.2721  0.1816  0.5430
43996SOL    HW141918   8.292   4.392   9.644 -0.9268 -0.1293  1.0943
43996SOL    HW241919   8.268   4.442   9.784  1.2050  0.4386  1.2942
43997SOL     OW41920  12.813  13.043   4.521 -0.0477  0.2759  0.2200
43997SOL    HW141921  12.904  13.013   4.523  0.5005  1.8174  0.1757
43997SOL    HW241922  12.761  12.964   4.532  1.2713 -0.8169 -1.0311
43998SOL     OW41923   9.942   8.690  12.551  0.5632 -0.0503  0.3288
43998SOL    HW141924   9.971   8.603  12.577  0.4116  0.4223  2.2071
43998SOL    HW241925  10.022   8.743  12.547  0.7421 -0.3801 -1.4650
43999SOL     OW41926   3.736   6.512   7.906  0.5761 -0.5265 -0.6599
43999SOL    HW141927   3.706   6.600   7.884  1.2773 -0.5829 -1.9465
43999SOL    HW241928   3.747   6.512   8.001  2.1893  1.2854 -0.8035
44000SOL     OW41929   8.859   6.542   7.430  0.1111 -0.1876 -0.0783
44000SOL    HW141930   8.914   6.605   7.382 -1.0761  0.8967 -0.0612
44000SOL    HW241931   8.865   6.462   7.378 -1.0269  0.9111 -2.0363
44001SOL     OW41932  12.381   7.195   5.950  0.4520 -0.3339 -0.2191
44001SOL    HW141933  12.369   7.260   5.881 -0.4172 -0.9858 -0.7121
44001SOL    HW241934  12.292   7.175   5.979  0.8059 -0.0049  1.1699
44002SOL     OW41935   5.177   2.057  11.125  0.2243  0.6140 -0.0767
44002SOL    HW141936   5.168   2.141  11.168 -0.8543 -0.3604  1.7131
44002SOL    HW241937   5.233   2.006  11.183 -0.0053 -0.2456 -0.5881
44003SOL     OW41938   2.844  11.204  11.825 -0.3908 -0.0513  0.0053
44003SOL    HW141939   2.923  11.190  11.876 -0.7401 -2.2711  0.0478
44003SOL    HW241940   2.841  11.298  11.810  1.0597  0.3509  1.8879
44004SOL     OW41941  10.766  12.472   5.715 -0.3310  0.2666  0.1057
44004SOL    HW141942  10.672  12.485   5.721 -0.4057  0.2788 -0.9409
44004SOL    HW241943  10.783  12.454   5.622  0.6368 -0.1925  0.3483
44005SOL     OW41944  11.458   0.248  13.156 -0.5424 -0.4426  0.2734
44005SOL    HW141945  11.470   0.222  13.065 -1.3344  0.1213 -0.0084
44005SOL    HW241946  11.535   0.214  13.201 -0.3207 -1.0565 -0.5335
44006SOL     OW41947   7.822   0.139   6.357 -0.5399 -0.5636  0.1591
44006SOL    HW141948   7.745   0.160   6.304 -0.6078  1.5618  1.0017
44006SOL    HW241949   7.817   0.198   6.432  2.8258  1.0266 -0.6646
44007SOL     OW41950   2.645  11.380  12.791 -0.3367  0.0106  0.1344
44007SOL    HW141951   2.722  11.404  12.843  0.7025 -1.0404 -0.8348
44007SOL    HW241952   2.601  11.313  12.843  0.1229 -0.2897  0.1483
44008SOL     OW41953   2.898   9.536  11.640 -0.3560  0.1167  0.6901
44008SOL    HW141954   2.937   9.573  11.561  1.7481 -0.8961  1.1819
44008SOL    HW241955   2.859   9.611  11.685  0.9493  1.1779  0.0968
44009SOL     OW41956   2.768  10.310   1.299  0.0129 -0.3268 -0.1944
44009SOL    HW141957   2.748  10.351   1.215 -0.1985 -2.8476 -1.4470
44009SOL    HW241958   2.862  10.292   1.295  0.0787 -0.1067  0.2901
44010SOL     OW41959   4.657   5.691   1.925 -0.8878 -0.1544 -0.5881
44010SOL    HW141960   4.662   5.611   1.977 -1.5931  0.5327  0.5574
44010SOL    HW241961   4.686   5.760   1.983 -1.4059  0.5940 -1.2025
44011SOL     OW41962  11.350   7.588  10.516  0.2120 -0.2204  0.0063
44011SOL    HW141963  11.438   7.622  10.503  0.1130  0.0716  0.0909
44011SOL    HW241964  11.343   7.515  10.455  0.3412  0.0590 -0.3444
44012SOL     OW41965   3.161   8.242  11.116  0.1419 -0.5473  0.1163
44012SOL    HW141966   3.145   8.333  11.141 -0.8262 -0.8046  0.4692
44012SOL    HW241967   3.256   8.237  11.103  0.3266  0.2768  1.0261
44013SOL     OW41968  12.054   6.217  12.126  0.0410  0.7118 -0.0977
44013SOL    HW141969  12.147   6.197  12.130 -0.1482 -0.3376 -0.6937
44013SOL    HW241970  12.050   6.313  12.121  0.9855  0.9621  2.4759
44014SOL     OW41971  12.016  11.337   4.937  0.1642  0.4665  0.6723
44014SOL    HW141972  12.024  11.242   4.941  0.7811  0.4960  0.3271
44014SOL    HW241973  12.107  11.369   4.931  0.0073  1.1186  1.5784
44015SOL     OW41974  12.663   2.598   9.470  0.1962 -0.3677  0.5837
44015SOL    HW141975  12.642   2.509   9.499  1.1490 -1.0900 -0.7696
44015SOL    HW241976  12.759   2.599   9.467  0.1732 -0.0066 -1.3722
44016SOL     OW41977   5.545   6.308   9.154 -0.4264 -0.3061  0.1890
44016SOL    HW141978   5.477   6.271   9.098 -0.5033 -1.3792  0.9729
44016SOL    HW241979   5.627   6.273   9.117 -0.2404  1.1277 -0.8673
44017SOL     OW41980  12.140   4.932  12.215  0.0922 -1.0358 -1.2410
44017SOL    HW141981  12.153   4.850  12.261  1.5712  0.8321  2.0215
44017SOL    HW241982  12.228   4.965  12.199 -0.3173  1.7711  1.3771
44018SOL     OW41983   1.844   1.689   8.541  0.2491 -0.0677 -0.0533
44018SOL    HW141984   1.840   1.713   8.634 -0.5612 -1.3671  0.2694
44018SOL    HW241985   1.836   1.594   8.540  2.5206 -0.3253 -1.3451
44019SOL     OW41986   9.737   9.239   5.562 -0.7560  0.5708  0.3304
44019SOL    HW141987   9.725   9.278   5.649  1.6551  0.0509  0.9810
44019SOL    HW241988   9.779   9.309   5.511  0.2011  0.0497  0.3886
44020SOL     OW41989   6.315  11.243   9.701 -0.1220 -1.1567  0.2013
44020SOL    HW141990   6.397  11.233   9.652 -0.2407  1.9736 -0.8644
44020SOL    HW241991   6.340  11.293   9.779 -0.8125 -1.3580  0.5585
44021SOL     OW41992   4.715   9.837   1.610  0.5074  0.2393 -0.5121
44021SOL    HW141993   4.730   9.931   1.618  1.2222  0.2005 -1.2517
44021SOL    HW241994   4.636   9.829   1.556  0.1195  0.4084  0.0192
44022SOL     OW41995  10.475   4.812  11.776 -0.2839  0.0713  0.1074
44022SOL    HW141996  10.490   4.734  11.830 -2.4804 -0.2958  0.2762
44022SOL    HW241997  10.562   4.844  11.756  0.6524 -0.9053  2.2668
44023SOL     OW41998   0.513   3.960   9.929 -0.2406 -0.1529 -0.0586
44023SOL    HW141999   0.578   3.895   9.901 -0.8574 -1.6975  1.8176
44023SOL    HW242000   0.429   3.923   9.903 -0.6248 -0.3229  1.3128
44024SOL     OW42001  12.043   2.959   9.650 -0.0717  0.2159 -0.2716
44024SOL    HW142002  11.999   2.876   9.630 -0.5626  0.3423  0.2610
44024SOL    HW242003  12.051   2.961   9.745 -0.0509  0.7684 -0.2771
44025SOL     OW42004  10.742   3.393   0.618  0.3077  0.4697 -0.5485
44025SOL    HW142005  10.669   3.333   0.602 -0.2772  0.7614  0.8405
44025SOL    HW242006  10.756   3.436   0.534  0.1992 -0.9957 -1.3635
44026SOL     OW42007   8.389   6.949   8.425  0.4935  0.1202 -0.0926
44026SOL    HW142008   8.482   6.941   8.403  0.4572 -0.0253 -0.1986
44026SOL    HW242009   8.380   7.035   8.466  0.6390  0.2129 -0.2591
44027SOL     OW42010   6.632   4.420   7.715  0.2177 -0.2887 -0.5779
44027SOL    HW142011   6.699   4.416   7.783  0.6111  0.9091 -0.8627
44027SOL    HW242012   6.578   4.496   7.740 -0.6595 -0.8653 -0.6916
44028SOL     OW42013   5.690   2.388  12.046  0.0330 -0.1001 -0.5887
44028SOL    HW142014   5.623   2.342  11.995 -0.2142  0.0914 -0.4402
44028SOL    HW242015   5.699   2.335  12.126 -0.1201  0.0049 -0.4997
44029SOL     OW42016   3.651   0.417   0.536  0.0277  0.6239  0.0416
44029SOL    HW142017   3.569   0.459   0.560 -0.0641 -0.6369  2.1146
44029SOL    HW242018   3.717   0.459   0.592  0.2980 -0.3947  0.5027
44030SOL     OW42019   4.808   2.244   0.678  0.0816  0.3113  0.0653
44030SOL    HW142020   4.896   2.281   0.681 -0.5446  1.8117  1.4600
44030SOL    HW242021   4.752   2.318   0.653 -0.7798 -0.6701 -1.0306
44031SOL     OW42022  13.201  10.213   3.941  0.2411 -0.3325 -0.2496
44031SOL    HW142023  13.288  10.252   3.952  1.0864 -2.0315 -0.5910
44031SOL    HW242024  13.183  10.219   3.847  1.0456 -2.0139 -0.5564
44032SOL     OW42025   8.442   8.511   0.809  0.0783  0.1748  0.0368
44032SOL    HW142026   8.398   8.596   0.808  1.9219  1.1880 -0.8333
44032SOL    HW242027   8.530   8.531   0.843  1.1848 -1.0130 -1.9374
44033SOL     OW42028   0.174   6.368   3.993 -0.4839  0.3598 -0.1796
44033SOL    HW142029   0.119   6.331   4.061 -0.0684 -1.3874 -0.7335
44033SOL    HW242030   0.120   6.365   3.914 -0.6991  1.6605 -0.0957
44034SOL     OW42031   5.203   9.039   8.012 -0.1995  0.4128  0.0067
44034SOL    HW142032   5.206   9.130   8.043 -1.0433  0.1415  0.9342
44034SOL    HW242033   5.110   9.017   8.011  0.0394 -0.7064  0.6293
44035SOL     OW42034  10.789  11.765  11.655 -0.9812  0.3575  0.8005
44035SOL    HW142035  10.705  11.801  11.681 -1.0652  0.9530 -0.2341
44035SOL    HW242036  10.767  11.702  11.586 -0.5537  0.8001  0.2545
44036SOL     OW42037   7.878   4.793   1.023 -0.8482  0.6108  0.0591
44036SOL    HW142038   7.900   4.869   1.076  0.8411 -0.1587  0.5436
44036SOL    HW242039   7.963   4.761   0.991 -1.6120 -0.4422 -1.0149
44037SOL     OW42040   1.324  12.517   4.167 -0.1557 -0.0131  0.1548
44037SOL    HW142041   1.256  12.585   4.164 -0.8177 -0.6575  0.4232
44037SOL    HW242042   1.295  12.452   4.103  0.0526 -0.4448  0.5018
44038SOL     OW42043   2.634   6.834   0.698 -0.1874 -0.1615 -0.2549
44038SOL    HW142044   2.726   6.830   0.725 -0.3405 -0.0622  0.3032
44038SOL    HW242045   2.597   6.751   0.727  0.1383 -0.9790 -2.0909
44039SOL     OW42046   6.401   2.982  11.793 -0.0179 -0.2024  0.3100
44039SOL    HW142047   6.355   2.932  11.860  0.0510  0.3820  0.8033
44039SOL    HW242048   6.334   3.001  11.727  0.0747 -1.4018 -0.1678
44040SOL     OW42049   9.916   7.847  10.100 -0.0899 -0.2251  0.1941
44040SOL    HW142050   9.864   7.911  10.052  0.7165 -0.0094 -0.4164
44040SOL    HW242051   9.876   7.843  10.187 -2.1489 -1.2928 -0.7435
44041SOL     OW42052   1.537   4.437   2.945  0.4350  0.3785  0.8345
44041SOL    HW142053   1.447   4.451   2.974  0.4358  1.0167  0.5510
44041SOL    HW242054   1.575   4.379   3.011 -0.2871 -0.1993  0.7622
44042SOL     OW42055   4.218   9.232   2.164  0.5547 -0.3844  0.9583
44042SOL    HW142056   4.255   9.304   2.215  0.6376  0.3453 -0.0947
44042SOL    HW242057   4.255   9.153   2.203  0.5594  0.1425  2.0529
44043SOL     OW42058  13.061   1.814  13.253  0.6360  0.3161  0.4905
44043SOL    HW142059  12.995   1.883  13.255  1.6568  1.4576 -1.5757
44043SOL    HW242060  13.095   1.816  13.163  0.4414 -3.1837  0.2029
44044SOL     OW42061  13.095  12.902  11.011  0.3789  0.7915 -0.4427
44044SOL    HW142062  13.170  12.846  11.032 -0.2276 -0.4395 -1.4224
44044SOL    HW242063  13.112  12.983  11.059  2.4470  0.6490 -0.8159
44045SOL     OW42064   2.835   0.047   6.878 -0.7503  0.3628 -0.3591
44045SOL    HW142065   2.880   0.014   6.956 -2.7698  2.2220  1.7690
44045SOL    HW242066   2.826  -0.029   6.821  1.3271 -0.9388  0.9109
44046SOL     OW42067   2.465   2.061   8.470  0.2464 -0.4743  0.1760
44046SOL    HW142068   2.444   2.154   8.475 -1.8934 -0.5790 -3.4439
44046SOL    HW242069   2.468   2.042   8.376 -1.1777 -4.3669  0.7297
44047SOL     OW42070   5.853   1.497   3.934  0.0364 -0.8918  0.2019
44047SOL    HW142071   5.935   1.533   3.900  0.2765 -0.7469  0.9063
44047SOL    HW242072   5.786   1.526   3.873  0.4247 -0.4451 -0.0133
44048SOL     OW42073   8.759   7.529   4.992  0.2989 -0.1813  0.0794
44048SOL    HW142074   8.820   7.476   4.941 -0.2079 -0.9349  0.2506
44048SOL    HW242075   8.673   7.491   4.974  0.1705 -0.9550  2.0731
44049SOL     OW42076   7.751   7.847  13.063 -0.6649 -0.2535  0.1217
44049SOL    HW142077   7.831   7.847  13.010 -0.7581 -1.9985 -0.0859
44049SOL    HW242078   7.775   7.894  13.143 -0.0681  1.0927 -0.8079
44050SOL     OW42079   8.491   8.310   6.318 -0.1066  0.2077  0.6051
44050SOL    HW142080   8.398   8.296   6.302  0.2131 -0.1867 -1.1870
44050SOL    HW242081   8.495   8.384   6.378 -1.5765 -0.2852  1.3587
44051SOL     OW42082   7.967   7.783   5.346 -0.2466 -0.5321 -0.1307
44051SOL    HW142083   8.023   7.732   5.403  0.9019 -1.3009 -1.8739
44051SOL    HW242084   7.878   7.762   5.375  0.2776  0.3352  2.3599
44052SOL     OW42085  11.881   5.454   5.179 -0.0359 -0.3883 -0.1394
44052SOL    HW142086  11.875   5.387   5.111  1.8127 -0.2620 -0.4906
44052SOL    HW242087  11.802   5.506   5.169 -1.5789 -2.5124  0.1743
44053SOL     OW42088  12.427   3.327   5.087 -0.0559 -0.2131 -0.1180
44053SOL    HW142089  12.387   3.275   5.016  0.2767 -0.5716 -0.0471
44053SOL    HW242090  12.367   3.400   5.099  0.7412  0.8191 -1.9412
44054SOL     OW42091   6.162   9.745   3.093 -0.2867 -0.1916  0.0529
44054SOL    HW142092   6.154   9.797   3.173  1.4613  1.1239 -0.5793
44054SOL    HW242093   6.109   9.793   3.028  1.5645  1.0624 -0.6094
44055SOL     OW42094  12.598   0.787  11.184 -0.0383 -0.3273  0.2852
44055SOL    HW142095  12.641   0.765  11.267 -2.7218 -0.8608  1.6837
44055SOL    HW242096  12.587   0.704  11.139 -1.7696 -0.6458  1.1700
44056SOL     OW42097   7.086   6.325  11.185 -0.7903  0.2776 -0.1522
44056SOL    HW142098   7.016   6.296  11.243  0.1178 -2.1424 -0.1731
44056SOL    HW242099   7.081   6.266  11.110  0.2117  1.1694 -0.9505
44057SOL     OW42100  12.477   1.398   6.608  0.2107  0.8797  0.5993
44057SOL    HW142101  12.525   1.470   6.566 -0.8382  1.1745 -0.1338
44057SOL    HW242102  12.440   1.437   6.687 -2.4189  1.9130 -1.0126
44058SOL     OW42103  12.445   4.972   1.366  0.0145  0.3560  0.7186
44058SOL    HW142104  12.357   4.947   1.337  0.4398 -1.2879  0.7533
44058SOL    HW242105  12.479   4.894   1.409  1.2875  1.1590  1.2242
44059SOL     OW42106   7.503  12.518   9.683 -0.1782 -0.5474 -0.0723
44059SOL    HW142107   7.490  12.602   9.638 -2.2298  0.5027  2.2272
44059SOL    HW242108   7.586  12.529   9.730 -1.0018  0.7274  1.1604
44060SOL     OW42109  11.775  10.927   0.602  0.1525 -0.1760  0.6314
44060SOL    HW142110  11.784  10.849   0.657  3.0269 -2.5258 -2.6708
44060SOL    HW242111  11.847  10.984   0.629  1.1789 -1.0446 -0.1797
44061SOL     OW42112   9.226   4.939  12.324 -0.0487  0.7318  0.0148
44061SOL    HW142113   9.238   4.910  12.234  2.0279 -1.0633  0.7621
44061SOL    HW242114   9.132   4.947  12.335 -0.4699 -1.2041 -1.6948
44062SOL     OW42115   3.713  11.166  11.667  0.4659 -0.6348  0.4279
44062SOL    HW142116   3.733  11.257  11.648  1.6857 -0.6437  1.5355
44062SOL    HW242117   3.619  11.165  11.687  0.2492  0.1983 -0.4820
44063SOL     OW42118  12.474   4.412   6.810  0.2848 -0.0153 -0.4535
44063SOL    HW142119  12.558   4.458   6.810 -0.4334  1.3222 -0.6672
44063SOL    HW242120  12.414   4.471   6.766 -1.3404  0.0883  1.7441
44064SOL     OW42121   0.534  11.846  12.381  0.2713 -0.2733  1.0715
44064SOL    HW142122   0.567  11.760  12.409 -0.3425 -1.4493 -1.4989
44064SOL    HW242123   0.445  11.849  12.418 -1.0958 -2.4534 -1.6118
44065SOL     OW42124   3.079   6.936  12.880 -0.0302 -0.2566 -0.2860
44065SOL    HW142125   3.144   6.930  12.950 -2.4597 -0.5902  2.1216
44065SOL    HW242126   3.094   6.858  12.826  1.4245 -0.3885  0.2718
44066SOL     OW42127   7.895   0.983   5.139 -0.2583 -0.0168  0.2372
44066SOL    HW142128   7.866   1.074   5.138  3.1872  1.2414  1.3750
44066SOL    HW242129   7.964   0.979   5.073 -2.5948 -2.8274 -2.3177
44067SOL     OW42130   1.174  12.540   6.708  0.5900  0.4585 -0.1012
44067SOL    HW142131   1.236  12.486   6.758 -0.1418 -0.3142 -0.0119
44067SOL    HW242132   1.139  12.481   6.642 -1.3909  0.3461  0.9806
44068SOL     OW42133  12.627   6.073   8.450  0.1772  0.5508  0.3665
44068SOL    HW142134  12.646   6.032   8.365  1.8947 -1.8109  1.7469
44068SOL    HW242135  12.700   6.133   8.465  0.8311 -0.3492  0.8925
44069SOL     OW42136   5.085  12.121  12.272  0.0672 -0.4691  0.1264
44069SOL    HW142137   5.083  12.207  12.314 -1.5594 -0.1221 -0.6172
44069SOL    HW242138   5.029  12.130  12.195 -1.7184 -2.6942  1.0607
44070SOL     OW42139  12.025   6.050   1.686 -0.0845 -0.2479  0.1769
44070SOL    HW142140  12.112   6.084   1.667 -0.4001  1.4492  1.5155
44070SOL    HW242141  12.036   6.000   1.768  0.0055 -1.8711 -0.7809
44071SOL     OW42142   3.022   9.566   9.296  0.0956  0.3756 -0.2983
44071SOL    HW142143   3.093   9.621   9.263  0.5662  0.0659  0.1936
44071SOL    HW242144   2.942   9.614   9.273  0.5122  1.4520  0.4648
44072SOL     OW42145   2.658   4.042  11.602  0.1120  0.3204  0.7373
44072SOL    HW142146   2.632   4.023  11.692 -0.7759 -1.2566  0.1898
44072SOL    HW242147   2.639   4.135  11.591 -0.8358  0.2789  1.8439
44073SOL     OW42148   5.803   8.350   6.129  0.5149  0.1810  0.0578
44073SOL    HW142149   5.771   8.383   6.045  0.4131 -0.3045 -0.0982
44073SOL    HW242150   5.833   8.261   6.110  0.9992  0.2619  0.4236
44074SOL     OW42151   3.330   8.501   7.345  0.0890  0.2305 -0.4329
44074SOL    HW142152   3.274   8.477   7.271  2.0027  0.2054 -1.9558
44074SOL    HW242153   3.327   8.425   7.403  0.3546 -0.7300 -1.6384
44075SOL     OW42154  11.597   4.642   6.932  0.0686 -0.0365  0.5773
44075SOL    HW142155  11.606   4.729   6.971 -0.4115  0.3360 -0.1316
44075SOL    HW242156  11.524   4.602   6.979  0.1711  0.0095  0.7773
44076SOL     OW42157   1.360  11.701   8.656 -0.1245  0.0563 -0.8031
44076SOL    HW142158   1.410  11.731   8.733 -0.6646  0.1140 -0.4665
44076SOL    HW242159   1.276  11.747   8.663 -0.6637 -0.9111 -0.7245
44077SOL     OW42160   9.701   2.759   2.125  0.3957 -0.8193  0.0907
44077SOL    HW142161   9.717   2.690   2.190 -1.3868 -1.4484 -0.0852
44077SOL    HW242162   9.624   2.728   2.076 -0.0628  1.0056 -0.3946
44078SOL     OW42163   1.175  13.215  11.877 -0.1526 -0.3085  0.2052
44078SOL    HW142164   1.258  13.215  11.831  0.9891 -0.8921  2.1247
44078SOL    HW242165   1.134  13.299  11.854  0.0304 -0.8247 -2.2629
44079SOL     OW42166   0.052   7.370   5.935  0.8966 -1.2003  0.4112
44079SOL    HW142167   0.093   7.416   6.009 -0.6616 -0.5532  0.9303
44079SOL    HW242168   0.073   7.278   5.950  0.8976 -1.0458  1.4855
44080SOL     OW42169   4.900  11.034   7.165 -0.2361  0.0825 -0.1529
44080SOL    HW142170   4.853  11.066   7.088  1.4769  0.6914 -0.9969
44080SOL    HW242171   4.989  11.068   7.155  0.5366 -1.3988  1.1341
44081SOL     OW42172  10.218  13.164   5.657  0.0746  0.0271  0.0872
44081SOL    HW142173  10.187  13.160   5.747  0.2783  1.5535  0.2563
44081SOL    HW242174  10.166  13.234   5.617 -2.0159 -2.4100 -1.8269
44082SOL     OW42175   1.821   3.734   4.491 -0.6741  0.7150  0.5678
44082SOL    HW142176   1.796   3.721   4.400 -1.4449  1.1588  0.7105
44082SOL    HW242177   1.849   3.825   4.495 -0.7925  0.7423  0.8078
44083SOL     OW42178   8.274   1.457   5.427  0.0859  0.3449 -0.0383
44083SOL    HW142179   8.348   1.459   5.488  0.6891 -1.4945 -0.6628
44083SOL    HW242180   8.315   1.467   5.341 -0.4007 -0.5966 -0.3787
44084SOL     OW42181   2.295  10.384   3.824 -0.9302 -0.2903  0.0623
44084SOL    HW142182   2.263  10.300   3.855 -1.2434 -0.3246 -0.3496
44084SOL    HW242183   2.290  10.442   3.901  0.3307 -0.9137  0.6537
44085SOL     OW42184   3.734  13.247   6.739 -0.1838  0.1111  0.5967
44085SOL    HW142185   3.786  13.213   6.666  0.5575 -4.1784  2.7989
44085SOL    HW242186   3.661  13.292   6.697  2.1986  1.3545 -2.6572
44086SOL     OW42187   4.890  12.711   0.121 -0.3767  0.1109 -0.2407
44086SOL    HW142188   4.861  12.742   0.207 -1.1419 -0.9654 -0.0998
44086SOL    HW242189   4.821  12.740   0.061 -0.1488  0.3271 -0.3989
44087SOL     OW42190   2.528   1.350  12.093 -0.2216  0.1862  0.2879
44087SOL    HW142191   2.581   1.272  12.077  0.8372  0.8209  0.6543
44087SOL    HW242192   2.581   1.423  12.061 -0.8999  0.8348  0.6019
44088SOL     OW42193   0.935   3.906   1.801 -0.1873 -0.4271  0.2368
44088SOL    HW142194   1.003   3.973   1.806  1.6390 -2.2649  1.6681
44088SOL    HW242195   0.877   3.925   1.875 -0.5948  0.4247 -0.2750
44089SOL     OW42196   8.679   8.156   0.044 -0.9973  0.0372 -0.1259
44089SOL    HW142197   8.658   8.154   0.138  1.2307  0.0757  0.4224
44089SOL    HW242198   8.745   8.225   0.036 -2.8596  1.7449 -2.1715
44090SOL     OW42199   3.697   5.557  10.925 -1.3808 -0.2334 -0.0413
44090SOL    HW142200   3.728   5.642  10.956  0.0239 -0.8149  0.2543
44090SOL    HW242201   3.717   5.497  10.997 -1.2359 -1.0167 -0.7200
44091SOL     OW42202   5.570  11.831   8.055  0.6159  0.4570 -0.2725
44091SOL    HW142203   5.571  11.927   8.047  0.1550  0.8056  2.7952
44091SOL    HW242204   5.481  11.811   8.084  1.0241 -0.7881  0.1543
44092SOL     OW42205  11.804   9.696   1.388  0.0622  0.0556  0.1769
44092SOL    HW142206  11.864   9.764   1.421 -1.0203  1.0459  0.1951
44092SOL    HW242207  11.782   9.725   1.300 -0.2767 -0.3705  0.1218
44093SOL     OW42208  10.435  11.357   8.398 -0.2792  0.2096  0.2570
44093SOL    HW142209  10.423  11.268   8.431 -0.2482  0.1745  0.1735
44093SOL    HW242210  10.416  11.351   8.305  1.8948 -0.1684 -0.2082
44094SOL     OW42211   1.032   3.097   5.443  0.7058 -0.0018 -0.7370
44094SOL    HW142212   0.984   3.019   5.469 -0.8729  1.5356  1.3066
44094SOL    HW242213   0.969   3.150   5.394  1.4753  0.3960 -1.3316
44095SOL     OW42214  11.469   2.722  11.452 -0.0569 -0.2211 -0.0829
44095SOL    HW142215  11.523   2.703  11.529  0.1753 -0.8325 -0.3905
44095SOL    HW242216  11.529   2.716  11.378 -0.0756  1.3208 -0.2448
44096SOL     OW42217  11.799  11.354   7.706 -0.4859  0.1641 -0.1818
44096SOL    HW142218  11.767  11.383   7.620 -0.1511 -0.0236 -0.3720
44096SOL    HW242219  11.832  11.433   7.747 -0.5920  0.2451 -0.2496
44097SOL     OW42220  13.188   1.958   7.884  0.0072 -0.4028 -0.1265
44097SOL    HW142221  13.276   1.970   7.920 -0.3993  0.4115  0.6386
44097SOL    HW242222  13.164   2.044   7.850 -1.4947  0.1129  2.0363
44098SOL     OW42223  12.321   2.961   2.419  0.1881 -0.0554 -0.4085
44098SOL    HW142224  12.334   3.024   2.490 -2.4853  1.2044 -0.8843
44098SOL    HW242225  12.347   3.009   2.340 -0.2777 -0.1395 -0.6157
44099SOL     OW42226   4.758   1.471   4.807 -0.6264  0.3395  0.8412
44099SOL    HW142227   4.688   1.408   4.789 -2.0530  1.7617  1.2299
44099SOL    HW242228   4.822   1.455   4.738 -1.7880 -0.3689 -0.1213
44100SOL     OW42229   7.151  12.984   6.902  0.0434  0.3496 -0.5067
44100SOL    HW142230   7.166  12.961   6.994  0.5224 -0.0772 -0.6841
44100SOL    HW242231   7.078  12.928   6.874 -0.4459  0.8541 -0.2436
44101SOL     OW42232   1.228   6.746  12.094  0.5549  0.1573  0.0975
44101SOL    HW142233   1.299   6.682  12.090  0.7273  0.2664  1.2903
44101SOL    HW242234   1.149   6.693  12.103  0.2150 -0.0738 -2.9483
44102SOL     OW42235   0.574   6.918  11.806 -0.2545 -0.3911  0.7587
44102SOL    HW142236   0.495   6.946  11.853  0.2679  0.4331  1.1801
44102SOL    HW242237   0.620   7.000  11.786  0.7008 -0.8790  0.9080
44103SOL     OW42238  11.229   4.192   7.009  0.1722 -0.1560 -0.0042
44103SOL    HW142239  11.163   4.242   7.056 -1.0357 -0.2300 -1.5427
44103SOL    HW242240  11.181   4.147   6.940  1.2507 -3.2531  1.0980
44104SOL     OW42241   3.078  10.364   7.786 -0.2938 -0.2056 -0.0230
44104SOL    HW142242   3.037  10.380   7.871 -1.3386 -0.1440 -0.5219
44104SOL    HW242243   3.047  10.435   7.731 -1.0317 -1.1827 -0.9202
44105SOL     OW42244   3.024   2.091   2.921  0.0050  0.3098  0.6453
44105SOL    HW142245   3.078   2.124   2.849 -1.4029  1.2661 -0.0161
44105SOL    HW242246   3.054   2.140   2.997  2.0029 -1.2263  0.9086
44106SOL     OW42247   9.387   6.830   8.931  0.0336 -0.0728  0.4359
44106SOL    HW142248   9.433   6.910   8.908 -1.2002  0.3567 -0.6790
44106SOL    HW242249   9.438   6.760   8.890  0.4853  0.2457  0.4469
44107SOL     OW42250   2.604   1.823  13.120 -0.5202 -0.3009 -0.3322
44107SOL    HW142251   2.603   1.917  13.103  1.7146  0.0351  0.9552
44107SOL    HW242252   2.528   1.789  13.073 -2.6539  2.4055  0.8279
44108SOL     OW42253   9.785   9.092   3.648 -0.0798 -0.3184 -0.0963
44108SOL    HW142254   9.769   9.006   3.689 -0.0994  0.1475  0.9067
44108SOL    HW242255   9.827   9.143   3.717  0.2211  0.3814 -0.7974
44109SOL     OW42256   5.161   7.472   0.989  0.1594  0.8320 -0.3768
44109SOL    HW142257   5.110   7.434   1.061  2.8472 -0.1872  1.1273
44109SOL    HW242258   5.147   7.567   0.998 -2.4891  0.5755 -0.9255
44110SOL     OW42259   1.743   0.723  13.091 -0.4364  0.4238 -0.7706
44110SOL    HW142260   1.663   0.691  13.134 -0.4310  2.3244  0.7831
44110SOL    HW242261   1.796   0.759  13.163  1.4119  0.0669 -1.8969
44111SOL     OW42262   5.828   7.064  11.575 -0.6835 -0.0196  0.0524
44111SOL    HW142263   5.739   7.037  11.599 -1.1950  1.9964  0.6452
44111SOL    HW242264   5.816   7.140  11.518  0.6572 -0.6711 -1.1535
44112SOL     OW42265   2.102  13.090   1.980  0.7035 -0.2500 -0.2323
44112SOL    HW142266   2.136  13.168   1.937  0.0152  1.3651  1.9474
44112SOL    HW242267   2.166  13.070   2.048  0.2463 -0.8350  0.0372
44113SOL     OW42268   2.501  12.708   3.077 -0.2942  0.6534 -0.5163
44113SOL    HW142269   2.473  12.727   3.166 -0.5004  0.8178 -0.6158
44113SOL    HW242270   2.506  12.612   3.074  0.6102  0.6732 -0.0591
44114SOL     OW42271  11.023   5.039  11.705 -0.5384  0.6878 -0.4207
44114SOL    HW142272  10.974   4.979  11.649 -0.4765  0.5582 -0.3355
44114SOL    HW242273  11.090   4.985  11.746 -1.3254  0.5243  0.7085
44115SOL     OW42274   0.020   7.148   5.718  0.0629 -0.2002 -0.0227
44115SOL    HW142275   0.030   7.110   5.631  0.5287  0.2688 -0.1786
44115SOL    HW242276   0.109   7.148   5.754 -0.0582  0.0146  0.2802
44116SOL     OW42277   3.270  12.650   7.305  0.4483  0.0061 -0.7721
44116SOL    HW142278   3.192  12.661   7.251  1.6798  1.4723 -2.3575
44116SOL    HW242279   3.240  12.668   7.395 -1.2663 -0.6892 -1.1790
44117SOL     OW42280   8.755   4.709   1.310  0.1366 -0.0476  0.1477
44117SOL    HW142281   8.789   4.777   1.251 -0.0943 -0.7167 -0.7711
44117SOL    HW242282   8.784   4.737   1.397  1.6640  0.2631 -0.4230
44118SOL     OW42283  12.376  10.154  12.377  0.5220  0.1253 -0.2997
44118SOL    HW142284  12.306  10.217  12.393  1.8689  1.4430  0.6538
44118SOL    HW242285  12.360  10.084  12.439  1.7830  1.9380  2.2467
44119SOL     OW42286   7.514   9.976   1.582 -0.4918  0.0744 -0.0433
44119SOL    HW142287   7.478   9.888   1.572  1.4106 -0.7251 -0.2050
44119SOL    HW242288   7.546   9.979   1.672 -1.4820  0.9972  0.2982
44120SOL     OW42289   8.856   7.141   7.579  0.1271  0.6172  0.0233
44120SOL    HW142290   8.941   7.096   7.582  0.6958  1.3055 -2.6244
44120SOL    HW242291   8.863   7.211   7.644  1.1063 -0.0765  0.6991
44121SOL     OW42292   3.708   4.797   4.942 -0.4612 -0.4744 -0.4628
44121SOL    HW142293   3.641   4.854   4.980 -0.0602 -1.7373  2.4394
44121SOL    HW242294   3.777   4.857   4.914  1.0242  0.6657  4.6024
44122SOL     OW42295   4.735   3.185   8.645  0.1480  0.6647  0.2457
44122SOL    HW142296   4.692   3.168   8.729 -0.3098 -2.4350 -0.4832
44122SOL    HW242297   4.828   3.196   8.668  0.0684 -0.3874  1.1739
44123SOL     OW42298   6.920  10.278   1.015  0.3392  0.8742 -0.2453
44123SOL    HW142299   6.921  10.191   1.055  0.5073  0.4375 -1.1841
44123SOL    HW242300   7.006  10.286   0.974  0.5856  1.7687  0.4282
44124SOL     OW42301   2.435   6.111   4.353  0.1930  0.4333  0.0441
44124SOL    HW142302   2.399   6.065   4.429 -1.8219  3.3989  1.0967
44124SOL    HW242303   2.522   6.139   4.381 -0.2617  0.8941  1.0516
44125SOL     OW42304   0.411   3.972  12.237  0.0966 -0.1814 -0.2113
44125SOL    HW142305   0.493   3.944  12.278 -0.0485  0.3998  0.5134
44125SOL    HW242306   0.406   3.922  12.156  1.0624 -0.3856 -0.1616
44126SOL     OW42307   5.557   5.943   3.507  0.4305  0.1458  0.2761
44126SOL    HW142308   5.512   5.940   3.592  1.0410 -0.3082  0.5938
44126SOL    HW242309   5.487   5.958   3.444 -0.0358  0.4901  0.8576
44127SOL     OW42310  10.900   0.628   1.310 -0.1088 -0.0548  0.0158
44127SOL    HW142311  10.981   0.680   1.308  0.5212 -1.0176 -0.8688
44127SOL    HW242312  10.881   0.617   1.403 -0.0384  1.4014  0.2243
44128SOL     OW42313  12.480   5.462   4.853 -0.0301 -0.3298  0.0421
44128SOL    HW142314  12.415   5.526   4.825 -0.0880 -0.8229 -1.0320
44128SOL    HW242315  12.564   5.503   4.832  0.0190  0.1681  1.1231
44129SOL     OW42316  13.127   2.448  11.185 -0.5095  0.0014  0.3194
44129SOL    HW142317  13.207   2.395  11.183 -0.8493 -0.5040 -1.0052
44129SOL    HW242318  13.156   2.535  11.159 -0.4053 -0.2330 -0.3839
44130SOL     OW42319   5.128   0.308  11.771 -0.5355  0.2089  0.4712
44130SOL    HW142320   5.096   0.219  11.764  0.8090 -0.2029 -0.9853
44130SOL    HW242321   5.049   0.362  11.779 -1.3626 -1.0781  1.3474
44131SOL     OW42322   1.730   0.936   9.105  0.0019 -0.1316  0.1756
44131SOL    HW142323   1.712   1.030   9.106  1.4597  0.1748 -0.2406
44131SOL    HW242324   1.722   0.911   9.013  1.7711  0.0627 -0.0649
44132SOL     OW42325   8.203  12.428   3.913  0.1338  0.2375 -0.7237
44132SOL    HW142326   8.155  12.400   3.991  0.1755 -1.5780 -1.3035
44132SOL    HW242327   8.172  12.517   3.896 -0.5205  0.3392  0.8473
44133SOL     OW42328   7.618   2.808  10.403 -0.0451  0.6338 -0.4112
44133SOL    HW142329   7.597   2.857  10.482 -0.1549 -0.0331 -0.0206
44133SOL    HW242330   7.557   2.841  10.337 -1.8443 -0.7056  0.4917
44134SOL     OW42331   0.979   0.231   3.394  0.3148  0.1193  0.6894
44134SOL    HW142332   0.998   0.322   3.371 -1.1240  0.3252  0.1902
44134SOL    HW242333   0.985   0.184   3.311  3.3184 -0.7260  1.2752
44135SOL     OW42334   8.166   2.453   1.479  0.3446  0.0762  0.2092
44135SOL    HW142335   8.200   2.542   1.468 -0.0855  0.1492 -0.5807
44135SOL    HW242336   8.125   2.432   1.395  1.7598 -1.4434 -0.1736
44136SOL     OW42337   3.901   4.332  11.675 -0.4066  0.0021 -0.5068
44136SOL    HW142338   3.937   4.262  11.621 -0.1051  0.5591 -1.0353
44136SOL    HW242339   3.806   4.320  11.669 -0.3517 -0.7482 -0.0643
44137SOL     OW42340   4.207   5.920   8.186  0.3184 -0.1238  0.0786
44137SOL    HW142341   4.264   5.977   8.238 -2.1460  1.2999  1.4235
44137SOL    HW242342   4.177   5.975   8.113  1.7606 -1.3269 -1.5048
44138SOL     OW42343  13.246  11.528   3.055 -0.5801  0.2780 -0.7109
44138SOL    HW142344  13.222  11.620   3.046 -0.0940  0.2990 -1.8245
44138SOL    HW242345  13.248  11.494   2.966 -0.7638 -0.8223 -0.3122
44139SOL     OW42346   8.309   5.016   2.285  0.2024 -0.1313  0.4356
44139SOL    HW142347   8.360   4.961   2.344  2.5487 -1.4496 -2.5586
44139SOL    HW242348   8.372   5.083   2.255 -1.7144  2.3119  1.5232
44140SOL     OW42349   0.272  10.856   3.623  0.1225  0.1212 -0.3086
44140SOL    HW142350   0.219  10.936   3.629 -0.9014 -0.6514  1.6940
44140SOL    HW242351   0.308  10.844   3.710  0.3218 -1.5533 -0.5869
44141SOL     OW42352   0.940   8.028   4.716  0.3211 -0.3163 -0.0855
44141SOL    HW142353   0.944   8.121   4.737 -2.0268  0.3189 -2.0807
44141SOL    HW242354   0.969   7.984   4.797 -1.6015  2.0492  2.0391
44142SOL     OW42355   3.745   0.595   0.730 -0.3498 -0.3120  0.0486
44142SOL    HW142356   3.808   0.664   0.709  0.4201 -0.9473  0.2421
44142SOL    HW242357   3.666   0.642   0.756 -0.0514  0.4920 -0.4735
44143SOL     OW42358   5.467   0.407  10.999  0.3001  0.0962 -0.0187
44143SOL    HW142359   5.476   0.425  10.906 -0.4356  0.2247 -0.0682
44143SOL    HW242360   5.451   0.313  11.005  0.4644  0.0680 -0.0104
44144SOL     OW42361   7.952   7.414   9.190  0.4778 -0.2239 -0.1613
44144SOL    HW142362   8.030   7.369   9.221  1.6911  2.5161  1.1140
44144SOL    HW242363   7.889   7.406   9.262  2.1118  3.2794  1.8827
44145SOL     OW42364  13.251   4.366   3.383 -0.4362 -0.0102 -0.0149
44145SOL    HW142365  13.165   4.397   3.411  0.4644 -0.1169  3.2684
44145SOL    HW242366  13.307   4.443   3.385  0.8481 -0.8053  4.0969
44146SOL     OW42367   5.090  11.751  11.645  0.0113 -0.5981 -0.2880
44146SOL    HW142368   5.178  11.714  11.637  0.2569  0.0706 -0.7394
44146SOL    HW242369   5.032  11.675  11.645  0.5173 -0.9896 -1.0416
44147SOL     OW42370   0.604   3.605  11.450  0.2128  0.4444  0.2309
44147SOL    HW142371   0.645   3.530  11.408 -0.7619  1.2009 -2.2586
44147SOL    HW242372   0.653   3.681  11.418 -1.3210  1.1398 -0.5998
44148SOL     OW42373   9.146   9.585   0.111  0.6245  0.3655 -0.1977
44148SOL    HW142374   9.071   9.526   0.099  0.4638  0.4814  0.1903
44148SOL    HW242375   9.129   9.658   0.052 -0.0189  0.8108  0.5248
44149SOL     OW42376   5.669   1.584   0.192 -0.0070  0.3836  0.1123
44149SOL    HW142377   5.638   1.597   0.282  0.9642 -0.1352  0.5294
44149SOL    HW242378   5.718   1.501   0.195 -0.7455 -0.1268 -1.1014
44150SOL     OW42379   8.666   9.205   5.417  0.4024 -0.6550  0.7708
44150SOL    HW142380   8.683   9.112   5.401 -2.6801 -1.4735  1.5808
44150SOL    HW242381   8.651   9.211   5.511  0.4660  0.6495  0.7142
44151SOL     OW42382   0.306   8.263   5.801 -0.2453  0.1818 -0.2506
44151SOL    HW142383   0.319   8.185   5.746  1.6313  0.4438 -0.2449
44151SOL    HW242384   0.323   8.337   5.742 -0.4393  0.5408  0.1403
44152SOL     OW42385  10.634   7.284  13.222  0.0404 -0.1172 -0.1271
44152SOL    HW142386  10.671   7.351  13.279  1.6037 -0.1570 -1.0401
44152SOL    HW242387  10.710   7.246  13.178 -1.0392 -0.6590 -1.5869
44153SOL     OW42388   0.580   6.800   5.377 -0.0841 -0.0366  0.5132
44153SOL    HW142389   0.660   6.841   5.344 -0.1628  1.0077  1.5485
44153SOL    HW242390   0.610   6.722   5.423  0.4052  0.6664  1.4000
44154SOL     OW42391  12.136  10.667   1.090 -0.7584 -0.5307  0.2439
44154SOL    HW142392  12.172  10.624   1.167  0.4718 -0.8113 -0.4537
44154SOL    HW242393  12.097  10.748   1.123  1.0164  0.0673  1.0029
44155SOL     OW42394   8.117   9.476   6.692 -0.3922 -0.2116 -0.0348
44155SOL    HW142395   8.144   9.449   6.605  1.0990  0.9409  0.0128
44155SOL    HW242396   8.116   9.396   6.744  0.9530 -0.6176 -0.5886
44156SOL     OW42397  13.256   8.559   4.978 -0.6025 -0.0621 -0.0850
44156SOL    HW142398  13.164   8.544   4.999 -0.6318  0.2854  0.0385
44156SOL    HW242399  13.280   8.637   5.028 -0.2562 -0.1181 -0.1602
44157SOL     OW42400  12.242   9.370   6.837  0.4442  0.3866  0.1635
44157SOL    HW142401  12.204   9.283   6.849 -0.1052  0.3539 -1.5936
44157SOL    HW242402  12.328   9.364   6.878  0.6673 -1.1865 -0.4508
44158SOL     OW42403   5.608  10.241  10.035  0.2394 -0.0784  0.7923
44158SOL    HW142404   5.614  10.265   9.943  1.0383 -2.8847  0.0330
44158SOL    HW242405   5.535  10.181  10.040  2.1423 -2.5150  1.2875
44159SOL     OW42406   2.977   4.644  11.190 -0.1844 -0.7186 -0.1117
44159SOL    HW142407   2.963   4.687  11.106 -0.6726 -0.9314 -0.1453
44159SOL    HW242408   3.016   4.559  11.167  3.3247  0.6957  0.0864
44160SOL     OW42409  13.292   8.841  11.156 -0.2270  0.4781 -0.0962
44160SOL    HW142410  13.240   8.854  11.077 -0.5586 -1.2716 -0.2271
44160SOL    HW242411  13.254   8.762  11.196  0.6115  0.7208  1.2418
44161SOL     OW42412   6.897   7.161   9.970  0.2129 -0.2054 -0.3635
44161SOL    HW142413   6.983   7.190  10.000 -0.2370  2.0221 -1.0513
44161SOL    HW242414   6.895   7.182   9.877 -0.5524 -1.6164 -0.7017
44162SOL     OW42415   4.620   1.465   9.619  0.4624  0.0276  0.2461
44162SOL    HW142416   4.612   1.531   9.687  1.2425  1.1102 -0.6716
44162SOL    HW242417   4.714   1.449   9.612  0.3638 -0.3397 -0.3087
44163SOL     OW42418   0.923   8.523   8.259  0.0473 -0.5006 -0.6909
44163SOL    HW142419   0.978   8.457   8.301 -0.2558  0.3015  1.0845
44163SOL    HW242420   0.899   8.582   8.330 -1.1680  0.5045 -1.8837
44164SOL     OW42421   2.125   4.932   5.111 -0.0950  0.0132 -0.3825
44164SOL    HW142422   2.114   4.960   5.020  1.0664 -0.6643 -0.7548
44164SOL    HW242423   2.145   5.012   5.159 -0.9179  0.4033 -0.6803
44165SOL     OW42424  12.061   6.064   8.203  0.0171  0.1524  0.6266
44165SOL    HW142425  12.128   5.997   8.214 -1.3127 -0.9854  2.1987
44165SOL    HW242426  12.020   6.072   8.289  0.3583  3.3016  0.6469
44166SOL     OW42427   4.754  10.560   7.168 -0.1972 -0.5418 -0.3884
44166SOL    HW142428   4.671  10.553   7.120 -0.5419 -0.9944  0.2678
44166SOL    HW242429   4.803  10.627   7.119 -0.6611 -0.7670 -1.1945
44167SOL     OW42430   1.572  10.492   4.415 -0.3685 -0.3223  0.0996
44167SOL    HW142431   1.545  10.568   4.363 -3.3976 -3.1404 -2.9398
44167SOL    HW242432   1.667  10.500   4.422 -0.2772  2.3580 -2.4110
44168SOL     OW42433  11.511   5.611   9.367  0.0151 -0.0809  0.1218
44168SOL    HW142434  11.485   5.653   9.448 -1.9372  0.2761 -0.6364
44168SOL    HW242435  11.474   5.666   9.298  1.5406 -0.4146 -1.0378
44169SOL     OW42436   0.170  10.909  10.192  0.0651 -0.0297 -0.1240
44169SOL    HW142437   0.252  10.877  10.154  0.3622 -0.1513  0.6011
44169SOL    HW242438   0.176  10.886  10.285 -1.1494 -0.7751 -0.2048
44170SOL     OW42439   7.809   4.332   1.228  0.4119 -0.0838 -0.3384
44170SOL    HW142440   7.752   4.255   1.227  0.4466 -0.1125 -0.0409
44170SOL    HW242441   7.776   4.387   1.157 -0.2153  0.0674  0.0692
44171SOL     OW42442   1.318   4.660   4.712  0.3906 -0.1816  0.1295
44171SOL    HW142443   1.359   4.743   4.735  2.4953 -1.1600  0.0628
44171SOL    HW242444   1.232   4.663   4.755  1.0474  1.3663  1.4117
44172SOL     OW42445   3.436   5.277   2.207 -0.0129 -0.6455  0.2330
44172SOL    HW142446   3.401   5.202   2.256 -0.6956 -0.7919 -0.4673
44172SOL    HW242447   3.502   5.238   2.148  1.9490 -0.2854  2.0598
44173SOL     OW42448  11.156   5.842   7.598 -0.3288 -0.3569 -0.3379
44173SOL    HW142449  11.193   5.930   7.594 -1.3992  0.2214  1.4282
44173SOL    HW242450  11.100   5.836   7.522 -0.3365  0.5402 -0.4130
44174SOL     OW42451   2.154   5.048   4.665 -1.3021 -0.0877 -0.0121
44174SOL    HW142452   2.122   5.092   4.744  0.8172  1.4521  0.0650
44174SOL    HW242453   2.238   5.010   4.691 -1.1201 -0.5575 -1.2268
44175SOL     OW42454   4.799  12.932   6.432 -0.0579  0.1015 -0.0261
44175SOL    HW142455   4.893  12.916   6.442 -0.1545 -0.7629 -0.4550
44175SOL    HW242456   4.790  12.971   6.345 -0.0451  0.7153  0.2380
44176SOL     OW42457   3.918   6.047   8.300  0.0187 -0.2759 -0.6929
44176SOL    HW142458   3.897   6.111   8.368  2.3085 -0.5925  0.4055
44176SOL    HW242459   3.911   5.962   8.344  0.4869 -0.5496 -1.1321
44177SOL     OW42460  13.173   5.371   6.793 -0.5820  0.7002 -0.2465
44177SOL    HW142461  13.133   5.440   6.846 -0.6699 -0.1965  0.8869
44177SOL    HW242462  13.220   5.317   6.856  0.1723  0.1863 -1.2228
44178SOL     OW42463   6.395  11.598   3.003 -0.9178  0.6740  0.6710
44178SOL    HW142464   6.457  11.582   2.932  1.1503  2.3104  1.9900
44178SOL    HW242465   6.450  11.626   3.077 -3.1422  0.9501  2.3207
44179SOL     OW42466   9.715   9.662   3.621 -0.1707  0.0045 -0.1112
44179SOL    HW142467   9.798   9.684   3.579  0.0846  0.8156  0.7670
44179SOL    HW242468   9.688   9.579   3.581  0.7770  0.0198 -0.8067
44180SOL     OW42469   2.968   7.581   9.746  0.2384 -0.2099  0.4039
44180SOL    HW142470   2.981   7.617   9.834  0.6428  0.5321  0.0561
44180SOL    HW242471   2.889   7.527   9.753 -0.6858  1.1464  0.8440
44181SOL     OW42472   4.926   4.722   5.889  0.5155  0.7127 -0.3756
44181SOL    HW142473   5.005   4.672   5.869  1.3072  1.2131  1.3214
44181SOL    HW242474   4.880   4.729   5.806  1.1844 -1.4175 -0.9803
44182SOL     OW42475   1.594  10.947  10.937  0.4677 -0.0328  0.1560
44182SOL    HW142476   1.509  10.926  10.977  0.5727 -1.0713 -0.1467
44182SOL    HW242477   1.657  10.937  11.009  0.5406 -1.0031 -0.0252
44183SOL     OW42478   3.201  12.303   9.842  0.1766 -0.1359 -0.2422
44183SOL    HW142479   3.273  12.287   9.902 -1.1117 -1.9136  0.9360
44183SOL    HW242480   3.154  12.378   9.879  1.2551  0.8946 -0.9045
44184SOL     OW42481   4.220   9.586  11.554 -0.5750  0.5023  0.7504
44184SOL    HW142482   4.240   9.550  11.641 -1.0600  1.1741  1.1567
44184SOL    HW242483   4.263   9.672  11.554  0.4665 -0.0009 -0.1556
44185SOL     OW42484   5.654  12.772   3.768 -0.1226 -0.5366 -0.2901
44185SOL    HW142485   5.564  12.739   3.762 -0.0448 -1.0489  1.0396
44185SOL    HW242486   5.652  12.856   3.722 -1.2031 -0.6889 -0.5535
44186SOL     OW42487  11.558  11.904  12.908  0.2199 -0.0049 -0.4223
44186SOL    HW142488  11.512  11.824  12.885 -0.8012  0.0890  1.0895
44186SOL    HW242489  11.547  11.911  13.003  1.2745  1.3260 -0.3645
44187SOL     OW42490   6.169   1.333   1.465  0.5175  0.3084 -0.2966
44187SOL    HW142491   6.075   1.323   1.448  0.2521 -0.8153  1.4851
44187SOL    HW242492   6.180   1.302   1.555  2.8667 -1.2033 -1.0170
44188SOL     OW42493   2.013   0.915   6.790  0.1928 -0.0697 -0.1668
44188SOL    HW142494   2.077   0.890   6.723 -1.9051  0.7350 -2.6560
44188SOL    HW242495   1.982   1.001   6.762 -3.0065 -1.0320  0.0130
44189SOL     OW42496  10.898   0.028  11.724 -0.0554  0.6297 -0.1424
44189SOL    HW142497  10.966   0.043  11.790 -0.4156 -1.1985  0.6946
44189SOL    HW242498  10.942   0.043  11.641  1.3432 -0.3718  0.3880
44190SOL     OW42499  10.091   7.096   4.726  0.0469  0.2030  0.4526
44190SOL    HW142500  10.019   7.047   4.766 -1.4584  1.5845 -0.4216
44190SOL    HW242501  10.106   7.053   4.642 -1.7217  1.4968 -0.6127
44191SOL     OW42502   8.894   5.250  10.237  0.2345  0.2355 -0.1492
44191SOL    HW142503   8.948   5.181  10.275  0.5412  0.5580  0.0034
44191SOL    HW242504   8.805   5.228  10.264  0.5260  0.9298  1.4857
44192SOL     OW42505   1.787   4.671   4.043 -0.3772  0.2619 -0.4295
44192SOL    HW142506   1.761   4.760   4.021 -0.0265  0.6558  0.7121
44192SOL    HW242507   1.762   4.660   4.134  1.0287 -0.2376 -0.0710
44193SOL     OW42508   3.810   2.027   1.894 -0.2537  0.0290  0.0951
44193SOL    HW142509   3.798   1.977   1.813  1.8178 -1.1145  0.4433
44193SOL    HW242510   3.737   1.999   1.949 -1.1627  0.1197 -1.0084
44194SOL     OW42511  12.359  10.120   1.716  0.4567 -0.1559  0.1935
44194SOL    HW142512  12.377  10.029   1.690  0.6233 -0.1805  0.3889
44194SOL    HW242513  12.433  10.170   1.682  0.1781 -0.0355 -0.2370
44195SOL     OW42514   8.034   5.692   4.609  0.0035 -0.2975  0.1665
44195SOL    HW142515   8.102   5.675   4.674 -0.7203 -1.3736  0.6848
44195SOL    HW242516   8.054   5.633   4.537 -0.0044 -0.1366  0.0322
44196SOL     OW42517   4.759   6.632   1.995  0.4168 -0.0716  0.5019
44196SOL    HW142518   4.837   6.576   1.994 -0.1797 -0.9258  0.1527
44196SOL    HW242519   4.692   6.579   1.951 -0.4444  0.5224  1.0860
44197SOL     OW42520   1.300   8.363   1.425  0.2886  0.3810  0.5457
44197SOL    HW142521   1.280   8.358   1.519 -0.4215  0.2390  0.3971
44197SOL    HW242522   1.291   8.273   1.394  1.1345  0.3246  0.4562
44198SOL     OW42523   9.375  11.937   2.782  0.0792  0.8994 -0.3291
44198SOL    HW142524   9.311  11.955   2.713 -1.6520 -0.6257  0.7964
44198SOL    HW242525   9.337  11.974   2.861  0.3216 -0.4677  0.4622
44199SOL     OW42526   5.855  11.538   6.525 -0.7587 -0.8058  0.3593
44199SOL    HW142527   5.914  11.611   6.507 -2.8295  0.5821 -1.3420
44199SOL    HW242528   5.840  11.542   6.619  0.6072 -0.2124  0.5793
44200SOL     OW42529   5.689   3.262   7.658  0.4935 -0.1525 -0.1755
44200SOL    HW142530   5.616   3.201   7.646 -0.3441  1.2318 -2.7268
44200SOL    HW242531   5.652   3.334   7.709  0.5064 -0.1602 -0.1552
44201SOL     OW42532  10.292   7.699   0.644 -0.2181 -0.1056  0.3728
44201SOL    HW142533  10.375   7.665   0.677  0.5248  1.9417  0.7720
44201SOL    HW242534  10.316   7.756   0.571 -1.3128  0.1198  0.1667
44202SOL     OW42535  13.225   7.804   8.446 -0.2962 -0.6508  0.0052
44202SOL    HW142536  13.174   7.724   8.461 -1.6248  0.3171  0.8701
44202SOL    HW242537  13.299   7.796   8.507  0.0290 -1.5727 -0.4846
44203SOL     OW42538   7.387   3.026   0.227  0.6055  0.1592  0.2726
44203SOL    HW142539   7.444   3.102   0.239 -1.2206  1.5998  0.3309
44203SOL    HW242540   7.308   3.062   0.188 -0.3854 -1.7099  0.4467
44204SOL     OW42541   3.733   7.133  13.276 -0.2251  0.2227 -0.4312
44204SOL    HW142542   3.695   7.051  13.308  1.2388 -0.4866 -0.4199
44204SOL    HW242543   3.661   7.196  13.280 -0.4154 -0.0556  3.2808
44205SOL     OW42544   4.331  12.502   2.585  0.0050 -0.1016  0.4814
44205SOL    HW142545   4.252  12.452   2.564 -0.4668  1.1356 -0.9106
44205SOL    HW242546   4.380  12.505   2.503 -0.1221  1.8748  0.4120
44206SOL     OW42547   2.360  11.591   4.026 -0.1698 -0.7838  0.4880
44206SOL    HW142548   2.336  11.500   4.045  1.1774 -1.1192  0.7009
44206SOL    HW242549   2.426  11.585   3.957  2.2350 -0.2278  2.5904
44207SOL     OW42550   7.637  11.837   5.081 -0.2215  0.6979  0.1866
44207SOL    HW142551   7.712  11.888   5.112  0.6740  0.9095 -2.1058
44207SOL    HW242552   7.626  11.768   5.146 -0.0839  2.5058  2.2248
44208SOL     OW42553   2.008   6.125   4.996 -0.0905  0.1114  0.2959
44208SOL    HW142554   2.021   6.052   5.058  0.2462 -0.0547  0.0330
44208SOL    HW242555   2.053   6.097   4.916 -0.7864  0.1920 -0.1327
44209SOL     OW42556  12.680   5.404   5.494  0.7364 -0.7802  0.1628
44209SOL    HW142557  12.632   5.471   5.542  1.2655 -0.9691  0.9683
44209SOL    HW242558  12.755   5.450   5.457  0.7656 -0.8059  0.1899
44210SOL     OW42559   6.955  12.052  11.180 -0.3264 -0.0644  0.9816
44210SOL    HW142560   6.991  12.136  11.211  1.2407  0.1017 -1.1022
44210SOL    HW242561   6.927  12.070  11.091 -0.6989 -1.5851  0.7765
44211SOL     OW42562   1.009   5.036   6.105  0.1492 -0.3577  0.0325
44211SOL    HW142563   1.090   5.047   6.155 -0.0094  1.7511 -0.1190
44211SOL    HW242564   0.941   5.076   6.159 -0.7164 -1.5573 -0.1224
44212SOL     OW42565   4.590   3.953  11.100  0.2973 -0.1778 -0.2333
44212SOL    HW142566   4.641   3.906  11.165  0.0827 -0.8286 -0.5196
44212SOL    HW242567   4.543   4.021  11.149 -1.3845 -1.8759  0.6499
44213SOL     OW42568   0.284   3.567   6.708  0.6390  0.2987  0.0848
44213SOL    HW142569   0.366   3.598   6.669  2.4120 -1.5751  2.0698
44213SOL    HW242570   0.243   3.645   6.744  1.7000  1.2295 -0.6820
44214SOL     OW42571   5.467   9.590   8.420  0.5573 -0.5752 -0.8520
44214SOL    HW142572   5.561   9.601   8.403  0.6255 -0.8180 -0.6382
44214SOL    HW242573   5.424   9.637   8.348  0.8434 -1.1323 -1.4000
44215SOL     OW42574  10.330   2.654  12.733  0.3108 -0.4434 -0.3973
44215SOL    HW142575  10.399   2.598  12.768  0.0006 -1.3799 -1.2244
44215SOL    HW242576  10.291   2.695  12.810  0.6838 -1.2231  0.2243
44216SOL     OW42577   6.914  13.043   5.712 -0.5578  0.0809  0.3677
44216SOL    HW142578   6.883  12.954   5.725 -1.9690  0.4657 -0.1285
44216SOL    HW242579   6.918  13.081   5.800 -1.1041 -0.1236  0.4862
44217SOL     OW42580  13.077   1.222   2.873  0.4256 -0.0301  0.2160
44217SOL    HW142581  13.067   1.138   2.917 -1.5149 -0.3386 -0.6796
44217SOL    HW242582  12.990   1.240   2.837  1.0363  1.9220 -0.4007
44218SOL     OW42583   1.942   9.421   0.616  0.1061 -0.2301 -0.6226
44218SOL    HW142584   1.939   9.486   0.545  1.3424 -0.3660 -0.8182
44218SOL    HW242585   2.028   9.433   0.656  0.0947 -1.3125 -0.2468
44219SOL     OW42586   4.709   5.998   0.331  1.0451  0.4966  0.3126
44219SOL    HW142587   4.741   6.087   0.316  1.2505  0.3657 -0.0367
44219SOL    HW242588   4.687   5.995   0.424 -0.1223  1.2965  0.0931
44220SOL     OW42589  10.393   5.117   5.137  0.8686 -0.5109  0.0113
44220SOL    HW142590  10.488   5.110   5.145  0.8237 -0.2312  0.8706
44220SOL    HW242591  10.375   5.211   5.138  0.6252 -0.5324 -0.8463
44221SOL     OW42592   1.800   2.750   7.701 -0.8180  0.4683  0.0155
44221SOL    HW142593   1.706   2.734   7.687 -1.0748  1.8009  0.0622
44221SOL    HW242594   1.843   2.705   7.629 -1.4265 -0.7774  0.3984
44222SOL     OW42595   2.994   4.561   1.926 -0.5490  0.0904  0.2191
44222SOL    HW142596   2.999   4.648   1.886 -0.8670 -1.2853 -3.1826
44222SOL    HW242597   2.922   4.567   1.987  0.5275  2.6360  1.4043
44223SOL     OW42598   7.410  10.770  10.015  0.4436 -0.0537  0.2124
44223SOL    HW142599   7.342  10.800   9.954 -0.2966  0.7280  1.3727
44223SOL    HW242600   7.384  10.681  10.037  1.1511 -0.6425 -1.1710
44224SOL     OW42601   5.726   7.456   0.081 -0.1645  0.3695 -0.4379
44224SOL    HW142602   5.709   7.525   0.017 -0.4153  0.0466 -0.7202
44224SOL    HW242603   5.705   7.496   0.166  0.1238  0.7819 -0.5592
44225SOL     OW42604   1.556   9.494   3.283 -0.0500  0.3756  0.0727
44225SOL    HW142605   1.528   9.406   3.307 -1.6087  0.2687 -1.8693
44225SOL    HW242606   1.527   9.550   3.356  1.4354 -0.7220  1.5765
44226SOL     OW42607  11.279   0.110   4.686 -0.1031  0.2534 -0.1097
44226SOL    HW142608  11.299   0.174   4.754 -0.7785  0.1236  0.2202
44226SOL    HW242609  11.250   0.163   4.612 -0.4362  0.3455  0.0836
44227SOL     OW42610   9.534   2.772   2.610 -0.2856 -0.5230 -0.3730
44227SOL    HW142611   9.510   2.729   2.528 -1.1082 -1.1472  0.1751
44227SOL    HW242612   9.489   2.856   2.606 -0.6710 -0.7247 -0.3832
44228SOL     OW42613  11.643   9.643  13.030 -0.5598 -0.1508 -0.4758
44228SOL    HW142614  11.653   9.681  13.118  0.7450  1.5406 -1.2990
44228SOL    HW242615  11.552   9.660  13.007 -0.6909  0.1347  0.2164
44229SOL     OW42616   4.730  10.211   5.405 -0.0830  0.0862 -0.3438
44229SOL    HW142617   4.685  10.233   5.324  1.1603 -1.4008 -1.4933
44229SOL    HW242618   4.799  10.277   5.413  0.6668 -0.5564 -1.2694
44230SOL     OW42619  11.131  10.636  10.080  0.0914  0.3951  0.3917
44230SOL    HW142620  11.043  10.670  10.094  0.0784 -0.1476  1.7263
44230SOL    HW242621  11.158  10.675   9.997 -1.4030  0.5603 -0.0507
44231SOL     OW42622   9.997   5.905   3.505 -0.5805 -0.1721 -0.0753
44231SOL    HW142623  10.025   5.954   3.582 -1.4139 -1.9723  1.4631
44231SOL    HW242624  10.037   5.950   3.431  2.1869  0.2814  1.5735
44232SOL     OW42625   3.106   8.895   4.294 -0.2847 -0.5225 -0.2802
44232SOL    HW142626   3.164   8.899   4.218  0.0606  1.3506  0.0219
44232SOL    HW242627   3.164   8.872   4.366  0.7584  3.4825  0.4500
44233SOL     OW42628  10.859  12.423   6.564  0.2224 -0.3444  0.3520
44233SOL    HW142629  10.948  12.454   6.579  0.7275 -2.0742  1.1800
44233SOL    HW242630  10.805  12.478   6.620  0.4750  1.9424 -1.5052
44234SOL     OW42631   6.054  12.521   1.710  0.1963  0.0460  0.0610
44234SOL    HW142632   6.041  12.513   1.616  0.6599  0.8626 -0.0751
44234SOL    HW242633   6.149  12.525   1.721  0.1090  1.0896  0.4685
44235SOL     OW42634  13.271   2.197   3.965  0.8744 -0.1455  0.0144
44235SOL    HW142635  13.250   2.220   3.875  0.9430  1.2949  0.3431
44235SOL    HW242636  13.202   2.238   4.017 -0.2610 -2.5372  0.5326
44236SOL     OW42637   7.234   7.015   7.550  0.8217 -0.5013  0.4847
44236SOL    HW142638   7.290   7.068   7.493  0.6613 -1.3523 -0.4995
44236SOL    HW242639   7.296   6.969   7.607  0.9387  1.1004  1.7117
44237SOL     OW42640   9.822   8.778   8.029  0.5577 -0.1691 -0.1525
44237SOL    HW142641   9.877   8.851   8.056 -0.5295  1.6083 -2.4127
44237SOL    HW242642   9.871   8.737   7.957 -0.4445  0.7013 -1.3845
44238SOL     OW42643   6.561   5.863  10.749  0.3099 -0.0304  0.8585
44238SOL    HW142644   6.600   5.776  10.745 -0.3422 -0.3822  1.7150
44238SOL    HW242645   6.466   5.846  10.753 -0.0618  0.8073 -2.1558
44239SOL     OW42646   4.485   4.507   9.854  0.1378 -0.3251 -0.3385
44239SOL    HW142647   4.522   4.534   9.770 -3.1911  2.7569 -1.0438
44239SOL    HW242648   4.485   4.586   9.908  0.3188 -1.7381  1.8697
44240SOL     OW42649   6.962   1.737   3.012  0.1439 -0.1189  0.9091
44240SOL    HW142650   6.958   1.672   2.942  0.6558 -0.9137  1.6146
44240SOL    HW242651   6.878   1.784   3.005  0.6205  0.5275 -0.9025
44241SOL     OW42652   1.345  12.472  11.464 -0.0580  0.3064  0.7252
44241SOL    HW142653   1.259  12.504  11.433  0.2308  0.5755  0.1834
44241SOL    HW242654   1.402  12.548  11.456  0.1564  0.2217  1.4135
44242SOL     OW42655  12.409   0.847   0.735 -0.0284  0.5499  0.1820
44242SOL    HW142656  12.486   0.894   0.704 -0.4692  0.2843 -1.3933
44242SOL    HW242657  12.422   0.757   0.707 -0.8088  0.4628  0.0726
44243SOL     OW42658   7.456  11.515   7.413 -0.3368 -0.6531 -0.1384
44243SOL    HW142659   7.431  11.427   7.441  0.1528 -0.6135  0.4435
44243SOL    HW242660   7.544  11.504   7.378 -0.3122 -0.4117 -0.1513
44244SOL     OW42661   6.786   4.899   2.725  0.1459 -0.5050  0.2554
44244SOL    HW142662   6.770   4.940   2.810  0.6607  1.3387 -0.4790
44244SOL    HW242663   6.719   4.831   2.718 -0.0005 -0.5956  2.0500
44245SOL     OW42664   6.084  10.202  10.802 -0.0349  0.2271 -0.2567
44245SOL    HW142665   6.087  10.191  10.707 -1.4053  0.9899 -0.4176
44245SOL    HW242666   6.169  10.169  10.832 -0.4799 -2.2808 -1.4816
44246SOL     OW42667  10.318   3.368   3.065  0.0421 -0.0255 -0.2964
44246SOL    HW142668  10.313   3.294   3.006  1.3471 -0.3466 -0.0404
44246SOL    HW242669  10.227   3.391   3.084 -0.3753 -1.3794 -0.5981
44247SOL     OW42670   6.996   9.323   9.065  0.4274 -0.4583  0.2552
44247SOL    HW142671   7.083   9.310   9.029 -0.2762 -1.4755 -1.1905
44247SOL    HW242672   6.991   9.416   9.085  1.7949 -0.3701  0.2313
44248SOL     OW42673  10.844   0.350  10.941  0.3291  0.6478 -0.0245
44248SOL    HW142674  10.772   0.403  10.974  0.3865  1.1874 -0.7546
44248SOL    HW242675  10.923   0.395  10.972  0.3770  0.9774 -0.6138
44249SOL     OW42676   8.352   2.056   8.199  0.8362 -0.1797  0.3147
44249SOL    HW142677   8.327   2.148   8.207 -0.1886 -0.5593  1.9631
44249SOL    HW242678   8.315   2.029   8.115  1.1534  0.9050 -0.1975
44250SOL     OW42679   5.729   3.146   4.918 -0.2960  0.7517 -0.0001
44250SOL    HW142680   5.653   3.162   4.862 -0.2151  1.4016  0.0646
44250SOL    HW242681   5.691   3.113   5.000 -0.4971  0.9026 -0.0314
44251SOL     OW42682   7.569   6.017   4.689  0.6507 -0.1485  0.7258
44251SOL    HW142683   7.579   5.952   4.619 -1.3954  0.6951 -0.4161
44251SOL    HW242684   7.652   6.064   4.689  0.0419  1.2413 -2.6838
44252SOL     OW42685   1.439   4.952   2.051 -0.3694 -1.0056 -0.1603
44252SOL    HW142686   1.505   4.901   2.004 -0.1770 -1.1145  0.2189
44252SOL    HW242687   1.365   4.958   1.991 -0.1011 -1.0836 -0.4991
44253SOL     OW42688  10.625  10.811  10.159 -0.5674 -0.1660 -0.0496
44253SOL    HW142689  10.536  10.778  10.169 -0.5645  0.1601  1.1836
44253SOL    HW242690  10.618  10.878  10.091 -1.3346  0.0736  0.2537
44254SOL     OW42691   6.130   0.269   8.606 -0.6068  0.1149  0.2344
44254SOL    HW142692   6.198   0.202   8.620  1.0807  1.3082 -1.6504
44254SOL    HW242693   6.099   0.290   8.694  3.0007  0.9909  1.4938
44255SOL     OW42694   3.412  11.905   3.324 -0.0744 -0.1693 -0.1539
44255SOL    HW142695   3.386  11.846   3.394 -1.3225  1.0436  0.4455
44255SOL    HW242696   3.331  11.920   3.274  0.1916  1.0833 -0.2347
44256SOL     OW42697   4.608   8.394   1.050 -0.1276  0.1553 -0.7198
44256SOL    HW142698   4.529   8.340   1.057 -0.0050 -0.0518 -0.9509
44256SOL    HW242699   4.680   8.333   1.062 -0.0162  0.6629  1.6688
44257SOL     OW42700  11.142   4.787   5.755  0.9982  0.0105  0.6078
44257SOL    HW142701  11.204   4.771   5.683  2.6669  2.3075  1.4117
44257SOL    HW242702  11.062   4.815   5.711  1.5022 -0.0450 -0.3818
44258SOL     OW42703   6.532   1.919  10.287  0.1995 -0.1505  0.0107
44258SOL    HW142704   6.453   1.868  10.303  0.1536 -0.1562 -0.2230
44258SOL    HW242705   6.566   1.939  10.374  0.2283 -0.5959  0.1059
44259SOL     OW42706  10.454   6.997   1.396 -0.2934 -0.6589 -0.2262
44259SOL    HW142707  10.461   6.905   1.423 -2.1040 -0.6742  0.3305
44259SOL    HW242708  10.361   7.009   1.376 -0.2876  1.3124  0.6646
44260SOL     OW42709   2.156   5.368  11.633 -0.2268 -0.5298 -0.3270
44260SOL    HW142710   2.096   5.439  11.610  0.1886  0.5536  1.7692
44260SOL    HW242711   2.120   5.291  11.589 -2.8951  0.1709  0.5022
44261SOL     OW42712  10.251   6.344  12.549 -0.1897  0.0280  0.3112
44261SOL    HW142713  10.314   6.319  12.617 -0.7456 -0.7284  0.5642
44261SOL    HW242714  10.175   6.377  12.598  0.1756  1.3699 -0.0016
44262SOL     OW42715   2.492   4.399  10.503  0.4874  0.5486  0.9364
44262SOL    HW142716   2.477   4.305  10.509  0.8384  0.2676 -1.5069
44262SOL    HW242717   2.414   4.434  10.460  0.6851  1.2712  1.1410
44263SOL     OW42718   2.407   7.257   2.941 -0.5045 -0.7689 -0.1343
44263SOL    HW142719   2.462   7.228   2.868 -0.0244 -1.3087  0.4289
44263SOL    HW242720   2.321   7.273   2.901 -0.2474 -1.0323 -0.8181
44264SOL     OW42721   3.147  11.906  10.298  0.2697  0.1253 -0.0953
44264SOL    HW142722   3.242  11.910  10.294  0.2062  1.0173 -1.2382
44264SOL    HW242723   3.117  11.983  10.250 -1.0307 -0.1802  0.1683
44265SOL     OW42724   5.078   2.898   2.660 -0.3409  0.5822  0.1010
44265SOL    HW142725   5.067   2.805   2.681 -0.1414  0.3168 -0.8975
44265SOL    HW242726   5.077   2.900   2.564  1.9530  1.3169  0.0493
44266SOL     OW42727   3.606  11.263   2.908  0.1218  0.3030  0.5960
44266SOL    HW142728   3.512  11.249   2.914 -0.4535 -0.8880 -5.3541
44266SOL    HW242729   3.616  11.359   2.911 -1.0143  0.4116  2.4253
44267SOL     OW42730   2.664   1.615   0.050  0.5016 -0.1167  0.5680
44267SOL    HW142731   2.671   1.664  -0.032 -2.8016  0.6722  0.6421
44267SOL    HW242732   2.686   1.525   0.026  4.0754  0.7645 -0.1137
44268SOL     OW42733   2.157   2.498  10.998 -0.6663  0.0869  0.0560
44268SOL    HW142734   2.222   2.555  10.958 -1.4231  1.3793  0.6155
44268SOL    HW242735   2.129   2.439  10.927  1.2350 -0.6548 -0.1412
44269SOL     OW42736  12.517   4.354   7.282 -0.3379 -0.0805 -0.3129
44269SOL    HW142737  12.466   4.330   7.205  1.0854 -0.9676 -1.0115
44269SOL    HW242738  12.515   4.450   7.283 -1.2960 -0.0832 -0.7837
44270SOL     OW42739   1.199  13.291  12.459 -0.2129  0.0077 -0.2981
44270SOL    HW142740   1.258  13.310  12.386 -0.2659  0.9347 -0.1040
44270SOL    HW242741   1.228  13.205  12.490  0.2351 -0.0995 -0.9885
44271SOL     OW42742   7.480   3.766   6.165 -0.2898  1.0253  0.0901
44271SOL    HW142743   7.554   3.806   6.119  0.2961  0.7188  0.7320
44271SOL    HW242744   7.409   3.765   6.101  0.4345  0.7973 -0.7335
44272SOL     OW42745   3.696   8.365   8.656  0.0892  0.2504 -0.3418
44272SOL    HW142746   3.652   8.321   8.583  0.0597  0.5276 -0.4935
44272SOL    HW242747   3.625   8.392   8.714  0.0602  0.6130 -0.5395
44273SOL     OW42748   5.695  13.209   6.387  0.3063  0.0328  0.2230
44273SOL    HW142749   5.630  13.253   6.332 -0.1217 -1.3607 -0.4631
44273SOL    HW242750   5.780  13.241   6.355  0.1451 -1.7283 -2.2834
44274SOL     OW42751   7.270   1.816   7.292  0.7022  0.2641 -0.2479
44274SOL    HW142752   7.327   1.739   7.285  0.3047 -0.3094  1.9902
44274SOL    HW242753   7.322   1.880   7.341  0.8143  1.2374 -1.5890
44275SOL     OW42754   0.813   9.922   1.864  0.1875  1.1372 -0.2284
44275SOL    HW142755   0.870   9.972   1.805 -0.8613  0.4370 -1.9267
44275SOL    HW242756   0.724   9.951   1.840 -0.3053  0.2898  0.5265
44276SOL     OW42757   5.653  11.845   2.728 -0.5583  0.0562 -0.0012
44276SOL    HW142758   5.656  11.840   2.633 -0.2602 -0.8754  0.0464
44276SOL    HW242759   5.743  11.830   2.756 -0.5156  1.0301  0.4062
44277SOL     OW42760   3.904  10.680  13.171  0.4275 -0.0325 -0.2609
44277SOL    HW142761   3.984  10.674  13.118 -0.9722  1.3534 -2.7551
44277SOL    HW242762   3.891  10.774  13.185 -0.8982 -0.2047 -0.1694
44278SOL     OW42763   4.368   1.390   5.026  0.0769 -0.5126 -0.4929
44278SOL    HW142764   4.422   1.381   4.947 -0.9012 -2.9098 -1.0101
44278SOL    HW242765   4.291   1.335   5.008 -1.1166  0.4248  1.3811
44279SOL     OW42766   7.267   1.100  13.036 -0.3763 -0.3338  0.2485
44279SOL    HW142767   7.292   1.190  13.058  1.2087 -1.0167  1.4955
44279SOL    HW242768   7.248   1.060  13.120 -1.3639 -1.1040 -0.3273
44280SOL     OW42769   5.449   6.031   2.301  0.2538  0.4074 -0.2475
44280SOL    HW142770   5.358   6.062   2.304  0.3615  0.6553  1.0840
44280SOL    HW242771   5.492   6.090   2.239 -0.6654 -0.2333 -1.5343
44281SOL     OW42772  12.773   3.582  10.840  0.6527  0.0917  0.0121
44281SOL    HW142773  12.742   3.663  10.879 -3.6146 -1.5408  0.5996
44281SOL    HW242774  12.791   3.604  10.748 -0.2644  1.7119  0.1943
44282SOL     OW42775   2.224   0.790  13.040 -0.6363  0.0081  0.0491
44282SOL    HW142776   2.173   0.809  12.961 -1.8203  2.2765  1.2433
44282SOL    HW242777   2.161   0.750  13.099 -0.1952 -0.1337  0.4226
44283SOL     OW42778  10.496  12.806   4.773 -0.1491 -0.7465 -0.0567
44283SOL    HW142779  10.576  12.837   4.731 -0.5472 -0.0611 -0.3254
44283SOL    HW242780  10.514  12.813   4.866  0.3671 -1.3006 -0.1048
44284SOL     OW42781   6.952  10.770   8.517  0.0543 -0.5403  0.3930
44284SOL    HW142782   6.935  10.696   8.460 -0.0966  0.6120 -1.1348
44284SOL    HW242783   7.045  10.766   8.536  0.2560 -0.5237 -0.5716
44285SOL     OW42784   7.715  12.037  10.279  0.7465 -0.3935  0.2880
44285SOL    HW142785   7.703  11.964  10.340 -0.7107 -1.6640 -1.3699
44285SOL    HW242786   7.631  12.043  10.233  1.2841  1.4885 -0.5348
44286SOL     OW42787   1.510   6.750  10.873 -0.4798 -0.2792 -0.0537
44286SOL    HW142788   1.593   6.780  10.911 -0.5785  0.7790 -0.6263
44286SOL    HW242789   1.443   6.788  10.930 -0.5972  0.1059 -0.4443
44287SOL     OW42790   0.763   1.028   9.749  0.4299  0.7356  0.9597
44287SOL    HW142791   0.682   0.991   9.715 -0.0450  2.1390  0.5109
44287SOL    HW242792   0.783   0.974   9.826 -1.0759  0.5438  1.2431
44288SOL     OW42793  10.915  10.810  10.138 -0.2797 -0.4065 -0.4846
44288SOL    HW142794  10.823  10.787  10.146 -0.1946 -0.3374  0.8247
44288SOL    HW242795  10.929  10.878  10.204  0.3533  0.6970 -1.7015
44289SOL     OW42796   8.936   2.673   9.571 -0.4878 -0.1396  0.3668
44289SOL    HW142797   8.920   2.600   9.631 -1.4656 -1.0943 -1.0177
44289SOL    HW242798   8.918   2.638   9.484  0.0923  1.4516 -0.4357
44290SOL     OW42799   7.550   6.023   1.334  0.2855  0.1141  0.6609
44290SOL    HW142800   7.487   6.054   1.399  0.5352  0.1557  0.8857
44290SOL    HW242801   7.568   6.099   1.280 -1.1824 -0.3230 -0.5063
44291SOL     OW42802   8.856  11.817   1.072  0.0395 -0.0984  0.2588
44291SOL    HW142803   8.792  11.828   1.002 -1.3623  2.7978  1.8173
44291SOL    HW242804   8.837  11.730   1.108  0.0354 -1.1632 -2.1384
44292SOL     OW42805  12.249  12.973   2.903 -0.4110  0.7703 -0.0975
44292SOL    HW142806  12.251  12.940   2.993  1.0724 -1.4741 -0.8607
44292SOL    HW242807  12.297  13.055   2.907 -0.1181  0.5562  1.1273
44293SOL     OW42808  12.529   4.916   9.806  0.6389  0.3562 -0.3471
44293SOL    HW142809  12.557   4.972   9.734  1.7190 -0.2258 -0.4054
44293SOL    HW242810  12.514   4.830   9.765  1.0130  0.0867  0.0683
44294SOL     OW42811   7.386   5.507   1.214  0.8763 -0.2980 -0.6385
44294SOL    HW142812   7.436   5.589   1.210  1.3047 -0.5804 -3.5788
44294SOL    HW242813   7.299   5.533   1.242  0.1184  1.8046 -4.2833
44295SOL     OW42814   2.016   9.970  11.595 -0.3381  0.0400  0.2768
44295SOL    HW142815   1.931  10.005  11.624  0.1159  1.4440 -0.0457
44295SOL    HW242816   2.080  10.035  11.623  0.4021  0.1032 -1.4302
44296SOL     OW42817   0.772   4.559  11.975 -0.1903 -0.4048  0.3367
44296SOL    HW142818   0.683   4.589  11.959  0.0704  0.4888  0.5131
44296SOL    HW242819   0.825   4.604  11.910  0.2664 -0.1405  0.8777
44297SOL     OW42820   6.400   5.371   5.000 -0.1247 -0.0783 -0.4503
44297SOL    HW142821   6.316   5.327   4.991  0.7005 -1.6484 -1.1140
44297SOL    HW242822   6.418   5.370   5.094 -0.3550 -0.7637 -0.4057
44298SOL     OW42823   1.536  12.327   4.667  0.3124 -0.0186  0.3977
44298SOL    HW142824   1.517  12.311   4.574 -1.1581 -0.4014  0.7531
44298SOL    HW242825   1.613  12.384   4.665 -0.3331  0.8534 -1.0821
44299SOL     OW42826   2.440  11.180   8.168 -0.2658 -0.1217  0.2760
44299SOL    HW142827   2.421  11.092   8.199 -0.0084  0.0175  0.8399
44299SOL    HW242828   2.523  11.203   8.211 -0.9932  0.9051  1.1826
44300SOL     OW42829   1.486   9.959   5.630 -0.1743  0.6999 -0.5478
44300SOL    HW142830   1.453   9.918   5.550  0.0036  2.6786 -1.6892
44300SOL    HW242831   1.421  10.027   5.651  0.8859  1.6528 -0.2784
44301SOL     OW42832  13.227   7.066   2.617  0.2251  0.2039 -0.5133
44301SOL    HW142833  13.236   7.006   2.691  0.8947  1.4709  0.4895
44301SOL    HW242834  13.272   7.023   2.545 -0.1667 -0.9196 -0.0979
44302SOL     OW42835   3.589   2.738   5.592  0.6468  0.9802  0.2737
44302SOL    HW142836   3.600   2.825   5.554 -0.1082  0.5490 -1.0068
44302SOL    HW242837   3.599   2.678   5.518 -0.6281  0.0826  0.7953
44303SOL     OW42838   9.127   6.971   5.549 -0.3933  0.7871 -0.1628
44303SOL    HW142839   9.219   6.987   5.570 -0.4513  2.0995 -0.8457
44303SOL    HW242840   9.112   7.020   5.469 -1.2987 -0.6597 -0.9291
44304SOL     OW42841  12.570   3.480  11.747 -0.5020  0.0575  0.4008
44304SOL    HW142842  12.635   3.412  11.728  0.9800  1.8466 -1.4322
44304SOL    HW242843  12.567   3.485  11.842 -1.3035 -3.0665  0.6542
44305SOL     OW42844  10.266  12.613   4.968  0.1278 -0.2849  0.1704
44305SOL    HW142845  10.239  12.584   5.056  2.1815 -0.8574  0.6569
44305SOL    HW242846  10.187  12.602   4.915 -1.1094 -0.1408  1.8822
44306SOL     OW42847   2.938   7.353   2.947  0.3669 -0.3052  0.3812
44306SOL    HW142848   2.939   7.449   2.939 -2.2513  0.0709  2.8308
44306SOL    HW242849   2.858   7.326   2.903  1.6988 -1.5840 -1.3618
44307SOL     OW42850   1.663   3.289  11.428  0.2131  0.1139  0.2803
44307SOL    HW142851   1.734   3.232  11.458 -0.9362 -1.3533  0.3617
44307SOL    HW242852   1.635   3.250  11.345 -0.5725  0.5952  0.3095
44308SOL     OW42853   1.193   3.150   7.656  0.2072 -0.1572  0.2901
44308SOL    HW142854   1.113   3.099   7.649 -0.4738  1.0683 -1.6246
44308SOL    HW242855   1.164   3.241   7.661  1.4563  0.2620  0.3497
44309SOL     OW42856   7.994   0.044   9.864 -0.3045 -0.2254  0.4953
44309SOL    HW142857   7.986   0.134   9.832 -2.1147 -0.7105 -0.5635
44309SOL    HW242858   7.996   0.052   9.959  0.7643  0.9847  0.4037
44310SOL     OW42859   8.742  10.647  12.627  0.4590 -0.4674 -0.7921
44310SOL    HW142860   8.713  10.558  12.607 -0.8170 -0.2440 -0.0575
44310SOL    HW242861   8.679  10.704  12.582  1.8965  0.1232 -2.1832
44311SOL     OW42862   5.276   6.152   3.866  0.3502 -0.5883  0.6690
44311SOL    HW142863   5.220   6.079   3.894 -0.1068 -0.2614  0.6103
44311SOL    HW242864   5.277   6.146   3.770  0.8493 -0.9114  0.6880
44312SOL     OW42865   1.254   7.592   0.964 -0.3160  0.9001 -0.7605
44312SOL    HW142866   1.329   7.534   0.949 -0.2642  0.1005  1.9290
44312SOL    HW242867   1.183   7.554   0.914  0.5597  0.5278 -1.7714
44313SOL     OW42868  12.043   8.521   1.399 -0.2274  0.0560  0.6059
44313SOL    HW142869  12.103   8.592   1.373 -0.2228 -0.3235 -0.4517
44313SOL    HW242870  11.984   8.511   1.324 -1.0172 -0.2356  1.2479
44314SOL     OW42871  11.658  10.004   4.740 -0.2745  0.4992 -0.0724
44314SOL    HW142872  11.587  10.045   4.691  0.9289  0.9100 -1.5696
44314SOL    HW242873  11.687  10.071   4.802  0.2499  1.1673 -1.0077
44315SOL     OW42874   8.908   3.120   4.226  0.4574  0.3324  0.0712
44315SOL    HW142875   8.852   3.124   4.149  1.4781  1.6264 -0.6496
44315SOL    HW242876   8.989   3.163   4.199  0.9779  0.4838  1.7541
44316SOL     OW42877   3.104   9.546   5.231  0.2499  0.1057 -0.2166
44316SOL    HW142878   3.162   9.470   5.236 -0.4756 -0.4897 -0.5400
44316SOL    HW242879   3.162   9.621   5.220  0.9781 -0.4076  0.0682
44317SOL     OW42880   8.383   1.475  10.240 -0.0678 -0.2678 -0.0596
44317SOL    HW142881   8.445   1.419  10.192 -0.9870 -0.8093 -0.6388
44317SOL    HW242882   8.361   1.544  10.178  1.1591  0.8439  0.6970
44318SOL     OW42883  12.479  11.766   2.370  0.6534  0.4618 -0.2519
44318SOL    HW142884  12.534  11.693   2.342  1.7658  0.4940  1.6603
44318SOL    HW242885  12.539  11.825   2.415 -0.5707  1.6095 -0.0645
44319SOL     OW42886   8.068  10.788   1.563  0.4259  0.0803  0.1005
44319SOL    HW142887   8.086  10.882   1.554 -0.2417  0.2640  0.6121
44319SOL    HW242888   8.047  10.777   1.656 -3.3976  0.1134 -0.6341
44320SOL     OW42889   3.815   9.984   9.388  0.2363 -0.6729 -0.2611
44320SOL    HW142890   3.787  10.069   9.423  1.0244 -0.6437  0.3395
44320SOL    HW242891   3.843   9.935   9.465  0.2820 -1.2911 -0.6645
44321SOL     OW42892   8.268   5.629   3.334 -0.6621 -0.8157  0.4618
44321SOL    HW142893   8.321   5.684   3.391  0.8031 -1.3857 -0.3015
44321SOL    HW242894   8.294   5.540   3.356 -0.2540 -1.0552 -0.9073
44322SOL     OW42895   9.838  12.981   3.138 -0.0388  0.1429 -0.3474
44322SOL    HW142896   9.914  12.930   3.166 -0.7888 -1.2800 -0.7959
44322SOL    HW242897   9.838  12.973   3.042  0.3351  1.7648 -0.5117
44323SOL     OW42898   9.431  11.362   5.078 -0.6814 -0.1778  0.2085
44323SOL    HW142899   9.439  11.312   5.159  0.4454 -0.6947 -0.1929
44323SOL    HW242900   9.517  11.402   5.065 -0.4970 -0.9594 -1.2561
44324SOL     OW42901   3.415  11.763   8.234  0.8005  0.4370  0.5160
44324SOL    HW142902   3.459  11.682   8.256 -1.0196 -1.2417 -1.5412
44324SOL    HW242903   3.466  11.799   8.162 -0.2603 -0.7499 -0.8884
44325SOL     OW42904  13.227   3.152   5.802  0.1010  0.6005 -0.5245
44325SOL    HW142905  13.219   3.160   5.707  0.1056 -0.9784 -0.6916
44325SOL    HW242906  13.297   3.088   5.815 -0.3632  0.2731  0.5154
44326SOL     OW42907  10.236   8.787   6.907  0.1318 -0.0868  0.4697
44326SOL    HW142908  10.189   8.781   6.990 -1.8093  1.8794 -0.3873
44326SOL    HW242909  10.317   8.832   6.929  0.5424 -1.3053  1.5792
44327SOL     OW42910   3.022   8.300  12.524  0.5914 -0.3682  0.4046
44327SOL    HW142911   3.029   8.222  12.470 -3.4231  1.1042 -2.7964
44327SOL    HW242912   3.092   8.358  12.493  0.6587 -0.9598 -0.5756
44328SOL     OW42913   1.734   3.965   7.659  0.4862 -0.1470  0.0852
44328SOL    HW142914   1.704   3.919   7.581  0.9544  0.6340 -0.5678
44328SOL    HW242915   1.674   3.936   7.728 -1.4331  0.9553 -1.0498
44329SOL     OW42916  10.326   6.878   4.800 -0.2286  0.7344  0.0331
44329SOL    HW142917  10.337   6.966   4.765 -0.0293  0.6174 -0.2005
44329SOL    HW242918  10.389   6.825   4.752  0.0939  0.5800  0.6074
44330SOL     OW42919  12.733  11.085   0.132 -0.4043  0.5170  0.1578
44330SOL    HW142920  12.769  11.094   0.043  1.0101 -2.0254  0.3588
44330SOL    HW242921  12.639  11.072   0.119 -0.7947  3.5272 -0.6649
44331SOL     OW42922  10.791  10.272   4.912  0.3430 -0.2030 -0.1507
44331SOL    HW142923  10.768  10.223   4.833 -0.2838  0.7118 -0.5454
44331SOL    HW242924  10.880  10.302   4.897 -0.2821  1.2491 -1.1919
44332SOL     OW42925   6.462  13.315   9.844 -0.0650  0.3693 -0.2977
44332SOL    HW142926   6.506  13.373   9.905  0.1930  1.7008 -1.6855
44332SOL    HW242927   6.528  13.297   9.776 -0.9503  0.5541 -1.2283
44333SOL     OW42928   7.997   7.299   5.883  0.3128 -0.1520  0.0181
44333SOL    HW142929   7.946   7.219   5.875  0.1703 -0.1755  1.0557
44333SOL    HW242930   8.087   7.273   5.864 -0.1527  0.1077 -2.9776
44334SOL     OW42931   3.518   4.817   7.790  0.1430  0.4482 -0.3351
44334SOL    HW142932   3.489   4.873   7.862 -1.0663 -0.0143 -0.4398
44334SOL    HW242933   3.445   4.818   7.728  1.2016  0.9303 -1.6281
44335SOL     OW42934  12.837   0.091   7.017  0.3617 -0.1899 -0.1966
44335SOL    HW142935  12.861   0.026   7.083  0.9711  0.5547  0.3406
44335SOL    HW242936  12.778   0.151   7.062 -0.9973 -0.9046 -0.9666
44336SOL     OW42937   3.909  12.706  11.567 -0.3584  0.4700  0.3116
44336SOL    HW142938   3.852  12.656  11.509  1.7687 -0.1706 -1.3286
44336SOL    HW242939   3.989  12.722  11.516  0.9235  1.3971  2.4589
44337SOL     OW42940   8.686   5.094  12.376 -0.0807  0.2117 -0.0389
44337SOL    HW142941   8.751   5.109  12.445 -1.6081 -0.9518  1.7397
44337SOL    HW242942   8.698   5.002  12.352  0.9907  0.8002 -2.0173
44338SOL     OW42943   3.599   1.423  10.014  0.5225 -0.5669 -0.4348
44338SOL    HW142944   3.573   1.482   9.944  0.1306 -0.5011 -0.2377
44338SOL    HW242945   3.606   1.479  10.092 -1.7634 -1.0604  0.1979
44339SOL     OW42946   2.339   4.573  12.623  0.0528 -0.3078 -0.1929
44339SOL    HW142947   2.397   4.580  12.699 -0.4719 -0.6303  0.2419
44339SOL    HW242948   2.340   4.661  12.585 -1.4197  0.4900  1.4882
44340SOL     OW42949   8.632   7.986   1.109  0.0518  0.7240  0.0017
44340SOL    HW142950   8.680   8.031   1.039  1.8582 -0.2812  0.5346
44340SOL    HW242951   8.583   8.055   1.153 -0.6388  1.4791 -1.8287
44341SOL     OW42952   0.920   8.924   3.932  0.3340  0.2322 -0.1824
44341SOL    HW142953   0.839   8.976   3.932  1.1239  1.4988 -0.9881
44341SOL    HW242954   0.914   8.872   4.012  0.2697  2.8338  1.6619
44342SOL     OW42955   6.229   7.761   6.034 -0.2952  0.5525 -1.0377
44342SOL    HW142956   6.219   7.845   6.079  0.5703 -0.4173  1.1133
44342SOL    HW242957   6.140   7.735   6.012 -0.6512  1.6226 -0.9579
44343SOL     OW42958   2.078   1.714   2.380  0.1567 -0.3141 -0.1048
44343SOL    HW142959   2.078   1.809   2.391  1.0726  0.0062 -2.3039
44343SOL    HW242960   1.992   1.695   2.340 -0.5536 -0.6169  1.5031
44344SOL     OW42961  13.067  11.766   2.016 -0.4452  0.4472  0.0371
44344SOL    HW142962  13.123  11.697   2.054 -1.1214 -0.1932 -0.1083
44344SOL    HW242963  13.119  11.846   2.026  0.2368 -0.0292  0.4801
44345SOL     OW42964  12.929   2.419  13.040  0.9264 -0.3239 -0.2988
44345SOL    HW142965  12.880   2.369  13.105 -0.3294 -0.6246 -1.4482
44345SOL    HW242966  12.876   2.497  13.025  1.1000 -0.3481 -1.1002
44346SOL     OW42967   6.356   4.148   4.243 -0.1697  0.3691 -0.4066
44346SOL    HW142968   6.371   4.054   4.257  0.0489  0.6325  1.3808
44346SOL    HW242969   6.267   4.164   4.275 -0.9773  0.4630 -2.5288
44347SOL     OW42970  11.571   8.783  12.369 -0.0603 -0.4689 -0.9092
44347SOL    HW142971  11.568   8.877  12.355 -1.4396 -0.3684 -0.0735
44347SOL    HW242972  11.602   8.772  12.459 -1.9521 -0.7089 -0.2471
44348SOL     OW42973  12.625   0.354   6.375 -0.1575 -0.0944  1.0078
44348SOL    HW142974  12.562   0.312   6.434 -0.6432  1.3603  1.5747
44348SOL    HW242975  12.624   0.446   6.401  0.5119  0.3649 -0.5035
44349SOL     OW42976  12.655   1.135  11.434 -0.3438 -0.1255  0.0690
44349SOL    HW142977  12.637   1.108  11.345 -1.3381  1.0317 -0.0982
44349SOL    HW242978  12.750   1.129  11.442 -0.3952 -2.2751 -0.3688
44350SOL     OW42979   9.520   4.781   3.133 -0.0230  0.0638 -0.2692
44350SOL    HW142980   9.517   4.707   3.072 -0.1188  0.7989 -1.1741
44350SOL    HW242981   9.473   4.750   3.211  1.5936 -1.5198  0.1530
44351SOL     OW42982  10.215   5.914  12.891  0.2426  0.9470  0.2407
44351SOL    HW142983  10.250   5.930  12.979  1.4963  0.5686 -0.1671
44351SOL    HW242984  10.138   5.859  12.906  1.9460 -1.3950  0.9953
44352SOL     OW42985  11.921  12.923  12.152 -0.1001  0.0511 -0.8087
44352SOL    HW142986  12.016  12.919  12.158 -0.1896 -0.2583  0.7173
44352SOL    HW242987  11.890  12.848  12.203 -1.2012  1.8880  1.4064
44353SOL     OW42988   6.930   2.761  11.766  0.5798 -0.0037 -0.1452
44353SOL    HW142989   6.841   2.790  11.788  0.7412  0.2315  0.2071
44353SOL    HW242990   6.951   2.806  11.685 -0.5018 -1.8286 -1.5182
44354SOL     OW42991   0.386   3.476   2.617  0.0240  0.2704  0.3559
44354SOL    HW142992   0.307   3.440   2.656 -0.3282 -0.0455 -0.6232
44354SOL    HW242993   0.369   3.570   2.613 -0.0734  0.2678  0.6453
44355SOL     OW42994   5.641  10.980   9.610 -0.4455 -0.4013 -0.4625
44355SOL    HW142995   5.691  10.907   9.646 -1.3016  0.2142  2.1911
44355SOL    HW242996   5.550  10.951   9.614 -0.7236  0.4843 -0.2035
44356SOL     OW42997  10.565  12.595   9.101  0.2548 -0.1478 -0.1905
44356SOL    HW142998  10.540  12.646   9.025  0.2449 -0.8033 -0.6329
44356SOL    HW242999  10.536  12.647   9.176 -1.0310 -0.1630 -0.6585
44357SOL     OW43000   2.565  10.816  13.155  0.1896  0.1621  0.6271
44357SOL    HW143001   2.471  10.834  13.148  0.2325 -0.0387 -0.5679
44357SOL    HW243002   2.608  10.900  13.141  0.2400 -0.0587 -0.6125
44358SOL     OW43003   6.744   8.975   3.040  0.0810  0.1681  0.0744
44358SOL    HW143004   6.718   8.903   3.098  0.8441 -1.4683 -1.5126
44358SOL    HW243005   6.661   9.003   3.000 -0.3753  0.9579  1.5072
44359SOL     OW43006   8.090   1.457   4.025 -0.1347 -0.2463 -0.3654
44359SOL    HW143007   8.082   1.533   3.968 -1.8567 -0.2265 -0.1287
44359SOL    HW243008   8.104   1.384   3.964  0.6482  0.1147 -0.6390
44360SOL     OW43009   6.785   8.916   8.169 -0.0747  0.2425  0.5946
44360SOL    HW143010   6.770   8.835   8.122 -1.3106 -0.6062  2.3216
44360SOL    HW243011   6.788   8.890   8.261  4.3316  1.4959  1.0248
44361SOL     OW43012   7.392   0.122   0.217 -0.0439 -0.5074 -0.1343
44361SOL    HW143013   7.473   0.077   0.194  1.2793  1.1634  1.0196
44361SOL    HW243014   7.344   0.059   0.271 -0.3944 -2.1684 -2.2167
44362SOL     OW43015  12.544   7.968   6.473  0.2316 -0.0739 -0.4283
44362SOL    HW143016  12.541   7.999   6.382 -1.1549  1.2922  0.0396
44362SOL    HW243017  12.539   8.047   6.526 -4.0345 -0.9213  0.8412
44363SOL     OW43018   4.497   9.813  10.887 -0.0697 -0.7987 -0.2453
44363SOL    HW143019   4.422   9.855  10.929  0.3937 -0.7159  0.5119
44363SOL    HW243020   4.570   9.830  10.946  0.2529 -2.1511 -0.2349
44364SOL     OW43021  13.117  10.483   0.646 -0.1413  0.9589 -0.5779
44364SOL    HW143022  13.074  10.397   0.641 -1.3923  1.5551 -0.6446
44364SOL    HW243023  13.046  10.543   0.669  0.7593  1.9446 -0.3204
44365SOL     OW43024   1.877  11.009   3.530 -0.3223  0.2264  0.0314
44365SOL    HW143025   1.878  10.996   3.436 -0.1503 -1.1331  0.1899
44365SOL    HW243026   1.836  11.094   3.543  0.1797  0.6815 -1.2835
44366SOL     OW43027   8.196  12.081   1.900  0.2920 -0.2684  0.0308
44366SOL    HW143028   8.210  12.127   1.817  0.0837  0.5181  0.4266
44366SOL    HW243029   8.209  12.148   1.967 -1.6895 -0.3667  0.5525
44367SOL     OW43030   9.033   4.216  12.154 -0.1054  0.0849  0.2854
44367SOL    HW143031   9.109   4.211  12.096  1.4459  2.6075  1.9052
44367SOL    HW243032   9.002   4.306  12.145  0.0274  0.4831  3.0762
44368SOL     OW43033   6.353  11.137   3.987 -0.0159  0.1851 -0.0683
44368SOL    HW143034   6.287  11.181   3.931  0.4533  0.7119 -0.2204
44368SOL    HW243035   6.437  11.171   3.955  0.2965 -0.0460  0.5052
44369SOL     OW43036   1.241   1.524   4.542  0.1421 -0.2148 -0.2963
44369SOL    HW143037   1.236   1.533   4.447  1.9427  0.8846 -0.3491
44369SOL    HW243038   1.234   1.430   4.558  0.2323 -0.4522 -1.5561
44370SOL     OW43039   0.528   0.511   2.984  0.0292  0.0081 -0.6675
44370SOL    HW143040   0.524   0.467   3.068  2.6196  0.3909 -0.2547
44370SOL    HW243041   0.512   0.442   2.919 -0.3353 -0.6208  0.0833
44371SOL     OW43042  10.470   5.749  11.726 -0.9425 -0.9118 -0.1724
44371SOL    HW143043  10.494   5.690  11.797  0.2267  1.6892  1.7181
44371SOL    HW243044  10.429   5.824  11.769  1.3078  1.5311 -1.9701
44372SOL     OW43045   9.863   9.339   6.566 -0.3566  0.1058  0.8999
44372SOL    HW143046   9.783   9.375   6.528  0.5373  0.0374 -1.2095
44372SOL    HW243047   9.917   9.416   6.584  0.6575  0.0458 -1.5039
44373SOL     OW43048  12.314   1.659   1.067  0.2875 -0.5263 -0.4189
44373SOL    HW143049  12.383   1.593   1.062  0.4969 -0.3314 -0.1342
44373SOL    HW243050  12.361   1.742   1.080  0.0032 -0.3889 -0.2681
44374SOL     OW43051   4.330   1.859   4.871  0.1274  0.1759 -0.1464
44374SOL    HW143052   4.335   1.941   4.823  1.0527 -0.0792 -0.5079
44374SOL    HW243053   4.376   1.877   4.954 -0.7373  0.3703  0.3056
44375SOL     OW43054   9.034   6.367   1.471  0.0922 -0.0309 -0.3206
44375SOL    HW143055   9.087   6.315   1.412  0.7383  1.0595 -0.7201
44375SOL    HW243056   9.091   6.384   1.546 -0.7940 -1.5980  0.7577
44376SOL     OW43057   2.324   1.150   9.612  0.6920 -0.1546  0.5331
44376SOL    HW143058   2.366   1.235   9.625  0.4011 -0.1332  1.4286
44376SOL    HW243059   2.335   1.132   9.519  0.1698  1.1700  0.1900
44377SOL     OW43060  12.355  12.041   3.835  0.0992  0.7921  0.2059
44377SOL    HW143061  12.308  12.010   3.912  1.1199  0.9070  0.8907
44377SOL    HW243062  12.419  12.102   3.869 -0.3498  1.9138 -0.8943
44378SOL     OW43063   2.309   1.518   2.820 -0.5897  0.6682 -0.5711
44378SOL    HW143064   2.300   1.576   2.896  0.1148  0.5602 -0.4029
44378SOL    HW243065   2.401   1.523   2.796 -0.4392 -0.6538 -0.3356
44379SOL     OW43066   0.850   9.151   7.384 -0.1563 -0.4375 -0.8643
44379SOL    HW143067   0.805   9.088   7.329  0.4358  0.3058 -2.2353
44379SOL    HW243068   0.931   9.171   7.339 -0.3550  1.3683 -0.5432
44380SOL     OW43069   4.608   4.622   0.634  0.1439  0.4609  0.5630
44380SOL    HW143070   4.629   4.542   0.584 -0.8234  1.6224 -1.8838
44380SOL    HW243071   4.522   4.604   0.672 -2.0983  1.6090 -3.3928
44381SOL     OW43072   4.534  12.539   6.213 -0.0147 -0.0233 -0.2109
44381SOL    HW143073   4.548  12.548   6.119 -0.4266  0.0467 -0.2685
44381SOL    HW243074   4.617  12.504   6.247  0.6845  1.4369 -0.3645
44382SOL     OW43075   2.471   6.580  10.720  0.3971  0.9519  0.0222
44382SOL    HW143076   2.566   6.587  10.714  0.4555 -0.1221 -0.6376
44382SOL    HW243077   2.455   6.504  10.776 -0.0334  0.0563 -1.2688
44383SOL     OW43078   1.260   2.667   3.533 -0.3179  0.1904 -0.4486
44383SOL    HW143079   1.245   2.667   3.627  1.2872 -0.9103 -0.1623
44383SOL    HW243080   1.226   2.752   3.503  0.0371  0.9615  1.2487
44384SOL     OW43081   3.637  10.365   0.344  0.3054  0.0296  0.9344
44384SOL    HW143082   3.672  10.307   0.276  0.9575  0.5194  0.8428
44384SOL    HW243083   3.662  10.453   0.315 -3.3399  0.7650 -0.6183
44385SOL     OW43084  11.484   6.259   5.547  0.3738 -0.0330  0.1213
44385SOL    HW143085  11.455   6.299   5.466 -0.6106 -1.6963 -0.4017
44385SOL    HW243086  11.454   6.319   5.616 -0.1961  0.6051 -0.6682
44386SOL     OW43087   6.413   9.321   4.455  0.6501 -0.4967 -0.1397
44386SOL    HW143088   6.498   9.303   4.415  0.7328 -1.4560  0.4395
44386SOL    HW243089   6.385   9.404   4.416  0.8825 -1.2004 -1.9169
44387SOL     OW43090   4.383   9.983   7.348  0.1463 -0.6552  0.0256
44387SOL    HW143091   4.409  10.059   7.295  0.0404 -1.8306 -1.7881
44387SOL    HW243092   4.299  10.009   7.387  0.0089  0.1079 -0.7332
44388SOL     OW43093   2.894   9.909   7.090 -0.0500  0.3155  0.2311
44388SOL    HW143094   2.865   9.835   7.037  0.6909  1.4886 -1.9277
44388SOL    HW243095   2.988   9.897   7.098  0.2425  1.5348 -1.0569
44389SOL     OW43096  11.469  10.453   2.939  0.0863 -0.0644  0.4133
44389SOL    HW143097  11.542  10.418   2.991 -0.3818 -0.3286  0.8961
44389SOL    HW243098  11.404  10.383   2.938 -0.5032  0.4645  0.6732
44390SOL     OW43099   6.077   2.704   2.137 -0.6532  0.4618  0.0636
44390SOL    HW143100   6.012   2.744   2.194  1.0718  2.2911  0.8633
44390SOL    HW243101   6.097   2.772   2.072  1.6765  0.6505  0.8949
44391SOL     OW43102   3.607  12.660   5.413  0.3824 -0.2921 -0.0478
44391SOL    HW143103   3.632  12.753   5.411  0.3586 -0.2705  0.5106
44391SOL    HW243104   3.573  12.643   5.325 -0.7360  0.5515  0.2011
44392SOL     OW43105   7.375   9.469   5.300  0.1335  0.6593 -0.0699
44392SOL    HW143106   7.407   9.559   5.312  0.1824  0.4832  1.2072
44392SOL    HW243107   7.369   9.433   5.388 -0.4626 -0.4072 -0.5220
44393SOL     OW43108   8.816   2.115  13.151 -0.2477 -0.2963 -0.2859
44393SOL    HW143109   8.823   2.165  13.233 -0.6832 -2.6441  1.2696
44393SOL    HW243110   8.894   2.059  13.151 -0.3126 -0.4079 -1.4459
44394SOL     OW43111  11.347   7.701   7.980  0.2370  0.2277  0.6676
44394SOL    HW143112  11.423   7.656   8.017  1.4365  1.2343 -0.4761
44394SOL    HW243113  11.272   7.650   8.011  1.4893 -2.2827 -0.1907
44395SOL     OW43114   7.934  10.398   5.639  0.1167  0.0867  0.5674
44395SOL    HW143115   7.881  10.440   5.707  2.4636  1.0421  1.9548
44395SOL    HW243116   7.890  10.420   5.557 -1.2869  1.3327  1.5981
44396SOL     OW43117  13.006   5.905  12.432  0.2817 -0.0317  0.4974
44396SOL    HW143118  13.076   5.865  12.483  1.0161 -0.7262 -0.9809
44396SOL    HW243119  12.977   5.835  12.374 -2.6390 -0.2094  1.9927
44397SOL     OW43120   6.800  11.309   9.396 -0.0048 -0.0147 -0.0454
44397SOL    HW143121   6.855  11.337   9.470 -1.1712  0.2887  0.7244
44397SOL    HW243122   6.848  11.337   9.319  0.6694  0.7261  0.6257
44398SOL     OW43123   0.708   1.344   4.435  0.1038  0.0398 -0.3317
44398SOL    HW143124   0.754   1.260   4.447 -1.1856 -0.7014 -0.4232
44398SOL    HW243125   0.708   1.358   4.340 -1.4910 -0.9417 -0.5150
44399SOL     OW43126   5.964   3.374  11.676  0.4552  0.1182  0.7258
44399SOL    HW143127   5.960   3.285  11.711  0.5946  1.1622  3.7411
44399SOL    HW243128   5.884   3.416  11.709  0.3752  1.1278 -0.6721
44400SOL     OW43129  10.425   3.693   2.619  0.6166 -0.2746 -0.2437
44400SOL    HW143130  10.492   3.641   2.574 -0.1980 -1.7566  0.1855
44400SOL    HW243131  10.459   3.783   2.618  2.0748 -0.8071 -1.0074
44401SOL     OW43132   1.128   7.842   8.361  0.0818  0.3649  0.1393
44401SOL    HW143133   1.221   7.845   8.382  0.2457  1.2940 -0.6646
44401SOL    HW243134   1.086   7.813   8.443  1.0743 -0.2226  0.4564
44402SOL     OW43135   0.274   2.834   1.162 -0.1005  0.4133 -0.1220
44402SOL    HW143136   0.349   2.850   1.220  0.0526 -1.6103  0.3081
44402SOL    HW243137   0.197   2.856   1.215  0.1337  2.0918 -0.4245
44403SOL     OW43138   3.266  11.213  10.616 -0.6439 -0.1170 -0.2976
44403SOL    HW143139   3.211  11.288  10.639 -0.2638  0.1810 -0.3311
44403SOL    HW243140   3.304  11.237  10.531 -1.0864 -0.6686 -0.6495
44404SOL     OW43141   7.141   1.758   1.717 -0.1484  0.1465  0.4072
44404SOL    HW143142   7.200   1.830   1.696 -1.1013  0.3862 -1.7188
44404SOL    HW243143   7.082   1.795   1.783  0.6816  0.6090  0.9113
44405SOL     OW43144   6.088   4.819   7.312  0.0717 -1.2766  0.2751
44405SOL    HW143145   6.045   4.879   7.374  1.7801 -0.2968  0.6052
44405SOL    HW243146   6.026   4.808   7.241 -1.3915 -1.3129  1.5057
44406SOL     OW43147   0.434   6.870   3.353  0.3302 -0.0247 -0.1161
44406SOL    HW143148   0.507   6.848   3.411  0.7336  1.9382  0.1982
44406SOL    HW243149   0.356   6.854   3.406  0.5888 -0.5390  0.1199
44407SOL     OW43150   3.572   3.139  11.633  0.3460 -0.5476  0.4134
44407SOL    HW143151   3.650   3.163  11.582  0.0561 -1.0929 -0.2918
44407SOL    HW243152   3.545   3.055  11.598  1.1198 -1.7831  2.6001
44408SOL     OW43153   5.658   6.478   3.085  0.2545 -0.0157 -0.0609
44408SOL    HW143154   5.696   6.536   3.019  0.1424  1.3974  1.0568
44408SOL    HW243155   5.565   6.499   3.084  0.4281  1.0905  1.4679
44409SOL     OW43156   5.350  12.708   1.128  0.0848  0.6626 -0.6871
44409SOL    HW143157   5.277  12.765   1.106  0.5922  1.4042 -0.4916
44409SOL    HW243158   5.335  12.685   1.220 -0.8735 -0.6898 -1.1411
44410SOL     OW43159   6.915  11.511  11.841  0.0905  0.0908 -0.1129
44410SOL    HW143160   6.923  11.441  11.905 -0.5879  0.5725  0.5167
44410SOL    HW243161   6.949  11.474  11.759 -0.5169 -1.0508  0.1403
44411SOL     OW43162   8.264  10.654  12.919  0.1033  0.0930 -0.1174
44411SOL    HW143163   8.292  10.697  12.839 -1.2120 -0.6133 -0.9862
44411SOL    HW243164   8.187  10.703  12.947 -0.1009 -0.3474  0.1009
44412SOL     OW43165   0.219   4.438   2.756  0.5280  0.0915 -0.6290
44412SOL    HW143166   0.270   4.362   2.782  0.5846  0.1322 -0.6212
44412SOL    HW243167   0.282   4.509   2.751  0.0812  0.8137  2.1651
44413SOL     OW43168   0.782   1.306   0.820  0.1423 -0.1621  1.0969
44413SOL    HW143169   0.741   1.236   0.870  0.4827 -1.0659  0.1357
44413SOL    HW243170   0.865   1.323   0.865 -1.0421  1.4333  2.8416
44414SOL     OW43171   0.631   2.148   1.274  0.2241  0.2082  0.0007
44414SOL    HW143172   0.628   2.237   1.237 -0.3506 -0.4146 -1.5688
44414SOL    HW243173   0.574   2.097   1.216 -0.8570 -0.8319  1.9126
44415SOL     OW43174   4.059   4.297   9.147 -0.4802 -0.0600  0.1274
44415SOL    HW143175   3.979   4.248   9.130 -1.8936  2.2743 -0.4385
44415SOL    HW243176   4.093   4.320   9.061  0.1976 -0.0989  0.3728
44416SOL     OW43177   1.493   4.283   5.501  0.0683 -0.3339 -0.4351
44416SOL    HW143178   1.519   4.244   5.585 -1.1529 -2.5218 -0.9908
44416SOL    HW243179   1.513   4.216   5.436  1.2472  1.4345 -1.9869
44417SOL     OW43180   1.956   3.981  10.875  0.2606  0.9650  0.2001
44417SOL    HW143181   1.878   4.013  10.829 -1.1794 -1.6834  0.5966
44417SOL    HW243182   1.996   4.060  10.912 -1.1151  2.6355 -1.6666
44418SOL     OW43183  11.647   5.187   5.122  0.4603  0.7777  0.2633
44418SOL    HW143184  11.646   5.104   5.075  0.0295  0.5046  0.7425
44418SOL    HW243185  11.686   5.249   5.061  0.7670  0.2258 -0.1044
44419SOL     OW43186  11.858  12.660   6.841  0.4400 -0.2101  0.0409
44419SOL    HW143187  11.831  12.712   6.917 -0.7757  0.0050 -0.5061
44419SOL    HW243188  11.902  12.584   6.879  0.4213  0.2065  0.9385
44420SOL     OW43189   3.554   0.154  13.155  0.1007  0.2120  0.1786
44420SOL    HW143190   3.577   0.148  13.063 -1.4010  1.0712 -0.2802
44420SOL    HW243191   3.540   0.063  13.182 -0.9515  0.0379 -0.8691
44421SOL     OW43192   5.459   8.721   6.270 -0.0452 -0.6298  0.6193
44421SOL    HW143193   5.397   8.763   6.329  0.3974 -1.4010  1.6892
44421SOL    HW243194   5.408   8.654   6.224 -0.3219 -0.2499  0.3717
44422SOL     OW43195   2.240   8.665  11.243 -0.1976  0.1610  0.3644
44422SOL    HW143196   2.154   8.655  11.204 -0.9432  1.3362  1.6328
44422SOL    HW243197   2.269   8.752  11.216 -0.4784  0.7595  1.8536
44423SOL     OW43198  11.738  10.822  13.012 -0.3652  0.0562  0.7879
44423SOL    HW143199  11.781  10.777  13.085 -0.8605 -1.5700  0.1266
44423SOL    HW243200  11.795  10.807  12.937 -0.2400  1.0739  0.6648
44424SOL     OW43201   7.805  11.132   7.761 -0.0314 -0.0243 -0.2629
44424SOL    HW143202   7.770  11.204   7.814 -0.1122  0.1110 -0.4983
44424SOL    HW243203   7.778  11.053   7.807 -2.3293 -0.0123 -1.4289
44425SOL     OW43204   4.448   1.962   4.519  0.0188 -0.2573  0.2855
44425SOL    HW143205   4.444   1.885   4.575  2.4622  0.4496  1.6049
44425SOL    HW243206   4.454   2.036   4.580  0.3338  0.7601 -0.9192
44426SOL     OW43207   2.019   8.111   5.814 -0.4305  0.8564  0.0440
44426SOL    HW143208   1.994   8.204   5.814 -1.0708  0.7008 -0.9535
44426SOL    HW243209   1.960   8.071   5.750 -0.0434 -0.2110  0.3444
44427SOL     OW43210   4.316   3.175   3.298 -0.2521  0.7598 -0.5184
44427SOL    HW143211   4.384   3.212   3.243  1.5685 -1.2259  0.2387
44427SOL    HW243212   4.300   3.241   3.366  1.4858  0.9893 -0.2915
44428SOL     OW43213  10.490  12.769   7.957 -0.4302 -0.2241 -0.1169
44428SOL    HW143214  10.557  12.726   8.011  0.1561 -1.2198 -1.5692
44428SOL    HW243215  10.419  12.789   8.018  0.5288 -0.5979  1.1631
44429SOL     OW43216   2.257   8.364   0.016  0.2833 -0.2430 -0.1605
44429SOL    HW143217   2.290   8.297  -0.044 -1.8002 -0.8733 -0.7056
44429SOL    HW243218   2.216   8.315   0.087 -0.7482  0.4210 -0.2637
44430SOL     OW43219  10.800   8.423   5.883  0.0273 -0.3506  0.3921
44430SOL    HW143220  10.870   8.473   5.923 -0.1453  0.2664 -0.0734
44430SOL    HW243221  10.736   8.410   5.954  0.4892 -0.7068  0.7496
44431SOL     OW43222   0.921   2.310   6.231  0.2449 -0.0043 -0.0864
44431SOL    HW143223   0.975   2.354   6.296  1.3834 -1.2156 -0.1714
44431SOL    HW243224   0.897   2.226   6.272  1.2728 -0.9432 -1.3038
44432SOL     OW43225  10.588   1.460  11.856  0.1913  0.4017 -0.1063
44432SOL    HW143226  10.513   1.519  11.866  0.5070  0.8983 -0.6376
44432SOL    HW243227  10.549   1.372  11.857 -0.3053  0.6268  0.4493
44433SOL     OW43228   1.814   3.152   3.723  0.4610  0.1299  0.0039
44433SOL    HW143229   1.739   3.109   3.763 -0.7163 -0.8274 -2.9862
44433SOL    HW243230   1.796   3.246   3.734 -0.3511 -0.0954  0.7156
44434SOL     OW43231  10.016   7.475   5.492  0.1390  0.4616  0.3731
44434SOL    HW143232  10.028   7.406   5.557  0.1935  0.7391  0.6598
44434SOL    HW243233   9.969   7.545   5.539  0.3311  0.7354  0.1623
44435SOL     OW43234   4.099   0.418  12.992 -0.1379 -0.2721 -0.0730
44435SOL    HW143235   4.071   0.330  13.018 -1.8333  0.7937  2.0351
44435SOL    HW243236   4.158   0.446  13.061  0.2218  0.3424 -0.6209
44436SOL     OW43237   9.985   5.944  11.109 -0.4388 -0.0761 -0.5939
44436SOL    HW143238  10.044   5.987  11.171 -1.2518  1.4805 -0.8711
44436SOL    HW243239  10.041   5.879  11.065  0.8325  0.6986 -0.1813
44437SOL     OW43240   7.046   2.634   1.926 -0.4871  0.1439 -0.0416
44437SOL    HW143241   7.014   2.543   1.922  0.9199 -0.3642 -0.2042
44437SOL    HW243242   6.976   2.681   1.972 -0.5133 -1.3627  1.5990
44438SOL     OW43243   3.738  10.705  10.517  0.8416 -0.1719 -0.1248
44438SOL    HW143244   3.810  10.768  10.514  0.3059  0.4316 -0.8702
44438SOL    HW243245   3.712  10.702  10.609  2.5806 -1.3050  0.3684
44439SOL     OW43246   7.452   7.732   7.528 -0.0863  0.6425 -0.2699
44439SOL    HW143247   7.367   7.707   7.492  0.2610  0.6780 -1.1346
44439SOL    HW243248   7.448   7.705   7.620 -1.2784  1.2596 -0.1249
44440SOL     OW43249   8.092   8.316  10.693 -0.3729 -0.1523  0.0796
44440SOL    HW143250   8.178   8.343  10.659 -0.2123 -1.5275 -0.6762
44440SOL    HW243251   8.041   8.294  10.615 -1.3851  0.5208  0.5329
44441SOL     OW43252  11.675   9.073  11.680 -0.3786 -0.3873 -0.0275
44441SOL    HW143253  11.710   9.149  11.633 -1.0179 -0.0070  0.0923
44441SOL    HW243254  11.734   9.001  11.658 -1.3653 -0.5463 -2.4899
44442SOL     OW43255   2.168   5.973   3.207  0.4247  0.0366  0.2316
44442SOL    HW143256   2.136   5.920   3.281  2.3772 -1.0872  0.3231
44442SOL    HW243257   2.109   5.951   3.135  0.1453 -0.9362  0.7351
44443SOL     OW43258  12.323   0.989   9.312 -0.3823  0.0464 -0.0670
44443SOL    HW143259  12.385   1.062   9.308 -0.7905  0.4271  0.3871
44443SOL    HW243260  12.256   1.018   9.375  0.2021 -1.3012  1.2194
44444SOL     OW43261   5.018  12.263   1.414 -0.0393 -0.3027 -0.1371
44444SOL    HW143262   5.017  12.247   1.508 -0.6212  0.5828  0.0168
44444SOL    HW243263   4.944  12.322   1.399 -0.3174 -0.8991 -1.2344
44445SOL     OW43264  13.092  11.893   6.164  0.0166 -0.0418  0.5093
44445SOL    HW143265  13.026  11.934   6.109 -0.0821  0.9882  1.3690
44445SOL    HW243266  13.135  11.829   6.107 -0.9891  0.0394 -0.3580
44446SOL     OW43267  11.550  11.079  12.274 -0.3951 -0.5953 -0.2774
44446SOL    HW143268  11.627  11.026  12.296 -1.1985 -1.2666  1.0758
44446SOL    HW243269  11.585  11.167  12.259  0.5362 -0.5789  1.5816
44447SOL     OW43270   2.542   1.897   4.296 -0.3411  0.1489  0.0526
44447SOL    HW143271   2.615   1.843   4.325  0.0456 -0.1882 -1.4693
44447SOL    HW243272   2.473   1.879   4.360  0.3952 -0.6994  0.6463
44448SOL     OW43273   7.250  11.865   3.746 -0.3819 -0.1982 -0.1795
44448SOL    HW143274   7.171  11.867   3.801 -0.7721 -0.4924 -0.7191
44448SOL    HW243275   7.234  11.932   3.679  0.9564  1.5829  1.2054
44449SOL     OW43276   0.016   8.737   0.507  0.0683  0.0680  0.0927
44449SOL    HW143277  -0.002   8.675   0.436 -0.2029  0.4757 -0.1998
44449SOL    HW243278  -0.063   8.733   0.562 -0.9352  1.7567 -1.1182
44450SOL     OW43279   7.705   0.765   3.317 -0.1142  0.1241  0.2781
44450SOL    HW143280   7.690   0.677   3.283  0.0121 -0.5151  1.8082
44450SOL    HW243281   7.799   0.769   3.334 -0.1512  0.4968  0.3990
44451SOL     OW43282  12.119   2.858   8.005  0.5892  0.3758  0.2598
44451SOL    HW143283  12.063   2.781   8.014  0.6634  0.5313  2.6640
44451SOL    HW243284  12.176   2.837   7.931  0.5113 -1.8372  0.7476
44452SOL     OW43285   0.932   6.106  13.266  0.0537  0.0716 -0.1558
44452SOL    HW143286   0.918   6.027  13.318 -1.3160  0.0063 -0.6091
44452SOL    HW243287   0.846   6.128  13.230  0.9414  0.0901 -2.4515
44453SOL     OW43288   8.573   1.195  12.406  0.2564 -0.5092 -0.2679
44453SOL    HW143289   8.597   1.228  12.492  0.7283 -1.2108 -0.1219
44453SOL    HW243290   8.477   1.197  12.406  0.2629  1.0797 -0.3725
44454SOL     OW43291   2.643   5.796   8.381 -0.1357 -0.0267  0.2915
44454SOL    HW143292   2.572   5.837   8.332 -1.0039 -1.8539 -0.0727
44454SOL    HW243293   2.617   5.805   8.473  0.3326  1.3325  0.3110
44455SOL     OW43294   6.397   1.482  11.324 -0.0783  0.8748  0.1610
44455SOL    HW143295   6.310   1.518  11.304 -0.0433  0.5820 -0.5547
44455SOL    HW243296   6.418   1.517  11.410 -0.9357  0.8972  0.3706
44456SOL     OW43297  11.697   5.918   1.072 -0.4574 -0.5537 -0.7379
44456SOL    HW143298  11.786   5.942   1.098 -0.7946 -1.6185  1.6012
44456SOL    HW243299  11.709   5.855   1.000  0.6242  0.0089 -1.0709
44457SOL     OW43300   5.310  10.292   7.567 -0.7279  0.4319  0.2104
44457SOL    HW143301   5.345  10.258   7.649  1.2783  0.7104 -0.4694
44457SOL    HW243302   5.260  10.369   7.592 -1.3257 -0.2877  1.2898
44458SOL     OW43303   9.666   6.401   6.397  0.5088 -0.1311 -0.4080
44458SOL    HW143304   9.744   6.352   6.372  0.2700  0.1642 -1.8458
44458SOL    HW243305   9.613   6.338   6.447 -0.0661 -1.6065 -2.6919
44459SOL     OW43306   5.014   2.238   6.389 -0.1707 -0.6178  0.5743
44459SOL    HW143307   4.933   2.213   6.343  0.5574 -1.8609 -0.0809
44459SOL    HW243308   4.987   2.310   6.446 -1.4198 -0.0028 -0.7157
44460SOL     OW43309  12.745   5.100   1.163  0.3740 -0.2211  0.0661
44460SOL    HW143310  12.832   5.109   1.124  0.5211 -1.9709 -0.0827
44460SOL    HW243311  12.762   5.055   1.246 -0.3621 -0.2149  0.2213
44461SOL     OW43312   9.577   1.914  12.070  0.0799 -0.3301  0.6762
44461SOL    HW143313   9.533   1.998  12.054 -1.6394 -1.1321  0.9747
44461SOL    HW243314   9.530   1.877  12.145  1.7736 -0.9214  1.4901
44462SOL     OW43315  12.755   5.710   3.410 -0.6378  0.0441 -0.3130
44462SOL    HW143316  12.737   5.656   3.333  0.6370 -1.0432  0.1235
44462SOL    HW243317  12.837   5.676   3.445  0.0519  2.0506  0.1739
44463SOL     OW43318   9.875  10.160   0.289  0.4785 -0.0134  0.2226
44463SOL    HW143319   9.834  10.245   0.301  0.9051  0.1111  0.8401
44463SOL    HW243320   9.941  10.174   0.221  1.4949  0.4957  1.2798
44464SOL     OW43321   0.422   0.771  12.664 -0.1441 -0.0652  0.1391
44464SOL    HW143322   0.446   0.863  12.659  1.3868 -0.4914 -2.0826
44464SOL    HW243323   0.503   0.726  12.687 -1.0424 -0.8504  2.0024
44465SOL     OW43324   2.753   8.793   2.114  0.5510 -0.6383  0.0216
44465SOL    HW143325   2.732   8.883   2.136  1.2328 -0.2840 -0.7371
44465SOL    HW243326   2.680   8.742   2.150  0.1153  0.2141  0.3739
44466SOL     OW43327   2.043  11.716   5.278  0.0210 -0.1082 -0.3850
44466SOL    HW143328   2.122  11.691   5.325 -0.5585 -1.3440 -0.0150
44466SOL    HW243329   2.048  11.812   5.271  1.8959 -0.2228 -1.0444
44467SOL     OW43330   5.144   5.934   9.647  0.0337 -0.4015  0.0963
44467SOL    HW143331   5.150   5.891   9.562 -0.4761 -0.6650  0.1886
44467SOL    HW243332   5.101   6.018   9.629 -0.0713 -0.4561  0.0978
44468SOL     OW43333   3.959   4.261   4.823 -0.5664 -0.4179 -0.0721
44468SOL    HW143334   3.932   4.323   4.890  1.4905 -0.9837  1.3994
44468SOL    HW243335   3.896   4.189   4.828 -0.4486 -0.4427  1.2853
44469SOL     OW43336   5.092  10.159  10.624  0.7217 -0.1162 -0.3596
44469SOL    HW143337   5.054  10.103  10.692  1.5394 -0.9234 -0.5452
44469SOL    HW243338   5.022  10.170  10.560  0.3486 -0.3990 -0.0042
44470SOL     OW43339   0.749   1.342   6.748 -0.0045 -0.3718  0.5649
44470SOL    HW143340   0.662   1.302   6.750  0.7319 -2.1032  0.3674
44470SOL    HW243341   0.809   1.270   6.767  1.4281  0.6595  0.1759
44471SOL     OW43342   2.398   4.813   1.337  0.2484 -0.1809  0.2107
44471SOL    HW143343   2.394   4.797   1.431  1.0453  0.0758  0.2904
44471SOL    HW243344   2.357   4.736   1.298 -2.0691  0.6524  0.8245
44472SOL     OW43345   0.505   2.698   0.068 -0.3585  0.3198 -0.5657
44472SOL    HW143346   0.572   2.682   0.133 -0.2708 -2.6605 -1.2656
44472SOL    HW243347   0.440   2.752   0.113 -0.3509 -1.6964  2.0332
44473SOL     OW43348   6.543   8.096  11.610 -0.2372  0.1000  0.4304
44473SOL    HW143349   6.525   8.002  11.611  1.2180 -0.2047  0.4866
44473SOL    HW243350   6.476   8.133  11.553  1.4091 -1.5003 -2.8366
44474SOL     OW43351   1.579  10.652   5.332  0.6331 -0.1993  0.4617
44474SOL    HW143352   1.650  10.678   5.391  1.3616 -0.9748 -0.0657
44474SOL    HW243353   1.560  10.731   5.281 -0.1368  0.5394  1.8372
44475SOL     OW43354   0.421   0.029   1.010 -0.2569 -0.1715  0.7648
44475SOL    HW143355   0.486  -0.021   0.961  1.2971  1.2541  1.2896
44475SOL    HW243356   0.471   0.098   1.054 -2.3521  2.4779 -0.6697
44476SOL     OW43357   4.039   0.026   3.126 -0.0639  0.3897 -0.0482
44476SOL    HW143358   4.056  -0.045   3.064 -0.8925  1.0374 -1.0439
44476SOL    HW243359   4.036   0.105   3.072 -0.5738  1.0028  0.8474
44477SOL     OW43360  12.163   6.337   0.966 -0.2810 -0.1778  0.6482
44477SOL    HW143361  12.239   6.304   1.014 -0.9515 -0.5230  1.4968
44477SOL    HW243362  12.135   6.415   1.013  1.7124  2.1682 -1.7440
44478SOL     OW43363   2.195   7.007  11.214 -0.3338 -0.3329  0.0158
44478SOL    HW143364   2.230   7.056  11.140  1.8142 -0.7963  0.6541
44478SOL    HW243365   2.119   7.058  11.243 -0.7618  0.2459 -2.0034
44479SOL     OW43366  12.506  12.375   0.319 -0.0792 -0.6599 -0.3409
44479SOL    HW143367  12.445  12.374   0.245  0.2118 -1.2880 -0.5765
44479SOL    HW243368  12.592  12.372   0.278  0.0856 -1.0207  0.0255
44480SOL     OW43369   3.827   7.152   1.337  0.4175 -0.2813 -0.2673
44480SOL    HW143370   3.863   7.216   1.276  0.0429  0.0757 -0.1126
44480SOL    HW243371   3.733   7.153   1.322  0.4956 -1.5721 -1.0129
44481SOL     OW43372   2.724   5.257  10.316  0.0623  0.1579 -0.4678
44481SOL    HW143373   2.701   5.182  10.262 -0.0197  0.2062 -0.4998
44481SOL    HW243374   2.647   5.273  10.370  1.0859 -1.6370  1.6672
44482SOL     OW43375  10.051   2.054   7.417  0.5395 -0.0136  0.4656
44482SOL    HW143376  10.040   1.991   7.489 -1.1793  0.1829  0.4280
44482SOL    HW243377  10.049   2.000   7.338 -0.2289 -0.0093  0.4681
44483SOL     OW43378   9.793   1.623   5.984 -0.2658  0.2217  0.0981
44483SOL    HW143379   9.727   1.632   5.916  0.7060  1.2718 -0.7498
44483SOL    HW243380   9.762   1.679   6.056 -0.6985  0.0610  0.0374
44484SOL     OW43381  11.810  12.746   8.981 -0.5479 -0.0569 -0.4768
44484SOL    HW143382  11.756  12.825   8.984 -1.3642 -0.6207  0.7338
44484SOL    HW243383  11.803  12.709   9.069  0.1431 -1.2581 -0.8997
44485SOL     OW43384   2.726  12.814  11.600  0.0227 -0.1560 -0.9419
44485SOL    HW143385   2.820  12.794  11.604  0.1113  0.3461 -0.2877
44485SOL    HW243386   2.683  12.734  11.630  0.2317 -0.4300 -1.3616
44486SOL     OW43387   4.651   6.477   2.927  0.0360  0.6241  0.1044
44486SOL    HW143388   4.643   6.383   2.945  1.0735  0.4332 -0.3281
44486SOL    HW243389   4.577   6.517   2.972  0.2578 -0.2688  1.2948
44487SOL     OW43390   7.552   3.259   2.217 -0.3989 -0.0011  0.1104
44487SOL    HW143391   7.499   3.335   2.192 -1.2583 -0.4560  0.4973
44487SOL    HW243392   7.582   3.279   2.305  0.0146  0.2278 -0.0831
44488SOL     OW43393   5.976   1.718   5.858 -0.1940 -0.4005  0.3025
44488SOL    HW143394   5.883   1.732   5.878 -0.5322 -0.5005 -1.1118
44488SOL    HW243395   5.978   1.635   5.811  0.7345 -0.8272  1.0764
44489SOL     OW43396   8.347   3.609   7.543 -0.7233 -0.2102  0.1130
44489SOL    HW143397   8.286   3.679   7.518 -1.1280 -1.0681 -1.4554
44489SOL    HW243398   8.409   3.652   7.602  0.2701  2.1003 -2.3380
44490SOL     OW43399   4.842   8.535   3.798 -0.2578 -0.5896 -0.1010
44490SOL    HW143400   4.877   8.457   3.755  0.0547  0.5481 -2.0168
44490SOL    HW243401   4.914   8.598   3.794 -1.1137  0.3918 -0.2405
44491SOL     OW43402   2.835   0.444   9.578  0.8973 -0.1548  0.1516
44491SOL    HW143403   2.882   0.406   9.504 -1.1011 -1.0835 -0.7173
44491SOL    HW243404   2.745   0.451   9.548  0.5826  2.3613  1.4473
44492SOL     OW43405  10.950   4.438   2.366 -0.3910 -0.5104  0.7060
44492SOL    HW143406  10.856   4.437   2.344 -0.3946 -1.5637  0.7180
44492SOL    HW243407  10.953   4.408   2.457 -0.0679 -0.0315  0.8572
44493SOL     OW43408  12.420   0.789  12.690 -0.4695  0.2184 -0.0942
44493SOL    HW143409  12.426   0.797  12.594  0.3365  0.9288  0.0042
44493SOL    HW243410  12.496   0.838  12.723 -0.4738 -0.4143  0.8940
44494SOL     OW43411   8.143  11.774   4.494  0.5857  0.0257 -0.1132
44494SOL    HW143412   8.106  11.812   4.574  0.3364  1.7004 -0.9925
44494SOL    HW243413   8.237  11.766   4.513  0.1381 -2.6717  1.5041
44495SOL     OW43414   0.456   4.985   7.200  0.6356 -0.2719 -0.0860
44495SOL    HW143415   0.372   4.990   7.154  0.3146  0.2941  0.5433
44495SOL    HW243416   0.434   4.950   7.286  1.0421 -0.1082  0.0858
44496SOL     OW43417   1.607  10.823   0.912  0.1447  0.2340  0.2538
44496SOL    HW143418   1.642  10.738   0.939 -0.0878  0.3397  0.9090
44496SOL    HW243419   1.591  10.869   0.994 -0.7231  0.5159 -0.0621
44497SOL     OW43420   7.884   6.735   7.938  0.3582  0.2640  0.5365
44497SOL    HW143421   7.929   6.655   7.966 -1.7682 -1.5545 -0.8722
44497SOL    HW243422   7.932   6.764   7.861  3.0260  2.2898  2.7200
44498SOL     OW43423   3.482   3.343   2.874  0.3609 -0.0696 -0.2708
44498SOL    HW143424   3.520   3.256   2.859 -0.2941 -0.3048 -0.6242
44498SOL    HW243425   3.464   3.376   2.786  0.1025  0.1950 -0.1198
44499SOL     OW43426  12.930   5.784   6.695  0.0980  0.3010 -0.2378
44499SOL    HW143427  12.983   5.754   6.621  0.0521  1.3546 -0.7210
44499SOL    HW243428  12.994   5.809   6.762  0.1583  0.0275 -0.1922
44500SOL     OW43429  11.174   2.955   0.641 -0.0660  0.6067 -0.1692
44500SOL    HW143430  11.190   2.875   0.691  1.3048  1.0418  0.1175
44500SOL    HW243431  11.080   2.952   0.622 -0.0965 -0.9224  0.0744
44501SOL     OW43432   9.699   1.152  12.597 -0.5472 -0.2147  0.1083
44501SOL    HW143433   9.605   1.173  12.601 -0.9530 -1.8202  0.0268
44501SOL    HW243434   9.701   1.057  12.584  1.1021 -0.4088  1.4387
44502SOL     OW43435   9.371   7.540   3.485 -0.3302  0.3816 -0.0476
44502SOL    HW143436   9.325   7.493   3.554  0.0134  1.3884  0.9056
44502SOL    HW243437   9.425   7.473   3.442 -1.7404 -0.5731 -0.4131
44503SOL     OW43438   5.853  12.955   7.029 -0.4210 -0.2449  0.2034
44503SOL    HW143439   5.776  12.937   7.083 -2.5414 -0.4940 -2.6433
44503SOL    HW243440   5.871  13.048   7.042 -0.5035 -0.4183  1.6993
44504SOL     OW43441   0.066   4.707   0.827  0.2485 -0.7446 -0.1863
44504SOL    HW143442   0.007   4.749   0.765 -0.6506 -0.4681  0.8292
44504SOL    HW243443   0.021   4.627   0.853  0.2496 -0.4701  0.6917
44505SOL     OW43444   8.940   7.182  13.132 -0.5598  0.4449 -0.5727
44505SOL    HW143445   9.011   7.202  13.071  1.5344  0.1056  1.5884
44505SOL    HW243446   8.922   7.089  13.117 -0.9806  0.6726 -1.5380
44506SOL     OW43447   7.025   0.974   2.791 -0.2770 -0.1080 -0.1501
44506SOL    HW143448   6.932   0.970   2.813  0.2943  0.2185  2.8766
44506SOL    HW243449   7.032   1.046   2.729 -2.0102  0.0838 -0.1847
44507SOL     OW43450   8.860  10.804   7.073  0.3447 -0.1266 -0.0382
44507SOL    HW143451   8.900  10.761   7.148  0.3181  1.7661  1.1260
44507SOL    HW243452   8.766  10.798   7.090  0.3420  0.3902  0.1225
44508SOL     OW43453   3.357   1.616  11.743 -0.1107  0.6296 -0.2908
44508SOL    HW143454   3.401   1.587  11.663  1.3095  2.1308 -0.1265
44508SOL    HW243455   3.297   1.685  11.714 -1.9931 -0.9937 -0.4305
44509SOL     OW43456   8.323   9.359   6.254 -0.7023  0.1929 -0.1309
44509SOL    HW143457   8.351   9.299   6.185 -1.5969 -0.9577  0.4652
44509SOL    HW243458   8.404   9.398   6.287 -0.1342 -0.3803 -0.8164
44510SOL     OW43459   9.368   7.831   0.907 -0.5245 -1.0115  0.5489
44510SOL    HW143460   9.415   7.774   0.967  0.4546 -1.2684 -0.4351
44510SOL    HW243461   9.351   7.776   0.830  0.0692 -0.1054 -0.2489
44511SOL     OW43462   0.809   3.266   7.123 -0.2491 -0.5660 -0.0981
44511SOL    HW143463   0.807   3.326   7.198 -0.6434 -0.0959 -0.4793
44511SOL    HW243464   0.875   3.303   7.065  0.3439 -1.1498  0.1858
44512SOL     OW43465   4.198   5.547   0.149 -0.7412  0.3437 -0.4858
44512SOL    HW143466   4.167   5.472   0.199 -1.2068  0.1758 -1.0090
44512SOL    HW243467   4.284   5.568   0.186 -1.0140  0.1379  0.2752
44513SOL     OW43468   7.516  11.682   8.986  0.7590 -0.2265  0.7147
44513SOL    HW143469   7.483  11.593   8.970 -1.1062  0.4586  0.5203
44513SOL    HW243470   7.480  11.734   8.915  0.2796  1.0399  1.8375
44514SOL     OW43471   0.954   7.401   3.569 -0.2820  0.0015  0.7537
44514SOL    HW143472   0.936   7.351   3.649 -0.1958  0.6620  1.1913
44514SOL    HW243473   0.873   7.450   3.552 -0.0451  0.4298  0.8526
44515SOL     OW43474   3.496  12.902   2.304  0.0964 -0.6428 -0.2584
44515SOL    HW143475   3.404  12.875   2.313 -0.5137  1.1198 -0.8005
44515SOL    HW243476   3.493  12.977   2.245  1.7134  0.3874  0.9036
44516SOL     OW43477   3.496   9.785   5.046  0.4166 -0.0915 -0.7690
44516SOL    HW143478   3.512   9.692   5.058 -0.2200 -0.0781  0.3221
44516SOL    HW243479   3.579   9.820   5.015  0.4968 -1.1092 -1.7841
44517SOL     OW43480   2.638   8.496   4.084  0.0611  0.7259 -0.0165
44517SOL    HW143481   2.638   8.585   4.120 -0.2756  1.0593 -0.8028
44517SOL    HW243482   2.689   8.445   4.146 -1.4465  1.0174  1.5601
44518SOL     OW43483   0.940   3.019   6.988  1.0645 -0.3035 -0.2837
44518SOL    HW143484   0.854   3.048   6.959  0.4567 -0.5087  1.2280
44518SOL    HW243485   0.997   3.096   6.978  0.4632  0.1384 -0.3238
44519SOL     OW43486   0.765  12.650   3.121  0.3171 -0.4247 -0.6483
44519SOL    HW143487   0.842  12.687   3.078 -0.1040  0.3097 -0.7932
44519SOL    HW243488   0.721  12.725   3.160 -0.4500 -0.7960 -0.7764
44520SOL     OW43489   8.069   1.730  10.972 -0.2009  0.4082 -0.1442
44520SOL    HW143490   8.121   1.652  10.991  1.8590  1.5402 -0.8250
44520SOL    HW243491   8.124   1.803  10.998 -1.4819  1.6886 -0.8736
44521SOL     OW43492   0.234   8.958  10.700  0.0750 -0.4420 -0.2389
44521SOL    HW143493   0.157   8.952  10.643  2.3158 -1.6527 -3.4090
44521SOL    HW243494   0.250   8.867  10.728 -1.0282  0.1245  2.6327
44522SOL     OW43495   2.321  13.079   0.392 -0.0564  0.4418  0.3599
44522SOL    HW143496   2.333  13.102   0.484 -2.3419 -0.7236  1.0186
44522SOL    HW243497   2.350  12.988   0.386 -1.6616 -0.1024  0.3993
44523SOL     OW43498   0.704   7.525   1.365  0.3233 -0.0821 -0.4522
44523SOL    HW143499   0.750   7.607   1.381 -0.6814  0.5633 -0.8089
44523SOL    HW243500   0.619   7.536   1.409 -1.4233  0.6613 -3.6922
44524SOL     OW43501  12.283  12.763   1.918 -0.6322  0.3750  0.7737
44524SOL    HW143502  12.250  12.706   1.849  1.4672 -0.9275  0.7584
44524SOL    HW243503  12.245  12.728   1.999 -0.7174  0.0028  0.5744
44525SOL     OW43504   1.698   3.786  12.724 -0.0431  0.4536  0.4092
44525SOL    HW143505   1.747   3.727  12.781 -0.2290 -0.1039 -0.0001
44525SOL    HW243506   1.623   3.813  12.776 -0.3641 -0.2763  0.3385
44526SOL     OW43507   7.639   6.279   5.110 -0.1023 -0.2384  0.2799
44526SOL    HW143508   7.647   6.229   5.191  0.6933 -2.0880 -0.8700
44526SOL    HW243509   7.619   6.369   5.139  0.3582 -0.7865  2.4969
44527SOL     OW43510   9.391   1.224   0.071 -0.2370 -0.4326  0.0872
44527SOL    HW143511   9.321   1.256   0.014  0.1273  1.1631  0.4955
44527SOL    HW243512   9.436   1.158   0.019 -2.0474 -1.5314 -0.1795
44528SOL     OW43513  10.855   5.533   6.948 -0.2919  0.2562 -0.1283
44528SOL    HW143514  10.779   5.586   6.975 -0.6613 -1.0052  1.4409
44528SOL    HW243515  10.920   5.598   6.921 -0.7458  1.5454  1.6708
44529SOL     OW43516   8.415   0.269   2.117 -0.3883  0.1815 -0.0091
44529SOL    HW143517   8.488   0.326   2.093  0.2050 -0.7199 -0.4038
44529SOL    HW243518   8.431   0.246   2.209 -0.8477  0.9539  0.2745
44530SOL     OW43519  10.738   2.677   5.719  0.0498  0.1287 -0.1013
44530SOL    HW143520  10.721   2.586   5.744 -0.3734  0.6044  1.4857
44530SOL    HW243521  10.796   2.709   5.787  1.1749  0.7258 -1.3094
44531SOL     OW43522  12.166   5.806   4.868 -0.0157 -0.4034 -0.1530
44531SOL    HW143523  12.178   5.725   4.817  1.1360 -1.1401  1.1993
44531SOL    HW243524  12.217   5.871   4.821 -2.2435  0.0064 -2.1528
44532SOL     OW43525  12.953   8.692   8.411 -0.2669 -0.0578 -0.1439
44532SOL    HW143526  12.940   8.656   8.499 -0.3308  0.8879  0.2368
44532SOL    HW243527  12.888   8.647   8.357 -0.6438 -0.1840  0.4140
44533SOL     OW43528   8.416   8.279   2.373 -0.3609 -0.2387 -0.1926
44533SOL    HW143529   8.425   8.224   2.295  0.1713 -2.2203  1.1837
44533SOL    HW243530   8.351   8.345   2.349  2.0151  1.2330 -3.3509
44534SOL     OW43531   1.675  11.973  11.566 -0.0572 -0.2128 -0.1658
44534SOL    HW143532   1.702  12.004  11.480 -2.3610 -1.2852 -1.3441
44534SOL    HW243533   1.641  12.050  11.610 -3.3178 -0.3595 -2.0950
44535SOL     OW43534   8.818   1.517   4.363  0.0240  0.0366  0.8045
44535SOL    HW143535   8.895   1.460   4.367  1.3133  1.2972 -2.1835
44535SOL    HW243536   8.744   1.457   4.348  0.8714 -1.0239  0.7366
44536SOL     OW43537   1.662   6.750  12.927 -0.3542  1.0031 -0.1704
44536SOL    HW143538   1.694   6.763  13.017  1.3799 -0.7160 -0.4928
44536SOL    HW243539   1.608   6.672  12.932  0.6921  0.2199 -0.8194
44537SOL     OW43540   5.565  13.127  11.486 -0.0655  0.2029 -0.0050
44537SOL    HW143541   5.569  13.215  11.450 -0.6041 -0.0400 -0.6777
44537SOL    HW243542   5.480  13.122  11.530  0.1863  0.1845  0.4950
44538SOL     OW43543   0.989  12.761  10.837 -0.1512  0.2716  0.6503
44538SOL    HW143544   1.040  12.778  10.916  1.4830 -3.3135  0.5556
44538SOL    HW243545   1.048  12.784  10.765  0.1638 -0.8463  0.5335
44539SOL     OW43546   9.972   7.235   8.244 -0.2273 -0.0799  0.5123
44539SOL    HW143547   9.991   7.187   8.163  0.0762  1.1300 -0.1590
44539SOL    HW243548   9.894   7.193   8.279  0.3149 -1.3782  0.2189
44540SOL     OW43549  11.274   5.138   2.663 -0.1662 -0.2129  0.3379
44540SOL    HW143550  11.224   5.067   2.704 -0.4147  0.2677  0.8878
44540SOL    HW243551  11.211   5.183   2.606 -0.2026  0.0068  0.5482
44541SOL     OW43552  10.423   2.312   5.694 -0.6131 -0.5817 -0.3728
44541SOL    HW143553  10.496   2.264   5.656 -0.6169 -1.1683  0.3323
44541SOL    HW243554  10.352   2.301   5.631 -0.9291 -2.4133  0.2368
44542SOL     OW43555   7.597   1.293   9.679 -0.4751 -0.3443 -0.2071
44542SOL    HW143556   7.664   1.233   9.645  1.0739  0.2514  1.6174
44542SOL    HW243557   7.626   1.379   9.650  0.2549  0.0438  1.5588
44543SOL     OW43558   5.130   8.204   8.390 -0.1036 -0.3184  0.1633
44543SOL    HW143559   5.214   8.249   8.380  0.6803 -1.8049 -0.2531
44543SOL    HW243560   5.102   8.223   8.479  0.1218  1.0725 -0.0405
44544SOL     OW43561  11.594   9.319   8.863  0.3317  0.1748  0.2669
44544SOL    HW143562  11.500   9.323   8.847 -0.3844  1.9934  3.9106
44544SOL    HW243563  11.613   9.395   8.917  3.4265 -1.4503  1.7685
44545SOL     OW43564   4.001   0.388   3.591 -0.7302 -0.0670  0.2795
44545SOL    HW143565   4.026   0.296   3.606  0.6543  0.2531  0.0371
44545SOL    HW243566   4.029   0.406   3.502 -0.9782  0.6012  0.3323
44546SOL     OW43567   8.461  11.361  13.140 -0.9189  0.9539 -0.2623
44546SOL    HW143568   8.495  11.444  13.106 -2.4569  1.6738 -0.1047
44546SOL    HW243569   8.430  11.383  13.228  0.0105 -0.1412  0.3595
44547SOL     OW43570   8.742   0.506   3.054 -0.3738 -0.5458 -0.3648
44547SOL    HW143571   8.737   0.425   3.105 -2.5725 -1.4933 -1.8940
44547SOL    HW243572   8.672   0.561   3.090 -0.9545 -0.6269 -1.3322
44548SOL     OW43573   1.559  10.512  12.809  0.2925 -1.1758 -0.4762
44548SOL    HW143574   1.605  10.539  12.730 -0.4196  0.2141 -0.4354
44548SOL    HW243575   1.484  10.570  12.815 -1.0705 -2.8821 -0.1185
44549SOL     OW43576   0.494   1.582   2.196 -0.0676  0.1932  0.1166
44549SOL    HW143577   0.562   1.610   2.135  0.3426  0.6610  0.7688
44549SOL    HW243578   0.517   1.625   2.278  0.3145 -1.7010  1.0530
44550SOL     OW43579  11.569   3.322  12.596 -0.1196 -0.2136  0.0647
44550SOL    HW143580  11.641   3.383  12.610 -0.5033  0.2454  0.0651
44550SOL    HW243581  11.599   3.266  12.524  0.7020 -0.7733  0.8225
44551SOL     OW43582   8.296   4.628  10.647  0.1143  0.0561 -0.5723
44551SOL    HW143583   8.303   4.690  10.720  3.2366  0.7205 -1.3016
44551SOL    HW243584   8.271   4.682  10.572  0.0242 -0.0768 -0.6382
44552SOL     OW43585   7.991   4.126  12.155 -0.5619  0.3882 -0.2961
44552SOL    HW143586   8.004   4.192  12.224 -3.3671  1.3397 -0.5458
44552SOL    HW243587   8.049   4.054  12.180 -0.0561  1.4868  2.0108
44553SOL     OW43588   8.661   6.749   0.518 -0.2968 -0.1009  0.4034
44553SOL    HW143589   8.709   6.666   0.525 -0.5375 -0.2575  0.1928
44553SOL    HW243590   8.570   6.723   0.503 -0.3250  0.2029  0.0405
44554SOL     OW43591   1.207  11.792   3.910 -0.3109  0.4585 -0.0567
44554SOL    HW143592   1.289  11.746   3.890 -0.4269  0.2988 -0.1667
44554SOL    HW243593   1.221  11.829   3.997  0.0144  0.7355 -0.2184
44555SOL     OW43594   0.091  11.728  12.378  0.2628  0.0300 -0.3069
44555SOL    HW143595   0.088  11.656  12.442 -0.8612  0.4465  0.1258
44555SOL    HW243596   0.027  11.791  12.410 -0.1731  0.3408 -1.7494
44556SOL     OW43597   1.971   2.200   7.960  0.2318  0.1631  0.1018
44556SOL    HW143598   2.052   2.246   7.981  0.0764  0.9355 -0.9000
44556SOL    HW243599   1.999   2.123   7.912  0.4154  0.0176  0.4421
44557SOL     OW43600   6.162  10.442   1.038 -0.4048 -0.2662 -0.2472
44557SOL    HW143601   6.138  10.511   0.976  0.1754  3.0983  2.9303
44557SOL    HW243602   6.255  10.426   1.021 -0.2069  0.7301 -0.1506
44558SOL     OW43603   4.183  11.705   4.733 -0.2662  0.3022 -0.1543
44558SOL    HW143604   4.278  11.692   4.732 -0.3517 -0.6524 -2.4725
44558SOL    HW243605   4.150  11.641   4.796  0.2439 -3.6682 -3.5204
44559SOL     OW43606   3.264   9.362  11.847 -0.5376  0.1434 -0.5890
44559SOL    HW143607   3.316   9.413  11.785 -1.1851 -0.3359 -1.5453
44559SOL    HW243608   3.174   9.373  11.818 -0.6417 -2.2633 -1.4151
44560SOL     OW43609   0.773  11.343   7.957 -0.3031  0.2183 -0.1179
44560SOL    HW143610   0.793  11.301   8.040 -1.1794  0.8313  0.4186
44560SOL    HW243611   0.842  11.408   7.945  1.7041 -1.9731 -1.4782
44561SOL     OW43612   0.743  11.173   0.470  0.6560  0.3172 -0.4663
44561SOL    HW143613   0.655  11.147   0.443  0.9476 -0.3130 -0.8351
44561SOL    HW243614   0.729  11.247   0.530 -0.2285 -0.8489  0.8466
44562SOL     OW43615   3.351   3.015   6.335  0.1035  0.6499 -0.4659
44562SOL    HW143616   3.406   2.959   6.391 -0.8066 -2.4356 -2.3733
44562SOL    HW243617   3.267   3.020   6.380  0.5572  1.5820  0.3061
44563SOL     OW43618   0.308  10.710   2.495  0.0747  0.2880  0.4890
44563SOL    HW143619   0.216  10.736   2.494  0.2786  1.1132  1.5940
44563SOL    HW243620   0.311  10.635   2.555  0.0904  0.0909  0.2455
44564SOL     OW43621   2.943   7.595  12.771 -0.0483 -0.3536  1.1025
44564SOL    HW143622   2.859   7.560  12.803  0.2742 -0.7627  1.5127
44564SOL    HW243623   2.918   7.672  12.719 -0.7179 -0.7930  0.7558
44565SOL     OW43624   0.824   6.881   1.509 -0.3180 -0.4902 -0.2841
44565SOL    HW143625   0.776   6.957   1.541  0.1825 -0.8567  1.4346
44565SOL    HW243626   0.908   6.917   1.480 -1.0433 -0.0538 -1.9559
44566SOL     OW43627   6.239   0.726   1.210  0.2907 -0.1622  0.1740
44566SOL    HW143628   6.165   0.763   1.258  1.4117  0.5482  1.4269
44566SOL    HW243629   6.313   0.782   1.234  1.4704 -1.5387 -0.1350
44567SOL     OW43630   1.324   0.495   2.523  0.2173 -0.1781  0.2405
44567SOL    HW143631   1.362   0.552   2.457 -0.0824  0.8038  0.9001
44567SOL    HW243632   1.232   0.487   2.499  0.5979 -1.8552 -0.8595
44568SOL     OW43633   1.393   9.865  13.089  0.0030 -0.5777 -0.2707
44568SOL    HW143634   1.481   9.841  13.060 -0.6430 -1.5815 -1.5269
44568SOL    HW243635   1.348   9.781  13.099 -1.2009 -0.0420 -0.9899
44569SOL     OW43636   1.430  12.295   7.590 -0.2615 -0.5866  0.2188
44569SOL    HW143637   1.411  12.290   7.497 -0.2969 -0.6396  0.2287
44569SOL    HW243638   1.422  12.204   7.621  2.8930 -1.1549 -0.3323
44570SOL     OW43639   7.757   0.701   4.644 -0.6256  0.1800 -0.2132
44570SOL    HW143640   7.676   0.749   4.663 -1.5291 -0.1295 -2.8415
44570SOL    HW243641   7.823   0.769   4.630 -1.2772  0.5957 -1.3794
44571SOL     OW43642   5.080   2.245  10.384  0.1119  0.4104  0.0892
44571SOL    HW143643   5.045   2.333  10.371 -1.9402 -0.2506  0.7904
44571SOL    HW243644   5.053   2.221  10.473 -0.0867 -1.2413 -0.3905
44572SOL     OW43645   7.887   4.920   1.886 -0.2302 -0.3754  0.8611
44572SOL    HW143646   7.980   4.937   1.877 -0.5598  2.0577  1.3916
44572SOL    HW243647   7.866   4.950   1.974 -1.5792 -0.6091  0.6388
44573SOL     OW43648   5.512  10.305   3.851 -0.1281  0.1361 -0.4390
44573SOL    HW143649   5.474  10.388   3.878  0.2408 -0.0353  0.6401
44573SOL    HW243650   5.475  10.241   3.912  2.7141  0.1194  1.4726
44574SOL     OW43651   3.519   6.425  11.913  0.5010  0.6833 -0.0920
44574SOL    HW143652   3.431   6.460  11.899  0.0221  0.5244  2.0724
44574SOL    HW243653   3.505   6.346  11.965  1.8928  0.3338 -0.2060
44575SOL     OW43654   5.573  10.134  12.022  0.2669  0.0872  0.3900
44575SOL    HW143655   5.666  10.123  12.001  0.4349  2.4905 -0.4875
44575SOL    HW243656   5.545  10.208  11.968 -2.3898 -1.0692  0.0219
44576SOL     OW43657   1.532   0.090   6.201  0.2750 -0.1416  0.4209
44576SOL    HW143658   1.575   0.033   6.137  1.1320  0.3747  0.5131
44576SOL    HW243659   1.533   0.040   6.282 -3.1391 -1.8962 -0.4311
44577SOL     OW43660   0.041   9.539   3.176  0.1947  1.1923  0.2055
44577SOL    HW143661   0.063   9.551   3.269 -0.9800 -0.7331  0.7761
44577SOL    HW243662  -0.054   9.529   3.175  0.3593 -0.7741 -0.9297
44578SOL     OW43663  10.873  11.104  10.930 -0.5011 -0.0472 -0.3794
44578SOL    HW143664  10.949  11.049  10.946  0.2885  1.1748  0.2351
44578SOL    HW243665  10.798  11.048  10.950  0.3103 -0.3318  2.2942
44579SOL     OW43666   6.158   6.869   7.583  0.1614  0.0432  0.5681
44579SOL    HW143667   6.087   6.839   7.640  1.2744 -0.1652  1.9102
44579SOL    HW243668   6.134   6.839   7.496 -1.2056 -0.3424  1.0558
44580SOL     OW43669   1.060   0.130   8.960  0.0528 -0.3818  0.1975
44580SOL    HW143670   1.008   0.108   9.038  0.3620  0.1119  0.5499
44580SOL    HW243671   0.999   0.123   8.887 -0.2828 -0.6936  0.5036
44581SOL     OW43672   0.232   7.044   7.772  0.0369  0.0934  0.1022
44581SOL    HW143673   0.210   6.966   7.722  2.2677  0.8587 -2.2341
44581SOL    HW243674   0.309   7.019   7.823 -1.5611 -0.3335  2.4854
44582SOL     OW43675  10.539   6.598  10.890  0.1149  0.1947 -0.4929
44582SOL    HW143676  10.580   6.683  10.879  1.0428  0.2250  2.4539
44582SOL    HW243677  10.482   6.608  10.966 -0.6492 -1.5194 -0.7797
44583SOL     OW43678   9.657   3.308   1.599 -0.2667 -0.0030  0.4996
44583SOL    HW143679   9.645   3.271   1.686 -0.7550  1.1860  0.9601
44583SOL    HW243680   9.568   3.327   1.569 -0.0851 -0.1605 -0.1475
44584SOL     OW43681   3.910   2.898   5.732  0.0478  0.1735 -1.0022
44584SOL    HW143682   3.950   2.981   5.708  1.8610  0.2591  1.8726
44584SOL    HW243683   3.842   2.921   5.796  0.3490 -0.5258 -0.4197
44585SOL     OW43684   9.802  11.259  10.606  0.2441  0.4599 -0.2272
44585SOL    HW143685   9.744  11.231  10.535  0.4257  0.5386 -0.4077
44585SOL    HW243686   9.749  11.323  10.656 -0.1901 -0.2294  0.2202
44586SOL     OW43687  11.991  12.344   9.029 -0.2844 -0.1393  0.0504
44586SOL    HW143688  12.064  12.288   9.004 -1.1586 -0.3796 -2.1972
44586SOL    HW243689  12.028  12.405   9.092  1.6958 -0.6787 -0.5292
44587SOL     OW43690  10.744   8.465  11.647  1.1578 -0.3686 -0.2896
44587SOL    HW143691  10.724   8.549  11.689  1.1273 -0.3728 -0.2959
44587SOL    HW243692  10.695   8.466  11.565 -0.9152 -1.4621  0.8734
44588SOL     OW43693   0.072   0.408  11.701  0.0924 -0.1899 -0.0563
44588SOL    HW143694   0.118   0.409  11.785  1.1307 -1.5353 -0.5635
44588SOL    HW243695   0.081   0.318  11.670 -1.0588  0.0610 -1.1948
44589SOL     OW43696   0.003   2.099   5.844  0.5937  0.0288 -0.0097
44589SOL    HW143697   0.028   2.017   5.886  2.1369  1.4361  2.0032
44589SOL    HW243698  -0.008   2.161   5.916 -0.5343  1.6270 -1.4663
44590SOL     OW43699   3.927   6.806   2.675 -0.4943 -0.2625  0.1529
44590SOL    HW143700   3.963   6.752   2.605 -0.5613 -0.7265  0.4712
44590SOL    HW243701   4.004   6.836   2.724 -0.5270 -1.8263  1.2549
44591SOL     OW43702   0.767   5.985   8.215 -0.1512 -0.1812 -0.2274
44591SOL    HW143703   0.793   5.971   8.124 -1.6903 -0.2035 -0.6954
44591SOL    HW243704   0.808   5.914   8.263  2.0313  0.7412 -0.6030
44592SOL     OW43705  10.738  12.270  12.998  0.3599 -0.2148 -0.5899
44592SOL    HW143706  10.719  12.191  12.947 -0.9830 -1.8000  2.1751
44592SOL    HW243707  10.833  12.279  12.992  0.6200 -2.3985 -0.5301
44593SOL     OW43708   1.594   0.220   5.372 -0.4667 -0.0992  0.0097
44593SOL    HW143709   1.606   0.289   5.437  1.6640  0.8715 -1.3085
44593SOL    HW243710   1.665   0.158   5.389 -0.8651 -0.6733 -0.3814
44594SOL     OW43711  13.082  12.596   5.464 -0.4392  0.2553 -0.2924
44594SOL    HW143712  13.077  12.682   5.506  1.6059  0.7780 -1.0021
44594SOL    HW243713  13.051  12.611   5.374 -0.1405  0.2398 -0.3987
44595SOL     OW43714   9.772   1.222  12.034  0.1563 -0.3227 -0.3018
44595SOL    HW143715   9.841   1.168  11.995  0.9311 -0.0502  0.6388
44595SOL    HW243716   9.802   1.312  12.023 -0.3036 -0.1697 -0.3400
44596SOL     OW43717  11.871   8.157   0.435 -0.2236  0.2619  0.2254
44596SOL    HW143718  11.805   8.189   0.496  1.5686 -0.8211  2.9315
44596SOL    HW243719  11.852   8.063   0.426 -1.6872  0.7428 -2.6330
44597SOL     OW43720   0.527  11.649   1.642  0.1371  0.3074 -0.6324
44597SOL    HW143721   0.492  11.586   1.579  1.0554  1.1622 -2.0492
44597SOL    HW243722   0.612  11.614   1.667  0.0475  0.2898 -0.3485
44598SOL     OW43723   1.290   0.633   7.256 -0.2895 -0.4171  0.3332
44598SOL    HW143724   1.305   0.582   7.176  0.1280 -0.0263  0.1499
44598SOL    HW243725   1.373   0.679   7.269 -0.2882 -0.6322  1.1092
44599SOL     OW43726   8.205  11.275   6.793  0.3030  0.0929  0.0177
44599SOL    HW143727   8.146  11.207   6.825  1.6697 -1.6888 -1.0688
44599SOL    HW243728   8.186  11.281   6.699  0.9376  0.4466 -0.0942
44600SOL     OW43729   3.449   3.722   1.971 -0.5586  0.0353  0.1902
44600SOL    HW143730   3.539   3.746   1.992 -0.2536 -0.1627 -0.8402
44600SOL    HW243731   3.395   3.783   2.022  0.1574  0.3859  0.5402
44601SOL     OW43732   4.786   8.124   2.290  0.2093  0.2265  0.3335
44601SOL    HW143733   4.764   8.180   2.216 -0.2536 -2.1324 -1.4072
44601SOL    HW243734   4.725   8.051   2.285  1.0211 -0.6702  2.2856
44602SOL     OW43735   1.420   2.648  10.637 -0.0534 -0.0798 -0.0398
44602SOL    HW143736   1.401   2.556  10.657 -1.1908  0.4623  1.6250
44602SOL    HW243737   1.345   2.677  10.585  0.2909 -0.0835 -0.5388
44603SOL     OW43738   7.754   9.162   3.565  0.4300  0.8402 -0.0099
44603SOL    HW143739   7.707   9.080   3.578  0.0783  0.9547 -0.5188
44603SOL    HW243740   7.833   9.153   3.619  0.3517  0.2063  0.0124
44604SOL     OW43741   1.366   0.135   6.903 -0.3407 -0.3179  0.1985
44604SOL    HW143742   1.362   0.123   6.998 -1.6417 -0.1386  0.1834
44604SOL    HW243743   1.280   0.108   6.872 -0.2261  0.4427 -0.8276
44605SOL     OW43744   5.118   6.477   5.756 -0.1950 -0.1718 -0.3349
44605SOL    HW143745   5.207   6.495   5.725  0.2114 -1.7290 -0.1317
44605SOL    HW243746   5.073   6.442   5.679 -0.3947 -0.1565 -0.2265
44606SOL     OW43747   5.116   4.828   3.133 -0.6551  0.0124  0.1849
44606SOL    HW143748   5.210   4.812   3.144 -0.1617  0.9599 -2.1722
44606SOL    HW243749   5.098   4.906   3.184 -0.0532  0.1143  0.2415
44607SOL     OW43750   8.575   6.578   3.024 -0.2594  0.3286 -0.8041
44607SOL    HW143751   8.613   6.524   2.956 -0.3964  1.2919 -1.6797
44607SOL    HW243752   8.539   6.516   3.087 -1.1024 -0.6222 -2.1496
44608SOL     OW43753   5.712   2.824   9.676  0.2615 -0.1305  0.0118
44608SOL    HW143754   5.687   2.749   9.622  0.5054 -0.8895  0.9302
44608SOL    HW243755   5.787   2.862   9.631  0.1013 -0.4043 -0.4948
44609SOL     OW43756   2.243   1.810  11.677  0.5662  0.0482  0.0451
44609SOL    HW143757   2.164   1.774  11.716  0.2147 -0.2532 -0.9315
44609SOL    HW243758   2.276   1.871  11.743 -0.7024  0.4967  0.2976
44610SOL     OW43759   2.074   8.411   4.700  0.3716  0.7729  1.2244
44610SOL    HW143760   1.988   8.370   4.695  0.5378  0.5493 -0.0759
44610SOL    HW243761   2.114   8.373   4.778 -1.3108  2.1171  2.8465
44611SOL     OW43762   7.027  10.043   5.595  0.1117 -0.1287  0.2815
44611SOL    HW143763   6.945  10.038   5.645 -0.9576 -1.8660 -1.4730
44611SOL    HW243764   7.090  10.081   5.656 -2.1366  2.0336  1.4799
44612SOL     OW43765   1.909   6.277   0.044 -0.2378  0.2256  0.0209
44612SOL    HW143766   1.980   6.325   0.087  0.0410  3.3535 -3.4566
44612SOL    HW243767   1.830   6.326   0.064 -0.7062 -0.5002  0.0011
44613SOL     OW43768  11.035   2.652   5.810 -0.5091 -0.1911 -0.4936
44613SOL    HW143769  11.062   2.586   5.747 -1.0080  0.0677 -0.9893
44613SOL    HW243770  11.076   2.626   5.892  0.5629 -0.2561 -1.0377
44614SOL     OW43771   5.463  12.339   3.170 -0.1722  0.0714  1.1251
44614SOL    HW143772   5.469  12.413   3.230  0.3931  1.5630 -0.6817
44614SOL    HW243773   5.372  12.339   3.140 -0.3569 -0.4338  1.6714
44615SOL     OW43774  11.276   3.449  10.599 -0.2188 -0.1811 -0.1760
44615SOL    HW143775  11.277   3.395  10.678 -1.0221 -2.0778 -1.3885
44615SOL    HW243776  11.321   3.530  10.625  1.1944 -1.4711  1.6753
44616SOL     OW43777   0.806   9.115   1.729  0.0370  0.1295  0.0595
44616SOL    HW143778   0.901   9.108   1.726 -0.0002 -0.6292  0.3713
44616SOL    HW243779   0.777   9.090   1.641  0.1415  0.6868 -0.1348
44617SOL     OW43780   2.476  12.305   3.219 -0.0075 -0.2108 -0.0019
44617SOL    HW143781   2.392  12.287   3.261 -1.1349  1.7084 -1.3030
44617SOL    HW243782   2.477  12.248   3.142 -0.3773  0.1832 -0.2986
44618SOL     OW43783   2.139   9.227   9.928 -0.1906  0.3991 -0.1185
44618SOL    HW143784   2.053   9.197   9.957  0.5471 -0.3960  1.3550
44618SOL    HW243785   2.197   9.152   9.942  0.8188  1.0366 -0.7361
44619SOL     OW43786   6.716  11.227   6.430  0.2510 -0.3105 -0.2050
44619SOL    HW143787   6.798  11.228   6.380 -1.0641 -1.6357 -2.5433
44619SOL    HW243788   6.670  11.149   6.401 -0.9866 -0.7935  2.6304
44620SOL     OW43789   7.004   7.953   8.104 -0.1250 -0.3765 -0.1205
44620SOL    HW143790   6.951   7.915   8.174  0.1689  1.3344  1.0944
44620SOL    HW243791   7.093   7.949   8.137  0.6184 -3.0260 -2.0521
44621SOL     OW43792   4.833   4.617   9.857  0.7665 -0.4581  0.6806
44621SOL    HW143793   4.888   4.564   9.914  0.6193 -1.9940 -0.5473
44621SOL    HW243794   4.750   4.569   9.852  0.5180  0.0471 -0.2132
44622SOL     OW43795  10.718  11.756   0.176  0.1233 -0.2658 -0.1832
44622SOL    HW143796  10.784  11.712   0.230 -1.6394 -3.0559 -0.1331
44622SOL    HW243797  10.660  11.798   0.239 -0.2081 -0.9323 -0.0378
44623SOL     OW43798   3.301  10.973   1.666 -0.3695  0.2459  0.1725
44623SOL    HW143799   3.292  10.946   1.757 -0.3174  1.8942  0.6915
44623SOL    HW243800   3.350  11.055   1.669 -1.2254  0.8631 -1.2528
44624SOL     OW43801   8.767   9.338  10.518 -0.2108  0.3159 -0.0748
44624SOL    HW143802   8.840   9.317  10.460  0.3206  1.6140  0.0908
44624SOL    HW243803   8.800   9.408  10.574 -0.0922 -2.0229  3.0480
44625SOL     OW43804  11.476   3.721   2.947  0.0018 -0.2184  0.1684
44625SOL    HW143805  11.551   3.725   2.888 -0.4873 -3.0424 -0.8211
44625SOL    HW243806  11.400   3.741   2.892 -0.1894  0.1891  0.5733
44626SOL     OW43807  11.740   5.926   1.380 -0.0745 -0.0606 -0.6306
44626SOL    HW143808  11.742   5.831   1.392  0.6150 -0.1053 -1.0132
44626SOL    HW243809  11.708   5.938   1.291 -1.6100  0.1326 -0.0719
44627SOL     OW43810   4.774   8.448  11.209  0.0283  0.2637 -0.4614
44627SOL    HW143811   4.846   8.419  11.153  0.1813 -0.0034 -0.1351
44627SOL    HW243812   4.702   8.466  11.149 -0.6746 -2.5170 -0.6067
44628SOL     OW43813   5.437   0.158   5.088 -0.3514 -0.6542  0.2834
44628SOL    HW143814   5.509   0.145   5.150 -0.1969 -1.7206 -0.1003
44628SOL    HW243815   5.372   0.092   5.113 -0.1738 -1.2741 -0.8490
44629SOL     OW43816  11.793  13.297  10.910 -0.2221  0.2621 -0.1870
44629SOL    HW143817  11.701  13.319  10.896 -0.7145 -0.0042  2.1261
44629SOL    HW243818  11.796  13.264  11.000  2.4544  2.0853  0.5134
44630SOL     OW43819  11.528   6.813   1.490  0.2996 -0.3395 -0.3471
44630SOL    HW143820  11.594   6.781   1.550  0.7564 -0.0904 -0.7081
44630SOL    HW243821  11.561   6.790   1.403  0.2146  0.3200 -0.5614
44631SOL     OW43822   3.663   9.641   9.411  0.4669  0.2613 -0.5149
44631SOL    HW143823   3.666   9.545   9.408 -0.5360  0.1633  0.8660
44631SOL    HW243824   3.755   9.667   9.421  0.8374 -0.4897 -1.7204
44632SOL     OW43825   1.482   4.434   5.976  0.2044 -0.5741 -0.5070
44632SOL    HW143826   1.453   4.516   5.936  0.9426  0.0852  0.2616
44632SOL    HW243827   1.474   4.450   6.071  2.3044 -0.6172 -0.2712
44633SOL     OW43828   1.053  10.117   8.661  0.3208 -0.8300 -0.2514
44633SOL    HW143829   0.986  10.132   8.727  0.3553 -1.1032 -0.1524
44633SOL    HW243830   1.022  10.165   8.584 -1.1020 -2.6715 -0.9200
44634SOL     OW43831   4.931   3.809   9.976 -0.1271  0.2401 -0.2517
44634SOL    HW143832   4.970   3.835  10.059 -0.7029 -0.7934  0.3550
44634SOL    HW243833   4.837   3.811   9.991 -0.2197 -2.3011 -0.0935
44635SOL     OW43834  11.161   3.999   1.699 -0.0765  0.2042 -0.0165
44635SOL    HW143835  11.164   3.955   1.784  3.4632 -1.5037 -0.8538
44635SOL    HW243836  11.220   4.074   1.709  0.0854  0.1915 -0.8373
44636SOL     OW43837  10.591   2.762   6.359  0.0733 -0.2425 -0.4496
44636SOL    HW143838  10.613   2.747   6.451  0.1481  0.2216 -0.3903
44636SOL    HW243839  10.671   2.797   6.321  0.2042 -0.9292 -0.8154
44637SOL     OW43840   5.695   0.555   5.134  0.1087 -0.0677  0.5366
44637SOL    HW143841   5.729   0.619   5.198 -0.4025 -0.0846  0.8292
44637SOL    HW243842   5.645   0.608   5.073 -1.1824 -0.2992  1.3665
44638SOL     OW43843   9.595  13.245   6.969  0.0685  0.3223 -0.4456
44638SOL    HW143844   9.649  13.265   7.046  0.6421 -0.4161 -0.6478
44638SOL    HW243845   9.519  13.199   7.004  0.8532 -0.9940 -0.4051
44639SOL     OW43846   0.867   7.833   7.963 -0.0650  0.0606  0.3690
44639SOL    HW143847   0.955   7.798   7.974 -0.3060 -0.6644  0.0198
44639SOL    HW243848   0.809   7.762   7.990 -0.5672  0.1069 -0.5433
44640SOL     OW43849   7.524   9.498   0.288  0.8532 -0.4428 -0.3402
44640SOL    HW143850   7.482   9.487   0.374  0.8674 -1.5770 -0.4653
44640SOL    HW243851   7.458   9.543   0.235  0.2495 -1.0974 -0.1688
44641SOL     OW43852  13.176   0.596   7.413 -0.0761  0.3644 -0.0978
44641SOL    HW143853  13.237   0.663   7.382 -0.9854  1.7374  0.9554
44641SOL    HW243854  13.093   0.617   7.370 -0.3010 -0.2630  0.0176
44642SOL     OW43855   7.358  10.427  12.384 -0.2034 -0.4643 -0.3525
44642SOL    HW143856   7.338  10.377  12.463 -0.6875 -1.1259 -0.8807
44642SOL    HW243857   7.278  10.421  12.332  1.5186 -4.1226 -3.0461
44643SOL     OW43858   6.526  10.043  10.552 -0.3887 -0.2360 -0.3869
44643SOL    HW143859   6.569  10.061  10.635  0.6459  2.0073 -1.3453
44643SOL    HW243860   6.455   9.983  10.575 -0.3280  0.5505  2.1585
44644SOL     OW43861   2.949   9.741   3.898  0.4128  0.4765 -0.0796
44644SOL    HW143862   2.881   9.725   3.963  0.8781 -0.4995  0.1897
44644SOL    HW243863   2.901   9.765   3.818 -0.1590  1.6513  0.5997
44645SOL     OW43864   4.773   1.440   6.647  0.2532 -0.2936  0.1587
44645SOL    HW143865   4.785   1.347   6.665 -1.2039 -0.5165  0.0613
44645SOL    HW243866   4.788   1.482   6.732 -1.3087 -0.8540  0.7572
44646SOL     OW43867   0.459   2.129   8.111 -0.2951  0.4165 -0.2170
44646SOL    HW143868   0.546   2.092   8.107  0.0027  0.9574  0.9295
44646SOL    HW243869   0.456   2.190   8.037  0.1241  0.0404 -0.5462
44647SOL     OW43870  12.080  10.638   8.368  0.7254 -0.1301 -0.2337
44647SOL    HW143871  12.100  10.560   8.420 -0.3209 -0.6113 -0.5359
44647SOL    HW243872  12.067  10.605   8.279 -0.0085  0.3550 -0.3080
44648SOL     OW43873  11.441   0.347  10.326 -0.0966  0.0724 -0.0557
44648SOL    HW143874  11.490   0.390  10.396  0.1460  0.5812 -0.5341
44648SOL    HW243875  11.464   0.254  10.334  0.4714  0.2231  0.1093
44649SOL     OW43876   1.157  12.777   8.138  0.3546  0.5954 -0.5847
44649SOL    HW143877   1.102  12.700   8.148  0.7953  0.6102  2.9746
44649SOL    HW243878   1.232  12.748   8.086  1.8432 -2.2304  2.8153
44650SOL     OW43879   8.147   0.538   6.744  0.7221  0.5476 -0.5785
44650SOL    HW143880   8.180   0.490   6.820 -0.4935 -1.2154 -1.1044
44650SOL    HW243881   8.085   0.601   6.781 -0.0653 -0.4773 -0.1093
44651SOL     OW43882  10.481   3.272  13.084 -0.1902  0.2722  0.2435
44651SOL    HW143883  10.561   3.318  13.059 -1.2510  2.3980  0.5322
44651SOL    HW243884  10.500   3.180  13.069  1.8731  0.8342 -0.8797
44652SOL     OW43885   7.020   3.598  12.522  0.0822  0.4919 -0.1707
44652SOL    HW143886   7.077   3.594  12.599 -0.7297 -1.8773  0.3967
44652SOL    HW243887   6.932   3.610  12.557 -0.4271 -1.5724 -0.5737
44653SOL     OW43888   1.653  12.525   3.917 -0.0775 -0.0782  0.2607
44653SOL    HW143889   1.640  12.486   3.831  1.4647  0.3980 -0.2274
44653SOL    HW243890   1.625  12.457   3.979 -0.5939 -0.6685 -0.5998
44654SOL     OW43891  12.294   1.646   8.781 -0.6320  0.0213  0.6056
44654SOL    HW143892  12.348   1.594   8.721 -0.5180  0.0054  0.7201
44654SOL    HW243893  12.354   1.668   8.852 -0.2351  1.6006 -0.1674
44655SOL     OW43894   3.875  11.732   4.718 -0.3967 -0.7194  0.3777
44655SOL    HW143895   3.960  11.765   4.687 -0.0150 -2.2376 -0.3136
44655SOL    HW243896   3.810  11.786   4.671  0.1973 -1.3678 -1.2735
44656SOL     OW43897  12.775   3.917   8.579 -0.3036 -0.0518 -0.1480
44656SOL    HW143898  12.759   3.822   8.578  0.5202 -0.2200 -2.7294
44656SOL    HW243899  12.753   3.946   8.491  2.9301  1.5151 -0.5780
44657SOL     OW43900   4.884   3.386   9.101 -0.3944 -0.0905  0.1657
44657SOL    HW143901   4.823   3.349   9.164 -1.3131  0.2556 -0.5111
44657SOL    HW243902   4.965   3.399   9.152 -0.1273 -2.6072  0.5361
44658SOL     OW43903   5.804  11.319   2.441 -0.0503 -0.2032  0.1271
44658SOL    HW143904   5.792  11.411   2.464  0.1641 -0.1763  0.1296
44658SOL    HW243905   5.716  11.281   2.449 -0.1568  0.0212  0.0324
44659SOL     OW43906   4.417   6.425   0.743 -0.7787 -0.5064  0.8229
44659SOL    HW143907   4.383   6.337   0.727  0.1175 -0.5880 -0.9105
44659SOL    HW243908   4.511   6.419   0.724 -0.5896  0.6774  1.2637
44660SOL     OW43909   4.428  10.838   4.646  0.3666 -0.3922 -0.1612
44660SOL    HW143910   4.415  10.857   4.739  1.8698  1.3244 -0.2408
44660SOL    HW243911   4.430  10.924   4.605 -2.2725 -1.1586 -2.1380
44661SOL     OW43912   0.221   1.158   5.942  0.2390 -0.7970  0.1221
44661SOL    HW143913   0.194   1.190   6.028  0.2262  0.2277 -0.2470
44661SOL    HW243914   0.291   1.095   5.960  0.0016 -0.8392  0.8991
44662SOL     OW43915  10.982   5.170  10.714  0.2995 -0.1807  0.0497
44662SOL    HW143916  10.985   5.255  10.757  0.8721 -0.7441  1.1811
44662SOL    HW243917  10.902   5.172  10.662  1.7761  2.1767 -2.4021
44663SOL     OW43918   9.914  12.819   8.058  0.1452 -0.2590 -0.0017
44663SOL    HW143919   9.822  12.842   8.046  0.0857 -0.3575  0.2598
44663SOL    HW243920   9.916  12.768   8.139  0.2774 -1.1651 -0.5602
44664SOL     OW43921  12.082   8.101   1.062 -0.1226  0.1447 -0.0043
44664SOL    HW143922  12.037   8.105   0.978 -0.5333  0.3797  0.2214
44664SOL    HW243923  12.149   8.169   1.057  0.0136 -0.0041 -0.2303
44665SOL     OW43924  12.657   2.640   4.649  0.4809  0.6984  0.1356
44665SOL    HW143925  12.613   2.683   4.576  1.4454  1.5051  0.0045
44665SOL    HW243926  12.673   2.710   4.712  3.0717  0.8440 -0.5548
44666SOL     OW43927   2.254  11.228   9.669  0.5501  0.2514  0.2409
44666SOL    HW143928   2.223  11.148   9.712  0.2741  0.1600 -0.1236
44666SOL    HW243929   2.187  11.247   9.603  0.3649  1.0582  0.6529
44667SOL     OW43930   0.071   5.252   4.401  0.3357 -0.7023 -0.6092
44667SOL    HW143931  -0.007   5.203   4.427  0.1641 -0.3308 -0.4178
44667SOL    HW243932   0.130   5.243   4.476  0.1444 -0.2825 -0.4033
44668SOL     OW43933   9.167   4.193   3.054  0.6730  0.4376 -0.5309
44668SOL    HW143934   9.123   4.238   2.982 -1.6625 -0.9627 -0.0790
44668SOL    HW243935   9.187   4.106   3.020 -0.8141 -0.3812  0.5533
44669SOL     OW43936  10.178   8.579  13.265  0.2249 -0.0083 -0.5891
44669SOL    HW143937  10.174   8.674  13.250 -0.7705 -0.3141 -2.6342
44669SOL    HW243938  10.271   8.558  13.257  0.5151  0.8285  0.3032
44670SOL     OW43939   3.361   7.366  12.227 -0.4982 -0.7722  0.4018
44670SOL    HW143940   3.373   7.415  12.146 -0.2968 -0.5437  0.5688
44670SOL    HW243941   3.428   7.401  12.286  0.2240 -1.8456  0.2445
44671SOL     OW43942  12.344  11.891   6.167 -0.8084 -0.2966  0.0308
44671SOL    HW143943  12.348  11.835   6.245 -0.5216  1.1191  1.0586
44671SOL    HW243944  12.250  11.899   6.148 -0.8730 -0.7327  0.1406
44672SOL     OW43945   2.973   7.364   8.868 -0.2528  0.0481 -0.2944
44672SOL    HW143946   2.899   7.303   8.862 -0.3159  0.0927  0.0106
44672SOL    HW243947   3.027   7.344   8.792 -1.2642  0.9101 -1.2876
44673SOL     OW43948   6.562   8.781   6.312  0.3466 -0.4126  0.6525
44673SOL    HW143949   6.500   8.853   6.309  0.6549 -0.1703 -0.6932
44673SOL    HW243950   6.646   8.822   6.334  1.2190  0.2600 -3.2301
44674SOL     OW43951   7.015   0.544   5.561 -0.0607  0.3744 -0.1501
44674SOL    HW143952   6.968   0.476   5.513  0.4051  0.1574 -0.2959
44674SOL    HW243953   6.953   0.617   5.565 -0.4085  0.0918 -0.3502
44675SOL     OW43954   2.619   1.890   1.564 -0.1951  0.2207 -1.0059
44675SOL    HW143955   2.612   1.973   1.610 -0.8610 -0.2857 -0.1492
44675SOL    HW243956   2.528   1.864   1.547 -0.0108 -0.4813 -0.9577
44676SOL     OW43957  12.898   1.945   4.483  0.0201  0.0964 -0.1480
44676SOL    HW143958  12.878   1.964   4.574 -1.5945  1.5140 -0.7570
44676SOL    HW243959  12.894   1.850   4.477  0.6491 -0.0530  1.3488
44677SOL     OW43960   8.219   7.020  11.803  0.3659  0.3563 -0.2345
44677SOL    HW143961   8.178   6.971  11.731 -0.2852  2.0072 -1.0491
44677SOL    HW243962   8.265   6.954  11.855 -0.9911 -1.1695 -0.9193
44678SOL     OW43963   1.681   3.062   7.963  0.3519  0.3042  0.0692
44678SOL    HW143964   1.667   2.989   7.901  1.7716 -0.1528  0.2457
44678SOL    HW243965   1.653   3.027   8.047  1.7653 -0.3512  0.2963
44679SOL     OW43966   4.747   5.657  10.910  0.2579  0.0563  0.1333
44679SOL    HW143967   4.715   5.739  10.946  1.0771 -0.3306  1.8435
44679SOL    HW243968   4.668   5.605  10.895 -0.0982 -0.0726  2.2129
44680SOL     OW43969  12.649   5.378   2.254  0.1189  0.5990 -0.1487
44680SOL    HW143970  12.741   5.352   2.258 -0.1083 -0.6509 -1.7662
44680SOL    HW243971  12.604   5.302   2.216 -1.6207  1.1036  0.8028
44681SOL     OW43972   1.163   9.048   3.897  0.2896 -0.1693 -0.0967
44681SOL    HW143973   1.138   9.139   3.883 -0.2857  0.1762  2.5708
44681SOL    HW243974   1.079   9.001   3.903  0.5440 -0.6151 -0.0021
44682SOL     OW43975   6.875  12.620   1.696 -0.5944 -0.3720  0.2208
44682SOL    HW143976   6.961  12.579   1.687  0.1017  1.3535 -1.8032
44682SOL    HW243977   6.822  12.577   1.629 -1.4685 -1.6647  1.6805
44683SOL     OW43978  10.074   8.449   8.079  0.1555  0.0885  0.0841
44683SOL    HW143979  10.120   8.526   8.045 -1.4665  0.8328 -0.5484
44683SOL    HW243980  10.045   8.474   8.166  0.7621 -0.3081  0.4052
44684SOL     OW43981   6.845   7.889   7.618  0.5623 -0.1023  0.4822
44684SOL    HW143982   6.848   7.969   7.671 -0.7700  0.0214  0.4202
44684SOL    HW243983   6.906   7.829   7.661  1.0455  0.7118  0.9440
44685SOL     OW43984   0.682   7.421   7.652 -0.2806  0.4855  0.2246
44685SOL    HW143985   0.746   7.492   7.653  0.6440 -0.1334 -3.2316
44685SOL    HW243986   0.598   7.466   7.640 -0.1181  1.1054  1.2212
44686SOL     OW43987   6.551  13.007   1.194 -0.0865 -0.0130  0.6737
44686SOL    HW143988   6.614  13.075   1.170  1.2899 -1.3115  0.4431
44686SOL    HW243989   6.546  12.950   1.117 -1.3769 -0.0590  0.7793
44687SOL     OW43990   2.431  13.180   0.061 -0.2869 -0.0888  0.6058
44687SOL    HW143991   2.493  13.124   0.014  0.6656  0.8323  0.7401
44687SOL    HW243992   2.371  13.119   0.104  1.3654 -1.0404  1.6282
44688SOL     OW43993   9.815   8.246  12.835 -0.2754  0.2877  0.2086
44688SOL    HW143994   9.885   8.182  12.821 -0.4227 -0.0474  0.9451
44688SOL    HW243995   9.859   8.324  12.867 -0.2818 -0.1301  1.2804
44689SOL     OW43996   2.083   3.558  13.151  0.1587  0.3683  0.1739
44689SOL    HW143997   2.147   3.574  13.082 -0.3147 -1.8224 -0.8773
44689SOL    HW243998   2.091   3.633  13.210  1.7839  1.4604 -1.3436
44690SOL     OW43999   2.277   3.592   3.010  0.4246  0.2829  0.3669
44690SOL    HW144000   2.326   3.665   3.048  0.6417 -0.0675  0.7684
44690SOL    HW244001   2.265   3.531   3.083  0.2981 -0.1088  0.0191
44691SOL     OW44002  12.429   3.469   1.878 -0.5897 -0.2121 -0.1711
44691SOL    HW144003  12.422   3.396   1.816  0.3919 -1.8186  1.5123
44691SOL    HW244004  12.502   3.521   1.845  1.1032 -2.0263  0.4857
44692SOL     OW44005   2.818   2.592   9.367  0.2258  0.3756 -0.0043
44692SOL    HW144006   2.846   2.661   9.306 -0.8985 -0.6762 -1.8045
44692SOL    HW244007   2.830   2.630   9.454  1.2368  2.2026 -0.8914
44693SOL     OW44008   4.418   6.158   0.384  0.0797  0.1955 -0.1149
44693SOL    HW144009   4.336   6.176   0.338 -0.2366 -0.6004  0.1309
44693SOL    HW244010   4.395   6.094   0.451  1.0646 -0.6664 -0.5766
44694SOL     OW44011   5.060  13.068   1.762 -0.0188  0.1315 -0.2725
44694SOL    HW144012   5.092  13.078   1.672  0.7243  0.3053 -0.0023
44694SOL    HW244013   5.101  13.140   1.809  0.0083 -0.2629  0.3118
44695SOL     OW44014   1.382   4.200   6.089  0.4200  0.2486  0.2265
44695SOL    HW144015   1.460   4.172   6.137  0.3808  1.0081  0.7636
44695SOL    HW244016   1.408   4.280   6.045  0.0033  0.4054  0.2527
44696SOL     OW44017   1.373   8.425   7.260 -0.0862 -0.1554 -0.2620
44696SOL    HW144018   1.418   8.380   7.189  1.7584 -3.4549  2.6731
44696SOL    HW244019   1.430   8.497   7.284 -0.7827  1.0607 -2.0725
44697SOL     OW44020   1.208   9.728   4.412  0.0647 -0.4063 -0.2940
44697SOL    HW144021   1.270   9.656   4.408  0.3756 -0.2825  1.4652
44697SOL    HW244022   1.127   9.693   4.374 -0.3958 -2.3643  2.2817
44698SOL     OW44023   0.566   7.082   1.094  0.6444  0.3907  0.4650
44698SOL    HW144024   0.605   7.156   1.047  0.4460  0.8513  1.0056
44698SOL    HW244025   0.640   7.041   1.138  0.5561  1.2151  1.4257
44699SOL     OW44026   0.934   7.525  12.810  0.1589 -0.3351  0.7424
44699SOL    HW144027   1.024   7.546  12.832  0.2854  0.5638 -0.5470
44699SOL    HW244028   0.882   7.568  12.878  0.5804  1.5514 -0.0715
44700SOL     OW44029   9.193   8.821  11.230 -0.4892 -0.5873  1.0507
44700SOL    HW144030   9.163   8.890  11.171 -1.1447 -1.4341  0.3651
44700SOL    HW244031   9.288   8.821  11.220 -0.2163  1.7131  2.7773
44701SOL     OW44032   9.034   4.209  10.746  0.2549 -0.6748 -0.2106
44701SOL    HW144033   9.005   4.292  10.708 -0.1849 -0.9933 -0.5714
44701SOL    HW244034   9.116   4.231  10.791  0.6368 -0.2339 -1.0918
44702SOL     OW44035   9.789   7.415   5.946 -0.6890 -0.5376 -0.2230
44702SOL    HW144036   9.777   7.508   5.929 -0.8589 -0.6583 -0.7984
44702SOL    HW244037   9.884   7.402   5.949 -0.6550 -0.1328  1.1346
44703SOL     OW44038   6.256   2.053   9.077  0.4214 -0.0303 -0.7905
44703SOL    HW144039   6.295   1.966   9.081  1.8714  0.6243 -0.0092
44703SOL    HW244040   6.169   2.042   9.116  1.0498 -0.8842  0.4380
44704SOL     OW44041  13.065   8.025   4.067  0.6315 -0.4816 -0.3708
44704SOL    HW144042  13.146   8.074   4.082  0.2937 -0.0218 -0.0261
44704SOL    HW244043  13.057   7.968   4.144 -0.4060  0.9189  0.6076
44705SOL     OW44044   6.149   0.136   6.115 -0.0106  0.1841  0.9772
44705SOL    HW144045   6.241   0.110   6.122 -0.1060 -0.4072  0.1370
44705SOL    HW244046   6.145   0.219   6.163  1.1768  0.7213  0.2217
44706SOL     OW44047  12.566   1.179   0.643 -0.2213  0.7741 -0.3318
44706SOL    HW144048  12.545   1.258   0.594  3.4008  1.2320 -1.4518
44706SOL    HW244049  12.542   1.107   0.584 -2.1386  1.0045  0.0913
44707SOL     OW44050  10.612  13.206   1.370 -0.0471 -0.7663  0.5234
44707SOL    HW144051  10.707  13.197   1.363  0.0488  0.5769 -0.2433
44707SOL    HW244052  10.584  13.233   1.283 -0.8210  1.1650  1.3193
44708SOL     OW44053  11.671   8.757   2.589  0.0013 -0.0697 -0.7307
44708SOL    HW144054  11.626   8.674   2.602 -0.1809 -0.1541 -1.8521
44708SOL    HW244055  11.747   8.752   2.646  0.0524 -1.0518 -0.8748
44709SOL     OW44056   6.235   9.414   7.632  0.2101  0.3885  0.2370
44709SOL    HW144057   6.311   9.454   7.673  1.0455  0.2956 -1.1801
44709SOL    HW244058   6.219   9.467   7.554 -2.5007  1.7277  1.5516
44710SOL     OW44059   3.528   4.410   5.011  0.4855  0.1979 -0.7770
44710SOL    HW144060   3.511   4.406   5.105  0.1532 -0.0049 -0.8454
44710SOL    HW244061   3.593   4.480   5.002  0.0766  0.6246 -0.4636
44711SOL     OW44062   5.724   0.658   9.487  0.3615 -0.0658  0.0684
44711SOL    HW144063   5.747   0.638   9.578 -1.7771  2.9507  1.4554
44711SOL    HW244064   5.664   0.589   9.462  1.8869 -1.6072  0.4445
44712SOL     OW44065   5.096   3.318   5.139 -0.0200  0.4498  0.4610
44712SOL    HW144066   5.108   3.248   5.075  1.4631 -1.2719  2.4708
44712SOL    HW244067   5.110   3.399   5.090  0.5688 -0.7582 -1.4665
44713SOL     OW44068   6.778   8.036   7.086  0.0967 -0.2644  0.7807
44713SOL    HW144069   6.767   7.942   7.076 -0.2491 -0.0863 -0.6425
44713SOL    HW244070   6.689   8.071   7.089  0.2241  0.0636  0.8473
44714SOL     OW44071   0.096   1.352   0.963 -0.4224 -0.1948  0.1816
44714SOL    HW144072   0.002   1.339   0.970 -0.2825 -1.1606  0.3783
44714SOL    HW244073   0.134   1.281   1.014  0.4987 -2.2475 -3.0801
44715SOL     OW44074  10.879  11.723   8.587 -0.2327  0.2232  0.5374
44715SOL    HW144075  10.844  11.672   8.660 -3.9226  0.6196 -0.7752
44715SOL    HW244076  10.869  11.814   8.614  1.7625  0.4143  0.8609
44716SOL     OW44077   4.198   7.613   8.037 -0.0081  0.2275  0.2493
44716SOL    HW144078   4.258   7.545   8.008 -1.6866 -0.7493 -1.1594
44716SOL    HW244079   4.221   7.628   8.129  1.6449 -0.8588  0.0562
44717SOL     OW44080   7.209   8.748   5.369  0.5224  0.5109 -0.4852
44717SOL    HW144081   7.222   8.696   5.290 -0.5099 -1.5508  0.6032
44717SOL    HW244082   7.242   8.835   5.347  1.3795 -0.3212 -2.7527
44718SOL     OW44083  10.980   7.944   2.794 -0.7124  0.1416 -0.0084
44718SOL    HW144084  11.045   8.011   2.775 -0.3175 -0.0651  0.5646
44718SOL    HW244085  10.899   7.992   2.809 -0.5169  0.4626  0.0225
44719SOL     OW44086   9.800  10.404   7.299 -0.0173  0.3079  0.1370
44719SOL    HW144087   9.755  10.378   7.219  0.9024  1.6446 -0.8446
44719SOL    HW244088   9.739  10.462   7.344 -1.2244 -1.7405  1.3005
44720SOL     OW44089  10.424   9.492   1.337 -0.1424  0.0898  0.0491
44720SOL    HW144090  10.388   9.405   1.355 -1.3663  0.6301  0.3362
44720SOL    HW244091  10.494   9.476   1.274 -1.1600 -1.0045 -0.8729
44721SOL     OW44092   4.795   0.803  12.938 -0.6749 -0.0362 -0.5067
44721SOL    HW144093   4.884   0.808  12.903 -0.5135  1.2288  0.0340
44721SOL    HW244094   4.800   0.733  13.004 -0.6120 -1.3674 -1.8742
44722SOL     OW44095   1.306  11.396  12.966 -0.1234  0.1697 -0.2210
44722SOL    HW144096   1.254  11.316  12.964  1.3856 -0.9714  2.2764
44722SOL    HW244097   1.263  11.450  13.032 -0.5743  1.0822 -1.2211
44723SOL     OW44098   5.966   8.658   6.825 -0.4035 -0.6330  0.0253
44723SOL    HW144099   5.955   8.684   6.733 -0.4286  0.9378  0.4538
44723SOL    HW244100   6.060   8.637   6.832  0.3236  2.2507  0.3085
44724SOL     OW44101   2.023   8.734   8.053 -0.1605  0.2564  0.2385
44724SOL    HW144102   1.944   8.746   8.105 -0.6385 -0.4070 -0.3113
44724SOL    HW244103   2.026   8.640   8.034 -0.4281  0.5671 -1.5423
44725SOL     OW44104  10.210   8.081   6.880 -0.5277  0.1244  0.2702
44725SOL    HW144105  10.296   8.059   6.916 -0.3754 -0.5388 -0.4765
44725SOL    HW244106  10.194   8.171   6.910  0.2284  0.0999  0.7759
44726SOL     OW44107  12.497   8.558   8.962 -0.1409 -0.2576  0.5945
44726SOL    HW144108  12.499   8.654   8.953  1.5434 -0.3263 -0.4310
44726SOL    HW244109  12.467   8.527   8.876 -1.2306 -0.6513  1.1088
44727SOL     OW44110   6.497  11.302   5.157  0.0162 -0.0692 -0.4412
44727SOL    HW144111   6.444  11.283   5.234 -0.2666  0.0140 -0.6137
44727SOL    HW244112   6.435  11.299   5.084  0.2180  0.1938 -0.6260
44728SOL     OW44113  11.143   1.498   0.003 -0.2044  0.1906  0.2070
44728SOL    HW144114  11.194   1.548  -0.061 -0.5257  1.9959  1.2871
44728SOL    HW244115  11.087   1.563   0.045 -0.0664 -0.9243  2.2598
44729SOL     OW44116   0.481   1.845  11.194  0.2934 -0.1434  0.6474
44729SOL    HW144117   0.550   1.857  11.129  0.6691 -1.3971  0.7816
44729SOL    HW244118   0.524   1.860  11.278  0.8238 -2.3532  0.8322
44730SOL     OW44119   9.318   0.693   4.028 -0.0801  0.1410  0.5638
44730SOL    HW144120   9.265   0.712   3.951  0.2973  2.1542  0.7374
44730SOL    HW244121   9.407   0.680   3.994  0.1730  1.4650  0.6391
44731SOL     OW44122   5.768   4.314  12.623  0.4351 -0.0615 -0.0748
44731SOL    HW144123   5.796   4.227  12.652  1.1225  0.4901  0.9813
44731SOL    HW244124   5.824   4.374  12.672 -1.4011  1.0329  0.7621
44732SOL     OW44125   9.151   8.315   8.082 -0.1501  0.4497 -0.0598
44732SOL    HW144126   9.179   8.252   8.015 -1.7822  0.0041 -0.3562
44732SOL    HW244127   9.119   8.261   8.154 -0.6228  0.9242  0.0921
44733SOL     OW44128   1.156  11.785   7.990 -0.2160  0.2924 -0.4485
44733SOL    HW144129   1.082  11.801   7.931  0.1187 -0.4040 -1.0771
44733SOL    HW244130   1.122  11.726   8.056 -0.4261  0.5878 -0.2881
44734SOL     OW44131  10.461   3.723  11.225  0.0668 -0.0196  0.1566
44734SOL    HW144132  10.533   3.686  11.174  0.4383  0.9493 -0.0490
44734SOL    HW244133  10.504   3.767  11.299 -0.5040 -1.9715  1.7145
44735SOL     OW44134  10.330   0.742   6.112  0.2798  0.3939  0.4796
44735SOL    HW144135  10.250   0.733   6.061 -0.2395  1.0707  1.1520
44735SOL    HW244136  10.319   0.681   6.185  0.9442 -0.4470 -0.1063
44736SOL     OW44137   9.294  12.376   9.365  0.5955 -0.0456 -0.1701
44736SOL    HW144138   9.308  12.364   9.459  0.0188 -1.0623 -0.2082
44736SOL    HW244139   9.254  12.463   9.358  0.5205 -0.0190  0.5359
44737SOL     OW44140  12.010   3.152   3.249 -0.2386  0.8375 -0.1689
44737SOL    HW144141  12.007   3.135   3.343 -1.9013 -0.7048 -0.4509
44737SOL    HW244142  11.922   3.181   3.227 -0.0273  0.6445 -1.3368
44738SOL     OW44143   2.672   9.643   2.256  0.6880  0.5485 -0.2616
44738SOL    HW144144   2.706   9.732   2.249 -0.5093  1.1112  0.7835
44738SOL    HW244145   2.687   9.619   2.347  0.8258 -0.2624 -0.4894
44739SOL     OW44146   3.282   4.009   7.651 -0.2619 -0.1252 -1.0629
44739SOL    HW144147   3.356   4.013   7.711  1.0907  1.4410 -2.7116
44739SOL    HW244148   3.208   4.040   7.703  0.3166 -1.2132  0.4742
44740SOL     OW44149   2.835   1.486   5.489  0.3245  0.2689 -0.2013
44740SOL    HW144150   2.739   1.490   5.490  0.3010  0.1506 -1.2716
44740SOL    HW244151   2.860   1.506   5.579 -0.7842 -1.4113  0.5554
44741SOL     OW44152   8.443   9.789  11.999  0.4003  0.6243  0.5437
44741SOL    HW144153   8.500   9.858  11.967 -1.0229  1.2872 -0.7042
44741SOL    HW244154   8.502   9.715  12.017  1.7276  1.5657  0.1872
44742SOL     OW44155   8.389  11.411   0.698  0.3967 -0.9464  0.0923
44742SOL    HW144156   8.299  11.433   0.720  0.4233 -1.1125  0.3872
44742SOL    HW244157   8.386  11.319   0.673  0.4677 -0.9275  0.0159
44743SOL     OW44158   6.609  13.060   2.112 -0.0204 -0.1642 -0.4342
44743SOL    HW144159   6.697  13.027   2.095 -0.0170 -0.3128 -0.1274
44743SOL    HW244160   6.589  13.031   2.201 -0.6858 -0.7874 -0.7785
44744SOL     OW44161   6.601   2.870   5.089  0.2929  0.1517  0.0592
44744SOL    HW144162   6.662   2.943   5.098 -0.9228  1.0997  1.1166
44744SOL    HW244163   6.589   2.859   4.995 -3.0280  4.4941 -0.3390
44745SOL     OW44164   0.325   5.501   2.676  0.0367  0.5921  0.0421
44745SOL    HW144165   0.335   5.407   2.689 -0.8129  0.2102 -1.6884
44745SOL    HW244166   0.383   5.521   2.603  0.0592  1.3641  0.2695
44746SOL     OW44167   6.889   6.543   0.069  0.4219  0.9291  0.3947
44746SOL    HW144168   6.939   6.613   0.111 -3.3051  2.8737  2.1127
44746SOL    HW244169   6.893   6.470   0.131 -0.0830  1.6005  1.2316
44747SOL     OW44170  11.975   7.709  11.822  0.2850 -0.4269 -0.9074
44747SOL    HW144171  11.945   7.800  11.826 -1.5889 -1.0378  0.4019
44747SOL    HW244172  12.070   7.715  11.828  0.1307  1.4009  1.2579
44748SOL     OW44173   4.495   8.800  12.493 -0.3986  0.2390  0.0622
44748SOL    HW144174   4.415   8.748  12.500  0.2571 -0.6399  1.7403
44748SOL    HW244175   4.531   8.799  12.582  0.4063  2.3686 -0.1888
44749SOL     OW44176  12.480  10.128   4.211  0.2975 -0.5157  0.7514
44749SOL    HW144177  12.389  10.106   4.191  0.1214  0.9504 -0.2670
44749SOL    HW244178  12.532  10.059   4.171 -0.3510 -1.2947  1.2267
44750SOL     OW44179   7.563   9.811   4.688 -0.3860 -0.3157  0.2170
44750SOL    HW144180   7.613   9.777   4.763 -2.8548 -0.3877  1.9274
44750SOL    HW244181   7.540   9.900   4.713 -0.5131 -0.0308 -0.8738
44751SOL     OW44182   1.159   5.266  12.749 -0.0025 -0.0800 -0.2246
44751SOL    HW144183   1.123   5.272  12.661  0.2916 -0.1417 -0.3500
44751SOL    HW244184   1.128   5.345  12.794 -0.2385 -0.1013 -0.3477
44752SOL     OW44185   0.953   4.989   5.839  0.0991 -0.4959  0.1573
44752SOL    HW144186   0.859   5.008   5.835  0.2523  0.2425  0.0591
44752SOL    HW244187   0.975   4.998   5.931  0.6471  2.1880 -0.1692
44753SOL     OW44188   6.386   4.415  12.897  0.1778 -0.1395 -0.2615
44753SOL    HW144189   6.291   4.416  12.904  0.2923  0.7695  1.8155
44753SOL    HW244190   6.408   4.500  12.857  0.1521  0.0541  0.1299
44754SOL     OW44191  10.720   9.939   5.445 -0.0931  0.5501 -0.2236
44754SOL    HW144192  10.783   9.995   5.491 -0.2343  0.2978  0.2804
44754SOL    HW244193  10.679   9.997   5.382  0.7548  0.6839 -0.6690
44755SOL     OW44194  11.560  10.929   2.594  0.4380 -0.2129  0.1156
44755SOL    HW144195  11.604  10.844   2.597 -0.7642 -0.8234  1.2891
44755SOL    HW244196  11.598  10.978   2.667 -0.7496 -0.7223  1.0983
44756SOL     OW44197   4.637   7.709   1.521 -0.4098 -0.4320  0.3133
44756SOL    HW144198   4.560   7.653   1.512  0.0401 -1.0402  0.1835
44756SOL    HW244199   4.602   7.794   1.548 -1.5693  0.6039 -3.7871
44757SOL     OW44200  10.762   7.798   0.645  0.2943  0.4281 -0.1338
44757SOL    HW144201  10.687   7.848   0.675 -0.6365 -0.7153 -0.4478
44757SOL    HW244202  10.735   7.765   0.559  1.6961  1.1118 -0.8726
44758SOL     OW44203  13.233   1.579   8.776  0.1613  0.2275 -0.2284
44758SOL    HW144204  13.254   1.505   8.833  1.5497 -1.2912 -2.5768
44758SOL    HW244205  13.210   1.649   8.837  3.5879 -0.6062  2.3594
44759SOL     OW44206  10.282   3.041   2.562 -0.9903 -0.4827  0.1695
44759SOL    HW144207  10.301   3.113   2.623  1.1487  1.1765 -2.2760
44759SOL    HW244208  10.200   3.066   2.519 -0.2854  0.4981 -0.6251
44760SOL     OW44209   8.912   2.026   0.193  0.3416  0.5159  0.0447
44760SOL    HW144210   8.920   1.946   0.140  1.4739 -0.5672  1.7273
44760SOL    HW244211   8.818   2.040   0.201  0.0607  1.5899 -3.3732
44761SOL     OW44212   0.592   3.011   9.610 -0.2012  0.0529 -0.0654
44761SOL    HW144213   0.561   3.097   9.637  1.1973 -0.1264  2.3483
44761SOL    HW244214   0.629   2.972   9.689  1.2859 -1.8485 -1.5862
44762SOL     OW44215   7.367   7.202  12.308 -0.2897  0.3763  0.3574
44762SOL    HW144216   7.375   7.147  12.230 -1.6631 -0.0888  0.5117
44762SOL    HW244217   7.294   7.261  12.288  1.3802  2.4615  0.0412
44763SOL     OW44218  12.537   8.821   3.164 -0.4494  0.3319  0.1255
44763SOL    HW144219  12.592   8.756   3.122 -0.4483 -0.2889  1.0587
44763SOL    HW244220  12.528   8.891   3.100  0.7403  0.0641 -0.3410
44764SOL     OW44221   1.514  11.344   8.320  0.4375  0.0714 -0.4259
44764SOL    HW144222   1.504  11.343   8.225 -0.4279  0.3310 -0.3416
44764SOL    HW244223   1.498  11.435   8.345 -0.8292 -0.2898  0.1188
44765SOL     OW44224   6.075  10.604   9.262  0.0521 -0.3763 -0.0579
44765SOL    HW144225   5.982  10.623   9.273  0.5073  1.4615  1.0366
44765SOL    HW244226   6.104  10.577   9.349  0.7177 -0.1218 -0.2009
44766SOL     OW44227  13.044   9.518   3.722 -0.3584  0.3797 -0.1269
44766SOL    HW144228  13.124   9.569   3.710  0.1374  0.0995  1.7254
44766SOL    HW244229  13.001   9.558   3.797  0.2134 -2.0575  1.6114
44767SOL     OW44230   7.678   7.735   6.918 -0.0717  0.1690 -0.4177
44767SOL    HW144231   7.711   7.695   6.998 -0.5543 -0.9020 -0.7444
44767SOL    HW244232   7.754   7.738   6.860  1.0265  3.4147  0.9150
44768SOL     OW44233  12.291   2.233   4.804  0.0455  0.2892 -0.2338
44768SOL    HW144234  12.287   2.259   4.896  0.7768 -2.1132  0.5559
44768SOL    HW244235  12.199   2.220   4.779 -0.1083 -0.7493  0.7493
44769SOL     OW44236   1.599  11.111   5.058  0.7542 -0.1261 -0.1730
44769SOL    HW144237   1.570  11.120   4.967 -0.6603 -0.2278  0.2398
44769SOL    HW244238   1.524  11.142   5.110  1.7325  0.4326  0.9538
44770SOL     OW44239   8.456   8.254  13.168 -0.0097 -0.2248 -0.2434
44770SOL    HW144240   8.526   8.301  13.123  0.0378  0.4875  0.5466
44770SOL    HW244241   8.486   8.163  13.170  1.2982  0.1849  0.7712
44771SOL     OW44242  12.798   0.860   3.560  0.4037 -0.4491 -0.1616
44771SOL    HW144243  12.822   0.832   3.471  2.0657 -1.8096  0.6552
44771SOL    HW244244  12.738   0.792   3.590 -0.5472  0.2710 -0.3850
44772SOL     OW44245   3.455   6.972  12.619 -0.2461  0.6488  0.1458
44772SOL    HW144246   3.389   7.040  12.605 -0.6201  0.4210  0.7467
44772SOL    HW244247   3.499   6.998  12.700  0.5459  0.9070 -0.3538
44773SOL     OW44248  10.241   6.532   2.759 -0.4454  0.6805 -0.0361
44773SOL    HW144249  10.274   6.484   2.683 -1.3872  0.8881 -0.5955
44773SOL    HW244250  10.306   6.601   2.775  1.6288 -1.4746  1.5788
44774SOL     OW44251  10.916   1.567  10.394  0.4143 -0.2349  0.7315
44774SOL    HW144252  10.865   1.643  10.424  2.0565  0.6048  1.5388
44774SOL    HW244253  10.851   1.500  10.377 -0.9370  0.6325  2.1881
44775SOL     OW44254   6.057   4.092   2.711 -0.0044  0.2850 -0.9559
44775SOL    HW144255   5.991   4.155   2.681 -0.6755  0.3318  0.5246
44775SOL    HW244256   6.078   4.040   2.633 -1.2739  0.7288 -1.6217
44776SOL     OW44257   5.404  10.254   2.731  0.2786  0.1359 -0.5595
44776SOL    HW144258   5.411  10.231   2.824 -0.1584 -1.0726 -0.8190
44776SOL    HW244259   5.457  10.333   2.722  1.2415 -0.3719  0.4891
44777SOL     OW44260   1.999   9.654   7.130 -0.1350 -0.2351 -0.0523
44777SOL    HW144261   2.053   9.693   7.199 -1.1520 -2.2773  2.0193
44777SOL    HW244262   2.056   9.588   7.090  0.0328  0.0709 -0.3293
44778SOL     OW44263   4.541   4.286   2.009 -0.5329 -0.5528 -0.1231
44778SOL    HW144264   4.628   4.316   2.037 -0.4992 -1.0132  0.2910
44778SOL    HW244265   4.542   4.296   1.914 -0.3464  0.2661 -0.0406
44779SOL     OW44266  10.645   2.225  11.629 -0.4829  0.1252  0.0306
44779SOL    HW144267  10.597   2.150  11.663 -0.3196 -0.1900 -0.4183
44779SOL    HW244268  10.731   2.220  11.671 -1.5163  1.9968  2.6448
44780SOL     OW44269  13.039   8.458  12.999  0.0438  0.2515 -0.4679
44780SOL    HW144270  12.982   8.383  12.987 -1.1235  1.1415 -0.6244
44780SOL    HW244271  13.124   8.420  13.021 -0.5459 -1.0994 -0.4365
44781SOL     OW44272   8.048  10.113   3.442  0.4322  0.7694  0.2022
44781SOL    HW144273   8.103  10.116   3.363 -1.0587 -0.7181 -0.9572
44781SOL    HW244274   8.087  10.044   3.495  1.5427  1.8888  0.8995
44782SOL     OW44275   8.808  11.848   8.451  0.0422 -0.1433  0.3739
44782SOL    HW144276   8.716  11.819   8.450 -0.5974  1.7849  0.1146
44782SOL    HW244277   8.820  11.885   8.538  0.5165 -0.1860  0.3250
44783SOL     OW44278   3.257   2.343  13.194 -0.1783  0.4124 -0.0749
44783SOL    HW144279   3.286   2.271  13.138 -0.8901 -0.4619  0.6592
44783SOL    HW244280   3.270   2.312  13.283 -1.2420  0.8691  0.2626
44784SOL     OW44281   8.039  12.306   4.089  0.6186  0.0928 -0.2352
44784SOL    HW144282   8.015  12.256   4.167  0.7405 -0.3805 -0.4956
44784SOL    HW244283   7.987  12.267   4.018  1.1868 -0.0878 -0.5588
44785SOL     OW44284   5.260   2.187   5.911  0.1552  0.1988  0.2378
44785SOL    HW144285   5.172   2.164   5.939 -0.0548  0.6600 -0.0367
44785SOL    HW244286   5.296   2.237   5.983 -0.0617  0.6134  0.0590
44786SOL     OW44287   5.220  10.149  11.036  0.2278 -0.2978 -0.0219
44786SOL    HW144288   5.229  10.066  11.083  0.6061  0.2365  0.8764
44786SOL    HW244289   5.236  10.216  11.102 -2.2989  0.5894 -0.1915
44787SOL     OW44290   2.199  12.161  11.428  0.4879 -0.4398 -0.2970
44787SOL    HW144291   2.157  12.201  11.504  0.8284  1.4357 -1.0323
44787SOL    HW244292   2.289  12.194  11.431  0.8495 -1.3475 -0.8395
44788SOL     OW44293   2.982   2.215   0.289  0.3643 -0.4955  0.1570
44788SOL    HW144294   2.970   2.285   0.226 -0.6402 -1.2963 -0.5845
44788SOL    HW244295   3.076   2.195   0.285  0.6558  0.7456  0.3547
44789SOL     OW44296   8.269   0.303   9.521 -0.0182  0.0814 -0.0533
44789SOL    HW144297   8.299   0.379   9.471  1.0700 -0.6328 -0.5358
44789SOL    HW244298   8.228   0.246   9.455 -1.3580  0.4815  0.3999
44790SOL     OW44299  12.556   4.832   9.245  0.8991  0.2471  0.4589
44790SOL    HW144300  12.490   4.822   9.314  0.0560 -0.9129 -0.4759
44790SOL    HW244301  12.639   4.810   9.287  0.4777  0.1039  1.2344
44791SOL     OW44302  12.175   5.733  10.308  0.4985 -0.6041 -0.0030
44791SOL    HW144303  12.084   5.731  10.279  0.8177  0.7139 -1.2213
44791SOL    HW244304  12.226   5.722  10.228  1.4289 -1.7442  0.7133
44792SOL     OW44305   3.845   0.770   8.880  0.0896 -0.2195  0.3909
44792SOL    HW144306   3.773   0.709   8.863  0.9125 -0.8367 -1.0277
44792SOL    HW244307   3.904   0.720   8.938 -0.3769  0.1246  1.1848
44793SOL     OW44308   8.703   3.421   7.431 -0.1649 -0.5396 -0.2155
44793SOL    HW144309   8.734   3.358   7.366 -0.6008 -1.2238  0.2321
44793SOL    HW244310   8.646   3.370   7.489 -0.8124  0.3380 -0.0559
44794SOL     OW44311  11.146  11.502   5.288  0.6033 -0.1412  0.3968
44794SOL    HW144312  11.068  11.500   5.342  0.1007 -0.3308 -0.3163
44794SOL    HW244313  11.113  11.514   5.199  1.4276  0.4410  0.1637
44795SOL     OW44314   5.071   4.003   4.200 -0.1935 -0.1817 -0.5977
44795SOL    HW144315   5.153   4.002   4.250  1.0027 -1.7537 -2.4284
44795SOL    HW244316   5.082   4.074   4.137  0.1160 -0.8569 -1.3258
44796SOL     OW44317   1.263   2.636   9.262  0.2396  0.2945  0.0341
44796SOL    HW144318   1.216   2.597   9.337 -0.6826 -1.7253 -1.5087
44796SOL    HW244319   1.304   2.562   9.218  0.6327  1.4094 -1.5509
44797SOL     OW44320  10.714   4.277   5.261 -0.6125  0.3241  0.1576
44797SOL    HW144321  10.779   4.222   5.304 -0.5070  0.0757 -0.3046
44797SOL    HW244322  10.650   4.298   5.328  0.1811  0.9505  0.7451
44798SOL     OW44323   0.162   5.333   5.528 -0.1622 -0.1290  0.0129
44798SOL    HW144324   0.134   5.288   5.608  0.5906  0.9029  0.8897
44798SOL    HW244325   0.255   5.350   5.542  0.1398 -0.5358 -1.3931
44799SOL     OW44326   6.479   1.448   2.601  0.1947 -0.1987  0.3810
44799SOL    HW144327   6.449   1.472   2.688 -1.4338  0.2933 -0.2739
44799SOL    HW244328   6.426   1.373   2.577  0.8053 -0.4906 -0.0995
44800SOL     OW44329   2.013   2.524   2.201 -0.4926  0.6246  0.3471
44800SOL    HW144330   2.090   2.471   2.179 -1.5983 -0.5179 -1.0758
44800SOL    HW244331   1.978   2.484   2.280  0.1143  0.8530  0.7319
44801SOL     OW44332  12.460   1.358   8.860  0.4819 -0.2986 -0.1845
44801SOL    HW144333  12.439   1.301   8.934 -0.1359 -0.2705 -0.3323
44801SOL    HW244334  12.420   1.442   8.883 -1.4250 -0.8173 -1.4115
44802SOL     OW44335  10.759   0.164   5.731  0.2021 -0.1001 -0.0714
44802SOL    HW144336  10.790   0.123   5.812 -2.9610 -1.7164  0.4743
44802SOL    HW244337  10.714   0.243   5.760 -3.0888 -1.9074  0.2143
44803SOL     OW44338   4.013   0.799   5.037 -0.2326  0.1236 -0.2550
44803SOL    HW144339   3.973   0.782   5.122 -1.3287 -1.8988 -1.1050
44803SOL    HW244340   3.959   0.868   4.998  0.2754  1.0600  0.6480
44804SOL     OW44341   0.199   3.800   7.971  0.1585  0.8496 -0.5389
44804SOL    HW144342   0.132   3.733   7.981  0.4751  0.2896 -1.8563
44804SOL    HW244343   0.264   3.779   8.037  0.3368 -0.2790 -1.0478
44805SOL     OW44344  13.267   1.429   2.220  0.2715 -0.1413  0.0945
44805SOL    HW144345  13.211   1.452   2.146 -0.1875 -0.4579  0.3384
44805SOL    HW244346  13.304   1.512   2.249 -0.7104  0.1794  0.4433
44806SOL     OW44347   3.458   3.883   3.589 -0.3861 -0.3077  0.2151
44806SOL    HW144348   3.383   3.876   3.529  0.4290 -0.3845 -0.8204
44806SOL    HW244349   3.431   3.834   3.666 -1.2972 -0.5661 -0.2489
44807SOL     OW44350   7.146   8.155   5.534 -0.1363 -0.4846 -0.3845
44807SOL    HW144351   7.231   8.115   5.516  1.3781  2.8032 -1.3760
44807SOL    HW244352   7.162   8.212   5.610 -1.9300 -0.9799  0.4334
44808SOL     OW44353   0.174  11.636   9.361  0.5252  0.1011 -0.3265
44808SOL    HW144354   0.129  11.717   9.385 -0.3558  0.2907 -2.4350
44808SOL    HW244355   0.257  11.640   9.409 -0.6443  0.8854  1.7766
44809SOL     OW44356   5.254   0.906  12.496 -0.1068 -0.5952 -0.0009
44809SOL    HW144357   5.335   0.937  12.455  0.2820 -1.1152  0.3785
44809SOL    HW244358   5.282   0.845  12.563 -0.7108  0.5887  1.3983
44810SOL     OW44359   1.374   0.203  10.517  0.9254 -0.2970 -0.9327
44810SOL    HW144360   1.457   0.208  10.566  0.4596 -1.4683  0.0400
44810SOL    HW244361   1.340   0.292  10.518  1.1895 -0.1850  0.4697
44811SOL     OW44362  10.575   0.496   3.458 -0.2388  0.4900  0.3411
44811SOL    HW144363  10.570   0.421   3.518  0.0752  0.0595 -0.1555
44811SOL    HW244364  10.581   0.572   3.515 -1.5967  0.2255  0.8748
44812SOL     OW44365   3.769   6.542  11.116 -0.2377 -0.2152  0.2498
44812SOL    HW144366   3.792   6.579  11.031  0.6068  0.8031  0.9061
44812SOL    HW244367   3.817   6.459  11.119 -0.1207 -0.1661 -0.1811
44813SOL     OW44368   5.270   2.986   7.676  0.4790 -0.5025 -0.1874
44813SOL    HW144369   5.361   3.006   7.657 -0.1099  2.5784 -0.1942
44813SOL    HW244370   5.266   2.982   7.771  0.6560 -1.0618 -0.1954
44814SOL     OW44371   9.986   4.562   5.748  0.2149  0.0220  0.0255
44814SOL    HW144372   9.939   4.538   5.827 -0.2673 -1.0488 -0.5706
44814SOL    HW244373   9.957   4.499   5.682  0.6756  0.8324 -0.9849
44815SOL     OW44374   8.072  12.039   5.849 -0.2348  0.0521  0.0886
44815SOL    HW144375   7.986  12.074   5.826  0.6252  1.3119 -1.3536
44815SOL    HW244376   8.099  11.989   5.772  0.6454  0.3100  0.2140
44816SOL     OW44377   6.695  12.545  11.016 -0.6071  0.2749 -0.1370
44816SOL    HW144378   6.772  12.488  11.021 -0.4459  0.5070  0.0133
44816SOL    HW244379   6.660  12.530  10.928 -0.8220 -0.3877  0.0513
44817SOL     OW44380  11.314  10.533   3.823  0.0871 -0.2186  0.0073
44817SOL    HW144381  11.369  10.607   3.795 -0.9640  0.2236 -0.9752
44817SOL    HW244382  11.270  10.505   3.743 -1.3749 -0.3356  0.8339
44818SOL     OW44383   0.006  12.484   5.541 -0.6845 -0.0921  0.5936
44818SOL    HW144384  -0.082  12.506   5.511  0.1104  1.8489 -0.4772
44818SOL    HW244385   0.019  12.537   5.619 -0.3941 -0.2411  0.6489
44819SOL     OW44386   9.343  10.511   7.460 -0.2854  0.0667  0.6523
44819SOL    HW144387   9.265  10.457   7.468  0.3825 -1.0284  0.1113
44819SOL    HW244388   9.311  10.601   7.461 -1.6768 -0.3668 -0.7086
44820SOL     OW44389   5.881   9.947  11.630 -0.4826  0.0242  0.1121
44820SOL    HW144390   5.815   9.931  11.698  0.1805 -0.0743  0.7396
44820SOL    HW244391   5.831   9.943  11.548 -0.9529 -1.9009  0.4458
44821SOL     OW44392   3.697  11.628   5.974  0.2681 -0.0176 -0.5269
44821SOL    HW144393   3.640  11.673   6.036 -0.9685 -3.2172  0.8966
44821SOL    HW244394   3.655  11.641   5.889  0.1124  1.6188 -0.2276
44822SOL     OW44395   8.115  12.477   8.813  0.2540  0.4320 -0.0462
44822SOL    HW144396   8.085  12.508   8.728 -1.0541 -0.2623  0.1444
44822SOL    HW244397   8.196  12.429   8.794  0.0688  0.4392 -0.8740
44823SOL     OW44398   9.241   8.538   8.942  0.0730  0.3865 -0.2514
44823SOL    HW144399   9.239   8.494   9.027 -1.6757 -0.3659 -0.6411
44823SOL    HW244400   9.316   8.499   8.897  0.0449 -0.3853  0.3481
44824SOL     OW44401   0.729  13.307   0.592 -0.3994  0.6161 -0.8118
44824SOL    HW144402   0.736  13.402   0.584  0.8139  0.4509 -2.2404
44824SOL    HW244403   0.816  13.278   0.617 -1.2045 -0.0225  1.5328
44825SOL     OW44404   3.489  10.410   3.760  1.0125  0.1956  0.0924
44825SOL    HW144405   3.409  10.463   3.757  1.6751  1.2228 -0.2666
44825SOL    HW244406   3.459  10.320   3.750  0.0895  0.7105 -2.6243
44826SOL     OW44407   5.896   8.181   2.610  0.7401  0.7687  0.3446
44826SOL    HW144408   5.968   8.123   2.635  1.1125  1.2964  0.5343
44826SOL    HW244409   5.899   8.252   2.675 -0.9304  0.0183  1.2748
44827SOL     OW44410   1.376   1.339   1.309  0.3837 -0.5296  0.0093
44827SOL    HW144411   1.460   1.371   1.341  0.0040  1.9407 -1.1850
44827SOL    HW244412   1.317   1.345   1.384  0.4449  1.3118 -0.0419
44828SOL     OW44413   2.423   7.871   5.013 -0.0544 -0.1311  0.2179
44828SOL    HW144414   2.347   7.871   5.070 -1.1574  0.6001 -1.1757
44828SOL    HW244415   2.397   7.817   4.938 -1.2407  3.9216 -2.6691
44829SOL     OW44416  10.366   9.423   3.857 -0.4187 -0.0224 -0.4540
44829SOL    HW144417  10.408   9.408   3.772  1.3733 -0.1862  0.4132
44829SOL    HW244418  10.422   9.488   3.900 -0.8405 -0.5516  0.9269
44830SOL     OW44419  10.329  12.687   0.211  0.3741  0.1375 -0.3702
44830SOL    HW144420  10.268  12.756   0.188  1.6174  1.2505 -0.4263
44830SOL    HW244421  10.413  12.716   0.176  1.4223 -0.2206  1.6856
44831SOL     OW44422   7.756   8.228  11.935 -0.7197  0.1278 -0.2645
44831SOL    HW144423   7.700   8.154  11.909  0.3532 -0.5410 -0.7173
44831SOL    HW244424   7.822   8.190  11.992 -0.3587  0.7990 -0.2190
44832SOL     OW44425  12.931   0.633  11.670  0.2976  0.3599 -0.1269
44832SOL    HW144426  12.976   0.655  11.751 -0.8808 -1.0589  0.9929
44832SOL    HW244427  12.866   0.567  11.696  0.4845 -0.8322 -2.3728
44833SOL     OW44428   9.648   6.153  12.732 -0.3645 -0.0576  0.4970
44833SOL    HW144429   9.609   6.235  12.703 -1.6163 -1.0930 -0.9386
44833SOL    HW244430   9.654   6.100  12.652 -1.5200 -2.1046  1.6791
44834SOL     OW44431   7.106   8.636  11.008 -0.1149 -0.1150  0.7878
44834SOL    HW144432   7.029   8.686  11.036  1.3718  2.4910  0.5465
44834SOL    HW244433   7.131   8.586  11.086  0.1852  2.0443  2.1829
44835SOL     OW44434   3.093  11.851   1.138  0.6977 -0.3446  0.0101
44835SOL    HW144435   3.178  11.894   1.135  0.4115  0.4011  1.4982
44835SOL    HW244436   3.099  11.780   1.074  2.9525 -1.2384  1.1066
44836SOL     OW44437   8.349   5.311  11.441 -0.4521 -0.2325  0.3707
44836SOL    HW144438   8.356   5.227  11.486 -0.2077 -0.4678 -0.0952
44836SOL    HW244439   8.352   5.377  11.511  1.2548 -0.5338  0.6321
44837SOL     OW44440   1.625  13.010   0.700 -0.5449 -0.1960  0.3019
44837SOL    HW144441   1.579  13.065   0.637 -0.0698 -1.2071 -0.9650
44837SOL    HW244442   1.693  12.967   0.649  0.9606  0.2253  1.8496
44838SOL     OW44443  10.325  12.631   3.074  0.1143 -0.3248 -0.1617
44838SOL    HW144444  10.406  12.634   3.125 -1.6094 -1.0710  2.8270
44838SOL    HW244445  10.347  12.678   2.993  2.8160  1.7442  1.5618
44839SOL     OW44446   9.142   9.181   8.841  0.0580  0.5263 -0.0287
44839SOL    HW144447   9.137   9.198   8.747 -1.8509  0.3672  0.0013
44839SOL    HW244448   9.124   9.266   8.882 -0.6044  0.2982  0.1698
44840SOL     OW44449  12.058  11.817  11.691  0.4828  0.5058 -0.1541
44840SOL    HW144450  11.970  11.790  11.717  0.1670  0.6967 -0.9729
44840SOL    HW244451  12.093  11.863  11.766 -0.2987  0.8296  0.0152
44841SOL     OW44452   5.667   4.884  11.058  0.3692 -0.3820 -0.0663
44841SOL    HW144453   5.754   4.921  11.070  0.2452 -0.1309  0.0564
44841SOL    HW244454   5.608   4.950  11.094  0.2937 -1.8647  2.8721
44842SOL     OW44455  11.376   1.158  12.121 -0.6977 -0.0764  0.2781
44842SOL    HW144456  11.353   1.137  12.211  0.3595 -0.9282  0.3677
44842SOL    HW244457  11.299   1.203  12.086  0.0523  3.4481  2.6264
44843SOL     OW44458   0.606   7.783  10.899  0.0842  0.3249 -0.0718
44843SOL    HW144459   0.652   7.722  10.957 -0.3842  0.3509  0.3301
44843SOL    HW244460   0.554   7.728  10.842 -2.0711  0.3653  1.7219
44844SOL     OW44461   0.806   8.713  13.177  0.7560  0.2467 -0.0542
44844SOL    HW144462   0.873   8.670  13.231  0.4472  0.4239  0.4870
44844SOL    HW244463   0.773   8.643  13.120  0.8974 -0.0146  0.1798
44845SOL     OW44464   5.983  11.492  12.095  0.2172 -0.1118  0.6264
44845SOL    HW144465   6.017  11.476  12.183 -0.0623 -0.1883  0.7216
44845SOL    HW244466   5.905  11.546  12.109  1.1449  1.3926  0.3138
44846SOL     OW44467   1.589   5.886   8.432  0.2989 -0.7616 -0.2321
44846SOL    HW144468   1.552   5.953   8.375 -2.8661 -2.7110 -0.7263
44846SOL    HW244469   1.619   5.817   8.373 -0.0077 -1.3852  0.3220
44847SOL     OW44470   0.051   2.838   2.970  0.0864 -0.0428 -0.3246
44847SOL    HW144471  -0.022   2.852   2.909 -0.6742 -3.7198 -0.4981
44847SOL    HW244472   0.129   2.845   2.915 -0.3390  0.6087 -0.8632
44848SOL     OW44473  11.683   3.460   7.599 -0.3268 -0.0135  0.0055
44848SOL    HW144474  11.626   3.506   7.538 -1.3141 -1.1327  0.0339
44848SOL    HW244475  11.743   3.410   7.543  1.0800  1.6158 -0.0310
44849SOL     OW44476   0.140   2.137  12.795  0.0672  0.4382 -0.1495
44849SOL    HW144477   0.166   2.204  12.857  1.3519 -1.0824  1.0486
44849SOL    HW244478   0.044   2.135  12.799  0.0773  1.3019  0.7244
44850SOL     OW44479   8.122   6.233   4.261 -0.3530 -0.7432 -0.4643
44850SOL    HW144480   8.148   6.293   4.330 -0.0694 -1.2699 -0.1085
44850SOL    HW244481   8.164   6.267   4.182  0.2946 -0.8104 -0.1532
44851SOL     OW44482   1.037  10.947   9.627 -0.6894  0.0016 -0.0269
44851SOL    HW144483   1.089  10.868   9.639 -0.2167 -0.0749 -2.2149
44851SOL    HW244484   0.962  10.935   9.685 -1.3645 -2.7468 -1.3163
44852SOL     OW44485   9.349   6.233   0.430 -0.4475  0.5444 -0.8018
44852SOL    HW144486   9.399   6.310   0.459 -2.1676  1.0151  1.1165
44852SOL    HW244487   9.365   6.167   0.497 -2.0025  0.5754 -0.3584
44853SOL     OW44488  13.033   1.546   1.178  0.0917  0.7502  0.0537
44853SOL    HW144489  12.949   1.585   1.202 -0.0392 -0.0766  1.0492
44853SOL    HW244490  13.037   1.465   1.230  1.5219  0.8070  0.0791
44854SOL     OW44491   4.876  11.008   8.841 -0.2237 -0.5730  0.4486
44854SOL    HW144492   4.949  10.999   8.780 -1.6038  2.2898 -1.9167
44854SOL    HW244493   4.842  10.920   8.851  2.1481 -1.6427 -0.1495
44855SOL     OW44494  11.052   0.777  11.833 -0.2272  0.7573  0.4079
44855SOL    HW144495  11.132   0.800  11.880  0.6222 -2.1155  0.5565
44855SOL    HW244496  11.004   0.719  11.893  0.4884 -2.3388 -1.7523
44856SOL     OW44497   3.436  13.295   8.967 -0.0839 -0.0742  0.2325
44856SOL    HW144498   3.388  13.373   8.996 -0.1096 -0.0454  0.1132
44856SOL    HW244499   3.396  13.272   8.883  0.9731  0.7274 -0.5204
44857SOL     OW44500  12.992   2.752  11.675 -0.1825 -0.2946 -0.1364
44857SOL    HW144501  13.013   2.808  11.750 -1.9770 -0.7554  0.7589
44857SOL    HW244502  13.039   2.671  11.692 -0.6665 -0.4369  0.5625
44858SOL     OW44503   8.682   7.576   1.192 -0.0513  0.2874  0.2239
44858SOL    HW144504   8.750   7.530   1.240  0.8964  1.0768 -0.3286
44858SOL    HW244505   8.679   7.664   1.231 -0.6994  0.2881  0.1912
44859SOL     OW44506   6.105  11.814   9.873 -0.4183  0.2839 -0.0818
44859SOL    HW144507   6.134  11.905   9.873 -0.3537  0.2651 -0.3964
44859SOL    HW244508   6.039  11.810   9.804 -1.0135  0.2748  0.4720
44860SOL     OW44509   7.907   0.651   7.772 -0.4816 -0.2698  0.5022
44860SOL    HW144510   7.949   0.566   7.768 -0.0095 -0.0282  0.2925
44860SOL    HW244511   7.813   0.632   7.761 -0.3479 -0.7300  0.1325
44861SOL     OW44512  11.717   6.845   7.584  0.3042  0.9911 -0.4121
44861SOL    HW144513  11.783   6.913   7.599 -0.9173  1.8647  1.3682
44861SOL    HW244514  11.767   6.765   7.567  1.8236  1.5832  1.0982
44862SOL     OW44515   1.534   9.828   9.754  0.9314 -0.2581 -0.2566
44862SOL    HW144516   1.503   9.803   9.841  0.1122 -0.3264 -0.5497
44862SOL    HW244517   1.455   9.824   9.699  1.7490 -1.9635 -1.3998
44863SOL     OW44518   6.960   0.201  10.049 -0.7925  0.0829  0.1523
44863SOL    HW144519   6.907   0.214   9.970 -1.6563 -2.5335  0.1879
44863SOL    HW244520   6.907   0.142  10.103 -0.1315  1.6064  2.6434
44864SOL     OW44521   6.077  10.207   0.388  0.5921 -0.0292 -0.1188
44864SOL    HW144522   6.165  10.179   0.361  0.3013 -0.2818 -0.8229
44864SOL    HW244523   6.069  10.174   0.478  0.9517 -0.6175 -0.2932
44865SOL     OW44524   4.708   3.483   8.269 -0.1446 -0.7444 -0.4186
44865SOL    HW144525   4.745   3.444   8.348  0.4234 -1.0289 -0.8201
44865SOL    HW244526   4.782   3.526   8.227 -0.3701 -0.9005 -0.9831
44866SOL     OW44527  11.067   9.696  11.264 -1.0882  0.3072  0.3763
44866SOL    HW144528  11.056   9.682  11.170 -1.0526  1.1184  0.2380
44866SOL    HW244529  11.135   9.763  11.270 -1.1545  0.3237  0.9746
44867SOL     OW44530  13.269   3.762   9.373 -0.6168 -0.5191 -0.1966
44867SOL    HW144531  13.341   3.717   9.416 -0.1172  1.4859  1.2184
44867SOL    HW244532  13.196   3.700   9.376  1.0592 -2.7777 -2.0632
44868SOL     OW44533   0.431   8.498   7.960 -0.1221  0.6829  0.0703
44868SOL    HW144534   0.379   8.572   7.992  0.7531  1.6290 -0.6398
44868SOL    HW244535   0.408   8.426   8.019  0.3393  1.9822  1.9317
44869SOL     OW44536  10.202   9.420   3.288  0.3159 -0.4654 -0.1522
44869SOL    HW144537  10.243   9.409   3.202  0.9495 -0.4765  0.1427
44869SOL    HW244538  10.112   9.445   3.269  0.8290  0.9618 -0.8381
44870SOL     OW44539   5.298   0.072   4.845  0.3653 -0.0048 -0.3582
44870SOL    HW144540   5.370   0.106   4.898  1.3506 -1.1008 -0.9413
44870SOL    HW244541   5.328  -0.013   4.815 -0.4823  0.2268 -2.0226
44871SOL     OW44542   0.750   7.647   5.118  0.5520  0.2640 -0.0751
44871SOL    HW144543   0.657   7.630   5.104  0.0387  0.3419  2.6769
44871SOL    HW244544   0.762   7.738   5.092  0.1018 -0.0354 -1.3784
44872SOL     OW44545   3.960   0.456   7.606 -0.1245  0.4695  0.1155
44872SOL    HW144546   3.998   0.523   7.662  0.5578 -1.0361  1.5137
44872SOL    HW244547   3.873   0.490   7.583  0.4400  2.0890  0.2699
44873SOL     OW44548  12.594  11.713   7.782 -0.1551 -0.5352  0.1537
44873SOL    HW144549  12.514  11.747   7.740 -0.4128 -0.9507  0.3016
44873SOL    HW244550  12.608  11.769   7.857 -1.2228 -1.4262  1.0538
44874SOL     OW44551   2.965   0.468   7.097 -0.7564 -0.1039  0.0357
44874SOL    HW144552   3.030   0.399   7.085  0.6023  0.7278  1.9852
44874SOL    HW244553   2.967   0.518   7.016  2.5070  0.9820  0.6190
44875SOL     OW44554   3.907   2.479   1.087  0.3268 -0.6929 -0.0810
44875SOL    HW144555   3.890   2.572   1.102  0.2666 -0.9385  1.5451
44875SOL    HW244556   4.000   2.475   1.066  0.1107 -0.1800 -1.2647
44876SOL     OW44557   8.646  13.234  10.844 -0.2737 -0.3808 -0.0570
44876SOL    HW144558   8.587  13.194  10.781 -1.5517  2.8029 -1.1192
44876SOL    HW244559   8.599  13.230  10.927 -0.3986 -0.9771 -0.1531
44877SOL     OW44560   8.686  10.823   9.620 -0.2008 -0.0039  0.2035
44877SOL    HW144561   8.690  10.747   9.679 -0.4353 -0.2864 -0.1370
44877SOL    HW244562   8.593  10.832   9.600 -0.0714 -0.2485 -0.5522
44878SOL     OW44563   1.597   5.094   4.353  0.5554 -0.2248 -0.0948
44878SOL    HW144564   1.686   5.068   4.333  1.4498  3.1648 -1.2435
44878SOL    HW244565   1.603   5.187   4.375 -2.7898  0.3499 -1.0038
44879SOL     OW44566   2.430   1.517   7.553  0.2323  0.1778  0.6121
44879SOL    HW144567   2.368   1.553   7.616  2.6111  1.5120  2.3482
44879SOL    HW244568   2.485   1.457   7.604  1.2690  0.1197 -0.5132
44880SOL     OW44569   2.454   5.962  12.276  0.1901  0.8101 -0.6060
44880SOL    HW144570   2.461   5.908  12.198 -1.1533 -0.6286  0.2011
44880SOL    HW244571   2.464   6.052  12.245  0.9631  0.2002 -2.2148
44881SOL     OW44572   4.661   2.568  11.542  0.4178  0.0757 -0.2314
44881SOL    HW144573   4.724   2.498  11.558  0.1533 -0.1050  0.0395
44881SOL    HW244574   4.676   2.632  11.612 -0.4096 -0.4808  0.4880
44882SOL     OW44575   8.004   8.103  12.064  0.0411 -0.1915 -0.0361
44882SOL    HW144576   8.042   8.062  12.142 -3.0250  0.6050  2.0826
44882SOL    HW244577   7.997   8.032  12.001 -0.7931 -1.8919  1.8294
44883SOL     OW44578  11.604  11.234  11.347 -0.4557 -0.0777 -0.0502
44883SOL    HW144579  11.680  11.230  11.289 -1.5410  0.1094 -1.5483
44883SOL    HW244580  11.638  11.266  11.430  1.0655  0.1628 -0.7393
44884SOL     OW44581   4.401   0.692   5.985 -0.0563  0.1561 -0.1922
44884SOL    HW144582   4.453   0.772   5.974 -0.3455  0.6357  1.5522
44884SOL    HW244583   4.440   0.629   5.926  0.8319  1.2927 -0.8565
44885SOL     OW44584   1.857   2.639   0.607  0.4804  0.2276  0.5132
44885SOL    HW144585   1.839   2.574   0.539  1.6260 -1.0430  1.3859
44885SOL    HW244586   1.771   2.674   0.630  0.1760  2.1089 -2.8701
44886SOL     OW44587   3.313   9.574   9.878  0.0713 -0.1974  0.5022
44886SOL    HW144588   3.312   9.667   9.856 -0.3730 -0.6670 -1.7659
44886SOL    HW244589   3.342   9.571   9.969 -0.2818  2.1657  0.7626
44887SOL     OW44590   7.009   2.485   3.373 -0.4196 -0.4435 -0.6378
44887SOL    HW144591   7.062   2.405   3.375  0.9255  0.4130 -0.7667
44887SOL    HW244592   6.963   2.485   3.457  1.0178 -0.4273  0.1850
44888SOL     OW44593  11.567  12.857   4.140 -0.1575 -0.2898  0.5231
44888SOL    HW144594  11.483  12.815   4.122 -0.8658  0.5796  1.6351
44888SOL    HW244595  11.631  12.786   4.133 -1.3278 -1.6613  2.6024
44889SOL     OW44596  11.033   5.930   9.515  0.1344  0.1236 -0.1355
44889SOL    HW144597  11.049   5.988   9.441  1.8616  0.6506  0.6186
44889SOL    HW244598  11.099   5.861   9.506 -0.0235 -0.1285  0.5916
44890SOL     OW44599   2.656   2.453   9.695  0.0097 -0.1168  0.6645
44890SOL    HW144600   2.712   2.528   9.673 -0.0550 -0.2665 -0.0434
44890SOL    HW244601   2.605   2.482   9.770  1.6545 -0.2792  1.8907
44891SOL     OW44602   1.455  12.267   9.270  0.5828  0.3211  0.7981
44891SOL    HW144603   1.521  12.301   9.209 -0.2069  0.1325 -0.1965
44891SOL    HW244604   1.485  12.178   9.290  0.9363  0.4421  0.8173
44892SOL     OW44605   7.292   1.981   1.753 -0.6319  0.2439  0.0791
44892SOL    HW144606   7.334   2.025   1.679 -0.5338  0.0888  0.0429
44892SOL    HW244607   7.308   2.038   1.828  0.1991 -0.1366  0.1954
44893SOL     OW44608  12.453   8.925  12.476  0.2709  0.1568 -0.2778
44893SOL    HW144609  12.421   8.905  12.388  0.7152 -2.8139  0.1501
44893SOL    HW244610  12.544   8.952  12.463  0.0028  0.8549 -0.7952
44894SOL     OW44611  11.666   0.662   1.847 -0.3320  0.1417 -0.3723
44894SOL    HW144612  11.609   0.674   1.923  0.7012 -2.0872  0.8482
44894SOL    HW244613  11.624   0.593   1.796  1.6777 -2.4852  1.1995
44895SOL     OW44614   2.699  11.513   6.027 -0.5995  0.4470 -0.5115
44895SOL    HW144615   2.754  11.590   6.013  0.2429 -0.3489 -1.9536
44895SOL    HW244616   2.731  11.450   5.962 -1.4831 -0.9940  0.3996
44896SOL     OW44617   3.750   9.947  11.460  0.0828  0.2228  0.4760
44896SOL    HW144618   3.785   9.862  11.433  1.1364  0.3990  1.2200
44896SOL    HW244619   3.752  10.000  11.380 -0.2509 -0.3370  0.0877
44897SOL     OW44620  13.307   8.845   6.110  0.2846 -0.5782  1.0226
44897SOL    HW144621  13.294   8.828   6.017 -0.3787 -1.5866  1.2896
44897SOL    HW244622  13.373   8.781   6.137 -3.2639 -4.1015  2.3545
44898SOL     OW44623   5.908   5.765   0.101 -0.4355 -0.4946 -0.4241
44898SOL    HW144624   5.866   5.735   0.020  2.4094  0.4085 -2.3930
44898SOL    HW244625   5.963   5.692   0.128  0.5050  0.0851 -0.7426
44899SOL     OW44626   2.428   6.859   6.622 -0.0946  0.3190 -0.1137
44899SOL    HW144627   2.505   6.912   6.642 -0.9857  0.7230  2.6069
44899SOL    HW244628   2.390   6.900   6.544  1.7103  0.8704 -0.7550
44900SOL     OW44629  13.027   8.911   3.250  0.8237 -1.0847  0.4196
44900SOL    HW144630  13.057   8.995   3.284  1.7432 -1.2477  0.0383
44900SOL    HW244631  13.028   8.921   3.155 -2.0686 -0.5208  0.3564
44901SOL     OW44632   7.484  10.118  10.191  0.2881  0.3192  0.0123
44901SOL    HW144633   7.524  10.134  10.277  0.9495  0.8782 -0.3880
44901SOL    HW244634   7.408  10.064  10.210  2.4099 -2.7303  0.5974
44902SOL     OW44635   6.940  12.754  10.963  0.3399  0.6111  0.2221
44902SOL    HW144636   7.035  12.745  10.955  0.1067 -1.2602 -1.0276
44902SOL    HW244637   6.912  12.673  11.006 -0.8537  0.2030 -1.2261
44903SOL     OW44638   2.935  11.204  10.101 -0.1795 -0.2556  0.5169
44903SOL    HW144639   2.997  11.166  10.164 -0.7266 -1.5944  0.2760
44903SOL    HW244640   2.857  11.224  10.154 -0.5240 -1.0929  0.3457
44904SOL     OW44641   6.506   7.193   1.065  0.5013  0.5102 -1.1941
44904SOL    HW144642   6.454   7.271   1.086 -1.1810 -0.2727 -2.1676
44904SOL    HW244643   6.521   7.199   0.971 -0.3511 -0.7100 -1.4321
44905SOL     OW44644   0.479  11.737   0.147 -0.2876  0.2121  0.4169
44905SOL    HW144645   0.386  11.736   0.170 -0.5979 -0.1415 -0.7730
44905SOL    HW244646   0.523  11.761   0.228 -1.2097 -2.0717  1.6867
44906SOL     OW44647   8.669  11.894   3.554 -0.0898  0.1735 -0.2998
44906SOL    HW144648   8.731  11.930   3.618  0.8600 -1.9282  0.0569
44906SOL    HW244649   8.704  11.920   3.469 -0.7303  2.0097 -0.0454
44907SOL     OW44650   6.541  12.400   7.145  0.2719 -0.1430 -0.5192
44907SOL    HW144651   6.540  12.464   7.216  1.3991 -0.3419 -0.3047
44907SOL    HW244652   6.458  12.354   7.154  0.3116 -0.0482  0.5742
44908SOL     OW44653  10.256   8.504  10.849 -0.4656  0.2766 -0.1021
44908SOL    HW144654  10.224   8.444  10.781 -0.2097 -1.6218  1.3747
44908SOL    HW244655  10.257   8.589  10.806 -2.0358 -0.5353 -1.9256
44909SOL     OW44656  10.381  11.219   7.288 -0.2593  0.1426 -0.1157
44909SOL    HW144657  10.333  11.139   7.269  2.0478 -1.3583  0.0011
44909SOL    HW244658  10.434  11.235   7.210  2.0767 -0.6034  1.2475
44910SOL     OW44659   5.972   1.432   7.866 -0.3773 -0.1175 -0.1425
44910SOL    HW144660   6.065   1.412   7.881 -0.9106 -1.6571  1.4835
44910SOL    HW244661   5.962   1.521   7.900  0.7813  0.6630 -1.7273
44911SOL     OW44662   4.878   3.936   7.984 -0.0080  0.5217  0.6967
44911SOL    HW144663   4.906   3.954   7.894 -0.3840 -0.1788  0.4384
44911SOL    HW244664   4.938   3.988   8.038 -0.4807  1.8329  0.0078
44912SOL     OW44665  13.127  12.749   8.372  0.6851 -0.7572  0.7653
44912SOL    HW144666  13.084  12.794   8.445  0.0698  0.6198 -0.4108
44912SOL    HW244667  13.059  12.695   8.333  0.8423 -0.9693  0.7825
44913SOL     OW44668   8.455   7.999   8.623 -0.4469 -0.1691  0.3076
44913SOL    HW144669   8.467   7.947   8.543 -2.9834 -1.1199  0.4693
44913SOL    HW244670   8.452   8.089   8.592  0.8013 -0.3215 -0.3600
44914SOL     OW44671   3.004   9.835   7.510  0.6006 -0.2568  0.1662
44914SOL    HW144672   3.008   9.776   7.586 -1.0849 -0.5036  0.0963
44914SOL    HW244673   3.053   9.912   7.537  0.4951 -0.5722  1.2994
44915SOL     OW44674   3.267   3.354   7.764 -0.1448 -0.0045 -0.2646
44915SOL    HW144675   3.243   3.446   7.751 -1.4132 -0.2286  0.3428
44915SOL    HW244676   3.362   3.354   7.767 -0.1499  1.5324  1.3036
44916SOL     OW44677   3.186   2.583  12.875  0.0094  0.4199 -0.2759
44916SOL    HW144678   3.204   2.665  12.831  2.1956 -0.6333 -1.5193
44916SOL    HW244679   3.203   2.601  12.967 -1.9491  1.9490 -0.1601
44917SOL     OW44680   5.533   9.065  10.819 -0.1673 -0.2878  0.1264
44917SOL    HW144681   5.446   9.030  10.840  0.1852 -0.9193  0.5660
44917SOL    HW244682   5.525   9.096  10.728 -0.5453 -1.3668 -0.2282
44918SOL     OW44683  12.894   0.890   5.836  0.5709 -0.3330 -0.4488
44918SOL    HW144684  12.818   0.931   5.877  1.2091  0.7562 -0.2958
44918SOL    HW244685  12.877   0.796   5.841 -0.7712 -0.1104 -0.4557
44919SOL     OW44686   4.933   9.959  11.999 -0.0678  0.3889 -0.4034
44919SOL    HW144687   4.933  10.041  12.048 -1.1335  0.8893 -1.1964
44919SOL    HW244688   5.022   9.926  12.007  0.3455  1.5645  0.0384
44920SOL     OW44689   2.188   3.473   2.693 -0.7492  0.1310 -0.4072
44920SOL    HW144690   2.115   3.457   2.633 -0.2780 -1.2570 -0.6503
44920SOL    HW244691   2.203   3.568   2.687 -2.9425  0.5742  0.1691
44921SOL     OW44692  12.007   1.221   1.321 -0.1239  0.4863 -0.0644
44921SOL    HW144693  12.102   1.222   1.330 -0.1203  0.0361 -0.0015
44921SOL    HW244694  11.980   1.311   1.338  0.3835  0.8725 -1.1559
44922SOL     OW44695   0.490  11.239   8.436  0.1040 -0.1447  0.3661
44922SOL    HW144696   0.580  11.268   8.451  0.2868 -0.4279 -0.1332
44922SOL    HW244697   0.470  11.266   8.346 -0.2779 -0.1595  0.4432
44923SOL     OW44698   7.750   7.149   0.052  0.2559  0.1392 -0.2498
44923SOL    HW144699   7.685   7.084   0.077 -0.4121  0.6748 -0.5513
44923SOL    HW244700   7.813   7.149   0.124 -0.1146 -0.3360  0.0806
44924SOL     OW44701   7.384   1.523   4.947 -0.0869  0.1518 -0.0453
44924SOL    HW144702   7.298   1.481   4.948  0.0942 -0.2349  1.1597
44924SOL    HW244703   7.444   1.452   4.924  0.1168 -0.0513  1.0760
44925SOL     OW44704   0.734  11.348   4.364  0.1235  0.3246 -0.7010
44925SOL    HW144705   0.707  11.439   4.353 -0.5913  0.5075  1.9443
44925SOL    HW244706   0.654  11.301   4.388  1.2687  0.1687  3.5730
44926SOL     OW44707   9.502   1.270   4.381 -0.1303  0.1603  0.0443
44926SOL    HW144708   9.457   1.212   4.320  0.8031 -1.3210  0.7045
44926SOL    HW244709   9.593   1.272   4.349  0.1927 -0.0124  0.9374
44927SOL     OW44710  10.159   6.636   5.328 -0.0115 -0.3347  0.1928
44927SOL    HW144711  10.125   6.717   5.367 -0.4875 -0.2625 -0.3508
44927SOL    HW244712  10.243   6.621   5.372 -0.7375 -0.5114  1.5587
44928SOL     OW44713   2.669   9.288  10.263 -0.1603 -0.5983 -0.6834
44928SOL    HW144714   2.676   9.256  10.174 -1.3479 -0.7027 -0.7591
44928SOL    HW244715   2.755   9.323  10.283 -0.2078  0.5735 -2.3189
44929SOL     OW44716   2.691   1.877   8.804  0.4805  0.3665 -0.3948
44929SOL    HW144717   2.647   1.846   8.725 -0.3028  0.0894  0.1383
44929SOL    HW244718   2.642   1.955   8.831  0.7610  0.4787 -0.1982
44930SOL     OW44719  12.740   8.746   5.807  0.2443 -0.1133  0.9300
44930SOL    HW144720  12.735   8.830   5.761  0.7756 -0.5378  0.0685
44930SOL    HW244721  12.829   8.744   5.842  0.7560 -0.9868 -0.3874
44931SOL     OW44722   5.279  11.579   5.578 -0.0628 -0.1758 -0.0008
44931SOL    HW144723   5.223  11.656   5.592  0.3028  0.6938 -2.6953
44931SOL    HW244724   5.218  11.507   5.565 -0.5024  0.2867 -0.5469
44932SOL     OW44725   5.082   2.021   0.713 -0.3316  0.0876  0.0168
44932SOL    HW144726   5.004   2.004   0.660 -0.4430  2.6936 -0.7817
44932SOL    HW244727   5.077   1.956   0.784 -2.9267 -0.1745 -0.3061
44933SOL     OW44728  12.458  12.117   8.573  0.2854 -1.0366 -0.0155
44933SOL    HW144729  12.530  12.178   8.560 -1.5680  1.0420 -1.2444
44933SOL    HW244730  12.471  12.050   8.505  1.1238 -0.7617 -0.1361
44934SOL     OW44731   6.947   9.074   8.486 -0.6378  0.4655 -0.3903
44934SOL    HW144732   6.925   8.983   8.506  0.8355  0.2489  0.3904
44934SOL    HW244733   6.962   9.076   8.391 -2.1150  0.2422 -0.6490
44935SOL     OW44734   9.954  12.604   6.177 -0.0326 -0.0726 -0.3047
44935SOL    HW144735   9.986  12.572   6.261  0.4477  0.3658 -0.3128
44935SOL    HW244736   9.859  12.606   6.186 -0.0718 -1.4320 -0.2938
44936SOL     OW44737  10.855  13.214  11.299  0.2903  0.0315 -0.0273
44936SOL    HW144738  10.847  13.282  11.232  2.3115  1.8019  1.4337
44936SOL    HW244739  10.779  13.227  11.355  0.7991  1.2924  0.3944
44937SOL     OW44740   1.431   6.319   0.705 -0.6780  0.3776  0.1777
44937SOL    HW144741   1.390   6.233   0.712  0.1119 -0.1234 -0.9488
44937SOL    HW244742   1.505   6.316   0.765 -0.3512  0.0748 -0.2336
44938SOL     OW44743   5.961   0.642   8.258 -0.6863  0.1421 -0.2799
44938SOL    HW144744   5.893   0.577   8.241 -0.2173  0.0788 -2.1170
44938SOL    HW244745   6.002   0.656   8.173 -0.6185  2.7028  0.1153
44939SOL     OW44746   7.524  12.178   4.785 -0.7924  0.1932 -0.5086
44939SOL    HW144747   7.459  12.248   4.787 -0.8444  0.1407  0.5135
44939SOL    HW244748   7.547  12.165   4.877 -0.0535 -0.4564 -0.7748
44940SOL     OW44749   8.378  10.587   2.434 -0.8007  0.7435 -0.1383
44940SOL    HW144750   8.398  10.644   2.360 -0.2153  0.8398  0.0838
44940SOL    HW244751   8.367  10.500   2.396 -2.6351  1.1374 -0.6021
44941SOL     OW44752  12.141   8.933   0.879 -0.2230 -0.1577 -0.1854
44941SOL    HW144753  12.222   8.910   0.925  0.7676  1.0622 -1.2293
44941SOL    HW244754  12.079   8.953   0.949 -0.0449 -2.3242  0.6651
44942SOL     OW44755   0.407  11.892   0.945 -0.0450  0.2224 -0.3843
44942SOL    HW144756   0.447  11.822   0.893 -0.4065  1.1413 -1.9856
44942SOL    HW244757   0.313  11.881   0.933 -0.1369  0.3819  0.1719
44943SOL     OW44758   3.376  12.330   0.005  0.2212 -0.4433  0.3038
44943SOL    HW144759   3.392  12.422  -0.015  1.2651 -0.8434 -0.8358
44943SOL    HW244760   3.284  12.325   0.029 -0.0365  0.7679 -0.4125
44944SOL     OW44761   1.689   3.760   9.564  0.3857 -0.2232 -0.4683
44944SOL    HW144762   1.743   3.727   9.635 -1.0380 -0.0388  0.7506
44944SOL    HW244763   1.637   3.830   9.604 -0.3016  0.0257 -1.7433
44945SOL     OW44764  10.004   8.387   6.678 -0.2538  0.3298 -0.1606
44945SOL    HW144765   9.913   8.389   6.648 -0.2356  0.5820 -0.2004
44945SOL    HW244766  10.038   8.474   6.659 -0.5879  0.9063  1.6319
44946SOL     OW44767   4.386   8.114   4.329  0.0634 -0.2991 -0.1111
44946SOL    HW144768   4.479   8.105   4.311  0.4072  0.5008  1.1456
44946SOL    HW244769   4.376   8.095   4.422 -0.9053  0.3475 -0.0572
44947SOL     OW44770   5.885   7.726   5.546 -0.0713  0.5272  0.0818
44947SOL    HW144771   5.914   7.812   5.515  1.0310  0.6462  1.3656
44947SOL    HW244772   5.955   7.696   5.604 -1.4040 -0.2872  1.3413
44948SOL     OW44773   5.063   9.021  12.616  0.1656 -0.8384  0.1902
44948SOL    HW144774   5.062   9.003  12.710 -0.1643  1.6525  0.7138
44948SOL    HW244775   5.131   8.963  12.582 -0.1755 -2.2856  1.8202
44949SOL     OW44776   2.298   9.588   6.828 -0.3219 -0.6675 -0.2289
44949SOL    HW144777   2.274   9.681   6.830 -1.1302 -0.8636 -0.3908
44949SOL    HW244778   2.236   9.546   6.888 -0.1065 -1.1312 -0.3282
44950SOL     OW44779   8.160   7.081   8.738  0.2042  0.2846 -0.0898
44950SOL    HW144780   8.135   7.041   8.821  0.3588  1.5219  0.5859
44950SOL    HW244781   8.254   7.066   8.731  0.5058  1.5662  0.7925
44951SOL     OW44782  13.178   3.159   0.393 -0.1277  0.0891 -0.0203
44951SOL    HW144783  13.144   3.163   0.304 -2.0777 -0.0989  0.6574
44951SOL    HW244784  13.172   3.249   0.425 -1.8569 -0.2261  0.6975
44952SOL     OW44785  11.263  11.605  10.423 -0.1456  0.5981 -0.0332
44952SOL    HW144786  11.173  11.630  10.447  0.4334  1.5613  1.2803
44952SOL    HW244787  11.318  11.661  10.478  1.2719  0.3678 -1.1787
44953SOL     OW44788   5.182   1.265   1.536 -0.1684  0.4679 -0.1670
44953SOL    HW144789   5.276   1.246   1.525 -0.0713 -0.6357  1.9775
44953SOL    HW244790   5.179   1.358   1.555  0.4294  0.6150 -0.7291
44954SOL     OW44791   0.606   1.581  13.250 -0.2226 -0.2689  0.6169
44954SOL    HW144792   0.662   1.505  13.232 -0.0848 -0.3569  1.4078
44954SOL    HW244793   0.663   1.656  13.232 -0.1202 -0.3510  0.5923
44955SOL     OW44794   1.198   2.063   8.272 -0.3227  0.7358  0.4203
44955SOL    HW144795   1.158   2.086   8.356  0.5610  0.5330  0.9067
44955SOL    HW244796   1.240   1.979   8.287 -2.2000 -0.5356 -0.9068
44956SOL     OW44797   2.237   9.152  12.667 -0.1946  0.5416  0.2269
44956SOL    HW144798   2.313   9.113  12.712 -0.5371 -0.2128  0.1696
44956SOL    HW244799   2.175   9.171  12.737 -0.6228 -0.3924  0.1129
44957SOL     OW44800   4.245   5.997   9.745  0.3008  0.2901  0.3499
44957SOL    HW144801   4.192   6.026   9.819 -1.0754  1.0801 -0.9025
44957SOL    HW244802   4.228   5.903   9.739 -0.4885  0.4275  0.3312
44958SOL     OW44803   2.111   7.006  12.031  0.7581  0.0038 -0.6130
44958SOL    HW144804   2.201   6.982  12.052  0.0597 -2.4223 -0.1710
44958SOL    HW244805   2.072   6.926  11.996 -1.4890  0.7597  0.0258
44959SOL     OW44806   2.051   1.851   6.764 -0.5133  0.6100  0.2137
44959SOL    HW144807   1.975   1.885   6.717 -0.5846  0.6868  0.3807
44959SOL    HW244808   2.115   1.832   6.696  1.0180  4.6664  0.2821
44960SOL     OW44809   4.709   3.092   4.125 -0.5130  0.3743  0.8449
44960SOL    HW144810   4.635   3.145   4.093 -0.6609 -0.9274 -1.1899
44960SOL    HW244811   4.702   3.096   4.220 -3.6994 -0.2736  0.7552
44961SOL     OW44812  11.453   8.369   2.393  0.4256 -0.4827 -0.1386
44961SOL    HW144813  11.442   8.312   2.317  1.9691 -0.4504 -0.4268
44961SOL    HW244814  11.433   8.457   2.360  0.2414 -0.5749 -0.2767
44962SOL     OW44815  10.043   4.999   4.029 -1.1287 -0.2795 -0.5303
44962SOL    HW144816  10.077   4.959   4.109 -1.4949 -0.8374 -0.6474
44962SOL    HW244817   9.963   5.043   4.057  0.3174  2.2135  0.0281
44963SOL     OW44818   7.649  11.686   2.331  0.2724 -0.2256  0.2859
44963SOL    HW144819   7.708  11.644   2.394  0.1801 -0.3738  0.2755
44963SOL    HW244820   7.617  11.613   2.277  0.1924 -0.1271  0.2000
44964SOL     OW44821   4.418   2.804   0.113 -0.2133 -0.3556 -0.5277
44964SOL    HW144822   4.424   2.769   0.024 -0.3499  1.1704 -1.1635
44964SOL    HW244823   4.494   2.862   0.121 -1.3554  1.2043 -0.4512
44965SOL     OW44824  10.616  11.847   6.571 -0.2754 -0.2441  0.0228
44965SOL    HW144825  10.573  11.836   6.486  0.8070 -0.5034 -0.5019
44965SOL    HW244826  10.643  11.939   6.572 -0.1458 -0.2833  0.0240
44966SOL     OW44827  12.686  11.160   3.073 -0.4553 -0.1256  0.3248
44966SOL    HW144828  12.670  11.067   3.060 -0.7160 -0.3729  2.1014
44966SOL    HW244829  12.714  11.192   2.988 -0.3811 -1.8216 -0.3251
44967SOL     OW44830   1.832  13.199  10.180 -0.0633  0.0286 -0.1758
44967SOL    HW144831   1.806  13.281  10.137  0.2579  0.9286  1.2865
44967SOL    HW244832   1.862  13.226  10.267 -3.5167 -2.0078  1.8435
44968SOL     OW44833   1.015   6.261   2.945 -0.5059  0.1828 -0.3373
44968SOL    HW144834   0.983   6.342   2.985  1.0310  0.2909  0.7968
44968SOL    HW244835   1.002   6.195   3.013  1.9936  0.3348  0.3871
44969SOL     OW44836   3.694   7.399   9.255  0.5817  0.0103  0.1607
44969SOL    HW144837   3.649   7.473   9.214  2.1974  0.3855 -1.0305
44969SOL    HW244838   3.726   7.433   9.338  0.5457  0.4048  0.0157
44970SOL     OW44839  13.123  12.525  13.212 -1.0171 -0.3944 -0.3254
44970SOL    HW144840  13.153  12.445  13.255 -1.3990  1.2331  3.3326
44970SOL    HW244841  13.165  12.523  13.125  1.3022 -3.1268  0.6946
44971SOL     OW44842   6.527   0.972   0.668 -0.5779  0.5391 -0.3260
44971SOL    HW144843   6.546   0.905   0.733 -0.5381  0.3585 -0.5233
44971SOL    HW244844   6.581   1.047   0.694  0.1243  0.1615 -0.6633
44972SOL     OW44845  13.166   0.596   5.646 -0.0155 -0.1707  0.0265
44972SOL    HW144846  13.156   0.690   5.663 -1.0309 -0.0143 -1.2357
44972SOL    HW244847  13.176   0.590   5.551  2.0950 -1.2131  0.2689
44973SOL     OW44848  12.636   8.687   1.196 -0.3480  0.0514  0.0748
44973SOL    HW144849  12.634   8.595   1.220  1.4723  0.5467  2.5401
44973SOL    HW244850  12.697   8.691   1.122  2.2133 -0.4558  2.0126
44974SOL     OW44851   3.361   3.459   7.184  0.0633 -0.3321  0.4451
44974SOL    HW144852   3.356   3.418   7.097 -1.8940  0.7654 -0.0369
44974SOL    HW244853   3.346   3.552   7.167  2.1924  0.3091  1.7410
44975SOL     OW44854   2.224   7.968   1.115  0.3204  0.5162 -0.6138
44975SOL    HW144855   2.277   7.993   1.190  0.6692 -0.3352 -0.5682
44975SOL    HW244856   2.171   8.046   1.096 -2.1704 -0.2741  2.4943
44976SOL     OW44857   0.300   8.967  10.106  0.0967  0.3597  0.2183
44976SOL    HW144858   0.297   8.967  10.201  2.0270 -2.0459  0.3629
44976SOL    HW244859   0.393   8.961  10.084 -0.3817 -0.7638 -1.7760
44977SOL     OW44860  11.419   3.396   9.188  0.2334  0.7319 -0.0955
44977SOL    HW144861  11.498   3.448   9.203  0.2980  0.1938  1.5353
44977SOL    HW244862  11.395   3.362   9.274 -0.6397 -0.7545 -0.8795
44978SOL     OW44863   2.425  12.305   1.655  0.2974  0.1030 -0.3161
44978SOL    HW144864   2.420  12.395   1.623 -1.5550 -0.1834 -0.9491
44978SOL    HW244865   2.423  12.313   1.751  1.3018  0.7591 -0.3337
44979SOL     OW44866   1.400   6.384   8.163 -0.1974 -0.1807  0.5607
44979SOL    HW144867   1.306   6.391   8.180 -0.8524 -0.0271 -2.5698
44979SOL    HW244868   1.406   6.349   8.074  2.6675  1.4057  0.0142
44980SOL     OW44869   1.422   5.339   8.820 -0.3546 -0.0168 -0.3328
44980SOL    HW144870   1.347   5.384   8.783 -1.2076  0.7396  2.1654
44980SOL    HW244871   1.385   5.267   8.871  0.7121 -0.4270 -0.0930
44981SOL     OW44872  12.175   6.853   4.709 -0.2627  0.1858  0.2860
44981SOL    HW144873  12.149   6.877   4.798  1.0455  1.3249  0.3987
44981SOL    HW244874  12.209   6.934   4.672  0.0141 -0.4821 -0.9646
44982SOL     OW44875   9.653   7.968   5.966 -0.5205 -0.3199 -0.1636
44982SOL    HW144876   9.602   7.980   5.885 -1.1495 -0.8449  0.1446
44982SOL    HW244877   9.635   8.047   6.017 -1.4366 -0.7154  0.1513
44983SOL     OW44878   1.079   8.584  12.067 -0.0001 -0.4086  0.6527
44983SOL    HW144879   1.024   8.643  12.015  1.2388 -0.2398 -0.5004
44983SOL    HW244880   1.016   8.533  12.118 -1.1743  0.7248  0.4100
44984SOL     OW44881   4.934   8.671   9.771  0.5637 -0.3315  0.5488
44984SOL    HW144882   5.015   8.624   9.750  0.4888  0.2005 -1.1196
44984SOL    HW244883   4.865   8.606   9.760  0.5136 -0.0347 -1.1555
44985SOL     OW44884   2.636  10.304   7.022 -0.1134  0.1255  0.1168
44985SOL    HW144885   2.629  10.395   6.992  2.1625  0.9490  1.7381
44985SOL    HW244886   2.724  10.277   6.996 -0.2954 -1.1726  0.7818
44986SOL     OW44887   2.261   4.788   2.535 -0.4685  0.6313 -0.2100
44986SOL    HW144888   2.345   4.832   2.526  0.7162 -1.6438 -1.0114
44986SOL    HW244889   2.231   4.810   2.624  1.1874  1.1107  0.2558
44987SOL     OW44890   4.313  10.881  11.763 -0.6447  0.4512  0.2076
44987SOL    HW144891   4.350  10.927  11.689 -1.0063 -0.1177 -0.3415
44987SOL    HW244892   4.224  10.859  11.735 -0.1296 -1.5512 -0.0095
44988SOL     OW44893   3.749   8.475   8.307  0.2245 -0.2506  0.4888
44988SOL    HW144894   3.705   8.560   8.306 -0.8528 -0.7915 -0.9092
44988SOL    HW244895   3.684   8.414   8.341  0.0912 -0.9520 -0.9663
44989SOL     OW44896   1.826   7.042   4.469  0.1209 -0.2568 -0.6198
44989SOL    HW144897   1.909   7.075   4.504  0.1740 -1.2410  0.2288
44989SOL    HW244898   1.826   7.069   4.377  1.2813 -0.0535 -0.5700
44990SOL     OW44899  10.864   5.978   5.003 -0.4140  0.1915  0.4671
44990SOL    HW144900  10.819   6.028   4.935  1.2240 -0.5303 -1.2397
44990SOL    HW244901  10.935   5.933   4.957  2.3138  1.5399  2.9915
44991SOL     OW44902   5.935   3.410   0.704  0.3036 -0.2630 -0.3074
44991SOL    HW144903   5.986   3.329   0.707 -0.7302 -0.9823 -1.1194
44991SOL    HW244904   5.990   3.471   0.655  1.1287 -0.4332  0.3840
44992SOL     OW44905   3.653   7.911   6.820  0.1183 -0.5507  0.0712
44992SOL    HW144906   3.580   7.942   6.767  1.1725  0.5331 -0.8067
44992SOL    HW244907   3.627   7.929   6.910 -0.9009 -0.6551 -0.1934
44993SOL     OW44908   6.503   8.882  11.576  0.4441 -0.2837  0.5050
44993SOL    HW144909   6.588   8.870  11.618  0.3844 -0.7832  0.4928
44993SOL    HW244910   6.440   8.861  11.645  0.3483 -1.5462  0.0465
44994SOL     OW44911   8.154   0.576   5.290  0.1463 -0.1611 -0.6430
44994SOL    HW144912   8.179   0.518   5.218 -0.3166  0.3627 -1.2392
44994SOL    HW244913   8.059   0.569   5.295  0.2260 -0.6841  0.3524
44995SOL     OW44914   2.310   5.701  11.863 -0.2544 -0.3056 -0.3746
44995SOL    HW144915   2.397   5.740  11.855  0.3318 -1.7443 -1.4363
44995SOL    HW244916   2.304   5.678  11.956 -0.1304  1.1607  0.0170
44996SOL     OW44917   1.640   1.173   6.403 -0.1900 -0.3579 -0.8697
44996SOL    HW144918   1.603   1.086   6.392  0.0971 -0.4870 -0.8376
44996SOL    HW244919   1.679   1.172   6.491  0.2485 -0.3632 -1.0622
44997SOL     OW44920  10.994   4.315  12.041 -0.7207 -0.2975  0.2555
44997SOL    HW144921  11.054   4.325  11.967  0.1956 -1.1314  0.8808
44997SOL    HW244922  10.937   4.392  12.035  0.9468  0.9859  0.1455
44998SOL     OW44923   5.953   8.071   3.347 -0.0898 -0.0911 -0.1630
44998SOL    HW144924   5.956   8.160   3.313  0.8861  0.4060  1.1398
44998SOL    HW244925   6.040   8.056   3.384 -0.4895 -1.2976  0.3553
44999SOL     OW44926   0.512  11.872   0.413 -0.4219 -0.2403  0.7255
44999SOL    HW144927   0.564  11.846   0.489 -0.1567  1.9526  1.3472
44999SOL    HW244928   0.468  11.953   0.440 -0.7493  0.2979 -1.2646
45000SOL     OW44929   0.636   7.307   3.367 -0.0510  0.0431 -0.3433
45000SOL    HW144930   0.541   7.307   3.377  0.1629 -0.3697  2.5779
45000SOL    HW244931   0.668   7.362   3.438  1.9818 -2.4935  0.8955
45001SOL     OW44932   1.366  13.023   8.039  0.0942  0.2641 -0.2643
45001SOL    HW144933   1.306  13.060   8.103  1.2534  0.4952  0.7430
45001SOL    HW244934   1.310  12.981   7.974 -1.1171 -0.7861  1.3873
45002SOL     OW44935  11.477   0.178   8.338  0.0891  0.1082  0.6200
45002SOL    HW144936  11.572   0.169   8.327  0.1334  1.0963  0.0832
45002SOL    HW244937  11.468   0.222   8.423  0.2568  2.0641 -0.2957
45003SOL     OW44938   8.739   2.385   2.759 -0.0216 -0.3534 -0.8032
45003SOL    HW144939   8.726   2.371   2.666 -2.0405  0.6569 -0.7480
45003SOL    HW244940   8.652   2.409   2.792  0.5001 -1.2501  1.4536
45004SOL     OW44941   5.993   1.968   4.403  0.5062  0.4985  0.5656
45004SOL    HW144942   6.020   1.935   4.488  1.8299  1.7222  0.6554
45004SOL    HW244943   5.981   1.890   4.349  0.4051 -0.2484  1.6356
45005SOL     OW44944   2.270   4.859  12.559 -0.2850  0.0526 -0.4113
45005SOL    HW144945   2.189   4.908  12.555  0.3416  1.0521 -1.4739
45005SOL    HW244946   2.334   4.920  12.596  0.5138  0.1050 -1.7954
45006SOL     OW44947   2.116   4.474   4.880  0.0448  0.1233  0.0381
45006SOL    HW144948   2.134   4.550   4.936  0.9381 -0.4506  0.5564
45006SOL    HW244949   2.081   4.408   4.940 -1.9898  0.5213 -0.6192
45007SOL     OW44950   9.038   1.669  12.631  0.1408  0.4294  0.4438
45007SOL    HW144951   8.968   1.613  12.666  0.3497 -0.3081 -0.2842
45007SOL    HW244952   8.997   1.755  12.624 -0.9319 -0.1319 -0.6199
45008SOL     OW44953  13.236   1.092  13.260 -0.1615 -0.4090  0.3288
45008SOL    HW144954  13.238   1.095  13.164 -0.5293  1.6280  0.3468
45008SOL    HW244955  13.148   1.122  13.283  1.0398  2.6788  1.3394
45009SOL     OW44956  12.954   2.525   7.320  0.2518 -0.5342 -0.1100
45009SOL    HW144957  13.045   2.551   7.309  1.2945 -3.9594 -0.7895
45009SOL    HW244958  12.932   2.551   7.410  1.5410  1.1925 -0.2528
45010SOL     OW44959   0.944   6.827   5.174  0.0621  0.0669  0.1583
45010SOL    HW144960   0.910   6.791   5.255 -2.9178  0.9075 -0.5953
45010SOL    HW244961   1.012   6.889   5.202 -0.4470 -0.1265  1.9668
45011SOL     OW44962   9.189  12.622   6.103  0.4663 -0.2494 -0.1868
45011SOL    HW144963   9.159  12.535   6.075 -0.5983  0.5068 -1.4962
45011SOL    HW244964   9.124  12.649   6.169  1.2107 -0.7187  0.7730
45012SOL     OW44965   7.870  10.571   8.734  0.7662  0.0535 -0.5656
45012SOL    HW144966   7.847  10.568   8.827  1.6259  0.0178 -0.3424
45012SOL    HW244967   7.787  10.560   8.688  0.3855 -0.3728  0.2009
45013SOL     OW44968  10.799   9.044   5.708 -0.2243 -0.1712  0.4706
45013SOL    HW144969  10.734   8.978   5.683 -0.7041  0.3111  0.4264
45013SOL    HW244970  10.807   9.034   5.803  0.2537 -0.7873  0.3666
45014SOL     OW44971   1.610   4.299   6.301 -0.3291  0.0658  0.5229
45014SOL    HW144972   1.690   4.337   6.338 -0.3288  1.6577 -0.9656
45014SOL    HW244973   1.636   4.211   6.275  0.3401 -0.1943  1.9354
45015SOL     OW44974  10.018   5.929  11.503 -0.0850  0.0488  0.4714
45015SOL    HW144975  10.092   5.900  11.450 -1.7648  0.7536 -2.4874
45015SOL    HW244976  10.058   5.962  11.584  2.8462  0.6444 -1.0780
45016SOL     OW44977   8.158  11.339  10.127 -0.3779  0.2071  0.5961
45016SOL    HW144978   8.112  11.394  10.191  0.3244  1.3679  0.1436
45016SOL    HW244979   8.090  11.304  10.071 -0.7027  3.8563 -1.6135
45017SOL     OW44980  11.896   9.423   3.888  0.3628  0.0885  0.1135
45017SOL    HW144981  11.918   9.417   3.794 -1.5847 -2.0523 -0.2952
45017SOL    HW244982  11.813   9.470   3.890 -1.0356 -2.2739  0.4430
45018SOL     OW44983   5.356  10.236   6.575 -0.1452  0.0923 -0.1371
45018SOL    HW144984   5.391  10.305   6.630  0.7188 -0.3613 -0.1041
45018SOL    HW244985   5.331  10.280   6.494 -1.6038  0.8005  0.6597
45019SOL     OW44986   2.716   2.802   4.304  0.4471 -0.0904 -0.0792
45019SOL    HW144987   2.738   2.844   4.221 -0.5714 -0.7745 -0.7090
45019SOL    HW244988   2.729   2.709   4.289  0.4320 -0.2127  0.5988
45020SOL     OW44989   3.552   6.953   7.709 -0.5697 -0.0742 -1.1337
45020SOL    HW144990   3.482   6.987   7.765  0.9327  0.2898  0.6220
45020SOL    HW244991   3.615   7.025   7.704  0.6770 -1.1226 -0.8902
45021SOL     OW44992   3.300  11.466   9.519  0.1655  0.8580  0.1244
45021SOL    HW144993   3.226  11.408   9.498  0.3060  1.3933 -2.0609
45021SOL    HW244994   3.266  11.523   9.587 -1.2246  0.6203 -0.3299
45022SOL     OW44995  10.265   2.891   7.891 -0.0110  0.0402 -0.2643
45022SOL    HW144996  10.263   2.857   7.801  0.7944  1.0391 -0.6756
45022SOL    HW244997  10.291   2.816   7.944  1.4388 -0.0913 -1.1190
45023SOL     OW44998   5.483   0.204  10.563  0.8985 -0.5271 -0.8054
45023SOL    HW144999   5.427   0.223  10.487  0.1668 -0.1564 -0.1778
45023SOL    HW245000   5.426   0.158  10.624  0.0777  3.2164  1.5311
45024SOL     OW45001  13.253   8.582  11.435  0.4191 -0.2623  0.2725
45024SOL    HW145002  13.273   8.520  11.504 -1.1458  0.3818  1.3721
45024SOL    HW245003  13.189   8.642  11.474 -0.2992  0.3027 -1.6351
45025SOL     OW45004   0.683   9.336   1.828  0.6631 -0.2479  0.2852
45025SOL    HW145005   0.603   9.352   1.778  1.2392 -0.5545 -0.7660
45025SOL    HW245006   0.716   9.254   1.793  0.8040 -0.7523  1.5660
45026SOL     OW45007  12.925   3.832   4.718 -0.1777 -0.0241  0.0396
45026SOL    HW145008  12.904   3.833   4.812 -0.2449  0.0009  0.0244
45026SOL    HW245009  12.864   3.894   4.679  0.2070  0.3679  0.0541
45027SOL     OW45010  12.007   4.338   9.138  0.1408  0.2383  0.1498
45027SOL    HW145011  12.038   4.327   9.228 -0.5641  1.5111  0.5718
45027SOL    HW245012  12.086   4.351   9.086  0.6482 -1.7319  0.3639
45028SOL     OW45013   1.148   7.123   8.096 -0.1979 -0.4336  0.2311
45028SOL    HW145014   1.086   7.066   8.142  0.0735 -0.8814  0.0442
45028SOL    HW245015   1.229   7.117   8.146 -0.0806 -0.4465  0.0418
45029SOL     OW45016   5.262   2.116  12.605 -0.1973 -0.0098  0.1327
45029SOL    HW145017   5.182   2.152  12.566 -0.8955 -1.3017  0.3361
45029SOL    HW245018   5.295   2.056  12.539  0.6664  0.5765  0.0198
45030SOL     OW45019  10.952   9.933   4.807  0.1858  0.1329  0.0340
45030SOL    HW145020  10.885   9.955   4.742 -1.0395 -0.7704  0.9417
45030SOL    HW245021  11.020  10.000   4.795  0.4157 -0.4577 -2.7014
45031SOL     OW45022  11.189   9.964   0.446 -0.0720 -0.2654 -0.4714
45031SOL    HW145023  11.158   9.893   0.502 -2.0928 -0.2997 -1.5328
45031SOL    HW245024  11.231   9.920   0.372  2.2763 -0.2254  0.7535
45032SOL     OW45025   7.411   9.946   4.347  0.4718 -0.3102 -0.1624
45032SOL    HW145026   7.501   9.970   4.368  0.7891 -0.1114 -1.6576
45032SOL    HW245027   7.410   9.935   4.252 -1.7898  2.8906 -0.6846
45033SOL     OW45028  11.697   8.008   4.741 -0.2481 -0.1041  0.2235
45033SOL    HW145029  11.719   8.093   4.703  2.1336  0.2080  2.1209
45033SOL    HW245030  11.692   7.949   4.666 -0.5211  1.4070 -0.9959
45034SOL     OW45031   8.051   9.488   7.723  0.3053  0.6370  0.1177
45034SOL    HW145032   8.116   9.462   7.658  0.7885 -2.4453  1.6491
45034SOL    HW245033   8.008   9.406   7.749 -2.9685  2.3163  0.5082
45035SOL     OW45034   4.085  10.650   8.398 -0.1764  0.1728 -0.0272
45035SOL    HW145035   4.088  10.672   8.305  0.5205 -0.2186 -0.1111
45035SOL    HW245036   4.079  10.554   8.399  0.3953  0.1366  0.3271
45036SOL     OW45037   3.684   1.534  13.166 -0.0652  0.5327 -0.1176
45036SOL    HW145038   3.697   1.446  13.129  0.2592  0.7832 -0.6061
45036SOL    HW245039   3.683   1.592  13.090 -0.6434  0.9142  0.1792
45037SOL     OW45040   8.604   6.855   4.954 -0.7501 -0.6191 -0.5475
45037SOL    HW145041   8.604   6.904   4.872 -1.2093  1.8716  0.8485
45037SOL    HW245042   8.696   6.850   4.980 -0.8225  1.6168  0.3927
45038SOL     OW45043   3.037   6.490   1.058 -0.3208 -0.2252  0.8675
45038SOL    HW145044   2.991   6.573   1.045  0.6580  0.1253 -0.5822
45038SOL    HW245045   3.002   6.456   1.140 -0.3214  1.9122  1.8167
45039SOL     OW45046   3.555  11.410  10.675 -0.4154 -0.0510  0.5460
45039SOL    HW145047   3.507  11.485  10.710 -0.8417 -0.5590  1.0679
45039SOL    HW245048   3.528  11.405  10.583  0.8476  1.4002  0.0402
45040SOL     OW45049   4.011   7.312  11.060  0.2281 -0.2064 -0.3510
45040SOL    HW145050   4.092   7.358  11.083 -0.9817  1.2230  1.2748
45040SOL    HW245051   3.947   7.341  11.125 -1.8447 -0.6493 -2.0771
45041SOL     OW45052   4.199   7.448   2.267 -0.1896 -0.7006  0.4075
45041SOL    HW145053   4.188   7.498   2.186  1.5680 -0.1076  0.5029
45041SOL    HW245054   4.219   7.514   2.333 -0.6875 -1.2753  1.1527
45042SOL     OW45055  10.403  12.184   9.711 -0.3555 -0.3981  1.1043
45042SOL    HW145056  10.435  12.118   9.651  0.3693 -0.0776  1.1318
45042SOL    HW245057  10.324  12.146   9.749 -0.2010 -1.0515  0.7789
45043SOL     OW45058  11.620   2.798  12.698  0.3110 -0.8720 -0.1886
45043SOL    HW145059  11.524   2.800  12.705  0.3736  0.1588  0.4852
45043SOL    HW245060  11.640   2.853  12.623  0.4267 -0.1889  0.3357
45044SOL     OW45061   5.543  12.971   0.523  0.0403  0.0645 -0.3092
45044SOL    HW145062   5.505  12.905   0.465  0.8745 -0.1083 -0.6759
45044SOL    HW245063   5.595  13.026   0.465 -0.6166  1.0347 -0.0016
45045SOL     OW45064   3.556  10.029   5.850 -0.1939  0.0835 -0.5447
45045SOL    HW145065   3.640   9.987   5.869 -0.6984 -0.1905  1.3069
45045SOL    HW245066   3.580  10.115   5.815  0.9217  0.7128  1.5709
45046SOL     OW45067   2.186   2.835  11.676  0.4107  0.7065 -0.3201
45046SOL    HW145068   2.106   2.784  11.663  0.5546 -0.1486  1.7398
45046SOL    HW245069   2.176   2.910  11.619 -2.0383  0.7960  0.1074
45047SOL     OW45070  12.121   7.845   1.934 -0.3392 -0.3385 -0.3896
45047SOL    HW145071  12.212   7.849   1.906 -0.0699  0.4700  0.5505
45047SOL    HW245072  12.122   7.875   2.024 -1.6544  0.5104 -0.6316
45048SOL     OW45073   0.172   4.961   7.191 -0.0223  0.0338  0.0991
45048SOL    HW145074   0.137   4.919   7.269  0.9686 -0.3200  0.3723
45048SOL    HW245075   0.115   5.037   7.177  0.4695  0.7878  1.8618
45049SOL     OW45076  12.976   3.204   8.080  0.3830 -0.0390 -0.4205
45049SOL    HW145077  12.930   3.155   8.012  0.8017 -0.1752 -0.6093
45049SOL    HW245078  12.922   3.281   8.095  1.2084  0.9694 -2.2463
45050SOL     OW45079  12.024   3.310   6.023 -0.2569 -0.6479 -0.6047
45050SOL    HW145080  12.006   3.387   5.968  0.8842  1.0320  1.2392
45050SOL    HW245081  12.066   3.248   5.963  0.8018  1.0327 -1.7123
45051SOL     OW45082  11.256   4.100   7.444 -0.6698 -0.2724 -0.0804
45051SOL    HW145083  11.279   4.058   7.361 -0.7745  1.1868 -0.8830
45051SOL    HW245084  11.340   4.111   7.489 -0.7945 -2.9258  1.0038
45052SOL     OW45085   1.938  13.244   5.993  0.6883 -0.2511  0.5057
45052SOL    HW145086   1.965  13.276   5.907 -1.0258 -0.7582 -0.2735
45052SOL    HW245087   1.949  13.319   6.051  3.5463 -0.3967  0.2792
45053SOL     OW45088   1.476   0.208   2.452 -0.0407 -0.2240 -0.0003
45053SOL    HW145089   1.571   0.213   2.468  0.0221  0.5564 -0.5575
45053SOL    HW245090   1.446   0.298   2.463 -0.5632 -0.2997 -0.7620
45054SOL     OW45091  10.849   6.863  10.474  0.1797  0.1787 -0.1262
45054SOL    HW145092  10.935   6.858  10.432 -0.5229  1.9747 -1.9462
45054SOL    HW245093  10.823   6.954  10.464 -3.1677 -0.8350 -2.2892
45055SOL     OW45094   9.474  11.401   0.015 -0.2115  0.1561 -0.4747
45055SOL    HW145095   9.525  11.378  -0.063 -0.9870  0.9562 -1.2450
45055SOL    HW245096   9.472  11.496   0.016 -0.0386  0.1617  0.6579
45056SOL     OW45097   5.078   3.364   3.954  0.3685  0.3050 -0.2618
45056SOL    HW145098   5.164   3.396   3.982  1.4461 -1.9810 -0.7270
45056SOL    HW245099   5.071   3.393   3.863  0.1606  1.3572  0.0715
45057SOL     OW45100   5.050   6.288   8.098  0.0689 -0.4280  0.1361
45057SOL    HW145101   5.115   6.262   8.033 -1.1153  0.0003 -1.2873
45057SOL    HW245102   5.074   6.378   8.121 -0.5018  0.0635 -1.0774
45058SOL     OW45103   0.770   0.506   4.311  0.5865 -0.1934 -0.1472
45058SOL    HW145104   0.831   0.475   4.244 -0.9527 -0.9118 -1.2614
45058SOL    HW245105   0.769   0.436   4.376 -1.9500 -2.1243 -2.0605
45059SOL     OW45106  12.759   8.520   8.290  0.0162  0.1290  0.1076
45059SOL    HW145107  12.818   8.445   8.293  0.4964  0.4921 -0.1297
45059SOL    HW245108  12.673   8.483   8.273  0.0298 -0.4860  1.2404
45060SOL     OW45109  12.852   5.669   1.256  0.3705 -0.7152 -0.1034
45060SOL    HW145110  12.935   5.684   1.302  0.7645  0.5712 -1.1590
45060SOL    HW245111  12.870   5.596   1.196  0.7905 -0.3457 -0.4311
45061SOL     OW45112   4.502   7.905  10.126 -0.2511  0.2633 -0.5641
45061SOL    HW145113   4.587   7.922  10.084 -1.0324  1.5368 -1.7229
45061SOL    HW245114   4.524   7.873  10.213  1.4306 -0.8552 -1.3470
45062SOL     OW45115   0.008   0.118   7.600  0.5596  0.3699  0.1610
45062SOL    HW145116  -0.051   0.120   7.525 -0.5673  0.3908  1.0179
45062SOL    HW245117   0.046   0.030   7.599  0.9669  0.5435 -0.7204
45063SOL     OW45118   0.500   8.550   6.576 -0.5763 -0.0528  0.2954
45063SOL    HW145119   0.525   8.535   6.667  2.9671 -1.6175 -0.7708
45063SOL    HW245120   0.425   8.492   6.562 -0.9453 -0.0568  2.0685
45064SOL     OW45121   1.763   2.885   3.834 -0.1825  0.0748  0.5385
45064SOL    HW145122   1.704   2.925   3.897  1.0383  0.8496  1.2271
45064SOL    HW245123   1.834   2.849   3.887  1.4198  1.6709 -0.4018
45065SOL     OW45124   8.299  10.879  10.114  0.7893 -0.1320  0.7479
45065SOL    HW145125   8.357  10.924  10.053 -0.4882 -0.3608 -0.7026
45065SOL    HW245126   8.325  10.787  10.108 -0.9649 -0.5523 -1.4559
45066SOL     OW45127   1.385   8.677  13.239 -0.3252 -0.2919  0.3458
45066SOL    HW145128   1.449   8.609  13.259 -0.6210 -1.0165 -1.0317
45066SOL    HW245129   1.347   8.700  13.324 -1.4931 -3.1502  0.7104
45067SOL     OW45130   1.290   2.237   0.097 -0.5887  0.4110 -1.0839
45067SOL    HW145131   1.372   2.187   0.091 -0.2897  0.3692  2.0491
45067SOL    HW245132   1.221   2.172   0.080 -0.0978 -0.5945  0.5479
45068SOL     OW45133   6.577   0.621  12.465  0.0448  0.0562 -0.0598
45068SOL    HW145134   6.634   0.547  12.485  0.7581  0.5955 -0.0376
45068SOL    HW245135   6.625   0.697  12.498 -0.6816  0.5291 -0.0659
45069SOL     OW45136   5.209   0.203  10.834 -0.2980 -0.3539 -0.3172
45069SOL    HW145137   5.192   0.126  10.780  0.4039 -0.1216 -0.8859
45069SOL    HW245138   5.257   0.169  10.909 -0.7164 -0.5916 -0.1586
45070SOL     OW45139   4.620   5.403   2.618  0.2258 -0.2004 -0.4835
45070SOL    HW145140   4.627   5.418   2.524 -0.6009  0.2105 -0.4889
45070SOL    HW245141   4.689   5.340   2.638 -0.0442 -0.8376 -1.4927
45071SOL     OW45142  12.050  10.885   6.457  0.2472 -0.1356 -0.1552
45071SOL    HW145143  12.138  10.865   6.490 -0.6694 -0.7828  2.1159
45071SOL    HW245144  12.065  10.944   6.383  2.5106  1.1241  1.2016
45072SOL     OW45145   5.215  10.297  10.183 -0.2694  0.4845  0.4977
45072SOL    HW145146   5.196  10.299  10.089 -1.2471 -0.2365  0.6651
45072SOL    HW245147   5.275  10.370  10.197  2.7063 -1.3997 -1.2891
45073SOL     OW45148   0.220  11.913   7.409 -0.2695 -0.3204 -0.4883
45073SOL    HW145149   0.268  11.842   7.367  1.8241  1.1554 -0.7822
45073SOL    HW245150   0.255  11.916   7.499  1.0909  1.4314 -1.0079
45074SOL     OW45151   3.277   4.272   6.953 -0.4771 -0.1893  0.3333
45074SOL    HW145152   3.201   4.329   6.947 -0.1930  0.0016 -2.2116
45074SOL    HW245153   3.252   4.192   6.906  1.3963  0.5522 -2.1352
45075SOL     OW45154   2.124   0.605   7.033  0.2295  0.6521  0.9030
45075SOL    HW145155   2.143   0.520   7.073  1.4170  0.1596 -0.6210
45075SOL    HW245156   2.161   0.669   7.095  4.7324 -0.1793 -0.5814
45076SOL     OW45157   9.970  10.168  11.496  0.3039  0.1668  0.2948
45076SOL    HW145158   9.989  10.165  11.590  0.1941 -0.5098  0.3032
45076SOL    HW245159   9.962  10.261  11.476  0.8776  0.3454  0.8440
45077SOL     OW45160  11.119   5.713  12.287 -0.2390 -0.0620  0.2849
45077SOL    HW145161  11.194   5.672  12.330  0.8075  0.9454 -0.4941
45077SOL    HW245162  11.117   5.673  12.200  2.5520  3.2448 -1.5756
45078SOL     OW45163   5.683   5.708   5.171  0.1840  0.1785  0.5057
45078SOL    HW145164   5.720   5.775   5.113 -1.1475 -0.1312 -0.7589
45078SOL    HW245165   5.714   5.625   5.135  0.7515  0.0509  1.2768
45079SOL     OW45166  10.432  11.755  12.517  0.2816  0.1800 -0.1179
45079SOL    HW145167  10.447  11.820  12.449  2.4338 -0.5778 -0.4405
45079SOL    HW245168  10.403  11.806  12.593 -0.2699  1.2364 -1.0204
45080SOL     OW45169   3.546   8.758   2.313 -0.1714  0.4731 -0.2615
45080SOL    HW145170   3.491   8.834   2.333 -0.0268  0.8156 -1.1282
45080SOL    HW245171   3.634   8.794   2.303 -0.1960  0.2859 -1.2372
45081SOL     OW45172  11.024   9.296   1.051  0.1116 -0.1176  0.6394
45081SOL    HW145173  11.041   9.206   1.079  1.8237  0.1643  0.6106
45081SOL    HW245174  11.079   9.307   0.973 -0.9889  0.5892 -0.0566
45082SOL     OW45175   9.936   5.141  13.190  0.0585  0.0610  0.2293
45082SOL    HW145176   9.904   5.195  13.263  1.7924 -0.0757  1.1360
45082SOL    HW245177   9.956   5.056  13.230  1.1912  0.0377 -0.3492
45083SOL     OW45178   2.957   1.958   6.790 -0.3089  0.3891  0.0378
45083SOL    HW145179   2.948   1.884   6.851  1.3525  0.6381  0.6443
45083SOL    HW245180   3.039   1.941   6.744  1.0201  2.6315  1.3721
45084SOL     OW45181   2.490   4.576   1.761  0.0923  0.2144  0.1683
45084SOL    HW145182   2.465   4.617   1.844  0.3760 -0.9025  0.8158
45084SOL    HW245183   2.485   4.482   1.778 -0.3875 -0.0341 -1.2475
45085SOL     OW45184  12.439   5.634  11.453  0.3150 -0.7775 -0.3605
45085SOL    HW145185  12.421   5.703  11.516  2.1687 -1.4725  1.0152
45085SOL    HW245186  12.374   5.646  11.384  0.1529  1.8912  0.1749
45086SOL     OW45187   2.054  10.201  12.903 -0.0336  0.4992  0.4294
45086SOL    HW145188   2.078  10.293  12.896  0.0620  0.4401 -0.0679
45086SOL    HW245189   2.101  10.158  12.831  0.0719  0.0329  0.7678
45087SOL     OW45190   1.020   5.215   8.080 -0.2324  0.2856 -0.3997
45087SOL    HW145191   0.973   5.149   8.029  2.6763 -0.7234 -1.9846
45087SOL    HW245192   1.086   5.250   8.020 -0.0157  2.8385  1.1797
45088SOL     OW45193  10.010   2.703   0.171  0.0902  0.0708 -0.1550
45088SOL    HW145194  10.100   2.696   0.202  0.0754  0.0683 -0.1104
45088SOL    HW245195   9.986   2.613   0.149 -1.4574 -0.8565  4.2031
45089SOL     OW45196   3.237   6.927   7.801 -0.1263 -0.5147 -0.5008
45089SOL    HW145197   3.156   6.938   7.851  1.3050  0.1379  1.8658
45089SOL    HW245198   3.241   7.003   7.744  0.3461  1.2698  1.7703
45090SOL     OW45199  13.006   4.124   2.589  0.2559 -0.2408  0.1780
45090SOL    HW145200  13.025   4.159   2.676 -0.8615  0.6365  0.0942
45090SOL    HW245201  12.919   4.159   2.567  0.2016 -1.0342 -0.9877
45091SOL     OW45202  10.963   4.601   1.054 -0.3925  0.3160 -0.8088
45091SOL    HW145203  11.007   4.680   1.020 -1.5062  1.1243 -0.4505
45091SOL    HW245204  11.030   4.555   1.103  0.4095  0.7926 -1.4336
45092SOL     OW45205   1.524   4.605   9.988  0.5637  0.5712  0.2234
45092SOL    HW145206   1.460   4.536  10.000  1.2104 -0.2115 -0.6468
45092SOL    HW245207   1.535   4.644  10.074 -2.3310  1.8812  0.1013
45093SOL     OW45208   4.468   8.220   1.649  0.5419  0.6424 -0.9166
45093SOL    HW145209   4.548   8.214   1.702 -0.3050  1.2808  0.4796
45093SOL    HW245210   4.429   8.304   1.672 -1.8372 -0.7077  0.3945
45094SOL     OW45211  10.703   8.482  13.153  0.0642 -0.6293 -0.0635
45094SOL    HW145212  10.676   8.484  13.245 -0.0908 -1.6098 -0.0732
45094SOL    HW245213  10.796   8.458  13.156  0.3365  0.3779 -0.1297
45095SOL     OW45214   0.641   5.981  10.728  0.6662  0.2241 -0.1952
45095SOL    HW145215   0.687   6.045  10.674  1.1526 -0.5243 -0.6878
45095SOL    HW245216   0.633   6.022  10.814 -1.1242  1.9095 -1.1021
45096SOL     OW45217  10.186  11.339   6.185 -0.0362  0.2761 -0.1196
45096SOL    HW145218  10.196  11.265   6.125 -0.2638 -0.7906  1.0960
45096SOL    HW245219  10.096  11.329   6.219 -0.7617  2.2292 -1.3416
45097SOL     OW45220   8.495   3.630   1.862 -0.3705  0.4737  0.2990
45097SOL    HW145221   8.484   3.717   1.899  0.4755 -0.4824  3.0377
45097SOL    HW245222   8.580   3.634   1.816  0.3523  0.7444  1.6097
45098SOL     OW45223   8.515  11.627  13.037  0.1713 -0.3884  0.1600
45098SOL    HW145224   8.543  11.669  13.119 -1.2061 -3.5331  2.4321
45098SOL    HW245225   8.439  11.677  13.010 -0.3145 -0.2104  1.7374
45099SOL     OW45226   1.786   7.786  12.095  0.1929 -0.0987 -0.4164
45099SOL    HW145227   1.703   7.745  12.070 -1.3836  1.8247  1.3662
45099SOL    HW245228   1.853   7.727  12.059 -1.9035 -2.1704 -1.1963
45100SOL     OW45229   9.434   5.729   5.132 -0.6472 -0.0275  0.4454
45100SOL    HW145230   9.423   5.715   5.226  1.4957 -1.7180  0.4977
45100SOL    HW245231   9.519   5.691   5.111 -0.2464  1.9159 -1.8800
45101SOL     OW45232   8.282   5.324   1.557 -0.1159  0.3448  0.2265
45101SOL    HW145233   8.211   5.323   1.622  0.7576  0.6898  1.2031
45101SOL    HW245234   8.241   5.290   1.477 -1.1374 -0.3839  1.0254
45102SOL     OW45235  13.219   9.518   0.865 -0.1494 -0.1923  0.2266
45102SOL    HW145236  13.205   9.425   0.846 -1.1126 -0.0996  0.3974
45102SOL    HW245237  13.133   9.549   0.896  0.5618  0.3732  1.7496
45103SOL     OW45238   8.704   8.563  10.756  0.3874 -0.0955  0.8312
45103SOL    HW145239   8.791   8.593  10.782  1.0409  0.4620 -1.7080
45103SOL    HW245240   8.646   8.598  10.823  1.7034  2.8389  0.6187
45104SOL     OW45241   2.686   5.886   4.648  0.3086 -0.0942  0.2523
45104SOL    HW145242   2.591   5.877   4.641  0.2453  0.7051 -0.0551
45104SOL    HW245243   2.700   5.980   4.657  0.8835 -0.3703  3.4983
45105SOL     OW45244   4.099  12.868   1.076 -0.0534  0.2090  0.4254
45105SOL    HW145245   4.047  12.811   1.133  1.3555 -1.7963 -0.1627
45105SOL    HW245246   4.058  12.858   0.990 -0.1659  0.5639  0.4388
45106SOL     OW45247   1.408   4.141   7.181  0.0404  0.0865  0.1381
45106SOL    HW145248   1.346   4.132   7.254  0.8621  0.3305  0.8913
45106SOL    HW245249   1.491   4.107   7.216  0.8033  1.5341 -0.1844
45107SOL     OW45250   8.773   7.337   2.472 -0.1747  0.2980 -0.1831
45107SOL    HW145251   8.681   7.315   2.482 -0.5424  0.1525 -3.2138
45107SOL    HW245252   8.817   7.286   2.541 -2.1925 -0.6001  0.5180
45108SOL     OW45253   3.946   1.426  10.339  0.3693 -0.5907 -0.2898
45108SOL    HW145254   4.033   1.386  10.344 -0.4202 -2.3476 -0.0107
45108SOL    HW245255   3.911   1.396  10.256  0.0852  0.2652 -0.4858
45109SOL     OW45256  10.972   0.866  12.993  0.2543 -0.1215  0.2883
45109SOL    HW145257  10.998   0.931  12.929 -0.6645 -1.7312 -1.8252
45109SOL    HW245258  11.044   0.803  12.995  1.1492  0.8548  2.3332
45110SOL     OW45259   1.373  12.699   6.187 -0.2528  0.1894  0.3903
45110SOL    HW145260   1.337  12.743   6.264 -0.5570 -2.0880  1.6054
45110SOL    HW245261   1.468  12.698   6.203 -0.3196 -0.3301  0.7852
45111SOL     OW45262   4.832  10.407  11.256 -0.6420 -0.6627  0.0678
45111SOL    HW145263   4.924  10.390  11.273 -0.9032 -0.6181  1.7078
45111SOL    HW245264   4.817  10.374  11.168  0.9765 -0.4951 -0.2994
45112SOL     OW45265   6.078   6.976   7.880  0.1200  0.1534 -0.0549
45112SOL    HW145266   6.079   6.881   7.869 -0.9049  0.0910  0.3202
45112SOL    HW245267   5.995   7.003   7.842  0.0306  0.8091  0.5985
45113SOL     OW45268   0.333  11.929   7.683 -0.4121  0.6333  0.4579
45113SOL    HW145269   0.424  11.920   7.711 -0.1796  1.5134  0.0300
45113SOL    HW245270   0.319  12.024   7.680 -2.3099  0.6175  3.6532
45114SOL     OW45271   6.000   9.606   7.782 -0.1120  0.0892  0.7228
45114SOL    HW145272   5.925   9.554   7.755  1.4586 -0.6917 -2.6440
45114SOL    HW245273   6.067   9.542   7.805  0.4788  0.7075  0.7571
45115SOL     OW45274   7.593   6.977   3.509 -0.4123 -0.8865  0.6822
45115SOL    HW145275   7.596   6.888   3.476 -1.2824 -1.4614  2.0636
45115SOL    HW245276   7.515   6.980   3.564 -1.3683  1.2189 -0.6346
45116SOL     OW45277   9.215   6.505   6.135 -0.6017  0.3329  0.0095
45116SOL    HW145278   9.309   6.511   6.151 -0.7065 -0.4976  1.0934
45116SOL    HW245279   9.191   6.590   6.098  0.6965  0.2874 -1.0337
45117SOL     OW45280  12.681   2.792   0.404  0.0290 -0.0859  0.3583
45117SOL    HW145281  12.762   2.838   0.382  0.7341 -0.0023  2.8362
45117SOL    HW245282  12.708   2.723   0.464 -1.6788 -0.3574  0.8663
45118SOL     OW45283   1.073   6.502   1.087 -0.9408 -0.0595  0.1032
45118SOL    HW145284   1.050   6.548   1.006  1.7650 -0.8677 -1.2329
45118SOL    HW245285   1.087   6.411   1.060  0.0213 -0.3502  1.4652
45119SOL     OW45286   6.782   3.676   9.710  0.5991 -0.5138 -0.3203
45119SOL    HW145287   6.826   3.755   9.681  0.1025  0.1983  0.7891
45119SOL    HW245288   6.695   3.679   9.670  0.1340  0.1576  0.6928
45120SOL     OW45289   4.062   2.169   1.103 -0.3010 -0.0055  0.1375
45120SOL    HW145290   4.106   2.234   1.158 -0.5092 -0.0283  0.3339
45120SOL    HW245291   4.061   2.090   1.157 -1.0564  0.1409  0.3422
45121SOL     OW45292   2.973   6.108   3.298 -0.3319  0.0079 -0.0560
45121SOL    HW145293   3.014   6.167   3.362 -0.2314 -0.1983  0.0689
45121SOL    HW245294   3.032   6.033   3.293 -0.5793 -0.1885 -0.0399
45122SOL     OW45295   4.083   8.524   0.883  0.5340  0.3276  0.0812
45122SOL    HW145296   4.102   8.458   0.815 -0.7539  0.6091 -0.5724
45122SOL    HW245297   4.147   8.594   0.867  1.4481 -0.4179  0.3369
45123SOL     OW45298   2.397  11.799   3.634 -0.2591 -0.4452 -0.3535
45123SOL    HW145299   2.325  11.735   3.634 -0.1464 -0.5791 -0.9817
45123SOL    HW245300   2.363  11.873   3.683 -1.2200 -0.0797 -1.5161
45124SOL     OW45301   6.727  12.526   1.472 -1.1556 -0.1735 -0.2294
45124SOL    HW145302   6.709  12.437   1.439  1.4830 -0.1348 -2.1369
45124SOL    HW245303   6.681  12.583   1.410  1.8175 -0.1815 -2.7043
45125SOL     OW45304  12.417  10.731   5.098  0.4302 -0.0364  0.5142
45125SOL    HW145305  12.446  10.801   5.040 -1.9509  0.6606  0.0525
45125SOL    HW245306  12.439  10.761   5.186  3.2143 -0.6819  0.1421
45126SOL     OW45307   1.021   7.023  11.037  0.1712  0.0544  0.2497
45126SOL    HW145308   1.002   7.092  11.101 -0.7612  0.8306 -0.8301
45126SOL    HW245309   1.008   6.942  11.085  0.2970  0.6230  1.2713
45127SOL     OW45310   5.089   7.856   2.442  0.0061  0.2769  0.1939
45127SOL    HW145311   5.024   7.798   2.483 -1.5469  1.2656 -0.7479
45127SOL    HW245312   5.049   7.943   2.447  1.1560  0.8716 -0.6613
45128SOL     OW45313   4.319  10.686   0.110 -0.5034 -0.1790  0.3074
45128SOL    HW145314   4.383  10.645   0.169  1.3364  0.1367 -1.3637
45128SOL    HW245315   4.369  10.753   0.064 -2.2341  0.5427 -0.5853
45129SOL     OW45316   0.303  11.811   6.259  0.2057 -0.0259  0.2056
45129SOL    HW145317   0.375  11.874   6.255  0.6678 -0.5986 -0.9950
45129SOL    HW245318   0.318  11.754   6.184 -1.3370 -0.3473  0.1294
45130SOL     OW45319   4.266   7.253   5.990 -0.6846 -0.1273 -0.2824
45130SOL    HW145320   4.309   7.271   6.073  0.4528 -1.7232 -0.4714
45130SOL    HW245321   4.172   7.255   6.009 -0.5948  2.9070  0.2645
45131SOL     OW45322   7.862   8.514  11.642 -0.0505 -0.5005  0.1825
45131SOL    HW145323   7.812   8.529  11.722  1.1620  0.1730  0.8427
45131SOL    HW245324   7.922   8.443  11.664  1.6669  0.9988  0.5617
45132SOL     OW45325   1.014   0.324  11.997 -0.2189 -0.3434  0.8872
45132SOL    HW145326   0.939   0.337  12.056 -0.4508 -0.9711  0.7391
45132SOL    HW245327   1.079   0.388  12.026 -1.9142  2.4212 -0.8731
45133SOL     OW45328  10.095   1.327   8.813  0.2522  0.0970 -0.0608
45133SOL    HW145329  10.075   1.265   8.742  0.5849  0.0422 -0.1118
45133SOL    HW245330  10.090   1.274   8.892 -1.9663  0.5636  0.1590
45134SOL     OW45331   6.812   3.975   2.571 -0.9563  0.1839  0.5828
45134SOL    HW145332   6.759   4.012   2.641 -0.5228 -1.6665  1.9569
45134SOL    HW245333   6.897   4.017   2.581 -0.4416 -1.1736  2.1727
45135SOL     OW45334   6.167  11.423   7.088 -0.1112 -0.3755  0.2613
45135SOL    HW145335   6.113  11.425   7.009  0.3249 -2.6347 -0.1744
45135SOL    HW245336   6.105  11.409   7.160 -0.2291 -2.9537 -0.2323
45136SOL     OW45337   3.743   5.491   0.918 -0.1154  0.6157  0.0011
45136SOL    HW145338   3.767   5.579   0.886  1.5816 -0.0689 -0.7279
45136SOL    HW245339   3.662   5.505   0.966 -2.1128  1.9830 -3.3613
45137SOL     OW45340   2.703   2.481   5.606  0.1401  0.4139 -0.1267
45137SOL    HW145341   2.624   2.457   5.558  0.0586  0.3079  0.0597
45137SOL    HW245342   2.758   2.526   5.542  0.7648 -1.2119 -0.7900
45138SOL     OW45343   8.546   8.453  12.314  0.6021  0.3381 -0.1214
45138SOL    HW145344   8.637   8.426  12.321  0.3930  0.0135  1.8304
45138SOL    HW245345   8.549   8.549  12.315  0.8987  0.3243  0.1816
45139SOL     OW45346   1.777  11.150   6.716 -0.1618 -0.2132  0.7077
45139SOL    HW145347   1.692  11.143   6.759 -0.0340 -1.0753  0.8379
45139SOL    HW245348   1.827  11.076   6.751  0.7326  0.4474  0.8361
45140SOL     OW45349   0.514   4.094  11.243 -0.3778 -0.1306  0.2124
45140SOL    HW145350   0.462   4.108  11.322 -1.6253 -0.9120 -0.4323
45140SOL    HW245351   0.451   4.059  11.179  0.6604  0.1959 -1.0307
45141SOL     OW45352   4.237   7.934   3.761 -0.3891  0.9179 -0.5375
45141SOL    HW145353   4.170   7.910   3.825 -0.8436  0.3299 -1.2216
45141SOL    HW245354   4.209   8.019   3.727  0.4908  1.8215  0.8862
45142SOL     OW45355   3.545   5.272  12.263  0.3825  0.5467 -0.2961
45142SOL    HW145356   3.576   5.236  12.346 -1.3113 -1.1549 -0.3280
45142SOL    HW245357   3.617   5.259  12.202  0.5300 -1.0857  0.1826
45143SOL     OW45358   2.486  11.478   8.523 -0.0068  0.3330 -0.1999
45143SOL    HW145359   2.532  11.491   8.440 -0.0391  0.6881 -0.1632
45143SOL    HW245360   2.553  11.445   8.583 -0.1758 -0.7975 -0.6002
45144SOL     OW45361  10.713   2.605   0.803 -0.0192  0.1607 -0.2690
45144SOL    HW145362  10.745   2.540   0.865 -0.6763  0.5399  0.4872
45144SOL    HW245363  10.761   2.685   0.824 -0.6398  0.4379  0.1370
45145SOL     OW45364   7.345   0.353   1.941 -0.3836  0.2617  0.2654
45145SOL    HW145365   7.305   0.298   2.008  0.1300 -0.5443 -0.0624
45145SOL    HW245366   7.438   0.354   1.963 -0.5742  2.3879  1.2151
45146SOL     OW45367   4.660   2.599   9.106 -0.5263  0.2398  0.2407
45146SOL    HW145368   4.591   2.533   9.103 -0.8365  0.5805 -0.3438
45146SOL    HW245369   4.635   2.663   9.039  1.0084 -0.2920 -0.9123
45147SOL     OW45370   3.864   3.856   8.412 -0.2402  0.6414  0.0868
45147SOL    HW145371   3.814   3.938   8.407 -0.6481  0.3958  0.1456
45147SOL    HW245372   3.818   3.796   8.354  0.5855  0.7186 -0.6698
45148SOL     OW45373   2.713  11.957   4.338  0.4105 -0.2612 -0.1620
45148SOL    HW145374   2.701  11.864   4.360 -2.4083 -0.0842 -0.6162
45148SOL    HW245375   2.703  12.003   4.422  1.6792 -0.3176  0.0413
45149SOL     OW45376   1.280   7.257   4.462 -0.2712 -0.1766 -0.2692
45149SOL    HW145377   1.270   7.176   4.412  1.5333  1.1586 -3.0414
45149SOL    HW245378   1.214   7.251   4.531 -1.5353 -3.0872 -1.5669
45150SOL     OW45379  10.974   7.567   7.852 -0.3890 -0.1462  0.2148
45150SOL    HW145380  10.895   7.518   7.873 -0.8372  1.0732  1.5285
45150SOL    HW245381  10.951   7.658   7.870  2.1679  0.0065  3.5647
45151SOL     OW45382  13.205  12.028   3.931  0.4345  0.1102 -0.3062
45151SOL    HW145383  13.202  12.095   3.999 -2.7977  1.1342 -1.2864
45151SOL    HW245384  13.183  11.947   3.977 -4.7018  1.1833 -0.2303
45152SOL     OW45385  11.850  11.835   0.395  0.1592  0.8899  0.5347
45152SOL    HW145386  11.873  11.763   0.337 -0.3122  0.6011  0.7029
45152SOL    HW245387  11.925  11.844   0.453  0.6013  1.1291 -0.0634
45153SOL     OW45388   9.773  10.561   1.662 -0.3701 -0.0593 -0.2091
45153SOL    HW145389   9.843  10.614   1.700 -0.6190  0.0811  0.0630
45153SOL    HW245390   9.730  10.619   1.599 -0.5406  0.0084 -0.0299
45154SOL     OW45391   5.193  11.577   2.519  0.2951  0.0613  0.2853
45154SOL    HW145392   5.231  11.490   2.504  1.1013  0.4537  0.0086
45154SOL    HW245393   5.268  11.635   2.527 -0.1725  0.4877  2.1330
45155SOL     OW45394   4.715   5.551   0.287 -0.1300  0.2145 -0.2298
45155SOL    HW145395   4.795   5.501   0.305  0.4168  0.5328 -1.6726
45155SOL    HW245396   4.746   5.628   0.238 -1.2361  0.7463 -0.1116
45156SOL     OW45397   2.164   5.654  10.372  0.3415 -0.0724 -0.1432
45156SOL    HW145398   2.167   5.674  10.466  0.4834 -0.5356 -0.0479
45156SOL    HW245399   2.113   5.726  10.334  0.5899  0.3054  0.2368
45157SOL     OW45400  11.271   7.324  12.573 -0.0322 -1.2554 -0.5072
45157SOL    HW145401  11.220   7.350  12.649  1.0827 -0.7888  0.1079
45157SOL    HW245402  11.284   7.405  12.523 -0.0803 -1.4068 -0.7667
45158SOL     OW45403  12.994   5.790   7.094  0.1815 -0.0878  0.5248
45158SOL    HW145404  12.956   5.734   7.162  0.2012 -2.4194 -1.2782
45158SOL    HW245405  12.975   5.879   7.124 -2.3931 -1.0524  2.1519
45159SOL     OW45406   9.214   3.554   3.101  0.3572  0.1533  0.0471
45159SOL    HW145407   9.245   3.625   3.157 -2.6573  1.1024  0.6701
45159SOL    HW245408   9.208   3.478   3.160  2.1338 -0.3036 -0.2828
45160SOL     OW45409   3.576   0.428   6.795  0.1192 -0.9650 -0.1024
45160SOL    HW145410   3.544   0.518   6.806 -0.1677 -1.0755 -0.0260
45160SOL    HW245411   3.671   0.436   6.802  0.0740 -0.7215  0.2755
45161SOL     OW45412   7.668   3.278   7.773  0.0753  0.3292 -0.1631
45161SOL    HW145413   7.586   3.307   7.734  0.6515  1.5096 -0.5551
45161SOL    HW245414   7.671   3.324   7.858 -0.0748 -0.3965  0.2410
45162SOL     OW45415   7.772   5.836   9.176  0.1364 -0.2857  0.7687
45162SOL    HW145416   7.839   5.901   9.196  1.0868 -0.3393 -1.9218
45162SOL    HW245417   7.816   5.752   9.189 -0.5986 -0.4325  2.6276
45163SOL     OW45418   5.346   6.410  12.814 -0.1062  0.0562  0.9449
45163SOL    HW145419   5.338   6.466  12.737  0.6907 -1.6903 -0.4896
45163SOL    HW245420   5.284   6.339  12.798  2.5531 -2.2654  0.0412
45164SOL     OW45421   3.893   7.331   6.927 -0.6882 -0.0790 -0.1635
45164SOL    HW145422   3.916   7.424   6.922  0.3619 -0.2298  1.2637
45164SOL    HW245423   3.867   7.308   6.838  0.4285  1.2273 -0.8637
45165SOL     OW45424  12.857  10.017   8.411 -0.6720 -0.3338  0.2876
45165SOL    HW145425  12.832  10.074   8.338 -0.5779  0.3427  0.7733
45165SOL    HW245426  12.949   9.997   8.395 -0.9557 -1.1799 -0.4166
45166SOL     OW45427   3.316  13.237   5.653  0.1106 -0.6666 -0.5048
45166SOL    HW145428   3.275  13.225   5.739 -3.2806 -0.5175 -1.9611
45166SOL    HW245429   3.401  13.276   5.673 -1.3028  1.1909  2.6927
45167SOL     OW45430  10.069  11.565   2.556 -0.2791 -0.2251 -0.8599
45167SOL    HW145431   9.994  11.623   2.544  0.1347  0.4630 -0.1611
45167SOL    HW245432  10.123  11.579   2.478  0.6687  1.6322  0.0716
45168SOL     OW45433  10.810  12.821   9.425  0.6043 -0.3348 -0.1528
45168SOL    HW145434  10.739  12.757   9.432  1.9862 -1.9253 -0.2695
45168SOL    HW245435  10.833  12.843   9.515  1.1233 -1.1589 -0.0766
45169SOL     OW45436   0.577   9.019   8.359 -0.7766 -0.1998  0.3585
45169SOL    HW145437   0.504   9.006   8.299  0.0305  0.8530 -0.9159
45169SOL    HW245438   0.654   8.988   8.311 -0.0906  0.8227  0.7508
45170SOL     OW45439   2.407   5.550  11.645  0.2098 -0.0783  0.3074
45170SOL    HW145440   2.350   5.484  11.606 -1.5099  1.0077  0.8498
45170SOL    HW245441   2.354   5.590  11.715  1.8332  0.6363  1.2030
45171SOL     OW45442   4.124   0.873   6.233  0.4283 -0.3085  0.1238
45171SOL    HW145443   4.136   0.818   6.156 -1.0606 -0.5346  0.0297
45171SOL    HW245444   4.209   0.872   6.277  0.6768 -1.9793 -0.3316
45172SOL     OW45445   3.797   7.744   6.659 -0.5100 -0.0667 -0.8249
45172SOL    HW145446   3.756   7.810   6.714 -0.2519 -1.1553  0.7697
45172SOL    HW245447   3.851   7.793   6.597  0.4438  1.1967  0.9343
45173SOL     OW45448   4.337   4.303   9.036  0.2665  0.2639 -0.2722
45173SOL    HW145449   4.391   4.338   8.965 -0.3946  0.9488 -0.4608
45173SOL    HW245450   4.394   4.303   9.112  0.1062  2.5434 -0.0679
45174SOL     OW45451  11.485  11.892   4.403 -0.1827 -0.1031 -0.2118
45174SOL    HW145452  11.532  11.835   4.464 -0.8400 -0.4297  0.0028
45174SOL    HW245453  11.536  11.973   4.401  1.1499 -0.9487 -1.0623
45175SOL     OW45454   8.013  12.450   9.270 -0.4217  0.5977 -0.2010
45175SOL    HW145455   8.090  12.457   9.326 -0.4590  2.2590 -0.3299
45175SOL    HW245456   7.949  12.402   9.324  0.0196  0.9414  0.6416
45176SOL     OW45457  11.290   0.297   4.942  0.4978 -0.3201 -0.5614
45176SOL    HW145458  11.365   0.265   4.991 -1.4488 -0.7279  2.4595
45176SOL    HW245459  11.239   0.347   5.006 -1.0258  1.3319 -2.8776
45177SOL     OW45460   8.197   1.625  10.706  0.2448 -0.0220  0.2358
45177SOL    HW145461   8.277   1.573  10.701  0.8724  0.8309  0.9018
45177SOL    HW245462   8.129   1.569  10.671  0.9892 -1.0792  0.4414
45178SOL     OW45463   4.973   1.580   5.699  0.4306  0.0620 -0.7527
45178SOL    HW145464   4.932   1.563   5.614 -0.6317 -1.6288  0.0323
45178SOL    HW245465   5.041   1.513   5.706 -0.5307 -0.8374  0.3573
45179SOL     OW45466  11.790  12.740   0.363 -0.5145  0.2095  0.2293
45179SOL    HW145467  11.709  12.694   0.341 -1.3839 -0.0456  3.3921
45179SOL    HW245468  11.852  12.671   0.385 -0.6812  0.4169  1.4516
45180SOL     OW45469   1.537   5.263   3.461 -0.0216  0.4151 -0.0173
45180SOL    HW145470   1.556   5.228   3.547 -0.8755 -0.1861 -0.0576
45180SOL    HW245471   1.458   5.216   3.433 -1.6657  2.8439  0.2280
45181SOL     OW45472  11.946   3.714   8.768  0.0266 -1.0170  0.0678
45181SOL    HW145473  12.005   3.648   8.732 -0.4895  0.2679 -3.5721
45181SOL    HW245474  12.003   3.782   8.802  0.6514 -1.0908 -0.7970
45182SOL     OW45475   4.105   7.673   3.911 -0.1322  0.6688 -0.6400
45182SOL    HW145476   4.076   7.621   3.836 -0.9101  1.2189 -0.7264
45182SOL    HW245477   4.026   7.688   3.962  0.3366  0.5564  0.1440
45183SOL     OW45478  12.796   1.545   5.414  0.6463 -0.0984  0.1292
45183SOL    HW145479  12.726   1.569   5.474  0.9481  0.2417  0.3497
45183SOL    HW245480  12.750   1.522   5.333  0.2562 -0.2985  0.4025
45184SOL     OW45481   4.190   0.183   5.281  0.6247  0.3418 -0.4319
45184SOL    HW145482   4.240   0.109   5.247 -0.0417 -0.5869  0.5361
45184SOL    HW245483   4.162   0.231   5.203  3.5408  1.2931 -1.0025
45185SOL     OW45484   1.410   3.758   5.450 -0.7685 -0.5304  0.4594
45185SOL    HW145485   1.364   3.842   5.448 -0.1579 -0.2069 -0.5627
45185SOL    HW245486   1.351   3.696   5.406 -1.9378 -1.0565  2.6028
45186SOL     OW45487  11.767   5.226   3.281 -0.6555 -0.1738  0.1841
45186SOL    HW145488  11.717   5.276   3.217  0.0862  0.8436  0.3790
45186SOL    HW245489  11.857   5.254   3.268 -0.3717 -0.6706  1.0255
45187SOL     OW45490   9.717   3.203   7.911  0.0763  0.2731  0.7056
45187SOL    HW145491   9.736   3.296   7.920 -0.2339  0.5511 -1.0446
45187SOL    HW245492   9.638   3.200   7.858  0.3254 -0.9941  0.3671
45188SOL     OW45493   5.764  11.036   0.516 -0.5446  0.4823  0.2883
45188SOL    HW145494   5.697  11.041   0.584 -0.4257 -0.3385  0.4839
45188SOL    HW245495   5.777  10.942   0.502  1.6079  0.5484  1.3242
45189SOL     OW45496   2.405  11.752   1.985 -0.3155  0.2057 -0.1907
45189SOL    HW145497   2.459  11.704   1.922 -0.4726  0.6969 -0.7041
45189SOL    HW245498   2.318  11.755   1.945 -0.1291  1.5930 -0.5346
45190SOL     OW45499  11.113   5.690   3.568 -0.1721 -0.5773  0.4944
45190SOL    HW145500  11.185   5.649   3.521  1.3866  3.0114 -0.5839
45190SOL    HW245501  11.034   5.662   3.522  1.1081  0.6900 -2.7279
45191SOL     OW45502   0.119   8.866   1.523 -0.0739 -0.5230 -0.1504
45191SOL    HW145503   0.038   8.826   1.556 -2.2730  0.8230 -3.3161
45191SOL    HW245504   0.119   8.845   1.429  2.2261  1.2095 -0.6284
45192SOL     OW45505   8.598   6.031   1.381  0.0320  0.5980 -0.1694
45192SOL    HW145506   8.593   5.943   1.417 -0.2760 -0.3341 -2.3463
45192SOL    HW245507   8.669   6.073   1.430  1.3866 -1.4287 -0.2689
45193SOL     OW45508   3.837   2.612  13.236 -0.0167 -0.1302  0.7751
45193SOL    HW145509   3.781   2.535  13.228 -1.9637  1.2445  0.3592
45193SOL    HW245510   3.818   2.646  13.324 -0.1643  0.5879  0.4702
45194SOL     OW45511   3.004   0.369   1.887  0.2736 -0.5336  0.5771
45194SOL    HW145512   2.950   0.341   1.812  0.8830 -1.2780  0.4063
45194SOL    HW245513   3.043   0.452   1.859  0.3560 -0.7185  0.1393
45195SOL     OW45514   1.297   5.022  11.256 -0.0045  0.1717  0.1636
45195SOL    HW145515   1.237   4.947  11.263  0.2506  0.0713  1.5759
45195SOL    HW245516   1.266   5.084  11.321  2.1921 -0.4610  1.9323
45196SOL     OW45517  11.035   6.121   6.213 -0.3818 -0.2811  0.0385
45196SOL    HW145518  11.103   6.067   6.253 -0.9087  0.0037  1.3798
45196SOL    HW245519  11.058   6.211   6.238 -1.2381 -0.1812  0.5167
45197SOL     OW45520   5.617   7.597  12.431  0.5407  0.1458  0.3291
45197SOL    HW145521   5.702   7.555  12.419 -0.3042 -0.9963 -2.4478
45197SOL    HW245522   5.573   7.586  12.347 -2.1292  1.2675  1.4754
45198SOL     OW45523  11.943   4.787   0.285 -0.1422  0.9034  0.0537
45198SOL    HW145524  11.905   4.749   0.364  0.3066 -0.3219 -0.2879
45198SOL    HW245525  12.038   4.781   0.299 -0.0191 -0.9710 -1.2858
45199SOL     OW45526   0.546   3.302   8.093 -0.0611 -0.1147 -0.0257
45199SOL    HW145527   0.456   3.313   8.063 -0.1500 -1.2081 -0.1846
45199SOL    HW245528   0.538   3.265   8.181  0.2235 -1.9992 -0.7585
45200SOL     OW45529   0.892   3.244  11.425  0.1290  0.0354  0.3174
45200SOL    HW145530   0.883   3.161  11.379 -1.0557  0.1135  0.3657
45200SOL    HW245531   0.909   3.220  11.516  1.9860 -0.1188 -0.0232
45201SOL     OW45532   2.173  11.356   8.278 -1.0927  0.4714  0.1662
45201SOL    HW145533   2.209  11.388   8.195 -0.8413 -0.9796 -0.3199
45201SOL    HW245534   2.250  11.333   8.330 -1.2652  0.2576  0.3264
45202SOL     OW45535  12.594   1.719   4.659  0.7941 -0.4856  0.1916
45202SOL    HW145536  12.667   1.669   4.694  1.1241  0.1293  0.3772
45202SOL    HW245537  12.632   1.801   4.630  0.3730 -0.6183 -0.7816
45203SOL     OW45538   1.167   6.025   2.086  0.5402  0.0106  0.0264
45203SOL    HW145539   1.146   6.091   2.152  0.5068  1.0272 -0.9712
45203SOL    HW245540   1.244   5.980   2.121  1.8718  1.9938 -0.2147
45204SOL     OW45541  11.357  12.205   8.713 -0.1826 -0.8510  0.7777
45204SOL    HW145542  11.436  12.218   8.765 -0.5730  0.5325  1.0619
45204SOL    HW245543  11.331  12.114   8.731  2.6392 -2.2032 -1.1909
45205SOL     OW45544  12.509   3.342   7.185  0.1529 -0.3463 -0.2298
45205SOL    HW145545  12.527   3.411   7.248 -1.0417 -1.3764  1.2946
45205SOL    HW245546  12.586   3.284   7.190 -0.8646 -1.6327  2.0136
45206SOL     OW45547   9.266   0.540   7.514  0.5368  0.1016  0.0461
45206SOL    HW145548   9.303   0.466   7.562 -1.4023 -0.7677  0.3056
45206SOL    HW245549   9.252   0.607   7.581 -0.2386 -0.3379  0.3348
45207SOL     OW45550   3.568  12.003   5.475 -0.2762  0.0448 -0.1050
45207SOL    HW145551   3.487  11.966   5.441  0.1304 -0.7506 -0.2271
45207SOL    HW245552   3.545  12.093   5.499 -1.6933 -0.7459  1.7583
45208SOL     OW45553   4.090   9.286   8.854 -0.2498  0.7621 -0.2116
45208SOL    HW145554   4.151   9.214   8.840  0.2140  1.1514 -0.2245
45208SOL    HW245555   4.105   9.345   8.781  0.2705  1.4826  0.4610
45209SOL     OW45556   3.536   3.136   8.220  0.5625 -0.5138  0.4885
45209SOL    HW145557   3.546   3.112   8.127  2.0176  0.4732  0.3583
45209SOL    HW245558   3.442   3.146   8.231  0.4009  0.0784 -1.0883
45210SOL     OW45559   6.309   0.218   0.743  0.4602  0.4595 -0.2103
45210SOL    HW145560   6.241   0.267   0.789 -0.5744 -0.8230 -0.3403
45210SOL    HW245561   6.285   0.226   0.650 -1.0605 -2.1608 -0.1144
45211SOL     OW45562   1.178   3.968  12.331  0.1155 -0.3547  0.5866
45211SOL    HW145563   1.241   4.021  12.282  0.8317 -1.6770  0.0417
45211SOL    HW245564   1.171   4.012  12.417 -0.2194  1.2752 -0.2309
45212SOL     OW45565   7.676   8.177   5.226 -0.5456 -0.1196  0.3329
45212SOL    HW145566   7.665   8.103   5.166 -1.0705  1.2480 -1.3304
45212SOL    HW245567   7.769   8.199   5.220 -0.6125  0.0667 -0.0686
45213SOL     OW45568   1.660   7.885   6.504  0.8650 -0.4495  0.2317
45213SOL    HW145569   1.726   7.815   6.504  0.8637 -0.4644 -0.6828
45213SOL    HW245570   1.673   7.929   6.420 -1.9721 -2.0599 -1.1987
45214SOL     OW45571   2.387   0.670   9.093 -0.2542 -0.0747 -0.1250
45214SOL    HW145572   2.463   0.692   9.039 -0.7432 -0.2095 -0.8708
45214SOL    HW245573   2.336   0.609   9.040  0.2237 -1.7521  1.2523
45215SOL     OW45574   6.022   7.355   2.507  0.8243 -0.0731  0.1602
45215SOL    HW145575   5.953   7.339   2.442  2.2595 -0.1672 -1.3992
45215SOL    HW245576   6.054   7.267   2.530  1.7282  0.0507 -0.5971
45216SOL     OW45577   6.710   2.460   2.611  0.1531  0.3112  0.2128
45216SOL    HW145578   6.801   2.456   2.640  0.7968  0.1891 -1.6924
45216SOL    HW245579   6.691   2.554   2.606  0.1711  0.3369  0.5960
45217SOL     OW45580   4.974   3.955   1.712  0.3267 -0.1114 -0.4700
45217SOL    HW145581   4.961   3.999   1.628 -0.8205 -1.6854 -1.1772
45217SOL    HW245582   4.893   3.972   1.760  1.0428  0.9143  0.4192
45218SOL     OW45583   8.150   9.439  12.391 -0.1366 -0.3201  0.1330
45218SOL    HW145584   8.107   9.450  12.306  0.2818 -1.7767 -0.2974
45218SOL    HW245585   8.105   9.365  12.431  0.7177 -0.6610  0.4865
45219SOL     OW45586  12.260   0.231   5.590  0.4275  0.2289  0.0161
45219SOL    HW145587  12.197   0.302   5.589  0.2132  0.1233  1.9282
45219SOL    HW245588  12.313   0.246   5.669  1.2414 -0.9851 -0.2567
45220SOL     OW45589   4.209   8.817   2.763  0.1524  0.1390 -0.1352
45220SOL    HW145590   4.193   8.843   2.854 -0.4405  1.5481 -0.6067
45220SOL    HW245591   4.213   8.900   2.715  0.9691 -0.5571 -1.3176
45221SOL     OW45592   0.887  10.861  10.091  0.4993 -0.5040  0.1513
45221SOL    HW145593   0.847  10.793  10.145  0.6777  0.0828  1.0320
45221SOL    HW245594   0.977  10.830  10.078  0.6673 -0.3036  0.7973
45222SOL     OW45595  10.048   9.879   8.389  0.3182  0.0816  0.0135
45222SOL    HW145596  10.077   9.830   8.465  0.7291  0.7202  0.2827
45222SOL    HW245597  10.115   9.946   8.377  0.3279 -0.0935 -0.9934
45223SOL     OW45598   8.582   4.779   4.077  0.4178 -0.6279  0.1313
45223SOL    HW145599   8.629   4.849   4.123  1.2762 -1.4595  0.5620
45223SOL    HW245600   8.518   4.747   4.140  1.7705 -1.9442  0.9066
45224SOL     OW45601   2.126  10.273   4.996  0.1946  0.6019  0.2319
45224SOL    HW145602   2.079  10.212   4.939 -0.6594  0.0819  1.4555
45224SOL    HW245603   2.202  10.224   5.028  0.5843  0.8411 -0.3063
45225SOL     OW45604   8.245   5.305   5.340  0.2926 -0.1120  0.0126
45225SOL    HW145605   8.190   5.306   5.419 -0.4982 -2.1312 -0.4500
45225SOL    HW245606   8.226   5.389   5.297 -3.4475 -1.1377 -0.7283
45226SOL     OW45607   5.073   3.184  11.586 -0.2697  0.1811 -0.0553
45226SOL    HW145608   5.021   3.122  11.636  1.8994 -1.3806  0.3643
45226SOL    HW245609   5.015   3.210  11.514 -1.7703 -1.1239  0.6120
45227SOL     OW45610   9.184  11.578  12.725 -0.3162 -0.4238  0.0825
45227SOL    HW145611   9.188  11.671  12.745 -0.8711 -0.5432  0.8380
45227SOL    HW245612   9.098  11.565  12.684  0.5119 -0.3127 -1.7529
45228SOL     OW45613   5.688   5.690   1.728  0.2130 -0.0998  0.0207
45228SOL    HW145614   5.676   5.738   1.810 -1.0314  2.2137 -1.4014
45228SOL    HW245615   5.782   5.692   1.713  0.2093  2.6423 -0.2821
45229SOL     OW45616  11.128   4.246   8.286 -0.1987  0.1956 -0.3484
45229SOL    HW145617  11.054   4.269   8.230 -0.0307  2.0392  0.1126
45229SOL    HW245618  11.205   4.273   8.236 -0.0121  1.1333  0.4088
45230SOL     OW45619   2.960  10.815   6.953  0.3645 -0.0786 -0.0648
45230SOL    HW145620   2.896  10.821   7.024 -0.8700 -0.2327 -1.1237
45230SOL    HW245621   3.012  10.737   6.973 -1.0769 -1.1139 -0.1802
45231SOL     OW45622   2.145   3.373   3.169  0.1447 -0.0731 -0.0298
45231SOL    HW145623   2.121   3.408   3.255 -1.6105  0.4408 -0.6946
45231SOL    HW245624   2.073   3.315   3.145 -0.3459  1.2474 -1.9559
45232SOL     OW45625   9.012   7.403   1.499 -0.7072 -0.3965  0.0813
45232SOL    HW145626   9.082   7.342   1.475  1.5357  2.3390 -0.9427
45232SOL    HW245627   8.986   7.444   1.417 -2.0428  0.1591  0.7424
45233SOL     OW45628   2.087   0.013   6.902  0.4052  0.6810 -0.0390
45233SOL    HW145629   2.120   0.060   6.825  0.2195 -1.2101 -1.3222
45233SOL    HW245630   1.994   0.034   6.905 -0.1166 -1.1069 -1.8155
45234SOL     OW45631   2.622   8.124   0.620 -0.1957 -0.0395 -0.1340
45234SOL    HW145632   2.685   8.058   0.650 -0.5472 -0.0247  0.6560
45234SOL    HW245633   2.539   8.077   0.615 -0.9137  0.7987  2.5380
45235SOL     OW45634   1.821   7.213   1.002 -0.2710 -0.2653  0.3767
45235SOL    HW145635   1.753   7.215   0.935  1.0894 -0.9644 -1.0895
45235SOL    HW245636   1.775   7.189   1.082 -2.0212  1.0403 -0.1637
45236SOL     OW45637  13.245   7.997   6.162  0.4435  0.1354 -0.4230
45236SOL    HW145638  13.227   7.918   6.110 -0.3107  0.1777 -0.2414
45236SOL    HW245639  13.320   7.973   6.217 -0.1690 -0.6755  0.0830
45237SOL     OW45640   8.837   5.707   0.608  0.3380  0.2281 -0.2119
45237SOL    HW145641   8.820   5.677   0.519 -0.8516  2.0024 -0.6322
45237SOL    HW245642   8.751   5.734   0.641  1.0926  1.7311  0.6363
45238SOL     OW45643  11.588   3.558   9.652 -0.6572  0.4761 -0.0534
45238SOL    HW145644  11.547   3.609   9.582  0.7135 -0.3907 -1.5450
45238SOL    HW245645  11.527   3.488   9.670 -1.1485  0.8710 -0.1687
45239SOL     OW45646   8.908  11.660   7.690 -0.2307  0.1547  0.1412
45239SOL    HW145647   8.955  11.656   7.607  0.7520  1.5487  0.5846
45239SOL    HW245648   8.888  11.753   7.701 -0.6982 -0.0638  1.2785
45240SOL     OW45649   8.894   8.680  11.681  0.0951  0.5134 -0.3183
45240SOL    HW145650   8.881   8.733  11.603 -1.6692 -0.8344 -1.0168
45240SOL    HW245651   8.814   8.692  11.732  0.9765  0.9097  1.0305
45241SOL     OW45652   7.230  11.452  11.377 -0.3305 -0.1916 -0.1780
45241SOL    HW145653   7.153  11.488  11.333  0.2529 -1.1196 -2.1076
45241SOL    HW245654   7.291  11.433  11.305  1.2905 -0.4283  1.2065
45242SOL     OW45655  11.451   4.889   4.360  0.6515 -0.0700 -0.2701
45242SOL    HW145656  11.476   4.799   4.338 -2.8463 -1.3126  0.0633
45242SOL    HW245657  11.397   4.917   4.286 -2.0266 -0.0755  1.5406
45243SOL     OW45658   9.529   0.531   2.317 -0.1445 -0.0486  0.8245
45243SOL    HW145659   9.615   0.561   2.347  0.1187  1.1078 -0.9418
45243SOL    HW245660   9.470   0.549   2.391  1.1241 -1.1193  2.1663
45244SOL     OW45661   3.785   5.772  12.378 -0.2236 -0.3805 -0.4303
45244SOL    HW145662   3.782   5.723  12.295  0.3600  1.0681 -1.3420
45244SOL    HW245663   3.871   5.752  12.414 -0.4763 -1.0105 -0.1532
45245SOL     OW45664   1.426   6.191   2.244 -0.3453 -0.2390  0.3252
45245SOL    HW145665   1.425   6.107   2.197 -2.1220 -0.0690  0.0091
45245SOL    HW245666   1.340   6.197   2.285 -0.5412  1.7756 -0.2757
45246SOL     OW45667  10.529   0.736   0.833 -0.4995  0.1730 -0.0910
45246SOL    HW145668  10.479   0.786   0.769 -1.5305 -1.2679 -0.4551
45246SOL    HW245669  10.596   0.691   0.782 -1.1949 -0.8184 -0.1528
45247SOL     OW45670   5.916   1.035   5.944 -0.5059 -0.2355  0.4362
45247SOL    HW145671   5.869   1.111   5.911 -0.7981 -0.8739 -0.6840
45247SOL    HW245672   5.929   1.053   6.037 -1.2594  0.8172  0.3567
45248SOL     OW45673   8.042   4.409   6.750 -0.5299 -0.0020  0.0575
45248SOL    HW145674   8.016   4.331   6.700  0.1924 -0.4196  0.3144
45248SOL    HW245675   8.125   4.384   6.792 -0.1493  1.0026 -0.0747
45249SOL     OW45676  10.581  12.132   3.483 -0.6411 -0.5169  0.0046
45249SOL    HW145677  10.514  12.074   3.449  0.1123 -2.2236  1.2953
45249SOL    HW245678  10.658  12.115   3.428 -0.3957 -0.8067  0.4341
45250SOL     OW45679   8.899   0.770  11.091 -0.1461  0.4062 -0.1934
45250SOL    HW145680   8.805   0.774  11.072 -0.1109 -2.7495 -1.8150
45250SOL    HW245681   8.938   0.835  11.034 -1.2795  1.2164 -0.0787
45251SOL     OW45682   4.482   5.321   3.242 -0.0685 -0.2281  0.0521
45251SOL    HW145683   4.493   5.298   3.335  0.5133 -1.0254 -0.2010
45251SOL    HW245684   4.529   5.403   3.231 -1.5412  0.7586  0.8191
45252SOL     OW45685   9.932  11.158   9.935  0.3850 -0.8617  0.2002
45252SOL    HW145686   9.911  11.224  10.000  1.0080 -1.1631  0.7112
45252SOL    HW245687   9.949  11.207   9.855 -0.6148 -0.5066  0.1946
45253SOL     OW45688   3.066   6.865   1.275 -0.2334  0.3300  0.3521
45253SOL    HW145689   3.114   6.854   1.193  1.2727  1.9873  0.9617
45253SOL    HW245690   2.975   6.881   1.248 -0.1494 -1.0026 -0.8820
45254SOL     OW45691   9.601   1.794   3.316 -0.6164  0.3863 -0.8057
45254SOL    HW145692   9.634   1.842   3.392 -0.5699  0.0720 -0.6256
45254SOL    HW245693   9.632   1.844   3.240  1.1729 -0.4549 -0.6721
45255SOL     OW45694   7.268  12.580  12.571  0.2444 -0.1133  0.4044
45255SOL    HW145695   7.326  12.653  12.592  0.5218  0.1594 -1.1737
45255SOL    HW245696   7.219  12.610  12.494 -0.5804 -1.1008  0.5230
45256SOL     OW45697   5.858   0.855  12.821 -0.0202 -0.2874  0.5973
45256SOL    HW145698   5.803   0.916  12.771 -0.3693  1.6563  3.1634
45256SOL    HW245699   5.927   0.830  12.760 -1.7328  0.0112 -1.5928
45257SOL     OW45700   4.409   9.924   6.707 -0.0901 -0.0945  0.5811
45257SOL    HW145701   4.473   9.928   6.778 -0.9254 -1.5251  1.4738
45257SOL    HW245702   4.458   9.951   6.629  1.9039 -1.9783  1.0549
45258SOL     OW45703   7.848  11.605   3.352  0.2314 -0.3783 -0.5166
45258SOL    HW145704   7.921  11.585   3.410  0.1867  0.0659 -0.3040
45258SOL    HW245705   7.817  11.519   3.323  0.0085 -0.6294  0.4215
45259SOL     OW45706  11.036  11.636   6.833  0.2193 -0.3896 -0.3565
45259SOL    HW145707  11.029  11.698   6.905  0.4640 -1.6278  0.7631
45259SOL    HW245708  10.964  11.575   6.847  0.8878 -1.2466 -0.5510
45260SOL     OW45709   1.970   9.374   9.130 -0.0667 -0.3327 -0.0712
45260SOL    HW145710   2.063   9.365   9.150  0.0869  0.0658 -0.5755
45260SOL    HW245711   1.954   9.309   9.062 -0.2156 -0.5779  0.1990
45261SOL     OW45712   6.217   1.763   3.353  0.3313  0.7980  0.0539
45261SOL    HW145713   6.146   1.702   3.336 -1.6559  2.7872  0.7231
45261SOL    HW245714   6.211   1.828   3.283 -1.0562  3.0802  2.1137
45262SOL     OW45715   8.936   8.404  10.650  0.0869  0.1185  0.1816
45262SOL    HW145716   8.861   8.380  10.703 -0.6454 -0.4868 -1.0663
45262SOL    HW245717   8.914   8.372  10.562  1.3721  0.8060 -0.4207
45263SOL     OW45718   8.806   1.838  10.519  0.3252 -0.1888  0.0853
45263SOL    HW145719   8.838   1.922  10.553  0.2442  0.2584 -0.8984
45263SOL    HW245720   8.722   1.825  10.562 -1.0847  1.7002 -1.8341
45264SOL     OW45721   7.289   4.962   2.908 -0.1352  0.0425  0.2982
45264SOL    HW145722   7.270   5.029   2.842  0.8846  0.0399 -0.0065
45264SOL    HW245723   7.230   4.890   2.886 -2.5610  1.4588  1.6996
45265SOL     OW45724   0.286   0.548   9.996 -0.1595  0.1913  0.0669
45265SOL    HW145725   0.232   0.478  10.032 -0.4022 -0.6213 -1.7613
45265SOL    HW245726   0.229   0.593   9.934  0.3022  1.3806  0.4792
45266SOL     OW45727   0.093   0.827   7.643  0.5561 -0.3158  0.2603
45266SOL    HW145728   0.007   0.864   7.662  0.2843 -0.8312  0.0489
45266SOL    HW245729   0.115   0.776   7.722 -0.3986 -2.1319 -0.5832
45267SOL     OW45730   4.367   1.819  11.382  0.0482 -0.3596 -0.6395
45267SOL    HW145731   4.340   1.731  11.409  0.2863 -0.3803 -0.4675
45267SOL    HW245732   4.316   1.878  11.439  0.4140 -0.4002 -0.2646
45268SOL     OW45733   7.992   0.707  11.499 -0.5317 -0.0464  0.1829
45268SOL    HW145734   7.949   0.735  11.419  1.4321  0.3774 -0.7997
45268SOL    HW245735   7.941   0.747  11.569 -1.8475  0.2057 -0.8693
45269SOL     OW45736   8.026  11.433  11.415  0.1980 -0.3115  0.3886
45269SOL    HW145737   8.101  11.471  11.369  0.5472 -1.0983  0.3045
45269SOL    HW245738   8.063  11.383  11.487 -0.2867 -0.1728  0.7491
45270SOL     OW45739  12.435  10.905  12.166 -0.1137  0.3802 -0.0866
45270SOL    HW145740  12.453  10.982  12.112  2.3104  0.8209  1.2125
45270SOL    HW245741  12.468  10.927  12.252 -3.8203 -0.3229  1.7259
45271SOL     OW45742   7.527   1.132  12.174  0.1057  0.1074  0.3520
45271SOL    HW145743   7.557   1.049  12.213 -0.9774 -0.3206  0.3078
45271SOL    HW245744   7.481   1.105  12.094  3.1070  1.0095 -1.8642
45272SOL     OW45745   0.440   1.095   9.055  0.0472  0.1044  0.3172
45272SOL    HW145746   0.496   1.157   9.009  0.6342 -0.8371 -0.2680
45272SOL    HW245747   0.499   1.048   9.113  0.4160 -2.5934 -2.0489
45273SOL     OW45748  12.709   4.922   5.995 -0.2764  0.0334  0.3058
45273SOL    HW145749  12.675   4.948   5.909 -0.8343  0.1138  0.5464
45273SOL    HW245750  12.658   4.975   6.057  0.2284  0.0852  0.6780
45274SOL     OW45751  13.200  11.993   4.587 -0.1656  0.1516  0.4856
45274SOL    HW145752  13.274  12.006   4.528 -0.8646  0.4446 -0.3419
45274SOL    HW245753  13.198  12.073   4.641 -0.3436  0.4968 -0.0208
45275SOL     OW45754   7.107   0.339   6.713 -0.2661 -0.5410  0.3681
45275SOL    HW145755   7.176   0.288   6.671 -2.3042 -0.8977 -2.9025
45275SOL    HW245756   7.119   0.428   6.679 -0.8814 -0.4053  0.4901
45276SOL     OW45757  12.679  10.487  11.695 -0.5249 -0.0749 -0.6132
45276SOL    HW145758  12.736  10.411  11.680  0.1551  0.0960  0.9025
45276SOL    HW245759  12.703  10.518  11.782 -2.3301  0.5608 -0.3016
45277SOL     OW45760   5.604   2.247   9.114  0.4250 -0.1652  0.4263
45277SOL    HW145761   5.637   2.197   9.039  1.1286  1.1710 -0.1953
45277SOL    HW245762   5.513   2.266   9.092  0.4079 -0.4369  0.2597
45278SOL     OW45763   0.446   7.873  12.035  0.4245 -0.3178 -0.2192
45278SOL    HW145764   0.488   7.833  12.111 -0.7035 -0.5066  0.3134
45278SOL    HW245765   0.502   7.948  12.014  2.0150 -1.5494 -0.6226
45279SOL     OW45766   1.651   3.899   1.521  0.0639  0.3669 -0.8917
45279SOL    HW145767   1.558   3.913   1.502 -0.7019  0.1726  2.1848
45279SOL    HW245768   1.668   3.809   1.493 -1.5917 -0.7137  1.2247
45280SOL     OW45769  12.391   4.126   1.566 -0.2647  0.1468  0.1091
45280SOL    HW145770  12.411   4.219   1.578 -1.0550  0.3538 -0.1474
45280SOL    HW245771  12.365   4.119   1.474  0.0149 -0.3719  0.0674
45281SOL     OW45772   3.293   9.764   4.619  0.2286 -0.0832 -0.0711
45281SOL    HW145773   3.357   9.829   4.648 -0.4290  0.7025 -0.3553
45281SOL    HW245774   3.274   9.713   4.698 -0.7476  1.3529  0.6449
45282SOL     OW45775   9.818  10.537   4.320 -0.2437  0.0026  0.0861
45282SOL    HW145776   9.769  10.489   4.387 -1.3700 -0.3702 -0.9736
45282SOL    HW245777   9.764  10.613   4.300  0.2705  0.3131 -0.1251
45283SOL     OW45778   2.007   2.236   2.792 -0.2576 -0.2908 -0.2095
45283SOL    HW145779   2.081   2.193   2.748  1.3048  1.3020  0.6935
45283SOL    HW245780   1.991   2.182   2.869  1.2118  0.2822  0.5454
45284SOL     OW45781  13.046  10.252   7.025 -0.3336  0.0624 -0.0618
45284SOL    HW145782  13.105  10.235   6.951 -0.1176 -0.9485  0.3326
45284SOL    HW245783  12.968  10.198   7.006  0.3841 -1.5123  1.2333
45285SOL     OW45784   0.291   9.255  12.805  0.2510  0.3930 -0.4146
45285SOL    HW145785   0.221   9.319  12.787  0.6770  0.8098 -0.6254
45285SOL    HW245786   0.246   9.171  12.811 -0.2141  0.5889 -1.0291
45286SOL     OW45787   6.826   3.607  11.223  0.0864  0.3656 -0.3113
45286SOL    HW145788   6.755   3.671  11.220 -1.4669 -0.8977  3.3079
45286SOL    HW245789   6.905   3.660  11.233 -0.7780  1.7604 -0.5253
45287SOL     OW45790  12.826   8.423   2.440  0.5185 -0.5115 -0.0349
45287SOL    HW145791  12.846   8.487   2.372  1.1154 -0.9756 -0.3002
45287SOL    HW245792  12.730   8.426   2.448  0.5004  0.0224 -0.4229
45288SOL     OW45793  12.191   9.900   8.418 -0.3879  0.0006 -0.6498
45288SOL    HW145794  12.140   9.843   8.361 -0.8004  0.9311 -1.2234
45288SOL    HW245795  12.281   9.869   8.408 -0.5307 -0.1963 -1.3872
45289SOL     OW45796   5.765   0.713   1.762  0.2202 -0.0802 -0.5698
45289SOL    HW145797   5.808   0.629   1.778  0.8622  0.0422 -1.5284
45289SOL    HW245798   5.672   0.693   1.763  0.3686 -0.8205 -0.8323
45290SOL     OW45799   0.134   4.773   9.711  0.5908 -0.1309  0.6916
45290SOL    HW145800   0.095   4.686   9.712  0.0721  0.0000 -1.8296
45290SOL    HW245801   0.059   4.833   9.707  0.8986  0.2117 -1.6769
45291SOL     OW45802   2.122  10.855  12.057  0.3436  0.8625  0.3805
45291SOL    HW145803   2.122  10.761  12.074 -0.1405  0.5311 -1.2558
45291SOL    HW245804   2.194  10.889  12.109  2.1855 -0.8225 -0.9210
45292SOL     OW45805   9.905   9.694  11.375 -0.1541  0.5340 -0.5853
45292SOL    HW145806   9.823   9.720  11.332 -0.3451 -2.1085 -2.0412
45292SOL    HW245807   9.966   9.678  11.303  0.1130 -2.2233  0.1671
45293SOL     OW45808   7.606  12.399   6.320 -0.0223 -0.4353 -0.6549
45293SOL    HW145809   7.692  12.440   6.321 -0.3719  0.3120  0.6070
45293SOL    HW245810   7.619  12.317   6.368  0.0446 -0.4672 -0.7270
45294SOL     OW45811  12.445   5.290  11.496 -0.0392  0.1689  0.2253
45294SOL    HW145812  12.504   5.215  11.490  0.3822  0.2486  2.5606
45294SOL    HW245813  12.502   5.365  11.510 -0.5851  0.3122  1.9942
45295SOL     OW45814  10.272  10.451  11.747  0.6445  0.1446  0.1618
45295SOL    HW145815  10.216  10.374  11.763 -0.4461  0.4599 -1.8661
45295SOL    HW245816  10.317  10.465  11.831 -2.0526 -0.3331  1.8342
45296SOL     OW45817  10.734  12.629   7.750  0.3225 -0.0188 -0.1584
45296SOL    HW145818  10.747  12.569   7.676 -0.8035 -1.0287  0.4332
45296SOL    HW245819  10.705  12.711   7.710 -1.7203 -0.9958 -0.7827
45297SOL     OW45820   3.208   4.563   1.077 -0.7258  0.8321 -0.3063
45297SOL    HW145821   3.153   4.488   1.098  0.7275 -0.0307  0.5919
45297SOL    HW245822   3.204   4.619   1.154  0.0458  0.4984 -0.0086
45298SOL     OW45823   8.935  12.448   4.796  0.0278 -0.4270 -0.1680
45298SOL    HW145824   9.019  12.418   4.831  0.3136  1.3303  0.7674
45298SOL    HW245825   8.908  12.518   4.856 -1.1656  0.3281 -1.5275
45299SOL     OW45826   4.407  12.778   9.535  0.0660 -0.6845 -0.0785
45299SOL    HW145827   4.429  12.856   9.586  1.0783 -0.4730 -0.8009
45299SOL    HW245828   4.352  12.809   9.464 -0.1888 -0.7617  0.0820
45300SOL     OW45829   1.017   7.457   6.521 -0.3927 -0.5665  0.3145
45300SOL    HW145830   1.038   7.539   6.566 -0.2109 -0.2580 -0.3355
45300SOL    HW245831   1.030   7.390   6.589  2.7826 -0.4299  0.0101
45301SOL     OW45832   5.968   8.525   7.943 -0.3539 -0.0933 -0.3975
45301SOL    HW145833   5.899   8.588   7.922 -0.9743 -0.1488  1.3398
45301SOL    HW245834   5.946   8.494   8.031  0.2395 -2.3395 -0.9808
45302SOL     OW45835  10.245   9.410  12.255  0.0998  0.2279 -0.1973
45302SOL    HW145836  10.156   9.375  12.255  0.4843 -0.8174 -1.5432
45302SOL    HW245837  10.283   9.375  12.336 -0.5469  0.2736  0.1391
45303SOL     OW45838   2.813   4.114   1.301  0.0432  0.5988 -0.1488
45303SOL    HW145839   2.903   4.081   1.307 -0.0717  0.3128 -0.0132
45303SOL    HW245840   2.758   4.036   1.303 -0.1150  0.5267 -2.9698
45304SOL     OW45841   9.171   2.365  10.447 -0.0491 -0.5286  0.9352
45304SOL    HW145842   9.126   2.425  10.387 -1.3849 -0.1835  2.2150
45304SOL    HW245843   9.183   2.285  10.397  0.1405  0.2133 -0.2382
45305SOL     OW45844   7.139   8.747   4.101 -0.6248  0.3448  0.5572
45305SOL    HW145845   7.220   8.710   4.135 -1.1913 -1.9646 -0.4547
45305SOL    HW245846   7.167   8.810   4.035  0.3483  0.9007  1.4647
45306SOL     OW45847   2.711   1.618   8.470  0.6581 -0.4470  0.1431
45306SOL    HW145848   2.755   1.647   8.390  0.6692 -2.0761 -0.4816
45306SOL    HW245849   2.782   1.605   8.532  0.5829  1.5985  0.7217
45307SOL     OW45850  12.587   9.626  13.222 -0.6722 -0.3327  0.3798
45307SOL    HW145851  12.599   9.542  13.266  0.6253 -0.6692 -0.5652
45307SOL    HW245852  12.673   9.668  13.226 -0.9823  0.3921 -0.2753
45308SOL     OW45853   2.160   7.299  11.576  0.0719 -0.5172 -0.2950
45308SOL    HW145854   2.083   7.247  11.552 -1.4209  0.6902  1.5635
45308SOL    HW245855   2.193   7.259  11.656  0.5747 -0.2298 -0.3484
45309SOL     OW45856   4.283   9.868   4.387  0.4439 -0.6612  0.2430
45309SOL    HW145857   4.269   9.828   4.301 -1.8008 -0.7112  0.5803
45309SOL    HW245858   4.198   9.863   4.430  1.2110  0.5100  2.0006
45310SOL     OW45859  11.021   3.918   4.633 -0.5808  0.6190 -0.0117
45310SOL    HW145860  10.968   3.840   4.649  2.4458 -1.7524 -0.7446
45310SOL    HW245861  11.042   3.951   4.720 -0.3403 -0.5166  0.3687
45311SOL     OW45862  12.618  12.341   9.379  0.1905  0.1620  0.4640
45311SOL    HW145863  12.566  12.319   9.301  0.6826  1.4514 -0.2673
45311SOL    HW245864  12.643  12.256   9.416 -0.5155 -0.4763 -0.4661
45312SOL     OW45865   4.848   4.292   9.503 -0.9982  0.4849  0.3565
45312SOL    HW145866   4.893   4.218   9.462  0.7811  2.2279 -0.9917
45312SOL    HW245867   4.776   4.251   9.551 -0.8474 -2.0136 -1.3239
45313SOL     OW45868   6.337  12.241  12.755  0.0049 -0.1337 -0.1737
45313SOL    HW145869   6.309  12.234  12.846 -0.5673 -0.8759 -0.3896
45313SOL    HW245870   6.374  12.329  12.747 -0.6169  0.2031  0.5859
45314SOL     OW45871   1.303   9.233   6.712  0.8089 -0.0547  0.0642
45314SOL    HW145872   1.225   9.193   6.673 -0.1995  1.4788  0.4307
45314SOL    HW245873   1.335   9.292   6.644  1.4775 -0.4381  0.0410
45315SOL     OW45874   9.045   7.835   8.877 -0.2636 -0.5235  0.1129
45315SOL    HW145875   9.041   7.766   8.811 -1.7808 -0.4689  0.1241
45315SOL    HW245876   8.979   7.811   8.941  0.9486 -0.3936  1.4633
45316SOL     OW45877   8.880  13.054  11.770 -0.1347 -0.3089  0.1208
45316SOL    HW145878   8.849  13.058  11.680 -0.2933  0.3091  0.2003
45316SOL    HW245879   8.887  13.145  11.798  0.9991 -0.4607  0.3741
45317SOL     OW45880  11.483   9.065   2.232  0.0300 -0.0156 -0.0038
45317SOL    HW145881  11.562   9.118   2.237  0.4536 -0.6794  0.3742
45317SOL    HW245882  11.511   8.977   2.257 -0.7833 -0.2990 -0.0653
45318SOL     OW45883   8.188   2.163  12.755 -0.6879  0.0114 -0.0218
45318SOL    HW145884   8.160   2.114  12.832 -1.5176  0.9290  0.2753
45318SOL    HW245885   8.240   2.235  12.789 -0.3551 -0.0486 -0.3870
45319SOL     OW45886   3.457   2.178   8.792 -0.0242  0.3199  0.3944
45319SOL    HW145887   3.528   2.241   8.801  0.2716  0.1102 -0.4344
45319SOL    HW245888   3.413   2.179   8.877  1.9099 -0.7121  1.4480
45320SOL     OW45889   2.396  10.329   9.064  0.3994 -0.1755  0.3606
45320SOL    HW145890   2.426  10.325   9.155 -2.7232  1.2723  1.6111
45320SOL    HW245891   2.367  10.420   9.053 -1.4244 -0.8984 -1.3131
45321SOL     OW45892   8.551   6.030   1.083  0.4941 -0.1148 -0.0600
45321SOL    HW145893   8.628   6.032   1.027  1.1587 -1.3354  0.7655
45321SOL    HW245894   8.574   6.086   1.158  0.7486 -0.8025  0.3822
45322SOL     OW45895  11.805   9.372   9.415  0.3051 -0.2650 -0.6781
45322SOL    HW145896  11.858   9.292   9.415 -0.5021 -0.8074 -0.7865
45322SOL    HW245897  11.774   9.379   9.325  0.6320  0.3512 -0.7449
45323SOL     OW45898   6.487   3.416   4.505  0.0395 -0.5697  0.2032
45323SOL    HW145899   6.514   3.460   4.586  1.3550 -0.7818 -0.1019
45323SOL    HW245900   6.541   3.337   4.501  1.2838  0.2802 -1.7109
45324SOL     OW45901   5.488   1.767   6.563 -0.2883 -0.2281  0.2232
45324SOL    HW145902   5.503   1.690   6.509 -0.9094  0.0763 -0.4024
45324SOL    HW245903   5.439   1.734   6.638  0.5796 -0.6533  0.6172
45325SOL     OW45904   1.024  12.159   4.695  0.8865  0.1503  0.2631
45325SOL    HW145905   0.981  12.143   4.780 -0.3010  1.3266 -0.0739
45325SOL    HW245906   1.108  12.199   4.718  1.3420 -1.1268  0.9139
45326SOL     OW45907   0.278  12.455   2.429  0.1167 -0.0662 -0.2731
45326SOL    HW145908   0.342  12.524   2.447  0.1735 -0.5325  1.4884
45326SOL    HW245909   0.223  12.491   2.359 -1.1036  2.6339  1.8834
45327SOL     OW45910   3.031   3.573   6.479 -0.4981  0.4562  0.2556
45327SOL    HW145911   2.992   3.607   6.560 -2.0701 -0.7858  0.0667
45327SOL    HW245912   2.957   3.562   6.419 -0.1019 -2.8801  0.1768
45328SOL     OW45913   2.200  12.263   8.484  0.3856  0.7225 -0.3974
45328SOL    HW145914   2.288  12.278   8.450  0.9228 -1.8852 -0.3977
45328SOL    HW245915   2.207  12.182   8.535 -1.5863  1.5778  1.4023
45329SOL     OW45916   4.325   6.673   6.994 -0.2133 -0.3046 -0.0516
45329SOL    HW145917   4.296   6.651   7.083  0.5331 -1.2666 -0.0243
45329SOL    HW245918   4.313   6.768   6.988  2.1036  0.2368  2.0030
45330SOL     OW45919  11.037   0.682   8.840 -0.2564 -0.6177  0.4890
45330SOL    HW145920  10.946   0.699   8.814 -0.7164 -2.7326  0.5862
45330SOL    HW245921  11.036   0.689   8.935  0.6866  3.6233  0.3781
45331SOL     OW45922  10.364   9.373  11.750 -0.1392 -0.7657 -0.1898
45331SOL    HW145923  10.363   9.388  11.845  1.5569 -1.7819  0.0248
45331SOL    HW245924  10.286   9.419  11.718 -0.2272  0.4111  1.5626
45332SOL     OW45925   4.998  13.058  12.754 -0.3485  0.2705 -0.0927
45332SOL    HW145926   5.046  13.098  12.826  0.0622  1.5791 -1.0575
45332SOL    HW245927   4.927  13.119  12.736  0.2282  0.5674 -1.5240
45333SOL     OW45928  10.056  13.226   7.388 -0.0544  0.1953  0.4931
45333SOL    HW145929   9.978  13.178   7.416  1.3572 -1.5651  1.6312
45333SOL    HW245930  10.127  13.189   7.441  1.4103  2.4230  0.2010
45334SOL     OW45931   4.848   1.844   6.733  0.2091  0.0567  0.1599
45334SOL    HW145932   4.910   1.910   6.701  1.3671 -0.9249  0.3116
45334SOL    HW245933   4.765   1.891   6.740  0.7518  1.2203 -0.7821
45335SOL     OW45934   2.363   1.400  12.346 -0.3527  0.1101 -0.1534
45335SOL    HW145935   2.419   1.379  12.271  0.8565 -1.3137  1.0676
45335SOL    HW245936   2.343   1.315  12.385  0.0692  0.8518  1.8159
45336SOL     OW45937   1.995   0.125   8.613 -0.1860  0.5485  0.0472
45336SOL    HW145938   2.081   0.165   8.596 -0.7040  1.1878 -1.1401
45336SOL    HW245939   2.015   0.049   8.668  0.9366  1.8169  1.5076
45337SOL     OW45940   5.098   5.324   1.787 -0.6078 -0.0200 -0.3853
45337SOL    HW145941   5.042   5.292   1.858 -0.6645  0.1456 -0.3551
45337SOL    HW245942   5.090   5.258   1.719  0.8504 -1.0961  0.4503
45338SOL     OW45943   2.279   0.252   0.027  0.4211 -0.0357  0.0461
45338SOL    HW145944   2.288   0.161  -0.000 -0.4306 -0.4241  0.9962
45338SOL    HW245945   2.325   0.302  -0.040 -0.0272 -1.0802 -1.0757
45339SOL     OW45946   4.483   5.226   1.709  0.7130  0.3478 -0.3411
45339SOL    HW145947   4.574   5.196   1.713  0.5166 -0.1275  1.4362
45339SOL    HW245948   4.458   5.239   1.801 -1.2026 -0.1228 -0.7592
45340SOL     OW45949   5.025   6.885   9.347  0.2188  0.2082  0.1759
45340SOL    HW145950   5.086   6.894   9.274  0.7016 -0.7569  0.4456
45340SOL    HW245951   5.058   6.810   9.397 -1.4481 -0.6370  0.0811
45341SOL     OW45952   7.996  10.270   7.707 -0.0542  0.2399 -0.2033
45341SOL    HW145953   7.987  10.205   7.638 -0.3323 -0.1186  0.1603
45341SOL    HW245954   8.044  10.225   7.777  1.5724  1.0757 -0.7542
45342SOL     OW45955   8.708   4.271   2.173  0.1252  0.2782  0.1731
45342SOL    HW145956   8.783   4.251   2.230 -1.7953 -0.2415  2.7205
45342SOL    HW245957   8.639   4.296   2.234 -1.7442  0.9465 -2.0911
45343SOL     OW45958  13.231   2.933  10.122  0.0648 -0.2819  0.2712
45343SOL    HW145959  13.235   3.022  10.156  2.0624  1.0271 -2.8846
45343SOL    HW245960  13.321   2.900  10.130 -0.1820 -1.2063 -0.5255
45344SOL     OW45961   7.605   8.495  11.426 -0.4193  0.0566 -0.0676
45344SOL    HW145962   7.683   8.466  11.474 -1.2146 -2.2565 -0.0483
45344SOL    HW245963   7.634   8.501  11.335 -0.2401 -1.0080 -0.0942
45345SOL     OW45964   2.488  12.491   7.107 -0.3079  0.3702 -0.0358
45345SOL    HW145965   2.485  12.405   7.148  2.2963  0.7447  1.1838
45345SOL    HW245966   2.459  12.476   7.017  0.2891 -1.8393  0.0770
45346SOL     OW45967   9.328  12.718  10.410 -0.0650 -0.4369 -0.2807
45346SOL    HW145968   9.368  12.668  10.339  1.6998  0.0038  0.3576
45346SOL    HW245969   9.393  12.784  10.433 -1.3810  0.6520  0.4856
45347SOL     OW45970   9.846  10.275   4.881  0.3096  0.4977 -0.4961
45347SOL    HW145971   9.807  10.192   4.910  0.6844  0.2664 -0.6423
45347SOL    HW245972   9.909  10.297   4.950 -0.4422  1.1463  0.0066
45348SOL     OW45973   4.344   4.147   1.516  0.4202  0.6051 -0.2938
45348SOL    HW145974   4.379   4.237   1.518  0.4240  0.6213  1.6395
45348SOL    HW245975   4.417   4.093   1.546 -0.2587  0.2653  0.7991
45349SOL     OW45976  10.327   4.431   4.060 -0.0536 -0.5805  0.2682
45349SOL    HW145977  10.323   4.522   4.030  1.2329 -0.7618 -0.5374
45349SOL    HW245978  10.280   4.381   3.994 -1.3940 -0.4382  1.0857
45350SOL     OW45979   0.623   0.634  12.776 -0.2563  0.1806  0.3208
45350SOL    HW145980   0.620   0.539  12.788 -1.0612  0.2242  0.5885
45350SOL    HW245981   0.669   0.666  12.854 -0.6399  0.0542  0.6078
45351SOL     OW45982  10.471   4.112  13.052  0.6687  0.3497  0.1037
45351SOL    HW145983  10.499   4.194  13.092 -1.1990  1.3118 -0.4457
45351SOL    HW245984  10.383   4.130  13.019  0.1633 -1.9105  0.0447
45352SOL     OW45985  11.508   4.838  10.267  0.0030  0.0440  0.0986
45352SOL    HW145986  11.439   4.902  10.284  0.0855  0.1201  0.1439
45352SOL    HW245987  11.468   4.753  10.287  0.0826  0.1268  0.6049
45353SOL     OW45988  11.303   5.931  12.114  0.7946 -0.2263 -0.0200
45353SOL    HW145989  11.362   5.955  12.186  0.0940 -0.3032  0.5959
45353SOL    HW245990  11.230   5.887  12.157  0.4461 -0.4278 -0.8041
45354SOL     OW45991   5.584   7.007   9.816 -0.0511 -0.1278 -0.8025
45354SOL    HW145992   5.598   7.028   9.908 -1.5675  1.4362 -0.8618
45354SOL    HW245993   5.603   6.914   9.809 -0.5674 -0.4343  1.2437
45355SOL     OW45994   1.709   4.585   4.300  0.8970 -0.3355  0.5559
45355SOL    HW145995   1.642   4.580   4.368  0.4456 -0.4632  0.1035
45355SOL    HW245996   1.791   4.568   4.347  0.3860 -2.7427  0.7232
45356SOL     OW45997   3.554  10.904  10.412  0.9052  0.0059 -0.2363
45356SOL    HW145998   3.537  10.882  10.321 -1.6564 -0.8840  0.3701
45356SOL    HW245999   3.585  10.823  10.451  0.2600 -0.1208  0.0351
45357SOL     OW46000  12.512   1.415   6.910 -0.0347 -0.6529 -0.0445
45357SOL    HW146001  12.532   1.505   6.935 -1.6576 -0.5570  1.0545
45357SOL    HW246002  12.539   1.363   6.986  2.5595 -1.3839 -1.3359
45358SOL     OW46003   5.382   0.381  12.756  0.3266 -0.1007  0.0307
45358SOL    HW146004   5.300   0.333  12.738  0.0820 -0.1003  1.0356
45358SOL    HW246005   5.356   0.447  12.820  0.8872  0.6864 -0.5483
45359SOL     OW46006  11.186   8.507   8.051 -0.3742 -0.4759 -0.1912
45359SOL    HW146007  11.098   8.493   8.087 -0.5356  0.2727 -0.2880
45359SOL    HW246008  11.173   8.563   7.975  0.2046 -0.2173 -0.1082
45360SOL     OW46009  10.047   3.780  11.990  0.1849 -0.1372 -0.3207
45360SOL    HW146010  10.044   3.821  12.076  0.8296 -1.2968  0.2793
45360SOL    HW246011  10.052   3.853  11.928 -1.3522  0.7459  0.5532
45361SOL     OW46012   1.028  11.406   2.530 -0.1495  0.2799  0.1508
45361SOL    HW146013   0.933  11.395   2.532 -0.1386  0.1857  0.1307
45361SOL    HW246014   1.058  11.369   2.613  0.0631 -1.4543 -0.6451
45362SOL     OW46015   4.507   5.524  10.911 -0.3233 -0.0557 -0.9905
45362SOL    HW146016   4.504   5.429  10.908 -0.6097 -0.0236 -1.9780
45362SOL    HW246017   4.453   5.553  10.838 -2.3838  0.9177  0.8073
45363SOL     OW46018  10.485   9.884  13.293  0.3813 -0.4793  0.3563
45363SOL    HW146019  10.536   9.847  13.365  0.5240  0.6469  0.8675
45363SOL    HW246020  10.443   9.809  13.251  1.3076 -1.2785  0.8266
45364SOL     OW46021  11.316   4.267  12.386 -0.5850 -0.1688 -0.2750
45364SOL    HW146022  11.229   4.257  12.347 -0.8419 -0.9355  0.4535
45364SOL    HW246023  11.350   4.177  12.390  0.2996  0.1327 -0.6595
45365SOL     OW46024  11.082   9.646  12.089  0.0267 -0.3611 -0.2306
45365SOL    HW146025  11.126   9.567  12.058  0.1054 -1.0002  1.3844
45365SOL    HW246026  10.989   9.624  12.087  0.0678 -0.6384  0.5411
45366SOL     OW46027   9.206  10.903   2.383  0.2360  0.0403 -0.0657
45366SOL    HW146028   9.130  10.891   2.439  0.0407  1.6276  0.0280
45366SOL    HW246029   9.214  10.997   2.371  1.9462 -0.1040 -0.4097
45367SOL     OW46030   7.779   1.379   5.640 -0.1867 -0.2878  0.3430
45367SOL    HW146031   7.825   1.425   5.570  1.3095 -1.1011  0.7535
45367SOL    HW246032   7.806   1.425   5.720 -0.1843 -0.6781  0.5720
45368SOL     OW46033   1.037   9.315   2.757  0.5589  0.0412 -0.4138
45368SOL    HW146034   1.113   9.324   2.814  0.4633 -0.1876 -0.2474
45368SOL    HW246035   0.988   9.241   2.794 -0.5569  1.1404  0.4210
45369SOL     OW46036   5.876   7.418   4.939 -0.5009 -0.1307 -0.2963
45369SOL    HW146037   5.790   7.390   4.971 -0.4449  1.3703  1.2874
45369SOL    HW246038   5.938   7.386   5.005  0.1220 -0.6597 -1.1053
45370SOL     OW46039   7.585  10.487   6.972 -0.5539 -0.0019 -0.3779
45370SOL    HW146040   7.670  10.444   6.960 -0.5574 -0.2947  0.5801
45370SOL    HW246041   7.521  10.416   6.968 -0.6004 -0.0336  0.6931
45371SOL     OW46042   1.591   6.171   8.577  0.0209  0.2105  0.4375
45371SOL    HW146043   1.604   6.265   8.572  0.1899  0.1959  0.5556
45371SOL    HW246044   1.561   6.145   8.490  1.0577  0.2172  0.0654
45372SOL     OW46045   5.501   6.066   4.279 -0.0524  0.6883 -0.0962
45372SOL    HW146046   5.411   6.096   4.283 -0.0194  0.6820  0.7972
45372SOL    HW246047   5.494   5.971   4.268 -0.1740  0.4515  1.8037
45373SOL     OW46048  10.709   6.640   2.296  0.0414  0.3573 -0.5833
45373SOL    HW146049  10.649   6.566   2.307 -2.3164  2.0400 -1.3198
45373SOL    HW246050  10.764   6.615   2.221 -1.4627 -0.2335 -1.5438
45374SOL     OW46051   0.211   8.227   4.697 -0.3820 -0.1301  0.3440
45374SOL    HW146052   0.173   8.161   4.638 -0.2950 -0.0327  0.1777
45374SOL    HW246053   0.158   8.222   4.776  0.2403 -1.1038  0.7174
45375SOL     OW46054   3.000   1.043  12.287  0.1603 -0.1618  0.6359
45375SOL    HW146055   3.064   0.982  12.323 -0.3414  0.4038  2.5863
45375SOL    HW246056   3.042   1.129  12.293 -0.3554  0.0753  0.8807
45376SOL     OW46057   0.791   1.789   1.071  0.3185 -0.2805 -0.4708
45376SOL    HW146058   0.737   1.712   1.054 -1.0935  0.3762  0.8268
45376SOL    HW246059   0.856   1.760   1.135  0.5824 -0.6984 -0.9229
45377SOL     OW46060   8.842   9.544   9.519  0.3553 -0.3080 -0.5114
45377SOL    HW146061   8.894   9.471   9.553 -0.8056 -1.2372 -0.6507
45377SOL    HW246062   8.890   9.574   9.442  3.5614  2.4658  2.2287
45378SOL     OW46063   3.182   5.996   4.834  0.0553 -0.4540  0.5528
45378SOL    HW146064   3.276   5.979   4.832 -0.0409 -1.6784  3.0696
45378SOL    HW246065   3.166   6.035   4.920 -1.4798  1.8095 -0.6534
45379SOL     OW46066   0.920   2.808   1.780 -0.5201 -0.4185  0.2501
45379SOL    HW146067   0.843   2.856   1.748 -1.2101 -1.1471  0.7935
45379SOL    HW246068   0.988   2.875   1.787 -1.4432  0.4912  0.9343
45380SOL     OW46069  11.279   3.890   2.319  0.0964  0.2704 -0.3649
45380SOL    HW146070  11.261   3.852   2.232 -1.1037 -0.0376 -0.0013
45380SOL    HW246071  11.265   3.818   2.380 -0.7475  0.9079  0.2210
45381SOL     OW46072   7.591   9.625  12.642 -0.7337  0.0472 -0.0970
45381SOL    HW146073   7.537   9.677  12.582 -1.1802  0.8706  0.9930
45381SOL    HW246074   7.614   9.686  12.712  2.0221 -0.1236 -0.7343
45382SOL     OW46075   0.719   3.047   7.678  0.0618  0.2625  0.7042
45382SOL    HW146076   0.636   3.083   7.648 -0.7836 -1.1955  1.2122
45382SOL    HW246077   0.737   3.092   7.760 -0.1473  0.6917  0.5162
45383SOL     OW46078  10.807   4.889   9.717 -0.2174 -0.2178 -0.5256
45383SOL    HW146079  10.711   4.888   9.715 -0.2167  0.2476 -0.7704
45383SOL    HW246080  10.831   4.796   9.717 -0.6386 -0.3477 -1.8985
45384SOL     OW46081   1.133   0.695   6.557  0.0483 -0.5431  0.1881
45384SOL    HW146082   1.099   0.635   6.623  1.1798 -2.3092 -0.7402
45384SOL    HW246083   1.176   0.764   6.607  0.5658 -1.6509  1.3433
45385SOL     OW46084   5.140  11.937   0.213  0.0735  0.1892  0.0862
45385SOL    HW146085   5.136  12.004   0.280  0.9964 -1.0786  1.4650
45385SOL    HW246086   5.096  11.976   0.137 -1.4801  1.4644  1.5675
45386SOL     OW46087   8.930   5.660  12.998 -0.1017  0.1483  0.0862
45386SOL    HW146088   8.900   5.723  13.064 -0.1947  1.3905 -1.0913
45386SOL    HW246089   9.015   5.694  12.970  0.2298 -0.7286  0.0292
45387SOL     OW46090  11.833  10.546   1.362 -1.3009  0.2989  0.1366
45387SOL    HW146091  11.833  10.487   1.437 -0.7987  2.0535  1.6019
45387SOL    HW246092  11.926  10.564   1.346 -1.4519  0.7990 -0.1958
45388SOL     OW46093  13.186  13.070  10.153  0.4099 -0.2449  0.3833
45388SOL    HW146094  13.280  13.075  10.168  0.3425 -1.6472  1.6008
45388SOL    HW246095  13.178  13.030  10.066  0.9277  0.2437  0.1048
45389SOL     OW46096   2.048  12.729   3.686 -0.1007  0.3784 -0.1204
45389SOL    HW146097   1.984  12.734   3.757 -0.2389  0.5095 -0.2518
45389SOL    HW246098   1.995  12.712   3.608 -0.1735  2.2477 -0.5207
45390SOL     OW46099   5.520   1.854  10.620  0.0338  0.2107  0.4794
45390SOL    HW146100   5.510   1.765  10.587 -1.0113 -0.0514  1.4300
45390SOL    HW246101   5.605   1.855  10.663  1.4800  0.5815 -2.1623
45391SOL     OW46102  12.573  11.561   6.509  0.2233 -0.3796 -0.4284
45391SOL    HW146103  12.504  11.608   6.555  1.7976  1.9413 -0.2584
45391SOL    HW246104  12.530  11.521   6.434 -1.5667 -0.3640  0.5463
45392SOL     OW46105  11.451   8.632   9.962 -0.1212  0.7210 -0.1479
45392SOL    HW146106  11.379   8.592   9.913 -0.7240 -1.1577  2.0828
45392SOL    HW246107  11.528   8.583   9.935  0.5377  2.9653 -2.8071
45393SOL     OW46108   4.104   0.151   8.884 -0.0980 -0.2724 -0.3217
45393SOL    HW146109   4.030   0.100   8.850  0.5281 -2.2153  1.0217
45393SOL    HW246110   4.164   0.157   8.810 -0.9494  0.0389 -1.0051
45394SOL     OW46111  11.136   7.408   4.466 -0.1983  0.3897  0.6715
45394SOL    HW146112  11.220   7.414   4.422 -0.9296 -1.0256 -1.0499
45394SOL    HW246113  11.084   7.479   4.429 -1.3655 -1.7632 -2.2689
45395SOL     OW46114   2.511   0.058   3.431 -0.2114  0.2837 -0.4549
45395SOL    HW146115   2.604   0.074   3.444 -0.5197  0.3264  2.6626
45395SOL    HW246116   2.468   0.131   3.477 -1.8221  0.7016 -2.4942
45396SOL     OW46117   3.319  10.888   5.690 -0.3804  0.3646 -0.9946
45396SOL    HW146118   3.232  10.923   5.667 -0.0770  2.1586  0.3677
45396SOL    HW246119   3.337  10.924   5.777  1.5238 -0.3752 -1.0457
45397SOL     OW46120   1.788  10.024   8.960 -0.1669  0.4161  0.0717
45397SOL    HW146121   1.874   9.982   8.958 -0.8670 -1.0808  0.2152
45397SOL    HW246122   1.763  10.022   9.053 -1.5107 -1.6627 -0.2907
45398SOL     OW46123   6.985   2.163   1.167  0.4644 -0.4313  0.4531
45398SOL    HW146124   6.993   2.068   1.162  0.0185 -0.4553  0.2075
45398SOL    HW246125   7.076   2.194   1.175  0.9662 -0.6586 -2.9522
45399SOL     OW46126   5.054   9.334   3.447 -0.3079 -0.5353  0.4576
45399SOL    HW146127   5.147   9.356   3.453 -0.2118 -0.1175 -1.6540
45399SOL    HW246128   5.010   9.419   3.445 -0.7356 -0.7293  1.2169
45400SOL     OW46129   2.066  11.465   5.776 -0.0063  0.0253 -0.2738
45400SOL    HW146130   2.131  11.407   5.735 -0.9493 -1.7772  0.6552
45400SOL    HW246131   1.986  11.449   5.727  0.0411  1.6793 -0.9314
45401SOL     OW46132   9.002   7.705   7.644  0.2577  0.3901 -0.0025
45401SOL    HW146133   8.994   7.652   7.564  0.3488  0.1887  0.1220
45401SOL    HW246134   8.913   7.713   7.676  0.4308 -1.1867  0.9514
45402SOL     OW46135   2.272   7.122  11.749 -0.3027  0.4518 -0.2270
45402SOL    HW146136   2.198   7.063  11.765  0.1248 -1.0532 -3.0475
45402SOL    HW246137   2.349   7.072  11.777 -0.0958  0.5679 -0.5843
45403SOL     OW46138   0.048  10.271  11.123  0.5179 -0.6870  0.3074
45403SOL    HW146139  -0.023  10.273  11.058 -0.4207 -2.2599  1.2182
45403SOL    HW246140   0.128  10.273  11.071 -0.2004 -0.5463 -0.8340
45404SOL     OW46141  11.410   2.217   0.433 -0.0221 -0.0719  0.6381
45404SOL    HW146142  11.445   2.180   0.514  1.1475  2.5518  1.4075
45404SOL    HW246143  11.323   2.249   0.458 -0.0881 -0.1904  0.5630
45405SOL     OW46144   8.396  11.177   0.360  0.0627  0.1810  0.2452
45405SOL    HW146145   8.455  11.133   0.421 -0.2951 -0.1495  0.3594
45405SOL    HW246146   8.405  11.128   0.278 -1.0611 -0.7473  0.6405
45406SOL     OW46147  10.181   6.996   1.275 -0.3602  0.0003 -0.0137
45406SOL    HW146148  10.087   6.974   1.276 -0.0966 -1.4006 -1.5223
45406SOL    HW246149  10.183   7.089   1.253 -1.4109  0.2842  0.9912
45407SOL     OW46150   2.273  11.347   4.093  0.1209  0.9652  0.4489
45407SOL    HW146151   2.251  11.310   4.007  1.5297 -0.7887  0.8016
45407SOL    HW246152   2.287  11.272   4.150 -0.2334  2.0924  2.1045
45408SOL     OW46153   6.058   8.190   0.918  0.9102 -0.1847  0.7569
45408SOL    HW146154   6.065   8.253   0.990  1.2050 -0.8445  1.3138
45408SOL    HW246155   5.965   8.172   0.910  1.0204 -1.6444  2.3348
45409SOL     OW46156   8.303   2.413   9.917  0.4701 -0.3593 -0.3631
45409SOL    HW146157   8.249   2.364   9.855 -0.8706 -0.9357  1.1714
45409SOL    HW246158   8.373   2.450   9.864 -1.8410  1.0886 -2.6113
45410SOL     OW46159   3.345   4.748   9.407 -0.4242 -0.9280 -0.1332
45410SOL    HW146160   3.364   4.757   9.501 -1.5603 -1.7433  0.1878
45410SOL    HW246161   3.428   4.769   9.364  0.1615 -0.7227  1.0623
45411SOL     OW46162  11.674   0.728   7.218 -0.2438 -0.0239  0.7958
45411SOL    HW146163  11.646   0.726   7.126  1.5410  0.7462  0.1887
45411SOL    HW246164  11.634   0.808   7.253  1.2822  1.2065 -0.1296
45412SOL     OW46165   4.980  12.338   2.182 -0.4510  0.2275  0.2143
45412SOL    HW146166   4.916  12.276   2.218 -0.0836 -0.8301 -0.9116
45412SOL    HW246167   4.985  12.408   2.248 -1.8839 -0.2526  0.8693
45413SOL     OW46168   9.589   5.303   5.446 -0.0671  0.5136  0.1861
45413SOL    HW146169   9.632   5.388   5.451 -1.1646  1.3125 -2.2600
45413SOL    HW246170   9.661   5.240   5.442  0.8151  1.5018 -0.0613
45414SOL     OW46171  11.768   3.239   6.110 -0.1568 -0.2558 -0.5283
45414SOL    HW146172  11.770   3.330   6.142  1.0667 -1.1216  2.1675
45414SOL    HW246173  11.855   3.226   6.072 -0.8665  0.0989 -2.3932
45415SOL     OW46174   9.031  12.379  12.365 -0.2046  0.4314 -0.3848
45415SOL    HW146175   9.031  12.371  12.461  0.3653  1.7627 -0.2504
45415SOL    HW246176   9.118  12.412  12.344 -0.8198  1.5635 -1.2265
45416SOL     OW46177   3.625   2.317   4.062  0.2148 -0.1253  0.7673
45416SOL    HW146178   3.530   2.307   4.053  0.2884  0.1476 -0.4821
45416SOL    HW246179   3.661   2.235   4.030  0.3929 -0.4600  1.7963
45417SOL     OW46180   5.023   3.991  10.744 -0.2690 -0.3706 -0.6747
45417SOL    HW146181   4.936   3.989  10.704 -1.2474 -1.7091  1.3586
45417SOL    HW246182   5.051   3.900  10.746 -0.4856 -0.4825  1.9422
45418SOL     OW46183   9.629  11.673  12.121  0.0031  0.2965  0.2753
45418SOL    HW146184   9.722  11.692  12.106  0.0017  0.3564  0.3414
45418SOL    HW246185   9.622  11.662  12.215  0.3204 -1.7130  0.1049
45419SOL     OW46186   5.088  11.466   4.120 -0.7873 -0.3541  0.2507
45419SOL    HW146187   5.053  11.383   4.152 -0.9638  0.5209  2.4718
45419SOL    HW246188   5.039  11.533   4.167 -0.6052  1.0500 -1.4409
45420SOL     OW46189   4.523   0.690  12.252 -0.4640  0.4469  0.6927
45420SOL    HW146190   4.466   0.613  12.253  0.0325  0.0593  0.0014
45420SOL    HW246191   4.494   0.740  12.176 -1.1863  1.2663  1.4871
45421SOL     OW46192  11.892   1.678   4.756  0.4721  0.0744  0.0818
45421SOL    HW146193  11.943   1.674   4.837  1.5862  0.3649 -0.5803
45421SOL    HW246194  11.922   1.602   4.706  0.3181  0.2992 -0.3562
45422SOL     OW46195  12.168   0.909   9.655 -0.4812  0.1149 -0.4118
45422SOL    HW146196  12.088   0.938   9.698  0.7637  1.2901  1.2722
45422SOL    HW246197  12.208   0.990   9.624  0.0193 -0.4622 -1.3044
45423SOL     OW46198   8.142   0.460  10.665  0.6446 -0.0729  0.5870
45423SOL    HW146199   8.118   0.459  10.757 -1.2545 -0.4825  0.1296
45423SOL    HW246200   8.071   0.412  10.621  0.9226  1.0562 -1.2011
45424SOL     OW46201   7.502   4.213   1.074  0.8583 -0.0504 -0.4154
45424SOL    HW146202   7.544   4.157   1.140  0.0568 -0.5526 -0.3184
45424SOL    HW246203   7.553   4.198   0.994  0.5966 -1.0038 -0.4141
45425SOL     OW46204   0.447   6.607  11.598 -0.4142 -0.0761 -0.4756
45425SOL    HW146205   0.511   6.538  11.616 -1.1877 -1.2853 -2.1514
45425SOL    HW246206   0.395   6.612  11.678  1.3246  0.5010  0.6844
45426SOL     OW46207   6.685   9.799   8.857  0.2903  0.0708 -0.4873
45426SOL    HW146208   6.643   9.726   8.811 -2.1942  0.3592  1.0763
45426SOL    HW246209   6.636   9.876   8.828  0.7015  0.6529  0.3293
45427SOL     OW46210  10.397   0.217   0.435  0.3835  0.6352  0.0093
45427SOL    HW146211  10.327   0.282   0.432  1.2428  1.5542 -0.8071
45427SOL    HW246212  10.378   0.164   0.513 -0.7388  1.3933  0.2646
45428SOL     OW46213   9.300  10.602   3.068 -0.2146 -0.3543  0.2679
45428SOL    HW146214   9.369  10.535   3.070  0.5279  0.3583 -0.8752
45428SOL    HW246215   9.224  10.556   3.033 -0.4171 -1.1909  1.6855
45429SOL     OW46216  10.223   6.359   8.826 -0.0476 -0.5036 -0.2765
45429SOL    HW146217  10.197   6.439   8.781  0.7664 -0.4617 -0.6889
45429SOL    HW246218  10.223   6.382   8.919 -0.5640 -0.2489 -0.3372
45430SOL     OW46219   2.141   5.881   7.306 -0.4535  0.0529  0.2805
45430SOL    HW146220   2.126   5.875   7.400 -0.9460  0.1921  0.2117
45430SOL    HW246221   2.161   5.792   7.279 -1.9613 -0.2942  0.2375
45431SOL     OW46222   7.772  13.145   3.254  0.5894 -0.1453  1.3318
45431SOL    HW146223   7.756  13.051   3.254  0.1143 -0.0630  1.3027
45431SOL    HW246224   7.726  13.178   3.331  1.0200  0.0189  1.5217
45432SOL     OW46225  11.375  11.420   2.417  0.1873  0.0536 -0.1959
45432SOL    HW146226  11.349  11.459   2.334  1.8907 -0.3263 -0.9573
45432SOL    HW246227  11.470  11.434   2.422  0.4018 -1.4668  0.8315
45433SOL     OW46228   4.066  12.870  10.566 -0.3209  0.0096  0.7540
45433SOL    HW146229   4.140  12.833  10.518 -0.3863 -0.8655  1.3177
45433SOL    HW246230   4.055  12.957  10.528 -2.5423 -1.7738 -3.2374
45434SOL     OW46231   4.474   0.166   9.370 -0.3854 -0.2728  0.3274
45434SOL    HW146232   4.384   0.157   9.402 -0.0932 -1.4719  0.8693
45434SOL    HW246233   4.465   0.179   9.276 -1.2169  2.1932  0.6721
45435SOL     OW46234   7.455   5.611   0.695  0.4378 -0.0239 -0.3554
45435SOL    HW146235   7.415   5.697   0.682  0.4533  0.0389  0.0025
45435SOL    HW246236   7.548   5.625   0.678  0.2461 -0.2773 -1.6781
45436SOL     OW46237   4.289  10.539   0.865  0.0771 -0.1383 -0.0988
45436SOL    HW146238   4.358  10.605   0.861 -0.1882  0.1628  0.2169
45436SOL    HW246239   4.233  10.557   0.789  0.0779 -0.0819 -0.0857
45437SOL     OW46240   3.954   4.435  12.560  0.2122 -0.0894  0.2412
45437SOL    HW146241   4.003   4.365  12.517  0.0432 -0.0430 -0.0265
45437SOL    HW246242   3.878   4.450  12.504  0.5300  0.6848  0.0009
45438SOL     OW46243   6.462   5.525   5.319  0.3531  0.2307 -0.1375
45438SOL    HW146244   6.392   5.586   5.340 -0.0389 -0.3856  0.4168
45438SOL    HW246245   6.516   5.570   5.254 -0.1707  0.9798 -0.0593
45439SOL     OW46246   2.534   3.745   4.277 -0.8697  0.1636  0.0798
45439SOL    HW146247   2.581   3.816   4.321 -0.0698 -0.4326  0.2019
45439SOL    HW246248   2.566   3.747   4.187  0.4688 -1.1388  0.5028
45440SOL     OW46249  12.643  10.497   3.342 -0.1600  0.2299  0.2099
45440SOL    HW146250  12.603  10.564   3.397  0.4548 -1.3299  2.7043
45440SOL    HW246251  12.736  10.503   3.360  0.2693  0.6305 -1.8627
45441SOL     OW46252   8.660   8.358   2.526  0.0112 -0.5265 -0.3147
45441SOL    HW146253   8.575   8.349   2.482 -0.1876 -0.3058  0.0173
45441SOL    HW246254   8.718   8.297   2.480 -0.8507 -2.2534  0.7863
45442SOL     OW46255  13.091   4.242   9.349 -0.7053 -0.5784  0.4283
45442SOL    HW146256  13.053   4.323   9.315  1.8048  0.2898 -0.5265
45442SOL    HW246257  13.132   4.201   9.273  0.6459 -1.1835  1.4403
45443SOL     OW46258   9.798   5.441   1.801  0.5938  0.2082  0.1092
45443SOL    HW146259   9.752   5.357   1.810  3.6341 -1.6359 -0.1495
45443SOL    HW246260   9.836   5.439   1.713  2.2598  0.9412  0.7586
45444SOL     OW46261   0.343   1.869   5.132  0.1261  0.4803  0.1888
45444SOL    HW146262   0.431   1.838   5.112 -0.5925 -2.0505  0.5423
45444SOL    HW246263   0.291   1.844   5.056 -0.6546  0.0696  0.8391
45445SOL     OW46264  11.181  12.531   2.724  0.3466 -0.1031 -0.0813
45445SOL    HW146265  11.230  12.501   2.801  0.8034 -0.0059 -0.3312
45445SOL    HW246266  11.090  12.533   2.753  0.4557 -0.5576  0.3053
45446SOL     OW46267   5.136   0.906   6.446 -0.0555  0.0933 -0.2471
45446SOL    HW146268   5.142   0.987   6.497  0.1645 -0.3175  0.3771
45446SOL    HW246269   5.130   0.937   6.355  0.6906  0.7957 -0.0714
45447SOL     OW46270  12.270  13.027   7.036  0.1385  0.0690 -0.0919
45447SOL    HW146271  12.300  12.998   6.951  0.1640 -0.6161  0.1488
45447SOL    HW246272  12.185  12.984   7.048  0.9577 -1.3156  1.0033
45448SOL     OW46273   1.820   2.341  12.929  0.3595 -0.1133 -0.3394
45448SOL    HW146274   1.822   2.432  12.898 -0.8018 -0.1723 -0.6522
45448SOL    HW246275   1.912   2.315  12.935  0.6875  0.9071 -0.7617
45449SOL     OW46276   0.584  12.058  12.594 -0.0364 -0.0941  0.3143
45449SOL    HW146277   0.543  11.997  12.533  1.9863 -0.3443 -0.8804
45449SOL    HW246278   0.551  12.144  12.567 -2.0390 -0.4882  1.3104
45450SOL     OW46279   1.707   7.937  11.157  0.3045 -0.0040 -0.0719
45450SOL    HW146280   1.693   7.937  11.251 -0.5275  1.1553 -0.1743
45450SOL    HW246281   1.770   7.867  11.142 -0.9468 -1.4413  1.1268
45451SOL     OW46282   9.711   8.348  12.376 -0.2669 -0.3605  0.3904
45451SOL    HW146283   9.763   8.273  12.403  0.5147 -0.3223 -0.9289
45451SOL    HW246284   9.625   8.312  12.357  0.3095 -1.0929 -0.9816
45452SOL     OW46285  12.045   1.152   3.398 -0.8573  0.5186 -0.2113
45452SOL    HW146286  12.024   1.238   3.435 -0.7989 -0.2675  1.7892
45452SOL    HW246287  11.969   1.098   3.420  1.0421 -1.1599  2.9677
45453SOL     OW46288  10.788   1.191  12.943  0.9131  0.2282 -0.6425
45453SOL    HW146289  10.758   1.195  13.034  1.0437 -1.7431 -0.4698
45453SOL    HW246290  10.865   1.247  12.941  0.9669  0.2191  0.4785
45454SOL     OW46291   8.720   8.141   2.203  0.6021 -0.2741  0.2367
45454SOL    HW146292   8.783   8.085   2.157 -0.2730 -0.0971 -1.2205
45454SOL    HW246293   8.641   8.088   2.209 -0.4159  0.9340 -1.6415
45455SOL     OW46294   5.057   3.845   1.239 -0.6160 -0.4764 -0.2252
45455SOL    HW146295   5.013   3.862   1.323 -1.0492 -1.6423 -0.2034
45455SOL    HW246296   4.992   3.869   1.173 -0.0905  0.9488 -0.2653
45456SOL     OW46297   1.777   7.595  12.560  0.4441 -0.4301 -0.0721
45456SOL    HW146298   1.841   7.613  12.630  0.2743 -1.7090  0.4494
45456SOL    HW246299   1.712   7.538  12.602 -0.9062  0.6206 -0.6676
45457SOL     OW46300   1.676  12.746   8.532 -0.1182  0.1423  0.2773
45457SOL    HW146301   1.752  12.717   8.481 -0.8951 -1.8919  0.1618
45457SOL    HW246302   1.607  12.758   8.466 -0.2625  0.6880  0.5225
45458SOL     OW46303   8.996   0.549  11.866  0.6473 -0.1549 -0.6061
45458SOL    HW146304   8.917   0.560  11.813  0.6552 -1.6587 -0.9597
45458SOL    HW246305   9.066   0.535  11.803  1.1133  0.6065 -0.2681
45459SOL     OW46306   0.514   1.054   2.587 -0.3814  0.8548  0.3048
45459SOL    HW146307   0.449   0.998   2.545  0.1420  0.5440 -0.1107
45459SOL    HW246308   0.597   1.030   2.545 -0.2239  2.3448 -0.3142
45460SOL     OW46309   8.931   9.206   1.662  0.2468  0.1042  0.1644
45460SOL    HW146310   8.894   9.292   1.682 -0.6235  0.1864 -1.5989
45460SOL    HW246311   8.865   9.144   1.693 -0.3966  0.1806 -1.0095
45461SOL     OW46312   7.912   6.834  11.318  0.3997 -0.4290  0.0473
45461SOL    HW146313   7.930   6.758  11.374  0.1852 -0.8342 -0.4324
45461SOL    HW246314   7.845   6.882  11.366  0.6499 -0.4550  0.4316
45462SOL     OW46315   2.016   7.622  11.953  0.2992  0.1384  0.4947
45462SOL    HW146316   2.013   7.715  11.928 -0.7327  0.3163  1.2284
45462SOL    HW246317   2.033   7.576  11.871 -2.9423  0.6923 -0.6390
45463SOL     OW46318   4.574   5.881  10.926  0.1319  0.2152 -0.2654
45463SOL    HW146319   4.509   5.947  10.949 -0.6312  0.1243 -2.0172
45463SOL    HW246320   4.583   5.887  10.831 -0.1168 -2.3091 -0.5358
45464SOL     OW46321   5.050  10.474   1.799  0.0175 -0.2435  1.0057
45464SOL    HW146322   4.995  10.538   1.753 -0.8591 -1.5180  0.1999
45464SOL    HW246323   5.140  10.498   1.775 -0.3208  0.3669  0.2914
45465SOL     OW46324  12.814   6.861  10.192 -0.1785 -0.0517 -0.1489
45465SOL    HW146325  12.805   6.766  10.191 -1.2860  0.0506 -0.3738
45465SOL    HW246326  12.857   6.881  10.109  0.5686 -0.3836  0.1385
45466SOL     OW46327   3.313   5.071   8.710 -0.3343 -0.0865 -0.5464
45466SOL    HW146328   3.352   4.991   8.746  1.2372  1.8083  2.3183
45466SOL    HW246329   3.228   5.042   8.676 -0.0569 -2.8875  0.8520
45467SOL     OW46330   7.871   2.324   8.421 -0.4573  0.3949  1.2291
45467SOL    HW146331   7.848   2.308   8.330  1.8472 -2.1076  0.9769
45467SOL    HW246332   7.811   2.394   8.449 -1.3892  1.0645 -2.0718
45468SOL     OW46333  10.338   6.544   7.986 -0.6527  0.4664 -0.6888
45468SOL    HW146334  10.386   6.462   7.998  0.7800  1.2638 -0.7975
45468SOL    HW246335  10.279   6.526   7.912 -0.9802 -0.7172 -0.1703
45469SOL     OW46336   1.796   8.334   6.235 -0.1842 -0.1664  0.1545
45469SOL    HW146337   1.806   8.246   6.199 -2.0112 -0.1358 -0.5143
45469SOL    HW246338   1.836   8.329   6.322  1.5689 -1.0689 -0.6610
45470SOL     OW46339   5.542   1.227   6.848 -0.2362 -0.4803  0.1315
45470SOL    HW146340   5.473   1.196   6.907  0.3363 -0.1369  1.0080
45470SOL    HW246341   5.607   1.268   6.906 -0.0912  0.7068 -0.8249
45471SOL     OW46342   5.102   9.195   2.763 -0.5167  0.1651 -0.3924
45471SOL    HW146343   5.081   9.198   2.857  0.0638  1.1844 -0.2733
45471SOL    HW246344   5.020   9.218   2.720 -0.3223  1.6232 -0.0379
45472SOL     OW46345   9.601   1.407   3.556 -0.1471 -0.4168 -0.0532
45472SOL    HW146346   9.565   1.321   3.534 -0.6502 -0.2284  0.0148
45472SOL    HW246347   9.614   1.450   3.472  1.3486 -1.0403 -0.1656
45473SOL     OW46348   7.813   4.805  12.137  0.5608  0.2637  0.1877
45473SOL    HW146349   7.747   4.858  12.092 -0.4610 -2.9528 -2.5305
45473SOL    HW246350   7.895   4.829  12.094  0.7919  2.1995  1.5870
45474SOL     OW46351   3.711   5.121   9.280  0.0671  0.6363 -0.4587
45474SOL    HW146352   3.736   5.171   9.202  0.9928  2.1003  0.7346
45474SOL    HW246353   3.711   5.185   9.351 -0.4811 -0.7165  0.8157
45475SOL     OW46354   0.262   8.865  11.796 -0.7272 -0.1245 -0.1016
45475SOL    HW146355   0.209   8.804  11.848 -0.4814 -0.4613 -0.2439
45475SOL    HW246356   0.312   8.914  11.861  0.4439 -1.3369 -0.0495
45476SOL     OW46357  11.428   9.047   7.121 -0.7308  0.5638 -0.0301
45476SOL    HW146358  11.338   9.055   7.153 -0.4970  0.1146  0.7822
45476SOL    HW246359  11.457   8.962   7.153 -0.9428 -0.6022 -2.7434
45477SOL     OW46360   1.187   6.690  10.226  0.1151 -0.0949  0.3493
45477SOL    HW146361   1.141   6.646  10.297 -0.7822 -1.1346 -0.8191
45477SOL    HW246362   1.249   6.624  10.194 -1.0107 -0.4645 -1.2024
45478SOL     OW46363   3.095   9.105   2.359 -0.2983  0.5211 -0.1512
45478SOL    HW146364   3.040   9.100   2.437  0.6644 -2.5244  0.4951
45478SOL    HW246365   3.041   9.066   2.290  0.1442 -0.3048 -0.0544
45479SOL     OW46366   7.359  12.535  12.210  0.1514 -0.4410 -0.1260
45479SOL    HW146367   7.407  12.457  12.182  0.1018 -0.1821 -0.9627
45479SOL    HW246368   7.426  12.604  12.214  0.2019 -0.5272  0.6501
45480SOL     OW46369   0.205   8.125   6.613  0.4689  0.6220  0.5911
45480SOL    HW146370   0.154   8.155   6.688 -0.9900 -3.6709  1.6091
45480SOL    HW246371   0.279   8.078   6.650  2.0177  1.8029 -0.8256
45481SOL     OW46372   2.306  12.541  12.003  0.6957  0.4770 -0.0779
45481SOL    HW146373   2.366  12.610  11.977  1.3788 -0.2608 -0.4759
45481SOL    HW246374   2.231  12.550  11.944  0.4422  1.3382  0.3593
45482SOL     OW46375   5.897   1.649   9.376  0.8529 -0.5307 -0.1548
45482SOL    HW146376   5.853   1.704   9.311  2.1509  1.2935  0.4244
45482SOL    HW246377   5.827   1.622   9.436  0.3029  1.4043  0.1386
45483SOL     OW46378   1.134   6.476   6.827  0.0225 -0.2512 -0.3438
45483SOL    HW146379   1.053   6.451   6.872  0.1574 -1.8519 -0.9451
45483SOL    HW246380   1.104   6.523   6.749 -0.4675 -2.6740 -1.6963
45484SOL     OW46381   7.783   1.705   1.393  0.4895 -0.3222  0.4434
45484SOL    HW146382   7.703   1.755   1.406  0.1937 -0.5168 -0.5224
45484SOL    HW246383   7.775   1.631   1.452 -0.0605 -0.3580  0.3296
45485SOL     OW46384   2.147   8.798   2.291 -0.1561  0.4564 -0.7174
45485SOL    HW146385   2.150   8.731   2.223 -4.5056  0.4873 -1.2653
45485SOL    HW246386   2.154   8.881   2.243  1.6822  0.4921 -0.4508
45486SOL     OW46387  12.969   7.741   9.038  0.1322 -0.7604 -0.3752
45486SOL    HW146388  12.999   7.733   8.947  1.4101 -0.4093 -0.0102
45486SOL    HW246389  12.920   7.660   9.054  0.1847 -0.9862 -1.2649
45487SOL     OW46390   8.986   0.517   2.608 -0.5292 -0.3427 -0.0493
45487SOL    HW146391   8.990   0.508   2.513  0.0553 -3.2412  0.1657
45487SOL    HW246392   8.944   0.437   2.638 -1.2634  0.7731  2.1444
45488SOL     OW46393   9.158   7.243   7.266  0.1462  0.0009 -0.1015
45488SOL    HW146394   9.228   7.208   7.210  0.6897 -0.3871  0.7825
45488SOL    HW246395   9.180   7.210   7.354  0.7046  2.5855  0.8100
45489SOL     OW46396  11.072  11.903   5.837 -0.4389 -0.2816  0.0295
45489SOL    HW146397  11.134  11.851   5.785 -0.3574 -0.4161  0.2591
45489SOL    HW246398  10.989  11.858   5.827 -0.2627 -0.7533  0.6472
45490SOL     OW46399   3.968   0.629   5.593  0.3172  0.4732 -0.2241
45490SOL    HW146400   4.045   0.601   5.644  0.6705  1.4482 -0.1931
45490SOL    HW246401   3.994   0.616   5.502  0.2201  0.0592 -0.1934
45491SOL     OW46402   2.374   7.150   3.421  0.0359  0.2746  0.3753
45491SOL    HW146403   2.393   7.224   3.364  2.1936 -0.5615 -0.0881
45491SOL    HW246404   2.310   7.098   3.372  1.4869 -0.1778 -1.1447
45492SOL     OW46405   7.544   6.338  12.239  0.0691 -0.0807 -0.2350
45492SOL    HW146406   7.589   6.355  12.156  0.4371 -1.0849 -0.2543
45492SOL    HW246407   7.507   6.423  12.264 -1.0329  0.0058 -2.0021
45493SOL     OW46408  12.879   1.485   9.373 -0.0389  0.3229 -0.2424
45493SOL    HW146409  12.951   1.469   9.434  0.0807  2.5977  0.3237
45493SOL    HW246410  12.921   1.513   9.292 -0.2306  2.0287  0.2076
45494SOL     OW46411  12.571   3.514   8.041  0.2001 -0.3442  0.4196
45494SOL    HW146412  12.500   3.575   8.064 -0.9297 -1.5028  0.1079
45494SOL    HW246413  12.607   3.549   7.960 -1.6852 -1.0552 -0.7952
45495SOL     OW46414   0.322   0.562   3.716 -0.1341  0.8068 -0.0920
45495SOL    HW146415   0.305   0.567   3.622 -0.9821  4.1877  0.1287
45495SOL    HW246416   0.238   0.584   3.756  0.2676 -0.3947  1.4937
45496SOL     OW46417  11.271   5.565  11.470 -0.2153  0.0474 -0.1113
45496SOL    HW146418  11.258   5.632  11.403 -0.8643  0.9219  0.8747
45496SOL    HW246419  11.264   5.611  11.553 -0.0088 -1.1252  0.5855
45497SOL     OW46420   5.172   1.282   4.340  0.7131  0.1867 -0.1835
45497SOL    HW146421   5.091   1.317   4.303  0.0947 -1.4111 -0.4450
45497SOL    HW246422   5.142   1.217   4.404  1.7941  0.3523  0.5014
45498SOL     OW46423   8.591  11.904  12.228  0.3348  0.6451 -0.1383
45498SOL    HW146424   8.554  11.819  12.252  0.7565  0.2848 -0.7208
45498SOL    HW246425   8.646  11.885  12.152  1.7067  1.1551  0.6861
45499SOL     OW46426   1.610   6.862   4.397  0.1583  0.1465 -0.2736
45499SOL    HW146427   1.671   6.932   4.373  0.8538 -0.8565 -1.5609
45499SOL    HW246428   1.584   6.823   4.314 -0.6593 -0.7591  0.3870
45500SOL     OW46429   6.330   5.046   2.313 -0.0780  0.3242  0.1208
45500SOL    HW146430   6.393   5.118   2.312  0.3427  0.1090  2.6928
45500SOL    HW246431   6.369   4.982   2.373 -2.4002 -0.1400  1.2461
45501SOL     OW46432   0.202   1.716   6.119 -0.0737  0.0405 -0.0873
45501SOL    HW146433   0.246   1.801   6.125 -1.3519  0.8044 -0.9603
45501SOL    HW246434   0.147   1.712   6.197  0.4047 -0.2556  0.2430
45502SOL     OW46435   9.980   2.245   8.672  0.4711  0.2296 -0.2349
45502SOL    HW146436   9.993   2.172   8.733  0.1420  1.0467  0.8390
45502SOL    HW246437   9.964   2.203   8.587  0.2247 -0.9493  0.3777
45503SOL     OW46438   8.886  11.074   9.388 -0.2878 -0.5317 -0.2870
45503SOL    HW146439   8.910  11.145   9.328 -0.4798 -1.7726 -1.8957
45503SOL    HW246440   8.820  11.024   9.340 -0.8888 -1.2314  1.2239
45504SOL     OW46441   4.741  12.538   3.150  0.2296  0.4777 -0.3688
45504SOL    HW146442   4.698  12.465   3.194  0.0172 -0.7506 -2.4426
45504SOL    HW246443   4.669  12.592   3.117  0.3317  0.4355 -0.6719
45505SOL     OW46444   6.961  12.404  12.359  0.5854 -0.3320  0.1290
45505SOL    HW146445   6.932  12.425  12.448 -3.3447 -0.2913 -0.9646
45505SOL    HW246446   6.971  12.309  12.359  1.3908 -0.2571  0.7662
45506SOL     OW46447  10.828  10.317  13.307  0.5476  0.1572  0.6041
45506SOL    HW146448  10.880  10.397  13.305  3.0307 -1.2748  2.5708
45506SOL    HW246449  10.769  10.329  13.382 -0.3216  0.7927 -0.1560
45507SOL     OW46450  12.044   1.840   5.908 -0.3090  0.0283  0.1230
45507SOL    HW146451  12.029   1.849   6.002 -0.6336 -1.6717  0.2591
45507SOL    HW246452  11.984   1.902   5.868 -0.5744  0.3601  1.0185
45508SOL     OW46453   7.290  12.670   5.347 -0.0916  0.0676 -0.2736
45508SOL    HW146454   7.349  12.738   5.382 -0.0459  1.2851 -2.5678
45508SOL    HW246455   7.215  12.672   5.406  0.9638  0.3674  1.1370
45509SOL     OW46456   0.365   0.101   7.463 -0.2897  0.0406  0.0637
45509SOL    HW146457   0.402   0.177   7.508 -0.0806  0.5313 -0.9134
45509SOL    HW246458   0.380   0.118   7.370 -2.4713  0.0026 -0.3512
45510SOL     OW46459   4.357   5.882   8.548  0.3413 -0.3535 -0.5156
45510SOL    HW146460   4.348   5.930   8.466 -0.6282 -1.2581 -0.9703
45510SOL    HW246461   4.284   5.912   8.602  0.2010 -0.7135 -0.4989
45511SOL     OW46462  12.545   0.532  11.073  0.2954 -0.5077 -0.1315
45511SOL    HW146463  12.628   0.568  11.040  0.3266 -0.3811  0.0866
45511SOL    HW246464  12.529   0.456  11.017  0.4246 -0.3801 -0.3454
45512SOL     OW46465   0.425   0.025  10.639 -0.3265  0.5413 -0.6613
45512SOL    HW146466   0.416   0.037  10.545 -0.2588  3.7806 -0.3814
45512SOL    HW246467   0.339   0.050  10.675  0.3213  1.6243  0.2162
45513SOL     OW46468  12.945  11.594  11.474 -0.3792  0.0662 -0.1701
45513SOL    HW146469  12.853  11.613  11.492 -0.3105  0.5386 -0.2975
45513SOL    HW246470  12.977  11.549  11.552 -1.2726 -2.0645 -0.9582
45514SOL     OW46471   3.857  10.240  11.045 -0.7817 -0.3090  0.1190
45514SOL    HW146472   3.953  10.244  11.045 -0.8360  1.4238  0.1437
45514SOL    HW246473   3.829  10.318  11.091 -2.2301 -0.7577  0.0515
45515SOL     OW46474   3.833   0.951   3.406 -0.4175  0.1862  0.0011
45515SOL    HW146475   3.924   0.936   3.380 -0.4682  0.3994 -0.3009
45515SOL    HW246476   3.826   0.909   3.492  0.2274  1.0042  0.4596
45516SOL     OW46477   0.959   4.932  12.369  0.2033 -0.6011 -0.1186
45516SOL    HW146478   0.929   5.002  12.428 -0.7653 -1.6502  0.6735
45516SOL    HW246479   1.013   4.876  12.425  1.0737 -0.4576 -0.7825
45517SOL     OW46480   7.677   9.600   1.287  0.5928  0.5892  0.1277
45517SOL    HW146481   7.691   9.566   1.199 -0.9347 -0.2101  0.1558
45517SOL    HW246482   7.752   9.658   1.303  0.3147  1.6868 -2.1384
45518SOL     OW46483   3.853  12.771  11.945  0.4978  0.2626 -0.0225
45518SOL    HW146484   3.891  12.734  12.025  0.7165  0.8290  0.1370
45518SOL    HW246485   3.783  12.710  11.921  1.1027 -0.4650  0.0260
45519SOL     OW46486   9.023   2.768   0.822  0.3488  0.1042  0.4679
45519SOL    HW146487   9.059   2.688   0.860 -0.1606  0.5913  2.0416
45519SOL    HW246488   9.079   2.838   0.855  0.5445  0.4489 -0.5672
45520SOL     OW46489   9.410   4.994   4.892 -0.2203 -0.0494 -0.1984
45520SOL    HW146490   9.433   5.062   4.955 -0.8176  0.9073 -0.9916
45520SOL    HW246491   9.455   5.020   4.812  0.6049 -1.3042 -0.1753
45521SOL     OW46492   2.833   9.279   1.707 -0.4460  0.0845  0.1254
45521SOL    HW146493   2.745   9.269   1.670 -0.5381 -3.5172  0.9822
45521SOL    HW246494   2.892   9.256   1.635 -0.4108 -1.4331  0.6124
45522SOL     OW46495   4.397   0.613   0.952  0.7298  0.0819 -0.2076
45522SOL    HW146496   4.376   0.650   0.866  0.2089 -1.2234 -0.6581
45522SOL    HW246497   4.493   0.605   0.952  0.8106  0.9349 -0.2947
45523SOL     OW46498  12.666   2.361  12.899 -0.4866 -0.7137 -0.1757
45523SOL    HW146499  12.651   2.450  12.868 -0.7365 -1.1363 -1.3241
45523SOL    HW246500  12.679   2.370  12.994  0.8660  0.6948 -0.4610
45524SOL     OW46501   9.135   9.960  12.002  0.8658 -0.7492  0.2937
45524SOL    HW146502   9.099  10.029  11.946  1.3987 -1.3112 -0.7520
45524SOL    HW246503   9.073   9.888  11.994 -1.2787  0.4595  3.5890
45525SOL     OW46504   8.386   6.137   4.573 -0.2769 -0.2098 -0.0459
45525SOL    HW146505   8.380   6.194   4.650 -0.9668  2.2605 -1.8307
45525SOL    HW246506   8.296   6.114   4.552 -0.0317 -1.7673  0.4380
45526SOL     OW46507   8.906  12.645   3.200 -0.2655  1.0066 -0.5354
45526SOL    HW146508   8.855  12.623   3.278 -0.7548  0.0280 -1.1067
45526SOL    HW246509   8.980  12.696   3.233  0.4264 -0.7368  0.7686
45527SOL     OW46510  11.407  10.665  12.599 -0.3679  0.5573 -0.7927
45527SOL    HW146511  11.411  10.754  12.562 -0.6098  0.6845 -0.5130
45527SOL    HW246512  11.347  10.618  12.541 -0.2561  0.5793 -0.9287
45528SOL     OW46513   0.324  12.690   6.818 -0.1597  0.0274 -0.3479
45528SOL    HW146514   0.401  12.741   6.841  0.5485 -0.6358 -1.1878
45528SOL    HW246515   0.292  12.731   6.738 -1.3733  1.0100  0.5979
45529SOL     OW46516  11.884   7.917   0.105  0.2947  0.3553 -0.1957
45529SOL    HW146517  11.791   7.922   0.084  0.6903  1.1102 -1.9780
45529SOL    HW246518  11.898   7.826   0.129 -0.9621  0.3176  0.4875
45530SOL     OW46519  11.375  13.006  12.339  0.2827  0.4246 -0.3712
45530SOL    HW146520  11.366  12.954  12.259 -1.1180 -1.4715  0.9218
45530SOL    HW246521  11.286  13.038  12.356  0.5359  0.6529  0.5421
45531SOL     OW46522  12.813   9.859  11.855  0.1533  0.0013 -0.2251
45531SOL    HW146523  12.725   9.884  11.828 -0.0049 -0.3959 -0.0838
45531SOL    HW246524  12.815   9.764  11.847  0.0810 -0.1360  1.2031
45532SOL     OW46525   2.734   4.697   6.998  0.2196  0.1055 -0.0096
45532SOL    HW146526   2.734   4.733   6.910 -1.2715  0.8634  0.2589
45532SOL    HW246527   2.687   4.614   6.991 -0.5720  0.5235  0.1738
45533SOL     OW46528   0.049   7.828   4.607  0.2027 -0.2175 -0.1752
45533SOL    HW146529   0.017   7.797   4.691  0.6113 -1.1614 -0.3603
45533SOL    HW246530  -0.006   7.784   4.542  1.5660 -1.5574 -0.4797
45534SOL     OW46531   8.011  10.446   7.152 -0.3609 -0.1044  1.0678
45534SOL    HW146532   7.976  10.411   7.233  1.1219 -0.5989  1.5175
45534SOL    HW246533   7.972  10.391   7.083  0.6451 -1.6152  1.6549
45535SOL     OW46534   7.088  12.800   6.303  0.1233  0.3009  0.0805
45535SOL    HW146535   7.135  12.724   6.338  0.2411  0.6270  0.6416
45535SOL    HW246536   7.074  12.857   6.378 -2.6207 -0.4997  0.2832
45536SOL     OW46537   9.196  13.000   4.559  0.2748  0.4445 -0.4043
45536SOL    HW146538   9.284  12.976   4.587 -1.2241 -1.4532  3.4507
45536SOL    HW246539   9.148  13.017   4.641 -2.9861  1.2505 -2.2809
45537SOL     OW46540   1.779   0.630  12.707  0.3136  0.4197  0.1305
45537SOL    HW146541   1.803   0.624  12.615  0.2269  2.0839 -0.0287
45537SOL    HW246542   1.686   0.607  12.710  0.8110 -1.8206  0.1524
45538SOL     OW46543   5.145  12.647   3.056 -0.2507 -0.1920 -0.1092
45538SOL    HW146544   5.207  12.624   3.125  0.4322  1.2541 -0.2126
45538SOL    HW246545   5.082  12.575   3.056  0.3216 -0.7322  1.3093
45539SOL     OW46546   1.381   4.131   6.904  0.6815  0.4537 -0.2798
45539SOL    HW146547   1.464   4.130   6.856  1.4111  0.9184  0.9359
45539SOL    HW246548   1.406   4.136   6.996 -0.6903 -0.5442  0.1815
45540SOL     OW46549  11.114   1.066  13.185 -0.0341  0.0253 -0.4671
45540SOL    HW146550  11.063   1.063  13.104  0.8272 -1.2155 -0.9849
45540SOL    HW246551  11.190   1.119  13.164  0.7330 -1.1871 -0.8081
45541SOL     OW46552   3.437  10.655   5.234 -0.0402  0.3767  0.0968
45541SOL    HW146553   3.517  10.607   5.254  0.1772  0.4892 -0.4850
45541SOL    HW246554   3.416  10.703   5.314  2.2555  2.8948 -0.6594
45542SOL     OW46555   6.854   5.982   7.922 -0.7106  0.1056 -0.1584
45542SOL    HW146556   6.802   5.903   7.906 -2.3448  1.1495 -0.2081
45542SOL    HW246557   6.911   5.989   7.844 -0.2351 -1.2142  0.0346
45543SOL     OW46558  12.752   7.193   5.202 -0.1253  0.0718 -0.1129
45543SOL    HW146559  12.731   7.249   5.276  2.7499  3.0835 -1.3169
45543SOL    HW246560  12.801   7.120   5.241 -0.1073  0.7172  1.1367
45544SOL     OW46561   1.891   2.712   7.950  0.3026  0.2305 -0.2775
45544SOL    HW146562   1.865   2.753   7.867 -0.4872  2.0286  0.7823
45544SOL    HW246563   1.845   2.764   8.017  2.8944  0.4679  1.4367
45545SOL     OW46564   9.954   7.572  10.088 -0.6736  0.0782 -0.4389
45545SOL    HW146565   9.940   7.572   9.994 -0.8858 -0.9852 -0.4266
45545SOL    HW246566   9.940   7.662  10.116 -0.4304  0.4313 -1.4464
45546SOL     OW46567   1.250   9.501   2.414  0.4185  0.3343  0.6110
45546SOL    HW146568   1.327   9.534   2.368 -0.0346  2.3450  1.1653
45546SOL    HW246569   1.267   9.520   2.506 -1.3750  2.3633  0.6083
45547SOL     OW46570   2.656  10.164  10.768  0.2219  0.7523 -0.3856
45547SOL    HW146571   2.723  10.134  10.707  0.3637  1.4681 -0.5947
45547SOL    HW246572   2.619  10.242  10.727  0.1041  1.0696  0.3005
45548SOL     OW46573   8.946   4.723   7.066  0.1879  0.4380  0.4055
45548SOL    HW146574   8.944   4.687   7.155  0.4652  1.6971  0.9425
45548SOL    HW246575   9.013   4.671   7.021 -0.3320 -0.5685  0.7631
45549SOL     OW46576  13.082   2.486   0.009 -0.4053  0.0870 -0.3669
45549SOL    HW146577  13.175   2.468  -0.003 -0.5181  0.4980 -1.9827
45549SOL    HW246578  13.045   2.487  -0.079 -2.0049 -0.3486  0.2611
45550SOL     OW46579  12.154   9.871  12.344  0.2497 -0.5762  0.3209
45550SOL    HW146580  12.139   9.961  12.316  0.7614 -0.3428  0.7807
45550SOL    HW246581  12.089   9.820  12.296  1.2271 -0.2322 -1.4728
45551SOL     OW46582   6.376  11.699   2.660  0.0375 -0.3216 -0.7436
45551SOL    HW146583   6.397  11.741   2.576  1.3511 -1.5554 -1.0706
45551SOL    HW246584   6.281  11.689   2.659  0.0092 -0.0661 -1.9563
45552SOL     OW46585  10.852   9.047   8.272  0.1037 -0.2293  1.2539
45552SOL    HW146586  10.937   9.028   8.232  0.1278 -0.0952  1.2419
45552SOL    HW246587  10.873   9.084   8.358  0.0761  0.4972  0.9567
45553SOL     OW46588  12.594  13.186   8.851 -0.0694  0.1914 -0.1630
45553SOL    HW146589  12.531  13.254   8.875  0.7306  0.7835  0.2896
45553SOL    HW246590  12.557  13.105   8.887 -1.1676  0.3239 -0.9426
45554SOL     OW46591   9.680  10.810   5.302  0.0985 -0.4182 -0.3199
45554SOL    HW146592   9.600  10.833   5.253  0.5098  1.6651 -0.1047
45554SOL    HW246593   9.709  10.728   5.263 -2.0494 -1.1659 -0.5124
45555SOL     OW46594   5.897  12.132   1.215 -0.1485 -0.4954  0.1220
45555SOL    HW146595   5.826  12.134   1.280 -0.6825 -2.9965 -0.2713
45555SOL    HW246596   5.855  12.156   1.133 -0.0400  0.1079  0.2344
45556SOL     OW46597   3.923   1.687   3.794 -0.1547  0.0649 -0.1057
45556SOL    HW146598   3.852   1.706   3.855 -0.4295 -1.4790  0.1101
45556SOL    HW246599   3.991   1.647   3.848  0.2849  0.2142 -0.5403
45557SOL     OW46600  12.404  10.338  13.221 -0.6073  0.5286 -0.3870
45557SOL    HW146601  12.390  10.267  13.284 -2.1683  0.3436 -0.8998
45557SOL    HW246602  12.456  10.402  13.269 -1.5631  0.2881  1.0267
45558SOL     OW46603   0.338   8.246   4.413  0.3023  0.8713 -0.0020
45558SOL    HW146604   0.377   8.163   4.386 -0.9969 -0.4919  1.9643
45558SOL    HW246605   0.277   8.268   4.343  0.4076 -0.0117 -0.3840
45559SOL     OW46606  10.367   9.718  11.974  0.1323  0.4625 -0.3327
45559SOL    HW146607  10.400   9.755  11.892 -1.6668 -1.5339 -2.1169
45559SOL    HW246608  10.444   9.710  12.030  2.2289 -1.4184 -3.1935
45560SOL     OW46609   9.205   6.400  12.724 -0.6064 -0.6852 -0.4339
45560SOL    HW146610   9.266   6.326  12.722  0.0353 -0.1614 -0.5923
45560SOL    HW246611   9.122   6.364  12.695 -0.5894 -1.6066  0.5911
45561SOL     OW46612   6.559   1.073  11.520  0.0750  0.3486 -0.3023
45561SOL    HW146613   6.617   1.135  11.564  0.9575  1.0924 -2.3676
45561SOL    HW246614   6.598   0.987  11.537  0.8506  0.6904 -0.3213
45562SOL     OW46615   6.497   3.165   2.906  0.2168 -0.2667  0.3288
45562SOL    HW146616   6.483   3.193   2.996  0.6847 -0.3743  0.4336
45562SOL    HW246617   6.539   3.240   2.864  0.5152 -0.4252  0.3438
45563SOL     OW46618   1.906   6.239  11.018 -0.5159  0.2504  0.0036
45563SOL    HW146619   1.859   6.167  11.060 -1.6169  1.3049  0.6501
45563SOL    HW246620   1.972   6.196  10.964 -1.1229 -1.2378  0.3862
45564SOL     OW46621   5.488   9.332  10.247 -0.2928 -0.5480  0.1376
45564SOL    HW146622   5.401   9.366  10.269  0.2767  0.5113  0.8506
45564SOL    HW246623   5.523   9.299  10.329 -0.1168 -1.1996 -0.1955
45565SOL     OW46624   4.738   2.246   9.825  0.4413 -0.2286 -0.3643
45565SOL    HW146625   4.820   2.216   9.865 -0.2284 -0.6554  0.7530
45565SOL    HW246626   4.706   2.170   9.776  1.2971  0.3166 -1.8199
45566SOL     OW46627   5.839   5.190   5.137  0.1904  0.0338 -0.2972
45566SOL    HW146628   5.796   5.151   5.213  1.5352 -1.6162 -0.3114
45566SOL    HW246629   5.913   5.239   5.174 -0.9087  1.8436 -0.3615
45567SOL     OW46630   3.690   5.896   1.966  0.1561 -0.8917  0.1419
45567SOL    HW146631   3.615   5.911   2.023  0.9209 -0.5328  1.0835
45567SOL    HW246632   3.652   5.871   1.882 -1.0129 -0.5633  0.5576
45568SOL     OW46633   0.942   0.744   3.645 -0.2188  0.2484  0.0619
45568SOL    HW146634   0.953   0.664   3.696  0.0855 -0.7587 -1.4965
45568SOL    HW246635   0.865   0.786   3.683  0.5483  0.0685  1.9394
45569SOL     OW46636   9.823  11.587   5.606  0.3579 -0.2529  0.5184
45569SOL    HW146637   9.758  11.557   5.543  0.2101 -0.4765  0.7762
45569SOL    HW246638   9.777  11.588   5.690  0.6305 -0.2218  0.6700
45570SOL     OW46639  11.501   7.944  12.056 -0.6069  0.5326 -0.0467
45570SOL    HW146640  11.417   7.935  12.012 -0.2598  0.2146 -0.6604
45570SOL    HW246641  11.566   7.931  11.987  0.0299 -2.8409  0.9551
45571SOL     OW46642   4.176   5.903   3.808  0.0873 -0.2033 -0.4709
45571SOL    HW146643   4.098   5.958   3.807  1.4693  1.9201  0.6985
45571SOL    HW246644   4.167   5.851   3.888 -0.3519 -0.3113 -0.5885
45572SOL     OW46645   6.197   5.691   9.885  0.2068 -0.1568 -0.3550
45572SOL    HW146646   6.256   5.762   9.906  0.0362 -0.2050  0.3009
45572SOL    HW246647   6.120   5.707   9.939  0.9830 -1.9652  1.4211
45573SOL     OW46648   9.271   2.434   3.932  0.1915  0.1305  0.2905
45573SOL    HW146649   9.256   2.346   3.897 -1.1060  0.0792  0.9309
45573SOL    HW246650   9.260   2.492   3.857 -1.0468 -0.1007  0.2756
45574SOL     OW46651   1.825   9.444   8.815 -0.5233 -0.1030 -0.7698
45574SOL    HW146652   1.845   9.357   8.848 -1.7776 -0.2992 -0.4782
45574SOL    HW246653   1.874   9.451   8.733  0.6828 -0.5369 -0.1097
45575SOL     OW46654   5.234   2.106   4.288  0.5525 -0.0093 -0.0135
45575SOL    HW146655   5.260   2.042   4.355  2.0492  1.1261  0.5545
45575SOL    HW246656   5.295   2.178   4.300  0.5232  0.4555 -2.3022
45576SOL     OW46657   6.463  11.767   2.169 -0.2986  0.1016  0.4004
45576SOL    HW146658   6.558  11.760   2.159 -0.4656  0.2873 -1.8677
45576SOL    HW246659   6.439  11.843   2.116 -1.7995 -0.3836  0.3376
45577SOL     OW46660   9.733   2.769   0.537 -0.6931 -0.5973 -0.1320
45577SOL    HW146661   9.818   2.735   0.565 -1.1143 -1.3935  0.2058
45577SOL    HW246662   9.754   2.831   0.467  0.1724 -0.6868  0.0359
45578SOL     OW46663   2.970   8.669   3.460 -0.2411 -0.3326 -0.5734
45578SOL    HW146664   3.025   8.724   3.516 -0.1783  0.0443 -0.9987
45578SOL    HW246665   2.883   8.675   3.500 -0.2335  0.0741 -0.6117
45579SOL     OW46666  12.600   0.389   1.008  0.1456 -0.3028  0.3816
45579SOL    HW146667  12.660   0.445   1.058  0.5823 -0.8865  0.5269
45579SOL    HW246668  12.543   0.450   0.961 -2.0712  0.3279  3.5847
45580SOL     OW46669  12.103   8.590  12.105  0.5601 -1.6850  0.5195
45580SOL    HW146670  12.195   8.616  12.111  0.6983 -2.3064  1.1966
45580SOL    HW246671  12.063   8.629  12.183 -0.9400  3.1283 -2.2436
45581SOL     OW46672   3.186   0.904   6.171 -0.0431 -0.1492 -0.6716
45581SOL    HW146673   3.257   0.923   6.232  0.2651 -0.1464 -1.0275
45581SOL    HW246674   3.223   0.921   6.085 -0.3585 -0.5114 -0.8843
45582SOL     OW46675   1.209   9.105   8.607  0.1272 -0.3944  0.3023
45582SOL    HW146676   1.222   9.198   8.623  1.3464 -0.4763 -0.1351
45582SOL    HW246677   1.188   9.098   8.514 -0.7428 -0.4976  0.4972
45583SOL     OW46678  11.611   4.341   5.763  0.1176 -0.2878 -0.2150
45583SOL    HW146679  11.642   4.317   5.850 -0.4232 -1.2052 -0.2623
45583SOL    HW246680  11.542   4.278   5.743  0.6809 -0.5234 -1.5821
45584SOL     OW46681   4.388  11.688   2.092 -0.3231  0.3720  0.3909
45584SOL    HW146682   4.442  11.642   2.028  0.1165  0.8346  0.4187
45584SOL    HW246683   4.299  11.683   2.057 -0.2467 -0.3042  0.2905
45585SOL     OW46684  13.212   3.411   0.496  0.3208 -0.3295  0.3033
45585SOL    HW146685  13.242   3.478   0.435  0.9790 -0.0695  0.8990
45585SOL    HW246686  13.292   3.376   0.536 -0.0114 -1.4636  0.0145
45586SOL     OW46687   5.666   4.048   5.901  0.1872 -0.4290 -0.2107
45586SOL    HW146688   5.585   4.070   5.947 -0.8780  0.5844 -2.3991
45586SOL    HW246689   5.639   3.987   5.832  1.5457 -1.1650 -0.1284
45587SOL     OW46690   4.151   0.851  12.880  0.9485  0.2852 -0.2063
45587SOL    HW146691   4.090   0.900  12.825  0.5129 -0.1360 -0.1081
45587SOL    HW246692   4.139   0.760  12.853  1.1037  0.1321  0.2325
45588SOL     OW46693   0.651   2.227  10.762  0.5890  0.0964  0.1688
45588SOL    HW146694   0.718   2.279  10.809  0.8110 -0.1596  0.1355
45588SOL    HW246695   0.569   2.273  10.780  1.1393  2.5241 -2.6663
45589SOL     OW46696  12.453  11.777   5.960  0.2471  0.0814 -0.2950
45589SOL    HW146697  12.421  11.812   6.043  1.7170 -0.6657  0.6427
45589SOL    HW246698  12.493  11.852   5.916 -1.0025  0.5951 -0.6054
45590SOL     OW46699   0.265   3.066   4.927  0.3102 -0.6762  0.1440
45590SOL    HW146700   0.321   3.059   5.004  0.2119 -0.3575  0.2457
45590SOL    HW246701   0.176   3.064   4.962  0.2642 -0.5832  0.0336
45591SOL     OW46702   8.065   7.217  10.751 -0.0720 -0.3604  0.4557
45591SOL    HW146703   8.056   7.207  10.656 -1.0315  2.5770  0.1235
45591SOL    HW246704   8.151   7.255  10.764 -0.1528 -0.2591  0.7067
45592SOL     OW46705   2.288   1.769   1.949  0.0782  0.2568  0.2529
45592SOL    HW146706   2.372   1.736   1.917 -0.8268 -1.6520 -0.2693
45592SOL    HW246707   2.230   1.766   1.873 -1.1907 -1.1222  1.2259
45593SOL     OW46708  12.578   0.272   6.892 -0.2700  0.4540  0.2263
45593SOL    HW146709  12.610   0.193   6.936  1.4900  0.1656 -1.4804
45593SOL    HW246710  12.501   0.297   6.943  0.4906 -1.0001  2.2309
45594SOL     OW46711   8.520   7.856   2.482  0.0279 -0.2300  0.4920
45594SOL    HW146712   8.581   7.892   2.546 -1.7627 -0.2332  2.2546
45594SOL    HW246713   8.438   7.901   2.498 -0.9559 -1.5506 -0.5786
45595SOL     OW46714  11.275   1.004  11.842  0.3675  0.4577 -0.1252
45595SOL    HW146715  11.339   1.005  11.913 -0.8029  0.4227  0.9590
45595SOL    HW246716  11.303   0.932  11.786  0.1285 -0.9424  1.4555
45596SOL     OW46717   1.146   1.408  13.138  0.0486 -0.5248 -0.1157
45596SOL    HW146718   1.201   1.337  13.172  0.7013 -0.0367 -0.1378
45596SOL    HW246719   1.075   1.416  13.201  1.0275  0.1029  0.9230
45597SOL     OW46720   1.419   5.698   9.422  0.3287  0.8114 -0.3659
45597SOL    HW146721   1.501   5.694   9.471  0.2454  1.4528 -0.1587
45597SOL    HW246722   1.352   5.711   9.489  0.0338  0.1292 -0.5202
45598SOL     OW46723   0.992   3.423   1.583  0.5250 -0.1857  0.1885
45598SOL    HW146724   1.065   3.429   1.521  0.3053  1.1331  0.0213
45598SOL    HW246725   0.970   3.330   1.585  2.6173 -0.7132  0.7444
45599SOL     OW46726  11.374  10.895  10.221  0.1064 -0.0511  0.4335
45599SOL    HW146727  11.283  10.899  10.250  0.2524  0.9027  0.7854
45599SOL    HW246728  11.426  10.903  10.301  0.5102  1.9475  0.0307
45600SOL     OW46729   9.269  10.164  10.095 -0.3057 -0.7246 -0.1225
45600SOL    HW146730   9.249  10.186  10.186 -2.2478 -2.4732 -0.0639
45600SOL    HW246731   9.364  10.175  10.088 -0.2991  0.8530  1.6881
45601SOL     OW46732   7.538   5.365   0.558  0.0935  0.5797  0.0790
45601SOL    HW146733   7.538   5.454   0.593 -1.2639  0.5634  0.1585
45601SOL    HW246734   7.490   5.371   0.476  0.2508 -0.0254 -0.0629
45602SOL     OW46735  12.118  11.021   0.321 -0.1639  0.1817 -0.0889
45602SOL    HW146736  12.095  11.004   0.230  0.0303  0.3031 -0.1641
45602SOL    HW246737  12.162  11.107   0.318 -0.5450  0.3878  0.1799
45603SOL     OW46738   4.095   4.475   2.605 -0.0908  0.0678  0.3826
45603SOL    HW146739   4.143   4.392   2.614 -0.4700 -0.2160 -0.1878
45603SOL    HW246740   4.149   4.539   2.653  0.4592 -0.4043  0.4037
45604SOL     OW46741  11.081   9.660  12.379  0.0128  0.2260  0.4832
45604SOL    HW146742  10.991   9.627  12.384  0.3655 -0.7171  0.9292
45604SOL    HW246743  11.099   9.666  12.285 -1.4468  3.1434  0.2906
45605SOL     OW46744   8.819   8.931   2.449  0.1264 -0.3198 -0.1929
45605SOL    HW146745   8.812   8.918   2.354 -1.2599 -0.1849 -0.1338
45605SOL    HW246746   8.776   8.854   2.486  0.7482 -0.4180  0.3332
45606SOL     OW46747   5.363   9.266   1.805 -0.7804 -0.3369  0.2629
45606SOL    HW146748   5.386   9.232   1.891  1.2252 -1.0644 -0.4961
45606SOL    HW246749   5.354   9.361   1.818 -2.1301 -0.6166  1.5590
45607SOL     OW46750   5.321   0.981  12.208  0.8149  0.6555 -0.0536
45607SOL    HW146751   5.411   0.959  12.184  0.8387  1.0315 -0.3159
45607SOL    HW246752   5.272   0.976  12.125  0.3657 -0.6494  0.2696
45608SOL     OW46753   2.691   5.525   8.380 -0.2732 -0.3696  0.4976
45608SOL    HW146754   2.609   5.493   8.418  0.6472 -0.6198  2.3978
45608SOL    HW246755   2.679   5.619   8.373 -1.4540 -0.6053 -1.1867
45609SOL     OW46756   3.024   0.496  13.171  0.6669 -0.7303  0.5861
45609SOL    HW146757   3.030   0.506  13.266 -0.2458  1.7694  0.4717
45609SOL    HW246758   3.079   0.566  13.136 -0.6356 -0.2725 -0.6692
45610SOL     OW46759  13.138  11.412   7.581 -0.1277 -0.0492 -0.1327
45610SOL    HW146760  13.147  11.414   7.486  1.4313 -4.2819 -0.2761
45610SOL    HW246761  13.048  11.439   7.598 -0.1444  1.8107 -2.6383
45611SOL     OW46762   8.726   1.717   2.808  0.1002  0.2376  0.3853
45611SOL    HW146763   8.715   1.644   2.747 -0.3753  0.2314  0.4740
45611SOL    HW246764   8.666   1.698   2.880  0.0200  0.6818  0.4413
45612SOL     OW46765  12.739   4.149   3.256 -0.0590  0.0246 -0.2146
45612SOL    HW146766  12.695   4.071   3.288 -1.8067  0.8039 -0.5808
45612SOL    HW246767  12.711   4.218   3.317  0.4541  0.5923 -0.6124
45613SOL     OW46768   9.748  13.302   2.156  0.4820  0.1177  0.2526
45613SOL    HW146769   9.777  13.347   2.236  0.0634  1.3332 -0.2654
45613SOL    HW246770   9.654  13.321   2.151  0.0118 -1.8324  0.6493
45614SOL     OW46771  13.286   8.021   9.590  0.2503  0.2909 -0.4509
45614SOL    HW146772  13.291   7.942   9.644  0.9744  0.8269  0.2997
45614SOL    HW246773  13.271   7.989   9.501 -1.3883 -0.5956  0.1029
45615SOL     OW46774   0.128  11.905  11.609 -0.2905 -0.1058  0.7377
45615SOL    HW146775   0.137  11.960  11.531 -0.1886 -1.8874 -0.5625
45615SOL    HW246776   0.103  11.966  11.678  0.6928  1.7087 -0.4161
45616SOL     OW46777   0.113   1.566   3.293 -0.0572 -0.4043  0.4015
45616SOL    HW146778   0.081   1.571   3.383  1.7005 -0.5846  1.0856
45616SOL    HW246779   0.090   1.477   3.264  1.6339 -1.3082  1.6410
45617SOL     OW46780   0.336   6.779  10.549 -0.8249 -0.1048  0.2770
45617SOL    HW146781   0.293   6.694  10.560 -1.5013  0.4076  1.9330
45617SOL    HW246782   0.298   6.815  10.469 -0.7044 -1.2439 -0.3167
45618SOL     OW46783   8.755   4.851   7.655 -0.2417 -0.0641 -0.4347
45618SOL    HW146784   8.687   4.832   7.591  1.1709 -3.6642 -1.1012
45618SOL    HW246785   8.829   4.883   7.603  0.2102 -0.9931 -0.3832
45619SOL     OW46786   6.668   5.311   3.400 -0.2334  0.5137  0.1798
45619SOL    HW146787   6.633   5.396   3.425 -0.6806  0.8963 -1.6269
45619SOL    HW246788   6.593   5.263   3.364  0.6293  0.6192 -1.8927
45620SOL     OW46789  10.273   8.618  12.722 -0.3467 -0.1575  0.6048
45620SOL    HW146790  10.206   8.561  12.760  0.4837 -0.3622  1.8129
45620SOL    HW246791  10.223   8.690  12.682 -1.2907 -0.4246  1.2687
45621SOL     OW46792   7.312   1.381   0.715 -0.0703 -0.1703 -0.5940
45621SOL    HW146793   7.343   1.342   0.633 -1.7226  1.2525 -1.9688
45621SOL    HW246794   7.319   1.311   0.779  1.9691 -1.1141 -1.7489
45622SOL     OW46795  10.458   3.690   5.320 -0.1749  0.6301  0.0677
45622SOL    HW146796  10.501   3.746   5.384  1.8696 -1.6864  0.9035
45622SOL    HW246797  10.417   3.621   5.373  0.2163 -0.4617 -1.0045
45623SOL     OW46798  10.921  11.538   1.288 -0.2086  0.1600 -0.2441
45623SOL    HW146799  10.909  11.446   1.310 -0.2535 -0.0659 -1.1698
45623SOL    HW246800  10.835  11.566   1.257 -0.2324  0.5567  0.1752
45624SOL     OW46801   1.799   7.158   9.540  0.4282 -0.5370 -0.5139
45624SOL    HW146802   1.773   7.089   9.479  2.3529 -1.6114 -0.1965
45624SOL    HW246803   1.801   7.237   9.486 -3.7933 -0.2008 -0.4458
45625SOL     OW46804   2.415   8.363  10.126 -0.4007  0.4032 -0.4906
45625SOL    HW146805   2.476   8.399  10.062  0.1248 -2.0001 -1.4423
45625SOL    HW246806   2.456   8.378  10.211  0.4119  0.8534 -0.9557
45626SOL     OW46807   6.839   7.623   6.025  0.2802  0.1203  0.5382
45626SOL    HW146808   6.868   7.715   6.021  3.4342 -0.6889  1.7421
45626SOL    HW246809   6.842   7.601   6.117  0.7951 -1.5033  0.1625
45627SOL     OW46810   6.802  13.220  12.643  0.0101 -0.2426  0.0657
45627SOL    HW146811   6.866  13.216  12.714  0.6635 -0.4386 -0.5224
45627SOL    HW246812   6.803  13.132  12.605  0.3795  0.1354 -0.8059
45628SOL     OW46813   1.044   8.848   1.464 -1.0035 -0.1157 -0.2303
45628SOL    HW146814   1.114   8.885   1.518  0.7815 -0.3212 -2.2872
45628SOL    HW246815   1.072   8.758   1.447 -2.5825 -0.7252  0.1566
45629SOL     OW46816   0.197   3.554  10.717 -0.2988 -0.2312 -0.0071
45629SOL    HW146817   0.199   3.646  10.690  0.0474  0.5971  2.5357
45629SOL    HW246818   0.169   3.557  10.809 -0.4327 -2.6935  0.1009
45630SOL     OW46819   7.161   2.842   7.587  0.1458 -0.0803  0.0602
45630SOL    HW146820   7.243   2.836   7.636  0.1143  3.0650  0.7221
45630SOL    HW246821   7.183   2.893   7.509 -0.8937 -0.4690 -0.5105
45631SOL     OW46822   4.626   1.889   5.769 -0.4757 -0.4109 -0.0582
45631SOL    HW146823   4.600   1.934   5.850 -0.3558 -0.0761 -0.2024
45631SOL    HW246824   4.721   1.902   5.764 -0.6063  0.3881 -0.7320
45632SOL     OW46825   1.249  13.083   1.912  0.2506  0.3088 -0.2707
45632SOL    HW146826   1.325  13.094   1.854  0.3778  1.6406  0.1206
45632SOL    HW246827   1.281  13.029   1.984 -0.0877 -1.9675 -1.7147
45633SOL     OW46828   4.304   4.784   1.807 -0.0672  0.2168  0.0482
45633SOL    HW146829   4.343   4.867   1.836 -1.0402 -0.1193  2.5842
45633SOL    HW246830   4.220   4.809   1.770 -0.7971  0.3741  1.6901
45634SOL     OW46831   8.293  11.310   3.525  0.2325  0.1220 -0.0823
45634SOL    HW146832   8.279  11.309   3.430 -0.4800 -0.4965  0.0220
45634SOL    HW246833   8.206  11.292   3.562  0.6737 -0.5250  0.6659
45635SOL     OW46834   7.696   8.100   3.464  0.0134 -0.1333  0.4722
45635SOL    HW146835   7.604   8.103   3.436  0.6970  1.1644 -1.9728
45635SOL    HW246836   7.745   8.110   3.382  2.3521 -1.0975  1.6893
45636SOL     OW46837  12.148   3.232  10.722 -0.6730  0.0528  0.1551
45636SOL    HW146838  12.107   3.149  10.744  0.7403 -0.5910  0.4379
45636SOL    HW246839  12.114   3.254  10.635 -1.0741 -0.7886  0.0955
45637SOL     OW46840   1.534   4.427   9.574  0.4246  0.0615  0.6594
45637SOL    HW146841   1.561   4.504   9.624  0.2433 -1.0401  2.5349
45637SOL    HW246842   1.470   4.383   9.630  0.0526 -1.1293 -0.6400
45638SOL     OW46843   2.078   7.096   4.572  0.1994 -0.2966 -0.3806
45638SOL    HW146844   2.076   7.049   4.656 -0.8313  0.5699  0.1081
45638SOL    HW246845   2.138   7.169   4.587 -0.5849  0.3114 -0.1237
45639SOL     OW46846   4.471   5.453   5.519 -0.0760 -0.3553 -0.0463
45639SOL    HW146847   4.554   5.419   5.486  0.2325  0.7831 -0.5159
45639SOL    HW246848   4.486   5.464   5.613  0.1798 -0.5176 -0.0674
45640SOL     OW46849   5.973   9.429   3.770 -0.0944  0.1460 -0.2250
45640SOL    HW146850   6.006   9.506   3.818  1.9137 -1.0890  0.4830
45640SOL    HW246851   5.929   9.466   3.693  0.7835  2.0191  0.1113
45641SOL     OW46852   8.293   1.322   0.542 -0.6275 -0.2374  0.4026
45641SOL    HW146853   8.299   1.300   0.635 -1.8825 -0.5769  0.4112
45641SOL    HW246854   8.260   1.243   0.501  2.1128 -0.9208 -0.7268
45642SOL     OW46855   3.639   7.786  11.919  0.7533  0.4588  0.3142
45642SOL    HW146856   3.697   7.744  11.983  0.0432 -0.1275  0.5764
45642SOL    HW246857   3.575   7.833  11.972 -1.7889 -2.5767  0.1709
45643SOL     OW46858   0.714   1.389   5.387  0.3026  0.2373  0.1843
45643SOL    HW146859   0.650   1.335   5.341  0.8524 -0.3233  0.0602
45643SOL    HW246860   0.774   1.419   5.318  0.7767 -0.1027  0.4454
45644SOL     OW46861   4.007   2.885   5.199  0.6960  0.2601 -0.4805
45644SOL    HW146862   4.010   2.868   5.105 -1.7953 -0.6289 -0.4537
45644SOL    HW246863   4.029   2.801   5.240  0.7087  0.3707 -0.2547
45645SOL     OW46864  11.035   3.795   8.427 -0.0298 -0.0610  0.1196
45645SOL    HW146865  11.071   3.768   8.512 -0.1856  2.5577  1.1159
45645SOL    HW246866  10.942   3.808   8.445 -0.3144 -0.7059 -0.8228
45646SOL     OW46867   8.350   0.552   6.506 -0.4070 -0.4485  0.5515
45646SOL    HW146868   8.275   0.567   6.563 -0.0952 -0.1525  0.8878
45646SOL    HW246869   8.411   0.501   6.559 -0.9488 -1.9012 -0.1789
45647SOL     OW46870   9.802  10.279   6.642 -0.1421  0.1390 -0.4593
45647SOL    HW146871   9.855  10.257   6.565  0.7856 -1.1253  0.4854
45647SOL    HW246872   9.867  10.291   6.712 -0.9182  2.0135 -0.0149
45648SOL     OW46873   4.354  10.104   5.181 -0.0368  0.1226  0.2304
45648SOL    HW146874   4.271  10.056   5.178  0.1093 -0.1484  0.5712
45648SOL    HW246875   4.343  10.174   5.117 -0.1865 -0.4716 -0.4067
45649SOL     OW46876   5.858  12.731   3.071  0.2488  0.2385 -0.1291
45649SOL    HW146877   5.811  12.735   3.154 -0.5123 -0.8110 -0.4754
45649SOL    HW246878   5.789  12.717   3.006  0.9807 -0.8121 -0.7067
45650SOL     OW46879   3.949  12.710   4.746  0.1634  0.2539 -0.0192
45650SOL    HW146880   3.971  12.729   4.837 -0.4187 -0.5849  0.3091
45650SOL    HW246881   3.938  12.796   4.706 -1.5880  0.6707  1.2282
45651SOL     OW46882   2.513   4.020   7.401 -0.3985 -0.9046  0.0313
45651SOL    HW146883   2.500   3.928   7.423  2.4578 -1.4839 -0.2556
45651SOL    HW246884   2.529   4.019   7.306 -1.5502  0.0701 -0.1890
45652SOL     OW46885   7.297  11.285   6.738 -0.2284  0.4005  0.1225
45652SOL    HW146886   7.220  11.230   6.752  0.0219 -0.6399 -2.1012
45652SOL    HW246887   7.363  11.226   6.702  1.2264  1.5050  0.8753
45653SOL     OW46888   9.465   5.642   5.390 -0.0579 -0.0487  0.2163
45653SOL    HW146889   9.426   5.715   5.438 -1.4940 -0.5472 -0.1454
45653SOL    HW246890   9.533   5.609   5.449 -0.2965  0.7311  0.9566
45654SOL     OW46891  11.799   2.002  12.812 -0.8858 -0.1079 -0.1491
45654SOL    HW146892  11.762   2.067  12.871  0.1855  0.8821 -0.5187
45654SOL    HW246893  11.751   2.015  12.730  0.1254  1.0807 -0.5878
45655SOL     OW46894  12.312   9.776   1.713 -0.7894 -0.2133  0.1778
45655SOL    HW146895  12.240   9.726   1.752  0.2201 -0.9832  1.1138
45655SOL    HW246896  12.367   9.801   1.788  0.1912 -0.0868 -0.5680
45656SOL     OW46897  13.110   5.842   4.325 -0.1392  0.0335  0.2977
45656SOL    HW146898  13.104   5.830   4.230 -0.3382  0.8094  0.2084
45656SOL    HW246899  13.076   5.760   4.361 -0.0095 -0.2920 -0.2965
45657SOL     OW46900  12.171   9.107  12.717  0.6309 -0.8335  0.5224
45657SOL    HW146901  12.121   9.025  12.717 -0.7055 -0.0557  0.3806
45657SOL    HW246902  12.257   9.082  12.749  0.3281 -2.3339  0.2663
45658SOL     OW46903   1.095   5.582  10.946  0.2865 -0.2798 -0.6299
45658SOL    HW146904   1.188   5.570  10.927  0.0260  0.3052 -2.4434
45658SOL    HW246905   1.094   5.639  11.023  1.4196 -1.0563 -0.0073
45659SOL     OW46906   2.486   2.791  11.560  0.2982  0.0828  0.3225
45659SOL    HW146907   2.456   2.722  11.619 -1.3257  1.1122  0.7717
45659SOL    HW246908   2.416   2.798  11.495  0.8195  0.7707 -0.1820
45660SOL     OW46909   9.765   3.488   3.860  0.1841 -0.2517 -0.8369
45660SOL    HW146910   9.858   3.484   3.838  0.7083 -0.2355  1.1352
45660SOL    HW246911   9.732   3.401   3.841  1.4545 -1.3766  1.6236
45661SOL     OW46912   9.956   7.991   7.711 -0.4197 -0.4894 -0.4177
45661SOL    HW146913   9.886   7.927   7.705 -0.6675 -0.2131 -0.4776
45661SOL    HW246914  10.011   7.975   7.634  0.2306 -1.4635  0.2234
45662SOL     OW46915   9.869   5.499  11.589 -0.4404 -0.5650 -1.1461
45662SOL    HW146916   9.902   5.509  11.500  1.1559  0.1228 -0.5089
45662SOL    HW246917   9.837   5.587  11.612 -0.3023 -0.5966 -0.8304
45663SOL     OW46918   7.458   0.891  10.155  0.0872  0.3393  0.5983
45663SOL    HW146919   7.429   0.884  10.246 -1.8581  1.0491  0.0755
45663SOL    HW246920   7.396   0.836  10.106  1.8417 -1.0462 -0.2044
45664SOL     OW46921   5.112   8.655   7.250  0.6228 -0.5198  0.5330
45664SOL    HW146922   5.190   8.605   7.225  0.5954 -0.4436  0.2982
45664SOL    HW246923   5.063   8.596   7.307  0.2317 -1.0275 -0.3116
45665SOL     OW46924   1.347   0.638  10.639 -0.2552 -0.0485 -0.3212
45665SOL    HW146925   1.370   0.557  10.685  1.3492  0.4957 -0.0952
45665SOL    HW246926   1.310   0.694  10.706 -0.9914 -0.4464 -0.3920
45666SOL     OW46927   7.253   4.575  12.593 -0.8435 -0.1757 -0.3963
45666SOL    HW146928   7.303   4.637  12.646 -2.2982 -0.4238  1.3303
45666SOL    HW246929   7.236   4.622  12.511  0.1839  0.7664 -0.0881
45667SOL     OW46930   1.017  10.608   8.402 -0.0605 -0.0047 -0.4507
45667SOL    HW146931   1.000  10.702   8.389  0.4595  0.5944  2.3966
45667SOL    HW246932   1.110  10.604   8.424 -0.9016 -0.3789  4.1906
45668SOL     OW46933  10.295  10.057   4.399  0.2393 -0.1539 -0.1921
45668SOL    HW146934  10.223  10.010   4.356 -0.7990  1.3517 -0.1845
45668SOL    HW246935  10.256  10.091   4.480  0.6309  1.5482 -0.6737
45669SOL     OW46936  13.133   0.372   4.414 -0.1426  0.0418 -0.3702
45669SOL    HW146937  13.039   0.387   4.406 -0.1239  0.6654  0.3944
45669SOL    HW246938  13.141   0.285   4.454 -0.4025  0.1281 -0.1332
45670SOL     OW46939   4.472   2.436   2.923 -0.0990 -0.2435 -0.3409
45670SOL    HW146940   4.433   2.506   2.974  1.4900 -0.1730  0.8530
45670SOL    HW246941   4.399   2.394   2.878 -1.1583  1.7091 -0.5095
45671SOL     OW46942   9.188  11.723   6.158 -0.6161  0.4928 -0.4364
45671SOL    HW146943   9.278  11.757   6.157 -0.7571  0.8818 -1.3878
45671SOL    HW246944   9.160  11.729   6.067 -2.3844  2.4749  0.1609
45672SOL     OW46945   2.380  11.884   6.986  0.0384 -0.1653  0.0851
45672SOL    HW146946   2.407  11.813   7.044 -0.0426 -1.1637 -1.0581
45672SOL    HW246947   2.390  11.963   7.039 -0.7504 -1.0907  1.6887
45673SOL     OW46948   0.410  11.505   5.429 -0.1464 -0.0060 -0.0630
45673SOL    HW146949   0.440  11.585   5.473 -0.5965  0.5563 -0.7555
45673SOL    HW246950   0.489  11.451   5.420  0.4758  1.0073 -0.9334
45674SOL     OW46951  10.811   0.489   6.333 -0.2350  0.0428 -0.0176
45674SOL    HW146952  10.785   0.437   6.257  0.0897  0.4526 -0.4135
45674SOL    HW246953  10.906   0.496   6.327 -0.2286  0.2741  0.2991
45675SOL     OW46954   0.983   3.574   2.749 -0.3718 -0.0785 -0.5444
45675SOL    HW146955   0.890   3.587   2.768 -0.4021 -0.7392 -0.1933
45675SOL    HW246956   0.984   3.537   2.661 -0.7451 -3.5625  0.7480
45676SOL     OW46957  10.386  10.690   9.532 -0.2056  0.1414 -0.5426
45676SOL    HW146958  10.372  10.759   9.596  0.1816  1.2407 -1.6233
45676SOL    HW246959  10.298  10.666   9.503 -0.4217 -0.7193  0.7259
45677SOL     OW46960   0.992  12.407   2.961 -0.3355  0.1343  0.1866
45677SOL    HW146961   1.044  12.444   2.891  1.3849  0.9714  1.8187
45677SOL    HW246962   0.928  12.351   2.917 -0.0225  1.4513 -2.0619
45678SOL     OW46963   6.012   3.042   0.995 -0.6360  0.0120  0.2447
45678SOL    HW146964   6.039   3.068   0.906 -0.4222  2.9850  1.0744
45678SOL    HW246965   5.924   3.007   0.983 -0.3694 -0.2513 -1.2248
45679SOL     OW46966   7.389   1.535  13.307  0.2416  0.5500 -0.0399
45679SOL    HW146967   7.460   1.490  13.355 -0.2866 -1.2737 -0.8728
45679SOL    HW246968   7.397   1.626  13.334  1.3258 -0.0253  1.8398
45680SOL     OW46969  10.933  12.436   4.533  0.6970  0.1264 -0.2692
45680SOL    HW146970  10.993  12.400   4.598  1.5572  1.2282 -0.4440
45680SOL    HW246971  10.869  12.485   4.585  1.3047  0.8939 -0.2387
45681SOL     OW46972  13.145   0.212   8.650  0.2465  0.0431  0.3298
45681SOL    HW146973  13.070   0.160   8.621 -1.0838  1.7112  0.6430
45681SOL    HW246974  13.215   0.190   8.589 -1.2722  0.4043 -1.6306
45682SOL     OW46975   9.038   3.724   2.851  0.2646 -0.0405  0.2861
45682SOL    HW146976   8.963   3.783   2.859 -0.1754 -0.3580 -1.1243
45682SOL    HW246977   9.006   3.640   2.884 -0.8820 -0.8274 -2.4917
45683SOL     OW46978   2.270   1.631  10.872 -0.0277 -0.2922  1.1424
45683SOL    HW146979   2.236   1.609  10.786  1.2236  0.6615  0.3640
45683SOL    HW246980   2.290   1.547  10.912  0.1912 -0.7248  0.1523
45684SOL     OW46981  12.348   6.772   8.167  0.4066 -0.3448  0.2070
45684SOL    HW146982  12.293   6.833   8.217 -1.2860 -0.9953 -0.7804
45684SOL    HW246983  12.381   6.711   8.232  0.8683  0.6790  0.9750
45685SOL     OW46984   1.592   4.590   9.187 -0.0942 -0.2319 -0.3148
45685SOL    HW146985   1.535   4.545   9.125 -0.3525 -1.6507  0.9156
45685SOL    HW246986   1.674   4.602   9.139 -0.2527 -1.3935 -0.9160
45686SOL     OW46987   1.629   3.874   5.885 -0.2376  0.1429  0.4798
45686SOL    HW146988   1.657   3.851   5.797 -0.0745 -0.1345  0.6028
45686SOL    HW246989   1.538   3.902   5.875 -0.3603 -0.3225  0.2931
45687SOL     OW46990   5.705  12.925  11.926  0.4282 -0.7239 -0.1948
45687SOL    HW146991   5.748  12.970  11.854 -0.3025  0.5187  0.1197
45687SOL    HW246992   5.612  12.943  11.913  0.2014 -1.3780  0.4616
45688SOL     OW46993  11.201   0.825   2.741  0.5517 -0.2173 -0.2658
45688SOL    HW146994  11.224   0.896   2.681 -1.2559  0.6688  0.0163
45688SOL    HW246995  11.161   0.758   2.686 -0.4085  0.2671 -0.1768
45689SOL     OW46996   5.176  12.695   8.027  0.6269 -0.2093 -0.0714
45689SOL    HW146997   5.252  12.687   8.085  0.7849 -2.5615 -0.4740
45689SOL    HW246998   5.102  12.667   8.081  0.4817 -0.4966 -0.4105
45690SOL     OW46999  11.041   5.817   8.883  0.0288 -0.1719 -0.3903
45690SOL    HW147000  11.119   5.765   8.862  0.4694  0.1271  0.4791
45690SOL    HW247001  10.999   5.770   8.954  1.1922  1.3574  1.3888
45691SOL     OW47002  12.763   0.996   3.198  0.6237  0.2543  0.5963
45691SOL    HW147003  12.728   0.910   3.177  1.4083  0.0370  0.1218
45691SOL    HW247004  12.856   0.981   3.217  0.6270  0.9043  1.1409
45692SOL     OW47005   3.088   4.663   5.681 -0.1434  0.2944  0.1589
45692SOL    HW147006   3.159   4.649   5.617 -3.3068 -0.4143 -3.5843
45692SOL    HW247007   3.100   4.753   5.711  0.9458  1.0668 -2.3144
45693SOL     OW47008  13.110   0.655   7.012 -0.0174 -0.2198  0.6418
45693SOL    HW147009  13.037   0.701   6.969  0.0255  0.0614  0.8636
45693SOL    HW247010  13.069   0.580   7.055 -0.2179  0.0761  0.9738
45694SOL     OW47011   9.995  10.210   9.327 -0.4973 -0.1463  0.0972
45694SOL    HW147012  10.073  10.154   9.320 -0.2256  0.0356  1.3915
45694SOL    HW247013  10.014  10.284   9.270  0.4883  0.1044  0.7184
45695SOL     OW47014   7.860   2.902   0.156  0.1625  0.0988  0.3687
45695SOL    HW147015   7.819   2.986   0.136  0.6798  0.3550  0.3620
45695SOL    HW247016   7.941   2.902   0.105  0.3029 -0.2849  0.5859
45696SOL     OW47017  12.082   5.792   7.815 -0.1154  0.6430  0.2839
45696SOL    HW147018  12.098   5.883   7.839 -1.6470  0.4600  2.2667
45696SOL    HW247019  12.064   5.794   7.721 -0.3753  2.4148  0.3410
45697SOL     OW47020   6.219   5.883  12.201  0.1416 -0.2183  0.5678
45697SOL    HW147021   6.203   5.977  12.208  1.6982 -0.0345  2.5500
45697SOL    HW247022   6.132   5.844  12.192 -0.5251  1.3960 -0.3470
45698SOL     OW47023   4.275  11.801   0.956  0.2284  0.1901 -0.2882
45698SOL    HW147024   4.192  11.848   0.966 -0.1982 -0.7235  0.6626
45698SOL    HW247025   4.342  11.869   0.965 -0.3827  0.6726  0.7762
45699SOL     OW47026   5.792  10.520  12.271  0.6512  0.3630 -0.0068
45699SOL    HW147027   5.777  10.457  12.201  0.6851 -0.0763  0.3750
45699SOL    HW247028   5.825  10.467  12.344  1.7504  0.9659 -0.0451
45700SOL     OW47029   5.093  13.087   0.078 -0.3186 -0.2457 -0.0030
45700SOL    HW147030   5.004  13.052   0.069 -0.1717 -0.6280  0.0270
45700SOL    HW247031   5.089  13.172   0.034 -0.1911 -1.1000 -1.7565
45701SOL     OW47032   7.202   1.631  11.845  0.4797  0.4365 -0.1002
45701SOL    HW147033   7.276   1.608  11.902  1.0737 -1.2257 -1.4757
45701SOL    HW247034   7.131   1.652  11.906  1.2400 -0.7756  1.2697
45702SOL     OW47035  12.549   1.778  10.012  0.4845 -0.2397 -0.2772
45702SOL    HW147036  12.619   1.820   9.962 -0.0024  0.5461 -0.3132
45702SOL    HW247037  12.570   1.685  10.009  0.5450 -0.1982 -1.8163
45703SOL     OW47038   5.244  12.911  11.966  0.7756 -0.0815  0.1386
45703SOL    HW147039   5.216  12.838  12.021  0.5631  0.2132  0.4251
45703SOL    HW247040   5.196  12.986  12.000  1.8599  0.4254  0.5974
45704SOL     OW47041  12.809   3.271   9.910 -0.2756  0.7451 -0.1620
45704SOL    HW147042  12.872   3.343   9.907 -0.8537  1.2428 -0.4731
45704SOL    HW247043  12.843   3.212   9.977 -0.1808  1.6762  0.6288
45705SOL     OW47044  12.868  11.686   0.817 -0.1776  0.5737 -0.7090
45705SOL    HW147045  12.851  11.654   0.906  0.6222 -1.2944 -1.1708
45705SOL    HW247046  12.820  11.625   0.761  0.6542  0.7457 -1.6173
45706SOL     OW47047   4.573  12.070   7.501  0.8760 -0.2228 -0.3441
45706SOL    HW147048   4.481  12.096   7.488  0.5242 -1.1574  0.1768
45706SOL    HW247049   4.623  12.147   7.475 -0.1034  0.8152  0.6910
45707SOL     OW47050   6.454   4.935  13.150 -0.2859 -0.3404 -0.1404
45707SOL    HW147051   6.511   5.001  13.191  0.3681 -1.9572  1.7036
45707SOL    HW247052   6.366   4.963  13.173 -0.1505  0.8626 -0.9512
45708SOL     OW47053  11.938   2.962   3.041 -0.3663  0.5579  0.9141
45708SOL    HW147054  11.933   3.034   2.979  0.0729 -0.3881 -0.2704
45708SOL    HW247055  11.994   2.994   3.112  1.2694  0.8079 -0.4339
45709SOL     OW47056   5.093   4.488  11.375 -0.2127  0.2016  0.2473
45709SOL    HW147057   5.052   4.472  11.289 -1.1926 -2.1745  1.0730
45709SOL    HW247058   5.157   4.417  11.384 -0.4037  0.1862  1.6384
45710SOL     OW47059  10.594  11.002   3.987  0.1128  0.5041 -0.1955
45710SOL    HW147060  10.523  10.938   4.000  0.6571 -0.0418  0.1501
45710SOL    HW247061  10.561  11.060   3.918 -1.1822  1.0307  0.8222
45711SOL     OW47062   4.965   4.205   3.145 -0.2103 -0.4414  0.0751
45711SOL    HW147063   4.980   4.114   3.117 -0.0488 -0.2065 -0.6204
45711SOL    HW247064   4.879   4.227   3.110 -1.1242 -0.9411  1.8855
45712SOL     OW47065   7.494   8.778   3.922 -0.0801 -0.6963  0.1149
45712SOL    HW147066   7.586   8.805   3.927 -0.5019  0.8455  0.1577
45712SOL    HW247067   7.497   8.688   3.890  1.3984 -0.2574 -1.0970
45713SOL     OW47068   3.647   0.910   5.587 -0.0888  0.5498  0.0619
45713SOL    HW147069   3.605   0.852   5.651  1.3216 -0.4900  0.0962
45713SOL    HW247070   3.740   0.893   5.597  0.2708  1.8059 -0.9393
45714SOL     OW47071   3.134   5.325   7.007  0.0042 -0.0515  0.7065
45714SOL    HW147072   3.151   5.419   7.015  1.9008 -0.2481 -0.4685
45714SOL    HW247073   3.163   5.289   7.091  0.1507  0.3124  0.8145
45715SOL     OW47074  10.601   2.916   3.935  0.2870 -0.9493 -0.3291
45715SOL    HW147075  10.532   2.853   3.956  0.5278 -1.5273 -1.2294
45715SOL    HW247076  10.682   2.869   3.954  0.4576 -0.3161  0.6026
45716SOL     OW47077   5.961   6.662   9.110 -0.1148  0.4277  0.1075
45716SOL    HW147078   6.023   6.698   9.047 -1.2516  0.2454 -1.1478
45716SOL    HW247079   5.881   6.648   9.060 -1.1143  0.4469  1.6310
45717SOL     OW47080   4.672   4.691   7.746  0.4590  0.3583 -0.2326
45717SOL    HW147081   4.657   4.602   7.778  0.0119  0.2086 -0.8219
45717SOL    HW247082   4.593   4.739   7.771 -0.3418 -0.0068 -1.9068
45718SOL     OW47083  11.931   0.834   0.673 -0.0525  0.3247  0.0392
45718SOL    HW147084  11.871   0.908   0.667 -0.5612 -0.0541  0.3365
45718SOL    HW247085  11.957   0.816   0.583 -0.9895  0.0068 -0.1720
45719SOL     OW47086   4.811   4.302  10.804  0.0202  0.2754  0.1095
45719SOL    HW147087   4.821   4.222  10.856 -2.8649 -0.2617  0.0002
45719SOL    HW247088   4.893   4.349  10.817  0.8222 -1.5167  2.2248
45720SOL     OW47089   0.741  10.951   1.334  0.0221  0.4312  0.2230
45720SOL    HW147090   0.702  10.868   1.307  1.6541  0.1116 -1.3199
45720SOL    HW247091   0.743  10.945   1.430 -1.0938 -0.7159  0.2094
45721SOL     OW47092   9.433   9.204   8.171 -0.0781 -0.3317  0.1233
45721SOL    HW147093   9.370   9.273   8.154 -2.1405 -2.1309 -0.0257
45721SOL    HW247094   9.384   9.123   8.158  2.6646 -1.8890 -1.5785
45722SOL     OW47095   9.057   4.668   8.223 -0.0302 -0.3666  0.4190
45722SOL    HW147096   9.048   4.758   8.256  0.8266  0.7283 -2.0714
45722SOL    HW247097   9.151   4.653   8.223  0.1176  0.1107 -2.3510
45723SOL     OW47098   6.279  12.862   9.260 -0.5055  0.3805  0.5748
45723SOL    HW147099   6.296  12.894   9.172 -0.2300 -0.6724  0.2248
45723SOL    HW247100   6.351  12.895   9.313 -1.2493  1.9369  0.6635
45724SOL     OW47101   0.309   7.822   4.729 -0.9561 -0.0954  0.5721
45724SOL    HW147102   0.220   7.838   4.699 -0.2872 -0.3599 -1.8651
45724SOL    HW247103   0.364   7.878   4.673  0.5128 -1.4682  0.5364
45725SOL     OW47104   3.798   3.824  10.814 -0.1293 -0.2842 -0.7279
45725SOL    HW147105   3.823   3.902  10.764  1.3667 -0.5247 -0.4027
45725SOL    HW247106   3.778   3.759  10.747 -0.0922 -0.0071 -1.0130
45726SOL     OW47107   0.433   6.507   8.925  0.0327 -0.1657  0.3323
45726SOL    HW147108   0.523   6.524   8.898 -0.1142 -0.9662 -0.7161
45726SOL    HW247109   0.385   6.492   8.844 -0.8823 -0.5187  0.9152
45727SOL     OW47110   6.299  11.060   1.731 -0.1959  0.2894  0.8536
45727SOL    HW147111   6.324  11.061   1.638 -0.5981  1.5362  0.7370
45727SOL    HW247112   6.269  11.149   1.748  0.1396  0.1522  2.2616
45728SOL     OW47113   1.687   6.717   1.823  0.0084 -0.6097  0.0136
45728SOL    HW147114   1.600   6.736   1.789 -0.3601 -0.5652  0.9514
45728SOL    HW247115   1.719   6.801   1.856  0.2830 -0.6820 -0.0674
45729SOL     OW47116   6.841   7.120   4.283  0.1714 -0.1390  0.5043
45729SOL    HW147117   6.890   7.055   4.333 -1.0369 -1.3076  0.2254
45729SOL    HW247118   6.751   7.088   4.283 -0.4503  1.5062  0.2856
45730SOL     OW47119  11.378   8.614   7.044 -0.7557  0.0403 -0.2796
45730SOL    HW147120  11.334   8.568   7.115  1.0029  0.3913  1.1105
45730SOL    HW247121  11.357   8.563   6.966 -2.4080 -0.5934  0.5277
45731SOL     OW47122   9.266  13.008   0.747 -0.1750 -0.3830 -0.0229
45731SOL    HW147123   9.186  13.000   0.798 -0.3781 -1.4548 -0.4748
45731SOL    HW247124   9.266  13.099   0.715 -1.2941 -0.4192 -0.1553
45732SOL     OW47125   0.730   2.744   0.830  0.1220 -0.0813 -0.3665
45732SOL    HW147126   0.719   2.745   0.735 -2.5553  0.7204 -0.1307
45732SOL    HW247127   0.677   2.669   0.859 -1.0875  1.1097  0.6272
45733SOL     OW47128   8.372   0.385  12.854 -0.1278 -0.0847 -0.1864
45733SOL    HW147129   8.346   0.475  12.873 -0.9102 -0.2374 -0.5054
45733SOL    HW247130   8.290   0.336  12.848  0.3112 -1.1122  1.3248
45734SOL     OW47131   8.491   3.365   6.964 -0.5612 -0.0771  0.2333
45734SOL    HW147132   8.513   3.320   7.046  0.0605 -0.3315 -0.0711
45734SOL    HW247133   8.462   3.296   6.905 -0.2903  0.0060 -0.0015
45735SOL     OW47134   6.564   1.315   7.492  0.7483  0.0721  0.3013
45735SOL    HW147135   6.630   1.248   7.509 -0.4345 -0.7046  2.1419
45735SOL    HW247136   6.485   1.265   7.469  0.6580  0.9692 -1.5713
45736SOL     OW47137   2.337   2.968   3.379 -0.1353  0.4864 -0.1663
45736SOL    HW147138   2.290   2.905   3.324  0.6224 -0.9679  0.7998
45736SOL    HW247139   2.270   3.032   3.405 -1.1177 -0.4118 -0.4209
45737SOL     OW47140   2.393   0.916  12.180  0.4037  0.4631 -0.4259
45737SOL    HW147141   2.460   0.957  12.124  1.3731 -1.0717 -0.4509
45737SOL    HW247142   2.337   0.869  12.119 -0.3562  1.2448 -0.3458
45738SOL     OW47143   0.624  10.327   6.419 -0.3819  0.6710  0.5307
45738SOL    HW147144   0.628  10.420   6.439  0.1524  0.8277 -0.2467
45738SOL    HW247145   0.562  10.321   6.346 -0.4171  0.4163  0.5819
45739SOL     OW47146   0.976   6.712   1.711  0.4789 -0.0522 -0.1927
45739SOL    HW147147   0.899   6.737   1.660  0.1529 -1.5818 -0.4939
45739SOL    HW247148   0.956   6.741   1.800  0.2558  0.9820 -0.5662
45740SOL     OW47149   4.357   1.763  11.103 -0.5602 -0.2993  0.0603
45740SOL    HW147150   4.269   1.766  11.063 -0.2377  2.3276 -0.6766
45740SOL    HW247151   4.344   1.795  11.192 -0.2383  1.2001 -0.4058
45741SOL     OW47152   5.801  11.802  11.273 -0.6401  0.2532 -0.1148
45741SOL    HW147153   5.751  11.723  11.295  1.1703 -1.3525 -1.3583
45741SOL    HW247154   5.848  11.824  11.353 -1.5439  0.4151  0.3927
45742SOL     OW47155  10.359   6.173  10.909  0.2150  0.1943 -0.5456
45742SOL    HW147156  10.433   6.174  10.849 -0.2854  1.6735 -1.1911
45742SOL    HW247157  10.351   6.264  10.939 -2.2990  0.4449 -1.7424
45743SOL     OW47158   0.422   1.954   0.007  0.0136 -0.7579 -0.0783
45743SOL    HW147159   0.419   1.860  -0.010  0.7473 -0.7616 -0.2229
45743SOL    HW247160   0.331   1.982   0.002 -0.1418 -1.3430 -0.7111
45744SOL     OW47161   0.825   4.172  12.519  0.0500  0.3873 -0.2956
45744SOL    HW147162   0.729   4.170  12.518  0.0365  0.1998  0.4319
45744SOL    HW247163   0.851   4.091  12.475 -0.1473 -0.0729  0.4089
45745SOL     OW47164   3.005   4.456   5.883  0.0205 -0.4177 -0.6643
45745SOL    HW147165   2.918   4.487   5.907  0.4424 -0.5422  1.2029
45745SOL    HW247166   3.044   4.528   5.835 -1.5118 -0.8069 -2.6116
45746SOL     OW47167   3.664   3.199   5.718 -0.1616  0.2498 -0.6679
45746SOL    HW147168   3.688   3.192   5.810 -0.6446  2.5943 -0.3099
45746SOL    HW247169   3.738   3.241   5.676 -0.1135 -0.4296 -1.2936
45747SOL     OW47170   9.152   0.577   0.926  0.2576 -0.7398  0.1480
45747SOL    HW147171   9.178   0.503   0.981 -1.6059 -1.7782 -0.2535
45747SOL    HW247172   9.087   0.540   0.866 -1.7157  1.4402  0.7637
45748SOL     OW47173   8.436  12.576   4.648  0.6171  0.2166 -0.7650
45748SOL    HW147174   8.509  12.628   4.613 -0.8051  3.6186  0.8239
45748SOL    HW247175   8.474  12.526   4.720  1.4835  1.7415 -0.1187
45749SOL     OW47176  10.153   3.773  12.805  0.0672  0.6994 -0.3486
45749SOL    HW147177  10.102   3.841  12.760  0.1860  0.1869 -1.2914
45749SOL    HW247178  10.165   3.705  12.739  3.0657  1.3328 -0.6414
45750SOL     OW47179   3.773  11.797   7.940  0.2839 -0.7285 -0.0561
45750SOL    HW147180   3.757  11.709   7.904 -0.5539 -0.0389 -1.4821
45750SOL    HW247181   3.818  11.844   7.870 -0.2050  0.2814  0.2857
45751SOL     OW47182   9.450  10.702   6.162 -0.2695  0.5117 -0.1582
45751SOL    HW147183   9.365  10.661   6.179 -0.2237  0.0883 -0.8796
45751SOL    HW247184   9.514  10.634   6.181 -0.2303 -0.0611 -2.1482
45752SOL     OW47185   8.285  11.940  13.111 -0.3666  0.4332  0.4708
45752SOL    HW147186   8.256  11.999  13.042 -0.6656  0.1142  0.3184
45752SOL    HW247187   8.381  11.944  13.108 -0.3709  0.1230 -0.2305
45753SOL     OW47188   6.477   9.209   8.446  0.2413  0.3136  0.1091
45753SOL    HW147189   6.549   9.148   8.463  0.3466 -0.1439 -1.7209
45753SOL    HW247190   6.398   9.159   8.467  0.3638 -0.1609 -0.5358
45754SOL     OW47191   0.992   6.270   3.350  0.1647 -0.1268  0.2821
45754SOL    HW147192   1.017   6.362   3.348 -1.1978  0.2452 -1.1311
45754SOL    HW247193   0.986   6.249   3.444  2.5611  0.5705  0.6742
45755SOL     OW47194   3.993   2.437  13.081  0.3986 -0.1511 -0.2950
45755SOL    HW147195   3.974   2.467  12.992 -0.8766  0.5663  0.1878
45755SOL    HW247196   3.953   2.503  13.138 -0.3422 -1.4891  0.8014
45756SOL     OW47197   6.960   0.323  11.782  0.0865  0.2010  0.8046
45756SOL    HW147198   6.944   0.232  11.807  0.7224 -0.1316  0.0304
45756SOL    HW247199   6.946   0.324  11.687  1.1871  0.6595  0.6408
45757SOL     OW47200   5.335   6.620   6.802 -0.0886  0.2260 -0.0028
45757SOL    HW147201   5.398   6.553   6.830 -0.3143  0.1793  0.3980
45757SOL    HW247202   5.268   6.619   6.870 -0.7760 -0.0625 -0.6803
45758SOL     OW47203   1.650  12.418   5.592  0.3053  0.5366  0.0620
45758SOL    HW147204   1.611  12.504   5.607  0.6914  0.8837 -0.8554
45758SOL    HW247205   1.638  12.372   5.675  0.4800  1.6255  0.7196
45759SOL     OW47206   2.566   3.633   4.950 -0.6043  0.5962  0.5720
45759SOL    HW147207   2.503   3.686   4.900 -1.0467  0.7166  1.2476
45759SOL    HW247208   2.532   3.633   5.039 -0.2135 -0.2260  0.7322
45760SOL     OW47209   1.616   1.610  12.728 -0.1573 -0.3658  0.8367
45760SOL    HW147210   1.533   1.657  12.734  0.0329 -0.0703  1.2118
45760SOL    HW247211   1.683   1.678  12.734  0.1123 -0.5275 -0.1429
45761SOL     OW47212   2.196   8.270   4.894 -0.2359  0.1149 -0.6284
45761SOL    HW147213   2.188   8.252   4.987 -0.1684  0.7798 -0.4914
45761SOL    HW247214   2.148   8.199   4.851  0.4359 -0.6671 -0.1226
45762SOL     OW47215   8.360   2.846  11.217 -0.0907 -0.3991 -0.1436
45762SOL    HW147216   8.407   2.855  11.134 -0.0610 -1.1017 -0.2070
45762SOL    HW247217   8.427   2.820  11.280  0.0902  1.1314  0.3470
45763SOL     OW47218  10.623   2.117   1.888 -0.5090  0.0015 -0.3445
45763SOL    HW147219  10.669   2.115   1.972 -0.2761  0.2197 -0.4650
45763SOL    HW247220  10.673   2.058   1.832 -0.7580 -0.2694 -0.2830
45764SOL     OW47221   1.264  12.430   2.924  0.1728 -0.1512 -0.4439
45764SOL    HW147222   1.320  12.354   2.941 -1.9651 -1.6899  0.1332
45764SOL    HW247223   1.230  12.455   3.010  0.6982  1.3977 -0.6486
45765SOL     OW47224   5.349   1.982  12.396  0.5468 -0.1699  0.4684
45765SOL    HW147225   5.411   1.914  12.369  0.1720 -0.6308  0.7578
45765SOL    HW247226   5.375   2.059  12.345  1.0736 -0.4815  0.2533
45766SOL     OW47227   9.661   2.008   5.499 -0.1563 -0.8748  0.0700
45766SOL    HW147228   9.585   2.041   5.452  0.3072  0.1261 -0.0070
45766SOL    HW247229   9.707   1.954   5.435  0.6849  0.7978 -0.8080
45767SOL     OW47230   8.813   1.598   9.140 -0.1337 -0.3872  0.4772
45767SOL    HW147231   8.869   1.617   9.215  0.8189 -0.8685 -0.0891
45767SOL    HW247232   8.805   1.681   9.094  3.7094 -0.9982 -1.7889
45768SOL     OW47233   6.143   8.395   2.664  0.3501  0.1561  0.9320
45768SOL    HW147234   6.089   8.472   2.646  1.7356  1.6478  2.8057
45768SOL    HW247235   6.186   8.376   2.581 -0.8595  0.6883  0.1537
45769SOL     OW47236   5.257   9.699  11.698 -0.2456 -0.1092 -0.0483
45769SOL    HW147237   5.318   9.755  11.747  1.5176 -0.8407 -1.2908
45769SOL    HW247238   5.213   9.758  11.638  0.2437  0.2263 -0.0803
45770SOL     OW47239   0.853  10.638   2.127  0.3748  0.2808 -0.4760
45770SOL    HW147240   0.864  10.726   2.091  0.9869 -0.6035 -2.6373
45770SOL    HW247241   0.854  10.650   2.222  0.2496  2.6052 -0.7085
45771SOL     OW47242  13.107   4.298  12.068  0.4457  0.4825 -0.0348
45771SOL    HW147243  13.050   4.363  12.109  1.3397  2.0096 -1.1101
45771SOL    HW247244  13.139   4.340  11.989  0.1171 -1.7419 -1.4486
45772SOL     OW47245   2.138   1.756   6.102 -0.0656 -0.3469 -0.0490
45772SOL    HW147246   2.182   1.752   6.017 -1.0366  0.4462 -0.6165
45772SOL    HW247247   2.058   1.705   6.090 -0.8242  0.7802 -0.0306
45773SOL     OW47248   2.144  10.262   0.485  0.3663 -0.0840 -0.0969
45773SOL    HW147249   2.230  10.292   0.456  0.9023 -1.1445  0.3338
45773SOL    HW247250   2.138  10.290   0.576  0.1492  0.1959 -0.1956
45774SOL     OW47251   0.859   3.348   8.028  0.1451  0.1928  0.5289
45774SOL    HW147252   0.824   3.410   8.091 -1.7382 -0.6182  0.3654
45774SOL    HW247253   0.931   3.304   8.073  0.6407  1.5616  1.0943
45775SOL     OW47254   9.944  12.408   7.858  0.0568 -0.1284  0.2362
45775SOL    HW147255   9.895  12.491   7.854  1.6755  0.9236  1.1083
45775SOL    HW247256   9.902  12.353   7.792 -1.1939  1.3232 -0.2535
45776SOL     OW47257  12.728   2.071  11.185 -0.0128  0.2554  0.5743
45776SOL    HW147258  12.718   2.153  11.233 -0.0039 -0.4378  1.7879
45776SOL    HW247259  12.816   2.075  11.148  0.7414 -0.0358  2.2713
45777SOL     OW47260   1.607   3.459  10.921 -0.6918 -0.1899 -0.3735
45777SOL    HW147261   1.541   3.453  10.990 -0.0692 -0.3576  0.2077
45777SOL    HW247262   1.691   3.463  10.967 -0.3868  2.3152 -0.9991
45778SOL     OW47263   8.659  12.575  11.169  0.5186 -0.2279 -0.6310
45778SOL    HW147264   8.602  12.594  11.243  0.3024  0.1056 -0.8801
45778SOL    HW247265   8.729  12.640  11.174  1.6218 -1.4520  0.4410
45779SOL     OW47266   4.415   2.569   7.649 -0.2565  0.1084  0.2500
45779SOL    HW147267   4.358   2.610   7.714  2.0517  0.0786  2.4279
45779SOL    HW247268   4.486   2.632   7.636  0.9571 -1.2232  0.2036
45780SOL     OW47269   0.063   5.884   3.687  0.3485 -0.4256 -0.5615
45780SOL    HW147270   0.077   5.912   3.778  1.7008  0.5812 -1.0398
45780SOL    HW247271   0.142   5.835   3.665  0.8103  0.7526 -1.6741
45781SOL     OW47272   7.369  10.780   5.554  0.3681 -0.1234 -0.1159
45781SOL    HW147273   7.350  10.864   5.594  0.1625 -0.3537  0.2723
45781SOL    HW247274   7.459  10.761   5.581  0.8887  0.5782 -1.2777
45782SOL     OW47275   0.921   1.705   1.689 -0.3986 -0.4878  0.3371
45782SOL    HW147276   0.930   1.617   1.726  1.3300  0.0283  1.2568
45782SOL    HW247277   0.948   1.696   1.598 -1.4977 -1.1311  0.0508
45783SOL     OW47278   6.948   1.456   1.204 -0.2726 -0.4058 -0.0176
45783SOL    HW147279   6.927   1.527   1.144  0.1952 -0.8941 -0.7756
45783SOL    HW247280   7.013   1.404   1.157 -0.7023 -1.4098  0.4769
45784SOL     OW47281  10.002   5.552   3.297 -0.0264 -0.4410  0.2400
45784SOL    HW147282  10.073   5.611   3.273 -0.0186  0.0798  1.4903
45784SOL    HW247283   9.935   5.568   3.231  0.1077  0.7403  0.3625
45785SOL     OW47284   9.683   6.098  12.463  0.0521 -0.0049  0.2003
45785SOL    HW147285   9.765   6.126  12.505 -0.2851  0.5388  0.5116
45785SOL    HW247286   9.676   6.005  12.484 -0.0581  0.2351  1.3005
45786SOL     OW47287   3.140   9.348  10.470  0.1344 -0.9239 -0.0311
45786SOL    HW147288   3.111   9.267  10.513 -0.3010 -0.5046  0.4850
45786SOL    HW247289   3.193   9.318  10.396  0.2402 -1.6760  0.3340
45787SOL     OW47290   0.758   8.637  12.388  0.2226 -0.3029 -0.5401
45787SOL    HW147291   0.753   8.703  12.458  1.1291 -1.4658  0.6789
45787SOL    HW247292   0.671   8.598  12.385  0.3795 -0.7596  0.4887
45788SOL     OW47293   8.061  12.014  13.228  0.3271  0.7172  0.8339
45788SOL    HW147294   8.031  12.045  13.142 -0.1467  0.7471  1.0055
45788SOL    HW247295   8.140  11.963  13.209 -0.7008 -0.6958  0.1888
45789SOL     OW47296   1.591   1.220  10.433 -0.0429  0.3137 -0.8466
45789SOL    HW147297   1.548   1.141  10.401 -2.5587  1.6922 -1.0736
45789SOL    HW247298   1.543   1.243  10.513  2.6491 -0.0388  1.0127
45790SOL     OW47299   5.593   2.194  11.865  0.1937  0.5376 -0.0440
45790SOL    HW147300   5.525   2.131  11.889  1.8312 -2.2317 -2.0866
45790SOL    HW247301   5.604   2.183  11.770  2.2359  2.2099 -0.0880
45791SOL     OW47302   3.657   2.737   2.672 -0.2744 -0.3191 -0.0593
45791SOL    HW147303   3.665   2.743   2.768 -3.6991 -0.5144  0.3633
45791SOL    HW247304   3.563   2.738   2.656  0.1887  1.5963 -3.6111
45792SOL     OW47305   7.467  12.903   1.366 -0.4941  0.5581 -0.2738
45792SOL    HW147306   7.497  12.814   1.345  0.2551  0.7350 -0.0176
45792SOL    HW247307   7.461  12.947   1.282  0.3895  0.6327 -0.3114
45793SOL     OW47308  10.673   0.220   1.300 -0.1242 -0.3953  0.1027
45793SOL    HW147309  10.757   0.233   1.344 -0.6590  0.1024  1.0077
45793SOL    HW247310  10.613   0.194   1.370 -0.7676 -0.5670 -0.4984
45794SOL     OW47311   3.319   6.836   6.675  0.2711 -0.1592  0.1822
45794SOL    HW147312   3.328   6.925   6.641  0.9126 -1.1727 -2.5848
45794SOL    HW247313   3.229   6.811   6.655  0.0237 -0.0914  1.1525
45795SOL     OW47314  11.675   0.193   6.435 -0.2686 -0.4289 -0.4911
45795SOL    HW147315  11.736   0.180   6.507  0.1356 -0.9257 -0.9228
45795SOL    HW247316  11.591   0.159   6.468 -1.2036  3.1298  1.3326
45796SOL     OW47317   5.744   8.521   5.904 -0.3249 -0.1656 -0.2695
45796SOL    HW147318   5.793   8.549   5.827 -1.1408 -1.6423 -1.3790
45796SOL    HW247319   5.721   8.603   5.948  1.4605  0.6418 -0.7343
45797SOL     OW47320   4.929   1.858   5.798  0.2673 -0.6150 -0.5810
45797SOL    HW147321   4.933   1.765   5.773 -0.0989 -1.3877  1.9054
45797SOL    HW247322   4.968   1.860   5.886 -0.6316  1.4360 -0.1780
45798SOL     OW47323  11.675  11.134   4.924 -0.2613 -0.0025 -0.5070
45798SOL    HW147324  11.705  11.203   4.865  0.5175 -1.5320 -1.9830
45798SOL    HW247325  11.730  11.058   4.904  0.0204 -0.6262  2.2091
45799SOL     OW47326  12.053   8.043   1.707  0.2273  0.3281 -0.8278
45799SOL    HW147327  12.041   7.958   1.749  1.6798  0.3483 -0.3259
45799SOL    HW247328  12.014   8.033   1.620  0.6621 -0.9581 -0.8942
45800SOL     OW47329   2.734   4.102  10.670 -0.1497  0.2129 -0.3872
45800SOL    HW147330   2.740   4.074  10.579  0.1249  0.8090 -0.5547
45800SOL    HW247331   2.785   4.182  10.674 -0.4927  0.4102  0.2047
45801SOL     OW47332  13.139   3.287   1.389 -0.2571 -0.3841 -0.0872
45801SOL    HW147333  13.195   3.303   1.313  1.8930  1.9604  1.8243
45801SOL    HW247334  13.054   3.325   1.365  1.0636  2.5711 -0.5640
45802SOL     OW47335   5.844   8.906   3.457 -0.3742 -0.0380 -0.1948
45802SOL    HW147336   5.906   8.847   3.500 -1.2781 -1.1337 -0.3227
45802SOL    HW247337   5.857   8.889   3.363  0.6898  1.3948 -0.3340
45803SOL     OW47338   5.113  12.799  12.706 -0.0910  0.3516 -0.0897
45803SOL    HW147339   5.080  12.888  12.716 -0.2246  0.2371  0.5593
45803SOL    HW247340   5.052  12.745  12.758 -0.2487 -0.1669 -0.8039
45804SOL     OW47341   5.001   8.597   6.867  0.4044  0.1986  0.0333
45804SOL    HW147342   4.921   8.612   6.917  1.0106 -0.0432  1.1000
45804SOL    HW247343   5.057   8.671   6.888  1.2137 -0.6162  0.8614
45805SOL     OW47344   8.342   9.722   0.150 -0.4238  0.2657 -0.1487
45805SOL    HW147345   8.352   9.808   0.191  1.3226  0.7195 -1.3966
45805SOL    HW247346   8.311   9.665   0.220 -0.7190  1.7060  0.9366
45806SOL     OW47347   9.351  11.870  13.139  0.0598  0.3848  0.1331
45806SOL    HW147348   9.400  11.893  13.218  0.7975 -0.3533 -0.0930
45806SOL    HW247349   9.282  11.936  13.133  1.8356  2.2919 -0.2694
45807SOL     OW47350   1.188  11.834  10.419 -0.4374 -0.2313 -0.0593
45807SOL    HW147351   1.275  11.813  10.452 -0.6649 -0.2949  0.5210
45807SOL    HW247352   1.196  11.923  10.385  0.6947 -1.3825 -3.1243
45808SOL     OW47353   3.385   6.705   5.396 -0.0862  0.2896  0.3839
45808SOL    HW147354   3.454   6.735   5.336  0.3072 -0.2903  0.5337
45808SOL    HW247355   3.305   6.746   5.364  0.1208 -0.0005 -0.5345
45809SOL     OW47356   2.675  10.628   4.439 -0.1637  0.2029  0.3897
45809SOL    HW147357   2.688  10.660   4.528  1.0032  0.8342  0.0118
45809SOL    HW247358   2.582  10.605   4.435 -0.4152  0.9437  1.5108
45810SOL     OW47359   9.041  12.410   6.694  0.0908  0.1775  0.2941
45810SOL    HW147360   9.019  12.390   6.785 -0.4286 -1.9470 -0.2303
45810SOL    HW247361   9.043  12.505   6.690 -1.0102  0.3450  2.2646
45811SOL     OW47362   9.550   8.977   6.481  0.3726 -0.6667  0.4868
45811SOL    HW147363   9.484   8.922   6.524  0.6449 -0.7280  0.8316
45811SOL    HW247364   9.615   8.914   6.448 -0.2012 -0.6868 -0.6883
45812SOL     OW47365   6.534   7.332  11.269  0.4252 -0.6317 -0.7722
45812SOL    HW147366   6.446   7.370  11.274 -0.4426 -2.5402 -0.6473
45812SOL    HW247367   6.586   7.386  11.328 -0.2838  1.3822 -1.8539
45813SOL     OW47368  10.836  10.316   5.679 -0.0772  0.4468  0.2203
45813SOL    HW147369  10.865  10.239   5.629 -2.0485 -0.2697  0.0655
45813SOL    HW247370  10.885  10.389   5.643  0.2636 -0.4267 -1.1509
45814SOL     OW47371   4.198  12.446  10.601  0.3498 -0.1552 -0.0037
45814SOL    HW147372   4.219  12.514  10.666 -2.2314  1.4896 -0.7491
45814SOL    HW247373   4.127  12.396  10.641 -0.8374  0.4761 -1.2782
45815SOL     OW47374  10.340   3.644  10.265 -0.0952  0.0795 -0.0833
45815SOL    HW147375  10.335   3.660  10.171 -0.8672  0.8162  0.0678
45815SOL    HW247376  10.394   3.715  10.299  0.6118 -0.4719 -0.0201
45816SOL     OW47377   1.649   5.052   0.437 -0.0190 -0.0527 -0.0922
45816SOL    HW147378   1.588   4.978   0.446 -0.7661  0.6984  1.4186
45816SOL    HW247379   1.660   5.063   0.342 -1.6478 -0.6885 -0.3889
45817SOL     OW47380   1.654   1.715   2.014  0.2657  0.4865  0.1947
45817SOL    HW147381   1.580   1.694   1.958 -0.7242  0.2945  1.5286
45817SOL    HW247382   1.715   1.762   1.957 -0.7362  0.3731 -0.9991
45818SOL     OW47383  11.588   5.658   5.628 -0.1678 -0.0960 -0.4521
45818SOL    HW147384  11.601   5.595   5.698  3.5271 -0.5561 -1.3511
45818SOL    HW247385  11.598   5.607   5.547 -2.1259  0.8182 -1.3611
45819SOL     OW47386   2.956   0.778   8.617 -0.3965 -0.2734 -0.2125
45819SOL    HW147387   2.963   0.704   8.557 -1.4221 -0.8244  0.3170
45819SOL    HW247388   2.870   0.768   8.658  0.0199  0.4305  0.8861
45820SOL     OW47389   1.851   8.008  13.062 -0.1265  0.3182  0.0329
45820SOL    HW147390   1.906   8.021  12.985 -0.1637 -1.9696 -0.4545
45820SOL    HW247391   1.911   8.020  13.136  0.7075 -0.5959 -0.4588
45821SOL     OW47392   2.754   8.972   4.049 -0.1004 -0.0645  0.1352
45821SOL    HW147393   2.742   8.946   3.958  0.5411  0.0378  0.0228
45821SOL    HW247394   2.826   8.917   4.081 -1.6399 -1.5980  1.1883
45822SOL     OW47395  12.097   0.617   8.371  0.3825 -0.1218  0.1470
45822SOL    HW147396  12.003   0.599   8.383  0.5560 -1.9282 -0.8470
45822SOL    HW247397  12.136   0.599   8.457 -0.1111  0.1285  0.4285
45823SOL     OW47398   8.610   6.902  11.335 -0.0247 -0.4110 -0.0053
45823SOL    HW147399   8.584   6.987  11.369  2.8834  0.5730  0.0623
45823SOL    HW247400   8.597   6.908  11.240 -0.2731 -0.0485  0.0535
45824SOL     OW47401  11.309   3.924   5.246 -0.9365 -0.9586  0.6239
45824SOL    HW147402  11.269   3.908   5.160 -1.4150  0.1059  0.6370
45824SOL    HW247403  11.369   3.851   5.258 -0.3376 -0.7652 -0.9345
45825SOL     OW47404   9.479   4.732   4.995 -0.1763 -0.0200 -0.1772
45825SOL    HW147405   9.482   4.759   5.087 -0.4197 -0.1093 -0.1432
45825SOL    HW247406   9.442   4.807   4.950  0.1660  0.1163 -0.2392
45826SOL     OW47407  12.956   3.159   6.238  0.2730 -0.4985 -0.0695
45826SOL    HW147408  12.983   3.069   6.222 -2.9735 -1.5755 -0.3619
45826SOL    HW247409  12.992   3.209   6.164  1.3364 -1.7251 -0.4048
45827SOL     OW47410   8.764   9.301   1.413 -0.2936  0.1583  0.0633
45827SOL    HW147411   8.838   9.271   1.465 -0.1488 -1.5224 -1.0537
45827SOL    HW247412   8.718   9.221   1.388 -0.4249  0.8970 -2.2879
45828SOL     OW47413   6.122   5.392  11.068  0.3938  0.3238  0.3930
45828SOL    HW147414   6.032   5.364  11.088  0.3132 -0.5608 -1.0473
45828SOL    HW247415   6.129   5.479  11.107 -1.9063  1.4610 -1.4176
45829SOL     OW47416   7.737   5.660   4.319  0.1538  0.2666 -0.0901
45829SOL    HW147417   7.677   5.585   4.315 -0.1544  0.5519 -1.8160
45829SOL    HW247418   7.686   5.729   4.362 -0.1083 -0.0597  0.1293
45830SOL     OW47419   2.349   8.061   1.988 -0.5667 -0.5293  0.3862
45830SOL    HW147420   2.268   8.012   2.005 -0.0241 -1.8597 -0.6816
45830SOL    HW247421   2.370   8.041   1.897  1.6052 -1.1981  0.9740
45831SOL     OW47422   1.582   8.047   2.642 -0.5791 -0.0422 -0.7168
45831SOL    HW147423   1.545   7.959   2.648 -0.8957  0.1415  0.4477
45831SOL    HW247424   1.524   8.101   2.696 -0.3104  0.8546 -1.2969
45832SOL     OW47425   6.047   8.551   9.087  0.1945 -0.5751  0.2177
45832SOL    HW147426   6.064   8.549   9.181 -0.1556 -0.0221  0.2970
45832SOL    HW247427   6.064   8.641   9.060 -1.7705 -0.1807  0.1648
45833SOL     OW47428   4.042   3.276   2.008 -0.0092  0.4856 -0.1361
45833SOL    HW147429   3.987   3.209   2.049 -1.0658  1.5018  0.1734
45833SOL    HW247430   4.015   3.277   1.917  1.3083 -0.7524 -0.5791
45834SOL     OW47431   5.612   2.035   4.919  0.3466 -0.2614  0.3009
45834SOL    HW147432   5.614   1.939   4.913  1.5389 -0.1715 -1.8041
45834SOL    HW247433   5.577   2.063   4.835  5.4915  1.1752 -1.7585
45835SOL     OW47434  11.750   8.676  11.379 -0.4019 -0.9449  0.2752
45835SOL    HW147435  11.818   8.737  11.351  0.2155 -1.1465  1.2916
45835SOL    HW247436  11.671   8.706  11.333  0.0644  0.1190  0.1260
45836SOL     OW47437  10.770   2.841  11.775  0.5885 -0.3158 -0.1091
45836SOL    HW147438  10.776   2.936  11.787 -0.7654  0.0067 -1.6592
45836SOL    HW247439  10.826   2.823  11.699 -1.0386 -0.3427 -1.3698
45837SOL     OW47440   8.685   8.443   8.997  0.1735  0.0367  0.5399
45837SOL    HW147441   8.626   8.517   9.014 -0.6567 -0.5213  0.1366
45837SOL    HW247442   8.766   8.484   8.965  0.2633  0.8501  1.7585
45838SOL     OW47443   3.881   6.939   2.965 -0.8078  0.3955 -0.5163
45838SOL    HW147444   3.941   6.984   3.025 -1.1439 -0.7907  0.7609
45838SOL    HW247445   3.935   6.872   2.924 -0.6752  0.9539 -1.2775
45839SOL     OW47446   7.494   1.949   3.802 -0.5340  0.0562 -0.1810
45839SOL    HW147447   7.447   1.923   3.881  0.1138 -0.8209 -0.0719
45839SOL    HW247448   7.552   2.019   3.830  1.2831 -1.6845  0.6510
45840SOL     OW47449   1.751   3.583   8.855  0.2601 -0.4576  0.0682
45840SOL    HW147450   1.778   3.649   8.918  1.2945  0.0642 -0.8869
45840SOL    HW247451   1.666   3.613   8.824  1.1468  1.0035 -1.0846
45841SOL     OW47452   4.214   4.078   5.471  0.1518  0.1755 -0.5282
45841SOL    HW147453   4.255   4.147   5.418  2.2013  0.7164  1.5568
45841SOL    HW247454   4.126   4.111   5.490 -0.2454  0.4411 -2.6534
45842SOL     OW47455   6.225  12.126   5.122  1.0341 -0.4801 -0.0515
45842SOL    HW147456   6.257  12.060   5.184  1.9958 -0.9693 -1.0478
45842SOL    HW247457   6.210  12.078   5.041  2.0629  0.5525 -0.8968
45843SOL     OW47458   9.597   2.645   5.081 -0.3122  0.4619  0.1992
45843SOL    HW147459   9.632   2.733   5.070 -1.3274  1.2916  2.8684
45843SOL    HW247460   9.674   2.590   5.098  0.4265  0.5696 -2.4055
45844SOL     OW47461   8.943  10.260  12.316 -0.2335  0.0223 -0.3465
45844SOL    HW147462   8.957  10.345  12.357 -0.6622 -0.4250  0.7655
45844SOL    HW247463   8.935  10.199  12.389  1.4780 -1.2209 -1.1386
45845SOL     OW47464  12.094  12.917   0.579 -0.4015 -0.5578 -0.6328
45845SOL    HW147465  12.012  12.963   0.596 -0.7382 -1.7497  1.2495
45845SOL    HW247466  12.155  12.986   0.552 -1.0701  0.9374  1.4224
45846SOL     OW47467   1.845   7.408  12.305  0.5351  0.2570  0.4472
45846SOL    HW147468   1.811   7.468  12.371  0.1448 -0.8714  1.2998
45846SOL    HW247469   1.874   7.331  12.354  2.3541  0.3017 -0.4641
45847SOL     OW47470   4.830  10.490   5.109  0.4655 -0.4924  0.3511
45847SOL    HW147471   4.802  10.401   5.127 -1.7806 -0.6990 -3.1233
45847SOL    HW247472   4.761  10.545   5.145 -0.5610 -0.5396 -1.3957
45848SOL     OW47473   2.064   0.218   8.223 -0.0676  0.0475  0.5180
45848SOL    HW147474   2.046   0.126   8.242 -0.0774  0.0826  0.6749
45848SOL    HW247475   1.980   0.262   8.239  0.0836  0.1680  0.9695
45849SOL     OW47476   4.797  10.011  10.578  0.3557  0.4376  0.1941
45849SOL    HW147477   4.779  10.103  10.556 -1.1409 -0.0226 -0.6134
45849SOL    HW247478   4.721   9.963  10.545  0.0373 -0.8524  2.5935
45850SOL     OW47479   4.410   0.134   3.025  0.5226  0.2373  0.2271
45850SOL    HW147480   4.409   0.226   3.052 -0.2860  0.4121 -0.3737
45850SOL    HW247481   4.479   0.094   3.079  0.3212  1.0127  1.0856
45851SOL     OW47482   5.019   5.610  13.256 -0.0797 -0.0302  0.4155
45851SOL    HW147483   5.093   5.669  13.252  0.8343 -1.1204  0.7606
45851SOL    HW247484   5.057   5.525  13.278 -1.3110 -0.8377 -0.4624
45852SOL     OW47485   6.655   7.407   9.733 -0.3372 -0.2289 -0.2421
45852SOL    HW147486   6.719   7.373   9.670 -0.0632  2.3005 -1.4523
45852SOL    HW247487   6.693   7.489   9.764 -1.9709  0.1938  0.7723
45853SOL     OW47488   2.285   2.326   6.079  0.2613  0.1264 -0.0869
45853SOL    HW147489   2.224   2.260   6.111 -0.0219  0.4553  0.0492
45853SOL    HW247490   2.368   2.279   6.070 -0.3882 -0.7576 -1.9292
45854SOL     OW47491   6.282   8.739  10.204 -0.5520  0.3019 -0.1524
45854SOL    HW147492   6.353   8.747  10.268 -0.7693 -0.2488  0.1620
45854SOL    HW247493   6.310   8.667  10.147  0.0365  1.3190 -1.2068
45855SOL     OW47494  12.507  11.285   2.353  0.3811  0.0086  0.2492
45855SOL    HW147495  12.519  11.191   2.362  2.1461  0.1006 -0.5296
45855SOL    HW247496  12.581  11.313   2.299  0.0478  1.8800  0.6780
45856SOL     OW47497  10.424   4.886  12.469  0.6827 -0.1251  0.3182
45856SOL    HW147498  10.374   4.966  12.487  0.4358 -0.0885 -0.4585
45856SOL    HW247499  10.357   4.818  12.459  0.8773 -0.3834  0.7473
45857SOL     OW47500   8.102   9.865   9.876  0.0566  0.1634  0.0570
45857SOL    HW147501   8.058   9.786   9.906  1.9684 -0.9227  0.1583
45857SOL    HW247502   8.036   9.934   9.885 -1.9434 -1.5237 -0.8198
45858SOL     OW47503   7.973   2.470   4.257  0.1050  0.0663 -0.0425
45858SOL    HW147504   7.926   2.494   4.177  1.9823 -0.3415 -1.3286
45858SOL    HW247505   8.015   2.386   4.236 -1.3683 -1.3835  2.2661
45859SOL     OW47506   5.459   5.303   9.331 -0.1642  0.3643 -0.2894
45859SOL    HW147507   5.515   5.380   9.336  1.6978 -0.9682  0.5919
45859SOL    HW247508   5.439   5.282   9.422  1.3017 -1.5055 -0.3535
45860SOL     OW47509   7.105  12.706  12.003  0.3360  0.3204  0.4569
45860SOL    HW147510   7.122  12.717  12.096 -0.0346 -0.2448  0.5983
45860SOL    HW247511   7.135  12.617  11.984 -0.7243 -0.0174  0.3106
45861SOL     OW47512   1.304   9.329   1.804 -0.0360  0.2890  0.3961
45861SOL    HW147513   1.352   9.408   1.830  0.5299  0.2372 -0.4371
45861SOL    HW247514   1.305   9.273   1.882 -1.7710  1.7121  1.4902
45862SOL     OW47515   2.016  10.916  11.640 -0.0258 -0.4263  0.0033
45862SOL    HW147516   1.930  10.957  11.627  0.3159 -0.3291 -2.2981
45862SOL    HW247517   2.062  10.975  11.699 -0.8790  0.5307 -0.2559
45863SOL     OW47518   9.952   7.721   0.976 -0.4518 -0.1338  0.0333
45863SOL    HW147519  10.038   7.692   1.006  1.1547  2.8244 -1.2540
45863SOL    HW247520   9.917   7.771   1.049 -0.2924  0.0539 -0.0149
45864SOL     OW47521  10.316   8.464   2.149 -0.0486  0.1701 -0.0107
45864SOL    HW147522  10.362   8.388   2.114  0.1323 -0.2393  1.0723
45864SOL    HW247523  10.232   8.465   2.103 -0.1006 -0.7615  0.0455
45865SOL     OW47524  12.055   0.281   7.235  0.1073 -0.4069  0.0791
45865SOL    HW147525  11.971   0.291   7.280  0.4234 -2.0775  1.1078
45865SOL    HW247526  12.045   0.333   7.155 -1.3830  0.5823  0.8501
45866SOL     OW47527  12.645  11.481   9.698 -0.1765 -0.2208 -0.2476
45866SOL    HW147528  12.718  11.525   9.654 -0.6868  0.0572 -0.8211
45866SOL    HW247529  12.659  11.388   9.681  0.1423 -0.1848 -0.1978
45867SOL     OW47530  11.689   7.751   7.833 -0.2961 -0.1504 -0.1251
45867SOL    HW147531  11.674   7.774   7.741 -0.5934  0.8168  0.1550
45867SOL    HW247532  11.623   7.685   7.853  0.7155 -1.5064 -1.0120
45868SOL     OW47533   9.432   3.671   8.067  0.7925  0.4222  0.0414
45868SOL    HW147534   9.401   3.589   8.028 -0.6950  0.2184  1.5609
45868SOL    HW247535   9.354   3.724   8.079  1.6531  1.7988 -0.2844
45869SOL     OW47536   0.333   5.347  13.235 -0.2424  0.6578  0.3139
45869SOL    HW147537   0.285   5.264  13.235  1.2997 -0.2722  1.3711
45869SOL    HW247538   0.371   5.352  13.323 -0.1818  2.4334  0.2139
45870SOL     OW47539   4.394   6.831   9.650  0.9252  0.1557  0.0837
45870SOL    HW147540   4.484   6.816   9.680  1.0812 -2.2242 -1.3268
45870SOL    HW247541   4.341   6.772   9.704  0.3145  0.8294  0.2318
45871SOL     OW47542   6.940   8.800   6.453 -0.4348  0.2597  0.1257
45871SOL    HW147543   6.959   8.706   6.454 -0.0393  0.3364  0.2696
45871SOL    HW247544   6.971   8.829   6.367 -1.5943  0.0593 -0.3680
45872SOL     OW47545   3.249   5.521   9.863  0.0854  0.5114  0.3714
45872SOL    HW147546   3.231   5.470   9.784 -0.3226 -0.7804  1.2494
45872SOL    HW247547   3.341   5.504   9.882 -0.3783 -1.1120  1.4272
45873SOL     OW47548   9.795   6.540   4.323  0.4869  0.9829 -0.1080
45873SOL    HW147549   9.880   6.505   4.350  0.0033  0.1935  0.4471
45873SOL    HW247550   9.777   6.497   4.240  0.5785  1.0675 -0.1721
45874SOL     OW47551   2.689   0.607   4.935 -0.2288  0.2372  0.2887
45874SOL    HW147552   2.712   0.657   5.014  1.1372 -0.7965  0.5826
45874SOL    HW247553   2.697   0.516   4.961 -1.6956 -0.1498 -0.5336
45875SOL     OW47554   1.034   2.466   3.012 -0.1310 -0.0763 -0.6637
45875SOL    HW147555   1.047   2.372   3.028  2.9914  0.4243  0.4666
45875SOL    HW247556   0.999   2.500   3.095  0.6298  0.0342 -0.3800
45876SOL     OW47557   6.525   4.458   0.434 -0.1474 -0.4248  0.1021
45876SOL    HW147558   6.613   4.494   0.425  0.1529 -0.9541  0.7642
45876SOL    HW247559   6.504   4.425   0.347 -0.5378  1.5230 -0.5842
45877SOL     OW47560  12.769   2.649   0.162  0.4930  0.4238  0.1719
45877SOL    HW147561  12.705   2.702   0.209  0.1997  0.9515 -0.7888
45877SOL    HW247562  12.750   2.664   0.070  1.4967 -0.0376 -0.1333
45878SOL     OW47563   4.869  10.830   3.608  0.1890  0.2414 -0.0369
45878SOL    HW147564   4.787  10.878   3.613  0.1361  0.2617 -1.0484
45878SOL    HW247565   4.864  10.766   3.680  0.1312  1.5188  1.1340
45879SOL     OW47566  10.458   4.453   7.437 -0.0454  0.4238  0.9961
45879SOL    HW147567  10.530   4.493   7.485  0.1083  2.2498 -0.6714
45879SOL    HW247568  10.500   4.405   7.365 -0.3964  4.0695 -1.9305
45880SOL     OW47569   4.909   3.793   7.344 -0.1094 -0.2360  0.3042
45880SOL    HW147570   4.816   3.771   7.342 -0.9496  2.9713 -1.2606
45880SOL    HW247571   4.949   3.735   7.279 -1.3518 -0.3748 -0.3598
45881SOL     OW47572   0.955   9.042   2.120  0.0847 -0.5309  0.3045
45881SOL    HW147573   0.874   9.087   2.096  1.2138  0.0211 -2.9973
45881SOL    HW247574   1.015   9.113   2.146  0.9298 -0.3198 -1.9966
45882SOL     OW47575   7.837   4.204  13.167  0.3128 -0.0863 -0.1488
45882SOL    HW147576   7.866   4.113  13.163  2.5337  0.4814  1.0934
45882SOL    HW247577   7.846   4.227  13.260 -0.5558  1.3272 -0.3850
45883SOL     OW47578  12.842   7.654   1.253 -0.4206 -0.2094 -0.1943
45883SOL    HW147579  12.853   7.560   1.262  2.9359  0.1359  0.8174
45883SOL    HW247580  12.927   7.691   1.278 -1.5339  3.0937 -0.7047
45884SOL     OW47581   4.151   4.511  12.832 -0.3256  0.4702  0.3693
45884SOL    HW147582   4.070   4.482  12.876 -0.5644 -1.9270 -1.4417
45884SOL    HW247583   4.130   4.598  12.799 -1.2244  0.9905  2.1794
45885SOL     OW47584   5.918  10.350  13.272 -1.0993  0.9499  0.4162
45885SOL    HW147585   5.829  10.317  13.288 -0.4361 -1.0944  0.2728
45885SOL    HW247586   5.971  10.270  13.262  0.4458  2.1009 -1.2284
45886SOL     OW47587   6.026   4.717   0.442  0.3742 -0.0403 -0.1303
45886SOL    HW147588   6.078   4.641   0.471  0.2687 -0.3705 -0.7979
45886SOL    HW247589   6.088   4.769   0.390  0.7745  0.9348  1.2697
45887SOL     OW47590   5.325   1.307  12.472 -0.1592 -0.3075  0.3443
45887SOL    HW147591   5.288   1.363  12.540 -0.7798 -0.0142 -0.2272
45887SOL    HW247592   5.419   1.327  12.472 -0.2048 -0.0847  0.8966
45888SOL     OW47593   3.077  11.038   4.114 -0.0504  0.2927 -0.3999
45888SOL    HW147594   3.039  11.111   4.164 -0.2833 -1.0195  1.4138
45888SOL    HW247595   3.169  11.035   4.142 -0.2848 -0.7127  0.3109
45889SOL     OW47596  12.884   2.341   8.697  0.3139  0.5984  0.1326
45889SOL    HW147597  12.793   2.366   8.711  0.3420  0.3337  0.8779
45889SOL    HW247598  12.908   2.379   8.613 -0.7775 -0.1524 -0.5293
45890SOL     OW47599   0.429   1.062   1.167 -0.3095 -0.7591  0.2241
45890SOL    HW147600   0.434   1.095   1.077 -0.4190 -2.5140 -0.4663
45890SOL    HW247601   0.413   1.139   1.220  0.1766  0.3794 -1.2199
45891SOL     OW47602   2.153   2.715   7.989 -0.3182  0.0237 -0.3095
45891SOL    HW147603   2.184   2.644   8.046 -0.7544 -0.1988 -0.3480
45891SOL    HW247604   2.059   2.702   7.984 -0.4761  0.9710  0.1744
45892SOL     OW47605   5.574   2.894   7.076 -0.1843  0.0399 -0.5959
45892SOL    HW147606   5.654   2.843   7.085 -0.8130 -0.7485  0.9436
45892SOL    HW247607   5.594   2.958   7.008  1.6805 -0.2739 -0.4049
45893SOL     OW47608   2.583  12.606  10.178  0.3328  0.8762  0.2456
45893SOL    HW147609   2.495  12.625  10.213  0.9430  1.0431  1.7559
45893SOL    HW247610   2.636  12.680  10.208  1.1135  0.5040 -0.2111
45894SOL     OW47611   3.728  10.368  10.836 -0.1492 -0.3570  0.3471
45894SOL    HW147612   3.701  10.316  10.760  0.2573 -0.5027  0.3007
45894SOL    HW247613   3.784  10.310  10.886  0.1976 -0.0114  0.3676
45895SOL     OW47614   6.482  10.479   7.369  0.1616  0.1858 -0.0544
45895SOL    HW147615   6.452  10.399   7.327 -0.0713  0.7915 -1.0919
45895SOL    HW247616   6.402  10.520   7.403  0.0557  0.7681 -0.9688
45896SOL     OW47617   0.577  10.504   0.889 -0.0526  0.0762  0.1282
45896SOL    HW147618   0.505  10.532   0.832 -0.5747 -0.7105  0.3871
45896SOL    HW247619   0.534  10.481   0.972  0.5365 -0.0855  0.3917
45897SOL     OW47620  11.251   9.190   0.569  0.2331  0.0486  0.0899
45897SOL    HW147621  11.319   9.122   0.562 -0.2799 -0.4076 -0.5853
45897SOL    HW247622  11.243   9.224   0.480  1.3479  1.8780  0.6367
45898SOL     OW47623   0.689   1.247  12.490 -0.2045  0.4524  0.4375
45898SOL    HW147624   0.751   1.214  12.554  0.0247  0.1050  0.0430
45898SOL    HW247625   0.619   1.182  12.488 -0.7379  0.9980  1.1047
45899SOL     OW47626   2.914   2.644   3.872  0.3356  0.0778 -0.7295
45899SOL    HW147627   2.844   2.580   3.857  0.8518 -0.3333 -1.4707
45899SOL    HW247628   2.938   2.632   3.964 -0.2880 -0.0650 -0.5814
45900SOL     OW47629   8.085  11.528  12.028  0.3062 -0.3057 -0.3414
45900SOL    HW147630   8.159  11.552  12.083  0.2348  0.1813 -0.4546
45900SOL    HW247631   8.098  11.434  12.010  0.2376 -0.5125  0.6361
45901SOL     OW47632   1.446   3.547   7.683  0.7898  0.3011  0.1983
45901SOL    HW147633   1.455   3.461   7.642 -1.2517 -0.3197  0.9188
45901SOL    HW247634   1.486   3.536   7.769 -1.1933 -0.6101  1.0777
45902SOL     OW47635   5.456   3.887   0.946  0.4141 -0.3436  0.0458
45902SOL    HW147636   5.531   3.933   0.984  0.5738 -0.8613  0.3638
45902SOL    HW247637   5.387   3.896   1.011  0.7422 -1.3852  0.5595
45903SOL     OW47638   2.355   9.976  10.215  0.1827 -0.4181  0.1168
45903SOL    HW147639   2.392   9.926  10.143 -0.2767 -1.7692  0.7776
45903SOL    HW247640   2.384   9.930  10.294  0.2091  0.6938  0.7705
45904SOL     OW47641   8.276   6.798   7.379 -0.6872  0.0690 -0.3226
45904SOL    HW147642   8.188   6.835   7.370 -0.3676  0.7560 -0.7061
45904SOL    HW247643   8.332   6.857   7.328  0.0937  0.0008  0.4305
45905SOL     OW47644  10.437  11.675   6.725  0.2380 -0.2923  0.3691
45905SOL    HW147645  10.494  11.730   6.671  0.8905 -1.6488 -0.3769
45905SOL    HW247646  10.462  11.696   6.815  0.4507  0.6330  0.1094
45906SOL     OW47647   8.489   8.754   1.285 -0.3421  0.1715 -0.4322
45906SOL    HW147648   8.484   8.662   1.310  3.3693 -0.1699 -0.3098
45906SOL    HW247649   8.459   8.802   1.362 -1.0172 -0.8997 -0.0027
45907SOL     OW47650  11.407  12.092   7.427 -0.1231 -0.1303 -0.2613
45907SOL    HW147651  11.324  12.137   7.408 -0.1773 -0.3981 -0.6607
45907SOL    HW247652  11.452  12.089   7.342  0.2704 -0.0416 -0.0565
45908SOL     OW47653   5.461   6.947  11.423  0.5345 -0.5558 -0.2889
45908SOL    HW147654   5.383   6.996  11.451  0.8924 -0.1031 -0.0769
45908SOL    HW247655   5.445   6.929  11.330 -0.7359 -2.2159  0.1932
45909SOL     OW47656   7.056  12.851   3.765 -0.0261  0.0164  0.0216
45909SOL    HW147657   7.122  12.853   3.696  1.8890 -0.4096  1.7496
45909SOL    HW247658   7.064  12.935   3.809  0.6400 -0.7142  1.3545
45910SOL     OW47659   1.588   7.473   8.201 -0.0418  0.3580  0.1848
45910SOL    HW147660   1.543   7.555   8.221 -0.1495 -0.1905  2.3852
45910SOL    HW247661   1.677   7.485   8.235  0.1947 -0.1437 -0.2353
45911SOL     OW47662   5.240   8.984   2.626  0.3632  0.2711  0.0732
45911SOL    HW147663   5.238   9.004   2.532 -0.4995 -0.0918  0.0141
45911SOL    HW247664   5.177   9.044   2.665  1.2581  0.9421  0.5375
45912SOL     OW47665   6.611   9.122   9.864 -0.0385  0.2784  0.4089
45912SOL    HW147666   6.550   9.067   9.814  0.0045  1.1731 -0.6329
45912SOL    HW247667   6.574   9.210   9.859 -0.1116  0.3785  2.0855
45913SOL     OW47668   0.422   1.378  10.540 -0.9653 -0.1035  0.3982
45913SOL    HW147669   0.397   1.432  10.615 -1.5849 -0.6506  0.5972
45913SOL    HW247670   0.411   1.288  10.571  0.3094 -0.3652  0.1620
45914SOL     OW47671  12.281   2.233   7.447  0.4156  0.0009 -0.3956
45914SOL    HW147672  12.345   2.208   7.380 -0.3557 -0.5534 -0.9422
45914SOL    HW247673  12.268   2.154   7.499  0.9651  0.4118  0.3880
45915SOL     OW47674   3.420   7.109   0.679  0.7343 -0.9030 -0.1281
45915SOL    HW147675   3.414   7.132   0.586  0.3403 -0.5105 -0.0061
45915SOL    HW247676   3.374   7.025   0.685  0.0453 -0.5319 -0.1493
45916SOL     OW47677   1.312   9.259   1.421 -0.0926 -0.0735 -0.8392
45916SOL    HW147678   1.375   9.277   1.490 -0.8521 -0.7242  0.0479
45916SOL    HW247679   1.340   9.314   1.348  0.7489  0.5874 -0.0406
45917SOL     OW47680  11.518   1.257   8.675 -0.0431  0.2712 -0.3564
45917SOL    HW147681  11.467   1.337   8.692  0.2657  0.6889 -1.2869
45917SOL    HW247682  11.458   1.185   8.694 -0.0976  0.7015  1.2066
45918SOL     OW47683  11.022   8.598   1.888  0.3065 -0.2935  0.1624
45918SOL    HW147684  11.004   8.648   1.808  1.3217 -0.1062  0.0328
45918SOL    HW247685  11.080   8.528   1.859 -0.7908 -1.3419  0.4176
45919SOL     OW47686  12.261   3.681   4.495  0.1561 -0.1318 -0.3230
45919SOL    HW147687  12.218   3.638   4.421  1.1348 -1.8898  0.0697
45919SOL    HW247688  12.197   3.677   4.566  0.6797 -2.2932  0.1181
45920SOL     OW47689   9.422  12.548  10.243 -0.3029  0.1235  0.3160
45920SOL    HW147690   9.491  12.576  10.183  0.2793 -0.9202  0.4694
45920SOL    HW247691   9.358  12.505  10.187 -0.4025  0.3099  0.2859
45921SOL     OW47692   5.425   2.872   1.103 -0.0528 -0.2012  0.4967
45921SOL    HW147693   5.362   2.805   1.077 -0.0349  0.2335 -0.7228
45921SOL    HW247694   5.501   2.824   1.133 -1.4607 -0.7866  3.4972
45922SOL     OW47695  10.328  10.107  11.452  0.1876  0.3615  0.0074
45922SOL    HW147696  10.365  10.142  11.533 -0.7144  0.0443  0.5761
45922SOL    HW247697  10.404  10.084  11.399  0.7940  0.6022  0.7487
45923SOL     OW47698   2.471   9.891   1.928  0.1228  0.1234 -0.2485
45923SOL    HW147699   2.440   9.982   1.930 -0.0346  0.0762 -0.5477
45923SOL    HW247700   2.555   9.896   1.883 -0.9476 -0.1857 -2.4080
45924SOL     OW47701   9.975  10.806  11.811  0.2923 -0.1486 -0.0950
45924SOL    HW147702   9.957  10.890  11.768 -0.9090 -0.6999 -0.7171
45924SOL    HW247703  10.034  10.760  11.752 -0.1705 -0.3020 -0.4424
45925SOL     OW47704  10.090   3.072   1.704  0.2484  0.7726 -0.8029
45925SOL    HW147705  10.069   3.165   1.711  0.6397  0.8817 -1.0008
45925SOL    HW247706  10.048   3.044   1.622 -1.8925  0.1875  0.4231
45926SOL     OW47707  11.135   9.283   9.456  0.2040 -0.1341  0.1915
45926SOL    HW147708  11.148   9.330   9.374 -2.4740 -0.1212 -0.3199
45926SOL    HW247709  11.069   9.334   9.503  0.2805 -1.1747  1.5029
45927SOL     OW47710  11.467   9.094   5.231 -0.2283  0.3721 -0.1253
45927SOL    HW147711  11.491   9.096   5.323  0.1345 -0.2196 -0.1976
45927SOL    HW247712  11.397   9.029   5.225  0.4544 -0.3579 -0.4099
45928SOL     OW47713   2.240   4.383   7.858  0.3746 -0.0259  0.5512
45928SOL    HW147714   2.277   4.314   7.912  0.0296  0.2601  1.1567
45928SOL    HW247715   2.146   4.380   7.875  0.1952 -0.2417 -0.3922
45929SOL     OW47716   2.922  12.317   7.169 -0.3200 -0.0227  0.1491
45929SOL    HW147717   2.989  12.366   7.217 -0.6853 -0.5033  1.1844
45929SOL    HW247718   2.940  12.335   7.077  2.4771 -1.6927  0.2732
45930SOL     OW47719   1.141  13.012   4.170  0.5441 -0.3767  0.2459
45930SOL    HW147720   1.219  13.044   4.124  0.0365  2.1291  0.9761
45930SOL    HW247721   1.069  13.027   4.108 -0.2727  3.7987  1.8790
45931SOL     OW47722  12.530   9.046   8.103 -0.0052 -0.2813 -0.2018
45931SOL    HW147723  12.560   9.097   8.028  2.1041  0.1066  0.8256
45931SOL    HW247724  12.589   8.971   8.106 -0.9458 -1.0239  0.2841
45932SOL     OW47725   4.706   7.155   0.578 -0.4310  0.8126 -0.0555
45932SOL    HW147726   4.716   7.093   0.650  0.6899  0.7258 -0.2711
45932SOL    HW247727   4.624   7.129   0.536  0.6958 -1.4965 -1.0193
45933SOL     OW47728   1.772   2.587  11.308  0.0106 -0.7586 -0.6279
45933SOL    HW147729   1.684   2.572  11.340 -0.1333 -2.4017 -1.6762
45933SOL    HW247730   1.824   2.514  11.342  0.8764 -0.0605 -0.3970
45934SOL     OW47731  11.458   1.855  11.216  1.0970 -0.0110  0.0267
45934SOL    HW147732  11.438   1.865  11.123  0.3517  1.7286  0.3240
45934SOL    HW247733  11.443   1.762  11.234 -0.8103  0.0104 -1.1378
45935SOL     OW47734   1.188  10.060  10.173  0.3164 -0.5917  0.0701
45935SOL    HW147735   1.235  10.118  10.232 -2.0512  0.0412  1.4781
45935SOL    HW247736   1.160   9.987  10.228 -1.3106 -0.3630 -0.3873
45936SOL     OW47737   3.848   0.460   6.769  0.1002 -0.4055  0.0969
45936SOL    HW147738   3.857   0.481   6.676  0.4278  0.7235  0.3794
45936SOL    HW247739   3.879   0.369   6.776  1.5541  0.0052 -0.6428
45937SOL     OW47740   9.474   5.871  12.800  0.4817  0.3083 -0.4296
45937SOL    HW147741   9.497   5.962  12.782 -0.5177  0.6352 -0.1415
45937SOL    HW247742   9.487   5.826  12.717  4.0699  0.0019  0.1527
45938SOL     OW47743  10.537   9.172   2.906  0.0052  0.1916 -0.2088
45938SOL    HW147744  10.443   9.170   2.889 -0.4727 -0.0645  2.0954
45938SOL    HW247745  10.568   9.086   2.876 -0.9190 -0.5757  0.9286
45939SOL     OW47746   2.787   7.930   5.363 -0.2899  0.1633  0.1515
45939SOL    HW147747   2.873   7.911   5.403  0.2963  1.2313 -0.5612
45939SOL    HW247748   2.783   7.872   5.287 -0.1508  0.1819  0.1287
45940SOL     OW47749   1.236  11.334   4.878 -0.5701 -0.1224 -0.2396
45940SOL    HW147750   1.277  11.413   4.912 -0.9722  0.3221 -0.7741
45940SOL    HW247751   1.143  11.356   4.868 -0.5299 -0.3342 -1.3026
45941SOL     OW47752   5.882   1.441   1.508  0.4615  0.6941 -0.2142
45941SOL    HW147753   5.805   1.494   1.486  0.0267  0.2054  0.1185
45941SOL    HW247754   5.908   1.401   1.425  1.9492  2.8863 -0.9003
45942SOL     OW47755   6.020   1.039   6.716  0.3523 -0.4946 -0.0945
45942SOL    HW147756   6.046   0.956   6.675  1.2527 -1.6022  2.5025
45942SOL    HW247757   5.926   1.029   6.731  0.0922 -0.2377 -1.4662
45943SOL     OW47758   1.886   5.035   5.481 -0.1785  0.0881  0.6004
45943SOL    HW147759   1.825   5.101   5.514 -0.4423  0.9396 -1.4662
45943SOL    HW247760   1.949   5.024   5.552 -0.9459  1.5039  1.5633
45944SOL     OW47761   6.100   4.356   2.138  0.5052 -0.4190  0.5144
45944SOL    HW147762   6.127   4.396   2.055  0.5287 -0.1007  0.6723
45944SOL    HW247763   6.049   4.424   2.182 -2.7808 -1.7656 -0.8361
45945SOL     OW47764   3.436   8.330   6.985 -0.2996 -0.0029 -0.0740
45945SOL    HW147765   3.349   8.371   6.991  0.0766  0.9322 -0.6787
45945SOL    HW247766   3.434   8.259   7.049 -1.0227  0.9245  0.9667
45946SOL     OW47767   9.057  10.416   0.496  0.0221 -0.2398  0.1029
45946SOL    HW147768   8.976  10.459   0.522  0.2630 -0.2725  0.9602
45946SOL    HW247769   9.082  10.459   0.414 -1.7051 -1.3608 -1.0657
45947SOL     OW47770   2.471   9.970   8.910 -0.0250 -0.3196 -0.2822
45947SOL    HW147771   2.510   9.986   8.996 -0.8214  0.1041  0.0171
45947SOL    HW247772   2.536   9.918   8.863  0.1934 -1.0399  0.7793
45948SOL     OW47773   4.317   9.312   2.521  0.3386  0.0369  0.2572
45948SOL    HW147774   4.307   9.364   2.442 -0.8735 -0.6644 -0.0857
45948SOL    HW247775   4.307   9.374   2.593 -1.7887  0.2358 -0.1337
45949SOL     OW47776   5.268  10.807  12.946 -0.2147 -0.6763  0.6587
45949SOL    HW147777   5.246  10.855  12.866  0.3663  1.2962  1.6207
45949SOL    HW247778   5.265  10.715  12.920  1.5997 -0.0830 -2.0864
45950SOL     OW47779   6.556  11.730  10.809  0.0951 -0.5393  0.3033
45950SOL    HW147780   6.644  11.703  10.781  0.4422  2.2682 -1.7660
45950SOL    HW247781   6.570  11.772  10.894  1.0537  1.0473 -0.5911
45951SOL     OW47782  13.040  12.283   8.956  0.2532  0.4727  0.8932
45951SOL    HW147783  13.077  12.195   8.958 -1.1780 -0.1945 -0.5566
45951SOL    HW247784  13.115  12.341   8.973  1.9455 -0.8363 -1.5774
45952SOL     OW47785   5.743   6.108   4.145  0.3463  0.3437  0.0059
45952SOL    HW147786   5.666   6.108   4.202  0.5413 -0.5128  0.2869
45952SOL    HW247787   5.814   6.076   4.201  0.9453  1.2584 -0.2112
45953SOL     OW47788   2.168  11.722   6.910 -0.9917 -0.1959 -0.0098
45953SOL    HW147789   2.234  11.788   6.930 -0.7426 -0.8400  1.3977
45953SOL    HW247790   2.175  11.710   6.815  0.8285 -0.1203  0.0664
45954SOL     OW47791   8.721   6.062   0.493  0.3343 -0.8776  0.0105
45954SOL    HW147792   8.681   6.148   0.483  1.1632 -0.5842 -1.0157
45954SOL    HW247793   8.783   6.072   0.566 -0.1611 -0.8532  0.4368
45955SOL     OW47794  11.620   1.724   4.720 -0.0467  0.0596 -0.1552
45955SOL    HW147795  11.627   1.790   4.651  0.8053  0.7660  0.6037
45955SOL    HW247796  11.709   1.692   4.733 -0.0714  0.4475  1.1095
45956SOL     OW47797  10.229   7.426  11.586  0.0734  0.3323 -0.7082
45956SOL    HW147798  10.309   7.378  11.607 -1.1224 -0.8099  1.6974
45956SOL    HW247799  10.257   7.517  11.577  1.7121 -0.0973 -0.3294
45957SOL     OW47800   4.769   2.826   8.954 -0.0027 -0.2227  0.0140
45957SOL    HW147801   4.808   2.830   8.867  0.3242  0.4579  0.1804
45957SOL    HW247802   4.752   2.918   8.977  0.0439 -0.3824  0.7232
45958SOL     OW47803   7.604   5.261   3.958  0.3154 -0.3377  0.5660
45958SOL    HW147804   7.561   5.346   3.945  0.6528 -0.4459 -1.6781
45958SOL    HW247805   7.694   5.283   3.979  1.2464  0.0161 -3.0479
45959SOL     OW47806   6.764   1.496   9.233 -0.2992 -0.3175  0.4427
45959SOL    HW147807   6.808   1.443   9.166  0.5261  0.7530  0.1001
45959SOL    HW247808   6.802   1.466   9.315  2.5226  1.7523  0.0571
45960SOL     OW47809  11.653  10.385   3.573 -0.0350 -0.0953  0.0067
45960SOL    HW147810  11.694  10.356   3.654  1.2040 -1.6685 -1.1184
45960SOL    HW247811  11.589  10.317   3.552 -0.4931  0.3977 -0.2448
45961SOL     OW47812   1.690   9.911  12.497 -0.3637 -0.2416 -0.3021
45961SOL    HW147813   1.610   9.957  12.524 -0.7056  0.3632 -2.2173
45961SOL    HW247814   1.734   9.973  12.439  0.0589 -1.6612 -1.5456
45962SOL     OW47815   2.255   7.613   7.406  0.1253  0.8298  0.1308
45962SOL    HW147816   2.346   7.594   7.384 -0.4609  0.1845 -2.0220
45962SOL    HW247817   2.234   7.693   7.357 -0.4655  0.9501  0.5697
45963SOL     OW47818   7.386  11.969   8.361  0.6266 -0.5005 -0.4347
45963SOL    HW147819   7.320  11.975   8.291 -1.7037 -0.8576  1.5769
45963SOL    HW247820   7.399  11.875   8.373 -1.1472 -0.5756  1.3950
45964SOL     OW47821   8.825   5.140   1.148 -0.3146 -0.0966  0.1634
45964SOL    HW147822   8.873   5.140   1.231  2.6277 -1.2973 -1.3709
45964SOL    HW247823   8.799   5.049   1.135 -2.2254  0.3700  0.4797
45965SOL     OW47824  13.264   7.420  11.986  0.3558  0.2942 -0.0949
45965SOL    HW147825  13.187   7.398  12.039 -0.6668  0.3978 -1.4626
45965SOL    HW247826  13.236   7.496  11.934  1.5028  0.5445 -0.3727
45966SOL     OW47827  11.809  12.193   8.595  0.4555 -0.3468 -0.0802
45966SOL    HW147828  11.824  12.275   8.641 -0.2305  0.4608 -1.2502
45966SOL    HW247829  11.765  12.218   8.514  1.0109 -1.7838 -0.8711
45967SOL     OW47830   6.993   5.351   3.286  0.0624  0.3246  0.3936
45967SOL    HW147831   6.907   5.312   3.268 -0.4488  1.0791  1.1357
45967SOL    HW247832   7.039   5.346   3.202 -0.6494 -0.2210  0.0209
45968SOL     OW47833   0.550   8.277  11.017  0.1682  0.2984  0.0928
45968SOL    HW147834   0.524   8.234  11.098 -0.2069  0.2128 -0.0733
45968SOL    HW247835   0.483   8.343  11.001 -0.1471 -0.1604 -0.5233
45969SOL     OW47836   8.448   5.698   2.007 -0.2478  0.0309 -0.3967
45969SOL    HW147837   8.381   5.630   2.005  1.4843 -1.8039  0.4529
45969SOL    HW247838   8.505   5.679   1.933  0.7305  0.0271  0.3384
45970SOL     OW47839   0.411   6.788   0.408 -0.9031  0.1651 -0.1582
45970SOL    HW147840   0.367   6.863   0.368  1.2400  1.9927  0.7056
45970SOL    HW247841   0.381   6.788   0.499 -2.4174 -1.3279 -0.5971
45971SOL     OW47842   8.727   2.676   0.960  0.4323 -0.0776 -0.5778
45971SOL    HW147843   8.808   2.716   0.928  1.0212 -1.9023 -1.4968
45971SOL    HW247844   8.753   2.625   1.036  0.2606 -0.9888 -1.1081
45972SOL     OW47845  10.256   5.539   3.521 -0.3584 -0.1191 -0.4669
45972SOL    HW147846  10.239   5.575   3.608  0.1811 -0.2247 -0.3155
45972SOL    HW247847  10.173   5.499   3.495 -0.5991  0.1501 -0.1128
45973SOL     OW47848   4.887  10.404   6.394 -0.7559 -0.2296  0.3167
45973SOL    HW147849   4.950  10.442   6.455  0.4662 -0.5931 -0.7026
45973SOL    HW247850   4.928  10.411   6.308 -1.4022 -1.9200 -0.1702
45974SOL     OW47851   9.134   7.038   4.124 -0.0215 -0.0922 -0.1526
45974SOL    HW147852   9.157   7.124   4.159 -1.9005 -0.4270  2.2342
45974SOL    HW247853   9.216   7.002   4.091  0.8146  2.5653 -1.2000
45975SOL     OW47854   0.893   0.946  10.241  0.0344  0.1145  0.5107
45975SOL    HW147855   0.833   1.017  10.262  0.0876  0.7433 -1.2841
45975SOL    HW247856   0.979   0.977  10.270  0.1392  1.0410 -0.6913
45976SOL     OW47857   8.948  10.437  12.708 -0.6673  0.3558 -0.3088
45976SOL    HW147858   8.903  10.408  12.787 -0.2784  0.7938  0.0788
45976SOL    HW247859   8.911  10.523  12.688  0.6633  1.1622  0.5767
45977SOL     OW47860  10.533   9.133   3.816 -0.5212  0.3038 -0.5411
45977SOL    HW147861  10.521   9.201   3.749 -2.1031 -0.7446 -1.3962
45977SOL    HW247862  10.488   9.167   3.893 -2.3090 -0.1656 -1.3060
45978SOL     OW47863  11.789   2.693  11.548  0.1735 -0.0172 -0.3541
45978SOL    HW147864  11.883   2.710  11.556  0.3328 -1.1191  0.4199
45978SOL    HW247865  11.769   2.707  11.455  1.1469 -0.0026 -0.5696
45979SOL     OW47866   6.031   7.263   7.265 -0.1568  0.4410 -0.1435
45979SOL    HW147867   6.113   7.236   7.225 -1.1025 -1.0760 -1.1590
45979SOL    HW247868   6.031   7.223   7.352  0.7463  1.5892  0.4174
45980SOL     OW47869   4.907   3.212   5.828  0.0679 -0.2850  0.3063
45980SOL    HW147870   4.863   3.297   5.829  0.3694 -0.1331  0.8882
45980SOL    HW247871   4.961   3.211   5.907  0.2719 -0.9116  0.1699
45981SOL     OW47872   7.186  12.133   2.795  0.0237  0.0629 -0.2139
45981SOL    HW147873   7.237  12.136   2.715 -0.5999  0.3508 -0.6138
45981SOL    HW247874   7.116  12.197   2.781 -0.9814 -0.9630 -0.0641
45982SOL     OW47875   0.314  12.918   5.352 -0.3694 -0.0028 -0.1460
45982SOL    HW147876   0.260  12.920   5.273 -0.0742 -0.3604 -0.3582
45982SOL    HW247877   0.378  12.848   5.337  0.2965  0.5597  0.0079
45983SOL     OW47878   8.335   5.784   0.016 -0.1364 -0.5249 -0.2650
45983SOL    HW147879   8.330   5.718   0.086  1.2302 -0.6250 -0.2519
45983SOL    HW247880   8.334   5.733  -0.065 -1.0036 -0.4458 -0.3131
45984SOL     OW47881   0.946   5.842   3.094  0.3565 -0.5876  0.2381
45984SOL    HW147882   0.858   5.842   3.132  0.6122  1.1953  0.9194
45984SOL    HW247883   0.977   5.932   3.106  1.7529 -0.8363 -1.2105
45985SOL     OW47884   7.640   7.866   4.358 -0.4703 -0.1986 -0.2923
45985SOL    HW147885   7.654   7.804   4.286  2.0800  0.6943 -0.6354
45985SOL    HW247886   7.569   7.922   4.327 -0.9191 -1.1937 -1.1395
45986SOL     OW47887   9.180   3.199   0.803  0.0406  0.5048  0.1372
45986SOL    HW147888   9.240   3.266   0.836  0.7628  0.6487 -1.3820
45986SOL    HW247889   9.208   3.118   0.847  1.0934  0.6552 -0.2186
45987SOL     OW47890   3.188  13.263  11.686  0.0973  0.1164 -0.1898
45987SOL    HW147891   3.104  13.218  11.696 -0.5346  1.0939 -0.9837
45987SOL    HW247892   3.253  13.195  11.706 -0.8684 -0.6472  0.4546
45988SOL     OW47893   8.848   6.262   5.227  0.1677  0.6523  0.1559
45988SOL    HW147894   8.765   6.308   5.212 -0.1545 -0.5413 -2.2297
45988SOL    HW247895   8.881   6.244   5.140  3.4360  1.7935  1.0359
45989SOL     OW47896   1.672   9.522   4.288  0.8956 -0.0795 -0.4293
45989SOL    HW147897   1.661   9.529   4.193 -0.9674 -1.7225 -0.4080
45989SOL    HW247898   1.700   9.432   4.303  0.9579  0.0963  0.5861
45990SOL     OW47899   9.374   0.538   6.847  0.1719 -0.0715  0.0994
45990SOL    HW147900   9.396   0.468   6.787 -2.0688 -0.3125 -0.5373
45990SOL    HW247901   9.332   0.605   6.792 -1.1813  0.0552  1.2111
45991SOL     OW47902   6.775   5.909   5.005  0.0271  0.5568  0.3318
45991SOL    HW147903   6.824   5.842   4.957  0.3209  0.3437  0.9124
45991SOL    HW247904   6.764   5.980   4.942  1.3763  0.7442  0.2685
45992SOL     OW47905   0.662   3.859   3.001 -0.0501 -0.2432  0.7636
45992SOL    HW147906   0.757   3.853   3.006  0.1675  1.2205 -0.8399
45992SOL    HW247907   0.644   3.944   2.960 -2.0103 -0.8487  0.2172
45993SOL     OW47908  11.648   7.407   8.883  0.1166  0.5400 -0.6448
45993SOL    HW147909  11.648   7.498   8.854 -2.5118  0.6460 -0.5266
45993SOL    HW247910  11.610   7.411   8.971 -0.7419 -0.7456 -0.9430
45994SOL     OW47911   2.519   8.478   4.822 -0.5647 -0.7091 -0.2433
45994SOL    HW147912   2.440   8.491   4.769 -0.4844  1.8723  0.1191
45994SOL    HW247913   2.553   8.567   4.837  1.2100 -1.5807  1.4273
45995SOL     OW47914   1.001   7.768   7.022 -0.1749  0.4845 -0.0441
45995SOL    HW147915   0.907   7.785   7.014 -0.4914 -1.6989 -1.8750
45995SOL    HW247916   1.008   7.674   7.037  1.7487  0.4755 -0.6434
45996SOL     OW47917   1.546   8.961   1.567  0.0364 -0.8683 -0.0107
45996SOL    HW147918   1.611   8.957   1.497  0.2588 -1.4873  0.2230
45996SOL    HW247919   1.541   8.872   1.601 -0.8976 -0.8242  0.0136
45997SOL     OW47920  10.652  11.125   0.817  0.2415  0.4103  0.1905
45997SOL    HW147921  10.562  11.090   0.818  0.1019  0.7638  0.3151
45997SOL    HW247922  10.694  11.080   0.744  0.0852 -0.0668  0.3884
45998SOL     OW47923   0.741   5.318  10.216 -0.3533 -0.2845  0.0834
45998SOL    HW147924   0.791   5.353  10.289 -0.7449  1.2479 -0.3407
45998SOL    HW247925   0.653   5.303  10.252 -0.6727  0.9075 -0.1586
45999SOL     OW47926   6.543   8.466   3.722 -0.3798 -0.1773 -0.2532
45999SOL    HW147927   6.584   8.380   3.719  2.7586  1.1567  0.2165
45999SOL    HW247928   6.466   8.455   3.778  0.3557 -2.4919  0.3874
46000SOL     OW47929   5.891   0.314   1.440  0.6404 -0.4852 -0.2109
46000SOL    HW147930   5.883   0.221   1.423  1.7719 -1.0994  2.1847
46000SOL    HW247931   5.815   0.353   1.398 -1.4217 -2.8472  1.0577
46001SOL     OW47932   3.396   1.201   0.778  0.1378 -0.4846  0.0460
46001SOL    HW147933   3.391   1.168   0.868 -2.2030 -0.7267 -0.1165
46001SOL    HW247934   3.366   1.292   0.784  1.5218  0.0217 -0.2918
46002SOL     OW47935   4.342   6.056   5.010  0.2943  0.0997  0.6207
46002SOL    HW147936   4.420   6.079   4.959 -0.0690 -0.8870 -0.4344
46002SOL    HW247937   4.374   5.996   5.077  0.6565  0.8291  1.1201
46003SOL     OW47938   4.434  11.374   2.654 -0.3943 -0.4654  0.2134
46003SOL    HW147939   4.508  11.433   2.645 -0.5109 -0.2067  0.8487
46003SOL    HW247940   4.358  11.431   2.666 -0.6618 -0.7307 -0.1776
46004SOL     OW47941   4.562  12.337   8.529  0.9263  0.2197 -0.1812
46004SOL    HW147942   4.478  12.383   8.517  0.8735  0.1409 -0.1149
46004SOL    HW247943   4.582  12.348   8.621 -0.9020 -2.9180  0.7595
46005SOL     OW47944   1.475   3.963  12.540  0.3336 -0.5036  0.3719
46005SOL    HW147945   1.467   4.059  12.547  2.6669 -0.3048  1.3550
46005SOL    HW247946   1.569   3.947  12.550  0.6273 -2.6244 -3.9418
46006SOL     OW47947   4.307  10.041   7.789  0.0183  0.0374 -0.2077
46006SOL    HW147948   4.327  10.107   7.723  0.7958  0.2790  0.2562
46006SOL    HW247949   4.248   9.980   7.745 -1.4084  1.4793 -0.3945
46007SOL     OW47950   9.497   8.048   9.024 -0.3228 -0.1115 -0.4982
46007SOL    HW147951   9.536   7.976   8.975 -0.9664 -0.5546 -0.3741
46007SOL    HW247952   9.403   8.037   9.012 -0.5657 -0.8421  1.6565
46008SOL     OW47953   9.593   0.952  11.256 -0.8431 -0.0679  0.2143
46008SOL    HW147954   9.571   0.879  11.198  0.5422  0.8050 -1.4896
46008SOL    HW247955   9.529   1.020  11.234  1.3810  1.3208 -2.4882
46009SOL     OW47956  13.231  11.066   9.725 -0.5210 -0.3593 -0.7035
46009SOL    HW147957  13.266  11.015   9.651  0.5832 -0.4040 -0.1652
46009SOL    HW247958  13.146  11.097   9.694  0.2744  0.3146 -2.3064
46010SOL     OW47959   0.643   7.436  12.370  0.1663 -0.0458 -0.0930
46010SOL    HW147960   0.583   7.381  12.320 -0.1034 -0.2025  0.3901
46010SOL    HW247961   0.677   7.378  12.438 -0.5189  0.5119  0.7413
46011SOL     OW47962   5.044  10.225   1.494  0.0257 -0.3153 -0.2715
46011SOL    HW147963   5.088  10.153   1.450  1.1276  0.6965 -0.8836
46011SOL    HW247964   5.105  10.298   1.488  0.0540  0.0057  2.5859
46012SOL     OW47965   2.229   7.580   7.665  0.6127  0.1802 -0.3437
46012SOL    HW147966   2.320   7.589   7.692  0.8327  2.4508 -1.6001
46012SOL    HW247967   2.229   7.600   7.572 -1.2973  1.5240 -0.1233
46013SOL     OW47968   7.851   8.996   8.079 -0.0614  0.1611 -0.1598
46013SOL    HW147969   7.809   9.037   8.154 -2.7566 -0.9616 -0.9429
46013SOL    HW247970   7.789   9.005   8.007  1.0038 -1.6246 -1.4175
46014SOL     OW47971   8.797   1.497   8.575  0.4769 -0.1687  0.2342
46014SOL    HW147972   8.724   1.478   8.634 -0.3578  0.9114 -0.4044
46014SOL    HW247973   8.763   1.564   8.516  1.2931 -1.1401 -1.4283
46015SOL     OW47974   1.039   7.319   0.350  0.2695 -0.0763 -0.1031
46015SOL    HW147975   1.015   7.229   0.372  1.9844 -0.1072  2.0241
46015SOL    HW247976   1.129   7.313   0.319  0.5201  0.9349  0.3869
46016SOL     OW47977   5.965   6.453   4.989 -0.1913  0.3719 -0.2656
46016SOL    HW147978   6.050   6.479   4.954  0.1680  1.8745  1.5512
46016SOL    HW247979   5.979   6.366   5.025  0.2528  0.1321 -0.9986
46017SOL     OW47980   4.651   3.897   4.562  0.0504 -0.3005 -0.0049
46017SOL    HW147981   4.579   3.956   4.538  1.1462  0.9473 -0.2902
46017SOL    HW247982   4.715   3.953   4.604  1.8001 -0.9828 -1.6310
46018SOL     OW47983   2.659   3.239   2.899 -0.5030 -0.3110 -0.0825
46018SOL    HW147984   2.748   3.241   2.933 -0.8477  0.5522  0.8024
46018SOL    HW247985   2.652   3.154   2.855 -0.1390 -1.6529  2.2854
46019SOL     OW47986   5.908  11.091   5.635 -0.6805  0.3834  0.1339
46019SOL    HW147987   5.959  11.102   5.715 -1.3030 -2.0969  0.9581
46019SOL    HW247988   5.852  11.168   5.630  0.8529  1.5896  0.9232
46020SOL     OW47989   1.995   1.942  11.547 -0.2340 -0.1601  0.4412
46020SOL    HW147990   2.058   1.880  11.581  0.2122  0.5183  0.8631
46020SOL    HW247991   2.021   1.955  11.456  0.3951  0.3132  0.6850
46021SOL     OW47992   2.163   9.453   7.007  0.4828 -0.3399 -0.0176
46021SOL    HW147993   2.080   9.437   6.962  0.9079  0.5144 -1.1609
46021SOL    HW247994   2.186   9.368   7.045  0.5120 -1.3653 -2.1464
46022SOL     OW47995   4.256  11.570  11.170 -0.4163  0.2019  0.1563
46022SOL    HW147996   4.244  11.486  11.125  0.2244  0.6907 -0.9865
46022SOL    HW247997   4.167  11.596  11.196 -1.0741  0.5942 -2.1860
46023SOL     OW47998   2.356   6.077   9.259 -0.1719  0.6248 -0.8758
46023SOL    HW147999   2.424   6.046   9.319 -1.3087  0.9781  0.6460
46023SOL    HW248000   2.360   6.172   9.266 -0.1025  0.6822 -1.6251
46024SOL     OW48001   1.602  11.704  11.858 -0.2308  0.2851 -0.6619
46024SOL    HW148002   1.697  11.693  11.866 -0.4263 -0.5779  1.0722
46024SOL    HW248003   1.574  11.633  11.801  0.0978  0.1025 -0.5995
46025SOL     OW48004   8.495   8.469   0.528 -0.0987 -0.3661  0.0049
46025SOL    HW148005   8.455   8.470   0.615 -0.9950 -1.1020 -0.3814
46025SOL    HW248006   8.579   8.514   0.540  0.0830 -1.0016  1.3823
46026SOL     OW48007   4.484   8.970   1.854 -0.2004 -0.2491  0.9035
46026SOL    HW148008   4.495   9.049   1.801  3.5531 -0.2734  1.3536
46026SOL    HW248009   4.573   8.948   1.883 -1.5774 -2.4408  4.0263
46027SOL     OW48010   5.321   6.192   1.081 -0.7590  0.2784 -0.1815
46027SOL    HW148011   5.255   6.220   1.145 -0.1063 -1.3382  1.2798
46027SOL    HW248012   5.270   6.172   1.002 -1.8100  0.5746  0.3953
46028SOL     OW48013   3.142   4.376   5.262  0.1685  0.3272 -0.5549
46028SOL    HW148014   3.066   4.366   5.320  0.3444  0.0482 -0.3667
46028SOL    HW248015   3.123   4.453   5.210  0.0872  0.6900  0.0077
46029SOL     OW48016   0.115   3.421   7.896  0.6649 -0.1985 -0.2797
46029SOL    HW148017   0.050   3.354   7.919  0.5902 -0.2397 -0.6106
46029SOL    HW248018   0.070   3.504   7.910  0.8681 -0.2042  0.4664
46030SOL     OW48019   3.453   3.695   0.139  0.4403 -0.3479 -0.4148
46030SOL    HW148020   3.506   3.625   0.176 -0.3329 -1.1211 -0.7219
46030SOL    HW248021   3.409   3.735   0.214  1.1418  0.0432 -0.2031
46031SOL     OW48022  10.016  13.145  11.916  0.3777 -0.5639 -0.0228
46031SOL    HW148023   9.935  13.195  11.918  1.1583  0.7340  0.7521
46031SOL    HW248024   9.995  13.067  11.865 -1.4251 -0.4098  0.4164
46032SOL     OW48025   3.323   7.667  12.481 -0.3222  0.3701  0.1545
46032SOL    HW148026   3.347   7.598  12.543  1.0442  0.7528  0.0842
46032SOL    HW248027   3.404   7.687  12.434 -0.7384  1.8811  0.0196
46033SOL     OW48028   5.499   3.067   8.210 -0.1056 -0.0618  0.1640
46033SOL    HW148029   5.412   3.086   8.176 -0.6370  0.1618  1.6235
46033SOL    HW248030   5.491   2.980   8.249 -0.5981  1.2164  3.1825
46034SOL     OW48031   4.924   6.220   7.285 -0.3491  0.0889  0.1391
46034SOL    HW148032   4.862   6.153   7.257  0.2772 -0.2356 -0.4951
46034SOL    HW248033   4.870   6.296   7.307 -1.0074 -0.3798  0.1427
46035SOL     OW48034   0.052   0.252  10.956  0.4336  0.0263  0.1195
46035SOL    HW148035  -0.018   0.194  10.928  0.2675 -0.1130  0.8020
46035SOL    HW248036   0.008   0.325  11.000  0.6297  0.7772 -0.9035
46036SOL     OW48037   6.007   8.049   8.327 -0.3169 -0.3009 -0.3430
46036SOL    HW148038   6.003   8.094   8.243  1.7188  0.1848 -0.2385
46036SOL    HW248039   6.098   8.060   8.356 -0.8408 -0.8535  1.7043
46037SOL     OW48040   6.253   2.616   5.861  1.0227 -0.3485 -0.1340
46037SOL    HW148041   6.280   2.567   5.939 -1.1443 -0.8308  0.3807
46037SOL    HW248042   6.295   2.571   5.788  3.0680  0.0857  0.6939
46038SOL     OW48043   8.910   7.050   2.023  0.0374  0.1079 -0.0657
46038SOL    HW148044   8.981   6.988   2.011 -1.5313 -2.2239  1.8149
46038SOL    HW248045   8.940   7.110   2.090  1.1882  0.8473 -1.1954
46039SOL     OW48046   5.597  11.471   9.562 -0.1137  0.6953 -0.1484
46039SOL    HW148047   5.529  11.514   9.614  0.5483 -1.0461  2.3655
46039SOL    HW248048   5.562  11.384   9.543  1.4996 -0.4522  1.7039
46040SOL     OW48049   7.187   6.366   6.687 -0.1808 -0.1884 -0.5457
46040SOL    HW148050   7.266   6.328   6.650 -0.7411 -0.7225 -1.2139
46040SOL    HW248051   7.206   6.375   6.780 -0.2585 -2.7294 -0.2302
46041SOL     OW48052  12.219  11.360   0.536  0.0815 -0.4894 -0.4048
46041SOL    HW148053  12.214  11.433   0.598  1.2179 -0.4164 -0.3853
46041SOL    HW248054  12.161  11.294   0.574 -0.0759 -0.0323  0.1738
46042SOL     OW48055   3.744  11.800   3.086 -0.2266 -0.4204 -0.2067
46042SOL    HW148056   3.653  11.801   3.058 -0.0844  0.2438 -0.6833
46042SOL    HW248057   3.767  11.893   3.097  0.8318 -0.4638 -1.6322
46043SOL     OW48058   3.401   7.228   9.923 -0.0803  0.9629  0.2739
46043SOL    HW148059   3.347   7.155   9.892  4.4004 -2.1894 -1.0199
46043SOL    HW248060   3.379   7.300   9.864 -2.1535 -0.3824 -0.7482
46044SOL     OW48061   7.364   3.340   1.819 -0.6325  0.1759  0.0078
46044SOL    HW148062   7.344   3.256   1.859 -0.2534  1.1511  2.4098
46044SOL    HW248063   7.279   3.382   1.809 -0.7106  0.0263  0.0412
46045SOL     OW48064   6.962  10.818   0.129  0.1104 -0.4445  0.3769
46045SOL    HW148065   7.038  10.850   0.081  0.7633 -0.8367  1.1293
46045SOL    HW248066   6.978  10.844   0.220 -1.0161  0.1329  0.4287
46046SOL     OW48067  10.101   4.455   5.137  0.3534  0.6574  0.2537
46046SOL    HW148068  10.147   4.382   5.178  2.2223  1.5363 -0.1949
46046SOL    HW248069  10.168   4.520   5.122 -1.0102  1.8945 -0.7165
46047SOL     OW48070   0.846  11.988   8.263 -0.2632  0.3060  0.4295
46047SOL    HW148071   0.928  11.991   8.212 -0.5976  0.8875 -0.0981
46047SOL    HW248072   0.855  12.061   8.325  0.3898 -0.7563  1.6153
46048SOL     OW48073  10.264   5.992   6.755 -0.2004 -0.4198 -0.5864
46048SOL    HW148074  10.243   5.903   6.726 -0.3625 -0.3078 -0.8152
46048SOL    HW248075  10.296   6.035   6.676  0.1565 -0.3613 -0.4106
46049SOL     OW48076   4.227   1.568   8.450 -0.5940 -0.4322  0.1622
46049SOL    HW148077   4.155   1.598   8.396  1.0732 -2.6249 -3.6792
46049SOL    HW248078   4.282   1.644   8.462 -1.5398  0.3495 -0.3108
46050SOL     OW48079   3.693   7.659  10.255  0.5322  0.0758 -0.4926
46050SOL    HW148080   3.672   7.619  10.170  0.1323 -0.3974 -0.1723
46050SOL    HW248081   3.614   7.647  10.307  1.0714 -0.3800  0.2273
46051SOL     OW48082   1.742  11.582   6.318  0.0939  0.3726  0.2096
46051SOL    HW148083   1.760  11.566   6.411  3.4205 -0.6152 -0.4672
46051SOL    HW248084   1.805  11.526   6.272 -3.0489 -1.0706 -2.7557
46052SOL     OW48085  10.670  12.602   3.947 -0.2288  0.2695 -0.3248
46052SOL    HW148086  10.680  12.592   4.041  1.6808 -0.6738 -0.5738
46052SOL    HW248087  10.581  12.573   3.929  0.0379 -1.5200  0.9665
46053SOL     OW48088  10.315   7.189   5.908 -0.1693  0.1091  0.1625
46053SOL    HW148089  10.230   7.158   5.939  0.3265  0.4258  1.9168
46053SOL    HW248090  10.379   7.146   5.964  0.8003  0.5451 -0.5708
46054SOL     OW48091   2.965   1.838   4.795 -0.5586 -0.8937  0.1883
46054SOL    HW148092   3.032   1.830   4.726 -0.8252  0.2012 -0.2253
46054SOL    HW248093   2.999   1.785   4.867  0.3731 -1.0000 -0.3053
46055SOL     OW48094   7.245   1.650   4.344 -0.1558 -0.8071  0.6616
46055SOL    HW148095   7.257   1.705   4.421  0.1862  0.1888 -0.0877
46055SOL    HW248096   7.333   1.617   4.324 -0.3472 -1.5811  1.0652
46056SOL     OW48097   7.189   0.736   6.862 -0.2143  0.3187  1.0218
46056SOL    HW148098   7.234   0.665   6.908 -0.7251  0.0100  1.0561
46056SOL    HW248099   7.248   0.811   6.871  0.5712 -0.2272  0.5448
46057SOL     OW48100  11.005   3.191   2.000 -0.6215  0.1642 -0.8863
46057SOL    HW148101  10.967   3.190   1.912 -0.5087  1.1743 -0.9491
46057SOL    HW248102  11.014   3.098   2.023 -2.7960 -0.1306 -1.0121
46058SOL     OW48103   4.737   4.030  10.874 -0.5392  0.1471  0.1060
46058SOL    HW148104   4.713   3.956  10.931  0.3753  1.1380  1.8889
46058SOL    HW248105   4.750   3.990  10.788 -2.5904 -1.3335  0.4047
46059SOL     OW48106   4.188  12.948   5.169  0.1142  0.2761  0.0890
46059SOL    HW148107   4.207  12.875   5.227  1.9778  0.9133  0.3472
46059SOL    HW248108   4.273  12.976   5.136 -0.9088 -0.5729 -3.6785
46060SOL     OW48109  10.375   1.684  10.819  0.3445 -0.0669 -0.3041
46060SOL    HW148110  10.367   1.649  10.907 -2.2000  2.4441  0.6131
46060SOL    HW248111  10.308   1.637  10.769  0.0766  0.2648 -0.2562
46061SOL     OW48112  12.759   9.794   0.684  0.2367 -0.1032 -0.0752
46061SOL    HW148113  12.664   9.806   0.679  0.2261 -0.6233 -1.6220
46061SOL    HW248114  12.793   9.855   0.618  0.9020 -0.5986 -0.1924
46062SOL     OW48115  12.002   6.309   6.435 -0.1748 -0.5124  0.4575
46062SOL    HW148116  12.014   6.402   6.417  1.0114 -0.5306  1.0328
46062SOL    HW248117  11.920   6.286   6.391  0.6105  0.3010 -1.5804
46063SOL     OW48118   7.447   2.996  10.936  0.0072 -0.3342 -0.3242
46063SOL    HW148119   7.384   2.958  10.998  0.5705  0.8702  1.0455
46063SOL    HW248120   7.476   2.923  10.883 -0.5884 -1.4001  0.7772
46064SOL     OW48121   9.765   6.543   9.829  0.6338 -0.2357 -0.1381
46064SOL    HW148122   9.747   6.637   9.821  0.9533 -0.1831 -0.2657
46064SOL    HW248123   9.783   6.530   9.922 -0.3061 -0.3371  0.0363
46065SOL     OW48124   5.617   7.381   6.009 -0.1654 -0.0379  0.1979
46065SOL    HW148125   5.669   7.433   5.948 -1.9762  0.9596 -0.5728
46065SOL    HW248126   5.661   7.393   6.094  1.2980  0.1011 -0.5565
46066SOL     OW48127  10.534   8.030   7.953  0.1458 -0.6041  0.2960
46066SOL    HW148128  10.461   7.968   7.949 -0.6957  0.4033 -0.4659
46066SOL    HW248129  10.495   8.111   7.986  0.6674  0.2787 -1.1701
46067SOL     OW48130  11.763   2.240   3.406  0.3327 -0.3669  0.5977
46067SOL    HW148131  11.741   2.193   3.326 -0.9532  0.4826  0.4258
46067SOL    HW248132  11.831   2.302   3.381  0.1192 -0.2827  0.2301
46068SOL     OW48133  10.324   0.896   3.350 -0.2670  0.3833  0.1733
46068SOL    HW148134  10.283   0.933   3.428 -0.6990  1.8007 -0.7005
46068SOL    HW248135  10.312   0.801   3.360  1.2244  0.3454  2.6536
46069SOL     OW48136  11.864   0.270   8.069  0.4270  0.3652 -0.0884
46069SOL    HW148137  11.820   0.318   8.139 -0.7849  0.7654 -1.0966
46069SOL    HW248138  11.954   0.302   8.071  0.2345  0.8654  0.8437
46070SOL     OW48139   4.229  11.586  12.565 -0.0726 -0.2543  0.1428
46070SOL    HW148140   4.244  11.652  12.633 -1.6997  0.2828  0.0213
46070SOL    HW248141   4.158  11.532  12.600 -0.6557 -0.2140 -0.9564
46071SOL     OW48142   1.119   7.558   4.340  0.2735  0.7510 -0.1216
46071SOL    HW148143   1.074   7.633   4.302  0.6680 -0.2492 -2.7792
46071SOL    HW248144   1.049   7.495   4.357 -0.1217  1.7608  2.5453
46072SOL     OW48145   5.982   4.623   4.565 -0.0109 -0.0801 -0.8393
46072SOL    HW148146   6.041   4.698   4.571  0.1706 -0.3440  1.8379
46072SOL    HW248147   6.040   4.549   4.544  0.8919 -0.4663  2.4380
46073SOL     OW48148   8.896   9.741   4.152 -0.6782 -0.1278  0.1890
46073SOL    HW148149   8.859   9.653   4.165 -1.2874  0.0484 -0.2915
46073SOL    HW248150   8.850   9.795   4.216 -0.6298 -0.0674  0.1718
46074SOL     OW48151   0.050   5.982   2.968  0.0644  0.8806  0.0981
46074SOL    HW148152   0.127   5.969   2.911 -0.7300  1.2417 -1.1088
46074SOL    HW248153   0.006   5.898   2.968 -0.7434  1.2679 -1.1048
46075SOL     OW48154   3.146  11.688   3.179 -0.1158  0.0569 -0.2364
46075SOL    HW148155   3.175  11.613   3.230  0.7628  0.2629 -0.4284
46075SOL    HW248156   3.050  11.681   3.179 -0.0774 -0.5923  0.4491
46076SOL     OW48157   2.678   7.053   7.587 -0.0057  0.4900  0.1703
46076SOL    HW148158   2.652   7.042   7.495 -1.9037  1.5859  0.5238
46076SOL    HW248159   2.607   7.012   7.636  0.2696  1.1808  1.1654
46077SOL     OW48160  10.959   5.784   2.857  0.0644 -0.0792  0.6252
46077SOL    HW148161  10.918   5.754   2.938 -1.3786 -1.0640 -0.4146
46077SOL    HW248162  10.962   5.706   2.801  0.3358  0.7350 -0.5351
46078SOL     OW48163   1.620   0.097   5.775  0.1391 -0.4377 -0.1723
46078SOL    HW148164   1.691   0.045   5.738  2.1220  1.8601  0.1715
46078SOL    HW248165   1.614   0.067   5.866  1.3490 -0.0232  0.0610
46079SOL     OW48166   1.279   9.639   4.024  0.6075  0.6340  0.2229
46079SOL    HW148167   1.374   9.635   4.031  0.5672  0.8488  1.1210
46079SOL    HW248168   1.259   9.608   3.936  1.3893 -1.2837  0.6743
46080SOL     OW48169   2.777  12.350   3.030 -0.2007 -0.9684  0.8172
46080SOL    HW148170   2.800  12.328   2.940  0.8209  0.6741  0.6472
46080SOL    HW248171   2.814  12.279   3.083  0.3397 -1.2631  0.0535
46081SOL     OW48172   7.783  10.932   9.486  0.1727 -0.2600 -0.1949
46081SOL    HW148173   7.758  11.002   9.545 -1.6478 -0.4635 -0.6668
46081SOL    HW248174   7.839  10.875   9.538  1.0283  1.0956  0.4258
46082SOL     OW48175  10.349   9.372   7.358 -0.3286  0.0542 -0.1379
46082SOL    HW148176  10.422   9.434   7.351  0.4915 -0.3623  3.1367
46082SOL    HW248177  10.371   9.317   7.433 -1.7555 -3.3103 -2.0054
46083SOL     OW48178   7.333  12.314   0.176  0.2716  0.6364 -0.1634
46083SOL    HW148179   7.351  12.315   0.270 -1.0912 -0.4498  0.1359
46083SOL    HW248180   7.263  12.378   0.164 -0.6068 -0.2967 -0.1762
46084SOL     OW48181   4.261   6.862   9.094 -0.3376  0.2113  0.4041
46084SOL    HW148182   4.183   6.819   9.059 -1.2711  1.3655  1.0275
46084SOL    HW248183   4.326   6.791   9.100 -1.3462 -0.7836 -0.0337
46085SOL     OW48184   9.956   0.639   2.075  0.2643 -0.1471 -0.0274
46085SOL    HW148185  10.050   0.625   2.065  0.7494  1.6465  1.4752
46085SOL    HW248186   9.948   0.696   2.151 -1.8030  2.3697 -1.9180
46086SOL     OW48187   5.680   2.021   0.760  0.0280 -0.0086 -0.6306
46086SOL    HW148188   5.721   2.098   0.721  0.0836 -0.0315 -0.6177
46086SOL    HW248189   5.603   2.004   0.706  0.6501 -0.6399 -1.3280
46087SOL     OW48190   5.116  12.187  10.849 -0.4206  0.2171  0.1789
46087SOL    HW148191   5.114  12.206  10.943 -0.6884  0.8966  0.0382
46087SOL    HW248192   5.168  12.258  10.811 -2.0851  1.1344 -0.4517
46088SOL     OW48193  13.198   2.027  10.329 -0.0428 -0.1326 -0.0107
46088SOL    HW148194  13.225   2.101  10.274  0.3759 -0.8354 -0.7685
46088SOL    HW248195  13.210   2.058  10.419 -1.8396  1.4486 -0.2489
46089SOL     OW48196  11.548   5.513  11.442 -0.1396 -0.1457 -0.0984
46089SOL    HW148197  11.570   5.463  11.520 -0.1281  0.5806  0.3733
46089SOL    HW248198  11.458   5.488  11.422 -0.0094 -0.6258 -0.0842
46090SOL     OW48199   0.500  11.337   9.475  0.4779  0.2948 -0.5186
46090SOL    HW148200   0.569  11.293   9.426  2.2120 -0.4077  2.2913
46090SOL    HW248201   0.541  11.360   9.559 -2.2235  1.4975  0.6030
46091SOL     OW48202   6.087   5.240   3.520 -0.1256  0.3024 -0.4583
46091SOL    HW148203   6.068   5.272   3.432 -1.3233 -0.2743 -0.4329
46091SOL    HW248204   6.173   5.197   3.512 -0.0331  0.6111 -1.2375
46092SOL     OW48205   4.691  13.253  12.992 -0.2367 -0.0106  0.0881
46092SOL    HW148206   4.692  13.346  13.016  0.6184 -0.0942  0.4149
46092SOL    HW248207   4.628  13.247  12.921  3.4282  1.7449 -3.6979
46093SOL     OW48208   7.490   7.821   0.242  0.6047 -0.3367  0.1516
46093SOL    HW148209   7.527   7.907   0.221 -0.3510  0.1608  0.4856
46093SOL    HW248210   7.542   7.790   0.316 -0.2258  0.7818  1.2440
46094SOL     OW48211   7.743  10.465   4.205  0.3686 -0.1252 -0.1575
46094SOL    HW148212   7.733  10.538   4.266  1.3563 -1.5776  1.8766
46094SOL    HW248213   7.742  10.506   4.118 -1.8994  1.9500  0.7206
46095SOL     OW48214  13.056   6.267  11.949  0.3043  0.0981  0.0344
46095SOL    HW148215  13.059   6.171  11.944  1.1634  0.1564 -3.9868
46095SOL    HW248216  13.122   6.289  12.015 -0.2096 -2.0354  1.3728
46096SOL     OW48217   1.798  11.304   8.003 -0.9723  0.0268  0.0411
46096SOL    HW148218   1.792  11.379   8.062 -2.3309 -0.6847  0.8438
46096SOL    HW248219   1.851  11.240   8.050 -1.0080 -0.0676 -0.0453
46097SOL     OW48220   4.395   7.425   8.684  0.2928 -0.1848 -0.2279
46097SOL    HW148221   4.440   7.343   8.703 -0.3099 -0.5328 -0.2813
46097SOL    HW248222   4.305   7.399   8.664 -0.1553  0.5698  0.7073
46098SOL     OW48223  11.869   6.731   1.323  0.1666 -0.0070  0.2206
46098SOL    HW148224  11.912   6.646   1.334 -2.4756 -1.3092  1.2439
46098SOL    HW248225  11.941   6.792   1.309  2.3193 -2.0543  1.6604
46099SOL     OW48226  11.986  11.854  11.268  0.1414 -0.1538 -0.3585
46099SOL    HW148227  11.975  11.761  11.247 -1.8038  0.3430 -1.8231
46099SOL    HW248228  11.898  11.883  11.291  0.6323  1.4499 -0.4412
46100SOL     OW48229   1.732   3.629   6.954 -0.4275 -0.0219 -0.3222
46100SOL    HW148230   1.764   3.717   6.936 -0.5393  0.2172  0.5878
46100SOL    HW248231   1.749   3.616   7.048 -0.7572 -0.8174 -0.3676
46101SOL     OW48232  10.128   3.879   4.384  0.1959  0.0922  0.8600
46101SOL    HW148233  10.213   3.890   4.428  1.5126 -0.2040 -1.4371
46101SOL    HW248234  10.117   3.784   4.377  0.5204  0.1313 -0.3263
46102SOL     OW48235   3.541   1.373   6.100  0.0904  0.6302 -0.3017
46102SOL    HW148236   3.513   1.293   6.144  2.2269 -0.2486 -0.4448
46102SOL    HW248237   3.521   1.443   6.163 -0.2626 -0.1795  0.5080
46103SOL     OW48238   5.986   0.250   2.807 -0.4105 -0.3921  0.3899
46103SOL    HW148239   5.976   0.158   2.783 -3.4074 -0.5263  1.6632
46103SOL    HW248240   5.943   0.298   2.736  0.0074 -0.0599  0.3587
46104SOL     OW48241   2.782   5.157   4.010  0.2432 -0.0041  0.3509
46104SOL    HW148242   2.774   5.147   4.105  2.5958  2.3968  0.9387
46104SOL    HW248243   2.872   5.130   3.991  0.2775  0.9198 -0.9480
46105SOL     OW48244  10.536   8.598   9.903  0.2008  0.1761 -0.2879
46105SOL    HW148245  10.512   8.660   9.834 -1.5128  0.7924  0.8051
46105SOL    HW248246  10.545   8.653   9.981 -2.1819 -0.9923  0.8892
46106SOL     OW48247  12.009   0.992   1.451 -0.6234  0.0714 -0.1410
46106SOL    HW148248  12.017   1.073   1.400 -1.4283 -0.5300 -1.2749
46106SOL    HW248249  11.957   0.934   1.395  3.5889 -2.9368 -1.5325
46107SOL     OW48250   2.959   1.888   5.769  0.1555 -0.0209  0.1706
46107SOL    HW148251   2.968   1.798   5.738  2.0473 -0.0742  0.7988
46107SOL    HW248252   2.867   1.910   5.751 -0.2576 -1.9485 -0.2777
46108SOL     OW48253  13.308   9.122   2.540  0.0687  0.4729  0.4293
46108SOL    HW148254  13.291   9.189   2.607 -1.2406 -0.8320  1.4666
46108SOL    HW248255  13.269   9.042   2.576  1.8587 -0.9522 -0.6264
46109SOL     OW48256   2.749  10.158   8.895 -0.2267  0.5601 -0.1012
46109SOL    HW148257   2.707  10.105   8.828 -0.4309  0.9649 -0.2959
46109SOL    HW248258   2.840  10.127   8.897  0.3392  1.9319 -2.0325
46110SOL     OW48259   4.685   1.675   0.794  0.7980  0.2733  0.3125
46110SOL    HW148260   4.637   1.725   0.860  0.3067  0.4068 -0.1300
46110SOL    HW248261   4.763   1.644   0.839 -0.2061 -0.8414  1.3652
46111SOL     OW48262   9.980   4.272   0.649 -0.2629 -0.2111  0.4131
46111SOL    HW148263  10.001   4.179   0.660  3.4975  0.5313  0.8427
46111SOL    HW248264  10.026   4.316   0.720 -0.7499  2.1130 -0.6035
46112SOL     OW48265   3.326   1.304   4.787 -0.1089  0.1330  0.4779
46112SOL    HW148266   3.381   1.322   4.710 -0.4607 -1.7713 -0.2617
46112SOL    HW248267   3.236   1.308   4.753 -0.2381 -1.9316  0.4542
46113SOL     OW48268   7.929  12.910   9.303  0.2678 -0.4100  0.8652
46113SOL    HW148269   8.018  12.880   9.319 -0.1767 -1.3913  1.5977
46113SOL    HW248270   7.875  12.832   9.312 -0.6377  0.0938  0.0566
46114SOL     OW48271   2.221   9.347  13.275 -0.2018  0.5048 -0.3483
46114SOL    HW148272   2.163   9.280  13.238 -1.0551 -0.6519  2.7300
46114SOL    HW248273   2.162   9.412  13.313  0.6205  1.5777 -0.8420
46115SOL     OW48274  12.537   5.843   4.068  0.1782  0.6471  0.3090
46115SOL    HW148275  12.485   5.898   4.010  1.1219  1.9982  0.6739
46115SOL    HW248276  12.580   5.906   4.128 -1.1895 -0.6939  2.8507
46116SOL     OW48277   2.826   1.876  11.723  0.1522 -0.2466  0.6688
46116SOL    HW148278   2.846   1.884  11.816  1.5130  1.5856  0.2892
46116SOL    HW248279   2.904   1.912  11.679 -0.6971 -0.5327 -1.1477
46117SOL     OW48280   1.942  11.302   0.899  0.1640  0.3466  0.2880
46117SOL    HW148281   1.882  11.238   0.935  0.7460  0.0811  0.8002
46117SOL    HW248282   1.922  11.305   0.805  1.1790 -1.7479 -0.0420
46118SOL     OW48283   0.319   9.485  10.378  0.6220  0.0352  0.4019
46118SOL    HW148284   0.263   9.562  10.384 -0.0895 -0.2389 -1.9214
46118SOL    HW248285   0.404   9.515  10.409 -0.2776  1.0006  2.0817
46119SOL     OW48286   6.028   8.290  11.651  0.0555  0.2717 -0.5679
46119SOL    HW148287   5.982   8.299  11.735 -1.3275 -1.0019 -1.1684
46119SOL    HW248288   6.087   8.366  11.649 -1.4525  1.5346  0.5730
46120SOL     OW48289   9.583   3.762   8.452 -0.6417 -0.5978  0.4884
46120SOL    HW148290   9.509   3.822   8.443 -0.5047 -0.5896 -0.8829
46120SOL    HW248291   9.660   3.817   8.436 -0.5985 -1.4523 -3.4002
46121SOL     OW48292   1.367  11.507  11.938 -0.3773 -0.2576 -0.0551
46121SOL    HW148293   1.393  11.599  11.948  0.2536 -0.2492 -1.4848
46121SOL    HW248294   1.449  11.458  11.944 -0.7297 -0.7629  0.8699
46122SOL     OW48295   1.604   1.374   2.423  0.4471  0.4309 -0.7823
46122SOL    HW148296   1.671   1.404   2.361 -0.6089  0.6484 -1.8543
46122SOL    HW248297   1.569   1.294   2.384 -0.1936  0.5406 -0.4422
46123SOL     OW48298   4.462   0.554   9.648 -0.0251 -0.0998  0.2517
46123SOL    HW148299   4.469   0.635   9.598  0.2898 -0.0002  0.4609
46123SOL    HW248300   4.506   0.488   9.593  0.8242  0.1236  0.6531
46124SOL     OW48301   4.980   3.017   1.667  0.2493 -0.2002  0.1554
46124SOL    HW148302   4.901   3.069   1.668 -0.0986 -0.4190 -3.3048
46124SOL    HW248303   5.034   3.056   1.598  1.5522 -2.1935 -0.0445
46125SOL     OW48304  12.215   1.093   6.561 -0.2100  0.8549  0.5965
46125SOL    HW148305  12.237   1.062   6.649 -0.3153  1.3253  0.7913
46125SOL    HW248306  12.209   1.188   6.570  0.3342  0.9501 -0.0467
46126SOL     OW48307   6.825   1.080   8.484 -0.2936  0.2527  0.6610
46126SOL    HW148308   6.797   1.150   8.542 -0.9965 -0.3817  1.1139
46126SOL    HW248309   6.908   1.111   8.447 -1.1644  1.8062 -0.0464
46127SOL     OW48310   9.700   5.812   2.038 -0.4605 -0.1315  0.1647
46127SOL    HW148311   9.650   5.884   2.075  0.7096  1.6829 -1.5660
46127SOL    HW248312   9.661   5.796   1.952 -0.3280 -1.1606  0.2827
46128SOL     OW48313   9.002   9.329   9.602  0.2600 -0.0771  0.1258
46128SOL    HW148314   8.946   9.340   9.679  1.8536  1.5958  1.1286
46128SOL    HW248315   8.978   9.243   9.567 -1.1660 -0.4828  1.9486
46129SOL     OW48316  12.780  11.212  11.110 -0.1031  0.1160 -0.5154
46129SOL    HW148317  12.834  11.273  11.160 -2.4266 -0.3731  2.9041
46129SOL    HW248318  12.839  11.141  11.087  1.6339  1.5595 -0.7446
46130SOL     OW48319  11.500   0.682  10.736  0.1118  0.1652 -0.6517
46130SOL    HW148320  11.583   0.685  10.785  1.0124 -0.3731 -2.0720
46130SOL    HW248321  11.507   0.753  10.673 -1.7892  1.9890  1.0563
46131SOL     OW48322   6.158  11.968   6.520  0.3447 -0.3830  0.0893
46131SOL    HW148323   6.211  11.917   6.580  0.0041  1.1442  1.7646
46131SOL    HW248324   6.173  12.059   6.545 -1.4798  0.1980 -0.7031
46132SOL     OW48325   3.042   4.556   9.228  0.6615  0.6759  0.3432
46132SOL    HW148326   2.952   4.525   9.218  0.8554  0.1749  0.1272
46132SOL    HW248327   3.051   4.573   9.322  0.1728  1.2576  0.2850
46133SOL     OW48328  12.292   0.998   2.957  0.2346 -0.1284  0.4913
46133SOL    HW148329  12.197   1.001   2.962  0.2040  2.0098 -0.4466
46133SOL    HW248330  12.311   0.918   2.907 -1.2330  0.6934 -1.5325
46134SOL     OW48331   0.210   1.916  12.652  0.0013  0.3654 -0.2863
46134SOL    HW148332   0.191   2.000  12.694  1.3299  0.5997 -0.0853
46134SOL    HW248333   0.202   1.851  12.722  0.0741  0.4797 -0.1707
46135SOL     OW48334   1.361   7.250   3.463  0.0549 -0.8555  0.1046
46135SOL    HW148335   1.286   7.244   3.404 -1.1683  1.1013  1.3723
46135SOL    HW248336   1.423   7.306   3.417  0.6222 -2.1469 -0.7683
46136SOL     OW48337   2.182  10.663   5.776 -0.3675 -0.1474 -0.1989
46136SOL    HW148338   2.237  10.735   5.808  0.7137 -1.1307  0.2367
46136SOL    HW248339   2.242  10.611   5.722 -1.6748  0.4435 -2.3479
46137SOL     OW48340   2.342  10.502   3.569  0.9004 -0.1192  0.4203
46137SOL    HW148341   2.311  10.587   3.601  1.1832 -0.1506  0.7879
46137SOL    HW248342   2.318  10.441   3.639 -0.8457 -0.6526 -0.5760
46138SOL     OW48343   7.969  11.513   0.522 -0.0743 -0.2054  0.4436
46138SOL    HW148344   7.972  11.507   0.618 -0.6511  1.8588  0.6518
46138SOL    HW248345   8.049  11.470   0.492  1.7445  1.8203  2.0615
46139SOL     OW48346   9.617   7.331  11.795  0.4998 -0.4806 -0.1840
46139SOL    HW148347   9.678   7.360  11.863 -0.5272  0.3579  0.4115
46139SOL    HW248348   9.577   7.252  11.832  0.2071 -0.2320  0.0356
46140SOL     OW48349   0.117  12.546   2.251  0.3262 -0.1528  0.5272
46140SOL    HW148350   0.050  12.556   2.183  1.0001  0.6187 -0.0428
46140SOL    HW248351   0.181  12.615   2.232  1.8272 -1.5039  0.4054
46141SOL     OW48352  11.841   3.336  12.406  0.6130  0.0535 -0.7092
46141SOL    HW148353  11.916   3.317  12.463  0.5961 -0.9391 -0.9980
46141SOL    HW248354  11.871   3.407  12.349  1.8982 -1.3503 -1.8622
46142SOL     OW48355  10.062   9.272  11.662 -0.0141  0.2990 -0.0181
46142SOL    HW148356  10.011   9.346  11.629  1.6902  0.9682 -1.3011
46142SOL    HW248357  10.065   9.211  11.588  1.3090  0.4278 -0.0818
46143SOL     OW48358   2.291   3.713   9.802  0.2257 -0.5456 -0.2201
46143SOL    HW148359   2.270   3.792   9.852  0.3284 -0.1406 -0.8120
46143SOL    HW248360   2.274   3.641   9.864  1.2907 -0.0207  0.7119
46144SOL     OW48361  11.128  13.245  12.644  0.6167  0.2206 -0.0627
46144SOL    HW148362  11.045  13.202  12.621  0.6602  1.3170 -2.6386
46144SOL    HW248363  11.124  13.257  12.739 -1.5440 -0.9854  0.0558
46145SOL     OW48364   9.923   6.227   1.501 -0.9613 -0.4906 -0.3574
46145SOL    HW148365   9.881   6.181   1.574 -1.2571  0.3072 -0.0220
46145SOL    HW248366   9.919   6.319   1.525 -1.4624 -0.1720 -1.5920
46146SOL     OW48367   1.488   4.869   2.740 -0.0037 -0.5015  0.3941
46146SOL    HW148368   1.508   4.776   2.736 -0.0168 -0.5630  1.5279
46146SOL    HW248369   1.564   4.909   2.784  0.1544  0.0734 -0.3773
46147SOL     OW48370   0.901  13.255   6.267  0.2473  0.4978  0.2526
46147SOL    HW148371   0.925  13.340   6.304  0.1614  1.3125 -1.4552
46147SOL    HW248372   0.964  13.242   6.195 -0.6216 -0.2135 -0.4007
46148SOL     OW48373   7.002   1.078   4.792 -0.2439 -0.3019  0.5101
46148SOL    HW148374   7.043   1.105   4.710 -1.2918  0.4913  0.2396
46148SOL    HW248375   7.022   0.984   4.798 -1.2868 -0.6825 -1.3345
46149SOL     OW48376  10.914   1.452   0.584  0.2942  0.2322 -0.0093
46149SOL    HW148377  10.915   1.392   0.510 -0.9438  0.4220 -0.2090
46149SOL    HW248378  10.961   1.406   0.654  3.8263  1.0759 -1.6233
46150SOL     OW48379   7.318  11.257   1.365  0.1431 -0.3986 -0.5863
46150SOL    HW148380   7.293  11.223   1.280  1.5351 -1.1160 -0.7272
46150SOL    HW248381   7.411  11.278   1.357  0.6297 -1.6472  1.0899
46151SOL     OW48382  10.245  12.615   9.438  0.2957 -0.1448  0.7176
46151SOL    HW148383  10.239  12.699   9.393  1.6620 -1.6064 -2.5170
46151SOL    HW248384  10.155  12.584   9.445 -0.2093  1.4525  1.8502
46152SOL     OW48385   8.711   6.785   5.754  0.0375  0.0711  0.4117
46152SOL    HW148386   8.737   6.755   5.841  0.2461 -0.4055  0.1868
46152SOL    HW248387   8.793   6.794   5.706 -0.1708 -1.4598 -0.3086
46153SOL     OW48388  10.744   4.242   6.592 -0.0829  0.6707 -0.0824
46153SOL    HW148389  10.691   4.317   6.564 -1.3527 -0.6412 -1.3698
46153SOL    HW248390  10.820   4.282   6.634 -0.8593  2.6771 -0.4285
46154SOL     OW48391   0.805   8.916   8.241  0.5947  0.3800 -0.1485
46154SOL    HW148392   0.738   8.848   8.248  1.5082 -0.4063  1.5418
46154SOL    HW248393   0.862   8.902   8.317  1.2933  2.5205 -0.2017
46155SOL     OW48394   5.050   9.039   8.540  0.2073 -0.5508 -0.0314
46155SOL    HW148395   5.023   9.097   8.611  2.2092  0.5501 -0.1001
46155SOL    HW248396   5.081   8.960   8.584 -0.4807 -0.6936  0.1979
46156SOL     OW48397   9.000  10.231   9.794  0.0108 -0.2858  0.1589
46156SOL    HW148398   9.050  10.248   9.714 -1.6229 -1.2928 -1.1305
46156SOL    HW248399   9.006  10.137   9.807  1.2714 -0.0129  1.9768
46157SOL     OW48400   6.529   7.082   5.879 -0.2445  0.3545  0.1046
46157SOL    HW148401   6.435   7.102   5.872 -0.5698 -1.1355 -0.1601
46157SOL    HW248402   6.568   7.125   5.803 -0.9788 -0.3716 -0.7030
46158SOL     OW48403   2.200  11.335   0.828 -0.6822 -0.1633  0.2116
46158SOL    HW148404   2.201  11.262   0.765  0.9421  1.4295 -1.7687
46158SOL    HW248405   2.110  11.337   0.861 -1.2301 -1.9650 -0.9907
46159SOL     OW48406  11.526   4.069   0.755  0.4624  0.4460  0.0665
46159SOL    HW148407  11.592   4.136   0.733 -0.2041  1.0833 -0.0243
46159SOL    HW248408  11.444   4.103   0.720  0.0746 -0.3472  0.1714
46160SOL     OW48409  12.938  12.251   1.631  0.4438  0.4709  0.1911
46160SOL    HW148410  12.957  12.344   1.643 -0.1140  0.8708 -1.6514
46160SOL    HW248411  12.842  12.247   1.626  0.5221  0.0502 -1.3270
46161SOL     OW48412  10.440   6.157  10.005 -0.6094  0.3155  0.3742
46161SOL    HW148413  10.512   6.202  10.050  0.8305 -1.0103 -0.5407
46161SOL    HW248414  10.433   6.073  10.050 -0.4710 -0.2237 -0.6042
46162SOL     OW48415   0.334   2.758   8.958 -0.1955 -0.3156 -0.2532
46162SOL    HW148416   0.259   2.736   9.012  1.6901  0.7217  3.1104
46162SOL    HW248417   0.324   2.852   8.939  0.1535 -0.2077  0.0782
46163SOL     OW48418   8.666  13.015  10.564 -1.0531  0.5239  0.0750
46163SOL    HW148419   8.705  12.934  10.530 -2.8226  0.1246 -1.1609
46163SOL    HW248420   8.672  13.076  10.490  0.8086  1.7897  1.1798
46164SOL     OW48421   0.240  11.052  10.477 -0.1878  0.0736  0.2924
46164SOL    HW148422   0.278  11.136  10.450 -0.6868 -0.0259 -0.7702
46164SOL    HW248423   0.314  10.991  10.474 -0.2190  0.0566 -0.9611
46165SOL     OW48424   8.792   9.197   0.457  0.1613  0.3080  0.4736
46165SOL    HW148425   8.773   9.137   0.529  0.5048 -1.0783 -0.5522
46165SOL    HW248426   8.722   9.263   0.461  0.0948  0.1797  1.9639
46166SOL     OW48427   7.220   9.553  10.722 -0.0947 -0.1942 -0.0133
46166SOL    HW148428   7.152   9.582  10.782 -0.4719 -0.0843 -0.4870
46166SOL    HW248429   7.300   9.556  10.773 -0.0242  2.1270 -0.1510
46167SOL     OW48430   5.990   4.785  10.754 -0.1604  0.2339  0.2396
46167SOL    HW148431   6.058   4.833  10.706  0.0065 -1.1285 -0.9272
46167SOL    HW248432   5.909   4.803  10.706 -0.4194  0.7757  0.8566
46168SOL     OW48433   9.178   5.221  11.166 -0.0100  0.0001  0.4273
46168SOL    HW148434   9.089   5.193  11.142 -0.2059  0.6257  0.3955
46168SOL    HW248435   9.221   5.141  11.196 -0.4157 -0.4136 -0.0665
46169SOL     OW48436   9.103  10.431   5.726  0.3806 -0.1716 -0.0712
46169SOL    HW148437   9.155  10.435   5.806  1.0957 -0.4263 -0.5139
46169SOL    HW248438   9.099  10.338   5.705 -1.9336 -0.3833  1.0223
46170SOL     OW48439  12.948   3.669   0.268 -0.8028  0.6477  0.1733
46170SOL    HW148440  13.009   3.741   0.283  0.6500 -0.3965 -0.4370
46170SOL    HW248441  12.958   3.612   0.344  0.0158 -0.1916 -0.5270
46171SOL     OW48442   8.389   6.524  10.115 -0.1884 -0.2031  0.4068
46171SOL    HW148443   8.482   6.547  10.117 -0.0209 -0.7437 -0.4572
46171SOL    HW248444   8.343   6.606  10.131  0.4334  0.1985  0.1570
46172SOL     OW48445   9.801  12.409   3.484 -0.2839  0.1932  0.1674
46172SOL    HW148446   9.804  12.360   3.566  0.5574  0.1471  0.1154
46172SOL    HW248447   9.721  12.378   3.441  1.7007 -3.5010 -1.3148
46173SOL     OW48448  10.722   3.689   6.286  0.0198  0.1417  0.0066
46173SOL    HW148449  10.716   3.780   6.316  1.5117  1.0684 -2.1946
46173SOL    HW248450  10.737   3.697   6.191  0.4424 -2.4108 -0.2036
46174SOL     OW48451   5.156  10.328   9.915  0.2198 -0.0105  0.2905
46174SOL    HW148452   5.225  10.384   9.881 -0.7309  2.0706  1.5737
46174SOL    HW248453   5.114  10.291   9.837  1.2737  0.5736 -0.5703
46175SOL     OW48454   2.183   6.494   4.360  0.3538  0.1612  0.5704
46175SOL    HW148455   2.135   6.560   4.409  0.0252 -0.3811  0.9889
46175SOL    HW248456   2.159   6.411   4.401  0.7264 -0.2244  0.0259
46176SOL     OW48457   1.461   6.098   1.116  0.1906  0.5581  0.1415
46176SOL    HW148458   1.439   6.016   1.071  0.4948  1.5198 -1.8994
46176SOL    HW248459   1.392   6.159   1.090 -0.7608  0.6889  2.6701
46177SOL     OW48460   1.445   1.018  11.600  0.4652  0.1988 -0.3581
46177SOL    HW148461   1.459   1.109  11.625  0.0541  0.2169 -0.1891
46177SOL    HW248462   1.501   1.005  11.523 -2.1109  1.6081 -2.6477
46178SOL     OW48463   6.296  10.870  12.644  0.6220 -0.5919 -0.1521
46178SOL    HW148464   6.289  10.821  12.725  1.5857 -0.3265  0.1070
46178SOL    HW248465   6.331  10.808  12.580  1.6226 -0.3313  0.1184
46179SOL     OW48466   5.996   0.931   2.825 -0.0871 -0.2704 -0.5930
46179SOL    HW148467   6.002   1.024   2.803 -0.5834 -0.2518 -0.6509
46179SOL    HW248468   5.968   0.888   2.744 -0.4316 -0.3939 -0.4117
46180SOL     OW48469  10.950   6.814   8.503  0.2818  0.2260 -0.6733
46180SOL    HW148470  10.888   6.755   8.460  2.4710 -1.1038 -2.2187
46180SOL    HW248471  10.943   6.895   8.453 -1.0691  0.5361 -0.0273
46181SOL     OW48472   1.193   4.160   8.697 -1.0583  0.2195  0.4500
46181SOL    HW148473   1.102   4.131   8.693 -0.5818 -1.5637  1.2918
46181SOL    HW248474   1.222   4.135   8.785  0.3583  0.4099  0.0597
46182SOL     OW48475   5.481  12.721   1.632 -0.2548 -0.3791 -0.1602
46182SOL    HW148476   5.505  12.715   1.725  0.3394 -0.1281 -0.2930
46182SOL    HW248477   5.483  12.814   1.613  0.6960 -0.5005 -0.6986
46183SOL     OW48478  10.245   3.104   1.392 -0.2696  0.5734  0.1975
46183SOL    HW148479  10.168   3.048   1.381  1.4883 -2.5283  2.1252
46183SOL    HW248480  10.299   3.084   1.315 -0.1188  0.4129  0.3426
46184SOL     OW48481  12.302   6.005   4.706 -0.7788  0.3642 -0.0057
46184SOL    HW148482  12.319   6.071   4.773 -1.4240 -0.3909  0.9298
46184SOL    HW248483  12.354   6.032   4.631  0.2205  1.0486  0.9199
46185SOL     OW48484   3.948   5.624   7.954 -0.1196 -0.1040 -0.0624
46185SOL    HW148485   3.961   5.531   7.972  0.6500 -0.1565 -0.8658
46185SOL    HW248486   4.027   5.651   7.907 -0.1748  1.0375  0.4630
46186SOL     OW48487   5.880  13.018   7.842 -0.0789  0.1039 -0.3692
46186SOL    HW148488   5.858  13.096   7.893  1.4852  0.1668  0.2776
46186SOL    HW248489   5.808  13.009   7.779 -0.1850  2.2074 -0.6333
46187SOL     OW48490   0.315   5.459   5.329  0.4604  0.2639  0.3978
46187SOL    HW148491   0.297   5.489   5.240  1.4411  0.7284  0.3363
46187SOL    HW248492   0.233   5.418   5.358  0.1190  0.1268 -0.7011
46188SOL     OW48493   8.593   0.063   4.889  0.1736  0.0197  0.3397
46188SOL    HW148494   8.561  -0.016   4.846 -0.6602  1.0968 -1.1520
46188SOL    HW248495   8.688   0.061   4.876  0.2514 -1.0756  0.9723
46189SOL     OW48496   3.426   0.760   8.245  0.4908  0.2359 -0.1525
46189SOL    HW148497   3.337   0.791   8.233  0.7731  0.9455 -0.4324
46189SOL    HW248498   3.437   0.693   8.178 -0.1160 -0.5006  0.4542
46190SOL     OW48499   5.372  10.422   0.614 -0.0894  0.2950  0.6403
46190SOL    HW148500   5.439  10.356   0.628 -1.5213 -1.0806  1.3005
46190SOL    HW248501   5.372  10.438   0.520  0.5420 -0.3672  0.5227
46191SOL     OW48502   0.643   0.288  10.448  0.0208 -0.1153 -0.0473
46191SOL    HW148503   0.623   0.207  10.400  1.4395 -0.7574  0.4045
46191SOL    HW248504   0.713   0.264  10.508  0.1783  1.3617  0.4002
46192SOL     OW48505   5.980   3.428  12.538  0.1703 -0.2489  0.2255
46192SOL    HW148506   5.900   3.455  12.494  0.9897  0.7105 -0.7524
46192SOL    HW248507   5.956   3.421  12.630 -1.2359 -0.8649 -0.1616
46193SOL     OW48508   0.219  12.133   5.757 -0.1371 -0.2035  0.6056
46193SOL    HW148509   0.220  12.166   5.846  0.6330 -1.0180  0.9119
46193SOL    HW248510   0.203  12.210   5.703 -0.4779  0.3170  1.4335
46194SOL     OW48511   9.272   3.013   4.919 -0.2272  0.1542 -0.0702
46194SOL    HW148512   9.239   3.031   5.007 -1.4528  0.2387 -0.5299
46194SOL    HW248513   9.368   3.019   4.928 -0.3267  0.1706  1.2410
46195SOL     OW48514  12.493   3.493   6.973 -0.6985  0.4028 -0.3561
46195SOL    HW148515  12.498   3.423   7.038  2.9307  0.8732  0.0576
46195SOL    HW248516  12.416   3.544   6.998 -1.7294 -1.6988  1.0873
46196SOL     OW48517   1.520   6.782  11.653  0.0421  0.2336  0.2435
46196SOL    HW148518   1.509   6.877  11.659  0.0684  0.1861  1.2356
46196SOL    HW248519   1.592   6.770  11.592  1.0271  0.9175  1.2364
46197SOL     OW48520   1.076   7.283   5.953  0.2199 -0.3469  0.0265
46197SOL    HW148521   1.149   7.226   5.930  0.7242  0.6550 -0.9236
46197SOL    HW248522   1.044   7.316   5.870  1.4589  2.6102  0.6006
46198SOL     OW48523   6.586   6.783   6.502 -0.0268 -0.3542  0.2918
46198SOL    HW148524   6.635   6.738   6.433 -0.9036 -1.7089  0.4925
46198SOL    HW248525   6.500   6.801   6.462  0.0829  0.5494  0.4428
46199SOL     OW48526  10.072   9.180  10.440 -0.4473 -0.0204 -0.0648
46199SOL    HW148527  10.104   9.243  10.505  1.5587 -0.1947 -0.8284
46199SOL    HW248528   9.994   9.222  10.404 -0.6759  0.8131  1.2879
46200SOL     OW48529   3.091   7.701   7.225 -0.0558 -0.7786  0.9099
46200SOL    HW148530   3.032   7.636   7.188  0.0991 -0.6568  0.4441
46200SOL    HW248531   3.170   7.652   7.248  0.3911 -0.6279 -0.2194
46201SOL     OW48532   9.617  12.250   2.639 -0.3738 -0.1248 -0.3565
46201SOL    HW148533   9.578  12.228   2.723  0.5717 -0.3713  0.0355
46201SOL    HW248534   9.602  12.344   2.629 -1.3218 -0.2685 -0.3730
46202SOL     OW48535   0.032   5.465   2.176  0.3447 -0.3985  0.4083
46202SOL    HW148536  -0.055   5.425   2.173  0.6004 -0.9452  0.2783
46202SOL    HW248537   0.091   5.399   2.140  0.6418  0.4511 -0.7253
46203SOL     OW48538   0.762  12.607   0.349  0.1609  0.4988 -0.3249
46203SOL    HW148539   0.818  12.576   0.278  0.2110 -0.6553  0.1882
46203SOL    HW248540   0.768  12.538   0.415 -0.0863  1.4287  0.6903
46204SOL     OW48541   0.322   6.423   8.665 -0.0609  0.1384  0.0229
46204SOL    HW148542   0.401   6.372   8.650  0.2780 -0.0579  2.1193
46204SOL    HW248543   0.276   6.376   8.735 -0.7148  1.6414  0.6518
46205SOL     OW48544  11.199  12.771   7.085  0.3996  0.0815  0.2764
46205SOL    HW148545  11.216  12.857   7.046 -1.0251  0.0523 -0.4977
46205SOL    HW248546  11.232  12.709   7.020  1.2469  0.0210  0.7464
46206SOL     OW48547   5.701   4.024   3.736 -0.1243  0.9267 -0.6786
46206SOL    HW148548   5.685   4.096   3.675 -1.3575  1.0316 -0.2530
46206SOL    HW248549   5.701   4.065   3.823  0.9580  0.6753 -0.5432
46207SOL     OW48550   8.952  10.780   0.408  0.4870 -0.3778  0.1864
46207SOL    HW148551   8.887  10.838   0.448  0.3938 -0.2400 -0.1570
46207SOL    HW248552   9.023  10.777   0.472 -0.1601 -1.1163  0.8929
46208SOL     OW48553  12.106   6.234   0.723  0.0370 -0.3466 -0.2768
46208SOL    HW148554  12.129   6.279   0.805 -0.5427 -2.7172  1.3030
46208SOL    HW248555  12.186   6.240   0.670  0.7105  0.5563  0.7790
46209SOL     OW48556  12.674   9.423   5.825 -0.3437 -0.2659 -0.0498
46209SOL    HW148557  12.724   9.346   5.851 -1.0028 -0.5114  0.5091
46209SOL    HW248558  12.582   9.399   5.839 -0.6206  0.2598 -0.8383
46210SOL     OW48559   5.736   6.304   8.855 -0.5387  0.8407 -0.0012
46210SOL    HW148560   5.729   6.210   8.872  0.5226  0.4950 -1.3237
46210SOL    HW248561   5.684   6.345   8.924 -1.2464 -0.7279  0.4289
46211SOL     OW48562   7.577  12.780   7.044 -0.0412 -0.1958  0.1050
46211SOL    HW148563   7.624  12.806   6.964 -1.8877  0.9760 -0.6507
46211SOL    HW248564   7.597  12.686   7.053  3.0284  0.3506  0.2974
46212SOL     OW48565   0.832   7.734   2.541  0.5022  0.0264  0.1870
46212SOL    HW148566   0.839   7.829   2.545  0.7779  0.0284 -0.3126
46212SOL    HW248567   0.755   7.714   2.595  0.2813  0.5511  0.0742
46213SOL     OW48568   6.973   4.456   1.954  0.0916 -0.2037 -0.3803
46213SOL    HW148569   6.891   4.498   1.978  1.0685  1.2928  0.5094
46213SOL    HW248570   7.018   4.522   1.899  0.1968 -1.4710 -1.8865
46214SOL     OW48571   7.443  10.748   0.706 -0.3083 -0.0524 -0.2271
46214SOL    HW148572   7.429  10.836   0.740 -0.4476 -0.9230  2.1167
46214SOL    HW248573   7.355  10.717   0.682 -0.3923  0.0422 -0.0374
46215SOL     OW48574   7.647   1.526  12.085 -0.7249  0.2172  0.0439
46215SOL    HW148575   7.559   1.518  12.048 -0.3973 -0.3289 -0.6513
46215SOL    HW248576   7.706   1.513  12.010 -0.0436  2.1353  0.1870
46216SOL     OW48577  10.151   8.154   2.894  0.1658 -0.5947  0.0492
46216SOL    HW148578  10.083   8.184   2.835  1.2677 -1.4400 -1.7453
46216SOL    HW248579  10.113   8.077   2.938 -1.3347  1.1247  1.9493
46217SOL     OW48580   6.942  13.046   6.005 -0.6311 -0.1321  0.0931
46217SOL    HW148581   6.871  13.107   6.029  0.6723  1.2821  0.5023
46217SOL    HW248582   6.900  12.960   6.005 -2.8607  0.8567 -1.7903
46218SOL     OW48583  11.228  11.888   0.741  0.0311  0.1815  0.3859
46218SOL    HW148584  11.267  11.899   0.654  0.8237 -0.1359  0.6949
46218SOL    HW248585  11.178  11.806   0.734  1.2539 -0.6088  0.6313
46219SOL     OW48586   8.058   7.326   8.274 -0.9028  0.4193  0.3614
46219SOL    HW148587   7.977   7.377   8.269 -0.6402  0.7600 -0.7354
46219SOL    HW248588   8.102   7.345   8.191  0.1108 -0.0769  0.7837
46220SOL     OW48589   8.979   8.790   9.844  0.2515  0.2963  0.3746
46220SOL    HW148590   9.016   8.869   9.804  0.3171  0.0435 -0.0672
46220SOL    HW248591   8.995   8.801   9.937 -0.2685  1.0865  0.3843
46221SOL     OW48592   3.501  12.794   1.823 -0.0057  0.1203 -0.5434
46221SOL    HW148593   3.415  12.778   1.861  0.0669  1.6056  0.2873
46221SOL    HW248594   3.499  12.885   1.794  0.4698 -0.5318 -2.7733
46222SOL     OW48595   4.874   7.071   0.008 -0.2554 -0.5539 -0.0855
46222SOL    HW148596   4.817   7.003   0.046 -1.1828  0.6575  0.7638
46222SOL    HW248597   4.921   7.107   0.083 -1.0059  0.8604 -0.2697
46223SOL     OW48598   5.757  10.674   7.191 -0.6362 -0.0184 -0.7551
46223SOL    HW148599   5.728  10.657   7.281 -0.8592 -0.7072 -0.9414
46223SOL    HW248600   5.758  10.769   7.183 -1.1194  0.0423 -0.1805
46224SOL     OW48601  12.728   4.110  12.183  0.7853 -0.3024  0.1162
46224SOL    HW148602  12.711   4.018  12.205  0.7943 -0.2472  0.3576
46224SOL    HW248603  12.767   4.107  12.096 -1.7704 -0.3468 -1.1090
46225SOL     OW48604   9.090   2.301   2.540  0.0300  0.2722  0.1391
46225SOL    HW148605   9.114   2.305   2.633  0.1160 -1.0335  0.1878
46225SOL    HW248606   9.162   2.346   2.495 -0.0471  0.9705  0.6940
46226SOL     OW48607  11.951   4.875   8.440  0.4290 -0.2118  0.3930
46226SOL    HW148608  11.990   4.836   8.363  0.2389  0.7847 -0.2291
46226SOL    HW248609  11.896   4.806   8.478 -1.6481  0.0708 -1.8900
46227SOL     OW48610   0.854  12.734   5.318 -0.5122 -0.1928 -1.0732
46227SOL    HW148611   0.801  12.688   5.382 -0.7190 -0.3744 -1.3728
46227SOL    HW248612   0.886  12.665   5.260  0.1201 -0.0991 -0.8500
46228SOL     OW48613   7.188   3.336   0.335  0.3674 -0.3449  0.3788
46228SOL    HW148614   7.173   3.370   0.247  1.8052 -1.6385 -0.4160
46228SOL    HW248615   7.146   3.249   0.334 -0.3108 -0.0385  1.2453
46229SOL     OW48616  11.396   8.992   6.684 -0.0293  0.1896 -0.2950
46229SOL    HW148617  11.431   8.904   6.676 -1.3026 -0.3810  0.1051
46229SOL    HW248618  11.390   9.024   6.594 -0.1025 -0.3573 -0.4878
46230SOL     OW48619   1.178   8.993   5.590 -0.0751  0.1002 -0.1112
46230SOL    HW148620   1.265   8.987   5.549 -0.5592 -0.7352 -1.0733
46230SOL    HW248621   1.170   9.084   5.617  0.9351  0.2809 -0.3974
46231SOL     OW48622  10.283  11.908  10.660 -0.2233  0.1024  0.4849
46231SOL    HW148623  10.318  11.916  10.571  1.7234 -2.1028  0.9649
46231SOL    HW248624  10.203  11.961  10.659  0.3913  1.1372 -2.1973
46232SOL     OW48625  12.644   5.416   9.307 -0.2632  0.3029 -0.2069
46232SOL    HW148626  12.610   5.505   9.302  0.7292  0.8955  2.2363
46232SOL    HW248627  12.596   5.376   9.380 -2.0499 -1.8785 -2.3953
46233SOL     OW48628   1.715   2.667   2.513  0.4812 -0.0219 -0.1755
46233SOL    HW148629   1.661   2.616   2.573 -1.0049  0.2880 -1.1901
46233SOL    HW248630   1.805   2.642   2.534  0.0054 -0.1786  1.9291
46234SOL     OW48631  10.191   3.068  13.182  0.1528  0.0755 -0.6041
46234SOL    HW148632  10.132   3.133  13.220 -0.1961 -1.5314  1.8318
46234SOL    HW248633  10.134   3.004  13.140  0.2999 -0.1589 -0.4551
46235SOL     OW48634   2.523   9.402   7.483  0.2986 -0.7619 -0.8005
46235SOL    HW148635   2.457   9.448   7.536 -0.0874 -1.3484 -0.7652
46235SOL    HW248636   2.601   9.457   7.490 -0.5800  0.7601 -2.0480
46236SOL     OW48637   4.240   0.067   3.613 -0.9691 -0.3198 -0.4420
46236SOL    HW148638   4.302   0.025   3.672 -1.5601 -1.1355 -0.3862
46236SOL    HW248639   4.194  -0.006   3.570 -1.6771  0.2630 -0.7069
46237SOL     OW48640   6.332   0.297   7.312 -0.0566  0.2111 -0.2913
46237SOL    HW148641   6.385   0.222   7.339  0.7397  1.4489  1.7630
46237SOL    HW248642   6.244   0.261   7.300  0.0683 -0.9091  1.6950
46238SOL     OW48643   8.766  10.061   9.887  0.7973  0.1345  0.0179
46238SOL    HW148644   8.736  10.130   9.945  1.6207  1.0608 -0.6246
46238SOL    HW248645   8.734  10.086   9.800 -1.8289 -2.0603  0.2105
46239SOL     OW48646   8.559  12.156  11.318  0.3897  0.0945 -0.0080
46239SOL    HW148647   8.561  12.096  11.244  2.3007 -0.3770  0.3597
46239SOL    HW248648   8.564  12.100  11.395 -0.5280  0.6274  0.4562
46240SOL     OW48649   8.883   4.840  12.000 -0.5426  0.4163  0.2201
46240SOL    HW148650   8.816   4.781  11.965  0.3975 -1.2749  1.1370
46240SOL    HW248651   8.881   4.916  11.941 -0.6424 -1.2584 -2.0636
46241SOL     OW48652  10.562  11.121  11.551 -0.3680  0.2626  0.2527
46241SOL    HW148653  10.497  11.171  11.601  1.8536  2.8339  0.8090
46241SOL    HW248654  10.521  11.110  11.465 -1.2243  2.7372  0.2431
46242SOL     OW48655  13.297   2.941  11.022  0.0369  0.0962 -0.0582
46242SOL    HW148656  13.344   3.016  10.986  0.6786 -0.9497 -1.5360
46242SOL    HW248657  13.235   2.978  11.085 -0.9132  2.0466 -2.0072
46243SOL     OW48658   6.643  11.258   8.716  0.0873 -0.1234  0.7956
46243SOL    HW148659   6.601  11.175   8.740 -0.2204  0.0649  0.9108
46243SOL    HW248660   6.648  11.255   8.620 -0.2948 -0.1005  0.7703
46244SOL     OW48661   9.890   6.021  13.169 -0.5458  0.3574  0.0307
46244SOL    HW148662   9.888   6.085  13.098  1.5968 -0.1147 -0.5380
46244SOL    HW248663   9.897   6.073  13.249  2.0732  0.9253 -0.4774
46245SOL     OW48664  13.019  11.391   2.741  0.0490 -0.5600  0.3317
46245SOL    HW148665  12.965  11.343   2.678 -0.0327 -1.1197  0.8131
46245SOL    HW248666  13.033  11.329   2.813  0.4027 -0.0416  0.7235
46246SOL     OW48667   0.677   5.666   3.036  0.4149 -0.4579 -0.4252
46246SOL    HW148668   0.742   5.713   2.982  1.5938 -0.5224  0.8681
46246SOL    HW248669   0.724   5.589   3.067 -1.1993 -2.0236 -1.7172
46247SOL     OW48670   4.346   4.792   5.147  0.2126 -0.4621 -1.1094
46247SOL    HW148671   4.329   4.884   5.170  0.2949 -0.7193  0.0252
46247SOL    HW248672   4.430   4.773   5.188 -1.1886 -1.9165  1.2916
46248SOL     OW48673   2.161   8.000   4.757  0.6360 -0.3531  0.2062
46248SOL    HW148674   2.071   7.969   4.749  0.5763  0.1026 -1.0804
46248SOL    HW248675   2.213   7.920   4.768  0.1849 -0.6944 -0.0987
46249SOL     OW48676   5.348   3.795   1.798 -0.0465  0.2591 -0.0349
46249SOL    HW148677   5.430   3.832   1.766  0.1227  0.6040  0.7804
46249SOL    HW248678   5.308   3.865   1.849 -0.7515  0.0202 -0.2410
46250SOL     OW48679  11.952   2.961   1.250 -0.1213  0.1507  0.6647
46250SOL    HW148680  12.021   2.981   1.186 -2.0711 -0.1867 -1.6860
46250SOL    HW248681  11.953   2.866   1.257  0.8440  0.2385  2.1039
46251SOL     OW48682  11.410   1.811   2.904 -0.5094 -0.0420  0.4659
46251SOL    HW148683  11.472   1.878   2.932 -0.5359  0.4005 -0.5001
46251SOL    HW248684  11.427   1.800   2.810 -0.8304 -1.0465  0.5110
46252SOL     OW48685   1.729   2.813   0.147  0.0625  0.0372  0.3507
46252SOL    HW148686   1.763   2.727   0.124  0.9113  0.3541  0.4098
46252SOL    HW248687   1.634   2.803   0.139  0.1719 -0.7650 -0.1131
46253SOL     OW48688  12.345  10.975   5.342  0.5993 -0.3925 -0.0494
46253SOL    HW148689  12.263  10.943   5.380  1.5775 -2.0925  0.7031
46253SOL    HW248690  12.318  11.018   5.260 -0.9965 -1.2350 -0.0024
46254SOL     OW48691  10.126  11.708   0.204 -0.3024 -0.3381 -0.5672
46254SOL    HW148692  10.121  11.623   0.162 -0.0524 -0.0561 -1.1694
46254SOL    HW248693  10.174  11.691   0.286 -0.7024 -0.8597 -0.4333
46255SOL     OW48694   4.378   1.509   7.110  0.2265 -0.2201  0.2530
46255SOL    HW148695   4.344   1.598   7.097 -0.2021 -0.4204 -0.0140
46255SOL    HW248696   4.471   1.516   7.087  0.0608  0.0270 -0.3850
46256SOL     OW48697  10.677   3.834   5.202  0.2641 -0.5641  0.0250
46256SOL    HW148698  10.624   3.759   5.175  1.1938 -0.2789 -2.8780
46256SOL    HW248699  10.759   3.795   5.233 -0.1900 -0.8266  0.9263
46257SOL     OW48700  11.930   6.588  12.303 -0.6403  0.1613  0.3937
46257SOL    HW148701  11.857   6.529  12.286 -0.7867  0.5213 -0.2213
46257SOL    HW248702  11.951   6.573  12.396 -0.7156 -0.8063  0.2622
46258SOL     OW48703   7.103  10.617   2.391 -0.3087  0.4373 -0.2422
46258SOL    HW148704   7.106  10.581   2.480  1.7580  0.7579 -0.1393
46258SOL    HW248705   7.153  10.554   2.338  0.8753  1.6511 -0.6085
46259SOL     OW48706   1.603   2.559  10.962 -0.2847 -0.2398  0.2268
46259SOL    HW148707   1.669   2.605  11.014 -0.8856  1.2221 -0.2715
46259SOL    HW248708   1.640   2.555  10.874 -1.4940  2.0521 -0.4510
46260SOL     OW48709   3.510   2.952  10.104  0.2443  0.4768 -0.4001
46260SOL    HW148710   3.549   2.933  10.019  2.6416  1.9968  0.2690
46260SOL    HW248711   3.525   2.873  10.156  1.3447  0.5885 -0.5357
46261SOL     OW48712   7.158   8.734  11.278 -0.0813  0.2662  0.4118
46261SOL    HW148713   7.153   8.780  11.362  1.8376 -0.6270  1.0920
46261SOL    HW248714   7.108   8.654  11.291 -1.1724  0.8897  0.1288
46262SOL     OW48715   6.512  11.357   2.542  0.1021  0.2156  0.1091
46262SOL    HW148716   6.505  11.359   2.637  1.3970 -0.4388  0.2423
46262SOL    HW248717   6.487  11.445   2.514 -1.2354  0.1304  0.9621
46263SOL     OW48718   5.594   1.572   2.843  0.4030  0.1523 -0.1897
46263SOL    HW148719   5.689   1.573   2.836  0.6703 -1.9608  2.0359
46263SOL    HW248720   5.576   1.610   2.929 -0.6782 -0.5977 -0.0728
46264SOL     OW48721   6.556   1.283   6.688 -0.0686  0.4783 -0.4203
46264SOL    HW148722   6.612   1.321   6.755  2.7197  0.1005 -2.3563
46264SOL    HW248723   6.494   1.227   6.736  2.8940 -1.1834  1.7756
46265SOL     OW48724   5.535   4.992   3.523  0.2270 -0.0262 -0.2427
46265SOL    HW148725   5.531   4.947   3.438 -0.4470 -0.3696 -0.0393
46265SOL    HW248726   5.524   4.922   3.588  0.6910  0.2394  0.1299
46266SOL     OW48727   5.157   7.794   2.125 -0.5894 -0.8187  0.3477
46266SOL    HW148728   5.202   7.814   2.043 -2.2129  2.8053  0.1292
46266SOL    HW248729   5.223   7.806   2.193 -0.0402 -0.4061 -0.2529
46267SOL     OW48730   6.557  11.963   5.395  0.2986 -0.1264  0.0470
46267SOL    HW148731   6.493  11.980   5.465 -0.7196 -0.6206 -0.7489
46267SOL    HW248732   6.642  11.984   5.436 -0.2568 -0.4706  1.4539
46268SOL     OW48733  12.912  12.956  12.979 -0.1553 -0.1405 -0.3429
46268SOL    HW148734  13.006  12.957  12.960 -0.0676 -0.3285  0.0787
46268SOL    HW248735  12.902  12.892  13.049 -0.4513  0.6647  0.3695
46269SOL     OW48736   3.149   1.145  11.042 -0.4678  0.0159 -0.1077
46269SOL    HW148737   3.103   1.064  11.061 -2.5148  1.1627  0.1772
46269SOL    HW248738   3.079   1.209  11.026  1.0539  1.7177 -0.2995
46270SOL     OW48739  13.224   8.001   3.698 -0.3136  0.2338  0.2142
46270SOL    HW148740  13.256   8.043   3.778 -0.2920  1.8948 -0.6163
46270SOL    HW248741  13.129   8.010   3.703 -0.3231  0.1620  0.1545
46271SOL     OW48742   0.887  12.256   6.704 -0.1439 -0.3655  0.4114
46271SOL    HW148743   0.907  12.182   6.761  0.1019 -1.0044 -0.4842
46271SOL    HW248744   0.875  12.330   6.763  0.2085 -0.9938  1.2763
46272SOL     OW48745   5.304  10.133   0.301  0.3905  0.3449  0.2980
46272SOL    HW148746   5.351  10.096   0.226  1.3150  1.3185  0.3696
46272SOL    HW248747   5.320  10.071   0.372  1.2130  0.4391  0.2050
46273SOL     OW48748   5.399   5.278   7.720 -0.0449 -0.3215 -0.2824
46273SOL    HW148749   5.338   5.212   7.752 -0.6353  0.4915  0.3156
46273SOL    HW248750   5.359   5.361   7.743  1.3123  0.2423  0.1627
46274SOL     OW48751  10.926   0.091  11.107 -0.1650  0.1348 -0.5102
46274SOL    HW148752  10.861   0.144  11.061  0.4539  0.6436 -0.8099
46274SOL    HW248753  10.994   0.153  11.132  0.1709 -0.3807 -0.1395
46275SOL     OW48754   0.521   3.340   3.444  0.2050  0.1365 -0.6639
46275SOL    HW148755   0.482   3.381   3.368 -1.1912 -3.6108 -2.2377
46275SOL    HW248756   0.446   3.308   3.495  1.1450  1.3896  1.6772
46276SOL     OW48757  12.981   9.360  10.399  0.9771 -0.2210  0.1446
46276SOL    HW148758  13.009   9.347  10.308  0.8521 -1.3017  0.2478
46276SOL    HW248759  13.054   9.328  10.452  0.6465 -0.5266  0.4218
46277SOL     OW48760   0.372   4.522   9.317  0.2427  0.2335  0.1649
46277SOL    HW148761   0.464   4.535   9.295  0.3713  0.7097  0.9442
46277SOL    HW248762   0.360   4.569   9.400 -0.0045 -2.0861  1.5490
46278SOL     OW48763   9.402   6.642   5.461 -0.1456  0.0350 -0.1331
46278SOL    HW148764   9.324   6.690   5.433 -0.7788 -0.3798  0.8842
46278SOL    HW248765   9.409   6.660   5.555  0.5281 -0.5756 -0.0587
46279SOL     OW48766   6.960  12.494   4.454  0.2546 -0.5292  0.0769
46279SOL    HW148767   6.998  12.535   4.376 -0.4032  1.0865  0.5839
46279SOL    HW248768   6.892  12.436   4.418 -2.0673  2.3484 -0.5188
46280SOL     OW48769   7.518   9.867   3.041  0.0953  0.0354 -0.6091
46280SOL    HW148770   7.605   9.828   3.038  0.1341  0.0722 -0.0367
46280SOL    HW248771   7.523   9.933   3.110 -0.9043 -1.2446  0.7406
46281SOL     OW48772   4.658  10.146   1.606 -0.6588  0.1869 -0.0400
46281SOL    HW148773   4.564  10.126   1.610 -0.3607 -1.4269 -0.3485
46281SOL    HW248774   4.667  10.230   1.652 -2.3279  0.6764 -0.5443
46282SOL     OW48775   2.052   2.295   1.727  0.0592 -0.2309 -0.1916
46282SOL    HW148776   2.073   2.370   1.783  1.7657  1.4063 -2.7966
46282SOL    HW248777   2.132   2.241   1.728  0.6645  0.5521 -2.0143
46283SOL     OW48778   2.818  11.697   9.200  0.9576 -0.1486  0.0752
46283SOL    HW148779   2.791  11.612   9.165 -0.4394  0.2628  0.0946
46283SOL    HW248780   2.776  11.760   9.142  0.3424  0.5278  1.2240
46284SOL     OW48781  10.966   5.258   9.659 -0.2097  0.2646 -0.0127
46284SOL    HW148782  11.001   5.173   9.630 -0.2995  0.1469  0.2197
46284SOL    HW248783  10.971   5.313   9.581  0.2634  0.1764 -0.0531
46285SOL     OW48784   3.770   0.233  12.399  0.7672  0.2784  0.1276
46285SOL    HW148785   3.724   0.259  12.319  0.8895  0.1028  0.0004
46285SOL    HW248786   3.860   0.261  12.385  0.3292  2.5415  1.2291
46286SOL     OW48787   4.086   2.411   4.828  0.0019 -0.6717 -0.4387
46286SOL    HW148788   4.062   2.480   4.766 -0.2619 -0.6875 -0.3537
46286SOL    HW248789   4.006   2.395   4.878  0.1048 -0.9361 -0.3598
46287SOL     OW48790   7.570  11.444   9.288  0.0495  0.3859  0.4307
46287SOL    HW148791   7.484  11.480   9.308 -1.2312 -2.2177  0.0758
46287SOL    HW248792   7.551  11.365   9.236  2.5638 -1.0563  1.5366
46288SOL     OW48793  11.827   2.748   7.368 -0.0674  0.0994  0.1616
46288SOL    HW148794  11.742   2.788   7.387  0.3515  0.5953  1.0318
46288SOL    HW248795  11.830   2.744   7.272 -0.1618  2.1305  0.0319
46289SOL     OW48796   5.915  10.754   4.675  0.1065  0.1310 -0.1212
46289SOL    HW148797   5.871  10.755   4.590  0.0368 -1.1250 -0.1195
46289SOL    HW248798   5.857  10.701   4.731  0.8814 -0.2885  0.2946
46290SOL     OW48799  10.393  10.554  10.797  0.4834 -0.0811 -0.3015
46290SOL    HW148800  10.445  10.502  10.735  3.2543  1.4372  0.5945
46290SOL    HW248801  10.429  10.533  10.883 -0.2683  1.2015  0.3533
46291SOL     OW48802  11.112   3.089  13.221  0.2039 -0.5337 -0.2152
46291SOL    HW148803  11.113   3.116  13.129  1.5610 -1.5501 -0.5311
46291SOL    HW248804  11.056   3.012  13.223 -0.0443 -0.3522 -0.1356
46292SOL     OW48805   6.056   9.206   6.678  0.3216 -0.2651 -0.4697
46292SOL    HW148806   5.981   9.177   6.626 -0.4153  2.5033 -1.1120
46292SOL    HW248807   6.019   9.268   6.741  1.5747 -1.6404  1.7348
46293SOL     OW48808   4.893   1.320   7.687  0.5191 -0.6193 -0.0620
46293SOL    HW148809   4.925   1.408   7.708  0.7028 -0.4596 -0.9619
46293SOL    HW248810   4.942   1.262   7.744  0.0015 -0.0968  0.9376
46294SOL     OW48811   0.650  10.259  12.837 -0.2279  0.0069  0.1897
46294SOL    HW148812   0.721  10.211  12.881  1.1537  0.8200 -1.0682
46294SOL    HW248813   0.638  10.338  12.890 -0.2194 -0.1337  0.4055
46295SOL     OW48814   2.427   0.301   7.063  0.5943 -0.3540  0.9595
46295SOL    HW148815   2.491   0.265   7.002 -0.9512 -2.7884  0.6523
46295SOL    HW248816   2.385   0.372   7.015 -0.2516 -1.9095 -0.6966
46296SOL     OW48817   9.196   1.257   3.893 -0.3285 -0.0783 -0.1591
46296SOL    HW148818   9.162   1.179   3.937  0.2468 -0.6389 -0.6803
46296SOL    HW248819   9.283   1.230   3.862 -0.3066  0.6362 -0.7247
46297SOL     OW48820   8.052   8.199   3.048 -0.4109  0.0676  0.2281
46297SOL    HW148821   8.114   8.271   3.059 -1.7500  0.9872  2.4974
46297SOL    HW248822   8.106   8.120   3.052  0.9671  0.8648 -1.3053
46298SOL     OW48823   8.521   7.974   2.226  0.3301  0.0900  0.0755
46298SOL    HW148824   8.514   7.935   2.313  3.6734 -2.9034 -0.7468
46298SOL    HW248825   8.438   7.953   2.184 -0.8606  0.4997  2.0981
46299SOL     OW48826   5.335   4.806   3.857 -0.0673 -0.2114 -0.7290
46299SOL    HW148827   5.416   4.784   3.902  1.9665  1.4684 -3.2623
46299SOL    HW248828   5.328   4.901   3.866 -1.4597 -0.2686 -1.0579
46300SOL     OW48829   8.352   0.042  12.991  0.2355 -0.0139 -0.0435
46300SOL    HW148830   8.288   0.042  13.063  0.9913 -0.4819  0.6315
46300SOL    HW248831   8.305   0.002  12.918 -0.3866  0.0267  0.3243
46301SOL     OW48832   1.134   2.963  11.608 -0.0783 -0.4018 -0.2647
46301SOL    HW148833   1.182   2.890  11.570 -0.8589 -1.0263 -0.0881
46301SOL    HW248834   1.043   2.948  11.582 -0.2306  0.5984 -0.3594
46302SOL     OW48835  11.606   7.391   0.769 -0.3254 -0.2537  0.0942
46302SOL    HW148836  11.632   7.475   0.807  1.3801 -0.4607 -0.5631
46302SOL    HW248837  11.664   7.327   0.810 -0.9095 -0.9845 -0.1981
46303SOL     OW48838   1.052   7.829   0.798 -0.1164 -0.0446 -1.0028
46303SOL    HW148839   1.109   7.752   0.798  0.0937  0.0648  0.9517
46303SOL    HW248840   1.105   7.898   0.756  1.7510  0.3724  1.7618
46304SOL     OW48841  10.382  12.265   2.417  0.0901  0.1161 -0.7753
46304SOL    HW148842  10.342  12.240   2.500 -1.2664  0.3468 -1.3244
46304SOL    HW248843  10.351  12.355   2.403  0.6376  0.2194 -1.3415
46305SOL     OW48844   4.761  10.758   9.731  0.0217 -0.4941  0.2099
46305SOL    HW148845   4.758  10.746   9.636  2.2957 -2.1974  0.2857
46305SOL    HW248846   4.685  10.709   9.763 -0.6217 -0.1122 -0.6740
46306SOL     OW48847   0.657   0.426  10.112  0.0581  0.2322  0.0969
46306SOL    HW148848   0.651   0.489  10.041 -2.3190  1.0631  0.9319
46306SOL    HW248849   0.593   0.358  10.090 -0.8423  0.5890  1.4585
46307SOL     OW48850  10.997   4.863   1.978 -0.5668 -0.1241 -0.1869
46307SOL    HW148851  10.927   4.896   2.034  1.6318 -1.9396  4.1863
46307SOL    HW248852  10.972   4.772   1.959 -0.4076 -0.1074 -0.4818
46308SOL     OW48853   2.501   1.394   4.794 -0.3372  0.3967  0.4167
46308SOL    HW148854   2.531   1.470   4.844 -0.1759  1.3664 -1.0884
46308SOL    HW248855   2.540   1.406   4.707 -0.2087 -1.4854  0.1706
46309SOL     OW48856  13.308  12.727  11.077 -0.0407 -0.2248  0.4630
46309SOL    HW148857  13.326  12.709  11.169 -1.2700 -1.0078  0.5757
46309SOL    HW248858  13.326  12.644  11.032  2.1950  0.5922 -0.3029
46310SOL     OW48859   6.362  12.486  10.764  0.3897 -0.2912  0.0725
46310SOL    HW148860   6.391  12.577  10.773  1.6675 -0.6512 -0.2521
46310SOL    HW248861   6.443  12.436  10.754 -0.2752 -1.5143  0.6095
46311SOL     OW48862   2.545   4.276   9.985  0.0970  0.0904  0.2411
46311SOL    HW148863   2.595   4.261  10.065  0.7552  2.9691  0.4675
46311SOL    HW248864   2.582   4.214   9.921 -0.2482 -2.0463  2.0049
46312SOL     OW48865   1.539   1.213   3.623 -0.1028  0.5241  0.0703
46312SOL    HW148866   1.611   1.177   3.571 -2.4851  0.4932 -3.6100
46312SOL    HW248867   1.504   1.138   3.671  1.1845  0.1750  0.4925
46313SOL     OW48868   8.976   3.798   1.783 -0.3880  0.8431 -0.0634
46313SOL    HW148869   8.899   3.748   1.810  0.4935 -0.5097  0.1010
46313SOL    HW248870   9.008   3.751   1.706  1.5701 -0.0716  1.2098
46314SOL     OW48871   6.863   2.121   2.781  0.2158 -0.0482 -0.1682
46314SOL    HW148872   6.813   2.203   2.783 -1.2526 -0.9245  1.1751
46314SOL    HW248873   6.815   2.065   2.720  0.3747 -0.4081  0.0352
46315SOL     OW48874  10.110   8.453   1.638 -0.1933 -0.7830  0.1226
46315SOL    HW148875  10.175   8.426   1.573  1.5423  0.0981  1.4059
46315SOL    HW248876  10.091   8.545   1.617  0.0345 -0.6277  0.5778
46316SOL     OW48877  10.561   0.463   1.607  0.2637 -0.1486  0.0249
46316SOL    HW148878  10.528   0.373   1.618 -1.1591  0.1396 -1.4655
46316SOL    HW248879  10.498   0.504   1.547 -0.3485  2.5269  2.2923
46317SOL     OW48880  12.127   1.951   1.298 -0.2734  0.1165 -0.5490
46317SOL    HW148881  12.099   2.042   1.288 -0.2585 -0.0243 -2.0430
46317SOL    HW248882  12.050   1.899   1.277 -0.4565 -0.2384  0.8965
46318SOL     OW48883   3.213   9.712   3.528 -0.0393  0.5879 -0.3407
46318SOL    HW148884   3.308   9.707   3.537  0.0260 -0.1672 -1.3419
46318SOL    HW248885   3.184   9.758   3.608  1.0760  0.0917  0.3716
46319SOL     OW48886   5.915   2.608   2.795  0.2768  0.0827  0.0842
46319SOL    HW148887   5.871   2.526   2.775  1.8905 -0.6448 -0.7553
46319SOL    HW248888   5.854   2.676   2.767 -1.0103 -0.8281  0.6170
46320SOL     OW48889   4.647   5.229   4.345  0.3968  0.1515 -0.1650
46320SOL    HW148890   4.737   5.199   4.361  0.0634 -0.3216  0.9693
46320SOL    HW248891   4.634   5.299   4.409 -0.0221  0.2599 -0.3653
46321SOL     OW48892   7.996   9.012   8.795 -0.3984  0.2765 -0.2486
46321SOL    HW148893   8.066   8.999   8.732 -0.0603 -1.0502  0.3721
46321SOL    HW248894   8.035   9.065   8.865  0.3230 -1.2832  0.5801
46322SOL     OW48895   1.376   4.287   6.509 -0.0392 -0.1509 -0.4377
46322SOL    HW148896   1.459   4.300   6.464  0.5910 -1.3051  0.3208
46322SOL    HW248897   1.310   4.289   6.439  0.6913  0.1723 -1.1282
46323SOL     OW48898   8.514   6.364  10.855 -0.2089  0.2957 -0.7148
46323SOL    HW148899   8.547   6.278  10.829 -1.0923 -0.7176  1.2579
46323SOL    HW248900   8.456   6.390  10.783  1.5992  0.2269 -2.2826
46324SOL     OW48901   4.706   3.445   8.548  0.0260 -0.4343 -0.0896
46324SOL    HW148902   4.789   3.465   8.591 -0.1571  0.9179 -0.3371
46324SOL    HW248903   4.692   3.352   8.567  2.4359 -1.1684 -1.4936
46325SOL     OW48904   2.568  11.896   7.954  0.1224 -0.0519 -0.7078
46325SOL    HW148905   2.503  11.952   7.910 -0.0013  0.4920  0.1487
46325SOL    HW248906   2.637  11.956   7.981  0.4656 -0.4665 -0.6629
46326SOL     OW48907   8.102   7.263   4.622  0.1249  0.0592 -0.4038
46326SOL    HW148908   8.056   7.319   4.684 -1.0050 -0.2213 -0.9522
46326SOL    HW248909   8.181   7.235   4.668 -0.1930  0.6566  0.5322
46327SOL     OW48910  11.443   3.738  10.699  0.4373 -0.4340 -0.2877
46327SOL    HW148911  11.443   3.830  10.726  1.3918  0.0087 -1.7253
46327SOL    HW248912  11.525   3.702  10.734  0.1922 -0.6895  0.0404
46328SOL     OW48913   5.760   9.055   2.593 -0.0573  0.2630  0.8441
46328SOL    HW148914   5.666   9.071   2.603 -0.7002 -0.8189 -2.3217
46328SOL    HW248915   5.795   9.139   2.563 -0.8910 -0.3616 -2.1665
46329SOL     OW48916   2.290   2.287   9.297 -0.3337 -0.1722 -0.0823
46329SOL    HW148917   2.290   2.266   9.390  0.2041 -1.3612 -0.3352
46329SOL    HW248918   2.270   2.204   9.253 -0.4629  0.3416 -1.0385
46330SOL     OW48919   3.725   4.002   7.743  0.1556  0.0126 -0.1596
46330SOL    HW148920   3.648   3.981   7.796  1.4366 -0.6464  1.5252
46330SOL    HW248921   3.774   3.920   7.738 -0.0141 -0.0284 -2.6475
46331SOL     OW48922   4.166   6.061   5.639  0.2895 -0.5727 -0.3702
46331SOL    HW148923   4.237   6.095   5.585 -0.8671  1.3568 -0.7726
46331SOL    HW248924   4.150   5.973   5.604  1.0558 -0.2181 -1.7004
46332SOL     OW48925  12.126   9.184   5.953 -0.2829 -0.5315 -0.5214
46332SOL    HW148926  12.188   9.199   6.025  1.1705 -0.4955 -1.7403
46332SOL    HW248927  12.090   9.271   5.935  0.3488 -0.3018 -0.7086
46333SOL     OW48928   9.100   8.963   2.624 -0.3777 -0.1391  0.4450
46333SOL    HW148929   9.069   8.935   2.538 -1.5020  0.0570  0.7710
46333SOL    HW248930   9.104   9.058   2.619 -3.0825  0.1070  1.4111
46334SOL     OW48931   4.024   8.085  10.453 -0.5338 -0.5503  0.2799
46334SOL    HW148932   4.069   8.006  10.422  1.4342 -0.1135  1.7847
46334SOL    HW248933   3.990   8.126  10.374  0.9558 -1.4052 -0.8660
46335SOL     OW48934   6.410   2.735   0.436  0.1387 -0.5820  0.1609
46335SOL    HW148935   6.382   2.710   0.349  0.5555 -0.5911  0.0264
46335SOL    HW248936   6.489   2.683   0.452  0.3294 -0.2347  0.3551
46336SOL     OW48937   5.896   8.865  11.073 -0.1097 -0.5676 -0.0353
46336SOL    HW148938   5.837   8.870  10.998 -0.5171 -0.3892  0.2899
46336SOL    HW248939   5.855   8.801  11.132 -1.5798  1.6451  1.5229
46337SOL     OW48940   0.484   3.266   0.052  0.1586  0.0618 -0.7475
46337SOL    HW148941   0.428   3.286  -0.023  0.1043 -2.6601 -1.5565
46337SOL    HW248942   0.556   3.215   0.014  1.3750  0.5938  0.7579
46338SOL     OW48943   9.294   4.818   4.242 -0.2970  0.6225  0.0715
46338SOL    HW148944   9.327   4.729   4.254  0.2742  0.7275 -0.6114
46338SOL    HW248945   9.270   4.847   4.330  0.6040  0.2064  0.4691
46339SOL     OW48946   1.216   3.649   5.263 -0.6080  0.3290 -0.0657
46339SOL    HW148947   1.198   3.674   5.173 -0.1057  1.5127  0.1495
46339SOL    HW248948   1.134   3.612   5.294 -0.7309 -0.2659 -1.0554
46340SOL     OW48949   2.586  11.311   7.673  0.5418  0.2895  0.0935
46340SOL    HW148950   2.627  11.360   7.744 -1.6673  1.4534  0.6771
46340SOL    HW248951   2.494  11.303   7.700  0.1754 -1.4724 -1.4695
46341SOL     OW48952   7.801  12.762   5.622  0.0140 -0.0359 -0.4257
46341SOL    HW148953   7.858  12.712   5.681  2.0742  1.9526 -0.5997
46341SOL    HW248954   7.719  12.772   5.670  0.0177 -2.2753  0.1858
46342SOL     OW48955   1.095  11.967   3.522  0.3810 -0.1593  0.0737
46342SOL    HW148956   1.090  11.872   3.518 -0.5259 -0.1137 -0.1008
46342SOL    HW248957   1.070  11.996   3.435 -0.0094  0.2582  0.3224
46343SOL     OW48958   2.752  11.789   2.293  0.7162  0.7332 -0.2415
46343SOL    HW148959   2.728  11.860   2.353  1.5909  1.0206 -0.2129
46343SOL    HW248960   2.847  11.792   2.289  0.9021 -1.3658  0.8861
46344SOL     OW48961   8.105   7.205   9.341  0.2134 -0.2131 -0.5811
46344SOL    HW148962   8.069   7.163   9.264  1.1036 -1.0549 -0.5530
46344SOL    HW248963   8.057   7.167   9.414  0.7008 -0.8553 -0.5897
46345SOL     OW48964   8.910  12.484   7.605  0.1175  0.0315 -0.2020
46345SOL    HW148965   8.834  12.437   7.569  0.8894 -1.2640 -0.2049
46345SOL    HW248966   8.874  12.568   7.635 -1.3236 -0.5589 -0.1777
46346SOL     OW48967   0.082   0.406   6.291 -0.2164  0.2483  0.1959
46346SOL    HW148968   0.087   0.399   6.196 -0.9117 -0.2423  0.1848
46346SOL    HW248969   0.053   0.496   6.307  1.1368  0.7417  0.0056
46347SOL     OW48970   5.904   6.727   8.855  0.2771 -0.1553  0.2304
46347SOL    HW148971   5.834   6.792   8.850  0.1355 -0.1261  1.8969
46347SOL    HW248972   5.982   6.773   8.826 -0.2096  0.1145 -0.6710
46348SOL     OW48973  12.013  12.699   1.383  0.2693  0.0886  0.4273
46348SOL    HW148974  12.071  12.717   1.457 -1.9835 -2.9410  3.2763
46348SOL    HW248975  11.934  12.749   1.402 -0.5867 -1.2429  0.5410
46349SOL     OW48976   0.849   7.278   9.147 -0.2130  0.2152 -0.2878
46349SOL    HW148977   0.862   7.263   9.053  1.2046 -0.1344 -0.0545
46349SOL    HW248978   0.778   7.341   9.151 -0.4958  0.0113 -1.5919
46350SOL     OW48979  11.998  10.807   7.953  0.1733  0.5018  0.0108
46350SOL    HW148980  11.935  10.754   7.904 -0.3697 -0.6289  1.8332
46350SOL    HW248981  11.989  10.895   7.916 -0.0010 -0.3286 -2.0471
46351SOL     OW48982  10.785   7.884  10.733  0.3808  0.5544  0.0421
46351SOL    HW148983  10.731   7.817  10.691  0.9024  0.3023 -0.2368
46351SOL    HW248984  10.832   7.837  10.803  2.1376  0.1902 -1.3055
46352SOL     OW48985   7.952   0.824   6.559  0.4039 -0.3377 -0.0837
46352SOL    HW148986   8.035   0.872   6.550 -0.3131  0.9105 -0.1982
46352SOL    HW248987   7.979   0.735   6.582  1.7392  0.3517  1.1870
46353SOL     OW48988   0.284   3.258   4.600  0.0219 -0.0604  0.2868
46353SOL    HW148989   0.338   3.221   4.531 -1.0973 -0.8085 -0.2136
46353SOL    HW248990   0.216   3.192   4.616 -1.6877  1.4818 -0.2307
46354SOL     OW48991  11.185   9.766   8.303  0.0044 -0.0672 -0.5227
46354SOL    HW148992  11.154   9.789   8.391 -1.7332  1.5316 -1.4723
46354SOL    HW248993  11.197   9.671   8.306  1.9595  0.1389  1.9729
46355SOL     OW48994   1.202  11.556  13.168  0.2577 -0.1397 -0.2686
46355SOL    HW148995   1.238  11.621  13.228 -1.1771  0.5748 -0.1462
46355SOL    HW248996   1.160  11.607  13.099 -0.3783 -0.9378 -0.4867
46356SOL     OW48997   1.580   8.411   4.886 -0.0603 -0.1965 -0.5266
46356SOL    HW148998   1.552   8.387   4.798 -0.3461 -1.6552 -0.0837
46356SOL    HW248999   1.629   8.492   4.875  0.9997 -1.0085 -2.2048
46357SOL     OW49000   5.978   4.358  11.329  0.2172 -0.6250 -0.5493
46357SOL    HW149001   6.007   4.333  11.417 -0.1615  0.9533  0.0632
46357SOL    HW249002   5.883   4.364  11.336  0.2674  0.7914 -0.6676
46358SOL     OW49003   8.978   6.592   0.526  0.4115  0.1575 -0.1137
46358SOL    HW149004   8.955   6.577   0.434 -1.8817 -1.4991  0.6406
46358SOL    HW249005   8.974   6.505   0.566 -0.8292  1.1085  1.9921
46359SOL     OW49006   1.471   3.879   6.526 -0.4339  0.2801 -0.2994
46359SOL    HW149007   1.554   3.923   6.507 -0.1237 -0.5052 -0.8250
46359SOL    HW249008   1.465   3.880   6.621 -0.6481  1.8343 -0.3080
46360SOL     OW49009   1.377   0.281   4.767  0.0642 -0.0096  0.2631
46360SOL    HW149010   1.364   0.193   4.801 -1.9768 -0.4537 -1.4563
46360SOL    HW249011   1.330   0.338   4.827  0.7228 -0.1553  0.9340
46361SOL     OW49012  10.416   0.607  11.963 -0.1640 -0.1341  0.1378
46361SOL    HW149013  10.414   0.549  11.887 -1.5954 -0.8385  0.6720
46361SOL    HW249014  10.408   0.548  12.038  0.1618  0.6226  0.7822
46362SOL     OW49015   0.355  12.634   5.431 -0.2449 -0.2966 -0.0865
46362SOL    HW149016   0.399  12.593   5.357 -0.2728 -3.4132  1.4465
46362SOL    HW249017   0.264  12.643   5.404  0.0056 -0.0906 -0.8867
46363SOL     OW49018   0.677   2.828   8.720  0.1105 -0.4987  0.8498
46363SOL    HW149019   0.721   2.913   8.715 -0.5901 -0.1242  0.9781
46363SOL    HW249020   0.674   2.808   8.813  0.0746 -0.5597  0.8355
46364SOL     OW49021  11.936  11.995   8.788  0.2096  0.0711  0.4062
46364SOL    HW149022  12.012  12.029   8.740  1.0488 -0.1878  1.5063
46364SOL    HW249023  11.861  12.036   8.745  1.0192  0.9850 -0.1981
46365SOL     OW49024  12.264  11.631   0.687 -0.0504 -0.3210 -0.7546
46365SOL    HW149025  12.348  11.655   0.646  0.6395 -1.2996  0.0364
46365SOL    HW249026  12.261  11.684   0.767 -0.5510  0.2545 -1.1420
46366SOL     OW49027   7.064   2.326  12.606 -0.2246 -0.1270 -0.1110
46366SOL    HW149028   7.008   2.402  12.588  1.2033  0.4732 -2.5999
46366SOL    HW249029   7.110   2.348  12.687 -2.7733 -0.2156  1.4452
46367SOL     OW49030   7.142   2.704   3.160  0.3131  0.3605  0.0911
46367SOL    HW149031   7.175   2.616   3.177  0.7654  0.3087 -0.9678
46367SOL    HW249032   7.194   2.760   3.218 -1.8034 -0.2638  2.8096
46368SOL     OW49033   5.901   5.142  12.354 -0.3707 -0.3690 -0.0538
46368SOL    HW149034   5.995   5.127  12.363 -0.4221 -0.6164  0.0882
46368SOL    HW249035   5.862   5.096  12.428 -0.6341 -0.6029 -0.3335
46369SOL     OW49036   6.242   4.018   4.481 -0.8085 -0.0294 -0.5158
46369SOL    HW149037   6.268   4.091   4.537 -0.1898  0.4423 -1.4029
46369SOL    HW249038   6.151   4.000   4.506 -0.5962  0.2769  0.5183
46370SOL     OW49039   5.501   5.622  10.690 -0.3694 -0.0654 -0.1399
46370SOL    HW149040   5.553   5.614  10.770  2.5858  1.2573 -1.7535
46370SOL    HW249041   5.486   5.716  10.680 -0.4369 -0.1792 -1.2709
46371SOL     OW49042   0.366   4.021   6.283  0.2532 -0.1765 -0.5415
46371SOL    HW149043   0.378   4.036   6.376 -0.7865  0.0259 -0.4223
46371SOL    HW249044   0.326   3.934   6.277  0.5417 -0.2936 -0.8157
46372SOL     OW49045  10.794  10.250  10.414 -0.2574  0.5984 -0.4259
46372SOL    HW149046  10.736  10.181  10.381  0.5696 -0.8584  1.0225
46372SOL    HW249047  10.745  10.290  10.485  0.7232 -1.2110  1.3829
46373SOL     OW49048   8.709  13.312   9.991 -0.0068  0.4263  0.3479
46373SOL    HW149049   8.690  13.395   9.947 -0.0187 -0.5676 -1.6474
46373SOL    HW249050   8.737  13.337  10.079 -2.5029  2.3971  0.7078
46374SOL     OW49051  10.429   1.685   6.424  0.0950  0.6226 -0.3001
46374SOL    HW149052  10.378   1.616   6.380 -0.0096  1.3305 -1.3326
46374SOL    HW249053  10.487   1.719   6.356  3.5108 -1.5044  1.2798
46375SOL     OW49054   9.461   3.464  13.067  0.1631 -0.0384  0.0444
46375SOL    HW149055   9.483   3.371  13.060 -1.2857 -0.4168  0.1492
46375SOL    HW249056   9.460   3.495  12.976  0.7722 -0.0802  0.0163
46376SOL     OW49057   2.101  11.996   0.517  0.3025  0.2146  0.2985
46376SOL    HW149058   2.162  11.925   0.533 -0.9268 -1.0506 -0.4088
46376SOL    HW249059   2.072  11.983   0.426 -0.9822  0.7719  0.6015
46377SOL     OW49060   4.354   3.155   3.655 -0.1757 -0.1567  0.2530
46377SOL    HW149061   4.328   3.227   3.597 -1.6775 -1.0956 -0.3093
46377SOL    HW249062   4.328   3.185   3.743 -1.2620 -0.1783 -0.0394
46378SOL     OW49063   7.931   8.650   3.370  0.1132 -0.5234  0.1532
46378SOL    HW149064   8.013   8.656   3.418 -0.2558  0.6010  0.6715
46378SOL    HW249065   7.893   8.567   3.399  1.6105 -1.6797 -1.0317
46379SOL     OW49066  13.312  11.929   3.557  0.1238 -0.0847  0.3202
46379SOL    HW149067  13.344  12.003   3.507  0.1988 -1.3407 -1.5905
46379SOL    HW249068  13.226  11.956   3.589  0.8732  1.4303  1.1478
46380SOL     OW49069   7.699   1.153   5.485  0.0838  0.3387  0.2405
46380SOL    HW149070   7.646   1.166   5.406  2.1874  1.4848 -1.0542
46380SOL    HW249071   7.699   1.239   5.528  1.8241  0.6975 -0.4189
46381SOL     OW49072   3.357   7.192   7.853 -0.5522  0.4282 -0.2200
46381SOL    HW149073   3.266   7.202   7.880 -1.1124 -0.1440 -1.7368
46381SOL    HW249074   3.373   7.265   7.793  0.2183  0.9170  0.5584
46382SOL     OW49075   9.251   6.718   4.209 -0.0368 -0.3255 -0.0249
46382SOL    HW149076   9.190   6.645   4.197  0.3660 -0.9753  1.5900
46382SOL    HW249077   9.296   6.726   4.124  0.4663 -2.4988 -0.0184
46383SOL     OW49078  12.332   6.581   3.931 -0.4745 -0.0760 -0.0639
46383SOL    HW149079  12.363   6.606   4.019 -3.0633 -0.0921  0.9491
46383SOL    HW249080  12.351   6.488   3.924 -0.7737 -0.2046  0.7340
46384SOL     OW49081  11.850   5.708   2.782 -0.1914  0.2334 -0.2979
46384SOL    HW149082  11.931   5.676   2.823  0.8216  2.6811 -0.2233
46384SOL    HW249083  11.800   5.629   2.763  0.3420 -1.1982  3.4434
46385SOL     OW49084   4.202  12.282   3.348  0.3156  0.2675  0.1776
46385SOL    HW149085   4.198  12.339   3.272  1.2607 -1.8383 -1.5552
46385SOL    HW249086   4.259  12.210   3.322 -0.7543 -1.4770  2.2469
46386SOL     OW49087   6.201   2.726   6.362 -0.3352 -0.8095  0.7136
46386SOL    HW149088   6.275   2.785   6.351  1.2939 -2.4976  2.0254
46386SOL    HW249089   6.124   2.782   6.349  1.1115  0.8951 -1.2161
46387SOL     OW49090  11.239   5.267   0.221 -0.5421 -0.5493 -0.6307
46387SOL    HW149091  11.225   5.350   0.175  4.1577  1.2063  0.5971
46387SOL    HW249092  11.301   5.219   0.166 -0.8070 -1.9020  0.2157
46388SOL     OW49093   0.477   2.908   0.547 -0.2727 -0.6844 -0.4386
46388SOL    HW149094   0.534   2.834   0.569  1.2470  0.5228 -0.1474
46388SOL    HW249095   0.389   2.872   0.551  0.1736 -1.7896  2.7238
46389SOL     OW49096  11.098   5.047   9.567 -0.1167 -0.4311  0.1108
46389SOL    HW149097  11.114   5.071   9.476 -2.5081  2.5020  0.2806
46389SOL    HW249098  11.072   4.955   9.564  0.7963 -0.6748 -2.0155
46390SOL     OW49099   2.344   5.581   1.976  0.1738  0.6676  0.0748
46390SOL    HW149100   2.293   5.563   1.897 -0.1299  0.2089  0.3669
46390SOL    HW249101   2.425   5.622   1.944 -0.7811  2.3152 -0.3179
46391SOL     OW49102   2.780   5.528   0.180 -0.3356 -0.1937 -0.8418
46391SOL    HW149103   2.870   5.512   0.209 -0.2919  0.4022 -0.6394
46391SOL    HW249104   2.781   5.618   0.148 -1.1318  0.2206  0.2553
46392SOL     OW49105   5.865   6.587   1.089 -0.4412 -0.3720 -0.6644
46392SOL    HW149106   5.809   6.510   1.089 -0.4115 -0.4185 -2.2744
46392SOL    HW249107   5.843   6.633   1.008 -2.2994  2.6837  1.3626
46393SOL     OW49108   6.479   4.232   9.645  0.4488  0.1018  0.1069
46393SOL    HW149109   6.505   4.144   9.674  0.2268 -0.3441 -1.0079
46393SOL    HW249110   6.410   4.258   9.706  1.0644 -0.1418  0.9450
46394SOL     OW49111   5.812   4.254   5.658  0.3018 -0.0559 -0.1177
46394SOL    HW149112   5.851   4.316   5.719 -2.4618 -1.3733  3.3327
46394SOL    HW249113   5.878   4.185   5.647  1.2021  0.6629  0.6721
46395SOL     OW49114   0.939   1.110  13.081  0.2796 -0.5298  0.2196
46395SOL    HW149115   0.860   1.109  13.027  0.5555  0.8530 -0.2424
46395SOL    HW249116   1.004   1.062  13.030 -0.2190 -1.6094  0.5680
46396SOL     OW49117  12.346   5.000   0.300  0.1818 -0.2647  0.1914
46396SOL    HW149118  12.314   5.029   0.214  0.8505  3.0448  0.9472
46396SOL    HW249119  12.277   5.023   0.361  0.4529 -0.9858  0.7903
46397SOL     OW49120   5.087   6.076   2.692 -0.2141  0.1217 -0.2780
46397SOL    HW149121   5.167   6.045   2.650 -1.1573 -1.2356 -1.1269
46397SOL    HW249122   5.047   5.997   2.729 -0.3480  1.0058  1.6215
46398SOL     OW49123  11.800   5.389   8.826 -0.3691  0.1013 -0.4848
46398SOL    HW149124  11.777   5.307   8.782 -0.1486  0.7323 -1.8504
46398SOL    HW249125  11.801   5.368   8.919 -1.6969 -1.1087 -0.7071
46399SOL     OW49126  11.340  13.090   8.561 -0.0224  0.2712 -1.0772
46399SOL    HW149127  11.299  13.093   8.474  2.0109  0.0687 -2.0875
46399SOL    HW249128  11.335  12.998   8.586 -1.6333  0.4931 -0.4037
46400SOL     OW49129   4.449   1.533   3.925 -0.9140  0.3232  0.0637
46400SOL    HW149130   4.415   1.622   3.938 -1.5696  0.0944 -0.0790
46400SOL    HW249131   4.448   1.521   3.830  1.1778  0.9324 -0.0882
46401SOL     OW49132   0.155   8.771   9.955  0.5240 -0.0358 -0.2709
46401SOL    HW149133   0.159   8.714  10.032  3.0032 -0.3299 -0.5378
46401SOL    HW249134   0.201   8.851   9.982  1.9896 -0.3906 -1.6094
46402SOL     OW49135   8.993  12.778   9.234 -0.1390 -0.3192  0.3807
46402SOL    HW149136   8.958  12.824   9.158  0.4479 -0.8320 -0.2141
46402SOL    HW249137   8.923  12.717   9.260 -0.1856 -0.4235  0.0079
46403SOL     OW49138   9.076   7.105  10.502  0.2501  0.3663  0.1625
46403SOL    HW149139   9.015   7.068  10.566 -2.6768 -2.8275 -3.8913
46403SOL    HW249140   9.152   7.048  10.505  0.3720  0.5753  1.1327
46404SOL     OW49141  11.614   6.024   4.812 -0.0092 -0.1098  0.2973
46404SOL    HW149142  11.594   6.070   4.731  1.8357  0.5911  0.1885
46404SOL    HW249143  11.667   5.949   4.786  0.0552 -0.2393  0.7783
46405SOL     OW49144   7.713   9.594  10.814 -0.3762 -0.4072 -0.4164
46405SOL    HW149145   7.747   9.520  10.863  0.1037 -1.0774 -1.7043
46405SOL    HW249146   7.635   9.621  10.862  0.7289 -0.2428  1.3597
46406SOL     OW49147   8.660  10.758   4.839  0.2102  0.0610  0.1584
46406SOL    HW149148   8.609  10.739   4.917  0.6178  0.5782  0.5625
46406SOL    HW249149   8.647  10.852   4.824  0.5174  0.0622 -0.1157
46407SOL     OW49150  11.399   0.394  12.395 -0.1572  0.2643 -0.2569
46407SOL    HW149151  11.432   0.304  12.402  0.6594  0.3837 -2.0670
46407SOL    HW249152  11.472   0.448  12.426 -0.0975  0.3664 -0.5748
46408SOL     OW49153  12.993   2.664   4.998  0.0129 -0.2842 -0.1261
46408SOL    HW149154  13.032   2.748   5.022  0.9809 -0.8766  0.4646
46408SOL    HW249155  13.045   2.634   4.924 -0.0357 -0.5664 -0.0467
46409SOL     OW49156   4.130   2.966  13.314 -0.2797 -0.4308 -0.0734
46409SOL    HW149157   4.157   2.874  13.322 -1.8915 -0.8563  0.8557
46409SOL    HW249158   4.205   3.009  13.274  0.9157 -1.9580  0.4172
46410SOL     OW49159  11.268  10.740   3.117  0.0050  0.2368  0.2078
46410SOL    HW149160  11.313  10.792   3.050 -1.8915  2.7940  0.7663
46410SOL    HW249161  11.334  10.678   3.147  2.2866  1.9564 -0.9018
46411SOL     OW49162   6.494   6.992   0.306 -0.2165 -0.7152 -0.3624
46411SOL    HW149163   6.540   7.058   0.358 -1.0209  0.3224 -0.9343
46411SOL    HW249164   6.517   7.013   0.215 -0.0875 -1.5416 -0.5348
46412SOL     OW49165   5.780   9.558   7.032 -0.3354  0.2814 -0.1087
46412SOL    HW149166   5.719   9.490   7.004  0.9438 -1.0037  0.1174
46412SOL    HW249167   5.809   9.599   6.951 -0.1638 -0.2923 -0.3387
46413SOL     OW49168  12.583   1.183  10.245  0.2077 -0.4007 -0.3724
46413SOL    HW149169  12.594   1.129  10.167  1.9248 -0.7138  0.0452
46413SOL    HW249170  12.661   1.239  10.246 -0.8501  1.1305 -0.0405
46414SOL     OW49171   6.048   8.510   7.554  0.3747 -0.2984  0.2687
46414SOL    HW149172   5.970   8.563   7.572 -0.7967 -0.5912 -3.2879
46414SOL    HW249173   6.114   8.573   7.526  1.1597 -0.1716  2.2321
46415SOL     OW49174   7.333   1.198   9.725 -0.1716  0.6542  0.9083
46415SOL    HW149175   7.374   1.158   9.801  0.1253  0.2549  0.5425
46415SOL    HW249176   7.407   1.229   9.672  0.0716 -3.9814 -1.9827
46416SOL     OW49177   0.875   5.078   9.106 -0.0394 -0.3503 -0.4046
46416SOL    HW149178   0.817   5.009   9.138  2.7443 -2.4531  0.5348
46416SOL    HW249179   0.923   5.106   9.184 -0.1458  1.7167 -1.0370
46417SOL     OW49180   9.228  11.569   3.366 -0.7933  0.1039 -0.8185
46417SOL    HW149181   9.187  11.485   3.346 -0.1663 -0.3314 -0.3287
46417SOL    HW249182   9.318  11.546   3.390 -0.9488  0.8046  0.4818
46418SOL     OW49183   3.545   6.394  11.180  0.2054 -0.3465  0.3358
46418SOL    HW149184   3.493   6.407  11.101  0.4390 -0.4032  0.1696
46418SOL    HW249185   3.623   6.448  11.167  0.4506 -0.6929  0.3264
46419SOL     OW49186  10.432   2.005   0.312 -0.1138 -0.4175 -0.6173
46419SOL    HW149187  10.418   1.917   0.276  0.0759 -0.4892 -0.5119
46419SOL    HW249188  10.378   2.007   0.391 -2.0565  0.3773 -1.8856
46420SOL     OW49189   3.066   7.407   6.589  0.2500  0.5596 -0.2590
46420SOL    HW149190   3.101   7.399   6.500  3.1392  2.2371  0.5654
46420SOL    HW249191   3.056   7.501   6.602  0.7449  0.4071  1.4665
46421SOL     OW49192   2.088   0.289   0.575 -0.6502  0.5862  0.2103
46421SOL    HW149193   2.137   0.215   0.539 -3.3619 -0.4155 -1.7083
46421SOL    HW249194   2.091   0.276   0.670  0.6953 -0.7632  0.0213
46422SOL     OW49195   1.328  10.598  11.620 -0.4471 -0.4329 -0.0555
46422SOL    HW149196   1.408  10.629  11.662 -0.2381  0.1679 -0.8786
46422SOL    HW249197   1.312  10.512  11.660 -0.2553  0.1073  1.2270
46423SOL     OW49198  11.228  10.889   0.124  0.1866  0.1956 -0.4176
46423SOL    HW149199  11.256  10.981   0.121  1.6068 -0.2012 -0.2360
46423SOL    HW249200  11.283  10.850   0.192 -0.0415 -0.9141 -0.8552
46424SOL     OW49201   0.027  13.192   1.314 -0.2433 -0.5397 -0.0105
46424SOL    HW149202   0.117  13.224   1.309 -0.3983  0.4844  2.4282
46424SOL    HW249203   0.033  13.101   1.286  1.4949 -0.3863 -0.2512
46425SOL     OW49204   8.007   4.002  13.053  0.1602  0.1443  0.3220
46425SOL    HW149205   7.970   3.927  13.008  0.1111  1.1373 -1.4210
46425SOL    HW249206   8.102   3.989  13.047  0.1469 -0.0207  0.4667
46426SOL     OW49207   8.229   5.811   7.504  0.1024  0.1459  0.0946
46426SOL    HW149208   8.154   5.805   7.563  0.5081  1.7839  0.8286
46426SOL    HW249209   8.305   5.823   7.561  0.9890 -1.7123 -0.6244
46427SOL     OW49210   1.832   4.936   7.891  0.3897 -0.0548  0.0852
46427SOL    HW149211   1.824   5.005   7.958  0.9442 -0.2727  0.3817
46427SOL    HW249212   1.852   4.983   7.811 -0.2002  0.2048  0.0860
46428SOL     OW49213   2.977   5.760   2.096 -0.1586  0.3669  0.3159
46428SOL    HW149214   3.061   5.750   2.050 -0.3476  2.9167 -0.7591
46428SOL    HW249215   2.912   5.724   2.036 -0.0968  0.9318 -0.0969
46429SOL     OW49216   2.750  10.411   8.788  0.4201  0.2676  0.3908
46429SOL    HW149217   2.789  10.347   8.847 -0.0788 -2.1120 -1.6970
46429SOL    HW249218   2.694  10.359   8.731  0.1433  2.5793 -1.5706
46430SOL     OW49219   1.793  10.913   4.359  0.2164  0.4137  0.1060
46430SOL    HW149220   1.739  10.940   4.433 -0.9365  0.7490 -0.8155
46430SOL    HW249221   1.860  10.857   4.397 -0.0482  0.9764  1.4607
46431SOL     OW49222   9.144  11.377   2.760 -0.2174  0.1731 -0.4253
46431SOL    HW149223   9.052  11.353   2.745 -0.9077  2.1089  0.3577
46431SOL    HW249224   9.184  11.298   2.796 -1.4012 -0.9098 -1.3915
46432SOL     OW49225   9.817  13.105   2.688 -0.0249  0.5399  0.0815
46432SOL    HW149226   9.767  13.098   2.769 -0.7760  1.1145 -0.3126
46432SOL    HW249227   9.838  13.198   2.682 -1.1567  0.7541 -1.0461
46433SOL     OW49228   1.189   7.146  10.853 -0.5373  0.5523 -0.3583
46433SOL    HW149229   1.274   7.102  10.854 -0.5119  0.5753 -1.0450
46433SOL    HW249230   1.131   7.085  10.899 -0.4265 -0.0494 -0.9902
46434SOL     OW49231   8.558  11.498   6.926 -0.4258 -0.1876 -0.4223
46434SOL    HW149232   8.508  11.549   6.861 -0.4799  2.1636  1.3201
46434SOL    HW249233   8.536  11.407   6.907 -4.2527  0.6218 -0.6918
46435SOL     OW49234   9.543   5.242   2.476 -0.2315  0.1847 -0.1763
46435SOL    HW149235   9.583   5.170   2.428  0.5481  0.4659  0.0445
46435SOL    HW249236   9.449   5.230   2.463 -0.0474  0.2376 -1.7472
46436SOL     OW49237   5.190   3.298   4.568 -0.8592 -0.3138  0.1406
46436SOL    HW149238   5.173   3.206   4.548  1.8282 -0.8968  0.1637
46436SOL    HW249239   5.275   3.297   4.612 -0.4140  2.2479 -0.5255
46437SOL     OW49240   6.460   1.093  11.093 -0.7278  0.6001 -0.3323
46437SOL    HW149241   6.531   1.088  11.030 -1.1689  1.4677 -0.9253
46437SOL    HW249242   6.503   1.107  11.177 -0.2213  1.9906 -0.8016
46438SOL     OW49243   5.118   0.011   1.847  0.3473 -0.2522 -0.4079
46438SOL    HW149244   5.169   0.037   1.924 -0.1232 -2.8489  0.9165
46438SOL    HW249245   5.066   0.088   1.825  2.3861  1.4021  0.2205
46439SOL     OW49246  11.943   8.488   2.886 -0.3903  0.1370 -0.0576
46439SOL    HW149247  11.900   8.416   2.840 -1.7913 -0.1331  1.5907
46439SOL    HW249248  11.967   8.451   2.971  1.0299  0.9718 -0.0603
46440SOL     OW49249   0.396  11.674   0.788 -0.2433 -0.4195 -0.3550
46440SOL    HW149250   0.433  11.591   0.816 -0.7119 -0.3554  0.4698
46440SOL    HW249251   0.310  11.651   0.752 -0.7837 -0.1901  0.7597
46441SOL     OW49252   8.587  11.385   2.365 -0.3322 -0.2494  0.0495
46441SOL    HW149253   8.599  11.314   2.302 -0.4688 -1.2385  1.1184
46441SOL    HW249254   8.575  11.342   2.449 -3.8302  0.8527  0.2888
46442SOL     OW49255   9.551   7.386   1.001 -0.2319  0.0630  0.2617
46442SOL    HW149256   9.503   7.445   0.942 -1.0026  1.4420  2.1768
46442SOL    HW249257   9.642   7.391   0.970 -0.7148  0.1467 -1.2570
46443SOL     OW49258   8.312   7.539   3.621 -0.2159  0.8955  0.1424
46443SOL    HW149259   8.246   7.471   3.612 -1.2379  2.0348 -1.6627
46443SOL    HW249260   8.395   7.494   3.608 -0.7586 -0.2257  0.4160
46444SOL     OW49261   4.557   9.659   7.075  0.3378 -0.3321 -0.2795
46444SOL    HW149262   4.463   9.671   7.071  0.5128  1.4207 -0.1046
46444SOL    HW249263   4.590   9.739   7.118  1.9378 -0.6079 -0.9023
46445SOL     OW49264   1.033  11.959   5.124 -0.0049 -0.7428  0.3637
46445SOL    HW149265   1.124  11.969   5.152  0.1198 -0.1788 -0.2190
46445SOL    HW249266   1.006  11.875   5.161  1.1559 -1.5254 -0.5047
46446SOL     OW49267   1.274  11.117   7.984  0.2018 -0.1602  0.4663
46446SOL    HW149268   1.264  11.052   8.053  0.4042 -2.0302 -1.1782
46446SOL    HW249269   1.359  11.158   8.001  0.5342 -1.0437  0.9560
46447SOL     OW49270  12.426   9.512   9.157  0.4766 -0.5405 -0.4804
46447SOL    HW149271  12.446   9.604   9.138  0.3355 -0.7014 -1.4727
46447SOL    HW249272  12.486   9.489   9.228 -0.1630  0.5867  0.4537
46448SOL     OW49273  10.663   5.543   0.513 -0.4860  0.1430  0.3698
46448SOL    HW149274  10.711   5.625   0.501 -0.6283  0.3402  1.1178
46448SOL    HW249275  10.704   5.502   0.589 -0.9522 -0.0986  0.4920
46449SOL     OW49276   7.045  11.363   7.074  0.0748 -0.1702  0.4993
46449SOL    HW149277   7.044  11.279   7.120  2.3898 -1.3086 -1.3489
46449SOL    HW249278   7.133  11.397   7.088 -0.0798  0.7906 -0.7696
46450SOL     OW49279   9.212   5.610   0.735 -0.2105  0.5518 -0.2907
46450SOL    HW149280   9.286   5.551   0.748 -0.6256  0.2122  0.6859
46450SOL    HW249281   9.211   5.665   0.813 -1.6848 -0.2575  0.2975
46451SOL     OW49282   5.670   4.445   2.471  0.5593 -0.6119 -0.1053
46451SOL    HW149283   5.711   4.518   2.424 -1.4200  0.7264  0.1184
46451SOL    HW249284   5.621   4.487   2.542 -0.1597 -2.2074  0.3755
46452SOL     OW49285  11.188  12.657   0.631 -0.5993  0.0982  0.4161
46452SOL    HW149286  11.180  12.595   0.558  2.2114  2.2366 -1.9350
46452SOL    HW249287  11.125  12.726   0.610 -1.1287 -0.1790  1.0686
46453SOL     OW49288   7.664  13.022  12.352 -0.1737 -0.2513 -0.3179
46453SOL    HW149289   7.752  13.049  12.325 -0.0950  0.2735  0.4242
46453SOL    HW249290   7.606  13.086  12.310 -0.2713 -0.9722 -1.3281
46454SOL     OW49291  10.322  11.610   6.302 -0.7820  0.1878 -0.2207
46454SOL    HW149292  10.389  11.549   6.329 -0.7665  0.2016 -0.2279
46454SOL    HW249293  10.242  11.579   6.344 -1.0625 -0.6302 -1.3011
46455SOL     OW49294   1.083   6.187   8.887 -0.0073 -0.1711  0.4538
46455SOL    HW149295   1.155   6.194   8.824 -1.6685  1.7008 -1.3611
46455SOL    HW249296   1.070   6.093   8.898  0.6986 -0.5518 -1.5668
46456SOL     OW49297   3.181   1.402   9.962  0.0863 -0.5185 -0.6325
46456SOL    HW149298   3.091   1.369   9.953 -1.0565  2.1491  0.1998
46456SOL    HW249299   3.213   1.362  10.043 -1.4079  0.6340  0.5852
46457SOL     OW49300  11.937   3.720   3.004 -0.1137  0.2358 -0.7288
46457SOL    HW149301  11.968   3.809   3.023 -0.9416  0.0933  1.6902
46457SOL    HW249302  11.897   3.691   3.086  0.3157 -2.4651 -1.3810
46458SOL     OW49303   0.958   2.686  10.959  0.0555  0.0640 -0.2633
46458SOL    HW149304   0.907   2.714  10.882 -0.3386  0.0589 -0.0082
46458SOL    HW249305   1.030   2.634  10.923  0.8548  1.4620 -0.7664
46459SOL     OW49306  10.992   8.015  11.220  0.1403 -0.4389 -0.4434
46459SOL    HW149307  10.899   8.013  11.241  0.0014  0.6411 -0.8616
46459SOL    HW249308  11.006   7.939  11.164 -0.7786  0.0779 -1.4241
46460SOL     OW49309   9.511   1.819   2.555  0.0700  0.0640  0.6830
46460SOL    HW149310   9.494   1.777   2.471  1.6597  0.0737  0.3228
46460SOL    HW249311   9.451   1.776   2.616 -1.0578  0.0098 -0.4217
46461SOL     OW49312   6.471  12.001  12.713  0.0479 -0.1386  0.0670
46461SOL    HW149313   6.438  12.088  12.691  1.0370  0.4730  0.8906
46461SOL    HW249314   6.402  11.962  12.767 -0.7645 -0.2069 -1.0053
46462SOL     OW49315   8.686   0.024   6.524 -0.4905 -0.2239  0.1377
46462SOL    HW149316   8.690   0.099   6.465 -0.6990 -0.3104  0.0156
46462SOL    HW249317   8.762  -0.030   6.500 -0.2632  0.0129  0.3159
46463SOL     OW49318   0.193   4.108  12.636  0.3080 -0.4176 -0.1540
46463SOL    HW149319   0.230   4.024  12.661  1.1674  0.0141  0.0447
46463SOL    HW249320   0.169   4.098  12.544  2.8749 -0.0511 -0.9210
46464SOL     OW49321   1.254  11.207  12.268  0.4090  0.0469 -0.1286
46464SOL    HW149322   1.330  11.261  12.290  1.2353 -1.2212  0.2717
46464SOL    HW249323   1.227  11.167  12.351 -0.4055  0.1175 -0.3510
46465SOL     OW49324   8.097   4.885   2.489  0.1308 -0.3052 -0.0355
46465SOL    HW149325   8.076   4.861   2.399 -0.8979  2.0596 -0.5205
46465SOL    HW249326   8.013   4.915   2.525  0.7554 -0.1711  1.3514
46466SOL     OW49327   8.651   5.414   2.709  0.7078 -0.4271 -0.5285
46466SOL    HW149328   8.595   5.346   2.672 -1.6122  1.5900 -0.9948
46466SOL    HW249329   8.654   5.393   2.802 -1.3274 -0.3409 -0.3860
46467SOL     OW49330   1.387   2.650   7.375  0.0622  0.2326  0.0785
46467SOL    HW149331   1.392   2.632   7.281  2.0429 -0.8001  0.3306
46467SOL    HW249332   1.444   2.584   7.414 -1.8053 -0.2508  2.1444
46468SOL     OW49333   0.697   2.432  10.953  0.4758 -0.1992  0.0662
46468SOL    HW149334   0.758   2.435  11.026 -0.2485 -0.3905  0.6871
46468SOL    HW249335   0.721   2.507  10.898  2.0237 -0.9455 -0.3261
46469SOL     OW49336   5.089   5.339   2.768 -0.0973  0.0691  0.0908
46469SOL    HW149337   5.096   5.333   2.864 -1.8178 -0.2920  0.2276
46469SOL    HW249338   5.030   5.268   2.744  0.2658  0.1941 -1.2577
46470SOL     OW49339   8.277   0.668  11.415 -0.1103  0.0454  0.0520
46470SOL    HW149340   8.190   0.708  11.411  0.1868  0.6607 -0.4458
46470SOL    HW249341   8.299   0.649  11.324 -1.0503 -3.1090  0.3508
46471SOL     OW49342   9.501  10.431   1.758  0.3296 -0.3290  0.5079
46471SOL    HW149343   9.531  10.342   1.741  0.4102 -0.3330  0.6695
46471SOL    HW249344   9.568  10.487   1.719 -0.0403 -0.3381 -0.1476
46472SOL     OW49345   9.311   8.826   3.131 -0.6142  0.1308  0.1211
46472SOL    HW149346   9.263   8.905   3.157 -0.0462  1.1119 -1.6185
46472SOL    HW249347   9.245   8.770   3.090 -0.8025  0.2192  0.2999
46473SOL     OW49348   3.401   4.521   2.402 -0.1446  0.1577 -0.0753
46473SOL    HW149349   3.452   4.555   2.329  0.0428  1.1431  0.5010
46473SOL    HW249350   3.461   4.460   2.446 -0.0653 -0.0068 -0.4077
46474SOL     OW49351   0.353   4.734   7.341 -1.1001  0.3375 -0.2039
46474SOL    HW149352   0.264   4.702   7.331 -0.9667  0.1389 -0.7957
46474SOL    HW249353   0.408   4.667   7.300 -0.5339 -0.3123  1.5143
46475SOL     OW49354   2.972   2.651  10.826 -0.0803  0.5403  0.0267
46475SOL    HW149355   3.003   2.737  10.854  1.2584 -0.1761  0.8864
46475SOL    HW249356   2.942   2.609  10.907 -0.8938  0.2535 -0.4108
46476SOL     OW49357   6.366   9.443   1.375 -0.4968  0.2278  0.3119
46476SOL    HW149358   6.449   9.398   1.387 -1.0066 -0.6984  0.5274
46476SOL    HW249359   6.361   9.507   1.446 -0.3726 -0.3516  0.8495
46477SOL     OW49360   8.402  13.242   8.885 -1.1857 -0.0978  0.2362
46477SOL    HW149361   8.475  13.287   8.928  0.0544 -1.0049 -0.8437
46477SOL    HW249362   8.364  13.308   8.827  0.9003 -0.4674 -1.6681
46478SOL     OW49363   3.350  11.236   2.880 -0.2203  0.2871  0.0094
46478SOL    HW149364   3.278  11.238   2.817 -0.4090 -0.1220  0.2080
46478SOL    HW249365   3.308  11.227   2.965  0.0963 -1.3611  0.0288
46479SOL     OW49366   0.314   5.932   3.217  0.4780 -0.6008 -0.2248
46479SOL    HW149367   0.363   6.009   3.247  1.3437 -0.2534 -2.3147
46479SOL    HW249368   0.340   5.862   3.276  2.2049 -0.0048 -0.2189
46480SOL     OW49369   2.627   7.697   4.235 -0.2338 -0.3152 -0.3565
46480SOL    HW149370   2.687   7.622   4.240  1.4302  0.9750 -0.2004
46480SOL    HW249371   2.541   7.657   4.223  0.6546 -2.2445 -0.8226
46481SOL     OW49372   4.000   8.946   7.289  0.4102 -0.1705 -0.3768
46481SOL    HW149373   3.915   8.938   7.244 -0.5915 -1.6194  1.6429
46481SOL    HW249374   4.064   8.944   7.218 -1.1906  0.3030 -1.9265
46482SOL     OW49375   8.239   7.880   8.775  0.5194  0.0480 -0.1200
46482SOL    HW149376   8.314   7.931   8.745 -0.1798  1.4342  0.4294
46482SOL    HW249377   8.167   7.907   8.717 -0.1600  0.6615  0.9853
46483SOL     OW49378  13.231  12.988   2.728 -0.1973  0.1150  0.1473
46483SOL    HW149379  13.215  13.010   2.820  1.3042 -2.3342  1.0625
46483SOL    HW249380  13.172  12.915   2.711  0.4452 -0.2687 -0.4459
46484SOL     OW49381   0.605  11.885   8.728 -0.0435 -0.5099  0.1124
46484SOL    HW149382   0.650  11.924   8.803 -0.7093 -0.5108  0.5275
46484SOL    HW249383   0.551  11.957   8.693 -0.1092 -0.6411 -0.0570
46485SOL     OW49384   1.775  13.225   3.560  0.4583  0.7902 -0.0888
46485SOL    HW149385   1.707  13.197   3.622  0.0964  0.7912 -0.4777
46485SOL    HW249386   1.726  13.250   3.482  0.8593  1.4206 -0.1461
46486SOL     OW49387   8.210  11.987  10.284 -0.3760  0.5220 -0.3483
46486SOL    HW149388   8.281  12.050  10.297  0.3367 -0.1783 -0.7480
46486SOL    HW249389   8.168  12.016  10.203  0.6510 -0.1358 -1.1422
46487SOL     OW49390   7.872  10.036  11.115 -0.2737 -0.0942  0.2356
46487SOL    HW149391   7.918   9.961  11.079  0.4411  0.0248  0.8779
46487SOL    HW249392   7.940  10.102  11.128 -0.8406  0.5618 -0.0439
46488SOL     OW49393   2.778   4.887   5.900 -0.7443  0.1130  0.0750
46488SOL    HW149394   2.791   4.849   5.987  0.4889 -0.7844 -0.4689
46488SOL    HW249395   2.748   4.814   5.846 -2.4772  0.8759 -0.0626
46489SOL     OW49396   3.052   2.778   6.660 -0.0199 -0.2152  0.2874
46489SOL    HW149397   2.991   2.752   6.728 -2.6333  0.7046 -1.5541
46489SOL    HW249398   3.034   2.718   6.587  0.6554  0.6136 -0.5986
46490SOL     OW49399  11.767   3.819   6.001  0.2606  0.3252  0.2780
46490SOL    HW149400  11.826   3.894   6.003  0.5392  0.1569 -0.9094
46490SOL    HW249401  11.696   3.845   5.943  0.1100 -0.1526  0.2404
46491SOL     OW49402   1.862   0.181  10.458  0.1839 -0.3735  0.2564
46491SOL    HW149403   1.801   0.108  10.463 -1.1151  0.7109  1.0244
46491SOL    HW249404   1.860   0.219  10.546  0.7479  0.6429 -0.1558
46492SOL     OW49405   0.103   3.161  10.856 -0.3727  0.2667  0.4835
46492SOL    HW149406   0.022   3.150  10.806  0.1199 -2.5748  0.1729
46492SOL    HW249407   0.091   3.244  10.903 -4.0777 -0.7550  1.6069
46493SOL     OW49408   1.603   7.435  10.341 -0.6323 -0.2413  0.1555
46493SOL    HW149409   1.554   7.451  10.421 -0.9957 -0.6070  0.0095
46493SOL    HW249410   1.593   7.515  10.290 -0.0914  0.1358  0.6273
46494SOL     OW49411   4.951   0.519  12.150 -1.0916  0.4308 -0.3962
46494SOL    HW149412   5.032   0.560  12.179 -0.0902 -0.6958 -1.5067
46494SOL    HW249413   4.976   0.431  12.124 -2.6930  0.0293 -0.7071
46495SOL     OW49414   6.085   9.896   9.941  0.1859  0.1805  0.1688
46495SOL    HW149415   6.048   9.961   9.881  0.6916 -0.3023 -0.7010
46495SOL    HW249416   6.156   9.942   9.986  0.9617  0.0993 -0.9038
46496SOL     OW49417   7.713   8.295   3.786 -0.7077  0.6138  0.4739
46496SOL    HW149418   7.803   8.307   3.755 -0.5778  0.0089  0.5953
46496SOL    HW249419   7.659   8.313   3.709 -0.3956 -0.6535 -0.0755
46497SOL     OW49420   2.311   4.882   3.078 -0.2036 -0.1012  0.0241
46497SOL    HW149421   2.354   4.819   3.136 -1.3121  0.7261  1.8294
46497SOL    HW249422   2.345   4.862   2.991  3.1607 -0.0769  1.1822
46498SOL     OW49423  10.149   4.874   4.268 -0.2556 -0.0807  0.3684
46498SOL    HW149424  10.237   4.867   4.231 -0.2253 -0.8503  0.5609
46498SOL    HW249425  10.143   4.800   4.328  0.0732  1.6999  2.7120
46499SOL     OW49426   5.091   3.825   8.221  0.0326  0.0231 -0.4087
46499SOL    HW149427   5.011   3.774   8.231  0.5877 -0.6731  0.6803
46499SOL    HW249428   5.160   3.759   8.213  0.9581  0.5110  2.5093
46500SOL     OW49429  13.205  12.335  11.850 -0.3573  0.0974 -0.0938
46500SOL    HW149430  13.276  12.347  11.912 -0.5703 -2.2203  0.7212
46500SOL    HW249431  13.126  12.334  11.904 -0.6213 -1.1290 -0.4518
46501SOL     OW49432   8.210   7.808  11.715  0.3905  0.3609 -0.6450
46501SOL    HW149433   8.189   7.901  11.709  1.1836  0.4422 -2.9031
46501SOL    HW249434   8.277   7.793  11.648  0.5638 -1.7745 -0.0914
46502SOL     OW49435   3.058  12.555   4.870 -0.5802  0.4497 -0.9761
46502SOL    HW149436   3.113  12.622   4.910 -2.0093  1.0882 -0.0120
46502SOL    HW249437   3.067  12.571   4.776  2.3617 -0.7135 -1.0020
46503SOL     OW49438   5.442   5.262   8.332 -0.0354  0.0025 -0.2089
46503SOL    HW149439   5.469   5.187   8.384 -0.4075 -0.4700 -0.6857
46503SOL    HW249440   5.523   5.295   8.293  0.0207 -0.6647 -0.6634
46504SOL     OW49441  12.189   5.126   7.480 -0.0014  0.3350  0.3712
46504SOL    HW149442  12.237   5.114   7.398 -0.9691 -1.4486  0.0290
46504SOL    HW249443  12.109   5.172   7.453  0.6227  1.6574  0.6717
46505SOL     OW49444   5.773   9.947   2.884  0.6324  0.2434  0.1113
46505SOL    HW149445   5.808   9.998   2.811 -0.6771 -1.2729 -1.6936
46505SOL    HW249446   5.680   9.938   2.864  0.4358 -1.0434  1.4537
46506SOL     OW49447   3.494   0.711   0.373 -0.2841 -0.4079  0.5773
46506SOL    HW149448   3.578   0.681   0.340 -1.0151  0.8595 -2.9317
46506SOL    HW249449   3.431   0.683   0.306 -2.4214  0.2243  2.1964
46507SOL     OW49450   9.254   9.435  12.980  0.1011  0.3076 -0.1056
46507SOL    HW149451   9.198   9.379  12.927 -0.1843 -0.7190  1.2343
46507SOL    HW249452   9.314   9.475  12.917  1.0094 -2.2973 -1.0452
46508SOL     OW49453   1.637  13.128  12.240  0.7942  0.2957  0.3343
46508SOL    HW149454   1.721  13.083  12.253  0.6088 -0.2968 -0.4517
46508SOL    HW249455   1.579  13.061  12.202 -0.2732  0.4853  1.5809
46509SOL     OW49456   4.720  11.348  10.907 -0.1885 -0.1114 -0.3024
46509SOL    HW149457   4.727  11.256  10.932  1.0821 -0.0098 -0.1965
46509SOL    HW249458   4.627  11.361  10.889 -0.4533 -1.3040  0.0880
46510SOL     OW49459   7.998  12.154   7.123 -0.5687  0.1140  0.0454
46510SOL    HW149460   8.001  12.202   7.040 -1.9475 -1.4960 -1.0060
46510SOL    HW249461   8.089  12.131   7.140 -0.0449  1.8568 -0.1181
46511SOL     OW49462  12.596   6.075   5.814  0.3868  0.1054 -0.5408
46511SOL    HW149463  12.501   6.067   5.824  0.6569 -1.0067  2.0420
46511SOL    HW249464  12.613   6.169   5.815 -0.6061  0.2924  0.4657
46512SOL     OW49465   5.191  11.517   6.337 -0.5637 -0.6396  0.4247
46512SOL    HW149466   5.127  11.456   6.375 -1.8558 -0.0681 -0.7533
46512SOL    HW249467   5.268  11.463   6.322 -1.0473 -1.5607  1.1068
46513SOL     OW49468   0.824   0.888   9.979  0.2259 -0.2994  0.0621
46513SOL    HW149469   0.855   0.918  10.064 -0.3152  0.5394 -0.0300
46513SOL    HW249470   0.893   0.828   9.949  0.6718 -0.2001  0.8490
46514SOL     OW49471   3.175  12.590   0.446  0.6333 -0.5588  0.2294
46514SOL    HW149472   3.098  12.645   0.460  1.3955  0.1109  2.0431
46514SOL    HW249473   3.206  12.614   0.359 -0.3268  0.2656  0.0955
46515SOL     OW49474   9.576   5.736   0.477 -0.5310 -0.8054  0.2803
46515SOL    HW149475   9.486   5.768   0.480 -0.8394 -1.7078  2.4839
46515SOL    HW249476   9.627   5.802   0.523  0.1855  0.2072 -1.8201
46516SOL     OW49477   5.755   7.357   2.209 -0.5908 -0.3880 -0.1534
46516SOL    HW149478   5.806   7.362   2.128  0.7334 -1.0579  0.6115
46516SOL    HW249479   5.718   7.445   2.219 -0.8298 -0.3071 -1.4965
46517SOL     OW49480   5.512   5.886   7.983 -0.4902 -0.3211 -0.5632
46517SOL    HW149481   5.513   5.894   7.887  0.3785 -0.5691 -0.5844
46517SOL    HW249482   5.546   5.798   7.999  1.0479  0.3517  0.0269
46518SOL     OW49483  11.736  12.241   6.192  0.1153  0.0276  0.1654
46518SOL    HW149484  11.830  12.230   6.204 -0.0828 -0.9260  1.0089
46518SOL    HW249485  11.706  12.281   6.274 -0.1439  0.8116 -0.3044
46519SOL     OW49486  10.763   6.539   8.742  0.1007  0.2274  0.0720
46519SOL    HW149487  10.756   6.507   8.652  0.6479  1.9081 -0.6046
46519SOL    HW249488  10.715   6.475   8.794  0.9336 -1.5338 -1.2225
46520SOL     OW49489  11.782   8.047  13.111  0.7428 -0.0533  0.0922
46520SOL    HW149490  11.837   8.116  13.147  1.7001 -0.6134 -0.2475
46520SOL    HW249491  11.728   8.018  13.185 -0.1609  1.4935  0.0752
46521SOL     OW49492   5.463   5.555   0.352  0.6335  0.0882  0.3743
46521SOL    HW149493   5.552   5.522   0.338  0.1587 -0.6480 -1.0949
46521SOL    HW249494   5.418   5.541   0.268 -0.7676  0.7874  0.9695
46522SOL     OW49495   0.651   2.750   2.489  0.2041 -0.0741  0.6732
46522SOL    HW149496   0.654   2.656   2.470  0.8492  0.0207  0.2655
46522SOL    HW249497   0.622   2.790   2.407  1.6262  0.2184  0.2801
46523SOL     OW49498   3.203   3.658   7.712  0.2393 -0.4007 -0.4265
46523SOL    HW149499   3.243   3.683   7.629 -0.7339  2.4105 -0.1521
46523SOL    HW249500   3.224   3.731   7.771 -0.1437 -1.7476  1.4581
46524SOL     OW49501   4.643   8.981  10.894 -0.2679  0.0101  0.0423
46524SOL    HW149502   4.577   8.934  10.844  1.2901 -1.3329 -0.8702
46524SOL    HW249503   4.641   9.070  10.860 -1.8146  0.0813  0.2834
46525SOL     OW49504  10.491   2.718   2.797 -0.4315 -0.1302 -0.1464
46525SOL    HW149505  10.460   2.760   2.717  0.9778  3.0577  0.8485
46525SOL    HW249506  10.586   2.722   2.792 -0.3089  0.1703  1.6837
46526SOL     OW49507   9.873   6.635   3.910  0.4785  0.1787  0.0170
46526SOL    HW149508   9.869   6.569   3.979  1.7410 -0.3616 -0.3843
46526SOL    HW249509   9.786   6.636   3.871  0.5576 -1.6228 -0.2883
46527SOL     OW49510   6.562  13.217   4.391  0.1727 -0.0078 -0.0798
46527SOL    HW149511   6.572  13.138   4.337 -2.4348 -0.2793 -0.3250
46527SOL    HW249512   6.494  13.193   4.455  0.1436  1.6932  0.5815
46528SOL     OW49513   5.481  11.318  10.491 -0.0366  0.2482  0.0840
46528SOL    HW149514   5.500  11.411  10.480 -0.0685  0.2830  0.3280
46528SOL    HW249515   5.472  11.306  10.585 -1.2422  0.2389 -0.0121
46529SOL     OW49516  11.752  11.176   6.270 -0.0991 -0.6824  0.4470
46529SOL    HW149517  11.752  11.093   6.319  0.4668 -0.9810 -0.0357
46529SOL    HW249518  11.798  11.237   6.327 -0.6111 -0.6750  0.8521
46530SOL     OW49519   0.067  10.743  12.040 -0.4945  0.4925 -0.6294
46530SOL    HW149520  -0.002  10.799  12.004 -0.0096  0.4185 -1.7279
46530SOL    HW249521   0.060  10.661  11.991  0.2686  0.4358 -0.6629
46531SOL     OW49522   0.493   3.910  11.630  0.1682  0.0789  0.1060
46531SOL    HW149523   0.447   3.830  11.606  0.2719 -0.2779  1.0571
46531SOL    HW249524   0.506   3.903  11.724  1.8271  0.3390 -0.0632
46532SOL     OW49525   2.931   5.868   6.241 -0.3336 -0.2248  0.0747
46532SOL    HW149526   2.891   5.814   6.310  0.7572 -2.3428 -0.8611
46532SOL    HW249527   2.995   5.810   6.200  1.2482  1.9616 -0.7204
46533SOL     OW49528   4.223  11.176   5.147 -0.8279 -0.3546 -0.1595
46533SOL    HW149529   4.168  11.121   5.092 -0.5803  0.1044 -0.8821
46533SOL    HW249530   4.310  11.135   5.142 -1.0660 -1.0039  0.8719
46534SOL     OW49531  13.162  11.533   8.437  0.8257 -0.2525  0.1869
46534SOL    HW149532  13.193  11.600   8.497  2.1598 -1.2305  0.6296
46534SOL    HW249533  13.089  11.491   8.482  2.2672 -1.4628  1.5034
46535SOL     OW49534   5.901  13.030  12.536 -0.8816 -0.2154 -0.0530
46535SOL    HW149535   5.924  13.089  12.464 -1.6770 -0.2494 -0.3399
46535SOL    HW249536   5.810  13.052  12.557 -0.9172 -0.7712  0.3901
46536SOL     OW49537   8.085   6.716   4.521 -0.5971  0.1386 -0.8696
46536SOL    HW149538   8.006   6.686   4.477 -0.6716  0.1721 -0.7603
46536SOL    HW249539   8.053   6.758   4.601 -0.4103 -0.6228 -0.3927
46537SOL     OW49540   5.703   3.945   4.230  0.6970 -0.0110 -0.0537
46537SOL    HW149541   5.609   3.960   4.235 -0.3156 -4.8317  0.5861
46537SOL    HW249542   5.728   3.979   4.144 -2.3370 -1.1985 -1.5592
46538SOL     OW49543   5.263   3.592  13.170  0.4683  0.2796 -0.1699
46538SOL    HW149544   5.211   3.650  13.225  1.2638  0.0160  0.9036
46538SOL    HW249545   5.347   3.637  13.160  1.4301 -1.0278  1.4449
46539SOL     OW49546   0.189  11.924   9.519  0.0692  0.3128 -0.2289
46539SOL    HW149547   0.200  11.840   9.565 -0.8546 -0.0684 -0.6793
46539SOL    HW249548   0.277  11.949   9.493  0.4457 -0.1392  0.5799
46540SOL     OW49549   1.447   3.606   9.757 -0.0263  0.6032 -0.2503
46540SOL    HW149550   1.497   3.647   9.686 -1.4216  2.0296 -0.4739
46540SOL    HW249551   1.407   3.530   9.716 -0.9260  1.4853 -1.0808
46541SOL     OW49552   7.635   0.487   6.609 -0.8631  0.3033  0.6851
46541SOL    HW149553   7.590   0.506   6.526  1.8232  1.7341 -0.5647
46541SOL    HW249554   7.663   0.572   6.641  0.0528 -0.4438  1.9464
46542SOL     OW49555  11.104   8.049   2.494  0.1815 -0.2469 -0.1099
46542SOL    HW149556  11.125   8.086   2.580 -1.5236  0.1789  0.1670
46542SOL    HW249557  11.008   8.053   2.490  0.1335 -1.9534 -1.2971
46543SOL     OW49558   3.190  12.598   4.029 -0.1935 -0.8592  0.1998
46543SOL    HW149559   3.277  12.599   4.069 -0.7968 -0.3688  1.5296
46543SOL    HW249560   3.207  12.584   3.936  1.4894  1.8098  0.0157
46544SOL     OW49561   0.055  10.796  11.735  0.1868 -0.2344 -0.5140
46544SOL    HW149562  -0.000  10.858  11.783 -1.4229 -1.3991 -0.8003
46544SOL    HW249563   0.079  10.730  11.800 -0.5534 -0.8796 -0.8882
46545SOL     OW49564   2.050   8.539   3.690 -0.2004 -0.3638 -0.0572
46545SOL    HW149565   2.069   8.500   3.776 -0.7063 -0.1529  0.1531
46545SOL    HW249566   1.961   8.571   3.698  0.3235  1.1746 -0.0911
46546SOL     OW49567   5.471  11.104   8.463 -0.3504 -0.3027 -0.9182
46546SOL    HW149568   5.487  11.112   8.369 -0.1946 -2.8009 -1.1653
46546SOL    HW249569   5.379  11.127   8.474 -0.0421  1.2950 -1.4514
46547SOL     OW49570  11.848  12.695   9.260  0.5035  0.2465  0.1828
46547SOL    HW149571  11.756  12.700   9.287  0.7860  0.8030  1.0705
46547SOL    HW249572  11.876  12.608   9.289 -0.2633 -0.7572 -1.8654
46548SOL     OW49573   1.272  11.400   4.240  0.0181  0.2083  0.4535
46548SOL    HW149574   1.184  11.433   4.221 -0.4752 -1.2710 -0.0353
46548SOL    HW249575   1.257  11.313   4.278  1.2818 -0.7323 -1.0580
46549SOL     OW49576   8.879   5.433   2.539  0.1923 -0.1853  0.2098
46549SOL    HW149577   8.785   5.434   2.557  0.0722 -1.3923 -0.2526
46549SOL    HW249578   8.920   5.451   2.623 -0.4381 -1.1239  0.7396
46550SOL     OW49579   1.192   0.930   9.387  0.5260  0.3227 -1.0181
46550SOL    HW149580   1.213   0.925   9.480  4.5209 -0.6917 -1.7650
46550SOL    HW249581   1.102   0.960   9.384 -0.0122 -0.2960  3.1550
46551SOL     OW49582   9.527  12.945  10.070 -0.3363  0.3845 -0.7601
46551SOL    HW149583   9.527  12.851  10.090 -0.7792  0.4450 -0.4777
46551SOL    HW249584   9.618  12.971  10.081 -0.4138  0.2358  0.3290
46552SOL     OW49585   7.339  11.760   6.765  0.6313  0.0398 -0.2143
46552SOL    HW149586   7.338  11.684   6.706  0.3846 -0.3095  0.2266
46552SOL    HW249587   7.333  11.721   6.853  1.1523  0.5465  0.0471
46553SOL     OW49588   6.214  12.140  10.637  0.0585 -0.0670 -0.3021
46553SOL    HW149589   6.289  12.090  10.604 -0.0262  0.0954 -0.7526
46553SOL    HW249590   6.219  12.223  10.590 -0.9788 -0.4339 -1.1009
46554SOL     OW49591   2.723  12.362   7.447  0.2052 -0.4162 -0.0184
46554SOL    HW149592   2.634  12.326   7.448  0.5340 -1.2320  0.7448
46554SOL    HW249593   2.749  12.365   7.539  0.3501  1.4416 -0.0790
46555SOL     OW49594   8.212   6.263   9.386  0.5794  0.4325  0.8401
46555SOL    HW149595   8.288   6.312   9.354  1.3538 -0.4435  1.3047
46555SOL    HW249596   8.192   6.201   9.315  1.2798 -0.3972  1.3532
46556SOL     OW49597   7.366   7.546  12.848 -0.2010 -0.1304 -0.2897
46556SOL    HW149598   7.429   7.607  12.810  0.1014 -0.0911  0.2593
46556SOL    HW249599   7.361   7.572  12.940 -1.4861  0.2527 -0.4547
46557SOL     OW49600   5.938   0.124  10.742  0.4331  0.3660  0.2938
46557SOL    HW149601   5.976   0.050  10.694 -0.1501  1.0406 -1.2510
46557SOL    HW249602   5.858   0.088  10.781  0.3677  0.0676 -0.0998
46558SOL     OW49603   4.335   6.396   4.862 -0.0250 -0.4456 -0.2525
46558SOL    HW149604   4.257   6.412   4.810 -0.2988 -0.0792  0.2581
46558SOL    HW249605   4.302   6.369   4.948  0.2938  2.5318  0.9204
46559SOL     OW49606  11.717   0.534   1.025  0.2079 -0.2611  0.1157
46559SOL    HW149607  11.656   0.528   0.952  1.7225  1.2504 -1.3869
46559SOL    HW249608  11.665   0.569   1.098 -0.6289  1.5657 -1.2805
46560SOL     OW49609  12.707   9.251  12.205  0.6949 -0.6884  0.0560
46560SOL    HW149610  12.701   9.213  12.293  0.5347  1.7485  1.1613
46560SOL    HW249611  12.623   9.294  12.192  0.5744 -1.3273 -1.4838
46561SOL     OW49612   8.903   0.911  11.477 -0.5089 -0.5495  0.4993
46561SOL    HW149613   8.977   0.854  11.495 -0.5359 -0.4055  1.0866
46561SOL    HW249614   8.932   0.999  11.502 -1.0096 -0.5546  1.1121
46562SOL     OW49615   8.142  10.747   0.833 -0.5137 -0.3112 -0.4504
46562SOL    HW149616   8.079  10.716   0.899  1.5493 -1.3925  1.1302
46562SOL    HW249617   8.155  10.840   0.854 -0.0216 -0.5990  0.6091
46563SOL     OW49618   8.088   7.988   3.409 -0.2333 -0.3932  0.0021
46563SOL    HW149619   8.142   7.965   3.333 -2.2447 -1.9416 -1.0414
46563SOL    HW249620   8.056   8.076   3.389  2.0871  0.7222  0.8160
46564SOL     OW49621  10.087   9.187  11.907 -0.3355 -0.2018 -0.4285
46564SOL    HW149622  10.159   9.231  11.952 -0.4973 -0.6937  0.3265
46564SOL    HW249623  10.078   9.235  11.824  1.0823 -0.3559 -0.6979
46565SOL     OW49624   7.613  10.291   7.995  0.4723 -0.3011  0.2510
46565SOL    HW149625   7.700  10.324   8.017  0.5780 -0.1489 -0.3854
46565SOL    HW249626   7.571  10.362   7.947  0.6106 -0.9713 -0.9065
46566SOL     OW49627   2.301   3.687   3.714 -0.0067  0.2070 -0.1930
46566SOL    HW149628   2.250   3.635   3.777  1.3740 -1.2461 -0.2081
46566SOL    HW249629   2.347   3.751   3.767  1.3712 -1.1936  0.3765
46567SOL     OW49630  10.013   4.097   3.159  0.1788  0.0015 -0.2195
46567SOL    HW149631   9.958   4.175   3.162  0.6828  0.3491  2.3193
46567SOL    HW249632  10.000   4.062   3.071 -2.9163  0.8866 -0.2228
46568SOL     OW49633   5.517   5.355  11.506 -0.0913 -0.3703  0.2060
46568SOL    HW149634   5.596   5.377  11.556  0.4862  0.3087 -0.9656
46568SOL    HW249635   5.446   5.400  11.552  0.4016  0.0771  0.5340
46569SOL     OW49636   2.529   0.011   5.976 -0.4005  0.5106 -0.3305
46569SOL    HW149637   2.513   0.008   6.071 -0.4985 -1.2713 -0.3657
46569SOL    HW249638   2.572   0.095   5.962  1.7283 -0.1327  1.6575
46570SOL     OW49639   8.368   9.842   2.363 -0.1230  0.2345  0.4067
46570SOL    HW149640   8.303   9.807   2.424  1.2095 -1.1527  1.1141
46570SOL    HW249641   8.421   9.766   2.338  1.8277  1.4458  0.6261
46571SOL     OW49642   2.543   2.816   1.846  0.6452  0.4048  0.1870
46571SOL    HW149643   2.617   2.814   1.786  0.5613  2.1333 -0.0287
46571SOL    HW249644   2.581   2.845   1.929  0.4213  0.0172  0.4251
46572SOL     OW49645   1.960   4.696  11.665  0.1783  0.1206  0.3848
46572SOL    HW149646   1.985   4.751  11.592  1.5236  1.5290  1.8353
46572SOL    HW249647   2.038   4.644  11.684 -0.0648 -0.0412  0.9821
46573SOL     OW49648   2.685   9.606   7.496 -0.3524 -0.0866 -0.3321
46573SOL    HW149649   2.616   9.669   7.514 -0.8894 -0.6658 -0.3533
46573SOL    HW249650   2.746   9.653   7.439  0.2395  1.0407  1.1495
46574SOL     OW49651  11.496   2.522   2.533  0.0658  0.5448  0.4652
46574SOL    HW149652  11.534   2.492   2.616  0.3321  1.1195  0.5563
46574SOL    HW249653  11.569   2.562   2.486  0.2129 -0.8721 -0.5972
46575SOL     OW49654   7.146   1.040   1.262  0.2700 -0.2289 -0.1151
46575SOL    HW149655   7.104   0.999   1.186 -0.6768 -0.7520  0.6709
46575SOL    HW249656   7.099   1.005   1.337  1.0396  0.4669  0.7129
46576SOL     OW49657   7.696  10.252  10.544 -0.5691  0.6043  0.0170
46576SOL    HW149658   7.762  10.303  10.496 -1.3258  1.4994 -0.0976
46576SOL    HW249659   7.661  10.313  10.609 -2.8016  0.8674 -1.3301
46577SOL     OW49660   3.791   1.184   1.824 -0.6183  0.5769 -0.5158
46577SOL    HW149661   3.819   1.157   1.736 -0.6371 -1.5984  0.0971
46577SOL    HW249662   3.851   1.254   1.848  0.0037  0.5435 -1.8817
46578SOL     OW49663   5.335   5.081   3.917  0.3500  0.3889  0.6418
46578SOL    HW149664   5.359   5.167   3.884 -1.0517 -0.4312 -2.9849
46578SOL    HW249665   5.400   5.062   3.985  1.0726  3.9751  1.1257
46579SOL     OW49666   1.076  13.098   7.990  0.0216  0.8528 -0.1154
46579SOL    HW149667   1.088  13.095   7.895  0.8840 -0.7834  0.0165
46579SOL    HW249668   0.993  13.054   8.005  0.0452  0.8149 -0.0951
46580SOL     OW49669  11.320   7.131   6.187 -0.2481 -0.4674 -0.5055
46580SOL    HW149670  11.353   7.108   6.100 -2.0759 -1.5399 -0.9673
46580SOL    HW249671  11.239   7.082   6.196 -0.6296  0.4032  1.4285
46581SOL     OW49672   5.800   1.813   0.384  0.0095  0.1691 -0.1243
46581SOL    HW149673   5.819   1.769   0.301 -0.4089  0.0212 -0.1459
46581SOL    HW249674   5.711   1.784   0.406 -0.4673  1.3774 -0.3851
46582SOL     OW49675   4.821   0.241   3.615  0.3875  0.0219 -0.0087
46582SOL    HW149676   4.879   0.316   3.600  1.9055 -0.7564  1.5304
46582SOL    HW249677   4.748   0.277   3.664  0.8884  0.5809  0.3468
46583SOL     OW49678  11.823   9.940   3.902  0.9665 -0.1189  0.6723
46583SOL    HW149679  11.744   9.989   3.879  1.1446 -0.6164 -1.1380
46583SOL    HW249680  11.893  10.006   3.903  1.4709 -0.3611 -3.1433
46584SOL     OW49681   7.436  12.014   5.032  0.0979 -0.0303  0.6221
46584SOL    HW149682   7.404  11.998   4.944  0.9252 -0.3179  0.3628
46584SOL    HW249683   7.495  11.941   5.051  0.7859  0.5863  0.9787
46585SOL     OW49684   6.279   2.335   4.681  0.0892 -0.1979 -0.4750
46585SOL    HW149685   6.220   2.266   4.709 -0.1125 -0.7433 -2.1440
46585SOL    HW249686   6.302   2.313   4.591  0.4521  1.6160 -0.8810
46586SOL     OW49687   2.797   9.205   1.979 -0.3143 -0.1251 -0.0675
46586SOL    HW149688   2.813   9.236   1.889 -0.1015 -0.3573 -0.1105
46586SOL    HW249689   2.848   9.264   2.034 -0.9155  0.3921 -0.0504
46587SOL     OW49690  13.105   5.347   6.154 -0.3078 -0.0993 -0.1126
46587SOL    HW149691  13.178   5.372   6.210  1.0048 -0.1293 -1.7657
46587SOL    HW249692  13.038   5.317   6.216  0.5275  1.2133  1.5202
46588SOL     OW49693   3.017  12.203  11.329  0.0556  0.2603  0.4131
46588SOL    HW149694   3.025  12.290  11.291 -2.6491  0.6240  0.4963
46588SOL    HW249695   2.923  12.190  11.340  0.4875 -1.6529  2.7712
46589SOL     OW49696   6.936   1.461   5.358 -0.3673  0.4174 -0.7328
46589SOL    HW149697   6.860   1.498   5.314 -0.5763  1.0842  0.1553
46589SOL    HW249698   6.904   1.434   5.444  0.1331 -0.4307 -0.7991
46590SOL     OW49699   2.643   3.477  11.679  0.4147 -0.5152 -0.2447
46590SOL    HW149700   2.706   3.520  11.737 -0.2767  0.4390 -0.1768
46590SOL    HW249701   2.672   3.386  11.674  0.4371 -0.6422  1.6724
46591SOL     OW49702   4.188   3.053   5.289 -0.0798  0.1691  0.2120
46591SOL    HW149703   4.201   3.029   5.381  1.2925 -0.8036 -0.2107
46591SOL    HW249704   4.113   2.999   5.262 -1.7293  1.8312  1.2121
46592SOL     OW49705  10.523   2.107  11.891  0.1694 -0.2324 -0.6249
46592SOL    HW149706  10.493   2.065  11.810  0.7049 -0.9071 -0.4725
46592SOL    HW249707  10.507   2.042  11.959  0.2666  0.1163 -0.2684
46593SOL     OW49708   2.156  10.116   9.250 -0.3009 -0.2041  0.0762
46593SOL    HW149709   2.197  10.138   9.167  0.2782  0.2089  0.4637
46593SOL    HW249710   2.218  10.056   9.293 -1.1204 -1.3382 -0.2713
46594SOL     OW49711  13.056   7.968   9.152  0.2077  0.8685 -0.0026
46594SOL    HW149712  13.022   7.884   9.122  0.3724  0.1398  1.7299
46594SOL    HW249713  13.114   7.946   9.226  0.1627  2.4979  0.5654
46595SOL     OW49714   8.539   6.139   2.871 -0.4537  0.4747 -0.7069
46595SOL    HW149715   8.501   6.117   2.956  1.6444 -1.1909 -0.1214
46595SOL    HW249716   8.509   6.069   2.812  1.4424 -0.8252 -0.2527
46596SOL     OW49717  11.603   6.688   5.058  0.4365 -0.0723  0.2136
46596SOL    HW149718  11.578   6.622   4.992 -0.7648 -0.2554  0.8124
46596SOL    HW249719  11.553   6.766   5.033 -1.5138 -0.6925  1.9204
46597SOL     OW49720   3.536   0.088   0.606  0.0809 -0.0188 -0.2141
46597SOL    HW149721   3.592   0.055   0.536  0.1834  1.6579 -0.9688
46597SOL    HW249722   3.525   0.181   0.586 -1.9081 -0.0236  0.6253
46598SOL     OW49723   6.553   7.888   6.184 -0.1925  0.1358 -0.2014
46598SOL    HW149724   6.461   7.914   6.183 -0.1424  0.3043 -0.6935
46598SOL    HW249725   6.554   7.800   6.146 -0.1356  0.1889 -0.3239
46599SOL     OW49726   6.084   5.690   3.701 -0.5968 -0.1808  0.0392
46599SOL    HW149727   6.157   5.657   3.754 -0.1639 -0.2786 -0.6166
46599SOL    HW249728   6.053   5.614   3.652 -0.5531  0.0587 -0.3643
46600SOL     OW49729   0.290   7.624   0.797  0.5423 -0.2787 -0.5257
46600SOL    HW149730   0.219   7.683   0.824  0.1279 -0.6269 -0.8561
46600SOL    HW249731   0.363   7.649   0.853 -0.2191 -0.7935  0.7423
46601SOL     OW49732  11.612  12.507   4.986 -0.0041  0.5284 -0.2150
46601SOL    HW149733  11.517  12.514   4.977  0.0889  1.7874 -0.3072
46601SOL    HW249734  11.627  12.504   5.081 -0.1878 -0.8814 -0.1966
46602SOL     OW49735   2.816   2.234  12.715 -0.3440  0.2443  0.4162
46602SOL    HW149736   2.862   2.291  12.777 -0.3743 -1.7910  2.4900
46602SOL    HW249737   2.838   2.145  12.745 -1.9627 -0.8220 -1.3588
46603SOL     OW49738  10.989   0.591   5.794 -0.1467  0.8426 -0.2160
46603SOL    HW149739  10.920   0.625   5.851 -0.8674  0.7109 -0.9853
46603SOL    HW249740  11.068   0.594   5.847 -1.2354 -1.8360  1.7866
46604SOL     OW49741  11.028  10.044   8.430  0.2629 -0.2986 -0.2230
46604SOL    HW149742  10.975  10.111   8.474  0.0183  1.0799 -2.4295
46604SOL    HW249743  11.082  10.094   8.369 -0.2405 -2.1359 -2.2804
46605SOL     OW49744  12.457   0.507   4.203 -0.0243 -0.3678  0.4431
46605SOL    HW149745  12.494   0.421   4.219 -0.1649 -0.4016  0.5927
46605SOL    HW249746  12.498   0.537   4.122  1.2569  0.1132  1.2380
46606SOL     OW49747   4.773  12.810  11.715  0.0965  0.2514 -0.0618
46606SOL    HW149748   4.728  12.840  11.794 -1.1228 -1.1711 -0.1623
46606SOL    HW249749   4.802  12.890  11.672  1.1357  1.0622  1.9967
46607SOL     OW49750   7.633   4.583   0.560  0.3542  0.5316 -0.5353
46607SOL    HW149751   7.545   4.559   0.588  0.9208 -1.2890 -0.1703
46607SOL    HW249752   7.670   4.630   0.635 -0.1331  0.8328 -0.4838
46608SOL     OW49753   3.447  12.252   4.075 -0.0000  0.1960  0.1744
46608SOL    HW149754   3.505  12.179   4.055  1.6680  0.8414  2.2599
46608SOL    HW249755   3.473  12.321   4.014 -0.3598 -0.3512 -0.6094
46609SOL     OW49756  10.459  12.750   3.480 -0.3184 -0.0943  0.4565
46609SOL    HW149757  10.504  12.707   3.553  1.2573  0.7345  0.0211
46609SOL    HW249758  10.367  12.752   3.506  0.0693 -0.7328  1.9615
46610SOL     OW49759   7.681   7.192   3.054  0.1548  0.4430 -0.0027
46610SOL    HW149760   7.700   7.099   3.063  0.3586  0.5206  0.4143
46610SOL    HW249761   7.711   7.214   2.965  0.5010  0.2032  0.0492
46611SOL     OW49762   9.876  12.924   3.587  0.0299 -1.1610 -0.4298
46611SOL    HW149763   9.825  12.929   3.506 -0.4980 -0.6874 -0.0729
46611SOL    HW249764   9.876  12.831   3.610 -0.1035 -1.2522 -0.7859
46612SOL     OW49765   5.666   4.227   9.762 -0.0909 -0.0916  0.1857
46612SOL    HW149766   5.704   4.140   9.775  1.3415 -0.0617 -2.9971
46612SOL    HW249767   5.587   4.211   9.711 -0.4041  0.4088  0.5075
46613SOL     OW49768   5.118  11.673   1.678 -0.1889 -0.1441  0.7287
46613SOL    HW149769   5.077  11.623   1.748  0.6370 -1.3206  0.4134
46613SOL    HW249770   5.206  11.693   1.712 -0.9954  2.5292  1.4926
46614SOL     OW49771   4.014   3.201  12.466 -0.0218  0.6263  0.1116
46614SOL    HW149772   4.062   3.284  12.472  0.5019  0.3952 -0.7179
46614SOL    HW249773   4.008   3.170  12.556  3.1545 -0.3191  0.1186
46615SOL     OW49774  12.818   0.871  10.460  0.6150  0.5887 -0.2256
46615SOL    HW149775  12.831   0.827  10.544  0.4538 -0.0660 -0.5334
46615SOL    HW249776  12.737   0.922  10.472  1.7244  2.2080  0.6902
46616SOL     OW49777   4.828   0.831   6.119 -0.0077  0.0722  0.2573
46616SOL    HW149778   4.900   0.879   6.079  1.8465 -2.7004 -0.0385
46616SOL    HW249779   4.842   0.740   6.093 -2.4270 -0.9084  1.9614
46617SOL     OW49780   9.457   7.457  10.554  0.3694  0.4506 -0.6800
46617SOL    HW149781   9.547   7.471  10.524  1.0899  1.4792  1.6727
46617SOL    HW249782   9.465   7.395  10.626 -0.4633  2.0253  0.8751
46618SOL     OW49783   9.272   9.989   5.092 -0.6602  0.1327  0.5176
46618SOL    HW149784   9.296  10.026   5.177  0.4774  1.3503 -0.2965
46618SOL    HW249785   9.246   9.899   5.112 -1.0681  0.5974  2.2265
46619SOL     OW49786  12.416   7.362   3.680  0.0220 -0.3522  0.4430
46619SOL    HW149787  12.480   7.357   3.752 -0.8170  1.6607  1.4038
46619SOL    HW249788  12.362   7.438   3.702 -2.6452 -1.9004 -0.4033
46620SOL     OW49789   7.962  10.426   3.134 -0.0515  0.5596 -0.6822
46620SOL    HW149790   7.978  10.335   3.160 -1.7853 -0.1310 -1.8521
46620SOL    HW249791   7.885  10.453   3.184 -1.4811  0.2650 -2.5931
46621SOL     OW49792  11.832   5.535   2.504 -0.6300  0.1541 -0.2980
46621SOL    HW149793  11.778   5.485   2.443 -1.0468 -0.0327  0.2149
46621SOL    HW249794  11.908   5.480   2.520  1.0317  1.4891 -3.0038
46622SOL     OW49795   0.971  12.667   9.543 -0.1142  0.1640  0.2222
46622SOL    HW149796   0.988  12.577   9.515 -0.7512 -0.1304  0.7580
46622SOL    HW249797   1.049  12.693   9.590  0.1525 -0.0391 -0.1053
46623SOL     OW49798   2.627   6.521   4.820 -0.5605 -0.1055  0.0813
46623SOL    HW149799   2.552   6.524   4.879 -0.0778  2.8109  0.6976
46623SOL    HW249800   2.694   6.575   4.863  0.2258  1.1792 -2.5117
46624SOL     OW49801   0.407  11.019   6.028 -0.0067  0.3847 -0.2145
46624SOL    HW149802   0.421  11.108   6.062  0.8868 -0.0714  0.6957
46624SOL    HW249803   0.461  10.964   6.085  1.0171 -0.5261 -1.9736
46625SOL     OW49804   2.070   1.208  10.870 -0.2755  0.9050 -0.5834
46625SOL    HW149805   2.016   1.266  10.815 -0.0002  0.7901 -0.9826
46625SOL    HW249806   2.012   1.181  10.940 -0.7852  0.6805 -1.0824
46626SOL     OW49807   1.480   8.258   0.310 -0.4827 -0.1386  0.1014
46626SOL    HW149808   1.500   8.350   0.295 -3.2141  0.2446 -1.8357
46626SOL    HW249809   1.559   8.212   0.280 -0.2889  1.4508 -2.1340
46627SOL     OW49810   9.465   4.268   0.620  0.3742 -0.1847 -0.4696
46627SOL    HW149811   9.557   4.266   0.645 -0.1964 -1.0851  1.7575
46627SOL    HW249812   9.463   4.235   0.530  2.2393  0.2982 -0.7194
46628SOL     OW49813   5.223  10.105   6.931 -0.2765 -0.1879 -0.5756
46628SOL    HW149814   5.255  10.048   7.001  2.5832 -0.1002 -1.6601
46628SOL    HW249815   5.260  10.191   6.951 -0.5782  0.1651 -1.4631
46629SOL     OW49816   1.708   6.687   7.363 -0.1740  0.0072  0.0048
46629SOL    HW149817   1.731   6.611   7.309 -1.1771 -1.5046  1.6018
46629SOL    HW249818   1.779   6.749   7.348  2.0512 -2.2490  0.5745
46630SOL     OW49819   6.281   7.463   1.409 -0.5066  0.6745  0.1637
46630SOL    HW149820   6.228   7.430   1.336 -1.4240 -0.5055  1.3313
46630SOL    HW249821   6.246   7.550   1.426 -0.4596  0.8587 -0.6166
46631SOL     OW49822   1.126   3.403   0.724  0.3105 -0.3953  0.0226
46631SOL    HW149823   1.104   3.362   0.808 -0.3176 -1.9237 -0.8415
46631SOL    HW249824   1.193   3.467   0.746  0.8675 -1.4276  1.5627
46632SOL     OW49825  10.006  10.275   4.195  0.0040 -0.1331 -0.3432
46632SOL    HW149826  10.085  10.322   4.221 -0.7449  0.8217  0.2842
46632SOL    HW249827   9.950  10.279   4.272 -0.3389 -1.5172 -0.5003
46633SOL     OW49828  12.785  11.070   5.306 -0.1474 -0.0059  0.0364
46633SOL    HW149829  12.843  11.123   5.361  0.0874 -0.6872  0.4597
46633SOL    HW249830  12.734  11.018   5.369 -0.6698  0.0207 -0.3567
46634SOL     OW49831   8.923   5.777   5.045  0.3357 -0.0430  0.0394
46634SOL    HW149832   8.889   5.846   4.987  0.8954  1.0262  0.9537
46634SOL    HW249833   8.845   5.733   5.078 -0.0133 -0.2461 -0.9943
46635SOL     OW49834   8.330   3.211   0.864 -0.1062  0.1002  0.0605
46635SOL    HW149835   8.335   3.286   0.804 -1.9514  0.7521  0.6682
46635SOL    HW249836   8.373   3.242   0.944  2.3569 -0.7694 -0.8348
46636SOL     OW49837  12.341   4.837  12.717 -0.3013  0.9821  0.0067
46636SOL    HW149838  12.388   4.760  12.748 -0.7428  0.3559 -0.8413
46636SOL    HW249839  12.304   4.876  12.796 -0.9920 -0.2896  0.3312
46637SOL     OW49840   0.785   7.177  10.367 -0.1807 -0.8922  0.4961
46637SOL    HW149841   0.694   7.158  10.346 -0.1552  0.1640 -0.7108
46637SOL    HW249842   0.830   7.093  10.357 -0.8737 -1.2417  0.2321
46638SOL     OW49843   3.948   0.108   6.473  0.0187 -0.1342 -0.1497
46638SOL    HW149844   3.883   0.153   6.528  1.7686  1.5514  0.6451
46638SOL    HW249845   3.945   0.017   6.503 -0.7430  0.2643  1.0892
46639SOL     OW49846   4.866   3.956  12.916 -0.0396  0.4804 -0.2819
46639SOL    HW149847   4.860   4.045  12.950  1.1990 -0.0722  1.4847
46639SOL    HW249848   4.951   3.924  12.946 -0.4695 -1.3200 -0.8645
46640SOL     OW49849  13.113  13.079   7.764 -0.3137  0.7929 -0.1249
46640SOL    HW149850  13.047  13.077   7.834  0.6004 -0.3004  0.7468
46640SOL    HW249851  13.067  13.046   7.687 -0.5469 -0.9586  0.7126
46641SOL     OW49852   7.400   7.356   1.852 -0.1429  0.4405  0.0352
46641SOL    HW149853   7.463   7.364   1.780  1.0393  1.6712  1.1380
46641SOL    HW249854   7.440   7.291   1.911  0.6531  1.9212  1.2110
46642SOL     OW49855   4.154   1.242   4.918 -0.3236 -0.0728  0.4158
46642SOL    HW149856   4.072   1.291   4.927  0.0214  1.0672 -1.7844
46642SOL    HW249857   4.195   1.279   4.839 -0.0261 -3.9303 -1.4937
46643SOL     OW49858  10.653   7.209   1.803 -0.0601 -0.2628  0.3602
46643SOL    HW149859  10.619   7.234   1.889 -1.2288 -1.8652  0.4297
46643SOL    HW249860  10.574   7.190   1.751  0.6511 -2.6526  0.0354
46644SOL     OW49861   0.706   5.546   8.297  0.1957  0.1379 -0.2637
46644SOL    HW149862   0.647   5.620   8.285  1.0488  0.9528  0.3403
46644SOL    HW249863   0.651   5.468   8.286 -1.4693  0.8232  2.2258
46645SOL     OW49864   7.445   5.297  10.998  0.3817 -0.3171  0.1777
46645SOL    HW149865   7.389   5.306  11.074  0.4504  0.7514  0.1112
46645SOL    HW249866   7.473   5.205  10.999 -0.9275 -0.7305  0.5039
46646SOL     OW49867   9.997   1.254  11.190 -0.4255 -0.5238  0.7523
46646SOL    HW149868  10.053   1.331  11.200 -2.2011  0.8275  0.8724
46646SOL    HW249869  10.003   1.209  11.275  0.1248 -0.1620  0.9123
46647SOL     OW49870   1.120   0.612   8.531  0.1899 -0.5862  0.1200
46647SOL    HW149871   1.054   0.567   8.582 -0.4163  0.7881  0.5943
46647SOL    HW249872   1.151   0.547   8.468 -1.4326 -1.3254  0.0502
46648SOL     OW49873  11.343   5.412   6.703 -0.1275  0.3147  0.0544
46648SOL    HW149874  11.302   5.498   6.704 -0.9650  0.0790 -2.9345
46648SOL    HW249875  11.401   5.411   6.779 -3.6728  1.6085  3.0800
46649SOL     OW49876   3.748   1.734   4.000  0.2767  0.2378 -0.1238
46649SOL    HW149877   3.737   1.670   4.071 -1.0618 -1.1902 -1.5503
46649SOL    HW249878   3.675   1.795   4.011  0.1987  0.1501 -0.1617
46650SOL     OW49879  12.792  12.097   1.431  0.2866  0.4117 -0.0256
46650SOL    HW149880  12.838  12.051   1.501 -1.2195 -0.9129  0.1653
46650SOL    HW249881  12.743  12.166   1.476 -1.2828 -0.9159  0.3985
46651SOL     OW49882  11.534  13.233  12.372 -0.1959 -0.1354  0.3255
46651SOL    HW149883  11.610  13.185  12.341  0.7624  0.3411  1.8439
46651SOL    HW249884  11.461  13.171  12.363  0.0991 -0.1987 -2.2561
46652SOL     OW49885   1.325   3.010   8.688 -0.3314  0.4465 -0.5255
46652SOL    HW149886   1.289   3.076   8.747  0.3495  0.7515 -0.4391
46652SOL    HW249887   1.321   3.050   8.601  0.8787  0.9569 -0.3596
46653SOL     OW49888   7.535   3.313   5.474 -0.4472  0.1078 -0.0275
46653SOL    HW149889   7.599   3.251   5.509 -1.0044 -0.5141 -0.0831
46653SOL    HW249890   7.584   3.367   5.412 -0.0798 -0.6654 -0.4158
46654SOL     OW49891   5.790   6.930   0.233 -0.6369 -0.5108 -1.2022
46654SOL    HW149892   5.763   7.021   0.244 -2.2973 -0.8636 -1.9951
46654SOL    HW249893   5.863   6.919   0.294 -2.5928  0.4202  1.5189
46655SOL     OW49894   3.600   9.477   4.776  0.5047 -0.3333 -0.0741
46655SOL    HW149895   3.535   9.491   4.707  1.1617  0.0544 -0.6309
46655SOL    HW249896   3.550   9.443   4.850 -0.2097 -0.8235 -0.7635
46656SOL     OW49897  11.185  12.165   7.771 -0.0550  0.4790  0.4749
46656SOL    HW149898  11.117  12.145   7.835 -0.9914  1.1305 -0.2871
46656SOL    HW249899  11.194  12.261   7.775 -0.4023  0.5679 -0.6275
46657SOL     OW49900   1.384  11.024   9.418  0.1356  0.0978 -0.0975
46657SOL    HW149901   1.478  11.009   9.423  0.0247 -1.6743 -1.8599
46657SOL    HW249902   1.367  11.098   9.477  2.6196  0.5242  0.1621
46658SOL     OW49903   4.684  10.527   1.014 -0.3022 -0.2204  0.1986
46658SOL    HW149904   4.644  10.441   1.000  0.7419 -0.9492  1.4392
46658SOL    HW249905   4.689  10.566   0.927 -1.4139 -1.1269 -0.2911
46659SOL     OW49906  10.504  11.099   3.758  0.0265  0.6993 -0.6647
46659SOL    HW149907  10.417  11.132   3.780  0.4090  0.6144  1.1566
46659SOL    HW249908  10.545  11.170   3.708 -1.1058  0.7068 -1.6015
46660SOL     OW49909   0.954  11.922   7.859 -0.1725 -0.7084 -0.3640
46660SOL    HW149910   0.899  11.846   7.878 -0.2555 -0.1232  2.1076
46660SOL    HW249911   0.918  11.958   7.778 -1.4323 -2.1164 -0.4751
46661SOL     OW49912   7.617  10.146   6.716 -0.2923  0.6687 -0.5440
46661SOL    HW149913   7.523  10.162   6.714 -0.0542  2.3250 -0.2981
46661SOL    HW249914   7.627  10.063   6.762 -1.5742  1.0747  0.5195
46662SOL     OW49915   1.806   8.915   2.536 -0.2866  0.6079  0.3446
46662SOL    HW149916   1.738   8.891   2.599 -0.6983  2.0694  0.4844
46662SOL    HW249917   1.832   9.004   2.560  2.3761 -0.2150  0.8925
46663SOL     OW49918   3.037   8.413   9.616  0.1582 -0.7654  0.0643
46663SOL    HW149919   3.091   8.376   9.686  1.7290 -2.7890 -2.0675
46663SOL    HW249920   3.098   8.462   9.561 -0.6624 -0.7224 -0.8444
46664SOL     OW49921   8.413   9.724   4.466 -0.7815  0.4977  0.1862
46664SOL    HW149922   8.394   9.769   4.384  0.2560  0.3580 -0.1476
46664SOL    HW249923   8.376   9.636   4.454  2.8439 -0.9823 -1.8538
46665SOL     OW49924  10.947   0.256   5.053 -0.3756 -0.4616  0.6282
46665SOL    HW149925  10.952   0.300   4.967  2.2001 -0.3949  0.7190
46665SOL    HW249926  10.853   0.248   5.070 -1.0216 -0.8791 -2.3852
46666SOL     OW49927  12.441   9.343   0.353  0.4919  0.3494 -0.7131
46666SOL    HW149928  12.455   9.392   0.434  1.7813  0.5148 -1.0192
46666SOL    HW249929  12.478   9.257   0.371  0.2777  0.2092 -0.9424
46667SOL     OW49930   6.440   7.366   0.055  0.0314 -0.2735 -0.2871
46667SOL    HW149931   6.510   7.419   0.092 -0.5065  0.7663 -0.7270
46667SOL    HW249932   6.473   7.276   0.061  1.1801  0.1457 -0.0147
46668SOL     OW49933   2.445   4.699   5.948  0.3881  0.1586  0.3967
46668SOL    HW149934   2.390   4.682   6.024  1.5418 -0.1416  1.1962
46668SOL    HW249935   2.438   4.793   5.933  0.8397  0.3744  1.4467
46669SOL     OW49936   7.972   5.987  10.830 -0.0443 -0.0652 -0.1809
46669SOL    HW149937   7.959   6.001  10.736  0.8103 -1.8815 -0.6014
46669SOL    HW249938   7.886   5.959  10.861 -0.4568  1.0107 -0.3045
46670SOL     OW49939   5.211   3.696   0.196  0.4425  0.4423  0.4337
46670SOL    HW149940   5.234   3.616   0.148  0.6224 -0.6459  2.2273
46670SOL    HW249941   5.282   3.757   0.177  0.2574  0.2240 -1.0398
46671SOL     OW49942  12.504   6.142  11.567 -0.0414  0.2264  0.1756
46671SOL    HW149943  12.416   6.164  11.598  0.6673  1.8657  1.1614
46671SOL    HW249944  12.494   6.130  11.472 -1.4077 -0.1814  0.3509
46672SOL     OW49945   9.546   8.002  13.186  0.3001 -0.8345  0.0159
46672SOL    HW149946   9.569   7.922  13.139  1.5283  0.0235 -0.8988
46672SOL    HW249947   9.623   8.020  13.241 -1.1571 -1.9281  2.6477
46673SOL     OW49948   7.592  12.899  12.951 -0.2702  0.0308  0.2131
46673SOL    HW149949   7.582  12.813  12.992  0.0946  0.3801  1.0650
46673SOL    HW249950   7.596  12.881  12.857 -1.5773 -0.7585  0.2858
46674SOL     OW49951  11.476   1.369  10.861  0.2705 -0.2012  0.2524
46674SOL    HW149952  11.408   1.350  10.797 -0.3535  0.8339  0.5800
46674SOL    HW249953  11.502   1.459  10.843  0.7697 -0.2207  0.8309
46675SOL     OW49954   1.324   4.836   6.203 -0.1047 -0.3218 -0.3018
46675SOL    HW149955   1.243   4.785   6.209  0.1471 -0.5567  1.7373
46675SOL    HW249956   1.294   4.926   6.189 -0.7138 -0.4517  0.1161
46676SOL     OW49957   0.700   1.572   7.780  0.1191 -0.2969 -0.5810
46676SOL    HW149958   0.765   1.506   7.758 -1.9048 -2.0811 -1.6440
46676SOL    HW249959   0.667   1.545   7.866  1.8271  1.5451  0.7337
46677SOL     OW49960  13.002   0.616   2.241 -0.0485  0.1857 -0.0809
46677SOL    HW149961  12.948   0.558   2.189 -1.6156  1.6462 -0.1867
46677SOL    HW249962  13.085   0.570   2.251 -0.8789 -1.5971 -0.9714
46678SOL     OW49963   2.536   5.044  10.390 -0.0274 -0.3860 -0.2611
46678SOL    HW149964   2.545   5.099  10.468  0.9444 -0.1712 -0.5137
46678SOL    HW249965   2.468   5.087  10.337  1.6378  1.3688 -1.0841
46679SOL     OW49966   6.110  11.431   8.909 -0.6943  0.1694  0.1399
46679SOL    HW149967   6.172  11.358   8.913  2.5946  2.6137 -1.7135
46679SOL    HW249968   6.076  11.439   8.998  2.3810 -0.8106  1.5319
46680SOL     OW49969   3.843  11.227   7.279  0.3340  0.6480 -0.8040
46680SOL    HW149970   3.811  11.155   7.224  1.1100 -1.6630  1.5416
46680SOL    HW249971   3.773  11.292   7.277 -1.4035 -1.1349 -1.3423
46681SOL     OW49972   5.386   6.045   5.786 -0.0579 -0.0807  0.2683
46681SOL    HW149973   5.311   6.017   5.838  1.1995 -0.8023  1.7830
46681SOL    HW249974   5.442   5.968   5.781  1.2275  0.8106  0.3605
46682SOL     OW49975   8.463   5.491  10.756  0.5485  0.0367 -0.4370
46682SOL    HW149976   8.387   5.548  10.750 -0.4387 -1.1950 -0.1650
46682SOL    HW249977   8.536   5.543  10.721 -0.4320  1.2015 -0.8008
46683SOL     OW49978   1.798   5.772   9.976  0.0959  0.4667  0.3368
46683SOL    HW149979   1.718   5.812  10.012  0.2316  0.6867  0.3990
46683SOL    HW249980   1.818   5.700  10.036  0.1723  0.6652  0.5521
46684SOL     OW49981   9.732   7.935   4.869  0.1575  0.4420 -0.2668
46684SOL    HW149982   9.759   8.002   4.931 -0.0261  0.7143 -0.4764
46684SOL    HW249983   9.736   7.979   4.783 -4.0945  1.6285 -0.1170
46685SOL     OW49984   2.189  11.636   7.919 -0.1239 -0.5788 -0.2444
46685SOL    HW149985   2.100  11.617   7.890 -0.3496 -1.4592  0.9118
46685SOL    HW249986   2.225  11.550   7.942 -0.0019  0.0038  2.0158
46686SOL     OW49987  12.038   6.139   8.974 -0.4595  0.4715  0.4693
46686SOL    HW149988  12.130   6.158   8.993 -0.3969  0.0959  0.5631
46686SOL    HW249989  12.029   6.045   8.990 -0.8618  0.5048  0.4673
46687SOL     OW49990   5.895   1.254  11.521  0.3289 -0.5019 -0.0248
46687SOL    HW149991   5.827   1.189  11.504 -1.0501  1.0257 -0.6734
46687SOL    HW249992   5.950   1.253  11.442 -1.0291  0.6182 -1.0619
46688SOL     OW49993   8.855   9.089  10.911  0.0938 -0.0303 -0.1664
46688SOL    HW149994   8.777   9.100  10.857 -0.1296 -0.2785  0.1010
46688SOL    HW249995   8.846   9.154  10.980 -1.4609 -2.0610  1.6918
46689SOL     OW49996   8.986  12.214   0.198 -0.2791 -0.2866  0.1155
46689SOL    HW149997   8.899  12.238   0.230 -0.6724  1.3520 -1.9146
46689SOL    HW249998   9.044  12.284   0.228 -0.3235  0.3412 -1.1923
46690SOL     OW49999   7.695   6.290   5.594 -0.0147 -0.3076 -0.1949
46690SOL    HW150000   7.740   6.354   5.648  0.6835 -1.3212  0.4634
46690SOL    HW250001   7.613   6.272   5.640 -0.5057  0.5589 -0.7078
46691SOL     OW50002  13.200  10.898   4.443  0.0146 -0.3339 -0.6669
46691SOL    HW150003  13.252  10.973   4.472  2.5858 -2.3299  0.3464
46691SOL    HW250004  13.133  10.888   4.511  0.6487  0.1214  0.0467
46692SOL     OW50005   2.850   1.858   9.247 -0.1343  0.0017  0.2685
46692SOL    HW150006   2.781   1.831   9.188 -1.1088  1.2500  0.8049
46692SOL    HW250007   2.930   1.855   9.194 -0.7652 -0.3126 -0.6820
46693SOL     OW50008   7.647   8.210   9.026  0.5129  0.1876 -0.4936
46693SOL    HW150009   7.693   8.146   8.971  0.9277  1.2510 -1.4107
46693SOL    HW250010   7.712   8.277   9.045 -0.3104  1.0579 -0.7198
46694SOL     OW50011  11.164   6.772   0.154  0.5851  0.2834 -0.2995
46694SOL    HW150012  11.080   6.731   0.178  0.7931 -0.3556 -0.6375
46694SOL    HW250013  11.156   6.789   0.060  0.5701  0.8686 -0.1946
46695SOL     OW50014   6.521   4.918   0.625  0.5779  0.2348  0.1639
46695SOL    HW150015   6.594   4.949   0.571 -0.2597 -0.1437 -1.2326
46695SOL    HW250016   6.445   4.965   0.592  0.0200 -0.0953  0.9563
46696SOL     OW50017   5.508   1.044   4.237  0.2842 -0.1304 -0.0588
46696SOL    HW150018   5.536   1.076   4.323  0.3924 -0.3046 -0.0267
46696SOL    HW250019   5.571   0.974   4.217 -0.3684 -0.8089  0.1933
46697SOL     OW50020  11.448   0.614   8.309  0.0991 -0.2998 -0.4783
46697SOL    HW150021  11.443   0.523   8.280  0.7161 -1.1718  1.8916
46697SOL    HW250022  11.451   0.665   8.228 -4.9396 -1.9450 -2.0486
46698SOL     OW50023  12.003   4.971   7.753 -0.4058  0.3110 -0.0613
46698SOL    HW150024  12.069   5.018   7.701 -0.7366  0.9309  0.0719
46698SOL    HW250025  12.039   4.972   7.842 -0.5935  0.6508  0.0116
46699SOL     OW50026  13.006   9.749  11.398 -0.1401 -0.5804 -0.0476
46699SOL    HW150027  13.065   9.743  11.473  0.4223  0.0859 -0.4326
46699SOL    HW250028  12.986   9.842  11.390 -0.8973 -0.7473 -0.1989
46700SOL     OW50029  12.056   3.626   2.528 -0.0513 -0.1531  0.0128
46700SOL    HW150030  12.089   3.633   2.617  2.2906 -0.7739 -0.7152
46700SOL    HW250031  12.004   3.705   2.515 -0.5001 -0.0907  1.9270
46701SOL     OW50032   7.112  12.189   5.048 -0.4380 -0.2381 -0.2219
46701SOL    HW150033   7.181  12.183   4.982 -0.0862 -1.4091  0.2389
46701SOL    HW250034   7.148  12.147   5.126 -0.3157  2.3311  1.2218
46702SOL     OW50035  12.800   3.606  12.346 -0.3493 -0.6794 -0.0639
46702SOL    HW150036  12.842   3.672  12.290 -2.3147 -0.0862 -0.9169
46702SOL    HW250037  12.786   3.531  12.288 -0.7900 -0.7312  0.1025
46703SOL     OW50038  12.238   3.634  12.009 -0.2082  0.3794  0.4307
46703SOL    HW150039  12.295   3.656  11.935  0.5395 -1.3230  0.4464
46703SOL    HW250040  12.270   3.548  12.039  0.2729  1.5082  3.4884
46704SOL     OW50041   3.626  12.205   2.241 -0.1162  0.6034  0.3116
46704SOL    HW150042   3.670  12.262   2.304 -0.1125  0.3246  0.5597
46704SOL    HW250043   3.681  12.127   2.235 -2.3758 -1.4834  3.4676
46705SOL     OW50044   6.678   9.435   2.964 -0.5931 -0.3623  0.1230
46705SOL    HW150045   6.596   9.427   3.014  0.4215  0.4298  2.0452
46705SOL    HW250046   6.711   9.522   2.987  2.5936 -1.9843  2.4056
46706SOL     OW50047   1.118   2.109  11.749 -0.0275 -0.7978 -0.2513
46706SOL    HW150048   1.064   2.107  11.670 -0.9839 -1.6706  0.3932
46706SOL    HW250049   1.056   2.131  11.819  0.5198 -1.4613  0.4516
46707SOL     OW50050   6.405   6.636   4.214  0.5401  0.0168  0.4134
46707SOL    HW150051   6.487   6.638   4.263  1.0851  0.3459 -0.4964
46707SOL    HW250052   6.339   6.611   4.279  1.2343  0.4944  1.3232
46708SOL     OW50053   2.339   4.430   9.942 -0.7208 -0.4988  0.6645
46708SOL    HW150054   2.268   4.371   9.917  0.8120 -1.7166 -1.0842
46708SOL    HW250055   2.414   4.372   9.953  0.9396  1.0932 -1.4989
46709SOL     OW50056  11.239   0.385   8.944 -0.3147  0.3932 -0.0948
46709SOL    HW150057  11.149   0.364   8.967  0.2972 -0.5745  1.5825
46709SOL    HW250058  11.253   0.474   8.978  0.0436 -0.3512  1.7931
46710SOL     OW50059   0.033   0.585  12.611 -0.4418 -0.4936 -0.2143
46710SOL    HW150060   0.083   0.604  12.690 -3.2344 -0.7958  1.7490
46710SOL    HW250061   0.071   0.504  12.577  2.7511  1.1872 -1.0162
46711SOL     OW50062  11.754   3.765  12.851 -0.3377 -0.1873  0.1325
46711SOL    HW150063  11.673   3.815  12.853 -0.5180 -0.3786 -1.1890
46711SOL    HW250064  11.747   3.703  12.924 -0.1616  1.5867  1.7147
46712SOL     OW50065   8.293   7.133   5.315 -0.8722  0.3355 -0.3660
46712SOL    HW150066   8.339   7.099   5.238 -1.1693  0.7164 -0.7146
46712SOL    HW250067   8.230   7.196   5.280 -0.9398  0.5907  0.1993
46713SOL     OW50068  13.117   4.135   5.745  0.4896 -0.0842 -0.3130
46713SOL    HW150069  13.084   4.075   5.813  1.7277  0.5164  0.8762
46713SOL    HW250070  13.140   4.078   5.672  0.8960 -1.0018  0.5012
46714SOL     OW50071   2.981  13.195  10.722 -0.0728 -0.6102 -0.4752
46714SOL    HW150072   2.899  13.146  10.718  0.9917 -2.8627  2.0292
46714SOL    HW250073   3.039  13.140  10.776  2.5797  1.5952 -0.8730
46715SOL     OW50074  10.637   4.257   0.325  0.0028 -0.3065  0.1070
46715SOL    HW150075  10.548   4.292   0.314  0.4997  0.6400 -1.0565
46715SOL    HW250076  10.637   4.222   0.414 -1.1739  0.7570  0.5678
46716SOL     OW50077   7.589   6.197   9.857  0.4841  0.2452  0.2300
46716SOL    HW150078   7.602   6.151   9.775  3.6132 -0.3234  0.9206
46716SOL    HW250079   7.524   6.264   9.837 -0.0860 -0.9365 -2.2291
46717SOL     OW50080  13.299   1.176   4.269  0.3499  0.9309 -0.3626
46717SOL    HW150081  13.359   1.167   4.195 -0.8071  0.1646 -1.2447
46717SOL    HW250082  13.303   1.269   4.293 -0.2016  1.4796 -2.2292
46718SOL     OW50083   4.865   2.594  12.788  0.7051  0.6553  0.2389
46718SOL    HW150084   4.957   2.577  12.806  0.6456  0.4856  0.3892
46718SOL    HW250085   4.854   2.574  12.695  0.5417 -0.5800  0.5093
46719SOL     OW50086   1.205   4.308   6.301  0.3384  0.4227  0.3325
46719SOL    HW150087   1.228   4.230   6.251 -2.4552 -0.3144  0.0509
46719SOL    HW250088   1.179   4.372   6.235  0.3246  0.7694  0.6728
46720SOL     OW50089   9.745   4.422   7.929  0.5236  0.0847 -0.4238
46720SOL    HW150090   9.745   4.326   7.930  1.9188  0.0493 -1.4575
46720SOL    HW250091   9.666   4.446   7.881  0.5991 -0.5831 -0.8960
46721SOL     OW50092  12.879   9.882   6.374  0.0127  0.1026 -0.3943
46721SOL    HW150093  12.895   9.799   6.418 -1.4191  0.3316  0.6385
46721SOL    HW250094  12.827   9.933   6.436  0.7695  1.7529 -1.0331
46722SOL     OW50095   7.436  10.009   8.913  0.2480 -0.3840  0.8284
46722SOL    HW150096   7.352   9.998   8.869  0.4457 -0.1944  0.3935
46722SOL    HW250097   7.500  10.013   8.841  0.9389 -3.1279  1.1928
46723SOL     OW50098   8.932  10.653   0.701  0.1712 -0.6485 -0.1576
46723SOL    HW150099   8.882  10.633   0.622 -0.9131 -1.0470  0.6181
46723SOL    HW250100   8.889  10.605   0.771 -0.2532  1.3967  1.0945
46724SOL     OW50101  12.756   5.627  13.045 -0.3170 -0.2875  0.0376
46724SOL    HW150102  12.806   5.688  12.991  1.0622 -1.0903  0.3579
46724SOL    HW250103  12.691   5.590  12.985 -1.3515  1.6454 -0.1010
46725SOL     OW50104   4.949   0.525   6.759  0.3339  0.3644  0.2414
46725SOL    HW150105   4.909   0.562   6.838  1.7527 -0.3696  1.3530
46725SOL    HW250106   4.936   0.592   6.692 -2.6896  0.1874  0.5004
46726SOL     OW50107   7.613  12.055   8.803 -0.6218  0.2521 -0.3131
46726SOL    HW150108   7.615  12.138   8.756  0.1607  1.4675  1.7359
46726SOL    HW250109   7.528  12.054   8.847  0.1005  0.9574  1.2072
46727SOL     OW50110   2.123   3.784   7.560  0.8451  0.0258  0.3468
46727SOL    HW150111   2.134   3.771   7.655  4.4364  0.5911  0.1508
46727SOL    HW250112   2.129   3.879   7.548 -2.0955  0.2101 -0.3124
46728SOL     OW50113   1.066  12.618  12.448  0.5344 -0.1329 -0.2199
46728SOL    HW150114   1.019  12.662  12.377 -1.2176  2.2919  2.2426
46728SOL    HW250115   1.158  12.630  12.427  0.1424  3.8859 -0.3543
46729SOL     OW50116   6.000  12.990   4.732 -0.3364 -0.7408 -0.0705
46729SOL    HW150117   5.994  13.036   4.816 -1.5684  0.6472 -0.8613
46729SOL    HW250118   5.980  13.057   4.667  4.0993 -0.8119 -1.8390
46730SOL     OW50119  10.328   0.822   2.897  0.0145  0.2185 -0.8568
46730SOL    HW150120  10.319   0.797   2.806 -2.2758  0.6112 -0.7845
46730SOL    HW250121  10.242   0.806   2.936 -0.4154  3.9495  0.1974
46731SOL     OW50122   9.921   5.227  12.422  0.0702 -0.0753  1.3035
46731SOL    HW150123   9.870   5.179  12.356  1.2672 -2.3063  1.8949
46731SOL    HW250124   9.947   5.308  12.377  0.3814 -1.2687 -0.7911
46732SOL     OW50125  13.171   2.565  11.725 -0.2439 -0.5159  0.1828
46732SOL    HW150126  13.261   2.560  11.694 -0.3097 -3.2388  0.1604
46732SOL    HW250127  13.125   2.499  11.675 -2.3398  0.9382  0.0833
46733SOL     OW50128   6.210   7.944  11.203 -0.3177 -0.4992 -1.1865
46733SOL    HW150129   6.191   7.893  11.281  0.4936  0.6391 -0.2220
46733SOL    HW250130   6.306   7.941  11.195 -0.3090  0.3500 -1.4648
46734SOL     OW50131  10.120   8.339   4.594 -0.3873 -0.0693  0.6431
46734SOL    HW150132  10.044   8.290   4.564 -0.0469  0.6651 -1.5547
46734SOL    HW250133  10.115   8.423   4.549  1.7917 -0.0637  0.2798
46735SOL     OW50134  11.914  13.223   7.886 -0.3159 -0.2020 -0.4205
46735SOL    HW150135  11.821  13.199   7.878 -0.3036 -0.8947  1.2767
46735SOL    HW250136  11.961  13.144   7.861 -0.1988 -0.2148 -0.1587
46736SOL     OW50137   6.908  10.615  12.162 -0.5979  0.4241  0.2221
46736SOL    HW150138   6.819  10.643  12.182 -0.6829 -0.6799  1.5060
46736SOL    HW250139   6.956  10.697  12.151 -2.2593  1.1091 -3.2196
46737SOL     OW50140   0.908   3.671   9.765 -0.4662 -0.4177  0.5548
46737SOL    HW150141   0.930   3.665   9.858 -2.4810  0.6866  1.1557
46737SOL    HW250142   0.992   3.657   9.720  1.1906  2.0094  2.5802
46738SOL     OW50143  11.236   5.328   7.979 -0.6709  0.0923  0.6370
46738SOL    HW150144  11.248   5.383   7.902 -0.6296  0.2689  0.7683
46738SOL    HW250145  11.325   5.304   8.005 -0.7241 -0.8594 -0.0065
46739SOL     OW50146  10.137   3.665   1.197 -0.2326  0.0061 -1.0206
46739SOL    HW150147  10.048   3.638   1.219 -0.2514 -0.5254 -1.6976
46739SOL    HW250148  10.137   3.760   1.203 -0.3107 -0.0828  0.9446
46740SOL     OW50149   7.550   7.694   9.442  0.2039 -0.1188  0.0853
46740SOL    HW150150   7.636   7.729   9.420 -0.4369 -0.2295 -3.1578
46740SOL    HW250151   7.560   7.599   9.434 -0.4946 -0.0732 -1.8476
46741SOL     OW50152   4.977   7.345  10.479  0.7006  0.1220 -0.3173
46741SOL    HW150153   4.969   7.271  10.419  0.1259 -1.4516  1.6071
46741SOL    HW250154   5.006   7.307  10.561 -0.1498  1.9609  0.9067
46742SOL     OW50155   5.342   1.860   5.015 -0.6001 -0.5559  0.1567
46742SOL    HW150156   5.289   1.901   5.084 -1.6110 -1.1098 -0.2646
46742SOL    HW250157   5.278   1.837   4.947  0.4073  0.2347 -1.1023
46743SOL     OW50158  12.179  11.986   6.813 -0.1321  0.5390 -0.1511
46743SOL    HW150159  12.223  12.007   6.730 -0.7665 -2.6689 -1.4719
46743SOL    HW250160  12.245  11.938   6.863 -0.4651  0.4618  0.2174
46744SOL     OW50161   1.495   2.347   5.491  0.2876  0.0576  0.1564
46744SOL    HW150162   1.553   2.283   5.534  1.5332 -0.8881 -2.7166
46744SOL    HW250163   1.466   2.303   5.411 -3.2222  1.1138  0.6546
46745SOL     OW50164   5.597   1.806   8.110  0.2125 -0.2289  0.1880
46745SOL    HW150165   5.681   1.847   8.088  1.5088 -2.8553 -0.0904
46745SOL    HW250166   5.587   1.821   8.204  0.0605  1.6010 -0.0706
46746SOL     OW50167   0.460   9.911   4.527  0.4569  0.1055  0.2351
46746SOL    HW150168   0.509   9.979   4.574  0.1377  2.3439 -2.4096
46746SOL    HW250169   0.392   9.959   4.480  0.0386 -2.0890 -1.5637
46747SOL     OW50170   1.724   2.819   8.138  0.2158  0.3915  0.1918
46747SOL    HW150171   1.713   2.841   8.231 -2.5176 -0.5772  0.2010
46747SOL    HW250172   1.641   2.778   8.114  0.6503  1.0850 -2.8390
46748SOL     OW50173  13.250   8.512   2.592 -0.3176 -0.4603  0.9454
46748SOL    HW150174  13.187   8.582   2.612  0.7157  0.8704 -0.2491
46748SOL    HW250175  13.335   8.555   2.593  0.2903 -1.5336 -0.5532
46749SOL     OW50176   9.674  12.800   7.005 -0.2982  0.1736  0.3071
46749SOL    HW150177   9.730  12.729   6.974 -0.1994  0.4664 -0.1911
46749SOL    HW250178   9.729  12.878   6.996 -0.5255  0.3589  0.5322
46750SOL     OW50179   9.578   5.145  12.815  0.4712 -0.2932  0.0884
46750SOL    HW150180   9.544   5.056  12.802  3.0173 -1.4529  0.8088
46750SOL    HW250181   9.651   5.134  12.877  0.5647  2.3850  0.5700
46751SOL     OW50182  10.390   3.507   4.425 -0.1802  0.5459  0.3916
46751SOL    HW150183  10.413   3.598   4.441 -2.5181  1.4999 -1.2019
46751SOL    HW250184  10.311   3.493   4.478  0.2149 -0.6045  0.7027
46752SOL     OW50185   0.440   7.361   7.994 -0.2692  0.8957 -0.2161
46752SOL    HW150186   0.533   7.384   7.983  0.1501 -0.2634  0.6656
46752SOL    HW250187   0.430   7.280   7.944  0.1033 -0.9136  2.4112
46753SOL     OW50188   4.842   2.434   6.792  0.2894 -0.7284 -0.2731
46753SOL    HW150189   4.773   2.493   6.762  0.3510 -0.6307 -0.2219
46753SOL    HW250190   4.815   2.409   6.880  1.2847  0.8316  0.5239
46754SOL     OW50191   1.267  11.322   1.471  0.0047  0.4567 -0.1579
46754SOL    HW150192   1.297  11.361   1.389 -0.0932 -3.5337 -2.3015
46754SOL    HW250193   1.187  11.275   1.448  0.0002 -0.8539  2.2359
46755SOL     OW50194   2.434  12.614   4.316 -0.3855  0.3537 -0.3804
46755SOL    HW150195   2.437  12.547   4.248  1.7719  0.9419 -0.9474
46755SOL    HW250196   2.341  12.639   4.321 -0.8593 -0.9469 -1.8468
46756SOL     OW50197   8.197   2.471  13.010  0.2693 -0.1461 -0.0795
46756SOL    HW150198   8.211   2.411  13.083  0.5738  1.2331  1.0536
46756SOL    HW250199   8.104   2.493  13.014  0.5003  0.8126  0.6658
46757SOL     OW50200   2.659   6.382  13.071  0.4762 -0.2329 -0.3572
46757SOL    HW150201   2.625   6.341  12.992  1.3309 -0.1567 -0.7717
46757SOL    HW250202   2.754   6.381  13.060  0.6762 -1.1366  1.1112
46758SOL     OW50203   5.532   5.578  13.009 -0.0756  0.6333  0.0201
46758SOL    HW150204   5.577   5.658  13.033 -2.1595  2.0914 -0.6414
46758SOL    HW250205   5.558   5.562  12.918 -1.3310  1.8581 -0.5901
46759SOL     OW50206  12.731   0.050   8.706 -0.3469 -0.3121  0.2105
46759SOL    HW150207  12.722  -0.031   8.756  0.1094 -0.1322  0.5870
46759SOL    HW250208  12.739   0.119   8.772 -0.8569  0.0573 -0.1057
46760SOL     OW50209   7.562   9.375   9.854 -0.3183 -0.2413 -0.0161
46760SOL    HW150210   7.565   9.365   9.949  0.4648 -0.0202 -0.0112
46760SOL    HW250211   7.542   9.287   9.822 -2.1898 -0.0087  0.4062
46761SOL     OW50212   4.836   6.238   2.662  0.0425  0.2380  0.5398
46761SOL    HW150213   4.771   6.209   2.726 -0.2358  0.4217  0.3422
46761SOL    HW250214   4.920   6.227   2.706 -0.2131  1.6315  1.4428
46762SOL     OW50215   6.921  12.628   9.530 -0.3842  0.4137  0.1931
46762SOL    HW150216   6.998  12.573   9.517 -0.4318  0.4037 -0.0628
46762SOL    HW250217   6.955  12.709   9.568 -0.0743  0.9127 -1.0919
46763SOL     OW50218   0.687   8.464   0.205  0.4042 -0.3985 -0.1151
46763SOL    HW150219   0.654   8.553   0.190 -1.2936 -1.2482 -1.7083
46763SOL    HW250220   0.630   8.429   0.274 -0.7418 -1.1567 -1.4116
46764SOL     OW50221   3.637   8.850   0.671 -0.5002 -0.1158 -0.7115
46764SOL    HW150222   3.708   8.787   0.684  0.6523  1.3051  0.0772
46764SOL    HW250223   3.563   8.812   0.719 -0.5912 -2.0337 -2.2497
46765SOL     OW50224   8.311   9.910   1.747 -0.1838  0.2981  0.2773
46765SOL    HW150225   8.245   9.918   1.678 -2.1528 -1.2468  1.8975
46765SOL    HW250226   8.289   9.978   1.810  2.0458  2.1858 -0.8175
46766SOL     OW50227   8.467   8.988   4.644  0.9152  0.5045 -0.7606
46766SOL    HW150228   8.557   9.014   4.664  0.4660  0.5583  1.5288
46766SOL    HW250229   8.422   9.070   4.625  0.8669  0.7818  0.4315
46767SOL     OW50230   9.597   4.777   0.768  0.0329 -0.4219  0.1780
46767SOL    HW150231   9.543   4.699   0.773 -2.1671  1.0735  2.2464
46767SOL    HW250232   9.535   4.850   0.767  1.9873  1.3561 -0.5068
46768SOL     OW50233  12.122   6.314  13.312  0.2212  0.4233  0.1622
46768SOL    HW150234  12.100   6.224  13.335  1.7359  0.4153  1.8722
46768SOL    HW250235  12.098   6.364  13.390  1.0996  1.2035 -0.0544
46769SOL     OW50236   7.549   8.618  12.413  0.0523  0.0673  0.2284
46769SOL    HW150237   7.525   8.529  12.438 -0.0767  0.3698  1.2223
46769SOL    HW250238   7.475   8.672  12.442 -0.0783  0.4562 -0.7674
46770SOL     OW50239   4.026   5.242   6.270 -0.4643 -0.3360  0.1732
46770SOL    HW150240   4.006   5.332   6.246 -2.1782 -0.8422 -0.5142
46770SOL    HW250241   3.984   5.189   6.202  1.4482 -1.6477 -0.0648
46771SOL     OW50242   7.234   8.356   5.727 -0.0466  0.9422 -0.2886
46771SOL    HW150243   7.255   8.449   5.712  0.3812  0.9383  0.2230
46771SOL    HW250244   7.295   8.329   5.796 -1.1926  0.7031  0.6783
46772SOL     OW50245   9.519   6.739   8.136 -0.2736 -0.1981 -0.0559
46772SOL    HW150246   9.547   6.751   8.046  1.5917 -2.0960  0.2041
46772SOL    HW250247   9.580   6.790   8.188  0.1810 -1.0341  0.2560
46773SOL     OW50248  12.519   8.332  11.900  0.2658 -0.1225  0.0491
46773SOL    HW150249  12.425   8.351  11.899  0.0958 -0.2751 -3.7057
46773SOL    HW250250  12.560   8.417  11.916 -0.5214  0.3156 -0.1852
46774SOL     OW50251   9.016   7.264   7.806  0.1185  0.0795 -0.1063
46774SOL    HW150252   9.063   7.331   7.856 -0.9398  0.4893  0.3633
46774SOL    HW250253   8.927   7.298   7.798 -0.8279 -1.8906  1.3346
46775SOL     OW50254   4.311  11.754   8.826 -0.0844 -0.0154 -0.0481
46775SOL    HW150255   4.251  11.822   8.856 -0.2402  0.3299 -1.0774
46775SOL    HW250256   4.386  11.760   8.885 -1.5160 -1.2213  1.9959
46776SOL     OW50257  10.827  12.126   6.928 -0.0520  0.5438  0.5112
46776SOL    HW150258  10.816  12.128   6.833 -0.8658  2.3574  0.6040
46776SOL    HW250259  10.779  12.048   6.955  0.7909 -0.4054 -0.6129
46777SOL     OW50260   5.650   7.995   5.522 -0.0355 -0.2212  0.3980
46777SOL    HW150261   5.635   8.045   5.442 -0.4813 -0.5440  0.2768
46777SOL    HW250262   5.656   8.062   5.591  0.7829  0.0854  0.0447
46778SOL     OW50263   3.566   1.898   2.640  0.3896 -0.2601 -0.3791
46778SOL    HW150264   3.621   1.821   2.649  0.1104 -0.3368  0.9165
46778SOL    HW250265   3.534   1.915   2.729 -3.0238 -1.2386 -1.2657
46779SOL     OW50266   7.736  10.460  11.039 -0.0133  0.2812 -0.0814
46779SOL    HW150267   7.727  10.524  11.110  0.8521 -1.7075  1.9355
46779SOL    HW250268   7.827  10.471  11.009 -0.0584  0.3995 -0.1785
46780SOL     OW50269   7.303   2.678   1.271  0.5046 -0.1315  0.1582
46780SOL    HW150270   7.310   2.648   1.180 -0.3449  0.8687 -0.2617
46780SOL    HW250271   7.233   2.624   1.308  0.2691  0.0338 -0.0395
46781SOL     OW50272   1.436   5.388   0.835  0.0727  0.0656  0.8994
46781SOL    HW150273   1.350   5.415   0.867 -0.7845  0.0796 -1.2497
46781SOL    HW250274   1.430   5.293   0.828  0.1532  0.0883  0.5232
46782SOL     OW50275   7.827   1.314  12.888  0.3019  0.4827  0.1703
46782SOL    HW150276   7.759   1.270  12.837 -1.0383  2.0917  0.5117
46782SOL    HW250277   7.909   1.287  12.845 -0.7112  1.1401 -2.3877
46783SOL     OW50278   6.611  11.657  12.854  0.1158  0.3207 -0.4985
46783SOL    HW150279   6.673  11.714  12.807  0.2162  0.2882 -0.4071
46783SOL    HW250280   6.649  11.649  12.942  0.2256 -0.0780 -0.5810
46784SOL     OW50281  11.048   6.762   5.829  0.1485 -0.1137  0.4246
46784SOL    HW150282  11.075   6.674   5.803  2.2910  0.4763  0.4902
46784SOL    HW250283  11.038   6.757   5.924 -0.1817 -0.3801  0.3800
46785SOL     OW50284   4.932   1.974   4.114 -0.0389 -0.2775 -0.4636
46785SOL    HW150285   5.023   1.994   4.093 -0.3103  0.0679 -1.3362
46785SOL    HW250286   4.892   1.950   4.030 -1.4609  2.3393 -0.6524
46786SOL     OW50287   3.903  13.177   7.154  0.0590 -0.1233  0.1153
46786SOL    HW150288   3.818  13.134   7.168 -0.8400 -0.0824 -3.9331
46786SOL    HW250289   3.880  13.269   7.139  0.7334 -0.1524 -1.2169
46787SOL     OW50290   4.525   4.733  11.891  0.2517 -0.0613  0.6513
46787SOL    HW150291   4.504   4.816  11.847 -0.6611 -0.5199  0.1862
46787SOL    HW250292   4.448   4.714  11.943  0.6429 -0.4034  1.1122
46788SOL     OW50293  10.342   1.254   9.055  0.3737 -0.0345  0.0898
46788SOL    HW150294  10.337   1.291   9.143  0.0109 -0.2654  0.1689
46788SOL    HW250295  10.255   1.218   9.039  0.5641 -0.3836 -0.1882
46789SOL     OW50296   6.123   4.125  12.793 -0.1853  0.3933  0.0220
46789SOL    HW150297   6.149   4.047  12.842  0.5702  1.4437  1.3551
46789SOL    HW250298   6.027   4.124  12.797 -0.1604  0.0721  0.9314
46790SOL     OW50299  12.918  12.412   2.456  0.0549  0.4300  0.3996
46790SOL    HW150300  12.866  12.396   2.377  0.9710  0.7857 -0.2996
46790SOL    HW250301  12.975  12.485   2.432 -0.3468  1.2132  1.7370
46791SOL     OW50302   2.608   7.321  11.988 -0.4281 -0.2814 -0.0946
46791SOL    HW150303   2.569   7.325  11.901  0.4977  1.5324 -0.4762
46791SOL    HW250304   2.586   7.234  12.020  1.0069 -1.8626 -3.0081
46792SOL     OW50305   6.902   2.511  12.521  0.1987  0.2693 -0.2534
46792SOL    HW150306   6.924   2.595  12.482 -0.0421 -0.9753 -3.3104
46792SOL    HW250307   6.810   2.497  12.499  0.9540 -2.0218 -2.5135
46793SOL     OW50308   6.067   9.539   2.536  0.0974  0.5321  0.6201
46793SOL    HW150309   5.998   9.551   2.601  0.8130 -1.4357  1.8319
46793SOL    HW250310   6.148   9.546   2.586  0.9689  4.0455 -0.9578
46794SOL     OW50311  12.159   4.970   7.973 -0.2916 -0.0674 -0.1830
46794SOL    HW150312  12.178   4.876   7.967  1.1195  0.2558 -1.4262
46794SOL    HW250313  12.243   5.012   7.962 -0.8065  1.3730  1.0368
46795SOL     OW50314   4.972   1.394   1.282  0.5561 -0.0073 -0.1430
46795SOL    HW150315   4.966   1.336   1.358 -1.7483 -0.6662 -0.7808
46795SOL    HW250316   4.956   1.338   1.207 -1.1008  1.3051 -0.8245
46796SOL     OW50317   3.078   9.301   9.665  0.6933 -0.0805 -0.0368
46796SOL    HW150318   3.163   9.342   9.682 -0.0661  1.6117 -0.1223
46796SOL    HW250319   3.050   9.267   9.750 -0.1955  2.7086  0.8944
46797SOL     OW50320   5.915   2.522  11.799  0.4729  0.6058 -0.0542
46797SOL    HW150321   5.926   2.568  11.882  0.2282 -0.6158  0.6896
46797SOL    HW250322   5.878   2.437  11.824 -0.3907  0.5192 -1.4896
46798SOL     OW50323   4.731   1.349   3.756  0.3862 -0.3474 -0.4446
46798SOL    HW150324   4.784   1.382   3.684 -1.4034 -2.1163 -2.7801
46798SOL    HW250325   4.768   1.263   3.775 -0.1668 -0.6021 -0.4835
46799SOL     OW50326  13.195   5.624   8.827  0.3894 -0.2651 -0.8546
46799SOL    HW150327  13.249   5.679   8.770 -1.2796  0.4176 -1.8528
46799SOL    HW250328  13.122   5.681   8.852 -0.2936 -1.3977 -0.2217
46800SOL     OW50329  11.172   8.437   3.797  0.1114 -0.0601 -0.9002
46800SOL    HW150330  11.242   8.445   3.732 -0.1535 -0.3208 -1.2221
46800SOL    HW250331  11.095   8.414   3.746 -0.5064  1.4546 -0.7057
46801SOL     OW50332  11.371   7.616   2.861 -0.7382 -0.6572  0.1791
46801SOL    HW150333  11.389   7.540   2.916  0.3442 -1.2748 -0.9672
46801SOL    HW250334  11.372   7.582   2.772 -0.1654  0.6965 -0.3677
46802SOL     OW50335   6.906   8.593   5.750  0.5479  0.1459 -0.2136
46802SOL    HW150336   6.897   8.681   5.715  0.6259  0.2591  0.0455
46802SOL    HW250337   6.990   8.562   5.716  1.9475  1.2529  1.9664
46803SOL     OW50338   6.347   3.098   4.162  0.0616  0.3228  0.0461
46803SOL    HW150339   6.257   3.099   4.193  0.1949  0.5096  0.4423
46803SOL    HW250340   6.400   3.103   4.242  0.4319 -0.3755 -0.1483
46804SOL     OW50341   0.291   0.795  11.876 -0.3578  0.2337  0.5162
46804SOL    HW150342   0.356   0.746  11.824 -1.6117 -0.3881 -0.5175
46804SOL    HW250343   0.308   0.769  11.966  0.8188  0.0753  0.2686
46805SOL     OW50344   1.102  11.063   4.845  0.6934 -0.4416 -0.9401
46805SOL    HW150345   1.168  10.997   4.865 -0.1306 -0.5229  1.9772
46805SOL    HW250346   1.127  11.140   4.896 -0.9630 -0.1987 -0.4039
46806SOL     OW50347   7.187   9.983   8.778  0.0995  0.1794 -0.1886
46806SOL    HW150348   7.093   9.968   8.780  0.1449 -0.0729  0.3854
46806SOL    HW250349   7.221   9.921   8.715 -0.1858  0.6889 -0.8556
46807SOL     OW50350   5.391  12.796   0.331  0.7540  0.7817 -0.3295
46807SOL    HW150351   5.455  12.731   0.359 -0.7659 -1.2545 -1.2941
46807SOL    HW250352   5.354  12.761   0.250  0.3168  3.2063 -1.2707
46808SOL     OW50353  11.688   1.402   2.573  0.4449 -0.2805  0.4522
46808SOL    HW150354  11.753   1.442   2.631  0.3900 -1.1665  1.1270
46808SOL    HW250355  11.714   1.432   2.485  1.9183 -0.8144  0.6864
46809SOL     OW50356   0.594   9.239  11.820  0.3191 -0.3849  0.3151
46809SOL    HW150357   0.667   9.286  11.860 -0.5068  1.0188  0.2477
46809SOL    HW250358   0.541   9.308  11.780 -1.2474 -1.3393  0.6928
46810SOL     OW50359  13.044  10.621  11.577 -0.3184 -0.0834  0.5121
46810SOL    HW150360  12.993  10.623  11.658 -0.7905 -2.2684  0.3450
46810SOL    HW250361  13.124  10.575  11.600 -0.8137 -1.4783 -0.3845
46811SOL     OW50362  12.741  10.287   0.868  0.2127  0.5974  0.3658
46811SOL    HW150363  12.771  10.224   0.803 -2.0064 -0.8524  0.6434
46811SOL    HW250364  12.684  10.347   0.820 -0.7063  0.0731  0.7867
46812SOL     OW50365   4.781   1.227   5.047  0.0975  0.6561  0.8947
46812SOL    HW150366   4.783   1.317   5.080  1.8817  0.2873  1.9039
46812SOL    HW250367   4.831   1.231   4.965 -1.7620  0.9743 -0.2967
46813SOL     OW50368   8.910   9.945   4.921  0.3417  0.1216 -0.2001
46813SOL    HW150369   8.964   9.868   4.908 -0.7725 -1.1994  2.1835
46813SOL    HW250370   8.972  10.018   4.927  1.7779 -1.1543  1.2031
46814SOL     OW50371   4.605   5.776   7.263  0.0045  1.2647  0.7756
46814SOL    HW150372   4.517   5.741   7.275  0.0626  1.4649  1.9446
46814SOL    HW250373   4.655   5.740   7.336  0.8337  1.3599  0.2667
46815SOL     OW50374   2.676   4.913  13.002  0.2553  0.2248  0.0944
46815SOL    HW150375   2.650   4.875  12.918 -0.5330  1.9241 -0.4891
46815SOL    HW250376   2.594   4.930  13.048  0.5164  1.6642  0.0913
46816SOL     OW50377  10.564  12.359   6.735 -0.2243  0.2169 -0.0945
46816SOL    HW150378  10.641  12.413   6.751  0.6111 -1.0500  0.2437
46816SOL    HW250379  10.493  12.405   6.779  0.2402  1.5939 -0.7203
46817SOL     OW50380   2.185   4.932   7.760 -0.5861 -0.5580  0.0610
46817SOL    HW150381   2.109   4.990   7.763 -0.6666 -0.6877  0.7625
46817SOL    HW250382   2.171   4.876   7.684  0.2227  1.3113 -1.5369
46818SOL     OW50383   0.354   5.611   3.082 -0.2149 -0.2924 -0.2927
46818SOL    HW150384   0.402   5.532   3.057 -2.0055 -0.8407 -2.1919
46818SOL    HW250385   0.411   5.683   3.054  0.5008 -0.8907 -0.4242
46819SOL     OW50386   9.891   9.545   4.198  0.2465  0.2563 -0.1307
46819SOL    HW150387   9.956   9.542   4.127 -0.2411  1.0668 -0.6243
46819SOL    HW250388   9.845   9.462   4.190  1.1429 -0.2913  0.1650
46820SOL     OW50389   9.078   4.226   0.058 -0.0891  0.2467  0.4190
46820SOL    HW150390   8.987   4.252   0.071 -0.3112 -0.6186  0.5923
46820SOL    HW250391   9.076   4.131   0.049  0.8820  0.1429  1.1413
46821SOL     OW50392   2.523   6.619   5.524  0.1828 -0.1141 -0.1603
46821SOL    HW150393   2.451   6.648   5.580  0.8905 -0.5366  0.9960
46821SOL    HW250394   2.495   6.642   5.436 -0.2265  2.1534  0.4904
46822SOL     OW50395  12.647   0.968   1.758  0.0236 -0.1361 -0.1062
46822SOL    HW150396  12.566   0.975   1.808 -0.9616  2.0401 -1.8335
46822SOL    HW250397  12.703   0.910   1.810 -3.3194 -3.5250  0.1595
46823SOL     OW50398   2.653   5.396   2.004  0.5612 -0.1300  0.1475
46823SOL    HW150399   2.624   5.332   2.069  0.3491 -0.6383 -0.4445
46823SOL    HW250400   2.742   5.418   2.031  0.3667 -0.1031  0.7908
46824SOL     OW50401   2.392   2.825   9.685 -0.0941 -0.3386  0.3622
46824SOL    HW150402   2.379   2.818   9.591 -1.4754 -3.0012  0.6453
46824SOL    HW250403   2.480   2.790   9.700 -0.0387 -0.3188  0.0881
46825SOL     OW50404   7.990  11.594   3.595  0.4443 -0.9253  0.3173
46825SOL    HW150405   7.979  11.685   3.621  0.4225 -0.4723 -1.1776
46825SOL    HW250406   8.071  11.567   3.639  0.6174 -0.1012  0.5341
46826SOL     OW50407   1.480   3.702  11.968 -0.3072  0.1144 -0.0923
46826SOL    HW150408   1.493   3.650  12.048  0.5153 -0.0382 -0.3090
46826SOL    HW250409   1.564   3.696  11.922 -0.7556  0.2430 -0.9473
46827SOL     OW50410   3.271   0.019   3.340  0.5367 -0.6261 -0.9121
46827SOL    HW150411   3.358   0.015   3.381 -0.1109  0.0918  0.5906
46827SOL    HW250412   3.215  -0.033   3.397 -0.5425  1.0042 -0.4429
46828SOL     OW50413   8.930   8.559   8.613 -0.5213 -0.0038  0.0921
46828SOL    HW150414   8.963   8.527   8.529 -1.7386  1.1669 -0.8807
46828SOL    HW250415   8.942   8.486   8.673  3.9494  0.2990 -0.0560
46829SOL     OW50416   2.824   9.475  12.450  0.2740 -0.2487  0.0838
46829SOL    HW150417   2.826   9.424  12.368 -0.1024 -0.9917  0.5320
46829SOL    HW250418   2.741   9.453  12.490 -1.6909  3.4820 -1.4113
46830SOL     OW50419  12.816   5.809   0.567 -0.1762  0.3149 -0.1483
46830SOL    HW150420  12.770   5.729   0.590  0.7024  0.0824  0.8600
46830SOL    HW250421  12.772   5.840   0.488 -1.8698 -0.0460  0.6093
46831SOL     OW50422   3.113   2.402   3.805  0.2249 -0.4727 -0.0518
46831SOL    HW150423   3.038   2.368   3.853  0.1115  1.2551  1.0805
46831SOL    HW250424   3.079   2.422   3.718  0.1366 -2.4737 -0.5353
46832SOL     OW50425   6.376   7.407   3.685  0.6571  0.3475 -0.1693
46832SOL    HW150426   6.355   7.489   3.729  0.2189  1.0783 -1.6723
46832SOL    HW250427   6.387   7.431   3.593  1.7753 -1.0848 -0.4400
46833SOL     OW50428   6.298  12.986   3.034 -0.4066 -0.1991 -0.5914
46833SOL    HW150429   6.214  12.969   3.076 -0.6203 -0.0033 -0.9292
46833SOL    HW250430   6.288  12.953   2.945 -0.1354 -0.1495 -0.6433
46834SOL     OW50431   2.273   0.322   8.156 -0.4391 -0.3508 -0.1638
46834SOL    HW150432   2.341   0.299   8.219 -0.0631 -1.3590 -0.9009
46834SOL    HW250433   2.193   0.283   8.192 -0.0863 -1.5759 -0.6485
46835SOL     OW50434  12.473   3.882   9.773  0.0141  0.2908  0.5925
46835SOL    HW150435  12.396   3.889   9.829 -1.4773 -0.2837 -1.3100
46835SOL    HW250436  12.467   3.794   9.734  1.5304  0.3118  0.2333
46836SOL     OW50437   2.360  11.334   9.914  0.2235 -0.0529  0.4705
46836SOL    HW150438   2.311  11.327   9.833 -1.7174  1.1051  1.4796
46836SOL    HW250439   2.438  11.280   9.900 -0.1026  0.0433 -2.0919
46837SOL     OW50440  12.478  10.431   5.778 -0.7218  0.1592  0.1100
46837SOL    HW150441  12.386  10.446   5.758 -0.7379  0.1488  0.1773
46837SOL    HW250442  12.479  10.399   5.868 -0.6571  0.1134  0.0934
46838SOL     OW50443   2.052   0.132   4.540 -0.0269  0.0302  0.3688
46838SOL    HW150444   1.992   0.206   4.528 -1.0725 -0.5463  1.7860
46838SOL    HW250445   2.062   0.124   4.635 -0.1394 -1.7779  0.2599
46839SOL     OW50446  10.746   4.609   6.227 -0.0024 -0.4169  0.0717
46839SOL    HW150447  10.816   4.590   6.289 -0.6606 -0.5160  0.8049
46839SOL    HW250448  10.750   4.704   6.214 -0.3619 -0.2790  0.8944
46840SOL     OW50449   6.957   7.547   8.653  0.0275  0.0922 -0.2379
46840SOL    HW150450   6.869   7.530   8.685  1.1396 -1.6074  2.2769
46840SOL    HW250451   6.970   7.484   8.582 -0.4229 -0.4545  0.1561
46841SOL     OW50452   0.040  12.916  13.052  0.6306 -0.0302 -0.2107
46841SOL    HW150453  -0.024  12.925  12.982  1.1887  0.8472 -0.6335
46841SOL    HW250454   0.065  13.006  13.073  0.5812 -0.2834  1.0207
46842SOL     OW50455   8.118   8.856   7.505 -0.6983 -1.3839 -0.1012
46842SOL    HW150456   8.205   8.818   7.521 -1.0209 -2.7155 -1.3409
46842SOL    HW250457   8.135   8.930   7.446 -0.2389 -0.5109  1.0842
46843SOL     OW50458   0.690   8.751   2.060  0.4200 -0.2563  0.3840
46843SOL    HW150459   0.658   8.837   2.088 -0.0290  0.0444 -0.9973
46843SOL    HW250460   0.611   8.702   2.036  0.6791 -1.0442  1.0951
46844SOL     OW50461  12.833   1.560  10.040 -0.4393 -0.1871 -0.1590
46844SOL    HW150462  12.888   1.636  10.022 -0.1828  0.2600  2.1923
46844SOL    HW250463  12.792   1.540   9.956  1.5771  0.8331 -1.4704
46845SOL     OW50464   2.011   6.063   6.932  0.0127 -0.1460  0.2052
46845SOL    HW150465   2.096   6.107   6.929 -0.4918  0.8328 -0.7730
46845SOL    HW250466   2.025   5.980   6.886  0.4183  0.0402 -0.0075
46846SOL     OW50467  13.091  11.636   2.284  0.2255  0.7018  0.4105
46846SOL    HW150468  13.178  11.661   2.253  0.4753 -0.0857  0.4716
46846SOL    HW250469  13.107  11.577   2.357 -0.3294 -0.8744 -0.6839
46847SOL     OW50470   2.409   1.538  11.757  0.0957 -0.4428  0.1748
46847SOL    HW150471   2.343   1.487  11.804 -0.0591  1.0045  1.5969
46847SOL    HW250472   2.372   1.625  11.750  2.0574  0.5850  1.5918
46848SOL     OW50473   3.625  12.657   6.006 -0.3295  0.4633  0.0234
46848SOL    HW150474   3.552  12.635   6.064 -1.6356  1.4926 -1.1471
46848SOL    HW250475   3.657  12.741   6.038  0.3944 -0.0090  0.5642
46849SOL     OW50476   9.251   7.988  10.474 -0.3480 -0.2216 -0.2980
46849SOL    HW150477   9.182   7.930  10.506 -0.2653  0.1593  0.5949
46849SOL    HW250478   9.239   8.069  10.523  0.1310  0.1892 -0.8423
46850SOL     OW50479   1.958   2.504   5.847  0.4046  0.2608  0.2288
46850SOL    HW150480   2.028   2.526   5.908  0.3416 -1.1838  0.8645
46850SOL    HW250481   1.988   2.425   5.803 -0.7327 -0.2919  0.4000
46851SOL     OW50482   8.978   4.008   7.504 -0.2961 -0.3371 -0.3922
46851SOL    HW150483   9.018   4.021   7.417 -0.8893  1.0905 -0.4849
46851SOL    HW250484   8.890   3.975   7.485 -1.0396  1.5566 -0.4513
46852SOL     OW50485  12.101   4.879   1.909  0.1678  0.2625  0.2311
46852SOL    HW150486  12.085   4.956   1.964 -1.1061  0.3939 -0.2954
46852SOL    HW250487  12.134   4.915   1.827 -0.0105  0.2140  0.1389
46853SOL     OW50488   5.498   9.948   5.789 -0.5347  0.4532 -0.1008
46853SOL    HW150489   5.552   9.874   5.761 -1.3300  0.0149 -0.5286
46853SOL    HW250490   5.468   9.924   5.876 -1.2347  0.0003 -0.4529
46854SOL     OW50491   8.546   9.668  11.384  0.2226  0.6712 -0.8619
46854SOL    HW150492   8.540   9.670  11.479  1.5300 -1.0723 -0.7008
46854SOL    HW250493   8.455   9.654  11.355 -0.1523  0.9704  0.1281
46855SOL     OW50494  10.776   7.777  12.327  0.1386  0.2084  0.1988
46855SOL    HW150495  10.800   7.773  12.235  0.8718 -0.4678  0.4134
46855SOL    HW250496  10.854   7.810  12.371  0.1089 -0.3636  0.6873
46856SOL     OW50497   4.795  12.590   2.324 -0.7648 -0.1942 -0.3347
46856SOL    HW150498   4.742  12.594   2.404 -0.6274  0.8284 -0.2884
46856SOL    HW250499   4.733  12.567   2.255 -1.3055  1.0855 -0.2953
46857SOL     OW50500  10.981   0.986  12.095 -0.1494  0.5766  0.1566
46857SOL    HW150501  11.043   0.933  12.046  1.7066  0.5803  2.2942
46857SOL    HW250502  10.990   1.074  12.058 -0.3014  0.1918 -0.8040
46858SOL     OW50503   7.334  11.534  11.921  0.8837 -0.6203  0.3330
46858SOL    HW150504   7.333  11.443  11.892 -0.1541 -0.3070 -0.6786
46858SOL    HW250505   7.289  11.582  11.852 -0.1274  0.4075  1.6459
46859SOL     OW50506   8.752   2.728  10.309  0.4381 -0.1990  0.0509
46859SOL    HW150507   8.727   2.793  10.375 -0.8402  0.5365 -1.1121
46859SOL    HW250508   8.674   2.717  10.255  1.9048  0.4102 -2.3275
46860SOL     OW50509   0.661  10.175   5.977  0.0594  0.3007  0.5867
46860SOL    HW150510   0.601  10.101   5.966 -0.6594  0.7602  1.2947
46860SOL    HW250511   0.648  10.202   6.068  0.8903  0.8051  0.5565
46861SOL     OW50512  12.011  11.908   2.829  0.2422  0.3282 -0.1377
46861SOL    HW150513  12.090  11.896   2.776  1.6810 -0.1370  1.9604
46861SOL    HW250514  12.014  11.836   2.892 -0.4202  1.8272  1.6904
46862SOL     OW50515  10.016   5.570  11.989  0.2972 -0.3216  0.2683
46862SOL    HW150516   9.936   5.576  12.042  0.9171 -1.0803  1.3311
46862SOL    HW250517   9.997   5.503  11.924 -0.5802  0.8239 -0.7251
46863SOL     OW50518   2.078  10.820   2.013  0.1235 -0.0485 -0.5065
46863SOL    HW150519   2.102  10.913   2.007 -2.4154  0.7816  0.9717
46863SOL    HW250520   2.064  10.804   2.106 -1.5207 -1.3583 -0.9332
46864SOL     OW50521   9.904   5.147   2.165 -0.2422  0.4674  0.5644
46864SOL    HW150522   9.833   5.210   2.157 -1.9458 -1.2373  1.3723
46864SOL    HW250523   9.983   5.200   2.180 -1.3151  2.4141 -0.3368
46865SOL     OW50524   0.381   5.989   4.714 -0.1078  0.0248  0.0522
46865SOL    HW150525   0.475   5.971   4.716  0.0935  0.4873 -2.2408
46865SOL    HW250526   0.375   6.084   4.724 -0.4388 -0.1105  1.3127
46866SOL     OW50527  10.800  12.372   1.995  0.7233  0.1662 -0.0892
46866SOL    HW150528  10.733  12.441   1.988  1.0005  0.2641 -2.5875
46866SOL    HW250529  10.784  12.316   1.919  1.7473 -1.4226  0.8276
46867SOL     OW50530   9.075  12.112   1.312  0.1452 -0.3913  0.1977
46867SOL    HW150531   8.993  12.141   1.272 -0.8354 -1.7555  1.1597
46867SOL    HW250532   9.142  12.136   1.248 -0.9496  0.9303 -0.5232
46868SOL     OW50533   8.372   1.260   4.014  0.3483 -0.1054  0.1493
46868SOL    HW150534   8.389   1.308   4.095 -1.7726  0.2344  0.4552
46868SOL    HW250535   8.379   1.168   4.039 -1.0142 -0.0214  0.9470
46869SOL     OW50536   2.559   9.160   2.386 -0.0076  0.6514 -0.6777
46869SOL    HW150537   2.478   9.177   2.433  0.1829  0.8948 -0.4310
46869SOL    HW250538   2.570   9.235   2.328  1.0487  1.6400  0.7134
46870SOL     OW50539  12.221   8.207   9.958  0.2862  0.0615  0.1212
46870SOL    HW150540  12.283   8.274   9.930 -0.5345  1.2120  0.9488
46870SOL    HW250541  12.155   8.205   9.889  1.5369 -1.6398 -1.0942
46871SOL     OW50542  10.570   5.125   7.833 -0.0976 -0.1131 -0.1141
46871SOL    HW150543  10.524   5.103   7.913 -0.3430  0.7929  0.0111
46871SOL    HW250544  10.527   5.204   7.801  0.0536 -0.4069 -1.0954
46872SOL     OW50545   1.456   1.170   2.615  0.1552  0.0074 -0.2737
46872SOL    HW150546   1.375   1.121   2.633  0.2464 -0.4735 -1.1134
46872SOL    HW250547   1.445   1.203   2.526  0.5943  0.5269 -0.1396
46873SOL     OW50548  10.902  12.068   9.272 -1.0118  0.0523 -1.1047
46873SOL    HW150549  10.890  12.034   9.183  0.3872 -0.7955 -1.0123
46873SOL    HW250550  10.825  12.122   9.288 -2.4364 -1.6001 -1.9728
46874SOL     OW50551   8.145   6.164  11.001  0.7554  0.2269  0.3822
46874SOL    HW150552   8.073   6.102  10.989  0.2965  0.5486  1.4075
46874SOL    HW250553   8.196   6.127  11.073  1.0428  0.5285  0.3318
46875SOL     OW50554  12.954  11.913   3.491  0.3524  0.4040  0.3486
46875SOL    HW150555  12.982  11.981   3.553  1.8379  0.1832 -0.0431
46875SOL    HW250556  13.014  11.922   3.417 -1.4524  0.7386 -1.1623
46876SOL     OW50557   8.451  12.447  11.364  0.4623  0.2719 -0.3962
46876SOL    HW150558   8.461  12.368  11.311  0.0437  1.3122 -2.1457
46876SOL    HW250559   8.424  12.416  11.450  0.9211 -1.5082 -0.8573
46877SOL     OW50560   0.888   2.017   0.959  0.3218  0.0146  0.0892
46877SOL    HW150561   0.823   2.044   0.894  0.7860 -2.4275 -1.5272
46877SOL    HW250562   0.861   1.928   0.985  2.1668 -0.4770  0.4927
46878SOL     OW50563   6.590  11.062   1.727  0.5827 -0.0450  0.6725
46878SOL    HW150564   6.513  11.056   1.670  2.7519 -0.5799 -2.5143
46878SOL    HW250565   6.604  11.155   1.740 -2.2307  0.0869  3.9701
46879SOL     OW50566   2.859   9.194   7.026 -0.7451  0.4209 -0.3144
46879SOL    HW150567   2.771   9.213   6.993 -0.0936  1.4381 -1.5629
46879SOL    HW250568   2.861   9.232   7.114 -2.3248 -1.8021  0.7791
46880SOL     OW50569  11.309  10.751   1.136 -0.0531  0.6226  0.0965
46880SOL    HW150570  11.346  10.730   1.050 -0.7872 -1.4430  0.2198
46880SOL    HW250571  11.359  10.827   1.166  1.4311  0.2855 -1.3849
46881SOL     OW50572   0.054   4.747   6.060  0.5578  0.7079  0.2909
46881SOL    HW150573   0.013   4.746   5.974  0.2335  0.8499  0.4407
46881SOL    HW250574   0.018   4.670   6.104  0.1640  1.0378  0.5529
46882SOL     OW50575   5.416   7.483   3.911 -1.0010 -0.4034  0.8631
46882SOL    HW150576   5.333   7.436   3.906 -2.2163  1.6938 -2.4686
46882SOL    HW250577   5.410   7.548   3.841  3.6755 -0.4177  0.1602
46883SOL     OW50578   7.039   9.209   0.908 -0.4283 -0.3071 -0.5453
46883SOL    HW150579   7.018   9.227   1.000 -1.1292 -1.0539 -0.5484
46883SOL    HW250580   6.971   9.256   0.859 -1.0358 -1.2306 -0.6164
46884SOL     OW50581   9.094   2.693  11.814 -0.2723  0.5454 -0.2771
46884SOL    HW150582   9.039   2.695  11.893 -1.7362  0.2158 -1.2373
46884SOL    HW250583   9.098   2.600  11.790  1.0495  0.5190 -0.0183
46885SOL     OW50584   6.120   4.864   7.602  0.0945 -0.0444  0.2379
46885SOL    HW150585   6.039   4.872   7.552 -0.2749  0.2851  0.8838
46885SOL    HW250586   6.184   4.916   7.553 -0.0092 -0.5029 -0.4030
46886SOL     OW50587   3.680   0.687   9.943 -0.1744  0.2171  0.0489
46886SOL    HW150588   3.662   0.750   9.873  0.9321 -0.4063 -0.8310
46886SOL    HW250589   3.710   0.740  10.017 -1.5919  0.9070  0.1637
46887SOL     OW50590   2.017   2.159   5.957  0.9010  0.5340  0.0073
46887SOL    HW150591   2.050   2.184   6.044  0.7747  0.6263  0.0284
46887SOL    HW250592   2.041   2.232   5.901 -1.8392  2.0176  0.5882
46888SOL     OW50593   3.497   1.701  13.294 -0.4485  0.4076 -0.4897
46888SOL    HW150594   3.552   1.623  13.287  0.4110  0.7792  1.3638
46888SOL    HW250595   3.547   1.769  13.248  1.0635  0.8829  1.6607
46889SOL     OW50596   0.053   1.284   3.260  0.6419  0.2633  0.1564
46889SOL    HW150597   0.066   1.267   3.167 -0.5036 -1.7634  0.3090
46889SOL    HW250598  -0.042   1.282   3.272  0.8023 -0.5329  1.5220
46890SOL     OW50599   0.616   6.195   8.263 -0.3254 -0.0801 -0.0524
46890SOL    HW150600   0.639   6.103   8.252 -0.0943 -0.0169 -0.0858
46890SOL    HW250601   0.692   6.235   8.306 -0.7505 -0.0778  0.7305
46891SOL     OW50602  11.771   1.755   5.739  0.1085  0.3025  0.6449
46891SOL    HW150603  11.740   1.725   5.825 -1.3777 -0.3593 -0.0929
46891SOL    HW250604  11.806   1.843   5.756 -0.7953  0.4615  1.8145
46892SOL     OW50605   3.705   1.239   5.852 -0.1009  0.4970 -0.5277
46892SOL    HW150606   3.702   1.295   5.929 -0.8299  0.5967 -0.6207
46892SOL    HW250607   3.667   1.292   5.782 -1.0350 -0.1744 -0.5657
46893SOL     OW50608   7.271   0.053   1.007 -0.5721  0.1991  0.1802
46893SOL    HW150609   7.300  -0.038   0.994  0.0404  0.3436  0.4707
46893SOL    HW250610   7.186   0.045   1.049 -0.3718 -0.2460  0.5148
46894SOL     OW50611   7.907   0.853   4.085 -0.0352  0.0713 -0.3299
46894SOL    HW150612   7.837   0.863   4.021 -1.1523 -1.2837  0.6208
46894SOL    HW250613   7.977   0.910   4.052 -0.3648 -0.8930 -2.9827
46895SOL     OW50614   2.950  11.394   6.413 -0.1040 -0.0503  0.0740
46895SOL    HW150615   2.965  11.420   6.503  2.1374 -0.3095 -0.1656
46895SOL    HW250616   2.981  11.468   6.360  1.9263 -1.2178 -0.4995
46896SOL     OW50617   7.646   6.168  13.234  0.3518 -0.1373 -0.4190
46896SOL    HW150618   7.665   6.229  13.305 -0.2979 -2.1577  1.6315
46896SOL    HW250619   7.555   6.142  13.249  1.6651 -4.5400  1.3322
46897SOL     OW50620   6.643   5.447   2.227 -0.2236 -0.1362  0.1997
46897SOL    HW150621   6.650   5.489   2.313  3.5912 -0.8552  0.4279
46897SOL    HW250622   6.672   5.514   2.165  0.7602 -0.7602 -0.0390
46898SOL     OW50623  10.936   8.905   3.408  1.0818  0.1487  0.2149
46898SOL    HW150624  10.917   8.979   3.466  0.1845  0.0864  0.0253
46898SOL    HW250625  10.908   8.828   3.457 -0.4632  0.1577 -0.5769
46899SOL     OW50626   3.559   8.910   1.416  0.1712  0.3233 -0.6138
46899SOL    HW150627   3.647   8.936   1.445  0.3743 -0.0614 -0.8908
46899SOL    HW250628   3.519   8.872   1.494  0.7879 -0.8901 -0.8790
46900SOL     OW50629   3.371   2.615   7.286  0.2229 -0.1376  0.0882
46900SOL    HW150630   3.280   2.628   7.260 -0.3124  0.1223  1.9774
46900SOL    HW250631   3.392   2.527   7.254 -1.2053 -0.8351  0.9535
46901SOL     OW50632  10.724  10.491   7.077  0.0892  0.2161  0.2932
46901SOL    HW150633  10.799  10.433   7.059 -0.0951  0.6707 -2.2966
46901SOL    HW250634  10.764  10.571   7.111  0.6034 -0.2707  0.8604
46902SOL     OW50635  10.644   9.628  13.046 -0.5804  0.2715  0.0941
46902SOL    HW150636  10.550   9.641  13.054 -0.4297  1.0375  0.6538
46902SOL    HW250637  10.676   9.623  13.136 -0.0850 -0.0291 -0.0910
46903SOL     OW50638  12.376  12.486   6.151  0.2732  0.2788 -0.0759
46903SOL    HW150639  12.442  12.429   6.191 -0.2333  0.0968  0.5061
46903SOL    HW250640  12.328  12.524   6.224  0.7403  1.6423 -0.4438
46904SOL     OW50641  12.841   7.138   6.146 -0.2013 -0.1883 -0.4503
46904SOL    HW150642  12.805   7.056   6.113 -1.2804 -0.2339  0.7413
46904SOL    HW250643  12.802   7.205   6.090 -2.3784 -0.2267  0.8778
46905SOL     OW50644   9.522   2.126   1.854  0.0427  0.1701 -0.1692
46905SOL    HW150645   9.460   2.056   1.869 -2.4842  1.9083 -1.6370
46905SOL    HW250646   9.477   2.205   1.883  2.5235  1.3358  0.8529
46906SOL     OW50647   9.827   5.693   8.167 -0.3165  0.2954  0.0267
46906SOL    HW150648   9.890   5.630   8.132 -0.5279  0.3930 -0.5405
46906SOL    HW250649   9.834   5.684   8.262 -0.9294 -1.1625 -0.0523
46907SOL     OW50650   4.809   9.456  12.581  0.3510 -0.5744 -0.4117
46907SOL    HW150651   4.871   9.394  12.619  0.0851  0.1478  1.2911
46907SOL    HW250652   4.743   9.400  12.539 -0.3782 -1.5341  1.8555
46908SOL     OW50653   7.329   8.261   7.612  0.3423 -0.1739  0.7427
46908SOL    HW150654   7.315   8.349   7.576  1.3513  0.3931  1.6938
46908SOL    HW250655   7.321   8.203   7.536 -1.0802  0.6481  0.2203
46909SOL     OW50656  11.614   5.450   6.135 -0.2053 -0.0170  0.0400
46909SOL    HW150657  11.612   5.366   6.180 -0.2750  1.4587  3.0028
46909SOL    HW250658  11.525   5.485   6.146 -0.2646  0.3465 -1.4262
46910SOL     OW50659  10.365   9.180  12.779  0.7238  0.3761  0.2215
46910SOL    HW150660  10.375   9.223  12.694  1.4869  0.7638  0.4968
46910SOL    HW250661  10.409   9.095  12.768  0.4948  0.2722  0.1140
46911SOL     OW50662   5.639   8.621   1.577 -0.5333  0.2339 -0.1500
46911SOL    HW150663   5.662   8.709   1.545  2.5690 -0.6619 -0.7389
46911SOL    HW250664   5.576   8.588   1.513  1.2925  0.6026 -2.2668
46912SOL     OW50665   4.698   1.348  10.042  0.1738 -0.5489 -0.9923
46912SOL    HW150666   4.700   1.379   9.952  0.9296 -0.0825 -0.8205
46912SOL    HW250667   4.726   1.257  10.037 -1.5751 -1.1114 -1.4361
46913SOL     OW50668   3.722   4.214  12.560  0.3264 -0.1783 -0.3239
46913SOL    HW150669   3.655   4.225  12.628 -0.0907  1.8362 -1.0159
46913SOL    HW250670   3.786   4.154  12.600 -0.2560  0.3865  1.5786
46914SOL     OW50671   9.320  10.129   6.598  0.3956 -0.0193  0.4251
46914SOL    HW150672   9.361  10.080   6.669  0.3396 -0.6049  0.0586
46914SOL    HW250673   9.380  10.202   6.582  2.6054 -2.1003 -1.6747
46915SOL     OW50674   6.166   3.748  10.281 -0.7190  0.3171 -0.3118
46915SOL    HW150675   6.249   3.700  10.282 -1.8259 -1.7130 -1.1593
46915SOL    HW250676   6.124   3.724  10.363 -0.6954  0.9887 -0.0938
46916SOL     OW50677  10.388   7.782   0.400  0.3044  0.1460 -0.0820
46916SOL    HW150678  10.340   7.710   0.359 -2.0461  1.6921 -0.2246
46916SOL    HW250679  10.474   7.780   0.358  0.0732 -2.1095 -0.5809
46917SOL     OW50680   9.737  13.173   5.394 -0.0189 -0.6683  0.5055
46917SOL    HW150681   9.652  13.176   5.350 -0.3993  0.0034  1.2516
46917SOL    HW250682   9.724  13.223   5.475  0.3040 -2.8213  1.9873
46918SOL     OW50683   4.939   0.635   7.630 -0.3760 -0.1679  0.5465
46918SOL    HW150684   5.007   0.593   7.575  0.2583 -3.4914  3.4907
46918SOL    HW250685   4.858   0.591   7.604 -0.3578 -0.5021  1.0395
46919SOL     OW50686   0.734  11.709   3.492  0.2692 -0.1888 -0.1544
46919SOL    HW150687   0.706  11.781   3.435  0.7567  1.0134  1.0873
46919SOL    HW250688   0.757  11.751   3.575 -0.7227 -1.9265  1.0629
46920SOL     OW50689  11.565   7.490   1.088 -0.0672 -0.2109 -0.4637
46920SOL    HW150690  11.634   7.511   1.025 -0.8846  0.7024 -1.0902
46920SOL    HW250691  11.590   7.405   1.123  2.5011  0.9943  0.9051
46921SOL     OW50692  13.082   1.316   8.652 -0.0691 -0.2620 -0.0268
46921SOL    HW150693  13.086   1.404   8.613  0.1386 -0.0889  0.3828
46921SOL    HW250694  13.061   1.259   8.578 -1.3599  0.2668 -0.1085
46922SOL     OW50695   8.995   1.759   2.129 -0.2844  0.5836 -0.2079
46922SOL    HW150696   9.048   1.680   2.140 -1.2137 -0.0753 -0.3439
46922SOL    HW250697   9.006   1.783   2.037  0.2352  0.7970 -0.0958
46923SOL     OW50698   0.731  10.500   5.431 -0.1551  0.5860  0.6463
46923SOL    HW150699   0.826  10.491   5.437 -0.1378  0.2438 -0.0709
46923SOL    HW250700   0.698  10.416   5.463 -0.1894  0.3989  0.1247
46924SOL     OW50701  11.056   9.003   6.975 -0.0177  0.1749 -0.4536
46924SOL    HW150702  11.121   9.066   6.943  0.8426 -0.0281  0.7960
46924SOL    HW250703  11.091   8.917   6.951  0.5214  0.0333  0.7219
46925SOL     OW50704  12.993   0.917   2.193 -0.0431 -0.2395  0.5707
46925SOL    HW150705  13.004   0.822   2.187  0.0157 -0.2535  0.8973
46925SOL    HW250706  12.901   0.930   2.215  0.2099 -0.2675  1.6802
46926SOL     OW50707   7.030   8.607  12.833 -0.2337 -0.2542 -0.6885
46926SOL    HW150708   7.081   8.677  12.792  3.8320 -1.1410  2.1316
46926SOL    HW250709   6.961   8.651  12.880  0.6419  1.6121 -1.0699
46927SOL     OW50710   9.237   0.820  11.459 -0.5381 -0.0360  0.2191
46927SOL    HW150711   9.263   0.911  11.476 -1.5669  0.5176 -0.9971
46927SOL    HW250712   9.196   0.823  11.373  0.6102 -1.9138 -0.4503
46928SOL     OW50713  11.145  10.392   7.951  0.2403  0.1870 -0.5341
46928SOL    HW150714  11.219  10.452   7.939  1.3063 -0.7723  0.8818
46928SOL    HW250715  11.083  10.440   8.006  1.0947  0.0218  0.6100
46929SOL     OW50716   4.513  10.109   7.575 -0.0122 -0.0822  0.2233
46929SOL    HW150717   4.475  10.105   7.487 -1.1172  1.7158  0.5600
46929SOL    HW250718   4.585  10.171   7.568 -0.1121  0.0804  0.5751
46930SOL     OW50719   8.828  12.798   6.451  0.4411  0.3241 -0.1869
46930SOL    HW150720   8.751  12.772   6.500  0.2431  0.7384 -0.2729
46930SOL    HW250721   8.873  12.861   6.507 -1.1602  2.8489 -1.5404
46931SOL     OW50722   6.465   6.691   8.923 -0.5064  0.1187  0.1329
46931SOL    HW150723   6.475   6.673   8.829 -0.9075 -0.7754  0.2471
46931SOL    HW250724   6.547   6.734   8.948 -0.3719  0.3152 -0.6165
46932SOL     OW50725   3.578   7.299   3.979  0.0488 -0.0833 -0.0289
46932SOL    HW150726   3.547   7.305   3.889  1.4258  1.0161 -0.4791
46932SOL    HW250727   3.542   7.216   4.012 -1.3975  0.0399 -1.1999
46933SOL     OW50728  10.125   3.202   5.775  0.3488 -0.1142 -0.0765
46933SOL    HW150729  10.195   3.262   5.749  1.0995 -0.3732  1.2220
46933SOL    HW250730  10.067   3.257   5.828 -0.0721 -0.0589 -0.5937
46934SOL     OW50731  12.086   2.043   4.468 -0.0032 -0.1887 -0.2167
46934SOL    HW150732  12.175   2.006   4.470  0.3055  0.5770  1.3074
46934SOL    HW250733  12.094   2.120   4.412  0.1853 -0.3723 -0.4467
46935SOL     OW50734   9.890  10.843   3.502  0.0100 -0.2003 -0.0937
46935SOL    HW150735   9.864  10.905   3.571 -0.2459  1.9759 -2.0397
46935SOL    HW250736   9.983  10.830   3.515 -0.0991 -0.1175  0.8730
46936SOL     OW50737   8.370   5.498   0.167  0.3207  0.0723  0.4089
46936SOL    HW150738   8.435   5.539   0.225  2.5511 -0.6119 -1.4711
46936SOL    HW250739   8.418   5.428   0.123 -1.3684  0.3299 -2.0014
46937SOL     OW50740  12.282   8.645   4.719 -0.4650 -0.3988  0.4737
46937SOL    HW150741  12.218   8.716   4.724 -1.7221 -1.4449 -0.2876
46937SOL    HW250742  12.354   8.682   4.668 -0.0570  1.0586  2.0232
46938SOL     OW50743   4.875   2.992   0.293 -0.0349  0.1568  0.3757
46938SOL    HW150744   4.918   3.050   0.355 -0.7402 -0.5647  1.5701
46938SOL    HW250745   4.933   2.917   0.284 -0.1204  0.0768  0.4819
46939SOL     OW50746  11.026   3.535   8.936  0.5055  0.0497  0.6088
46939SOL    HW150747  10.988   3.620   8.959 -0.6825  0.4800 -2.5051
46939SOL    HW250748  11.118   3.555   8.916  1.0231  0.0075  2.7319
46940SOL     OW50749  10.420   8.220   7.167  0.1872 -0.1067  0.1719
46940SOL    HW150750  10.441   8.128   7.178  1.1553  0.0415 -0.3078
46940SOL    HW250751  10.484   8.252   7.103 -1.7101  0.3101 -1.6421
46941SOL     OW50752   1.843   3.535   0.394 -0.5662 -0.6062 -0.0041
46941SOL    HW150753   1.921   3.562   0.442 -2.3128  0.5848  2.3819
46941SOL    HW250754   1.804   3.617   0.364 -1.4181 -1.1075 -0.2993
46942SOL     OW50755  13.122   0.631   8.781  0.4981  0.2094 -0.6029
46942SOL    HW150756  13.093   0.654   8.869 -0.7091  1.1171 -1.2116
46942SOL    HW250757  13.090   0.702   8.725  2.2993  0.2907 -1.6086
46943SOL     OW50758   5.966   3.582  10.408  0.2567 -0.4739  0.4000
46943SOL    HW150759   5.990   3.571  10.500  1.2769 -1.3758  0.0522
46943SOL    HW250760   5.943   3.494  10.378 -0.6798 -0.0934 -0.0653
46944SOL     OW50761   4.807   2.302   1.887  0.4077  0.3473 -0.0575
46944SOL    HW150762   4.891   2.295   1.932  1.0324  1.1621 -1.0634
46944SOL    HW250763   4.825   2.280   1.796 -0.3806  0.9110 -0.3693
46945SOL     OW50764   9.370   2.662   0.672  0.1005 -0.0967 -0.1056
46945SOL    HW150765   9.393   2.736   0.729  0.7396 -0.5964  0.2998
46945SOL    HW250766   9.437   2.597   0.690 -0.1768 -0.5867 -0.8286
46946SOL     OW50767   5.228   2.173   6.718  0.6102  0.1245 -0.4474
46946SOL    HW150768   5.195   2.096   6.763  0.3981 -0.7723 -2.0610
46946SOL    HW250769   5.283   2.217   6.782 -0.0867 -0.8126  0.8251
46947SOL     OW50770   0.971   7.774   9.084  0.2528 -0.6926  0.3492
46947SOL    HW150771   1.027   7.697   9.080  0.2065 -0.7484  0.7642
46947SOL    HW250772   1.028   7.846   9.054  0.8276 -0.5934  1.6265
46948SOL     OW50773   4.110   4.789   3.387 -0.1502  0.1418  0.2721
46948SOL    HW150774   4.182   4.811   3.328 -1.1799 -0.1885 -1.1548
46948SOL    HW250775   4.143   4.715   3.438  0.5862  0.1228 -0.2121
46949SOL     OW50776   5.931  10.484   0.380  0.3368 -0.1205  0.1309
46949SOL    HW150777   5.957  10.392   0.385  2.2297  0.3162 -1.0116
46949SOL    HW250778   5.950  10.510   0.290 -0.7139  1.2603  0.2713
46950SOL     OW50779   5.140  11.777   9.744 -0.1313 -0.2673  0.1030
46950SOL    HW150780   5.223  11.734   9.728  0.2326  0.0260  1.1428
46950SOL    HW250781   5.083  11.708   9.778 -0.0473 -0.2710  0.2331
46951SOL     OW50782  10.173   5.088   0.880 -0.0981  0.4668  0.1563
46951SOL    HW150783  10.197   5.001   0.911 -3.3101 -1.0886 -1.2381
46951SOL    HW250784  10.213   5.148   0.943 -0.3246 -2.1593  3.0401
46952SOL     OW50785   7.125   0.839   3.307 -0.0332 -0.3812  0.2024
46952SOL    HW150786   7.113   0.933   3.296 -1.4956 -0.4576  0.9235
46952SOL    HW250787   7.088   0.820   3.393 -0.2204 -1.6997 -0.1448
46953SOL     OW50788   1.191   9.101   6.043 -0.8011  0.0507  0.3099
46953SOL    HW150789   1.256   9.144   6.098 -0.2671 -1.5508  0.9921
46953SOL    HW250790   1.181   9.159   5.967  2.0986 -0.0660 -0.2609
46954SOL     OW50791  11.682   6.816   4.359 -0.1284 -0.7266  0.1554
46954SOL    HW150792  11.612   6.856   4.308 -0.3333 -0.2693  0.7719
46954SOL    HW250793  11.679   6.723   4.336 -0.3001 -0.5489 -0.5499
46955SOL     OW50794   7.958   8.069   6.258 -0.2605  0.0864 -0.1886
46955SOL    HW150795   7.947   8.038   6.348  1.1231 -1.3601 -0.4654
46955SOL    HW250796   7.911   8.005   6.205  0.6082 -0.2214 -0.6123
46956SOL     OW50797   5.968   4.400   1.022 -0.6224  0.1970  0.2165
46956SOL    HW150798   6.059   4.370   1.012 -0.1910  1.8674 -1.2384
46956SOL    HW250799   5.942   4.366   1.107  0.8008 -1.7363 -0.0336
46957SOL     OW50800   1.001  12.178   0.701  0.2915  0.2250  0.2906
46957SOL    HW150801   0.923  12.193   0.647  0.2969  0.5370  0.3700
46957SOL    HW250802   0.988  12.089   0.736  0.9216 -0.5078 -1.2592
46958SOL     OW50803   4.425   1.176   4.457  0.3682  0.5566  0.3751
46958SOL    HW150804   4.438   1.123   4.379  0.4362  0.7360  0.2631
46958SOL    HW250805   4.513   1.188   4.493  0.4738  1.3767 -0.1213
46959SOL     OW50806   8.076   7.550   7.015 -0.2540  0.2462 -0.6300
46959SOL    HW150807   8.002   7.592   7.059 -0.4102  0.4149 -1.0573
46959SOL    HW250808   8.119   7.500   7.085 -0.3637  0.7034 -0.2318
46960SOL     OW50809   9.000   6.328   7.164  0.6683  0.7307  0.0085
46960SOL    HW150810   8.962   6.398   7.111 -0.1634 -0.4194 -0.9629
46960SOL    HW250811   8.928   6.298   7.219  0.3046 -0.9608 -1.3061
46961SOL     OW50812  10.329   7.313   0.208 -0.5154 -0.0710 -0.3008
46961SOL    HW150813  10.408   7.275   0.170  0.7622  0.3718  1.7536
46961SOL    HW250814  10.287   7.241   0.255  0.3576  0.3605  1.1829
46962SOL     OW50815   0.706   6.112   7.094 -0.1400  0.0876 -0.3145
46962SOL    HW150816   0.697   6.033   7.148  1.2865 -0.7628 -1.2578
46962SOL    HW250817   0.619   6.151   7.095 -0.5124 -0.6649  1.4137
46963SOL     OW50818   4.199   0.599   5.051 -0.4452  0.0470  0.1752
46963SOL    HW150819   4.136   0.671   5.048  0.6994  1.0886 -2.3533
46963SOL    HW250820   4.232   0.593   4.961  2.3768 -1.0496  1.1749
46964SOL     OW50821   3.494   3.873   7.540 -0.0471 -0.0351 -0.0270
46964SOL    HW150822   3.553   3.946   7.518 -2.3613  1.4720 -1.8013
46964SOL    HW250823   3.416   3.915   7.576 -1.7079 -1.5217 -1.6643
46965SOL     OW50824   3.002   1.866   5.184 -0.2278 -0.3300  0.3458
46965SOL    HW150825   3.050   1.947   5.202  0.4390 -0.6843  0.2167
46965SOL    HW250826   2.956   1.847   5.265 -1.7010  1.0268 -0.1189
46966SOL     OW50827  12.669   0.648   2.463 -0.0517  0.2493  0.1568
46966SOL    HW150828  12.627   0.565   2.482 -0.0335  0.4548  1.1616
46966SOL    HW250829  12.670   0.654   2.367  0.6602 -1.2512  0.0536
46967SOL     OW50830  12.024   9.406   7.228 -0.1423  0.0225 -0.3560
46967SOL    HW150831  11.943   9.437   7.188  0.2077  1.4526  0.0122
46967SOL    HW250832  11.997   9.375   7.314 -0.3588  0.0737 -0.4027
46968SOL     OW50833   1.737   7.391  12.028  0.0691  0.2919  0.8486
46968SOL    HW150834   1.809   7.370  11.969 -1.0145 -0.1458 -0.3522
46968SOL    HW250835   1.779   7.434  12.103  1.4053  1.7009 -0.6291
46969SOL     OW50836   4.915  11.115   1.474  0.1745 -0.1305  0.3520
46969SOL    HW150837   4.916  11.176   1.547  1.0500 -0.0815  0.3133
46969SOL    HW250838   4.834  11.134   1.427  0.3072  0.8137  0.4911
46970SOL     OW50839   3.571  11.244   3.660  0.5177 -0.4643  0.6594
46970SOL    HW150840   3.657  11.226   3.623  0.3744 -1.2972  0.7032
46970SOL    HW250841   3.585  11.242   3.755  0.8682  1.5825  0.6926
46971SOL     OW50842  11.189   6.214   0.075  0.3678  0.1473 -0.0386
46971SOL    HW150843  11.154   6.176  -0.006 -0.1913 -0.3229  0.4251
46971SOL    HW250844  11.247   6.284   0.044 -1.9763  1.8822 -0.8417
46972SOL     OW50845   3.195   0.810   7.247  0.0152  0.2148 -0.3752
46972SOL    HW150846   3.266   0.746   7.238  1.2395  1.7320 -2.3347
46972SOL    HW250847   3.127   0.763   7.295  2.4359 -1.2245  1.9556
46973SOL     OW50848  13.239   6.743   4.711 -0.0613 -0.5134  0.3638
46973SOL    HW150849  13.328   6.733   4.743 -0.4829 -1.1733  1.3925
46973SOL    HW250850  13.190   6.780   4.785 -0.0825  2.7235 -1.0839
46974SOL     OW50851   6.385  11.227   2.319  0.3153  0.3508  0.6776
46974SOL    HW150852   6.437  11.277   2.382 -1.4338  1.9108  0.9688
46974SOL    HW250853   6.403  11.269   2.235  0.4836  0.0719  0.5722
46975SOL     OW50854   3.561   7.188   9.361 -0.1757 -0.1223  0.3120
46975SOL    HW150855   3.577   7.266   9.309 -1.0732  1.4015  2.1973
46975SOL    HW250856   3.479   7.152   9.326  0.3759 -0.3988 -0.7281
46976SOL     OW50857   1.109  11.856   1.552  0.0543 -0.2680 -0.2248
46976SOL    HW150858   1.146  11.941   1.576  1.2658 -0.8808  0.1475
46976SOL    HW250859   1.144  11.795   1.617 -1.2414 -0.9684 -0.1541
46977SOL     OW50860   3.789  11.477   3.984 -0.1796  0.7357 -0.1554
46977SOL    HW150861   3.747  11.393   4.002 -0.4726  0.5753 -1.5358
46977SOL    HW250862   3.724  11.542   4.010 -1.0930  0.4923 -1.7490
46978SOL     OW50863   6.535   3.881   2.113  0.2723  0.4879  0.7797
46978SOL    HW150864   6.555   3.915   2.200 -1.2483  2.9100  0.2690
46978SOL    HW250865   6.614   3.896   2.062  0.7741  0.1076  1.4328
46979SOL     OW50866   3.777   5.672   8.921 -0.0094 -0.3634 -0.3586
46979SOL    HW150867   3.849   5.687   8.859  0.4091 -1.1058 -0.0702
46979SOL    HW250868   3.804   5.718   9.000  0.7506 -1.6434  0.1586
46980SOL     OW50869   0.934   6.395   3.933  0.5855 -0.2722  0.2294
46980SOL    HW150870   0.911   6.307   3.961  0.1061 -0.3239 -0.3227
46980SOL    HW250871   0.855   6.430   3.892  0.7679  0.4171  0.4460
46981SOL     OW50872   5.808   8.593   1.920 -0.5300  0.6534 -0.3129
46981SOL    HW150873   5.718   8.628   1.917  0.0188  2.1026 -2.5245
46981SOL    HW250874   5.797   8.498   1.918 -2.0307  0.7642  1.1473
46982SOL     OW50875   6.099  10.567  12.672  0.3590 -0.2450  0.0995
46982SOL    HW150876   6.068  10.610  12.592 -0.9122 -1.2180  0.0336
46982SOL    HW250877   6.055  10.614  12.743 -0.9966 -1.3626  0.0299
46983SOL     OW50878   2.271   8.699   1.245 -0.2242 -0.2006 -0.2274
46983SOL    HW150879   2.294   8.671   1.156 -0.4496  0.0281 -0.3581
46983SOL    HW250880   2.180   8.727   1.238 -0.1953 -0.0423  0.0440
46984SOL     OW50881   2.935  11.741  10.298  0.2364 -0.5064  0.1842
46984SOL    HW150882   2.970  11.684  10.367  1.2586  0.3787  0.4272
46984SOL    HW250883   3.005  11.805  10.283 -1.1599  1.1625  0.4816
46985SOL     OW50884   8.034   4.594   3.074 -0.2897  0.0499 -0.3846
46985SOL    HW150885   7.991   4.678   3.093  2.9571  2.2026 -1.6400
46985SOL    HW250886   8.071   4.566   3.157 -2.0314 -0.6170  0.2051
46986SOL     OW50887   4.221   7.881  11.517  0.4126  0.4530 -0.4000
46986SOL    HW150888   4.204   7.886  11.611  1.3790 -1.1973 -0.0872
46986SOL    HW250889   4.220   7.971  11.487 -1.1494  0.9349  0.9521
46987SOL     OW50890   7.820  11.435   8.282  0.6720 -0.0245 -0.2348
46987SOL    HW150891   7.814  11.513   8.226  0.1440 -1.0596 -1.6706
46987SOL    HW250892   7.879  11.461   8.353  1.8257  1.1454 -1.5714
46988SOL     OW50893   8.995  12.909  12.644  0.3052 -0.2918 -0.0784
46988SOL    HW150894   9.058  12.923  12.573  0.3810  3.2742  0.5138
46988SOL    HW250895   8.910  12.899  12.599  0.7033 -0.8524 -0.7305
46989SOL     OW50896   2.655   3.979   3.606  0.6536  0.5866 -0.6620
46989SOL    HW150897   2.560   3.987   3.601  0.2176 -2.8226  0.0769
46989SOL    HW250898   2.680   3.938   3.524  1.1430 -0.6610  0.0839
46990SOL     OW50899  12.193   5.206   4.684  0.0040 -0.2206 -0.4809
46990SOL    HW150900  12.272   5.152   4.692 -0.8672 -1.3762  0.9514
46990SOL    HW250901  12.212   5.267   4.613  2.1829 -0.4617 -0.1750
46991SOL     OW50902  12.162   2.873   5.243 -0.0201 -0.0623  0.1039
46991SOL    HW150903  12.067   2.883   5.236 -0.0624 -0.5791 -0.0862
46991SOL    HW250904  12.192   2.958   5.275 -0.5567  0.0707  0.2720
46992SOL     OW50905   5.280  11.855   8.561 -0.3593 -0.2588 -0.0234
46992SOL    HW150906   5.317  11.942   8.545 -0.2658 -0.3728 -0.4410
46992SOL    HW250907   5.267  11.851   8.655 -1.4005  0.6171 -0.1183
46993SOL     OW50908   8.134  12.374  10.206 -0.0667  0.2183 -0.7404
46993SOL    HW150909   8.108  12.294  10.161  0.2329 -0.0101 -0.5164
46993SOL    HW250910   8.085  12.444  10.162  1.6346  0.2611 -2.7377
46994SOL     OW50911   1.515   6.991   9.103  0.4473 -0.3364  0.5318
46994SOL    HW150912   1.477   6.909   9.134  0.3442  0.3903  2.4110
46994SOL    HW250913   1.445   7.032   9.052 -0.0487 -0.6654  0.9346
46995SOL     OW50914   0.162   5.124   6.466  0.3755  0.9670  0.0413
46995SOL    HW150915   0.085   5.075   6.438  0.3621  0.8743  0.2375
46995SOL    HW250916   0.230   5.058   6.480  0.3782  1.0090  0.2353
46996SOL     OW50917   7.714   2.226  10.291 -0.0946 -0.5085 -0.1278
46996SOL    HW150918   7.807   2.205  10.291 -0.0305 -0.2236 -0.3333
46996SOL    HW250919   7.688   2.220  10.383  0.7412  2.1022  0.3711
46997SOL     OW50920  11.030   4.616   3.705 -0.0050  0.0473  0.0704
46997SOL    HW150921  11.114   4.648   3.739  0.6381 -2.1220  0.7087
46997SOL    HW250922  10.965   4.670   3.750  1.0112  1.2305  0.1969
46998SOL     OW50923  10.376   8.954   8.307  0.2170 -0.0229  0.4345
46998SOL    HW150924  10.365   8.890   8.377 -0.1775  0.3028  0.6745
46998SOL    HW250925  10.438   9.018   8.342 -0.5276  0.5343  0.7779
46999SOL     OW50926   5.540   8.893   8.538  0.1506 -0.3557  0.2702
46999SOL    HW150927   5.471   8.886   8.603  0.7988  0.1717  1.0445
46999SOL    HW250928   5.548   8.806   8.499  1.6398 -1.4858  2.8810
47000SOL     OW50929   0.919   2.031  11.944 -0.2154 -0.1369  0.2429
47000SOL    HW150930   0.837   2.080  11.947 -0.7541 -1.0376  0.5825
47000SOL    HW250931   0.962   2.049  12.027  0.7736  1.7064 -0.6082
47001SOL     OW50932  11.798   2.433   6.642  0.1488 -0.3692  0.5075
47001SOL    HW150933  11.730   2.389   6.592  0.9544 -1.3060  0.2102
47001SOL    HW250934  11.761   2.519   6.663 -0.1243  0.1561 -1.8743
47002SOL     OW50935   8.601   6.877   8.632 -0.0859 -0.1474  0.2571
47002SOL    HW150936   8.616   6.911   8.543  0.6072 -1.1113 -0.0148
47002SOL    HW250937   8.689   6.867   8.668 -0.3171 -0.8076  0.6485
47003SOL     OW50938   9.122  11.282  12.438  0.0816  0.1413  0.3867
47003SOL    HW150939   9.056  11.335  12.394  0.3944 -0.3951 -0.7527
47003SOL    HW250940   9.074  11.237  12.507  0.2418  3.8872  3.2548
47004SOL     OW50941   1.750   6.435  11.360  0.1596 -0.0401 -0.2654
47004SOL    HW150942   1.716   6.346  11.363  1.5264 -0.5692 -0.0822
47004SOL    HW250943   1.689   6.486  11.414 -0.6568 -0.8412 -0.4174
47005SOL     OW50944   4.113  11.045   4.660 -0.0090  0.2471  0.0055
47005SOL    HW150945   4.032  11.016   4.618  1.3309 -1.0262 -1.8354
47005SOL    HW250946   4.108  11.010   4.749 -1.6877  0.6427  0.0983
47006SOL     OW50947  12.367  10.188   3.647 -0.1389  0.5423 -0.1842
47006SOL    HW150948  12.447  10.237   3.629 -0.0471  0.4819  0.0572
47006SOL    HW250949  12.379  10.154   3.736 -0.1336 -0.0580 -0.4132
47007SOL     OW50950  10.863   0.626   3.802  1.0607  0.0619  0.0423
47007SOL    HW150951  10.903   0.710   3.781  1.4916 -0.0202  0.5260
47007SOL    HW250952  10.835   0.634   3.893  0.4500 -0.0720 -0.1248
47008SOL     OW50953   2.676  10.560   5.071 -0.1919 -0.0323 -0.4618
47008SOL    HW150954   2.759  10.556   5.119 -1.2155 -2.4883  1.3465
47008SOL    HW250955   2.685  10.492   5.003  0.2950  1.7021 -2.2238
47009SOL     OW50956  10.459  10.888   7.892 -0.0171 -0.3204 -0.2189
47009SOL    HW150957  10.464  10.846   7.806 -0.2584 -0.0157 -0.3841
47009SOL    HW250958  10.511  10.967   7.883 -1.1005  0.3817 -0.4844
47010SOL     OW50959   6.062   1.956   0.682 -0.4162  0.3779 -0.2105
47010SOL    HW150960   6.139   1.913   0.720 -0.4273  0.3137 -0.2613
47010SOL    HW250961   6.098   2.032   0.636 -0.3789  0.3244 -0.2702
47011SOL     OW50962   7.474   0.464   1.143  1.0926  0.7038  0.8914
47011SOL    HW150963   7.554   0.446   1.192  1.1383  0.0904  0.5980
47011SOL    HW250964   7.407   0.412   1.187  1.4960 -1.3670 -0.7997
47012SOL     OW50965   1.545   9.137  12.433 -0.1756  0.0561 -0.0179
47012SOL    HW150966   1.508   9.165  12.517  0.4266  1.7987 -0.2920
47012SOL    HW250967   1.494   9.185  12.367 -0.5209 -1.1577 -0.6634
47013SOL     OW50968  11.738   7.096   3.664  0.2099 -0.0715  0.1181
47013SOL    HW150969  11.705   7.054   3.584 -1.2119 -0.8900  1.0738
47013SOL    HW250970  11.792   7.168   3.633 -0.3454 -0.3397 -1.5821
47014SOL     OW50971   3.131   1.384   0.141 -0.2752 -0.3794  0.6321
47014SOL    HW150972   3.161   1.319   0.077  1.2362  1.8084 -1.0155
47014SOL    HW250973   3.039   1.399   0.119  0.3200  0.6109 -1.3251
47015SOL     OW50974   2.260   1.610   4.364 -0.3563 -0.3310 -0.5300
47015SOL    HW150975   2.317   1.533   4.357 -2.7251 -2.0758 -1.9651
47015SOL    HW250976   2.203   1.591   4.438  0.8589  1.4761  0.9905
47016SOL     OW50977   2.045   3.354   3.824 -0.4323 -0.4441 -0.2365
47016SOL    HW150978   2.013   3.368   3.735 -1.3234 -1.4549 -0.0967
47016SOL    HW250979   2.072   3.262   3.826  2.5424  0.3127 -0.3287
47017SOL     OW50980   7.518   4.727  12.447 -0.0564  0.3670 -0.0426
47017SOL    HW150981   7.551   4.806  12.490  0.4053 -0.4091  1.0790
47017SOL    HW250982   7.424   4.742  12.438  0.1582  1.4501 -0.7668
47018SOL     OW50983   8.773   0.118  12.740 -0.4523  0.0239 -0.1880
47018SOL    HW150984   8.760   0.028  12.710 -0.4432  0.3197 -1.0944
47018SOL    HW250985   8.685   0.151  12.757 -0.3810 -0.8370  2.2755
47019SOL     OW50986   8.522   8.046   6.033 -0.3443 -0.0162 -1.1089
47019SOL    HW150987   8.569   7.983   5.979 -0.2917  0.8018 -2.0408
47019SOL    HW250988   8.520   8.127   5.981 -1.3633  0.4395 -0.4115
47020SOL     OW50989   2.294   0.366   6.579  0.0852  0.4298 -0.3534
47020SOL    HW150990   2.217   0.414   6.547 -0.1970 -0.2886 -0.7798
47020SOL    HW250991   2.257   0.296   6.633  0.5188  1.0594  0.7952
47021SOL     OW50992   8.190   6.118   5.449  0.0853  0.1074  0.1724
47021SOL    HW150993   8.115   6.174   5.431 -0.7380 -1.1238 -0.3644
47021SOL    HW250994   8.193   6.112   5.545 -0.4355  0.2641  0.2029
47022SOL     OW50995   3.651   3.768   2.575 -0.5729 -0.4814  0.4179
47022SOL    HW150996   3.563   3.758   2.612 -1.9094  0.2986 -2.3240
47022SOL    HW250997   3.705   3.706   2.625 -2.9159 -1.8784  1.3770
47023SOL     OW50998   5.790   1.651   9.894  0.4060  0.5025 -0.3470
47023SOL    HW150999   5.853   1.606   9.838 -0.5376 -1.2769 -0.0152
47023SOL    HW251000   5.802   1.612   9.980  0.0380  1.3903  0.1224
47024SOL     OW51001   9.523  10.379   0.120 -0.2757 -0.0723  0.0715
47024SOL    HW151002   9.521  10.308   0.185 -1.9586  0.0263  0.1701
47024SOL    HW251003   9.446  10.364   0.066  0.3714  0.6305 -1.0844
47025SOL     OW51004   1.655   5.291   5.186 -0.6529 -0.2510 -0.4026
47025SOL    HW151005   1.575   5.240   5.173 -1.3341 -0.3412  3.0783
47025SOL    HW251006   1.625   5.382   5.185 -0.6210 -0.2372 -0.1689
47026SOL     OW51007   7.791   9.870   1.103  0.0411 -0.9358  0.1605
47026SOL    HW151008   7.845   9.833   1.173  0.5056 -0.6546 -0.0382
47026SOL    HW251009   7.726   9.923   1.148  2.6549  2.4328  0.3768
47027SOL     OW51010   0.344   8.324   8.138  0.1030 -0.0573  0.0627
47027SOL    HW151011   0.335   8.260   8.208 -0.5116 -0.6866 -0.5740
47027SOL    HW251012   0.295   8.401   8.168 -0.6400 -0.5333  0.0793
47028SOL     OW51013   2.270   7.921   3.995  0.3000 -0.3641  0.5482
47028SOL    HW151014   2.341   7.857   4.000 -0.4033 -1.1275  1.0525
47028SOL    HW251015   2.192   7.869   3.977 -0.2071  0.4093  0.4679
47029SOL     OW51016  11.624   4.510   8.134 -0.0989  0.1158  0.3289
47029SOL    HW151017  11.678   4.584   8.162  1.2261  0.3330 -2.4262
47029SOL    HW251018  11.562   4.547   8.071  0.3088 -1.0098 -0.7863
47030SOL     OW51019  11.941   1.690   5.521 -0.5495  0.2784  0.4700
47030SOL    HW151020  11.897   1.668   5.603  0.4053 -2.7135  0.3024
47030SOL    HW251021  11.963   1.606   5.482  2.2228  1.5867 -1.1434
47031SOL     OW51022  10.571   1.470   8.648  0.5479  0.1370 -0.6006
47031SOL    HW151023  10.648   1.513   8.610  0.1345  1.4780  0.0197
47031SOL    HW251024  10.595   1.378   8.650  1.5591  0.3323 -1.7783
47032SOL     OW51025  10.430   6.145   7.547 -0.3622 -0.0908  0.2864
47032SOL    HW151026  10.436   6.114   7.457 -2.2851 -0.3701  0.2157
47032SOL    HW251027  10.493   6.091   7.595  0.9812  0.3380 -0.9220
47033SOL     OW51028   1.709   7.630   7.985 -0.1180  0.6273 -0.1133
47033SOL    HW151029   1.655   7.709   7.975 -0.6697  0.0804 -1.8743
47033SOL    HW251030   1.652   7.559   7.957  0.5956 -0.3310  0.8064
47034SOL     OW51031   1.383  13.031   6.213 -0.4931  0.0405 -0.2120
47034SOL    HW151032   1.338  13.089   6.152 -1.4331 -0.2060  0.2240
47034SOL    HW251033   1.326  12.954   6.220  1.8041 -2.0763 -2.5791
47035SOL     OW51034   6.426   8.319   6.271  0.2326 -0.1545  0.4478
47035SOL    HW151035   6.392   8.357   6.352 -1.9196  0.5404 -0.7042
47035SOL    HW251036   6.385   8.233   6.265 -0.4078  0.1950 -0.3643
47036SOL     OW51037   2.823  10.729   1.164 -0.1238 -0.1420 -0.0354
47036SOL    HW151038   2.901  10.680   1.190 -1.2941 -0.6841  2.8448
47036SOL    HW251039   2.839  10.818   1.196 -0.6675 -0.2780  0.6484
47037SOL     OW51040  12.281   2.485   7.487 -0.0757  0.1777  0.2467
47037SOL    HW151041  12.259   2.525   7.404 -0.1306  1.8275  1.0226
47037SOL    HW251042  12.275   2.391   7.471 -0.7229  0.4786 -1.4181
47038SOL     OW51043   7.596   1.426   0.142  0.2443  0.2899  0.0502
47038SOL    HW151044   7.596   1.331   0.138  1.5340  0.2585  0.4264
47038SOL    HW251045   7.665   1.453   0.082  0.2738  0.9567  0.3698
47039SOL     OW51046   5.562   4.280   1.274  0.0990  0.0725  0.1917
47039SOL    HW151047   5.607   4.224   1.211 -2.5816  0.3429 -2.1634
47039SOL    HW251048   5.532   4.219   1.343  0.7012 -0.7091 -0.2255
47040SOL     OW51049  11.981   1.038  10.176 -0.2708 -0.0235  1.0060
47040SOL    HW151050  11.975   0.953  10.221 -1.0940 -1.2251 -1.1862
47040SOL    HW251051  12.071   1.041  10.142 -0.5681 -0.6117  0.1090
47041SOL     OW51052  12.210   9.232  11.446  0.0675  0.0320  0.0669
47041SOL    HW151053  12.257   9.206  11.525  0.1324 -0.0180  0.0123
47041SOL    HW251054  12.211   9.327  11.447 -1.2221  0.0608  0.8943
47042SOL     OW51055   6.186  11.303   3.819  0.1582 -0.1682  0.1779
47042SOL    HW151056   6.199  11.383   3.768 -0.6123  0.1185  0.4201
47042SOL    HW251057   6.136  11.245   3.761 -1.7350  0.5887  0.9689
47043SOL     OW51058   7.725   1.581   4.103  0.2938  1.0034 -0.3450
47043SOL    HW151059   7.738   1.611   4.014  2.0959 -0.0734 -0.4857
47043SOL    HW251060   7.693   1.491   4.094  1.7039  0.4358  0.0681
47044SOL     OW51061   3.123  11.008   3.541 -0.5679  0.0198  0.1091
47044SOL    HW151062   3.212  11.016   3.576 -1.5400  0.7546  2.6873
47044SOL    HW251063   3.102  10.915   3.550 -0.7303  0.1605  1.4898
47045SOL     OW51064  11.894  13.018   3.470  0.2473 -0.1943  0.3921
47045SOL    HW151065  11.969  12.962   3.489  0.3827 -0.0671  0.2421
47045SOL    HW251066  11.884  13.073   3.548 -0.3819 -0.9620  0.8671
47046SOL     OW51067   3.022   4.005  12.801 -0.1441 -0.0564 -0.1576
47046SOL    HW151068   2.997   4.096  12.793 -0.9154 -0.2585 -0.0978
47046SOL    HW251069   3.099   3.996  12.745  1.3243  1.1484  1.5619
47047SOL     OW51070   4.260  12.570  11.645 -0.1487  0.3438  0.2021
47047SOL    HW151071   4.182  12.528  11.609  0.0757 -1.4916  1.7083
47047SOL    HW251072   4.327  12.557  11.577 -0.7366  0.5073 -0.4164
47048SOL     OW51073   4.162   2.314   1.281  0.2739  0.1911  0.2788
47048SOL    HW151074   4.154   2.251   1.352  0.5648 -0.7154 -0.4675
47048SOL    HW251075   4.207   2.389   1.320 -3.0639  1.4842  2.1051
47049SOL     OW51076   2.815   7.515   1.653 -0.0378  0.1275 -0.5888
47049SOL    HW151077   2.767   7.497   1.573 -0.9634 -0.5684  0.0983
47049SOL    HW251078   2.906   7.524   1.626 -0.4064  0.4119 -1.7752
47050SOL     OW51079   9.056   8.534  13.098 -0.1551 -0.3410  0.0257
47050SOL    HW151080   9.110   8.455  13.095 -0.5321 -0.5754 -0.6371
47050SOL    HW251081   8.972   8.505  13.133  0.0174 -0.0446  0.7033
47051SOL     OW51082   0.771   8.712   2.739 -0.6883  0.1327  0.5699
47051SOL    HW151083   0.757   8.639   2.799  0.7928  0.5216  1.4504
47051SOL    HW251084   0.779   8.788   2.796 -1.7245  0.9218 -0.3084
47052SOL     OW51085   8.451   6.441   5.427  0.3883 -0.0720  0.1545
47052SOL    HW151086   8.461   6.456   5.521 -0.3265  2.4106 -0.1011
47052SOL    HW251087   8.357   6.456   5.411  0.4813 -0.5824 -0.9417
47053SOL     OW51088   7.957   7.721  12.619  0.4506 -0.3181  0.5313
47053SOL    HW151089   7.900   7.644  12.618  0.7030 -0.5079 -0.4394
47053SOL    HW251090   8.046   7.685  12.625  0.8077 -0.3272 -2.9516
47054SOL     OW51091   7.150   5.335   0.806  0.0010 -0.2379 -0.0230
47054SOL    HW151092   7.185   5.266   0.749  0.1390  0.5255 -0.8889
47054SOL    HW251093   7.226   5.390   0.826  0.2677 -1.2961  2.1352
47055SOL     OW51094   8.348   8.892   9.980 -0.5086 -0.1136  0.1597
47055SOL    HW151095   8.380   8.962  10.037 -0.9372 -0.1444  0.4460
47055SOL    HW251096   8.256   8.916   9.963 -0.6742 -0.6467  0.3128
47056SOL     OW51097   0.207   0.849   8.512 -0.0228 -0.1488  0.0761
47056SOL    HW151098   0.214   0.820   8.602  2.0290 -0.7888 -0.2356
47056SOL    HW251099   0.208   0.769   8.460 -0.0055  0.2582 -0.5737
47057SOL     OW51100   2.224  12.686   8.663  0.1817 -0.2156  0.3372
47057SOL    HW151101   2.242  12.602   8.704 -1.4292 -0.8258 -0.1175
47057SOL    HW251102   2.214  12.666   8.570 -0.6960  0.3853  0.2888
47058SOL     OW51103   4.236  12.425   4.187  0.2639  0.2175  0.0875
47058SOL    HW151104   4.293  12.407   4.112 -1.5984  0.4641 -1.4707
47058SOL    HW251105   4.229  12.341   4.231  0.1329 -0.3419 -0.9562
47059SOL     OW51106  10.493   2.636   1.108 -0.4856  0.0618  0.3975
47059SOL    HW151107  10.513   2.614   1.017 -2.4580 -2.2498  0.4060
47059SOL    HW251108  10.443   2.717   1.103 -2.8700 -1.3525 -0.9603
47060SOL     OW51109   6.981   0.555   8.650  0.2320  0.3225 -0.5029
47060SOL    HW151110   7.025   0.495   8.590  0.7102  0.4326 -0.2735
47060SOL    HW251111   7.004   0.642   8.617 -0.9322  0.3820 -1.1738
47061SOL     OW51112   8.530   7.748  12.905  0.0847  0.5411  0.5294
47061SOL    HW151113   8.481   7.708  12.976  1.1338 -2.9993 -0.5438
47061SOL    HW251114   8.466   7.759  12.835 -0.2038  0.7257  0.8198
47062SOL     OW51115   5.266   9.741   0.820  0.1897 -0.6882 -0.5467
47062SOL    HW151116   5.294   9.678   0.754  0.9809  0.2910 -1.1843
47062SOL    HW251117   5.171   9.744   0.813  0.3216  0.7571 -2.9959
47063SOL     OW51118   4.412   0.213  12.318  0.1074 -0.0144  0.3076
47063SOL    HW151119   4.424   0.122  12.343  1.1538 -0.3251 -1.1222
47063SOL    HW251120   4.501   0.250  12.321 -0.1838  0.7223  0.0999
47064SOL     OW51121   3.937  11.283   0.031 -0.2467 -0.1550 -0.3332
47064SOL    HW151122   3.894  11.307  -0.051  0.8963 -0.1557 -0.9611
47064SOL    HW251123   3.903  11.346   0.095 -1.4597 -0.4128 -0.7024
47065SOL     OW51124  13.315  13.272   2.913 -0.1603 -0.6474 -0.3232
47065SOL    HW151125  13.310  13.187   2.957  0.4478 -1.1984 -1.2594
47065SOL    HW251126  13.364  13.254   2.832  0.4854  0.7145 -0.2645
47066SOL     OW51127  11.980   8.121   1.438  0.2915  0.3331  0.0008
47066SOL    HW151128  11.961   8.039   1.391  1.8761  0.2671 -0.6254
47066SOL    HW251129  11.914   8.182   1.407 -0.0915 -0.3477 -0.5739
47067SOL     OW51130   1.375   2.255  12.985 -0.5028  0.5765  0.0047
47067SOL    HW151131   1.348   2.175  12.939  0.1647 -0.1707  0.8868
47067SOL    HW251132   1.464   2.237  13.014 -0.2326  1.7681 -0.0498
47068SOL     OW51133   4.395   7.383  10.647  0.2549  0.3426 -0.2326
47068SOL    HW151134   4.401   7.462  10.701 -0.4236 -0.9099  1.8303
47068SOL    HW251135   4.450   7.401  10.571 -2.6611  4.1948 -1.7515
47069SOL     OW51136   6.991   4.971  11.262  0.3260 -0.1161  0.0399
47069SOL    HW151137   6.944   5.017  11.192 -2.5820 -1.8680  0.6844
47069SOL    HW251138   6.982   5.027  11.338 -1.3350 -0.6432  0.2865
47070SOL     OW51139   8.984   9.202   2.173 -0.0172  0.3599  0.0217
47070SOL    HW151140   9.038   9.151   2.234 -1.5579  0.5887  1.6691
47070SOL    HW251141   8.950   9.273   2.226 -2.5422 -0.2200 -0.7059
47071SOL     OW51142   5.547   7.168   8.733  0.3637  1.0141  0.1681
47071SOL    HW151143   5.614   7.235   8.750  1.3564 -0.0424  0.4963
47071SOL    HW251144   5.568   7.136   8.645  1.7281 -0.9020  1.1267
47072SOL     OW51145   2.146  12.199   6.802  0.9613  0.1972  0.3927
47072SOL    HW151146   2.123  12.156   6.720 -0.6226 -0.6925  1.2512
47072SOL    HW251147   2.143  12.292   6.782  0.0793  0.0024 -0.4432
47073SOL     OW51148   6.863   0.968   6.069 -0.0257 -0.1821 -0.2631
47073SOL    HW151149   6.837   0.879   6.045  0.6561 -0.7348  0.9488
47073SOL    HW251150   6.901   0.959   6.156  1.0389  1.1395 -0.5608
47074SOL     OW51151   5.512  12.828   2.584 -0.0335  0.5370 -0.4228
47074SOL    HW151152   5.534  12.920   2.567 -1.2587  1.3047  1.7723
47074SOL    HW251153   5.417  12.827   2.594  0.0865 -0.7315  0.8577
47075SOL     OW51154  12.876   4.700   8.420  0.1436  0.2077 -0.5667
47075SOL    HW151155  12.807   4.675   8.482  0.8174  1.5719  0.8151
47075SOL    HW251156  12.835   4.694   8.334 -0.9051 -1.4936  0.0056
47076SOL     OW51157   8.632   4.418  10.876 -1.2027 -0.0274  0.5563
47076SOL    HW151158   8.720   4.441  10.905 -1.3241  0.3311  0.6566
47076SOL    HW251159   8.634   4.427  10.781 -1.3347  0.7388  0.6176
47077SOL     OW51160   0.979  10.745   0.276 -0.1183 -0.4196 -0.0245
47077SOL    HW151161   0.947  10.752   0.366 -1.8459  0.8583 -0.6821
47077SOL    HW251162   1.028  10.662   0.275 -0.9094 -0.9800  1.8185
47078SOL     OW51163  10.938   4.601   0.356  0.3698  0.0156  0.4768
47078SOL    HW151164  10.846   4.585   0.377  0.5773 -3.0389 -0.4410
47078SOL    HW251165  10.942   4.599   0.260  1.2524  1.3305  0.4553
47079SOL     OW51166   9.501   9.511   7.185 -0.1245 -0.6803  0.2900
47079SOL    HW151167   9.491   9.546   7.096  2.6669  1.7463  0.7757
47079SOL    HW251168   9.553   9.432   7.174  0.0693 -0.4820 -0.2425
47080SOL     OW51169   3.827   3.057   1.161 -0.2120 -0.3354 -0.3877
47080SOL    HW151170   3.867   3.022   1.082  1.3971 -0.7561  0.5725
47080SOL    HW251171   3.894   3.112   1.201 -1.1675  0.2774  0.4328
47081SOL     OW51172   1.120   7.402  11.213  0.3786  0.4608  0.0390
47081SOL    HW151173   1.057   7.330  11.219 -0.5027  0.8684 -2.7864
47081SOL    HW251174   1.120   7.442  11.300 -1.3944 -1.0864  0.8085
47082SOL     OW51175   2.116  10.487  12.876 -0.5462 -0.2813  0.8008
47082SOL    HW151176   2.064  10.532  12.942  1.3497  1.3265  1.3190
47082SOL    HW251177   2.207  10.500  12.904  0.1948 -3.1202  0.0715
47083SOL     OW51178  10.184   2.149   7.182  0.0411 -0.1063 -0.1017
47083SOL    HW151179  10.151   2.114   7.265  0.2356 -0.2310 -0.0758
47083SOL    HW251180  10.260   2.201   7.207  2.4938 -3.2106 -0.5186
47084SOL     OW51181   4.594   6.221   2.376  0.0708 -0.5233  0.5850
47084SOL    HW151182   4.637   6.254   2.455  0.3835  3.4558 -0.9996
47084SOL    HW251183   4.508   6.193   2.406  1.2938 -2.3105  2.7641
47085SOL     OW51184   6.789  12.742   4.038 -0.1826 -0.4220  0.8325
47085SOL    HW151185   6.763  12.686   4.110 -0.8773  0.1797  1.0667
47085SOL    HW251186   6.714  12.800   4.024 -1.7694 -2.9643 -2.9363
47086SOL     OW51187   0.319   5.834  12.123  0.5233  0.5658  0.3226
47086SOL    HW151188   0.248   5.778  12.156 -0.6600  0.8602 -1.5467
47086SOL    HW251189   0.393   5.775  12.111 -0.2306 -0.2989 -0.1712
47087SOL     OW51190  10.284   3.057  12.641  0.0477  0.1021  0.2830
47087SOL    HW151191  10.301   3.076  12.734  0.3874 -1.7372  0.6293
47087SOL    HW251192  10.335   2.978  12.623 -1.8158 -0.9107 -0.8394
47088SOL     OW51193   2.629  12.860   9.888 -0.2989 -0.5707  0.1345
47088SOL    HW151194   2.590  12.774   9.872  0.4473 -1.1459  1.3188
47088SOL    HW251195   2.555  12.920   9.882 -1.0397 -1.4247  0.4438
47089SOL     OW51196   5.445  12.375   0.977  0.2226  0.4901  0.2202
47089SOL    HW151197   5.384  12.317   1.024  1.1790  0.5242  1.5772
47089SOL    HW251198   5.520  12.382   1.036  1.3302  0.8477 -1.1944
47090SOL     OW51199   7.814   0.544   2.686  0.2836 -0.2806 -0.3482
47090SOL    HW151200   7.773   0.609   2.628  0.1383 -1.3280 -1.4689
47090SOL    HW251201   7.775   0.561   2.772 -2.7117 -1.2973 -1.3474
47091SOL     OW51202  11.422   1.058   8.258 -0.1499 -0.2849  0.6472
47091SOL    HW151203  11.360   1.039   8.188  2.3718  0.2673 -1.8993
47091SOL    HW251204  11.397   1.146   8.288 -0.0689  0.3303 -0.9958
47092SOL     OW51205   8.172   9.458   7.440  0.0507  0.1473  0.2478
47092SOL    HW151206   8.242   9.408   7.399 -0.3423 -0.9011  0.8245
47092SOL    HW251207   8.111   9.476   7.368  0.0106 -0.5378  0.1027
47093SOL     OW51208  12.987  10.750   8.876  0.1553 -0.0916 -0.0769
47093SOL    HW151209  13.056  10.811   8.851  0.0420 -0.3701 -1.0847
47093SOL    HW251210  12.906  10.793   8.848 -0.1046  0.2303  1.0883
47094SOL     OW51211   2.901   9.755   0.070  0.8193 -0.2508  0.4018
47094SOL    HW151212   2.944   9.835   0.101  2.3484 -0.2083 -1.6480
47094SOL    HW251213   2.824   9.786   0.022  0.3452 -0.1546  1.1916
47095SOL     OW51214  12.748   8.490   8.627 -0.3991 -0.4959  0.3055
47095SOL    HW151215  12.719   8.524   8.543 -0.7022 -2.0446 -0.2480
47095SOL    HW251216  12.678   8.514   8.688 -0.1653  0.6588  0.1454
47096SOL     OW51217  11.352   9.263   5.052  0.0062 -0.1060 -0.7199
47096SOL    HW151218  11.384   9.189   5.104  1.9674 -0.1551 -1.9126
47096SOL    HW251219  11.355   9.337   5.112  1.5432 -0.3007 -0.5199
47097SOL     OW51220   2.262   3.055   6.596 -0.2098 -0.0093 -0.1075
47097SOL    HW151221   2.252   3.039   6.690 -0.6960  0.3085 -0.1011
47097SOL    HW251222   2.177   3.031   6.559 -0.1262  0.1842 -0.4255
47098SOL     OW51223  10.076   0.140   3.087 -0.3305 -0.2442  0.0069
47098SOL    HW151224  10.154   0.093   3.059 -0.2311 -0.6324  0.9231
47098SOL    HW251225  10.103   0.232   3.088 -0.4488 -0.1659 -1.5208
47099SOL     OW51226   3.312   8.367   0.868  1.2695 -0.1758 -0.0993
47099SOL    HW151227   3.292   8.452   0.906  0.8867 -1.0166  1.6838
47099SOL    HW251228   3.229   8.337   0.830  1.1221 -0.2134  0.2453
47100SOL     OW51229   9.745   9.616   3.920  0.0079  0.1524 -0.1668
47100SOL    HW151230   9.709   9.644   3.836  1.2788  1.0229 -0.4399
47100SOL    HW251231   9.709   9.528   3.933 -0.1669 -0.0152 -1.6451
47101SOL     OW51232   1.055  10.475  11.770  0.1085 -0.5010  0.7225
47101SOL    HW151233   0.959  10.483  11.771  0.2116  0.9425  1.2248
47101SOL    HW251234   1.074  10.421  11.693 -0.9659  1.5027 -1.0205
47102SOL     OW51235   1.308   5.947  10.763  0.3227 -0.2362 -0.1133
47102SOL    HW151236   1.291   6.027  10.714 -0.4964 -0.7823 -0.7715
47102SOL    HW251237   1.224   5.925  10.804  0.1620 -1.4407 -1.0174
47103SOL     OW51238   3.105   2.148  12.366 -0.2429  0.4513 -0.5010
47103SOL    HW151239   3.022   2.190  12.387 -0.2532  0.0660  0.2829
47103SOL    HW251240   3.080   2.061  12.334 -0.1698  0.5867 -0.9304
47104SOL     OW51241   7.833  11.533   5.474 -0.5805 -0.2569  0.0799
47104SOL    HW151242   7.769  11.468   5.447 -1.2155  1.1659 -2.0782
47104SOL    HW251243   7.782  11.597   5.524 -0.6485  0.2890 -0.6707
47105SOL     OW51244   2.289  11.758   2.875  0.2028  0.5705 -0.8774
47105SOL    HW151245   2.280  11.844   2.915 -1.8255 -0.0304  0.0802
47105SOL    HW251246   2.272  11.772   2.782  1.5707  1.4255 -1.0361
47106SOL     OW51247   7.650   3.531   5.880 -0.1591  0.9020  0.3628
47106SOL    HW151248   7.598   3.488   5.948  1.6702 -1.4713  0.3976
47106SOL    HW251249   7.603   3.515   5.799 -0.5046  0.5646  0.6280
47107SOL     OW51250   7.334   3.702   3.627  0.1672 -0.5756  0.4604
47107SOL    HW151251   7.353   3.689   3.534 -1.4940 -1.6436  0.2158
47107SOL    HW251252   7.397   3.647   3.672  1.9596  1.0703  0.0878
47108SOL     OW51253   8.576   1.582  11.795 -0.4210 -0.5131 -0.2508
47108SOL    HW151254   8.540   1.662  11.757 -0.5926 -0.0908  0.7681
47108SOL    HW251255   8.667   1.604  11.815  0.0127 -1.1105 -1.4671
47109SOL     OW51256   7.752  11.724   2.906 -0.0784  0.0715 -0.7224
47109SOL    HW151257   7.696  11.665   2.957 -0.1033  1.5008  1.0076
47109SOL    HW251258   7.756  11.685   2.819  0.3760 -2.7953  0.4722
47110SOL     OW51259   8.341   1.032   9.703  0.0684  0.1997 -0.0903
47110SOL    HW151260   8.311   0.941   9.698 -0.6299  0.2584  2.2281
47110SOL    HW251261   8.276   1.080   9.651 -1.5089 -0.2348  1.3856
47111SOL     OW51262   1.977   2.165   1.970 -0.2914 -0.2909  0.0595
47111SOL    HW151263   2.068   2.175   1.944 -0.9237  1.8619 -1.5978
47111SOL    HW251264   1.933   2.131   1.892 -1.1498  0.0895  0.3615
47112SOL     OW51265   3.364   0.282   9.261 -0.1753  0.1014  0.4545
47112SOL    HW151266   3.366   0.314   9.171 -0.7056 -0.8471  0.0912
47112SOL    HW251267   3.346   0.189   9.253  3.8266 -0.9250  1.3307
47113SOL     OW51268   5.097  11.041   7.577 -0.2799  0.9555 -0.0098
47113SOL    HW151269   5.172  11.099   7.591 -1.1104  2.2044 -0.5883
47113SOL    HW251270   5.129  10.975   7.516  0.5075  1.1552  0.1765
47114SOL     OW51271   6.195   6.525   7.073 -0.1676 -0.1744  0.3682
47114SOL    HW151272   6.156   6.611   7.059  0.5313  0.1913  0.6273
47114SOL    HW251273   6.288   6.543   7.088  0.3707 -1.1123 -1.5387
47115SOL     OW51274   1.300  10.197   1.255  0.0364  0.3125 -0.6740
47115SOL    HW151275   1.347  10.129   1.206  0.1390  0.7760 -1.2226
47115SOL    HW251276   1.361  10.225   1.322 -1.1390 -2.5144  1.8383
47116SOL     OW51277   0.896   3.354   2.051  0.5799  0.2762  0.3782
47116SOL    HW151278   0.881   3.293   2.123  1.6963 -1.2264 -0.6098
47116SOL    HW251279   0.992   3.363   2.047  0.7290 -1.4955 -2.3130
47117SOL     OW51280  10.583   2.329   4.112  0.4097 -0.2599  0.0591
47117SOL    HW151281  10.548   2.416   4.132 -0.6500 -0.8719  0.9874
47117SOL    HW251282  10.674   2.345   4.086 -0.2582  1.2933 -1.5164
47118SOL     OW51283   9.268  12.087  11.292  0.3160 -0.0256  0.1120
47118SOL    HW151284   9.260  12.100  11.197 -2.0067 -1.2832  0.0599
47118SOL    HW251285   9.221  12.162  11.330  1.2114  0.4573  0.3071
47119SOL     OW51286   1.814   6.271   1.620 -0.5419 -0.0752 -0.1336
47119SOL    HW151287   1.885   6.311   1.670 -1.6126  2.7244 -0.6734
47119SOL    HW251288   1.837   6.286   1.528 -0.4181 -1.8424 -0.4298
47120SOL     OW51289   9.025   0.390   2.957  0.4162 -0.2770  0.3131
47120SOL    HW151290   9.008   0.308   3.004  0.1934  0.0502  0.8021
47120SOL    HW251291   8.942   0.437   2.960 -0.3162 -1.2034 -2.3544
47121SOL     OW51292   2.781   0.510   8.990 -0.0383 -0.3776 -0.5584
47121SOL    HW151293   2.799   0.427   8.945 -0.6484 -1.2360  0.7240
47121SOL    HW251294   2.774   0.486   9.082 -2.9125  0.6501 -0.4265
47122SOL     OW51295   0.365   3.550   5.759 -0.0158 -0.4728  0.2357
47122SOL    HW151296   0.367   3.629   5.705 -0.0337 -0.4654  0.2459
47122SOL    HW251297   0.288   3.502   5.728 -1.3105  0.5576  1.6992
47123SOL     OW51298  12.715  11.513   0.655  0.6871 -0.0044  0.6517
47123SOL    HW151299  12.640  11.564   0.625  2.0557  1.1629 -0.9722
47123SOL    HW251300  12.719  11.439   0.593  2.4802  1.4632 -1.1055
47124SOL     OW51301  12.004   4.842   5.053  0.1319 -0.0127 -0.4760
47124SOL    HW151302  11.920   4.845   5.098 -0.6219  1.1765 -1.8771
47124SOL    HW251303  12.014   4.751   5.027 -0.6503 -0.1922 -0.1773
47125SOL     OW51304  12.581   5.405  10.191  0.1382  0.6809 -0.2534
47125SOL    HW151305  12.555   5.457  10.116 -0.1529  0.9138  0.0108
47125SOL    HW251306  12.501   5.362  10.221 -0.4150  2.9259  1.7724
47126SOL     OW51307   0.445   3.209   7.708  0.0902  0.2225 -0.1314
47126SOL    HW151308   0.381   3.220   7.638  0.7440  0.1811 -0.7527
47126SOL    HW251309   0.394   3.215   7.788 -0.7840 -0.4712 -0.6189
47127SOL     OW51310   8.797   9.303  11.103  0.0340  0.2447  0.5024
47127SOL    HW151311   8.824   9.327  11.191 -0.1914 -3.7678  1.8745
47127SOL    HW251312   8.701   9.299  11.107  0.0201  0.0826  0.0937
47128SOL     OW51313   8.707  12.066   6.108  0.1639 -0.2048  0.3395
47128SOL    HW151314   8.641  12.010   6.149  2.0311 -2.5818  0.3499
47128SOL    HW251315   8.674  12.080   6.019  0.3970 -2.9035 -0.2630
47129SOL     OW51316  11.149   0.769   8.173 -0.2040  0.0302 -0.9865
47129SOL    HW151317  11.191   0.737   8.253 -0.5011  0.7822 -0.5192
47129SOL    HW251318  11.106   0.692   8.136  2.0392 -0.9348 -1.8020
47130SOL     OW51319  12.125   6.056   6.063  0.0924  0.7473  0.0302
47130SOL    HW151320  12.075   6.019   5.991 -0.9072 -0.1774  1.1641
47130SOL    HW251321  12.113   5.994   6.135  0.7607  1.8256  1.1070
47131SOL     OW51322   2.990   2.228   7.078  0.8987 -0.0023 -0.1928
47131SOL    HW151323   2.903   2.209   7.044  1.1057 -0.2015 -0.6220
47131SOL    HW251324   3.040   2.148   7.063  0.3209 -1.1126  2.9776
47132SOL     OW51325   0.341   0.207  11.623  0.0922  0.2145  0.0965
47132SOL    HW151326   0.382   0.178  11.541 -0.8541  0.5988 -0.5203
47132SOL    HW251327   0.357   0.135  11.683 -1.0225 -1.0215 -1.0284
47133SOL     OW51328   0.913   8.464   2.557  0.4804 -0.1688  0.3258
47133SOL    HW151329   0.982   8.522   2.588  0.4560  0.0189  0.0245
47133SOL    HW251330   0.850   8.522   2.515  0.3366 -0.3868  0.2391
47134SOL     OW51331   2.519   7.530   7.346  0.0688 -0.0863 -0.0095
47134SOL    HW151332   2.540   7.491   7.431  0.4938 -0.7966 -0.4330
47134SOL    HW251333   2.537   7.461   7.282 -0.1613  0.4672 -0.6910
47135SOL     OW51334  11.650   2.481  10.586  0.3485 -0.2630 -0.2334
47135SOL    HW151335  11.698   2.419  10.531  1.6206 -1.0450  1.6739
47135SOL    HW251336  11.710   2.555  10.597  0.4590 -0.4984  0.7978
47136SOL     OW51337   3.393   3.253   5.689  0.0161 -0.0941 -0.0269
47136SOL    HW151338   3.482   3.226   5.711  0.6859  1.0585 -1.1843
47136SOL    HW251339   3.349   3.171   5.667  0.6798 -0.7182  0.8868
47137SOL     OW51340   7.761   4.249   2.042 -0.0361 -0.4367  0.1406
47137SOL    HW151341   7.759   4.270   1.949 -0.8363  3.2235  0.8096
47137SOL    HW251342   7.851   4.223   2.059  1.0567  2.0998 -1.1562
47138SOL     OW51343  11.535   3.246   1.657 -0.3674  0.6148  0.3373
47138SOL    HW151344  11.605   3.184   1.640 -0.6006  0.7095 -1.1170
47138SOL    HW251345  11.569   3.330   1.625 -0.7363  0.8684  0.6039
47139SOL     OW51346   0.914  10.722   3.534  0.0552 -0.5373  0.3142
47139SOL    HW151347   0.976  10.650   3.521 -0.5441 -1.0290  0.1191
47139SOL    HW251348   0.932  10.754   3.622  0.8357 -0.4235  0.1227
47140SOL     OW51349   7.044  11.910   4.912 -0.3188  0.3098  0.1310
47140SOL    HW151350   7.076  11.850   4.980 -2.1710 -0.2040  0.6199
47140SOL    HW251351   7.123  11.952   4.878  0.6838  0.6948  2.6913
47141SOL     OW51352  11.831   1.016   2.587 -0.3853  0.3459  0.2543
47141SOL    HW151353  11.900   1.055   2.534 -1.4457  4.2531  1.4141
47141SOL    HW251354  11.765   0.988   2.523  0.3579  0.6216 -0.6624
47142SOL     OW51355   0.332  10.746   3.930 -0.3495 -0.1012  0.1655
47142SOL    HW151356   0.343  10.652   3.938  0.7145  0.0469  0.6117
47142SOL    HW251357   0.246  10.764   3.968  0.4984 -0.6070  2.4682
47143SOL     OW51358   3.045   8.024   0.878  0.0961  0.1083 -0.2439
47143SOL    HW151359   3.061   8.117   0.892  1.6301 -0.0712 -0.6943
47143SOL    HW251360   3.011   7.993   0.962  2.2927  0.5222  0.8669
47144SOL     OW51361   2.010   1.498  11.980  0.2242  0.1969 -0.6429
47144SOL    HW151362   2.029   1.416  12.026  1.4933  2.0230  2.4281
47144SOL    HW251363   2.075   1.559  12.014 -1.7760  2.9324 -1.4137
47145SOL     OW51364  11.419   3.123   9.967 -0.2229 -0.1294  0.2991
47145SOL    HW151365  11.485   3.091  10.028 -0.1335 -4.0937 -1.5554
47145SOL    HW251366  11.397   3.046   9.914 -5.1524  1.3904 -0.2956
47146SOL     OW51367   9.482   9.944   1.364  0.6992  0.3966 -0.0876
47146SOL    HW151368   9.501  10.032   1.330  1.6790  0.0125 -0.5385
47146SOL    HW251369   9.567   9.903   1.375  0.3394 -0.0134  1.4727
47147SOL     OW51370   8.122   9.550   5.063 -0.1366 -0.5430 -1.2416
47147SOL    HW151371   8.194   9.609   5.042 -1.5763  1.8725  0.2083
47147SOL    HW251372   8.150   9.505   5.143  0.9177 -1.8394 -2.2905
47148SOL     OW51373   4.112   2.695  11.708  0.3326 -0.0491  0.5572
47148SOL    HW151374   4.127   2.635  11.635 -0.6253 -0.2399  0.5016
47148SOL    HW251375   4.197   2.702  11.751  0.7810 -0.3624 -0.2511
47149SOL     OW51376  10.638  10.285   9.256  0.4417  0.2332  0.2620
47149SOL    HW151377  10.548  10.314   9.273  0.5530 -0.7576  2.9751
47149SOL    HW251378  10.688  10.366   9.248 -0.0829  0.8541  2.6843
47150SOL     OW51379   5.636   8.822  10.265  0.4030  0.1117 -0.5356
47150SOL    HW151380   5.625   8.737  10.223 -0.3595 -0.6459  1.1003
47150SOL    HW251381   5.552   8.866  10.254  0.8195  0.7239 -1.4486
47151SOL     OW51382   2.461   3.088   3.927 -0.2857 -0.4078 -0.6221
47151SOL    HW151383   2.491   3.074   4.017 -0.6118 -1.0182 -0.6040
47151SOL    HW251384   2.419   3.006   3.903 -0.6548 -0.0690 -1.1561
47152SOL     OW51385   1.253   7.855   1.124 -0.1635  0.4377 -0.0805
47152SOL    HW151386   1.249   7.764   1.094  2.2509 -0.0724  0.8695
47152SOL    HW251387   1.205   7.855   1.207 -3.6380  1.0278 -1.9278
47153SOL     OW51388   6.171   1.686   6.210  0.3187 -0.7072  0.1409
47153SOL    HW151389   6.191   1.768   6.255 -0.5161 -0.5299  0.2125
47153SOL    HW251390   6.081   1.697   6.178  0.7729 -0.9374 -1.3242
47154SOL     OW51391   5.332   2.043  10.639 -0.1684 -0.0379  0.7582
47154SOL    HW151392   5.418   2.002  10.640 -0.7454 -1.2809  1.5749
47154SOL    HW251393   5.291   2.011  10.559  1.0191  2.5918 -1.0291
47155SOL     OW51394   9.688   9.362  12.790  0.1127  0.3650 -0.3808
47155SOL    HW151395   9.639   9.354  12.871  1.2419  1.4660  0.4556
47155SOL    HW251396   9.780   9.370  12.817  0.4948  1.0597 -1.7246
47156SOL     OW51397   9.631  10.428   6.822  0.0326  0.3132 -0.6226
47156SOL    HW151398   9.695  10.496   6.846 -0.0180 -0.8329  3.6112
47156SOL    HW251399   9.670  10.383   6.747  1.2793  3.2792 -1.9067
47157SOL     OW51400   0.835   5.534  13.208  0.2899  0.2764 -0.2700
47157SOL    HW151401   0.835   5.547  13.302  2.8012  1.4515 -0.3522
47157SOL    HW251402   0.758   5.582  13.177  0.7832  2.0005  0.9872
47158SOL     OW51403   5.534   6.219  12.040 -0.0998  0.2001 -0.0311
47158SOL    HW151404   5.504   6.160  11.970  0.7207  1.2255 -1.2818
47158SOL    HW251405   5.524   6.307  12.003 -0.9678  0.8619  1.6796
47159SOL     OW51406   8.945   7.489   2.314  0.1501 -0.2819 -0.2950
47159SOL    HW151407   8.886   7.433   2.364 -1.8015  1.7689 -0.1602
47159SOL    HW251408   9.025   7.437   2.304 -0.6171 -2.0597  1.9936
47160SOL     OW51409   4.519  13.164   8.198 -0.9212 -0.1235 -0.2556
47160SOL    HW151410   4.574  13.206   8.133  1.0046 -0.3154  1.1342
47160SOL    HW251411   4.535  13.070   8.186 -1.1919 -0.1966 -0.0613
47161SOL     OW51412   4.265   2.376   5.593  0.0538  0.3607 -0.3171
47161SOL    HW151413   4.227   2.288   5.593  2.5734 -0.8314 -1.6612
47161SOL    HW251414   4.205   2.428   5.647 -1.1825 -2.3049  1.0777
47162SOL     OW51415   6.119   7.574   6.572  1.2983  0.6469  0.2192
47162SOL    HW151416   6.198   7.597   6.621  1.7210  0.5141 -0.3861
47162SOL    HW251417   6.093   7.488   6.607  0.1570  1.6262  1.9440
47163SOL     OW51418   4.410   0.861   1.660  0.4111 -0.7354  0.7353
47163SOL    HW151419   4.456   0.848   1.577  2.7167 -3.2139  2.2317
47163SOL    HW251420   4.439   0.947   1.690 -1.1346  0.6095 -1.2901
47164SOL     OW51421  12.527   3.499   0.982 -0.0530 -0.4360  0.0260
47164SOL    HW151422  12.441   3.473   0.948 -0.9069  0.3171  1.5242
47164SOL    HW251423  12.570   3.541   0.907 -0.9689 -0.8363 -0.7531
47165SOL     OW51424   0.089   6.069   5.894  0.4463  0.1885 -0.1681
47165SOL    HW151425   0.137   6.138   5.940  1.8882 -1.7294  1.3824
47165SOL    HW251426   0.016   6.049   5.952 -0.2764  0.7456 -0.8704
47166SOL     OW51427  11.580   1.506   0.245 -0.1264 -0.0685  0.1684
47166SOL    HW151428  11.640   1.532   0.175  0.7349 -1.3462  0.3888
47166SOL    HW251429  11.597   1.412   0.256 -3.0582 -0.7754 -0.6195
47167SOL     OW51430   1.067   3.594   9.528 -0.0199 -0.3871  0.2184
47167SOL    HW151431   1.030   3.522   9.477  1.8359 -0.9583 -0.4031
47167SOL    HW251432   1.161   3.575   9.532  0.0247 -0.0129  3.3029
47168SOL     OW51433   9.426  12.263   6.049 -0.5322 -0.2126  0.1718
47168SOL    HW151434   9.495  12.197   6.056  0.4435  0.8659  1.2198
47168SOL    HW251435   9.404  12.284   6.140 -0.9052  0.8299 -0.1498
47169SOL     OW51436  13.006   4.219   4.132 -0.3427  0.0764  0.1607
47169SOL    HW151437  13.018   4.219   4.227 -0.9646 -0.2108  0.2448
47169SOL    HW251438  13.071   4.157   4.100  0.3397  0.6905  0.3280
47170SOL     OW51439   5.032   2.258   5.383  0.5238  0.1059 -0.3012
47170SOL    HW151440   5.088   2.243   5.460  1.8260  0.1641 -1.2060
47170SOL    HW251441   4.972   2.327   5.411 -0.1470 -1.0222  1.2066
47171SOL     OW51442   6.781  12.943   6.373 -0.1242  0.2632  0.2274
47171SOL    HW151443   6.867  12.963   6.412  0.1673 -0.0124 -0.2710
47171SOL    HW251444   6.766  12.851   6.395 -0.9261  0.6602  1.4907
47172SOL     OW51445   3.126  10.926   7.283  0.3425  0.4931  0.2956
47172SOL    HW151446   3.056  10.936   7.218  0.0550 -2.3114  0.0330
47172SOL    HW251447   3.082  10.935   7.367 -0.3508 -0.8901  0.1227
47173SOL     OW51448  10.201   9.821   0.349 -0.1207  0.4797  0.2267
47173SOL    HW151449  10.275   9.876   0.321  0.5249 -0.4011  0.1668
47173SOL    HW251450  10.201   9.828   0.444 -0.1680  0.7414  0.2092
47174SOL     OW51451   0.548   9.949   8.286 -0.5306  0.1976 -0.4598
47174SOL    HW151452   0.509   9.864   8.309  1.0862 -0.5271 -0.2897
47174SOL    HW251453   0.557   9.995   8.369  1.4679 -0.7537 -0.0959
47175SOL     OW51454   0.446   2.963  13.160  0.3311 -0.2222 -0.5165
47175SOL    HW151455   0.459   3.039  13.104  1.4394 -0.6259 -0.8396
47175SOL    HW251456   0.409   2.897  13.101  2.0346 -0.8357 -0.9661
47176SOL     OW51457   2.446  12.289   1.933  0.0878  0.3041 -0.0195
47176SOL    HW151458   2.360  12.272   1.970 -1.1884  1.5974 -2.1944
47176SOL    HW251459   2.475  12.370   1.976 -0.1904  0.3721  0.0403
47177SOL     OW51460   2.355   9.270  10.916  0.4133 -0.2929  0.0129
47177SOL    HW151461   2.443   9.262  10.880  1.0905  0.0653  1.5200
47177SOL    HW251462   2.318   9.347  10.873  0.3842 -1.0907 -1.4635
47178SOL     OW51463   9.162   8.080  11.837 -0.0063 -0.4082 -0.4918
47178SOL    HW151464   9.234   8.080  11.775  0.4109 -0.9640 -0.0297
47178SOL    HW251465   9.158   7.989  11.868  1.3603  0.2806  2.0435
47179SOL     OW51466   4.676  11.458   4.470 -0.6890  0.5206  0.0992
47179SOL    HW151467   4.697  11.551   4.460  0.5932  0.1942 -0.4545
47179SOL    HW251468   4.760  11.416   4.483 -1.0228 -0.7926 -1.5536
47180SOL     OW51469   0.120   6.854   9.794  0.3882 -0.2499 -0.7603
47180SOL    HW151470   0.156   6.797   9.725 -0.1299 -0.5520 -0.7917
47180SOL    HW251471   0.188   6.919   9.810  0.4499 -0.0762 -1.6773
47181SOL     OW51472   8.046   6.526   0.232  0.2577  0.1755 -0.1923
47181SOL    HW151473   8.023   6.593   0.296 -0.1852 -1.9686  2.0018
47181SOL    HW251474   8.126   6.486   0.267  0.0555 -1.0081 -1.0328
47182SOL     OW51475   6.009   3.765   2.132  0.6643  0.3799  0.0275
47182SOL    HW151476   6.094   3.792   2.095  0.3493 -1.6054 -2.3956
47182SOL    HW251477   6.032   3.716   2.211  1.7382  0.5239 -0.1730
47183SOL     OW51478   0.608  13.185   6.851 -0.3505 -0.0767 -0.1184
47183SOL    HW151479   0.646  13.124   6.914  0.3042  1.8647  1.4753
47183SOL    HW251480   0.513  13.176   6.862 -0.2417  0.1879  1.1190
47184SOL     OW51481   5.994   7.277  12.238  0.1163 -0.3134 -0.0488
47184SOL    HW151482   6.007   7.183  12.229 -0.5916 -0.5137  0.8717
47184SOL    HW251483   6.083   7.314  12.239  0.3912 -0.7317 -2.3807
47185SOL     OW51484   9.741  11.604   2.743  0.7625  0.1598 -0.0122
47185SOL    HW151485   9.670  11.638   2.798  0.0909 -2.6220  0.9863
47185SOL    HW251486   9.723  11.642   2.656 -2.6251 -1.1863 -0.0619
47186SOL     OW51487   6.410   6.874   6.275  0.2674  0.8737  0.1812
47186SOL    HW151488   6.466   6.815   6.225 -0.7120 -0.7419  0.9184
47186SOL    HW251489   6.365   6.927   6.209 -0.2101 -0.4786 -0.6039
47187SOL     OW51490  10.968  10.683   0.575  0.5938 -0.6841 -0.5309
47187SOL    HW151491  11.054  10.643   0.584  0.7563  0.1242  2.9653
47187SOL    HW251492  10.986  10.773   0.546  0.9519 -0.5606  0.0530
47188SOL     OW51493   5.167   0.218   8.169  0.7501 -0.0355  0.5939
47188SOL    HW151494   5.113   0.276   8.116  2.5235  3.2137  2.0740
47188SOL    HW251495   5.174   0.138   8.117 -0.9390  1.4366 -2.1288
47189SOL     OW51496   4.867   5.682   0.675  0.1003 -0.0162  0.2536
47189SOL    HW151497   4.930   5.713   0.610 -0.8037 -0.0436 -0.6621
47189SOL    HW251498   4.879   5.587   0.677 -0.0091 -0.0370 -0.0341
47190SOL     OW51499   2.263   7.450   1.043 -0.3031  0.1258 -0.2503
47190SOL    HW151500   2.298   7.371   1.002 -0.2937 -0.5618  1.0334
47190SOL    HW251501   2.277   7.437   1.136 -0.6371  1.4947  0.0154
47191SOL     OW51502   7.237  10.398   9.644 -0.3135  0.2715  0.3585
47191SOL    HW151503   7.296  10.461   9.683  0.3519 -0.5175  0.6594
47191SOL    HW251504   7.162  10.395   9.703  0.0419  0.1446  0.8064
47192SOL     OW51505   0.692   9.069   3.800 -0.1350  0.6703 -0.0807
47192SOL    HW151506   0.671   8.977   3.783 -2.0221  1.4366 -2.5766
47192SOL    HW251507   0.675   9.081   3.893 -0.1936 -1.4034  0.2198
47193SOL     OW51508   4.092  12.848   0.105  0.3287  0.1048 -0.1014
47193SOL    HW151509   4.054  12.894   0.030 -1.8908  0.1808  0.9836
47193SOL    HW251510   4.043  12.882   0.180  0.4525 -2.0883  1.0303
47194SOL     OW51511   5.283  11.039  11.584  0.6596 -0.0584  0.4512
47194SOL    HW151512   5.259  10.968  11.644  0.7983 -0.2171  0.3228
47194SOL    HW251513   5.209  11.099  11.586  0.7118 -0.0064  0.8661
47195SOL     OW51514   3.512   6.031   3.008 -0.0824  0.2707 -0.4583
47195SOL    HW151515   3.582   6.022   3.073 -0.2239 -1.5260 -0.5217
47195SOL    HW251516   3.450   6.092   3.048  0.3164 -0.0533  0.6803
47196SOL     OW51517   5.346   9.907   3.332  0.3568  0.0966 -0.2942
47196SOL    HW151518   5.399   9.986   3.329 -0.2771  0.5104 -1.2085
47196SOL    HW251519   5.256   9.939   3.334  0.1184 -0.5803  1.7325
47197SOL     OW51520   6.653   9.696   8.360  0.4847  0.0788  0.0469
47197SOL    HW151521   6.652   9.602   8.342  1.0345  0.1922 -0.6217
47197SOL    HW251522   6.664   9.737   8.274 -1.6333  0.8503  0.0924
47198SOL     OW51523   6.469   3.397   9.565  0.0237  0.0929  0.0499
47198SOL    HW151524   6.549   3.356   9.598 -0.0067  0.2659  0.3474
47198SOL    HW251525   6.432   3.332   9.506 -0.1897 -0.4474  0.7558
47199SOL     OW51526   6.171   2.033  12.401  0.4930 -0.3625  0.1559
47199SOL    HW151527   6.215   1.959  12.442  0.0742 -1.0942 -0.6693
47199SOL    HW251528   6.161   2.007  12.309 -0.7352  0.1935  0.1051
47200SOL     OW51529   2.514   5.354   0.399  0.2725  0.6249 -0.6425
47200SOL    HW151530   2.557   5.440   0.390  0.5796  0.4558 -0.8290
47200SOL    HW251531   2.420   5.374   0.391  0.1567  1.2469  1.6748
47201SOL     OW51532   4.333   6.732  10.139 -0.3079  0.2167 -0.2071
47201SOL    HW151533   4.255   6.763  10.186  0.0575  0.8355  0.0098
47201SOL    HW251534   4.392   6.703  10.209 -0.3665 -0.3064 -0.3749
47202SOL     OW51535   2.109   8.169   6.175 -0.1917 -0.4955 -0.0622
47202SOL    HW151536   2.056   8.092   6.158  0.7058 -0.9980 -0.6798
47202SOL    HW251537   2.137   8.199   6.089  1.1160 -0.6896  0.2636
47203SOL     OW51538   4.964   0.148   6.525  0.5598 -0.2587  0.6615
47203SOL    HW151539   4.957   0.116   6.435 -0.7335 -1.3441  1.1287
47203SOL    HW251540   5.057   0.142   6.545  0.7480 -0.8267 -0.3133
47204SOL     OW51541  11.279   0.717   4.983 -0.1546  0.5047  0.0045
47204SOL    HW151542  11.184   0.733   4.977 -0.3003 -0.1558  0.4668
47204SOL    HW251543  11.308   0.774   5.055 -0.6319 -1.0531  1.4855
47205SOL     OW51544   9.421   6.038   5.398  0.0148  0.4354 -0.6083
47205SOL    HW151545   9.400   6.062   5.488  0.3508 -0.3532 -0.3125
47205SOL    HW251546   9.351   5.977   5.373 -0.0263  0.5813 -0.8490
47206SOL     OW51547   2.413   6.461   4.022 -0.0770 -0.3090  0.1095
47206SOL    HW151548   2.432   6.372   4.051  0.6814 -0.8439 -1.8621
47206SOL    HW251549   2.498   6.505   4.021 -0.2214 -0.0322 -0.3763
47207SOL     OW51550   0.807   7.732   3.664 -0.0882 -0.1856 -0.5121
47207SOL    HW151551   0.900   7.749   3.655 -0.1540  0.4363 -0.0111
47207SOL    HW251552   0.786   7.754   3.755 -0.7566 -0.1587 -0.6649
47208SOL     OW51553   0.465   9.210   9.164 -0.1704  0.8517  0.2607
47208SOL    HW151554   0.528   9.167   9.107 -1.8563 -0.6151 -0.5648
47208SOL    HW251555   0.429   9.281   9.111 -1.5992 -0.3934 -0.4822
47209SOL     OW51556   3.257   6.132   5.069 -0.2088 -0.2130  0.5095
47209SOL    HW151557   3.340   6.140   5.118  0.4419  0.0868 -0.6132
47209SOL    HW251558   3.241   6.219   5.035 -0.9789 -0.2823  0.6796
47210SOL     OW51559   3.288   1.623   3.962 -0.1205  0.5741  0.2390
47210SOL    HW151560   3.315   1.572   4.039 -2.0664  0.8204  1.1383
47210SOL    HW251561   3.359   1.610   3.899  2.2010  1.3820  2.4893
47211SOL     OW51562  10.110   5.188   3.617  0.1250  0.2790  0.3635
47211SOL    HW151563  10.050   5.114   3.623  0.9814 -1.0490 -4.0928
47211SOL    HW251564  10.054   5.263   3.599 -0.4360 -0.2440 -0.1051
47212SOL     OW51565   6.081   1.438  12.851 -0.0465  0.4487 -0.6137
47212SOL    HW151566   6.016   1.483  12.906  0.5451 -1.5213  1.8555
47212SOL    HW251567   6.033   1.364  12.814  0.4404 -0.3254  0.2601
47213SOL     OW51568   1.093  12.769  11.919 -0.0772  0.2141 -0.0811
47213SOL    HW151569   1.175  12.726  11.943 -0.5593  0.1984  1.6779
47213SOL    HW251570   1.098  12.855  11.960 -0.6461  0.4687 -0.5462
47214SOL     OW51571   8.088  13.200   2.414 -0.3123  0.3900  0.8460
47214SOL    HW151572   8.181  13.203   2.437  0.0969  1.4106 -0.7861
47214SOL    HW251573   8.043  13.189   2.498  1.2801 -0.4732  1.6339
47215SOL     OW51574   8.037   2.893  11.356 -0.2513 -0.2567  0.2633
47215SOL    HW151575   8.055   2.900  11.262  0.4817  1.1495  0.4791
47215SOL    HW251576   7.946   2.921  11.365 -0.1392  0.1946  0.0320
47216SOL     OW51577   9.234  12.953   5.172  0.5970  0.1357  0.0533
47216SOL    HW151578   9.288  12.987   5.100  0.2927  0.8414  0.1495
47216SOL    HW251579   9.247  12.858   5.169 -1.8328 -0.2507 -2.9252
47217SOL     OW51580   1.612  10.350   9.866 -0.1701 -0.1459 -0.2666
47217SOL    HW151581   1.635  10.263   9.832 -0.7127 -0.3751 -0.0583
47217SOL    HW251582   1.696  10.390   9.887  0.0798 -0.6775 -0.2328
47218SOL     OW51583   7.068  11.106   9.547  0.3491  0.0269  0.3101
47218SOL    HW151584   6.998  11.090   9.484  1.0098 -0.4799 -0.2995
47218SOL    HW251585   7.027  11.161   9.614 -0.6411 -0.2868 -0.0220
47219SOL     OW51586  12.369   2.966   6.920 -0.0705  0.4836 -0.3647
47219SOL    HW151587  12.290   2.936   6.876 -1.9052  2.5308  1.2953
47219SOL    HW251588  12.380   3.057   6.892  0.0140  1.1061  1.5083
47220SOL     OW51589   0.227   6.611   0.274 -0.0515  0.5513  0.0361
47220SOL    HW151590   0.239   6.705   0.282  0.3527  0.6425 -1.4302
47220SOL    HW251591   0.262   6.589   0.188  0.3171 -1.0181  0.5504
47221SOL     OW51592   1.063   7.512   6.083 -0.1096 -0.1297  0.9078
47221SOL    HW151593   1.151   7.531   6.051 -0.8872  1.3776 -0.4781
47221SOL    HW251594   1.050   7.419   6.064  0.8919 -0.1894  0.4362
47222SOL     OW51595   1.338   0.136   0.143  0.4319  0.5004  0.0282
47222SOL    HW151596   1.247   0.118   0.166  0.7873  0.3720  1.4535
47222SOL    HW251597   1.377   0.169   0.224  1.3855  1.6339 -0.8537
47223SOL     OW51598   7.685   3.986   4.116  0.1129  1.0886 -0.5551
47223SOL    HW151599   7.624   4.033   4.059 -1.1616  0.4439  0.2241
47223SOL    HW251600   7.698   4.044   4.191 -2.1265 -0.0194  0.8174
47224SOL     OW51601  10.422   2.707   4.384  0.4312 -0.1212 -0.4364
47224SOL    HW151602  10.425   2.641   4.453 -1.1331  0.5441  0.3092
47224SOL    HW251603  10.342   2.688   4.336  0.7935  0.2759 -1.2171
47225SOL     OW51604   9.846   9.088   7.845  0.2787 -0.6105 -0.8415
47225SOL    HW151605   9.756   9.057   7.861 -0.2559 -0.0191 -2.5350
47225SOL    HW251606   9.839   9.184   7.852  0.9293 -0.5916 -0.3661
47226SOL     OW51607   8.043   2.726   3.505 -0.2253 -0.3292 -0.6536
47226SOL    HW151608   8.099   2.803   3.499 -0.2968 -0.1051  1.1350
47226SOL    HW251609   7.980   2.737   3.433 -0.7913  1.7485  0.0861
47227SOL     OW51610   8.749  11.136   4.067 -0.0458 -0.4276  0.0186
47227SOL    HW151611   8.781  11.193   3.998 -1.7545 -0.7901 -1.1274
47227SOL    HW251612   8.796  11.165   4.146 -2.1288  3.8163 -0.0567
47228SOL     OW51613   3.575   9.751  12.386  0.1978 -0.1873  0.2376
47228SOL    HW151614   3.664   9.778  12.407  0.3015 -0.0459 -0.3577
47228SOL    HW251615   3.586   9.692  12.311 -0.4424  2.5044 -2.1494
47229SOL     OW51616   3.341  10.587  11.512 -0.2670  0.5258  0.3266
47229SOL    HW151617   3.417  10.562  11.564 -0.5441 -0.5501  0.2332
47229SOL    HW251618   3.375  10.650  11.448  0.4960  0.2263  0.4313
47230SOL     OW51619  12.282   2.106   3.358  0.3694  0.2377 -0.1270
47230SOL    HW151620  12.326   2.190   3.345  0.4034  0.6163  2.0163
47230SOL    HW251621  12.190   2.125   3.341  0.4779  0.5227 -0.4103
47231SOL     OW51622   5.024  10.883   8.641  0.2194  0.5368 -0.0357
47231SOL    HW151623   5.089  10.861   8.574 -0.4637 -1.6935 -0.0700
47231SOL    HW251624   4.948  10.914   8.592  0.2923  0.4818 -0.1828
47232SOL     OW51625   6.509   6.475   9.419 -0.1778  0.1315 -0.0637
47232SOL    HW151626   6.566   6.498   9.492  0.0995 -1.8740  0.4207
47232SOL    HW251627   6.440   6.421   9.458 -0.0967 -0.8735 -1.2480
47233SOL     OW51628   4.982   3.568   9.407  0.8416 -0.5052 -0.3111
47233SOL    HW151629   4.892   3.599   9.413  0.7992 -0.7488  0.5799
47233SOL    HW251630   5.033   3.646   9.387  0.4824 -0.2820 -0.3585
47234SOL     OW51631   5.519   6.497   6.241 -0.4606 -0.3496 -0.6347
47234SOL    HW151632   5.426   6.489   6.220 -0.7256  1.8242 -0.5554
47234SOL    HW251633   5.529   6.587   6.270  2.0365  0.0902 -2.4982
47235SOL     OW51634   3.535   6.055  13.191 -0.3492  0.6096  0.5961
47235SOL    HW151635   3.562   5.965  13.174 -1.1016  0.5934 -0.6677
47235SOL    HW251636   3.440   6.054  13.175  0.1205  2.4629 -3.6948
47236SOL     OW51637   1.783  10.220   3.386  0.0467  0.5997 -0.3763
47236SOL    HW151638   1.857  10.189   3.438 -0.8115  0.3449  0.7328
47236SOL    HW251639   1.823  10.268   3.313  1.3015  0.0787 -0.0561
47237SOL     OW51640   0.155   6.564  10.594 -0.0715 -0.3478 -0.3266
47237SOL    HW151641   0.082   6.597  10.646  0.4371  0.1473  0.0862
47237SOL    HW251642   0.174   6.478  10.632  0.3551  0.0495  0.3774
47238SOL     OW51643   2.744  12.792   0.135  0.1493 -0.7387 -0.2447
47238SOL    HW151644   2.757  12.887   0.136 -0.7557 -0.6083 -0.2062
47238SOL    HW251645   2.801  12.761   0.065  2.3190 -0.4687  1.3103
47239SOL     OW51646   9.695   0.302   8.706 -0.2300  0.0139  1.0113
47239SOL    HW151647   9.628   0.248   8.664 -1.4082  2.1110  0.0106
47239SOL    HW251648   9.719   0.254   8.785 -2.4970 -1.1056  1.0965
47240SOL     OW51649   3.932   5.047   2.048 -0.6857  0.2196  0.4225
47240SOL    HW151650   3.874   5.040   1.972 -1.4013 -1.2942  1.0745
47240SOL    HW251651   3.875   5.031   2.123  0.4070 -0.4024  1.1378
47241SOL     OW51652   1.159   1.662   6.793  0.0744 -0.2742 -0.1500
47241SOL    HW151653   1.081   1.660   6.848 -1.0213 -0.6883 -1.6494
47241SOL    HW251654   1.214   1.591   6.828 -0.6999 -0.6933  0.2490
47242SOL     OW51655   0.485   3.255  11.370 -0.6285  0.5236  0.1758
47242SOL    HW151656   0.444   3.177  11.406  0.3692 -0.1103 -0.0004
47242SOL    HW251657   0.426   3.326  11.393 -1.3677 -0.2285  0.6772
47243SOL     OW51658   6.665   7.642   2.590 -0.2565  0.3362  0.7377
47243SOL    HW151659   6.719   7.685   2.524 -1.6240  0.7524 -0.1615
47243SOL    HW251660   6.667   7.549   2.566  0.4395  0.2801  1.0012
47244SOL     OW51661  10.331   2.976   8.694 -0.3351 -0.2717 -0.0033
47244SOL    HW151662  10.408   3.013   8.737  1.2350 -1.4995 -1.6328
47244SOL    HW251663  10.264   3.045   8.703  1.0452  1.0105  1.0794
47245SOL     OW51664   1.643   8.150   5.880 -0.2453  0.2109 -0.1537
47245SOL    HW151665   1.642   8.122   5.788 -1.2620  0.1234 -0.1237
47245SOL    HW251666   1.551   8.154   5.905  0.0213  0.3111  0.8478
47246SOL     OW51667  10.293   0.489  10.601 -0.7725 -0.8824  0.2727
47246SOL    HW151668  10.341   0.439  10.667 -1.1435 -0.8701  0.5538
47246SOL    HW251669  10.344   0.569  10.591 -0.6054 -0.9709  0.3976
47247SOL     OW51670   7.210   6.214   3.154 -0.1509  0.0432  0.1799
47247SOL    HW151671   7.284   6.154   3.143  0.8228  0.7596  2.2287
47247SOL    HW251672   7.140   6.160   3.191 -0.9131 -0.7531 -2.2438
47248SOL     OW51673   9.717   3.796   0.010 -0.1225 -0.4861  0.4324
47248SOL    HW151674   9.703   3.710  -0.030 -0.0456  0.3413 -1.4496
47248SOL    HW251675   9.811   3.809   0.008 -0.2481  0.3608 -0.9173
47249SOL     OW51676   1.265   5.341  10.128  0.3612  0.3896 -0.0507
47249SOL    HW151677   1.214   5.263  10.104  0.0129  0.0736  1.6075
47249SOL    HW251678   1.277   5.388  10.046 -2.2186  0.2437 -0.5952
47250SOL     OW51679   3.775  10.801   8.807  0.4020  0.7233 -0.6009
47250SOL    HW151680   3.745  10.829   8.721 -0.2890  0.7505 -0.3522
47250SOL    HW251681   3.702  10.819   8.866  1.3035  1.8937  0.2252
47251SOL     OW51682   4.485   1.731   8.788  1.0799  0.6012  0.4861
47251SOL    HW151683   4.400   1.744   8.829 -0.6628  1.8594 -3.1339
47251SOL    HW251684   4.528   1.817   8.794  1.2438  0.5187  0.5150
47252SOL     OW51685   3.763   3.186   6.218 -0.1125  0.3723 -0.2427
47252SOL    HW151686   3.730   3.219   6.302 -1.1041 -1.0402 -0.0463
47252SOL    HW251687   3.802   3.101   6.240  0.1106  0.2426 -1.1255
47253SOL     OW51688   6.069   5.609   4.170  0.1734  0.0896  0.3238
47253SOL    HW151689   6.060   5.567   4.085  1.4510 -0.4387  0.4154
47253SOL    HW251690   6.091   5.700   4.150 -0.5735  0.2281  0.1078
47254SOL     OW51691  11.691   1.603   0.027  0.3095  0.5273 -0.3859
47254SOL    HW151692  11.680   1.562  -0.059 -1.2691  3.2075 -1.6045
47254SOL    HW251693  11.776   1.647   0.022  0.8618 -0.4700 -0.0090
47255SOL     OW51694  10.400   7.737   3.821 -0.2694 -0.0030 -0.3004
47255SOL    HW151695  10.319   7.749   3.870  0.0059  0.6921  0.0070
47255SOL    HW251696  10.402   7.644   3.799  0.2737 -0.6693  2.2354
47256SOL     OW51697   0.528   8.928   5.132  0.1628  0.5780  0.4156
47256SOL    HW151698   0.621   8.907   5.143  0.5128  0.7424 -1.7652
47256SOL    HW251699   0.526   9.023   5.121 -0.1537  0.5020 -0.2581
47257SOL     OW51700   6.665   8.509   9.831  0.3536  0.3969  1.1225
47257SOL    HW151701   6.617   8.426   9.835 -0.0430  0.5283 -0.2457
47257SOL    HW251702   6.747   8.491   9.877 -0.5506 -0.1345  2.6279
47258SOL     OW51703   1.189   9.911   5.241  0.2043  0.0012 -0.1241
47258SOL    HW151704   1.283   9.916   5.228  0.0363  1.0098 -1.0908
47258SOL    HW251705   1.164   9.997   5.274 -0.2729 -0.5448  1.0272
47259SOL     OW51706   1.625   5.945   5.149 -0.1565 -0.1517  0.2569
47259SOL    HW151707   1.678   5.943   5.229  0.8906  0.3554 -0.4121
47259SOL    HW251708   1.563   6.017   5.164 -0.2692 -0.3583  0.8022
47260SOL     OW51709   9.512   6.145  12.263  0.2277  0.2684 -0.3022
47260SOL    HW151710   9.586   6.125  12.320  0.5797 -0.2711 -0.9324
47260SOL    HW251711   9.454   6.199  12.316  0.5481 -0.2222  0.5580
47261SOL     OW51712  11.082  13.264  10.509  0.5876 -0.0798 -0.4232
47261SOL    HW151713  11.085  13.183  10.562 -1.0170 -1.6339 -2.5357
47261SOL    HW251714  11.094  13.334  10.573  0.3974 -1.9074  1.7673
47262SOL     OW51715   3.923   0.471  10.112  0.0946 -1.0460  0.1346
47262SOL    HW151716   4.002   0.456  10.061  1.3885 -0.9188  1.9938
47262SOL    HW251717   3.934   0.560  10.148 -1.8486 -0.2172 -1.1333
47263SOL     OW51718  10.020   5.398  12.727 -0.0301  0.1851  0.4158
47263SOL    HW151719   9.976   5.318  12.754 -1.9461  1.4415  1.2527
47263SOL    HW251720  10.082   5.370  12.659 -1.6965 -1.7979 -0.3834
47264SOL     OW51721  11.909   7.097   1.093 -0.5814  0.1418  0.0506
47264SOL    HW151722  11.832   7.112   1.147  0.1156  1.2201  0.7986
47264SOL    HW251723  11.895   7.011   1.054 -1.4185 -0.3808  1.4346
47265SOL     OW51724   5.898   8.907   2.795 -0.4069 -0.1762 -0.1118
47265SOL    HW151725   5.836   8.955   2.740  0.5716  0.5956 -0.5764
47265SOL    HW251726   5.864   8.817   2.796 -0.8484 -0.0534 -1.3950
47266SOL     OW51727   3.923  10.069  12.092 -0.7109 -0.6095  0.2616
47266SOL    HW151728   4.017  10.056  12.079 -0.7198 -0.4977  0.0819
47266SOL    HW251729   3.882   9.990  12.057 -0.7625 -0.1440 -0.7921
47267SOL     OW51730   3.244   1.906   0.611  0.5982 -0.0678  0.2673
47267SOL    HW151731   3.289   1.916   0.695 -1.6475 -3.4774  2.1444
47267SOL    HW251732   3.270   1.819   0.581 -1.5223 -0.4607 -0.6118
47268SOL     OW51733   6.133   3.856  12.896 -0.1852 -0.1835  0.3218
47268SOL    HW151734   6.124   3.783  12.835  2.7675  1.1706 -2.0126
47268SOL    HW251735   6.215   3.840  12.941 -0.2346  0.9746  0.8604
47269SOL     OW51736   1.436   9.968   7.474 -0.1737  0.6554  0.5998
47269SOL    HW151737   1.402   9.901   7.533  0.0292  1.0459  1.1676
47269SOL    HW251738   1.377  10.043   7.486 -0.7425  0.4046 -0.4466
47270SOL     OW51739   7.198  11.525   6.185 -0.3581 -0.8905  0.1351
47270SOL    HW151740   7.120  11.579   6.170 -1.1950 -2.2573 -0.5831
47270SOL    HW251741   7.265  11.588   6.211 -1.3772  0.4649 -0.3752
47271SOL     OW51742   6.715   3.359   4.042  0.0707 -0.2242 -0.3043
47271SOL    HW151743   6.639   3.416   4.052 -2.4363 -3.5080  1.1062
47271SOL    HW251744   6.693   3.302   3.968  0.4889 -2.1149  0.9641
47272SOL     OW51745   9.078  12.550  13.234  0.0403  0.3150 -0.1271
47272SOL    HW151746   9.057  12.638  13.202 -2.2311 -0.7009 -1.6957
47272SOL    HW251747   9.001  12.524  13.283 -0.0459 -1.4038 -1.0998
47273SOL     OW51748  11.345  11.607   5.458 -0.8423 -0.7390  0.4928
47273SOL    HW151749  11.419  11.632   5.402 -1.2628  0.9602  0.6386
47273SOL    HW251750  11.274  11.587   5.397 -0.3407 -2.2515  0.3568
47274SOL     OW51751   8.716   6.495  11.882  0.5832 -0.0022  0.2612
47274SOL    HW151752   8.736   6.579  11.840  2.1616 -1.1589 -1.4651
47274SOL    HW251753   8.798   6.468  11.923  0.6699 -1.5130 -0.7946
47275SOL     OW51754  12.942   2.319   5.437 -0.1300 -0.2312 -0.8284
47275SOL    HW151755  13.017   2.373   5.413 -0.1920 -0.5204 -1.7433
47275SOL    HW251756  12.970   2.229   5.417 -0.5507 -0.3882 -0.7334
47276SOL     OW51757  12.799   4.351   2.189  0.4123 -0.1602  0.0872
47276SOL    HW151758  12.719   4.389   2.151  0.7661  2.8550  2.0485
47276SOL    HW251759  12.766   4.284   2.250 -0.5770  0.3698  0.1649
47277SOL     OW51760  11.433  10.987   1.665  0.6395 -0.0653 -0.2863
47277SOL    HW151761  11.376  11.029   1.729 -0.0505 -0.9046 -0.3325
47277SOL    HW251762  11.373  10.950   1.600  1.1543 -1.8365  0.1945
47278SOL     OW51763   8.959   9.025   6.657  0.3937 -0.0689  0.6097
47278SOL    HW151764   9.028   9.091   6.647  0.8069 -0.6045 -0.2088
47278SOL    HW251765   9.006   8.942   6.667 -0.1250 -0.2953  1.2790
47279SOL     OW51766  12.963  11.991   5.280 -0.2613 -1.0452  0.5830
47279SOL    HW151767  13.011  12.072   5.296 -2.2733  0.0888  1.1907
47279SOL    HW251768  13.030  11.923   5.283  1.4331  0.5334  0.4309
47280SOL     OW51769  12.332   3.204   7.827  0.1884 -0.5754  0.2275
47280SOL    HW151770  12.393   3.179   7.758  0.0508  0.9317 -0.4741
47280SOL    HW251771  12.247   3.170   7.797  0.5939 -2.5692  1.1493
47281SOL     OW51772   5.424   8.880   9.304 -0.5953  0.4883 -0.0848
47281SOL    HW151773   5.432   8.875   9.400 -0.8663  1.2307 -0.0177
47281SOL    HW251774   5.332   8.863   9.286 -0.7272  1.2262 -0.1396
47282SOL     OW51775   3.504   5.990   4.118  0.7499 -0.0349  0.1520
47282SOL    HW151776   3.549   5.976   4.201  1.5660 -1.3940 -0.4766
47282SOL    HW251777   3.533   5.918   4.063 -1.7778 -0.6799 -0.4873
47283SOL     OW51778  13.135   9.663  11.946 -0.3002 -0.1882  0.8666
47283SOL    HW151779  13.104   9.684  12.034 -1.9926  2.2178 -0.1948
47283SOL    HW251780  13.228   9.681  11.949 -0.5586  1.1504  1.8482
47284SOL     OW51781  11.751   6.071   3.696 -0.2254  0.6466  0.1242
47284SOL    HW151782  11.818   6.127   3.735  0.5157  0.5108 -0.9048
47284SOL    HW251783  11.788   6.044   3.612  0.2032 -2.8193  1.2813
47285SOL     OW51784  12.234   8.646  11.394  0.1514  0.7738 -0.1493
47285SOL    HW151785  12.212   8.649  11.487 -0.9841  0.8407 -0.4008
47285SOL    HW251786  12.164   8.593  11.355  1.2593 -0.2640 -0.7977
47286SOL     OW51787  10.946   6.599   8.196 -0.0245  0.2668 -0.3785
47286SOL    HW151788  10.901   6.580   8.278  1.1145 -0.7469  0.0414
47286SOL    HW251789  10.876   6.623   8.135 -1.4642 -3.1918 -0.3265
47287SOL     OW51790  11.665   2.657  11.820  0.1897  0.0668 -0.1192
47287SOL    HW151791  11.713   2.670  11.738  0.8353  2.1739  0.5258
47287SOL    HW251792  11.590   2.716  11.814 -1.1648 -1.5753 -0.1729
47288SOL     OW51793  13.279   0.158   6.362  0.0817 -0.8662  0.6660
47288SOL    HW151794  13.298   0.252   6.360  0.3559 -0.9168  0.9299
47288SOL    HW251795  13.319   0.124   6.282  0.3733 -0.8326  0.7975
47289SOL     OW51796   8.711   1.598  12.379  0.1873  0.4944 -0.0575
47289SOL    HW151797   8.801   1.584  12.347 -0.1026 -2.2735  0.0966
47289SOL    HW251798   8.711   1.563  12.468 -1.2886 -0.5239 -0.4276
47290SOL     OW51799   7.755   7.767  12.069  0.0808 -0.2925  0.2655
47290SOL    HW151800   7.828   7.800  12.017  1.0679 -0.0710  1.7168
47290SOL    HW251801   7.793   7.752  12.156 -1.3416 -1.2790  0.7465
47291SOL     OW51802  11.936  11.561   3.881  0.2185 -0.3169 -0.1943
47291SOL    HW151803  11.866  11.621   3.856  1.4409  1.0123 -0.6440
47291SOL    HW251804  11.932  11.557   3.977 -0.2446  0.0226 -0.1971
47292SOL     OW51805   6.418   2.009   3.345 -0.0948  0.5332 -0.3765
47292SOL    HW151806   6.339   1.958   3.364  0.6332  0.1377  1.8205
47292SOL    HW251807   6.389   2.100   3.349 -0.6530  0.3826 -0.7442
47293SOL     OW51808  11.841   3.000   0.271  0.2183  0.0559  0.1575
47293SOL    HW151809  11.763   3.024   0.321 -0.0336  0.2792 -0.3335
47293SOL    HW251810  11.905   2.973   0.337 -0.3948 -0.4837  0.5382
47294SOL     OW51811  12.825   5.833   3.837  0.1847  0.5904  0.8205
47294SOL    HW151812  12.887   5.854   3.767  0.4678  3.3593  1.7757
47294SOL    HW251813  12.739   5.840   3.795  0.4044 -0.7087  0.1003
47295SOL     OW51814   0.932   3.952   5.897 -0.5638  0.4211  0.3845
47295SOL    HW151815   0.896   3.864   5.911  2.5377 -0.7583  1.8173
47295SOL    HW251816   0.878   3.988   5.826 -2.9900 -1.9620  0.8348
47296SOL     OW51817   1.565   7.134  13.185 -0.5036 -0.5198  0.6346
47296SOL    HW151818   1.651   7.099  13.210 -0.7399  0.1655  2.6312
47296SOL    HW251819   1.543   7.194  13.256 -1.9385  0.5304 -0.6467
47297SOL     OW51820   7.908   8.246  11.142  0.5122 -0.5519 -0.1236
47297SOL    HW151821   7.974   8.265  11.076  0.6365 -1.4149 -0.2584
47297SOL    HW251822   7.836   8.205  11.093 -0.0898  0.2973  0.0343
47298SOL     OW51823   4.363   2.189   8.343  0.1427  0.4273 -0.2047
47298SOL    HW151824   4.380   2.172   8.250 -0.7971  1.3189 -0.5628
47298SOL    HW251825   4.267   2.186   8.351  0.2253 -3.1534  1.4670
47299SOL     OW51826   1.384   5.247  13.165  0.1007 -0.1621  0.2705
47299SOL    HW151827   1.390   5.241  13.260  0.6593  1.5727  0.3877
47299SOL    HW251828   1.340   5.331  13.149  1.0324  0.1248 -0.9963
47300SOL     OW51829  12.492   3.840   7.835 -0.5721  0.2543  0.0797
47300SOL    HW151830  12.528   3.760   7.796 -0.4674  0.3492 -0.0184
47300SOL    HW251831  12.560   3.871   7.895  0.5870  1.7865 -1.9037
47301SOL     OW51832   0.237   2.592   2.998 -0.8540 -0.0692  0.2706
47301SOL    HW151833   0.167   2.647   3.032 -0.4591  0.2507  0.5664
47301SOL    HW251834   0.293   2.573   3.073 -0.8567 -0.6892  0.1289
47302SOL     OW51835  10.824  10.267  12.924  0.2212 -0.3364  0.4345
47302SOL    HW151836  10.842  10.259  12.831  2.1327  1.6032  0.5582
47302SOL    HW251837  10.836  10.179  12.959  1.2402 -0.7532 -0.8908
47303SOL     OW51838   4.454   7.298   0.014 -0.4157  0.2856  0.0822
47303SOL    HW151839   4.452   7.274  -0.079 -2.1016  1.4761 -0.2286
47303SOL    HW251840   4.547   7.308   0.035  0.3810 -4.1131 -0.3258
47304SOL     OW51841   7.088   5.551   3.560 -0.2759 -0.3934 -0.1672
47304SOL    HW151842   7.028   5.478   3.574 -0.6669 -0.1243 -0.4073
47304SOL    HW251843   7.103   5.551   3.465  0.9320 -1.0995  0.0043
47305SOL     OW51844  12.742  11.635   9.344  0.1655 -0.5269  0.6646
47305SOL    HW151845  12.760  11.542   9.330  0.9984 -0.3427  0.4470
47305SOL    HW251846  12.761  11.676   9.259  0.8527 -0.0165  1.0557
47306SOL     OW51847  13.127   4.871  11.998  0.4454  0.2266  0.0417
47306SOL    HW151848  13.112   4.883  11.905  1.1370 -0.0672 -0.1136
47306SOL    HW251849  13.191   4.800  12.004  0.2635  0.1056  0.7471
47307SOL     OW51850   3.137   1.969   7.895  0.0905  0.1712 -0.9061
47307SOL    HW151851   3.059   1.922   7.866  0.2915 -0.9904  0.3439
47307SOL    HW251852   3.103   2.037   7.954 -0.1701  1.4272 -2.4446
47308SOL     OW51853  11.576  12.652   5.977 -0.2718  0.1844 -0.8165
47308SOL    HW151854  11.654  12.600   5.962  0.3251  0.2507  1.6526
47308SOL    HW251855  11.604  12.743   5.966  0.5145  0.3157  1.6995
47309SOL     OW51856   2.771   3.527   4.606 -0.6948 -0.0027  0.0745
47309SOL    HW151857   2.797   3.526   4.514 -0.7009 -1.0895  0.0674
47309SOL    HW251858   2.681   3.559   4.606 -0.3124  1.1205 -0.1689
47310SOL     OW51859   5.099   5.583  10.752 -0.2551 -0.8673  0.1459
47310SOL    HW151860   5.115   5.593  10.658 -2.7130 -0.4033 -0.2845
47310SOL    HW251861   5.097   5.489  10.766  1.5543 -0.9610  0.0592
47311SOL     OW51862   9.471  11.305   2.014 -0.5025  0.3966  0.0165
47311SOL    HW151863   9.496  11.355   1.936  0.4119  0.4296  0.3104
47311SOL    HW251864   9.519  11.222   2.006  0.9773  1.0663  1.3449
47312SOL     OW51865  11.858   6.401   7.942  0.6002  0.6533  0.3786
47312SOL    HW151866  11.817   6.321   7.909  0.7802  1.2025 -1.2760
47312SOL    HW251867  11.951   6.391   7.920  0.9932  0.4386  2.0111
47313SOL     OW51868   5.668   5.170  11.800 -0.8335  0.0456  0.2095
47313SOL    HW151869   5.721   5.179  11.879 -0.2824 -0.1152 -0.1368
47313SOL    HW251870   5.712   5.102  11.748 -1.6572 -0.4611  0.1396
47314SOL     OW51871   3.335   6.995  10.980 -0.0280  0.0790  0.2250
47314SOL    HW151872   3.244   7.021  10.991 -0.0737  0.6866 -1.3478
47314SOL    HW251873   3.385   7.072  11.007  0.1881 -1.0166  3.3985
47315SOL     OW51874   5.234  12.807   8.774  0.1042 -0.0260 -0.0185
47315SOL    HW151875   5.268  12.723   8.745 -0.0814  0.3504 -1.4033
47315SOL    HW251876   5.234  12.801   8.869  1.8558 -0.8850 -0.0260
47316SOL     OW51877  11.785  12.671  11.964 -0.3698  0.2013  0.6319
47316SOL    HW151878  11.791  12.623  12.047  2.2885  2.8479  2.2109
47316SOL    HW251879  11.709  12.728  11.974 -0.4201  0.0673  1.0272
47317SOL     OW51880   6.616   9.661  12.376  0.0352 -0.3754 -0.2733
47317SOL    HW151881   6.530   9.697  12.397 -0.0241 -0.0262 -1.0749
47317SOL    HW251882   6.652   9.721  12.311  0.8664 -0.5477  0.0104
47318SOL     OW51883   9.384  12.831   7.772 -0.3074 -0.4534  0.5597
47318SOL    HW151884   9.366  12.737   7.768 -0.1068 -0.5203  1.1495
47318SOL    HW251885   9.385  12.859   7.680 -0.3147 -1.0372  0.3783
47319SOL     OW51886  12.891   2.541  10.825 -0.8973  0.0077 -0.2160
47319SOL    HW151887  12.903   2.528  10.919 -0.1171 -1.0182 -0.4410
47319SOL    HW251888  12.921   2.631  10.809 -1.6676  0.4250  0.6097
47320SOL     OW51889  10.422   7.474   5.348  0.2727 -0.5576  0.7239
47320SOL    HW151890  10.368   7.553   5.355  1.2348  0.2396 -0.3501
47320SOL    HW251891  10.495   7.489   5.409 -0.3407 -1.3176  1.6583
47321SOL     OW51892  11.873   8.680  12.858 -0.6072  0.1207  0.5678
47321SOL    HW151893  11.948   8.695  12.801  0.6384 -0.1723  2.0352
47321SOL    HW251894  11.890   8.593  12.896 -1.5026  0.2131  1.2013
47322SOL     OW51895   7.953   8.744   8.114 -0.2823  0.1239  0.1475
47322SOL    HW151896   7.923   8.834   8.130 -2.3590 -0.4174 -0.4576
47322SOL    HW251897   7.890   8.707   8.053  1.2907 -1.3595 -0.6830
47323SOL     OW51898   5.246   8.280  10.383  0.4317 -0.1592  0.0883
47323SOL    HW151899   5.267   8.370  10.410 -1.6434  0.0789  1.1539
47323SOL    HW251900   5.276   8.226  10.455  0.5685 -0.1824  0.0124
47324SOL     OW51901  13.205   7.277   2.846  0.0081 -0.4779 -0.4990
47324SOL    HW151902  13.298   7.295   2.833 -0.1801  0.2683 -0.8721
47324SOL    HW251903  13.171   7.262   2.758 -0.5887  1.1137 -0.5621
47325SOL     OW51904  11.777   8.125   8.160  0.3331  0.2090  0.1342
47325SOL    HW151905  11.718   8.086   8.095 -0.4369  0.0495  0.9034
47325SOL    HW251906  11.861   8.083   8.146  0.1962  0.2450 -0.8143
47326SOL     OW51907   2.558   6.522   2.163 -0.4760 -0.5132  0.3733
47326SOL    HW151908   2.561   6.594   2.100 -1.3807 -2.0993 -1.6363
47326SOL    HW251909   2.629   6.464   2.136 -1.7333 -1.8952 -0.1469
47327SOL     OW51910  12.249   8.558   0.316  0.2213  0.2253 -0.1623
47327SOL    HW151911  12.226   8.466   0.327  0.4535  0.2150  0.2688
47327SOL    HW251912  12.270   8.567   0.223  0.8673 -0.3129 -0.0774
47328SOL     OW51913   1.835   0.297   4.210 -0.1121 -0.8386  0.0246
47328SOL    HW151914   1.800   0.350   4.138  0.8857  1.0634  0.8569
47328SOL    HW251915   1.927   0.282   4.185 -0.2707 -1.8487  0.0075
47329SOL     OW51916  10.995  12.539   3.748  0.0162  0.2106 -0.4035
47329SOL    HW151917  10.915  12.492   3.771  0.7953 -0.0928  2.0135
47329SOL    HW251918  10.990  12.551   3.653 -1.4164 -2.5344 -0.7846
47330SOL     OW51919   7.186  10.135  10.467  0.0316  0.4003 -0.5264
47330SOL    HW151920   7.257  10.157  10.527  1.4775  2.5275 -2.8157
47330SOL    HW251921   7.174  10.041  10.478  1.5063  0.3878  1.6662
47331SOL     OW51922   4.226   0.206   9.514  1.0500  0.2077 -0.6378
47331SOL    HW151923   4.134   0.220   9.492  1.1671  0.1361 -1.2041
47331SOL    HW251924   4.251   0.283   9.565  0.3859 -0.2882  0.4641
47332SOL     OW51925  10.502   6.900   0.029  0.2335  0.4753  0.3383
47332SOL    HW151926  10.497   6.834  -0.041 -3.2300  0.4526  0.4488
47332SOL    HW251927  10.468   6.855   0.107  0.0226  1.7178  0.9818
47333SOL     OW51928   4.879   6.231  10.480  0.0589 -0.5719  0.2250
47333SOL    HW151929   4.836   6.312  10.454 -0.7456 -0.7366  1.0076
47333SOL    HW251930   4.922   6.251  10.563  0.2027 -0.8354  0.2166
47334SOL     OW51931   2.891   9.051  13.040  0.1251 -0.6028 -0.8117
47334SOL    HW151932   2.925   8.962  13.054 -1.2939 -1.1515 -0.6748
47334SOL    HW251933   2.850   9.074  13.124  2.1445  0.9799 -0.2025
47335SOL     OW51934   3.728  11.118  12.347  0.0683 -0.3305  0.3358
47335SOL    HW151935   3.752  11.192  12.292  0.1221 -1.5616 -1.3717
47335SOL    HW251936   3.805  11.102  12.401 -0.9483  2.6581  2.9418
47336SOL     OW51937   2.265   0.197   8.585  0.5244  0.0836 -0.1360
47336SOL    HW151938   2.349   0.233   8.556 -0.0354  2.4566  0.9854
47336SOL    HW251939   2.283   0.162   8.672  0.3097  0.7627  0.1809
47337SOL     OW51940   8.828   8.395  13.155 -0.0033  0.2176 -0.2973
47337SOL    HW151941   8.756   8.457  13.153  0.1925  0.6430  2.5801
47337SOL    HW251942   8.819   8.345  13.074 -0.8453  3.1767 -2.1722
47338SOL     OW51943   1.433   2.012   7.285  0.1743  0.4505  0.2838
47338SOL    HW151944   1.346   1.981   7.309 -0.1952  0.4267 -1.0129
47338SOL    HW251945   1.417   2.091   7.233  0.8398 -0.2026 -0.9747
47339SOL     OW51946   1.452   7.471   9.566 -0.0584 -0.6305  0.5047
47339SOL    HW151947   1.438   7.452   9.659 -2.6981  3.6988  1.3181
47339SOL    HW251948   1.364   7.488   9.532  0.8519 -1.7862 -2.8169
47340SOL     OW51949   2.950  11.703   0.859  0.0487  0.1646 -0.0695
47340SOL    HW151950   3.036  11.744   0.857 -0.5467  1.4800 -0.0433
47340SOL    HW251951   2.891  11.772   0.888 -0.9262 -0.8934  0.5616
47341SOL     OW51952   1.005   7.989   1.829  0.1480  0.1939 -0.3891
47341SOL    HW151953   1.049   7.927   1.887  0.4783  0.7965  0.0207
47341SOL    HW251954   0.920   8.005   1.871  0.3204  0.5036 -0.1544
47342SOL     OW51955   6.117   1.609  10.313  0.1284 -0.7339 -0.3480
47342SOL    HW151956   6.039   1.662  10.327  0.7192  0.2380 -0.6994
47342SOL    HW251957   6.119   1.549  10.389 -2.4080 -2.6457 -1.6432
47343SOL     OW51958  13.099   3.263   6.922  0.5193  0.2802  0.9022
47343SOL    HW151959  13.121   3.246   7.014 -1.0469 -3.2862  0.7796
47343SOL    HW251960  13.159   3.208   6.872 -1.1001 -0.7445  0.0201
47344SOL     OW51961   0.808   6.659   9.052  0.5694  0.5809  0.0241
47344SOL    HW151962   0.766   6.597   8.992  0.1767  0.3892  0.4903
47344SOL    HW251963   0.883   6.692   9.003  0.0980  0.6360 -0.6758
47345SOL     OW51964  12.559   4.220   0.921 -0.2878  0.4911  0.7996
47345SOL    HW151965  12.538   4.297   0.974 -1.6598  1.0941 -0.5283
47345SOL    HW251966  12.584   4.256   0.836 -0.8446 -0.5187  0.1871
47346SOL     OW51967   6.423   2.101  12.664  0.6824  0.3831 -0.2294
47346SOL    HW151968   6.450   2.134  12.750  2.1126  2.7190 -1.4690
47346SOL    HW251969   6.330   2.122  12.659  0.1311 -1.3823  1.3681
47347SOL     OW51970   5.975   5.713  10.378  0.1582 -0.3638  0.0386
47347SOL    HW151971   5.924   5.788  10.407 -0.2658 -0.6159 -0.0586
47347SOL    HW251972   5.920   5.669  10.313 -0.3090 -1.7026  1.2913
47348SOL     OW51973  10.182  11.567   6.587  0.0881 -0.0582  0.1717
47348SOL    HW151974  10.239  11.609   6.651  1.1718 -0.8518 -0.2471
47348SOL    HW251975  10.225  11.484   6.567 -0.2933  0.1035 -1.4632
47349SOL     OW51976   2.400   8.628   9.821  0.5155 -0.4706  0.1632
47349SOL    HW151977   2.316   8.627   9.867  0.4871 -3.1339  0.1673
47349SOL    HW251978   2.407   8.541   9.782  2.6467  0.1771 -1.0337
47350SOL     OW51979   4.700   5.297   3.030 -0.6874  0.3645 -0.1375
47350SOL    HW151980   4.709   5.344   3.113 -1.2931 -0.4731  0.4092
47350SOL    HW251981   4.737   5.211   3.047  0.4510  0.6229 -1.1498
47351SOL     OW51982   5.746  12.196   1.002 -0.9129 -0.2464 -0.1744
47351SOL    HW151983   5.667  12.147   0.979 -0.9177  0.0154 -0.7314
47351SOL    HW251984   5.806  12.181   0.929  0.2533 -1.9259  1.0683
47352SOL     OW51985   3.808  11.588   1.751  0.3249 -0.5708 -0.4348
47352SOL    HW151986   3.858  11.658   1.794  0.2977 -0.8450  0.0558
47352SOL    HW251987   3.728  11.631   1.721 -0.2566 -0.6191  0.9313
47353SOL     OW51988   8.870   1.627  11.770 -0.8742 -0.2696 -0.2841
47353SOL    HW151989   8.904   1.712  11.741  2.4165 -0.9876  0.9928
47353SOL    HW251990   8.884   1.569  11.696  2.4262 -0.8826  0.6537
47354SOL     OW51991   2.033   1.045   9.899 -0.5095 -0.0002  0.1119
47354SOL    HW151992   1.990   0.965   9.870 -0.9415  0.0112  0.6777
47354SOL    HW251993   1.982   1.072   9.976  0.0484  0.4439  0.3308
47355SOL     OW51994   3.179   5.782   9.836 -0.1450  0.6415  0.7107
47355SOL    HW151995   3.200   5.690   9.851  0.0177  0.8295  1.7161
47355SOL    HW251996   3.262   5.828   9.847 -0.7296  1.2447  3.4415
47356SOL     OW51997   0.448  12.234   4.539 -0.3469 -0.1423 -0.2294
47356SOL    HW151998   0.493  12.270   4.463 -0.3663 -0.3373 -0.3358
47356SOL    HW251999   0.386  12.171   4.501 -0.8813  0.3052 -0.1053
47357SOL     OW52000   6.390   3.097   6.257  0.0680 -0.2141  0.3377
47357SOL    HW152001   6.429   3.091   6.170  0.1844  1.3722  0.2514
47357SOL    HW252002   6.329   3.172   6.252  0.7600  0.5108  1.8516
47358SOL     OW52003   0.526   6.392  12.647 -0.5889  0.5975 -0.0690
47358SOL    HW152004   0.554   6.460  12.708  0.4419  0.2383 -0.1164
47358SOL    HW252005   0.536   6.310  12.697  0.5383  0.2717 -0.7770
47359SOL     OW52006   6.163   1.319   3.733 -0.0595 -0.4996 -0.4021
47359SOL    HW152007   6.122   1.342   3.650  1.7746 -1.6956 -1.6994
47359SOL    HW252008   6.234   1.383   3.743 -1.8193  1.3026  1.6210
47360SOL     OW52009   7.238   9.795   3.066 -0.2654 -1.0817 -0.2548
47360SOL    HW152010   7.170   9.731   3.044 -1.6505  0.0875  0.4504
47360SOL    HW252011   7.226   9.812   3.159 -0.1956  0.4860 -0.5072
47361SOL     OW52012   6.973  11.526   8.603 -0.0598  0.2899  0.0293
47361SOL    HW152013   6.917  11.583   8.657  1.9746  1.9826  0.4983
47361SOL    HW252014   6.973  11.442   8.649 -3.5124 -0.3735 -0.9093
47362SOL     OW52015   4.412   5.308   8.057 -0.2845  0.4676  0.1354
47362SOL    HW152016   4.457   5.341   8.134  1.1988 -0.5175 -0.2743
47362SOL    HW252017   4.341   5.371   8.041 -0.1258  1.1034  1.8164
47363SOL     OW52018   1.765  10.902   8.963 -0.2229  0.5289  0.0075
47363SOL    HW152019   1.694  10.872   8.906 -1.3132 -0.7280  1.8854
47363SOL    HW252020   1.828  10.830   8.964 -0.8799 -0.0824  1.3660
47364SOL     OW52021  12.564   0.994   9.077  0.0104  0.1837  0.3012
47364SOL    HW152022  12.594   0.944   9.153  0.8193 -0.6086 -0.5074
47364SOL    HW252023  12.607   1.079   9.086  0.0444  0.1159  0.7706
47365SOL     OW52024   0.254   2.175   8.725 -0.8016 -0.3961  0.2034
47365SOL    HW152025   0.249   2.266   8.753  0.0449  0.4470 -2.1440
47365SOL    HW252026   0.310   2.133   8.790  3.6383  2.1232 -1.5578
47366SOL     OW52027   1.008   5.591  11.626 -0.3973  0.0795 -0.3652
47366SOL    HW152028   0.993   5.648  11.551 -1.6507 -0.7094 -0.7378
47366SOL    HW252029   1.092   5.549  11.607  0.2365  1.2852 -0.3825
47367SOL     OW52030  10.571   4.106  10.212  0.1278 -0.5917  0.0952
47367SOL    HW152031  10.562   4.201  10.217 -0.1077 -0.5694 -0.6693
47367SOL    HW252032  10.618   4.090  10.130  1.3313 -1.0774  0.8508
47368SOL     OW52033   1.068   0.867   8.398  0.4367  0.3003  0.1714
47368SOL    HW152034   0.982   0.849   8.360 -0.3502  1.3892  1.3505
47368SOL    HW252035   1.095   0.784   8.437  1.4490 -0.9870 -2.9561
47369SOL     OW52036   8.884  11.555   5.579  0.5701  0.3683 -0.1164
47369SOL    HW152037   8.876  11.650   5.587 -0.9929  0.3645 -1.2274
47369SOL    HW252038   8.854  11.521   5.664 -1.0089  0.8146 -0.4588
47370SOL     OW52039   5.452   8.093   3.618  0.1302  0.1730  0.4709
47370SOL    HW152040   5.409   8.174   3.593 -0.0244 -0.3142 -0.8934
47370SOL    HW252041   5.545   8.109   3.602 -0.0584 -0.4794 -1.5062
47371SOL     OW52042   1.078   8.544   7.751  0.3799 -0.3736 -0.3282
47371SOL    HW152043   1.120   8.571   7.832  0.6059  0.0992 -0.5981
47371SOL    HW252044   1.147   8.500   7.702  0.9586  1.5004 -1.3143
47372SOL     OW52045   9.463  11.395   9.201 -0.6377  0.2363  0.2732
47372SOL    HW152046   9.445  11.456   9.274 -0.9971 -1.1873  1.4267
47372SOL    HW252047   9.556  11.377   9.207 -0.6904  0.0206  0.4781
47373SOL     OW52048   0.638  10.706   7.259  0.1106  0.0968 -0.1382
47373SOL    HW152049   0.711  10.670   7.209  0.6555 -0.2145  0.8599
47373SOL    HW252050   0.618  10.789   7.216 -0.4662 -0.8630 -1.8234
47374SOL     OW52051  12.766   9.260   6.411 -0.3168  0.1460 -0.3799
47374SOL    HW152052  12.736   9.343   6.449 -2.9615 -0.8194 -0.1425
47374SOL    HW252053  12.728   9.258   6.323 -1.9325 -1.5628  0.2778
47375SOL     OW52054  12.656  10.870   1.444 -0.9927 -0.3970 -0.8424
47375SOL    HW152055  12.642  10.951   1.395  0.2110 -0.2269 -0.9370
47375SOL    HW252056  12.643  10.895   1.536  1.8129  0.5676 -0.6061
47376SOL     OW52057   3.500  11.347  13.082 -0.0939  0.1181  0.3964
47376SOL    HW152058   3.423  11.311  13.038  0.0096  2.6536 -2.1937
47376SOL    HW252059   3.477  11.439  13.099  2.0546  0.7638  0.1693
47377SOL     OW52060  12.433  12.845   2.544  0.5367 -0.4095 -0.3521
47377SOL    HW152061  12.350  12.841   2.592 -0.1794  1.0062 -1.3884
47377SOL    HW252062  12.493  12.890   2.602 -0.2369  1.0361 -0.6370
47378SOL     OW52063   9.104   4.825   5.260 -0.0971 -0.1363  0.0214
47378SOL    HW152064   9.194   4.814   5.290 -0.2497 -0.0785  0.4989
47378SOL    HW252065   9.089   4.750   5.203  0.1158 -0.3653  0.2663
47379SOL     OW52066  12.920   2.402   5.696  0.5907 -0.7236 -0.4609
47379SOL    HW152067  12.944   2.342   5.767 -1.5169 -2.1646 -0.8723
47379SOL    HW252068  12.898   2.345   5.622 -1.9396  0.4382 -0.7242
47380SOL     OW52069  11.841   2.937   7.867 -0.2406  0.1218 -0.2666
47380SOL    HW152070  11.879   3.015   7.909  0.9256 -1.0847  1.0153
47380SOL    HW252071  11.897   2.920   7.792  0.8658 -0.7151  0.7057
47381SOL     OW52072   2.756   8.677   5.997 -0.0386  0.1171 -0.2946
47381SOL    HW152073   2.744   8.584   5.979 -0.1958  0.2744 -1.0096
47381SOL    HW252074   2.850   8.686   6.016  0.3101  0.0635 -1.8359
47382SOL     OW52075  13.264   0.133   4.490 -0.0749 -0.8721 -0.1484
47382SOL    HW152076  13.255   0.046   4.452 -0.7171 -1.3372  1.0239
47382SOL    HW252077  13.307   0.119   4.574 -1.6304 -0.2601  0.7861
47383SOL     OW52078   8.837  10.673   9.396 -0.2149  0.1323  0.0444
47383SOL    HW152079   8.786  10.732   9.453 -0.0139  1.5561 -1.1836
47383SOL    HW252080   8.919  10.719   9.382  1.3949 -2.0154  1.7633
47384SOL     OW52081   3.772  11.096   7.586 -0.6484 -0.2626 -0.1949
47384SOL    HW152082   3.827  11.161   7.630 -0.2883  0.0780 -1.0994
47384SOL    HW252083   3.764  11.129   7.496 -1.1152 -1.0715 -0.4646
47385SOL     OW52084   1.544   5.924   2.703 -0.0173  0.1710  0.0615
47385SOL    HW152085   1.454   5.939   2.674 -1.2199  1.2050  3.8023
47385SOL    HW252086   1.554   5.979   2.780  3.7046 -0.3339  0.1286
47386SOL     OW52087   4.526   2.354  12.568  0.0102 -0.4035  0.1657
47386SOL    HW152088   4.504   2.312  12.651  1.4025  1.1317  1.3610
47386SOL    HW252089   4.619   2.334  12.555 -0.3094 -1.0787 -1.3376
47387SOL     OW52090   8.255   0.562   2.049  0.0533  0.2936  0.0945
47387SOL    HW152091   8.301   0.507   2.113  1.4168 -0.1291 -1.2143
47387SOL    HW252092   8.247   0.647   2.093  1.5911  0.2159  0.5950
47388SOL     OW52093  10.752   8.369   2.703  0.2986  0.4212  0.4515
47388SOL    HW152094  10.787   8.457   2.687  1.3178 -0.2474 -1.2061
47388SOL    HW252095  10.658   8.377   2.686  0.1258  1.4848  1.7138
47389SOL     OW52096   5.493  10.427   7.381  0.2693 -0.2877 -0.7523
47389SOL    HW152097   5.538  10.512   7.377  0.0831 -0.1875 -0.7168
47389SOL    HW252098   5.421  10.441   7.442  2.0584 -1.3248  1.7796
47390SOL     OW52099  11.630  11.315   0.335  0.7197 -0.5264 -0.1090
47390SOL    HW152100  11.603  11.300   0.245  1.0985 -0.0725 -0.3031
47390SOL    HW252101  11.601  11.238   0.383  0.5271 -0.7703 -0.6224
47391SOL     OW52102  11.621   0.758   4.448  0.2975  0.3404 -1.0370
47391SOL    HW152103  11.532   0.790   4.431 -0.7257 -1.8945 -0.2102
47391SOL    HW252104  11.643   0.706   4.371 -0.6474 -2.1427  0.2803
47392SOL     OW52105   5.396   1.345   4.462  0.0854  0.2892 -0.2354
47392SOL    HW152106   5.310   1.326   4.424 -0.3861  2.1806 -0.1923
47392SOL    HW252107   5.429   1.259   4.490 -2.7833 -0.2592  1.8973
47393SOL     OW52108   9.769  10.966   6.417 -0.6223 -0.4527  0.0380
47393SOL    HW152109   9.802  11.045   6.460 -0.6280 -0.4563  0.0482
47393SOL    HW252110   9.762  10.902   6.488  0.3473 -0.7717 -0.1292
47394SOL     OW52111   0.783   6.049  12.859 -0.5503 -0.5224 -0.2302
47394SOL    HW152112   0.874   6.027  12.878  0.1117  0.4978 -1.9303
47394SOL    HW252113   0.783   6.144  12.849 -1.7846 -0.5213 -0.3534
47395SOL     OW52114   2.114  11.525   4.690 -0.5942  0.1835  0.0119
47395SOL    HW152115   2.023  11.527   4.719 -0.6018  1.7537 -0.0737
47395SOL    HW252116   2.109  11.530   4.594 -0.4049  1.0248  0.0420
47396SOL     OW52117   0.982   1.365   5.262  0.6519  0.1281 -0.2381
47396SOL    HW152118   1.067   1.377   5.304  1.2675  0.9956 -1.6615
47396SOL    HW252119   0.975   1.438   5.202 -2.3768  1.6998  1.8130
47397SOL     OW52120   1.578   5.144  12.708  0.7576 -0.0069 -0.1954
47397SOL    HW152121   1.637   5.089  12.760  0.0473 -1.0091 -0.4237
47397SOL    HW252122   1.565   5.095  12.627 -0.3572  0.2110 -0.1597
47398SOL     OW52123   1.884   3.640   3.744  0.3516  0.3202  0.0471
47398SOL    HW152124   1.821   3.571   3.767  0.5235  0.3091  0.4966
47398SOL    HW252125   1.964   3.592   3.720  0.4737  0.3621  0.3670
47399SOL     OW52126   0.058  12.935   5.646  0.1196 -0.1596 -0.8620
47399SOL    HW152127   0.014  12.991   5.582 -0.2003  2.3036  1.3515
47399SOL    HW252128  -0.014  12.888   5.689  0.0944  0.1811 -0.5316
47400SOL     OW52129   4.110   4.200  12.481 -0.1395  0.2752  0.3737
47400SOL    HW152130   4.112   4.121  12.535  0.2277 -0.0426 -0.0971
47400SOL    HW252131   4.048   4.180  12.410 -1.7281  1.2072  1.4352
47401SOL     OW52132   7.952   9.543   3.376  0.1487  0.3564 -0.6202
47401SOL    HW152133   8.030   9.553   3.430 -1.1209 -0.6734  1.5636
47401SOL    HW252134   7.942   9.448   3.366 -1.0013  0.4491 -0.5365
47402SOL     OW52135   4.196  11.221  10.684  0.7914  0.1086 -0.1941
47402SOL    HW152136   4.175  11.202  10.593 -0.4241 -1.1926  0.3158
47402SOL    HW252137   4.136  11.292  10.708  0.1846 -0.4344 -0.0629
47403SOL     OW52138   2.646  12.032  11.978  0.1188 -0.5011  0.2826
47403SOL    HW152139   2.691  12.095  12.034  0.1256  0.5528 -0.8467
47403SOL    HW252140   2.553  12.044  11.998  0.1367 -0.3106  0.2523
47404SOL     OW52141   8.911   3.258  13.272 -0.5792  0.4413 -0.3443
47404SOL    HW152142   8.818   3.238  13.264 -0.9297  1.9415 -0.2859
47404SOL    HW252143   8.955   3.174  13.259 -1.8681 -0.0401 -1.9857
47405SOL     OW52144   4.472   2.853  12.327  0.2654  0.3458 -0.8092
47405SOL    HW152145   4.477   2.763  12.360 -0.8137 -0.0511 -1.6836
47405SOL    HW252146   4.378   2.872  12.324  0.4949  1.9719  0.5761
47406SOL     OW52147   4.378   5.763  12.370 -0.0230  0.4249 -0.9980
47406SOL    HW152148   4.381   5.785  12.463  1.0463 -0.9048 -0.6829
47406SOL    HW252149   4.300   5.808  12.337 -1.3867 -0.4211  0.8851
47407SOL     OW52150   7.054   4.249  12.082 -0.1204 -0.1047  0.1155
47407SOL    HW152151   7.110   4.308  12.032  2.7670 -0.3737  2.7663
47407SOL    HW252152   7.015   4.191  12.016 -0.3571  2.4940 -2.1981
47408SOL     OW52153   0.820   6.295   5.631 -0.1555  0.7582 -0.0735
47408SOL    HW152154   0.835   6.227   5.565 -2.8657  1.7421 -1.8978
47408SOL    HW252155   0.832   6.250   5.715  0.5040 -1.3355 -1.2057
47409SOL     OW52156  10.459  11.211  13.175 -0.5045 -0.1584  0.5013
47409SOL    HW152157  10.439  11.305  13.171 -1.5447 -0.2899  1.9732
47409SOL    HW252158  10.374  11.168  13.172  0.0088 -1.1412 -1.1459
47410SOL     OW52159   2.473  10.343   7.851  0.1501 -0.0111  0.1657
47410SOL    HW152160   2.441  10.254   7.863  2.1705 -0.9034 -0.6075
47410SOL    HW252161   2.454  10.363   7.759  1.1127 -0.2701 -0.0984
47411SOL     OW52162   9.086   3.172   2.203  0.3981  0.1048  0.2810
47411SOL    HW152163   9.047   3.233   2.265 -1.1348 -0.0425 -0.4953
47411SOL    HW252164   9.105   3.225   2.126  0.3235 -0.1248  0.1028
47412SOL     OW52165  12.467  10.870   5.697 -0.1100 -0.4275  0.1706
47412SOL    HW152166  12.524  10.937   5.658 -1.6002  0.9475  0.2285
47412SOL    HW252167  12.504  10.787   5.669  2.0934  0.3911  0.4638
47413SOL     OW52168   5.758  11.598   0.360  0.2727 -0.1952 -0.3806
47413SOL    HW152169   5.700  11.622   0.433  0.5253  1.0025 -0.5543
47413SOL    HW252170   5.846  11.618   0.391  1.0481 -4.4536  0.9176
47414SOL     OW52171   1.721   0.306   9.016 -0.0256  0.1089 -0.2547
47414SOL    HW152172   1.719   0.317   9.111  0.6798  0.1368 -0.2378
47414SOL    HW252173   1.782   0.234   9.002 -1.3007 -0.9267 -0.6068
47415SOL     OW52174   1.341   8.810   5.288  0.8161 -0.2021  0.2637
47415SOL    HW152175   1.341   8.793   5.382 -0.9017 -0.8494  0.1707
47415SOL    HW252176   1.341   8.905   5.281 -0.7118 -0.1192  0.9699
47416SOL     OW52177   5.740   1.296   4.705 -0.0760  0.2579  0.4010
47416SOL    HW152178   5.769   1.343   4.626  0.2348 -1.7858 -0.7702
47416SOL    HW252179   5.820   1.284   4.756  0.2093 -0.7056 -0.2552
47417SOL     OW52180   3.345  10.425  12.945  0.0216 -0.0743 -0.0099
47417SOL    HW152181   3.253  10.417  12.973  0.5508  2.4650  2.9802
47417SOL    HW252182   3.395  10.399  13.022  1.7684  0.9208 -0.7616
47418SOL     OW52183   0.094   4.973   5.728 -0.2608 -0.0997 -0.4131
47418SOL    HW152184   0.186   4.950   5.718 -0.1380 -0.4784  1.3111
47418SOL    HW252185   0.054   4.894   5.765 -1.0323  0.4837  0.0107
47419SOL     OW52186  11.667   4.485   6.510 -0.3510 -0.0529 -0.0568
47419SOL    HW152187  11.605   4.546   6.550 -1.8601 -2.5223  1.6741
47419SOL    HW252188  11.618   4.403   6.503  2.9007 -2.3993  2.1467
47420SOL     OW52189  12.759   0.630   2.838 -0.5268 -0.0557  0.0772
47420SOL    HW152190  12.854   0.638   2.849 -0.5503  0.1023  0.1660
47420SOL    HW252191  12.740   0.684   2.761 -0.5823  0.1445  0.2291
47421SOL     OW52192   1.939   3.985   7.822 -0.3744 -0.3772  0.3188
47421SOL    HW152193   1.984   3.900   7.834 -1.2800 -1.0643 -0.9396
47421SOL    HW252194   1.885   3.972   7.745  0.2263  1.6932 -0.5084
47422SOL     OW52195   8.812   6.079   1.734 -0.4936 -0.1639  0.7840
47422SOL    HW152196   8.726   6.116   1.755 -0.4993 -0.1382  0.7143
47422SOL    HW252197   8.842   6.130   1.659  0.9893  2.0427  2.7515
47423SOL     OW52198   9.904   6.010   3.884  0.2355  0.0446 -0.1612
47423SOL    HW152199   9.960   5.996   3.807 -1.8633 -1.5998 -1.5018
47423SOL    HW252200   9.962   6.051   3.948  2.4851  0.0777 -2.0609
47424SOL     OW52201  13.088   2.243  11.723  0.1369 -0.0469 -0.1291
47424SOL    HW152202  13.088   2.174  11.656  1.9218  0.5933 -0.8645
47424SOL    HW252203  12.996   2.271  11.729 -0.7380 -2.7372  0.5346
47425SOL     OW52204   7.292   5.738  12.277 -0.3659  0.5739  0.3849
47425SOL    HW152205   7.353   5.765  12.208 -0.3867 -0.8814 -0.2451
47425SOL    HW252206   7.256   5.820  12.311  2.8037  1.5767  1.6361
47426SOL     OW52207   6.067  12.881  12.146 -0.0461 -0.6249 -0.5944
47426SOL    HW152208   6.137  12.931  12.187  1.0353 -1.9994 -0.7131
47426SOL    HW252209   5.987  12.919  12.181  0.7789  0.2268  0.4195
47427SOL     OW52210   3.348  12.445   2.439 -0.2217  0.0297  0.0632
47427SOL    HW152211   3.380  12.510   2.376 -0.8340  1.3669  1.0735
47427SOL    HW252212   3.290  12.389   2.387  1.5030 -0.7216 -1.1628
47428SOL     OW52213   8.526  11.521   5.808 -0.1700 -0.4673  0.3154
47428SOL    HW152214   8.620  11.519   5.827 -0.0066  0.9517 -0.2302
47428SOL    HW252215   8.520  11.552   5.718 -1.2016  1.0861  0.8749
47429SOL     OW52216  12.334   1.203   8.382  0.4197 -0.5316 -0.5423
47429SOL    HW152217  12.247   1.236   8.403  0.3770  1.2655 -3.0291
47429SOL    HW252218  12.378   1.194   8.466 -2.2919 -2.0770  0.8536
47430SOL     OW52219   1.991  10.704   2.263  0.2361  0.6337  0.1002
47430SOL    HW152220   1.904  10.712   2.224  0.3712  1.0903 -0.1127
47430SOL    HW252221   1.980  10.638   2.332 -0.2479  0.5978 -0.0059
47431SOL     OW52222   4.394  11.601   3.726 -0.1964 -0.1368  0.3135
47431SOL    HW152223   4.346  11.522   3.703 -1.0114  0.2778  0.5588
47431SOL    HW252224   4.353  11.631   3.807  0.6342  0.0994  0.6531
47432SOL     OW52225   3.288   0.005  12.098  0.2424 -0.6751 -0.4196
47432SOL    HW152226   3.341   0.074  12.058  0.9519 -0.4346  0.8755
47432SOL    HW252227   3.345  -0.072  12.096  0.1409 -0.7542 -0.2051
47433SOL     OW52228  11.381   2.209   4.241 -0.2199 -0.0402  0.2107
47433SOL    HW152229  11.297   2.225   4.285 -1.8586 -1.4805 -2.1901
47433SOL    HW252230  11.364   2.136   4.183  1.8955  1.4720 -2.5361
47434SOL     OW52231   9.572  13.254  10.632 -0.0628  0.2258  0.4847
47434SOL    HW152232   9.516  13.191  10.676 -0.9511  2.2527  2.4481
47434SOL    HW252233   9.574  13.226  10.541 -0.7798 -2.3150  1.1896
47435SOL     OW52234  12.787   2.291   4.660 -0.1712 -0.1784 -0.1445
47435SOL    HW152235  12.823   2.207   4.689 -0.0708 -0.3640 -0.7803
47435SOL    HW252236  12.842   2.316   4.585  0.5445  1.0291  0.7336
47436SOL     OW52237   7.655  10.933   1.950  0.1680  0.3770  0.3423
47436SOL    HW152238   7.634  11.025   1.968 -1.1423  0.2947 -0.6278
47436SOL    HW252239   7.703  10.904   2.027 -0.0231  1.6689  0.9785
47437SOL     OW52240  12.646   9.767   7.967 -0.1670 -0.0493  0.2789
47437SOL    HW152241  12.588   9.755   7.892  0.7378 -0.2000 -0.4202
47437SOL    HW252242  12.648   9.862   7.980 -3.0072 -0.1614  2.3256
47438SOL     OW52243   6.777   3.286   2.310 -0.2410  0.1718 -0.0275
47438SOL    HW152244   6.691   3.268   2.346 -0.1251 -0.2762  0.0379
47438SOL    HW252245   6.838   3.247   2.373  0.0856  1.8239  0.7316
47439SOL     OW52246   1.663   4.614   9.766 -1.0968 -0.7150  0.0668
47439SOL    HW152247   1.638   4.610   9.859 -0.7111  0.0694  0.2085
47439SOL    HW252248   1.694   4.526   9.747 -0.2081 -0.6179  0.9692
47440SOL     OW52249   4.505   8.199   3.758 -0.4583 -0.0019 -0.7946
47440SOL    HW152250   4.410   8.212   3.763 -0.4724  0.4857 -2.1636
47440SOL    HW252251   4.515   8.104   3.745 -0.8709  0.1730 -2.6380
47441SOL     OW52252   5.950  12.394   1.426 -0.7402 -0.1398  0.2015
47441SOL    HW152253   6.005  12.316   1.424 -0.7642 -0.1507 -0.0948
47441SOL    HW252254   5.869  12.368   1.381 -0.5384  0.2139 -0.3746
47442SOL     OW52255   4.900   8.976  11.061 -0.3789 -0.3598  0.6009
47442SOL    HW152256   4.943   8.991  11.145  0.1269  2.0178  0.0211
47442SOL    HW252257   4.820   9.028  11.065 -0.4618 -0.3962 -0.2926
47443SOL     OW52258  10.233   5.627   0.854  0.2583  0.2578  0.0836
47443SOL    HW152259  10.233   5.676   0.936  0.5778  0.0897  0.1834
47443SOL    HW252260  10.325   5.616   0.832  0.2374 -1.1896  0.6103
47444SOL     OW52261   1.334   6.406   5.855 -0.5416  0.2788 -0.2635
47444SOL    HW152262   1.367   6.372   5.938 -1.0233 -1.4563 -0.7357
47444SOL    HW252263   1.248   6.366   5.846  0.4702 -1.5845 -2.7365
47445SOL     OW52264   6.752  12.657   0.034 -0.0846  0.5167 -0.1236
47445SOL    HW152265   6.788  12.660   0.123  0.4456  2.0029 -0.3629
47445SOL    HW252266   6.682  12.592   0.039 -0.1114  0.6186  1.4053
47446SOL     OW52267   5.228   4.738   1.737  0.4532  0.0618 -0.4642
47446SOL    HW152268   5.196   4.726   1.827  1.6717  0.5664  0.0506
47446SOL    HW252269   5.265   4.826   1.736 -0.1360  0.3168 -1.6613
47447SOL     OW52270   8.650   6.414   0.099  0.2698 -0.6026 -0.4183
47447SOL    HW152271   8.677   6.457   0.018  0.5277 -0.9538 -0.5180
47447SOL    HW252272   8.722   6.354   0.120  2.3314  2.4861  2.3627
47448SOL     OW52273  10.652  10.319   3.251  0.0993 -0.0450  0.2787
47448SOL    HW152274  10.575  10.277   3.290 -0.9101  1.6940  0.2379
47448SOL    HW252275  10.722  10.255   3.263 -1.0836 -1.2156  1.3259
47449SOL     OW52276   3.166   6.963   2.888 -0.0642  0.5778  0.3129
47449SOL    HW152277   3.130   6.971   2.976 -1.8339 -0.8262 -0.2167
47449SOL    HW252278   3.171   7.053   2.855  0.3417  1.0897  1.7217
47450SOL     OW52279   4.740   0.736   9.693  0.5270  0.3542 -0.3487
47450SOL    HW152280   4.684   0.723   9.769  0.6203  0.9362 -0.1782
47450SOL    HW252281   4.790   0.654   9.686 -1.5308 -0.8848 -1.5282
47451SOL     OW52282   7.379  10.291   6.969  0.4465 -0.3075  0.1366
47451SOL    HW152283   7.339  10.248   6.893  0.4131  1.2134 -0.7606
47451SOL    HW252284   7.307  10.300   7.032 -0.2161  0.7573 -0.7300
47452SOL     OW52285  13.247  12.113   2.647 -0.0813  0.0130 -0.0472
47452SOL    HW152286  13.321  12.117   2.707 -1.2932 -0.1771  1.5064
47452SOL    HW252287  13.213  12.024   2.656 -1.7742  0.7101  0.8791
47453SOL     OW52288   5.956   9.261   6.157  0.0828  0.2844 -0.5671
47453SOL    HW152289   5.939   9.355   6.162 -0.6528  0.1095  0.5192
47453SOL    HW252290   6.052   9.253   6.161  0.1318  0.9738 -0.3884
47454SOL     OW52291   9.598   2.994   7.671 -0.1073  0.0962 -0.5306
47454SOL    HW152292   9.537   3.060   7.638 -1.9256 -1.0058  0.4716
47454SOL    HW252293   9.608   2.932   7.599 -0.9043 -0.1985 -0.3910
47455SOL     OW52294   9.418   0.414  12.966 -0.1188  0.1645  0.3022
47455SOL    HW152295   9.380   0.463  13.038 -0.4159  0.9066 -0.3468
47455SOL    HW252296   9.413   0.473  12.891 -2.0406 -1.4034 -0.9304
47456SOL     OW52297   1.823  13.052  11.992  0.3469  0.2582 -0.2490
47456SOL    HW152298   1.877  13.106  12.051 -0.1081  1.6469 -1.0552
47456SOL    HW252299   1.868  13.058  11.908 -0.3797  0.4139 -0.6346
47457SOL     OW52300   9.794  10.344   8.039  0.2415  0.4034 -0.6492
47457SOL    HW152301   9.733  10.327   8.110  0.7926  0.4500 -0.1567
47457SOL    HW252302   9.748  10.406   7.981  0.6643  2.2291  0.8822
47458SOL     OW52303   8.747   6.476   1.364  0.1989  0.2286  0.4091
47458SOL    HW152304   8.832   6.470   1.407  0.0632  1.0905  0.8166
47458SOL    HW252305   8.715   6.563   1.386 -0.6357  0.0455 -0.0339
47459SOL     OW52306  11.199   7.590   1.828  0.2216 -0.0023 -0.5467
47459SOL    HW152307  11.146   7.658   1.868 -1.4977 -1.1022 -0.8637
47459SOL    HW252308  11.156   7.571   1.745  1.9610  0.0681 -1.5088
47460SOL     OW52309   4.503   6.270   6.280  0.6457 -0.1309 -0.3823
47460SOL    HW152310   4.473   6.275   6.189 -2.3548 -1.3177  0.4207
47460SOL    HW252311   4.572   6.203   6.279  0.7052 -0.0813 -1.7832
47461SOL     OW52312   6.044   3.885   0.794  0.3981 -0.1792 -0.5576
47461SOL    HW152313   6.092   3.803   0.802  1.0989  0.3363  0.8776
47461SOL    HW252314   5.986   3.887   0.869 -0.4881  0.1019 -1.2362
47462SOL     OW52315   5.494   0.865   3.440 -0.7846 -0.2405 -0.4603
47462SOL    HW152316   5.583   0.871   3.472 -1.3467  3.2587  0.8708
47462SOL    HW252317   5.499   0.896   3.349 -0.5558 -0.9426 -0.6957
47463SOL     OW52318  11.403   1.829  10.940 -0.4952  0.3522 -0.7393
47463SOL    HW152319  11.411   1.922  10.916 -1.1701  0.0596 -2.1910
47463SOL    HW252320  11.318   1.803  10.905  0.2788 -1.1557 -1.5558
47464SOL     OW52321   1.648  13.117   3.961 -0.3083  0.1542 -0.4396
47464SOL    HW152322   1.699  13.037   3.953 -0.0553  0.3902 -1.2112
47464SOL    HW252323   1.631  13.125   4.055 -1.2858 -1.3907 -0.4472
47465SOL     OW52324   9.093   4.611   3.282 -0.3043 -0.1492 -0.4392
47465SOL    HW152325   9.037   4.533   3.274 -1.7710  0.9287 -1.2274
47465SOL    HW252326   9.041   4.673   3.333  0.6831  0.4660 -0.1495
47466SOL     OW52327  12.783   4.815   8.167  0.1593  0.5031  0.0453
47466SOL    HW152328  12.774   4.908   8.188 -0.0315  0.6330 -0.6071
47466SOL    HW252329  12.835   4.812   8.087  0.1881  0.0466  0.0756
47467SOL     OW52330   0.774  10.559   4.638  0.3205  0.0212 -0.5243
47467SOL    HW152331   0.821  10.573   4.719 -0.5259  0.3951 -0.0858
47467SOL    HW252332   0.685  10.535   4.665  0.3888 -1.2497 -1.3179
47468SOL     OW52333   8.024  10.658  11.921  0.4335  0.3090  0.4923
47468SOL    HW152334   7.983  10.590  11.975 -1.6904  1.0948 -0.0235
47468SOL    HW252335   8.027  10.619  11.833  3.4097 -0.7693  0.9564
47469SOL     OW52336   1.646   1.405   1.405 -0.7900 -0.0593 -0.1055
47469SOL    HW152337   1.666   1.490   1.367  0.5696 -0.6679 -0.8348
47469SOL    HW252338   1.620   1.424   1.495  0.9807  1.0361  0.2275
47470SOL     OW52339  11.222   6.008   3.255  0.2732  0.5139 -0.1298
47470SOL    HW152340  11.285   5.937   3.241 -0.5143  0.0955 -1.8013
47470SOL    HW252341  11.260   6.083   3.209  1.3547  1.3905  2.0593
47471SOL     OW52342   3.252   6.626   7.702 -0.0294  0.0368 -0.4829
47471SOL    HW152343   3.201   6.545   7.700 -0.7489  0.4807 -0.6125
47471SOL    HW252344   3.209   6.679   7.770  0.5456  0.2365 -0.2736
47472SOL     OW52345   0.671   9.620   6.237  0.1546 -0.0844  0.0341
47472SOL    HW152346   0.673   9.582   6.325  0.9753 -0.7668 -0.2625
47472SOL    HW252347   0.686   9.545   6.179 -0.0703  0.4098 -0.6729
47473SOL     OW52348   9.416   1.519  13.155  0.2529 -0.2711 -0.4199
47473SOL    HW152349   9.354   1.446  13.169 -0.6087  0.5307  0.0744
47473SOL    HW252350   9.501   1.481  13.175 -0.0333 -1.4790 -1.3712
47474SOL     OW52351   9.276  11.368   4.014  0.6093 -0.2519 -0.5048
47474SOL    HW152352   9.239  11.456   4.010  1.3486  0.0893  0.0454
47474SOL    HW252353   9.250  11.334   4.099  0.4343 -0.5246 -0.6630
47475SOL     OW52354   0.018   0.807   9.042 -1.0379  0.0953 -0.4522
47475SOL    HW152355  -0.043   0.750   9.089 -0.7870 -0.6145 -0.9613
47475SOL    HW252356   0.076   0.746   8.995 -0.2081  0.7589 -0.3168
47476SOL     OW52357   7.942  13.037   8.786 -0.3101  0.6909  0.2239
47476SOL    HW152358   7.888  13.081   8.721 -0.7051 -0.3561 -0.1627
47476SOL    HW252359   7.950  12.947   8.755 -0.2988  0.2350  1.4898
47477SOL     OW52360   1.050   0.579   4.969  0.5371  0.2693  0.5392
47477SOL    HW152361   1.048   0.637   5.045  1.7816 -0.6533  1.3130
47477SOL    HW252362   0.961   0.544   4.963  0.6517 -0.3975  2.1889
47478SOL     OW52363  12.170   0.607   8.641  1.1481 -0.3457  0.4253
47478SOL    HW152364  12.178   0.678   8.705  2.1740 -0.1760  0.1231
47478SOL    HW252365  12.259   0.595   8.607  0.7116 -0.7874 -0.5974
47479SOL     OW52366  12.795   1.336   8.477 -0.0088 -0.1464  0.0571
47479SOL    HW152367  12.804   1.243   8.496 -0.2977 -0.0722  0.5646
47479SOL    HW252368  12.825   1.380   8.557 -0.6981  0.1790  0.1455
47480SOL     OW52369  12.190  12.135   8.709  0.7460  0.6520 -0.6332
47480SOL    HW152370  12.192  12.227   8.683  0.3210  1.0299  0.6378
47480SOL    HW252371  12.258  12.094   8.655  1.4039  1.8365 -0.7352
47481SOL     OW52372   2.278   4.303   8.742 -0.1547  0.2739 -0.3335
47481SOL    HW152373   2.185   4.325   8.737 -0.0671  1.3737  1.7208
47481SOL    HW252374   2.285   4.249   8.820  1.1680  1.7976  0.6597
47482SOL     OW52375   1.319   4.335   0.053  0.2543 -0.0887 -0.1768
47482SOL    HW152376   1.357   4.304  -0.029 -0.2200  0.8005 -0.7489
47482SOL    HW252377   1.290   4.424   0.034  0.4622  0.2661  1.0684
47483SOL     OW52378   5.149   7.530   1.290 -0.2202 -0.1176 -0.6487
47483SOL    HW152379   5.190   7.509   1.374 -0.8865  3.2820  0.6602
47483SOL    HW252380   5.080   7.464   1.281 -0.8575  0.0600  2.0328
47484SOL     OW52381  10.041  12.074   8.103 -0.0692  0.0424 -0.5301
47484SOL    HW152382  10.114  12.043   8.049  0.3096 -0.7403  0.3903
47484SOL    HW252383   9.976  12.003   8.098 -1.4209  1.3246 -2.4736
47485SOL     OW52384   0.705   3.672   2.719 -0.1293 -0.5907  0.1376
47485SOL    HW152385   0.660   3.666   2.804  1.6020  0.7462  1.2097
47485SOL    HW252386   0.687   3.588   2.677 -0.4261 -1.6137  2.1571
47486SOL     OW52387   2.647   7.210   9.512  0.0440 -0.2704  0.3416
47486SOL    HW152388   2.568   7.193   9.462 -0.1605 -1.4702  1.0365
47486SOL    HW252389   2.674   7.298   9.486 -1.8184  0.3909  0.5015
47487SOL     OW52390   9.563  11.319   3.363  0.3178  0.1582 -0.0634
47487SOL    HW152391   9.600  11.231   3.363  0.2165  0.1063 -0.5907
47487SOL    HW252392   9.486  11.312   3.306  1.7951  1.1750 -2.3432
47488SOL     OW52393   4.015   3.210  10.523 -0.1763  0.1859 -0.2306
47488SOL    HW152394   3.949   3.195  10.590  0.3997 -0.5369  0.1818
47488SOL    HW252395   4.098   3.186  10.564  0.2847  0.5475 -0.9233
47489SOL     OW52396   5.893  11.266   7.085 -0.2055 -0.4623  0.9039
47489SOL    HW152397   5.930  11.342   7.040  1.7106  0.7273  4.1096
47489SOL    HW252398   5.801  11.266   7.061  0.4774  0.5450 -2.1739
47490SOL     OW52399   4.772   3.067   7.539 -0.3141 -0.4612 -0.5909
47490SOL    HW152400   4.677   3.077   7.529 -0.2413  0.6838 -0.2938
47490SOL    HW252401   4.800   3.030   7.456 -0.8332  0.6913 -1.3113
47491SOL     OW52402   3.858  11.460   3.234  0.1862  0.2958  0.4642
47491SOL    HW152403   3.822  11.373   3.215  0.8310  0.0907  0.1426
47491SOL    HW252404   3.860  11.464   3.329  2.0744 -0.8952  0.5354
47492SOL     OW52405   1.951   0.707   4.160 -0.1277 -0.5347 -0.1847
47492SOL    HW152406   1.970   0.759   4.082 -1.8753  1.6328  0.6953
47492SOL    HW252407   1.857   0.688   4.154 -0.6573  0.9025  1.9366
47493SOL     OW52408   4.290  10.776   6.880  0.1951  0.0460  0.3440
47493SOL    HW152409   4.249  10.742   6.959  0.8378  0.7498  0.9923
47493SOL    HW252410   4.352  10.842   6.911  0.1937  0.5984 -0.7692
47494SOL     OW52411   4.944   7.243   6.512  0.3953  0.6668 -0.0689
47494SOL    HW152412   4.985   7.317   6.557  0.3710  1.3706 -1.1651
47494SOL    HW252413   5.013   7.207   6.456 -0.2179  1.3654 -1.3292
47495SOL     OW52414   4.305   3.019  10.480 -0.3037  0.0961  0.0541
47495SOL    HW152415   4.265   2.945  10.524 -0.3765 -0.1910 -0.4910
47495SOL    HW252416   4.278   3.011  10.389 -0.4228  0.8682  0.0135
47496SOL     OW52417   4.679   0.141   7.019 -0.3542 -0.3811  0.0128
47496SOL    HW152418   4.637   0.224   7.041 -0.6282 -1.0833  2.5101
47496SOL    HW252419   4.608   0.077   7.016  0.0604 -0.8586  0.1111
47497SOL     OW52420  10.932   0.756   7.737  0.4734  0.0087  0.4286
47497SOL    HW152421  10.995   0.789   7.800  1.1212  3.2514 -1.6357
47497SOL    HW252422  10.984   0.731   7.661 -0.4506 -1.0195  0.1048
47498SOL     OW52423   1.473   8.038  11.390  0.1023 -0.2340 -0.3812
47498SOL    HW152424   1.402   8.081  11.437 -0.6947 -3.0213  1.1713
47498SOL    HW252425   1.436   8.016  11.305  0.9297  3.0615 -1.7497
47499SOL     OW52426   5.840   9.654   9.697 -0.5141 -0.1670  0.0682
47499SOL    HW152427   5.836   9.749   9.704 -0.0910 -0.0832 -0.6697
47499SOL    HW252428   5.894   9.626   9.771  3.1913  0.5918 -2.0742
47500SOL     OW52429   5.366   3.012  11.475 -0.2599  0.2382  0.0953
47500SOL    HW152430   5.297   3.031  11.412 -1.1854 -1.0098  0.7171
47500SOL    HW252431   5.413   2.937  11.438  0.9137  1.1845 -0.4138
47501SOL     OW52432   1.785  11.633   5.832 -0.0463  0.2378 -0.3171
47501SOL    HW152433   1.813  11.565   5.771 -0.0047  0.9571 -1.1117
47501SOL    HW252434   1.772  11.711   5.778  2.0652  1.4963  0.8642
47502SOL     OW52435   6.548   2.582  12.719 -0.4377 -0.2754 -0.4119
47502SOL    HW152436   6.475   2.543  12.768 -1.2625  0.5333 -0.9721
47502SOL    HW252437   6.577   2.655  12.773  2.4604 -2.6795  1.6747
47503SOL     OW52438   1.876   1.628   2.196 -0.1950 -0.1290 -0.0586
47503SOL    HW152439   1.839   1.549   2.236 -0.5685  0.8996  1.7410
47503SOL    HW252440   1.799   1.680   2.171 -0.1097  1.4125  2.4675
47504SOL     OW52441  10.409  11.107   8.426  0.2877 -0.3167 -0.4671
47504SOL    HW152442  10.433  11.089   8.517 -2.2984  1.7379  0.7485
47504SOL    HW252443  10.342  11.041   8.405  0.8667 -0.7777 -0.9163
47505SOL     OW52444   7.203   9.849   3.842  0.0434 -0.1914 -0.4322
47505SOL    HW152445   7.142   9.788   3.884 -2.4545 -0.2015 -3.6833
47505SOL    HW252446   7.239   9.801   3.768  3.0705  0.3236  0.5596
47506SOL     OW52447  13.158  11.010   8.175 -0.2192 -0.4763 -0.2667
47506SOL    HW152448  13.200  10.943   8.229 -2.5149 -2.5850 -0.9160
47506SOL    HW252449  13.105  11.061   8.236  2.0365  1.2651  0.3301
47507SOL     OW52450   8.154   9.127   1.330  0.1782  0.4674  0.3860
47507SOL    HW152451   8.151   9.142   1.235 -1.2324 -0.8251  0.1791
47507SOL    HW252452   8.135   9.033   1.339  1.8555  0.2233  1.8789
47508SOL     OW52453  12.004  10.698   9.953 -0.1204 -0.1145 -0.3426
47508SOL    HW152454  12.000  10.668   9.862  2.1442  1.0295 -0.9015
47508SOL    HW252455  11.955  10.781   9.953  1.9993  1.2310 -1.2176
47509SOL     OW52456   6.554   7.493   1.937 -0.5885 -0.1000  0.2843
47509SOL    HW152457   6.547   7.537   2.021  0.7997  0.1012  0.3045
47509SOL    HW252458   6.484   7.427   1.939 -1.5907  0.9447  0.9332
47510SOL     OW52459  10.848   2.118   4.035  0.4826 -0.4372 -0.1584
47510SOL    HW152460  10.922   2.099   3.978  0.7435  1.3841 -0.4794
47510SOL    HW252461  10.840   2.213   4.033 -0.3411 -0.4170  1.7953
47511SOL     OW52462   9.716   5.686   5.022 -0.0620  0.3144 -0.5524
47511SOL    HW152463   9.751   5.758   5.075  0.2606 -1.6107  2.0430
47511SOL    HW252464   9.791   5.629   5.005 -0.9014 -1.2630  0.7088
47512SOL     OW52465   0.478   8.061  10.852  0.1674 -0.1835  0.2541
47512SOL    HW152466   0.558   8.012  10.870  1.1004  1.7543  1.8327
47512SOL    HW252467   0.487   8.141  10.904 -1.4210  1.4937 -1.8435
47513SOL     OW52468   7.893  10.237   3.992 -0.0742  0.0655 -0.1406
47513SOL    HW152469   7.810  10.197   3.968  0.8289 -1.5274 -0.7411
47513SOL    HW252470   7.959  10.182   3.950  1.3551  0.4464  1.5047
47514SOL     OW52471  10.376   8.292  12.587 -0.0333  0.4241  0.0237
47514SOL    HW152472  10.351   8.303  12.679 -0.8508  0.7783 -0.2320
47514SOL    HW252473  10.465   8.326  12.583  0.8977 -1.6625  1.1348
47515SOL     OW52474   6.639   9.509   1.699  0.1973  0.0218 -0.2644
47515SOL    HW152475   6.730   9.523   1.727  0.3176 -0.8066 -0.2042
47515SOL    HW252476   6.647   9.462   1.616 -0.1754 -0.1823 -0.1850
47516SOL     OW52477   6.899   4.502   4.336  0.1210 -0.4587 -0.1070
47516SOL    HW152478   6.832   4.570   4.337  0.5936  0.0302 -1.0494
47516SOL    HW252479   6.979   4.547   4.310  0.4760 -1.3428 -0.5911
47517SOL     OW52480   7.659   5.909  11.815  0.1185  0.0878 -0.4072
47517SOL    HW152481   7.659   5.999  11.782 -2.3479 -0.4069 -2.0817
47517SOL    HW252482   7.709   5.860  11.750  0.2049  0.0331 -0.2984
47518SOL     OW52483   2.122   8.107   3.813 -0.2690 -0.0323  0.1331
47518SOL    HW152484   2.043   8.077   3.769 -0.4701 -0.3658  0.7065
47518SOL    HW252485   2.143   8.037   3.875  1.9283 -1.1541 -1.7271
47519SOL     OW52486  11.511   5.659   7.494 -0.0677  0.6431  0.1985
47519SOL    HW152487  11.458   5.718   7.548  1.3938  1.4880  0.7718
47519SOL    HW252488  11.510   5.576   7.541 -1.1025  0.5686  0.0520
47520SOL     OW52489  12.692   9.613  11.384  0.4068  0.5048  0.6342
47520SOL    HW152490  12.665   9.541  11.327  1.0013  0.0406  0.9238
47520SOL    HW252491  12.784   9.628  11.362  0.5970  0.4285  1.3503
47521SOL     OW52492   5.193  10.297   8.500  0.0827  0.2000  0.1183
47521SOL    HW152493   5.230  10.268   8.584 -1.7272  1.8207  1.5638
47521SOL    HW252494   5.101  10.267   8.504 -0.1505  0.7368 -1.0709
47522SOL     OW52495   6.565   5.673  10.232 -0.2902 -0.4455  0.3748
47522SOL    HW152496   6.651   5.654  10.270 -1.6080 -1.0799  3.3685
47522SOL    HW252497   6.536   5.752  10.277 -1.2930 -0.2213 -0.6244
47523SOL     OW52498   6.784   2.634   9.742  0.5972  0.0673 -0.3288
47523SOL    HW152499   6.816   2.554   9.784 -0.0497  0.2158  0.4671
47523SOL    HW252500   6.743   2.603   9.661  0.1030 -0.4477  0.1091
47524SOL     OW52501   4.701   0.229   7.850 -0.3908 -0.7736 -0.9595
47524SOL    HW152502   4.674   0.158   7.792  0.4190 -0.2886 -1.9659
47524SOL    HW252503   4.794   0.240   7.834  0.1249 -1.3611  1.2903
47525SOL     OW52504   9.176   0.056   4.081  0.5329 -0.3435  0.1648
47525SOL    HW152505   9.156   0.025   4.169 -1.5533 -2.0596 -0.8139
47525SOL    HW252506   9.269   0.038   4.069  0.6212 -0.9868  1.6752
47526SOL     OW52507   3.351  11.471   1.830  0.1434 -0.3897 -0.2690
47526SOL    HW152508   3.344  11.426   1.914 -0.3721 -0.9077 -0.5802
47526SOL    HW252509   3.260  11.487   1.804  0.2793 -0.8567 -1.0528
47527SOL     OW52510  10.178   2.232  12.594  0.6303 -0.0627 -0.0132
47527SOL    HW152511  10.227   2.308  12.564 -0.0674  0.3809 -0.0584
47527SOL    HW252512  10.193   2.165  12.527 -0.2598  0.6581 -0.9723
47528SOL     OW52513   2.596   1.903   0.134  0.2323  0.2267 -0.7039
47528SOL    HW152514   2.521   1.962   0.134  0.2175  0.2528  0.5388
47528SOL    HW252515   2.557   1.815   0.126  0.0768  0.2594 -0.3554
47529SOL     OW52516   9.831   9.784   0.873  0.0746  0.3207  0.1288
47529SOL    HW152517   9.838   9.846   0.801 -0.8357 -0.8254 -0.9838
47529SOL    HW252518   9.922   9.768   0.900  0.8631 -2.1347 -3.3527
47530SOL     OW52519  11.811   7.733   6.410 -0.1105  0.2627  0.4353
47530SOL    HW152520  11.884   7.670   6.410 -0.1139  0.2567 -0.2276
47530SOL    HW252521  11.786   7.739   6.502 -0.1816 -0.7961  0.5038
47531SOL     OW52522   8.891   8.316   1.374 -0.0603 -0.5333  0.1756
47531SOL    HW152523   8.953   8.374   1.330 -1.0189  0.8019  0.5393
47531SOL    HW252524   8.821   8.302   1.310  0.2738 -1.5287 -0.0023
47532SOL     OW52525  12.196  10.849  12.515 -0.1255  0.2057 -0.2072
47532SOL    HW152526  12.147  10.770  12.495  1.0198 -0.6104  0.0750
47532SOL    HW252527  12.159  10.916  12.458  0.3419 -1.0615 -2.1065
47533SOL     OW52528   7.263   8.685   5.117  0.1114  0.3851  0.1613
47533SOL    HW152529   7.240   8.641   5.036 -0.1214 -1.4920  1.1778
47533SOL    HW252530   7.246   8.778   5.101  1.1295  0.2286 -2.2712
47534SOL     OW52531   2.176   6.598   8.124  0.1066  0.1329 -0.1393
47534SOL    HW152532   2.191   6.570   8.034  0.9052  0.7621 -0.2140
47534SOL    HW252533   2.232   6.541   8.177 -1.7255 -1.4889  0.1726
47535SOL     OW52534  10.466   8.012   6.912  0.6055  0.1197 -0.1332
47535SOL    HW152535  10.537   7.975   6.860  0.3613 -0.5468 -0.0077
47535SOL    HW252536  10.485   7.985   7.002 -1.1771 -2.4308 -0.3955
47536SOL     OW52537   3.098  10.259   1.555  0.1178  0.6731  0.7124
47536SOL    HW152538   3.047  10.178   1.557  0.4977  0.4418  1.0781
47536SOL    HW252539   3.033  10.327   1.536 -0.4368  0.4650  1.7894
47537SOL     OW52540   2.661   3.932   4.468  0.1303 -0.1895  0.3013
47537SOL    HW152541   2.648   4.016   4.425  0.0303  0.1273  0.9455
47537SOL    HW252542   2.727   3.949   4.535 -1.0748 -0.2239  1.5387
47538SOL     OW52543   2.500   2.101  10.798  0.4200 -0.3533  0.4763
47538SOL    HW152544   2.473   2.137  10.714 -1.9674 -2.2932  0.2805
47538SOL    HW252545   2.528   2.177  10.849  1.9881  0.8730 -2.0306
47539SOL     OW52546  12.761   2.729   1.278 -0.1629 -0.1488  0.0328
47539SOL    HW152547  12.838   2.737   1.334  0.5638  0.9388 -1.0902
47539SOL    HW252548  12.796   2.707   1.192 -0.9816  1.5534 -0.7853
47540SOL     OW52549  11.667   7.064   9.107  0.1806 -0.2579  0.5954
47540SOL    HW152550  11.718   7.030   9.181  2.6768 -1.1376 -1.3859
47540SOL    HW252551  11.672   7.159   9.115  1.6133 -0.3364  0.8204
47541SOL     OW52552   5.087   4.952  10.547  0.2247  0.1082 -0.5062
47541SOL    HW152553   5.121   5.039  10.526 -0.2127 -0.0258 -1.8895
47541SOL    HW252554   4.993   4.965  10.558  0.0634 -0.2706 -1.3365
47542SOL     OW52555   5.265   8.030   2.284  0.4295 -0.0102 -0.1979
47542SOL    HW152556   5.197   8.050   2.220  0.0559  2.4297  0.8561
47542SOL    HW252557   5.221   7.977   2.351 -0.7217  2.2161  0.8867
47543SOL     OW52558  13.216   4.929   8.613 -0.8258  0.1745 -0.0336
47543SOL    HW152559  13.302   4.909   8.649 -0.5831  0.4407 -0.4434
47543SOL    HW252560  13.227   5.016   8.575 -1.5709  0.6630  0.8355
47544SOL     OW52561   9.291   6.045  10.139 -0.2070  0.0785  0.3657
47544SOL    HW152562   9.279   6.085  10.053 -0.0170 -0.5594  0.0384
47544SOL    HW252563   9.215   5.987  10.150  0.6776 -1.2241 -0.1644
47545SOL     OW52564  12.156  12.715   3.781  0.0230  0.2217 -0.3535
47545SOL    HW152565  12.176  12.767   3.859 -1.0914 -1.9660  1.5029
47545SOL    HW252566  12.063  12.734   3.764 -0.1521 -0.4656 -0.1866
47546SOL     OW52567   4.522   2.168   0.589  0.4896  0.0217 -0.2624
47546SOL    HW152568   4.606   2.213   0.599  1.1214 -1.2567  0.3537
47546SOL    HW252569   4.470   2.226   0.533  2.0504  0.4851 -1.2944
47547SOL     OW52570   6.907   3.119   2.770  0.1902  0.0123  0.6690
47547SOL    HW152571   6.849   3.167   2.712  1.1210  3.2588  2.1654
47547SOL    HW252572   6.864   3.122   2.855  0.2361 -2.0315  0.8127
47548SOL     OW52573   5.021   1.181   2.546 -0.2382 -0.6822 -0.1390
47548SOL    HW152574   4.939   1.148   2.508  0.0398 -0.6551 -0.7719
47548SOL    HW252575   5.029   1.270   2.511 -0.4780 -0.2939  0.7716
47549SOL     OW52576   1.983   8.927   8.923  0.3527  0.1615  0.4474
47549SOL    HW152577   2.025   8.855   8.969  1.5612  0.2294 -0.5099
47549SOL    HW252578   1.934   8.885   8.852  0.3485  0.2237  0.4131
47550SOL     OW52579   1.523  10.890  13.109 -0.7723 -0.1145  0.1803
47550SOL    HW152580   1.517  10.980  13.077  0.2948 -0.1076 -0.0305
47550SOL    HW252581   1.440  10.876  13.154 -1.0383  0.9089  0.0476
47551SOL     OW52582  10.588   0.733   3.598  0.0360 -0.0760  0.3682
47551SOL    HW152583  10.533   0.792   3.650 -0.1809  1.4865 -1.5222
47551SOL    HW252584  10.651   0.791   3.555 -0.0300 -1.2448 -1.3839
47552SOL     OW52585   5.167   4.386   3.217 -0.4240  0.2337 -0.3662
47552SOL    HW152586   5.138   4.456   3.158  1.3076  0.2416 -1.2555
47552SOL    HW252587   5.117   4.309   3.188 -1.7061  0.8766  0.0656
47553SOL     OW52588   1.171   3.440   2.034  0.0698 -0.0807  0.2398
47553SOL    HW152589   1.223   3.491   2.096  0.0718 -1.1290  1.1219
47553SOL    HW252590   1.142   3.504   1.969  1.2883  0.7767  0.5031
47554SOL     OW52591   1.488   7.019   3.717  0.3880  0.0511  0.3223
47554SOL    HW152592   1.503   7.047   3.627 -1.4693 -1.1600 -0.4286
47554SOL    HW252593   1.443   7.094   3.758  0.8939  0.4594  0.1400
47555SOL     OW52594   7.450  13.164  11.143 -0.1818  0.1832 -0.0964
47555SOL    HW152595   7.537  13.141  11.109  0.2667  0.7265  0.6577
47555SOL    HW252596   7.455  13.258  11.159 -0.4071 -0.0469  1.3851
47556SOL     OW52597   3.445   4.669  10.838 -0.7207  0.6300  0.1721
47556SOL    HW152598   3.477   4.672  10.929 -0.3395  2.4071  0.0109
47556SOL    HW252599   3.504   4.728  10.790 -2.5973  1.9307 -0.6476
47557SOL     OW52600  12.712   8.054  11.237 -0.1497  0.0196 -0.6334
47557SOL    HW152601  12.785   8.031  11.180 -0.5471  0.1070 -1.1842
47557SOL    HW252602  12.635   8.018  11.193 -0.5223  0.5489 -0.4218
47558SOL     OW52603   9.087   0.330   5.787  0.1314 -0.1824 -0.4786
47558SOL    HW152604   9.085   0.405   5.846 -1.5804 -0.5632 -0.0015
47558SOL    HW252605   9.137   0.264   5.834 -0.9611 -0.3775  0.4447
47559SOL     OW52606  13.228  12.808  11.583 -0.9802 -0.1510  0.2133
47559SOL    HW152607  13.134  12.792  11.593 -0.8505  0.3208  3.1778
47559SOL    HW252608  13.256  12.841  11.668  1.9786 -0.6960 -0.4179
47560SOL     OW52609   4.551  10.047   1.231 -0.3121  0.1352 -0.0774
47560SOL    HW152610   4.593  10.021   1.313 -1.0449  1.8514  0.9057
47560SOL    HW252611   4.616  10.099   1.185 -0.7229  1.2855  0.6110
47561SOL     OW52612   8.641   5.345   6.151  0.3099  0.0917  0.1199
47561SOL    HW152613   8.646   5.423   6.206  1.8445 -0.5587  0.9686
47561SOL    HW252614   8.623   5.273   6.212 -1.2712 -0.2465 -0.6696
47562SOL     OW52615  11.793   7.278  13.288 -0.2960  0.5932 -0.7115
47562SOL    HW152616  11.799   7.245  13.198 -1.1295 -0.8647 -0.2656
47562SOL    HW252617  11.859   7.228  13.336 -1.0928  0.0422 -0.1657
47563SOL     OW52618   2.478   6.639   3.548 -0.1275 -0.1786  0.2931
47563SOL    HW152619   2.533   6.579   3.497 -0.5037 -0.7232  0.5195
47563SOL    HW252620   2.411   6.669   3.486  0.5104  0.6226 -0.0312
47564SOL     OW52621   2.593   9.704   0.369 -0.0811  0.2376 -0.4506
47564SOL    HW152622   2.675   9.655   0.377 -1.6796 -2.5960 -0.1597
47564SOL    HW252623   2.615   9.792   0.398  2.6890 -0.6139  0.3306
47565SOL     OW52624   2.099   9.072  11.347 -0.5051  0.1861  0.3820
47565SOL    HW152625   2.191   9.100  11.346 -0.0640 -1.1620  0.4940
47565SOL    HW252626   2.056   9.128  11.284  0.3518  1.0062  0.5024
47566SOL     OW52627   0.673  12.761  11.258  0.0405  0.0635 -0.6342
47566SOL    HW152628   0.592  12.806  11.282  0.1458 -0.5955  1.1224
47566SOL    HW252629   0.659  12.670  11.286  0.5125 -0.6144 -2.4733
47567SOL     OW52630   8.229  12.491  11.826  0.0872 -0.6266  0.1546
47567SOL    HW152631   8.314  12.532  11.836 -0.1113 -0.2527  0.3273
47567SOL    HW252632   8.199  12.477  11.915 -0.3037 -0.1839  0.0976
47568SOL     OW52633   2.156   1.167   8.078 -0.0062  0.4158  0.7742
47568SOL    HW152634   2.236   1.218   8.071  1.0121 -1.0712  1.1924
47568SOL    HW252635   2.158   1.110   8.001 -0.5970  0.2679  0.8654
47569SOL     OW52636   1.484  10.420   5.773 -0.6680 -0.0196  0.1958
47569SOL    HW152637   1.399  10.405   5.815 -0.0284 -0.3831  1.4124
47569SOL    HW252638   1.482  10.365   5.695 -1.5152 -0.1002  0.2611
47570SOL     OW52639  10.497   8.285   8.081  0.1527  0.1154  0.1953
47570SOL    HW152640  10.544   8.320   8.157  2.4825 -1.8719 -0.2066
47570SOL    HW252641  10.527   8.339   8.008 -2.1633  2.0915  0.5842
47571SOL     OW52642   2.388  11.692   7.577  0.3043 -0.4483  0.1193
47571SOL    HW152643   2.328  11.703   7.503  2.2185 -1.8291 -1.7751
47571SOL    HW252644   2.334  11.654   7.646 -1.6665  1.3015 -0.3520
47572SOL     OW52645   7.176   0.754   6.142 -0.2422 -1.1766  0.2706
47572SOL    HW152646   7.128   0.827   6.103 -0.4578 -0.3872  1.9511
47572SOL    HW252647   7.108   0.699   6.181 -0.1326 -2.6115 -1.3972
47573SOL     OW52648  11.139   8.980  11.282 -0.5829  0.3302  0.4016
47573SOL    HW152649  11.181   8.909  11.332  3.0516  1.2225 -1.0831
47573SOL    HW252650  11.204   9.050  11.281 -2.0305  1.7777 -2.4062
47574SOL     OW52651  13.289   3.858  12.816 -0.1586  0.0127  0.4328
47574SOL    HW152652  13.223   3.796  12.785  0.7330 -1.2183  0.9293
47574SOL    HW252653  13.370   3.831  12.773  0.1357  1.2348  0.1770
47575SOL     OW52654   8.221   4.536   2.381 -0.2726  0.1698  0.3422
47575SOL    HW152655   8.155   4.588   2.336  0.6106  0.2621 -0.9092
47575SOL    HW252656   8.180   4.450   2.395 -0.7313  0.2959 -0.2160
47576SOL     OW52657   9.818  13.055   9.606  0.1653  0.0518 -0.2097
47576SOL    HW152658   9.840  13.147   9.618  0.5892 -0.2297  1.3117
47576SOL    HW252659   9.784  13.051   9.516 -1.0708  1.9078  0.1154
47577SOL     OW52660   2.505   4.674   0.241  0.1712 -0.1572 -0.1040
47577SOL    HW152661   2.513   4.628   0.325 -1.3534  0.8275  0.6118
47577SOL    HW252662   2.568   4.746   0.248  0.1293 -0.1432  0.1445
47578SOL     OW52663   8.374   4.201   1.058  0.5548 -0.5006  0.2875
47578SOL    HW152664   8.281   4.223   1.065  0.7397 -0.2039  2.8520
47578SOL    HW252665   8.379   4.108   1.078  0.8533 -0.3527  0.9490
47579SOL     OW52666  12.862  13.100   2.203  0.8588 -0.5167  0.4295
47579SOL    HW152667  12.876  13.178   2.149  1.7282  1.6890  3.5677
47579SOL    HW252668  12.767  13.089   2.205  0.7468  0.1453 -0.4726
47580SOL     OW52669   3.857   7.721   4.051  1.0751  0.2104 -0.3855
47580SOL    HW152670   3.803   7.783   4.002 -0.5191 -1.1228 -0.3980
47580SOL    HW252671   3.794   7.662   4.092  2.5232 -2.5047 -1.8213
47581SOL     OW52672  12.045   6.941   1.267 -0.0612 -0.0724  0.3218
47581SOL    HW152673  12.117   6.967   1.325 -0.7717  0.7409  0.8715
47581SOL    HW252674  12.029   7.019   1.212  0.8011 -0.9286 -1.2018
47582SOL     OW52675   8.761   8.650  13.303 -0.3121 -0.0714 -0.6286
47582SOL    HW152676   8.705   8.579  13.334 -0.1751 -0.4289 -1.1741
47582SOL    HW252677   8.812   8.675  13.380 -0.0951 -0.8228 -0.5104
47583SOL     OW52678   2.594  10.652   7.402 -0.0420 -0.4396  0.4486
47583SOL    HW152679   2.668  10.616   7.354 -0.4300  1.7162 -1.9730
47583SOL    HW252680   2.632  10.715   7.462  0.2681 -1.5218  1.4231
47584SOL     OW52681  11.877   9.907  10.185 -0.2083 -0.6303 -0.3668
47584SOL    HW152682  11.847   9.817  10.170 -0.6678 -0.9204  1.9656
47584SOL    HW252683  11.903   9.908  10.277  1.2745  1.2357 -0.7650
47585SOL     OW52684  13.264   3.403  10.523  0.1910  0.4344 -0.4159
47585SOL    HW152685  13.173   3.409  10.496 -0.4606  0.7216  1.6790
47585SOL    HW252686  13.268   3.452  10.606  1.8601 -0.9838  0.4058
47586SOL     OW52687   2.952   2.556   2.948  0.1088  0.1307 -0.2061
47586SOL    HW152688   2.933   2.514   2.864  3.0172  0.2852 -1.0663
47586SOL    HW252689   2.885   2.624   2.956 -1.5506 -1.2925 -1.3143
47587SOL     OW52690   9.736   3.375   8.909 -0.1390 -0.0674  0.2317
47587SOL    HW152691   9.656   3.361   8.857 -2.0485 -0.6942  3.1263
47587SOL    HW252692   9.769   3.287   8.926  0.6038  0.1467 -0.0639
47588SOL     OW52693  10.052   3.031   1.983  0.2310 -0.1705 -0.2739
47588SOL    HW152694   9.957   3.021   1.978  0.3200 -2.0917  0.8861
47588SOL    HW252695  10.082   3.006   1.895 -0.0916 -4.6700  0.6592
47589SOL     OW52696   8.283   5.772   4.401  0.4016  0.0480  0.1001
47589SOL    HW152697   8.198   5.804   4.430 -0.1371 -0.2109 -1.1233
47589SOL    HW252698   8.340   5.849   4.406  0.1074  0.2142  0.9588
47590SOL     OW52699   0.327  10.958  12.410 -0.1330  0.5414  0.0588
47590SOL    HW152700   0.356  11.049  12.407  1.1040  0.2575  1.7662
47590SOL    HW252701   0.257  10.953  12.345 -1.2507  3.0636  0.9234
47591SOL     OW52702   9.733   5.272   9.579  0.2714  0.3670 -0.1210
47591SOL    HW152703   9.761   5.334   9.647  1.6144 -0.9978  0.6374
47591SOL    HW252704   9.673   5.213   9.625  0.1488  0.2215 -0.4687
47592SOL     OW52705   8.654   2.758   1.873  0.2208 -0.0098  0.1746
47592SOL    HW152706   8.703   2.737   1.793 -1.9150 -0.2606 -1.1402
47592SOL    HW252707   8.563   2.767   1.844 -0.3702  1.6359  2.3068
47593SOL     OW52708   8.789   9.333   7.758 -0.5356  0.3947 -0.4112
47593SOL    HW152709   8.754   9.419   7.734 -0.0373  0.3957 -1.1644
47593SOL    HW252710   8.837   9.305   7.680 -0.1894 -0.3003  0.0528
47594SOL     OW52711   2.887   5.383   5.882  0.1800  0.0437 -0.3462
47594SOL    HW152712   2.936   5.301   5.889  0.4552  0.3098  0.9794
47594SOL    HW252713   2.821   5.366   5.814 -1.4454 -2.1341  1.6212
47595SOL     OW52714   3.072   7.338  11.447  0.6264  0.0622  0.3465
47595SOL    HW152715   3.069   7.384  11.532 -0.7340  0.7066 -0.0260
47595SOL    HW252716   2.988   7.293  11.441 -0.8901  2.8678 -2.1562
47596SOL     OW52717   7.611   9.236   7.627 -0.0128 -0.0340  0.0683
47596SOL    HW152718   7.679   9.197   7.571  0.2895 -0.6625  0.8530
47596SOL    HW252719   7.659   9.271   7.702 -0.5141 -0.2007  0.4767
47597SOL     OW52720   7.801   8.012  10.280  0.4230 -0.2619 -0.3423
47597SOL    HW152721   7.795   7.917  10.281  0.3617 -0.4301 -4.0601
47597SOL    HW252722   7.711   8.042  10.289  0.4364 -0.5096  0.7694
47598SOL     OW52723   2.893   4.326   9.660 -0.2665  0.1334  0.0385
47598SOL    HW152724   2.806   4.365   9.653 -0.1783  0.1541 -1.2356
47598SOL    HW252725   2.949   4.397   9.689 -0.7309  0.0104  1.3096
47599SOL     OW52726  12.999   3.835   9.473 -0.2062  0.4172 -0.3810
47599SOL    HW152727  12.934   3.833   9.403 -0.1090 -1.6390 -0.4663
47599SOL    HW252728  12.970   3.905   9.531 -2.4039 -0.3274 -0.5084
47600SOL     OW52729   0.431  12.661   7.709 -0.1604  0.2686 -0.5446
47600SOL    HW152730   0.522  12.688   7.715  0.0398 -0.5877  0.5426
47600SOL    HW252731   0.409  12.669   7.616  1.5625 -1.2929 -1.1258
47601SOL     OW52732   6.451   9.911  11.640  0.1476 -0.2151 -0.2657
47601SOL    HW152733   6.377   9.877  11.691 -0.1798 -1.2412 -1.3895
47601SOL    HW252734   6.415   9.926  11.552  0.7682  1.2712 -0.2992
47602SOL     OW52735  12.281   0.873   4.273  0.1040  0.0852 -0.2815
47602SOL    HW152736  12.376   0.879   4.281  0.6383 -1.6387 -3.4930
47602SOL    HW252737  12.248   0.880   4.362  3.4038 -1.2985  1.1842
47603SOL     OW52738   1.655  10.008  10.839  0.3003 -0.3032  0.4195
47603SOL    HW152739   1.682   9.930  10.889  0.8380  1.0837  2.4055
47603SOL    HW252740   1.714  10.077  10.868 -2.0358  1.5937  1.0628
47604SOL     OW52741   9.693   6.165   4.931  0.1097  0.5186 -0.4583
47604SOL    HW152742   9.647   6.154   5.013 -0.9307  0.8748 -0.9803
47604SOL    HW252743   9.721   6.076   4.906 -0.0750  0.3389 -0.0185
47605SOL     OW52744  12.587   1.034   8.709 -0.1929 -0.4775  0.2674
47605SOL    HW152745  12.658   1.093   8.736  0.7894 -1.5938  0.1994
47605SOL    HW252746  12.517   1.051   8.772  0.6787 -0.3689  1.2331
47606SOL     OW52747   5.686   8.687  10.517 -0.1687  0.4175 -0.3848
47606SOL    HW152748   5.639   8.716  10.438  0.7379  1.5162 -0.5428
47606SOL    HW252749   5.619   8.683  10.584 -0.8604 -0.0034 -1.0815
47607SOL     OW52750   1.920   2.054   9.257 -0.7100 -0.7204  0.0576
47607SOL    HW152751   1.959   2.096   9.334  0.3397  0.4597 -1.0818
47607SOL    HW252752   1.925   1.960   9.276 -1.4027 -0.4350  1.8457
47608SOL     OW52753  12.352   1.934  10.121  0.4555  0.0054  0.0675
47608SOL    HW152754  12.281   1.878  10.152 -1.0896  1.7640 -0.0669
47608SOL    HW252755  12.425   1.875  10.104 -0.6558 -1.7567  1.1598
47609SOL     OW52756   0.166   0.958   5.626 -0.1285 -0.2180 -0.5711
47609SOL    HW152757   0.227   1.018   5.581 -0.2878  0.1108 -0.3490
47609SOL    HW252758   0.159   0.993   5.715 -0.6375 -0.2549 -0.5925
47610SOL     OW52759   1.887   2.546   3.165  0.2165  0.5622 -0.4283
47610SOL    HW152760   1.934   2.519   3.086 -0.3086 -0.0898 -0.5299
47610SOL    HW252761   1.817   2.603   3.133 -0.4493 -0.2934 -0.5191
47611SOL     OW52762  11.789   9.396  10.624 -0.2984 -0.1922  0.3508
47611SOL    HW152763  11.864   9.348  10.659  1.0715  1.0737 -0.7355
47611SOL    HW252764  11.826   9.477  10.589 -2.2791  0.8027  0.4074
47612SOL     OW52765   5.294   5.007   1.738  0.7817  0.4086 -0.2045
47612SOL    HW152766   5.386   5.005   1.709  1.2231 -0.3159  1.1565
47612SOL    HW252767   5.287   5.088   1.789  0.6310  0.5091 -0.3830
47613SOL     OW52768   4.850  11.540  11.069 -0.5577 -0.1839 -0.7962
47613SOL    HW152769   4.782  11.481  11.037 -0.5143 -0.7020  0.0262
47613SOL    HW252770   4.896  11.569  10.990 -1.1254 -0.5680 -1.2803
47614SOL     OW52771   3.473  12.794  12.300 -0.4405  0.3247  0.4762
47614SOL    HW152772   3.421  12.747  12.365 -1.3023 -1.2190 -1.2508
47614SOL    HW252773   3.563  12.762  12.313 -0.8386 -1.0323  0.0403
47615SOL     OW52774   4.628  13.228   1.550  0.1176 -0.3706 -0.5771
47615SOL    HW152775   4.690  13.170   1.594  0.7187  0.0584 -0.8490
47615SOL    HW252776   4.542  13.192   1.572  0.3108  0.5098  1.9567
47616SOL     OW52777  11.919   5.309   0.112 -0.0835  0.9088 -0.1722
47616SOL    HW152778  11.855   5.364   0.157  1.2315  2.6124 -0.2977
47616SOL    HW252779  11.895   5.220   0.137 -1.3275  1.6077  1.3200
47617SOL     OW52780  10.776   3.233  11.472 -0.4534 -0.3706 -0.2628
47617SOL    HW152781  10.722   3.171  11.520 -0.8067  0.2023  0.0978
47617SOL    HW252782  10.740   3.233  11.383 -0.4629 -0.6665 -0.2586
47618SOL     OW52783   3.014  12.099  10.850 -0.2971 -0.0315  1.0884
47618SOL    HW152784   3.047  12.189  10.850 -1.0930  0.3131 -0.9046
47618SOL    HW252785   2.989  12.083  10.759 -0.8173 -2.0391  1.5447
47619SOL     OW52786   2.744   2.957   2.791  0.0771 -0.3435 -0.1368
47619SOL    HW152787   2.733   2.872   2.834  0.1929 -1.1093 -1.5456
47619SOL    HW252788   2.669   2.964   2.731 -0.4518  0.9994  0.6409
47620SOL     OW52789   8.977   8.257   6.024 -0.6198 -1.1068 -0.0057
47620SOL    HW152790   8.936   8.173   6.043  0.4302 -1.6781 -0.2062
47620SOL    HW252791   8.937   8.318   6.087  0.1784 -2.2083  1.6491
47621SOL     OW52792  11.295   9.682  10.354  0.0667  0.3713 -0.4398
47621SOL    HW152793  11.386   9.712  10.354  0.3163 -0.3455  0.7726
47621SOL    HW252794  11.301   9.588  10.338 -0.5360  0.4552 -1.2448
47622SOL     OW52795   4.358   8.974  10.212  0.1094 -0.4598 -0.1441
47622SOL    HW152796   4.306   8.903  10.175  0.2191 -0.4838 -0.2529
47622SOL    HW252797   4.357   9.042  10.145 -0.7216 -0.0079  0.3131
47623SOL     OW52798   0.950  12.529   5.162  0.1316 -0.0648 -0.4863
47623SOL    HW152799   0.996  12.444   5.166  1.8837  0.8794  0.9891
47623SOL    HW252800   0.912  12.531   5.075  0.5690 -2.1132 -0.7862
47624SOL     OW52801  10.720   4.854   0.570  0.4033 -0.4401  0.2963
47624SOL    HW152802  10.654   4.912   0.609  0.6893 -0.6320  1.0983
47624SOL    HW252803  10.756   4.806   0.645 -0.1604 -2.0052 -0.3918
47625SOL     OW52804   5.549  11.595  10.612  0.4833 -0.1361  0.1940
47625SOL    HW152805   5.474  11.622  10.666  0.6060  1.0703 -0.2284
47625SOL    HW252806   5.610  11.556  10.675  0.4029  0.7819  0.8609
47626SOL     OW52807   6.208   7.467  12.272  0.2719  0.2320  0.2328
47626SOL    HW152808   6.178   7.510  12.352 -1.4319 -0.7569  0.1749
47626SOL    HW252809   6.156   7.507  12.203  2.1147  1.4714 -0.5167
47627SOL     OW52810  11.845   4.982   7.013  0.4321 -0.3489 -0.2567
47627SOL    HW152811  11.759   4.977   7.056  1.3659  0.5742  1.8844
47627SOL    HW252812  11.837   5.057   6.954 -0.3267 -0.4628 -0.3174
47628SOL     OW52813  11.786   1.818   8.867 -0.1367  0.2377 -0.0844
47628SOL    HW152814  11.858   1.765   8.904  0.1689  0.1063 -0.8593
47628SOL    HW252815  11.824   1.905   8.856 -0.2870  0.3251  0.0807
47629SOL     OW52816   0.151   0.914  11.304 -0.1537 -0.2017  0.3433
47629SOL    HW152817   0.210   0.989  11.310 -1.1439  0.5692  0.8223
47629SOL    HW252818   0.172   0.860  11.380  0.7096 -0.5345 -0.1202
47630SOL     OW52819   7.689   9.653   6.451 -0.3700 -0.0890  0.3151
47630SOL    HW152820   7.671   9.633   6.359  0.3289  0.4348  0.0604
47630SOL    HW252821   7.784   9.640   6.461 -0.3838  0.1999  0.8780
47631SOL     OW52822   5.984   9.243  10.648  0.0241 -0.2925 -0.4336
47631SOL    HW152823   6.004   9.167  10.702  0.2526  0.3855  0.4730
47631SOL    HW252824   5.910   9.216  10.593  0.4274 -1.3171 -0.4890
47632SOL     OW52825  11.689   7.044   0.742  0.0068  0.2645  0.0009
47632SOL    HW152826  11.757   7.018   0.680  1.1377  0.3108  1.1638
47632SOL    HW252827  11.726   7.120   0.788 -1.0175  0.5668  0.3655
47633SOL     OW52828   8.302  12.066   5.998  0.6124 -0.6425 -0.7614
47633SOL    HW152829   8.318  11.973   6.010 -1.6710 -1.2119 -1.4696
47633SOL    HW252830   8.225  12.069   5.940  2.0709  1.7030 -2.7581
47634SOL     OW52831   8.780   4.168  13.298 -0.1650 -0.3170  0.3312
47634SOL    HW152832   8.685   4.166  13.287 -0.2413  1.2594  0.5162
47634SOL    HW252833   8.810   4.229  13.231  0.5991  0.0878  1.0263
47635SOL     OW52834  10.095  11.204   8.384 -0.2292  0.5287  0.0652
47635SOL    HW152835  10.132  11.211   8.472  1.7360  1.2632 -0.7576
47635SOL    HW252836  10.137  11.127   8.346  2.7348  2.8251 -1.7922
47636SOL     OW52837   7.271   4.571   2.533  0.3532 -0.1645  0.2698
47636SOL    HW152838   7.293   4.505   2.598 -2.0511  1.3105  2.7688
47636SOL    HW252839   7.178   4.588   2.546 -0.2886  0.2426 -3.6327
47637SOL     OW52840   2.840   9.434   9.764 -0.4382  0.6446 -0.0776
47637SOL    HW152841   2.907   9.502   9.772 -0.8425  1.2515 -1.5159
47637SOL    HW252842   2.851   9.399   9.675  1.8868 -3.5263  1.6046
47638SOL     OW52843   6.662  11.476   3.781 -0.2520 -0.3767 -0.2482
47638SOL    HW152844   6.647  11.428   3.700  1.5644 -0.4740 -0.5636
47638SOL    HW252845   6.756  11.493   3.782  0.0727 -1.7567  2.6154
47639SOL     OW52846   8.838  13.038  12.790 -0.1427  0.0538 -0.1078
47639SOL    HW152847   8.840  12.998  12.877 -0.9510 -1.2284 -0.6447
47639SOL    HW252848   8.915  13.001  12.745  0.9916  1.6647  0.4257
47640SOL     OW52849   9.158   6.243  11.804  0.1143 -0.5382  0.5820
47640SOL    HW152850   9.131   6.212  11.890 -1.6791  1.9226  1.0302
47640SOL    HW252851   9.183   6.335  11.819  1.5939 -0.5838 -1.2279
47641SOL     OW52852   6.278   5.865  10.748 -0.0305  0.2575  0.8942
47641SOL    HW152853   6.234   5.793  10.793 -0.2324 -0.7352 -0.7713
47641SOL    HW252854   6.249   5.857  10.657 -0.2924  2.6601  0.7065
47642SOL     OW52855   1.751  10.735   2.147  0.1787  0.7857  0.5266
47642SOL    HW152856   1.735  10.731   2.052  1.8699  0.7758  0.2150
47642SOL    HW252857   1.676  10.689   2.185  1.3544 -2.7767 -1.0186
47643SOL     OW52858   8.449   9.004   1.892  0.2349 -0.2365 -0.0780
47643SOL    HW152859   8.454   9.089   1.937 -1.4068  0.5341 -1.2234
47643SOL    HW252860   8.488   9.020   1.806  2.8521 -1.5547  0.7482
47644SOL     OW52861  10.782   3.378   1.460  0.6182 -0.2947 -0.1755
47644SOL    HW152862  10.738   3.337   1.535  0.1115 -1.1675 -0.9231
47644SOL    HW252863  10.789   3.307   1.395  1.3753  0.3488 -0.8156
47645SOL     OW52864   8.204   4.636   9.513 -0.3769  0.9476 -0.2273
47645SOL    HW152865   8.140   4.696   9.550 -0.2430  0.9103  0.0649
47645SOL    HW252866   8.227   4.577   9.585 -2.9894 -1.6322 -1.2765
47646SOL     OW52867   3.703   6.005   7.490  0.3545 -0.1098 -0.3150
47646SOL    HW152868   3.681   5.972   7.403 -0.2737 -0.5470 -0.0010
47646SOL    HW252869   3.692   5.930   7.548  2.3449 -0.2676 -0.0589
47647SOL     OW52870   8.835   6.583   6.677  0.2581 -0.0768  0.4274
47647SOL    HW152871   8.919   6.567   6.720 -0.6292 -1.9928  1.5454
47647SOL    HW252872   8.769   6.550   6.738 -1.2231 -0.2663 -1.1795
47648SOL     OW52873   3.430  13.123   9.420 -0.1592 -0.3365 -0.6408
47648SOL    HW152874   3.418  13.146   9.511 -1.6348  0.3548 -0.9977
47648SOL    HW252875   3.494  13.186   9.387 -0.0340 -0.2517 -0.2392
47649SOL     OW52876   5.169   1.312  11.231 -0.1751 -0.1408 -0.3330
47649SOL    HW152877   5.101   1.368  11.193  1.1100  1.5849 -0.2160
47649SOL    HW252878   5.166   1.232  11.178 -1.0312  0.6440 -1.5323
47650SOL     OW52879  10.834  11.780   4.328 -0.3555 -0.5795  0.4737
47650SOL    HW152880  10.838  11.872   4.302 -1.7984 -0.9771 -1.2769
47650SOL    HW252881  10.806  11.783   4.420  0.1386  0.7167  0.6129
47651SOL     OW52882   2.574   1.522   5.398  0.0899  0.2244 -0.3739
47651SOL    HW152883   2.557   1.475   5.316  2.1501 -0.9593 -0.1924
47651SOL    HW252884   2.597   1.610   5.371 -2.8328  0.9671 -0.7833
47652SOL     OW52885   1.179   3.696  12.223  0.2802  0.0943  0.0492
47652SOL    HW152886   1.208   3.724  12.136  1.3406 -1.7893 -0.2582
47652SOL    HW252887   1.214   3.762  12.282 -1.9245  2.3933 -1.0215
47653SOL     OW52888  12.573   1.970   6.676  0.2724 -0.3153  0.3676
47653SOL    HW152889  12.666   1.985   6.695  0.1234 -0.7204  1.5185
47653SOL    HW252890  12.527   2.031   6.734 -0.1877 -0.4715  0.1719
47654SOL     OW52891   9.449  10.576  12.796  0.2437  0.4760 -0.5920
47654SOL    HW152892   9.377  10.514  12.808  0.0418  0.6672 -0.7814
47654SOL    HW252893   9.416  10.637  12.730 -0.7245  2.5114  1.6345
47655SOL     OW52894   5.186   9.838  12.113 -0.4466 -0.3076 -0.3862
47655SOL    HW152895   5.150   9.895  12.182  0.9838 -0.7736  0.8063
47655SOL    HW252896   5.272   9.875  12.095 -1.0923  0.2695 -2.5506
47656SOL     OW52897   1.098   3.444   3.897 -0.2242 -0.9493 -0.1357
47656SOL    HW152898   1.115   3.429   3.990 -0.6316 -1.1200 -0.0839
47656SOL    HW252899   1.165   3.506   3.870 -1.0625  0.3721  0.6606
47657SOL     OW52900  11.169   5.443   9.749 -0.5293 -0.0397 -0.3638
47657SOL    HW152901  11.186   5.430   9.842  0.3019 -0.7786 -0.6001
47657SOL    HW252902  11.118   5.366   9.723  0.4062 -0.5341 -0.7916
47658SOL     OW52903  12.651  12.278  11.940 -0.0012 -0.0465 -1.0146
47658SOL    HW152904  12.726  12.274  11.999  1.4061 -2.7189 -2.7564
47658SOL    HW252905  12.669  12.352  11.883  0.5499  0.2388 -0.4769
47659SOL     OW52906   3.330   5.523  10.377  0.0331  0.4283  0.3451
47659SOL    HW152907   3.394   5.568  10.432  1.5890 -1.6292  0.3550
47659SOL    HW252908   3.336   5.567  10.292  3.3924 -1.1745 -0.4182
47660SOL     OW52909  10.453  11.829   8.323  0.0207 -0.7757  0.1008
47660SOL    HW152910  10.361  11.840   8.299  0.9500 -0.9575 -4.4749
47660SOL    HW252911  10.476  11.742   8.291  1.7847 -0.7781  1.2654
47661SOL     OW52912   4.025  10.370   7.935 -0.1698 -0.0973 -0.0558
47661SOL    HW152913   3.952  10.429   7.918 -0.6014 -0.7039 -0.3300
47661SOL    HW252914   4.049  10.387   8.026 -0.2590  0.5265 -0.1466
47662SOL     OW52915   2.887  12.841   3.285  0.1455  0.5559 -0.2144
47662SOL    HW152916   2.907  12.770   3.347 -0.7768 -1.7234 -2.3433
47662SOL    HW252917   2.848  12.909   3.339 -0.3445 -1.1885  1.7832
47663SOL     OW52918  12.236   7.287   0.250 -0.4074  0.0177 -0.5452
47663SOL    HW152919  12.320   7.249   0.223  0.8750  1.6015  0.9930
47663SOL    HW252920  12.212   7.238   0.329  0.0424  0.8123  0.0895
47664SOL     OW52921  10.896   0.240   1.065 -0.2136  0.2272 -0.1963
47664SOL    HW152922  10.823   0.297   1.087 -1.2546 -1.7107  1.7326
47664SOL    HW252923  10.928   0.208   1.150  2.8179  0.8919 -0.9781
47665SOL     OW52924   7.631   2.520   8.045 -0.2743 -1.0739 -0.1030
47665SOL    HW152925   7.664   2.565   8.122  1.9282  0.3342 -1.7451
47665SOL    HW252926   7.707   2.474   8.009 -1.2468 -1.7704 -1.4032
47666SOL     OW52927   3.778   5.694   8.491  0.4140 -0.6432 -0.6438
47666SOL    HW152928   3.707   5.632   8.504  0.0256  0.1817  1.5437
47666SOL    HW252929   3.785   5.702   8.396 -2.7899 -0.3864 -0.9804
47667SOL     OW52930   4.521   5.818  11.199 -0.1679  0.1201 -0.1569
47667SOL    HW152931   4.547   5.836  11.109 -0.6132 -1.6845 -0.7023
47667SOL    HW252932   4.462   5.743  11.191  0.8231 -0.9205  1.7535
47668SOL     OW52933   5.236   6.947   0.227 -0.4856  0.1845  0.5087
47668SOL    HW152934   5.194   6.877   0.277  0.6698 -0.7422  0.2336
47668SOL    HW252935   5.165   7.009   0.208 -2.1371 -2.1110 -1.3590
47669SOL     OW52936  13.130   7.665   2.222  0.4818 -0.4445 -0.5545
47669SOL    HW152937  13.221   7.649   2.246  0.8146 -0.3105 -1.6570
47669SOL    HW252938  13.131   7.749   2.178 -0.0636 -0.7386 -1.1476
47670SOL     OW52939   7.971   0.624  13.257 -0.5208 -0.1404 -0.5296
47670SOL    HW152940   7.959   0.606  13.351  2.2869  1.5154  0.2882
47670SOL    HW252941   8.038   0.562  13.229 -0.0708  0.5223 -0.9602
47671SOL     OW52942   3.540   1.392   3.890  0.4226  0.0798 -0.5658
47671SOL    HW152943   3.604   1.407   3.820  1.0489 -0.5896 -0.1553
47671SOL    HW252944   3.567   1.452   3.960  0.5562 -0.1485 -0.4213
47672SOL     OW52945  10.357  12.480   2.138 -0.1251  0.0864 -0.5362
47672SOL    HW152946  10.449  12.492   2.113  0.0320 -0.6506 -0.3409
47672SOL    HW252947  10.309  12.537   2.078  0.4390  0.3069 -0.7981
47673SOL     OW52948   1.284   0.190   7.189  0.6609 -0.4981 -0.0060
47673SOL    HW152949   1.339   0.183   7.267 -0.1716 -2.4249  0.4720
47673SOL    HW252950   1.215   0.252   7.213 -0.0427 -1.6696  1.1218
47674SOL     OW52951   0.643   8.086   3.706 -0.6616 -0.2157  0.2338
47674SOL    HW152952   0.667   8.060   3.617  1.7298 -2.1684  1.3530
47674SOL    HW252953   0.575   8.024   3.732  0.0343 -0.9075  0.4297
47675SOL     OW52954  11.272   9.490   2.689 -0.2440 -0.3247  0.0900
47675SOL    HW152955  11.355   9.503   2.736 -0.3022 -1.1388  0.4317
47675SOL    HW252956  11.228   9.420   2.737 -0.8443 -0.3469 -0.4790
47676SOL     OW52957   9.768   7.291   3.616  0.3264  0.1124 -0.3220
47676SOL    HW152958   9.737   7.335   3.537 -0.0680  0.7208  0.1621
47676SOL    HW252959   9.805   7.208   3.584 -1.5884 -0.5513 -0.9679
47677SOL     OW52960  12.723   8.347   9.999 -0.1082  0.0851 -0.5433
47677SOL    HW152961  12.675   8.278   9.954 -2.4619  0.6256  0.9234
47677SOL    HW252962  12.719   8.422   9.940 -1.1466  0.1131 -0.4675
47678SOL     OW52963   5.323   8.671  12.000  0.6173  0.1870  0.2635
47678SOL    HW152964   5.314   8.690  11.906 -1.9708  0.8570  0.5743
47678SOL    HW252965   5.393   8.728  12.029  0.7117  0.7986 -1.0731
47679SOL     OW52966  10.019   7.491   4.780  0.1832 -0.5393 -0.1935
47679SOL    HW152967   9.980   7.570   4.817  1.1200 -0.4972  0.7210
47679SOL    HW252968   9.944   7.432   4.768 -0.1547 -0.6365  1.9799
47680SOL     OW52969   4.929  13.170   6.592  0.1211 -0.2394  0.1872
47680SOL    HW152970   4.968  13.218   6.519 -0.5018 -0.6494 -0.4283
47680SOL    HW252971   4.847  13.134   6.556 -0.6692  0.3443  1.3618
47681SOL     OW52972   9.480   3.107   3.924  0.1060 -0.0425 -0.3931
47681SOL    HW152973   9.471   3.197   3.893  0.2274  0.6383  1.4231
47681SOL    HW252974   9.555   3.110   3.984 -1.1585 -0.8691  1.3087
47682SOL     OW52975   7.549   8.964   6.773 -0.2042  0.3925  0.2218
47682SOL    HW152976   7.531   8.945   6.866 -1.1781  0.1783 -0.0072
47682SOL    HW252977   7.615   9.034   6.776 -0.5699  0.7201  1.0754
47683SOL     OW52978   3.538   5.051   3.245  0.5778 -0.1911 -0.1718
47683SOL    HW152979   3.502   4.967   3.216 -2.4248  1.1469 -0.7101
47683SOL    HW252980   3.605   5.027   3.308 -1.5617 -3.0193  1.2849
47684SOL     OW52981   2.445   1.449   0.339  0.4601 -0.4595 -0.2022
47684SOL    HW152982   2.424   1.440   0.246 -0.3625 -1.0575  0.0342
47684SOL    HW252983   2.365   1.424   0.384  1.4593 -2.1807  0.7194
47685SOL     OW52984   0.186   5.138   1.544 -0.6701 -0.0519 -0.0981
47685SOL    HW152985   0.125   5.112   1.612 -0.6219  0.1211  0.0135
47685SOL    HW252986   0.149   5.103   1.463  0.9026 -3.0736  0.3641
47686SOL     OW52987   7.936   9.777   3.241  0.1163  0.1402  0.2855
47686SOL    HW152988   7.875   9.762   3.169 -1.3281  2.2181  0.9796
47686SOL    HW252989   7.940   9.693   3.287  0.1822 -0.8855 -1.5070
47687SOL     OW52990   2.286   5.957   7.040  0.0885  0.1523 -0.2626
47687SOL    HW152991   2.339   5.884   7.072  1.4145 -0.0743 -2.7191
47687SOL    HW252992   2.214   5.964   7.103  1.5643 -1.2719  1.7265
47688SOL     OW52993  13.180   3.969   4.715  0.0909 -0.0985 -0.5545
47688SOL    HW152994  13.114   3.903   4.735  1.7720 -1.2691  1.5705
47688SOL    HW252995  13.237   3.928   4.651  0.1013 -0.0004 -0.6082
47689SOL     OW52996   7.785  11.972   3.966 -0.6564 -0.2584 -0.1680
47689SOL    HW152997   7.847  11.991   4.036 -2.1031  0.1663  1.0529
47689SOL    HW252998   7.779  11.876   3.964 -2.4345 -0.2852  2.0605
47690SOL     OW52999   3.046  11.985   4.190  0.2494  0.3016  0.2830
47690SOL    HW153000   3.126  12.035   4.209 -0.7422  1.7235  0.9214
47690SOL    HW253001   2.977  12.051   4.187 -1.1152 -1.0255  1.0421
47691SOL     OW53002   0.783   8.984  10.480 -0.3780  0.5170  0.1864
47691SOL    HW153003   0.690   8.963  10.495 -0.4705  0.7438 -0.0586
47691SOL    HW253004   0.783   9.036  10.400  0.0975 -0.5585 -0.5245
47692SOL     OW53005   0.698   6.527   7.323  0.1022  0.4378  0.2163
47692SOL    HW153006   0.738   6.445   7.292  2.8425  1.4432  0.8116
47692SOL    HW253007   0.663   6.567   7.245 -0.1739 -0.7325 -0.2858
47693SOL     OW53008  10.169   4.237   5.758 -0.0877  0.2460  0.1551
47693SOL    HW153009  10.102   4.244   5.826 -2.2888 -1.0344 -1.7157
47693SOL    HW253010  10.154   4.151   5.719  1.0923  0.9249 -1.9336
47694SOL     OW53011   5.818   5.382  13.156 -0.2110  0.2500  0.2099
47694SOL    HW153012   5.812   5.473  13.185 -3.3089  0.2533 -0.0826
47694SOL    HW253013   5.885   5.382  13.088 -0.9662  2.5861 -0.6111
47695SOL     OW53014  12.047   1.269  10.963 -0.0411  0.0561 -0.3966
47695SOL    HW153015  12.075   1.302  11.048 -0.4017  0.9793 -0.6259
47695SOL    HW253016  12.083   1.180  10.959  0.8920  0.3867  0.2611
47696SOL     OW53017   4.329  12.360   4.478 -0.4926  0.0880 -0.5168
47696SOL    HW153018   4.241  12.398   4.475 -0.7015 -0.0903  1.6163
47696SOL    HW253019   4.330  12.308   4.558  1.4103 -0.3174 -0.7501
47697SOL     OW53020   7.425   0.598   4.045  0.3918 -0.1983 -0.4794
47697SOL    HW153021   7.482   0.536   4.090  0.0362  0.3145  0.7102
47697SOL    HW253022   7.366   0.543   3.994 -0.6928 -0.9409  1.4686
47698SOL     OW53023   9.545   1.604   0.959  0.2492  0.5685 -0.0483
47698SOL    HW153024   9.454   1.632   0.964 -1.2489 -3.6259 -0.1438
47698SOL    HW253025   9.576   1.608   1.050 -0.8150 -0.1528  0.3576
47699SOL     OW53026   9.097   8.146   7.259 -0.2480  0.5832 -0.1711
47699SOL    HW153027   9.004   8.170   7.260 -0.2091  0.9633 -2.4138
47699SOL    HW253028   9.140   8.215   7.310 -1.1217  0.6232  0.5477
47700SOL     OW53029   7.671  11.758  10.799  0.0391  0.0526  0.1094
47700SOL    HW153030   7.757  11.736  10.765  0.0158  1.9964 -1.3430
47700SOL    HW253031   7.688  11.817  10.872 -0.0479 -1.4734  1.4471
47701SOL     OW53032  12.247  10.652   5.298  0.3048  0.0504  0.1225
47701SOL    HW153033  12.336  10.648   5.332 -0.4653 -1.7588  2.2242
47701SOL    HW253034  12.216  10.740   5.319  1.1185  0.1982  0.7236
47702SOL     OW53035   7.250  13.095   0.558 -0.3730  0.0435  0.3826
47702SOL    HW153036   7.270  13.147   0.481  2.3892 -1.9843 -0.4089
47702SOL    HW253037   7.174  13.043   0.533 -0.3802  0.4381 -0.4289
47703SOL     OW53038   5.214   7.348  13.176 -0.4539  0.5162 -0.0145
47703SOL    HW153039   5.161   7.273  13.151 -0.7582 -0.5728  3.4203
47703SOL    HW253040   5.283   7.311  13.231  2.8330  2.1290 -2.6475
47704SOL     OW53041  13.035   5.391  10.820  0.1473 -0.1384  0.1122
47704SOL    HW153042  13.010   5.327  10.753  0.2358  0.6543 -0.6999
47704SOL    HW253043  12.970   5.379  10.889 -0.0755 -0.8352 -0.2029
47705SOL     OW53044   4.107   4.521   6.037  0.3164 -0.2344  0.4775
47705SOL    HW153045   4.085   4.444   6.089  0.5173 -0.0528  0.8306
47705SOL    HW253046   4.080   4.595   6.091  1.2365 -0.0245  0.6618
47706SOL     OW53047   0.403  13.018   6.634  0.4238 -0.7834 -0.0105
47706SOL    HW153048   0.465  12.947   6.615  2.2185 -0.1171  2.6922
47706SOL    HW253049   0.396  13.018   6.730  0.7664  2.8602  0.1552
47707SOL     OW53050   6.951  11.799  11.892 -0.5385 -0.2585  0.4899
47707SOL    HW153051   6.884  11.848  11.844 -0.6236 -0.6746  0.1808
47707SOL    HW253052   6.931  11.707  11.875 -1.0559 -0.4405  1.9894
47708SOL     OW53053  11.403   0.663   2.569  0.1483 -0.1361 -0.3186
47708SOL    HW153054  11.418   0.686   2.661 -1.6729  0.4992 -0.1453
47708SOL    HW253055  11.447   0.733   2.520  1.9842 -1.0023 -0.0071
47709SOL     OW53056   8.425   7.773  11.559 -0.4393  0.5188 -0.5430
47709SOL    HW153057   8.399   7.809  11.475 -0.1744  2.8931  0.3281
47709SOL    HW253058   8.520   7.784  11.561 -0.6857  3.0005  1.0908
47710SOL     OW53059   6.244   3.405   3.843  0.1296 -0.1888  0.3289
47710SOL    HW153060   6.174   3.352   3.807  1.4741 -1.5055 -0.4615
47710SOL    HW253061   6.268   3.465   3.772 -0.4191  0.5122  0.7235
47711SOL     OW53062  12.551   2.838  10.521  0.6592 -0.1378  0.0125
47711SOL    HW153063  12.471   2.788  10.506  0.2980  0.3668  0.2441
47711SOL    HW253064  12.614   2.773  10.552  0.2926 -0.5068 -0.0038
47712SOL     OW53065  13.197  11.156   8.925  0.0557  0.6011  0.0202
47712SOL    HW153066  13.218  11.162   9.018  1.8277  0.2467 -0.3186
47712SOL    HW253067  13.271  11.196   8.880 -1.3525  1.9634 -1.2431
47713SOL     OW53068   6.844   6.452  11.071 -0.0871  0.6907 -0.3018
47713SOL    HW153069   6.928   6.411  11.050 -0.4824 -0.1310 -0.2860
47713SOL    HW253070   6.868   6.535  11.113  0.7196  1.0631 -1.4388
47714SOL     OW53071   8.613  10.782   7.242 -0.1390 -0.3632  0.4497
47714SOL    HW153072   8.570  10.846   7.299  0.1551  0.1395  0.1191
47714SOL    HW253073   8.563  10.702   7.254 -0.6510 -0.0121  0.7118
47715SOL     OW53074   6.532   9.009   6.956 -0.1661  0.6126  0.5225
47715SOL    HW153075   6.575   8.923   6.958 -1.1611  0.0784 -0.1406
47715SOL    HW253076   6.439   8.989   6.941 -0.4465  1.7986  0.5796
47716SOL     OW53077   2.795   6.037   4.065  0.6399 -0.1487 -0.1349
47716SOL    HW153078   2.865   6.078   4.116  1.0855 -0.2713 -0.6296
47716SOL    HW253079   2.812   6.065   3.975 -0.9993  1.3043 -0.0567
47717SOL     OW53080   1.975   8.172   4.097  0.5127 -0.0485  0.9989
47717SOL    HW153081   1.913   8.125   4.041  0.0195 -1.8479  2.9153
47717SOL    HW253082   2.023   8.229   4.037 -0.0961 -1.7179 -1.2206
47718SOL     OW53083  11.197   1.170   9.381 -0.5197 -0.2524 -0.4795
47718SOL    HW153084  11.172   1.195   9.470 -0.9162  0.2936 -0.7387
47718SOL    HW253085  11.274   1.114   9.393 -0.3987  0.0459  0.1862
47719SOL     OW53086   8.519   0.741   0.233  0.0712 -0.4360 -0.0876
47719SOL    HW153087   8.505   0.835   0.234 -1.5330 -0.6412 -0.2618
47719SOL    HW253088   8.567   0.723   0.314 -2.0199  0.2217  1.3723
47720SOL     OW53089   1.218   6.192   7.722  0.3351 -0.2458  0.1600
47720SOL    HW153090   1.273   6.241   7.783 -0.0335 -2.0793  2.0989
47720SOL    HW253091   1.245   6.221   7.636  0.7691  2.6038  1.1650
47721SOL     OW53092  13.315  11.601  11.584 -0.1037 -0.2497  0.3516
47721SOL    HW153093  13.300  11.568  11.496 -1.4871 -0.0337  0.4835
47721SOL    HW253094  13.354  11.688  11.571 -1.0778  0.1454 -0.0878
47722SOL     OW53095   9.487   8.291   4.462 -0.4134 -0.4113 -0.4412
47722SOL    HW153096   9.563   8.342   4.488 -0.9817  1.0612 -1.5302
47722SOL    HW253097   9.512   8.200   4.478  1.4818  0.0565 -0.5853
47723SOL     OW53098   2.231  10.353   2.088  0.1211  0.2727 -0.1627
47723SOL    HW153099   2.181  10.376   2.010 -0.3500  0.1040  0.0872
47723SOL    HW253100   2.165  10.328   2.152  0.5447 -0.3346  0.0441
47724SOL     OW53101   5.131   7.933   7.953  0.2214  0.0555 -0.0191
47724SOL    HW153102   5.107   8.002   8.015 -1.0651  0.4586 -0.9145
47724SOL    HW253103   5.079   7.952   7.875  1.1618 -0.9265 -0.9248
47725SOL     OW53104  12.715   4.951   6.800  0.0704 -0.2729 -0.0288
47725SOL    HW153105  12.721   4.970   6.706  1.1506 -1.2140 -0.1680
47725SOL    HW253106  12.681   5.032   6.838 -0.1886  0.1974 -1.2004
47726SOL     OW53107   5.538  11.330   7.367  0.4379  0.1121  0.3154
47726SOL    HW153108   5.564  11.369   7.284 -0.1116  0.6895  0.4068
47726SOL    HW253109   5.608  11.355   7.428 -0.2496  1.5846  0.5398
47727SOL     OW53110   7.273   7.942   8.215  0.2134  0.5966  0.2960
47727SOL    HW153111   7.348   7.953   8.158 -0.1582  3.6620  0.2400
47727SOL    HW253112   7.308   7.947   8.303  0.2870  0.0863  0.2977
47728SOL     OW53113   4.893   8.817  10.786  0.2933  0.7920  0.0025
47728SOL    HW153114   4.917   8.872  10.861  0.3964  1.3624 -0.4347
47728SOL    HW253115   4.855   8.878  10.723 -1.7005  0.0070  0.3927
47729SOL     OW53116   5.885   8.311   4.202  0.0114  0.4210  0.2276
47729SOL    HW153117   5.971   8.347   4.222 -0.5461  2.4422 -0.7649
47729SOL    HW253118   5.847   8.291   4.288  0.7112  1.3995  0.7797
47730SOL     OW53119   1.835  12.565   0.920  0.1344  0.0174  0.2969
47730SOL    HW153120   1.771  12.583   0.851  0.7211 -1.0967 -0.5808
47730SOL    HW253121   1.799  12.491   0.968  0.5995 -0.4131 -0.0044
47731SOL     OW53122   9.025   9.941   2.291  0.0681 -0.1036 -0.3324
47731SOL    HW153123   8.960   9.888   2.245 -0.7237  1.6078 -1.2824
47731SOL    HW253124   8.987   9.956   2.377  0.5977 -1.5464  0.1993
47732SOL     OW53125   2.530   5.808   1.398 -0.4892  0.8071 -0.1526
47732SOL    HW153126   2.482   5.729   1.373  0.4455  0.6178 -1.4638
47732SOL    HW253127   2.563   5.843   1.315  0.1176  1.9110  0.5328
47733SOL     OW53128   3.886   8.643   0.123  0.2323  0.2419  0.7280
47733SOL    HW153129   3.927   8.589   0.191 -0.3730 -0.0390  0.8773
47733SOL    HW253130   3.863   8.725   0.167 -0.2654  0.0147  0.8929
47734SOL     OW53131  10.649  11.386  11.726  0.1946  0.3420  0.5727
47734SOL    HW153132  10.631  11.294  11.744  0.1648 -0.6328 -3.5765
47734SOL    HW253133  10.721  11.409  11.786  2.3604 -3.3362 -0.3474
47735SOL     OW53134  11.229   6.708   4.010 -0.1758 -0.2629  0.0783
47735SOL    HW153135  11.155   6.769   4.001 -0.4811 -0.7910 -1.3601
47735SOL    HW253136  11.296   6.743   3.951  1.1484  0.7528  2.1015
47736SOL     OW53137   7.919   4.428   2.221  0.2219  0.2793  0.6182
47736SOL    HW153138   7.986   4.373   2.260  0.3590  1.3483  1.9638
47736SOL    HW253139   7.932   4.418   2.127  0.2174 -1.9583  0.8132
47737SOL     OW53140  10.383   1.730   1.249 -0.1193 -0.0200  0.0171
47737SOL    HW153141  10.342   1.644   1.237  1.0991 -0.5514 -0.4569
47737SOL    HW253142  10.469   1.712   1.285 -0.3055  1.0972  1.1051
47738SOL     OW53143   6.102   8.207  11.272  0.3682  0.8597  0.1677
47738SOL    HW153144   6.143   8.125  11.247 -1.2884  0.1759 -0.4496
47738SOL    HW253145   6.056   8.236  11.193 -1.4271  0.8749  1.1781
47739SOL     OW53146   3.316  11.781   9.351  0.2063  0.2925  0.7254
47739SOL    HW153147   3.227  11.802   9.322  0.3618 -0.4915 -0.4063
47739SOL    HW253148   3.305  11.711   9.415 -0.0773  1.2963  1.7986
47740SOL     OW53149   9.807   3.577   8.571 -0.1783 -0.5706  0.1380
47740SOL    HW153150   9.838   3.523   8.499  0.1476  0.3780 -0.4496
47740SOL    HW253151   9.730   3.622   8.536  0.1999  0.1730  0.2502
47741SOL     OW53152  11.804   9.326  11.551 -0.4265  0.0145 -0.2695
47741SOL    HW153153  11.801   9.254  11.488  0.2816 -0.0648 -0.2222
47741SOL    HW253154  11.757   9.398  11.509 -1.2971 -0.5294 -0.2421
47742SOL     OW53155   2.144   4.467   9.342  0.1868 -0.4419  0.5723
47742SOL    HW153156   2.053   4.438   9.333 -0.4671  0.4315  3.2585
47742SOL    HW253157   2.138   4.562   9.355  1.6345 -0.1589 -0.5395
47743SOL     OW53158  10.546   8.085   2.939 -0.4733  0.1355 -0.6999
47743SOL    HW153159  10.506   8.169   2.916  0.2217  0.8727  0.6668
47743SOL    HW253160  10.502   8.058   3.019  2.2781  1.4673  1.4352
47744SOL     OW53161   9.415   6.482  13.265  0.1670  0.4955  0.4074
47744SOL    HW153162   9.407   6.517  13.353 -1.5502 -0.0106  0.4912
47744SOL    HW253163   9.325   6.470  13.235  0.7039 -0.5063 -0.9453
47745SOL     OW53164  11.975   0.636   0.426  0.6934  0.1670  0.2639
47745SOL    HW153165  11.884   0.625   0.456  1.2928 -1.1094  1.7889
47745SOL    HW253166  12.025   0.579   0.484  2.3966  0.3135 -1.0159
47746SOL     OW53167   8.481   1.354   4.917 -0.0007  0.1769  0.4956
47746SOL    HW153168   8.449   1.389   4.834 -1.9893 -1.5573  0.4669
47746SOL    HW253169   8.576   1.349   4.905 -0.2336 -0.0589 -1.7089
47747SOL     OW53170   1.100   2.492   3.319  0.2776  0.1205 -0.1154
47747SOL    HW153171   1.034   2.423   3.326  0.4357 -0.2564 -1.9286
47747SOL    HW253172   1.135   2.500   3.408 -1.5689 -0.2810  0.7005
47748SOL     OW53173   2.923   5.894  11.901  0.1286 -0.2273 -0.0650
47748SOL    HW153174   2.852   5.958  11.897  2.8160  3.1666  1.4495
47748SOL    HW253175   2.918   5.858  11.990  0.6870  0.5891  0.3107
47749SOL     OW53176   7.179   9.208   9.900 -0.7486  0.7734  0.8042
47749SOL    HW153177   7.132   9.269   9.956 -0.7346  1.2580  0.2927
47749SOL    HW253178   7.191   9.255   9.817 -0.6614  0.1132  0.4348
47750SOL     OW53179   8.723  10.377   6.980 -0.3807 -0.7073 -0.2874
47750SOL    HW153180   8.727  10.338   7.068  1.1162  0.4027  0.1923
47750SOL    HW253181   8.815  10.392   6.957 -0.8231  0.5614 -1.3280
47751SOL     OW53182   3.834   3.002  10.680 -0.2478  0.4083 -0.5208
47751SOL    HW153183   3.867   2.929  10.732  1.7088  0.8452 -1.0847
47751SOL    HW253184   3.756   3.032  10.728 -0.1462 -1.0061  0.5882
47752SOL     OW53185   8.756   0.756   5.948  0.2369  0.0517  0.4252
47752SOL    HW153186   8.808   0.836   5.941 -1.6855  1.4661  1.5185
47752SOL    HW253187   8.707   0.751   5.866  0.9876 -0.4996 -0.0015
47753SOL     OW53188   5.343   3.368   3.248  0.2669  0.0331 -0.0839
47753SOL    HW153189   5.274   3.307   3.272 -0.2402  0.7508  0.3067
47753SOL    HW253190   5.315   3.452   3.283  1.1363  0.4242 -0.2864
47754SOL     OW53191   1.346   5.108   9.014 -0.2121 -0.2714 -0.6167
47754SOL    HW153192   1.440   5.127   9.018 -0.3254  0.1438  1.7165
47754SOL    HW253193   1.339   5.030   8.959  1.7375 -1.5491  0.8106
47755SOL     OW53194   5.592  11.410  12.569 -0.3310 -0.1673  0.2888
47755SOL    HW153195   5.662  11.407  12.635  1.4763 -1.4674 -1.5357
47755SOL    HW253196   5.575  11.318  12.549 -1.6568  0.1784 -0.2614
47756SOL     OW53197   8.497  11.092   4.089 -0.4179 -0.4148 -0.1493
47756SOL    HW153198   8.463  11.176   4.058 -0.6790 -0.9125 -1.2673
47756SOL    HW253199   8.592  11.102   4.089 -0.4396 -0.2165 -0.5706
47757SOL     OW53200  12.454   6.854   4.908  0.0402  0.7641 -0.3542
47757SOL    HW153201  12.489   6.814   4.829  0.7334  1.1433 -0.2521
47757SOL    HW253202  12.397   6.924   4.877 -1.6419 -0.6168 -0.5474
47758SOL     OW53203   7.019   9.487  13.154  0.3883  0.0710 -0.3001
47758SOL    HW153204   6.929   9.487  13.123  0.6219  0.3526 -0.9874
47758SOL    HW253205   7.018   9.431  13.232 -0.0374 -1.3930 -1.3130
47759SOL     OW53206   1.550  10.872   8.783 -0.4742 -0.9258 -0.5004
47759SOL    HW153207   1.468  10.905   8.746  0.8844  2.7515 -0.6873
47759SOL    HW253208   1.613  10.877   8.712  0.1130 -3.3269 -0.2455
47760SOL     OW53209   8.477   9.643  13.250  0.1521 -0.2275  0.2634
47760SOL    HW153210   8.453   9.684  13.167 -2.5983 -0.7568  0.6939
47760SOL    HW253211   8.458   9.709  13.316  0.0301 -0.6288  0.6330
47761SOL     OW53212  10.542  12.805   8.672 -0.2822  0.0986  0.7458
47761SOL    HW153213  10.476  12.806   8.603 -0.5415 -0.0558  0.9937
47761SOL    HW253214  10.574  12.715   8.674  0.4107  0.3207  0.1786
47762SOL     OW53215   7.058   0.969   9.194 -0.4514 -0.4785  0.0225
47762SOL    HW153216   7.150   0.982   9.216 -0.3993  2.4465 -1.4041
47762SOL    HW253217   7.011   0.987   9.276  0.1580  0.2775  0.2178
47763SOL     OW53218   1.308   0.698   5.356 -0.0561  0.3734  0.5626
47763SOL    HW153219   1.381   0.689   5.295 -1.6371  1.0598 -1.5484
47763SOL    HW253220   1.288   0.608   5.384 -0.5150 -0.1981 -1.4798
47764SOL     OW53221   9.456  12.986   3.124  0.3721  0.5195  0.2252
47764SOL    HW153222   9.458  13.041   3.202 -0.3446  2.2828 -0.9369
47764SOL    HW253223   9.437  12.899   3.157  2.5526  0.6880  2.2579
47765SOL     OW53224  10.872   1.164  10.321 -0.3794 -0.0127 -0.2096
47765SOL    HW153225  10.849   1.178  10.229 -0.5581  0.5288 -0.0857
47765SOL    HW253226  10.835   1.240  10.367 -1.1629 -0.7619  0.4475
47766SOL     OW53227   7.164   7.132   7.888  0.0921 -0.1302 -0.1222
47766SOL    HW153228   7.221   7.056   7.903 -1.3382 -1.0935  0.6361
47766SOL    HW253229   7.224   7.200   7.858  2.0016 -0.4701  2.4807
47767SOL     OW53230   3.206  11.288   6.775 -0.0548  0.2108  0.0523
47767SOL    HW153231   3.140  11.228   6.807  0.3343 -0.1015  0.2753
47767SOL    HW253232   3.164  11.334   6.702 -0.0569 -0.9713 -0.7164
47768SOL     OW53233   4.337   1.123  10.030  0.5564 -0.5310 -0.3992
47768SOL    HW153234   4.424   1.087  10.015 -0.4104 -3.0499 -0.5427
47768SOL    HW253235   4.327   1.124  10.125  1.1609  0.9613 -0.3291
47769SOL     OW53236  12.160   7.349   7.213 -0.3503  0.1265  0.2425
47769SOL    HW153237  12.246   7.387   7.198 -0.3565 -0.4056 -1.3532
47769SOL    HW253238  12.160   7.325   7.306  1.5808 -0.7110  0.0683
47770SOL     OW53239   7.845   0.876   1.629 -0.3004 -0.8152  0.3659
47770SOL    HW153240   7.914   0.862   1.694  1.3486 -0.3974 -1.2167
47770SOL    HW253241   7.868   0.819   1.556  0.6373  2.0485 -1.7904
47771SOL     OW53242   3.090   9.712  11.999 -0.4719  0.2108  0.2479
47771SOL    HW153243   3.106   9.788  12.055 -0.6548  1.8782 -1.8052
47771SOL    HW253244   3.141   9.730  11.920 -1.1871 -1.4115 -0.6192
47772SOL     OW53245   9.013   1.371   1.228  0.0442 -0.0727  0.3745
47772SOL    HW153246   8.946   1.376   1.160 -1.2755  0.5288  1.6945
47772SOL    HW253247   9.058   1.288   1.210  1.2475  1.0883 -2.5742
47773SOL     OW53248   9.567   1.288  11.809  0.3343  0.3661 -0.3269
47773SOL    HW153249   9.514   1.350  11.860  0.6644  1.1620 -0.9398
47773SOL    HW253250   9.651   1.284  11.856 -0.1253 -0.6509  0.4620
47774SOL     OW53251   9.282  12.219   9.639  0.1319  0.3691 -0.4492
47774SOL    HW153252   9.224  12.145   9.627  2.5677 -1.6178 -0.8292
47774SOL    HW253253   9.244  12.269   9.711 -2.3211 -0.4431 -1.0989
47775SOL     OW53254   2.870  10.433   5.959 -0.3000  0.1967  0.0157
47775SOL    HW153255   2.873  10.485   5.879 -1.7058 -0.0539 -0.2218
47775SOL    HW253256   2.922  10.484   6.022  0.5142  0.5776 -0.9306
47776SOL     OW53257   9.394   0.914   0.170  0.0344  0.2350  0.0300
47776SOL    HW153258   9.307   0.903   0.134 -0.4741 -0.5304  1.4049
47776SOL    HW253259   9.404   0.841   0.231  1.0601  1.1326  0.9840
47777SOL     OW53260   2.050  11.782   3.989 -0.4306 -0.5591  0.2373
47777SOL    HW153261   2.119  11.815   3.932 -1.5326 -0.7985 -1.3164
47777SOL    HW253262   2.064  11.688   3.993 -0.1490 -0.5016  0.6606
47778SOL     OW53263   5.972   5.620   6.247 -0.0985  0.9567 -0.1776
47778SOL    HW153264   6.023   5.599   6.325 -0.6444  1.4261  0.3229
47778SOL    HW253265   5.979   5.716   6.239 -0.8102  1.0174 -0.1532
47779SOL     OW53266  11.696  11.599  12.677  0.1984 -0.2596  0.6781
47779SOL    HW153267  11.673  11.684  12.638 -2.1824 -0.4139  1.5806
47779SOL    HW253268  11.717  11.620  12.768  0.4287 -0.5448  0.6915
47780SOL     OW53269   3.550  11.671   1.694  0.1987 -0.1522 -0.2304
47780SOL    HW153270   3.488  11.631   1.757 -1.4426  3.2611  0.5506
47780SOL    HW253271   3.498  11.682   1.614  0.3545  1.0195 -0.1803
47781SOL     OW53272   6.455   8.895   2.747 -0.1835 -0.4728  0.3046
47781SOL    HW153273   6.442   8.807   2.710 -0.9620 -0.2379  0.0198
47781SOL    HW253274   6.453   8.953   2.671  1.5864 -0.3138  0.3367
47782SOL     OW53275   9.722   4.418   4.610 -0.1911  0.2748  0.1230
47782SOL    HW153276   9.668   4.363   4.554 -0.4192  1.7284 -1.1653
47782SOL    HW253277   9.668   4.433   4.688  0.0728 -1.6547  0.7264
47783SOL     OW53278   4.253   4.011   1.033 -0.4744 -0.1243  0.3071
47783SOL    HW153279   4.324   4.025   0.969 -1.0092 -0.5439 -0.3961
47783SOL    HW253280   4.201   4.091   1.029  0.4130  0.5461  1.4495
47784SOL     OW53281   0.203   0.909   4.522 -0.3343  0.3190  0.5282
47784SOL    HW153282   0.260   0.833   4.507 -1.0710 -0.0377 -0.6649
47784SOL    HW253283   0.260   0.985   4.512  0.1048 -0.0559  0.1781
47785SOL     OW53284   9.766   2.439  13.084  0.3038  0.3605 -0.6097
47785SOL    HW153285   9.700   2.376  13.054  0.0590  0.8415 -1.1063
47785SOL    HW253286   9.817   2.392  13.149 -0.2369 -0.1701 -0.5658
47786SOL     OW53287   5.789   5.180   7.790  0.2063  0.3531  0.2727
47786SOL    HW153288   5.884   5.173   7.777  0.2463  2.5343 -0.9029
47786SOL    HW253289   5.758   5.089   7.787  2.0215 -0.2786 -1.1941
47787SOL     OW53290   5.879   8.339   5.116  0.4553  0.4862  0.2149
47787SOL    HW153291   5.784   8.328   5.125  0.0845  2.6498 -0.3307
47787SOL    HW253292   5.893   8.432   5.134  2.5003  0.1873  0.3405
47788SOL     OW53293   4.802   2.686   4.387  0.2089  0.1807 -0.2606
47788SOL    HW153294   4.812   2.752   4.319  0.3784  0.7217  0.2871
47788SOL    HW253295   4.711   2.659   4.382  0.3370 -0.1268 -1.0157
47789SOL     OW53296   6.822   4.264  11.581 -0.0390  0.1293 -0.2039
47789SOL    HW153297   6.886   4.197  11.607 -0.1627  0.0427 -0.1210
47789SOL    HW253298   6.820   4.325  11.654  1.8585  1.5607 -1.2791
47790SOL     OW53299   2.084  11.387   5.134 -0.1555  0.2068  0.2933
47790SOL    HW153300   2.105  11.366   5.225  0.7918  0.6493  0.1837
47790SOL    HW253301   2.165  11.423   5.098 -1.0512  1.8935 -0.1602
47791SOL     OW53302   0.166   7.052   0.927 -0.2359  0.0140  0.4395
47791SOL    HW153303   0.094   6.989   0.925  0.1439 -0.4499  1.0934
47791SOL    HW253304   0.245   6.998   0.929  0.1368  0.5160 -0.2002
47792SOL     OW53305   0.536  11.077   2.389 -0.6473  0.7842 -0.1710
47792SOL    HW153306   0.606  11.114   2.335 -1.1029 -0.8440 -1.9949
47792SOL    HW253307   0.470  11.048   2.326  0.0930 -3.9786  0.8930
47793SOL     OW53308   8.916   7.009   3.979  0.6142 -0.4929 -0.2167
47793SOL    HW153309   8.954   6.930   3.941 -0.2768 -1.8321  1.5211
47793SOL    HW253310   8.978   7.034   4.048 -0.0997 -0.8743  0.5738
47794SOL     OW53311   5.128   2.902   8.530  0.3827  0.1350 -0.0674
47794SOL    HW153312   5.202   2.962   8.534  1.6768 -1.4197  2.7668
47794SOL    HW253313   5.167   2.819   8.501 -0.4455 -0.4559  0.4732
47795SOL     OW53314   4.494  11.568   5.953  0.0829 -0.0185  0.1961
47795SOL    HW153315   4.570  11.555   5.896  0.9184 -1.7576  1.6223
47795SOL    HW253316   4.528  11.553   6.042 -1.6494  0.4958  0.9763
47796SOL     OW53317  10.456   9.145   0.982 -0.7246 -0.6411  0.0816
47796SOL    HW153318  10.520   9.199   0.936 -1.4335  0.5476  0.4462
47796SOL    HW253319  10.429   9.080   0.917  2.2563 -2.4857  0.4779
47797SOL     OW53320   8.652   4.834  10.788 -0.2340  0.2256 -0.0191
47797SOL    HW153321   8.652   4.774  10.714  1.1033  0.0499  0.0949
47797SOL    HW253322   8.734   4.816  10.833 -0.8745  0.5473  1.3343
47798SOL     OW53323   2.777   3.260   1.519  0.0757  0.5466  0.1458
47798SOL    HW153324   2.809   3.209   1.593 -1.4288  1.0507  1.1898
47798SOL    HW253325   2.795   3.351   1.544 -1.8741  0.8289  0.6664
47799SOL     OW53326   3.493   2.357   7.203 -0.2069 -0.6332  0.0189
47799SOL    HW153327   3.533   2.277   7.167 -1.3348 -1.3636  0.3167
47799SOL    HW253328   3.420   2.376   7.144  0.0057  0.1446 -0.0051
47800SOL     OW53329  10.089   5.127  12.596 -0.2605 -0.2088 -0.0795
47800SOL    HW153330  10.059   5.127  12.687  0.0040 -0.5603  0.0097
47800SOL    HW253331  10.012   5.152  12.545  0.0948  2.0897  0.4004
47801SOL     OW53332  12.711  13.310   4.184  0.1542  0.0926  0.0556
47801SOL    HW153333  12.743  13.222   4.164 -1.8947 -0.5058 -0.8604
47801SOL    HW253334  12.775  13.345   4.246  0.9222 -2.1008  0.5893
47802SOL     OW53335  12.137   3.569   4.271 -0.4037 -0.0682  0.5911
47802SOL    HW153336  12.058   3.607   4.233  1.0821  2.2255 -0.3659
47802SOL    HW253337  12.146   3.485   4.226 -1.2529  0.5014 -0.7080
47803SOL     OW53338  10.887   8.670   5.086  0.5817 -0.1637  0.1729
47803SOL    HW153339  10.918   8.631   5.167 -1.4607  0.1664  1.1783
47803SOL    HW253340  10.791   8.663   5.091  0.3489  0.9969 -1.6317
47804SOL     OW53341  10.252   3.428   6.050  0.3577 -0.1226 -0.5683
47804SOL    HW153342  10.296   3.343   6.044 -0.4773 -0.5524 -0.7171
47804SOL    HW253343  10.175   3.419   5.994  0.6290  0.9790 -1.1572
47805SOL     OW53344   1.654  11.707  11.468  0.6691  0.4956 -0.2030
47805SOL    HW153345   1.619  11.736  11.384 -1.5503 -0.0249  0.4737
47805SOL    HW253346   1.644  11.782  11.525 -0.0415  0.1253  0.1746
47806SOL     OW53347   6.024   7.773   7.505  0.0983 -0.2214  0.1755
47806SOL    HW153348   6.026   7.811   7.593  0.8039 -0.2703  0.1841
47806SOL    HW253349   5.948   7.814   7.463  1.4536  2.1114 -0.2160
47807SOL     OW53350   2.598   1.385   6.780 -0.8115  0.3069  0.3229
47807SOL    HW153351   2.544   1.316   6.741 -1.5828  1.3746 -0.5738
47807SOL    HW253352   2.684   1.346   6.790 -0.7489 -0.2388 -1.8794
47808SOL     OW53353   5.186   7.982   9.357  0.6679 -0.2595  0.0009
47808SOL    HW153354   5.264   7.927   9.350  1.5175  1.0636 -1.4129
47808SOL    HW253355   5.136   7.962   9.278  0.3388  0.0282  0.1367
47809SOL     OW53356   9.786   2.939   4.277  0.2931  0.5890 -0.3135
47809SOL    HW153357   9.830   2.949   4.361  1.0821  1.9060 -0.8447
47809SOL    HW253358   9.856   2.919   4.215  0.3210  3.2366 -1.2594
47810SOL     OW53359   4.346   7.245   6.854  0.0319 -0.4377 -0.4626
47810SOL    HW153360   4.286   7.314   6.827  1.8009  0.7457 -1.4834
47810SOL    HW253361   4.305   7.164   6.822 -1.5618  0.1816 -0.1195
47811SOL     OW53362  12.155   5.855  12.737  0.6027  0.3570  0.3147
47811SOL    HW153363  12.074   5.903  12.751 -1.1148 -2.6041  1.5755
47811SOL    HW253364  12.136   5.795  12.665  2.3176  0.8709 -0.6015
47812SOL     OW53365  12.712   6.653   9.243  0.1997  0.1594 -0.4715
47812SOL    HW153366  12.659   6.730   9.223 -0.3944 -0.5817 -1.8802
47812SOL    HW253367  12.663   6.580   9.206  0.6702 -0.9377  0.9671
47813SOL     OW53368   2.808  13.135   8.692  0.3943 -0.0351 -0.2638
47813SOL    HW153369   2.824  13.043   8.710  1.6341  0.2959  0.4904
47813SOL    HW253370   2.815  13.142   8.597 -0.6102 -0.8513 -0.4166
47814SOL     OW53371   4.127   9.075  12.045 -0.3941 -0.2895 -0.0872
47814SOL    HW153372   4.145   9.049  12.135  0.2105  0.8402  0.1419
47814SOL    HW253373   4.207   9.050  11.997  0.7141  2.0821  0.3647
47815SOL     OW53374   7.999   6.443  13.303 -0.1089  0.3760  0.1514
47815SOL    HW153375   7.914   6.400  13.289  1.2425 -3.0709  1.3605
47815SOL    HW253376   7.988   6.493  13.383 -0.6519 -1.3616  1.2200
47816SOL     OW53377  10.910  13.121   1.297 -0.1348  0.5906  0.7389
47816SOL    HW153378  10.896  13.148   1.206 -3.8876  2.2711  1.6192
47816SOL    HW253379  10.970  13.187   1.332 -0.2019  1.0823 -0.0311
47817SOL     OW53380  10.564   9.002   9.649  0.2523 -0.2826 -0.4894
47817SOL    HW153381  10.612   8.928   9.685  0.6108  0.5402  0.8069
47817SOL    HW253382  10.477   8.997   9.688  0.6262  0.5816  0.5285
47818SOL     OW53383   2.361   6.306   4.729  0.1688  0.9137 -0.2343
47818SOL    HW153384   2.304   6.356   4.787 -0.6674  0.1072 -0.3307
47818SOL    HW253385   2.432   6.276   4.786 -2.6036 -3.2548  1.6014
47819SOL     OW53386   3.704   6.173  13.004 -1.0211  0.0671  0.5158
47819SOL    HW153387   3.680   6.249  13.057 -2.4058  1.6051 -2.1271
47819SOL    HW253388   3.798   6.183  12.987 -0.7575  0.0310  1.8365
47820SOL     OW53389   8.897   4.506  10.808  0.0800  0.0787  0.0933
47820SOL    HW153390   8.877   4.564  10.734 -0.5521 -1.3243 -0.8682
47820SOL    HW253391   8.992   4.497  10.807 -0.0066 -0.9929 -1.4183
47821SOL     OW53392   8.465   9.259   0.198 -0.1925  0.4693  0.0896
47821SOL    HW153393   8.541   9.271   0.140 -1.0876  1.4188 -0.9391
47821SOL    HW253394   8.490   9.304   0.279  0.3978  0.6739 -0.1993
47822SOL     OW53395   0.447   5.124   1.403 -0.2724 -0.7273 -0.0290
47822SOL    HW153396   0.405   5.173   1.332 -0.3981  2.1710  1.8881
47822SOL    HW253397   0.374   5.089   1.454 -0.5241  2.3147  1.9557
47823SOL     OW53398   9.410   8.776  13.261 -0.2956  0.3496 -0.4949
47823SOL    HW153399   9.401   8.846  13.326 -0.6177  0.2194 -0.3997
47823SOL    HW253400   9.322   8.762  13.229 -0.6944 -1.7700  1.3129
47824SOL     OW53401  10.050   0.350   6.014 -0.0475  0.2520 -0.4958
47824SOL    HW153402  10.091   0.431   5.982 -0.7597  1.3164  1.1213
47824SOL    HW253403   9.957   0.372   6.020  0.0370  0.2276  2.3346
47825SOL     OW53404  11.543   0.924   3.613 -0.1646  0.1461 -0.0225
47825SOL    HW153405  11.495   0.976   3.677 -0.3702 -0.6176  0.4567
47825SOL    HW253406  11.477   0.864   3.577  0.1847 -0.1532 -0.1670
47826SOL     OW53407   2.745   4.123   3.849 -0.1021  0.4287  0.1745
47826SOL    HW153408   2.721   4.110   3.757 -2.1029 -2.7756  0.9830
47826SOL    HW253409   2.836   4.093   3.855 -0.8600 -2.2269 -0.3470
47827SOL     OW53410   5.362   1.765   9.416  0.2114 -0.2047 -0.9486
47827SOL    HW153411   5.397   1.835   9.361 -0.9763 -1.0248 -2.8545
47827SOL    HW253412   5.279   1.743   9.376 -0.2444 -1.5490  0.6397
47828SOL     OW53413   7.339   8.862  11.711  0.1208  0.1323  0.0739
47828SOL    HW153414   7.379   8.948  11.722  0.1137  0.3791 -1.5690
47828SOL    HW253415   7.397   8.802  11.758  1.2893  0.7602 -0.5380
47829SOL     OW53416   1.266  12.142   5.317 -0.6308  0.1336 -0.2397
47829SOL    HW153417   1.281  12.048   5.308  1.6274  0.5382 -1.3599
47829SOL    HW253418   1.349  12.182   5.292 -1.9233  2.5044 -1.0269
47830SOL     OW53419   2.623   4.683   3.828  0.4906  0.0422  0.2025
47830SOL    HW153420   2.681   4.760   3.825  1.1624 -0.4634  0.1061
47830SOL    HW253421   2.645   4.633   3.749  2.4651 -1.9588  1.9021
47831SOL     OW53422   5.457   5.865   7.370 -0.7557 -0.0660 -0.1205
47831SOL    HW153423   5.419   5.952   7.380 -1.9590 -0.4168 -1.3138
47831SOL    HW253424   5.391   5.816   7.321 -0.6614 -2.0323  1.6007
47832SOL     OW53425   0.978   7.485   7.042  0.6935 -0.4026 -0.1745
47832SOL    HW153426   0.928   7.416   6.999  0.4459 -0.1757 -0.2540
47832SOL    HW253427   1.069   7.465   7.021  0.6954 -1.2567  0.6234
47833SOL     OW53428   0.265   7.550   5.277  0.0201  0.0652  0.1362
47833SOL    HW153429   0.292   7.595   5.356  0.6794  1.6678 -0.9471
47833SOL    HW253430   0.223   7.470   5.308  2.3589 -0.5504  2.0362
47834SOL     OW53431  12.422   2.336   5.283 -0.1830 -0.0240 -0.4185
47834SOL    HW153432  12.437   2.431   5.282  0.6627 -0.1501 -1.4155
47834SOL    HW253433  12.508   2.299   5.264 -0.6883 -0.9667 -0.8943
47835SOL     OW53434  10.496  11.723   5.929  0.1927  0.4178  0.3619
47835SOL    HW153435  10.513  11.809   5.966  0.4329  0.8755 -0.7814
47835SOL    HW253436  10.443  11.679   5.995 -0.3593  1.6164  0.7477
47836SOL     OW53437   6.392   5.487  10.156 -0.3417 -0.1613 -0.4996
47836SOL    HW153438   6.419   5.456  10.069  0.4965 -0.2169 -0.2267
47836SOL    HW253439   6.456   5.556  10.177 -1.2524  0.6874 -0.4377
47837SOL     OW53440  11.223   5.939  12.765  0.0491  0.0393  0.1107
47837SOL    HW153441  11.217   5.867  12.828  0.1400 -0.6776 -0.6786
47837SOL    HW253442  11.169   5.911  12.691 -0.7655  1.2539  0.2232
47838SOL     OW53443   2.257   4.358   4.046  0.4351  0.2044 -0.1392
47838SOL    HW153444   2.282   4.379   4.136  0.7582 -4.4014  1.1081
47838SOL    HW253445   2.163   4.373   4.043  0.3383 -0.0464  1.1451
47839SOL     OW53446   2.800   4.775   4.415 -0.5161  0.2770 -0.2851
47839SOL    HW153447   2.793   4.839   4.485  1.0198 -0.1334  0.2968
47839SOL    HW253448   2.838   4.698   4.458  0.5714  0.0643 -1.5783
47840SOL     OW53449   3.421   8.033  12.313 -0.1793 -0.2199 -0.1178
47840SOL    HW153450   3.344   7.984  12.284  0.0515 -0.5378 -0.1989
47840SOL    HW253451   3.417   8.029  12.409 -1.5128  1.7208 -0.0403
47841SOL     OW53452  10.742   7.847   1.631 -0.1408  0.4610 -0.1633
47841SOL    HW153453  10.795   7.875   1.556  1.3183  0.8787  0.9836
47841SOL    HW253454  10.666   7.905   1.630 -0.4252  0.0980 -1.6248
47842SOL     OW53455   5.977  13.164  13.301 -0.0980  0.4972 -0.6306
47842SOL    HW153456   5.929  13.083  13.286 -0.4924  0.8747 -1.4541
47842SOL    HW253457   5.910  13.233  13.299  0.2802  0.8846 -0.3068
47843SOL     OW53458   7.994  12.133   5.025  0.1650 -0.0251  0.2891
47843SOL    HW153459   8.050  12.208   5.045  0.6259 -0.4180  0.4896
47843SOL    HW253460   8.054  12.069   4.986 -0.3233 -0.0854 -0.3830
47844SOL     OW53461   7.757   5.065   1.697 -0.3906 -0.0984 -0.3149
47844SOL    HW153462   7.785   5.010   1.770  0.2935  0.7874  0.1133
47844SOL    HW253463   7.816   5.044   1.626  1.6545  1.9239  0.6520
47845SOL     OW53464   1.296   3.113  10.430  0.0628  0.4998 -0.1392
47845SOL    HW153465   1.260   3.036  10.473  1.5922 -0.0991  0.1066
47845SOL    HW253466   1.390   3.103  10.436  0.4643  3.7564  2.4922
47846SOL     OW53467  11.328   9.982   5.509  0.1748  0.4456  0.2242
47846SOL    HW153468  11.423   9.992   5.507  0.2614  0.3330  2.0270
47846SOL    HW253469  11.313   9.910   5.571 -1.1490  1.9217  1.7241
47847SOL     OW53470  11.394   4.374   8.357 -0.6432  0.0428 -0.2521
47847SOL    HW153471  11.477   4.333   8.379 -0.5077 -1.1192 -2.6082
47847SOL    HW253472  11.385   4.360   8.262 -1.4174  3.9787 -0.9350
47848SOL     OW53473   4.728   7.454   8.835 -0.1068  0.1774 -0.1617
47848SOL    HW153474   4.670   7.389   8.875 -0.1097  1.3307  1.8798
47848SOL    HW253475   4.803   7.403   8.804 -1.5422 -1.1684 -1.6367
47849SOL     OW53476   2.334  11.829   6.227 -0.4197 -0.1813  0.2238
47849SOL    HW153477   2.349  11.844   6.134  1.1905  0.0347  0.4764
47849SOL    HW253478   2.338  11.916   6.267  0.4801 -0.3998  0.6563
47850SOL     OW53479   5.542   1.614   3.349 -0.1799  0.6257 -0.2870
47850SOL    HW153480   5.601   1.560   3.400 -0.6839 -0.7522 -1.1247
47850SOL    HW253481   5.471   1.636   3.410  0.8022  1.7478  0.5259
47851SOL     OW53482  11.075  11.994   1.500 -0.2806 -0.3878  0.2893
47851SOL    HW153483  11.120  11.963   1.578  0.5400 -0.1731 -0.0874
47851SOL    HW253484  11.000  11.936   1.490  0.3389 -1.2359  0.4993
47852SOL     OW53485   6.155  11.664   2.895 -0.0911 -0.0162 -0.7534
47852SOL    HW153486   6.235  11.644   2.943  0.2758  0.7045 -1.0447
47852SOL    HW253487   6.136  11.585   2.845  1.2145  0.2749 -1.7451
47853SOL     OW53488  12.397   6.033  11.892 -0.4285  0.0855 -0.1550
47853SOL    HW153489  12.345   6.063  11.817 -0.5954  1.0236  0.3152
47853SOL    HW253490  12.487   6.059  11.870  0.0271 -2.2451 -1.3301
47854SOL     OW53491   1.838   8.123   6.055  0.3124 -0.1793 -0.0191
47854SOL    HW153492   1.888   8.180   5.997  1.9990 -0.7857  0.7734
47854SOL    HW253493   1.750   8.121   6.017  0.1596  2.9052 -0.0764
47855SOL     OW53494  10.349   6.314  12.808 -0.1580 -0.4055 -0.2228
47855SOL    HW153495  10.347   6.302  12.903 -2.6631  1.3839  0.0265
47855SOL    HW253496  10.436   6.283  12.783 -0.2968 -3.3286  2.2723
47856SOL     OW53497  12.466   3.852   4.593 -0.3005  0.0794 -0.0323
47856SOL    HW153498  12.385   3.836   4.544 -0.6756  0.8255  0.3286
47856SOL    HW253499  12.535   3.816   4.537 -0.8222 -0.0207 -0.6249
47857SOL     OW53500   0.861   7.802  13.240  0.5084 -0.2074 -0.1355
47857SOL    HW153501   0.924   7.836  13.176  1.3121  0.7358  1.1052
47857SOL    HW253502   0.780   7.848  13.219  1.1685  1.3025  0.4792
47858SOL     OW53503  12.708   6.536   4.433  0.7460 -0.0762  0.3794
47858SOL    HW153504  12.700   6.546   4.338  3.0175  0.6490  0.1820
47858SOL    HW253505  12.790   6.487   4.445  1.5996  1.5918  1.9467
47859SOL     OW53506   6.679   7.341   4.579 -0.1556 -0.0587  0.0598
47859SOL    HW153507   6.726   7.266   4.615  0.3618 -0.5774 -1.6130
47859SOL    HW253508   6.723   7.359   4.496 -1.3943  0.9881 -0.3997
47860SOL     OW53509   0.500   0.803   3.763  0.1857 -0.0850  0.4629
47860SOL    HW153510   0.478   0.840   3.848  1.2782 -1.2607  1.2969
47860SOL    HW253511   0.448   0.723   3.756  0.0088  0.0655 -0.0370
47861SOL     OW53512   8.355   7.248   5.587 -0.2165  0.3340 -0.0973
47861SOL    HW153513   8.313   7.162   5.595 -1.5578  1.0797  1.6410
47861SOL    HW253514   8.326   7.281   5.502 -1.0563 -0.2543 -0.0537
47862SOL     OW53515   6.284   8.413   7.090 -0.4391 -0.2213  0.0250
47862SOL    HW153516   6.190   8.410   7.074 -0.4290 -0.2199 -0.0353
47862SOL    HW253517   6.313   8.322   7.078 -0.6639 -0.5163  1.5181
47863SOL     OW53518   0.455   3.472   3.212  0.0713 -0.3839 -0.1271
47863SOL    HW153519   0.510   3.550   3.216  0.5113 -0.6437 -0.9443
47863SOL    HW253520   0.379   3.499   3.159 -1.7525  0.6411  2.7475
47864SOL     OW53521   6.832   9.753   2.486  0.7737  0.0796 -0.1475
47864SOL    HW153522   6.890   9.716   2.419 -0.5464 -1.3503 -0.5533
47864SOL    HW253523   6.770   9.806   2.436  0.2410 -0.3932 -0.0021
47865SOL     OW53524   5.352   9.943   7.105  0.2083 -0.5418  0.3662
47865SOL    HW153525   5.390   9.888   7.036 -1.1237 -1.2598  0.1635
47865SOL    HW253526   5.403   9.923   7.183  0.9068 -0.7013 -0.1236
47866SOL     OW53527   3.686   4.669   8.548  0.1347  0.0296  0.1256
47866SOL    HW153528   3.591   4.682   8.547  0.1149  0.0338  0.9585
47866SOL    HW253529   3.720   4.743   8.598  0.3867 -0.9532  1.4707
47867SOL     OW53530   7.609  11.071   7.563 -0.1895 -0.1753  0.2570
47867SOL    HW153531   7.640  11.023   7.486 -1.3689 -1.8659  0.7667
47867SOL    HW253532   7.689  11.090   7.613  0.4775 -0.0054 -0.8354
47868SOL     OW53533   6.351   4.524  12.471 -0.7007  0.0601 -0.3130
47868SOL    HW153534   6.412   4.496  12.403 -1.3953  0.5383 -1.1538
47868SOL    HW253535   6.309   4.443  12.500  0.9769 -0.4083  0.9548
47869SOL     OW53536   1.205   0.262   0.795  0.1805  0.0720  0.8154
47869SOL    HW153537   1.279   0.230   0.846  0.3663  0.6003  0.8865
47869SOL    HW253538   1.152   0.185   0.777  0.0073 -0.0898  1.9738
47870SOL     OW53539   4.087   2.602   3.583 -0.0475  0.0524 -0.3576
47870SOL    HW153540   4.017   2.537   3.586  0.1271 -0.1627 -0.8137
47870SOL    HW253541   4.049   2.681   3.622 -0.9519  0.3328 -1.7638
47871SOL     OW53542  10.573   2.554  10.729 -0.1746  0.5121  0.2032
47871SOL    HW153543  10.584   2.638  10.772  1.9609 -1.0296  2.9990
47871SOL    HW253544  10.488   2.523  10.761  0.4165  0.3404  1.7334
47872SOL     OW53545  10.776  11.378   4.600 -0.0098 -0.1754 -0.0126
47872SOL    HW153546  10.863  11.418   4.588 -0.7918  1.7431  0.3782
47872SOL    HW253547  10.777  11.344   4.689  0.1945  0.2989  0.1730
47873SOL     OW53548   8.046   6.565  13.045 -0.2680 -0.2442  0.7223
47873SOL    HW153549   8.029   6.513  13.123  1.4161  0.2974  1.5092
47873SOL    HW253550   8.129   6.610  13.064 -0.8208  1.4310 -0.5817
47874SOL     OW53551   2.466   1.788   6.672 -0.1915 -0.1016  0.0003
47874SOL    HW153552   2.543   1.773   6.617  0.7463  1.4365  0.8118
47874SOL    HW253553   2.467   1.882   6.690 -2.5032  0.0275 -0.2626
47875SOL     OW53554   5.709   5.914  12.319  0.5195  0.0561  0.4992
47875SOL    HW153555   5.670   5.832  12.290 -2.3222  1.4720 -0.0159
47875SOL    HW253556   5.720   5.965  12.239  1.0967  0.6596  0.9471
47876SOL     OW53557  11.761  12.104   3.374 -0.4153 -0.4015  0.1086
47876SOL    HW153558  11.684  12.120   3.428 -0.0279  1.3718  0.1836
47876SOL    HW253559  11.730  12.109   3.284 -0.5465 -0.6323  0.1394
47877SOL     OW53560   6.942   4.127  10.596  0.0521 -0.0029  0.1759
47877SOL    HW153561   6.991   4.053  10.631  0.0025  0.1560  0.5910
47877SOL    HW253562   6.976   4.203  10.643  0.5300  0.3215 -0.6828
47878SOL     OW53563   4.144   6.299   4.393  0.4190 -0.1827  0.2470
47878SOL    HW153564   4.077   6.301   4.462  0.9964  0.2345  0.8132
47878SOL    HW253565   4.100   6.261   4.318  0.2219 -2.2951  1.3387
47879SOL     OW53566  10.690   9.522  10.316 -0.8136  0.1083 -0.0746
47879SOL    HW153567  10.661   9.561  10.234 -1.1769  0.6550  0.3068
47879SOL    HW253568  10.748   9.588  10.354 -0.5126 -0.2137  0.0297
47880SOL     OW53569   6.975  10.570  10.560  0.4651  0.2056  0.1682
47880SOL    HW153570   6.974  10.666  10.557 -0.9586  0.1930 -0.7222
47880SOL    HW253571   6.899  10.547  10.613  0.5451 -0.4394  0.0124
47881SOL     OW53572   3.109   5.531  12.771 -0.1519 -0.1172  0.4156
47881SOL    HW153573   3.126   5.463  12.836  2.9336  2.0398  2.1351
47881SOL    HW253574   3.184   5.528  12.713  0.3402  2.0707  0.8507
47882SOL     OW53575  11.943   5.103   2.700 -0.2039 -0.0417  0.2337
47882SOL    HW153576  11.981   5.080   2.615 -3.1398 -1.1953 -0.8722
47882SOL    HW253577  11.981   5.040   2.760  1.1547  0.1496 -0.3726
47883SOL     OW53578   5.818   0.155   8.523  0.4490 -0.1237  0.0571
47883SOL    HW153579   5.913   0.161   8.527  0.4299 -0.0286  0.4225
47883SOL    HW253580   5.796   0.084   8.584  0.1333  1.3820  1.7988
47884SOL     OW53581   6.188  10.422   2.746 -0.3027  0.2736  0.1590
47884SOL    HW153582   6.251  10.363   2.703 -1.9328 -1.8858  0.5322
47884SOL    HW253583   6.153  10.475   2.675 -0.2737 -0.6613 -0.5793
47885SOL     OW53584   9.055  10.493   3.023 -0.4085  0.1607  0.4531
47885SOL    HW153585   9.032  10.517   2.933 -0.6509 -0.8538  0.2270
47885SOL    HW253586   9.002  10.550   3.078  0.3906  1.4037 -0.0353
47886SOL     OW53587   0.935   6.558  11.800 -0.2153 -0.3269 -0.0360
47886SOL    HW153588   0.940   6.601  11.886 -3.0012 -0.1242  0.1382
47886SOL    HW253589   0.855   6.595  11.760 -1.0147 -3.0602 -1.1848
47887SOL     OW53590   3.668   5.983   6.342 -0.0953  0.1494 -0.2231
47887SOL    HW153591   3.646   5.903   6.390  0.3338  0.0781 -0.1351
47887SOL    HW253592   3.648   6.054   6.402 -0.0818  0.0853 -0.1424
47888SOL     OW53593  10.797   3.700   5.449  0.3621  0.2182 -0.0586
47888SOL    HW153594  10.868   3.723   5.390 -0.1129  0.8481 -0.3960
47888SOL    HW253595  10.807   3.759   5.524  0.7018 -0.2816  0.2996
47889SOL     OW53596  11.307   5.705   4.237 -0.0775  0.2635 -0.3800
47889SOL    HW153597  11.369   5.777   4.236 -1.2915  1.3336 -1.5177
47889SOL    HW253598  11.221   5.746   4.239 -0.8037 -1.1673 -0.3876
47890SOL     OW53599  12.710   7.310   5.944 -0.3973 -0.1190  0.0342
47890SOL    HW153600  12.667   7.385   5.984  0.9598  0.2837  0.7882
47890SOL    HW253601  12.657   7.291   5.866  0.6589  3.3024 -1.7365
47891SOL     OW53602   6.516   1.269   5.906  0.3600  0.4860  0.0751
47891SOL    HW153603   6.551   1.354   5.934 -0.8077  1.0398 -0.0915
47891SOL    HW253604   6.487   1.227   5.987 -1.0174  1.1711 -0.0265
47892SOL     OW53605  10.735   2.283   7.211 -0.6458 -0.4450  0.2603
47892SOL    HW153606  10.798   2.228   7.164 -0.8642 -0.7941  0.3684
47892SOL    HW253607  10.749   2.371   7.176  1.4889 -0.0419  1.8668
47893SOL     OW53608  12.422   6.004   6.104  0.1255 -0.4735  0.2788
47893SOL    HW153609  12.419   6.099   6.098 -0.0308 -0.4656  0.4493
47893SOL    HW253610  12.378   5.973   6.025  1.3746 -0.4228 -0.4617
47894SOL     OW53611  10.696   6.090   7.330 -0.0488  0.2739 -0.1506
47894SOL    HW153612  10.782   6.089   7.289 -0.3441 -0.1090 -0.7926
47894SOL    HW253613  10.711   6.064   7.421  0.6189  1.1036 -0.0139
47895SOL     OW53614   6.964   2.983   2.198  0.5230 -0.7187 -0.8355
47895SOL    HW153615   6.985   3.074   2.176 -0.2631 -0.8988 -2.5017
47895SOL    HW253616   7.036   2.932   2.161 -0.2825 -0.9401 -2.1814
47896SOL     OW53617   1.666   1.892   1.723 -0.1272 -0.6171  0.2780
47896SOL    HW153618   1.676   1.987   1.729 -0.5539 -0.5139 -0.5030
47896SOL    HW253619   1.575   1.875   1.747  0.2419 -0.9546  1.5147
47897SOL     OW53620  11.771   2.078   8.148  0.1548  0.4043  0.2360
47897SOL    HW153621  11.833   2.028   8.095  0.9998  0.4569  1.1252
47897SOL    HW253622  11.685   2.046   8.122  0.6642 -1.4241  0.6595
47898SOL     OW53623   6.601   8.054  12.737  0.2101 -0.1296 -0.0793
47898SOL    HW153624   6.513   8.090  12.747  0.1608 -0.0630 -0.7061
47898SOL    HW253625   6.602   8.017  12.648  0.6026 -0.7145  0.1596
47899SOL     OW53626  12.041   1.207   3.833  0.1579  0.2987  0.3050
47899SOL    HW153627  11.985   1.145   3.785 -0.9819  1.1562  0.5002
47899SOL    HW253628  12.102   1.240   3.767  1.3054 -1.5565  0.3463
47900SOL     OW53629   1.022  11.696   8.980  0.0913 -0.3530  0.0474
47900SOL    HW153630   0.957  11.700   8.910 -1.1978 -0.4399  1.1972
47900SOL    HW253631   0.975  11.658   9.054  0.9826  1.0804  1.4108
47901SOL     OW53632   2.596   0.791   0.364  0.1071 -0.0566  0.2744
47901SOL    HW153633   2.637   0.861   0.415  1.9308 -0.4412 -0.5709
47901SOL    HW253634   2.522   0.833   0.320  0.2757  0.9773  0.9458
47902SOL     OW53635   7.225   3.694   0.026 -0.1859  0.6986 -0.1603
47902SOL    HW153636   7.320   3.699   0.017 -0.1999  0.0840 -0.7592
47902SOL    HW253637   7.191   3.748  -0.045 -0.2794 -1.2891 -1.7059
47903SOL     OW53638   5.632   8.616  13.076  0.1192  0.0230 -0.2366
47903SOL    HW153639   5.561   8.678  13.060  0.0365 -0.3339 -1.3719
47903SOL    HW253640   5.601   8.562  13.149 -1.0779 -0.5237 -1.0962
47904SOL     OW53641  11.723   7.836   2.609 -0.0506  0.5241  0.1240
47904SOL    HW153642  11.710   7.743   2.593 -1.2855  0.2580  2.3564
47904SOL    HW253643  11.715   7.876   2.522  2.1577 -1.5494 -1.1455
47905SOL     OW53644   5.837  11.260   4.320 -0.0424  0.5385  0.5735
47905SOL    HW153645   5.778  11.230   4.251  1.0227 -0.6644  0.1509
47905SOL    HW253646   5.821  11.355   4.326 -1.9390  0.2555  0.4387
47906SOL     OW53647   6.715   8.104   0.406 -0.2666 -0.0570  0.3911
47906SOL    HW153648   6.685   8.162   0.476  0.1849 -0.2399  0.7364
47906SOL    HW253649   6.758   8.032   0.451  0.2839 -0.0347 -0.0830
47907SOL     OW53650   4.903  11.817  11.930  0.3266 -0.6101  0.2860
47907SOL    HW153651   4.851  11.739  11.912  0.2297 -0.4018 -0.3410
47907SOL    HW253652   4.841  11.890  11.923  0.8892 -0.2585 -1.5193
47908SOL     OW53653  11.279   7.063  13.274 -0.0052 -0.1053 -0.6206
47908SOL    HW153654  11.357   7.055  13.218  0.3549 -2.0267  0.0874
47908SOL    HW253655  11.226   6.987  13.251  1.0277 -2.1142  2.8942
47909SOL     OW53656  12.343   9.251   2.703 -0.0557 -0.3843  0.1459
47909SOL    HW153657  12.413   9.315   2.715 -0.8741  0.5457  0.0882
47909SOL    HW253658  12.291   9.257   2.783 -0.9885  0.1186 -0.4754
47910SOL     OW53659   1.241   6.811   1.072  0.4082  0.1090 -0.0429
47910SOL    HW153660   1.228   6.853   0.986 -0.5705  1.6355  0.7856
47910SOL    HW253661   1.243   6.718   1.053 -0.5858  0.3680 -1.6603
47911SOL     OW53662   4.054  13.004  11.145  0.0788 -0.4222 -0.2404
47911SOL    HW153663   4.035  12.997  11.052 -2.5025 -0.5315  0.2181
47911SOL    HW253664   4.144  12.973  11.154 -0.1953 -2.0549 -2.4500
47912SOL     OW53665   3.746   6.532   7.313 -0.1757 -0.3488 -0.1711
47912SOL    HW153666   3.747   6.517   7.408 -0.4787 -0.2830 -0.1584
47912SOL    HW253667   3.679   6.599   7.300  0.7423  0.5887 -0.2868
47913SOL     OW53668   4.593   0.646   9.895 -0.6660 -0.3496  0.8168
47913SOL    HW153669   4.625   0.569   9.942 -0.6780 -0.9405 -0.1160
47913SOL    HW253670   4.517   0.615   9.846 -0.3147  0.0992 -0.0449
47914SOL     OW53671   9.721   8.422   6.655 -0.2382  0.2267  0.0135
47914SOL    HW153672   9.687   8.380   6.734 -0.9953 -1.6596 -1.2356
47914SOL    HW253673   9.680   8.374   6.583 -1.4166  3.3253 -1.5808
47915SOL     OW53674   3.297  12.252   1.576 -0.2949 -0.1169 -0.5228
47915SOL    HW153675   3.308  12.157   1.581  0.7613  0.0517  2.5476
47915SOL    HW253676   3.383  12.287   1.599 -1.0014  1.5674 -0.3130
47916SOL     OW53677  13.032   1.118   1.904  0.3207 -0.2245  0.0747
47916SOL    HW153678  13.079   1.096   1.824 -1.8253 -0.6885 -1.1258
47916SOL    HW253679  13.057   1.049   1.966 -1.3749 -2.4979 -1.6301
47917SOL     OW53680   1.849   9.056  10.648  0.2327  0.2588 -0.5930
47917SOL    HW153681   1.849   9.123  10.579  2.5223  0.3570 -0.5750
47917SOL    HW253682   1.895   8.982  10.609 -0.0877 -0.3849  0.2244
47918SOL     OW53683   4.227   1.929   5.953 -0.3644 -0.3069 -0.6255
47918SOL    HW153684   4.179   2.011   5.956 -0.9445 -0.6773  1.1838
47918SOL    HW253685   4.261   1.917   6.042  0.8360 -1.3729 -1.1905
47919SOL     OW53686   7.581   2.180   4.455 -0.8088 -0.0740  0.6236
47919SOL    HW153687   7.621   2.178   4.367 -0.7872  0.5307  0.6174
47919SOL    HW253688   7.487   2.175   4.438 -0.8851  1.3960  0.4827
47920SOL     OW53689   2.512   5.330  11.124  0.0636  0.2525 -0.1315
47920SOL    HW153690   2.571   5.379  11.068 -1.3476  3.3426  0.8657
47920SOL    HW253691   2.525   5.367  11.211 -0.5479 -1.7311  0.8564
47921SOL     OW53692   1.929   2.466   2.598  0.1453  0.4279  0.0943
47921SOL    HW153693   1.927   2.388   2.654  2.8493  0.8195  0.8804
47921SOL    HW253694   1.913   2.431   2.510 -0.2148 -0.7917  0.6128
47922SOL     OW53695   5.140   2.688   5.300 -0.5869 -0.3133 -0.3374
47922SOL    HW153696   5.094   2.702   5.383 -1.3115 -0.6750 -0.6676
47922SOL    HW253697   5.072   2.695   5.233  0.2436  1.6630 -1.0724
47923SOL     OW53698   5.031   6.057   9.220  0.2559 -0.3588  0.2388
47923SOL    HW153699   5.060   6.070   9.130  0.5724  2.2820  0.6611
47923SOL    HW253700   4.954   6.000   9.212 -1.4684  2.0475 -2.0447
47924SOL     OW53701   0.031   4.528   9.694 -0.3187  0.3419  0.1424
47924SOL    HW153702   0.005   4.457   9.753  0.5568 -0.2275 -0.1371
47924SOL    HW253703  -0.016   4.510   9.612  0.2376 -0.1693 -0.0693
47925SOL     OW53704   8.537  12.146  10.578  0.0392 -0.5550  0.3845
47925SOL    HW153705   8.618  12.125  10.531 -0.9147  0.2675 -1.7174
47925SOL    HW253706   8.553  12.233  10.615 -0.4468  0.3891 -1.5140
47926SOL     OW53707   3.752   4.121   9.802  0.1230 -0.8310  0.0745
47926SOL    HW153708   3.829   4.067   9.818  0.0081 -0.9390  0.2687
47926SOL    HW253709   3.729   4.105   9.711 -0.6594 -2.0912  0.4596
47927SOL     OW53710  10.992   4.680   9.417 -0.6518 -0.5418  0.2371
47927SOL    HW153711  10.951   4.621   9.355  1.1875  0.3189 -1.9385
47927SOL    HW253712  10.961   4.767   9.391  2.1591  0.1208 -1.3740
47928SOL     OW53713   4.186  11.723  10.933 -0.6180 -0.0458 -0.2474
47928SOL    HW153714   4.236  11.715  11.014 -1.2844  0.3697  0.2209
47928SOL    HW253715   4.196  11.815  10.907 -0.9284 -0.0223 -0.2881
47929SOL     OW53716   6.323   9.835   8.001 -0.2229  0.2782  0.2437
47929SOL    HW153717   6.318   9.900   8.071  1.2838  0.2774  0.3902
47929SOL    HW253718   6.315   9.751   8.046  0.4616  0.2874  0.3939
47930SOL     OW53719   8.136   1.989   0.160  0.3467  0.2183  0.2208
47930SOL    HW153720   8.158   1.913   0.107 -0.1630 -1.0931  1.8185
47930SOL    HW253721   8.093   2.049   0.099  3.2196  0.5068 -1.7242
47931SOL     OW53722   5.718  13.057   3.307 -0.2681 -0.3100  0.1979
47931SOL    HW153723   5.648  13.120   3.291  0.2694  0.0491 -0.8089
47931SOL    HW253724   5.794  13.111   3.329 -0.0541 -0.6502  0.3001
47932SOL     OW53725   9.120   7.578   6.792  0.3264 -0.1280  0.2942
47932SOL    HW153726   9.133   7.643   6.722 -1.2004  0.8134  0.8341
47932SOL    HW253727   9.136   7.494   6.750  0.8016  0.5005 -0.8327
47933SOL     OW53728   7.031   3.058  11.372  0.1616 -0.3994 -0.1325
47933SOL    HW153729   7.027   3.117  11.297 -3.9840  0.5001  0.5966
47933SOL    HW253730   7.040   3.116  11.448  2.0913 -1.1742  0.2913
47934SOL     OW53731   9.051   0.445  11.586 -0.7202  0.3468 -0.4038
47934SOL    HW153732   9.119   0.495  11.540  0.7063  0.3132  1.5699
47934SOL    HW253733   9.094   0.413  11.665 -3.2660  0.9974  1.3433
47935SOL     OW53734   6.416   8.649   8.029  0.3828 -0.0501 -0.4886
47935SOL    HW153735   6.364   8.632   7.950 -0.0820  0.0227 -0.1998
47935SOL    HW253736   6.363   8.614   8.101  0.9482 -0.4027 -0.2348
47936SOL     OW53737   3.720   5.737   0.652  0.5467 -0.4223 -0.2206
47936SOL    HW153738   3.655   5.763   0.587 -0.4168  1.9665  1.5156
47936SOL    HW253739   3.671   5.734   0.735  2.3762  0.1964  0.9428
47937SOL     OW53740   4.292   4.349  12.626  0.0818 -0.6344  0.4357
47937SOL    HW153741   4.241   4.402  12.688  1.8431 -0.2009  1.5847
47937SOL    HW253742   4.226   4.309  12.569 -1.4779  0.5481  1.3194
47938SOL     OW53743   3.079  11.724   8.481 -0.4840 -0.7309  0.3205
47938SOL    HW153744   3.105  11.815   8.494 -0.4772 -0.7111  0.1711
47938SOL    HW253745   3.041  11.722   8.394 -1.0510 -0.7492  0.5603
47939SOL     OW53746   5.121   4.300   2.427 -0.1327 -0.2433 -0.3552
47939SOL    HW153747   5.188   4.335   2.367 -1.3421  0.1071 -1.5663
47939SOL    HW253748   5.135   4.206   2.426  0.3209 -0.1773 -0.6433
47940SOL     OW53749   7.732   6.372   0.050 -0.2654  0.4558 -0.1142
47940SOL    HW153750   7.722   6.467   0.047 -1.6376  0.3108 -0.8566
47940SOL    HW253751   7.724   6.349   0.142  1.8602  1.2003  0.3163
47941SOL     OW53752   0.917   2.045   7.819  0.3032 -0.0708  0.8586
47941SOL    HW153753   0.978   2.080   7.883 -0.0801 -1.0208  1.7617
47941SOL    HW253754   0.905   2.116   7.756  1.3048  0.5888  1.3937
47942SOL     OW53755   1.389   6.241   1.819  0.4462  0.7424 -0.3996
47942SOL    HW153756   1.311   6.242   1.873  0.3207  0.6428 -0.5766
47942SOL    HW253757   1.455   6.197   1.873  0.4961  1.1914 -0.0948
47943SOL     OW53758  12.752  11.450  10.458  0.0603  0.0202  0.0657
47943SOL    HW153759  12.810  11.526  10.458  1.6013 -1.1130 -1.3461
47943SOL    HW253760  12.698  11.461  10.380 -0.4292  0.1631  0.4162
47944SOL     OW53761  11.387   1.701   6.261  0.4420  0.1998 -0.0384
47944SOL    HW153762  11.307   1.675   6.307 -1.1978  2.1456 -1.5953
47944SOL    HW253763  11.454   1.700   6.329 -1.2606  0.2071  1.7647
47945SOL     OW53764   9.491  12.425  11.965  0.5313 -0.4641 -0.6556
47945SOL    HW153765   9.513  12.333  11.947 -0.1928 -0.1436 -3.7579
47945SOL    HW253766   9.563  12.475  11.925  2.0671  0.4201  2.8498
47946SOL     OW53767   9.414  10.413   7.079 -0.2312  0.4221 -0.1430
47946SOL    HW153768   9.355  10.389   7.150 -0.5836  1.5324 -0.0509
47946SOL    HW253769   9.459  10.492   7.110 -0.8938  1.3364 -1.4175
47947SOL     OW53770   1.364   0.734   9.179 -0.2044 -0.1542  0.3401
47947SOL    HW153771   1.395   0.824   9.190 -1.0914  0.1104  0.7468
47947SOL    HW253772   1.294   0.724   9.244  0.3891 -1.3853  0.8096
47948SOL     OW53773   1.505   3.400   3.624  0.1452 -0.2095 -0.1054
47948SOL    HW153774   1.498   3.305   3.616 -1.4496 -0.2705  1.4014
47948SOL    HW253775   1.420   3.433   3.595  0.4860  0.7264 -0.0965
47949SOL     OW53776   3.494   4.424   9.389  0.3997  0.2363  0.0600
47949SOL    HW153777   3.574   4.407   9.338  0.6353  0.7629  0.2366
47949SOL    HW253778   3.433   4.460   9.326 -0.2055 -1.4824 -0.3757
47950SOL     OW53779   8.476   1.051  11.480 -0.2088  0.2920  0.1562
47950SOL    HW153780   8.496   1.038  11.388 -0.9619 -0.3835  0.0853
47950SOL    HW253781   8.437   0.968  11.509  0.0485  0.4754  1.0918
47951SOL     OW53782  12.893   9.105  11.062 -0.0359  0.4829  0.1659
47951SOL    HW153783  12.964   9.077  11.004 -0.6798 -2.5063  0.6566
47951SOL    HW253784  12.831   9.150  11.004  0.9889  0.6905 -0.7914
47952SOL     OW53785   8.180   1.984   3.930 -0.1636 -0.6139 -0.4743
47952SOL    HW153786   8.194   2.064   3.880 -1.6013 -0.3467 -0.4894
47952SOL    HW253787   8.241   1.991   4.004 -0.3597  0.5672 -0.3969
47953SOL     OW53788  12.342  10.677   3.201 -0.5901  0.1384  0.4877
47953SOL    HW153789  12.262  10.718   3.168 -0.9023 -1.6373 -1.1764
47953SOL    HW253790  12.316  10.588   3.224  0.8446 -0.4028  0.1611
47954SOL     OW53791  13.219   1.193   6.255  0.2930  0.1253 -0.0538
47954SOL    HW153792  13.154   1.155   6.314  0.0629 -0.2179 -0.5263
47954SOL    HW253793  13.250   1.119   6.203 -0.9174  0.7415 -1.6997
47955SOL     OW53794   0.884   3.311  12.306 -0.0532 -0.3962  0.0289
47955SOL    HW153795   0.949   3.376  12.332 -0.4104 -0.1542  0.3474
47955SOL    HW253796   0.813   3.322  12.370  0.2314 -1.6501  0.5888
47956SOL     OW53797  12.957  11.380   8.505 -0.6987 -0.5352 -0.2097
47956SOL    HW153798  12.907  11.451   8.466 -0.7802 -1.9316 -2.8552
47956SOL    HW253799  12.892  11.325   8.549 -0.9654 -0.3573 -0.3838
47957SOL     OW53800   1.746  11.861   8.032  0.0658  0.4094  0.3174
47957SOL    HW153801   1.721  11.943   8.073 -0.4011  0.3960  0.0625
47957SOL    HW253802   1.734  11.876   7.938 -2.4071 -0.7143  0.3889
47958SOL     OW53803  11.342  11.487   9.707 -0.1020 -0.1963  0.3043
47958SOL    HW153804  11.412  11.472   9.644 -0.6796 -0.2403 -0.3318
47958SOL    HW253805  11.308  11.573   9.686 -0.2909 -0.2035  0.5720
47959SOL     OW53806   0.819  10.540  11.895  0.1955  0.4926  0.1942
47959SOL    HW153807   0.811  10.445  11.890  0.8029  0.4033  0.8118
47959SOL    HW253808   0.772  10.564  11.975 -1.6406  0.9406 -0.9489
47960SOL     OW53809   8.551   7.060   1.782 -0.1832  0.1233 -0.6960
47960SOL    HW153810   8.521   7.011   1.858  0.6322 -0.4712 -0.7490
47960SOL    HW253811   8.587   7.142   1.819 -0.8990  0.3745 -0.5503
47961SOL     OW53812   5.970   1.211   7.135  0.1456  0.2178  0.4686
47961SOL    HW153813   5.897   1.257   7.177 -1.0875 -0.9124 -0.3718
47961SOL    HW253814   5.984   1.257   7.053 -1.1346 -0.8965 -0.4048
47962SOL     OW53815  13.061   4.481   8.972  0.0316  0.6931  0.4445
47962SOL    HW153816  13.081   4.538   8.897  1.3277 -0.0634  0.1801
47962SOL    HW253817  13.044   4.395   8.933  0.2254  0.4010  0.9924
47963SOL     OW53818   2.221   8.084   8.713  0.2047  0.2223 -0.2325
47963SOL    HW153819   2.207   8.059   8.804 -1.0095  1.7132  0.0283
47963SOL    HW253820   2.279   8.016   8.678  0.3339 -0.6176  1.5135
47964SOL     OW53821   2.859  11.222   1.494  0.3490 -0.0458  0.6350
47964SOL    HW153822   2.864  11.312   1.527 -0.1495 -0.1216  0.9274
47964SOL    HW253823   2.803  11.227   1.417  0.6063 -0.0532  0.4441
47965SOL     OW53824  11.113   0.300   8.292  0.2922 -0.3208 -0.1137
47965SOL    HW153825  11.018   0.291   8.304  0.5818 -1.1460  1.9525
47965SOL    HW253826  11.140   0.360   8.361  1.5040 -1.5864  0.5615
47966SOL     OW53827   1.357   6.970   3.425 -0.4467 -0.0766 -0.1071
47966SOL    HW153828   1.417   6.990   3.352  1.4129  0.5800  1.5042
47966SOL    HW253829   1.333   7.056   3.460 -1.3149 -0.3889  0.0933
47967SOL     OW53830   8.273  13.180   8.110 -0.7035 -0.1708 -0.8000
47967SOL    HW153831   8.212  13.179   8.184  0.2136  0.4137 -0.0109
47967SOL    HW253832   8.326  13.102   8.121 -0.3345  0.1009 -0.6448
47968SOL     OW53833   9.943   1.263   8.460 -0.4888 -0.2231 -0.0442
47968SOL    HW153834   9.978   1.229   8.378  0.2740 -1.0301  0.5981
47968SOL    HW253835   9.972   1.201   8.527  2.0486  2.2540  1.3801
47969SOL     OW53836   3.078   4.749   9.494  0.0407  0.0887  0.5984
47969SOL    HW153837   3.161   4.766   9.449  0.1304  0.4842  0.9070
47969SOL    HW253838   3.030   4.831   9.487 -0.6490 -0.3711 -0.2443
47970SOL     OW53839   8.151   8.766  11.441 -0.2342  0.0676 -0.0043
47970SOL    HW153840   8.070   8.796  11.481 -0.1670  0.6093 -0.2588
47970SOL    HW253841   8.125   8.735  11.354 -0.4411 -1.4778  0.5921
47971SOL     OW53842   4.625   5.673  12.563  0.2231 -0.5071  0.3382
47971SOL    HW153843   4.656   5.692  12.474  1.8200 -0.1461  0.9408
47971SOL    HW253844   4.557   5.739  12.579  0.1035 -0.4146 -0.5128
47972SOL     OW53845  11.261   4.736  11.938 -0.3135  0.1320 -0.3321
47972SOL    HW153846  11.272   4.676  12.012  2.2447 -0.7025 -1.2869
47972SOL    HW253847  11.312   4.813  11.962 -0.0984  0.1709 -0.8881
47973SOL     OW53848  10.213   3.730   2.378  0.1926  0.5590  0.2943
47973SOL    HW153849  10.268   3.702   2.451 -0.4347  0.5054  0.7529
47973SOL    HW253850  10.123   3.727   2.412 -0.0677  1.0273 -0.3169
47974SOL     OW53851  11.757   5.907  11.235  0.1873  0.1036 -0.3266
47974SOL    HW153852  11.747   5.979  11.172  0.8858 -0.8841 -1.6005
47974SOL    HW253853  11.776   5.830  11.181 -0.2125 -0.9830  1.0335
47975SOL     OW53854   9.240   0.015  11.374  0.3497  0.3665 -0.2988
47975SOL    HW153855   9.291   0.084  11.416 -1.4654  0.7317  1.4162
47975SOL    HW253856   9.178  -0.013  11.440 -0.0070 -1.8622 -1.4779
47976SOL     OW53857   2.423   2.591   7.339 -0.2421 -0.4114  0.9394
47976SOL    HW153858   2.497   2.551   7.385 -1.1025 -5.0015 -1.1176
47976SOL    HW253859   2.463   2.651   7.277  1.7355 -1.7607  0.8162
47977SOL     OW53860   1.605   2.835   7.365 -0.2226  0.2886  0.5807
47977SOL    HW153861   1.532   2.774   7.350  0.0289  0.2892 -0.7336
47977SOL    HW253862   1.677   2.799   7.314  1.0238 -0.2038  2.5501
47978SOL     OW53863   7.445  12.157   5.444  0.5688 -0.5977 -1.0048
47978SOL    HW153864   7.475  12.100   5.515 -0.7093 -1.6914 -1.3197
47978SOL    HW253865   7.513  12.225   5.439  1.6205 -1.5173  0.0342
47979SOL     OW53866   3.284   2.452  10.924  0.3712 -0.1083  0.3966
47979SOL    HW153867   3.319   2.375  10.880  0.6302 -0.6811  1.5763
47979SOL    HW253868   3.254   2.420  11.009  1.9923  1.3528  1.5914
47980SOL     OW53869   4.618   4.925   2.337  0.0310 -0.4664 -0.5468
47980SOL    HW153870   4.687   4.992   2.332  1.2164 -1.5378  0.7554
47980SOL    HW253871   4.582   4.922   2.248  0.8384  0.9560 -0.9670
47981SOL     OW53872   7.686   0.124   7.134 -0.3062  0.0616 -0.3092
47981SOL    HW153873   7.687   0.175   7.215  2.0096  1.7984 -1.3164
47981SOL    HW253874   7.709   0.035   7.162  1.8535  0.9005  0.8728
47982SOL     OW53875   5.856   7.010   1.960 -0.0933 -0.3493 -0.0649
47982SOL    HW153876   5.930   7.068   1.943  0.5278 -1.0770  0.0925
47982SOL    HW253877   5.825   6.983   1.873 -0.5383  0.3945 -0.1442
47983SOL     OW53878   4.666   6.669  12.695 -0.2797 -0.1544 -0.1613
47983SOL    HW153879   4.627   6.596  12.745 -0.6764  0.9829  1.2646
47983SOL    HW253880   4.702   6.628  12.617  0.1193 -2.0001  0.9244
47984SOL     OW53881   3.798  10.101   7.141 -0.2330  0.2441 -0.1505
47984SOL    HW153882   3.796  10.007   7.124 -2.5394  0.1274  0.3802
47984SOL    HW253883   3.714  10.119   7.184  1.0422  2.2095  1.6780
47985SOL     OW53884   0.079   1.812  11.532  0.7256  0.2489  0.0273
47985SOL    HW153885   0.063   1.825  11.439  1.8662 -2.4593 -0.6351
47985SOL    HW253886   0.075   1.901  11.569  1.2981  1.5532 -2.7290
47986SOL     OW53887   6.322  10.438   8.422 -0.1918 -0.0991  0.0205
47986SOL    HW153888   6.325  10.515   8.365 -3.1298 -0.0798 -0.2508
47986SOL    HW253889   6.292  10.473   8.507  1.9507 -0.4719  1.0039
47987SOL     OW53890   1.038   1.932  11.491  0.1380 -0.1421 -0.0625
47987SOL    HW153891   1.017   2.008  11.438 -0.5826  0.2225  0.7310
47987SOL    HW253892   0.953   1.894  11.515  0.4717 -0.8428  0.0552
47988SOL     OW53893   1.418   1.628   7.553  0.1303  0.5914  0.3133
47988SOL    HW153894   1.432   1.534   7.551  1.5064  0.7728  0.4575
47988SOL    HW253895   1.396   1.652   7.463 -0.0386  0.1752  0.2425
47989SOL     OW53896   7.917  10.664   8.127  0.3910  0.4085 -0.6372
47989SOL    HW153897   7.856  10.737   8.132 -0.6737 -0.5080  0.5767
47989SOL    HW253898   8.001  10.700   8.157  0.1884  1.4090 -1.2404
47990SOL     OW53899   6.905   5.810   5.926  0.1391  0.9842  0.5845
47990SOL    HW153900   6.966   5.867   5.878 -0.4548  0.9477 -0.2272
47990SOL    HW253901   6.818   5.838   5.896 -0.2448  0.9905  1.6820
47991SOL     OW53902   3.699   1.758   5.976  0.0157 -0.0744 -0.3328
47991SOL    HW153903   3.733   1.817   6.043 -0.7247  0.4887 -0.4402
47991SOL    HW253904   3.766   1.690   5.967  0.1057 -0.1845  0.9997
47992SOL     OW53905  12.367   9.253   3.183  0.3166  0.0752  0.5758
47992SOL    HW153906  12.382   9.307   3.260  0.0057  1.3351 -0.2170
47992SOL    HW253907  12.310   9.182   3.213  0.2012  0.5470  1.4861
47993SOL     OW53908   3.006   6.157   2.199  0.0872 -0.3925  0.0691
47993SOL    HW153909   2.999   6.072   2.243 -2.3387 -2.8249 -4.3004
47993SOL    HW253910   3.062   6.140   2.123 -1.1899  1.6249 -1.4222
47994SOL     OW53911   2.643   3.821   8.759 -0.4481  0.2860 -0.0137
47994SOL    HW153912   2.602   3.827   8.673  0.2871  0.3490 -0.3680
47994SOL    HW253913   2.599   3.888   8.811 -1.1957 -0.0438 -0.2096
47995SOL     OW53914   6.592   9.665   2.280 -0.3474  0.2324 -0.3456
47995SOL    HW153915   6.584   9.635   2.370 -1.6583  0.4904 -0.3604
47995SOL    HW253916   6.579   9.759   2.284 -0.2882  0.2653 -0.7914
47996SOL     OW53917  11.497   1.199   9.317  0.0730  0.3677 -0.1884
47996SOL    HW153918  11.587   1.173   9.339 -0.6243 -0.4783  1.8293
47996SOL    HW253919  11.495   1.293   9.337  0.2175  0.1716  0.7579
47997SOL     OW53920   5.133   6.729   0.064  0.2437  0.2277 -0.0269
47997SOL    HW153921   5.039   6.742   0.075 -0.0570 -0.8233 -1.1519
47997SOL    HW253922   5.169   6.739   0.153 -0.9318  0.4608  0.4440
47998SOL     OW53923   6.126  12.305   3.689  0.0682  0.5445  0.8015
47998SOL    HW153924   6.102  12.369   3.757  1.0185  1.4716  0.2908
47998SOL    HW253925   6.115  12.353   3.607 -2.6433 -1.0324  0.1180
47999SOL     OW53926  10.318  10.433  12.744  0.1299  1.3059  0.3454
47999SOL    HW153927  10.223  10.425  12.748  0.1381 -1.2651 -1.8561
47999SOL    HW253928  10.335  10.520  12.708 -1.4173  1.4494 -0.0695
48000SOL     OW53929   5.014   0.024  10.701  0.3463  0.3734  0.2266
48000SOL    HW153930   4.920   0.036  10.691  0.2437 -0.0037  0.7374
48000SOL    HW253931   5.038  -0.039  10.633  0.4120  1.2328 -0.5794
48001SOL     OW53932  12.963   3.438   3.125 -0.1120  0.1958 -0.0831
48001SOL    HW153933  12.982   3.531   3.137 -1.8998  0.4743  0.8186
48001SOL    HW253934  12.894   3.435   3.060 -0.8572 -0.4104  0.7141
48002SOL     OW53935   4.219   7.319   3.536  0.1186 -0.0367 -0.0497
48002SOL    HW153936   4.220   7.405   3.495  0.0376  0.6758  1.3693
48002SOL    HW253937   4.215   7.257   3.463 -1.1423  1.1839 -1.0652
48003SOL     OW53938   4.166   9.699   3.785  0.0049  0.4645  0.5547
48003SOL    HW153939   4.203   9.611   3.787 -1.2374 -0.1820 -1.6968
48003SOL    HW253940   4.240   9.756   3.763  0.1072 -0.5834 -2.1293
48004SOL     OW53941   6.597   1.179   9.809  0.1536  0.2254  0.0892
48004SOL    HW153942   6.681   1.218   9.832  0.6200  0.5841 -1.9717
48004SOL    HW253943   6.570   1.226   9.730 -2.5737  0.9113  1.3192
48005SOL     OW53944   9.762   2.099  12.613  0.2316 -0.0192  0.7461
48005SOL    HW153945   9.687   2.107  12.553  0.1973  0.8582  0.9025
48005SOL    HW253946   9.824   2.043  12.565  0.6075  1.4143 -0.5269
48006SOL     OW53947   6.292   6.733   1.350  0.0995  0.0272  0.3997
48006SOL    HW153948   6.361   6.718   1.286 -0.5359  0.1003 -0.3132
48006SOL    HW253949   6.312   6.818   1.387  1.4053 -0.7289  1.5112
48007SOL     OW53950   2.707   8.688   4.945 -0.2755 -0.3848 -0.0422
48007SOL    HW153951   2.746   8.641   4.871  1.6312  0.0238  0.6709
48007SOL    HW253952   2.775   8.689   5.012 -1.8961 -0.5742  1.6742
48008SOL     OW53953   6.019   0.455  13.082  0.1062 -0.9119 -0.2787
48008SOL    HW153954   6.114   0.451  13.093  0.0028 -1.5801  0.4226
48008SOL    HW253955   5.987   0.376  13.125 -0.7311 -0.9402 -0.9404
48009SOL     OW53956   7.569   3.860   8.540 -0.0371 -0.4724  0.5695
48009SOL    HW153957   7.628   3.809   8.484 -1.1309  0.6815 -1.7695
48009SOL    HW253958   7.569   3.813   8.623  3.8694 -0.7445  0.6211
48010SOL     OW53959   3.459   4.117   3.259  0.3020  0.0571 -0.5329
48010SOL    HW153960   3.515   4.099   3.334 -0.6365 -0.3705  0.0853
48010SOL    HW253961   3.373   4.133   3.297 -0.3261 -0.7729 -1.5500
48011SOL     OW53962   5.101  11.475  10.510  0.2839 -0.4283  0.5558
48011SOL    HW153963   5.110  11.394  10.458  0.5123  0.0278 -0.1302
48011SOL    HW253964   5.039  11.452  10.579 -0.7716 -0.7933 -0.4749
48012SOL     OW53965   2.662   2.231   4.974  0.7556 -0.4222 -0.0730
48012SOL    HW153966   2.580   2.225   5.022  0.3361  0.2190 -0.6896
48012SOL    HW253967   2.702   2.144   4.984  0.6528 -0.3367  1.3465
48013SOL     OW53968  12.471   4.141   6.103 -0.2195 -0.4058 -0.3410
48013SOL    HW153969  12.428   4.067   6.062  1.9685 -1.7853 -0.3234
48013SOL    HW253970  12.559   4.109   6.123  0.0653  1.4572  1.8148
48014SOL     OW53971   4.414   2.793   0.745  0.1249 -0.2812 -0.4088
48014SOL    HW153972   4.397   2.745   0.826  0.1022  1.5004  0.6987
48014SOL    HW253973   4.409   2.727   0.676  0.3871 -1.8951  1.0588
48015SOL     OW53974   1.586   0.510   7.518  1.2308 -0.4028  0.2268
48015SOL    HW153975   1.493   0.491   7.521  1.6127 -2.6108 -0.2009
48015SOL    HW253976   1.604   0.555   7.601 -0.4263  1.4948 -0.3475
48016SOL     OW53977  11.822   3.099   8.342  0.5516  0.0060 -0.4321
48016SOL    HW153978  11.870   3.147   8.410 -0.4207  2.3748 -1.2979
48016SOL    HW253979  11.884   3.093   8.269  0.0012  2.0964 -1.1517
48017SOL     OW53980   5.003  11.285   8.314 -0.2442 -0.0656  0.0963
48017SOL    HW153981   4.981  11.361   8.369  0.9679 -0.7398  1.5825
48017SOL    HW253982   5.045  11.323   8.237  0.7639  0.7861  1.0284
48018SOL     OW53983  10.166   8.619   4.097  0.3604 -0.2232  0.1785
48018SOL    HW153984  10.189   8.711   4.088  1.9571 -0.8120 -2.6244
48018SOL    HW253985  10.120   8.597   4.016  1.1706 -2.1849  0.1897
48019SOL     OW53986   0.898   9.364   6.399  0.0407  0.6530  0.7729
48019SOL    HW153987   0.891   9.311   6.320 -0.8846  0.6876  0.8178
48019SOL    HW253988   0.823   9.424   6.394  0.9426  1.8247  0.8205
48020SOL     OW53989   4.093   8.059   4.399 -0.4758 -0.0048  0.4247
48020SOL    HW153990   4.175   8.021   4.367  0.3847  1.4428  0.8240
48020SOL    HW253991   4.024   8.010   4.354  0.6287 -0.3595 -0.9461
48021SOL     OW53992   1.435  12.580   5.671  0.6793  0.4611  0.6586
48021SOL    HW153993   1.412  12.515   5.737  0.5020  0.0133  0.1525
48021SOL    HW253994   1.356  12.633   5.660 -0.4727 -1.5822 -1.6820
48022SOL     OW53995   4.433   3.372   1.426 -0.0649  0.8823  0.1888
48022SOL    HW153996   4.469   3.285   1.407 -0.5792  0.8273 -0.5979
48022SOL    HW253997   4.392   3.363   1.512 -0.6600  0.1608 -0.1592
48023SOL     OW53998   4.928   7.571   3.213  0.1456 -0.6154  0.2390
48023SOL    HW153999   4.853   7.513   3.207  0.6101 -1.3784  1.4370
48023SOL    HW254000   5.004   7.516   3.195  0.7139 -0.7885  2.7002
48024SOL     OW54001   0.170   4.818   8.996  0.3642 -0.3914  0.1255
48024SOL    HW154002   0.236   4.789   9.060 -0.0851  1.1239  1.3568
48024SOL    HW254003   0.106   4.747   8.994  1.6896 -1.6276 -0.6466
48025SOL     OW54004   3.349   9.900   9.259  0.0861 -0.2759  0.0167
48025SOL    HW154005   3.293   9.944   9.323  0.5523 -0.3055  0.4631
48025SOL    HW254006   3.434   9.945   9.268  0.7108 -1.5506  0.8249
48026SOL     OW54007   5.635  12.699   6.062  0.1708  0.0447  0.0870
48026SOL    HW154008   5.629  12.758   5.986 -0.0822 -0.9936 -0.7251
48026SOL    HW254009   5.573  12.736   6.125  1.6255  1.8985  0.5109
48027SOL     OW54010   4.118   7.845   4.729  0.6313  0.5933 -0.7990
48027SOL    HW154011   4.092   7.767   4.680 -1.6018  1.0830 -0.4824
48027SOL    HW254012   4.205   7.867   4.694  0.1622 -0.4686 -2.7929
48028SOL     OW54013   4.994   1.997   7.257 -0.4959 -0.1517 -0.0446
48028SOL    HW154014   5.075   2.047   7.242  0.1846 -1.3454 -0.4371
48028SOL    HW254015   4.975   1.956   7.173 -2.3981  1.3168 -0.4108
48029SOL     OW54016   2.075   2.352   8.526  0.2888 -0.0977 -0.7018
48029SOL    HW154017   2.092   2.446   8.525 -3.2180  0.6752  0.1956
48029SOL    HW254018   2.071   2.330   8.619  1.4262 -1.2665 -0.8988
48030SOL     OW54019   9.389   1.155  12.450  0.4627  0.2750  0.8577
48030SOL    HW154020   9.459   1.199  12.401  0.3870 -1.1600 -0.6121
48030SOL    HW254021   9.321   1.138  12.385 -0.4417 -0.0632  1.8644
48031SOL     OW54022   8.666   2.897  10.509  0.3577  0.8704  0.0461
48031SOL    HW154023   8.643   2.975  10.560 -0.0492  0.9428 -0.2379
48031SOL    HW254024   8.665   2.826  10.572  1.0181  1.1312  0.3687
48032SOL     OW54025  10.912   8.513   2.511  0.2844  0.1497 -0.6157
48032SOL    HW154026  10.931   8.425   2.480  1.3271  0.3736 -0.6536
48032SOL    HW254027  10.998   8.552   2.527 -0.1247  1.4855 -1.4931
48033SOL     OW54028   4.211   5.615   2.834  0.3532 -0.1038 -0.2657
48033SOL    HW154029   4.123   5.644   2.811  0.0854  0.4765  1.3300
48033SOL    HW254030   4.207   5.520   2.833 -0.8072 -0.1198  1.4071
48034SOL     OW54031   8.093   3.032  12.993  0.3957  0.0384 -0.1450
48034SOL    HW154032   8.049   3.011  13.076 -0.2110 -1.0673 -0.7251
48034SOL    HW254033   8.040   3.100  12.953 -0.3357 -0.6969 -0.4486
48035SOL     OW54034   1.680   5.628   7.786 -0.3473  0.4241 -0.0482
48035SOL    HW154035   1.735   5.694   7.829 -2.2602  1.9054  0.2350
48035SOL    HW254036   1.592   5.645   7.819 -1.3065 -0.6804 -1.9090
48036SOL     OW54037   5.542   5.356  12.547 -0.0226  0.5771  0.0049
48036SOL    HW154038   5.496   5.273  12.544 -1.1877  1.1923  0.2740
48036SOL    HW254039   5.590   5.360  12.464 -0.4046 -0.1075 -0.2507
48037SOL     OW54040   2.620   3.728   5.689 -0.6407  0.3538  0.1454
48037SOL    HW154041   2.677   3.677   5.747 -0.3212  0.2211 -0.2772
48037SOL    HW254042   2.594   3.665   5.621  1.1810  1.1673 -1.3929
48038SOL     OW54043  11.177   7.440  11.965 -0.1233 -0.4935 -0.5931
48038SOL    HW154044  11.197   7.525  12.005 -3.3247  0.4786 -0.7485
48038SOL    HW254045  11.164   7.381  12.039 -2.3485  0.3684 -0.2193
48039SOL     OW54046   4.639  11.733   1.842 -0.0786  0.4133 -0.1718
48039SOL    HW154047   4.734  11.742   1.836 -0.0949 -0.0616 -4.2851
48039SOL    HW254048   4.606  11.823   1.837  0.1705  0.4658 -1.0257
48040SOL     OW54049  12.175   6.096  13.121 -0.0434 -0.1599  0.0819
48040SOL    HW154050  12.266   6.068  13.120  0.3370  0.9487 -2.0913
48040SOL    HW254051  12.169   6.158  13.193  0.1025 -2.5093  2.2485
48041SOL     OW54052  12.188   1.892   5.578 -0.3116  0.0907  0.3316
48041SOL    HW154053  12.150   1.961   5.632 -0.2672  0.0911  0.3629
48041SOL    HW254054  12.175   1.812   5.629  2.1309  0.4087  1.6449
48042SOL     OW54055  13.094   5.331   3.491 -0.8230  0.3238 -0.3413
48042SOL    HW154056  13.153   5.366   3.425 -1.5495  1.6435 -0.3359
48042SOL    HW254057  13.151   5.297   3.559 -0.0715  0.7224 -0.7569
48043SOL     OW54058   3.111   6.941   8.771  0.1030  0.3233  0.2824
48043SOL    HW154059   3.060   6.920   8.849  1.8350 -0.7790  1.2105
48043SOL    HW254060   3.198   6.962   8.805  0.4064  1.7448 -1.2474
48044SOL     OW54061   5.509   7.270  11.050 -0.0638  0.3516 -0.4590
48044SOL    HW154062   5.510   7.254  11.145  0.1293 -1.3818 -0.7216
48044SOL    HW254063   5.473   7.189  11.013 -0.0485  0.9733 -1.8775
48045SOL     OW54064   7.951   9.349  10.748  0.1281  0.0657  0.0413
48045SOL    HW154065   8.002   9.429  10.762 -3.4880  2.6992 -0.2433
48045SOL    HW254066   7.904   9.336  10.830  1.6174 -2.7079  0.5664
48046SOL     OW54067   1.839   9.548   5.131  0.2695 -0.6060  0.1138
48046SOL    HW154068   1.899   9.583   5.065 -0.1502  0.6003  0.3324
48046SOL    HW254069   1.890   9.483   5.179  0.7760 -1.0337 -0.9767
48047SOL     OW54070   3.126   8.231   8.563 -0.8060 -0.0978 -0.2914
48047SOL    HW154071   3.217   8.227   8.592 -0.8104  2.5711  0.2512
48047SOL    HW254072   3.094   8.141   8.575  1.5169 -0.9397  0.1791
48048SOL     OW54073   1.682   7.634   9.037 -0.4204 -0.1003 -0.0365
48048SOL    HW154074   1.620   7.707   9.033 -0.6542 -0.2093  1.3397
48048SOL    HW254075   1.765   7.670   9.005 -0.6272  0.6663  0.2833
48049SOL     OW54076   3.922   7.435   4.223 -0.6431 -0.1078  0.5804
48049SOL    HW154077   3.960   7.514   4.261  0.5084 -1.5411  2.6003
48049SOL    HW254078   3.961   7.429   4.135  0.2069  0.9186  0.8694
48050SOL     OW54079   4.978   0.402   8.580  0.1826 -0.4882  0.3923
48050SOL    HW154080   4.895   0.389   8.626 -0.5258  0.1533 -0.6658
48050SOL    HW254081   4.955   0.403   8.487  0.8692  2.7509  0.1448
48051SOL     OW54082   1.046   5.511   6.852  0.4601  0.2596 -0.4722
48051SOL    HW154083   1.129   5.468   6.874 -0.5875 -1.4825  0.3580
48051SOL    HW254084   1.053   5.531   6.758  1.3365 -1.0679 -0.7250
48052SOL     OW54085   2.866  10.272   5.688 -0.4101  0.3020 -0.6242
48052SOL    HW154086   2.882  10.253   5.780  2.0791 -0.9672 -1.2263
48052SOL    HW254087   2.771  10.283   5.681 -1.1187 -3.1874  1.4634
48053SOL     OW54088   0.013   6.413   3.748  0.3646 -0.4114 -0.4606
48053SOL    HW154089   0.014   6.507   3.766  0.4880 -0.7981  1.9058
48053SOL    HW254090  -0.072   6.398   3.707 -0.6952  0.4345  1.2891
48054SOL     OW54091   9.407   9.152  11.572 -0.2884  0.1630  0.0915
48054SOL    HW154092   9.444   9.070  11.539 -0.9342  0.7030 -2.1865
48054SOL    HW254093   9.318   9.154  11.535  0.2073  2.5422 -1.1758
48055SOL     OW54094   9.954  11.293  11.551 -0.6660 -0.0650  0.4541
48055SOL    HW154095   9.956  11.213  11.603 -0.1869 -1.0818 -1.0367
48055SOL    HW254096  10.043  11.329  11.558 -0.4331 -0.5136 -0.0815
48056SOL     OW54097  11.149   7.463   9.428 -0.4610  0.8969 -0.2544
48056SOL    HW154098  11.155   7.369   9.449 -2.1097  1.3524  2.8174
48056SOL    HW254099  11.240   7.491   9.420  0.0733 -0.8355 -0.7767
48057SOL     OW54100   4.029   1.770   9.538 -0.0805  0.1089  0.3378
48057SOL    HW154101   4.116   1.794   9.504 -0.1737  0.7274  0.5321
48057SOL    HW254102   4.039   1.678   9.564  0.5283  0.1844  0.3938
48058SOL     OW54103   0.163   2.583   9.647 -0.4453 -0.6581  0.1933
48058SOL    HW154104   0.070   2.602   9.651 -0.2992  0.6853 -1.7141
48058SOL    HW254105   0.170   2.514   9.581 -0.2099 -2.0168  1.5762
48059SOL     OW54106  10.803   7.548   1.076  0.5175  0.1316  0.1497
48059SOL    HW154107  10.719   7.579   1.111 -1.8846 -3.8879 -1.2876
48059SOL    HW254108  10.793   7.551   0.981  2.4966  0.5780 -0.0914
48060SOL     OW54109   2.888  10.280   2.282 -0.0708 -0.0324 -0.0669
48060SOL    HW154110   2.825  10.321   2.222  0.2630  3.3111  1.5815
48060SOL    HW254111   2.835  10.254   2.357  0.1316  0.1558  0.1420
48061SOL     OW54112   5.647   2.873   6.723 -0.0507  0.2229 -0.3327
48061SOL    HW154113   5.695   2.869   6.640  0.0736 -0.1240 -0.2448
48061SOL    HW254114   5.705   2.832   6.787  0.2141  1.2392  0.1050
48062SOL     OW54115  11.296   6.118   4.728  0.5287  0.6148  0.2262
48062SOL    HW154116  11.217   6.151   4.686  0.7416  0.5077 -0.2704
48062SOL    HW254117  11.358   6.107   4.656  0.4466 -0.9270  0.3617
48063SOL     OW54118  11.596   9.770   4.449 -0.5112  0.1599  0.1386
48063SOL    HW154119  11.637   9.708   4.509  0.4446 -1.4236 -1.9912
48063SOL    HW254120  11.511   9.731   4.429  0.5568 -1.2375 -2.1133
48064SOL     OW54121  10.874  12.961  10.025  0.5401 -0.1983  0.0431
48064SOL    HW154122  10.872  12.971  10.120  0.8827 -0.0584  0.0351
48064SOL    HW254123  10.967  12.946  10.004  1.0695  3.2996 -0.6342
48065SOL     OW54124  11.301   6.698   0.704 -0.7491  0.2768 -0.0739
48065SOL    HW154125  11.370   6.664   0.647 -0.7781 -0.2705  0.2107
48065SOL    HW254126  11.247   6.752   0.647 -0.2151  0.5280 -0.3511
48066SOL     OW54127   2.327  13.101   7.721  0.6978 -0.2741 -0.1137
48066SOL    HW154128   2.422  13.105   7.730  0.7508  0.1204 -0.8099
48066SOL    HW254129   2.312  13.050   7.641  0.3213 -0.5089  0.1037
48067SOL     OW54130  10.996   4.998   3.531  0.4311 -0.6560  0.1228
48067SOL    HW154131  11.022   4.944   3.456 -0.0895 -1.6645  0.6625
48067SOL    HW254132  10.930   5.057   3.495  0.8782 -0.4746 -0.4283
48068SOL     OW54133   8.936   9.118  12.601  0.2245 -0.5912  0.1667
48068SOL    HW154134   9.028   9.093  12.600  0.4459  0.1399  0.9826
48068SOL    HW254135   8.937   9.213  12.613 -0.6155 -0.3111 -1.6596
48069SOL     OW54136   0.807   4.502   6.393  0.6072  0.1424  0.3746
48069SOL    HW154137   0.800   4.409   6.371 -1.2539  0.0480  1.1367
48069SOL    HW254138   0.848   4.503   6.479  0.7024  0.0204  0.3303
48070SOL     OW54139  11.025  11.669   3.329 -0.1725  0.0178 -0.0877
48070SOL    HW154140  10.960  11.615   3.284 -2.1881  3.2108 -1.3817
48070SOL    HW254141  10.998  11.669   3.421 -0.9883 -0.0653 -0.3208
48071SOL     OW54142   8.568   5.549   5.291 -0.4148 -1.0324 -0.0042
48071SOL    HW154143   8.536   5.534   5.380 -0.5258 -0.7297  0.0084
48071SOL    HW254144   8.658   5.518   5.292 -0.2580 -0.5751  0.3481
48072SOL     OW54145  11.198   0.746   2.341  0.5256  0.6888 -0.0897
48072SOL    HW154146  11.148   0.821   2.308 -0.2718  1.1129  1.9147
48072SOL    HW254147  11.281   0.784   2.371 -0.4141  1.1231  2.2248
48073SOL     OW54148  12.728   5.479   0.648  0.9215  0.2350 -0.6692
48073SOL    HW154149  12.767   5.445   0.568  0.3377 -0.3955 -0.6963
48073SOL    HW254150  12.634   5.463   0.638  0.8972 -0.3958  0.3794
48074SOL     OW54151   6.168   6.350   6.862 -0.4763 -0.1656 -0.3707
48074SOL    HW154152   6.188   6.406   6.937  2.4910 -1.1601 -0.2679
48074SOL    HW254153   6.234   6.373   6.797 -0.5914 -1.9386 -1.1757
48075SOL     OW54154  13.122  11.036   1.735  0.0468  0.4520 -0.0494
48075SOL    HW154155  13.038  11.005   1.769  1.1845 -2.0539  0.6968
48075SOL    HW254156  13.165  10.958   1.702  1.8592  1.7700 -1.0012
48076SOL     OW54157   1.158   8.302   8.368 -0.1512 -0.1844 -0.0711
48076SOL    HW154158   1.190   8.385   8.334 -1.1340 -0.2602 -1.2342
48076SOL    HW254159   1.177   8.239   8.298 -3.5309 -0.0918 -1.2153
48077SOL     OW54160  11.132   4.867   0.007 -0.3429  0.6570  0.2718
48077SOL    HW154161  11.115   4.888  -0.085 -0.5860 -2.1427 -0.3966
48077SOL    HW254162  11.191   4.792   0.004 -1.8640 -0.7362  2.3431
48078SOL     OW54163   8.656   7.134  10.941  0.2424 -0.2628  0.0862
48078SOL    HW154164   8.721   7.065  10.956 -1.0956 -1.4063  0.8960
48078SOL    HW254165   8.708   7.211  10.918  1.7430 -1.9580 -2.7450
48079SOL     OW54166   2.561   7.094   5.812 -0.2637  0.6475  0.2658
48079SOL    HW154167   2.578   7.003   5.835  0.2923  0.7608  0.3095
48079SOL    HW254168   2.525   7.090   5.724  0.1822  0.4179  0.0932
48080SOL     OW54169   2.923   8.921  12.677 -0.5439  0.4958  0.3813
48080SOL    HW154170   2.908   9.003  12.724 -0.6508  0.5335  0.2800
48080SOL    HW254171   2.935   8.856  12.747 -0.1332  0.6550  0.4650
48081SOL     OW54172   0.608   9.165   1.253 -0.3529 -0.4009  0.3560
48081SOL    HW154173   0.697   9.194   1.233 -0.9415  1.4836  0.2923
48081SOL    HW254174   0.552   9.217   1.196 -1.5448 -1.0221  0.9197
48082SOL     OW54175   1.045   3.397   6.230 -0.3569 -0.0954 -0.1571
48082SOL    HW154176   1.039   3.302   6.228 -0.3817 -0.1020  0.1954
48082SOL    HW254177   0.994   3.426   6.154  1.0826 -0.4205 -1.2957
48083SOL     OW54178   6.847  10.453   1.347 -0.5264  0.3247  0.2907
48083SOL    HW154179   6.761  10.492   1.331 -1.3315 -1.5929 -0.2938
48083SOL    HW254180   6.855  10.451   1.442 -0.6785  1.4145  0.3378
48084SOL     OW54181   0.867   2.943   2.404 -0.2114 -0.4613 -0.1582
48084SOL    HW154182   0.803   2.898   2.459 -1.3695 -0.7042 -1.6371
48084SOL    HW254183   0.935   2.877   2.388 -0.6841 -0.9096 -0.3422
48085SOL     OW54184   1.023   2.919   0.277  0.5020  0.1392  0.1062
48085SOL    HW154185   1.078   2.989   0.313  0.2344  0.2969  0.2133
48085SOL    HW254186   0.948   2.915   0.336  0.9668 -0.8897  0.6534
48086SOL     OW54187   1.238  12.627   3.559 -0.5117 -0.6318 -0.3192
48086SOL    HW154188   1.195  12.570   3.496  1.3959 -0.5238 -1.8289
48086SOL    HW254189   1.211  12.715   3.534 -0.6894 -0.6632 -0.2352
48087SOL     OW54190  11.991   1.170  11.539  0.0446  0.2313  0.2489
48087SOL    HW154191  11.942   1.092  11.515 -0.1786  0.7173 -0.9170
48087SOL    HW254192  12.082   1.139  11.548 -0.1744 -0.3145  0.6301
48088SOL     OW54193   7.689   2.008   0.396 -0.0763 -0.2113  0.1096
48088SOL    HW154194   7.719   2.097   0.377 -1.1176  0.3356  0.9414
48088SOL    HW254195   7.763   1.967   0.441  0.0326  0.5926  0.6837
48089SOL     OW54196  12.763   7.222  11.129 -0.1584  0.2729  0.2521
48089SOL    HW154197  12.759   7.265  11.044 -1.2166 -1.7817 -0.8020
48089SOL    HW254198  12.754   7.293  11.193  1.0718  1.9092 -1.2929
48090SOL     OW54199   1.838   4.353   6.410  0.3186 -0.0487 -0.4233
48090SOL    HW154200   1.813   4.343   6.502  0.2180  0.2023 -0.4205
48090SOL    HW254201   1.906   4.420   6.411  0.8721 -0.6040 -0.4522
48091SOL     OW54202   4.736   5.716  12.809  0.5206 -0.3213  0.0142
48091SOL    HW154203   4.705   5.700  12.720  1.5877  2.1425 -0.8686
48091SOL    HW254204   4.823   5.754  12.798  0.5705  0.2926  2.1081
48092SOL     OW54205   3.719  13.071  10.608  0.5302  0.8993  0.1305
48092SOL    HW154206   3.654  13.085  10.677  0.1924  1.6027 -0.3190
48092SOL    HW254207   3.731  12.976  10.604 -0.1809  0.7911  0.4717
48093SOL     OW54208   0.738   5.859   7.258 -0.3057 -0.0970  0.2205
48093SOL    HW154209   0.781   5.784   7.299  0.5689  0.2048 -0.1050
48093SOL    HW254210   0.787   5.873   7.177 -0.1357  1.1228  0.5056
48094SOL     OW54211  11.472   6.820   9.732 -0.1751  0.0094 -0.4678
48094SOL    HW154212  11.549   6.805   9.787  0.6273 -0.1554 -1.6202
48094SOL    HW254213  11.400   6.784   9.783  0.4744  0.2930  0.6911
48095SOL     OW54214   5.771   6.272  10.074  0.1532  0.2045 -0.2565
48095SOL    HW154215   5.815   6.335  10.016 -0.2225 -0.0745 -0.8471
48095SOL    HW254216   5.694   6.244  10.026 -1.4584  1.6810  1.2908
48096SOL     OW54217   4.234   6.473   2.702  0.8457 -0.2524 -0.3369
48096SOL    HW154218   4.265   6.464   2.612  1.5941  0.4622 -0.1655
48096SOL    HW254219   4.274   6.555   2.733  1.1462 -0.8246  0.8615
48097SOL     OW54220   2.323   2.365   3.464  0.5381 -0.0682 -0.4028
48097SOL    HW154221   2.249   2.307   3.480 -0.4039  0.8399 -1.3132
48097SOL    HW254222   2.380   2.317   3.405  0.9160 -0.9435  0.6388
48098SOL     OW54223   1.566   6.494   7.571 -0.2750 -0.0109 -0.1993
48098SOL    HW154224   1.581   6.474   7.479 -0.9064 -2.1576  0.1160
48098SOL    HW254225   1.472   6.510   7.577 -0.0715  1.1938 -0.0968
48099SOL     OW54226   0.136   3.765   6.803 -0.0888 -0.0541  0.3999
48099SOL    HW154227   0.046   3.799   6.808 -0.3021 -0.3132 -1.1908
48099SOL    HW254228   0.184   3.815   6.868 -1.3279  0.2654  1.1161
48100SOL     OW54229   3.337   2.195   4.320  0.5810 -0.0522  0.6054
48100SOL    HW154230   3.382   2.279   4.309  0.0263  0.2712  0.7241
48100SOL    HW254231   3.244   2.218   4.317  0.3912 -0.3838  2.6131
48101SOL     OW54232   7.233   7.427   9.090  0.1729 -0.2093  0.5305
48101SOL    HW154233   7.229   7.351   9.148  1.8704 -1.4619 -0.8896
48101SOL    HW254234   7.262   7.392   9.006  0.5626  1.9553 -0.3157
48102SOL     OW54235   9.730   5.781   3.404  0.3120 -0.5457  0.4376
48102SOL    HW154236   9.809   5.825   3.436  1.7864 -1.5205 -1.5778
48102SOL    HW254237   9.742   5.689   3.430  0.8979 -1.0945 -1.5787
48103SOL     OW54238   9.560  11.021  11.934  0.2578 -0.0556  0.3124
48103SOL    HW154239   9.522  10.971  12.006 -0.2892  0.0358  0.0877
48103SOL    HW254240   9.611  10.956  11.885  2.0905  0.2090  1.7559
48104SOL     OW54241   8.161   7.689   8.211  0.2732  0.2271  0.3927
48104SOL    HW154242   8.108   7.691   8.291  0.4129  0.4337  0.4795
48104SOL    HW254243   8.100   7.659   8.143 -0.4946  2.3267  0.0969
48105SOL     OW54244   2.052  11.947   0.218 -0.9386  0.2366 -0.3050
48105SOL    HW154245   2.065  11.859   0.184  1.7810 -0.0822  1.2085
48105SOL    HW254246   2.071  12.004   0.144  1.4561 -0.4816 -0.3413
48106SOL     OW54247  11.724  11.489   5.526  0.1493  0.1787 -0.6253
48106SOL    HW154248  11.692  11.565   5.478  0.5381  0.8565  0.1518
48106SOL    HW254249  11.653  11.469   5.588  0.6000  0.7908  0.1158
48107SOL     OW54250   2.637   8.981   3.524  0.0059 -0.1371  0.2089
48107SOL    HW154251   2.691   8.998   3.447 -0.2591 -0.8182 -0.1326
48107SOL    HW254252   2.549   8.967   3.489 -0.4840  1.3272  0.7864
48108SOL     OW54253   1.597  10.140   6.656 -0.1054 -0.1232  0.2799
48108SOL    HW154254   1.667  10.114   6.597  0.1172  0.6747  0.1772
48108SOL    HW254255   1.533  10.069   6.651  0.6147 -0.7759  0.2518
48109SOL     OW54256   6.375   8.999   6.344  0.6683  0.3626 -0.1092
48109SOL    HW154257   6.437   9.072   6.348  0.7568  0.2598  0.7022
48109SOL    HW254258   6.299   9.029   6.395  0.9162 -0.2957  0.6699
48110SOL     OW54259   6.150  11.719  13.048  0.2525  0.2463 -0.6322
48110SOL    HW154260   6.094  11.682  12.980  1.7466  0.7022 -2.1863
48110SOL    HW254261   6.197  11.644  13.085  0.5170  0.1405 -1.1664
48111SOL     OW54262   3.331   7.121   1.106 -0.1572 -0.3908  0.4353
48111SOL    HW154263   3.257   7.147   1.160 -0.4316 -1.3896  0.5687
48111SOL    HW254264   3.332   7.184   1.034  1.2053  2.0051  2.3791
48112SOL     OW54265   0.219   0.484   8.612  0.1262  0.4699  0.3821
48112SOL    HW154266   0.282   0.493   8.683  0.0192  0.1928  0.5129
48112SOL    HW254267   0.271   0.457   8.536 -0.2723 -4.0187  1.4438
48113SOL     OW54268   1.731   1.090   3.443  0.3326  0.1739 -0.1941
48113SOL    HW154269   1.775   1.061   3.364  0.9126 -0.0734  0.2121
48113SOL    HW254270   1.785   1.056   3.515 -0.0455  0.6031  0.3047
48114SOL     OW54271   5.306   6.186   7.997  0.4319 -0.3316  0.0794
48114SOL    HW154272   5.371   6.205   8.065  1.5902 -2.7576 -0.2307
48114SOL    HW254273   5.357   6.149   7.925 -1.0903 -0.4384 -0.9814
48115SOL     OW54274  10.904   9.289  11.031  0.2284  0.1602  0.6596
48115SOL    HW154275  10.929   9.208  11.075  0.1693  0.2937  0.9416
48115SOL    HW254276  10.899   9.266  10.938 -0.3975 -0.3162  0.8056
48116SOL     OW54277  13.030  11.600  10.283 -0.1643 -0.4355  0.2871
48116SOL    HW154278  12.992  11.682  10.313 -0.3712 -1.2613  2.4844
48116SOL    HW254279  12.977  11.575  10.208  0.6736  1.9945 -1.2169
48117SOL     OW54280   6.698  10.567   7.114  0.2105 -0.4292  0.5192
48117SOL    HW154281   6.770  10.507   7.095 -1.2513 -2.5184  1.1943
48117SOL    HW254282   6.637  10.516   7.168 -1.4464  1.4684  0.5929
48118SOL     OW54283   3.462   4.006   5.982 -0.3056  0.6072  0.2020
48118SOL    HW154284   3.463   3.962   5.896 -1.6368 -0.7200  0.8274
48118SOL    HW254285   3.425   4.092   5.964  0.6060  0.8226 -0.7528
48119SOL     OW54286  12.283   1.141   0.133 -0.3869 -0.5406 -0.2484
48119SOL    HW154287  12.229   1.152   0.054  0.4937  0.8178 -0.6975
48119SOL    HW254288  12.355   1.085   0.104 -0.3748 -0.5182 -0.2618
48120SOL     OW54289   9.237   0.761  12.031  0.3410  0.2616 -0.5788
48120SOL    HW154290   9.192   0.687  12.070  0.0522  0.7359  0.0101
48120SOL    HW254291   9.296   0.723  11.966  0.8212 -0.5374  0.3135
48121SOL     OW54292   5.570   3.500  11.446 -0.1065 -0.3669 -0.1509
48121SOL    HW154293   5.518   3.556  11.504  0.8526 -1.4742  1.8979
48121SOL    HW254294   5.532   3.412  11.457  1.5085 -1.0037  0.5932
48122SOL     OW54295   2.196   9.698  10.277  0.3654 -0.1369  0.0448
48122SOL    HW154296   2.103   9.691  10.258 -0.6172  3.4493  2.4069
48122SOL    HW254297   2.207   9.654  10.361  0.9730 -1.1340 -0.5481
48123SOL     OW54298   0.545   8.682   1.461 -0.4608  0.7855 -0.4634
48123SOL    HW154299   0.613   8.690   1.394  0.0197 -1.5272 -0.3628
48123SOL    HW254300   0.573   8.741   1.530 -0.6071  2.7167 -1.9670
48124SOL     OW54301   1.784  12.672   4.224 -0.5855 -0.1625 -0.2408
48124SOL    HW154302   1.848  12.610   4.189 -1.1411 -0.3078 -1.0156
48124SOL    HW254303   1.805  12.677   4.317 -0.9122 -1.9854 -0.0327
48125SOL     OW54304   6.510  10.524   9.715  0.7407  0.1599  0.1083
48125SOL    HW154305   6.546  10.606   9.682 -0.7944  0.8434  0.0402
48125SOL    HW254306   6.421  10.546   9.744 -0.1270 -1.6895 -0.9399
48126SOL     OW54307   1.033   9.726   0.096 -0.0545  0.3523 -0.8229
48126SOL    HW154308   1.077   9.655   0.049  0.2383  0.5118 -0.7933
48126SOL    HW254309   0.974   9.681   0.157  2.0787  0.0143  1.1657
48127SOL     OW54310  12.323   5.314  12.317 -0.5655  0.0461 -0.5290
48127SOL    HW154311  12.389   5.349  12.257 -0.1420 -0.6519 -0.4844
48127SOL    HW254312  12.345   5.353  12.402  0.4816 -1.0210 -0.2816
48128SOL     OW54313  10.698   4.886  12.880  0.2824 -0.4691 -0.2006
48128SOL    HW154314  10.666   4.935  12.956 -1.6333 -0.8207 -0.7394
48128SOL    HW254315  10.686   4.946  12.806 -1.0926 -1.3104 -0.7048
48129SOL     OW54316   1.143   9.822  10.315 -0.3044 -0.1859 -0.1750
48129SOL    HW154317   1.189   9.771  10.382 -1.7677 -0.8764  0.3448
48129SOL    HW254318   1.051   9.802  10.329 -0.7055  0.3438 -1.8484
48130SOL     OW54319   6.539   3.417  12.145  0.2671  0.5039  0.0761
48130SOL    HW154320   6.455   3.462  12.137  0.5859  0.9877 -0.7014
48130SOL    HW254321   6.522   3.344  12.205 -0.3964  1.3194  0.9054
48131SOL     OW54322  10.992   9.946   7.316 -0.3037 -0.5228 -0.4990
48131SOL    HW154323  10.919   9.986   7.364 -0.4958  0.5963 -1.6869
48131SOL    HW254324  10.951   9.913   7.235  0.1172 -1.8665 -0.1826
48132SOL     OW54325   5.946  12.679   7.976 -0.0281 -0.0626 -0.6070
48132SOL    HW154326   5.868  12.710   8.024 -0.6778 -0.8223 -1.1551
48132SOL    HW254327   5.975  12.602   8.024  1.7562  1.4526  0.9162
48133SOL     OW54328   1.718   6.505  13.213 -0.5353  0.5277 -0.4316
48133SOL    HW154329   1.705   6.599  13.230  1.3478  0.8147 -0.3047
48133SOL    HW254330   1.707   6.496  13.119 -0.1751  0.9890 -0.5211
48134SOL     OW54331   4.221   8.900   4.525 -0.4955 -0.4161  0.5330
48134SOL    HW154332   4.156   8.848   4.477 -2.2005  1.9951  0.0480
48134SOL    HW254333   4.226   8.982   4.476  1.7188  0.1072  1.5365
48135SOL     OW54334   3.145   6.282  11.925  0.2899 -0.1565  0.4834
48135SOL    HW154335   3.168   6.222  11.995 -3.0859 -0.5829  1.3973
48135SOL    HW254336   3.080   6.234  11.872 -0.4754  1.6944 -0.3595
48136SOL     OW54337  10.730   9.979   9.368 -0.1244 -0.2985 -0.2095
48136SOL    HW154338  10.757  10.034   9.442 -0.6234  0.3258 -0.4852
48136SOL    HW254339  10.811   9.936   9.340 -0.3053 -2.5609  2.3066
48137SOL     OW54340   8.682   8.316   1.197  0.3774 -0.1137  0.1237
48137SOL    HW154341   8.600   8.281   1.230  0.6303 -1.3517 -0.4817
48137SOL    HW254342   8.694   8.273   1.112  0.8429  1.2869 -0.5648
48138SOL     OW54343  10.351  12.391   8.217  0.2572  0.3058  0.0953
48138SOL    HW154344  10.279  12.354   8.167 -1.0733  1.9752  0.6810
48138SOL    HW254345  10.349  12.345   8.300  0.9905 -0.8397 -0.4938
48139SOL     OW54346  11.974   5.849   6.238  0.3120 -0.5100  0.3713
48139SOL    HW154347  11.936   5.776   6.190 -0.0838  0.6616 -1.1796
48139SOL    HW254348  11.907   5.875   6.300 -1.4384  1.3272 -2.1092
48140SOL     OW54349   5.707   1.592  13.188 -0.3079 -0.3371  0.0360
48140SOL    HW154350   5.669   1.506  13.167 -0.2708 -0.1628 -0.7867
48140SOL    HW254351   5.670   1.615  13.273 -0.6605 -0.9734  0.0596
48141SOL     OW54352  11.031  11.601   5.979  0.7958 -0.2443 -0.2054
48141SOL    HW154353  10.976  11.550   6.038  0.6145  0.6847  0.4444
48141SOL    HW254354  10.969  11.647   5.922  0.9050  0.2841  0.0928
48142SOL     OW54355  11.744   3.439   1.125 -0.0805  0.3509  0.5449
48142SOL    HW154356  11.710   3.454   1.037 -0.2417 -0.6130  0.4286
48142SOL    HW254357  11.713   3.352   1.148  2.1611 -0.5450  0.4843
48143SOL     OW54358   3.296   9.033   9.761  0.1510 -0.3619  0.1986
48143SOL    HW154359   3.222   9.056   9.817  0.4298  0.9325  0.0712
48143SOL    HW254360   3.338   9.116   9.741  0.2064 -0.7913 -1.7344
48144SOL     OW54361   4.396   7.477   7.875  0.2448  0.1673  0.2038
48144SOL    HW154362   4.413   7.479   7.781 -1.5684 -1.1474 -0.2268
48144SOL    HW254363   4.477   7.446   7.914  0.6935 -0.3135 -1.0585
48145SOL     OW54364  12.897   4.722   4.470 -0.4411  0.1453  0.0906
48145SOL    HW154365  12.896   4.653   4.536 -0.9624  0.4880  0.4521
48145SOL    HW254366  12.954   4.689   4.401 -1.0072 -0.8306  0.0702
48146SOL     OW54367  10.924   0.436  10.293  0.2791  0.1233  0.3920
48146SOL    HW154368  11.016   0.410  10.301 -0.1100 -0.5913  3.5572
48146SOL    HW254369  10.927   0.522  10.252  2.3881  0.2996  0.8208
48147SOL     OW54370   0.226   0.121   9.636  0.0063  0.2347 -0.1367
48147SOL    HW154371   0.211   0.048   9.576 -1.0627  0.2873  0.0500
48147SOL    HW254372   0.152   0.180   9.621  1.3275  1.7702 -0.9619
48148SOL     OW54373   7.186   4.787   8.843  0.0882  0.1253  0.1457
48148SOL    HW154374   7.133   4.848   8.792  1.0669 -0.4974 -1.7326
48148SOL    HW254375   7.215   4.722   8.779  0.3645 -1.4367  1.7718
48149SOL     OW54376   5.083   1.858   5.306  0.0389 -0.2614 -0.4117
48149SOL    HW154377   5.023   1.795   5.268 -2.4450  1.9333 -0.4692
48149SOL    HW254378   5.054   1.867   5.397 -0.1198  1.2290 -0.5818
48150SOL     OW54379   1.422   3.255   7.267 -0.2455 -0.2827  0.3628
48150SOL    HW154380   1.444   3.324   7.204 -1.4025 -0.6833 -0.5260
48150SOL    HW254381   1.397   3.302   7.346 -0.6190  0.3256 -0.1031
48151SOL     OW54382  10.045   9.517   9.403 -0.3585 -0.4255  0.2402
48151SOL    HW154383  10.082   9.450   9.346 -0.4866 -0.1651 -0.1513
48151SOL    HW254384  10.115   9.582   9.413 -0.9164  0.3902 -1.0244
48152SOL     OW54385  12.538   6.048   3.628 -0.4081 -0.5085  0.3618
48152SOL    HW154386  12.465   6.088   3.581  0.2752  1.1378  0.6549
48152SOL    HW254387  12.598   6.019   3.559 -0.1370  0.4970  0.1579
48153SOL     OW54388   4.660  10.897   7.049 -0.1679  0.1977  0.5042
48153SOL    HW154389   4.685  10.984   7.017  0.2302 -0.2384 -0.3889
48153SOL    HW254390   4.660  10.842   6.971  0.4157 -0.7917  1.1835
48154SOL     OW54391   2.209   2.536   7.147  0.1079 -0.1313  0.4740
48154SOL    HW154392   2.268   2.574   7.211  0.7792 -0.6694  0.1955
48154SOL    HW254393   2.194   2.447   7.178  0.9592 -0.6180 -0.4204
48155SOL     OW54394   3.989   6.827   4.736  0.3665  0.0821 -0.1823
48155SOL    HW154395   3.928   6.900   4.733  1.2336  0.8227 -0.1050
48155SOL    HW254396   4.061   6.854   4.679  1.4524 -0.0179  1.1063
48156SOL     OW54397   2.907   2.786   0.620 -0.0872 -0.6119 -0.0277
48156SOL    HW154398   2.979   2.794   0.557 -0.6557  0.8092 -0.5174
48156SOL    HW254399   2.874   2.697   0.606 -0.6738 -0.1142 -2.2957
48157SOL     OW54400   5.348  11.505   6.983  0.2970 -0.4559  0.0661
48157SOL    HW154401   5.434  11.545   6.967  0.0767 -0.4248 -1.1542
48157SOL    HW254402   5.358  11.415   6.954 -0.1609 -0.3721 -0.3602
48158SOL     OW54403   8.365   1.734   5.299  0.1266  0.1193 -0.1318
48158SOL    HW154404   8.450   1.769   5.270 -0.3649  2.5798  1.1481
48158SOL    HW254405   8.313   1.730   5.219  0.0529  3.0095 -0.3413
48159SOL     OW54406  10.211  11.031   0.996 -0.1617  0.0915 -0.3439
48159SOL    HW154407  10.131  10.996   1.036 -0.6775 -0.1834 -1.5650
48159SOL    HW254408  10.282  10.992   1.046 -0.7018 -2.6245 -1.5249
48160SOL     OW54409   8.380  10.600   3.918 -0.2636 -0.1496  0.3532
48160SOL    HW154410   8.372  10.593   4.013 -0.2439 -1.4956  0.2811
48160SOL    HW254411   8.435  10.526   3.893  0.6325  0.8012 -0.6120
48161SOL     OW54412   2.989   2.218  11.359 -0.0753 -0.0739  0.4390
48161SOL    HW154413   2.997   2.313  11.372  0.8238 -0.3047  1.7920
48161SOL    HW254414   2.998   2.181  11.447  0.9256 -1.4941 -0.2204
48162SOL     OW54415  11.278   3.959   7.217  0.0373  0.3555  0.1399
48162SOL    HW154416  11.291   4.013   7.140 -0.0641  0.3740  0.1356
48162SOL    HW254417  11.348   3.893   7.213 -0.0639  0.2618 -0.0487
48163SOL     OW54418   1.071  11.677  12.146 -0.9395  0.2854 -0.7073
48163SOL    HW154419   1.073  11.745  12.079  0.2560  0.7035 -0.2683
48163SOL    HW254420   1.089  11.596  12.099  2.1602  0.8302 -0.6584
48164SOL     OW54421   3.494   7.437   0.575 -0.0856 -0.0710  0.0310
48164SOL    HW154422   3.525   7.488   0.500 -0.4402 -0.2170 -0.2148
48164SOL    HW254423   3.538   7.353   0.566 -1.2614 -0.6197 -0.8527
48165SOL     OW54424   5.304   4.058  12.038  0.2161 -0.1195  0.1871
48165SOL    HW154425   5.272   4.018  11.957  0.8986  1.6237 -0.9929
48165SOL    HW254426   5.227   4.062  12.095 -0.5284 -0.4165 -0.7665
48166SOL     OW54427  11.506   1.273   6.725  0.3199 -0.1202 -0.7582
48166SOL    HW154428  11.457   1.297   6.803  2.6411 -0.0699  0.7879
48166SOL    HW254429  11.507   1.177   6.725 -0.4898 -0.1418 -1.3106
48167SOL     OW54430   5.683  10.810   2.248 -0.6897  0.0883  0.2664
48167SOL    HW154431   5.615  10.814   2.316 -2.7179 -0.8306 -1.5952
48167SOL    HW254432   5.672  10.724   2.208  2.0192 -0.3332  0.2467
48168SOL     OW54433   0.722   0.846  13.022 -0.1926 -0.3353  0.1105
48168SOL    HW154434   0.726   0.942  13.013  0.3708 -0.3391  0.2765
48168SOL    HW254435   0.628   0.826  13.027 -0.3253  0.1817 -0.2150
48169SOL     OW54436   3.395  11.912   6.527 -0.1893  0.9299  0.6625
48169SOL    HW154437   3.465  11.960   6.484  0.6151  0.4207  1.3752
48169SOL    HW254438   3.344  11.980   6.573 -0.4182  1.3433 -0.1782
48170SOL     OW54439   7.039  10.070   1.171  0.1213  0.0682 -0.3241
48170SOL    HW154440   7.014   9.987   1.129 -0.0451 -0.2837  0.4514
48170SOL    HW254441   7.131  10.059   1.194 -0.1977 -0.3635  0.8177
48171SOL     OW54442  10.618  12.625   8.455 -0.2319 -0.2569 -0.0734
48171SOL    HW154443  10.681  12.572   8.504 -0.0504 -1.9933 -2.0769
48171SOL    HW254444  10.666  12.705   8.433  0.7323 -0.8385 -0.1321
48172SOL     OW54445   1.691   0.335  12.441  0.2526 -0.1330 -0.6852
48172SOL    HW154446   1.618   0.273  12.450 -0.6950  0.9750 -0.5743
48172SOL    HW254447   1.761   0.297  12.493 -0.6130 -0.6732  0.1137
48173SOL     OW54448  11.038   8.075   8.843  0.8760 -0.2439 -0.3081
48173SOL    HW154449  11.061   8.156   8.798  0.4046 -0.9177 -1.8211
48173SOL    HW254450  11.094   8.009   8.802 -0.8254 -1.1851 -1.2096
48174SOL     OW54451   4.515   3.438   4.482 -0.6123  0.2815  0.0552
48174SOL    HW154452   4.548   3.524   4.457  0.0595 -0.3890 -1.4521
48174SOL    HW254453   4.455   3.414   4.411  0.7395 -1.3397 -0.6039
48175SOL     OW54454   0.212   3.633   0.617 -0.1516  0.1699  0.3947
48175SOL    HW154455   0.201   3.543   0.587 -0.5580  0.2832  0.2009
48175SOL    HW254456   0.165   3.686   0.553  1.3206  0.6566 -0.3283
48176SOL     OW54457   7.848   0.237  12.073 -0.3081  0.0819  0.0689
48176SOL    HW154458   7.806   0.154  12.052 -0.1622  0.5209 -2.1728
48176SOL    HW254459   7.917   0.214  12.135 -0.5074 -1.3989 -0.2226
48177SOL     OW54460   2.335   1.274   3.048  0.3589 -0.3139 -0.2082
48177SOL    HW154461   2.354   1.234   3.133 -1.7778  1.1756  1.0724
48177SOL    HW254462   2.327   1.200   2.988  0.3852 -1.5322  1.2277
48178SOL     OW54463   0.588   1.635  10.446 -0.0699  0.0272  0.2381
48178SOL    HW154464   0.573   1.658  10.355  0.0634 -0.3415  0.1194
48178SOL    HW254465   0.536   1.555  10.458  0.1041 -0.0571  0.4207
48179SOL     OW54466   2.902   7.828  12.641 -1.1361 -0.1704 -0.9381
48179SOL    HW154467   2.889   7.868  12.727 -3.3165 -1.0249 -0.8074
48179SOL    HW254468   2.990   7.856  12.615 -0.3905  0.0759  1.5666
48180SOL     OW54469   3.595   2.856   9.869  0.5068  0.5348 -0.1877
48180SOL    HW154470   3.630   2.908   9.796  2.1389  1.1781  0.9761
48180SOL    HW254471   3.665   2.793   9.887  0.5292  0.9732  1.3647
48181SOL     OW54472  10.337   4.895   1.366 -0.0769  0.5468  0.3763
48181SOL    HW154473  10.427   4.924   1.352  0.8734 -2.4362 -0.4186
48181SOL    HW254474  10.318   4.917   1.457  1.5554  0.9404  0.6475
48182SOL     OW54475   9.875   8.926   3.315 -0.2510  1.0321 -0.0206
48182SOL    HW154476   9.891   8.921   3.221 -0.2731 -1.1086  0.0528
48182SOL    HW254477   9.807   8.861   3.332  0.3806  0.7388  1.6141
48183SOL     OW54478   5.555   9.101  10.482  0.2068 -0.0324 -0.1853
48183SOL    HW154479   5.646   9.115  10.460  1.0165 -1.9944  1.5243
48183SOL    HW254480   5.539   9.009  10.460 -0.2792 -0.7198  2.5813
48184SOL     OW54481   7.302   5.758   2.593 -0.3808  0.0809  0.0527
48184SOL    HW154482   7.258   5.843   2.587  0.7620  0.6880  0.1157
48184SOL    HW254483   7.319   5.734   2.502 -2.5292 -1.0830 -0.0960
48185SOL     OW54484   7.552   7.755  12.883 -0.2950  0.0886  0.0153
48185SOL    HW154485   7.555   7.820  12.813 -1.6958  0.2858  0.1022
48185SOL    HW254486   7.626   7.777  12.940 -0.7636  1.6421  0.0688
48186SOL     OW54487   6.916  11.073   2.589  0.1941 -0.0234  0.7655
48186SOL    HW154488   6.848  11.017   2.626  0.7665 -0.5299  1.0449
48186SOL    HW254489   6.989  11.015   2.571  0.2263  0.3528 -0.4127
48187SOL     OW54490   4.165   8.973   7.989 -0.1802 -0.3094  1.0955
48187SOL    HW154491   4.248   9.021   7.987  0.0144 -0.6496  0.9722
48187SOL    HW254492   4.109   9.026   8.046  0.0277  0.0697  0.9526
48188SOL     OW54493  12.554   8.851   7.106  0.1111 -0.4299 -0.0604
48188SOL    HW154494  12.529   8.809   7.023 -0.0874 -0.2907 -0.0715
48188SOL    HW254495  12.517   8.939   7.100  0.0507 -0.4382  0.2002
48189SOL     OW54496   6.901   2.568   3.087 -0.1301 -0.0722  0.0721
48189SOL    HW154497   6.942   2.634   3.143 -0.9197  0.6069 -0.1352
48189SOL    HW254498   6.969   2.545   3.024  0.1439  0.5520  0.1332
48190SOL     OW54499  12.132   1.145  13.227 -0.7141 -0.1985 -0.7737
48190SOL    HW154500  12.172   1.089  13.161  0.5521 -0.1084 -0.1200
48190SOL    HW254501  12.078   1.205  13.178  1.1710  0.6811 -1.8911
48191SOL     OW54502   1.460  10.821  12.529  0.0720  0.1548  0.4041
48191SOL    HW154503   1.367  10.807  12.546 -0.6537  0.7073 -2.5396
48191SOL    HW254504   1.464  10.842  12.436  3.2826 -0.9396  0.1778
48192SOL     OW54505   8.674   2.987   1.087  0.0150  0.0649 -0.1235
48192SOL    HW154506   8.699   3.077   1.107 -0.6863  0.6894 -1.8301
48192SOL    HW254507   8.753   2.936   1.106 -0.1517  0.7095  2.6666
48193SOL     OW54508  11.288   8.897   2.731 -0.5980  0.4038  0.8703
48193SOL    HW154509  11.378   8.929   2.738 -0.5201  0.3491  0.2489
48193SOL    HW254510  11.241   8.940   2.801 -0.1140  0.5404  1.1179
48194SOL     OW54511   8.151   0.233   8.429  0.4763 -0.2067 -0.0405
48194SOL    HW154512   8.159   0.138   8.426 -0.6967 -0.3224 -0.0988
48194SOL    HW254513   8.234   0.264   8.464  0.5865 -1.3042  0.6786
48195SOL     OW54514  10.920   3.733   0.801 -0.0138 -0.3827 -0.4032
48195SOL    HW154515  10.960   3.777   0.876 -1.3398 -0.2923  0.2704
48195SOL    HW254516  10.985   3.742   0.731  0.7459  0.5629  0.3912
48196SOL     OW54517   5.404   2.882   3.497 -0.0804 -0.1605  0.1560
48196SOL    HW154518   5.464   2.865   3.569  0.2960 -0.2114 -0.1683
48196SOL    HW254519   5.322   2.841   3.524  0.8691 -2.8807 -0.7491
48197SOL     OW54520   8.270  10.928   1.046  0.0235  0.0189  0.1819
48197SOL    HW154521   8.204  10.880   1.095 -0.6205 -0.1230 -0.7931
48197SOL    HW254522   8.352  10.885   1.068 -0.2165  0.0913  1.2768
48198SOL     OW54523   9.831   3.216  10.859  0.0351  0.4374 -0.2137
48198SOL    HW154524   9.902   3.199  10.797  0.2332  1.1978 -0.2056
48198SOL    HW254525   9.841   3.308  10.881 -1.0138  0.5730 -0.2850
48199SOL     OW54526   9.474  11.771   2.544  0.0732 -0.1166  0.5600
48199SOL    HW154527   9.438  11.842   2.597  1.1212  0.8459  0.0222
48199SOL    HW254528   9.460  11.800   2.453  0.2864 -0.7172  0.3339
48200SOL     OW54529   2.259   6.290   5.167  0.5256  0.7754  0.2058
48200SOL    HW154530   2.236   6.218   5.226 -2.2265  1.2139 -0.1911
48200SOL    HW254531   2.186   6.352   5.175  1.6867  2.4380 -1.2080
48201SOL     OW54532   1.136   7.446   4.789 -0.1316 -0.5024  0.2382
48201SOL    HW154533   1.101   7.370   4.743 -1.0462 -0.1303  0.2770
48201SOL    HW254534   1.062   7.507   4.791  0.8504  0.7462 -0.5808
48202SOL     OW54535   6.614   9.590   8.668 -0.7321  0.7321 -0.0723
48202SOL    HW154536   6.522   9.602   8.645 -0.8861 -0.0538  0.1113
48202SOL    HW254537   6.658   9.575   8.584 -0.8455  0.6742 -0.1221
48203SOL     OW54538   2.556   0.938   5.576  0.1657  0.2299 -0.0438
48203SOL    HW154539   2.478   0.882   5.569  0.6987 -0.4668 -0.4103
48203SOL    HW254540   2.546   1.001   5.504 -1.1312  1.5133  1.1859
48204SOL     OW54541   8.985   4.086   0.481  0.0999  0.1276  0.1363
48204SOL    HW154542   8.918   4.105   0.415 -0.0297  2.4653  0.8381
48204SOL    HW254543   8.938   4.088   0.564  0.8867  0.9867  0.5764
48205SOL     OW54544   5.523   4.933  10.677 -0.2227 -0.2018  0.4120
48205SOL    HW154545   5.464   4.967  10.610 -0.2797 -0.8028  0.1464
48205SOL    HW254546   5.478   4.950  10.759  0.0737  0.9963  0.3480
48206SOL     OW54547   7.878   9.009   9.702 -0.2572  0.1861  0.0644
48206SOL    HW154548   7.791   8.988   9.668 -0.9700  1.7446  0.8171
48206SOL    HW254549   7.914   8.925   9.730 -1.2807 -0.5600 -0.7654
48207SOL     OW54550   5.590   8.097   6.732  0.2719 -0.0718  0.4246
48207SOL    HW154551   5.562   8.182   6.766  0.1934 -0.0785  0.3759
48207SOL    HW254552   5.543   8.034   6.787  1.8999 -0.1143  1.8480
48208SOL     OW54553   7.609   3.341  12.989  0.0679  0.7368  0.5578
48208SOL    HW154554   7.680   3.404  12.984  0.3283  0.3577 -1.5628
48208SOL    HW254555   7.576   3.335  12.899 -0.0419 -2.0213  0.6900
48209SOL     OW54556   5.006   2.294   7.055 -0.1648 -0.9317 -0.2127
48209SOL    HW154557   5.025   2.298   7.149 -1.5900 -0.1892  0.0735
48209SOL    HW254558   5.077   2.241   7.018  0.9640 -0.4157  1.1316
48210SOL     OW54559   9.639  10.063   3.473 -0.5862  0.3146 -0.0589
48210SOL    HW154560   9.576   9.991   3.478  0.3493 -0.5550 -0.5467
48210SOL    HW254561   9.722  10.024   3.502 -0.4549  1.6846  1.5074
48211SOL     OW54562   2.950   5.024   0.577 -0.1375 -0.4676 -0.1247
48211SOL    HW154563   2.954   4.951   0.516  0.0119  1.0571 -2.0780
48211SOL    HW254564   2.857   5.036   0.596 -0.2006 -0.8356 -0.2114
48212SOL     OW54565   6.028   6.758   7.087 -0.1709  0.3370  0.7251
48212SOL    HW154566   5.954   6.720   7.135  0.5520 -0.5935  1.1333
48212SOL    HW254567   5.987   6.811   7.019 -1.2236  1.0935  1.8926
48213SOL     OW54568   9.532  10.193   2.764  0.4389  0.1324  0.3247
48213SOL    HW154569   9.462  10.135   2.735  0.5097 -0.5731  1.4966
48213SOL    HW254570   9.601  10.183   2.698 -0.5806  0.9324 -0.9074
48214SOL     OW54571   6.501   3.767   9.348  0.1951 -0.2666  0.9532
48214SOL    HW154572   6.446   3.709   9.295 -1.1343 -0.8566  2.8519
48214SOL    HW254573   6.577   3.713   9.371 -0.2143 -0.7025  1.3114
48215SOL     OW54574   4.098   9.320   6.751  0.9444 -0.7435  1.1878
48215SOL    HW154575   4.146   9.402   6.751 -0.8691  0.3599  1.6447
48215SOL    HW254576   4.123   9.278   6.669  0.5829  1.0653  0.1110
48216SOL     OW54577   4.602  11.581  11.819  0.4462  0.4286  0.0419
48216SOL    HW154578   4.659  11.585  11.896 -1.0775 -0.1232  1.2543
48216SOL    HW254579   4.628  11.500  11.775  1.3448  0.7582 -0.0533
48217SOL     OW54580   4.202  12.486  10.312  0.3801 -0.1312 -0.5043
48217SOL    HW154581   4.121  12.443  10.284  0.7403 -0.0015 -1.8367
48217SOL    HW254582   4.186  12.511  10.403 -0.4392 -1.6263 -0.2013
48218SOL     OW54583   6.581   9.120   1.103  0.1910 -0.4732  0.3197
48218SOL    HW154584   6.509   9.099   1.162 -0.1303 -0.3590 -0.0307
48218SOL    HW254585   6.660   9.105   1.156  0.1020 -4.1592 -0.3278
48219SOL     OW54586  10.804  10.509   9.133  0.5088  0.4453 -0.2812
48219SOL    HW154587  10.887  10.467   9.153  0.4957 -1.3939 -3.3563
48219SOL    HW254588  10.827  10.597   9.106  1.2549  0.4680  0.3910
48220SOL     OW54589   2.792   9.486   0.861  0.7718 -0.3600 -1.0480
48220SOL    HW154590   2.887   9.476   0.862  0.8797 -0.0706  1.9487
48220SOL    HW254591   2.777   9.580   0.865  0.3418 -0.4010 -1.5491
48221SOL     OW54592   9.559   8.027   3.656 -0.3810 -0.0862 -0.3775
48221SOL    HW154593   9.497   8.072   3.598  1.1946  0.2618 -1.8627
48221SOL    HW254594   9.576   7.944   3.612 -1.0284 -0.9238  0.8817
48222SOL     OW54595   0.773   3.838   7.230 -0.3127  0.6329  0.0678
48222SOL    HW154596   0.700   3.865   7.286 -2.0999 -0.8061 -1.4422
48222SOL    HW254597   0.827   3.782   7.287 -2.2412 -1.0378  0.3765
48223SOL     OW54598   3.199   9.664   1.422  0.4942  0.2500 -0.5937
48223SOL    HW154599   3.212   9.570   1.435  0.7430  0.3342 -0.2049
48223SOL    HW254600   3.127   9.670   1.359 -0.2429 -0.1855  0.1932
48224SOL     OW54601   9.464  12.516   4.678  0.3644 -0.0591  0.5588
48224SOL    HW154602   9.381  12.504   4.633 -0.0821  0.3193  1.2763
48224SOL    HW254603   9.499  12.427   4.686  0.7776 -0.0876 -1.1063
48225SOL     OW54604   9.784  10.085   7.548  0.1797 -0.0308 -0.4889
48225SOL    HW154605   9.701  10.040   7.565 -0.2141  0.9575  0.2953
48225SOL    HW254606   9.781  10.104   7.454  0.4360 -1.7423 -0.8893
48226SOL     OW54607   1.394   7.941   9.621  0.0382 -0.3574  0.2091
48226SOL    HW154608   1.440   7.862   9.591  2.0272 -0.0839  2.2220
48226SOL    HW254609   1.303   7.914   9.629  0.2878 -1.7979 -1.2390
48227SOL     OW54610   5.897  12.763   3.890  0.2173 -0.0481  0.0238
48227SOL    HW154611   5.931  12.851   3.877  0.1126  0.0135  0.1705
48227SOL    HW254612   5.821  12.757   3.833  0.7049 -0.3217 -0.6143
48228SOL     OW54613  12.814  10.544  10.940 -0.3693 -0.2908 -0.6955
48228SOL    HW154614  12.875  10.485  10.895  0.5640  0.2305 -0.1391
48228SOL    HW254615  12.779  10.599  10.870  1.8939  1.2508 -0.7227
48229SOL     OW54616   7.094  11.815   5.329  0.8870  0.0881 -0.8199
48229SOL    HW154617   7.070  11.775   5.245  1.2898 -0.2830 -0.7599
48229SOL    HW254618   7.147  11.891   5.305  0.0831  0.6214 -0.9361
48230SOL     OW54619   4.653  11.972   3.783  0.2199 -0.1597  0.0002
48230SOL    HW154620   4.602  11.932   3.713  0.2447  0.2472 -0.2506
48230SOL    HW254621   4.604  11.951   3.863 -1.0377  1.3065 -0.3554
48231SOL     OW54622   1.760  12.284  11.085  0.9267 -0.1639  0.3569
48231SOL    HW154623   1.739  12.365  11.038 -0.1403 -1.2205 -1.0754
48231SOL    HW254624   1.748  12.215  11.020  2.0290 -1.4673  1.4922
48232SOL     OW54625   1.084   3.048   1.811 -0.3937 -0.1578 -0.2228
48232SOL    HW154626   1.167   3.095   1.803  1.3615 -2.9796  0.3991
48232SOL    HW254627   1.058   3.061   1.902 -0.5552  0.5734 -0.3676
48233SOL     OW54628   3.875   4.946  13.285 -0.2204 -0.3035 -0.0360
48233SOL    HW154629   3.907   5.036  13.276 -0.5770 -0.3705 -3.1272
48233SOL    HW254630   3.931   4.907  13.351 -0.1596  2.2009  1.5360
48234SOL     OW54631   7.346  11.299  11.824  0.4308  0.7443 -0.1424
48234SOL    HW154632   7.255  11.269  11.816  0.9143 -0.4266 -1.7174
48234SOL    HW254633   7.393  11.222  11.857  0.7310  1.6094  1.5403
48235SOL     OW54634   8.625  11.441   4.834 -0.1278  0.1940  0.7039
48235SOL    HW154635   8.658  11.443   4.924 -0.0969 -0.6979  0.7231
48235SOL    HW254636   8.695  11.398   4.784 -1.0402 -1.3074  0.6616
48236SOL     OW54637   6.996  11.084  13.043 -0.2570 -0.1381  0.1762
48236SOL    HW154638   7.033  11.116  13.126 -0.6368  1.7077 -0.3075
48236SOL    HW254639   7.063  11.027  13.006  0.9033  0.8833  0.6552
48237SOL     OW54640   9.766   3.679  12.629  0.0646 -0.3772  0.8334
48237SOL    HW154641   9.792   3.619  12.699  1.2525 -2.5957 -1.3427
48237SOL    HW254642   9.849   3.708  12.590 -0.5635 -0.1541 -0.3844
48238SOL     OW54643   1.200   2.302  12.740  0.2990 -0.4286 -0.3465
48238SOL    HW154644   1.114   2.342  12.734  0.8637  1.3151  1.7954
48238SOL    HW254645   1.190   2.232  12.804  0.4478 -0.2482 -0.1231
48239SOL     OW54646   5.104   0.286   4.815 -0.1968  0.1086  0.4019
48239SOL    HW154647   5.010   0.274   4.825 -0.1527 -1.0306 -0.3943
48239SOL    HW254648   5.142   0.198   4.825  0.3654 -0.2561 -3.3166
48240SOL     OW54649   6.196   5.420   9.451  0.5222  0.5066  0.0080
48240SOL    HW154650   6.244   5.500   9.476  0.1376  0.2120  1.8677
48240SOL    HW254651   6.264   5.355   9.435  0.7986  0.7342  0.2437
48241SOL     OW54652  11.207   1.781   1.469 -0.1864 -0.0871 -0.0174
48241SOL    HW154653  11.144   1.846   1.437 -0.1202 -0.5455 -1.1228
48241SOL    HW254654  11.156   1.701   1.477 -0.3708  0.1724  1.7648
48242SOL     OW54655   8.074   8.354  12.181  0.3858  0.4371 -0.6481
48242SOL    HW154656   8.071   8.275  12.127 -1.3020 -0.5727  0.8055
48242SOL    HW254657   7.988   8.396  12.167  1.1194  1.8624 -1.1139
48243SOL     OW54658   5.015   5.381   8.426 -0.1993 -0.1069 -0.3946
48243SOL    HW154659   5.039   5.304   8.375 -0.7784 -0.9775  0.5953
48243SOL    HW254660   5.098   5.427   8.442  0.4338 -1.5438  0.6029
48244SOL     OW54661   4.023  13.146   1.979  0.0233 -0.1306  0.4406
48244SOL    HW154662   4.000  13.053   1.980  0.6077 -0.3020  2.9264
48244SOL    HW254663   3.941  13.190   1.958 -0.2341 -1.1645 -0.9075
48245SOL     OW54664   4.997   4.900   4.128 -0.1332  0.5866  0.0631
48245SOL    HW154665   5.054   4.826   4.147 -3.1028 -2.4982 -1.9903
48245SOL    HW254666   4.911   4.874   4.161 -1.5664  2.5153 -1.8206
48246SOL     OW54667   4.221   7.566   3.434 -0.0632 -0.2802 -0.4464
48246SOL    HW154668   4.247   7.545   3.344  0.3336 -0.6405 -0.2473
48246SOL    HW254669   4.201   7.660   3.431  0.6756 -0.1258 -0.7409
48247SOL     OW54670  11.949  10.470  12.665  0.2661  0.1932  0.4329
48247SOL    HW154671  11.933  10.386  12.709 -0.2596 -0.4844 -0.9938
48247SOL    HW254672  11.868  10.519  12.680 -0.3139 -0.4166 -0.5650
48248SOL     OW54673  10.940   0.395   3.719  0.0906  0.0751 -0.1412
48248SOL    HW154674  10.920   0.487   3.737 -0.2941 -0.1636  0.7050
48248SOL    HW254675  10.870   0.346   3.763 -1.5716 -0.5276 -3.2242
48249SOL     OW54676   6.048   2.971   7.114 -0.1025  0.1174 -0.4548
48249SOL    HW154677   6.026   2.946   7.204  0.8159  0.2682 -0.1791
48249SOL    HW254678   5.993   3.048   7.097 -0.5515 -0.1315 -0.1602
48250SOL     OW54679   6.925   3.973   4.361 -0.0605 -0.4633  0.8172
48250SOL    HW154680   6.909   3.925   4.442 -1.1702 -1.9349 -0.2165
48250SOL    HW254681   6.856   4.040   4.358  1.5894  1.4166  2.3429
48251SOL     OW54682  10.634  10.063   2.756 -0.6194 -0.2202 -0.0500
48251SOL    HW154683  10.715  10.095   2.796 -1.3376  0.1193  1.1953
48251SOL    HW254684  10.642  10.086   2.664  1.3578 -1.5478 -0.2777
48252SOL     OW54685   4.891   2.839   4.173  0.1664 -0.2743  0.1028
48252SOL    HW154686   4.883   2.787   4.093 -0.4185  0.0245 -0.0380
48252SOL    HW254687   4.885   2.930   4.143  0.8790 -0.1351  0.3812
48253SOL     OW54688   0.174   5.774  10.213  0.0472 -0.0291 -0.3414
48253SOL    HW154689   0.247   5.715  10.232 -0.7260 -0.4234  1.5813
48253SOL    HW254690   0.111   5.759  10.284 -2.7779 -1.0568 -2.8141
48254SOL     OW54691  11.165  10.971  11.430 -0.2280  0.0065 -0.2888
48254SOL    HW154692  11.172  11.045  11.369  1.2100 -0.0701 -0.2482
48254SOL    HW254693  11.111  11.004  11.502  1.7504  1.6246  0.5518
48255SOL     OW54694  10.261  10.160   2.880 -0.4115  0.0493  0.2263
48255SOL    HW154695  10.311  10.242   2.882  0.7442 -0.6452  0.3245
48255SOL    HW254696  10.169  10.189   2.878 -0.1581  1.3693  2.8146
48256SOL     OW54697   7.142   6.805  13.139 -0.5462  0.8963 -0.5775
48256SOL    HW154698   7.168   6.772  13.053 -0.0692  1.1427 -0.5272
48256SOL    HW254699   7.221   6.801  13.192 -0.8672  0.6351 -0.1126
48257SOL     OW54700   0.523  12.818   6.936  0.0831  0.4770 -0.4236
48257SOL    HW154701   0.574  12.746   6.972  1.0449  0.8005 -1.0989
48257SOL    HW254702   0.549  12.894   6.988 -0.9774  0.3448  0.3311
48258SOL     OW54703   0.733  12.682  12.091 -0.6560 -0.4353 -0.3811
48258SOL    HW154704   0.758  12.704  12.002 -0.6470  0.8625 -0.0710
48258SOL    HW254705   0.673  12.608  12.081 -1.2322  0.1613 -1.5198
48259SOL     OW54706  12.048   3.573  10.928  0.0203 -0.0162 -0.0791
48259SOL    HW154707  12.094   3.500  10.969  0.0750 -0.5769 -1.0948
48259SOL    HW254708  12.001   3.533  10.855 -1.9172  0.5690  0.7897
48260SOL     OW54709  13.311   7.598  11.438 -0.2670 -0.4809 -0.3806
48260SOL    HW154710  13.235   7.653  11.461  0.5556  0.4507  0.1691
48260SOL    HW254711  13.387   7.650  11.463  0.5519 -1.8541  0.1054
48261SOL     OW54712   7.805   3.094   7.608  0.1943  0.4807 -0.1848
48261SOL    HW154713   7.749   3.135   7.674 -1.3204  1.5168 -2.0124
48261SOL    HW254714   7.867   3.042   7.658 -0.4612  1.7399  2.0767
48262SOL     OW54715   3.015   2.643   8.057  0.4108  0.0242  0.0451
48262SOL    HW154716   3.095   2.657   8.107  1.0822  2.3548 -1.5064
48262SOL    HW254717   2.998   2.549   8.063  2.7575 -0.3834  1.1533
48263SOL     OW54718   1.486   5.094   7.716  0.0778  0.1172 -0.0600
48263SOL    HW154719   1.427   5.169   7.727  0.9284  0.6640  1.0528
48263SOL    HW254720   1.564   5.132   7.676  0.8073  0.0123  1.1859
48264SOL     OW54721   8.959   2.198   3.429  0.3613 -0.2683 -0.1807
48264SOL    HW154722   9.054   2.196   3.442  0.4169  1.8840  0.1226
48264SOL    HW254723   8.923   2.211   3.517 -0.2882 -1.5980 -0.2204
48265SOL     OW54724   3.491   7.150   8.365  0.0629  0.2707 -0.4108
48265SOL    HW154725   3.479   7.152   8.270 -0.0008 -0.3190 -0.4190
48265SOL    HW254726   3.568   7.204   8.381 -0.2930  0.8906 -0.7366
48266SOL     OW54727  11.000   6.223  11.265 -0.2052  0.1905  0.8659
48266SOL    HW154728  10.913   6.221  11.226 -0.5110  2.2384  1.3260
48266SOL    HW254729  11.058   6.250  11.193 -0.4378  1.8016  1.2515
48267SOL     OW54730   4.575   9.573   5.505 -0.2377  0.1534  0.1650
48267SOL    HW154731   4.644   9.515   5.537 -0.2936 -1.0708 -1.7534
48267SOL    HW254732   4.622   9.642   5.457 -0.2980 -0.4925 -0.8520
48268SOL     OW54733   9.329  11.375   0.579  0.6877 -0.1313 -0.3388
48268SOL    HW154734   9.263  11.443   0.567  0.8752  0.0710 -0.2003
48268SOL    HW254735   9.367  11.363   0.492 -0.5055 -1.2449 -0.7557
48269SOL     OW54736  11.357   7.623   0.950 -0.3164 -0.2069  0.2038
48269SOL    HW154737  11.409   7.622   1.030 -0.0978  0.6475  0.0757
48269SOL    HW254738  11.370   7.536   0.912  2.7832  0.6101 -0.9400
48270SOL     OW54739  12.228   5.679   5.933  0.1630 -0.0577 -0.4353
48270SOL    HW154740  12.277   5.699   6.012  0.5660  0.7386 -0.8776
48270SOL    HW254741  12.146   5.641   5.965  1.3107 -2.0698  0.2930
48271SOL     OW54742   2.413   2.785  12.928  0.2370  0.1871  0.5554
48271SOL    HW154743   2.426   2.861  12.985  0.2589 -0.1189  0.9583
48271SOL    HW254744   2.459   2.714  12.972 -0.4740 -0.2581  0.5941
48272SOL     OW54745  11.177   3.000   9.300 -0.2081  0.0824  0.0692
48272SOL    HW154746  11.202   3.027   9.388 -1.2716  0.7188  0.2005
48272SOL    HW254747  11.158   2.907   9.307  2.7196 -0.6230 -0.2017
48273SOL     OW54748  13.115   6.174   5.794 -0.4314  0.5733 -0.6751
48273SOL    HW154749  13.172   6.138   5.727 -0.5360  0.9133 -0.9474
48273SOL    HW254750  13.137   6.267   5.797 -0.5778  0.5999 -0.3899
48274SOL     OW54751   6.201   9.069   4.216  0.0868 -0.0333  0.0636
48274SOL    HW154752   6.122   9.118   4.236  0.1918 -0.1386  0.7565
48274SOL    HW254753   6.169   8.985   4.182 -0.1056  0.9839 -2.4515
48275SOL     OW54754  12.226   9.741   9.705 -0.2476 -0.1201  0.1508
48275SOL    HW154755  12.313   9.704   9.693 -0.4917 -0.7656  0.3873
48275SOL    HW254756  12.196   9.758   9.615 -0.1315 -0.4777  0.0407
48276SOL     OW54757   6.363   8.892   6.628 -0.6776 -0.5815 -0.0721
48276SOL    HW154758   6.333   8.928   6.711  0.1734 -0.3068  0.1270
48276SOL    HW254759   6.392   8.969   6.578 -0.5443 -0.8102 -0.3504
48277SOL     OW54760   5.121   8.195   5.070 -0.7632 -0.7354  0.7730
48277SOL    HW154761   5.154   8.107   5.088 -0.3011 -0.6173  0.5146
48277SOL    HW254762   5.034   8.180   5.034  0.2968 -1.2486 -1.7771
48278SOL     OW54763   4.959  12.911   8.201  0.0966 -0.7233 -0.1479
48278SOL    HW154764   5.037  12.869   8.165  1.3492  0.6002  0.9362
48278SOL    HW254765   4.989  12.957   8.279 -1.8318 -0.4007  0.4687
48279SOL     OW54766   1.694   7.625   3.730  0.3045 -0.3509  0.3764
48279SOL    HW154767   1.718   7.647   3.820  0.7201 -1.1996  0.4836
48279SOL    HW254768   1.741   7.688   3.676 -0.7117  0.7882  0.7893
48280SOL     OW54769  12.365   5.883   7.332  0.7093  0.1044  0.0985
48280SOL    HW154770  12.276   5.850   7.318  0.7768  0.5461 -1.7057
48280SOL    HW254771  12.353   5.971   7.365  0.4576  0.2394 -0.3392
48281SOL     OW54772   1.118   4.190   6.814 -0.3344 -0.5390 -0.4866
48281SOL    HW154773   1.203   4.174   6.857  1.1689  2.1615 -2.2020
48281SOL    HW254774   1.102   4.110   6.763  1.9055 -0.6193 -1.1899
48282SOL     OW54775   9.768   2.662  12.114 -0.0524 -0.0369 -0.4141
48282SOL    HW154776   9.826   2.695  12.182 -0.0604 -1.1476  0.1410
48282SOL    HW254777   9.687   2.712  12.125 -0.3205 -0.7353  0.8882
48283SOL     OW54778   2.717   4.806   7.284 -0.1777  0.1448 -0.2710
48283SOL    HW154779   2.784   4.874   7.292 -0.4442  0.2608  1.5634
48283SOL    HW254780   2.727   4.772   7.195  2.0213  0.4651 -0.2017
48284SOL     OW54781   4.555  12.802   0.534  0.0487 -0.4450 -0.1928
48284SOL    HW154782   4.477  12.748   0.544  0.7138 -1.3845  0.0982
48284SOL    HW254783   4.620  12.761   0.591  0.3968  1.0446  0.5316
48285SOL     OW54784  12.240   5.008   1.629 -0.8551 -0.3822  0.8204
48285SOL    HW154785  12.264   4.916   1.637 -1.5387 -0.6540 -0.0730
48285SOL    HW254786  12.166   5.008   1.568 -0.4297  0.8201  0.2730
48286SOL     OW54787   6.587  10.785   8.446 -0.2811 -0.1313  0.3228
48286SOL    HW154788   6.503  10.825   8.422 -1.5215 -1.7411  1.6969
48286SOL    HW254789   6.571  10.745   8.532  2.4504  1.0311  1.4802
48287SOL     OW54790   2.089  11.670  11.420  0.4835 -0.2521  0.2790
48287SOL    HW154791   2.102  11.754  11.465 -0.3607  0.1438 -0.1992
48287SOL    HW254792   2.113  11.688  11.329 -1.1631 -0.0921 -0.1579
48288SOL     OW54793   0.829   6.668   6.547 -0.5603  0.4703  0.0893
48288SOL    HW154794   0.846   6.705   6.460  1.3583 -0.4902  0.0142
48288SOL    HW254795   0.769   6.595   6.530 -1.2789  1.1224 -0.2352
48289SOL     OW54796   5.846   3.957   5.181  0.6038  0.3066  0.0246
48289SOL    HW154797   5.828   3.992   5.094  0.4421  1.3421  0.4554
48289SOL    HW254798   5.788   3.881   5.190  0.4745  0.3192 -0.6828
48290SOL     OW54799   3.874   4.064   8.791  0.2138 -0.1407  0.0964
48290SOL    HW154800   3.832   3.982   8.764 -0.2651  1.1274 -3.4408
48290SOL    HW254801   3.967   4.050   8.772 -0.1022  0.6924 -2.4423
48291SOL     OW54802   5.716   0.694   1.331  0.6733 -0.1061  0.5261
48291SOL    HW154803   5.805   0.728   1.324 -0.2688  3.1395  2.0904
48291SOL    HW254804   5.665   0.768   1.364 -2.2314 -2.4311  1.7241
48292SOL     OW54805   7.524   4.847   1.661  0.1006 -0.5477 -0.7509
48292SOL    HW154806   7.593   4.911   1.644  0.3720 -0.4526  0.5744
48292SOL    HW254807   7.456   4.867   1.596 -0.4006  1.9594  0.4232
48293SOL     OW54808   7.337   1.890   4.009 -0.1163 -0.2959 -0.0593
48293SOL    HW154809   7.345   1.917   4.101  1.7209 -0.4184 -0.1472
48293SOL    HW254810   7.383   1.806   4.004  0.2242 -0.0671 -1.1749
48294SOL     OW54811   9.278   5.207   2.453 -0.1605 -0.2500  0.1093
48294SOL    HW154812   9.186   5.184   2.450  0.0283 -1.4119  1.6459
48294SOL    HW254813   9.282   5.283   2.512 -0.2859  0.8701 -1.2824
48295SOL     OW54814   6.188   0.541   0.589 -0.6786  0.2254 -0.7317
48295SOL    HW154815   6.126   0.496   0.531  2.0274 -3.1635 -1.3332
48295SOL    HW254816   6.179   0.495   0.673 -0.8651  1.5630  0.0046
48296SOL     OW54817   4.230   2.661   8.338  0.1588  0.7702  0.1499
48296SOL    HW154818   4.211   2.718   8.264  1.2306  0.5586 -0.2985
48296SOL    HW254819   4.322   2.635   8.326 -0.7240 -2.4882 -0.6850
48297SOL     OW54820  11.578  11.623  11.341 -0.2980 -0.4497 -0.4781
48297SOL    HW154821  11.540  11.568  11.273 -0.1713 -2.0699  0.6822
48297SOL    HW254822  11.519  11.698  11.348 -1.6794 -1.4730 -0.7077
48298SOL     OW54823  11.147  11.047   1.032  0.1876 -0.2267 -0.4994
48298SOL    HW154824  11.180  11.122   1.082 -1.3784 -0.1181  0.4583
48298SOL    HW254825  11.216  10.982   1.036  0.4166  0.0771  1.1964
48299SOL     OW54826  12.668   5.126  13.282 -0.3203  0.3215 -0.0517
48299SOL    HW154827  12.722   5.206  13.290 -1.4539  1.1453 -0.3980
48299SOL    HW254828  12.597   5.151  13.223  1.7241 -2.2841 -4.0492
48300SOL     OW54829  12.979   4.569   1.405  0.5731 -0.1725  0.0830
48300SOL    HW154830  12.935   4.626   1.343  2.4969  0.6558 -0.5835
48300SOL    HW254831  13.006   4.627   1.477  0.3576 -0.7070  0.6035
48301SOL     OW54832   9.201   1.767   3.231 -0.4719 -0.1382 -0.0657
48301SOL    HW154833   9.119   1.721   3.217 -1.4585  1.9740 -1.8432
48301SOL    HW254834   9.175   1.854   3.264  1.1081  0.2320  0.3247
48302SOL     OW54835   4.039   1.069   3.741  0.1867  0.2761 -0.3570
48302SOL    HW154836   4.072   1.030   3.661  1.5599  0.4897  0.0755
48302SOL    HW254837   4.083   1.154   3.746 -2.3847  1.7551 -1.0489
48303SOL     OW54838   4.475   8.953   8.403  0.2696 -0.0860  0.4208
48303SOL    HW154839   4.438   8.927   8.319 -2.6079 -0.7126  1.7708
48303SOL    HW254840   4.532   9.027   8.382 -1.5452  0.8004 -1.9040
48304SOL     OW54841   6.698   9.919   4.941  0.1536  0.1097 -1.0824
48304SOL    HW154842   6.779   9.945   4.896  1.1485  1.0847  1.1359
48304SOL    HW254843   6.718   9.929   5.034 -2.7060  0.8897 -0.4765
48305SOL     OW54844   3.919  10.159   4.923 -0.5484  0.1145  0.7070
48305SOL    HW154845   4.005  10.176   4.962 -0.8484  1.9621  0.6334
48305SOL    HW254846   3.931  10.078   4.873  1.0898  0.2355  0.8475
48306SOL     OW54847   7.320   4.774   3.768 -0.4389 -0.4768 -0.0809
48306SOL    HW154848   7.287   4.801   3.682 -1.7229  3.7642  1.5252
48306SOL    HW254849   7.241   4.757   3.819  0.2774 -1.5468  0.6942
48307SOL     OW54850  10.570  10.064   2.148  0.6674 -0.7823 -0.2664
48307SOL    HW154851  10.665  10.072   2.149  0.7884 -1.9452  1.5751
48307SOL    HW254852  10.540  10.114   2.224 -0.0449 -1.7316  0.1023
48308SOL     OW54853   6.381   9.776   5.196  0.3866  0.0951  0.4102
48308SOL    HW154854   6.435   9.706   5.233 -0.9221 -0.9932  0.3466
48308SOL    HW254855   6.352   9.742   5.112  1.7571  1.7678 -0.8179
48309SOL     OW54856  12.169   0.370   1.132  0.1337 -0.3479 -0.3372
48309SOL    HW154857  12.242   0.431   1.138 -0.4424  0.2336  1.4321
48309SOL    HW254858  12.194   0.309   1.063  1.4883  0.8664 -0.9761
48310SOL     OW54859   5.765  12.491   9.195 -0.2713 -0.0997  0.2460
48310SOL    HW154860   5.713  12.549   9.140  0.2078  0.6059  0.5350
48310SOL    HW254861   5.743  12.403   9.164 -1.5004  0.1851  0.2295
48311SOL     OW54862   1.965   6.129  12.449 -1.1078  0.2179 -0.2584
48311SOL    HW154863   1.994   6.100  12.363 -2.3112 -1.4471 -0.1536
48311SOL    HW254864   1.899   6.195  12.432  0.7662  2.1219 -0.5240
48312SOL     OW54865  10.233   8.784   3.543 -0.0808 -0.6075  0.7188
48312SOL    HW154866  10.254   8.706   3.594 -0.4636 -0.8648  0.4914
48312SOL    HW254867  10.261   8.857   3.597 -1.1433 -0.8406  1.6299
48313SOL     OW54868   8.889   8.125   4.730  0.3309 -0.3668 -0.0617
48313SOL    HW154869   8.955   8.194   4.732  0.7665 -0.7731 -0.1491
48313SOL    HW254870   8.841   8.136   4.811  1.8030 -1.2908  1.0015
48314SOL     OW54871   2.126   1.562   5.672 -0.5062  0.0225  0.3369
48314SOL    HW154872   2.053   1.570   5.610 -0.0039 -0.0034 -0.2614
48314SOL    HW254873   2.202   1.593   5.624  0.2020 -1.5681  0.3684
48315SOL     OW54874   7.773   8.859   8.931  0.5041  0.2954  0.3867
48315SOL    HW154875   7.736   8.790   8.877  0.0566 -1.5348  2.8394
48315SOL    HW254876   7.816   8.918   8.869  0.1011 -1.6601 -1.8974
48316SOL     OW54877  10.353   6.919   5.643 -0.2388  0.6038  0.4292
48316SOL    HW154878  10.386   6.853   5.582 -1.9535 -0.9464  1.0739
48316SOL    HW254879  10.425   6.981   5.653  1.2081 -0.8046 -0.7350
48317SOL     OW54880   5.241   2.268   7.261 -0.7163 -0.6162  0.4290
48317SOL    HW154881   5.297   2.338   7.229 -1.4896 -0.1634  0.0271
48317SOL    HW254882   5.186   2.309   7.328 -1.4051 -0.7398 -0.0451
48318SOL     OW54883   0.725   0.956  12.353 -0.0976  0.1690 -0.3708
48318SOL    HW154884   0.696   0.868  12.378  0.7246 -0.2440 -0.8497
48318SOL    HW254885   0.659   0.987  12.291  0.5297 -0.8258 -1.5755
48319SOL     OW54886   0.518   8.898   4.436  0.2232  0.5339 -0.1694
48319SOL    HW154887   0.506   8.987   4.400 -0.5904  1.3943  2.0722
48319SOL    HW254888   0.430   8.862   4.440  0.3067  0.4327  0.8719
48320SOL     OW54889   4.637   8.433   8.282  0.3694  0.2778 -0.8167
48320SOL    HW154890   4.679   8.388   8.355  1.3799 -1.0343 -2.1492
48320SOL    HW254891   4.553   8.388   8.271  0.3557  0.2684 -0.6799
48321SOL     OW54892   5.703   9.318  11.736 -0.3555 -0.0937 -0.2489
48321SOL    HW154893   5.694   9.368  11.817  1.5984  1.3108 -0.8140
48321SOL    HW254894   5.630   9.256  11.738 -0.5738  0.1274  2.3878
48322SOL     OW54895   5.148   8.701  10.721  0.1812 -0.1717  0.5830
48322SOL    HW154896   5.099   8.634  10.768  0.1433  0.2615  1.1710
48322SOL    HW254897   5.096   8.718  10.643 -0.3541 -0.0669  0.9612
48323SOL     OW54898  11.271   5.468  11.853 -0.2547 -0.4469  0.3422
48323SOL    HW154899  11.303   5.406  11.788 -1.2432 -0.9656  0.3163
48323SOL    HW254900  11.268   5.552  11.807 -0.3692 -0.6903 -0.1073
48324SOL     OW54901  12.967   1.303   7.657 -0.4433  0.2518 -0.0178
48324SOL    HW154902  12.881   1.294   7.698 -0.0240  0.9264  1.0228
48324SOL    HW254903  12.990   1.395   7.666  0.9947 -0.1660  0.9714
48325SOL     OW54904  12.870   6.700   0.586  0.0457  0.3654  0.4083
48325SOL    HW154905  12.875   6.781   0.535  0.7060 -1.4479 -2.6382
48325SOL    HW254906  12.817   6.641   0.533 -1.7973 -0.8211  3.2903
48326SOL     OW54907   4.124  10.351   1.320 -0.2323 -0.7629 -0.2109
48326SOL    HW154908   4.049  10.317   1.368 -1.1698  0.0283 -1.0782
48326SOL    HW254909   4.162  10.275   1.276 -0.0068 -1.3093  0.8904
48327SOL     OW54910  11.652   1.014   5.336  0.1455  0.8383  0.1966
48327SOL    HW154911  11.632   0.924   5.309  1.3748  0.1780  1.3225
48327SOL    HW254912  11.609   1.069   5.271 -1.5975 -0.5303  0.1055
48328SOL     OW54913   0.950   2.483   3.967 -0.3180 -0.2724  0.1168
48328SOL    HW154914   0.892   2.407   3.975 -1.1903  0.4942  1.2923
48328SOL    HW254915   0.949   2.503   3.873 -0.9083 -1.0702 -0.0624
48329SOL     OW54916   8.010  12.864   7.970  0.5081  0.5721  0.0085
48329SOL    HW154917   7.955  12.911   8.032  0.0511  0.3844 -0.2577
48329SOL    HW254918   7.950  12.826   7.907  0.7589 -1.3792  0.8711
48330SOL     OW54919   9.621  10.569  11.321 -0.1276  0.1813  0.2569
48330SOL    HW154920   9.561  10.643  11.311 -1.5339 -1.0316 -0.6591
48330SOL    HW254921   9.685  10.599  11.386 -0.2442  2.4331 -0.5942
48331SOL     OW54922  11.461  10.496  12.177 -0.1397  0.5756  0.8219
48331SOL    HW154923  11.539  10.462  12.133  0.3155  0.4542  1.6876
48331SOL    HW254924  11.482  10.587  12.195  0.2444  0.2805  1.9727
48332SOL     OW54925  11.018   6.322   6.808 -0.2447  0.0464  0.0089
48332SOL    HW154926  11.059   6.388   6.863 -0.2908 -0.7243  0.9973
48332SOL    HW254927  11.090   6.285   6.757  0.0808 -0.3387  0.7302
48333SOL     OW54928   1.335   4.545   8.188 -0.5675  0.1375 -0.5293
48333SOL    HW154929   1.415   4.573   8.144 -1.0800 -1.2997 -2.5083
48333SOL    HW254930   1.265   4.571   8.129 -1.4741  0.1565  0.5290
48334SOL     OW54931   5.093   1.702   7.207  0.0830  0.8614 -0.3431
48334SOL    HW154932   5.058   1.672   7.290  1.2403 -1.8823 -0.7316
48334SOL    HW254933   5.028   1.765   7.174 -2.0277 -0.4370  1.1163
48335SOL     OW54934   8.835   2.491   4.645 -0.5674 -0.2249  0.2523
48335SOL    HW154935   8.868   2.405   4.620  0.6458 -0.3403  2.0802
48335SOL    HW254936   8.749   2.474   4.684  0.1697 -0.7845  1.6841
48336SOL     OW54937   3.368   7.633   2.973  0.8162  0.4156 -0.2103
48336SOL    HW154938   3.431   7.569   2.940  1.0149  0.5162 -0.0284
48336SOL    HW254939   3.283   7.592   2.960  0.8139  0.8247 -1.7029
48337SOL     OW54940   6.751   5.467  12.827  0.3537 -0.0913  0.3212
48337SOL    HW154941   6.674   5.522  12.842 -0.1786 -0.1250 -1.8982
48337SOL    HW254942   6.715   5.382  12.800  1.1042  0.0745 -1.3518
48338SOL     OW54943   8.622  12.865   1.488 -0.2275  0.5655 -0.4037
48338SOL    HW154944   8.602  12.806   1.560  1.8047  0.0273 -0.2291
48338SOL    HW254945   8.603  12.953   1.522  1.2238  0.3644  0.9931
48339SOL     OW54946   4.834   7.241   8.186  0.1165  0.5388 -0.0189
48339SOL    HW154947   4.909   7.271   8.133  2.1203  3.0212  3.7359
48339SOL    HW254948   4.874   7.187   8.254 -1.9513 -0.3752  0.5201
48340SOL     OW54949   4.537   3.859   4.072 -0.3899  0.4180 -0.0074
48340SOL    HW154950   4.560   3.942   4.030  2.1596  0.1011  0.5691
48340SOL    HW254951   4.605   3.847   4.139 -1.1899 -1.7201  0.5004
48341SOL     OW54952   3.003   0.626   6.862 -0.2577 -0.0931  0.3249
48341SOL    HW154953   2.988   0.714   6.896 -1.6192 -0.5545  1.0361
48341SOL    HW254954   2.969   0.629   6.773 -0.2779  0.1217  0.3383
48342SOL     OW54955   1.904  12.081  12.712  0.5607  0.4111  0.0120
48342SOL    HW154956   1.845  12.154  12.694  1.1201  0.7573 -0.4288
48342SOL    HW254957   1.928  12.048  12.626 -0.7632 -1.1946  0.2048
48343SOL     OW54958  12.356   3.712   6.274 -0.0663 -0.0153  0.4984
48343SOL    HW154959  12.388   3.636   6.322 -0.0817 -1.6049 -1.8530
48343SOL    HW254960  12.261   3.702   6.274 -0.0269 -0.5301 -0.5680
48344SOL     OW54961   8.713   3.272   2.272 -0.6543  0.8446 -0.1662
48344SOL    HW154962   8.649   3.283   2.343 -0.5429  0.9483 -0.0816
48344SOL    HW254963   8.786   3.329   2.296 -0.1674  0.1020  0.1511
48345SOL     OW54964   9.977  10.717  11.330 -0.0430 -0.2416 -0.2481
48345SOL    HW154965  10.062  10.738  11.293  0.7408  0.4214  1.7630
48345SOL    HW254966   9.914  10.765  11.277  1.0486  0.9590 -0.4954
48346SOL     OW54967   3.845   4.578   1.650 -0.0218 -0.1854  0.6937
48346SOL    HW154968   3.764   4.615   1.685 -0.5351 -0.9800  0.3642
48346SOL    HW254969   3.827   4.561   1.558 -0.7250 -3.5549  1.2975
48347SOL     OW54970  12.713   0.663   8.471  0.0450 -0.0521 -0.5827
48347SOL    HW154971  12.724   0.680   8.565 -0.9677 -1.0222 -0.2771
48347SOL    HW254972  12.657   0.734   8.440  1.1779  0.8414 -0.6913
48348SOL     OW54973   6.939  10.360   2.179  0.3526  0.4609 -0.1203
48348SOL    HW154974   6.847  10.385   2.173  0.5614  1.4914  0.7325
48348SOL    HW254975   6.949  10.324   2.267  1.4727  3.6152  1.1695
48349SOL     OW54976  10.221   7.382  13.281 -0.5338  0.5674  0.2682
48349SOL    HW154977  10.132   7.360  13.309 -0.5978  0.0843 -0.2902
48349SOL    HW254978  10.276   7.362  13.357 -0.6865 -0.8428  0.0408
48350SOL     OW54979  10.907   3.686   7.998 -0.0330  0.2319 -0.0289
48350SOL    HW154980  10.901   3.613   8.060  0.4934  0.9008  0.8350
48350SOL    HW254981  10.960   3.751   8.044  2.6814 -0.2919 -2.1714
48351SOL     OW54982  10.089  10.615   7.180 -0.4182  0.0078  0.0891
48351SOL    HW154983  10.156  10.550   7.161 -1.2913 -0.6691 -0.7935
48351SOL    HW254984  10.082  10.617   7.275  0.4412 -0.3315  0.1610
48352SOL     OW54985   9.964   0.633   6.219 -0.0339  0.3809 -0.3862
48352SOL    HW154986   9.933   0.698   6.156 -1.1682 -0.1707 -0.4189
48352SOL    HW254987   9.898   0.564   6.217  0.6017 -0.2742  0.4335
48353SOL     OW54988  12.720   8.283   1.786 -0.1723  0.0093 -0.1032
48353SOL    HW154989  12.735   8.360   1.732  0.6158  0.8643  1.2734
48353SOL    HW254990  12.796   8.227   1.772 -0.1586  0.0486 -0.1809
48354SOL     OW54991   7.430   1.671   1.844  0.0873 -1.1193 -0.0186
48354SOL    HW154992   7.366   1.742   1.851 -0.4908 -1.6465  0.2406
48354SOL    HW254993   7.394   1.602   1.901  1.4088 -1.0496  0.9335
48355SOL     OW54994   4.825   4.155  13.229 -1.2124 -0.0925 -0.3278
48355SOL    HW154995   4.764   4.160  13.156 -0.8463  1.2686 -0.5760
48355SOL    HW254996   4.868   4.241  13.230 -1.1401 -0.1097  1.4165
48356SOL     OW54997   6.145   9.723   9.548  0.3873  0.0812 -0.2760
48356SOL    HW154998   6.102   9.648   9.589  2.1585 -0.6830  0.2641
48356SOL    HW254999   6.187   9.769   9.621  0.3578  0.9133 -0.7662
48357SOL     OW55000   0.099   6.150   1.083 -0.0512 -0.2674 -0.0759
48357SOL    HW155001   0.112   6.243   1.097  1.6919 -0.4497 -0.2328
48357SOL    HW255002   0.064   6.117   1.166 -0.1082  0.4132  0.1742
48358SOL     OW55003  10.188  10.078  13.008 -0.1282  0.0780 -0.1656
48358SOL    HW155004  10.218  10.099  12.920  1.3814 -0.1375  0.2672
48358SOL    HW255005  10.247  10.009  13.038 -1.5120 -0.8863  0.5043
48359SOL     OW55006   1.224   9.088   3.070  0.1794 -0.6053 -0.1629
48359SOL    HW155007   1.304   9.040   3.092 -0.7711 -2.3568 -0.3403
48359SOL    HW255008   1.252   9.155   3.008  1.5036 -1.2415 -0.2770
48360SOL     OW55009   5.846   0.071  12.912 -0.9975 -0.1556  0.2432
48360SOL    HW155010   5.793   0.089  12.834 -0.0869 -0.1888 -0.4055
48360SOL    HW255011   5.795   0.008  12.962 -1.4989 -0.3007 -0.4435
48361SOL     OW55012   7.146   1.794   2.374  0.1974  0.4849  0.4073
48361SOL    HW155013   7.193   1.850   2.312 -0.2036  0.2085 -0.1493
48361SOL    HW255014   7.214   1.761   2.433  0.8878 -0.7004 -0.9821
48362SOL     OW55015   1.368   5.136   3.280  0.0029  0.5244 -0.3756
48362SOL    HW155016   1.297   5.199   3.269 -1.0039 -0.9632 -3.1137
48362SOL    HW255017   1.326   5.051   3.274  1.5692 -0.4873  1.6371
48363SOL     OW55018   1.783   3.205  10.251 -0.4792  0.2359  0.9337
48363SOL    HW155019   1.846   3.174  10.316  0.5013  0.5209  0.1406
48363SOL    HW255020   1.702   3.158  10.272  0.3141 -1.0482  1.2513
48364SOL     OW55021  12.738   5.759   1.622 -0.3068 -0.0780  0.0459
48364SOL    HW155022  12.735   5.665   1.606  0.1382 -0.2294  0.8092
48364SOL    HW255023  12.690   5.772   1.704 -0.6253  0.3970 -0.2105
48365SOL     OW55024   5.787  11.824   1.990  0.2858 -0.3257  0.2319
48365SOL    HW155025   5.780  11.729   1.993  1.2596 -0.4005  2.1132
48365SOL    HW255026   5.785  11.851   2.082 -0.8404  1.5678 -0.2813
48366SOL     OW55027   5.139   8.589   7.706  0.1132  0.2596  0.6235
48366SOL    HW155028   5.126   8.678   7.739  0.0778  0.4416  0.1301
48366SOL    HW255029   5.086   8.534   7.763 -0.8857  0.7030  0.1548
48367SOL     OW55030   2.555   1.633   2.170 -0.3948 -0.6491  0.0348
48367SOL    HW155031   2.601   1.622   2.253 -0.3028 -0.9551 -0.0553
48367SOL    HW255032   2.484   1.694   2.190 -0.0931 -0.3533  0.2274
48368SOL     OW55033   9.204  10.387   9.203  0.0261  0.1074 -0.1555
48368SOL    HW155034   9.254  10.384   9.284  0.1912  1.8024 -0.1658
48368SOL    HW255035   9.114  10.405   9.230 -0.1796 -0.6828 -0.2817
48369SOL     OW55036   5.741   8.050  12.638 -0.0322  1.2764  0.2259
48369SOL    HW155037   5.752   7.964  12.597  0.3885  0.6510  1.5858
48369SOL    HW255038   5.651   8.075  12.617  0.3936  1.3768 -1.7133
48370SOL     OW55039   9.592   4.194  12.954 -0.1308 -0.2346  0.0534
48370SOL    HW155040   9.645   4.146  13.017 -0.2612 -0.3606  0.0697
48370SOL    HW255041   9.507   4.149  12.956 -0.8347  1.0730  1.3685
48371SOL     OW55042  12.934  12.892   7.270 -0.1308 -0.5062  0.0545
48371SOL    HW155043  12.890  12.811   7.246 -1.1787  0.5721 -1.9253
48371SOL    HW255044  12.995  12.909   7.198 -0.6487  0.9400 -0.0798
48372SOL     OW55045  12.917  11.136   8.946  0.2466 -0.5203  0.1603
48372SOL    HW155046  13.010  11.148   8.926 -0.1363  0.2583 -1.3413
48372SOL    HW255047  12.881  11.225   8.942 -0.7687 -0.9444 -0.4509
48373SOL     OW55048   6.128   3.666   3.905 -0.4687 -0.1683 -0.1875
48373SOL    HW155049   6.192   3.716   3.956 -0.7504  0.8571 -0.8134
48373SOL    HW255050   6.132   3.577   3.941  0.9673 -0.0050  0.0895
48374SOL     OW55051   6.311   2.336  12.225  0.1793  0.1524  0.2772
48374SOL    HW155052   6.331   2.372  12.139 -1.3011 -1.9458 -1.0573
48374SOL    HW255053   6.389   2.286  12.249 -0.4397 -1.8064 -1.3935
48375SOL     OW55054   7.246   4.073   0.948  0.7542  0.0936  0.5143
48375SOL    HW155055   7.199   4.125   0.884  0.8779  2.0248  1.8913
48375SOL    HW255056   7.339   4.090   0.929  0.7995  0.1388  0.7653
48376SOL     OW55057   8.109   8.049   2.437  0.0939  0.2204  0.1073
48376SOL    HW155058   8.064   8.044   2.522 -0.5511  1.2935 -0.1421
48376SOL    HW255059   8.200   8.071   2.460  0.1230 -0.3436  0.5510
48377SOL     OW55060   0.909   6.324   2.475 -0.4366  0.0496 -0.3771
48377SOL    HW155061   0.844   6.394   2.485 -1.3299 -0.7659 -0.3320
48377SOL    HW255062   0.910   6.280   2.560  0.1789  0.0450 -0.3803
48378SOL     OW55063  12.045   4.710  10.116  0.0483  0.4999  0.1630
48378SOL    HW155064  12.057   4.694  10.209  1.5822 -0.2047 -0.1346
48378SOL    HW255065  11.973   4.651  10.091  1.5743 -1.5566  0.3349
48379SOL     OW55066   6.388   6.378  10.997 -0.5458 -0.8474 -0.5282
48379SOL    HW155067   6.440   6.309  10.957 -1.0000 -2.1182  0.9575
48379SOL    HW255068   6.301   6.368  10.959 -0.8193 -1.6541  0.2732
48380SOL     OW55069  11.973   2.332  11.453  0.3108 -0.0734  0.4892
48380SOL    HW155070  11.912   2.267  11.419  1.2078 -1.9697  2.3078
48380SOL    HW255071  12.043   2.335  11.388  0.2839 -0.9902  0.4019
48381SOL     OW55072  11.175  13.078  12.095 -0.2625  0.3921  0.0189
48381SOL    HW155073  11.166  12.986  12.069 -2.4875  0.1296  1.4687
48381SOL    HW255074  11.210  13.121  12.017  1.9301 -1.8140 -0.3659
48382SOL     OW55075   3.727   6.100   3.168 -0.0095  0.0325  0.3570
48382SOL    HW155076   3.723   6.183   3.215 -0.4235 -0.5106  1.3144
48382SOL    HW255077   3.803   6.055   3.205 -0.5713 -0.5656  0.8093
48383SOL     OW55078   5.921   9.561   3.504 -0.2408  0.3761 -0.5519
48383SOL    HW155079   6.004   9.585   3.545  0.6139 -1.2359 -1.2729
48383SOL    HW255080   5.904   9.633   3.442  1.0687  0.3133 -1.0192
48384SOL     OW55081   5.984   8.264   5.431 -0.6875  0.1200  0.3809
48384SOL    HW155082   5.987   8.215   5.349 -1.4887 -0.3454  0.6155
48384SOL    HW255083   6.040   8.215   5.491  1.7566  1.6721 -0.4739
48385SOL     OW55084   2.631   0.939   5.191  0.2252  0.3961  0.1189
48385SOL    HW155085   2.553   0.893   5.162  0.4821  0.4823 -0.7506
48385SOL    HW255086   2.703   0.878   5.176  0.5294  0.9429 -0.7452
48386SOL     OW55087   4.615   0.240   8.652 -0.5897  0.1861 -0.4286
48386SOL    HW155088   4.684   0.174   8.657  0.0623  0.9339  1.6103
48386SOL    HW255089   4.609   0.263   8.560  1.4051 -0.3948 -0.7328
48387SOL     OW55090   8.174   2.045  13.027 -0.0106 -0.5314  1.0169
48387SOL    HW155091   8.131   1.960  13.032 -0.7805 -0.2639 -0.5461
48387SOL    HW255092   8.110   2.107  13.062  0.3108 -0.4948  1.5657
48388SOL     OW55093   3.900   1.313  11.061  0.0025 -0.0149  0.4438
48388SOL    HW155094   3.937   1.321  11.148 -0.8731  0.4075  0.7942
48388SOL    HW255095   3.850   1.232  11.062 -1.3586  0.7993  0.8795
48389SOL     OW55096   6.795   5.293   1.182 -0.6387 -0.5227  0.2538
48389SOL    HW155097   6.775   5.319   1.092  1.9002  0.6809 -0.0504
48389SOL    HW255098   6.710   5.281   1.223 -1.8965  1.3332 -1.6153
48390SOL     OW55099   5.648   7.857   7.110  0.6241  0.0071  0.0858
48390SOL    HW155100   5.588   7.906   7.055  1.6611  0.6654 -0.4854
48390SOL    HW255101   5.735   7.887   7.085  1.2311 -1.2010  0.6169
48391SOL     OW55102   4.909   7.861   2.173  0.1359 -0.1120 -0.3882
48391SOL    HW155103   5.002   7.876   2.157 -0.0105  1.2339 -0.0596
48391SOL    HW255104   4.886   7.923   2.242 -0.6152 -1.6319  0.7972
48392SOL     OW55105  12.115   4.231   9.370  0.2639  0.2134 -0.8677
48392SOL    HW155106  12.116   4.150   9.320  0.0520 -0.4140  0.1015
48392SOL    HW255107  12.028   4.232   9.411  0.9448 -0.0911  0.6905
48393SOL     OW55108   9.852   0.613   3.163  0.1010 -0.7260 -0.0692
48393SOL    HW155109   9.904   0.582   3.237 -1.9878  0.8318  2.2019
48393SOL    HW255110   9.789   0.543   3.146  0.2608 -0.8820 -0.0165
48394SOL     OW55111   4.671   9.177   0.357  0.1688  0.6376 -0.1903
48394SOL    HW155112   4.636   9.174   0.446  1.2123  3.1490  0.3878
48394SOL    HW255113   4.640   9.260   0.321  0.8045  0.2575 -1.7051
48395SOL     OW55114   4.742   9.345   6.181  0.2041 -0.7188  0.1885
48395SOL    HW155115   4.817   9.287   6.171  0.6521  0.2194 -3.1249
48395SOL    HW255116   4.780   9.433   6.188 -0.5412 -0.2878 -0.9102
48396SOL     OW55117   3.441   8.982   7.333  0.3820 -0.0272 -0.0905
48396SOL    HW155118   3.458   8.974   7.239  0.7939 -0.4291  0.0144
48396SOL    HW255119   3.490   8.910   7.372  1.4541  1.0265  0.5884
48397SOL     OW55120   6.470   8.090   4.060 -0.3635  0.7155 -0.2490
48397SOL    HW155121   6.505   8.169   4.102  1.1131 -0.3732  0.6619
48397SOL    HW255122   6.429   8.041   4.131 -2.3539  1.1611 -1.0131
48398SOL     OW55123  10.185  10.650  12.974 -0.2298  0.4557  0.3041
48398SOL    HW155124  10.244  10.588  13.017  0.7284  1.0690 -0.1028
48398SOL    HW255125  10.126  10.596  12.923  0.3425 -0.1423  0.2712
48399SOL     OW55126   1.829   3.461  11.059  0.1757 -0.2116  0.3981
48399SOL    HW155127   1.809   3.462  11.153  0.7498  0.8044  0.5160
48399SOL    HW255128   1.915   3.419  11.053  0.0202 -0.5192  0.2972
48400SOL     OW55129   6.180  12.414  12.326  0.0799  0.3787 -0.4124
48400SOL    HW155130   6.247  12.391  12.261  1.0262 -0.1639  0.7298
48400SOL    HW255131   6.197  12.355  12.399 -0.6533  1.3233  0.5329
48401SOL     OW55132   7.778  13.249   9.681 -0.2622 -0.2632 -0.0433
48401SOL    HW155133   7.852  13.267   9.738  0.3373 -1.8304 -0.2885
48401SOL    HW255134   7.808  13.272   9.593 -0.5535  0.3976  0.0225
48402SOL     OW55135   2.359   2.799  12.665  0.1274 -0.4793 -0.1788
48402SOL    HW155136   2.271   2.833  12.648 -0.8697 -3.1214 -0.8199
48402SOL    HW255137   2.365   2.797  12.761 -0.4753 -0.1832 -0.1257
48403SOL     OW55138   3.965   8.257  12.349 -0.0142  0.0588 -0.1540
48403SOL    HW155139   3.984   8.180  12.402  1.6354 -0.0984 -0.9185
48403SOL    HW255140   4.009   8.329  12.395  1.2487 -0.0451 -1.1369
48404SOL     OW55141   5.324   5.824   0.353 -0.3463 -0.3217 -0.6038
48404SOL    HW155142   5.288   5.775   0.279 -0.3487 -0.7353 -0.3324
48404SOL    HW255143   5.357   5.756   0.412  0.8111  0.0448 -0.8054
48405SOL     OW55144   6.118   1.853   8.434 -0.5233 -0.1854  0.0757
48405SOL    HW155145   6.132   1.761   8.457  0.9660 -0.1286 -0.4812
48405SOL    HW255146   6.200   1.896   8.455 -1.4029  1.1602  0.8783
48406SOL     OW55147   6.767   2.194  11.327 -0.1559 -0.2638 -0.0006
48406SOL    HW155148   6.712   2.242  11.264 -1.1728 -2.5249 -0.9482
48406SOL    HW255149   6.789   2.113  11.282  1.3469 -0.7989  1.5997
48407SOL     OW55150  10.991   2.390  10.631  0.4198  0.5571  0.4283
48407SOL    HW155151  11.065   2.446  10.610  0.6206 -0.7361 -2.9337
48407SOL    HW255152  10.914   2.439  10.601  0.5564 -0.5932 -2.0524
48408SOL     OW55153   6.873   0.982  11.731 -0.2961 -0.1949 -0.1666
48408SOL    HW155154   6.929   1.054  11.703  0.4504 -0.3905  0.7473
48408SOL    HW255155   6.893   0.910  11.671 -0.6618  0.2003 -0.7602
48409SOL     OW55156   5.308   4.453   1.943  0.3550  0.6496 -0.1723
48409SOL    HW155157   5.273   4.542   1.944 -0.3319  0.3904 -0.5125
48409SOL    HW255158   5.386   4.457   1.999 -0.5530  1.1070  1.1133
48410SOL     OW55159   7.742   4.310   1.677 -0.5889  0.2028 -0.1742
48410SOL    HW155160   7.802   4.238   1.693 -0.4046  0.6823  1.4475
48410SOL    HW255161   7.769   4.378   1.739 -1.2828  1.3491 -1.0814
48411SOL     OW55162  13.018   4.594  11.322 -0.0265  0.3904 -0.2329
48411SOL    HW155163  13.061   4.628  11.243  1.1053  0.0380  0.2091
48411SOL    HW255164  12.986   4.507  11.296  1.1801 -0.1306 -0.0694
48412SOL     OW55165   1.618   4.550  13.264 -0.3233  0.2127  0.1389
48412SOL    HW155166   1.531   4.511  13.252 -0.4476  0.2716  0.8099
48412SOL    HW255167   1.676   4.475  13.281 -0.2826  0.1927 -0.0857
48413SOL     OW55168   9.223   4.186   1.419  0.8967 -0.4361  0.0883
48413SOL    HW155169   9.145   4.131   1.408  0.5058  0.3336 -1.1014
48413SOL    HW255170   9.257   4.162   1.505 -0.2399 -1.3063  0.3134
48414SOL     OW55171   2.460   0.203   1.112 -0.0527 -0.3021  0.1110
48414SOL    HW155172   2.396   0.141   1.076  0.4140 -0.7171 -0.0086
48414SOL    HW255173   2.527   0.148   1.153  1.0741  0.0664 -1.1796
48415SOL     OW55174  11.875   6.171   7.405  0.3097 -0.1199 -0.5023
48415SOL    HW155175  11.873   6.241   7.340  0.4216 -0.0389 -0.4202
48415SOL    HW255176  11.942   6.199   7.468  0.5322 -0.4223 -0.6019
48416SOL     OW55177   9.592   4.382   1.500 -0.3875  0.7117 -0.6163
48416SOL    HW155178   9.579   4.381   1.405 -0.3433  0.2417 -0.6220
48416SOL    HW255179   9.504   4.383   1.536 -0.4186  0.1168 -0.6629
48417SOL     OW55180   8.170   6.054   3.940 -0.1145  0.5535  0.0844
48417SOL    HW155181   8.099   6.054   4.004 -2.4349 -0.2308 -2.3219
48417SOL    HW255182   8.196   6.145   3.934 -0.4419  0.7701  1.4808
48418SOL     OW55183   2.725   6.476   1.573  0.4669 -0.3538  0.3903
48418SOL    HW155184   2.775   6.396   1.589 -1.4597 -1.2130  2.9782
48418SOL    HW255185   2.635   6.446   1.563 -0.6850  1.5017  3.6823
48419SOL     OW55186   1.973  11.558   0.683 -0.2821  0.4372 -0.2054
48419SOL    HW155187   1.969  11.581   0.776 -0.6380  0.8325 -0.3091
48419SOL    HW255188   2.052  11.601   0.650  0.4947 -0.6984  0.1665
48420SOL     OW55189   7.617   5.348   1.726 -0.2285 -0.2761  0.3816
48420SOL    HW155190   7.569   5.318   1.649 -1.6414  0.8504  0.7714
48420SOL    HW255191   7.670   5.273   1.753  1.5679 -0.2412 -2.5872
48421SOL     OW55192   4.038  10.024   4.225 -0.2175 -0.4422  0.0599
48421SOL    HW155193   4.099   9.960   4.261 -0.4485  0.8221  3.0264
48421SOL    HW255194   4.091  10.078   4.166  0.8346 -1.0963  0.3908
48422SOL     OW55195  13.227   3.645   3.717 -0.3775  0.0512 -0.2316
48422SOL    HW155196  13.137   3.621   3.739 -0.2146  1.3149  2.1522
48422SOL    HW255197  13.221   3.683   3.629 -2.0947 -0.2450 -0.2676
48423SOL     OW55198  11.720   7.261   9.625 -0.0916  0.2993  0.6305
48423SOL    HW155199  11.674   7.212   9.558  3.1539 -1.3178 -0.6387
48423SOL    HW255200  11.742   7.345   9.583  1.3843 -0.4632 -0.1979
48424SOL     OW55201  12.643   0.573   5.082 -0.1568 -0.1906  0.2105
48424SOL    HW155202  12.685   0.499   5.126 -1.0993 -0.7161  0.2598
48424SOL    HW255203  12.616   0.538   4.997  0.4915  0.4523 -0.2679
48425SOL     OW55204   5.054   8.568   1.754  0.5657  0.7445  0.4389
48425SOL    HW155205   5.126   8.600   1.807  0.8860 -0.6086  0.8604
48425SOL    HW255206   5.081   8.480   1.727  0.0969  1.1169 -1.3723
48426SOL     OW55207   2.984  12.465   7.402  0.0371 -0.3300  0.1253
48426SOL    HW155208   2.962  12.558   7.398  0.7019  0.0094  2.7898
48426SOL    HW255209   2.899  12.421   7.411 -0.1927  0.1238  0.2178
48427SOL     OW55210   4.112   9.333  11.807  0.4190 -0.2965  0.0128
48427SOL    HW155211   4.198   9.375  11.815 -0.3406  1.2865  0.3257
48427SOL    HW255212   4.084   9.319  11.897 -0.0111 -0.0101 -0.0730
48428SOL     OW55213   7.441   7.695  11.723  0.0757 -0.1277  0.8322
48428SOL    HW155214   7.494   7.694  11.644 -0.1727  0.6472  0.6504
48428SOL    HW255215   7.486   7.634  11.783  0.3780 -0.5556  0.1829
48429SOL     OW55216  10.475   5.490   7.847 -0.9285 -1.0984 -0.2974
48429SOL    HW155217  10.486   5.489   7.751 -0.2732  0.8896 -0.2834
48429SOL    HW255218  10.562   5.467   7.880 -0.1018  1.7977 -0.2236
48430SOL     OW55219   6.200   6.239   0.909  0.1986 -0.1756 -0.6594
48430SOL    HW155220   6.125   6.180   0.910  1.5546 -1.9969  1.0546
48430SOL    HW255221   6.255   6.210   0.982  2.7791  0.7939 -2.0662
48431SOL     OW55222   3.066   3.244  10.306  0.2528 -0.1780 -0.0525
48431SOL    HW155223   2.993   3.268  10.362  1.0769  0.3165  0.8464
48431SOL    HW255224   3.079   3.150  10.322 -1.0720 -0.6216 -1.3166
48432SOL     OW55225   8.892  11.717   4.712  0.1302 -0.1476  0.1252
48432SOL    HW155226   8.861  11.642   4.662  3.6435  0.1926 -3.0258
48432SOL    HW255227   8.958  11.681   4.772 -1.2721 -0.0110  1.8508
48433SOL     OW55228  12.036   9.114   6.489  0.1296  0.0015  0.2121
48433SOL    HW155229  12.004   9.180   6.551 -3.9140 -1.0500 -0.4263
48433SOL    HW255230  11.988   9.034   6.513  2.7506 -2.0460 -0.7743
48434SOL     OW55231   7.279   6.786  11.549 -0.4210 -0.4946 -0.3438
48434SOL    HW155232   7.262   6.703  11.504  0.6155 -0.6725 -0.4306
48434SOL    HW255233   7.234   6.851  11.495 -3.0421 -1.1952  0.8632
48435SOL     OW55234   2.208   0.980   2.470 -0.3930 -0.3596  0.4877
48435SOL    HW155235   2.175   0.914   2.409  2.3255 -0.6437 -0.8131
48435SOL    HW255236   2.249   0.930   2.540  3.4390 -0.3311 -1.4621
48436SOL     OW55237   5.339   8.413  11.213  0.3054  0.0388 -0.8710
48436SOL    HW155238   5.281   8.456  11.276  1.7814 -0.2056  0.7338
48436SOL    HW255239   5.400   8.482  11.185  0.6533 -0.2228 -0.7771
48437SOL     OW55240   5.342   7.825  13.009 -0.0342  0.0203 -0.9469
48437SOL    HW155241   5.417   7.789  12.962  1.0820  0.8589  0.1614
48437SOL    HW255242   5.371   7.909  13.042 -0.8054 -0.4622  1.1266
48438SOL     OW55243   4.817   3.256   7.143 -0.2223  0.6376  0.6173
48438SOL    HW155244   4.859   3.192   7.201  1.7284 -2.0155 -3.2706
48438SOL    HW255245   4.723   3.235   7.150  0.0897 -0.5886  1.6608
48439SOL     OW55246   2.837   9.707   8.775  0.9827 -0.1721  0.3477
48439SOL    HW155247   2.926   9.672   8.774  0.9662 -0.2162 -0.0389
48439SOL    HW255248   2.796   9.666   8.851  1.0747 -0.7198  0.1120
48440SOL     OW55249   6.882   1.441   3.354 -0.0123 -0.1431  0.1695
48440SOL    HW155250   6.902   1.420   3.263 -1.3671 -0.0127 -0.1783
48440SOL    HW255251   6.894   1.358   3.401 -0.2454 -0.4458 -0.3018
48441SOL     OW55252  10.702   1.691   5.322  0.0461  0.6717 -0.5988
48441SOL    HW155253  10.781   1.638   5.309 -1.4709 -2.0757  0.5665
48441SOL    HW255254  10.674   1.714   5.234  2.1619  1.8417 -1.0344
48442SOL     OW55255   0.032  11.771   3.797 -0.2147 -0.5895 -0.2903
48442SOL    HW155256   0.117  11.814   3.791 -0.4930 -0.1804 -1.6482
48442SOL    HW255257  -0.008  11.785   3.711 -1.3872 -1.3323  0.1125
48443SOL     OW55258  10.499  10.394  11.610  0.2970 -0.8747 -0.3745
48443SOL    HW155259  10.490  10.300  11.625 -2.2917 -1.1081 -2.7467
48443SOL    HW255260  10.429  10.433  11.662 -0.4387 -0.5421 -1.5946
48444SOL     OW55261   2.258   6.521   7.885 -0.1959 -0.3611 -0.1825
48444SOL    HW155262   2.345   6.561   7.874 -0.4946  0.7148  1.0602
48444SOL    HW255263   2.239   6.482   7.800  1.1248  0.1699 -0.7574
48445SOL     OW55264   5.523   8.416   5.833  0.3045 -0.3031  0.6934
48445SOL    HW155265   5.603   8.445   5.877  2.1258 -1.9543 -1.2794
48445SOL    HW255266   5.527   8.455   5.746 -0.8434 -0.7322  0.4247
48446SOL     OW55267   4.974  11.665   2.672  0.3491 -0.4649 -0.6065
48446SOL    HW155268   5.030  11.715   2.732 -0.6529 -0.0421  0.0133
48446SOL    HW255269   5.035  11.617   2.617  1.3991  1.7705 -1.5292
48447SOL     OW55270   7.397   9.142   9.509 -0.1729  0.0206  0.2508
48447SOL    HW155271   7.427   9.229   9.537  0.8746  0.6822 -2.5930
48447SOL    HW255272   7.344   9.160   9.431  0.1828 -1.9079 -0.4681
48448SOL     OW55273   3.870   1.191   6.108 -0.3950 -0.2964  0.1748
48448SOL    HW155274   3.851   1.187   6.015  0.9953 -0.6623 -0.1112
48448SOL    HW255275   3.897   1.282   6.123  3.2717 -1.1220 -0.6339
48449SOL     OW55276   1.173   7.983   9.172 -0.0499  0.0061  0.0585
48449SOL    HW155277   1.138   8.009   9.257  0.1500 -0.5530  0.3214
48449SOL    HW255278   1.266   7.969   9.188 -0.2411 -1.4128  0.0855
48450SOL     OW55279   7.506  12.204   7.620  0.5041 -0.2877 -0.0611
48450SOL    HW155280   7.458  12.126   7.594  0.8731 -1.2083  1.8533
48450SOL    HW255281   7.595  12.172   7.639  0.3419  0.3061  1.9656
48451SOL     OW55282   4.422   0.324   1.564 -0.5795 -0.0430 -0.1275
48451SOL    HW155283   4.330   0.348   1.552 -1.1564 -2.0877 -0.1603
48451SOL    HW255284   4.423   0.276   1.647  0.8760  1.7491  0.9799
48452SOL     OW55285   0.607   8.740   1.738  0.3048 -0.6965 -0.0618
48452SOL    HW155286   0.692   8.763   1.700  0.6282 -0.4421  0.7887
48452SOL    HW255287   0.560   8.824   1.745  0.4840 -0.6495  0.6495
48453SOL     OW55288   8.837   9.543  10.651  0.4584 -1.0299 -0.8190
48453SOL    HW155289   8.857   9.496  10.732 -3.3386  1.5260  1.9873
48453SOL    HW255290   8.886   9.626  10.658 -1.1047 -0.1113 -0.1984
48454SOL     OW55291  11.201   6.464   8.177  0.4007  0.3943  0.2202
48454SOL    HW155292  11.119   6.509   8.156 -0.4836 -1.1119  0.2975
48454SOL    HW255293  11.254   6.472   8.098 -0.4778 -0.0047 -0.4236
48455SOL     OW55294   4.251   5.047   3.218 -0.0608 -0.0199 -0.3361
48455SOL    HW155295   4.240   4.959   3.181  3.6621 -2.1728  2.8950
48455SOL    HW255296   4.342   5.069   3.197 -0.1456  1.9041  1.1493
48456SOL     OW55297   0.372   2.628  11.601 -0.5671 -0.3281 -0.0371
48456SOL    HW155298   0.407   2.541  11.581 -0.6146 -0.5367  0.7754
48456SOL    HW255299   0.445   2.676  11.639 -0.9268 -0.4974  0.8889
48457SOL     OW55300   5.797  11.858  12.686  0.2638  0.0324 -0.3460
48457SOL    HW155301   5.783  11.884  12.777  1.1972 -2.2601  0.5286
48457SOL    HW255302   5.751  11.775  12.676  1.2440 -0.4130 -1.5650
48458SOL     OW55303   6.026   1.962   2.932 -0.2179  0.1297 -0.1894
48458SOL    HW155304   6.026   2.056   2.918 -0.2780  0.2531  0.5798
48458SOL    HW255305   5.937   1.942   2.961  0.2541  0.1356  1.3926
48459SOL     OW55306  12.635   4.126   1.285 -0.2439  0.7021 -0.0165
48459SOL    HW155307  12.673   4.211   1.306  0.1552  0.0636  2.1099
48459SOL    HW255308  12.611   4.089   1.370 -2.5124 -0.3700 -1.0446
48460SOL     OW55309  13.017   2.336   0.251 -0.1443 -0.0363  0.5678
48460SOL    HW155310  13.057   2.396   0.187 -0.7999 -1.3728 -1.1534
48460SOL    HW255311  12.925   2.363   0.255 -0.2805 -0.4702  0.3451
48461SOL     OW55312   5.818   2.581   4.672 -0.4424  0.8896  0.6340
48461SOL    HW155313   5.728   2.608   4.691 -0.6849  1.8976 -1.6312
48461SOL    HW255314   5.842   2.631   4.594  1.1759 -1.2162 -0.3280
48462SOL     OW55315   5.331   8.449  10.639  0.2884  0.7760  0.0174
48462SOL    HW155316   5.364   8.504  10.568  2.0441  0.2171  0.3645
48462SOL    HW255317   5.395   8.459  10.709  0.5634 -1.4908  0.1821
48463SOL     OW55318   5.633   2.901   3.224 -0.2483  0.1034 -0.2246
48463SOL    HW155319   5.613   2.879   3.133 -0.6455 -1.5328  0.2305
48463SOL    HW255320   5.611   2.994   3.232  0.1953  0.3842 -1.8925
48464SOL     OW55321   4.485   8.945   0.900 -0.2283 -0.1470 -0.3458
48464SOL    HW155322   4.393   8.970   0.908 -0.3330 -0.6203 -0.0345
48464SOL    HW255323   4.508   8.910   0.986 -0.0039 -0.8372 -0.6837
48465SOL     OW55324   2.287   6.960   7.897  0.1492  0.4961  0.1935
48465SOL    HW155325   2.283   7.049   7.860 -4.2179  0.5743  0.3895
48465SOL    HW255326   2.200   6.946   7.935  0.6272 -3.9371  0.0956
48466SOL     OW55327  12.508   7.881   2.842 -0.3542  0.2463 -0.1495
48466SOL    HW155328  12.462   7.958   2.808  0.5192  1.5004  1.3615
48466SOL    HW255329  12.440   7.826   2.878 -1.2873 -0.9532 -3.3861
48467SOL     OW55330   2.040  10.113   6.186 -0.1231  0.2781  0.6082
48467SOL    HW155331   2.105  10.052   6.223  0.3799  1.6941  2.1896
48467SOL    HW255332   1.985  10.136   6.261  0.9004  3.2320  0.5704
48468SOL     OW55333   3.295  11.764   6.028 -0.4664 -0.5034  0.1165
48468SOL    HW155334   3.352  11.822   6.077  0.5475 -1.0953 -0.3261
48468SOL    HW255335   3.291  11.684   6.081 -0.4626 -0.6564 -0.1143
48469SOL     OW55336   0.603  11.391  11.651  0.0644 -0.1216 -0.0866
48469SOL    HW155337   0.634  11.373  11.562 -1.9924 -0.0399 -0.8780
48469SOL    HW255338   0.509  11.408  11.640 -0.8713 -2.8712  2.4297
48470SOL     OW55339   6.838   6.110  12.261 -0.5052 -0.7507 -0.0033
48470SOL    HW155340   6.815   6.190  12.213 -2.5959 -0.5821  1.1108
48470SOL    HW255341   6.831   6.040  12.197 -2.0725 -0.3952 -0.2627
48471SOL     OW55342   1.655   9.284   0.293 -0.0865  0.2115  0.1216
48471SOL    HW155343   1.743   9.303   0.324  0.9607 -0.1421 -2.4310
48471SOL    HW255344   1.658   9.299   0.199 -2.2967 -1.4048 -0.3058
48472SOL     OW55345  11.722   0.811   8.623  0.0311  0.2436  0.3710
48472SOL    HW155346  11.803   0.854   8.651 -0.5567  1.2533  0.6064
48472SOL    HW255347  11.678   0.877   8.569 -1.3662  0.3472  1.5426
48473SOL     OW55348   3.992   5.669  11.692  0.6926 -0.7090 -0.4264
48473SOL    HW155349   3.917   5.633  11.738  1.4701 -0.7889  0.8220
48473SOL    HW255350   4.066   5.615  11.720  1.7163  1.1528  0.7129
48474SOL     OW55351   6.701  13.134  10.830  0.0539  0.7162 -0.8735
48474SOL    HW155352   6.663  13.217  10.860 -0.9705  0.4733 -1.4567
48474SOL    HW255353   6.726  13.089  10.911  1.3545  1.8975 -0.5706
48475SOL     OW55354   1.972   2.798  11.291  0.4829 -0.2225  0.2040
48475SOL    HW155355   2.038   2.733  11.265  1.3705 -0.4960  2.8194
48475SOL    HW255356   1.894   2.746  11.311  0.3153 -0.1784 -0.3212
48476SOL     OW55357  11.936  13.240   9.470 -0.0896 -0.0974 -0.1963
48476SOL    HW155358  11.962  13.259   9.380  0.2698  0.4535  0.0131
48476SOL    HW255359  11.848  13.204   9.463 -0.3637  0.6513 -0.7168
48477SOL     OW55360   7.489  13.212   3.696  0.4008  0.1640 -0.1797
48477SOL    HW155361   7.521  13.292   3.737  2.2018 -0.0520 -1.0598
48477SOL    HW255362   7.471  13.153   3.770 -1.2522  1.4285  0.4905
48478SOL     OW55363   6.452  12.689  11.758 -0.3238  0.1325  0.1318
48478SOL    HW155364   6.430  12.679  11.851 -1.2121  0.3191 -0.0483
48478SOL    HW255365   6.521  12.624  11.743 -0.8805 -0.6059  0.6914
48479SOL     OW55366   9.228   4.739   1.016  0.3995  0.5974 -0.1467
48479SOL    HW155367   9.241   4.760   0.923 -0.5533  1.0739 -0.1774
48479SOL    HW255368   9.192   4.650   1.015 -0.8587  1.0989 -0.3092
48480SOL     OW55369   5.841   0.059   0.229 -0.4173 -0.0383 -0.3422
48480SOL    HW155370   5.815   0.128   0.290  0.5814  0.0048  0.0616
48480SOL    HW255371   5.911   0.099   0.177 -1.3775 -0.0115 -1.6639
48481SOL     OW55372   4.398   2.159   1.254 -0.4266  0.5949  0.8177
48481SOL    HW155373   4.475   2.176   1.309 -0.2526  0.3513  0.6488
48481SOL    HW255374   4.337   2.229   1.277 -0.2774  0.6094  1.1781
48482SOL     OW55375   1.807   3.196   8.297  0.4236  0.2704  0.1793
48482SOL    HW155376   1.736   3.252   8.328  0.8562  0.1697  1.4127
48482SOL    HW255377   1.763   3.120   8.259 -0.2615  2.1450 -3.2289
48483SOL     OW55378  11.767   0.714  10.031  0.4966 -0.4942  0.3796
48483SOL    HW155379  11.682   0.735   9.992  0.7655 -0.0058  0.0620
48483SOL    HW255380  11.744   0.680  10.118  0.0531  1.2948  1.0010
48484SOL     OW55381   6.994  10.269  10.677  0.1531 -0.5628 -0.1766
48484SOL    HW155382   7.068  10.239  10.730  1.2513  1.1251 -0.6997
48484SOL    HW255383   6.945  10.327  10.734 -0.6290 -1.4393  0.0693
48485SOL     OW55384   7.586   0.394  12.498  0.8715  0.1814 -0.5190
48485SOL    HW155385   7.534   0.354  12.429  0.8754 -1.1576  0.2266
48485SOL    HW255386   7.531   0.388  12.576  1.1056  1.1442 -0.2598
48486SOL     OW55387   3.624   9.620   6.568  0.4098  0.5485 -0.0476
48486SOL    HW155388   3.648   9.641   6.478  1.4365  2.4750  0.6033
48486SOL    HW255389   3.564   9.690   6.593 -1.2746 -0.9433  0.2505
48487SOL     OW55390  13.225   7.689  11.049 -0.0126 -0.1547  0.4684
48487SOL    HW155391  13.133   7.679  11.027 -0.4152  1.4928  1.2141
48487SOL    HW255392  13.226   7.699  11.145  0.7510  1.2903  0.3398
48488SOL     OW55393   2.655   8.143   9.286  0.7457  0.3030  0.4473
48488SOL    HW155394   2.680   8.214   9.345  1.1692  1.1589 -0.7268
48488SOL    HW255395   2.737   8.113   9.247  0.5797 -0.9010  0.9828
48489SOL     OW55396   3.157   4.784   1.724 -0.1138 -0.0442 -0.4231
48489SOL    HW155397   3.237   4.765   1.675 -0.1125  1.6906 -1.1687
48489SOL    HW255398   3.088   4.743   1.672  0.3009 -2.0071  0.5012
48490SOL     OW55399   0.276  10.359   2.412  0.0992 -0.4589  0.4350
48490SOL    HW155400   0.368  10.363   2.385 -0.2970  0.0790 -0.8744
48490SOL    HW255401   0.260  10.444   2.454 -0.4678  0.5149 -1.6352
48491SOL     OW55402  12.569   0.039   2.006 -0.3690 -0.4591 -0.1495
48491SOL    HW155403  12.569   0.075   1.917 -2.5902 -0.0441 -0.0400
48491SOL    HW255404  12.662   0.027   2.027  0.2396  0.2858 -2.1687
48492SOL     OW55405  13.289   1.367   6.462  0.1957  0.2212  0.2446
48492SOL    HW155406  13.262   1.312   6.389  0.1642  0.1244  0.3280
48492SOL    HW255407  13.365   1.322   6.499  1.3235  1.1863 -0.8119
48493SOL     OW55408   2.103   9.663   5.326  0.1745 -0.4033  0.1591
48493SOL    HW155409   2.192   9.633   5.343 -0.2081 -2.0077 -0.5006
48493SOL    HW255410   2.064   9.594   5.273 -0.6032  1.5641 -1.9820
48494SOL     OW55411   7.940   7.940   8.723 -0.2077  0.1866 -0.3800
48494SOL    HW155412   7.916   8.026   8.759 -1.1642  0.1829 -0.9887
48494SOL    HW255413   7.981   7.960   8.639 -0.9545  0.0265 -0.7900
48495SOL     OW55414  12.031   2.578   8.443 -0.2227  0.3447  0.1936
48495SOL    HW155415  11.987   2.639   8.384 -0.4334 -0.3663 -0.4063
48495SOL    HW255416  12.122   2.609   8.445 -0.3829  0.8282  0.1089
48496SOL     OW55417   8.617  10.696   2.562 -0.5934 -0.0657  0.2473
48496SOL    HW155418   8.568  10.617   2.539  0.8403 -1.0303  0.3546
48496SOL    HW255419   8.661  10.674   2.644  0.8280  0.3510 -0.3630
48497SOL     OW55420   1.098   6.453   8.219 -0.2908 -0.0324 -0.1791
48497SOL    HW155421   1.075   6.461   8.311  0.0481  0.5758 -0.1474
48497SOL    HW255422   1.075   6.362   8.197  0.4327 -0.4506  0.7198
48498SOL     OW55423   1.466   3.053   5.875 -0.4773 -0.0017  0.1047
48498SOL    HW155424   1.427   3.137   5.848  0.9660  1.2742  1.6958
48498SOL    HW255425   1.487   3.067   5.968 -1.0196 -2.4854  0.6615
48499SOL     OW55426  11.269   0.833   9.729 -0.2941  0.2105 -0.4598
48499SOL    HW155427  11.227   0.900   9.783  0.2910  0.1101  0.1284
48499SOL    HW255428  11.219   0.753   9.748 -0.3460  0.2603 -0.3860
48500SOL     OW55429   5.661   3.213   6.411 -0.0930 -0.2617  0.6468
48500SOL    HW155430   5.687   3.141   6.354  1.2785  1.5404 -1.1629
48500SOL    HW255431   5.679   3.182   6.499 -0.4751 -2.4582  0.0228
48501SOL     OW55432   6.738  10.351   6.783 -0.1798 -0.2764  0.3927
48501SOL    HW155433   6.665  10.300   6.817 -0.1329 -0.0978  0.7760
48501SOL    HW255434   6.794  10.366   6.860  0.2366 -0.3727  0.1147
48502SOL     OW55435   0.369   4.994   5.368  0.8957 -0.0452 -0.2977
48502SOL    HW155436   0.456   4.960   5.347  0.6659 -1.2249  0.6067
48502SOL    HW255437   0.314   4.917   5.375 -0.6673  0.7376 -2.5898
48503SOL     OW55438   3.004  11.650   6.322  0.0611  0.2727  0.1332
48503SOL    HW155439   2.920  11.695   6.310  0.7685  0.9304 -3.4890
48503SOL    HW255440   3.050  11.703   6.387 -1.1345  1.8221 -0.2109
48504SOL     OW55441   1.426   1.543   0.038 -0.3340  0.5500  0.1535
48504SOL    HW155442   1.419   1.519  -0.054 -0.3064  0.7499  0.0979
48504SOL    HW255443   1.505   1.498   0.069 -0.2192  0.6574  0.0225
48505SOL     OW55444   9.924   4.708  10.105  0.0934 -0.5329 -0.1961
48505SOL    HW155445   9.876   4.694  10.024 -0.3097 -0.0979 -0.0382
48505SOL    HW255446   9.864   4.680  10.174 -0.5717  1.4472  0.1074
48506SOL     OW55447   5.498  10.211   3.300 -0.0082 -0.6756 -0.2086
48506SOL    HW155448   5.531  10.215   3.390 -2.3056  2.7101  0.6919
48506SOL    HW255449   5.577  10.213   3.246  1.3940 -0.1600  1.7288
48507SOL     OW55450   2.084   8.678  13.292  0.1393  0.5305  0.8363
48507SOL    HW155451   1.993   8.667  13.266 -0.0519  1.2115  1.2026
48507SOL    HW255452   2.080   8.718  13.378  0.7287  5.3278 -1.0619
48508SOL     OW55453  12.307   5.733  10.059 -0.4612  0.2102  0.2060
48508SOL    HW155454  12.343   5.646  10.042  0.1523  0.9614 -3.1604
48508SOL    HW255455  12.230   5.739  10.002 -1.0036  1.5889  1.0308
48509SOL     OW55456   3.077   1.072   4.043 -0.0353 -0.8222  0.9269
48509SOL    HW155457   3.066   1.009   3.971 -0.4213 -0.3212  0.5375
48509SOL    HW255458   3.171   1.074   4.059 -0.0084 -1.4305  0.8843
48510SOL     OW55459   1.096   6.472   1.711 -0.0992 -0.0819  0.5635
48510SOL    HW155460   1.053   6.557   1.710  0.6125  0.3816  2.7352
48510SOL    HW255461   1.031   6.411   1.746 -0.2756 -0.2303 -0.0128
48511SOL     OW55462  11.447  10.173   8.854 -0.7095  0.4183  0.1608
48511SOL    HW155463  11.367  10.127   8.830 -1.4463  1.5758  0.3086
48511SOL    HW255464  11.436  10.194   8.947 -1.2838  2.5056 -0.3057
48512SOL     OW55465   3.050   5.211   2.138 -0.2415  0.4844  0.1853
48512SOL    HW155466   2.965   5.188   2.176  0.4341  0.8945  2.0844
48512SOL    HW255467   3.114   5.175   2.199  0.9506  0.7379 -0.8672
48513SOL     OW55468   7.749   0.349  13.191 -0.1316  0.0784  0.5223
48513SOL    HW155469   7.660   0.347  13.226 -0.2613 -0.7085  0.1647
48513SOL    HW255470   7.805   0.364  13.268 -0.4326 -1.3285  1.0553
48514SOL     OW55471   0.705   6.236   5.082  0.2359 -0.4956  0.4704
48514SOL    HW155472   0.800   6.220   5.082  0.1679 -0.9022  0.6308
48514SOL    HW255473   0.689   6.278   4.997  0.9238  1.9115  1.4430
48515SOL     OW55474   5.641  12.782   8.728 -0.4363 -0.2577  0.2371
48515SOL    HW155475   5.578  12.844   8.693 -2.2254 -0.6442  2.5212
48515SOL    HW255476   5.650  12.805   8.820  0.9404 -1.7129  0.5266
48516SOL     OW55477   9.463  11.227  11.774 -0.1258  0.7660 -0.1057
48516SOL    HW155478   9.482  11.146  11.821  2.4477  0.9264 -0.6769
48516SOL    HW255479   9.467  11.295  11.841 -1.3913  0.5314  0.2234
48517SOL     OW55480   1.812   9.553   3.224 -0.0749  0.5460  0.2188
48517SOL    HW155481   1.867   9.474   3.229 -0.6132  0.0341 -1.2523
48517SOL    HW255482   1.723   9.522   3.240 -0.2488  0.9253  0.0056
48518SOL     OW55483   9.545  13.108  11.502 -0.4067  0.4872 -0.6452
48518SOL    HW155484   9.577  13.027  11.542 -2.0383 -0.8043 -1.8180
48518SOL    HW255485   9.457  13.120  11.537  0.0067  2.0832 -0.0748
48519SOL     OW55486  12.103  12.006   7.841  0.0736  0.3960 -0.0931
48519SOL    HW155487  12.080  12.064   7.768  1.5162 -0.1087 -0.9804
48519SOL    HW255488  12.091  12.061   7.918 -2.5865  0.6010 -0.5575
48520SOL     OW55489  12.450   2.580   0.028 -0.0321  0.1241  0.3329
48520SOL    HW155490  12.383   2.606   0.091 -0.4347  1.2499 -0.5081
48520SOL    HW255491  12.496   2.661   0.007 -0.2105 -0.1157 -1.1422
48521SOL     OW55492   1.933   1.898   1.401  0.0038  0.3268 -0.0380
48521SOL    HW155493   1.864   1.963   1.414  1.3247  1.5520  1.2808
48521SOL    HW255494   1.901   1.843   1.330 -1.8752  1.4526 -0.1390
48522SOL     OW55495   7.190  10.811   3.046 -0.1102 -0.6082 -0.7331
48522SOL    HW155496   7.168  10.902   3.028  0.6160 -0.5078 -1.1796
48522SOL    HW255497   7.222  10.812   3.137  3.1057  0.2555 -1.7250
48523SOL     OW55498   7.634   7.768   7.314  0.4133 -0.0654 -0.1980
48523SOL    HW155499   7.578   7.762   7.392  1.8063 -0.0346  0.8499
48523SOL    HW255500   7.634   7.679   7.278 -1.8305  0.3472 -1.3680
48524SOL     OW55501   9.176   1.322   3.268  0.3959  0.2922  0.0276
48524SOL    HW155502   9.153   1.327   3.175  0.1700 -0.5057  0.0328
48524SOL    HW255503   9.162   1.230   3.291  0.1500  0.5471  0.9319
48525SOL     OW55504   7.274  11.001   0.526  0.3040  0.3232 -0.3900
48525SOL    HW155505   7.332  11.018   0.600  1.6153 -0.6434 -1.1627
48525SOL    HW255506   7.291  11.072   0.465  0.9184 -0.1305 -0.7526
48526SOL     OW55507  13.076   8.008   5.437 -0.0702 -0.4080  0.1092
48526SOL    HW155508  13.051   8.075   5.374 -1.0028 -0.6433  0.2225
48526SOL    HW255509  13.015   8.018   5.509  0.2276 -0.9257  0.4402
48527SOL     OW55510   9.440   0.176  10.693 -0.4353 -0.1567 -0.4055
48527SOL    HW155511   9.431   0.211  10.605 -0.8233  0.3370 -0.1755
48527SOL    HW255512   9.474   0.088  10.681  0.5504  0.2933 -0.9989
48528SOL     OW55513   3.174   5.605   9.523 -0.1942 -0.2089 -0.3738
48528SOL    HW155514   3.229   5.602   9.445  0.4109  0.8621 -0.0012
48528SOL    HW255515   3.188   5.521   9.566  0.5403 -0.2546 -0.6933
48529SOL     OW55516   5.393   2.639   5.745 -0.9995  0.1209 -0.2971
48529SOL    HW155517   5.449   2.583   5.692 -0.3823  1.5466 -1.2292
48529SOL    HW255518   5.394   2.599   5.832 -1.7825 -2.0932 -1.2405
48530SOL     OW55519   6.199   8.608   7.842  0.3761  0.6914 -0.4419
48530SOL    HW155520   6.109   8.600   7.872  0.1070 -0.3629 -1.4497
48530SOL    HW255521   6.192   8.615   7.746  1.3939 -1.4107 -0.7433
48531SOL     OW55522   9.752   2.911   5.271  0.1007  0.3027 -0.0304
48531SOL    HW155523   9.845   2.887   5.265  0.1934  0.9921 -2.3049
48531SOL    HW255524   9.710   2.832   5.307  1.2005 -1.1402 -1.7203
48532SOL     OW55525   8.245   4.201  11.335  0.0572  0.2973  0.9834
48532SOL    HW155526   8.242   4.113  11.296  0.7029  0.6834  0.0349
48532SOL    HW255527   8.157   4.213  11.372 -0.3757 -0.3452  0.2086
48533SOL     OW55528   5.807   0.364  12.230  0.0361 -0.1293  0.2465
48533SOL    HW155529   5.864   0.292  12.203 -2.8995 -1.6423 -2.5605
48533SOL    HW255530   5.816   0.428  12.160 -1.8952 -0.5754 -0.4578
48534SOL     OW55531   0.039   0.220   2.651 -0.3108 -0.5646 -0.0580
48534SOL    HW155532   0.104   0.177   2.596  0.5335 -2.6804  2.3967
48534SOL    HW255533  -0.045   0.190   2.617  0.1009 -0.4993 -1.1675
48535SOL     OW55534  11.274   1.025   5.387  0.2590  0.3352 -0.1332
48535SOL    HW155535  11.359   1.001   5.425 -0.3512 -4.3067 -1.0835
48535SOL    HW255536  11.288   1.021   5.292 -0.6734  1.1182 -0.3197
48536SOL     OW55537   2.429   2.692   4.244  0.7686 -0.0972  0.1075
48536SOL    HW155538   2.397   2.632   4.311 -0.5858  0.4216 -0.0401
48536SOL    HW255539   2.512   2.654   4.216  0.7939 -0.9494  1.2445
48537SOL     OW55540   1.938  12.899   6.611  0.1053 -0.2118  0.0212
48537SOL    HW155541   1.871  12.967   6.621  0.5225  0.5572 -1.9660
48537SOL    HW255542   1.894  12.827   6.566  0.7557  0.6218 -2.0333
48538SOL     OW55543   2.477   4.269   3.603  0.4368  0.2339 -0.3857
48538SOL    HW155544   2.441   4.341   3.551  0.4657  0.7857  0.3354
48538SOL    HW255545   2.476   4.302   3.693  0.6145 -0.6070 -0.0656
48539SOL     OW55546   9.605   5.842   4.197 -0.0728  0.0536 -0.4456
48539SOL    HW155547   9.634   5.913   4.141 -0.6106 -0.0886 -0.9081
48539SOL    HW255548   9.664   5.769   4.176  1.3445  0.7140  0.9672
48540SOL     OW55549  12.437  11.076   1.815 -0.0417 -0.2863 -0.0623
48540SOL    HW155550  12.417  11.003   1.756 -0.0776 -1.0239  0.8485
48540SOL    HW255551  12.360  11.084   1.870 -0.3185  0.8945 -0.5866
48541SOL     OW55552   0.442   5.263  12.707  0.2623  0.0354  0.0006
48541SOL    HW155553   0.414   5.186  12.657 -1.9001  0.6307  0.1709
48541SOL    HW255554   0.434   5.235  12.798  2.0722 -0.3494  0.0691
48542SOL     OW55555  12.432   1.345  10.663 -0.5851  0.1015 -0.5324
48542SOL    HW155556  12.388   1.394  10.593 -0.8210  0.5550 -0.0717
48542SOL    HW255557  12.520   1.384  10.667 -0.5520  0.0346 -0.6183
48543SOL     OW55558   1.506   5.428   3.224  0.0938  0.1503  0.5741
48543SOL    HW155559   1.500   5.519   3.252 -0.1915 -0.1616  1.5472
48543SOL    HW255560   1.476   5.377   3.299  0.4503 -0.7623  0.1140
48544SOL     OW55561   1.848  12.009   0.968  0.1787  0.4661  0.1265
48544SOL    HW155562   1.827  11.922   0.934 -1.9502  1.1291 -0.4719
48544SOL    HW255563   1.904  12.048   0.901 -0.4106  0.2060 -0.5341
48545SOL     OW55564   8.920  12.698   4.446 -0.2363 -0.0947 -0.0291
48545SOL    HW155565   8.912  12.602   4.452 -0.1725 -0.1828 -1.1320
48545SOL    HW255566   8.874  12.720   4.366 -1.5403  0.9854  0.9762
48546SOL     OW55567   2.420   7.510   8.630 -0.5326 -0.4526  0.1875
48546SOL    HW155568   2.498   7.530   8.578 -0.4135  0.7243  0.7908
48546SOL    HW255569   2.449   7.519   8.721 -1.0762 -1.2044  0.4474
48547SOL     OW55570   3.625   4.429   4.680  0.5282  0.3089 -0.5651
48547SOL    HW155571   3.711   4.455   4.648 -0.4990  0.3607 -3.5421
48547SOL    HW255572   3.635   4.427   4.775  3.5918  1.0058 -0.7658
48548SOL     OW55573   5.780   0.473  11.975 -0.0957 -0.5210  0.5715
48548SOL    HW155574   5.717   0.520  11.920 -0.4503  0.1321  1.4990
48548SOL    HW255575   5.865   0.507  11.947 -0.2744 -0.1505  0.4617
48549SOL     OW55576   7.397   8.691   7.939  0.3894 -0.3884 -0.4115
48549SOL    HW155577   7.438   8.627   7.882 -0.0535 -0.8542 -0.2134
48549SOL    HW255578   7.426   8.667   8.027  2.7781  1.5543 -0.5331
48550SOL     OW55579   7.881   9.469   8.413  0.0709  0.5208 -0.4182
48550SOL    HW155580   7.963   9.452   8.366 -1.2530  0.1379 -2.7225
48550SOL    HW255581   7.814   9.425   8.361 -1.6388  0.8653  1.3804
48551SOL     OW55582   7.488   3.508   5.653 -0.3224  0.4131  0.2628
48551SOL    HW155583   7.502   3.440   5.587 -0.8101  0.3678  0.2062
48551SOL    HW255584   7.509   3.590   5.607 -0.4863  0.3655  0.1010
48552SOL     OW55585   6.796   7.121  10.244 -0.0281 -0.2823  0.4593
48552SOL    HW155586   6.838   7.115  10.159 -0.0737  1.3017  0.2910
48552SOL    HW255587   6.743   7.042  10.251  1.6915 -1.5268 -0.0107
48553SOL     OW55588   6.402   1.295   2.233  0.0247  0.3604  0.4386
48553SOL    HW155589   6.489   1.261   2.258 -0.0049  0.3601  0.5422
48553SOL    HW255590   6.382   1.361   2.299  0.3425  1.0090 -0.1099
48554SOL     OW55591  11.060   9.645   9.429 -0.0579  0.1261  0.2566
48554SOL    HW155592  11.064   9.589   9.506 -1.6897 -0.4462 -0.0329
48554SOL    HW255593  11.091   9.590   9.357 -1.8267 -0.5183 -0.0583
48555SOL     OW55594  12.427  11.046   0.136  0.0231  0.4817  0.5338
48555SOL    HW155595  12.381  11.129   0.123  1.4638  1.4766  1.4803
48555SOL    HW255596  12.379  10.983   0.083 -0.9276  1.9908 -0.4615
48556SOL     OW55597   1.672  13.302   8.778 -0.3496  0.0720  0.1805
48556SOL    HW155598   1.638  13.369   8.838 -0.7852 -0.5565  0.6420
48556SOL    HW255599   1.652  13.219   8.821 -3.8107 -0.6255 -2.3306
48557SOL     OW55600   9.996  11.278  12.024 -0.0642  0.0306  0.2307
48557SOL    HW155601   9.973  11.326  12.103  3.2840  0.0955  1.3235
48557SOL    HW255602  10.092  11.281  12.021  0.0924 -2.8259 -2.0347
48558SOL     OW55603   8.645   5.664  10.624 -0.8745 -0.4988 -0.3916
48558SOL    HW155604   8.733   5.683  10.592 -0.7948 -0.1476  0.0251
48558SOL    HW255605   8.587   5.711  10.564 -0.7149  0.3480  0.1032
48559SOL     OW55606  13.050  10.902   7.407 -0.7858  0.4894 -0.7506
48559SOL    HW155607  13.141  10.885   7.381  0.1179  0.9398  1.8094
48559SOL    HW255608  13.055  10.982   7.459 -1.6896 -2.1699  3.9215
48560SOL     OW55609   5.791  10.755  10.071 -0.2763  0.1476 -0.3663
48560SOL    HW155610   5.792  10.660  10.085 -0.9029  0.5456  3.5171
48560SOL    HW255611   5.878  10.784  10.098 -1.1278  0.9067  1.8002
48561SOL     OW55612   4.443  12.447   2.354 -0.2472 -0.2676  0.1300
48561SOL    HW155613   4.419  12.402   2.273  0.2882 -1.0012  0.3709
48561SOL    HW255614   4.485  12.527   2.325  0.3961 -0.7607 -0.3325
48562SOL     OW55615   0.997  10.516   5.598  0.3235  0.0576 -0.1262
48562SOL    HW155616   1.082  10.541   5.633 -0.3465  2.1989  0.1259
48562SOL    HW255617   0.937  10.521   5.673 -0.5162  1.4032 -0.8430
48563SOL     OW55618   2.962   5.437   9.155 -0.2736  0.2429 -0.6019
48563SOL    HW155619   2.949   5.481   9.239  1.4854  1.6452 -0.9990
48563SOL    HW255620   2.880   5.451   9.107 -0.9559  0.2079  0.5180
48564SOL     OW55621   6.060   9.380   1.538 -0.3798  0.1741 -0.0187
48564SOL    HW155622   6.098   9.303   1.581  0.7647  1.1942  0.8646
48564SOL    HW255623   6.102   9.455   1.581 -1.8350  1.3140 -0.5006
48565SOL     OW55624   4.501   6.350   8.165  0.0562 -0.6278  0.0745
48565SOL    HW155625   4.514   6.414   8.235 -1.3934  3.3497 -2.8788
48565SOL    HW255626   4.584   6.349   8.118 -0.1389 -0.4067 -0.2738
48566SOL     OW55627   8.672   1.996   1.412 -0.4165  0.0714  0.2125
48566SOL    HW155628   8.729   2.070   1.390  1.2401 -0.8345  1.1808
48566SOL    HW255629   8.663   2.000   1.507  0.2908 -1.3192  0.3734
48567SOL     OW55630  10.968   7.146   9.102 -0.1486 -0.5236 -0.5350
48567SOL    HW155631  10.979   7.229   9.055 -2.0931 -0.1881 -0.5082
48567SOL    HW255632  11.050   7.099   9.089  1.1234  1.5326 -0.2783
48568SOL     OW55633   5.735   4.282   4.514 -0.4070  0.3744  0.1840
48568SOL    HW155634   5.736   4.376   4.528 -0.3362  0.6714 -1.6598
48568SOL    HW255635   5.752   4.245   4.601  2.4019  2.1040  0.4842
48569SOL     OW55636   8.922   7.221   4.296  0.1647  0.1186  0.0237
48569SOL    HW155637   9.015   7.220   4.276  0.2412  0.5290  0.3407
48569SOL    HW255638   8.902   7.313   4.311 -0.1761 -0.0286  0.4816
48570SOL     OW55639   2.124   7.171   1.182  0.2393 -0.4055  0.2663
48570SOL    HW155640   2.033   7.141   1.191 -0.8292  2.0355 -1.4359
48570SOL    HW255641   2.139   7.225   1.259  0.0255 -0.2985  0.2333
48571SOL     OW55642  10.882  11.837   5.166 -0.2889  0.1183  0.5828
48571SOL    HW155643  10.835  11.837   5.250  1.7821  0.3585  1.8049
48571SOL    HW255644  10.883  11.929   5.140  0.1083  0.2140  0.9243
48572SOL     OW55645  10.210   4.988   3.060  0.0244  0.0193 -0.2200
48572SOL    HW155646  10.146   5.059   3.065  0.5213  0.6048 -1.5678
48572SOL    HW255647  10.267   5.003   3.135  0.0945  1.0285 -0.4519
48573SOL     OW55648   1.028  12.669  11.681 -0.0752  0.1374 -0.3415
48573SOL    HW155649   1.038  12.723  11.760  1.2113 -0.3030 -0.1702
48573SOL    HW255650   1.066  12.584  11.705 -1.0437 -0.4924 -0.9676
48574SOL     OW55651   9.704   0.349   3.082  0.4671 -0.0734  0.3943
48574SOL    HW155652   9.690   0.314   3.170 -2.8273  0.0502  0.0685
48574SOL    HW255653   9.750   0.279   3.035  2.3011 -0.1254  2.1501
48575SOL     OW55654   8.335  10.594   7.245  0.0244  0.4132  0.0592
48575SOL    HW155655   8.355  10.544   7.325  1.1345 -0.2300 -0.6006
48575SOL    HW255656   8.401  10.566   7.182 -1.3811  0.2440 -1.3887
48576SOL     OW55657  10.609   2.161   5.123 -0.2472 -0.1163  0.4331
48576SOL    HW155658  10.622   2.249   5.085  1.1563  0.0669  1.2959
48576SOL    HW255659  10.692   2.116   5.109 -0.9612 -1.3471 -0.0201
48577SOL     OW55660   2.798  10.320  10.965  0.1001 -0.3300  0.2566
48577SOL    HW155661   2.768  10.261  10.896 -2.0486  1.5029 -0.5421
48577SOL    HW255662   2.862  10.376  10.922  2.4635 -2.2303  1.1255
48578SOL     OW55663   8.399   3.763   0.011 -0.2914  0.3661  0.2153
48578SOL    HW155664   8.363   3.750  -0.077 -0.1866 -1.7685  0.4170
48578SOL    HW255665   8.379   3.854   0.033 -0.7901  0.7863 -1.7960
48579SOL     OW55666   1.769   5.960  12.086  0.2148  0.4469 -0.7026
48579SOL    HW155667   1.711   5.913  12.025  2.1214  0.2496 -2.4626
48579SOL    HW255668   1.742   6.052  12.077 -0.7463  0.2080 -0.4192
48580SOL     OW55669   0.102   4.781   4.976 -0.4430  0.2937  0.1351
48580SOL    HW155670   0.095   4.700   5.026  0.5016  1.1125  1.6865
48580SOL    HW255671   0.048   4.843   5.024 -1.2137  0.5988 -1.0745
48581SOL     OW55672   3.219  10.015   7.526  0.1452 -0.4680  0.2089
48581SOL    HW155673   3.196  10.101   7.490 -0.2821  0.2586  2.1146
48581SOL    HW255674   3.264   9.971   7.454 -0.6840  0.8901 -1.2010
48582SOL     OW55675   9.711   5.403  10.533  0.1957 -0.5553  0.5277
48582SOL    HW155676   9.656   5.467  10.577  0.1757 -0.8028  0.8675
48582SOL    HW255677   9.760   5.361  10.604 -1.2224 -2.2982  0.5555
48583SOL     OW55678   6.620   8.602  11.731  0.0493  0.3399 -0.0540
48583SOL    HW155679   6.549   8.657  11.764 -0.9277 -1.5264  1.1707
48583SOL    HW255680   6.697   8.659  11.734 -0.9981  1.8128  0.5776
48584SOL     OW55681  12.248   1.145  10.701  0.8389 -0.3446 -0.0327
48584SOL    HW155682  12.204   1.194  10.771 -0.3747 -0.6867 -0.5152
48584SOL    HW255683  12.309   1.208  10.662  0.9690  0.0758  0.8312
48585SOL     OW55684   6.020   6.395   9.168  0.2039  0.0399  0.8066
48585SOL    HW155685   6.090   6.359   9.222 -0.7994  0.1990  2.2722
48585SOL    HW255686   6.000   6.480   9.208  0.0555  0.5944 -0.3907
48586SOL     OW55687  11.362   8.004   8.276  0.4143  0.1147 -0.3972
48586SOL    HW155688  11.457   8.004   8.288  0.5842 -3.5174 -0.8324
48586SOL    HW255689  11.330   7.934   8.333 -2.0293  1.0873 -0.4347
48587SOL     OW55690  13.261  13.070   9.349  0.6915 -0.0965 -0.0708
48587SOL    HW155691  13.185  13.095   9.297  0.7143 -0.0102 -0.0621
48587SOL    HW255692  13.261  12.974   9.346  1.1305 -0.0791 -0.8459
48588SOL     OW55693   9.630   9.404   0.192  0.5139  0.8073 -0.2301
48588SOL    HW155694   9.656   9.377   0.103 -0.4662 -0.8011 -0.0550
48588SOL    HW255695   9.545   9.445   0.181 -0.1818 -0.4912  0.0797
48589SOL     OW55696   0.394   0.627   0.024 -0.4191  0.8199  0.3302
48589SOL    HW155697   0.483   0.615   0.058 -0.2631 -1.3282 -0.6409
48589SOL    HW255698   0.398   0.590  -0.064 -2.0576  1.6019 -0.1058
48590SOL     OW55699   8.498   6.775   7.851  0.4169 -0.4862 -0.0921
48590SOL    HW155700   8.521   6.809   7.938 -0.7907  1.0463 -0.3360
48590SOL    HW255701   8.539   6.836   7.790 -0.8953 -0.0494 -0.5583
48591SOL     OW55702   5.278   0.694   0.476  0.2337  0.6751  0.0696
48591SOL    HW155703   5.230   0.757   0.423 -3.1984  0.4094  2.5563
48591SOL    HW255704   5.327   0.747   0.539  0.3911  0.9077 -0.2498
48592SOL     OW55705   5.955  12.792  12.417  0.2253 -0.1089  0.6347
48592SOL    HW155706   5.905  12.865  12.454  0.8949  0.2406  0.8596
48592SOL    HW255707   5.894  12.718  12.417 -0.6327  0.5778 -0.0727
48593SOL     OW55708   8.052   0.997   3.580 -0.4265 -0.1171 -0.2929
48593SOL    HW155709   8.129   0.942   3.564  0.1239  0.0740  1.5107
48593SOL    HW255710   8.085   1.071   3.630 -1.4560  1.0079 -1.2196
48594SOL     OW55711   4.807  13.170   9.434 -0.0182 -0.4501  0.0149
48594SOL    HW155712   4.792  13.097   9.374  0.9301 -1.6312  1.1442
48594SOL    HW255713   4.882  13.216   9.396  0.6861 -1.2906  0.3320
48595SOL     OW55714  12.558   1.434   0.423 -0.9177  0.2437  0.1586
48595SOL    HW155715  12.486   1.409   0.365 -0.5287  0.2016 -0.3095
48595SOL    HW255716  12.553   1.529   0.428 -2.3274  0.1278  1.8475
48596SOL     OW55717   5.799   5.315   0.484  0.2783  0.1309 -0.3429
48596SOL    HW155718   5.771   5.356   0.403 -0.9554  0.7729  0.3813
48596SOL    HW255719   5.739   5.241   0.496  1.2421 -0.7238 -0.6280
48597SOL     OW55720   3.895  12.471   2.846 -0.1676  0.0522 -0.4795
48597SOL    HW155721   3.973  12.524   2.863 -0.5568  0.3426  0.4658
48597SOL    HW255722   3.833  12.497   2.915 -1.4174  0.4599 -1.7119
48598SOL     OW55723   1.870   2.567   4.361 -0.3146 -0.3183  0.2556
48598SOL    HW155724   1.856   2.596   4.271 -2.4398 -0.3062  0.5383
48598SOL    HW255725   1.809   2.494   4.373 -1.1478  0.6080  2.1102
48599SOL     OW55726   6.231   1.413   7.960 -0.3846 -0.4219  0.2463
48599SOL    HW155727   6.228   1.460   8.043 -0.6833 -2.1299  1.2371
48599SOL    HW255728   6.314   1.365   7.963  1.0033  1.6270 -1.7144
48600SOL     OW55729  11.736   7.897   3.353  0.2096 -0.1925  0.0217
48600SOL    HW155730  11.787   7.952   3.412 -0.5611 -1.1682  1.6494
48600SOL    HW255731  11.673   7.852   3.410 -0.6865 -1.0378 -1.5661
48601SOL     OW55732   3.577  10.190   1.164  0.1841 -0.1485 -0.3304
48601SOL    HW155733   3.521  10.190   1.241  0.8631 -0.6280  0.1807
48601SOL    HW255734   3.517  10.191   1.090 -0.4784  2.1776  0.1750
48602SOL     OW55735  10.525   7.965   1.142 -0.2532  0.5046 -0.5006
48602SOL    HW155736  10.468   7.934   1.071 -0.2118  0.9929 -0.7521
48602SOL    HW255737  10.472   8.030   1.188  0.5204  1.8514 -1.4711
48603SOL     OW55738   0.714   8.515   8.543 -0.1944  0.4701  0.3818
48603SOL    HW155739   0.623   8.494   8.561 -0.7605  1.9726 -0.4311
48603SOL    HW255740   0.758   8.431   8.536 -1.5896 -0.2992  0.5029
48604SOL     OW55741  12.112  11.575  10.731  0.6583 -0.7006  0.0607
48604SOL    HW155742  12.145  11.487  10.748  2.4819 -0.0702  0.0325
48604SOL    HW255743  12.108  11.617  10.817  3.8031  0.4477 -0.1983
48605SOL     OW55744   2.759   2.705  11.891 -0.3245 -0.1578 -0.3223
48605SOL    HW155745   2.800   2.644  11.952 -2.9518  0.0787  1.8849
48605SOL    HW255746   2.831   2.762  11.863  1.8362 -2.9626 -0.9740
48606SOL     OW55747   1.554   1.677   0.818  0.3551 -0.6813 -0.3486
48606SOL    HW155748   1.564   1.628   0.736 -1.1707 -0.4044 -0.7216
48606SOL    HW255749   1.460   1.694   0.825  0.6292  0.5175  0.7624
48607SOL     OW55750   2.608   4.360   2.570 -0.7399  0.1018 -0.0793
48607SOL    HW155751   2.596   4.271   2.537 -0.5828  0.5057 -1.2762
48607SOL    HW255752   2.632   4.349   2.662  1.4837 -1.2170 -0.7500
48608SOL     OW55753   3.191   1.645   7.807  0.2602  0.1192 -0.1879
48608SOL    HW155754   3.274   1.603   7.829  1.4806  2.0786 -0.7949
48608SOL    HW255755   3.155   1.671   7.892  1.6930  1.7545 -0.0284
48609SOL     OW55756  12.323  12.300   0.123  0.2230 -0.4802  0.1980
48609SOL    HW155757  12.295  12.309   0.031 -0.2680 -1.4304  0.2439
48609SOL    HW255758  12.251  12.252   0.165  0.2637  0.2939  1.1812
48610SOL     OW55759   0.545  10.348   2.301  0.2167 -0.4683 -0.4931
48610SOL    HW155760   0.530  10.426   2.247  1.1406 -0.7236 -1.1526
48610SOL    HW255761   0.549  10.276   2.238 -2.0794 -1.3087  0.2176
48611SOL     OW55762   0.415   8.999  11.076  0.3575 -0.1792  0.2614
48611SOL    HW155763   0.495   9.006  11.024  0.0849  2.8827  0.0808
48611SOL    HW255764   0.442   8.956  11.157  1.4675 -2.0189 -1.0068
48612SOL     OW55765   8.290  10.528  10.656  0.2943 -0.3640 -0.0275
48612SOL    HW155766   8.306  10.524  10.751  0.9381 -2.0284 -0.1824
48612SOL    HW255767   8.374  10.506  10.617  0.3514  1.4795 -1.0391
48613SOL     OW55768   6.917  12.110   8.276 -1.0729  0.1584  0.0607
48613SOL    HW155769   6.829  12.091   8.308 -0.8997 -0.9800 -0.0853
48613SOL    HW255770   6.956  12.165   8.344 -1.2221 -1.0059  1.1193
48614SOL     OW55771   6.271   5.335   3.184 -0.2758  0.0221 -0.3261
48614SOL    HW155772   6.242   5.412   3.234  2.0315  0.8290 -0.0914
48614SOL    HW255773   6.332   5.291   3.242 -1.5995 -2.0721 -0.4498
48615SOL     OW55774   7.620  11.312   7.223  0.3138  0.2343  0.6322
48615SOL    HW155775   7.660  11.398   7.238 -0.4788  0.3291  2.5943
48615SOL    HW255776   7.693  11.255   7.198  1.0747  1.1819  0.6435
48616SOL     OW55777  12.042   0.672   5.837 -0.1574  0.0884  0.3920
48616SOL    HW155778  11.964   0.719   5.807 -0.8182 -1.0249  0.3222
48616SOL    HW255779  12.067   0.616   5.764  0.3275 -0.0420  0.6471
48617SOL     OW55780   6.940   4.515   4.606 -0.1236 -0.1154  0.3493
48617SOL    HW155781   6.857   4.530   4.652  0.5679 -0.4699  1.7640
48617SOL    HW255782   6.914   4.490   4.517 -1.4655  1.8417  0.1384
48618SOL     OW55783  12.307   0.682   3.404 -0.1987  0.1149  0.7368
48618SOL    HW155784  12.399   0.687   3.379 -0.0100  0.0312  1.3899
48618SOL    HW255785  12.259   0.710   3.326  0.3191 -1.0859 -0.0411
48619SOL     OW55786   8.876   6.784   6.370 -0.9992 -0.6502 -0.1660
48619SOL    HW155787   8.848   6.864   6.326  0.9385 -0.5818 -1.3754
48619SOL    HW255788   8.811   6.718   6.344 -0.3809 -0.4134 -2.5207
48620SOL     OW55789   4.783   8.448   2.269  0.2502 -0.2546 -0.2835
48620SOL    HW155790   4.702   8.420   2.311 -0.4643  1.3298 -0.5576
48620SOL    HW255791   4.763   8.533   2.231  1.7848 -0.2426 -1.1523
48621SOL     OW55792   7.840   3.828  12.214  0.0247 -0.1624 -0.2739
48621SOL    HW155793   7.898   3.888  12.167  1.2795 -1.2770 -0.2184
48621SOL    HW255794   7.853   3.850  12.306 -1.0256  0.7795 -0.3327
48622SOL     OW55795  12.134   6.972   7.426 -1.0143  0.0345  0.3308
48622SOL    HW155796  12.165   6.881   7.427 -0.7354  0.0653 -1.5443
48622SOL    HW255797  12.101   6.985   7.337 -0.3941  1.9671  0.3333
48623SOL     OW55798  11.184  10.210   9.399  0.0980  0.1430 -0.2573
48623SOL    HW155799  11.279  10.206   9.408  0.0241  1.2114  1.2545
48623SOL    HW255800  11.166  10.158   9.320  1.8339 -0.8746 -0.0465
48624SOL     OW55801  11.687   6.359  10.016 -0.1627  0.4112 -0.1434
48624SOL    HW155802  11.741   6.321  10.085 -1.8452  2.2780  2.3390
48624SOL    HW255803  11.637   6.285   9.981  0.3291 -0.4787  0.9843
48625SOL     OW55804   4.851  11.267   4.693 -0.0712  0.6697 -0.4855
48625SOL    HW155805   4.930  11.224   4.724 -0.0861  1.3205  0.5081
48625SOL    HW255806   4.879  11.321   4.620  0.0051 -0.7315 -1.5360
48626SOL     OW55807   4.841   0.223   4.898  0.0856  0.3883 -0.1588
48626SOL    HW155808   4.802   0.157   4.841  2.8604  0.6519 -2.6380
48626SOL    HW255809   4.798   0.304   4.873 -1.1474  0.0123  0.6675
48627SOL     OW55810  11.695   4.669   0.181  0.2331 -0.0460 -0.2484
48627SOL    HW155811  11.691   4.686   0.087  0.1822 -1.0659 -0.4400
48627SOL    HW255812  11.788   4.660   0.200  0.2210 -0.2378 -0.2770
48628SOL     OW55813   9.911   5.262   0.138  0.2353  0.0612 -0.2988
48628SOL    HW155814   9.829   5.223   0.169 -0.1473 -0.0670 -1.4405
48628SOL    HW255815   9.948   5.305   0.215 -0.8516  0.0290  0.2498
48629SOL     OW55816   1.386   3.443   4.942  0.4966 -0.3938 -0.2994
48629SOL    HW155817   1.372   3.399   5.025 -0.4620  0.3079 -0.0758
48629SOL    HW255818   1.317   3.409   4.885  0.8818 -0.5446 -0.6877
48630SOL     OW55819   0.795   8.572   2.240  0.0428  0.1387 -0.0135
48630SOL    HW155820   0.751   8.628   2.177 -2.1109  0.3564  1.5888
48630SOL    HW255821   0.806   8.627   2.317 -1.1539 -1.2712  1.2235
48631SOL     OW55822  11.749  12.216   8.320  0.2959 -0.0356  0.3869
48631SOL    HW155823  11.667  12.254   8.289 -0.3601 -1.0515  0.8290
48631SOL    HW255824  11.770  12.148   8.256 -0.0534 -0.8320  1.0824
48632SOL     OW55825  12.857   5.687   2.721 -0.1328  0.2923 -0.0405
48632SOL    HW155826  12.943   5.723   2.701  0.7943 -1.9834 -0.3713
48632SOL    HW255827  12.825   5.742   2.793  1.4165  1.4050 -0.1474
48633SOL     OW55828   8.248  11.036   5.547  0.6240  0.2629 -0.3870
48633SOL    HW155829   8.227  11.047   5.454 -1.5437  0.4041  0.0508
48633SOL    HW255830   8.277  11.122   5.576 -1.2184  0.9512 -0.4146
48634SOL     OW55831   3.650  11.078   0.374  0.5833  0.2041 -0.1643
48634SOL    HW155832   3.654  10.984   0.358  1.9582  0.0944  0.6671
48634SOL    HW255833   3.739  11.102   0.397  0.1649  1.6439  0.0208
48635SOL     OW55834   5.255   6.149   5.406  0.2099 -0.0508  0.0798
48635SOL    HW155835   5.222   6.148   5.496  0.6673  1.0907  0.2806
48635SOL    HW255836   5.207   6.079   5.362  0.1586 -0.7945  1.2689
48636SOL     OW55837  12.881   8.452   2.711 -0.3515 -0.0302  0.5743
48636SOL    HW155838  12.842   8.426   2.628  0.5408  0.2355  0.0516
48636SOL    HW255839  12.926   8.535   2.692 -0.0666 -0.0035  1.2942
48637SOL     OW55840  10.986   3.798   5.255  0.2150  0.3584  0.3466
48637SOL    HW155841  11.054   3.755   5.203 -0.2014 -0.0139  0.0946
48637SOL    HW255842  10.940   3.854   5.193  0.0199  0.2781  0.4153
48638SOL     OW55843   4.720   0.858   6.610 -0.1797  0.0098 -0.5361
48638SOL    HW155844   4.802   0.811   6.593 -0.3746 -0.0130 -1.4673
48638SOL    HW255845   4.665   0.796   6.657 -0.8729 -1.1372 -2.7478
48639SOL     OW55846   3.082  11.638   1.858 -0.7578 -0.1108  0.4184
48639SOL    HW155847   3.024  11.675   1.791  0.0776  0.8730  0.2094
48639SOL    HW255848   3.055  11.546   1.865 -0.1474 -0.5555 -2.0959
48640SOL     OW55849   8.791   3.761   6.818 -0.4908 -0.0765 -0.5696
48640SOL    HW155850   8.843   3.736   6.742 -1.8917 -0.5819 -1.4066
48640SOL    HW255851   8.711   3.708   6.811 -0.5569 -0.3326  1.3941
48641SOL     OW55852  12.955   3.960   6.646 -0.3275  0.2613  0.0321
48641SOL    HW155853  12.913   3.874   6.638  0.0903  0.1161 -0.6878
48641SOL    HW255854  13.018   3.950   6.717 -2.0737  0.7207  1.7089
48642SOL     OW55855   1.727   5.347   3.845  0.1722  0.0523  0.7707
48642SOL    HW155856   1.735   5.415   3.912  1.2601  0.1877  0.5292
48642SOL    HW255857   1.783   5.276   3.876  1.3331  0.4358 -0.3544
48643SOL     OW55858   2.985   3.634   7.866 -0.2307 -0.0496 -0.7324
48643SOL    HW155859   3.049   3.638   7.795  2.5489  0.7336  1.6312
48643SOL    HW255860   3.018   3.695   7.931 -2.5303 -0.8762  1.3480
48644SOL     OW55861   4.764   7.598   6.269 -0.2837 -0.0263  0.7153
48644SOL    HW155862   4.735   7.670   6.326 -1.8026 -0.7258  0.8756
48644SOL    HW255863   4.705   7.602   6.194  1.4999  0.6848 -0.7192
48645SOL     OW55864   6.616   2.284  11.109  0.1556 -0.1518  0.4077
48645SOL    HW155865   6.654   2.279  11.021 -0.9254  0.2009 -0.0999
48645SOL    HW255866   6.521   2.279  11.095  0.0086 -1.6649  1.6895
48646SOL     OW55867  10.706   8.195  10.063  0.1160  0.0821  0.4681
48646SOL    HW155868  10.786   8.149  10.087 -0.8918 -1.6008  0.8586
48646SOL    HW255869  10.691   8.172   9.972  1.9140  3.3579 -0.8120
48647SOL     OW55870   0.052   5.746   7.729 -0.4461  0.4162  0.6494
48647SOL    HW155871   0.143   5.771   7.743 -0.1702 -0.6904  0.8921
48647SOL    HW255872   0.002   5.825   7.750  0.4966  1.3070 -0.3505
48648SOL     OW55873  12.370   9.724   8.165  0.1052  0.1922 -0.3614
48648SOL    HW155874  12.376   9.814   8.133 -0.4930  0.2967 -0.1929
48648SOL    HW255875  12.297   9.686   8.117 -0.1954  0.0639  0.1881
48649SOL     OW55876   1.017  10.670   3.109 -0.2360  0.0103 -0.3843
48649SOL    HW155877   0.931  10.699   3.141  0.0025  0.6161 -0.2870
48649SOL    HW255878   1.080  10.713   3.167  0.1065 -1.6391  0.5247
48650SOL     OW55879  10.298   4.217   0.458  0.3670  0.2308  0.1217
48650SOL    HW155880  10.340   4.270   0.389  0.3269  0.0480 -0.0428
48650SOL    HW255881  10.353   4.139   0.465  0.2687  0.1666  0.1731
48651SOL     OW55882   0.192   6.660   3.491 -0.2016  0.4732  0.4566
48651SOL    HW155883   0.200   6.659   3.396  2.6070 -0.5645  0.5997
48651SOL    HW255884   0.192   6.567   3.516 -0.5388  0.7343  1.4855
48652SOL     OW55885   8.085   6.070  11.748 -0.0333 -0.5878  0.5617
48652SOL    HW155886   8.170   6.070  11.792  1.1188  1.3580 -1.4338
48652SOL    HW255887   8.105   6.048  11.657 -1.7850 -0.7554  0.1742
48653SOL     OW55888   7.427   3.875  11.624  0.1016  0.3308 -0.0328
48653SOL    HW155889   7.498   3.830  11.579 -1.0216  0.5024 -2.1042
48653SOL    HW255890   7.389   3.809  11.681  2.6971  0.5966  2.1834
48654SOL     OW55891   2.831   1.930  12.870 -0.4343  0.3810 -0.5202
48654SOL    HW155892   2.816   1.917  12.776 -1.3753  4.8088 -1.1878
48654SOL    HW255893   2.743   1.937  12.907 -0.0602  0.7346  0.3193
48655SOL     OW55894   9.547  12.421   5.264  0.3828 -0.0782 -0.2407
48655SOL    HW155895   9.463  12.455   5.294  1.2930  2.8729 -0.7594
48655SOL    HW255896   9.575  12.360   5.333 -1.2238  0.4595  0.9276
48656SOL     OW55897   9.841  13.293   7.735  0.0889 -0.4047  0.3341
48656SOL    HW155898   9.936  13.281   7.742 -0.0916 -1.1840  1.7278
48656SOL    HW255899   9.815  13.328   7.820 -0.7684  0.6279 -0.3321
48657SOL     OW55900  12.311   6.454  11.955 -0.0892 -0.4169 -0.3361
48657SOL    HW155901  12.244   6.460  12.023 -0.9956 -1.4287 -1.1192
48657SOL    HW255902  12.393   6.448  12.005 -0.4535  1.6991  0.6168
48658SOL     OW55903   8.832   0.049  11.344 -0.2463  0.0034 -0.0322
48658SOL    HW155904   8.864   0.135  11.373 -1.3268  0.3476  0.1752
48658SOL    HW255905   8.898   0.020  11.281  0.1110  1.0105 -0.1470
48659SOL     OW55906   9.761   0.859   4.837 -0.1144 -0.0446 -0.3681
48659SOL    HW155907   9.841   0.820   4.802 -0.5416 -0.3928 -0.9687
48659SOL    HW255908   9.783   0.880   4.928 -0.0204 -2.1589  0.1572
48660SOL     OW55909  12.733   7.913   1.796  0.0981 -0.4777  0.2797
48660SOL    HW155910  12.741   7.906   1.701  1.6565 -0.5974  0.3850
48660SOL    HW255911  12.659   7.972   1.810 -0.1462 -0.4441 -0.9954
48661SOL     OW55912   2.458   9.293   9.404  0.4728 -0.0364  0.6107
48661SOL    HW155913   2.491   9.240   9.476  0.0495 -0.8758  0.2055
48661SOL    HW255914   2.372   9.322   9.433 -0.3045 -1.5146 -0.0556
48662SOL     OW55915   1.234  11.522   9.842 -0.0119 -0.3479 -0.0210
48662SOL    HW155916   1.205  11.591   9.783 -0.5246  0.0046  0.6228
48662SOL    HW255917   1.199  11.441   9.805 -2.2145  0.0941  0.9078
48663SOL     OW55918  11.803   6.750  12.632 -0.0808  0.1085 -0.3851
48663SOL    HW155919  11.790   6.805  12.555 -0.0270 -0.2373 -0.6424
48663SOL    HW255920  11.898   6.746  12.642  0.0888 -2.2888 -2.0985
48664SOL     OW55921   5.345   8.532   7.527 -0.5817  0.3193  0.1140
48664SOL    HW155922   5.274   8.544   7.590 -0.6294  1.4054 -0.1241
48664SOL    HW255923   5.340   8.440   7.502 -1.2177  0.1258  0.9125
48665SOL     OW55924   9.076   5.991   4.806  0.2605  0.3779 -0.0531
48665SOL    HW155925   9.081   5.899   4.778  1.8833  1.0799 -2.4053
48665SOL    HW255926   9.090   5.988   4.900 -1.1588 -1.8760  0.1629
48666SOL     OW55927  10.915   8.677   5.627 -0.2453 -0.1127  0.1195
48666SOL    HW155928  10.911   8.711   5.716  2.6936 -0.1177  0.3455
48666SOL    HW255929  10.960   8.593   5.634  1.1156  0.4205 -1.4447
48667SOL     OW55930   0.146   2.726   3.295  0.2375 -0.5349 -0.4665
48667SOL    HW155931   0.163   2.806   3.245 -0.6141  1.3221  2.0052
48667SOL    HW255932   0.165   2.751   3.386  0.9999 -3.4986  0.2776
48668SOL     OW55933  11.363   4.550   0.428  0.5587 -0.0346  0.4804
48668SOL    HW155934  11.305   4.479   0.454 -0.4590 -0.0427 -1.6063
48668SOL    HW255935  11.447   4.508   0.412 -0.1390 -0.9046 -1.1431
48669SOL     OW55936   1.076   1.885   9.071  0.0265  0.5372  0.2343
48669SOL    HW155937   1.069   1.838   8.988 -2.0970  0.8515  0.1758
48669SOL    HW255938   1.166   1.868   9.101  0.2223 -1.1894 -1.1610
48670SOL     OW55939   2.149  11.407   7.505  0.3784 -0.1821  0.1446
48670SOL    HW155940   2.086  11.455   7.452  1.3572  2.1657  0.9783
48670SOL    HW255941   2.149  11.318   7.468 -1.5179  0.4197 -1.4683
48671SOL     OW55942  10.670  10.010  11.475 -0.3393  0.1453 -0.4635
48671SOL    HW155943  10.659   9.915  11.476 -0.3931  0.1487  0.1962
48671SOL    HW255944  10.737  10.027  11.542 -2.5616  0.8108  1.7466
48672SOL     OW55945   0.824   5.457  12.834  0.3273  0.0875  0.4204
48672SOL    HW155946   0.751   5.503  12.874 -0.2589  0.5581 -1.1308
48672SOL    HW255947   0.798   5.365  12.832 -0.5678  0.3470 -0.7873
48673SOL     OW55948  13.306   4.275   2.691  0.2944 -0.7522  0.4641
48673SOL    HW155949  13.371   4.337   2.726  0.9676 -0.6817 -0.8221
48673SOL    HW255950  13.234   4.279   2.753  0.4936  1.0185  0.6621
48674SOL     OW55951   4.544  11.424   0.814  0.5149  0.1584 -0.4150
48674SOL    HW155952   4.537  11.339   0.858  1.2943 -0.1258 -0.8134
48674SOL    HW255953   4.502  11.486   0.874  0.3494 -0.4374  0.0955
48675SOL     OW55954   0.817   8.554   7.030  0.1562 -0.4292 -0.1894
48675SOL    HW155955   0.764   8.569   7.109  0.8690  2.6876 -0.1728
48675SOL    HW255956   0.778   8.610   6.964  1.4547 -0.5984 -1.1386
48676SOL     OW55957   3.017  11.002   7.523  0.2977 -0.3175 -0.0223
48676SOL    HW155958   3.094  11.034   7.569  0.0953  0.0165  0.0875
48676SOL    HW255959   2.974  11.081   7.490 -1.1887 -0.3164  1.7770
48677SOL     OW55960  12.474  11.383  11.977  0.5283 -0.3729 -0.0845
48677SOL    HW155961  12.432  11.299  11.998  1.6342 -0.7339  0.8370
48677SOL    HW255962  12.547  11.388  12.039  1.0290  0.8465 -0.7529
48678SOL     OW55963   1.622  12.944  10.514 -0.1979 -0.4791  0.3809
48678SOL    HW155964   1.637  12.953  10.420  0.4776 -2.7865  0.2091
48678SOL    HW255965   1.614  12.850  10.528  2.7663 -0.4718  3.0852
48679SOL     OW55966   2.920  12.657   0.317 -0.7044 -0.0317 -0.1166
48679SOL    HW155967   2.926  12.573   0.274 -1.8200  0.9479 -2.3384
48679SOL    HW255968   2.836  12.693   0.288 -1.0250  1.1681  2.0702
48680SOL     OW55969   4.531  12.575   3.797 -0.0873 -0.5229  0.9530
48680SOL    HW155970   4.506  12.494   3.752  1.1188 -1.2437  1.5181
48680SOL    HW255971   4.623  12.561   3.821  0.5898  1.6090 -0.2150
48681SOL     OW55972  12.402  13.244   7.773 -0.4661  0.6065 -0.3629
48681SOL    HW155973  12.382  13.336   7.790 -0.0171  1.0227 -1.8786
48681SOL    HW255974  12.330  13.214   7.718 -1.1407 -0.2661  0.9553
48682SOL     OW55975  11.829   5.406   9.436  0.1353 -0.0952 -0.0594
48682SOL    HW155976  11.809   5.477   9.496 -0.1129  1.4765 -1.9185
48682SOL    HW255977  11.757   5.344   9.447  0.2366  0.0129  1.4177
48683SOL     OW55978   0.914   8.946   1.243 -0.3889 -0.4581  0.0013
48683SOL    HW155979   0.941   8.924   1.332 -1.3711 -1.1200  0.1477
48683SOL    HW255980   0.898   8.862   1.201 -1.7462 -0.1021 -0.2243
48684SOL     OW55981   0.872  10.945   7.677  0.0164 -0.0007 -0.6930
48684SOL    HW155982   0.777  10.943   7.693  0.0593 -0.1051 -0.4516
48684SOL    HW255983   0.894  10.855   7.652  0.4312 -0.5395  1.4547
48685SOL     OW55984  11.019   8.057   3.948 -0.2979  0.0351 -0.4012
48685SOL    HW155985  11.066   7.985   3.989  0.8487 -0.3744 -2.3226
48685SOL    HW255986  11.038   8.048   3.855 -1.1667  2.0863 -0.8249
48686SOL     OW55987  10.813   6.004   4.348  0.0449 -0.3014  0.2638
48686SOL    HW155988  10.781   6.065   4.282  0.5186 -1.3079 -0.9129
48686SOL    HW255989  10.841   6.060   4.420  1.9632  1.0085 -1.4157
48687SOL     OW55990   2.477   7.061   2.034  0.0675 -0.4101  0.2118
48687SOL    HW155991   2.546   7.013   1.988  0.5576 -0.9452  1.4620
48687SOL    HW255992   2.475   7.021   2.121 -1.8439 -0.4173  0.1934
48688SOL     OW55993   2.143   7.008   2.506  0.0770 -0.1123  0.2555
48688SOL    HW155994   2.198   7.036   2.580  0.2420 -0.5156  0.2865
48688SOL    HW255995   2.131   6.914   2.519 -0.0434 -0.1523 -0.1373
48689SOL     OW55996   3.780   9.216   2.832  0.6546  0.5152  0.3855
48689SOL    HW155997   3.791   9.208   2.927 -1.3904  1.9171  0.8003
48689SOL    HW255998   3.732   9.137   2.807  0.1567  0.7037  0.7274
48690SOL     OW55999   8.666   8.862   0.860  0.2560 -0.2523 -0.2031
48690SOL    HW156000   8.715   8.890   0.938  0.0938  2.0529 -0.8438
48690SOL    HW256001   8.581   8.833   0.894  0.3642  0.2631  0.5420
48691SOL     OW56002   7.269  10.515  11.995 -0.0018  0.6950 -0.2266
48691SOL    HW156003   7.198  10.517  11.931  0.0578  0.4357 -0.3036
48691SOL    HW256004   7.228  10.484  12.076 -0.0177  0.7423 -0.2170
48692SOL     OW56005   9.062   4.505  12.184  0.0875 -0.4807 -1.2090
48692SOL    HW156006   9.148   4.498  12.141  1.1102  1.2043  0.3759
48692SOL    HW256007   9.015   4.571  12.132  0.3657 -0.2783 -1.2116
48693SOL     OW56008  11.326   9.787   6.248 -0.3294 -0.2041 -0.1537
48693SOL    HW156009  11.355   9.698   6.270  0.9579  0.5145  1.2447
48693SOL    HW256010  11.401   9.843   6.270 -1.9390  1.5042  1.3407
48694SOL     OW56011   4.112  12.480   3.153 -0.3014 -0.2184 -0.1285
48694SOL    HW156012   4.103  12.572   3.178  2.2041  0.0691 -0.0192
48694SOL    HW256013   4.024  12.444   3.164 -1.0783  1.8370  1.0738
48695SOL     OW56014   1.173   2.411   5.079  0.2764 -0.4886 -0.1326
48695SOL    HW156015   1.158   2.370   4.994 -0.3150 -1.0917  0.2484
48695SOL    HW256016   1.099   2.471   5.090 -0.2590 -1.2202  0.4188
48696SOL     OW56017   9.060   3.892   3.308  0.2422 -0.1065 -0.8721
48696SOL    HW156018   9.153   3.878   3.320  0.0559 -1.7333 -1.0482
48696SOL    HW256019   9.041   3.855   3.221 -0.9378 -1.9575  0.1037
48697SOL     OW56020  12.164   5.822   3.403  0.4354  0.2037 -0.2442
48697SOL    HW156021  12.257   5.802   3.409  0.5839  0.6307 -1.0027
48697SOL    HW256022  12.156   5.913   3.431  0.3722  0.4379 -0.9935
48698SOL     OW56023  13.068   7.837   6.899  0.2052  0.5008  0.3071
48698SOL    HW156024  13.049   7.761   6.844  0.5771  0.7613 -0.1892
48698SOL    HW256025  12.983   7.877   6.916  0.2063  1.3456 -1.4364
48699SOL     OW56026  10.927  12.101   0.588  0.4024 -0.0160 -0.7195
48699SOL    HW156027  10.880  12.022   0.615  1.3470 -0.4007 -0.1930
48699SOL    HW256028  10.963  12.079   0.502 -1.5329  0.7757 -1.8187
48700SOL     OW56029  12.604   1.813  12.195 -0.3313  0.2726  0.0044
48700SOL    HW156030  12.606   1.758  12.273  1.2153  0.6019  0.2409
48700SOL    HW256031  12.591   1.752  12.123 -0.8753 -0.1380  0.4387
48701SOL     OW56032   2.710  13.127   0.836  0.3413  0.5007 -0.7883
48701SOL    HW156033   2.804  13.115   0.825  0.6844  0.7101  1.4339
48701SOL    HW256034   2.685  13.186   0.765  2.0194  1.0023 -1.0195
48702SOL     OW56035   6.448   1.421   3.214 -0.2707 -0.9520 -0.2696
48702SOL    HW156036   6.409   1.395   3.130  1.4838 -0.2455 -1.3566
48702SOL    HW256037   6.493   1.503   3.195 -1.7780  0.5058  1.9646
48703SOL     OW56038   5.960   8.081   4.747 -0.1269  0.0320  0.0032
48703SOL    HW156039   5.971   8.030   4.827  1.9839  2.3690  1.3641
48703SOL    HW256040   5.913   8.160   4.775  1.7671  1.4964 -0.6981
48704SOL     OW56041   2.992   2.971   1.206 -0.2938  0.2085 -0.3680
48704SOL    HW156042   2.984   2.907   1.276 -1.2724  0.7225  0.0099
48704SOL    HW256043   3.087   2.976   1.189  0.0971  0.8900  1.7042
48705SOL     OW56044   8.646  11.230   1.236  0.5096 -0.1784  0.3446
48705SOL    HW156045   8.605  11.263   1.156  0.3666 -0.0327  0.4769
48705SOL    HW256046   8.585  11.163   1.267  1.1845 -1.1402 -0.3519
48706SOL     OW56047  12.940   8.128   1.731 -0.0033 -0.5020 -0.3420
48706SOL    HW156048  12.957   8.113   1.824  0.5389 -2.4414 -0.7022
48706SOL    HW256049  12.920   8.041   1.696  1.5914 -0.1343 -2.3771
48707SOL     OW56050   8.272  10.889   4.897  0.5086  0.0890 -0.4453
48707SOL    HW156051   8.352  10.937   4.916  0.4303  0.4642 -1.0304
48707SOL    HW256052   8.300  10.816   4.841  0.4715  0.0966 -0.4737
48708SOL     OW56053   1.842   4.687   9.446 -0.6758  0.1137  0.2494
48708SOL    HW156054   1.823   4.594   9.441 -3.7002  0.6915 -0.4950
48708SOL    HW256055   1.758   4.730   9.435  0.4414  2.9485  1.6708
48709SOL     OW56056   2.331  12.574   6.793  0.1250  0.4923 -0.0639
48709SOL    HW156057   2.343  12.652   6.740 -0.3751 -0.3968 -1.5591
48709SOL    HW256058   2.407  12.519   6.772 -1.5046 -1.1202 -2.2397
48710SOL     OW56059   9.813   5.777  11.622 -0.5634 -0.4975  0.6535
48710SOL    HW156060   9.726   5.816  11.626 -0.3151  0.1574 -0.1366
48710SOL    HW256061   9.862   5.833  11.562 -0.2439 -2.1562 -0.7017
48711SOL     OW56062   2.180   8.356   1.216  0.4801  0.3066  0.1789
48711SOL    HW156063   2.147   8.308   1.291  0.1763  2.0951  1.2645
48711SOL    HW256064   2.275   8.359   1.229  1.0322 -3.1446 -1.9096
48712SOL     OW56065   2.204   5.200   1.157  0.1810  0.1178 -0.4106
48712SOL    HW156066   2.287   5.242   1.177 -0.3093  0.6781  0.4909
48712SOL    HW256067   2.138   5.269   1.169 -0.6103 -0.7951  0.7871
48713SOL     OW56068   3.696   4.444  12.426  0.0467 -0.1962 -0.0361
48713SOL    HW156069   3.696   4.362  12.474 -2.1150 -0.5646 -0.5713
48713SOL    HW256070   3.638   4.429  12.351  0.0812  1.6254 -0.4797
48714SOL     OW56071   3.690   7.934  10.432  0.2486 -0.0614  0.2053
48714SOL    HW156072   3.682   7.851  10.480  1.0325 -0.5354 -0.4620
48714SOL    HW256073   3.772   7.926  10.384 -0.1872  0.6750 -0.6950
48715SOL     OW56074  10.356   4.430  10.394  0.0792  0.1977 -0.2066
48715SOL    HW156075  10.269   4.435  10.355  1.0487  1.8124 -2.3709
48715SOL    HW256076  10.344   4.380  10.475 -2.5536 -0.9511 -1.2145
48716SOL     OW56077   0.324   8.170   5.191  0.3502  0.2472  0.0223
48716SOL    HW156078   0.391   8.105   5.170  1.2777  0.6219  1.6157
48716SOL    HW256079   0.373   8.242   5.232 -0.9018  1.0078  0.2317
48717SOL     OW56080  12.102   5.536   5.714  0.0345  0.6577  0.5917
48717SOL    HW156081  12.174   5.597   5.728  0.2945  0.9442 -1.6653
48717SOL    HW256082  12.024   5.591   5.709  0.1902  0.7807 -0.8296
48718SOL     OW56083   9.937   6.111   5.622  0.2921 -0.1195  0.0142
48718SOL    HW156084   9.905   6.131   5.710  0.6433  2.4886 -0.3622
48718SOL    HW256085  10.027   6.083   5.635  0.5386  0.8377  0.4769
48719SOL     OW56086   3.051   5.842   3.937 -0.4352  0.4289 -0.3357
48719SOL    HW156087   3.022   5.857   3.847 -0.1915  2.0127 -0.1886
48719SOL    HW256088   3.134   5.890   3.944  0.9630 -1.8812 -0.0051
48720SOL     OW56089  11.347  12.743  10.352 -0.6601  0.2666 -0.8767
48720SOL    HW156090  11.265  12.791  10.343 -0.7187 -0.0664 -2.2881
48720SOL    HW256091  11.414  12.805  10.323 -0.1449  1.1704  1.9150
48721SOL     OW56092   0.705   5.754   1.366 -0.2595  0.0190 -0.4000
48721SOL    HW156093   0.770   5.775   1.434  0.2921 -3.0464  0.1582
48721SOL    HW256094   0.623   5.789   1.400  0.6966  2.2252 -0.1841
48722SOL     OW56095   3.426   1.350   1.778 -0.0617 -0.0565  0.3872
48722SOL    HW156096   3.420   1.412   1.705 -0.8034  0.8372  1.1720
48722SOL    HW256097   3.518   1.352   1.805  0.2234 -0.4261 -0.5389
48723SOL     OW56098  10.429   1.291   0.859  0.1657  0.7487  0.0366
48723SOL    HW156099  10.413   1.260   0.948 -0.5956  0.7011 -0.1057
48723SOL    HW256100  10.466   1.215   0.814 -0.9944  0.2431 -0.1123
48724SOL     OW56101   8.871   0.002  11.792  0.5781  0.1352  0.0850
48724SOL    HW156102   8.874   0.082  11.739  1.7626 -1.0186 -1.6786
48724SOL    HW256103   8.839   0.032  11.877 -1.1334  2.1316 -1.1354
48725SOL     OW56104   8.942   2.541  13.183  0.6248 -0.2089 -0.1530
48725SOL    HW156105   8.939   2.589  13.100 -0.0769  0.5455  0.2972
48725SOL    HW256106   8.858   2.496  13.188  0.4798  0.1046  0.3467
48726SOL     OW56107  10.428   2.181  10.796  0.4696 -0.1475 -0.9262
48726SOL    HW156108  10.464   2.196  10.708 -0.9515 -0.2665 -1.5636
48726SOL    HW256109  10.454   2.092  10.818  1.5075  0.1563 -0.8810
48727SOL     OW56110   5.449   9.901   7.861 -0.2152 -0.2788 -0.2761
48727SOL    HW156111   5.432   9.827   7.919 -1.1742 -0.5519 -0.8731
48727SOL    HW256112   5.514   9.954   7.906 -1.3008 -0.2196  1.2878
48728SOL     OW56113   3.604   0.086  12.902  0.0868 -0.1659  0.6411
48728SOL    HW156114   3.667   0.117  12.838 -0.0613  1.0442  1.0625
48728SOL    HW256115   3.520   0.121  12.872 -0.0890 -0.1675  1.1250
48729SOL     OW56116  11.382  10.851  11.536  0.4008 -0.0584  0.1762
48729SOL    HW156117  11.422  10.804  11.463 -2.0259 -2.1854  0.0838
48729SOL    HW256118  11.309  10.898  11.497 -0.3299 -0.4261  1.0634
48730SOL     OW56119   4.824   8.354   1.688 -0.3301 -0.2545 -0.1913
48730SOL    HW156120   4.812   8.324   1.598 -1.0076  0.1823 -0.2528
48730SOL    HW256121   4.882   8.430   1.680  0.6203 -0.9544 -0.1268
48731SOL     OW56122   4.431   6.569   0.275 -0.2040  0.4063  0.3256
48731SOL    HW156123   4.430   6.475   0.256  2.0341  0.4496 -0.2607
48731SOL    HW256124   4.389   6.576   0.361  0.5972 -1.2936  0.9168
48732SOL     OW56125   9.629   9.313   9.273 -0.1538  0.5871  0.5033
48732SOL    HW156126   9.564   9.281   9.209  0.0954 -1.0854  1.0420
48732SOL    HW256127   9.601   9.402   9.292 -1.5298  0.3601 -0.2798
48733SOL     OW56128   5.022   1.104   5.794 -0.5443 -0.2595  0.5002
48733SOL    HW156129   4.982   1.191   5.803 -0.2179 -0.1208  0.6077
48733SOL    HW256130   4.960   1.056   5.739  0.2567  0.6979 -1.3421
48734SOL     OW56131   1.485   2.901   2.630  0.6375 -0.5866  0.0830
48734SOL    HW156132   1.399   2.944   2.625 -0.4063 -2.4867  0.6241
48734SOL    HW256133   1.541   2.954   2.574 -0.5615  1.4137  0.6506
48735SOL     OW56134   3.107   1.545   2.271 -0.0652 -0.2508  0.1587
48735SOL    HW156135   3.079   1.585   2.189  1.0979  0.7532  0.2246
48735SOL    HW256136   3.036   1.563   2.333 -0.1288  0.6054 -0.1564
48736SOL     OW56137  11.597   6.777   1.240  0.3848 -0.3308  0.3457
48736SOL    HW156138  11.544   6.702   1.214  2.8271 -1.6359 -1.2287
48736SOL    HW256139  11.687   6.751   1.222  1.3323  3.2390 -1.0962
48737SOL     OW56140  12.671   7.006   3.254  0.1578 -0.2931  0.4551
48737SOL    HW156141  12.733   6.956   3.201 -0.4696 -2.8251  1.9057
48737SOL    HW256142  12.585   6.972   3.228 -0.3291  0.3257  1.1965
48738SOL     OW56143   9.756   6.205   8.333  0.2562  0.0584  0.2853
48738SOL    HW156144   9.809   6.153   8.393  0.9966  0.2887 -0.1507
48738SOL    HW256145   9.820   6.251   8.278 -0.3768  1.0377  0.3334
48739SOL     OW56146   2.026   0.929  11.605 -0.1384  0.4826 -0.6921
48739SOL    HW156147   2.052   0.931  11.697 -2.4231  1.0796  0.0159
48739SOL    HW256148   2.084   0.991  11.562  0.0906  1.2079  0.6194
48740SOL     OW56149   3.275   4.336   4.171 -0.6849 -0.0597 -0.1297
48740SOL    HW156150   3.317   4.376   4.095  1.7286  0.9944  1.6353
48740SOL    HW256151   3.205   4.282   4.134  0.1295  0.7075 -3.0424
48741SOL     OW56152   3.287   4.829  11.005 -0.5253 -0.0728 -0.9333
48741SOL    HW156153   3.213   4.863  10.954  0.7108  0.2335 -2.6000
48741SOL    HW256154   3.352   4.806  10.939  0.3926 -1.5244  0.4381
48742SOL     OW56155  12.655   2.614   1.598  0.0526 -0.0576  0.0267
48742SOL    HW156156  12.681   2.549   1.663  0.5364 -0.2738 -0.3788
48742SOL    HW256157  12.735   2.663   1.580 -0.1469  0.1928 -0.1888
48743SOL     OW56158  10.566   0.639   3.225 -0.2463 -0.0944  0.9527
48743SOL    HW156159  10.570   0.573   3.294 -2.1058  0.0702  1.2792
48743SOL    HW256160  10.625   0.607   3.157 -1.1494 -2.1568  1.0711
48744SOL     OW56161   5.115   6.303   9.287  0.1167  0.7437  1.4915
48744SOL    HW156162   5.145   6.307   9.378 -0.4108 -1.1151  1.7950
48744SOL    HW256163   5.090   6.212   9.274  1.1605  0.7228 -0.8667
48745SOL     OW56164   5.402   7.898   5.572  0.5246 -0.2567 -0.4526
48745SOL    HW156165   5.490   7.917   5.606 -0.3115  0.5218  1.4352
48745SOL    HW256166   5.417   7.869   5.482  2.7218 -0.3142 -0.1304
48746SOL     OW56167   4.120   5.864   0.435 -0.1387 -0.0011 -0.5896
48746SOL    HW156168   4.097   5.776   0.404  0.6386 -0.3942 -0.0651
48746SOL    HW256169   4.049   5.920   0.401 -0.8583 -0.8841 -0.5933
48747SOL     OW56170   2.872   3.166   5.624 -0.0617 -0.1434 -0.4178
48747SOL    HW156171   2.876   3.234   5.557 -2.0371  1.4766  1.0073
48747SOL    HW256172   2.898   3.086   5.578 -0.6823  1.0147 -2.9340
48748SOL     OW56173  12.112   0.881  11.738  0.0091  0.0598 -0.2314
48748SOL    HW156174  12.080   0.818  11.803 -0.0780  0.1359 -0.2012
48748SOL    HW256175  12.046   0.879  11.668  1.3292 -1.9122 -1.5344
48749SOL     OW56176   9.661   4.086   3.094 -0.5625  0.0472  0.1366
48749SOL    HW156177   9.719   4.011   3.104  1.2418  0.6502 -3.6484
48749SOL    HW256178   9.600   4.060   3.024 -0.9372  1.5057 -0.1150
48750SOL     OW56179   7.994   0.599   0.242  0.0372 -0.2668  0.0239
48750SOL    HW156180   8.011   0.579   0.334  0.2339  1.5241  0.4034
48750SOL    HW256181   8.080   0.616   0.204 -0.0659 -0.7377 -0.4436
48751SOL     OW56182   6.397   8.186  13.308 -0.1997 -0.5368 -0.3157
48751SOL    HW156183   6.405   8.135  13.389  1.0542 -0.5256 -0.4052
48751SOL    HW256184   6.442   8.268  13.327 -0.3833 -0.3128 -0.8401
48752SOL     OW56185   0.871   5.044  12.605  0.4380 -0.5792 -0.1972
48752SOL    HW156186   0.789   4.997  12.591 -0.5788  1.5477 -1.9042
48752SOL    HW256187   0.859   5.091  12.687  0.7169 -1.6834  0.5069
48753SOL     OW56188  12.367  12.768  11.738  0.3083  0.1847 -0.2431
48753SOL    HW156189  12.313  12.835  11.697 -1.0087 -1.1835 -0.8347
48753SOL    HW256190  12.450  12.770  11.689 -0.6249 -0.2834 -1.9142
48754SOL     OW56191   1.049   5.018   7.194  0.3402  0.2650  0.1493
48754SOL    HW156192   1.059   4.924   7.210  0.8798  0.3825  0.5226
48754SOL    HW256193   1.026   5.024   7.101 -0.2406 -0.2670  0.2510
48755SOL     OW56194   9.496  10.682   7.082 -0.7297 -0.0368  0.1922
48755SOL    HW156195   9.464  10.712   6.998 -3.0980 -2.9820 -0.1286
48755SOL    HW256196   9.452  10.737   7.146 -1.4642  0.1062 -0.4283
48756SOL     OW56197  10.942   7.278   6.957 -0.7718  0.1797  0.1636
48756SOL    HW156198  10.985   7.217   6.897 -1.5034  1.2915 -1.5873
48756SOL    HW256199  10.946   7.235   7.042  0.7724 -1.2485 -0.5615
48757SOL     OW56200   7.793   6.849   1.857  0.3296  0.0676 -0.0392
48757SOL    HW156201   7.706   6.835   1.819  0.8966 -1.5621 -0.7781
48757SOL    HW256202   7.853   6.842   1.783  1.3043 -1.3627  0.8622
48758SOL     OW56203  12.423   9.504   9.910 -0.0084 -0.1429  0.1769
48758SOL    HW156204  12.411   9.587   9.863  1.0658 -0.0856 -0.0113
48758SOL    HW256205  12.334   9.476   9.931 -0.3702  1.6563  1.2998
48759SOL     OW56206  11.913   0.008  12.476 -0.7685 -0.3083  0.5963
48759SOL    HW156207  11.914   0.020  12.571 -0.1404  0.3891  0.5137
48759SOL    HW256208  12.006   0.009  12.451 -0.9675  0.7493 -0.1700
48760SOL     OW56209   9.420   3.789  13.312 -0.5244 -0.6020 -0.3120
48760SOL    HW156210   9.499   3.768  13.362 -1.0385 -2.2755 -0.1352
48760SOL    HW256211   9.370   3.708  13.312 -2.4565  0.5328 -0.0565
48761SOL     OW56212  12.929   3.386  12.833 -0.4197  0.7117  0.1024
48761SOL    HW156213  12.888   3.353  12.753 -0.9754  2.5865 -0.4493
48761SOL    HW256214  12.890   3.473  12.846  2.6637  2.2650  0.0639
48762SOL     OW56215   8.796   5.278   4.911  0.1910  0.2802 -0.3350
48762SOL    HW156216   8.879   5.300   4.867 -0.3359 -1.7323 -2.4925
48762SOL    HW256217   8.738   5.250   4.841 -1.4472 -1.0123  1.4418
48763SOL     OW56218   0.571  11.634   5.878 -0.0704 -0.2477 -0.2340
48763SOL    HW156219   0.571  11.711   5.935 -0.7567  0.2492 -0.8824
48763SOL    HW256220   0.524  11.567   5.928  0.8471 -0.3720  0.4832
48764SOL     OW56221   6.125   6.672   3.382 -0.6149 -0.0766  0.2690
48764SOL    HW156222   6.033   6.697   3.375 -0.1907  1.8339  1.0920
48764SOL    HW256223   6.127   6.582   3.349 -2.2492  0.8849 -2.8455
48765SOL     OW56224  11.039   4.319   7.167 -0.2702 -1.1796  0.0850
48765SOL    HW156225  10.974   4.273   7.221 -0.1147 -0.0673  1.2547
48765SOL    HW256226  10.991   4.394   7.131  0.0751 -0.9612  0.0732
48766SOL     OW56227   4.823   4.987  12.129 -0.1978  0.3722  0.1552
48766SOL    HW156228   4.845   4.962  12.039  0.6622 -0.2617  0.5254
48766SOL    HW256229   4.775   4.912  12.164  0.4681  0.1264  0.5719
48767SOL     OW56230   2.666   4.553   4.868  0.3630 -0.2152 -0.1892
48767SOL    HW156231   2.674   4.621   4.801 -0.5493 -2.3865 -2.7029
48767SOL    HW256232   2.574   4.556   4.895  0.0118 -1.1329 -1.1921
48768SOL     OW56233  10.583   6.180  12.736  0.4967  0.3389  0.1055
48768SOL    HW156234  10.667   6.156  12.697  2.1156  2.6374  1.9240
48768SOL    HW256235  10.538   6.096  12.750  1.4566 -0.8066 -2.9228
48769SOL     OW56236   2.954  12.684   5.567  0.4755  0.0259 -0.1170
48769SOL    HW156237   2.877  12.628   5.576  0.1006  0.5708  0.1164
48769SOL    HW256238   3.026  12.631   5.601 -0.0209 -0.0023  0.9352
48770SOL     OW56239   7.124   8.389   7.357  0.2207 -0.4254  0.0438
48770SOL    HW156240   7.165   8.303   7.366 -1.4898 -1.3556 -0.6027
48770SOL    HW256241   7.064   8.379   7.284 -0.8054  1.0175  0.6479
48771SOL     OW56242   3.175   6.419  13.193  0.5115 -0.2157  0.6440
48771SOL    HW156243   3.218   6.372  13.122  0.4690  0.5038  0.1345
48771SOL    HW256244   3.228   6.497  13.207 -0.2406  0.3446  0.4660
48772SOL     OW56245   6.361   2.817   3.458 -0.0301 -0.3278 -0.1465
48772SOL    HW156246   6.307   2.740   3.479 -0.3332  0.2399  1.2724
48772SOL    HW256247   6.433   2.782   3.406 -1.3533 -1.2158 -1.4980
48773SOL     OW56248   6.558   0.557  12.164 -0.8193 -0.0081 -0.0211
48773SOL    HW156249   6.547   0.556  12.260  2.3468  0.6537  0.4550
48773SOL    HW256250   6.647   0.587  12.151 -1.0718 -0.3760 -3.2374
48774SOL     OW56251   3.106  10.426   0.401 -0.1279 -0.2328  0.4952
48774SOL    HW156252   3.043  10.374   0.452 -0.2938  0.6238  1.1831
48774SOL    HW256253   3.186  10.425   0.453  0.1109 -0.4572  0.1240
48775SOL     OW56254  11.084   7.039  11.138  0.2421 -0.4117 -0.4707
48775SOL    HW156255  11.141   7.013  11.066  0.4360  0.5278 -0.6647
48775SOL    HW256256  11.142   7.042  11.214  0.6853  1.5028 -0.8533
48776SOL     OW56257   0.435   2.163   0.757 -0.0778 -0.0034 -0.1587
48776SOL    HW156258   0.475   2.234   0.707  0.3512 -1.2409 -1.6873
48776SOL    HW256259   0.344   2.160   0.726 -0.0909 -0.1072 -0.1134
48777SOL     OW56260   2.474   8.738   6.893  0.1991  0.0046 -0.7687
48777SOL    HW156261   2.417   8.812   6.914  1.4038  0.6519  0.3226
48777SOL    HW256262   2.533   8.770   6.826  0.1901 -0.2393 -0.8964
48778SOL     OW56263  10.208   8.221  10.907 -0.0916  0.0545  0.4140
48778SOL    HW156264  10.134   8.218  10.846 -0.1522 -0.8639  0.5119
48778SOL    HW256265  10.221   8.314  10.925  1.1910  0.5377 -2.5125
48779SOL     OW56266  11.096   1.563  10.155  0.5800 -0.8272  0.6139
48779SOL    HW156267  11.017   1.528  10.196  0.7952 -1.5030  0.4737
48779SOL    HW256268  11.086   1.658  10.160 -1.0653 -0.8491 -0.9456
48780SOL     OW56269   9.717   8.409  10.019  0.0423 -0.2454 -0.7548
48780SOL    HW156270   9.706   8.344  10.088  1.9396 -0.7936 -0.8922
48780SOL    HW256271   9.694   8.363   9.939 -0.5637 -0.1186 -0.6561
48781SOL     OW56272  10.895   7.564   0.128 -0.0152  0.3755 -0.4266
48781SOL    HW156273  10.945   7.486   0.152  0.7321  1.0023  0.0797
48781SOL    HW256274  10.873   7.550   0.036 -1.1274 -1.0880  0.0140
48782SOL     OW56275  11.802   9.981   5.953 -0.4015 -0.0057  0.5540
48782SOL    HW156276  11.727   9.922   5.965 -0.5498 -0.2132 -1.1516
48782SOL    HW256277  11.837   9.958   5.867  1.2529  0.5254  1.0506
48783SOL     OW56278  13.234   1.808  11.288  0.4154 -0.0427  0.1617
48783SOL    HW156279  13.229   1.756  11.208 -1.3767  1.3602 -0.7020
48783SOL    HW256280  13.160   1.777  11.341  0.1170  0.7118  0.1922
48784SOL     OW56281  12.593   8.156   9.854  0.3630 -0.3385  0.1150
48784SOL    HW156282  12.543   8.076   9.872 -0.0591 -0.3075 -0.8631
48784SOL    HW256283  12.638   8.138   9.772  0.3107  0.4122 -0.0789
48785SOL     OW56284   7.131   5.295   3.832  0.1574 -0.0039 -0.6095
48785SOL    HW156285   7.159   5.292   3.740  0.6497 -1.0641 -0.4317
48785SOL    HW256286   7.105   5.206   3.852  2.7338 -0.4893  1.0858
48786SOL     OW56287   5.910  12.992   8.534  0.2907 -0.1721 -0.5500
48786SOL    HW156288   5.872  13.028   8.454 -0.3736 -1.9092 -1.0716
48786SOL    HW256289   5.884  12.900   8.532  3.0973 -1.0531 -0.0458
48787SOL     OW56290   9.812   7.789   8.469 -0.4239  0.2038 -0.3806
48787SOL    HW156291   9.720   7.804   8.489 -0.4315 -1.8915  1.5870
48787SOL    HW256292   9.819   7.694   8.460  1.5059  0.3420 -0.8229
48788SOL     OW56293   0.611   9.637   4.375 -0.0319  0.1105 -0.1044
48788SOL    HW156294   0.516   9.637   4.364 -0.0105  0.0305 -0.3001
48788SOL    HW256295   0.640   9.717   4.333 -0.0545  0.3545  0.3435
48789SOL     OW56296   9.256  12.559  12.380 -0.6869  0.0212  0.0515
48789SOL    HW156297   9.302  12.516  12.453 -0.5779  1.1202  0.6434
48789SOL    HW256298   9.310  12.540  12.304  1.1220  1.7513  0.8103
48790SOL     OW56299   8.368   5.419  11.036 -1.0881  0.9479  0.0511
48790SOL    HW156300   8.400   5.387  10.952  1.3411 -0.9605  1.5648
48790SOL    HW256301   8.303   5.354  11.063 -0.7826  0.7558  0.3191
48791SOL     OW56302  13.188   3.733  10.532 -0.2536  0.1793  0.0024
48791SOL    HW156303  13.243   3.698  10.462  0.0791  0.6877  0.0068
48791SOL    HW256304  13.131   3.796  10.488 -1.3625 -0.8790 -0.1366
48792SOL     OW56305   0.061   8.393  12.163  0.1227 -0.0708 -0.7870
48792SOL    HW156306  -0.028   8.395  12.198 -0.4555 -0.5058 -2.1688
48792SOL    HW256307   0.114   8.358  12.235 -1.1029 -1.4103 -0.4806
48793SOL     OW56308   4.455   7.881   1.921 -1.0520  0.6988 -0.5327
48793SOL    HW156309   4.364   7.860   1.943 -1.3721  2.1516 -0.3629
48793SOL    HW256310   4.506   7.811   1.962 -2.0708  0.0022 -0.4137
48794SOL     OW56311   6.347  11.979   8.903  0.2768  0.0382  0.3050
48794SOL    HW156312   6.425  12.019   8.865  0.0064  1.6620  1.3172
48794SOL    HW256313   6.380  11.916   8.966  0.7511 -0.3489 -0.3302
48795SOL     OW56314   1.475   5.060   6.049  0.0910  0.4945  0.3023
48795SOL    HW156315   1.560   5.063   6.004 -0.9365  3.9490 -1.7939
48795SOL    HW256316   1.497   5.062   6.142  2.2863 -0.1014 -0.1441
48796SOL     OW56317   5.682  10.069   1.457 -0.0597  0.4198 -0.4164
48796SOL    HW156318   5.684  10.165   1.461  0.5171  0.4424 -0.9797
48796SOL    HW256319   5.758  10.046   1.403 -1.4505 -0.2551 -2.1944
48797SOL     OW56320   2.189   7.659   8.779 -0.4828 -0.2787 -0.2563
48797SOL    HW156321   2.242   7.586   8.810 -0.3106 -0.0459  0.0035
48797SOL    HW256322   2.250   7.713   8.728 -0.1947  0.5701  0.9660
48798SOL     OW56323  10.739   6.080   9.874 -0.2389 -0.3171 -0.0206
48798SOL    HW156324  10.717   6.150   9.936  0.8134 -0.1083  0.1426
48798SOL    HW256325  10.708   6.113   9.790 -1.7592 -0.6390  0.3821
48799SOL     OW56326  10.875  10.544  11.486  0.5220 -0.4028  0.6220
48799SOL    HW156327  10.836  10.565  11.401  0.9635  0.8112  0.6969
48799SOL    HW256328  10.846  10.455  11.505 -0.3860 -0.3260 -0.3446
48800SOL     OW56329   2.131  12.023   1.591 -0.1489  0.1289 -0.2316
48800SOL    HW156330   2.059  12.071   1.550 -0.9972 -0.9501 -0.0791
48800SOL    HW256331   2.209  12.053   1.546 -0.8250  0.5133 -1.1834
48801SOL     OW56332   3.062   4.166   9.823  0.1091 -0.0664  0.0575
48801SOL    HW156333   2.997   4.204   9.764 -0.6464 -0.3962  0.6569
48801SOL    HW256334   3.132   4.231   9.826 -1.1279  1.3032  1.0113
48802SOL     OW56335  12.890  13.115  11.454  0.2112 -0.2072 -0.2499
48802SOL    HW156336  12.857  13.186  11.399 -0.7614 -1.3758 -1.2471
48802SOL    HW256337  12.891  13.151  11.543  1.0962  1.4913 -0.8995
48803SOL     OW56338  13.124   5.066   5.729 -0.0249 -0.5631 -0.2153
48803SOL    HW156339  13.100   5.135   5.789 -0.5590  0.1298 -1.2008
48803SOL    HW256340  13.220   5.059   5.737 -0.0355 -0.1166  0.2998
48804SOL     OW56341   1.147  12.082  12.573  0.3322 -0.1291  0.0423
48804SOL    HW156342   1.092  12.015  12.533  1.9955 -0.3624 -2.0082
48804SOL    HW256343   1.182  12.040  12.652 -0.7167 -0.6942  0.2333
48805SOL     OW56344  12.969   2.180   6.185 -0.3065  0.0241  0.2251
48805SOL    HW156345  12.880   2.181   6.219 -0.5177 -0.2039 -0.3065
48805SOL    HW256346  12.959   2.185   6.090  0.1802 -1.5514  0.0562
48806SOL     OW56347   8.137   9.531  10.718  0.3074 -0.6221 -0.4486
48806SOL    HW156348   8.092   9.573  10.645  0.5661  0.7161  0.1318
48806SOL    HW256349   8.220   9.577  10.725  0.9706 -1.8019 -0.3035
48807SOL     OW56350   7.133  10.372   6.190 -0.3525 -0.6205 -0.2130
48807SOL    HW156351   7.159  10.464   6.198  0.8637 -0.9325 -0.4036
48807SOL    HW256352   7.047  10.368   6.232  0.3190  0.2615  1.3241
48808SOL     OW56353  11.356   3.880   0.867  0.1601  0.1762  0.1339
48808SOL    HW156354  11.403   3.959   0.842 -1.0829  1.0055  0.3305
48808SOL    HW256355  11.370   3.819   0.794  0.9905  0.6238 -0.0932
48809SOL     OW56356   8.042   0.105   5.993 -0.0273 -0.0846 -0.4979
48809SOL    HW156357   7.972   0.118   5.930 -0.4008 -1.1343 -0.3331
48809SOL    HW256358   8.029   0.015   6.024  0.6536  0.1267  0.4411
48810SOL     OW56359   7.417   7.737   2.225  0.0790  0.1104  0.4487
48810SOL    HW156360   7.474   7.682   2.171 -0.6395 -0.4256  0.2220
48810SOL    HW256361   7.423   7.824   2.185 -0.7173 -0.3579 -0.7377
48811SOL     OW56362   3.729   6.554   6.183 -0.2972 -0.2214 -0.4615
48811SOL    HW156363   3.643   6.585   6.210  0.1068  0.6061 -0.1044
48811SOL    HW256364   3.791   6.603   6.237  0.5189  1.2223 -2.5707
48812SOL     OW56365   4.756   3.727   1.145  0.0668 -0.2422  0.2753
48812SOL    HW156366   4.673   3.678   1.150  1.1514 -2.3017 -0.4694
48812SOL    HW256367   4.770   3.761   1.233 -1.4407 -0.0563  0.4678
48813SOL     OW56368   1.522   5.849   7.264  0.6503  0.3440 -0.1144
48813SOL    HW156369   1.491   5.801   7.188 -0.9533  0.5331  0.3840
48813SOL    HW256370   1.603   5.891   7.235 -0.9356  2.0397 -2.3596
48814SOL     OW56371  12.345   5.539   2.211 -0.1930 -0.0809 -0.3843
48814SOL    HW156372  12.275   5.523   2.275  0.3436  0.5763  0.3824
48814SOL    HW256373  12.319   5.487   2.134 -1.4370  0.0246 -0.0624
48815SOL     OW56374   0.158   4.852   7.860  0.0898  0.0450  0.1535
48815SOL    HW156375   0.109   4.855   7.942  1.6145  2.4905  1.0916
48815SOL    HW256376   0.234   4.797   7.879 -0.1396 -0.3187  0.0197
48816SOL     OW56377   6.914   8.186  10.176  0.0423  0.4195 -0.3136
48816SOL    HW156378   6.984   8.120  10.174 -0.0070  0.2835  1.0125
48816SOL    HW256379   6.872   8.172  10.261 -1.0997  1.0200 -0.7678
48817SOL     OW56380   7.084  13.180   1.719  0.3300 -0.1730  0.2984
48817SOL    HW156381   7.075  13.086   1.703 -0.0338 -0.5178  2.3345
48817SOL    HW256382   7.178  13.194   1.732  0.6220  0.0960 -1.7434
48818SOL     OW56383   7.648  10.190   6.381  0.5772 -0.0753 -0.4868
48818SOL    HW156384   7.603  10.275   6.381  0.1337 -0.0448  4.0100
48818SOL    HW256385   7.579  10.126   6.400  1.3769 -0.9991 -0.6001
48819SOL     OW56386   2.571   7.027  12.136 -0.1995 -0.0043 -0.1958
48819SOL    HW156387   2.490   6.981  12.155  1.0971 -2.7145 -0.7958
48819SOL    HW256388   2.631   6.999  12.205  0.1562  2.4163  0.5839
48820SOL     OW56389   3.470   9.257   6.039 -0.2494  0.3184 -0.4780
48820SOL    HW156390   3.412   9.333   6.036 -0.7516  0.0222  1.0699
48820SOL    HW256391   3.550   9.290   6.081 -0.7938 -0.1841  1.0000
48821SOL     OW56392   6.907   6.692   0.515 -0.0609 -0.0848 -0.3783
48821SOL    HW156393   6.999   6.668   0.531  0.4846  2.1832  0.1572
48821SOL    HW256394   6.861   6.608   0.516  1.9610 -1.2796 -0.4708
48822SOL     OW56395   3.943   8.019   1.561 -0.6012  0.4258 -0.4148
48822SOL    HW156396   3.882   7.983   1.496 -1.0212  1.3007 -0.5281
48822SOL    HW256397   3.947   8.112   1.540 -1.3303  0.8794  1.2849
48823SOL     OW56398  10.318  12.112  11.278 -0.3885  0.1282  0.7270
48823SOL    HW156399  10.391  12.149  11.228  0.2113 -2.7971 -0.7799
48823SOL    HW256400  10.273  12.188  11.315  2.2430  2.1391  0.0660
48824SOL     OW56401   1.487   7.363   6.918  0.8131 -0.8223 -0.3824
48824SOL    HW156402   1.567   7.410   6.938  1.4495 -1.1723 -1.9169
48824SOL    HW256403   1.495   7.340   6.825 -1.6710  0.3079 -0.9566
48825SOL     OW56404   5.989   0.737   1.363  0.1909  0.1981  0.2592
48825SOL    HW156405   6.014   0.814   1.414  0.2712 -0.1227  0.7108
48825SOL    HW256406   6.031   0.664   1.408 -1.6223 -0.3765  1.0985
48826SOL     OW56407   0.970   5.676   7.671  0.5003  0.0911  0.3461
48826SOL    HW156408   0.909   5.745   7.646  0.0430 -0.2336  0.5586
48826SOL    HW256409   1.013   5.651   7.589  0.8178  0.7581  0.2959
48827SOL     OW56410  10.454  10.442   5.695 -0.4632 -0.6318  0.0034
48827SOL    HW156411  10.401  10.444   5.615 -1.5378 -0.9728  0.6911
48827SOL    HW256412  10.411  10.378   5.751  0.2872 -0.4108  0.8522
48828SOL     OW56413  11.797   8.902   1.945 -0.3020 -0.1285 -0.1874
48828SOL    HW156414  11.705   8.903   1.921 -0.0367 -1.0063 -1.3060
48828SOL    HW256415  11.836   8.834   1.890  1.1366  0.6568 -0.1971
48829SOL     OW56416  11.327   1.934   3.487 -0.0198  0.3765  0.2846
48829SOL    HW156417  11.321   1.839   3.480  0.9331  0.1191  2.2388
48829SOL    HW256418  11.421   1.952   3.493 -0.2262  1.2792  1.2773
48830SOL     OW56419   5.554   5.363   6.628  0.2482 -0.5441 -0.5264
48830SOL    HW156420   5.511   5.361   6.543 -0.7946 -1.0214 -0.0005
48830SOL    HW256421   5.643   5.332   6.610 -0.1042 -1.1193 -1.3597
48831SOL     OW56422   1.016  11.741  10.760  0.3083  0.4508  0.2720
48831SOL    HW156423   1.111  11.756  10.758  0.3461  0.1649 -0.7105
48831SOL    HW256424   1.004  11.669  10.821  0.4278  2.2789  2.5889
48832SOL     OW56425   5.031   8.365   9.075  0.8934  0.2520 -0.3117
48832SOL    HW156426   4.975   8.306   9.025 -0.5232  0.2856  1.1386
48832SOL    HW256427   4.998   8.452   9.053 -1.2029  0.2053  2.1609
48833SOL     OW56428  11.667   9.469   5.061 -0.0030 -0.3671  0.5245
48833SOL    HW156429  11.739   9.531   5.069 -0.1198 -0.2940  1.0712
48833SOL    HW256430  11.610   9.489   5.135 -1.5352  0.7650 -0.8963
48834SOL     OW56431  10.875   9.677   0.379 -0.4924  0.2605 -0.2397
48834SOL    HW156432  10.940   9.702   0.444 -2.4651 -0.7407  2.3103
48834SOL    HW256433  10.796   9.723   0.406 -1.6740 -1.1057 -1.2152
48835SOL     OW56434  10.025   1.923   2.935  0.0138  0.0618 -0.0345
48835SOL    HW156435  10.044   1.842   2.887 -0.8481 -0.6164  0.7345
48835SOL    HW256436  10.110   1.965   2.946  0.7596 -1.6337  1.1421
48836SOL     OW56437   3.286   9.588   0.452  0.0532  0.3778  0.4225
48836SOL    HW156438   3.363   9.603   0.507  0.9063 -1.2389 -0.2285
48836SOL    HW256439   3.225   9.540   0.508  0.2334  0.1736  0.4450
48837SOL     OW56440  12.811   8.664  12.652  0.0551  0.2514  0.6147
48837SOL    HW156441  12.891   8.701  12.691  1.6629 -2.0989 -0.2434
48837SOL    HW256442  12.753   8.739  12.642  1.6990  1.8780  2.3256
48838SOL     OW56443   1.918  13.086  10.567  0.4334 -0.0682 -0.2504
48838SOL    HW156444   1.964  13.025  10.508 -0.1558 -0.4532 -0.3214
48838SOL    HW256445   1.984  13.151  10.590  1.0273 -0.6265 -0.3273
48839SOL     OW56446   9.154   2.445   3.166 -0.1333 -0.0216 -0.0447
48839SOL    HW156447   9.225   2.445   3.102  0.0698  1.1941  0.1452
48839SOL    HW256448   9.078   2.479   3.119 -0.7031 -1.6079 -0.3303
48840SOL     OW56449   1.027   8.071  11.187 -0.2632 -0.2212  0.3978
48840SOL    HW156450   0.981   8.150  11.215 -1.5193 -1.3357  1.6169
48840SOL    HW256451   0.957   8.008  11.169  0.7497 -1.4989  0.8469
48841SOL     OW56452   3.094   1.909   2.351  0.4720  0.1895 -0.1704
48841SOL    HW156453   3.053   1.835   2.397 -2.9634  1.6878 -0.4782
48841SOL    HW256454   3.182   1.914   2.388 -0.9548 -0.6963  3.9488
48842SOL     OW56455  11.737   6.321  12.533 -0.4272 -0.0276 -0.7269
48842SOL    HW156456  11.813   6.350  12.584  0.1784  0.8333 -2.0635
48842SOL    HW256457  11.692   6.259  12.590  0.6185  0.3510  0.5618
48843SOL     OW56458  10.046   6.317   0.418  0.2261 -0.4204 -0.2500
48843SOL    HW156459  10.073   6.266   0.341 -2.3655 -1.5003 -0.5543
48843SOL    HW256460   9.957   6.345   0.398  0.9688  3.0048  0.6111
48844SOL     OW56461  10.702   4.487   4.435  0.6972 -0.4838  0.7019
48844SOL    HW156462  10.686   4.411   4.491  0.7896 -0.1617  1.1720
48844SOL    HW256463  10.622   4.495   4.383  0.6184 -0.7986  0.7703
48845SOL     OW56464  12.851   4.089  11.351 -0.7780  0.5117 -0.0216
48845SOL    HW156465  12.841   4.062  11.442 -0.7524 -0.1749 -0.2175
48845SOL    HW256466  12.873   4.182  11.356 -0.9882  0.5279  0.6623
48846SOL     OW56467  12.986  10.320   2.322 -0.2217 -0.5164 -0.0860
48846SOL    HW156468  13.000  10.257   2.392  0.4486 -0.2736  0.0074
48846SOL    HW256469  13.032  10.399   2.351 -1.5195  0.2187  0.0646
48847SOL     OW56470   4.669   5.762  10.179 -0.0658 -0.2524 -0.0345
48847SOL    HW156471   4.613   5.734  10.107 -0.1115 -1.5099  0.4617
48847SOL    HW256472   4.758   5.748  10.147 -0.0623  0.1964 -0.2269
48848SOL     OW56473  10.411   8.903  10.910  0.3318 -0.3760  0.4048
48848SOL    HW156474  10.410   8.882  11.004 -1.3938 -1.6040  0.1680
48848SOL    HW256475  10.386   8.821  10.867 -1.3565  0.7786 -0.9597
48849SOL     OW56476   4.637   1.844   0.587  1.0184  0.0071  0.8354
48849SOL    HW156477   4.656   1.787   0.513  2.0124  0.0768  1.0273
48849SOL    HW256478   4.665   1.795   0.664 -0.7511 -0.4039  1.2670
48850SOL     OW56479  12.522   1.861   1.010  0.0780  0.2033 -0.0473
48850SOL    HW156480  12.595   1.912   0.975  0.3474  0.4369  0.8158
48850SOL    HW256481  12.481   1.920   1.074 -0.7886  0.0255 -0.4335
48851SOL     OW56482  12.091   6.472   8.615 -0.1635 -0.0014 -0.5720
48851SOL    HW156483  12.120   6.382   8.630  0.7796  0.5329  1.1008
48851SOL    HW256484  12.016   6.483   8.672 -0.1590  0.3220 -0.6274
48852SOL     OW56485  11.195   8.754   0.482 -0.0984  0.3081  0.4665
48852SOL    HW156486  11.118   8.714   0.440 -0.5333 -0.6040  2.0080
48852SOL    HW256487  11.213   8.832   0.430 -0.9101 -0.4578 -1.0577
48853SOL     OW56488   1.515   1.604   7.812 -0.1133  0.1296 -0.0813
48853SOL    HW156489   1.521   1.676   7.875 -0.2516  0.5357 -0.5288
48853SOL    HW256490   1.487   1.645   7.730  1.5013 -0.1501 -0.8150
48854SOL     OW56491   6.581   2.597  10.490  0.1240 -0.1431  0.1651
48854SOL    HW156492   6.638   2.522  10.476  0.8771  0.6702 -1.3223
48854SOL    HW256493   6.640   2.671  10.505 -0.5859  0.3132  0.8151
48855SOL     OW56494   1.385   9.937   6.667  0.4177  0.0500 -0.2236
48855SOL    HW156495   1.319   9.868   6.661  1.4803 -0.9120 -1.5621
48855SOL    HW256496   1.416   9.934   6.757  0.5454 -1.3314 -0.2982
48856SOL     OW56497   3.203   6.351   4.433 -0.4702  0.2715  0.4068
48856SOL    HW156498   3.298   6.364   4.438 -0.6089  1.4899  0.0794
48856SOL    HW256499   3.185   6.287   4.502  0.7834 -1.2002 -0.5472
48857SOL     OW56500   3.244   6.040  12.033  0.1264 -0.0260 -0.2039
48857SOL    HW156501   3.235   6.098  12.109 -0.4701  1.8374 -1.6298
48857SOL    HW256502   3.236   5.952  12.069 -2.4909  0.8348  1.6072
48858SOL     OW56503   7.282   2.837   1.698  1.1368 -0.5069 -0.2543
48858SOL    HW156504   7.322   2.833   1.611  1.0708  1.2738 -0.4077
48858SOL    HW256505   7.202   2.887   1.685  1.0817 -0.2998  0.8104
48859SOL     OW56506   5.815  12.177  13.063 -0.5434  0.5383  0.5363
48859SOL    HW156507   5.847  12.250  13.117  0.9347  1.1012 -1.0229
48859SOL    HW256508   5.839  12.201  12.974  0.0345 -1.9034 -0.0225
48860SOL     OW56509   7.422  11.593   1.726 -0.2356  0.2791  0.4102
48860SOL    HW156510   7.355  11.542   1.680 -0.3425  0.7483  0.0353
48860SOL    HW256511   7.388  11.603   1.815 -1.0997  1.2575 -0.0026
48861SOL     OW56512   4.860   0.679   0.061  0.0862 -0.3728 -0.0794
48861SOL    HW156513   4.871   0.765   0.102  2.1921 -0.4119 -0.4334
48861SOL    HW256514   4.933   0.627   0.095  0.4445 -1.1702 -1.9096
48862SOL     OW56515   3.338   8.595   0.294 -0.1512 -0.0831 -0.1886
48862SOL    HW156516   3.413   8.538   0.279  0.8470  1.3882 -1.0993
48862SOL    HW256517   3.275   8.541   0.340  1.0232 -1.6961 -0.4043
48863SOL     OW56518   7.625  11.003   9.257  0.6179 -0.2939 -0.1981
48863SOL    HW156519   7.685  11.071   9.227 -0.2181  0.6714  0.2416
48863SOL    HW256520   7.667  10.967   9.335  1.4073 -0.7980 -0.8394
48864SOL     OW56521   4.984   4.547   2.166  1.0641 -0.2153  0.0396
48864SOL    HW156522   5.035   4.609   2.219  0.4701  0.3754 -0.0706
48864SOL    HW256523   4.924   4.507   2.229  0.3068  0.5406 -0.1794
48865SOL     OW56524   2.205   3.648   5.668  0.3127 -0.7272 -0.4952
48865SOL    HW156525   2.257   3.568   5.654  2.0021  0.7224 -3.5424
48865SOL    HW256526   2.268   3.719   5.659 -1.2494  1.0321  1.5931
48866SOL     OW56527  10.618  12.127   0.756  0.3581 -0.0921 -0.1804
48866SOL    HW156528  10.708  12.157   0.770 -0.4035  2.7555 -0.7645
48866SOL    HW256529  10.581  12.118   0.844  1.3221 -1.8374  0.0856
48867SOL     OW56530  11.972   6.634   0.462 -0.2796  0.4985  0.4792
48867SOL    HW156531  11.900   6.635   0.525 -0.8230  1.6155 -0.1368
48867SOL    HW256532  11.955   6.709   0.405  0.5179 -0.1573 -0.6460
48868SOL     OW56533  11.708  10.618  12.693  0.0141  0.0679 -0.1867
48868SOL    HW156534  11.640  10.622  12.626 -0.7885 -1.1791  0.5134
48868SOL    HW256535  11.666  10.577  12.768  1.5732 -0.9135  0.2083
48869SOL     OW56536   7.160   6.793   5.311 -0.3887  0.5220 -0.1677
48869SOL    HW156537   7.254   6.803   5.293 -0.4410 -1.7785 -2.4101
48869SOL    HW256538   7.118   6.852   5.248 -0.4589  0.9821  0.3097
48870SOL     OW56539   8.038   5.032  12.212 -0.0733  0.0144 -0.0012
48870SOL    HW156540   8.065   4.975  12.283 -0.0683  1.0471  0.8492
48870SOL    HW256541   8.069   4.988  12.132 -0.1513 -1.1930  0.6098
48871SOL     OW56542   2.192   2.714   3.668 -0.5413 -0.3009 -0.6852
48871SOL    HW156543   2.192   2.681   3.578 -0.3001 -0.3942 -0.6518
48871SOL    HW256544   2.129   2.658   3.714  0.6787 -1.4626 -0.3604
48872SOL     OW56545   5.716   0.015  12.180  0.3948  0.0408 -0.1691
48872SOL    HW156546   5.653  -0.050  12.151  0.8479 -0.9892  1.0492
48872SOL    HW256547   5.725   0.075  12.106 -0.3558 -1.0284 -1.1624
48873SOL     OW56548   8.078   6.523  10.215  0.5430 -0.2101  0.2817
48873SOL    HW156549   8.145   6.487  10.156  1.1933 -2.0924  2.0620
48873SOL    HW256550   8.122   6.534  10.299 -0.3263  2.5482  0.4746
48874SOL     OW56551  10.415   9.664   8.774  0.1701 -0.2628  0.3310
48874SOL    HW156552  10.339   9.664   8.715  1.2774 -0.7125 -1.1663
48874SOL    HW256553  10.381   9.636   8.858 -1.3378 -0.3977 -0.2977
48875SOL     OW56554  11.788   3.705   5.409 -0.2829  0.5293 -0.0310
48875SOL    HW156555  11.700   3.677   5.434 -0.2674 -0.2310 -0.7805
48875SOL    HW256556  11.802   3.668   5.322  1.7487 -1.6241  1.0851
48876SOL     OW56557   0.674   3.372  12.485 -0.8555 -0.2500 -0.4878
48876SOL    HW156558   0.692   3.292  12.534  0.0254  0.6827  0.7593
48876SOL    HW256559   0.696   3.443  12.545  1.0819  0.9710 -2.4849
48877SOL     OW56560  11.401   5.435   4.040  0.0521 -0.0327  0.0222
48877SOL    HW156561  11.484   5.482   4.028  0.6768 -0.4619  2.2436
48877SOL    HW256562  11.337   5.503   4.059  0.2276  0.1736 -0.1205
48878SOL     OW56563  12.413   8.043   2.023  0.7686 -0.3006  0.7841
48878SOL    HW156564  12.354   8.048   2.099 -1.4165 -0.6451 -0.7933
48878SOL    HW256565  12.410   7.951   1.996  1.7690 -0.2447  0.4271
48879SOL     OW56566  12.329   0.602   1.188 -0.3944  0.2942 -0.1385
48879SOL    HW156567  12.347   0.660   1.114 -0.5097 -0.1367 -0.5043
48879SOL    HW256568  12.257   0.644   1.235 -1.0482  0.0189 -0.8790
48880SOL     OW56569  11.327   2.894   9.874  0.3279  0.1606 -0.2281
48880SOL    HW156570  11.389   2.833   9.913 -0.2635  0.4874  1.2863
48880SOL    HW256571  11.242   2.849   9.879  0.3798 -0.2637 -2.2250
48881SOL     OW56572   2.196   1.802   4.193  0.0351  0.1823  0.4105
48881SOL    HW156573   2.207   1.738   4.263  1.7719 -1.3310 -1.1340
48881SOL    HW256574   2.219   1.755   4.113 -0.7194  2.1620 -1.0737
48882SOL     OW56575   3.800  12.592   8.953 -0.2388 -0.3647 -0.1171
48882SOL    HW156576   3.893  12.576   8.940 -0.3028 -1.4175  0.6584
48882SOL    HW256577   3.762  12.506   8.968 -1.2009  0.1396  0.4453
48883SOL     OW56578   5.865   5.925   6.796 -0.2569  0.2083 -0.5838
48883SOL    HW156579   5.809   5.928   6.874 -1.2591 -0.4897 -1.2563
48883SOL    HW256580   5.944   5.879   6.825  0.4828  2.1486  0.6661
48884SOL     OW56581   2.352   1.722   8.403  0.4519 -0.0324 -0.0017
48884SOL    HW156582   2.383   1.691   8.318 -0.7393  1.2420 -0.9458
48884SOL    HW256583   2.259   1.702   8.403  0.7441 -1.6439  1.7933
48885SOL     OW56584   4.236   8.264   6.256  0.2633 -0.2679 -0.2832
48885SOL    HW156585   4.284   8.253   6.174  0.9271 -1.6280  0.2504
48885SOL    HW256586   4.235   8.176   6.295 -1.2922  0.0544  0.4838
48886SOL     OW56587   7.191  10.206   9.314  0.2450 -0.1278  0.1781
48886SOL    HW156588   7.283  10.201   9.341  0.4052  1.2189 -0.0585
48886SOL    HW256589   7.195  10.201   9.218 -0.0726 -1.6484  0.2171
48887SOL     OW56590   6.218  11.419  12.403 -0.2885  0.0905 -0.2286
48887SOL    HW156591   6.311  11.402  12.413 -0.0783  1.3176  0.1367
48887SOL    HW256592   6.189  11.359  12.335  0.5193 -1.0977  0.4506
48888SOL     OW56593  10.612  10.993   3.347  0.0569 -0.6517  0.3329
48888SOL    HW156594  10.520  11.007   3.322  0.0902 -0.6386  0.2191
48888SOL    HW256595  10.607  10.937   3.425 -0.0577 -0.4436  0.4772
48889SOL     OW56596  11.300   0.437   4.467 -0.1901  0.5499  0.3492
48889SOL    HW156597  11.274   0.529   4.476 -0.6969  0.6459 -1.5167
48889SOL    HW256598  11.339   0.414   4.551 -0.5801  2.3010  1.0540
48890SOL     OW56599   1.857   9.013   9.173 -0.2652  0.0254 -0.2295
48890SOL    HW156600   1.863   9.009   9.078  0.8555  0.6519 -0.2048
48890SOL    HW256601   1.941   8.981   9.204 -0.5111  0.1011  0.5475
48891SOL     OW56602   5.398   7.165   3.837 -0.0937  0.4976  0.0049
48891SOL    HW156603   5.326   7.227   3.844 -0.0194  0.4699  1.5034
48891SOL    HW256604   5.436   7.163   3.925  0.1960 -1.3194 -0.1257
48892SOL     OW56605  11.035   9.148  10.002  0.9121  0.2488  0.1968
48892SOL    HW156606  11.083   9.179  10.079  2.1900  0.0172 -0.4985
48892SOL    HW256607  10.992   9.226   9.968 -0.9540  0.1080  1.9947
48893SOL     OW56608   3.834   6.712  12.562  0.5788 -0.2175  0.1107
48893SOL    HW156609   3.880   6.683  12.641  1.5632  0.0846 -0.3417
48893SOL    HW256610   3.812   6.803  12.579 -2.8380 -1.1497  1.6849
48894SOL     OW56611  10.199   4.750  13.116 -0.4100  0.2942  0.1563
48894SOL    HW156612  10.210   4.845  13.107 -0.8006  0.2289 -1.1031
48894SOL    HW256613  10.130   4.727  13.054  0.8687 -1.0477 -0.8567
48895SOL     OW56614   8.285   9.303   0.013 -0.1079 -0.0823 -0.3939
48895SOL    HW156615   8.332   9.306   0.096 -0.6553  0.3486 -0.0964
48895SOL    HW256616   8.285   9.210  -0.011  0.1049 -0.2000  0.0526
48896SOL     OW56617   5.142   6.369  10.058 -0.4213  0.2323  0.2158
48896SOL    HW156618   5.084   6.325  10.120 -1.2617  1.3490  0.2447
48896SOL    HW256619   5.139   6.461  10.083 -1.2434  0.8066 -1.8271
48897SOL     OW56620   9.630  12.138   1.668 -0.5491  0.6737  0.0042
48897SOL    HW156621   9.693  12.208   1.686 -0.1298  0.4106 -0.4101
48897SOL    HW256622   9.564  12.147   1.736 -1.3553  2.4650 -0.9448
48898SOL     OW56623   9.072  11.750   8.676 -0.0350  0.4404  0.3812
48898SOL    HW156624   9.086  11.658   8.653 -0.5221  0.1474  1.1943
48898SOL    HW256625   9.032  11.789   8.598  2.5804  0.6287 -0.9626
48899SOL     OW56626  10.992   0.681   2.874 -0.3619 -0.3274  0.0177
48899SOL    HW156627  10.919   0.737   2.846 -1.1059  0.2329  2.7536
48899SOL    HW256628  11.071   0.731   2.852 -0.7009 -0.9342 -2.9707
48900SOL     OW56629   7.869  10.105   2.339  0.0642 -0.4396  0.3105
48900SOL    HW156630   7.929  10.040   2.378  0.9079 -1.4943 -2.4476
48900SOL    HW256631   7.922  10.185   2.332 -0.4363  0.0863  2.2004
48901SOL     OW56632  12.878   9.645   2.352  0.4318 -0.3151 -0.0626
48901SOL    HW156633  12.833   9.670   2.432  0.6344 -0.6420  0.1529
48901SOL    HW256634  12.971   9.646   2.374  0.4239 -2.2692  0.2642
48902SOL     OW56635  11.281   6.616   2.950  0.2471 -0.1982 -0.7603
48902SOL    HW156636  11.324   6.640   2.868 -0.5147  1.2905 -0.7549
48902SOL    HW256637  11.308   6.684   3.012 -1.2691  0.1875 -0.4931
48903SOL     OW56638   2.116   1.483   6.624 -0.4290 -0.4733 -0.6076
48903SOL    HW156639   2.048   1.494   6.557 -0.0921  1.3705 -0.6863
48903SOL    HW256640   2.148   1.572   6.641  1.2131 -1.1840  0.2258
48904SOL     OW56641   3.319  12.302  12.055  0.1963  0.1182  0.3138
48904SOL    HW156642   3.375  12.369  12.095  1.4622 -0.4460 -0.4320
48904SOL    HW256643   3.338  12.222  12.104 -2.0164  0.4331  1.8251
48905SOL     OW56644  10.836   3.267   5.099 -0.2191 -0.4004 -0.0104
48905SOL    HW156645  10.845   3.177   5.128 -1.7089 -0.3751  0.6112
48905SOL    HW256646  10.887   3.318   5.162  2.2373 -0.9067 -1.4457
48906SOL     OW56647  12.657   8.801   9.180 -0.3214 -0.0499 -0.0484
48906SOL    HW156648  12.585   8.826   9.122 -1.0780 -1.6148  0.1601
48906SOL    HW256649  12.729   8.779   9.122  0.8088  3.5099 -0.2448
48907SOL     OW56650   7.168   0.258   0.145 -0.1091 -0.0637  0.8124
48907SOL    HW156651   7.147   0.315   0.220  1.6525  0.8880  0.6506
48907SOL    HW256652   7.241   0.205   0.177  1.2038  0.9140 -0.4309
48908SOL     OW56653   5.129   5.580  11.671  0.3605 -0.3221  0.0150
48908SOL    HW156654   5.165   5.573  11.582 -0.1225 -1.8996 -0.0886
48908SOL    HW256655   5.147   5.495  11.711 -1.4027 -0.4508  0.6476
48909SOL     OW56656  10.460   4.866   4.872  0.6327  0.1683  0.4583
48909SOL    HW156657  10.384   4.825   4.913  0.7903 -0.7216 -0.1080
48909SOL    HW256658  10.429   4.954   4.848 -0.3337 -0.3018 -0.0930
48910SOL     OW56659  10.476  12.724   1.533 -0.1793  0.5360 -0.5765
48910SOL    HW156660  10.518  12.762   1.457  0.2882  0.1420 -0.5235
48910SOL    HW256661  10.454  12.798   1.589  2.1266  0.6691  0.2477
48911SOL     OW56662   3.590   8.173   4.712 -0.1819  0.0890  0.3211
48911SOL    HW156663   3.659   8.158   4.647 -0.8066  0.7136 -0.5016
48911SOL    HW256664   3.555   8.086   4.731  0.3741 -0.1562  0.2401
48912SOL     OW56665  12.235  12.209  12.272  0.3773  0.8470 -1.1898
48912SOL    HW156666  12.271  12.218  12.360  1.2761 -0.7717 -1.3660
48912SOL    HW256667  12.147  12.175  12.286  0.2557  1.2539 -0.9110
48913SOL     OW56668  10.994   8.913   4.990 -0.1368 -0.3250 -0.4328
48913SOL    HW156669  10.964   8.842   5.047 -0.7245 -0.8244 -1.3419
48913SOL    HW256670  10.934   8.985   5.009  0.3696 -0.1057  0.3872
48914SOL     OW56671   2.250   0.771   7.621 -0.5790  0.0005  0.4185
48914SOL    HW156672   2.264   0.683   7.654  0.6597  0.7906  2.1796
48914SOL    HW256673   2.162   0.770   7.584 -0.9170 -1.7277  1.1945
48915SOL     OW56674   0.647   2.000   5.438 -0.5425 -0.3207 -0.1375
48915SOL    HW156675   0.735   2.037   5.442  0.0908 -1.6202 -1.2067
48915SOL    HW256676   0.588   2.076   5.436  0.4970  0.5586  1.3250
48916SOL     OW56677   4.207  12.848  13.085  0.1998 -0.0079  0.5608
48916SOL    HW156678   4.192  12.765  13.130 -1.1514 -0.4885 -0.7117
48916SOL    HW256679   4.138  12.905  13.117  1.0155  0.6075  1.2912
48917SOL     OW56680   5.098  12.192   1.690 -0.0083  0.4516 -0.4868
48917SOL    HW156681   5.140  12.117   1.733 -0.1856  0.7248  0.1743
48917SOL    HW256682   5.053  12.238   1.760  0.2716  1.3044 -0.8456
48918SOL     OW56683  13.166  12.020   3.241  0.1445  0.0377 -0.0825
48918SOL    HW156684  13.237  12.077   3.270 -0.6171  0.7689  0.3929
48918SOL    HW256685  13.153  12.043   3.149 -1.3569  1.9851  0.5513
48919SOL     OW56686   3.281  12.641  10.423 -0.1242  0.3691  0.3892
48919SOL    HW156687   3.241  12.676  10.343  1.2179 -0.5581 -0.7278
48919SOL    HW256688   3.211  12.592  10.466 -0.0474 -1.9543 -1.9543
48920SOL     OW56689   6.508  12.122   2.357 -0.2580  0.0881  0.3128
48920SOL    HW156690   6.567  12.052   2.385  1.9131  0.5251 -2.7272
48920SOL    HW256691   6.543  12.201   2.397 -0.5329 -0.0414  0.8164
48921SOL     OW56692   9.157   0.360  12.495  0.5184  0.1590 -0.0677
48921SOL    HW156693   9.243   0.319  12.487  0.4475  0.3672 -2.6663
48921SOL    HW256694   9.155   0.426  12.426 -1.6711  0.2692  0.0188
48922SOL     OW56695   0.072  13.121   5.013 -0.2550  0.3507 -0.3096
48922SOL    HW156696   0.016  13.198   5.026 -1.4958 -0.4431 -0.8089
48922SOL    HW256697   0.032  13.074   4.940 -0.1882 -1.3497  0.6838
48923SOL     OW56698   4.747  13.250   5.465  0.1690 -0.0259  0.0592
48923SOL    HW156699   4.689  13.249   5.389  2.0059 -1.8780 -1.4479
48923SOL    HW256700   4.767  13.343   5.479 -0.4413  0.3819 -1.5603
48924SOL     OW56701  11.832   7.115   1.822  0.1863  0.6250  0.0200
48924SOL    HW156702  11.834   7.121   1.918  1.1256  0.5768  0.0114
48924SOL    HW256703  11.848   7.022   1.804 -2.3124  0.1527 -0.1503
48925SOL     OW56704  13.157  11.715   4.676 -0.0884  0.3600  0.1254
48925SOL    HW156705  13.238  11.670   4.698 -1.3711 -0.2992  4.2703
48925SOL    HW256706  13.184  11.805   4.657  1.6560  0.0284  0.8473
48926SOL     OW56707   3.127   0.346   3.561 -0.1497 -0.4113  0.0828
48926SOL    HW156708   3.194   0.414   3.566 -1.1747  0.5614  1.3284
48926SOL    HW256709   3.101   0.332   3.652 -0.3854 -2.0588 -0.2143
48927SOL     OW56710   0.231   9.342  12.499  0.2947  0.4857  0.1469
48927SOL    HW156711   0.247   9.413  12.560  0.3003 -0.4365  1.2483
48927SOL    HW256712   0.142   9.313  12.518  0.0300  0.6443 -0.7761
48928SOL     OW56713  12.368   1.630   3.642  0.4122  0.7687 -0.0909
48928SOL    HW156714  12.379   1.588   3.557 -1.4877  0.1526 -0.0718
48928SOL    HW256715  12.398   1.564   3.705 -2.1743 -0.5179 -0.0867
48929SOL     OW56716   5.450   0.547   1.422 -0.0571 -0.3896 -0.0201
48929SOL    HW156717   5.392   0.497   1.364 -0.0159 -1.1302  0.5650
48929SOL    HW256718   5.538   0.531   1.387 -0.2049  1.0535 -1.1493
48930SOL     OW56719   0.759   3.690   9.224  0.3417  0.1274 -0.1658
48930SOL    HW156720   0.669   3.662   9.210  1.0573 -2.4983 -0.0706
48930SOL    HW256721   0.755   3.785   9.225 -2.3387  0.0891 -0.6518
48931SOL     OW56722   1.904   5.556  10.087  0.0393 -0.8667  0.0123
48931SOL    HW156723   1.982   5.601  10.055 -0.2439  0.0799  0.6169
48931SOL    HW256724   1.913   5.558  10.182  0.4245 -2.8409  0.0494
48932SOL     OW56725  11.742   7.781  10.853 -0.3109 -0.0335 -0.4991
48932SOL    HW156726  11.822   7.729  10.850 -0.8928 -0.9657 -0.2252
48932SOL    HW256727  11.757   7.845  10.923  1.0067  1.2106 -1.8381
48933SOL     OW56728   1.051   2.138   8.050  0.2095  0.0367  0.6416
48933SOL    HW156729   1.096   2.097   8.123  1.1477 -1.2588 -0.6261
48933SOL    HW256730   1.117   2.193   8.008 -0.0550  0.0394  0.2157
48934SOL     OW56731   6.746  11.197   2.816  0.2661  0.3705  0.0299
48934SOL    HW156732   6.789  11.178   2.733  2.0804 -0.3291  1.0648
48934SOL    HW256733   6.798  11.268   2.855  0.0709  0.0054  0.9988
48935SOL     OW56734   9.431   6.768   6.174 -0.4960  0.4535 -0.3326
48935SOL    HW156735   9.451   6.674   6.171  0.4482  0.5940  1.0300
48935SOL    HW256736   9.505   6.808   6.219 -0.8315  1.8873 -0.9920
48936SOL     OW56737   4.564   6.541   7.515 -0.3669 -0.4125  0.2492
48936SOL    HW156738   4.516   6.481   7.574 -0.5357  0.5154  1.0872
48936SOL    HW256739   4.581   6.618   7.569  0.3567  0.0650 -0.6448
48937SOL     OW56740   7.804  11.885   6.611  0.0515  0.1917 -0.2933
48937SOL    HW156741   7.718  11.913   6.642  0.0176 -0.8882  0.6898
48937SOL    HW256742   7.865  11.944   6.654 -0.1798  0.9310 -0.9551
48938SOL     OW56743  10.523  10.289   1.119  0.0055  0.6907 -0.2837
48938SOL    HW156744  10.432  10.313   1.104  0.0778  1.9718  1.0972
48938SOL    HW256745  10.571  10.332   1.049 -0.4935 -0.7213 -1.5542
48939SOL     OW56746   6.405   4.035   5.109  0.1362 -0.6744 -0.7944
48939SOL    HW156747   6.333   4.085   5.071 -0.0382 -1.3826 -1.4157
48939SOL    HW256748   6.479   4.054   5.051  0.3985 -0.1191 -0.2818
48940SOL     OW56749   3.974  10.717   6.488  0.0531 -0.5058 -0.1007
48940SOL    HW156750   4.002  10.671   6.409 -0.4958 -0.6479 -0.2106
48940SOL    HW256751   3.932  10.796   6.456 -0.7285 -0.8653  0.0271
48941SOL     OW56752   6.678   3.630   4.402 -0.1429 -0.0855 -0.0712
48941SOL    HW156753   6.654   3.634   4.309 -0.8879 -1.0632  0.0598
48941SOL    HW256754   6.755   3.574   4.405  1.6839  2.2848 -0.3869
48942SOL     OW56755   5.495   0.980   7.705  0.0069  0.1399 -0.1311
48942SOL    HW156756   5.526   1.068   7.685  0.3050  0.0092 -0.2449
48942SOL    HW256757   5.542   0.923   7.644  0.4835 -0.1950  0.5285
48943SOL     OW56758   8.387   7.990  12.356  0.2942  0.0773 -0.1343
48943SOL    HW156759   8.309   7.945  12.323  0.4956 -0.3606 -0.0086
48943SOL    HW256760   8.355   8.077  12.382  0.0572  0.3023 -1.1320
48944SOL     OW56761   3.201   4.531   7.867  0.1062  0.5798 -0.4532
48944SOL    HW156762   3.202   4.624   7.889  0.7064  0.6494 -0.7456
48944SOL    HW256763   3.122   4.520   7.813  1.0000  1.3186 -2.0034
48945SOL     OW56764   4.590   2.782   4.077  0.0171  0.3216 -0.1819
48945SOL    HW156765   4.499   2.771   4.106 -0.8270  0.0168 -2.7145
48945SOL    HW256766   4.609   2.875   4.094 -1.7788  1.1116 -2.0875
48946SOL     OW56767  11.370   3.253   8.474 -0.5001  0.2509  0.1547
48946SOL    HW156768  11.445   3.234   8.530 -1.7923 -1.2170  1.4584
48946SOL    HW256769  11.339   3.339   8.505  0.1605  0.5138  0.1131
48947SOL     OW56770   7.264   5.447   9.929 -0.4972  0.2274  0.3050
48947SOL    HW156771   7.359   5.450   9.916 -0.4097  0.6315  0.9550
48947SOL    HW256772   7.243   5.354   9.932 -0.4950  0.0624 -2.2525
48948SOL     OW56773   2.183   4.209   0.067 -0.5065  0.1932  0.8780
48948SOL    HW156774   2.192   4.176  -0.023 -0.3220 -1.0405  1.3210
48948SOL    HW256775   2.255   4.167   0.114  0.6272  2.3723  1.2148
48949SOL     OW56776  11.160   7.817   0.510 -0.3373 -0.0620  0.2607
48949SOL    HW156777  11.197   7.731   0.532 -1.2493 -0.3069  0.8935
48949SOL    HW256778  11.203   7.878   0.569  0.6268 -0.0052 -0.4789
48950SOL     OW56779   0.511  11.558   6.258  0.2574 -0.4268 -0.2574
48950SOL    HW156780   0.437  11.545   6.318 -1.0441  0.2688 -1.6490
48950SOL    HW256781   0.587  11.527   6.307 -0.6336  0.7266  2.0202
48951SOL     OW56782   8.077   5.286   1.748 -0.2022  0.1818  0.7366
48951SOL    HW156783   8.074   5.374   1.710  1.0200 -0.4024 -0.8099
48951SOL    HW256784   8.005   5.285   1.812 -2.9180  1.0136 -2.0795
48952SOL     OW56785   3.040   6.479   7.532  0.0912  0.3321  0.1432
48952SOL    HW156786   2.999   6.496   7.447  0.1195 -0.7727 -0.1079
48952SOL    HW256787   3.005   6.394   7.559  2.7411 -1.0696 -0.4451
48953SOL     OW56788   8.864   0.466   1.580  0.3348  0.0734 -0.2721
48953SOL    HW156789   8.839   0.543   1.631 -0.4747 -0.2536 -0.1626
48953SOL    HW256790   8.960   0.473   1.571  0.2982  0.9532 -0.0542
48954SOL     OW56791   4.941   2.734  10.132  0.6485 -0.1618  0.1337
48954SOL    HW156792   4.996   2.812  10.141  0.4969 -0.0126 -0.2024
48954SOL    HW256793   4.990   2.677  10.074  3.0963 -2.4518  4.0264
48955SOL     OW56794   7.903   1.824   9.874  0.6648  0.0418 -0.3478
48955SOL    HW156795   7.955   1.894   9.914  0.6937 -0.4553  0.5191
48955SOL    HW256796   7.813   1.843   9.900  0.7470 -0.5887  0.4578
48956SOL     OW56797   1.463   8.682  12.007 -0.2810  0.3753  0.6256
48956SOL    HW156798   1.510   8.599  12.007 -2.1861 -0.8041 -1.0267
48956SOL    HW256799   1.531   8.748  11.995  1.0716 -1.1540 -0.6272
48957SOL     OW56800   8.833   2.616   3.235  0.3112  0.4161  0.4716
48957SOL    HW156801   8.857   2.704   3.264 -1.7988  0.6274  1.8396
48957SOL    HW256802   8.778   2.630   3.158 -0.3381  0.3389  0.9142
48958SOL     OW56803   5.913   8.358   9.435  0.5113 -0.9131 -0.1890
48958SOL    HW156804   5.835   8.340   9.488 -0.3025  0.7584 -0.7368
48958SOL    HW256805   5.935   8.273   9.396 -0.6196 -1.5601  0.5077
48959SOL     OW56806   2.792   4.871   3.865 -0.6375 -0.0024  0.7015
48959SOL    HW156807   2.858   4.868   3.935  1.0513  0.6711 -0.7917
48959SOL    HW256808   2.783   4.965   3.846  0.2621 -0.2424 -1.1344
48960SOL     OW56809   0.492   8.956   2.051  0.0234 -0.0007  0.6577
48960SOL    HW156810   0.455   9.012   2.119 -1.8704 -0.6730  0.2490
48960SOL    HW256811   0.421   8.898   2.026  1.8878 -2.5859  1.0004
48961SOL     OW56812   7.315   5.644  10.817  0.0917 -0.0300  0.5453
48961SOL    HW156813   7.276   5.669  10.733  0.8939 -0.6379 -0.0356
48961SOL    HW256814   7.308   5.549  10.819  0.1207 -0.0238  1.1566
48962SOL     OW56815   9.580   4.471   1.227 -0.0460  0.1841  0.4756
48962SOL    HW156816   9.528   4.552   1.233  1.1592  1.0296 -0.1468
48962SOL    HW256817   9.598   4.461   1.134  1.3887  0.2419  0.7273
48963SOL     OW56818   4.225   6.360  13.237 -1.0911 -0.2310  0.6064
48963SOL    HW156819   4.192   6.379  13.149 -1.9198  0.6764  1.0913
48963SOL    HW256820   4.262   6.443  13.267  0.1033 -0.7981  0.7390
48964SOL     OW56821   0.698   6.839   0.044 -0.2928 -0.5344 -0.2918
48964SOL    HW156822   0.739   6.803  -0.035  0.9428  1.1979 -0.5000
48964SOL    HW256823   0.605   6.850   0.020  0.1978  0.6548 -1.7984
48965SOL     OW56824   0.231   9.545  11.169 -0.3503 -0.3206  0.2041
48965SOL    HW156825   0.308   9.498  11.136  0.6247  0.6314  1.0178
48965SOL    HW256826   0.188   9.579  11.091 -0.0100 -0.9667 -0.2751
48966SOL     OW56827   2.514  13.236   6.250 -0.1172 -0.2083  0.6657
48966SOL    HW156828   2.568  13.158   6.239 -0.3872 -0.5161  1.4867
48966SOL    HW256829   2.576  13.305   6.272  0.2828  0.1261 -1.3111
48967SOL     OW56830  12.711   0.227   5.503 -0.2611  0.1967  0.4277
48967SOL    HW156831  12.706   0.280   5.582  1.1553  0.9462  0.0407
48967SOL    HW256832  12.775   0.159   5.524 -1.4258 -0.8869  0.6218
48968SOL     OW56833   0.264   8.663   8.879 -0.0744  0.2218 -0.0893
48968SOL    HW156834   0.343   8.681   8.828  1.2631  1.4733  2.2469
48968SOL    HW256835   0.242   8.573   8.857  2.6260 -0.5369 -0.0840
48969SOL     OW56836   6.666   9.316   8.747 -0.6472 -0.2455 -0.6319
48969SOL    HW156837   6.718   9.396   8.740 -0.3377 -0.5644 -2.1806
48969SOL    HW256838   6.690   9.280   8.832  1.1226  0.0027 -0.9802
48970SOL     OW56839  10.794   1.181  10.706 -0.2573  0.2064 -0.1948
48970SOL    HW156840  10.861   1.245  10.681 -0.2987 -0.2533 -1.6031
48970SOL    HW256841  10.833   1.096  10.687 -0.3717 -0.1777  1.2313
48971SOL     OW56842   0.479   8.131   6.157  0.8723  0.3989  0.1276
48971SOL    HW156843   0.482   8.210   6.212  0.9239  0.1888  0.4316
48971SOL    HW256844   0.443   8.064   6.215 -1.8679  0.8416 -0.9351
48972SOL     OW56845   3.358   1.302   5.472  0.2942 -0.4072 -0.5509
48972SOL    HW156846   3.264   1.299   5.489  0.2967  2.0829  0.3082
48972SOL    HW256847   3.394   1.229   5.523 -0.9296  0.2247  1.3194
48973SOL     OW56848   4.389   0.700   7.795 -0.0573 -0.1096  0.4102
48973SOL    HW156849   4.327   0.703   7.868 -1.7010 -1.9416 -0.8102
48973SOL    HW256850   4.354   0.633   7.736  2.1447  0.0651 -1.2349
48974SOL     OW56851  10.641   0.554   4.267  0.1072 -0.4458 -0.3585
48974SOL    HW156852  10.684   0.475   4.233  0.0212 -0.2806 -0.8664
48974SOL    HW256853  10.652   0.549   4.362 -1.3092 -1.9110 -0.2210
48975SOL     OW56854   6.813   6.110   0.876  1.2069 -0.0530  0.1745
48975SOL    HW156855   6.818   6.205   0.868 -0.1188 -0.1309 -2.7860
48975SOL    HW256856   6.723   6.092   0.902  1.0626 -0.5518 -0.6554
48976SOL     OW56857   4.804  11.519   0.707 -0.5510  0.0354 -0.0969
48976SOL    HW156858   4.823  11.609   0.732  0.0435 -0.2725  0.5710
48976SOL    HW256859   4.730  11.494   0.762  1.3153 -0.9433  2.1355
48977SOL     OW56860  10.291   5.173   3.404 -0.2440 -0.0440 -0.2668
48977SOL    HW156861  10.286   5.264   3.376  3.7788  0.8245  1.1816
48977SOL    HW256862  10.234   5.168   3.481 -0.6958  1.1860 -0.5076
48978SOL     OW56863   9.999  12.238   4.586 -0.8144  0.3823 -0.3630
48978SOL    HW156864  10.082  12.247   4.632 -0.7343 -1.4676 -0.0468
48978SOL    HW256865  10.024  12.226   4.494 -0.4673 -2.7018  0.0221
48979SOL     OW56866   3.750   5.722   9.201  0.1808  0.0593  0.6877
48979SOL    HW156867   3.725   5.631   9.213  0.7799 -0.3668 -1.1348
48979SOL    HW256868   3.667   5.770   9.200 -0.1005 -0.2915  2.5474
48980SOL     OW56869   4.652   8.331   4.431  0.5173 -0.2620  0.0731
48980SOL    HW156870   4.732   8.380   4.411  1.1716 -1.3340  0.0225
48980SOL    HW256871   4.582   8.385   4.394  1.2220  0.6182 -0.0142
48981SOL     OW56872   9.192  11.940   4.718  0.1609 -0.1000  0.2269
48981SOL    HW156873   9.258  11.968   4.655  1.0296 -2.8175 -0.2252
48981SOL    HW256874   9.125  12.008   4.714  2.6242  2.5426  0.3559
48982SOL     OW56875   4.113   8.238   8.949  0.9264 -0.1657  0.0567
48982SOL    HW156876   4.177   8.168   8.935  0.1362 -0.9634  0.3708
48982SOL    HW256877   4.074   8.252   8.863 -1.1394 -2.3344  0.5413
48983SOL     OW56878   1.567   6.042   1.916  0.9720  0.1699 -0.0859
48983SOL    HW156879   1.659   6.064   1.904  1.0419 -0.9194 -1.8813
48983SOL    HW256880   1.567   5.952   1.950  0.5569  0.1530 -0.1198
48984SOL     OW56881   7.513   6.891  10.108  0.0128  0.1464 -0.3802
48984SOL    HW156882   7.573   6.913  10.178 -2.1188  1.2370  1.2262
48984SOL    HW256883   7.563   6.904  10.027  2.1821 -0.0186  0.8714
48985SOL     OW56884   4.671   7.517   1.848 -0.3009  0.1166  0.0510
48985SOL    HW156885   4.659   7.578   1.920  0.7574  1.9453 -1.2340
48985SOL    HW256886   4.605   7.543   1.784  0.2369  0.0162 -0.5552
48986SOL     OW56887   9.030   7.807   2.378 -0.0279 -0.3416  0.1103
48986SOL    HW156888   8.974   7.884   2.371  1.2148  0.5058 -1.0205
48986SOL    HW256889   8.972   7.734   2.355 -0.8293  0.4288 -0.3966
48987SOL     OW56890   8.086   3.187   3.879 -0.3510  0.2229  0.4069
48987SOL    HW156891   8.008   3.242   3.879  0.5502  1.6590 -1.9422
48987SOL    HW256892   8.150   3.235   3.931  0.0196  0.8129 -0.5589
48988SOL     OW56893   1.948   9.777  12.953  0.1932 -0.1538 -0.9790
48988SOL    HW156894   1.939   9.688  12.987 -0.4019  0.2962  0.0843
48988SOL    HW256895   1.975   9.765  12.862  0.7757 -1.4109 -0.6664
48989SOL     OW56896   0.521   1.758  12.668 -0.1606  0.5016 -0.6470
48989SOL    HW156897   0.599   1.812  12.656  0.9798 -1.1788 -1.2363
48989SOL    HW256898   0.460   1.790  12.602 -0.3254  2.3662  0.3382
48990SOL     OW56899  12.832   3.301   7.665  0.4110 -1.0268  0.1238
48990SOL    HW156900  12.918   3.339   7.683  0.0870  1.4974 -2.7963
48990SOL    HW256901  12.812   3.327   7.575 -3.7483 -0.7826  0.8848
48991SOL     OW56902   7.285  11.426  13.044 -0.2086  0.1833  0.3831
48991SOL    HW156903   7.324  11.343  13.071  0.6489  0.8843  1.3814
48991SOL    HW256904   7.269  11.473  13.126  3.1046  2.6704 -0.1964
48992SOL     OW56905   2.143   7.079   7.412 -0.1219  0.1375 -0.3182
48992SOL    HW156906   2.077   7.123   7.467 -0.1341 -0.6671  0.3344
48992SOL    HW256907   2.192   7.151   7.373  0.6809  0.7806  1.7102
48993SOL     OW56908   7.121   0.817   4.748 -0.1304  0.0071 -0.7390
48993SOL    HW156909   7.211   0.847   4.757 -0.3954  0.4505  0.6371
48993SOL    HW256910   7.127   0.732   4.706  0.9448 -0.1030 -0.3743
48994SOL     OW56911   6.585   0.000   3.311 -0.2808 -0.1641  0.0740
48994SOL    HW156912   6.553   0.089   3.293 -1.4919 -0.3885  0.9902
48994SOL    HW256913   6.645   0.011   3.385 -1.2707 -0.2337  0.9030
48995SOL     OW56914   6.335  13.145  11.019 -0.1988 -0.1092 -0.0906
48995SOL    HW156915   6.270  13.096  10.969  0.5760 -2.1478  0.8159
48995SOL    HW256916   6.355  13.221  10.964 -2.5371  0.0364 -0.8709
48996SOL     OW56917   6.861   0.029   1.740 -0.6684 -0.5283  0.3225
48996SOL    HW156918   6.948  -0.010   1.748 -0.1525  0.8067  1.8954
48996SOL    HW256919   6.801  -0.045   1.748  0.2947 -1.3997 -0.2089
48997SOL     OW56920   5.366   7.772   0.859  0.3317 -0.5979 -0.3406
48997SOL    HW156921   5.353   7.751   0.951  0.4278  1.3374  0.1512
48997SOL    HW256922   5.315   7.852   0.845  1.7831  0.1733 -1.4769
48998SOL     OW56923  10.609  10.688   4.395 -0.2569 -0.2315  0.4717
48998SOL    HW156924  10.639  10.615   4.448 -0.6542 -1.4540 -0.9110
48998SOL    HW256925  10.526  10.658   4.358 -1.2715  1.5735  1.1689
48999SOL     OW56926   3.922   3.233   5.138  0.1620  0.5481  0.0948
48999SOL    HW156927   3.990   3.285   5.180  0.6741 -0.0570  0.0299
48999SOL    HW256928   3.841   3.257   5.184  0.7987 -0.6092  1.9430
49000SOL     OW56929   5.763   5.902   5.361  0.7487  0.6842  0.8085
49000SOL    HW156930   5.795   5.857   5.439  0.9674  0.0475  0.3542
49000SOL    HW256931   5.740   5.832   5.300  1.1702  1.1749  0.0678
49001SOL     OW56932   2.174   5.103  12.172  0.3266  0.3059 -0.0504
49001SOL    HW156933   2.213   5.018  12.150 -0.4672  0.2255 -1.2502
49001SOL    HW256934   2.122   5.126  12.095  0.4205  1.8306  0.3129
49002SOL     OW56935   0.117   2.198   7.398 -0.2589  0.8543 -0.1690
49002SOL    HW156936   0.162   2.194   7.482  0.8830  1.6765 -0.7236
49002SOL    HW256937   0.030   2.161   7.416  0.0773  0.7144  1.2837
49003SOL     OW56938  11.310   0.748   6.379 -0.0350  0.2738  0.3759
49003SOL    HW156939  11.345   0.665   6.347  1.8121  0.8344  0.8268
49003SOL    HW256940  11.266   0.726   6.461  1.3206 -0.1439  1.0172
49004SOL     OW56941   8.034   7.751   4.273  0.4326  0.0925  0.2225
49004SOL    HW156942   8.089   7.764   4.351  0.6457  1.7293 -0.1751
49004SOL    HW256943   8.085   7.789   4.201 -1.2425  1.7604 -0.1429
49005SOL     OW56944   1.489   9.841   6.148 -0.2037  0.3245 -0.3867
49005SOL    HW156945   1.512   9.924   6.189  1.1747 -0.6629  0.9514
49005SOL    HW256946   1.507   9.854   6.055  0.3918  1.3944 -0.1356
49006SOL     OW56947   0.369   7.916   6.329  0.3022  0.6418  0.1822
49006SOL    HW156948   0.416   7.850   6.378  0.1095  0.6047  0.3190
49006SOL    HW256949   0.285   7.926   6.375  0.9918  2.2269  1.2016
49007SOL     OW56950   2.214  11.501   7.131  0.2887  0.0544 -0.3676
49007SOL    HW156951   2.168  11.556   7.068 -0.2634 -1.2062 -1.0844
49007SOL    HW256952   2.163  11.420   7.135  1.1381 -0.4585  0.5897
49008SOL     OW56953   0.480   0.363   3.205  0.9976  0.0432 -0.0924
49008SOL    HW156954   0.528   0.387   3.285  1.1142 -1.8091  0.4339
49008SOL    HW256955   0.388   0.373   3.229  1.0219  2.6163 -0.7866
49009SOL     OW56956   2.285   6.768   4.970 -0.3497 -0.4261 -0.0020
49009SOL    HW156957   2.375   6.772   5.002 -0.0960 -0.3000 -0.7069
49009SOL    HW256958   2.270   6.675   4.953 -0.4902 -0.4956  0.4734
49010SOL     OW56959   0.138   5.453  11.330  0.2645 -0.3366 -0.1377
49010SOL    HW156960   0.114   5.544  11.349  0.4646  0.1100 -1.8064
49010SOL    HW256961   0.232   5.449  11.346  0.3127 -0.1509 -0.3614
49011SOL     OW56962  12.518   0.575   7.104  0.0709 -0.0248  0.0473
49011SOL    HW156963  12.478   0.650   7.060 -0.0495 -0.4860 -0.6517
49011SOL    HW256964  12.597   0.556   7.053  0.5316  0.1113  0.6893
49012SOL     OW56965  13.015   1.855  10.004 -0.2002  0.4720  0.3596
49012SOL    HW156966  13.017   1.936  10.055  1.1469  0.7406 -0.0774
49012SOL    HW256967  13.101   1.816  10.018 -1.7691 -2.4572  2.9700
49013SOL     OW56968   4.636   3.509  12.089 -0.2913 -0.3977  0.1185
49013SOL    HW156969   4.597   3.447  12.151  0.9473 -0.2469  1.0787
49013SOL    HW256970   4.730   3.507  12.107 -0.2301  2.1375  0.5868
49014SOL     OW56971   7.177  11.858   7.194  0.4233 -0.4635 -0.1589
49014SOL    HW156972   7.179  11.952   7.209  0.1306 -0.5757  0.6092
49014SOL    HW256973   7.096  11.843   7.144  1.8510  0.0218 -2.7764
49015SOL     OW56974  12.002   9.751   3.581 -0.0043  0.0059  0.2098
49015SOL    HW156975  11.926   9.728   3.634  1.0567 -0.7577  1.4804
49015SOL    HW256976  12.075   9.754   3.643  0.6020  3.4577 -0.4612
49016SOL     OW56977   9.024   5.474   3.848 -0.2203  0.1365  0.4281
49016SOL    HW156978   9.016   5.378   3.850 -0.5768  0.1740  1.7273
49016SOL    HW256979   8.983   5.500   3.766 -2.5518 -0.6514  1.2536
49017SOL     OW56980   8.644   5.540   3.369 -0.1321 -0.4579 -0.1382
49017SOL    HW156981   8.629   5.607   3.436 -0.3820 -0.6577  0.0056
49017SOL    HW256982   8.629   5.586   3.286  0.9116 -0.0113 -0.1020
49018SOL     OW56983   0.979   9.727   9.160  0.0406 -0.7753  0.1068
49018SOL    HW156984   0.977   9.690   9.072 -1.0653  1.9734 -1.1370
49018SOL    HW256985   0.909   9.682   9.207  0.5018 -2.1165 -0.4407
49019SOL     OW56986  10.164  10.648   1.534 -0.2440  0.2651  0.1229
49019SOL    HW156987  10.123  10.734   1.540 -0.0053  0.4131 -0.3326
49019SOL    HW256988  10.128  10.600   1.608 -1.2418  0.3849 -0.2585
49020SOL     OW56989  10.031  11.739   5.867  0.4736  0.3134 -0.6869
49020SOL    HW156990  10.016  11.649   5.838 -3.4241  0.1152  1.3083
49020SOL    HW256991  10.029  11.734   5.962 -0.1635  2.5516 -0.5314
49021SOL     OW56992   0.120   4.967   6.737  0.3410  0.2322 -0.4926
49021SOL    HW156993   0.148   4.885   6.778  0.3816  0.4588 -0.0505
49021SOL    HW256994   0.111   5.028   6.811 -1.8975  0.0150 -0.5301
49022SOL     OW56995   7.440  11.189  11.560  0.1373 -0.5981 -0.0553
49022SOL    HW156996   7.426  11.119  11.623 -0.2003  0.6758  1.3530
49022SOL    HW256997   7.424  11.269  11.610 -0.3481  0.4653 -1.8190
49023SOL     OW56998   7.225   1.014   9.518  0.3052  0.1110 -0.0255
49023SOL    HW156999   7.282   0.956   9.468 -0.2823  0.6028 -1.3039
49023SOL    HW257000   7.284   1.071   9.567  0.8920 -0.2564 -0.3039
49024SOL     OW57001  10.056  11.681  10.807 -0.3825  0.3944  0.0981
49024SOL    HW157002  10.090  11.611  10.863  0.9755 -0.2268 -1.4233
49024SOL    HW257003  10.082  11.761  10.852  1.9671 -0.0738 -0.2908
49025SOL     OW57004   9.842   1.465  10.194 -0.7577 -0.0599  0.7069
49025SOL    HW157005   9.787   1.461  10.272 -2.1143  0.2948 -0.2019
49025SOL    HW257006   9.789   1.425  10.125  0.5863 -0.7793  0.0353
49026SOL     OW57007  10.729  11.344   9.534  0.2173  0.0743  0.5965
49026SOL    HW157008  10.721  11.372   9.625 -0.4973 -0.0502  0.5791
49026SOL    HW257009  10.781  11.263   9.538  0.1957  0.0750  0.8947
49027SOL     OW57010   3.293   2.970   1.357 -0.9955  0.0552  0.1871
49027SOL    HW157011   3.309   2.889   1.405  1.4840  0.9391  1.0096
49027SOL    HW257012   3.373   2.984   1.307 -0.9233  2.5288  0.8885
49028SOL     OW57013   7.241   6.254   0.936  0.4918  0.0713  0.1493
49028SOL    HW157014   7.262   6.347   0.927  0.6673 -0.0401 -0.7187
49028SOL    HW257015   7.171   6.251   1.001 -0.7895  1.0029 -1.1342
49029SOL     OW57016  10.950   3.086  10.223 -0.3855  0.1423  0.0779
49029SOL    HW157017  11.018   3.135  10.176  0.4500  0.6130  1.7124
49029SOL    HW257018  10.908   3.033  10.155  0.2800  1.3304 -1.3217
49030SOL     OW57019   2.569   6.385   9.407 -0.6842  0.3459  0.8659
49030SOL    HW157020   2.598   6.298   9.379  2.1429  1.2461  0.6036
49030SOL    HW257021   2.508   6.413   9.338  0.5764 -0.3378 -0.5995
49031SOL     OW57022   3.129  11.334   7.770 -0.5247  0.1828 -0.1906
49031SOL    HW157023   3.088  11.261   7.817  0.4771 -0.2555  0.0379
49031SOL    HW257024   3.128  11.406   7.833 -2.2229  0.6184 -0.6873
49032SOL     OW57025   6.825   7.880  11.383 -0.2102  0.1235 -0.3060
49032SOL    HW157026   6.827   7.800  11.331  2.1733 -0.4498  0.5605
49032SOL    HW257027   6.815   7.849  11.473  2.8741  0.5800  0.2769
49033SOL     OW57028   7.547   3.771   2.361  0.4200 -0.0268 -0.5279
49033SOL    HW157029   7.625   3.749   2.310  0.2582  0.0742 -0.8229
49033SOL    HW257030   7.495   3.826   2.303 -0.2659 -0.7815 -0.6591
49034SOL     OW57031  13.119   8.034   1.389  0.7505 -0.3096 -0.6415
49034SOL    HW157032  13.143   8.121   1.420  0.2302 -0.3657 -0.0645
49034SOL    HW257033  13.198   8.002   1.346  1.3448 -0.0409  0.2088
49035SOL     OW57034  10.917   4.697  12.441  0.8211  0.5693 -0.6110
49035SOL    HW157035  10.827   4.725  12.458  0.8939  1.7990 -2.0007
49035SOL    HW257036  10.924   4.695  12.345  1.7350 -1.3762 -0.5557
49036SOL     OW57037   6.210   9.745   6.909 -0.3058 -0.3241 -0.4871
49036SOL    HW157038   6.175   9.791   6.833  0.4622  1.6721  0.2830
49036SOL    HW257039   6.182   9.654   6.898 -0.6026 -0.0006 -2.8835
49037SOL     OW57040   0.102   2.580  11.581  0.2301 -0.2428 -0.3818
49037SOL    HW157041   0.196   2.599  11.573  0.1242 -0.2018 -1.7712
49037SOL    HW257042   0.067   2.594  11.493 -0.7885 -1.7991 -0.2650
49038SOL     OW57043   4.666   6.680   9.653 -0.3847 -0.1867  0.4396
49038SOL    HW157044   4.727   6.667   9.725  0.9295 -0.1047 -0.6070
49038SOL    HW257045   4.721   6.714   9.581 -1.9282  1.4799 -0.0419
49039SOL     OW57046  12.766  11.725  12.826  0.2808 -0.0190 -0.4484
49039SOL    HW157047  12.696  11.662  12.808  0.5936 -0.3769 -0.4144
49039SOL    HW257048  12.836  11.673  12.864 -0.2332  0.6459  1.5424
49040SOL     OW57049   9.241   9.596   3.855 -0.1121 -0.2732  0.3252
49040SOL    HW157050   9.166   9.632   3.808 -0.2504 -0.3229  0.5074
49040SOL    HW257051   9.317   9.640   3.817 -0.1272 -1.0677 -0.6662
49041SOL     OW57052   4.227   9.476  10.210  0.2053  0.9052 -0.1983
49041SOL    HW157053   4.314   9.513  10.196 -0.0731  1.4817 -0.4501
49041SOL    HW257054   4.167   9.540  10.171 -0.4066  1.0673  0.9731
49042SOL     OW57055  12.090   2.359   5.929  0.0209  0.4313 -0.4690
49042SOL    HW157056  12.029   2.347   5.857  2.0003 -0.3134 -2.0955
49042SOL    HW257057  12.042   2.329   6.006 -1.1161 -1.6526 -1.9191
49043SOL     OW57058   1.383  12.575  10.368  0.7614  0.0261  0.0016
49043SOL    HW157059   1.341  12.489  10.357  0.0317  0.4178 -0.3065
49043SOL    HW257060   1.406  12.602  10.279 -0.9271  1.0968 -0.1412
49044SOL     OW57061   0.712   0.699  12.527  0.3887 -0.1715  1.0927
49044SOL    HW157062   0.800   0.735  12.537  0.2541  1.0465 -1.3830
49044SOL    HW257063   0.685   0.676  12.616  2.7576  0.4652  2.0416
49045SOL     OW57064   9.265   7.970  12.896 -0.4589  0.5857 -0.1185
49045SOL    HW157065   9.263   8.037  12.965  0.4689  0.3094  0.2055
49045SOL    HW257066   9.237   7.890  12.941 -1.4266  0.7263 -0.4679
49046SOL     OW57067  12.100   8.749  11.874 -0.0528 -0.8047 -0.4679
49046SOL    HW157068  12.020   8.802  11.874  0.2337 -0.3210 -2.1424
49046SOL    HW257069  12.092   8.694  11.952 -1.1631  0.4851  0.3715
49047SOL     OW57070   3.789   7.690   9.248  0.2108  0.3895  0.4133
49047SOL    HW157071   3.807   7.657   9.336  0.4020 -0.3034  0.1252
49047SOL    HW257072   3.874   7.689   9.204 -0.0997 -0.5697 -0.1957
49048SOL     OW57073   1.303   9.313   2.883  0.1106 -0.4976  0.0531
49048SOL    HW157074   1.343   9.388   2.927 -1.0731 -0.1883  0.6388
49048SOL    HW257075   1.374   9.249   2.877  0.9904  0.4291  0.0591
49049SOL     OW57076   0.077  10.737   4.058 -0.0876  0.5320 -0.0473
49049SOL    HW157077   0.012  10.689   4.006 -0.5222  1.6144 -0.5245
49049SOL    HW257078   0.025  10.788   4.120  0.4285 -0.8510  1.5996
49050SOL     OW57079   7.726   0.647   6.942  0.0491  0.5080  0.5208
49050SOL    HW157080   7.808   0.597   6.944 -0.6749 -0.7414  2.1010
49050SOL    HW257081   7.704   0.654   6.850  0.9936 -0.7548  0.1717
49051SOL     OW57082   0.155   3.520   9.875 -0.1318  0.0981 -0.0733
49051SOL    HW157083   0.097   3.522   9.951  0.1744 -0.1051  0.1707
49051SOL    HW257084   0.194   3.433   9.877 -0.1720  0.0683 -0.5051
49052SOL     OW57085   4.573   4.381   6.393  0.5189 -0.1536 -0.3793
49052SOL    HW157086   4.555   4.404   6.302 -1.2656  0.5491  0.1192
49052SOL    HW257087   4.627   4.454   6.426  1.1523 -0.4022 -0.8519
49053SOL     OW57088  12.286   7.808  12.888  0.3389 -0.2564 -0.4181
49053SOL    HW157089  12.302   7.818  12.794  1.3215  0.2220 -0.2162
49053SOL    HW257090  12.252   7.719  12.897 -0.4515 -0.0547 -1.3030
49054SOL     OW57091   5.951   6.506   9.988  0.0328  0.6479  0.0257
49054SOL    HW157092   5.904   6.568  10.044 -2.7051 -0.0632 -1.3679
49054SOL    HW257093   6.024   6.556   9.953 -1.0101  2.5118  0.4245
49055SOL     OW57094  12.735   2.700   1.896  0.0677 -0.0429  0.3684
49055SOL    HW157095  12.701   2.707   1.985 -0.2395 -0.6906  0.3034
49055SOL    HW257096  12.726   2.788   1.860  2.7445  0.9908  1.8789
49056SOL     OW57097   7.545   2.388  12.829  0.4067 -0.2849 -0.3157
49056SOL    HW157098   7.567   2.423  12.743  1.4146  0.3733  0.1870
49056SOL    HW257099   7.451   2.401  12.838  0.7458  2.5343 -0.0927
49057SOL     OW57100   2.976   2.820   3.673  0.7823  0.4510  0.2474
49057SOL    HW157101   2.963   2.774   3.756 -2.2958 -1.8358 -1.2846
49057SOL    HW257102   3.024   2.758   3.618  1.1360  1.1877 -0.3031
49058SOL     OW57103   9.725  13.150   1.309  0.0415  0.1587 -0.2950
49058SOL    HW157104   9.674  13.230   1.295  1.0715  0.5919 -1.8026
49058SOL    HW257105   9.707  13.125   1.400  0.0567  2.3325  0.3434
49059SOL     OW57106   8.890  10.081  12.547 -0.2556 -0.0146 -0.0402
49059SOL    HW157107   8.874  10.018  12.477 -0.4852  0.8024 -0.7332
49059SOL    HW257108   8.937  10.031  12.614 -1.4792 -1.2357 -0.0534
49060SOL     OW57109   1.413   6.298   4.939  0.1314  0.4919  0.2910
49060SOL    HW157110   1.485   6.238   4.959 -0.1672 -0.5740 -1.5841
49060SOL    HW257111   1.453   6.385   4.943  1.3789 -0.0353 -0.0270
49061SOL     OW57112  11.828   5.607  12.935  0.1406 -0.5765  0.2633
49061SOL    HW157113  11.847   5.532  12.991  0.4041 -0.1823  0.7119
49061SOL    HW257114  11.781   5.668  12.991 -0.2117 -0.4633 -0.1421
49062SOL     OW57115  12.132   8.030   0.042  0.0601 -0.7135 -0.4194
49062SOL    HW157116  12.045   8.014   0.078  0.4667  1.9262  2.2050
49062SOL    HW257117  12.146   7.959  -0.021 -2.9458 -2.6688  0.8781
49063SOL     OW57118   0.286  10.257   5.568  0.0449 -0.5521  0.1504
49063SOL    HW157119   0.284  10.162   5.579  0.8925 -0.5387  0.4844
49063SOL    HW257120   0.195  10.281   5.548 -0.4692 -1.2583  1.5003
49064SOL     OW57121   2.059   6.013   0.994 -0.0841  1.1404  0.1596
49064SOL    HW157122   1.991   6.025   1.060  0.3875  1.2434  0.6343
49064SOL    HW257123   2.141   6.027   1.041  0.2854  0.6550 -0.3246
49065SOL     OW57124   3.579  11.333   4.543  0.0484 -0.1297  0.2571
49065SOL    HW157125   3.604  11.389   4.469 -1.6684  1.2673  0.6701
49065SOL    HW257126   3.656  11.334   4.600  0.3009  1.3466 -0.0586
49066SOL     OW57127   2.119   3.684  11.607 -0.4649 -0.1130 -0.7189
49066SOL    HW157128   2.048   3.624  11.628 -1.3534  0.3751 -2.2320
49066SOL    HW257129   2.127   3.680  11.511  1.2111  0.2303 -0.6337
49067SOL     OW57130   6.876  10.445  11.945  0.1716  0.2409  0.1896
49067SOL    HW157131   6.900  10.489  12.026  1.3104  1.0070 -0.5379
49067SOL    HW257132   6.798  10.395  11.967  0.9975 -0.3122  1.9891
49068SOL     OW57133   9.381   3.442  12.282 -0.0002  0.3213  0.2686
49068SOL    HW157134   9.380   3.378  12.353 -0.4437  0.7822  0.6843
49068SOL    HW257135   9.412   3.393  12.206 -0.7386 -0.5032  0.4779
49069SOL     OW57136   9.846   2.147   6.562 -0.2702 -0.0693  0.3969
49069SOL    HW157137   9.890   2.134   6.646 -1.6244 -2.2422  0.8562
49069SOL    HW257138   9.819   2.239   6.563  0.7839  0.2543  1.7980
49070SOL     OW57139   5.513   6.202   0.014  0.1500 -0.1866 -0.2331
49070SOL    HW157140   5.575   6.203  -0.059 -0.2221  2.0520 -0.5817
49070SOL    HW257141   5.436   6.158  -0.021  0.6479 -0.8230 -0.5627
49071SOL     OW57142   3.159   2.416   3.002 -0.0729  0.2029 -0.1651
49071SOL    HW157143   3.084   2.459   2.961 -0.6152  0.5390  1.1207
49071SOL    HW257144   3.120   2.345   3.053  0.6688 -0.7899 -0.9408
49072SOL     OW57145   2.196  11.426  11.485  0.0104 -0.1608 -0.2847
49072SOL    HW157146   2.251  11.431  11.564 -1.3179 -1.8174  0.8293
49072SOL    HW257147   2.155  11.512  11.478  0.8032  0.2734  0.3432
49073SOL     OW57148  10.483   4.530  11.085  0.1629 -0.1422  0.0866
49073SOL    HW157149  10.484   4.531  10.990  0.7522 -1.8919  0.0453
49073SOL    HW257150  10.546   4.597  11.111  0.5557 -0.1743 -0.7634
49074SOL     OW57151   8.796   9.274   7.479  0.1195  0.9220  0.1082
49074SOL    HW157152   8.876   9.225   7.464  1.8522  3.8264 -0.8682
49074SOL    HW257153   8.761   9.292   7.392 -0.4610  1.4271  0.4305
49075SOL     OW57154   8.069   8.474   7.938  0.6135  0.1692  0.1733
49075SOL    HW157155   8.143   8.499   7.993  1.5088 -1.7019 -0.1077
49075SOL    HW257156   8.015   8.419   7.994  0.8741 -0.7099 -0.4180
49076SOL     OW57157   6.917   1.723   2.636  0.3396  0.5500 -0.6068
49076SOL    HW157158   6.939   1.816   2.635  2.1774  0.2012  1.2506
49076SOL    HW257159   6.842   1.718   2.697  0.7271  0.7375 -0.1044
49077SOL     OW57160  12.439  12.664   2.793  0.2641  0.1768  1.0685
49077SOL    HW157161  12.510  12.653   2.731  0.3932  0.1818  1.2148
49077SOL    HW257162  12.459  12.603   2.864 -0.6618 -0.9371  0.4128
49078SOL     OW57163   6.860   5.421   6.176 -0.2428 -0.7951  0.3605
49078SOL    HW157164   6.776   5.451   6.212 -1.0307 -1.6069 -0.7612
49078SOL    HW257165   6.866   5.463   6.090 -0.0147 -1.5856 -0.0183
49079SOL     OW57166   1.964   7.423   1.747  0.0176  0.5800 -0.1068
49079SOL    HW157167   2.054   7.389   1.746 -0.8426 -1.9059  0.0529
49079SOL    HW257168   1.930   7.401   1.661 -0.6018  1.0835  0.0046
49080SOL     OW57169  11.287   9.951   9.299  0.0685  0.1527 -0.6254
49080SOL    HW157170  11.266   9.877   9.241  0.4227  0.0387 -0.6088
49080SOL    HW257171  11.265   9.919   9.386  1.2705 -0.3439 -0.4855
49081SOL     OW57172  11.107  11.465  13.159  0.7349 -0.5826  0.1173
49081SOL    HW157173  11.121  11.520  13.081  0.8848  0.3227  0.7688
49081SOL    HW257174  11.177  11.490  13.219 -0.5487  0.2219  1.3539
49082SOL     OW57175   8.704   9.571   8.876  0.0191  0.5309  0.4736
49082SOL    HW157176   8.624   9.610   8.910  0.0239  0.4177  0.6135
49082SOL    HW257177   8.678   9.532   8.792 -0.1355  0.2395  0.6585
49083SOL     OW57178  12.884   0.385   9.194 -0.0110 -0.3894 -0.0170
49083SOL    HW157179  12.828   0.309   9.212  1.7558 -1.3420  2.0155
49083SOL    HW257180  12.945   0.354   9.127  0.4155 -0.6458  0.4778
49084SOL     OW57181  10.477   4.250  11.224  0.1415 -0.2984  0.7671
49084SOL    HW157182  10.471   4.335  11.179 -1.1308 -0.5442  0.4198
49084SOL    HW257183  10.387   4.233  11.254  0.5767 -1.0696  1.6923
49085SOL     OW57184   1.835   9.246   1.134 -0.1713 -0.0774  0.1608
49085SOL    HW157185   1.789   9.207   1.059  0.0235 -0.2676  0.1397
49085SOL    HW257186   1.796   9.333   1.143  2.2636  1.4562 -2.4468
49086SOL     OW57187   8.859   8.957   5.872 -0.2756 -0.3799 -0.5277
49086SOL    HW157188   8.795   8.941   5.942  0.3001  0.3419  0.1722
49086SOL    HW257189   8.845   8.884   5.811 -0.9248 -0.9129  0.2281
49087SOL     OW57190   9.100  11.070   5.673  0.0195  0.2472 -0.1648
49087SOL    HW157191   9.084  11.143   5.732  0.0268 -1.2019  1.7121
49087SOL    HW257192   9.180  11.029   5.705  1.2241  0.6013 -2.4699
49088SOL     OW57193   5.421   2.005  12.003  0.8266 -0.3279  0.0419
49088SOL    HW157194   5.483   1.989  12.074  0.7409  0.6368  0.3585
49088SOL    HW257195   5.342   1.958  12.029  0.8216 -0.0389  0.5622
49089SOL     OW57196  13.054  10.000   2.078 -0.3859  0.6954  0.5794
49089SOL    HW157197  12.989   9.942   2.118 -1.5383  1.4206 -0.1829
49089SOL    HW257198  13.117  10.017   2.148 -0.1744 -1.2131  0.9050
49090SOL     OW57199   3.470  10.807   7.924 -0.2148  0.0717 -0.5351
49090SOL    HW157200   3.391  10.811   7.870  0.2747  0.9348 -1.2191
49090SOL    HW257201   3.444  10.849   8.006 -0.4738  0.3727 -0.7649
49091SOL     OW57202   8.666  11.889   0.592 -0.5396 -0.2896 -0.4390
49091SOL    HW157203   8.700  11.951   0.527  0.3133  0.2724  0.5198
49091SOL    HW257204   8.649  11.809   0.541  0.9987 -0.1637 -1.2271
49092SOL     OW57205   7.353   4.520   1.346  0.0067  0.3269 -0.1692
49092SOL    HW157206   7.396   4.454   1.400  2.3051  1.4374 -0.5149
49092SOL    HW257207   7.425   4.576   1.315 -1.7031  2.2240 -0.9249
49093SOL     OW57208   5.874   2.350   3.022 -0.2053  0.1295  0.3974
49093SOL    HW157209   5.873   2.443   3.044 -1.4454 -0.5354  3.7343
49093SOL    HW257210   5.924   2.310   3.093  1.8802 -1.6397 -1.9206
49094SOL     OW57211   5.017   9.223   4.021  0.7731 -0.0750 -0.1525
49094SOL    HW157212   5.078   9.203   3.950  1.1816  1.6011 -0.3070
49094SOL    HW257213   5.025   9.317   4.034 -0.7094 -0.0482  0.8294
49095SOL     OW57214   8.741  12.146   1.664  0.2243 -0.7763 -0.0291
49095SOL    HW157215   8.815  12.087   1.681  0.8492  0.0935  0.3681
49095SOL    HW257216   8.741  12.159   1.569 -0.1052 -1.6416 -0.1534
49096SOL     OW57217   0.356   3.273   0.970  0.3425  0.0472 -0.4813
49096SOL    HW157218   0.409   3.348   0.943  0.1735  0.0258 -0.8743
49096SOL    HW257219   0.354   3.216   0.894  1.3270 -0.8541  0.1494
49097SOL     OW57220   0.391   6.112   2.934  0.4795  0.2006  0.2009
49097SOL    HW157221   0.476   6.150   2.911  0.4092  0.4040  0.2772
49097SOL    HW257222   0.355   6.084   2.851  1.4690 -1.6779  0.3536
49098SOL     OW57223   9.147  12.354   2.128  0.1550  0.5297 -0.1294
49098SOL    HW157224   9.098  12.433   2.149 -0.7834 -0.0269 -0.1298
49098SOL    HW257225   9.151  12.354   2.032  1.4861  1.3402 -0.0921
49099SOL     OW57226   7.154   5.746  10.603  0.3414  0.0781  0.1404
49099SOL    HW157227   7.191   5.667  10.564  1.5229  0.7678 -0.2140
49099SOL    HW257228   7.092   5.779  10.538 -0.5128 -0.7822  0.4922
49100SOL     OW57229   9.519   2.909   4.277 -0.0867 -0.4115  0.0326
49100SOL    HW157230   9.614   2.911   4.276 -0.0531 -0.1674 -2.0523
49100SOL    HW257231   9.496   2.839   4.216 -1.2626 -1.3348  1.4673
49101SOL     OW57232   6.184   3.968   2.436  0.0872  0.6029  0.4216
49101SOL    HW157233   6.194   4.025   2.360 -0.3063  0.3355  0.1620
49101SOL    HW257234   6.107   3.914   2.415  1.1438 -0.8351  0.1347
49102SOL     OW57235   5.916   7.529   7.855 -0.2330  0.1540  0.0056
49102SOL    HW157236   5.919   7.482   7.772  1.1831 -1.7506  1.0434
49102SOL    HW257237   6.001   7.573   7.861  0.6440 -1.6060  1.4002
49103SOL     OW57238   6.324   5.246   5.347  0.9001 -0.2703  0.4098
49103SOL    HW157239   6.307   5.160   5.386  1.8159 -1.6241 -2.0074
49103SOL    HW257240   6.248   5.264   5.293  0.0311  1.2078  1.9966
49104SOL     OW57241   3.620  10.283   7.895 -0.3850 -0.2160  0.4768
49104SOL    HW157242   3.527  10.301   7.907 -0.6380 -0.9601 -0.2492
49104SOL    HW257243   3.641  10.219   7.963 -1.2131 -2.5237 -1.3050
49105SOL     OW57244  11.149   1.554  11.984  0.1982  0.1310  0.1683
49105SOL    HW157245  11.072   1.522  12.031  1.1696 -0.4322  1.4275
49105SOL    HW257246  11.148   1.648  11.999 -1.5341  0.5115 -1.8393
49106SOL     OW57247   1.674  11.619   7.522  0.4056 -0.4574  0.0941
49106SOL    HW157248   1.704  11.530   7.537  0.5396 -0.0910  2.2994
49106SOL    HW257249   1.755  11.670   7.511  0.3476 -0.5279 -0.6634
49107SOL     OW57250   9.538   0.719  11.124 -0.3758 -0.1817  0.2575
49107SOL    HW157251   9.458   0.706  11.073  1.0735 -0.1293 -2.1618
49107SOL    HW257252   9.561   0.632  11.156 -0.7896 -0.3796  0.0263
49108SOL     OW57253   8.726   5.046  12.758 -0.0577  0.2400  0.4567
49108SOL    HW157254   8.796   5.021  12.819 -0.4434 -0.1997  0.7208
49108SOL    HW257255   8.772   5.077  12.680  0.4429 -1.4776  0.0305
49109SOL     OW57256   8.054   7.565   2.078 -0.0359 -0.5110 -0.2263
49109SOL    HW157257   8.069   7.583   1.985  0.7771  0.3735  0.0569
49109SOL    HW257258   8.034   7.650   2.116  0.8687 -0.6559  0.6164
49110SOL     OW57259   4.902  10.780  12.666 -0.2494 -0.1656 -0.1408
49110SOL    HW157260   4.868  10.827  12.590 -1.3800  0.9175  0.9891
49110SOL    HW257261   4.877  10.689  12.652 -0.3358  0.0059 -1.1159
49111SOL     OW57262   9.660  10.078   7.290 -0.0382 -0.3388 -0.7975
49111SOL    HW157263   9.695  10.151   7.239  2.5117 -0.9008  0.0065
49111SOL    HW257264   9.663  10.003   7.230 -0.0777 -0.3501 -0.7861
49112SOL     OW57265  11.748   2.618   4.444  0.4263 -0.3357  0.1792
49112SOL    HW157266  11.690   2.550   4.478 -0.4933  0.4983  0.3481
49112SOL    HW257267  11.772   2.589   4.357 -0.8626 -0.3641 -0.1859
49113SOL     OW57268   3.443   5.246   0.396 -0.1735  0.1784  0.5859
49113SOL    HW157269   3.360   5.219   0.435 -0.9502  2.0006  0.2774
49113SOL    HW257270   3.437   5.341   0.390  1.4373  0.2421 -0.5890
49114SOL     OW57271  13.272   9.002   0.915  0.4831  0.0285 -0.2963
49114SOL    HW157272  13.332   9.032   0.846 -0.6837  1.2598 -0.8401
49114SOL    HW257273  13.232   8.922   0.880  0.1355  0.4712 -0.9364
49115SOL     OW57274   9.985   6.782   2.919 -0.6068  0.2433  0.0054
49115SOL    HW157275  10.065   6.816   2.958  0.7632 -1.7977 -0.8356
49115SOL    HW257276   9.972   6.834   2.840  0.0353  0.4263  0.0185
49116SOL     OW57277   6.720   8.289   1.479 -0.0551  0.2152 -0.2459
49116SOL    HW157278   6.814   8.302   1.492 -0.0618  1.6709 -1.3715
49116SOL    HW257279   6.706   8.307   1.386 -1.0516 -2.6764 -0.7524
49117SOL     OW57280   5.196   5.371  13.228  0.2627  0.1314  0.3302
49117SOL    HW157281   5.185   5.280  13.258  0.6931 -0.4188 -1.0925
49117SOL    HW257282   5.263   5.366  13.160  0.5730  1.5921  0.4943
49118SOL     OW57283  10.060   4.335  11.692  0.1277 -0.1384 -1.0894
49118SOL    HW157284  10.153   4.330  11.668  0.4746 -3.2565  0.4082
49118SOL    HW257285  10.014   4.316  11.611  0.6751  1.8801 -1.9588
49119SOL     OW57286   7.689   9.680   4.891 -0.1208 -0.4440 -0.0350
49119SOL    HW157287   7.627   9.617   4.928  0.2881 -0.0491  1.3884
49119SOL    HW257288   7.756   9.691   4.959 -0.0958  1.3936 -0.3032
49120SOL     OW57289  10.506   7.316   9.225 -0.3775 -0.2191  0.6321
49120SOL    HW157290  10.584   7.297   9.172 -1.6551 -1.1250 -1.0334
49120SOL    HW257291  10.503   7.245   9.289  1.2585  0.9601  2.1400
49121SOL     OW57292   3.692   2.993  11.075  0.6866 -0.8470 -0.2745
49121SOL    HW157293   3.737   3.070  11.041  0.4768 -0.5389  0.1329
49121SOL    HW257294   3.752   2.957  11.140  0.8637 -1.1381 -0.5941
49122SOL     OW57295   6.820   3.326  11.125 -0.3250  0.9850 -0.2576
49122SOL    HW157296   6.787   3.406  11.166  1.3753  1.6203 -0.0537
49122SOL    HW257297   6.912   3.322  11.150 -0.3513 -1.0222 -0.3202
49123SOL     OW57298  10.573   0.032   6.666  0.4784  0.0110 -0.3576
49123SOL    HW157299  10.524   0.095   6.719 -0.6434 -0.6867 -0.5445
49123SOL    HW257300  10.565  -0.051   6.714  0.2793 -0.4135 -1.1080
49124SOL     OW57301   0.536   7.978   5.176 -0.0066  0.0240 -0.0228
49124SOL    HW157302   0.480   7.929   5.116  1.1686  0.4250 -1.5098
49124SOL    HW257303   0.623   7.939   5.166  0.4266  0.7870  0.6337
49125SOL     OW57304   7.631  11.336  12.661 -0.0612  0.3884 -0.3073
49125SOL    HW157305   7.643  11.318  12.754 -1.1309 -0.3979 -0.2966
49125SOL    HW257306   7.537  11.353  12.651  0.3099  2.1763 -0.9842
49126SOL     OW57307  10.597   7.912   9.235 -0.6344  0.4138  0.1077
49126SOL    HW157308  10.662   7.878   9.175 -2.9281 -2.8527 -0.7772
49126SOL    HW257309  10.624   7.880   9.321 -1.3069 -1.3973 -0.3313
49127SOL     OW57310   9.811   1.465  11.153 -0.1361 -0.1151 -0.8058
49127SOL    HW157311   9.742   1.410  11.189  1.3075 -0.6423  1.3600
49127SOL    HW257312   9.882   1.404  11.131  0.4772  0.5980 -0.8678
49128SOL     OW57313   5.145  12.374   7.446  0.6257 -0.2524  0.2665
49128SOL    HW157314   5.092  12.441   7.402  1.0264 -0.1477 -0.0636
49128SOL    HW257315   5.219  12.422   7.483  0.8504 -0.4965  0.1349
49129SOL     OW57316  12.605   9.192   5.012  0.0627 -0.4190 -0.3021
49129SOL    HW157317  12.676   9.130   5.033  0.3620  0.2394  0.7185
49129SOL    HW257318  12.534   9.136   4.979  1.3771 -1.0012 -2.3543
49130SOL     OW57319   5.693  12.883  10.664 -0.5868 -0.4254  0.3966
49130SOL    HW157320   5.742  12.921  10.591 -1.2797  0.5426  0.4141
49130SOL    HW257321   5.606  12.867  10.628 -0.5469 -1.2058  0.6420
49131SOL     OW57322   8.372   7.377   1.982  0.3280  0.0886  0.0962
49131SOL    HW157323   8.312   7.371   2.057  2.9154  0.6193  2.3702
49131SOL    HW257324   8.330   7.324   1.914 -2.2464 -0.3100  1.8312
49132SOL     OW57325   3.321   3.362  10.946  0.4075 -0.4564 -0.2261
49132SOL    HW157326   3.374   3.442  10.946  1.9445 -1.4072 -1.6371
49132SOL    HW257327   3.368   3.301  11.002  0.7869 -1.2710 -1.3858
49133SOL     OW57328  11.674  13.068   5.186 -0.2955 -0.4519  0.1525
49133SOL    HW157329  11.656  12.977   5.166 -0.3769  0.1611 -3.0896
49133SOL    HW257330  11.673  13.112   5.101  1.4427  2.2724  1.3994
49134SOL     OW57331  12.740   7.271  10.438 -0.3343  0.0184  0.3343
49134SOL    HW157332  12.791   7.193  10.416  2.3792  1.1512  2.0257
49134SOL    HW257333  12.741   7.324  10.359  1.8407  0.2954  0.4740
49135SOL     OW57334   1.828   5.820   8.562  0.0821  0.7626 -0.5462
49135SOL    HW157335   1.744   5.843   8.523 -0.1993 -2.4680 -2.2328
49135SOL    HW257336   1.811   5.737   8.606  2.0488  0.8565  0.4795
49136SOL     OW57337  13.079   5.106  10.378 -0.4585 -0.6748  0.1853
49136SOL    HW157338  13.024   5.119  10.301 -0.5078 -3.0651 -0.2601
49136SOL    HW257339  13.024   5.131  10.452 -0.6547  0.9583 -0.4654
49137SOL     OW57340  11.081   3.309   9.801  0.5096  0.0714  0.1962
49137SOL    HW157341  10.988   3.330   9.798 -0.3069 -3.1143 -1.7423
49137SOL    HW257342  11.095   3.274   9.889 -0.6994 -1.3413 -0.1357
49138SOL     OW57343   8.719   1.362   4.054 -0.0268 -0.0175 -0.3686
49138SOL    HW157344   8.676   1.341   4.137  0.4677  1.3368  0.2719
49138SOL    HW257345   8.804   1.319   4.060  0.2645  0.6056  0.1319
49139SOL     OW57346   9.984   3.862  13.284 -0.2023  0.0485  0.0694
49139SOL    HW157347  10.061   3.826  13.328  0.9689  1.9188 -0.3119
49139SOL    HW257348   9.997   3.840  13.191  0.4882  1.2963 -0.1561
49140SOL     OW57349   0.556   9.024  12.672  0.4534 -0.2320 -0.0857
49140SOL    HW157350   0.583   9.107  12.634 -0.1093 -0.7758 -1.7943
49140SOL    HW257351   0.567   9.035  12.766 -0.1021  1.9534 -0.2307
49141SOL     OW57352   6.908   1.506  12.035  0.2512 -0.3440  0.1110
49141SOL    HW157353   6.831   1.484  12.088  0.5953  0.7598  1.0986
49141SOL    HW257354   6.953   1.574  12.085  2.0378 -1.1779 -0.2960
49142SOL     OW57355   7.536   7.104   6.571  0.1582 -0.5903  0.4567
49142SOL    HW157356   7.528   7.009   6.578  1.0496 -0.6056  1.5374
49142SOL    HW257357   7.605   7.127   6.633  1.5459  0.5292 -1.4078
49143SOL     OW57358   4.352  12.582   1.901  0.4448  0.6960  0.5296
49143SOL    HW157359   4.424  12.531   1.937  3.9438  5.0923  0.7669
49143SOL    HW257360   4.292  12.594   1.974  1.6520  0.2620  1.6472
49144SOL     OW57361   7.273  10.258   7.802  0.2614 -0.5676  0.5705
49144SOL    HW157362   7.249  10.343   7.839 -0.7835 -1.4850  2.1177
49144SOL    HW257363   7.323  10.280   7.724  1.1673  1.4730  1.6343
49145SOL     OW57364   0.709   4.130  13.134 -0.1829 -0.3803  0.5277
49145SOL    HW157365   0.653   4.056  13.112 -0.5801 -0.1947  0.9168
49145SOL    HW257366   0.768   4.139  13.058  0.6063 -1.7820  0.9468
49146SOL     OW57367   5.361   2.200   9.395 -0.6278 -0.0335  0.3613
49146SOL    HW157368   5.423   2.162   9.457 -1.0478  0.4210  1.0650
49146SOL    HW257369   5.339   2.128   9.336  0.9841 -0.0752 -0.2528
49147SOL     OW57370   1.175  11.992  11.441  0.2265 -0.2828 -0.1890
49147SOL    HW157371   1.158  11.903  11.473 -0.6156  0.2956  1.0367
49147SOL    HW257372   1.105  12.045  11.478  1.0268  1.0095 -0.4480
49148SOL     OW57373   9.655   9.414   3.524  0.2409  0.0166  0.2545
49148SOL    HW157374   9.585   9.427   3.460  0.8369  1.3065 -0.1846
49148SOL    HW257375   9.691   9.328   3.502 -1.0969 -0.6049  0.4051
49149SOL     OW57376  11.149   3.243  10.057  0.2185  0.4444 -0.5978
49149SOL    HW157377  11.223   3.182  10.059 -0.8744 -0.9239  0.4242
49149SOL    HW257378  11.163   3.300  10.133 -0.1245 -0.2662  0.0048
49150SOL     OW57379  12.046   5.840   7.548  0.4203  0.1369 -0.1529
49150SOL    HW157380  12.070   5.856   7.457  0.7871  2.2355  0.2571
49150SOL    HW257381  11.950   5.840   7.547  0.4075 -0.8315 -0.6555
49151SOL     OW57382   6.215   7.387   8.121  0.7970 -0.6900  0.3141
49151SOL    HW157383   6.127   7.415   8.145  1.6509  0.7382  2.0478
49151SOL    HW257384   6.219   7.399   8.026 -0.5356  0.2810  0.3535
49152SOL     OW57385   7.402  12.508   1.045  0.5075 -0.7032  0.2112
49152SOL    HW157386   7.459  12.491   0.970  1.5513 -1.4843  1.1428
49152SOL    HW257387   7.423  12.438   1.107 -2.1766 -1.6136  0.2237
49153SOL     OW57388   6.239  11.164   8.684 -0.0682  0.0364 -0.1038
49153SOL    HW157389   6.265  11.074   8.702 -1.1628 -0.6225 -1.6111
49153SOL    HW257390   6.162  11.179   8.738 -0.0287 -0.0081 -0.0355
49154SOL     OW57391   2.922   7.898   8.377  0.0741  0.2192 -0.1059
49154SOL    HW157392   2.923   7.812   8.335  0.3458  0.3195 -0.3087
49154SOL    HW257393   3.014   7.916   8.396 -0.0385  0.2024  0.4783
49155SOL     OW57394  10.127   1.639  10.945 -0.0401  0.2777 -0.9132
49155SOL    HW157395  10.036   1.610  10.942  0.2152 -0.8390  0.8382
49155SOL    HW257396  10.142   1.680  10.860 -1.1114 -2.7441 -2.7139
49156SOL     OW57397   9.107   3.467   7.383 -0.3679 -0.2724  0.4487
49156SOL    HW157398   9.115   3.561   7.402 -0.0411 -0.0943 -0.4803
49156SOL    HW257399   9.024   3.460   7.336  0.4300 -0.1543 -1.0434
49157SOL     OW57400   2.102   8.332   6.700  0.4153 -0.9071  0.1250
49157SOL    HW157401   2.038   8.292   6.759  1.2485 -0.0516  1.6761
49157SOL    HW257402   2.183   8.335   6.751  1.1052  0.1022 -0.9733
49158SOL     OW57403   8.350   6.800   4.983  0.0576 -0.5111  0.1948
49158SOL    HW157404   8.322   6.753   4.905 -1.3135  0.6678 -0.0663
49158SOL    HW257405   8.446   6.799   4.979  0.0358 -2.0640 -0.5025
49159SOL     OW57406   5.892   7.882   4.560  0.2578 -0.3811  0.3283
49159SOL    HW157407   5.926   7.955   4.610  0.6227 -0.8090  0.7163
49159SOL    HW257408   5.833   7.837   4.621  1.0851 -1.1877  0.5524
49160SOL     OW57409   9.141   8.771  13.180  0.3151  0.4890  0.0518
49160SOL    HW157410   9.068   8.802  13.128  1.6848  1.1148 -1.5779
49160SOL    HW257411   9.129   8.676  13.185 -0.1866  0.5006 -0.8387
49161SOL     OW57412   8.851  12.526   5.614 -0.4531 -0.6081  0.3716
49161SOL    HW157413   8.755  12.524   5.611 -0.5254  0.5114  1.2680
49161SOL    HW257414   8.874  12.467   5.685 -0.6284  0.7754  1.6433
49162SOL     OW57415   6.010   3.534   3.507  0.1771 -0.2443 -0.2604
49162SOL    HW157416   5.957   3.612   3.522  0.2461 -0.0331 -1.0371
49162SOL    HW257417   5.967   3.465   3.557  0.1672  0.3116  0.5116
49163SOL     OW57418  12.193   1.000   2.308 -0.3309  0.0686  0.1216
49163SOL    HW157419  12.174   0.941   2.381  0.0468 -1.5514 -1.0496
49163SOL    HW257420  12.277   1.041   2.332  0.2587 -1.1443  0.1927
49164SOL     OW57421   7.261   1.232   3.499  0.1493 -0.0318 -0.1230
49164SOL    HW157422   7.218   1.314   3.477  0.3243  0.0812 -0.0451
49164SOL    HW257423   7.230   1.170   3.433  0.2647  0.1776 -0.3742
49165SOL     OW57424   3.789   8.613   0.769  0.2901 -0.8349 -0.6019
49165SOL    HW157425   3.807   8.521   0.788 -1.2165 -1.0472 -0.1079
49165SOL    HW257426   3.705   8.613   0.724 -0.0986  0.3544  0.0770
49166SOL     OW57427   1.941   6.883   5.535 -0.2973  0.0717 -0.5415
49166SOL    HW157428   1.969   6.927   5.615  1.4613  0.9080 -1.5598
49166SOL    HW257429   1.872   6.939   5.500  0.4900  0.9385 -0.7503
49167SOL     OW57430  10.502   8.273  12.851  0.0940  0.1510  0.1819
49167SOL    HW157431  10.527   8.366  12.855 -1.7428  0.6626  0.8721
49167SOL    HW257432  10.579   8.226  12.883  0.9472  1.4533  0.1176
49168SOL     OW57433   8.315  12.758  10.074 -0.2466 -0.1841 -0.3651
49168SOL    HW157434   8.367  12.836  10.052 -0.6095  0.0878 -0.2778
49168SOL    HW257435   8.239  12.793  10.121 -0.7273 -0.5349 -0.8675
49169SOL     OW57436   1.394  10.276   0.938 -0.6527  0.0327 -0.2668
49169SOL    HW157437   1.482  10.239   0.946 -0.2667  0.5986 -1.5974
49169SOL    HW257438   1.354  10.228   0.865 -0.7024  1.1499 -0.9993
49170SOL     OW57439  11.201  11.333   3.933  0.6239 -0.9882  0.0090
49170SOL    HW157440  11.227  11.390   4.005 -2.0331 -0.9696  1.0607
49170SOL    HW257441  11.121  11.373   3.899  0.5094 -2.3357 -1.3982
49171SOL     OW57442   2.703   4.569   1.583  0.3581  0.0318 -0.3294
49171SOL    HW157443   2.627   4.576   1.642  0.0459 -0.1606 -0.7021
49171SOL    HW257444   2.664   4.565   1.496  0.8521  1.7486 -0.6733
49172SOL     OW57445   3.223  12.159   7.209  0.2744  0.1963 -0.0337
49172SOL    HW157446   3.226  12.253   7.193 -0.5877  0.1647 -0.4422
49172SOL    HW257447   3.141  12.146   7.257  0.8852 -0.2233  0.9463
49173SOL     OW57448   1.067   4.655  10.333  0.0959 -0.8612 -0.1071
49173SOL    HW157449   1.067   4.735  10.385 -0.9989 -1.1844  0.4181
49173SOL    HW257450   1.140   4.603  10.366  0.3562 -0.3973  0.0452
49174SOL     OW57451   7.050   1.001  10.500  0.0781 -0.2718  0.1152
49174SOL    HW157452   7.112   1.013  10.572  0.2375 -1.5196  0.2001
49174SOL    HW257453   7.078   0.920  10.457  0.6127  0.9282 -1.9900
49175SOL     OW57454   0.062   4.090   0.067 -0.5555  0.4250  0.7433
49175SOL    HW157455   0.083   4.025   0.133 -0.3673 -0.4002 -0.1092
49175SOL    HW257456   0.100   4.172   0.101  0.0225 -0.0996  1.3816
49176SOL     OW57457   4.540   5.691   8.478  0.0575 -0.1217  0.0621
49176SOL    HW157458   4.488   5.625   8.431  0.9664  1.5535 -3.7336
49176SOL    HW257459   4.479   5.763   8.493 -0.0105 -0.2936  0.6047
49177SOL     OW57460   3.401   5.425  12.609 -0.1741  0.8070 -0.3836
49177SOL    HW157461   3.456   5.366  12.661  2.9080  2.9161 -0.9593
49177SOL    HW257462   3.354   5.367  12.550 -0.7431 -1.3409  1.9802
49178SOL     OW57463   8.826  11.237  11.807  0.6046 -0.6535 -0.1071
49178SOL    HW157464   8.795  11.285  11.731  0.7163  1.4628  1.1083
49178SOL    HW257465   8.907  11.282  11.833  1.0008 -1.8200  0.7918
49179SOL     OW57466   2.812   1.158   0.917 -0.3265 -0.7998 -0.9517
49179SOL    HW157467   2.778   1.070   0.900 -0.0716 -1.1295  0.1594
49179SOL    HW257468   2.874   1.174   0.845  0.9935 -2.2761 -0.2097
49180SOL     OW57469   8.929   4.380   8.517  0.3256 -0.7039  0.4325
49180SOL    HW157470   8.880   4.352   8.440 -0.0608 -0.0900  0.4479
49180SOL    HW257471   8.867   4.433   8.567  1.0709  0.3110  0.3182
49181SOL     OW57472   9.789   0.932  11.934  0.3947 -0.0225 -0.0124
49181SOL    HW157473   9.798   0.837  11.928 -0.9860 -0.3542  1.8038
49181SOL    HW257474   9.751   0.958  11.850  0.4494 -1.1350 -0.4009
49182SOL     OW57475   5.008   1.370  10.193  0.3804 -0.0633  0.1253
49182SOL    HW157476   5.026   1.312  10.266  0.7827 -1.2205 -0.8614
49182SOL    HW257477   4.917   1.396  10.204  0.5723  0.1628  1.2752
49183SOL     OW57478  12.802   2.503   5.114 -0.1217 -0.6520  0.0333
49183SOL    HW157479  12.847   2.574   5.068 -0.0608  0.2153  1.3913
49183SOL    HW257480  12.744   2.465   5.048  1.1078 -0.4836 -1.1986
49184SOL     OW57481  13.293   5.041   7.671 -0.2107  0.5340  0.4553
49184SOL    HW157482  13.288   5.117   7.729  1.0969  1.4925 -0.6052
49184SOL    HW257483  13.342   4.976   7.721  0.3250  1.1089  0.6928
49185SOL     OW57484  13.142   4.390   4.960 -0.2858 -0.6276 -0.1369
49185SOL    HW157485  13.201   4.338   4.905 -0.3776  2.1914 -3.1203
49185SOL    HW257486  13.063   4.336   4.968  0.1566 -1.6049 -1.8867
49186SOL     OW57487  12.291   7.973   7.513 -0.0457  0.7436 -0.0990
49186SOL    HW157488  12.287   7.880   7.493  2.2112  0.3696  0.9052
49186SOL    HW257489  12.204   8.007   7.488 -0.5337 -1.3744 -1.5207
49187SOL     OW57490   6.091   4.581   3.857  0.4054 -0.6746  0.1799
49187SOL    HW157491   6.007   4.537   3.839  0.0905  0.7187 -2.0559
49187SOL    HW257492   6.102   4.572   3.952 -3.9007  1.8370  1.2103
49188SOL     OW57493   1.864   7.909   4.908 -0.3182  0.4524 -0.1703
49188SOL    HW157494   1.862   7.868   4.822  0.6520  1.1285 -0.5252
49188SOL    HW257495   1.922   7.853   4.960  1.4456  1.6368 -0.8118
49189SOL     OW57496   7.777   5.881   3.890 -0.5619  0.3660 -0.3707
49189SOL    HW157497   7.758   5.953   3.829 -1.7146  1.3079  1.0367
49189SOL    HW257498   7.868   5.896   3.917 -0.6498  1.0369 -0.4274
49190SOL     OW57499   2.875  11.318   4.497  0.0273  0.2419  0.0858
49190SOL    HW157500   2.908  11.378   4.431  1.6995 -1.1263 -0.3849
49190SOL    HW257501   2.856  11.237   4.449  1.7561 -0.9466  1.2852
49191SOL     OW57502   3.902  12.449   7.023  0.3007 -0.9398  0.3384
49191SOL    HW157503   3.895  12.385   6.953  1.8630 -0.6639 -0.1097
49191SOL    HW257504   3.863  12.406   7.099  1.7177 -2.6576  0.1666
49192SOL     OW57505  12.953  10.387   1.506 -0.4033  0.0637  0.3467
49192SOL    HW157506  12.947  10.465   1.561 -1.4493 -0.1415  0.5409
49192SOL    HW257507  13.024  10.406   1.445  2.0566 -0.3893  2.8641
49193SOL     OW57508   6.087   8.806  12.391  0.2670 -0.0857 -0.0694
49193SOL    HW157509   6.037   8.848  12.461 -1.0292  0.8076 -1.4698
49193SOL    HW257510   6.179   8.825  12.412 -0.1191  0.5342  1.1255
49194SOL     OW57511   5.180   6.339   7.352 -0.3393 -0.4898  0.1202
49194SOL    HW157512   5.173   6.320   7.446 -0.7810  0.5641  0.3212
49194SOL    HW257513   5.092   6.320   7.318 -0.2889 -0.4952 -0.0049
49195SOL     OW57514   0.445  10.317   6.202 -0.0987 -0.5511 -0.2445
49195SOL    HW157515   0.416  10.277   6.120  1.1215  0.8407 -1.4130
49195SOL    HW257516   0.374  10.374   6.228 -1.1013 -2.0653  0.4847
49196SOL     OW57517   7.479  13.027   7.078 -0.3760 -0.6781  0.5018
49196SOL    HW157518   7.395  12.988   7.102  0.7770 -2.2797  2.1990
49196SOL    HW257519   7.534  12.953   7.052  0.5040  0.3477 -0.6977
49197SOL     OW57520  11.131  11.318   1.197 -0.3097 -0.1543  0.6344
49197SOL    HW157521  11.197  11.388   1.194 -1.0805  0.5514 -0.4526
49197SOL    HW257522  11.146  11.275   1.282  2.5315 -1.0182 -0.2062
49198SOL     OW57523   9.683   6.734  11.230 -0.2159 -0.0331 -0.0223
49198SOL    HW157524   9.729   6.770  11.154  0.1266 -0.8311 -0.1978
49198SOL    HW257525   9.680   6.807  11.292  0.3618  0.3366 -0.4139
49199SOL     OW57526   0.289   4.368   5.457  0.1375 -0.2248 -0.2375
49199SOL    HW157527   0.367   4.317   5.436 -0.8898 -1.5104 -1.0716
49199SOL    HW257528   0.323   4.453   5.488  1.8690 -1.1330  0.4727
49200SOL     OW57529   6.039  11.404   7.324 -0.3164  0.5701  0.0984
49200SOL    HW157530   5.963  11.431   7.376 -0.7056 -2.1934  1.1299
49200SOL    HW257531   6.077  11.332   7.373  1.9090  0.6576 -1.3544
49201SOL     OW57532   7.319   4.006   6.421 -0.6391  0.3954 -0.2007
49201SOL    HW157533   7.261   4.066   6.466  0.4586  0.3489  1.3505
49201SOL    HW257534   7.400   4.055   6.408  0.4732 -0.8414  1.5707
49202SOL     OW57535   2.834  12.943  10.672 -0.3927 -0.1630  0.2719
49202SOL    HW157536   2.913  12.894  10.694 -0.8728 -0.3588  1.6903
49202SOL    HW257537   2.765  12.902  10.724 -1.1193  0.9782  0.2466
49203SOL     OW57538   0.651   7.749   8.766 -0.0422 -0.4370  0.9005
49203SOL    HW157539   0.583   7.731   8.830 -1.0991  1.5649  0.3978
49203SOL    HW257540   0.643   7.678   8.702 -2.3461  0.2667  0.3309
49204SOL     OW57541   0.660   5.238   5.279  0.3305  0.6255 -0.7073
49204SOL    HW157542   0.746   5.253   5.317  1.3702 -1.0900 -2.2020
49204SOL    HW257543   0.674   5.169   5.214 -2.0353  0.8153 -1.5323
49205SOL     OW57544  10.150   9.830   9.787 -0.5601  0.2023  0.2743
49205SOL    HW157545  10.211   9.759   9.810 -0.6144  0.0178 -0.1371
49205SOL    HW257546  10.084   9.787   9.732 -1.3188  0.3094  1.0994
49206SOL     OW57547   3.634   1.885   2.073 -0.1263 -0.0280  0.2419
49206SOL    HW157548   3.575   1.814   2.097 -0.4938 -0.2513 -1.2412
49206SOL    HW257549   3.686   1.901   2.152 -0.3851 -1.5813  0.7564
49207SOL     OW57550   4.181   5.316  10.110 -0.1594  0.2320  0.8787
49207SOL    HW157551   4.205   5.266  10.188  0.3508 -0.8153  0.0660
49207SOL    HW257552   4.112   5.265  10.068 -1.3562  1.4329  1.2807
49208SOL     OW57553   8.002   2.406   2.309  0.2686  0.0660  0.3938
49208SOL    HW157554   8.094   2.422   2.287  0.2329 -1.1378 -0.7400
49208SOL    HW257555   7.997   2.424   2.402  1.3893  1.2956  0.2561
49209SOL     OW57556   2.154   6.259   4.486 -0.6741  0.0730  0.4656
49209SOL    HW157557   2.233   6.212   4.511 -0.3168  0.2707 -0.2545
49209SOL    HW257558   2.090   6.189   4.469 -0.5773 -0.0975  0.7896
49210SOL     OW57559   4.449   5.172   8.956 -0.2586  0.2537  0.8166
49210SOL    HW157560   4.528   5.158   8.904  0.0818  0.1304  1.3542
49210SOL    HW257561   4.479   5.225   9.030 -1.1268  2.1749 -0.1379
49211SOL     OW57562   6.947   8.311   3.422 -0.3729 -0.1098  0.1980
49211SOL    HW157563   6.874   8.371   3.433 -0.0377  0.2936  0.2498
49211SOL    HW257564   6.984   8.300   3.509 -0.2941 -0.2085  0.1532
49212SOL     OW57565   2.356   0.650   7.959  0.3191  0.7192  0.7538
49212SOL    HW157566   2.425   0.586   7.946 -0.2565  0.0344  1.0496
49212SOL    HW257567   2.284   0.620   7.904 -0.3422  0.5092  1.7087
49213SOL     OW57568   8.538   0.494  13.208 -0.0926 -0.6252  0.6704
49213SOL    HW157569   8.623   0.530  13.234  0.2268 -1.6110  1.0568
49213SOL    HW257570   8.558   0.404  13.180 -0.8793 -0.5724 -0.1084
49214SOL     OW57571   0.558  12.943   2.625 -0.0650  0.2343 -0.1582
49214SOL    HW157572   0.653  12.950   2.636 -0.0613 -0.5804  0.4143
49214SOL    HW257573   0.533  12.868   2.679 -1.0806  0.6256 -0.0575
49215SOL     OW57574   7.043  12.038   3.710  0.5727 -0.0641  0.4227
49215SOL    HW157575   7.088  12.119   3.734 -1.5579  1.2726  0.2515
49215SOL    HW257576   6.960  12.043   3.757  0.0681 -1.7860 -0.2243
49216SOL     OW57577   1.971  11.754   6.334  0.2980  0.1429  1.2173
49216SOL    HW157578   2.053  11.726   6.293  0.9398  4.9793 -1.5877
49216SOL    HW257579   1.903  11.701   6.290  1.5931 -0.5295 -0.0533
49217SOL     OW57580   5.113   2.015   8.601 -0.2664  0.0981  1.0695
49217SOL    HW157581   5.122   2.078   8.529  1.7394 -0.8878  0.3671
49217SOL    HW257582   5.077   1.936   8.559 -2.2298  0.5605  1.8303
49218SOL     OW57583   2.654  10.780   9.246 -0.2668  0.4759 -0.2800
49218SOL    HW157584   2.679  10.803   9.335  0.5488  1.7833 -0.8141
49218SOL    HW257585   2.560  10.797   9.243 -0.0124  2.1210 -0.1202
49219SOL     OW57586   7.757   9.745  10.121  0.4708 -0.1833 -0.1357
49219SOL    HW157587   7.759   9.770  10.213  1.6234  1.1681 -0.4983
49219SOL    HW257588   7.733   9.825  10.075 -0.8529 -1.0259 -0.9772
49220SOL     OW57589  10.729   0.947   5.004 -0.6043 -0.3128 -0.3822
49220SOL    HW157590  10.698   0.856   5.003  0.7264 -0.7905 -0.4759
49220SOL    HW257591  10.710   0.978   5.092 -0.9642 -0.7200 -0.3118
49221SOL     OW57592  10.880  10.020   3.487  0.0464 -0.1511 -0.2923
49221SOL    HW157593  10.809  10.049   3.430  0.1502  1.5735  0.3605
49221SOL    HW257594  10.863   9.928   3.503 -2.3032  0.2832  0.1484
49222SOL     OW57595  10.648  11.925   3.935  0.8704  0.5316 -0.4715
49222SOL    HW157596  10.608  11.910   4.021  1.8747 -1.0588 -0.2293
49222SOL    HW257597  10.608  11.859   3.879  1.9080  0.0028 -0.6216
49223SOL     OW57598   2.091   0.262   9.064  0.3468  0.2824 -0.0852
49223SOL    HW157599   2.044   0.327   9.115 -1.3652 -1.8959  1.2922
49223SOL    HW257600   2.176   0.254   9.107 -0.4494 -0.2968  1.4598
49224SOL     OW57601  12.451  10.079   5.516 -0.4575  0.1011  0.3551
49224SOL    HW157602  12.422  10.013   5.453 -0.0056  0.2657 -0.0309
49224SOL    HW257603  12.546  10.067   5.521 -0.5846 -0.5105  1.6904
49225SOL     OW57604   7.202   0.242  12.919 -0.1749  0.4866 -0.3871
49225SOL    HW157605   7.235   0.166  12.966  1.2887  0.5359 -1.2503
49225SOL    HW257606   7.198   0.312  12.984  1.6734  0.5201 -0.2718
49226SOL     OW57607   3.082   7.319   8.604  0.0063  0.1483 -0.0193
49226SOL    HW157608   3.173   7.341   8.624 -0.0292  0.0142  0.2921
49226SOL    HW257609   3.072   7.339   8.510  0.1211  0.9572  0.1344
49227SOL     OW57610   1.081   9.568   9.700 -0.3874  0.0304 -0.2037
49227SOL    HW157611   1.156   9.585   9.757 -1.5534 -0.7149  1.6239
49227SOL    HW257612   1.120   9.540   9.617  1.3512  0.8865  0.2756
49228SOL     OW57613   5.021   4.157   1.514 -0.0037  0.2583  0.1762
49228SOL    HW157614   5.033   4.232   1.456  2.7292 -0.1779  0.0579
49228SOL    HW257615   4.976   4.193   1.590  0.1604  1.7466 -0.3933
49229SOL     OW57616   6.589   5.919  12.503 -0.0467 -0.4234 -0.4965
49229SOL    HW157617   6.559   5.831  12.525 -0.5981 -0.6335 -2.0065
49229SOL    HW257618   6.565   5.931  12.412 -0.4489  1.5034 -0.1853
49230SOL     OW57619   2.204   0.051  10.920 -0.1649  0.5743  0.8628
49230SOL    HW157620   2.210   0.067  10.826 -0.5076  1.3915  0.9748
49230SOL    HW257621   2.261  -0.025  10.935  2.1721  2.1092  0.4029
49231SOL     OW57622   9.051   5.953  10.560  0.3825 -0.1075  0.5195
49231SOL    HW157623   9.119   5.941  10.626 -0.0026  1.6185  1.2740
49231SOL    HW257624   9.088   6.018  10.500 -0.3120  0.2964  0.5272
49232SOL     OW57625  13.016   6.486   5.080 -0.0807 -0.4429  0.2115
49232SOL    HW157626  13.078   6.447   5.019  0.6432  1.2913 -0.2193
49232SOL    HW257627  13.051   6.467   5.167 -0.0157 -1.1571  0.0286
49233SOL     OW57628   1.576  11.645   6.933 -0.1973 -0.2631  0.0619
49233SOL    HW157629   1.492  11.690   6.942  0.4755  1.0310  0.0198
49233SOL    HW257630   1.591  11.606   7.019 -1.6453 -2.0094 -0.4109
49234SOL     OW57631  12.680   5.990   4.256  0.7321 -0.1983 -0.0110
49234SOL    HW157632  12.745   6.014   4.321  0.2749  0.6683  0.1277
49234SOL    HW257633  12.607   6.050   4.270 -0.1324 -1.1955 -0.1232
49235SOL     OW57634   7.890   2.120  11.402  0.3000  0.1282  0.0901
49235SOL    HW157635   7.965   2.092  11.350  0.8221  0.1036  0.8476
49235SOL    HW257636   7.816   2.070  11.367  0.3838  1.0377 -1.4808
49236SOL     OW57637   1.503  10.235   7.217  0.3558  0.0036  0.6015
49236SOL    HW157638   1.486  10.319   7.175 -0.6829  0.4476  1.8284
49236SOL    HW257639   1.423  10.184   7.202 -0.4298  0.5027  2.7166
49237SOL     OW57640  12.793   8.303  12.969 -0.4594 -0.1691  0.5333
49237SOL    HW157641  12.760   8.284  12.881  2.0277  1.9935 -1.0131
49237SOL    HW257642  12.754   8.388  12.991  0.3774  0.1986  0.6537
49238SOL     OW57643   0.201   3.195   4.260 -0.0458 -0.8881  0.4208
49238SOL    HW157644   0.259   3.163   4.329 -0.3403 -0.5053  0.8491
49238SOL    HW257645   0.235   3.282   4.240  1.0938 -1.6360 -1.1230
49239SOL     OW57646   0.299   3.228   7.935 -0.6054 -0.3360  0.5135
49239SOL    HW157647   0.247   3.179   7.999 -0.1585 -0.0573  1.0890
49239SOL    HW257648   0.238   3.295   7.902 -0.9245 -0.6640  0.4252
49240SOL     OW57649   8.869   5.836  11.765 -0.4059  0.2616  0.0920
49240SOL    HW157650   8.811   5.792  11.828  0.3763 -0.0496  0.6173
49240SOL    HW257651   8.880   5.924  11.800 -0.1771  0.1690  0.2549
49241SOL     OW57652  11.455   7.553   4.521  0.2377 -0.4795 -0.3201
49241SOL    HW157653  11.482   7.466   4.551  0.6489 -0.7258 -1.3505
49241SOL    HW257654  11.526   7.581   4.463  0.8932  1.2279  1.1902
49242SOL     OW57655   8.414  12.146  10.335  0.2709 -0.5474 -0.3503
49242SOL    HW157656   8.441  12.118  10.422  1.9257  0.9619 -0.2990
49242SOL    HW257657   8.378  12.234  10.348 -0.2802 -0.6497 -1.0886
49243SOL     OW57658   1.867   5.273   5.741 -0.1010  0.2250  0.5785
49243SOL    HW157659   1.921   5.195   5.729  0.9325  0.6132  2.3905
49243SOL    HW257660   1.927   5.340   5.774 -1.1367  1.5408 -0.1023
49244SOL     OW57661   4.410   7.462   5.857 -0.2923 -0.0527 -0.0035
49244SOL    HW157662   4.357   7.387   5.886  1.1765 -1.3869 -0.5999
49244SOL    HW257663   4.347   7.525   5.824 -1.7099 -0.3152  2.0304
49245SOL     OW57664  10.323   8.987   1.946  0.1160  0.1085  0.3787
49245SOL    HW157665  10.413   8.988   1.912 -0.6727  0.3974 -1.8803
49245SOL    HW257666  10.281   9.062   1.903 -0.9094  0.7278  2.3527
49246SOL     OW57667   7.005   9.414   2.815  0.4199 -0.2678  0.5935
49246SOL    HW157668   6.990   9.367   2.733 -0.0957 -1.0874  1.1541
49246SOL    HW257669   6.998   9.348   2.883  2.6955  0.0497  1.1977
49247SOL     OW57670   9.297   2.375   0.557  0.2980  0.5235 -0.5511
49247SOL    HW157671   9.320   2.425   0.479  2.6252  1.6339  0.7456
49247SOL    HW257672   9.375   2.379   0.612 -1.0444 -0.7463  1.5843
49248SOL     OW57673   5.078   9.582  10.526 -0.0837  0.3764  0.3779
49248SOL    HW157674   5.108   9.636  10.599 -0.8230 -0.0873  1.0356
49248SOL    HW257675   5.019   9.639  10.476 -1.4441 -0.0008  1.4787
49249SOL     OW57676  11.459   6.992   2.432  0.2243  0.0038  0.0184
49249SOL    HW157677  11.505   6.913   2.406 -0.4733 -1.8374  3.6995
49249SOL    HW257678  11.381   6.994   2.377  1.1645 -0.7861 -1.3910
49250SOL     OW57679   8.107   2.334  10.766 -0.2069  0.2194 -0.5845
49250SOL    HW157680   8.119   2.276  10.842  0.1413  0.8562 -0.1472
49250SOL    HW257681   8.195   2.369  10.749 -0.7981  2.4737  0.6475
49251SOL     OW57682  12.384  13.177   1.748 -0.2446 -0.1934 -0.2281
49251SOL    HW157683  12.325  13.111   1.785  0.7150 -1.4671 -0.8828
49251SOL    HW257684  12.471  13.139   1.756  0.7015  2.1411  1.8077
49252SOL     OW57685  11.139   7.002  12.274  0.1281  0.2098  0.2930
49252SOL    HW157686  11.048   6.973  12.284  0.4824 -0.6046  1.4485
49252SOL    HW257687  11.173   6.947  12.203  0.0686 -0.3939  0.7243
49253SOL     OW57688   1.399   8.548  11.571 -0.1126  0.0976  0.0564
49253SOL    HW157689   1.335   8.534  11.641  0.1992  0.5380  0.4375
49253SOL    HW257690   1.472   8.594  11.614 -0.2738  1.1375 -0.7391
49254SOL     OW57691   8.257   8.644   1.744 -0.4916  0.0930  0.4187
49254SOL    HW157692   8.171   8.660   1.781  0.1924 -1.6694  3.0720
49254SOL    HW257693   8.318   8.660   1.816  1.4943  1.5112 -1.4222
49255SOL     OW57694   1.669   1.681  11.695 -0.1046  0.2968 -0.5311
49255SOL    HW157695   1.716   1.761  11.673  0.4011 -0.0729 -0.8328
49255SOL    HW257696   1.722   1.611  11.656  0.3119 -0.3116  1.0032
49256SOL     OW57697   5.239   4.596   5.986  0.1425 -0.2399  0.2417
49256SOL    HW157698   5.181   4.544   5.929  1.4482 -1.3673 -0.1005
49256SOL    HW257699   5.245   4.681   5.942 -0.4616 -0.4374 -0.2377
49257SOL     OW57700   7.211   3.488   3.839 -0.2838  0.1650  0.5146
49257SOL    HW157701   7.195   3.582   3.848 -0.9068  0.2520 -1.0401
49257SOL    HW257702   7.162   3.448   3.910 -0.1504  0.9981  1.0946
49258SOL     OW57703   4.255   2.971   3.059 -0.1323 -0.1753 -0.5321
49258SOL    HW157704   4.222   3.059   3.039 -2.0435 -0.3483  1.5365
49258SOL    HW257705   4.285   2.976   3.149  2.7518 -0.9018 -1.3552
49259SOL     OW57706   9.119   0.585  12.361  0.1524  0.2620  0.4108
49259SOL    HW157707   9.079   0.605  12.276  1.7803  0.5649 -0.3267
49259SOL    HW257708   9.112   0.667  12.411  0.3567  0.5005  0.0584
49260SOL     OW57709   8.961  12.913   4.058 -0.1289 -0.2551 -0.3690
49260SOL    HW157710   8.973  12.997   4.014 -0.3407  0.0769  0.1952
49260SOL    HW257711   9.025  12.914   4.129  0.2017 -0.7820 -0.6488
49261SOL     OW57712  11.020   3.304  12.147 -0.5475 -0.3174  0.0854
49261SOL    HW157713  10.998   3.380  12.093 -2.9125  0.6153  2.1100
49261SOL    HW257714  11.097   3.331  12.196 -0.1311 -0.0403 -0.7140
49262SOL     OW57715  12.810   4.321   7.094  0.0480 -0.2285 -0.2924
49262SOL    HW157716  12.740   4.262   7.066 -1.4193  1.2429  0.0724
49262SOL    HW257717  12.857   4.274   7.162 -0.5590 -1.2688 -0.5785
49263SOL     OW57718  13.136   1.215   1.604 -0.2567 -0.4274  1.1368
49263SOL    HW157719  13.045   1.224   1.576 -0.3113 -0.5870  1.2651
49263SOL    HW257720  13.173   1.149   1.545  0.5300  1.5550 -0.7463
49264SOL     OW57721   6.069   0.371   5.848 -0.2379  0.2507  0.4113
49264SOL    HW157722   6.012   0.296   5.865 -0.2364  0.8119  3.5941
49264SOL    HW257723   6.031   0.442   5.900 -0.2435  2.5553 -2.4832
49265SOL     OW57724   2.322   8.752   7.159 -0.0181  0.0068  0.2938
49265SOL    HW157725   2.363   8.808   7.092  0.6769 -0.9917 -0.1425
49265SOL    HW257726   2.384   8.680   7.171 -0.5768 -0.3230  1.3418
49266SOL     OW57727   3.681   5.505   5.435 -0.4981 -0.0094  0.1469
49266SOL    HW157728   3.646   5.443   5.372 -1.0279  1.6600 -1.2805
49266SOL    HW257729   3.776   5.498   5.426 -0.5361 -0.9576  0.3936
49267SOL     OW57730   9.302   5.930   3.640  0.0998  0.4578 -0.3573
49267SOL    HW157731   9.393   5.958   3.633 -0.5224  2.6242 -0.5472
49267SOL    HW257732   9.280   5.941   3.732  0.1874 -0.6513 -0.1947
49268SOL     OW57733  11.938   2.007   9.617  0.2787 -0.1749  0.7949
49268SOL    HW157734  11.868   1.943   9.601 -0.4884  0.8365  0.0234
49268SOL    HW257735  11.937   2.018   9.712 -0.2568 -0.5669  0.8449
49269SOL     OW57736   2.053  11.244   6.809 -0.2417 -0.5206 -0.2686
49269SOL    HW157737   1.989  11.222   6.741 -0.2298  1.3533 -0.9271
49269SOL    HW257738   2.086  11.159   6.839 -1.0601 -1.4226 -1.8199
49270SOL     OW57739   7.684   7.202   0.754 -0.1602  0.4383  0.1760
49270SOL    HW157740   7.596   7.241   0.746 -0.1331  0.6484  0.9237
49270SOL    HW257741   7.697   7.157   0.670 -0.7357  0.9146 -0.1763
49271SOL     OW57742   7.068   9.944   9.089 -0.2794 -0.3853 -0.4057
49271SOL    HW157743   7.094  10.034   9.069 -1.1805  0.3083  1.3326
49271SOL    HW257744   7.118   9.921   9.167  0.5686 -1.7253 -1.3049
49272SOL     OW57745   5.965   5.661  12.618 -0.4338  0.7001 -0.2813
49272SOL    HW157746   5.914   5.614  12.552  0.4211 -0.4546 -0.1499
49272SOL    HW257747   5.902   5.682  12.687 -1.2990  1.7435 -1.3336
49273SOL     OW57748  10.077   7.515   0.793 -0.0773 -0.1172  0.5372
49273SOL    HW157749  10.127   7.589   0.760  0.0013 -0.1887  0.4937
49273SOL    HW257750  10.071   7.529   0.887 -0.3078  0.0903  0.4915
49274SOL     OW57751   4.267   4.502  11.106 -0.1961  0.5263  0.1647
49274SOL    HW157752   4.218   4.421  11.117 -1.0230  0.7075 -1.7762
49274SOL    HW257753   4.203   4.571  11.123  0.0672  0.7703  0.1757
49275SOL     OW57754   4.768  10.131   6.317 -0.4002 -0.1472  0.4154
49275SOL    HW157755   4.747  10.203   6.375  0.3339  0.7181 -0.3697
49275SOL    HW257756   4.844  10.088   6.358  1.1456  1.4233 -0.6372
49276SOL     OW57757   4.405   6.291   1.273  0.2359 -0.4254 -0.1946
49276SOL    HW157758   4.324   6.240   1.285  0.4150 -0.7300 -0.2733
49276SOL    HW257759   4.475   6.227   1.281  0.5361  0.0448  1.0803
49277SOL     OW57760  10.989   4.891   8.503  0.3992 -0.3467 -0.3137
49277SOL    HW157761  11.029   4.973   8.474  1.5646 -0.0200  1.9838
49277SOL    HW257762  11.064   4.837   8.532 -0.5974  0.1652  3.8771
49278SOL     OW57763  12.686   7.808   6.623 -0.0582 -0.1269  0.5300
49278SOL    HW157764  12.707   7.732   6.570 -0.4802 -0.5654  0.9814
49278SOL    HW257765  12.623   7.858   6.571 -0.4724 -0.5541  0.6220
49279SOL     OW57766   5.293   8.253   1.991 -0.1532  0.0315  0.4101
49279SOL    HW157767   5.236   8.200   2.048 -1.3825 -0.2229 -0.9893
49279SOL    HW257768   5.236   8.279   1.919  0.8425  1.9877  0.2702
49280SOL     OW57769   3.136   4.651   5.239  0.6025 -0.3488  0.2808
49280SOL    HW157770   3.163   4.650   5.147 -0.3741  0.0785 -0.0129
49280SOL    HW257771   3.113   4.742   5.257 -1.3379 -0.8024  0.3030
49281SOL     OW57772   4.348  11.764   3.361  0.1172  0.1185 -0.0028
49281SOL    HW157773   4.397  11.684   3.343 -0.1192 -0.2280  0.8536
49281SOL    HW257774   4.393  11.803   3.436  0.5825  1.0980 -0.7688
49282SOL     OW57775   6.580   7.313   3.332  0.6689  0.0850  0.2552
49282SOL    HW157776   6.594   7.353   3.246 -0.2351  0.4132  0.2446
49282SOL    HW257777   6.643   7.241   3.337  1.5180  0.7832 -0.2064
49283SOL     OW57778  12.422  12.413   0.774 -0.4549 -0.2985 -0.1012
49283SOL    HW157779  12.461  12.458   0.699 -3.0633  0.0572 -1.3629
49283SOL    HW257780  12.466  12.328   0.777 -0.6460 -0.5342 -2.4255
49284SOL     OW57781   8.017  12.690   0.278  0.1238  0.0932 -0.5514
49284SOL    HW157782   8.046  12.733   0.359  0.0657  0.0386 -0.5009
49284SOL    HW257783   7.922  12.680   0.290  0.2449 -0.7537 -0.2242
49285SOL     OW57784   9.503   7.569   4.104 -0.2376 -0.0714  0.2692
49285SOL    HW157785   9.504   7.657   4.143  1.1145  0.5550 -1.1134
49285SOL    HW257786   9.497   7.584   4.010  0.0488 -1.4724  0.0021
49286SOL     OW57787   6.465   5.463   9.033  0.4159  0.2995 -0.6067
49286SOL    HW157788   6.378   5.496   9.012 -0.0245 -0.5100 -0.1073
49286SOL    HW257789   6.471   5.471   9.128  0.3666 -0.8436 -0.4900
49287SOL     OW57790  12.981   9.691  12.162 -0.3330  0.1103 -0.5129
49287SOL    HW157791  13.013   9.696  12.252 -0.4274  0.5015 -0.4944
49287SOL    HW257792  12.889   9.718  12.168 -0.4515 -0.2474 -0.6710
49288SOL     OW57793   5.113   0.883   2.922  0.2885  0.0768  0.1740
49288SOL    HW157794   5.103   0.796   2.884  2.8876 -0.4233  0.4483
49288SOL    HW257795   5.115   0.942   2.846  0.9137 -0.3915 -0.1814
49289SOL     OW57796   9.776   1.726   2.759 -0.1868 -0.5947 -0.4846
49289SOL    HW157797   9.846   1.773   2.714 -0.5798 -1.6827 -2.3394
49289SOL    HW257798   9.734   1.674   2.691 -1.7903 -1.2028  0.8863
49290SOL     OW57799   3.292  10.884   6.759 -0.0859 -0.0527  0.1421
49290SOL    HW157800   3.349  10.889   6.836  2.1879  1.3323 -1.4731
49290SOL    HW257801   3.309  10.967   6.712 -2.3929 -0.2440 -1.1754
49291SOL     OW57802   2.102  10.109   1.113  0.2368  0.4511  0.4948
49291SOL    HW157803   2.096  10.013   1.105 -1.6432  0.6131 -0.7659
49291SOL    HW257804   2.029  10.133   1.169  0.1049  1.2294 -0.0022
49292SOL     OW57805   4.884   8.846  13.000 -0.6624  0.4152 -0.1214
49292SOL    HW157806   4.807   8.830  13.054 -0.0947 -1.0329  0.3030
49292SOL    HW257807   4.916   8.932  13.027 -1.0138  0.1778  1.0717
49293SOL     OW57808  10.251  10.367   8.254  0.1918  0.4158 -0.6895
49293SOL    HW157809  10.175  10.393   8.202 -0.9741 -2.6694 -0.7068
49293SOL    HW257810  10.255  10.272   8.245  3.1383  0.3232  0.6226
49294SOL     OW57811   4.074   5.462   1.037 -0.2602  0.0110 -0.3261
49294SOL    HW157812   4.049   5.455   0.945 -1.7822  1.3680 -0.0602
49294SOL    HW257813   4.037   5.384   1.078  0.1118 -0.4118 -0.7742
49295SOL     OW57814   9.183   3.617   2.201  0.0871 -0.1181  0.2317
49295SOL    HW157815   9.254   3.641   2.260 -1.1641  1.1269  1.3041
49295SOL    HW257816   9.206   3.529   2.171  1.3987 -0.2872  1.5883
49296SOL     OW57817  10.782  10.734   4.877  0.2397  0.3000 -0.2870
49296SOL    HW157818  10.720  10.736   4.804 -0.5415 -1.6002  0.2823
49296SOL    HW257819  10.743  10.676   4.941  0.8083  2.0948  1.8030
49297SOL     OW57820   4.938   1.342   0.788  0.0420 -0.3533 -0.3795
49297SOL    HW157821   4.850   1.368   0.817 -0.1499  0.1821 -1.4068
49297SOL    HW257822   4.930   1.334   0.693  1.2147  0.0819 -0.5205
49298SOL     OW57823   3.387   2.441   9.446 -0.0601  0.6532  0.3706
49298SOL    HW157824   3.305   2.444   9.496 -0.6162  0.0014 -0.4777
49298SOL    HW257825   3.424   2.355   9.467 -0.5769  0.1427 -0.7450
49299SOL     OW57826   3.915  10.682  10.791 -0.0629  0.2821 -0.2344
49299SOL    HW157827   3.992  10.737  10.774  0.5914 -0.4343  0.3383
49299SOL    HW257828   3.940  10.595  10.758 -0.6638  0.0600 -0.1230
49300SOL     OW57829   8.028  10.619  10.268  0.3632  0.1731  0.5180
49300SOL    HW157830   8.088  10.679  10.312  1.0226 -0.5867  0.6763
49300SOL    HW257831   8.054  10.621  10.176 -0.4112  1.0457  0.2993
49301SOL     OW57832  13.153  10.342   6.192 -0.4830  0.5798  0.0692
49301SOL    HW157833  13.178  10.303   6.276 -0.2129  1.4593  0.4023
49301SOL    HW257834  13.117  10.427   6.214 -0.9465  0.5823 -0.6686
49302SOL     OW57835   5.805   1.420  11.145  0.0065 -0.6251  0.2351
49302SOL    HW157836   5.842   1.391  11.061 -1.7618 -1.4409 -0.3148
49302SOL    HW257837   5.765   1.341  11.181 -0.9704  0.1643  0.9012
49303SOL     OW57838   2.062   5.272   3.902 -0.4276 -0.0881 -0.5075
49303SOL    HW157839   2.102   5.256   3.817 -0.2227 -2.3546 -0.0639
49303SOL    HW257840   2.130   5.250   3.966 -1.7117 -2.2990  0.2304
49304SOL     OW57841   6.182  12.098   2.046  0.2873  0.1985 -0.0996
49304SOL    HW157842   6.275  12.091   2.067  0.5556  1.4710 -0.8116
49304SOL    HW257843   6.139  12.106   2.132  0.6512 -1.8410  0.3281
49305SOL     OW57844   1.146   6.266   1.918  0.8012  0.0044 -0.1931
49305SOL    HW157845   1.147   6.199   1.987  0.6206  1.4645  1.2956
49305SOL    HW257846   1.074   6.239   1.861  1.9997 -2.1419 -0.8035
49306SOL     OW57847   0.033   6.086   0.259  0.6246 -0.3334 -0.1502
49306SOL    HW157848  -0.005   6.110   0.344  1.5910  2.9029 -0.4868
49306SOL    HW257849   0.110   6.142   0.251  1.4087 -1.6328 -2.5505
49307SOL     OW57850   3.694   1.618   8.444 -0.4266  0.3579  0.1770
49307SOL    HW157851   3.687   1.662   8.529 -2.0832 -1.2013  0.9253
49307SOL    HW257852   3.615   1.646   8.397 -0.6846 -0.5552  0.0589
49308SOL     OW57853  10.606   3.739  12.374  0.1719  0.4637 -0.0787
49308SOL    HW157854  10.658   3.776  12.301  0.4398  0.1958 -0.0239
49308SOL    HW257855  10.659   3.757  12.452  0.3004 -0.0367 -0.0513
49309SOL     OW57856   2.687  10.783   9.514  0.3219 -0.1206  0.0505
49309SOL    HW157857   2.603  10.750   9.546  1.1635 -0.7952  1.6922
49309SOL    HW257858   2.708  10.856   9.572  1.1120 -0.3178  0.0287
49310SOL     OW57859   1.131   0.887   6.780 -0.2925 -0.4397 -0.4117
49310SOL    HW157860   1.058   0.852   6.832  1.3788 -1.4434  1.3785
49310SOL    HW257861   1.127   0.981   6.794 -0.5408 -0.5971  0.6163
49311SOL     OW57862   7.783   1.520  11.795 -0.1064 -0.2437  0.5595
49311SOL    HW157863   7.861   1.569  11.769 -0.9855  0.7929 -0.2501
49311SOL    HW257864   7.752   1.479  11.714 -0.3391 -0.7305  0.8895
49312SOL     OW57865  13.178  12.533   0.259 -0.8151 -0.3298 -0.1798
49312SOL    HW157866  13.222  12.581   0.189  0.7820 -0.4001  0.7500
49312SOL    HW257867  13.125  12.599   0.304  0.7261  0.4505  0.5781
49313SOL     OW57868   6.316  11.726   0.591  0.1534 -0.1197  0.3924
49313SOL    HW157869   6.271  11.673   0.657  1.0602 -0.5494  0.6763
49313SOL    HW257870   6.404  11.739   0.626 -0.3981  2.6971  0.9387
49314SOL     OW57871   0.283  13.248   7.101 -0.4554  0.5079 -0.1834
49314SOL    HW157872   0.362  13.228   7.150 -1.6073 -2.4860  0.6852
49314SOL    HW257873   0.259  13.336   7.129 -0.5458 -0.6869  4.0963
49315SOL     OW57874   2.612  11.436   4.077  0.7009 -0.1778 -0.0958
49315SOL    HW157875   2.580  11.452   3.988 -0.2145 -2.7027 -0.3130
49315SOL    HW257876   2.679  11.369   4.066  0.5755 -0.5229  1.1189
49316SOL     OW57877   3.874   0.865   7.422 -0.0738  0.9773 -0.6409
49316SOL    HW157878   3.841   0.819   7.345  0.0900 -2.0953  0.9352
49316SOL    HW257879   3.798   0.910   7.457 -1.2647 -1.1251 -0.3355
49317SOL     OW57880   1.368   4.072   3.760  0.6101 -0.4568 -0.4671
49317SOL    HW157881   1.368   4.168   3.761 -0.6262 -0.4045 -1.6822
49317SOL    HW257882   1.402   4.049   3.674  0.7954 -1.1045 -0.2215
49318SOL     OW57883  12.342  12.953  11.244 -0.6037  0.6221 -0.5929
49318SOL    HW157884  12.402  12.936  11.171 -0.2314  2.0141 -0.6259
49318SOL    HW257885  12.380  13.029  11.288 -0.1739 -0.8765  1.7643
49319SOL     OW57886   6.880   3.295   3.729 -0.4003  0.0829 -0.9381
49319SOL    HW157887   6.916   3.373   3.686 -0.3517  1.2121  0.9886
49319SOL    HW257888   6.955   3.259   3.777 -0.4814 -1.0565 -1.6434
49320SOL     OW57889   0.605  13.308  10.091  0.1701 -0.1017  0.7276
49320SOL    HW157890   0.686  13.335  10.135 -0.4180 -1.3890  2.7496
49320SOL    HW257891   0.561  13.391  10.070  0.8666  0.6059  1.9109
49321SOL     OW57892   2.515   2.302   4.537 -0.7099 -0.3771  0.0466
49321SOL    HW157893   2.466   2.226   4.567  1.3661 -2.5486 -1.7220
49321SOL    HW257894   2.605   2.286   4.565 -0.1112  1.1441 -0.8706
49322SOL     OW57895  11.557   6.830   0.028  0.2805  0.0290 -0.2272
49322SOL    HW157896  11.646   6.857   0.051  0.1015  0.7871 -0.4121
49322SOL    HW257897  11.528   6.895  -0.036 -0.3798 -0.2609 -0.2251
49323SOL     OW57898  13.220   8.060  12.000 -0.0113  0.0960 -0.0309
49323SOL    HW157899  13.303   8.014  11.993  1.1672  2.0805  0.3720
49323SOL    HW257900  13.154   7.992  11.985  1.6054 -1.8133  1.0216
49324SOL     OW57901   4.440  12.773   2.455  0.2625  0.8609  0.0319
49324SOL    HW157902   4.519  12.739   2.497  0.8924  1.5983 -0.5359
49324SOL    HW257903   4.371  12.761   2.521  0.1000 -2.7649 -0.5592
49325SOL     OW57904   5.184   5.006  12.657  0.4019 -0.4317 -0.0853
49325SOL    HW157905   5.213   4.974  12.571 -1.4750  0.8331 -1.2878
49325SOL    HW257906   5.221   5.094  12.663  0.1975 -0.3656  0.2133
49326SOL     OW57907   0.442   1.965   8.774 -0.4219 -0.3171  0.3980
49326SOL    HW157908   0.390   1.891   8.804 -0.3330  0.1842  1.8504
49326SOL    HW257909   0.431   1.965   8.679 -1.0687 -1.6958  0.4526
49327SOL     OW57910   4.744   3.949   8.868  0.2127  0.0862  0.2551
49327SOL    HW157911   4.675   3.926   8.931  0.0346  2.2248  0.9060
49327SOL    HW257912   4.744   4.045   8.867  3.4535  0.1729  0.5604
49328SOL     OW57913   9.375   3.200  11.636 -0.2177 -0.1968  0.1541
49328SOL    HW157914   9.301   3.166  11.686 -0.8740  1.1941  0.1807
49328SOL    HW257915   9.444   3.136  11.648 -0.9984 -0.8650  1.2187
49329SOL     OW57916   2.469   1.516   0.620  0.5654 -0.1780  0.2609
49329SOL    HW157917   2.498   1.607   0.614 -0.6956  0.3617  1.6825
49329SOL    HW257918   2.432   1.497   0.534  0.8285  0.6492 -0.0483
49330SOL     OW57919   4.603  10.548  13.124  0.3259 -0.7643 -0.4522
49330SOL    HW157920   4.538  10.578  13.061 -1.5438 -1.8095  0.8922
49330SOL    HW257921   4.591  10.605  13.200 -1.0250 -2.7208  0.8790
49331SOL     OW57922   5.160  11.739   8.349 -0.3415  0.0218  0.6030
49331SOL    HW157923   5.222  11.783   8.408  1.5225 -0.2788 -1.0086
49331SOL    HW257924   5.137  11.659   8.395  2.2763 -0.9644  0.3864
49332SOL     OW57925   7.752  12.775   0.695  0.2228  0.0717 -0.4493
49332SOL    HW157926   7.737  12.684   0.718 -1.1860  0.6336  1.0170
49332SOL    HW257927   7.825  12.802   0.750 -0.5570  0.3156  0.4852
49333SOL     OW57928  11.845  12.156   4.605  0.2315  0.0035 -0.3870
49333SOL    HW157929  11.783  12.150   4.532 -0.0405  1.1169 -0.2727
49333SOL    HW257930  11.791  12.168   4.682  0.5406 -0.7087 -0.0512
49334SOL     OW57931   5.069   1.884  11.417 -0.7285  0.0299 -0.2523
49334SOL    HW157932   5.151   1.892  11.368 -2.0244 -2.3505 -3.0984
49334SOL    HW257933   5.000   1.897  11.352 -2.5791 -2.9279  0.9092
49335SOL     OW57934   7.385   4.470   0.071 -0.5144 -0.2496  0.3538
49335SOL    HW157935   7.396   4.560   0.102  0.6154 -0.0345 -0.6267
49335SOL    HW257936   7.291   4.455   0.074 -0.5932  0.3030  2.3197
49336SOL     OW57937   6.021   5.722   5.227 -0.0300 -0.3387 -0.7819
49336SOL    HW157938   6.030   5.659   5.156 -0.6725  0.1548 -1.3090
49336SOL    HW257939   6.023   5.807   5.184  2.0435  0.0921  0.0224
49337SOL     OW57940   2.943   3.418   2.214  0.3367  0.0205  0.0534
49337SOL    HW157941   3.022   3.417   2.267  0.8105  0.6959 -0.6142
49337SOL    HW257942   2.890   3.488   2.252 -0.6722 -1.4616  1.4942
49338SOL     OW57943   4.160   0.205  11.504 -0.7017  0.0683  0.2655
49338SOL    HW157944   4.130   0.217  11.594 -2.3855 -2.3404  0.1198
49338SOL    HW257945   4.255   0.212  11.510 -0.8244  0.7890  2.0897
49339SOL     OW57946  13.259   2.970   0.789 -0.3048  0.3579 -0.0514
49339SOL    HW157947  13.254   2.990   0.882 -0.6565  0.4816 -0.0935
49339SOL    HW257948  13.256   2.875   0.784 -2.9810  0.3587 -0.0498
49340SOL     OW57949   6.029   9.174   9.984 -0.0335 -0.3845  0.4444
49340SOL    HW157950   5.968   9.168   9.911 -0.4199  1.5288  0.5538
49340SOL    HW257951   6.116   9.164   9.945 -0.2894 -0.4849 -0.0991
49341SOL     OW57952   1.287   6.157   6.142  0.8752  0.1430 -0.0609
49341SOL    HW157953   1.373   6.166   6.101  1.2347 -0.8217  0.4515
49341SOL    HW257954   1.274   6.240   6.188  1.8332  0.0547  0.3975
49342SOL     OW57955  11.196  12.224  10.843 -0.5650 -0.6970 -0.7339
49342SOL    HW157956  11.238  12.217  10.929 -2.3696  0.7537  0.3349
49342SOL    HW257957  11.252  12.284  10.794 -0.3454 -0.3057 -0.0215
49343SOL     OW57958   0.153   8.424   4.006  0.1106 -0.4887 -0.1782
49343SOL    HW157959   0.075   8.471   3.977  0.5498  0.6625  0.4549
49343SOL    HW257960   0.211   8.425   3.930 -0.3148 -0.9797 -0.5157
49344SOL     OW57961   9.844   4.566   0.807 -0.1454  0.2574 -0.3346
49344SOL    HW157962   9.869   4.658   0.797  0.7873 -0.0249 -0.7100
49344SOL    HW257963   9.928   4.520   0.814 -0.6166 -0.4898  0.5200
49345SOL     OW57964   4.153   3.758  12.919  0.3095 -0.4489  0.2849
49345SOL    HW157965   4.181   3.707  12.843  0.4820 -1.0338  0.7392
49345SOL    HW257966   4.185   3.709  12.995  0.6900  0.4469  0.7283
49346SOL     OW57967   1.679   7.983   7.600  0.1501 -0.3823 -0.5536
49346SOL    HW157968   1.639   8.021   7.522  0.7033 -0.6412 -0.9696
49346SOL    HW257969   1.746   8.046   7.626  0.6862 -0.7893 -0.9160
49347SOL     OW57970   4.815   3.864   4.164 -0.2147 -0.1167 -0.7151
49347SOL    HW157971   4.831   3.956   4.144 -1.9547  0.2979 -0.3559
49347SOL    HW257972   4.847   3.853   4.253  0.5675 -0.0260 -0.9819
49348SOL     OW57973   8.783  11.947   8.162 -0.9276  0.5484 -0.2053
49348SOL    HW157974   8.760  12.035   8.191 -1.3735  0.5941 -0.6830
49348SOL    HW257975   8.785  11.895   8.242 -1.3023  0.8554  0.0071
49349SOL     OW57976  13.058  10.646   9.871  0.4389  0.0633 -0.0926
49349SOL    HW157977  13.010  10.640   9.789  0.9395  1.0622 -0.4746
49349SOL    HW257978  13.150  10.653   9.845  0.6516 -0.1902  0.5715
49350SOL     OW57979   2.112   2.553   1.808  0.2167 -0.1694 -0.6838
49350SOL    HW157980   2.205   2.572   1.822  0.0166  2.7105 -2.4658
49350SOL    HW257981   2.067   2.600   1.878 -0.0112  0.8939 -1.5310
49351SOL     OW57982   7.651   4.013   4.995  0.2961  0.4669 -0.3797
49351SOL    HW157983   7.577   4.028   5.054 -0.2351  0.4030 -1.0205
49351SOL    HW257984   7.613   3.969   4.919  0.9743  0.5257 -0.7618
49352SOL     OW57985   2.525   2.030   1.952 -0.5334 -0.1624  0.4083
49352SOL    HW157986   2.518   2.124   1.965 -0.2112  0.0307 -0.7315
49352SOL    HW257987   2.603   2.019   1.899 -1.6317 -0.9085 -1.1172
49353SOL     OW57988   1.433   0.260   0.389 -0.5727 -0.2619  0.8321
49353SOL    HW157989   1.466   0.248   0.478 -1.9610  1.6745  1.6650
49353SOL    HW257990   1.508   0.293   0.340 -0.3832  1.0138  1.9136
49354SOL     OW57991   2.747  13.140   2.843  0.0317  0.0123 -0.5094
49354SOL    HW157992   2.819  13.199   2.822 -0.0423  0.1641 -0.3362
49354SOL    HW257993   2.769  13.058   2.798  0.9370 -0.3469  0.5308
49355SOL     OW57994  11.001   2.217   1.204 -0.2885 -0.1336 -0.1292
49355SOL    HW157995  11.035   2.135   1.168 -0.6799 -0.0028 -0.8161
49355SOL    HW257996  10.910   2.197   1.227 -0.3405  0.0669 -0.1600
49356SOL     OW57997   4.247   1.563   2.562  0.1101  0.2127 -0.3666
49356SOL    HW157998   4.201   1.635   2.605  0.7088  0.2917  0.1495
49356SOL    HW257999   4.178   1.515   2.516 -0.3308  0.9502 -0.4808
49357SOL     OW58000   5.411   4.211   5.991 -0.6553  0.0127  0.2672
49357SOL    HW158001   5.396   4.293   6.037 -2.3449  0.4673 -1.0125
49357SOL    HW258002   5.345   4.151   6.026 -0.0377 -0.5398  0.5206
49358SOL     OW58003   4.660   1.172   9.512 -0.2218  0.0630 -0.3971
49358SOL    HW158004   4.649   1.213   9.426  3.5341  0.3246 -0.9333
49358SOL    HW258005   4.658   1.078   9.494  1.5941  0.1053 -1.0529
49359SOL     OW58006   3.414   4.291   0.006  0.2869  0.0137  0.8255
49359SOL    HW158007   3.319   4.289   0.012  0.2902 -0.7184  0.6718
49359SOL    HW258008   3.432   4.318  -0.084  0.2365  1.2889  1.1766
49360SOL     OW58009   5.326  12.583  10.342 -0.1291 -0.1549 -0.0320
49360SOL    HW158010   5.366  12.514  10.288 -2.5092 -0.9203 -0.9230
49360SOL    HW258011   5.317  12.657  10.282 -0.5984 -0.1912 -0.0052
49361SOL     OW58012  10.602  11.328   3.188 -0.3983  0.5432 -0.2380
49361SOL    HW158013  10.552  11.283   3.256 -1.2926  1.4250 -0.2853
49361SOL    HW258014  10.544  11.399   3.160 -0.6843 -0.6447 -2.9561
49362SOL     OW58015   4.913   5.556   1.608 -0.6984  0.5961 -0.2179
49362SOL    HW158016   4.864   5.473   1.600 -1.2374  1.0775 -2.6750
49362SOL    HW258017   5.003   5.532   1.588 -0.9020  0.6461 -1.2066
49363SOL     OW58018   1.576  12.878   4.157 -0.2118 -0.5006 -0.9499
49363SOL    HW158019   1.522  12.837   4.090  1.0383 -1.8389 -1.1837
49363SOL    HW258020   1.650  12.819   4.167  1.1292  1.1874 -0.5317
49364SOL     OW58021   9.711   1.066   1.053  0.5048  0.1917  0.6612
49364SOL    HW158022   9.621   1.033   1.053  0.9733 -1.1694  0.9600
49364SOL    HW258023   9.703   1.161   1.060 -0.8728 -0.0160  2.3657
49365SOL     OW58024   2.610  10.583  12.386  0.2576  0.0178 -0.2458
49365SOL    HW158025   2.562  10.651  12.432  1.6382  1.1850 -0.4436
49365SOL    HW258026   2.611  10.508  12.446 -1.8655 -0.1062 -0.3044
49366SOL     OW58027   1.174   9.746   3.372  0.0811  0.3817 -0.1869
49366SOL    HW158028   1.240   9.693   3.417 -0.0592 -0.4076 -0.8779
49366SOL    HW258029   1.140   9.688   3.303 -1.0958  0.8842 -0.0513
49367SOL     OW58030   9.096   1.412   2.020 -0.0871 -0.3135 -0.0026
49367SOL    HW158031   9.132   1.324   2.032  1.0012  0.2087  0.7709
49367SOL    HW258032   9.028   1.419   2.087  0.4306 -0.2701  0.5296
49368SOL     OW58033  10.200   6.376   9.270 -0.1251  0.5560 -0.2503
49368SOL    HW158034  10.251   6.418   9.339 -0.6941  1.5915 -0.4348
49368SOL    HW258035  10.110   6.407   9.285 -0.3847  0.1787 -0.9903
49369SOL     OW58036   2.648   1.262   8.599  0.2057  0.1641 -0.5209
49369SOL    HW158037   2.631   1.176   8.559 -0.6374  0.0006  0.1681
49369SOL    HW258038   2.576   1.317   8.568  0.4655  0.4874 -0.5530
49370SOL     OW58039   5.737   0.396   8.628  0.0896 -0.0572 -0.3998
49370SOL    HW158040   5.694   0.435   8.552  0.9422 -0.3413 -1.0423
49370SOL    HW258041   5.734   0.302   8.612 -0.7672 -0.1929  0.4982
49371SOL     OW58042   0.692   3.140   4.367 -0.1905 -0.0569 -0.0078
49371SOL    HW158043   0.690   3.117   4.274 -0.0116  0.1600 -0.0678
49371SOL    HW258044   0.727   3.229   4.369  3.1714 -1.2234  0.4659
49372SOL     OW58045  12.441  11.688   5.031 -0.0286 -0.1424  0.1249
49372SOL    HW158046  12.434  11.773   5.075  2.1178 -1.2088  2.8524
49372SOL    HW258047  12.534  11.665   5.039 -0.2574 -2.0796 -1.9365
49373SOL     OW58048   6.683   5.237   3.774 -0.8443  0.3581  0.7495
49373SOL    HW158049   6.603   5.225   3.722 -0.6885  1.0124  0.3469
49373SOL    HW258050   6.677   5.326   3.807  0.9249  1.3534 -1.4122
49374SOL     OW58051  10.688  11.838   3.478 -0.0446 -0.0338  0.1503
49374SOL    HW158052  10.765  11.876   3.436 -0.5164  1.0416  0.2356
49374SOL    HW258053  10.644  11.790   3.408 -1.0105  2.0256 -0.7604
49375SOL     OW58054   2.293   3.986   4.484  0.1231  0.5106  0.1882
49375SOL    HW158055   2.240   3.916   4.522  0.1239  0.2002 -0.3604
49375SOL    HW258056   2.363   4.000   4.547 -0.0353  0.2120  0.4383
49376SOL     OW58057   6.767   9.346   3.435  0.7258 -0.1570  0.0290
49376SOL    HW158058   6.761   9.328   3.529 -0.0467  1.0908  0.2321
49376SOL    HW258059   6.847   9.300   3.408  0.9145 -0.6133  1.2629
49377SOL     OW58060   4.436  13.157   0.706  0.0421  0.1367 -0.6024
49377SOL    HW158061   4.447  13.125   0.616  0.1924  0.7215 -0.7936
49377SOL    HW258062   4.343  13.175   0.714  0.2350  1.4214 -1.1008
49378SOL     OW58063   5.952   1.079   3.364  0.8072  0.0149  0.3258
49378SOL    HW158064   6.039   1.115   3.347 -0.2783  2.0212 -1.4154
49378SOL    HW258065   5.899   1.155   3.386 -0.7456 -1.0459  0.3916
49379SOL     OW58066   0.694   3.049   4.064 -0.3566 -0.0829  0.6709
49379SOL    HW158067   0.654   3.136   4.071 -1.1907 -0.4385  0.4428
49379SOL    HW258068   0.789   3.066   4.064 -0.4983  0.7737  1.2251
49380SOL     OW58069  12.909   0.951  12.760  0.3301  0.3460  0.0040
49380SOL    HW158070  12.948   0.873  12.800  2.4160  0.3571 -1.8218
49380SOL    HW258071  12.963   0.968  12.683 -2.0425  1.7334 -1.4692
49381SOL     OW58072  12.951   6.383   0.610  0.4591 -0.4240 -0.0585
49381SOL    HW158073  12.864   6.365   0.574  1.0293  0.2614 -1.8883
49381SOL    HW258074  12.996   6.433   0.541  2.4078 -1.0235  0.7078
49382SOL     OW58075   6.740   1.095  10.306  0.2695  0.3077 -0.2124
49382SOL    HW158076   6.663   1.147  10.282 -0.6531 -0.1483  1.6296
49382SOL    HW258077   6.713   1.004  10.290 -0.9986 -0.1946  3.6782
49383SOL     OW58078  12.692   3.754   2.155  0.3052 -0.0127  0.7606
49383SOL    HW158079  12.758   3.815   2.188 -1.2297  1.0257  2.0232
49383SOL    HW258080  12.621   3.810   2.124 -0.5891 -1.1303  0.7363
49384SOL     OW58081   6.728   7.095   2.494  0.7239 -0.1996  0.0896
49384SOL    HW158082   6.764   7.010   2.468 -0.0364 -0.5069  0.0128
49384SOL    HW258083   6.639   7.076   2.523  0.4797  0.5922 -0.0975
49385SOL     OW58084  11.495   0.090   6.656 -0.0194  0.0852 -0.0798
49385SOL    HW158085  11.546   0.110   6.735 -0.3940 -0.5753  0.3344
49385SOL    HW258086  11.520   0.001   6.633  0.5231  0.4686 -1.0590
49386SOL     OW58087   2.142  12.302   1.947  0.6527 -0.5125 -0.5862
49386SOL    HW158088   2.119  12.371   2.009  0.2098  0.5205 -1.8374
49386SOL    HW258089   2.114  12.337   1.862 -0.7883 -2.7789 -1.1160
49387SOL     OW58090   5.502   9.646   5.139  0.1242 -0.2440  0.4028
49387SOL    HW158091   5.576   9.705   5.127 -0.3480  0.1463 -0.6880
49387SOL    HW258092   5.540   9.558   5.133  0.4678 -0.0451 -0.3824
49388SOL     OW58093  12.716   0.866   7.015  0.3488  0.0220 -0.1478
49388SOL    HW158094  12.717   0.857   7.111  1.1151  0.2182 -0.1257
49388SOL    HW258095  12.633   0.909   6.996 -0.7748 -1.8362  0.2412
49389SOL     OW58096  11.481   8.485  12.457  0.0333  0.0327  0.3340
49389SOL    HW158097  11.411   8.442  12.408  1.1299  0.6216 -1.8714
49389SOL    HW258098  11.440   8.564  12.493 -0.8592 -0.5513  0.6554
49390SOL     OW58099  10.262   1.230   6.172 -0.1628  0.6247  0.3811
49390SOL    HW158100  10.284   1.239   6.265  3.1731  0.0447 -0.2054
49390SOL    HW258101  10.296   1.143   6.148 -1.6947  0.4264 -1.2259
49391SOL     OW58102  11.709   0.086  12.993  0.3543 -0.1201 -0.0729
49391SOL    HW158103  11.745   0.174  12.987 -2.3638  0.9960 -1.5056
49391SOL    HW258104  11.637   0.085  12.930 -1.0740 -2.6744  1.4443
49392SOL     OW58105   7.304   5.233  10.759  0.3900 -0.3861 -0.0931
49392SOL    HW158106   7.298   5.244  10.854  0.4603  0.9515 -0.2202
49392SOL    HW258107   7.398   5.234  10.740  0.3843 -0.8524 -0.1669
49393SOL     OW58108   0.273  11.571  10.006  0.3230 -0.2390 -0.4953
49393SOL    HW158109   0.351  11.520  10.025  0.6686 -0.0735 -1.4093
49393SOL    HW258110   0.303  11.639   9.945 -1.0507 -1.9595 -3.3046
49394SOL     OW58111   1.445   1.162  10.051  0.1983  0.1964  0.0909
49394SOL    HW158112   1.426   1.106  10.126  2.4448 -0.0894  0.4910
49394SOL    HW258113   1.388   1.238  10.063 -1.8238 -1.2646  0.3306
49395SOL     OW58114   3.317   0.051   3.067 -0.0830 -0.4361  0.7339
49395SOL    HW158115   3.313   0.045   3.162 -1.1487 -0.2135  0.7189
49395SOL    HW258116   3.405   0.022   3.044  0.5041  0.3985  1.8518
49396SOL     OW58117   0.363   0.725   0.483 -0.1855 -0.2934 -0.0103
49396SOL    HW158118   0.384   0.646   0.531  2.3381 -0.7921 -1.7433
49396SOL    HW258119   0.349   0.792   0.550  2.6040 -1.0831  1.4858
49397SOL     OW58120  12.306   7.700   4.248  0.7609  0.3084 -0.0434
49397SOL    HW158121  12.321   7.671   4.338 -1.6362 -1.1433 -0.0272
49397SOL    HW258122  12.369   7.652   4.195 -0.1947 -1.6265  0.5083
49398SOL     OW58123  10.747  11.307  12.471 -0.6826 -0.4408  0.3631
49398SOL    HW158124  10.698  11.386  12.448 -0.2167 -0.5584 -1.1390
49398SOL    HW258125  10.774  11.322  12.562 -0.5498  1.1810  0.0985
49399SOL     OW58126   6.591   6.225   2.382  0.3527  0.0999  0.4412
49399SOL    HW158127   6.530   6.210   2.310  0.2485 -0.5473  0.6546
49399SOL    HW258128   6.586   6.319   2.399  1.7323  0.6075 -1.5934
49400SOL     OW58129  10.497   6.361  12.141  0.2442 -0.2208  0.2134
49400SOL    HW158130  10.590   6.371  12.122 -0.0397  2.0567 -0.3367
49400SOL    HW258131  10.463   6.311  12.067  0.8794 -0.2795 -0.0464
49401SOL     OW58132   1.450  12.216   3.528 -0.2719  0.7397 -0.3246
49401SOL    HW158133   1.420  12.150   3.466  1.4778 -0.7047  0.2852
49401SOL    HW258134   1.545  12.207   3.529 -0.1893  1.1564  2.0742
49402SOL     OW58135   0.068  10.767   6.953  0.5585  0.4375  0.3368
49402SOL    HW158136   0.151  10.771   6.999 -0.2165 -0.6546  1.8927
49402SOL    HW258137   0.087  10.717   6.873  1.1315 -0.9191  1.3013
49403SOL     OW58138  11.672   3.081   5.654 -0.2308 -0.2065 -0.8108
49403SOL    HW158139  11.686   3.175   5.665  2.0138 -0.5354 -0.2707
49403SOL    HW258140  11.712   3.042   5.731  0.8623 -1.7009 -2.0800
49404SOL     OW58141   8.593   8.633   5.571 -0.1839  0.1169  0.6283
49404SOL    HW158142   8.650   8.650   5.497 -0.1226  0.3835  0.7348
49404SOL    HW258143   8.611   8.542   5.596 -0.2964 -0.0122  0.2408
49405SOL     OW58144   7.148   7.937  11.388  0.3334  0.3302 -0.1375
49405SOL    HW158145   7.094   7.902  11.459  0.0921 -0.7024 -0.8181
49405SOL    HW258146   7.189   8.015  11.427 -1.1652  0.8191  0.5851
49406SOL     OW58147   7.138   5.602  11.228 -1.0918 -0.0189  0.2126
49406SOL    HW158148   7.095   5.631  11.309 -3.4008 -1.5945 -0.3567
49406SOL    HW258149   7.072   5.614  11.160  0.4343  0.2281 -1.2937
49407SOL     OW58150   9.126   2.843   3.416  0.0484  0.2777 -0.0613
49407SOL    HW158151   9.196   2.878   3.361 -0.0804  0.3423 -0.1868
49407SOL    HW258152   9.168   2.776   3.469  0.2112  0.3358 -0.1161
49408SOL     OW58153   3.698   7.305   3.519 -0.4605 -0.1951  0.0046
49408SOL    HW158154   3.784   7.268   3.497 -0.6273 -0.6419  0.1027
49408SOL    HW258155   3.718   7.391   3.556 -0.0115 -0.5144  0.5300
49409SOL     OW58156   6.477   8.110   2.192 -0.3298 -0.0766 -0.0020
49409SOL    HW158157   6.467   8.015   2.190  0.0930 -0.1198 -0.3016
49409SOL    HW258158   6.451   8.135   2.281 -2.4204 -0.2201 -0.5238
49410SOL     OW58159  11.258  12.033   6.405 -0.1604 -0.0826 -0.9909
49410SOL    HW158160  11.270  12.008   6.314 -0.0430 -1.0924 -0.7104
49410SOL    HW258161  11.176  11.991   6.431  0.1047 -0.2866 -0.4681
49411SOL     OW58162  10.131   6.776   2.433 -0.3994  0.0412 -0.2940
49411SOL    HW158163  10.117   6.722   2.355 -0.1343  0.4842 -0.6526
49411SOL    HW258164  10.226   6.778   2.444 -0.4430 -0.1582  0.1425
49412SOL     OW58165   8.312   3.695   3.449 -0.2576 -0.0950 -0.3603
49412SOL    HW158166   8.269   3.759   3.505 -1.1752 -1.2316  0.2698
49412SOL    HW258167   8.240   3.651   3.404  0.3465 -0.9432 -0.5055
49413SOL     OW58168   3.808  10.749   3.316  0.1633  0.2219  0.5321
49413SOL    HW158169   3.756  10.808   3.262  0.2450  1.0982  1.3927
49413SOL    HW258170   3.744  10.699   3.367  0.1392  1.2349  1.5239
49414SOL     OW58171   8.688   4.903   9.053  0.1812  0.0663 -0.2294
49414SOL    HW158172   8.602   4.861   9.049  0.8486 -1.3302 -0.9589
49414SOL    HW258173   8.671   4.991   9.085 -1.4597 -0.3394  0.1058
49415SOL     OW58174  11.029   9.138   7.760  0.1495  0.0162  0.4100
49415SOL    HW158175  11.116   9.171   7.783 -0.3981  0.5000  1.8792
49415SOL    HW258176  10.990   9.112   7.843 -1.4288  0.5737 -0.1230
49416SOL     OW58177   4.425  10.888  12.021 -0.1581  0.0809 -0.0970
49416SOL    HW158178   4.512  10.848  12.017 -0.1563  0.1425 -0.7963
49416SOL    HW258179   4.393  10.884  11.931 -0.2532  1.4386 -0.1382
49417SOL     OW58180   0.764   0.891   1.377  0.0473 -0.6368 -1.1936
49417SOL    HW158181   0.727   0.874   1.464 -0.3520  2.8231 -0.5273
49417SOL    HW258182   0.693   0.874   1.316 -0.4531 -0.7094 -0.5984
49418SOL     OW58183   9.304   7.093   9.247  0.0896 -0.9160  0.3306
49418SOL    HW158184   9.295   7.107   9.341 -0.6761 -3.4474  0.7165
49418SOL    HW258185   9.377   7.149   9.221 -0.3140  0.5812  2.2109
49419SOL     OW58186   0.874   5.531   6.615  0.0731 -0.2496 -0.3954
49419SOL    HW158187   0.795   5.501   6.661 -1.4830 -0.7284 -3.1692
49419SOL    HW258188   0.859   5.624   6.599 -0.1815 -0.4446 -1.3423
49420SOL     OW58189   0.821  12.311  10.034 -0.4497 -0.3605 -0.0753
49420SOL    HW158190   0.738  12.282  10.070 -0.3395  1.3280  1.7202
49420SOL    HW258191   0.844  12.389  10.085  1.0516  0.6585 -2.1114
49421SOL     OW58192  12.663   5.648   1.873 -0.9529  0.4229 -0.1444
49421SOL    HW158193  12.650   5.557   1.846  1.9168  0.1910 -1.1710
49421SOL    HW258194  12.699   5.641   1.962  1.5508  0.2861 -1.0820
49422SOL     OW58195   2.983   0.769  11.640 -0.4742  0.4646  0.0736
49422SOL    HW158196   2.920   0.697  11.649  0.1991 -0.0182  1.1548
49422SOL    HW258197   2.931   0.843  11.611 -1.5726  0.0939  1.0263
49423SOL     OW58198   2.641  10.980   1.184  0.2798 -0.3046  0.8828
49423SOL    HW158199   2.600  10.964   1.269 -1.0501  0.0510  0.3311
49423SOL    HW258200   2.645  10.894   1.142  1.4775 -0.5802  1.5101
49424SOL     OW58201   5.444   5.891   6.829  0.0888  0.1701 -0.1438
49424SOL    HW158202   5.458   5.903   6.923  0.1928  1.4172 -0.3118
49424SOL    HW258203   5.490   5.809   6.809 -0.1266 -0.2331  0.9238
49425SOL     OW58204   9.878   8.125   9.980  0.5811 -0.6784 -0.4624
49425SOL    HW158205   9.859   8.081   9.897  0.0094 -0.5286 -0.4204
49425SOL    HW258206   9.969   8.152   9.973  0.6780 -1.0941 -0.8452
49426SOL     OW58207   4.635   3.858   4.839  0.2163 -0.1554 -0.1712
49426SOL    HW158208   4.663   3.817   4.757  0.1548  0.3823 -0.4619
49426SOL    HW258209   4.559   3.911   4.814  0.5201  0.4234  0.1431
49427SOL     OW58210   8.975   1.710   0.387 -0.0089 -0.4796 -0.3234
49427SOL    HW158211   8.889   1.686   0.352  0.6130 -0.9785 -1.5953
49427SOL    HW258212   8.956   1.766   0.462 -1.4375 -0.4950 -0.6449
49428SOL     OW58213  11.568  11.828   2.553  0.6813  0.7408  0.1007
49428SOL    HW158214  11.518  11.754   2.587  0.8288  1.1631  1.3034
49428SOL    HW258215  11.660  11.802   2.562  0.7276  0.9517  0.2506
49429SOL     OW58216   7.161  11.330   1.914  0.0220 -0.0760  0.5140
49429SOL    HW158217   7.246  11.328   1.871 -0.2386  0.4893 -0.0571
49429SOL    HW258218   7.173  11.389   1.988 -0.1735  0.9769 -0.2711
49430SOL     OW58219   4.574  12.609  11.659  1.0777 -0.3663  0.3415
49430SOL    HW158220   4.530  12.590  11.742  0.4462 -0.7778 -0.0840
49430SOL    HW258221   4.659  12.645  11.685  0.7349 -0.1299  1.1684
49431SOL     OW58222   5.989   1.639   0.558 -0.0116 -0.2916 -0.2985
49431SOL    HW158223   5.926   1.690   0.508  0.8939  0.2149 -0.9427
49431SOL    HW258224   5.935   1.574   0.604 -1.0878  0.6701 -0.1453
49432SOL     OW58225   5.060  12.304   8.905  0.5966  0.1981  0.3919
49432SOL    HW158226   5.090  12.328   8.993 -0.8104 -1.3903  1.3617
49432SOL    HW258227   4.976  12.348   8.895  1.0308  0.8703 -0.4357
49433SOL     OW58228  10.658   9.335   2.597  0.2203  0.1345  0.4609
49433SOL    HW158229  10.563   9.341   2.597  0.1138 -1.3332  0.4455
49433SOL    HW258230  10.682   9.343   2.690  0.1865  1.5379  0.3765
49434SOL     OW58231   0.865   6.009  10.017 -0.2724 -0.0827 -0.1490
49434SOL    HW158232   0.911   5.991   9.934  2.6515  1.3650  1.0020
49434SOL    HW258233   0.889   5.937  10.074  0.0886  0.3553  0.2661
49435SOL     OW58234   2.446  12.764   5.132  0.5791  0.0418  0.4385
49435SOL    HW158235   2.429  12.720   5.048  2.0037  0.5853 -0.1826
49435SOL    HW258236   2.422  12.855   5.116 -0.6598 -0.1463  1.1497
49436SOL     OW58237  10.645   5.037   3.947  0.0726 -0.1993 -0.2210
49436SOL    HW158238  10.688   5.015   4.030 -0.2571  0.1967  0.0607
49436SOL    HW258239  10.638   4.953   3.901 -1.0045 -0.6855  0.7551
49437SOL     OW58240   8.395   0.187   3.330 -0.6290  0.0250 -0.0033
49437SOL    HW158241   8.389   0.255   3.396  2.9949  0.5172  0.0652
49437SOL    HW258242   8.404   0.106   3.380 -1.1115 -0.0265  0.0045
49438SOL     OW58243  12.553   9.112   5.894 -0.5854 -0.1613 -0.2817
49438SOL    HW158244  12.617   9.145   5.956  0.9334  1.2757 -2.4762
49438SOL    HW258245  12.549   9.018   5.911 -2.0483  0.4235  3.4968
49439SOL     OW58246   7.088  10.664   5.029 -0.2049  0.1843 -0.3497
49439SOL    HW158247   7.108  10.670   5.122 -1.3146 -0.6090 -0.0443
49439SOL    HW258248   6.995  10.682   5.022 -0.2808 -0.4368 -1.2167
49440SOL     OW58249   0.073   8.934  11.588  0.6507 -0.4782 -0.0494
49440SOL    HW158250   0.117   8.873  11.647 -0.3711 -0.0702  1.1891
49440SOL    HW258251   0.125   8.932  11.508  2.8400 -0.0891  1.2839
49441SOL     OW58252   4.035   7.094   3.109  0.2226  0.4024  0.2664
49441SOL    HW158253   4.127   7.104   3.133  0.4429 -0.8195 -0.0019
49441SOL    HW258254   3.987   7.128   3.184  0.8959  0.4297  0.6944
49442SOL     OW58255   3.365   7.477  10.461  0.0177  0.0923  0.4908
49442SOL    HW158256   3.286   7.519  10.426  1.0049 -0.3215 -2.6065
49442SOL    HW258257   3.332   7.418  10.528 -2.1635  0.8736  0.2165
49443SOL     OW58258   9.060   2.156   5.295  0.1527 -0.5324 -0.3378
49443SOL    HW158259   9.155   2.158   5.310  0.2217 -1.6909 -0.5005
49443SOL    HW258260   9.048   2.085   5.231 -0.7230  0.3270 -1.1589
49444SOL     OW58261   8.442   2.578   4.326 -0.7620  0.5653  0.0439
49444SOL    HW158262   8.534   2.555   4.341 -0.3722  1.4080 -0.9311
49444SOL    HW258263   8.401   2.569   4.412 -0.0266 -0.9231  0.2820
49445SOL     OW58264   1.349   4.052   9.607 -0.0107  0.3239 -0.5095
49445SOL    HW158265   1.332   4.087   9.519  1.2636 -1.7129 -1.6437
49445SOL    HW258266   1.274   3.996   9.626  0.0164  0.2532 -0.6068
49446SOL     OW58267   2.059  13.001   7.821 -0.0312 -0.3940 -0.4385
49446SOL    HW158268   2.151  13.027   7.818  0.7188 -2.6591  0.5049
49446SOL    HW258269   2.024  13.024   7.735  1.3164  0.7770 -0.7013
49447SOL     OW58270   8.395   7.048   5.072  0.0622  0.3951  0.2314
49447SOL    HW158271   8.482   7.086   5.079  0.5298 -0.7004  0.4819
49447SOL    HW258272   8.405   6.974   5.012 -0.2849 -0.8336  1.6117
49448SOL     OW58273   4.142  13.039   0.577  0.4000  0.5888  0.3014
49448SOL    HW158274   4.112  13.129   0.567 -1.9594 -0.1087  0.3866
49448SOL    HW258275   4.118  13.016   0.667 -0.6331 -0.6241 -0.2526
49449SOL     OW58276   1.734   7.003   1.831  0.4557 -0.1467 -0.0235
49449SOL    HW158277   1.775   7.001   1.745  0.4464  0.2528 -0.0380
49449SOL    HW258278   1.660   7.063   1.822  1.5621  1.4007  0.7421
49450SOL     OW58279   9.925   7.914   4.297  0.2724  0.1231 -0.2592
49450SOL    HW158280   9.923   7.853   4.371  2.5520 -0.9864 -1.0265
49450SOL    HW258281   9.972   7.990   4.331  1.8927 -0.6438 -0.6629
49451SOL     OW58282   9.593  11.454  10.297  0.3962  0.5835  0.6845
49451SOL    HW158283   9.566  11.499  10.216 -1.0631 -0.4691  0.5485
49451SOL    HW258284   9.575  11.518  10.366 -0.4338  0.7177  0.3645
49452SOL     OW58285  13.132   6.840   1.844  0.7650  0.4971 -0.3785
49452SOL    HW158286  13.188   6.866   1.771  0.2634  0.7935 -0.6604
49452SOL    HW258287  13.081   6.767   1.811  1.3626 -0.1323  0.0545
49453SOL     OW58288  10.570   0.249  11.405  0.8720 -0.5825 -0.3229
49453SOL    HW158289  10.587   0.335  11.444 -1.1120 -0.3499  0.1414
49453SOL    HW258290  10.495   0.263  11.347  0.8884 -1.8762 -0.6888
49454SOL     OW58291   4.553  10.841  10.516  0.5674 -0.7563 -0.4763
49454SOL    HW158292   4.645  10.865  10.522  0.4158 -0.3857  0.5852
49454SOL    HW258293   4.507  10.908  10.567 -0.2778 -1.0131 -0.8769
49455SOL     OW58294   9.542   1.366   9.623 -0.0984  0.1918  0.2808
49455SOL    HW158295   9.447   1.373   9.614 -0.3490 -0.7905  1.8848
49455SOL    HW258296   9.559   1.272   9.617  0.3203 -0.0387  3.5158
49456SOL     OW58297   9.337  12.529  13.187  0.3148 -0.9695  0.0174
49456SOL    HW158298   9.323  12.511  13.094 -0.7715  1.7341 -0.4394
49456SOL    HW258299   9.249  12.534  13.224  0.4476  2.1299  0.1977
49457SOL     OW58300   2.719   1.003   3.692 -0.9510 -0.1580  0.1343
49457SOL    HW158301   2.787   0.981   3.755 -1.8485 -2.7433  0.3186
49457SOL    HW258302   2.683   1.086   3.723  2.4505  1.6653 -0.3410
49458SOL     OW58303  12.562   8.393   7.135  0.1018 -0.4340 -0.0441
49458SOL    HW158304  12.576   8.418   7.226 -0.6419  0.0464 -0.0568
49458SOL    HW258305  12.515   8.467   7.096  0.0267 -0.8180 -0.7029
49459SOL     OW58306   2.597   6.595   5.954  0.1920  0.0088  0.2076
49459SOL    HW158307   2.665   6.555   6.007  0.6965  1.0844  0.4092
49459SOL    HW258308   2.516   6.582   6.004  0.4449 -0.2017  0.5622
49460SOL     OW58309   9.045   4.170   2.559 -0.1233 -0.0206  0.3417
49460SOL    HW158310   9.119   4.185   2.617 -0.2425 -1.0560  0.7833
49460SOL    HW258311   8.996   4.098   2.600 -1.2298  0.4773 -0.0744
49461SOL     OW58312   7.873   9.086   5.463  0.2012 -0.3943 -0.5264
49461SOL    HW158313   7.902   9.037   5.540 -1.0725 -1.5858 -0.7625
49461SOL    HW258314   7.870   9.177   5.492  2.2735 -0.4635  0.0318
49462SOL     OW58315   5.830   2.402   9.515  0.2230  0.3594 -0.1365
49462SOL    HW158316   5.761   2.391   9.580 -0.5377  2.2681 -0.5754
49462SOL    HW258317   5.813   2.335   9.449 -1.2869  0.8853 -0.2983
49463SOL     OW58318   4.682   9.199   0.016 -0.2716 -0.0690  0.3731
49463SOL    HW158319   4.593   9.205  -0.018 -1.4072  1.4923  3.2849
49463SOL    HW258320   4.703   9.106   0.013 -2.9575 -0.8010  1.7510
49464SOL     OW58321  12.308  13.190   4.290 -0.1513  0.5085  0.5636
49464SOL    HW158322  12.370  13.128   4.328 -1.1654 -0.1643  1.1537
49464SOL    HW258323  12.363  13.263   4.260  1.0037 -0.4522  0.2839
49465SOL     OW58324   9.539  10.162   6.896  0.1918  0.3593 -0.4811
49465SOL    HW158325   9.510  10.088   6.950 -3.3599  0.6642 -1.7167
49465SOL    HW258326   9.596  10.122   6.831  0.5884 -0.8025  0.5239
49466SOL     OW58327  12.116  10.429   4.751 -0.2216 -0.1765 -0.4619
49466SOL    HW158328  12.163  10.381   4.683  0.7572  0.8058 -0.5042
49466SOL    HW258329  12.174  10.426   4.827 -0.5045  0.2782 -0.2263
49467SOL     OW58330   5.126  10.391   7.285 -0.3989  0.0807 -0.5063
49467SOL    HW158331   5.184  10.403   7.211 -0.5917  2.0577 -0.3786
49467SOL    HW258332   5.171  10.433   7.359 -0.3950 -1.4817  0.4233
49468SOL     OW58333   5.829   2.037  10.691  0.0455 -0.4691 -0.0337
49468SOL    HW158334   5.885   2.005  10.761  0.9609  0.3611 -0.3720
49468SOL    HW258335   5.765   2.093  10.735  0.3986 -0.2301  0.1749
49469SOL     OW58336   6.041   8.534   5.420 -0.0714  0.3740  0.3868
49469SOL    HW158337   6.123   8.528   5.371  0.0339  1.8841  0.3273
49469SOL    HW258338   6.010   8.443   5.427  0.4147  0.0245 -1.5822
49470SOL     OW58339  10.312   6.444   4.055  0.3844  0.2471  0.0840
49470SOL    HW158340  10.394   6.469   4.097  0.2449  0.8316  0.0239
49470SOL    HW258341  10.334   6.366   4.004  0.9307  0.4550 -0.0086
49471SOL     OW58342   1.568  12.650   2.618  0.8768  0.6345 -0.1918
49471SOL    HW158343   1.622  12.588   2.667  0.5093  1.2505  1.0448
49471SOL    HW258344   1.545  12.604   2.537  0.0792 -1.1015  0.9577
49472SOL     OW58345   6.115   2.987   5.110 -0.2544 -0.2321  0.3479
49472SOL    HW158346   6.196   2.980   5.061 -0.5694 -0.3221 -0.1667
49472SOL    HW258347   6.062   2.913   5.080  0.3671 -1.5785  2.3932
49473SOL     OW58348   3.152   7.819   3.307 -0.7905 -0.4432  0.1380
49473SOL    HW158349   3.128   7.911   3.300  0.1568 -0.1200  0.9696
49473SOL    HW258350   3.145   7.799   3.400 -0.1065 -0.9596  0.0857
49474SOL     OW58351   3.461   5.821   9.938 -0.2074 -0.0194 -0.6343
49474SOL    HW158352   3.545   5.853   9.969 -0.2761 -0.3570 -0.0906
49474SOL    HW258353   3.477   5.793   9.848 -0.6083  3.4611 -1.9437
49475SOL     OW58354   5.832   0.381   3.248  0.6875  0.1499  0.3719
49475SOL    HW158355   5.799   0.292   3.260 -1.3761  0.4020 -2.5233
49475SOL    HW258356   5.796   0.430   3.323  0.4339 -1.0678  1.0728
49476SOL     OW58357   2.018   6.458   0.431  0.3391 -0.3916 -0.1233
49476SOL    HW158358   1.984   6.372   0.403  0.3414 -0.0402 -1.2499
49476SOL    HW258359   1.999   6.516   0.357 -0.5242  0.8102  0.9929
49477SOL     OW58360   7.935  12.598   1.135  0.3528  0.3193 -0.1650
49477SOL    HW158361   7.897  12.684   1.153  1.7990  0.8966  0.2449
49477SOL    HW258362   7.901  12.575   1.049 -0.7719  0.8769  0.1009
49478SOL     OW58363  11.038   7.481   3.859  0.4006  0.2056  0.2251
49478SOL    HW158364  11.039   7.392   3.824  2.3960  0.4696 -0.5553
49478SOL    HW258365  10.995   7.533   3.790  0.1725  0.0137  0.2200
49479SOL     OW58366   2.860   2.397   8.116 -0.2286 -0.2806 -0.7317
49479SOL    HW158367   2.833   2.477   8.161  1.6886  1.2041 -2.0553
49479SOL    HW258368   2.779   2.364   8.076 -1.2007  0.5349  0.4763
49480SOL     OW58369  12.986   4.661  12.983  0.2967 -0.5057 -0.2318
49480SOL    HW158370  12.943   4.601  12.922  0.2812 -0.6483 -0.0812
49480SOL    HW258371  13.061   4.612  13.016 -1.0797 -1.4019  1.7792
49481SOL     OW58372   3.695   6.771   8.982 -1.2053  0.0363  0.3277
49481SOL    HW158373   3.726   6.707   9.047  0.0961  0.2875 -0.0185
49481SOL    HW258374   3.610   6.799   9.015 -1.0684 -0.6774  1.3366
49482SOL     OW58375   7.860   0.750   5.272 -0.0144 -0.4834  0.3100
49482SOL    HW158376   7.864   0.684   5.203 -1.6801 -0.4042  0.0839
49482SOL    HW258377   7.885   0.832   5.229 -0.2932 -0.5683 -0.0219
49483SOL     OW58378   9.235   1.231  11.742 -0.1605 -0.1800 -0.2577
49483SOL    HW158379   9.175   1.165  11.779 -0.8316 -0.2501 -1.4176
49483SOL    HW258380   9.294   1.252  11.814 -0.2807 -1.6427  0.3097
49484SOL     OW58381   7.843   6.619  12.479  0.2225 -0.4706 -0.3097
49484SOL    HW158382   7.928   6.600  12.518 -0.3933 -1.0827  0.7991
49484SOL    HW258383   7.798   6.672  12.544  0.1848  0.9161 -1.4147
49485SOL     OW58384   1.059   2.804   9.710 -0.4701 -0.3217 -0.5413
49485SOL    HW158385   1.014   2.802   9.794 -0.7523  0.4039 -0.6609
49485SOL    HW258386   0.989   2.805   9.645 -0.2610 -0.4652 -0.7712
49486SOL     OW58387   6.655   4.235   3.711 -0.3738 -0.1577 -0.3937
49486SOL    HW158388   6.656   4.288   3.790  0.8149 -0.8131  0.0557
49486SOL    HW258389   6.564   4.234   3.683 -0.5034  1.6582 -0.1141
49487SOL     OW58390   9.111   3.098   9.540 -0.0581 -0.0216  0.4699
49487SOL    HW158391   9.162   3.020   9.522 -1.9123 -1.1794 -0.0608
49487SOL    HW258392   9.088   3.092   9.632 -1.9111 -1.2480 -0.0159
49488SOL     OW58393   4.917   6.691   8.877 -0.0422 -0.3551 -0.3698
49488SOL    HW158394   4.998   6.640   8.879  0.6073  0.4683 -2.4563
49488SOL    HW258395   4.944   6.779   8.904 -0.9832 -0.8064  2.3472
49489SOL     OW58396   8.824   0.127   1.247  0.4974 -0.6347 -0.3286
49489SOL    HW158397   8.810   0.106   1.339 -0.1556 -0.5795 -0.4074
49489SOL    HW258398   8.783   0.054   1.200 -1.1690  0.4069 -0.5967
49490SOL     OW58399   0.466   5.632   4.482  0.0390  0.1786 -0.3833
49490SOL    HW158400   0.435   5.550   4.520  0.4163 -0.4333 -1.3479
49490SOL    HW258401   0.386   5.678   4.457 -0.1657 -0.4181 -0.8757
49491SOL     OW58402  10.584   9.960   6.696 -0.1921 -0.2538 -0.5028
49491SOL    HW158403  10.603   9.890   6.759  0.3583  0.4172  0.0965
49491SOL    HW258404  10.489   9.968   6.697 -0.3876 -1.8877 -1.5814
49492SOL     OW58405   9.913  13.170   0.238 -0.4298 -0.2897  0.2655
49492SOL    HW158406   9.921  13.096   0.299  0.2934  0.4668  1.1083
49492SOL    HW258407   9.826  13.206   0.256 -0.5510 -0.5770  0.2610
49493SOL     OW58408   4.441  11.384   7.859 -0.1465  0.0180 -0.2033
49493SOL    HW158409   4.516  11.414   7.808 -0.8696  1.2690 -0.5745
49493SOL    HW258410   4.456  11.420   7.947 -0.9723  1.4577 -0.6273
49494SOL     OW58411   1.196   2.545   2.820 -0.1852 -0.0318 -0.3239
49494SOL    HW158412   1.137   2.516   2.889 -0.5401  1.3951  0.0116
49494SOL    HW258413   1.163   2.503   2.740 -1.0272 -0.0768  0.0354
49495SOL     OW58414  10.020  10.464   5.929 -0.6696  0.6382 -0.3176
49495SOL    HW158415  10.025  10.382   5.978 -0.5872  1.8136  1.7319
49495SOL    HW258416  10.107  10.503   5.938 -1.4711  2.2411  1.1681
49496SOL     OW58417   8.904   8.863   6.984  0.2880  0.9756  0.0404
49496SOL    HW158418   8.909   8.819   6.900 -1.2088  0.8755 -0.0169
49496SOL    HW258419   8.909   8.956   6.963 -0.4981  0.9649 -0.2009
49497SOL     OW58420   6.813   0.056   6.519 -0.2251  0.0227 -0.8450
49497SOL    HW158421   6.830  -0.014   6.456  3.0353  1.0062 -1.2156
49497SOL    HW258422   6.888   0.053   6.579 -0.7292  2.2951 -0.0103
49498SOL     OW58423  12.218  11.831   0.181  0.2517  0.2178  0.5192
49498SOL    HW158424  12.183  11.858   0.096  0.2638  1.9256  1.0208
49498SOL    HW258425  12.157  11.762   0.210  0.3077 -0.4797 -0.8831
49499SOL     OW58426   4.235   4.925  11.350  0.0350 -0.0324  0.4765
49499SOL    HW158427   4.239   5.016  11.378 -0.6390  1.0231 -2.4103
49499SOL    HW258428   4.326   4.898  11.340  0.2370  0.3978  1.1660
49500SOL     OW58429   3.575   9.800   3.419 -0.0187  0.1138  0.4126
49500SOL    HW158430   3.554   9.876   3.366  1.1561  0.3716  0.3010
49500SOL    HW258431   3.540   9.821   3.506 -0.3645  0.4480  0.1961
49501SOL     OW58432   0.735   8.010   0.981 -0.2850 -0.1709  0.3930
49501SOL    HW158433   0.727   7.988   0.888 -1.5420 -2.1456  0.8937
49501SOL    HW258434   0.681   8.088   0.992 -0.3864 -0.1117 -0.4665
49502SOL     OW58435   4.332   5.327  12.035 -0.5363 -0.0023  0.1766
49502SOL    HW158436   4.326   5.372  12.120  1.0294  0.5750  0.0123
49502SOL    HW258437   4.401   5.263  12.047 -1.7751 -1.4452 -0.0429
49503SOL     OW58438  11.174   3.422   4.259  0.4011  0.0153 -0.1753
49503SOL    HW158439  11.155   3.513   4.236  1.7417 -0.1665 -2.2616
49503SOL    HW258440  11.259   3.425   4.301  0.0362 -0.1993  0.5997
49504SOL     OW58441   3.263   9.421   1.463  0.4597 -0.2170  0.2794
49504SOL    HW158442   3.296   9.340   1.424  0.5659 -0.6418  1.2294
49504SOL    HW258443   3.232   9.395   1.550 -0.0488  0.6546  0.3701
49505SOL     OW58444  11.698   7.492   0.495 -0.1557  0.3585  0.1191
49505SOL    HW158445  11.664   7.559   0.436  0.0977  1.5776  1.2838
49505SOL    HW258446  11.627   7.477   0.558  0.9128  2.0496  1.8580
49506SOL     OW58447   0.804   5.012  11.315  0.5648 -0.2414 -0.0755
49506SOL    HW158448   0.782   5.018  11.408  3.9177 -1.3909  0.9334
49506SOL    HW258449   0.787   5.100  11.281  1.7027  0.9917  2.2792
49507SOL     OW58450  10.718   7.857   9.950 -0.5775 -0.4360  0.0120
49507SOL    HW158451  10.642   7.803   9.928 -0.1405 -1.1466  0.1758
49507SOL    HW258452  10.793   7.798   9.937  0.0221  0.5510 -1.0920
49508SOL     OW58453   6.650   4.382   1.825 -0.6115  0.0234  0.0170
49508SOL    HW158454   6.681   4.328   1.898  0.2372  1.7975  1.0151
49508SOL    HW258455   6.647   4.321   1.751 -0.7181 -1.6381  1.3189
49509SOL     OW58456   2.700   0.757  11.797  0.3638  0.1189  0.2854
49509SOL    HW158457   2.607   0.738  11.800  0.3026 -0.2588 -2.3183
49509SOL    HW258458   2.741   0.676  11.766  1.3688  0.7577 -0.1305
49510SOL     OW58459   3.956   6.583  12.800 -0.1713 -0.7839  0.4027
49510SOL    HW158460   3.998   6.654  12.849  0.0865 -2.2085  2.3740
49510SOL    HW258461   3.881   6.558  12.854 -0.8399 -1.3551 -0.7576
49511SOL     OW58462   3.390  12.892   6.206 -0.2269  0.1418 -0.1234
49511SOL    HW158463   3.357  12.937   6.129 -0.8632  0.3758  0.2838
49511SOL    HW258464   3.436  12.959   6.256  0.2600 -0.0288 -0.3386
49512SOL     OW58465   2.313   6.823   4.179  0.0802  0.2757  0.1269
49512SOL    HW158466   2.267   6.860   4.255 -2.4211  0.5312 -1.4122
49512SOL    HW258467   2.313   6.729   4.194 -1.3260  0.2331  0.0297
49513SOL     OW58468   5.701  11.915  11.033  0.0478  0.2534  0.2463
49513SOL    HW158469   5.611  11.881  11.029 -0.6079  1.6824  1.8016
49513SOL    HW258470   5.741  11.865  11.104 -0.1650  0.9929  0.9010
49514SOL     OW58471   4.921   0.483   1.188 -0.2596  0.3491 -0.1981
49514SOL    HW158472   4.972   0.446   1.117 -0.8969  0.9940 -1.0099
49514SOL    HW258473   4.903   0.409   1.246  3.7770  0.5037  1.5699
49515SOL     OW58474   1.687   3.940   4.874 -0.2878  0.3863 -0.4018
49515SOL    HW158475   1.632   3.915   4.948 -0.1823  0.9051 -0.1396
49515SOL    HW258476   1.671   3.873   4.808 -0.1605 -0.2446  0.1983
49516SOL     OW58477   4.628   0.703   4.793 -0.2391 -0.1953  0.0556
49516SOL    HW158478   4.558   0.761   4.825 -0.4685  0.3822 -1.4108
49516SOL    HW258479   4.622   0.626   4.849 -1.1593  0.4142  0.8488
49517SOL     OW58480   1.587   7.535   4.352  0.2296 -0.6452 -0.4726
49517SOL    HW158481   1.619   7.462   4.300  0.4674 -0.8275 -0.0781
49517SOL    HW258482   1.563   7.495   4.436  0.2604 -0.2871 -0.2934
49518SOL     OW58483   2.279  12.972   8.444  0.2493 -0.2708  0.1804
49518SOL    HW158484   2.313  12.979   8.533  2.1520  0.2518 -0.5343
49518SOL    HW258485   2.351  13.001   8.388 -1.1617  0.1792 -1.5069
49519SOL     OW58486  11.073  12.293  12.980 -0.2635  0.2778 -0.5746
49519SOL    HW158487  11.153  12.244  12.960 -1.3084 -1.8116  0.0320
49519SOL    HW258488  11.079  12.311  13.074 -0.1142  0.9268 -0.7012
49520SOL     OW58489  11.584  11.906   5.196  0.4514  0.3570 -0.3204
49520SOL    HW158490  11.587  12.001   5.194 -1.5768  0.6163  2.4878
49520SOL    HW258491  11.499  11.884   5.155  0.4695 -0.1662 -0.0892
49521SOL     OW58492   4.018  11.918   5.475 -0.1964  0.0451  0.0411
49521SOL    HW158493   4.023  11.976   5.399 -0.0252 -1.3746 -1.0749
49521SOL    HW258494   3.944  11.951   5.525 -2.3543 -0.8131 -2.3657
49522SOL     OW58495  13.079   7.378   4.315 -0.3822  0.6350  0.1868
49522SOL    HW158496  13.040   7.419   4.393  0.6734  0.4566  0.8280
49522SOL    HW258497  13.016   7.311   4.289 -1.5400  1.8095 -0.1303
49523SOL     OW58498  12.855   2.683   3.828  0.3185  0.6627  0.1490
49523SOL    HW158499  12.889   2.664   3.915  0.0938 -0.1497  0.0707
49523SOL    HW258500  12.762   2.662   3.833  0.2536  0.8506 -0.2168
49524SOL     OW58501   2.853   8.493   9.841  0.0585  0.3827  0.4515
49524SOL    HW158502   2.816   8.512   9.755  0.9820  0.8830  0.1538
49524SOL    HW258503   2.938   8.455   9.823  0.5593  1.1263  1.1383
49525SOL     OW58504   8.080  11.117   7.564  0.5353 -0.7836  0.6784
49525SOL    HW158505   7.999  11.116   7.616  1.3437  0.1367  2.0038
49525SOL    HW258506   8.057  11.069   7.484 -1.7095  0.5436  0.4257
49526SOL     OW58507  10.444   3.678  10.779  0.0076 -0.2475  0.1171
49526SOL    HW158508  10.380   3.675  10.709  0.2936  1.0151 -0.2197
49526SOL    HW258509  10.467   3.586  10.794 -1.7166 -0.7020  0.1243
49527SOL     OW58510   8.695  10.594   2.007 -0.2399 -0.4642  0.0771
49527SOL    HW158511   8.646  10.677   2.006  1.6797  0.7787  1.5593
49527SOL    HW258512   8.735  10.589   1.920 -1.9039 -0.8857 -0.7192
49528SOL     OW58513   3.872   6.222   8.516 -0.5684 -0.1122 -0.1692
49528SOL    HW158514   3.835   6.192   8.600  1.6336 -1.6385  0.3610
49528SOL    HW258515   3.798   6.219   8.455 -1.4118 -3.0622  0.7856
49529SOL     OW58516   5.845   7.096   3.825 -0.0392  0.5494 -0.0602
49529SOL    HW158517   5.933   7.075   3.794  0.6634  2.3622  0.5521
49529SOL    HW258518   5.833   7.188   3.802 -1.6369  0.4368  0.2167
49530SOL     OW58519   5.925  10.455  11.648  0.2696 -0.5653  0.2047
49530SOL    HW158520   5.974  10.486  11.572  1.9952 -0.4485  1.3102
49530SOL    HW258521   5.852  10.406  11.611  0.9074 -0.2816 -1.5260
49531SOL     OW58522   5.941   6.271   7.555  0.2330  0.0053  0.4906
49531SOL    HW158523   5.894   6.197   7.515 -0.4085  1.0795 -0.8053
49531SOL    HW258524   6.005   6.229   7.613  1.1137 -1.6733 -1.5315
49532SOL     OW58525   5.979   7.422   8.282 -0.0383  0.7659  0.3779
49532SOL    HW158526   6.023   7.344   8.317  0.6609  0.7660 -0.4567
49532SOL    HW258527   5.886   7.405   8.296  0.1893  1.4872  3.7579
49533SOL     OW58528   6.490  11.352   0.489 -0.0514  0.2320  0.0556
49533SOL    HW158529   6.535  11.434   0.508 -3.0884  2.3649 -1.2606
49533SOL    HW258530   6.534  11.318   0.411 -0.8371  2.4912 -1.4864
49534SOL     OW58531   3.248   4.150   3.441  0.5235 -0.0989 -0.0411
49534SOL    HW158532   3.232   4.056   3.441  1.0190 -0.2065 -1.3059
49534SOL    HW258533   3.166   4.189   3.412 -0.4693  0.0716  2.7264
49535SOL     OW58534   6.987   6.758   9.402  0.5226 -0.3065  0.4239
49535SOL    HW158535   7.029   6.673   9.390  1.3799 -0.4938  3.7091
49535SOL    HW258536   6.895   6.737   9.419  0.4325 -0.4546 -0.2476
49536SOL     OW58537   3.016  11.004  11.490  0.7770 -0.8783  0.4460
49536SOL    HW158538   3.064  10.960  11.559  1.8187 -1.6125 -0.7076
49536SOL    HW258539   3.020  10.944  11.415 -0.7599 -0.3476 -0.1107
49537SOL     OW58540   8.699   1.468   2.697  0.0012 -0.1899  0.2875
49537SOL    HW158541   8.764   1.416   2.745 -0.9733 -1.2569  0.4846
49537SOL    HW258542   8.615   1.430   2.721 -0.5901 -0.0337 -1.4147
49538SOL     OW58543  12.233   4.446   7.861  0.4956  0.2766 -0.2457
49538SOL    HW158544  12.293   4.400   7.802  0.1342 -0.3343 -0.1491
49538SOL    HW258545  12.155   4.390   7.863  1.4364 -1.1332  2.8220
49539SOL     OW58546   6.201   8.136   3.771  0.6894 -0.0660  0.2200
49539SOL    HW158547   6.294   8.127   3.791  0.8650 -0.3616 -0.6677
49539SOL    HW258548   6.156   8.121   3.854  1.4489  0.4304  0.7244
49540SOL     OW58549  12.968   3.132   1.969  0.2932  0.3111 -0.6507
49540SOL    HW158550  13.025   3.144   2.045  0.3918 -0.6229 -0.5698
49540SOL    HW258551  12.913   3.211   1.969  0.1619  0.2492  0.5087
49541SOL     OW58552   0.912   3.893   8.146 -0.0461 -0.3627  0.4382
49541SOL    HW158553   0.949   3.903   8.234  0.0728 -0.1100  0.3619
49541SOL    HW258554   0.982   3.922   8.087 -0.4803  0.4440  0.3049
49542SOL     OW58555  11.087  12.907  12.654  0.1512  0.4243 -0.1789
49542SOL    HW158556  11.131  12.887  12.736  0.4292  1.7746  0.0266
49542SOL    HW258557  11.021  12.972  12.677 -0.0938  0.4583 -0.9413
49543SOL     OW58558   9.022   9.024   4.799 -0.0394  0.0654 -0.9413
49543SOL    HW158559   8.950   9.064   4.847 -0.5326  0.0103 -1.6185
49543SOL    HW258560   9.033   8.938   4.840  1.8020  1.2399  1.2986
49544SOL     OW58561   6.453   3.056   9.899  0.2510  0.1893 -0.1588
49544SOL    HW158562   6.443   2.967   9.866  0.5918  0.5934 -1.4063
49544SOL    HW258563   6.372   3.101   9.873  0.8216  0.6994 -1.0866
49545SOL     OW58564   3.241  11.903   4.954  0.1960  0.2294 -0.4049
49545SOL    HW158565   3.196  11.830   4.996 -0.3871  1.3513  0.9848
49545SOL    HW258566   3.172  11.965   4.931  0.8165  1.0715 -0.0747
49546SOL     OW58567   2.685   8.615  11.561 -0.1035  0.4807 -0.0388
49546SOL    HW158568   2.766   8.606  11.512  0.1704  1.1934  0.2565
49546SOL    HW258569   2.640   8.688  11.518 -0.8362 -0.2512 -0.5279
49547SOL     OW58570   1.133   8.730   9.612  0.1370 -0.3471  0.4160
49547SOL    HW158571   1.085   8.760   9.534  1.3407 -1.0258 -0.6275
49547SOL    HW258572   1.181   8.806   9.642 -0.3940 -0.0590  0.5359
49548SOL     OW58573   4.100  12.864   9.654 -0.4516  0.1947  0.2230
49548SOL    HW158574   4.062  12.783   9.688 -2.2248  0.1179 -1.7034
49548SOL    HW258575   4.175  12.835   9.602 -0.7309 -0.1556  0.0128
49549SOL     OW58576   5.889   2.237   0.204 -0.7695 -0.1219 -0.2108
49549SOL    HW158577   5.976   2.274   0.191 -1.3799  0.9185 -1.6489
49549SOL    HW258578   5.871   2.190   0.122 -1.9384  0.5268 -0.3403
49550SOL     OW58579   4.807  11.192  10.466 -0.2497 -0.0724 -0.0667
49550SOL    HW158580   4.738  11.174  10.402 -0.1175 -0.6236 -0.0581
49550SOL    HW258581   4.770  11.262  10.521 -1.3441 -1.2430  0.7543
49551SOL     OW58582  12.989  12.887   6.644 -0.4428 -0.3688  0.0674
49551SOL    HW158583  13.023  12.971   6.674  0.9793  0.2043 -2.8102
49551SOL    HW258584  13.060  12.851   6.590 -2.6353 -1.3638 -2.3448
49552SOL     OW58585   4.340  10.397   8.475 -0.3632  0.5998 -0.6683
49552SOL    HW158586   4.285  10.387   8.398 -0.9896  2.9691 -0.6182
49552SOL    HW258587   4.412  10.453   8.446  0.0586  0.4996  0.1529
49553SOL     OW58588  12.521   0.316   8.964 -0.3256  0.1292 -0.3297
49553SOL    HW158589  12.478   0.247   9.015  0.6668  0.6353  1.2714
49553SOL    HW258590  12.613   0.290   8.961 -0.2176  0.5740 -1.0950
49554SOL     OW58591   9.412   9.492   1.715 -0.4707 -0.5848 -0.0586
49554SOL    HW158592   9.507   9.500   1.716 -0.5726  0.5649  0.8154
49554SOL    HW258593   9.385   9.507   1.805 -1.4813 -0.9904 -0.2819
49555SOL     OW58594   3.441  10.982  12.470 -0.6509 -0.0461  0.4251
49555SOL    HW158595   3.477  11.065  12.500 -0.2728 -0.0385 -0.0323
49555SOL    HW258596   3.365  11.006  12.418  0.3327  0.1364 -1.0037
49556SOL     OW58597   1.872   9.867   3.810 -0.0797 -0.2301  0.1992
49556SOL    HW158598   1.870   9.878   3.905  1.3430  3.8820 -0.0418
49556SOL    HW258599   1.785   9.894   3.781  0.2622  1.0287  0.2657
49557SOL     OW58600  12.806   0.522   8.251 -0.2559 -0.0766 -0.3357
49557SOL    HW158601  12.794   0.585   8.322  1.7336  0.4852 -0.4401
49557SOL    HW258602  12.870   0.460   8.285 -0.9571 -1.1140 -0.8493
49558SOL     OW58603   7.271   2.624   2.589  0.0239  0.6571 -0.5086
49558SOL    HW158604   7.195   2.567   2.575 -0.4803  1.0128  0.6574
49558SOL    HW258605   7.340   2.564   2.619 -1.0252  0.7784  2.5323
49559SOL     OW58606   1.863   5.665   7.161  0.1491 -0.5257 -0.1455
49559SOL    HW158607   1.881   5.665   7.255 -1.8379  1.0543  0.3178
49559SOL    HW258608   1.855   5.758   7.138  0.5701 -0.8743 -1.8907
49560SOL     OW58609   5.344   0.900   8.198 -1.1308 -0.1607 -0.0519
49560SOL    HW158610   5.256   0.935   8.211 -1.2369  0.1600 -1.4033
49560SOL    HW258611   5.359   0.909   8.104  0.3663 -0.1685  0.1589
49561SOL     OW58612   8.862   4.943   5.386  0.0002  0.3013 -0.0902
49561SOL    HW158613   8.929   4.883   5.354 -0.0233 -0.6040  1.4806
49561SOL    HW258614   8.900   4.984   5.464 -1.0634  0.1530  0.5282
49562SOL     OW58615  10.385  10.246   3.941 -0.0156  0.3217 -0.3256
49562SOL    HW158616  10.302  10.289   3.921 -0.1496  0.5551  0.6628
49562SOL    HW258617  10.363  10.153   3.946  0.2561  0.1074 -2.3634
49563SOL     OW58618  11.309  11.137  12.276  0.2843 -0.7509 -0.4123
49563SOL    HW158619  11.402  11.112  12.276  0.1512 -1.2621  0.3005
49563SOL    HW258620  11.263  11.056  12.299 -0.0750  0.4053  3.5386
49564SOL     OW58621  12.850   1.845   5.661  0.2166 -0.1854  0.0359
49564SOL    HW158622  12.897   1.810   5.585  2.1706  2.3190 -0.0205
49564SOL    HW258623  12.847   1.939   5.646 -0.7594  0.2086  2.3372
49565SOL     OW58624  10.827  10.623   1.622 -0.4256 -0.3071 -0.3171
49565SOL    HW158625  10.870  10.693   1.672  0.1466 -0.2756 -0.8430
49565SOL    HW258626  10.738  10.653   1.609  0.3654  1.3722 -2.4269
49566SOL     OW58627  11.781   6.646   0.674 -0.4462  0.1542  0.2211
49566SOL    HW158628  11.803   6.604   0.757 -0.7840  0.4141  0.4425
49566SOL    HW258629  11.701   6.695   0.692 -0.8544 -0.2642 -0.4125
49567SOL     OW58630   6.355   1.839  12.888 -0.2240  0.0587 -0.1256
49567SOL    HW158631   6.380   1.883  12.970 -0.9207 -0.3618  0.3190
49567SOL    HW258632   6.405   1.757  12.889 -1.1651 -0.5215  0.4907
49568SOL     OW58633   0.183  11.679   8.846 -0.0635  0.4198  0.0761
49568SOL    HW158634   0.202  11.733   8.923 -1.6583 -1.0291  1.5774
49568SOL    HW258635   0.252  11.701   8.783  0.5072  2.6634  1.3828
49569SOL     OW58636   7.253   8.847  12.848  0.1545  0.4316  0.1175
49569SOL    HW158637   7.342   8.882  12.847 -0.4300  2.0502  1.0139
49569SOL    HW258638   7.197   8.924  12.838 -1.1918 -0.2947  1.6365
49570SOL     OW58639   3.678   0.763   5.347  0.4237  0.4703 -0.0052
49570SOL    HW158640   3.632   0.827   5.402  0.9042  1.0997 -0.3190
49570SOL    HW258641   3.647   0.783   5.258  1.1465  0.7763 -0.1951
49571SOL     OW58642   2.645   5.065   5.731 -0.0717 -0.3790 -0.9391
49571SOL    HW158643   2.705   5.011   5.783 -0.1807  0.0420 -0.3710
49571SOL    HW258644   2.605   5.003   5.669  1.3707 -0.5603 -1.7307
49572SOL     OW58645   3.758   8.676   1.913 -0.1774 -0.1180  0.1851
49572SOL    HW158646   3.787   8.585   1.905  2.5445  0.5407  1.5498
49572SOL    HW258647   3.723   8.698   1.827 -1.1155 -2.4833 -0.1191
49573SOL     OW58648  11.495   2.068   1.620  0.2707  0.1898 -0.6957
49573SOL    HW158649  11.448   2.041   1.541 -0.9915 -0.6422  0.3138
49573SOL    HW258650  11.443   2.035   1.692  0.9224  1.7263  0.5427
49574SOL     OW58651  12.887   5.249   2.515  0.4184 -0.3295  0.6330
49574SOL    HW158652  12.892   5.308   2.590  1.5849  1.6104 -0.8777
49574SOL    HW258653  12.977   5.223   2.499  0.4782  0.7863 -1.1671
49575SOL     OW58654   4.995   2.654   2.676 -0.2689  0.2704  1.0584
49575SOL    HW158655   4.900   2.667   2.669  0.0086  2.6691  0.8898
49575SOL    HW258656   5.012   2.576   2.624 -2.1119 -0.0085  0.8053
49576SOL     OW58657  10.731  12.029   5.830 -0.0454  0.2918 -0.2714
49576SOL    HW158658  10.804  12.088   5.810  2.6670 -2.3575  0.9897
49576SOL    HW258659  10.690  12.012   5.746  2.0932  0.3739 -1.4055
49577SOL     OW58660   5.477  12.451   2.855 -0.1779 -0.2903 -0.2856
49577SOL    HW158661   5.431  12.443   2.939 -3.2336 -0.9210 -1.8673
49577SOL    HW258662   5.450  12.374   2.806 -1.3421  1.7229 -3.0745
49578SOL     OW58663   6.321   1.183  13.130  0.0003  0.3379  0.0505
49578SOL    HW158664   6.239   1.194  13.082 -0.4113 -2.0374  0.0730
49578SOL    HW258665   6.305   1.110  13.189  2.3135 -0.6866 -0.4506
49579SOL     OW58666   6.870   9.860   6.699  0.1747  0.3347 -0.5692
49579SOL    HW158667   6.958   9.890   6.676  1.0241 -2.7522 -1.8464
49579SOL    HW258668   6.820   9.869   6.618 -0.3550  0.9726 -0.1714
49580SOL     OW58669   5.637   6.956   0.762 -0.0426  0.1434 -0.1281
49580SOL    HW158670   5.590   6.873   0.761  1.5033 -0.8110  1.3491
49580SOL    HW258671   5.604   7.004   0.686 -1.7856 -1.3451 -0.3564
49581SOL     OW58672   1.417  10.014  12.468 -0.3642 -0.0578 -0.6922
49581SOL    HW158673   1.341   9.959  12.450  0.8277 -2.3677  0.7754
49581SOL    HW258674   1.400  10.050  12.556  0.7222 -1.6046  0.1935
49582SOL     OW58675   7.047  10.735  12.530 -0.0179 -0.4068  0.7656
49582SOL    HW158676   7.063  10.791  12.606  0.2136 -0.2301  0.5903
49582SOL    HW258677   7.130  10.737  12.481  0.1046 -1.1560  0.9204
49583SOL     OW58678   6.899   6.033   2.284 -0.1062 -0.1246  0.2396
49583SOL    HW158679   6.832   6.065   2.223 -0.7405 -3.4004 -0.9639
49583SOL    HW258680   6.851   5.975   2.344  1.4181 -1.4460  0.2319
49584SOL     OW58681   9.115   4.918   7.984  0.2906  0.1061 -0.6864
49584SOL    HW158682   9.151   4.942   8.070  1.7514  0.1724 -1.2851
49584SOL    HW258683   9.080   5.000   7.949 -0.5592  0.0271 -0.0619
49585SOL     OW58684   6.994   7.812   8.514  0.0398  0.1526 -0.2444
49585SOL    HW158685   6.951   7.734   8.547 -3.2370  0.0297 -4.0954
49585SOL    HW258686   7.053   7.780   8.446 -0.7589  0.9174 -1.3280
49586SOL     OW58687   5.955   4.737  12.282 -0.1476  0.1959 -0.1067
49586SOL    HW158688   5.867   4.752  12.317  0.4018  0.0684  1.4015
49586SOL    HW258689   5.954   4.646  12.253 -0.3777  0.0335  0.3866
49587SOL     OW58690   2.502   5.896   9.594 -0.0090  0.2396  0.4052
49587SOL    HW158691   2.568   5.897   9.664 -1.2275 -1.6098  1.6995
49587SOL    HW258692   2.458   5.812   9.605 -0.0415 -0.3006 -2.8723
49588SOL     OW58693   4.689   7.903   0.231 -0.0963  0.2965 -0.1273
49588SOL    HW158694   4.644   7.988   0.225  0.0897  0.3468 -0.8036
49588SOL    HW258695   4.736   7.894   0.148  1.1000  0.2103  0.5353
49589SOL     OW58696   6.661   6.992   6.103  0.1922  0.1111  0.6812
49589SOL    HW158697   6.721   6.921   6.080  1.0563  0.6595  1.2041
49589SOL    HW258698   6.624   7.020   6.020  1.9095  0.8637  0.1335
49590SOL     OW58699  10.091   3.687   8.485 -0.2962  0.3440 -0.3176
49590SOL    HW158700  10.068   3.595   8.485  0.6275  0.0957  0.0907
49590SOL    HW258701  10.045   3.724   8.561 -0.4307  0.1523 -0.3075
49591SOL     OW58702   1.821   0.325   8.534  0.7805  0.0453 -0.0487
49591SOL    HW158703   1.829   0.318   8.439 -1.5176  0.7293 -0.3534
49591SOL    HW258704   1.890   0.268   8.569  1.3023 -0.6523 -2.1093
49592SOL     OW58705  12.706   3.883  11.249  0.1736  0.6204 -0.0133
49592SOL    HW158706  12.726   3.852  11.161 -1.3416  0.1934 -0.2231
49592SOL    HW258707  12.774   3.949  11.267  0.8940  0.2344 -1.2157
49593SOL     OW58708   3.838   8.130   4.566 -0.3485  0.2482 -0.6193
49593SOL    HW158709   3.844   8.181   4.485 -1.3451  0.8284 -0.3479
49593SOL    HW258710   3.929   8.107   4.586 -0.1157 -0.3192 -2.1531
49594SOL     OW58711   1.371  11.151   8.884  0.0628  0.7786  0.0438
49594SOL    HW158712   1.345  11.103   8.963  2.2657  0.8462  0.8952
49594SOL    HW258713   1.370  11.086   8.814  1.6871 -0.2686  0.9120
49595SOL     OW58714  12.303   2.078   7.027  0.4962 -0.2669 -0.0673
49595SOL    HW158715  12.303   1.999   7.081 -0.1673 -0.9673 -1.0275
49595SOL    HW258716  12.240   2.058   6.957  0.5080  1.0229 -0.4723
49596SOL     OW58717   8.279  11.088   7.197 -0.3116  0.0485 -0.4428
49596SOL    HW158718   8.270  10.993   7.185  1.4252 -0.1236 -0.7321
49596SOL    HW258719   8.194  11.124   7.170 -0.9579 -1.4079 -0.4451
49597SOL     OW58720   7.590   1.498   0.822  0.2458 -0.1056 -0.8196
49597SOL    HW158721   7.503   1.510   0.860  0.0381 -0.6271 -1.1227
49597SOL    HW258722   7.627   1.424   0.871  0.3675 -0.1356 -0.9580
49598SOL     OW58723   9.299  12.140   7.811  0.1892  0.1050 -0.1197
49598SOL    HW158724   9.204  12.139   7.814  0.1503 -0.4578 -0.9713
49598SOL    HW258725   9.320  12.176   7.724  0.7806  1.2806  0.4773
49599SOL     OW58726   6.072   4.287  11.607 -0.1130 -0.0622  0.1132
49599SOL    HW158727   6.093   4.203  11.649  0.8846  0.7116  1.2247
49599SOL    HW258728   6.156   4.322  11.578 -0.0172  1.8949  2.3601
49600SOL     OW58729   0.020   5.553   9.665 -0.1195  0.2021  0.2420
49600SOL    HW158730   0.069   5.480   9.703  0.4148  0.6216  0.3699
49600SOL    HW258731   0.031   5.625   9.728 -3.0375 -0.4158  1.5998
49601SOL     OW58732   3.566   4.487   7.869  0.3605  0.2545 -0.2197
49601SOL    HW158733   3.532   4.484   7.959 -0.9817 -1.6664 -0.7144
49601SOL    HW258734   3.544   4.575   7.838 -2.3505 -0.1480  0.2543
49602SOL     OW58735   9.749   2.406   7.721  0.2316 -0.8951 -0.2597
49602SOL    HW158736   9.813   2.353   7.674 -0.2341 -1.6432 -0.0712
49602SOL    HW258737   9.679   2.345   7.743 -0.8191  0.0235 -0.9604
49603SOL     OW58738   9.353   4.662   4.688 -0.5687  0.0563  0.2693
49603SOL    HW158739   9.399   4.585   4.655  1.3716  0.7696  1.1146
49603SOL    HW258740   9.324   4.637   4.776  2.0471  0.8674  1.4980
49604SOL     OW58741   0.387   3.293  10.112  0.1979 -0.0085 -0.3426
49604SOL    HW158742   0.452   3.292  10.183  0.7055  0.1735 -0.8014
49604SOL    HW258743   0.303   3.302  10.157  0.6761  2.7433  0.1668
49605SOL     OW58744   9.120   8.294   4.784 -0.3313  0.5100 -0.4995
49605SOL    HW158745   9.087   8.347   4.856 -0.0108  0.2758 -0.1738
49605SOL    HW258746   9.133   8.356   4.712  2.6597  1.4679  0.6870
49606SOL     OW58747   1.180   6.145  12.787 -0.5469 -0.5000  0.2188
49606SOL    HW158748   1.131   6.214  12.831 -0.7543 -1.1005  0.9548
49606SOL    HW258749   1.251   6.124  12.848 -0.3088 -0.7314 -0.1329
49607SOL     OW58750   2.799  12.749   1.757  0.2374 -0.1783  0.5163
49607SOL    HW158751   2.759  12.691   1.821  0.8444  0.4574  1.4927
49607SOL    HW258752   2.855  12.692   1.704  1.1493 -0.4430  1.7274
49608SOL     OW58753   5.606   2.892   2.964  0.0976 -0.4897 -0.5129
49608SOL    HW158754   5.522   2.929   2.938  0.3253 -0.7074 -1.6232
49608SOL    HW258755   5.634   2.841   2.888  0.1618 -2.3162  0.6565
49609SOL     OW58756  12.444   1.045   3.716 -0.2183  0.4058  0.8891
49609SOL    HW158757  12.514   1.094   3.672  0.4861 -0.8942  0.5088
49609SOL    HW258758  12.385   1.019   3.645  1.2305 -2.2073  0.5256
49610SOL     OW58759   7.984  10.273   5.932 -0.0441  0.4530 -0.0111
49610SOL    HW158760   7.936  10.237   6.007 -0.1475 -0.6010 -0.5521
49610SOL    HW258761   7.988  10.200   5.870  1.1170  0.9292 -0.5216
49611SOL     OW58762  10.826   4.817   8.299  0.5779 -0.0902 -0.2645
49611SOL    HW158763  10.884   4.841   8.372 -0.0450  2.0698 -0.3880
49611SOL    HW258764  10.804   4.901   8.258 -3.3372 -0.6287  0.3135
49612SOL     OW58765  11.034   1.703   1.126  0.1354 -0.4973 -0.2899
49612SOL    HW158766  11.048   1.766   1.056  0.2541  0.0978  0.2603
49612SOL    HW258767  11.041   1.618   1.083  0.0124 -0.1428 -1.0320
49613SOL     OW58768  11.403   7.292  11.044 -0.7818  0.1115 -0.5510
49613SOL    HW158769  11.496   7.315  11.053 -0.9208  0.4379  0.1564
49613SOL    HW258770  11.369   7.298  11.133 -1.1967 -1.2796 -0.6000
49614SOL     OW58771   1.212   2.725  10.885  0.2983  0.1946  0.1821
49614SOL    HW158772   1.249   2.651  10.932  1.1572  1.1134  1.0061
49614SOL    HW258773   1.238   2.712  10.794 -0.1049 -0.8275  0.2049
49615SOL     OW58774   3.855   6.001   1.008 -0.3278  0.0892  0.3311
49615SOL    HW158775   3.901   6.084   1.018 -0.9282  0.5180 -0.3309
49615SOL    HW258776   3.798   6.015   0.932 -0.7980 -0.7633  0.5193
49616SOL     OW58777   5.202   6.942  12.075 -0.0417  0.0998 -0.4094
49616SOL    HW158778   5.200   6.869  12.137  0.5673  0.2522 -0.2023
49616SOL    HW258779   5.283   6.989  12.095 -0.0977  0.4562 -0.9759
49617SOL     OW58780   0.997   4.593   0.965  0.0697 -0.0707 -0.3442
49617SOL    HW158781   1.030   4.534   1.033  0.5699 -0.3338 -0.8125
49617SOL    HW258782   1.061   4.663   0.960 -1.7176  1.9091  1.9464
49618SOL     OW58783   9.833   6.825  11.020  0.1139  0.1470  0.2409
49618SOL    HW158784   9.868   6.912  11.041  0.0567  0.5512 -1.2037
49618SOL    HW258785   9.899   6.787  10.962 -0.0687 -0.6135  0.5232
49619SOL     OW58786   4.857   8.155   3.642 -0.0452 -0.5387 -0.5731
49619SOL    HW158787   4.820   8.068   3.628 -0.8794 -0.2086 -0.4783
49619SOL    HW258788   4.823   8.182   3.727 -0.2518  0.1095 -0.8576
49620SOL     OW58789   5.891   3.097   5.888  0.2802 -0.3008 -0.0573
49620SOL    HW158790   5.935   3.068   5.968 -0.4306 -0.1511  0.4036
49620SOL    HW258791   5.798   3.096   5.911  0.2086  2.3773 -0.0072
49621SOL     OW58792   2.938   2.237   4.465 -0.0591  0.4277  0.0716
49621SOL    HW158793   3.001   2.305   4.489 -0.0608  0.6097 -0.4361
49621SOL    HW258794   2.894   2.215   4.548  0.2549  0.7211  0.3176
49622SOL     OW58795   4.316   4.739   0.260 -0.1462 -0.5788  0.4634
49622SOL    HW158796   4.245   4.691   0.218  0.8858 -1.6931 -0.0963
49622SOL    HW258797   4.369   4.672   0.303  0.4172  0.2492  1.1073
49623SOL     OW58798   4.575   1.985   6.039  0.6121  0.6474  0.3095
49623SOL    HW158799   4.529   2.000   6.121  2.8724 -1.0743  2.0538
49623SOL    HW258800   4.630   2.062   6.027  0.3489  0.8593  0.4767
49624SOL     OW58801   5.324   9.240  10.488  0.1420 -0.4117 -0.1685
49624SOL    HW158802   5.255   9.173  10.487  0.1336 -0.4107 -1.0157
49624SOL    HW258803   5.406   9.190  10.489  0.1374 -0.4507 -0.9574
49625SOL     OW58804   3.192   8.212  10.817 -0.1006  0.4178 -0.4149
49625SOL    HW158805   3.132   8.219  10.891 -2.5599  0.2130 -2.2713
49625SOL    HW258806   3.214   8.119  10.811 -0.5513  0.3096 -0.4133
49626SOL     OW58807   9.243   8.134   9.792 -0.8140  0.1068  0.8439
49626SOL    HW158808   9.277   8.134   9.702 -2.2433  0.8404  0.2721
49626SOL    HW258809   9.192   8.215   9.798 -0.8453  0.0014  2.2893
49627SOL     OW58810  11.826   2.751   6.462  0.3850  0.3672  0.1279
49627SOL    HW158811  11.901   2.810   6.473  0.8838 -0.0648 -0.8339
49627SOL    HW258812  11.854   2.689   6.395 -0.3034 -0.7023  0.8014
49628SOL     OW58813   1.994  13.128  11.778 -0.0354 -0.3749  0.5388
49628SOL    HW158814   2.036  13.187  11.716  1.5226 -1.1298  0.8229
49628SOL    HW258815   2.065  13.073  11.811 -1.4844 -2.8007 -0.1453
49629SOL     OW58816   2.574  12.424   2.348 -0.0060  0.5612  0.7032
49629SOL    HW158817   2.667  12.434   2.331 -0.1330  3.2273  1.0811
49629SOL    HW258818   2.559  12.475   2.428 -1.4630 -1.5536  1.8807
49630SOL     OW58819  12.155   3.933   5.598  0.2396  0.0320 -0.0990
49630SOL    HW158820  12.176   4.000   5.533  0.6898 -0.5207 -0.5481
49630SOL    HW258821  12.090   3.973   5.655  0.8698  1.0096 -0.0601
49631SOL     OW58822   0.581   4.159   3.914  0.2037 -0.3839 -0.0242
49631SOL    HW158823   0.620   4.159   3.826  0.2968 -0.6739  0.0171
49631SOL    HW258824   0.534   4.076   3.919  1.3710 -1.0294  0.7164
49632SOL     OW58825   9.559   3.008  11.687  0.7525  0.0949  0.0829
49632SOL    HW158826   9.505   2.997  11.765 -1.6323  1.0005 -1.3348
49632SOL    HW258827   9.541   2.930  11.635 -0.4688  1.0924 -1.0658
49633SOL     OW58828   4.322   3.934   9.933  0.4122 -0.4948  0.0387
49633SOL    HW158829   4.344   3.944  10.025  1.6860 -1.1777 -0.1655
49633SOL    HW258830   4.387   3.986   9.887  1.0325 -1.7487 -0.5518
49634SOL     OW58831  10.117   1.570   5.467  0.1227  0.5558 -0.4507
49634SOL    HW158832  10.148   1.656   5.493  2.1855 -0.9217  2.5187
49634SOL    HW258833  10.060   1.542   5.538 -0.2928 -0.6375 -1.2158
49635SOL     OW58834   7.948   7.502  13.112  0.4376 -0.1524 -0.5010
49635SOL    HW158835   7.864   7.499  13.066  1.4107  1.9485 -2.6065
49635SOL    HW258836   7.952   7.591  13.149  1.3263 -0.5611  0.4485
49636SOL     OW58837   0.628   4.529   2.284  0.5271  0.7571  0.4406
49636SOL    HW158838   0.656   4.585   2.212 -2.1508  1.1577 -0.3813
49636SOL    HW258839   0.591   4.452   2.242 -0.7250  0.8200  1.3647
49637SOL     OW58840   2.055  10.659   4.377 -0.5585 -0.0989  0.3773
49637SOL    HW158841   2.139  10.638   4.338  0.8983 -0.9002  3.6308
49637SOL    HW258842   1.998  10.585   4.353 -0.5816  0.6561 -2.2042
49638SOL     OW58843   4.625  10.979   0.472 -0.3805 -1.0288 -0.0098
49638SOL    HW158844   4.656  10.999   0.560 -1.9816 -0.3380  0.4222
49638SOL    HW258845   4.665  11.047   0.417 -1.2824  0.0003  0.5756
49639SOL     OW58846   2.681  11.966  10.074  0.2348  0.2543  0.3880
49639SOL    HW158847   2.592  11.983  10.041  0.3536 -0.4967 -0.3672
49639SOL    HW258848   2.690  12.023  10.150 -0.9175  0.2963  0.5051
49640SOL     OW58849   3.134   8.102  13.097  0.8890  0.2733 -0.4091
49640SOL    HW158850   3.068   8.036  13.120  0.1072  0.1691 -2.6299
49640SOL    HW258851   3.218   8.062  13.118  0.3042  0.1622  1.9129
49641SOL     OW58852   8.207  13.240  10.886  0.4592  0.4342  0.4163
49641SOL    HW158853   8.215  13.156  10.842  0.2741  0.8545 -0.4467
49641SOL    HW258854   8.113  13.250  10.902  0.6938 -0.5374  2.5831
49642SOL     OW58855   6.600   4.838   5.500 -0.6212 -0.3937  0.0855
49642SOL    HW158856   6.523   4.783   5.485 -0.2883 -0.5140 -1.2807
49642SOL    HW258857   6.640   4.803   5.580 -0.6818 -1.8338 -0.4896
49643SOL     OW58858   3.195   1.427   4.266 -0.8927 -0.1151 -0.2064
49643SOL    HW158859   3.195   1.350   4.325  1.2451 -0.1267 -0.1389
49643SOL    HW258860   3.242   1.494   4.315  2.6171 -0.6847 -2.4878
49644SOL     OW58861   9.137   6.029   4.488  0.1334 -0.1902  0.2623
49644SOL    HW158862   9.208   5.987   4.440 -1.4526 -0.7013 -1.7781
49644SOL    HW258863   9.058   5.981   4.462 -1.1462  1.1849  1.4102
49645SOL     OW58864   8.422   2.926  12.709 -0.5828  0.9942  0.4135
49645SOL    HW158865   8.475   2.965  12.778 -2.5380  1.5983  1.6562
49645SOL    HW258866   8.349   2.884  12.755 -0.4901 -0.9916 -1.1304
49646SOL     OW58867   2.873   9.083   9.026  0.4998  0.7489 -0.4817
49646SOL    HW158868   2.878   8.993   8.995 -0.4855  0.1210  1.0568
49646SOL    HW258869   2.781   9.095   9.049  0.9085  1.6283  0.7921
49647SOL     OW58870   0.856  11.920  10.100  0.6501 -0.7449 -0.8863
49647SOL    HW158871   0.865  11.975  10.178  0.0540  0.3393 -1.5454
49647SOL    HW258872   0.918  11.958  10.037  1.4872 -1.9189 -0.7829
49648SOL     OW58873   0.282   6.058   0.882 -0.2437 -0.4079 -0.7264
49648SOL    HW158874   0.330   6.139   0.865 -0.1522 -0.1739  0.6020
49648SOL    HW258875   0.213   6.083   0.942 -0.6455 -1.1881 -0.8562
49649SOL     OW58876   3.683   4.257   5.280 -0.4174  0.0387 -0.2105
49649SOL    HW158877   3.637   4.208   5.212  0.0328 -0.5589 -0.0953
49649SOL    HW258878   3.659   4.213   5.362 -0.4423  0.3507 -0.0503
49650SOL     OW58879   4.236   2.899   8.624 -0.3017  0.1101  0.6925
49650SOL    HW158880   4.271   2.985   8.601 -0.0494 -0.5901 -1.7318
49650SOL    HW258881   4.163   2.885   8.564  0.2417 -1.7415  0.4103
49651SOL     OW58882   8.175   5.472  11.844 -0.2244 -0.2787 -0.1163
49651SOL    HW158883   8.160   5.522  11.924  4.3429  0.8376  0.3488
49651SOL    HW258884   8.144   5.384  11.863  0.5686 -0.0017  2.9183
49652SOL     OW58885  12.074   2.223   0.137 -0.2167  0.2269 -0.1098
49652SOL    HW158886  12.140   2.227   0.068 -0.7948 -1.8012 -0.8455
49652SOL    HW258887  11.992   2.241   0.092 -0.7361 -2.1481 -0.2593
49653SOL     OW58888   2.808   1.253  12.182  0.1325  0.2564 -0.5069
49653SOL    HW158889   2.859   1.173  12.197 -0.8394 -0.2861  0.0166
49653SOL    HW258890   2.836   1.284  12.096  0.3930 -0.7586 -0.8022
49654SOL     OW58891   2.429  11.027  11.308  0.0070  0.4620 -0.7253
49654SOL    HW158892   2.357  10.964  11.315 -1.2284  1.6638 -1.9947
49654SOL    HW258893   2.428  11.074  11.391 -0.6487  0.4384 -0.7179
49655SOL     OW58894  12.750   6.891  12.333 -0.0065  0.5016  0.0568
49655SOL    HW158895  12.772   6.827  12.401  1.0868  1.5212  0.7167
49655SOL    HW258896  12.835   6.918  12.298 -0.5067  0.8256 -0.9391
49656SOL     OW58897   8.184   0.316   0.904  0.3304  0.8588 -0.7829
49656SOL    HW158898   8.223   0.288   0.821 -0.3889 -1.0705 -0.5125
49656SOL    HW258899   8.089   0.312   0.888  0.1878  0.6578  0.0600
49657SOL     OW58900   0.570  10.072   8.796  0.2836 -0.4778  0.0723
49657SOL    HW158901   0.664  10.092   8.795 -0.0067  0.9516 -0.5767
49657SOL    HW258902   0.549  10.065   8.889  0.2571  3.4098  0.5188
49658SOL     OW58903   4.923  12.048  10.532  0.0049 -0.0549 -0.6687
49658SOL    HW158904   4.907  12.084  10.620  2.2403  0.8437 -0.5792
49658SOL    HW258905   4.872  11.967  10.530 -1.7956  0.9481  0.6588
49659SOL     OW58906   3.613   3.368   1.980  0.1078 -0.4259  0.0950
49659SOL    HW158907   3.531   3.392   2.023 -0.5624  1.1323 -1.8631
49659SOL    HW258908   3.678   3.367   2.050 -1.2217  0.2561  1.3875
49660SOL     OW58909   6.082  11.715   1.073 -0.6396  0.3407  0.3444
49660SOL    HW158910   6.166  11.727   1.118 -0.0763  1.3596 -0.9197
49660SOL    HW258911   6.066  11.621   1.078 -0.5910  0.4021  2.5999
49661SOL     OW58912   0.511   2.850   2.689  0.4484  0.1033  0.4141
49661SOL    HW158913   0.523   2.945   2.684 -2.5991  0.5493 -0.6454
49661SOL    HW258914   0.563   2.815   2.617  0.7460  1.0882  0.1332
49662SOL     OW58915   5.969  12.482   5.831  0.3149  0.2480 -0.2766
49662SOL    HW158916   6.038  12.416   5.827 -0.6040 -0.6882 -3.3958
49662SOL    HW258917   5.994  12.547   5.765 -1.1883  0.4764 -0.6470
49663SOL     OW58918  11.910   0.722   5.035 -0.1535 -0.0177  0.1047
49663SOL    HW158919  11.900   0.628   5.050  0.8717 -0.1966 -0.2397
49663SOL    HW258920  11.938   0.729   4.944 -0.2151  0.6204  0.1302
49664SOL     OW58921   4.214   3.359   5.694 -0.1619 -0.3478 -0.2572
49664SOL    HW158922   4.308   3.369   5.713 -0.0021 -0.6204 -0.8914
49664SOL    HW258923   4.208   3.363   5.599 -0.3184 -3.9116 -0.5385
49665SOL     OW58924   3.909  13.093   3.734 -0.4514 -0.6102  0.0833
49665SOL    HW158925   3.816  13.107   3.717 -0.2848 -0.7921 -1.0116
49665SOL    HW258926   3.914  13.004   3.767 -0.5202 -1.0728 -1.1209
49666SOL     OW58927   2.500   9.278   7.804 -0.0550 -0.4106  0.2288
49666SOL    HW158928   2.509   9.302   7.896  1.3976  1.6968 -0.3807
49666SOL    HW258929   2.581   9.308   7.763  0.7422 -4.0914 -1.2716
49667SOL     OW58930  10.358   4.355   5.562  0.4810  0.0642  0.1727
49667SOL    HW158931  10.305   4.323   5.636 -0.7988  1.9220  0.1440
49667SOL    HW258932  10.303   4.422   5.521  1.5987 -0.1919 -1.8573
49668SOL     OW58933  10.056   4.752   3.303  0.2598 -0.2768  0.0841
49668SOL    HW158934  10.030   4.744   3.211 -0.5357 -1.5175  0.3921
49668SOL    HW258935  10.143   4.791   3.300  1.4259 -2.7423 -1.3530
49669SOL     OW58936   2.739   2.934   4.094 -0.1136  0.6947  0.7748
49669SOL    HW158937   2.679   3.003   4.124 -0.3314 -0.0062  1.9888
49669SOL    HW258938   2.760   2.959   4.004 -1.4401  1.4971  0.6607
49670SOL     OW58939  11.142   0.125   5.455  0.3118 -0.2597 -0.0489
49670SOL    HW158940  11.130   0.115   5.361 -1.5226  0.2572  0.0925
49670SOL    HW258941  11.146   0.220   5.469 -0.6663 -0.2869  0.5028
49671SOL     OW58942  11.374   5.149   6.895 -0.3245  0.0433 -0.0642
49671SOL    HW158943  11.353   5.088   6.965  0.8107 -0.0828  0.1925
49671SOL    HW258944  11.314   5.223   6.908 -1.0216 -0.5695  0.2287
49672SOL     OW58945   0.233   7.124   3.608 -0.6004  0.1296  0.1346
49672SOL    HW158946   0.194   7.100   3.524 -0.8367 -0.4238  0.3930
49672SOL    HW258947   0.191   7.065   3.671  1.4545 -1.3023  0.2789
49673SOL     OW58948  12.317   7.446  11.448 -0.8607 -0.0420 -0.3639
49673SOL    HW158949  12.323   7.352  11.469 -1.0768 -0.0826 -0.4816
49673SOL    HW258950  12.402   7.481  11.474 -1.2016 -0.0435  0.8149
49674SOL     OW58951   1.716   2.057   1.071 -0.0746 -0.5521 -0.4214
49674SOL    HW158952   1.653   2.064   0.999  0.8809  0.3962 -1.1999
49674SOL    HW258953   1.755   2.144   1.077 -0.9600 -0.2315  2.0708
49675SOL     OW58954  10.162  12.043   7.287  0.3530 -0.2545 -0.3054
49675SOL    HW158955  10.213  12.099   7.345 -0.8616  0.9234 -0.3328
49675SOL    HW258956  10.146  12.096   7.209 -1.1905 -0.4531 -0.1536
49676SOL     OW58957   2.493   1.946   9.504 -0.0398 -0.0403  0.0816
49676SOL    HW158958   2.494   2.036   9.472  1.3172  0.0910  0.4247
49676SOL    HW258959   2.514   1.953   9.597  2.0600 -0.8133 -0.2846
49677SOL     OW58960   0.255   8.121  12.466 -0.0509  0.0105  0.1331
49677SOL    HW158961   0.254   8.083  12.378  0.6565  1.6041 -0.5984
49677SOL    HW258962   0.218   8.052  12.522 -0.0478 -1.2310 -1.3167
49678SOL     OW58963   3.466   5.851  11.203 -0.0044 -0.1242 -0.3556
49678SOL    HW158964   3.490   5.760  11.183 -0.6486 -0.5043  0.5364
49678SOL    HW258965   3.534   5.881  11.264  0.5827  0.2293 -1.1600
49679SOL     OW58966  11.148  12.458   2.432  0.0915 -0.0010  0.4738
49679SOL    HW158967  11.203  12.492   2.502  0.8083  1.7378 -0.8631
49679SOL    HW258968  11.204  12.396   2.385  0.8473  1.4066 -0.5890
49680SOL     OW58969   1.684   5.387   9.532 -0.1669  0.3126 -0.4372
49680SOL    HW158970   1.718   5.339   9.457  1.1541  0.0631  0.2802
49680SOL    HW258971   1.683   5.322   9.603 -2.5867  0.2018 -0.5133
49681SOL     OW58972   3.604   5.477   3.583 -0.0071 -0.3134  0.6184
49681SOL    HW158973   3.646   5.561   3.600  0.9331  0.1042 -2.9446
49681SOL    HW258974   3.510   5.497   3.581  0.2762  1.1765 -2.0603
49682SOL     OW58975   1.779   2.320   9.188 -0.7261  0.7521  0.0912
49682SOL    HW158976   1.718   2.328   9.115  1.0418 -0.1798 -1.5691
49682SOL    HW258977   1.802   2.227   9.190 -1.4248  0.5570  2.4699
49683SOL     OW58978   1.851   4.090  11.119 -0.1001 -0.2168  0.5404
49683SOL    HW158979   1.890   4.050  11.197  0.8276  1.3644  0.9249
49683SOL    HW258980   1.923   4.092  11.055 -0.8147 -1.3721 -0.3387
49684SOL     OW58981   0.179   6.858   4.718  0.5835 -0.1767  0.3226
49684SOL    HW158982   0.205   6.826   4.804  1.2569 -2.1249 -0.5342
49684SOL    HW258983   0.226   6.801   4.656 -1.6993 -0.4463 -1.3172
49685SOL     OW58984   4.058   8.658  12.906  0.4648 -0.1802  0.3431
49685SOL    HW158985   4.052   8.634  12.999  0.8390 -1.2624  0.1009
49685SOL    HW258986   4.042   8.576  12.859 -0.0158  0.4203 -0.5624
49686SOL     OW58987   7.090   8.180   0.834  0.2083  0.2062  0.3198
49686SOL    HW158988   7.021   8.241   0.807  0.4910  0.1675 -0.5094
49686SOL    HW258989   7.052   8.133   0.908 -1.1284 -0.6312 -0.8293
49687SOL     OW58990  11.119   4.918   7.779 -0.3044  0.1157 -0.0854
49687SOL    HW158991  11.108   4.976   7.854 -0.9913  0.7702 -0.6861
49687SOL    HW258992  11.113   4.830   7.816 -0.5750  0.4276  0.6298
49688SOL     OW58993   9.282  10.398   8.064 -0.1403  0.0455 -0.2201
49688SOL    HW158994   9.333  10.332   8.110  0.4528 -0.9463 -2.1971
49688SOL    HW258995   9.193  10.364   8.064  0.4155 -1.6669 -2.6022
49689SOL     OW58996   6.530   0.506   2.257  0.4031 -0.0033 -0.0156
49689SOL    HW158997   6.527   0.411   2.265 -0.3751  0.0422  0.2989
49689SOL    HW258998   6.541   0.522   2.163  0.1992 -0.3948 -0.1051
49690SOL     OW58999   2.497  12.806   6.379 -0.4444  0.1832  0.2722
49690SOL    HW159000   2.554  12.773   6.448 -0.0628  0.6870  0.2055
49690SOL    HW259001   2.542  12.884   6.346 -0.5910 -0.0859 -0.5851
49691SOL     OW59002   2.386  12.877   2.881  0.0620  0.6286 -0.3842
49691SOL    HW159003   2.424  12.820   2.948 -0.8654  0.6614  0.1869
49691SOL    HW259004   2.374  12.961   2.925  1.0266  1.1712 -1.0995
49692SOL     OW59005  11.530   4.273   5.217 -0.0626 -0.8745 -0.1540
49692SOL    HW159006  11.534   4.322   5.135 -1.0705 -2.3843 -1.1624
49692SOL    HW259007  11.439   4.284   5.247  0.0687 -1.0337  0.3123
49693SOL     OW59008   4.379   4.018   3.261  0.3370  0.7043  0.0566
49693SOL    HW159009   4.397   4.002   3.354  0.7950 -1.5319 -0.3561
49693SOL    HW259010   4.287   3.997   3.250  0.4971  0.0905 -0.1491
49694SOL     OW59011   9.413   0.944   4.986 -1.0316 -0.0627 -0.2050
49694SOL    HW159012   9.463   0.999   5.046  1.7735 -2.0832 -0.4952
49694SOL    HW259013   9.406   0.996   4.906  0.9348  0.1889 -0.2529
49695SOL     OW59014  12.519   7.221   7.731  0.2872 -0.0902  0.4728
49695SOL    HW159015  12.429   7.206   7.757 -0.0680  0.2570 -0.4984
49695SOL    HW259016  12.516   7.226   7.635  1.4698 -0.9592  0.3687
49696SOL     OW59017  13.278   5.214   2.672 -0.0329 -0.3474  0.6572
49696SOL    HW159018  13.347   5.251   2.728  1.7089 -1.4902 -0.6323
49696SOL    HW259019  13.269   5.124   2.702  0.0222 -0.5983 -0.0687
49697SOL     OW59020   4.101   3.939   6.536  0.4626  0.5289 -0.8141
49697SOL    HW159021   4.116   3.956   6.443  1.6017  0.7460 -0.6042
49697SOL    HW259022   4.044   4.012   6.564 -0.0299  0.3669 -1.3669
49698SOL     OW59023  13.221   1.834   6.014 -0.2650 -0.2818 -0.0511
49698SOL    HW159024  13.144   1.810   5.963  0.6191 -0.2209 -1.4715
49698SOL    HW259025  13.282   1.762   6.000  1.6488  1.6442 -2.7255
49699SOL     OW59026   2.187   4.585  11.731 -0.1990 -0.8240 -0.1122
49699SOL    HW159027   2.219   4.513  11.784  1.1767 -0.6408 -0.6467
49699SOL    HW259028   2.261   4.646  11.726 -1.6380  1.1650  1.2167
49700SOL     OW59029   6.707  10.007  11.767 -0.3598 -0.5101 -0.1118
49700SOL    HW159030   6.687   9.990  11.859  0.2352  1.2439  0.3867
49700SOL    HW259031   6.622   9.999  11.722 -0.9780  0.2196  0.8777
49701SOL     OW59032   1.813   2.753  12.277  0.3580 -0.3300 -0.1325
49701SOL    HW159033   1.883   2.817  12.294 -0.0426  0.4644 -1.2969
49701SOL    HW259034   1.835   2.718  12.190 -0.2812 -0.6204 -0.1776
49702SOL     OW59035  13.219   8.285   1.200 -0.1039 -0.0594 -0.1612
49702SOL    HW159036  13.229   8.245   1.287  2.4582  1.2874  0.2834
49702SOL    HW259037  13.156   8.356   1.213 -1.1996 -1.0493  0.1047
49703SOL     OW59038   0.371  10.133  12.897  0.2833  0.3649 -0.6232
49703SOL    HW159039   0.306  10.137  12.967  0.7612  0.9255 -0.1990
49703SOL    HW259040   0.446  10.089  12.937  0.0345 -0.6287 -1.2240
49704SOL     OW59041   4.374  11.258   0.622 -0.1392 -0.1793  0.2062
49704SOL    HW159042   4.321  11.309   0.683  0.1382 -0.3322  0.5700
49704SOL    HW259043   4.464  11.286   0.638  0.0995 -1.3129  0.9243
49705SOL     OW59044  12.268   8.167   3.568 -0.0681 -0.3377 -0.1679
49705SOL    HW159045  12.195   8.210   3.612  0.8940  0.4272  0.7133
49705SOL    HW259046  12.278   8.084   3.613 -0.2812 -0.3749 -0.1872
49706SOL     OW59047  11.998   2.255  10.180 -0.5003  0.1169  0.1676
49706SOL    HW159048  12.054   2.206  10.239 -1.2543 -0.6844  0.2465
49706SOL    HW259049  12.040   2.340  10.170  0.1531 -0.1000  1.0529
49707SOL     OW59050   1.632   0.974   4.492  0.1656 -0.4006  0.2785
49707SOL    HW159051   1.676   0.960   4.576  0.9965  1.3685  0.1743
49707SOL    HW259052   1.556   1.028   4.512  1.0317  1.0660 -0.2201
49708SOL     OW59053   4.699  12.318  11.090  0.3895 -0.3566 -0.2678
49708SOL    HW159054   4.627  12.375  11.119  0.0825 -0.7283 -0.2952
49708SOL    HW259055   4.731  12.277  11.171 -0.0076 -0.8603 -0.3624
49709SOL     OW59056  12.349   8.113   2.762 -0.2025  0.1048 -0.3083
49709SOL    HW159057  12.417   8.141   2.701  0.6787  2.0940  1.4743
49709SOL    HW259058  12.267   8.141   2.721  0.3881  1.6012 -0.5105
49710SOL     OW59059   3.724   4.585  12.152  0.3188  0.1680 -0.4066
49710SOL    HW159060   3.736   4.503  12.106 -0.9149  0.0890 -0.6319
49710SOL    HW259061   3.709   4.650  12.083 -0.8445  0.1719 -0.1784
49711SOL     OW59062  13.130   4.655   8.783  0.5925  0.0039  0.6564
49711SOL    HW159063  13.191   4.669   8.711 -0.0838 -1.0264 -0.1386
49711SOL    HW259064  13.060   4.718   8.769 -0.3191 -1.2124 -0.5051
49712SOL     OW59065  12.128  10.705   7.240  0.6544  0.1043  0.1446
49712SOL    HW159066  12.110  10.704   7.146 -2.5691 -0.9855  0.6402
49712SOL    HW259067  12.158  10.794   7.258 -0.7872  0.9957 -1.5882
49713SOL     OW59068   6.305   8.607   0.452 -0.4309 -0.4963  0.4053
49713SOL    HW159069   6.228   8.662   0.444 -0.2124 -0.4731 -2.0208
49713SOL    HW259070   6.308   8.556   0.371  1.2216 -1.6734  1.1321
49714SOL     OW59071   0.577   8.152   1.370 -0.4764  0.4437 -0.2238
49714SOL    HW159072   0.649   8.139   1.433  0.0268  1.1204 -0.6549
49714SOL    HW259073   0.569   8.247   1.362  0.0374  0.3691 -1.8336
49715SOL     OW59074  11.197   9.124   7.328  0.1122  0.0792  0.9557
49715SOL    HW159075  11.149   9.170   7.397 -2.9618 -0.9487 -0.3102
49715SOL    HW259076  11.137   9.054   7.301  2.6211 -1.6520 -0.4578
49716SOL     OW59077   4.177  12.240   2.337  0.0946 -0.3340 -0.2166
49716SOL    HW159078   4.213  12.173   2.395  2.2792  0.8852 -0.0485
49716SOL    HW259079   4.124  12.296   2.395  0.1236 -0.6040  0.0761
49717SOL     OW59080   8.341   1.737  11.920 -0.0487 -0.4540 -0.1158
49717SOL    HW159081   8.260   1.722  11.969 -0.2670  0.5479 -0.1400
49717SOL    HW259082   8.384   1.652  11.918 -2.3768 -1.7425 -2.4399
49718SOL     OW59083   3.265   4.277   7.988 -0.0384  0.0900 -0.5764
49718SOL    HW159084   3.256   4.336   7.913 -0.4651 -0.3252 -0.8551
49718SOL    HW259085   3.347   4.230   7.971  0.8671  1.3261  0.1706
49719SOL     OW59086   2.445   3.542  11.494  0.3194 -0.1095 -0.4511
49719SOL    HW159087   2.450   3.635  11.472  0.3186 -0.3293 -1.4079
49719SOL    HW259088   2.508   3.531  11.565  1.5384  0.3187 -1.4323
49720SOL     OW59089   3.929   5.268   8.277  0.3415 -0.0083  0.2581
49720SOL    HW159090   3.977   5.186   8.273  0.6171 -0.0295  2.4911
49720SOL    HW259091   3.842   5.243   8.310  0.0818  0.4854 -0.0351
49721SOL     OW59092   9.294   6.053   1.544  0.2258  0.5948  0.2045
49721SOL    HW159093   9.254   5.969   1.569 -1.9724  0.9549 -1.7338
49721SOL    HW259094   9.383   6.048   1.578 -0.8270 -1.1104  3.1005
49722SOL     OW59095   6.656  11.834   3.661 -0.3799 -0.1148 -0.1646
49722SOL    HW159096   6.727  11.806   3.719  0.4339  0.3280 -0.9208
49722SOL    HW259097   6.700  11.888   3.594 -1.3375 -0.3192 -0.9808
49723SOL     OW59098   8.152   0.672   4.637 -0.1703 -0.3508  0.0225
49723SOL    HW159099   8.078   0.699   4.582 -2.2475  0.9666  3.1355
49723SOL    HW259100   8.217   0.741   4.625 -0.9401  0.3578 -0.2086
49724SOL     OW59101   7.024  12.608   0.821 -0.3379 -0.4336  0.2621
49724SOL    HW159102   6.942  12.610   0.870 -1.8313  1.2617 -2.0892
49724SOL    HW259103   6.998  12.586   0.731  2.0000 -1.3446 -0.2659
49725SOL     OW59104   0.883   2.008   2.655 -0.5368 -0.4193  0.3365
49725SOL    HW159105   0.962   1.955   2.656 -0.4048 -0.2448 -0.3067
49725SOL    HW259106   0.881   2.046   2.567  0.6397  2.5096  1.4488
49726SOL     OW59107   2.811  10.314   9.676  0.4417 -0.6273 -0.3355
49726SOL    HW159108   2.772  10.227   9.684 -1.8323  0.3011 -0.7547
49726SOL    HW259109   2.790  10.343   9.588  0.4094  0.6934  0.0777
49727SOL     OW59110   4.287  11.654   1.501 -0.1264 -0.0843 -0.9609
49727SOL    HW159111   4.314  11.649   1.592 -0.3148  0.3570 -0.8783
49727SOL    HW259112   4.280  11.563   1.473  1.7448 -0.2332 -1.0846
49728SOL     OW59113   3.434   1.865   3.291 -0.1498  0.1885  0.4179
49728SOL    HW159114   3.433   1.868   3.195 -2.1509 -0.3567  0.3862
49728SOL    HW259115   3.513   1.914   3.315 -0.4079  1.6556 -1.4598
49729SOL     OW59116   0.827   2.454   8.371 -0.4148  0.4691 -0.0786
49729SOL    HW159117   0.813   2.390   8.301 -1.9575  0.6364  0.0379
49729SOL    HW259118   0.863   2.530   8.326  0.4694 -0.1174 -0.3775
49730SOL     OW59119   8.178   8.819   8.936 -0.5511  0.2912 -0.0863
49730SOL    HW159120   8.237   8.864   8.997  0.8771 -2.1955  0.5439
49730SOL    HW259121   8.091   8.843   8.966  0.1102  2.1089  0.5506
49731SOL     OW59122   6.555   5.912   3.293 -0.2782  0.1635 -0.9574
49731SOL    HW159123   6.625   5.884   3.352 -2.3257 -1.6754  0.7646
49731SOL    HW259124   6.589   5.991   3.251  3.1508 -1.1353 -0.9199
49732SOL     OW59125   5.531   4.106   1.458 -0.3369 -0.1607 -0.4553
49732SOL    HW159126   5.590   4.087   1.530 -0.2728  0.1442 -0.4283
49732SOL    HW259127   5.464   4.162   1.496 -0.4371 -0.1980 -0.5761
49733SOL     OW59128   1.397   0.472   6.792 -0.0537 -0.4830 -0.1541
49733SOL    HW159129   1.343   0.538   6.749 -1.6904 -1.0787  0.9165
49733SOL    HW259130   1.395   0.496   6.885  0.9299 -0.9539  0.0074
49734SOL     OW59131  10.394   0.278   1.840  0.0441  0.1979 -0.0371
49734SOL    HW159132  10.426   0.191   1.817 -1.0818 -0.2097 -0.0877
49734SOL    HW259133  10.447   0.303   1.916 -0.6737 -1.1840  0.9518
49735SOL     OW59134  13.065   9.180   6.069 -0.6024 -0.2570 -0.4383
49735SOL    HW159135  13.073   9.134   6.153  0.9704  2.5699  1.1133
49735SOL    HW259136  13.140   9.149   6.018  0.6534  0.7673  0.7254
49736SOL     OW59137  11.859   3.339  11.728 -0.2454 -0.1637  0.1481
49736SOL    HW159138  11.947   3.303  11.713 -0.2859 -0.6781  1.1060
49736SOL    HW259139  11.815   3.274  11.782 -1.4100 -0.1539 -0.7555
49737SOL     OW59140   7.919   1.675   5.141 -0.6401  0.0109 -0.0752
49737SOL    HW159141   7.866   1.615   5.193  0.0139  0.4902  1.1781
49737SOL    HW259142   7.857   1.710   5.076 -1.4121 -0.7872  0.1996
49738SOL     OW59143   6.674  11.789   5.023 -0.7419  0.1033  0.0664
49738SOL    HW159144   6.691  11.697   5.041 -0.1541 -0.4540 -2.8234
49738SOL    HW259145   6.619  11.789   4.944  1.5450  2.1922 -1.6851
49739SOL     OW59146   1.718   5.299  12.891 -0.0977  0.0431 -0.3196
49739SOL    HW159147   1.753   5.255  12.969 -0.5855  0.5499  0.1978
49739SOL    HW259148   1.691   5.228  12.834  1.1708 -0.3533 -0.4589
49740SOL     OW59149   7.618   0.389  12.957  0.4798  0.1313 -0.0403
49740SOL    HW159150   7.676   0.374  13.031 -1.1984 -0.0214  1.3123
49740SOL    HW259151   7.651   0.333  12.887  1.8878  0.0150  0.7050
49741SOL     OW59152  11.002   3.540   1.387 -0.5422  0.3574  0.1170
49741SOL    HW159153  11.048   3.560   1.468 -0.6340 -0.6029  0.4268
49741SOL    HW259154  10.937   3.474   1.412 -1.2661  0.8057 -0.5464
49742SOL     OW59155   3.538   2.632  11.272 -0.4453  0.9671  0.0961
49742SOL    HW159156   3.538   2.583  11.190 -0.0847  1.1307 -0.0054
49742SOL    HW259157   3.446   2.649  11.290 -0.5739  0.2472  0.1374
49743SOL     OW59158   2.021  13.027   8.461  0.3042  0.7936  0.0962
49743SOL    HW159159   2.012  13.112   8.503 -0.9882  2.5482 -3.3285
49743SOL    HW259160   2.115  13.019   8.443  0.5324  1.1418  1.0755
49744SOL     OW59161   8.424  12.415   5.307 -0.6138  0.3524  0.5570
49744SOL    HW159162   8.434  12.433   5.213  2.3206  0.7566  0.8346
49744SOL    HW259163   8.422  12.320   5.313 -0.6522  0.3209  0.0729
49745SOL     OW59164   4.862   6.460  11.487 -0.1920 -0.1644 -0.0482
49745SOL    HW159165   4.875   6.367  11.468  2.9285  0.1318  0.0305
49745SOL    HW259166   4.864   6.466  11.582  1.0799  0.1013 -0.0779
49746SOL     OW59167   9.656   1.075   9.746 -0.0167  0.0674  0.2317
49746SOL    HW159168   9.610   1.058   9.828 -0.3004 -2.5105 -0.3944
49746SOL    HW259169   9.614   1.018   9.682  0.8900  1.2365 -1.5016
49747SOL     OW59170   5.334   8.211   8.729  0.0800 -0.4349 -0.2434
49747SOL    HW159171   5.327   8.266   8.807  2.2238  0.2013 -0.4232
49747SOL    HW259172   5.283   8.132   8.749  0.2191 -0.0774  1.6126
49748SOL     OW59173   3.469   5.271  11.426  0.1276  0.1258  0.4673
49748SOL    HW159174   3.433   5.358  11.443  1.3663  0.6132  0.6783
49748SOL    HW259175   3.480   5.267  11.331  0.3594  0.3234  0.4848
49749SOL     OW59176  12.367  13.031  10.604 -0.1473  0.1580 -0.0321
49749SOL    HW159177  12.294  13.060  10.550  0.0737  1.1363  0.1689
49749SOL    HW259178  12.427  12.988  10.543 -0.0632  0.9391 -0.5191
49750SOL     OW59179   2.046   4.288   7.419  0.0531 -0.5046 -0.1255
49750SOL    HW159180   2.113   4.327   7.363 -0.4505 -0.9225 -1.0521
49750SOL    HW259181   2.044   4.343   7.497  1.8602 -0.8113  0.1768
49751SOL     OW59182   7.985  10.687  10.806  0.3186 -0.0368  0.5072
49751SOL    HW159183   7.937  10.757  10.850 -0.3004 -0.4562  0.5027
49751SOL    HW259184   8.046  10.733  10.748 -1.0476  0.4974 -0.5385
49752SOL     OW59185   8.609  10.874   3.777  0.0199 -0.1720  0.2984
49752SOL    HW159186   8.631  10.961   3.811 -1.3150  0.8030 -1.1631
49752SOL    HW259187   8.514  10.868   3.785 -0.0842 -0.8172 -1.1056
49753SOL     OW59188  11.275   2.488  12.790  0.1879  0.2876  0.7021
49753SOL    HW159189  11.355   2.437  12.778  0.7544  0.7496  2.2698
49753SOL    HW259190  11.243   2.463  12.877 -1.7921 -0.4006 -0.1416
49754SOL     OW59191  11.730  11.112   2.334 -0.3657 -0.7931 -0.3522
49754SOL    HW159192  11.728  11.203   2.364  0.4837 -0.6882 -0.6090
49754SOL    HW259193  11.713  11.118   2.240 -0.4142 -0.9129 -0.3512
49755SOL     OW59194  12.438   3.751  10.071 -0.5005 -0.0429  0.4153
49755SOL    HW159195  12.453   3.817  10.003 -0.3325  1.7825  2.1200
49755SOL    HW259196  12.523   3.708  10.082 -0.2017  0.5109  0.3144
49756SOL     OW59197   5.401   5.265   6.821 -0.1058  0.2509 -0.1045
49756SOL    HW159198   5.343   5.204   6.775 -0.1408 -0.3299  0.6797
49756SOL    HW259199   5.457   5.302   6.752 -0.0945 -0.6600 -0.5999
49757SOL     OW59200  13.042   3.593   8.289 -0.6104 -0.6476 -0.4983
49757SOL    HW159201  13.107   3.524   8.305 -0.2500  0.1456  1.8404
49757SOL    HW259202  13.056   3.619   8.198  0.8563 -2.0143 -0.6981
49758SOL     OW59203  13.246   5.529  11.856 -0.6806  0.1031  0.1342
49758SOL    HW159204  13.290   5.444  11.857 -0.1588  0.3562 -0.6168
49758SOL    HW259205  13.247   5.556  11.764  0.7635  1.7146  0.5590
49759SOL     OW59206   9.503  12.638   9.550 -0.3505 -0.2875  0.1862
49759SOL    HW159207   9.488  12.706   9.485 -1.9813 -0.5009  0.2934
49759SOL    HW259208   9.542  12.566   9.501 -1.1434 -0.2778 -0.4722
49760SOL     OW59209   0.440   7.857   9.329 -0.0766 -0.1023 -0.3001
49760SOL    HW159210   0.389   7.781   9.358  1.7931 -1.3925 -0.2415
49760SOL    HW259211   0.402   7.881   9.245 -0.1815 -1.6392 -0.7094
49761SOL     OW59212   4.085   9.722   0.946  0.4476 -1.0826 -0.3426
49761SOL    HW159213   4.062   9.811   0.973 -0.7683 -1.3605 -0.3688
49761SOL    HW259214   4.068   9.721   0.852 -0.1984 -1.5202 -0.2276
49762SOL     OW59215   3.602   6.667  10.465 -0.0629 -0.5463  0.1701
49762SOL    HW159216   3.629   6.743  10.517 -1.8355 -0.3074  0.7922
49762SOL    HW259217   3.683   6.639  10.421  1.3495 -0.2583  2.3910
49763SOL     OW59218   1.895   1.391   8.886 -0.0111 -0.3240  0.2827
49763SOL    HW159219   1.967   1.375   8.825  0.3760 -0.0617  0.6627
49763SOL    HW259220   1.917   1.338   8.963  0.1767  0.3450  0.6995
49764SOL     OW59221  12.114   4.511   4.737  0.7321  0.5044 -1.0313
49764SOL    HW159222  12.078   4.475   4.656  0.8966 -0.4709 -0.6776
49764SOL    HW259223  12.176   4.578   4.707 -0.2675  1.1829 -1.6716
49765SOL     OW59224   0.279   4.237   8.880  0.2581  0.4758 -0.4012
49765SOL    HW159225   0.293   4.163   8.822 -0.6752 -0.0262  0.0021
49765SOL    HW259226   0.228   4.202   8.953  1.5514  1.0415  0.8373
49766SOL     OW59227   8.888  12.322   3.778 -0.3889 -0.8318 -0.4712
49766SOL    HW159228   8.908  12.274   3.697  0.7428  0.6558 -1.1384
49766SOL    HW259229   8.812  12.376   3.756 -0.2640 -0.6497 -0.4619
49767SOL     OW59230   1.600  12.364  11.394  0.5334 -0.0527 -0.0716
49767SOL    HW159231   1.641  12.438  11.349  0.1490  0.5249  0.5300
49767SOL    HW259232   1.506  12.378  11.384  0.4529 -0.9982 -0.8201
49768SOL     OW59233  10.339   2.017   0.559  0.4317  0.0896 -0.1323
49768SOL    HW159234  10.432   2.033   0.579  0.7542 -1.8092  0.0657
49768SOL    HW259235  10.292   2.073   0.621  1.4619 -1.5367  2.2819
49769SOL     OW59236  10.080   6.103   4.071 -1.0920  0.3271  0.3482
49769SOL    HW159237  10.170   6.069   4.071 -0.4117  1.8747 -2.1031
49769SOL    HW259238  10.090   6.194   4.099 -1.3561  1.4409 -2.8033
49770SOL     OW59239   3.735   3.917   8.091 -0.0506  0.5375 -0.4317
49770SOL    HW159240   3.783   3.996   8.115 -0.1140  0.9407 -1.5569
49770SOL    HW259241   3.657   3.949   8.044 -0.2387 -0.1710 -0.6197
49771SOL     OW59242   3.554   8.309   2.846  0.3535 -0.3238 -0.0300
49771SOL    HW159243   3.638   8.267   2.829  0.4980 -0.9008  1.9269
49771SOL    HW259244   3.576   8.387   2.897  0.0156  1.8665 -2.9649
49772SOL     OW59245   5.458   5.877   0.798  0.6923 -0.3117 -0.1119
49772SOL    HW159246   5.505   5.915   0.873 -1.1989  0.4636  0.7539
49772SOL    HW259247   5.434   5.789   0.827  1.3402 -0.6049 -0.4462
49773SOL     OW59248   0.637  13.075   8.842  0.8685  0.0201 -0.4519
49773SOL    HW159249   0.559  13.024   8.821  0.5077 -0.4577  1.8067
49773SOL    HW259250   0.648  13.134   8.767 -2.1406  0.6731 -0.5153
49774SOL     OW59251  12.809   5.777   7.314  0.0446 -0.3295 -0.9704
49774SOL    HW159252  12.778   5.749   7.400  2.7343  4.0941  1.8019
49774SOL    HW259253  12.730   5.805   7.268 -1.2215 -0.2186  1.1663
49775SOL     OW59254   7.126   5.000   3.225 -0.1691 -0.1988  0.4279
49775SOL    HW159255   7.212   5.028   3.191 -0.3296 -0.2958 -0.0695
49775SOL    HW259256   7.114   4.912   3.189 -0.4384 -0.2215  0.5738
49776SOL     OW59257   9.632   9.217  12.404  0.2367  0.2450  0.4816
49776SOL    HW159258   9.715   9.197  12.447 -0.3188  1.1794  2.1191
49776SOL    HW259259   9.627   9.313  12.405  0.5873  0.3978 -2.5933
49777SOL     OW59260   6.086   7.775   9.090 -0.2521 -0.3738 -0.1970
49777SOL    HW159261   6.002   7.808   9.060  0.0617 -1.7198 -2.8517
49777SOL    HW259262   6.078   7.680   9.082  1.4084 -0.5343 -0.2259
49778SOL     OW59263   9.591   5.231  11.219 -0.3190  0.2507  0.5179
49778SOL    HW159264   9.522   5.298  11.211 -0.3340  0.0444 -2.3975
49778SOL    HW259265   9.672   5.280  11.206 -0.2037 -0.0162  0.2268
49779SOL     OW59266   5.438   7.136  12.111  0.2707  0.1473  0.2227
49779SOL    HW159267   5.486   7.195  12.054  0.1186 -0.4330 -0.5225
49779SOL    HW259268   5.505   7.094  12.165  0.6407 -0.7315 -0.8771
49780SOL     OW59269   7.748   7.074   9.150  0.7334  0.0864 -0.4688
49780SOL    HW159270   7.718   7.007   9.090  0.9531 -0.2834 -0.1678
49780SOL    HW259271   7.839   7.052   9.170  0.5629 -0.0051  0.2684
49781SOL     OW59272   1.600   9.938  10.523 -0.1609  0.3364 -0.2115
49781SOL    HW159273   1.581  10.018  10.473 -1.3816  0.8887  1.0446
49781SOL    HW259274   1.691   9.946  10.549  0.2770  0.3989 -1.6574
49782SOL     OW59275  10.138  13.106   8.800 -0.2507 -0.2691  0.3073
49782SOL    HW159276  10.055  13.132   8.759 -0.6387 -1.8321  0.0641
49782SOL    HW259277  10.124  13.016   8.828  1.5135 -0.7070 -0.1061
49783SOL     OW59278   2.494  11.161   7.882 -0.1546 -0.5609 -0.3913
49783SOL    HW159279   2.404  11.161   7.850 -0.2984 -0.2653 -0.0049
49783SOL    HW259280   2.488  11.125   7.971  0.2170 -1.2401 -0.6337
49784SOL     OW59281   7.240  11.483   2.136  0.2449 -0.2543 -0.3699
49784SOL    HW159282   7.299  11.452   2.205  1.7130 -0.4140 -1.6345
49784SOL    HW259283   7.284  11.560   2.100 -1.0913  0.5502 -0.3598
49785SOL     OW59284  12.006   3.834  12.825 -0.5495  0.3289  0.1848
49785SOL    HW159285  11.913   3.813  12.833 -0.6481  0.8181  0.3642
49785SOL    HW259286  12.049   3.749  12.816 -1.1827  0.1698 -1.7719
49786SOL     OW59287   6.934   7.152  11.292  0.3686  0.4409  0.7470
49786SOL    HW159288   6.898   7.078  11.342 -2.4154  1.0791 -0.1235
49786SOL    HW259289   6.911   7.229  11.344 -2.2590  1.0909 -1.1387
49787SOL     OW59290  12.300   2.141   0.281 -0.1652  0.2220  0.5229
49787SOL    HW159291  12.219   2.137   0.231 -0.0501  0.6080  0.3039
49787SOL    HW259292  12.272   2.131   0.372 -0.2704 -1.5931  0.3192
49788SOL     OW59293   2.030  11.414   3.648  0.4182 -0.0354  0.2710
49788SOL    HW159294   1.945  11.453   3.671 -0.0420 -1.8636  2.0150
49788SOL    HW259295   2.013  11.367   3.567 -0.2460 -0.3177  0.5582
49789SOL     OW59296   9.535   8.648  10.370 -0.1085 -0.3063 -0.0969
49789SOL    HW159297   9.528   8.560  10.331  0.7127 -0.2844 -0.3080
49789SOL    HW259298   9.507   8.636  10.461  0.2801 -0.8503 -0.0436
49790SOL     OW59299   3.681   3.038   3.972 -0.2251  0.0841  0.0022
49790SOL    HW159300   3.707   2.963   4.026  0.7541 -1.8235 -2.8372
49790SOL    HW259301   3.758   3.095   3.972  0.8791 -1.2913 -1.4530
49791SOL     OW59302  13.025   4.711  10.101  0.0675 -0.6795 -0.8428
49791SOL    HW159303  12.991   4.697  10.189 -1.5589 -0.0543 -1.3345
49791SOL    HW259304  13.119   4.699  10.109 -0.0438 -0.5200  0.9939
49792SOL     OW59305  10.698   5.323   2.710  0.2946  0.2759 -0.0703
49792SOL    HW159306  10.721   5.341   2.619 -0.1981 -0.0346 -0.2600
49792SOL    HW259307  10.777   5.284   2.748  0.9350  1.5673 -0.0145
49793SOL     OW59308  12.211   9.086  11.212 -0.4252 -0.4221  0.3396
49793SOL    HW159309  12.286   9.027  11.222 -0.6637 -0.7271  0.3037
49793SOL    HW259310  12.213   9.141  11.290 -1.1639 -1.5521  1.1684
49794SOL     OW59311   2.231  12.719   8.376 -0.2479  0.6051  0.2689
49794SOL    HW159312   2.251  12.803   8.417 -0.6535  0.8722 -0.0707
49794SOL    HW259313   2.153  12.736   8.324 -0.0127  0.1478 -0.2364
49795SOL     OW59314   6.641   4.495   8.017 -0.1658  0.1512 -0.0097
49795SOL    HW159315   6.611   4.573   7.969  1.0683 -0.8852 -2.6310
49795SOL    HW259316   6.564   4.438   8.021 -1.2934  1.6605  2.5667
49796SOL     OW59317  11.073  11.421   6.283  0.3450 -0.3551  0.6438
49796SOL    HW159318  10.986  11.459   6.270  0.0554 -1.1660  0.1615
49796SOL    HW259319  11.057  11.332   6.315  1.0099 -0.2819  1.2341
49797SOL     OW59320   3.628   6.539   1.687 -0.2638  0.0054  0.1525
49797SOL    HW159321   3.572   6.465   1.710  0.8629 -0.8813  0.1097
49797SOL    HW259322   3.567   6.613   1.678 -1.8608 -1.4917 -2.8702
49798SOL     OW59323   4.588   9.537   7.562 -0.4388  0.5800  0.3272
49798SOL    HW159324   4.580   9.632   7.572  0.1505  0.5909  0.8318
49798SOL    HW259325   4.505   9.509   7.525  0.2587  1.5951 -2.2223
49799SOL     OW59326  11.838   9.046   4.071 -0.1337  0.3082  0.0009
49799SOL    HW159327  11.798   9.075   4.153 -0.0816  0.9636 -0.1944
49799SOL    HW259328  11.868   8.957   4.088 -0.3778  0.3370  0.6016
49800SOL     OW59329  10.782   3.924  12.218 -0.0918  0.3876 -0.4440
49800SOL    HW159330  10.792   3.957  12.128  1.9503 -0.1379 -0.4755
49800SOL    HW259331  10.845   3.852  12.223  0.3694  0.8692  1.6259
49801SOL     OW59332   4.022  11.903   0.934  0.2430 -0.6660 -0.2057
49801SOL    HW159333   3.976  11.956   0.868  0.9294 -0.1671 -0.2924
49801SOL    HW259334   4.045  11.966   1.003 -0.3256 -1.1537  0.4474
49802SOL     OW59335   3.941   7.755  10.393 -0.4188 -0.0818  0.2450
49802SOL    HW159336   3.869   7.692  10.402 -0.1132 -0.3833  0.6431
49802SOL    HW259337   3.931   7.792  10.305  0.2578 -1.7582 -0.5746
49803SOL     OW59338  10.932   9.995   0.281  0.2909 -0.1346 -0.4180
49803SOL    HW159339  10.864  10.016   0.346  0.5997 -1.6684  0.4490
49803SOL    HW259340  11.011   9.981   0.333  1.1857  1.1156 -1.3767
49804SOL     OW59341  12.936   2.088  11.509 -0.1082  0.1351  0.3588
49804SOL    HW159342  12.871   2.040  11.458 -0.9469  1.2292  0.3487
49804SOL    HW259343  12.894   2.172  11.528  1.1121  0.6686  0.8105
49805SOL     OW59344   6.598   2.250   4.607 -0.5383 -0.1078 -0.2493
49805SOL    HW159345   6.669   2.244   4.543 -0.4253  1.1125 -0.2781
49805SOL    HW259346   6.532   2.188   4.576 -0.4953  0.4727 -1.5805
49806SOL     OW59347  12.329  10.160   0.687  0.6459  0.3029  0.7053
49806SOL    HW159348  12.275  10.162   0.608 -0.1596 -3.5243  0.9971
49806SOL    HW259349  12.398  10.097   0.668  0.1885 -1.0365  3.1539
49807SOL     OW59350  11.383  11.003  10.829 -0.7867  0.2125 -0.2051
49807SOL    HW159351  11.309  10.952  10.795  0.5790 -2.3262  0.3994
49807SOL    HW259352  11.433  10.941  10.882  2.1091  1.6137 -1.0581
49808SOL     OW59353   0.706  11.462   8.613 -0.1487  0.3747  0.0889
49808SOL    HW159354   0.730  11.373   8.637  0.9783  1.1231  2.0315
49808SOL    HW259355   0.694  11.460   8.518 -0.8103 -1.9522  0.1757
49809SOL     OW59356   4.481   0.886   4.946  0.1164  0.0110  0.0706
49809SOL    HW159357   4.393   0.860   4.921  0.2445 -1.6523  1.2161
49809SOL    HW259358   4.469   0.947   5.019 -0.0975  0.6871 -0.5200
49810SOL     OW59359  12.348   3.829   0.797 -0.2421 -0.0584  0.9057
49810SOL    HW159360  12.436   3.828   0.758 -0.4149 -0.3748  0.5188
49810SOL    HW259361  12.290   3.808   0.724 -0.5316 -1.1210  1.4295
49811SOL     OW59362   4.941   4.407  13.208  0.1793 -0.0742 -0.2532
49811SOL    HW159363   4.905   4.480  13.259  1.6496  0.8216 -0.4118
49811SOL    HW259364   4.945   4.440  13.118 -1.4439 -1.2778 -0.8033
49812SOL     OW59365   1.067   9.673   0.787  0.1427  0.6351 -0.4678
49812SOL    HW159366   1.124   9.629   0.850 -1.0884  0.7177  0.7486
49812SOL    HW259367   1.087   9.631   0.703  2.8914  1.5342 -0.3711
49813SOL     OW59368   8.560   8.315   7.464 -0.3480 -0.2651  0.3241
49813SOL    HW159369   8.636   8.373   7.461 -0.3949 -0.2275 -0.1548
49813SOL    HW259370   8.597   8.227   7.470 -0.2748 -0.2055  0.7755
49814SOL     OW59371   2.324   4.339   4.307  0.0853  0.3393  0.5764
49814SOL    HW159372   2.344   4.347   4.400  0.3279  2.9514  0.3723
49814SOL    HW259373   2.405   4.364   4.263 -0.5435  0.8703 -0.3107
49815SOL     OW59374   8.905   6.396   7.706  0.5205  0.9299 -0.0060
49815SOL    HW159375   8.975   6.334   7.725  0.0078  0.5584  0.7034
49815SOL    HW259376   8.949   6.481   7.704  0.8966  0.7708  1.0349
49816SOL     OW59377  11.281   8.180  12.211  0.6325  0.3646 -0.0092
49816SOL    HW159378  11.327   8.172  12.294  0.0557  1.0578  0.3884
49816SOL    HW259379  11.271   8.274  12.197 -0.0771  0.2436 -0.4095
49817SOL     OW59380   2.001  11.611   9.762 -0.0730  0.2445 -0.8625
49817SOL    HW159381   2.063  11.584   9.694  1.7857 -1.4352  1.3362
49817SOL    HW259382   2.051  11.668   9.820 -0.9400 -0.1301  0.2942
49818SOL     OW59383   5.126   1.537  10.399 -0.0094 -0.7882  0.0088
49818SOL    HW159384   5.135   1.491  10.483  1.0361 -0.4696  0.0938
49818SOL    HW259385   5.082   1.474  10.342 -2.5644 -0.2964  1.3272
49819SOL     OW59386  10.880  10.778   9.415  0.0389  0.2466 -0.1936
49819SOL    HW159387  10.798  10.729   9.406 -0.4630  0.9612  0.3426
49819SOL    HW259388  10.911  10.756   9.503  1.2891 -1.2785 -0.9599
49820SOL     OW59389  10.157   2.242  11.173  0.5905  0.4024 -0.0123
49820SOL    HW159390  10.247   2.211  11.171  0.8375  1.0138  0.8911
49820SOL    HW259391  10.142   2.278  11.085  0.6371 -1.2292 -0.7287
49821SOL     OW59392   2.436   1.776  10.718  0.0334  0.1288 -0.5435
49821SOL    HW159393   2.460   1.857  10.762  0.7288 -0.3263 -0.0689
49821SOL    HW259394   2.368   1.738  10.773 -1.6898  1.2881 -1.7518
49822SOL     OW59395  12.165   2.464   0.352  0.4189 -0.2001  0.3224
49822SOL    HW159396  12.176   2.536   0.290 -0.8279 -0.0911  0.1989
49822SOL    HW259397  12.141   2.389   0.297 -1.6506  0.1249  0.7117
49823SOL     OW59398  10.705   9.893   9.901 -0.6174 -0.7576 -0.4863
49823SOL    HW159399  10.781   9.880   9.844 -0.0272 -1.7662  0.4964
49823SOL    HW259400  10.647   9.950   9.851  0.6598 -0.2072 -1.3715
49824SOL     OW59401   2.342   3.319   4.199  0.5368  0.2438  0.3095
49824SOL    HW159402   2.376   3.376   4.131 -0.9333 -1.7544 -2.2915
49824SOL    HW259403   2.269   3.368   4.238 -1.8093 -0.3007 -3.0181
49825SOL     OW59404   7.155   3.230   7.843 -0.0989  0.0346 -0.1013
49825SOL    HW159405   7.073   3.248   7.798  0.0252  0.8695 -0.0043
49825SOL    HW259406   7.155   3.135   7.856 -1.2741  0.0866  0.3389
49826SOL     OW59407   3.754   7.805   5.795 -0.3246  0.2865  0.3391
49826SOL    HW159408   3.817   7.737   5.773  1.7758  1.8659  1.1637
49826SOL    HW259409   3.682   7.758   5.838  0.2198 -1.5667 -0.6895
49827SOL     OW59410   3.067   5.741   2.539 -0.6032 -0.5668  0.1978
49827SOL    HW159411   3.064   5.813   2.476 -1.2154  0.0683  0.9354
49827SOL    HW259412   3.120   5.674   2.496  1.2563  0.8875  0.0914
49828SOL     OW59413   3.102   6.526   3.539 -0.0694  0.4791  0.2967
49828SOL    HW159414   3.113   6.607   3.589  0.5419  0.8344 -0.3905
49828SOL    HW259415   3.027   6.543   3.483  1.1243  1.2766 -1.1399
49829SOL     OW59416   2.924   0.590  10.137  0.4772 -0.4675  0.2848
49829SOL    HW159417   2.841   0.616  10.179  0.3360 -0.0374 -0.2447
49829SOL    HW259418   2.897   0.535  10.063  0.4842  1.6797 -1.3986
49830SOL     OW59419   4.102   0.746  10.201 -0.4604 -0.0881  0.6092
49830SOL    HW159420   4.049   0.714  10.275 -0.3755  2.1853  1.7502
49830SOL    HW259421   4.135   0.831  10.231  0.3488  0.4784 -1.7175
49831SOL     OW59422   1.843   0.722   5.029  0.0114 -0.4177 -0.3754
49831SOL    HW159423   1.767   0.711   4.973 -0.5025  0.1705  0.1894
49831SOL    HW259424   1.816   0.690   5.115 -0.5036  2.0970  0.5037
49832SOL     OW59425  10.631   2.589   0.040  0.5753  0.0335 -0.0003
49832SOL    HW159426  10.597   2.679   0.037  0.6929  0.0710 -0.1888
49832SOL    HW259427  10.602   2.556   0.125 -0.5458 -0.1755 -0.4483
49833SOL     OW59428  12.248  13.027   0.820 -0.3841 -0.9864  0.0391
49833SOL    HW159429  12.263  13.031   0.726  1.1269 -0.2179  0.2882
49833SOL    HW259430  12.238  12.934   0.839  0.6359 -1.2606 -0.6930
49834SOL     OW59431   0.659   2.185   5.836 -0.0285  0.4314  0.1077
49834SOL    HW159432   0.655   2.092   5.813 -0.9288  0.8501 -1.5628
49834SOL    HW259433   0.715   2.188   5.914  1.8089 -1.2896 -1.0474
49835SOL     OW59434   8.063  11.222   8.335 -0.1670  0.2007  0.6809
49835SOL    HW159435   8.124  11.170   8.388  0.8737  0.5680 -0.1281
49835SOL    HW259436   8.042  11.297   8.390 -0.8464 -0.5078  1.4315
49836SOL     OW59437   9.678   5.622  11.082 -0.4237 -0.5683 -0.6493
49836SOL    HW159438   9.754   5.566  11.093  0.3712  0.2782 -1.6226
49836SOL    HW259439   9.617   5.594  11.151  1.5925  0.1647  1.5696
49837SOL     OW59440   5.990   0.447   2.094 -0.4578 -0.2383  0.3455
49837SOL    HW159441   5.959   0.448   2.185  2.1715 -0.2147  1.3386
49837SOL    HW259442   6.064   0.386   2.095 -0.8394 -0.8235 -1.9848
49838SOL     OW59443  13.190   2.429   5.368 -0.0890 -0.5754  0.2100
49838SOL    HW159444  13.149   2.468   5.291 -1.1923 -0.9726  0.5666
49838SOL    HW259445  13.262   2.376   5.333  0.8491  1.0206 -0.3443
49839SOL     OW59446   5.588  10.315   6.301  0.2139  0.1751  0.5638
49839SOL    HW159447   5.549  10.285   6.219  0.3489  1.1414  0.1278
49839SOL    HW259448   5.517  10.356   6.349  0.5007  1.2559  0.1027
49840SOL     OW59449   8.075   8.582   9.022  0.5982  0.5923  0.1992
49840SOL    HW159450   8.100   8.664   8.980  2.3094 -0.6319 -1.3049
49840SOL    HW259451   8.070   8.519   8.951  0.8200 -0.9515  1.5005
49841SOL     OW59452  12.619   8.418   4.690  0.1474 -0.5522  0.0096
49841SOL    HW159453  12.674   8.354   4.735 -1.1827 -1.4935  0.3614
49841SOL    HW259454  12.540   8.369   4.666 -0.4745  0.7087 -0.6125
49842SOL     OW59455   8.107   2.274   9.763 -0.1516  0.1983  0.4861
49842SOL    HW159456   8.030   2.317   9.726 -0.2831  0.9284  1.5812
49842SOL    HW259457   8.072   2.202   9.815 -0.0901  0.3961  0.8063
49843SOL     OW59458   0.562   5.702  12.061  0.6925  0.0670 -0.3576
49843SOL    HW159459   0.585   5.788  12.097  2.3876 -0.2910 -0.4961
49843SOL    HW259460   0.563   5.643  12.136  0.3642  0.0207 -0.3896
49844SOL     OW59461   2.395   9.037  10.452 -0.0373 -0.2220  0.7330
49844SOL    HW159462   2.445   9.113  10.481  2.3303 -1.8963  1.3431
49844SOL    HW259463   2.429   9.018  10.364  0.2428 -1.2409  1.0491
49845SOL     OW59464   4.455   5.980  11.651 -0.9088  0.3974 -0.3218
49845SOL    HW159465   4.541   5.946  11.676 -0.5811  1.3694 -0.0818
49845SOL    HW259466   4.469   6.074  11.640 -1.4219  0.2808 -2.5107
49846SOL     OW59467  11.830   6.099   9.194  0.1464  0.0564 -0.3396
49846SOL    HW159468  11.750   6.052   9.215  0.3923 -0.4047 -0.4332
49846SOL    HW259469  11.864   6.056   9.115  0.3927  0.3644 -0.4065
49847SOL     OW59470   6.993   8.725   9.907 -0.5627  0.1804 -0.8081
49847SOL    HW159471   6.969   8.636   9.933  1.8345  0.4011  2.8483
49847SOL    HW259472   7.053   8.713   9.833  0.3639 -1.3857  0.1337
49848SOL     OW59473   1.455   3.119   9.473 -0.2717 -0.0367  0.0404
49848SOL    HW159474   1.463   3.045   9.413  1.2081 -0.7237  1.0205
49848SOL    HW259475   1.521   3.182   9.443 -0.6276  0.3191 -0.0047
49849SOL     OW59476   6.643   8.236   3.703 -0.8778 -0.1982 -0.0253
49849SOL    HW159477   6.730   8.237   3.742 -1.4955  1.9662  1.3962
49849SOL    HW259478   6.610   8.148   3.722 -0.2705  0.0363  2.3458
49850SOL     OW59479  13.160   3.133   7.407  0.3105 -0.4654 -0.0667
49850SOL    HW159480  13.233   3.075   7.427  0.1303 -0.9530 -0.7711
49850SOL    HW259481  13.141   3.178   7.489  1.7783  0.1036 -0.0235
49851SOL     OW59482  13.169   0.927   7.767  0.5314  0.5952  0.7109
49851SOL    HW159483  13.078   0.919   7.737  1.4585  1.6997 -3.0021
49851SOL    HW259484  13.173   1.013   7.808  0.1744  1.2045 -0.4850
49852SOL     OW59485   3.569   5.325  10.461  0.2930 -0.2325  0.1848
49852SOL    HW159486   3.612   5.385  10.522 -3.1160  0.2803  2.3567
49852SOL    HW259487   3.475   5.340  10.475 -0.6983 -1.8756 -3.5197
49853SOL     OW59488   9.328   9.794   7.193 -0.2802  0.0594  0.1695
49853SOL    HW159489   9.278   9.715   7.211 -2.1971  0.9248 -0.9847
49853SOL    HW259490   9.378   9.810   7.274 -0.1159 -2.0939  0.5335
49854SOL     OW59491  11.031  10.383  12.035  0.2989  0.4343  0.3000
49854SOL    HW159492  11.008  10.291  12.042  0.1853  0.5156  1.0574
49854SOL    HW259493  10.968  10.419  11.972  0.1273  0.0761  0.2689
49855SOL     OW59494   1.342  10.928   4.884 -0.3577  0.1583 -0.0394
49855SOL    HW159495   1.410  10.864   4.907  1.0899  1.8627  0.7174
49855SOL    HW259496   1.391  11.010   4.870 -2.0275  0.9140 -1.8985
49856SOL     OW59497   7.903   0.339   2.346 -0.2813 -0.2361 -0.7736
49856SOL    HW159498   7.908   0.262   2.290  2.0135  0.1313 -1.1933
49856SOL    HW259499   7.988   0.341   2.392 -1.1294  0.8460  0.8640
49857SOL     OW59500   9.325  10.164   9.041 -0.7025 -0.5888 -0.2509
49857SOL    HW159501   9.354  10.102   9.108  2.0087  1.8761  1.1111
49857SOL    HW259502   9.304  10.244   9.089  0.0878  0.8734 -2.1613
49858SOL     OW59503   0.315  10.901  12.672 -0.0568  0.2138  0.3416
49858SOL    HW159504   0.305  10.905  12.576 -1.5976  0.6610  0.4970
49858SOL    HW259505   0.348  10.813  12.688 -1.7027 -0.6080 -0.4931
49859SOL     OW59506  10.279   3.632   5.842 -0.1619  0.0389  0.5108
49859SOL    HW159507  10.333   3.680   5.779 -2.1361  0.8609 -0.6274
49859SOL    HW259508  10.257   3.696   5.910 -0.7604  0.0648  0.2947
49860SOL     OW59509   3.347  10.060   4.266 -0.1155  0.3115  0.5762
49860SOL    HW159510   3.296   9.980   4.258  0.2733  0.1289 -0.2327
49860SOL    HW259511   3.409  10.042   4.336 -0.1222 -0.0492  0.4920
49861SOL     OW59512   9.615  10.028   4.750 -0.1414 -0.5132  0.1110
49861SOL    HW159513   9.554   9.980   4.806 -0.1682 -0.4342  0.1501
49861SOL    HW259514   9.596  10.120   4.767  1.1222 -0.4510  1.3912
49862SOL     OW59515   2.475   8.353  10.379  0.0805  0.2423  0.3493
49862SOL    HW159516   2.426   8.424  10.421 -0.1003 -0.7125  1.7940
49862SOL    HW259517   2.413   8.281  10.373 -0.0905  0.5008 -2.1670
49863SOL     OW59518   2.072   8.552   0.491  0.0147 -0.6575 -0.7476
49863SOL    HW159519   2.158   8.516   0.468  1.2864  1.2093  0.7655
49863SOL    HW259520   2.021   8.476   0.519  1.5328 -1.6907 -0.6428
49864SOL     OW59521   3.985   6.749   1.149  0.6812  0.5255 -1.0274
49864SOL    HW159522   3.938   6.782   1.226  0.0355 -1.2419 -0.6260
49864SOL    HW259523   3.957   6.658   1.141  2.0221  0.1981 -2.3780
49865SOL     OW59524   4.241   2.265   0.507  0.7012  0.1426  0.1234
49865SOL    HW159525   4.196   2.216   0.576 -0.5999 -0.4482 -1.0838
49865SOL    HW259526   4.182   2.339   0.488  2.2677  1.8066  1.3816
49866SOL     OW59527   6.091  12.316   6.215  0.1236  0.0082 -0.2828
49866SOL    HW159528   6.084  12.412   6.216  0.9440  0.1197 -2.2361
49866SOL    HW259529   6.012  12.287   6.262  0.2433  1.6221  1.0299
49867SOL     OW59530   6.745  12.749  11.263  0.1195 -0.3104  0.0861
49867SOL    HW159531   6.840  12.760  11.262  0.0925 -0.0493 -1.2389
49867SOL    HW259532   6.727  12.688  11.192 -0.6043 -1.3950  1.1663
49868SOL     OW59533   1.276   5.748   2.973 -0.5782 -0.2690  0.1301
49868SOL    HW159534   1.347   5.684   2.973 -0.4197 -0.1070  1.2095
49868SOL    HW259535   1.206   5.706   3.022 -0.8475 -0.0137 -0.0339
49869SOL     OW59536   4.330   7.243  12.100  0.1087 -0.2908 -0.4560
49869SOL    HW159537   4.256   7.256  12.041 -0.7384  1.0720  0.8413
49869SOL    HW259538   4.382   7.323  12.091  1.5803 -1.3113 -1.4971
49870SOL     OW59539   0.701  11.578   0.791 -0.8656  0.1716 -0.3491
49870SOL    HW159540   0.684  11.555   0.882  0.2465 -1.1002 -0.4236
49870SOL    HW259541   0.711  11.493   0.747 -0.3146  0.7795 -1.4293
49871SOL     OW59542  10.289   4.646   5.099  0.4446 -0.4999  0.0176
49871SOL    HW159543  10.373   4.636   5.143  1.3203  1.0367 -1.1973
49871SOL    HW259544  10.274   4.741   5.096  1.5597 -0.2044 -4.8396
49872SOL     OW59545   2.115   5.708  11.656 -0.7163  0.3622 -0.0678
49872SOL    HW159546   2.037   5.662  11.686 -0.3924  1.4043  2.6480
49872SOL    HW259547   2.172   5.711  11.733  1.3147  1.0868 -1.5096
49873SOL     OW59548  10.293   9.543   1.073 -0.0315 -0.0959 -0.3212
49873SOL    HW159549  10.375   9.527   1.025  0.4307  2.0525 -0.3389
49873SOL    HW259550  10.313   9.521   1.164 -0.7514 -3.6642 -0.8767
49874SOL     OW59551   7.421   0.567  10.280  0.0665  0.2075 -0.1409
49874SOL    HW159552   7.479   0.495  10.254  1.1812  1.2626 -0.7105
49874SOL    HW259553   7.453   0.593  10.367 -2.8141 -2.4504  1.9177
49875SOL     OW59554   6.133   2.860   2.628 -0.6458  0.0956 -0.1027
49875SOL    HW159555   6.055   2.895   2.587 -0.5653  0.0488 -0.2964
49875SOL    HW259556   6.126   2.887   2.720 -2.0212 -1.8203  0.4113
49876SOL     OW59557   7.174   6.945  12.719  0.1023 -0.4929 -0.0273
49876SOL    HW159558   7.085   6.980  12.726 -0.6167 -1.9781 -1.2474
49876SOL    HW259559   7.224   7.016  12.678 -0.5407  0.3242  0.5819
49877SOL     OW59560  10.077   9.463   3.822 -0.5773 -0.4845 -0.2717
49877SOL    HW159561  10.048   9.436   3.734 -0.8805  0.5250 -0.4945
49877SOL    HW259562  10.172   9.452   3.820 -0.6473 -1.0835 -0.5109
49878SOL     OW59563   6.260   3.024  10.264  0.5171 -0.6461  0.1867
49878SOL    HW159564   6.232   2.973  10.187  2.3697 -1.0474 -0.2689
49878SOL    HW259565   6.295   2.959  10.325 -0.7732 -0.3117  1.3413
49879SOL     OW59566  10.013   3.516   6.764  0.0660  0.0857 -0.0935
49879SOL    HW159567  10.098   3.531   6.804  0.4772  2.5070 -1.6414
49879SOL    HW259568  10.029   3.450   6.697  1.2826  1.9107 -1.7113
49880SOL     OW59569   9.899   2.119   2.791 -0.5711  0.1086 -0.3338
49880SOL    HW159570   9.854   2.183   2.846 -0.3325 -0.6988  0.8198
49880SOL    HW259571   9.952   2.068   2.851 -0.3806 -0.8711 -1.3016
49881SOL     OW59572   2.252  12.250   3.746  0.4301 -0.2718 -0.4118
49881SOL    HW159573   2.212  12.337   3.739 -0.7547 -0.6728  0.9398
49881SOL    HW259574   2.340  12.267   3.779 -0.2881  0.3764  1.3278
49882SOL     OW59575   6.982  11.208   6.653  0.6183  0.9108 -0.1534
49882SOL    HW159576   6.962  11.212   6.560 -0.5735  2.2108  0.1302
49882SOL    HW259577   6.973  11.298   6.684 -1.5157  0.1522  1.6958
49883SOL     OW59578  12.157  10.529  10.587 -0.2377  0.2223  0.4325
49883SOL    HW159579  12.193  10.442  10.606  1.4974  1.4142  3.1263
49883SOL    HW259580  12.063  10.519  10.600 -0.4138 -1.7237 -1.6230
49884SOL     OW59581   1.996   8.793   7.793 -0.1434  0.0966  0.2269
49884SOL    HW159582   2.068   8.743   7.753  0.0906  0.6062 -0.0041
49884SOL    HW259583   2.010   8.784   7.887 -1.4582 -2.2191  0.2696
49885SOL     OW59584   0.565   4.784  13.040  0.4595 -0.1462  0.3559
49885SOL    HW159585   0.471   4.787  13.057  0.2793  0.0826 -0.5792
49885SOL    HW259586   0.575   4.715  12.973  0.9349 -0.0761  0.3498
49886SOL     OW59587   8.272  10.656   8.060  0.2344 -0.3892 -0.0699
49886SOL    HW159588   8.366  10.639   8.047  0.2646 -0.6548  0.4668
49886SOL    HW259589   8.241  10.685   7.974  1.1071  1.1260  0.0787
49887SOL     OW59590   5.685   4.068   5.364 -0.4597  0.7895 -0.1354
49887SOL    HW159591   5.748   4.051   5.293 -0.9578 -0.6099 -0.2827
49887SOL    HW259592   5.732   4.043   5.443 -0.6598  0.1882 -0.2011
49888SOL     OW59593  10.122   4.081  12.146 -0.2427 -0.1341 -0.1734
49888SOL    HW159594  10.185   4.153  12.148  0.4541 -0.6786 -1.2584
49888SOL    HW259595  10.048   4.112  12.197 -0.2044  1.5902 -1.0974
49889SOL     OW59596   0.614   9.793   8.571 -0.0480 -0.4155 -0.0986
49889SOL    HW159597   0.569   9.737   8.508  0.0056 -1.9780  1.1806
49889SOL    HW259598   0.554   9.865   8.588 -0.6611 -0.7463 -0.8542
49890SOL     OW59599   7.215  13.119   1.274  0.3503  0.4290 -0.2105
49890SOL    HW159600   7.180  13.061   1.342  1.3617 -1.3087 -1.1048
49890SOL    HW259601   7.145  13.183   1.260 -0.0365  0.6240  2.1699
49891SOL     OW59602   1.702  10.390   8.356  0.4273  0.1080  0.1018
49891SOL    HW159603   1.735  10.318   8.411  0.7286  1.6886  2.0933
49891SOL    HW259604   1.669  10.346   8.278 -0.9966 -2.4071  1.9508
49892SOL     OW59605   3.385   1.161   9.078  0.3746  0.6078 -0.4908
49892SOL    HW159606   3.412   1.093   9.018  0.5282  0.7322 -0.5619
49892SOL    HW259607   3.463   1.215   9.091  0.6723 -0.0544  0.6904
49893SOL     OW59608   2.364   0.654   2.903  0.1502 -0.1844 -0.1934
49893SOL    HW159609   2.431   0.688   2.962  0.4619 -0.0765 -0.6046
49893SOL    HW259610   2.365   0.559   2.917  1.2640 -0.3227 -1.0918
49894SOL     OW59611   3.941   0.070   5.328 -0.3737  0.1707 -0.4344
49894SOL    HW159612   3.894   0.146   5.364 -0.1646 -1.3449  3.5058
49894SOL    HW259613   4.031   0.100   5.319 -0.4110  0.6008  0.4760
49895SOL     OW59614   0.383   7.346  12.253 -0.2020 -0.2014  0.0476
49895SOL    HW159615   0.339   7.402  12.189  0.2606 -1.3746 -1.3423
49895SOL    HW259616   0.368   7.389  12.337 -1.9070  0.7065 -0.6888
49896SOL     OW59617   9.591   2.714   5.396 -0.1055  0.5466  0.1131
49896SOL    HW159618   9.496   2.711   5.407 -0.0978  0.7460  0.2324
49896SOL    HW259619   9.620   2.625   5.415 -0.4910 -0.1086 -2.0775
49897SOL     OW59620   4.480   7.169   1.128 -0.2698  0.1136  0.0051
49897SOL    HW159621   4.434   7.085   1.136  1.0269 -0.6751 -0.4866
49897SOL    HW259622   4.417   7.226   1.085 -1.7423 -0.1181  1.7168
49898SOL     OW59623   9.265   6.832   3.696  0.0260  0.5621 -0.1686
49898SOL    HW159624   9.179   6.840   3.735  0.1166 -2.5283  0.9604
49898SOL    HW259625   9.325   6.825   3.771  0.9075  0.0340 -0.8993
49899SOL     OW59626  11.134  13.275   3.935 -0.5987  0.0554 -0.0297
49899SOL    HW159627  11.199  13.259   3.867  1.8233 -0.4959  2.2376
49899SOL    HW259628  11.068  13.206   3.922 -1.4781  1.2773 -3.0486
49900SOL     OW59629  10.152   9.179  11.154 -0.5312  0.1215  0.5805
49900SOL    HW159630  10.232   9.214  11.192  1.3106 -0.7733 -2.1903
49900SOL    HW259631  10.096   9.256  11.141  0.5398  0.9972  1.0211
49901SOL     OW59632   5.772  12.438  11.929  0.2841  0.3437  0.0173
49901SOL    HW159633   5.696  12.430  11.871  0.0066  0.6438  0.3354
49901SOL    HW259634   5.837  12.379  11.891 -0.3612 -0.4747  0.1525
49902SOL     OW59635   8.717   2.484   4.382 -0.0477 -0.4771 -0.5170
49902SOL    HW159636   8.752   2.425   4.315  0.1875 -0.6995 -0.2033
49902SOL    HW259637   8.726   2.434   4.464 -0.4399 -0.2559 -0.3377
49903SOL     OW59638   0.920   1.731  10.322 -0.0206 -0.4468  0.0410
49903SOL    HW159639   0.853   1.785  10.281 -1.9196 -1.6607  1.4155
49903SOL    HW259640   0.917   1.649  10.274  1.3443 -0.1345 -0.6360
49904SOL     OW59641  13.119   8.758  10.264  0.2403 -0.3931 -0.3089
49904SOL    HW159642  13.116   8.731  10.356  0.5933  2.2710  0.5684
49904SOL    HW259643  13.205   8.799  10.255 -0.5335  1.0732 -1.2992
49905SOL     OW59644   6.301  10.422   3.555  0.1496 -0.5613 -0.2413
49905SOL    HW159645   6.341  10.376   3.629  0.5301 -1.5889 -1.0646
49905SOL    HW259646   6.207  10.415   3.570  0.2029  0.7875  1.0537
49906SOL     OW59647  10.300  11.219   3.930  0.3848  0.6034  0.2134
49906SOL    HW159648  10.379  11.212   3.983  0.3891  0.6884  0.2184
49906SOL    HW259649  10.228  11.197   3.990  0.2750  1.9165  0.5918
49907SOL     OW59650  13.130   6.512   8.939 -0.2339 -0.1487  0.0809
49907SOL    HW159651  13.180   6.540   9.016 -0.6245 -2.7883  1.4367
49907SOL    HW259652  13.196   6.491   8.873  0.1835  0.9311  0.1463
49908SOL     OW59653   1.775   5.296   3.164  0.5411 -0.1979 -0.1374
49908SOL    HW159654   1.687   5.311   3.200 -0.6882 -1.5748 -2.3754
49908SOL    HW259655   1.818   5.242   3.230 -1.5518 -2.4385 -0.4563
49909SOL     OW59656  12.511   9.040   1.075 -0.3185  0.0400 -0.0289
49909SOL    HW159657  12.433   9.095   1.082 -0.7515 -0.3773 -1.2271
49909SOL    HW259658  12.558   9.076   0.999  0.8549  0.5098  0.8909
49910SOL     OW59659   9.057   9.038  12.156 -0.5231 -0.1450  0.4644
49910SOL    HW159660   9.131   9.001  12.204 -0.7039 -0.5112  0.4575
49910SOL    HW259661   9.097   9.088  12.084 -0.3178 -1.5698 -0.4436
49911SOL     OW59662   3.787   8.649   3.437  0.2633 -0.5492 -0.3215
49911SOL    HW159663   3.848   8.658   3.364 -1.4242 -0.2570 -1.7709
49911SOL    HW259664   3.830   8.692   3.511  2.0210 -0.8719 -1.1202
49912SOL     OW59665   3.079   2.270   0.621  0.0607 -0.0521  0.6026
49912SOL    HW159666   3.046   2.343   0.673  0.8259 -0.0269  1.0676
49912SOL    HW259667   3.105   2.310   0.538  3.7135  0.9248  2.0197
49913SOL     OW59668   7.445   3.569   8.546 -0.1560  0.1898 -0.6508
49913SOL    HW159669   7.400   3.634   8.600  0.0995  0.3608 -0.6437
49913SOL    HW259670   7.465   3.497   8.607  0.8202  0.7112 -0.3325
49914SOL     OW59671   0.832   8.100   0.471 -0.2577  0.0487  0.4181
49914SOL    HW159672   0.763   8.166   0.468  0.3579  0.6783 -0.7693
49914SOL    HW259673   0.906   8.145   0.512  0.6825  0.6717 -1.8216
49915SOL     OW59674   6.116   7.395   3.475 -0.2647 -0.4435 -0.2737
49915SOL    HW159675   6.080   7.415   3.389 -2.0294 -1.6985  0.1157
49915SOL    HW259676   6.168   7.315   3.462 -0.9156 -0.9037 -0.1179
49916SOL     OW59677   7.368   2.708   2.313 -0.2081 -0.0161  0.3730
49916SOL    HW159678   7.363   2.798   2.345  0.4918 -0.1449  0.8655
49916SOL    HW259679   7.337   2.655   2.387  1.4152 -0.3174  0.8792
49917SOL     OW59680   6.052  11.371  10.707 -0.1422 -0.1439  0.0426
49917SOL    HW159681   6.047  11.401  10.798 -0.5085  1.5920 -0.5033
49917SOL    HW259682   6.143  11.385  10.682 -0.4481  1.2024 -0.4028
49918SOL     OW59683   1.388   8.609   9.479 -0.0842  0.5089  0.1028
49918SOL    HW159684   1.314   8.604   9.418 -1.1800  2.3078  1.1883
49918SOL    HW259685   1.420   8.699   9.472  0.9942  0.2041  0.7996
49919SOL     OW59686   9.693  12.479   9.205 -0.1305 -0.0136  0.3000
49919SOL    HW159687   9.607  12.473   9.162 -0.6826  1.2853  1.1400
49919SOL    HW259688   9.676  12.458   9.296  0.2927  0.9706  0.6166
49920SOL     OW59689   0.165  11.467   7.480  0.1033  0.5483  0.5766
49920SOL    HW159690   0.166  11.542   7.539 -0.2874 -0.1799  1.5418
49920SOL    HW259691   0.155  11.391   7.538  0.8793 -0.2840 -0.3427
49921SOL     OW59692   1.412  12.176   5.711  0.7889 -0.3054 -0.1508
49921SOL    HW159693   1.334  12.197   5.660 -0.7437 -3.7537  0.4644
49921SOL    HW259694   1.409  12.237   5.785 -0.9859  0.0636 -0.4760
49922SOL     OW59695   6.375   0.140   6.489 -0.3708 -0.4327  0.3470
49922SOL    HW159696   6.309   0.177   6.548 -1.5584 -1.6416 -0.1643
49922SOL    HW259697   6.432   0.089   6.546  0.1290  0.5886  0.7911
49923SOL     OW59698   3.606   0.138   6.038 -0.4100 -0.0216  0.0682
49923SOL    HW159699   3.513   0.121   6.026 -0.6518 -0.6536  2.4134
49923SOL    HW259700   3.614   0.166   6.129  1.5748  0.9709 -0.3654
49924SOL     OW59701   6.590  11.335   8.958 -0.1483 -0.5678 -0.5084
49924SOL    HW159702   6.603  11.310   8.867 -1.2845 -1.0122 -0.5666
49924SOL    HW259703   6.620  11.260   9.008  0.9546 -0.1251 -0.4806
49925SOL     OW59704  12.196   5.359   0.044  0.3295 -0.0647  0.8126
49925SOL    HW159705  12.207   5.436   0.100 -1.0878  0.2479  0.6866
49925SOL    HW259706  12.103   5.338   0.050  0.9534 -2.8925  2.3080
49926SOL     OW59707  10.650   9.589   7.186  0.5810  0.1762  0.4356
49926SOL    HW159708  10.664   9.683   7.196 -1.7774  0.5077  1.0777
49926SOL    HW259709  10.703   9.550   7.257  1.2847  1.0143  0.3943
49927SOL     OW59710  12.352  12.330   1.359  0.4673  0.1314 -0.3334
49927SOL    HW159711  12.422  12.267   1.344  0.7969  0.3386  0.2963
49927SOL    HW259712  12.363  12.395   1.290  0.5358 -0.1458 -0.5851
49928SOL     OW59713  11.099   2.838  12.531 -0.4516  0.2748  0.5431
49928SOL    HW159714  11.148   2.758  12.550 -0.2245  0.5434  1.1065
49928SOL    HW259715  11.142   2.875  12.454 -1.3525 -0.7993 -0.4984
49929SOL     OW59716   3.095  12.827  10.733  0.0935 -0.0370  0.2942
49929SOL    HW159717   3.121  12.781  10.812  0.4436  1.0210  0.8205
49929SOL    HW259718   3.173  12.875  10.706 -0.3156  0.4185 -0.1080
49930SOL     OW59719   1.235   0.779  10.038 -0.1487  0.3885 -0.0732
49930SOL    HW159720   1.198   0.867  10.038  2.2007  1.4502  0.2301
49930SOL    HW259721   1.198   0.737  10.116 -2.5610  0.4728 -1.1065
49931SOL     OW59722  10.170   9.087  12.472 -0.0277  0.7333 -0.1143
49931SOL    HW159723  10.094   9.116  12.422 -0.2932 -0.8540 -0.6954
49931SOL    HW259724  10.232   9.160  12.466 -1.0632  1.6018 -0.5697
49932SOL     OW59725   7.365   5.016  13.213  0.6408  0.6531 -0.0791
49932SOL    HW159726   7.327   5.078  13.275  0.0752 -0.1070  0.3568
49932SOL    HW259727   7.297   4.951  13.199  1.3101 -0.0184 -0.3105
49933SOL     OW59728   9.150   5.124   0.059 -0.2320  0.0301  0.0093
49933SOL    HW159729   9.104   5.098  -0.020 -1.7548  2.1682  0.0810
49933SOL    HW259730   9.243   5.114   0.038 -0.6369 -2.4204 -0.8864
49934SOL     OW59731   8.709  10.154  10.667 -0.0691 -0.1662 -0.4122
49934SOL    HW159732   8.681  10.063  10.656  0.9561 -0.6578  0.7555
49934SOL    HW259733   8.722  10.187  10.578 -0.1506 -1.2707 -0.8443
49935SOL     OW59734   1.534   5.032  11.509 -0.1901 -0.3731  0.1430
49935SOL    HW159735   1.607   4.982  11.545 -0.4792 -0.7329  0.2294
49935SOL    HW259736   1.457   4.978  11.526 -0.5734  0.3284  0.6975
49936SOL     OW59737   9.716   6.675  10.105 -0.1164 -0.3577  0.6785
49936SOL    HW159738   9.741   6.583  10.094  1.5026  0.1613 -0.3995
49936SOL    HW259739   9.800   6.722  10.105 -0.8945  1.0774  1.6844
49937SOL     OW59740   6.132   7.922   3.151 -0.1072  0.3371  0.2510
49937SOL    HW159741   6.117   7.998   3.207 -0.4578  0.3832  0.0964
49937SOL    HW259742   6.108   7.951   3.063 -1.6007 -0.3627  0.4004
49938SOL     OW59743  12.252   8.969  11.719 -0.2138 -0.3061 -0.2038
49938SOL    HW159744  12.272   8.940  11.630 -1.4655 -0.2655 -0.5226
49938SOL    HW259745  12.208   8.894  11.759 -0.4990  0.0006  0.0658
49939SOL     OW59746  12.183  13.213   1.341  0.0329  0.0947  0.4181
49939SOL    HW159747  12.233  13.295   1.342 -0.0120  0.1174  1.2858
49939SOL    HW259748  12.169  13.195   1.248 -0.5308  1.4166  0.2344
49940SOL     OW59749   8.699  11.422   6.571  0.2447  0.4092 -0.6860
49940SOL    HW159750   8.747  11.390   6.494  1.2486  0.0984  0.0440
49940SOL    HW259751   8.670  11.343   6.616  3.7676  0.2590  1.7789
49941SOL     OW59752   5.637   7.263   8.159  0.2716  0.2049  0.0651
49941SOL    HW159753   5.665   7.321   8.088 -2.2656 -1.3665 -2.4225
49941SOL    HW259754   5.667   7.176   8.133 -2.0611 -0.6527 -0.0046
49942SOL     OW59755   5.900  10.995   1.072 -0.4871  0.2527 -0.1422
49942SOL    HW159756   5.805  11.006   1.068 -0.5313 -0.1737 -0.3259
49942SOL    HW259757   5.923  10.960   0.986 -0.1811  0.2036 -0.0394
49943SOL     OW59758  10.018   9.669   6.350 -0.8666  0.3113  0.4663
49943SOL    HW159759  10.045   9.645   6.261 -1.3381  0.2714  0.3274
49943SOL    HW259760   9.922   9.676   6.344 -1.0349 -0.9673  1.2689
49944SOL     OW59761  11.334   7.870   4.344  0.5512  0.0888 -0.4168
49944SOL    HW159762  11.410   7.811   4.336  0.8809  0.6558 -1.7686
49944SOL    HW259763  11.343   7.909   4.431  0.5329 -1.5557  0.3573
49945SOL     OW59764   1.980   3.423   7.652  0.3958 -0.1382  0.0516
49945SOL    HW159765   2.072   3.448   7.660  0.2927  0.7265 -1.1093
49945SOL    HW259766   1.931   3.503   7.673 -0.1070 -0.6965  1.0502
49946SOL     OW59767   7.693   2.319   0.518  0.2723 -0.4732 -0.3068
49946SOL    HW159768   7.692   2.352   0.428  0.1320 -1.3074 -0.6136
49946SOL    HW259769   7.777   2.273   0.526 -0.3315 -1.6077 -0.4535
49947SOL     OW59770  11.590   6.360   6.995 -0.3967 -0.5293  0.0521
49947SOL    HW159771  11.631   6.289   7.045  0.7379  0.1474  0.1064
49947SOL    HW259772  11.507   6.376   7.039 -0.3747 -1.3844  0.4238
49948SOL     OW59773   4.636   3.255  11.130  0.3190 -0.0838  0.3356
49948SOL    HW159774   4.729   3.249  11.107  0.1036 -0.3098 -0.5406
49948SOL    HW259775   4.621   3.348  11.143  0.6124 -0.0163  0.2101
49949SOL     OW59776  11.826   7.715   7.278  0.3292  0.3386 -0.5245
49949SOL    HW159777  11.917   7.716   7.249  0.3500  0.2027 -0.4683
49949SOL    HW259778  11.782   7.777   7.220  0.3496 -0.0039 -0.9114
49950SOL     OW59779   6.313   7.787   5.723 -0.0318  0.4988  0.0278
49950SOL    HW159780   6.300   7.826   5.809 -1.9934 -0.2578  0.1273
49950SOL    HW259781   6.237   7.730   5.711  0.9140 -0.4920 -1.6200
49951SOL     OW59782   6.233   0.501  12.122  0.1529 -0.5763  0.4953
49951SOL    HW159783   6.260   0.503  12.214  0.4725 -0.9511  0.4150
49951SOL    HW259784   6.280   0.574  12.082  1.1892 -1.3108  0.3287
49952SOL     OW59785   3.747  12.199   2.920  0.6064  0.8182 -0.5968
49952SOL    HW159786   3.760  12.129   2.984 -1.5301 -1.2151 -2.1824
49952SOL    HW259787   3.832  12.242   2.913  1.7320 -0.9365  1.2352
49953SOL     OW59788   2.065  11.367  10.060 -0.7323 -0.2550  0.1807
49953SOL    HW159789   2.074  11.461  10.043  0.4559 -0.3238  0.3323
49953SOL    HW259790   2.155  11.333  10.057 -1.2211 -1.5377 -0.6796
49954SOL     OW59791  10.782   9.085  10.849 -0.0922  0.2960  0.0845
49954SOL    HW159792  10.711   9.140  10.885  0.0677 -0.4939  1.6924
49954SOL    HW259793  10.829   9.053  10.926  0.5231 -1.1769 -0.8616
49955SOL     OW59794   2.030   3.927   8.832 -0.2854 -0.1198  0.4163
49955SOL    HW159795   2.027   3.832   8.821 -0.3605  0.0658 -1.5184
49955SOL    HW259796   2.113   3.953   8.791  0.2339  0.5562  1.8587
49956SOL     OW59797   0.206   2.228  11.027 -0.0628  0.1869 -0.2279
49956SOL    HW159798   0.150   2.178  11.086 -1.2063  0.5754 -0.9484
49956SOL    HW259799   0.295   2.200  11.048 -0.6586 -2.6075 -1.0007
49957SOL     OW59800   0.338   3.078   4.055  0.0548 -0.2582  0.1972
49957SOL    HW159801   0.282   3.072   4.133  0.1758  0.0500  0.3068
49957SOL    HW259802   0.318   3.164   4.018 -0.3261 -0.5801 -0.3593
49958SOL     OW59803   8.056   2.464   7.465 -0.2475 -0.0663  0.0095
49958SOL    HW159804   8.074   2.536   7.405  0.4476  0.1630  0.4849
49958SOL    HW259805   8.091   2.494   7.549 -1.9770 -0.0108  0.7503
49959SOL     OW59806   1.690   7.758   0.044 -0.2529  0.4512  0.3649
49959SOL    HW159807   1.655   7.766   0.133  1.4513  0.4541  1.0865
49959SOL    HW259808   1.659   7.836  -0.001 -1.2647  0.3767  0.9049
49960SOL     OW59809   7.073   8.803   1.895 -0.3125 -0.5702 -0.2931
49960SOL    HW159810   7.068   8.743   1.970 -0.3040  0.1842  0.3260
49960SOL    HW259811   7.002   8.866   1.911 -0.1286 -0.2433 -0.7783
49961SOL     OW59812   6.484  10.014   3.933  0.2326  0.2275 -0.2595
49961SOL    HW159813   6.515  10.054   4.015  0.4712 -1.1444  0.3494
49961SOL    HW259814   6.538  10.054   3.865 -0.7984  2.3189  0.0716
49962SOL     OW59815   4.392   9.668   9.913 -0.1427 -0.3760 -0.1150
49962SOL    HW159816   4.415   9.634   9.999 -1.5486 -0.8941  0.0939
49962SOL    HW259817   4.399   9.763   9.921 -1.4890 -0.3325  0.9859
49963SOL     OW59818   9.618   0.355  11.753 -0.1133  0.1199 -0.6454
49963SOL    HW159819   9.635   0.385  11.664  0.6139 -0.6650 -0.7832
49963SOL    HW259820   9.681   0.284  11.767 -0.3267  0.1271  0.4357
49964SOL     OW59821   8.137  13.271  10.298 -0.1610 -0.5899  0.0937
49964SOL    HW159822   8.085  13.299  10.222  0.8988 -1.1348 -0.8772
49964SOL    HW259823   8.077  13.274  10.372 -1.7368 -1.7891 -1.0815
49965SOL     OW59824   4.301   5.650   7.395 -0.1460 -0.6655  0.2556
49965SOL    HW159825   4.299   5.569   7.344 -0.4416  0.3609 -1.4295
49965SOL    HW259826   4.223   5.699   7.366  0.2372  0.3970  0.9527
49966SOL     OW59827   0.863   2.110   4.927 -0.5052 -0.2225  0.2598
49966SOL    HW159828   0.782   2.119   4.877 -0.8936 -0.1296  0.8953
49966SOL    HW259829   0.837   2.068   5.009 -0.0086  0.3375  0.7145
49967SOL     OW59830   7.951   1.060   3.206  0.9233  0.2027 -0.4869
49967SOL    HW159831   8.001   1.122   3.153  0.9039 -0.1991 -0.9770
49967SOL    HW259832   7.882   1.114   3.246  0.8314  0.4788 -1.0063
49968SOL     OW59833   0.704   8.088   2.797 -0.2432 -0.3721 -0.2902
49968SOL    HW159834   0.730   8.058   2.709 -0.1553  0.0208 -0.3980
49968SOL    HW259835   0.787   8.107   2.841 -0.2765  3.9495 -1.6738
49969SOL     OW59836   2.046   4.471   1.738 -0.0116 -0.2855  0.5116
49969SOL    HW159837   1.987   4.401   1.709  0.4403  0.0251 -1.2516
49969SOL    HW259838   1.993   4.550   1.731  0.5043 -0.0354 -0.8541
49970SOL     OW59839   2.737   8.901   9.254 -0.1871  0.0507 -0.0056
49970SOL    HW159840   2.688   8.981   9.239  0.1041  0.3817  0.7511
49970SOL    HW259841   2.679   8.831   9.226 -0.2245  0.5529 -1.2188
49971SOL     OW59842  13.027  13.193   4.171  0.2419  0.3396 -0.1081
49971SOL    HW159843  12.969  13.117   4.176 -0.7346  1.1274  1.3157
49971SOL    HW259844  13.100  13.164   4.116 -0.1602 -1.5733  0.2940
49972SOL     OW59845   5.041   5.327  10.702 -0.7365  0.2133  0.0280
49972SOL    HW159846   4.947   5.345  10.709 -0.8000  0.3847 -1.0667
49972SOL    HW259847   5.048   5.259  10.635  0.0114  1.3197 -1.0596
49973SOL     OW59848  11.103   9.818   7.847 -0.5270  0.6901 -0.5443
49973SOL    HW159849  11.044   9.893   7.848  0.5515  1.5815 -0.5868
49973SOL    HW259850  11.185   9.853   7.813  0.5814 -0.0627  1.1758
49974SOL     OW59851   2.261  10.111   0.206  0.0320  0.1444 -0.3771
49974SOL    HW159852   2.193  10.060   0.249 -0.4597  1.0889  0.0037
49974SOL    HW259853   2.327  10.125   0.275  0.0264  0.2749 -0.3987
49975SOL     OW59854   9.301  12.446   1.648  0.3622  0.4085 -0.7303
49975SOL    HW159855   9.283  12.470   1.557 -0.9834 -0.2862 -0.6721
49975SOL    HW259856   9.246  12.370   1.665  0.0192  0.9677  0.8888
49976SOL     OW59857   7.919   9.301  13.160 -0.2407 -0.0500 -0.5815
49976SOL    HW159858   7.993   9.333  13.211 -0.3722 -0.4963 -0.1085
49976SOL    HW259859   7.842   9.321  13.213 -0.3541 -0.7782 -0.4598
49977SOL     OW59860   2.381   6.829  10.506 -0.2306 -0.3480  0.7679
49977SOL    HW159861   2.328   6.818  10.586  0.6966 -1.3589  1.2710
49977SOL    HW259862   2.471   6.836  10.537 -0.0687  2.2359 -0.0189
49978SOL     OW59863   3.848  12.648   3.949 -0.4217 -0.6858 -0.2412
49978SOL    HW159864   3.885  12.595   3.879  0.5230 -0.8044  0.3295
49978SOL    HW259865   3.915  12.646   4.018 -0.5298  0.9247 -0.0559
49979SOL     OW59866   4.277   7.829   2.628  0.6203 -0.5567 -0.4200
49979SOL    HW159867   4.218   7.900   2.601  0.3421 -1.1085 -1.3118
49979SOL    HW259868   4.305   7.853   2.716 -0.5183 -0.0088 -0.1915
49980SOL     OW59869   4.440   3.018  11.109 -0.2619 -0.5525 -0.3719
49980SOL    HW159870   4.505   3.089  11.110 -3.1871  2.4005  0.0595
49980SOL    HW259871   4.440   2.985  11.199  1.0615 -1.0614 -0.5413
49981SOL     OW59872   5.327   1.942   5.819 -0.1672 -0.2756  0.1713
49981SOL    HW159873   5.265   1.948   5.747 -0.9853 -0.5626  0.8430
49981SOL    HW259874   5.341   2.032   5.847  0.4348 -0.1277 -0.5674
49982SOL     OW59875   4.725   6.668   4.917 -0.6403  0.9032 -0.1899
49982SOL    HW159876   4.771   6.750   4.932  0.0008  0.1214  2.6626
49982SOL    HW259877   4.637   6.683   4.952 -0.9047  0.6967 -0.7379
49983SOL     OW59878  12.570  11.946   9.058 -0.3815 -0.0808  0.0784
49983SOL    HW159879  12.583  11.973   8.967  2.2495  0.0370  0.4143
49983SOL    HW259880  12.657  11.920   9.088 -1.5426 -2.1099  1.9626
49984SOL     OW59881  11.884   5.097  10.190 -0.2996 -0.0471 -0.0582
49984SOL    HW159882  11.833   5.017  10.182 -1.4409  0.8323 -2.6286
49984SOL    HW259883  11.974   5.070  10.173 -0.3702 -1.0307  0.9781
49985SOL     OW59884   5.898   6.840   9.303 -0.8492 -0.4046  0.6481
49985SOL    HW159885   5.928   6.785   9.231 -1.2041  0.6905 -0.3693
49985SOL    HW259886   5.832   6.787   9.348 -1.5520 -0.6416 -0.6185
49986SOL     OW59887  11.603   5.782   3.081  0.5632  0.3574  0.2028
49986SOL    HW159888  11.609   5.692   3.049 -1.5187  0.2705 -0.1030
49986SOL    HW259889  11.663   5.832   3.025 -0.0989 -0.4454 -1.2817
49987SOL     OW59890   0.312   2.886   6.787  0.0461 -0.4465 -0.5039
49987SOL    HW159891   0.261   2.889   6.868 -0.9441 -1.5012 -1.0587
49987SOL    HW259892   0.403   2.874   6.816 -0.0888  0.6742  0.4733
49988SOL     OW59893   0.695  10.383   1.179  0.3864 -0.1435  0.1628
49988SOL    HW159894   0.712  10.289   1.188 -0.3135 -0.3805 -0.8879
49988SOL    HW259895   0.601  10.390   1.168  0.5306  0.5997 -0.7316
49989SOL     OW59896  10.468  12.977   1.272  0.2576 -0.1980  0.1818
49989SOL    HW159897  10.536  12.912   1.287  1.1815  0.8687  0.6857
49989SOL    HW259898  10.483  13.044   1.338 -0.7951  0.4441 -0.2067
49990SOL     OW59899   8.048  12.014   2.499  0.0212  0.2959  0.4758
49990SOL    HW159900   8.070  12.002   2.407  0.9434  1.0014  0.5878
49990SOL    HW259901   7.952  12.005   2.502 -0.3465  2.7928 -0.9870
49991SOL     OW59902   2.799   4.585   2.326 -0.3895 -0.6193  0.2573
49991SOL    HW159903   2.866   4.621   2.267 -1.2559  0.7932  0.0881
49991SOL    HW259904   2.736   4.542   2.269  0.0865 -1.5125  0.3805
49992SOL     OW59905   6.500   9.206   7.419  0.2291  0.4440 -0.5809
49992SOL    HW159906   6.471   9.295   7.400  2.5065  1.0382 -1.5728
49992SOL    HW259907   6.563   9.217   7.490  1.0211 -0.2883 -1.1623
49993SOL     OW59908   0.214  10.009   5.632  0.3880  0.4858 -0.3036
49993SOL    HW159909   0.137  10.012   5.689  0.2963  2.1227 -0.4609
49993SOL    HW259910   0.191   9.944   5.565 -1.4231  1.8081 -1.0727
49994SOL     OW59911  12.765   1.888   1.732 -0.2615  0.5773 -0.1288
49994SOL    HW159912  12.806   1.946   1.796  0.4177  0.8660 -0.8096
49994SOL    HW259913  12.835   1.868   1.670 -0.5257 -0.8316 -0.0110
49995SOL     OW59914   6.469   9.777  12.980 -0.5645  0.5917 -0.3943
49995SOL    HW159915   6.388   9.767  13.029  0.4554  1.5806  1.6257
49995SOL    HW259916   6.461   9.861  12.935 -1.1775  0.0515 -1.3329
49996SOL     OW59917   6.170   6.547   8.720  0.0494 -0.3953 -0.2884
49996SOL    HW159918   6.203   6.484   8.656 -0.5737 -0.9330 -0.0908
49996SOL    HW259919   6.113   6.496   8.777 -2.1000  0.7188 -1.3369
49997SOL     OW59920   8.458   7.998   9.431  0.2647  0.4620  0.1374
49997SOL    HW159921   8.365   8.016   9.442 -0.2706 -1.7213 -0.4544
49997SOL    HW259922   8.493   7.996   9.521 -0.9691 -1.9348  0.6456
49998SOL     OW59923   3.169   4.690   2.421  0.0996  0.3362 -0.4940
49998SOL    HW159924   3.241   4.626   2.414  0.6532  0.7852  0.6704
49998SOL    HW259925   3.144   4.708   2.331  2.1749  0.9495 -1.0173
49999SOL     OW59926  11.474   5.614   7.172  0.1805 -0.1421 -0.1517
49999SOL    HW159927  11.503   5.623   7.263  2.3139 -3.3861 -0.3570
49999SOL    HW259928  11.388   5.573   7.178 -1.0634  2.3336  0.3363
50000SOL     OW59929   6.807   7.292   0.924  0.3661  0.5976 -0.0470
50000SOL    HW159930   6.815   7.251   1.010  2.7139  0.7305 -0.1337
50000SOL    HW259931   6.890   7.273   0.880 -0.2354  1.6817 -1.7663
50001SOL     OW59932   4.363   4.840   7.086 -0.0518 -0.5500 -0.0951
50001SOL    HW159933   4.274   4.856   7.056 -0.1516 -1.2895 -0.2070
50001SOL    HW259934   4.416   4.838   7.006  0.1812  0.4878  0.0070
50002SOL     OW59935   6.070   3.155   4.240  1.4395 -0.1270 -0.0435
50002SOL    HW159936   6.024   3.211   4.177  1.8107  0.1850 -0.0362
50002SOL    HW259937   6.096   3.214   4.310  1.3220 -0.4148  0.2464
50003SOL     OW59938  10.273   2.146   7.565 -0.5419  0.6826  0.5360
50003SOL    HW159939  10.213   2.123   7.493  2.6016 -0.9836 -1.8190
50003SOL    HW259940  10.309   2.062   7.593  1.5055  1.6547  1.0127
50004SOL     OW59941   6.669  10.679  10.553  0.4235  0.3828 -0.1128
50004SOL    HW159942   6.645  10.587  10.548  1.4474  0.1296 -0.5325
50004SOL    HW259943   6.592  10.722  10.591 -1.1232 -0.2160 -2.3733
50005SOL     OW59944  11.592  10.405   4.678  0.1393  0.6466  0.1149
50005SOL    HW159945  11.508  10.451   4.683  0.3816  1.5382 -2.4503
50005SOL    HW259946  11.653  10.459   4.727 -0.5082  0.6407  0.9474
50006SOL     OW59947  11.999  12.281   8.333  0.0129  0.0236  0.1191
50006SOL    HW159948  12.037  12.197   8.355 -0.8810 -0.9608 -1.8308
50006SOL    HW259949  11.905  12.270   8.347  0.0259  1.3481  1.6537
50007SOL     OW59950  10.555   0.751  10.994  0.0392 -0.0155 -0.3293
50007SOL    HW159951  10.596   0.817  11.051  0.7770 -0.7613  0.0282
50007SOL    HW259952  10.474   0.792  10.964 -0.1601  0.5662  0.9253
50008SOL     OW59953   9.330   1.387   7.230 -0.1756  0.3293  0.2462
50008SOL    HW159954   9.398   1.445   7.197 -0.6007  0.1157 -1.0846
50008SOL    HW259955   9.365   1.299   7.218 -0.0210  0.2690  1.1186
50009SOL     OW59956   4.674  12.682   2.555 -0.0227  0.3167 -0.6402
50009SOL    HW159957   4.710  12.755   2.605 -1.0904 -0.0692  0.7562
50009SOL    HW259958   4.658  12.613   2.619  1.5817 -1.4478 -2.0274
50010SOL     OW59959   7.042   8.831   9.219  0.0160 -0.3095  0.3866
50010SOL    HW159960   7.011   8.839   9.309 -2.2757 -1.0512 -0.2724
50010SOL    HW259961   7.008   8.909   9.175  0.9793 -0.0360  0.1033
50011SOL     OW59962  12.450   7.530   9.463 -0.1533 -0.2832 -0.5447
50011SOL    HW159963  12.497   7.580   9.530 -1.0632  2.0829 -1.5660
50011SOL    HW259964  12.396   7.468   9.513  1.8487 -1.1277  0.7237
50012SOL     OW59965   1.575  11.298   2.662 -0.0861  0.2176 -0.2569
50012SOL    HW159966   1.546  11.390   2.658  0.5840  0.5069  1.0753
50012SOL    HW259967   1.636  11.289   2.589 -0.6408  0.6431 -0.7864
50013SOL     OW59968   2.149   5.149  11.228  0.2886  0.0790 -0.8019
50013SOL    HW159969   2.186   5.178  11.144  0.4621 -0.8263 -1.0535
50013SOL    HW259970   2.219   5.164  11.291  1.1153 -1.5474 -1.2609
50014SOL     OW59971   4.757   1.849  12.989  0.5359  0.0187  0.4411
50014SOL    HW159972   4.740   1.756  13.004 -1.4068  0.3130  0.2389
50014SOL    HW259973   4.852   1.857  12.997  0.8394 -2.1357 -0.4703
50015SOL     OW59974  12.381   3.389   2.365  0.1650 -0.3174  0.5308
50015SOL    HW159975  12.317   3.459   2.350  0.3380 -0.3783 -0.5586
50015SOL    HW259976  12.329   3.309   2.360  0.4341 -0.4236 -1.2821
50016SOL     OW59977  11.499   4.460  12.559  0.2648 -0.1335  0.0390
50016SOL    HW159978  11.427   4.424  12.507 -1.6601  2.1960  0.9085
50016SOL    HW259979  11.560   4.494  12.493  0.2647 -1.4649 -0.7005
50017SOL     OW59980   1.030   1.533   0.196 -0.4121  0.0224  0.6739
50017SOL    HW159981   1.042   1.442   0.225 -1.8324  0.3925  2.7163
50017SOL    HW259982   0.944   1.557   0.231  0.0362  2.2294  0.3822
50018SOL     OW59983   3.107   4.426   4.958 -0.1426  0.0373 -0.7330
50018SOL    HW159984   3.020   4.435   4.997  0.3937 -0.2970  0.6155
50018SOL    HW259985   3.095   4.448   4.866 -2.0538 -1.9517 -1.0307
50019SOL     OW59986  10.509   6.251   1.552 -0.1156  0.1951 -0.2384
50019SOL    HW159987  10.552   6.287   1.630  1.2580 -1.3834 -0.2156
50019SOL    HW259988  10.489   6.160   1.575  4.8789 -2.0781 -3.1691
50020SOL     OW59989   4.376   0.678   2.265 -0.0199 -0.3193  0.3762
50020SOL    HW159990   4.466   0.663   2.236  0.5707  1.1490  1.3156
50020SOL    HW259991   4.337   0.728   2.193 -0.0109 -0.7075  0.0943
50021SOL     OW59992   3.988  10.637   8.765 -0.4081 -0.5201 -0.3331
50021SOL    HW159993   3.928  10.568   8.735 -0.6503  0.4221 -2.1556
50021SOL    HW259994   3.930  10.710   8.787 -0.1342 -0.7773  1.3498
50022SOL     OW59995  12.126   4.968  10.147 -0.0056 -0.6229  0.0569
50022SOL    HW159996  12.091   4.880  10.132 -0.3905 -1.0071  2.8115
50022SOL    HW259997  12.221   4.956  10.145 -0.0237 -0.7582 -1.0970
50023SOL     OW59998   9.944   7.858   3.851 -0.3910  0.2725 -0.3831
50023SOL    HW159999   9.861   7.813   3.836 -0.9517  1.0892  0.1900
50023SOL    HW260000   9.942   7.933   3.791  0.3913 -0.2603 -1.0972
50024SOL     OW60001  11.605   5.950  11.473 -0.0301 -0.5489 -0.3785
50024SOL    HW160002  11.632   6.041  11.456 -0.1955 -0.3826  0.2218
50024SOL    HW260003  11.648   5.899  11.405  2.7066 -0.4342  1.1260
50025SOL     OW60004   3.106   9.999   1.872 -0.5204  0.1849  0.1072
50025SOL    HW160005   3.090  10.060   1.799  0.0918 -0.1565 -0.3251
50025SOL    HW260006   3.051  10.032   1.943 -1.4056  0.3143 -0.6224
50026SOL     OW60007   0.134   5.968   2.013 -0.1737 -0.6732  0.4520
50026SOL    HW160008   0.069   6.017   1.963  1.4793 -0.2995 -1.4738
50026SOL    HW260009   0.199   6.033   2.039  0.8120 -1.4353 -0.0339
50027SOL     OW60010  10.408   4.872   4.181 -0.1288  0.2161  0.2017
50027SOL    HW160011  10.465   4.892   4.255  1.6145 -0.2096 -0.9423
50027SOL    HW260012  10.418   4.946   4.122  0.6943 -0.6785 -0.8205
50028SOL     OW60013   0.372  11.369   1.803  0.2410 -0.1228 -0.0323
50028SOL    HW160014   0.454  11.375   1.851  0.6827 -2.8508 -0.2905
50028SOL    HW260015   0.397  11.339   1.716 -0.9554 -0.1630 -0.3906
50029SOL     OW60016   9.426   1.400   3.333  0.1995  0.1197 -0.0329
50029SOL    HW160017   9.418   1.472   3.270 -0.4048  0.7153  0.7081
50029SOL    HW260018   9.337   1.365   3.340 -0.1433  1.2846  1.8948
50030SOL     OW60019  12.170   1.769   7.973 -0.4983 -0.4207  0.3112
50030SOL    HW160020  12.255   1.776   7.931 -0.6756  0.3784  0.0744
50030SOL    HW260021  12.172   1.685   8.018  0.8367  0.0920  1.2580
50031SOL     OW60022   7.750   4.143   5.773 -0.2254  0.1853 -0.2963
50031SOL    HW160023   7.731   4.077   5.839  1.5925  0.5021  0.5921
50031SOL    HW260024   7.770   4.222   5.823  3.0695 -0.0365 -1.0464
50032SOL     OW60025   2.707  11.326   7.229 -0.0609  0.0272  0.4361
50032SOL    HW160026   2.662  11.250   7.192 -0.2043  1.3958 -2.5026
50032SOL    HW260027   2.652  11.353   7.302 -1.2750 -1.3133  0.0730
50033SOL     OW60028   7.480   3.305   0.321 -0.2429  0.0275  0.5016
50033SOL    HW160029   7.494   3.315   0.415 -0.9831 -0.0878  0.6305
50033SOL    HW260030   7.393   3.342   0.306 -0.5568 -0.8761  0.0306
50034SOL     OW60031   5.551   8.429   0.601  0.2566 -0.2132 -0.1207
50034SOL    HW160032   5.594   8.477   0.530  0.0028  0.4726  0.1767
50034SOL    HW260033   5.458   8.447   0.589  0.0866 -1.2046 -0.4079
50035SOL     OW60034   7.720   8.158   8.608  0.0905 -0.4636 -0.1800
50035SOL    HW160035   7.772   8.176   8.685  0.0123  1.6327 -0.5651
50035SOL    HW260036   7.783   8.159   8.535 -0.1801  0.0153 -0.4124
50036SOL     OW60037   5.903   2.397   1.726 -0.0567  0.2120  0.2897
50036SOL    HW160038   5.867   2.461   1.665  1.1823  0.6460 -0.0159
50036SOL    HW260039   5.835   2.386   1.792 -0.9860  0.5329 -0.5915
50037SOL     OW60040   4.435   4.254   9.964  0.4151 -0.9491 -0.0890
50037SOL    HW160041   4.436   4.332   9.908  0.8624 -1.9667 -1.5688
50037SOL    HW260042   4.520   4.213   9.950  0.8780 -0.8286  2.0060
50038SOL     OW60043  11.413  10.466   6.891  0.3557  0.1900  0.3988
50038SOL    HW160044  11.348  10.497   6.954 -0.9448  0.3244 -0.9458
50038SOL    HW260045  11.397  10.518   6.812 -2.0875 -3.7667 -2.0998
50039SOL     OW60046  10.523   9.942   0.715 -0.3064  0.1920 -0.2988
50039SOL    HW160047  10.434   9.976   0.725 -0.9323 -1.3049 -0.3996
50039SOL    HW260048  10.580  10.011   0.748 -1.6859 -0.1479  3.2232
50040SOL     OW60049  11.332   2.723  12.657 -0.5597  0.2769  0.2031
50040SOL    HW160050  11.348   2.684  12.571  1.1993 -0.3732  0.7762
50040SOL    HW260051  11.325   2.648  12.716  2.9633  0.6441  1.3365
50041SOL     OW60052   0.173  13.200   1.785  0.2951 -0.1620 -0.5665
50041SOL    HW160053   0.160  13.109   1.760 -0.8540 -0.0019 -0.5967
50041SOL    HW260054   0.251  13.198   1.840  1.0522 -0.9607 -1.6292
50042SOL     OW60055   4.068   0.132   2.507  0.3729 -0.9180 -0.0962
50042SOL    HW160056   4.078   0.202   2.572 -1.0142 -0.6761 -0.1113
50042SOL    HW260057   4.015   0.171   2.438  1.3023 -1.3761 -1.0888
50043SOL     OW60058   1.448   4.095   1.900  0.6875 -0.0920  0.2735
50043SOL    HW160059   1.491   4.019   1.940 -1.9089 -0.7789  2.0299
50043SOL    HW260060   1.439   4.157   1.972  1.3045  1.2393 -0.7612
50044SOL     OW60061  10.064   2.032   8.815 -0.2157 -0.7260  0.1524
50044SOL    HW160062  10.141   2.014   8.869 -0.3486  0.1485  0.6579
50044SOL    HW260063  10.047   1.950   8.769  1.5234 -0.6895 -0.6261
50045SOL     OW60064  10.034   8.581   9.108  0.4395  0.0925  0.1206
50045SOL    HW160065   9.999   8.660   9.148  0.7794 -0.2510  1.1096
50045SOL    HW260066  10.018   8.512   9.172  0.5593 -0.5566 -0.5357
50046SOL     OW60067   4.374  12.862   9.033 -0.0934  0.4617  0.0342
50046SOL    HW160068   4.371  12.784   8.978  1.7687 -0.2678  0.8558
50046SOL    HW260069   4.424  12.925   8.982  0.6315  0.1840  0.3754
50047SOL     OW60070   9.293  10.021  12.221  0.0748 -0.8706  0.0244
50047SOL    HW160071   9.225  10.002  12.156 -0.3184 -1.3589  0.5801
50047SOL    HW260072   9.338   9.938  12.235 -1.1638 -1.2657  1.8905
50048SOL     OW60073  13.124   7.085   7.002  0.5555  0.4217  0.3346
50048SOL    HW160074  13.175   7.005   7.009  4.6882  2.6070 -1.2346
50048SOL    HW260075  13.109   7.112   7.093  0.9292 -1.0305  0.8555
50049SOL     OW60076  10.925   5.249  11.911  0.2838  0.3503 -0.3244
50049SOL    HW160077  10.961   5.195  11.841 -1.0802 -0.2736 -0.5756
50049SOL    HW260078  10.845   5.204  11.937 -0.2596  1.6240  0.2824
50050SOL     OW60079  11.355   9.062   8.017 -0.7353  0.4763  0.1376
50050SOL    HW160080  11.356   9.137   7.958  0.5100 -0.3757 -0.9621
50050SOL    HW260081  11.379   8.988   7.963  1.0967 -0.2527  1.8235
50051SOL     OW60082   7.003   8.249  12.340 -0.5401  0.0502  0.0303
50051SOL    HW160083   7.077   8.244  12.279  0.0828  0.3784  0.7471
50051SOL    HW260084   7.006   8.339  12.373 -0.9904 -0.0682  0.3946
50052SOL     OW60085   6.913   7.998   9.511 -0.2889 -0.5166 -0.5837
50052SOL    HW160086   6.831   8.011   9.465 -0.2094  0.9536 -0.3551
50052SOL    HW260087   6.978   8.045   9.459  0.5322 -2.0674 -1.0372
50053SOL     OW60088   4.324   6.162   4.636 -0.2514  0.1675  0.4944
50053SOL    HW160089   4.304   6.226   4.567  0.2931  0.4668  0.6100
50053SOL    HW260090   4.251   6.169   4.697 -0.1239  0.7818  0.5790
50054SOL     OW60091   7.502   7.344   6.897 -0.1320 -0.2843  1.0075
50054SOL    HW160092   7.471   7.256   6.920  1.4575 -0.7730  1.4004
50054SOL    HW260093   7.439   7.375   6.832 -0.5104 -1.8790  0.5619
50055SOL     OW60094   1.115   2.022   6.139 -0.0599  0.8984  0.3547
50055SOL    HW160095   1.051   2.026   6.210 -0.5717 -0.7844  0.0424
50055SOL    HW260096   1.091   2.095   6.081 -2.1583 -0.0643 -0.0891
50056SOL     OW60097   4.502   3.099   7.515  0.0380  0.2645 -0.0450
50056SOL    HW160098   4.454   3.182   7.513 -0.8466 -0.1813  1.3284
50056SOL    HW260099   4.437   3.033   7.492  0.5334 -0.1426 -0.2980
50057SOL     OW60100   2.041   5.870   2.472  0.6446  0.0417 -0.4570
50057SOL    HW160101   1.968   5.815   2.500 -1.0874  3.2560  1.9929
50057SOL    HW260102   2.118   5.815   2.483 -0.7642 -1.5288  3.4632
50058SOL     OW60103   3.453  12.564   0.520 -0.3627 -0.0740  0.9120
50058SOL    HW160104   3.441  12.475   0.551 -0.8313 -0.1957  0.3946
50058SOL    HW260105   3.390  12.574   0.450 -0.9616  0.9627  1.5661
50059SOL     OW60106   2.735   3.178   3.866 -0.0397  0.6086 -0.0612
50059SOL    HW160107   2.643   3.154   3.855 -0.5345  2.3796 -0.1450
50059SOL    HW260108   2.735   3.274   3.865  1.8547  0.6490 -0.4163
50060SOL     OW60109   4.196  11.787   4.464  0.2212 -0.4015 -0.0637
50060SOL    HW160110   4.230  11.727   4.531 -4.5294 -0.3443  2.9092
50060SOL    HW260111   4.202  11.874   4.505  0.5744  0.2006 -1.3402
50061SOL     OW60112   0.230   0.703   5.552  0.2725 -0.3811 -0.5268
50061SOL    HW160113   0.173   0.691   5.476  0.4945 -0.1288 -0.7350
50061SOL    HW260114   0.226   0.797   5.571  1.8254 -0.0867 -1.5070
50062SOL     OW60115   2.896  13.100   6.033 -0.1550  0.0418  0.6425
50062SOL    HW160116   2.806  13.125   6.016 -0.3303  0.7102  2.3616
50062SOL    HW260117   2.890  13.021   6.087  0.2971  0.0035  0.6438
50063SOL     OW60118   3.517  10.055  10.621  0.9443 -0.3647 -0.1789
50063SOL    HW160119   3.456  10.084  10.689  0.5106 -1.0634 -0.2557
50063SOL    HW260120   3.570  10.132  10.601  0.3514  0.1415  0.1775
50064SOL     OW60121   9.769   9.313   6.827  0.2306  0.1227 -0.4164
50064SOL    HW160122   9.817   9.344   6.903  0.5529 -0.1549 -0.5067
50064SOL    HW260123   9.825   9.334   6.753 -0.6965  1.6632 -0.7159
50065SOL     OW60124   2.475   6.943  10.932  0.5195  0.2151 -0.1631
50065SOL    HW160125   2.397   6.900  10.897  1.7034 -0.7605 -1.7449
50065SOL    HW260126   2.522   6.874  10.979  0.5445  0.7420  0.6113
50066SOL     OW60127  10.090  12.992   5.919  0.0507  0.0041 -0.5037
50066SOL    HW160128  10.060  12.974   6.007 -1.1516 -2.1995 -1.3035
50066SOL    HW260129  10.152  12.921   5.899  0.1450  0.3426 -1.5067
50067SOL     OW60130   6.205   1.119  11.750  0.2878  0.3468  0.2002
50067SOL    HW160131   6.246   1.157  11.673  0.9674  0.6346  0.6895
50067SOL    HW260132   6.263   1.143  11.823 -0.8581  0.9460  0.9528
50068SOL     OW60133   0.733   8.190   4.517 -0.2300 -0.5809 -0.0988
50068SOL    HW160134   0.731   8.101   4.552 -1.6630 -0.9779 -1.0682
50068SOL    HW260135   0.648   8.226   4.540 -0.6287 -0.3472 -1.8261
50069SOL     OW60136  11.897   7.619   3.877 -0.0610 -0.3061  0.2870
50069SOL    HW160137  11.895   7.570   3.960  0.3875 -0.4489  0.2186
50069SOL    HW260138  11.806   7.622   3.849 -0.1374 -0.8127  0.4666
50070SOL     OW60139   3.965   8.189   4.957  0.8833  0.3100  0.1867
50070SOL    HW160140   4.018   8.175   5.036  2.3363  0.6120 -0.6887
50070SOL    HW260141   3.883   8.226   4.989  1.2504 -0.0222  1.5869
50071SOL     OW60142   0.732   9.568   5.672 -0.3180 -0.0667  0.1762
50071SOL    HW160143   0.794   9.533   5.608  0.0975 -1.3997  1.2446
50071SOL    HW260144   0.743   9.663   5.668  0.9233 -0.2185 -0.5140
50072SOL     OW60145  12.377   6.870  10.514  0.6050  0.2432  0.3766
50072SOL    HW160146  12.342   6.940  10.460 -1.9889 -1.0250  0.2827
50072SOL    HW260147  12.463   6.851  10.475 -0.0888  1.0664 -1.7188
50073SOL     OW60148   1.040  12.719   7.069 -0.2308  0.2329 -0.1529
50073SOL    HW160149   1.045  12.623   7.071  2.4438  0.3020  0.3928
50073SOL    HW260150   0.953  12.739   7.102 -0.2650 -1.9716  1.3201
50074SOL     OW60151   5.607   8.310   5.079  0.5025  0.3839 -0.0065
50074SOL    HW160152   5.552   8.379   5.042 -0.2704  0.7161  1.6736
50074SOL    HW260153   5.579   8.230   5.033  0.1267  0.8915 -0.6775
50075SOL     OW60154   3.203   5.139  10.454 -0.5281  0.0654  0.5551
50075SOL    HW160155   3.163   5.222  10.479  0.8997  0.4987  1.5537
50075SOL    HW260156   3.196   5.084  10.532  0.1843 -0.0850  0.5183
50076SOL     OW60157   2.243   6.552  12.589  0.0901 -0.0214 -0.3123
50076SOL    HW160158   2.191   6.611  12.644 -0.6799 -0.7815 -0.2173
50076SOL    HW260159   2.329   6.550  12.632 -0.1919  0.2088  0.2746
50077SOL     OW60160   6.179  11.559  11.867 -0.2277 -0.6935 -0.2139
50077SOL    HW160161   6.116  11.580  11.937 -0.3593  0.0437 -0.5484
50077SOL    HW260162   6.254  11.522  11.913  0.6245  1.8217  0.5727
50078SOL     OW60163   6.308   9.227   6.796 -0.3289 -0.7177 -0.2367
50078SOL    HW160164   6.253   9.191   6.726 -1.0038 -1.7517  0.7766
50078SOL    HW260165   6.303   9.161   6.865 -0.6593  0.8284  1.2629
50079SOL     OW60166  12.482   0.196   5.125  0.5841  0.3778  0.1222
50079SOL    HW160167  12.417   0.170   5.060 -0.7886  1.1452  1.1317
50079SOL    HW260168  12.447   0.164   5.208  2.0840 -0.1950  0.5666
50080SOL     OW60169  11.493   0.120  12.823  0.2479  0.0308 -0.0124
50080SOL    HW160170  11.412   0.082  12.854 -0.6790  2.5462  0.8862
50080SOL    HW260171  11.502   0.087  12.733 -2.5159  0.7336 -0.6454
50081SOL     OW60172  11.717   4.707  11.176 -0.0060  0.8825 -0.1542
50081SOL    HW160173  11.623   4.689  11.184  0.2794 -0.1880  1.3904
50081SOL    HW260174  11.722   4.785  11.121 -1.5963 -1.1323 -3.4493
50082SOL     OW60175  13.278   6.722   0.352 -0.2816 -0.0041  0.1405
50082SOL    HW160176  13.359   6.688   0.314  0.1908  0.9903  0.2233
50082SOL    HW260177  13.305   6.756   0.438 -1.1741 -1.4726  1.0522
50083SOL     OW60178   5.309   1.497  11.769 -0.7173 -0.0202  0.1754
50083SOL    HW160179   5.389   1.549  11.780 -0.6818 -0.0548  0.0741
50083SOL    HW260180   5.243   1.561  11.742 -1.0243  0.2304  1.4593
50084SOL     OW60181  13.079   2.783  12.853 -0.3736 -0.3042 -0.0127
50084SOL    HW160182  12.984   2.778  12.853 -0.3781 -0.7982 -1.5212
50084SOL    HW260183  13.099   2.870  12.816 -0.2034  0.5853  2.0075
50085SOL     OW60184   7.845   2.734  11.036 -0.1697 -0.5576  0.9434
50085SOL    HW160185   7.871   2.687  10.957 -1.3861 -1.3160  0.9847
50085SOL    HW260186   7.927   2.746  11.085  0.7575  0.6981 -0.8048
50086SOL     OW60187  11.659   3.936   8.039  0.0688  0.4240  0.4996
50086SOL    HW160188  11.645   3.868   7.972 -1.7728  0.2830  0.9904
50086SOL    HW260189  11.608   3.907   8.114  0.3240  1.7052  1.1913
50087SOL     OW60190  10.507   5.291   2.286  0.5257  0.6997 -0.2098
50087SOL    HW160191  10.422   5.263   2.320  1.0328  0.7728  1.1955
50087SOL    HW260192  10.493   5.381   2.258 -0.5881 -0.1800 -2.8089
50088SOL     OW60193  11.571  13.199   3.601 -0.0782 -0.6364 -0.3901
50088SOL    HW160194  11.571  13.201   3.505 -0.3419 -2.7119 -0.4860
50088SOL    HW260195  11.657  13.166   3.625  0.0671  0.0834  0.1259
50089SOL     OW60196   5.278   9.849   7.646 -0.0836 -0.0466  0.1316
50089SOL    HW160197   5.320   9.775   7.602  0.7795  0.6627 -0.2591
50089SOL    HW260198   5.327   9.858   7.728 -0.0351  0.2307  0.0728
50090SOL     OW60199   8.063  13.289  12.534  0.7247 -0.1247 -0.0968
50090SOL    HW160200   8.090  13.232  12.462  3.2978  2.2228 -1.2027
50090SOL    HW260201   8.112  13.257  12.610 -1.9938 -2.6041  0.8136
50091SOL     OW60202   2.006   1.903   0.598  0.7186  0.6633 -0.0250
50091SOL    HW160203   2.010   1.957   0.520  1.8156 -1.0364 -1.2189
50091SOL    HW260204   1.913   1.883   0.610  0.2683  2.9251  0.5904
50092SOL     OW60205   0.708  13.302   6.631 -0.6250  0.1606 -0.4571
50092SOL    HW160206   0.681  13.267   6.716  1.8876  0.7375  0.6744
50092SOL    HW260207   0.763  13.234   6.593 -0.6230  0.4457 -0.9734
50093SOL     OW60208  13.160   8.193  11.027  0.1252 -0.2759 -0.4148
50093SOL    HW160209  13.242   8.185  10.979 -0.2163  0.3540 -1.1377
50093SOL    HW260210  13.182   8.171  11.117  1.3627  1.1141 -0.3386
50094SOL     OW60211   0.619   4.364   8.640  0.0895  0.0630  0.3177
50094SOL    HW160212   0.672   4.380   8.562 -1.3673  1.4480 -0.4312
50094SOL    HW260213   0.539   4.413   8.625 -1.7431 -2.5125  1.1024
50095SOL     OW60214   9.037   5.274   4.742 -0.0721 -0.1047  0.3059
50095SOL    HW160215   9.101   5.328   4.695  0.7354 -1.3712 -0.0996
50095SOL    HW260216   9.081   5.252   4.825  1.5805 -3.8348 -1.3545
50096SOL     OW60217   3.951   9.637   1.176 -0.2092 -0.3598  0.0583
50096SOL    HW160218   3.983   9.676   1.095  0.3072  1.5638  1.1059
50096SOL    HW260219   3.871   9.687   1.197 -0.2209 -0.6848  0.8303
50097SOL     OW60220  10.232   9.562   4.348  0.1696 -0.0219  0.2874
50097SOL    HW160221  10.179   9.517   4.414  1.6061 -0.4319  1.2053
50097SOL    HW260222  10.178   9.636   4.321 -0.4173  0.2417  2.0589
50098SOL     OW60223   3.844   4.864   4.017 -0.6497  0.5138  1.1149
50098SOL    HW160224   3.788   4.786   4.021 -1.2562  0.9588  1.2947
50098SOL    HW260225   3.933   4.828   4.017 -0.9263 -0.2035  0.6546
50099SOL     OW60226   2.957   6.119  13.311  0.5197 -0.1890  0.8010
50099SOL    HW160227   2.876   6.153  13.272  0.5321  0.4101  1.2873
50099SOL    HW260228   2.974   6.038  13.263 -0.2425 -0.2019  0.5310
50100SOL     OW60229   2.849  12.414   1.806  0.2741 -0.4471 -0.2293
50100SOL    HW160230   2.826  12.327   1.838  0.6273 -0.2906  0.4765
50100SOL    HW260231   2.769  12.465   1.814  0.3262 -0.4449  0.2921
50101SOL     OW60232   0.066   0.637   5.365  0.1021 -0.5245  0.2656
50101SOL    HW160233  -0.029   0.626   5.358 -0.0465 -0.8034  2.2108
50101SOL    HW260234   0.100   0.548   5.363  0.3319 -0.4250 -0.3992
50102SOL     OW60235  10.861   5.547   5.359  0.6852  0.6222  0.1403
50102SOL    HW160236  10.938   5.565   5.306  1.1922 -1.0065  0.2718
50102SOL    HW260237  10.790   5.534   5.296  1.1804 -0.8373 -0.1365
50103SOL     OW60238   1.255   9.014   1.578  0.0989  0.1637 -0.1379
50103SOL    HW160239   1.333   8.962   1.597 -0.6899 -1.0223 -0.0513
50103SOL    HW260240   1.282   9.073   1.507  1.4775  0.7950  0.8578
50104SOL     OW60241   7.151   1.187   2.658 -0.4243 -0.2559 -0.4581
50104SOL    HW160242   7.107   1.272   2.661  0.3007  0.1216  0.0662
50104SOL    HW260243   7.233   1.202   2.706 -0.6843 -1.4762  0.4022
50105SOL     OW60244   4.296   6.458  10.612 -0.0868 -0.1333  0.4732
50105SOL    HW160245   4.311   6.515  10.687  2.2298  2.3851 -1.6487
50105SOL    HW260246   4.207   6.478  10.584 -0.7147 -0.5778  2.1016
50106SOL     OW60247   9.217   9.436   2.152 -0.8032  0.0578 -0.0352
50106SOL    HW160248   9.134   9.479   2.137 -0.9214  0.0510  0.5534
50106SOL    HW260249   9.278   9.477   2.090 -1.3225 -0.1947 -0.7160
50107SOL     OW60250   2.889  13.166   7.745  0.4209 -0.7649 -0.1775
50107SOL    HW160251   2.911  13.257   7.723  0.7982 -0.9433 -0.5640
50107SOL    HW260252   2.875  13.167   7.839 -1.3282  0.0427 -0.4054
50108SOL     OW60253   1.325   7.707   4.213  0.1601 -0.2125 -0.3254
50108SOL    HW160254   1.253   7.671   4.266 -0.4006 -1.4606 -1.8597
50108SOL    HW260255   1.388   7.635   4.208  1.1581  0.5915  0.2939
50109SOL     OW60256   0.624   1.227  13.246  0.1699  0.7832 -0.3624
50109SOL    HW160257   0.542   1.273  13.233 -0.3107 -0.3727 -1.6175
50109SOL    HW260258   0.599   1.137  13.263  1.1486  0.6861  0.7276
50110SOL     OW60259   8.765   8.789   3.460 -0.0779  0.5415  0.0528
50110SOL    HW160260   8.746   8.850   3.389 -0.4969  0.2623 -0.0732
50110SOL    HW260261   8.703   8.718   3.448  0.0238  0.3686  0.5462
50111SOL     OW60262   7.737   5.665  12.250  0.4384 -0.0640 -0.5968
50111SOL    HW160263   7.770   5.694  12.335 -1.8061 -0.0257  0.3173
50111SOL    HW260264   7.737   5.744  12.196  1.9502 -0.1039 -0.6943
50112SOL     OW60265   7.423   6.601   9.404  0.1276  0.0899  0.5126
50112SOL    HW160266   7.377   6.677   9.369  0.1213 -0.2673 -0.2834
50112SOL    HW260267   7.375   6.526   9.368  2.1459 -0.3221 -1.5906
50113SOL     OW60268   9.263   9.767   0.268 -1.1415  0.0150  0.0757
50113SOL    HW160269   9.212   9.847   0.270 -1.4998 -0.2146  0.2339
50113SOL    HW260270   9.233   9.720   0.191 -0.5804  0.2561 -0.2971
50114SOL     OW60271  12.053   5.427   3.428  0.1677  0.3091 -0.4718
50114SOL    HW160272  12.048   5.335   3.456 -1.7207 -0.0970 -1.9569
50114SOL    HW260273  12.017   5.427   3.339 -0.7809  2.6388 -0.1478
50115SOL     OW60274   4.697   8.527  11.455  0.2618  0.1468  0.4134
50115SOL    HW160275   4.728   8.500  11.369 -2.5643 -1.5152 -0.2038
50115SOL    HW260276   4.698   8.623  11.452  1.8407  0.1383 -0.7829
50116SOL     OW60277   6.172   0.395   6.255  0.3071 -0.4467  0.1956
50116SOL    HW160278   6.184   0.486   6.229  1.6974 -1.0379 -1.3601
50116SOL    HW260279   6.079   0.389   6.279 -0.5970  0.7000 -2.6001
50117SOL     OW60280   4.005   4.577   0.987  0.3875  0.5607  0.0055
50117SOL    HW160281   4.049   4.615   1.063 -1.0072  0.2956  0.9908
50117SOL    HW260282   3.942   4.515   1.025 -1.3441  1.4639 -1.2538
50118SOL     OW60283   3.468  11.137   2.072  0.5224 -0.2139  0.1552
50118SOL    HW160284   3.519  11.117   2.151  0.3661  0.5405  0.4510
50118SOL    HW260285   3.470  11.232   2.066  0.2736 -0.2520 -0.5882
50119SOL     OW60286   3.029   9.213   0.453  0.3626  0.1534  0.0454
50119SOL    HW160287   2.987   9.180   0.373 -0.4391  2.4500 -0.5702
50119SOL    HW260288   3.103   9.154   0.467  0.2508 -0.6183 -2.1339
50120SOL     OW60289   0.904   8.315   5.347 -0.1919  0.3823  0.6260
50120SOL    HW160290   0.951   8.395   5.370 -2.2815  1.1709  2.6042
50120SOL    HW260291   0.972   8.252   5.326  1.6042  2.1383  0.8824
50121SOL     OW60292   4.869   1.325   8.953  0.4138  0.6346  0.1639
50121SOL    HW160293   4.813   1.402   8.947  0.9654  0.9568 -1.2925
50121SOL    HW260294   4.813   1.252   8.927  0.1385  0.6571  0.6750
50122SOL     OW60295   0.629  10.175  10.193  0.2396 -0.3079  0.0420
50122SOL    HW160296   0.710  10.127  10.180 -0.7362 -1.9017 -0.4996
50122SOL    HW260297   0.647  10.263  10.159  0.9535 -1.3910 -2.6501
50123SOL     OW60298   9.826   0.338   0.879  0.7257  0.0491 -0.3449
50123SOL    HW160299   9.838   0.318   0.972  1.0133 -0.7601 -0.5481
50123SOL    HW260300   9.808   0.253   0.838 -1.4900  0.6322 -0.7335
50124SOL     OW60301   6.169   7.628   9.708 -0.4064  0.0937 -0.0176
50124SOL    HW160302   6.080   7.590   9.708 -0.4490  0.1909  0.1594
50124SOL    HW260303   6.155   7.721   9.693 -0.2901  0.0171 -0.6013
50125SOL     OW60304   7.304   9.073   7.018 -0.2393  0.3414 -0.4896
50125SOL    HW160305   7.334   9.017   6.946  0.8425  1.0038 -0.5709
50125SOL    HW260306   7.209   9.074   7.010 -0.1769 -0.2872 -1.3867
50126SOL     OW60307   0.758   8.358   7.797  0.2813  0.1726  0.0399
50126SOL    HW160308   0.784   8.329   7.885 -1.7024 -0.2518  0.5309
50126SOL    HW260309   0.734   8.278   7.751  1.7466  0.3384 -1.0950
50127SOL     OW60310   1.176  10.699   8.070 -0.6441  0.2466 -0.6212
50127SOL    HW160311   1.215  10.772   8.119 -1.2739 -0.2296  0.6219
50127SOL    HW260312   1.082  10.717   8.069 -0.6044  0.5453 -2.2039
50128SOL     OW60313   5.030  10.818   5.271 -0.1277  0.2794  0.2733
50128SOL    HW160314   5.087  10.741   5.273  0.4915  0.7012 -0.6381
50128SOL    HW260315   5.089  10.892   5.262 -0.8107  0.6376 -2.1198
50129SOL     OW60316   1.615   2.895   7.020 -0.1605  0.1905  0.0916
50129SOL    HW160317   1.585   2.936   7.101  0.8202 -1.9026  1.6111
50129SOL    HW260318   1.708   2.879   7.035 -0.3271 -1.8017 -0.6975
50130SOL     OW60319   4.974   2.622   5.074  0.2038  0.5930  0.2934
50130SOL    HW160320   4.941   2.569   5.002  1.3056  0.5386 -0.1913
50130SOL    HW260321   4.980   2.711   5.038 -0.1958  0.7586  0.6313
50131SOL     OW60322   2.101   5.237   4.472 -0.2859  0.1034  0.1582
50131SOL    HW160323   2.119   5.163   4.530 -0.4485  0.3492  0.5276
50131SOL    HW260324   2.057   5.301   4.528  2.2645  1.6370  0.5875
50132SOL     OW60325   7.064   2.823  12.744  0.3479 -0.0905 -0.3772
50132SOL    HW160326   6.995   2.883  12.773  0.9007  0.8949 -1.0494
50132SOL    HW260327   7.095   2.860  12.661  2.4709  0.1382  0.4710
50133SOL     OW60328   0.207   7.512  10.670 -0.3868 -0.0376  0.8568
50133SOL    HW160329   0.170   7.556  10.594  2.0444  2.0853  0.7774
50133SOL    HW260330   0.135   7.509  10.733 -2.6939 -2.5141 -1.6253
50134SOL     OW60331  11.598   8.431  12.728 -0.2924 -0.1462 -0.2408
50134SOL    HW160332  11.514   8.470  12.754  0.0599  1.2900 -1.1572
50134SOL    HW260333  11.587   8.411  12.635  0.9247  1.6712 -0.8232
50135SOL     OW60334   8.220   7.425   7.623 -0.2175  0.3177 -0.2568
50135SOL    HW160335   8.151   7.428   7.557 -0.4885 -1.6246 -0.1112
50135SOL    HW260336   8.182   7.374   7.695  0.6829  0.9358  0.6846
50136SOL     OW60337   1.129  12.418  12.008 -0.6607  0.1616 -0.1702
50136SOL    HW160338   1.057  12.432  11.946 -1.9508  1.4350  1.5194
50136SOL    HW260339   1.178  12.501  12.006 -0.3275 -0.0263  0.0580
50137SOL     OW60340  10.504   1.580   4.525  0.2088 -0.6386  0.2423
50137SOL    HW160341  10.507   1.636   4.448 -0.3690 -0.5488  0.2774
50137SOL    HW260342  10.518   1.640   4.599 -1.2525 -0.3776  0.3414
50138SOL     OW60343   6.396   6.301   0.089 -0.4668  0.2790 -0.9636
50138SOL    HW160344   6.335   6.292   0.017 -0.2003  0.8198 -1.2629
50138SOL    HW260345   6.469   6.243   0.066 -0.9277 -0.4775 -0.5349
50139SOL     OW60346  12.533   3.682   8.943 -0.5641  0.7931  0.2407
50139SOL    HW160347  12.515   3.630   8.864  0.9520 -1.1356  1.0824
50139SOL    HW260348  12.452   3.731   8.958 -1.2985  0.3293 -1.8294
50140SOL     OW60349  11.359   0.767   1.772 -0.0111  0.0282 -0.1067
50140SOL    HW160350  11.293   0.776   1.841 -0.3531 -1.8056 -0.1612
50140SOL    HW260351  11.379   0.674   1.769 -2.2038 -0.5570 -4.5127
50141SOL     OW60352   6.900   2.883   2.452 -0.2637 -0.4028  0.5512
50141SOL    HW160353   6.814   2.923   2.461  0.1764  0.7208 -0.0494
50141SOL    HW260354   6.936   2.919   2.370 -0.0503 -2.4414 -0.3369
50142SOL     OW60355  10.283   8.663   1.868  0.1785 -0.1553  0.0842
50142SOL    HW160356  10.257   8.735   1.927 -2.7040 -1.2007  0.2934
50142SOL    HW260357  10.256   8.584   1.915  1.0297 -1.2361 -1.1860
50143SOL     OW60358  10.571   9.914   7.482  0.1652  0.1295 -0.5404
50143SOL    HW160359  10.653   9.962   7.470  1.2390 -1.2395  0.9349
50143SOL    HW260360  10.517   9.941   7.407  1.7541  1.4259 -1.3014
50144SOL     OW60361   3.699  12.587   7.551  0.0118 -0.1295 -0.6131
50144SOL    HW160362   3.657  12.509   7.516  0.0643 -1.5222  2.1731
50144SOL    HW260363   3.648  12.609   7.629  1.7843  0.8013  0.3504
50145SOL     OW60364   7.723  10.001   5.935  0.7962  0.0988  0.4479
50145SOL    HW160365   7.765   9.916   5.947 -0.8711 -1.2463 -2.3789
50145SOL    HW260366   7.789  10.054   5.890  2.0214  0.5996  2.6506
50146SOL     OW60367  12.751   3.709  12.583  0.2811 -0.0306  0.1438
50146SOL    HW160368  12.698   3.788  12.576 -0.7188 -0.6835  0.0921
50146SOL    HW260369  12.761   3.678  12.493 -0.6450 -0.7806  0.2763
50147SOL     OW60370   4.582  10.649   3.558 -0.3727  0.3354  0.2229
50147SOL    HW160371   4.583  10.692   3.643 -0.7968  1.1130 -0.1513
50147SOL    HW260372   4.610  10.559   3.576 -1.1799  0.2758  1.2948
50148SOL     OW60373   6.992   4.781  10.398 -0.1968  0.2489  0.4949
50148SOL    HW160374   6.984   4.719  10.470  0.6020  0.9102  1.1842
50148SOL    HW260375   6.920   4.843  10.411 -0.0172  0.4043  0.7789
50149SOL     OW60376   2.219   2.246   4.501 -0.0532  0.0186  0.1313
50149SOL    HW160377   2.229   2.154   4.524 -1.1228 -0.6083 -1.6391
50149SOL    HW260378   2.165   2.244   4.421  0.7010  2.1235 -0.4921
50150SOL     OW60379   0.989   6.418   8.714 -0.4842  0.1209 -0.2483
50150SOL    HW160380   1.076   6.426   8.752 -0.9890 -0.5994  1.1689
50150SOL    HW260381   0.954   6.337   8.753 -0.8643 -0.9716 -2.7009
50151SOL     OW60382   9.119   5.437   1.422 -0.3420  0.0004 -0.0554
50151SOL    HW160383   9.096   5.433   1.515  0.1716 -1.6012  0.0334
50151SOL    HW260384   9.038   5.416   1.376 -0.2269 -0.8111  0.0985
50152SOL     OW60385   5.168   6.681   8.657 -0.4944  0.3346  0.2438
50152SOL    HW160386   5.224   6.652   8.729  0.0364  0.8003  0.0292
50152SOL    HW260387   5.172   6.609   8.593 -0.9287 -0.0579  0.6508
50153SOL     OW60388   6.589  11.776   9.160 -0.3178  0.1800 -0.4565
50153SOL    HW160389   6.545  11.857   9.185 -0.6609  0.4704 -1.9187
50153SOL    HW260390   6.528  11.707   9.183  1.0666 -0.0053  3.4343
50154SOL     OW60391   8.190   3.668   5.768 -0.3700 -0.1044 -0.2821
50154SOL    HW160392   8.208   3.575   5.777 -0.0638  0.0234  0.5519
50154SOL    HW260393   8.100   3.673   5.736 -1.0618 -0.6607  1.5011
50155SOL     OW60394   5.956   7.291   0.725 -0.6159  0.3936  0.4775
50155SOL    HW160395   5.890   7.271   0.793 -2.4019  0.6816 -1.0897
50155SOL    HW260396   5.945   7.384   0.707  0.8859  0.6639  0.7844
50156SOL     OW60397  11.611  11.818   2.160 -0.4817  0.2136 -0.6298
50156SOL    HW160398  11.703  11.797   2.176 -0.2137  1.1283 -0.9134
50156SOL    HW260399  11.563  11.763   2.222  0.3808  1.4981  1.2899
50157SOL     OW60400   5.919   2.021   5.175 -0.0163  0.5660 -0.1948
50157SOL    HW160401   5.872   1.937   5.174 -0.2256  0.6911 -0.8689
50157SOL    HW260402   5.857   2.082   5.214  0.1168  0.4215  0.2481
50158SOL     OW60403  11.090   1.342   3.927  0.5998  0.2922 -0.2113
50158SOL    HW160404  10.995   1.349   3.921  0.4689 -1.3951 -0.7922
50158SOL    HW260405  11.120   1.354   3.837  0.6916 -1.5961 -0.4729
50159SOL     OW60406   1.929   7.756   2.604 -0.4994  0.1462  0.0569
50159SOL    HW160407   1.970   7.693   2.663  2.9402  1.4641 -0.7077
50159SOL    HW260408   1.915   7.834   2.657 -2.0507 -0.2554  0.2820
50160SOL     OW60409   8.266   3.393   5.738  0.8067  0.4452 -0.1057
50160SOL    HW160410   8.293   3.316   5.688 -1.4383  0.4618 -1.5085
50160SOL    HW260411   8.183   3.368   5.777  0.8845  1.6078  0.8542
50161SOL     OW60412   3.376   7.132   4.605 -0.6903 -0.6134 -0.2180
50161SOL    HW160413   3.434   7.156   4.533  0.6150 -0.9072  0.7073
50161SOL    HW260414   3.429   7.077   4.662 -1.1769  0.9429  1.8256
50162SOL     OW60415   2.533  11.603  11.936 -0.0162 -0.0830 -0.1348
50162SOL    HW160416   2.603  11.660  11.968 -1.3568  0.4151  2.1239
50162SOL    HW260417   2.551  11.518  11.979 -0.4192 -0.1321 -0.0615
50163SOL     OW60418   5.987   3.357   1.501  0.6918 -0.3259 -0.1802
50163SOL    HW160419   5.982   3.266   1.470  0.0823 -1.0048  1.7381
50163SOL    HW260420   5.984   3.410   1.421 -5.0122 -1.7280 -1.3612
50164SOL     OW60421   3.728  11.064   3.408 -0.3343 -0.3297 -0.2028
50164SOL    HW160422   3.704  11.015   3.329 -1.5115 -0.8893  0.4649
50164SOL    HW260423   3.703  11.005   3.480 -1.9082  1.2865  0.6376
50165SOL     OW60424   3.007   7.498   2.334  0.1989 -0.4343  0.0982
50165SOL    HW160425   3.099   7.496   2.358 -0.2207  1.4567  2.1417
50165SOL    HW260426   2.986   7.591   2.327 -1.7507 -0.7984  0.5519
50166SOL     OW60427   4.103   1.644   3.043 -0.1614  0.3250 -0.0238
50166SOL    HW160428   4.036   1.578   3.061 -1.4192  1.6506  0.2666
50166SOL    HW260429   4.185   1.595   3.044 -0.9185 -1.0126  1.5848
50167SOL     OW60430  12.680  11.047   0.607 -0.2080  0.1139 -0.7627
50167SOL    HW160431  12.775  11.051   0.617 -0.3201  0.8367  0.1521
50167SOL    HW260432  12.665  11.055   0.512  0.6325 -0.0524 -0.9171
50168SOL     OW60433   1.092   8.457   7.209 -0.2226 -0.0432  0.2263
50168SOL    HW160434   1.034   8.393   7.168 -1.9270  1.5874 -0.0527
50168SOL    HW260435   1.166   8.406   7.241 -2.0833 -2.3372  1.1373
50169SOL     OW60436   6.194   3.860  11.079  0.2894 -0.2708  0.4276
50169SOL    HW160437   6.112   3.882  11.123  0.6286 -1.2794  1.6062
50169SOL    HW260438   6.261   3.903  11.133  0.6427 -0.7786  0.3943
50170SOL     OW60439   1.508   1.747   9.053 -0.4415 -0.3281 -0.2369
50170SOL    HW160440   1.593   1.708   9.037  0.5754  1.2441  1.0698
50170SOL    HW260441   1.491   1.734   9.146 -0.7014  1.0870 -0.0634
50171SOL     OW60442   2.752   9.328   9.278  0.5016 -0.2635  0.3834
50171SOL    HW160443   2.669   9.321   9.325 -0.2835  2.4558 -0.4630
50171SOL    HW260444   2.816   9.348   9.346 -0.0355  0.3062  0.7332
50172SOL     OW60445  11.181   6.246  10.790 -0.4666 -0.4637  0.3133
50172SOL    HW160446  11.155   6.306  10.720  1.0049 -0.2987 -0.1283
50172SOL    HW260447  11.199   6.303  10.865  0.9193 -0.3054 -0.1030
50173SOL     OW60448   0.504  11.519  10.376 -0.0385  0.0186 -0.7153
50173SOL    HW160449   0.593  11.545  10.403  0.9246 -3.3153 -0.2591
50173SOL    HW260450   0.506  11.523  10.280  0.3695  0.5909 -0.6903
50174SOL     OW60451  12.624  10.304  10.556 -0.3049 -0.3571  0.1802
50174SOL    HW160452  12.628  10.268  10.645  1.3638  0.2112  0.3728
50174SOL    HW260453  12.657  10.234  10.500 -0.3718 -0.3487  0.1307
50175SOL     OW60454   2.148   0.632  12.670 -0.1382 -0.0498 -0.2280
50175SOL    HW160455   2.080   0.687  12.708  0.3067 -0.1008  0.6677
50175SOL    HW260456   2.167   0.567  12.737  1.4695  0.5466 -0.0553
50176SOL     OW60457  11.945   1.904   9.240 -0.0345 -0.1681 -0.3774
50176SOL    HW160458  11.963   1.970   9.308 -1.6068 -0.8340  0.7404
50176SOL    HW260459  11.891   1.950   9.176  0.3485  0.1022 -0.5104
50177SOL     OW60460  12.853  11.645   6.126 -0.3822 -0.0266 -0.3620
50177SOL    HW160461  12.825  11.694   6.203  0.7397  0.6554 -0.3707
50177SOL    HW260462  12.800  11.681   6.055  0.4965  1.2906 -0.3880
50178SOL     OW60463   7.559   5.042   0.850 -0.0610 -0.5450  0.2830
50178SOL    HW160464   7.531   4.951   0.837  2.7911 -1.5415  0.4022
50178SOL    HW260465   7.572   5.050   0.945 -0.0040 -0.1000  0.2393
50179SOL     OW60466  12.479   7.310   4.589  0.2074  0.3418 -0.1282
50179SOL    HW160467  12.466   7.404   4.592  1.0741  0.4507  0.6374
50179SOL    HW260468  12.543   7.296   4.519  1.7230  0.5470  1.1755
50180SOL     OW60469   2.079   2.236   3.541 -0.5175  0.0800 -0.1098
50180SOL    HW160470   2.005   2.262   3.487 -0.8889  1.3648  0.9691
50180SOL    HW260471   2.052   2.258   3.631  1.4576  1.2820  0.2292
50181SOL     OW60472   3.354   9.090  11.296 -0.3051 -0.2592 -0.1071
50181SOL    HW160473   3.297   9.133  11.360 -2.0080 -0.1921 -1.5885
50181SOL    HW260474   3.389   9.013  11.342  0.4567  1.0521  1.6331
50182SOL     OW60475   3.318  10.081   8.752  0.1835 -0.1085 -0.3290
50182SOL    HW160476   3.297  10.084   8.846  0.9570  0.9337 -0.1635
50182SOL    HW260477   3.241  10.043   8.711 -0.3003 -0.2746  0.7021
50183SOL     OW60478   9.365   7.814   3.717  0.0883  0.0599 -0.1055
50183SOL    HW160479   9.418   7.878   3.765  0.8116 -0.6603  0.0725
50183SOL    HW260480   9.391   7.729   3.753 -1.3631 -0.3126  0.1536
50184SOL     OW60481   9.211   7.215  12.200  0.0311 -0.3650 -0.3539
50184SOL    HW160482   9.132   7.212  12.253 -0.1018  0.4602 -0.5063
50184SOL    HW260483   9.191   7.161  12.124 -0.5524  0.2275 -0.6208
50185SOL     OW60484   2.201   8.044   7.796  0.0664 -0.2368  0.3260
50185SOL    HW160485   2.269   7.979   7.814  0.2686 -0.1489 -0.1026
50185SOL    HW260486   2.158   8.012   7.716 -1.0900 -0.8479  1.1512
50186SOL     OW60487   5.939   7.228  10.773  0.3042  0.0780 -0.4575
50186SOL    HW160488   5.946   7.240  10.868  0.6251  1.4900 -0.6361
50186SOL    HW260489   5.847   7.249  10.754 -0.4181 -2.5295 -0.1931
50187SOL     OW60490  13.262   9.283   9.059  0.1515  0.5405 -0.5464
50187SOL    HW160491  13.256   9.189   9.045  0.0599  0.4986 -0.2304
50187SOL    HW260492  13.175   9.309   9.087 -0.9389  1.3464 -4.1756
50188SOL     OW60493   5.529   5.086  11.449  0.4566  0.1215  0.0546
50188SOL    HW160494   5.434   5.070  11.448  0.4941 -0.2604  1.2074
50188SOL    HW260495   5.538   5.178  11.475  0.4157 -0.0714  0.7653
50189SOL     OW60496   1.979   7.776   2.340 -0.5397  0.3710 -0.1198
50189SOL    HW160497   1.970   7.762   2.434 -1.1174 -0.8146 -0.3275
50189SOL    HW260498   1.975   7.688   2.303  1.5625  0.6513 -1.1232
50190SOL     OW60499  11.203   3.328   4.608 -0.1250 -0.1385 -0.2669
50190SOL    HW160500  11.128   3.345   4.552 -0.0420 -3.0427 -1.4476
50190SOL    HW260501  11.168   3.332   4.697 -1.3824 -0.1088 -0.7403
50191SOL     OW60502  13.004  11.712   4.912  0.2078 -0.4138  0.0279
50191SOL    HW160503  13.058  11.695   4.835  1.9855 -0.8892  1.3234
50191SOL    HW260504  12.938  11.642   4.910  2.0228 -2.2149  0.4657
50192SOL     OW60505   3.958  12.658   5.541  0.5596  0.5022  0.4623
50192SOL    HW160506   3.980  12.707   5.462  1.3566  1.5137  1.2755
50192SOL    HW260507   3.898  12.715   5.589 -0.0910 -0.1956  0.4970
50193SOL     OW60508   5.702   1.050  12.644 -0.2061  0.2374  0.3312
50193SOL    HW160509   5.628   1.103  12.612  0.7938  1.9496  0.7391
50193SOL    HW260510   5.751   1.029  12.564 -1.3485 -1.3376 -0.0073
50194SOL     OW60511   3.817   6.736  12.094 -0.5035  0.2534  0.0803
50194SOL    HW160512   3.907   6.707  12.079 -0.4461  0.7954 -0.7251
50194SOL    HW260513   3.826   6.814  12.149 -0.2471  1.8329 -2.0375
50195SOL     OW60514   4.527  11.233   6.172  0.1313  0.1584 -0.2176
50195SOL    HW160515   4.482  11.294   6.231 -0.3110  0.4217 -0.8176
50195SOL    HW260516   4.488  11.148   6.191 -0.2577  0.3000 -0.3731
50196SOL     OW60517   8.044   6.406   5.624  0.1402  0.1974  0.3929
50196SOL    HW160518   7.970   6.424   5.681 -0.4517 -0.5631 -0.1079
50196SOL    HW260519   8.009   6.347   5.557  0.9914  0.4993 -0.3411
50197SOL     OW60520  13.238   2.182   3.672  0.3238 -0.1330 -0.1227
50197SOL    HW160521  13.244   2.156   3.580 -0.2502 -1.4251  0.1757
50197SOL    HW260522  13.328   2.178   3.705  0.4276 -0.4387 -0.4412
50198SOL     OW60523   3.351   6.331   2.977 -0.0528 -0.2491  0.4101
50198SOL    HW160524   3.339   6.309   2.885  0.5309  0.2106  0.2194
50198SOL    HW260525   3.299   6.266   3.024  1.6224 -2.0880 -0.1308
50199SOL     OW60526   1.444  11.772  10.481 -0.7067 -0.1033  0.1900
50199SOL    HW160527   1.475  11.854  10.521  0.0212 -0.5316  0.5219
50199SOL    HW260528   1.471  11.779  10.389  1.7857 -1.1038  0.7762
50200SOL     OW60529   1.784   1.897   3.681  0.3011  0.0882  0.1873
50200SOL    HW160530   1.784   1.987   3.646  0.5360  0.1566  0.3621
50200SOL    HW260531   1.766   1.842   3.604 -0.0479  0.3000  0.1180
50201SOL     OW60532   7.984  11.444  12.565 -0.5885 -0.0276 -0.4187
50201SOL    HW160533   8.045  11.451  12.492  0.6588  0.2596  0.6027
50201SOL    HW260534   7.994  11.354  12.596  1.4822  0.7479  1.4755
50202SOL     OW60535   0.206   3.273   8.832 -0.5017  0.5768  0.0701
50202SOL    HW160536   0.124   3.317   8.813  0.5455  2.4701 -0.2872
50202SOL    HW260537   0.245   3.323   8.904 -0.1587 -0.9785  1.0227
50203SOL     OW60538  11.304   3.442   7.440  0.3404 -0.2933  0.5857
50203SOL    HW160539  11.367   3.513   7.447 -1.2277  1.2305 -0.2978
50203SOL    HW260540  11.330   3.381   7.511  1.5318  1.2493  1.5467
50204SOL     OW60541   0.790  10.347   2.022  0.1941  0.0892 -0.8360
50204SOL    HW160542   0.810  10.431   2.064 -0.3094 -0.4967  0.6700
50204SOL    HW260543   0.823  10.281   2.084  1.8681 -0.8619 -2.6205
50205SOL     OW60544   2.880   6.255   7.641  0.2531  0.2132  0.5837
50205SOL    HW160545   2.926   6.173   7.621 -0.3963 -0.0314  0.0125
50205SOL    HW260546   2.801   6.226   7.687  1.4409  0.7344  3.0960
50206SOL     OW60547  10.597  12.484   7.940 -0.3509 -0.6552  0.2464
50206SOL    HW160548  10.505  12.507   7.948 -0.7995 -2.1571 -0.1782
50206SOL    HW260549  10.636  12.553   7.888 -1.1044  0.2940  0.9147
50207SOL     OW60550   3.396  12.748   7.584  0.1853 -0.5153  0.0911
50207SOL    HW160551   3.370  12.816   7.647  0.0348  0.3784 -0.9061
50207SOL    HW260552   3.321  12.688   7.581  0.2789 -0.6811  0.9082
50208SOL     OW60553   4.380   8.461   2.494 -0.1462 -0.0597 -0.0137
50208SOL    HW160554   4.372   8.367   2.513 -2.4737 -0.0293 -0.4570
50208SOL    HW260555   4.350   8.504   2.574 -0.8827  0.2509 -0.4456
50209SOL     OW60556  12.238   6.635   1.594  0.7355  0.1419 -0.8514
50209SOL    HW160557  12.248   6.640   1.499 -1.6097  1.1604 -1.1042
50209SOL    HW260558  12.191   6.553   1.609 -2.4781  1.7879 -1.0439
50210SOL     OW60559   4.332   1.856  12.522 -0.8999 -0.2873  0.3156
50210SOL    HW160560   4.251   1.809  12.544 -0.7122  0.1163  2.0113
50210SOL    HW260561   4.397   1.822  12.584  0.4300 -1.0768 -1.4289
50211SOL     OW60562   2.376   5.772  13.138  0.2927 -0.2832  0.4016
50211SOL    HW160563   2.316   5.809  13.203  0.4914  1.2006 -0.2056
50211SOL    HW260564   2.394   5.846  13.079  0.6023 -1.4188 -0.9681
50212SOL     OW60565  12.221   3.741   8.967 -0.1605  0.2640 -0.3232
50212SOL    HW160566  12.217   3.659   8.917  1.2996  0.4499 -0.7880
50212SOL    HW260567  12.230   3.809   8.901  1.7671  0.5175  0.1389
50213SOL     OW60568   2.866  12.895  11.023 -0.0649 -0.2097 -0.0889
50213SOL    HW160569   2.853  12.863  10.933  0.9151  0.6249 -0.5534
50213SOL    HW260570   2.878  12.816  11.075  0.4829 -0.6764 -0.8973
50214SOL     OW60571  11.109   9.441   9.221 -0.4248  0.2375  0.2777
50214SOL    HW160572  11.133   9.448   9.129 -1.1742 -0.6031  0.0002
50214SOL    HW260573  11.063   9.357   9.228  1.0476 -0.5017  1.7358
50215SOL     OW60574   6.581   4.030   2.345 -0.2768 -0.2812 -0.1361
50215SOL    HW160575   6.627   3.994   2.421 -0.7639 -0.7546 -0.0552
50215SOL    HW260576   6.539   4.110   2.377  0.2359 -0.0124 -0.1328
50216SOL     OW60577   4.925   6.408   5.287  0.0677 -0.0176 -0.1805
50216SOL    HW160578   4.967   6.486   5.252  1.7305  0.3821  2.4418
50216SOL    HW260579   4.835   6.434   5.303 -0.2271  0.3517 -2.1501
50217SOL     OW60580   6.086   7.138  11.384 -0.1242  0.3174 -0.3405
50217SOL    HW160581   6.007   7.122  11.334  0.7113  0.3089 -1.7175
50217SOL    HW260582   6.098   7.233  11.379  1.4480  0.0917 -2.6350
50218SOL     OW60583   2.967   1.344  10.969 -1.1042  0.1416  0.2364
50218SOL    HW160584   2.983   1.408  11.038  1.2799 -0.3867  0.2559
50218SOL    HW260585   2.874   1.321  10.978 -1.1346  0.9510  2.4805
50219SOL     OW60586   1.429   1.708   3.560 -0.0459 -0.0437  0.5959
50219SOL    HW160587   1.465   1.636   3.612 -1.1140  1.4033  3.5397
50219SOL    HW260588   1.355   1.669   3.513  0.9792 -1.4054  0.0400
50220SOL     OW60589  11.630  10.748   8.354  0.3865  0.1973 -0.1055
50220SOL    HW160590  11.718  10.777   8.332  0.4773  0.3459  0.4384
50220SOL    HW260591  11.638  10.653   8.364  1.0180  0.4140  2.1870
50221SOL     OW60592   3.816   5.806   9.883 -0.2697 -0.8613  0.7071
50221SOL    HW160593   3.896   5.753   9.890 -0.5524 -1.4869 -0.4913
50221SOL    HW260594   3.752   5.746   9.845 -0.6194  0.3232 -0.6621
50222SOL     OW60595   7.185   5.998   4.127 -0.3443  0.1431  0.5096
50222SOL    HW160596   7.128   6.059   4.080  0.7231  0.5887 -0.2428
50222SOL    HW260597   7.161   5.912   4.092  0.8065  0.5134 -1.3220
50223SOL     OW60598   4.708  12.548   1.572  0.4865  0.3450  0.1633
50223SOL    HW160599   4.691  12.578   1.662 -0.3055 -0.9808  0.4819
50223SOL    HW260600   4.687  12.624   1.517  0.6566  1.0656  1.0633
50224SOL     OW60601   3.661  11.980   3.288 -0.1677 -0.5748  0.3984
50224SOL    HW160602   3.718  11.914   3.325  1.1505  0.5425  0.4234
50224SOL    HW260603   3.573  11.957   3.320  0.3332 -1.9852  0.8134
50225SOL     OW60604   9.439   8.680   0.730 -0.0531  0.1470  0.4902
50225SOL    HW160605   9.526   8.699   0.766  0.4174 -0.3709 -0.3672
50225SOL    HW260606   9.406   8.766   0.703 -0.3525  0.5342  1.9676
50226SOL     OW60607  10.272   6.622   5.715 -0.0718  0.4020 -0.1939
50226SOL    HW160608  10.268   6.718   5.718 -0.3105  0.3747  0.5450
50226SOL    HW260609  10.320   6.598   5.795 -2.6518 -0.2348  1.2868
50227SOL     OW60610   3.183  12.107   5.824  0.0380 -0.6217 -0.1230
50227SOL    HW160611   3.257  12.165   5.843  0.1666 -0.9472  0.3928
50227SOL    HW260612   3.186  12.096   5.729  2.0865 -2.4955  0.0720
50228SOL     OW60613   0.261   4.301   8.017 -0.4744  0.2129 -0.6688
50228SOL    HW160614   0.206   4.316   8.094  0.7310 -0.7519  0.4488
50228SOL    HW260615   0.213   4.237   7.964  0.2582 -2.0323  1.1821
50229SOL     OW60616  11.216  13.151   5.018 -0.4150  0.3387  0.1790
50229SOL    HW160617  11.300  13.196   5.025  1.3495 -2.4983 -1.0695
50229SOL    HW260618  11.183  13.176   4.932 -1.8936  2.9297  1.3926
50230SOL     OW60619   4.625  11.121   3.521 -0.1662  0.0614 -0.4287
50230SOL    HW160620   4.563  11.101   3.591 -1.1680  1.7809 -0.7561
50230SOL    HW260621   4.709  11.132   3.566 -1.0737  2.7057  0.8173
50231SOL     OW60622   4.533   5.511   1.546  0.3199 -0.0651 -0.4883
50231SOL    HW160623   4.510   5.457   1.622  0.3638 -2.0392 -1.8201
50231SOL    HW260624   4.558   5.595   1.584  0.1616 -0.9229  1.6736
50232SOL     OW60625   4.515   9.374   7.963  0.2853  0.7302  0.3267
50232SOL    HW160626   4.595   9.399   7.917  0.2798 -0.4354 -0.3572
50232SOL    HW260627   4.445   9.424   7.922  0.4427  0.5383 -0.1808
50233SOL     OW60628   3.830   2.028   5.603  0.6774 -0.3019 -0.0942
50233SOL    HW160629   3.859   2.099   5.661  1.0020 -0.8782  0.4551
50233SOL    HW260630   3.736   2.023   5.618  1.0676 -2.1395  2.3625
50234SOL     OW60631   3.025   9.008   6.233  0.4105  0.1179  0.3295
50234SOL    HW160632   3.065   9.093   6.253 -1.4396  1.4896 -1.3846
50234SOL    HW260633   2.967   9.026   6.159 -1.7581 -2.1846  1.3482
50235SOL     OW60634   6.568   7.766   5.645  0.0199 -1.0400 -0.6190
50235SOL    HW160635   6.474   7.773   5.663 -0.1782 -1.4898 -1.4427
50235SOL    HW260636   6.591   7.851   5.607 -0.0988 -1.0208 -0.6497
50236SOL     OW60637   6.382  10.755   0.808 -0.2468 -0.1853 -0.1977
50236SOL    HW160638   6.378  10.660   0.819 -0.2930 -0.1382  0.2047
50236SOL    HW260639   6.299  10.787   0.842  0.2579  0.1012  0.8083
50237SOL     OW60640  13.259   3.824   6.577 -0.3342  0.2743  0.2289
50237SOL    HW160641  13.225   3.798   6.663 -1.2449  2.5494  0.6280
50237SOL    HW260642  13.336   3.768   6.564  1.2445  1.3599  3.5883
50238SOL     OW60643   8.524   4.180  12.809  0.3473 -0.5487  0.1661
50238SOL    HW160644   8.555   4.106  12.757 -0.2797 -0.7849  0.1229
50238SOL    HW260645   8.434   4.158  12.830 -0.3254  0.8836 -1.0869
50239SOL     OW60646   5.302   1.876   1.012  0.3556 -0.4023 -0.1094
50239SOL    HW160647   5.211   1.854   0.990  0.1861  0.8785 -0.7608
50239SOL    HW260648   5.353   1.847   0.936  0.0721  1.7466 -1.1975
50240SOL     OW60649   9.813  12.090   2.249 -0.2211  0.1851  0.2980
50240SOL    HW160650   9.822  12.112   2.156 -1.0916 -0.2625  0.0987
50240SOL    HW260651   9.822  12.174   2.294  0.9520  0.3085 -0.1244
50241SOL     OW60652   3.036   9.410  10.971  0.1348  0.2257 -0.5379
50241SOL    HW160653   3.027   9.453  11.056  1.1619  0.6809 -0.6354
50241SOL    HW260654   3.126   9.430  10.944  0.3491 -1.2522 -0.9998
50242SOL     OW60655  11.334   8.637   7.377  0.0463  0.3297 -0.3195
50242SOL    HW160656  11.410   8.678   7.336  0.0144  0.4388 -0.2682
50242SOL    HW260657  11.316   8.560   7.323  0.4797  0.0452 -0.0612
50243SOL     OW60658  12.104   3.304   3.870 -0.5830  0.1044  1.0612
50243SOL    HW160659  12.027   3.276   3.821  0.9463 -0.1204 -1.4255
50243SOL    HW260660  12.096   3.400   3.873 -2.2637 -0.0291  3.2987
50244SOL     OW60661   6.428  10.572  11.923  0.4178 -0.2614  0.0228
50244SOL    HW160662   6.421  10.667  11.915  0.1706 -0.2480  0.3907
50244SOL    HW260663   6.339  10.540  11.909  0.2214 -0.3335  1.3108
50245SOL     OW60664   2.993   1.026   9.943 -0.0182 -0.7901 -0.1598
50245SOL    HW160665   2.920   1.009   9.883 -2.2207  1.4327  1.6640
50245SOL    HW260666   3.008   1.121   9.937  1.4743 -0.9167  0.8987
50246SOL     OW60667   4.233   1.710  13.175 -0.3462  0.1657  0.0751
50246SOL    HW160668   4.190   1.794  13.193 -0.4663 -0.2362  1.8902
50246SOL    HW260669   4.325   1.732  13.166 -0.2753  0.4365  1.2508
50247SOL     OW60670  10.688   6.811  10.683  0.2150 -0.0465 -0.4507
50247SOL    HW160671  10.745   6.805  10.606  0.1234 -0.9245 -0.4716
50247SOL    HW260672  10.603   6.837  10.647  0.4728  0.7704 -0.4831
50248SOL     OW60673   4.828   6.487   4.449  0.4729 -0.2177  0.2082
50248SOL    HW160674   4.895   6.480   4.517 -1.0742 -0.2403  1.7950
50248SOL    HW260675   4.877   6.507   4.369  2.3397 -0.0389  1.3401
50249SOL     OW60676   3.421  11.637   7.742  0.0697  0.4394 -0.1036
50249SOL    HW160677   3.426  11.599   7.830 -0.7700  1.2723  0.3152
50249SOL    HW260678   3.501  11.607   7.699 -0.0410 -0.9101  0.5604
50250SOL     OW60679   8.284   7.115  12.624  0.1087 -0.1950  0.5263
50250SOL    HW160680   8.307   7.195  12.670 -0.6635 -0.7580  1.9346
50250SOL    HW260681   8.191   7.124  12.605 -0.2025 -1.1358  1.5160
50251SOL     OW60682   4.130   6.669   7.577 -0.1040  0.3112  0.1191
50251SOL    HW160683   4.148   6.621   7.658 -0.0728  0.8890  0.4640
50251SOL    HW260684   4.210   6.721   7.562 -0.0839  0.1587 -0.3183
50252SOL     OW60685   3.610   8.699   8.190 -0.4243 -0.6022  0.2634
50252SOL    HW160686   3.651   8.753   8.123  0.6557  0.2333  1.5580
50252SOL    HW260687   3.578   8.762   8.255 -0.8816 -1.4210  0.8479
50253SOL     OW60688  10.555   9.527   7.493  0.2395 -0.4324  0.6361
50253SOL    HW160689  10.557   9.582   7.571  0.0829 -1.1159  1.1267
50253SOL    HW260690  10.647   9.515   7.469  0.2432  1.3057 -0.3939
50254SOL     OW60691   1.201   0.295   8.795  0.3598 -0.5802  0.0319
50254SOL    HW160692   1.229   0.363   8.856 -0.8767  0.9733 -1.0745
50254SOL    HW260693   1.153   0.232   8.849  0.8549 -0.1985  0.9387
50255SOL     OW60694  12.368  10.603   7.904 -0.4277 -0.1610 -0.5434
50255SOL    HW160695  12.390  10.539   7.971  0.7197 -1.2507 -1.9195
50255SOL    HW260696  12.380  10.688   7.948 -1.6938 -0.8300  1.2090
50256SOL     OW60697  10.188  10.263   3.178  0.0166 -0.2629  0.2086
50256SOL    HW160698  10.124  10.329   3.150 -0.8938 -2.1979 -2.8074
50256SOL    HW260699  10.267  10.284   3.128  0.9815  0.6317  2.0290
50257SOL     OW60700   4.761  10.497   6.740  0.3549 -0.5920  0.2281
50257SOL    HW160701   4.728  10.580   6.776  0.4111 -0.0893 -0.8405
50257SOL    HW260702   4.726  10.430   6.799 -0.0781  0.1575  0.8456
50258SOL     OW60703   5.582   9.831   8.824 -0.1143 -0.0179 -0.7949
50258SOL    HW160704   5.533   9.910   8.845 -0.4981 -0.7142  1.1048
50258SOL    HW260705   5.533   9.791   8.753 -0.2306  1.1330 -1.3927
50259SOL     OW60706   5.882  12.539   5.309 -0.6428 -1.1128  0.5371
50259SOL    HW160707   5.960  12.572   5.354 -0.8168 -0.3663  0.3085
50259SOL    HW260708   5.910  12.456   5.270  0.1149 -0.7353  0.2483
50260SOL     OW60709  12.476  12.536   8.575  0.3058  0.0487 -0.1071
50260SOL    HW160710  12.551  12.502   8.526 -0.4544 -0.3990 -0.9919
50260SOL    HW260711  12.402  12.523   8.517 -0.2504  1.8833  0.1349
50261SOL     OW60712  11.933   2.063  10.963  0.1039  0.7818 -0.1869
50261SOL    HW160713  11.904   2.021  10.882  0.2521  0.0085  0.1543
50261SOL    HW260714  11.869   2.133  10.978 -1.2390 -0.4825  0.2111
50262SOL     OW60715   2.641   5.211   3.109 -0.2843  0.0080 -0.1971
50262SOL    HW160716   2.563   5.183   3.156  0.2179  0.7186  1.1074
50262SOL    HW260717   2.619   5.298   3.075 -0.2129  0.0226 -0.2061
50263SOL     OW60718   0.410   1.430   5.514 -0.5200  0.0385 -0.2007
50263SOL    HW160719   0.466   1.374   5.568  0.2206  1.2531  0.3353
50263SOL    HW260720   0.323   1.420   5.551 -0.2905 -0.2987  0.2591
50264SOL     OW60721   7.203   8.289   8.100  0.0462 -0.6706 -0.1507
50264SOL    HW160722   7.114   8.270   8.070 -0.8246  0.6868  1.3610
50264SOL    HW260723   7.250   8.318   8.022 -1.3523  0.2439 -0.6864
50265SOL     OW60724  11.003  13.126  12.370  0.4354 -0.5082  0.0330
50265SOL    HW160725  11.032  13.036  12.352  1.1424 -0.2490 -0.1641
50265SOL    HW260726  10.964  13.122  12.457  0.9447 -0.8993  0.2470
50266SOL     OW60727   2.421   3.683   2.469 -0.0952 -0.1187 -0.5650
50266SOL    HW160728   2.501   3.735   2.475  0.1215 -0.2795 -1.8301
50266SOL    HW260729   2.446   3.598   2.506  0.4196 -0.2723 -1.2455
50267SOL     OW60730   3.965  11.598   8.896 -0.1512 -0.1937 -0.3702
50267SOL    HW160731   3.940  11.662   8.829  2.3077 -0.0386 -1.2390
50267SOL    HW260732   4.033  11.642   8.947  1.9835 -2.1715 -1.3072
50268SOL     OW60733  12.838   4.965   4.447 -0.1147  0.0468 -0.8450
50268SOL    HW160734  12.745   4.947   4.433 -0.7929  1.7558  0.9423
50268SOL    HW260735  12.877   4.879   4.461 -1.3914 -0.7195 -1.7805
50269SOL     OW60736  12.301  12.751   0.935  0.0828 -0.0783  0.0220
50269SOL    HW160737  12.292  12.776   1.028 -0.2456 -0.4463  0.0905
50269SOL    HW260738  12.233  12.686   0.921  0.9900 -1.0161 -0.1328
50270SOL     OW60739   4.387  10.564   8.181 -0.1308 -0.1840  0.2698
50270SOL    HW160740   4.476  10.570   8.214  0.2297 -0.9529 -0.5132
50270SOL    HW260741   4.368  10.470   8.180 -0.8562 -0.0476  0.1847
50271SOL     OW60742  11.026   2.185   2.861 -1.0295  0.4477  0.5353
50271SOL    HW160743  11.054   2.273   2.886  0.6065  0.2029 -0.2937
50271SOL    HW260744  11.028   2.185   2.765  0.4320 -0.8766  0.5091
50272SOL     OW60745   6.098  11.381   0.378  0.5093 -0.0678  0.3120
50272SOL    HW160746   6.012  11.339   0.386 -0.3292  1.6778  0.7885
50272SOL    HW260747   6.110  11.427   0.461  1.4484  0.5571 -0.1581
50273SOL     OW60748   6.466   1.685   0.266  0.1373  0.6012  0.2587
50273SOL    HW160749   6.559   1.705   0.276  0.6296  0.1129 -2.4480
50273SOL    HW260750   6.455   1.668   0.172 -2.6938  0.6386  0.4833
50274SOL     OW60751  10.680   7.171   8.219 -0.1796  0.1037 -0.3366
50274SOL    HW160752  10.761   7.205   8.258 -0.8533  1.1369  0.2329
50274SOL    HW260753  10.613   7.188   8.286 -1.4462  2.2075 -2.0023
50275SOL     OW60754   0.883   9.158   4.258  0.2793  0.4899  0.6150
50275SOL    HW160755   0.977   9.165   4.274  0.7553 -0.9157 -1.1728
50275SOL    HW260756   0.857   9.243   4.223  1.1081  0.5906  0.2342
50276SOL     OW60757   4.755   7.829   1.003  0.4385 -0.4478  0.2927
50276SOL    HW160758   4.682   7.808   1.062  0.0744 -2.6818 -0.8602
50276SOL    HW260759   4.730   7.914   0.964 -0.9193 -0.5483  0.8788
50277SOL     OW60760  12.472   5.195   4.332  0.1935 -0.0276 -0.7603
50277SOL    HW160761  12.395   5.244   4.360  0.3546 -0.0029 -0.3533
50277SOL    HW260762  12.546   5.252   4.352  0.3745 -0.3817 -0.3860
50278SOL     OW60763  10.670   6.586   6.933 -0.0726 -0.5418  0.0806
50278SOL    HW160764  10.662   6.651   7.003  1.5091 -2.3844  2.0996
50278SOL    HW260765  10.579   6.563   6.911 -0.6736  2.1842 -0.6572
50279SOL     OW60766   7.683  11.929   0.062 -0.2084  0.4475  0.5026
50279SOL    HW160767   7.613  11.992   0.044  1.7234  2.2895 -0.9635
50279SOL    HW260768   7.646  11.873   0.131 -3.4187  0.7621 -0.7476
50280SOL     OW60769   0.867  12.497   8.317 -0.2874 -0.7996  0.4204
50280SOL    HW160770   0.794  12.442   8.289 -1.7086  0.4832  1.4047
50280SOL    HW260771   0.894  12.460   8.401 -0.2812 -0.8834  0.3802
50281SOL     OW60772  11.433  11.286   8.086  0.6633  0.1774 -0.6766
50281SOL    HW160773  11.508  11.260   8.139  0.3890  0.9083  0.0879
50281SOL    HW260774  11.468  11.354   8.028  0.9632 -0.6222 -1.4529
50282SOL     OW60775   8.039   0.831   5.875 -0.3479  0.1671  0.5974
50282SOL    HW160776   8.110   0.894   5.859 -0.2202 -0.1699 -0.2409
50282SOL    HW260777   7.973   0.853   5.810 -0.8854  0.2752  1.1705
50283SOL     OW60778   4.692   0.485   7.974  0.3968  0.4111 -0.1442
50283SOL    HW160779   4.682   0.414   7.910  0.2185 -0.8220  1.1913
50283SOL    HW260780   4.606   0.492   8.015  1.2929 -1.0952  2.1982
50284SOL     OW60781  13.059   0.482   1.494 -0.0186  0.1015  0.6829
50284SOL    HW160782  13.137   0.506   1.543  1.6030 -3.0003 -0.0846
50284SOL    HW260783  13.019   0.411   1.546  0.2365 -1.3837 -1.0348
50285SOL     OW60784   4.273   9.024   9.153 -0.1337 -0.1614 -0.3570
50285SOL    HW160785   4.204   8.961   9.134 -0.5969  0.4559 -0.7439
50285SOL    HW260786   4.350   8.970   9.171 -0.3461 -0.8321 -1.3697
50286SOL     OW60787   1.714   0.963   4.763  0.3101 -0.5424  0.1618
50286SOL    HW160788   1.782   0.896   4.778  0.3994 -0.1886  1.4805
50286SOL    HW260789   1.644   0.940   4.824  0.4249  0.6754  0.7802
50287SOL     OW60790   0.389   5.161  12.957 -0.1641 -0.6841  0.6032
50287SOL    HW160791   0.322   5.094  12.957 -0.5841 -0.2702  1.0787
50287SOL    HW260792   0.462   5.123  13.007 -0.4832 -0.7077  1.0531
50288SOL     OW60793   3.701  10.308   9.114  0.0305 -0.0607 -0.0576
50288SOL    HW160794   3.654  10.390   9.098  1.5385  0.6587 -1.0309
50288SOL    HW260795   3.657  10.270   9.191 -0.6921  1.6619  0.4300
50289SOL     OW60796   6.633   0.939   6.780  0.3433 -0.1273  0.4957
50289SOL    HW160797   6.683   0.914   6.858  0.9987  0.9104  0.4133
50289SOL    HW260798   6.660   0.876   6.713 -0.6712 -1.4194  1.2237
50290SOL     OW60799  12.775  12.246   9.933  0.1300 -0.3133 -0.2527
50290SOL    HW160800  12.827  12.220   9.857 -0.0606 -0.4473 -0.3371
50290SOL    HW260801  12.722  12.169   9.954 -1.3054  0.3551 -1.2362
50291SOL     OW60802   6.092  10.333   2.995  0.0669 -0.5393 -0.3797
50291SOL    HW160803   6.122  10.365   2.910 -1.5328  3.3302  0.3256
50291SOL    HW260804   5.998  10.317   2.983 -0.8879  2.9623  1.1984
50292SOL     OW60805   3.443  10.471   1.285 -0.4957  0.5670  0.4284
50292SOL    HW160806   3.368  10.519   1.320  0.1739  1.2765  0.9206
50292SOL    HW260807   3.429  10.380   1.314 -1.6939  0.4617 -0.3816
50293SOL     OW60808  12.733   1.440  12.021  0.3801  0.0385 -0.0102
50293SOL    HW160809  12.712   1.354  11.986 -3.3125  0.8988 -0.3027
50293SOL    HW260810  12.681   1.501  11.968  2.3966  2.4570  0.5683
50294SOL     OW60811   5.463   8.271   2.222 -0.0644  0.0219  0.6469
50294SOL    HW160812   5.436   8.314   2.140 -1.0785 -1.2496  0.2713
50294SOL    HW260813   5.386   8.221   2.248  0.9653 -1.2928  1.2336
50295SOL     OW60814   3.045  12.726   5.320  0.2301 -0.3616  0.2422
50295SOL    HW160815   3.137  12.742   5.339 -0.0333  2.5454 -0.4803
50295SOL    HW260816   3.003  12.720   5.406  0.9103 -0.4561  0.5700
50296SOL     OW60817   2.710   9.548   7.162  0.6129  0.0458  0.2842
50296SOL    HW160818   2.707   9.456   7.186  0.9059  0.2235  1.0180
50296SOL    HW260819   2.739   9.593   7.241  1.4863  0.6569 -0.3614
50297SOL     OW60820   4.005  10.005   0.966  0.2803  0.3859  0.4642
50297SOL    HW160821   3.926  10.051   0.938 -0.9864 -2.0389 -0.3102
50297SOL    HW260822   4.069  10.023   0.898 -0.0145  1.3499  0.4304
50298SOL     OW60823   2.982   9.976   0.388 -0.0353  0.2882  0.7715
50298SOL    HW160824   3.024   9.972   0.302 -1.4990  0.3441  0.0240
50298SOL    HW260825   3.054   9.987   0.450  1.1792 -1.1930 -0.3043
50299SOL     OW60826  11.829   7.931   3.765  0.3282 -0.2937 -0.3082
50299SOL    HW160827  11.890   7.936   3.838  0.1781  2.6998 -0.2615
50299SOL    HW260828  11.879   7.962   3.690 -0.8534  1.6075 -0.3858
50300SOL     OW60829   6.875  10.867   7.313  0.1640 -0.2486  0.0135
50300SOL    HW160830   6.914  10.813   7.244  0.9871 -0.7478  0.8491
50300SOL    HW260831   6.781  10.855   7.302  0.3143 -1.5676 -0.0585
50301SOL     OW60832   6.090   6.540   0.866 -0.1115 -0.6439  0.1509
50301SOL    HW160833   6.123   6.589   0.942  0.4931  0.9952 -1.1022
50301SOL    HW260834   5.999   6.568   0.857  0.0830 -0.1174 -0.2521
50302SOL     OW60835   7.406   2.564   8.265  0.3099  0.1018  0.1561
50302SOL    HW160836   7.339   2.618   8.223  0.4193  1.1500  1.2765
50302SOL    HW260837   7.425   2.495   8.201 -1.4663  0.0684 -0.3900
50303SOL     OW60838  10.488  12.347   5.701 -0.0574 -0.0871 -0.2582
50303SOL    HW160839  10.565  12.309   5.660  0.3975  0.3229  0.2100
50303SOL    HW260840  10.464  12.285   5.771 -0.0343 -0.1121 -0.2730
50304SOL     OW60841   3.116   5.613   1.125 -0.5380 -0.2894 -0.3293
50304SOL    HW160842   3.166   5.691   1.099 -0.6421 -0.3943 -0.8480
50304SOL    HW260843   3.101   5.625   1.219  0.3246 -0.1830 -0.1960
50305SOL     OW60844  12.033  10.618  12.435  0.1165  0.5958  0.4848
50305SOL    HW160845  12.035  10.574  12.350 -0.9740  0.9865  0.2487
50305SOL    HW260846  12.028  10.546  12.498 -0.4486  0.3417  0.1558
50306SOL     OW60847   8.734   0.726   2.163  0.0696  0.1227  0.5355
50306SOL    HW160848   8.682   0.692   2.091  0.0133 -0.8210  1.0026
50306SOL    HW260849   8.816   0.756   2.123  0.6937 -1.8358  0.2552
50307SOL     OW60850   7.911   5.714   3.481 -0.5962  0.3247  0.0271
50307SOL    HW160851   7.964   5.700   3.560  1.3635  0.7499 -1.1524
50307SOL    HW260852   7.876   5.802   3.492 -1.2893 -0.0456  0.9292
50308SOL     OW60853  11.311   9.338  10.510  0.3109  0.4226 -0.1689
50308SOL    HW160854  11.263   9.264  10.547  0.2952  1.3116  1.7302
50308SOL    HW260855  11.400   9.307  10.501  0.4134  0.2823  1.1053
50309SOL     OW60856   1.825   6.541  11.647 -0.1222 -0.3425  0.9348
50309SOL    HW160857   1.919   6.531  11.659 -0.1257 -1.2653  0.2986
50309SOL    HW260858   1.791   6.556  11.736  0.9981  4.0208  0.8589
50310SOL     OW60859  12.500   0.567   5.796 -0.1491  0.0707 -0.3494
50310SOL    HW160860  12.421   0.513   5.797  0.7128 -1.3255 -1.9453
50310SOL    HW260861  12.523   0.577   5.888 -0.4953 -2.1154  0.0430
50311SOL     OW60862   6.123   2.858   0.075 -0.4381  0.0403  0.4297
50311SOL    HW160863   6.161   2.944   0.057 -1.0985  0.4970  1.1534
50311SOL    HW260864   6.049   2.851   0.016  1.9982 -1.8602 -2.7682
50312SOL     OW60865   3.457  10.918   9.295 -0.3292 -0.2542 -0.2057
50312SOL    HW160866   3.498  10.835   9.320 -2.0973 -1.0632  0.1820
50312SOL    HW260867   3.368  10.912   9.329 -0.2526  2.2213  0.6573
50313SOL     OW60868   0.369   5.782  11.208  0.0355 -0.1276  0.5582
50313SOL    HW160869   0.462   5.785  11.231  0.4377  1.4975 -1.0879
50313SOL    HW260870   0.336   5.870  11.228 -0.6103 -0.0086 -0.8841
50314SOL     OW60871   7.788  12.446  12.077  0.0139  0.0819  0.0215
50314SOL    HW160872   7.711  12.464  12.023 -0.4939 -1.3145  0.2461
50314SOL    HW260873   7.784  12.512  12.146 -1.3347 -0.3355  0.3733
50315SOL     OW60874   7.639  11.012   4.474  0.0811 -0.3213  0.3491
50315SOL    HW160875   7.618  10.930   4.519 -0.9785  0.1720  0.7817
50315SOL    HW260876   7.734  11.011   4.466  0.0358 -2.0968 -0.6266
50316SOL     OW60877   7.482   9.528   3.863 -0.2126 -0.5164 -0.3209
50316SOL    HW160878   7.483   9.528   3.959 -2.3116  1.3129 -0.2359
50316SOL    HW260879   7.474   9.435   3.839 -1.3488 -0.8728  1.3268
50317SOL     OW60880   2.880   1.047   6.518 -0.0771  0.2841 -0.1086
50317SOL    HW160881   2.882   1.131   6.563  1.4511  0.3201 -0.2098
50317SOL    HW260882   2.864   0.983   6.588 -1.6637  0.6446 -0.0859
50318SOL     OW60883   8.443   5.220   2.620 -0.4432 -0.1343  0.1933
50318SOL    HW160884   8.384   5.188   2.688  0.1419 -0.3450  0.6047
50318SOL    HW260885   8.487   5.142   2.587 -1.4210 -0.1617 -1.1066
50319SOL     OW60886   2.520   0.564   1.835  0.2575  0.0539 -0.2694
50319SOL    HW160887   2.515   0.648   1.789  0.3862  0.6257  0.7309
50319SOL    HW260888   2.574   0.583   1.912  1.2983 -1.2379 -0.6417
50320SOL     OW60889   3.597   5.492   8.522 -0.4572 -0.3723  0.6844
50320SOL    HW160890   3.575   5.462   8.434 -1.4472  1.6046  0.1906
50320SOL    HW260891   3.548   5.434   8.581  0.0559 -1.5854 -0.0516
50321SOL     OW60892   4.919   2.895   2.348 -0.4415  0.0241  0.7309
50321SOL    HW160893   4.868   2.963   2.391 -1.3230  0.4566 -0.9020
50321SOL    HW260894   4.868   2.872   2.270  1.4210 -0.1398 -0.5306
50322SOL     OW60895  11.073   3.353  12.672  0.0975  0.6971 -0.0284
50322SOL    HW160896  11.083   3.258  12.681 -1.9566  0.3322 -1.0766
50322SOL    HW260897  11.041   3.383  12.757 -1.2157  0.1195 -0.3016
50323SOL     OW60898   5.192   1.712  10.647  0.0399 -0.0293 -0.0814
50323SOL    HW160899   5.265   1.663  10.608  1.4590  1.0715  1.0882
50323SOL    HW260900   5.196   1.798  10.605  0.8015  0.7483  1.5283
50324SOL     OW60901   2.026   7.273  10.991 -0.1822  0.1920 -0.1634
50324SOL    HW160902   2.105   7.298  10.943 -0.3077  2.3738  0.6578
50324SOL    HW260903   2.050   7.283  11.083 -0.4466 -2.3401  0.2446
50325SOL     OW60904   6.409   8.015   0.433  0.4834 -0.4270 -0.6725
50325SOL    HW160905   6.415   8.043   0.525  2.2656 -1.0875 -0.5525
50325SOL    HW260906   6.320   7.980   0.425 -0.2240  1.0434  0.3762
50326SOL     OW60907   5.986   7.521  11.065 -0.3417 -0.1648 -0.1734
50326SOL    HW160908   6.037   7.593  11.027  0.4759 -0.7785 -0.2557
50326SOL    HW260909   5.904   7.562  11.093 -0.3638  0.5885 -1.2621
50327SOL     OW60910   1.659   4.323   3.917 -1.0826  0.4626  1.0215
50327SOL    HW160911   1.622   4.408   3.939  0.8713  1.8724 -0.6973
50327SOL    HW260912   1.746   4.324   3.957 -0.7626 -0.4232  0.3696
50328SOL     OW60913   9.668   2.859   3.136  0.2672 -0.2421  0.5365
50328SOL    HW160914   9.636   2.949   3.142 -0.3546 -0.4228  0.0183
50328SOL    HW260915   9.679   2.844   3.042  2.1076 -0.1122  0.7009
50329SOL     OW60916  12.747   7.570  11.069  0.1981  0.3380 -0.0257
50329SOL    HW160917  12.686   7.630  11.026  3.8305  3.4698 -1.3915
50329SOL    HW260918  12.762   7.610  11.155 -0.3990 -0.9686  0.7023
50330SOL     OW60919   9.454   3.237   3.680  0.3557 -0.2654  0.3625
50330SOL    HW160920   9.545   3.240   3.710  0.1189 -0.9874  1.1904
50330SOL    HW260921   9.453   3.166   3.615  0.1056 -1.2352  1.3951
50331SOL     OW60922   0.266   3.589  12.883  0.2197 -0.0565  0.2300
50331SOL    HW160923   0.274   3.494  12.871  1.1818 -0.0400  0.7184
50331SOL    HW260924   0.352   3.617  12.914  0.4161  1.2099 -1.3549
50332SOL     OW60925  11.226  12.691  12.193  0.5107  0.4542 -0.4581
50332SOL    HW160926  11.238  12.636  12.270  0.1146 -0.5552 -1.1002
50332SOL    HW260927  11.202  12.777  12.229 -0.6336 -0.2409  0.5406
50333SOL     OW60928  11.116   6.754   5.039 -0.0172 -0.1195  0.4358
50333SOL    HW160929  11.069   6.803   5.106 -0.9119 -2.1291  1.3326
50333SOL    HW260930  11.058   6.755   4.963 -0.5119 -0.6754  0.8014
50334SOL     OW60931  10.665   9.724   3.241 -0.2081 -0.1662 -0.4820
50334SOL    HW160932  10.620   9.742   3.159 -0.2986  2.1164  0.0043
50334SOL    HW260933  10.603   9.671   3.291 -1.4444  0.9987 -0.7168
50335SOL     OW60934   8.175   1.597   1.835  0.0588 -0.1835 -0.3610
50335SOL    HW160935   8.100   1.581   1.777 -2.4315  0.1807  2.4633
50335SOL    HW260936   8.209   1.682   1.807 -0.8794 -0.1374 -1.4400
50336SOL     OW60937   2.208  11.398  12.867 -0.1338 -0.4369 -0.0203
50336SOL    HW160938   2.220  11.312  12.827 -0.8139 -0.9270  0.8195
50336SOL    HW260939   2.276  11.452  12.827  2.2832 -2.0993  1.5841
50337SOL     OW60940  10.740   8.825  10.756  0.2003 -0.6742 -0.4984
50337SOL    HW160941  10.756   8.914  10.789  2.5796 -0.5267 -1.8435
50337SOL    HW260942  10.726   8.772  10.834  0.6037  0.5491  0.4341
50338SOL     OW60943   3.585   9.901   9.927  1.2252 -0.3169 -0.0493
50338SOL    HW160944   3.554   9.985   9.961 -1.1101 -0.6896 -1.0317
50338SOL    HW260945   3.584   9.912   9.832 -0.9884 -1.9619 -0.2911
50339SOL     OW60946   2.032   5.468   6.293  0.0128 -0.4719  0.4092
50339SOL    HW160947   2.107   5.409   6.295 -0.0669 -0.5662  1.3189
50339SOL    HW260948   1.986   5.451   6.376  0.0872  0.9752  0.7805
50340SOL     OW60949   5.488   1.986   0.588  0.2799  0.7807 -1.1980
50340SOL    HW160950   5.411   1.931   0.582  0.0501  1.0650 -0.9190
50340SOL    HW260951   5.490   2.035   0.506  0.5788  0.2443 -1.5181
50341SOL     OW60952   5.203   3.946  11.512  0.0474  0.1814 -0.5467
50341SOL    HW160953   5.111   3.938  11.535  0.1008  0.5188 -0.2168
50341SOL    HW260954   5.235   4.020  11.563  0.7586 -0.5700  0.1448
50342SOL     OW60955   0.839   7.209   6.571  0.1282 -0.0866 -0.1150
50342SOL    HW160956   0.828   7.261   6.651 -1.8707  0.0836 -0.4302
50342SOL    HW260957   0.909   7.147   6.591  0.3507  0.6204  1.4069
50343SOL     OW60958   3.208   1.171   4.388 -0.1339 -0.1532 -0.2038
50343SOL    HW160959   3.260   1.099   4.423 -0.6781 -0.2558  0.4191
50343SOL    HW260960   3.130   1.174   4.444 -0.6523  0.1914 -0.9255
50344SOL     OW60961  10.409   8.789   0.645  0.3600 -0.2317  0.0636
50344SOL    HW160962  10.469   8.748   0.583 -1.8220 -2.7924 -0.5721
50344SOL    HW260963  10.426   8.745   0.728 -2.4630 -3.3140 -0.7710
50345SOL     OW60964  10.932  13.187   6.328 -0.5611  0.2010 -0.1499
50345SOL    HW160965  10.853  13.212   6.376  0.1399 -0.2687  1.2863
50345SOL    HW260966  10.932  13.091   6.330 -0.2553  0.1844 -0.6655
50346SOL     OW60967  13.184  12.939   9.919  0.2910  0.4497  0.5948
50346SOL    HW160968  13.274  12.914   9.903  0.9083  0.7005  3.2425
50346SOL    HW260969  13.134  12.896   9.850  2.2069 -1.2813  0.2133
50347SOL     OW60970  12.595   3.664  12.081  0.2232 -0.0746 -0.1420
50347SOL    HW160971  12.659   3.593  12.092  1.9680  1.4266 -0.0242
50347SOL    HW260972  12.531   3.649  12.151  3.3027  1.2338  3.2988
50348SOL     OW60973  12.121  11.920   3.174 -0.7346  0.3099 -0.2908
50348SOL    HW160974  12.034  11.892   3.203  0.0773 -0.5760  1.4359
50348SOL    HW260975  12.155  11.844   3.126 -0.6764  0.4256 -0.4327
50349SOL     OW60976  11.620   2.994   3.141  0.3763 -0.8611  0.3503
50349SOL    HW160977  11.567   2.918   3.165 -2.0667 -0.0896 -2.0851
50349SOL    HW260978  11.665   2.967   3.062 -0.9878  0.3314 -0.8856
50350SOL     OW60979   9.463   7.345   3.051 -0.1522  0.0338 -0.1012
50350SOL    HW160980   9.549   7.317   3.083 -0.1319 -0.4531 -0.5857
50350SOL    HW260981   9.408   7.347   3.130  1.2167  4.1557  1.0421
50351SOL     OW60982   8.047   2.598  11.381 -0.4476  0.2804 -0.0722
50351SOL    HW160983   7.969   2.550  11.409 -0.7976 -0.0197 -1.4960
50351SOL    HW260984   8.024   2.690  11.390 -0.8248  0.1913 -0.1181
50352SOL     OW60985   2.403   0.267  11.195  0.5602  0.0323 -0.4247
50352SOL    HW160986   2.462   0.242  11.266  1.4185  0.1301 -1.0932
50352SOL    HW260987   2.323   0.216  11.212  0.1677  1.1436  1.4340
50353SOL     OW60988   6.403   6.587   0.084 -0.4785 -0.0493  0.0827
50353SOL    HW160989   6.421   6.495   0.102 -0.7071 -0.1395 -0.1544
50353SOL    HW260990   6.467   6.612   0.018 -1.2636 -0.3972 -0.8367
50354SOL     OW60991   7.535   8.843   6.538  0.2971  0.5292  0.0465
50354SOL    HW160992   7.554   8.898   6.613 -1.6817  0.5948  0.5501
50354SOL    HW260993   7.486   8.899   6.477  1.4182  0.3340 -1.0860
50355SOL     OW60994   8.131   7.989   1.598  0.2271 -0.2380  0.0339
50355SOL    HW160995   8.122   8.052   1.526 -0.9131 -1.4941 -0.9622
50355SOL    HW260996   8.048   7.942   1.599  1.0335 -1.6992  0.7827
50356SOL     OW60997   8.599   6.387   5.214  0.0172  0.3333 -0.4465
50356SOL    HW160998   8.556   6.425   5.138  1.7952  2.1734 -0.6084
50356SOL    HW260999   8.541   6.408   5.287 -0.9226 -0.0653 -1.0622
50357SOL     OW61000   4.110  10.834  10.134 -0.2004 -0.5421 -0.5339
50357SOL    HW161001   4.147  10.746  10.127 -0.1855 -0.5664 -0.1540
50357SOL    HW261002   4.187  10.892  10.135 -0.2274 -0.4309 -1.9222
50358SOL     OW61003   2.772   1.764   8.253 -0.7092 -0.3596  0.1630
50358SOL    HW161004   2.703   1.757   8.187 -0.1482  0.0453 -0.4868
50358SOL    HW261005   2.802   1.855   8.246  2.8784 -1.5041 -2.7277
50359SOL     OW61006  11.684   0.814   6.705 -0.1507  0.5647 -0.1614
50359SOL    HW161007  11.673   0.773   6.619 -0.9268  0.5067 -0.0395
50359SOL    HW261008  11.778   0.828   6.713  0.0639 -0.6168 -0.4757
50360SOL     OW61009  11.568  11.278   4.387  0.0116 -0.6498  0.2330
50360SOL    HW161010  11.484  11.318   4.367  0.2583  0.9747  2.2201
50360SOL    HW261011  11.617  11.283   4.304 -0.3603  2.2636  0.0979
50361SOL     OW61012   3.292  12.071   6.922  0.1065  0.1182 -0.3574
50361SOL    HW161013   3.259  11.985   6.897  0.4525  0.4481 -2.0884
50361SOL    HW261014   3.283  12.074   7.017 -2.7019 -0.6777 -0.5096
50362SOL     OW61015   9.699   6.475   1.013  0.5445 -0.4475  0.0452
50362SOL    HW161016   9.625   6.520   1.054  0.6528 -0.1116 -0.1279
50362SOL    HW261017   9.775   6.500   1.066  0.7919  0.5418 -0.7735
50363SOL     OW61018  10.915   9.949   3.090  0.1664 -0.1276  0.6877
50363SOL    HW161019  10.861   9.872   3.071  2.3814 -1.4754 -0.6356
50363SOL    HW261020  10.989   9.915   3.141  1.9091  0.8009 -1.0782
50364SOL     OW61021   1.635   0.644   2.017  0.2564 -0.5844 -0.5533
50364SOL    HW161022   1.597   0.702   2.082 -1.7725 -1.4631 -0.8749
50364SOL    HW261023   1.658   0.701   1.944  1.9940  0.3194  0.6208
50365SOL     OW61024   4.622  12.028   5.664  0.1841 -0.0234  0.7879
50365SOL    HW161025   4.643  11.944   5.704  0.2712 -0.6922 -0.6065
50365SOL    HW261026   4.612  12.009   5.571 -1.1041  1.2829  0.6186
50366SOL     OW61027   4.416   7.832  10.587 -0.2983  0.0207  0.1510
50366SOL    HW161028   4.405   7.916  10.631  0.1742  0.9554 -1.4143
50366SOL    HW261029   4.362   7.840  10.508 -0.4584 -1.2597  0.1144
50367SOL     OW61030   2.756   8.892   8.040  0.1092  0.8102 -0.0844
50367SOL    HW161031   2.677   8.841   8.023  0.4513  0.1273  0.3304
50367SOL    HW261032   2.821   8.828   8.069  0.2693  1.5791  1.4154
50368SOL     OW61033  12.071   1.553  12.803  0.0451  0.4951  0.5275
50368SOL    HW161034  12.065   1.533  12.709 -0.1125 -1.5765  0.9452
50368SOL    HW261035  12.010   1.626  12.815 -1.0709 -0.1696 -0.7448
50369SOL     OW61036   3.744   2.596  11.525 -0.5391 -0.2417  0.1363
50369SOL    HW161037   3.733   2.534  11.597 -0.5673 -0.1720  0.1925
50369SOL    HW261038   3.660   2.642  11.520  0.1965  1.3884  1.5899
50370SOL     OW61039   2.232  12.431   8.766 -0.2154 -0.0161  0.1024
50370SOL    HW161040   2.162  12.369   8.743  0.7080 -0.5227 -1.4780
50370SOL    HW261041   2.311  12.378   8.767  0.3306  0.7848  0.7025
50371SOL     OW61042   0.883  10.895   1.987 -0.3434 -0.2421  0.2693
50371SOL    HW161043   0.792  10.908   2.015 -0.1804 -0.1104  0.7540
50371SOL    HW261044   0.904  10.974   1.938 -0.2855  0.0364  0.7284
50372SOL     OW61045   6.021   1.009   1.085 -0.7560 -0.6114 -0.0411
50372SOL    HW161046   6.052   0.921   1.061 -0.4058 -0.5966  0.3507
50372SOL    HW261047   5.926   1.003   1.076 -0.8168 -1.3207  0.9033
50373SOL     OW61048  11.782   0.091   1.595  0.5081 -0.0922  0.6762
50373SOL    HW161049  11.733   0.138   1.662  0.0829 -1.4578  1.3501
50373SOL    HW261050  11.781   0.150   1.519 -2.4631 -0.1872  0.5320
50374SOL     OW61051   4.967   7.133  10.278 -0.3473 -0.4830  0.6346
50374SOL    HW161052   4.995   7.059  10.332 -0.8177 -1.2123 -0.0901
50374SOL    HW261053   5.009   7.118  10.194 -2.6142 -1.4586 -0.3954
50375SOL     OW61054   2.551   3.620   6.444  0.0983 -0.0745  0.1994
50375SOL    HW161055   2.574   3.615   6.351  0.1815 -1.6950  0.2803
50375SOL    HW261056   2.584   3.538   6.481  0.3139  0.6783  1.7239
50376SOL     OW61057   2.002  12.470   8.033  0.1467 -0.4517  0.4761
50376SOL    HW161058   2.059  12.449   8.107 -2.4602 -1.8931  2.2471
50376SOL    HW261059   2.001  12.565   8.029  0.6229 -0.3549  2.0972
50377SOL     OW61060   4.913  12.576   8.395  0.5984 -0.0334  0.4555
50377SOL    HW161061   4.867  12.628   8.462 -0.2082  0.0500 -0.1546
50377SOL    HW261062   4.998  12.619   8.387  0.0950  0.9765  0.2534
50378SOL     OW61063   7.384  13.305   1.353  0.0615  0.0836 -0.2611
50378SOL    HW161064   7.463  13.287   1.302 -0.8633  0.2591 -1.8238
50378SOL    HW261065   7.331  13.226   1.342 -1.2385  1.1095 -1.7531
50379SOL     OW61066   1.119  12.828  12.882  0.0273  0.6641 -0.6753
50379SOL    HW161067   1.085  12.908  12.923 -1.0841  0.2706 -0.8165
50379SOL    HW261068   1.123  12.764  12.953  0.5078  0.7122 -0.6546
50380SOL     OW61069   5.392  12.595   6.436 -0.1564 -0.1795 -0.4065
50380SOL    HW161070   5.427  12.616   6.523  0.8286 -0.5625 -0.6976
50380SOL    HW261071   5.390  12.679   6.390  1.7108 -0.3202 -0.8343
50381SOL     OW61072   6.172   5.610  10.840 -0.1058  0.0741 -0.2539
50381SOL    HW161073   6.162   5.565  10.924  0.5040 -0.6366 -0.5548
50381SOL    HW261074   6.245   5.565  10.797  0.3368  1.1736 -0.6816
50382SOL     OW61075   0.604   7.746  10.113 -0.2468  0.3305 -0.1790
50382SOL    HW161076   0.552   7.717  10.188  2.2180  0.7531  1.8144
50382SOL    HW261077   0.640   7.830  10.140  1.5253  0.0186 -1.3925
50383SOL     OW61078   6.701  10.248   8.276  0.0012  1.0312  0.4006
50383SOL    HW161079   6.692  10.337   8.242 -0.5528  1.2036  0.9884
50383SOL    HW261080   6.663  10.192   8.208 -1.0365  1.3696  0.6886
50384SOL     OW61081   3.129   3.723   0.588  0.0215 -0.2680  0.9796
50384SOL    HW161082   3.099   3.806   0.551 -1.2275 -0.4623  1.5020
50384SOL    HW261083   3.081   3.656   0.539  1.5687 -0.7454  0.0563
50385SOL     OW61084   3.550  12.957   3.930 -0.1108  0.3571 -0.6060
50385SOL    HW161085   3.622  13.018   3.944  0.5466 -0.4554 -0.3317
50385SOL    HW261086   3.490  12.973   4.003  0.7797 -0.3198  0.3055
50386SOL     OW61087  10.604   5.492  10.664  0.3857  0.2325 -0.3735
50386SOL    HW161088  10.644   5.568  10.621  0.3520 -0.3545 -1.4656
50386SOL    HW261089  10.608   5.513  10.758  0.8098  1.3658 -0.6270
50387SOL     OW61090  11.681  11.826   0.154 -0.0649  0.4213  0.3056
50387SOL    HW161091  11.683  11.823   0.250  3.1745 -2.2564  0.3240
50387SOL    HW261092  11.662  11.736   0.128  0.0508  0.9025 -1.5532
50388SOL     OW61093   8.432  11.519   7.902 -0.2078  0.1601 -0.6744
50388SOL    HW161094   8.475  11.584   7.957  0.8560  0.7105 -2.1085
50388SOL    HW261095   8.428  11.559   7.816 -1.0076 -1.0470 -1.2237
50389SOL     OW61096   6.991   2.068   4.788  0.0613 -0.1559  0.5348
50389SOL    HW161097   6.904   2.082   4.826 -0.1394 -0.1548  0.0862
50389SOL    HW261098   6.975   2.016   4.709  0.3227  0.8411 -0.2021
50390SOL     OW61099  10.604   8.876   5.618  0.2273  0.1613 -0.0660
50390SOL    HW161100  10.621   8.822   5.540  1.2836 -2.1724  1.6735
50390SOL    HW261101  10.520   8.845   5.651 -0.0391  0.8980 -0.0207
50391SOL     OW61102   0.448   7.252   7.256  0.6067 -0.4261 -0.3173
50391SOL    HW161103   0.366   7.204   7.271  0.2317  0.2077 -0.3114
50391SOL    HW261104   0.441   7.329   7.312 -0.4089  1.5331 -2.9704
50392SOL     OW61105   1.518  11.852  11.262 -0.1431  0.7356  0.3504
50392SOL    HW161106   1.460  11.919  11.300 -3.3987 -1.5138 -0.1781
50392SOL    HW261107   1.477  11.830  11.179  2.2592 -0.2058 -0.6657
50393SOL     OW61108   3.343   0.605   6.213 -0.4870 -0.2809  0.2108
50393SOL    HW161109   3.424   0.572   6.176 -0.6886 -0.4458 -0.0874
50393SOL    HW261110   3.284   0.613   6.138 -0.7503 -0.1830  0.4274
50394SOL     OW61111   9.941   4.443   4.393  0.2222  0.1859  0.3152
50394SOL    HW161112   9.881   4.509   4.428  1.1660  1.6243 -0.6758
50394SOL    HW261113   9.945   4.461   4.300  1.9000 -0.1290  0.3000
50395SOL     OW61114  10.307   1.314   0.494  0.1122  0.1696  0.1092
50395SOL    HW161115  10.271   1.252   0.558  0.5327  1.1278  1.3090
50395SOL    HW261116  10.286   1.400   0.529  1.2510  0.7221 -0.5112
50396SOL     OW61117   6.684   1.575   8.911  0.2952 -0.2607 -0.3042
50396SOL    HW161118   6.717   1.502   8.962 -0.7745 -0.9713 -0.5854
50396SOL    HW261119   6.619   1.618   8.967  0.4365  0.0699 -0.3868
50397SOL     OW61120   3.893   1.943   0.770  0.0106  0.1667  0.1164
50397SOL    HW161121   3.823   1.945   0.704 -0.7007 -0.1235  0.8407
50397SOL    HW261122   3.963   1.996   0.733 -0.3204 -0.1111 -0.9348
50398SOL     OW61123   1.187   5.881   4.043  0.4647 -0.3276  0.0344
50398SOL    HW161124   1.153   5.924   4.122 -1.6916 -1.7963  0.0028
50398SOL    HW261125   1.233   5.804   4.075  0.2851 -0.4862 -0.0828
50399SOL     OW61126  11.263   9.120   8.613 -0.1538  0.6368 -0.6594
50399SOL    HW161127  11.236   9.040   8.567 -0.5112  1.0581 -1.1844
50399SOL    HW261128  11.332   9.090   8.673 -0.9936 -0.2522 -0.1059
50400SOL     OW61129   0.766   6.752   1.144  0.5013  0.2764  0.1774
50400SOL    HW161130   0.750   6.789   1.058  0.4068 -0.1684  0.0010
50400SOL    HW261131   0.806   6.823   1.194  0.0311  0.7086 -0.0542
50401SOL     OW61132   5.485   9.818   6.030 -0.0972  0.0052  0.5964
50401SOL    HW161133   5.464   9.771   6.111  0.6223  0.3475  0.9934
50401SOL    HW261134   5.570   9.858   6.047  0.3844 -0.4870 -0.5862
50402SOL     OW61135   1.649   8.426   8.698  0.6783  0.0401  0.6571
50402SOL    HW161136   1.568   8.408   8.651  0.0082 -0.1328  1.8391
50402SOL    HW261137   1.677   8.341   8.731  0.5849  0.2885  1.4109
50403SOL     OW61138   8.834  10.636  12.157  0.1139 -0.0256  0.4019
50403SOL    HW161139   8.925  10.663  12.145  0.0063  1.3624  2.2724
50403SOL    HW261140   8.805  10.684  12.235 -1.6221 -1.9775  1.0367
50404SOL     OW61141  12.429   8.682  11.765  0.4203  0.3018 -0.5112
50404SOL    HW161142  12.501   8.663  11.705  0.0637 -0.9695 -0.5571
50404SOL    HW261143  12.350   8.663  11.715  0.1174 -1.2784  0.4882
50405SOL     OW61144   2.780   6.386   8.826  0.0937  0.3277 -0.0510
50405SOL    HW161145   2.772   6.474   8.790 -1.9747  0.2668  0.1377
50405SOL    HW261146   2.724   6.332   8.770  1.7009 -1.0055 -0.4714
50406SOL     OW61147   6.510   5.790   5.500  0.2613 -0.1425 -0.3503
50406SOL    HW161148   6.435   5.766   5.445 -1.1655  1.8185  0.6465
50406SOL    HW261149   6.573   5.830   5.439 -0.0519 -0.5923 -0.9840
50407SOL     OW61150   8.639  12.142   8.874 -0.1212  0.2430  0.0940
50407SOL    HW161151   8.585  12.173   8.947 -1.8698 -2.2274 -0.0091
50407SOL    HW261152   8.708  12.207   8.866 -0.8687  1.5312  2.8121
50408SOL     OW61153   6.512   0.253   8.200 -0.2546 -0.1920 -0.4201
50408SOL    HW161154   6.555   0.332   8.168 -0.3275 -0.1121 -0.3222
50408SOL    HW261155   6.429   0.284   8.236 -0.4595 -0.3666 -0.7473
50409SOL     OW61156   5.102  10.035  12.285 -0.1087 -0.0956  0.5633
50409SOL    HW161157   5.064   9.976  12.351  0.2186  0.9521  1.7272
50409SOL    HW261158   5.153  10.098  12.336  2.4987 -0.9069 -0.8588
50410SOL     OW61159   3.160   5.136   8.077  0.6176 -0.5097 -0.7094
50410SOL    HW161160   3.069   5.107   8.083  0.4990 -0.2677 -1.2680
50410SOL    HW261161   3.155   5.225   8.042  1.0029 -0.0082  0.4815
50411SOL     OW61162  12.080   4.801   9.624 -0.0124  0.2061 -0.6374
50411SOL    HW161163  12.004   4.826   9.677 -1.0032 -0.3385 -1.7293
50411SOL    HW261164  12.125   4.884   9.607  0.9320  0.2720  1.8574
50412SOL     OW61165  10.632   4.629  12.275  0.3220  0.1852  0.2878
50412SOL    HW161166  10.625   4.544  12.320  1.3363  0.2593  0.6128
50412SOL    HW261167  10.639   4.693  12.346 -1.4205  0.6752  0.0751
50413SOL     OW61168   5.100   4.654  12.689  0.0953  0.1488 -0.2129
50413SOL    HW161169   5.086   4.718  12.759 -1.3410  0.0503 -0.3836
50413SOL    HW261170   5.143   4.704  12.619  1.5423  0.2438  0.7105
50414SOL     OW61171  13.269   4.133  12.213 -0.6843 -0.5057  0.2149
50414SOL    HW161172  13.226   4.193  12.152 -1.9516 -0.4411  1.1119
50414SOL    HW261173  13.197   4.080  12.248  0.0667 -0.8333  1.3098
50415SOL     OW61174   2.817   6.367  10.596  0.2594 -0.0972 -0.7404
50415SOL    HW161175   2.814   6.294  10.534 -1.3154 -1.5754  0.9787
50415SOL    HW261176   2.889   6.345  10.655 -0.7105 -0.6881  0.2437
50416SOL     OW61177   7.599   3.444   8.010 -0.0096 -0.1722  0.1050
50416SOL    HW161178   7.680   3.467   8.055 -1.0208 -1.2149  2.6707
50416SOL    HW261179   7.529   3.484   8.063 -1.2284  0.6579 -1.9957
50417SOL     OW61180  10.967   8.075   0.057 -0.2138 -0.0604  0.8851
50417SOL    HW161181  11.033   8.113  -0.001 -0.6861 -1.3255 -0.5635
50417SOL    HW261182  10.920   8.150   0.093 -0.7774  0.7916 -1.4259
50418SOL     OW61183   8.838   9.631   6.059  0.2435  0.3438  0.0959
50418SOL    HW161184   8.862   9.551   6.013 -0.5016 -0.1939  0.6252
50418SOL    HW261185   8.890   9.629   6.139  0.6885  0.7114 -0.1766
50419SOL     OW61186   6.358   8.403  10.962  0.2626  0.3239 -0.4991
50419SOL    HW161187   6.413   8.387  11.038  2.1880  1.4621 -1.5756
50419SOL    HW261188   6.304   8.478  10.986  0.8214  0.6410 -0.2211
50420SOL     OW61189  13.208   6.266   6.116 -0.0262  0.2212  0.2252
50420SOL    HW161190  13.275   6.299   6.056 -1.5972  1.0804 -1.1440
50420SOL    HW261191  13.129   6.316   6.094 -1.3185 -1.2405  1.2850
50421SOL     OW61192   0.536   0.718   0.261 -0.0302  0.0869  0.3235
50421SOL    HW161193   0.611   0.728   0.319  0.7683  0.6329 -0.7575
50421SOL    HW261194   0.460   0.738   0.315  0.7518  1.4722  0.9544
50422SOL     OW61195   1.998   1.444   1.131 -0.0016 -0.3580  0.0194
50422SOL    HW161196   1.992   1.451   1.227  1.6593 -0.0926  0.1321
50422SOL    HW261197   2.077   1.494   1.109 -0.4956 -0.2297 -1.5242
50423SOL     OW61198  11.586   7.753   6.254 -0.0695 -0.3415  0.5549
50423SOL    HW161199  11.540   7.822   6.301  0.9676  0.6592  0.1512
50423SOL    HW261200  11.661   7.733   6.310  0.5403  0.0455 -0.1069
50424SOL     OW61201   6.768   1.087   5.571  0.5476 -0.3243  0.2893
50424SOL    HW161202   6.860   1.096   5.549  0.2692  0.2438 -0.7259
50424SOL    HW261203   6.725   1.064   5.488 -0.4175  0.9650  0.3934
50425SOL     OW61204   1.208   9.002   9.386  0.4272  0.3548  0.2107
50425SOL    HW161205   1.201   8.955   9.302 -0.2494  0.1738  0.3636
50425SOL    HW261206   1.286   8.965   9.427  2.3952  2.3065 -1.4851
50426SOL     OW61207   9.395   8.497   8.699 -0.4226  0.4019  0.0462
50426SOL    HW161208   9.342   8.508   8.620 -0.6161  0.2262  0.1504
50426SOL    HW261209   9.371   8.410   8.732  1.4929 -0.6234 -1.0743
50427SOL     OW61210  12.173   8.619  11.664 -0.3400 -0.4742 -0.3837
50427SOL    HW161211  12.155   8.672  11.741 -1.4586  1.5797 -1.9440
50427SOL    HW261212  12.109   8.548  11.668  0.3295 -1.0281  1.0889
50428SOL     OW61213   2.544   3.743   3.042  0.0021  0.0936 -0.6996
50428SOL    HW161214   2.595   3.664   3.024 -0.0587  0.1122 -0.9555
50428SOL    HW261215   2.581   3.809   2.984  1.6171  0.9029  1.1390
50429SOL     OW61216   3.137   4.912   5.704 -0.7874 -0.1895  0.1302
50429SOL    HW161217   3.138   4.986   5.643  1.1379  0.5940  1.0338
50429SOL    HW261218   3.229   4.885   5.711 -1.2642 -1.7738  0.9079
50430SOL     OW61219   1.058   9.288  12.281  0.3096 -0.1300 -0.4855
50430SOL    HW161220   1.121   9.215  12.283  0.9893  0.3740 -2.0681
50430SOL    HW261221   0.972   9.246  12.290  0.8215 -0.8564  1.4017
50431SOL     OW61222   2.396   4.887   7.389  0.0633 -0.0605 -0.5652
50431SOL    HW161223   2.379   4.822   7.321 -0.3282 -1.1180  0.5083
50431SOL    HW261224   2.417   4.835   7.467  0.0355  1.1074  0.2417
50432SOL     OW61225  12.555  11.946   6.415  0.4625 -0.2923  0.1424
50432SOL    HW161226  12.498  11.874   6.385 -0.6958  0.6093  0.1005
50432SOL    HW261227  12.591  11.914   6.498 -0.6850 -0.6301  0.5433
50433SOL     OW61228  12.115   4.369  10.171 -0.0445  0.2950 -0.9110
50433SOL    HW161229  12.114   4.410  10.085  2.1515  1.4738 -0.4530
50433SOL    HW261230  12.084   4.438  10.231 -0.4306 -0.1248 -0.6219
50434SOL     OW61231   1.818   9.087   8.658 -0.2506 -0.2605  0.1432
50434SOL    HW161232   1.864   9.086   8.575  0.1732 -0.4954  0.3770
50434SOL    HW261233   1.745   9.149   8.645  0.9522  1.2226  0.2148
50435SOL     OW61234   4.284   2.148   2.182  0.0965  0.3737 -0.3685
50435SOL    HW161235   4.332   2.119   2.259 -1.9563 -0.9769  0.4930
50435SOL    HW261236   4.226   2.218   2.214 -0.5578  0.0127 -0.7370
50436SOL     OW61237   9.106   0.610   9.432  0.5340 -0.2088  0.3286
50436SOL    HW161238   9.114   0.680   9.496  1.6712 -2.1130  2.4360
50436SOL    HW261239   9.190   0.609   9.387  1.2149 -1.2466  1.5382
50437SOL     OW61240   6.403   7.673   0.802  0.1963  0.2685  0.0228
50437SOL    HW161241   6.476   7.639   0.854  0.1239  0.5141  0.2944
50437SOL    HW261242   6.434   7.672   0.712 -0.2895 -1.7908 -0.1543
50438SOL     OW61243   7.507   3.050   0.582  0.0285  0.1760 -0.1753
50438SOL    HW161244   7.579   3.105   0.550  1.3195 -1.1189  0.4545
50438SOL    HW261245   7.523   2.964   0.544 -1.4083 -0.0592 -0.3170
50439SOL     OW61246   1.461   8.029   6.152 -0.2555  0.0323  0.0435
50439SOL    HW161247   1.465   8.125   6.155 -0.6805  0.1971 -2.6199
50439SOL    HW261248   1.386   8.007   6.209 -2.5360  1.6292 -2.1109
50440SOL     OW61249   9.903  13.262   5.150  0.2517 -0.1944 -0.1849
50440SOL    HW161250   9.858  13.195   5.202 -0.3604 -0.1826 -0.6804
50440SOL    HW261251   9.993  13.231   5.144 -0.1724 -1.3579 -0.9962
50441SOL     OW61252   5.577  11.169   6.458 -0.2551 -0.0158 -0.0920
50441SOL    HW161253   5.546  11.259   6.466  0.3910  0.1533  0.6033
50441SOL    HW261254   5.635  11.171   6.381 -0.4883  0.0865 -0.2664
50442SOL     OW61255   4.469   0.947   5.284  0.0685  0.1782 -0.5407
50442SOL    HW161256   4.374   0.953   5.275 -0.0831  1.3821  1.2044
50442SOL    HW261257   4.501   1.032   5.252  0.3661  0.4833  0.5266
50443SOL     OW61258   2.450   1.239   5.550 -0.0578  0.4090  0.3297
50443SOL    HW161259   2.414   1.302   5.488 -1.0989 -1.6422 -1.2835
50443SOL    HW261260   2.504   1.181   5.496 -0.5755 -1.1392  1.4079
50444SOL     OW61261   1.869  12.234   2.189 -0.4193 -0.1596 -0.1203
50444SOL    HW161262   1.867  12.260   2.281 -0.5450  1.1470 -0.4754
50444SOL    HW261263   1.804  12.164   2.182  1.2274 -1.9142  1.2300
50445SOL     OW61264   1.582   0.119   2.095 -0.1825 -0.3796 -0.2311
50445SOL    HW161265   1.627   0.119   2.179  0.8298  1.2702 -0.7263
50445SOL    HW261266   1.594   0.208   2.061 -2.2199 -0.4294 -1.2492
50446SOL     OW61267   9.797   8.422   2.358 -0.6199 -0.4019  0.0497
50446SOL    HW161268   9.852   8.440   2.435 -0.3227  0.2908 -0.3185
50446SOL    HW261269   9.853   8.371   2.300 -0.6460 -0.4125  0.0335
50447SOL     OW61270   3.358   9.487   5.997  0.5663  0.1154  0.3420
50447SOL    HW161271   3.290   9.509   5.934  0.2529  0.2583  0.7236
50447SOL    HW261272   3.347   9.550   6.068  1.1499  0.1933  0.3743
50448SOL     OW61273   3.869   1.025   8.801 -0.5618 -0.1322 -0.1254
50448SOL    HW161274   3.867   0.931   8.819 -0.2020  0.0602  1.0191
50448SOL    HW261275   3.845   1.033   8.709 -0.3159 -1.3648 -0.3095
50449SOL     OW61276   2.239   8.694   6.205  0.0527  0.3052  0.1232
50449SOL    HW161277   2.260   8.675   6.296 -0.1506  0.8987  0.2994
50449SOL    HW261278   2.284   8.626   6.155  0.3643  0.1218  0.6487
50450SOL     OW61279   1.644   4.378   2.426  0.1163 -0.3687  0.2389
50450SOL    HW161280   1.627   4.384   2.520 -1.9835 -3.6564  0.2469
50450SOL    HW261281   1.734   4.346   2.420  0.9547  1.6844  0.9691
50451SOL     OW61282   7.744  11.029   0.928  0.0028 -0.1566  0.0059
50451SOL    HW161283   7.791  11.058   0.850 -0.3330 -1.0960 -0.5613
50451SOL    HW261284   7.701  11.108   0.961  0.7081  0.3866 -0.3636
50452SOL     OW61285   2.989   4.718  12.400 -0.0634  0.3846  0.1095
50452SOL    HW161286   2.989   4.641  12.343 -0.0632  0.4790 -0.0203
50452SOL    HW261287   3.070   4.764  12.377  0.2421  0.1141  0.6123
50453SOL     OW61288   3.552   2.042   4.309  0.2031  0.7484  0.2614
50453SOL    HW161289   3.603   2.039   4.390 -0.0599 -0.1588  0.3964
50453SOL    HW261290   3.479   2.100   4.329  1.5643  2.7190 -0.1805
50454SOL     OW61291  11.725   1.011   6.404  0.1997 -0.3502 -0.0931
50454SOL    HW161292  11.707   0.920   6.379 -1.3013 -0.4312  1.1124
50454SOL    HW261293  11.647   1.059   6.377  0.3158  0.2888  0.6743
50455SOL     OW61294   0.105   1.066   3.786  0.3564 -0.4277 -0.3260
50455SOL    HW161295   0.177   1.089   3.726  0.4493 -0.6429 -0.2959
50455SOL    HW261296   0.063   0.991   3.745 -1.0990  0.8928 -1.3772
50456SOL     OW61297   6.422   3.503  10.730  0.9348 -0.2278 -0.3692
50456SOL    HW161298   6.434   3.567  10.660  0.8181 -0.4276 -0.5748
50456SOL    HW261299   6.355   3.541  10.786  1.2314  0.0643 -0.2073
50457SOL     OW61300   0.218   1.090   9.461 -0.3590 -0.0570 -0.1497
50457SOL    HW161301   0.297   1.112   9.512 -0.2543 -1.0480  0.1299
50457SOL    HW261302   0.249   1.085   9.371 -0.2502  0.2472 -0.1327
50458SOL     OW61303  10.225   3.952   3.318 -0.1660  0.1434  0.2690
50458SOL    HW161304  10.149   4.002   3.290  0.0019 -0.0101 -0.4887
50458SOL    HW261305  10.259   3.999   3.394  0.1520  1.3571 -0.5940
50459SOL     OW61306   5.133   5.201   9.485  0.2517 -0.3666 -0.3427
50459SOL    HW161307   5.226   5.183   9.498  0.5486  2.2219  2.0639
50459SOL    HW261308   5.090   5.117   9.500  2.1433 -1.4979 -0.9919
50460SOL     OW61309   1.237   2.331   5.833 -0.1990 -0.5150 -0.0481
50460SOL    HW161310   1.306   2.276   5.868 -0.0157 -0.1596  0.1544
50460SOL    HW261311   1.211   2.387   5.906 -2.2451 -2.1308  0.5586
50461SOL     OW61312   9.037  13.072   3.052  0.1166 -0.2575 -0.6754
50461SOL    HW161313   9.069  13.113   3.133  0.2951 -0.1798 -0.7859
50461SOL    HW261314   9.108  13.085   2.989 -0.2865  0.2629 -1.0311
50462SOL     OW61315   5.242  12.331  10.500  0.4642  0.7182  0.1575
50462SOL    HW161316   5.149  12.336  10.478  0.4532 -0.7272 -0.1980
50462SOL    HW261317   5.287  12.321  10.416  0.9493  1.2855  0.3352
50463SOL     OW61318   5.936   7.552   6.206 -0.3724  0.1376 -0.1521
50463SOL    HW161319   5.960   7.593   6.289  2.1219 -2.6035  0.6588
50463SOL    HW261320   5.907   7.464   6.230 -2.3785  0.1851 -2.0372
50464SOL     OW61321   3.065  11.254   8.590  0.1615 -0.2448 -0.3474
50464SOL    HW161322   3.100  11.191   8.654  1.1790  0.6973  0.0561
50464SOL    HW261323   3.139  11.269   8.531 -0.6433 -0.7883 -1.5169
50465SOL     OW61324   6.505   9.041   1.778  0.0969 -0.0251 -0.1119
50465SOL    HW161325   6.528   9.128   1.810  0.4827 -0.5083  0.9768
50465SOL    HW261326   6.468   9.056   1.691  0.0884  1.2260  0.0936
50466SOL     OW61327   9.250   4.279   1.888 -0.6818  0.7083  0.6760
50466SOL    HW161328   9.182   4.331   1.929 -0.1778  0.8856  1.2984
50466SOL    HW261329   9.327   4.336   1.887  0.0561 -0.2049  1.9385
50467SOL     OW61330   6.157   2.965  10.589  0.3152 -0.3020 -0.1665
50467SOL    HW161331   6.164   2.916  10.670 -0.9972  0.1983  0.2765
50467SOL    HW261332   6.232   2.937  10.537  0.9249 -0.9592  1.0363
50468SOL     OW61333   6.111  11.247   2.069  0.2378 -1.0257 -0.0568
50468SOL    HW161334   6.194  11.271   2.110  0.6407 -2.1950 -0.1693
50468SOL    HW261335   6.049  11.242   2.142  0.9952 -3.2801  0.5004
50469SOL     OW61336   3.527   6.490   1.152 -0.6789  0.4196 -0.4670
50469SOL    HW161337   3.581   6.523   1.080 -0.3451 -0.8437 -0.8113
50469SOL    HW261338   3.582   6.425   1.196 -1.6829 -0.4472 -0.4479
50470SOL     OW61339   5.597   0.058   7.776 -0.0273 -0.3710 -0.0716
50470SOL    HW161340   5.601   0.059   7.872 -0.6470 -1.9934  0.0029
50470SOL    HW261341   5.503   0.054   7.756 -0.0614  2.4035 -0.8469
50471SOL     OW61342   8.316   8.605   5.565 -0.5359  0.4840 -0.1161
50471SOL    HW161343   8.406   8.635   5.573 -0.5855  0.3094  1.6304
50471SOL    HW261344   8.312   8.526   5.619 -1.4150 -0.3078 -1.2830
50472SOL     OW61345   9.834   6.432   2.382 -0.1173  0.0591  0.3329
50472SOL    HW161346   9.865   6.504   2.328 -0.5979 -0.4472 -0.6522
50472SOL    HW261347   9.796   6.474   2.460 -0.3774  0.8659 -0.2218
50473SOL     OW61348  11.271  12.183   9.434 -0.0623 -0.1334 -0.3077
50473SOL    HW161349  11.275  12.087   9.434  3.0681 -0.1062 -0.5151
50473SOL    HW261350  11.232  12.205   9.349  3.3764 -1.3070 -2.3926
50474SOL     OW61351   9.081   5.871   4.198 -0.2095 -1.1968 -0.2726
50474SOL    HW161352   9.119   5.844   4.282  1.8748 -2.0799 -1.4280
50474SOL    HW261353   9.037   5.793   4.165 -3.5731 -0.0956  1.2057
50475SOL     OW61354  12.033   8.353  13.102  0.5631  0.1509  0.2546
50475SOL    HW161355  12.016   8.304  13.183  0.3102  0.1430  0.1977
50475SOL    HW261356  11.946   8.381  13.073  0.6638  0.2342  0.0364
50476SOL     OW61357   5.244  10.232   2.499 -0.6453  0.2529 -0.1346
50476SOL    HW161358   5.294  10.213   2.419 -0.9148 -0.4264 -0.1489
50476SOL    HW261359   5.311  10.237   2.568 -0.4362  0.6027 -0.3559
50477SOL     OW61360   2.585   8.447  10.748 -0.0453  0.4838  0.2481
50477SOL    HW161361   2.673   8.473  10.776  0.2371  0.2790 -0.4193
50477SOL    HW261362   2.527   8.488  10.811  0.5501  0.3490  0.8971
50478SOL     OW61363   8.761   6.202  12.074 -0.3390 -0.0340  0.5344
50478SOL    HW161364   8.784   6.179  12.164  0.2354 -0.5311  0.2659
50478SOL    HW261365   8.739   6.295  12.079  0.2271  0.0823  1.0943
50479SOL     OW61366   2.944   5.211   3.580 -0.2978  0.1635 -0.5613
50479SOL    HW161367   2.933   5.155   3.503 -1.4257  0.4376 -0.6112
50479SOL    HW261368   3.010   5.276   3.553 -0.2397 -0.1031 -1.0788
50480SOL     OW61369   3.382   2.761   4.773  0.1133  0.2926  0.3681
50480SOL    HW161370   3.301   2.811   4.765 -0.1763 -0.4576 -2.4894
50480SOL    HW261371   3.372   2.711   4.855 -1.0721  2.2197  1.4614
50481SOL     OW61372   4.738   4.146   5.446  0.3200  0.3235  0.1446
50481SOL    HW161373   4.813   4.109   5.492 -0.5696 -0.3235  1.1020
50481SOL    HW261374   4.661   4.106   5.487 -0.6031  1.6978 -0.1511
50482SOL     OW61375   5.808   0.747  10.203  0.2500  0.3664  0.0612
50482SOL    HW161376   5.885   0.692  10.191 -2.3570 -3.2544 -2.1948
50482SOL    HW261377   5.756   0.703  10.270 -1.1404  1.0362 -0.5231
50483SOL     OW61378   8.073  10.428  12.669  0.1133  0.2312 -0.6046
50483SOL    HW161379   8.164  10.400  12.675  0.7710  2.2143 -0.5399
50483SOL    HW261380   8.025  10.365  12.724  1.9845  1.2085  2.3968
50484SOL     OW61381   9.124   9.452   0.472 -0.7557  0.1664  0.0378
50484SOL    HW161382   9.206   9.408   0.450 -0.1445  0.3030  1.8801
50484SOL    HW261383   9.088   9.402   0.545 -2.3916  0.0459 -0.8134
50485SOL     OW61384   0.212   1.934   7.232  0.1203 -0.0344 -0.2030
50485SOL    HW161385   0.193   1.996   7.303 -0.4648  0.8573 -1.1151
50485SOL    HW261386   0.151   1.958   7.162  0.2953 -1.2686 -0.8020
50486SOL     OW61387   7.874   9.237   1.544  0.0659 -0.1227 -0.4309
50486SOL    HW161388   7.846   9.182   1.471  1.1758 -3.1827  1.2492
50486SOL    HW261389   7.809   9.222   1.612  0.6757  0.2228  0.2474
50487SOL     OW61390   3.302   1.291   8.115 -0.6350  0.1174 -0.3325
50487SOL    HW161391   3.320   1.210   8.068 -2.4017 -1.4908  1.5561
50487SOL    HW261392   3.346   1.280   8.199 -0.0136  1.6174 -0.4251
50488SOL     OW61393   0.071   4.918   4.715 -0.2800  0.1250  0.1972
50488SOL    HW161394   0.073   4.885   4.805 -1.4373 -0.4363  0.0353
50488SOL    HW261395  -0.022   4.929   4.696 -0.0043  1.1419 -0.6114
50489SOL     OW61396  11.586   0.978   8.473  0.5001  0.0705  0.2264
50489SOL    HW161397  11.528   0.981   8.397 -0.9249  2.0429  1.3013
50489SOL    HW261398  11.597   1.070   8.498  2.1966 -0.4306  1.4895
50490SOL     OW61399  11.073   3.499   7.301  0.3963  0.0140 -0.1411
50490SOL    HW161400  11.135   3.475   7.369 -1.5654  0.5504  1.9659
50490SOL    HW261401  11.062   3.594   7.310 -0.8598 -0.0963 -0.3334
50491SOL     OW61402   5.426   3.685  12.135  0.3080  0.3433 -0.2508
50491SOL    HW161403   5.376   3.722  12.063 -1.2838  0.1875  0.7390
50491SOL    HW261404   5.377   3.709  12.214  0.8763 -1.2512  0.6403
50492SOL     OW61405   7.980   2.789   4.123 -0.5708 -0.7599  0.2863
50492SOL    HW161406   8.029   2.789   4.205  0.5389 -0.1362 -0.3489
50492SOL    HW261407   7.934   2.872   4.122 -0.8275 -0.9023  0.4239
50493SOL     OW61408   8.104   4.884  10.198 -0.2630 -0.5425 -0.0692
50493SOL    HW161409   8.140   4.870  10.285  1.5473  0.8683 -0.5433
50493SOL    HW261410   8.145   4.965  10.167 -2.3595  0.0814 -1.4625
50494SOL     OW61411  11.029  11.151   6.380  0.6370  0.0214  0.5812
50494SOL    HW161412  11.013  11.130   6.288  0.5532  0.6251  0.4547
50494SOL    HW261413  11.086  11.080   6.411  0.5284 -0.2772  0.1156
50495SOL     OW61414  13.173  10.072   5.208 -0.0718  0.0148  0.3264
50495SOL    HW161415  13.259  10.061   5.167 -0.6716 -0.8940 -0.7231
50495SOL    HW261416  13.172  10.004   5.276 -0.6038 -1.1379 -0.7953
50496SOL     OW61417   3.214  10.021   9.442 -0.5316 -0.9141 -0.5480
50496SOL    HW161418   3.209  10.112   9.414 -0.3087 -0.4071  0.9807
50496SOL    HW261419   3.277  10.021   9.514 -2.2182 -1.8453  1.0161
50497SOL     OW61420   0.168   3.219   7.259 -0.5888 -0.0896  0.3801
50497SOL    HW161421   0.111   3.167   7.203  1.4359 -0.1054 -1.8426
50497SOL    HW261422   0.136   3.309   7.248 -1.0050 -0.2567  0.2039
50498SOL     OW61423  12.501   6.843   2.768 -0.0477 -0.6328 -0.1115
50498SOL    HW161424  12.511   6.927   2.813  0.5506 -1.7927  2.0369
50498SOL    HW261425  12.587   6.826   2.730 -0.6913  0.5950 -2.2774
50499SOL     OW61426   8.663   3.179   0.543  0.0681  1.1210 -0.2018
50499SOL    HW161427   8.665   3.260   0.594 -1.0283 -0.4351  2.5106
50499SOL    HW261428   8.735   3.126   0.578 -0.3193  0.2400 -0.6923
50500SOL     OW61429  12.732   2.478  12.305 -0.1442  0.2537  0.3267
50500SOL    HW161430  12.812   2.429  12.320  0.3586  0.8781 -0.2727
50500SOL    HW261431  12.694   2.441  12.226 -1.4728 -1.3247  1.6203
50501SOL     OW61432   7.331  13.060   9.150 -0.0501  0.6030 -0.0979
50501SOL    HW161433   7.411  13.062   9.201  0.1137 -2.4346 -0.0283
50501SOL    HW261434   7.265  13.100   9.206  0.2855 -1.8974  2.2683
50502SOL     OW61435  10.046   5.347   5.536  0.0778 -0.4008 -0.2926
50502SOL    HW161436  10.107   5.327   5.465  0.9703  0.5727  0.1781
50502SOL    HW261437   9.963   5.308   5.508  0.4262 -0.0946 -1.8364
50503SOL     OW61438   2.578   3.901   1.995  0.0851  0.5103 -0.0724
50503SOL    HW161439   2.612   3.813   2.010 -0.6204  0.2460 -0.0036
50503SOL    HW261440   2.488   3.898   2.027 -1.3560  0.0839 -3.6580
50504SOL     OW61441   1.109   1.902   4.793  0.5887  0.1719 -0.1224
50504SOL    HW161442   1.087   1.908   4.700 -0.1866 -0.9400 -0.0314
50504SOL    HW261443   1.031   1.933   4.839  0.4944 -0.4957  0.1746
50505SOL     OW61444   3.540   3.013   1.230 -0.2873  0.1149  0.3321
50505SOL    HW161445   3.497   3.062   1.161 -1.0641 -2.5744 -1.2593
50505SOL    HW261446   3.633   3.013   1.207 -0.4716 -0.3160 -0.4301
50506SOL     OW61447   8.011   0.040   1.594  0.3377 -0.2790 -0.2929
50506SOL    HW161448   8.017   0.064   1.501 -1.0380  0.8449 -0.1295
50506SOL    HW261449   8.032   0.122   1.641 -1.4591 -0.1204  0.3280
50507SOL     OW61450   2.004   2.594   1.009  0.1070  0.0202 -0.0184
50507SOL    HW161451   2.041   2.646   1.082  1.5312 -1.4363  0.3598
50507SOL    HW261452   2.040   2.506   1.022 -1.9217 -0.9947 -0.8704
50508SOL     OW61453  12.109   8.466   3.380  0.3187 -0.0585  0.2799
50508SOL    HW161454  12.099   8.371   3.373  1.7495 -0.1803 -0.6289
50508SOL    HW261455  12.122   8.496   3.290 -0.3429  1.0430  0.5306
50509SOL     OW61456   6.287  11.212   0.249  0.2871  0.4619 -0.1978
50509SOL    HW161457   6.269  11.160   0.327  0.4001 -2.9852 -2.2527
50509SOL    HW261458   6.234  11.291   0.259 -1.7608 -1.0759  2.1060
50510SOL     OW61459   8.775   6.622   5.206 -0.1944  0.2725 -0.1275
50510SOL    HW161460   8.706   6.688   5.200  0.2064  0.7344  0.3233
50510SOL    HW261461   8.727   6.539   5.216 -0.6866  0.6148  0.4235
50511SOL     OW61462   7.233   2.757   0.701 -0.4351 -0.4745  0.4666
50511SOL    HW161463   7.205   2.772   0.611 -1.4799 -1.8741  0.5217
50511SOL    HW261464   7.157   2.716   0.743 -0.7556  2.0583  2.5964
50512SOL     OW61465   6.705  10.288  12.945  0.0286 -0.1055 -0.6419
50512SOL    HW161466   6.777  10.335  12.903 -0.1752 -0.0674 -0.9548
50512SOL    HW261467   6.742  10.255  13.027 -0.4597  2.6331  0.8095
50513SOL     OW61468   0.074  10.332   8.685  0.0754  0.7071 -0.2581
50513SOL    HW161469   0.109  10.258   8.636 -2.0037 -0.1782 -0.5024
50513SOL    HW261470   0.142  10.400   8.679  1.5095 -0.7466 -1.0252
50514SOL     OW61471  12.207   6.481  10.071 -0.4120  0.2635  0.0620
50514SOL    HW161472  12.278   6.541  10.092  0.5937 -0.7890 -0.2484
50514SOL    HW261473  12.201   6.423  10.147  0.0609 -0.5611 -0.5037
50515SOL     OW61474  13.173  10.801   4.194  0.0791 -0.4323 -0.1594
50515SOL    HW161475  13.086  10.839   4.180 -0.1593 -1.1454 -0.6606
50515SOL    HW261476  13.194  10.821   4.285 -0.0312  0.9188 -0.4120
50516SOL     OW61477   6.741   0.193   0.084 -0.1824 -0.0851 -0.1694
50516SOL    HW161478   6.788   0.206   0.167 -0.4430 -0.0817 -0.0181
50516SOL    HW261479   6.793   0.239   0.019  0.1456 -0.2741 -0.0458
50517SOL     OW61480   9.014  11.933  12.546  0.1102 -0.5551  0.3341
50517SOL    HW161481   9.099  11.960  12.581 -0.4533  1.7270  0.0634
50517SOL    HW261482   8.956  11.935  12.621 -0.0279 -0.6543  0.2305
50518SOL     OW61483  11.511   1.393  12.218 -0.0890 -0.0400 -0.2483
50518SOL    HW161484  11.450   1.328  12.182  0.0060 -0.1672 -0.1797
50518SOL    HW261485  11.518   1.371  12.311 -1.2842  1.0371  0.1200
50519SOL     OW61486   6.922   5.445  10.229  0.4079  0.2189 -0.5957
50519SOL    HW161487   6.957   5.474  10.145  0.4255  1.6996 -0.1100
50519SOL    HW261488   6.998   5.439  10.286  0.1918  0.9298 -0.2239
50520SOL     OW61489   1.778   6.653   5.506 -0.2581  0.6014  0.0137
50520SOL    HW161490   1.722   6.663   5.583 -2.6009  3.1738 -1.8308
50520SOL    HW261491   1.854   6.707   5.525  0.1870 -0.4181  1.2875
50521SOL     OW61492   6.298  13.261   2.467 -0.1616 -0.2984  0.0254
50521SOL    HW161493   6.344  13.343   2.486 -0.8067 -0.3491  2.1239
50521SOL    HW261494   6.303  13.251   2.372  1.6099  1.1647 -0.0828
50522SOL     OW61495   8.111  10.768   5.522 -0.3004 -0.2158  0.3278
50522SOL    HW161496   8.181  10.832   5.508  0.1861 -1.0779 -1.4096
50522SOL    HW261497   8.034  10.807   5.481  0.6048 -1.7668 -3.2140
50523SOL     OW61498   8.280  12.221   0.096  0.7214  0.5947  0.4767
50523SOL    HW161499   8.219  12.267   0.154  1.1031  1.3574  0.2844
50523SOL    HW261500   8.272  12.129   0.122 -0.8605  0.6024  0.1188
50524SOL     OW61501  10.430   6.231   5.713 -0.9396 -0.0835  0.3426
50524SOL    HW161502  10.509   6.240   5.659 -2.5779  1.5525 -1.9708
50524SOL    HW261503  10.457   6.263   5.799  1.1565 -0.5056 -0.0886
50525SOL     OW61504   2.342  11.607  10.529 -0.2064 -0.3782 -0.6214
50525SOL    HW161505   2.256  11.572  10.551 -0.3400 -0.9576 -1.9481
50525SOL    HW261506   2.390  11.608  10.612 -1.9462  1.4044  0.4341
50526SOL     OW61507  10.603   7.985   3.505 -0.3287  0.0265 -0.9077
50526SOL    HW161508  10.518   8.002   3.464 -0.6785  0.5580  0.0034
50526SOL    HW261509  10.633   7.903   3.465 -1.2028 -0.0944 -1.3443
50527SOL     OW61510   5.732   0.658   0.536 -0.1804 -0.0933 -0.0341
50527SOL    HW161511   5.675   0.581   0.529  0.6842 -0.7136 -0.3034
50527SOL    HW261512   5.693   0.722   0.476  0.9998 -1.5295 -2.4512
50528SOL     OW61513   0.931   2.263   9.851 -0.6760  0.4969  0.2829
50528SOL    HW161514   0.889   2.347   9.866 -0.0437  0.8038  0.3832
50528SOL    HW261515   0.965   2.238   9.938 -0.6062  0.2870  0.1953
50529SOL     OW61516  13.188   8.445   3.949  0.0198  0.2305 -0.4330
50529SOL    HW161517  13.139   8.482   3.875  1.8688  2.3823 -0.7055
50529SOL    HW261518  13.197   8.518   4.010  0.3667 -0.9306  0.9535
50530SOL     OW61519   7.539   5.825   2.414 -0.2372 -0.1931  0.0094
50530SOL    HW161520   7.455   5.811   2.371 -0.5555 -1.3436  0.9430
50530SOL    HW261521   7.528   5.908   2.461 -1.0770 -0.6235  0.6063
50531SOL     OW61522   4.782  11.045   0.793 -0.8655 -0.0877  0.4418
50531SOL    HW161523   4.826  11.128   0.776  0.2128 -0.6169  0.4978
50531SOL    HW261524   4.840  10.979   0.753 -1.5366 -0.8335  0.6685
50532SOL     OW61525   4.763  12.092  13.208 -0.2453  0.3040  0.2865
50532SOL    HW161526   4.767  12.069  13.115  2.0914  1.3004  0.0756
50532SOL    HW261527   4.701  12.165  13.212 -0.0067  0.5608 -0.5637
50533SOL     OW61528   2.318  12.608  10.597  0.2077  0.0600  0.1740
50533SOL    HW161529   2.402  12.652  10.583  0.7078 -1.0953 -0.6352
50533SOL    HW261530   2.338  12.539  10.661 -0.5263  0.8644  1.3051
50534SOL     OW61531  12.957   4.888  11.394 -0.4802 -0.2252 -0.1307
50534SOL    HW161532  12.872   4.889  11.350 -0.5658  0.0050  0.0404
50534SOL    HW261533  12.964   4.799  11.431  0.4687 -1.1161 -2.2909
50535SOL     OW61534   0.529   7.715   2.499  0.6716  0.1938 -0.1850
50535SOL    HW161535   0.531   7.656   2.424  0.1866  0.6579 -0.5744
50535SOL    HW261536   0.590   7.678   2.562 -0.3749 -1.2986 -0.0004
50536SOL     OW61537  10.429   8.088   6.083  0.2417 -0.0742 -0.3824
50536SOL    HW161538  10.461   8.129   6.163  0.7292 -0.3620 -0.4286
50536SOL    HW261539  10.335   8.075   6.099 -0.3304  2.7438 -1.0861
50537SOL     OW61540   0.575   5.022  11.643 -0.0846 -0.3701  0.2351
50537SOL    HW161541   0.532   5.032  11.728  1.1001  0.2306  0.7862
50537SOL    HW261542   0.535   5.089  11.588 -0.4671 -0.3957  0.4768
50538SOL     OW61543   7.790   5.402   9.068  0.0519 -0.0065  0.0843
50538SOL    HW161544   7.848   5.355   9.127 -0.6599  1.1925  1.8187
50538SOL    HW261545   7.778   5.343   8.993  1.1024 -1.5089  1.0604
50539SOL     OW61546  11.772   6.400   3.853 -0.7993 -0.1343  0.6534
50539SOL    HW161547  11.821   6.447   3.920  1.6494 -0.3041 -0.9227
50539SOL    HW261548  11.720   6.467   3.809 -0.3458  0.4234  0.9662
50540SOL     OW61549   3.441  11.198   5.610 -0.2762  0.2302  0.0284
50540SOL    HW161550   3.509  11.264   5.596  0.3979 -0.1626  1.2442
50540SOL    HW261551   3.454  11.171   5.701 -0.3477 -1.7769 -0.5258
50541SOL     OW61552   3.944   8.278   1.491  0.0961 -0.1841  0.3648
50541SOL    HW161553   4.004   8.324   1.433 -0.7770 -1.4564 -1.6962
50541SOL    HW261554   3.905   8.347   1.545  1.9406  0.8879  0.4252
50542SOL     OW61555   2.830   2.598   7.731 -0.7305 -0.1039  0.0468
50542SOL    HW161556   2.893   2.604   7.658 -1.8153  0.7066 -0.8542
50542SOL    HW261557   2.822   2.504   7.747  0.8464 -0.2266  0.3231
50543SOL     OW61558   6.517  13.194   0.190 -0.1440  0.1646 -0.3240
50543SOL    HW161559   6.578  13.128   0.159 -1.6378 -1.1438 -0.6146
50543SOL    HW261560   6.450  13.198   0.122 -1.3868  0.1471  0.8639
50544SOL     OW61561   1.516   0.461   4.214 -0.1978  0.7759  0.2770
50544SOL    HW161562   1.455   0.515   4.266 -0.1274  0.5767  0.5674
50544SOL    HW261563   1.526   0.381   4.264  0.0204  0.6564  0.0458
50545SOL     OW61564   4.493   4.912   2.094  0.1740 -0.6010 -0.1406
50545SOL    HW161565   4.405   4.951   2.096  0.1403 -0.6955  0.5082
50545SOL    HW261566   4.479   4.823   2.061  0.2437 -0.1181 -1.5706
50546SOL     OW61567   0.509  10.570   2.140  0.0269 -0.5344  0.6802
50546SOL    HW161568   0.570  10.617   2.083 -1.4704  0.7566  0.0692
50546SOL    HW261569   0.465  10.508   2.082  1.1415 -1.8971  1.2431
50547SOL     OW61570   0.416   2.728  10.670  0.1961 -0.1797  0.0095
50547SOL    HW161571   0.339   2.740  10.725 -0.1662 -0.0524 -0.5172
50547SOL    HW261572   0.433   2.815  10.634  0.5482 -0.2217  0.0640
50548SOL     OW61573   4.355   3.049   6.542  0.4908 -0.3231  0.5563
50548SOL    HW161574   4.276   3.012   6.583  0.0369 -0.6377 -0.5749
50548SOL    HW261575   4.392   3.105   6.610  0.5829 -1.9769  1.9300
50549SOL     OW61576   5.486   7.235   7.828  0.5101 -0.8449 -0.2414
50549SOL    HW161577   5.507   7.211   7.738  0.2384 -0.0279 -0.5317
50549SOL    HW261578   5.559   7.292   7.855 -1.0248  1.7005 -1.1261
50550SOL     OW61579   4.213   8.204   3.678 -0.1155  0.7760  0.3054
50550SOL    HW161580   4.121   8.207   3.705  0.1247  2.8611  1.0844
50550SOL    HW261581   4.211   8.228   3.585 -0.3828  0.2956  0.1821
50551SOL     OW61582  12.567   5.860   4.904  0.4302 -0.9652 -0.1918
50551SOL    HW161583  12.526   5.787   4.948 -0.3636  0.6934  1.9905
50551SOL    HW261584  12.651   5.871   4.948 -0.5561  0.9780  1.3624
50552SOL     OW61585   9.845   5.142   5.467  0.1865  0.2575 -0.0395
50552SOL    HW161586   9.843   5.154   5.562  0.9846  1.8273 -0.1895
50552SOL    HW261587   9.932   5.107   5.450  0.1755  0.3226 -0.2244
50553SOL     OW61588   1.099   6.597   4.376 -0.3062 -0.1427  0.0027
50553SOL    HW161589   1.163   6.668   4.387  0.5140 -0.9470  0.5726
50553SOL    HW261590   1.066   6.608   4.286 -0.0520  0.8349  0.0183
50554SOL     OW61591   0.031   4.296   7.155 -0.1805  0.5299 -0.2842
50554SOL    HW161592   0.025   4.282   7.250  0.7361 -1.0207 -0.4152
50554SOL    HW261593   0.103   4.358   7.145 -0.2957  0.7197  0.0294
50555SOL     OW61594   1.482   6.795   7.452 -0.1751  0.0595  0.1511
50555SOL    HW161595   1.553   6.733   7.433 -0.4578 -0.9950  2.2775
50555SOL    HW261596   1.526   6.869   7.494  0.0191  0.8727 -1.4044
50556SOL     OW61597   9.213   8.244   0.765  0.2457  0.3195  0.2322
50556SOL    HW161598   9.264   8.263   0.686  2.1630  1.1003  1.5754
50556SOL    HW261599   9.279   8.230   0.833 -1.3260 -1.3090  1.5043
50557SOL     OW61600   9.889   9.604  12.480  0.3355 -0.0379  0.3436
50557SOL    HW161601   9.852   9.640  12.561  0.5718  1.0729 -0.0275
50557SOL    HW261602   9.924   9.680  12.433  0.8543 -0.7542 -0.4716
50558SOL     OW61603   8.333   0.042   6.308 -0.2989 -0.3102  0.3375
50558SOL    HW161604   8.346   0.116   6.367 -2.1031 -0.8967  1.5424
50558SOL    HW261605   8.347  -0.035   6.362 -0.6169 -0.8618 -0.3447
50559SOL     OW61606  13.098  12.480   7.101 -0.2060 -0.1851  0.1328
50559SOL    HW161607  13.159  12.528   7.045 -0.9396  0.9649  0.2610
50559SOL    HW261608  13.149  12.457   7.178 -0.0725  1.3420  0.5366
50560SOL     OW61609  11.869   3.219   8.619  0.1907  0.1588 -0.3260
50560SOL    HW161610  11.952   3.172   8.623  0.3607  0.5399  1.4391
50560SOL    HW261611  11.821   3.189   8.696  0.5108  3.1789  1.2008
50561SOL     OW61612  10.238  11.198   7.032 -0.0935  0.1215  0.5083
50561SOL    HW161613  10.314  11.170   6.981 -0.4138  0.7631 -0.3458
50561SOL    HW261614  10.193  11.117   7.055 -1.1471 -0.1239 -2.1492
50562SOL     OW61615   0.151  11.942   4.513 -0.4268  0.2756 -0.1434
50562SOL    HW161616   0.109  11.947   4.427  0.8265  2.3057 -0.7089
50562SOL    HW261617   0.219  11.875   4.502 -0.7364  0.0115 -0.5065
50563SOL     OW61618   4.505  10.239   6.254 -0.4403  0.6697  1.0910
50563SOL    HW161619   4.467  10.183   6.187 -0.6405  0.9316  0.9842
50563SOL    HW261620   4.596  10.210   6.261 -0.5436  0.3314  1.0413
50564SOL     OW61621  10.974  11.033   1.680 -0.4201 -0.3667 -0.5021
50564SOL    HW161622  10.966  10.942   1.710 -0.4185 -0.3071 -0.3212
50564SOL    HW261623  10.885  11.060   1.660 -0.7945  0.4392  1.9084
50565SOL     OW61624   2.731   4.820   3.463  0.3409  0.2954 -0.3694
50565SOL    HW161625   2.726   4.894   3.523 -1.3377 -0.0806  0.0053
50565SOL    HW261626   2.744   4.744   3.519  0.0339  0.0853 -0.5775
50566SOL     OW61627   7.842   0.887   3.702  0.5132 -0.4179  0.5272
50566SOL    HW161628   7.908   0.941   3.658  0.9810 -2.5655 -1.5952
50566SOL    HW261629   7.761   0.937   3.694  1.1051  0.4082 -0.5054
50567SOL     OW61630   0.580  10.373   8.341 -0.4399 -0.1582  0.1931
50567SOL    HW161631   0.527  10.321   8.280 -2.6269  1.6259  0.4719
50567SOL    HW261632   0.591  10.315   8.417 -1.3348 -0.8683 -0.1930
50568SOL     OW61633  10.584   4.774   4.621  0.4199  0.6756 -0.3789
50568SOL    HW161634  10.567   4.809   4.708 -0.7527  0.2674 -0.4291
50568SOL    HW261635  10.648   4.704   4.634  0.3508  0.7071  0.1247
50569SOL     OW61636   6.911   7.007   9.536 -0.0570  0.6005 -0.1614
50569SOL    HW161637   6.965   6.998   9.615 -1.0080 -0.3317  0.4099
50569SOL    HW261638   6.960   6.961   9.469  0.0063 -0.0018  0.2888
50570SOL     OW61639  10.369  11.065   6.851 -0.2339  0.3124  0.3662
50570SOL    HW161640  10.422  11.012   6.910 -0.2416  0.0498  0.1399
50570SOL    HW261641  10.433  11.110   6.795 -0.1695  1.5111  1.3546
50571SOL     OW61642   6.508   8.163   9.317  0.1999  0.1529  0.2435
50571SOL    HW161643   6.503   8.127   9.229 -0.9507  0.2001  0.2659
50571SOL    HW261644   6.600   8.183   9.331  0.7401 -1.9726 -0.0789
50572SOL     OW61645   7.898   1.366  10.926  1.2016 -0.7352  0.1249
50572SOL    HW161646   7.851   1.312  10.863  0.3139 -1.4070  1.3135
50572SOL    HW261647   7.919   1.446  10.879 -1.1319 -0.4112 -0.4741
50573SOL     OW61648   0.715   1.992   8.021  0.0220 -0.2178 -0.0016
50573SOL    HW161649   0.786   2.010   8.083 -0.2504  1.0756 -0.0366
50573SOL    HW261650   0.753   2.009   7.935 -0.8636  2.6613  0.0687
50574SOL     OW61651  10.266   0.201   5.787 -0.0833 -0.1503 -0.1861
50574SOL    HW161652  10.332   0.161   5.842  0.4952  1.9861  0.8022
50574SOL    HW261653  10.204   0.241   5.849 -2.1688 -1.8184 -1.0839
50575SOL     OW61654   5.867   1.433  10.729  0.0508  0.3212  0.6966
50575SOL    HW161655   5.820   1.380  10.665 -1.2814  1.6348  0.5246
50575SOL    HW261656   5.918   1.495  10.675 -0.9147  1.2947  0.8583
50576SOL     OW61657   6.631  10.635   4.839 -0.3717  0.1672  0.1281
50576SOL    HW161658   6.616  10.723   4.872 -0.4511  0.0504  0.4077
50576SOL    HW261659   6.545  10.594   4.838 -0.1526 -0.3630  1.3287
50577SOL     OW61660  13.275   5.630   3.916  0.1021 -0.2817  0.7392
50577SOL    HW161661  13.338   5.608   3.848 -0.9226  1.1471 -0.7330
50577SOL    HW261662  13.204   5.567   3.904  0.4587 -0.8073  1.3069
50578SOL     OW61663   7.521   8.464   4.470 -0.6671  0.0653  0.9385
50578SOL    HW161664   7.445   8.517   4.497 -1.8310 -1.1213  0.1419
50578SOL    HW261665   7.593   8.526   4.465 -2.1035  1.7360 -0.5746
50579SOL     OW61666   0.858   9.634   4.512  0.0123  0.1294  0.4311
50579SOL    HW161667   0.782   9.590   4.474  0.8418  0.3263 -1.5458
50579SOL    HW261668   0.897   9.568   4.569 -0.6478 -0.5663  0.1093
50580SOL     OW61669   9.491  11.985   5.204 -0.4074 -0.0710  0.1887
50580SOL    HW161670   9.491  11.952   5.293  1.0862  1.0879  0.6663
50580SOL    HW261671   9.540  11.919   5.154  0.8543  0.4045  0.7403
50581SOL     OW61672   1.274   4.026   5.389 -0.5147 -0.0722 -0.3602
50581SOL    HW161673   1.337   4.071   5.332 -0.3411 -0.5763 -0.5650
50581SOL    HW261674   1.190   4.038   5.345 -0.6473  1.0160  0.1566
50582SOL     OW61675   6.075  10.811   6.697 -0.4405  0.5773 -0.2794
50582SOL    HW161676   6.127  10.835   6.773  1.1151  0.8478 -1.3916
50582SOL    HW261677   6.126  10.744   6.652 -2.1446 -0.8559 -0.1914
50583SOL     OW61678   9.478   9.704   3.727 -0.0323  0.0997 -0.5609
50583SOL    HW161679   9.559   9.664   3.695 -0.5032 -0.5239 -0.9927
50583SOL    HW261680   9.456   9.769   3.660  1.2912  1.8719  0.6473
50584SOL     OW61681   5.584   9.550  10.751 -0.2452  0.1482  0.0296
50584SOL    HW161682   5.580   9.605  10.673 -0.4278  1.4366  0.9166
50584SOL    HW261683   5.672   9.514  10.751  0.0830  0.9322 -0.2514
50585SOL     OW61684   2.615   5.498   7.598  0.2797  0.0137 -0.2661
50585SOL    HW161685   2.689   5.438   7.598  1.2098  1.1407 -0.6689
50585SOL    HW261686   2.555   5.461   7.533  1.8492  0.6914 -2.1916
50586SOL     OW61687   1.090  12.167   0.275 -0.5190 -0.0424  0.3620
50586SOL    HW161688   1.043  12.108   0.334  0.1449  0.4555  1.4112
50586SOL    HW261689   1.180  12.134   0.274  0.2027  1.6932  2.0457
50587SOL     OW61690   3.605   0.178   1.665 -0.0832  0.4636  0.3812
50587SOL    HW161691   3.610   0.107   1.600 -0.0941  0.2080  0.6608
50587SOL    HW261692   3.686   0.227   1.652  0.7536 -0.6168  1.3646
50588SOL     OW61693   4.428   4.402   1.621 -0.1392 -0.4193  0.2673
50588SOL    HW161694   4.335   4.403   1.643 -0.1117 -0.9537  0.4342
50588SOL    HW261695   4.463   4.485   1.654 -0.2856 -0.7967  1.3951
50589SOL     OW61696  10.968   8.834   3.023 -0.1107 -0.3932 -0.0127
50589SOL    HW161697  10.894   8.777   3.001 -1.4990  0.2969  2.5408
50589SOL    HW261698  10.930   8.902   3.078  2.4384 -0.0118  1.4085
50590SOL     OW61699   1.693  11.329   7.557  0.3112 -0.2569  0.2822
50590SOL    HW161700   1.607  11.320   7.596 -0.2441  1.0479 -0.5741
50590SOL    HW261701   1.737  11.246   7.577 -1.5343 -1.4359 -0.2588
50591SOL     OW61702   2.988   7.728   6.907  0.4735  0.0046 -0.4040
50591SOL    HW161703   3.022   7.698   6.991  2.7293  0.0266 -1.2432
50591SOL    HW261704   2.893   7.736   6.921  0.5812 -1.4803  1.6514
50592SOL     OW61705  11.133  12.941   6.116  0.1175 -0.1897 -0.4462
50592SOL    HW161706  11.130  12.857   6.071  2.5671 -1.2677  1.1423
50592SOL    HW261707  11.042  12.964   6.130 -0.6455 -2.3355 -1.3613
50593SOL     OW61708   6.606  11.009   7.555  0.6881 -0.1508 -0.6200
50593SOL    HW161709   6.548  11.049   7.491  0.5523 -0.6631 -0.8268
50593SOL    HW261710   6.653  10.941   7.505  2.9942  1.5760 -0.9820
50594SOL     OW61711   8.441  12.440   2.982  0.6888 -0.1860  0.1306
50594SOL    HW161712   8.523  12.487   2.996  0.9787 -0.8458  0.6587
50594SOL    HW261713   8.430  12.439   2.886  0.9211  0.5263  0.0945
50595SOL     OW61714   8.988   3.853   0.297 -0.2437 -0.1007 -0.1220
50595SOL    HW161715   9.000   3.948   0.296  0.5171 -0.1913 -1.1321
50595SOL    HW261716   8.919   3.839   0.362 -0.4314  1.1430 -0.0135
50596SOL     OW61717  12.763   2.116   9.219 -0.0161  0.7914  0.4044
50596SOL    HW161718  12.758   2.209   9.242  0.0517  0.9725 -0.3065
50596SOL    HW261719  12.816   2.113   9.140 -0.0229  0.1443  0.4175
50597SOL     OW61720  12.246  11.169   7.736  0.6965 -0.6279  0.1144
50597SOL    HW161721  12.217  11.169   7.828  0.9897 -2.0672  0.2326
50597SOL    HW261722  12.168  11.191   7.686  0.6713  0.8011  0.7257
50598SOL     OW61723   8.270   4.418   1.586  0.3208  0.3576 -0.2117
50598SOL    HW161724   8.211   4.483   1.624 -0.4759  0.0597 -0.8887
50598SOL    HW261725   8.348   4.419   1.642  0.5156  2.2025 -0.4664
50599SOL     OW61726   7.455   8.188  13.297  0.4231 -0.5749  0.0948
50599SOL    HW161727   7.389   8.256  13.284  1.1172  0.1584  0.3651
50599SOL    HW261728   7.451   8.135  13.217  0.0135 -0.1082 -0.1998
50600SOL     OW61729   1.771   3.306   0.489 -0.2944 -0.3932  0.0229
50600SOL    HW161730   1.797   3.246   0.419 -3.0911 -1.4736 -0.2000
50600SOL    HW261731   1.793   3.393   0.455  0.5388 -1.0372 -1.1849
50601SOL     OW61732   3.858  12.527   8.277 -0.4944  0.9546 -0.2463
50601SOL    HW161733   3.904  12.445   8.260 -2.0236  0.5292 -2.7671
50601SOL    HW261734   3.847  12.528   8.372 -0.9349 -2.0794 -0.1460
50602SOL     OW61735   7.115  11.897  13.232 -0.5298  0.4690  0.5554
50602SOL    HW161736   7.091  11.969  13.173 -2.1449 -0.4062  0.0942
50602SOL    HW261737   7.126  11.939  13.318 -2.1500  1.1979  0.4408
50603SOL     OW61738  12.463   4.333   8.808  0.2834  0.0011 -0.0714
50603SOL    HW161739  12.402   4.402   8.834  0.4150  0.6531 -1.4057
50603SOL    HW261740  12.461   4.271   8.881 -2.4152 -0.3083 -0.2750
50604SOL     OW61741   1.562   7.619  12.011 -0.2975 -0.1676  0.4467
50604SOL    HW161742   1.474   7.581  12.014 -0.6708  0.5410 -0.7236
50604SOL    HW261743   1.620   7.543  12.002 -0.8359 -0.6007  0.5242
50605SOL     OW61744   6.172  10.891   5.264 -0.1893  0.3353 -0.1434
50605SOL    HW161745   6.079  10.869   5.271  0.1995 -1.3318  0.3174
50605SOL    HW261746   6.213  10.841   5.335  1.1371  0.5237 -0.7600
50606SOL     OW61747  11.752   7.561   2.591 -0.4582  0.0935 -0.3930
50606SOL    HW161748  11.768   7.534   2.501  0.9311 -2.0747  0.4459
50606SOL    HW261749  11.714   7.484   2.633  0.4429  0.5016  1.2639
50607SOL     OW61750   5.460   6.607   9.440 -0.3166  0.1104  0.0696
50607SOL    HW161751   5.450   6.522   9.482  0.4028 -0.0849 -0.1342
50607SOL    HW261752   5.553   6.627   9.449 -0.1798  0.1487 -1.2557
50608SOL     OW61753   3.609   5.995   3.552  0.1774 -0.2538 -0.0400
50608SOL    HW161754   3.552   5.975   3.478 -3.1039  1.7831  1.6641
50608SOL    HW261755   3.658   6.072   3.524 -2.6951  1.9284  0.4697
50609SOL     OW61756  12.185   1.186   4.185 -0.0668 -0.0493 -0.1423
50609SOL    HW161757  12.220   1.172   4.273  0.0365  1.5588  0.1072
50609SOL    HW261758  12.257   1.162   4.127  1.5076  2.9553  0.3577
50610SOL     OW61759   4.412  11.142  13.235  0.6097 -0.4640  0.0366
50610SOL    HW161760   4.415  11.189  13.152  0.8502 -0.4121  0.0731
50610SOL    HW261761   4.344  11.187  13.286 -0.0924 -0.9887 -0.4224
50611SOL     OW61762  10.914   5.747   3.995  0.1673  0.2603 -0.1463
50611SOL    HW161763  10.831   5.703   3.980 -0.8012  2.2881 -1.0175
50611SOL    HW261764  10.936   5.726   4.086 -1.0561 -0.6348 -0.0381
50612SOL     OW61765   5.869  12.932  13.235  0.7320 -0.2813  0.0822
50612SOL    HW161766   5.861  12.850  13.283  2.0871 -1.1733 -1.1303
50612SOL    HW261767   5.826  12.914  13.151 -0.3601  0.7872  0.3873
50613SOL     OW61768  13.235  10.378   4.659  0.2181 -0.0354  0.1997
50613SOL    HW161769  13.172  10.405   4.592  0.6508 -0.9847 -0.6212
50613SOL    HW261770  13.212  10.288   4.679 -0.1406  0.3545  1.6430
50614SOL     OW61771   3.159   5.343   3.447 -0.3215  0.0174 -0.5834
50614SOL    HW161772   3.251   5.314   3.450 -0.9279 -1.9600  0.5697
50614SOL    HW261773   3.147   5.374   3.357  1.8463  1.7728 -0.3662
50615SOL     OW61774  13.188  13.119   0.330 -0.3615 -0.5738  0.4525
50615SOL    HW161775  13.099  13.103   0.363  0.0192 -2.7406  0.5666
50615SOL    HW261776  13.215  13.199   0.374 -1.7415 -0.6539  1.5444
50616SOL     OW61777   1.665   3.531   6.523 -0.2311  0.3379 -0.6997
50616SOL    HW161778   1.593   3.569   6.574  0.9491 -0.7117  1.9463
50616SOL    HW261779   1.654   3.567   6.436 -1.9988  2.8491  0.4413
50617SOL     OW61780   6.448  11.021   6.724  0.3112  0.2391 -0.0595
50617SOL    HW161781   6.415  11.040   6.812  2.2218  0.9669  0.5440
50617SOL    HW261782   6.375  11.046   6.666 -2.0390 -2.7429  1.3375
50618SOL     OW61783  12.127  11.844  10.627  0.8380  0.0514 -0.0944
50618SOL    HW161784  12.123  11.751  10.647  2.3507 -0.4818 -2.0044
50618SOL    HW261785  12.186  11.881  10.694  1.1071 -0.5635  0.0125
50619SOL     OW61786   7.732  10.140   0.405  0.4371 -0.3497 -0.3084
50619SOL    HW161787   7.774  10.204   0.463 -0.0047 -1.8322  1.7594
50619SOL    HW261788   7.799  10.072   0.392  0.1941 -0.5105 -0.7477
50620SOL     OW61789   1.880   6.242   5.687  0.1764  0.2381 -0.0434
50620SOL    HW161790   1.929   6.304   5.741  0.7607 -0.7632  0.6176
50620SOL    HW261791   1.889   6.159   5.733 -0.0474 -0.4698 -1.2466
50621SOL     OW61792   2.316   9.427  10.353 -0.4428 -0.1790  0.2264
50621SOL    HW161793   2.384   9.416  10.420 -0.3629 -0.8325  0.0400
50621SOL    HW261794   2.355   9.487  10.290 -0.2725 -0.0736  0.4283
50622SOL     OW61795   2.957   1.516   0.944  0.0956  0.2584 -0.4219
50622SOL    HW161796   2.980   1.603   0.975 -0.2272  0.1332  0.1745
50622SOL    HW261797   2.863   1.520   0.927 -0.9997 -1.1827  3.9642
50623SOL     OW61798   0.367  10.834   6.605  0.2275 -0.1522  0.2224
50623SOL    HW161799   0.274  10.836   6.626  0.1717  0.5268 -0.0650
50623SOL    HW261800   0.411  10.839   6.690  0.0187 -1.7687  0.4576
50624SOL     OW61801   1.204  12.297  10.205 -0.5713 -0.6966 -0.3778
50624SOL    HW161802   1.202  12.346  10.123  0.0428  1.1692  0.6595
50624SOL    HW261803   1.124  12.324  10.251 -0.5995 -1.2515 -0.0917
50625SOL     OW61804   5.861   7.093   7.523 -0.0291 -0.5062  0.2535
50625SOL    HW161805   5.829   7.063   7.608 -1.5112  0.0062 -0.0906
50625SOL    HW261806   5.953   7.114   7.538 -0.0274 -1.3108  1.4965
50626SOL     OW61807   2.997   8.524   1.959 -0.3129  0.1341  0.3735
50626SOL    HW161808   2.910   8.560   1.945 -0.4385 -0.2032  0.2899
50626SOL    HW261809   3.005   8.453   1.896 -0.0206  0.0882  0.4576
50627SOL     OW61810   2.947   3.617   6.741  0.4647  0.2493  0.2269
50627SOL    HW161811   2.927   3.695   6.794 -0.0413 -0.2060  0.7179
50627SOL    HW261812   3.008   3.567   6.795 -0.8275 -0.7099  0.8474
50628SOL     OW61813   1.899  12.149   6.465 -0.2044  0.8866  0.6754
50628SOL    HW161814   1.980  12.101   6.445  0.0595  2.0511 -1.2383
50628SOL    HW261815   1.830  12.086   6.448  0.2557  0.1004  1.6270
50629SOL     OW61816  10.307   0.116  11.646 -0.3703  0.1373  0.5352
50629SOL    HW161817  10.299   0.116  11.551 -1.2373 -0.1619  0.6021
50629SOL    HW261818  10.401   0.120  11.663 -0.2370  0.8650 -0.3288
50630SOL     OW61819   0.178  11.261   5.827 -0.1512  0.1039 -0.1973
50630SOL    HW161820   0.200  11.185   5.774 -0.9109  0.0071 -0.3849
50630SOL    HW261821   0.092  11.240   5.865  0.0726  0.4550  0.5251
50631SOL     OW61822   4.458   1.828   2.632 -0.6179  0.4062 -0.1059
50631SOL    HW161823   4.366   1.810   2.612 -0.2538 -1.3032 -0.3940
50631SOL    HW261824   4.497   1.850   2.547 -0.4468 -0.3634 -0.2283
50632SOL     OW61825  10.462  13.221   7.848 -0.0266  0.0450  0.6814
50632SOL    HW161826  10.418  13.242   7.765  1.2968 -0.3530 -0.1552
50632SOL    HW261827  10.555  13.228   7.828  0.3184  0.4965  2.3021
50633SOL     OW61828   0.997  10.867   6.327  0.1284 -0.0114  0.3491
50633SOL    HW161829   0.942  10.836   6.399  1.4330 -0.5026  1.1725
50633SOL    HW261830   0.937  10.916   6.270 -1.0559 -0.1411  1.4389
50634SOL     OW61831   2.239   6.407   7.197 -0.3286  0.4058 -0.3487
50634SOL    HW161832   2.326   6.376   7.171 -0.2086  0.9914 -0.6464
50634SOL    HW261833   2.214   6.348   7.267  0.7026  0.7893  0.3761
50635SOL     OW61834  13.228   8.195  10.278  0.2426 -0.4117 -0.2421
50635SOL    HW161835  13.233   8.271  10.336 -2.0126 -1.0152  0.8601
50635SOL    HW261836  13.297   8.136  10.310  0.6524  0.3019  0.2252
50636SOL     OW61837  12.758   8.506   1.639  0.6164  0.0003  0.4269
50636SOL    HW161838  12.734   8.595   1.667 -1.6120  0.4042 -2.2599
50636SOL    HW261839  12.800   8.519   1.554  1.7234 -1.4635  0.7215
50637SOL     OW61840   0.840   7.000   0.541  0.1178 -0.5970  0.3353
50637SOL    HW161841   0.914   7.015   0.483 -0.2712  0.5872  0.1315
50637SOL    HW261842   0.775   6.957   0.485  0.7842 -2.0445  0.6240
50638SOL     OW61843  13.295   1.951   7.484  0.1080  0.4275 -0.5257
50638SOL    HW161844  13.250   1.943   7.400  0.0598 -0.7444 -0.4035
50638SOL    HW261845  13.229   1.986   7.543 -0.4042 -0.4749 -0.5499
50639SOL     OW61846   1.815   2.717   9.397 -0.3775 -0.0168 -0.0932
50639SOL    HW161847   1.819   2.809   9.371 -0.5497 -0.4418 -1.7339
50639SOL    HW261848   1.735   2.711   9.450 -1.1969  0.4957 -1.2273
50640SOL     OW61849   8.198   5.695   2.249 -0.0398 -0.5309  0.4415
50640SOL    HW161850   8.134   5.676   2.317  0.4405 -0.4923  0.9026
50640SOL    HW261851   8.159   5.660   2.169 -1.6218  1.3362  0.3227
50641SOL     OW61852   3.088   2.330   6.515 -0.0703  0.2083 -0.0235
50641SOL    HW161853   3.111   2.299   6.427 -2.5427 -0.0498 -0.6387
50641SOL    HW261854   3.028   2.263   6.549  1.8533 -0.3973  2.4581
50642SOL     OW61855   2.365   6.393  11.305 -0.2771  0.1010 -0.0650
50642SOL    HW161856   2.302   6.374  11.235 -1.1471 -0.3305  0.8043
50642SOL    HW261857   2.359   6.487  11.318  0.6187  0.3427 -1.2220
50643SOL     OW61858   1.511   6.883   2.841  0.8161  0.1771 -0.4138
50643SOL    HW161859   1.524   6.834   2.922 -3.2596  0.4854  0.6215
50643SOL    HW261860   1.441   6.836   2.795 -0.0314  2.4450 -1.5962
50644SOL     OW61861   2.688   6.679   9.340  0.1972  0.4703  0.1891
50644SOL    HW161862   2.688   6.588   9.370 -0.2259  0.8964  1.5598
50644SOL    HW261863   2.737   6.677   9.258 -1.2339 -1.2749 -0.7035
50645SOL     OW61864   5.796   7.809   7.328  0.4493 -0.5050 -0.4180
50645SOL    HW161865   5.863   7.782   7.265  0.8601  1.6305 -0.9872
50645SOL    HW261866   5.729   7.851   7.274 -0.2936 -0.6928  0.3557
50646SOL     OW61867   6.284   1.732   6.672  0.2527  0.5765 -0.4820
50646SOL    HW161868   6.310   1.664   6.610  0.8488  0.9427 -0.6392
50646SOL    HW261869   6.190   1.742   6.659  0.2310  0.0557 -0.7268
50647SOL     OW61870   8.959   9.631   2.799 -0.2029 -0.5411 -0.4262
50647SOL    HW161871   8.939   9.646   2.891 -2.2086 -1.1758 -0.7138
50647SOL    HW261872   8.889   9.574   2.768  0.8489 -0.9785 -2.1733
50648SOL     OW61873  11.733  12.674   7.562  0.4826 -0.1763  0.0511
50648SOL    HW161874  11.717  12.587   7.524 -0.1438 -0.1513  0.2519
50648SOL    HW261875  11.806  12.660   7.623 -0.7631 -0.9728  1.4472
50649SOL     OW61876   3.270   3.630   5.915  0.2549 -0.2250 -0.4280
50649SOL    HW161877   3.361   3.606   5.895 -0.1106 -1.1630 -1.0754
50649SOL    HW261878   3.219   3.591   5.844 -0.5709  1.1138 -0.6006
50650SOL     OW61879   9.145  11.698   2.504 -0.0890  0.1142  0.3978
50650SOL    HW161880   9.170  11.708   2.596 -1.5680  0.4390  0.7820
50650SOL    HW261881   9.060  11.655   2.507 -0.3733  0.5633 -0.7988
50651SOL     OW61882   3.816   6.628   4.675  0.0406  0.5209  0.3317
50651SOL    HW161883   3.871   6.696   4.713 -0.1636 -0.2088  2.0449
50651SOL    HW261884   3.726   6.660   4.688 -0.0025  0.8524 -0.7360
50652SOL     OW61885  10.373  12.463   7.677  0.1437  0.4260 -0.2522
50652SOL    HW161886  10.371  12.452   7.772  0.0093  0.8559 -0.2045
50652SOL    HW261887  10.284  12.446   7.649 -0.1472  1.6748 -0.1406
50653SOL     OW61888  11.425  13.039   9.816  0.1133  0.7749 -0.3886
50653SOL    HW161889  11.350  12.986   9.842 -0.4476  1.5612 -0.3523
50653SOL    HW261890  11.501  12.992   9.850 -0.4786  0.8142  1.0484
50654SOL     OW61891   8.296   4.729  12.134  1.1423  0.1289 -0.3011
50654SOL    HW161892   8.259   4.687  12.212  0.8874  0.0701 -0.4505
50654SOL    HW261893   8.389   4.706  12.135  0.9031 -0.8960 -0.6749
50655SOL     OW61894   8.624   1.041   4.546  0.1440 -0.4126  0.2231
50655SOL    HW161895   8.679   1.086   4.609  1.4526  0.5934 -1.5581
50655SOL    HW261896   8.541   1.089   4.547  0.8424  0.8408 -0.2330
50656SOL     OW61897   7.931  12.331   9.709  0.0130  0.2944  0.7009
50656SOL    HW161898   8.009  12.293   9.669 -0.2180  1.7729 -1.2835
50656SOL    HW261899   7.870  12.257   9.716  0.1317 -0.1018 -1.6184
50657SOL     OW61900   8.240   2.263   7.595 -0.2529  0.0514  0.4248
50657SOL    HW161901   8.317   2.315   7.619 -0.6574  0.7034  0.3602
50657SOL    HW261902   8.193   2.319   7.533 -0.3284 -0.7108 -0.2176
50658SOL     OW61903   7.394   3.602   2.486  0.1427  0.2763 -0.1561
50658SOL    HW161904   7.457   3.669   2.458 -0.1622  0.6199 -0.0172
50658SOL    HW261905   7.319   3.614   2.429 -0.2515  0.6059  0.4212
50659SOL     OW61906   8.973   6.273  13.045  0.4676  0.1208 -0.1876
50659SOL    HW161907   9.055   6.230  13.020  1.0965  1.9234 -1.4511
50659SOL    HW261908   8.992   6.313  13.130  0.4078 -0.6682  0.2087
50660SOL     OW61909   3.811   9.017   5.997  0.1863 -0.7359  0.2677
50660SOL    HW161910   3.716   9.008   5.998  0.2777 -1.9155 -0.4764
50660SOL    HW261911   3.844   8.928   5.983  1.4002 -0.3337  0.4124
50661SOL     OW61912   3.973   8.480   0.340 -0.5768  0.1710  0.2043
50661SOL    HW161913   4.030   8.408   0.368 -1.2354 -1.5076 -2.3588
50661SOL    HW261914   3.982   8.546   0.408  0.0748 -2.3289  2.7270
50662SOL     OW61915   3.328   0.060   5.981 -0.0195 -1.2201  0.1936
50662SOL    HW161916   3.261   0.004   5.942 -1.0600  0.7846 -1.0799
50662SOL    HW261917   3.284   0.101   6.056 -0.1102 -0.2723 -0.3537
50663SOL     OW61918   4.859  11.396   3.238  0.4117  0.1137 -0.0794
50663SOL    HW161919   4.811  11.353   3.167 -0.7267 -0.1580  0.8192
50663SOL    HW261920   4.918  11.328   3.272  0.4530  0.0347 -0.3087
50664SOL     OW61921  11.205   2.826   1.692  0.3849  0.1196 -0.2042
50664SOL    HW161922  11.287   2.874   1.702  0.5829 -0.3398  0.4139
50664SOL    HW261923  11.197   2.811   1.598  1.5475 -0.7675 -0.1781
50665SOL     OW61924   9.313   6.809   9.209 -0.4241  0.0773  0.5073
50665SOL    HW161925   9.287   6.901   9.205  0.6311  0.4083  0.8986
50665SOL    HW261926   9.345   6.789   9.121  1.0315  0.6217  0.8899
50666SOL     OW61927   4.332   7.831  12.997  0.5237 -0.2412  0.0231
50666SOL    HW161928   4.272   7.771  13.043 -1.1758 -0.4204 -2.2429
50666SOL    HW261929   4.401   7.774  12.962  0.3024 -0.5114  0.0189
50667SOL     OW61930   1.775   1.204   8.650 -0.1320 -0.1617  0.4450
50667SOL    HW161931   1.692   1.166   8.680  0.1456  0.7038  2.4220
50667SOL    HW261932   1.836   1.190   8.722  1.2004  0.0707 -0.5980
50668SOL     OW61933   2.796   1.834   2.648 -0.5857 -0.0140  0.2980
50668SOL    HW161934   2.707   1.807   2.671 -0.9795  1.3739  0.5161
50668SOL    HW261935   2.844   1.830   2.731 -0.9999  1.2404  0.6147
50669SOL     OW61936   7.858   3.546   4.823  0.3251 -0.2268  0.5833
50669SOL    HW161937   7.868   3.460   4.862  1.7560  0.6408  2.2886
50669SOL    HW261938   7.804   3.595   4.885  0.3024  0.3752  0.1008
50670SOL     OW61939   8.564   3.876   3.014 -0.2125 -0.5149 -0.4394
50670SOL    HW161940   8.528   3.881   3.103  1.8799 -0.7036  0.5000
50670SOL    HW261941   8.492   3.902   2.957 -1.1311  1.3317  1.4367
50671SOL     OW61942   6.907   6.217   5.750  0.0409  0.6201  0.3787
50671SOL    HW161943   6.830   6.212   5.807 -1.2536 -1.6761 -1.3840
50671SOL    HW261944   6.873   6.202   5.662  2.5775 -1.9213 -0.3584
50672SOL     OW61945   9.947   4.802  12.953  0.4718 -0.4215 -0.0037
50672SOL    HW161946   9.874   4.860  12.975 -0.0259 -1.1648  0.3268
50672SOL    HW261947   9.987   4.842  12.876 -1.3896 -0.9527 -1.3037
50673SOL     OW61948   6.991  10.768  11.476 -0.4532 -0.1795  0.1658
50673SOL    HW161949   7.068  10.723  11.441 -0.5915  0.3829 -0.8782
50673SOL    HW261950   7.004  10.765  11.571  0.2567 -1.1439  0.0647
50674SOL     OW61951   7.354   3.307   8.407  0.5487 -0.2756  0.3767
50674SOL    HW161952   7.290   3.312   8.336  1.5932 -0.9485 -0.6495
50674SOL    HW261953   7.435   3.280   8.364  1.4508  0.2601  1.6886
50675SOL     OW61954   8.438   7.617   2.201 -0.3077  1.0766  0.2015
50675SOL    HW161955   8.437   7.642   2.294 -0.3227  1.7657  0.0218
50675SOL    HW261956   8.366   7.554   2.193 -0.3275  1.0377  0.6532
50676SOL     OW61957   8.002   6.967  10.869  0.5786 -0.3855 -0.2798
50676SOL    HW161958   8.009   7.049  10.820  0.3532 -0.2641 -0.1153
50676SOL    HW261959   8.091   6.949  10.900  0.5084  0.1673  0.2667
50677SOL     OW61960   1.789   0.597   9.572  0.0822  0.1979 -0.4162
50677SOL    HW161961   1.737   0.631   9.499 -2.3077 -1.8108  0.1856
50677SOL    HW261962   1.740   0.623   9.650  0.3205 -1.1592  0.2247
50678SOL     OW61963   7.210  12.312  11.285  0.2172  0.2095  0.0295
50678SOL    HW161964   7.199  12.216  11.289 -0.1239  0.2346 -0.2129
50678SOL    HW261965   7.252  12.327  11.200 -3.4995  0.5685 -1.9581
50679SOL     OW61966  11.093  11.909   2.467 -0.4209  0.2946 -0.1825
50679SOL    HW161967  11.162  11.962   2.427 -2.6263  3.1193 -0.6258
50679SOL    HW261968  11.130  11.880   2.550  1.9214  0.0221 -1.2440
50680SOL     OW61969  12.972   8.883  10.736  0.1899  0.4343 -0.3568
50680SOL    HW161970  12.942   8.882  10.827 -0.4490  0.8717 -0.5507
50680SOL    HW261971  12.982   8.791  10.713  0.6574  0.3318  0.2507
50681SOL     OW61972   2.423  11.520   5.200  0.1040  0.0935 -0.0212
50681SOL    HW161973   2.416  11.614   5.182  0.5825 -0.0157 -0.8310
50681SOL    HW261974   2.411  11.478   5.115  1.3183 -0.5097  0.0805
50682SOL     OW61975   6.892   5.324   2.332 -0.7676  0.2533 -0.6713
50682SOL    HW161976   6.809   5.370   2.317  0.5319  2.4288 -1.7132
50682SOL    HW261977   6.918   5.351   2.420  0.3743  2.3051 -1.5681
50683SOL     OW61978  11.652   9.284   2.255 -0.0853 -0.1659  0.2561
50683SOL    HW161979  11.723   9.346   2.275 -0.7060  0.3597  0.8600
50683SOL    HW261980  11.669   9.258   2.165 -0.7349  2.1729 -0.6212
50684SOL     OW61981   7.113   8.016  11.108 -0.7960 -0.2365 -0.1698
50684SOL    HW161982   7.066   8.098  11.098  0.1026  0.3355  0.1434
50684SOL    HW261983   7.117   8.002  11.203 -1.5466 -1.0071 -0.2434
50685SOL     OW61984  12.167   4.183   1.012 -0.2914  0.5572  0.3867
50685SOL    HW161985  12.246   4.130   1.000  0.3574  0.8559  2.7374
50685SOL    HW261986  12.173   4.251   0.945  0.5156 -0.4478 -0.6010
50686SOL     OW61987  12.558   8.439   3.575 -0.1319  0.5009 -0.1496
50686SOL    HW161988  12.652   8.429   3.589 -0.3365 -0.8681  0.4406
50686SOL    HW261989  12.545   8.421   3.482  0.4591  3.1660 -0.8069
50687SOL     OW61990  11.291  12.185   9.881 -0.1459  0.0461  0.0385
50687SOL    HW161991  11.334  12.208   9.963 -0.7964  0.3861  0.2943
50687SOL    HW261992  11.344  12.114   9.844  0.2636  0.0310  0.6534
50688SOL     OW61993  12.017   0.181   7.811  0.3426 -0.4365 -0.1080
50688SOL    HW161994  12.011   0.221   7.898  1.4230 -1.3010  0.3771
50688SOL    HW261995  11.986   0.092   7.823 -1.2842 -0.0513 -1.0261
50689SOL     OW61996   1.392   9.275   8.451  0.2858 -0.2948 -0.3430
50689SOL    HW161997   1.367   9.356   8.406  0.9998 -0.2741 -0.7184
50689SOL    HW261998   1.408   9.212   8.380  2.3142 -0.0075 -0.1889
50690SOL     OW61999   0.578   8.810  11.917 -0.5450  0.1487  0.2659
50690SOL    HW162000   0.566   8.804  11.822 -1.0103 -0.3952  0.3523
50690SOL    HW262001   0.511   8.871  11.946 -1.1204 -0.5115  0.3667
50691SOL     OW62002  10.700  10.751   5.325  0.1308 -0.0574  0.5591
50691SOL    HW162003  10.677  10.729   5.415 -1.8981 -0.2378  0.0521
50691SOL    HW262004  10.628  10.806   5.294  0.8565  0.1279 -0.9092
50692SOL     OW62005   4.230   6.205   1.954  0.4116  0.8080  0.3912
50692SOL    HW162006   4.221   6.238   2.043 -1.9600  2.1083 -0.2697
50692SOL    HW262007   4.228   6.283   1.898 -1.1459 -0.1326 -0.9613
50693SOL     OW62008   5.406   8.679   3.259  0.6241  0.8934  0.8023
50693SOL    HW162009   5.478   8.641   3.310  0.6244  0.6070  0.5882
50693SOL    HW262010   5.417   8.643   3.171 -0.2546  0.2072  0.9592
50694SOL     OW62011   2.240   0.367   4.895 -0.6691  0.6154  0.1458
50694SOL    HW162012   2.198   0.441   4.939  0.6173  1.2672  0.3362
50694SOL    HW262013   2.277   0.315   4.966  0.4917  1.1006 -0.0680
50695SOL     OW62014  12.107   1.475   9.203 -0.2215  0.2304 -0.1433
50695SOL    HW162015  12.098   1.567   9.181 -0.4276  0.6565  1.6215
50695SOL    HW262016  12.056   1.464   9.283 -0.4771 -1.4978 -0.4902
50696SOL     OW62017   7.753   5.529   0.262  0.0931  0.0619 -0.4363
50696SOL    HW162018   7.822   5.526   0.196 -0.2820  1.0602 -0.8955
50696SOL    HW262019   7.799   5.540   0.345  0.4743  1.5668 -0.8190
50697SOL     OW62020   9.474  10.973   6.109  0.5051  0.3526  0.1107
50697SOL    HW162021   9.473  10.880   6.131 -0.3986  0.2206 -0.4638
50697SOL    HW262022   9.517  10.977   6.023  0.6610  0.4802  0.1939
50698SOL     OW62023  11.904   8.921  10.440 -0.0641  0.0256 -0.4686
50698SOL    HW162024  11.981   8.874  10.409  0.1862 -1.2779  1.8807
50698SOL    HW262025  11.936   9.008  10.462  0.2244  0.2133 -1.5699
50699SOL     OW62026   4.817  10.040   3.162  0.1735 -0.1066 -0.6274
50699SOL    HW162027   4.802  10.033   3.067 -1.6401  1.4960 -0.5280
50699SOL    HW262028   4.759   9.974   3.200  0.9204 -0.7668 -0.6207
50700SOL     OW62029   7.781   0.264   9.274  0.1750  0.0207  0.1603
50700SOL    HW162030   7.813   0.280   9.185  0.2707  1.1147  0.3801
50700SOL    HW262031   7.702   0.211   9.262 -0.0451  0.5157 -0.5960
50701SOL     OW62032   1.892   0.000  12.441 -0.6852 -0.7005 -0.5130
50701SOL    HW162033   1.826  -0.062  12.411 -0.2849 -1.2852 -0.1993
50701SOL    HW262034   1.965  -0.012  12.381 -0.8385 -0.0784 -0.8391
50702SOL     OW62035   7.687  12.585   2.518 -0.1633 -0.5096 -0.0628
50702SOL    HW162036   7.675  12.623   2.431 -1.3729 -1.4708 -0.3383
50702SOL    HW262037   7.748  12.644   2.561 -1.2076  1.2026 -0.8214
50703SOL     OW62038   4.032   8.405   5.739  0.0079  0.2432 -0.2779
50703SOL    HW162039   3.948   8.401   5.695  0.6549 -0.5763 -1.5154
50703SOL    HW262040   4.088   8.454   5.680  0.8519 -0.7290 -0.3261
50704SOL     OW62041  11.308   4.186  10.286 -0.1897  0.0363  0.2690
50704SOL    HW162042  11.229   4.133  10.274  1.3417 -2.2116 -0.6516
50704SOL    HW262043  11.331   4.216  10.198 -0.3755  1.2898  0.6271
50705SOL     OW62044   2.933   9.357  10.212  0.1633 -0.5329 -0.4347
50705SOL    HW162045   2.954   9.270  10.178 -0.8494 -0.7483 -0.5381
50705SOL    HW262046   2.998   9.415  10.172 -0.5604 -0.8851 -2.2097
50706SOL     OW62047   6.500   9.281   5.357 -0.1445 -0.2042  0.1340
50706SOL    HW162048   6.584   9.256   5.395 -0.9467 -2.3584  0.6553
50706SOL    HW262049   6.471   9.203   5.309 -2.4829 -0.0823  1.1800
50707SOL     OW62050   0.029  12.421   3.505  0.2602 -0.8005 -0.3569
50707SOL    HW162051  -0.009  12.441   3.419  1.9226  4.5445 -0.2405
50707SOL    HW262052   0.123  12.428   3.492  0.6903 -2.4833  1.4754
50708SOL     OW62053   7.018   4.019   4.095 -0.5197  0.1416 -0.0421
50708SOL    HW162054   7.017   3.930   4.059  0.7004  0.0278  0.1479
50708SOL    HW262055   6.966   4.013   4.175 -2.4961  0.1850 -1.2629
50709SOL     OW62056   0.207   0.655   1.041  0.0360  0.5658 -0.6920
50709SOL    HW162057   0.237   0.567   1.019 -0.3840  0.3261 -0.3375
50709SOL    HW262058   0.167   0.688   0.960 -1.6137 -0.3543 -0.3099
50710SOL     OW62059   4.087   7.632   4.332 -0.0040  0.3079 -0.6294
50710SOL    HW162060   4.038   7.712   4.315 -1.1030 -0.1532  0.2125
50710SOL    HW262061   4.071   7.614   4.425  0.9724 -0.3923 -0.5873
50711SOL     OW62062  11.537   8.169   3.439  0.0291 -0.3785 -0.0305
50711SOL    HW162063  11.584   8.177   3.522  0.4017 -1.6175 -0.0895
50711SOL    HW262064  11.452   8.209   3.455  1.1703  2.2749 -0.0272
50712SOL     OW62065  10.584  12.829   8.933  0.1437  0.1171  0.3106
50712SOL    HW162066  10.558  12.806   8.844 -0.4801 -0.9442  0.7513
50712SOL    HW262067  10.541  12.913   8.950 -0.4901 -0.1250 -0.0641
50713SOL     OW62068  13.184   7.168  11.713  0.3022  0.2868  0.2906
50713SOL    HW162069  13.225   7.084  11.691  0.2060  0.0340  1.0645
50713SOL    HW262070  13.254   7.232  11.704  0.1274  0.3094 -1.3959
50714SOL     OW62071   0.389  12.349  11.685  0.1050 -0.0725  0.8445
50714SOL    HW162072   0.354  12.435  11.710  0.5813  0.2321  0.4738
50714SOL    HW262073   0.457  12.331  11.750 -1.0186 -0.8800  1.8511
50715SOL     OW62074   3.077   1.011   9.100 -0.6322  0.3515 -0.8300
50715SOL    HW162075   3.087   0.917   9.088 -0.0094  0.3411 -0.2903
50715SOL    HW262076   3.166   1.046   9.093 -0.6166  0.6843  0.6807
50716SOL     OW62077   6.982   3.273   0.811 -0.8324  0.0147 -0.1701
50716SOL    HW162078   6.980   3.341   0.744 -0.6624 -0.1223 -0.3150
50716SOL    HW262079   6.891   3.267   0.842 -0.4929  1.7026  1.2751
50717SOL     OW62080   4.237   8.424  13.280 -0.5314 -0.0965  0.1077
50717SOL    HW162081   4.146   8.397  13.295 -1.0749  1.7979  0.3944
50717SOL    HW262082   4.251   8.407  13.187 -1.1020 -0.5746  0.0973
50718SOL     OW62083   6.716  12.306   6.728 -0.3211 -0.5984  0.4826
50718SOL    HW162084   6.750  12.235   6.783  1.2921 -0.3122 -0.0978
50718SOL    HW262085   6.701  12.378   6.789  0.8897 -0.4787  0.6702
50719SOL     OW62086  11.667  12.043   2.004  0.2115  0.2298 -0.3120
50719SOL    HW162087  11.698  11.998   1.926 -0.3557  0.3900 -0.6380
50719SOL    HW262088  11.643  11.973   2.065 -1.8818 -0.0013 -1.2821
50720SOL     OW62089   3.379  12.110   2.187 -0.0897  0.1672  0.0334
50720SOL    HW162090   3.453  12.163   2.216 -0.1901 -0.5999  1.8448
50720SOL    HW262091   3.389  12.105   2.092  2.4783 -0.3216  0.2473
50721SOL     OW62092   4.977   5.331   5.330 -0.2928 -0.5201  0.5617
50721SOL    HW162093   5.031   5.282   5.392 -0.2871 -0.7839  0.3537
50721SOL    HW262094   5.039   5.365   5.265 -0.1181  0.9969  1.4928
50722SOL     OW62095   1.025   2.569   8.575  0.2569 -0.2650  0.0681
50722SOL    HW162096   0.958   2.535   8.634 -0.1431 -0.0875 -0.2723
50722SOL    HW262097   1.012   2.664   8.577  1.0186 -0.1603  0.6078
50723SOL     OW62098  12.645   0.148  11.160 -0.4934  0.7316  0.0203
50723SOL    HW162099  12.695   0.126  11.082 -1.9801  0.4018 -0.8850
50723SOL    HW262100  12.554   0.129  11.136 -1.2015  2.4319  1.1800
50724SOL     OW62101  10.405  10.471  11.057 -0.1015 -0.0058 -0.2110
50724SOL    HW162102  10.416  10.385  11.098  1.6348  0.6614  0.8754
50724SOL    HW262103  10.356  10.523  11.121 -0.9759 -0.1133 -0.7800
50725SOL     OW62104   4.636   7.863  11.269  0.1580 -0.7025 -0.1264
50725SOL    HW162105   4.726   7.896  11.271  0.3115 -1.1247  0.2754
50725SOL    HW262106   4.640   7.787  11.211  0.1271 -0.8853  0.1059
50726SOL     OW62107   2.039   9.709   4.057  0.1463 -0.6080  0.5053
50726SOL    HW162108   1.955   9.735   4.095  0.3553 -0.1638  0.6656
50726SOL    HW262109   2.020   9.628   4.009 -0.0579 -1.3868  1.8469
50727SOL     OW62110   6.264   6.637   7.945  0.2960 -0.0179 -0.1108
50727SOL    HW162111   6.192   6.578   7.919 -0.5871  0.5655  0.9328
50727SOL    HW262112   6.343   6.584   7.936 -0.3638 -0.9848 -0.3458
50728SOL     OW62113   1.157  10.558   6.463 -0.3180 -0.0403  0.5685
50728SOL    HW162114   1.227  10.495   6.475  0.4910  0.7008 -0.1629
50728SOL    HW262115   1.095  10.515   6.404 -0.3123 -0.5656  0.9452
50729SOL     OW62116  11.088   2.442   5.599 -0.2035 -0.3302 -1.1096
50729SOL    HW162117  11.127   2.364   5.639 -0.8920 -0.5455 -0.8330
50729SOL    HW262118  11.135   2.454   5.517  2.1664  0.8904  0.3307
50730SOL     OW62119   3.166  11.222   9.775  0.0218  0.4848 -0.1335
50730SOL    HW162120   3.078  11.257   9.759 -0.3033  0.0446  0.6233
50730SOL    HW262121   3.181  11.161   9.703 -1.4795 -1.5970  1.2151
50731SOL     OW62122   7.859  11.819   8.532 -0.2674 -0.1397 -0.1629
50731SOL    HW162123   7.879  11.812   8.439 -1.1233  0.8171 -0.4339
50731SOL    HW262124   7.804  11.742   8.551 -1.1472  0.3311 -0.7500
50732SOL     OW62125   9.865  10.304   1.697 -0.2420  0.6745  0.1235
50732SOL    HW162126   9.957  10.311   1.673  0.0709 -1.3403  0.5408
50732SOL    HW262127   9.833  10.394   1.699  1.9576  1.4896  0.9268
50733SOL     OW62128  12.252  13.186  11.531 -0.3176 -0.4259  0.1803
50733SOL    HW162129  12.273  13.251  11.598 -0.1156 -0.1363 -0.1577
50733SOL    HW262130  12.332  13.177  11.480 -0.5083 -0.5448 -0.1031
50734SOL     OW62131  10.233   0.530  11.356  0.3423 -0.0833  0.2563
50734SOL    HW162132  10.161   0.592  11.363  0.2798 -0.0381 -0.7091
50734SOL    HW262133  10.311   0.584  11.344  0.5897 -0.1215  1.5515
50735SOL     OW62134  10.970   2.191  13.147  0.0370 -0.0681  0.0389
50735SOL    HW162135  10.964   2.220  13.238  2.3933  1.0351 -0.0598
50735SOL    HW262136  10.995   2.099  13.153  0.9298  0.1930  0.5613
50736SOL     OW62137   0.560   9.587   7.543  0.1423  0.1977 -0.7209
50736SOL    HW162138   0.611   9.506   7.539  1.6544  0.9001  1.8929
50736SOL    HW262139   0.625   9.656   7.538 -0.6863  1.1600  0.9553
50737SOL     OW62140   3.961   8.282   8.738  0.8304 -0.6217 -0.2482
50737SOL    HW162141   3.978   8.277   8.644  0.8918 -1.1426 -0.2147
50737SOL    HW262142   3.868   8.302   8.745  0.8149 -0.6329 -0.4179
50738SOL     OW62143   7.593   1.294   1.022  0.0705  0.1167  0.0655
50738SOL    HW162144   7.528   1.349   1.067 -1.4484  0.0417 -1.8902
50738SOL    HW262145   7.574   1.206   1.052 -2.4601 -0.2498 -2.2436
50739SOL     OW62146   6.738   5.713  12.254  0.8816  0.3452  0.4488
50739SOL    HW162147   6.762   5.794  12.210  1.2712 -0.6400 -1.2194
50739SOL    HW262148   6.642   5.718  12.261  0.9216  1.0596  0.6314
50740SOL     OW62149   4.062   5.430   5.719  0.3564  0.0093 -0.3588
50740SOL    HW162150   4.099   5.341   5.717  0.2201 -0.0563  0.0564
50740SOL    HW262151   3.977   5.420   5.761  1.2230  0.6427  1.7027
50741SOL     OW62152   7.778  11.402   4.049 -0.3301  0.4106  0.0044
50741SOL    HW162153   7.683  11.413   4.055 -0.3529  0.6184 -0.6857
50741SOL    HW262154   7.808  11.414   4.139 -1.0251 -0.3798  0.3618
50742SOL     OW62155   0.739   9.493   4.056  0.4034  0.0750 -0.1114
50742SOL    HW162156   0.803   9.562   4.073  3.9249 -3.4814  3.1547
50742SOL    HW262157   0.757   9.465   3.967  1.2716  1.1155 -0.2878
50743SOL     OW62158   8.971   9.643   6.302 -0.3278 -0.3387  0.3195
50743SOL    HW162159   9.030   9.574   6.332  0.1123 -0.2334 -0.3004
50743SOL    HW262160   9.026   9.720   6.294  0.0179 -0.7956 -2.6100
50744SOL     OW62161   6.635   1.552   7.341  0.6914  0.6167  0.1536
50744SOL    HW162162   6.563   1.615   7.337  1.3621  1.3756 -0.6292
50744SOL    HW262163   6.603   1.482   7.398 -0.4414  1.2036  0.2771
50745SOL     OW62164  10.414  12.190   5.945  0.2304 -0.5665 -0.0392
50745SOL    HW162165  10.434  12.187   6.039  0.8393  0.2254 -0.1317
50745SOL    HW262166  10.397  12.099   5.921  2.3294 -1.1124  0.3706
50746SOL     OW62167   5.096  11.849  13.106 -0.1273 -0.6998 -0.1353
50746SOL    HW162168   5.123  11.777  13.164  4.0110  0.8044  0.1895
50746SOL    HW262169   5.170  11.860  13.047 -1.3407  2.2034 -1.2629
50747SOL     OW62170   6.806  12.293   5.063 -0.4655  0.3322 -0.5427
50747SOL    HW162171   6.889  12.248   5.078  0.6788  2.5230  0.2308
50747SOL    HW262172   6.740  12.224   5.065  0.9690 -1.1299  2.1794
50748SOL     OW62173   8.727  10.498  10.112 -0.4353 -0.5037  0.3326
50748SOL    HW162174   8.703  10.515  10.203 -0.6647 -2.2279  0.6426
50748SOL    HW262175   8.748  10.584  10.075  1.5728  0.0487  2.5265
50749SOL     OW62176   0.289  13.264   1.254 -0.5462  0.2518  0.4939
50749SOL    HW162177   0.341  13.263   1.174  0.1576 -2.0822  0.9093
50749SOL    HW262178   0.325  13.337   1.305  2.1612 -1.0543  0.6193
50750SOL     OW62179   6.953   0.221   4.114 -0.1794  1.0075  0.3280
50750SOL    HW162180   6.959   0.274   4.035  0.0843 -0.2449 -0.5247
50750SOL    HW262181   6.859   0.214   4.131 -0.3267  0.0493 -0.7637
50751SOL     OW62182   9.453   8.835   6.872 -0.2207 -0.3322 -0.3655
50751SOL    HW162183   9.450   8.793   6.958  0.2813  0.0831 -0.1406
50751SOL    HW262184   9.544   8.861   6.861  0.2352 -2.3688 -1.9998
50752SOL     OW62185   0.690   3.999   4.267  0.1131  0.1403 -0.0828
50752SOL    HW162186   0.772   3.953   4.248 -0.2517  0.6067 -3.4680
50752SOL    HW262187   0.702   4.087   4.230 -1.9150  0.1737 -0.8177
50753SOL     OW62188   0.630  12.305   1.221 -0.0402  0.1728 -0.1339
50753SOL    HW162189   0.723  12.316   1.243  0.3238 -1.5631 -0.6683
50753SOL    HW262190   0.586  12.296   1.306  0.5983 -1.1120  0.0858
50754SOL     OW62191  10.325   5.290   7.271 -0.3039 -0.2391  0.2977
50754SOL    HW162192  10.389   5.333   7.328 -0.5345 -0.8320  1.0240
50754SOL    HW262193  10.340   5.328   7.185 -0.1296  0.8737  0.8057
50755SOL     OW62194   9.956   0.481   0.264 -0.1018  0.2736 -0.2183
50755SOL    HW162195   9.866   0.465   0.234  0.6232 -1.0430 -1.8762
50755SOL    HW262196   9.951   0.564   0.312 -1.7188  1.7290 -2.6565
50756SOL     OW62197   1.158   6.666  12.410 -0.1910  0.0813  0.0108
50756SOL    HW162198   1.245   6.642  12.378 -0.7238  0.0767 -1.5587
50756SOL    HW262199   1.173   6.705  12.496  1.0476 -2.5320  1.0795
50757SOL     OW62200   2.995   2.557   7.511 -0.1671 -0.1242  0.0782
50757SOL    HW162201   3.069   2.616   7.527 -1.6266  2.6330 -2.2612
50757SOL    HW262202   3.030   2.492   7.449  1.1135 -0.9385  1.5947
50758SOL     OW62203   0.541   7.734   0.911 -0.4222 -0.0414 -0.1336
50758SOL    HW162204   0.622   7.727   0.861 -1.6770 -0.4446 -2.2287
50758SOL    HW262205   0.528   7.828   0.924  1.3455  0.0015  2.0364
50759SOL     OW62206   8.077  11.849  11.604  0.3085 -0.2680  0.1606
50759SOL    HW162207   8.019  11.801  11.545  0.0604  0.0614  0.1322
50759SOL    HW262208   8.088  11.791  11.680  1.3702 -1.0948 -0.5960
50760SOL     OW62209   5.807   4.881   9.261  0.3737 -0.6093  0.0696
50760SOL    HW162210   5.761   4.965   9.253  0.7084 -0.4926 -0.8458
50760SOL    HW262211   5.792   4.838   9.176  1.1018 -1.0025  0.1359
50761SOL     OW62212   6.571   0.095   1.819 -0.4049  0.1729  0.6652
50761SOL    HW162213   6.609   0.173   1.778 -1.0717  0.2506  0.1722
50761SOL    HW262214   6.592   0.024   1.759 -0.6304  0.1406  0.6215
50762SOL     OW62215   0.474  10.332   4.374 -0.0394  0.3225  0.4953
50762SOL    HW162216   0.404  10.377   4.329 -0.1304 -0.3116 -0.0064
50762SOL    HW262217   0.452  10.340   4.467 -1.7755 -1.4307  0.2940
50763SOL     OW62218   5.230   6.983  12.590 -0.6238  0.1809  0.3454
50763SOL    HW162219   5.294   7.055  12.592 -0.8001  0.4194 -1.1966
50763SOL    HW262220   5.148   7.025  12.567 -0.5106 -0.6131 -1.7290
50764SOL     OW62221   8.957   7.550   9.171 -0.2581 -0.1302  0.4703
50764SOL    HW162222   8.877   7.503   9.196  0.1027 -0.0023  1.9725
50764SOL    HW262223   8.954   7.631   9.222  0.8530 -0.1464  0.5802
50765SOL     OW62224   9.504  10.117   9.345  0.4253  0.0918  0.0621
50765SOL    HW162225   9.505  10.211   9.325  0.8524 -0.2566 -1.6462
50765SOL    HW262226   9.596  10.091   9.342  0.2040 -0.6243 -0.6349
50766SOL     OW62227   7.154   7.656   3.818 -0.1857  0.0883 -0.3977
50766SOL    HW162228   7.241   7.645   3.857 -0.2623  1.0979  0.0989
50766SOL    HW262229   7.096   7.670   3.894 -0.6975 -0.0285 -0.7613
50767SOL     OW62230   0.493  11.807  12.059  0.0046  0.1052 -0.2412
50767SOL    HW162231   0.467  11.789  12.150  0.2082  0.2110 -0.1627
50767SOL    HW262232   0.534  11.726  12.030  0.4152  0.2463 -0.0674
50768SOL     OW62233   3.807   3.831   6.498 -0.7420 -0.0024  0.0269
50768SOL    HW162234   3.862   3.768   6.450 -1.0309 -2.0783  2.1844
50768SOL    HW262235   3.868   3.900   6.525  0.0667 -0.4382 -0.6183
50769SOL     OW62236   2.724  11.545  11.045  0.0760  0.0122 -0.4704
50769SOL    HW162237   2.668  11.485  11.095  1.0487 -0.6421 -0.1234
50769SOL    HW262238   2.669  11.621  11.029 -1.4115 -1.2054 -1.4682
50770SOL     OW62239   5.989   2.285   4.364 -0.1088  0.3267  0.4711
50770SOL    HW162240   5.978   2.335   4.283  0.9791 -0.8875 -0.4554
50770SOL    HW262241   6.083   2.287   4.382 -0.1391 -0.7360  0.8284
50771SOL     OW62242   4.729   1.370   2.720 -0.5149  0.2361  0.7768
50771SOL    HW162243   4.651   1.409   2.680 -0.1258  0.3436  0.1134
50771SOL    HW262244   4.800   1.430   2.699  0.5081 -1.7813 -2.0798
50772SOL     OW62245  10.137   2.792  11.446 -0.0149 -0.1116  0.3820
50772SOL    HW162246  10.076   2.855  11.407 -1.4434 -0.1248  2.4434
50772SOL    HW262247  10.117   2.709  11.403  0.1927  0.3301 -0.6038
50773SOL     OW62248  11.171   9.449   8.972  0.0116  0.0671 -0.1754
50773SOL    HW162249  11.147   9.357   8.964 -0.2499  0.1716 -0.6360
50773SOL    HW262250  11.248   9.459   8.917 -0.8913  0.4557 -1.4133
50774SOL     OW62251   0.497   2.508   0.882 -0.7610 -0.7539 -0.0733
50774SOL    HW162252   0.429   2.543   0.940  1.0324  1.8842  0.5940
50774SOL    HW262253   0.457   2.511   0.795 -1.5333  0.7146  0.2988
50775SOL     OW62254  11.910   7.062   3.156 -0.1838 -0.1150 -0.1719
50775SOL    HW162255  11.917   7.059   3.061  0.4522 -0.6306 -0.1132
50775SOL    HW262256  11.984   7.115   3.184 -0.4883  0.2134  0.0338
50776SOL     OW62257   7.789   9.349  11.002  0.7060  0.6504 -0.1043
50776SOL    HW162258   7.772   9.394  11.085  2.0899  1.3003 -0.1530
50776SOL    HW262259   7.777   9.256  11.023 -0.8079  0.9140  0.3380
50777SOL     OW62260  11.707   7.264   7.581  0.0104 -0.2138 -0.6155
50777SOL    HW162261  11.642   7.328   7.611  0.7737 -0.6792  2.3930
50777SOL    HW262262  11.657   7.201   7.530 -1.3525  0.9790 -0.8058
50778SOL     OW62263   0.671   5.227  11.160 -0.2308  0.0984 -0.8319
50778SOL    HW162264   0.688   5.297  11.222 -2.2545 -1.2302  1.4282
50778SOL    HW262265   0.576   5.229  11.146 -0.1568 -1.2865 -1.8148
50779SOL     OW62266   1.498   7.526   0.387  0.0034  0.2167 -0.4019
50779SOL    HW162267   1.570   7.580   0.355  0.5170  0.1030  0.5235
50779SOL    HW262268   1.420   7.582   0.378  0.5023  1.0581  0.3748
50780SOL     OW62269  11.985   9.690   2.021 -0.0053 -0.1550  0.0469
50780SOL    HW162270  11.947   9.670   2.107 -0.7204  1.5495  0.1794
50780SOL    HW262271  12.056   9.752   2.040 -0.1388  0.1978 -0.5683
50781SOL     OW62272   4.571   4.228   8.001  0.4774 -0.5340 -0.6786
50781SOL    HW162273   4.665   4.238   8.016  0.2929  0.5839 -0.1799
50781SOL    HW262274   4.531   4.292   8.059 -0.7085 -2.4581  0.7678
50782SOL     OW62275  13.188   1.116   6.721 -0.1952 -0.3640  0.7376
50782SOL    HW162276  13.217   1.027   6.698  1.1988  0.2140  0.1589
50782SOL    HW262277  13.094   1.107   6.737 -0.3826 -1.6717 -0.8165
50783SOL     OW62278   5.279   2.625  10.182 -0.1087 -0.0041 -0.4710
50783SOL    HW162279   5.302   2.695  10.121  0.4638 -0.9960 -1.4301
50783SOL    HW262280   5.356   2.614  10.236 -0.0780 -0.1195 -0.5395
50784SOL     OW62281  12.542   5.792  12.744 -0.0882 -0.1993 -0.1548
50784SOL    HW162282  12.563   5.809  12.652 -0.7370 -0.5034 -0.3632
50784SOL    HW262283  12.549   5.698  12.753  0.5388 -0.1163  0.2533
50785SOL     OW62284   1.292   3.986   2.649 -0.7207 -0.9026 -0.5143
50785SOL    HW162285   1.203   4.022   2.648 -1.2028 -1.9774  0.6854
50785SOL    HW262286   1.337   4.033   2.579 -2.1426 -0.1186 -0.9614
50786SOL     OW62287   4.444   5.851  12.626  0.6038  1.0389 -0.7483
50786SOL    HW162288   4.368   5.852  12.684  1.3572  2.7399  0.2860
50786SOL    HW262289   4.502   5.919  12.661  2.8134 -0.4708 -1.2475
50787SOL     OW62290  11.965   0.216  11.060  0.1558  0.0223 -0.7360
50787SOL    HW162291  11.998   0.131  11.090 -1.5733 -0.4314 -0.0227
50787SOL    HW262292  11.949   0.204  10.966 -0.0189 -0.4053 -0.6519
50788SOL     OW62293   4.656   6.171   7.978 -0.5180 -0.1588 -0.4212
50788SOL    HW162294   4.562   6.177   7.963 -0.8087  0.8234  1.4553
50788SOL    HW262295   4.664   6.123   8.061  0.5716  0.5982 -0.0587
50789SOL     OW62296   2.894   5.135  11.264 -0.6983 -0.4139  0.5748
50789SOL    HW162297   2.913   5.119  11.171 -0.6932  1.0415  0.2999
50789SOL    HW262298   2.979   5.155  11.303 -0.3794 -2.9079  1.3683
50790SOL     OW62299   8.829   7.644   2.111  0.8915 -0.9832 -0.2687
50790SOL    HW162300   8.816   7.717   2.171  1.1838 -0.3133 -0.9989
50790SOL    HW262301   8.885   7.583   2.158 -2.4221 -2.6385  1.9166
50791SOL     OW62302   6.099   0.907   4.975 -0.1741  0.5291 -0.8480
50791SOL    HW162303   6.111   0.990   5.022 -0.2767  1.0784 -1.7624
50791SOL    HW262304   6.005   0.891   4.977 -0.0293 -0.3152  0.5442
50792SOL     OW62305   9.316   8.761  12.057 -0.3670  0.1608  0.0810
50792SOL    HW162306   9.265   8.806  11.989 -1.1834  0.7421  1.0437
50792SOL    HW262307   9.252   8.708  12.104  0.4757 -1.5180 -0.6088
50793SOL     OW62308   3.503  13.312  11.658  0.6734 -0.1912  0.3686
50793SOL    HW162309   3.535  13.223  11.646  0.4054 -0.3192  0.6026
50793SOL    HW262310   3.443  13.326  11.584  1.6555  0.2381 -0.3803
50794SOL     OW62311   8.705   5.135  11.610  0.0304 -0.4903  0.4104
50794SOL    HW162312   8.731   5.058  11.561  1.0728 -0.2345  0.5331
50794SOL    HW262313   8.788   5.175  11.638 -0.5181 -0.1149  1.5626
50795SOL     OW62314   0.632   1.492   0.452 -0.3239 -0.9924 -0.2896
50795SOL    HW162315   0.618   1.586   0.448 -0.7341 -1.0719 -1.2055
50795SOL    HW262316   0.656   1.474   0.542 -2.3198 -0.2896  0.4301
50796SOL     OW62317   2.166   7.311  12.971 -0.4441 -0.3771  0.0717
50796SOL    HW162318   2.087   7.319  12.917 -0.1826 -0.3160 -0.3043
50796SOL    HW262319   2.218   7.388  12.948  1.4012 -2.2201 -2.4202
50797SOL     OW62320  10.191   2.009  12.432  0.8818  0.2550 -0.4190
50797SOL    HW162321  10.282   1.981  12.434  0.2657 -1.9229 -0.4292
50797SOL    HW262322  10.179   2.049  12.346  1.8748  0.8054 -0.3084
50798SOL     OW62323   4.244   2.720   7.811  0.7260 -0.0808 -0.3503
50798SOL    HW162324   4.181   2.792   7.811  0.8018 -0.0108  0.4280
50798SOL    HW262325   4.202   2.652   7.864  1.6547  0.2803  0.8883
50799SOL     OW62326   0.051   8.786   8.164 -0.1435 -0.0119  0.1825
50799SOL    HW162327   0.122   8.762   8.105  0.3390  1.0871  0.2928
50799SOL    HW262328  -0.027   8.789   8.108  0.4957  2.1326 -0.6925
50800SOL     OW62329   1.734   4.571   1.690  0.0369 -0.1997 -0.2102
50800SOL    HW162330   1.711   4.481   1.713  0.3618 -0.1382  0.3903
50800SOL    HW262331   1.705   4.581   1.599 -0.3356 -0.7901 -0.1628
50801SOL     OW62332   9.868   8.757   0.081 -0.4572 -0.1067  0.3840
50801SOL    HW162333   9.847   8.843   0.044 -2.2746  0.4801  2.5435
50801SOL    HW262334   9.784   8.713   0.089  0.3471 -1.7546  0.1940
50802SOL     OW62335   1.128   5.753   9.500  0.4738  0.2234 -0.1334
50802SOL    HW162336   1.075   5.833   9.499  1.1056  0.6546  0.1179
50802SOL    HW262337   1.073   5.688   9.543  1.2563  1.4802  3.0191
50803SOL     OW62338   4.815   9.858  12.893  0.3271  0.0077  0.2603
50803SOL    HW162339   4.853   9.825  12.811  1.1814  0.2725  0.5417
50803SOL    HW262340   4.768   9.782  12.930 -0.5921  0.0462 -0.7599
50804SOL     OW62341   6.682  11.039   0.911 -0.0179 -0.8124  0.1814
50804SOL    HW162342   6.672  11.085   0.828  1.3569  1.0925  0.9965
50804SOL    HW262343   6.593  11.030   0.945 -0.3584  1.0335 -0.1381
50805SOL     OW62344   3.720  11.798   2.342 -0.2761  0.4530  0.0828
50805SOL    HW162345   3.749  11.708   2.360 -1.8981  0.5355  4.2587
50805SOL    HW262346   3.635  11.788   2.300  0.1259  0.1086 -0.6778
50806SOL     OW62347   0.437  11.010   1.443  0.1637 -0.1215 -0.2662
50806SOL    HW162348   0.524  10.971   1.438  0.1050 -0.2464 -0.3233
50806SOL    HW262349   0.389  10.972   1.369  0.0751 -0.0192 -0.2616
50807SOL     OW62350   4.218   0.040   1.626  0.0232 -0.1034 -0.3854
50807SOL    HW162351   4.224   0.081   1.539 -1.1990  0.3611 -0.2679
50807SOL    HW262352   4.154  -0.030   1.615  0.6303 -0.7118 -0.0939
50808SOL     OW62353  11.341   0.484   4.741  0.2112 -0.3984 -0.7436
50808SOL    HW162354  11.409   0.542   4.777  0.9258 -0.6657 -1.6387
50808SOL    HW262355  11.324   0.422   4.812  1.7625 -1.0534 -0.9069
50809SOL     OW62356   0.147   3.998   0.347 -0.4319  0.1905 -0.2151
50809SOL    HW162357   0.224   4.055   0.356  0.8620 -1.3783 -0.8702
50809SOL    HW262358   0.081   4.039   0.402  1.9268 -0.1984  3.2225
50810SOL     OW62359  12.257   1.044   5.590 -0.3211  0.2977 -0.3511
50810SOL    HW162360  12.177   1.027   5.540 -2.4613 -0.0215  2.8868
50810SOL    HW262361  12.270   0.965   5.643  1.5493  0.7620 -0.0391
50811SOL     OW62362   0.776   2.826   5.820 -0.1686 -0.0939  0.4603
50811SOL    HW162363   0.809   2.741   5.849 -0.5580 -0.6112 -0.5990
50811SOL    HW262364   0.682   2.823   5.840 -0.3736 -0.3170 -0.5023
50812SOL     OW62365   4.264   8.802  10.746  0.4611  1.0058 -0.3505
50812SOL    HW162366   4.317   8.745  10.691  2.2892  2.2309  0.0397
50812SOL    HW262367   4.307   8.888  10.740 -0.8942  1.8174  0.8100
50813SOL     OW62368  12.626   6.253   4.859 -0.0647  0.1701  0.3406
50813SOL    HW162369  12.680   6.208   4.794 -0.3235 -0.2338  0.4012
50813SOL    HW262370  12.669   6.337   4.872 -0.1621  0.3685 -0.5613
50814SOL     OW62371   2.494   1.587   8.206  0.7435 -0.1039 -0.5197
50814SOL    HW162372   2.560   1.604   8.274  0.4533 -0.0239 -0.2551
50814SOL    HW262373   2.544   1.580   8.125  0.8189  3.3713 -0.9200
50815SOL     OW62374   6.859   9.140   7.196  0.6960  0.4075  0.4712
50815SOL    HW162375   6.776   9.185   7.189  1.5442  1.7095 -3.8151
50815SOL    HW262376   6.836   9.048   7.211 -1.5009  0.7690 -0.4316
50816SOL     OW62377   6.794   5.650   8.976 -0.2244 -0.4761 -0.3742
50816SOL    HW162378   6.758   5.738   8.964 -0.3257 -0.4642  0.0134
50816SOL    HW262379   6.750   5.597   8.909 -3.4838 -1.2004  2.0667
50817SOL     OW62380   0.014   2.054  11.691  0.4465  0.2218 -0.0488
50817SOL    HW162381   0.035   2.132  11.640 -2.8527  0.8811 -0.6043
50817SOL    HW262382   0.022   2.083  11.782 -0.6103  1.2145 -0.2455
50818SOL     OW62383   6.029   9.084   6.944  0.8456  0.2042  0.5530
50818SOL    HW162384   6.004   9.176   6.944  2.1268  0.5757  0.5265
50818SOL    HW262385   5.950   9.037   6.917 -0.4300  1.0992  2.4961
50819SOL     OW62386  10.076   9.991   4.212  0.1383  0.0992  0.1420
50819SOL    HW162387  10.075  10.077   4.171  0.8737  0.3002  0.5161
50819SOL    HW262388   9.986   9.960   4.207  0.1215  0.2919 -1.2509
50820SOL     OW62389   0.285   9.694   7.897 -0.3377 -0.4231 -0.1627
50820SOL    HW162390   0.278   9.693   7.993  2.3570 -1.2535  0.1291
50820SOL    HW262391   0.208   9.648   7.866 -0.2546 -2.0062  1.7522
50821SOL     OW62392   5.431  13.273   1.489  0.4241  0.1115  0.5440
50821SOL    HW162393   5.451  13.356   1.532 -1.5409  1.7050 -1.3786
50821SOL    HW262394   5.502  13.260   1.427  1.4287 -0.3825  1.7559
50822SOL     OW62395   8.794   7.110   9.231 -0.1332  0.1050 -0.7390
50822SOL    HW162396   8.751   7.111   9.145  0.3781 -0.4830 -1.0064
50822SOL    HW262397   8.778   7.022   9.264 -1.9823  0.8882  0.6329
50823SOL     OW62398  13.164  11.087   2.764 -0.8702  0.3543 -0.4815
50823SOL    HW162399  13.135  11.134   2.842 -0.7880 -0.0268 -0.2144
50823SOL    HW262400  13.117  11.003   2.768  2.2591 -1.5201  1.4961
50824SOL     OW62401  10.512   1.314   3.779  0.1153  0.0026 -0.2169
50824SOL    HW162402  10.499   1.228   3.819  2.3262 -0.6854 -0.8275
50824SOL    HW262403  10.484   1.376   3.846 -2.8517 -1.1472 -0.2682
50825SOL     OW62404   3.395   8.276   8.706 -0.4629  0.4655 -0.1221
50825SOL    HW162405   3.322   8.318   8.751 -1.3459 -1.7423  0.6774
50825SOL    HW262406   3.461   8.262   8.773 -0.4848 -0.0621 -0.2057
50826SOL     OW62407  11.052  10.012  12.935 -0.2676 -0.0036 -0.1230
50826SOL    HW162408  11.048  10.083  13.000  0.3327  0.4138 -0.5244
50826SOL    HW262409  11.105   9.944  12.977  1.2568  0.8119 -0.6564
50827SOL     OW62410  11.967  10.767   9.273  0.0187  0.3305 -0.0789
50827SOL    HW162411  11.906  10.694   9.286 -1.5494  1.3902 -1.1235
50827SOL    HW262412  11.974  10.808   9.359  1.1162 -1.1565  0.5797
50828SOL     OW62413  12.685  11.826  12.267  0.3247  0.2646 -0.2126
50828SOL    HW162414  12.647  11.835  12.180  1.0846 -0.5907 -0.6581
50828SOL    HW262415  12.779  11.836  12.254  0.4892 -0.2776  0.4328
50829SOL     OW62416   3.048   1.309   6.928  0.7753  0.5012 -0.0140
50829SOL    HW162417   3.126   1.346   6.885  1.0301  0.5973  0.5240
50829SOL    HW262418   3.060   1.329   7.021  1.6504 -2.1800  0.5542
50830SOL     OW62419   6.476  12.536   7.705 -0.3801 -0.0714  0.0643
50830SOL    HW162420   6.408  12.511   7.768 -0.9106  0.3577 -0.3390
50830SOL    HW262421   6.505  12.622   7.735 -1.2350  0.5191 -0.7654
50831SOL     OW62422   0.695  10.231   0.434 -0.6852  0.0887  0.6205
50831SOL    HW162423   0.740  10.315   0.436 -1.5816  0.5759  1.1715
50831SOL    HW262424   0.764  10.165   0.440 -0.0263  0.8069  0.9218
50832SOL     OW62425   4.754   7.933   5.233  0.1661  0.4117 -0.4794
50832SOL    HW162426   4.737   7.847   5.193 -3.5877  0.5667  0.4231
50832SOL    HW262427   4.757   7.993   5.159  1.6512 -0.2919 -1.0320
50833SOL     OW62428  11.660   6.330   0.808  0.4584  0.4554 -0.0776
50833SOL    HW162429  11.716   6.379   0.747 -0.0735  1.3110  0.1006
50833SOL    HW262430  11.691   6.240   0.802  0.7220  0.6062 -1.2737
50834SOL     OW62431   4.919  12.786   4.609 -0.3655 -0.0077  0.2144
50834SOL    HW162432   4.894  12.820   4.523  2.8338 -0.9346 -1.2448
50834SOL    HW262433   4.920  12.691   4.599 -2.2665 -0.2938  2.0784
50835SOL     OW62434   1.200   4.852   5.681  0.4396 -0.1215  0.3358
50835SOL    HW162435   1.207   4.911   5.755  0.0794  1.0139 -0.5150
50835SOL    HW262436   1.272   4.877   5.623 -0.9434  0.9251 -1.0026
50836SOL     OW62437   6.296  12.499   3.230 -0.1738 -0.5646  0.2082
50836SOL    HW162438   6.206  12.510   3.200  0.6014 -0.1000 -2.1790
50836SOL    HW262439   6.347  12.562   3.178  1.4492 -0.2651  2.0308
50837SOL     OW62440   7.910   7.122   4.381  0.4009  0.0998  0.5884
50837SOL    HW162441   7.862   7.169   4.449  0.2800 -0.0211  0.5878
50837SOL    HW262442   7.978   7.183   4.353  1.8966 -0.6423  2.3779
50838SOL     OW62443  10.766  10.371   5.944  0.3674  0.1234 -0.0564
50838SOL    HW162444  10.691  10.328   5.986 -2.4734  2.6025 -2.1993
50838SOL    HW262445  10.781  10.321   5.864  0.3439  0.2350 -0.1306
50839SOL     OW62446   0.773   9.314   8.255  0.1793 -0.1669 -0.1284
50839SOL    HW162447   0.819   9.323   8.172 -0.1827 -2.7387 -0.6993
50839SOL    HW262448   0.839   9.281   8.316  0.0789  0.2427  0.2091
50840SOL     OW62449   2.862  12.577   8.716 -0.3764  0.2749 -0.6625
50840SOL    HW162450   2.844  12.511   8.648  2.0058 -3.0106  1.5701
50840SOL    HW262451   2.788  12.570   8.777 -0.6061  0.4045 -0.9239
50841SOL     OW62452  11.932   2.954   6.106 -0.3576  0.0956 -0.1347
50841SOL    HW162453  11.894   2.991   6.185  0.4562  2.7953 -0.8946
50841SOL    HW262454  12.022   2.934   6.129 -0.5938 -0.7645  0.0693
50842SOL     OW62455   2.700   6.836   2.766 -0.5512  0.0655 -0.4998
50842SOL    HW162456   2.698   6.888   2.846 -0.6693 -0.5862 -0.0721
50842SOL    HW262457   2.610   6.836   2.735 -0.4951  0.3669 -0.6742
50843SOL     OW62458  13.078   6.046   0.726  0.3119  0.2344 -0.4130
50843SOL    HW162459  13.080   6.127   0.778 -2.1030  0.2087 -0.1603
50843SOL    HW262460  13.139   6.062   0.654  1.0183  1.6777  0.4589
50844SOL     OW62461   4.956   5.483   2.309 -0.5965  0.3959  0.2238
50844SOL    HW162462   5.036   5.435   2.291 -1.7991 -1.2714 -1.0177
50844SOL    HW262463   4.962   5.507   2.401  0.6875 -0.9446  0.5222
50845SOL     OW62464   3.060   9.656   1.203  0.3348  0.8405  0.1904
50845SOL    HW162465   3.041   9.606   1.123 -0.2369  0.1623  0.7449
50845SOL    HW262466   3.012   9.738   1.191 -0.8180  0.2106  0.4050
50846SOL     OW62467  10.863  12.736   8.816  0.1835 -0.3359 -0.0954
50846SOL    HW162468  10.770  12.755   8.805 -0.1015 -1.6650 -0.0894
50846SOL    HW262469  10.898  12.813   8.863 -0.1595  1.8120 -3.0552
50847SOL     OW62470  10.612   1.222   1.889  0.2879 -0.2807 -0.2443
50847SOL    HW162471  10.625   1.189   1.978  0.5118 -0.5524 -0.3764
50847SOL    HW262472  10.656   1.306   1.887 -1.1244  0.5040  0.3907
50848SOL     OW62473   2.786  11.878   7.677 -0.6141  0.1198  0.2983
50848SOL    HW162474   2.827  11.832   7.604 -0.3580 -0.7205  0.9542
50848SOL    HW262475   2.697  11.897   7.646 -0.7992 -1.0012  0.0636
50849SOL     OW62476   1.785   1.086   2.880  0.6095  0.3258  0.0781
50849SOL    HW162477   1.766   1.159   2.821  0.2333 -1.1659 -1.7495
50849SOL    HW262478   1.881   1.083   2.884  0.6319  1.7833  1.3620
50850SOL     OW62479   3.895   9.838   7.727 -0.2826 -0.2435  0.3546
50850SOL    HW162480   3.893   9.931   7.705  0.9398  0.0687  1.4621
50850SOL    HW262481   3.845   9.831   7.808 -2.3426 -0.9541 -0.8848
50851SOL     OW62482   2.361   5.086   2.725 -0.5223 -0.0228  0.2209
50851SOL    HW162483   2.272   5.113   2.701 -0.2831 -0.1591 -0.8894
50851SOL    HW262484   2.350   5.037   2.806 -1.3658  0.6066  0.5091
50852SOL     OW62485   9.601   4.032   0.947 -0.4582 -0.0536 -0.1255
50852SOL    HW162486   9.550   4.032   0.866 -1.5810  2.0410  0.5085
50852SOL    HW262487   9.687   4.065   0.922 -0.8403  0.7032 -0.4726
50853SOL     OW62488  10.476   2.675  12.326 -0.0681 -0.2866 -0.1360
50853SOL    HW162489  10.477   2.639  12.238  0.1863 -0.2027 -0.1692
50853SOL    HW262490  10.498   2.767  12.315  2.1753 -0.7124  0.1956
50854SOL     OW62491   9.894   9.156   4.709  0.0823 -0.0982  0.0588
50854SOL    HW162492   9.896   9.066   4.741  2.6128 -1.4561 -3.2707
50854SOL    HW262493   9.973   9.197   4.745 -0.8698  0.7419  1.2708
50855SOL     OW62494  13.070   5.600   7.485 -0.2605  0.4553  0.0153
50855SOL    HW162495  12.994   5.556   7.447 -0.0205 -0.0913  0.1637
50855SOL    HW262496  13.141   5.584   7.423  0.6484 -2.1353  1.5554
50856SOL     OW62497  11.743   1.583   2.815 -0.3933  0.3966 -0.5156
50856SOL    HW162498  11.717   1.631   2.736 -0.7054  0.2372 -0.5089
50856SOL    HW262499  11.787   1.649   2.869 -2.4445  1.1943  0.3236
50857SOL     OW62500   0.747  10.472  10.828  0.5029  0.3414  0.0841
50857SOL    HW162501   0.741  10.548  10.770  0.7859 -0.9694 -1.7523
50857SOL    HW262502   0.838  10.473  10.859  1.0343 -0.1883 -1.3550
50858SOL     OW62503   5.196   7.489   9.150 -1.0736 -0.1064 -0.3356
50858SOL    HW162504   5.225   7.441   9.072  0.7338 -0.3786  0.4462
50858SOL    HW262505   5.248   7.452   9.221 -2.4967  0.3155  0.9727
50859SOL     OW62506   2.484  11.605   7.181 -0.0651 -0.0608 -0.2784
50859SOL    HW162507   2.393  11.575   7.169 -0.8361  1.9063  0.2053
50859SOL    HW262508   2.525  11.536   7.233 -1.5891 -0.5493  0.3473
50860SOL     OW62509   1.302   3.401   9.658  0.7708 -0.0708 -0.5480
50860SOL    HW162510   1.283   3.309   9.640 -2.8157  0.4063  0.1637
50860SOL    HW262511   1.320   3.438   9.571 -1.2348 -0.7948 -1.3295
50861SOL     OW62512   7.713   8.375  10.829  0.2851 -0.1872  0.1841
50861SOL    HW162513   7.658   8.397  10.753 -1.7728  1.3560  2.0066
50861SOL    HW262514   7.749   8.458  10.858 -0.3370 -0.4727  1.8835
50862SOL     OW62515   2.644   2.013   7.691 -0.4135  0.4265 -0.8907
50862SOL    HW162516   2.728   2.000   7.736  0.2219  0.4511 -2.0243
50862SOL    HW262517   2.648   2.103   7.658 -1.2209  0.6868 -0.2831
50863SOL     OW62518  10.032  13.104  10.598  0.6226 -0.0856  0.3641
50863SOL    HW162519   9.953  13.050  10.598  0.0228  0.7474  1.9501
50863SOL    HW262520  10.036  13.142  10.686  2.2108  0.7315 -0.0250
50864SOL     OW62521   4.122  12.780   8.854  0.3459  0.5280 -0.0794
50864SOL    HW162522   4.144  12.836   8.928  1.9202  1.7920 -1.4134
50864SOL    HW262523   4.053  12.827   8.808  0.0806  0.2418  0.0203
50865SOL     OW62524  10.595  10.054  10.104  0.0743  0.7459  0.3404
50865SOL    HW162525  10.581  10.112  10.029  1.2736  0.7339  0.0816
50865SOL    HW262526  10.657   9.988  10.072 -2.1957 -1.4747  0.2390
50866SOL     OW62527  12.788   1.981  12.283  0.4404  0.1007  0.1787
50866SOL    HW162528  12.853   1.910  12.283  0.9948  0.5666 -1.5583
50866SOL    HW262529  12.705   1.936  12.263  0.7976 -0.0915 -0.9831
50867SOL     OW62530   5.197   9.486   5.364  0.5119  0.0651 -0.1820
50867SOL    HW162531   5.216   9.471   5.456  1.2260  1.8161 -0.0138
50867SOL    HW262532   5.241   9.568   5.343 -2.1322  1.3290 -1.2869
50868SOL     OW62533   7.923   3.812   7.627 -0.2796 -0.0564  0.4137
50868SOL    HW162534   7.846   3.777   7.582  0.5115 -0.3714 -0.7451
50868SOL    HW262535   7.898   3.815   7.719 -1.6022 -0.3408  0.0821
50869SOL     OW62536   1.426   7.576   2.601  0.1686  0.1167  1.0883
50869SOL    HW162537   1.473   7.500   2.637  0.3504  0.1193  0.8555
50869SOL    HW262538   1.460   7.585   2.512 -0.3462  0.0574  0.8822
50870SOL     OW62539   8.864   6.676   8.545  0.0521  0.1102 -0.3693
50870SOL    HW162540   8.828   6.672   8.457  0.0752 -0.5943 -0.3538
50870SOL    HW262541   8.806   6.622   8.598  0.3842  0.0376 -0.0732
50871SOL     OW62542   1.874   3.260   9.799  0.5595 -0.1156 -0.3013
50871SOL    HW162543   1.879   3.171   9.834 -0.4356 -0.5882 -1.2826
50871SOL    HW262544   1.812   3.305   9.857  0.7228 -0.1963 -0.0637
50872SOL     OW62545   3.347  10.531   5.572  0.0809 -0.2497 -0.8854
50872SOL    HW162546   3.270  10.503   5.522  0.0732  0.3144 -1.2080
50872SOL    HW262547   3.393  10.590   5.512  1.3794 -1.4765 -1.1289
50873SOL     OW62548   7.671   1.905  12.669 -0.1044 -0.1561  0.3446
50873SOL    HW162549   7.582   1.939  12.657 -0.3750 -1.7562 -3.9180
50873SOL    HW262550   7.726   1.983  12.670 -1.3241  0.7856 -0.7917
50874SOL     OW62551  10.894  11.237   6.067  0.3165 -0.3298 -0.1658
50874SOL    HW162552  10.807  11.277   6.057 -0.0539 -1.0763 -0.0454
50874SOL    HW262553  10.945  11.273   5.994  0.5589  1.7435  0.9494
50875SOL     OW62554   5.454   0.202   3.889  0.1139  0.4972  0.2371
50875SOL    HW162555   5.462   0.147   3.966  0.9829  1.5186  0.9129
50875SOL    HW262556   5.360   0.206   3.872 -0.0294 -0.3948  0.7439
50876SOL     OW62557   1.259  12.294   6.868  0.5592 -0.2262  0.0026
50876SOL    HW162558   1.230  12.217   6.917  0.3756 -1.0316 -1.3361
50876SOL    HW262559   1.335  12.326   6.917  0.3072 -0.9229  0.8791
50877SOL     OW62560   8.352  12.972   1.167  0.0340 -0.0495 -0.1500
50877SOL    HW162561   8.305  13.053   1.145 -0.2171 -0.2403 -0.3176
50877SOL    HW262562   8.292  12.902   1.144  0.9678 -0.3606 -1.8481
50878SOL     OW62563   6.261   5.337   2.087 -0.1293  0.2424 -0.1551
50878SOL    HW162564   6.246   5.251   2.048  0.7117  0.3518 -0.7517
50878SOL    HW262565   6.341   5.369   2.045  0.4567  0.6417  1.2200
50879SOL     OW62566   6.556  12.089  10.156  0.4987  0.1844 -0.0537
50879SOL    HW162567   6.493  12.021  10.129 -0.4852  0.6552  0.9799
50879SOL    HW262568   6.543  12.160  10.094  0.7904 -0.1513 -0.5038
50880SOL     OW62569   6.658   2.460  12.522  0.2647  0.1416 -0.1340
50880SOL    HW162570   6.607   2.505  12.589  1.9795 -0.3409  1.5827
50880SOL    HW262571   6.610   2.379  12.505 -0.1207  0.2020  0.6367
50881SOL     OW62572   6.681   1.624   3.247  0.5870  0.5114  0.6313
50881SOL    HW162573   6.690   1.569   3.170 -1.4878 -0.3342  0.9273
50881SOL    HW262574   6.740   1.584   3.311 -0.5076 -1.1577  0.6802
50882SOL     OW62575   1.608   8.785  11.508  0.6397  0.0326 -0.1988
50882SOL    HW162576   1.654   8.702  11.516  2.4699  1.1026  1.3866
50882SOL    HW262577   1.653   8.831  11.438  0.7213  0.3393  0.0540
50883SOL     OW62578   8.185  11.289   7.758 -0.1065  0.7824  0.3415
50883SOL    HW162579   8.143  11.235   7.825  1.4909  0.4524  1.1499
50883SOL    HW262580   8.183  11.236   7.679  0.9726 -0.3018  1.0005
50884SOL     OW62581   4.530  10.302  13.263 -0.3582 -0.2026  0.2255
50884SOL    HW162582   4.546  10.390  13.229  1.6694 -0.5084  0.2615
50884SOL    HW262583   4.515  10.249  13.185  1.3944 -0.3605 -0.0300
50885SOL     OW62584   0.758  12.473  12.372  0.3179  0.1213 -0.4948
50885SOL    HW162585   0.747  12.475  12.467 -0.4625 -0.8509 -0.5537
50885SOL    HW262586   0.804  12.555  12.352  1.6413 -0.2439  0.8530
50886SOL     OW62587   6.867   6.293   6.660 -0.1282 -0.1108 -0.0297
50886SOL    HW162588   6.889   6.307   6.568 -0.6876  0.8043 -0.0455
50886SOL    HW262589   6.946   6.317   6.708 -0.0144 -0.0415 -0.2505
50887SOL     OW62590   6.366   0.799   3.769 -0.2446 -0.7055 -0.1966
50887SOL    HW162591   6.343   0.736   3.701 -0.2602  1.2056 -2.0867
50887SOL    HW262592   6.461   0.795   3.776 -0.2282 -0.7829 -0.4743
50888SOL     OW62593  13.151   9.464   1.612  0.1742  0.2229 -0.6317
50888SOL    HW162594  13.060   9.489   1.596  0.1517  0.9070  0.4618
50888SOL    HW262595  13.173   9.506   1.695  2.2896  2.1638 -2.0887
50889SOL     OW62596   3.184   3.534  13.276 -0.0291  0.5752 -0.0355
50889SOL    HW162597   3.245   3.577  13.337 -0.1236 -0.5127  0.8566
50889SOL    HW262598   3.210   3.442  13.277 -0.6664  0.3707 -0.9060
50890SOL     OW62599   1.513  10.042   4.744 -1.0017 -0.0387  0.2515
50890SOL    HW162600   1.556  10.127   4.750  0.4482 -0.7924  1.0256
50890SOL    HW262601   1.516  10.020   4.651 -0.6540  0.4052  0.1539
50891SOL     OW62602   0.314  11.056   9.826 -0.4210 -0.1266  0.1480
50891SOL    HW162603   0.238  11.102   9.864 -1.2111  0.1966 -1.7341
50891SOL    HW262604   0.293  11.047   9.733  0.8004 -2.2026  0.0133
50892SOL     OW62605  11.496   3.130  11.534 -0.1261 -0.2301  0.1568
50892SOL    HW162606  11.580   3.137  11.580  0.1684  0.4772 -0.4817
50892SOL    HW262607  11.488   3.212  11.486 -1.7121  0.2009  1.0830
50893SOL     OW62608   9.768   4.973  13.051 -0.3928 -0.1243  0.0171
50893SOL    HW162609   9.801   5.063  13.052 -0.4764 -0.0992  0.4021
50893SOL    HW262610   9.779   4.942  13.140 -0.0208 -0.6262 -0.1986
50894SOL     OW62611   4.715  10.129  11.289  0.1506  0.2663  0.5393
50894SOL    HW162612   4.722  10.087  11.375  1.1116  0.9984  0.8437
50894SOL    HW262613   4.805  10.155  11.268 -0.2169  0.9496 -0.2471
50895SOL     OW62614  12.918   1.744   1.556 -0.3058  0.1954 -0.3758
50895SOL    HW162615  12.963   1.669   1.595 -0.1965  0.4627  0.0067
50895SOL    HW262616  12.882   1.709   1.474 -0.0011 -0.1979 -0.3459
50896SOL     OW62617   0.558   4.854   4.563  0.2585  0.1724 -0.1870
50896SOL    HW162618   0.578   4.886   4.475 -0.7226 -1.0159 -0.8701
50896SOL    HW262619   0.608   4.773   4.571 -0.5296 -0.3185 -0.1052
50897SOL     OW62620   7.665  13.207   1.298  0.0458 -0.3601 -0.1600
50897SOL    HW162621   7.692  13.187   1.387 -0.6891  0.1589  0.1894
50897SOL    HW262622   7.747  13.221   1.251  0.4999 -2.1992  0.0303
50898SOL     OW62623   2.720   3.291   4.729  0.0605  0.8548 -0.5009
50898SOL    HW162624   2.767   3.374   4.727 -0.3745  1.0974 -0.5386
50898SOL    HW262625   2.629   3.314   4.714 -0.2419  0.4952  0.7142
50899SOL     OW62626  11.083   3.018  12.051 -0.0145  0.0376 -0.1888
50899SOL    HW162627  11.007   3.013  11.992 -0.4479 -0.0453  0.3667
50899SOL    HW262628  11.076   3.104  12.092  0.5364  0.2744 -0.5895
50900SOL     OW62629   8.883  11.260   2.994  0.6951 -0.5804  0.4069
50900SOL    HW162630   8.854  11.335   2.943 -0.1724  0.1682  1.9289
50900SOL    HW262631   8.809  11.240   3.051  0.3658 -3.4965 -0.8784
50901SOL     OW62632   0.883   5.977   3.458 -0.4565  0.4417  0.0630
50901SOL    HW162633   0.827   5.993   3.534 -0.4399 -0.8434  0.3663
50901SOL    HW262634   0.823   5.949   3.390 -0.4438  1.3714 -0.3422
50902SOL     OW62635   4.504   5.148   7.830  0.4817  0.0917 -0.2060
50902SOL    HW162636   4.430   5.095   7.799  1.9329 -2.4830  0.4840
50902SOL    HW262637   4.463   5.218   7.881 -1.4976 -1.0145 -0.1652
50903SOL     OW62638   4.134   6.061   0.868 -0.4492  0.2219 -0.2506
50903SOL    HW162639   4.168   6.037   0.954 -1.1456  0.3845  0.0759
50903SOL    HW262640   4.128   5.978   0.821 -0.8210  0.0267  0.1323
50904SOL     OW62641   6.492   0.648   3.011 -0.3972 -0.0665  0.2522
50904SOL    HW162642   6.518   0.588   2.942 -0.0561 -0.1083  0.4149
50904SOL    HW262643   6.414   0.607   3.050 -0.3735 -0.2250  0.1347
50905SOL     OW62644  12.880   4.858  12.468 -0.3650 -0.2943  0.1305
50905SOL    HW162645  12.784   4.852  12.468 -0.2866 -1.9003  0.5519
50905SOL    HW262646  12.898   4.941  12.424 -2.0332  1.8471  3.0664
50906SOL     OW62647   6.971  10.651   3.938 -0.0007  0.3595 -0.3157
50906SOL    HW162648   6.957  10.619   4.027 -0.4214 -0.3889 -0.6483
50906SOL    HW262649   7.016  10.580   3.893 -3.7642 -1.2662 -1.9860
50907SOL     OW62650  12.144  10.315  12.431 -0.0628 -0.3717  0.2922
50907SOL    HW162651  12.071  10.273  12.478 -0.3886  1.4561  1.5317
50907SOL    HW262652  12.109  10.333  12.344 -1.7859  1.9783  1.3587
50908SOL     OW62653   0.008   8.421  11.633 -0.4138 -0.3866 -0.5603
50908SOL    HW162654   0.095   8.381  11.635  0.5416  1.6140 -0.2137
50908SOL    HW262655  -0.021   8.418  11.724 -0.3556 -0.3333 -0.5398
50909SOL     OW62656   8.730   4.553   1.660  0.0708  0.0376 -0.2291
50909SOL    HW162657   8.749   4.638   1.621  0.8618  0.0122  0.0798
50909SOL    HW262658   8.662   4.516   1.605 -0.9975  1.2837  0.1955
50910SOL     OW62659   0.377  11.859   4.162 -0.5457  0.4809  0.2406
50910SOL    HW162660   0.356  11.927   4.098  0.0782 -0.1304 -0.6461
50910SOL    HW262661   0.461  11.823   4.132 -1.5604 -1.6932 -0.2026
50911SOL     OW62662   2.401   1.098  11.274 -0.1118  0.7356  0.4315
50911SOL    HW162663   2.387   1.008  11.302 -0.6386  0.7474  0.2114
50911SOL    HW262664   2.455   1.137  11.343 -1.0409  0.6442  1.2266
50912SOL     OW62665   1.835   9.548   3.594  0.2339 -0.2375 -0.0670
50912SOL    HW162666   1.916   9.498   3.579 -0.2949 -0.8605 -0.9342
50912SOL    HW262667   1.853   9.634   3.557  0.7678 -0.1293  0.4361
50913SOL     OW62668   1.566  10.485   7.031 -0.5287  0.2646 -0.1951
50913SOL    HW162669   1.541  10.552   7.095  0.7896  0.1126  0.5134
50913SOL    HW262670   1.589  10.534   6.952 -2.4513  0.4384 -0.6910
50914SOL     OW62671  13.166   1.623   2.725  0.2793 -0.1033  0.2229
50914SOL    HW162672  13.136   1.630   2.635  2.4726 -1.8786 -0.7528
50914SOL    HW262673  13.086   1.618   2.778 -1.0603 -1.0393 -1.8039
50915SOL     OW62674   0.508   8.112   4.207  0.1806  0.2426  0.2640
50915SOL    HW162675   0.578   8.176   4.192  0.8066 -0.5720 -0.3808
50915SOL    HW262676   0.552   8.036   4.244 -0.5795  0.2111  1.1389
50916SOL     OW62677  12.312   4.384   4.213  0.2427  0.3624  0.0864
50916SOL    HW162678  12.304   4.406   4.306  1.1629  2.7819 -0.3400
50916SOL    HW262679  12.369   4.451   4.177  2.1697 -2.0801 -1.7468
50917SOL     OW62680   0.872   8.149  10.591  0.2399 -0.4969 -0.3603
50917SOL    HW162681   0.868   8.140  10.496 -0.0151 -1.9491 -0.2358
50917SOL    HW262682   0.950   8.203  10.607 -0.6722  1.2234 -1.4434
50918SOL     OW62683   6.474   6.443   9.152  0.2282  0.0854 -0.4234
50918SOL    HW162684   6.469   6.535   9.129 -0.2403  0.2340  0.2564
50918SOL    HW262685   6.482   6.442   9.248  2.2609 -0.5138 -0.5653
50919SOL     OW62686   1.865   6.087   3.454 -0.1485 -0.4824  0.0638
50919SOL    HW162687   1.777   6.052   3.440 -0.0771 -0.1937 -1.3280
50919SOL    HW262688   1.876   6.151   3.383  0.4034  1.0039  1.4362
50920SOL     OW62689   3.772   7.678   7.399 -0.4873  0.1554 -0.2514
50920SOL    HW162690   3.713   7.657   7.326 -1.3089 -1.5338  0.8337
50920SOL    HW262691   3.727   7.747   7.447  0.8360  2.5153 -2.1853
50921SOL     OW62692   2.930  12.642   3.479 -0.3597  0.2101  0.3436
50921SOL    HW162693   2.952  12.656   3.571  1.4776 -1.2456  0.1984
50921SOL    HW262694   2.987  12.570   3.452 -0.7053  0.7388 -1.9924
50922SOL     OW62695   2.162   5.729   0.507 -0.0873  0.1526  0.7027
50922SOL    HW162696   2.078   5.682   0.506  0.6576 -1.2681  1.6368
50922SOL    HW262697   2.175   5.757   0.417 -2.3110  1.8264  0.8009
50923SOL     OW62698   0.100   7.950   6.440 -0.2937  0.0329 -0.0761
50923SOL    HW162699   0.161   8.011   6.480  1.9353 -1.6417 -0.7246
50923SOL    HW262700   0.025   7.947   6.500  1.0192  0.8494  1.6786
50924SOL     OW62701   9.383  11.266   5.599 -0.4340 -0.4191  0.2561
50924SOL    HW162702   9.340  11.255   5.684  2.2309  2.1397  2.1246
50924SOL    HW262703   9.363  11.356   5.574  2.2693  0.3257  0.4248
50925SOL     OW62704   1.631   8.475  12.001 -0.1299 -0.1371  0.1756
50925SOL    HW162705   1.639   8.490  11.907 -0.6546  0.0420  0.1578
50925SOL    HW262706   1.721   8.469  12.032  0.0520  0.4340 -0.2340
50926SOL     OW62707   9.668   4.330  10.596 -0.2184 -0.1686  0.3455
50926SOL    HW162708   9.731   4.401  10.587  0.1423 -0.5782 -0.4269
50926SOL    HW262709   9.648   4.327  10.690  0.5216  0.2961  0.5240
50927SOL     OW62710  10.417   4.849  11.103 -0.2216 -0.1339  0.6265
50927SOL    HW162711  10.496   4.827  11.053 -0.2490  2.1127 -0.5353
50927SOL    HW262712  10.345   4.840  11.040 -0.6245 -0.1331  1.0830
50928SOL     OW62713   0.924  12.872   0.339  1.0542 -0.2502 -0.0353
50928SOL    HW162714   0.844  12.907   0.380  0.6400  0.8976 -1.6989
50928SOL    HW262715   0.932  12.783   0.373 -0.2388  0.0486  1.1282
50929SOL     OW62716   6.442  12.975  12.817 -0.7996  0.1500 -0.6333
50929SOL    HW162717   6.481  12.888  12.812 -1.2537 -0.0332 -1.1514
50929SOL    HW262718   6.352  12.962  12.786 -1.5518  0.3878  1.3568
50930SOL     OW62719  11.851   4.179   3.793 -0.1913 -0.7974 -0.3391
50930SOL    HW162720  11.844   4.084   3.795 -0.0695 -0.7963  0.4656
50930SOL    HW262721  11.760   4.209   3.793 -0.2437 -0.9001  1.2615
50931SOL     OW62722   4.066   1.180   3.167 -0.2884 -0.2701 -0.2211
50931SOL    HW162723   4.152   1.223   3.176 -0.7062  0.3892  0.7627
50931SOL    HW262724   4.034   1.210   3.081  1.0217 -1.5941 -1.2278
50932SOL     OW62725   0.729   1.479   1.306  0.8258  0.2022  0.1818
50932SOL    HW162726   0.777   1.416   1.253  0.9034  0.1816  0.2764
50932SOL    HW262727   0.659   1.427   1.347  0.8653  0.1855  0.2281
50933SOL     OW62728   5.451   7.191   5.931  0.4982 -0.0850  0.2371
50933SOL    HW162729   5.477   7.112   5.977 -0.1539 -0.3020  0.2469
50933SOL    HW262730   5.519   7.255   5.951  0.9293 -0.5891  0.3785
50934SOL     OW62731  12.616   3.153   9.508 -0.2786  0.0390 -0.2690
50934SOL    HW162732  12.629   3.223   9.571 -0.0296 -0.7152  0.5438
50934SOL    HW262733  12.697   3.101   9.513 -0.1662  0.0715 -1.3610
50935SOL     OW62734   2.533   4.199   0.869  0.5798 -0.1346 -0.3988
50935SOL    HW162735   2.597   4.210   0.939 -0.6569  1.4714  0.5556
50935SOL    HW262736   2.451   4.178   0.914  0.1882 -1.1568 -1.5298
50936SOL     OW62737   4.976   8.420  11.753 -0.1211  0.2548  0.9218
50936SOL    HW162738   4.957   8.502  11.800 -2.2988 -0.3175  1.1480
50936SOL    HW262739   4.997   8.357  11.822 -1.6372 -0.1558  1.0384
50937SOL     OW62740  12.985   4.007  12.723 -0.0704 -0.1584 -0.3378
50937SOL    HW162741  13.035   3.931  12.752  0.0378 -0.0463 -0.2303
50937SOL    HW262742  13.047   4.080  12.727 -0.2081 -0.0412 -0.3191
50938SOL     OW62743   9.777   1.826  11.531  0.7401  0.4700  0.5691
50938SOL    HW162744   9.787   1.734  11.508 -0.6104  0.1653  1.0870
50938SOL    HW262745   9.686   1.833  11.560  0.8592  1.9468  0.6352
50939SOL     OW62746  12.005   7.119   6.905  0.1800 -0.3717  0.0078
50939SOL    HW162747  12.048   7.146   6.824  0.4183  0.0964  0.2832
50939SOL    HW262748  11.917   7.157   6.900  1.4182  3.2495  1.7307
50940SOL     OW62749   1.477   1.923   8.382  0.3668  0.2921  0.4509
50940SOL    HW162750   1.452   1.982   8.454 -0.8676  1.7661 -1.1049
50940SOL    HW262751   1.562   1.956   8.354 -0.3334  1.4012 -0.4326
50941SOL     OW62752   8.592  10.129   1.937  0.3256  0.3159  0.4985
50941SOL    HW162753   8.510  10.170   1.912 -0.0241  1.0321  2.6266
50941SOL    HW262754   8.566  10.052   1.988  0.9333  0.9104  1.7530
50942SOL     OW62755  11.258   9.688   1.305 -0.3234  0.1607  0.7027
50942SOL    HW162756  11.252   9.783   1.294 -4.0259  0.0902  1.0124
50942SOL    HW262757  11.248   9.653   1.217  1.6993 -0.0324  0.4931
50943SOL     OW62758   6.670   2.332  12.983  0.0235  0.0098 -0.3445
50943SOL    HW162759   6.742   2.288  12.938  0.6517  1.0016 -0.3459
50943SOL    HW262760   6.698   2.424  12.989  0.3858 -0.1917  2.8434
50944SOL     OW62761   7.561  12.772   6.593 -0.5067 -0.3950 -0.0978
50944SOL    HW162762   7.494  12.827   6.553 -1.0577  0.9321  2.4409
50944SOL    HW262763   7.638  12.783   6.538 -0.8358  2.3537 -0.1210
50945SOL     OW62764   1.851  10.310   0.422  0.1179 -0.1697  0.1172
50945SOL    HW162765   1.915  10.271   0.483  1.1697 -0.1458 -0.9334
50945SOL    HW262766   1.839  10.243   0.355  1.1884  0.8822 -1.1828
50946SOL     OW62767   9.643  12.612   4.484 -0.0051  0.6410 -0.2068
50946SOL    HW162768   9.678  12.524   4.501  1.0728  0.5029 -2.7069
50946SOL    HW262769   9.570  12.620   4.545  1.5682 -0.8569  2.0684
50947SOL     OW62770   9.884   2.655   1.061 -0.3710  0.1811  0.2420
50947SOL    HW162771   9.942   2.579   1.053  0.5667  0.8651  0.4403
50947SOL    HW262772   9.799   2.617   1.085 -0.0674 -0.8479 -0.2181
50948SOL     OW62773   6.095  12.974   2.847  0.0093 -0.4446 -0.4465
50948SOL    HW162774   6.016  12.923   2.864  0.6852 -0.9839  1.3095
50948SOL    HW262775   6.063  13.063   2.832 -0.9893 -0.8228 -0.6101
50949SOL     OW62776   9.638  10.091  11.706  0.2296  0.4893  0.1545
50949SOL    HW162777   9.547  10.060  11.696  0.6577 -0.5289 -0.9467
50949SOL    HW262778   9.678  10.071  11.621  1.4404  1.0783  0.5770
50950SOL     OW62779   6.628   9.988   4.650  0.0599  0.0646  0.6002
50950SOL    HW162780   6.603  10.079   4.632 -0.3228 -0.1372  0.0890
50950SOL    HW262781   6.573   9.962   4.724  1.0089  0.6186  1.5162
50951SOL     OW62782   5.728   6.669   9.436  0.1430  0.3517 -0.5151
50951SOL    HW162783   5.798   6.696   9.494 -0.0450  0.2488 -0.2410
50951SOL    HW262784   5.746   6.576   9.417 -1.2734 -0.4165  1.5489
50952SOL     OW62785   9.806   0.151  13.048 -0.0585  0.1143  0.3261
50952SOL    HW162786   9.757   0.125  13.127 -0.7303 -0.2372 -0.1973
50952SOL    HW262787   9.897   0.156  13.077  0.1726 -2.8778  0.5014
50953SOL     OW62788   0.673   1.213   9.936 -0.4236 -0.4447  0.0262
50953SOL    HW162789   0.707   1.141   9.990  0.1793 -0.6498 -0.6143
50953SOL    HW262790   0.679   1.181   9.847  2.4240  1.3583 -0.5646
50954SOL     OW62791   6.402   5.127   4.749 -0.4030  0.0524  0.0554
50954SOL    HW162792   6.438   5.079   4.824 -1.5963 -0.7444  0.1287
50954SOL    HW262793   6.416   5.069   4.674 -1.7061 -0.3740  0.1196
50955SOL     OW62794   5.558  12.052   2.878  0.0846  0.4445  0.6144
50955SOL    HW162795   5.580  11.967   2.840  1.3956  0.5353  1.1168
50955SOL    HW262796   5.524  12.103   2.804  2.9998  0.7628 -0.6273
50956SOL     OW62797   6.692   7.530   7.590  0.2352 -0.0651 -0.2552
50956SOL    HW162798   6.689   7.451   7.537  1.2257 -0.8104  0.7478
50956SOL    HW262799   6.715   7.499   7.678  0.8809  1.3437  0.1044
50957SOL     OW62800   5.176   7.340   3.276 -0.1429 -0.2749  0.1662
50957SOL    HW162801   5.246   7.294   3.229  1.0770  0.4235  1.2218
50957SOL    HW262802   5.146   7.277   3.342  0.5622 -0.0808  0.6940
50958SOL     OW62803  11.950  12.420   2.313  0.1975  0.4920  0.0341
50958SOL    HW162804  12.018  12.446   2.251 -1.0500  0.3991 -1.4351
50958SOL    HW262805  11.964  12.326   2.326 -0.1098  0.3102 -0.8769
50959SOL     OW62806  10.737   5.836   2.560  0.0958  0.0848 -0.6890
50959SOL    HW162807  10.646   5.821   2.535  0.1941  0.1317 -1.0839
50959SOL    HW262808  10.787   5.780   2.501  0.3386  0.2894 -0.6790
50960SOL     OW62809   7.891   1.098  11.390 -0.1728 -0.0365 -0.4642
50960SOL    HW162810   7.873   1.050  11.470 -0.0991 -0.2261 -0.5593
50960SOL    HW262811   7.974   1.143  11.406 -0.3589  0.2512 -0.2889
50961SOL     OW62812   3.431   0.088   9.600  0.8007 -0.2250 -0.1671
50961SOL    HW162813   3.386   0.088   9.516  2.6747  2.3780 -1.2719
50961SOL    HW262814   3.371   0.136   9.658  0.6354  0.2244 -0.7011
50962SOL     OW62815   5.028   7.159  13.055 -0.6599  0.3139 -0.3382
50962SOL    HW162816   4.993   7.126  12.973 -0.1395 -0.8886 -0.0935
50962SOL    HW262817   4.967   7.128  13.122 -0.8148  0.8766 -0.2074
50963SOL     OW62818   5.177   2.320  12.332 -0.3295  0.5636  0.4373
50963SOL    HW162819   5.203   2.411  12.345 -1.4386  1.0377 -0.4458
50963SOL    HW262820   5.259   2.272  12.323  0.2611  1.7050 -0.4968
50964SOL     OW62821  11.606  11.541   8.232 -0.2783 -0.0210 -0.0251
50964SOL    HW162822  11.533  11.555   8.293  1.9295  3.5416  2.1778
50964SOL    HW262823  11.659  11.473   8.273 -0.3523  0.1972  0.4399
50965SOL     OW62824   7.514   0.669  11.578  0.0046 -0.4212  0.0713
50965SOL    HW162825   7.579   0.602  11.596  0.5051  0.0833  0.1609
50965SOL    HW262826   7.431   0.630  11.607  0.2573 -1.0752 -0.0725
50966SOL     OW62827  13.228   8.283   0.419 -0.1184  0.2114  0.5640
50966SOL    HW162828  13.297   8.246   0.365 -0.6052  1.3244 -0.8695
50966SOL    HW262829  13.146   8.251   0.380 -0.4641 -0.3697  1.7060
50967SOL     OW62830   9.112   8.828   2.360  0.7534 -0.3525 -0.6842
50967SOL    HW162831   9.055   8.755   2.337 -0.3080  0.4359 -0.6289
50967SOL    HW262832   9.141   8.864   2.276  0.2077 -0.0191 -0.7300
50968SOL     OW62833   6.221   9.363   1.060  0.0139 -0.2849 -0.6309
50968SOL    HW162834   6.235   9.310   0.982  0.2214 -0.1774 -0.6654
50968SOL    HW262835   6.240   9.453   1.033 -1.4779 -0.0203 -0.8876
50969SOL     OW62836   5.200  13.029   8.313 -0.1610 -0.5987 -0.8420
50969SOL    HW162837   5.142  13.073   8.376 -0.0316 -1.4353 -0.1161
50969SOL    HW262838   5.276  13.087   8.307 -1.1223  0.6178 -1.9673
50970SOL     OW62839  12.152   5.336   5.485 -0.6075  0.1156  0.5040
50970SOL    HW162840  12.164   5.428   5.464 -0.7538 -0.0414 -0.3000
50970SOL    HW262841  12.057   5.326   5.494 -0.6589 -0.1351 -0.2783
50971SOL     OW62842   3.276   5.530   8.761  0.1043 -0.0454  1.0266
50971SOL    HW162843   3.211   5.460   8.746  0.2396 -0.1582  0.9624
50971SOL    HW262844   3.290   5.529   8.855 -1.0448  0.9257  1.2339
50972SOL     OW62845   5.312   1.913   8.231 -0.1510 -0.2857  0.2282
50972SOL    HW162846   5.236   1.856   8.231  0.9533 -1.8220  0.5530
50972SOL    HW262847   5.386   1.854   8.242  1.1961  1.0495 -1.2205
50973SOL     OW62848   5.838   9.674  11.035  0.0089  0.5849  0.1492
50973SOL    HW162849   5.913   9.664  11.094  0.4818 -1.9251 -0.7568
50973SOL    HW262850   5.764   9.639  11.085 -0.2183  1.3029  0.3361
50974SOL     OW62851   5.523  12.241   4.446  0.5025  0.6819 -0.4763
50974SOL    HW162852   5.551  12.323   4.406  1.3891 -0.3601 -2.0981
50974SOL    HW262853   5.605  12.199   4.473  0.2187 -0.4454 -1.2952
50975SOL     OW62854   1.312   5.443   0.126  0.1570 -0.4451 -0.8039
50975SOL    HW162855   1.228   5.455   0.170 -0.0486  2.1431 -1.7304
50975SOL    HW262856   1.335   5.352   0.141 -1.2370 -0.4045  2.2497
50976SOL     OW62857   4.593   5.523  13.268 -0.1557 -0.1734  0.2401
50976SOL    HW162858   4.545   5.603  13.291 -0.7209 -0.9306  1.7922
50976SOL    HW262859   4.635   5.544  13.185 -2.8811  0.6676 -1.0539
50977SOL     OW62860   2.062   9.998   2.265  1.0636 -0.2935 -0.4724
50977SOL    HW162861   2.010   9.987   2.185 -1.3171 -1.0367  1.0536
50977SOL    HW262862   2.127   9.928   2.262 -0.1559 -1.4470 -0.9558
50978SOL     OW62863   5.612  10.613   6.826  0.5725 -0.3103 -0.1713
50978SOL    HW162864   5.630  10.603   6.919  1.1495  0.2784 -0.2172
50978SOL    HW262865   5.694  10.645   6.788  0.3075 -0.4144 -0.8602
50979SOL     OW62866   4.784   1.771   3.652  0.2964  0.1210 -0.2017
50979SOL    HW162867   4.694   1.774   3.621 -0.3726 -1.3933  1.4242
50979SOL    HW262868   4.782   1.821   3.734  1.2485  1.1235 -0.7567
50980SOL     OW62869  13.047   8.404   0.043  0.4277  0.2864 -0.3226
50980SOL    HW162870  13.065   8.316   0.010  0.9271  0.1019  0.4224
50980SOL    HW262871  13.131   8.450   0.035  0.5831  0.2117  0.7473
50981SOL     OW62872   2.820   3.320  10.458  0.1020 -0.0163  0.2619
50981SOL    HW162873   2.829   3.409  10.492  0.8682  0.4822 -1.1661
50981SOL    HW262874   2.818   3.264  10.536 -3.6381  1.4204  1.4202
50982SOL     OW62875   3.583   5.098   2.507  1.2607 -0.9889  0.9478
50982SOL    HW162876   3.542   5.169   2.557  0.8169 -0.9904  0.5911
50982SOL    HW262877   3.628   5.143   2.436 -2.1277 -1.1862 -1.5723
50983SOL     OW62878   7.172   2.429   0.668 -0.8330  0.5707 -0.0813
50983SOL    HW162879   7.144   2.426   0.759  0.7717  2.2925  0.5162
50983SOL    HW262880   7.264   2.406   0.670 -0.4847  1.7434 -1.0997
50984SOL     OW62881  10.039   9.462   2.314  0.1573  0.5190 -0.4190
50984SOL    HW162882  10.053   9.376   2.353 -1.0659  0.6579  0.3943
50984SOL    HW262883  10.106   9.518   2.353  0.5771  0.0738 -0.5002
50985SOL     OW62884   6.102   0.968  10.631  0.5073 -0.2316 -0.4940
50985SOL    HW162885   6.170   0.996  10.569  0.4759 -0.0961 -0.4671
50985SOL    HW262886   6.124   1.013  10.713 -0.8886  1.5839 -1.0768
50986SOL     OW62887   0.443   2.225   5.057  0.3209  0.2465  0.1386
50986SOL    HW162888   0.479   2.296   5.004 -0.5836 -0.0556 -0.9145
50986SOL    HW262889   0.357   2.208   5.020 -0.0078 -0.5306  1.2051
50987SOL     OW62890  10.792  10.512  10.511 -0.0275 -0.1251  0.8979
50987SOL    HW162891  10.849  10.543  10.581 -0.6530  2.7581  0.2411
50987SOL    HW262892  10.757  10.591  10.471  0.5283 -1.6217 -2.9417
50988SOL     OW62893   9.728  10.090  11.422 -0.3522  0.0124  0.2289
50988SOL    HW162894   9.798  10.153  11.436 -0.8201  0.2986  1.4422
50988SOL    HW262895   9.698  10.107  11.333  0.0657  0.9712  0.2527
50989SOL     OW62896   0.048   1.895  12.382 -0.0122  0.4245  0.3820
50989SOL    HW162897  -0.046   1.892  12.397 -0.1639  0.7419 -0.4390
50989SOL    HW262898   0.057   1.925  12.291  0.8517 -0.5576  0.1172
50990SOL     OW62899   2.635   6.672   7.776 -0.3420  0.5615  0.1522
50990SOL    HW162900   2.661   6.697   7.687  2.1445  0.7238  0.8456
50990SOL    HW262901   2.718   6.658   7.822 -1.5374 -2.2686  1.7060
50991SOL     OW62902   1.382  11.250   5.147 -0.2216 -0.2476  0.1719
50991SOL    HW162903   1.378  11.233   5.241  0.0400  2.0043  0.6339
50991SOL    HW262904   1.314  11.314   5.131  1.6038  1.5961 -0.6051
50992SOL     OW62905   5.936   6.774   3.861  0.2487 -0.1080  0.0435
50992SOL    HW162906   5.997   6.844   3.840 -0.6450  0.2111 -1.7199
50992SOL    HW262907   5.912   6.737   3.776 -2.4135  0.1747  0.5858
50993SOL     OW62908   8.429   2.659   3.319  0.1975 -0.0651  0.7530
50993SOL    HW162909   8.448   2.567   3.334 -0.7321 -0.4382 -0.2126
50993SOL    HW262910   8.444   2.701   3.403  0.2362 -1.1675  1.3121
50994SOL     OW62911  12.021  12.876   7.103 -0.0230 -0.1143 -0.0878
50994SOL    HW162912  11.933  12.843   7.085 -0.8204 -0.5262  3.7173
50994SOL    HW262913  12.079  12.802   7.084 -0.5376 -0.1785 -1.5907
50995SOL     OW62914  12.351  12.373   7.901 -0.7988 -0.7023  0.1441
50995SOL    HW162915  12.415  12.346   7.835  1.2189  1.8138  0.9057
50995SOL    HW262916  12.320  12.458   7.870 -2.5881 -1.1422  0.6444
50996SOL     OW62917   4.660   0.740   7.885  0.1324  0.3195 -0.0679
50996SOL    HW162918   4.734   0.782   7.927 -1.6577  1.4603  2.1817
50996SOL    HW262919   4.665   0.648   7.913  1.4922  0.0115 -1.2150
50997SOL     OW62920   4.751   2.735   9.575  0.5246  0.0493 -0.7724
50997SOL    HW162921   4.834   2.775   9.598  0.0478  0.9476 -0.5790
50997SOL    HW262922   4.747   2.656   9.628 -0.5441  2.0475  2.4014
50998SOL     OW62923  12.483  11.383   9.303 -0.1454 -0.6948 -0.1463
50998SOL    HW162924  12.530  11.300   9.295  0.6830 -0.1950 -0.6764
50998SOL    HW262925  12.478  11.416   9.213  1.8432  1.0451  0.2901
50999SOL     OW62926  11.002  12.160   1.726 -0.0415 -0.3110 -0.3364
50999SOL    HW162927  11.047  12.102   1.664 -0.6212 -0.0852 -0.9755
50999SOL    HW262928  10.933  12.201   1.675  0.1633  0.7247  0.1914
51000SOL     OW62929   4.384   7.235   6.229  0.2563  0.0129  0.0703
51000SOL    HW162930   4.385   7.312   6.286  3.0367  0.9481 -1.0835
51000SOL    HW262931   4.434   7.169   6.276  2.3163  0.6955 -1.0265
51001SOL     OW62932   9.359   9.182   7.315 -0.0544  0.1321  0.3705
51001SOL    HW162933   9.273   9.222   7.301  0.3253  0.6961 -0.4024
51001SOL    HW262934   9.364   9.114   7.248 -0.3998 -0.7525  1.2176
51002SOL     OW62935  11.011   1.595   1.392 -0.0979  0.2622  0.2645
51002SOL    HW162936  10.986   1.505   1.370  0.9834 -0.0243  0.1732
51002SOL    HW262937  11.010   1.640   1.307 -0.4898  0.3103  0.2897
51003SOL     OW62938  10.367   3.181  12.204 -0.0632  0.3601  0.2502
51003SOL    HW162939  10.291   3.123  12.198  0.3653 -0.2336  0.5165
51003SOL    HW262940  10.350   3.235  12.282  0.9857 -1.5374  1.8568
51004SOL     OW62941   8.203   9.370   3.800 -0.3238 -0.1228  0.1590
51004SOL    HW162942   8.108   9.359   3.799 -0.1835 -1.4689  0.1672
51004SOL    HW262943   8.237   9.293   3.754  0.7587  0.3389  0.1650
51005SOL     OW62944  12.624   5.430   8.588  0.4754  0.6803  0.1793
51005SOL    HW162945  12.541   5.438   8.541  1.1146  1.0803 -0.9125
51005SOL    HW262946  12.605   5.367   8.658  0.0807 -1.8342 -2.0261
51006SOL     OW62947   1.421  12.214  11.036 -0.0799  0.3886 -0.1561
51006SOL    HW162948   1.494  12.171  10.992 -0.3343  1.2935 -1.5454
51006SOL    HW262949   1.384  12.147  11.093  1.9553 -0.0265  0.7753
51007SOL     OW62950   5.566   7.005   9.521 -0.1994 -0.8131  0.3755
51007SOL    HW162951   5.584   6.988   9.614 -0.7712 -1.1011  0.4440
51007SOL    HW262952   5.525   6.924   9.490  1.3215 -1.2753 -0.5125
51008SOL     OW62953   4.373   3.377  11.071 -0.0676  0.0941 -0.1351
51008SOL    HW162954   4.450   3.431  11.086  0.3908 -0.4875 -0.3542
51008SOL    HW262955   4.398   3.318  11.000 -0.2480 -0.9908  0.6748
51009SOL     OW62956   4.550  12.265   0.024  0.0048 -0.0139 -0.1330
51009SOL    HW162957   4.629  12.283   0.075  0.1161 -1.0034  0.0793
51009SOL    HW262958   4.498  12.207   0.081 -0.1895 -0.5607 -0.8516
51010SOL     OW62959   6.134   2.776  12.294 -0.2718 -0.2501 -0.5542
51010SOL    HW162960   6.197   2.704  12.299  0.4132  0.2000 -2.0465
51010SOL    HW262961   6.052   2.734  12.268  0.0325 -0.5472 -1.0480
51011SOL     OW62962  11.830  10.381   1.101  0.2085  0.9233  0.1563
51011SOL    HW162963  11.863  10.436   1.029  2.0082 -0.3207 -0.0366
51011SOL    HW262964  11.852  10.429   1.180  0.1548  1.3014 -0.0540
51012SOL     OW62965   5.689   8.516   8.850 -0.4818 -0.2438  0.3968
51012SOL    HW162966   5.683   8.449   8.782 -1.7584 -0.2969  0.5294
51012SOL    HW262967   5.746   8.583   8.813 -1.0529 -0.3357 -0.6966
51013SOL     OW62968   8.965  12.496  12.068  0.3142  0.2789 -0.4355
51013SOL    HW162969   8.965  12.465  12.158  0.7315  0.2572 -0.4445
51013SOL    HW262970   9.034  12.446  12.024 -1.2175 -1.1944 -1.2807
51014SOL     OW62971   4.487   9.467  12.696 -0.0680  0.4567 -0.1787
51014SOL    HW162972   4.476   9.433  12.608  0.6222  0.7155 -0.3704
51014SOL    HW262973   4.552   9.537  12.687  1.5103 -0.8228  0.8320
51015SOL     OW62974  10.171  10.491   0.662  0.6647 -0.0956  0.1414
51015SOL    HW162975  10.095  10.461   0.712  0.9185 -1.2971 -0.1653
51015SOL    HW262976  10.229  10.528   0.728 -0.3245  1.2111  0.3370
51016SOL     OW62977   4.050   5.045   3.510  0.2924  0.8050 -0.6606
51016SOL    HW162978   4.008   5.029   3.595  0.4778  0.6984 -0.5876
51016SOL    HW262979   4.078   4.958   3.481 -0.7240  0.6944 -1.3366
51017SOL     OW62980  10.080  12.592   5.915 -0.6982  0.0514 -0.0849
51017SOL    HW162981  10.042  12.607   6.001  0.4964 -0.6482  0.6009
51017SOL    HW262982  10.104  12.499   5.915 -0.6264  0.0575 -1.1402
51018SOL     OW62983   4.773   7.282  10.158  0.3318 -0.7177 -0.9168
51018SOL    HW162984   4.695   7.249  10.202  0.3877  0.8641  0.4925
51018SOL    HW262985   4.845   7.232  10.197  0.2434 -0.3450 -0.2565
51019SOL     OW62986   1.394   6.724   8.861  0.5111  0.3944  0.1142
51019SOL    HW162987   1.391   6.801   8.803 -2.2489 -1.0735 -1.9449
51019SOL    HW262988   1.347   6.752   8.939 -2.6320  0.2861 -1.5667
51020SOL     OW62989   6.115  11.225   2.611 -0.6343  0.1676 -0.4609
51020SOL    HW162990   6.108  11.289   2.541  2.2817  0.8188 -0.2613
51020SOL    HW262991   6.205  11.192   2.606 -0.3950 -0.0091  2.7274
51021SOL     OW62992  11.304   0.028   9.293  0.1514  0.1520 -0.4389
51021SOL    HW162993  11.235   0.084   9.258 -0.0971  0.4175  0.4594
51021SOL    HW262994  11.326   0.066   9.378  0.6233 -0.5823 -0.2175
51022SOL     OW62995   6.378   3.780   0.363  0.1857 -0.1757 -0.0982
51022SOL    HW162996   6.458   3.727   0.372  0.9817  1.1591  1.1394
51022SOL    HW262997   6.376   3.803   0.270  2.0496  0.8947  0.0675
51023SOL     OW62998   6.143  11.565  12.602 -0.1908 -0.2060 -0.5044
51023SOL    HW162999   6.174  11.512  12.529  1.1589  0.1397 -0.1972
51023SOL    HW263000   6.222  11.597  12.646 -0.8701  2.7305 -1.1479
51024SOL     OW63001   5.971   6.171  11.590 -0.0151 -0.1039 -0.4548
51024SOL    HW163002   5.988   6.210  11.676 -0.9039 -0.2352 -0.2045
51024SOL    HW263003   6.046   6.196  11.537  0.1411  0.6910  0.1231
51025SOL     OW63004   9.716   3.407  11.784 -0.0352 -0.5810 -0.2634
51025SOL    HW163005   9.738   3.334  11.841  4.0747  0.0401 -0.7461
51025SOL    HW263006   9.781   3.474  11.804 -1.2102  1.4194 -2.5537
51026SOL     OW63007   0.720   3.158   7.903 -0.9250  0.4239  0.4533
51026SOL    HW163008   0.779   3.216   7.951  1.2132 -2.9719  2.4097
51026SOL    HW263009   0.640   3.158   7.956 -0.8956  1.4019  0.5200
51027SOL     OW63010   0.734   9.417  12.496 -0.3667 -0.2001  0.0654
51027SOL    HW163011   0.695   9.497  12.533 -1.0585  1.1480 -3.2062
51027SOL    HW263012   0.684   9.346  12.535 -1.3142  1.1016  1.3256
51028SOL     OW63013   2.033   5.317   6.523  0.2919  0.1401 -0.2925
51028SOL    HW163014   2.005   5.328   6.614 -0.9694 -0.7256 -0.5474
51028SOL    HW263015   2.036   5.222   6.511 -0.3059  0.2471 -1.3695
51029SOL     OW63016   2.189   9.658   2.556 -0.0638 -0.0689  0.1566
51029SOL    HW163017   2.238   9.688   2.633 -1.1572 -0.3105  0.9732
51029SOL    HW263018   2.198   9.563   2.557  0.9089  0.0101 -0.7062
51030SOL     OW63019   5.845   0.009   4.869  0.0510 -0.4409  0.8616
51030SOL    HW163020   5.854   0.102   4.847 -1.0114  0.2063  2.8712
51030SOL    HW263021   5.755  -0.013   4.846  0.9413 -1.7033 -1.8095
51031SOL     OW63022   4.309   3.527   1.968 -0.3625  0.3905  0.0457
51031SOL    HW163023   4.285   3.528   1.875  0.6538 -0.1004 -0.2419
51031SOL    HW263024   4.405   3.528   1.968 -0.3295 -0.6092  1.0588
51032SOL     OW63025   5.520  10.414  12.458  0.3411  0.0836 -0.1701
51032SOL    HW163026   5.518  10.339  12.399  1.3813  1.0395 -1.5019
51032SOL    HW263027   5.582  10.390  12.527 -0.8887 -1.0479  0.5768
51033SOL     OW63028   0.063   0.656   6.984 -0.1712  0.8020  0.1489
51033SOL    HW163029   0.075   0.563   6.963  0.6586  0.4250  2.0716
51033SOL    HW263030  -0.029   0.663   7.009  0.0424  0.2280  1.1442
51034SOL     OW63031   4.666   3.459   9.776 -0.8284 -0.1777 -0.0491
51034SOL    HW163032   4.573   3.433   9.776 -1.3514  1.4599  1.6951
51034SOL    HW263033   4.681   3.490   9.865  1.0142  0.9958 -0.7298
51035SOL     OW63034   0.622   9.702  12.855 -0.4821 -0.4654  0.1003
51035SOL    HW163035   0.691   9.719  12.791 -2.2652  0.4122 -1.7152
51035SOL    HW263036   0.651   9.747  12.935 -0.1155  2.1533 -1.3868
51036SOL     OW63037   1.270  12.009   9.209  0.5777 -0.5047 -0.7721
51036SOL    HW163038   1.193  12.021   9.153  1.0037  0.9281 -1.0824
51036SOL    HW263039   1.328  11.952   9.159 -0.2462 -1.5606 -0.5546
51037SOL     OW63040   8.963  12.146  11.701 -0.0599 -0.3653 -0.2765
51037SOL    HW163041   8.982  12.201  11.625 -1.2927 -0.8223 -0.9421
51037SOL    HW263042   9.047  12.104  11.722  0.3110 -0.1996 -1.3577
51038SOL     OW63043   7.476  11.750  11.719 -0.4473  0.1005 -0.1058
51038SOL    HW163044   7.381  11.743  11.707 -0.4140  0.8049 -0.9161
51038SOL    HW263045   7.488  11.820  11.783 -0.4626  0.8345 -0.8779
51039SOL     OW63046  12.566   2.886   8.414 -0.2852  0.9867 -0.3508
51039SOL    HW163047  12.602   2.913   8.498 -1.0183  1.9638 -0.3300
51039SOL    HW263048  12.605   2.946   8.350 -0.2634  0.6954 -0.6155
51040SOL     OW63049  13.209   1.380  12.843  0.0330  0.0587  0.6763
51040SOL    HW163050  13.280   1.344  12.897  0.2037  0.8045  0.9587
51040SOL    HW263051  13.180   1.306  12.789  0.3875 -0.4933  1.2323
51041SOL     OW63052   0.810   4.340  10.009  0.1781  0.0829 -0.0980
51041SOL    HW163053   0.789   4.261   9.960 -1.1626  0.4589 -0.1683
51041SOL    HW263054   0.816   4.409   9.942 -1.1917  0.5054  0.1756
51042SOL     OW63055   9.431   9.500  12.747 -0.3607  0.0335 -0.0609
51042SOL    HW163056   9.469   9.586  12.731 -1.0379  0.0227 -1.9037
51042SOL    HW263057   9.503   9.439  12.732  0.1705  0.2474  1.4310
51043SOL     OW63058   8.754   0.921   3.598 -0.4502  0.1183 -0.2596
51043SOL    HW163059   8.766   0.955   3.687 -1.9410  0.3337 -0.1076
51043SOL    HW263060   8.806   0.979   3.543 -0.9615  1.1201  0.2773
51044SOL     OW63061   2.455   2.190   0.374  0.1763  0.0964 -0.3443
51044SOL    HW163062   2.538   2.226   0.342 -0.0233  0.1679 -0.7848
51044SOL    HW263063   2.418   2.145   0.298  1.0520 -2.2298  0.5164
51045SOL     OW63064  11.288   9.854   2.510  0.0509  0.3739  0.0862
51045SOL    HW163065  11.345   9.808   2.448 -0.7295 -0.7551  0.1959
51045SOL    HW263066  11.202   9.815   2.498 -0.2320  0.4993  1.5182
51046SOL     OW63067   9.678   4.015   5.150  0.1702  0.0149 -0.4551
51046SOL    HW163068   9.750   3.958   5.123  1.3488  1.1285  0.2667
51046SOL    HW263069   9.713   4.104   5.144 -0.3356  0.4677  2.1627
51047SOL     OW63070   7.487   7.612   7.768  0.2333 -0.3655 -0.0465
51047SOL    HW163071   7.512   7.527   7.805 -1.2042  0.2992  2.7605
51047SOL    HW263072   7.449   7.659   7.842  0.6401  2.6024 -1.6114
51048SOL     OW63073   4.748  13.162   1.932 -0.1709 -0.8820 -0.2661
51048SOL    HW163074   4.778  13.188   1.846  1.8125 -2.4945 -0.1225
51048SOL    HW263075   4.793  13.079   1.950 -0.0451 -0.3035  2.5558
51049SOL     OW63076   1.020   1.958   3.396  0.3223  0.0816 -0.6034
51049SOL    HW163077   1.055   1.899   3.462  0.2593  0.4033 -0.2812
51049SOL    HW263078   0.928   1.934   3.387  0.0319  0.8387  0.3030
51050SOL     OW63079   8.422   0.739   5.921  0.2517 -0.3105  0.6898
51050SOL    HW163080   8.403   0.833   5.920  2.7186  0.3146 -2.1608
51050SOL    HW263081   8.361   0.701   5.857  0.1699 -0.4222  0.8340
51051SOL     OW63082   6.620   5.736   2.793  0.2582  0.0997 -0.0327
51051SOL    HW163083   6.713   5.756   2.782  0.2435 -0.5043 -1.6564
51051SOL    HW263084   6.582   5.815   2.831  1.4379  0.3296  0.7247
51052SOL     OW63085   7.285  13.077   4.265 -0.3695  0.0685  0.1967
51052SOL    HW163086   7.207  13.032   4.234  0.2638  0.4667 -2.1777
51052SOL    HW263087   7.278  13.165   4.230  1.1489  0.0946 -0.1352
51053SOL     OW63088   4.486   7.927  11.876 -0.2900 -0.4982 -0.2685
51053SOL    HW163089   4.432   8.003  11.898  1.0237  0.6405 -0.8481
51053SOL    HW263090   4.575   7.961  11.870  0.4297 -2.2059  0.0351
51054SOL     OW63091   6.027   3.587  10.663  0.0164 -0.5188  0.3099
51054SOL    HW163092   6.094   3.639  10.708 -1.5072  0.3183  1.6968
51054SOL    HW263093   6.024   3.505  10.711  0.5967 -0.8909 -0.2692
51055SOL     OW63094   8.615   6.728  13.124  0.2196 -0.4827  0.3048
51055SOL    HW163095   8.641   6.636  13.131  0.9643 -0.2276  1.1857
51055SOL    HW263096   8.589   6.740  13.033  0.9978 -1.3448 -0.0455
51056SOL     OW63097  11.647  13.088   7.891  0.3641  0.3914 -0.3590
51056SOL    HW163098  11.655  13.013   7.833 -1.0851 -0.2242  0.1870
51056SOL    HW263099  11.700  13.065   7.967  0.1038  0.0049 -0.2901
51057SOL     OW63100   5.585   6.607   8.379 -0.0320  0.2084  0.6274
51057SOL    HW163101   5.645   6.540   8.413 -0.1611 -1.8213 -2.6470
51057SOL    HW263102   5.517   6.614   8.445 -0.0586 -3.0889  1.1093
51058SOL     OW63103   7.738  12.559   9.508 -0.0805  0.3445  0.5269
51058SOL    HW163104   7.722  12.474   9.547 -0.2647 -0.7713 -1.8323
51058SOL    HW263105   7.739  12.543   9.414  2.2537  2.5259  0.0583
51059SOL     OW63106   1.296   9.832   0.044 -0.3169 -0.1366  0.0448
51059SOL    HW163107   1.316   9.900  -0.020 -0.8795  1.5859  1.5979
51059SOL    HW263108   1.290   9.751  -0.007  3.2004  0.4050 -1.5308
51060SOL     OW63109   9.136   2.546  10.228  0.0019  0.2462 -0.3981
51060SOL    HW163110   9.089   2.616  10.272  0.2889  0.4266 -0.3711
51060SOL    HW263111   9.183   2.590  10.157 -0.4311 -0.0358 -0.8609
51061SOL     OW63112   1.501   6.396   5.409 -0.3570  0.0944 -0.2609
51061SOL    HW163113   1.521   6.441   5.491 -0.8543 -0.4957  0.1979
51061SOL    HW263114   1.450   6.460   5.358 -1.3340 -0.0406  0.5162
51062SOL     OW63115   3.742   0.798   1.631  0.5746 -0.2342  0.6048
51062SOL    HW163116   3.837   0.794   1.628  0.5725 -0.2320 -2.2446
51062SOL    HW263117   3.720   0.883   1.591 -0.5923 -1.9125 -2.7028
51063SOL     OW63118  11.292   4.501   1.623  0.1132 -0.1859 -0.0464
51063SOL    HW163119  11.277   4.566   1.691  2.5789 -0.5561  0.9273
51063SOL    HW263120  11.364   4.536   1.571  1.9206 -2.3347  0.8744
51064SOL     OW63121  10.806   1.159   6.478  0.2711 -0.0098  0.4381
51064SOL    HW163122  10.719   1.199   6.473  0.3153  0.0709  0.2904
51064SOL    HW263123  10.851   1.191   6.400 -0.2151 -1.6059 -0.5492
51065SOL     OW63124   6.622  10.475   8.137  0.2503  0.4807  0.3207
51065SOL    HW163125   6.537  10.511   8.163  0.6499  1.2762  0.5633
51065SOL    HW263126   6.686  10.537   8.172  0.9528 -0.3523  0.5358
51066SOL     OW63127   6.946   8.973  11.569  0.2472 -0.2474 -0.2081
51066SOL    HW163128   6.964   9.042  11.632  0.6185  0.0202 -0.6017
51066SOL    HW263129   7.025   8.966  11.516 -0.4716  0.3896 -1.4352
51067SOL     OW63130   2.049   2.020   9.867 -0.2799  0.0515 -0.1562
51067SOL    HW163131   2.112   1.969   9.815 -1.3939 -0.5219 -0.9764
51067SOL    HW263132   1.976   2.037   9.807 -0.8311  0.8694  0.7207
51068SOL     OW63133   1.747   9.893   2.766  0.2658  0.1982  0.4208
51068SOL    HW163134   1.791   9.858   2.689 -0.1505  0.9259 -0.1554
51068SOL    HW263135   1.656   9.866   2.755  0.2284  0.2019  0.7232
51069SOL     OW63136   0.308  11.320  10.428 -0.1911  0.5697 -0.6420
51069SOL    HW163137   0.359  11.356  10.501  0.8902  0.2481 -1.2126
51069SOL    HW263138   0.285  11.395  10.374 -0.0883  0.6830 -0.5281
51070SOL     OW63139   6.171  12.406  12.002  0.0009 -0.0372 -0.1801
51070SOL    HW163140   6.263  12.399  11.977 -0.0123 -2.4429  0.1389
51070SOL    HW263141   6.153  12.500  12.002  2.2470  0.4689 -0.9292
51071SOL     OW63142   4.417  10.355  12.339 -0.0144  0.4353 -0.4052
51071SOL    HW163143   4.457  10.347  12.425 -0.7751  2.8170  0.2506
51071SOL    HW263144   4.433  10.271  12.297  2.2268 -0.0528  1.2456
51072SOL     OW63145  11.248  10.322  11.383 -0.0963  0.3692  0.3022
51072SOL    HW163146  11.173  10.280  11.425 -0.1521 -0.1301 -0.2808
51072SOL    HW263147  11.233  10.416  11.395 -0.1285  0.2409  1.3496
51073SOL     OW63148   8.140  11.599   1.973 -0.4318  0.0328  0.7622
51073SOL    HW163149   8.220  11.581   2.022  0.1124 -1.4879 -0.5880
51073SOL    HW263150   8.069  11.576   2.033  0.1670 -0.0060  1.4707
51074SOL     OW63151  11.522   2.421  11.243 -0.7974  0.0604  0.3659
51074SOL    HW163152  11.569   2.454  11.320 -0.1366 -0.7785  0.3377
51074SOL    HW263153  11.464   2.353  11.278 -0.7497 -0.0789  0.1788
51075SOL     OW63154   3.916   4.631  12.321  0.2654  0.5434  0.7475
51075SOL    HW163155   3.847   4.618  12.256 -0.5766  1.1581  1.4930
51075SOL    HW263156   3.985   4.571  12.295 -1.2984 -1.4907  1.0363
51076SOL     OW63157   0.054   4.617  11.347  0.6626  0.4461 -0.2039
51076SOL    HW163158   0.063   4.524  11.363  0.2637  0.4317 -0.0676
51076SOL    HW263159   0.105   4.659  11.416  1.1227  0.3227 -0.4657
51077SOL     OW63160   2.369   9.812   5.414  0.5073  0.0778 -0.4562
51077SOL    HW163161   2.326   9.799   5.498  1.8244  1.3460  0.4627
51077SOL    HW263162   2.395   9.723   5.387 -1.2337 -0.5180 -0.2926
51078SOL     OW63163  11.913   1.752  12.913 -0.4876  0.0121  0.2815
51078SOL    HW163164  11.879   1.839  12.890  0.9783  0.3659 -0.6802
51078SOL    HW263165  11.835   1.696  12.912 -1.2941  1.0847 -0.2803
51079SOL     OW63166   2.244  10.217   2.417 -0.2890 -0.0580  0.5567
51079SOL    HW163167   2.209  10.137   2.377 -0.7288  0.4820 -0.1772
51079SOL    HW263168   2.188  10.287   2.382  1.2930  0.7924 -0.3522
51080SOL     OW63169   4.876   1.760   7.872 -0.1937  0.8009 -0.4731
51080SOL    HW163170   4.795   1.803   7.898  0.8756  2.3741  0.4497
51080SOL    HW263171   4.866   1.669   7.902 -1.5794  0.9740 -0.3515
51081SOL     OW63172   8.973   6.731   3.560  0.1329  0.0925  0.2633
51081SOL    HW163173   8.893   6.704   3.515 -1.5749 -2.9643  4.5551
51081SOL    HW263174   9.044   6.693   3.507 -1.4294 -0.4275 -1.5730
51082SOL     OW63175  10.807   1.815  11.167  0.1184 -0.2405 -0.0578
51082SOL    HW163176  10.880   1.769  11.126 -0.0607 -0.1049 -0.5253
51082SOL    HW263177  10.729   1.765  11.140 -0.1302  0.6333 -0.9976
51083SOL     OW63178   6.159   4.896  12.180  0.6499  0.4344  0.1360
51083SOL    HW163179   6.081   4.841  12.188  0.6973 -0.4581 -3.5137
51083SOL    HW263180   6.217   4.865  12.250 -0.3361 -2.4283 -0.1470
51084SOL     OW63181  10.185   4.949   1.635  0.1717  0.5092 -0.7036
51084SOL    HW163182  10.119   5.014   1.611  0.2434  0.5292 -0.8523
51084SOL    HW263183  10.170   4.932   1.728 -2.3127 -2.0688 -1.4406
51085SOL     OW63184   6.369   7.315   5.819 -0.4016 -0.3321 -0.5895
51085SOL    HW163185   6.302   7.346   5.879  0.4869 -0.1634  0.3341
51085SOL    HW263186   6.433   7.386   5.814  0.9276 -1.4057  0.4434
51086SOL     OW63187   4.870   8.819   1.142  0.1028 -0.5307  0.6210
51086SOL    HW163188   4.877   8.759   1.217 -2.5087 -0.3013  1.1530
51086SOL    HW263189   4.812   8.774   1.081 -0.3491  0.6058  0.1764
51087SOL     OW63190   0.381   7.885   7.588 -0.3435 -0.1946  0.2845
51087SOL    HW163191   0.472   7.885   7.617 -1.0116  0.6399  2.5928
51087SOL    HW263192   0.355   7.793   7.594  0.6198 -0.6418 -1.5414
51088SOL     OW63193  10.493   8.927   1.563 -0.1772 -0.0599 -0.0538
51088SOL    HW163194  10.560   8.985   1.528 -0.4588  0.2304 -0.1257
51088SOL    HW263195  10.440   8.983   1.619  0.7295 -0.6884  1.4813
51089SOL     OW63196   8.982  11.439  11.086  0.1634  0.1947 -0.0780
51089SOL    HW163197   9.074  11.463  11.097  0.7928 -0.5638 -2.9184
51089SOL    HW263198   8.970  11.364  11.144  1.1842  0.6017  0.7017
51090SOL     OW63199   2.997   3.476   0.585 -0.3361 -0.1771 -0.2543
51090SOL    HW163200   2.915   3.428   0.583 -0.9230  0.7285  0.7431
51090SOL    HW263201   3.010   3.497   0.678  0.2252  1.0125 -0.5794
51091SOL     OW63202   5.275   7.690   0.030 -0.4741  0.1423  0.2074
51091SOL    HW163203   5.218   7.725  -0.039 -0.3583  1.0229  0.5468
51091SOL    HW263204   5.220   7.691   0.109 -0.4227 -0.3135  0.2511
51092SOL     OW63205  13.000   6.470   2.139 -0.0607 -0.5520  0.4994
51092SOL    HW163206  12.912   6.433   2.132 -1.6740  3.0612 -0.7878
51092SOL    HW263207  13.007   6.499   2.230 -0.8525  0.4442  0.2623
51093SOL     OW63208   6.834  10.086   6.117 -0.2744  0.1228  0.4247
51093SOL    HW163209   6.793  10.002   6.094  1.1896 -1.0882  1.9480
51093SOL    HW263210   6.889  10.107   6.041  1.0531 -1.4874  0.8833
51094SOL     OW63211   5.874   1.007   7.945 -0.4312 -0.1305  0.4120
51094SOL    HW163212   5.907   0.918   7.930  1.6995  0.2137  2.5792
51094SOL    HW263213   5.790   0.994   7.988  0.0812 -1.1113  1.1486
51095SOL     OW63214  10.965   3.203   7.299 -0.0525 -0.1635  0.1859
51095SOL    HW163215  10.917   3.245   7.228  0.2555 -0.9334 -0.4998
51095SOL    HW263216  10.945   3.255   7.377  2.2039  2.7915 -0.9937
51096SOL     OW63217   8.117   9.845   0.831  0.5578 -0.4799 -0.5811
51096SOL    HW163218   8.100   9.753   0.852 -1.2468  0.1568  1.0543
51096SOL    HW263219   8.212   9.854   0.841  0.4565 -1.4702  2.5758
51097SOL     OW63220   5.450  12.184  10.684 -0.3436 -0.5193  0.3871
51097SOL    HW163221   5.382  12.199  10.619  0.2787  0.8421  0.0047
51097SOL    HW263222   5.532  12.185  10.634  0.0761 -0.3440  1.0566
51098SOL     OW63223   5.136   9.894   6.365  0.2178  0.5543 -0.6173
51098SOL    HW163224   5.167   9.917   6.278  1.7946 -0.9543 -0.5054
51098SOL    HW263225   5.106   9.803   6.357  0.7985  0.2472  0.4923
51099SOL     OW63226   5.830   3.250  13.025  0.1358  0.0857 -0.0601
51099SOL    HW163227   5.783   3.201  12.957  1.3703 -0.1025 -0.7982
51099SOL    HW263228   5.760   3.292  13.076 -0.8483 -0.4255 -0.9361
51100SOL     OW63229   5.737   7.960   9.299  0.8068 -0.0054 -0.4029
51100SOL    HW163230   5.690   7.908   9.364  1.2877  1.3605  1.0975
51100SOL    HW263231   5.711   7.922   9.215 -0.5060 -1.2730  0.5241
51101SOL     OW63232   1.987   3.905   2.808  0.2668  0.3751 -0.2571
51101SOL    HW163233   1.907   3.853   2.805  0.6111 -0.1849 -0.0632
51101SOL    HW263234   2.015   3.911   2.717  2.8982 -4.1309 -0.0927
51102SOL     OW63235   1.737   8.313   9.486  0.6508 -0.2601 -0.2442
51102SOL    HW163236   1.791   8.374   9.537  0.9007  1.2101 -2.1595
51102SOL    HW263237   1.667   8.367   9.450 -0.8799 -1.7301  0.4037
51103SOL     OW63238   8.499   9.934   3.326 -0.1594 -0.3079 -0.1280
51103SOL    HW163239   8.563   9.927   3.255 -0.5343 -1.4222 -0.3729
51103SOL    HW263240   8.552   9.954   3.404  0.5502 -1.5502 -0.2648
51104SOL     OW63241   0.705   3.377   6.840 -0.3881  0.2822 -0.5260
51104SOL    HW163242   0.620   3.370   6.883 -1.1593  2.2633 -1.5892
51104SOL    HW263243   0.748   3.451   6.884  0.7233 -0.5680 -0.1432
51105SOL     OW63244   0.421  12.275   9.738  0.0841  0.7428 -0.7212
51105SOL    HW163245   0.470  12.193   9.744  0.7486  1.0717 -1.4719
51105SOL    HW263246   0.369  12.277   9.818 -0.9556 -1.0379 -1.3011
51106SOL     OW63247   7.738  11.186   6.865 -0.1921  0.1249  0.0921
51106SOL    HW163248   7.797  11.197   6.790 -0.0621 -0.4794  0.1024
51106SOL    HW263249   7.669  11.251   6.850 -0.9047 -0.8876 -1.2836
51107SOL     OW63250  11.179   2.574   4.941  0.1585 -0.1152  0.1676
51107SOL    HW163251  11.220   2.599   5.023  1.1956 -1.7639  0.2047
51107SOL    HW263252  11.181   2.654   4.887  4.0967 -0.1724 -0.0808
51108SOL     OW63253   4.764   2.297   5.962 -0.1669 -0.4968  0.3990
51108SOL    HW163254   4.814   2.372   5.994  1.0698 -0.5076 -1.3479
51108SOL    HW263255   4.679   2.333   5.937  0.8228  0.6286 -1.5693
51109SOL     OW63256   4.934   0.698   9.056 -0.0339 -0.2320 -0.1290
51109SOL    HW163257   4.901   0.784   9.082 -2.8155 -0.9877 -0.8043
51109SOL    HW263258   5.013   0.717   9.006 -1.4094  2.1023 -1.6345
51110SOL     OW63259   2.351  10.836   8.573 -0.9951  0.4670  0.6020
51110SOL    HW163260   2.322  10.833   8.664  0.7934 -0.0051  1.1932
51110SOL    HW263261   2.309  10.760   8.532 -0.4477 -0.3343  1.4889
51111SOL     OW63262   8.489   2.080   3.949  0.7320 -0.0497  0.7552
51111SOL    HW163263   8.515   2.003   4.000  0.5925  0.5602  1.7750
51111SOL    HW263264   8.526   2.154   3.996  1.1485  0.4984 -0.3990
51112SOL     OW63265   1.417   9.797   7.864  0.0048  0.0979  0.2541
51112SOL    HW163266   1.413   9.716   7.812  0.7582  0.5674 -0.5607
51112SOL    HW263267   1.505   9.831   7.848 -1.0264  2.2979 -1.3119
51113SOL     OW63268   0.773   4.908   6.635  0.4337  0.0904 -0.0072
51113SOL    HW163269   0.688   4.872   6.663  0.4809 -0.6550 -0.7958
51113SOL    HW263270   0.837   4.851   6.677  0.5339  0.1528 -0.0767
51114SOL     OW63271  11.811   0.741   3.661 -0.1036 -0.4776 -0.0224
51114SOL    HW163272  11.862   0.722   3.739 -1.1170  0.5781  0.9427
51114SOL    HW263273  11.746   0.672   3.657  0.1805 -0.7394 -0.1517
51115SOL     OW63274  11.957  12.459   3.653  0.1995 -0.1122 -0.2017
51115SOL    HW163275  11.937  12.383   3.708  0.4050  0.5248  0.7919
51115SOL    HW263276  11.938  12.430   3.564  0.6214 -1.4478  0.1089
51116SOL     OW63277  13.200   4.479   9.469 -0.1398  0.2452 -0.1144
51116SOL    HW163278  13.162   4.394   9.450 -1.9681  1.2235 -1.1820
51116SOL    HW263279  13.271   4.489   9.406  0.1902 -0.5349  0.1280
51117SOL     OW63280  13.251   8.410   6.539  0.7344  0.0556 -0.1282
51117SOL    HW163281  13.183   8.350   6.510 -1.2811  1.7306  0.9323
51117SOL    HW263282  13.239   8.417   6.634  0.4101  2.6349 -0.2917
51118SOL     OW63283   2.536   9.450   0.723 -0.5748 -0.1881 -0.5283
51118SOL    HW163284   2.479   9.412   0.790 -2.5096  2.4704 -0.4917
51118SOL    HW263285   2.620   9.463   0.768 -1.6630  1.0229  1.2940
51119SOL     OW63286   4.322   8.420  12.285 -0.7470  0.5328  0.2755
51119SOL    HW163287   4.416   8.426  12.301 -0.7966  1.7315  0.2810
51119SOL    HW263288   4.294   8.343  12.333  0.4223 -0.5456 -0.7006
51120SOL     OW63289   7.801  12.021   4.381 -0.1371  0.0041  0.1665
51120SOL    HW163290   7.838  12.075   4.452  1.4299  1.1487 -1.4393
51120SOL    HW263291   7.790  12.081   4.308  1.8089 -1.7975 -1.7499
51121SOL     OW63292   5.159  11.103   5.690  0.3933 -0.5245 -0.1131
51121SOL    HW163293   5.104  11.035   5.650  0.7196 -0.9182  0.0914
51121SOL    HW263294   5.132  11.103   5.782 -1.2483  1.2584 -0.5425
51122SOL     OW63295   4.543  13.093   4.430  0.4112 -0.1641 -0.4382
51122SOL    HW163296   4.482  13.041   4.378  0.1259 -1.9440  1.5409
51122SOL    HW263297   4.620  13.037   4.440  0.9484  0.6336  0.0222
51123SOL     OW63298   3.334  10.044  11.696  0.3391  0.0883  0.2472
51123SOL    HW163299   3.359  10.047  11.788  1.1303 -2.5604  0.2148
51123SOL    HW263300   3.340  10.134  11.666  0.9446  0.8785  2.5575
51124SOL     OW63301  11.014   2.277   7.578 -0.6034 -0.9153  0.4743
51124SOL    HW163302  11.062   2.224   7.515 -0.5354 -1.0878  0.6697
51124SOL    HW263303  11.039   2.242   7.663  0.3181  0.1567  0.6601
51125SOL     OW63304  11.376   6.992   0.728  1.0485 -0.0638 -0.2516
51125SOL    HW163305  11.317   7.032   0.664  1.9032  0.0954 -0.9746
51125SOL    HW263306  11.450   7.053   0.733  1.3435 -0.4617  0.3086
51126SOL     OW63307  11.856  11.379   6.416 -0.4385 -0.9103 -0.2386
51126SOL    HW163308  11.834  11.472   6.418  1.9519 -0.2888 -0.1523
51126SOL    HW263309  11.870  11.356   6.508  2.4435 -0.3728 -0.4477
51127SOL     OW63310  10.600   5.150   4.593 -0.9899 -0.0124  0.1921
51127SOL    HW163311  10.578   5.235   4.554 -1.1722 -0.1420  0.0068
51127SOL    HW263312  10.581   5.161   4.686  1.3343  0.9469  0.6357
51128SOL     OW63313   8.967   6.492   5.729 -0.7177 -1.0167  0.3865
51128SOL    HW163314   8.904   6.518   5.663 -1.0519 -1.4313  0.5396
51128SOL    HW263315   9.006   6.574   5.760 -0.3894 -0.8389 -0.4826
51129SOL     OW63316   3.215  10.391  11.680  0.0463  0.0933 -0.1484
51129SOL    HW163317   3.184  10.310  11.641  3.4480 -0.6038 -1.7830
51129SOL    HW263318   3.216  10.454  11.607  0.9087  0.5183  0.2162
51130SOL     OW63319   3.825   8.295   0.493 -0.2992  0.6212  0.1725
51130SOL    HW163320   3.883   8.220   0.484 -0.7201  0.4160 -1.0610
51130SOL    HW263321   3.873   8.367   0.452  0.5326  1.3160  2.2215
51131SOL     OW63322   4.470  11.189   5.429  0.2618  0.1373 -0.2666
51131SOL    HW163323   4.497  11.114   5.481  0.7837  0.5970  0.1455
51131SOL    HW263324   4.397  11.227   5.476  0.8822  0.6899  0.2751
51132SOL     OW63325   0.262   5.041  13.274  0.2786  0.7759 -0.3101
51132SOL    HW163326   0.186   5.058  13.330 -0.3228 -0.2239 -0.7968
51132SOL    HW263327   0.226   5.036  13.186  0.6800 -1.1083 -0.4009
51133SOL     OW63328  11.342   6.779   8.621 -0.1920  0.2151  1.0184
51133SOL    HW163329  11.365   6.741   8.706 -0.1813 -0.8736  0.5371
51133SOL    HW263330  11.410   6.844   8.605 -0.9228  1.3888  2.4412
51134SOL     OW63331   3.723  10.100   3.999 -0.6291 -0.3210  0.0286
51134SOL    HW163332   3.751  10.008   3.993 -4.1689 -1.6482  1.2927
51134SOL    HW263333   3.651  10.107   3.937 -0.0557  1.8425 -0.4639
51135SOL     OW63334  13.239  11.669  10.071  0.3586  0.3061  0.3780
51135SOL    HW163335  13.268  11.585  10.036  0.7398  0.2366  0.8459
51135SOL    HW263336  13.164  11.647  10.126  0.2678  0.3075  0.2526
51136SOL     OW63337  12.434  11.010   3.335  0.0282  0.1681 -0.6571
51136SOL    HW163338  12.455  11.091   3.381 -0.4389  0.8388 -1.6111
51136SOL    HW263339  12.448  10.942   3.401  1.7872  0.8728 -0.2408
51137SOL     OW63340   4.535   6.178  12.015  0.5677  0.1678 -0.1448
51137SOL    HW163341   4.440   6.179  12.003  0.7202 -0.1443 -1.6707
51137SOL    HW263342   4.548   6.141  12.102 -0.6664 -1.7132 -0.6970
51138SOL     OW63343   0.781   8.850   5.451 -0.5147 -0.2217 -0.0142
51138SOL    HW163344   0.803   8.778   5.392  0.5957 -1.3673  1.7119
51138SOL    HW263345   0.800   8.816   5.539 -1.8646  1.4911  1.0168
51139SOL     OW63346   1.724   9.223   7.140 -0.1024 -0.4334 -0.3749
51139SOL    HW163347   1.722   9.319   7.147  0.9073 -0.1572 -2.7012
51139SOL    HW263348   1.811   9.198   7.171 -1.2892 -0.9614  2.7948
51140SOL     OW63349  10.429  11.601  12.256  0.6437 -0.0059 -0.0031
51140SOL    HW163350  10.436  11.506  12.268  0.5282 -0.0226 -0.0687
51140SOL    HW263351  10.502  11.637  12.306 -0.5278  0.0036  1.7846
51141SOL     OW63352   2.501  10.370  10.720 -0.2829  0.0249  0.1343
51141SOL    HW163353   2.542  10.447  10.759  1.0985 -0.6154  0.0087
51141SOL    HW263354   2.411  10.372  10.753 -0.7172  2.4269 -0.9482
51142SOL     OW63355   1.244   5.254   4.239 -0.1019  0.0482 -0.4007
51142SOL    HW163356   1.239   5.165   4.204  2.9777 -1.8100  3.0905
51142SOL    HW263357   1.312   5.297   4.186  0.5007 -0.7505 -0.2932
51143SOL     OW63358   8.443   2.677  10.799 -0.0136 -0.1388 -0.0231
51143SOL    HW163359   8.498   2.676  10.720 -0.1609  1.7691 -0.1968
51143SOL    HW263360   8.505   2.670  10.871  0.5387  2.1710 -0.2118
51144SOL     OW63361  10.241  11.606   0.804 -0.1364  0.2439  0.5343
51144SOL    HW163362  10.148  11.604   0.825 -0.5064 -0.4560 -1.0168
51144SOL    HW263363  10.243  11.615   0.709  1.3682 -1.2356  0.3876
51145SOL     OW63364   5.763  11.576   2.535 -0.0745 -0.9705  0.5045
51145SOL    HW163365   5.848  11.554   2.571  0.5936 -0.8583 -0.9381
51145SOL    HW263366   5.774  11.664   2.499 -1.5388  0.1254  2.5076
51146SOL     OW63367  10.782   1.271  11.044  0.4183 -0.4671 -0.4717
51146SOL    HW163368  10.703   1.287  10.993  0.3663  2.0330  0.2641
51146SOL    HW263369  10.819   1.358  11.060  3.6079 -1.5568 -1.1883
51147SOL     OW63370   5.530  10.834   5.847 -0.0093 -0.1915  0.0765
51147SOL    HW163371   5.503  10.925   5.849 -3.9732 -1.0582 -2.3799
51147SOL    HW263372   5.611  10.833   5.796 -0.9587  1.8143 -1.5699
51148SOL     OW63373  11.334  12.784   6.594  0.4412 -0.6219  0.1361
51148SOL    HW163374  11.296  12.764   6.508 -1.8893  0.1103  0.9297
51148SOL    HW263375  11.421  12.743   6.591  0.9843  0.4047 -3.0250
51149SOL     OW63376   7.677   5.040   9.873  0.1104 -0.1526  0.2948
51149SOL    HW163377   7.662   5.118   9.820 -0.0927 -1.9730 -2.4923
51149SOL    HW263378   7.771   5.027   9.871  0.0033 -0.8552 -0.6219
51150SOL     OW63379   7.296  11.359   6.375 -0.2608 -0.1851  0.3284
51150SOL    HW163380   7.273  11.426   6.310 -0.2238  1.3903  1.8587
51150SOL    HW263381   7.215  11.342   6.422  0.0872  0.0311  1.0268
51151SOL     OW63382   0.905  12.473   3.817  0.1159 -0.9235  0.1447
51151SOL    HW163383   0.974  12.435   3.762  0.5062 -0.0719  0.0364
51151SOL    HW263384   0.844  12.512   3.755 -0.3888 -1.5294  0.2499
51152SOL     OW63385   3.401  12.631   6.222  0.0420 -0.2814 -0.3919
51152SOL    HW163386   3.479  12.596   6.266  0.1640 -1.5508 -1.5630
51152SOL    HW263387   3.414  12.726   6.222  0.4666 -0.2896  1.4772
51153SOL     OW63388   1.322  10.148   8.697  0.3175 -0.0932 -0.3656
51153SOL    HW163389   1.228  10.133   8.709 -0.2836  4.1646  2.3922
51153SOL    HW263390   1.326  10.210   8.624  1.0782 -0.6357 -0.7957
51154SOL     OW63391   7.185   7.918   9.248 -0.2471 -0.8167 -0.0467
51154SOL    HW163392   7.166   7.918   9.155 -0.7523 -1.2524  0.0493
51154SOL    HW263393   7.107   7.878   9.289  0.1241 -0.9807  0.5195
51155SOL     OW63394  11.588   0.550  12.686 -0.2632  0.4386 -0.0482
51155SOL    HW163395  11.675   0.515  12.668 -0.0501  0.6793  0.4776
51155SOL    HW263396  11.559   0.503  12.764 -0.6690  0.2532 -0.3074
51156SOL     OW63397   7.290   9.687   0.478  0.3353 -0.2448 -0.3493
51156SOL    HW163398   7.201   9.708   0.452 -0.0785  0.1315  1.2445
51156SOL    HW263399   7.339   9.679   0.396 -0.8959  0.7185 -1.1986
51157SOL     OW63400   3.043   4.717  13.241  0.6044  1.0009  0.3938
51157SOL    HW163401   3.040   4.810  13.262  0.7597  1.2157 -0.5065
51157SOL    HW263402   2.953   4.696  13.214  0.1271  0.4755  2.2139
51158SOL     OW63403   9.852   3.147   3.445  0.6028 -0.3666  0.0812
51158SOL    HW163404   9.894   3.214   3.499  0.6184  0.9169 -1.4428
51158SOL    HW263405   9.920   3.120   3.383 -0.0852  0.0284 -0.8907
51159SOL     OW63406  10.755  13.109  11.727  0.1989  0.3911 -0.0168
51159SOL    HW163407  10.806  13.190  11.722  0.6928  0.0911  0.1058
51159SOL    HW263408  10.784  13.067  11.808  0.8575 -0.5004 -0.6958
51160SOL     OW63409   3.941   2.207   5.792 -0.1010 -0.6710 -0.2336
51160SOL    HW163410   3.933   2.286   5.845 -0.1017 -0.6019 -0.3348
51160SOL    HW263411   4.027   2.216   5.750  0.1497 -1.0012  0.2006
51161SOL     OW63412  11.767   9.917   3.221  0.3880  0.3328 -1.1244
51161SOL    HW163413  11.845   9.969   3.204  0.0704  0.4836 -2.1596
51161SOL    HW263414  11.726   9.959   3.297  1.9711 -0.5109  0.2812
51162SOL     OW63415   6.588  12.401  10.685  0.5238 -0.6757  0.3412
51162SOL    HW163416   6.593  12.313  10.722  0.5315 -0.2721  1.3350
51162SOL    HW263417   6.562  12.388  10.594 -0.2255 -1.6512  0.6878
51163SOL     OW63418  10.104   4.770  10.611  0.5876 -0.5104  0.3598
51163SOL    HW163419  10.128   4.751  10.520 -0.3548 -1.7469  0.3539
51163SOL    HW263420  10.057   4.853  10.606 -1.7724 -1.8241 -0.6860
51164SOL     OW63421   0.401   2.466   6.876 -0.4927  0.0099  0.1452
51164SOL    HW163422   0.428   2.491   6.788  0.4974 -0.3821  0.3274
51164SOL    HW263423   0.454   2.521   6.934 -0.9540  0.0824  0.5006
51165SOL     OW63424   0.766   0.276   4.486 -0.0214  0.2671  0.3197
51165SOL    HW163425   0.797   0.190   4.515 -0.7802 -0.0104  0.3149
51165SOL    HW263426   0.683   0.289   4.531 -0.8794  0.1262 -1.1647
51166SOL     OW63427   3.694   1.878   1.666 -0.2205 -0.2907 -0.1588
51166SOL    HW163428   3.643   1.958   1.673 -2.7405 -1.6728 -1.4422
51166SOL    HW263429   3.729   1.879   1.577  0.8793 -0.0378  0.2542
51167SOL     OW63430   9.146  11.712   2.223 -0.1135  0.1848  0.4198
51167SOL    HW163431   9.145  11.709   2.318 -0.7909 -0.9596  0.3928
51167SOL    HW263432   9.223  11.661   2.199  0.7861  1.5136  0.3537
51168SOL     OW63433   5.141   9.121  11.654 -0.0874  0.7290 -0.1078
51168SOL    HW163434   5.122   9.084  11.740  1.0025  1.7390  0.5920
51168SOL    HW263435   5.072   9.187  11.641 -2.0421 -1.4154 -1.3659
51169SOL     OW63436   0.573   8.375   2.247  0.6163 -0.4671 -0.1562
51169SOL    HW163437   0.489   8.396   2.288  0.9189 -1.0933  0.8334
51169SOL    HW263438   0.628   8.451   2.266  0.5652 -0.4873  0.0839
51170SOL     OW63439  11.999  11.875  12.250  0.3251 -0.2432  0.2600
51170SOL    HW163440  11.979  11.900  12.160 -0.5861 -3.1532 -0.4542
51170SOL    HW263441  12.084  11.831  12.245  0.6891  0.3492  0.9949
51171SOL     OW63442  12.518   2.224   6.461  0.3806  0.4437 -0.0709
51171SOL    HW163443  12.578   2.239   6.534 -0.5987  0.6156  0.7376
51171SOL    HW263444  12.431   2.235   6.500 -0.1751  3.3476 -1.8671
51172SOL     OW63445  13.137   4.392   1.670  0.4673 -0.2489 -0.0075
51172SOL    HW163446  13.064   4.450   1.646 -0.8482 -2.4582 -1.8007
51172SOL    HW263447  13.101   4.303   1.661  3.5218 -1.4833 -1.6280
51173SOL     OW63448   3.942   9.513  12.543  0.1051  0.2536  0.4758
51173SOL    HW163449   3.853   9.538  12.517 -0.3332  1.4525  2.8510
51173SOL    HW263450   3.969   9.451  12.476 -1.9708  0.9200 -1.1154
51174SOL     OW63451   7.906  11.991   1.721 -0.5491 -0.5319  0.0283
51174SOL    HW163452   7.951  12.059   1.671 -0.8912 -0.1226  0.2696
51174SOL    HW263453   7.970  11.961   1.785 -1.0185  0.9865  1.2673
51175SOL     OW63454   5.440  10.887  10.553  0.1066  0.6508 -0.0264
51175SOL    HW163455   5.500  10.957  10.527  2.5240 -1.2991 -0.0358
51175SOL    HW263456   5.492  10.829  10.609 -1.2270 -2.0881 -1.3954
51176SOL     OW63457   0.351  10.184   5.997  0.4563 -0.3632 -0.5901
51176SOL    HW163458   0.324  10.186   5.905  1.3307 -1.5336 -0.8961
51176SOL    HW263459   0.388  10.097   6.009  1.1655  0.0886  0.6424
51177SOL     OW63460   0.019   5.914  11.152  0.3084  0.1116  0.0822
51177SOL    HW163461  -0.062   5.953  11.184  1.2090  1.3376  0.9630
51177SOL    HW263462   0.013   5.921  11.057 -0.6604  0.0700  0.1279
51178SOL     OW63463   9.628   8.305   3.673 -0.0931  0.1676 -0.3624
51178SOL    HW163464   9.542   8.347   3.671  0.3296  1.0475 -0.6868
51178SOL    HW263465   9.610   8.213   3.693 -1.0348  0.5507  0.6835
51179SOL     OW63466   9.303   7.743   0.086 -0.0141  0.0593  0.2692
51179SOL    HW163467   9.379   7.736   0.145 -0.8493 -0.1452  1.3555
51179SOL    HW263468   9.259   7.659   0.094  0.8239 -0.6915 -2.0959
51180SOL     OW63469   3.454   7.054  12.275 -0.3263  0.2522 -0.3399
51180SOL    HW163470   3.464   7.092  12.362  1.0626  2.2472 -1.2979
51180SOL    HW263471   3.376   7.096  12.239 -0.9808 -0.6737 -0.0527
51181SOL     OW63472   7.304   0.032   4.549  0.1691 -0.5056  0.2383
51181SOL    HW163473   7.261   0.100   4.497  1.7386  0.8007  0.5782
51181SOL    HW263474   7.316   0.071   4.635 -1.2017 -2.1703  1.2409
51182SOL     OW63475   7.495  10.518   1.920 -0.7259  0.5874  0.1091
51182SOL    HW163476   7.456  10.604   1.931 -1.1663  0.3152  0.7480
51182SOL    HW263477   7.522  10.515   1.829  1.2332  2.2015  0.5612
51183SOL     OW63478  11.441   4.642  11.187 -0.4775  0.9047 -0.1849
51183SOL    HW163479  11.447   4.716  11.248 -0.5148  0.1733  0.7324
51183SOL    HW263480  11.354   4.652  11.147 -0.6948  1.0702  0.3190
51184SOL     OW63481   3.660   5.601  11.240 -0.2898  0.0311 -0.3445
51184SOL    HW163482   3.645   5.511  11.210  1.1701 -0.5899  0.6806
51184SOL    HW263483   3.755   5.612  11.239 -0.3833  1.1855  0.6183
51185SOL     OW63484   2.800   0.553  11.631 -0.4508  0.4561 -0.2752
51185SOL    HW163485   2.769   0.540  11.542 -2.5484 -0.1564  0.5042
51185SOL    HW263486   2.819   0.465  11.664  1.6366  0.7597 -0.5071
51186SOL     OW63487   9.804  10.174   8.616 -0.1745  0.2218  0.4191
51186SOL    HW163488   9.713  10.203   8.619 -0.1504  0.2413  1.3779
51186SOL    HW263489   9.855  10.252   8.637  0.0568  0.1733  0.0370
51187SOL     OW63490   8.961  10.226   2.355  0.3784  0.0351 -0.2675
51187SOL    HW163491   8.910  10.208   2.276 -0.5965 -1.5999  0.6706
51187SOL    HW263492   8.896  10.231   2.425  1.2858  0.7190  0.5638
51188SOL     OW63493  12.320   6.154  12.159  0.1407 -0.1423  0.4051
51188SOL    HW163494  12.339   6.083  12.098 -1.7043 -1.5944  1.4147
51188SOL    HW263495  12.406   6.185  12.187  1.0113 -0.7056 -1.4411
51189SOL     OW63496   2.811  10.824   6.683  0.1180  0.0843  0.3308
51189SOL    HW163497   2.761  10.855   6.758 -0.4557 -0.5117  0.2034
51189SOL    HW263498   2.898  10.806   6.718 -0.3650 -0.9692  1.0443
51190SOL     OW63499   1.891   0.658   7.819 -0.2916  0.1677  0.6685
51190SOL    HW163500   1.940   0.691   7.895 -1.4012  1.4990  0.8427
51190SOL    HW263501   1.851   0.576   7.850  0.0385  0.2030  1.2079
51191SOL     OW63502   8.117   1.340   5.648 -0.0373  0.5651  0.5833
51191SOL    HW163503   8.113   1.356   5.742  0.2869  0.5512  0.6000
51191SOL    HW263504   8.198   1.290   5.636 -1.4784 -1.9352  0.6622
51192SOL     OW63505  12.939  11.114   0.619  0.3166 -0.1933  0.0417
51192SOL    HW163506  12.985  11.173   0.679  0.5730 -0.2374 -0.1073
51192SOL    HW263507  12.987  11.123   0.536 -0.4823  0.4215 -0.3601
51193SOL     OW63508   4.897  11.011  11.845 -0.5380 -0.4824 -0.1176
51193SOL    HW163509   4.948  10.982  11.921  1.0482  0.7086 -0.6709
51193SOL    HW263510   4.913  10.944  11.779  0.4511 -0.0565 -0.3255
51194SOL     OW63511   6.181   1.589  12.631 -0.0082  0.4861 -0.1092
51194SOL    HW163512   6.273   1.573  12.651 -0.1564  0.3047  0.4460
51194SOL    HW263513   6.133   1.535  12.694 -0.5180  1.9107  0.7782
51195SOL     OW63514  11.656   9.039   6.008 -0.2596  0.0194  0.0069
51195SOL    HW163515  11.617   8.957   6.039  1.3893 -0.3209  1.3217
51195SOL    HW263516  11.751   9.025   6.016  0.0674  2.0770  0.3262
51196SOL     OW63517   7.172   8.379   8.535 -0.0721  0.4193 -0.4702
51196SOL    HW163518   7.154   8.435   8.459  1.5335  0.0211 -1.2012
51196SOL    HW263519   7.160   8.290   8.503 -0.4133  0.2804  0.0419
51197SOL     OW63520   1.286   6.177   9.352  0.0604  0.4219  0.2560
51197SOL    HW163521   1.349   6.217   9.292  1.2241 -0.5444  0.7952
51197SOL    HW263522   1.259   6.097   9.307 -0.9003  0.8741 -0.0162
51198SOL     OW63523   2.265   8.761   7.614  0.2490 -1.0064  0.3672
51198SOL    HW163524   2.260   8.847   7.574 -0.8843 -1.0812  0.3067
51198SOL    HW263525   2.344   8.764   7.669 -0.0415  0.2235  0.7377
51199SOL     OW63526   1.363   7.617   9.818  0.2034 -0.3728  0.0452
51199SOL    HW163527   1.306   7.676   9.867  0.5767 -0.5400  0.6781
51199SOL    HW263528   1.419   7.676   9.767  0.4239 -0.1815  0.5036
51200SOL     OW63529   5.185   6.689   9.408  0.4674  0.0239 -0.1687
51200SOL    HW163530   5.147   6.700   9.495 -0.2594 -0.5969 -0.3883
51200SOL    HW263531   5.256   6.626   9.420 -0.4553 -1.0599 -0.2167
51201SOL     OW63532   0.041   5.140  10.681 -0.7801  0.4467  0.1476
51201SOL    HW163533   0.025   5.167  10.591 -0.2647  2.1494  0.5196
51201SOL    HW263534  -0.045   5.118  10.716 -0.8339 -1.4934 -1.0988
51202SOL     OW63535   9.690  12.037   2.497  0.3971 -0.0651  0.1659
51202SOL    HW163536   9.728  12.059   2.412 -1.4331  0.0931 -0.6671
51202SOL    HW263537   9.681  12.122   2.541  1.5388 -0.1676  0.6420
51203SOL     OW63538   4.660   1.620  12.468  0.3555  0.3048  0.0276
51203SOL    HW163539   4.585   1.655  12.419  0.4020  3.1784  1.7658
51203SOL    HW263540   4.621   1.558  12.529 -0.0341 -1.2191 -1.6719
51204SOL     OW63541   5.978   2.148  10.453 -0.1687 -0.1050 -0.4656
51204SOL    HW163542   5.915   2.217  10.432  0.5780  1.0367  0.9149
51204SOL    HW263543   5.927   2.080  10.496 -1.1704 -1.1302 -3.0434
51205SOL     OW63544   0.430   8.106  11.197  0.4910  0.0020  0.2725
51205SOL    HW163545   0.350   8.159  11.195  0.4070 -0.1436 -0.2179
51205SOL    HW263546   0.447   8.093  11.291  0.9482  1.5483  0.4293
51206SOL     OW63547   9.130   0.417   0.283 -0.4496  0.1876 -0.0707
51206SOL    HW163548   9.224   0.426   0.270 -0.6913  0.0967 -2.0566
51206SOL    HW263549   9.118   0.430   0.378  1.5330  0.2197  0.2119
51207SOL     OW63550   0.984  13.249  12.244 -0.5775 -0.0952  0.1853
51207SOL    HW163551   1.010  13.244  12.336 -1.5632  0.6043  0.5198
51207SOL    HW263552   1.056  13.294  12.201  0.6204 -1.8026  0.2978
51208SOL     OW63553   8.088   9.955   7.209  0.2772 -0.5064 -0.5121
51208SOL    HW163554   8.016  10.018   7.199  0.6135  0.2918  1.5838
51208SOL    HW263555   8.160   9.993   7.159  0.9623  1.7070  1.9004
51209SOL     OW63556   5.194  10.851   6.568 -0.6598  0.5358  0.0442
51209SOL    HW163557   5.205  10.777   6.509  1.4955 -0.3987  1.5043
51209SOL    HW263558   5.252  10.833   6.642  0.9025  4.1832 -0.0304
51210SOL     OW63559   7.272  12.547   9.197  0.3164 -0.2755  0.0715
51210SOL    HW163560   7.354  12.538   9.149 -0.0364 -1.6371 -0.3084
51210SOL    HW263561   7.237  12.631   9.169  0.1046 -1.0317 -2.0972
51211SOL     OW63562   8.225   9.552   0.361  0.4482  0.7077 -0.0908
51211SOL    HW163563   8.164   9.536   0.434 -0.1474 -2.9215 -1.1886
51211SOL    HW263564   8.312   9.547   0.401  0.1105 -0.0922  0.5747
51212SOL     OW63565   6.618   7.599  10.732 -0.3130 -0.2140  0.2989
51212SOL    HW163566   6.615   7.694  10.746  0.5548 -0.3437  1.5774
51212SOL    HW263567   6.598   7.588  10.639 -0.8840  1.1826  0.2248
51213SOL     OW63568   6.137   9.118  12.672  0.1081  0.0839 -0.0737
51213SOL    HW163569   6.215   9.130  12.618  0.3494  0.4951  0.3508
51213SOL    HW263570   6.076   9.071  12.616  0.2298  0.7872 -0.8185
51214SOL     OW63571  10.864   6.811  12.019  0.1520 -0.0453 -0.5170
51214SOL    HW163572  10.890   6.890  11.971 -0.8029  1.2695  1.0190
51214SOL    HW263573  10.946   6.774  12.051  0.5071  1.5582  0.5394
51215SOL     OW63574   8.453   3.865   2.269  0.0191 -0.3091  0.1586
51215SOL    HW163575   8.546   3.856   2.247 -0.1328 -0.8358 -0.2987
51215SOL    HW263576   8.430   3.781   2.308 -0.0498  0.1422  1.1126
51216SOL     OW63577  11.273   1.952  10.101 -0.5878 -0.4113 -0.6427
51216SOL    HW163578  11.355   1.976  10.057 -0.6575  0.7097 -0.1840
51216SOL    HW263579  11.232   2.035  10.122 -1.6401 -0.9645 -0.4631
51217SOL     OW63580   1.663   8.677   6.853 -0.0765 -0.4472  0.3238
51217SOL    HW163581   1.747   8.668   6.808 -0.2392  0.2946 -0.1410
51217SOL    HW263582   1.598   8.669   6.783 -0.3299  0.8329  0.3850
51218SOL     OW63583  10.960  10.561   0.039 -0.3602  0.1229  0.3008
51218SOL    HW163584  11.032  10.536   0.097 -1.3508 -2.0280  0.6870
51218SOL    HW263585  10.925  10.641   0.079 -0.1120 -0.5199  1.8648
51219SOL     OW63586   6.812  11.753  12.687 -0.5886  0.0042  0.0372
51219SOL    HW163587   6.888  11.812  12.688 -0.3646 -0.2168 -1.7802
51219SOL    HW263588   6.760  11.783  12.613 -0.7930 -1.6846 -0.5275
51220SOL     OW63589   7.456  13.093   3.178  0.1678  0.0027  0.0437
51220SOL    HW163590   7.512  13.120   3.251  3.2125 -0.2207 -1.9739
51220SOL    HW263591   7.489  13.006   3.154 -0.2517  0.3517 -1.9769
51221SOL     OW63592  11.587   7.268  12.995  0.3602 -0.1607 -0.4869
51221SOL    HW163593  11.622   7.264  12.906 -1.0296 -0.6291 -1.0446
51221SOL    HW263594  11.610   7.356  13.026  0.5545  0.1321 -1.4361
51222SOL     OW63595   5.466   7.367   2.907  0.0247  0.0541 -0.3669
51222SOL    HW163596   5.510   7.314   2.975 -0.5294 -1.3449 -1.0671
51222SOL    HW263597   5.404   7.307   2.867 -1.2860  1.5199 -0.5935
51223SOL     OW63598   6.424   7.782   3.588 -0.0945 -0.1591 -0.2132
51223SOL    HW163599   6.413   7.698   3.542  1.5228 -0.0161 -0.9501
51223SOL    HW263600   6.471   7.837   3.525 -0.5591  1.0950  0.5045
51224SOL     OW63601   4.162   5.815   4.068 -0.4086 -0.1509 -0.0421
51224SOL    HW163602   4.184   5.856   4.152 -0.8058  0.1455 -0.0773
51224SOL    HW263603   4.115   5.735   4.093  0.3728 -0.6002  0.0267
51225SOL     OW63604  10.232   3.075   9.521 -0.3660 -0.0405 -0.4284
51225SOL    HW163605  10.254   3.167   9.539 -1.9589  0.4055 -0.5751
51225SOL    HW263606  10.307   3.041   9.473  1.7690  0.2130  2.4322
51226SOL     OW63607   1.908   1.951   6.556 -0.6037 -0.5406 -0.4999
51226SOL    HW163608   1.926   1.919   6.468 -0.1717 -2.3648  0.2185
51226SOL    HW263609   1.827   1.907   6.581 -1.8668  1.5338 -0.7117
51227SOL     OW63610  12.231   6.130   8.702  0.2796 -0.4390 -0.4975
51227SOL    HW163611  12.249   6.103   8.612 -1.6348 -0.9644 -0.7670
51227SOL    HW263612  12.311   6.108   8.750  1.1464 -0.6149 -1.9572
51228SOL     OW63613   9.743  11.113   2.515  0.2164  0.2755 -0.4114
51228SOL    HW163614   9.809  11.180   2.496  1.6172 -0.5867  1.1114
51228SOL    HW263615   9.660  11.160   2.517  0.9440  1.6363 -1.1336
51229SOL     OW63616   9.596   8.444   7.387 -0.1004  0.0495 -0.0455
51229SOL    HW163617   9.598   8.524   7.440  2.9480 -0.8434  1.4412
51229SOL    HW263618   9.558   8.378   7.445 -3.4036  0.4458 -1.5515
51230SOL     OW63619   0.609   0.639   4.070 -0.1084 -0.1486 -0.7899
51230SOL    HW163620   0.575   0.581   4.139  0.0604  1.6281  0.8906
51230SOL    HW263621   0.557   0.719   4.080  0.1248  0.2535 -2.5829
51231SOL     OW63622  12.725  10.085   0.376  0.3115  0.1779  0.4449
51231SOL    HW163623  12.691  10.027   0.308 -0.7941  0.2777  0.9062
51231SOL    HW263624  12.820  10.073   0.372  0.1138 -1.7403  0.5955
51232SOL     OW63625  13.080  10.161  11.139 -0.0336 -0.3830  0.5199
51232SOL    HW163626  13.030  10.139  11.060  1.6365 -0.7300 -0.4886
51232SOL    HW263627  13.050  10.248  11.163  0.8751  0.6430 -1.7587
51233SOL     OW63628   8.923   4.057   2.832 -0.1635  0.3043  0.3665
51233SOL    HW163629   8.882   4.134   2.872 -1.0393 -1.2361  2.6614
51233SOL    HW263630   8.930   3.994   2.903  0.9473 -1.5985 -1.3183
51234SOL     OW63631   9.306   8.670  12.530 -0.3727 -0.5390 -0.3209
51234SOL    HW163632   9.289   8.591  12.581  1.4959 -1.8710 -1.6197
51234SOL    HW263633   9.401   8.669  12.516 -0.5274  1.0392 -1.7820
51235SOL     OW63634  10.258  10.318   8.697  0.4096  0.4604  0.2195
51235SOL    HW163635  10.342  10.287   8.663 -0.2923 -0.8126 -0.4217
51235SOL    HW263636  10.280  10.362   8.779  1.8911  1.6284 -0.7534
51236SOL     OW63637  12.218   1.645  11.589  0.1313  0.0381  0.3443
51236SOL    HW163638  12.139   1.625  11.538  0.6011  1.9498 -1.2720
51236SOL    HW263639  12.210   1.738  11.611  2.5410  0.6910 -1.1271
51237SOL     OW63640   5.817  11.808   8.827  0.4827 -0.2148 -0.3288
51237SOL    HW163641   5.749  11.874   8.818 -2.5595 -2.0689  4.5574
51237SOL    HW263642   5.776  11.727   8.797 -0.5005 -1.6632  4.1020
51238SOL     OW63643   2.925   1.732   0.119 -0.2186  0.6114  0.4638
51238SOL    HW163644   2.888   1.776   0.195 -1.3598 -0.2660  0.4411
51238SOL    HW263645   2.856   1.672   0.089 -0.5235  2.1559 -2.3280
51239SOL     OW63646   1.698   6.451   6.597 -0.4646  0.1198  0.3850
51239SOL    HW163647   1.712   6.408   6.682 -1.6286  0.5069  0.7862
51239SOL    HW263648   1.605   6.471   6.595 -1.1803 -2.7883 -2.3858
51240SOL     OW63649   0.008   2.930   0.422 -0.5180  0.2712 -0.1781
51240SOL    HW163650  -0.052   3.004   0.420  0.0314  0.7175 -1.0703
51240SOL    HW263651   0.092   2.966   0.394  0.2769 -0.2549  1.4232
51241SOL     OW63652   0.919   5.667   0.985 -0.6002  0.5884  0.2064
51241SOL    HW163653   0.909   5.641   1.077  0.4611 -3.8427 -0.6861
51241SOL    HW263654   0.830   5.674   0.952 -1.0173 -0.7652  0.9562
51242SOL     OW63655   8.030   0.803   5.513  0.1201 -0.1822 -0.3998
51242SOL    HW163656   7.976   0.784   5.436  0.7411 -1.8475 -0.4640
51242SOL    HW263657   8.049   0.896   5.505 -0.7192 -0.0780 -1.6830
51243SOL     OW63658   8.266  10.070   0.043 -0.2340  0.0531 -0.0998
51243SOL    HW163659   8.308  10.000   0.093 -0.8035 -1.0647 -1.1407
51243SOL    HW263660   8.207  10.113   0.106  0.2633 -0.2685  0.5935
51244SOL     OW63661   5.821   8.263   0.353 -0.1555 -0.1984 -0.5124
51244SOL    HW163662   5.851   8.341   0.399  1.5664 -1.7856  1.2119
51244SOL    HW263663   5.854   8.274   0.264  1.9160  0.1213  0.2441
51245SOL     OW63664  10.559   9.691   7.714  0.0823  0.3773 -0.0515
51245SOL    HW163665  10.636   9.744   7.694  1.1193 -0.3613  1.6665
51245SOL    HW263666  10.548   9.701   7.809 -0.3935 -1.5248  0.1327
51246SOL     OW63667   6.741   1.749   0.044  0.5357  0.0036 -0.4834
51246SOL    HW163668   6.726   1.780   0.133  0.3905  0.2371 -0.5866
51246SOL    HW263669   6.744   1.829  -0.009  0.8992 -0.1176 -0.6476
51247SOL     OW63670   2.516   3.171   5.542  0.2929 -0.4750 -0.4841
51247SOL    HW163671   2.601   3.170   5.587  0.4387 -1.3111 -0.7597
51247SOL    HW263672   2.474   3.090   5.569  0.7988 -1.4998 -2.5936
51248SOL     OW63673   7.199  10.037   0.851 -0.0238  0.0099  0.2865
51248SOL    HW163674   7.181  10.129   0.870  3.1355  1.2585 -1.8747
51248SOL    HW263675   7.155  10.021   0.768 -1.4219 -0.8519  1.1399
51249SOL     OW63676  11.999   5.545   6.086  0.1935 -0.7349 -0.0435
51249SOL    HW163677  11.923   5.586   6.129 -0.0292 -0.4756 -0.6764
51249SOL    HW263678  11.964   5.465   6.047  0.9248 -2.4441  2.5061
51250SOL     OW63679   8.375   3.212  12.764  0.2038 -0.3432 -0.2525
51250SOL    HW163680   8.370   3.121  12.732 -0.8142 -0.4116  0.0828
51250SOL    HW263681   8.384   3.264  12.684  0.8905 -0.7329 -0.4448
51251SOL     OW63682   3.761   3.792   1.970  0.0287 -0.0974 -0.2766
51251SOL    HW163683   3.795   3.834   1.891 -0.7399 -1.5775 -1.4311
51251SOL    HW263684   3.710   3.861   2.014  3.2989  1.8238  0.8671
51252SOL     OW63685  10.612  10.330   9.985  0.1502  0.3766  0.5796
51252SOL    HW163686  10.529  10.378   9.989  0.3889  0.8303  0.1803
51252SOL    HW263687  10.679  10.398   9.972  0.9537  0.3793  3.8056
51253SOL     OW63688   4.203   6.398   5.628 -0.3181 -0.4789  0.4105
51253SOL    HW163689   4.231   6.371   5.716 -0.5919 -0.4786  0.4964
51253SOL    HW263690   4.285   6.414   5.581 -0.1731 -0.4009  0.6891
51254SOL     OW63691   4.278  12.060   6.530  0.0498  0.1456 -0.0162
51254SOL    HW163692   4.227  12.064   6.610 -0.8233 -0.6779 -0.5168
51254SOL    HW263693   4.331  12.140   6.531 -0.4162  0.4483  1.0595
51255SOL     OW63694   4.470   7.185   8.811 -0.2704 -0.3889 -0.0197
51255SOL    HW163695   4.560   7.152   8.814 -0.4309 -0.8502 -0.2666
51255SOL    HW263696   4.426   7.142   8.883  0.1086  1.0763  1.1467
51256SOL     OW63697   1.277   8.844  10.015 -0.1208 -0.4790  0.5418
51256SOL    HW163698   1.352   8.902  10.008  1.4374 -2.1134  2.4722
51256SOL    HW263699   1.302   8.766   9.964 -1.6658 -0.0579 -0.9995
51257SOL     OW63700   4.458  11.926   7.268  0.4164  0.2259 -0.1328
51257SOL    HW163701   4.441  12.020   7.258 -0.3330  0.0377 -0.7435
51257SOL    HW263702   4.532  11.909   7.210  1.2510  0.6233  0.7808
51258SOL     OW63703  11.519   9.717   7.799 -0.1507 -0.1042 -0.4551
51258SOL    HW163704  11.602   9.669   7.802  2.1768  3.5043 -0.9563
51258SOL    HW263705  11.491   9.710   7.707  1.5263  1.4218 -1.1419
51259SOL     OW63706  11.801   7.045   4.203 -0.0751 -0.4095 -0.3945
51259SOL    HW163707  11.811   6.958   4.243  1.4873 -0.5783 -1.0570
51259SOL    HW263708  11.854   7.102   4.259 -0.4402 -0.0313 -0.4316
51260SOL     OW63709   9.551   9.644  10.766  0.1835  0.0650  0.0226
51260SOL    HW163710   9.588   9.562  10.798  1.8003  0.6618 -0.2543
51260SOL    HW263711   9.554   9.637  10.671 -0.0585  0.2915 -0.0039
51261SOL     OW63712   8.346  10.374   3.282  0.0285  0.9341  0.3512
51261SOL    HW163713   8.283  10.308   3.254  0.3791  1.0306 -0.7054
51261SOL    HW263714   8.419  10.364   3.221  0.9304  0.9972  1.3931
51262SOL     OW63715   1.644   9.938   2.217  0.1286  0.2113  0.1981
51262SOL    HW163716   1.603  10.023   2.209  0.3340  0.2193 -0.9487
51262SOL    HW263717   1.690   9.941   2.301  0.2848  1.2912  0.0863
51263SOL     OW63718  10.948  10.788   1.808 -0.3968 -0.1503  0.2737
51263SOL    HW163719  10.928  10.710   1.859 -1.0546  0.6680  1.2955
51263SOL    HW263720  11.042  10.781   1.789  0.0657 -0.0425  2.3676
51264SOL     OW63721   5.727   1.353   0.734  0.9760  0.3443  0.1321
51264SOL    HW163722   5.682   1.423   0.779  2.7112  3.0883 -2.0534
51264SOL    HW263723   5.791   1.320   0.797 -0.6854 -0.2192  1.5887
51265SOL     OW63724  11.296   2.652  10.779  0.0853  0.2427  0.1372
51265SOL    HW163725  11.260   2.616  10.697 -0.4030  0.1488  0.3904
51265SOL    HW263726  11.234   2.719  10.805 -0.1683 -0.2506  0.8334
51266SOL     OW63727  12.640   7.148  13.171 -0.2636 -0.0975 -0.5810
51266SOL    HW163728  12.611   7.057  13.168 -0.9023 -0.0859  2.4335
51266SOL    HW263729  12.733   7.144  13.147  0.2585 -1.8795  1.4624
51267SOL     OW63730  11.528   0.089  10.334  0.0363 -0.6250 -0.0128
51267SOL    HW163731  11.515   0.059  10.244  0.0152 -0.4406 -0.0712
51267SOL    HW263732  11.570   0.015  10.378 -0.9498 -1.1326  0.1091
51268SOL     OW63733   2.989  10.258   0.857  0.4279  0.1472 -0.3397
51268SOL    HW163734   3.076  10.227   0.835  1.2159  0.5023  1.9636
51268SOL    HW263735   3.004  10.334   0.914 -1.4003  0.7418 -0.5741
51269SOL     OW63736   4.445  10.806   3.384  0.2015  0.6056  0.7936
51269SOL    HW163737   4.393  10.854   3.448  1.5061  4.1984 -0.5671
51269SOL    HW263738   4.514  10.764   3.436 -1.5793 -0.7782  2.1522
51270SOL     OW63739   6.376   7.145   6.175 -0.2630 -0.0448  0.0652
51270SOL    HW163740   6.371   7.161   6.081  1.6241 -0.5999 -0.1662
51270SOL    HW263741   6.465   7.114   6.190 -1.5576 -3.6070  1.4780
51271SOL     OW63742   4.563  10.330   5.214  0.4646 -0.1447  0.1506
51271SOL    HW163743   4.493  10.303   5.155  1.0028  0.1527 -0.6376
51271SOL    HW263744   4.520  10.388   5.277 -0.3309 -1.3231  0.7322
51272SOL     OW63745   7.561  10.588   8.697 -0.0503  0.6565  0.4280
51272SOL    HW163746   7.594  10.675   8.673 -1.7038  0.8239 -1.4649
51272SOL    HW263747   7.506  10.604   8.774 -1.4706  1.5905 -0.7177
51273SOL     OW63748   7.430   3.810   2.758  0.9557 -0.1442  0.4636
51273SOL    HW163749   7.374   3.826   2.682  0.3123  0.8613  1.1313
51273SOL    HW263750   7.433   3.894   2.804  1.3027 -0.7536  1.5828
51274SOL     OW63751  10.869   8.872   1.819 -0.4398  0.2007  0.0086
51274SOL    HW163752  10.799   8.826   1.772 -0.2671  1.8497 -2.0363
51274SOL    HW263753  10.826   8.907   1.897 -0.6454 -2.9693  1.4633
51275SOL     OW63754   8.147   5.711   1.954 -0.0678  0.5863 -1.0969
51275SOL    HW163755   8.224   5.766   1.937  1.6628 -1.1205  0.6270
51275SOL    HW263756   8.073   5.770   1.944  1.5342  2.6473 -1.6392
51276SOL     OW63757   6.915   9.256   3.026  0.2197 -0.3952 -0.0582
51276SOL    HW163758   6.873   9.172   3.042 -1.1603  0.5326  1.4420
51276SOL    HW263759   6.846   9.321   3.038  1.7939  1.1220  1.5415
51277SOL     OW63760  10.687   6.098   9.551  0.2131  0.5948 -0.0706
51277SOL    HW163761  10.616   6.141   9.598  0.0984 -0.6156  0.9102
51277SOL    HW263762  10.756   6.165   9.545 -0.9785  1.7986 -1.0693
51278SOL     OW63763   0.098   9.019  12.466  0.6100  0.7755  0.3355
51278SOL    HW163764   0.180   8.979  12.496  0.1358 -0.2010  0.3956
51278SOL    HW263765   0.080   9.089  12.528  1.0872  0.5931  0.6786
51279SOL     OW63766   1.633   2.429  10.444 -0.2153 -0.1942 -1.0477
51279SOL    HW163767   1.618   2.522  10.462  0.7129 -0.3132  0.4834
51279SOL    HW263768   1.546   2.396  10.418 -1.2802  0.4546  1.4383
51280SOL     OW63769   1.207   7.194   2.901 -0.4046  0.0277 -0.3160
51280SOL    HW163770   1.186   7.265   2.841 -0.8188 -0.4260 -0.7158
51280SOL    HW263771   1.123   7.171   2.941 -0.2231 -0.0397  0.0245
51281SOL     OW63772   7.094   1.154   3.282  0.1207  0.4359 -0.4505
51281SOL    HW163773   7.150   1.206   3.223 -0.2201  1.7132  0.3140
51281SOL    HW263774   7.006   1.163   3.245 -0.2356  1.9254  0.6450
51282SOL     OW63775   8.552   0.234  13.129 -0.1842 -0.3725  0.1025
51282SOL    HW163776   8.493   0.161  13.109  0.5177 -1.0075  0.3117
51282SOL    HW263777   8.620   0.230  13.062  0.0113 -0.0873  0.2799
51283SOL     OW63778  12.258   0.752   4.898 -0.4599 -0.3829  0.0170
51283SOL    HW163779  12.301   0.666   4.904  1.1474  0.4221  0.6298
51283SOL    HW263780  12.220   0.765   4.985  0.4721  0.0908  0.3671
51284SOL     OW63781   1.937   5.341   6.765 -0.1377 -0.2932 -0.0411
51284SOL    HW163782   1.844   5.350   6.787 -0.3524  1.0784 -1.3800
51284SOL    HW263783   1.982   5.399   6.827 -0.1872 -0.7337  0.4147
51285SOL     OW63784   5.154   8.317   1.685 -0.1533  0.0788 -0.1412
51285SOL    HW163785   5.245   8.292   1.671  0.5699  1.9611  0.8364
51285SOL    HW263786   5.106   8.234   1.689  1.6431 -0.9827  0.2472
51286SOL     OW63787   2.228   4.206   1.849 -0.5720  0.1486 -0.2432
51286SOL    HW163788   2.214   4.283   1.795  1.6878 -0.6928 -2.1980
51286SOL    HW263789   2.144   4.160   1.848 -2.1127  2.6387  1.3002
51287SOL     OW63790  13.113   9.829   2.464  0.4234 -0.0481  0.3774
51287SOL    HW163791  13.153   9.902   2.417  0.7322 -0.4144  0.0605
51287SOL    HW263792  13.180   9.761   2.464 -1.1556 -1.8419 -2.8617
51288SOL     OW63793   0.907  12.025   0.433 -0.2280 -0.1299  0.0670
51288SOL    HW163794   0.825  12.064   0.402 -0.5969 -1.0263 -0.1345
51288SOL    HW263795   0.894  11.931   0.421  0.5085 -0.3393  0.8276
51289SOL     OW63796   3.364  10.173   8.063  0.0660  0.2223  0.1832
51289SOL    HW163797   3.341  10.139   7.977  2.2604  2.7236 -1.5644
51289SOL    HW263798   3.406  10.100   8.108 -0.1835 -0.8640 -1.2847
51290SOL     OW63799   0.038   9.080   8.699  0.0212  0.0313  0.2294
51290SOL    HW163800   0.117   9.106   8.651 -1.4575 -0.5961 -2.7982
51290SOL    HW263801  -0.018   9.158   8.696 -0.6479 -0.4678 -0.3332
51291SOL     OW63802  12.100   4.150   6.242 -0.0620  0.5659 -0.1959
51291SOL    HW163803  12.124   4.210   6.172 -0.3037  0.7258 -0.1430
51291SOL    HW263804  12.154   4.178   6.316  0.1267  0.4546 -0.2919
51292SOL     OW63805   4.637  10.294   4.878  0.6742 -0.4943 -0.2495
51292SOL    HW163806   4.725  10.310   4.845 -0.1005  0.2419 -2.1358
51292SOL    HW263807   4.579  10.322   4.806 -1.1359  0.3076  1.4274
51293SOL     OW63808   5.224   6.712  12.221 -0.0860 -0.1285  0.1483
51293SOL    HW163809   5.313   6.677  12.226 -0.6692 -1.5920  1.3568
51293SOL    HW263810   5.173   6.641  12.182 -0.6384  0.9235 -1.0985
51294SOL     OW63811   3.409   0.892   2.152  0.0754 -0.4661 -0.3722
51294SOL    HW163812   3.432   0.816   2.205 -0.1923  0.4573  1.1025
51294SOL    HW263813   3.486   0.906   2.097  0.0171 -1.9630 -0.8902
51295SOL     OW63814  11.934  11.132  11.784 -0.7859  0.0335 -0.9180
51295SOL    HW163815  11.840  11.126  11.800 -0.5980 -2.2940 -0.3048
51295SOL    HW263816  11.974  11.108  11.868  0.3412 -0.3317 -1.5363
51296SOL     OW63817   0.470   3.513  11.103  0.5659 -0.1496 -0.3118
51296SOL    HW163818   0.539   3.483  11.163 -0.4108 -1.6806  0.1128
51296SOL    HW263819   0.490   3.469  11.020  1.6938  1.6630 -1.0495
51297SOL     OW63820   4.183   0.760   7.539  0.5627 -0.3177  0.4682
51297SOL    HW163821   4.117   0.763   7.608  0.1798  0.8309  0.0831
51297SOL    HW263822   4.263   0.791   7.580  0.5130 -0.3313  0.5755
51298SOL     OW63823   9.070  12.682   1.437 -0.8506 -0.3136  0.3561
51298SOL    HW163824   9.121  12.605   1.414  0.8949  0.9584 -0.1817
51298SOL    HW263825   8.979  12.650   1.438 -0.1952 -2.3486  0.1380
51299SOL     OW63826   2.035   2.692   9.172 -0.1147  0.1103  0.0486
51299SOL    HW163827   1.946   2.707   9.140 -0.2935  0.7728  0.8146
51299SOL    HW263828   2.032   2.605   9.212  0.2135 -0.8966 -2.0139
51300SOL     OW63829   9.079  12.422   8.445 -0.9022 -0.1794  0.2417
51300SOL    HW163830   9.000  12.455   8.402 -0.1114 -0.0298 -1.1575
51300SOL    HW263831   9.084  12.330   8.419 -1.0846 -0.4241  1.0573
51301SOL     OW63832   9.329   1.665  10.543  0.1122  0.0703 -0.2925
51301SOL    HW163833   9.312   1.574  10.565 -3.7462  0.5496 -0.6283
51301SOL    HW263834   9.380   1.699  10.617  0.5748 -2.0144  0.4140
51302SOL     OW63835   7.768  12.459   7.477  0.8121  0.0438  0.0763
51302SOL    HW163836   7.791  12.521   7.408  1.4087 -0.9651 -0.6442
51302SOL    HW263837   7.780  12.373   7.438 -1.3607 -0.5709  0.6095
51303SOL     OW63838   4.193   3.243   9.257  0.0910  0.0661  0.0953
51303SOL    HW163839   4.105   3.281   9.256 -0.2372 -0.5631 -2.4674
51303SOL    HW263840   4.181   3.157   9.297 -0.8094 -0.6100 -1.5171
51304SOL     OW63841   5.291   6.371  11.544  0.7886  0.0353 -0.2234
51304SOL    HW163842   5.237   6.447  11.565 -0.6859 -0.7119 -1.1681
51304SOL    HW263843   5.250   6.299  11.593  0.9526 -0.5348 -0.9112
51305SOL     OW63844   1.790   3.557  10.165 -0.3784 -0.1111 -0.6470
51305SOL    HW163845   1.859   3.621  10.146  1.5488 -1.6025  0.9173
51305SOL    HW263846   1.719   3.609  10.202  2.2824  0.9957  3.5530
51306SOL     OW63847   0.063   9.628   6.612 -0.4184 -0.1393 -0.6149
51306SOL    HW163848   0.119   9.557   6.581 -0.1129 -0.6323  1.0038
51306SOL    HW263849   0.124   9.692   6.649 -0.7799  0.4141 -0.9599
51307SOL     OW63850   3.553  11.620   4.882 -0.0004  0.0423 -0.0156
51307SOL    HW163851   3.469  11.621   4.836 -0.5117  0.0411  0.8943
51307SOL    HW263852   3.538  11.564   4.958  0.9759 -0.3751 -0.1098
51308SOL     OW63853  12.056   7.305   4.861 -0.1740 -0.3021 -0.0174
51308SOL    HW163854  11.997   7.259   4.922 -0.5327 -0.5604 -0.5535
51308SOL    HW263855  12.048   7.397   4.887 -1.7816 -0.1640 -0.8561
51309SOL     OW63856   6.619   2.319   5.477 -0.8808 -0.0974  0.2663
51309SOL    HW163857   6.661   2.326   5.563  0.0704  1.4533 -0.2767
51309SOL    HW263858   6.566   2.239   5.482 -0.3367 -0.3863  2.0594
51310SOL     OW63859   4.248   8.241  10.275 -0.0447  0.8121  0.1923
51310SOL    HW163860   4.157   8.268  10.287 -0.0331  0.8682  0.1591
51310SOL    HW263861   4.280   8.297  10.203 -0.2261  0.2348 -0.3490
51311SOL     OW63862   8.822   0.595  13.287 -0.0932 -0.3177 -0.4948
51311SOL    HW163863   8.886   0.621  13.353  0.7911  0.9915 -1.8110
51311SOL    HW263864   8.808   0.674  13.235 -3.9440 -0.0745  0.6071
51312SOL     OW63865   1.543   2.942   7.747  0.5898  0.1295  0.1097
51312SOL    HW163866   1.530   2.863   7.695 -0.1768  0.8439 -0.8271
51312SOL    HW263867   1.460   2.954   7.793  0.4114  0.8094 -0.3722
51313SOL     OW63868  10.827  10.893   4.053 -0.3525  0.0977  0.0497
51313SOL    HW163869  10.907  10.945   4.040  0.5993 -1.3558 -0.1279
51313SOL    HW263870  10.757  10.949   4.020  0.5551  1.4945  0.3903
51314SOL     OW63871   3.527   1.126  11.673 -0.0126  0.0150 -0.1483
51314SOL    HW163872   3.487   1.188  11.735  1.8045  0.2055  0.9030
51314SOL    HW263873   3.485   1.043  11.693 -1.0443  0.5030 -0.2059
51315SOL     OW63874  11.669   5.312  11.004 -0.0661 -0.2399 -0.3553
51315SOL    HW163875  11.633   5.390  10.961  0.3339  0.2580  0.1889
51315SOL    HW263876  11.592   5.257  11.021 -0.3237 -0.0680 -0.9513
51316SOL     OW63877   4.756   5.996   6.472  0.6545  0.3204 -0.1837
51316SOL    HW163878   4.717   6.001   6.385  1.1348  1.1248 -0.3614
51316SOL    HW263879   4.810   6.075   6.479 -0.1019  0.7400  1.2040
51317SOL     OW63880   7.602   2.783   7.359  0.0478  0.0678 -0.3883
51317SOL    HW163881   7.606   2.746   7.447 -1.7226  0.2217 -0.2032
51317SOL    HW263882   7.615   2.708   7.300  0.9912 -0.0728 -0.0164
51318SOL     OW63883   0.182  12.287  13.279  0.1117 -0.1147 -0.0203
51318SOL    HW163884   0.231  12.287  13.197 -0.5396  2.5122 -0.4937
51318SOL    HW263885   0.212  12.208  13.325  1.5519 -0.8842 -2.1299
51319SOL     OW63886  10.406   4.565   1.989 -0.1327  0.3797  0.4903
51319SOL    HW163887  10.375   4.654   2.002  1.1649  0.7983  0.7689
51319SOL    HW263888  10.331   4.520   1.948 -0.3026  1.9670 -1.0533
51320SOL     OW63889   3.111   6.601   4.545 -0.6864  0.3635  0.1242
51320SOL    HW163890   3.091   6.517   4.503 -1.9043 -0.2830  1.8966
51320SOL    HW263891   3.191   6.631   4.501  0.8032 -2.5672  0.5932
51321SOL     OW63892   8.308   5.678  10.637 -0.1345 -0.0092  0.4161
51321SOL    HW163893   8.269   5.755  10.679 -0.2196 -0.3301  0.9282
51321SOL    HW263894   8.365   5.715  10.569 -2.1095  0.4646 -1.0836
51322SOL     OW63895  10.833   0.272   7.725  0.2993 -0.2734 -0.0999
51322SOL    HW163896  10.893   0.266   7.651  0.0170  1.3497 -0.5059
51322SOL    HW263897  10.747   0.249   7.688 -0.0805  1.8611 -0.6549
51323SOL     OW63898  12.780   7.846   2.493  0.0378 -0.3737 -0.5682
51323SOL    HW163899  12.799   7.940   2.494  1.6504 -0.6705 -0.1628
51323SOL    HW263900  12.859   7.806   2.457 -0.2703 -1.6461  0.1201
51324SOL     OW63901   0.097  13.279  11.657  0.2261 -0.6358 -0.2565
51324SOL    HW163902   0.126  13.194  11.624  0.6139 -0.8007  0.5003
51324SOL    HW263903   0.002  13.275  11.653  0.1344 -1.9954  1.9113
51325SOL     OW63904   4.728   4.145   2.420  0.1356 -0.5036 -0.8310
51325SOL    HW163905   4.683   4.179   2.497  1.2462  0.7569 -0.6827
51325SOL    HW263906   4.791   4.082   2.454  0.6329  0.0607 -0.6849
51326SOL     OW63907   1.449   9.903   5.200  0.2129 -0.0611 -0.1197
51326SOL    HW163908   1.482   9.909   5.110  0.9726  1.5981  0.2216
51326SOL    HW263909   1.488   9.823   5.234 -0.7854 -1.1990 -1.5043
51327SOL     OW63910   4.495  10.421   2.960  0.0649 -0.0954 -0.3687
51327SOL    HW163911   4.469  10.486   2.895 -1.6428 -0.9316 -0.5680
51327SOL    HW263912   4.505  10.340   2.911  3.0017  0.0887 -0.2675
51328SOL     OW63913   6.292   0.573   7.399 -0.6306 -0.2685 -0.5428
51328SOL    HW163914   6.290   0.478   7.387 -0.0211 -0.3246 -0.2130
51328SOL    HW263915   6.211   0.592   7.447 -0.4169 -0.7173  0.0178
51329SOL     OW63916   3.096  10.668   8.140 -0.3590 -0.0305  1.0306
51329SOL    HW163917   3.117  10.760   8.129  2.6371 -0.7416 -0.2763
51329SOL    HW263918   3.097  10.653   8.234  0.5271  1.0072  1.1951
51330SOL     OW63919  10.935  10.127   6.277  0.9146 -0.2859  0.3395
51330SOL    HW163920  10.867  10.102   6.339 -0.8460  2.5677 -0.2550
51330SOL    HW263921  10.929  10.222   6.272  2.9346 -0.1833 -2.0520
51331SOL     OW63922   3.642  11.358   1.670  0.0251  0.0161  0.2381
51331SOL    HW163923   3.651  11.451   1.694  0.8109 -0.0868  0.3762
51331SOL    HW263924   3.690  11.311   1.739 -0.8132 -0.5330  0.4586
51332SOL     OW63925   9.106   7.254  10.841 -0.0614  0.2933 -0.3943
51332SOL    HW163926   9.166   7.246  10.916 -0.3802 -0.2417 -0.1895
51332SOL    HW263927   9.067   7.167  10.833 -1.2243  0.7844 -0.1736
51333SOL     OW63928   8.169   1.122   0.401  0.2584  0.5614 -0.3873
51333SOL    HW163929   8.084   1.080   0.387 -0.2295  1.3750  0.0102
51333SOL    HW263930   8.189   1.163   0.317  0.5622 -0.1399 -0.6663
51334SOL     OW63931  11.866   1.917  10.742  0.2514 -0.2944  0.3883
51334SOL    HW163932  11.953   1.885  10.716  0.9452  1.0103  1.0039
51334SOL    HW263933  11.805   1.852  10.706  1.3778 -0.4623 -1.3508
51335SOL     OW63934  12.243  12.725   7.176 -0.1412 -0.1834  0.5714
51335SOL    HW163935  12.216  12.634   7.182 -0.2725 -0.1628  0.2982
51335SOL    HW263936  12.323  12.730   7.229 -0.3839 -0.3558  0.9546
51336SOL     OW63937   5.213  12.688   5.645 -0.3737  0.3178 -0.7783
51336SOL    HW163938   5.271  12.625   5.602  2.7049  1.9505  0.6526
51336SOL    HW263939   5.213  12.661   5.737  0.5515  2.0147 -0.2478
51337SOL     OW63940  10.855   4.800   9.995  0.9662 -0.1428 -0.6035
51337SOL    HW163941  10.854   4.861  10.069  0.5738 -0.1002 -0.6416
51337SOL    HW263942  10.859   4.856   9.917 -0.8512 -0.0940 -0.6984
51338SOL     OW63943   0.807   0.566   2.056  0.0283  0.5316 -0.4878
51338SOL    HW163944   0.842   0.638   2.003 -0.0785  0.5245 -0.5675
51338SOL    HW263945   0.756   0.609   2.124 -1.0199  0.4963 -1.2317
51339SOL     OW63946   1.052   3.915   2.336  0.2875  0.3864 -0.4676
51339SOL    HW163947   0.965   3.892   2.304 -0.6391  1.5367  1.0549
51339SOL    HW263948   1.113   3.864   2.282 -1.4033 -2.6912  0.2995
51340SOL     OW63949  13.222   5.276  13.089 -0.4716 -0.1534  0.7315
51340SOL    HW163950  13.241   5.309  13.002  0.2477 -0.3538  0.8118
51340SOL    HW263951  13.271   5.333  13.148  1.9580 -2.1448  0.8003
51341SOL     OW63952   3.041   8.398   5.866 -0.3504  0.3787 -0.0382
51341SOL    HW163953   3.083   8.311   5.871  1.2500  1.1059 -0.2708
51341SOL    HW263954   3.025   8.411   5.773 -1.0803  0.1313  0.0447
51342SOL     OW63955   4.797  11.805   5.014  0.3235 -0.4408 -0.1933
51342SOL    HW163956   4.849  11.807   5.094 -0.2518 -1.1464  0.2145
51342SOL    HW263957   4.799  11.895   4.982  0.8185 -0.2132  0.4458
51343SOL     OW63958   8.104   9.812   8.002 -0.0505 -0.2916  0.2717
51343SOL    HW163959   8.029   9.754   8.005  0.1253 -0.6019 -0.9398
51343SOL    HW263960   8.152   9.786   7.924  1.3731 -0.1583  1.0632
51344SOL     OW63961   7.664   3.241   1.919  0.6085  0.2281 -0.1200
51344SOL    HW163962   7.569   3.251   1.929  0.4350  0.1903 -1.5683
51344SOL    HW263963   7.688   3.173   1.982 -0.1732  0.8324  0.8734
51345SOL     OW63964   9.311   9.186   3.949 -0.2446 -0.2967 -0.3857
51345SOL    HW163965   9.373   9.144   3.889 -0.0741 -1.3996  0.5415
51345SOL    HW263966   9.358   9.194   4.032 -1.2238 -0.8806  0.2517
51346SOL     OW63967   0.484   5.640  12.319  0.0540  0.3412  0.0598
51346SOL    HW163968   0.537   5.714  12.347 -1.3687  1.3484  0.2310
51346SOL    HW263969   0.398   5.655  12.359 -0.6836 -0.6462 -1.0590
51347SOL     OW63970   0.819   8.184  13.058  0.1754 -0.2760 -0.0893
51347SOL    HW163971   0.820   8.216  13.148 -0.8372 -0.3792 -0.0339
51347SOL    HW263972   0.729   8.154  13.044  0.3053 -0.2020 -1.1575
51348SOL     OW63973   0.276  12.237   3.698 -0.3491 -0.1100  0.2271
51348SOL    HW163974   0.215  12.291   3.748  0.4709  0.8040  0.2883
51348SOL    HW263975   0.330  12.301   3.650 -0.9220 -0.9519 -1.6115
51349SOL     OW63976   3.519   7.513   1.565 -0.5298  0.0590  0.2777
51349SOL    HW163977   3.487   7.455   1.495 -1.4650  0.5530  0.2741
51349SOL    HW263978   3.582   7.460   1.613  0.2255 -0.2512 -1.0088
51350SOL     OW63979   4.595   8.484  12.521  0.1747  0.2381  0.1190
51350SOL    HW163980   4.538   8.558  12.543  1.7923  1.3571  0.6615
51350SOL    HW263981   4.557   8.411  12.569  0.8867  1.6189  3.0048
51351SOL     OW63982   3.291   5.453   5.928 -0.0423  0.2372  0.6744
51351SOL    HW163983   3.217   5.482   5.875 -1.2615 -1.5579  1.2874
51351SOL    HW263984   3.262   5.462   6.019 -0.3597 -2.3196  0.9107
51352SOL     OW63985  13.192   9.209  12.870  0.0550 -0.1043 -0.1027
51352SOL    HW163986  13.166   9.280  12.929 -0.2753 -0.9344  0.7725
51352SOL    HW263987  13.121   9.203  12.807 -1.0442 -1.1416  1.1830
51353SOL     OW63988  10.211  13.139   2.460  0.0092 -0.1050  0.3641
51353SOL    HW163989  10.142  13.080   2.490  1.4970 -2.0335  0.2069
51353SOL    HW263990  10.178  13.174   2.377  0.0570 -2.7717 -0.8914
51354SOL     OW63991  12.116   6.595   4.186  0.4988 -0.2152 -0.4263
51354SOL    HW163992  12.208   6.614   4.202 -0.1647  3.1087  0.2153
51354SOL    HW263993  12.091   6.655   4.115 -1.1492 -1.0606 -0.6105
51355SOL     OW63994   0.543   9.698   1.738  0.1623 -0.1851  0.1281
51355SOL    HW163995   0.496   9.743   1.668 -0.3911  0.4513  0.8866
51355SOL    HW263996   0.622   9.663   1.696 -2.1175 -3.5611 -1.8240
51356SOL     OW63997   5.752  11.201  12.870  0.0244  0.4042 -0.8479
51356SOL    HW163998   5.691  11.129  12.884 -0.7091  1.0671 -0.5243
51356SOL    HW263999   5.838  11.165  12.894 -0.2971 -0.4169 -0.9030
51357SOL     OW64000   3.467   8.008   1.211  0.2261 -0.1568  1.0134
51357SOL    HW164001   3.407   7.990   1.283 -1.1104 -1.1858 -0.3029
51357SOL    HW264002   3.433   8.088   1.171  0.0970 -0.3873  0.6568
51358SOL     OW64003   2.719   9.783  11.328 -0.0269 -0.2492  0.8314
51358SOL    HW164004   2.805   9.746  11.308  0.4809  0.0921  2.3064
51358SOL    HW264005   2.723   9.873  11.297 -1.0757 -1.1413 -2.2585
51359SOL     OW64006   1.008   5.607   9.273  0.1473  0.4218  0.1881
51359SOL    HW164007   0.965   5.654   9.345  0.6427  2.2973 -0.7039
51359SOL    HW264008   1.099   5.635   9.276  1.6379 -3.6795  2.2048
51360SOL     OW64009   7.248   6.775   2.285 -0.3654  0.1919  0.4087
51360SOL    HW164010   7.158   6.795   2.258 -0.5027  0.6874  1.2211
51360SOL    HW264011   7.251   6.799   2.378  0.8582  1.0153  0.1695
51361SOL     OW64012   1.744   3.084  12.632 -0.2034 -0.0286  1.0469
51361SOL    HW164013   1.661   3.045  12.603  0.1047  0.7143 -1.0040
51361SOL    HW264014   1.723   3.177  12.646  0.0184 -0.0794  1.7583
51362SOL     OW64015  11.423   0.987   5.989 -0.4842 -0.1382  0.0907
51362SOL    HW164016  11.441   0.990   6.083 -1.8367  1.6782  0.3475
51362SOL    HW264017  11.494   1.036   5.949  0.4788 -1.5053  0.0500
51363SOL     OW64018   5.679  10.997   1.911 -0.5119  0.2992  0.6505
51363SOL    HW164019   5.672  11.046   1.993  0.2106 -0.0586  0.9329
51363SOL    HW264020   5.731  10.920   1.934  0.0462  0.4060 -0.2414
51364SOL     OW64021  10.245   0.054   5.219  0.1765  0.5019 -0.1277
51364SOL    HW164022  10.267  -0.017   5.279 -1.3685 -0.3504 -0.5196
51364SOL    HW264023  10.224   0.011   5.136  0.2813  1.5090 -0.7057
51365SOL     OW64024   6.735  11.481   4.732 -0.0883  0.3888 -0.1211
51365SOL    HW164025   6.645  11.467   4.761  0.6890 -0.8242  1.9343
51365SOL    HW264026   6.749  11.576   4.741 -1.1951  0.6046 -0.6095
51366SOL     OW64027  10.859   1.113   5.478 -0.5583  0.0659  0.0606
51366SOL    HW164028  10.838   1.204   5.499 -0.5925  0.1819 -0.4756
51366SOL    HW264029  10.796   1.062   5.529 -1.5842  0.3855 -0.8566
51367SOL     OW64030   1.668   6.433  12.211 -0.4339 -0.2006  0.3962
51367SOL    HW164031   1.755   6.466  12.229 -1.0802  0.8362  1.7782
51367SOL    HW264032   1.609   6.493  12.256 -1.9244 -0.3722 -1.2030
51368SOL     OW64033  10.249   7.307   6.261 -0.3142 -0.2949  0.1975
51368SOL    HW164034  10.273   7.358   6.184  0.4674 -2.3302 -0.9876
51368SOL    HW264035  10.157   7.331   6.278 -0.6570 -0.1463 -1.6559
51369SOL     OW64036   1.485   1.873   2.770 -0.4434  0.1902  0.2805
51369SOL    HW164037   1.482   1.778   2.784 -0.0540  0.4018  1.9968
51369SOL    HW264038   1.574   1.898   2.795  0.1818  0.7486 -2.2306
51370SOL     OW64039   5.231  10.841  11.755  0.0373 -0.0846 -0.8629
51370SOL    HW164040   5.275  10.835  11.840 -1.8084 -0.9933  0.0989
51370SOL    HW264041   5.215  10.750  11.730 -0.2440  0.2002 -1.7341
51371SOL     OW64042  13.065   7.228   3.442 -0.0150  0.0626  0.0022
51371SOL    HW164043  13.099   7.313   3.470 -1.1829  0.3610  0.6130
51371SOL    HW264044  13.081   7.170   3.517 -1.6673  0.4524  0.7023
51372SOL     OW64045   9.995   9.707   3.909 -0.0608 -0.9468  0.1734
51372SOL    HW164046   9.900   9.704   3.920 -0.1251 -0.2799 -0.1190
51372SOL    HW264047  10.019   9.620   3.878 -0.7006 -0.8431 -0.6429
51373SOL     OW64048   6.865   0.227   1.383  0.0647  0.1350 -0.1022
51373SOL    HW164049   6.923   0.221   1.307  1.6885 -1.0684  1.1699
51373SOL    HW264050   6.923   0.246   1.456 -1.2386 -0.4613  1.1234
51374SOL     OW64051   9.910  10.466   3.860 -0.5691 -0.0287 -0.5096
51374SOL    HW164052   9.842  10.447   3.925  1.4166 -2.2321  1.0948
51374SOL    HW264053   9.881  10.420   3.781 -1.3963 -0.1137 -0.1715
51375SOL     OW64054  11.155   6.116   8.068  0.1320  0.5982  0.4373
51375SOL    HW164055  11.113   6.180   8.010  0.6231  1.5574  1.1211
51375SOL    HW264056  11.094   6.107   8.141 -0.4217 -0.5092 -0.1314
51376SOL     OW64057   3.761   3.278   7.473 -0.0595 -0.0020  0.2310
51376SOL    HW164058   3.807   3.226   7.539 -0.4044 -0.1194  0.3809
51376SOL    HW264059   3.796   3.367   7.484  0.9946 -0.3126 -0.4467
51377SOL     OW64060   4.144   1.163   8.285  0.2477  0.1999  0.0268
51377SOL    HW164061   4.163   1.222   8.358 -0.8241  0.8143 -0.1694
51377SOL    HW264062   4.196   1.198   8.212 -0.1709  0.7535 -0.0144
51378SOL     OW64063   3.590  11.721   9.874 -0.4306  0.4403  0.3840
51378SOL    HW164064   3.644  11.672   9.812 -1.9607  0.8139 -1.3466
51378SOL    HW264065   3.548  11.654   9.927  0.8322  0.1083  0.9992
51379SOL     OW64066  12.525   6.115  10.757  0.2111  0.4396  0.0784
51379SOL    HW164067  12.436   6.108  10.723  0.1239  0.3456  0.3200
51379SOL    HW264068  12.581   6.100  10.681  0.0315  1.7459 -0.3395
51380SOL     OW64069   4.895   8.626   2.006 -0.4410 -0.4316  0.3561
51380SOL    HW164070   4.940   8.649   2.087 -0.4882 -0.7666  0.4773
51380SOL    HW264071   4.964   8.623   1.940  0.0483 -2.8175  0.8942
51381SOL     OW64072  11.428   0.498   0.177  0.4648  0.6603 -0.3665
51381SOL    HW164073  11.335   0.516   0.170  0.3448  1.1248  1.6725
51381SOL    HW264074  11.434   0.410   0.215  0.7323  1.4758  1.6455
51382SOL     OW64075   9.561  11.571   3.939  0.2505  0.3391 -0.5609
51382SOL    HW164076   9.608  11.502   3.893  1.0356  1.5067 -1.5753
51382SOL    HW264077   9.489  11.595   3.880  0.4798  0.9429 -0.6042
51383SOL     OW64078   7.827   9.401   6.814 -0.0548  0.2897 -0.0648
51383SOL    HW164079   7.921   9.415   6.826  0.2845  2.0734 -3.4141
51383SOL    HW264080   7.786   9.478   6.853  0.2846  1.4965 -1.9542
51384SOL     OW64081   9.821  12.340   6.087  0.5931  0.1123  0.0306
51384SOL    HW164082   9.784  12.310   6.170 -0.7302 -0.7185 -0.8175
51384SOL    HW264083   9.866  12.422   6.109 -1.9787  1.3542  1.1223
51385SOL     OW64084   0.638   0.559   6.286  0.6982  0.3005 -0.0557
51385SOL    HW164085   0.675   0.586   6.202 -0.1880  0.7361 -0.3230
51385SOL    HW264086   0.599   0.640   6.321 -0.4273 -0.2392 -0.0270
51386SOL     OW64087   4.194   1.901   0.197 -0.3894  0.0279 -0.2003
51386SOL    HW164088   4.131   1.970   0.176 -0.2427  0.6340  1.2040
51386SOL    HW264089   4.264   1.947   0.244 -0.7455 -1.2087  1.6113
51387SOL     OW64090   1.510  10.817   6.147  0.2040 -0.3484 -0.5315
51387SOL    HW164091   1.525  10.896   6.096  0.2020 -0.1445 -0.2213
51387SOL    HW264092   1.564  10.750   6.105 -0.9886 -0.5858 -1.7499
51388SOL     OW64093   5.714   7.053   9.260 -0.0393  0.4686 -0.4571
51388SOL    HW164094   5.789   6.998   9.281 -0.1501  0.2857 -0.5373
51388SOL    HW264095   5.653   7.039   9.333  0.4340  1.4136  0.1387
51389SOL     OW64096   5.392   9.385   3.217 -0.2287  0.1470  0.3383
51389SOL    HW164097   5.466   9.406   3.160  0.2365  0.9657  1.2106
51389SOL    HW264098   5.347   9.313   3.173  1.8609 -1.2943  0.4631
51390SOL     OW64099   5.841   8.607   8.505 -0.0146 -0.0543 -0.0599
51390SOL    HW164100   5.751   8.640   8.511  0.0728  0.1005  0.4573
51390SOL    HW264101   5.854   8.557   8.585  0.6503  0.6787  0.3145
51391SOL     OW64102  12.384   7.072   5.131  0.1803  0.1817  0.1947
51391SOL    HW164103  12.407   7.161   5.156  0.3239  0.6933 -1.6058
51391SOL    HW264104  12.356   7.079   5.039 -1.4200 -1.3618  0.5016
51392SOL     OW64105  12.083   2.688   4.977  0.0550 -0.2689  0.1251
51392SOL    HW164106  12.093   2.752   5.047  0.7468  0.2180 -0.4104
51392SOL    HW264107  12.020   2.624   5.012 -0.1629  0.3566  0.8995
51393SOL     OW64108   5.024   6.857   4.757 -0.2776  0.0394 -0.4112
51393SOL    HW164109   4.970   6.833   4.682  0.3095 -1.2019 -0.4593
51393SOL    HW264110   5.105   6.808   4.745  0.5416  1.2058  0.1028
51394SOL     OW64111   9.238   7.940   2.143 -0.1728  0.6603  0.5460
51394SOL    HW164112   9.329   7.965   2.127 -0.6748  2.1383 -0.2081
51394SOL    HW264113   9.203   7.920   2.056  0.2871 -3.3775  1.0872
51395SOL     OW64114   6.638   9.218  11.837 -0.1438  0.4931  0.0749
51395SOL    HW164115   6.679   9.274  11.771  1.2273 -1.9286 -1.2531
51395SOL    HW264116   6.561   9.181  11.793 -0.0169 -0.0629  0.3176
51396SOL     OW64117   4.488  11.833   3.635  0.2720 -0.1963  0.4046
51396SOL    HW164118   4.541  11.825   3.556  1.3891  0.4998  1.0535
51396SOL    HW264119   4.473  11.743   3.663 -0.1692 -0.4495 -0.6137
51397SOL     OW64120   1.395  12.974  11.089 -0.3175 -0.3513  0.0291
51397SOL    HW164121   1.476  12.992  11.041 -0.8511 -1.5737 -1.4288
51397SOL    HW264122   1.378  13.054  11.138  1.3718  0.2029 -0.2024
51398SOL     OW64123   7.215   2.048   4.909 -0.2112 -0.4273  0.2174
51398SOL    HW164124   7.221   2.143   4.921 -0.5968 -0.3533 -0.1585
51398SOL    HW264125   7.129   2.034   4.870 -0.2420 -0.9561  0.4717
51399SOL     OW64126  11.718   3.010   1.977  0.0557 -0.2342  0.1456
51399SOL    HW164127  11.636   2.997   1.930 -0.1179 -0.8591  0.6071
51399SOL    HW264128  11.741   2.924   2.011 -0.0093  0.2532  1.5002
51400SOL     OW64129   1.421   6.537  12.727  0.4355  0.1540  0.0269
51400SOL    HW164130   1.440   6.560  12.818  2.0106  1.8563 -0.6630
51400SOL    HW264131   1.441   6.443  12.721  0.7480  0.1203  1.3270
51401SOL     OW64132   5.231   7.966   1.388 -0.2758  0.2464 -0.0533
51401SOL    HW164133   5.183   7.893   1.349 -1.9462  1.5251 -0.5184
51401SOL    HW264134   5.302   7.983   1.326 -1.4888  0.7256 -1.3762
51402SOL     OW64135  11.874   1.075   6.871  0.0568  0.1052 -0.1015
51402SOL    HW164136  11.902   1.162   6.843 -0.6809  0.4235  0.1451
51402SOL    HW264137  11.805   1.091   6.935  1.8434 -0.5830  2.1590
51403SOL     OW64138   2.868   7.294  11.937 -0.7023  0.4313 -0.5562
51403SOL    HW164139   2.851   7.260  11.849 -1.1315 -1.5369  0.2227
51403SOL    HW264140   2.782   7.304  11.976 -0.5123  1.1899 -0.3212
51404SOL     OW64141   4.099   2.121  12.955 -0.0641  0.2546  0.4424
51404SOL    HW164142   4.012   2.137  12.993  1.6513 -0.1289  5.2165
51404SOL    HW264143   4.150   2.198  12.979  0.8582  0.9899 -3.2183
51405SOL     OW64144   0.861  11.792  13.113  0.0945  0.2287 -0.3925
51405SOL    HW164145   0.902  11.756  13.192 -1.8526 -0.2704  0.4298
51405SOL    HW264146   0.935  11.822  13.060  1.6205 -1.9202  0.3690
51406SOL     OW64147  11.675   3.396   5.836 -0.4271 -0.0797  0.3154
51406SOL    HW164148  11.654   3.472   5.890  0.6051  1.3802 -1.2024
51406SOL    HW264149  11.758   3.420   5.793 -0.8998 -1.3821 -1.4370
51407SOL     OW64150  11.355   3.081   6.709  0.0818 -0.7132  0.0266
51407SOL    HW164151  11.431   3.118   6.663  0.1874  0.3502  0.9912
51407SOL    HW264152  11.331   3.004   6.658  0.5118  0.1133 -1.5043
51408SOL     OW64153  11.812   2.767   6.852  0.0755  0.3662 -0.3651
51408SOL    HW164154  11.890   2.819   6.832 -0.1114  0.4357 -0.9034
51408SOL    HW264155  11.831   2.680   6.817 -0.1526  0.4224 -0.6252
51409SOL     OW64156   8.128   6.979  12.210  0.2323 -0.7926  0.0138
51409SOL    HW164157   8.133   6.894  12.253  0.6916 -2.0227 -2.2800
51409SOL    HW264158   8.218   7.011  12.209  0.3828 -1.2150 -0.8164
51410SOL     OW64159   5.818   1.873   7.815  0.3249 -0.7746 -0.3199
51410SOL    HW164160   5.873   1.871   7.737  0.9431  1.0601  0.0290
51410SOL    HW264161   5.834   1.959   7.854 -2.1210 -0.5108  0.2894
51411SOL     OW64162   4.388  11.963   3.875 -0.0986 -0.3909 -0.1514
51411SOL    HW164163   4.294  11.944   3.878 -0.2337  0.1319 -0.7857
51411SOL    HW264164   4.406  11.977   3.782  0.2948  1.0487  0.1193
51412SOL     OW64165   5.337  12.539   8.654 -0.1559 -0.0426 -0.1336
51412SOL    HW164166   5.378  12.561   8.570 -1.1617  1.6105 -0.2363
51412SOL    HW264167   5.407  12.496   8.704  0.8209  0.0667 -1.3539
51413SOL     OW64168  10.429   1.754   0.021 -1.0089  0.1580  0.1188
51413SOL    HW164169  10.350   1.750   0.074 -0.8783 -2.7762  0.2223
51413SOL    HW264170  10.430   1.671  -0.027  0.9997  0.9739 -1.3687
51414SOL     OW64171   6.165   4.889   2.123 -0.4503  0.3500 -0.8166
51414SOL    HW164172   6.231   4.821   2.137 -0.8664 -0.3056 -1.9641
51414SOL    HW264173   6.198   4.964   2.174  0.2002 -0.5710  0.1662
51415SOL     OW64174   6.221   3.742   8.748 -0.1142  0.2907 -0.0007
51415SOL    HW164175   6.273   3.743   8.668  0.4158  1.5352  0.3434
51415SOL    HW264176   6.230   3.830   8.785 -0.1296 -0.3213  1.5725
51416SOL     OW64177  12.199   1.448  12.489  0.2613 -0.1325 -0.2650
51416SOL    HW164178  12.211   1.371  12.433 -0.3080 -1.3841  1.2556
51416SOL    HW264179  12.284   1.460  12.531  0.3596  0.1068 -0.5254
51417SOL     OW64180   0.060  12.949   1.207 -0.8265 -0.2332 -0.2892
51417SOL    HW164181   0.128  12.930   1.142 -0.4410 -1.3908  0.4249
51417SOL    HW264182   0.081  12.892   1.281 -3.2193 -1.4681 -0.4755
51418SOL     OW64183   7.881  11.164   6.054 -0.0688 -0.2914 -0.7958
51418SOL    HW164184   7.828  11.093   6.018 -1.0000 -0.1026  0.1417
51418SOL    HW264185   7.966  11.155   6.011 -0.4570 -1.4118 -1.3675
51419SOL     OW64186   2.961  11.205   5.481 -0.2301  0.0554  0.2200
51419SOL    HW164187   2.949  11.288   5.528  0.4380  0.0338  0.4348
51419SOL    HW264188   3.042  11.218   5.430 -0.0518 -0.5089  0.3525
51420SOL     OW64189   8.067  13.272   9.540 -0.4710  0.2574  0.0876
51420SOL    HW164190   8.017  13.353   9.548 -0.4631  0.2123  0.6451
51420SOL    HW264191   8.005  13.210   9.500 -1.3288 -0.1631  1.9291
51421SOL     OW64192   8.956  12.767   5.538 -0.6090  0.1058 -0.0458
51421SOL    HW164193   8.940  12.673   5.547  2.2585 -0.3461  1.3675
51421SOL    HW264194   8.987  12.795   5.624  2.2053  1.5052 -1.3733
51422SOL     OW64195   4.857   7.651   8.623  0.1449  0.4901 -0.5665
51422SOL    HW164196   4.781   7.593   8.622 -0.2674  1.0282 -2.2893
51422SOL    HW264197   4.924   7.603   8.575  0.2745  0.8266 -0.7224
51423SOL     OW64198   4.204   2.042   6.904 -0.3943  0.0685 -0.4190
51423SOL    HW164199   4.245   2.089   6.832  0.7344 -1.4898 -0.8427
51423SOL    HW264200   4.152   1.973   6.862  0.0488 -0.6816  0.2298
51424SOL     OW64201   6.444   0.325   4.387  0.6566 -0.0298  0.8188
51424SOL    HW164202   6.535   0.308   4.362  0.0857 -1.0032 -0.7383
51424SOL    HW264203   6.398   0.245   4.362 -0.9820  1.2135 -0.3320
51425SOL     OW64204   8.057  11.707   2.544  0.1861 -0.3879  0.5033
51425SOL    HW164205   7.966  11.680   2.559 -0.1255  0.3271 -0.0501
51425SOL    HW264206   8.052  11.801   2.531  0.7241 -0.6162 -1.6502
51426SOL     OW64207  10.509  10.548   9.071  0.4131  0.4891  0.2955
51426SOL    HW164208  10.510  10.599   9.153 -1.9247  1.3359 -0.1398
51426SOL    HW264209  10.584  10.489   9.080  0.5579  0.9102  2.8107
51427SOL     OW64210  10.461  13.040   9.335  0.1809 -0.3593  0.0380
51427SOL    HW164211  10.487  13.022   9.425  2.3319 -1.1613 -0.6751
51427SOL    HW264212  10.500  13.126   9.316  2.1811 -1.4122 -0.9328
51428SOL     OW64213   0.664   3.108  13.258 -0.8022 -0.1011  0.3050
51428SOL    HW164214   0.594   3.045  13.244  1.6220 -2.7896 -0.8331
51428SOL    HW264215   0.730   3.058  13.307  1.9219  0.9561 -2.0461
51429SOL     OW64216  10.361  10.007   5.579 -0.4321 -0.3010  0.0176
51429SOL    HW164217  10.446  10.050   5.574 -0.6406  0.0693 -0.4704
51429SOL    HW264218  10.298  10.075   5.556 -0.8972 -0.4769  0.7434
51430SOL     OW64219  12.437   7.771   5.711 -0.1851  0.3208  0.3451
51430SOL    HW164220  12.398   7.689   5.680 -0.2462  0.1917  0.7565
51430SOL    HW264221  12.476   7.810   5.633 -0.5702  0.1309  0.0524
51431SOL     OW64222   7.312   6.747  12.495 -0.2939  0.0806 -0.2953
51431SOL    HW164223   7.400   6.785  12.490 -0.2246 -0.0865 -0.3482
51431SOL    HW264224   7.261   6.811  12.545  0.4789 -0.9553  1.9614
51432SOL     OW64225   8.779   6.342  10.576  0.2722  0.2031  0.3957
51432SOL    HW164226   8.733   6.259  10.592  0.6218  0.3188  2.1217
51432SOL    HW264227   8.783   6.348  10.480 -1.7551 -0.6609  0.1946
51433SOL     OW64228   7.704   9.181  12.258  0.3181  0.0348  0.5927
51433SOL    HW164229   7.742   9.227  12.333  2.1565 -0.1177 -0.1901
51433SOL    HW264230   7.610   9.188  12.271  0.5794  0.3233  2.7191
51434SOL     OW64231   9.382   8.024   1.793  0.0766  0.6713  0.3788
51434SOL    HW164232   9.311   8.087   1.781 -0.0227  0.6868  0.9938
51434SOL    HW264233   9.408   7.999   1.705 -1.5959 -0.3283  0.1196
51435SOL     OW64234   7.509   8.641   6.756 -0.4298  0.3135 -0.7011
51435SOL    HW164235   7.439   8.596   6.710 -1.3080  1.0079 -0.0771
51435SOL    HW264236   7.490   8.734   6.744 -0.7727  0.5242  1.1212
51436SOL     OW64237   4.951  10.249   2.470  0.1363  0.8110  0.0290
51436SOL    HW164238   4.937  10.214   2.382 -0.6406  1.0207  0.0590
51436SOL    HW264239   5.045  10.266   2.475  0.4837 -0.8849 -0.1253
51437SOL     OW64240  10.715  11.067   9.660  0.3449  0.4416  0.7283
51437SOL    HW164241  10.703  10.972   9.667  0.7647  0.1249 -1.7655
51437SOL    HW264242  10.770  11.090   9.734 -0.1906 -1.1539  1.6873
51438SOL     OW64243   1.772   3.415   4.421 -0.7889  0.2934  0.4434
51438SOL    HW164244   1.779   3.331   4.377 -1.4360 -1.4271  3.3301
51438SOL    HW264245   1.862   3.440   4.441 -0.6770 -1.2429  2.0802
51439SOL     OW64246   6.424   9.847   9.905 -0.0911  0.4108  0.1298
51439SOL    HW164247   6.430   9.859   9.810 -0.3473 -0.3971  0.0034
51439SOL    HW264248   6.378   9.925   9.936  1.2270  1.3616 -0.2186
51440SOL     OW64249  11.836   4.509   6.951 -0.5856 -0.4773  0.3642
51440SOL    HW164250  11.900   4.530   6.882  1.3518  0.1805  2.2557
51440SOL    HW264251  11.757   4.555   6.924  0.0164 -0.4415 -1.5306
51441SOL     OW64252   1.420   8.599  10.043  0.2737 -0.3133 -0.2927
51441SOL    HW164253   1.436   8.611  10.136  1.0996  0.8966 -0.5724
51441SOL    HW264254   1.338   8.550  10.039  0.3994 -0.6650  1.0646
51442SOL     OW64255  11.333   0.058   8.142 -0.6096  0.3655 -0.0222
51442SOL    HW164256  11.387   0.091   8.213  1.5405  0.4901 -1.6114
51442SOL    HW264257  11.322  -0.035   8.161  0.8960  0.1546 -0.0589
51443SOL     OW64258  12.143   9.676   9.374 -0.3578  0.5330 -0.0292
51443SOL    HW164259  12.152   9.590   9.415  0.1883  0.7568  0.3298
51443SOL    HW264260  12.117   9.657   9.284 -0.5920  0.0038  0.1469
51444SOL     OW64261   3.404  10.749   3.553  0.2152 -0.7142 -0.2189
51444SOL    HW164262   3.385  10.719   3.642 -1.1730  1.0317  0.1263
51444SOL    HW264263   3.323  10.731   3.505 -0.5579  1.9537 -0.0790
51445SOL     OW64264   8.514  12.094  10.897 -0.0471 -0.0791  0.1454
51445SOL    HW164265   8.457  12.024  10.865  0.1193 -0.2253  0.1668
51445SOL    HW264266   8.567  12.053  10.966  0.1446  0.0313  0.0657
51446SOL     OW64267   4.955   5.940   0.059 -0.5559  0.2990 -0.2192
51446SOL    HW164268   4.981   5.983   0.140 -0.3760  0.7631 -0.5230
51446SOL    HW264269   4.952   6.010  -0.006 -2.0177  0.1654 -0.3224
51447SOL     OW64270   2.233   2.782   4.559 -0.2635 -0.3286 -0.2313
51447SOL    HW164271   2.211   2.866   4.520 -0.6939 -0.2506  0.1711
51447SOL    HW264272   2.300   2.802   4.625 -0.3364 -0.3065 -0.1638
51448SOL     OW64273   7.633   3.430   1.036 -0.4614  0.4820  0.1391
51448SOL    HW164274   7.703   3.492   1.017 -0.9465  0.9326 -0.2068
51448SOL    HW264275   7.657   3.351   0.989 -0.4327  0.7998 -0.3865
51449SOL     OW64276   6.116   5.307   1.382  0.0139 -0.6827  0.4723
51449SOL    HW164277   6.097   5.268   1.297 -0.3679  0.4191  0.0366
51449SOL    HW264278   6.049   5.272   1.441 -2.1332  1.4543 -0.5530
51450SOL     OW64279   1.471   1.811   5.208  0.0290 -0.1784  0.3264
51450SOL    HW164280   1.509   1.888   5.250 -2.7038  1.6958 -0.3364
51450SOL    HW264281   1.460   1.748   5.279 -3.3745  2.4657  2.5125
51451SOL     OW64282   3.830   2.219  12.791  0.4699 -0.3723  0.5122
51451SOL    HW164283   3.805   2.159  12.721  1.7818  0.4996 -0.7706
51451SOL    HW264284   3.751   2.226  12.846 -0.9447 -0.3410 -1.4156
51452SOL     OW64285  13.176   1.561   6.836  0.5654  0.4316 -0.0666
51452SOL    HW164286  13.250   1.502   6.849  2.2451  2.3685 -0.2142
51452SOL    HW264287  13.172   1.574   6.741  0.2971  0.6135 -0.0317
51453SOL     OW64288   6.428   8.751  11.802  0.3741 -0.7252  0.3700
51453SOL    HW164289   6.428   8.798  11.885 -0.2360  0.6031 -0.3414
51453SOL    HW264290   6.346   8.703  11.800 -0.6666  0.9779 -0.3476
51454SOL     OW64291   7.967   2.974   3.781  0.2617 -0.6422 -0.2190
51454SOL    HW164292   8.021   2.896   3.795  1.9910  0.6710  0.7333
51454SOL    HW264293   8.013   3.044   3.827 -1.0316  1.0521 -1.3724
51455SOL     OW64294   8.795   0.108   4.641 -0.0313 -0.4246  0.2150
51455SOL    HW164295   8.772   0.199   4.622 -0.5996 -0.3935  0.9672
51455SOL    HW264296   8.712   0.060   4.633  0.3218 -0.9456 -0.5022
51456SOL     OW64297   3.610  11.380  11.300 -0.2811 -0.5650  0.1814
51456SOL    HW164298   3.517  11.369  11.319 -0.9990  2.0701 -1.2265
51456SOL    HW264299   3.643  11.434  11.372  0.5587 -2.5750  1.3849
51457SOL     OW64300   3.975   1.538   3.589 -0.3223 -0.0811  0.0686
51457SOL    HW164301   4.065   1.514   3.609 -0.2457 -1.9712 -2.1004
51457SOL    HW264302   3.957   1.614   3.644  2.0377 -0.6242  1.7312
51458SOL     OW64303   5.786  12.652   1.856 -0.1407 -0.3389 -0.0555
51458SOL    HW164304   5.700  12.630   1.892  0.7099 -2.6272  0.7770
51458SOL    HW264305   5.771  12.729   1.803 -2.1076  1.2983  2.6112
51459SOL     OW64306   4.270  12.990   2.557 -0.2686 -0.2480 -0.2837
51459SOL    HW164307   4.219  13.065   2.525  0.6537  0.8485  0.6974
51459SOL    HW264308   4.336  12.976   2.489  0.0854  0.4037 -0.0890
51460SOL     OW64309   4.358  13.216   5.810 -0.3448 -0.5135  0.0516
51460SOL    HW164310   4.416  13.185   5.740 -0.4832  1.0658 -0.8192
51460SOL    HW264311   4.323  13.299   5.777  2.4347  2.3576  3.3802
51461SOL     OW64312   3.693   2.859   7.958 -0.1469  0.1116 -0.3772
51461SOL    HW164313   3.649   2.774   7.965 -1.0481  0.6489  1.2550
51461SOL    HW264314   3.621   2.921   7.945  0.3828  0.7455 -0.3066
51462SOL     OW64315  11.772   1.606   8.691 -0.6003 -0.6576 -0.5223
51462SOL    HW164316  11.738   1.624   8.603  0.2235 -0.4277 -0.8017
51462SOL    HW264317  11.867   1.614   8.682 -0.5260 -0.3531  0.4594
51463SOL     OW64318   1.601   1.724   6.142  0.1217 -0.5514 -0.0034
51463SOL    HW164319   1.512   1.760   6.148  0.2377 -0.4726  1.7516
51463SOL    HW264320   1.653   1.797   6.107 -0.1776  0.0560  0.7696
51464SOL     OW64321   4.589   8.730   6.202 -0.6020  0.3671  0.6387
51464SOL    HW164322   4.670   8.739   6.152 -1.1699 -0.5400 -0.4895
51464SOL    HW264323   4.530   8.795   6.164 -1.0073 -0.2666  0.1645
51465SOL     OW64324   1.903   4.464  10.057 -0.8028 -0.2517 -0.0977
51465SOL    HW164325   1.826   4.410  10.042 -0.9915 -0.0943  0.2975
51465SOL    HW264326   1.896   4.492  10.148  0.0756 -0.7840  0.1398
51466SOL     OW64327   6.580   3.901   1.741 -0.1426  0.1730  0.1986
51466SOL    HW164328   6.527   3.836   1.694  0.2558 -0.5711  0.7603
51466SOL    HW264329   6.516   3.963   1.776 -0.3950  1.5139 -2.3793
51467SOL     OW64330   9.778   8.369   8.503  0.3547  0.4497  0.8426
51467SOL    HW164331   9.736   8.455   8.494 -0.3765 -0.0014 -0.2027
51467SOL    HW264332   9.787   8.338   8.413  0.5475 -0.6144  1.2232
51468SOL     OW64333   4.845   0.090   0.413 -0.6356 -0.2210  0.2739
51468SOL    HW164334   4.937   0.103   0.434 -0.5812 -0.6784  0.3397
51468SOL    HW264335   4.841   0.001   0.378 -1.1068 -0.3397  0.6214
51469SOL     OW64336   5.604   5.997   6.116 -0.5194 -0.7416  0.1685
51469SOL    HW164337   5.540   6.063   6.146 -2.2783 -2.1439 -0.3417
51469SOL    HW264338   5.571   5.914   6.151 -0.0443 -1.7774 -1.7321
51470SOL     OW64339   1.596   6.900   0.561 -0.6111  0.0273  0.6768
51470SOL    HW164340   1.587   6.937   0.649  0.9408 -0.7663  1.2075
51470SOL    HW264341   1.687   6.871   0.556 -0.9357 -0.8666 -0.8417
51471SOL     OW64342   6.126   3.299  11.255  0.6284 -0.0099 -0.1044
51471SOL    HW164343   6.221   3.291  11.256  0.7717  0.9688 -1.7989
51471SOL    HW264344   6.108   3.380  11.302  0.2635 -2.0377  3.6549
51472SOL     OW64345   8.578  11.321   2.631  0.4105 -0.6625 -0.6145
51472SOL    HW164346   8.520  11.394   2.654 -0.3223 -1.4737  0.1678
51472SOL    HW264347   8.571  11.261   2.704 -0.0684 -2.1681 -1.8476
51473SOL     OW64348   6.628   3.649   4.140 -0.0451  0.2782  0.9859
51473SOL    HW164349   6.650   3.651   4.047  1.4604  1.1266  1.3089
51473SOL    HW264350   6.533   3.653   4.143 -0.1496 -0.4323 -0.5217
51474SOL     OW64351   7.189  12.404   0.880  0.1158 -0.0279 -0.4376
51474SOL    HW164352   7.261  12.439   0.933  0.6935 -0.1917 -1.1008
51474SOL    HW264353   7.128  12.478   0.870  0.7212  0.4364 -0.7770
51475SOL     OW64354   1.369  10.526   7.803  0.6744  0.0625 -0.5026
51475SOL    HW164355   1.391  10.448   7.853  0.7420  0.2799 -0.1833
51475SOL    HW264356   1.275  10.519   7.787  0.4148  0.5695  0.7009
51476SOL     OW64357   1.026   3.208   0.131  0.5165 -0.3975  0.4113
51476SOL    HW164358   1.039   3.169   0.218 -1.0899 -0.9083  0.4641
51476SOL    HW264359   0.995   3.297   0.149 -1.0927 -0.9254  0.4340
51477SOL     OW64360   8.683   8.828   6.125  0.3764  0.0420 -0.4201
51477SOL    HW164361   8.699   8.734   6.128 -2.0059 -0.4148 -0.2420
51477SOL    HW264362   8.678   8.854   6.217 -0.3306  0.0765 -0.4668
51478SOL     OW64363   2.629   9.301   3.324 -0.8180 -0.2175 -0.1127
51478SOL    HW164364   2.603   9.276   3.413  0.0285  1.9099  0.7982
51478SOL    HW264365   2.620   9.396   3.323  0.2645 -0.1015 -1.9764
51479SOL     OW64366  10.003   8.402   3.174  0.0182  0.0658 -0.4520
51479SOL    HW164367   9.944   8.350   3.119 -0.0480  1.0290 -1.3151
51479SOL    HW264368   9.966   8.394   3.262 -1.7057  1.0118 -1.0367
51480SOL     OW64369   6.601  11.850   7.827 -0.4214  0.0309 -0.3977
51480SOL    HW164370   6.640  11.762   7.821  0.7751  0.4803  0.3805
51480SOL    HW264371   6.608  11.873   7.920 -0.8483  0.8986 -0.5703
51481SOL     OW64372   2.989   7.027   4.629  0.1517  0.2610  0.1763
51481SOL    HW164373   2.955   6.941   4.654  0.5106 -0.0308 -0.3227
51481SOL    HW264374   2.995   7.024   4.533  1.7710  0.2181  0.2516
51482SOL     OW64375   6.025   5.994  11.024 -0.2975  0.1003 -0.2700
51482SOL    HW164376   6.007   6.088  11.029  1.0688  0.4217 -0.9501
51482SOL    HW264377   5.982   5.966  10.944 -1.9187 -0.1841  0.6435
51483SOL     OW64378   9.035   2.780   4.699  0.1647 -0.5100  0.2016
51483SOL    HW164379   9.085   2.750   4.775 -0.7071 -1.1082  0.5594
51483SOL    HW264380   8.959   2.722   4.696 -0.5371  0.4076 -0.2999
51484SOL     OW64381  12.039   8.562   5.951  0.3045 -0.6301 -0.3444
51484SOL    HW164382  11.966   8.622   5.938 -0.6764 -1.9218 -1.0191
51484SOL    HW264383  12.054   8.523   5.864  0.5059 -1.8006  0.1973
51485SOL     OW64384   4.002   2.202  13.250  0.1395  0.2096 -0.0128
51485SOL    HW164385   3.966   2.250  13.176 -0.1613  0.5239  0.3329
51485SOL    HW264386   3.982   2.257  13.326  0.2503 -0.2160  0.3268
51486SOL     OW64387  12.864  12.936  10.876  0.2826 -0.0442 -0.2863
51486SOL    HW164388  12.955  12.937  10.907  0.0746 -1.3679  0.4377
51486SOL    HW264389  12.825  12.859  10.917 -1.7510  1.5631  1.0240
51487SOL     OW64390   2.975   5.980   5.085 -0.1031 -0.3469  0.6410
51487SOL    HW164391   2.966   6.058   5.140 -0.3243 -1.0706  1.6417
51487SOL    HW264392   3.070   5.966   5.079  0.1673  1.6709 -1.9889
51488SOL     OW64393   0.365   6.175  10.789  0.0813  0.1952  0.2620
51488SOL    HW164394   0.294   6.113  10.778  0.5405 -0.7145  1.9688
51488SOL    HW264395   0.432   6.148  10.726  0.5929 -1.6022  1.4876
51489SOL     OW64396   4.588   6.271  11.448  0.1320  0.8650  0.2643
51489SOL    HW164397   4.682   6.251  11.454 -0.6218 -4.2771 -0.6132
51489SOL    HW264398   4.556   6.260  11.537 -0.0188 -0.2308  0.0837
51490SOL     OW64399  12.233  10.846  10.111 -0.8172  0.4850  0.0218
51490SOL    HW164400  12.147  10.802  10.109 -0.7581  0.4055 -1.3506
51490SOL    HW264401  12.213  10.938  10.099 -0.7885  0.6170  0.9271
51491SOL     OW64402   7.205   7.296   8.239  0.6931  0.2524  0.2925
51491SOL    HW164403   7.286   7.329   8.277 -0.2622  0.8908  1.8892
51491SOL    HW264404   7.222   7.203   8.222  1.6935  0.3367  0.7633
51492SOL     OW64405   9.071   8.432  11.000 -0.3979 -0.0741 -0.0946
51492SOL    HW164406   9.086   8.464  11.089 -0.3421 -0.1420 -0.0798
51492SOL    HW264407   9.146   8.376  10.981  1.1441  2.2731 -1.2939
51493SOL     OW64408   3.476   9.694  12.955 -0.0424 -0.1325 -0.2410
51493SOL    HW164409   3.545   9.628  12.947  1.1865  0.9896  0.7189
51493SOL    HW264410   3.435   9.674  13.040  0.3293  0.3231  0.0496
51494SOL     OW64411   5.433   0.586   7.366 -0.3759  0.1597  0.4311
51494SOL    HW164412   5.385   0.533   7.302 -1.0257  0.0149  1.0266
51494SOL    HW264413   5.517   0.541   7.377 -1.1716 -1.1568  1.4375
51495SOL     OW64414  11.490   7.826   2.126 -0.0838  0.2877 -0.1604
51495SOL    HW164415  11.417   7.867   2.081 -0.9756 -0.4013  0.6294
51495SOL    HW264416  11.551   7.801   2.056 -0.1942  1.6086 -0.7560
51496SOL     OW64417   6.015  10.469   1.951 -0.2568  0.0803  0.1940
51496SOL    HW164418   6.060  10.542   1.994 -2.0165  1.5488 -0.3018
51496SOL    HW264419   6.063  10.456   1.870  1.3790 -0.8100  1.2541
51497SOL     OW64420   3.916   7.670   5.386  0.1253 -0.1043 -0.0367
51497SOL    HW164421   4.001   7.627   5.381  0.1339 -0.1335  0.3194
51497SOL    HW264422   3.936   7.760   5.412  0.2603  0.6591 -2.5043
51498SOL     OW64423   8.996   0.658   0.171 -0.0348 -0.4333  0.0893
51498SOL    HW164424   9.040   0.574   0.185 -0.4219 -0.9739 -1.7265
51498SOL    HW264425   8.985   0.694   0.259  1.1601 -1.7508  0.8214
51499SOL     OW64426   1.849  10.794  12.722 -0.2773 -0.8042  0.5043
51499SOL    HW164427   1.848  10.699  12.734 -0.0853 -0.9387 -0.4412
51499SOL    HW264428   1.896  10.807  12.640 -1.1712  0.0532  0.1131
51500SOL     OW64429   4.631   4.190   5.920 -0.7118 -0.0317 -0.8053
51500SOL    HW164430   4.683   4.127   5.870  0.5471  1.6178 -1.7138
51500SOL    HW264431   4.675   4.195   6.004 -0.7901 -0.3268 -0.7450
51501SOL     OW64432   1.852   5.479  12.317 -0.3117  0.2044  0.2971
51501SOL    HW164433   1.760   5.470  12.342  0.0743 -0.8022  1.5004
51501SOL    HW264434   1.889   5.539  12.382 -0.6522  2.8311 -1.7825
51502SOL     OW64435   6.369   9.265   8.716 -0.1028  0.5704  0.3047
51502SOL    HW164436   6.432   9.307   8.658 -0.3817  0.5226 -0.0412
51502SOL    HW264437   6.311   9.336   8.745 -0.2866  0.5054  0.0982
51503SOL     OW64438  12.099  12.842   3.513  0.0226  0.4606 -0.5868
51503SOL    HW164439  12.190  12.839   3.543  0.3239  0.9590 -1.4127
51503SOL    HW264440  12.101  12.798   3.428 -0.9005 -1.3694  0.2938
51504SOL     OW64441   7.761   9.938   3.691 -0.9268 -0.0695  0.1995
51504SOL    HW164442   7.683   9.993   3.687 -0.4146  0.6258 -0.4461
51504SOL    HW264443   7.792   9.934   3.600 -0.7865 -1.1917  0.2808
51505SOL     OW64444   5.482  13.087   5.206  0.3642  0.2947 -0.3066
51505SOL    HW164445   5.436  13.166   5.178  1.4326  1.0137 -0.1150
51505SOL    HW264446   5.422  13.016   5.187 -1.6832  1.3413  1.7574
51506SOL     OW64447   1.840   8.185   4.326 -0.6935  0.3834  0.5891
51506SOL    HW164448   1.885   8.182   4.241  0.1339 -0.3325  1.0357
51506SOL    HW264449   1.765   8.242   4.311 -0.4693  0.3997 -0.5836
51507SOL     OW64450  10.767   9.329   1.472  0.0605 -0.2949  0.2832
51507SOL    HW164451  10.850   9.364   1.505  0.6356 -1.4705  0.1312
51507SOL    HW264452  10.707   9.338   1.547  0.2525  0.7423  0.3309
51508SOL     OW64453   4.388   6.300   8.911  0.5496 -0.2064 -0.0316
51508SOL    HW164454   4.339   6.287   8.830 -0.6146  0.7206  0.4898
51508SOL    HW264455   4.329   6.270   8.980  0.8991  0.4633  0.5774
51509SOL     OW64456   8.084   6.554   6.641  0.5613 -0.1981 -0.1558
51509SOL    HW164457   8.177   6.534   6.640  0.6952  0.3445  0.5152
51509SOL    HW264458   8.080   6.649   6.655 -0.0905 -0.4368  1.5004
51510SOL     OW64459   4.639  13.241  10.443  0.6116 -0.2718 -0.1721
51510SOL    HW164460   4.599  13.265  10.359  0.9911  1.2042  0.0294
51510SOL    HW264461   4.568  13.202  10.494 -0.0006  0.2196 -0.6411
51511SOL     OW64462   8.939  12.193   3.542  0.1789 -0.6101 -0.2223
51511SOL    HW164463   8.986  12.142   3.476  0.2419 -0.3297 -0.3965
51511SOL    HW264464   8.859  12.221   3.499  0.6142  0.3025 -0.4786
51512SOL     OW64465   3.936   1.229   4.531 -0.2147  0.3218 -0.4721
51512SOL    HW164466   3.935   1.153   4.589  0.5211  0.6398 -0.0167
51512SOL    HW264467   4.028   1.237   4.504  0.0780  2.0431  0.8550
51513SOL     OW64468  13.009   8.762   9.221 -0.1323  0.1107 -0.1871
51513SOL    HW164469  13.039   8.794   9.136  1.9776  0.3487  0.6041
51513SOL    HW264470  12.969   8.839   9.263 -0.8809  0.0701 -0.7983
51514SOL     OW64471  11.587  10.273   1.130 -0.3378 -0.7278 -1.0471
51514SOL    HW164472  11.682  10.285   1.128 -0.3433 -0.5969 -0.6007
51514SOL    HW264473  11.561  10.271   1.038 -0.1918  1.6546 -1.1920
51515SOL     OW64474   6.630   6.990   9.468 -0.2583  0.0658  0.0829
51515SOL    HW164475   6.613   6.968   9.559 -0.3658 -0.5042 -0.0661
51515SOL    HW264476   6.725   7.004   9.464 -0.4856  1.9957  0.6580
51516SOL     OW64477  11.759   9.693   9.606 -0.1011  0.2578 -0.7378
51516SOL    HW164478  11.700   9.701   9.531 -1.9867  1.0655  0.7423
51516SOL    HW264479  11.769   9.599   9.619 -0.9156  0.1026 -1.1518
51517SOL     OW64480   7.564   8.939   7.078  0.6857 -0.4061  0.1837
51517SOL    HW164481   7.547   8.973   7.166 -1.8112 -0.9648 -0.0159
51517SOL    HW264482   7.627   8.868   7.092  1.5258  0.5138  1.2913
51518SOL     OW64483   8.702   6.853  10.356  0.2579 -0.7465 -0.4206
51518SOL    HW164484   8.622   6.809  10.386  0.6059 -0.7325  0.5616
51518SOL    HW264485   8.773   6.799  10.391  0.6847 -0.0769 -0.2441
51519SOL     OW64486  12.686  12.508  12.762 -0.0935  0.4925  0.4416
51519SOL    HW164487  12.754  12.442  12.771  0.2481  0.7244 -0.3273
51519SOL    HW264488  12.615  12.464  12.716 -0.9773 -0.0901  2.2785
51520SOL     OW64489  13.144   9.818   3.940 -0.3735  0.4072  0.0745
51520SOL    HW164490  13.082   9.748   3.959 -0.1289 -0.1273 -1.0198
51520SOL    HW264491  13.221   9.798   3.993 -0.4992  0.1382  0.1553
51521SOL     OW64492   3.467   0.509   8.676  0.1277  0.5154  0.0539
51521SOL    HW164493   3.400   0.569   8.645  0.2354  0.3449 -0.5125
51521SOL    HW264494   3.430   0.422   8.663 -0.4504  0.4663  1.8292
51522SOL     OW64495   6.067   3.247   5.178  0.4471 -0.2099  0.3217
51522SOL    HW164496   6.085   3.155   5.158  0.8835 -0.1033  0.2137
51522SOL    HW264497   6.052   3.288   5.092 -1.0573 -0.4426  0.4531
51523SOL     OW64498   7.080   0.044  13.269 -0.0116  0.0437  0.4336
51523SOL    HW164499   7.082   0.129  13.313  0.1117 -0.0831  0.6746
51523SOL    HW264500   7.163   0.040  13.221 -0.3713  0.3998 -0.2280
51524SOL     OW64501   7.848   5.018   6.670  0.5186 -0.3811 -0.7647
51524SOL    HW164502   7.840   4.927   6.641 -0.2833  0.3670 -3.0575
51524SOL    HW264503   7.762   5.056   6.654  0.3617  0.4369  1.6551
51525SOL     OW64504  10.644   4.251   7.065 -0.1309 -0.2291  0.5930
51525SOL    HW164505  10.665   4.272   7.156  0.2095  0.3433  0.3861
51525SOL    HW264506  10.721   4.204   7.033 -0.1026 -0.1235  0.5029
51526SOL     OW64507   1.360   1.724   4.773  0.2408  0.4423  0.0050
51526SOL    HW164508   1.331   1.644   4.730  1.5904  0.1443 -0.4021
51526SOL    HW264509   1.285   1.783   4.767 -0.0778 -0.0692 -1.5437
51527SOL     OW64510   7.038   4.118   2.615 -0.0043 -0.5071  0.4596
51527SOL    HW164511   7.021   4.151   2.527  0.0221 -0.9318  0.2929
51527SOL    HW264512   7.105   4.051   2.603  0.5630 -0.0300  0.8985
51528SOL     OW64513   3.014  10.552  11.789 -1.2166 -0.2476 -0.9027
51528SOL    HW164514   3.080  10.485  11.768  1.0147  1.3443  0.4742
51528SOL    HW264515   3.032  10.623  11.727 -0.5076  0.8392  0.4796
51529SOL     OW64516  12.146   2.008  10.557  0.2376  0.6332  0.0185
51529SOL    HW164517  12.193   1.926  10.546 -0.2413  0.3178  0.2743
51529SOL    HW264518  12.157   2.054  10.474  2.0449  1.1370  0.4793
51530SOL     OW64519   5.933   9.302   9.184  0.0063  0.0198  0.4063
51530SOL    HW164520   5.949   9.365   9.113 -2.2836  0.4552  0.2037
51530SOL    HW264521   5.898   9.225   9.141 -1.2286  0.2170  0.9934
51531SOL     OW64522   4.947   6.216   4.056  0.4018  0.4444  0.1474
51531SOL    HW164523   4.987   6.197   4.141 -1.2986 -1.5526  0.5883
51531SOL    HW264524   4.859   6.246   4.078 -1.4987 -3.7443 -0.8112
51532SOL     OW64525   2.302   3.129  11.894 -0.4544  0.3804 -0.3027
51532SOL    HW164526   2.327   3.069  11.823 -3.2997  0.0693 -1.1431
51532SOL    HW264527   2.335   3.214  11.867 -1.8135  0.3441 -2.2666
51533SOL     OW64528  12.705   7.948   8.963  0.6677 -0.2167  0.5318
51533SOL    HW164529  12.684   7.895   8.886 -0.7544  1.9940 -0.7464
51533SOL    HW264530  12.686   7.892   9.037  1.4604 -2.2193 -0.7103
51534SOL     OW64531   5.409  13.156   1.000 -0.1435 -1.3717  0.0242
51534SOL    HW164532   5.339  13.098   1.028 -0.3718 -0.5275  1.2821
51534SOL    HW264533   5.483  13.097   0.980 -0.5238 -2.1127  0.7651
51535SOL     OW64534  11.103   9.279   7.544 -0.1248 -0.1503 -0.5702
51535SOL    HW164535  11.091   9.219   7.618  1.0367 -0.5942 -0.7083
51535SOL    HW264536  11.030   9.340   7.549  0.1523  0.0773  1.1919
51536SOL     OW64537   7.126  12.262   9.261 -0.0383  0.0049  0.4199
51536SOL    HW164538   7.141  12.332   9.197 -0.6314 -0.0120  0.2609
51536SOL    HW264539   7.210  12.254   9.307 -0.2443  1.5024  1.1218
51537SOL     OW64540   4.856   2.760   7.860 -1.1136 -0.3563  0.4209
51537SOL    HW164541   4.846   2.761   7.956  3.5119  1.4367  1.1334
51537SOL    HW264542   4.849   2.852   7.835  3.4584  0.1081  0.0988
51538SOL     OW64543   0.572   1.619   1.097  0.0314 -0.0262  0.2379
51538SOL    HW164544   0.619   1.580   1.171 -0.6911 -0.1461  0.6397
51538SOL    HW264545   0.565   1.548   1.033  1.0942  0.2156 -0.1641
51539SOL     OW64546  10.070   4.376   0.033 -0.3321  0.6455 -0.1788
51539SOL    HW164547  10.127   4.300   0.034 -0.5104  0.4836 -0.9826
51539SOL    HW264548  10.087   4.421   0.115  0.0559 -0.0552  0.1296
51540SOL     OW64549   6.372   8.177   8.856  0.0472 -0.0812  0.1383
51540SOL    HW164550   6.290   8.133   8.832  0.5502 -1.8626  1.4243
51540SOL    HW264551   6.346   8.237   8.926 -0.3066  0.0489 -0.0996
51541SOL     OW64552   1.414   4.291   9.758  0.0610 -0.0359 -0.0921
51541SOL    HW164553   1.386   4.296   9.849  0.8511  0.6188  0.1234
51541SOL    HW264554   1.384   4.205   9.728  0.2895 -0.4885  0.9499
51542SOL     OW64555   7.706  12.079   9.075 -0.2432  0.3636 -0.1032
51542SOL    HW164556   7.611  12.080   9.074 -0.2667 -0.5146 -0.2164
51542SOL    HW264557   7.732  12.087   8.984 -0.2297  0.0264 -0.1311
51543SOL     OW64558   5.879  10.524   9.884 -0.0530 -0.4500  0.4089
51543SOL    HW164559   5.828  10.463   9.830 -2.4236  1.6530  0.0586
51543SOL    HW264560   5.906  10.472   9.960 -0.4767 -2.3385 -0.6582
51544SOL     OW64561  13.182   1.860  13.025 -0.7912 -0.1452  0.3488
51544SOL    HW164562  13.244   1.811  12.971 -0.7654 -1.9793  1.9733
51544SOL    HW264563  13.234   1.931  13.063 -0.4755  0.2643 -0.8000
51545SOL     OW64564   2.444   3.971   5.089 -0.2967 -0.2637 -0.3510
51545SOL    HW164565   2.485   4.039   5.143 -1.2093  0.4585 -0.5466
51545SOL    HW264566   2.467   3.889   5.132  1.3435  0.1054 -0.4418
51546SOL     OW64567   3.243   2.560   3.980  0.0293 -0.0157  0.2824
51546SOL    HW164568   3.280   2.639   3.942  1.0878 -0.3765  0.5420
51546SOL    HW264569   3.194   2.519   3.908 -0.4567  0.8194  0.1299
51547SOL     OW64570   1.011   8.895   5.921 -0.0233 -0.3561 -0.0983
51547SOL    HW164571   0.957   8.868   5.996 -1.9692  0.6215 -1.0899
51547SOL    HW264572   1.080   8.949   5.960 -2.3861  2.2062  0.8494
51548SOL     OW64573   8.260   4.620  12.979  0.0370 -0.2422  0.6972
51548SOL    HW164574   8.174   4.640  13.014 -0.1343  0.8905 -0.3342
51548SOL    HW264575   8.249   4.535  12.935 -0.6965  0.1701  0.0752
51549SOL     OW64576  10.775   9.660   0.904  0.1673  0.3067 -0.1854
51549SOL    HW164577  10.692   9.702   0.924  0.2984  0.4947 -0.0356
51549SOL    HW264578  10.809   9.632   0.990  0.6078  0.8874 -0.1672
51550SOL     OW64579  10.460   4.671   6.237 -0.0112 -0.0241 -0.3130
51550SOL    HW164580  10.546   4.661   6.196 -0.0868  1.5944 -0.9345
51550SOL    HW264581  10.411   4.727   6.176 -0.8134  0.7570  1.0129
51551SOL     OW64582   9.923   6.904  10.103  0.4979  0.3896 -0.1985
51551SOL    HW164583   9.997   6.956  10.133  0.6306  0.3215 -0.3992
51551SOL    HW264584   9.945   6.882  10.012  0.0605  0.6764 -0.3766
51552SOL     OW64585   4.219   4.813  13.231 -1.1366  0.1595  0.5572
51552SOL    HW164586   4.220   4.899  13.189 -1.7686 -0.2952 -0.4155
51552SOL    HW264587   4.154   4.822  13.301 -0.1577  0.8883  1.4124
51553SOL     OW64588   4.058  12.124   1.846  0.4021  0.0171  0.4203
51553SOL    HW164589   4.131  12.166   1.892  0.1841  0.6494  0.2028
51553SOL    HW264590   4.008  12.197   1.809 -0.3547 -0.4040  0.5876
51554SOL     OW64591   9.840   4.518  10.911  0.5696  0.1398  0.0487
51554SOL    HW164592   9.856   4.439  10.964  1.5451 -1.0583 -1.9090
51554SOL    HW264593   9.863   4.590  10.969  0.7723 -1.0670  1.5469
51555SOL     OW64594   9.132   8.470   0.522  0.3332  0.4844  0.3037
51555SOL    HW164595   9.079   8.413   0.467  0.7493  0.4243 -0.0413
51555SOL    HW264596   9.070   8.535   0.557 -0.2539 -0.5256  1.1859
51556SOL     OW64597   0.418   8.076  11.459 -0.2802  0.1091  0.3449
51556SOL    HW164598   0.448   7.988  11.481  0.8999  0.3785 -0.1030
51556SOL    HW264599   0.361   8.101  11.532 -0.7837 -1.0875  0.3843
51557SOL     OW64600   5.319   9.022   3.366  0.3296 -0.3941 -0.8403
51557SOL    HW164601   5.301   9.117   3.366 -2.6371 -0.8099  1.2556
51557SOL    HW264602   5.414   9.016   3.366  0.6448  2.5367 -2.1784
51558SOL     OW64603  10.315  13.221  12.739 -0.5980 -0.1257  0.4030
51558SOL    HW164604  10.294  13.155  12.674 -1.7007  0.3468  0.2554
51558SOL    HW264605  10.235  13.230  12.792 -1.0070  2.0636 -0.4573
51559SOL     OW64606  12.661   6.118  11.883  0.1456 -0.0176 -0.0745
51559SOL    HW164607  12.699   6.195  11.925  0.7913  0.7195 -1.9405
51559SOL    HW264608  12.737   6.065  11.857 -0.1345  0.3706 -1.7979
51560SOL     OW64609   0.002   5.055   3.479  0.5260  0.0424  0.4770
51560SOL    HW164610   0.072   5.078   3.540  2.4147 -0.2144 -1.4793
51560SOL    HW264611  -0.067   5.019   3.535  1.7091  0.7683  2.5426
51561SOL     OW64612   6.436   0.534   5.841  0.1077 -0.1617  0.1591
51561SOL    HW164613   6.447   0.467   5.908  1.1074 -0.4921 -0.3149
51561SOL    HW264614   6.364   0.501   5.787 -1.4250  0.6127  1.6280
51562SOL     OW64615   6.021   1.925   4.902  0.3265  0.7707  0.3112
51562SOL    HW164616   6.112   1.909   4.930 -0.4419 -0.8243  2.0997
51562SOL    HW264617   5.978   1.961   4.980 -1.1210 -0.7345  0.2540
51563SOL     OW64618  11.958  10.382   7.653  0.4920 -0.5311  0.0852
51563SOL    HW164619  11.990  10.433   7.579 -1.0331 -1.7101 -1.4654
51563SOL    HW264620  11.940  10.295   7.617 -2.3656 -0.5571  1.2683
51564SOL     OW64621   8.770   8.426   2.226 -0.4932 -0.3726 -0.0554
51564SOL    HW164622   8.748   8.334   2.218  2.1940 -0.9515 -2.4989
51564SOL    HW264623   8.808   8.449   2.142  0.7771  2.4448  1.1517
51565SOL     OW64624   0.683  10.011   2.753 -0.3604  0.6302 -0.2914
51565SOL    HW164625   0.689  10.069   2.829 -0.1751 -0.6278  0.6939
51565SOL    HW264626   0.767  10.022   2.708 -0.0341  0.5786  0.2984
51566SOL     OW64627   2.380  12.875  11.506  0.1401  0.3501  0.0908
51566SOL    HW164628   2.320  12.932  11.457  0.3829  0.2765 -0.2992
51566SOL    HW264629   2.417  12.931  11.574  1.4050  1.0553 -1.1159
51567SOL     OW64630   4.823   5.090   0.394 -0.3160 -0.3511 -0.0879
51567SOL    HW164631   4.766   5.167   0.388 -1.3942 -1.1573 -0.4106
51567SOL    HW264632   4.858   5.080   0.305 -0.6491 -0.5867 -0.1930
51568SOL     OW64633   0.244   2.759  10.877  0.5679 -0.1385 -0.1239
51568SOL    HW164634   0.180   2.695  10.908 -0.3259  0.5425 -0.5334
51568SOL    HW264635   0.263   2.813  10.954 -0.5806  0.6638 -0.3828
51569SOL     OW64636  11.599   0.760   6.965  1.1228  0.1060 -0.8308
51569SOL    HW164637  11.644   0.767   6.881  0.9811  0.2063 -0.8966
51569SOL    HW264638  11.537   0.688   6.953  0.7396  0.4573 -0.9745
51570SOL     OW64639  10.576   2.166  12.720 -0.3041 -0.1731  0.0267
51570SOL    HW164640  10.484   2.148  12.741 -1.3984  3.8414 -0.4652
51570SOL    HW264641  10.575   2.193  12.629  1.6709 -1.3851 -0.4147
51571SOL     OW64642   8.192   5.921   2.919 -0.1668  0.6791  0.3496
51571SOL    HW164643   8.210   5.841   2.968  0.7458 -0.6272 -1.9431
51571SOL    HW264644   8.128   5.895   2.853 -0.2148  1.9470 -0.1378
51572SOL     OW64645   4.322   7.664   2.417  0.2783 -0.4620  0.2528
51572SOL    HW164646   4.349   7.726   2.349 -0.8397 -0.3988 -0.1507
51572SOL    HW264647   4.297   7.720   2.491  0.4539 -0.4847  0.3293
51573SOL     OW64648  13.086   2.809   2.095 -0.7359  0.0782 -0.5822
51573SOL    HW164649  13.156   2.874   2.083 -0.3584  0.5194  2.9018
51573SOL    HW264650  13.008   2.861   2.112 -0.6991 -0.3302  0.9570
51574SOL     OW64651   0.375   3.562   7.954  0.7005  0.0430  0.9423
51574SOL    HW164652   0.356   3.592   8.043 -2.9502  0.0924  0.2960
51574SOL    HW264653   0.321   3.484   7.943 -0.6784  1.2590 -1.8848
51575SOL     OW64654   9.799  11.424   0.325 -0.7993  0.1410  0.4332
51575SOL    HW164655   9.750  11.365   0.267  0.2676 -1.0390  0.6836
51575SOL    HW264656   9.850  11.479   0.266 -0.4952 -0.3629  0.2152
51576SOL     OW64657   5.181  11.470   0.236 -0.1914  0.4365  0.0088
51576SOL    HW164658   5.137  11.457   0.320 -0.3968  0.5365 -0.0847
51576SOL    HW264659   5.179  11.383   0.195 -0.5472  0.5030 -0.1164
51577SOL     OW64660   5.982  12.633   6.504 -0.4175  0.3763 -0.5360
51577SOL    HW164661   5.962  12.540   6.516  0.5458  0.1891 -0.2512
51577SOL    HW264662   6.010  12.662   6.591  0.3668  0.6475 -0.8727
51578SOL     OW64663   3.749   9.230   0.731  0.0322  0.3374 -0.4304
51578SOL    HW164664   3.665   9.194   0.704  1.2763 -3.4271  0.1114
51578SOL    HW264665   3.739   9.247   0.825  0.2438 -1.6599  0.0053
51579SOL     OW64666   4.064  10.631   2.812  0.0514  0.1930  1.0317
51579SOL    HW164667   3.999  10.684   2.766 -0.0294 -0.4339  0.4109
51579SOL    HW264668   4.110  10.693   2.869 -1.0716  0.6534  1.4691
51580SOL     OW64669   9.461  11.538   1.198  0.1523 -0.0899  0.2257
51580SOL    HW164670   9.385  11.590   1.223  0.0496 -0.3039  0.3579
51580SOL    HW264671   9.424  11.458   1.161  0.2294  1.0808 -2.6172
51581SOL     OW64672   4.027   1.113  11.711  0.2472  1.0853  0.4277
51581SOL    HW164673   3.978   1.055  11.769 -0.8021  1.4618 -0.0653
51581SOL    HW264674   4.067   1.056  11.646  1.3871  0.6618  1.4611
51582SOL     OW64675  11.074   0.026   7.993 -0.4391 -0.2061 -0.2975
51582SOL    HW164676  11.073  -0.070   8.000 -0.2504 -0.3106 -1.4248
51582SOL    HW264677  11.131   0.054   8.064 -0.6341 -0.9182  0.1570
51583SOL     OW64678   0.384  13.052  10.639  0.2060 -1.0135 -0.4973
51583SOL    HW164679   0.453  13.101  10.596 -0.0177 -0.9902 -0.8415
51583SOL    HW264680   0.325  13.026  10.567 -1.6592  1.3378  0.0416
51584SOL     OW64681   2.998   8.466   1.151  0.1535  0.3770  0.1727
51584SOL    HW164682   2.914   8.507   1.128 -0.1515  0.3853  1.2697
51584SOL    HW264683   3.010   8.485   1.244  1.0193 -0.2566  0.2042
51585SOL     OW64684   3.060  11.681   0.131  0.2206  0.3054 -0.0568
51585SOL    HW164685   3.070  11.770   0.098 -0.2583  0.7476  0.9482
51585SOL    HW264686   3.012  11.635   0.062 -0.9502  1.2554  0.0895
51586SOL     OW64687   4.350   7.121   9.039  0.1690  0.1584 -0.6105
51586SOL    HW164688   4.270   7.172   9.025 -0.3424 -0.2975  0.5029
51586SOL    HW264689   4.318   7.034   9.062  0.9523  0.2485  0.9375
51587SOL     OW64690   5.131   5.476   1.199 -0.0954 -0.3866 -0.2149
51587SOL    HW164691   5.098   5.566   1.199  3.2056  0.9543 -0.3999
51587SOL    HW264692   5.155   5.459   1.291 -0.1561 -0.8839 -0.2855
51588SOL     OW64693   3.784  13.116   2.757 -0.3128  0.4995  0.2235
51588SOL    HW164694   3.729  13.108   2.679 -0.8286 -0.1721  0.6464
51588SOL    HW264695   3.823  13.029   2.768 -1.4144  0.1454  1.5596
51589SOL     OW64696   9.744   0.678   9.929  0.5506  0.3922 -0.1973
51589SOL    HW164697   9.736   0.631   9.846  1.6304  0.2009 -0.2068
51589SOL    HW264698   9.833   0.659   9.959 -0.1301 -0.3508  1.4990
51590SOL     OW64699   5.135   7.014   5.273  0.0515  0.0857  0.1131
51590SOL    HW164700   5.133   7.001   5.368  1.0731 -0.6490  0.0511
51590SOL    HW264701   5.093   6.936   5.237  0.3287  0.0155 -0.0612
51591SOL     OW64702   0.628   7.024   7.259 -0.0478 -0.1121 -0.0725
51591SOL    HW164703   0.578   7.104   7.246 -0.7851 -0.8643 -2.3222
51591SOL    HW264704   0.562   6.957   7.278  0.2862 -0.6819 -0.8679
51592SOL     OW64705  11.379   9.664   2.339 -0.1674 -0.1153  0.3026
51592SOL    HW164706  11.297   9.617   2.356 -0.3055 -0.2746 -0.7239
51592SOL    HW264707  11.444   9.617   2.391 -0.3741 -1.2323 -0.4164
51593SOL     OW64708   4.901   9.878   9.948  0.2625 -0.1227  0.0767
51593SOL    HW164709   4.932   9.866   9.858  1.7570 -1.7919  0.7358
51593SOL    HW264710   4.909   9.972   9.964  0.0159  0.1970 -1.4975
51594SOL     OW64711  11.747   6.899   9.319  0.5813  0.1530 -0.1073
51594SOL    HW164712  11.790   6.815   9.328 -0.7853 -0.4185  1.7056
51594SOL    HW264713  11.727   6.926   9.409  0.0742  1.9127 -0.7025
51595SOL     OW64714   8.592  11.524   9.045 -0.3609 -0.0064 -0.3529
51595SOL    HW164715   8.597  11.454   8.980  0.7047  0.7773 -1.1523
51595SOL    HW264716   8.641  11.597   9.006  2.0237 -0.1185  2.0921
51596SOL     OW64717   4.228   3.510  10.573 -0.5512  0.4248 -0.3151
51596SOL    HW164718   4.275   3.427  10.578 -0.6182  0.4512  1.3252
51596SOL    HW264719   4.296   3.577  10.579 -0.6473  0.4596  0.6738
51597SOL     OW64720   7.827   4.602  10.221  0.3793  0.5630  0.6941
51597SOL    HW164721   7.821   4.645  10.306 -0.6218 -0.1599  1.0067
51597SOL    HW264722   7.800   4.511  10.238 -0.0673  0.4721 -0.4400
51598SOL     OW64723   8.070   9.458   0.006  0.3419  0.1853  0.3846
51598SOL    HW164724   8.110   9.545   0.007  1.5768 -0.3502 -0.1675
51598SOL    HW264725   8.144   9.398   0.003 -0.4266 -0.9694  2.5266
51599SOL     OW64726  10.428   8.224   9.293 -0.1112  0.3944  0.0062
51599SOL    HW164727  10.413   8.182   9.378 -0.0445  2.0816  0.8971
51599SOL    HW264728  10.433   8.151   9.231  0.2117 -0.9159  1.4926
51600SOL     OW64729  12.245  10.465   0.698  0.1518  0.2729  0.2559
51600SOL    HW164730  12.233  10.453   0.793 -0.5954  1.6894  0.3631
51600SOL    HW264731  12.261  10.376   0.665  1.3415 -0.1556  1.8151
51601SOL     OW64732  11.896   1.830   0.751  0.3949 -0.3375 -0.0354
51601SOL    HW164733  11.940   1.745   0.749  0.5122 -0.2927  0.4920
51601SOL    HW264734  11.874   1.849   0.660 -0.1483 -1.2001 -0.0916
51602SOL     OW64735   3.727   5.148  12.440  0.0990 -0.0856 -0.2457
51602SOL    HW164736   3.759   5.085  12.375 -0.2721 -1.4591  0.8483
51602SOL    HW264737   3.804   5.199  12.463  0.4992 -0.3800 -0.8943
51603SOL     OW64738  10.171   0.342   0.459  0.2377 -0.0781  0.2083
51603SOL    HW164739  10.105   0.389   0.410  1.1920  2.7969  1.4771
51603SOL    HW264740  10.133   0.329   0.546  0.9109  0.6452  0.6246
51604SOL     OW64741   5.159   3.747   1.614  0.2404 -0.0121  0.2302
51604SOL    HW164742   5.233   3.775   1.669  0.3308  0.2664 -0.0261
51604SOL    HW264743   5.081   3.776   1.662  0.1731 -2.1250  1.5411
51605SOL     OW64744  10.827  10.525   1.354  0.6535  0.4107  0.0836
51605SOL    HW164745  10.822  10.523   1.449  0.9447  0.5455  0.1027
51605SOL    HW264746  10.812  10.616   1.330  1.6496  0.5796  0.0697
51606SOL     OW64747   4.159  13.071  10.204  0.4434  0.1308 -0.6013
51606SOL    HW164748   4.153  13.162  10.174 -2.9098  0.3601  0.3637
51606SOL    HW264749   4.120  13.021  10.133  0.3806 -0.3205 -0.2492
51607SOL     OW64750   8.775  10.149   0.348 -0.4744  0.0189  0.6602
51607SOL    HW164751   8.762  10.230   0.298 -2.7581  0.0206  1.1654
51607SOL    HW264752   8.756  10.079   0.286 -2.2223 -0.0015  1.1655
51608SOL     OW64753   5.319   3.253   1.333  0.3991 -0.2713  0.0593
51608SOL    HW164754   5.390   3.312   1.357  1.0746 -0.6692 -0.8997
51608SOL    HW264755   5.347   3.167   1.365  0.3131 -0.4161 -0.2496
51609SOL     OW64756   8.875   5.270   2.179  1.1542  0.2843 -0.5021
51609SOL    HW164757   8.949   5.314   2.136 -0.0459  0.3637 -2.5909
51609SOL    HW264758   8.798   5.312   2.143  0.0332 -1.1252  0.1722
51610SOL     OW64759   6.835   4.268   9.586  0.1140  0.4242 -0.2737
51610SOL    HW164760   6.804   4.356   9.569  0.1717  0.3911 -0.5451
51610SOL    HW264761   6.788   4.241   9.665  0.8276  1.0657  0.3816
51611SOL     OW64762  11.169  12.520  11.184  0.7790 -0.0648  0.0922
51611SOL    HW164763  11.110  12.594  11.196  0.0035 -0.6095 -0.2216
51611SOL    HW264764  11.114  12.453  11.142  1.6829 -0.5121 -0.3967
51612SOL     OW64765   3.823   9.844  12.414  0.6473 -0.0871 -0.1886
51612SOL    HW164766   3.841   9.922  12.467  0.8157  0.1244 -0.5574
51612SOL    HW264767   3.905   9.827  12.367 -0.1039  0.9843 -2.0002
51613SOL     OW64768  10.313   0.611   3.325  0.0472 -0.1100  0.6227
51613SOL    HW164769  10.393   0.630   3.278  0.5350 -1.0582  1.0412
51613SOL    HW264770  10.314   0.516   3.337 -1.9098 -0.3736 -0.7518
51614SOL     OW64771   3.034  11.434   9.619 -0.0470 -0.2497 -0.3467
51614SOL    HW164772   2.961  11.446   9.557 -0.2866  0.9295  0.1344
51614SOL    HW264773   2.991  11.421   9.703  0.2907 -1.4065 -0.3317
51615SOL     OW64774   4.570  10.071   8.922  0.6116  0.8485  0.0003
51615SOL    HW164775   4.509  10.135   8.959  2.5574  2.8497 -0.0497
51615SOL    HW264776   4.552  10.072   8.828 -3.4320 -3.2697  0.4242
51616SOL     OW64777  11.356   0.992   9.520  0.6399  0.3518  0.5009
51616SOL    HW164778  11.317   0.931   9.583 -0.8630 -0.1031 -0.7959
51616SOL    HW264779  11.409   0.936   9.463  2.0804  0.7746  1.3971
51617SOL     OW64780  10.921   6.292   5.185 -0.1017 -0.4596 -0.4431
51617SOL    HW164781  10.892   6.205   5.213 -0.3022 -0.5152 -0.8304
51617SOL    HW264782  10.882   6.352   5.249  0.1543 -0.6649 -0.0903
51618SOL     OW64783   4.846   2.568   8.606  0.1736  0.9315  0.1714
51618SOL    HW164784   4.851   2.507   8.680  0.0906  1.2169  0.4128
51618SOL    HW264785   4.753   2.566   8.581  0.0889  1.2671  0.4441
51619SOL     OW64786   2.405   0.135   0.280  0.2706  0.2171  0.2054
51619SOL    HW164787   2.374   0.184   0.204 -2.4785 -0.7096  0.6144
51619SOL    HW264788   2.460   0.066   0.243  1.1529  1.3319 -0.6576
51620SOL     OW64789  10.819  11.419  11.948  0.2326  0.1299  0.6819
51620SOL    HW164790  10.766  11.499  11.945 -3.0998 -1.8921 -1.6180
51620SOL    HW264791  10.903  11.446  11.912 -1.5961  2.2201 -2.6366
51621SOL     OW64792   4.426  11.621   0.362 -0.1778  0.2496 -0.2687
51621SOL    HW164793   4.433  11.526   0.370 -1.0464  0.2529  0.7830
51621SOL    HW264794   4.341  11.636   0.321 -0.6543  0.5959  0.8121
51622SOL     OW64795   6.904   5.401  11.606 -0.4061  0.0460  0.0827
51622SOL    HW164796   6.827   5.366  11.651 -0.2643  0.4538  0.6508
51622SOL    HW264797   6.905   5.494  11.629 -0.7012  0.4164 -1.2974
51623SOL     OW64798   2.524   2.999  11.762  0.0499 -0.7196 -1.0268
51623SOL    HW164799   2.540   2.973  11.672  0.1479  1.3443 -1.6545
51623SOL    HW264800   2.577   3.078  11.774  0.0591 -0.9713  0.8473
51624SOL     OW64801   5.996   8.013   1.143 -0.5380 -0.1202  0.2849
51624SOL    HW164802   6.028   8.047   1.060 -1.7059 -1.5164 -0.7982
51624SOL    HW264803   6.074   8.006   1.198  0.8683 -2.0546 -1.7408
51625SOL     OW64804   2.318   4.407  12.971  0.1498  0.1981 -0.1083
51625SOL    HW164805   2.308   4.342  13.041  0.9494  0.9196  0.6924
51625SOL    HW264806   2.322   4.354  12.891  0.3397 -0.7238  0.4886
51626SOL     OW64807  12.464   3.258   8.102 -0.7057 -0.1536 -0.5631
51626SOL    HW164808  12.509   3.332   8.060 -0.7387 -0.7849 -1.7412
51626SOL    HW264809  12.444   3.198   8.030 -2.3153 -0.4748  0.1183
51627SOL     OW64810   3.025   1.282  11.633 -0.1641 -0.2517 -0.1175
51627SOL    HW164811   3.092   1.231  11.678 -1.6301 -1.4639  0.8110
51627SOL    HW264812   3.058   1.372  11.633  1.1491 -0.7107  0.8994
51628SOL     OW64813   0.219   0.735  11.083 -0.0246  0.1643  0.2931
51628SOL    HW164814   0.225   0.820  11.039 -1.5616  0.7284  1.0814
51628SOL    HW264815   0.206   0.757  11.175  0.7515 -0.9582  0.6810
51629SOL     OW64816   6.102  11.256   3.282  0.7076 -0.3989 -0.2695
51629SOL    HW164817   6.037  11.247   3.212 -0.2807 -0.0546  0.5781
51629SOL    HW264818   6.186  11.239   3.239  0.1600  0.1307 -1.6082
51630SOL     OW64819   5.716   0.006   7.314 -0.5876  0.2660 -0.6641
51630SOL    HW164820   5.728  -0.007   7.408  0.6354  0.0601 -0.8307
51630SOL    HW264821   5.740   0.098   7.300  0.3720 -0.0118 -0.9298
51631SOL     OW64822   4.437   6.714  12.900 -0.1607 -0.3042 -0.2052
51631SOL    HW164823   4.415   6.800  12.934 -1.7308 -0.8045  0.1151
51631SOL    HW264824   4.528   6.723  12.870  0.1458  1.0682  1.0227
51632SOL     OW64825   5.438   9.285  11.087  0.3550  0.5853  0.5287
51632SOL    HW164826   5.463   9.349  11.021 -1.2826 -0.1219 -0.8658
51632SOL    HW264827   5.359   9.243  11.051  0.3212 -0.9297  2.2207
51633SOL     OW64828   0.982  12.723  12.207 -0.0144 -0.3059  0.2188
51633SOL    HW164829   0.902  12.698  12.161  0.2763 -0.1580 -0.3782
51633SOL    HW264830   1.048  12.731  12.138  0.4607 -0.1957  0.6759
51634SOL     OW64831  13.109   4.112   4.447  0.5097  0.1224  0.7635
51634SOL    HW164832  13.059   4.082   4.522 -0.7788  1.0746  0.3251
51634SOL    HW264833  13.125   4.033   4.395  1.5538 -0.5713  2.0734
51635SOL     OW64834  10.812   7.720   4.764 -0.3085 -0.1316  0.6495
51635SOL    HW164835  10.721   7.696   4.746 -0.3732 -0.1840  1.0296
51635SOL    HW264836  10.864   7.657   4.713 -0.4841  0.0562  0.2346
51636SOL     OW64837   1.120   2.875   3.459 -0.3177 -0.2076 -0.2153
51636SOL    HW164838   1.118   2.966   3.428 -0.9865 -0.5983 -1.3759
51636SOL    HW264839   1.028   2.852   3.472 -0.1098 -0.4450  0.9665
51637SOL     OW64840   8.505  11.194   7.305  1.0260 -0.3965  0.1031
51637SOL    HW164841   8.425  11.149   7.278  1.4961 -0.9600 -0.3838
51637SOL    HW264842   8.474  11.272   7.351  0.2051  0.0193 -1.1193
51638SOL     OW64843  12.900   5.623   6.480  0.1993 -0.0884 -0.0835
51638SOL    HW164844  12.863   5.710   6.469  0.4588 -0.2117 -2.6283
51638SOL    HW264845  12.833   5.564   6.445  0.0865 -0.9396  1.4766
51639SOL     OW64846   4.732   8.798   4.423  0.3608 -0.3142  0.1744
51639SOL    HW164847   4.662   8.759   4.371 -1.0129 -0.7166  2.2404
51639SOL    HW264848   4.763   8.872   4.370 -4.3339  2.4461  0.7506
51640SOL     OW64849   0.673   7.065   5.815 -0.2956 -0.1495  0.7077
51640SOL    HW164850   0.638   6.979   5.791 -0.7855 -0.0419  1.0324
51640SOL    HW264851   0.741   7.045   5.881  1.5331 -0.5032 -1.1768
51641SOL     OW64852   0.521   4.804   4.223  0.1182  0.4801  0.6562
51641SOL    HW164853   0.590   4.757   4.177  1.8122  1.2455  2.2897
51641SOL    HW264854   0.466   4.734   4.259  0.9655 -0.2012  0.6795
51642SOL     OW64855   0.707   9.032  10.910  0.4824 -0.1931  0.1503
51642SOL    HW164856   0.780   9.026  10.848 -0.7227  0.2893 -1.3893
51642SOL    HW264857   0.629   9.031  10.855 -0.7346 -1.3985  1.7795
51643SOL     OW64858  10.309   1.434   2.908  0.3643  0.5500 -0.1039
51643SOL    HW164859  10.312   1.502   2.975 -0.1630 -0.7697  1.3227
51643SOL    HW264860  10.345   1.356   2.952 -0.7998 -0.5636 -1.0652
51644SOL     OW64861   9.292   5.455  12.194  0.0935  0.4232  0.1121
51644SOL    HW164862   9.351   5.412  12.255 -0.4626 -1.7510 -0.7860
51644SOL    HW264863   9.321   5.426  12.107 -2.1439 -0.6255 -0.3625
51645SOL     OW64864   2.375  13.184   1.974  0.0611  0.0934 -0.3109
51645SOL    HW164865   2.364  13.254   1.909  0.3025  1.0773  0.6701
51645SOL    HW264866   2.364  13.228   2.058  0.5385 -1.0014  0.3453
51646SOL     OW64867   6.770   6.932   1.994 -0.2829  0.6213 -0.0940
51646SOL    HW164868   6.851   6.888   1.969  0.2888  0.9829  1.0761
51646SOL    HW264869   6.759   6.913   2.087 -1.3053  0.9662 -0.1253
51647SOL     OW64870   8.063   2.887   8.133  0.3728 -0.2822  0.0201
51647SOL    HW164871   8.070   2.810   8.190 -0.7323 -0.9620 -0.7230
51647SOL    HW264872   7.969   2.899   8.121  0.4733  1.9092  1.0477
51648SOL     OW64873  10.741   3.885   3.419 -0.3356  0.5176  0.3204
51648SOL    HW164874  10.739   3.856   3.510 -1.9158 -0.2936  0.0601
51648SOL    HW264875  10.723   3.806   3.368  0.0628  1.0483 -0.6743
51649SOL     OW64876   2.304   1.822   0.055  0.0114  0.1684  0.0707
51649SOL    HW164877   2.293   1.744   0.001  1.9234 -0.3915  0.4150
51649SOL    HW264878   2.215   1.856   0.067 -0.7107 -1.1249 -1.2783
51650SOL     OW64879  11.938  12.886   7.401 -0.1867 -0.4307 -0.1848
51650SOL    HW164880  12.007  12.820   7.409 -0.0949 -0.2943  0.1915
51650SOL    HW264881  11.947  12.921   7.313 -0.8648 -1.6207 -0.7446
51651SOL     OW64882   2.437  11.803   4.151  0.9755 -0.1509 -0.0773
51651SOL    HW164883   2.398  11.873   4.099  2.6409  1.6549  0.9582
51651SOL    HW264884   2.407  11.722   4.110 -0.6455  1.1656 -1.6126
51652SOL     OW64885   9.027   7.382   6.157 -0.0952  0.4866  0.3506
51652SOL    HW164886   9.071   7.350   6.079  0.9160 -0.2680  1.1936
51652SOL    HW264887   9.082   7.454   6.189 -0.9173  1.3122 -0.0408
51653SOL     OW64888   2.627   8.261  13.130 -0.3477 -0.2618 -0.3101
51653SOL    HW164889   2.633   8.185  13.072  0.3038  0.3149 -1.0321
51653SOL    HW264890   2.653   8.227  13.216 -0.4505 -0.9401 -0.5377
51654SOL     OW64891   9.994   8.450   9.377  0.2770 -0.1066 -0.0222
51654SOL    HW164892  10.086   8.439   9.400  0.1811 -0.4447  0.2052
51654SOL    HW264893   9.960   8.511   9.442  0.2941 -0.1296  0.0083
51655SOL     OW64894   1.657   1.000  10.255 -0.3064  0.1017 -0.6143
51655SOL    HW164895   1.636   0.930  10.318 -0.6277  1.2316  0.5728
51655SOL    HW264896   1.610   0.975  10.176 -0.5118 -0.9705 -0.1774
51656SOL     OW64897  12.190   9.395   0.609 -0.5502  0.1251 -0.1962
51656SOL    HW164898  12.200   9.302   0.631  0.2841  0.0857 -0.7298
51656SOL    HW264899  12.278   9.430   0.612 -0.2793  0.0516 -3.8261
51657SOL     OW64900   6.605  10.345   1.863 -0.3696  0.4207 -0.3288
51657SOL    HW164901   6.677  10.383   1.913  1.2088  0.0153 -2.1574
51657SOL    HW264902   6.619  10.376   1.773 -1.6962 -0.7535 -0.9906
51658SOL     OW64903   8.170  10.858   2.207 -0.5325 -0.0362 -0.0128
51658SOL    HW164904   8.240  10.801   2.177 -0.4348 -0.0946  0.3241
51658SOL    HW264905   8.154  10.832   2.298  0.3431  1.2553  0.5513
51659SOL     OW64906  12.602  12.537  13.304  0.0516 -0.4512 -0.2721
51659SOL    HW164907  12.677  12.480  13.323 -0.4690 -1.1331 -0.2404
51659SOL    HW264908  12.641  12.624  13.293  0.8076 -0.7255  0.1241
51660SOL     OW64909  10.341   4.745   8.898 -0.2970 -0.3090 -0.6330
51660SOL    HW164910  10.423   4.788   8.877 -0.5625  0.5719  0.0571
51660SOL    HW264911  10.289   4.749   8.818 -0.5823  1.3002 -0.3896
51661SOL     OW64912   4.422   4.112   4.412 -0.0348  0.2291  0.0941
51661SOL    HW164913   4.329   4.121   4.432 -0.1281 -0.0662 -0.2182
51661SOL    HW264914   4.435   4.019   4.393  0.3499  0.2433  0.2682
51662SOL     OW64915   1.844   4.098   8.045 -0.9299 -0.0266 -0.3451
51662SOL    HW164916   1.882   4.064   7.964 -0.3629  1.8032 -0.8871
51662SOL    HW264917   1.764   4.047   8.056 -0.0597 -1.6228 -1.0073
51663SOL     OW64918   6.336   4.281   1.700 -0.8944 -0.1954  0.0545
51663SOL    HW164919   6.287   4.331   1.635  1.2652  0.0345 -1.4842
51663SOL    HW264920   6.342   4.339   1.776 -0.6144  0.8769 -0.7681
51664SOL     OW64921  10.557   3.412  10.858  0.2598  0.1460 -0.2130
51664SOL    HW164922  10.639   3.373  10.825  0.2544  0.7246 -0.9291
51664SOL    HW264923  10.490   3.346  10.838  0.5037 -0.2101  0.1221
51665SOL     OW64924   4.936   6.571   4.232 -0.0809 -0.3765 -0.1390
51665SOL    HW164925   5.031   6.573   4.223 -0.0969  0.2391 -0.2428
51665SOL    HW264926   4.906   6.645   4.180 -0.6753 -1.0412 -0.7521
51666SOL     OW64927  11.127   4.049   1.067 -0.0468 -0.4916  0.8473
51666SOL    HW164928  11.220   4.049   1.091  0.4473  0.2440 -0.8630
51666SOL    HW264929  11.085   4.105   1.132  0.2291 -2.7066  3.0714
51667SOL     OW64930   2.741   0.426  11.042 -0.0170  0.0682 -0.9976
51667SOL    HW164931   2.787   0.497  10.997 -1.1577  2.0947  0.8034
51667SOL    HW264932   2.684   0.471  11.105 -0.9402 -2.4742  0.1246
51668SOL     OW64933  13.001  10.046   0.388  0.0064 -0.0842  0.1188
51668SOL    HW164934  13.029   9.972   0.441 -0.6828 -1.2574 -1.0838
51668SOL    HW264935  13.059  10.045   0.312 -1.7384 -1.1579 -1.2829
51669SOL     OW64936   5.074  11.132   4.737  0.2314 -0.4309  0.5250
51669SOL    HW164937   5.076  11.111   4.643  2.6157  1.5870  0.0384
51669SOL    HW264938   5.083  11.047   4.780  0.6463 -1.2626 -1.1066
51670SOL     OW64939   4.348   6.837   5.509 -0.1689 -0.1353  0.0797
51670SOL    HW164940   4.438   6.871   5.509  1.0018 -2.9370 -1.1715
51670SOL    HW264941   4.306   6.881   5.435  0.3445  0.7354  0.2860
51671SOL     OW64942   4.073  12.697  11.194 -0.0507  0.6078  0.0654
51671SOL    HW164943   4.011  12.635  11.232  1.8326 -1.2550  0.2893
51671SOL    HW264944   4.056  12.693  11.100 -0.5837  0.4966  0.1627
51672SOL     OW64945   5.241   5.627   6.506 -0.1572  0.0038 -0.1305
51672SOL    HW164946   5.246   5.705   6.561 -2.1198  0.9258 -1.1738
51672SOL    HW264947   5.162   5.581   6.536 -1.0241  0.3058 -1.8569
51673SOL     OW64948   5.975   0.463   1.687 -0.2270  0.0475  0.3459
51673SOL    HW164949   5.920   0.428   1.618 -1.3392  0.8429  0.8075
51673SOL    HW264950   6.045   0.509   1.640  1.7278 -3.2536 -0.3074
51674SOL     OW64951   4.677   5.264   5.095  0.1504 -0.0268 -0.0819
51674SOL    HW164952   4.644   5.260   5.185  1.1631 -0.9438  0.2670
51674SOL    HW264953   4.758   5.213   5.096  1.0130  1.2199 -1.1591
51675SOL     OW64954   5.592   7.315   5.325  0.3201  0.1814 -0.3429
51675SOL    HW164955   5.541   7.246   5.368  0.4691  0.8433  0.9186
51675SOL    HW264956   5.649   7.268   5.264  1.2549 -0.9231  1.3230
51676SOL     OW64957  10.011   1.083  12.570 -0.2137  0.7121 -0.3543
51676SOL    HW164958  10.021   1.049  12.658  0.1514  0.5806 -0.4440
51676SOL    HW264959   9.946   1.153  12.578  0.2910  1.1360  0.1378
51677SOL     OW64960   6.028   3.201   1.231 -0.1084  0.0719  0.3188
51677SOL    HW164961   6.023   3.162   1.144 -1.5533 -1.6981  1.1474
51677SOL    HW264962   6.083   3.141   1.282 -1.9561 -0.7132  1.4776
51678SOL     OW64963  12.723  11.184  11.433  0.2602  0.1305 -0.3031
51678SOL    HW164964  12.815  11.175  11.455  0.2122 -2.8103 -0.8646
51678SOL    HW264965  12.721  11.186  11.337 -0.2018  1.4855 -0.2810
51679SOL     OW64966   9.305   9.044   6.737  0.3669  0.0085 -0.2808
51679SOL    HW164967   9.301   8.957   6.697  3.7938 -0.2224 -0.4368
51679SOL    HW264968   9.298   9.028   6.831  1.2283 -0.5014 -0.2928
51680SOL     OW64969  12.069  12.922  11.361 -0.0012  0.3527 -0.1466
51680SOL    HW164970  12.147  12.923  11.305 -1.6703 -2.1100 -2.7843
51680SOL    HW264971  12.101  12.888  11.445  1.7290 -1.0458 -1.2955
51681SOL     OW64972  10.838   2.056  11.472  0.4451 -0.4666 -0.4377
51681SOL    HW164973  10.866   2.080  11.561  0.8737  1.3329 -1.0128
51681SOL    HW264974  10.816   2.140  11.431 -1.1692 -1.3930 -1.5798
51682SOL     OW64975   7.879   1.543   9.898 -0.1579  0.4786  0.3532
51682SOL    HW164976   7.961   1.509   9.860  0.0860  0.1716  1.1446
51682SOL    HW264977   7.890   1.638   9.898  0.6330  0.3995  1.4065
51683SOL     OW64978   7.835   9.088  10.635 -0.4658  0.4826 -0.0963
51683SOL    HW164979   7.906   9.138  10.674 -0.7225  0.1057  0.9073
51683SOL    HW264980   7.755   9.124  10.674 -0.6385 -0.8672  0.8966
51684SOL     OW64981   3.932   7.108   3.434 -0.3568 -0.4731  0.1655
51684SOL    HW164982   4.011   7.056   3.420 -0.0711 -0.2273  0.8441
51684SOL    HW264983   3.879   7.056   3.493 -1.3915 -1.3255 -1.4340
51685SOL     OW64984   0.887   3.160   2.248  0.4233 -0.0202  0.4307
51685SOL    HW164985   0.857   3.086   2.301  1.1031 -0.4664  0.2024
51685SOL    HW264986   0.982   3.152   2.246  0.6514  1.6823  1.5918
51686SOL     OW64987   4.961  11.993   6.405  0.1447  0.0219  0.3301
51686SOL    HW164988   5.019  12.011   6.330  1.1584  0.4167  1.1723
51686SOL    HW264989   4.999  11.916   6.446 -0.4609 -0.2457  0.3880
51687SOL     OW64990   3.832   8.564  12.426  0.5192  0.3725 -0.3226
51687SOL    HW164991   3.838   8.613  12.508  2.1810  0.3766 -0.4044
51687SOL    HW264992   3.922   8.563  12.392 -0.2860  1.3763 -2.7413
51688SOL     OW64993   7.559   0.408   2.110 -0.1659 -0.3092 -0.4191
51688SOL    HW164994   7.609   0.486   2.087 -0.0330 -0.0052  0.8310
51688SOL    HW264995   7.512   0.432   2.190 -1.1991 -1.0607 -0.7829
51689SOL     OW64996  12.963   7.133   0.972  0.8817  0.3409 -0.3123
51689SOL    HW164997  12.928   7.151   1.060 -1.7129 -1.8556 -0.7523
51689SOL    HW264998  13.029   7.064   0.986  0.5330  0.0546 -0.0655
51690SOL     OW64999   2.691   7.835   2.318 -0.0297 -0.5352  0.6194
51690SOL    HW165000   2.608   7.877   2.293  0.3091 -0.5060 -0.5051
51690SOL    HW265001   2.674   7.741   2.308 -0.0875 -0.5535  0.8949
51691SOL     OW65002   0.366   6.102  12.138  0.6760 -0.1697 -0.1100
51691SOL    HW165003   0.345   6.009  12.128  0.1827 -0.1198  0.4561
51691SOL    HW265004   0.452   6.102  12.182  1.0874 -0.3563 -0.8944
51692SOL     OW65005   8.191   9.623   2.466 -0.0434  0.1460 -0.1384
51692SOL    HW165006   8.134   9.649   2.393  1.5814  2.5795 -0.6822
51692SOL    HW265007   8.239   9.548   2.433 -0.9055 -0.1654 -0.7297
51693SOL     OW65008   0.726   6.987   5.046  0.1186 -0.4166 -0.3087
51693SOL    HW165009   0.721   7.007   5.140 -1.0343  2.0507 -0.8163
51693SOL    HW265010   0.818   6.967   5.030  0.7353  1.2278  0.9897
51694SOL     OW65011  10.888   5.919   7.808  0.2432  0.0022  0.0673
51694SOL    HW165012  10.959   5.947   7.750 -0.9658  0.0724 -1.4315
51694SOL    HW265013  10.906   5.827   7.826  0.9469  0.1333  0.0422
51695SOL     OW65014   0.601   3.899  12.444  0.7604  0.1545  0.2509
51695SOL    HW165015   0.682   3.909  12.394  0.9800 -0.3685  0.4884
51695SOL    HW265016   0.566   3.815  12.417  0.1760  0.4760 -0.0085
51696SOL     OW65017   7.061   2.517   0.441  0.2432 -0.3370  0.0040
51696SOL    HW165018   7.109   2.479   0.515 -0.0852 -2.3463 -0.7367
51696SOL    HW265019   7.083   2.610   0.443 -1.0338  0.0453  3.5867
51697SOL     OW65020   6.328   9.873  10.532  0.4293 -0.5520 -0.1814
51697SOL    HW165021   6.360   9.808  10.469  1.4529  1.0001 -1.3237
51697SOL    HW265022   6.233   9.862  10.531  0.4847 -1.0495 -1.4503
51698SOL     OW65023   0.499  11.931   1.655 -0.2253  0.2077  0.0701
51698SOL    HW165024   0.492  11.836   1.648 -1.0311  0.2449  0.2109
51698SOL    HW265025   0.567  11.945   1.721  0.1096 -0.2672 -0.1715
51699SOL     OW65026  12.271   7.534   8.845  0.1046  0.1107  0.0652
51699SOL    HW165027  12.199   7.594   8.829  0.1551 -0.2671 -1.7438
51699SOL    HW265028  12.230   7.456   8.883  0.0899  1.3501  2.9078
51700SOL     OW65029   8.368  10.221   6.115 -0.0041 -0.0023 -1.0161
51700SOL    HW165030   8.373  10.141   6.063 -0.3604  0.0492 -1.1285
51700SOL    HW265031   8.460  10.244   6.133  0.1071 -0.2390 -1.2791
51701SOL     OW65032  10.324   6.626  12.824 -0.4891  0.1080 -0.3373
51701SOL    HW165033  10.260   6.658  12.888  1.5783  0.1345  1.8072
51701SOL    HW265034  10.310   6.532  12.822  0.0530 -0.0209  0.9284
51702SOL     OW65035   4.344  11.277  12.732 -0.1535 -0.0470  0.7572
51702SOL    HW165036   4.397  11.349  12.696 -1.7658  1.0002  0.3804
51702SOL    HW265037   4.332  11.218  12.659 -0.2454  0.1665  0.5975
51703SOL     OW65038   1.163  11.700   9.307 -0.5424  0.7321  0.3665
51703SOL    HW165039   1.187  11.709   9.214 -0.5553 -1.6809  0.0667
51703SOL    HW265040   1.226  11.755   9.353 -0.6026  2.0794 -1.0394
51704SOL     OW65041   9.267   8.699   8.340  0.1482  0.3239 -0.0866
51704SOL    HW165042   9.272   8.625   8.402 -1.5663 -0.1059 -0.4001
51704SOL    HW265043   9.286   8.660   8.255 -0.1965  0.3545 -0.1789
51705SOL     OW65044  10.042   4.084   0.354 -0.0666 -0.3881 -0.2871
51705SOL    HW165045  10.099   4.125   0.418  1.1689  0.9319 -2.1247
51705SOL    HW265046  10.102   4.049   0.288 -1.3100 -0.6211 -1.3313
51706SOL     OW65047  10.592   1.401   6.530  0.5762  0.0450 -0.1601
51706SOL    HW165048  10.593   1.426   6.622  1.3874 -2.8258  0.7056
51706SOL    HW265049  10.672   1.440   6.494  1.0455 -0.0627  0.7283
51707SOL     OW65050   5.616   8.064   0.201 -0.0122  0.0538 -0.1772
51707SOL    HW165051   5.674   8.091   0.130 -0.6748 -1.2129 -1.2475
51707SOL    HW265052   5.563   7.994   0.163 -1.3364  0.2773  1.1631
51708SOL     OW65053   1.844   0.430   0.312 -0.2473  0.4506  0.3436
51708SOL    HW165054   1.809   0.380   0.386 -0.5848 -0.2942 -0.3048
51708SOL    HW265055   1.914   0.375   0.278 -0.1321  0.7658  0.0730
51709SOL     OW65056  11.732   5.668   0.632  0.5804  0.0864 -0.1230
51709SOL    HW165057  11.644   5.632   0.644  0.0786  1.5492  1.0212
51709SOL    HW265058  11.717   5.753   0.590  1.2786  0.9774  1.3257
51710SOL     OW65059   4.876   8.481  12.470  0.4771 -0.0885  0.3621
51710SOL    HW165060   4.783   8.502  12.482  0.5023  0.0279  0.3577
51710SOL    HW265061   4.884   8.390  12.500  0.2156 -0.3533 -0.3507
51711SOL     OW65062  11.673   7.994  10.631 -0.8083  0.4732  0.4707
51711SOL    HW165063  11.755   8.038  10.610 -0.6868  0.2969  0.5820
51711SOL    HW265064  11.649   8.026  10.718 -1.2270  1.0733  0.1452
51712SOL     OW65065   9.788   2.569   2.706  0.2022 -0.4811  0.1120
51712SOL    HW165066   9.832   2.560   2.621  0.2334  1.2233 -0.0860
51712SOL    HW265067   9.707   2.518   2.697 -0.1373  0.2482 -1.2065
51713SOL     OW65068   9.694  12.886  10.933 -0.9278 -0.1161  0.4106
51713SOL    HW165069   9.785  12.915  10.937 -0.9035 -0.2901  1.6809
51713SOL    HW265070   9.645  12.957  10.973 -1.3544 -0.0431 -0.2306
51714SOL     OW65071   2.742   2.920   7.099  0.3304 -0.1423  0.0649
51714SOL    HW165072   2.694   2.845   7.134 -0.4187  0.0489 -0.5307
51714SOL    HW265073   2.676   2.989   7.090  0.7172  0.1363 -0.7558
51715SOL     OW65074  12.206  11.025   0.924 -0.0968 -0.1683 -0.3328
51715SOL    HW165075  12.173  10.994   0.839  3.0491 -2.0580 -1.0489
51715SOL    HW265076  12.139  10.999   0.987 -2.3771  0.9945 -2.1579
51716SOL     OW65077   3.891   2.875  11.655  0.1823  0.5146  0.4303
51716SOL    HW165078   3.829   2.806  11.633  1.1209 -0.4526  0.7157
51716SOL    HW265079   3.977   2.832  11.652  1.0987  2.2402 -1.9576
51717SOL     OW65080   5.722  12.468   4.653 -0.4602  0.6954  0.5648
51717SOL    HW165081   5.766  12.384   4.650 -2.1602 -0.2132 -0.7507
51717SOL    HW265082   5.721  12.498   4.562  0.2361  2.2259  1.0318
51718SOL     OW65083  10.199   3.600  11.346 -0.6038 -0.9709 -0.3884
51718SOL    HW165084  10.281   3.642  11.321 -1.2362 -0.7677 -2.2225
51718SOL    HW265085  10.214   3.507  11.331 -0.2468 -1.1203  0.7269
51719SOL     OW65086  11.306  10.609   6.038  0.3974 -0.1737 -0.4406
51719SOL    HW165087  11.250  10.543   5.998  0.7673 -0.5179 -0.3972
51719SOL    HW265088  11.339  10.567   6.118 -1.2975  0.9030  0.9295
51720SOL     OW65089   1.185   8.497   1.985 -0.3126  0.1826  0.0656
51720SOL    HW165090   1.278   8.509   2.005 -0.4970  0.7073  0.6654
51720SOL    HW265091   1.147   8.465   2.067 -0.8455  0.9829  0.1368
51721SOL     OW65092   2.700  11.879   9.016 -0.6302  0.8778  0.3789
51721SOL    HW165093   2.626  11.924   8.975 -0.5053  0.3385 -0.4655
51721SOL    HW265094   2.767  11.947   9.026 -0.4251  0.8895 -0.9309
51722SOL     OW65095   7.393   4.065  12.470 -0.0545  0.1043 -0.5795
51722SOL    HW165096   7.477   4.090  12.433  1.5717 -3.1832  0.5141
51722SOL    HW265097   7.332   4.068  12.396  1.4372  0.7260 -1.8348
51723SOL     OW65098   9.168   1.955   0.269  0.4589 -0.0543 -0.0956
51723SOL    HW165099   9.077   1.924   0.267  0.7049 -0.8836  0.9434
51723SOL    HW265100   9.161   2.050   0.260 -0.3680 -0.2538 -2.3748
51724SOL     OW65101  10.793   0.717   4.098 -0.2140  0.2389  0.1919
51724SOL    HW165102  10.807   0.808   4.121 -0.2255  0.2413  0.1899
51724SOL    HW265103  10.715   0.691   4.148 -0.6116  0.4248 -0.3188
51725SOL     OW65104   8.456   9.669  10.029  0.5586  0.3368 -0.0030
51725SOL    HW165105   8.430   9.760  10.018  1.5113  0.6273  0.0453
51725SOL    HW265106   8.425   9.646  10.117  1.7780  1.1536  0.6716
51726SOL     OW65107   9.835   7.272   9.029  0.2675 -0.1326 -0.0274
51726SOL    HW165108   9.840   7.305   8.939  0.1398  1.6415  0.5952
51726SOL    HW265109   9.827   7.177   9.018 -1.0183  0.1320 -1.9241
51727SOL     OW65110   3.382  10.823   8.195  0.1981 -0.3869 -0.2543
51727SOL    HW165111   3.330  10.842   8.273  1.7729  0.5303  0.6201
51727SOL    HW265112   3.432  10.745   8.218  0.5130 -0.2349 -0.4167
51728SOL     OW65113  12.442  12.035  10.668  0.5706  0.2367 -0.2382
51728SOL    HW165114  12.406  12.060  10.583 -0.4931 -0.2095  0.0612
51728SOL    HW265115  12.518  11.981  10.647 -0.0383 -0.3755 -0.9208
51729SOL     OW65116   9.677   8.861  10.429  0.5469  0.5505  0.2616
51729SOL    HW165117   9.628   8.926  10.379 -1.4482 -0.0931  1.2642
51729SOL    HW265118   9.638   8.777  10.402  0.7550  0.0528  1.4548
51730SOL     OW65119  11.663   6.036   8.854  0.4490  0.7652  0.4402
51730SOL    HW165120  11.685   6.129   8.847 -0.0624  0.8251 -0.5820
51730SOL    HW265121  11.572   6.031   8.823  1.1962 -0.3672 -1.7441
51731SOL     OW65122  10.542   9.006  10.247 -0.5423  0.1686 -0.0192
51731SOL    HW165123  10.561   9.090  10.207  1.5141 -0.8917 -1.4836
51731SOL    HW265124  10.474   8.968  10.191  0.8714 -0.4536 -1.3939
51732SOL     OW65125   4.661  12.043  12.821  0.5878 -0.0733 -0.2043
51732SOL    HW165126   4.742  12.064  12.775  0.6670  0.3918  0.1358
51732SOL    HW265127   4.615  11.982  12.763  0.8998  0.1349 -0.6774
51733SOL     OW65128   4.704  12.712   5.252 -0.3647 -0.0032 -0.0118
51733SOL    HW165129   4.688  12.645   5.319 -0.0945  0.9675  1.0523
51733SOL    HW265130   4.738  12.787   5.300  2.6477 -0.2162 -1.5530
51734SOL     OW65131   9.669   6.973   2.044  0.0801  0.0468  0.3169
51734SOL    HW165132   9.583   7.009   2.065  0.2107 -0.3236  1.5719
51734SOL    HW265133   9.725   7.050   2.031  0.1195  0.3455  1.9738
51735SOL     OW65134   6.972  10.489   8.419  0.2526  0.1239 -0.0789
51735SOL    HW165135   6.905  10.421   8.413  0.9199 -0.4574 -1.2486
51735SOL    HW265136   7.046  10.447   8.463  0.4519  0.2698 -0.2723
51736SOL     OW65137   3.469   5.708   9.398  0.2087  0.1078 -0.1330
51736SOL    HW165138   3.510   5.627   9.367  0.4875  0.8271 -1.7644
51736SOL    HW265139   3.491   5.773   9.331 -0.5002  1.4012  0.8432
51737SOL     OW65140   0.740   9.557   6.781  0.0564  0.6116 -0.0306
51737SOL    HW165141   0.708   9.514   6.860  0.9254 -2.6706 -1.2911
51737SOL    HW265142   0.734   9.489   6.713  0.2638  2.9778 -2.5811
51738SOL     OW65143   4.045   9.598   6.102  0.4943  0.5808  0.6987
51738SOL    HW165144   4.084   9.670   6.152  0.5125  0.3437  1.0309
51738SOL    HW265145   4.000   9.544   6.168  1.1851 -0.1699  0.5741
51739SOL     OW65146  13.295   6.789  11.673 -0.3668 -0.0782 -0.2492
51739SOL    HW165147  13.310   6.817  11.583 -0.2291 -0.4188 -0.3325
51739SOL    HW265148  13.283   6.694  11.667 -1.7049  0.0533 -0.0836
51740SOL     OW65149  11.006   1.039  12.675  0.1954 -0.6011 -0.1992
51740SOL    HW165150  11.067   1.090  12.726 -0.1147 -1.7455  1.3959
51740SOL    HW265151  11.004   1.082  12.589  3.2444 -0.5534 -0.3579
51741SOL     OW65152  10.176  10.655   9.316  0.1699  0.1411 -0.0641
51741SOL    HW165153  10.197  10.743   9.286  1.5160 -0.1376 -0.0309
51741SOL    HW265154  10.104  10.666   9.378  2.0426  1.5600  2.0266
51742SOL     OW65155   0.668   4.226   0.177  0.0042  0.0977 -0.7195
51742SOL    HW165156   0.759   4.252   0.189 -0.1473  0.1513  0.3942
51742SOL    HW265157   0.633   4.290   0.115  0.3435  0.9562 -0.0453
51743SOL     OW65158   6.874   5.011   6.696  0.3896 -0.1029  0.8435
51743SOL    HW165159   6.828   5.055   6.768 -2.6316 -0.2151 -0.8367
51743SOL    HW265160   6.863   4.918   6.713 -0.3124 -0.1299  0.3046
51744SOL     OW65161   0.900   3.919   6.833 -0.0871 -0.2169 -0.1531
51744SOL    HW165162   0.919   3.843   6.778  2.5181  0.5065 -0.3949
51744SOL    HW265163   0.941   3.900   6.917 -1.8725 -0.2342  0.7613
51745SOL     OW65164   2.098   2.521  12.635 -0.0677 -0.1849  0.4538
51745SOL    HW165165   2.134   2.609  12.626  3.1897 -1.3921  0.2895
51745SOL    HW265166   2.055   2.504  12.551  2.8410 -0.1317 -1.1668
51746SOL     OW65167  12.166   6.953   8.335  0.1626 -0.8070  0.5063
51746SOL    HW165168  12.127   7.024   8.386  0.0397 -0.8563  0.4801
51746SOL    HW265169  12.115   6.875   8.358 -0.3637 -0.6944 -0.2404
51747SOL     OW65170   1.542   1.426   6.494  0.0575 -0.2664 -0.6367
51747SOL    HW165171   1.581   1.369   6.428 -0.7551  1.2837 -2.5502
51747SOL    HW265172   1.494   1.492   6.444 -0.8246  0.8377  1.5222
51748SOL     OW65173  11.948   7.992   3.493 -0.2366 -0.0612  0.0274
51748SOL    HW165174  12.003   8.060   3.453  0.9528 -0.1702  1.3914
51748SOL    HW265175  11.995   7.910   3.477  0.3427 -0.0882  1.7105
51749SOL     OW65176   3.951   2.194   2.128  0.1911 -0.0955  0.5400
51749SOL    HW165177   3.860   2.198   2.159 -0.0129 -1.5170  0.2262
51749SOL    HW265178   4.001   2.243   2.193 -0.7872  0.6086  0.7811
51750SOL     OW65179   7.902   3.304  11.999 -0.2780 -0.2500  0.7379
51750SOL    HW165180   7.832   3.239  12.004 -0.6634  0.2608  2.7564
51750SOL    HW265181   7.960   3.284  12.072  1.1430 -0.0062 -0.2701
51751SOL     OW65182   3.448   8.356   3.719 -0.4949 -0.1658 -0.0112
51751SOL    HW165183   3.496   8.403   3.651  0.1168  1.5518  1.5139
51751SOL    HW265184   3.479   8.265   3.713  1.9046  0.5811 -0.0446
51752SOL     OW65185   7.422   8.485   2.846  0.2080  0.4472  0.1452
51752SOL    HW165186   7.451   8.443   2.926  0.3539 -0.3441 -0.3111
51752SOL    HW265187   7.329   8.501   2.858  0.1701  0.0583  0.3514
51753SOL     OW65188   2.611   5.233   8.102  0.1940  0.0650  0.3497
51753SOL    HW165189   2.698   5.223   8.142  0.2723  1.7286  0.6665
51753SOL    HW265190   2.553   5.179   8.156  0.4946  1.3941  2.0922
51754SOL     OW65191   4.645   5.421   3.769 -0.3961 -0.0467 -0.3356
51754SOL    HW165192   4.575   5.378   3.818  0.1620 -0.1721  0.3768
51754SOL    HW265193   4.714   5.435   3.834  0.4486 -0.3893 -1.1341
51755SOL     OW65194   6.345   2.101   7.335  0.1319  0.1973 -0.0829
51755SOL    HW165195   6.416   2.077   7.276 -0.2616  0.8623 -0.8439
51755SOL    HW265196   6.273   2.127   7.277 -0.7036 -0.3622  0.6709
51756SOL     OW65197  12.813  11.984   3.254  0.3443  0.4099 -0.4648
51756SOL    HW165198  12.828  11.944   3.339  0.4436 -0.8957 -1.0791
51756SOL    HW265199  12.736  12.039   3.267 -0.4678 -0.8203  0.1443
51757SOL     OW65200  12.111   7.646   6.148  0.1346 -0.0522 -0.2825
51757SOL    HW165201  12.167   7.724   6.147 -1.1694  0.9334  0.0631
51757SOL    HW265202  12.125   7.608   6.234  0.3851  0.1081 -0.2516
51758SOL     OW65203   8.208   9.289   9.404  0.0528  0.1015  0.3113
51758SOL    HW165204   8.292   9.243   9.416 -0.6094 -0.8271  1.5653
51758SOL    HW265205   8.143   9.219   9.402 -0.8455  0.9072  0.7911
51759SOL     OW65206   3.727   9.292  10.448 -0.1241 -0.1670  0.9667
51759SOL    HW165207   3.650   9.283  10.391 -0.0580 -0.5186  0.9337
51759SOL    HW265208   3.695   9.272  10.536 -0.4658  1.3755  1.2296
51760SOL     OW65209   8.285   7.928   2.131  0.1276  0.2136 -0.0247
51760SOL    HW165210   8.254   7.902   2.044 -0.2552  0.5636  0.0016
51760SOL    HW265211   8.227   7.881   2.191  0.2161  0.1856  0.0381
51761SOL     OW65212   0.985  11.502  10.879 -0.2273  0.1427 -0.2454
51761SOL    HW165213   0.902  11.471  10.844 -2.2571  3.5015  1.1332
51761SOL    HW265214   0.980  11.485  10.973  0.1881  1.1988 -0.0081
51762SOL     OW65215   3.717   1.692   4.455  0.0272  0.4312 -0.0703
51762SOL    HW165216   3.677   1.776   4.478 -1.4355 -0.2756  0.0872
51762SOL    HW265217   3.709   1.639   4.534  0.4954 -0.0234 -0.3235
51763SOL     OW65218  12.609   8.119   5.937 -0.1618 -0.3641  0.3205
51763SOL    HW165219  12.621   8.035   5.981 -0.8956 -0.9703 -0.5837
51763SOL    HW265220  12.694   8.164   5.946  0.6766 -1.7496 -0.2800
51764SOL     OW65221  12.587  10.948  10.771 -0.1267 -0.2361  0.3138
51764SOL    HW165222  12.522  10.966  10.704  0.4173 -0.4996 -0.3025
51764SOL    HW265223  12.655  11.014  10.756 -0.1419 -0.1092  0.7968
51765SOL     OW65224   9.020   6.636   7.744  0.6068  0.0697  0.5742
51765SOL    HW165225   9.025   6.695   7.819  0.1930  1.1200 -0.1883
51765SOL    HW265226   9.099   6.582   7.750  1.0946  0.8375  1.1967
51766SOL     OW65227  11.280   7.532  11.032 -0.3123 -0.2658 -0.1613
51766SOL    HW165228  11.332   7.578  10.966  0.1905  1.4953  1.3787
51766SOL    HW265229  11.320   7.446  11.038  0.5356  0.0344 -1.1178
51767SOL     OW65230  10.193   1.158   0.714 -0.3119 -0.4082 -0.1829
51767SOL    HW165231  10.167   1.163   0.806  0.5632 -0.1276  0.0531
51767SOL    HW265232  10.259   1.088   0.711  0.0157 -0.0926 -0.5089
51768SOL     OW65233  10.512   0.630  11.657  0.2364 -0.1336 -0.2640
51768SOL    HW165234  10.447   0.688  11.697 -1.4975 -2.7185  0.9301
51768SOL    HW265235  10.486   0.542  11.684  3.7086 -1.4033 -0.5838
51769SOL     OW65236   6.028   2.642  12.850  0.2683 -0.1566  0.1827
51769SOL    HW165237   6.093   2.654  12.919  0.1199 -0.3927  0.3653
51769SOL    HW265238   6.064   2.687  12.774 -0.0424  1.0281  0.7092
51770SOL     OW65239   9.416   8.653  10.931 -0.1655 -0.3107  0.2184
51770SOL    HW165240   9.490   8.715  10.931 -1.2686  1.0625 -0.0437
51770SOL    HW265241   9.416   8.617  10.842 -0.0960  0.0548  0.0643
51771SOL     OW65242   3.923  12.835   5.316  0.1691 -0.0336  0.4326
51771SOL    HW165243   3.993  12.880   5.364  0.1434  0.7394 -0.2239
51771SOL    HW265244   3.843  12.866   5.358  0.1745  0.0623  0.3730
51772SOL     OW65245   4.729   5.043  11.027  0.4034 -0.2643 -0.5280
51772SOL    HW165246   4.715   4.952  10.999 -0.3671  0.1979 -1.7204
51772SOL    HW265247   4.824   5.055  11.020  0.7854 -1.5351  1.5292
51773SOL     OW65248   9.799   5.770  10.609  0.2788 -0.3368 -0.2321
51773SOL    HW165249   9.753   5.689  10.632  1.0782 -1.2134 -1.5766
51773SOL    HW265250   9.801   5.820  10.691 -2.5065 -0.4980  0.0358
51774SOL     OW65251  10.038  10.566   7.453  0.3154  0.4162 -0.2447
51774SOL    HW165252   9.963  10.511   7.429 -1.6823  1.8322  2.2501
51774SOL    HW265253  10.071  10.528   7.535  2.0134  0.1769 -0.9962
51775SOL     OW65254  12.702   5.693   8.117  0.3769  0.3366  0.2797
51775SOL    HW165255  12.614   5.656   8.127  0.3967  0.4218  0.7625
51775SOL    HW265256  12.761   5.624   8.149  0.6258 -0.5187 -1.8509
51776SOL     OW65257   5.792   6.734   4.805 -0.0922 -0.2982  0.0774
51776SOL    HW165258   5.745   6.716   4.886  0.0073 -2.3119 -0.2469
51776SOL    HW265259   5.724   6.734   4.737 -0.2951  2.2061  0.1857
51777SOL     OW65260   8.549  12.517   0.879  0.9274  0.0318  0.1797
51777SOL    HW165261   8.618  12.462   0.917  1.0520 -0.9274 -1.3286
51777SOL    HW265262   8.578  12.533   0.789 -0.9149 -0.6229 -0.5860
51778SOL     OW65263  10.463   9.941  12.920  0.1080 -0.0395 -0.6059
51778SOL    HW165264  10.534   9.933  12.857  1.6999 -1.5809  1.2510
51778SOL    HW265265  10.455  10.035  12.936  1.0348  0.2281 -1.6170
51779SOL     OW65266   5.034   5.099  10.941  0.0293  0.1509  0.6716
51779SOL    HW165267   5.094   5.110  11.015  1.2318  0.3581 -0.3140
51779SOL    HW265268   5.046   5.177  10.887  0.1826 -0.6312 -0.4541
51780SOL     OW65269   9.267   9.833   8.372  0.1278 -0.2823  0.4342
51780SOL    HW165270   9.332   9.801   8.435  0.2236  0.1920  0.5795
51780SOL    HW265271   9.183   9.801   8.405  0.1341  0.2835  1.0171
51781SOL     OW65272   8.453   0.924   2.720  0.1325  0.7106 -0.5697
51781SOL    HW165273   8.524   0.861   2.725  1.2795  2.0356  0.6950
51781SOL    HW265274   8.373   0.871   2.727  1.0715 -0.5389  1.8113
51782SOL     OW65275  10.601   4.381   3.921  0.5839  0.5601  0.0875
51782SOL    HW165276  10.614   4.472   3.895  1.9069  0.2100 -0.5423
51782SOL    HW265277  10.506   4.371   3.926  0.3838  1.6448 -1.0813
51783SOL     OW65278   1.398   6.450   2.441 -0.3421 -0.1797 -0.2291
51783SOL    HW165279   1.475   6.434   2.496 -1.7979  0.3006  2.0974
51783SOL    HW265280   1.399   6.380   2.376  2.2209  0.0319 -0.4985
51784SOL     OW65281   2.887   7.868   0.098 -0.3994  0.1768 -0.0822
51784SOL    HW165282   2.944   7.920   0.041  0.6823 -0.7034  0.1616
51784SOL    HW265283   2.835   7.815   0.038  0.1095 -0.1056 -0.2809
51785SOL     OW65284   6.284   1.282  12.470 -0.1269 -0.4422  0.3547
51785SOL    HW165285   6.189   1.286  12.460 -0.2305 -2.5126  0.0255
51785SOL    HW265286   6.298   1.259  12.562  0.0340 -0.4783  0.3222
51786SOL     OW65287   6.485   1.940  10.005 -0.2146  0.4235 -0.0882
51786SOL    HW165288   6.545   1.865  10.002 -0.8224 -0.0572 -1.0546
51786SOL    HW265289   6.415   1.912  10.064 -0.0103  0.5650  0.2186
51787SOL     OW65290   6.223   6.793   0.111  0.1437  0.3419  0.2946
51787SOL    HW165291   6.276   6.715   0.129  0.8832  0.6779 -0.3436
51787SOL    HW265292   6.269   6.837   0.040 -0.6298  1.0171  0.1962
51788SOL     OW65293  11.768   2.103   2.530  0.4463  0.2847  0.1780
51788SOL    HW165294  11.817   2.023   2.511  0.3541  0.3876 -0.5144
51788SOL    HW265295  11.835   2.172   2.535  0.4199  0.3455 -0.2977
51789SOL     OW65296   2.613   5.225  10.865 -0.1957  0.3302  0.7175
51789SOL    HW165297   2.554   5.243  10.938 -1.8910 -0.3510 -0.4343
51789SOL    HW265298   2.621   5.130  10.863  0.9761  0.4141  0.8584
51790SOL     OW65299   8.282   7.341   5.830  0.3759 -0.2031 -0.0009
51790SOL    HW165300   8.313   7.334   5.740  0.6708 -0.8708  0.1473
51790SOL    HW265301   8.313   7.427   5.859  2.3690 -0.9417  0.2242
51791SOL     OW65302   1.859   4.873  10.001  0.4570  0.2169 -0.2283
51791SOL    HW165303   1.918   4.926   9.948 -0.0973  0.4406 -0.6338
51791SOL    HW265304   1.813   4.817   9.937 -1.5503  1.7606 -0.2457
51792SOL     OW65305   4.823  10.023   9.000 -0.0764  0.0162  0.2419
51792SOL    HW165306   4.837   9.928   9.002  1.0468  0.1656  0.6283
51792SOL    HW265307   4.733  10.034   8.970  0.1729 -1.1364 -0.9973
51793SOL     OW65308   2.939   2.615   1.113  0.0297  0.5962 -0.0418
51793SOL    HW165309   2.986   2.684   1.066  0.4659  0.2051 -0.1960
51793SOL    HW265310   2.934   2.647   1.203 -0.3724  1.1289 -0.2530
51794SOL     OW65311   1.767  13.042   4.613 -0.0050  0.0616  0.0763
51794SOL    HW165312   1.691  12.992   4.584  0.8321 -0.9450 -0.4525
51794SOL    HW265313   1.742  13.134   4.601 -0.3243 -0.2755 -2.2720
51795SOL     OW65314  10.944  11.946  11.538  0.5816 -0.5894 -0.3452
51795SOL    HW165315  10.966  12.004  11.610 -0.3953 -0.2572 -0.2938
51795SOL    HW265316  10.909  11.867  11.580  1.9632 -1.2597 -0.4105
51796SOL     OW65317   4.492   7.882   8.104 -0.3481 -0.0939  0.4633
51796SOL    HW165318   4.509   7.946   8.174  0.4927  1.1521 -0.8196
51796SOL    HW265319   4.403   7.902   8.075 -0.7672 -0.7328  1.2663
51797SOL     OW65320  13.295  10.675  13.191  0.2214  0.3679  0.1126
51797SOL    HW165321  13.314  10.746  13.252  0.7521  1.3662 -1.1728
51797SOL    HW265322  13.221  10.629  13.230 -1.5941  2.9504 -0.0496
51798SOL     OW65323   4.950   7.498  10.969  0.0939 -0.0914  0.1819
51798SOL    HW165324   4.963   7.585  11.008  0.4112  0.2662 -0.6980
51798SOL    HW265325   4.947   7.438  11.044  0.0265  0.6563  0.7909
51799SOL     OW65326   9.537  13.229   5.990  0.1474 -0.2626 -0.1225
51799SOL    HW165327   9.503  13.317   5.974  0.8258  0.0603  0.1863
51799SOL    HW265328   9.463  13.172   5.972 -1.3542  0.5266  2.8788
51800SOL     OW65329  12.112   0.348   8.024 -0.1471 -0.4189  0.5674
51800SOL    HW165330  12.119   0.430   7.975 -1.2851  1.0701  2.7164
51800SOL    HW265331  12.195   0.341   8.071  0.4775 -1.2372 -0.6083
51801SOL     OW65332  11.259   6.054   7.291 -0.1334 -0.5688  0.3236
51801SOL    HW165333  11.250   6.071   7.385  0.1921  0.6310  0.1440
51801SOL    HW265334  11.351   6.033   7.279  0.0372  0.2854  0.1195
51802SOL     OW65335   5.863   3.273  11.403 -0.1646  0.1176 -0.3200
51802SOL    HW165336   5.844   3.316  11.487 -0.9040 -0.7098 -0.0474
51802SOL    HW265337   5.958   3.276  11.395 -0.1788  1.5754 -0.1895
51803SOL     OW65338   2.247   5.286   6.357 -0.0418 -0.3112 -0.2438
51803SOL    HW165339   2.289   5.203   6.380  0.8117  0.4198  0.9627
51803SOL    HW265340   2.181   5.299   6.426  1.9366  1.4745  1.4468
51804SOL     OW65341   0.723  11.848   9.863 -0.2017 -0.3574 -0.1073
51804SOL    HW165342   0.776  11.856   9.941  0.1934 -3.5946  0.1032
51804SOL    HW265343   0.773  11.893   9.794 -1.1757  3.7096  1.5660
51805SOL     OW65344  13.192   2.797   1.113  0.1549  0.0899 -0.1060
51805SOL    HW165345  13.195   2.883   1.071 -0.2721  0.2289  0.1357
51805SOL    HW265346  13.269   2.751   1.081 -0.6037 -0.1227 -1.7206
51806SOL     OW65347  10.574  12.209   1.843  0.5153  0.5975 -0.2433
51806SOL    HW165348  10.581  12.179   1.752  0.8578  1.0688 -0.3732
51806SOL    HW265349  10.567  12.304   1.837  2.3494  0.7984  0.2935
51807SOL     OW65350   9.311  12.709   0.382  0.3242  0.5824  0.6252
51807SOL    HW165351   9.372  12.712   0.456  0.2993 -0.6558  0.7057
51807SOL    HW265352   9.368  12.708   0.305  0.3477  3.0605  0.5319
51808SOL     OW65353   6.310  10.941  10.061 -0.2330 -0.2812 -0.1803
51808SOL    HW165354   6.398  10.908  10.075  0.1704  0.0992 -1.7223
51808SOL    HW265355   6.314  11.033  10.089  0.1793  0.0632 -1.3375
51809SOL     OW65356   3.001   5.909   6.766 -0.1303  0.0523 -0.6314
51809SOL    HW165357   3.040   5.972   6.706  0.9638  0.5773  0.5979
51809SOL    HW265358   2.913   5.943   6.782  0.3436  1.1022 -0.2150
51810SOL     OW65359   3.817   2.714   4.282  0.0602 -0.1577 -0.0139
51810SOL    HW165360   3.734   2.676   4.253 -1.2239  3.3471 -1.3904
51810SOL    HW265361   3.810   2.716   4.378 -2.4342  1.8316 -0.1273
51811SOL     OW65362   6.037  13.024   4.093 -0.3208  0.2845 -0.5583
51811SOL    HW165363   6.085  12.943   4.112  0.2250  0.6156 -0.5346
51811SOL    HW265364   6.012  13.057   4.179  1.3600  1.2985 -0.4301
51812SOL     OW65365   9.034  11.840   6.551  0.1454  0.4852 -0.4549
51812SOL    HW165366   9.129  11.835   6.540  0.1699  0.2617 -0.1590
51812SOL    HW265367   9.015  11.933   6.556  0.7456  0.5564  2.7323
51813SOL     OW65368   4.841   7.772   7.546  0.1378  0.1004 -0.0914
51813SOL    HW165369   4.918   7.823   7.522  0.5390  0.2861  1.4396
51813SOL    HW265370   4.857   7.748   7.637 -0.9789 -1.0600 -0.1843
51814SOL     OW65371   0.923   8.196   7.537  0.3596 -0.6509  0.1438
51814SOL    HW165372   0.857   8.127   7.533  0.0294 -0.3533  0.4069
51814SOL    HW265373   0.993   8.158   7.591  0.6890 -1.1945 -0.6403
51815SOL     OW65374   6.842   0.231   0.355  0.1705 -0.1964 -0.2543
51815SOL    HW165375   6.817   0.323   0.368 -0.4061 -0.5805  1.5677
51815SOL    HW265376   6.891   0.208   0.434 -0.1804 -1.6283 -0.4249
51816SOL     OW65377  12.490   1.751   2.390 -0.2012  0.0063  0.2303
51816SOL    HW165378  12.430   1.766   2.317  1.0024  0.1519 -0.7539
51816SOL    HW265379  12.520   1.838   2.415  0.2403 -0.1207  0.1573
51817SOL     OW65380   7.003   0.147  12.774 -0.4259 -0.3569 -0.4569
51817SOL    HW165381   7.072   0.164  12.838 -0.7463  0.3341 -0.2938
51817SOL    HW265382   7.022   0.059  12.742 -0.9043 -1.1914  1.4129
51818SOL     OW65383   8.519   1.999   3.660 -0.2622 -0.6108  0.3159
51818SOL    HW165384   8.610   2.027   3.663 -0.1455 -0.6717 -1.4294
51818SOL    HW265385   8.486   2.013   3.749  1.3155 -0.1859  0.8639
51819SOL     OW65386  10.874   4.669  11.861  0.1147  0.3688 -0.6702
51819SOL    HW165387  10.858   4.751  11.908  0.2006  0.0281 -0.0506
51819SOL    HW265388  10.957   4.684  11.816  0.5387  0.3339  0.0861
51820SOL     OW65389   1.966  12.278   9.119  0.4951 -0.1443 -0.0658
51820SOL    HW165390   2.000  12.361   9.083  0.1776 -0.0655 -0.1810
51820SOL    HW265391   2.034  12.250   9.181  0.2362  0.6233  0.5847
51821SOL     OW65392  12.317  12.696   8.308  0.8366  0.1466  0.0700
51821SOL    HW165393  12.304  12.666   8.218  1.2639  0.0268  0.0441
51821SOL    HW265394  12.282  12.627   8.362  1.9443 -0.4882  0.0141
51822SOL     OW65395   1.948   1.534   0.794  0.3565  0.0976  0.3383
51822SOL    HW165396   1.986   1.447   0.799 -1.6333 -1.0046 -1.9893
51822SOL    HW265397   2.017   1.588   0.756  1.2703 -0.6550  0.8747
51823SOL     OW65398   8.843   1.797   3.475 -0.1527  0.0625 -0.5781
51823SOL    HW165399   8.923   1.829   3.515 -0.6438 -1.1469  1.4878
51823SOL    HW265400   8.795   1.755   3.546 -2.1511 -0.1585 -1.9736
51824SOL     OW65401   9.458   9.403   3.125 -0.1674 -0.0125 -0.2331
51824SOL    HW165402   9.467   9.325   3.069  2.1403  0.4015 -0.5435
51824SOL    HW265403   9.541   9.450   3.113 -0.2850  0.9544  2.2646
51825SOL     OW65404  13.171   8.412   9.451  0.1514  0.3151 -0.0045
51825SOL    HW165405  13.136   8.338   9.402  0.1675  0.4021 -0.1478
51825SOL    HW265406  13.236   8.373   9.510  0.3408  0.2479 -0.2559
51826SOL     OW65407   7.485   9.162  10.098  0.1150 -0.1611 -0.2536
51826SOL    HW165408   7.429   9.202  10.164  0.7681 -0.3533  0.4375
51826SOL    HW265409   7.573   9.196  10.118  0.5505 -1.3054 -0.1375
51827SOL     OW65410   6.908   2.113  13.130  0.2223  0.2491  0.6684
51827SOL    HW165411   6.906   2.147  13.041 -0.5514  0.4013  0.7327
51827SOL    HW265412   6.993   2.070  13.138  1.7391  3.0477  0.9202
51828SOL     OW65413   3.689   5.447   4.637 -0.6420  0.2333  0.3459
51828SOL    HW165414   3.629   5.386   4.680 -1.0146 -0.1533 -0.7032
51828SOL    HW265415   3.760   5.459   4.701  0.7490 -3.2511 -0.3109
51829SOL     OW65416   3.577   2.960  12.191  0.2813  0.3133  0.2424
51829SOL    HW165417   3.488   2.928  12.177  0.6462 -0.2590 -0.8705
51829SOL    HW265418   3.566   3.052  12.215 -0.5876  0.3850 -0.3859
51830SOL     OW65419   1.046   2.828   4.254  0.0574  0.2281 -0.3113
51830SOL    HW165420   1.108   2.763   4.288  0.0793  0.0665 -0.6607
51830SOL    HW265421   0.974   2.828   4.317 -0.2550 -0.6169 -0.6591
51831SOL     OW65422   4.311   1.297   4.141 -0.0544 -0.0172 -0.1876
51831SOL    HW165423   4.306   1.226   4.077  0.7252 -0.7191  0.5004
51831SOL    HW265424   4.311   1.377   4.089 -1.1375 -0.5019 -0.9676
51832SOL     OW65425   0.875  10.759   5.139 -0.2669  0.2862 -0.0474
51832SOL    HW165426   0.810  10.793   5.201 -0.9831 -0.2267 -0.5005
51832SOL    HW265427   0.912  10.682   5.182  0.0670  0.5926  0.2211
51833SOL     OW65428   7.898  12.974   1.706  0.1107 -0.2556  0.3310
51833SOL    HW165429   7.891  13.065   1.736  1.5857  0.0648 -0.2121
51833SOL    HW265430   7.849  12.972   1.624  0.1272  0.0698  0.3099
51834SOL     OW65431  11.014   8.737  10.763  0.2648  0.0463  0.4486
51834SOL    HW165432  11.067   8.709  10.688  0.3895 -2.2373  1.3209
51834SOL    HW265433  10.928   8.756  10.725  0.6737  0.1964 -0.4431
51835SOL     OW65434   0.077   5.692   0.695 -0.1124  0.3322 -0.3216
51835SOL    HW165435   0.015   5.758   0.663  0.0121  0.2395 -0.7552
51835SOL    HW265436   0.057   5.684   0.788 -1.0304 -0.0016 -0.5392
51836SOL     OW65437   0.834  10.722   2.411 -0.0949 -0.1451  0.2292
51836SOL    HW165438   0.786  10.781   2.470 -0.9678 -0.2313 -0.3820
51836SOL    HW265439   0.799  10.635   2.430 -0.7716 -0.1066 -0.7763
51837SOL     OW65440   9.280  10.491   5.378 -0.4353  0.5335  0.0309
51837SOL    HW165441   9.247  10.401   5.379 -0.0341  0.3772 -0.7421
51837SOL    HW265442   9.369  10.484   5.344  0.4002  0.9724  1.9992
51838SOL     OW65443   6.856   8.339   7.637  0.4207  0.1629  0.1452
51838SOL    HW165444   6.921   8.271   7.655  0.2664  0.0964  0.4614
51838SOL    HW265445   6.844   8.337   7.542  0.1534 -0.5000  0.1888
51839SOL     OW65446  10.556   5.416   4.472 -0.0591  0.1878 -0.1251
51839SOL    HW165447  10.563   5.479   4.400 -0.9127 -0.2673 -0.6278
51839SOL    HW265448  10.610   5.453   4.542  1.4243  0.2363 -1.2679
51840SOL     OW65449   6.446   2.424   2.911  0.0541  0.1489  0.5895
51840SOL    HW165450   6.426   2.461   2.825  0.9224 -1.1730 -0.2015
51840SOL    HW265451   6.536   2.451   2.929  0.3210 -0.6719  0.4962
51841SOL     OW65452  11.094   3.662   8.664 -0.6238 -0.4688  0.1474
51841SOL    HW165453  11.041   3.683   8.742 -1.3230  2.1009 -0.9065
51841SOL    HW265454  11.183   3.687   8.689 -0.5105 -1.3998  0.7163
51842SOL     OW65455   7.924  10.093   9.022  0.5366  0.0221  0.7306
51842SOL    HW165456   8.011  10.057   9.040  1.1298 -0.5253 -2.6337
51842SOL    HW265457   7.875  10.021   8.983 -0.5743  1.0143  0.2272
51843SOL     OW65458   8.726  10.031   7.616 -0.0034  0.3581 -0.2192
51843SOL    HW165459   8.800  10.017   7.557  0.3901 -0.5673  0.4883
51843SOL    HW265460   8.755   9.998   7.700 -1.0118  0.5343  0.2108
51844SOL     OW65461   4.625  11.577   3.882  0.2276 -0.1848 -0.2311
51844SOL    HW165462   4.705  11.604   3.837  0.4272 -1.4418 -0.6733
51844SOL    HW265463   4.561  11.563   3.812  0.3500 -1.5228 -0.1071
51845SOL     OW65464   6.907   2.592  13.260  0.3098 -0.5479  0.3516
51845SOL    HW165465   6.919   2.590  13.355  1.0369 -1.6238  0.2611
51845SOL    HW265466   6.835   2.530  13.244 -1.0212  0.9524  0.3268
51846SOL     OW65467   9.165   8.185   7.584 -0.9185 -0.2352 -0.3238
51846SOL    HW165468   9.137   8.117   7.646  0.1687 -0.0476  0.4094
51846SOL    HW265469   9.105   8.258   7.599 -1.1394 -0.4744 -0.0285
51847SOL     OW65470   4.581   2.612   6.956  0.6221  0.6395  0.0288
51847SOL    HW165471   4.622   2.673   7.018  0.7452  2.5144 -1.7795
51847SOL    HW265472   4.615   2.639   6.871 -1.8796  0.1673 -1.1960
51848SOL     OW65473   4.506  10.719   0.786  0.8097 -0.2554 -0.3803
51848SOL    HW165474   4.590  10.750   0.819  0.2673 -0.0244  0.8419
51848SOL    HW265475   4.447  10.793   0.796  0.1086 -0.8766  0.1960
51849SOL     OW65476   5.842  12.437   1.043 -0.6287  0.7871  0.1018
51849SOL    HW165477   5.793  12.440   1.125 -1.1050 -0.0777 -0.1356
51849SOL    HW265478   5.818  12.353   1.004  0.3877  0.7302 -0.4350
51850SOL     OW65479   2.931  12.523   8.431  0.6831 -0.1241 -0.7855
51850SOL    HW165480   2.928  12.454   8.364  0.8088 -1.0585  0.1509
51850SOL    HW265481   3.024  12.543   8.440  0.6833 -0.1379 -0.7578
51851SOL     OW65482  11.424  11.894   8.133  0.4904 -0.3309 -0.7664
51851SOL    HW165483  11.427  11.972   8.079 -0.6025  0.5206  0.3664
51851SOL    HW265484  11.378  11.829   8.080 -1.7893  0.9040 -0.4045
51852SOL     OW65485   1.517  11.201  12.780 -0.1994  0.3732 -0.6768
51852SOL    HW165486   1.584  11.135  12.761 -1.8317 -1.6164  0.0028
51852SOL    HW265487   1.441  11.174  12.728 -1.1740  1.2598  0.2237
51853SOL     OW65488   5.452   4.990   0.333 -0.3877  0.5152  0.2770
51853SOL    HW165489   5.518   5.032   0.277  0.1724 -2.0435 -1.1383
51853SOL    HW265490   5.500   4.922   0.380 -1.2902  1.2443  2.3620
51854SOL     OW65491   3.886   4.083   2.320 -0.1208  1.1085 -0.3136
51854SOL    HW165492   3.905   4.115   2.408 -1.5541  0.6848  0.1716
51854SOL    HW265493   3.870   3.990   2.331  0.2754  0.9284 -1.1344
51855SOL     OW65494   0.068  11.208   0.199  0.4127  0.3275  0.2584
51855SOL    HW165495   0.125  11.284   0.206 -1.3769  2.0131 -2.0121
51855SOL    HW265496   0.097  11.162   0.120  0.0511 -0.0734  0.3516
51856SOL     OW65497   3.408   8.462   9.838 -0.1527  0.7204  0.1527
51856SOL    HW165498   3.397   8.459   9.743 -1.6553 -1.6807  0.3147
51856SOL    HW265499   3.337   8.519   9.869  0.8670  2.2171 -0.1753
51857SOL     OW65500   6.081  12.573   9.865 -0.3310 -0.3685  0.4900
51857SOL    HW165501   6.039  12.604   9.785  0.2680  1.5679  0.8716
51857SOL    HW265502   6.170  12.550   9.838 -0.1574  0.1956  0.5779
51858SOL     OW65503  11.065   9.141  12.628  0.4625 -0.0562  0.0783
51858SOL    HW165504  10.979   9.180  12.639  0.5156 -0.2914  1.5653
51858SOL    HW265505  11.126   9.207  12.662  0.9505  0.3504 -1.4805
51859SOL     OW65506   9.691   9.266   4.563  0.0956  0.1661 -0.0386
51859SOL    HW165507   9.762   9.226   4.614  0.0001  0.3692  0.2527
51859SOL    HW265508   9.672   9.348   4.609 -0.7621 -0.1876  0.2511
51860SOL     OW65509   3.536   7.314   3.300  0.3014  0.2569  1.0501
51860SOL    HW165510   3.586   7.278   3.373  0.8352 -0.4586  0.3504
51860SOL    HW265511   3.557   7.407   3.299  1.1152  0.0794  1.1630
51861SOL     OW65512   4.660  12.269   5.061  0.3533  0.1000  0.5128
51861SOL    HW165513   4.752  12.277   5.035  0.0515 -0.2616 -0.7404
51861SOL    HW265514   4.648  12.175   5.076  0.2734  0.1908  1.0176
51862SOL     OW65515   4.259   4.540   1.972  0.0184  0.1277 -0.4173
51862SOL    HW165516   4.252   4.620   1.919 -3.3107 -0.2181 -0.7150
51862SOL    HW265517   4.297   4.475   1.913  1.3866  1.0809 -0.6314
51863SOL     OW65518  12.936   0.473   1.901  0.4760  0.1223 -0.1925
51863SOL    HW165519  12.981   0.557   1.908  1.4479 -0.1051 -2.6048
51863SOL    HW265520  12.843   0.495   1.906  0.7399  1.2094  0.1895
51864SOL     OW65521   8.100  12.259   0.810 -0.0266 -0.0300 -0.0262
51864SOL    HW165522   8.187  12.221   0.814  0.3428  0.5826 -1.7204
51864SOL    HW265523   8.045  12.190   0.772  0.1834  0.3333 -1.0058
51865SOL     OW65524   0.452   1.302   2.661 -0.0780 -0.5613  0.6179
51865SOL    HW165525   0.391   1.329   2.593  0.9631 -1.2261 -0.6280
51865SOL    HW265526   0.468   1.209   2.644  1.4640 -0.3486  0.7485
51866SOL     OW65527   4.310  10.994   1.643  0.0290  0.1812 -0.3016
51866SOL    HW165528   4.394  10.949   1.633  0.4731  0.7433  0.7250
51866SOL    HW265529   4.333  11.082   1.673 -0.8728  0.7739 -1.2514
51867SOL     OW65530   2.909   2.593   9.048 -0.3936 -0.2493 -0.0700
51867SOL    HW165531   2.940   2.552   9.128 -0.7084 -0.0880  0.1336
51867SOL    HW265532   2.975   2.661   9.029 -0.6824  0.1796  0.4337
51868SOL     OW65533   1.776   7.354   0.266 -0.1397  0.1309 -0.0603
51868SOL    HW165534   1.816   7.348   0.352 -1.4930  3.2782  0.9246
51868SOL    HW265535   1.825   7.423   0.221 -0.8868  0.1075 -0.9505
51869SOL     OW65536   4.368   3.400   4.008  0.2143  0.1975 -0.3839
51869SOL    HW165537   4.377   3.489   3.975 -0.1362  0.5701  0.4889
51869SOL    HW265538   4.451   3.381   4.051  1.0314 -0.6374 -2.2327
51870SOL     OW65539  11.073   6.444   4.385  0.0644 -0.1351  0.2042
51870SOL    HW165540  11.078   6.464   4.291 -0.8002 -1.3409 -0.1243
51870SOL    HW265541  11.061   6.529   4.427 -0.0412  0.3758 -0.8355
51871SOL     OW65542   5.122   6.797  11.409 -0.0847 -0.3550 -0.4953
51871SOL    HW165543   5.149   6.885  11.436 -0.9655 -0.3573  0.4832
51871SOL    HW265544   5.026   6.800  11.411 -0.1565 -0.8959 -1.9656
51872SOL     OW65545   8.893  11.922   7.593  0.3898 -0.1117 -0.2123
51872SOL    HW165546   8.920  12.004   7.634  1.3994 -0.8711  0.6852
51872SOL    HW265547   8.958  11.906   7.525  0.8770 -0.7471  0.3889
51873SOL     OW65548   8.350   0.096  10.022  0.4317 -0.2358  0.2244
51873SOL    HW165549   8.354   0.055   9.936  0.1026  0.8708 -0.3248
51873SOL    HW265550   8.394   0.180  10.011 -1.7649  1.0181  0.4746
51874SOL     OW65551   5.132   6.885   3.931  0.6284  0.5214  0.2237
51874SOL    HW165552   5.148   6.967   3.978 -0.8765  0.6278  0.5851
51874SOL    HW265553   5.079   6.911   3.856  0.7280 -0.0272 -0.0389
51875SOL     OW65554   0.979   6.009  10.868  0.2473 -0.5807  0.8119
51875SOL    HW165555   0.912   5.949  10.900 -0.4136 -0.8785 -1.0212
51875SOL    HW265556   0.934   6.094  10.863 -0.2612 -0.9158 -1.0756
51876SOL     OW65557   3.040  13.234   7.418  0.2017 -0.3395  0.1397
51876SOL    HW165558   3.112  13.278   7.462  1.2733 -1.7088 -0.1686
51876SOL    HW265559   3.062  13.141   7.423 -0.3145 -0.6459 -2.0812
51877SOL     OW65560   0.587   0.864   3.487 -0.3782  0.6007 -0.2262
51877SOL    HW165561   0.600   0.959   3.491 -0.9041  0.6666  0.0142
51877SOL    HW265562   0.571   0.838   3.578  1.5214  0.0122 -0.0351
51878SOL     OW65563  11.027   6.516  10.335 -0.4611 -0.4473  0.6402
51878SOL    HW165564  11.022   6.441  10.275 -1.4764 -1.1732  1.5851
51878SOL    HW265565  10.980   6.586  10.290  1.1041 -0.1142 -0.5659
51879SOL     OW65566   4.076   1.318   8.765 -0.2391  0.3100  0.1249
51879SOL    HW165567   3.996   1.362   8.736  0.6915  2.6886  0.9536
51879SOL    HW265568   4.048   1.263   8.839 -1.3473 -0.1430 -0.6136
51880SOL     OW65569  11.894   5.289   7.607 -0.1058  0.4891 -0.6068
51880SOL    HW165570  11.854   5.348   7.670  0.5688 -2.3530  2.8337
51880SOL    HW265571  11.961   5.341   7.563  0.3389  2.3860  2.0919
51881SOL     OW65572   5.152   1.542  12.023 -0.8004 -0.3077  0.3934
51881SOL    HW165573   5.111   1.539  12.109  0.1919 -0.4708  0.8737
51881SOL    HW265574   5.245   1.556  12.041 -0.6850  0.4158 -0.6765
51882SOL     OW65575   8.795  12.865   5.936  0.3294 -0.6736 -0.4977
51882SOL    HW165576   8.801  12.961   5.938 -1.9686 -0.4735  1.8707
51882SOL    HW265577   8.770  12.841   6.024 -0.3309 -3.3914 -1.3489
51883SOL     OW65578   0.927   6.126   4.333 -0.2554  0.0642 -0.1554
51883SOL    HW165579   0.952   6.218   4.341  0.6785 -0.1989 -0.0264
51883SOL    HW265580   0.930   6.092   4.423 -0.6428 -0.0877 -0.1953
51884SOL     OW65581  12.220   5.984   3.082  0.2229  0.4793 -0.9550
51884SOL    HW165582  12.197   5.909   3.138  1.1326  0.6094 -0.3810
51884SOL    HW265583  12.149   5.989   3.018  0.4728 -1.3083 -1.4286
51885SOL     OW65584   0.665   8.674   8.230  0.4869  0.3011 -0.0633
51885SOL    HW165585   0.630   8.692   8.143 -3.7772  1.8340  1.7358
51885SOL    HW265586   0.639   8.584   8.248  0.7677  0.2114 -0.1015
51886SOL     OW65587  11.426   4.107  11.885 -0.2944 -0.2167  0.3843
51886SOL    HW165588  11.493   4.098  11.817  0.6294  0.7757  1.1456
51886SOL    HW265589  11.350   4.061  11.849  0.6086 -0.8940 -0.7295
51887SOL     OW65590   4.177   6.737   5.708 -0.3794 -0.2473 -0.0576
51887SOL    HW165591   4.159   6.663   5.649 -0.4251  0.5639 -1.0784
51887SOL    HW265592   4.256   6.777   5.673  0.8141 -0.9802  1.6692
51888SOL     OW65593   4.874   5.526   8.721 -1.0101  0.3500  0.3814
51888SOL    HW165594   4.962   5.553   8.693  0.1708 -3.8386 -0.6571
51888SOL    HW265595   4.878   5.523   8.816  1.8006 -4.2239  0.3892
51889SOL     OW65596  12.729  12.881  11.705  0.0900 -0.0781 -0.0867
51889SOL    HW165597  12.687  12.859  11.788 -2.5875  1.8608 -0.7916
51889SOL    HW265598  12.668  12.848  11.638  1.5064 -0.3669 -1.2853
51890SOL     OW65599   0.354   1.693   0.017  0.2153 -0.1302  0.6990
51890SOL    HW165600   0.414   1.626  -0.014 -0.8734 -0.1101 -1.6688
51890SOL    HW265601   0.277   1.644   0.046 -0.0630 -0.0007  0.1996
51891SOL     OW65602  12.904   8.577   5.113 -0.1298 -0.0573 -0.6033
51891SOL    HW165603  12.856   8.526   5.178 -1.1785 -1.5933 -2.4807
51891SOL    HW265604  12.932   8.514   5.047 -1.0142  1.6288 -2.7592
51892SOL     OW65605   5.916   0.702   5.547 -0.0430 -0.2381  0.0627
51892SOL    HW165606   6.006   0.669   5.545  0.0780  0.0981  0.0265
51892SOL    HW265607   5.908   0.748   5.630 -0.5551 -1.3155  0.6326
51893SOL     OW65608  11.398   6.803   5.343  0.0858 -0.3380  0.5076
51893SOL    HW165609  11.376   6.822   5.434  0.2603 -3.3905  1.2734
51893SOL    HW265610  11.454   6.726   5.347 -1.3777 -1.6888 -2.2863
51894SOL     OW65611   3.593   2.883   2.945  0.4168 -0.0461  0.4609
51894SOL    HW165612   3.514   2.879   2.998  0.5336 -1.4298  0.5752
51894SOL    HW265613   3.568   2.934   2.868 -0.9753 -1.5081 -0.1130
51895SOL     OW65614   5.267   7.082   2.012 -0.8135  0.3118  0.0518
51895SOL    HW165615   5.263   7.030   2.092  0.1372 -1.1060 -0.7573
51895SOL    HW265616   5.350   7.128   2.017 -1.1911  0.9715  0.3072
51896SOL     OW65617   8.921  11.728   9.296  0.1235 -0.1082  0.1123
51896SOL    HW165618   8.903  11.821   9.278  0.2626  0.4526  2.5451
51896SOL    HW265619   8.897  11.683   9.215  0.0667  2.0417 -1.1456
51897SOL     OW65620  10.103   8.159   3.371  0.1795  0.5397  0.2134
51897SOL    HW165621  10.041   8.155   3.444  0.9944  0.8907  0.9587
51897SOL    HW265622  10.082   8.084   3.316 -1.0866  0.8239  0.2892
51898SOL     OW65623   7.157  11.907   4.527  0.6869 -0.2413  0.0555
51898SOL    HW165624   7.231  11.917   4.467  0.6768  3.0362  0.3641
51898SOL    HW265625   7.084  11.952   4.483 -0.4392 -1.2764  0.8105
51899SOL     OW65626   7.466   1.527  11.833 -0.1172 -0.4146  0.3702
51899SOL    HW165627   7.461   1.461  11.764 -1.4512  1.6548 -1.6275
51899SOL    HW265628   7.548   1.573  11.816  0.2061 -0.7439  1.0062
51900SOL     OW65629   1.455   3.351  11.781 -0.1662 -0.0052  0.2946
51900SOL    HW165630   1.384   3.293  11.753 -1.3337  1.9176 -1.0247
51900SOL    HW265631   1.484   3.393  11.700  0.2552  1.6028  1.2359
51901SOL     OW65632   9.699   0.722  11.546 -0.0031 -0.1778 -0.0528
51901SOL    HW165633   9.630   0.787  11.554 -0.7088 -1.1372  2.4145
51901SOL    HW265634   9.780   0.773  11.547 -0.5719  0.9095 -2.4264
51902SOL     OW65635   0.386   6.374  12.412  0.0495 -0.0699 -0.2137
51902SOL    HW165636   0.418   6.435  12.346 -2.1202  0.8557 -0.5219
51902SOL    HW265637   0.440   6.392  12.489  0.9921  0.5662 -0.9978
51903SOL     OW65638   3.888  12.932   4.600 -0.0320 -0.5437 -0.3424
51903SOL    HW165639   3.819  12.888   4.550  1.3812 -0.9181 -2.0782
51903SOL    HW265640   3.934  12.985   4.536  1.9713 -1.1508  0.5072
51904SOL     OW65641   4.745   1.296  10.850  0.2121 -0.3714 -0.0128
51904SOL    HW165642   4.704   1.261  10.929 -1.2172  0.5215 -0.3268
51904SOL    HW265643   4.787   1.377  10.879 -0.6316  0.1532 -0.2139
51905SOL     OW65644   2.126   0.311   9.871 -0.1818 -0.0720 -0.2634
51905SOL    HW165645   2.129   0.406   9.883  1.5228 -0.0546 -0.6406
51905SOL    HW265646   2.033   0.290   9.874 -0.6010  1.6259 -0.2659
51906SOL     OW65647   2.079   0.486   6.477  0.5290  0.4551 -0.0152
51906SOL    HW165648   2.073   0.529   6.392 -0.7606 -0.4613 -0.4301
51906SOL    HW265649   1.991   0.450   6.492  1.5040 -2.0326  0.2774
51907SOL     OW65650   8.647   6.591  10.072 -0.8881 -0.3131  0.3292
51907SOL    HW165651   8.741   6.606  10.073 -0.9183 -0.0662  1.6003
51907SOL    HW265652   8.616   6.635   9.993  0.0731 -0.5159 -0.1754
51908SOL     OW65653   4.188  10.296   8.245 -0.3285 -0.6563 -0.1600
51908SOL    HW165654   4.237  10.263   8.170  2.1984 -1.4848  1.7111
51908SOL    HW265655   4.114  10.236   8.254 -1.2546  0.0419 -2.4878
51909SOL     OW65656  12.941   7.136  11.369  0.4752  0.2089  0.0858
51909SOL    HW165657  12.862   7.131  11.314  0.2930 -0.3514  0.3958
51909SOL    HW265658  12.986   7.214  11.337  0.4153 -0.1526 -0.9294
51910SOL     OW65659   4.237   3.544   5.056 -0.7889 -0.0919  0.1326
51910SOL    HW165660   4.288   3.504   5.127 -0.3767  1.4974  0.7789
51910SOL    HW265661   4.254   3.638   5.065 -1.1998  0.1945 -1.7167
51911SOL     OW65662   9.749   1.262   0.111 -0.0972  0.7258  0.3418
51911SOL    HW165663   9.697   1.278   0.190 -0.3059 -2.8376  1.0976
51911SOL    HW265664   9.839   1.253   0.143  0.4272  2.8023 -0.4001
51912SOL     OW65665   0.083   6.160   3.606  0.4074  0.5467 -0.3708
51912SOL    HW165666   0.062   6.070   3.633  0.6705  0.3884 -0.6821
51912SOL    HW265667   0.039   6.215   3.669  2.9520  0.1807  1.9145
51913SOL     OW65668   5.877   1.767  10.358  0.3923 -0.1709  0.5134
51913SOL    HW165669   5.790   1.728  10.359  1.7055 -3.3895  0.5275
51913SOL    HW265670   5.870   1.841  10.297 -1.9617 -1.3135 -0.7243
51914SOL     OW65671   1.686   0.329   9.926 -0.4110 -0.0308  0.2106
51914SOL    HW165672   1.747   0.283   9.985  0.6798  0.3811 -0.5706
51914SOL    HW265673   1.735   0.406   9.896 -0.8966 -0.2845 -1.3102
51915SOL     OW65674  10.036   1.680   2.037 -0.8331 -0.0046  0.6473
51915SOL    HW165675  10.018   1.685   1.943 -0.1168  2.0443  0.5780
51915SOL    HW265676   9.959   1.635   2.073 -3.2140  2.9162 -0.4255
51916SOL     OW65677   1.886   3.700  12.912  0.1336 -0.1732  0.1020
51916SOL    HW165678   1.918   3.612  12.893 -0.7780 -0.6618  0.7575
51916SOL    HW265679   1.848   3.694  13.000  0.3104  0.9490  0.2788
51917SOL     OW65680  13.005   7.677   2.470  0.0677  0.0292 -0.0887
51917SOL    HW165681  13.047   7.676   2.384  0.4076 -0.5031  0.0760
51917SOL    HW265682  13.021   7.589   2.505 -0.3414  0.1411  0.3844
51918SOL     OW65683   1.999   9.788  11.392 -0.7142 -0.1398  0.2381
51918SOL    HW165684   2.016   9.860  11.453 -0.9265  0.0095  0.1246
51918SOL    HW265685   2.073   9.792  11.331 -1.3196  0.7411 -0.4710
51919SOL     OW65686   1.183   9.053   4.944 -0.3601  0.3750 -0.0448
51919SOL    HW165687   1.219   8.989   4.884 -0.9605 -0.2848  0.2879
51919SOL    HW265688   1.089   9.055   4.925 -0.3951  0.9440  0.1392
51920SOL     OW65689   7.435  11.921   5.603  0.3457 -0.0590  0.1109
51920SOL    HW165690   7.466  11.904   5.692  1.8115  0.5536 -0.2556
51920SOL    HW265691   7.340  11.933   5.613  0.0433 -2.6435  1.1871
51921SOL     OW65692   5.737  13.126   3.947 -0.0429  0.0174 -0.1634
51921SOL    HW165693   5.751  13.208   3.994  3.3628  1.7084 -3.5683
51921SOL    HW265694   5.685  13.151   3.871  0.3694 -1.1256 -0.8469
51922SOL     OW65695   2.898  10.072   4.846 -0.5616  0.0426 -0.1649
51922SOL    HW165696   2.944  10.076   4.762  0.2276  0.2242  0.2640
51922SOL    HW265697   2.966  10.087   4.911 -1.4845  1.9592  0.4244
51923SOL     OW65698   5.859   2.185   6.493 -0.2163  0.2139 -0.3578
51923SOL    HW165699   5.794   2.120   6.465  0.0992  0.1029 -0.8323
51923SOL    HW265700   5.846   2.191   6.588  1.1429 -2.1093  0.0416
51924SOL     OW65701   4.531   5.080   2.740  0.2539  0.2928 -0.6762
51924SOL    HW165702   4.509   5.146   2.805 -1.5598 -0.3617 -0.5544
51924SOL    HW265703   4.625   5.090   2.726  0.7081  0.5086  1.9906
51925SOL     OW65704   8.890   2.735   4.017 -0.3649  0.1631 -0.3126
51925SOL    HW165705   8.974   2.757   4.058  1.2501 -2.3713 -1.9271
51925SOL    HW265706   8.894   2.774   3.930 -0.6639 -0.2837 -0.5356
51926SOL     OW65707  11.727   4.490   5.543  0.0319 -0.1925  0.1182
51926SOL    HW165708  11.683   4.430   5.603 -0.1969 -0.1963 -0.0512
51926SOL    HW265709  11.805   4.519   5.591 -0.2401 -0.0604  0.4831
51927SOL     OW65710   7.998   2.887   1.492  0.1382  0.3893  0.0064
51927SOL    HW165711   8.012   2.825   1.421  1.8435  1.2111 -0.4162
51927SOL    HW265712   7.905   2.911   1.485 -0.5405 -1.9608  0.1209
51928SOL     OW65713  11.808  11.830   5.063 -0.3100  0.2159  0.1154
51928SOL    HW165714  11.744  11.853   5.130  0.5926  0.3664  0.9558
51928SOL    HW265715  11.797  11.736   5.051 -0.0587  0.0667  0.9605
51929SOL     OW65716   1.268   7.143   9.814 -0.4815 -0.2021 -0.0807
51929SOL    HW165717   1.230   7.218   9.859 -0.2352  0.3480 -0.7534
51929SOL    HW265718   1.362   7.160   9.815 -0.4994  0.0745 -1.1892
51930SOL     OW65719   9.036   9.760   9.805 -0.3833 -0.7536 -0.1766
51930SOL    HW165720   8.961   9.788   9.858  0.2697 -0.5064  0.6503
51930SOL    HW265721   9.045   9.827   9.738 -0.5780 -0.5030  0.0457
51931SOL     OW65722   5.117   1.024   8.200 -0.3370  0.3136 -0.6582
51931SOL    HW165723   5.030   1.061   8.214  1.6034  5.0166  0.9234
51931SOL    HW265724   5.152   1.073   8.125  1.2297 -0.8615 -0.7447
51932SOL     OW65725   4.961   1.400   2.363  0.2301  0.3195 -0.0150
51932SOL    HW165726   4.872   1.416   2.330 -0.3126 -2.3528 -0.0721
51932SOL    HW265727   5.013   1.388   2.284 -0.3204 -2.4224 -0.0537
51933SOL     OW65728  10.348   3.246   3.968 -0.7741  0.2107  0.0385
51933SOL    HW165729  10.258   3.214   3.976 -1.1337  1.4407  1.4654
51933SOL    HW265730  10.351   3.323   4.026  1.1846  0.2245 -0.0126
51934SOL     OW65731  11.096   1.007   6.327  0.7576  0.1552  0.7991
51934SOL    HW165732  11.011   0.967   6.310  0.7954  0.2187  0.4391
51934SOL    HW265733  11.116   0.985   6.418 -0.7771  2.2427  1.6961
51935SOL     OW65734   9.596   0.434   4.900 -0.0746  0.0190 -0.4442
51935SOL    HW165735   9.635   0.397   4.821 -0.6404  0.7763 -1.0904
51935SOL    HW265736   9.590   0.528   4.883  2.4265  0.6681  1.6446
51936SOL     OW65737  11.717  10.232   0.406 -0.3610 -0.7853 -0.7221
51936SOL    HW165738  11.674  10.315   0.384  1.1882  0.2542 -0.0273
51936SOL    HW265739  11.666  10.198   0.479 -0.6886 -0.1581 -0.6468
51937SOL     OW65740  12.907   0.177   3.211  0.4173  0.1701  0.0604
51937SOL    HW165741  12.926   0.105   3.151 -0.5939 -0.1739  0.1272
51937SOL    HW265742  12.888   0.134   3.295  1.2532  0.6110  0.4870
51938SOL     OW65743   3.145   6.167   1.191  0.6389  0.1553  0.1542
51938SOL    HW165744   3.080   6.237   1.185 -2.2807 -2.4735 -1.8004
51938SOL    HW265745   3.219   6.199   1.140 -0.7918  1.6760 -1.0910
51939SOL     OW65746   8.782   0.398  10.122  0.3253 -0.0477  0.2870
51939SOL    HW165747   8.707   0.377  10.178 -1.0284  1.5060 -0.8126
51939SOL    HW265748   8.747   0.391  10.033  1.2304  1.5421 -0.2240
51940SOL     OW65749   0.952   0.529  11.261 -0.0573  0.4755 -0.1761
51940SOL    HW165750   0.915   0.450  11.222 -0.1418  0.5735 -0.2994
51940SOL    HW265751   0.876   0.577  11.295 -0.0357  0.6241 -0.3292
51941SOL     OW65752   4.369  10.175   3.113 -0.0044  0.1724  0.1499
51941SOL    HW165753   4.443  10.234   3.133 -0.4588  0.6154  0.5415
51941SOL    HW265754   4.291  10.230   3.125 -0.5221 -0.9061  2.0020
51942SOL     OW65755  11.924   0.607   1.756 -0.5212 -0.1586 -0.9075
51942SOL    HW165756  11.862   0.639   1.821 -0.6511 -0.3133 -0.9555
51942SOL    HW265757  11.925   0.512   1.768  0.1340 -0.1057 -0.5224
51943SOL     OW65758   3.312   1.380   0.991 -0.1909 -0.1215  0.6193
51943SOL    HW165759   3.376   1.318   1.025 -1.2475 -2.4566 -1.3440
51943SOL    HW265760   3.242   1.381   1.056  0.8279  0.8485  1.7569
51944SOL     OW65761   6.290   6.217   0.617  0.2677  0.0002  0.1027
51944SOL    HW165762   6.297   6.132   0.660  2.5236 -0.1905 -0.5226
51944SOL    HW265763   6.218   6.206   0.555 -0.0196 -1.1808  0.6085
51945SOL     OW65764  12.291   5.319   6.679 -0.5810 -0.4464 -0.9470
51945SOL    HW165765  12.282   5.330   6.584  0.0645 -0.8368 -1.0560
51945SOL    HW265766  12.287   5.224   6.692 -1.7429 -0.3454 -0.4683
51946SOL     OW65767   2.990   1.819   2.866 -0.2343  0.6685 -0.0258
51946SOL    HW165768   2.977   1.913   2.866  1.2360  0.8973 -0.6401
51946SOL    HW265769   3.053   1.804   2.937 -2.3325 -0.1886  1.7896
51947SOL     OW65770  12.922  10.600   3.388 -0.2462  0.0790 -0.1893
51947SOL    HW165771  13.012  10.596   3.354  0.4603 -0.7027  1.6422
51947SOL    HW265772  12.888  10.684   3.356  1.8091  1.2947  0.6085
51948SOL     OW65773   9.429   2.531   8.684 -0.3197 -0.2677  0.6623
51948SOL    HW165774   9.382   2.529   8.767 -2.2345 -1.2628 -0.3883
51948SOL    HW265775   9.454   2.622   8.672 -0.8458  0.0437  1.8731
51949SOL     OW65776   8.381  10.590   9.626 -0.2302 -0.2076 -0.1523
51949SOL    HW165777   8.370  10.527   9.555  1.2021 -1.0222  0.3182
51949SOL    HW265778   8.333  10.552   9.700  1.7282 -1.4732  0.5329
51950SOL     OW65779   8.781  12.639   9.328  0.2411  0.4164  0.5515
51950SOL    HW165780   8.787  12.569   9.262  0.3078  1.4686 -0.5854
51950SOL    HW265781   8.769  12.592   9.410 -1.8634 -0.9002 -0.4167
51951SOL     OW65782  12.545   9.481  10.411  0.8596  0.1469  0.4584
51951SOL    HW165783  12.517   9.558  10.461 -1.3805  0.0130 -0.4998
51951SOL    HW265784  12.599   9.517  10.341 -1.6753  1.1742 -1.1131
51952SOL     OW65785  11.825   9.490   7.940  0.0886 -0.5352 -0.5183
51952SOL    HW165786  11.891   9.423   7.958  1.0877  0.9107  1.4451
51952SOL    HW265787  11.857   9.569   7.983 -2.7083  0.3464  0.1715
51953SOL     OW65788   2.315   7.422   6.900 -0.0073 -0.5593 -0.1676
51953SOL    HW165789   2.287   7.370   6.825 -0.9414 -0.5648  0.1708
51953SOL    HW265790   2.245   7.413   6.963  1.1208 -1.1941  1.0375
51954SOL     OW65791   0.692   5.949   3.685  0.1385  0.0206  0.2100
51954SOL    HW165792   0.620   5.895   3.655 -0.3238 -1.2350  3.1819
51954SOL    HW265793   0.651   6.029   3.718  0.0782 -0.5519  1.5935
51955SOL     OW65794  11.542   1.407  10.205 -0.2993  0.1511  0.6240
51955SOL    HW165795  11.578   1.401  10.116 -1.8371 -1.3170  0.0405
51955SOL    HW265796  11.615   1.384  10.262  0.4069 -0.0857 -0.3396
51956SOL     OW65797   0.445   1.487   7.274  0.1027 -0.4290  0.3069
51956SOL    HW165798   0.488   1.402   7.282  0.7395 -0.1939 -0.5104
51956SOL    HW265799   0.437   1.519   7.364  0.1455 -1.2130  0.5888
51957SOL     OW65800   9.409   6.328   1.150  0.1872  0.2789  0.2713
51957SOL    HW165801   9.426   6.342   1.057  1.0493  0.3933  0.4367
51957SOL    HW265802   9.491   6.350   1.193 -0.3830  0.7915  1.1248
51958SOL     OW65803  10.787   6.263   0.430 -0.5695  0.1101 -0.0687
51958SOL    HW165804  10.853   6.322   0.466 -1.0278 -0.7726  2.4318
51958SOL    HW265805  10.709   6.318   0.420  0.3006  1.0306 -2.5418
51959SOL     OW65806  11.477  11.967   6.564  0.1179  0.2261 -0.2802
51959SOL    HW165807  11.411  12.018   6.516 -0.8400  0.2080  0.9901
51959SOL    HW265808  11.503  12.024   6.636 -0.0617 -0.5905  0.4445
51960SOL     OW65809   4.907   8.100   1.881 -0.0454 -0.3199  0.1660
51960SOL    HW165810   4.929   8.175   1.827  0.3196 -0.0971  0.6179
51960SOL    HW265811   4.814   8.084   1.864  0.2028 -0.6177 -0.9641
51961SOL     OW65812   4.247   4.790   4.675  0.0010  0.2471  0.0603
51961SOL    HW165813   4.155   4.792   4.704  0.1470 -1.8976  0.8155
51961SOL    HW265814   4.251   4.857   4.606 -2.2138  0.1549 -0.2566
51962SOL     OW65815   9.351   7.926  12.424  0.1160  0.4490 -0.0568
51962SOL    HW165816   9.261   7.916  12.393  0.2092 -0.8715  0.0507
51962SOL    HW265817   9.347   7.903  12.516  0.7347 -0.6243 -0.2859
51963SOL     OW65818   4.860   0.498   0.643  0.0279 -0.0601  0.4644
51963SOL    HW165819   4.783   0.544   0.609 -0.2889  0.1539  1.4646
51963SOL    HW265820   4.826   0.414   0.674 -0.1390  0.7003  2.4922
51964SOL     OW65821  10.518   3.053   0.327 -0.0310 -0.2348  0.1335
51964SOL    HW165822  10.432   3.024   0.296 -0.3885 -0.7019  1.4659
51964SOL    HW265823  10.565   2.972   0.347  0.3565  0.0372  0.3443
51965SOL     OW65824   1.825   8.457   6.650  0.5443  0.3018 -0.3754
51965SOL    HW165825   1.811   8.385   6.589 -0.9604 -0.9513  1.3208
51965SOL    HW265826   1.865   8.416   6.727 -2.9010  0.5677  1.7744
51966SOL     OW65827   9.812  13.042   2.071  0.4216 -0.4545 -0.0030
51966SOL    HW165828   9.780  12.967   2.121 -0.2213 -0.1089  0.1109
51966SOL    HW265829   9.758  13.115   2.099  1.0105  0.0524 -0.1513
51967SOL     OW65830   5.645   4.726   2.033  0.0147 -0.2178 -0.2773
51967SOL    HW165831   5.632   4.698   1.942 -0.3052  0.3657 -0.4122
51967SOL    HW265832   5.576   4.789   2.049 -0.3158 -0.7876  0.5853
51968SOL     OW65833   3.426  10.794   1.451 -0.1061  0.1419 -0.5387
51968SOL    HW165834   3.438  10.826   1.541  2.3133 -1.8557 -0.0226
51968SOL    HW265835   3.353  10.732   1.457 -0.0577  0.1336  0.0169
51969SOL     OW65836   0.792   1.435   6.474  0.1888 -0.1033  0.1852
51969SOL    HW165837   0.713   1.443   6.527  0.3024 -1.8343  0.6642
51969SOL    HW265838   0.814   1.342   6.477  1.2636  0.0557 -1.3726
51970SOL     OW65839   2.483   9.609   8.733  0.6601 -0.4678 -0.3831
51970SOL    HW165840   2.504   9.628   8.825 -0.1046  0.4528 -0.3790
51970SOL    HW265841   2.415   9.673   8.711 -2.8280 -3.7178 -0.1545
51971SOL     OW65842   8.108   4.744   5.476 -0.2889  0.0067  0.3908
51971SOL    HW165843   8.130   4.679   5.409 -2.6947  1.1047 -1.6154
51971SOL    HW265844   8.013   4.741   5.482 -0.1734  0.0172  3.8272
51972SOL     OW65845   9.681   6.976   3.075 -0.0481  0.3585  0.3594
51972SOL    HW165846   9.611   7.018   3.125  0.1994  2.4611 -0.9078
51972SOL    HW265847   9.650   6.887   3.060 -1.6778  0.7333  1.2686
51973SOL     OW65848  11.365  12.898   1.186  0.5083 -0.2774  0.0046
51973SOL    HW165849  11.318  12.916   1.105 -1.6157  0.0898  1.2231
51973SOL    HW265850  11.408  12.980   1.208  1.1845 -0.4162 -0.8071
51974SOL     OW65851  11.521   5.692   0.326 -0.4963  1.2182 -0.4938
51974SOL    HW165852  11.431   5.725   0.333 -0.5008  0.8569  2.0678
51974SOL    HW265853  11.536   5.646   0.408  1.0645 -1.2885 -2.0503
51975SOL     OW65854  11.491   1.737   1.471 -0.7440 -0.2233 -0.1994
51975SOL    HW165855  11.396   1.723   1.461 -0.7307 -0.9983  0.6300
51975SOL    HW265856  11.501   1.768   1.560 -0.0424 -2.1600  0.4551
51976SOL     OW65857  10.298   7.469   1.754  0.3036  0.1344  0.4612
51976SOL    HW165858  10.371   7.484   1.693 -0.5218  0.5416 -0.4382
51976SOL    HW265859  10.341   7.434   1.833  1.6703  1.8381  0.5493
51977SOL     OW65860   4.639   4.739   6.044  0.6924  0.3351  0.0230
51977SOL    HW165861   4.651   4.833   6.040 -0.9892  0.6547  1.1734
51977SOL    HW265862   4.547   4.728   6.069  0.2904 -1.6383 -1.9906
51978SOL     OW65863   3.864   2.214   2.754 -0.3487  0.0074  0.0528
51978SOL    HW165864   3.852   2.287   2.694 -0.8048 -0.3275 -0.2690
51978SOL    HW265865   3.781   2.166   2.751  0.4054 -1.3270 -0.8379
51979SOL     OW65866  10.807   6.792  11.173  1.2531  0.3805 -0.2609
51979SOL    HW165867  10.842   6.774  11.260  0.3692 -0.3686 -0.0388
51979SOL    HW265868  10.879   6.770  11.113  1.9238  1.0673  0.2756
51980SOL     OW65869   3.021   7.950   4.335  0.1278 -0.2271 -0.0440
51980SOL    HW165870   3.013   7.936   4.241 -1.5957 -0.6199  0.1170
51980SOL    HW265871   2.941   7.997   4.359  1.1955  1.1153  1.0212
51981SOL     OW65872   1.818  11.134   8.665 -0.8456 -0.0705 -0.1164
51981SOL    HW165873   1.829  11.187   8.586 -0.3738  0.5409  0.3479
51981SOL    HW265874   1.758  11.065   8.639 -2.3110  1.2745 -0.4665
51982SOL     OW65875   5.109   5.259  10.139  0.3277  0.2643  0.0141
51982SOL    HW165876   5.065   5.195  10.194 -0.2161  0.8244  0.2455
51982SOL    HW265877   5.105   5.340  10.189 -0.6049  0.9017 -1.0321
51983SOL     OW65878   3.019   5.444   4.595 -0.1618 -0.2742 -0.5038
51983SOL    HW165879   2.981   5.397   4.669 -0.6787 -0.0115 -0.5997
51983SOL    HW265880   3.085   5.384   4.560 -1.3507 -1.2759 -1.1104
51984SOL     OW65881  12.644   5.963   8.195  0.0521 -0.1371 -0.2221
51984SOL    HW165882  12.657   5.869   8.182 -1.5156 -0.5679  1.1142
51984SOL    HW265883  12.571   5.985   8.137 -0.5226 -0.0459  0.5327
51985SOL     OW65884   5.310  11.375   0.952 -0.0297 -0.5452  0.2173
51985SOL    HW165885   5.354  11.326   1.021 -1.6098  0.5447  2.0972
51985SOL    HW265886   5.268  11.448   0.997 -1.9842 -0.3447 -1.7436
51986SOL     OW65887   3.493   9.230   6.804  0.5537  1.0404  0.6043
51986SOL    HW165888   3.438   9.152   6.799  0.4289  0.9577  2.4514
51986SOL    HW265889   3.561   9.217   6.738  0.1898 -0.3464  0.4756
51987SOL     OW65890  10.759  11.584   1.837  0.2172  0.5259  0.2068
51987SOL    HW165891  10.803  11.591   1.922  1.6703  0.8496 -0.5338
51987SOL    HW265892  10.753  11.675   1.807  4.0912  0.2709 -2.0952
51988SOL     OW65893  12.028   0.626   6.550 -0.5874 -0.3112  0.3374
51988SOL    HW165894  11.982   0.655   6.628 -1.2248  0.8032 -0.4413
51988SOL    HW265895  11.967   0.567   6.506 -1.0205  0.6362 -0.3465
51989SOL     OW65896   2.212   6.584   1.412 -0.0619  0.0765  0.0985
51989SOL    HW165897   2.237   6.615   1.325  1.0217 -0.7005  0.1102
51989SOL    HW265898   2.291   6.594   1.465  0.1028 -1.9140  0.2959
51990SOL     OW65899   4.093  10.218  13.028  0.3760  0.6723 -0.1148
51990SOL    HW165900   4.084  10.313  13.019  1.8113  0.7333 -1.2308
51990SOL    HW265901   4.066  10.200  13.118  0.1712  2.1549  0.1416
51991SOL     OW65902  11.739   3.568   2.223 -0.2506 -0.3574 -0.3230
51991SOL    HW165903  11.648   3.576   2.249  0.0467  2.1898  0.2143
51991SOL    HW265904  11.748   3.628   2.149  1.4498  1.3653  1.1604
51992SOL     OW65905  12.176   2.782   1.351 -0.4926 -0.0854 -0.0148
51992SOL    HW165906  12.133   2.704   1.315  1.3157 -0.0362 -2.6077
51992SOL    HW265907  12.263   2.752   1.377  0.4176  1.0598 -1.5161
51993SOL     OW65908  12.102   4.059   0.191  0.2104 -0.1915 -0.3082
51993SOL    HW165909  12.101   4.044   0.286 -0.2472  1.1423 -0.0754
51993SOL    HW265910  12.112   4.154   0.182 -1.0874 -0.1336 -1.5672
51994SOL     OW65911  13.071   4.509   8.026  0.3014 -0.0544 -0.0793
51994SOL    HW165912  13.060   4.506   8.121  0.2856  0.3610 -0.0663
51994SOL    HW265913  13.061   4.602   8.004  1.5535  0.0426 -0.3274
51995SOL     OW65914   6.186  11.915   7.543 -0.0899  0.0558  0.0672
51995SOL    HW165915   6.279  11.937   7.550 -0.1839  0.9100 -1.0507
51995SOL    HW265916   6.165  11.871   7.625  1.3551 -0.3442  0.2424
51996SOL     OW65917   1.621   6.922  12.511 -0.7816  0.4415 -0.0681
51996SOL    HW165918   1.699   6.898  12.462 -0.5663  0.1555  0.4097
51996SOL    HW265919   1.632   7.016  12.529 -1.4249  0.8441 -1.5655
51997SOL     OW65920   2.265   5.949   0.624 -0.1303 -0.4573 -0.3711
51997SOL    HW165921   2.235   5.866   0.585  1.5236 -1.7449  0.9276
51997SOL    HW265922   2.184   5.993   0.650 -1.0889 -1.3985 -1.5727
51998SOL     OW65923   6.059   9.667   0.458 -0.0616  0.4521  0.0531
51998SOL    HW165924   5.965   9.663   0.475 -0.0788 -0.0908 -0.1439
51998SOL    HW265925   6.083   9.758   0.475 -0.2288  0.1391  2.1649
51999SOL     OW65926  12.153   0.621   9.094 -0.0668 -0.3817  0.9137
51999SOL    HW165927  12.205   0.700   9.086 -1.8021  0.7472  0.2888
51999SOL    HW265928  12.111   0.628   9.180 -0.1266 -0.6833  0.9117
52000SOL     OW65929   2.417  11.105   3.278 -0.1493  0.0130 -0.4043
52000SOL    HW165930   2.493  11.163   3.277 -0.5097  0.5048 -0.4128
52000SOL    HW265931   2.453  11.017   3.281  0.4079  0.2515  0.0481
52001SOL     OW65932   0.091   0.099  12.342  0.4111 -0.0420 -0.0982
52001SOL    HW165933   0.042   0.135  12.268  0.7637  1.3063  0.2983
52001SOL    HW265934   0.179   0.084  12.307  0.0036 -1.5604 -0.5471
52002SOL     OW65935   8.590   5.368   4.493  0.0225 -0.4780  0.5003
52002SOL    HW165936   8.503   5.401   4.516  0.3251  0.6400  0.1274
52002SOL    HW265937   8.574   5.308   4.420 -0.4210 -0.1278  0.3019
52003SOL     OW65938  11.245   9.606   3.491 -0.0998 -0.3838 -0.4140
52003SOL    HW165939  11.161   9.561   3.505 -0.6789  0.7898 -0.0500
52003SOL    HW265940  11.310   9.547   3.530 -1.1733  0.5870  3.1514
52004SOL     OW65941  11.888  10.537   0.124 -0.2087  0.1459 -0.5426
52004SOL    HW165942  11.863  10.575   0.208 -0.4813  1.0394 -1.0086
52004SOL    HW265943  11.958  10.475   0.145  0.6520  1.3066  0.2138
52005SOL     OW65944   7.197  13.159   8.289 -0.0451 -0.4782  0.3360
52005SOL    HW165945   7.171  13.114   8.209 -1.5698  0.5768  0.1878
52005SOL    HW265946   7.157  13.108   8.359 -0.9865  0.0897  0.2281
52006SOL     OW65947  11.175   1.623   3.587  0.8700 -0.2135 -0.2744
52006SOL    HW165948  11.170   1.546   3.644  1.0449 -0.4552 -0.5841
52006SOL    HW265949  11.246   1.675   3.624 -0.1688  0.5073  0.7907
52007SOL     OW65950   1.082  12.022   7.524  0.2167  0.5404  0.1941
52007SOL    HW165951   1.136  11.945   7.544 -1.0040 -0.3151  0.2791
52007SOL    HW265952   1.015  11.989   7.464  1.1486  2.0993 -1.8263
52008SOL     OW65953   9.765   3.536   0.167 -0.2682  0.2597 -0.0543
52008SOL    HW165954   9.747   3.504   0.078 -0.2788  2.3057 -0.8375
52008SOL    HW265955   9.753   3.459   0.223  0.0853 -1.1655 -1.8518
52009SOL     OW65956   8.080   4.849  12.002 -0.1850 -0.5597 -0.3177
52009SOL    HW165957   8.061   4.814  11.915 -2.0353 -1.3776  0.3543
52009SOL    HW265958   8.142   4.787  12.040  1.3848  0.3143 -1.3552
52010SOL     OW65959   9.984   4.609  11.324  0.5867 -0.2691  0.7466
52010SOL    HW165960   9.944   4.544  11.381 -0.3300  0.4938  0.9890
52010SOL    HW265961  10.042   4.559  11.267 -0.7709 -1.4122  0.3401
52011SOL     OW65962  11.425   2.656   3.097  0.5204  0.4465 -0.3642
52011SOL    HW165963  11.350   2.696   3.140  0.3751 -1.7984  1.6640
52011SOL    HW265964  11.475   2.615   3.168 -0.3964 -4.5690 -2.2398
52012SOL     OW65965   8.042   9.420   1.427 -0.5021 -0.1694 -0.6735
52012SOL    HW165966   8.093   9.392   1.350 -0.6906  0.4513 -1.0381
52012SOL    HW265967   7.988   9.345   1.449  0.4190 -0.7694 -0.4064
52013SOL     OW65968   2.862   2.214  11.104 -0.1079  0.0089  0.2880
52013SOL    HW165969   2.903   2.208  11.190  0.5290  1.5580  0.1288
52013SOL    HW265970   2.772   2.186  11.118  0.3866 -1.2219  1.1330
52014SOL     OW65971   6.229  10.578   7.526  0.0310 -0.1955 -0.0502
52014SOL    HW165972   6.186  10.656   7.492  0.9075 -0.1469 -1.1156
52014SOL    HW265973   6.166  10.507   7.511 -1.2148  0.4401  1.9130
52015SOL     OW65974   8.981   0.583   5.910  0.1564  0.0566 -0.0637
52015SOL    HW165975   8.917   0.612   5.975 -0.2006  1.1202 -0.8717
52015SOL    HW265976   8.963   0.636   5.832  0.1067 -1.6694 -1.2895
52016SOL     OW65977   9.813   1.055  10.655  0.4645 -0.4412 -0.0547
52016SOL    HW165978   9.730   1.031  10.696  0.9820 -0.7905  0.8080
52016SOL    HW265979   9.790   1.075  10.564 -0.9389  1.7327  0.7064
52017SOL     OW65980   9.484  12.923   4.661  0.2077  0.8214 -0.6359
52017SOL    HW165981   9.497  12.982   4.587  0.8787 -0.0461 -1.2381
52017SOL    HW265982   9.572  12.910   4.697 -0.1657  1.5613  0.5906
52018SOL     OW65983   2.508   9.887   8.352 -0.3227 -0.2542  0.1082
52018SOL    HW165984   2.548   9.801   8.361 -0.5358 -0.2419  1.3068
52018SOL    HW265985   2.578   9.943   8.318  0.3645 -0.4805  1.1140
52019SOL     OW65986   5.887  13.305   0.598  0.1134  0.1010 -0.0575
52019SOL    HW165987   5.825  13.257   0.543  1.0223  0.2971 -1.2935
52019SOL    HW265988   5.834  13.340   0.669 -0.6965 -2.1946  0.5532
52020SOL     OW65989   6.341   6.911   7.211 -0.0954 -0.0219  0.2065
52020SOL    HW165990   6.427   6.871   7.201 -0.0892  0.4748 -2.7236
52020SOL    HW265991   6.281   6.849   7.168 -1.2497 -0.2837  2.0494
52021SOL     OW65992   9.678   1.697   1.979  0.7303 -0.4912  0.1223
52021SOL    HW165993   9.585   1.692   2.001  0.8223  1.9792  1.3288
52021SOL    HW265994   9.716   1.618   2.020 -0.7992 -1.6229 -0.5315
52022SOL     OW65995   0.202   2.774   7.331  0.2846 -0.3778  0.0216
52022SOL    HW165996   0.254   2.841   7.288  3.0462 -1.5442  1.2765
52022SOL    HW265997   0.235   2.691   7.296 -0.1394 -1.2016  1.4562
52023SOL     OW65998   3.463   0.313   8.225 -0.0261  0.3838 -0.0788
52023SOL    HW165999   3.528   0.326   8.156  1.7088  1.9814  1.7285
52023SOL    HW266000   3.396   0.260   8.185  2.3013 -1.2130 -2.1424
52024SOL     OW66001   2.999   9.784   0.694  0.4664 -0.4271  0.3740
52024SOL    HW166002   2.979   9.809   0.604  0.1261  1.5093  0.9321
52024SOL    HW266003   2.954   9.850   0.748  1.5203 -0.9052  1.9272
52025SOL     OW66004   8.805   5.654   0.348 -1.0187 -0.1416 -0.0063
52025SOL    HW166005   8.712   5.675   0.356 -0.6197  1.8672 -0.0403
52025SOL    HW266006   8.820   5.648   0.253 -0.8177  1.1542 -0.0705
52026SOL     OW66007   2.349   6.429   1.837  0.7681  0.2878  0.2467
52026SOL    HW166008   2.303   6.487   1.898 -0.9491 -1.4143  0.6729
52026SOL    HW266009   2.362   6.348   1.886  2.7326  0.1154 -0.4724
52027SOL     OW66010   2.602   9.934   7.065  0.0463 -0.2941  0.1135
52027SOL    HW166011   2.696   9.943   7.052  0.2198 -1.4427  0.5073
52027SOL    HW266012   2.584   9.841   7.051 -0.8515 -0.2936  1.1169
52028SOL     OW66013  12.642  10.357   1.135  0.3211  0.1611  0.0338
52028SOL    HW166014  12.606  10.446   1.139  0.2171  0.1453 -0.4385
52028SOL    HW266015  12.687  10.354   1.050 -0.0119 -0.3678 -0.1241
52029SOL     OW66016   3.638   4.711   6.838 -0.0371 -0.4227 -0.4080
52029SOL    HW166017   3.715   4.767   6.831  1.6661 -2.7476 -2.0459
52029SOL    HW266018   3.668   4.636   6.889 -1.0550 -1.5564 -1.4155
52030SOL     OW66019   6.349  10.531   2.954 -0.4827 -0.2423 -0.3289
52030SOL    HW166020   6.308  10.606   2.998 -0.3869 -0.3461 -0.0591
52030SOL    HW266021   6.278  10.490   2.904 -0.7893 -0.6144  0.3935
52031SOL     OW66022   0.180   6.539  12.665  0.3676 -0.5911 -0.3096
52031SOL    HW166023   0.207   6.456  12.625  1.7995 -0.1718 -0.2822
52031SOL    HW266024   0.262   6.583  12.685 -0.2693 -0.5596  2.6514
52032SOL     OW66025   9.015   8.632  12.816 -0.6174  0.5216 -0.6855
52032SOL    HW166026   9.047   8.616  12.906 -0.7410  1.8629 -0.3784
52032SOL    HW266027   9.050   8.719  12.794 -1.7416  0.8048 -1.4104
52033SOL     OW66028   2.189   9.526   8.845 -0.0938 -0.2859 -0.1193
52033SOL    HW166029   2.274   9.536   8.887 -0.1641  0.9602 -0.2344
52033SOL    HW266030   2.130   9.582   8.895 -0.9178 -1.3375  0.1171
52034SOL     OW66031   9.564   2.378   2.754 -0.5146  0.2163 -0.4074
52034SOL    HW166032   9.585   2.319   2.827  0.0560  0.7090 -0.1625
52034SOL    HW266033   9.530   2.457   2.797 -0.6067  0.3376 -0.7042
52035SOL     OW66034   6.011   3.746  11.930 -0.4054  0.6314  0.1710
52035SOL    HW166035   5.978   3.751  12.020 -0.9357 -0.7451  0.0849
52035SOL    HW266036   5.963   3.814  11.883 -1.9710 -0.2283  0.4237
52036SOL     OW66037   9.764  10.159  12.142  0.7562 -0.4799 -0.0269
52036SOL    HW166038   9.817  10.106  12.201  0.7297  0.3733  0.7983
52036SOL    HW266039   9.675  10.151  12.176  0.6175 -0.6086 -0.4204
52037SOL     OW66040  12.155   4.967   6.308 -0.2833  0.1635  0.3308
52037SOL    HW166041  12.244   4.930   6.314 -0.0433  0.6708 -0.0615
52037SOL    HW266042  12.107   4.903   6.255 -0.6034 -0.9211  1.8334
52038SOL     OW66043  12.407  10.672   4.625 -0.4650  0.1271 -0.3194
52038SOL    HW166044  12.445  10.738   4.567 -0.6445  0.2411 -0.3116
52038SOL    HW266045  12.478  10.612   4.644 -0.2742  0.3701 -0.2570
52039SOL     OW66046  11.414   5.346   2.834  0.5530 -0.1393  0.0140
52039SOL    HW166047  11.446   5.301   2.912  0.2361  0.0962  0.2832
52039SOL    HW266048  11.407   5.277   2.768  0.5107 -0.4035  0.2917
52040SOL     OW66049   9.639  11.315  10.977  0.1602  0.4192  0.1022
52040SOL    HW166050   9.603  11.309  11.065 -1.5693 -0.5147 -0.6283
52040SOL    HW266051   9.732  11.295  10.988 -0.2575 -0.9265  1.5546
52041SOL     OW66052   2.694   5.718   2.672 -0.3962  0.1895 -0.0868
52041SOL    HW166053   2.686   5.629   2.639 -0.4256  0.0130  0.3859
52041SOL    HW266054   2.712   5.771   2.594 -1.1193 -0.1218 -0.4695
52042SOL     OW66055   6.572   7.328   9.986  0.1497  0.5489  0.2892
52042SOL    HW166056   6.610   7.343   9.900  0.3580  0.2987  0.3346
52042SOL    HW266057   6.615   7.391  10.043  0.5507  0.2265  0.3524
52043SOL     OW66058  11.072   7.221  13.177 -0.2011  0.1599  0.1482
52043SOL    HW166059  11.120   7.184  13.252  0.0353  1.7390  0.8068
52043SOL    HW266060  11.141   7.257  13.121 -0.2856 -1.9045 -1.4093
52044SOL     OW66061   1.277   3.253   1.678  0.7563 -0.0354  0.2037
52044SOL    HW166062   1.225   3.321   1.634 -0.2167 -1.1711 -0.4729
52044SOL    HW266063   1.292   3.187   1.610  0.8047 -0.9684  1.0988
52045SOL     OW66064  11.303   4.682   5.566 -0.5109  0.0166 -0.0234
52045SOL    HW166065  11.262   4.600   5.594 -0.9800  0.3360  0.2366
52045SOL    HW266066  11.397   4.664   5.569 -0.5509 -0.1096  1.3531
52046SOL     OW66067   8.203   0.587   0.887 -0.4329  0.3632  0.9299
52046SOL    HW166068   8.197   0.493   0.903  1.4471 -0.0235 -0.3556
52046SOL    HW266069   8.137   0.605   0.821 -0.8093 -0.0500  1.1881
52047SOL     OW66070   6.635   6.768   3.769 -0.1367  0.3913 -0.2125
52047SOL    HW166071   6.555   6.735   3.809 -0.1086 -0.4959 -0.8725
52047SOL    HW266072   6.705   6.715   3.808  0.1095  0.9558  0.1343
52048SOL     OW66073  12.902   4.291   5.429  0.8095 -1.4647  0.2842
52048SOL    HW166074  12.925   4.355   5.497 -1.3536  0.8364 -0.9668
52048SOL    HW266075  12.970   4.300   5.363  0.4239 -0.2584  0.0320
52049SOL     OW66076   7.972  11.972   5.284  0.1778  0.3237 -0.1809
52049SOL    HW166077   7.893  12.026   5.276 -0.5434 -0.8600 -1.3271
52049SOL    HW266078   8.043  12.036   5.294 -0.6761  1.4893 -1.2382
52050SOL     OW66079   3.895   0.160   7.216  0.2512 -0.2892  0.2783
52050SOL    HW166080   3.867   0.148   7.307 -1.3241  0.1646 -0.1010
52050SOL    HW266081   3.881   0.253   7.198  1.6371 -0.1320 -0.1090
52051SOL     OW66082  12.569   7.763   9.138  0.1429 -0.1352 -0.6077
52051SOL    HW166083  12.552   7.695   9.073 -0.7773  0.0190 -0.5353
52051SOL    HW266084  12.492   7.763   9.194 -0.9773  2.5196 -1.9660
52052SOL     OW66085   2.105   8.078   8.262 -0.0245  0.2408  0.7032
52052SOL    HW166086   2.076   8.051   8.350  0.5871 -1.2729  0.4627
52052SOL    HW266087   2.033   8.131   8.229 -0.2063  0.9677  2.1748
52053SOL     OW66088  12.269   2.902   3.217 -0.1960 -0.2023 -0.0474
52053SOL    HW166089  12.237   2.895   3.308 -1.5105 -0.2306 -0.4841
52053SOL    HW266090  12.336   2.970   3.221 -0.6136  0.1869  0.8702
52054SOL     OW66091   6.017   0.644   2.874 -0.2474  0.1787 -0.0710
52054SOL    HW166092   5.997   0.637   2.780  1.2150  0.0835 -0.3998
52054SOL    HW266093   5.982   0.564   2.912 -0.5774  0.0705 -0.5940
52055SOL     OW66094   5.954   7.767  10.472 -0.6835 -0.0372 -0.2098
52055SOL    HW166095   5.880   7.798  10.420 -2.1857  2.3519  2.9838
52055SOL    HW266096   5.922   7.688  10.515 -0.9360  0.2603  0.1573
52056SOL     OW66097   5.948   7.397   8.727 -0.0459 -0.3828  0.3229
52056SOL    HW166098   5.985   7.440   8.650  0.1067  2.0884  1.6605
52056SOL    HW266099   6.022   7.354   8.768  0.5971  1.1287  0.8240
52057SOL     OW66100   4.471   4.786   6.409 -0.0924 -0.2327  0.3292
52057SOL    HW166101   4.435   4.699   6.427 -0.4431  0.0056  0.8082
52057SOL    HW266102   4.425   4.844   6.470 -0.5542  0.4405 -0.6390
52058SOL     OW66103  11.642   2.877  13.152  0.0580  0.2299  0.1213
52058SOL    HW166104  11.734   2.901  13.137  0.0816 -0.3186 -0.6232
52058SOL    HW266105  11.619   2.921  13.234  1.1502 -0.0630  0.6026
52059SOL     OW66106  11.330  12.066   2.876  0.2878  0.1273  0.6463
52059SOL    HW166107  11.393  12.062   2.804 -0.6160  3.8339 -0.6172
52059SOL    HW266108  11.375  12.117   2.943 -1.0100  2.3361 -0.0535
52060SOL     OW66109  12.524   5.789   8.396  0.3737  0.4729  0.5147
52060SOL    HW166110  12.576   5.766   8.473  0.1863 -1.4032  0.1523
52060SOL    HW266111  12.505   5.882   8.406  1.3816  0.5495  2.1017
52061SOL     OW66112   5.803   8.361   4.502 -0.3201 -0.0462  0.2049
52061SOL    HW166113   5.896   8.369   4.524 -0.9420  2.5814  2.3337
52061SOL    HW266114   5.763   8.324   4.580 -0.9977 -2.5311 -1.1863
52062SOL     OW66115  11.590  11.893   9.235 -1.2624 -0.4148 -0.3539
52062SOL    HW166116  11.582  11.987   9.222 -0.4262 -0.4895 -1.5620
52062SOL    HW266117  11.675  11.881   9.277  0.1544 -0.8117 -3.1096
52063SOL     OW66118   1.442   3.995   3.204  0.1060  0.7279 -0.3968
52063SOL    HW166119   1.526   4.019   3.164  1.1795 -1.1195  0.6298
52063SOL    HW266120   1.409   3.924   3.149 -0.1060  0.5026  0.0182
52064SOL     OW66121   7.678  11.271   7.950 -0.1366 -0.2632 -0.0536
52064SOL    HW166122   7.701  11.362   7.969 -1.7496  0.1530 -0.0063
52064SOL    HW266123   7.585  11.264   7.971 -0.2166 -1.7371 -0.7628
52065SOL     OW66124   3.631   3.871   5.547  0.4999  0.1172  0.0349
52065SOL    HW166125   3.611   3.799   5.487  0.6778 -0.2148  0.3609
52065SOL    HW266126   3.681   3.933   5.495  1.8676 -0.8118  0.1683
52066SOL     OW66127   7.306   5.114   3.661 -0.2755 -0.2437  0.3713
52066SOL    HW166128   7.361   5.048   3.620  1.9116  1.1145  0.9455
52066SOL    HW266129   7.231   5.124   3.602  1.2133 -0.5656 -1.6662
52067SOL     OW66130   6.787   0.687  10.469  0.1894  0.0366 -0.1980
52067SOL    HW166131   6.863   0.680  10.411 -0.3962  1.3428 -1.1960
52067SOL    HW266132   6.817   0.742  10.541  0.7938 -1.2308  0.5451
52068SOL     OW66133   6.762   1.314   0.974  0.1043 -0.2239  0.1591
52068SOL    HW166134   6.811   1.381   0.926 -0.5857 -0.7928 -1.4274
52068SOL    HW266135   6.683   1.359   1.005 -0.8820 -0.4498 -1.8084
52069SOL     OW66136   4.161   4.611   3.955 -0.2468 -0.1875 -0.1280
52069SOL    HW166137   4.194   4.523   3.936 -0.6598  0.0811 -2.4041
52069SOL    HW266138   4.066   4.602   3.950 -0.2909  0.8072 -3.0330
52070SOL     OW66139  11.786  12.244   9.172  0.5888  0.0770 -0.1486
52070SOL    HW166140  11.763  12.164   9.126 -1.3123  1.1033 -1.0956
52070SOL    HW266141  11.861  12.279   9.125  1.3761 -1.0811  0.2248
52071SOL     OW66142   7.037   8.252   6.330 -0.4886  0.0017 -0.2084
52071SOL    HW166143   7.084   8.177   6.366 -0.0724  0.0171 -0.7020
52071SOL    HW266144   6.984   8.216   6.259  0.5262  0.3102 -1.1618
52072SOL     OW66145   1.315  13.048  12.538 -0.2551  0.1369  0.4239
52072SOL    HW166146   1.358  13.126  12.573 -1.2460  1.4437 -1.1240
52072SOL    HW266147   1.326  12.982  12.606  1.2514  1.3982  1.4782
52073SOL     OW66148   8.411  11.807   2.615  0.4899  0.7458 -0.8934
52073SOL    HW166149   8.421  11.889   2.665  3.4465 -0.5274  0.9097
52073SOL    HW266150   8.406  11.739   2.683 -0.1764 -0.7057 -2.3476
52074SOL     OW66151   4.136  10.471  10.250 -0.1288 -0.0770  0.1099
52074SOL    HW166152   4.071  10.405  10.275 -0.5915  0.3140 -0.0582
52074SOL    HW266153   4.106  10.552  10.291  1.4109 -0.3180  1.8571
52075SOL     OW66154  10.293  11.953   0.311  0.3247  0.4557  0.2206
52075SOL    HW166155  10.248  11.928   0.231  1.2596 -0.5201 -0.0307
52075SOL    HW266156  10.223  11.965   0.376 -0.2829 -2.0323  0.1237
52076SOL     OW66157   8.664   8.598   6.861  0.1110  0.2978 -0.0938
52076SOL    HW166158   8.745   8.551   6.840  0.3277  0.2907  0.7374
52076SOL    HW266159   8.668   8.611   6.956 -1.1768 -0.3074  0.0656
52077SOL     OW66160  10.663   0.843  12.959  0.0077 -0.1505  0.6660
52077SOL    HW166161  10.697   0.828  12.871  1.5233  0.7246  1.0771
52077SOL    HW266162  10.568   0.840  12.948  0.1688 -0.2395 -0.9565
52078SOL     OW66163   2.446   1.562   5.789 -0.0611  0.1673  0.3573
52078SOL    HW166164   2.409   1.551   5.701  1.2238 -0.2073 -0.1623
52078SOL    HW266165   2.486   1.649   5.787 -0.3452  0.3057  0.6945
52079SOL     OW66166  12.562   8.028   7.497 -0.9923  0.3474  0.1092
52079SOL    HW166167  12.469   8.016   7.515 -1.8762  4.6239 -0.3868
52079SOL    HW266168  12.564   8.080   7.417  1.8607 -0.0276 -0.1578
52080SOL     OW66169   7.198   0.501   9.622  0.2247  0.8306 -0.3836
52080SOL    HW166170   7.256   0.577   9.630  0.6743  0.3238  2.0521
52080SOL    HW266171   7.257   0.428   9.601  0.2312  0.6455  0.2519
52081SOL     OW66172  10.193  11.023  10.433 -0.2900  0.3930 -0.3870
52081SOL    HW166173  10.171  11.111  10.463 -0.1654 -0.0330  1.0273
52081SOL    HW266174  10.269  11.036  10.376 -1.6093  1.4151 -2.0110
52082SOL     OW66175   1.829   6.637   2.396  0.0281 -0.4006  0.2903
52082SOL    HW166176   1.799   6.683   2.474 -1.4625 -0.6515 -0.1045
52082SOL    HW266177   1.795   6.548   2.405 -0.2294 -0.4130 -0.6750
52083SOL     OW66178   0.066   9.779   8.333  0.2881 -0.2553 -0.2363
52083SOL    HW166179   0.039   9.746   8.419  0.8585 -0.2590 -0.0507
52083SOL    HW266180   0.031   9.716   8.271  0.0259 -0.3532  0.0096
52084SOL     OW66181  12.852   9.834   5.569 -0.5329  0.4915  0.3172
52084SOL    HW166182  12.796   9.796   5.636  1.7853 -2.8611  0.5906
52084SOL    HW266183  12.930   9.862   5.616 -0.3348  1.4150 -0.5387
52085SOL     OW66184  12.876   3.956   7.122  0.1820  0.1581  0.0587
52085SOL    HW166185  12.947   4.018   7.142 -0.1899  0.6413 -0.1041
52085SOL    HW266186  12.842   3.986   7.038 -0.0649 -0.2132  0.0274
52086SOL     OW66187   3.698  11.299   4.202  0.7904  0.3947 -0.2037
52086SOL    HW166188   3.752  11.243   4.258  2.4547  1.1310 -0.9890
52086SOL    HW266189   3.684  11.247   4.123  0.2065  0.1505  0.0549
52087SOL     OW66190   5.948   2.582   3.188  0.3471 -0.0730 -0.0320
52087SOL    HW166191   5.949   2.677   3.205 -0.0461 -0.3698  1.8242
52087SOL    HW266192   5.895   2.546   3.259  2.1672 -1.9168  0.4620
52088SOL     OW66193   6.400  11.345   9.954 -0.2451 -0.4243 -0.9481
52088SOL    HW166194   6.495  11.335   9.967 -0.3423 -1.1479 -0.7539
52088SOL    HW266195   6.362  11.330  10.040 -0.4989  0.5773 -0.8747
52089SOL     OW66196   7.480   7.911   5.310 -0.1398 -0.1610  0.2194
52089SOL    HW166197   7.564   7.881   5.276 -0.3045 -0.0980 -0.2639
52089SOL    HW266198   7.452   7.978   5.248 -0.6001 -0.2665  0.3059
52090SOL     OW66199  10.050   9.636   2.985 -0.2343 -1.0635  0.0617
52090SOL    HW166200   9.956   9.635   2.967  0.0903  0.9771 -2.3097
52090SOL    HW266201  10.063   9.711   3.042  0.0775 -0.4690 -0.7690
52091SOL     OW66202   9.609   8.671   8.186  0.4288  0.7387  0.4830
52091SOL    HW166203   9.540   8.727   8.149 -0.4478 -0.6249 -0.0120
52091SOL    HW266204   9.690   8.717   8.165 -0.2657  1.8992  0.2140
52092SOL     OW66205   6.481   7.911   4.296 -0.3383  0.3570 -0.4461
52092SOL    HW166206   6.566   7.885   4.260 -0.0256  0.9458 -0.1499
52092SOL    HW266207   6.500   7.937   4.386 -0.7174  1.0891 -0.5696
52093SOL     OW66208   2.656  11.448   6.564 -0.9496  0.6838 -0.4246
52093SOL    HW166209   2.645  11.385   6.493 -0.3560  0.0301  0.0568
52093SOL    HW266210   2.616  11.405   6.640 -1.3633  1.2778 -0.2975
52094SOL     OW66211   2.393   3.015   1.133 -0.5199 -0.1563 -0.0526
52094SOL    HW166212   2.405   2.958   1.209  0.4511  2.0061  1.4905
52094SOL    HW266213   2.472   3.003   1.081 -0.1795  0.0262  0.4254
52095SOL     OW66214   6.975   7.996   7.333  0.2123 -0.0360 -0.0524
52095SOL    HW166215   6.972   7.908   7.371  0.1561 -0.2781 -0.6073
52095SOL    HW266216   6.899   8.000   7.276  0.9321 -0.0983 -1.0367
52096SOL     OW66217   4.117  11.894   3.847  0.5594 -0.2408  0.0295
52096SOL    HW166218   4.055  11.966   3.855  1.9288  0.9727  0.2290
52096SOL    HW266219   4.112  11.869   3.755  0.6335  0.6892 -0.2469
52097SOL     OW66220   9.309   6.113  10.926 -0.0834  0.4461  0.6086
52097SOL    HW166221   9.283   6.074  11.009  0.6138  1.3139  1.2442
52097SOL    HW266222   9.398   6.084  10.911 -1.3785 -2.9223 -1.8178
52098SOL     OW66223   6.813   5.901  12.049 -0.7318  0.2204 -0.1153
52098SOL    HW166224   6.735   5.861  12.011 -0.2596 -0.2310 -0.6238
52098SOL    HW266225   6.879   5.897  11.980  0.6911 -2.2031  1.2346
52099SOL     OW66226  11.449   2.021   9.373  0.3388  1.1709 -0.0104
52099SOL    HW166227  11.448   2.081   9.298  1.2695  0.9427 -0.2093
52099SOL    HW266228  11.429   1.935   9.335  1.9710  0.8440 -0.2104
52100SOL     OW66229   3.048  10.345  12.941 -0.4561  0.0036  0.0297
52100SOL    HW166230   3.067  10.288  12.867 -0.3630 -0.7530  0.6195
52100SOL    HW266231   2.977  10.401  12.911  0.8534  1.0306 -1.2783
52101SOL     OW66232  11.687   9.504   1.895  0.7433 -0.1776 -0.0661
52101SOL    HW166233  11.624   9.542   1.956  1.3850 -1.0506  1.1891
52101SOL    HW266234  11.707   9.575   1.833 -1.5126  0.0902 -0.5834
52102SOL     OW66235   7.344   6.865   9.292 -0.6122 -0.3930  0.4239
52102SOL    HW166236   7.396   6.941   9.265 -2.2350  0.9248  0.8554
52102SOL    HW266237   7.321   6.822   9.209 -1.9772  1.1858 -0.0620
52103SOL     OW66238   0.599  12.611   1.342  0.1080 -0.1849  0.3910
52103SOL    HW166239   0.587  12.554   1.418 -0.3663  0.2000  0.6089
52103SOL    HW266240   0.694  12.608   1.325  0.0774 -1.0768  0.3620
52104SOL     OW66241   5.561   4.194   5.108 -0.1441  0.1663 -0.1486
52104SOL    HW166242   5.623   4.259   5.075 -0.7930  1.6061  1.3233
52104SOL    HW266243   5.481   4.208   5.058  0.3510 -0.9798 -1.3118
52105SOL     OW66244   5.938   7.894   7.101 -0.0132  0.0293 -0.4352
52105SOL    HW166245   6.022   7.879   7.144  0.6953  1.1855 -1.3432
52105SOL    HW266246   5.958   7.889   7.008 -1.3512 -1.6151 -0.6763
52106SOL     OW66247   2.568  11.243   1.561 -0.2346 -0.1875  0.0301
52106SOL    HW166248   2.617  11.211   1.485 -1.4004  0.0036 -0.8483
52106SOL    HW266249   2.608  11.201   1.636  1.3715  0.1178 -0.6255
52107SOL     OW66250   5.386  10.957   3.504  0.1969 -0.1496  0.9414
52107SOL    HW166251   5.387  10.913   3.419  0.8961  0.4743  0.6183
52107SOL    HW266252   5.370  11.049   3.483 -0.9477 -0.1750  1.5913
52108SOL     OW66253  11.018   1.742  12.660  0.0306 -0.0638 -0.5801
52108SOL    HW166254  10.970   1.825  12.659 -1.0223 -0.6369  0.0337
52108SOL    HW266255  10.950   1.675  12.649  0.7100 -0.8918  0.0985
52109SOL     OW66256   2.767  10.332   8.209  0.4050 -0.2359 -0.6076
52109SOL    HW166257   2.756  10.413   8.259  0.5172  0.4153 -1.6092
52109SOL    HW266258   2.798  10.268   8.274  0.3604  0.5310  0.1898
52110SOL     OW66259   2.282   1.045  11.775  0.2872  0.4898 -0.3123
52110SOL    HW166260   2.237   0.989  11.839  2.3112 -0.7678  0.1274
52110SOL    HW266261   2.316   1.118  11.827 -0.2423  0.8310 -0.4379
52111SOL     OW66262   4.629  10.960   2.555  0.0166  0.2400  0.2035
52111SOL    HW166263   4.716  10.919   2.558 -0.4720 -0.8257  0.4580
52111SOL    HW266264   4.569  10.887   2.537 -0.7436  1.0921 -0.8257
52112SOL     OW66265  12.511   7.178  10.519  0.2957 -0.2374 -0.5476
52112SOL    HW166266  12.593   7.222  10.499 -1.1142  3.8897  1.6376
52112SOL    HW266267  12.505   7.179  10.614 -1.3544 -2.4375 -0.5456
52113SOL     OW66268   5.646  10.190  13.314 -0.0433 -0.1173 -0.0993
52113SOL    HW166269   5.601  10.274  13.326 -0.6142 -0.2803 -0.9779
52113SOL    HW266270   5.606  10.131  13.377  1.8577  0.7899  2.0799
52114SOL     OW66271   0.704   0.784   5.427 -0.2655 -0.2672 -0.0920
52114SOL    HW166272   0.697   0.879   5.426 -0.3032 -0.2707 -0.1798
52114SOL    HW266273   0.780   0.765   5.482  0.1066 -0.1685 -0.5735
52115SOL     OW66274   8.501   7.533   7.516 -0.6363  0.0450  0.0726
52115SOL    HW166275   8.428   7.595   7.512  0.1096  0.9201 -0.3047
52115SOL    HW266276   8.552   7.551   7.437 -0.9044 -1.7069 -0.5480
52116SOL     OW66277   5.448   6.239   7.225  0.3048  0.7577 -0.1597
52116SOL    HW166278   5.401   6.251   7.307 -0.2257  2.5720 -0.6833
52116SOL    HW266279   5.540   6.241   7.249  0.1516  0.7235  0.4443
52117SOL     OW66280   2.144   9.642  11.885 -0.5971  0.3278 -0.5851
52117SOL    HW166281   2.197   9.717  11.860 -0.2078  0.4364  0.4949
52117SOL    HW266282   2.196   9.598  11.954 -1.5245 -0.0280 -0.0939
52118SOL     OW66283  12.183   4.153  11.721 -0.0127  0.3995 -0.5659
52118SOL    HW166284  12.194   4.218  11.790  1.3795 -0.3587 -0.0413
52118SOL    HW266285  12.103   4.180  11.676 -0.5550  1.3283  0.8755
52119SOL     OW66286  13.135   5.164   0.592  0.4115 -0.0860  0.0359
52119SOL    HW166287  13.137   5.152   0.497 -1.7340  1.0529 -0.2291
52119SOL    HW266288  13.109   5.079   0.627  0.5289 -0.3323 -0.4708
52120SOL     OW66289  11.383   2.960  10.661  0.2160 -0.5947  0.4741
52120SOL    HW166290  11.412   2.971  10.752 -1.9503 -0.7485  1.2543
52120SOL    HW266291  11.412   2.873  10.636  0.5054 -0.6967  1.1472
52121SOL     OW66292   0.421   0.522   1.806 -0.5488  0.6481 -0.5672
52121SOL    HW166293   0.482   0.561   1.743 -0.4798 -1.9455 -2.2478
52121SOL    HW266294   0.415   0.430   1.780 -2.1633 -0.0697  1.9887
52122SOL     OW66295   5.844   2.343   0.914  0.2262 -0.3360 -0.4140
52122SOL    HW166296   5.812   2.294   0.839  0.5642  1.2407 -1.6389
52122SOL    HW266297   5.939   2.337   0.909  0.3031  1.0532 -1.0422
52123SOL     OW66298   0.453   6.521   4.805  0.1568 -0.3110  0.0483
52123SOL    HW166299   0.426   6.444   4.755 -0.7893 -0.2870  0.4972
52123SOL    HW266300   0.541   6.541   4.773 -0.3773 -0.3394 -1.5461
52124SOL     OW66301   1.138   3.271   2.825 -0.2997 -0.3990  0.2225
52124SOL    HW166302   1.049   3.242   2.802  0.1537 -1.2003 -0.6041
52124SOL    HW266303   1.169   3.316   2.746  1.3760 -3.3715 -0.9665
52125SOL     OW66304   0.195  11.048  10.739 -0.3498  0.2547  0.0133
52125SOL    HW166305   0.100  11.038  10.734 -0.5205  1.5834  0.2145
52125SOL    HW266306   0.224  11.060  10.649 -0.6308  1.7878  0.1073
52126SOL     OW66307   9.269   2.751   0.259 -0.7618  0.2566  0.4005
52126SOL    HW166308   9.348   2.790   0.221 -1.3190  2.0440  1.0174
52126SOL    HW266309   9.217   2.724   0.183  1.7473 -4.0958 -0.1634
52127SOL     OW66310   7.196  12.685   9.433  0.3632  0.2441 -0.0773
52127SOL    HW166311   7.281  12.675   9.477  0.8354  0.0554 -1.0100
52127SOL    HW266312   7.201  12.626   9.358 -1.0372 -0.6308  0.4876
52128SOL     OW66313   7.240   6.556   1.703 -0.2387 -0.4698  0.0126
52128SOL    HW166314   7.301   6.535   1.632  1.1530  0.4271  0.8956
52128SOL    HW266315   7.195   6.635   1.673  0.9545  0.4008  0.4477
52129SOL     OW66316   6.244   0.083   2.799  0.1507 -0.1653  0.0690
52129SOL    HW166317   6.158   0.041   2.805  0.1274 -0.1105  0.1309
52129SOL    HW266318   6.285   0.044   2.722  1.0551 -2.0391  1.3973
52130SOL     OW66319   5.187   6.282   4.538  0.3766 -0.1167 -0.9042
52130SOL    HW166320   5.117   6.345   4.558  1.1825  0.0177  2.0651
52130SOL    HW266321   5.267   6.325   4.568  1.3085 -1.5082 -1.3183
52131SOL     OW66322   4.412   0.893   6.604  0.5241 -0.1565  0.1398
52131SOL    HW166323   4.393   0.876   6.697 -0.9597  1.2292  0.1207
52131SOL    HW266324   4.469   0.820   6.579  1.3907 -0.3046  2.2582
52132SOL     OW66325   2.238  11.572   1.096 -0.9117 -0.3825 -0.6425
52132SOL    HW166326   2.240  11.513   1.021  0.0689 -0.6663 -0.4177
52132SOL    HW266327   2.146  11.595   1.107 -0.9622  0.5658 -2.6254
52133SOL     OW66328   2.206  12.979   6.492 -0.2809  0.1102  0.5974
52133SOL    HW166329   2.234  12.887   6.491 -2.0980 -0.5205  2.0053
52133SOL    HW266330   2.121  12.977   6.535 -0.4826  2.4500  0.4030
52134SOL     OW66331  12.041   8.590  10.168  0.3909  0.9294 -0.4157
52134SOL    HW166332  12.129   8.561  10.146 -0.6055 -1.3909 -1.6758
52134SOL    HW266333  12.054   8.675  10.211  3.1820  0.7910 -0.7928
52135SOL     OW66334   4.171   5.103   8.463  0.1056 -0.5737  1.2222
52135SOL    HW166335   4.113   5.171   8.498  0.0137 -0.9704  1.8621
52135SOL    HW266336   4.253   5.115   8.511  0.1459 -0.8015  1.2106
52136SOL     OW66337  10.080   7.809   1.225  0.0616 -0.2145 -0.5732
52136SOL    HW166338  10.072   7.885   1.167  0.2258  1.8111  1.9044
52136SOL    HW266339  10.173   7.803   1.244 -0.1852  0.4180  0.9938
52137SOL     OW66340   9.365   4.755   7.166  0.7205 -0.3349  0.2268
52137SOL    HW166341   9.436   4.693   7.150 -0.3996 -1.6831  0.3884
52137SOL    HW266342   9.355   4.757   7.261  0.5511 -0.1297  0.2046
52138SOL     OW66343   4.607   1.827   7.960  0.3519 -0.0189  0.5639
52138SOL    HW166344   4.581   1.827   8.052  0.6290  0.2498  0.6445
52138SOL    HW266345   4.616   1.734   7.937 -0.7408 -0.1328  0.5100
52139SOL     OW66346   4.747   1.660   6.325 -0.0100  0.1702  0.0570
52139SOL    HW166347   4.815   1.711   6.369  1.4189 -1.5599 -0.0305
52139SOL    HW266348   4.760   1.678   6.232 -2.7814  3.5195  0.1358
52140SOL     OW66349   4.601   1.557  10.686  0.1666  0.1114  0.1337
52140SOL    HW166350   4.521   1.551  10.737 -0.3139 -2.4475 -0.7546
52140SOL    HW266351   4.670   1.572  10.751 -0.8048  0.2988  1.1458
52141SOL     OW66352   1.338  12.196   2.276 -0.3683  0.1838 -0.4094
52141SOL    HW166353   1.361  12.103   2.275  1.0665  0.5090 -0.3539
52141SOL    HW266354   1.389  12.233   2.203 -1.2568  0.8551 -0.7006
52142SOL     OW66355   5.004  12.132   4.538  0.2649  0.0152  0.1928
52142SOL    HW166356   4.959  12.124   4.453  1.8498  1.7025 -0.8748
52142SOL    HW266357   5.064  12.205   4.526  2.0335 -1.0471  2.1217
52143SOL     OW66358  12.105   4.894   6.954 -0.5100  0.8850  0.1689
52143SOL    HW166359  12.012   4.910   6.972 -1.1295  0.0642 -2.0454
52143SOL    HW266360  12.127   4.955   6.883 -0.1653 -0.8439 -1.2843
52144SOL     OW66361   5.257  10.340   4.274  0.9183 -0.4955 -0.7795
52144SOL    HW166362   5.172  10.367   4.308  1.2019 -1.6539  0.9998
52144SOL    HW266363   5.313  10.417   4.283  0.2619  0.0421 -1.2353
52145SOL     OW66364   4.245   6.476   1.107 -0.7144 -0.4247 -0.2909
52145SOL    HW166365   4.220   6.535   1.178 -2.1402  1.2978 -2.1180
52145SOL    HW266366   4.290   6.404   1.151 -0.4040  1.1678  2.2186
52146SOL     OW66367   8.297  12.784   7.158  0.2027  0.1089 -0.0258
52146SOL    HW166368   8.228  12.767   7.093  0.4216 -1.3984  0.1154
52146SOL    HW266369   8.305  12.879   7.158 -1.5153  0.3025 -0.4284
52147SOL     OW66370   1.233   9.026   0.393 -0.2251  0.3642 -0.2561
52147SOL    HW166371   1.306   9.085   0.414  0.5466 -1.0386  1.2674
52147SOL    HW266372   1.205   8.993   0.478 -0.0076 -2.1645 -1.0884
52148SOL     OW66373   2.917   3.199   1.746  0.6733 -0.0235  0.3012
52148SOL    HW166374   2.924   3.206   1.841 -1.8516  1.2035  0.4859
52148SOL    HW266375   3.007   3.204   1.714  1.5863 -0.7067  2.6160
52149SOL     OW66376   6.184   1.258   9.480  0.2506  0.1533 -0.4606
52149SOL    HW166377   6.181   1.170   9.442 -0.0371 -1.0990  2.2201
52149SOL    HW266378   6.128   1.310   9.423  0.0641 -1.4977 -1.8791
52150SOL     OW66379  11.415   0.918  11.021  0.5323  0.5501  0.1991
52150SOL    HW166380  11.420   0.888  11.112 -0.1713  1.8541  0.6917
52150SOL    HW266381  11.453   1.007  11.023  1.4535  0.2141 -0.9824
52151SOL     OW66382   1.783   3.274  13.314  0.0801 -0.0938 -0.0135
52151SOL    HW166383   1.809   3.213  13.383  0.9817 -0.0695 -0.3128
52151SOL    HW266384   1.750   3.218  13.243  1.2704 -0.2804 -0.4425
52152SOL     OW66385  12.870  11.982   9.342  0.5951 -0.1872 -0.1909
52152SOL    HW166386  12.788  12.019   9.374  0.4891  1.7750 -2.4206
52152SOL    HW266387  12.934  12.052   9.354  1.5962 -1.1296  0.0811
52153SOL     OW66388   2.327   9.454   3.518  0.3708  0.5434 -0.1289
52153SOL    HW166389   2.245   9.412   3.491 -0.2352  1.1949  0.6596
52153SOL    HW266390   2.390   9.382   3.521 -0.0341  0.1097 -1.2437
52154SOL     OW66391   9.261   7.804   4.309 -0.1253  0.2258 -0.6226
52154SOL    HW166392   9.245   7.879   4.253  0.5166  0.1517 -0.9181
52154SOL    HW266393   9.347   7.771   4.281 -0.1489 -0.2784 -0.1237
52155SOL     OW66394   8.964  11.713  13.106  0.1732 -0.1583  0.3367
52155SOL    HW166395   8.895  11.763  13.063  0.7084  1.4051  1.2133
52155SOL    HW266396   8.917  11.650  13.161 -0.5538  0.3955  0.3687
52156SOL     OW66397   4.660  11.089   1.236 -0.1387 -0.3153 -0.2159
52156SOL    HW166398   4.739  11.041   1.212 -0.2876 -0.5064 -0.3275
52156SOL    HW266399   4.664  11.169   1.184 -1.3299 -1.5013 -2.2512
52157SOL     OW66400   0.300   8.298   7.318  0.1175 -0.1570  0.4975
52157SOL    HW166401   0.210   8.287   7.349 -0.5136 -0.5199 -1.3833
52157SOL    HW266402   0.339   8.211   7.328 -0.4929 -0.6126 -0.9288
52158SOL     OW66403  10.041   9.946   7.998  0.4117 -0.3852  0.5203
52158SOL    HW166404  10.016   9.914   7.911 -1.2398 -0.0093  0.8258
52158SOL    HW266405   9.996  10.031   8.005  3.8106  1.6422  0.1246
52159SOL     OW66406   4.567  12.239   2.482  0.4563 -0.0142 -0.4855
52159SOL    HW166407   4.539  12.316   2.431 -0.5514 -0.2998 -0.3958
52159SOL    HW266408   4.504  12.235   2.554  0.7601 -0.6811 -0.2554
52160SOL     OW66409   0.206   9.479   2.371  0.8074 -0.1622 -0.1899
52160SOL    HW166410   0.284   9.509   2.417  1.6224 -0.8297 -1.1012
52160SOL    HW266411   0.136   9.536   2.402  1.1600 -0.9949  2.4086
52161SOL     OW66412   9.328  11.493   6.602  0.0353 -0.1672  0.0759
52161SOL    HW166413   9.240  11.474   6.572 -0.2155 -0.7044  1.0936
52161SOL    HW266414   9.316  11.537   6.686  0.7402 -0.7350  0.4884
52162SOL     OW66415   5.221  11.553   1.922  0.4847 -0.3317 -0.0544
52162SOL    HW166416   5.263  11.468   1.928 -0.3455 -0.7404  0.0666
52162SOL    HW266417   5.281  11.613   1.968  0.7055 -0.9778  0.5122
52163SOL     OW66418   1.563   1.647   1.303 -0.1795 -0.1032  0.1903
52163SOL    HW166419   1.582   1.709   1.373  0.8184 -0.9174  0.6764
52163SOL    HW266420   1.472   1.621   1.319 -0.6034  1.1962 -0.0166
52164SOL     OW66421   8.977   2.618   1.133  0.1378  0.0489 -0.4419
52164SOL    HW166422   8.978   2.555   1.205 -0.5573 -1.0353 -1.3497
52164SOL    HW266423   9.037   2.581   1.069  0.4810  0.8287 -0.5715
52165SOL     OW66424   6.855   0.104   2.388 -0.4332 -0.5410 -0.7303
52165SOL    HW166425   6.853   0.010   2.368 -2.0478 -0.7213  0.1294
52165SOL    HW266426   6.801   0.113   2.466  0.5235  0.9855 -0.2133
52166SOL     OW66427   0.568   1.275   1.778  0.1796 -0.1263  0.2352
52166SOL    HW166428   0.634   1.260   1.846 -0.9716 -3.6956  0.7608
52166SOL    HW266429   0.502   1.330   1.820  0.6424 -0.3124  1.2276
52167SOL     OW66430   8.584   9.491   2.956 -0.1109 -0.0567  0.4115
52167SOL    HW166431   8.548   9.442   3.030 -1.2006 -0.2278 -0.2147
52167SOL    HW266432   8.643   9.429   2.913  0.3246 -0.0404  0.9757
52168SOL     OW66433   3.373   1.888   7.725  0.3430 -0.0908  0.2473
52168SOL    HW166434   3.348   1.956   7.662  1.4845  0.4028  0.2887
52168SOL    HW266435   3.291   1.862   7.767 -0.4235 -0.3656 -1.3661
52169SOL     OW66436   5.014   2.509   8.395  0.7717 -0.0074 -0.1099
52169SOL    HW166437   4.979   2.533   8.481 -0.4978  0.7649 -0.8082
52169SOL    HW266438   4.937   2.487   8.343  1.6387 -2.6037 -0.4722
52170SOL     OW66439   2.890   1.046   0.188 -0.0895 -0.3676 -0.0779
52170SOL    HW166440   2.914   0.962   0.149 -0.2656 -0.4097 -0.0969
52170SOL    HW266441   2.933   1.047   0.273  1.4723  0.3277 -0.8372
52171SOL     OW66442   9.771   9.734   2.943  0.4681  0.2256  0.1669
52171SOL    HW166443   9.697   9.754   2.885 -1.2654 -0.9425  1.8461
52171SOL    HW266444   9.819   9.817   2.950 -0.5585  0.9695 -1.1248
52172SOL     OW66445  12.347   3.450   3.720 -0.2103  0.5612  0.0363
52172SOL    HW166446  12.268   3.420   3.676 -1.1239  0.8687  1.4030
52172SOL    HW266447  12.316   3.488   3.802  1.3160  1.1388  0.3832
52173SOL     OW66448   8.793   8.463   4.171  0.2568  0.1399 -0.8411
52173SOL    HW166449   8.749   8.411   4.239  0.1423  0.6297 -0.5331
52173SOL    HW266450   8.871   8.412   4.149  1.3512  0.8824  1.0686
52174SOL     OW66451  11.835   8.810   0.547 -0.4368 -0.0852 -0.0711
52174SOL    HW166452  11.746   8.818   0.514 -1.0040 -0.2089  1.3786
52174SOL    HW266453  11.878   8.750   0.485 -1.1888  0.3995 -1.0864
52175SOL     OW66454  12.564   4.456   2.080  0.4562 -0.2190 -0.4726
52175SOL    HW166455  12.507   4.511   2.133  1.5510  1.3774 -0.8610
52175SOL    HW266456  12.505   4.412   2.019 -0.4150  1.3427 -0.8352
52176SOL     OW66457   9.179  12.647   7.604  0.0561  0.0047  0.4872
52176SOL    HW166458   9.093  12.605   7.603  0.8467 -1.6903 -0.2317
52176SOL    HW266459   9.187  12.688   7.517  0.4649 -0.9227  0.0785
52177SOL     OW66460  11.273  10.735   6.772 -0.0741  0.5234  0.1692
52177SOL    HW166461  11.316  10.759   6.854 -2.4614  3.8790  0.6991
52177SOL    HW266462  11.301  10.802   6.709 -0.7108 -0.0979 -0.8102
52178SOL     OW66463   5.385   6.713   7.467 -0.1935 -0.0456 -0.4483
52178SOL    HW166464   5.328   6.702   7.391 -0.2967 -1.8900 -0.1694
52178SOL    HW266465   5.442   6.635   7.465 -1.7361 -1.4125  2.5752
52179SOL     OW66466   5.420  10.656   8.234 -0.6904 -0.2353  0.7380
52179SOL    HW166467   5.412  10.731   8.293  0.2007 -0.9854  1.8527
52179SOL    HW266468   5.347  10.599   8.258 -0.5967 -0.3286  0.8004
52180SOL     OW66469  11.596   9.073   9.357  0.2747 -0.4259 -0.0932
52180SOL    HW166470  11.603   8.979   9.343  1.4794 -0.1439 -1.5751
52180SOL    HW266471  11.657   9.092   9.427 -1.6713 -1.0326  1.8860
52181SOL     OW66472   0.928   2.551   0.592 -0.0593  0.5672 -0.0279
52181SOL    HW166473   0.962   2.580   0.507 -1.1723  1.5632 -0.1594
52181SOL    HW266474   0.848   2.601   0.604 -0.4760 -0.3322  1.1423
52182SOL     OW66475   4.001  10.938   4.162 -0.0776  0.0699 -0.2764
52182SOL    HW166476   4.056  10.901   4.232  0.8292 -1.3841 -1.6936
52182SOL    HW266477   4.054  11.010   4.127 -0.8559  1.2959  0.9757
52183SOL     OW66478   0.791   3.324   8.371  0.2876  0.6745 -0.3789
52183SOL    HW166479   0.790   3.392   8.304 -0.1839 -0.3233 -1.4248
52183SOL    HW266480   0.709   3.275   8.357  0.2368  0.3692  0.8527
52184SOL     OW66481   0.622  10.414  12.392  0.3892  0.4817 -0.0675
52184SOL    HW166482   0.539  10.461  12.403 -0.1803 -0.5180  0.0052
52184SOL    HW266483   0.619  10.345  12.458  0.2886 -0.9112 -1.4794
52185SOL     OW66484   1.081   0.983  12.752  0.5451 -0.1882  0.3320
52185SOL    HW166485   1.103   0.953  12.840  1.1216 -0.2427  0.1774
52185SOL    HW266486   1.166   1.006  12.713  0.3842 -0.9388 -0.4872
52186SOL     OW66487   8.053   1.083   5.484 -0.3174 -1.0876  0.0609
52186SOL    HW166488   7.972   1.126   5.457 -0.0936 -0.1700  0.7828
52186SOL    HW266489   8.078   1.128   5.565  1.9049 -0.0740 -1.0985
52187SOL     OW66490  10.241  13.111   3.188 -0.0588  0.2501 -0.6099
52187SOL    HW166491  10.167  13.093   3.246  0.2847 -1.2278 -0.5953
52187SOL    HW266492  10.318  13.087   3.240  0.4029  1.2710 -0.8145
52188SOL     OW66493   8.015   9.329  11.412  0.4527  0.4005  0.1451
52188SOL    HW166494   8.067   9.347  11.334 -1.1633 -0.1642 -1.1311
52188SOL    HW266495   8.011   9.233  11.417 -1.2952  0.4064 -0.4244
52189SOL     OW66496   1.473  11.763  12.754 -0.0029 -0.1394 -0.4643
52189SOL    HW166497   1.405  11.804  12.701 -1.8025 -1.4762  0.6958
52189SOL    HW266498   1.486  11.677  12.715  0.7658 -0.0570 -0.4241
52190SOL     OW66499  10.157   7.486   1.336 -0.0272  0.7522  0.1338
52190SOL    HW166500  10.111   7.534   1.404  0.0382  0.1185  0.6472
52190SOL    HW266501  10.116   7.399   1.336  0.6251  0.4317  0.0572
52191SOL     OW66502   7.592  12.981   2.048  0.3076 -0.2505 -0.2356
52191SOL    HW166503   7.558  13.042   1.984  0.6372 -0.1719 -0.3373
52191SOL    HW266504   7.644  12.919   1.997 -0.3643 -0.8655 -0.1875
52192SOL     OW66505   8.620   7.898  10.737  0.1577  0.2823  0.7538
52192SOL    HW166506   8.647   7.874  10.826  0.7694 -1.8412  0.0594
52192SOL    HW266507   8.530   7.865  10.730  0.5243 -0.6752  0.2412
52193SOL     OW66508  12.986   6.575   6.560  0.4559  0.1653  0.4154
52193SOL    HW166509  12.939   6.554   6.640  0.5486  0.0914  0.4504
52193SOL    HW266510  12.987   6.671   6.557 -1.4857  0.2056 -0.6277
52194SOL     OW66511   3.530   3.245   2.295 -0.0558  0.0347  0.8532
52194SOL    HW166512   3.521   3.154   2.267 -0.4255  0.3413 -0.0723
52194SOL    HW266513   3.600   3.280   2.239 -0.4507  0.5274  0.6661
52195SOL     OW66514   4.787   5.104   6.965 -0.1443 -0.0469  0.6226
52195SOL    HW166515   4.745   5.156   6.897  0.2713  0.6482  0.8820
52195SOL    HW266516   4.831   5.169   7.020  0.0341 -0.6477  1.1955
52196SOL     OW66517   8.264   6.996  10.863 -0.2606 -0.3239  0.2683
52196SOL    HW166518   8.304   7.078  10.834 -0.2561 -0.6408 -0.6559
52196SOL    HW266519   8.284   6.934  10.793  0.6288 -1.3900  1.4265
52197SOL     OW66520   6.271   2.200   2.248  0.3900 -0.1342  0.2391
52197SOL    HW166521   6.229   2.283   2.225  0.1600 -0.3550 -0.1586
52197SOL    HW266522   6.288   2.207   2.342  0.0688  0.2305  0.2737
52198SOL     OW66523   9.946   3.759   2.391 -0.4343 -0.1262  0.0837
52198SOL    HW166524   9.936   3.665   2.376 -0.7429  0.0196 -0.6626
52198SOL    HW266525   9.869   3.798   2.349 -0.4288  0.4466  0.5837
52199SOL     OW66526   9.750  11.288  11.907 -0.2545 -0.3313 -0.7978
52199SOL    HW166527   9.706  11.203  11.908 -0.5523 -0.1795 -0.9423
52199SOL    HW266528   9.832  11.273  11.954 -1.2875 -0.1794  1.1596
52200SOL     OW66529   2.133   9.391  11.234 -0.5435  0.2208 -0.1530
52200SOL    HW166530   2.225   9.412  11.222 -0.9819  1.4837 -1.6545
52200SOL    HW266531   2.109   9.436  11.316  0.0948  0.1534  0.0727
52201SOL     OW66532   5.878   0.261   3.520 -0.0396  0.0882 -0.4072
52201SOL    HW166533   5.795   0.215   3.534 -0.4724  0.2178 -2.3407
52201SOL    HW266534   5.870   0.341   3.573 -1.1412  0.0839 -0.5447
52202SOL     OW66535   6.522   0.292  12.071 -0.4012  0.0203  0.0618
52202SOL    HW166536   6.529   0.372  12.121 -0.3158 -0.7771  1.3609
52202SOL    HW266537   6.552   0.223  12.130 -2.0556 -1.1825 -0.4311
52203SOL     OW66538  12.831   9.926  10.618 -0.1276 -0.5571  0.0075
52203SOL    HW166539  12.771   9.856  10.594  0.2246 -0.0379 -2.7000
52203SOL    HW266540  12.908   9.912  10.564  1.1256  0.3144  1.4802
52204SOL     OW66541   1.601   4.373  11.752  0.2765 -0.0575 -0.6294
52204SOL    HW166542   1.697   4.368  11.758  0.3312  0.8580 -0.4763
52204SOL    HW266543   1.571   4.351  11.840  0.3412 -0.3624 -0.6806
52205SOL     OW66544   3.408   3.370   6.937 -0.4619  0.8796  0.1236
52205SOL    HW166545   3.377   3.331   6.856 -0.3120  1.2933 -0.1345
52205SOL    HW266546   3.453   3.450   6.910  1.3829 -0.0084  0.4174
52206SOL     OW66547  10.561   6.854   1.974  0.2428  0.3028 -0.7030
52206SOL    HW166548  10.606   6.872   2.057 -1.2379 -1.3497  0.5434
52206SOL    HW266549  10.469   6.872   1.993 -0.0242  0.7058 -2.2758
52207SOL     OW66550   3.894   6.526   5.330 -0.2392 -0.4716 -0.8951
52207SOL    HW166551   3.950   6.455   5.362 -1.3647 -0.0676  2.3317
52207SOL    HW266552   3.940   6.559   5.253  2.0233 -2.5260 -0.5627
52208SOL     OW66553   8.697   8.109  12.111  0.0923  0.6262 -0.0421
52208SOL    HW166554   8.651   8.069  12.184  0.6930  1.6857  0.9488
52208SOL    HW266555   8.790   8.089  12.128  0.1994  0.4662 -0.7834
52209SOL     OW66556   1.434   7.756  11.543 -0.0317  0.0531 -0.0052
52209SOL    HW166557   1.391   7.748  11.457  1.8491 -1.5399 -0.8841
52209SOL    HW266558   1.393   7.833  11.583  0.0466  1.8155 -2.9614
52210SOL     OW66559  12.412   2.236  12.950  0.1818 -0.7115 -0.3854
52210SOL    HW166560  12.384   2.187  12.872 -1.2112 -0.4431 -0.0702
52210SOL    HW266561  12.495   2.276  12.924  0.0528 -1.1426 -1.5192
52211SOL     OW66562   5.186   3.030  11.277  0.2711 -0.2341  0.4561
52211SOL    HW166563   5.180   3.125  11.280  0.7611 -0.2100  0.7498
52211SOL    HW266564   5.151   3.006  11.192 -0.6193  0.1528  0.7004
52212SOL     OW66565  11.098   3.896   5.481 -0.2572 -0.0773  0.2092
52212SOL    HW166566  11.066   3.869   5.395 -2.1068  1.9191  0.1929
52212SOL    HW266567  11.179   3.846   5.494 -1.3080 -2.3501 -1.5270
52213SOL     OW66568   3.390   0.637   7.597  0.9795 -0.5114  0.3093
52213SOL    HW166569   3.369   0.637   7.504  0.1680 -1.8106  0.4661
52213SOL    HW266570   3.379   0.728   7.625 -0.2772 -0.3857 -0.5475
52214SOL     OW66571   4.421  12.179   8.931 -0.0607  0.7409 -1.1255
52214SOL    HW166572   4.491  12.154   8.992 -0.6934 -1.7313 -1.3059
52214SOL    HW266573   4.352  12.214   8.987 -0.6748 -1.5821 -0.3150
52215SOL     OW66574   2.062  11.842   1.409 -0.1229  0.0892  0.2740
52215SOL    HW166575   2.128  11.783   1.371 -0.8749 -0.7033  0.1847
52215SOL    HW266576   2.112  11.899   1.467  1.0041  1.0161 -1.4908
52216SOL     OW66577   5.737   2.509   6.795  0.5314  1.0628  0.1355
52216SOL    HW166578   5.804   2.511   6.726  0.7934  3.0698  0.3724
52216SOL    HW266579   5.664   2.461   6.757  2.2581 -1.7164  0.0618
52217SOL     OW66580   5.611   1.210  10.171  0.3614 -0.7334  0.2127
52217SOL    HW166581   5.674   1.139  10.160  0.6263 -0.6424  1.0935
52217SOL    HW266582   5.558   1.185  10.246 -0.2346 -0.4898 -0.1141
52218SOL     OW66583   5.089  13.256  10.012 -0.3703 -0.6243  0.1075
52218SOL    HW166584   5.149  13.195  10.055  0.0439  0.6021  1.3683
52218SOL    HW266585   5.024  13.276  10.080 -1.1522 -0.5308 -0.6563
52219SOL     OW66586   6.682   8.755   7.010 -0.1486 -0.7868  0.0494
52219SOL    HW166587   6.715   8.725   6.925  0.0838  0.1928 -0.2167
52219SOL    HW266588   6.657   8.674   7.056  0.1802 -1.3597 -0.7566
52220SOL     OW66589  12.866   5.619   4.325  0.9462  0.8558  0.2326
52220SOL    HW166590  12.772   5.630   4.337  1.2631  3.6607  0.8154
52220SOL    HW266591  12.875   5.575   4.241 -0.8735 -1.2712  1.0527
52221SOL     OW66592   9.681   6.963   6.841 -0.0104  0.2785 -0.4731
52221SOL    HW166593   9.623   6.996   6.772  1.5673  1.0342 -1.5108
52221SOL    HW266594   9.730   7.039   6.869  1.2250 -0.5192 -0.3964
52222SOL     OW66595   5.862  12.894   2.495 -0.7033  0.4359 -0.4050
52222SOL    HW166596   5.796  12.950   2.454 -0.3051  1.7018  0.5828
52222SOL    HW266597   5.940  12.950   2.500  0.3611 -0.9196 -1.2630
52223SOL     OW66598   9.592  12.976   3.815  0.1994  0.1196 -0.4823
52223SOL    HW166599   9.539  12.919   3.759  0.5900 -1.0460  0.3057
52223SOL    HW266600   9.541  12.986   3.895 -0.4715  1.9816 -1.0914
52224SOL     OW66601   9.551   1.601  10.368  0.1267  0.3671  0.6305
52224SOL    HW166602   9.461   1.595  10.398 -0.3505 -0.8043 -0.9102
52224SOL    HW266603   9.555   1.684  10.320 -0.3445  0.0707  0.0706
52225SOL     OW66604  11.313   7.113   7.526 -0.1758 -0.7044 -0.2341
52225SOL    HW166605  11.233   7.063   7.542 -1.5628  1.2825 -0.5812
52225SOL    HW266606  11.297   7.197   7.568  1.3644  0.0911 -1.1466
52226SOL     OW66607  10.809   6.316   4.422 -0.1575  0.0076 -0.4474
52226SOL    HW166608  10.746   6.365   4.369 -0.2628  0.3353 -0.0320
52226SOL    HW266609  10.877   6.380   4.444 -0.7442  0.2229  0.8336
52227SOL     OW66610   5.001  10.067  11.263  0.0543 -0.2403  0.2824
52227SOL    HW166611   5.052  10.012  11.321 -0.9986 -0.0869  1.3953
52227SOL    HW266612   4.990  10.014  11.183  1.1400 -0.6231  0.3773
52228SOL     OW66613  12.846   3.577  11.843  0.2009  0.4714 -0.2242
52228SOL    HW166614  12.808   3.611  11.924  1.3461 -0.5393  0.7682
52228SOL    HW266615  12.884   3.493  11.867  1.8554  0.8062 -1.4592
52229SOL     OW66616   8.578   1.353   4.319  0.0845 -0.2239  0.2538
52229SOL    HW166617   8.515   1.425   4.327  0.2702 -0.1987  1.6859
52229SOL    HW266618   8.562   1.299   4.396  1.5378 -0.4414  0.4256
52230SOL     OW66619   9.431   1.054   1.171 -0.3914 -0.1818  0.4353
52230SOL    HW166620   9.352   1.088   1.129  0.3374  0.5569 -0.4082
52230SOL    HW266621   9.441   0.966   1.135 -0.2739  0.1077 -0.2663
52231SOL     OW66622   6.464   2.926   2.776  0.9595 -0.5908 -0.1459
52231SOL    HW166623   6.429   2.862   2.838  0.3000 -2.0361 -1.8994
52231SOL    HW266624   6.456   3.010   2.820 -0.4074 -1.4344  1.3241
52232SOL     OW66625   6.848   7.554   7.953  0.3437  0.4451 -0.2762
52232SOL    HW166626   6.837   7.472   7.905 -1.1363  0.6431 -0.3338
52232SOL    HW266627   6.816   7.534   8.041  0.9224  0.6959 -0.0074
52233SOL     OW66628   2.416   7.235   2.282 -0.0208 -0.2210  0.2400
52233SOL    HW166629   2.430   7.142   2.303 -1.7212 -0.3713  0.8367
52233SOL    HW266630   2.355   7.234   2.208  1.1034  0.4348 -0.7438
52234SOL     OW66631   7.795   6.584   2.623 -0.0385 -0.0541  0.2042
52234SOL    HW166632   7.711   6.570   2.579  0.3814  0.1046 -0.6619
52234SOL    HW266633   7.771   6.622   2.708 -0.9643 -2.0319  0.9155
52235SOL     OW66634  10.943   2.929   2.287  0.6408  0.2083 -0.4421
52235SOL    HW166635  10.858   2.914   2.244 -0.0452  0.9615  0.5882
52235SOL    HW266636  10.954   2.854   2.344  0.8050 -0.0239 -0.7750
52236SOL     OW66637  11.517  10.156   3.066  0.0980 -0.4501  0.0241
52236SOL    HW166638  11.567  10.106   3.002 -0.4144  0.5812 -1.2273
52236SOL    HW266639  11.578  10.225   3.094  0.0035 -0.3370 -0.0517
52237SOL     OW66640  13.307   8.230   5.471 -0.5386 -0.5191  0.1205
52237SOL    HW166641  13.295   8.226   5.377  1.8479 -1.1866 -0.2055
52237SOL    HW266642  13.287   8.142   5.502 -2.7072  0.0379  0.4996
52238SOL     OW66643  12.228   9.795   2.535 -0.1337  0.2037  0.2308
52238SOL    HW166644  12.256   9.880   2.499  2.0730 -0.3876  0.4244
52238SOL    HW266645  12.242   9.733   2.463  0.3217 -0.3242  0.7662
52239SOL     OW66646   5.817   3.027   7.758  0.0861 -0.0050 -0.2215
52239SOL    HW166647   5.908   3.057   7.749 -0.2620  1.0735 -0.2456
52239SOL    HW266648   5.764   3.102   7.729 -0.8272 -0.3574  0.4980
52240SOL     OW66649   9.873   6.148  11.421  0.4677 -0.8330 -0.1603
52240SOL    HW166650   9.927   6.209  11.471  0.5953 -0.0516 -1.2121
52240SOL    HW266651   9.915   6.063  11.432  0.6742 -0.6222  0.7713
52241SOL     OW66652   4.080  13.149  12.442  0.0141 -0.3783  0.4396
52241SOL    HW166653   4.090  13.156  12.347  0.0358  1.1259  0.5344
52241SOL    HW266654   3.987  13.127  12.454  0.0285 -0.6575  0.0731
52242SOL     OW66655   2.901   0.487   1.521 -0.1297 -0.2820  0.2818
52242SOL    HW166656   2.844   0.481   1.443 -1.0561  0.1037  0.9101
52242SOL    HW266657   2.957   0.409   1.515 -1.2517 -1.1030  0.0382
52243SOL     OW66658   2.852  11.488  11.872  0.3130 -0.2329  0.0250
52243SOL    HW166659   2.900  11.564  11.905 -0.0380  0.1559 -0.3447
52243SOL    HW266660   2.810  11.451  11.949 -1.0772  1.0803 -0.0410
52244SOL     OW66661  12.815   1.379   0.320 -0.1412  0.1933  0.0489
52244SOL    HW166662  12.859   1.343   0.397 -0.6583 -2.7601 -0.9040
52244SOL    HW266663  12.725   1.393   0.349 -0.0394  0.2766  0.3302
52245SOL     OW66664   6.646   9.067   6.704 -0.1216 -0.0385 -0.3425
52245SOL    HW166665   6.730   9.023   6.705 -0.2647 -0.3160 -0.4266
52245SOL    HW266666   6.601   9.036   6.783 -0.5507 -0.6895 -0.8368
52246SOL     OW66667   9.057  10.333  12.050 -0.3650  0.5018 -0.3845
52246SOL    HW166668   9.020  10.343  12.138  1.1384 -2.4748  0.7499
52246SOL    HW266669   9.147  10.306  12.065 -0.0465 -0.0531 -2.8550
52247SOL     OW66670  10.018  12.159   4.927 -0.0073 -0.2264  0.2887
52247SOL    HW166671   9.965  12.084   4.953 -0.2337  0.0629  0.6720
52247SOL    HW266672   9.960  12.213   4.874  0.6978 -1.2228 -1.5662
52248SOL     OW66673   3.019   4.886   0.351  0.1540  0.1554  0.6513
52248SOL    HW166674   3.096   4.837   0.381 -0.8778 -1.6551  0.4626
52248SOL    HW266675   3.056   4.962   0.305  1.7938  0.4440  2.3021
52249SOL     OW66676   7.312   7.399  11.450 -0.2376  0.2325 -0.4319
52249SOL    HW166677   7.304   7.333  11.382  0.3271 -1.0615  0.7088
52249SOL    HW266678   7.363   7.469  11.410  1.1520 -1.0330 -0.9857
52250SOL     OW66679   0.284   9.223  11.133  0.1494 -0.0169  0.0502
52250SOL    HW166680   0.351   9.289  11.116 -0.5408  0.5245 -0.6008
52250SOL    HW266681   0.323   9.141  11.101  0.2468  0.4052 -0.9520
52251SOL     OW66682  12.388   7.829   7.938  0.2103 -0.2421  0.3448
52251SOL    HW166683  12.327   7.892   7.978  1.6009  0.3280  1.6856
52251SOL    HW266684  12.344   7.744   7.946 -0.9787  0.3363  0.0439
52252SOL     OW66685   4.490   9.664  11.950  0.2065 -0.1663  0.3156
52252SOL    HW166686   4.439   9.723  11.894 -0.6957 -1.6257 -0.4752
52252SOL    HW266687   4.577   9.666  11.912  0.2061  0.6788  0.3303
52253SOL     OW66688   8.905   4.346   1.600  0.0699 -0.3927 -0.2824
52253SOL    HW166689   8.840   4.414   1.619  0.5857 -0.4502  1.9069
52253SOL    HW266690   8.888   4.322   1.509 -0.2023  2.5914 -1.1237
52254SOL     OW66691  11.732  10.027  12.903  0.0729  0.0981 -0.3416
52254SOL    HW166692  11.758   9.946  12.859  2.1604  0.9482 -0.7674
52254SOL    HW266693  11.637  10.031  12.892  0.0241 -1.8786 -0.9946
52255SOL     OW66694   3.979  10.442  11.714  0.0885  0.0274  0.0559
52255SOL    HW166695   4.024  10.360  11.731  2.0983  0.6093 -2.0362
52255SOL    HW266696   3.996  10.495  11.792  0.9373 -0.6434  0.3345
52256SOL     OW66697   1.195   8.656  13.037 -0.4264  0.1780 -0.0139
52256SOL    HW166698   1.123   8.605  13.075  0.5354 -1.2655 -0.0325
52256SOL    HW266699   1.259   8.665  13.108 -0.5958  1.4449  0.0013
52257SOL     OW66700   5.528   4.592  11.009 -0.0531  0.2792  0.0247
52257SOL    HW166701   5.435   4.588  10.986  0.0926 -0.0169 -0.5443
52257SOL    HW266702   5.544   4.684  11.029 -0.1288  0.6119 -1.3730
52258SOL     OW66703   0.194   3.748   7.708 -0.3178 -0.0049 -0.4518
52258SOL    HW166704   0.218   3.656   7.715 -2.1104 -0.4676  0.2862
52258SOL    HW266705   0.202   3.782   7.797 -0.9992  0.1802 -0.4562
52259SOL     OW66706   0.410   2.371  10.809 -0.1145  0.1265 -0.4981
52259SOL    HW166707   0.327   2.352  10.852  0.5163 -0.0716  0.6833
52259SOL    HW266708   0.460   2.421  10.873 -0.1836  2.3251 -2.0527
52260SOL     OW66709   8.513  11.567   5.552  0.2126  0.4573 -0.1020
52260SOL    HW166710   8.530  11.647   5.502  1.1376 -0.4576 -1.3290
52260SOL    HW266711   8.555  11.498   5.500 -0.6966 -0.8416  0.8408
52261SOL     OW66712  11.561   6.957  12.612 -0.3991  0.0879 -0.2972
52261SOL    HW166713  11.651   6.986  12.628 -0.0634 -0.7776 -0.5975
52261SOL    HW266714  11.526   6.939  12.699 -0.9424  2.2806  0.0022
52262SOL     OW66715   6.798   7.180   6.546  0.6837  0.1140  0.2695
52262SOL    HW166716   6.730   7.147   6.488  1.0622  0.4122 -0.3513
52262SOL    HW266717   6.773   7.271   6.563  2.0587  0.9528 -1.7590
52263SOL     OW66718   3.688   8.367  11.243 -0.4584  0.3940  0.4539
52263SOL    HW166719   3.671   8.272  11.244  1.5000 -0.0513 -1.0681
52263SOL    HW266720   3.615   8.405  11.293 -0.7380 -1.9821  2.0492
52264SOL     OW66721  13.145  13.169   2.498 -0.0544 -0.2486  0.0751
52264SOL    HW166722  13.174  13.134   2.582  0.1683 -2.1504 -0.7304
52264SOL    HW266723  13.224  13.203   2.457 -0.2865  1.3462  0.9069
52265SOL     OW66724  13.002   5.785   1.623 -0.2707  0.0866  0.2914
52265SOL    HW166725  13.049   5.724   1.566  0.1813  0.8012 -0.1059
52265SOL    HW266726  12.910   5.773   1.599 -0.1078  0.2025 -0.4153
52266SOL     OW66727  11.123   0.525  10.970  0.1260 -0.1374  0.4388
52266SOL    HW166728  11.148   0.588  10.903 -0.2537  1.2382  1.5355
52266SOL    HW266729  11.078   0.577  11.037 -0.9864 -1.6988  0.9916
52267SOL     OW66730   6.198   1.381  10.450 -0.4221  0.0076  0.1448
52267SOL    HW166731   6.238   1.337  10.524  2.1403  3.2547  0.9014
52267SOL    HW266732   6.271   1.407  10.394 -2.0294  0.6509 -1.7942
52268SOL     OW66733   1.286   7.335   0.234 -0.5850  0.5066  0.0767
52268SOL    HW166734   1.235   7.297   0.162 -0.1167 -0.2283  0.1207
52268SOL    HW266735   1.324   7.414   0.196 -1.5302  0.9263 -0.0345
52269SOL     OW66736   2.413   4.545   8.763  0.2145  0.0626  0.1282
52269SOL    HW166737   2.374   4.458   8.752  0.5271 -0.0189 -0.3797
52269SOL    HW266738   2.468   4.537   8.840  3.0253 -1.2507 -1.8204
52270SOL     OW66739  12.332   5.120   8.538 -0.0757 -1.2669 -0.3562
52270SOL    HW166740  12.405   5.067   8.568  0.5434 -0.2030  0.0842
52270SOL    HW266741  12.330   5.107   8.443  2.8700  1.2391 -0.9119
52271SOL     OW66742  12.173   0.061   8.399 -0.2000 -0.2443  0.0876
52271SOL    HW166743  12.154   0.153   8.415 -0.5365 -0.1789 -0.6682
52271SOL    HW266744  12.250   0.062   8.341 -0.8684 -0.4048 -0.8244
52272SOL     OW66745   1.521   3.850   2.703 -0.0742 -0.2627 -0.1557
52272SOL    HW166746   1.441   3.898   2.682  0.5125  0.9649  0.3388
52272SOL    HW266747   1.557   3.894   2.779 -0.2042 -2.3409  1.1951
52273SOL     OW66748   2.962  10.607   2.359 -0.6987 -0.5315 -0.6826
52273SOL    HW166749   2.906  10.683   2.347 -2.0616 -1.2975  0.4817
52273SOL    HW266750   3.050  10.643   2.369 -0.8941  0.6952 -2.8263
52274SOL     OW66751   4.980  12.884   7.298 -0.2735  0.0934 -0.5403
52274SOL    HW166752   4.917  12.894   7.369  0.8178  1.1773  0.3161
52274SOL    HW266753   4.955  12.951   7.234  0.4061  1.0478  0.1471
52275SOL     OW66754   7.669  11.024   8.451  0.0292 -0.0538 -0.4339
52275SOL    HW166755   7.676  11.039   8.357  0.4759  0.2060 -0.3617
52275SOL    HW266756   7.662  11.112   8.489 -1.7756 -0.1947 -0.3392
52276SOL     OW66757   3.789   7.874   2.030  0.1489  0.1383 -0.6847
52276SOL    HW166758   3.725   7.834   2.089  1.2886 -0.4286  0.2072
52276SOL    HW266759   3.824   7.948   2.079  0.6666  0.0310 -0.8817
52277SOL     OW66760  10.764  10.237   1.271  0.3426  0.2917  0.6468
52277SOL    HW166761  10.795  10.327   1.267 -0.6984  0.7040  1.6873
52277SOL    HW266762  10.675  10.240   1.236  0.3742 -0.3750  0.4927
52278SOL     OW66763  10.521   7.852   0.079 -0.2314  0.2447  0.1639
52278SOL    HW166764  10.552   7.883  -0.007 -1.2499 -2.1556 -1.1521
52278SOL    HW266765  10.553   7.919   0.141  2.0684  1.1524 -1.8238
52279SOL     OW66766   6.375   0.568   0.138 -0.0274  0.3226 -0.5413
52279SOL    HW166767   6.440   0.595   0.073  2.1123  1.1197  1.7833
52279SOL    HW266768   6.406   0.605   0.221 -3.0136 -0.0180  0.8677
52280SOL     OW66769   4.306  12.146  12.130  0.0289 -0.6097  0.1617
52280SOL    HW166770   4.359  12.215  12.170  1.1512 -1.5534  0.3689
52280SOL    HW266771   4.337  12.066  12.172 -1.0680 -1.2651 -0.2615
52281SOL     OW66772   1.463   7.259  10.560 -0.5628  0.1491  0.0105
52281SOL    HW166773   1.477   7.348  10.593 -2.2322 -0.2334  1.9241
52281SOL    HW266774   1.534   7.208  10.599  0.2678  0.5692 -0.9102
52282SOL     OW66775   8.096   9.618  12.662 -0.0062 -0.4797  0.1870
52282SOL    HW166776   8.039   9.681  12.617  1.2439 -0.7131 -1.8253
52282SOL    HW266777   8.112   9.657  12.748 -1.3538  0.6668 -0.0464
52283SOL     OW66778   7.525   9.136   1.186  0.1546 -0.2391 -0.2499
52283SOL    HW166779   7.543   9.063   1.126  1.3478  1.8462 -2.6368
52283SOL    HW266780   7.442   9.173   1.154 -0.7672 -0.8728  1.3274
52284SOL     OW66781   3.796   3.729   3.340 -0.1190 -0.2841 -0.1666
52284SOL    HW166782   3.789   3.806   3.397 -0.4703  0.2291 -0.8983
52284SOL    HW266783   3.710   3.688   3.343 -0.4909  0.4024 -1.2479
52285SOL     OW66784   6.077   5.490  10.459 -0.4492  0.0530 -0.0449
52285SOL    HW166785   6.058   5.584  10.465  2.3878  0.6556  1.0686
52285SOL    HW266786   6.081   5.473  10.365  1.7568  1.7656 -0.3495
52286SOL     OW66787   6.931   9.869   8.764  0.1066 -0.4327  0.5834
52286SOL    HW166788   6.837   9.857   8.778  0.3092 -1.1101  1.4718
52286SOL    HW266789   6.946   9.840   8.674 -0.6793  0.6289  0.0904
52287SOL     OW66790  10.256  11.244   7.862  0.1136  0.2598  0.2763
52287SOL    HW166791  10.214  11.184   7.923  1.8881 -0.0200  1.2859
52287SOL    HW266792  10.238  11.207   7.776 -1.8468  0.2798  0.6309
52288SOL     OW66793   1.938  10.570   0.855 -0.8420 -0.2335  0.0495
52288SOL    HW166794   1.986  10.651   0.873 -2.7242  1.0884 -0.5722
52288SOL    HW266795   1.962  10.548   0.765  0.9453 -1.3438  0.7491
52289SOL     OW66796   1.461  11.528   6.087  0.2192 -0.1025  0.0295
52289SOL    HW166797   1.474  11.619   6.059 -1.7551  0.0611 -0.4598
52289SOL    HW266798   1.398  11.533   6.159  0.9151 -1.0141  0.7318
52290SOL     OW66799   9.982   7.238   1.399  0.3325  0.1839 -0.1419
52290SOL    HW166800   9.918   7.173   1.428  0.8842  0.1431  1.0429
52290SOL    HW266801  10.053   7.233   1.464  2.2244 -0.7665 -2.1413
52291SOL     OW66802   7.810   9.006   4.534 -0.6264 -0.3947  0.5834
52291SOL    HW166803   7.855   8.922   4.547  0.1497  0.1243  1.3026
52291SOL    HW266804   7.760   9.019   4.615 -0.8066 -0.1943  0.4411
52292SOL     OW66805  11.327   1.033   1.707  0.2175  0.2532 -0.5238
52292SOL    HW166806  11.362   0.945   1.725  2.6099  1.2244 -0.1149
52292SOL    HW266807  11.264   1.048   1.778 -0.1317 -1.0555 -0.5234
52293SOL     OW66808   6.645  11.634   5.567 -0.6329  0.7194  0.2876
52293SOL    HW166809   6.550  11.633   5.573 -0.6993  1.6424 -0.3781
52293SOL    HW266810   6.669  11.725   5.581  0.1567  0.4918  0.4680
52294SOL     OW66811   4.699   7.647  11.933  0.8603 -0.6331 -0.0045
52294SOL    HW166812   4.784   7.607  11.953  0.2068 -2.5006 -0.6896
52294SOL    HW266813   4.696   7.647  11.837 -0.0536 -0.9550  0.0191
52295SOL     OW66814   6.830  11.455   4.459  0.5039 -0.2299  0.1949
52295SOL    HW166815   6.903  11.517   4.459 -0.0452  0.5486  2.5896
52295SOL    HW266816   6.786  11.471   4.543 -0.4388 -2.9940  0.3167
52296SOL     OW66817   4.213   7.027   8.178  0.4007  0.4405  0.0054
52296SOL    HW166818   4.200   6.999   8.269 -4.0580  1.5496 -0.0348
52296SOL    HW266819   4.202   7.122   8.181 -2.6555  0.2941 -1.8263
52297SOL     OW66820   7.179   1.009  11.079 -0.4648  0.8004 -0.0703
52297SOL    HW166821   7.199   0.920  11.108 -0.3892  0.9705  0.4181
52297SOL    HW266822   7.265   1.052  11.073 -0.5824  1.2054  0.9384
52298SOL     OW66823   3.237   3.139   2.537  0.1726 -0.2883  0.1337
52298SOL    HW166824   3.332   3.150   2.547 -0.2320  2.0626  2.5074
52298SOL    HW266825   3.211   3.209   2.477 -0.0752 -1.1143 -0.7521
52299SOL     OW66826   8.190   9.627   8.960  0.0873 -0.0702  0.3895
52299SOL    HW166827   8.112   9.655   9.008 -0.3582  0.2951 -0.5271
52299SOL    HW266828   8.159   9.556   8.903  0.2376  0.5703 -0.5241
52300SOL     OW66829  11.645   5.585   5.111  0.7159 -0.1062 -0.5540
52300SOL    HW166830  11.655   5.565   5.018 -0.0646  1.4948 -1.0274
52300SOL    HW266831  11.551   5.604   5.121  0.9866  0.8778  0.2816
52301SOL     OW66832   3.607  11.708   6.517  0.0357  0.0937  0.6880
52301SOL    HW166833   3.617  11.705   6.612 -2.4252  0.6450  1.0332
52301SOL    HW266834   3.537  11.771   6.502  0.8915  0.6084 -1.5734
52302SOL     OW66835   5.958  10.714   1.169 -0.4044  0.2693 -0.1206
52302SOL    HW166836   5.862  10.721   1.176 -0.3078  0.7130  1.0368
52302SOL    HW266837   5.989  10.804   1.171 -0.0063  0.1957 -1.7746
52303SOL     OW66838   3.404   6.827   4.165  0.2368  1.1861  0.0619
52303SOL    HW166839   3.389   6.771   4.241  1.5959 -0.4397 -0.8217
52303SOL    HW266840   3.316   6.846   4.131 -0.2815  0.3967  0.9513
52304SOL     OW66841   0.483   6.150  10.463  0.1409  0.5367  0.5600
52304SOL    HW166842   0.550   6.153  10.394  3.0367  0.5780  3.1736
52304SOL    HW266843   0.419   6.216  10.436  0.8501  0.2194 -2.2950
52305SOL     OW66844   7.036   5.801   3.212  0.0651  0.3116  0.2140
52305SOL    HW166845   7.104   5.736   3.229 -0.9487 -1.0508 -0.7500
52305SOL    HW266846   7.029   5.851   3.294  3.1020  1.4044 -0.0460
52306SOL     OW66847   4.991   3.166   3.056 -0.4886  0.1654  0.1393
52306SOL    HW166848   4.965   3.087   3.009 -1.5627  1.7198 -2.0405
52306SOL    HW266849   5.086   3.160   3.060  0.0073  0.9706 -4.5021
52307SOL     OW66850   8.008  13.050   8.247  0.0898 -0.4251 -0.2022
52307SOL    HW166851   7.976  13.124   8.299  3.1850  1.6145 -0.9446
52307SOL    HW266852   7.962  13.057   8.164 -3.5611 -2.6491  1.3928
52308SOL     OW66853   7.971  10.352  11.869  0.2449 -0.7006 -0.2032
52308SOL    HW166854   7.877  10.363  11.884  0.3205  1.1625 -0.8029
52308SOL    HW266855   7.985  10.384  11.779  1.2815 -2.1409 -0.5907
52309SOL     OW66856   6.718   1.492   3.034 -0.4772 -0.1737 -0.3285
52309SOL    HW166857   6.765   1.415   3.001 -0.4877 -0.9316  1.3448
52309SOL    HW266858   6.672   1.527   2.957  1.2874 -0.5177 -1.5979
52310SOL     OW66859  11.218   5.800   2.979 -0.6868 -0.3833  0.1001
52310SOL    HW166860  11.131   5.786   2.941 -0.7994  0.2014  0.1366
52310SOL    HW266861  11.272   5.828   2.906 -0.1882 -2.0157 -0.1944
52311SOL     OW66862   5.750   0.067   4.401 -0.7066 -0.1444 -0.4630
52311SOL    HW166863   5.786  -0.020   4.381 -0.3027  0.0100 -0.4070
52311SOL    HW266864   5.806   0.128   4.354 -2.1499 -0.0016 -2.1326
52312SOL     OW66865   0.396   2.610  12.566 -0.2988  0.2282  0.1418
52312SOL    HW166866   0.328   2.543  12.563 -0.0741 -0.0205  0.5603
52312SOL    HW266867   0.359   2.684  12.518 -0.7316 -0.0259  0.0808
52313SOL     OW66868  10.820  10.238   7.769 -0.3451  0.3909  0.2703
52313SOL    HW166869  10.830  10.332   7.784 -1.1349  0.3142  1.5054
52313SOL    HW266870  10.725  10.224   7.773 -0.2178 -0.4885  0.3790
52314SOL     OW66871   7.113   2.419   2.974 -0.3405  0.3674  0.4451
52314SOL    HW166872   7.104   2.326   2.995 -0.0251 -0.2289 -1.8035
52314SOL    HW266873   7.207   2.436   2.983 -0.2912  0.2587  0.1722
52315SOL     OW66874  10.221  10.074   0.562 -0.0364  0.0229 -0.0250
52315SOL    HW166875  10.177   9.995   0.595 -2.2150  0.0839 -2.4206
52315SOL    HW266876  10.152  10.140   0.560  0.8815  0.9871 -1.3004
52316SOL     OW66877  10.546   7.963   0.711 -0.0713 -0.0335  0.2015
52316SOL    HW166878  10.572   8.055   0.706 -1.2171  0.4112  1.7981
52316SOL    HW266879  10.452   7.965   0.731 -0.0279 -1.5400  0.6936
52317SOL     OW66880   4.705   2.135  12.151  0.1143 -0.9372  0.3413
52317SOL    HW166881   4.798   2.149  12.135 -0.0249  0.7254  0.7240
52317SOL    HW266882   4.696   2.042  12.168  1.5444 -1.2827 -0.7260
52318SOL     OW66883   4.644   2.859   5.405  0.0653  0.4461 -0.0910
52318SOL    HW166884   4.694   2.816   5.335  0.6716  1.7226 -0.4865
52318SOL    HW266885   4.580   2.794   5.432  1.6381 -1.0960  0.1188
52319SOL     OW66886   3.240   7.624   7.778  0.1952  0.0636  0.2761
52319SOL    HW166887   3.191   7.542   7.785 -1.3512  1.0239  1.7830
52319SOL    HW266888   3.252   7.652   7.869 -0.6150  2.2062 -0.2070
52320SOL     OW66889   1.990  12.318   1.138 -0.2886  0.1577 -0.2769
52320SOL    HW166890   1.929  12.254   1.175  0.4196  0.7888  2.1668
52320SOL    HW266891   1.956  12.403   1.166  0.7366  0.6324 -0.4283
52321SOL     OW66892   1.048   0.809   0.569  0.0651  0.2815  0.1283
52321SOL    HW166893   1.141   0.829   0.583  0.0422 -0.4315  1.4668
52321SOL    HW266894   1.047   0.717   0.542 -0.3168 -0.0682  1.2854
52322SOL     OW66895  13.180   2.556   8.008  0.2065 -0.2476  0.5617
52322SOL    HW166896  13.129   2.482   8.041  0.9174 -1.2285 -0.4537
52322SOL    HW266897  13.266   2.519   7.991  0.2292  0.5069 -1.1276
52323SOL     OW66898  10.239   9.220   1.127  0.3727  0.2831 -0.1009
52323SOL    HW166899  10.190   9.209   1.045  0.3467  0.6983 -0.1477
52323SOL    HW266900  10.330   9.226   1.100  0.4845 -0.7916  0.0134
52324SOL     OW66901  11.475   9.809   3.924  0.5978 -0.2315  0.3369
52324SOL    HW166902  11.507   9.727   3.886  0.3414 -0.1350 -0.0911
52324SOL    HW266903  11.515   9.812   4.011  2.1857  0.1491 -0.3670
52325SOL     OW66904  12.614   8.908  10.320  0.2563 -0.5084  0.5280
52325SOL    HW166905  12.705   8.904  10.290  0.3815  1.9789  0.4345
52325SOL    HW266906  12.598   8.821  10.358  1.9366 -1.7608 -1.3873
52326SOL     OW66907   6.117   8.467   4.312  0.3188  0.1927 -0.2379
52326SOL    HW166908   6.164   8.408   4.371 -0.3634  0.4667  0.6008
52326SOL    HW266909   6.160   8.456   4.228  0.3228 -1.3753 -0.0612
52327SOL     OW66910  10.681   9.554   8.717  0.1816  0.2763 -0.1474
52327SOL    HW166911  10.738   9.631   8.728  1.6680 -0.7218 -0.5309
52327SOL    HW266912  10.600   9.578   8.762  0.4643  2.1995 -0.5528
52328SOL     OW66913  11.844   6.671  11.398  0.2891  0.1691 -0.3528
52328SOL    HW166914  11.777   6.735  11.377 -0.5703 -0.4866  0.3193
52328SOL    HW266915  11.913   6.686  11.333 -0.7645  0.4521 -1.4305
52329SOL     OW66916   4.926   5.219   7.237 -0.4295 -0.4261  0.0640
52329SOL    HW166917   4.948   5.298   7.286 -0.4584 -0.0627 -0.5020
52329SOL    HW266918   4.951   5.147   7.295  2.7755 -0.0660 -0.6965
52330SOL     OW66919   5.821   3.634  12.148  0.5302  0.0362  0.7864
52330SOL    HW166920   5.800   3.726  12.167  1.9435  0.9108 -1.5344
52330SOL    HW266921   5.737   3.593  12.134 -0.0970  1.1630  1.0945
52331SOL     OW66922   3.158   8.098   3.309 -0.0470 -0.0956 -0.6895
52331SOL    HW166923   3.226   8.160   3.333  0.8448 -1.8565  1.6955
52331SOL    HW266924   3.081   8.124   3.360 -1.0988  1.5148 -2.9143
52332SOL     OW66925   3.584   5.771   7.383  0.0723  0.6457  0.0605
52332SOL    HW166926   3.498   5.789   7.346  0.5120  1.3059 -0.6765
52332SOL    HW266927   3.567   5.709   7.454 -0.9092  0.1247 -0.6106
52333SOL     OW66928  11.234   3.409   7.073  0.1610 -0.1048  0.0318
52333SOL    HW166929  11.261   3.317   7.062  1.3333  0.3370 -1.1078
52333SOL    HW266930  11.176   3.408   7.149  1.7933 -1.4827  1.3653
52334SOL     OW66931   3.360   9.564   2.850 -0.3760 -0.2752 -0.1878
52334SOL    HW166932   3.420   9.613   2.793 -1.7461  1.4535 -0.2423
52334SOL    HW266933   3.282   9.551   2.796 -1.1663  0.1473  0.8216
52335SOL     OW66934   1.867   0.670   0.512 -0.1875  0.3738  0.0938
52335SOL    HW166935   1.957   0.639   0.506 -0.2938 -0.4071  1.9491
52335SOL    HW266936   1.828   0.619   0.583 -2.5772 -0.4346 -1.6671
52336SOL     OW66937   8.482   1.075  11.973 -0.6267 -0.3969 -0.4988
52336SOL    HW166938   8.551   1.052  12.036 -0.5338 -0.2806 -0.5578
52336SOL    HW266939   8.515   1.153  11.930 -1.1843  0.1694  0.0752
52337SOL     OW66940   8.708  10.685   2.831  0.1682  0.1232 -0.1614
52337SOL    HW166941   8.794  10.648   2.810  0.3462  1.0057 -1.0740
52337SOL    HW266942   8.724  10.738   2.909  0.2640 -0.3746  0.1642
52338SOL     OW66943   2.910   1.949   8.617  0.1110  0.7649 -0.0026
52338SOL    HW166944   2.977   1.883   8.604 -0.8558 -0.3567  0.4896
52338SOL    HW266945   2.865   1.922   8.697  0.2729  2.5400  0.7335
52339SOL     OW66946   7.980   8.717  11.980 -0.5874  0.0784  0.2058
52339SOL    HW166947   7.924   8.640  11.977 -0.0706 -0.2995  0.1254
52339SOL    HW266948   7.926   8.788  11.946 -0.9720 -0.3054  0.0141
52340SOL     OW66949  10.776   1.240  12.156 -0.4947  0.2962 -0.1766
52340SOL    HW166950  10.699   1.279  12.198 -1.4158 -2.4973  1.0115
52340SOL    HW266951  10.739   1.175  12.095  0.8610 -0.8898  0.2087
52341SOL     OW66952  11.820  13.281   3.342 -0.3286 -0.1679  0.0987
52341SOL    HW166953  11.871  13.360   3.327 -0.7546 -0.2654 -2.2016
52341SOL    HW266954  11.884  13.216   3.371  0.4104  0.3909 -0.2686
52342SOL     OW66955   9.870   8.772   2.325 -0.0058  0.4720 -0.2670
52342SOL    HW166956   9.959   8.745   2.303  0.5200  1.7441  0.2173
52342SOL    HW266957   9.870   8.780   2.420 -1.3012 -1.6887 -0.0093
52343SOL     OW66958   9.479   5.311  12.329 -0.2852  0.1848  0.5791
52343SOL    HW166959   9.505   5.263  12.408 -0.5790 -1.7845 -0.4548
52343SOL    HW266960   9.503   5.253  12.257 -3.7248  0.0608 -0.6202
52344SOL     OW66961   3.395   0.652   4.035  0.3608  0.6697 -0.0006
52344SOL    HW166962   3.383   0.559   4.016 -0.3342  0.1594  2.5980
52344SOL    HW266963   3.472   0.677   3.982  0.7756 -1.4350 -0.5049
52345SOL     OW66964   7.665   5.678   9.589  0.1161 -0.0605  0.0774
52345SOL    HW166965   7.656   5.750   9.526  1.2944  0.0197 -0.0120
52345SOL    HW266966   7.576   5.664   9.622 -0.2359  0.9970 -0.3866
52346SOL     OW66967   4.882  12.368   7.785 -0.4936 -0.2178  0.4739
52346SOL    HW166968   4.792  12.338   7.797 -0.5949 -0.0855  0.0720
52346SOL    HW266969   4.908  12.333   7.700 -1.0050  1.7268 -0.5490
52347SOL     OW66970   5.474   1.095  10.394  0.3014 -0.1760 -0.5655
52347SOL    HW166971   5.466   1.155  10.468  2.1419  0.3293 -0.7288
52347SOL    HW266972   5.537   1.029  10.424  1.8179  0.5587 -1.9616
52348SOL     OW66973   4.075   7.699   7.369  0.3284 -0.5952 -0.0670
52348SOL    HW166974   3.980   7.701   7.369  0.3355  0.1050 -0.7203
52348SOL    HW266975   4.101   7.787   7.396  0.8105 -1.4268  2.4798
52349SOL     OW66976  12.802  11.836  11.734  0.3734 -0.5198  0.2086
52349SOL    HW166977  12.762  11.752  11.710  0.4465  0.1379 -2.5325
52349SOL    HW266978  12.895  11.816  11.746  1.0909 -0.4176 -3.8824
52350SOL     OW66979   7.535   9.816   3.505 -0.0284 -0.2404  0.0121
52350SOL    HW166980   7.577   9.760   3.440  0.2034 -1.5736  1.2554
52350SOL    HW266981   7.608   9.859   3.551 -0.0864 -0.8881  0.7326
52351SOL     OW66982   2.727  12.605   5.948 -0.6674  0.0813  0.2474
52351SOL    HW166983   2.667  12.646   5.885 -0.3029 -0.7868 -0.6794
52351SOL    HW266984   2.687  12.520   5.967 -0.7852  0.3425  1.2217
52352SOL     OW66985  13.162  11.206   7.059 -0.0351  0.1743  0.1301
52352SOL    HW166986  13.120  11.290   7.077  0.1570  0.1733  0.6164
52352SOL    HW266987  13.252  11.216   7.092 -0.1359 -0.3572  0.5958
52353SOL     OW66988   4.629  11.197   5.689  0.0150 -0.4641 -0.0513
52353SOL    HW166989   4.582  11.276   5.663  1.8614  0.8745  0.4461
52353SOL    HW266990   4.645  11.209   5.783  1.7459 -0.5877 -0.2916
52354SOL     OW66991   0.791  12.389   0.494 -0.1755  0.1180 -0.1249
52354SOL    HW166992   0.773  12.328   0.422  1.3047  0.8284 -1.1568
52354SOL    HW266993   0.744  12.353   0.569 -0.1307 -1.7558 -0.9457
52355SOL     OW66994   1.859   4.006   3.037  0.1451  0.1909  0.1751
52355SOL    HW166995   1.925   4.025   3.105  0.6034  0.1132 -0.2422
52355SOL    HW266996   1.910   3.991   2.958 -0.3485 -0.4504 -0.0311
52356SOL     OW66997   0.070   0.146   8.169 -0.3114  0.0824  0.0545
52356SOL    HW166998   0.029   0.142   8.082 -0.1887  2.2281 -0.1714
52356SOL    HW266999   0.160   0.119   8.154 -0.3312  0.2862 -0.4637
52357SOL     OW67000   6.886  12.391   2.358  0.4881 -0.6806 -0.0346
52357SOL    HW167001   6.963  12.441   2.332  0.3968 -0.6433 -0.2380
52357SOL    HW267002   6.839  12.376   2.276 -0.2761  0.2174  0.2303
52358SOL     OW67003   9.431   7.292   5.597  0.1346  0.0016  0.2049
52358SOL    HW167004   9.459   7.311   5.507 -0.8055  0.3376 -0.0290
52358SOL    HW267005   9.512   7.292   5.648  0.5530  1.0008 -0.4306
52359SOL     OW67006   3.277  12.074  13.203 -0.0147 -0.0959  0.0963
52359SOL    HW167007   3.293  12.009  13.272 -1.0604  0.8966  1.3248
52359SOL    HW267008   3.333  12.148  13.226  1.0059 -0.4334 -1.1729
52360SOL     OW67009  11.163  12.659   2.074  0.3483 -0.1953  0.4054
52360SOL    HW167010  11.208  12.736   2.107  1.6536 -0.4943 -0.6271
52360SOL    HW267011  11.123  12.687   1.992  1.4155 -0.7832 -0.3300
52361SOL     OW67012   9.901   3.665   4.538 -0.2694 -0.5632  0.1060
52361SOL    HW167013   9.833   3.700   4.481  0.6384 -1.9409 -1.9640
52361SOL    HW267014   9.874   3.574   4.553  0.6036 -0.8463  0.0305
52362SOL     OW67015   2.039   7.052   5.717 -0.5555 -0.1186  0.4779
52362SOL    HW167016   2.117   7.084   5.763  0.2387 -1.2472 -0.0198
52362SOL    HW267017   2.005   7.128   5.670 -0.8470  0.8389  2.1560
52363SOL     OW67018   9.302   6.683   0.993 -0.0569 -0.8251  0.0040
52363SOL    HW167019   9.369   6.683   0.924 -0.9142 -0.0493 -0.8443
52363SOL    HW267020   9.223   6.649   0.950 -0.6129 -0.3076  0.5986
52364SOL     OW67021  10.132  12.423   7.544  0.3408 -0.0225 -0.3478
52364SOL    HW167022  10.044  12.394   7.519  0.4786  0.6461 -1.6808
52364SOL    HW267023  10.116  12.491   7.610 -0.0931 -0.6282  0.1871
52365SOL     OW67024   2.888   6.750   3.146 -0.2691  0.0614 -0.4519
52365SOL    HW167025   2.864   6.678   3.088  0.0967 -0.2574 -0.2104
52365SOL    HW267026   2.868   6.829   3.096  0.6868 -0.2035 -1.2840
52366SOL     OW67027   2.221  11.022  13.194 -0.0648  0.2222  0.0439
52366SOL    HW167028   2.129  10.998  13.204 -0.0746  0.9623  2.4902
52366SOL    HW267029   2.220  11.117  13.179  0.3043  0.4525  1.3672
52367SOL     OW67030   2.684   3.191   4.994 -0.2118 -0.0476  0.0554
52367SOL    HW167031   2.626   3.117   5.012 -0.7258  0.6415  1.2953
52367SOL    HW267032   2.704   3.183   4.900 -2.3746 -0.2553 -0.4424
52368SOL     OW67033   4.267   4.644   4.325  0.1124  0.2177 -0.2021
52368SOL    HW167034   4.212   4.593   4.386 -2.1369 -0.9733 -2.9963
52368SOL    HW267035   4.229   4.626   4.239  2.6029  2.4957 -1.9020
52369SOL     OW67036   0.630   0.341   0.787 -0.2964  0.5593 -0.2721
52369SOL    HW167037   0.652   0.413   0.845 -1.8020 -0.7091  2.0542
52369SOL    HW267038   0.646   0.262   0.840 -2.5417 -0.6303 -1.2346
52370SOL     OW67039  11.008   8.489   3.280 -0.2617 -0.5473 -0.5810
52370SOL    HW167040  10.931   8.502   3.225 -0.5456  2.3762  0.3109
52370SOL    HW267041  10.972   8.464   3.365 -0.1990 -0.1077 -0.4197
52371SOL     OW67042   0.478   8.181   8.469  0.4410  0.3311 -0.7317
52371SOL    HW167043   0.540   8.109   8.456 -0.1511 -0.3784  0.2993
52371SOL    HW267044   0.395   8.149   8.435 -0.3374 -0.3189  1.6141
52372SOL     OW67045   3.500  10.309   4.509 -0.2539  0.5335  0.1110
52372SOL    HW167046   3.581  10.283   4.552  0.0214  1.6155  0.2760
52372SOL    HW267047   3.445  10.230   4.510  1.6223 -0.9520 -2.0855
52373SOL     OW67048  13.013   1.905   8.719  0.5806 -0.5571  0.3963
52373SOL    HW167049  13.027   1.888   8.626  0.2325 -0.8626  0.3952
52373SOL    HW267050  13.087   1.959   8.745 -0.4294  1.3855 -0.5433
52374SOL     OW67051   2.396   8.331   1.653 -0.0556 -0.5002  0.1585
52374SOL    HW167052   2.356   8.417   1.662  0.5190  0.0482 -2.0555
52374SOL    HW267053   2.467   8.330   1.717 -1.1705 -0.0486  1.4463
52375SOL     OW67054  12.750   4.449   3.017 -0.1573  0.2515 -0.1116
52375SOL    HW167055  12.804   4.508   2.964  1.4324 -0.3675  0.7280
52375SOL    HW267056  12.784   4.361   2.997 -3.7820 -0.7619 -2.8824
52376SOL     OW67057  12.417   6.270  11.002 -0.1231 -0.4540  0.0622
52376SOL    HW167058  12.459   6.338  10.950 -0.0881 -0.4466  0.1003
52376SOL    HW267059  12.359   6.225  10.941  0.1482 -0.6447 -0.0567
52377SOL     OW67060   4.690   2.714   4.680  0.2958 -0.0686 -0.0088
52377SOL    HW167061   4.639   2.796   4.674 -0.6211 -0.6042  0.2310
52377SOL    HW267062   4.718   2.697   4.590 -0.7121 -0.2215 -0.3073
52378SOL     OW67063   1.587   6.518   4.993  0.0266  0.0995 -0.3478
52378SOL    HW167064   1.662   6.473   5.033 -0.0618  0.5573  0.3629
52378SOL    HW267065   1.627   6.592   4.946 -0.0647  1.2570  1.3151
52379SOL     OW67066   4.141   4.277   1.060  0.9454  0.2540 -0.6758
52379SOL    HW167067   4.046   4.288   1.069  1.1568  0.9065  1.1050
52379SOL    HW267068   4.166   4.341   0.993  0.2352  0.6633 -0.5614
52380SOL     OW67069   5.165   1.004   2.676  0.3942 -0.4620 -0.9497
52380SOL    HW167070   5.255   1.025   2.700  0.2924 -0.9179 -0.1376
52380SOL    HW267071   5.133   1.082   2.632  0.9920 -0.0752 -0.7082
52381SOL     OW67072  11.665   7.505   4.339  0.2925  0.7138 -0.3939
52381SOL    HW167073  11.622   7.421   4.320 -0.2338  0.8965 -0.0363
52381SOL    HW267074  11.755   7.493   4.308  0.8164 -0.6952  1.4130
52382SOL     OW67075  13.227   6.048   9.185  0.2383 -0.6155 -0.0122
52382SOL    HW167076  13.302   5.995   9.157  0.2004 -0.8363  0.2936
52382SOL    HW267077  13.152   5.990   9.176  0.0699 -0.3166 -0.5442
52383SOL     OW67078   9.549   5.590   4.834 -0.4735  1.0837 -0.3159
52383SOL    HW167079   9.502   5.543   4.903  0.1663 -1.2740 -1.3900
52383SOL    HW267080   9.623   5.631   4.879 -2.4425  3.3298  1.0739
52384SOL     OW67081  12.921   2.298   6.889 -0.3896  0.3219  0.7272
52384SOL    HW167082  13.015   2.282   6.877 -0.8041 -1.5693 -0.4196
52384SOL    HW267083  12.888   2.216   6.926 -2.0218 -0.0875 -1.4914
52385SOL     OW67084   1.042   6.328  11.196  0.2928  0.1857 -0.8945
52385SOL    HW167085   1.102   6.270  11.150  0.5828 -0.7701  0.6047
52385SOL    HW267086   1.094   6.364  11.269 -0.7885 -0.2955  0.1502
52386SOL     OW67087   5.084   8.533   0.936  0.0256 -0.2158 -0.1524
52386SOL    HW167088   5.020   8.573   0.877  0.5239 -0.0382 -0.5827
52386SOL    HW267089   5.167   8.576   0.915  0.8724 -2.3657 -1.5769
52387SOL     OW67090   1.468   2.800   0.192  0.1128 -0.1963  0.0429
52387SOL    HW167091   1.419   2.765   0.266  1.0887  0.7708  1.2084
52387SOL    HW267092   1.483   2.892   0.215 -1.1540  0.6762 -2.2365
52388SOL     OW67093  10.189   0.108   6.695 -0.3519 -0.3023 -0.2942
52388SOL    HW167094  10.264   0.147   6.740  0.0787 -1.1125 -0.2832
52388SOL    HW267095  10.224   0.075   6.613 -1.1484  1.2155 -1.2935
52389SOL     OW67096   8.400   9.323   8.841  0.2964  0.1943  0.4149
52389SOL    HW167097   8.370   9.371   8.764 -2.1207  0.6869  1.5691
52389SOL    HW267098   8.495   9.316   8.829  0.0704  0.5776 -2.3825
52390SOL     OW67099  12.224   0.052   7.213  0.0285  0.6947  0.8706
52390SOL    HW167100  12.176  -0.007   7.272 -0.8405  0.2060 -0.2857
52390SOL    HW267101  12.183   0.137   7.226  1.0859  1.0357  2.3194
52391SOL     OW67102   9.687   2.173  10.887 -0.0783  0.1551 -0.1328
52391SOL    HW167103   9.724   2.164  10.799  2.8314 -0.5687  1.0560
52391SOL    HW267104   9.658   2.084  10.910 -1.7031  0.5158 -0.6432
52392SOL     OW67105   4.131   3.097   1.715 -0.4860 -0.0313 -0.3673
52392SOL    HW167106   4.177   3.082   1.798  1.2894 -0.9529 -1.4503
52392SOL    HW267107   4.126   3.011   1.674 -0.3706  0.5572 -1.6744
52393SOL     OW67108   4.591   8.883  11.150 -0.1616  0.4329  0.3668
52393SOL    HW167109   4.532   8.815  11.118 -0.1419  0.0901  1.0521
52393SOL    HW267110   4.595   8.946  11.078  0.9481 -0.9857 -0.8847
52394SOL     OW67111   8.828   6.824   1.227  0.0572 -0.1539 -0.0415
52394SOL    HW167112   8.765   6.830   1.298  0.8863  0.6755  0.6459
52394SOL    HW267113   8.778   6.788   1.153 -1.5421  1.6463  0.0892
52395SOL     OW67114   7.417   7.277   4.924 -0.3890 -0.4495  0.1638
52395SOL    HW167115   7.423   7.366   4.958  0.5181 -0.9233  1.3291
52395SOL    HW267116   7.390   7.287   4.833  0.0380  1.0292  0.1822
52396SOL     OW67117   7.860   0.068  12.780  0.3036  0.1634  0.0449
52396SOL    HW167118   7.816   0.077  12.695 -2.4205  0.2313  1.3419
52396SOL    HW267119   7.892  -0.022  12.781 -0.1401 -0.0195 -0.8152
52397SOL     OW67120   5.390   4.239   3.209 -0.4363  0.5956  0.0109
52397SOL    HW167121   5.310   4.286   3.232 -0.3777  1.3202 -1.1826
52397SOL    HW267122   5.399   4.172   3.277 -1.1401  1.5695  1.1032
52398SOL     OW67123   0.660  11.643  12.496  0.0517  0.1141  0.7302
52398SOL    HW167124   0.729  11.626  12.432 -1.2432  1.6571 -1.2004
52398SOL    HW267125   0.706  11.672  12.574  1.6064  0.2890 -0.2125
52399SOL     OW67126   9.181  10.295   9.573 -0.8181 -0.3336 -0.0431
52399SOL    HW167127   9.214  10.224   9.519 -1.7059 -1.8794  1.3540
52399SOL    HW267128   9.191  10.373   9.519  0.6151 -1.4277 -1.4562
52400SOL     OW67129   0.549   0.799   1.149  0.1963 -0.5036 -0.2379
52400SOL    HW167130   0.487   0.870   1.132  1.7073  1.5289  2.0275
52400SOL    HW267131   0.577   0.771   1.062 -1.7523  0.4245 -1.2482
52401SOL     OW67132   5.084   0.528   2.025  0.1727  0.7268  0.4929
52401SOL    HW167133   5.164   0.558   1.980  0.4027  1.8777  1.6277
52401SOL    HW267134   5.058   0.450   1.976  1.8561  0.4603 -0.0680
52402SOL     OW67135   9.129   0.923   0.030  0.1427  0.1110  0.5915
52402SOL    HW167136   9.068   0.992   0.054  1.3072  0.6924  2.0159
52402SOL    HW267137   9.091   0.843   0.067  0.2709  0.4809  1.5389
52403SOL     OW67138  10.520   5.960   4.895 -0.3828 -0.3216  0.5471
52403SOL    HW167139  10.490   5.873   4.921 -3.1458  0.8296  1.5457
52403SOL    HW267140  10.546   5.950   4.803 -2.1206 -1.8937  0.1650
52404SOL     OW67141   2.212  10.740  10.456  0.1829  0.0022  0.1729
52404SOL    HW167142   2.189  10.715  10.545 -0.8096 -0.8577 -0.3121
52404SOL    HW267143   2.280  10.679  10.430  1.0830  0.7872  0.6199
52405SOL     OW67144   2.909   1.765   1.043 -0.5936 -0.0929  0.1175
52405SOL    HW167145   2.835   1.741   0.988  0.0005 -1.1838 -0.2326
52405SOL    HW267146   2.888   1.853   1.074 -1.0949  0.4246 -1.5853
52406SOL     OW67147   2.071   0.730   3.205  0.0264  0.5213  0.0568
52406SOL    HW167148   2.056   0.636   3.204  1.3999  0.2797 -0.5447
52406SOL    HW267149   2.022   0.763   3.129  0.7292  0.0601 -0.6196
52407SOL     OW67150   9.523   7.761   3.174  0.0710 -0.0698 -0.2152
52407SOL    HW167151   9.488   7.848   3.195 -1.3370 -1.1880  2.6301
52407SOL    HW267152   9.454   7.720   3.122  0.6518  0.4090 -1.3912
52408SOL     OW67153   4.262   8.474   9.504 -0.3133 -0.0097 -0.0019
52408SOL    HW167154   4.274   8.559   9.462  0.6330 -0.6445 -1.0924
52408SOL    HW267155   4.341   8.425   9.481 -1.1225 -1.4010  0.0742
52409SOL     OW67156   3.650   4.606   9.093 -0.0974 -0.5260  0.0226
52409SOL    HW167157   3.705   4.545   9.142  0.4626  0.3559  0.5133
52409SOL    HW267158   3.694   4.690   9.103 -1.0130  0.0074 -0.4137
52410SOL     OW67159  12.836   3.352   7.392 -0.1434 -0.4173  0.5048
52410SOL    HW167160  12.896   3.406   7.339  0.0992  0.7016  1.8728
52410SOL    HW267161  12.809   3.282   7.333  1.7011 -0.3540 -0.4823
52411SOL     OW67162   1.762   1.331   9.236 -0.4280  0.4214  0.1584
52411SOL    HW167163   1.816   1.269   9.187 -0.7691  1.0561 -1.0579
52411SOL    HW267164   1.786   1.316   9.327 -0.4774 -1.4562 -0.1009
52412SOL     OW67165   6.967  11.622  13.060  0.1904  0.4156 -0.6296
52412SOL    HW167166   7.031  11.664  13.002 -2.2925  1.3470 -2.9303
52412SOL    HW267167   6.962  11.532  13.027 -0.6005  0.7094 -1.3397
52413SOL     OW67168   4.102   0.791  12.462  0.1319  0.1527 -0.0317
52413SOL    HW167169   4.177   0.777  12.520  0.6024  2.0442 -0.1107
52413SOL    HW267170   4.026   0.783  12.519  0.3367 -1.8295  0.0436
52414SOL     OW67171   9.136   8.368   9.834  0.1770  0.2481  0.5635
52414SOL    HW167172   9.191   8.446   9.826 -0.1942  0.4886  0.3325
52414SOL    HW267173   9.110   8.366   9.926 -2.1110  1.9952  0.0489
52415SOL     OW67174   9.444   6.361   2.408 -0.0909 -0.2307  0.4099
52415SOL    HW167175   9.355   6.369   2.375 -0.8383 -0.9287  2.1717
52415SOL    HW267176   9.454   6.269   2.430  1.1347 -0.1972  0.1098
52416SOL     OW67177   2.643   4.903   8.620 -0.4951 -0.3638 -0.1849
52416SOL    HW167178   2.554   4.877   8.595 -0.8020  0.7542 -0.3128
52416SOL    HW267179   2.632   4.947   8.705 -0.2426  0.8381 -0.7584
52417SOL     OW67180  12.345  13.169   2.106  0.1021 -0.2079  0.5846
52417SOL    HW167181  12.371  13.148   2.016  0.4598  0.7081  0.4605
52417SOL    HW267182  12.256  13.135   2.114 -1.1802  2.3813 -1.1580
52418SOL     OW67183   1.762   0.850   0.035 -0.4590  0.4384 -0.0377
52418SOL    HW167184   1.809   0.769   0.053 -0.7265 -0.8389 -3.9858
52418SOL    HW267185   1.672   0.832   0.060 -0.0554  0.5431  1.5757
52419SOL     OW67186  11.844   5.374  11.759 -0.1964 -0.7006  0.0463
52419SOL    HW167187  11.914   5.367  11.823 -0.8306 -0.3523  0.7903
52419SOL    HW267188  11.790   5.296  11.774 -0.6018 -0.3821  0.2526
52420SOL     OW67189   6.326   6.420   1.445  0.3115  0.0566  0.7243
52420SOL    HW167190   6.291   6.435   1.357 -0.8784  0.6788  1.2824
52420SOL    HW267191   6.284   6.486   1.499  1.4414  0.0250  1.6746
52421SOL     OW67192   8.036   2.418  10.095  0.9329  0.2888  0.1206
52421SOL    HW167193   7.965   2.457  10.043 -0.3321  0.6420  2.0173
52421SOL    HW267194   8.109   2.410  10.034 -0.4457  0.7754 -1.6731
52422SOL     OW67195   9.960   8.349  11.541 -0.3863 -0.1144  0.7589
52422SOL    HW167196   9.961   8.323  11.633  0.4876 -0.0280  0.7827
52422SOL    HW267197  10.053   8.359  11.518 -0.6465  2.0890  0.4919
52423SOL     OW67198   0.400   8.145   8.772 -0.2080  0.0343 -0.0882
52423SOL    HW167199   0.429   8.062   8.810  1.0617  0.7201  0.4901
52423SOL    HW267200   0.323   8.122   8.720  1.3544 -1.8762 -1.7081
52424SOL     OW67201   8.638   7.039   2.428 -0.8192 -0.2511  0.3007
52424SOL    HW167202   8.700   7.105   2.459 -0.2023  0.0483 -1.4108
52424SOL    HW267203   8.584   7.018   2.504  1.0155 -0.1109  1.7065
52425SOL     OW67204   4.886   4.813   8.617  0.0726 -0.2206  0.0941
52425SOL    HW167205   4.805   4.768   8.641 -0.2291  1.8617  3.6647
52425SOL    HW267206   4.857   4.895   8.577  0.4808 -0.3575 -0.4957
52426SOL     OW67207   3.795   3.885   6.806  0.2171  0.1545 -0.0484
52426SOL    HW167208   3.808   3.873   6.900  0.3566 -1.4021 -0.2411
52426SOL    HW267209   3.710   3.930   6.799  1.1172  2.1171  0.8664
52427SOL     OW67210   9.392   2.997   2.525 -0.0580 -0.0091  0.0900
52427SOL    HW167211   9.325   2.959   2.468 -1.1867  0.1989  1.2356
52427SOL    HW267212   9.419   3.077   2.481 -0.3349 -0.2539 -0.5383
52428SOL     OW67213  11.056   8.324   5.103 -0.0203  0.3496 -0.4052
52428SOL    HW167214  11.144   8.358   5.088  0.2832 -0.9903 -2.0122
52428SOL    HW267215  11.068   8.229   5.111 -1.1208  0.3106  1.3152
52429SOL     OW67216   4.726  11.206   1.934  0.7323  0.7521 -0.1020
52429SOL    HW167217   4.687  11.291   1.915  0.6932  0.7835  0.1192
52429SOL    HW267218   4.671  11.168   2.002  0.5001  0.3664 -0.4936
52430SOL     OW67219   9.878  11.444   2.934 -0.4427  0.3719  0.0791
52430SOL    HW167220   9.957  11.447   2.881 -1.3519  0.5029 -1.3162
52430SOL    HW267221   9.829  11.522   2.909 -0.8813  0.4663  1.1636
52431SOL     OW67222   2.294   3.274   7.504 -0.1714 -0.2467 -0.6247
52431SOL    HW167223   2.332   3.319   7.428  0.2208  0.0874 -0.2297
52431SOL    HW267224   2.302   3.336   7.576 -0.1023 -0.7464 -0.1945
52432SOL     OW67225   9.038  13.157   7.778 -0.3221  0.0065 -0.3060
52432SOL    HW167226   9.057  13.177   7.687 -0.7747  1.7717 -0.0515
52432SOL    HW267227   8.953  13.198   7.795 -1.3973 -2.2797  0.3104
52433SOL     OW67228   6.765   6.105   4.825 -0.0851  0.3050  0.0509
52433SOL    HW167229   6.684   6.151   4.802  0.1840  0.6247 -0.2685
52433SOL    HW267230   6.804   6.081   4.741  0.6761  1.0860  0.1693
52434SOL     OW67231   1.563   2.314   6.357 -0.1558 -0.1274  0.3483
52434SOL    HW167232   1.593   2.307   6.267  1.2956 -1.4755  0.8811
52434SOL    HW267233   1.615   2.386   6.394  1.0503 -1.1591  0.7299
52435SOL     OW67234  10.408   4.392   6.635  0.8343 -0.1816  0.1697
52435SOL    HW167235  10.455   4.379   6.717  0.3368 -0.5821  0.4016
52435SOL    HW267236  10.450   4.467   6.594  0.5294  0.5774  1.2128
52436SOL     OW67237   0.057   5.380   4.885  0.0556 -0.1352 -0.9382
52436SOL    HW167238   0.093   5.443   4.823 -0.3850 -0.2370 -1.3036
52436SOL    HW267239   0.120   5.378   4.957  1.4065 -1.1588 -2.0672
52437SOL     OW67240   9.137   1.292   4.334  0.1600 -0.3816 -0.6185
52437SOL    HW167241   9.197   1.221   4.312 -0.3022 -0.6225 -1.1224
52437SOL    HW267242   9.067   1.250   4.384  0.7766  0.0258  0.6406
52438SOL     OW67243  13.048  12.161   9.252  0.2543 -0.2044 -0.0027
52438SOL    HW167244  13.134  12.127   9.229  1.1870  1.4590  0.8091
52438SOL    HW267245  13.002  12.170   9.168  1.0440 -0.6337 -0.4907
52439SOL     OW67246  12.505  10.819   1.728  0.2098 -0.0622  0.0109
52439SOL    HW167247  12.570  10.888   1.746  0.3552 -0.0777 -0.4361
52439SOL    HW267248  12.556  10.738   1.728 -0.0453 -0.2360  1.0480
52440SOL     OW67249   2.586   3.365   7.637  0.4846  0.1231  0.0882
52440SOL    HW167250   2.678   3.394   7.636  0.8122 -0.8354  0.4076
52440SOL    HW267251   2.575   3.316   7.556  0.8029 -1.2827  0.8522
52441SOL     OW67252  11.721  10.562   8.722 -0.0996 -0.7760  0.0869
52441SOL    HW167253  11.640  10.551   8.673  0.8025  1.1247 -1.9882
52441SOL    HW267254  11.789  10.529   8.664  0.7448 -1.4295  1.3954
52442SOL     OW67255   9.179   0.925   5.544 -0.0655 -0.1248  0.0479
52442SOL    HW167256   9.269   0.949   5.521 -0.8557  4.5207  0.8879
52442SOL    HW267257   9.129   1.006   5.534 -4.1446 -2.3743  0.0932
52443SOL     OW67258   6.890  11.011  10.371 -0.0393 -0.0321 -0.1513
52443SOL    HW167259   6.900  11.105  10.358 -0.0815  0.2140  1.4171
52443SOL    HW267260   6.810  10.989  10.325  0.0481  0.6667 -0.6549
52444SOL     OW67261  10.919   8.695   0.802  0.1942  0.2840  0.3834
52444SOL    HW167262  11.005   8.665   0.771 -0.0139  0.1774 -0.0910
52444SOL    HW267263  10.868   8.710   0.723 -0.0724  0.8214  0.6457
52445SOL     OW67264   9.377   6.011   9.205  0.5394 -0.0085  0.0317
52445SOL    HW167265   9.377   6.008   9.109  0.1567  0.3163  0.0208
52445SOL    HW267266   9.291   5.975   9.230  0.3801  0.5020  0.2304
52446SOL     OW67267  10.808  11.642   2.305 -0.2493  0.1500  0.8323
52446SOL    HW167268  10.784  11.561   2.260 -0.1625  0.6311 -0.1139
52446SOL    HW267269  10.754  11.643   2.384 -0.2797 -0.8034  0.8310
52447SOL     OW67270   5.698  10.154   5.823  0.2295 -0.4652 -0.6482
52447SOL    HW167271   5.618  10.102   5.813 -0.4366  0.6325 -1.2106
52447SOL    HW267272   5.768  10.089   5.829 -0.8626 -1.5682  2.0965
52448SOL     OW67273   9.127   7.493   7.934  0.0463  0.5390  0.1339
52448SOL    HW167274   9.188   7.556   7.894  1.3610 -0.2281  0.8664
52448SOL    HW267275   9.094   7.538   8.012  0.3305  0.6438  0.1959
52449SOL     OW67276   0.484   0.846   8.523 -0.6248  1.0414 -0.3411
52449SOL    HW167277   0.390   0.859   8.521 -0.8681 -0.4681 -0.3587
52449SOL    HW267278   0.516   0.907   8.589 -2.0866 -0.8251  2.2926
52450SOL     OW67279  11.711  12.095   0.393  0.2423 -0.3068 -0.3935
52450SOL    HW167280  11.738  12.007   0.368  0.2528 -1.0388  1.9635
52450SOL    HW267281  11.683  12.087   0.485 -3.4355  1.3396 -1.1478
52451SOL     OW67282   4.807  13.011   6.165  0.0838 -0.1036 -0.1201
52451SOL    HW167283   4.747  12.969   6.103 -0.6553  0.7993 -0.0378
52451SOL    HW267284   4.839  13.089   6.120  0.5241 -0.1142  0.1660
52452SOL     OW67285   6.349   8.426   4.197 -0.3434  0.1806 -0.3109
52452SOL    HW167286   6.430   8.388   4.163 -0.4355 -1.0043  0.7055
52452SOL    HW267287   6.337   8.384   4.282 -2.3504 -0.1135 -0.6866
52453SOL     OW67288  11.697   6.012  12.100  0.3844 -0.1013 -0.5843
52453SOL    HW167289  11.669   5.932  12.056 -0.7708 -0.7363  1.2043
52453SOL    HW267290  11.774   5.986  12.151  1.0024  0.3452 -1.2699
52454SOL     OW67291   4.086   4.697   8.628  0.8260  0.1016  0.6343
52454SOL    HW167292   4.029   4.753   8.574  0.9621  0.3973  0.7951
52454SOL    HW267293   4.049   4.704   8.716  0.6543 -0.3159  0.5989
52455SOL     OW67294  11.614   8.430  13.217  0.5683 -0.2133  0.4203
52455SOL    HW167295  11.632   8.415  13.124  0.3889  2.0728 -0.0540
52455SOL    HW267296  11.526   8.397  13.231 -0.3760  1.5959 -0.8828
52456SOL     OW67297   6.885   1.270   2.984  0.3896 -0.3912  0.1071
52456SOL    HW167298   6.862   1.209   3.055 -0.6071 -0.9042 -0.6413
52456SOL    HW267299   6.834   1.241   2.909  0.0797  1.2348 -0.3490
52457SOL     OW67300  11.453   9.998   8.033 -0.3906 -0.0341 -0.2915
52457SOL    HW167301  11.419  10.017   7.946 -0.2628  0.8775 -0.1462
52457SOL    HW267302  11.413   9.914   8.056  0.4005 -0.8424 -1.6613
52458SOL     OW67303  10.152   4.651   1.460  0.2976 -0.1629  0.1076
52458SOL    HW167304  10.078   4.636   1.518  1.0168 -1.2127  0.7907
52458SOL    HW267305  10.142   4.741   1.430 -0.7630 -0.0091  0.8885
52459SOL     OW67306   3.672  10.302  10.578 -0.4481  0.3184 -0.3638
52459SOL    HW167307   3.729  10.295  10.502  0.1154  2.1964 -0.1710
52459SOL    HW267308   3.626  10.386  10.565 -1.6210 -0.1672  0.5084
52460SOL     OW67309   6.753   6.114   5.959 -0.2280  0.1271 -0.0141
52460SOL    HW167310   6.782   6.101   6.049  0.6790 -2.3445 -0.5850
52460SOL    HW267311   6.683   6.049   5.947  0.5580 -0.5119 -1.4279
52461SOL     OW67312   0.346   8.863   8.256 -0.0155  0.6851  0.1632
52461SOL    HW167313   0.270   8.887   8.310 -0.9060  0.8095 -1.0941
52461SOL    HW267314   0.310   8.853   8.168  1.0065 -1.6063 -0.0664
52462SOL     OW67315   6.678   1.518   5.307 -0.3427 -0.1903 -0.2260
52462SOL    HW167316   6.620   1.594   5.299  0.8801  0.9463  1.2086
52462SOL    HW267317   6.632   1.460   5.368 -1.2930 -0.6721 -1.3475
52463SOL     OW67318  10.243   3.360  11.014 -0.7921  0.1608 -0.7475
52463SOL    HW167319  10.283   3.283  11.056 -4.1149 -1.7906 -0.8052
52463SOL    HW267320  10.228   3.422  11.085 -0.9569 -0.5939 -0.1122
52464SOL     OW67321   9.844  12.774   4.416  0.5609 -0.0483 -0.6481
52464SOL    HW167322   9.774  12.708   4.423 -0.3655  0.7951 -1.7198
52464SOL    HW267323   9.920  12.725   4.385 -0.3272 -0.5103 -2.2007
52465SOL     OW67324   6.353   7.006   8.718 -0.8625 -0.5108  0.1974
52465SOL    HW167325   6.378   7.008   8.810  1.1500 -1.6188 -0.2772
52465SOL    HW267326   6.379   7.092   8.685  1.1568 -1.1498  0.0334
52466SOL     OW67327   7.502   1.254   1.862  0.2885 -0.3794 -0.6173
52466SOL    HW167328   7.565   1.248   1.933  1.3197  2.5857 -1.1818
52466SOL    HW267329   7.417   1.257   1.906  0.9885  4.1860  0.8933
52467SOL     OW67330   2.942  10.611   0.267 -0.5580  0.4053 -0.3517
52467SOL    HW167331   2.995  10.545   0.313  1.2508  2.7715  1.2253
52467SOL    HW267332   2.966  10.600   0.174  1.1543  0.0237  0.0892
52468SOL     OW67333   4.887   7.707  11.414 -0.7244  0.0469  0.1798
52468SOL    HW167334   4.800   7.677  11.439 -0.8403  0.7186  0.5867
52468SOL    HW267335   4.871   7.769  11.343 -0.4958 -0.6577 -0.5096
52469SOL     OW67336   8.290  13.251   1.892 -0.4010 -0.2222  0.3351
52469SOL    HW167337   8.247  13.220   1.812  2.6534 -1.1987 -1.0918
52469SOL    HW267338   8.375  13.286   1.862 -0.7844  3.2881  2.7227
52470SOL     OW67339   1.356   9.675   4.814 -0.5589 -0.4157  0.0796
52470SOL    HW167340   1.356   9.734   4.738 -1.2929  0.0631  0.4316
52470SOL    HW267341   1.277   9.699   4.863  0.4377  0.0115  1.5600
52471SOL     OW67342   6.174   3.229   3.180 -0.1500  0.5885 -0.5848
52471SOL    HW167343   6.173   3.246   3.086  0.8303  0.1287 -0.6871
52471SOL    HW267344   6.243   3.285   3.214  0.5145 -0.3427 -0.3649
52472SOL     OW67345   2.350   2.178  10.524 -0.3416 -0.1039  0.6109
52472SOL    HW167346   2.366   2.254  10.469  1.2525 -0.3554  0.6618
52472SOL    HW267347   2.327   2.214  10.609  1.0321  0.3633  0.8110
52473SOL     OW67348   1.867   1.452   4.509 -0.0353 -0.1823  0.1042
52473SOL    HW167349   1.818   1.480   4.586  1.1323  2.8725 -0.1281
52473SOL    HW267350   1.818   1.378   4.475 -2.3644  0.3862  1.9770
52474SOL     OW67351  11.625   7.878   4.499  0.4015 -0.1053 -0.5360
52474SOL    HW167352  11.619   7.834   4.414  0.8841  0.7188 -1.0063
52474SOL    HW267353  11.552   7.940   4.500  1.3460  1.0556 -1.0574
52475SOL     OW67354   7.807   4.915   0.505  0.0646  0.1257  0.2318
52475SOL    HW167355   7.852   4.923   0.589 -0.0369  1.5236  0.1810
52475SOL    HW267356   7.755   4.995   0.498 -1.5610 -0.9283 -0.2368
52476SOL     OW67357   2.308  11.603   9.004 -0.1084  0.2496 -0.0491
52476SOL    HW167358   2.269  11.674   9.054 -2.3323 -1.2716  0.5173
52476SOL    HW267359   2.300  11.631   8.912  0.3839  1.3286  0.2251
52477SOL     OW67360  11.425   9.404   6.738 -0.3733  0.2761  0.1306
52477SOL    HW167361  11.387   9.467   6.799 -0.4219 -0.3513  0.7506
52477SOL    HW267362  11.508   9.378   6.779 -1.2929 -1.5868  0.8790
52478SOL     OW67363   8.258   1.096   5.260 -0.1939  0.3656  0.8695
52478SOL    HW167364   8.187   1.102   5.324 -0.5835  0.8158  0.4015
52478SOL    HW267365   8.241   1.014   5.213  0.5341 -0.3671  1.8496
52479SOL     OW67366   3.444   7.645   7.599  0.5013 -0.2841  0.4847
52479SOL    HW167367   3.370   7.628   7.657  0.8820  0.0194  1.0734
52479SOL    HW267368   3.417   7.719   7.546  0.6075  0.2421  1.1394
52480SOL     OW67369  11.129   8.027   5.786  0.0884  0.7919 -0.3039
52480SOL    HW167370  11.104   7.952   5.841 -0.6080  1.8861  0.9166
52480SOL    HW267371  11.105   8.000   5.698  1.5855 -1.1675 -0.1913
52481SOL     OW67372   0.567   4.170   6.163  0.0320 -0.0679  0.1399
52481SOL    HW167373   0.610   4.201   6.242  0.4074 -1.7733  0.6543
52481SOL    HW267374   0.500   4.108   6.194  0.2315 -0.8201 -0.8535
52482SOL     OW67375   6.189   1.256   6.725 -0.5612 -0.0535  0.0684
52482SOL    HW167376   6.214   1.200   6.799  1.1459 -0.3093 -0.6596
52482SOL    HW267377   6.115   1.210   6.685  0.5185 -1.6174 -0.2478
52483SOL     OW67378   7.185   3.459   4.361  0.5015  0.2570 -0.1329
52483SOL    HW167379   7.260   3.474   4.303  0.5697  1.1519  0.1660
52483SOL    HW267380   7.162   3.367   4.347  1.5992 -0.0134 -0.2879
52484SOL     OW67381  13.206  12.342  10.163 -0.3179 -0.1531 -0.2749
52484SOL    HW167382  13.146  12.390  10.107 -1.2296 -0.4464  0.4189
52484SOL    HW267383  13.262  12.408  10.203 -1.1784  0.2902  0.2237
52485SOL     OW67384  12.336   6.393   2.795 -0.1298  0.4386 -0.2384
52485SOL    HW167385  12.300   6.312   2.759 -2.3889  0.8253  0.9943
52485SOL    HW267386  12.330   6.456   2.722  1.1702 -0.3421 -1.0444
52486SOL     OW67387   3.978   7.532   6.098  0.5072 -0.4447 -0.0196
52486SOL    HW167388   3.984   7.536   6.194 -0.3358 -0.7590  0.0627
52486SOL    HW267389   3.885   7.515   6.082  0.7371 -0.9098 -0.8815
52487SOL     OW67390  12.680   8.226  12.121 -0.0787 -0.1426 -0.8203
52487SOL    HW167391  12.731   8.174  12.059  1.1206  1.1946 -0.9931
52487SOL    HW267392  12.598   8.244  12.075 -0.2582 -1.3276 -0.9967
52488SOL     OW67393   6.048  10.143   0.126  0.5922 -0.2557  0.0553
52488SOL    HW167394   6.107  10.199   0.076  0.0331  0.1514 -0.1486
52488SOL    HW267395   6.062  10.168   0.218  1.4886 -0.8805  0.1000
52489SOL     OW67396   9.072   0.737   2.751 -0.4146 -0.2966  0.3273
52489SOL    HW167397   9.110   0.704   2.832  0.8877 -0.7313 -0.4332
52489SOL    HW267398   9.072   0.661   2.692  0.5251  0.4755 -0.7128
52490SOL     OW67399   5.796  10.728   0.438 -0.5911  0.1044 -0.1325
52490SOL    HW167400   5.819  10.656   0.497 -0.4368  2.0319  2.2996
52490SOL    HW267401   5.717  10.698   0.393 -0.6954 -1.4700  1.0045
52491SOL     OW67402   3.968   3.675   4.245  0.1213 -0.0905 -0.3852
52491SOL    HW167403   4.005   3.591   4.217  0.6613 -0.8333  2.2541
52491SOL    HW267404   4.005   3.689   4.332  1.0620  3.5625 -1.1982
52492SOL     OW67405   3.812   4.601   8.888  0.0782  0.6541  0.5597
52492SOL    HW167406   3.806   4.520   8.838  1.2871  0.4981  0.6308
52492SOL    HW267407   3.728   4.608   8.934 -0.4537  0.0150 -0.2930
52493SOL     OW67408   6.114   8.753   3.072  0.4892  0.5113 -0.1528
52493SOL    HW167409   6.104   8.702   2.991  1.8654 -0.4277  0.2262
52493SOL    HW267410   6.128   8.843   3.041  0.7202  0.2136 -0.9592
52494SOL     OW67411   0.153   6.327   5.979 -0.2516 -0.1371 -0.0954
52494SOL    HW167412   0.213   6.380   6.032 -0.7842 -1.1694  1.6143
52494SOL    HW267413   0.176   6.349   5.889  0.3760  2.0500  0.5303
52495SOL     OW67414   1.272  11.495   6.975  0.3368  0.5359  0.1634
52495SOL    HW167415   1.249  11.421   7.031 -1.3802  0.8443 -0.0748
52495SOL    HW267416   1.231  11.571   7.018  1.3203  1.2120 -0.0612
52496SOL     OW67417   4.304   0.170   8.394  0.0992  0.2669  0.4399
52496SOL    HW167418   4.213   0.199   8.395  0.3045  0.9358  0.5313
52496SOL    HW267419   4.301   0.084   8.352 -0.5541  0.3489  0.2991
52497SOL     OW67420   1.012  13.135   6.754 -0.1543  0.5737  0.0000
52497SOL    HW167421   1.002  13.053   6.802 -0.7650  0.7176  0.1173
52497SOL    HW267422   0.997  13.111   6.662  1.9730  0.1054 -0.2814
52498SOL     OW67423   7.298  11.078   3.250 -0.3900 -0.1487 -0.5817
52498SOL    HW167424   7.289  11.155   3.193 -1.0227  0.3456  0.1740
52498SOL    HW267425   7.364  11.103   3.314 -1.9307  0.5013  0.8181
52499SOL     OW67426   7.101   8.519   0.745  0.1993 -0.3807 -0.1370
52499SOL    HW167427   7.020   8.539   0.699  1.5503  1.1297 -2.0438
52499SOL    HW267428   7.147   8.459   0.686  0.8471 -0.5071  0.4869
52500SOL     OW67429   3.011   2.006   6.375  1.0448 -0.1333 -0.0037
52500SOL    HW167430   3.084   2.067   6.366  2.3386 -1.8189 -1.7983
52500SOL    HW267431   2.976   2.024   6.462  2.6569  1.7296  0.3405
52501SOL     OW67432   5.152   0.450   3.734 -0.0772 -0.8695  0.1590
52501SOL    HW167433   5.246   0.438   3.725  0.5066  1.1915  2.4407
52501SOL    HW267434   5.131   0.417   3.821 -0.9150  1.1232  0.7771
52502SOL     OW67435  12.541   9.569   2.990  0.2989 -0.0222  0.0644
52502SOL    HW167436  12.623   9.519   2.986 -0.2086 -0.8487 -0.1351
52502SOL    HW267437  12.556   9.632   3.061 -0.0201 -2.2751  2.3000
52503SOL     OW67438   4.239   1.290   5.656  0.6774 -0.0135  0.6889
52503SOL    HW167439   4.260   1.305   5.564  1.6398  0.8939  1.0363
52503SOL    HW267440   4.197   1.371   5.684  2.4670  0.6461  1.6174
52504SOL     OW67441   9.802   7.380  11.614 -0.1054  0.0470 -0.0515
52504SOL    HW167442   9.751   7.424  11.546 -1.2754 -0.0279  0.7601
52504SOL    HW267443   9.739   7.362  11.684  0.9452 -0.4386  0.7938
52505SOL     OW67444   5.591  11.338   4.134 -0.0788 -0.2984 -0.1495
52505SOL    HW167445   5.652  11.408   4.110  0.7857 -0.3212  1.7602
52505SOL    HW267446   5.504  11.377   4.124  0.3865  1.0470  0.7568
52506SOL     OW67447   0.994   7.910  12.574 -0.0310 -0.0594  0.2741
52506SOL    HW167448   0.928   7.880  12.637 -0.4420 -0.2024 -0.2260
52506SOL    HW267449   0.948   7.973  12.518  0.5622  0.7567  0.6677
52507SOL     OW67450   1.059   0.289   6.441  0.1362 -0.4427 -0.2212
52507SOL    HW167451   0.979   0.260   6.485  1.6001 -3.7275  0.6090
52507SOL    HW267452   1.077   0.221   6.376  1.3158  1.1930 -1.7126
52508SOL     OW67453   6.999   6.535  13.110  0.2836 -0.0181  0.6475
52508SOL    HW167454   7.072   6.590  13.141 -1.3398  1.4171  2.1395
52508SOL    HW267455   6.960   6.500  13.190  1.0803 -3.2959 -0.2302
52509SOL     OW67456   9.238  12.893   6.601 -0.0244  0.7008 -0.0167
52509SOL    HW167457   9.330  12.899   6.627  0.5053  1.0921 -1.8845
52509SOL    HW267458   9.233  12.938   6.517 -1.7191 -0.2705 -0.4864
52510SOL     OW67459  10.330   6.719  12.569 -0.9291  0.1025 -0.2383
52510SOL    HW167460  10.338   6.697  12.661 -0.8446 -1.5540 -0.6141
52510SOL    HW267461  10.393   6.790  12.555  0.0019 -0.5174  0.6970
52511SOL     OW67462  11.294   0.819   7.569  0.0306  0.1303 -0.6481
52511SOL    HW167463  11.257   0.783   7.488  0.5800  0.5580 -1.0960
52511SOL    HW267464  11.389   0.822   7.553  0.1512  0.1624  0.0344
52512SOL     OW67465   9.243   9.295   6.870 -0.1277 -0.5721 -0.1808
52512SOL    HW167466   9.331   9.319   6.842 -0.0642  0.7836  1.0944
52512SOL    HW267467   9.255   9.220   6.928  0.3377  0.4424  1.0603
52513SOL     OW67468  10.964   1.261   0.773 -0.4694  0.5144 -0.2631
52513SOL    HW167469  10.977   1.167   0.778 -0.7252  0.4405 -0.9272
52513SOL    HW267470  10.973   1.291   0.864 -2.0113 -0.3447  0.2081
52514SOL     OW67471   4.523   8.869   9.143 -0.2717 -0.4401  0.6086
52514SOL    HW167472   4.464   8.801   9.109 -0.9599  0.4595 -0.0727
52514SOL    HW267473   4.543   8.923   9.067  0.3820  0.0383  1.1080
52515SOL     OW67474  11.562   7.826   5.326 -0.2195  0.2307 -0.3541
52515SOL    HW167475  11.526   7.912   5.349 -0.2475  0.3135 -0.7061
52515SOL    HW267476  11.486   7.776   5.296 -0.3981 -0.2806  0.8817
52516SOL     OW67477   7.328  12.649   4.465 -0.4429 -0.5124  0.0767
52516SOL    HW167478   7.291  12.647   4.377 -0.4864  1.3761  0.0216
52516SOL    HW267479   7.253  12.638   4.523 -0.5499 -0.6719 -0.0899
52517SOL     OW67480  10.144  11.537   8.352 -0.2427  0.0493 -0.2722
52517SOL    HW167481  10.051  11.557   8.359 -0.4458 -1.1602  0.8750
52517SOL    HW267482  10.162  11.540   8.258 -1.8571 -1.4716 -0.6844
52518SOL     OW67483  10.904  10.153   5.202 -0.3413 -0.5747 -0.6103
52518SOL    HW167484  10.975  10.099   5.237 -1.8300 -0.7067  2.5254
52518SOL    HW267485  10.850  10.093   5.151 -0.2108 -1.3203  0.1161
52519SOL     OW67486  12.786   6.827   8.957 -0.2658 -0.1612 -0.0908
52519SOL    HW167487  12.724   6.761   8.925 -1.1653  0.1433  0.9871
52519SOL    HW267488  12.731   6.902   8.981  0.7113  0.8908 -1.0085
52520SOL     OW67489   6.532   5.809   2.252  0.2075  0.3909 -0.4833
52520SOL    HW167490   6.464   5.780   2.191 -0.4759 -1.2065  0.9623
52520SOL    HW267491   6.490   5.809   2.338  2.1618 -1.2464  0.5587
52521SOL     OW67492   2.964  12.669   3.745  0.5515  0.4420 -0.8808
52521SOL    HW167493   3.056  12.694   3.755  1.4287 -2.4696 -0.7151
52521SOL    HW267494   2.930  12.665   3.835  0.0288  2.0730 -0.9679
52522SOL     OW67495   1.281   7.100   5.944  0.4090 -0.1438  0.0038
52522SOL    HW167496   1.316   7.015   5.917  3.5517  1.0859 -0.2661
52522SOL    HW267497   1.308   7.108   6.036 -0.8007  0.1337  0.3449
52523SOL     OW67498  12.061  10.074  12.926  0.2341 -0.1297 -0.2458
52523SOL    HW167499  11.983  10.059  12.872 -0.9431  1.3796  0.9306
52523SOL    HW267500  12.098  10.155  12.891  1.1896 -0.7429 -0.6761
52524SOL     OW67501   4.082   8.904   8.699  0.6545  0.8550 -0.3414
52524SOL    HW167502   4.122   8.941   8.620  0.3482 -1.4236 -1.6566
52524SOL    HW267503   3.988   8.909   8.683  0.5753  0.8798  0.1289
52525SOL     OW67504   9.668  10.301   3.345  0.0830  0.2920 -0.3057
52525SOL    HW167505   9.628  10.232   3.398 -0.3242 -0.2038 -1.2431
52525SOL    HW267506   9.599  10.326   3.283  1.4121 -1.0375 -2.4069
52526SOL     OW67507   1.397   4.708   0.164  0.1703  0.1282 -0.0345
52526SOL    HW167508   1.431   4.746   0.245 -1.2301  1.9677 -0.2453
52526SOL    HW267509   1.304   4.692   0.182  0.2994 -1.4290 -0.6178
52527SOL     OW67510   7.175   6.606   0.606 -0.2404 -0.7031 -0.6406
52527SOL    HW167511   7.252   6.593   0.661  0.5476  1.0832 -1.2707
52527SOL    HW267512   7.185   6.542   0.536  1.6068  0.6165 -1.6557
52528SOL     OW67513   0.079   2.431   6.604  0.2470  0.1605  0.0020
52528SOL    HW167514   0.147   2.364   6.615  0.6982  0.2949 -1.7194
52528SOL    HW267515   0.126   2.509   6.575 -0.5500  0.4914 -0.4393
52529SOL     OW67516   5.130  11.623   8.838 -0.8105  0.2991 -0.8974
52529SOL    HW167517   5.180  11.562   8.891  1.0157  1.3833 -1.2702
52529SOL    HW267518   5.047  11.579   8.823 -0.1572 -1.4011  0.1377
52530SOL     OW67519  11.666   7.725   5.985  0.2642 -0.3082  0.2253
52530SOL    HW167520  11.697   7.808   5.950 -0.0314  0.0543  0.8122
52530SOL    HW267521  11.653   7.741   6.078  1.3884 -1.3537  0.5955
52531SOL     OW67522  10.732   0.767  11.554 -0.0187  0.0780  0.1604
52531SOL    HW167523  10.775   0.813  11.626 -0.4755  1.4968 -0.4482
52531SOL    HW267524  10.652   0.731  11.593 -0.4870  1.2138  0.2932
52532SOL     OW67525   5.437   8.346  10.079 -0.2538  0.1224 -0.0909
52532SOL    HW167526   5.465   8.270  10.129 -1.5311  0.2374  0.8547
52532SOL    HW267527   5.348   8.324  10.049 -0.1699  0.7485 -0.8637
52533SOL     OW67528   2.728   0.260   7.505 -0.0959  0.5915  0.6620
52533SOL    HW167529   2.712   0.311   7.426  0.2288 -0.3099 -0.0020
52533SOL    HW267530   2.660   0.192   7.504  0.0775  0.4104  1.0108
52534SOL     OW67531  11.929   1.534  13.135  0.1064 -0.0401  0.2675
52534SOL    HW167532  11.982   1.599  13.089 -0.1393  0.1570  0.2544
52534SOL    HW267533  11.927   1.565  13.226  0.4444 -0.3318  0.3777
52535SOL     OW67534   4.380  11.329   6.998 -0.2596 -0.2543 -0.1544
52535SOL    HW167535   4.449  11.378   6.953  0.6359 -3.2655 -2.3766
52535SOL    HW267536   4.407  11.328   7.090  1.9460 -0.1381 -0.7537
52536SOL     OW67537  12.623   6.027   1.247 -0.6321  0.0324  0.4148
52536SOL    HW167538  12.629   5.933   1.229  0.8701 -0.3678  2.6296
52536SOL    HW267539  12.699   6.046   1.302 -1.2344  2.4359  0.5312
52537SOL     OW67540  10.994  10.852   4.473 -0.3633 -0.0758 -0.4351
52537SOL    HW167541  10.967  10.827   4.384 -0.7615  1.6293 -0.8291
52537SOL    HW267542  11.070  10.909   4.459  0.5199 -0.9907  0.4285
52538SOL     OW67543   2.758  11.304   0.076  0.2769 -0.4574 -0.5060
52538SOL    HW167544   2.809  11.324  -0.003 -0.2838 -0.1921 -0.7997
52538SOL    HW267545   2.669  11.288   0.044 -0.4773  1.8195  0.2789
52539SOL     OW67546  10.283   1.470   4.615 -0.1341  0.3410 -0.2191
52539SOL    HW167547  10.377   1.489   4.612 -0.0804  0.0388 -0.5103
52539SOL    HW267548  10.248   1.506   4.534 -0.4703  1.4667  0.4046
52540SOL     OW67549   3.944  11.885   7.718  0.1198 -0.0568 -0.0236
52540SOL    HW167550   3.879  11.890   7.648 -0.3925 -1.2630  0.3236
52540SOL    HW267551   3.985  11.971   7.720 -1.7486  0.8803 -0.0086
52541SOL     OW67552   2.230   2.411   2.120  0.1439 -0.2894 -0.4521
52541SOL    HW167553   2.304   2.378   2.170 -1.2950 -1.5735  0.9202
52541SOL    HW267554   2.227   2.357   2.041  0.3217 -0.6143 -0.2344
52542SOL     OW67555   5.082  12.251   8.409 -0.0526  0.5336  0.2085
52542SOL    HW167556   4.995  12.292   8.403  0.6968  1.9284 -2.6585
52542SOL    HW267557   5.099  12.245   8.503 -3.4852 -0.4158  0.9253
52543SOL     OW67558  13.058   4.927  12.661 -0.4188 -0.5830  0.6591
52543SOL    HW167559  12.984   4.898  12.608 -0.3184  0.2340  0.0535
52543SOL    HW267560  13.024   4.931  12.750 -0.5982 -1.9454  0.6701
52544SOL     OW67561   1.583  11.475   5.241  0.6161 -0.2335  0.3219
52544SOL    HW167562   1.540  11.424   5.310 -1.7243 -1.8671 -2.1345
52544SOL    HW267563   1.661  11.512   5.283  0.0558 -2.2356  3.4283
52545SOL     OW67564   9.924   7.781  10.396  0.2021  0.3917 -0.2554
52545SOL    HW167565   9.873   7.707  10.429 -1.7313  2.7280  2.5220
52545SOL    HW267566  10.010   7.771  10.437 -0.0478 -0.2757  0.1127
52546SOL     OW67567  11.050   6.951  11.558 -0.5936 -0.0953 -0.1179
52546SOL    HW167568  11.142   6.932  11.577 -0.7175 -0.7891 -0.1847
52546SOL    HW267569  11.044   7.047  11.560  0.0596 -0.0587  0.2005
52547SOL     OW67570   6.281   1.610   4.587 -0.0452 -0.3748 -0.4010
52547SOL    HW167571   6.335   1.579   4.514 -1.5448 -2.0879 -0.8257
52547SOL    HW267572   6.247   1.531   4.628 -2.2296  0.6129 -0.1520
52548SOL     OW67573   6.035   3.241   3.787 -0.4159 -0.5328  0.0659
52548SOL    HW167574   5.962   3.259   3.728 -0.0311 -0.3983 -0.3727
52548SOL    HW267575   5.994   3.202   3.864 -0.8866 -1.1127 -0.4654
52549SOL     OW67576   5.522   0.633   3.111 -0.2733 -0.2833 -0.3048
52549SOL    HW167577   5.535   0.558   3.168  0.6283  1.5017  1.9839
52549SOL    HW267578   5.442   0.675   3.143 -0.0150  0.4957 -0.6375
52550SOL     OW67579  13.124   7.401  12.978 -0.3470 -0.2192  0.0563
52550SOL    HW167580  13.142   7.494  12.966  1.1433 -0.2707  1.6825
52550SOL    HW267581  13.157   7.380  13.065  0.2064 -2.4837 -0.6313
52551SOL     OW67582   6.026   1.974   3.892  0.5250  0.9310  0.1759
52551SOL    HW167583   6.053   2.013   3.976  0.0805 -1.5885  1.5803
52551SOL    HW267584   5.932   1.986   3.890  0.4152  0.1904  0.5088
52552SOL     OW67585   3.870   1.271   7.824 -0.0506 -0.4434  0.0417
52552SOL    HW167586   3.787   1.238   7.789  0.3324  0.7143 -2.1244
52552SOL    HW267587   3.932   1.200   7.809  0.1729  0.1200 -2.0887
52553SOL     OW67588  10.736   8.138   8.432  0.0030 -0.2139 -0.0602
52553SOL    HW167589  10.733   8.043   8.448 -0.0510 -0.1070  0.5860
52553SOL    HW267590  10.644   8.164   8.426  0.0176 -0.1878 -0.1703
52554SOL     OW67591   5.434   3.601   1.457  0.0651 -0.8523  0.0729
52554SOL    HW167592   5.353   3.553   1.439 -0.0853 -0.2159 -1.0764
52554SOL    HW267593   5.413   3.691   1.436  0.1781 -0.1217  2.7346
52555SOL     OW67594   8.721   8.307   9.995  0.3316 -0.5535 -0.8605
52555SOL    HW167595   8.813   8.327  10.014  0.0599  0.3414 -0.4171
52555SOL    HW267596   8.702   8.228  10.047  1.0581 -1.2128 -1.5721
52556SOL     OW67597   1.923   2.688  12.043  0.5117 -0.3280  0.0238
52556SOL    HW167598   1.904   2.602  12.006  2.1800 -1.3560  1.3830
52556SOL    HW267599   2.011   2.709  12.012  1.0537 -0.2075  1.5251
52557SOL     OW67600  10.341   4.128   0.853 -0.4680 -0.2997  0.2674
52557SOL    HW167601  10.349   4.181   0.774 -1.4521 -0.3290  0.1465
52557SOL    HW267602  10.398   4.171   0.917  0.3038 -0.2570 -0.4313
52558SOL     OW67603  11.190   0.148  13.178 -0.0822 -0.2461 -0.2689
52558SOL    HW167604  11.212   0.087  13.250  0.8323  2.3117  1.7818
52558SOL    HW267605  11.275   0.178  13.146 -0.5237 -0.2469 -1.4784
52559SOL     OW67606  11.049   7.282   7.820  0.5461  0.0564 -0.0412
52559SOL    HW167607  11.108   7.300   7.748 -1.0023 -1.8364 -1.9195
52559SOL    HW267608  10.968   7.327   7.797 -0.2055 -1.1718  0.0739
52560SOL     OW67609   0.354   9.368   2.921 -0.0762  0.3745  0.0401
52560SOL    HW167610   0.372   9.311   2.846  1.5171  0.0829  0.6059
52560SOL    HW267611   0.296   9.436   2.886  1.6762  1.0119 -1.8365
52561SOL     OW67612   7.418  12.274   1.648 -0.1635  0.4470  0.0675
52561SOL    HW167613   7.479  12.234   1.586  0.3318  0.6271  0.4318
52561SOL    HW267614   7.373  12.201   1.689  0.2439  0.2866  0.2321
52562SOL     OW67615  11.995   1.182   6.004  0.2312  0.5203 -0.7431
52562SOL    HW167616  12.062   1.250   5.998  0.4768  0.5082  1.3422
52562SOL    HW267617  11.976   1.174   6.097 -0.7570 -1.3655 -1.0477
52563SOL     OW67618   5.560   4.042  10.084  0.6446  0.4985 -0.2844
52563SOL    HW167619   5.532   4.055  10.175  2.1291  2.0317  0.0028
52563SOL    HW267620   5.542   4.126  10.042  2.4463  0.7314 -0.6840
52564SOL     OW67621   2.205  11.690   9.270  0.4008 -0.1544 -0.8415
52564SOL    HW167622   2.109  11.698   9.264  0.4172  0.3064 -0.4901
52564SOL    HW267623   2.218  11.606   9.314  0.0739  1.1763  1.9843
52565SOL     OW67624   2.790   1.134   4.508 -0.4497 -0.2432 -0.2637
52565SOL    HW167625   2.838   1.164   4.585 -0.7179 -1.1407  0.2680
52565SOL    HW267626   2.855   1.133   4.438 -0.4400  1.5929 -0.3238
52566SOL     OW67627   1.844   1.498   0.538  0.0464 -0.0570  0.5418
52566SOL    HW167628   1.863   1.513   0.630 -0.3680 -0.1547  0.6470
52566SOL    HW267629   1.749   1.505   0.532 -0.1273 -1.8957  0.4745
52567SOL     OW67630   8.968   5.186   3.273  0.5414 -0.3178  0.3909
52567SOL    HW167631   8.940   5.276   3.289  0.1178 -0.4590  0.4357
52567SOL    HW267632   8.908   5.153   3.207 -0.6739 -1.2699  1.9170
52568SOL     OW67633  12.300   2.088   2.989 -0.3775  0.0234 -0.5678
52568SOL    HW167634  12.380   2.139   2.979 -0.1749 -0.1649  0.0533
52568SOL    HW267635  12.330   2.003   3.021 -0.9452  0.4390  1.1359
52569SOL     OW67636   2.687   7.738   4.869  0.7668 -0.2747 -0.0764
52569SOL    HW167637   2.740   7.738   4.790  0.5465  0.1900 -0.2277
52569SOL    HW267638   2.639   7.821   4.866 -0.6691 -1.0670 -0.4299
52570SOL     OW67639   7.993   5.344   3.095 -0.0459 -0.3316 -0.2801
52570SOL    HW167640   7.978   5.325   3.187  2.8494 -0.9506  0.1599
52570SOL    HW267641   7.930   5.413   3.074  0.4794  1.1939  2.6887
52571SOL     OW67642   4.495   4.876  11.343  0.6978  0.2437  0.6161
52571SOL    HW167643   4.512   4.781  11.344 -3.3359 -0.6402  1.4423
52571SOL    HW267644   4.490   4.900  11.435 -2.3942  0.2686  0.5211
52572SOL     OW67645  11.158  12.570   3.952  0.3726 -0.6226 -0.0634
52572SOL    HW167646  11.134  12.505   4.018  0.5661 -1.2337 -0.5862
52572SOL    HW267647  11.098  12.554   3.880 -0.6178  0.8070  0.4048
52573SOL     OW67648   7.519   3.259  12.594 -0.0067  0.0670 -0.0124
52573SOL    HW167649   7.491   3.225  12.678 -1.7643 -0.0729 -0.6081
52573SOL    HW267650   7.440   3.299  12.556  0.8753  0.6625 -1.3303
52574SOL     OW67651   9.604   8.917   7.890  0.0017 -0.1946 -0.5507
52574SOL    HW167652   9.542   8.954   7.952  0.8012  1.5773 -0.7237
52574SOL    HW267653   9.659   8.859   7.942  0.2708  0.7887  0.3018
52575SOL     OW67654   8.361   8.191   7.232 -0.1059 -0.6712  0.6679
52575SOL    HW167655   8.443   8.231   7.202  0.1906 -1.4552  0.4170
52575SOL    HW267656   8.294   8.258   7.215  0.2770 -0.5401 -0.3837
52576SOL     OW67657   8.323   7.355  12.781 -0.1877  0.1349 -0.1855
52576SOL    HW167658   8.416   7.345  12.802 -0.1784 -2.0366 -0.9117
52576SOL    HW267659   8.278   7.344  12.865  0.1823  0.4813  0.0602
52577SOL     OW67660   2.277  11.705   8.344 -0.3766  0.0950  0.5720
52577SOL    HW167661   2.241  11.710   8.255 -0.2101 -0.3532  0.4736
52577SOL    HW267662   2.365  11.741   8.336 -0.3464  0.0167  0.5420
52578SOL     OW67663   8.680   6.481   8.590  0.5587 -0.0419  0.1693
52578SOL    HW167664   8.676   6.431   8.508 -0.1826 -0.7207  0.6029
52578SOL    HW267665   8.618   6.553   8.578  0.4101 -0.1722  0.1521
52579SOL     OW67666   2.603   9.092   2.855 -0.0056 -0.0213 -0.0195
52579SOL    HW167667   2.698   9.092   2.846  0.3370  0.2167  2.7446
52579SOL    HW267668   2.587   9.057   2.942 -2.4725  0.0182 -0.3794
52580SOL     OW67669  11.533   6.850   6.924  0.2991 -0.0937 -0.5954
52580SOL    HW167670  11.583   6.837   6.844 -1.4541 -0.5680 -1.6835
52580SOL    HW267671  11.502   6.940   6.919  2.0011  0.6167  0.6968
52581SOL     OW67672   2.074  12.510  11.877  0.8027 -0.1992  0.4383
52581SOL    HW167673   2.081  12.428  11.829  0.0800 -1.0043  1.6581
52581SOL    HW267674   2.038  12.572  11.814  0.8967 -0.9479 -0.3590
52582SOL     OW67675   3.333  12.405   9.013  0.6725 -1.0150 -0.0821
52582SOL    HW167676   3.242  12.425   8.995  1.0807  1.3334  0.0967
52582SOL    HW267677   3.372  12.390   8.926  0.4130 -0.5462 -0.2838
52583SOL     OW67678  10.393   1.443   9.865 -0.2455 -0.3144  0.1217
52583SOL    HW167679  10.384   1.406   9.953  1.1894  0.3365  0.5721
52583SOL    HW267680  10.367   1.534   9.875  3.0472  0.6937  0.7017
52584SOL     OW67681   3.129   2.600   9.319 -0.3058 -0.0130  0.5472
52584SOL    HW167682   3.124   2.658   9.243  0.1008 -0.9485 -0.2113
52584SOL    HW267683   3.197   2.638   9.374 -0.3269  0.4561  0.2532
52585SOL     OW67684   8.718   2.092  10.366  0.0324 -0.6957  0.2362
52585SOL    HW167685   8.811   2.082  10.346  0.0111 -1.2373  0.3834
52585SOL    HW267686   8.682   2.003  10.360 -0.6847 -0.3623 -0.8185
52586SOL     OW67687  13.166   5.215   2.430 -0.3228 -0.7123 -0.3506
52586SOL    HW167688  13.192   5.145   2.370  1.4883 -0.1038 -0.3238
52586SOL    HW267689  13.214   5.197   2.510  0.2135  0.5584 -0.3541
52587SOL     OW67690   5.054   5.108   3.329  0.2285 -0.5010 -0.5575
52587SOL    HW167691   5.124   5.107   3.264  0.9123 -2.1622  0.1536
52587SOL    HW267692   5.069   5.186   3.381 -0.1334  0.6816 -2.1404
52588SOL     OW67693   5.892   7.335   9.913 -0.3631 -0.0675 -0.2226
52588SOL    HW167694   5.928   7.375   9.991 -2.1582  0.9959  0.1341
52588SOL    HW267695   5.904   7.241   9.925  0.6634  0.1611  0.6407
52589SOL     OW67696  10.289   3.358  11.312 -0.0492  0.1048  0.2965
52589SOL    HW167697  10.384   3.353  11.298  0.4395  2.9920  1.8083
52589SOL    HW267698  10.270   3.284  11.371  0.8609 -1.5964 -1.4427
52590SOL     OW67699   1.603   9.358   5.506 -0.1085  0.3238 -0.2184
52590SOL    HW167700   1.551   9.378   5.584 -0.5682 -0.2941 -0.3620
52590SOL    HW267701   1.539   9.355   5.434  0.3276  1.0294 -0.6539
52591SOL     OW67702   3.372   3.536   2.381 -0.2042 -0.0201  0.0759
52591SOL    HW167703   3.413   3.536   2.295 -3.4586  0.9253 -1.6539
52591SOL    HW267704   3.358   3.628   2.402 -0.1829 -0.2641  1.2575
52592SOL     OW67705   9.527  11.216  12.681  0.1140  0.0677  0.2832
52592SOL    HW167706   9.590  11.287  12.693 -0.2423  0.2193  1.3832
52592SOL    HW267707   9.446  11.259  12.655 -0.0763  0.0552  0.8511
52593SOL     OW67708   0.338  12.109   0.154  0.3307 -0.4980  0.2223
52593SOL    HW167709   0.288  12.142   0.228  3.4455 -1.7009  3.0986
52593SOL    HW267710   0.282  12.040   0.116 -2.2935  1.6574 -0.1643
52594SOL     OW67711  11.302  12.938   3.545  0.0561 -0.5811 -0.5352
52594SOL    HW167712  11.246  12.994   3.491  0.4658  1.3178  0.9017
52594SOL    HW267713  11.370  12.907   3.484  0.8765  2.0022 -1.0528
52595SOL     OW67714  12.487   9.417  12.196 -0.0281  0.1311  0.1320
52595SOL    HW167715  12.504   9.473  12.121  0.6528 -2.5212 -1.8471
52595SOL    HW267716  12.398   9.384  12.181  0.0804 -0.3527  0.5293
52596SOL     OW67717   6.228   3.314   9.776 -0.6644 -0.2508 -0.1289
52596SOL    HW167718   6.155   3.375   9.786  1.0232  1.7695  0.6128
52596SOL    HW267719   6.221   3.256   9.852 -0.6263  0.9247  0.8000
52597SOL     OW67720   8.476   6.697   6.940 -0.4412 -0.3841 -0.5704
52597SOL    HW167721   8.390   6.708   6.982  0.2487  0.3609  0.7041
52597SOL    HW267722   8.470   6.748   6.860 -0.9835  0.1908 -0.1787
52598SOL     OW67723  11.655   1.307   1.851  0.3600 -0.0593 -0.8054
52598SOL    HW167724  11.743   1.343   1.859 -0.0751  1.0350 -0.8460
52598SOL    HW267725  11.663   1.237   1.786  1.3532 -0.5133 -0.2129
52599SOL     OW67726   4.841   5.718   6.377 -0.2293  0.2997 -0.4069
52599SOL    HW167727   4.910   5.711   6.443 -0.5741 -1.5669 -0.1958
52599SOL    HW267728   4.801   5.803   6.393  1.4288  1.0380  0.0451
52600SOL     OW67729   5.174   8.652   3.028 -0.0219  0.3244 -0.2554
52600SOL    HW167730   5.169   8.586   2.959  1.3793  1.9425 -2.0295
52600SOL    HW267731   5.168   8.603   3.110  0.9487 -1.9785 -1.4866
52601SOL     OW67732  12.701  12.396  12.433  0.1202  0.3621  0.4929
52601SOL    HW167733  12.710  12.304  12.458  1.5447  0.5246  0.6692
52601SOL    HW267734  12.617  12.423  12.469 -0.0566 -0.7195  0.9170
52602SOL     OW67735   9.598   3.845   4.761  0.8198  0.4929  0.4356
52602SOL    HW167736   9.546   3.924   4.777 -0.5986  0.0707 -1.6542
52602SOL    HW267737   9.552   3.800   4.690  3.3904 -0.5741 -0.6887
52603SOL     OW67738  10.061   0.126  10.836 -0.3204  0.3192 -0.1046
52603SOL    HW167739  10.014   0.191  10.888 -0.8805  0.4599 -0.7716
52603SOL    HW267740   9.992   0.066  10.807  0.1142 -0.2502  0.0392
52604SOL     OW67741   5.996   3.241  12.243  0.2862  0.6609 -0.2184
52604SOL    HW167742   5.963   3.331  12.241 -1.9328 -0.0909 -1.2991
52604SOL    HW267743   5.927   3.191  12.287  1.5797 -0.4853  0.5760
52605SOL     OW67744   2.546   0.039   7.546  0.4924 -0.4833 -0.2361
52605SOL    HW167745   2.473   0.007   7.492  0.3214  0.8191 -0.8168
52605SOL    HW267746   2.585  -0.040   7.582 -1.3603 -1.2271  0.2980
52606SOL     OW67747   3.897  13.111   4.364 -0.2799 -0.0556  0.5327
52606SOL    HW167748   3.871  13.154   4.282 -0.6268  0.0390  0.6912
52606SOL    HW267749   3.895  13.181   4.429  0.1128 -0.1060  0.6012
52607SOL     OW67750   3.340   7.715   9.765 -0.0710  0.1821  0.0892
52607SOL    HW167751   3.328   7.799   9.810 -0.1237  0.6089 -0.7033
52607SOL    HW267752   3.433   7.712   9.744  0.1162 -0.3963  0.9382
52608SOL     OW67753  10.871  10.454   7.311  0.1355  0.1674  0.6561
52608SOL    HW167754  10.901  10.471   7.400  2.3765 -1.1804  0.2278
52608SOL    HW267755  10.914  10.521   7.257 -0.4938  0.4104  0.4327
52609SOL     OW67756   0.698   3.963   1.594 -0.1546  0.2307  0.0005
52609SOL    HW167757   0.790   3.938   1.595 -0.0937  0.4591  0.1339
52609SOL    HW267758   0.689   4.026   1.666  0.0777  1.9710 -1.4533
52610SOL     OW67759   4.385  12.249  10.772  0.6464 -0.3071 -0.4174
52610SOL    HW167760   4.354  12.237  10.682  0.5742  0.7288 -0.5397
52610SOL    HW267761   4.478  12.270  10.762  0.7518 -0.6616 -0.2108
52611SOL     OW67762   8.954   0.724  12.535 -0.2772 -0.5129  0.3949
52611SOL    HW167763   9.007   0.780  12.591 -0.7650  0.5264 -0.1538
52611SOL    HW267764   8.935   0.647  12.589 -0.4578  0.3122  1.5533
52612SOL     OW67765   3.420   1.731   0.245  0.4387  0.0747 -0.2278
52612SOL    HW167766   3.326   1.723   0.231  0.2327  3.2058 -1.4547
52612SOL    HW267767   3.458   1.724   0.157  1.2822 -0.1597  0.1410
52613SOL     OW67768   4.334   2.074  12.358  0.4924  0.2294  0.1790
52613SOL    HW167769   4.363   2.034  12.275  1.2932  0.3397  0.3924
52613SOL    HW267770   4.347   2.005  12.423  2.5638  1.0126  0.6735
52614SOL     OW67771  12.575   9.417   7.482  1.0595  0.1233 -0.4796
52614SOL    HW167772  12.657   9.459   7.507  0.0424  0.7116  2.3082
52614SOL    HW267773  12.600   9.345   7.424  3.5249  0.3538  0.2133
52615SOL     OW67774   5.156   3.324  13.272  0.2811  0.2890 -0.3627
52615SOL    HW167775   5.065   3.348  13.252 -0.1597 -1.6391 -0.8757
52615SOL    HW267776   5.209   3.383  13.217 -0.7816 -1.0381 -2.9799
52616SOL     OW67777   5.449   3.611   1.971  0.4162 -0.4544  0.5632
52616SOL    HW167778   5.425   3.663   1.894 -2.2563 -0.0370  1.5699
52616SOL    HW267779   5.522   3.658   2.010  0.5911  0.3590 -0.6758
52617SOL     OW67780   9.089  10.743   2.156 -0.0139  0.7186  0.0917
52617SOL    HW167781   9.116  10.666   2.106 -1.1301 -0.3286  1.0410
52617SOL    HW267782   9.163  10.760   2.215  0.4122  0.6399 -0.4120
52618SOL     OW67783   0.565  11.980  10.112  0.6607  0.5673 -0.3735
52618SOL    HW167784   0.647  11.959  10.157  1.2431  0.1990 -1.5535
52618SOL    HW267785   0.567  12.075  10.102  0.3550  0.6953  0.6622
52619SOL     OW67786  10.222  12.029   5.676  0.9107  0.3181  0.0869
52619SOL    HW167787  10.181  12.095   5.621  0.1683  0.0369  0.2887
52619SOL    HW267788  10.168  12.026   5.755  0.5107 -1.0028 -0.1990
52620SOL     OW67789   9.891   5.421   1.527  0.6304 -0.4067 -0.4509
52620SOL    HW167790   9.887   5.505   1.483 -1.5441 -0.2100  0.0217
52620SOL    HW267791   9.982   5.393   1.517  1.2668  1.7100 -1.1049
52621SOL     OW67792  10.959   6.160   1.537 -0.2945  0.3912  0.0188
52621SOL    HW167793  10.938   6.086   1.481 -0.8277 -0.2406  1.0216
52621SOL    HW267794  11.054   6.164   1.539 -0.2001  1.9425 -2.8598
52622SOL     OW67795  13.012  10.028   6.695  0.3083 -0.0224 -0.6597
52622SOL    HW167796  13.051   9.942   6.682 -0.4256 -0.3404 -0.8322
52622SOL    HW267797  13.083  10.083   6.727  0.4287 -1.1052  1.0580
52623SOL     OW67798  12.019   9.932   1.268 -0.5594 -0.0089  0.1355
52623SOL    HW167799  12.069   9.910   1.189 -0.1191  0.5551  0.2552
52623SOL    HW267800  11.988  10.021   1.253 -0.0981  0.2728  0.7854
52624SOL     OW67801  11.660   1.103  12.093 -0.7100 -0.1972  0.0883
52624SOL    HW167802  11.573   1.137  12.070 -0.4991 -0.2234 -0.7924
52624SOL    HW267803  11.644   1.048  12.170 -1.9153 -2.1053 -1.4241
52625SOL     OW67804   3.345   7.326  11.841 -0.2569 -0.2409  0.1250
52625SOL    HW167805   3.268   7.283  11.805  0.1400  0.7179 -2.0259
52625SOL    HW267806   3.419   7.281  11.801  0.2556  0.2202  0.5236
52626SOL     OW67807   6.327   1.248   6.485  0.7394  0.6801  0.2206
52626SOL    HW167808   6.279   1.238   6.568  1.2019  0.2719  0.4473
52626SOL    HW267809   6.261   1.276   6.422  0.5175  1.6996  0.8876
52627SOL     OW67810  10.677   7.325  11.229  0.3957  0.1273  1.0187
52627SOL    HW167811  10.727   7.333  11.310  1.5468  1.6672  0.1859
52627SOL    HW267812  10.738   7.285  11.167 -0.8055 -2.0517  1.1352
52628SOL     OW67813   3.133   2.205   6.238 -0.6169 -0.1429 -0.3462
52628SOL    HW167814   3.213   2.221   6.189 -0.0344  0.2733  0.7024
52628SOL    HW267815   3.073   2.274   6.209 -0.1974  0.2452 -0.3019
52629SOL     OW67816  12.508   3.990   3.643 -0.4019 -0.1112  0.8506
52629SOL    HW167817  12.525   4.083   3.660  0.8487 -0.1335 -0.1297
52629SOL    HW267818  12.516   3.982   3.548 -0.9065 -1.1536  0.8927
52630SOL     OW67819  12.905   4.360  10.033 -0.2287 -0.4645 -0.2157
52630SOL    HW167820  12.882   4.285   9.977 -0.4840 -0.0003 -0.7463
52630SOL    HW267821  12.943   4.424   9.972 -1.9061  0.6748 -0.1618
52631SOL     OW67822   7.486  11.774  11.124 -0.4409 -0.2712 -0.9914
52631SOL    HW167823   7.523  11.739  11.205 -1.1903 -0.2013 -0.6027
52631SOL    HW267824   7.516  11.714  11.056  0.1390 -0.3722 -0.6543
52632SOL     OW67825   5.599   6.834   7.909 -0.0526 -0.3913 -0.4498
52632SOL    HW167826   5.585   6.777   7.984  0.0328 -0.2069 -0.2940
52632SOL    HW267827   5.522   6.891   7.907  0.4161  0.2757  0.0993
52633SOL     OW67828   1.706  10.159   3.066  0.0925 -0.0606 -0.1238
52633SOL    HW167829   1.798  10.144   3.044 -0.1935 -1.7710 -0.2944
52633SOL    HW267830   1.672  10.072   3.090 -1.9836  0.1063 -2.0301
52634SOL     OW67831   7.688  10.809   8.614 -0.0514  0.1675  0.1895
52634SOL    HW167832   7.675  10.895   8.576 -0.9539 -1.1272 -2.7472
52634SOL    HW267833   7.762  10.772   8.566  3.2722  0.7361  4.3524
52635SOL     OW67834   0.431   6.665   3.951  0.1447  0.2251 -1.1421
52635SOL    HW167835   0.484   6.745   3.940  0.4205  0.0601 -1.0239
52635SOL    HW267836   0.385   6.655   3.868  0.7533  0.0428 -1.4597
52636SOL     OW67837  13.244   1.750   4.815  0.1250 -0.2658  0.1642
52636SOL    HW167838  13.302   1.826   4.814 -0.3493  0.0949  0.0806
52636SOL    HW267839  13.227   1.731   4.723  1.7964 -1.6847  0.0759
52637SOL     OW67840  12.079   6.065   3.543 -0.2944 -0.3612  0.4301
52637SOL    HW167841  11.993   6.043   3.508  0.2382 -2.8934  0.4641
52637SOL    HW267842  12.079   6.029   3.632  0.8878 -0.7771  0.2934
52638SOL     OW67843   2.811   2.926   4.796  0.7046 -0.4120  0.2158
52638SOL    HW167844   2.873   2.992   4.827 -1.3237  0.7253  2.1172
52638SOL    HW267845   2.784   2.957   4.710 -0.0362  1.1804  0.9814
52639SOL     OW67846   5.855   8.612   5.208 -0.3652  0.0904 -0.1779
52639SOL    HW167847   5.771   8.585   5.246  0.8131 -2.8982  0.6018
52639SOL    HW267848   5.907   8.640   5.283  0.4733 -1.4995 -0.1290
52640SOL     OW67849   5.202  10.635   8.700 -0.2561 -0.0809 -0.2811
52640SOL    HW167850   5.157  10.558   8.735 -0.4603  0.9972  2.0352
52640SOL    HW267851   5.134  10.702   8.692  0.1272  0.2265 -1.1550
52641SOL     OW67852   6.338  13.186   3.811 -0.0313  0.5014 -0.2734
52641SOL    HW167853   6.346  13.281   3.804  0.9986  0.3509 -1.4958
52641SOL    HW267854   6.303  13.159   3.726 -0.3484 -0.2195  0.0771
52642SOL     OW67855   3.788   5.471   6.530  0.2800  0.7573  0.1196
52642SOL    HW167856   3.703   5.475   6.488 -0.0421 -0.0476  0.6739
52642SOL    HW267857   3.845   5.523   6.474 -0.9272  2.7421  0.6297
52643SOL     OW67858   0.486  12.327  10.528  0.0464  0.1444  0.0604
52643SOL    HW167859   0.549  12.256  10.515  0.0078  0.5048 -2.4448
52643SOL    HW267860   0.523  12.379  10.600  1.9437 -0.3721 -0.4956
52644SOL     OW67861   1.453   1.595  10.693  0.0969 -0.1591  0.1195
52644SOL    HW167862   1.543   1.614  10.719  0.6853  1.4175 -2.6303
52644SOL    HW267863   1.425   1.524  10.751  3.7911 -2.1165 -0.2159
52645SOL     OW67864   8.762   2.227  12.318  0.4714  0.1243  0.2247
52645SOL    HW167865   8.689   2.277  12.281 -0.2960 -1.7667 -1.0213
52645SOL    HW267866   8.721   2.147  12.351  1.7818 -0.2014  1.1364
52646SOL     OW67867   5.874   0.019   2.441  0.1540 -0.2185  0.3688
52646SOL    HW167868   5.839   0.102   2.472  1.8228  0.4023  0.6876
52646SOL    HW267869   5.923  -0.017   2.515 -1.1223 -1.8783  0.4858
52647SOL     OW67870   9.066   2.412   1.279 -0.0566 -0.0841  0.0569
52647SOL    HW167871   9.100   2.412   1.368  1.2045  1.3215 -0.3829
52647SOL    HW267872   9.045   2.320   1.260 -0.5300 -0.3730  1.8382
52648SOL     OW67873   1.437   4.433   4.227  0.1662 -0.0747 -0.1386
52648SOL    HW167874   1.507   4.369   4.241 -0.6562 -0.9376  0.1176
52648SOL    HW267875   1.415   4.464   4.315 -0.5681 -0.6773 -0.1039
52649SOL     OW67876   8.812   9.812   2.152 -0.1856  0.4036  0.3016
52649SOL    HW167877   8.747   9.747   2.127 -0.8234  1.0340  0.2892
52649SOL    HW267878   8.815   9.874   2.079 -0.3426  0.9494  0.7433
52650SOL     OW67879   1.579   3.064  11.890  0.1950 -0.1568 -0.0495
52650SOL    HW167880   1.501   3.095  11.845 -0.3208  0.3369  1.1515
52650SOL    HW267881   1.559   2.973  11.915 -0.0621  0.0222  0.4002
52651SOL     OW67882  10.468  10.446   8.117  0.3583 -0.5956 -0.3103
52651SOL    HW167883  10.534  10.468   8.183  0.9221 -0.9130 -0.7635
52651SOL    HW267884  10.388  10.430   8.168  0.8023 -0.8954  0.3049
52652SOL     OW67885   2.029   0.279   7.401  0.0068  0.1365  0.3737
52652SOL    HW167886   2.073   0.309   7.322 -0.5905 -2.1979 -0.9307
52652SOL    HW267887   2.093   0.294   7.471  2.1174 -1.2347 -1.1420
52653SOL     OW67888   7.418   7.840  11.973  0.3541  0.0950  0.4911
52653SOL    HW167889   7.338   7.804  12.011 -0.8276  0.3909 -1.5792
52653SOL    HW267890   7.469   7.763  11.947 -0.3186 -0.1111 -0.2503
52654SOL     OW67891  10.871   1.988   0.195 -0.0987 -0.2844  0.0610
52654SOL    HW167892  10.781   1.984   0.165 -0.0797  2.3145 -0.5909
52654SOL    HW267893  10.914   1.914   0.153 -1.7518 -1.1748 -0.1392
52655SOL     OW67894   3.736   2.649   3.408 -0.2690  0.2655 -0.4666
52655SOL    HW167895   3.758   2.593   3.482  0.0642  1.1509  0.1181
52655SOL    HW267896   3.817   2.656   3.359 -0.3385  0.1554 -0.5978
52656SOL     OW67897   7.476   6.917   4.278 -0.7657  0.0721  0.2564
52656SOL    HW167898   7.448   6.945   4.191  0.1977  0.9506  0.1984
52656SOL    HW267899   7.419   6.964   4.338 -2.6863 -1.9468  0.1286
52657SOL     OW67900   1.238   8.641   1.057  1.1136 -0.8931  0.2535
52657SOL    HW167901   1.223   8.571   0.994  1.0377 -0.8966  0.2748
52657SOL    HW267902   1.292   8.705   1.011  0.3580 -0.4961 -0.0948
52658SOL     OW67903   9.368   3.467   1.753 -0.1620  0.3055 -0.6523
52658SOL    HW167904   9.384   3.433   1.665 -2.0493 -0.2645 -0.8393
52658SOL    HW267905   9.417   3.409   1.811  1.9879  1.3504 -1.3614
52659SOL     OW67906   0.898  12.575   1.777 -0.5125  0.2050  0.6554
52659SOL    HW167907   0.989  12.593   1.801 -0.9495  1.5232  1.4779
52659SOL    HW267908   0.873  12.502   1.834  0.3167 -0.8859 -0.3302
52660SOL     OW67909  10.282   8.999   3.696  0.2353  0.2739  0.0133
52660SOL    HW167910  10.217   9.069   3.696 -0.9457 -0.7885  0.5832
52660SOL    HW267911  10.366   9.044   3.706 -0.4581  1.6278 -0.1049
52661SOL     OW67912   3.152   9.057   1.676  0.3351  0.3108  0.8300
52661SOL    HW167913   3.213   8.985   1.657  0.7391  0.6101  0.9660
52661SOL    HW267914   3.078   9.016   1.719  0.5015 -0.0467  0.7767
52662SOL     OW67915   7.620   3.140  13.152  0.4877 -0.2919  0.4212
52662SOL    HW167916   7.615   3.207  13.083  1.7499 -0.0587  0.5335
52662SOL    HW267917   7.655   3.063  13.108  0.5028 -0.4013  0.6249
52663SOL     OW67918   1.225   6.462   2.671  0.3258 -0.1937 -0.2128
52663SOL    HW167919   1.284   6.480   2.598  1.6744 -1.5966  0.4894
52663SOL    HW267920   1.217   6.367   2.674  0.6923 -0.2129  1.7499
52664SOL     OW67921   7.257   8.081   6.381 -0.2813 -0.0129  0.0796
52664SOL    HW167922   7.281   8.016   6.447 -0.3343 -1.4564 -1.2869
52664SOL    HW267923   7.312   8.062   6.306 -0.5331  1.3383 -0.4821
52665SOL     OW67924   6.523   9.292   2.528  0.0785  0.4342 -0.1935
52665SOL    HW167925   6.507   9.294   2.622  0.0574 -0.4966 -0.1632
52665SOL    HW267926   6.601   9.345   2.515  1.8207 -1.7313  0.7470
52666SOL     OW67927   7.489   8.023   8.457  0.2350 -0.7815  0.3870
52666SOL    HW167928   7.559   8.079   8.492 -0.2165  0.2135 -0.2630
52666SOL    HW267929   7.433   8.083   8.408 -0.6746 -1.6954  0.2892
52667SOL     OW67930   0.371   4.512   6.568 -0.5403  0.0006  0.0354
52667SOL    HW167931   0.292   4.565   6.576 -2.1722 -2.4127  1.3305
52667SOL    HW267932   0.422   4.554   6.500 -2.3581  2.3697  0.0159
52668SOL     OW67933   6.604  10.357  10.142 -0.3138  0.2910 -0.1815
52668SOL    HW167934   6.652  10.306  10.207 -0.8232  0.2620  0.1789
52668SOL    HW267935   6.657  10.437  10.131 -0.0686  0.1622  0.0462
52669SOL     OW67936   6.779   1.643  11.575 -0.2832  0.1654 -0.2702
52669SOL    HW167937   6.818   1.579  11.635 -1.9106 -2.1304 -1.5113
52669SOL    HW267938   6.797   1.728  11.616  1.3246 -1.0962  1.8574
52670SOL     OW67939   7.211   4.786   0.367 -0.0847 -0.6162 -0.4294
52670SOL    HW167940   7.122   4.766   0.338 -0.4094 -0.2735  0.3195
52670SOL    HW267941   7.206   4.877   0.397  1.1240  0.3461 -2.8307
52671SOL     OW67942  10.123   2.009  12.801  0.1384  0.5516 -0.3540
52671SOL    HW167943  10.062   1.952  12.755  2.1824 -2.6668  0.5744
52671SOL    HW267944  10.153   2.072  12.735 -1.0794 -0.3972 -1.8653
52672SOL     OW67945   2.597   8.141   4.585 -0.0266 -0.5656  0.1645
52672SOL    HW167946   2.588   8.087   4.663  1.5205 -0.8043  0.2077
52672SOL    HW267947   2.531   8.210   4.595 -0.1820 -0.8874  1.4331
52673SOL     OW67948  10.060   7.365   3.679 -0.0099 -0.0670 -0.0189
52673SOL    HW167949   9.993   7.426   3.647  1.1423  0.8826 -0.7369
52673SOL    HW267950  10.014   7.282   3.688 -1.0235  0.2586 -1.6371
52674SOL     OW67951   2.513   2.821  11.981 -0.2005  0.0609  0.0681
52674SOL    HW167952   2.604   2.797  11.963 -0.7042 -1.5141 -0.5073
52674SOL    HW267953   2.489   2.879  11.909 -0.6702 -2.2636 -1.7571
52675SOL     OW67954  11.299   2.634   2.005  0.0209 -0.6686 -0.4994
52675SOL    HW167955  11.394   2.624   2.000  0.0600 -0.7225  0.2390
52675SOL    HW267956  11.286   2.703   2.070 -0.4320 -0.1808 -1.0907
52676SOL     OW67957   8.493   7.798   7.304 -0.3856  0.8174  0.2720
52676SOL    HW167958   8.428   7.832   7.366  2.3725  3.5183  1.9827
52676SOL    HW267959   8.512   7.872   7.246  0.9939  0.0625 -0.2944
52677SOL     OW67960  12.468  10.965  12.461 -0.3643  0.0509 -0.0766
52677SOL    HW167961  12.423  11.049  12.455 -1.4099 -0.4793  0.1034
52677SOL    HW267962  12.398  10.900  12.464  0.4458 -0.9674 -1.9146
52678SOL     OW67963  12.714   1.814  10.867 -0.2407  0.3872  0.6912
52678SOL    HW167964  12.692   1.901  10.900  0.7333  0.6584  0.6649
52678SOL    HW267965  12.734   1.828  10.774 -0.3870  0.0809  0.6140
52679SOL     OW67966   6.499   9.883   6.397 -1.0547  0.0644  0.4678
52679SOL    HW167967   6.524   9.975   6.388  1.2287 -0.4848  0.6706
52679SOL    HW267968   6.580   9.834   6.385 -2.1294 -1.9278  0.7921
52680SOL     OW67969   5.117   0.326  12.705 -0.5102 -0.0050 -0.0218
52680SOL    HW167970   5.082   0.409  12.737 -1.5413 -0.1109 -0.8062
52680SOL    HW267971   5.126   0.339  12.611  0.4371 -0.4007  0.0095
52681SOL     OW67972   7.660   7.768  10.489  0.2936 -0.4282  0.0886
52681SOL    HW167973   7.637   7.818  10.567 -0.1294  0.5040 -0.6060
52681SOL    HW267974   7.590   7.703  10.480  0.4336 -0.6488  0.5667
52682SOL     OW67975   2.848   4.309  12.396 -0.0417  0.5444  0.5342
52682SOL    HW167976   2.826   4.357  12.316  1.4900  0.3248 -0.0397
52682SOL    HW267977   2.941   4.288  12.388  0.1513  0.4958  2.3765
52683SOL     OW67978  12.570   3.296   6.452 -0.2859 -0.5949  0.6878
52683SOL    HW167979  12.565   3.217   6.398  0.3547 -0.6488  0.6879
52683SOL    HW267980  12.628   3.272   6.524  1.4152  0.3895 -0.2705
52684SOL     OW67981  10.157  10.815  11.134 -0.3462  0.1360  0.0150
52684SOL    HW167982  10.125  10.793  11.046 -0.1943 -0.5515  0.1241
52684SOL    HW267983  10.211  10.892  11.121  2.3831 -1.7947 -1.0607
52685SOL     OW67984   4.883   6.415   1.649  0.1257  0.1309  0.1575
52685SOL    HW167985   4.888   6.492   1.593 -1.3230 -0.1996 -0.4752
52685SOL    HW267986   4.864   6.451   1.736  0.3693  0.5408  0.0447
52686SOL     OW67987   7.815  11.111  12.352  0.6943  0.4171  0.1645
52686SOL    HW167988   7.850  11.029  12.387  2.2882  1.5563  1.3742
52686SOL    HW267989   7.738  11.130  12.405 -0.0746 -0.5838 -0.5468
52687SOL     OW67990  12.719   8.776   1.688 -0.9224 -0.0326 -0.3072
52687SOL    HW167991  12.724   8.851   1.630  1.0820  0.7095  0.7227
52687SOL    HW267992  12.671   8.807   1.765  0.6392  0.5099  0.4870
52688SOL     OW67993  12.077  13.091  11.068  0.1026 -0.2557  0.4147
52688SOL    HW167994  12.024  13.015  11.088 -0.2869  0.0509  0.5559
52688SOL    HW267995  12.162  13.055  11.042  0.7089 -0.6965  2.7350
52689SOL     OW67996  11.561  12.976   6.387  0.0889 -0.1121  1.3323
52689SOL    HW167997  11.590  13.051   6.438  0.4244  1.4538 -1.0140
52689SOL    HW267998  11.471  12.996   6.362 -0.0663 -0.8229  1.2878
52690SOL     OW67999   5.131   6.148   3.153  0.5146  0.1785 -0.3122
52690SOL    HW168000   5.067   6.157   3.223  0.9092 -0.2250  0.1018
52690SOL    HW268001   5.167   6.060   3.164  2.9601  1.2442  1.0322
52691SOL     OW68002   8.792   0.660  11.697 -0.4277  0.3639 -0.5619
52691SOL    HW168003   8.732   0.731  11.720 -1.3632 -1.0820  1.7894
52691SOL    HW268004   8.735   0.588  11.672  0.3263 -0.7327  0.7571
52692SOL     OW68005   9.998  11.742   4.922  0.0933  0.3503  0.0113
52692SOL    HW168006  10.083  11.729   4.880 -0.1450 -1.0711 -0.0997
52692SOL    HW268007  10.000  11.686   4.999 -0.6134  0.5520  0.1846
52693SOL     OW68008   6.938   7.044  12.805  0.3405 -0.1427 -0.4880
52693SOL    HW168009   6.976   7.132  12.812  0.3639 -0.0291 -1.7918
52693SOL    HW268010   6.896   7.029  12.890 -0.0700  1.3273 -0.4038
52694SOL     OW68011   8.642   0.965  12.524 -0.3338  0.4626  0.1153
52694SOL    HW168012   8.572   0.956  12.589  0.1390 -0.4351  0.5318
52694SOL    HW268013   8.616   1.039  12.470 -3.8912 -2.3601 -2.5523
52695SOL     OW68014   5.578   4.028  10.960 -0.9313  0.1589  0.4350
52695SOL    HW168015   5.538   4.114  10.945 -1.8517 -0.5307 -1.3923
52695SOL    HW268016   5.535   3.994  11.038 -0.7673  1.2105  1.0023
52696SOL     OW68017   0.105   5.538   3.716  0.6583  0.0794  0.7294
52696SOL    HW168018   0.138   5.450   3.694  1.4962  0.0746  1.8823
52696SOL    HW268019   0.178   5.579   3.763  0.5738  1.6990 -0.4613
52697SOL     OW68020   6.485   8.099   7.111 -0.1204 -0.0983  0.0098
52697SOL    HW168021   6.389   8.096   7.109 -0.1588  0.9386 -1.3919
52697SOL    HW268022   6.507   8.097   7.203 -1.4872 -0.4835  0.3615
52698SOL     OW68023   4.378  10.042   5.685 -0.4470 -0.3587  0.1364
52698SOL    HW168024   4.394  10.031   5.591  0.5470 -0.0843  0.2583
52698SOL    HW268025   4.465  10.051   5.723 -0.9059  1.8836  0.7975
52699SOL     OW68026   9.288   6.808   2.787  0.8068 -0.2376  0.5993
52699SOL    HW168027   9.205   6.768   2.762  0.4341 -0.2788  1.8257
52699SOL    HW268028   9.330   6.743   2.843  1.8834 -0.4023 -0.3678
52700SOL     OW68029   0.276   1.027   6.318  0.2015  0.4242  0.1024
52700SOL    HW168030   0.212   1.048   6.386 -2.1033  0.8629 -2.0340
52700SOL    HW268031   0.244   0.945   6.280  2.0399 -0.3809  0.1869
52701SOL     OW68032   6.287   3.073   3.522  0.2364 -0.1527 -0.2016
52701SOL    HW168033   6.289   2.978   3.526 -0.0862 -0.1431  0.2378
52701SOL    HW268034   6.336   3.102   3.599  1.1250  0.0414 -0.8255
52702SOL     OW68035   8.576   9.043   8.936  0.4810 -0.0215 -0.2071
52702SOL    HW168036   8.498   9.015   8.983 -1.6881  3.1467 -1.5542
52702SOL    HW268037   8.576   8.991   8.855  0.6880 -1.0895  0.4582
52703SOL     OW68038   0.222   5.402   6.156  0.0163 -0.2385  0.2205
52703SOL    HW168039   0.309   5.380   6.189  0.2278 -0.4546 -0.4698
52703SOL    HW268040   0.193   5.323   6.110 -1.3860 -0.9100  2.1042
52704SOL     OW68041   3.205   3.472   5.686 -0.0187 -0.4258 -0.0663
52704SOL    HW168042   3.277   3.410   5.701 -0.3873 -0.5155  1.5260
52704SOL    HW268043   3.129   3.429   5.724 -0.5598  0.4195 -0.1839
52705SOL     OW68044  11.826   4.602   8.511  0.0313 -0.2187  0.4088
52705SOL    HW168045  11.828   4.541   8.437 -0.8061  0.2042  0.0310
52705SOL    HW268046  11.891   4.567   8.573  1.1588 -0.2636 -0.7641
52706SOL     OW68047   4.948   1.983   1.960 -0.2215  0.5559  0.1936
52706SOL    HW168048   4.974   2.002   1.870 -2.0126 -0.0359 -0.4772
52706SOL    HW268049   5.022   1.933   1.996  0.7197  1.2046 -0.7690
52707SOL     OW68050   1.471  10.645   7.219 -0.2177 -0.0230 -0.2369
52707SOL    HW168051   1.501  10.735   7.221  0.9469 -0.3394 -1.9371
52707SOL    HW268052   1.476  10.616   7.310 -1.3627  1.8273  0.4720
52708SOL     OW68053  12.463   1.442   1.022  0.3805 -0.0382 -0.0233
52708SOL    HW168054  12.443   1.360   1.068 -1.2457  1.6013  2.4314
52708SOL    HW268055  12.527   1.417   0.955 -0.8932 -3.4808 -0.1387
52709SOL     OW68056   5.667   2.893   1.303  0.0624  0.0985  0.0348
52709SOL    HW168057   5.739   2.935   1.351  0.2776 -1.1754  0.8894
52709SOL    HW268058   5.590   2.947   1.324  0.4313  0.4152  0.6235
52710SOL     OW68059   9.517   5.805  11.616  0.7492 -0.4192  0.3771
52710SOL    HW168060   9.463   5.808  11.695  0.7530 -0.0516  0.3680
52710SOL    HW268061   9.482   5.876  11.561  1.6927  0.2970  0.6721
52711SOL     OW68062   2.187   6.391  11.849 -0.4797 -0.0509 -0.0710
52711SOL    HW168063   2.211   6.336  11.774  2.9025  0.3052  0.5632
52711SOL    HW268064   2.260   6.380  11.910 -2.8015  0.1373  2.9840
52712SOL     OW68065   0.776  11.569   2.125 -0.1203  0.4633  0.1512
52712SOL    HW168066   0.754  11.567   2.219 -2.5801  1.6290 -0.3293
52712SOL    HW268067   0.853  11.626   2.120  2.4620 -2.5742  1.7726
52713SOL     OW68068   4.108   6.867   4.118 -0.2862  0.5297  0.3134
52713SOL    HW168069   4.033   6.808   4.130  0.8149 -1.0035 -0.1080
52713SOL    HW268070   4.069   6.955   4.122 -2.3022 -0.2075 -1.0292
52714SOL     OW68071   8.743  11.738  10.767 -0.5843 -0.2271 -0.5075
52714SOL    HW168072   8.749  11.755  10.673 -0.4602  0.1093 -0.4395
52714SOL    HW268073   8.798  11.661  10.781  1.9593  1.5351 -0.2245
52715SOL     OW68074   2.188   5.565  11.068 -0.0905 -0.1401  0.6097
52715SOL    HW168075   2.240   5.544  11.145  0.8537  0.1576  0.0768
52715SOL    HW268076   2.178   5.482  11.021  1.0660  0.0124  0.0421
52716SOL     OW68077  13.112   7.216  10.464  0.3044  0.4485  0.3178
52716SOL    HW168078  13.037   7.252  10.511  0.4411  2.2913 -0.7524
52716SOL    HW268079  13.188   7.243  10.516  0.2853 -1.6647  1.5581
52717SOL     OW68080   0.557  12.246   1.796  0.3444 -0.1596 -0.0979
52717SOL    HW168081   0.544  12.228   1.703 -0.6619  0.4634 -0.0870
52717SOL    HW268082   0.534  12.338   1.806 -0.0500 -0.3536  0.8631
52718SOL     OW68083   0.798   8.572   6.008  0.3879 -0.2955 -0.1964
52718SOL    HW168084   0.766   8.565   5.918 -2.9009  1.1120  0.7301
52718SOL    HW268085   0.810   8.481   6.037 -1.8822 -0.9052 -1.0100
52719SOL     OW68086   4.036  12.816   7.341  0.4159 -0.1343 -0.6040
52719SOL    HW168087   4.005  12.834   7.252 -1.0439 -0.2324 -0.1506
52719SOL    HW268088   4.083  12.732   7.334 -1.3361 -1.1387 -0.9831
52720SOL     OW68089  10.079   7.670   9.834  0.6051  0.6795 -0.1093
52720SOL    HW168090  10.131   7.750   9.839 -0.9017  1.9117 -2.4979
52720SOL    HW268091  10.003   7.693   9.781 -0.3710 -2.0903 -0.0983
52721SOL     OW68092   3.435  11.109  11.382  0.4117 -0.2585  0.3607
52721SOL    HW168093   3.438  11.116  11.287  0.2471 -0.7228  0.3148
52721SOL    HW268094   3.387  11.186  11.411  0.6151 -0.0229  0.0834
52722SOL     OW68095  10.360   8.613   4.952 -0.1027  0.3837 -0.5109
52722SOL    HW168096  10.361   8.651   4.865 -0.0512  2.3655  0.2990
52722SOL    HW268097  10.447   8.631   4.988 -0.8370  1.7150  0.7492
52723SOL     OW68098   0.867   7.480   6.284  0.6332 -0.0843 -0.2917
52723SOL    HW168099   0.938   7.495   6.222  0.1019 -1.8915 -1.4090
52723SOL    HW268100   0.911   7.457   6.366  1.3468 -1.1248 -0.9521
52724SOL     OW68101   1.679   2.506   6.871 -0.4035 -0.0811  0.0173
52724SOL    HW168102   1.753   2.462   6.828  1.9843  0.5053  3.1697
52724SOL    HW268103   1.655   2.576   6.809  1.5340 -0.4245 -1.2375
52725SOL     OW68104   8.774  13.013   2.291 -0.2454 -0.6266  0.6688
52725SOL    HW168105   8.726  13.096   2.297 -0.1131 -0.5021  0.0724
52725SOL    HW268106   8.738  12.959   2.361 -0.1491  0.0307  1.2364
52726SOL     OW68107   9.498  12.781   5.731 -0.4079 -0.5408 -0.1576
52726SOL    HW168108   9.478  12.750   5.642 -1.8547 -0.6326  0.1733
52726SOL    HW268109   9.570  12.843   5.719 -0.4671 -0.6769 -1.3772
52727SOL     OW68110   1.590   4.801   1.559 -0.2492 -0.1337 -0.4099
52727SOL    HW168111   1.595   4.710   1.531  0.8786 -0.2125  0.0063
52727SOL    HW268112   1.570   4.797   1.653 -0.1663  0.0398 -0.3829
52728SOL     OW68113   8.855   0.287   9.036  0.1763 -0.4276 -0.3283
52728SOL    HW168114   8.798   0.364   9.036  0.3511 -0.2668 -1.8715
52728SOL    HW268115   8.944   0.323   9.037  0.5948 -0.6136  5.5706
52729SOL     OW68116   0.893   9.654   0.509  0.2448  0.4273 -0.5321
52729SOL    HW168117   0.848   9.570   0.516  0.0653  0.3681 -1.9433
52729SOL    HW268118   0.826   9.719   0.529  0.9157  0.2512  2.8168
52730SOL     OW68119  11.227  11.871   4.818 -0.0610  0.5536  0.0041
52730SOL    HW168120  11.202  11.895   4.729  1.2221  0.3600 -0.4271
52730SOL    HW268121  11.196  11.781   4.829 -0.4255  0.6580 -0.1523
52731SOL     OW68122   0.379   1.505   4.271  0.1062  0.2695  0.0687
52731SOL    HW168123   0.432   1.493   4.350  0.5461  1.4519 -0.0204
52731SOL    HW268124   0.443   1.530   4.204 -0.4091  0.3909 -0.3755
52732SOL     OW68125  10.976   2.712   2.445  0.1349  0.0223 -0.1175
52732SOL    HW168126  11.045   2.649   2.422 -0.3129 -0.6114  0.2334
52732SOL    HW268127  10.955   2.692   2.537 -0.2109  0.5009 -0.0886
52733SOL     OW68128   7.722  12.944   2.851  0.8282 -0.0767 -0.1691
52733SOL    HW168129   7.652  12.881   2.864 -0.4025  0.9869 -1.3269
52733SOL    HW268130   7.729  12.953   2.756  3.9500 -1.6376 -0.2215
52734SOL     OW68131  13.294   6.149   8.278  0.4438  0.6124 -0.8508
52734SOL    HW168132  13.297   6.113   8.190  1.5665 -0.5450 -0.3848
52734SOL    HW268133  13.384   6.179   8.295  0.2744  0.7106 -0.0556
52735SOL     OW68134   1.136   9.457   5.059 -0.0961  0.1349  0.0390
52735SOL    HW168135   1.149   9.551   5.049 -0.1578  0.0656 -0.7814
52735SOL    HW268136   1.121   9.445   5.152  1.3873  0.7427  0.3801
52736SOL     OW68137   2.318   2.241   4.032 -0.3064 -0.0565  0.0756
52736SOL    HW168138   2.309   2.318   3.977  0.8394 -0.0040 -0.0689
52736SOL    HW268139   2.342   2.276   4.118  0.3629 -0.2459 -0.0271
52737SOL     OW68140   1.411   2.304   1.706  0.3461 -0.2271  0.5797
52737SOL    HW168141   1.448   2.349   1.782  0.5692  0.3173  0.1578
52737SOL    HW268142   1.420   2.367   1.634 -1.5512 -0.0040  0.4859
52738SOL     OW68143   5.764   1.223   8.378  0.0694 -0.3662  0.0517
52738SOL    HW168144   5.773   1.187   8.466 -0.3184 -1.2631 -0.2658
52738SOL    HW268145   5.853   1.239   8.349  0.2097 -0.3516  0.4896
52739SOL     OW68146   9.873  12.314   7.007  0.4344  0.8058 -0.3991
52739SOL    HW168147   9.847  12.339   7.096  1.0613  2.3319 -0.6042
52739SOL    HW268148   9.936  12.243   7.019 -0.4741  0.0868  0.2959
52740SOL     OW68149   4.180   0.068   5.614  0.3486 -0.1544  0.0588
52740SOL    HW168150   4.211   0.016   5.539 -0.8079  1.6527 -1.7681
52740SOL    HW268151   4.186   0.159   5.584 -1.6674  0.5427  1.5612
52741SOL     OW68152   3.095   0.127   9.708 -0.1350 -0.1626  0.2308
52741SOL    HW168153   3.000   0.123   9.707 -0.1418 -0.3768  0.9027
52741SOL    HW268154   3.117   0.207   9.659 -0.5355 -1.5750 -2.4694
52742SOL     OW68155  12.744   1.812   4.059 -0.4093  0.0831 -0.1857
52742SOL    HW168156  12.781   1.847   3.978 -1.4125 -0.6328 -0.9795
52742SOL    HW268157  12.709   1.888   4.105  1.4076  0.6833  0.2705
52743SOL     OW68158  11.641   3.490   6.884  0.1034  0.0245 -0.6022
52743SOL    HW168159  11.634   3.527   6.972  0.5977  0.7535 -0.8557
52743SOL    HW268160  11.691   3.410   6.896 -0.7973 -0.4760 -0.0712
52744SOL     OW68161   9.043   0.283   4.011 -0.3211  0.2675  0.1925
52744SOL    HW168162   9.058   0.194   4.043  0.6693  0.1513 -0.5304
52744SOL    HW268163   9.130   0.316   3.991 -0.6637  1.4956  0.6721
52745SOL     OW68164   7.857   2.428  12.796 -0.3805  0.1981 -0.3252
52745SOL    HW168165   7.908   2.370  12.740 -1.0441 -0.5981 -0.1381
52745SOL    HW268166   7.788   2.371  12.832  0.3098  0.5475  1.6828
52746SOL     OW68167   6.967   7.420  10.950 -0.6817  0.0934 -0.0131
52746SOL    HW168168   6.973   7.329  10.982 -1.0741 -0.1036 -0.4815
52746SOL    HW268169   6.879   7.425  10.912  0.0749  0.0432 -1.8888
52747SOL     OW68170   1.026  11.197   7.335 -0.1503 -0.0034 -0.0514
52747SOL    HW168171   0.957  11.134   7.316 -2.3418  2.4941 -0.9700
52747SOL    HW268172   1.031  11.199   7.430 -1.9868  0.3424  0.0713
52748SOL     OW68173   0.039   7.089   9.218  0.1456 -0.0626  0.4115
52748SOL    HW168174   0.057   7.174   9.258  0.7550  0.0417 -0.0620
52748SOL    HW268175  -0.056   7.086   9.207  0.2994  2.2482 -3.1364
52749SOL     OW68176   5.442   9.533   1.206 -0.1195  0.2730  0.2540
52749SOL    HW168177   5.450   9.592   1.131 -1.1032  2.5411  1.8265
52749SOL    HW268178   5.354   9.497   1.199  0.1308 -0.2581 -0.1837
52750SOL     OW68179  11.959   1.156  12.617  0.5852  0.0397 -0.3726
52750SOL    HW168180  12.047   1.169  12.654  1.5901 -0.1030 -2.5806
52750SOL    HW268181  11.901   1.201  12.678  2.2356  0.6419  0.8408
52751SOL     OW68182   8.934   5.060  13.196  0.0545 -0.1220 -0.2161
52751SOL    HW168183   8.909   5.082  13.107 -1.1775  1.1657  0.3901
52751SOL    HW268184   8.925   4.965  13.202  0.9780 -0.3184 -1.6781
52752SOL     OW68185   6.018  10.022   8.629  0.7084  0.4301  0.6034
52752SOL    HW168186   6.002  10.117   8.627  0.1338  0.3587  1.3164
52752SOL    HW268187   6.104  10.013   8.668  1.6658  0.7346 -1.3325
52753SOL     OW68188   1.884  10.531   2.485  0.4311 -0.4587 -0.4457
52753SOL    HW168189   1.799  10.568   2.509  1.3026  2.0883 -1.0205
52753SOL    HW268190   1.867  10.438   2.471 -1.8451 -0.3834  1.3654
52754SOL     OW68191   0.206   3.169   7.577  0.2470  0.0965 -0.0168
52754SOL    HW168192   0.189   3.158   7.484  0.1778  0.9964 -0.1155
52754SOL    HW268193   0.172   3.089   7.617  1.1603 -0.7360 -0.8522
52755SOL     OW68194  12.374   4.420   0.669  0.3407 -0.0374 -0.2150
52755SOL    HW168195  12.468   4.417   0.687 -0.0078 -0.4655  1.8903
52755SOL    HW268196  12.367   4.413   0.574  2.4674  1.1039 -0.5136
52756SOL     OW68197   3.853   7.880   7.101 -0.1384  0.1549  0.1398
52756SOL    HW168198   3.761   7.905   7.104  0.3042  1.8016  2.1720
52756SOL    HW268199   3.878   7.867   7.193  1.8647  0.7260 -0.2621
52757SOL     OW68200   6.530   0.360  12.705  0.0616 -0.0789 -0.5938
52757SOL    HW168201   6.454   0.378  12.761 -0.4821 -2.6691 -0.4061
52757SOL    HW268202   6.602   0.345  12.766 -0.3595 -2.1412 -0.5410
52758SOL     OW68203   9.355   1.132   7.086  0.3424  0.0270 -0.3648
52758SOL    HW168204   9.384   1.075   7.015 -3.5868 -1.5188 -0.9931
52758SOL    HW268205   9.296   1.195   7.044 -3.0138 -1.6332  1.4448
52759SOL     OW68206  13.203  12.346   3.708 -0.0040 -0.1073  0.1529
52759SOL    HW168207  13.131  12.407   3.721 -0.1146 -0.4933  1.4627
52759SOL    HW268208  13.247  12.377   3.629 -2.4573 -0.7003 -1.5618
52760SOL     OW68209   8.446   8.806   0.353  0.6699 -0.0146  0.1972
52760SOL    HW168210   8.506   8.800   0.278  3.1083 -0.1709  2.0281
52760SOL    HW268211   8.495   8.766   0.425 -1.8181 -0.4187  1.7653
52761SOL     OW68212   2.780   4.158   6.622  0.4632 -0.7778 -0.3244
52761SOL    HW168213   2.837   4.131   6.694 -0.8683  0.7119  1.3919
52761SOL    HW268214   2.699   4.108   6.635 -0.8418  1.4901  1.0190
52762SOL     OW68215   6.942   8.520   0.084 -0.8187  0.7778  0.3188
52762SOL    HW168216   6.891   8.453   0.129  1.1774 -0.7238  0.4853
52762SOL    HW268217   7.033   8.502   0.109 -0.2014  3.7895  0.6672
52763SOL     OW68218   2.569   5.719   9.880 -0.2226 -0.1878 -0.1833
52763SOL    HW168219   2.515   5.729   9.958 -0.3661 -1.6552 -0.0712
52763SOL    HW268220   2.633   5.790   9.886 -0.2699 -0.2407  1.2355
52764SOL     OW68221   2.552   5.628   9.419  0.0449 -0.1520 -0.1431
52764SOL    HW168222   2.462   5.615   9.449  0.6249 -0.5793  1.4725
52764SOL    HW268223   2.596   5.673   9.490  1.0978  0.1699 -0.9636
52765SOL     OW68224   8.980   3.442   1.180 -0.2131 -0.5087  0.0506
52765SOL    HW168225   9.030   3.368   1.215  1.0495 -0.8476 -2.2677
52765SOL    HW268226   9.046   3.504   1.150 -1.2226  0.3738 -0.4337
52766SOL     OW68227   4.116   4.235   8.012 -0.2367 -0.3665  0.4825
52766SOL    HW168228   4.077   4.148   8.019 -1.1812  0.0095  0.0022
52766SOL    HW268229   4.052   4.287   7.963  0.4814  0.5009  0.4323
52767SOL     OW68230   6.881   7.294   9.581  0.3894 -0.3216  0.5040
52767SOL    HW168231   6.880   7.198   9.574  0.7459 -0.4908  2.1566
52767SOL    HW268232   6.882   7.325   9.491  1.5563 -1.8938 -0.0774
52768SOL     OW68233   3.170   9.458   8.567 -0.6368  0.0520 -0.5934
52768SOL    HW168234   3.174   9.378   8.619  0.8519  0.7803  0.4759
52768SOL    HW268235   3.144   9.428   8.479  0.7390 -1.7406 -0.4616
52769SOL     OW68236   8.475   6.115   2.328 -0.0238  0.3543 -0.3281
52769SOL    HW168237   8.439   6.027   2.318 -0.6288  0.3723  1.3248
52769SOL    HW268238   8.417   6.171   2.275 -0.5130 -0.0487 -0.2291
52770SOL     OW68239   7.066  13.118   3.852  0.3252 -0.4257 -0.8783
52770SOL    HW168240   6.984  13.141   3.896  0.5652 -1.6386  0.2563
52770SOL    HW268241   7.134  13.142   3.915  0.7551 -0.8738 -1.1713
52771SOL     OW68242   8.782  11.071   1.984  0.7618 -0.2993  0.1237
52771SOL    HW168243   8.827  11.124   1.917  0.8553 -1.1583 -0.5127
52771SOL    HW268244   8.852  11.043   2.043  0.7550  0.0418  0.2973
52772SOL     OW68245   7.638   6.539  10.031  0.2710  0.4165  0.5779
52772SOL    HW168246   7.547   6.565  10.044  0.1637 -0.1428  0.9675
52772SOL    HW268247   7.686   6.584  10.100  0.3849  1.1900  0.0084
52773SOL     OW68248  12.658   0.387  11.416  0.2176  0.2818  0.6179
52773SOL    HW168249  12.617   0.302  11.399  0.1375  0.5976 -0.8864
52773SOL    HW268250  12.752   0.372  11.400 -0.0103  0.9288 -1.8701
52774SOL     OW68251   6.326   4.499   2.461 -0.3676 -0.3366 -0.1260
52774SOL    HW168252   6.274   4.575   2.488  1.1002  0.4474  0.6258
52774SOL    HW268253   6.267   4.424   2.474 -0.5154  0.2033  3.3636
52775SOL     OW68254   8.921   0.418   7.848 -0.1074 -0.1691 -0.2008
52775SOL    HW168255   8.955   0.352   7.908 -1.4364 -0.4328  0.2824
52775SOL    HW268256   8.960   0.396   7.763 -1.3292 -2.2259 -0.2873
52776SOL     OW68257  11.261   2.325  13.090  0.2178 -0.6265 -0.1195
52776SOL    HW168258  11.293   2.315  13.180 -1.6935 -1.3667  0.5399
52776SOL    HW268259  11.176   2.281  13.090 -0.4264  0.4976 -1.9607
52777SOL     OW68260   6.084   4.872   4.463  0.3066 -0.1847 -0.5235
52777SOL    HW168261   6.087   4.909   4.374  1.4922  1.7159  0.2379
52777SOL    HW268262   6.016   4.922   4.507  1.9619  1.2827  0.5382
52778SOL     OW68263   8.875   3.020  12.456 -0.6287  0.0593  0.2145
52778SOL    HW168264   8.924   2.971  12.522  0.5278  0.4109 -0.3660
52778SOL    HW268265   8.848   3.100  12.501  0.0456  0.2398  0.3095
52779SOL     OW68266  10.396   7.220  12.603  0.1024 -0.5039 -0.1870
52779SOL    HW168267  10.377   7.260  12.518 -0.2799 -0.0178  0.1218
52779SOL    HW268268  10.395   7.294  12.665 -1.9127 -1.1285  0.6021
52780SOL     OW68269   2.413  12.069   1.126 -0.1698  0.2682  0.3759
52780SOL    HW168270   2.483  12.034   1.181 -0.8437 -0.9872  0.4769
52780SOL    HW268271   2.371  12.136   1.179  1.6168  1.8153 -0.0887
52781SOL     OW68272   7.607   2.904  11.417  0.2496 -0.0356  0.0773
52781SOL    HW168273   7.516   2.909  11.386  1.1221  0.5356 -2.6050
52781SOL    HW268274   7.604   2.839  11.487 -1.8640 -1.7120 -1.4242
52782SOL     OW68275   3.084  12.939  13.101 -0.0410  0.0411  0.2614
52782SOL    HW168276   3.011  12.881  13.120 -0.1578 -0.3000 -1.1257
52782SOL    HW268277   3.086  13.000  13.174 -0.9630 -0.6800  0.9072
52783SOL     OW68278   5.203   3.837   9.871  0.0701  0.3575 -0.0586
52783SOL    HW168279   5.190   3.742   9.861 -0.0248  0.2845  0.6797
52783SOL    HW268280   5.167   3.857   9.957 -0.8608  1.2568 -0.6356
52784SOL     OW68281   8.329   2.703   0.376  0.0788  0.0611  0.0038
52784SOL    HW168282   8.274   2.744   0.443  0.4545 -1.2168  1.1287
52784SOL    HW268283   8.314   2.609   0.386  1.3011 -0.2335 -0.6876
52785SOL     OW68284   7.691   6.425  12.686  0.1381  0.1128  0.9864
52785SOL    HW168285   7.663   6.345  12.643  2.6820  0.6773 -2.0301
52785SOL    HW268286   7.609   6.469  12.711 -1.3189 -2.7223  1.6001
52786SOL     OW68287   0.591   9.575  10.270 -0.2276 -0.0626  0.2505
52786SOL    HW168288   0.534   9.546  10.199 -1.4944 -0.5024  1.3860
52786SOL    HW268289   0.561   9.664  10.290  0.5497  0.3026 -0.1733
52787SOL     OW68290   1.100  11.124   8.331 -0.0037 -0.5330  0.7560
52787SOL    HW168291   1.066  11.161   8.250  1.1093  0.3546  0.6723
52787SOL    HW268292   1.067  11.182   8.400  2.5236  1.2975  0.5467
52788SOL     OW68293   6.245   4.064   7.694  0.0159 -0.1475  0.7460
52788SOL    HW168294   6.261   4.148   7.651  3.1217 -0.0414  1.8566
52788SOL    HW268295   6.170   4.080   7.750 -0.3101  1.4754 -0.0925
52789SOL     OW68296  10.695   8.501  11.981  0.7823  0.9390 -0.3234
52789SOL    HW168297  10.668   8.575  11.927 -1.7198 -0.1671 -0.7207
52789SOL    HW268298  10.661   8.424  11.936  0.3088 -0.1729  1.8130
52790SOL     OW68299   7.536   0.226  11.381  0.0719 -0.0287  0.0329
52790SOL    HW168300   7.520   0.193  11.292  0.5162  0.1399 -0.1127
52790SOL    HW268301   7.540   0.321  11.371 -2.2689  0.1903  0.6157
52791SOL     OW68302   3.028   6.922   3.398 -0.0632 -0.3947  0.4690
52791SOL    HW168303   2.935   6.903   3.414 -0.6492  0.7192 -1.3341
52791SOL    HW268304   3.053   6.981   3.469 -1.6068  1.6904 -0.6021
52792SOL     OW68305  11.170   1.696   2.221  0.0148 -0.1309  0.4096
52792SOL    HW168306  11.169   1.642   2.143 -0.4726  1.5569 -0.8015
52792SOL    HW268307  11.210   1.641   2.288 -1.2476 -2.2809 -0.5174
52793SOL     OW68308   8.658  12.508   1.169  0.0954  0.5182  0.2310
52793SOL    HW168309   8.644  12.565   1.245  1.2525  0.8663  0.2096
52793SOL    HW268310   8.577  12.458   1.160 -0.4598  1.2615  1.0269
52794SOL     OW68311   1.375   0.228   3.991  0.3540 -0.1906  0.3892
52794SOL    HW168312   1.456   0.181   3.974  0.9208  0.6733  0.6627
52794SOL    HW268313   1.330   0.175   4.057 -0.1267 -1.5807 -0.9725
52795SOL     OW68314  11.128   4.658   0.756  0.5723  0.5637  0.7656
52795SOL    HW168315  11.142   4.685   0.665  3.3078 -1.1865  0.5709
52795SOL    HW268316  11.118   4.563   0.752  2.1708  0.2640  2.3751
52796SOL     OW68317  11.017   0.750   9.106 -0.1183  0.3632  0.0920
52796SOL    HW168318  10.974   0.835   9.097  1.6648  1.2853 -0.2382
52796SOL    HW268319  10.987   0.716   9.190 -0.7035  1.4084  0.3127
52797SOL     OW68320   0.432  12.580  11.818 -0.0266  0.0220  0.1982
52797SOL    HW168321   0.522  12.549  11.832 -0.5146 -1.3121  0.5583
52797SOL    HW268322   0.398  12.591  11.907 -0.1536  0.7325  0.0595
52798SOL     OW68323  11.600   4.325   8.568 -0.0679  0.3261 -0.1485
52798SOL    HW168324  11.663   4.343   8.497  3.3017 -2.4401  1.8283
52798SOL    HW268325  11.634   4.375   8.642  0.7615 -2.2252  1.3109
52799SOL     OW68326   1.791   1.756  12.857  0.4043  0.0047 -0.1516
52799SOL    HW168327   1.784   1.852  12.860  1.5659  0.1140 -0.4423
52799SOL    HW268328   1.880   1.740  12.828 -0.1361 -1.1742 -1.2434
52800SOL     OW68329  11.127   7.723   9.068 -0.1719 -0.2208  0.9370
52800SOL    HW168330  11.078   7.697   9.146 -0.5786 -1.3548  0.3214
52800SOL    HW268331  11.219   7.717   9.094 -0.2401 -2.2188  0.8829
52801SOL     OW68332  10.648   4.653  11.494 -0.0716 -0.7506  0.0744
52801SOL    HW168333  10.561   4.613  11.497 -1.3655  1.9439  0.6506
52801SOL    HW268334  10.633   4.742  11.463  2.3167  0.2510  1.5227
52802SOL     OW68335   2.895  12.368   8.215  0.0416 -0.6258 -0.3756
52802SOL    HW168336   2.901  12.285   8.167  0.0439  0.5301 -2.4508
52802SOL    HW268337   2.802  12.391   8.212  0.1498 -0.1951 -0.4442
52803SOL     OW68338  11.563   2.479   9.245  0.0271 -0.2232  0.3604
52803SOL    HW168339  11.575   2.560   9.294 -1.5159 -0.1045  0.5980
52803SOL    HW268340  11.645   2.467   9.197 -0.2888  2.3289 -0.9611
52804SOL     OW68341   2.628   6.607   8.750  0.2500  0.0759 -0.4225
52804SOL    HW168342   2.576   6.562   8.817 -1.6716  1.5552 -0.8200
52804SOL    HW268343   2.634   6.697   8.781  3.4066 -0.1662  0.0118
52805SOL     OW68344   9.263   1.964  11.036 -0.1510 -0.0185 -0.2704
52805SOL    HW168345   9.288   1.983  11.126  1.2959 -0.2198 -0.6027
52805SOL    HW268346   9.223   2.045  11.004  2.0518  1.1213 -0.3444
52806SOL     OW68347   4.007   9.052   9.616  0.0137 -0.2315 -0.4728
52806SOL    HW168348   4.045   9.044   9.703 -0.5466 -0.5626 -0.2605
52806SOL    HW268349   4.080   9.082   9.561  0.7085 -1.3352 -0.1714
52807SOL     OW68350   8.300  11.181  12.295 -0.3134 -0.0769  0.0108
52807SOL    HW168351   8.243  11.116  12.337 -0.3677  0.1044  0.2227
52807SOL    HW268352   8.285  11.169  12.201  1.1915 -1.7442 -0.0537
52808SOL     OW68353  12.188   3.774  12.407  0.3273  0.3266  0.5378
52808SOL    HW168354  12.250   3.820  12.463  1.0411 -0.2300  0.2241
52808SOL    HW268355  12.161   3.838  12.341  0.9580  0.4336  0.3810
52809SOL     OW68356  11.769   8.609  11.886  0.4404  0.0631  0.0812
52809SOL    HW168357  11.745   8.623  11.978 -1.9325 -0.7245 -0.3445
52809SOL    HW268358  11.743   8.519  11.868 -2.8949  1.3182 -2.3420
52810SOL     OW68359   1.022  10.897   1.307 -0.2721  0.1277  0.1593
52810SOL    HW168360   1.051  10.831   1.371 -1.8207 -0.9883 -0.2355
52810SOL    HW268361   0.928  10.885   1.301 -0.2640  0.6956 -1.7932
52811SOL     OW68362   9.925   2.070   2.524 -0.2444 -0.0956 -0.3854
52811SOL    HW168363   9.904   2.093   2.614 -1.5206 -0.4813 -0.5605
52811SOL    HW268364   9.853   2.107   2.472 -0.6546 -1.6681 -1.0034
52812SOL     OW68365   0.639   5.563   0.411 -0.0703  0.2260 -0.7954
52812SOL    HW168366   0.586   5.493   0.449 -0.6301  1.3837  0.6652
52812SOL    HW268367   0.611   5.567   0.320 -2.5775  0.7897 -0.0752
52813SOL     OW68368   7.801  12.730   3.828  0.0100  0.2046 -0.4892
52813SOL    HW168369   7.738  12.670   3.788  1.6294 -1.4057 -0.7197
52813SOL    HW268370   7.829  12.787   3.757  0.6377 -0.6907 -0.9712
52814SOL     OW68371   9.678   5.267   1.484  0.6917 -0.0977  0.4961
52814SOL    HW168372   9.719   5.211   1.418 -0.1687  0.7969 -0.8434
52814SOL    HW268373   9.720   5.353   1.473 -1.1556  0.7026 -0.5775
52815SOL     OW68374   5.331   7.803   3.030  0.4041  0.7795 -0.3497
52815SOL    HW168375   5.401   7.761   2.979 -0.0884 -0.4771 -0.0323
52815SOL    HW268376   5.252   7.787   2.978 -0.0922 -0.4365  0.7268
52816SOL     OW68377   9.162   3.238   3.668  0.6171  0.1649 -0.3304
52816SOL    HW168378   9.122   3.316   3.706 -0.6561  0.3540 -1.9596
52816SOL    HW268379   9.255   3.260   3.659  0.2975  1.4413 -0.6602
52817SOL     OW68380   0.686   1.136  12.982 -0.0459 -0.2159 -0.1679
52817SOL    HW168381   0.661   1.183  13.062 -0.5887 -1.0234  0.1444
52817SOL    HW268382   0.606   1.132  12.930  0.3702  0.5449 -0.8876
52818SOL     OW68383  10.146   4.353   3.629 -0.9186 -0.3178  0.0211
52818SOL    HW168384  10.097   4.314   3.557 -1.9288 -1.7344  1.3913
52818SOL    HW268385  10.109   4.312   3.708  0.8257  0.4056  1.2821
52819SOL     OW68386   2.987   5.912  12.558  0.3407  0.0152 -0.1953
52819SOL    HW168387   3.046   5.983  12.586  2.0313 -1.2612 -0.3705
52819SOL    HW268388   3.045   5.840  12.535 -1.3501 -1.8173  0.9406
52820SOL     OW68389   0.536   1.203   7.616  0.0227 -0.6167 -0.1576
52820SOL    HW168390   0.452   1.188   7.661 -1.2380 -0.2119 -2.2199
52820SOL    HW268391   0.600   1.154   7.667 -1.3971 -0.6714  1.6863
52821SOL     OW68392   0.286   5.671   3.889  0.5504  0.1480  0.5313
52821SOL    HW168393   0.374   5.635   3.893  0.1552 -1.0304 -0.6951
52821SOL    HW268394   0.258   5.679   3.980  2.3714  1.7624  1.0081
52822SOL     OW68395   6.385  13.233  13.224 -0.2345 -0.1111  0.5511
52822SOL    HW168396   6.456  13.294  13.206 -0.1054 -0.4706 -0.2082
52822SOL    HW268397   6.418  13.149  13.193 -1.0797 -0.2382 -0.0175
52823SOL     OW68398   3.321   0.993   2.666 -0.2736 -0.0832  0.1418
52823SOL    HW168399   3.246   0.943   2.635 -0.3662 -0.2960  0.7085
52823SOL    HW268400   3.373   1.010   2.587 -0.7640 -0.1887 -0.2048
52824SOL     OW68401   4.975  10.409   2.067  0.7476 -0.1147  0.0444
52824SOL    HW168402   5.028  10.431   1.990  0.2291  0.7025 -0.0830
52824SOL    HW268403   4.893  10.457   2.055  0.7098  0.1363  1.1701
52825SOL     OW68404   6.970   7.544   5.380  0.1705 -0.3630 -0.1279
52825SOL    HW168405   7.008   7.548   5.292  0.8861  0.5400  0.2091
52825SOL    HW268406   6.939   7.633   5.396 -0.0851 -0.5607  0.4867
52826SOL     OW68407   0.500  12.755  12.521  0.4863 -0.2558  0.8403
52826SOL    HW168408   0.580  12.706  12.502  0.4409  0.6121 -2.0447
52826SOL    HW268409   0.529  12.844  12.536  0.0700  0.3118 -1.3625
52827SOL     OW68410   6.792   8.842   8.412 -0.5665 -0.9048 -0.8137
52827SOL    HW168411   6.711   8.830   8.461  0.5422  2.2579  2.1012
52827SOL    HW268412   6.832   8.755   8.411 -1.5343 -1.5172  2.4365
52828SOL     OW68413   8.108  10.875   5.148  0.6235 -0.7199  0.5349
52828SOL    HW168414   8.189  10.864   5.198  1.9272  3.4921 -0.2224
52828SOL    HW268415   8.137  10.890   5.058 -0.9056  0.9391  0.2566
52829SOL     OW68416   3.031   8.302   0.595 -0.5458 -0.0205  0.0959
52829SOL    HW168417   2.973   8.378   0.599 -0.7953 -0.2635  1.4893
52829SOL    HW268418   3.007   8.249   0.670  0.8764 -0.5840  0.1918
52830SOL     OW68419   1.322   7.598   6.323 -0.0593  0.6929  0.3864
52830SOL    HW168420   1.328   7.575   6.230 -1.4801 -0.2619  0.4834
52830SOL    HW268421   1.269   7.678   6.325 -0.6348  0.3200  0.3950
52831SOL     OW68422   9.535   8.391   1.760  0.0718 -0.1022  0.0082
52831SOL    HW168423   9.489   8.456   1.813  0.8042  1.2178 -0.9448
52831SOL    HW268424   9.627   8.403   1.782  0.1905 -1.0379  0.0490
52832SOL     OW68425   9.581   8.817   3.227  0.2668 -0.4502  0.7410
52832SOL    HW168426   9.487   8.801   3.219 -0.0814  1.2563  1.0199
52832SOL    HW268427   9.620   8.730   3.222 -1.2364 -1.1124 -0.5522
52833SOL     OW68428  10.703   5.432   1.020 -0.2820  0.0479 -0.7611
52833SOL    HW168429  10.731   5.497   1.084 -1.9615 -0.0021  0.0696
52833SOL    HW268430  10.724   5.348   1.060  2.4186 -0.0240 -2.0748
52834SOL     OW68431  10.482   9.413  10.518  0.2729  0.2226  0.4028
52834SOL    HW168432  10.576   9.426  10.522  0.1660  1.5391 -0.6601
52834SOL    HW268433  10.469   9.352  10.445  0.2300  1.2857 -0.5058
52835SOL     OW68434   8.084   5.977   4.714  0.0055 -0.3091 -0.0801
52835SOL    HW168435   8.159   5.968   4.773  0.3969 -1.3280 -0.6998
52835SOL    HW268436   8.123   5.981   4.627 -0.6468 -0.4462 -0.3816
52836SOL     OW68437  10.666  12.627  13.170  0.0577  0.1934  0.1653
52836SOL    HW168438  10.656  12.604  13.078 -1.9485 -0.4221  0.4933
52836SOL    HW268439  10.722  12.558  13.206  1.3632  0.7725 -0.6957
52837SOL     OW68440   2.780   6.122   4.894  0.2968 -0.4046 -0.9145
52837SOL    HW168441   2.783   6.180   4.818  0.7085  0.4813 -0.2382
52837SOL    HW268442   2.850   6.154   4.951 -0.2854 -0.7960  0.0340
52838SOL     OW68443  12.744   3.859   0.101  0.0929  0.3124  0.0433
52838SOL    HW168444  12.803   3.814   0.041 -1.9181 -0.6673 -1.3372
52838SOL    HW268445  12.791   3.939   0.126  1.5081  0.1690 -1.9030
52839SOL     OW68446   3.458   6.315   3.679 -0.2499  0.3847 -0.0958
52839SOL    HW168447   3.455   6.373   3.755 -2.5788  1.8986 -1.2241
52839SOL    HW268448   3.551   6.313   3.653  0.1361  2.2603  0.9857
52840SOL     OW68449   8.174   3.035  11.794 -0.0754  0.3396 -0.0696
52840SOL    HW168450   8.172   3.028  11.890 -1.0477  1.3127 -0.0061
52840SOL    HW268451   8.265   3.017  11.771  0.6042  1.9036  1.2058
52841SOL     OW68452   1.605   9.057  11.241  0.3351  0.1085  0.4205
52841SOL    HW168453   1.515   9.029  11.258 -0.2248 -0.3947 -2.8445
52841SOL    HW268454   1.636   8.999  11.171  2.3665  1.8243 -0.2137
52842SOL     OW68455   6.297   2.667   0.194 -0.0988  0.3139  0.0836
52842SOL    HW168456   6.243   2.715   0.132 -0.2479 -0.8263 -0.7103
52842SOL    HW268457   6.251   2.584   0.207  0.8073 -0.1660  0.3586
52843SOL     OW68458   8.156   3.463   3.690 -0.4333  0.2227  0.0259
52843SOL    HW168459   8.084   3.510   3.731 -1.1826  0.0976 -1.0963
52843SOL    HW268460   8.235   3.501   3.728 -1.0827 -0.4813  2.2086
52844SOL     OW68461   9.390   9.992   2.216  0.3236 -0.1581 -0.0702
52844SOL    HW168462   9.412  10.075   2.175 -0.3081 -0.1524 -0.4018
52844SOL    HW268463   9.335   9.947   2.152  0.3887 -0.6932  0.2418
52845SOL     OW68464  11.317   1.653  13.182 -0.4397 -0.0671 -0.3436
52845SOL    HW168465  11.385   1.700  13.231  1.3142 -0.9344 -1.8525
52845SOL    HW268466  11.280   1.720  13.124 -0.0249  0.1166 -0.3978
52846SOL     OW68467   1.055   5.383   6.475  0.4063  0.1357  0.1487
52846SOL    HW168468   1.046   5.289   6.484 -0.6854 -0.1329 -2.6707
52846SOL    HW268469   0.974   5.419   6.511 -0.4213 -0.2721 -1.2245
52847SOL     OW68470   0.951   8.961   2.725 -0.1662 -0.3285 -0.0213
52847SOL    HW168471   0.989   8.981   2.639 -0.8198 -0.7507 -0.4120
52847SOL    HW268472   1.014   8.900   2.765  1.5332  1.9173  0.9379
52848SOL     OW68473   6.039   3.092   3.373 -0.2917 -0.3525  0.3582
52848SOL    HW168474   6.116   3.089   3.429  0.1023  0.3273 -0.1337
52848SOL    HW268475   6.067   3.140   3.295 -1.1675 -0.2208  0.1095
52849SOL     OW68476   5.166   4.381  12.676  0.4518 -0.1355  0.2791
52849SOL    HW168477   5.080   4.350  12.646  0.0274 -0.5996  1.8957
52849SOL    HW268478   5.147   4.458  12.730  0.7907 -1.5790  2.5683
52850SOL     OW68479   8.238   5.800   7.814 -0.8502 -0.1043 -0.7871
52850SOL    HW168480   8.225   5.886   7.854  0.5510  0.5330 -1.5836
52850SOL    HW268481   8.325   5.806   7.773 -0.1452 -2.3295  0.2081
52851SOL     OW68482  11.812   6.531   7.024  0.1769 -0.0624  0.3910
52851SOL    HW168483  11.824   6.546   6.930 -0.3373  0.0601  0.3393
52851SOL    HW268484  11.719   6.510   7.033  0.2903 -0.3818  0.8355
52852SOL     OW68485   0.695   7.534   9.960 -0.1237  0.2877 -0.4696
52852SOL    HW168486   0.654   7.611   9.999 -2.8902 -0.4690 -1.6720
52852SOL    HW268487   0.741   7.492  10.033  2.3000  3.4403  0.0592
52853SOL     OW68488   4.266   5.528   9.945 -0.4825  0.6491 -0.0983
52853SOL    HW168489   4.210   5.577   9.885 -0.2701  0.6422 -0.3037
52853SOL    HW268490   4.212   5.455   9.975 -0.6241  0.7133 -0.1984
52854SOL     OW68491   6.521   8.059   7.386  0.0687 -0.2020  0.0905
52854SOL    HW168492   6.428   8.069   7.368  0.0216 -0.2569  0.2953
52854SOL    HW268493   6.528   8.063   7.482  0.3766  0.6275  0.0451
52855SOL     OW68494   8.683  13.250   2.393  0.1200 -0.5455 -0.3244
52855SOL    HW168495   8.764  13.261   2.443 -0.9220  0.0877  1.3299
52855SOL    HW268496   8.696  13.303   2.314  1.2502 -0.3537 -0.0293
52856SOL     OW68497   3.787   4.095  12.846 -0.0041  0.2849  0.2246
52856SOL    HW168498   3.825   4.011  12.820  1.0008  1.1977 -1.4649
52856SOL    HW268499   3.709   4.104  12.791 -1.3006 -0.4296  1.8717
52857SOL     OW68500  11.705   9.805   2.145  0.1629  0.4797 -0.8927
52857SOL    HW168501  11.737   9.774   2.230  1.0923  2.3454 -0.5102
52857SOL    HW268502  11.632   9.747   2.125  1.0038 -1.1030  0.3471
52858SOL     OW68503   5.655   1.857   0.103 -0.3704 -0.4378  0.3900
52858SOL    HW168504   5.655   1.763   0.122 -0.8918 -1.2791 -3.0556
52858SOL    HW268505   5.562   1.880   0.094 -0.2526  0.4484  1.3263
52859SOL     OW68506   3.285   3.371  10.130  0.3277  0.1324  0.3545
52859SOL    HW168507   3.363   3.327  10.163  0.2206 -0.7720 -0.5359
52859SOL    HW268508   3.217   3.350  10.194  0.5849  0.0777  0.6111
52860SOL     OW68509  12.842   5.143   6.979  0.0557  0.0359 -0.8449
52860SOL    HW168510  12.868   5.065   6.929  0.1095  0.6741 -1.8359
52860SOL    HW268511  12.837   5.212   6.914 -1.9001  0.4528 -0.2956
52861SOL     OW68512   7.008   4.191   1.862 -0.4074  0.6718  0.0173
52861SOL    HW168513   7.064   4.268   1.860  0.5315 -0.0062 -1.8883
52861SOL    HW268514   6.941   4.209   1.795 -0.4135  0.0311 -0.1580
52862SOL     OW68515   3.481   7.620  11.304 -0.5347  0.7101  0.0962
52862SOL    HW168516   3.444   7.577  11.226  0.8519 -1.0750  0.3415
52862SOL    HW268517   3.415   7.607  11.372 -0.2244 -1.0417  0.1277
52863SOL     OW68518   7.788  11.677   3.940 -0.4212  0.3246 -0.0357
52863SOL    HW168519   7.820  11.662   3.851 -3.1373  1.5941 -1.3411
52863SOL    HW268520   7.744  11.595   3.964  0.0249  0.1027  0.0502
52864SOL     OW68521   8.892   5.132  12.556 -0.4497  0.1298  0.4425
52864SOL    HW168522   8.945   5.205  12.586 -1.0257  0.9928 -0.5360
52864SOL    HW268523   8.951   5.057  12.557  0.3301  0.7327  0.8942
52865SOL     OW68524   1.589  12.820   1.538  0.0939 -0.0153 -0.1134
52865SOL    HW168525   1.626  12.896   1.581  0.5650  0.0653 -0.6463
52865SOL    HW268526   1.656  12.752   1.546  0.1474 -0.0303 -0.6109
52866SOL     OW68527   7.826   4.542   2.846 -0.1526 -0.0271  0.4842
52866SOL    HW168528   7.867   4.605   2.786 -0.0752  0.7013  1.2716
52866SOL    HW268529   7.878   4.549   2.926 -0.7117 -0.4284  0.8852
52867SOL     OW68530   9.998   7.166   9.987  0.3889 -0.5318 -0.2132
52867SOL    HW168531  10.094   7.162   9.980  0.3684 -1.2048 -0.1900
52867SOL    HW268532   9.971   7.225   9.917  0.8144 -0.4086 -0.2766
52868SOL     OW68533  10.440   1.554   3.276  0.1360  0.2689 -0.2732
52868SOL    HW168534  10.375   1.604   3.226 -0.9767  0.1150  0.9839
52868SOL    HW268535  10.401   1.468   3.288  1.4916 -0.5395 -1.2980
52869SOL     OW68536  10.055   3.191   2.495 -0.6014 -0.0816 -0.6818
52869SOL    HW168537  10.023   3.250   2.563  0.0552 -1.2834  0.7291
52869SOL    HW268538   9.976   3.162   2.450 -1.0006  1.2016 -0.8705
52870SOL     OW68539  10.746   2.625  11.201  0.2354  0.4601 -0.2003
52870SOL    HW168540  10.681   2.674  11.252 -0.3075 -1.3009  0.9040
52870SOL    HW268541  10.702   2.542  11.180  1.8087 -0.4023 -0.2200
52871SOL     OW68542  11.678   8.025   6.786  0.0151  0.2443  0.6857
52871SOL    HW168543  11.597   8.074   6.778  0.9877  1.7400 -0.4780
52871SOL    HW268544  11.726   8.068   6.857  1.9788  2.7925 -1.9639
52872SOL     OW68545   8.244  10.580   2.672  0.4093 -0.1906  0.2072
52872SOL    HW168546   8.305  10.525   2.722 -1.1428 -1.6985  0.5436
52872SOL    HW268547   8.289  10.596   2.589  0.9212 -2.0634  0.0728
52873SOL     OW68548   8.999   6.709   1.615  0.0268  0.5177  0.3380
52873SOL    HW168549   9.043   6.662   1.686  0.3970  0.6631  0.2048
52873SOL    HW268550   8.937   6.767   1.660 -2.3121 -1.8604  0.4712
52874SOL     OW68551  11.214  11.509   7.869 -0.1933 -0.5796 -0.1302
52874SOL    HW168552  11.252  11.421   7.860 -0.0248 -0.5528  0.2996
52874SOL    HW268553  11.130  11.494   7.912 -1.2536 -0.7645 -2.1806
52875SOL     OW68554   6.439   7.134   3.022  0.3924 -0.0568  0.1739
52875SOL    HW168555   6.433   7.168   2.933  2.0459  1.3172  0.5502
52875SOL    HW268556   6.512   7.073   3.020 -1.5359 -2.5401 -0.0952
52876SOL     OW68557  13.069   7.175   8.629  0.2366 -0.0995 -0.3405
52876SOL    HW168558  13.024   7.163   8.545 -1.9187  2.1928  0.3635
52876SOL    HW268559  13.146   7.227   8.607  0.1774 -0.2746 -0.9963
52877SOL     OW68560   3.176   2.469   9.616  0.4263 -0.4099  0.5243
52877SOL    HW168561   3.168   2.563   9.604 -1.0577 -0.6989 -0.9391
52877SOL    HW268562   3.102   2.445   9.672  0.9301 -0.6973  1.0861
52878SOL     OW68563  10.027   2.733  11.132 -0.1838  0.1532  0.0637
52878SOL    HW168564  10.048   2.641  11.149 -0.3260  0.2012  0.5095
52878SOL    HW268565   9.935   2.741  11.157  0.0098  0.5725  0.6607
52879SOL     OW68566   3.192   8.829   8.626 -0.3681 -0.1345 -0.1959
52879SOL    HW168567   3.113   8.852   8.578 -0.2718  0.9988  0.1585
52879SOL    HW268568   3.264   8.851   8.567 -0.2759  0.3126  0.0831
52880SOL     OW68569   0.013  10.617   2.415 -0.2475 -0.3418  0.0372
52880SOL    HW168570  -0.010  10.708   2.393  1.1618 -0.1857 -0.8713
52880SOL    HW268571  -0.071  10.571   2.413 -0.7737  0.6033 -1.1295
52881SOL     OW68572   3.071  11.246  11.616  0.2770  0.1048 -0.1831
52881SOL    HW168573   3.023  11.308  11.561 -1.1207 -0.4391  0.3681
52881SOL    HW268574   3.018  11.166  11.614  0.6889 -0.2312  1.1704
52882SOL     OW68575   2.024   1.113   4.730 -0.2228 -0.6969 -0.2825
52882SOL    HW168576   2.109   1.150   4.756 -0.6080  1.4254 -1.8096
52882SOL    HW268577   2.007   1.046   4.796  1.4685  0.5202  1.5333
52883SOL     OW68578   7.050   8.955   0.563  0.0281 -0.2671  0.1309
52883SOL    HW168579   7.002   8.942   0.481 -0.1183 -1.1472  0.3461
52883SOL    HW268580   7.129   8.900   0.554  1.0110  1.1370 -0.2081
52884SOL     OW68581   8.971  10.039  11.191  1.0152  0.0919  0.0522
52884SOL    HW168582   9.000  10.107  11.130 -0.1318  0.3961 -0.1784
52884SOL    HW268583   8.878  10.056  11.204  0.2245 -2.4345 -1.3987
52885SOL     OW68584  11.166   7.925   8.672 -0.4718 -0.3957  0.2193
52885SOL    HW168585  11.256   7.893   8.662 -0.1869 -0.3944  2.3165
52885SOL    HW268586  11.141   7.954   8.584  2.3616  1.6000 -0.0795
52886SOL     OW68587   2.111   7.578  11.659  0.3031 -0.0543  0.1820
52886SOL    HW168588   2.106   7.640  11.586 -0.5418 -0.0050  0.2753
52886SOL    HW268589   2.121   7.493  11.617 -0.0572 -0.0125  0.0070
52887SOL     OW68590   7.507   5.550   4.684  0.1797  0.4549  0.9125
52887SOL    HW168591   7.495   5.597   4.601 -0.0651  0.1650  0.7799
52887SOL    HW268592   7.597   5.570   4.710  0.9347 -0.9484 -0.3982
52888SOL     OW68593  11.578   2.930   1.331  0.0734 -0.2788 -0.1658
52888SOL    HW168594  11.614   3.008   1.289  1.2472 -0.5216  0.3497
52888SOL    HW268595  11.587   2.947   1.424  3.8392 -2.4311  0.0978
52889SOL     OW68596  11.618   5.498  12.261 -0.2413 -0.1254  0.0233
52889SOL    HW168597  11.671   5.516  12.183  0.1996 -0.2172  0.2985
52889SOL    HW268598  11.576   5.414  12.242 -0.1015 -0.1689 -0.0979
52890SOL     OW68599   2.445  10.018   1.609  0.3586 -0.2044  0.4082
52890SOL    HW168600   2.495   9.948   1.652  0.8675  0.2002  0.4788
52890SOL    HW268601   2.486  10.099   1.638  0.2551  0.1017 -0.2784
52891SOL     OW68602   1.533  13.085   8.893 -0.1368  0.2996  0.5186
52891SOL    HW168603   1.454  13.139   8.884  0.4436  0.8137 -2.8931
52891SOL    HW268604   1.515  13.008   8.840  0.7034 -0.8291  1.8293
52892SOL     OW68605   2.361   0.755   4.599 -0.1336 -0.1085 -0.2753
52892SOL    HW168606   2.274   0.794   4.600  1.0292  2.7523  1.1693
52892SOL    HW268607   2.421   0.830   4.592  2.2519 -1.9577 -1.2956
52893SOL     OW68608   8.087   4.488   4.061  0.0760 -0.3398  1.4885
52893SOL    HW168609   7.998   4.522   4.052  0.3782  0.0544 -0.1892
52893SOL    HW268610   8.078   4.394   4.043  0.0498 -0.2510  1.0423
52894SOL     OW68611   6.049   1.875  11.714 -0.1370  0.0191  0.3556
52894SOL    HW168612   6.002   1.832  11.786 -2.3681 -0.5791 -1.3289
52894SOL    HW268613   6.018   1.829  11.636  0.4944  2.0849 -1.1789
52895SOL     OW68614  12.863   3.064  13.237 -0.8599 -0.0615 -0.7716
52895SOL    HW168615  12.876   3.153  13.204  0.6625 -0.5890 -1.7008
52895SOL    HW268616  12.865   3.073  13.332  0.1700  0.8089 -0.8561
52896SOL     OW68617   0.543  10.762   9.507  0.1060  0.3352 -0.0648
52896SOL    HW168618   0.462  10.776   9.556  0.6780  1.7552  0.5222
52896SOL    HW268619   0.591  10.844   9.515  0.6901  0.2593 -2.1531
52897SOL     OW68620  11.637   5.726   8.644  0.7274 -0.3542  0.1154
52897SOL    HW168621  11.639   5.822   8.651  0.5758 -0.2008 -1.6660
52897SOL    HW268622  11.726   5.702   8.618  1.8002 -1.0767  3.7521
52898SOL     OW68623   1.618   8.111  12.333 -0.0952  0.0622  0.9037
52898SOL    HW168624   1.653   8.024  12.351  0.3825 -0.1445 -0.7881
52898SOL    HW268625   1.563   8.099  12.255  0.4611  1.3577  0.2718
52899SOL     OW68626   2.209   2.454  13.051  0.3757 -0.2403 -0.2589
52899SOL    HW168627   2.180   2.529  13.103  0.3624  0.1578 -0.8343
52899SOL    HW268628   2.284   2.486  13.001  0.7491 -0.7856 -0.0551
52900SOL     OW68629   5.763   5.180   2.557  0.0109 -0.0421  0.3674
52900SOL    HW168630   5.839   5.228   2.589 -0.5384  0.2435  1.3182
52900SOL    HW268631   5.696   5.248   2.545 -0.7432 -0.5117  1.6264
52901SOL     OW68632   4.487   0.485   7.414 -0.6219 -0.0035 -0.7882
52901SOL    HW168633   4.557   0.521   7.469  0.2799  2.8134 -3.4791
52901SOL    HW268634   4.408   0.496   7.467  0.0972  3.2129 -0.1518
52902SOL     OW68635   4.445   0.001   0.311 -0.2798 -0.0569 -0.0154
52902SOL    HW168636   4.491  -0.027   0.233  0.4010  1.5962 -0.2480
52902SOL    HW268637   4.468  -0.063   0.378 -1.0007 -1.5814 -1.1736
52903SOL     OW68638   6.645   5.729   6.753  0.6102  0.0391  0.1856
52903SOL    HW168639   6.730   5.754   6.788  0.7606  1.9548 -1.3815
52903SOL    HW268640   6.586   5.728   6.829  1.4922  1.2572  0.9085
52904SOL     OW68641   9.898   3.515   5.326 -0.4479  0.0125 -0.3377
52904SOL    HW168642   9.961   3.541   5.258 -0.6093 -0.3554 -0.6315
52904SOL    HW268643   9.861   3.433   5.294 -0.5379 -0.1557  0.1915
52905SOL     OW68644   4.908   8.256   1.439  0.0569  0.2250  0.2000
52905SOL    HW168645   4.961   8.178   1.455  0.8465  0.7558  0.2125
52905SOL    HW268646   4.872   8.243   1.352 -0.4913 -0.5285  0.5248
52906SOL     OW68647   4.078   0.040   4.020 -0.0270 -0.6275 -0.0783
52906SOL    HW168648   4.080   0.021   3.926 -2.2143 -0.1181 -0.2685
52906SOL    HW268649   4.078   0.135   4.026  0.3234 -0.6573  0.4562
52907SOL     OW68650   9.949  12.377   4.045  0.2623 -0.2583  0.7522
52907SOL    HW168651   9.977  12.436   3.975  0.3788 -1.2308 -0.0541
52907SOL    HW268652  10.009  12.302   4.038 -0.7900 -1.1243  0.8034
52908SOL     OW68653   0.847   4.368   2.607  0.1109  0.5132  0.5469
52908SOL    HW168654   0.919   4.307   2.625 -0.3805 -0.5196 -0.8382
52908SOL    HW268655   0.887   4.438   2.555 -0.2140 -1.0894 -1.9933
52909SOL     OW68656  12.617   9.110   8.929  0.4901  0.0346 -0.4701
52909SOL    HW168657  12.705   9.129   8.962  0.7903  0.8659 -1.6874
52909SOL    HW268658  12.563   9.179   8.967  0.0177 -1.3088  1.4831
52910SOL     OW68659  12.495   8.475   6.189  0.0652 -0.0485 -0.1845
52910SOL    HW168660  12.423   8.473   6.125  0.8114 -0.6036 -1.0363
52910SOL    HW268661  12.574   8.470   6.135  0.8559  2.8816  0.5454
52911SOL     OW68662   7.436   7.087   3.817  0.1565 -0.4096 -0.3051
52911SOL    HW168663   7.428   7.182   3.825 -1.0237 -0.5213 -0.0476
52911SOL    HW268664   7.429   7.070   3.724  0.3889 -0.2475 -0.3543
52912SOL     OW68665   3.648   4.779   6.026  0.0585  0.2649  0.4627
52912SOL    HW168666   3.567   4.828   6.014  2.0599  3.6414 -0.7033
52912SOL    HW268667   3.685   4.772   5.938  1.6166 -0.0614  1.1114
52913SOL     OW68668   8.280  10.949   9.360  0.0512 -0.0587  1.2592
52913SOL    HW168669   8.263  10.952   9.265  1.3208 -2.5651  0.8752
52913SOL    HW268670   8.238  11.029   9.394  0.2050  1.3247 -1.4897
52914SOL     OW68671   7.930   0.580   5.054 -0.3234  0.2895  0.1748
52914SOL    HW168672   8.017   0.576   5.012  0.3020 -3.1593  1.4232
52914SOL    HW268673   7.869   0.573   4.981  0.4596  1.6766 -0.6542
52915SOL     OW68674  10.977   9.087   2.202 -0.0305 -0.1282  0.0533
52915SOL    HW168675  11.063   9.102   2.163 -0.0483 -0.7861 -0.2686
52915SOL    HW268676  10.923   9.159   2.171  0.5197  0.5382  0.6256
52916SOL     OW68677   8.260   9.042   2.481  0.0432  0.3981 -0.4401
52916SOL    HW168678   8.204   9.116   2.506 -0.4082 -0.0919  0.0443
52916SOL    HW268679   8.321   9.033   2.555 -1.6113 -1.3703  0.8106
52917SOL     OW68680   3.341   7.546   3.755 -0.4949  0.4895  0.2577
52917SOL    HW168681   3.351   7.487   3.679 -0.4016 -0.7382  1.1911
52917SOL    HW268682   3.431   7.562   3.784 -0.5445  0.7606  0.2598
52918SOL     OW68683  12.705  12.578  11.321 -0.0128  0.6821  0.8687
52918SOL    HW168684  12.716  12.494  11.275 -2.4602  1.1310 -0.7314
52918SOL    HW268685  12.791  12.620  11.314  0.8481 -1.0368  0.3898
52919SOL     OW68686   3.999  11.888   2.108  0.2969 -0.1930  0.6010
52919SOL    HW168687   4.077  11.893   2.164  0.4373 -0.0867  0.3987
52919SOL    HW268688   3.934  11.842   2.161  0.4454 -0.1392  0.8320
52920SOL     OW68689   0.849   2.783  12.896  0.1745  0.2944  0.2896
52920SOL    HW168690   0.758   2.779  12.865 -0.4424 -0.9332  2.0399
52920SOL    HW268691   0.902   2.778  12.817 -1.2405 -4.0977 -0.6788
52921SOL     OW68692  11.006   9.533   5.317  0.8372  0.2983  0.3354
52921SOL    HW168693  10.935   9.596   5.327  2.0794  2.1665 -1.7630
52921SOL    HW268694  11.083   9.576   5.353  1.5116 -0.4061 -0.2221
52922SOL     OW68695   8.597   5.382   0.078  0.1391 -0.0849 -0.1979
52922SOL    HW168696   8.686   5.346   0.089  0.3224 -0.6625 -2.9440
52922SOL    HW268697   8.612   5.474   0.056 -0.0301  0.1389  0.5970
52923SOL     OW68698   7.081   9.772   1.111  0.1569 -0.2741  0.6233
52923SOL    HW168699   7.013   9.770   1.044 -0.2030 -0.3143  0.9841
52923SOL    HW268700   7.157   9.732   1.070 -0.5572 -1.8810  0.7797
52924SOL     OW68701   4.156   3.309   5.438 -0.4045 -0.3797 -0.0100
52924SOL    HW168702   4.107   3.368   5.382  1.2371 -0.2688 -1.4020
52924SOL    HW268703   4.179   3.235   5.382  2.7284  0.5154 -0.0664
52925SOL     OW68704   1.600  13.272   5.037  0.1776 -0.7430  0.0431
52925SOL    HW168705   1.666  13.208   5.011  0.6008  0.5403 -2.3310
52925SOL    HW268706   1.521  13.247   4.988 -0.4941 -1.0133  1.2146
52926SOL     OW68707   5.409  11.241  10.735  0.1456 -0.1565  0.1389
52926SOL    HW168708   5.456  11.183  10.795  0.5723 -0.1556 -0.1912
52926SOL    HW268709   5.329  11.193  10.714  0.4406 -0.5757 -0.0390
52927SOL     OW68710   8.112  11.580   9.558  0.2523 -0.2630 -0.0202
52927SOL    HW168711   8.188  11.522   9.550 -1.4833 -2.6871  0.0116
52927SOL    HW268712   8.143  11.664   9.525  3.0677 -1.0071  0.4173
52928SOL     OW68713   5.567  11.065   4.024  0.5346 -0.3510 -0.2637
52928SOL    HW168714   5.499  11.067   3.957  1.7784 -1.2962 -1.6307
52928SOL    HW268715   5.569  11.154   4.059 -1.7698 -0.4335  0.2597
52929SOL     OW68716   0.185   3.399   6.409  0.1325  0.8866  0.3931
52929SOL    HW168717   0.258   3.352   6.449 -1.8112 -2.5706  0.3064
52929SOL    HW268718   0.188   3.372   6.317 -1.0942  0.8074  0.3558
52930SOL     OW68719   6.239   9.302  10.573 -0.3792  0.1755  0.3568
52930SOL    HW168720   6.150   9.319  10.604 -0.9319 -1.8159 -0.0277
52930SOL    HW268721   6.292   9.298  10.652 -0.6661  1.0932  0.6102
52931SOL     OW68722   3.029  12.901   0.380  0.2831  0.4209  0.0573
52931SOL    HW168723   3.007  12.809   0.368  0.0108  0.0584  2.6273
52931SOL    HW268724   2.946  12.943   0.401  0.8458  0.4917  2.4468
52932SOL     OW68725   7.436   9.097   4.953  0.2002 -0.1808  0.2409
52932SOL    HW168726   7.370   9.132   4.894  0.0083 -1.5489 -0.3995
52932SOL    HW268727   7.447   9.165   5.019 -2.6946 -0.3611  1.0448
52933SOL     OW68728   4.490   1.419  12.627 -0.6680 -0.3987 -0.4055
52933SOL    HW168729   4.516   1.329  12.646 -0.5039 -0.2649  0.0289
52933SOL    HW268730   4.436   1.445  12.702  1.0039  0.5558  0.5384
52934SOL     OW68731  10.025   9.953   5.973 -0.1189  0.0400  0.3762
52934SOL    HW168732  10.092   9.929   6.037  0.5625 -0.2998 -0.4322
52934SOL    HW268733   9.962   9.881   5.975 -0.5558  0.4409  1.2609
52935SOL     OW68734  10.042  13.212   9.186  0.4374 -0.3538  0.1943
52935SOL    HW168735   9.961  13.175   9.151 -0.6083 -0.3595  2.4402
52935SOL    HW268736  10.012  13.283   9.244  2.0973  0.1777  0.4437
52936SOL     OW68737   7.500  11.551   8.056 -0.2530  0.1347  0.0748
52936SOL    HW168738   7.426  11.503   8.093 -0.2304 -0.8367 -1.0619
52936SOL    HW268739   7.469  11.581   7.971  0.6498 -0.3262 -0.4353
52937SOL     OW68740   1.941   7.515   7.535 -0.0046 -0.3201  0.1983
52937SOL    HW168741   2.026   7.538   7.573  0.2464 -0.1938 -0.4191
52937SOL    HW268742   1.882   7.584   7.566  0.5458  0.6958 -0.8913
52938SOL     OW68743  10.903   5.505   9.510  0.1315 -0.0640 -0.5118
52938SOL    HW168744  10.811   5.527   9.521  0.4565  0.9348  0.3504
52938SOL    HW268745  10.950   5.566   9.566  1.4086  0.2472 -1.8293
52939SOL     OW68746   9.947   8.093   0.737 -0.0319  0.4963 -0.3906
52939SOL    HW168747   9.930   8.131   0.823  0.5612  0.9017 -0.4491
52939SOL    HW268748  10.007   8.154   0.695  0.3947 -0.1528 -0.7472
52940SOL     OW68749   0.229  12.053   4.771  0.2291  0.2085  0.5016
52940SOL    HW168750   0.286  12.120   4.732  0.0605 -1.1758 -2.3843
52940SOL    HW268751   0.180  12.017   4.697 -0.5910 -2.2692  2.1236
52941SOL     OW68752   8.867   3.223   0.764 -0.0295  0.3710 -0.1620
52941SOL    HW168753   8.893   3.313   0.785 -1.0199  0.4868  0.6173
52941SOL    HW268754   8.842   3.185   0.848  0.5067 -0.6887 -0.4662
52942SOL     OW68755   0.634   1.334   5.674  0.1382 -0.2808 -0.4012
52942SOL    HW168756   0.708   1.331   5.734 -1.2114 -0.2541  1.3514
52942SOL    HW268757   0.670   1.370   5.593  1.7252  1.2129  0.8941
52943SOL     OW68758  12.842  12.391  11.153  0.0398 -0.1908 -0.3787
52943SOL    HW168759  12.846  12.414  11.060 -0.1802  0.6728 -0.1915
52943SOL    HW268760  12.850  12.296  11.155  0.4876 -0.1846 -1.2509
52944SOL     OW68761   3.164   8.424   7.138 -0.1067  0.2314 -0.1794
52944SOL    HW168762   3.110   8.345   7.135 -0.3245  0.2747  1.5422
52944SOL    HW268763   3.114   8.489   7.088  0.3634 -0.8323 -2.1456
52945SOL     OW68764   1.998   1.642  11.497  0.0050  0.1565 -0.8122
52945SOL    HW168765   1.982   1.660  11.589 -1.5647 -1.5645 -0.7089
52945SOL    HW268766   2.074   1.584  11.496 -0.4854 -0.4861 -0.5530
52946SOL     OW68767  11.792  10.211   7.892 -0.6696  0.3146 -0.3728
52946SOL    HW168768  11.873  10.235   7.846 -2.1509  2.1077 -2.1939
52946SOL    HW268769  11.788  10.271   7.966 -0.6461  0.6665 -0.6531
52947SOL     OW68770   8.064   2.563   7.989  0.2197  0.0683  0.1420
52947SOL    HW168771   8.067   2.578   8.083  1.6131 -1.7965  0.4294
52947SOL    HW268772   8.113   2.636   7.951  1.6567 -0.3963  1.0454
52948SOL     OW68773   7.125   9.537  12.396  0.1345 -0.0066 -0.1082
52948SOL    HW168774   7.038   9.542  12.434 -1.3111 -1.7607 -2.8534
52948SOL    HW268775   7.176   9.486  12.460 -1.1465  0.0445  0.9990
52949SOL     OW68776   5.568  10.568  11.539 -0.3187 -0.1063 -0.1289
52949SOL    HW168777   5.588  10.609  11.623 -1.4918  0.1834  0.0344
52949SOL    HW268778   5.595  10.477  11.549 -0.6910 -0.1388  0.6693
52950SOL     OW68779   1.995  10.774  10.725  0.0570 -0.5074 -0.1326
52950SOL    HW168780   1.972  10.845  10.664 -1.5016  0.2533  1.2365
52950SOL    HW268781   1.913  10.755  10.771  1.1143 -1.1669  1.5864
52951SOL     OW68782  10.818   7.900   8.737  0.2707  0.3154  0.7748
52951SOL    HW168783  10.902   7.945   8.738 -0.1255  1.1704 -0.8135
52951SOL    HW268784  10.836   7.813   8.773  2.0549  0.1091 -0.5122
52952SOL     OW68785   3.961  11.162   6.044  0.1592 -0.5859 -0.7596
52952SOL    HW168786   3.907  11.241   6.041 -1.8684 -1.8658 -0.5030
52952SOL    HW268787   3.904  11.093   6.009  2.0119 -1.8645 -1.4007
52953SOL     OW68788   2.799   9.420   1.275  0.4735 -0.4680 -0.2604
52953SOL    HW168789   2.854   9.498   1.284 -2.2139  1.5569 -0.0512
52953SOL    HW268790   2.804   9.378   1.361  0.0755  0.8999  0.4744
52954SOL     OW68791  12.622   4.923   5.731  0.0744 -0.1162  0.1493
52954SOL    HW168792  12.679   4.900   5.658 -1.1743 -0.4753 -0.7286
52954SOL    HW268793  12.627   5.019   5.735  2.2069 -0.2165  1.3209
52955SOL     OW68794   0.185   9.879   7.016 -0.3506  0.8352  0.2199
52955SOL    HW168795   0.092   9.885   6.991 -0.0992  2.7508 -0.4494
52955SOL    HW268796   0.185   9.827   7.096 -1.6993 -1.4768 -1.1549
52956SOL     OW68797  12.251  11.809   0.879  0.2264 -0.6790 -0.4711
52956SOL    HW168798  12.191  11.761   0.936  0.3889 -1.1182 -0.6643
52956SOL    HW268799  12.212  11.896   0.872  0.5084 -0.4385  0.7573
52957SOL     OW68800  10.801   2.578  10.575  0.6570  0.2879  0.1267
52957SOL    HW168801  10.779   2.660  10.530  0.9990 -0.8723 -2.2688
52957SOL    HW268802  10.721   2.555  10.623 -0.5061  0.5173 -1.5957
52958SOL     OW68803   6.477   4.563  12.112  0.0978  0.3499 -0.0826
52958SOL    HW168804   6.521   4.502  12.170  1.7429  1.4471 -0.1274
52958SOL    HW268805   6.387   4.531  12.107 -0.1296  0.2455  3.0744
52959SOL     OW68806   2.610   6.513   0.167  0.3241  0.5817  0.1377
52959SOL    HW168807   2.616   6.540   0.259 -0.6323 -1.7836  0.9748
52959SOL    HW268808   2.518   6.524   0.145  0.2088 -0.5015  0.0358
52960SOL     OW68809   6.788   7.473   6.574 -0.1231  0.1169 -0.0274
52960SOL    HW168810   6.711   7.512   6.615  0.6289  0.0285  1.5570
52960SOL    HW268811   6.778   7.491   6.480 -1.6500  0.7986  0.2422
52961SOL     OW68812  10.323  10.586   4.423 -0.2748  0.2201 -0.1688
52961SOL    HW168813  10.283  10.641   4.356 -0.9782 -1.3496 -1.1088
52961SOL    HW268814  10.249  10.537   4.460  0.5631 -1.9070 -1.1501
52962SOL     OW68815   4.387   9.371   5.106  0.1258 -0.0379 -0.2220
52962SOL    HW168816   4.470   9.400   5.066  0.9476 -2.7381 -0.6700
52962SOL    HW268817   4.394   9.399   5.197  1.3299  0.1616 -0.3573
52963SOL     OW68818   0.067   2.960  11.325  0.7433  0.3800  0.2532
52963SOL    HW168819   0.006   2.889  11.346 -0.1392  0.9475 -0.2887
52963SOL    HW268820   0.010   3.030  11.292  1.6674  1.0642  0.0911
52964SOL     OW68821   4.340   3.235  13.021 -0.3007 -0.3323 -0.0879
52964SOL    HW168822   4.249   3.240  12.991 -0.7151 -0.0124  1.1310
52964SOL    HW268823   4.384   3.307  12.976 -0.3522 -1.2233 -1.6050
52965SOL     OW68824   3.780   2.216   6.892  0.0057  0.8023  0.1148
52965SOL    HW168825   3.814   2.156   6.826  2.3397 -0.3144  2.1692
52965SOL    HW268826   3.820   2.301   6.870  0.6305  0.4752 -0.0349
52966SOL     OW68827   9.592   2.406  12.048  0.2413  0.4753 -0.0207
52966SOL    HW168828   9.666   2.377  12.102 -1.0155 -1.3709  0.8137
52966SOL    HW268829   9.539   2.460  12.108 -0.4900 -0.5115  0.2481
52967SOL     OW68830   0.483   4.202   5.364  0.5627  0.7169  0.1167
52967SOL    HW168831   0.560   4.220   5.417  1.8547 -0.8245 -1.1405
52967SOL    HW268832   0.515   4.201   5.274 -0.5843 -1.3434 -0.3431
52968SOL     OW68833   9.103   0.238   0.941 -0.3407  0.0644  0.6906
52968SOL    HW168834   9.042   0.194   0.882  1.3393 -0.8799 -0.4512
52968SOL    HW268835   9.050   0.265   1.015 -1.9367 -1.7042  0.2721
52969SOL     OW68836   5.449   0.984   0.534 -0.0214  0.1908  0.3325
52969SOL    HW168837   5.521   0.940   0.490 -2.9663 -3.4376 -1.4089
52969SOL    HW268838   5.401   1.029   0.465 -1.4639 -0.6624  0.7197
52970SOL     OW68839  11.968   4.370  10.907  0.0945  0.6723 -0.0916
52970SOL    HW168840  12.057   4.336  10.900 -0.2391 -0.2101 -0.1563
52970SOL    HW268841  11.969   4.423  10.987  0.4045 -0.2004  0.4886
52971SOL     OW68842   6.076   0.662  10.151 -0.0975  0.2061 -0.0628
52971SOL    HW168843   6.067   0.567  10.163 -0.0067  0.1954 -0.0776
52971SOL    HW268844   6.079   0.697  10.240 -1.4868  0.3292 -0.0393
52972SOL     OW68845   9.573   9.308   5.786 -0.1632  0.0553  0.1944
52972SOL    HW168846   9.528   9.241   5.837 -1.1662  0.2253 -0.4322
52972SOL    HW268847   9.504   9.349   5.734  0.4949  1.2958  0.2594
52973SOL     OW68848  11.438   5.401   9.702 -0.0722  0.4250 -0.3116
52973SOL    HW168849  11.343   5.409   9.712 -0.1132 -1.2356  1.0401
52973SOL    HW268850  11.450   5.358   9.617 -0.6571 -1.0488  0.3173
52974SOL     OW68851   2.719  10.290   9.148 -0.4050 -0.1562  0.2474
52974SOL    HW168852   2.686  10.226   9.085  1.0436 -1.3903  0.6916
52974SOL    HW268853   2.727  10.242   9.230  0.3671  0.6814  0.6868
52975SOL     OW68854   2.452   2.156   5.117  0.2716 -0.0148  0.5509
52975SOL    HW168855   2.445   2.083   5.178 -0.6929 -0.8727 -0.5184
52975SOL    HW268856   2.373   2.208   5.133  1.4551  1.4425  2.0323
52976SOL     OW68857   2.387   6.412   2.756  0.5811 -0.2668  0.0693
52976SOL    HW168858   2.468   6.384   2.799  1.1660 -0.9248 -1.3927
52976SOL    HW268859   2.417   6.458   2.677 -0.4662 -1.6077 -1.1493
52977SOL     OW68860   5.001   3.435   4.774  0.0560  0.8570  0.0230
52977SOL    HW168861   4.907   3.437   4.754  0.3512  1.9062 -1.4655
52977SOL    HW268862   5.029   3.347   4.748  0.0798  1.6113 -2.9001
52978SOL     OW68863   5.220  10.873   3.739 -0.3564 -0.4386  0.0574
52978SOL    HW168864   5.227  10.962   3.773  2.3466 -0.5605  0.0464
52978SOL    HW268865   5.264  10.877   3.654 -2.5202 -1.2632 -1.1673
52979SOL     OW68866   6.715  11.036   6.668  0.0944  0.3596 -0.3693
52979SOL    HW168867   6.728  11.130   6.654  1.7748  0.1741 -0.1979
52979SOL    HW268868   6.621  11.028   6.683  0.1678  2.3055  1.7448
52980SOL     OW68869   6.528  11.414   0.847 -0.1902 -0.0667 -0.1962
52980SOL    HW168870   6.554  11.504   0.827  0.7858  0.0225  1.3375
52980SOL    HW268871   6.582  11.360   0.791 -1.0415  0.2853 -1.4003
52981SOL     OW68872   0.727   7.147  11.837 -0.1439  0.5595 -0.3833
52981SOL    HW168873   0.790   7.133  11.766  0.6020 -0.1430  0.3967
52981SOL    HW268874   0.718   7.242  11.842  1.4516  0.7195 -0.0104
52982SOL     OW68875   9.894  10.519  12.997 -0.3487 -0.5873 -0.2673
52982SOL    HW168876   9.859  10.467  13.070  1.4361 -1.0337  0.3239
52982SOL    HW268877   9.885  10.610  13.026  0.4406 -0.7646  0.5905
52983SOL     OW68878   3.373  11.458   7.185 -0.2426  0.1088  0.2202
52983SOL    HW168879   3.310  11.530   7.182 -0.1260  0.1842 -1.0046
52983SOL    HW268880   3.320  11.379   7.174 -0.3332  0.0164  1.2306
52984SOL     OW68881   3.152   5.959   0.461  0.1283  0.1107  0.2257
52984SOL    HW168882   3.125   6.003   0.381  0.3560 -0.2592 -0.0549
52984SOL    HW268883   3.092   5.885   0.469  2.1635 -1.8319 -1.4044
52985SOL     OW68884   6.650   5.345  11.706  0.3082  0.0438 -0.1182
52985SOL    HW168885   6.591   5.284  11.661  1.2039  0.6213 -2.2080
52985SOL    HW268886   6.652   5.314  11.796  0.4168 -2.7866 -0.9978
52986SOL     OW68887   1.739   8.751   3.143 -0.4251  0.1600  0.4911
52986SOL    HW168888   1.777   8.831   3.179  1.6525 -0.1475 -0.8680
52986SOL    HW268889   1.736   8.691   3.217  1.4908  0.3189  0.7402
52987SOL     OW68890  13.112   5.484   4.547  0.0348  0.1333  0.3934
52987SOL    HW168891  13.114   5.474   4.643 -0.8813 -0.7410  0.3331
52987SOL    HW268892  13.027   5.451   4.521  0.6428 -0.5267 -0.8386
52988SOL     OW68893   3.124   8.416   7.950  0.0635 -0.0470  0.0063
52988SOL    HW168894   3.118   8.472   8.027 -1.5984 -0.0675 -0.0800
52988SOL    HW268895   3.211   8.377   7.956  1.0305  2.0045  0.4226
52989SOL     OW68896   9.593   2.170   0.428  0.3012  0.2689 -0.2087
52989SOL    HW168897   9.621   2.225   0.501  0.5436  0.3975 -0.3966
52989SOL    HW268898   9.597   2.081   0.462  0.5531  0.3175 -0.1100
52990SOL     OW68899   1.422   9.784  11.169  0.6875  0.1086  0.1709
52990SOL    HW168900   1.467   9.788  11.085 -0.0710 -0.1716 -0.2459
52990SOL    HW268901   1.470   9.717  11.218  1.3860  0.5589  0.1291
52991SOL     OW68902  11.063   0.514   8.103  0.1862 -0.8592 -0.0965
52991SOL    HW168903  11.087   0.443   8.162 -2.2148 -1.1305  0.6520
52991SOL    HW268904  11.006   0.472   8.038 -1.0421  0.3310  0.1949
52992SOL     OW68905   5.131  12.927   4.728 -0.3985  0.3299  0.0969
52992SOL    HW168906   5.069  12.930   4.655  0.2884  0.3246 -0.4981
52992SOL    HW268907   5.154  12.834   4.735  0.2825  0.4604 -0.3287
52993SOL     OW68908   7.269  11.143   2.454 -0.0153  1.0326  0.2597
52993SOL    HW168909   7.233  11.057   2.473  1.2240  0.2060 -0.9631
52993SOL    HW268910   7.205  11.184   2.395  0.7495 -0.2212 -1.5001
52994SOL     OW68911   4.391   9.699   3.560  0.0726  0.1615  0.0443
52994SOL    HW168912   4.443   9.744   3.626  0.1862  1.0510 -0.6296
52994SOL    HW268913   4.313   9.753   3.548  0.3051  0.3117 -0.9234
52995SOL     OW68914   8.774   3.930   3.280 -0.6295  0.3214  0.4060
52995SOL    HW168915   8.855   3.921   3.330 -0.3270  0.8585  0.0136
52995SOL    HW268916   8.719   3.858   3.312  0.5421 -0.9802 -0.3762
52996SOL     OW68917   8.667  12.318   6.240  0.4513 -0.7269 -0.1066
52996SOL    HW168918   8.710  12.258   6.180  1.4795  1.1922 -1.4112
52996SOL    HW268919   8.574  12.310   6.219  0.5710 -1.8280 -0.2556
52997SOL     OW68920  12.039   5.567   2.881 -0.3289  0.3065 -0.3933
52997SOL    HW168921  12.020   5.501   2.815  1.5719 -0.4384 -0.2479
52997SOL    HW268922  12.028   5.522   2.965  1.2839  0.0051 -0.2968
52998SOL     OW68923   8.185  11.929   0.442  0.0452  0.5835  0.7736
52998SOL    HW168924   8.185  11.834   0.432  1.5277  0.3264  2.6293
52998SOL    HW268925   8.093  11.952   0.457 -0.7937 -0.1179 -2.5193
52999SOL     OW68926   3.984   5.254   8.580 -0.4057  0.1174  0.6324
52999SOL    HW168927   4.002   5.348   8.586  0.6090 -0.1301  1.7598
52999SOL    HW268928   3.890   5.246   8.597 -1.4549  1.2519 -3.4015
53000SOL     OW68929   6.099   8.812   4.159 -0.0864  0.2548 -0.3573
53000SOL    HW168930   6.036   8.741   4.175 -0.7142  0.6912 -0.8617
53000SOL    HW268931   6.164   8.803   4.230  0.4157 -1.4500 -0.9795
53001SOL     OW68932   0.196  10.245  11.452 -0.2894  0.1526 -0.5833
53001SOL    HW168933   0.146  10.223  11.373 -0.3893  0.0638 -0.4948
53001SOL    HW268934   0.235  10.330  11.431  1.7885 -0.9858 -1.7413
53002SOL     OW68935   1.232   6.414  11.538  0.0299  0.3986 -0.3580
53002SOL    HW168936   1.200   6.409  11.628  1.8209  0.3644  0.3082
53002SOL    HW268937   1.178   6.481  11.497 -1.2026  0.0064  0.5627
53003SOL     OW68938   6.563   1.361   4.968  0.2370 -0.1855  0.5363
53003SOL    HW168939   6.501   1.429   4.992  1.1267  1.0139 -0.4551
53003SOL    HW268940   6.649   1.401   4.983  0.7842 -1.4034  0.7825
53004SOL     OW68941   9.716   4.664  10.289 -0.1042  0.4093 -0.2069
53004SOL    HW168942   9.730   4.715  10.369  1.2141 -1.1930  0.6479
53004SOL    HW268943   9.663   4.590  10.317  1.2593 -0.7358 -0.5429
53005SOL     OW68944   9.866   6.083   1.706 -0.1018  0.5212  0.8092
53005SOL    HW168945   9.902   6.126   1.784 -0.8447  0.6254  1.1033
53005SOL    HW268946   9.910   5.998   1.703  0.0843  0.6004  1.2319
53006SOL     OW68947   3.212   4.667   2.846  0.4606  0.3937  0.4245
53006SOL    HW168948   3.302   4.687   2.820  0.5072  0.2749  0.4948
53006SOL    HW268949   3.161   4.681   2.767  0.8977 -2.2181 -0.4096
53007SOL     OW68950   9.341  12.842  13.245  0.2507 -0.2234 -0.0365
53007SOL    HW168951   9.382  12.759  13.271 -0.7008 -0.9468 -0.7641
53007SOL    HW268952   9.403  12.881  13.183  1.4362  0.3912  1.4726
53008SOL     OW68953   0.978   9.424   2.489  0.0080 -0.5644  0.4970
53008SOL    HW168954   1.014   9.380   2.566  0.5254 -0.7753  0.1434
53008SOL    HW268955   1.055   9.460   2.445 -0.1725 -1.2773 -0.4307
53009SOL     OW68956   0.012   6.827   1.287  0.0208  0.5292  0.3628
53009SOL    HW168957   0.106   6.833   1.269  0.1428 -0.7223  0.4942
53009SOL    HW268958  -0.006   6.733   1.292 -1.7704  0.6029 -2.4112
53010SOL     OW68959   2.611   5.973   5.097 -0.1274 -0.1737  0.2322
53010SOL    HW168960   2.659   6.003   5.019  0.3044  1.0215  0.9292
53010SOL    HW268961   2.594   5.880   5.080  1.4786 -0.3712 -0.5288
53011SOL     OW68962   3.866  11.138   3.720  0.2502 -0.2784 -0.2946
53011SOL    HW168963   3.940  11.140   3.659  0.0500  1.0431 -0.5117
53011SOL    HW268964   3.892  11.196   3.791  0.2845 -1.4463  0.6855
53012SOL     OW68965   5.313   0.379  12.093 -0.7092 -0.2106  0.0584
53012SOL    HW168966   5.390   0.395  12.147 -1.3449  0.6099  0.7467
53012SOL    HW268967   5.304   0.458  12.039 -1.4000 -0.0431  0.4039
53013SOL     OW68968   1.963   1.990   2.426  0.5323  0.3357  0.5279
53013SOL    HW168969   2.044   2.039   2.414  1.1777 -0.8266 -0.0556
53013SOL    HW268970   1.916   2.002   2.343 -0.5048  2.0400  1.3172
53014SOL     OW68971   5.402   4.504   5.176  0.4057 -0.4289 -0.2801
53014SOL    HW168972   5.456   4.531   5.103 -0.3078  1.1250 -0.2687
53014SOL    HW268973   5.312   4.506   5.142  0.0080  0.8780  0.7557
53015SOL     OW68974   3.578  10.820   4.992  0.2845  0.1179 -0.3455
53015SOL    HW168975   3.547  10.870   5.067  1.5909  1.6975 -0.8018
53015SOL    HW268976   3.577  10.882   4.920  2.5843 -0.2861 -0.7939
53016SOL     OW68977   6.756   0.552   6.612 -0.0841 -0.3866 -0.8256
53016SOL    HW168978   6.810   0.501   6.551  0.8184 -0.4682  0.0220
53016SOL    HW268979   6.815   0.619   6.646 -0.3086 -0.8958  0.6230
53017SOL     OW68980   1.451  12.268   2.062 -0.3811  0.6354  0.0170
53017SOL    HW168981   1.486  12.328   1.997  0.5488  1.0979  0.9376
53017SOL    HW268982   1.517  12.199   2.070 -1.0505 -0.0794 -0.4076
53018SOL     OW68983  10.699  11.020   6.318 -0.3384  0.2732  0.0392
53018SOL    HW168984  10.633  10.969   6.273 -3.1856  2.0503  1.8830
53018SOL    HW268985  10.708  11.100   6.265  0.3724  0.0412 -0.2031
53019SOL     OW68986   6.514   8.553   5.172 -0.1927  0.1689 -0.4643
53019SOL    HW168987   6.602   8.575   5.140 -0.2723  0.2265 -0.6501
53019SOL    HW268988   6.514   8.457   5.177 -0.0527  0.1779 -0.2669
53020SOL     OW68989   1.204   6.662   0.280 -0.2953  0.4662  0.2805
53020SOL    HW168990   1.272   6.716   0.240  0.2594 -0.5953 -0.2452
53020SOL    HW268991   1.149   6.634   0.207 -2.3384  2.6564  0.8720
53021SOL     OW68992   6.215   3.204   5.413  0.1429 -0.1545  0.1962
53021SOL    HW168993   6.162   3.228   5.337  0.2396  1.3077  0.5527
53021SOL    HW268994   6.304   3.196   5.379 -0.1882 -2.2877 -0.3412
53022SOL     OW68995  10.686   5.595   1.722  0.8810 -0.4839  0.6706
53022SOL    HW168996  10.735   5.513   1.727  0.4982 -0.8039 -0.5209
53022SOL    HW268997  10.753   5.663   1.715  1.1830 -0.9251 -1.0342
53023SOL     OW68998   8.424   2.666   7.680 -0.1739 -0.2793 -0.3758
53023SOL    HW168999   8.420   2.746   7.733 -1.1168 -0.4909 -0.1085
53023SOL    HW269000   8.508   2.672   7.634 -0.7802  1.4822 -1.3451
53024SOL     OW69001   2.157  10.658   6.919 -0.4443  0.0377 -0.3002
53024SOL    HW169002   2.120  10.571   6.939  0.8805 -0.6263 -0.6138
53024SOL    HW269003   2.105  10.719   6.971 -1.8346 -0.8719 -0.5764
53025SOL     OW69004   0.792   5.959  11.931 -0.2032  0.3326 -0.0086
53025SOL    HW169005   0.787   6.041  11.882  0.1311  0.0666 -0.4966
53025SOL    HW269006   0.734   5.972  12.007  1.1551  1.6407  0.8557
53026SOL     OW69007   5.756   8.592  10.938  0.1961  0.1056  0.1880
53026SOL    HW169008   5.709   8.654  10.994 -0.4666  1.2476 -1.5439
53026SOL    HW269009   5.839   8.578  10.983  0.7045  2.8692  0.2931
53027SOL     OW69010   2.737  13.223   8.974 -0.0010 -0.0832  0.5688
53027SOL    HW169011   2.676  13.223   8.899  2.2185  0.9077 -1.3664
53027SOL    HW269012   2.786  13.142   8.964 -0.1825 -0.3053  1.4236
53028SOL     OW69013   8.553   9.585   1.763  0.1550 -0.0483  0.5190
53028SOL    HW169014   8.569   9.605   1.671  0.6463  1.4033  0.8959
53028SOL    HW269015   8.461   9.609   1.777  0.3835  0.7798  0.6570
53029SOL     OW69016  12.179   3.662   9.605 -0.0808 -0.6422 -0.0574
53029SOL    HW169017  12.134   3.696   9.528 -0.2774  0.7704  0.6414
53029SOL    HW269018  12.123   3.591   9.636 -2.3208  1.4503  1.1438
53030SOL     OW69019  12.983   9.466   1.885 -0.5986 -0.5682  0.6746
53030SOL    HW169020  12.971   9.560   1.895 -0.4644 -0.5223  0.3954
53030SOL    HW269021  12.898   9.429   1.906 -1.0992 -0.2835 -0.7769
53031SOL     OW69022   2.624   9.198   1.557  0.6905  0.1320 -0.6560
53031SOL    HW169023   2.559   9.131   1.533  2.0014 -1.3624 -0.2029
53031SOL    HW269024   2.584   9.243   1.632 -0.1202 -0.3190 -0.7951
53032SOL     OW69025   5.609   1.531   0.935  0.6598 -0.3279  0.3705
53032SOL    HW169026   5.528   1.568   0.971 -0.7523 -3.3675  0.6432
53032SOL    HW269027   5.627   1.455   0.990  2.9638 -0.5291 -0.5548
53033SOL     OW69028   7.408   8.037   8.788 -0.2381 -0.2429 -0.1674
53033SOL    HW169029   7.315   8.047   8.768 -0.0170 -0.5826 -1.4417
53033SOL    HW269030   7.447   8.005   8.706  1.3497  1.8414 -0.2953
53034SOL     OW69031   8.089   7.430   1.653 -0.3552 -0.5220 -0.1753
53034SOL    HW169032   8.164   7.390   1.696 -0.0666  1.0311  0.8472
53034SOL    HW269033   8.119   7.448   1.564  1.1980  1.7074  0.7011
53035SOL     OW69034   3.159   7.708   2.683  0.5240 -0.4027  0.0940
53035SOL    HW169035   3.070   7.729   2.711 -0.2705 -1.0652 -1.7653
53035SOL    HW269036   3.150   7.622   2.641  2.4509 -1.4788  1.7340
53036SOL     OW69037   2.327  10.964  10.520  0.0955  0.2754 -0.0307
53036SOL    HW169038   2.371  10.933  10.598  2.0264 -1.7456 -1.7919
53036SOL    HW269039   2.292  10.885  10.479 -1.4525  1.3528 -0.9227
53037SOL     OW69040   5.209   8.737   6.977  0.2690 -0.2601  0.3988
53037SOL    HW169041   5.251   8.812   7.019  3.4067 -0.9079 -1.2814
53037SOL    HW269042   5.224   8.664   7.037  0.5710 -0.2762  0.3036
53038SOL     OW69043   5.472  10.350   1.551  0.3799 -0.2312  0.6412
53038SOL    HW169044   5.547  10.386   1.504  0.6940 -1.1367  0.4351
53038SOL    HW269045   5.397  10.397   1.516  0.8917  1.1390  1.2971
53039SOL     OW69046   6.500   4.234   2.048 -0.1115  0.5526 -0.2757
53039SOL    HW169047   6.577   4.179   2.059  0.2691  1.0633 -0.3576
53039SOL    HW269048   6.496   4.285   2.129 -0.1630  0.7716 -0.4165
53040SOL     OW69049  12.866   1.273   1.017  0.1960 -0.1160  0.3512
53040SOL    HW169050  12.835   1.271   1.107  1.8168  1.2293  0.9982
53040SOL    HW269051  12.790   1.301   0.966 -0.2026  1.2129  1.6077
53041SOL     OW69052   0.491  12.827   5.583  0.4602  0.3666  0.3003
53041SOL    HW169053   0.435  12.904   5.584  0.5107  0.4048  0.1331
53041SOL    HW269054   0.432  12.754   5.565  0.4791  0.4183  0.0274
53042SOL     OW69055   0.172   4.782   6.977  0.3864  0.5207 -0.0521
53042SOL    HW169056   0.262   4.752   6.994 -0.3631 -1.6739  0.2794
53042SOL    HW269057   0.154   4.844   7.048  0.5379 -1.5122  1.8647
53043SOL     OW69058   1.746  10.427   0.056 -0.2833  0.3211  0.2307
53043SOL    HW169059   1.656  10.414   0.025  0.6544 -2.6892 -1.6458
53043SOL    HW269060   1.766  10.348   0.106  1.8811 -0.0450 -1.0771
53044SOL     OW69061   9.048   3.987  13.133 -0.3572  0.1336 -0.4203
53044SOL    HW169062   9.124   3.997  13.191 -0.7283 -3.4777  0.9243
53044SOL    HW269063   9.069   3.911  13.079 -2.6454 -0.4064 -0.6161
53045SOL     OW69064  10.739  12.653  10.697 -0.8066  0.5530 -0.3578
53045SOL    HW169065  10.655  12.699  10.699 -0.4040  1.2725  0.5052
53045SOL    HW269066  10.781  12.685  10.617 -0.1531  2.4020  0.6838
53046SOL     OW69067   9.613   5.549  11.766 -0.3374 -0.5232  0.1237
53046SOL    HW169068   9.538   5.497  11.735  0.3818 -2.4455  1.3758
53046SOL    HW269069   9.604   5.633  11.722 -1.7095 -1.6293 -1.8801
53047SOL     OW69070   7.927   0.994   0.336 -0.4314  0.3349 -0.7010
53047SOL    HW169071   7.862   1.063   0.349  0.4273  1.0103  0.2289
53047SOL    HW269072   7.895   0.920   0.387 -0.7623  0.4656 -0.7201
53048SOL     OW69073   5.622  10.313   9.772 -0.3390 -0.1645  0.0457
53048SOL    HW169074   5.693  10.308   9.707  0.9211  1.9115  1.1505
53048SOL    HW269075   5.552  10.359   9.726 -0.4817 -1.0519 -0.6498
53049SOL     OW69076   2.218  10.619   6.385 -0.2662  0.3434 -0.2460
53049SOL    HW169077   2.165  10.627   6.464  0.4355 -1.8252  0.5129
53049SOL    HW269078   2.305  10.650   6.412 -0.2752  0.5411 -0.4488
53050SOL     OW69079   7.834   6.267   3.382 -0.1872  0.3585 -0.2235
53050SOL    HW169080   7.918   6.221   3.377  1.0734  2.4414  0.6733
53050SOL    HW269081   7.802   6.266   3.291 -0.2369 -2.1815 -0.2576
53051SOL     OW69082   2.591   1.008   3.234  0.6147  0.7029  0.3867
53051SOL    HW169083   2.499   1.032   3.248  0.7971  0.9359  1.2479
53051SOL    HW269084   2.615   0.958   3.312  0.1829 -2.6164 -1.4285
53052SOL     OW69085   0.526   9.017   1.781  0.1281 -0.1330  0.1452
53052SOL    HW169086   0.519   9.020   1.876  1.3592 -0.2543  0.2629
53052SOL    HW269087   0.598   9.077   1.761 -0.0528 -0.1891 -0.7004
53053SOL     OW69088   8.309   0.867   1.599 -0.3664  0.4167 -0.3179
53053SOL    HW169089   8.293   0.943   1.543 -0.4123  0.4379 -0.2756
53053SOL    HW269090   8.362   0.808   1.545 -1.1293  0.0550 -0.6956
53054SOL     OW69091   7.300   6.537   7.756 -0.4914  0.2979 -0.3446
53054SOL    HW169092   7.359   6.565   7.826  0.4517 -1.9165 -0.1482
53054SOL    HW269093   7.244   6.471   7.796 -1.8148  0.9731 -1.0285
53055SOL     OW69094   6.338   1.245  12.199  0.3068  0.4385  0.4105
53055SOL    HW169095   6.259   1.276  12.155 -0.1613  0.4108  1.2076
53055SOL    HW269096   6.315   1.246  12.292  0.3904 -1.9517  0.5071
53056SOL     OW69097  12.549   6.107   2.048 -0.2485  0.0057  0.3631
53056SOL    HW169098  12.483   6.081   2.112  0.7565 -2.8391  0.3405
53056SOL    HW269099  12.631   6.111   2.097  0.1382  0.1408 -0.2769
53057SOL     OW69100   5.357   4.845   8.946  0.1868  0.4307  0.5494
53057SOL    HW169101   5.379   4.808   9.031  0.7252  0.0828  0.2683
53057SOL    HW269102   5.284   4.904   8.963 -0.0859 -0.0727  1.1540
53058SOL     OW69103   1.177  12.679   3.825  0.4294  0.4833  0.5063
53058SOL    HW169104   1.149  12.752   3.770 -1.9287 -0.5897  0.1720
53058SOL    HW269105   1.225  12.621   3.765  0.5246  0.7850  0.2900
53059SOL     OW69106   0.806   2.577  12.596  0.2122  0.5253 -0.4228
53059SOL    HW169107   0.882   2.554  12.542 -0.7079 -1.4077 -0.9858
53059SOL    HW269108   0.731   2.554  12.542 -0.7848  1.4174  0.5424
53060SOL     OW69109   5.958   2.556   4.933  0.1460 -0.4375 -0.0909
53060SOL    HW169110   5.879   2.547   4.987  0.4647 -1.8502  0.1754
53060SOL    HW269111   5.925   2.580   4.847 -0.5061 -0.0276  0.2656
53061SOL     OW69112   1.694  13.120   2.695 -0.0582 -0.3179 -0.0444
53061SOL    HW169113   1.710  13.101   2.787  1.7432  2.2693  0.2660
53061SOL    HW269114   1.646  13.043   2.663  2.2954 -2.9075  2.1628
53062SOL     OW69115   3.444   0.894   1.596  0.1085  0.4966  0.2339
53062SOL    HW169116   3.433   0.899   1.691 -0.3448  0.4310  0.1891
53062SOL    HW269117   3.356   0.910   1.561 -0.1112 -1.2853 -0.1128
53063SOL     OW69118   3.579   0.585   6.044  0.1387 -0.3913  0.0378
53063SOL    HW169119   3.633   0.662   6.025  0.2467 -0.4004  0.3096
53063SOL    HW269120   3.591   0.529   5.967 -0.2692  0.0413 -0.3522
53064SOL     OW69121   6.065   3.420   4.941  0.2670  0.6695  0.5569
53064SOL    HW169122   6.070   3.339   4.890  1.6693 -0.0235  1.6885
53064SOL    HW269123   5.974   3.447   4.935  0.1481  0.0030 -1.3289
53065SOL     OW69124   3.067  11.758   9.831  0.5425  0.2931  0.0882
53065SOL    HW169125   3.110  11.676   9.857 -1.8571 -1.0136  0.2155
53065SOL    HW269126   3.011  11.780   9.906  0.5131  1.6124 -0.3039
53066SOL     OW69127   3.888   6.423   1.643 -0.1199 -0.3861  0.3995
53066SOL    HW169128   3.883   6.343   1.695 -1.9271  0.2581  1.3213
53066SOL    HW269129   3.798   6.455   1.640  0.3597  0.9518 -1.0214
53067SOL     OW69130   3.748   1.957   7.240  0.7795  0.5005  0.4898
53067SOL    HW169131   3.832   1.995   7.217  0.7062  0.1061 -0.4930
53067SOL    HW269132   3.744   1.875   7.189 -0.4904  0.8659 -0.0530
53068SOL     OW69133   0.863   6.302  10.877  0.1228  0.0766  0.6920
53068SOL    HW169134   0.791   6.355  10.841  2.1405  1.5006 -1.5377
53068SOL    HW269135   0.914   6.364  10.929 -0.4103 -1.0145  2.5757
53069SOL     OW69136   1.394  13.021   9.172 -0.1532 -0.4391  0.0787
53069SOL    HW169137   1.452  13.019   9.096  0.0249 -0.6621  0.2194
53069SOL    HW269138   1.453  13.032   9.247 -0.2892 -0.6949  0.2245
53070SOL     OW69139  10.131  12.188   7.018 -0.1799  0.5362 -0.2065
53070SOL    HW169140  10.120  12.116   6.955  1.5090 -1.5438  1.6800
53070SOL    HW269141  10.224  12.210   7.013 -0.2875  1.2360  0.6475
53071SOL     OW69142   2.798   2.958  12.094 -0.1161  0.0318  1.0738
53071SOL    HW169143   2.757   2.910  12.166 -2.3153 -0.6584 -0.5328
53071SOL    HW269144   2.730   3.019  12.065  0.6755  0.2138 -0.4870
53072SOL     OW69145   0.731  10.159  10.852  0.2853 -0.2228 -0.0673
53072SOL    HW169146   0.669  10.231  10.858 -0.4625 -0.7897 -0.6796
53072SOL    HW269147   0.817  10.200  10.862 -0.1484  0.6699  0.1250
53073SOL     OW69148  11.125  11.251  11.366 -0.1804  0.0220  0.1870
53073SOL    HW169149  11.035  11.282  11.372 -0.2640 -0.0598 -0.5870
53073SOL    HW269150  11.159  11.261  11.455 -1.1793 -0.6548  0.6741
53074SOL     OW69151   3.459   0.679   6.781 -0.0993 -0.6850 -0.4144
53074SOL    HW169152   3.384   0.735   6.762  0.3674 -0.3894 -1.4418
53074SOL    HW269153   3.533   0.722   6.737  0.8586 -0.4986  1.2937
53075SOL     OW69154   5.867   2.533   1.096 -0.0125 -0.0631 -0.0709
53075SOL    HW169155   5.904   2.581   1.022 -0.4608 -0.7478 -0.7619
53075SOL    HW269156   5.843   2.448   1.059 -0.9353 -0.1458  0.6895
53076SOL     OW69157  11.816   7.943   2.832  0.1167  0.5259 -0.4958
53076SOL    HW169158  11.736   7.957   2.881  0.3974 -0.3134  0.2234
53076SOL    HW269159  11.789   7.894   2.754  0.1793 -1.5952  0.7576
53077SOL     OW69160   4.208   7.463  11.193 -0.2716 -0.0184 -0.4181
53077SOL    HW169161   4.285   7.424  11.234 -0.2093 -0.5847 -1.0623
53077SOL    HW269162   4.199   7.548  11.235  1.6936  0.7851 -1.5014
53078SOL     OW69163   6.540   9.378   9.819  0.5135 -0.0385  0.2276
53078SOL    HW169164   6.585   9.460   9.838  0.7281  0.5754 -2.5134
53078SOL    HW269165   6.453   9.405   9.787  1.3617 -0.5851 -2.9537
53079SOL     OW69166   1.010   7.350  10.830 -0.6558  0.1483 -0.5900
53079SOL    HW169167   1.079   7.288  10.808 -2.0199 -1.5689 -0.3169
53079SOL    HW269168   1.040   7.434  10.797  2.2378 -0.1913  0.8729
53080SOL     OW69169   9.534   5.987   2.179 -0.3175 -0.0321  0.0642
53080SOL    HW169170   9.566   6.005   2.267 -1.5402  0.1964  0.4761
53080SOL    HW269171   9.439   6.000   2.184 -0.3159  0.8565 -1.4909
53081SOL     OW69172   7.833   9.736   8.497 -0.6186 -0.0558 -0.2219
53081SOL    HW169173   7.847   9.644   8.475  0.7579 -0.1562  0.8906
53081SOL    HW269174   7.768   9.734   8.567  0.6092 -0.3678  0.9708
53082SOL     OW69175   4.196   2.315   9.847 -0.0190 -0.3668  0.4311
53082SOL    HW169176   4.172   2.310   9.940 -0.0441  0.2743  0.4670
53082SOL    HW269177   4.125   2.366   9.807  0.4875  0.2089  0.2475
53083SOL     OW69178  11.573   4.069   5.031  0.1873  0.1384  0.6975
53083SOL    HW169179  11.498   4.095   5.085  0.0274  0.8888  0.1368
53083SOL    HW269180  11.648   4.115   5.071  0.1913  0.1141  0.7171
53084SOL     OW69181   5.645  10.690   7.461 -0.0545 -0.1430 -0.1323
53084SOL    HW169182   5.688  10.774   7.475 -1.0198  0.1578  1.2038
53084SOL    HW269183   5.562  10.697   7.508 -1.2777 -0.9540 -2.0429
53085SOL     OW69184  10.570  10.222   3.731 -0.3522  0.8330  0.2894
53085SOL    HW169185  10.554  10.275   3.653  0.2050  1.5956  0.6896
53085SOL    HW269186  10.515  10.261   3.799  2.4284  2.9980  1.4723
53086SOL     OW69187  13.182   1.027   1.001 -0.3492  0.5758 -0.5960
53086SOL    HW169188  13.264   0.978   1.010 -1.3922 -1.3151 -0.9709
53086SOL    HW269189  13.173   1.040   0.906 -1.4758 -1.0460 -0.7395
53087SOL     OW69190   1.509   9.813  12.735 -0.0933 -0.0840  0.1435
53087SOL    HW169191   1.490   9.907  12.744  0.0465 -0.1035  0.6322
53087SOL    HW269192   1.441   9.781  12.675 -1.0123  0.0426  1.1004
53088SOL     OW69193   4.490  11.410   7.224 -0.7082  0.3566 -0.0258
53088SOL    HW169194   4.578  11.376   7.207 -0.4779  1.6702 -1.8414
53088SOL    HW269195   4.505  11.492   7.272 -1.0184  0.0581  0.5953
53089SOL     OW69196   3.119   7.836  10.511 -0.5839 -0.0700  0.1587
53089SOL    HW169197   3.197   7.798  10.551  1.0663 -1.5569 -3.9940
53089SOL    HW269198   3.138   7.930  10.506  2.2726 -0.6251 -2.9096
53090SOL     OW69199  11.116   9.867  10.394  0.7636  0.6992 -0.0783
53090SOL    HW169200  11.189   9.806  10.385 -1.0802 -1.9007  1.2539
53090SOL    HW269201  11.138   9.919  10.472  0.8343 -0.7039  0.8807
53091SOL     OW69202   8.401   9.694   6.136  0.2176 -0.0499 -0.4143
53091SOL    HW169203   8.337   9.669   6.070  0.8993 -0.9890 -0.7438
53091SOL    HW269204   8.475   9.634   6.122 -0.1481 -1.1719  2.0268
53092SOL     OW69205  13.142   6.312  12.851 -0.0417  0.4053  0.0915
53092SOL    HW169206  13.129   6.221  12.879  0.7849  0.3443  0.3128
53092SOL    HW269207  13.120   6.364  12.928 -0.9993  0.4215 -0.1919
53093SOL     OW69208  12.260  10.004   2.344 -0.2095  0.0977  0.5640
53093SOL    HW169209  12.287  10.060   2.271 -0.0585  0.0292  0.5676
53093SOL    HW269210  12.310  10.038   2.419  1.7583 -1.5609  0.0962
53094SOL     OW69211  12.122   4.450  12.892  1.0605 -0.1668 -0.3917
53094SOL    HW169212  12.170   4.533  12.896  1.0899 -0.2194  0.9235
53094SOL    HW269213  12.031   4.476  12.878  0.9494  0.1674  0.7912
53095SOL     OW69214  12.969   9.825   7.038  0.1502  0.5918  0.2691
53095SOL    HW169215  12.925   9.815   7.123 -1.4693  0.7337 -0.5154
53095SOL    HW269216  12.958   9.918   7.017  1.4800  0.7845  0.3764
53096SOL     OW69217   8.451   4.686  12.807  0.0672 -0.0130  0.6822
53096SOL    HW169218   8.496   4.602  12.794  1.2868  0.7575 -0.3827
53096SOL    HW269219   8.372   4.664  12.855 -0.5968 -2.0599 -1.1892
53097SOL     OW69220   5.784   5.798   9.327 -0.0377  0.5837 -0.1329
53097SOL    HW169221   5.827   5.714   9.345  0.1117  0.3900 -1.3392
53097SOL    HW269222   5.734   5.816   9.407 -0.7452 -1.0719 -0.1482
53098SOL     OW69223   3.281   7.541   8.850 -0.1269  0.4180 -0.1859
53098SOL    HW169224   3.279   7.622   8.902 -1.5722 -0.3233  0.9835
53098SOL    HW269225   3.223   7.559   8.776 -2.6237 -0.3750  1.4672
53099SOL     OW69226  10.756   9.311   3.097  0.3358 -0.3792 -0.2359
53099SOL    HW169227  10.727   9.354   3.178  0.6935 -1.0687  0.2650
53099SOL    HW269228  10.706   9.230   3.093  0.6316 -0.5535 -0.4861
53100SOL     OW69229   2.972  10.669   4.767  0.2893 -0.4405 -0.1751
53100SOL    HW169230   2.884  10.631   4.759  0.0484  0.5147 -3.0787
53100SOL    HW269231   3.027  10.596   4.795 -0.9188 -1.8597 -1.3238
53101SOL     OW69232   1.145   1.578   5.221  0.1090 -0.4234 -0.4336
53101SOL    HW169233   1.137   1.622   5.306 -1.0509 -3.1090  0.9598
53101SOL    HW269234   1.222   1.522   5.230  0.4965 -0.0826 -1.5028
53102SOL     OW69235   6.099   8.766   8.829  0.4385 -0.6380  0.1464
53102SOL    HW169236   6.078   8.840   8.773 -0.4024 -0.1305  1.0920
53102SOL    HW269237   6.080   8.797   8.918  0.1202 -1.9608  0.5636
53103SOL     OW69238   3.763   3.207   0.065 -0.4538  0.3554  0.2284
53103SOL    HW169239   3.839   3.264   0.054  0.1164 -0.5399 -0.6523
53103SOL    HW269240   3.692   3.254   0.022 -0.5381  1.3992  1.4230
53104SOL     OW69241   8.480  10.330   5.807 -0.0148 -0.2201 -0.1113
53104SOL    HW169242   8.444  10.245   5.781 -0.0653 -0.7623  1.6087
53104SOL    HW269243   8.406  10.377   5.846  0.5284 -0.3598  1.1508
53105SOL     OW69244   1.320   3.274   0.993  0.2687 -0.1427 -0.4331
53105SOL    HW169245   1.244   3.323   1.023 -0.0836 -1.2245  0.5144
53105SOL    HW269246   1.284   3.197   0.949  0.7623 -1.2860  1.0675
53106SOL     OW69247   7.130   2.775  13.039  0.0067 -0.2353  0.0511
53106SOL    HW169248   7.086   2.712  12.982  0.9832 -0.6333 -0.2952
53106SOL    HW269249   7.059   2.824  13.080 -0.7975 -1.6889  0.4913
53107SOL     OW69250  12.205  12.660   5.764  0.1827  0.5436  0.3596
53107SOL    HW169251  12.267  12.639   5.694  0.1844  0.6726  0.3225
53107SOL    HW269252  12.221  12.593   5.830  0.1019  0.3521  0.1875
53108SOL     OW69253   1.145   8.935   0.657  0.2586  0.2503  0.5277
53108SOL    HW169254   1.148   8.912   0.750  0.2034 -2.3510 -0.0464
53108SOL    HW269255   1.116   8.855   0.613  3.6108  0.1988 -2.0630
53109SOL     OW69256   4.297   6.385   3.010 -0.1342  0.2274 -0.2413
53109SOL    HW169257   4.207   6.417   3.018  0.1867  1.1250 -0.0608
53109SOL    HW269258   4.313   6.385   2.915 -1.1919 -2.5228 -0.5090
53110SOL     OW69259   4.915   2.741   0.917 -0.2904  0.4423  0.4225
53110SOL    HW169260   4.887   2.653   0.941 -0.4645  0.9471  2.2967
53110SOL    HW269261   5.003   2.729   0.879 -0.0425 -0.4896  1.2443
53111SOL     OW69262   5.561  10.033   4.622 -0.7023  0.3220 -0.1015
53111SOL    HW169263   5.568   9.938   4.625 -0.1473  0.3824  1.4417
53111SOL    HW269264   5.635  10.061   4.568 -0.3081 -0.0883  0.2191
53112SOL     OW69265   6.063   4.978   4.740 -0.0508 -0.4706  0.5335
53112SOL    HW169266   6.073   5.059   4.690 -0.7211 -0.1535  0.8907
53112SOL    HW269267   5.994   4.998   4.803 -1.2169 -1.7711 -0.2861
53113SOL     OW69268   8.848   0.333   1.035 -0.0488 -0.2308  0.2775
53113SOL    HW169269   8.769   0.302   0.993 -0.4253  0.0940  0.7341
53113SOL    HW269270   8.861   0.274   1.109  0.3172 -0.4801  0.0185
53114SOL     OW69271   1.344   6.068  12.577 -0.3136  0.1968  0.3049
53114SOL    HW169272   1.281   6.125  12.622 -0.1531  1.1057 -0.5861
53114SOL    HW269273   1.345   5.988  12.629 -0.9321  0.8141  1.3026
53115SOL     OW69274   2.583   7.137   9.148  0.1356 -0.4018  0.7096
53115SOL    HW169275   2.581   7.093   9.233 -1.8564 -1.0550  0.3706
53115SOL    HW269276   2.491   7.143   9.122  0.3688  3.1124  0.2622
53116SOL     OW69277   0.265   9.562   4.980 -0.3879  0.3394  0.3453
53116SOL    HW169278   0.301   9.646   5.010  0.6118  0.4376 -1.0385
53116SOL    HW269279   0.299   9.551   4.891 -1.2058 -1.1323  0.1730
53117SOL     OW69280   8.099  11.429   7.008 -0.1932  0.1128  0.0610
53117SOL    HW169281   8.125  11.343   6.974 -1.0298 -0.0835 -0.1137
53117SOL    HW269282   8.089  11.484   6.930 -0.5879  0.0989  0.0985
53118SOL     OW69283   0.867   6.628  12.356  0.1858  0.3140 -0.5463
53118SOL    HW169284   0.962   6.640  12.361  0.9400 -4.2672  0.6457
53118SOL    HW269285   0.832   6.698  12.411  3.0053  1.2551  0.2375
53119SOL     OW69286   4.564   2.344   9.526  0.0787 -0.6628 -0.0482
53119SOL    HW169287   4.657   2.355   9.505  0.5212 -2.3813  0.8860
53119SOL    HW269288   4.561   2.341   9.621 -0.5852 -2.9949 -0.0818
53120SOL     OW69289  10.228   6.093   5.976  0.2655 -0.7995 -0.1637
53120SOL    HW169290  10.200   6.002   5.971 -0.8550 -0.4002 -1.7027
53120SOL    HW269291  10.282   6.106   5.897 -0.2802  0.0806 -0.4092
53121SOL     OW69292   7.773   9.710   5.901  0.4388  0.4159 -0.2814
53121SOL    HW169293   7.808   9.660   5.974  1.4666  1.5918  0.0734
53121SOL    HW269294   7.811   9.669   5.823  1.8309  1.0277  0.0455
53122SOL     OW69295   9.952   4.515   2.835 -0.1817  0.0471  0.3229
53122SOL    HW169296   9.883   4.451   2.852  0.2204 -0.2894  0.7246
53122SOL    HW269297  10.023   4.490   2.894  1.5674 -1.6009 -2.2543
53123SOL     OW69298   4.792  12.742   0.804  0.1943  0.2678 -0.9694
53123SOL    HW169299   4.781  12.835   0.824  2.4852  0.2959  0.6356
53123SOL    HW269300   4.860  12.739   0.737 -0.1649 -0.2286 -1.3176
53124SOL     OW69301   6.693  10.258   9.846  0.6049  0.1732  0.2552
53124SOL    HW169302   6.646  10.249   9.764 -1.8907  1.0496  1.5009
53124SOL    HW269303   6.655  10.336   9.888 -1.6949 -2.7230  4.2993
53125SOL     OW69304   5.627   6.882   2.655 -0.6386  0.4476 -0.0853
53125SOL    HW169305   5.658   6.813   2.713  0.0545 -0.4455 -1.4822
53125SOL    HW269306   5.533   6.864   2.645 -0.6487  0.2790  0.2847
53126SOL     OW69307   3.985   4.448   4.140  0.1376 -0.2495 -0.2737
53126SOL    HW169308   3.948   4.480   4.222 -1.7093  0.0505 -1.1772
53126SOL    HW269309   3.969   4.353   4.142 -0.8005 -0.1078 -0.7033
53127SOL     OW69310   4.036   8.557   5.977  0.0042 -1.1550  0.1500
53127SOL    HW169311   3.969   8.623   5.965 -0.4464 -1.5602  0.3949
53127SOL    HW269312   4.026   8.498   5.902  2.4975  0.7698 -1.9086
53128SOL     OW69313   4.323  11.220   8.097  0.8682 -0.1472 -0.1812
53128SOL    HW169314   4.309  11.146   8.038  0.3346 -0.2916  0.1146
53128SOL    HW269315   4.263  11.203   8.170  0.1274  0.9994 -0.4992
53129SOL     OW69316   9.253   1.590   8.378  0.6487 -0.3452 -0.0735
53129SOL    HW169317   9.228   1.660   8.317 -0.2461  0.5995  1.2968
53129SOL    HW269318   9.170   1.562   8.418  1.2636 -0.4205  1.2081
53130SOL     OW69319   7.214   8.105   7.395 -0.3911 -0.4098  0.2716
53130SOL    HW169320   7.268   8.080   7.321  0.6951  3.1744 -0.3680
53130SOL    HW269321   7.126   8.074   7.373 -0.0496  0.3342 -2.4655
53131SOL     OW69322   9.601   1.051  12.112 -0.0067 -0.1528 -0.2844
53131SOL    HW169323   9.668   1.113  12.082 -0.3368 -0.0265 -0.7682
53131SOL    HW269324   9.628   0.967  12.074 -1.5210  0.3728 -2.7020
53132SOL     OW69325  12.373   3.462   6.405 -0.2220  0.0712  0.5772
53132SOL    HW169326  12.358   3.423   6.319  2.7260  2.1186 -1.0467
53132SOL    HW269327  12.452   3.419   6.438  0.9804  1.9804  0.3778
53133SOL     OW69328   9.068   6.036   2.299 -0.0574  0.0498 -0.1555
53133SOL    HW169329   8.985   5.993   2.280 -0.3551 -0.1209  1.3861
53133SOL    HW269330   9.123   5.967   2.337  0.5806  0.3079 -0.5835
53134SOL     OW69331  11.558   1.958   8.391  0.1106 -0.4559  0.1793
53134SOL    HW169332  11.584   1.940   8.300  0.9309  2.8520 -0.3569
53134SOL    HW269333  11.581   2.050   8.405 -1.0100 -0.5499  3.4230
53135SOL     OW69334   9.021  12.118   7.170  0.0085  0.4000 -0.0229
53135SOL    HW169335   8.938  12.164   7.185  0.3764  1.1631 -0.2537
53135SOL    HW269336   9.009  12.074   7.086 -0.5240 -0.3525  0.4333
53136SOL     OW69337  12.591  11.124   7.449 -0.7917 -0.5748 -0.0845
53136SOL    HW169338  12.558  11.093   7.533 -2.6038  1.6729  0.1309
53136SOL    HW269339  12.598  11.045   7.395 -1.7765 -1.7716  1.4540
53137SOL     OW69340   9.814   9.005  13.030  0.5408 -0.1243 -0.1929
53137SOL    HW169341   9.783   8.919  13.060 -0.7768  0.6064  0.6526
53137SOL    HW269342   9.802   9.003  12.935 -0.8653 -0.3807 -0.0366
53138SOL     OW69343   7.373   9.333   3.121 -0.1585  0.4728  0.6645
53138SOL    HW169344   7.285   9.319   3.156  0.6726 -2.3395  1.9180
53138SOL    HW269345   7.398   9.420   3.152 -1.5115  0.2352  2.5753
53139SOL     OW69346   1.003   2.240   3.402 -0.3642 -0.6931 -0.0639
53139SOL    HW169347   1.012   2.145   3.403  0.7691 -0.6016  1.4332
53139SOL    HW269348   1.009   2.267   3.494 -3.3319  0.6367 -0.1493
53140SOL     OW69349   0.378   2.274  12.728  0.0082 -0.0977  0.0555
53140SOL    HW169350   0.339   2.362  12.724 -0.7122 -0.1555  3.1821
53140SOL    HW269351   0.304   2.215  12.740  0.6807 -0.6388  2.0108
53141SOL     OW69352  12.590   3.418   6.013 -0.3042 -0.4583  0.3849
53141SOL    HW169353  12.650   3.415   6.088 -0.5355 -1.2250  0.5461
53141SOL    HW269354  12.615   3.343   5.959 -0.4380 -0.1734 -0.0820
53142SOL     OW69355   0.286  11.225   7.275 -0.8619  0.3692  0.2583
53142SOL    HW169356   0.278  11.295   7.340 -3.5176  1.6144 -1.2393
53142SOL    HW269357   0.378  11.228   7.249  0.4466 -0.4726  4.1038
53143SOL     OW69358   3.733   8.099   0.125  0.5058  0.3239 -0.3008
53143SOL    HW169359   3.770   8.185   0.147  0.4371  0.4799 -0.7675
53143SOL    HW269360   3.639   8.116   0.115  0.4205  0.0904  0.1082
53144SOL     OW69361   3.140   0.130   8.705  0.1442 -0.2643 -0.4244
53144SOL    HW169362   3.206   0.062   8.720 -0.5915 -0.9422 -0.2336
53144SOL    HW269363   3.092   0.135   8.787  2.3939  2.9895  0.8958
53145SOL     OW69364   4.446   3.116   0.219  0.0590  0.4075 -0.5684
53145SOL    HW169365   4.467   3.154   0.304 -1.2489  0.4818 -0.2479
53145SOL    HW269366   4.517   3.055   0.200  1.7998  2.3639 -0.7042
53146SOL     OW69367   6.354   9.062   0.354  0.2229  0.0621  0.3086
53146SOL    HW169368   6.332   9.105   0.271 -0.5453  1.2687  1.0945
53146SOL    HW269369   6.417   9.121   0.395 -1.4083  0.8957  1.7457
53147SOL     OW69370   6.996  10.507  10.962 -0.0758 -0.6538 -0.7557
53147SOL    HW169371   6.945  10.563  11.020  1.6222 -0.4395  0.6339
53147SOL    HW269372   7.020  10.564  10.888  0.7549  0.1842  0.1277
53148SOL     OW69373  12.973   8.343  11.834 -0.2544 -0.3217 -0.5041
53148SOL    HW169374  12.999   8.412  11.895 -1.1086 -1.1317  0.8263
53148SOL    HW269375  12.885   8.369  11.805 -0.2507 -0.4486 -0.6300
53149SOL     OW69376   4.944  12.081   4.251  0.4802  0.7984 -0.4427
53149SOL    HW169377   4.901  12.123   4.177 -0.0071 -0.0848 -0.6783
53149SOL    HW269378   5.037  12.079   4.227  0.4065  1.0687 -0.7517
53150SOL     OW69379   5.356  10.983   0.966  0.0946  0.4576 -0.0183
53150SOL    HW169380   5.316  11.022   0.889 -0.0830  0.8209  0.2557
53150SOL    HW269381   5.337  10.889   0.958  1.6401  0.2106 -1.3481
53151SOL     OW69382   1.422   5.368   1.969 -0.6266 -0.4797 -0.3783
53151SOL    HW169383   1.394   5.289   1.922 -2.8995  0.0701 -0.0722
53151SOL    HW269384   1.379   5.362   2.054  0.7895  0.1495  0.4184
53152SOL     OW69385   2.639   8.969  12.519  0.2126  0.0953  0.4523
53152SOL    HW169386   2.705   8.905  12.547 -0.2784 -0.5381  0.1937
53152SOL    HW269387   2.562   8.948  12.572 -0.1697  0.0301 -0.1253
53153SOL     OW69388   9.479   7.384   2.785  0.0055  0.1575 -0.1881
53153SOL    HW169389   9.540   7.454   2.760 -1.6380  1.9272  0.5125
53153SOL    HW269390   9.498   7.366   2.877 -1.1577  1.4631  0.3404
53154SOL     OW69391   3.595   2.303   3.502  0.1834  0.4826  0.6305
53154SOL    HW169392   3.620   2.262   3.585 -1.4090 -1.2543  0.3284
53154SOL    HW269393   3.677   2.326   3.460  1.1477 -1.5090  1.3066
53155SOL     OW69394  11.603   9.681   7.169 -0.5099  0.1866  0.0130
53155SOL    HW169395  11.678   9.724   7.128 -1.1270  2.1112  0.7942
53155SOL    HW269396  11.619   9.690   7.263 -0.8361 -1.0155  0.1932
53156SOL     OW69397  11.098  12.440   7.486  0.2911 -0.2403  0.1180
53156SOL    HW169398  11.005  12.432   7.505 -0.3163 -1.1058 -2.6980
53156SOL    HW269399  11.117  12.534   7.493 -0.7998 -0.0527  0.6565
53157SOL     OW69400   2.547  11.074   7.508 -0.6145 -0.1089 -0.2134
53157SOL    HW169401   2.576  11.106   7.593 -0.5311 -2.9536  0.9315
53157SOL    HW269402   2.474  11.132   7.484  0.5363  1.8923  0.8590
53158SOL     OW69403   5.751   0.894   2.371 -0.6571  0.4218  0.1119
53158SOL    HW169404   5.758   0.935   2.285 -0.8346 -0.5463 -0.3783
53158SOL    HW269405   5.659   0.903   2.395 -0.9811 -0.7968 -0.5819
53159SOL     OW69406   5.442   0.489   7.897 -0.2014  0.2955  0.2221
53159SOL    HW169407   5.402   0.566   7.857 -0.4732 -0.3164 -0.7114
53159SOL    HW269408   5.437   0.506   7.991 -3.1459  0.0533  0.2121
53160SOL     OW69409   3.151  12.343   0.981  0.2894  0.6796 -0.8064
53160SOL    HW169410   3.119  12.298   0.903  3.9888  2.3566 -3.6135
53160SOL    HW269411   3.138  12.436   0.963  1.4156  1.1324  0.4585
53161SOL     OW69412   8.345  12.762   2.898 -0.1221  0.1868  0.3467
53161SOL    HW169413   8.278  12.813   2.854 -1.4333 -0.9633  0.9122
53161SOL    HW269414   8.428  12.805   2.876 -1.1484  2.4792  0.7831
53162SOL     OW69415  12.019   1.197   8.370  0.0384  0.1435 -0.2482
53162SOL    HW169416  11.925   1.196   8.349  0.3507 -0.6414 -1.7216
53162SOL    HW269417  12.040   1.106   8.392  0.4289  0.3509  0.2686
53163SOL     OW69418   6.380  10.267   3.795  0.0969 -0.1439  0.1326
53163SOL    HW169419   6.347  10.181   3.768  2.0969 -0.4687 -1.5584
53163SOL    HW269420   6.361  10.272   3.888 -0.8639 -2.0406  0.0867
53164SOL     OW69421   8.990   8.953   9.142 -0.2013  0.4223 -0.0154
53164SOL    HW169422   8.970   9.001   9.061 -1.7811 -0.8730 -0.4408
53164SOL    HW269423   8.994   9.021   9.209 -0.2854  1.3834 -0.9442
53165SOL     OW69424  13.146   2.417  12.706  0.2972 -0.3560  0.1055
53165SOL    HW169425  13.175   2.406  12.615  1.1240 -0.7766  0.4079
53165SOL    HW269426  13.050   2.423  12.700  0.3651 -0.0379 -0.8212
53166SOL     OW69427   8.346  11.552   6.393  0.5050 -0.1886  0.5422
53166SOL    HW169428   8.302  11.636   6.384  0.4727 -0.4035 -2.2075
53166SOL    HW269429   8.378  11.533   6.305  0.4696 -3.0900  1.0724
53167SOL     OW69430   7.809  11.424  11.668 -0.2048  0.1989 -0.1178
53167SOL    HW169431   7.894  11.432  11.712 -0.0735  0.7764 -0.4675
53167SOL    HW269432   7.747  11.409  11.739  0.2135 -0.4232  0.1254
53168SOL     OW69433   6.712  12.867   0.510  0.2536  0.8287 -0.6908
53168SOL    HW169434   6.630  12.885   0.464 -0.1468  1.8421  0.3761
53168SOL    HW269435   6.697  12.896   0.600 -0.0185 -3.6680  1.0002
53169SOL     OW69436   0.362  11.132   6.431  0.0173 -0.0653  0.4918
53169SOL    HW169437   0.299  11.132   6.503  1.5945 -0.3542  1.9380
53169SOL    HW269438   0.361  11.041   6.399 -1.6811  0.3637 -0.8335
53170SOL     OW69439   6.271   0.025   7.131  0.2551  0.3027  0.2429
53170SOL    HW169440   6.349  -0.012   7.090  0.1228  0.2801  0.0103
53170SOL    HW269441   6.292   0.027   7.225  0.0051 -1.0452  0.3525
53171SOL     OW69442   3.942  11.554   1.455 -0.1920 -0.5193 -0.0854
53171SOL    HW169443   3.902  11.621   1.510 -1.9360  0.1352 -2.0333
53171SOL    HW269444   3.873  11.489   1.442 -0.7195  0.5107 -3.3159
53172SOL     OW69445  12.124   2.696  11.922 -0.7458  0.5314 -0.1535
53172SOL    HW169446  12.216   2.721  11.934 -1.0358  0.9956  1.3771
53172SOL    HW269447  12.127   2.620  11.864  0.6738  0.0583  0.4950
53173SOL     OW69448  10.576   7.087   5.681 -0.2869 -0.2978  0.2273
53173SOL    HW169449  10.602   7.096   5.773 -1.3670  3.3812  0.3588
53173SOL    HW269450  10.511   7.156   5.668  1.9801  1.4566 -4.0241
53174SOL     OW69451   2.022   9.588   9.975  0.2360 -0.3832  0.5276
53174SOL    HW169452   1.956   9.654   9.998  1.6318  0.9471  0.9357
53174SOL    HW269453   2.040   9.544  10.058  0.5840 -0.0537  0.6277
53175SOL     OW69454   5.470   6.907   3.055  0.1987 -0.1991 -0.1881
53175SOL    HW169455   5.517   6.890   3.137  0.3646  0.7794 -0.0619
53175SOL    HW269456   5.540   6.920   2.991  0.1691  1.8536  0.1205
53176SOL     OW69457  11.257   3.187   4.065  0.2703  0.5686 -0.5457
53176SOL    HW169458  11.244   3.275   4.102  1.4362  0.0475  1.2166
53176SOL    HW269459  11.338   3.156   4.106 -0.7816 -1.8152 -0.1405
53177SOL     OW69460   3.479  10.418   2.439  0.4704 -0.2064 -0.4652
53177SOL    HW169461   3.470  10.345   2.501  0.5366  0.1670 -0.0103
53177SOL    HW269462   3.543  10.387   2.375  1.3228 -0.1339  0.3433
53178SOL     OW69463  11.291  10.956   3.696  0.2496 -0.2774 -0.0633
53178SOL    HW169464  11.264  10.927   3.609 -1.1470  0.6829  0.0120
53178SOL    HW269465  11.223  10.922   3.754 -0.8085  2.0301  0.1715
53179SOL     OW69466  11.472   3.036  10.897 -0.7912 -0.2945  0.0731
53179SOL    HW169467  11.532   3.086  10.953 -0.7234 -0.1780 -0.1023
53179SOL    HW269468  11.393   3.026  10.950 -2.8695  4.4555 -1.6256
53180SOL     OW69469   8.605   1.139   3.370  0.2356  0.4325  0.4781
53180SOL    HW169470   8.688   1.119   3.414  1.0887  0.1417 -1.1714
53180SOL    HW269471   8.542   1.150   3.442  1.3281 -0.9539  1.7280
53181SOL     OW69472   9.172  12.019   0.897  0.0026 -0.0295  0.0997
53181SOL    HW169473   9.130  12.008   0.812 -0.2509 -0.1648  0.2445
53181SOL    HW269474   9.160  11.935   0.941 -0.5946  0.3133  0.5976
53182SOL     OW69475  10.524   8.660   0.388  0.3894 -0.4062 -0.5105
53182SOL    HW169476  10.474   8.695   0.314 -1.8618 -1.0760  0.6041
53182SOL    HW269477  10.501   8.567   0.390 -1.0401 -0.0651  2.0667
53183SOL     OW69478   8.768   4.475   0.296 -0.3496 -0.2045 -0.0657
53183SOL    HW169479   8.834   4.446   0.359 -0.2616 -0.6107 -0.3415
53183SOL    HW269480   8.707   4.527   0.347 -0.8697 -1.4088  0.5796
53184SOL     OW69481   1.042   2.208   2.288  0.4769 -0.0552  0.1254
53184SOL    HW169482   1.101   2.147   2.245 -1.3908 -0.7223 -1.6731
53184SOL    HW269483   0.963   2.157   2.306 -0.0039  1.0691  1.3840
53185SOL     OW69484   9.140   5.868   3.386 -0.3839 -0.2003 -0.6814
53185SOL    HW169485   9.181   5.870   3.473 -0.6880  1.4356 -0.5317
53185SOL    HW269486   9.144   5.777   3.359 -1.3810 -0.9947  1.5914
53186SOL     OW69487   3.575   2.164   4.961  0.3273 -0.2558  0.2553
53186SOL    HW169488   3.520   2.187   5.035  0.8930  1.4881  0.1868
53186SOL    HW269489   3.535   2.209   4.886 -0.1603 -1.8816 -0.5035
53187SOL     OW69490   3.338   2.026  11.124 -0.4083  0.4920  0.0689
53187SOL    HW169491   3.384   1.942  11.129 -0.4365  0.4143 -0.7604
53187SOL    HW269492   3.394   2.087  11.172  0.0987  0.1957 -0.1318
53188SOL     OW69493   2.677   0.822  12.203  0.9176  0.1818  0.2927
53188SOL    HW169494   2.711   0.883  12.268  1.1173 -0.9322  1.2499
53188SOL    HW269495   2.754   0.794  12.154  0.9487  0.0154  0.4373
53189SOL     OW69496   1.843   3.555   8.585  0.0237  0.2648  0.0453
53189SOL    HW169497   1.938   3.544   8.588 -0.2148 -1.9209  1.4265
53189SOL    HW269498   1.816   3.561   8.677 -1.2422  0.2184 -0.3040
53190SOL     OW69499  12.283   5.785   5.171  0.3714 -0.4248 -0.1690
53190SOL    HW169500  12.267   5.813   5.081 -0.5338 -0.0252  0.1003
53190SOL    HW269501  12.378   5.777   5.178  0.3774 -3.5550 -2.0722
53191SOL     OW69502   4.932   0.220   5.400 -0.0973  0.0298 -0.1179
53191SOL    HW169503   4.956   0.293   5.343  1.9770 -0.1671  0.4072
53191SOL    HW269504   4.923   0.259   5.487  0.6607 -0.2417  0.0974
53192SOL     OW69505   1.973   9.608   5.872 -0.3535 -0.2314 -0.1169
53192SOL    HW169506   1.959   9.659   5.953 -0.7645 -0.7928  0.1723
53192SOL    HW269507   1.948   9.668   5.802 -1.9213 -0.3714  0.2735
53193SOL     OW69508   8.750   8.805   2.120  0.5667  0.7522  0.6565
53193SOL    HW169509   8.737   8.899   2.128 -2.3698  0.4889  0.0749
53193SOL    HW269510   8.741   8.787   2.026  2.0460 -0.0476  0.6274
53194SOL     OW69511  10.279  11.897  12.705  0.3793 -1.0759  0.0142
53194SOL    HW169512  10.289  11.878  12.798  0.7457  0.6391  0.3601
53194SOL    HW269513  10.307  11.988  12.696 -1.9224 -0.4228 -1.3686
53195SOL     OW69514   7.740   5.491  12.547  0.1727  0.4589  0.2148
53195SOL    HW169515   7.768   5.582  12.535 -1.3440  0.8812 -0.2695
53195SOL    HW269516   7.675   5.477  12.479  0.5349 -1.0775  0.1501
53196SOL     OW69517   3.005  12.382   4.149 -0.1027  0.0491 -0.2512
53196SOL    HW169518   2.956  12.305   4.121  0.9574 -0.0466 -2.0072
53196SOL    HW269519   3.051  12.411   4.071  1.1447  1.2531  0.8662
53197SOL     OW69520   8.836  13.111   1.672 -0.5556 -0.1093 -0.5830
53197SOL    HW169521   8.746  13.089   1.646 -0.7710  0.2578 -0.1477
53197SOL    HW269522   8.875  13.027   1.696 -1.1134 -0.1421  0.2465
53198SOL     OW69523   6.772   0.215   9.820  0.6781  0.1431 -0.0498
53198SOL    HW169524   6.768   0.131   9.773 -3.4810  0.1257 -0.0563
53198SOL    HW269525   6.734   0.278   9.759  0.5212  1.2932  1.2098
53199SOL     OW69526   7.684   0.428   9.494  0.6012  0.3480  0.2000
53199SOL    HW169527   7.602   0.390   9.525  1.5820  0.3330  3.0300
53199SOL    HW269528   7.698   0.386   9.409 -1.6953 -0.5466  0.1690
53200SOL     OW69529   1.050  12.020   1.214 -0.0075 -0.1869 -0.3427
53200SOL    HW169530   1.000  12.067   1.147 -1.1779  0.3967  0.9064
53200SOL    HW269531   1.101  11.956   1.164  0.3905  1.2867 -1.9365
53201SOL     OW69532   2.261  10.583   3.050  0.4325 -0.0157 -0.2917
53201SOL    HW169533   2.282  10.533   3.129 -0.3676 -0.3576 -0.2877
53201SOL    HW269534   2.256  10.518   2.981 -2.4388 -0.2615  0.0359
53202SOL     OW69535  13.164   1.933   7.250 -0.3422 -0.4511 -0.3294
53202SOL    HW169536  13.179   1.871   7.179  0.5319  1.3133 -1.7601
53202SOL    HW269537  13.087   1.983   7.222 -0.9510 -0.7549  0.7406
53203SOL     OW69538   8.358  12.788   5.928 -0.2132  0.6213  0.6275
53203SOL    HW169539   8.438  12.746   5.895 -0.3917 -0.0308  0.9963
53203SOL    HW269540   8.287  12.734   5.892 -0.4802  1.0570  0.4962
53204SOL     OW69541  12.691   1.202   7.241  0.2430 -0.2158 -0.1637
53204SOL    HW169542  12.716   1.209   7.149  0.7636  4.2598  0.1040
53204SOL    HW269543  12.772   1.220   7.290 -0.3725 -0.8289  1.1473
53205SOL     OW69544   2.748   7.872   3.831 -0.2928 -0.2433  0.4980
53205SOL    HW169545   2.703   7.834   3.755 -2.3275  2.5930  0.1006
53205SOL    HW269546   2.819   7.924   3.793 -0.5481  0.1930  0.6070
53206SOL     OW69547   7.547  11.106   5.315  0.4946  0.1955  0.2639
53206SOL    HW169548   7.517  11.070   5.231 -1.5762  1.9427  0.1860
53206SOL    HW269549   7.467  11.131   5.360  1.5854 -0.3904  2.6782
53207SOL     OW69550  12.960   0.321   3.974 -0.2550  0.5624 -0.4101
53207SOL    HW169551  12.910   0.240   3.967  1.5816 -0.8905  1.7272
53207SOL    HW269552  13.050   0.296   3.954  0.7766  1.4222  2.5354
53208SOL     OW69553   4.088  11.510  11.537 -0.1953  0.1925  0.2673
53208SOL    HW169554   4.004  11.492  11.496 -1.2782  3.0849  1.0297
53208SOL    HW269555   4.106  11.432  11.589 -0.5636 -2.0058 -2.6276
53209SOL     OW69556   3.988   2.691   5.583 -0.1948 -0.1066 -0.7512
53209SOL    HW169557   3.964   2.773   5.626  1.6550 -0.2476  0.6625
53209SOL    HW269558   3.913   2.633   5.599  0.0857  0.0958  1.7058
53210SOL     OW69559  10.543  13.187  10.415 -0.5404 -0.5117  0.8635
53210SOL    HW169560  10.617  13.195  10.355 -0.7298 -2.2588  0.3368
53210SOL    HW269561  10.558  13.255  10.481  0.5432  0.3659 -0.2497
53211SOL     OW69562   4.593   1.902   7.310  0.0496 -0.2190  0.6178
53211SOL    HW169563   4.579   1.953   7.230  0.1152  1.3807  1.5773
53211SOL    HW269564   4.662   1.949   7.357  0.8559 -1.7867  1.0919
53212SOL     OW69565   5.271  12.229   3.711 -0.4160 -0.0293 -0.3402
53212SOL    HW169566   5.344  12.207   3.653  0.3755  1.4271  0.0748
53212SOL    HW269567   5.193  12.210   3.659  0.2661  1.3445 -1.9414
53213SOL     OW69568   0.598  11.107   1.138 -0.2970 -0.0706 -0.1912
53213SOL    HW169569   0.558  11.154   1.211 -2.7985 -2.7475  0.3646
53213SOL    HW269570   0.669  11.056   1.178  1.0081  1.4877 -0.4273
53214SOL     OW69571  11.967   8.021  11.885 -0.0882 -0.3576 -0.1006
53214SOL    HW169572  11.911   8.091  11.852 -1.2283 -0.9130  0.5812
53214SOL    HW269573  12.055   8.047  11.861 -0.4836  1.3563  0.2064
53215SOL     OW69574   7.592   0.131   6.571  0.3789  0.2809  0.2753
53215SOL    HW169575   7.518   0.104   6.516  0.6659  0.6891 -0.3264
53215SOL    HW269576   7.666   0.079   6.541  0.6516  0.8588 -0.0635
53216SOL     OW69577   9.815   3.490  11.520 -0.3235 -0.4123 -0.5124
53216SOL    HW169578   9.793   3.434  11.594  1.6917  0.8950  1.1860
53216SOL    HW269579   9.760   3.568  11.532  0.7931  0.2785  0.3026
53217SOL     OW69580   4.442   5.660   5.785 -0.4722 -0.2680 -0.6181
53217SOL    HW169581   4.364   5.641   5.733 -0.7703 -0.9560  0.0517
53217SOL    HW269582   4.454   5.581   5.838  1.2706 -0.5940 -1.4252
53218SOL     OW69583   0.704   5.761  11.777 -0.1471  0.1411 -0.2395
53218SOL    HW169584   0.745   5.819  11.841  0.5231 -2.5328  1.9259
53218SOL    HW269585   0.610   5.770  11.795 -0.0492  0.5514  0.0936
53219SOL     OW69586  10.435   4.332   4.851  0.1348 -0.0697  0.0171
53219SOL    HW169587  10.354   4.381   4.835 -0.9567 -1.9788 -0.7197
53219SOL    HW269588  10.470   4.314   4.763 -0.3683 -1.9147  0.1565
53220SOL     OW69589  12.496   8.844   5.881  0.1705 -0.1640  0.4561
53220SOL    HW169590  12.567   8.786   5.853 -0.8414 -1.2853  0.0721
53220SOL    HW269591  12.466   8.886   5.800  0.1298 -0.0266  0.5430
53221SOL     OW69592   2.030   0.486   9.515 -0.7057  0.2029 -0.3582
53221SOL    HW169593   1.941   0.520   9.528 -0.7610 -0.3187  0.7812
53221SOL    HW269594   2.079   0.559   9.477 -1.8490  0.1970 -1.9371
53222SOL     OW69595   0.047   4.553   3.048 -0.1219  0.0600  0.5072
53222SOL    HW169596   0.032   4.575   3.140  0.0890 -2.3775  1.1855
53222SOL    HW269597   0.135   4.514   3.047 -0.0697  0.1832 -0.7565
53223SOL     OW69598  11.061  10.253  10.391  0.0921  0.6195 -0.5982
53223SOL    HW169599  10.966  10.250  10.390  0.0969  0.4222 -0.9505
53223SOL    HW269600  11.083  10.346  10.383 -0.0809  0.5388 -2.8465
53224SOL     OW69601   1.181   1.555  12.659 -0.4089  0.1116 -0.0603
53224SOL    HW169602   1.246   1.487  12.638  1.5380  1.5801  0.8946
53224SOL    HW269603   1.190   1.568  12.753 -3.1652 -0.5978  0.3946
53225SOL     OW69604   5.194   0.229   9.223 -0.7450 -0.1294 -0.0735
53225SOL    HW169605   5.158   0.311   9.189  0.3558 -0.1313 -1.3364
53225SOL    HW269606   5.288   0.234   9.204 -0.5383 -1.3571  0.5153
53226SOL     OW69607   3.424   4.090   2.585  0.7591 -0.4324  0.7810
53226SOL    HW169608   3.390   4.036   2.657 -0.6124 -1.4489 -0.5697
53226SOL    HW269609   3.355   4.088   2.519  1.0804  2.2082  0.2443
53227SOL     OW69610   4.917   2.034  11.832  0.2317  0.2526 -0.6510
53227SOL    HW169611   4.862   2.112  11.842  0.3110  0.2197  0.0899
53227SOL    HW269612   4.994   2.066  11.784  0.8068  0.9062  0.6694
53228SOL     OW69613   5.027   8.259   8.645 -0.1562 -0.0805  0.0579
53228SOL    HW169614   5.079   8.335   8.672  0.6999  0.1823 -2.1333
53228SOL    HW269615   5.047   8.192   8.711 -0.6305  1.4255  1.8136
53229SOL     OW69616   0.700  12.703   8.158 -0.6086  0.4016 -0.1440
53229SOL    HW169617   0.605  12.689   8.153 -0.5422 -0.4743  0.6559
53229SOL    HW269618   0.732  12.628   8.208  0.4866  0.7943 -0.2361
53230SOL     OW69619   4.537   6.853   3.178  0.1352 -0.0022  0.0239
53230SOL    HW169620   4.565   6.936   3.140  1.0967 -0.9283 -1.4007
53230SOL    HW269621   4.496   6.877   3.261  1.0430  1.8240 -0.0084
53231SOL     OW69622   4.636   0.946   4.231  0.0853 -0.1991  0.2912
53231SOL    HW169623   4.542   0.965   4.228 -0.4138 -2.1443  1.4539
53231SOL    HW269624   4.674   1.002   4.164 -2.1587 -0.6782 -1.5201
53232SOL     OW69625   5.189   7.985   0.829 -0.1597  0.4280  0.5213
53232SOL    HW169626   5.208   8.046   0.758 -0.7242  1.3571  1.1460
53232SOL    HW269627   5.152   8.040   0.899 -0.6071 -0.6140  1.1312
53233SOL     OW69628   9.093  12.077  10.644 -0.3278  0.1994  0.0266
53233SOL    HW169629   9.051  12.032  10.570  0.5179  1.9159 -1.5845
53233SOL    HW269630   9.044  12.047  10.721 -2.8465  0.1563 -1.4607
53234SOL     OW69631   1.909   0.228  11.673 -0.4381  0.1710 -0.4229
53234SOL    HW169632   1.841   0.178  11.718 -0.6132 -0.5051 -1.4100
53234SOL    HW269633   1.878   0.319  11.677 -0.2243  0.1972  1.1821
53235SOL     OW69634   4.914   1.792   7.598  0.4295  0.2406  0.0270
53235SOL    HW169635   4.866   1.867   7.562  0.7614  0.1897 -0.5446
53235SOL    HW269636   4.898   1.796   7.692  2.3250  2.4372  0.3629
53236SOL     OW69637   4.304   1.475   0.389 -0.0529 -0.0782  0.6505
53236SOL    HW169638   4.305   1.514   0.301  0.7495 -0.7514  0.3490
53236SOL    HW269639   4.396   1.452   0.406 -0.2454 -0.2273  1.5494
53237SOL     OW69640   5.910   2.872   3.230 -0.2161 -0.0667 -0.0009
53237SOL    HW169641   5.823   2.907   3.211  0.7252  1.9033 -0.9987
53237SOL    HW269642   5.951   2.940   3.283  1.6694  0.4182 -1.9413
53238SOL     OW69643   4.514  12.196   1.527 -0.1517  0.0352 -0.1675
53238SOL    HW169644   4.518  12.205   1.432 -0.4958  1.8312 -0.0423
53238SOL    HW269645   4.426  12.225   1.551 -0.6807 -1.9778  0.5953
53239SOL     OW69646  10.075  10.680   8.059  0.5132 -0.1841  0.1286
53239SOL    HW169647   9.989  10.709   8.088 -0.5434 -0.7785 -2.2022
53239SOL    HW269648  10.075  10.585   8.076 -0.0582 -0.5115 -1.5104
53240SOL     OW69649   5.413   3.321  10.936 -0.4215 -0.0813  0.3630
53240SOL    HW169650   5.440   3.246  10.989 -1.3065 -1.1761 -0.6747
53240SOL    HW269651   5.405   3.286  10.847 -0.1410  1.4230 -0.2869
53241SOL     OW69652  11.721   7.196   4.776 -0.3100  0.2180 -0.1975
53241SOL    HW169653  11.686   7.285   4.768  0.6362  0.5803 -0.4699
53241SOL    HW269654  11.757   7.192   4.865 -1.8085 -0.4517  0.4073
53242SOL     OW69655   8.869   1.095   8.757 -0.5399  0.5412 -0.4465
53242SOL    HW169656   8.878   1.102   8.852 -0.6135 -1.3805 -0.2580
53242SOL    HW269657   8.947   1.046   8.730 -1.3546 -0.3904 -1.1519
53243SOL     OW69658   3.239  11.674   4.075 -0.6923 -0.3260 -0.3190
53243SOL    HW169659   3.153  11.644   4.046 -2.1734  0.5516  2.7460
53243SOL    HW269660   3.261  11.618   4.149  0.4685  0.7216  0.1747
53244SOL     OW69661   1.493  11.679   0.928 -0.0268  0.0312 -0.3290
53244SOL    HW169662   1.399  11.696   0.932  0.2415  1.9046 -0.9060
53244SOL    HW269663   1.517  11.654   1.017 -1.2323 -1.6334 -0.4197
53245SOL     OW69664   8.835   7.780  11.356  0.4391  0.1430 -0.1206
53245SOL    HW169665   8.773   7.813  11.421 -0.7542 -1.5870 -0.2965
53245SOL    HW269666   8.847   7.852  11.295 -0.9617  0.7274  0.2554
53246SOL     OW69667  10.621  10.179  12.647  0.1714 -1.1440 -0.3109
53246SOL    HW169668  10.690  10.118  12.671  0.2535 -1.0933 -0.4123
53246SOL    HW269669  10.566  10.186  12.725 -0.2751 -1.9337 -0.5373
53247SOL     OW69670   6.712  12.498   8.442 -0.1930 -0.5155  0.0081
53247SOL    HW169671   6.684  12.539   8.360 -0.5448  0.7298  0.7359
53247SOL    HW269672   6.800  12.464   8.423 -1.1093 -2.2097 -1.5298
53248SOL     OW69673  11.897  12.144  10.782 -0.6554  0.1683 -0.6949
53248SOL    HW169674  11.828  12.206  10.807  0.7041  1.4497  0.0254
53248SOL    HW269675  11.891  12.074  10.847 -1.1654  0.3500 -0.5398
53249SOL     OW69676  12.339   2.905   6.455 -0.5414 -0.2650 -0.2912
53249SOL    HW169677  12.360   2.975   6.393  0.2380  1.6419  1.9835
53249SOL    HW269678  12.408   2.839   6.441 -0.7676 -0.2075 -1.8567
53250SOL     OW69679  12.392   8.011   3.963  0.2712 -0.0007 -0.0792
53250SOL    HW169680  12.394   8.050   4.050  0.2956 -2.1653  0.9446
53250SOL    HW269681  12.480   7.975   3.951  0.4961  0.8982 -1.3281
53251SOL     OW69682   5.924  11.809   3.760 -0.2649  0.2144 -0.0918
53251SOL    HW169683   5.900  11.779   3.673 -1.6015  1.0186 -0.0384
53251SOL    HW269684   5.945  11.902   3.748  1.8139 -0.2033  0.0715
53252SOL     OW69685   1.103  12.675   4.244 -0.1932 -0.4221 -0.5343
53252SOL    HW169686   1.124  12.769   4.243 -1.0628 -0.1968  0.3582
53252SOL    HW269687   1.065  12.658   4.158  0.7490 -0.1612 -1.0237
53253SOL     OW69688   6.957   0.621  11.590  0.0457  0.0244  0.0256
53253SOL    HW169689   6.974   0.565  11.514  1.6974  0.3617  0.0955
53253SOL    HW269690   6.864   0.610  11.608  0.4156 -3.2425  0.4822
53254SOL     OW69691  10.358  10.952   1.223  0.2493  0.2632 -0.1679
53254SOL    HW169692  10.442  10.916   1.250  0.2049  0.0188 -0.3439
53254SOL    HW269693  10.323  10.994   1.301  0.0446 -0.5802  0.2041
53255SOL     OW69694   8.272   0.584   1.320  0.0721 -0.0494 -0.4218
53255SOL    HW169695   8.300   0.500   1.356 -1.4359 -0.7337 -0.7727
53255SOL    HW269696   8.192   0.564   1.272 -0.4597  1.6363 -0.2992
53256SOL     OW69697   7.621  11.656   6.446 -0.5570  0.0716  0.0153
53256SOL    HW169698   7.621  11.691   6.535 -1.2326 -0.6157  0.2890
53256SOL    HW269699   7.695  11.595   6.444 -1.9459 -1.7144  0.8435
53257SOL     OW69700   4.797   3.189   0.998 -0.2222 -0.9725 -0.0693
53257SOL    HW169701   4.813   3.250   1.071  1.6083 -1.3358 -0.1053
53257SOL    HW269702   4.881   3.145   0.986 -1.3085 -3.0138 -0.5153
53258SOL     OW69703   6.660  10.263   4.706 -0.3658  0.3194  0.4358
53258SOL    HW169704   6.566  10.274   4.693 -0.1890  0.6062 -0.6593
53258SOL    HW269705   6.698  10.345   4.675  0.4192 -0.6215 -1.1677
53259SOL     OW69706  10.636   7.630   5.074 -0.2053  0.3447  0.2131
53259SOL    HW169707  10.659   7.722   5.061  1.3252  0.1282  1.1694
53259SOL    HW269708  10.540   7.629   5.073 -0.2556  1.6059 -1.9574
53260SOL     OW69709  12.519   1.389   3.733  0.5148 -0.2597 -0.0743
53260SOL    HW169710  12.575   1.350   3.666  2.1520  0.4629  0.8247
53260SOL    HW269711  12.530   1.333   3.809  0.5758  0.3013  0.3325
53261SOL     OW69712   5.311   9.211  12.573  0.5166 -0.0956 -0.7219
53261SOL    HW169713   5.315   9.118  12.596 -0.5322 -0.0140 -0.1471
53261SOL    HW269714   5.299   9.211  12.478 -1.6456 -0.6549 -0.5144
53262SOL     OW69715   1.295   2.304   6.429 -0.0557  0.0915  0.3639
53262SOL    HW169716   1.254   2.217   6.430  2.0827 -0.9791  0.3937
53262SOL    HW269717   1.389   2.286   6.420  0.4729  2.4061  0.7118
53263SOL     OW69718  11.462   4.021  10.742  0.2166 -0.4353  0.7826
53263SOL    HW169719  11.524   4.017  10.815 -0.9200  1.9250  1.9933
53263SOL    HW269720  11.498   4.088  10.684  0.1265 -0.9474  0.1195
53264SOL     OW69721   3.861   3.688   7.463  0.2474 -0.0676 -0.3109
53264SOL    HW169722   3.880   3.774   7.425 -1.1638 -0.2916 -1.6311
53264SOL    HW269723   3.766   3.689   7.476  0.5314 -0.4022  2.3318
53265SOL     OW69724  11.768   7.179   5.853  0.7596  0.0612 -0.2288
53265SOL    HW169725  11.741   7.147   5.939  2.0508 -0.3761  0.0304
53265SOL    HW269726  11.747   7.272   5.854 -3.6534 -0.6848 -1.2141
53266SOL     OW69727   8.531   4.610   7.663 -0.4566 -0.2129 -0.1688
53266SOL    HW169728   8.574   4.527   7.643  2.3100  0.5124  2.0903
53266SOL    HW269729   8.552   4.667   7.588 -1.4289 -1.1788 -1.2050
53267SOL     OW69730   4.801   1.966   3.841  0.0974 -0.2294  0.5789
53267SOL    HW169731   4.867   2.017   3.794 -0.6847  0.4679  0.2192
53267SOL    HW269732   4.740   2.032   3.876 -0.9762 -0.9031  0.0314
53268SOL     OW69733   4.618   7.535   1.043 -0.4457  0.2568 -0.0137
53268SOL    HW169734   4.632   7.603   1.109  0.1075  0.4546 -0.3307
53268SOL    HW269735   4.594   7.583   0.964  1.3622  0.2095 -0.6415
53269SOL     OW69736   1.936   8.801  10.552 -0.2218 -0.3597 -0.6313
53269SOL    HW169737   1.897   8.748  10.622  0.2371  2.9785  2.4020
53269SOL    HW269738   2.011   8.749  10.522 -1.7195 -2.8855 -0.3505
53270SOL     OW69739   2.744   6.259   2.268 -0.0414  0.3094 -0.5066
53270SOL    HW169740   2.749   6.342   2.314  0.7719 -1.2505  2.4443
53270SOL    HW269741   2.831   6.247   2.230  0.2280  0.2660  0.1118
53271SOL     OW69742  13.007   0.229   0.969  0.6752  0.3924  0.6103
53271SOL    HW169743  13.055   0.312   0.971  0.9432  0.3118 -1.3332
53271SOL    HW269744  13.055   0.175   0.906 -1.1217 -0.2009 -0.3004
53272SOL     OW69745   5.142  10.085   0.842  0.6428  0.1298  0.0505
53272SOL    HW169746   5.067  10.086   0.783 -0.1921  1.3274  1.0660
53272SOL    HW269747   5.104  10.095   0.929  1.7960 -1.9737  0.8929
53273SOL     OW69748   2.329   6.619   3.830  0.0298  0.0715 -0.1549
53273SOL    HW169749   2.334   6.552   3.898  3.4180 -3.0590 -3.0481
53273SOL    HW269750   2.245   6.603   3.787 -0.6434 -0.1186  1.1781
53274SOL     OW69751   8.346   3.020   3.655  0.2041 -0.0099 -0.2834
53274SOL    HW169752   8.300   2.970   3.723  2.6038  0.0437  1.4933
53274SOL    HW269753   8.380   3.097   3.700  1.1405  0.4864 -1.7656
53275SOL     OW69754   7.731   5.666   1.516  0.3061 -0.2804 -0.1390
53275SOL    HW169755   7.704   5.734   1.454  0.1716 -0.1500  0.0611
53275SOL    HW269756   7.652   5.648   1.567 -0.5164 -2.7037 -2.1221
53276SOL     OW69757   0.930   4.562   9.848  0.0095 -0.1790  0.1962
53276SOL    HW169758   1.011   4.517   9.825  0.2899 -0.5606  1.8140
53276SOL    HW269759   0.959   4.636   9.902 -0.5488  1.1598 -1.2662
53277SOL     OW69760   6.254   9.128   7.525  0.0271  0.0101 -0.2029
53277SOL    HW169761   6.264   9.222   7.541  0.0793 -0.0769  0.2772
53277SOL    HW269762   6.319   9.109   7.457  0.4704  0.2008  0.1611
53278SOL     OW69763   1.908   7.299  12.818  0.0039 -0.4150  0.1851
53278SOL    HW169764   1.899   7.380  12.769  0.4247 -1.3976 -1.6245
53278SOL    HW269765   1.827   7.293  12.870 -1.7271 -0.5044 -2.3258
53279SOL     OW69766   4.122  10.776   9.357 -0.1037  0.1244  0.9601
53279SOL    HW169767   4.177  10.717   9.409 -2.7715 -1.9316  1.6614
53279SOL    HW269768   4.077  10.718   9.295  0.1676  2.0345 -1.1915
53280SOL     OW69769  11.280   8.887   5.019 -0.0912  0.0295 -0.0200
53280SOL    HW169770  11.279   8.870   5.113 -1.0545 -0.7082 -0.1368
53280SOL    HW269771  11.195   8.928   5.002  0.0161  0.0193 -0.5866
53281SOL     OW69772   6.394   6.582  11.439  0.2542  0.4729 -0.1021
53281SOL    HW169773   6.319   6.540  11.480 -0.0288  0.4317 -0.6556
53281SOL    HW269774   6.467   6.565  11.499  0.2734 -1.2629 -0.5585
53282SOL     OW69775   2.606   9.360   9.043 -0.1087  0.4685  0.4944
53282SOL    HW169776   2.639   9.343   9.131  1.5218 -2.0673 -0.4977
53282SOL    HW269777   2.539   9.293   9.028  1.2603 -0.6624 -0.9407
53283SOL     OW69778   5.404   7.843  11.380 -0.2098  0.1645  0.7292
53283SOL    HW169779   5.476   7.786  11.406  0.5488  0.5910 -0.3951
53283SOL    HW269780   5.325   7.793  11.401  0.4227 -0.8101  0.8261
53284SOL     OW69781  11.594   0.749   5.263 -0.4736  0.0144  0.3937
53284SOL    HW169782  11.606   0.740   5.357 -0.4540  0.2604  0.4167
53284SOL    HW269783  11.541   0.673   5.238 -1.8989  0.8076  0.8776
53285SOL     OW69784   7.138   1.426   4.421 -0.0156 -0.3158  0.2667
53285SOL    HW169785   7.060   1.466   4.459 -0.4277  0.2725 -1.1445
53285SOL    HW269786   7.180   1.497   4.371 -0.7922 -1.5707 -2.3378
53286SOL     OW69787   4.267   4.055  11.983 -0.3904  0.5158  0.1632
53286SOL    HW169788   4.183   4.012  11.970 -0.6453  1.2805 -0.8703
53286SOL    HW269789   4.267   4.127  11.920  0.7856  0.8999  0.5738
53287SOL     OW69790  10.435   9.425   7.817  0.7534 -0.1497  0.1687
53287SOL    HW169791  10.388   9.457   7.741  2.0208  0.3415 -0.4368
53287SOL    HW269792  10.440   9.501   7.876 -1.1288 -0.8038  1.2370
53288SOL     OW69793   1.755  10.776   5.523  0.4180 -0.1474  0.3439
53288SOL    HW169794   1.758  10.707   5.589  1.0712  1.4452  2.0482
53288SOL    HW269795   1.818  10.841   5.552  0.5447  0.7530 -1.7367
53289SOL     OW69796   2.470   2.915   4.366  1.1417  0.1646  0.0957
53289SOL    HW169797   2.457   2.832   4.319  1.3597  0.7420 -1.0206
53289SOL    HW269798   2.565   2.922   4.376  1.0603 -0.6207  1.9190
53290SOL     OW69799  10.886  11.023   5.769  0.2084 -0.5004 -0.2939
53290SOL    HW169800  10.867  11.095   5.710  1.0696  0.5741  0.6746
53290SOL    HW269801  10.978  11.001   5.752  0.1678 -0.8670 -0.0663
53291SOL     OW69802   0.314   1.773   3.977  0.3946  0.0422 -0.3625
53291SOL    HW169803   0.301   1.810   4.065  0.7468  1.4614 -0.8916
53291SOL    HW269804   0.389   1.821   3.941  0.8627 -1.1890 -1.0950
53292SOL     OW69805   2.245   4.074  11.404  0.4025  0.2233 -0.3319
53292SOL    HW169806   2.290   4.153  11.435  1.2785 -0.4700  0.2272
53292SOL    HW269807   2.257   4.010  11.475 -0.4780 -0.3457 -0.6785
53293SOL     OW69808   0.243   5.525   1.704  0.1503 -0.1798 -0.2271
53293SOL    HW169809   0.279   5.610   1.733  1.2413 -0.4465 -0.7154
53293SOL    HW269810   0.267   5.521   1.611 -1.8664 -0.0482 -0.7918
53294SOL     OW69811  10.167   6.982  10.671 -0.8759 -0.0489  0.2771
53294SOL    HW169812  10.144   6.921  10.741 -1.1922  0.0901  0.2947
53294SOL    HW269813  10.161   7.068  10.712 -0.1152 -0.0207  0.3399
53295SOL     OW69814   8.533   7.925   5.425 -0.3911  0.0628 -0.2033
53295SOL    HW169815   8.442   7.945   5.446 -0.3620 -0.3609  0.3350
53295SOL    HW269816   8.533   7.832   5.405 -0.4835  0.4851 -2.4965
53296SOL     OW69817  11.416   9.110  11.579 -0.0192  0.1485 -0.4040
53296SOL    HW169818  11.502   9.105  11.621 -0.6245  0.2685  0.9232
53296SOL    HW269819  11.379   9.022  11.589 -0.1394  0.1560 -0.7638
53297SOL     OW69820   6.964  11.403   6.399 -0.0461  1.3851  0.4717
53297SOL    HW169821   6.890  11.451   6.437 -0.8219  1.5347 -1.1308
53297SOL    HW269822   6.983  11.450   6.318 -1.2953 -1.3566 -1.5554
53298SOL     OW69823   3.144   6.510   5.499 -0.1953 -0.1435  0.3147
53298SOL    HW169824   3.228   6.549   5.473 -0.4696 -0.0227 -0.4039
53298SOL    HW269825   3.158   6.483   5.590  0.2307  0.9854  0.6063
53299SOL     OW69826   4.175   4.910   9.154 -0.5316 -0.2280  0.2823
53299SOL    HW169827   4.185   4.835   9.096 -1.3187  0.6265 -1.0035
53299SOL    HW269828   4.086   4.901   9.190 -1.8337  1.5912 -2.1962
53300SOL     OW69829  12.062   8.037   7.337  0.3249  0.1900  0.3326
53300SOL    HW169830  12.007   7.963   7.362  1.2628 -0.7923 -0.3819
53300SOL    HW269831  12.097   8.012   7.252  1.1624  1.1820  0.3730
53301SOL     OW69832  13.257   7.348  12.557 -0.6572  0.2918  0.2529
53301SOL    HW169833  13.212   7.298  12.489  1.2133 -2.5617  0.9470
53301SOL    HW269834  13.257   7.290  12.633  0.2631  2.0212  1.6421
53302SOL     OW69835   6.908   7.116   8.504 -0.5620  0.7725 -0.6254
53302SOL    HW169836   6.845   7.174   8.546 -0.3498  1.1765 -0.8604
53302SOL    HW269837   6.964   7.084   8.576 -1.6205 -0.3560 -0.2672
53303SOL     OW69838   2.020   5.083   9.245 -0.0042  0.0815 -0.2550
53303SOL    HW169839   2.075   5.131   9.184 -0.4084  0.9125  0.0218
53303SOL    HW269840   1.970   5.023   9.189 -0.1359  0.6039 -0.7102
53304SOL     OW69841  10.746   3.861   8.438 -0.3198 -0.4696 -0.0696
53304SOL    HW169842  10.704   3.827   8.359  1.0987 -0.7327 -0.7434
53304SOL    HW269843  10.683   3.844   8.508 -1.3300 -0.8234 -1.0407
53305SOL     OW69844  11.507  10.196   0.899  0.2718 -0.6123  0.2664
53305SOL    HW169845  11.504  10.181   0.804  1.1877 -0.4077  0.1861
53305SOL    HW269846  11.519  10.109   0.937 -0.4737 -0.7367  0.2226
53306SOL     OW69847  13.206  12.997   5.296  0.0104  0.3140 -0.1062
53306SOL    HW169848  13.161  13.057   5.237 -2.9179 -0.8539  0.7225
53306SOL    HW269849  13.159  13.006   5.380  1.2062 -1.1842  0.7850
53307SOL     OW69850   7.859   3.751   3.135 -0.3257 -0.5821 -0.1235
53307SOL    HW169851   7.808   3.708   3.204  1.5868  0.0492  1.8183
53307SOL    HW269852   7.948   3.717   3.147  0.9495  2.5709  0.4781
53308SOL     OW69853   2.396   4.201  13.158 -0.3662 -0.2708  0.2903
53308SOL    HW169854   2.446   4.180  13.237  0.8554  0.4341 -0.2726
53308SOL    HW269855   2.462   4.222  13.092 -1.4162  1.5781 -0.2367
53309SOL     OW69856   4.842  13.266  12.713  0.1408  0.2627 -0.1986
53309SOL    HW169857   4.835  13.361  12.720 -1.0881  0.1986 -0.3836
53309SOL    HW269858   4.752  13.234  12.721  0.5085 -0.8740 -0.3686
53310SOL     OW69859   1.301   1.655   1.451  0.1913  0.3102 -0.8908
53310SOL    HW169860   1.207   1.643   1.444 -0.4087  2.7063  1.4478
53310SOL    HW269861   1.314   1.750   1.441  2.0245  0.3437  0.9664
53311SOL     OW69862  10.262   6.935   3.899 -0.3182  0.0281 -0.5312
53311SOL    HW169863  10.351   6.964   3.920 -0.2360  1.5163 -2.6508
53311SOL    HW269864  10.219   6.928   3.985  1.1862  1.4793  0.4237
53312SOL     OW69865   4.762   6.553  12.442 -0.2271  0.4333  0.7019
53312SOL    HW169866   4.797   6.471  12.407  1.5730  1.0346  0.9474
53312SOL    HW269867   4.796   6.620  12.383 -3.5871  0.9271 -0.9012
53313SOL     OW69868   3.789  10.255   3.134  1.1435 -0.3206  0.3172
53313SOL    HW169869   3.797  10.211   3.219  1.3988  0.8650  0.9273
53313SOL    HW269870   3.810  10.347   3.153 -1.3883  0.4940 -0.5070
53314SOL     OW69871   2.226   0.560  11.412  0.5331 -0.1276  0.0607
53314SOL    HW169872   2.201   0.558  11.320  0.2849  0.8365  0.0909
53314SOL    HW269873   2.182   0.484  11.450 -1.3405  0.7755 -0.1665
53315SOL     OW69874   7.326   2.560   1.775  0.1518  0.0586 -0.0991
53315SOL    HW169875   7.332   2.567   1.871  3.1160  1.1034 -0.2561
53315SOL    HW269876   7.284   2.641   1.748 -0.2119  0.0029  0.2906
53316SOL     OW69877   9.264  11.628   0.167 -0.0616 -0.0669 -0.8441
53316SOL    HW169878   9.206  11.703   0.161 -0.0374 -0.1066 -1.6838
53316SOL    HW269879   9.291  11.611   0.077  1.0507 -0.2032 -0.5034
53317SOL     OW69880  10.246   4.088   7.389 -0.2005 -0.0319 -0.2998
53317SOL    HW169881  10.242   4.098   7.484  0.4958 -1.6726 -0.0659
53317SOL    HW269882  10.331   4.048   7.372  0.3627  1.6926 -1.7857
53318SOL     OW69883  10.829  13.060   2.582  0.4387 -0.2725 -0.7259
53318SOL    HW169884  10.848  13.122   2.653 -0.5773  0.5750 -1.1669
53318SOL    HW269885  10.896  12.993   2.591 -0.2852 -0.7884  1.7379
53319SOL     OW69886   2.523  12.638   0.115 -0.2705  0.0316  0.1557
53319SOL    HW169887   2.591  12.696   0.149  0.0263 -0.0358 -0.3133
53319SOL    HW269888   2.486  12.597   0.192  0.0687  0.2391  0.4333
53320SOL     OW69889   1.141   0.659   8.095  0.0572  0.1662 -0.4012
53320SOL    HW169890   1.110   0.663   8.005  1.2851  4.0063 -0.8144
53320SOL    HW269891   1.234   0.679   8.089  0.1146  0.7672  1.7184
53321SOL     OW69892   8.174   8.420   5.149  0.1568  0.2722  0.0548
53321SOL    HW169893   8.146   8.459   5.066  2.0956  0.8855 -0.3743
53321SOL    HW269894   8.203   8.494   5.202 -0.0188 -0.2178  0.8489
53322SOL     OW69895   1.869   4.144   0.283 -0.0994 -0.0769  0.4412
53322SOL    HW169896   1.920   4.066   0.304 -0.6567 -0.0140  2.1740
53322SOL    HW269897   1.878   4.200   0.360 -0.1701  1.3427 -0.5379
53323SOL     OW69898   2.816   7.790   9.019 -0.2117  0.2727  0.2110
53323SOL    HW169899   2.839   7.697   9.020  1.3192  0.5986  1.9149
53323SOL    HW269900   2.754   7.801   9.090 -1.6601  0.3152 -1.0195
53324SOL     OW69901   6.342  11.635   7.476  0.3087 -0.3835 -0.5782
53324SOL    HW169902   6.363  11.668   7.563 -0.8159 -0.5564 -0.2231
53324SOL    HW269903   6.418  11.659   7.422  0.4715  0.8248  0.1585
53325SOL     OW69904   1.329   2.208   0.754  0.8935  0.6497 -0.4597
53325SOL    HW169905   1.261   2.275   0.759  1.0013  0.8026 -0.9606
53325SOL    HW269906   1.397   2.246   0.698  0.6997 -0.0965 -1.2246
53326SOL     OW69907   5.564   5.108  12.222 -0.1740 -0.1708 -0.1459
53326SOL    HW169908   5.498   5.164  12.181 -0.5190  0.4184  1.1623
53326SOL    HW269909   5.568   5.031  12.165 -1.6818 -0.0363 -0.4828
53327SOL     OW69910   7.233   8.585   4.871 -0.2708 -0.3472 -0.4266
53327SOL    HW169911   7.174   8.546   4.806 -0.3392 -0.4221 -0.3213
53327SOL    HW269912   7.321   8.557   4.844 -0.4033 -1.4753  0.2544
53328SOL     OW69913   7.122   6.276   1.979  0.3030  0.2157  0.6456
53328SOL    HW169914   7.217   6.269   1.967  0.1385 -0.6629 -0.2711
53328SOL    HW269915   7.089   6.189   1.959 -0.8782  0.9502 -0.7943
53329SOL     OW69916  10.588   5.819   9.807  0.1337 -0.3169 -0.4720
53329SOL    HW169917  10.584   5.809   9.902 -0.4265 -2.7725 -0.7066
53329SOL    HW269918  10.609   5.912   9.794  2.9980 -0.4573  2.0555
53330SOL     OW69919   3.650   5.181   0.182 -0.1842 -0.0793  0.0581
53330SOL    HW169920   3.596   5.210   0.256 -0.1972 -0.0752  0.0471
53330SOL    HW269921   3.653   5.257   0.124  0.2276  0.0800  0.2810
53331SOL     OW69922   0.856   1.855   6.237 -0.4203  0.1961  0.1177
53331SOL    HW169923   0.866   1.817   6.324 -0.8044  1.0538  0.5552
53331SOL    HW269924   0.792   1.799   6.193  0.7374 -1.0105 -0.0955
53332SOL     OW69925   0.424   2.126  10.243  0.1319  0.0316  0.1135
53332SOL    HW169926   0.505   2.174  10.264  0.8715 -1.7291  1.5528
53332SOL    HW269927   0.399   2.086  10.326 -2.3944  0.7158 -0.2530
53333SOL     OW69928   8.418   8.738  10.740  0.3379  0.2478  0.0255
53333SOL    HW169929   8.382   8.826  10.728 -1.1165 -0.3892 -0.5889
53333SOL    HW269930   8.462   8.718  10.658  2.4952  1.1674  0.9104
53334SOL     OW69931   5.401  11.298  11.492 -0.0384  0.3153 -0.2627
53334SOL    HW169932   5.421  11.232  11.425 -1.1667  0.1784 -0.4836
53334SOL    HW269933   5.307  11.314  11.482 -0.3301 -0.0407  1.5963
53335SOL     OW69934   1.002   6.238   9.429  0.2076  0.2344 -0.1004
53335SOL    HW169935   0.949   6.300   9.379  0.0132  0.1714  0.0272
53335SOL    HW269936   1.091   6.250   9.395  0.4043  1.4845  0.7947
53336SOL     OW69937   4.793   8.004   8.489  0.7864 -0.1421 -0.1801
53336SOL    HW169938   4.776   7.972   8.578 -1.7610 -0.8495 -0.8388
53336SOL    HW269939   4.880   7.971   8.468  0.2986 -2.4049  1.0551
53337SOL     OW69940   7.694  12.184   0.714 -0.2100  0.4073 -0.2603
53337SOL    HW169941   7.701  12.156   0.806 -0.1146  2.0656  0.2702
53337SOL    HW269942   7.773  12.236   0.699 -0.6710  0.9160 -0.9975
53338SOL     OW69943   2.222   7.561  10.461 -0.4266 -0.2324  0.1767
53338SOL    HW169944   2.206   7.480  10.509  1.5182 -0.8883 -0.1847
53338SOL    HW269945   2.317   7.573  10.465 -0.2378  0.0819 -2.8505
53339SOL     OW69946  13.102   5.308   5.876  0.5672  0.4605 -0.6668
53339SOL    HW169947  13.095   5.323   5.970 -2.1023  1.8893 -0.9927
53339SOL    HW269948  13.182   5.354   5.851  0.6182  1.1982  0.7201
53340SOL     OW69949   2.725   5.935  13.138 -0.0163  0.3558 -0.1505
53340SOL    HW169950   2.773   5.904  13.061 -1.6840 -1.3817 -0.5712
53340SOL    HW269951   2.634   5.937  13.109 -0.5471  0.6555  1.4860
53341SOL     OW69952   8.319   8.353   6.055  0.4064  0.4879 -0.1600
53341SOL    HW169953   8.408   8.375   6.084  0.4927  0.2655 -0.2477
53341SOL    HW269954   8.277   8.317   6.133  1.6531 -3.1340 -0.9630
53342SOL     OW69955   0.138  12.171   0.324  0.1102 -0.0230 -0.6183
53342SOL    HW169956   0.106  12.262   0.327  1.3374  0.4177 -0.1873
53342SOL    HW269957   0.067  12.120   0.362  0.4602  1.1276  1.8535
53343SOL     OW69958   0.740   8.878   2.944 -0.3653 -0.2799  0.4144
53343SOL    HW169959   0.652   8.909   2.923 -0.2249 -0.6100 -0.7042
53343SOL    HW269960   0.788   8.957   2.966 -0.3377  0.1817 -1.2272
53344SOL     OW69961   5.831   0.943  12.168  0.1899  0.0487  0.3043
53344SOL    HW169962   5.739   0.940  12.143  0.4486 -1.2860 -0.5606
53344SOL    HW269963   5.876   0.980  12.092  0.1783  2.7541  1.4799
53345SOL     OW69964   8.788   3.767   7.084  0.6332  0.2463  0.0028
53345SOL    HW169965   8.727   3.695   7.098  0.4212  0.1242 -1.3921
53345SOL    HW269966   8.797   3.772   6.989  1.1754  1.6200  0.1074
53346SOL     OW69967   0.593   9.390   9.652 -0.0969  0.1127  0.5345
53346SOL    HW169968   0.683   9.398   9.621  0.6206  0.2035  2.4885
53346SOL    HW269969   0.553   9.325   9.595  1.4301 -0.4864  0.1115
53347SOL     OW69970   7.188   2.301   1.792  0.0067  0.4312 -0.0632
53347SOL    HW169971   7.236   2.379   1.764 -0.1924 -0.2946 -2.6948
53347SOL    HW269972   7.171   2.253   1.711 -0.2919 -2.1347  1.4080
53348SOL     OW69973   8.415  12.659   1.926 -0.8547 -0.4576  0.1109
53348SOL    HW169974   8.340  12.702   1.967 -1.0413  0.6399 -1.2936
53348SOL    HW269975   8.482  12.659   1.994 -1.6469 -0.1333  0.9220
53349SOL     OW69976  11.821   2.547  13.189  0.6783 -0.4168 -0.0608
53349SOL    HW169977  11.728   2.532  13.204  1.0478 -2.7618  0.3134
53349SOL    HW269978  11.826   2.637  13.156 -1.7213 -0.3188 -0.3432
53350SOL     OW69979   0.846   7.392  11.072 -0.4433 -0.8233  0.2727
53350SOL    HW169980   0.763   7.367  11.031 -0.3347 -2.8819  1.2026
53350SOL    HW269981   0.913   7.368  11.008 -0.4511 -1.0425  0.3471
53351SOL     OW69982   2.620  10.650  12.127  0.0891  0.5646  0.8127
53351SOL    HW169983   2.698  10.602  12.101 -0.5620  0.4646 -1.0654
53351SOL    HW269984   2.603  10.620  12.217  0.8060 -1.2579  0.3890
53352SOL     OW69985   2.012   8.566   9.407  0.0505 -0.0035  0.0941
53352SOL    HW169986   2.026   8.641   9.349  0.6218  0.1472  0.4235
53352SOL    HW269987   1.917   8.551   9.403  0.2101 -0.7536 -1.7973
53353SOL     OW69988   5.375   4.840   3.133 -0.1724 -0.4183 -0.1566
53353SOL    HW169989   5.443   4.848   3.200  0.8785  1.3383 -1.3583
53353SOL    HW269990   5.411   4.775   3.071 -1.7290 -3.0846  1.5365
53354SOL     OW69991  10.173   5.634  11.099  0.1026  0.2795  0.1620
53354SOL    HW169992  10.113   5.560  11.098  0.2675  0.1197  1.2419
53354SOL    HW269993  10.260   5.594  11.105  0.3208  0.5199 -1.0282
53355SOL     OW69994   1.785  10.140   6.321 -0.1789  0.3101 -0.3268
53355SOL    HW169995   1.692  10.152   6.303 -0.4893 -1.8850 -0.4095
53355SOL    HW269996   1.796  10.046   6.332  1.7247  0.6695  1.5095
53356SOL     OW69997   7.186   0.097   4.814  1.0323 -0.3362 -0.4142
53356SOL    HW169998   7.115   0.039   4.786 -0.5252  0.5762  1.3904
53356SOL    HW269999   7.246   0.040   4.862 -0.8397 -0.4633  1.9572
53357SOL     OW70000   1.033   7.087   8.721 -0.3186 -0.2204 -0.5136
53357SOL    HW170001   1.027   6.994   8.699 -1.0069 -0.0044 -1.2697
53357SOL    HW270002   1.124   7.110   8.702  0.1801 -0.9914  0.7757
53358SOL     OW70003   6.255  10.893  10.829 -0.3362  0.1205 -0.2833
53358SOL    HW170004   6.181  10.890  10.769  0.3730 -2.2950 -1.1699
53358SOL    HW270005   6.289  10.982  10.822 -2.0239  0.7266 -1.2507
53359SOL     OW70006   2.121   4.130  10.650 -0.6465 -0.3963 -0.7209
53359SOL    HW170007   2.052   4.120  10.716  0.6994 -0.7778  0.6944
53359SOL    HW270008   2.102   4.214  10.608  0.4753  1.8478  2.7527
53360SOL     OW70009   4.911   1.201   7.258 -0.2208 -0.8916 -0.1555
53360SOL    HW170010   4.980   1.135   7.268  0.5133 -0.1715 -0.3539
53360SOL    HW270011   4.892   1.201   7.164  2.3099  1.6012 -0.8205
53361SOL     OW70012   4.565  11.483   6.868 -0.5137 -0.2559  0.1788
53361SOL    HW170013   4.651  11.507   6.902 -0.3507 -1.9347  1.0785
53361SOL    HW270014   4.513  11.563   6.874  0.1782  0.0911  2.3143
53362SOL     OW70015   8.234   8.658   5.301  0.2354 -0.2648 -0.1815
53362SOL    HW170016   8.274   8.638   5.386  0.7844  0.9918 -0.1169
53362SOL    HW270017   8.143   8.681   5.322  0.0208 -1.1516 -0.0928
53363SOL     OW70018  11.191   4.119   4.547 -0.1920  0.6222  0.3507
53363SOL    HW170019  11.136   4.059   4.597  0.6995  0.0232  0.6534
53363SOL    HW270020  11.131   4.167   4.491 -0.9246 -0.6273  0.0351
53364SOL     OW70021   2.231  12.613   9.748 -0.3882 -0.0326 -0.7407
53364SOL    HW170022   2.278  12.603   9.665 -1.2248 -1.3810 -1.0882
53364SOL    HW270023   2.291  12.580   9.814 -0.1026  0.0984 -0.9308
53365SOL     OW70024   6.046   2.074   7.785 -0.0963  0.4143  0.1308
53365SOL    HW170025   6.002   2.016   7.722 -2.5619  1.2553  0.9662
53365SOL    HW270026   6.138   2.048   7.780 -0.3641 -0.3942 -2.8880
53366SOL     OW70027   3.122   2.640  11.101 -0.9678 -0.3485  0.3006
53366SOL    HW170028   3.081   2.723  11.077  0.2906  0.8933  2.2080
53366SOL    HW270029   3.169   2.613  11.023  0.0596  1.6902  0.1335
53367SOL     OW70030   3.524  11.933  12.366  0.4319  0.3443 -0.2641
53367SOL    HW170031   3.478  11.991  12.427  0.2757 -0.9739  0.8915
53367SOL    HW270032   3.545  11.855  12.417  2.4777  0.2000 -1.2292
53368SOL     OW70033   2.121   7.171  12.682  0.0507 -0.8264 -0.0460
53368SOL    HW170034   2.053   7.205  12.741 -0.0349  0.2684 -0.7432
53368SOL    HW270035   2.098   7.079  12.669 -1.9251 -0.2188 -1.1111
53369SOL     OW70036   4.145   4.828  12.859  0.0225  0.4749  0.4382
53369SOL    HW170037   4.185   4.915  12.862 -0.1543  0.7086 -2.1404
53369SOL    HW270038   4.106   4.822  12.772  0.1131 -2.2500  0.5010
53370SOL     OW70039   7.224   8.119   6.780  0.0013 -0.2547 -0.5491
53370SOL    HW170040   7.208   8.042   6.835  1.3013 -1.5581 -1.8992
53370SOL    HW270041   7.151   8.120   6.717  0.5303 -1.0149 -1.1846
53371SOL     OW70042   4.105   4.894   5.939 -0.1698  0.5962  0.4988
53371SOL    HW170043   4.009   4.886   5.933 -0.0972 -0.7823  0.7611
53371SOL    HW270044   4.124   4.877   6.031  0.1118  4.1601  1.2588
53372SOL     OW70045   0.820   6.762   1.962 -0.3959  0.0010  0.1344
53372SOL    HW170046   0.889   6.806   2.012 -0.6818  0.3056  0.2638
53372SOL    HW270047   0.738   6.792   2.002 -0.6586  0.7976 -0.9393
53373SOL     OW70048   6.198   3.825   4.915 -0.1118 -0.4378 -0.6342
53373SOL    HW170049   6.104   3.813   4.901  0.0900 -0.5922 -1.9550
53373SOL    HW270050   6.215   3.916   4.891  0.3897 -0.9495 -2.3546
53374SOL     OW70051   4.898   1.644   9.294 -0.4943 -0.7018 -0.7415
53374SOL    HW170052   4.898   1.698   9.373 -2.1333  3.2006 -3.1257
53374SOL    HW270053   4.811   1.604   9.291 -0.9929  0.4001 -1.2924
53375SOL     OW70054   7.975   6.513  12.183  0.3148  0.4623  0.0820
53375SOL    HW170055   7.888   6.552  12.184 -0.3670 -0.9907  0.3209
53375SOL    HW270056   7.979   6.460  12.263  2.3212  2.3149  1.3461
53376SOL     OW70057   4.711   1.820  11.816  0.6526 -0.0116 -0.2857
53376SOL    HW170058   4.739   1.911  11.816  0.0845  0.1915  1.0991
53376SOL    HW270059   4.770   1.776  11.877  1.2755 -0.7050 -1.3533
53377SOL     OW70060   4.710   0.139   3.045  0.7966  0.2871  0.0318
53377SOL    HW170061   4.773   0.080   3.087 -0.1978 -0.3947  0.5872
53377SOL    HW270062   4.667   0.184   3.117 -0.1728 -0.1061 -0.2955
53378SOL     OW70063   2.542   6.220   4.900 -0.1840 -0.2232 -0.2499
53378SOL    HW170064   2.572   6.300   4.942 -0.1780 -0.3426 -0.0286
53378SOL    HW270065   2.622   6.169   4.885 -0.1933 -0.2107 -0.3465
53379SOL     OW70066   7.711   2.469  11.161  0.0071  0.1828 -0.4321
53379SOL    HW170067   7.673   2.557  11.159 -0.1837  0.0964 -0.5643
53379SOL    HW270068   7.640   2.413  11.193  0.1337  0.0776 -0.3324
53380SOL     OW70069   5.226   1.598  10.037  0.2706  0.3058  0.1145
53380SOL    HW170070   5.144   1.583  10.084  0.1080  1.5475  0.2556
53380SOL    HW270071   5.235   1.522   9.980 -0.2656 -0.5305  1.1078
53381SOL     OW70072  12.409   2.649  11.265  0.1906 -0.1066  0.6677
53381SOL    HW170073  12.350   2.724  11.277  0.5118 -0.0436  1.9513
53381SOL    HW270074  12.358   2.574  11.295 -0.6206 -0.6555 -1.8431
53382SOL     OW70075   8.484   9.442   1.402  0.4547  0.2444 -0.1030
53382SOL    HW170076   8.574   9.421   1.424  0.1204 -1.0170  0.1152
53382SOL    HW270077   8.478   9.430   1.307 -0.4059 -3.6363  0.2756
53383SOL     OW70078   2.357   8.752   2.480  0.0984  0.1738  0.5405
53383SOL    HW170079   2.282   8.776   2.426 -0.1256  2.6699  1.8385
53383SOL    HW270080   2.428   8.808   2.448  1.2027 -1.4542 -0.0120
53384SOL     OW70081  10.511   7.362   9.879  0.6171 -0.4342  0.0869
53384SOL    HW170082  10.435   7.394   9.928 -0.4860 -0.1687 -1.7061
53384SOL    HW270083  10.584   7.413   9.913 -0.3206  0.6455  0.5838
53385SOL     OW70084   3.450  13.198  10.768 -0.4047  0.2488 -0.9002
53385SOL    HW170085   3.387  13.148  10.820  0.7787 -0.5724 -0.1953
53385SOL    HW270086   3.502  13.246  10.833  0.2638  0.2057 -1.3926
53386SOL     OW70087   8.268  11.427   9.860 -0.2867 -0.1292 -0.4367
53386SOL    HW170088   8.204  11.451   9.927 -1.0280 -0.8637 -0.8600
53386SOL    HW270089   8.244  11.338   9.834  0.4382 -0.1319 -1.1535
53387SOL     OW70090   6.095   9.798   2.806  0.4628 -0.6312 -0.2797
53387SOL    HW170091   6.175   9.761   2.770  0.9018  0.9698 -1.0646
53387SOL    HW270092   6.112   9.892   2.810 -1.1256 -0.3317  0.1924
53388SOL     OW70093  11.991   7.914   8.226  0.3242  0.3194 -0.1854
53388SOL    HW170094  11.989   7.844   8.161  0.8204  2.6185 -2.8697
53388SOL    HW270095  12.015   7.870   8.307  3.4092 -2.2816 -2.2247
53389SOL     OW70096  12.937   2.225  12.109 -0.2583  0.3762  0.1665
53389SOL    HW170097  13.015   2.184  12.147 -1.8634 -1.0561  2.1729
53389SOL    HW270098  12.868   2.160  12.122 -1.6713  1.3117 -2.1754
53390SOL     OW70099   9.528   7.266   9.178  0.2827  0.0578 -0.2894
53390SOL    HW170100   9.492   7.350   9.207  0.7060 -0.3468  1.5251
53390SOL    HW270101   9.623   7.276   9.187  0.3359 -0.6305 -0.0187
53391SOL     OW70102  10.835   3.723  11.837  0.2972 -0.0469  0.0616
53391SOL    HW170103  10.774   3.796  11.846  0.8371  0.7457 -2.1332
53391SOL    HW270104  10.779   3.645  11.836 -0.3692  0.3826  1.3941
53392SOL     OW70105  12.603   7.212   9.790  0.2057  0.0584 -0.0745
53392SOL    HW170106  12.617   7.293   9.741  0.8745  0.0759  0.1251
53392SOL    HW270107  12.634   7.143   9.731 -2.0259 -0.2539 -0.9713
53393SOL     OW70108   8.190  12.223   2.611 -0.3200  0.2291 -0.3558
53393SOL    HW170109   8.132  12.162   2.568 -1.0106  1.3273 -1.0351
53393SOL    HW270110   8.133  12.293   2.643  0.3710  0.2432  0.9228
53394SOL     OW70111   9.775   4.244  11.680 -0.4639  0.0235  0.4575
53394SOL    HW170112   9.761   4.328  11.723  0.3989 -0.0920  0.9931
53394SOL    HW270113   9.807   4.267  11.592  0.9989  0.2766  1.0283
53395SOL     OW70114  11.218  13.282  12.291 -0.1361 -0.3433 -0.1413
53395SOL    HW170115  11.131  13.245  12.309 -0.8670  0.9356 -0.9119
53395SOL    HW270116  11.245  13.240  12.209  0.6927 -1.8995  0.8767
53396SOL     OW70117   0.330   8.873  12.596  0.1081 -0.2618 -0.0977
53396SOL    HW170118   0.287   8.832  12.671 -1.1576  0.6246 -0.3114
53396SOL    HW270119   0.408   8.914  12.633  0.3199 -1.1420  0.4561
53397SOL     OW70120  13.164   1.627   8.272  0.3725 -0.5376 -0.0574
53397SOL    HW170121  13.172   1.698   8.336 -0.0278 -0.2074 -0.3702
53397SOL    HW270122  13.078   1.588   8.291 -0.7109  0.8884 -1.7200
53398SOL     OW70123   2.498   5.025   6.810  0.0792 -0.0552 -0.2347
53398SOL    HW170124   2.566   5.021   6.877 -2.0016  1.3844  2.1343
53398SOL    HW270125   2.527   5.096   6.751  2.1754 -1.6763 -1.2828
53399SOL     OW70126  11.763   6.682   1.601  0.2452 -0.3514  0.0672
53399SOL    HW170127  11.839   6.718   1.555 -0.2988 -0.7356 -1.1682
53399SOL    HW270128  11.764   6.588   1.580  0.7054 -0.8129  1.9045
53400SOL     OW70129   3.107   8.052  12.018 -0.1611  0.5449  0.2797
53400SOL    HW170130   3.029   7.998  12.013  0.4760 -0.3604 -0.2188
53400SOL    HW270131   3.122   8.082  11.928  1.2136 -1.0045 -0.0521
53401SOL     OW70132   0.822  10.477   8.240 -0.5719 -0.2926  0.2014
53401SOL    HW170133   0.872  10.515   8.313 -0.2271 -1.0808  0.3863
53401SOL    HW270134   0.755  10.424   8.282 -1.0326  0.0826 -0.0553
53402SOL     OW70135   0.248   2.959   8.433  0.8305  0.7853 -0.2096
53402SOL    HW170136   0.157   2.927   8.436  1.5214 -1.2394  0.7333
53402SOL    HW270137   0.252   3.025   8.502  0.4835 -0.3540  0.9403
53403SOL     OW70138   0.810  11.669   8.776 -0.2712  0.3539  0.2902
53403SOL    HW170139   0.740  11.731   8.755  1.1882  0.9748 -3.4342
53403SOL    HW270140   0.785  11.589   8.729  0.3818 -0.2290  0.9128
53404SOL     OW70141   9.159   5.831  12.707  0.2024  0.0390  0.5855
53404SOL    HW170142   9.088   5.767  12.717 -1.5215  1.4410 -1.7579
53404SOL    HW270143   9.212   5.820  12.787 -0.3032 -3.8259  0.5850
53405SOL     OW70144   4.483   1.238   0.666  0.1558 -0.1983  0.0715
53405SOL    HW170145   4.475   1.196   0.752  1.6646  0.8627  0.7863
53405SOL    HW270146   4.464   1.330   0.683  0.0733 -0.0448 -0.8146
53406SOL     OW70147  11.330   2.292   7.354 -0.1884  0.7114 -0.4041
53406SOL    HW170148  11.342   2.302   7.449  1.7585  0.0600 -0.5375
53406SOL    HW270149  11.252   2.343   7.334 -1.2001  0.0956  1.6987
53407SOL     OW70150   5.372   7.705  10.913 -0.2076  0.7176 -0.0453
53407SOL    HW170151   5.312   7.725  10.841  0.6969  1.0885 -0.7175
53407SOL    HW270152   5.376   7.786  10.964 -0.5483  0.5773  0.2099
53408SOL     OW70153  10.086   8.543   8.333 -0.7003  0.2066  0.5879
53408SOL    HW170154  10.042   8.539   8.418  0.7839  2.0736  1.5156
53408SOL    HW270155  10.078   8.634   8.306 -1.6857 -0.4618 -1.6578
53409SOL     OW70156  10.166   0.492  11.637 -0.1533  0.1179 -0.0045
53409SOL    HW170157  10.146   0.454  11.551  1.4844 -2.0789  0.4847
53409SOL    HW270158  10.194   0.582  11.618 -0.0798 -0.2375 -1.7340
53410SOL     OW70159   6.332   2.454   8.033  0.0954  0.0323 -0.3164
53410SOL    HW170160   6.343   2.499   8.117  0.3229 -0.1940 -0.2246
53410SOL    HW270161   6.324   2.362   8.057 -0.7013  0.0559 -0.4786
53411SOL     OW70162   4.536   8.481   5.344 -0.1200 -0.5614 -0.3326
53411SOL    HW170163   4.493   8.566   5.348  0.8668 -0.0932  0.7847
53411SOL    HW270164   4.525   8.445   5.432  2.6082  0.0246  0.3203
53412SOL     OW70165   0.616   0.958   1.983 -0.0598  0.0506  0.3123
53412SOL    HW170166   0.680   0.956   1.911  1.3431  1.2606  1.4678
53412SOL    HW270167   0.648   0.893   2.045 -0.6564 -0.2114  0.3482
53413SOL     OW70168   4.436  12.365   3.177 -0.4516  0.1723 -0.1586
53413SOL    HW170169   4.438  12.376   3.082 -1.3900  0.9597 -0.0958
53413SOL    HW270170   4.455  12.272   3.191 -0.3110  0.0507 -1.1128
53414SOL     OW70171   4.072  12.261   4.622 -0.4666 -0.2995 -0.2840
53414SOL    HW170172   3.977  12.274   4.625 -0.4058  0.1002 -0.0204
53414SOL    HW270173   4.107  12.323   4.687  0.1453  1.1681 -1.9242
53415SOL     OW70174   8.067   7.251   2.058 -0.2528  0.0891  0.2188
53415SOL    HW170175   8.067   7.213   2.146 -0.7575  1.3765  0.8042
53415SOL    HW270176   8.000   7.319   2.061  1.6111  2.0809 -0.2653
53416SOL     OW70177   8.367  12.756   0.831  0.1745 -0.3811 -0.7948
53416SOL    HW170178   8.360  12.665   0.862 -0.2144  0.3112  1.3222
53416SOL    HW270179   8.448  12.788   0.871 -0.0541  0.4078 -0.9550
53417SOL     OW70180   3.584   2.281   7.604  0.4762  0.4185  0.0473
53417SOL    HW170181   3.668   2.241   7.583  0.0231 -0.1797 -0.7380
53417SOL    HW270182   3.598   2.375   7.594  0.8469  0.2754 -0.9548
53418SOL     OW70183   0.183   7.398  13.266 -0.0668  0.3303 -0.8306
53418SOL    HW170184   0.098   7.364  13.295  0.0318  0.8333  0.0942
53418SOL    HW270185   0.170   7.492  13.258  0.5634  0.4906 -0.0746
53419SOL     OW70186  11.830   3.605   1.972  0.2353  0.5266  0.3087
53419SOL    HW170187  11.769   3.678   1.965 -0.3805 -0.0515 -0.6267
53419SOL    HW270188  11.779   3.528   1.947  1.2524 -0.0128 -0.1880
53420SOL     OW70189   9.770   7.109   8.350  0.7574 -0.5013  0.0686
53420SOL    HW170190   9.746   7.030   8.303  1.4706 -1.4440  1.2514
53420SOL    HW270191   9.696   7.126   8.408 -0.0210  0.5343 -1.1611
53421SOL     OW70192   5.558   6.191   9.898  0.4360  1.1584 -0.0831
53421SOL    HW170193   5.493   6.122   9.912 -0.2779  1.8772  0.2537
53421SOL    HW270194   5.506   6.269   9.879  1.2097  1.7260  0.0784
53422SOL     OW70195   3.100   8.336  12.977  0.3765  0.1650  0.4477
53422SOL    HW170196   3.114   8.391  13.054  1.8440 -0.3710  0.5876
53422SOL    HW270197   3.096   8.247  13.011  2.7695 -0.2618 -0.2024
53423SOL     OW70198  10.772  13.003   7.249  0.3677  0.2841 -0.1915
53423SOL    HW170199  10.817  12.950   7.314  0.2685  0.0855 -0.2858
53423SOL    HW270200  10.766  13.090   7.289  3.3716  1.0941 -1.2977
53424SOL     OW70201   5.252   3.459  12.290  0.6154 -0.2253 -0.0442
53424SOL    HW170202   5.172   3.494  12.330  1.2292  0.1595  0.8917
53424SOL    HW270203   5.229   3.370  12.264 -0.9714  0.7925 -2.4257
53425SOL     OW70204   6.648   0.523  10.625  0.0692  0.0953 -0.2829
53425SOL    HW170205   6.704   0.588  10.581  1.1951 -0.7048 -0.0861
53425SOL    HW270206   6.628   0.460  10.556 -1.0906  0.6717 -0.4939
53426SOL     OW70207  10.537  13.058   6.357 -0.8427  0.0786  0.1012
53426SOL    HW170208  10.562  13.151   6.352 -1.9996  0.4026  0.0086
53426SOL    HW270209  10.536  13.029   6.265 -1.7219  0.3326  0.0223
53427SOL     OW70210  12.495   5.027   7.038  0.7357 -0.7732 -0.1610
53427SOL    HW170211  12.444   4.948   7.021 -0.4673  0.0346 -0.3924
53427SOL    HW270212  12.490   5.076   6.956  1.7779 -0.6072 -0.1382
53428SOL     OW70213  11.777  10.130   4.139 -0.0541  0.5498  0.1765
53428SOL    HW170214  11.688  10.115   4.106  0.3204 -0.9656 -0.2212
53428SOL    HW270215  11.817  10.188   4.074 -0.1703 -0.2703 -0.6484
53429SOL     OW70216   5.689   8.125   2.416 -0.0619 -0.3179  0.2699
53429SOL    HW170217   5.741   8.156   2.491  0.9552  1.1009 -0.9618
53429SOL    HW270218   5.608   8.175   2.422  1.2636  2.2292 -1.2585
53430SOL     OW70219   8.636   1.090  10.884  0.4682  0.1412  0.2222
53430SOL    HW170220   8.700   1.158  10.864  0.7082 -0.2250 -0.2441
53430SOL    HW270221   8.577   1.132  10.948  0.4383  0.8894 -0.2806
53431SOL     OW70222  10.328   6.917   6.068  0.3851  0.3190 -0.2210
53431SOL    HW170223  10.267   6.923   5.994 -0.1559  1.6100  0.3030
53431SOL    HW270224  10.412   6.894   6.028 -0.3328 -1.0858 -0.9992
53432SOL     OW70225   3.078   2.309   9.052 -0.4267  0.0259  0.0470
53432SOL    HW170226   3.109   2.284   9.139 -0.3415 -0.9304 -0.2473
53432SOL    HW270227   2.991   2.269   9.044 -0.3334 -0.0992 -0.3926
53433SOL     OW70228   2.040   7.333   3.778 -0.0260  0.1329 -0.3970
53433SOL    HW170229   2.101   7.394   3.737  1.4243 -1.0565 -0.1155
53433SOL    HW270230   2.003   7.382   3.851  1.8357  0.4344  0.4115
53434SOL     OW70231   7.449  11.136   3.481  0.2704  0.0770  0.0644
53434SOL    HW170232   7.461  11.230   3.493 -0.1623 -0.1193  2.3223
53434SOL    HW270233   7.538  11.100   3.481  0.3920  0.3731  0.0207
53435SOL     OW70234   0.780   5.884  11.548 -0.2183 -0.6286  0.1839
53435SOL    HW170235   0.775   5.829  11.627  1.8565  1.6060  2.0399
53435SOL    HW270236   0.695   5.926  11.543 -1.4587 -3.0346 -0.6458
53436SOL     OW70237   8.031   1.587   2.975  0.2848  0.0862  0.3369
53436SOL    HW170238   7.991   1.652   2.917 -1.0691 -1.4401 -0.5421
53436SOL    HW270239   8.008   1.615   3.063  0.6051  1.3324  0.0394
53437SOL     OW70240   4.571   3.629   5.113  0.6357 -0.4437  0.7175
53437SOL    HW170241   4.507   3.696   5.089 -0.1729 -1.6603 -0.6773
53437SOL    HW270242   4.553   3.611   5.206 -1.0593 -0.7266  0.3708
53438SOL     OW70243   1.355   7.001   4.639 -0.3318  0.0944  0.3526
53438SOL    HW170244   1.409   7.060   4.586 -0.8977  0.4646  0.1766
53438SOL    HW270245   1.325   7.056   4.712 -1.1034  0.1195  0.0284
53439SOL     OW70246   1.663   6.320   0.209 -0.3928 -0.6194  0.9090
53439SOL    HW170247   1.572   6.290   0.220 -0.9531  0.4403 -0.5376
53439SOL    HW270248   1.654   6.410   0.178  1.1765 -0.4549  0.8953
53440SOL     OW70249   7.149  10.956  13.306  0.4562  0.3425  0.3500
53440SOL    HW170250   7.180  10.948  13.216 -3.0556 -1.5174 -0.8787
53440SOL    HW270251   7.223  10.929  13.360  1.9079 -0.9262 -2.1125
53441SOL     OW70252   4.266   3.635   1.474  0.3346  0.0535 -0.0757
53441SOL    HW170253   4.332   3.578   1.434  0.3743 -0.8320  1.2343
53441SOL    HW270254   4.198   3.644   1.406  0.3061 -1.5710 -0.2919
53442SOL     OW70255   8.163   9.211  10.618 -0.6179 -0.4428 -0.2842
53442SOL    HW170256   8.118   9.258  10.688 -1.3883  0.9979 -1.6860
53442SOL    HW270257   8.251   9.248  10.617 -1.1296  0.8338 -1.1769
53443SOL     OW70258   4.742  12.908   2.179  0.2099  0.0213  0.9567
53443SOL    HW170259   4.792  12.841   2.133 -1.2604 -0.7153  0.3698
53443SOL    HW270260   4.656  12.907   2.137 -0.6115  0.5951  2.5401
53444SOL     OW70261   2.759   0.328  10.658 -0.4364  1.0284  0.1688
53444SOL    HW170262   2.690   0.261  10.661  0.9090 -0.4253 -0.1015
53444SOL    HW270263   2.838   0.282  10.686  0.8575  2.0788 -1.6053
53445SOL     OW70264   5.420   1.959   2.205 -0.1997 -0.0074 -0.0432
53445SOL    HW170265   5.492   1.989   2.260 -1.3250 -0.2883  1.6558
53445SOL    HW270266   5.406   2.030   2.142  2.1538 -0.3517 -1.0799
53446SOL     OW70267  12.948  10.362  10.791  0.5944  0.1183 -0.2243
53446SOL    HW170268  13.004  10.314  10.731  0.3224  0.3196 -0.6403
53446SOL    HW270269  12.867  10.312  10.794  1.1044 -0.6736  1.0792
53447SOL     OW70270   7.540  13.039  11.879  0.3069 -0.2420 -0.0937
53447SOL    HW170271   7.598  12.968  11.905  1.5296  0.5342 -0.5960
53447SOL    HW270272   7.456  13.018  11.920  1.1244 -1.0460  1.2405
53448SOL     OW70273   7.807  13.114  10.695 -0.4276  0.7209  0.2964
53448SOL    HW170274   7.716  13.106  10.721 -0.4213  1.0767  0.4358
53448SOL    HW270275   7.831  13.027  10.663 -0.9856  0.7869 -0.3079
53449SOL     OW70276   5.254   3.938   3.016 -0.7252  0.1172  0.1478
53449SOL    HW170277   5.174   3.950   2.964  0.1568  0.1415 -1.2727
53449SOL    HW270278   5.262   3.843   3.024 -0.5309  0.0895 -0.3284
53450SOL     OW70279   9.904  12.370  12.980  0.1636  0.3697  0.3731
53450SOL    HW170280   9.982  12.325  12.948 -0.1344  0.3409 -0.3331
53450SOL    HW270281   9.866  12.310  13.044 -1.2291 -1.2546 -1.8481
53451SOL     OW70282   1.006   0.522   3.778 -0.0307  0.2053  0.4943
53451SOL    HW170283   0.935   0.486   3.830  0.5674  0.0332  1.2160
53451SOL    HW270284   1.084   0.474   3.807  0.0523 -1.3161 -1.9787
53452SOL     OW70285  10.439   9.370   9.992 -0.2090  0.0177  0.1283
53452SOL    HW170286  10.484   9.368   9.908  1.4662  0.4380  0.9546
53452SOL    HW270287  10.477   9.297  10.041  0.2444  0.9226  1.1682
53453SOL     OW70288   0.847   9.971   0.559  0.0483 -0.3037 -0.1978
53453SOL    HW170289   0.852   9.971   0.654  0.4089 -0.2101 -0.2159
53453SOL    HW270290   0.759   9.939   0.539 -1.0003  2.0695  0.2278
53454SOL     OW70291  11.069   6.525  12.381  0.9062 -0.5014  0.2338
53454SOL    HW170292  11.160   6.506  12.360  0.2386 -1.7997 -1.7741
53454SOL    HW270293  11.019   6.490  12.307 -1.2846 -0.4438  1.5812
53455SOL     OW70294   3.332  11.542   4.327  0.2617 -0.0252  0.0450
53455SOL    HW170295   3.294  11.601   4.392  0.1511 -1.9473  1.8231
53455SOL    HW270296   3.424  11.536   4.352  0.2285 -0.7271  0.0254
53456SOL     OW70297  11.254   7.538   1.345 -0.1853  0.2216 -0.6792
53456SOL    HW170298  11.308   7.459   1.333 -0.3737 -0.2077  1.0367
53456SOL    HW270299  11.176   7.522   1.293 -0.0622 -0.5698 -0.6351
53457SOL     OW70300   0.804   2.101   8.294  0.2818  0.9940 -1.0224
53457SOL    HW170301   0.871   2.039   8.326  0.4175  1.4825 -0.3299
53457SOL    HW270302   0.853   2.164   8.242  0.3095  1.1658 -0.7869
53458SOL     OW70303   2.521  10.005   5.282 -0.0221 -0.1176  0.0338
53458SOL    HW170304   2.478   9.945   5.343 -0.7996  1.1947  0.8074
53458SOL    HW270305   2.466  10.004   5.204  0.7572 -1.4916 -0.5352
53459SOL     OW70306   7.132   8.622   2.108 -0.0153  0.2448  0.1391
53459SOL    HW170307   7.176   8.542   2.077  0.2540  0.1950  0.6429
53459SOL    HW270308   7.151   8.625   2.202 -2.2621 -0.5490  0.6925
53460SOL     OW70309   1.760   7.127   9.866  0.0713  0.5097  0.3702
53460SOL    HW170310   1.812   7.142   9.787  0.8780  0.8277  0.9564
53460SOL    HW270311   1.821   7.140   9.938 -0.6551  0.2027  1.0534
53461SOL     OW70312  10.334   8.098   7.560  0.0869 -0.2399  0.3797
53461SOL    HW170313  10.420   8.137   7.547  0.4148 -1.7553 -2.9439
53461SOL    HW270314  10.280   8.168   7.596  1.3897  2.3769 -2.4058
53462SOL     OW70315  12.743   9.136   3.152 -0.1971  0.0119 -0.1293
53462SOL    HW170316  12.679   9.204   3.175 -0.6383 -0.1224 -0.9269
53462SOL    HW270317  12.815   9.183   3.110  0.6822  0.2783  1.5602
53463SOL     OW70318   5.681  11.480   6.284 -0.0965 -0.4659 -0.2812
53463SOL    HW170319   5.752  11.482   6.347 -0.9151 -2.1453  0.7639
53463SOL    HW270320   5.638  11.565   6.293  0.0769 -0.5097  1.1022
53464SOL     OW70321  11.272   0.290   2.999 -0.5572 -0.0697 -0.5255
53464SOL    HW170322  11.288   0.210   2.949 -1.0959  0.2944 -1.3072
53464SOL    HW270323  11.341   0.350   2.972 -0.3006 -0.1800 -0.1266
53465SOL     OW70324   9.486   1.642   9.567 -0.7177  0.2342  0.4127
53465SOL    HW170325   9.438   1.569   9.528  0.0091  0.3251 -0.6802
53465SOL    HW270326   9.565   1.602   9.603 -0.8270  0.3289  0.7613
53466SOL     OW70327  10.426   7.677   3.432  0.3898 -0.2033 -0.1201
53466SOL    HW170328  10.449   7.689   3.524 -0.4891 -0.2053  0.1074
53466SOL    HW270329  10.363   7.604   3.432 -2.3401  1.9796 -0.2716
53467SOL     OW70330   8.688   8.773   0.546 -0.0763  0.6268  0.7264
53467SOL    HW170331   8.764   8.807   0.499 -0.1622 -0.8615 -0.5394
53467SOL    HW270332   8.693   8.815   0.632  1.6230  1.3073  0.3341
53468SOL     OW70333  11.179   2.743  11.435  0.1602 -0.1892 -0.0160
53468SOL    HW170334  11.179   2.656  11.396 -1.0438 -1.0008  1.6501
53468SOL    HW270335  11.270   2.760  11.458  0.2563 -1.4954  0.6209
53469SOL     OW70336   1.598   3.702  11.359 -0.2137  0.2114  0.0958
53469SOL    HW170337   1.564   3.782  11.318 -1.3860  0.2967  1.1607
53469SOL    HW270338   1.624   3.730  11.447 -2.6817 -0.9342  1.2852
53470SOL     OW70339  12.799  11.764   1.722  0.2181  0.7484  0.7419
53470SOL    HW170340  12.889  11.773   1.689  0.7084 -1.2820  1.4166
53470SOL    HW270341  12.790  11.671   1.742 -1.6579  1.1236  1.8233
53471SOL     OW70342   4.086   9.765   2.414 -0.2802 -0.0630 -0.2266
53471SOL    HW170343   4.064   9.857   2.400 -1.0544 -0.5396 -2.7727
53471SOL    HW270344   4.149   9.745   2.345  0.0005 -1.4192  0.3847
53472SOL     OW70345   4.984   2.185  12.187  0.3071 -0.2634 -0.4752
53472SOL    HW170346   5.029   2.101  12.191  0.8861  0.0369 -0.6080
53472SOL    HW270347   5.038   2.244  12.239 -1.7883 -0.7071  2.4640
53473SOL     OW70348   0.758   4.267   4.116 -0.6102 -0.6423  0.1124
53473SOL    HW170349   0.824   4.333   4.096 -1.0789 -0.3649 -0.5533
53473SOL    HW270350   0.720   4.245   4.031 -1.8546 -0.2859  0.5588
53474SOL     OW70351  10.722   6.702   9.167  0.1666 -0.8041  0.1089
53474SOL    HW170352  10.757   6.791   9.160 -0.4161 -0.5747  0.0843
53474SOL    HW270353  10.670   6.690   9.088  0.2669 -1.1814  0.0998
53475SOL     OW70354   8.411   7.610   4.494 -0.5041 -0.3415  0.7778
53475SOL    HW170355   8.393   7.534   4.438 -0.2365 -0.5380  0.9550
53475SOL    HW270356   8.422   7.573   4.581  0.0052 -0.1418  0.8015
53476SOL     OW70357   2.935   5.260   1.887 -0.2542  0.1919  0.0172
53476SOL    HW170358   3.019   5.293   1.854  0.4666 -2.2337 -0.7567
53476SOL    HW270359   2.956   5.228   1.975 -0.1053 -1.2837 -0.5339
53477SOL     OW70360  11.586   9.246  13.126  0.1379 -0.4593 -0.3325
53477SOL    HW170361  11.542   9.161  13.132  1.4574 -1.0909  0.9448
53477SOL    HW270362  11.515   9.310  13.129 -0.7434 -1.4096  2.4962
53478SOL     OW70363   3.870   4.073  10.719  0.5894  0.3347 -0.2267
53478SOL    HW170364   3.819   4.112  10.647 -0.5900 -1.4649 -0.4304
53478SOL    HW270365   3.845   4.124  10.796 -1.7931 -0.6213 -0.2747
53479SOL     OW70366   5.228  10.843   5.971 -0.2458  0.0743 -0.1671
53479SOL    HW170367   5.190  10.763   5.933 -0.9083  0.9546 -1.4209
53479SOL    HW270368   5.299  10.866   5.912 -0.1533  0.4971  0.1058
53480SOL     OW70369   4.186   6.069   9.350 -0.1499  0.2451 -0.0717
53480SOL    HW170370   4.105   6.058   9.400  0.1482 -0.4507  0.2711
53480SOL    HW270371   4.237   5.991   9.370  0.9831  1.0869  0.4044
53481SOL     OW70372   3.498   1.312   7.226  0.3389  0.0800  0.2312
53481SOL    HW170373   3.491   1.374   7.298 -0.5834  0.4253 -0.1485
53481SOL    HW270374   3.544   1.237   7.263  0.2863  0.4495  1.0483
53482SOL     OW70375   6.519   3.177   0.128 -0.5967  0.1628  0.4644
53482SOL    HW170376   6.462   3.241   0.085  0.0433 -0.0763 -0.8017
53482SOL    HW270377   6.607   3.216   0.123 -0.2300 -0.6958 -0.1379
53483SOL     OW70378  10.776  10.108   7.495  0.0991 -0.9290  0.1596
53483SOL    HW170379  10.841  10.141   7.557 -1.2529 -0.5497  1.4280
53483SOL    HW270380  10.725  10.185   7.469 -0.2711 -1.3208 -0.2992
53484SOL     OW70381   6.106  11.772   7.817 -0.4448  0.3461 -0.1151
53484SOL    HW170382   6.053  11.703   7.776 -1.5229  0.7976  0.4785
53484SOL    HW270383   6.196  11.741   7.808 -0.9527 -1.7111  1.1047
53485SOL     OW70384   2.489   2.821   7.174 -0.2383 -0.1479 -0.3832
53485SOL    HW170385   2.484   2.832   7.079 -0.5009  0.5010 -0.2978
53485SOL    HW270386   2.403   2.848   7.207  0.0623  0.2624  0.0907
53486SOL     OW70387   3.920   6.007   9.503 -0.2146 -0.1665  0.0497
53486SOL    HW170388   3.885   5.918   9.496  3.0058 -1.6048  0.4215
53486SOL    HW270389   3.923   6.024   9.597 -0.4926  0.1771 -0.0055
53487SOL     OW70390   6.775   3.452   3.161 -0.0501  0.0339  0.2542
53487SOL    HW170391   6.765   3.492   3.075 -0.5074  0.8803  0.6802
53487SOL    HW270392   6.860   3.483   3.192  0.3198 -0.6378 -0.0686
53488SOL     OW70393   3.215   0.068  11.443  0.2686 -0.0602  0.0821
53488SOL    HW170394   3.203   0.022  11.526 -0.3145 -0.6212 -0.3045
53488SOL    HW270395   3.203   0.160  11.465 -2.2039 -0.3549  0.2378
53489SOL     OW70396   9.016   3.375   3.995  0.6516  0.2890  0.1689
53489SOL    HW170397   9.101   3.419   3.985  0.0783  1.0748 -1.7780
53489SOL    HW270398   8.977   3.415   4.073  1.2019  1.4720 -0.1302
53490SOL     OW70399   3.264  11.305   3.119  0.1848 -0.3016  0.1366
53490SOL    HW170400   3.342  11.355   3.144 -1.0816  1.4066  0.9274
53490SOL    HW270401   3.244  11.251   3.195 -0.4035  0.6209  0.6575
53491SOL     OW70402   6.119   3.352   7.851  0.6598  1.2478  0.0645
53491SOL    HW170403   6.071   3.366   7.770  0.7863  1.1529 -0.0274
53491SOL    HW270404   6.141   3.259   7.850  1.3766  1.4149 -0.1865
53492SOL     OW70405   9.322  12.781   9.087 -0.3722  0.1312  0.0602
53492SOL    HW170406   9.370  12.847   9.037 -0.0624  0.9025  1.3561
53492SOL    HW270407   9.283  12.724   9.019  3.4810 -1.4490 -1.1001
53493SOL     OW70408   8.974   2.466   2.956 -0.4968 -0.0927  0.5489
53493SOL    HW170409   8.886   2.428   2.963 -0.5667 -0.0502 -0.0591
53493SOL    HW270410   8.984   2.486   2.863  0.5690 -1.0995  0.4342
53494SOL     OW70411  13.061  12.230   5.214 -0.2225  0.6447  0.1129
53494SOL    HW170412  13.011  12.303   5.179  0.0591  0.8282  0.0872
53494SOL    HW270413  13.094  12.184   5.136  0.1795  0.8960  0.1337
53495SOL     OW70414   8.530  10.781   6.373 -0.3577 -0.3965 -0.4344
53495SOL    HW170415   8.485  10.697   6.365 -1.0105 -0.0924 -0.1218
53495SOL    HW270416   8.539  10.812   6.283  0.1464 -0.9324 -0.5697
53496SOL     OW70417   0.600   5.666   3.606 -0.8812 -0.5846  0.2885
53496SOL    HW170418   0.641   5.622   3.680 -2.6339 -1.2237  0.9493
53496SOL    HW270419   0.651   5.640   3.530  0.1552 -1.0042  1.1098
53497SOL     OW70420   4.983   1.284   6.394 -0.3326  0.0400  0.5658
53497SOL    HW170421   5.064   1.316   6.355 -0.4260 -1.7308 -1.2670
53497SOL    HW270422   5.010   1.206   6.444 -0.9282 -0.9440 -0.5889
53498SOL     OW70423   1.685   2.218   7.232  0.1708  0.3201 -0.5921
53498SOL    HW170424   1.600   2.261   7.226 -0.3160 -0.1932  1.5623
53498SOL    HW270425   1.664   2.124   7.230  0.7343  0.1908 -0.6288
53499SOL     OW70426   5.044   8.369   2.345  0.4088  0.4178 -0.2935
53499SOL    HW170427   5.074   8.441   2.400 -0.5552  0.6217 -0.0264
53499SOL    HW270428   4.972   8.406   2.294  1.5591  0.3612 -2.0362
53500SOL     OW70429   1.151   3.152   9.641  0.0303 -0.6955 -0.2795
53500SOL    HW170430   1.061   3.120   9.644  0.2929 -1.5668 -1.0730
53500SOL    HW270431   1.197   3.101   9.709  0.2597 -1.4045 -0.9533
53501SOL     OW70432   0.199   7.463   3.310 -0.3006  0.6327 -1.1799
53501SOL    HW170433   0.185   7.527   3.380 -0.4988 -0.9750  0.3335
53501SOL    HW270434   0.112   7.436   3.284 -0.2098  0.5740 -1.4216
53502SOL     OW70435   3.174   4.850   3.848  0.4157 -1.0949 -0.0725
53502SOL    HW170436   3.241   4.917   3.857  0.6474 -1.4457  1.0212
53502SOL    HW270437   3.196   4.784   3.914 -0.8896 -1.3176  0.1852
53503SOL     OW70438   5.802   9.812   8.641 -0.2625 -0.5656  0.4337
53503SOL    HW170439   5.847   9.895   8.629  0.2162 -0.6891  1.2504
53503SOL    HW270440   5.729   9.832   8.700  0.2595 -0.8312  1.1945
53504SOL     OW70441   5.234   8.732   2.708 -0.3124  0.5524  0.0857
53504SOL    HW170442   5.154   8.732   2.761 -0.6120  2.3250 -0.2961
53504SOL    HW270443   5.247   8.824   2.685  0.6661  0.0194 -1.6494
53505SOL     OW70444   5.232  12.113   7.384  0.3537 -0.2055  0.0313
53505SOL    HW170445   5.171  12.090   7.314  2.0611  0.6054 -1.8104
53505SOL    HW270446   5.212  12.204   7.404  1.1446  0.1719 -0.8260
53506SOL     OW70447   7.140   6.940  11.843  0.3332 -0.4337 -0.2644
53506SOL    HW170448   7.144   6.898  11.929 -0.1126 -0.2025 -0.1313
53506SOL    HW270449   7.099   6.875  11.786  3.6391 -1.9906 -1.1511
53507SOL     OW70450   2.899   5.330   1.289 -0.3593  0.3123 -0.2921
53507SOL    HW170451   2.929   5.382   1.364  0.8280  0.6653 -0.9879
53507SOL    HW270452   2.891   5.394   1.218  0.6987 -0.3630 -1.0458
53508SOL     OW70453   9.546   9.534  11.185  0.6081 -0.5930  0.2573
53508SOL    HW170454   9.603   9.607  11.208  0.4582  0.0223 -1.2248
53508SOL    HW270455   9.473   9.574  11.139 -0.4497 -1.4956  1.1022
53509SOL     OW70456   4.205   4.793   0.891 -0.3442 -0.0434 -0.3227
53509SOL    HW170457   4.217   4.718   0.949 -0.0155  0.7043  0.6027
53509SOL    HW270458   4.139   4.765   0.828 -2.0495 -0.2657  1.4897
53510SOL     OW70459   6.211   6.528   4.446 -0.3347 -0.3987  0.0886
53510SOL    HW170460   6.213   6.433   4.437  0.1100 -0.5050  1.1976
53510SOL    HW270461   6.119   6.552   4.429 -0.1402 -0.8200 -1.8228
53511SOL     OW70462   7.132   9.737   7.588  0.1446  0.1852  0.1709
53511SOL    HW170463   7.048   9.730   7.634  0.0185  1.3035  0.1198
53511SOL    HW270464   7.120   9.808   7.525  0.5125 -0.9302 -1.2072
53512SOL     OW70465  12.128   6.487  12.154 -0.4096  0.2082 -0.3568
53512SOL    HW170466  12.163   6.429  12.222 -1.1644  0.9674  0.7010
53512SOL    HW270467  12.060   6.538  12.198 -1.5182  0.1331 -1.8810
53513SOL     OW70468   4.487   1.085   0.012 -0.4159  0.1098 -0.0300
53513SOL    HW170469   4.499   1.023   0.084  0.2541 -0.4593 -0.6303
53513SOL    HW270470   4.396   1.072  -0.015 -0.7651  0.5192  0.8683
53514SOL     OW70471   3.616   5.959  12.881  0.0286  0.2866  0.2589
53514SOL    HW170472   3.685   5.924  12.825 -0.5936 -0.8776  0.1785
53514SOL    HW270473   3.646   6.046  12.905  1.2083  0.0576 -0.3129
53515SOL     OW70474   5.134   1.500   1.034  0.0647 -0.3223 -0.4063
53515SOL    HW170475   5.125   1.405   1.045 -1.3202 -0.0174  1.7193
53515SOL    HW270476   5.228   1.516   1.032  0.5216 -1.3842  3.8715
53516SOL     OW70477  13.187   5.867   7.474  0.1419  0.1921  0.0285
53516SOL    HW170478  13.127   5.794   7.492  0.6330  0.0536  1.1944
53516SOL    HW270479  13.271   5.824   7.454 -0.0097  0.3991 -1.1265
53517SOL     OW70480   7.144   7.579   4.758 -0.2638  0.0649  0.3609
53517SOL    HW170481   7.178   7.636   4.827 -1.4976  1.5590 -0.1944
53517SOL    HW270482   7.220   7.531   4.726  0.7325  1.0544  1.1898
53518SOL     OW70483   4.060  12.116   0.005 -0.3287 -0.3067 -0.2057
53518SOL    HW170484   4.033  12.204  -0.021 -1.8558 -0.6597  0.0914
53518SOL    HW270485   3.996  12.091   0.071  0.6343 -1.2978  0.3714
53519SOL     OW70486   0.920   1.559  11.803  0.3150  0.0699  0.4131
53519SOL    HW170487   0.901   1.623  11.734  0.3029 -0.1437  0.2175
53519SOL    HW270488   0.850   1.571  11.867  0.7593  0.8126  0.7742
53520SOL     OW70489   5.126   0.917   5.975  0.3083  0.3034 -0.0696
53520SOL    HW170490   5.116   0.980   5.904  0.2790 -1.1370 -1.3887
53520SOL    HW270491   5.105   0.832   5.936  2.8288 -0.8903  0.9494
53521SOL     OW70492  12.684   5.159   5.311  0.3859 -0.1872 -0.4745
53521SOL    HW170493  12.702   5.231   5.372  0.1566  0.2834 -0.9536
53521SOL    HW270494  12.589   5.159   5.301  0.3701 -0.6917 -0.3188
53522SOL     OW70495  13.168   5.777   6.278  0.4057 -0.1616  0.0382
53522SOL    HW170496  13.089   5.813   6.320  0.1970 -0.6231  0.0488
53522SOL    HW270497  13.200   5.848   6.223 -0.9842 -0.4914 -1.2880
53523SOL     OW70498   3.083   4.123   2.902  0.2023 -0.4150 -0.2239
53523SOL    HW170499   3.081   4.167   2.817  1.7745 -1.1141 -0.6416
53523SOL    HW270500   3.166   4.150   2.942 -0.7322  0.3106  1.3460
53524SOL     OW70501  11.167   6.234  13.003 -0.2872  0.3632  0.0037
53524SOL    HW170502  11.098   6.218  12.939 -0.6132  0.3767  0.3486
53524SOL    HW270503  11.132   6.199  13.085  0.1604  0.2671  0.1598
53525SOL     OW70504  11.976   4.841   9.316 -0.1088  0.0687  0.8467
53525SOL    HW170505  11.897   4.867   9.270 -2.6537 -0.5135  4.4351
53525SOL    HW270506  11.953   4.758   9.358  2.9256 -0.8278  0.9832
53526SOL     OW70507  12.619   4.512   2.695  0.0298 -0.3766 -0.2292
53526SOL    HW170508  12.569   4.438   2.730  0.2660 -0.5074 -0.1647
53526SOL    HW270509  12.564   4.546   2.624 -0.0253 -0.6926 -0.3403
53527SOL     OW70510   7.886   7.427   0.207  0.6172 -0.1866  0.6347
53527SOL    HW170511   7.848   7.351   0.252  0.0457 -0.1567  0.2062
53527SOL    HW270512   7.934   7.390   0.133 -1.0946 -0.0492 -0.6039
53528SOL     OW70513  11.904   7.889  11.309 -0.2545  0.2232 -0.5183
53528SOL    HW170514  11.936   7.979  11.302 -1.3515  0.6672 -0.0407
53528SOL    HW270515  11.953   7.852  11.383  0.7292  0.1728 -1.1712
53529SOL     OW70516   7.037  11.880   2.785  0.7067 -0.1696 -0.3839
53529SOL    HW170517   7.063  11.972   2.777  1.0434 -0.3470 -1.4809
53529SOL    HW270518   7.068  11.839   2.705 -3.0741 -0.3785 -1.9598
53530SOL     OW70519  12.480   8.292  11.237  0.1803 -0.2633 -0.1560
53530SOL    HW170520  12.521   8.256  11.315  2.7653  1.7524 -0.4712
53530SOL    HW270521  12.516   8.380  11.228 -1.1444  0.1323 -2.8259
53531SOL     OW70522   7.220   7.446  10.835  0.0090  0.5903  0.7490
53531SOL    HW170523   7.132   7.420  10.862 -0.8250  0.8671 -1.4297
53531SOL    HW270524   7.240   7.523  10.887 -0.4158 -0.3092  2.2952
53532SOL     OW70525   9.856   2.204  10.652 -0.0496 -0.4308  0.3748
53532SOL    HW170526   9.939   2.216  10.607  2.0683 -0.7419  3.8095
53532SOL    HW270527   9.858   2.113  10.683 -0.8725  0.0220  1.8808
53533SOL     OW70528   1.812   8.223   8.229  0.5268 -0.8002  0.3587
53533SOL    HW170529   1.740   8.231   8.292  1.6041 -0.0576  1.5746
53533SOL    HW270530   1.823   8.312   8.194  0.9077 -0.8784  0.2735
53534SOL     OW70531  12.109   6.690   1.833 -0.5237 -0.0751 -0.9426
53534SOL    HW170532  12.158   6.696   1.751 -1.6276 -2.2714 -1.8604
53534SOL    HW270533  12.157   6.627   1.886  0.0326  1.1286  0.0265
53535SOL     OW70534   9.759   3.404   1.896 -0.3452  0.0762 -0.0533
53535SOL    HW170535   9.699   3.478   1.905 -1.4244 -0.4734 -2.1456
53535SOL    HW270536   9.706   3.327   1.915  0.4277 -0.2620  0.8083
53536SOL     OW70537  11.747  11.869  12.313 -0.1619  0.5279 -0.2811
53536SOL    HW170538  11.698  11.847  12.234  0.0219 -0.8862 -0.0320
53536SOL    HW270539  11.837  11.885  12.282  0.0542 -0.6443 -0.3134
53537SOL     OW70540   8.623   8.566   5.283  0.4970 -0.4859 -0.3486
53537SOL    HW170541   8.600   8.541   5.193  1.2011 -1.3886 -0.2895
53537SOL    HW270542   8.589   8.495   5.337  1.4434 -0.7260 -0.0524
53538SOL     OW70543   9.574   6.330   8.541  0.2809 -0.1284  0.0240
53538SOL    HW170544   9.585   6.407   8.485  0.2383 -0.3054 -0.2257
53538SOL    HW270545   9.663   6.313   8.574  0.0204  1.0924  1.4981
53539SOL     OW70546   5.549   1.349   1.676 -0.0170  0.5868 -1.2450
53539SOL    HW170547   5.617   1.300   1.629 -0.2820 -0.9204 -0.1465
53539SOL    HW270548   5.469   1.331   1.627  0.3247  2.3700 -2.5447
53540SOL     OW70549  12.022   9.683  12.741  0.5291 -0.3813  0.0216
53540SOL    HW170550  12.080   9.699  12.667  0.4695 -2.4128 -0.5085
53540SOL    HW270551  12.081   9.674  12.816  0.7010  0.0353 -0.0580
53541SOL     OW70552  12.496   6.483   7.094 -0.2962 -0.0338 -0.2439
53541SOL    HW170553  12.510   6.441   7.009 -0.1274  1.3432 -0.9219
53541SOL    HW270554  12.402   6.497   7.099 -0.2296  0.6033 -0.5837
53542SOL     OW70555   4.087   4.181   1.335  0.0288 -0.4279 -0.4885
53542SOL    HW170556   4.099   4.110   1.399  0.6440  0.0038 -0.1212
53542SOL    HW270557   4.165   4.176   1.279 -1.2172 -1.8192 -2.2417
53543SOL     OW70558   9.560   6.439   5.706 -0.1503 -0.2204  0.2221
53543SOL    HW170559   9.559   6.357   5.656  0.6131  0.5709 -1.1705
53543SOL    HW270560   9.469   6.469   5.704 -0.2917 -0.6432  0.0730
53544SOL     OW70561  11.332  12.255   0.184  0.1271  0.1528  0.4880
53544SOL    HW170562  11.420  12.261   0.224  1.1540  0.6116 -1.7034
53544SOL    HW270563  11.349  12.249   0.090 -2.0887 -3.2031  0.1528
53545SOL     OW70564  11.145   7.965   1.564 -0.0365  0.1383 -0.5116
53545SOL    HW170565  11.204   8.038   1.583  1.5181  0.1009 -4.3025
53545SOL    HW270566  11.204   7.893   1.538 -1.6514 -0.9690 -1.2544
53546SOL     OW70567   8.332   4.426  11.684 -0.4395  0.6526  0.4371
53546SOL    HW170568   8.357   4.352  11.630 -0.1198  0.6607  0.5739
53546SOL    HW270569   8.288   4.387  11.760  0.0607  0.5777  0.6941
53547SOL     OW70570   3.386   6.117   6.886  0.0101  0.1227  0.0627
53547SOL    HW170571   3.477   6.143   6.902  0.1383 -0.8510  1.0919
53547SOL    HW270572   3.391   6.059   6.810  0.0314  1.2604 -0.8134
53548SOL     OW70573  10.044   1.019  10.873  0.5192 -0.1230 -0.0522
53548SOL    HW170574   9.995   1.025  10.791 -0.9912  2.6055  0.9259
53548SOL    HW270575   9.994   0.956  10.926  0.0417  0.0427 -0.3037
53549SOL     OW70576   3.678   4.093   7.431  0.4548  0.4092 -0.2147
53549SOL    HW170577   3.681   4.105   7.526 -0.6529  1.1257 -0.2511
53549SOL    HW270578   3.740   4.157   7.396  0.6372  0.3552  0.0035
53550SOL     OW70579   1.101   8.194   7.801  0.0996  0.2664  0.1788
53550SOL    HW170580   1.196   8.181   7.804  0.0468 -0.1377  0.1993
53550SOL    HW270581   1.089   8.288   7.787  0.5010  0.3462  0.3830
53551SOL     OW70582   7.440   4.254  11.553  0.3372 -0.1958 -0.3182
53551SOL    HW170583   7.416   4.232  11.463 -2.7286  1.0528  0.0748
53551SOL    HW270584   7.471   4.344  11.549 -0.2228  0.0089 -0.0696
53552SOL     OW70585  11.910   7.907   5.911 -0.2668  0.2704 -0.2919
53552SOL    HW170586  11.854   7.935   5.984 -3.0062 -0.7325 -1.8766
53552SOL    HW270587  11.915   7.984   5.854  0.2179  0.4409 -0.0243
53553SOL     OW70588  12.067   9.551  11.822 -0.9102 -0.2751  0.6295
53553SOL    HW170589  12.160   9.571  11.827 -1.0444  2.4550 -3.0799
53553SOL    HW270590  12.035   9.557  11.912  1.7551  3.3012  1.5510
53554SOL     OW70591   4.588   6.384   0.015 -0.6194  0.5974  0.2686
53554SOL    HW170592   4.605   6.290   0.022  1.7684  0.9426 -0.2394
53554SOL    HW270593   4.526   6.391  -0.058  0.4925 -0.4870 -0.8279
53555SOL     OW70594   4.392   1.821   1.971  0.0591  0.3584 -0.4080
53555SOL    HW170595   4.481   1.847   1.995  0.1338 -1.2892  1.3127
53555SOL    HW270596   4.393   1.815   1.876  2.3141 -1.2922 -0.3392
53556SOL     OW70597   1.682  12.465  10.859  0.1464  0.0494  0.7208
53556SOL    HW170598   1.655  12.399  10.795 -1.0512  0.7640  0.4625
53556SOL    HW270599   1.602  12.487  10.906  0.6911  0.7470  1.3394
53557SOL     OW70600   8.233  12.917   9.084 -0.0098 -0.3814  0.1511
53557SOL    HW170601   8.273  12.928   9.171  2.7423  1.9922 -1.2226
53557SOL    HW270602   8.215  12.824   9.077 -0.5057 -0.6255  3.3123
53558SOL     OW70603  10.755   5.221  13.239  0.5594 -0.4839  0.1857
53558SOL    HW170604  10.791   5.200  13.325  1.0898 -1.2761 -0.2103
53558SOL    HW270605  10.800   5.300  13.212  1.7113 -1.2161 -0.1093
53559SOL     OW70606  11.674   2.174   4.308 -0.2549  0.0188  0.1103
53559SOL    HW170607  11.713   2.232   4.373 -0.9020 -1.5624  2.0274
53559SOL    HW270608  11.586   2.210   4.293 -0.1303  0.3462  0.1614
53560SOL     OW70609   4.798   8.186   3.393  0.0675  0.2434 -0.8314
53560SOL    HW170610   4.822   8.156   3.480  0.7475  1.8323 -0.4281
53560SOL    HW270611   4.739   8.119   3.359 -1.8259  0.5477  1.6242
53561SOL     OW70612   6.650   6.746   7.931 -0.5196  0.0252 -0.0653
53561SOL    HW170613   6.596   6.819   7.903  0.7912  1.3969  0.8582
53561SOL    HW270614   6.647   6.748   8.027  0.0886 -0.6881 -0.0131
53562SOL     OW70615   8.294   6.897  12.818  0.1034  0.2103 -0.2105
53562SOL    HW170616   8.270   6.822  12.764  0.9185  0.2696 -0.6757
53562SOL    HW270617   8.302   6.969  12.755 -3.5869  1.4687  0.5144
53563SOL     OW70618   3.607   1.772  11.739 -0.0384 -0.6640 -0.1899
53563SOL    HW170619   3.702   1.780  11.733 -0.1876  0.8643 -1.1698
53563SOL    HW270620   3.586   1.693  11.689  0.6309 -0.3935 -0.9162
53564SOL     OW70621   0.719   3.726  10.577 -0.0744 -0.2245  0.3470
53564SOL    HW170622   0.730   3.646  10.526  0.9619  0.7019 -0.9746
53564SOL    HW270623   0.781   3.788  10.538 -0.4683  1.0666  1.6647
53565SOL     OW70624  10.666   1.964   4.220 -0.5320 -0.1590  0.0723
53565SOL    HW170625  10.740   2.012   4.183 -1.0802  0.5973 -0.0602
53565SOL    HW270626  10.671   1.981   4.314 -1.6605  1.5181 -0.1420
53566SOL     OW70627   6.584   8.420  13.252  0.6124  0.1894  0.0888
53566SOL    HW170628   6.614   8.331  13.238 -0.2350 -0.3114  1.2855
53566SOL    HW270629   6.584   8.431  13.347 -0.0188  1.1957 -0.0084
53567SOL     OW70630   2.041   4.455   7.630 -0.0971  1.5665 -0.0150
53567SOL    HW170631   1.951   4.466   7.660 -0.4256  2.8197 -1.3289
53567SOL    HW270632   2.090   4.433   7.709 -1.8626 -1.4032  0.4029
53568SOL     OW70633   2.156   3.285   9.287 -0.3493 -0.1177  0.3855
53568SOL    HW170634   2.193   3.215   9.341  0.2868  1.1019  1.5902
53568SOL    HW270635   2.064   3.289   9.313 -0.0404  0.4771  1.4286
53569SOL     OW70636   3.476   1.158   5.006  0.1710 -0.6701 -0.3599
53569SOL    HW170637   3.435   1.193   4.926 -0.0619 -0.3955 -0.1217
53569SOL    HW270638   3.558   1.118   4.975  0.6667  0.4750 -0.5853
53570SOL     OW70639   5.544   6.209  11.380 -0.4976 -0.1483  0.3970
53570SOL    HW170640   5.527   6.118  11.358  0.9470  0.0599 -1.9111
53570SOL    HW270641   5.591   6.205  11.463 -0.5114 -1.4824  0.3637
53571SOL     OW70642   3.909  10.152   6.149  0.4435 -0.2318  0.7608
53571SOL    HW170643   4.004  10.157   6.138  0.4509 -1.1003  0.3056
53571SOL    HW270644   3.875  10.233   6.109  0.9529 -0.1868  0.4166
53572SOL     OW70645   7.315  12.098  12.317  0.3645 -0.3184 -0.0371
53572SOL    HW170646   7.290  12.028  12.378  0.5098  0.5895  1.1215
53572SOL    HW270647   7.355  12.165  12.374  0.1469  0.7323 -1.0915
53573SOL     OW70648   8.256  13.024   7.458  0.0167 -0.1354 -0.3160
53573SOL    HW170649   8.332  13.022   7.399  0.8578  1.1026  0.6474
53573SOL    HW270650   8.239  12.933   7.479  0.3958 -0.5233 -1.5840
53574SOL     OW70651   1.793   1.926   6.064 -0.3112  0.0983 -0.0575
53574SOL    HW170652   1.751   1.987   6.123  2.1037 -0.1938  2.1241
53574SOL    HW270653   1.861   1.977   6.020 -1.7001  0.1765 -2.2944
53575SOL     OW70654   9.450   3.031   8.820 -0.7990  0.3845 -0.1561
53575SOL    HW170655   9.448   2.957   8.759 -0.9792 -0.6895  1.0972
53575SOL    HW270656   9.539   3.032   8.854 -0.9076  0.4891  0.1304
53576SOL     OW70657   3.849   2.530   6.232 -0.0225  0.2853 -0.0009
53576SOL    HW170658   3.858   2.492   6.145 -0.1772 -0.0614  0.1318
53576SOL    HW270659   3.938   2.529   6.268 -0.0896 -0.3683  0.1702
53577SOL     OW70660   3.529   3.588   5.842 -0.5098  0.3072 -0.0590
53577SOL    HW170661   3.552   3.555   5.929 -1.0403  0.9305  0.3281
53577SOL    HW270662   3.607   3.574   5.790  0.1698  0.8392  0.7821
53578SOL     OW70663  10.308   5.664  11.992  0.3259  0.0129  0.2746
53578SOL    HW170664  10.327   5.702  12.078  0.4486 -0.6037  0.5245
53578SOL    HW270665  10.223   5.621  12.003 -0.1070  0.7329 -0.1800
53579SOL     OW70666   0.730   1.028   3.086 -0.2917 -0.1001 -0.7284
53579SOL    HW170667   0.664   0.960   3.074 -0.4166 -0.9642  3.2582
53579SOL    HW270668   0.683   1.101   3.126  0.9551 -0.6936  2.1053
53580SOL     OW70669   7.054  10.945   7.067 -1.0927 -0.5103  0.2940
53580SOL    HW170670   7.092  10.889   6.999  2.1983  1.5913  0.1474
53580SOL    HW270671   6.982  10.990   7.024  0.5313  0.3292 -1.7506
53581SOL     OW70672   2.306   1.291   5.315  0.2689 -0.1790  0.2752
53581SOL    HW170673   2.257   1.241   5.250  1.6593 -0.1145 -0.8463
53581SOL    HW270674   2.327   1.374   5.271  2.4802 -0.7074  0.2603
53582SOL     OW70675   8.585  12.572   5.517 -0.0435 -0.1682  0.0742
53582SOL    HW170676   8.625  12.655   5.489 -0.7711 -0.4255 -1.8922
53582SOL    HW270677   8.515  12.557   5.454  0.1927 -2.3819  0.2720
53583SOL     OW70678   0.859   9.717  12.704 -0.2012 -0.1077 -0.0985
53583SOL    HW170679   0.891   9.677  12.623  2.3877  0.3607  0.5962
53583SOL    HW270680   0.875   9.811  12.693 -0.3982  0.0328  0.6992
53584SOL     OW70681   5.134   1.190  10.689 -0.4983  0.4830 -0.4689
53584SOL    HW170682   5.228   1.187  10.671 -0.4329  1.1125 -0.2774
53584SOL    HW270683   5.128   1.213  10.782 -0.8446 -0.6515 -0.1942
53585SOL     OW70684   9.776   3.881   6.078 -0.0726 -0.5858 -0.2866
53585SOL    HW170685   9.812   3.883   5.990  0.4897  1.0183 -0.0564
53585SOL    HW270686   9.693   3.928   6.071  0.8574  1.2225  0.3706
53586SOL     OW70687   3.370  12.407   8.736  0.6246 -0.0166  0.1024
53586SOL    HW170688   3.430  12.376   8.668 -1.3209  1.2854 -2.3996
53586SOL    HW270689   3.282  12.388   8.701 -0.4832  2.1912  1.4438
53587SOL     OW70690  11.572   2.653   2.087 -0.2457 -0.6722 -0.7113
53587SOL    HW170691  11.665   2.657   2.061  0.4193  0.0829  1.6031
53587SOL    HW270692  11.570   2.589   2.158 -1.5266 -0.6998 -0.7519
53588SOL     OW70693  11.906   3.203   6.561  0.3828  0.0289  0.4695
53588SOL    HW170694  11.918   3.265   6.633  0.7720 -0.6758  1.0260
53588SOL    HW270695  11.995   3.183   6.532  0.2716  3.3270 -2.9206
53589SOL     OW70696   4.444   6.785   4.773 -0.6755 -0.1074  0.4805
53589SOL    HW170697   4.493   6.731   4.711 -2.9667  0.5067 -2.0619
53589SOL    HW270698   4.491   6.869   4.774 -1.6464  0.5556 -2.0870
53590SOL     OW70699   0.970   8.645   9.813  0.5601 -0.0381 -0.9058
53590SOL    HW170700   1.029   8.665   9.741  0.6651  1.2608 -0.4914
53590SOL    HW270701   0.972   8.723   9.868 -1.5289  0.0763 -0.8785
53591SOL     OW70702  11.551  12.788   1.516 -0.5942  0.5165 -0.4163
53591SOL    HW170703  11.496  12.714   1.542 -1.7829  1.7241  0.6309
53591SOL    HW270704  11.527  12.858   1.576  1.6678  1.2988 -0.3348
53592SOL     OW70705   0.833   5.109   3.065  0.4148 -0.1327  0.7071
53592SOL    HW170706   0.885   5.148   3.135  1.9269  1.2598 -1.0837
53592SOL    HW270707   0.867   5.150   2.985 -1.2208 -1.6665 -0.8447
53593SOL     OW70708   8.402   1.730   3.635  0.2600 -0.1418  0.2411
53593SOL    HW170709   8.324   1.785   3.628  0.5461  0.2250 -0.0550
53593SOL    HW270710   8.471   1.788   3.666  1.4948  0.6173 -3.4011
53594SOL     OW70711   9.725   5.868  12.584  0.2418  0.6250  0.4932
53594SOL    HW170712   9.787   5.823  12.641 -0.7187  0.4969  1.4614
53594SOL    HW270713   9.685   5.798  12.531 -0.5740  0.4248  1.3444
53595SOL     OW70714  10.190   6.556   0.973  0.0742  0.9159 -0.6675
53595SOL    HW170715  10.282   6.576   0.956  0.2131  0.4240 -0.5228
53595SOL    HW270716  10.178   6.580   1.065  0.8150 -1.5524  0.1735
53596SOL     OW70717   0.659  10.286   7.641  0.2237  0.2386  0.2451
53596SOL    HW170718   0.605  10.318   7.569 -0.2151 -0.3686  0.2960
53596SOL    HW270719   0.631  10.337   7.717 -1.0858 -0.8199  0.5147
53597SOL     OW70720   6.634   2.919  12.365 -0.6778  0.2984 -0.0347
53597SOL    HW170721   6.714   2.916  12.418  0.9226  0.1383 -2.2929
53597SOL    HW270722   6.586   2.840  12.392  0.8147 -0.6159  0.1275
53598SOL     OW70723  11.576   7.440   4.828 -0.1457  0.0444  0.2857
53598SOL    HW170724  11.608   7.508   4.768  1.1370 -0.0177  0.8801
53598SOL    HW270725  11.481   7.451   4.827 -0.0988  0.5204 -1.1945
53599SOL     OW70726   8.156  11.965   2.267  0.3463  0.5189 -0.1868
53599SOL    HW170727   8.219  11.961   2.195 -1.1213  0.3297 -1.5337
53599SOL    HW270728   8.087  11.903   2.241 -0.2126  0.4295  1.4035
53600SOL     OW70729   6.162   8.474  13.305  0.3657 -0.1886 -0.2832
53600SOL    HW170730   6.228   8.425  13.255  1.3833  0.4467  0.3927
53600SOL    HW270731   6.137   8.546  13.247  1.1830  0.2670 -0.0862
53601SOL     OW70732  12.158   5.307  11.443  0.1687  0.7948  0.1567
53601SOL    HW170733  12.182   5.232  11.498 -0.5917 -0.1947 -0.8221
53601SOL    HW270734  12.239   5.357  11.436  1.4923 -1.3758 -1.3656
53602SOL     OW70735   3.045  10.451   7.470 -0.1709 -0.1862 -0.3943
53602SOL    HW170736   3.062  10.542   7.496 -1.4119  0.2928 -1.1789
53602SOL    HW270737   2.952  10.438   7.489 -0.5971 -0.4970 -2.4917
53603SOL     OW70738  11.432   5.882   6.170  0.2951  0.1324 -0.2109
53603SOL    HW170739  11.455   5.937   6.095 -0.5339 -1.2106 -1.5371
53603SOL    HW270740  11.515   5.862   6.212  1.1939 -1.3420 -2.4695
53604SOL     OW70741   9.755  10.786   2.125 -0.1824 -0.1426 -0.3738
53604SOL    HW170742   9.665  10.780   2.157 -0.0437  0.3213  0.1171
53604SOL    HW270743   9.775  10.697   2.094 -0.0578 -0.8229  1.5383
53605SOL     OW70744   2.549  12.678   8.702  0.3638 -0.2200  0.4556
53605SOL    HW170745   2.513  12.656   8.616  2.6650 -0.6257 -0.4587
53605SOL    HW270746   2.550  12.594   8.749  0.0137 -0.1762  0.5473
53606SOL     OW70747   4.466   1.499   0.755  0.0457  0.1257  0.8260
53606SOL    HW170748   4.540   1.558   0.740 -0.1324  0.0827 -0.2594
53606SOL    HW270749   4.388   1.554   0.747 -0.1899 -0.4452 -1.4687
53607SOL     OW70750   0.729   3.860   2.209  0.2854  0.1638  0.0588
53607SOL    HW170751   0.787   3.835   2.137  1.4167  0.1680  0.9555
53607SOL    HW270752   0.705   3.777   2.250  1.3478  0.2998  0.9735
53608SOL     OW70753   9.255  10.469   9.759  0.4633 -0.5769  0.8888
53608SOL    HW170754   9.207  10.469   9.842  0.3419  0.3241  0.8309
53608SOL    HW270755   9.207  10.407   9.704  1.5652 -2.5661  2.0277
53609SOL     OW70756   5.713   8.316   1.823  0.0710  0.4523  0.0803
53609SOL    HW170757   5.641   8.263   1.857 -0.1816  1.3223  0.9382
53609SOL    HW270758   5.766   8.254   1.773 -0.3872 -0.5444  0.7837
53610SOL     OW70759  12.378  10.027   2.914  0.1535 -0.2066  0.0965
53610SOL    HW170760  12.293  10.007   2.952 -0.2021 -0.0195 -0.5763
53610SOL    HW270761  12.395   9.956   2.852 -0.3116  0.6285 -1.0162
53611SOL     OW70762  13.128  11.673  11.010  0.1767 -0.3606 -0.4429
53611SOL    HW170763  13.201  11.711  10.962  1.1055  0.5136  1.5443
53611SOL    HW270764  13.058  11.738  11.003  0.4803 -0.0015 -0.2319
53612SOL     OW70765   7.117  11.758   0.673 -0.9229  0.1493 -0.5284
53612SOL    HW170766   7.171  11.832   0.702  0.0057  0.2979 -2.4992
53612SOL    HW270767   7.148  11.684   0.725 -0.0615  0.6103 -0.3644
53613SOL     OW70768  12.874   7.886  12.892  0.4580 -0.3632 -0.4530
53613SOL    HW170769  12.911   7.848  12.812  0.0657 -0.9597 -0.3531
53613SOL    HW270770  12.812   7.821  12.923  2.0887 -1.0853  1.4805
53614SOL     OW70771   6.276   3.530  12.178  0.0414 -0.2809  0.4808
53614SOL    HW170772   6.189   3.498  12.204  0.6325 -1.4039  1.1286
53614SOL    HW270773   6.261   3.621  12.151 -0.7084  0.9132  4.3247
53615SOL     OW70774  10.757   4.910   1.683  0.1033  0.2500 -0.2323
53615SOL    HW170775  10.687   4.852   1.712 -0.4890  2.0099  2.0588
53615SOL    HW270776  10.835   4.878   1.729  0.4008 -0.3840 -1.1342
53616SOL     OW70777   2.123   3.046   8.730  0.2239 -0.0409  0.0082
53616SOL    HW170778   2.080   3.090   8.657 -1.7066 -1.9749 -0.1146
53616SOL    HW270779   2.088   3.090   8.808 -0.5525 -0.3801 -0.1432
53617SOL     OW70780   7.066   2.678  11.068 -0.5797  0.2514  0.4052
53617SOL    HW170781   7.028   2.730  11.138 -0.7441  2.2840 -1.1065
53617SOL    HW270782   7.159   2.698  11.071 -0.5520  0.1581  0.1812
53618SOL     OW70783   3.291  13.158   1.931  0.1463  0.0730  0.2882
53618SOL    HW170784   3.199  13.169   1.909  0.6604  0.2085 -2.0825
53618SOL    HW270785   3.331  13.243   1.910  1.1283 -0.5989 -0.6754
53619SOL     OW70786   2.160   7.001   1.714 -0.4112 -0.5765  0.0463
53619SOL    HW170787   2.223   6.952   1.767  1.4687  0.4014 -1.1445
53619SOL    HW270788   2.180   6.975   1.624 -3.1037 -1.7338 -0.3075
53620SOL     OW70789   0.804   6.914   7.068  0.2985 -0.2429 -0.0720
53620SOL    HW170790   0.897   6.904   7.086  0.5282  1.2085 -0.2857
53620SOL    HW270791   0.769   6.955   7.148 -0.4989 -2.2168  0.6556
53621SOL     OW70792   0.115   6.063  10.688 -0.0236 -0.4322  0.2403
53621SOL    HW170793   0.121   5.975  10.727 -0.5589 -0.6268 -0.1138
53621SOL    HW270794   0.118   6.047  10.594  1.4406  0.0485  0.1697
53622SOL     OW70795   7.355   2.095   4.667  0.3047 -0.1391 -0.2733
53622SOL    HW170796   7.343   2.104   4.762  1.1434 -0.0691 -0.1654
53622SOL    HW270797   7.437   2.141   4.649  1.0462 -1.5855 -0.7762
53623SOL     OW70798  10.854  12.617   6.342 -0.2405  0.6464 -0.4050
53623SOL    HW170799  10.831  12.578   6.426 -1.5845 -1.2938 -1.5987
53623SOL    HW270800  10.888  12.545   6.289 -0.7982  1.4935 -2.0028
53624SOL     OW70801  11.516  11.236   7.298  0.8563 -0.2437  0.4225
53624SOL    HW170802  11.428  11.267   7.321  0.9386  0.6465 -0.3892
53624SOL    HW270803  11.529  11.159   7.353 -0.8399 -0.9874 -0.1238
53625SOL     OW70804   3.889   0.637   4.792 -0.3347  0.1113  1.1085
53625SOL    HW170805   3.882   0.596   4.878  1.8885  2.2928  2.4572
53625SOL    HW270806   3.947   0.580   4.742 -2.8629 -2.0084  0.3687
53626SOL     OW70807  10.821  10.843   3.081  1.1415  0.1825  0.4730
53626SOL    HW170808  10.878  10.805   3.148  2.4022  2.5530  0.8753
53626SOL    HW270809  10.771  10.911   3.128 -1.7184 -1.4326  0.0027
53627SOL     OW70810   4.977  10.954   0.365  0.4571 -0.3034  0.3411
53627SOL    HW170811   5.020  10.942   0.280  0.8061  0.0289  0.4699
53627SOL    HW270812   5.046  10.938   0.429  0.5249  0.7544  0.5438
53628SOL     OW70813  12.772   7.389   1.304  0.4469 -0.2933 -0.4773
53628SOL    HW170814  12.705   7.370   1.237 -0.2097 -1.8897  0.5694
53628SOL    HW270815  12.811   7.303   1.323  1.0810  0.2428  0.7027
53629SOL     OW70816   1.872   3.662   7.647  0.3280 -0.3810 -0.1265
53629SOL    HW170817   1.797   3.710   7.682 -0.1267 -1.8033  0.9653
53629SOL    HW270818   1.901   3.714   7.573 -0.7380  1.0480  0.3999
53630SOL     OW70819   0.043   4.267   4.471 -0.5880  0.3714 -0.9955
53630SOL    HW170820  -0.010   4.194   4.503 -0.2165  0.9597  1.1646
53630SOL    HW270821   0.125   4.259   4.520 -0.6514  2.3694 -0.4828
53631SOL     OW70822   7.864   9.844   2.097  0.1523 -0.0665  0.1484
53631SOL    HW170823   7.814   9.807   2.025 -2.0079 -0.2761  1.6575
53631SOL    HW270824   7.808   9.914   2.132  1.5666  0.6908  1.0321
53632SOL     OW70825   5.406   3.276   0.384  0.0326 -0.2469  0.1561
53632SOL    HW170826   5.467   3.241   0.450 -1.2638 -2.3535  0.3302
53632SOL    HW270827   5.331   3.306   0.434  0.0653  0.4682 -0.2090
53633SOL     OW70828   6.036   6.244   3.850 -0.1123  0.4150 -0.6816
53633SOL    HW170829   5.943   6.218   3.850 -0.3917  1.2848  0.8170
53633SOL    HW270830   6.082   6.166   3.881 -0.1296 -0.5169 -2.8150
53634SOL     OW70831   8.266   2.422  11.039 -0.2696  0.2306  0.3102
53634SOL    HW170832   8.267   2.441  11.133 -0.4280  0.2418  0.3089
53634SOL    HW270833   8.216   2.340  11.032 -1.1499  0.7741  0.1294
53635SOL     OW70834  11.416   4.174   4.744  0.0156  0.3241 -0.5308
53635SOL    HW170835  11.344   4.141   4.691 -0.2438  0.5204 -0.3013
53635SOL    HW270836  11.431   4.107   4.810  0.4132  0.0265 -0.9169
53636SOL     OW70837   4.229   6.253   2.216 -0.2580 -0.3054 -0.6995
53636SOL    HW170838   4.155   6.263   2.276 -0.8899  1.3796 -1.6993
53636SOL    HW270839   4.278   6.335   2.225  0.3240 -0.5450 -1.5763
53637SOL     OW70840  12.401   7.811   1.873  0.4188  0.1047  0.4211
53637SOL    HW170841  12.420   7.776   1.786 -0.1736 -0.3124  0.4496
53637SOL    HW270842  12.450   7.755   1.933  2.5894  1.7146  0.2582
53638SOL     OW70843   5.083   9.909   4.733 -0.1240 -0.3620  0.1780
53638SOL    HW170844   5.089   9.971   4.660  0.4170  0.2514  0.7335
53638SOL    HW270845   5.101   9.824   4.694 -1.5868 -0.2916 -0.7372
53639SOL     OW70846  12.964   7.361   5.866  0.3347 -0.7478  1.0176
53639SOL    HW170847  12.870   7.345   5.877  0.1433  0.6229  1.6369
53639SOL    HW270848  12.999   7.277   5.836 -1.1420 -1.1800  0.3875
53640SOL     OW70849   9.805   7.839  12.412  0.3821 -0.0316 -0.3671
53640SOL    HW170850   9.843   7.764  12.457  0.4947 -0.3810 -1.0306
53640SOL    HW270851   9.718   7.809  12.385  0.8897 -0.3573 -1.7075
53641SOL     OW70852   4.446   4.333   9.557 -0.4718 -0.5762 -0.1668
53641SOL    HW170853   4.508   4.396   9.521 -1.3057 -0.0032 -0.6493
53641SOL    HW270854   4.370   4.338   9.498 -1.2492 -0.7529  0.7873
53642SOL     OW70855  10.235   9.200   8.581 -0.0831 -0.1033 -0.4081
53642SOL    HW170856  10.268   9.275   8.630 -0.3412 -1.3373  1.7714
53642SOL    HW270857  10.189   9.147   8.646 -1.8937 -1.0354 -2.3230
53643SOL     OW70858  12.284   3.856   7.203  0.1576 -0.4841 -0.2812
53643SOL    HW170859  12.354   3.883   7.263 -1.7051 -0.8911  2.2421
53643SOL    HW270860  12.249   3.938   7.169  0.7486 -0.1993 -0.2171
53644SOL     OW70861   9.621   2.824  12.953  0.1905  0.3602 -0.1775
53644SOL    HW170862   9.535   2.853  12.925  0.9102  2.7127 -0.1644
53644SOL    HW270863   9.660   2.784  12.875 -0.3966  0.5650 -0.5786
53645SOL     OW70864   6.230   9.139   4.492 -0.2924 -1.0485 -0.3426
53645SOL    HW170865   6.242   9.114   4.401 -2.7215  1.0559 -1.3779
53645SOL    HW270866   6.279   9.220   4.502  1.4635 -2.1752  0.8424
53646SOL     OW70867  12.340   1.447  11.948 -0.3435 -0.3891  0.5295
53646SOL    HW170868  12.285   1.388  12.000  1.7655 -1.7584  1.3706
53646SOL    HW270869  12.345   1.405  11.862 -0.0392 -0.6793  0.6836
53647SOL     OW70870   6.534  13.216   5.195  0.3216 -0.1818 -0.2929
53647SOL    HW170871   6.563  13.275   5.125 -0.4480 -1.0488 -1.3672
53647SOL    HW270872   6.535  13.129   5.156  0.1476 -0.7217  0.8675
53648SOL     OW70873   6.723  10.715   1.135 -0.3575  0.6185  0.0050
53648SOL    HW170874   6.708  10.721   1.040  0.3001  0.7939 -0.0906
53648SOL    HW270875   6.778  10.790   1.156  0.0963  0.1842  0.4044
53649SOL     OW70876   8.342  12.494  12.581 -0.2500  0.0039  0.3100
53649SOL    HW170877   8.419  12.531  12.539 -0.4710 -0.1693 -0.2690
53649SOL    HW270878   8.279  12.482  12.509 -0.6161 -0.3556  0.6822
53650SOL     OW70879   7.362   0.241   6.644  0.0252 -0.0452 -0.3245
53650SOL    HW170880   7.441   0.188   6.629  1.0003  1.1657  0.3363
53650SOL    HW270881   7.366   0.309   6.577  0.6612  1.2343  0.9689
53651SOL     OW70882   0.973  10.715   7.032  0.0200 -0.2245  0.0720
53651SOL    HW170883   0.964  10.650   6.962 -1.9282  0.2643 -0.1772
53651SOL    HW270884   0.965  10.664   7.113 -1.4991 -0.3465 -0.1213
53652SOL     OW70885   4.542  10.812   2.246 -0.5521 -0.9533  0.5671
53652SOL    HW170886   4.626  10.775   2.272 -0.2770 -1.4489 -0.9286
53652SOL    HW270887   4.483  10.736   2.243 -0.3350 -1.0901 -1.1239
53653SOL     OW70888  11.628   2.957   7.347 -0.0340  0.1049  0.6891
53653SOL    HW170889  11.706   3.008   7.327  0.3525 -0.7237 -0.0121
53653SOL    HW270890  11.564   3.021   7.378 -0.0683  1.2274 -1.5432
53654SOL     OW70891  12.713   8.289   3.904 -0.0915  0.2477 -0.4285
53654SOL    HW170892  12.752   8.321   3.823  1.0688 -0.2530 -0.0857
53654SOL    HW270893  12.619   8.281   3.884  0.1223  0.4884 -1.5912
53655SOL     OW70894  11.630  12.451  10.805  0.0950  0.3626  0.1409
53655SOL    HW170895  11.638  12.356  10.803  2.3099  0.5093 -1.1922
53655SOL    HW270896  11.595  12.474  10.719 -0.8229  0.7610  0.6047
53656SOL     OW70897   2.090   2.880   3.189 -0.1319 -0.0375  0.0761
53656SOL    HW170898   2.089   2.898   3.095 -0.8523 -1.1184 -0.1478
53656SOL    HW270899   1.999   2.889   3.216  0.0279 -0.0206  0.6160
53657SOL     OW70900  11.091  10.228  13.190 -0.6847 -0.4689  1.0972
53657SOL    HW170901  11.164  10.207  13.249  0.0709 -0.2750  0.2553
53657SOL    HW270902  11.026  10.271  13.246  1.5162  3.0742  1.2388
53658SOL     OW70903  12.854   2.849   3.427 -0.3828  0.7760 -0.5411
53658SOL    HW170904  12.759   2.837   3.423 -0.2237 -1.3785  0.5779
53658SOL    HW270905  12.871   2.883   3.515 -0.0541  0.0112 -0.2985
53659SOL     OW70906   7.231   4.255   8.932  0.1379 -0.4886 -0.7188
53659SOL    HW170907   7.243   4.345   8.962  1.7200 -0.5059 -1.2284
53659SOL    HW270908   7.136   4.245   8.925 -0.0660  1.2011 -0.8443
53660SOL     OW70909  12.570   6.590   1.653 -0.5629  0.2248  0.1933
53660SOL    HW170910  12.535   6.678   1.638  0.3275  0.4363 -0.7444
53660SOL    HW270911  12.664   6.598   1.638  0.0178 -0.2659  2.9556
53661SOL     OW70912  11.155  10.552   5.292 -0.3553 -0.1999 -0.4023
53661SOL    HW170913  11.220  10.489   5.260 -0.9796 -0.9448 -0.2471
53661SOL    HW270914  11.075  10.500   5.302 -0.6946  0.4573  0.4249
53662SOL     OW70915   1.875   3.869   3.894 -0.4958  0.2132 -0.1366
53662SOL    HW170916   1.876   3.784   3.852  0.7215 -0.6596  1.5236
53662SOL    HW270917   1.793   3.910   3.865 -0.1595 -0.6574 -2.5424
53663SOL     OW70918  11.610   7.265   5.598 -0.6297  0.1848  0.2339
53663SOL    HW170919  11.645   7.339   5.548  1.9840 -0.2095  1.3456
53663SOL    HW270920  11.649   7.188   5.559 -3.2378 -0.7099 -0.8266
53664SOL     OW70921   2.166   1.835   5.383 -0.3021 -0.1579  0.1444
53664SOL    HW170922   2.090   1.787   5.348 -0.7042 -1.8368  2.9789
53664SOL    HW270923   2.129   1.916   5.419 -0.0366  1.0643 -2.1655
53665SOL     OW70924   7.625   0.633   0.155 -0.2387 -0.5337  0.0632
53665SOL    HW170925   7.659   0.544   0.162 -1.0962 -0.9362 -0.7637
53665SOL    HW270926   7.553   0.627   0.093 -0.0720  0.8131 -0.2960
53666SOL     OW70927   6.729  10.238  10.353  0.5484  0.4651  0.5981
53666SOL    HW170928   6.759  10.151  10.377 -0.2504 -0.0439 -0.2185
53666SOL    HW270929   6.808  10.293  10.358  1.1071 -0.3463  0.8388
53667SOL     OW70930   4.761  12.910   4.806 -0.4527  0.1043 -0.2066
53667SOL    HW170931   4.796  12.879   4.723  2.8185  2.9753 -0.1383
53667SOL    HW270932   4.780  12.839   4.868  0.0663 -0.7386 -1.3093
53668SOL     OW70933   4.831  13.197   4.812 -0.6607 -0.0756 -0.6879
53668SOL    HW170934   4.796  13.108   4.802  1.2183 -0.9807  0.1912
53668SOL    HW270935   4.820  13.216   4.906 -0.1912  0.2333 -0.6945
53669SOL     OW70936   5.158  12.364   8.163  0.3652  0.2844 -0.3332
53669SOL    HW170937   5.139  12.311   8.240  1.4359  0.5284  0.1166
53669SOL    HW270938   5.075  12.367   8.115 -0.5879  0.9382  1.2837
53670SOL     OW70939   6.516  12.736   2.935  0.2135 -0.0993 -0.3625
53670SOL    HW170940   6.425  12.708   2.919  0.1995 -0.6764  0.6464
53670SOL    HW270941   6.532  12.803   2.869 -0.8071 -0.2954 -0.8354
53671SOL     OW70942   7.672   9.037   4.797 -0.0658 -0.7063 -0.2938
53671SOL    HW170943   7.605   9.050   4.864  0.0189 -0.6798 -0.2134
53671SOL    HW270944   7.754   9.033   4.846  0.1741  0.9218 -0.5218
53672SOL     OW70945   1.174  11.301   7.140 -0.0529 -0.4790  0.1846
53672SOL    HW170946   1.144  11.243   7.209 -0.1881 -2.2593 -1.2953
53672SOL    HW270947   1.124  11.276   7.062  2.7798 -1.3030 -1.5478
53673SOL     OW70948   0.624  10.271  11.366  0.2961 -0.1558  0.1011
53673SOL    HW170949   0.576  10.265  11.449  0.1669 -0.1404  0.0285
53673SOL    HW270950   0.623  10.364  11.344  1.1870 -0.0174  0.5787
53674SOL     OW70951   4.922   3.217  11.940 -0.1870 -0.0517  0.7458
53674SOL    HW170952   4.908   3.173  12.024  2.7795 -0.8664  0.9266
53674SOL    HW270953   4.942   3.146  11.879 -2.0489  0.5531 -0.6696
53675SOL     OW70954   6.362  12.794  11.132  0.4502 -0.0552  0.0927
53675SOL    HW170955   6.292  12.777  11.070  1.3383 -0.0636 -0.9444
53675SOL    HW270956   6.318  12.818  11.213 -0.7386 -0.0599 -0.5403
53676SOL     OW70957   3.969   1.511   9.797 -0.1253  0.2440  0.8834
53676SOL    HW170958   4.022   1.512   9.717  0.3824 -2.1368  1.0844
53676SOL    HW270959   3.908   1.439   9.784 -0.9538  0.6959  2.0981
53677SOL     OW70960   5.923   4.270   3.511 -0.2168  0.0352  0.5760
53677SOL    HW170961   5.912   4.179   3.485 -0.6537  0.1508  0.3404
53677SOL    HW270962   5.833   4.303   3.519 -0.0524  0.6260  0.0138
53678SOL     OW70963  11.402   7.039   6.728  0.7089  1.4063 -0.2368
53678SOL    HW170964  11.334   6.975   6.710  0.7342  1.4723 -0.5646
53678SOL    HW270965  11.454   7.043   6.648 -0.0798  2.8153 -0.6981
53679SOL     OW70966   7.611  11.097  13.146 -0.4594  0.3509 -0.1898
53679SOL    HW170967   7.662  11.025  13.109 -0.6668 -0.6694  1.3942
53679SOL    HW270968   7.638  11.101  13.238 -0.3680  2.3970 -0.2498
53680SOL     OW70969   2.272   5.412   4.635 -0.3648  0.0765 -0.5530
53680SOL    HW170970   2.332   5.471   4.682 -1.7462  1.4037 -0.3767
53680SOL    HW270971   2.185   5.445   4.656 -1.1060 -0.5463 -2.4265
53681SOL     OW70972   6.623  11.850  12.538 -0.0671 -0.0772 -0.3715
53681SOL    HW170973   6.582  11.766  12.516 -0.5169 -0.8440  2.8167
53681SOL    HW270974   6.565  11.888  12.605  1.2150  1.7893 -0.2338
53682SOL     OW70975   7.911   1.024   4.312  0.4675 -0.5628 -0.4881
53682SOL    HW170976   7.895   0.980   4.229 -0.3375 -1.3480  0.0707
53682SOL    HW270977   7.836   1.082   4.324 -0.4218 -1.8866  0.6001
53683SOL     OW70978   3.527  11.924   1.429 -0.2130  0.2332  0.1856
53683SOL    HW170979   3.467  11.856   1.460 -1.3532  0.5732 -1.1933
53683SOL    HW270980   3.572  11.884   1.355  0.8512  0.2038  0.8234
53684SOL     OW70981   0.909   5.574   9.739  0.1972  0.1845  0.3938
53684SOL    HW170982   0.975   5.624   9.787  0.7645  0.8841 -1.0529
53684SOL    HW270983   0.897   5.494   9.790  0.2694  1.1669  2.0463
53685SOL     OW70984   0.709   6.475  11.453  0.0968 -0.2543  0.0398
53685SOL    HW170985   0.707   6.397  11.397 -3.4474  0.3119 -0.8713
53685SOL    HW270986   0.692   6.442  11.541  0.6240 -0.6876 -0.0178
53686SOL     OW70987   9.783   3.454   7.766 -0.2358  0.2480  0.0387
53686SOL    HW170988   9.796   3.453   7.672 -0.1629 -0.2820  0.0538
53686SOL    HW270989   9.871   3.447   7.803 -0.2343  0.7935  0.1506
53687SOL     OW70990  13.182   3.201   8.534  0.0853  0.0456 -0.1353
53687SOL    HW170991  13.194   3.108   8.555 -0.7111  0.0340  0.3340
53687SOL    HW270992  13.223   3.248   8.607  0.3006  0.0637 -0.2662
53688SOL     OW70993  12.428   9.918   5.289  0.2344 -0.2082 -0.5214
53688SOL    HW170994  12.390   9.849   5.234  1.8107 -1.0502 -0.5997
53688SOL    HW270995  12.461   9.983   5.226 -0.0936 -0.0025 -0.4841
53689SOL     OW70996   8.307   8.177  11.029  0.3152  0.1960  0.1699
53689SOL    HW170997   8.362   8.114  10.982  0.7400  1.5759 -1.2628
53689SOL    HW270998   8.369   8.237  11.071  0.0240  2.0803 -1.8850
53690SOL     OW70999  12.369   9.526   8.723 -0.3910 -0.2959  0.4524
53690SOL    HW171000  12.463   9.538   8.741  0.2106  1.1859 -2.8861
53690SOL    HW271001  12.363   9.437   8.690 -0.2954 -0.6345  1.3308
53691SOL     OW71002  12.489   8.254  13.291 -0.0209  0.0713 -0.1066
53691SOL    HW171003  12.448   8.207  13.219 -1.8823 -0.0657  0.9769
53691SOL    HW271004  12.581   8.230  13.287  0.3164  1.4081 -3.4624
53692SOL     OW71005   4.399   2.243   7.359  0.1808 -0.4875  0.4976
53692SOL    HW171006   4.400   2.188   7.280  0.4745  1.5178 -0.9956
53692SOL    HW271007   4.443   2.324   7.331  0.0988  0.3650  2.6924
53693SOL     OW71008   8.168   2.008   0.427  0.0346  0.0804  0.1244
53693SOL    HW171009   8.158   1.922   0.467  0.7330  0.4069  1.0409
53693SOL    HW271010   8.169   1.991   0.333 -1.4151 -0.7290  0.2397
53694SOL     OW71011   6.249  10.896   6.907  0.1661 -0.4705 -0.2208
53694SOL    HW171012   6.293  10.962   6.961 -0.7929  0.4542 -0.5227
53694SOL    HW271013   6.299  10.816   6.921  2.2726  0.6346 -0.9783
53695SOL     OW71014   9.975   5.581   5.384  0.3886  0.5757  0.5590
53695SOL    HW171015  10.029   5.514   5.425  0.3765  0.2855  0.1040
53695SOL    HW271016   9.917   5.610   5.454  0.9485  0.6989  0.9767
53696SOL     OW71017   4.831  10.494   3.573 -0.5956  0.6394 -0.0381
53696SOL    HW171018   4.802  10.453   3.655  2.4487 -0.3805  0.6304
53696SOL    HW271019   4.904  10.550   3.599  1.2903 -0.6747 -2.1483
53697SOL     OW71020   1.100   9.031  11.432 -0.0771 -0.1309 -0.2533
53697SOL    HW171021   1.176   8.975  11.445  0.4942  0.7730  0.3476
53697SOL    HW271022   1.122   9.084  11.356 -0.8609 -1.1007 -1.1882
53698SOL     OW71023   5.419   7.439   4.779 -0.2648 -0.4414 -0.0394
53698SOL    HW171024   5.349   7.500   4.755  0.6068  0.2923 -0.8121
53698SOL    HW271025   5.402   7.417   4.870 -1.7043 -0.5585 -0.3117
53699SOL     OW71026  13.116   0.084  10.896  0.3997  0.9212  0.1907
53699SOL    HW171027  13.040   0.048  10.941 -0.0679  2.0169  0.3103
53699SOL    HW271028  13.091   0.085  10.804 -0.2875  2.5072  0.3584
53700SOL     OW71029  12.464   8.578   8.181  0.0703 -0.2729 -0.5248
53700SOL    HW171030  12.485   8.645   8.116 -0.3998  0.4483  0.0502
53700SOL    HW271031  12.380   8.543   8.154  0.3495 -0.6909 -0.8651
53701SOL     OW71032   5.078  11.507   0.494  0.2465  0.3429 -0.6178
53701SOL    HW171033   5.086  11.448   0.570 -0.5255 -0.1936 -0.9488
53701SOL    HW271034   5.106  11.592   0.528 -1.4973  0.4498  0.7065
53702SOL     OW71035   5.708  10.114   5.363  0.0425  0.0095 -0.4333
53702SOL    HW171036   5.762  10.057   5.417  0.3653  0.9163  0.2146
53702SOL    HW271037   5.622  10.114   5.406 -0.3252 -0.9366 -1.1179
53703SOL     OW71038   4.908  11.230   5.392  0.0373  0.0530  0.0900
53703SOL    HW171039   4.907  11.248   5.298 -0.5358 -2.8309 -0.5482
53703SOL    HW271040   4.835  11.280   5.427 -1.1143 -0.5174 -1.4124
53704SOL     OW71041  10.553  10.470   2.750 -0.0126 -0.1870  0.6681
53704SOL    HW171042  10.637  10.439   2.715  0.4309  1.4624  0.2122
53704SOL    HW271043  10.555  10.447   2.843  0.9920 -0.0752  0.6820
53705SOL     OW71044  11.921   7.202   4.382  0.1225  0.0552  0.1513
53705SOL    HW171045  11.956   7.240   4.463 -0.7627  0.2906  0.4329
53705SOL    HW271046  11.962   7.252   4.312  1.7473 -0.8543  0.3946
53706SOL     OW71047   8.009  11.172   1.264  0.5493 -0.7231  0.2301
53706SOL    HW171048   8.097  11.135   1.277  1.0013 -0.3722 -1.5775
53706SOL    HW271049   7.954  11.095   1.250  0.6022 -0.9298  1.0738
53707SOL     OW71050  12.817   0.778   5.098  0.3345  0.3035  0.2652
53707SOL    HW171051  12.826   0.749   5.189  2.4713 -1.4367 -0.4035
53707SOL    HW271052  12.753   0.718   5.060  0.4400  0.1639  0.3055
53708SOL     OW71053   0.666   8.709   6.849 -0.1967  0.4507 -0.4342
53708SOL    HW171054   0.579   8.731   6.815 -0.5258  0.3469  0.3144
53708SOL    HW271055   0.708   8.793   6.863 -0.5004  0.5308  0.0140
53709SOL     OW71056  10.049   9.416   1.431  0.2131 -0.3840 -0.2544
53709SOL    HW171057  10.046   9.501   1.474  0.4367 -0.4769 -0.0488
53709SOL    HW271058  10.036   9.435   1.338 -0.6697 -0.2222 -0.1048
53710SOL     OW71059   2.900  12.330   2.792 -0.6203 -0.0688 -0.1819
53710SOL    HW171060   2.947  12.409   2.766  1.1419 -0.5818  1.2519
53710SOL    HW271061   2.932  12.262   2.733 -1.1761  0.0016 -0.5764
53711SOL     OW71062   7.883   0.187   9.518 -0.1744 -0.3662 -0.7654
53711SOL    HW171063   7.860   0.198   9.425  0.0191 -1.4237 -0.9541
53711SOL    HW271064   7.870   0.273   9.556  0.1696  0.2051 -1.8764
53712SOL     OW71065  10.340  11.686   9.792 -0.6384 -0.0110 -0.4267
53712SOL    HW171066  10.339  11.782   9.792 -2.5452  0.0127 -1.0637
53712SOL    HW271067  10.259  11.662   9.837 -0.3748 -1.3239 -0.6299
53713SOL     OW71068  10.646   5.124   5.207 -0.0158 -0.4790  0.3561
53713SOL    HW171069  10.626   5.200   5.262 -0.8103 -0.2330 -0.2439
53713SOL    HW271070  10.721   5.150   5.154  0.6166 -0.6410  1.1697
53714SOL     OW71071  12.659   4.235   5.886 -0.4304  0.0056 -0.2056
53714SOL    HW171072  12.615   4.176   5.947  0.4437  0.0418  0.4894
53714SOL    HW271073  12.743   4.192   5.868 -0.3096  0.4311 -0.6834
53715SOL     OW71074   6.750   4.293   0.218  0.3587 -0.0769  0.0870
53715SOL    HW171075   6.657   4.298   0.196  0.2623  0.3693  0.5927
53715SOL    HW271076   6.772   4.200   0.206 -0.6121 -0.5662  1.7890
53716SOL     OW71077  11.151   9.711   2.977  0.9706 -0.0246  0.3187
53716SOL    HW171078  11.083   9.660   2.935  2.4862 -1.8213 -0.0700
53716SOL    HW271079  11.162   9.671   3.063  0.6789  1.0693  0.8885
53717SOL     OW71080   9.479   4.509  12.169  0.1316 -0.3500  0.2959
53717SOL    HW171081   9.495   4.472  12.082 -1.2920 -0.0423 -0.1400
53717SOL    HW271082   9.521   4.595  12.166 -2.2954  0.9215 -1.2075
53718SOL     OW71083   3.946   3.431   5.886  0.0082 -0.3411  0.5019
53718SOL    HW171084   4.020   3.422   5.826 -0.3866  0.1072 -0.0594
53718SOL    HW271085   3.947   3.350   5.937 -0.5275 -1.3926 -1.0797
53719SOL     OW71086   1.389   6.549   6.646  0.2388  0.0669  0.0495
53719SOL    HW171087   1.401   6.639   6.615  0.5851  0.0818  0.2276
53719SOL    HW271088   1.325   6.557   6.717 -0.0239  0.1224 -0.1929
53720SOL     OW71089   5.774   8.873  13.163  0.1593 -0.3350  0.0332
53720SOL    HW171090   5.711   8.921  13.217  1.6929  0.0914  1.5358
53720SOL    HW271091   5.733   8.788  13.148 -0.6107 -0.2160  1.3320
53721SOL     OW71092  10.925   3.460   2.289 -0.2768  0.2603 -0.0641
53721SOL    HW171093  10.987   3.464   2.362 -0.6976  0.1512  0.3043
53721SOL    HW271094  10.859   3.397   2.317 -1.2900  1.3662  0.1251
53722SOL     OW71095   7.286   5.860   4.743  0.0681 -0.3168 -0.5251
53722SOL    HW171096   7.336   5.881   4.665  0.3665  0.1612 -0.2153
53722SOL    HW271097   7.343   5.802   4.794  0.2629  0.1258 -0.2311
53723SOL     OW71098   6.882   1.831   3.794 -0.2773 -0.2284  0.6719
53723SOL    HW171099   6.825   1.758   3.817  1.4188 -1.5498  0.8773
53723SOL    HW271100   6.887   1.829   3.698 -0.6577 -0.0350  0.6470
53724SOL     OW71101  11.906  13.043  10.397  0.9985 -0.2327  0.5687
53724SOL    HW171102  11.925  13.113  10.460 -0.5079  0.6077  0.1468
53724SOL    HW271103  11.860  12.977  10.449  1.2450 -0.3014  0.6992
53725SOL     OW71104   4.200  11.095   4.053 -0.3107 -0.6124 -0.3399
53725SOL    HW171105   4.245  11.124   4.132 -0.8297  0.8996 -0.5624
53725SOL    HW271106   4.250  11.134   3.981 -1.1446 -0.0483 -0.6374
53726SOL     OW71107   2.704   6.025   3.353  0.3449 -0.3058  0.1623
53726SOL    HW171108   2.787   6.071   3.369  0.4780 -0.1848 -0.8071
53726SOL    HW271109   2.669   6.008   3.440  0.8446  0.6392  0.5643
53727SOL     OW71110  11.179   3.671   5.130 -0.5932  0.4011  0.1207
53727SOL    HW171111  11.201   3.692   5.039 -1.1255  0.8010  0.0865
53727SOL    HW271112  11.254   3.619   5.160  0.4007  1.7093 -0.0092
53728SOL     OW71113  10.117   6.656   8.741  0.0709 -0.0535  0.1659
53728SOL    HW171114  10.032   6.615   8.755  0.9610 -1.6024  1.2630
53728SOL    HW271115  10.141   6.632   8.652 -0.0183 -0.8129  0.3422
53729SOL     OW71116   1.799   5.971   7.611  0.0973 -0.2076 -0.2470
53729SOL    HW171117   1.757   5.891   7.580 -1.2179  0.5625 -0.5456
53729SOL    HW271118   1.750   6.041   7.568 -0.5882  0.8373  2.0851
53730SOL     OW71119   9.693   8.911   6.126  0.6044  0.8681 -0.4613
53730SOL    HW171120   9.701   9.005   6.142 -0.7339  0.8486  0.4845
53730SOL    HW271121   9.692   8.872   6.214 -0.8532  0.1698 -0.7566
53731SOL     OW71122   6.481   9.990   0.278 -0.6398  0.2132  0.3081
53731SOL    HW171123   6.564  10.025   0.309 -0.2109 -0.1560 -0.4028
53731SOL    HW271124   6.449  10.056   0.216  0.1228 -0.5764 -0.9601
53732SOL     OW71125   5.445   4.738  10.302  0.3404 -0.4601 -0.3634
53732SOL    HW171126   5.433   4.660  10.356 -1.6537 -0.3000 -0.5078
53732SOL    HW271127   5.357   4.773  10.290  1.2412  2.2306  0.2628
53733SOL     OW71128   3.913   6.279   3.880 -0.6348  0.6057  0.5279
53733SOL    HW171129   3.978   6.249   3.816 -1.2995 -0.3409  0.2702
53733SOL    HW271130   3.837   6.304   3.827 -1.4167 -0.7629  0.9564
53734SOL     OW71131   2.155   3.085  10.119 -0.5970  0.1526 -0.0532
53734SOL    HW171132   2.176   3.020  10.052  0.9034 -1.1319  1.5841
53734SOL    HW271133   2.061   3.074  10.135 -0.6343 -0.6382 -0.7751
53735SOL     OW71134   2.514   3.012   0.490  0.7238  0.0757 -0.1155
53735SOL    HW171135   2.553   3.089   0.447  0.3029  0.2825 -0.1372
53735SOL    HW271136   2.533   2.939   0.432  0.9739  0.1966 -0.1848
53736SOL     OW71137  11.274   1.422   8.709  0.1210 -0.1124  0.1385
53736SOL    HW171138  11.180   1.437   8.712 -0.0908 -1.2951 -0.1582
53736SOL    HW271139  11.299   1.448   8.620  0.0372 -0.0501  0.1324
53737SOL     OW71140   3.862  12.144   1.546 -0.0689 -1.0302 -0.3246
53737SOL    HW171141   3.933  12.082   1.531  1.2795  0.4821 -0.4359
53737SOL    HW271142   3.805  12.134   1.470  0.1106 -2.1208 -0.3349
53738SOL     OW71143   0.855   4.218   2.129 -0.2170 -0.4040  0.0213
53738SOL    HW171144   0.864   4.162   2.052 -0.8744 -1.3990  0.6311
53738SOL    HW271145   0.762   4.242   2.130 -0.4597 -1.2552  1.0314
53739SOL     OW71146   3.062   6.947  11.637 -0.7866  0.3431  0.2809
53739SOL    HW171147   3.129   6.880  11.652 -0.2471  0.9331  0.5342
53739SOL    HW271148   3.005   6.942  11.713 -1.4533 -0.6291 -0.2522
53740SOL     OW71149   5.945  11.575   3.904  0.2774  0.5694 -0.1910
53740SOL    HW171150   6.024  11.547   3.950  0.5665 -1.4084 -1.7761
53740SOL    HW271151   5.967  11.661   3.869  2.0873 -0.2677 -1.2784
53741SOL     OW71152   5.203   7.991  10.108 -0.0320 -0.0477 -0.7124
53741SOL    HW171153   5.233   7.945  10.186  0.3129  0.1406 -0.7323
53741SOL    HW271154   5.280   7.998  10.052  0.0013  0.8364 -0.5699
53742SOL     OW71155   1.390   9.387   5.332 -0.2214  0.2763  0.0277
53742SOL    HW171156   1.358   9.477   5.339 -1.1170 -0.0133 -0.0809
53742SOL    HW271157   1.395   9.371   5.238 -3.3655 -0.8310 -0.0964
53743SOL     OW71158   6.680   0.798   7.761  0.5828 -0.1303 -0.1767
53743SOL    HW171159   6.764   0.818   7.801  0.6796 -1.9016  0.6163
53743SOL    HW271160   6.702   0.743   7.685  0.1399 -1.8255  0.8524
53744SOL     OW71161   7.772   1.857   4.142  0.1469  0.5796  0.2266
53744SOL    HW171162   7.810   1.863   4.055 -1.0483  1.8839 -0.2539
53744SOL    HW271163   7.748   1.765   4.153  1.1429  0.2383 -0.4414
53745SOL     OW71164   5.674  11.014   4.615  0.4083 -0.1705  0.1527
53745SOL    HW171165   5.661  10.930   4.660  1.5855  0.0114  0.8596
53745SOL    HW271166   5.607  11.015   4.547 -1.7752 -0.2456  2.1731
53746SOL     OW71167   1.953   8.772   5.207  0.3560 -0.2894 -0.3019
53746SOL    HW171168   1.909   8.832   5.146 -2.6595  0.6917  2.5505
53746SOL    HW271169   1.922   8.685   5.182  0.4333 -0.0920 -1.1124
53747SOL     OW71170   4.874  11.571  11.535 -0.0763 -0.5955  0.4126
53747SOL    HW171171   4.815  11.526  11.475 -0.8385  0.0555  0.6643
53747SOL    HW271172   4.880  11.513  11.611  2.7088 -2.5749 -1.1306
53748SOL     OW71173   7.199   0.091   9.896 -0.3184 -0.0758  0.4888
53748SOL    HW171174   7.219   0.007   9.938 -1.5897  0.4784  2.3239
53748SOL    HW271175   7.145   0.138   9.960 -0.2923  1.8417 -0.8017
53749SOL     OW71176   1.991   4.845  11.407  0.5116  0.0042  0.5515
53749SOL    HW171177   2.083   4.818  11.403  0.2789 -0.8324  0.6566
53749SOL    HW271178   1.964   4.854  11.315  0.7000  0.2524  0.5217
53750SOL     OW71179   3.391   8.583   8.555 -0.2236  0.0559 -0.0066
53750SOL    HW171180   3.418   8.535   8.633  0.2323 -0.4034 -0.4370
53750SOL    HW271181   3.296   8.589   8.562 -0.3416 -1.2873 -0.1413
53751SOL     OW71182   0.415   4.329   6.745  0.7377 -0.0802 -0.2853
53751SOL    HW171183   0.416   4.415   6.702  0.0281  1.1907  2.0471
53751SOL    HW271184   0.370   4.271   6.683 -1.3896  1.9363 -0.7751
53752SOL     OW71185   7.300   0.967   3.648  0.0531  0.3368 -0.2725
53752SOL    HW171186   7.337   0.912   3.579  1.1767  0.9984 -0.2261
53752SOL    HW271187   7.253   1.036   3.601  0.9260  0.8600 -0.3927
53753SOL     OW71188  11.498   6.099  13.282  0.8900 -0.2995  0.1856
53753SOL    HW171189  11.548   6.052  13.215 -0.9490 -0.9371 -0.8143
53753SOL    HW271190  11.479   6.184  13.242 -0.8464 -0.9540 -0.4667
53754SOL     OW71191   5.575   0.068   1.019 -0.0113  0.3908 -0.4609
53754SOL    HW171192   5.533  -0.016   1.031  0.8584 -0.0446 -0.3483
53754SOL    HW271193   5.555   0.117   1.099  2.5757 -1.1074  1.2720
53755SOL     OW71194  11.184   7.562   8.134 -0.3441  0.9977  0.5610
53755SOL    HW171195  11.176   7.484   8.189 -1.5001 -0.5584 -1.6449
53755SOL    HW271196  11.113   7.619   8.162 -1.3110 -0.0483  0.3204
53756SOL     OW71197  12.249   7.443   2.761  0.5922  0.6330  0.2213
53756SOL    HW171198  12.194   7.505   2.714 -1.3202 -1.6834 -0.8396
53756SOL    HW271199  12.334   7.447   2.716 -0.0106  1.2707 -0.8988
53757SOL     OW71200   2.738   1.359   9.210 -0.1805 -0.1856 -0.2744
53757SOL    HW171201   2.779   1.273   9.225  1.7817  0.4283 -1.6559
53757SOL    HW271202   2.737   1.369   9.115 -2.1726  0.5503 -0.2196
53758SOL     OW71203   0.406  12.339  12.163 -0.3853  0.1350  0.0538
53758SOL    HW171204   0.486  12.299  12.127 -0.1522  0.9783 -0.3808
53758SOL    HW271205   0.429  12.360  12.253  0.7139  2.5136 -0.7109
53759SOL     OW71206   2.285   5.517  11.331 -0.2677  0.3872  0.0012
53759SOL    HW171207   2.341   5.456  11.379 -0.0946  0.1156 -0.5341
53759SOL    HW271208   2.196   5.482  11.342  0.0182 -1.1316 -1.9459
53760SOL     OW71209   4.836   0.720   4.617 -0.2695  0.2904  0.3796
53760SOL    HW171210   4.763   0.717   4.680 -1.9363  3.3243 -1.2133
53760SOL    HW271211   4.795   0.706   4.532  1.4294 -0.3295 -0.3818
53761SOL     OW71212   0.365   3.687  12.167  0.3542 -0.0506  0.0211
53761SOL    HW171213   0.460   3.682  12.181  0.2573 -1.5000  0.3553
53761SOL    HW271214   0.331   3.609  12.210 -0.9472  0.1960 -0.5193
53762SOL     OW71215   2.641  11.855   5.191 -0.0691  0.1885 -0.4992
53762SOL    HW171216   2.713  11.878   5.133  0.6723  1.1773  0.7381
53762SOL    HW271217   2.562  11.880   5.144  0.4792  0.4359 -1.2935
53763SOL     OW71218   1.236  10.619   4.208  0.0531 -0.0375 -0.0347
53763SOL    HW171219   1.220  10.663   4.124  1.9506  0.9867  0.0916
53763SOL    HW271220   1.255  10.690   4.269  0.3184 -0.8775  0.8768
53764SOL     OW71221   6.361   5.690   0.617  0.0762 -0.2260 -0.4129
53764SOL    HW171222   6.315   5.704   0.534 -0.0807  0.5820 -0.1928
53764SOL    HW271223   6.320   5.610   0.653 -0.0662 -0.4059 -0.9598
53765SOL     OW71224   3.861   9.519   1.648  0.2092  0.0241 -0.5369
53765SOL    HW171225   3.888   9.535   1.558 -1.1163 -0.0672 -0.9686
53765SOL    HW271226   3.768   9.543   1.650 -0.3461 -1.9764  0.2649
53766SOL     OW71227  12.764  10.477  10.376  0.1949  0.1744  0.5315
53766SOL    HW171228  12.854  10.466  10.408  0.3634 -1.6787 -0.4421
53766SOL    HW271229  12.711  10.421  10.433  0.1249 -1.0690 -0.6943
53767SOL     OW71230   3.853   8.610  11.822  0.0620  0.2055 -0.0067
53767SOL    HW171231   3.780   8.548  11.820  0.3904 -0.1787 -0.3301
53767SOL    HW271232   3.841   8.658  11.904 -0.2163 -0.2651  0.2359
53768SOL     OW71233   9.215  11.291   4.264  0.0379 -0.5810  0.2400
53768SOL    HW171234   9.228  11.275   4.358 -0.3478 -1.1513  0.1998
53768SOL    HW271235   9.177  11.210   4.231  0.7432 -0.6085 -0.5350
53769SOL     OW71236   0.376  11.778  10.832 -0.4911 -0.1745  0.8163
53769SOL    HW171237   0.436  11.707  10.855  1.4197  1.6262  1.6094
53769SOL    HW271238   0.335  11.748  10.750  0.2567 -2.1607  1.1109
53770SOL     OW71239   2.931   8.936   7.108 -0.3039 -0.1756  0.5592
53770SOL    HW171240   2.922   9.031   7.093 -1.7360 -0.3536  0.0902
53770SOL    HW271241   2.844   8.901   7.086  0.0245 -1.5209  1.3423
53771SOL     OW71242  10.639   5.634   8.174  0.0610  0.2365  0.2762
53771SOL    HW171243  10.691   5.554   8.180 -1.1750 -0.7924 -1.8354
53771SOL    HW271244  10.591   5.637   8.257  0.5295 -0.9058  0.6096
53772SOL     OW71245  13.137  13.124  11.165  0.4756 -0.2112 -0.3593
53772SOL    HW171246  13.203  13.189  11.190  0.7098 -0.0026 -1.4553
53772SOL    HW271247  13.131  13.065  11.240  4.0743 -1.9766 -1.2227
53773SOL     OW71248   2.281   0.086   9.435 -0.1126 -0.4769 -0.0523
53773SOL    HW171249   2.362   0.044   9.407 -0.1701 -0.1803 -0.6693
53773SOL    HW271250   2.295   0.105   9.528  1.4593  1.7053 -0.6643
53774SOL     OW71251  13.207   8.075   1.682  0.1201  0.0956 -0.2442
53774SOL    HW171252  13.137   8.140   1.688  1.4784  1.4536  2.1785
53774SOL    HW271253  13.276   8.118   1.632  0.3297 -0.1541 -0.1732
53775SOL     OW71254  11.377   6.628   1.175  0.1477 -0.2028 -0.6184
53775SOL    HW171255  11.321   6.611   1.100 -1.9918 -0.6547  0.9743
53775SOL    HW271256  11.362   6.555   1.234  4.1246 -1.5159 -0.9115
53776SOL     OW71257  11.778   4.485   7.235  0.0568 -0.3823 -0.2698
53776SOL    HW171258  11.789   4.495   7.140 -1.0169 -1.9139 -0.5913
53776SOL    HW271259  11.842   4.545   7.273  2.1968 -1.4635 -1.9574
53777SOL     OW71260   8.919   2.831   3.763  0.2803  0.5808 -0.0836
53777SOL    HW171261   8.973   2.909   3.772 -1.0288  1.5526 -0.3577
53777SOL    HW271262   8.834   2.864   3.734  0.2539 -1.1144 -2.1774
53778SOL     OW71263  10.377  11.258   0.743  0.6383 -0.2120  0.0487
53778SOL    HW171264  10.356  11.306   0.663 -0.5771 -0.3891  0.2411
53778SOL    HW271265  10.293  11.230   0.777  1.1125 -0.0256  1.4718
53779SOL     OW71266  12.420   4.318   2.496 -0.3408 -0.0455  0.1125
53779SOL    HW171267  12.425   4.283   2.585 -0.1762  0.4467  0.2980
53779SOL    HW271268  12.404   4.241   2.441 -0.2197 -0.3822  0.5433
53780SOL     OW71269   5.001   8.731  12.802 -0.1831 -0.5912  0.3117
53780SOL    HW171270   4.951   8.774  12.871 -0.7454 -1.3310  0.3789
53780SOL    HW271271   4.964   8.643  12.797 -0.4978 -0.3942 -1.2926
53781SOL     OW71272  12.828   1.628  12.740 -0.1222  0.2578  0.1958
53781SOL    HW171273  12.876   1.560  12.788 -0.5626  0.1079  0.4268
53781SOL    HW271274  12.848   1.708  12.788  2.3941  0.7343 -1.4920
53782SOL     OW71275  12.904   3.388  11.535  0.7632 -0.0717 -0.1332
53782SOL    HW171276  12.861   3.464  11.496  1.6808 -0.8829 -2.9247
53782SOL    HW271277  12.834   3.341  11.580 -0.9084 -0.1809 -2.6444
53783SOL     OW71278  10.138   6.927   5.824 -0.0006 -0.0559  0.4429
53783SOL    HW171279  10.063   6.966   5.779 -0.8224  0.2603  2.0030
53783SOL    HW271280  10.204   6.915   5.755 -1.0122  0.8184 -0.7302
53784SOL     OW71281   4.186   4.886   0.558 -0.0313 -0.3406 -0.1482
53784SOL    HW171282   4.129   4.850   0.490  0.9516 -1.2103 -0.5209
53784SOL    HW271283   4.135   4.876   0.639 -0.7031 -0.4178 -0.5673
53785SOL     OW71284   5.243   1.591  13.132 -0.4556  0.0804 -0.2412
53785SOL    HW171285   5.284   1.552  13.209  0.5325 -1.4351 -1.4836
53785SOL    HW271286   5.257   1.528  13.062 -3.0949  0.4830 -1.2476
53786SOL     OW71287   4.635   9.866   6.146 -0.5406  0.5672  0.0042
53786SOL    HW171288   4.719   9.907   6.127  0.6740 -0.8087  1.9862
53786SOL    HW271289   4.635   9.785   6.095  0.5487 -0.6930  1.8725
53787SOL     OW71290   3.030   4.049   5.503 -0.1216  0.1568 -0.3371
53787SOL    HW171291   3.121   4.023   5.514 -0.0505  0.1520 -0.8928
53787SOL    HW271292   3.004   4.083   5.589  0.5624  0.6706 -0.3258
53788SOL     OW71293   3.340   4.427  12.489 -0.4308 -0.3338  0.0126
53788SOL    HW171294   3.361   4.445  12.581 -3.2360 -0.1865  0.7447
53788SOL    HW271295   3.348   4.511  12.445 -1.3579  0.1320  0.6887
53789SOL     OW71296   3.707  13.143  10.006  0.1090  0.0275  0.3546
53789SOL    HW171297   3.716  13.103   9.919 -2.0500  0.1358  0.0176
53789SOL    HW271298   3.734  13.234   9.994  0.7191 -0.1888  0.0387
53790SOL     OW71299   3.876   4.923  11.720 -0.0500 -0.0017 -0.7094
53790SOL    HW171300   3.894   4.901  11.629  1.6298  0.5920 -0.5655
53790SOL    HW271301   3.891   5.017  11.726 -1.5312  0.2173 -0.1126
53791SOL     OW71302   8.285   7.989  10.726 -0.3958 -0.1047  0.2377
53791SOL    HW171303   8.196   7.994  10.690 -1.2382 -0.8767  2.0605
53791SOL    HW271304   8.312   8.081  10.735 -0.6794  0.1239 -1.0716
53792SOL     OW71305  10.117   3.070  12.418 -0.0740  0.3729 -0.4067
53792SOL    HW171306  10.125   2.997  12.355 -0.1127 -0.7816  0.8748
53792SOL    HW271307  10.183   3.051  12.485  0.5853  2.0709 -0.5318
53793SOL     OW71308   0.243   3.932   1.791 -0.1391  0.2117  0.2417
53793SOL    HW171309   0.173   3.966   1.736  0.7445  1.1189 -0.3498
53793SOL    HW271310   0.285   3.865   1.738  0.1243  0.4329  0.1692
53794SOL     OW71311   0.563  11.230   9.155 -1.0406  0.3481 -0.0996
53794SOL    HW171312   0.501  11.158   9.164  1.0779 -1.4897  0.9439
53794SOL    HW271313   0.620  11.222   9.232 -0.4977  2.9575 -0.1277
53795SOL     OW71314   8.342   0.905   5.061  0.3292  0.2563 -0.5028
53795SOL    HW171315   8.424   0.939   5.095  1.2906 -0.3635 -2.1071
53795SOL    HW271316   8.294   0.875   5.138  2.1736 -0.6001  0.3584
53796SOL     OW71317  12.507   6.268  12.326  1.2592  0.3372 -0.0178
53796SOL    HW171318  12.526   6.284  12.418  1.5229  1.1689 -0.2112
53796SOL    HW271319  12.553   6.338  12.279  0.0590  0.7098 -0.6853
53797SOL     OW71320   3.755   0.113  12.665 -0.0763  0.3660  0.1250
53797SOL    HW171321   3.838   0.145  12.702  0.4930 -2.2181  1.2918
53797SOL    HW271322   3.758   0.139  12.573  2.7781 -0.9008 -0.2450
53798SOL     OW71323   5.945   3.420  12.802 -0.5604 -0.5087  0.7063
53798SOL    HW171324   6.038   3.414  12.826  0.0729  1.0877 -1.0098
53798SOL    HW271325   5.899   3.373  12.871  1.4756 -0.8141  1.9555
53799SOL     OW71326   9.551   7.627  12.596  0.3552  0.3645 -0.3358
53799SOL    HW171327   9.510   7.542  12.580  1.9346 -0.1504 -2.1005
53799SOL    HW271328   9.484   7.691  12.573 -0.2838 -0.4250 -0.7192
53800SOL     OW71329  12.789  12.194   3.848 -0.3869  0.2716 -0.3059
53800SOL    HW171330  12.850  12.192   3.774  0.7192 -1.6666  0.5880
53800SOL    HW271331  12.843  12.215   3.924 -1.4713  2.0260  0.0626
53801SOL     OW71332   2.421   6.023   4.626  0.2264  0.6718  0.7744
53801SOL    HW171333   2.393   6.114   4.638 -0.9542  0.4732 -0.3347
53801SOL    HW271334   2.347   5.971   4.657  0.1457  0.1144 -0.3182
53802SOL     OW71335   4.323   3.584   4.212 -0.4815  0.2798 -0.3485
53802SOL    HW171336   4.349   3.496   4.184  1.4885  0.5386  0.5111
53802SOL    HW271337   4.272   3.570   4.291  0.1144 -0.0967 -0.0211
53803SOL     OW71338  10.402   6.081   0.378 -0.0685 -0.3355  0.3259
53803SOL    HW171339  10.403   6.046   0.467  1.9796  1.7081  1.1974
53803SOL    HW271340  10.494   6.091   0.355 -0.5620  0.0111 -1.6931
53804SOL     OW71341  10.006   3.455   3.771 -0.0806  0.4215 -0.3162
53804SOL    HW171342  10.007   3.371   3.816 -2.8575 -0.0609 -0.9614
53804SOL    HW271343  10.031   3.436   3.681  0.0569  0.4237 -0.2783
53805SOL     OW71344  13.088   3.976   5.983  0.0297  0.3409 -0.1106
53805SOL    HW171345  13.176   3.939   5.971  0.2455 -0.1759  2.5149
53805SOL    HW271346  13.044   3.914   6.041 -1.7743  1.0621 -0.6516
53806SOL     OW71347   0.463   4.669   2.482  0.0712 -0.1878  0.4664
53806SOL    HW171348   0.481   4.591   2.429  2.6644  0.0659  0.8378
53806SOL    HW271349   0.433   4.634   2.566  0.4952 -0.7720  0.3831
53807SOL     OW71350   1.916  12.601  11.005  0.2210 -0.1185 -0.1800
53807SOL    HW171351   1.850  12.561  10.949 -1.2596 -0.0592  1.4354
53807SOL    HW271352   1.966  12.527  11.039  0.4403 -0.2345 -0.7513
53808SOL     OW71353  13.150   4.529   2.879  0.0630 -0.1959  0.4679
53808SOL    HW171354  13.193   4.557   2.798 -0.8551 -0.3394 -0.0840
53808SOL    HW271355  13.219   4.535   2.946  0.5172  1.0802 -0.0805
53809SOL     OW71356   6.841   5.184  13.068  0.6124  0.2221  0.0910
53809SOL    HW171357   6.795   5.161  12.987  0.4149  1.7185 -0.2526
53809SOL    HW271358   6.922   5.225  13.039  0.7706  0.3268  0.6647
53810SOL     OW71359   1.934   5.228   9.692  0.3707  0.2167 -0.3116
53810SOL    HW171360   1.932   5.305   9.749  1.0915 -0.1488  0.2172
53810SOL    HW271361   1.853   5.181   9.712  1.0465 -0.3912  1.1135
53811SOL     OW71362   8.394  10.272   7.077  0.0199  0.2480 -0.0924
53811SOL    HW171363   8.405  10.260   7.171  1.6111  0.7503 -0.1843
53811SOL    HW271364   8.396  10.367   7.065  1.8071  0.1495 -0.8108
53812SOL     OW71365   2.109   1.260   5.053  0.0901 -0.0512  0.0639
53812SOL    HW171366   2.143   1.258   4.963 -2.0416 -0.0101 -0.8129
53812SOL    HW271367   2.090   1.169   5.074 -0.1694  0.0235  0.1582
53813SOL     OW71368   8.253   9.187   3.608  0.4391  0.3078 -0.2279
53813SOL    HW171369   8.311   9.260   3.588  0.7359 -0.1676 -1.2057
53813SOL    HW271370   8.168   9.213   3.571  0.2033  0.6886  0.5540
53814SOL     OW71371   6.950   2.953   6.172  0.2511  0.1566  0.0633
53814SOL    HW171372   7.009   3.019   6.210  1.4763 -0.6488 -0.4080
53814SOL    HW271373   7.006   2.879   6.152 -1.2049 -1.3347  1.1939
53815SOL     OW71374   5.704   2.405  13.006  0.3176 -0.7050 -0.4265
53815SOL    HW171375   5.711   2.345  13.081 -0.1356 -0.1042  0.1019
53815SOL    HW271376   5.791   2.402  12.966  0.5291 -1.1356  0.0390
53816SOL     OW71377   0.184   9.827  13.051 -1.0072 -0.1369 -0.5850
53816SOL    HW171378   0.144   9.766  13.112 -2.3098 -0.3144 -1.5523
53816SOL    HW271379   0.255   9.778  13.010  0.4833  0.2785  1.3861
53817SOL     OW71380   2.760   6.415   3.191  0.4537 -0.5150  0.4662
53817SOL    HW171381   2.814   6.346   3.151  1.4065  0.2274  0.4415
53817SOL    HW271382   2.722   6.462   3.116  1.1263  0.0055  0.4411
53818SOL     OW71383  10.163   5.044   9.691  0.3269  0.2140  0.1367
53818SOL    HW171384  10.247   5.089   9.688 -0.6599  2.4478  2.3962
53818SOL    HW271385  10.110   5.087   9.623  0.6526 -0.5136 -0.6001
53819SOL     OW71386  13.303   7.991   8.246  0.2812  0.1025 -0.0855
53819SOL    HW171387  13.286   7.931   8.319 -0.3722 -0.8459 -0.9859
53819SOL    HW271388  13.328   7.935   8.174 -1.6083  0.7639 -1.3292
53820SOL     OW71389   2.433  12.057   4.363 -0.1920 -0.1859 -0.5680
53820SOL    HW171390   2.498  12.013   4.307 -1.1312  0.2957 -2.0867
53820SOL    HW271391   2.362  12.079   4.304  0.4804  4.0533 -0.0906
53821SOL     OW71392   5.594   8.575  10.144  0.0931 -0.0303 -0.3156
53821SOL    HW171393   5.684   8.546  10.128 -0.3476 -1.2809 -0.5856
53821SOL    HW271394   5.539   8.506  10.107 -0.9836  0.4396  0.3622
53822SOL     OW71395  10.507   1.288  10.263 -0.0612  0.3959  0.1673
53822SOL    HW171396  10.442   1.340  10.215  2.0550  0.2486 -3.1031
53822SOL    HW271397  10.590   1.334  10.250  0.9177 -0.5808  2.4053
53823SOL     OW71398   4.903   7.827   0.053  0.6490  0.6075  0.1002
53823SOL    HW171399   4.959   7.902   0.072  0.0827  1.1285 -0.2778
53823SOL    HW271400   4.946   7.754   0.098  2.0530  0.8383 -0.8008
53824SOL     OW71401  11.595   8.641  11.051  0.4822 -0.0938 -0.1830
53824SOL    HW171402  11.660   8.710  11.067 -0.3306  0.8004 -0.5904
53824SOL    HW271403  11.590   8.592  11.133  0.8595  0.5271  0.2158
53825SOL     OW71404   2.283   8.428   3.146 -0.0949 -0.2299  0.1950
53825SOL    HW171405   2.224   8.497   3.176  0.7071  0.8905 -0.7535
53825SOL    HW271406   2.342   8.471   3.084  0.7808 -1.6436 -0.0008
53826SOL     OW71407   0.451   3.794   0.472  0.2846 -0.2650  0.6555
53826SOL    HW171408   0.385   3.744   0.520 -1.5118  1.8765  0.5347
53826SOL    HW271409   0.512   3.824   0.539 -1.3526  1.4184  1.4518
53827SOL     OW71410   3.836   1.961   9.745  0.3683 -0.0586 -0.0659
53827SOL    HW171411   3.926   1.928   9.750  0.7658  1.2402  2.7430
53827SOL    HW271412   3.842   2.038   9.688  0.9306 -0.1969 -0.2066
53828SOL     OW71413  12.800   5.779  10.826 -0.4190 -0.3030  0.2072
53828SOL    HW171414  12.766   5.845  10.887 -0.7496 -1.1059  0.9045
53828SOL    HW271415  12.726   5.756  10.771 -0.6156 -0.9326  0.7249
53829SOL     OW71416   2.265   6.799   6.185 -0.1353  0.4320 -0.0630
53829SOL    HW171417   2.179   6.822   6.219  0.4589 -0.0246  1.8480
53829SOL    HW271418   2.264   6.704   6.180  0.0983  0.4492 -0.5045
53830SOL     OW71419   0.184   1.793   9.919 -0.1148 -0.1358  0.2951
53830SOL    HW171420   0.234   1.873   9.936 -0.7312  1.2369 -3.3706
53830SOL    HW271421   0.251   1.727   9.900  0.4675  1.0369 -2.1001
53831SOL     OW71422   0.734   1.785   8.296 -0.1233 -0.4103 -0.0213
53831SOL    HW171423   0.795   1.847   8.336  0.6851 -1.0051 -0.2984
53831SOL    HW271424   0.748   1.795   8.202  1.1872 -2.1172 -0.0473
53832SOL     OW71425   6.130   0.639  11.010  0.4689  0.1576  0.0808
53832SOL    HW171426   6.143   0.547  11.031 -1.0073 -0.1757 -0.3256
53832SOL    HW271427   6.141   0.644  10.916  0.8316  0.4588  0.1374
53833SOL     OW71428   4.416   4.443  10.402 -0.1847 -0.3478  0.0543
53833SOL    HW171429   4.502   4.484  10.411 -0.4120  0.4537 -1.1470
53833SOL    HW271430   4.356   4.502  10.446 -0.4684  0.5199 -1.4148
53834SOL     OW71431   2.107   0.155   6.658 -0.2147  0.4896 -0.4030
53834SOL    HW171432   2.022   0.158   6.613 -0.0899 -0.9413 -0.7837
53834SOL    HW271433   2.159   0.095   6.605  1.8159  2.9945 -1.4352
53835SOL     OW71434   9.370   9.166   0.760 -0.1809 -0.3512 -0.3411
53835SOL    HW171435   9.410   9.251   0.778  0.8674 -0.6992 -0.9410
53835SOL    HW271436   9.378   9.117   0.842 -1.1731  0.2562  0.1381
53836SOL     OW71437   2.261  12.143   4.577 -0.3074 -0.1882 -0.2486
53836SOL    HW171438   2.179  12.183   4.547 -0.2745 -0.2207 -0.3818
53836SOL    HW271439   2.314  12.135   4.498 -1.0985 -2.4380 -0.6215
53837SOL     OW71440   5.815   5.006  12.576 -0.4268  0.7108 -0.0006
53837SOL    HW171441   5.829   4.924  12.624  1.5949  1.1983  0.3647
53837SOL    HW271442   5.721   5.010  12.563 -0.5754 -1.8569 -0.3719
53838SOL     OW71443   7.241   2.065   5.417 -0.0326 -0.1116 -0.1859
53838SOL    HW171444   7.248   1.970   5.422 -1.5795 -0.2494 -0.0535
53838SOL    HW271445   7.162   2.086   5.467  0.1686  1.2267 -0.3890
53839SOL     OW71446   8.083   3.436   1.947 -0.4194  0.0817 -0.3455
53839SOL    HW171447   8.029   3.383   2.006 -1.4779  1.0535 -0.3985
53839SOL    HW271448   8.089   3.383   1.867  1.1779 -1.3179  0.6542
53840SOL     OW71449   4.265   2.202   8.693  0.7877  0.0952  0.3213
53840SOL    HW171450   4.217   2.281   8.670  1.0315 -0.0689 -0.8050
53840SOL    HW271451   4.222   2.132   8.644  0.9457 -0.3783  0.8448
53841SOL     OW71452   1.363   5.183   7.104 -0.0961 -0.2159  0.2580
53841SOL    HW171453   1.296   5.168   7.171 -0.2046  2.1493  0.7742
53841SOL    HW271454   1.315   5.179   7.021 -1.3098  2.7757  0.6679
53842SOL     OW71455   1.319   4.143   2.922  0.2917 -0.0546  0.4951
53842SOL    HW171456   1.409   4.116   2.939  0.4347  0.9164  1.4394
53842SOL    HW271457   1.326   4.208   2.852  0.3902  0.3948  0.9180
53843SOL     OW71458   3.845   9.749   8.505 -0.6487  0.2047  0.1523
53843SOL    HW171459   3.772   9.699   8.540  0.5793 -1.1027  0.9453
53843SOL    HW271460   3.828   9.840   8.532 -2.6512  0.1857 -0.8738
53844SOL     OW71461   9.652  11.687  10.811  0.4931  0.1856 -0.2338
53844SOL    HW171462   9.722  11.686  10.876  1.3390  0.2688 -1.1200
53844SOL    HW271463   9.572  11.680  10.862  1.1484 -0.0158  0.7976
53845SOL     OW71464   0.168   0.597   9.328 -0.6358  0.3105  0.0571
53845SOL    HW171465   0.083   0.563   9.300  0.8347 -2.1027 -1.9008
53845SOL    HW271466   0.196   0.653   9.255 -0.2663  0.5867  0.4058
53846SOL     OW71467   7.793   4.721   1.654 -0.2559 -0.0186  0.6319
53846SOL    HW171468   7.740   4.775   1.714 -0.2880 -0.4770  1.0205
53846SOL    HW271469   7.801   4.774   1.575  0.3912  0.9081  1.3021
53847SOL     OW71470  10.164   0.441   2.616 -0.6898 -0.1783 -0.3468
53847SOL    HW171471  10.235   0.377   2.625 -0.7669 -0.0853  1.1394
53847SOL    HW271472  10.138   0.435   2.524  0.5173 -0.9859 -0.6546
53848SOL     OW71473   1.945   1.064   5.200 -0.0501 -0.2745  0.2097
53848SOL    HW171474   1.967   1.092   5.288  0.0873 -0.4255  0.2232
53848SOL    HW271475   1.897   1.138   5.162 -0.9113 -0.5620  0.7197
53849SOL     OW71476   4.327   1.571   8.030 -0.1285 -0.0247 -0.1654
53849SOL    HW171477   4.339   1.635   7.960 -0.0615 -0.4395 -0.5355
53849SOL    HW271478   4.351   1.488   7.991  0.2243 -0.2193  0.4476
53850SOL     OW71479  11.665   1.639   5.989 -0.5096  0.1799  0.1236
53850SOL    HW171480  11.737   1.595   6.033 -0.1370  0.9749  0.3334
53850SOL    HW271481  11.630   1.699   6.055 -1.5416 -0.3742  0.1158
53851SOL     OW71482   0.607  13.198   0.186  0.8559  0.5443 -0.0621
53851SOL    HW171483   0.529  13.184   0.239 -0.7171  2.0121 -1.8637
53851SOL    HW271484   0.650  13.112   0.184 -1.3773 -0.6405 -0.0635
53852SOL     OW71485  12.732   3.031   6.965 -0.2840  0.0488 -0.3261
53852SOL    HW171486  12.672   2.965   6.998  0.1827 -0.0143  0.4199
53852SOL    HW271487  12.805   2.980   6.929 -0.5250  0.1321 -0.9374
53853SOL     OW71488   3.143  10.597  10.537 -0.3721 -0.2427  0.6212
53853SOL    HW171489   3.236  10.594  10.557 -0.1232 -1.3080 -0.5689
53853SOL    HW271490   3.132  10.538  10.463 -2.3567 -1.9984  2.1860
53854SOL     OW71491  11.448  12.007  11.395  0.2851  0.2551  0.9053
53854SOL    HW171492  11.377  11.984  11.456  0.8692 -0.6796  1.2611
53854SOL    HW271493  11.485  12.087  11.430  0.1011  0.1542  1.3423
53855SOL     OW71494  12.161  10.315   1.202 -0.2579 -0.3367  0.2677
53855SOL    HW171495  12.251  10.286   1.217 -0.6352 -1.6231  0.1856
53855SOL    HW271496  12.125  10.326   1.290  0.6458  2.5699  0.3823
53856SOL     OW71497   7.545   1.076   2.538 -0.1347  0.2767  0.0293
53856SOL    HW171498   7.505   1.000   2.495 -2.1017  0.4409  1.4263
53856SOL    HW271499   7.632   1.045   2.564 -0.5614 -1.2334 -0.2195
53857SOL     OW71500   4.093   5.834   0.715 -0.2998 -0.3918 -0.2195
53857SOL    HW171501   4.008   5.789   0.714 -0.0555 -0.8730  0.3397
53857SOL    HW271502   4.106   5.860   0.624 -1.5655  0.6816 -0.1233
53858SOL     OW71503   1.968  10.767   1.072  0.6212 -0.3960  0.1013
53858SOL    HW171504   2.006  10.702   1.132 -0.0102 -0.0167  0.9429
53858SOL    HW271505   1.932  10.834   1.130  0.3596  0.1940 -0.7311
53859SOL     OW71506   2.961   1.606   6.254 -0.1937 -0.0182 -0.7046
53859SOL    HW171507   3.008   1.532   6.214  1.4698  0.3664  0.4280
53859SOL    HW271508   3.011   1.683   6.228 -0.1672  0.4075  0.5424
53860SOL     OW71509   0.551   8.596   6.211 -0.3239 -0.4952 -0.1020
53860SOL    HW171510   0.634   8.640   6.190  0.9501 -1.7779  1.9211
53860SOL    HW271511   0.494   8.667   6.240  0.7007  0.1952  0.2974
53861SOL     OW71512   1.271  10.948   8.188 -0.0963 -0.4380 -0.5535
53861SOL    HW171513   1.326  10.904   8.252  0.3109 -0.1437 -0.6932
53861SOL    HW271514   1.214  11.005   8.240 -0.9648 -1.4774 -0.3369
53862SOL     OW71515   3.249   4.693   0.096  0.2120 -0.0474  0.3272
53862SOL    HW171516   3.174   4.687   0.036  0.1048 -0.5583  0.5116
53862SOL    HW271517   3.324   4.667   0.044 -0.2444 -3.3983  1.1280
53863SOL     OW71518   6.132  12.462   3.463 -0.7701  0.2254  0.2851
53863SOL    HW171519   6.205  12.483   3.405  0.7867 -2.1368  1.2741
53863SOL    HW271520   6.110  12.545   3.505  1.9604  0.8407  0.6305
53864SOL     OW71521   6.066   7.187   0.282  0.4197 -0.0787  0.5865
53864SOL    HW171522   6.105   7.266   0.245  0.4805 -0.4199 -0.0970
53864SOL    HW271523   5.972   7.202   0.278  0.4001 -0.4117 -0.4083
53865SOL     OW71524   6.638   6.698   8.257 -0.3273 -0.2008 -0.5250
53865SOL    HW171525   6.640   6.604   8.239 -0.4192 -0.8008  2.1351
53865SOL    HW271526   6.550   6.714   8.293 -0.3654  0.9380 -1.0754
53866SOL     OW71527   3.860  10.409   7.328  0.2138  0.1194 -0.0316
53866SOL    HW171528   3.936  10.397   7.386  0.1699 -0.6031 -0.1166
53866SOL    HW271529   3.886  10.367   7.246 -0.0467  0.4022 -0.2605
53867SOL     OW71530   1.508   2.073  12.394 -0.7839  0.4466 -0.7603
53867SOL    HW171531   1.458   2.143  12.438 -1.3041 -1.0924  1.2469
53867SOL    HW271532   1.441   2.012  12.363 -0.3023 -1.3629  1.4694
53868SOL     OW71533   6.801   6.840   9.833  0.0269 -0.0408 -0.0475
53868SOL    HW171534   6.879   6.860   9.781  0.4602  0.9093  0.9426
53868SOL    HW271535   6.834   6.795   9.911 -0.5716 -1.0180 -0.3373
53869SOL     OW71536  12.755  12.316  10.450  0.0948 -0.1158  0.1590
53869SOL    HW171537  12.746  12.400  10.406  0.0292  0.5191  1.3492
53869SOL    HW271538  12.751  12.251  10.380  0.4381  0.8819 -0.8010
53870SOL     OW71539   3.904   9.184   4.379 -0.1685  0.3556 -0.3068
53870SOL    HW171540   3.993   9.195   4.410 -1.3683  2.5151  2.8702
53870SOL    HW271541   3.882   9.094   4.400 -0.0394  0.9920  3.0914
53871SOL     OW71542   1.059  10.053   0.162  0.1359 -0.2683 -0.0919
53871SOL    HW171543   0.979  10.095   0.131  0.9967  1.4020 -0.1552
53871SOL    HW271544   1.084  10.104   0.240  1.2477 -0.6219 -0.2035
53872SOL     OW71545   2.588  10.310  10.402  0.3249 -0.3513 -0.3344
53872SOL    HW171546   2.568  10.218  10.417 -0.4969 -0.1611 -0.2020
53872SOL    HW271547   2.672  10.324  10.444 -0.5889 -0.5100  1.6582
53873SOL     OW71548   6.017   6.312   4.733 -0.3583  0.1880 -0.3173
53873SOL    HW171549   6.076   6.382   4.761 -0.1255 -0.1855  0.1362
53873SOL    HW271550   5.935   6.329   4.780  0.1142 -0.5895  0.8341
53874SOL     OW71551   7.834  12.136  12.106  0.3681 -0.0848 -0.0184
53874SOL    HW171552   7.809  12.205  12.045  3.0296  2.2084  1.2305
53874SOL    HW271553   7.859  12.062  12.050 -3.0609 -0.3767 -1.3805
53875SOL     OW71554  11.713   6.001   8.562 -0.0232 -0.3413  0.4937
53875SOL    HW171555  11.730   6.032   8.651  1.3914 -0.0113  0.1322
53875SOL    HW271556  11.662   6.071   8.522  2.8120  1.4824 -0.1931
53876SOL     OW71557   0.127  12.277  12.003 -0.3092  0.2944 -0.0332
53876SOL    HW171558   0.190  12.210  12.028  0.4708  0.5366 -1.2226
53876SOL    HW271559   0.174  12.359  12.016 -1.1159  0.6030  1.0249
53877SOL     OW71560  10.636   4.650   1.763  0.2913 -0.2932 -0.2829
53877SOL    HW171561  10.547   4.683   1.773 -0.6610 -2.0982 -2.1756
53877SOL    HW271562  10.666   4.634   1.853 -1.7262 -0.7155  0.3529
53878SOL     OW71563   5.450   2.706   7.965 -0.1551  0.0265  0.0012
53878SOL    HW171564   5.482   2.788   7.927 -0.5449  0.0490 -0.2914
53878SOL    HW271565   5.496   2.698   8.048  0.9930 -0.1988 -0.6265
53879SOL     OW71566   4.795   0.991   2.987  0.0646 -0.4314 -0.2799
53879SOL    HW171567   4.876   0.974   3.037 -0.7866  0.1529  1.3771
53879SOL    HW271568   4.820   1.059   2.924  0.6798  0.3946  0.8088
53880SOL     OW71569   3.464   1.270   7.652 -0.1525  0.4368  0.0903
53880SOL    HW171570   3.433   1.321   7.727 -0.3734 -0.7804  0.8553
53880SOL    HW271571   3.538   1.219   7.686 -1.6027 -1.7937  0.1513
53881SOL     OW71572   4.886   7.525   8.013  0.2116 -0.2149 -0.4030
53881SOL    HW171573   4.945   7.460   8.051 -0.7958 -0.9525 -0.0427
53881SOL    HW271574   4.858   7.578   8.088  1.7126  1.2399 -0.8197
53882SOL     OW71575   0.102   2.413  12.746 -0.0062  0.0252  0.0993
53882SOL    HW171576   0.011   2.432  12.726 -0.2653  0.6709  1.7227
53882SOL    HW271577   0.136   2.495  12.782  1.0808 -0.3521 -0.0270
53883SOL     OW71578  10.206  11.630   3.730 -0.3810  0.4186 -0.1020
53883SOL    HW171579  10.264  11.659   3.801 -0.2687  1.2606 -0.5359
53883SOL    HW271580  10.121  11.667   3.752 -0.3430  0.6941 -0.4105
53884SOL     OW71581   5.694   7.970   1.208  0.2109 -0.5586  0.3965
53884SOL    HW171582   5.691   7.874   1.210  1.2126 -0.7862 -3.1036
53884SOL    HW271583   5.787   7.991   1.214 -0.0134  0.2452  1.2745
53885SOL     OW71584  11.497   5.624   1.634 -0.4438 -0.7934 -0.1731
53885SOL    HW171585  11.540   5.666   1.708  3.1605 -1.2723 -1.7960
53885SOL    HW271586  11.488   5.532   1.660 -0.0185 -0.7803  0.0315
53886SOL     OW71587  12.639   9.512   2.230  0.5731 -0.2072 -0.4287
53886SOL    HW171588  12.640   9.454   2.306  0.7351  1.5265  0.9453
53886SOL    HW271589  12.720   9.563   2.237  0.3925  0.2701 -1.5547
53887SOL     OW71590   3.798   9.153   9.750 -0.0444  0.6413 -0.6596
53887SOL    HW171591   3.829   9.238   9.782  1.1739 -0.2188  0.5671
53887SOL    HW271592   3.867   9.124   9.690  0.4115 -0.2426  0.2700
53888SOL     OW71593   9.930   9.889   0.270  0.5094  0.4505  0.4760
53888SOL    HW171594   9.964   9.882   0.359 -1.0300  2.7161  1.3255
53888SOL    HW271595   9.887   9.974   0.267  0.8768  0.6369 -2.5960
53889SOL     OW71596   9.005   9.687   5.691 -0.6923 -0.2550  0.1042
53889SOL    HW171597   8.969   9.707   5.605 -0.9352 -1.3307 -0.0534
53889SOL    HW271598   8.972   9.600   5.712  0.3180 -0.4979  0.7700
53890SOL     OW71599   7.192  12.069   8.678 -0.0778  0.0964  0.3865
53890SOL    HW171600   7.182  12.027   8.764 -1.4389  0.0039  0.2032
53890SOL    HW271601   7.178  11.999   8.615  0.0051  0.3465  0.0854
53891SOL     OW71602   1.487  10.690   9.762 -0.6633 -0.2609 -0.0842
53891SOL    HW171603   1.466  10.744   9.839  0.3614 -1.1656  0.8688
53891SOL    HW271604   1.582  10.698   9.754 -0.5776 -1.4528 -0.2922
53892SOL     OW71605   1.488   8.621   7.094 -0.7297  0.3316 -0.0386
53892SOL    HW171606   1.416   8.590   7.039 -0.6337 -0.3917  0.2326
53892SOL    HW271607   1.561   8.633   7.033 -0.7616 -0.0000 -0.1438
53893SOL     OW71608  11.645  12.978   3.069  0.4106  0.3161  0.0569
53893SOL    HW171609  11.709  12.954   3.003 -1.6651 -4.6248 -0.5939
53893SOL    HW271610  11.676  12.936   3.149 -0.6649  0.0976  0.3720
53894SOL     OW71611  11.342   9.966   7.781  0.3217  0.4544 -0.5153
53894SOL    HW171612  11.313  10.006   7.699  0.4777  0.4485 -0.5743
53894SOL    HW271613  11.423   9.921   7.758  0.9378  1.3342 -0.1322
53895SOL     OW71614   1.579   6.812   1.515  0.5969  0.0347 -0.1481
53895SOL    HW171615   1.543   6.832   1.601 -1.4443 -0.7844 -0.7445
53895SOL    HW271616   1.559   6.720   1.501  1.7157 -0.0957 -1.1474
53896SOL     OW71617   4.083   0.422   5.998 -0.0801 -0.1352  0.0360
53896SOL    HW171618   4.034   0.379   6.069 -1.2413  0.6036 -0.3050
53896SOL    HW271619   4.018   0.470   5.949  1.1053  1.5743  0.0560
53897SOL     OW71620   9.515   2.856   0.881 -0.1776  0.1606 -0.4938
53897SOL    HW171621   9.580   2.874   0.948 -0.6012  0.2388 -0.1011
53897SOL    HW271622   9.524   2.928   0.819 -0.6204  0.7646  0.1238
53898SOL     OW71623   9.719   7.486  13.087  0.1561  0.1834  0.3466
53898SOL    HW171624   9.781   7.433  13.138  0.0679 -0.0579  0.2036
53898SOL    HW271625   9.738   7.464  12.996 -0.6657 -0.4793  0.3244
53899SOL     OW71626   7.240  12.832  10.704  0.0598  0.0598 -0.0336
53899SOL    HW171627   7.327  12.860  10.673  0.6030  1.7829  2.7263
53899SOL    HW271628   7.215  12.898  10.768 -2.9731 -0.8674 -0.1044
53900SOL     OW71629   2.755  12.104  11.232  0.2559  0.1127  0.8520
53900SOL    HW171630   2.760  12.079  11.140  1.9826 -1.4930  1.3219
53900SOL    HW271631   2.770  12.022  11.280  0.6763  1.1304  2.5545
53901SOL     OW71632   8.225   1.934   5.497  0.2777  0.3668 -0.4045
53901SOL    HW171633   8.260   2.013   5.539 -0.3894  1.1757 -1.3326
53901SOL    HW271634   8.176   1.966   5.422  1.3527 -1.0490 -1.7765
53902SOL     OW71635   5.501   1.448   2.338  0.0812  0.9701 -0.0271
53902SOL    HW171636   5.471   1.438   2.429 -0.5695  0.2405 -0.3096
53902SOL    HW271637   5.594   1.423   2.341 -0.7086 -2.6142 -0.1143
53903SOL     OW71638   6.824   8.217   2.620  0.3788  0.0964  0.1021
53903SOL    HW171639   6.883   8.247   2.550  1.2253 -0.0649  0.7250
53903SOL    HW271640   6.875   8.228   2.700 -0.3700 -0.2568  0.6357
53904SOL     OW71641  12.474   8.471   1.748 -0.0471  0.3865  0.0237
53904SOL    HW171642  12.398   8.412   1.739 -0.6861  1.2629 -0.3864
53904SOL    HW271643  12.549   8.413   1.737 -0.6538 -0.4406  0.0559
53905SOL     OW71644   5.959   9.069  11.351 -0.0064 -0.1547  0.0591
53905SOL    HW171645   6.049   9.070  11.318  0.1724  2.4326  0.3968
53905SOL    HW271646   5.929   8.980  11.337  3.5847 -2.0489  2.6530
53906SOL     OW71647   3.144   7.560   5.430  0.3000 -0.9838  0.5728
53906SOL    HW171648   3.136   7.501   5.354  1.4752  0.5768 -0.8374
53906SOL    HW271649   3.151   7.501   5.505 -1.4777 -2.5831 -0.4285
53907SOL     OW71650   2.493   8.625  12.895 -1.0058  0.2454 -0.6999
53907SOL    HW171651   2.414   8.668  12.929 -0.6686 -0.3205  0.8656
53907SOL    HW271652   2.477   8.532  12.911  0.3909  0.1961  0.5810
53908SOL     OW71653  11.794   2.365   8.852  0.2608  0.0424  0.3643
53908SOL    HW171654  11.798   2.370   8.947  2.1671  0.2713  0.3130
53908SOL    HW271655  11.868   2.419   8.822 -0.0456 -0.3718 -1.2313
53909SOL     OW71656   5.416  11.381   6.304 -0.3533 -0.8519 -0.4347
53909SOL    HW171657   5.417  11.312   6.237  0.1265  1.4035 -2.9204
53909SOL    HW271658   5.507  11.408   6.311 -0.6756  0.2230 -0.2821
53910SOL     OW71659   3.677   0.238   6.585 -0.1102 -0.1948  0.0378
53910SOL    HW171660   3.705   0.233   6.677  2.9444  2.3106 -0.6066
53910SOL    HW271661   3.608   0.303   6.585  0.3089  0.2607  0.5018
53911SOL     OW71662   0.716  10.505  13.016 -0.1300  0.4503 -0.1560
53911SOL    HW171663   0.775  10.519  13.090  1.0355 -0.6755 -0.8081
53911SOL    HW271664   0.722  10.586  12.965  0.8412  0.3855 -0.1713
53912SOL     OW71665   6.738   6.410   9.155 -0.3266 -0.9459 -0.0622
53912SOL    HW171666   6.644   6.399   9.162 -0.0748 -2.2292  1.9858
53912SOL    HW271667   6.752   6.446   9.067 -2.8416  1.1689  0.2998
53913SOL     OW71668   0.747   1.768   7.082 -0.1391 -0.2893  0.5713
53913SOL    HW171669   0.684   1.699   7.102 -1.6944  1.0037  0.2849
53913SOL    HW271670   0.824   1.721   7.050 -1.6958 -1.8501 -1.1258
53914SOL     OW71671  11.684  11.505   1.906  0.5302 -0.0094  0.0055
53914SOL    HW171672  11.734  11.443   1.854 -0.6519 -0.0063 -1.1837
53914SOL    HW271673  11.740  11.583   1.911  1.9159 -1.0070  1.2969
53915SOL     OW71674   5.276   6.001  10.242 -0.3987  0.1748 -0.0444
53915SOL    HW171675   5.200   6.044  10.202 -0.8313 -0.8180 -0.3083
53915SOL    HW271676   5.311   6.067  10.302 -2.2641  0.1974  1.0994
53916SOL     OW71677   6.908  10.060   9.957  0.0387 -1.1058  0.1871
53916SOL    HW171678   6.858  10.134   9.924  1.0644 -0.1724  0.6700
53916SOL    HW271679   6.844  10.008  10.006 -0.1607  1.0330  2.3781
53917SOL     OW71680   1.071  10.505   4.785 -0.0714  0.1791 -0.1864
53917SOL    HW171681   1.094  10.425   4.739 -0.6744 -0.0010 -0.1845
53917SOL    HW271682   1.097  10.576   4.726  1.0618  0.0070  0.0887
53918SOL     OW71683   2.533   3.761   9.948 -0.3602  0.2521 -0.3336
53918SOL    HW171684   2.482   3.719   9.878  0.4570 -1.1133 -0.1448
53918SOL    HW271685   2.506   3.716  10.028 -1.1529  1.6794  0.2471
53919SOL     OW71686  10.572  10.834   7.420  0.2747  0.0341  0.5259
53919SOL    HW171687  10.601  10.851   7.331 -0.1962  0.0911  0.3794
53919SOL    HW271688  10.535  10.917   7.450 -0.2963 -0.2021  0.4861
53920SOL     OW71689   4.634   0.499  13.266  0.1206 -0.4907  0.2760
53920SOL    HW171690   4.618   0.593  13.273 -0.1313 -0.5623  0.7829
53920SOL    HW271691   4.708   0.483  13.324  0.9659 -0.4216 -0.7622
53921SOL     OW71692  10.070  12.580   3.846 -0.3073 -0.0675  0.0546
53921SOL    HW171693  10.078  12.496   3.800  2.1641 -0.2740  0.6825
53921SOL    HW271694   9.999  12.625   3.802 -0.1573 -1.5546 -1.8529
53922SOL     OW71695   8.742  10.300   7.972 -0.4098 -0.2778 -0.3275
53922SOL    HW171696   8.761  10.319   7.880  2.3941 -1.7167 -0.1576
53922SOL    HW271697   8.724  10.206   7.973 -1.0109 -0.1654  0.5598
53923SOL     OW71698   5.851   2.848  11.351 -0.1100  0.2688 -0.0159
53923SOL    HW171699   5.831   2.770  11.403  1.7455  0.2551  0.7538
53923SOL    HW271700   5.852   2.818  11.261 -0.7136 -0.3014  0.1584
53924SOL     OW71701  12.168  12.959  11.657  0.3617  0.2725 -0.1430
53924SOL    HW171702  12.163  12.973  11.752 -1.6007 -0.3722 -0.1149
53924SOL    HW271703  12.198  13.043  11.622  1.7038  0.3418  1.0669
53925SOL     OW71704  11.621  10.600   0.945 -0.1544 -0.4973  0.1436
53925SOL    HW171705  11.571  10.526   0.910  0.7137 -0.3791 -1.4131
53925SOL    HW271706  11.669  10.634   0.870 -2.3577  3.1961  0.1487
53926SOL     OW71707  13.006  11.432   7.124  0.7165  0.1616  0.3816
53926SOL    HW171708  13.002  11.514   7.074  0.1781 -0.2881 -0.3224
53926SOL    HW271709  12.925  11.430   7.174 -2.9471 -3.0634 -4.6429
53927SOL     OW71710  11.948   2.594   3.796 -0.0353  0.1810  0.4814
53927SOL    HW171711  11.970   2.521   3.738  0.8802  1.7496 -1.2968
53927SOL    HW271712  12.023   2.600   3.856 -0.1336 -0.3475  0.6631
53928SOL     OW71713  13.246  11.748  12.915 -0.4392 -0.3059  0.0481
53928SOL    HW171714  13.216  11.748  13.006 -1.3801 -0.1069 -0.2551
53928SOL    HW271715  13.329  11.699  12.917  0.1861  0.7445  1.2102
53929SOL     OW71716   6.895   4.407  12.612  0.0472  0.0407  0.3980
53929SOL    HW171717   6.838   4.331  12.600  0.7316 -0.4876  0.4005
53929SOL    HW271718   6.862   4.472  12.551 -1.7850  0.4853  1.7569
53930SOL     OW71719   2.660   7.140  13.261 -0.3614  0.8765 -0.4944
53930SOL    HW171720   2.573   7.157  13.298 -0.2589  0.8179 -0.2280
53930SOL    HW271721   2.713   7.114  13.335 -0.4896 -0.5658 -0.8722
53931SOL     OW71722   0.304   0.200   0.568 -0.1192  0.2995 -0.0962
53931SOL    HW171723   0.270   0.187   0.480 -0.8560 -2.7157  0.5325
53931SOL    HW271724   0.226   0.218   0.621 -0.1762 -1.4191  0.4694
53932SOL     OW71725   4.781   4.752   9.114 -0.3281 -0.0084 -0.6019
53932SOL    HW171726   4.781   4.725   9.022 -2.1854  0.3551 -0.7375
53932SOL    HW271727   4.730   4.685   9.159 -1.2205  0.9090 -0.2032
53933SOL     OW71728   1.065  12.441   9.441  0.2770 -0.0177  0.6318
53933SOL    HW171729   1.053  12.347   9.455 -0.3274  0.0221  0.4472
53933SOL    HW271730   1.156  12.450   9.412 -0.1313 -0.7592 -0.9982
53934SOL     OW71731   4.807   0.373   0.196 -0.2585 -0.1667  0.4473
53934SOL    HW171732   4.867   0.438   0.232  0.1808  0.1121 -0.7622
53934SOL    HW271733   4.768   0.331   0.273  2.1859 -1.0400  1.3082
53935SOL     OW71734  10.804   7.328  10.265 -0.1028  0.2268 -0.5464
53935SOL    HW171735  10.889   7.369  10.248 -0.4537  2.6760  2.7112
53935SOL    HW271736  10.819   7.268  10.338 -1.0883  0.4559 -0.1345
53936SOL     OW71737   6.691   0.522   9.597  0.1439 -0.0898 -0.6048
53936SOL    HW171738   6.784   0.534   9.581  0.5392 -0.0099  1.5352
53936SOL    HW271739   6.658   0.484   9.515  1.7735  1.0554 -1.8763
53937SOL     OW71740   9.202  12.637  10.033 -0.0028  0.1534 -0.7310
53937SOL    HW171741   9.118  12.599  10.007  0.4564  0.3159 -2.5617
53937SOL    HW271742   9.262  12.562  10.035 -0.8393 -0.8496  4.6634
53938SOL     OW71743   2.170  11.574  12.228 -0.8174 -0.2985  0.3519
53938SOL    HW171744   2.197  11.650  12.279  0.3789 -0.9699  0.7617
53938SOL    HW271745   2.230  11.572  12.153 -0.4918 -1.1241  0.6225
53939SOL     OW71746   4.220   8.117   5.972  0.1345 -0.1009  0.0200
53939SOL    HW171747   4.270   8.036   5.987 -0.0111 -0.1363  0.3161
53939SOL    HW271748   4.287   8.184   5.956  0.2649 -0.2069  0.1245
53940SOL     OW71749   4.169  10.392   4.850 -0.4558 -0.1400 -0.8766
53940SOL    HW171750   4.230  10.340   4.901  0.0721 -0.9487 -2.2952
53940SOL    HW271751   4.220  10.467   4.820 -0.4811 -0.2128 -1.1002
53941SOL     OW71752   2.374   6.380   5.667  0.4008  0.3785  0.7966
53941SOL    HW171753   2.301   6.439   5.649  0.2849 -0.3902 -1.6003
53941SOL    HW271754   2.451   6.427   5.637  0.4167 -0.2834 -0.2449
53942SOL     OW71755   2.473  11.398   2.323 -0.2004 -0.2612  0.7266
53942SOL    HW171756   2.407  11.424   2.259  1.1142  2.8492  0.4585
53942SOL    HW271757   2.539  11.350   2.272 -0.7163 -0.6339  0.4027
53943SOL     OW71758   0.270  12.931   0.638  0.1919  0.2508  0.1735
53943SOL    HW171759   0.323  12.907   0.562  1.7199  0.5670  1.0960
53943SOL    HW271760   0.219  13.006   0.610  1.1815  0.7312 -0.3693
53944SOL     OW71761   0.172   7.125  13.109  0.1363  0.2368 -0.4154
53944SOL    HW171762   0.185   7.218  13.126  3.3645 -0.3603  0.9795
53944SOL    HW271763   0.107   7.097  13.173  0.4163  1.1986  0.2992
53945SOL     OW71764   9.809   7.690   2.038 -0.2684 -0.3024 -0.1039
53945SOL    HW171765   9.730   7.721   2.082  0.0942  0.7918 -0.2109
53945SOL    HW271766   9.881   7.733   2.083  0.1937 -0.2636 -0.8559
53946SOL     OW71767   8.021   7.943  12.468 -0.1322  0.2004  0.1858
53946SOL    HW171768   8.065   7.996  12.535  0.0645  0.2681  0.0007
53946SOL    HW271769   7.992   7.865  12.516 -0.0294  0.2673  0.3620
53947SOL     OW71770   3.375  13.288   8.169 -0.1153  0.0579  0.1952
53947SOL    HW171771   3.315  13.359   8.195 -0.7457 -0.3861 -0.0212
53947SOL    HW271772   3.445  13.332   8.121 -0.8643  0.4671 -0.5579
53948SOL     OW71773   8.108  10.919   9.842 -0.4146  0.4145  0.4233
53948SOL    HW171774   8.053  10.996   9.831 -1.8397 -0.4229  1.4146
53948SOL    HW271775   8.191  10.953   9.877 -0.7924  1.5504  0.2364
53949SOL     OW71776   3.389   8.522   3.406  0.2935 -0.4550 -0.0666
53949SOL    HW171777   3.483   8.502   3.398  0.2713 -0.1837 -1.2440
53949SOL    HW271778   3.346   8.436   3.400  0.4668 -0.5898  0.5781
53950SOL     OW71779   1.820   5.167  10.510 -0.1812 -0.3960  0.2048
53950SOL    HW171780   1.909   5.185  10.482 -0.2763 -1.1964 -0.6560
53950SOL    HW271781   1.771   5.246  10.485 -0.2836 -1.1086 -2.0527
53951SOL     OW71782  12.974   7.279   7.450 -0.2511 -0.2696 -0.2350
53951SOL    HW171783  12.963   7.365   7.410  1.0493 -0.1719 -0.4276
53951SOL    HW271784  12.885   7.250   7.470 -0.9387 -0.1985 -2.8900
53952SOL     OW71785  11.987  13.041  12.957  0.2118  0.2453 -0.5146
53952SOL    HW171786  11.986  12.981  12.882  0.1293 -0.4085  0.0022
53952SOL    HW271787  11.909  13.019  13.007 -0.5395  1.6715 -0.9873
53953SOL     OW71788   8.362   0.194   2.431  0.9318  0.2971  0.2530
53953SOL    HW171789   8.377   0.099   2.439  4.6579  0.6283 -1.1309
53953SOL    HW271790   8.440   0.234   2.469  0.6306  2.7642 -1.5071
53954SOL     OW71791   6.757   8.835  11.708  0.7225  0.3061  1.0581
53954SOL    HW171792   6.842   8.817  11.669  0.0552  0.5140 -0.5694
53954SOL    HW271793   6.758   8.930  11.725  0.6539  0.3854  0.6242
53955SOL     OW71794   8.701   4.398   0.666 -0.4699  0.2291  0.1785
53955SOL    HW171795   8.663   4.372   0.582 -0.3976 -0.3863  0.3290
53955SOL    HW271796   8.626   4.396   0.726 -0.2855 -0.6186  0.3970
53956SOL     OW71797   1.661   1.255   5.298  0.3304 -0.1856  0.3876
53956SOL    HW171798   1.715   1.287   5.226 -1.6179  1.0641 -0.6375
53956SOL    HW271799   1.602   1.191   5.258 -1.4576  1.2562  0.5678
53957SOL     OW71800   2.626   5.571   7.181  0.1779 -0.0750  0.1607
53957SOL    HW171801   2.629   5.485   7.140  1.9872 -1.1264  2.2871
53957SOL    HW271802   2.693   5.622   7.134  0.0262 -0.2277 -0.2273
53958SOL     OW71803   5.536   3.977  12.286 -0.2423 -0.8182 -0.0110
53958SOL    HW171804   5.452   3.944  12.319 -0.3653 -0.3151  0.1898
53958SOL    HW271805   5.540   3.946  12.195  1.5235 -4.9219  1.2637
53959SOL     OW71806   3.358  12.070  11.285 -0.4311 -0.0293 -0.0491
53959SOL    HW171807   3.343  11.987  11.331 -2.3573  1.0159  1.3356
53959SOL    HW271808   3.336  12.138  11.349  1.9947  1.6317 -0.8245
53960SOL     OW71809   8.402   7.931  13.120  0.2849  0.4068 -0.0849
53960SOL    HW171810   8.390   7.879  13.199 -0.4653 -0.8964 -1.0221
53960SOL    HW271811   8.487   7.902  13.085 -0.1169 -0.1925 -0.5886
53961SOL     OW71812   4.950   8.929   8.302 -0.2776 -0.2220  0.0211
53961SOL    HW171813   4.985   8.841   8.317  0.4143 -0.2020 -1.3409
53961SOL    HW271814   4.987   8.982   8.373 -1.8270 -1.2803  1.7034
53962SOL     OW71815   6.624   2.778  12.048  0.1327 -0.1065 -0.3611
53962SOL    HW171816   6.635   2.837  11.973  1.3657  2.4117  1.6551
53962SOL    HW271817   6.651   2.830  12.124 -1.0707 -2.5232  1.8780
53963SOL     OW71818   3.665   3.367   3.963 -0.2393  0.8495  0.2504
53963SOL    HW171819   3.731   3.309   3.925 -0.1552  1.1409 -0.0550
53963SOL    HW271820   3.653   3.335   4.052 -0.0555  0.4806  0.1428
53964SOL     OW71821  12.900   4.691   1.832  0.4699  0.4655  0.3119
53964SOL    HW171822  12.823   4.724   1.786 -0.9529 -3.2073 -0.3149
53964SOL    HW271823  12.969   4.690   1.765 -0.0356  0.2314 -0.2135
53965SOL     OW71824  10.431  10.726   8.869  0.1323 -0.2027  0.5951
53965SOL    HW171825  10.426  10.812   8.911 -1.2722 -0.7716  1.6651
53965SOL    HW271826  10.480  10.672   8.931 -0.3498 -0.5758  0.6537
53966SOL     OW71827   7.283  11.852   2.969 -0.2532 -0.4722 -0.0439
53966SOL    HW171828   7.199  11.870   3.012 -0.4197 -1.7762  0.2367
53966SOL    HW271829   7.276  11.894   2.884 -1.0432 -0.2329  0.1269
53967SOL     OW71830   5.248   6.597  10.253  0.2174  0.6570 -0.0598
53967SOL    HW171831   5.290   6.653  10.188 -0.2280 -0.5620 -1.4272
53967SOL    HW271832   5.319   6.543  10.288  0.1737  0.1627 -0.7347
53968SOL     OW71833  11.732   6.900   2.646  0.0474 -0.1101  0.0264
53968SOL    HW171834  11.769   6.864   2.566  1.3160  0.8047  0.1769
53968SOL    HW271835  11.677   6.973   2.616  1.3990  0.9521  0.0127
53969SOL     OW71836   3.262  10.056  10.067 -0.1193  0.0338  1.1658
53969SOL    HW171837   3.350  10.093  10.058  0.3162 -0.9167  1.4034
53969SOL    HW271838   3.267   9.999  10.143 -0.9645 -0.0010  1.2098
53970SOL     OW71839   3.886  11.199  10.274 -0.0003 -0.3005  0.0351
53970SOL    HW171840   3.959  11.255  10.251 -0.3878 -0.3979 -1.5382
53970SOL    HW271841   3.917  11.110  10.255 -0.4730 -0.3523 -0.5143
53971SOL     OW71842   4.915   1.616   0.952  0.2481 -0.3554  0.3798
53971SOL    HW171843   4.882   1.617   1.041  1.0574  0.3677  0.6823
53971SOL    HW271844   4.998   1.568   0.957  0.8127  0.5762  0.2179
53972SOL     OW71845   2.331   9.000   6.088  0.1095 -0.0073 -0.0534
53972SOL    HW171846   2.377   8.990   6.004  2.9882 -0.8886  1.5011
53972SOL    HW271847   2.269   8.927   6.090 -0.7617  0.6223 -1.7915
53973SOL     OW71848  13.135  10.519   6.654  0.0517  0.2010  0.4235
53973SOL    HW171849  13.226  10.521   6.682 -0.0717  0.5594  0.8115
53973SOL    HW271850  13.085  10.522   6.735 -0.3074 -0.1421  0.2193
53974SOL     OW71851   8.798   3.751  12.266  0.0415  0.1188 -0.0785
53974SOL    HW171852   8.849   3.688  12.318  1.4210  0.3815 -1.0726
53974SOL    HW271853   8.851   3.831  12.266 -1.8821  1.5024  1.5341
53975SOL     OW71854   0.071   5.389   5.170  0.0094  0.1424  0.8933
53975SOL    HW171855   0.094   5.297   5.158  0.1569  0.3731 -1.0275
53975SOL    HW271856  -0.016   5.388   5.208 -0.3806 -0.8160  0.0232
53976SOL     OW71857   5.153   0.348  12.429  0.4042 -0.1393  0.0544
53976SOL    HW171858   5.185   0.285  12.364  0.3184  0.1653 -0.2853
53976SOL    HW271859   5.146   0.430  12.382  1.2468  0.3142  0.6908
53977SOL     OW71860   6.000   3.397   5.408  0.2813 -0.2955 -0.1468
53977SOL    HW171861   5.905   3.412   5.409  0.3119 -0.0985 -0.1609
53977SOL    HW271862   6.020   3.374   5.318  0.0603 -1.5502  0.1062
53978SOL     OW71863   6.027  10.675   7.008 -0.4061 -0.2952  0.3622
53978SOL    HW171864   5.937  10.676   7.041 -0.8752 -0.2493 -0.8428
53978SOL    HW271865   6.021  10.624   6.927  0.4961  0.4247 -0.1669
53979SOL     OW71866   3.328   7.715   8.013 -0.2641  0.6996  0.2051
53979SOL    HW171867   3.414   7.692   7.976  0.2566  0.7355  1.3426
53979SOL    HW271868   3.349   7.760   8.095 -1.3680 -0.7457  1.3573
53980SOL     OW71869   4.916   6.225   6.430 -0.2380  0.1450 -0.7203
53980SOL    HW171870   4.995   6.183   6.464  0.2353  0.6970 -1.1139
53980SOL    HW271871   4.931   6.231   6.335 -0.1169  1.5242 -0.6317
53981SOL     OW71872   6.497   8.029   9.083 -0.1635  0.2024 -0.0902
53981SOL    HW171873   6.470   8.069   9.001  0.9795  0.9510 -0.1333
53981SOL    HW271874   6.444   7.950   9.090 -0.9246  0.6015 -1.0909
53982SOL     OW71875   3.320   7.706   1.715 -0.7488 -0.0768 -0.0727
53982SOL    HW171876   3.273   7.634   1.756  0.5697 -0.4947  0.7834
53982SOL    HW271877   3.378   7.664   1.652 -1.1110  0.3814 -0.7237
53983SOL     OW71878   3.458   5.968   1.298 -0.3363  0.2269  0.2424
53983SOL    HW171879   3.441   6.051   1.342 -0.0647  0.1740  0.4490
53983SOL    HW271880   3.486   5.992   1.210  1.6815  0.4508  0.8893
53984SOL     OW71881   3.148   0.291   5.922 -0.2149  0.4846 -0.2749
53984SOL    HW171882   3.171   0.377   5.960  1.4774 -0.7610  1.7696
53984SOL    HW271883   3.094   0.249   5.989  0.8912 -0.8898 -0.1954
53985SOL     OW71884  12.302   3.965   0.026 -0.3447 -0.5540 -0.5844
53985SOL    HW171885  12.369   3.997   0.087 -0.6433 -1.0164 -0.0106
53985SOL    HW271886  12.225   3.952   0.080 -0.6097 -0.9829 -1.0659
53986SOL     OW71887   3.179   9.084   7.387 -0.2071  0.0127 -0.0624
53986SOL    HW171888   3.269   9.052   7.381 -0.0575  0.3171  0.4236
53986SOL    HW271889   3.170   9.146   7.314 -0.2384 -0.5122 -0.5091
53987SOL     OW71890   8.488   4.194   2.923 -0.5069 -0.3024  0.5704
53987SOL    HW171891   8.446   4.221   3.005  0.1130 -2.1818  1.5610
53987SOL    HW271892   8.420   4.148   2.875 -0.7032  0.2668  0.2981
53988SOL     OW71893   4.306   8.449   4.533  0.3140 -0.3829  0.2121
53988SOL    HW171894   4.369   8.521   4.535  0.4284 -0.4951  0.8545
53988SOL    HW271895   4.239   8.478   4.471  1.2261 -0.4648 -0.8626
53989SOL     OW71896   9.699   2.498  11.146 -0.1571 -0.0152 -0.5758
53989SOL    HW171897   9.727   2.589  11.139 -1.8262  0.4639 -1.3862
53989SOL    HW271898   9.685   2.470  11.055  1.2236 -1.4096 -0.4130
53990SOL     OW71899   2.894   8.741   2.737 -0.0490  0.2948  0.1368
53990SOL    HW171900   2.950   8.814   2.763  1.1355  0.0661 -1.6378
53990SOL    HW271901   2.921   8.668   2.793  0.2125  0.6372  0.4639
53991SOL     OW71902  12.153   4.377  11.894  0.5558  0.0159  0.0074
53991SOL    HW171903  12.131   4.459  11.851  2.2391  0.2973 -0.4101
53991SOL    HW271904  12.207   4.403  11.969  1.3273 -0.6967 -0.2817
53992SOL     OW71905   4.360   8.632   6.313  0.5740  0.3388 -0.3266
53992SOL    HW171906   4.347   8.635   6.219 -0.7599  0.6266 -0.1501
53992SOL    HW271907   4.272   8.627   6.350  1.0463  0.7254  0.9275
53993SOL     OW71908   1.782  10.346   8.030 -0.1247  0.5707 -0.3260
53993SOL    HW171909   1.835  10.319   8.105 -2.2380 -0.2811  0.9483
53993SOL    HW271910   1.837  10.326   7.954  0.6750 -2.0559  0.8178
53994SOL     OW71911   0.624   4.608   9.227  0.2969  0.0615 -0.5880
53994SOL    HW171912   0.605   4.702   9.233  0.7007  0.1828 -1.2336
53994SOL    HW271913   0.613   4.587   9.135 -2.6454 -1.1397 -0.0836
53995SOL     OW71914   6.991   2.259   0.350 -0.2848 -0.7666 -0.1212
53995SOL    HW171915   7.063   2.197   0.363 -0.0839 -0.5917 -0.3802
53995SOL    HW271916   7.031   2.345   0.362  0.7577 -0.3013 -4.8289
53996SOL     OW71917   7.626   1.089  12.913 -0.4092 -0.1103 -0.4695
53996SOL    HW171918   7.575   1.163  12.880 -1.6155 -1.0786 -0.8757
53996SOL    HW271919   7.599   1.015  12.858 -0.0896 -1.0864  0.6447
53997SOL     OW71920  12.135   6.807  13.052 -0.3277  0.3188  0.2752
53997SOL    HW171921  12.184   6.889  13.053 -0.1971  0.2674  2.1711
53997SOL    HW271922  12.175   6.756  12.982  0.5016  1.3433 -0.0177
53998SOL     OW71923   8.047   4.365   6.414  0.1757  0.1225 -0.6984
53998SOL    HW171924   8.125   4.416   6.396  0.3414  0.0839 -0.0858
53998SOL    HW271925   7.986   4.427   6.454  0.2843 -0.0902 -0.1930
53999SOL     OW71926   9.087   6.866   3.273 -0.2931 -0.5554  0.0968
53999SOL    HW171927   9.009   6.922   3.269 -1.1126 -1.7020 -0.4570
53999SOL    HW271928   9.062   6.787   3.225  0.6506 -1.6357  1.3223
54000SOL     OW71929   2.227   9.714   7.557  0.5732 -0.2242 -0.3570
54000SOL    HW171930   2.297   9.665   7.601 -1.4146 -1.9449  1.1144
54000SOL    HW271931   2.241   9.805   7.583  2.2530 -0.5077 -0.1401
54001SOL     OW71932  11.165  10.538   1.847 -0.1911  0.4713 -0.1411
54001SOL    HW171933  11.143  10.517   1.756 -1.0554  0.6093  0.0343
54001SOL    HW271934  11.193  10.630   1.844 -2.5291  1.2429  0.0873
54002SOL     OW71935  12.082   2.917  10.138  0.0117 -0.3553  0.3696
54002SOL    HW171936  12.061   3.008  10.159 -1.2180 -0.0982 -1.6941
54002SOL    HW271937  12.012   2.866  10.180 -0.8028 -0.0985 -0.6417
54003SOL     OW71938   5.920  11.045   2.584  0.1329 -1.0652  0.4260
54003SOL    HW171939   5.916  11.008   2.672  0.7018 -1.6127  0.2328
54003SOL    HW271940   5.993  11.107   2.587  1.1561 -2.1986 -0.0448
54004SOL     OW71941  10.968   8.635  11.149  0.1736  0.2639  0.2847
54004SOL    HW171942  10.960   8.579  11.071  3.6626  0.1061 -0.1036
54004SOL    HW271943  11.010   8.715  11.117  0.2002  0.8636  1.7639
54005SOL     OW71944   7.884   3.273   3.403  0.1783  0.4157 -0.0008
54005SOL    HW171945   7.819   3.209   3.376 -0.5389  0.5789  1.2668
54005SOL    HW271946   7.916   3.242   3.487  2.1142  0.0948 -0.8068
54006SOL     OW71947   0.981   6.188   6.430  0.4467 -1.1270  0.2610
54006SOL    HW171948   1.035   6.214   6.505  0.0215  0.3929  0.0811
54006SOL    HW271949   0.900   6.155   6.468 -0.0407  0.2757  0.4869
54007SOL     OW71950   3.968   5.117   3.930  0.1017 -0.5578  0.6239
54007SOL    HW171951   3.943   5.176   4.002  1.5754 -0.6341  1.2399
54007SOL    HW271952   3.925   5.034   3.951  0.3107 -0.5043  1.2977
54008SOL     OW71953  11.106   9.059   1.146  0.1844  0.2807  0.4978
54008SOL    HW171954  11.057   8.993   1.097 -2.9736  1.6172  1.6232
54008SOL    HW271955  11.125   9.016   1.229  0.5938 -0.1058  0.2128
54009SOL     OW71956   7.446   2.601   9.508  0.1684  0.0988  0.3314
54009SOL    HW171957   7.449   2.653   9.589 -0.2089 -0.6273  0.8199
54009SOL    HW271958   7.537   2.592   9.481  0.2282  1.2426  0.0810
54010SOL     OW71959  11.583   8.021   6.424  0.4454  0.2958  0.6216
54010SOL    HW171960  11.580   8.090   6.490  0.5455 -0.5081  1.4793
54010SOL    HW271961  11.673   7.990   6.425  0.1951 -0.4535  0.8872
54011SOL     OW71962   4.587  10.697   1.591  0.2483  0.3382 -0.2584
54011SOL    HW171963   4.651  10.628   1.573  0.5089  0.3856  0.4713
54011SOL    HW271964   4.512  10.675   1.535 -0.3608 -1.5018  1.1455
54012SOL     OW71965  12.374   8.020   1.584  0.3543 -0.5956  0.3012
54012SOL    HW171966  12.317   8.096   1.573 -0.4109 -1.1991 -0.0079
54012SOL    HW271967  12.352   7.985   1.670 -0.5225 -1.4559 -0.2611
54013SOL     OW71968  12.887   6.705   5.237 -0.2322 -0.3362 -0.1686
54013SOL    HW171969  12.817   6.644   5.263  1.1992 -2.1654 -0.4410
54013SOL    HW271970  12.930   6.663   5.163  1.8627  0.2071  0.6709
54014SOL     OW71971   8.891  10.984  11.962 -0.2256  0.3457  0.1816
54014SOL    HW171972   8.858  11.039  11.891 -0.0560  1.1348  0.7050
54014SOL    HW271973   8.849  10.899  11.948  0.1413  0.3579 -1.1086
54015SOL     OW71974   7.180   5.364   2.557 -0.1271 -0.7112 -0.1467
54015SOL    HW171975   7.158   5.434   2.618  0.4078 -0.2581 -0.4598
54015SOL    HW271976   7.273   5.348   2.571  0.1462 -0.2086 -1.2099
54016SOL     OW71977  13.112   7.932  12.671  0.2602  0.0084  0.0719
54016SOL    HW171978  13.081   7.994  12.605  1.6437 -1.0317 -1.6496
54016SOL    HW271979  13.068   7.850  12.649  2.7140 -1.0333 -1.3209
54017SOL     OW71980  10.137   6.003   3.714  0.0576  0.0547  0.5917
54017SOL    HW171981  10.171   5.976   3.800 -0.7998 -0.9949  0.6122
54017SOL    HW271982  10.147   6.098   3.714 -3.1160  0.5840  3.3090
54018SOL     OW71983   1.330  12.310   9.879 -0.0774 -0.2826 -0.4052
54018SOL    HW171984   1.246  12.345   9.909 -0.7036 -2.2410  0.2611
54018SOL    HW271985   1.313  12.282   9.789  0.0061 -0.2260 -0.4389
54019SOL     OW71986   2.582   8.671  10.065 -0.0663  0.2218  0.0760
54019SOL    HW171987   2.561   8.587  10.024 -0.0043 -0.1221  0.7319
54019SOL    HW271988   2.644   8.649  10.134  0.1518  0.8468  0.0821
54020SOL     OW71989   4.526  12.666   0.812  0.6251  0.7107  0.3482
54020SOL    HW171990   4.619  12.671   0.792  1.1533 -1.7045  1.9091
54020SOL    HW271991   4.521  12.665   0.907 -0.9756  0.3454  0.2909
54021SOL     OW71992   0.301   8.230   2.209  0.0075  0.7442  0.2734
54021SOL    HW171993   0.216   8.188   2.195  0.2634 -0.0486  0.9963
54021SOL    HW271994   0.365   8.162   2.189  0.5103  1.6099 -1.1581
54022SOL     OW71995   2.287   7.479   5.027 -0.0504 -0.0096 -0.3773
54022SOL    HW171996   2.278   7.511   5.116  2.9424 -0.9321  0.3818
54022SOL    HW271997   2.274   7.557   4.972 -1.9251  0.5660  0.8181
54023SOL     OW71998   8.653   7.169   5.153 -0.6936  0.2105  0.3600
54023SOL    HW171999   8.655   7.133   5.242  2.3263  0.6105  0.5733
54023SOL    HW272000   8.741   7.153   5.119 -1.8830 -0.3567 -2.7882
54024SOL     OW72001   3.334   2.149   6.507  0.3453 -0.4383  0.0296
54024SOL    HW172002   3.347   2.136   6.413  0.3461 -0.0106 -0.0351
54024SOL    HW272003   3.341   2.244   6.518 -0.6184 -0.3902  0.3186
54025SOL     OW72004   6.425   3.522  11.182  0.1125 -0.1497 -0.1663
54025SOL    HW172005   6.418   3.529  11.087 -2.0970 -1.3637 -0.1622
54025SOL    HW272006   6.427   3.428  11.200  1.7113  0.0540  0.9658
54026SOL     OW72007   8.975   2.572   3.683  0.3959 -0.8491 -0.1710
54026SOL    HW172008   9.049   2.564   3.623  0.3189 -1.6465 -0.1802
54026SOL    HW272009   8.980   2.661   3.717 -0.9526  0.4802 -3.1364
54027SOL     OW72010   5.906  10.008   5.160 -0.0359 -0.0152 -0.6545
54027SOL    HW172011   5.952   9.978   5.239 -1.1293 -2.6866 -0.9227
54027SOL    HW272012   5.843  10.072   5.192  0.7004  0.2088  0.3915
54028SOL     OW72013   4.463  10.604   4.261 -0.1987 -0.0409 -0.3512
54028SOL    HW172014   4.383  10.568   4.298  0.2524 -0.8204 -0.1187
54028SOL    HW272015   4.518  10.623   4.337  0.6238 -1.3923 -0.5823
54029SOL     OW72016  10.300   3.468   3.498  0.0154  0.4347 -0.2121
54029SOL    HW172017  10.325   3.560   3.512 -0.7137  0.6382 -0.2020
54029SOL    HW272018  10.313   3.427   3.584  2.6308 -0.0539 -0.7608
54030SOL     OW72019   2.778   4.689   5.670  0.3051  0.1159 -0.4767
54030SOL    HW172020   2.728   4.620   5.714  1.3673 -0.7052 -0.5419
54030SOL    HW272021   2.866   4.654   5.662  0.7824  1.3478 -0.8296
54031SOL     OW72022  12.815   6.927   3.655 -0.3267 -0.3680  0.4394
54031SOL    HW172023  12.891   6.909   3.711 -1.5160 -0.9468  1.9456
54031SOL    HW272024  12.778   6.840   3.636 -0.6542 -0.0912 -0.2367
54032SOL     OW72025   9.887   5.959   4.182  0.1139  0.1657 -0.3268
54032SOL    HW172026   9.944   6.005   4.120 -0.9476  0.5342 -1.0603
54032SOL    HW272027   9.884   6.014   4.259 -0.7139  1.0927 -0.9926
54033SOL     OW72028   3.848   4.293   0.160  0.3239  0.2078  0.1229
54033SOL    HW172029   3.889   4.276   0.075 -0.2101 -0.8797  0.0536
54033SOL    HW272030   3.765   4.336   0.139  0.9916  1.5545  0.2072
54034SOL     OW72031  11.278   9.518   6.978 -0.3677  0.0794  0.2162
54034SOL    HW172032  11.329   9.502   7.058 -1.3437  1.0954  1.0758
54034SOL    HW272033  11.314   9.598   6.942  0.1074 -0.4057 -0.4185
54035SOL     OW72034   1.181   7.128   7.373 -0.0749 -0.4196 -0.4574
54035SOL    HW172035   1.092   7.140   7.341 -0.1018 -0.5691 -0.4349
54035SOL    HW272036   1.236   7.174   7.309 -0.3007  1.1477  0.4225
54036SOL     OW72037   9.184  10.972   7.889 -0.0805 -0.0794  0.2411
54036SOL    HW172038   9.156  11.062   7.868 -0.8792 -0.1955  0.7411
54036SOL    HW272039   9.108  10.918   7.866  1.5763 -1.1731 -3.6284
54037SOL     OW72040   5.156   0.250   3.937  0.4713  0.2261  0.3227
54037SOL    HW172041   5.192   0.292   4.015 -0.9854  0.9710  0.6294
54037SOL    HW272042   5.137   0.161   3.964  2.7022 -0.4383 -0.0615
54038SOL     OW72043   4.404   2.895  11.845  0.0181  0.0451 -0.5777
54038SOL    HW172044   4.357   2.973  11.814  0.4787  0.3927 -0.4069
54038SOL    HW272045   4.340   2.848  11.898 -0.5438 -0.1597 -1.4244
54039SOL     OW72046   3.182   6.153   8.613 -0.0075 -0.1952  0.2546
54039SOL    HW172047   3.166   6.157   8.708 -0.2238 -0.4137  0.2281
54039SOL    HW272048   3.202   6.060   8.597  0.3477 -0.1008  0.1370
54040SOL     OW72049   3.829   1.424   8.081  0.1810  0.4981  0.0060
54040SOL    HW172050   3.870   1.376   8.008  0.2241 -0.2780  0.5212
54040SOL    HW272051   3.901   1.475   8.119  0.9565 -1.5164  1.4423
54041SOL     OW72052  10.817   7.936   7.114 -0.2724 -0.7409 -0.3315
54041SOL    HW172053  10.741   7.882   7.094 -1.6120  0.2864  1.6908
54041SOL    HW272054  10.862   7.889   7.185  0.6941 -1.0608 -1.1355
54042SOL     OW72055   9.266   5.885  10.771 -0.1165  0.5571 -0.2482
54042SOL    HW172056   9.289   5.975  10.794 -1.4640  0.6090  1.0882
54042SOL    HW272057   9.207   5.857  10.842  2.5244 -2.3930  1.0046
54043SOL     OW72058   1.306   5.725   2.359 -0.2003  0.0948  0.2963
54043SOL    HW172059   1.387   5.713   2.409 -0.1543  1.4283  0.5697
54043SOL    HW272060   1.312   5.660   2.288  1.0114  0.0366  0.4352
54044SOL     OW72061   9.819   0.844  10.976 -0.5686  0.5891 -0.0072
54044SOL    HW172062   9.748   0.908  10.985 -0.6874  0.4006  0.4539
54044SOL    HW272063   9.798   0.796  10.896 -2.7417 -1.5921  1.7189
54045SOL     OW72064  11.038   0.063   1.225 -0.2276  0.3154 -0.1784
54045SOL    HW172065  11.054  -0.001   1.156  1.3208 -0.1502  0.5522
54045SOL    HW272066  11.110   0.125   1.217 -1.5625  1.8448 -0.6952
54046SOL     OW72067   0.749   3.495  12.920  0.3029  0.3088  0.6423
54046SOL    HW172068   0.806   3.547  12.976  0.8692  1.6898 -1.1036
54046SOL    HW272069   0.677   3.554  12.897  1.1946  0.5880 -1.7487
54047SOL     OW72070   2.946   7.507   6.276 -0.4235 -0.7227  0.3130
54047SOL    HW172071   2.890   7.567   6.226  1.5527 -0.5880 -1.9063
54047SOL    HW272072   2.908   7.420   6.261 -0.3981 -0.5714 -0.7418
54048SOL     OW72073  11.770  11.331   4.753  0.4401 -0.4502  0.9199
54048SOL    HW172074  11.858  11.361   4.776  0.0574  4.2923 -2.3982
54048SOL    HW272075  11.782  11.280   4.673  0.1962  1.2274 -0.2305
54049SOL     OW72076  11.600   2.000   2.925 -0.3181 -0.1787 -0.6004
54049SOL    HW172077  11.689   2.022   2.900  0.4759 -0.4388  1.7888
54049SOL    HW272078  11.550   2.080   2.909  0.7630  0.6207 -0.0554
54050SOL     OW72079  10.484   9.935   6.986  0.0945  0.0975 -0.0291
54050SOL    HW172080  10.434   9.853   6.981  1.7332 -0.9524 -0.0263
54050SOL    HW272081  10.444   9.983   7.058 -0.3917 -1.0811  0.5253
54051SOL     OW72082   4.330   5.363   8.635  0.4309  0.5988 -0.3450
54051SOL    HW172083   4.253   5.345   8.689 -0.5088  0.2351 -1.7407
54051SOL    HW272084   4.314   5.450   8.599  1.1889  0.9645  0.1925
54052SOL     OW72085   3.070   3.195   6.345 -0.4091  0.1935  0.2112
54052SOL    HW172086   3.025   3.116   6.374  0.4503 -0.2829  0.2818
54052SOL    HW272087   3.061   3.256   6.418  0.8865 -0.6503  1.1059
54053SOL     OW72088   8.067   8.252   3.356  0.0396 -0.3655 -0.3056
54053SOL    HW172089   8.110   8.311   3.294 -0.9035 -0.4332 -1.0582
54053SOL    HW272090   7.994   8.303   3.390 -1.5319 -1.4393 -1.8819
54054SOL     OW72091   7.163   5.882   6.766 -0.0224  0.0400  0.1492
54054SOL    HW172092   7.206   5.800   6.790 -0.6726  0.6520  4.1996
54054SOL    HW272093   7.226   5.950   6.790 -0.9104  0.7870  0.4324
54055SOL     OW72094   7.606   9.525  13.196 -0.2268 -0.5147  0.0481
54055SOL    HW172095   7.652   9.477  13.265  1.2499  0.2316 -0.3716
54055SOL    HW272096   7.575   9.605  13.238 -0.7132 -0.7874  0.2134
54056SOL     OW72097   8.393   1.818   0.122 -0.3016 -0.0964 -0.4469
54056SOL    HW172098   8.317   1.809   0.065  0.5459  0.6658 -1.7585
54056SOL    HW272099   8.468   1.819   0.062  0.6202  0.8335  0.6696
54057SOL     OW72100   0.618   7.979  12.576  0.5961 -0.1580 -0.1305
54057SOL    HW172101   0.577   8.065  12.572 -1.4220 -1.0231  0.4122
54057SOL    HW272102   0.673   7.974  12.498 -0.0611  1.2205 -0.7135
54058SOL     OW72103   2.635   5.182  11.896 -0.0424 -0.6145  0.5239
54058SOL    HW172104   2.616   5.210  11.806 -0.8299 -3.3637 -0.2791
54058SOL    HW272105   2.689   5.252  11.933  1.1107  0.1949 -2.4125
54059SOL     OW72106  13.031   5.013   6.449 -0.2332 -0.8232 -0.0554
54059SOL    HW172107  13.082   4.956   6.506  0.5285  0.0507  0.1589
54059SOL    HW272108  13.087   5.025   6.372 -0.6179 -0.7881 -0.3314
54060SOL     OW72109   8.518   8.467   5.045 -0.2254  0.1081  0.2954
54060SOL    HW172110   8.510   8.377   5.079  0.2558 -0.0856 -0.0872
54060SOL    HW272111   8.489   8.460   4.954 -1.1917  0.5575  0.5640
54061SOL     OW72112  11.372  12.515   2.955 -0.2300  0.0772  0.7271
54061SOL    HW172113  11.329  12.449   3.009  0.3924 -0.7165  0.2568
54061SOL    HW272114  11.449  12.542   3.006  0.5425 -0.9128  0.1094
54062SOL     OW72115  13.188   6.890   4.475  0.3966 -0.5469 -0.2936
54062SOL    HW172116  13.197   6.832   4.550  0.1421 -0.9052 -0.5366
54062SOL    HW272117  13.272   6.935   4.469 -0.2296  0.9736  1.4328
54063SOL     OW72118   0.275   9.178   8.599 -0.4708  0.1518  0.2950
54063SOL    HW172119   0.338   9.248   8.620 -0.0882 -0.1537  0.1812
54063SOL    HW272120   0.329   9.101   8.584 -0.4277  0.7208 -3.7632
54064SOL     OW72121  12.224  12.497   3.928  0.0608 -0.6815 -0.4296
54064SOL    HW172122  12.264  12.446   3.858 -1.3348  0.1194 -1.8767
54064SOL    HW272123  12.191  12.576   3.884  0.3461  0.5005  1.3771
54065SOL     OW72124   2.357   8.607   6.440  0.3335 -0.0993  0.3995
54065SOL    HW172125   2.304   8.645   6.510 -1.4695 -0.1040 -0.9141
54065SOL    HW272126   2.418   8.677   6.416 -0.8841  0.8892  0.1058
54066SOL     OW72127  12.050   0.326   6.928 -0.7481 -0.4543  0.3846
54066SOL    HW172128  12.004   0.250   6.965  0.2109  0.4249  3.6977
54066SOL    HW272129  11.980   0.383   6.897 -1.7644 -0.6867  2.1082
54067SOL     OW72130   6.287   4.874   4.857 -0.1862  0.2442  0.1831
54067SOL    HW172131   6.321   4.798   4.809 -0.9055  0.0150  0.0102
54067SOL    HW272132   6.214   4.905   4.802  0.1639  1.1165  0.2065
54068SOL     OW72133   3.045   9.050   3.454 -0.4663 -0.1525 -0.1155
54068SOL    HW172134   3.067   9.040   3.361  0.8872 -0.2919  0.1973
54068SOL    HW272135   3.021   9.143   3.462  0.9208  0.2482 -0.3335
54069SOL     OW72136   7.031  12.708   7.366  0.2903 -0.4519 -0.4409
54069SOL    HW172137   7.010  12.779   7.426  1.4867 -0.1344 -0.3750
54069SOL    HW272138   6.971  12.637   7.391  0.7254 -0.3115  1.1091
54070SOL     OW72139   8.504   1.555   1.268 -0.0796  0.5702  0.1388
54070SOL    HW172140   8.458   1.599   1.340  1.5242  2.5266  0.0711
54070SOL    HW272141   8.583   1.520   1.308 -1.0721 -1.9413  0.0677
54071SOL     OW72142   7.276   7.546   9.329  0.4282  0.8248 -0.4581
54071SOL    HW172143   7.358   7.498   9.330 -0.7983 -1.3921  0.6216
54071SOL    HW272144   7.243   7.536   9.239 -0.5225 -1.7855  0.0983
54072SOL     OW72145  10.065   9.050   1.753 -0.1943 -0.3807 -0.0057
54072SOL    HW172146  10.003   9.041   1.680  0.0044 -3.3082  0.0610
54072SOL    HW272147  10.151   9.050   1.711 -0.1300 -0.4566  0.1263
54073SOL     OW72148  10.090   7.212   2.765 -0.2994  0.2107 -0.0655
54073SOL    HW172149  10.105   7.121   2.741 -0.3034  0.4068 -0.8505
54073SOL    HW272150  10.052   7.208   2.852  1.0260 -0.4712  0.5112
54074SOL     OW72151   3.165   4.080  12.274  0.0901 -0.8258  0.4290
54074SOL    HW172152   3.178   3.989  12.249 -0.0911 -0.7296 -0.0280
54074SOL    HW272153   3.070   4.091  12.278  0.0440 -0.1964 -1.3128
54075SOL     OW72154   7.390   8.643   4.169 -0.2807  0.3215  0.1947
54075SOL    HW172155   7.432   8.557   4.169  0.1077  0.4943 -0.6532
54075SOL    HW272156   7.423   8.685   4.089 -0.5599  1.2094  0.5398
54076SOL     OW72157   8.888   4.493   0.839 -0.1210  0.4694  0.0474
54076SOL    HW172158   8.821   4.466   0.777  0.9476 -1.3109 -0.3819
54076SOL    HW272159   8.878   4.433   0.913  1.9149 -0.8377 -0.6679
54077SOL     OW72160   4.129   1.368  13.273  0.2629  0.7641 -0.4938
54077SOL    HW172161   4.202   1.427  13.293 -0.4778  1.3987  0.4395
54077SOL    HW272162   4.050   1.421  13.290 -0.4662 -0.9144  1.9282
54078SOL     OW72163   7.561   6.862   8.655  0.3892 -0.0584 -0.8902
54078SOL    HW172164   7.496   6.857   8.725  1.9073  1.8408  0.8050
54078SOL    HW272165   7.511   6.884   8.577 -0.9996  3.0970  0.6815
54079SOL     OW72166   0.745   5.507   4.404  0.1598  0.0367 -0.4615
54079SOL    HW172167   0.749   5.449   4.481  0.2649 -0.5572 -0.9046
54079SOL    HW272168   0.718   5.450   4.332 -0.2133  0.6490 -0.8121
54080SOL     OW72169   8.016   0.075   5.175 -0.2307 -0.4459  0.1861
54080SOL    HW172170   8.047   0.114   5.093 -0.3693  0.0961  0.3877
54080SOL    HW272171   7.946   0.016   5.148 -0.9410  0.4623 -0.0049
54081SOL     OW72172   5.421   3.866   6.920  0.1318  0.4296 -0.0313
54081SOL    HW172173   5.392   3.802   6.985  0.2269 -0.2581 -0.6529
54081SOL    HW272174   5.340   3.897   6.879  0.1505 -0.1046 -0.4795
54082SOL     OW72175   5.871   2.416   8.621 -0.0079  0.6147  0.4593
54082SOL    HW172176   5.826   2.402   8.704  0.9646  0.6912  1.0086
54082SOL    HW272177   5.817   2.370   8.557 -0.0102 -0.6641  1.3411
54083SOL     OW72178  12.773   1.774   8.792 -0.7393  0.0058  0.7788
54083SOL    HW172179  12.766   1.761   8.886  0.7196 -1.3821  0.7270
54083SOL    HW272180  12.859   1.813   8.779 -1.6436  1.9559  0.1289
54084SOL     OW72181   7.426   4.485   3.414 -0.0600  0.2501  0.3420
54084SOL    HW172182   7.463   4.533   3.340  0.2907  0.7985  0.8623
54084SOL    HW272183   7.342   4.529   3.431  0.6674  1.2937  1.3906
54085SOL     OW72184   2.002  11.896  12.884 -0.0494  0.4987 -0.1401
54085SOL    HW172185   1.977  11.808  12.858 -1.7439  0.4389  1.4729
54085SOL    HW272186   1.985  11.950  12.807 -2.0245 -0.1321 -0.2096
54086SOL     OW72187   1.165   1.074   3.329  0.2245  0.2773  0.0301
54086SOL    HW172188   1.113   1.022   3.268 -0.5013  0.7148  0.2532
54086SOL    HW272189   1.231   1.013   3.363 -0.4833 -0.4452  0.1364
54087SOL     OW72190   0.376  11.860   4.950 -0.0209  0.0087 -0.4427
54087SOL    HW172191   0.321  11.924   4.905  0.2813 -0.3306 -1.3339
54087SOL    HW272192   0.354  11.869   5.042 -1.7226 -0.2512 -0.7832
54088SOL     OW72193   9.573  10.224   4.243  0.0465  0.2960  0.0417
54088SOL    HW172194   9.628  10.174   4.183  2.2349  0.4634  1.7691
54088SOL    HW272195   9.519  10.159   4.286  0.0570 -0.0898 -0.5166
54089SOL     OW72196   4.682   1.293   4.503 -0.3620 -0.7026 -0.3392
54089SOL    HW172197   4.764   1.323   4.544  0.3170 -1.4602 -1.1188
54089SOL    HW272198   4.710   1.236   4.432 -1.5672 -0.5382 -0.9687
54090SOL     OW72199   0.213   9.237  12.026 -0.7470  0.4149  0.0068
54090SOL    HW172200   0.236   9.257  12.117  0.0141  0.3120 -0.1614
54090SOL    HW272201   0.216   9.322  11.981 -0.3000  0.3425 -0.1011
54091SOL     OW72202   0.365   0.179   9.301 -0.5899 -0.1785 -0.4048
54091SOL    HW172203   0.316   0.178   9.383 -1.9057 -3.2431 -1.0858
54091SOL    HW272204   0.448   0.137   9.321  0.4422  1.8922 -0.0386
54092SOL     OW72205   8.706   3.462  12.005  0.0329  0.6568 -0.8010
54092SOL    HW172206   8.674   3.383  11.962 -2.5018  1.5513 -0.7363
54092SOL    HW272207   8.663   3.463  12.090 -0.0075  2.1194 -0.8101
54093SOL     OW72208   5.975   3.329  10.737  0.2036 -0.1469  0.1366
54093SOL    HW172209   5.967   3.298  10.647 -0.7492 -0.0499  0.1793
54093SOL    HW272210   5.945   3.255  10.791 -2.1772  0.8038  0.2356
54094SOL     OW72211   5.182   7.506   3.618  0.5213  0.2339 -0.0928
54094SOL    HW172212   5.240   7.581   3.631 -1.2432  1.4548  1.2590
54094SOL    HW272213   5.184   7.460   3.703  0.7540 -0.6511 -0.5657
54095SOL     OW72214  10.477   7.187   1.585  0.1530  0.1837  0.7750
54095SOL    HW172215  10.437   7.130   1.651 -0.1886 -0.2761  0.1808
54095SOL    HW272216  10.467   7.139   1.503  1.5790  0.2442  0.5476
54096SOL     OW72217   2.652   2.093   0.831  0.1462 -0.1182  0.1045
54096SOL    HW172218   2.692   2.135   0.907 -1.2073  0.6947  0.4031
54096SOL    HW272219   2.715   2.027   0.804  0.3099 -1.0306  2.4629
54097SOL     OW72220  10.897  10.806   0.196 -0.2708 -0.3471 -0.0291
54097SOL    HW172221  10.944  10.890   0.195 -0.3518 -0.3010  0.0197
54097SOL    HW272222  10.806  10.831   0.212 -0.4609 -0.3570 -1.0066
54098SOL     OW72223  12.773   8.814   0.142  0.4604  0.1274  0.0969
54098SOL    HW172224  12.817   8.865   0.074  0.6292 -0.2464 -0.0797
54098SOL    HW272225  12.787   8.723   0.117  1.8738 -0.0741  1.4512
54099SOL     OW72226   1.801  12.446   7.166 -0.2829  0.2000 -0.1599
54099SOL    HW172227   1.788  12.391   7.090 -1.7181 -0.5827  0.6158
54099SOL    HW272228   1.815  12.534   7.131 -1.2543 -0.0921 -1.2962
54100SOL     OW72229   6.688   2.918   4.412  0.0053  0.2791  0.2344
54100SOL    HW172230   6.679   2.823   4.406  0.9625  0.2454 -1.0151
54100SOL    HW272231   6.745   2.933   4.487  1.1079 -0.2274 -0.4867
54101SOL     OW72232   8.526   5.323   1.873  0.7604  0.4187  0.0286
54101SOL    HW172233   8.524   5.330   1.777  2.3940  2.8200  0.0945
54101SOL    HW272234   8.447   5.368   1.902  1.9249  2.6898 -0.1543
54102SOL     OW72235  12.893   1.884   7.683 -0.9810  0.3441  0.1477
54102SOL    HW172236  12.881   1.870   7.777 -2.7488  1.4343  0.1309
54102SOL    HW272237  12.831   1.823   7.642  0.3971 -0.7512 -0.3731
54103SOL     OW72238   7.723   7.364  10.869 -0.4482  0.2353  0.5932
54103SOL    HW172239   7.635   7.328  10.873 -0.4816 -0.1173 -1.7892
54103SOL    HW272240   7.717   7.438  10.809  1.0651 -0.6180 -0.7130
54104SOL     OW72241  10.922   5.579  10.254 -0.2445 -0.0663 -0.2277
54104SOL    HW172242  10.828   5.584  10.266 -0.1398 -0.5825  0.9376
54104SOL    HW272243  10.957   5.656  10.300  0.0271 -0.9504  1.0817
54105SOL     OW72244  10.070   5.016  10.172  0.3154  0.6177  0.5618
54105SOL    HW172245  10.052   4.922  10.166 -0.2184  0.6371  1.5814
54105SOL    HW272246  10.081   5.032  10.266 -1.4702  1.8839  0.6084
54106SOL     OW72247   8.167   1.547  13.245  0.1027 -0.3110 -0.2458
54106SOL    HW172248   8.234   1.481  13.261  0.0871 -0.0034  1.2618
54106SOL    HW272249   8.108   1.506  13.182 -0.9962 -2.6042  2.0805
54107SOL     OW72250  11.225   1.993   7.604  0.2871  0.0504  0.3425
54107SOL    HW172251  11.175   1.927   7.652  1.1991 -1.7838 -1.1037
54107SOL    HW272252  11.217   1.967   7.513 -0.0450  2.4927 -0.3695
54108SOL     OW72253   2.860   5.649  12.754  0.1064  0.6844  0.0941
54108SOL    HW172254   2.925   5.581  12.743 -1.0502 -0.4241 -0.0719
54108SOL    HW272255   2.809   5.648  12.674 -0.1815  1.4684  0.2565
54109SOL     OW72256   4.621   1.962  11.388 -0.0964 -0.0458 -0.3581
54109SOL    HW172257   4.624   2.028  11.457  1.0612  0.6034 -0.9967
54109SOL    HW272258   4.534   1.922  11.396  0.6302 -1.2705  2.6123
54110SOL     OW72259   7.261   2.968   7.352  0.0804 -0.6182  0.5125
54110SOL    HW172260   7.303   3.050   7.327 -0.2330 -0.2077  1.3108
54110SOL    HW272261   7.333   2.913   7.385  0.0359  0.0120  1.6971
54111SOL     OW72262   2.793   1.162  11.558 -0.1929 -0.2075  0.4351
54111SOL    HW172263   2.874   1.189  11.601  0.4518  1.2004 -1.5246
54111SOL    HW272264   2.811   1.074  11.525  0.8161  0.3356 -0.5353
54112SOL     OW72265  12.834   5.391   4.470 -0.1356 -0.7318 -0.2121
54112SOL    HW172266  12.832   5.315   4.412 -1.5766  1.4642 -3.2979
54112SOL    HW272267  12.856   5.464   4.413  2.6348  1.1003  2.8747
54113SOL     OW72268   4.930   8.465  12.156 -0.2202 -0.6785 -0.7340
54113SOL    HW172269   4.932   8.498  12.066 -0.9268  0.7705 -0.2356
54113SOL    HW272270   4.872   8.524  12.203 -0.9061 -2.1802  0.3987
54114SOL     OW72271   2.634   3.073   8.951 -0.2547 -0.5302  0.1347
54114SOL    HW172272   2.549   3.069   8.908  0.0162 -3.5049 -0.3568
54114SOL    HW272273   2.630   3.006   9.019  1.3188  0.0804  0.8916
54115SOL     OW72274   9.389   6.918   6.949  0.0151  0.0247 -0.0906
54115SOL    HW172275   9.423   6.829   6.940  0.0244  0.1589 -1.8701
54115SOL    HW272276   9.435   6.968   6.882 -1.4653  0.8932 -0.5113
54116SOL     OW72277   8.837   1.338   8.176 -0.1368  0.0060  0.3245
54116SOL    HW172278   8.821   1.432   8.179  0.5966  0.1738  3.7384
54116SOL    HW272279   8.813   1.307   8.264 -0.0914 -2.9586 -0.5973
54117SOL     OW72280   6.149   4.490  11.848 -0.2143  0.2316 -0.2340
54117SOL    HW172281   6.202   4.454  11.776 -1.3581 -2.0059 -0.0482
54117SOL    HW272282   6.061   4.455  11.833 -0.5707 -0.0061  2.0344
54118SOL     OW72283   5.507   5.653   8.299  0.1770 -0.6819  0.2089
54118SOL    HW172284   5.431   5.607   8.263  0.8295 -1.6313  0.0365
54118SOL    HW272285   5.521   5.613   8.384 -0.9514  1.1088  1.3232
54119SOL     OW72286   6.652   2.802   1.571  0.2913 -0.0740  0.3305
54119SOL    HW172287   6.588   2.869   1.593 -0.8381 -0.5136 -1.4266
54119SOL    HW272288   6.720   2.848   1.521 -0.5807 -0.2399 -1.0423
54120SOL     OW72289   8.609   0.554   4.071 -0.4881 -0.3080  0.0972
54120SOL    HW172290   8.681   0.500   4.040 -0.5689 -0.9684  0.9935
54120SOL    HW272291   8.584   0.514   4.155 -1.8191 -0.0333 -0.1408
54121SOL     OW72292  12.058   7.331   4.569  0.2908 -0.3545  0.0060
54121SOL    HW172293  12.044   7.319   4.663  0.0117 -1.3842 -0.1613
54121SOL    HW272294  12.041   7.424   4.554  0.5770 -0.1300  1.0138
54122SOL     OW72295   7.396   5.247  11.872 -0.0119  0.1318  0.1745
54122SOL    HW172296   7.353   5.317  11.921 -0.1135 -1.0392  1.8674
54122SOL    HW272297   7.488   5.273  11.868 -0.2206  0.8384 -0.1112
54123SOL     OW72298  12.305   3.799   3.586 -0.5306  0.3514 -0.5151
54123SOL    HW172299  12.311   3.809   3.491  2.0695 -0.9699 -0.5805
54123SOL    HW272300  12.348   3.878   3.621  0.6159 -0.2532 -0.5225
54124SOL     OW72301   2.755   6.706   5.620  0.4917  0.6264 -0.5665
54124SOL    HW172302   2.676   6.672   5.577  0.5062  0.9399 -0.8443
54124SOL    HW272303   2.789   6.632   5.670  0.9927 -0.0061 -1.8316
54125SOL     OW72304   9.788   7.780   7.169  0.7810 -0.3301 -0.3142
54125SOL    HW172305   9.810   7.738   7.252  2.7584 -0.4985 -0.8724
54125SOL    HW272306   9.804   7.873   7.184  0.2482 -0.2488 -0.2408
54126SOL     OW72307  10.736   6.070   7.586 -0.4283  0.3482  0.3754
54126SOL    HW172308  10.706   6.039   7.671  0.9071  0.9625  1.0965
54126SOL    HW272309  10.793   6.145   7.606 -0.3146  0.6815 -1.0688
54127SOL     OW72310  10.415   2.967  11.750 -0.0009 -0.5066 -0.2617
54127SOL    HW172311  10.433   3.051  11.706 -0.6438  0.1618  0.7141
54127SOL    HW272312  10.501   2.937  11.780 -0.1097  1.9263  3.0856
54128SOL     OW72313   2.611   1.452   4.528 -0.5041  0.4122  0.9655
54128SOL    HW172314   2.535   1.408   4.491  0.0082 -0.7842  1.2946
54128SOL    HW272315   2.676   1.453   4.457 -0.1310 -0.3514  1.2861
54129SOL     OW72316  12.240   8.141  11.545  0.1925  0.4106  0.4483
54129SOL    HW172317  12.321   8.089  11.547 -0.3119 -0.4036  0.3723
54129SOL    HW272318  12.220   8.157  11.638 -0.0976 -0.2735  0.5143
54130SOL     OW72319   2.024   6.965   0.087  0.0425 -0.2813  0.3979
54130SOL    HW172320   2.008   7.025   0.160 -0.2088 -1.0572  0.9848
54130SOL    HW272321   2.117   6.976   0.067 -0.1488  0.8158  0.0283
54131SOL     OW72322   5.741   9.634   3.195  0.2030 -0.0971 -0.1377
54131SOL    HW172323   5.652   9.661   3.218  0.5887  1.8480 -0.7628
54131SOL    HW272324   5.797   9.701   3.233  1.3250 -0.6708 -0.7464
54132SOL     OW72325   3.072   9.000   5.020  0.0509  0.0331 -0.5496
54132SOL    HW172326   3.146   9.013   5.079 -0.5407  2.6592 -0.2886
54132SOL    HW272327   3.108   8.944   4.950  0.9247 -2.6229  1.8462
54133SOL     OW72328   6.652  13.171   4.069 -0.7787 -0.3336 -0.6890
54133SOL    HW172329   6.623  13.250   4.024  0.7988 -0.0934 -1.3277
54133SOL    HW272330   6.621  13.099   4.014 -1.7274 -0.1661 -0.3973
54134SOL     OW72331  10.294  12.815   5.942 -0.3310 -0.0607  0.6999
54134SOL    HW172332  10.309  12.737   5.888 -1.9934 -0.1035  0.2527
54134SOL    HW272333  10.335  12.794   6.026  0.2128 -0.9645  0.2207
54135SOL     OW72334   7.779   0.942  12.108  0.3601 -0.2467 -0.3885
54135SOL    HW172335   7.780   0.945  12.012  1.0281  0.1961 -0.3712
54135SOL    HW272336   7.807   0.853  12.130  0.4474 -0.2711 -0.6002
54136SOL     OW72337   6.747   0.700   3.136  0.2537  0.0611 -0.2728
54136SOL    HW172338   6.778   0.659   3.217  1.7485  0.0629 -0.8173
54136SOL    HW272339   6.672   0.647   3.109  1.1749 -1.3632 -0.1286
54137SOL     OW72340   4.592   6.224   3.923  0.0248  0.0452 -0.1007
54137SOL    HW172341   4.669   6.236   3.866 -0.4913 -1.5997 -1.2044
54137SOL    HW272342   4.549   6.146   3.889 -1.9947  0.7639  0.6943
54138SOL     OW72343   5.047   7.003   4.325  0.1489  0.0424 -0.4738
54138SOL    HW172344   5.103   7.050   4.387 -0.3673  1.1777 -0.8354
54138SOL    HW272345   5.053   6.911   4.351  0.9653  0.3427  0.4349
54139SOL     OW72346  11.863  10.258  12.397 -0.3982 -0.0771 -0.1255
54139SOL    HW172347  11.798  10.269  12.466 -0.2863 -0.1405 -0.0071
54139SOL    HW272348  11.858  10.339  12.346  1.1214  1.0080  1.3308
54140SOL     OW72349   1.712   3.186   5.100 -0.0769 -0.2773  0.8492
54140SOL    HW172350   1.674   3.249   5.161 -0.2585 -1.4484  1.9750
54140SOL    HW272351   1.706   3.102   5.145  2.9027 -0.6801  0.6481
54141SOL     OW72352   9.452   9.799  12.178  0.1322  0.6251 -0.0350
54141SOL    HW172353   9.407   9.729  12.131 -1.7277  2.0825 -0.5196
54141SOL    HW272354   9.543   9.793  12.149 -0.2519 -0.7447 -1.0530
54142SOL     OW72355  11.994  10.062  12.517  0.2090  0.0407 -0.5187
54142SOL    HW172356  11.935   9.988  12.506 -0.2816  0.2999  0.2536
54142SOL    HW272357  11.959  10.130  12.459 -1.7607  1.0550  1.6920
54143SOL     OW72358   8.470  12.556   3.932 -0.3570  0.0900 -0.1413
54143SOL    HW172359   8.429  12.600   4.007 -1.0925 -0.3817 -0.2662
54143SOL    HW272360   8.445  12.464   3.941  1.7005 -0.4737  0.4845
54144SOL     OW72361   0.287   2.956  10.191 -0.2659  0.4737 -0.1587
54144SOL    HW172362   0.316   2.984  10.104  1.6812  1.6597  0.8031
54144SOL    HW272363   0.290   2.860  10.186 -0.2518  0.5107 -1.4067
54145SOL     OW72364   6.755   6.328  12.734 -0.6800 -0.4456  0.6788
54145SOL    HW172365   6.783   6.260  12.673 -2.5483 -0.4660 -0.2149
54145SOL    HW272366   6.759   6.409  12.683 -0.9654 -0.2697  0.9311
54146SOL     OW72367   2.188  11.567   3.375 -0.1859 -0.0011 -0.0308
54146SOL    HW172368   2.172  11.606   3.460 -0.5568 -0.5119  0.1375
54146SOL    HW272369   2.175  11.638   3.312  0.0508  0.3635  0.3321
54147SOL     OW72370   2.562   3.140   0.791  0.1222  0.3036 -0.7067
54147SOL    HW172371   2.540   3.049   0.815  1.7287 -0.3427 -1.5964
54147SOL    HW272372   2.476   3.183   0.783 -0.6911 -1.2168 -0.6231
54148SOL     OW72373  10.257   5.857  11.374 -0.0056  0.0191 -0.0089
54148SOL    HW172374  10.347   5.838  11.400  0.0608 -1.2949 -1.0391
54148SOL    HW272375  10.254   5.832  11.281 -1.1909  0.9337 -0.2407
54149SOL     OW72376   4.738   0.764   7.271  0.4458  0.1310 -0.1333
54149SOL    HW172377   4.726   0.671   7.289 -0.5090  0.2636 -0.0088
54149SOL    HW272378   4.709   0.808   7.351 -1.8697  0.6335 -1.1539
54150SOL     OW72379   6.036   5.985   7.638  0.1793 -0.1156  0.6278
54150SOL    HW172380   5.964   5.927   7.661 -0.1306  0.7121  1.7940
54150SOL    HW272381   6.072   5.947   7.558 -2.2600  0.0877 -0.6495
54151SOL     OW72382   7.752  10.319   9.186  0.3568 -0.0252 -0.3623
54151SOL    HW172383   7.777  10.335   9.277 -2.2346 -1.2905  0.6872
54151SOL    HW272384   7.829  10.276   9.148  2.7030  3.2630  0.1969
54152SOL     OW72385  13.018   3.981  11.137  0.5481 -0.3692  0.5243
54152SOL    HW172386  12.987   3.895  11.163 -2.2605  0.9122  1.8448
54152SOL    HW272387  13.011   4.034  11.217  0.3523  1.5303 -0.6963
54153SOL     OW72388   3.533   4.017   6.526  0.0892  0.2360 -0.4209
54153SOL    HW172389   3.609   3.977   6.485  1.1062 -0.2610  1.8083
54153SOL    HW272390   3.458   3.982   6.477  1.1754 -0.8454 -1.3831
54154SOL     OW72391   7.595   9.463   2.125  0.3620 -0.0029 -0.3886
54154SOL    HW172392   7.523   9.463   2.063 -0.3274  0.9979  0.3927
54154SOL    HW272393   7.648   9.387   2.099 -0.8138 -0.6048 -1.1311
54155SOL     OW72394   0.344   6.505   0.024 -0.1313 -0.2710  0.4462
54155SOL    HW172395   0.296   6.519  -0.058  0.5050 -0.7539 -0.0293
54155SOL    HW272396   0.410   6.574   0.025  1.7097 -1.8718 -0.9054
54156SOL     OW72397   7.369   0.578   5.217 -0.1210  0.1558 -0.4628
54156SOL    HW172398   7.300   0.616   5.162  1.3802  1.1430 -1.7437
54156SOL    HW272399   7.343   0.601   5.306 -0.8388  1.5842 -1.0005
54157SOL     OW72400   7.515  10.127   1.055 -0.2444 -0.4490 -0.0777
54157SOL    HW172401   7.505  10.221   1.073  2.6353 -0.2717  1.0631
54157SOL    HW272402   7.564  10.093   1.129 -2.0728 -3.1561  0.0481
54158SOL     OW72403   1.439   2.602   3.199  0.0197  0.0943  0.0309
54158SOL    HW172404   1.488   2.593   3.281 -0.7812 -1.6638  0.3796
54158SOL    HW272405   1.354   2.635   3.226  0.2486  0.9624 -0.2910
54159SOL     OW72406   6.928  10.279   3.940  0.3133  0.2233  0.3989
54159SOL    HW172407   6.978  10.246   4.015 -0.1819  0.3348  0.7802
54159SOL    HW272408   6.875  10.204   3.913  0.0375  0.3625  0.5478
54160SOL     OW72409   3.777   9.294   5.103  0.3174  0.2841  0.6705
54160SOL    HW172410   3.854   9.274   5.049 -1.2937 -0.2022 -1.6003
54160SOL    HW272411   3.716   9.223   5.084 -1.2890  1.4877  1.1804
54161SOL     OW72412   2.482   2.139   1.640 -0.1059 -0.0551  0.3258
54161SOL    HW172413   2.391   2.124   1.614 -0.2451 -1.5053  1.5186
54161SOL    HW272414   2.477   2.207   1.708 -0.0779  1.2049 -0.8819
54162SOL     OW72415   4.434   5.283   3.852 -0.2477 -0.9517  0.6826
54162SOL    HW172416   4.403   5.350   3.913 -0.9368 -0.6177 -0.0123
54162SOL    HW272417   4.394   5.307   3.768  2.9473  0.2949 -0.6285
54163SOL     OW72418   6.016   8.167   6.902 -0.3487  0.2670 -0.2024
54163SOL    HW172419   5.987   8.255   6.926 -0.0020  0.8241 -1.7280
54163SOL    HW272420   5.935   8.114   6.906 -1.5434  1.6201 -3.5403
54164SOL     OW72421   6.221   4.271  12.559  0.1721 -0.0631 -0.4201
54164SOL    HW172422   6.197   4.235  12.645  3.2682  1.1947  1.1395
54164SOL    HW272423   6.188   4.207  12.496 -1.4190 -1.5236  1.7449
54165SOL     OW72424   8.344   7.254   4.763 -0.0482  0.2304 -0.2730
54165SOL    HW172425   8.430   7.292   4.746  0.1618  0.0082  0.2728
54165SOL    HW272426   8.297   7.323   4.810 -0.9401  1.1913 -2.4335
54166SOL     OW72427   4.826   2.084   6.233 -0.5734 -0.5592 -0.3126
54166SOL    HW172428   4.773   2.084   6.312 -0.1713 -0.3353 -0.0376
54166SOL    HW272429   4.874   2.001   6.236 -2.0232 -1.4832 -1.3376
54167SOL     OW72430   4.132  13.189   9.086 -0.1822 -0.2439  0.6174
54167SOL    HW172431   4.192  13.189   9.011  0.1521 -1.5205  0.8596
54167SOL    HW272432   4.135  13.279   9.118 -1.1577  0.6086 -1.5172
54168SOL     OW72433  11.742   0.703   5.518 -0.0989 -0.6871  0.1401
54168SOL    HW172434  11.809   0.761   5.556 -0.0742  0.2314 -1.2426
54168SOL    HW272435  11.791   0.647   5.458 -0.3678 -1.0158  0.2258
54169SOL     OW72436  12.879  12.123  11.154  0.0289  0.3461 -1.2560
54169SOL    HW172437  12.881  12.038  11.197 -3.6616  0.8477  0.2547
54169SOL    HW272438  12.910  12.105  11.065  1.9228 -1.9448 -0.2585
54170SOL     OW72439   4.081   9.640  10.050  0.4103 -0.0982 -0.7957
54170SOL    HW172440   3.991   9.671  10.057  0.8318  1.1492 -0.6296
54170SOL    HW272441   4.134   9.720  10.048  1.6008 -0.8081  0.3754
54171SOL     OW72442   5.700   9.252   6.087 -0.2829  0.3347  0.2399
54171SOL    HW172443   5.693   9.292   6.001  1.8888  3.6499  1.3765
54171SOL    HW272444   5.794   9.246   6.103 -0.6136 -0.3567  2.2973
54172SOL     OW72445   0.923  12.213   3.507 -0.6272 -0.1245 -0.3192
54172SOL    HW172446   0.968  12.131   3.530 -0.6556 -0.2659 -0.7436
54172SOL    HW272447   0.830  12.188   3.500 -0.6818  0.0184 -0.1141
54173SOL     OW72448   0.586   8.389   8.294 -0.3504  0.1674 -0.3003
54173SOL    HW172449   0.495   8.399   8.265 -0.5819  0.3413  0.4666
54173SOL    HW272450   0.582   8.324   8.365 -0.1378  1.4866  0.9599
54174SOL     OW72451   7.821  10.339   6.925  0.6891 -0.3957 -0.5567
54174SOL    HW172452   7.882  10.383   6.865 -0.7302  0.6858 -1.2909
54174SOL    HW272453   7.800  10.257   6.881  0.7439 -0.2481 -0.8678
54175SOL     OW72454   2.931   6.704   0.009 -0.7080  0.4810  0.3616
54175SOL    HW172455   2.985   6.780  -0.011 -0.4875  0.5142  1.0498
54175SOL    HW272456   2.898   6.721   0.097 -1.7193  0.3909  0.0090
54176SOL     OW72457   4.307   1.461   8.831  0.0932 -0.2928 -0.2067
54176SOL    HW172458   4.220   1.436   8.800 -0.8509  0.9897  1.2830
54176SOL    HW272459   4.361   1.462   8.752 -1.0096 -1.9401 -1.0428
54177SOL     OW72460  13.094   4.003   6.904  0.0722 -0.1546 -0.2216
54177SOL    HW172461  13.026   4.071   6.899 -1.5870 -1.7528 -0.6414
54177SOL    HW272462  13.162   4.041   6.959 -0.0099  2.4665 -1.7589
54178SOL     OW72463  11.161  11.692   1.933  0.0911  0.4288 -0.3355
54178SOL    HW172464  11.125  11.777   1.956  0.3537  0.6800 -0.8508
54178SOL    HW272465  11.246  11.711   1.893  0.4403 -0.1114  0.1261
54179SOL     OW72466   3.216   1.617   1.806 -0.0819 -0.0214  0.6906
54179SOL    HW172467   3.272   1.621   1.728  0.0516 -1.6176  0.6594
54179SOL    HW272468   3.269   1.569   1.870 -1.1467 -0.9801  0.8800
54180SOL     OW72469   0.879   2.468   8.938  0.5275 -0.2292 -0.0429
54180SOL    HW172470   0.943   2.539   8.945  0.6804 -0.4227  0.6167
54180SOL    HW272471   0.835   2.483   8.854  1.4339 -0.0872 -0.5099
54181SOL     OW72472   5.367   1.001   5.248 -0.0921 -0.0241 -0.3413
54181SOL    HW172473   5.284   0.959   5.225 -1.0807  1.5824  0.1513
54181SOL    HW272474   5.374   1.074   5.187  0.1098  0.8420  0.6897
54182SOL     OW72475   5.161   7.817   4.589 -0.1423  0.4471 -0.1715
54182SOL    HW172476   5.203   7.855   4.511  0.0828  0.3418 -0.1045
54182SOL    HW272477   5.091   7.878   4.611  0.5587  1.1314  0.2581
54183SOL     OW72478  11.903   2.383   0.449 -0.6934 -0.2623  0.0511
54183SOL    HW172479  11.961   2.317   0.484 -0.5911 -0.8360 -1.1405
54183SOL    HW272480  11.886   2.442   0.522  1.4024 -0.0479  0.4277
54184SOL     OW72481   5.711   0.284  11.395 -0.6651 -0.4264 -0.2126
54184SOL    HW172482   5.763   0.339  11.337  0.2934  0.0857  1.0872
54184SOL    HW272483   5.771   0.216  11.424 -1.1153 -0.6413  0.2255
54185SOL     OW72484   2.565   1.612  10.523  0.3665  0.0158  0.5322
54185SOL    HW172485   2.512   1.664  10.583  0.7024  0.1035  0.7536
54185SOL    HW272486   2.589   1.534  10.573  2.4060  1.0362  1.2655
54186SOL     OW72487  11.830   7.195   5.009 -0.1317  0.6380 -0.7820
54186SOL    HW172488  11.751   7.229   5.052  1.0175  0.7508  1.3779
54186SOL    HW272489  11.894   7.188   5.079  0.9524 -2.1382 -1.8973
54187SOL     OW72490  11.809   5.444   7.826 -0.3272  0.0999  0.6935
54187SOL    HW172491  11.717   5.443   7.799  0.3686 -0.5434 -1.8910
54187SOL    HW272492  11.830   5.537   7.836 -0.4397  0.4859 -2.0046
54188SOL     OW72493   4.535   1.844   2.372 -0.2204 -0.3581 -0.3777
54188SOL    HW172494   4.494   1.871   2.290  0.2184 -0.0262 -0.4936
54188SOL    HW272495   4.629   1.843   2.353 -0.0454  0.5627  0.3514
54189SOL     OW72496   9.870   0.209  11.744 -0.1546  0.3861  0.3290
54189SOL    HW172497   9.876   0.305  11.741 -0.5097  0.4243  0.7669
54189SOL    HW272498   9.937   0.182  11.807 -0.8712  0.4351  1.1221
54190SOL     OW72499   7.866  12.888   3.598  0.1713  0.1658 -0.1033
54190SOL    HW172500   7.957  12.859   3.586  0.4456  1.4360 -1.3911
54190SOL    HW272501   7.838  12.917   3.511  0.2559  4.4429  1.0532
54191SOL     OW72502   9.178   6.540  12.351  0.2572 -0.3114 -0.1222
54191SOL    HW172503   9.180   6.615  12.292  1.1092 -0.8607 -0.8029
54191SOL    HW272504   9.167   6.579  12.438 -1.5318  0.4773 -0.6423
54192SOL     OW72505   1.617  13.104   9.277  0.1011  0.4672 -0.0013
54192SOL    HW172506   1.674  13.033   9.306  0.5704 -0.6402 -3.2337
54192SOL    HW272507   1.668  13.184   9.294  0.5039 -0.1001  1.6177
54193SOL     OW72508   9.870   0.034  12.159  0.6833 -0.4485  0.1196
54193SOL    HW172509   9.930   0.109  12.166 -0.2335  0.6208 -2.4557
54193SOL    HW272510   9.870   0.011  12.067  0.4778 -3.3247  0.7462
54194SOL     OW72511   8.272  10.810   8.495 -0.1552  0.0182 -0.1096
54194SOL    HW172512   8.247  10.724   8.530  0.7353 -0.7088 -1.1669
54194SOL    HW272513   8.367  10.814   8.507 -0.2821  1.2581  0.7185
54195SOL     OW72514   6.569   8.959  10.432 -0.5146  0.1017  0.3040
54195SOL    HW172515   6.559   8.959  10.527  0.0716 -1.9121  0.4210
54195SOL    HW272516   6.548   8.869  10.406  2.7385 -0.4246 -1.0343
54196SOL     OW72517  12.804   0.710   9.555  0.1590 -0.8105  0.2390
54196SOL    HW172518  12.716   0.718   9.518 -0.0585 -0.7127  0.7749
54196SOL    HW272519  12.809   0.779   9.620  0.9646 -0.2245 -0.4265
54197SOL     OW72520  11.468  12.947   0.362 -0.2999  0.5985 -0.0622
54197SOL    HW172521  11.438  12.896   0.437 -1.7733  1.8328  0.2227
54197SOL    HW272522  11.560  12.964   0.381  0.0530 -1.3215  0.1645
54198SOL     OW72523  10.788   8.049   3.806 -0.2976 -0.3978 -0.2390
54198SOL    HW172524  10.882   8.038   3.821 -0.4679 -2.0810 -0.2328
54198SOL    HW272525  10.783   8.118   3.739  0.8498  0.6495  0.6875
54199SOL     OW72526   6.918   3.183   1.159 -0.0255  0.5453 -0.2724
54199SOL    HW172527   6.974   3.137   1.097 -0.7025 -0.0468 -0.4668
54199SOL    HW272528   6.897   3.266   1.117 -0.7266  0.0232 -0.9822
54200SOL     OW72529   1.024   6.552   0.085 -0.2793 -0.1771 -0.3193
54200SOL    HW172530   1.047   6.594   0.002  0.2606 -0.6912 -0.4306
54200SOL    HW272531   1.040   6.459   0.071 -1.0253 -0.3813  0.0795
54201SOL     OW72532   9.887  12.952  12.990 -0.1268  0.1994  1.1203
54201SOL    HW172533   9.834  12.986  13.062 -0.8566 -1.7861  1.5756
54201SOL    HW272534   9.826  12.897  12.939  0.8532  0.0116  0.1087
54202SOL     OW72535  13.314   3.911   3.771  0.3483 -0.0658  0.0809
54202SOL    HW172536  13.253   3.841   3.793 -0.3099  0.5943  0.3745
54202SOL    HW272537  13.316   3.913   3.676  1.1231 -1.1300  0.0626
54203SOL     OW72538   1.843   9.230  10.849 -0.5927  0.1960  0.4557
54203SOL    HW172539   1.839   9.156  10.788  1.7215  1.1144 -0.9322
54203SOL    HW272540   1.754   9.266  10.848 -1.3416 -1.5465 -0.1005
54204SOL     OW72541  10.113   7.892   1.675 -0.9845  0.4249  0.3411
54204SOL    HW172542  10.034   7.838   1.685  0.0829 -1.5485 -1.3028
54204SOL    HW272543  10.154   7.890   1.762 -2.2042  0.6525  0.9440
54205SOL     OW72544  11.225   9.112   4.293  0.3011  0.0713  0.0408
54205SOL    HW172545  11.274   9.053   4.236 -0.1039  0.5001 -0.7757
54205SOL    HW272546  11.291   9.151   4.350  1.0452  1.1013 -1.4493
54206SOL     OW72547   7.971   1.562   4.236 -0.0282 -0.3851 -0.1908
54206SOL    HW172548   7.880   1.556   4.209 -0.1354 -1.4711  0.3617
54206SOL    HW272549   8.019   1.511   4.170  0.0530 -0.6387  0.0616
54207SOL     OW72550   5.773   3.591   3.043  0.0049  0.3411  0.1564
54207SOL    HW172551   5.724   3.535   2.982 -0.4416 -0.0108  0.8318
54207SOL    HW272552   5.840   3.632   2.988  0.2945 -0.7894 -0.3785
54208SOL     OW72553  10.585   3.028   1.239  0.5174 -0.0529 -0.1865
54208SOL    HW172554  10.619   3.013   1.151  3.0948 -1.0849  0.8779
54208SOL    HW272555  10.518   2.961   1.251  1.2012 -0.8694 -0.8543
54209SOL     OW72556   1.514   1.434  10.267  0.1294 -0.8042 -0.0827
54209SOL    HW172557   1.506   1.521  10.304  0.5950 -0.0370 -1.7005
54209SOL    HW272558   1.552   1.381  10.338  1.7842  0.7954  0.2903
54210SOL     OW72559  11.437  10.411  11.836  0.2981 -0.1713 -0.0391
54210SOL    HW172560  11.379  10.341  11.806  1.9324 -1.2409 -0.8304
54210SOL    HW272561  11.416  10.422  11.929  0.3758 -2.1253  0.2575
54211SOL     OW72562   1.189   6.120  11.029  0.4246  0.1470  0.0484
54211SOL    HW172563   1.234   6.087  11.108 -1.3989 -1.7787  0.3523
54211SOL    HW272564   1.135   6.047  11.000 -0.6579  1.5840 -1.7204
54212SOL     OW72565   5.655   1.208   9.177 -0.8465 -0.0246  0.1339
54212SOL    HW172566   5.622   1.192   9.266 -0.9644 -0.4468  0.0136
54212SOL    HW272567   5.747   1.181   9.180 -1.4713 -2.4533 -0.5286
54213SOL     OW72568   0.123   9.147   0.523  0.1460  0.4350  0.0002
54213SOL    HW172569   0.031   9.173   0.513 -0.1550  0.2401  1.8923
54213SOL    HW272570   0.159   9.210   0.585  0.7896 -0.5678  0.6790
54214SOL     OW72571   0.282  12.331  11.430 -0.0878  0.2383 -0.2366
54214SOL    HW172572   0.196  12.372  11.438  0.3664  1.0732  0.6102
54214SOL    HW272573   0.308  12.312  11.520  0.3521 -0.5812 -0.5221
54215SOL     OW72574  10.169   8.889   7.976  0.0987  0.4955  0.3124
54215SOL    HW172575  10.246   8.841   8.007  0.3585  1.1308  0.6623
54215SOL    HW272576  10.114   8.822   7.935  0.4128 -0.1192  0.8723
54216SOL     OW72577   4.247  10.571   3.241  0.0650 -0.1508  0.5328
54216SOL    HW172578   4.337  10.570   3.207  0.0636 -0.5323  0.5387
54216SOL    HW272579   4.193  10.592   3.165  0.2717  1.5234  0.8089
54217SOL     OW72580   3.253   8.242   4.897  0.1875 -0.6475  0.1259
54217SOL    HW172581   3.317   8.304   4.934  0.7113 -0.7296 -0.6146
54217SOL    HW272582   3.300   8.201   4.824 -0.6678 -0.8292 -0.3256
54218SOL     OW72583   0.674   7.247   4.648 -0.0685 -0.8161 -0.1042
54218SOL    HW172584   0.611   7.184   4.684 -0.3314 -0.5166 -0.0362
54218SOL    HW272585   0.733   7.194   4.595 -1.8126 -0.8013 -2.1622
54219SOL     OW72586   6.199   8.520   1.371  0.0258  0.3085 -0.2121
54219SOL    HW172587   6.269   8.581   1.349 -1.0408  0.7074 -2.9381
54219SOL    HW272588   6.167   8.550   1.456  0.1011  3.0724 -1.0665
54220SOL     OW72589   5.361  10.519   9.911  0.3783 -0.1010 -0.4408
54220SOL    HW172590   5.359  10.527  10.006  1.2158 -1.5512 -0.2717
54220SOL    HW272591   5.453  10.531   9.888  0.4558 -1.4207 -0.8831
54221SOL     OW72592   7.020   3.076  10.134 -0.0550 -0.2944 -0.2129
54221SOL    HW172593   6.954   3.052  10.069  0.3485 -0.0579 -0.7193
54221SOL    HW272594   6.970   3.093  10.213 -0.5414 -0.7321 -0.4199
54222SOL     OW72595   2.592  12.074   1.558  0.3782  0.2731  0.4783
54222SOL    HW172596   2.512  12.125   1.570  0.0715 -0.0332 -0.2165
54222SOL    HW272597   2.663  12.136   1.578  0.0072  0.9394 -0.1852
54223SOL     OW72598   4.185   0.598   6.386  0.2362  0.0769 -0.0364
54223SOL    HW172599   4.101   0.595   6.340  0.0992  2.0978 -0.0052
54223SOL    HW272600   4.178   0.529   6.452 -0.8665 -0.6663 -0.8813
54224SOL     OW72601   3.808  12.211  11.146 -0.2150 -0.2182 -0.2717
54224SOL    HW172602   3.742  12.270  11.181  1.6598  0.5126  2.2184
54224SOL    HW272603   3.765  12.125  11.145 -0.8846  0.0279  2.4136
54225SOL     OW72604   6.895   6.048   9.152 -0.5794 -0.1684 -0.2394
54225SOL    HW172605   6.844   5.981   9.198 -1.1046  1.6235  1.9424
54225SOL    HW272606   6.836   6.080   9.084 -0.6289 -1.2989 -0.7548
54226SOL     OW72607   8.724  10.903   0.083  0.2643 -0.0930 -0.5028
54226SOL    HW172608   8.675  10.895   0.165  0.3047  1.6312 -0.2676
54226SOL    HW272609   8.775  10.822   0.078 -0.4400 -0.6472  0.6910
54227SOL     OW72610   9.645  10.370  11.702  0.1017 -0.3253 -0.0433
54227SOL    HW172611   9.622  10.277  11.705  0.5958 -0.4356  0.6525
54227SOL    HW272612   9.725  10.373  11.650  0.5210 -0.3978  0.5785
54228SOL     OW72613   4.853   6.125   8.773 -0.3647 -0.2614 -0.7593
54228SOL    HW172614   4.772   6.084   8.803  0.2917 -0.6807  0.5287
54228SOL    HW272615   4.890   6.164   8.852 -0.7444  2.5226 -1.8427
54229SOL     OW72616  10.388   5.198   0.590  0.1340 -0.6152  0.0019
54229SOL    HW172617  10.450   5.163   0.526  1.2309  2.9456 -1.0948
54229SOL    HW272618  10.309   5.215   0.540 -0.2953 -1.2226  0.4602
54230SOL     OW72619   2.083   3.488   9.513  0.7547 -0.4723  0.3489
54230SOL    HW172620   2.065   3.541   9.435 -1.2746  0.5330  1.4274
54230SOL    HW272621   2.060   3.399   9.486 -0.5641 -0.0384 -0.0296
54231SOL     OW72622   0.646  10.113   2.456  0.2003 -0.2035 -0.1401
54231SOL    HW172623   0.562  10.096   2.498  0.9309 -2.3326  0.5893
54231SOL    HW272624   0.624  10.160   2.375 -1.7725 -1.5060 -0.4119
54232SOL     OW72625  11.299   2.771   2.648  0.8543  0.4375  0.3625
54232SOL    HW172626  11.347   2.707   2.701  0.1075  0.2146  0.7873
54232SOL    HW272627  11.252   2.718   2.584 -0.1893  0.5062  1.0552
54233SOL     OW72628   6.913   0.777   7.944  0.0619 -0.4673  0.5468
54233SOL    HW172629   6.953   0.691   7.935 -0.6115 -0.6454 -0.9872
54233SOL    HW272630   6.971   0.824   8.005  1.8603 -1.1590 -0.5369
54234SOL     OW72631   3.767  10.737   7.492 -0.1748  0.4853  0.4828
54234SOL    HW172632   3.797  10.743   7.402  0.0591 -0.4994  0.4875
54234SOL    HW272633   3.677  10.771   7.489 -0.3567 -0.0346 -0.2221
54235SOL     OW72634   7.722   0.598   3.841  0.4740 -0.0176 -0.6722
54235SOL    HW172635   7.699   0.687   3.867  1.7283 -0.2694  1.5656
54235SOL    HW272636   7.758   0.558   3.921  0.0510 -2.5070 -1.6290
54236SOL     OW72637  12.683   9.485   3.847 -0.4468 -0.5916 -0.1089
54236SOL    HW172638  12.703   9.524   3.932 -0.4471  0.0090 -0.3764
54236SOL    HW272639  12.735   9.405   3.845 -0.5135 -0.6545  0.4896
54237SOL     OW72640   5.479   9.235   9.242 -0.2265 -0.4834  0.4517
54237SOL    HW172641   5.535   9.164   9.211 -0.1464  0.2064 -1.0745
54237SOL    HW272642   5.540   9.306   9.263 -0.3427 -0.6772  1.5189
54238SOL     OW72643   8.006  11.605   2.982 -0.4930 -0.3701 -0.2333
54238SOL    HW172644   7.996  11.514   2.954 -0.9555 -0.7479  1.0895
54238SOL    HW272645   7.919  11.644   2.970 -0.2100  0.0032 -1.1262
54239SOL     OW72646   5.416   2.237   6.957  0.1341 -0.1995  0.2315
54239SOL    HW172647   5.408   2.330   6.978  0.8854 -0.1720  0.4010
54239SOL    HW272648   5.351   2.194   7.012 -2.4412  0.5008 -1.9993
54240SOL     OW72649  12.819   2.478   3.507  0.1827 -0.4054  0.4548
54240SOL    HW172650  12.838   2.459   3.598 -0.1944 -0.5365  0.5099
54240SOL    HW272651  12.892   2.532   3.477 -0.0570  0.2525  1.0395
54241SOL     OW72652   2.301   0.710  12.014 -0.2354  0.0400 -0.0872
54241SOL    HW172653   2.339   0.640  12.067  2.1819 -1.1074 -3.0157
54241SOL    HW272654   2.212   0.679  11.994 -0.4850 -0.4178  1.5840
54242SOL     OW72655   7.469  12.874  11.186  0.1110 -0.2286 -0.4491
54242SOL    HW172656   7.543  12.871  11.247  0.7083 -1.1164 -1.1828
54242SOL    HW272657   7.450  12.967  11.176  2.1446  0.1502 -1.4045
54243SOL     OW72658   1.000   6.532   3.712  0.6526  0.5671  0.0234
54243SOL    HW172659   1.005   6.450   3.663 -0.8903  0.9127 -0.7618
54243SOL    HW272660   1.008   6.506   3.804 -1.9303 -0.7464 -0.0478
54244SOL     OW72661   6.285  10.713   3.560  0.2426 -0.5241  0.0358
54244SOL    HW172662   6.310  10.622   3.572  1.9264  0.0555  1.4914
54244SOL    HW272663   6.338  10.761   3.625 -3.2990  1.1053  2.0235
54245SOL     OW72664   8.687   6.553  10.757 -0.1037 -0.4384 -0.1281
54245SOL    HW172665   8.710   6.501  10.680 -1.8755  2.2212 -2.6662
54245SOL    HW272666   8.612   6.508  10.795 -1.1167 -0.2309 -1.8030
54246SOL     OW72667   6.103  12.032  10.849 -0.4942  0.5224  0.3502
54246SOL    HW172668   6.072  11.953  10.804 -0.2589  0.1823  0.7708
54246SOL    HW272669   6.142  12.085  10.780  2.4370 -1.2335  0.4846
54247SOL     OW72670  12.074   5.326  10.629 -0.8636 -0.3079  0.5465
54247SOL    HW172671  11.988   5.284  10.632 -0.0570 -1.9915  1.0838
54247SOL    HW272672  12.078   5.378  10.709 -0.8553 -1.3182  1.2142
54248SOL     OW72673   8.805   8.899  12.175 -0.2476  0.0461 -0.0336
54248SOL    HW172674   8.740   8.963  12.205 -1.1285 -1.7492  2.1590
54248SOL    HW272675   8.890   8.940  12.196 -0.8053 -0.3534  3.5498
54249SOL     OW72676   0.868  11.494   3.581  0.3308  0.1232 -0.3552
54249SOL    HW172677   0.819  11.576   3.565  0.0516  0.4286  1.7743
54249SOL    HW272678   0.801  11.433   3.613  0.6096 -0.8701 -1.5825
54250SOL     OW72679  10.235  10.852  13.261 -0.9095 -0.1056  0.2029
54250SOL    HW172680  10.240  10.759  13.284  0.8161  0.0483  0.6270
54250SOL    HW272681  10.148  10.880  13.292 -1.6078 -1.6452 -0.2831
54251SOL     OW72682  11.340  10.795  11.153  0.3164  0.1727 -0.4476
54251SOL    HW172683  11.365  10.726  11.093  0.9305  0.8648 -1.0124
54251SOL    HW272684  11.410  10.796  11.219 -0.1279 -0.2961  0.0363
54252SOL     OW72685   0.926   4.214   7.003  0.0811  0.1625  0.3421
54252SOL    HW172686   0.974   4.202   6.921 -1.7975 -1.0750 -0.6524
54252SOL    HW272687   0.963   4.148   7.062  0.5155  0.1452  0.0579
54253SOL     OW72688   4.734   2.487  11.034 -0.2415  0.2501  0.0920
54253SOL    HW172689   4.724   2.545  10.959 -1.9473 -1.3639 -1.0141
54253SOL    HW272690   4.750   2.546  11.108 -0.9189  2.0474 -1.1213
54254SOL     OW72691  11.633   7.108   2.094  0.4494 -0.2299  0.0054
54254SOL    HW172692  11.623   7.169   2.167  2.1158  0.0899  0.0043
54254SOL    HW272693  11.547   7.107   2.052  0.2787  1.9171  0.1774
54255SOL     OW72694   2.746   2.790   3.511 -0.2271  0.1245 -0.0119
54255SOL    HW172695   2.690   2.867   3.518 -2.0033 -1.0175 -0.7916
54255SOL    HW272696   2.804   2.795   3.587 -1.1619  1.5310  0.6560
54256SOL     OW72697  11.483   8.579   7.946  0.3175  0.0651  0.3116
54256SOL    HW172698  11.405   8.634   7.940  1.1606  1.2544  0.0186
54256SOL    HW272699  11.497   8.546   7.857 -0.4032 -0.9752  0.5586
54257SOL     OW72700   8.890   5.450   3.356 -0.3724  0.1492 -0.3695
54257SOL    HW172701   8.797   5.475   3.353 -0.5666 -0.0509  2.2205
54257SOL    HW272702   8.922   5.486   3.438  1.1985 -1.9401  0.0033
54258SOL     OW72703   6.275   6.199   4.456 -0.0152  0.3724 -0.3511
54258SOL    HW172704   6.329   6.142   4.511 -1.2817 -0.2033  0.3326
54258SOL    HW272705   6.317   6.197   4.370 -0.2945 -2.0134 -0.4975
54259SOL     OW72706   8.956   7.380   0.010  0.2125 -0.1761 -0.1253
54259SOL    HW172707   8.992   7.460  -0.027  0.3307  0.1314  0.6443
54259SOL    HW272708   8.985   7.311  -0.050  1.6071  0.1319  0.1535
54260SOL     OW72709   2.899  10.936  13.284 -0.2710 -0.0875  0.0025
54260SOL    HW172710   2.891  10.980  13.369  1.2480 -1.3887  0.8571
54260SOL    HW272711   2.991  10.911  13.278 -0.3256  0.0283 -2.0780
54261SOL     OW72712   6.937  10.053   4.881 -0.0147  0.0154 -0.2625
54261SOL    HW172713   7.004  10.027   4.818 -1.7907  0.0325 -2.2672
54261SOL    HW272714   6.939  10.148   4.881 -1.0703  0.0713 -1.5873
54262SOL     OW72715   3.588   7.022   3.426  0.0903 -0.2601 -0.3625
54262SOL    HW172716   3.643   6.996   3.352  0.3194  0.9698 -0.6380
54262SOL    HW272717   3.535   7.094   3.392 -0.3375 -0.1853  0.4572
54263SOL     OW72718   4.338   9.202  11.263  0.0683 -0.1389 -0.2420
54263SOL    HW172719   4.365   9.118  11.300  0.1440  0.0967  0.2481
54263SOL    HW272720   4.273   9.236  11.324 -1.2684 -0.6374 -1.3461
54264SOL     OW72721   6.004   1.323   8.329  0.1268 -0.3033  0.7694
54264SOL    HW172722   6.070   1.280   8.382 -0.1938  1.1336  2.4551
54264SOL    HW272723   6.036   1.317   8.239  0.7283 -2.7630  1.0898
54265SOL     OW72724   6.192  11.828   0.058  0.4669 -0.1878  0.6263
54265SOL    HW172725   6.176  11.798   0.147  1.4224 -0.6286  0.6633
54265SOL    HW272726   6.108  11.817   0.013  0.0199 -0.1042  1.4262
54266SOL     OW72727   6.408  10.330   9.975 -0.5215  0.3328  0.4612
54266SOL    HW172728   6.485  10.331  10.032 -0.9902  1.0011  1.0965
54266SOL    HW272729   6.368  10.416   9.987 -1.2297  0.0880 -0.0568
54267SOL     OW72730   4.499   5.935   6.621 -0.2705 -0.2699 -0.2102
54267SOL    HW172731   4.541   5.909   6.704  0.6512  0.9438 -0.2843
54267SOL    HW272732   4.571   5.955   6.562 -0.8440  3.1141  0.0370
54268SOL     OW72733   0.134   8.475   5.295 -0.1186 -0.2050 -0.0896
54268SOL    HW172734   0.140   8.459   5.389 -0.6136  3.1400  0.6365
54268SOL    HW272735   0.225   8.478   5.265  0.1209  0.6856  0.6979
54269SOL     OW72736   2.095   5.230   8.461 -0.1920  0.4862  0.1856
54269SOL    HW172737   2.090   5.311   8.410 -1.1290  0.8225  0.7952
54269SOL    HW272738   2.042   5.247   8.539  0.3872 -0.3780  0.7861
54270SOL     OW72739   0.638   7.358   7.094  0.3640 -0.3028 -0.5339
54270SOL    HW172740   0.688   7.304   7.032 -0.4321 -1.4699 -0.1999
54270SOL    HW272741   0.555   7.312   7.104  0.4053 -0.0569  1.2827
54271SOL     OW72742   4.508  11.953  10.251 -0.4361 -0.4147  0.2141
54271SOL    HW172743   4.556  12.026  10.290 -3.5086  0.2345  3.2797
54271SOL    HW272744   4.522  11.962  10.156  0.5338  3.2403  0.5766
54272SOL     OW72745  13.287  11.983   4.283  0.2384  0.8830 -0.0779
54272SOL    HW172746  13.259  12.065   4.242 -1.0468  1.7497  2.3240
54272SOL    HW272747  13.212  11.925   4.275  0.4064  0.6477  0.0258
54273SOL     OW72748   6.721   4.203  12.976  0.0990 -0.1285 -0.1028
54273SOL    HW172749   6.775   4.244  12.908 -0.3515 -1.1065 -1.0638
54273SOL    HW272750   6.675   4.276  13.016  3.0189  0.9554  1.6291
54274SOL     OW72751  11.699   0.713   6.449 -0.3577 -0.3577  0.9572
54274SOL    HW172752  11.764   0.645   6.468 -0.6463 -0.7275  0.6337
54274SOL    HW272753  11.658   0.685   6.367  0.0879  0.6279  0.3818
54275SOL     OW72754   8.410   6.904   5.432 -0.3304  0.1689  0.3847
54275SOL    HW172755   8.387   6.868   5.518 -2.0237 -1.7176 -0.7806
54275SOL    HW272756   8.331   6.949   5.403 -0.2510 -0.4147 -0.7712
54276SOL     OW72757   0.071   6.392   0.373 -0.3618 -0.0179 -0.6972
54276SOL    HW172758   0.132   6.360   0.440 -0.6081  0.3318 -0.3003
54276SOL    HW272759   0.117   6.462   0.329 -0.2349 -0.1848 -0.8311
54277SOL     OW72760   9.947  13.103   8.282  0.2548 -0.5893  0.2003
54277SOL    HW172761   9.981  13.017   8.310  1.0673  0.2122  1.8550
54277SOL    HW272762  10.011  13.134   8.218 -0.2248 -1.3522 -0.6639
54278SOL     OW72763   3.442  10.629  12.741  0.6466  0.6300 -0.0858
54278SOL    HW172764   3.405  10.601  12.825 -0.4670 -2.4699 -1.4710
54278SOL    HW272765   3.404  10.716  12.727  0.0971  0.8207  2.1404
54279SOL     OW72766   7.097   6.588   2.582 -0.1321 -0.1653 -0.0084
54279SOL    HW172767   7.040   6.646   2.634  0.3637  0.8136 -0.5204
54279SOL    HW272768   7.170   6.644   2.556 -0.1672 -0.7397 -1.4194
54280SOL     OW72769  10.995  10.885   0.887  0.1126  0.1266 -0.5265
54280SOL    HW172770  11.050  10.885   0.809 -0.6095 -0.3688 -1.0445
54280SOL    HW272771  11.034  10.952   0.943  1.8590 -0.8902 -0.4350
54281SOL     OW72772   1.734   2.470   6.486 -0.8472  0.3866  0.1396
54281SOL    HW172773   1.671   2.523   6.535  0.0696  0.5054  1.2301
54281SOL    HW272774   1.804   2.453   6.549  0.3630  0.5273 -1.1430
54282SOL     OW72775  11.044   9.731   4.604  0.1988 -0.0891 -0.2417
54282SOL    HW172776  11.012   9.802   4.548  0.2386  0.7978  0.8326
54282SOL    HW272777  11.048   9.769   4.692  0.9312 -1.2046  0.2336
54283SOL     OW72778   0.630   8.481   4.267  0.1108 -0.3503  0.2201
54283SOL    HW172779   0.591   8.509   4.184  1.4007 -0.5189 -0.4616
54283SOL    HW272780   0.679   8.402   4.246  0.2614 -0.5370  1.1991
54284SOL     OW72781   6.459  11.927   4.761 -0.6228 -0.2008 -0.2333
54284SOL    HW172782   6.405  11.951   4.686  0.5238  0.1001 -0.9905
54284SOL    HW272783   6.541  11.975   4.747  0.4917 -1.9887 -0.0439
54285SOL     OW72784   7.829   7.534   5.976 -0.2958 -0.2792 -0.4150
54285SOL    HW172785   7.789   7.555   5.892 -1.8913  1.0953  0.6207
54285SOL    HW272786   7.897   7.470   5.955 -1.4352 -0.8810 -2.5832
54286SOL     OW72787   4.408   7.632   8.230  0.2414 -0.3212 -0.4084
54286SOL    HW172788   4.476   7.634   8.297  0.3405 -0.1065 -0.5160
54286SOL    HW272789   4.447   7.676   8.155 -0.4195  0.8569 -0.0921
54287SOL     OW72790   6.894   2.687   7.163  0.3491 -0.5704 -0.3719
54287SOL    HW172791   6.816   2.682   7.218  1.5627 -0.1613  1.5069
54287SOL    HW272792   6.925   2.777   7.174  0.7578 -0.5485 -1.5804
54288SOL     OW72793   5.724   5.306   4.654 -0.6748  0.3361  0.2887
54288SOL    HW172794   5.683   5.383   4.695  1.1956 -0.0758  3.2095
54288SOL    HW272795   5.659   5.237   4.663 -0.0280 -0.0169  3.7944
54289SOL     OW72796   2.329   0.023   2.217 -0.0301  0.2822  0.2894
54289SOL    HW172797   2.235   0.016   2.232 -0.0008  0.4994  0.5927
54289SOL    HW272798   2.368  -0.046   2.270 -0.0525 -0.1300 -0.2283
54290SOL     OW72799  13.283   4.568   4.058  0.2717 -0.5542 -0.0729
54290SOL    HW172800  13.301   4.651   4.014 -0.6006 -0.0108  0.5522
54290SOL    HW272801  13.245   4.513   3.990  2.6053 -1.1502 -0.9851
54291SOL     OW72802   4.888   8.602   0.552  0.2958  0.2584 -0.3170
54291SOL    HW172803   4.872   8.693   0.526 -0.8354  0.0731 -0.3061
54291SOL    HW272804   4.970   8.606   0.602  0.2244  1.2841 -0.2543
54292SOL     OW72805   7.751   5.686  10.761  0.4177 -0.5541 -0.4082
54292SOL    HW172806   7.662   5.713  10.740  0.6565  0.0590 -0.6697
54292SOL    HW272807   7.742   5.596  10.793 -0.5777  0.2068  1.6668
54293SOL     OW72808  12.023   1.109   0.265 -0.2561 -0.1417  0.6857
54293SOL    HW172809  12.110   1.131   0.232 -0.7725  1.9122  0.5299
54293SOL    HW272810  12.010   1.168   0.339 -0.9683 -1.4146  1.6014
54294SOL     OW72811  13.126   9.339  11.340 -0.4141 -0.4655  0.7940
54294SOL    HW172812  13.202   9.326  11.397  1.0730  1.7077 -0.5234
54294SOL    HW272813  13.123   9.259  11.286  0.3302 -0.9937  1.5118
54295SOL     OW72814  12.951   7.810  10.252 -0.5423  0.2597  0.2923
54295SOL    HW172815  12.981   7.729  10.210  0.4643  0.3820  0.7606
54295SOL    HW272816  12.978   7.879  10.192  0.5254  0.4035  0.9344
54296SOL     OW72817   5.297   5.135   9.833 -0.1641 -0.3120 -0.3935
54296SOL    HW172818   5.240   5.058   9.839 -0.2705 -0.1962  0.1423
54296SOL    HW272819   5.237   5.209   9.840 -0.2079 -0.1499 -2.1296
54297SOL     OW72820   8.495   0.778   1.428 -0.1929  0.4380 -0.1641
54297SOL    HW172821   8.488   0.698   1.376 -0.8298  0.7635 -0.5797
54297SOL    HW272822   8.497   0.849   1.364 -1.8400  0.9034  0.2661
54298SOL     OW72823   6.439   3.073   4.439  0.2036  0.1280  0.6819
54298SOL    HW172824   6.514   3.126   4.466  0.4042  0.4079 -0.3781
54298SOL    HW272825   6.475   2.986   4.424  0.7323  0.6541 -1.5582
54299SOL     OW72826   2.452   0.087   4.579  0.2897 -0.2593  0.6168
54299SOL    HW172827   2.362   0.115   4.567 -0.2404 -2.5264 -1.2252
54299SOL    HW272828   2.499   0.167   4.603 -1.7892  1.3961 -0.5592
54300SOL     OW72829   4.933   3.567  10.210 -0.3503 -0.6412 -0.1275
54300SOL    HW172830   4.889   3.652  10.205  1.4349  0.4351  1.2226
54300SOL    HW272831   4.937   3.537  10.119 -1.1498  0.6362 -0.6182
54301SOL     OW72832   3.800   2.741   3.058  0.4484  0.0209  0.2054
54301SOL    HW172833   3.726   2.774   3.008  0.2604 -1.3658 -0.4802
54301SOL    HW272834   3.867   2.808   3.050  0.2633  0.0374 -1.5488
54302SOL     OW72835  10.228  12.460   5.224 -0.7093  0.7178 -0.4245
54302SOL    HW172836  10.245  12.495   5.312 -1.3776 -1.2104  0.5167
54302SOL    HW272837  10.310  12.418   5.199 -0.6038  1.0401 -0.6318
54303SOL     OW72838   7.844   6.493  11.232 -0.3441  0.1366 -0.3309
54303SOL    HW172839   7.862   6.434  11.305  0.4975  0.6327 -0.1229
54303SOL    HW272840   7.930   6.528  11.208 -0.7557  0.8347 -0.8230
54304SOL     OW72841   2.252   1.665  12.418  0.4258  0.2500 -0.1916
54304SOL    HW172842   2.245   1.743  12.363  0.1363  0.2512 -0.1551
54304SOL    HW272843   2.289   1.598  12.361 -0.4011  0.0898 -0.5597
54305SOL     OW72844   0.410  10.253   9.987  0.4152  0.6127 -0.5693
54305SOL    HW172845   0.435  10.175  10.036  0.6520 -0.3203 -2.1023
54305SOL    HW272846   0.457  10.324  10.029 -2.4124  0.6039  3.0684
54306SOL     OW72847   6.314   8.508   0.724 -0.4201  0.1910 -0.1306
54306SOL    HW172848   6.291   8.548   0.640  0.1128  0.8115  0.0091
54306SOL    HW272849   6.407   8.485   0.715 -0.2479  0.6381  0.4209
54307SOL     OW72850   5.235   2.592   1.765 -0.2232  0.2761  0.2658
54307SOL    HW172851   5.169   2.600   1.834  0.9897 -0.1372  1.5336
54307SOL    HW272852   5.315   2.625   1.805  0.8312 -1.2810 -0.4567
54308SOL     OW72853   3.638   1.529   7.719  0.0421 -0.1752 -0.5642
54308SOL    HW172854   3.725   1.492   7.708  0.3553  0.3302  0.1589
54308SOL    HW272855   3.652   1.622   7.731 -0.3246 -0.4221  2.5242
54309SOL     OW72856  10.843  10.116   2.153  0.4291  0.2236  0.7449
54309SOL    HW172857  10.866  10.195   2.105  1.5866 -1.4043 -1.5630
54309SOL    HW272858  10.913  10.107   2.218  2.2164 -0.6007 -1.1838
54310SOL     OW72859   8.694   6.551   0.750 -0.1023 -0.4643 -0.1204
54310SOL    HW172860   8.682   6.499   0.671  0.1432 -2.1902  0.9335
54310SOL    HW272861   8.780   6.525   0.784 -0.3919 -0.1081  0.9514
54311SOL     OW72862   3.041  12.469  10.252  0.3694  0.0050  0.1381
54311SOL    HW172863   3.093  12.541  10.218 -1.4676  1.0261 -0.6843
54311SOL    HW272864   2.967  12.462  10.191 -0.2329 -1.6534  0.9836
54312SOL     OW72865   8.753  12.773  10.378  0.1631 -0.8321  0.0372
54312SOL    HW172866   8.699  12.697  10.400  0.6784 -0.7172  1.9021
54312SOL    HW272867   8.843  12.744  10.394  0.3607  0.1725  0.8112
54313SOL     OW72868  12.314   5.954   0.180 -0.2217  0.0861 -0.7267
54313SOL    HW172869  12.231   6.000   0.181 -0.5214 -0.4515 -0.2573
54313SOL    HW272870  12.361   5.990   0.105  0.0275  1.9780  0.2679
54314SOL     OW72871   8.289  12.459  12.120 -0.4494 -0.1073  0.2379
54314SOL    HW172872   8.273  12.457  12.215  0.3865  0.1740  0.3920
54314SOL    HW272873   8.374  12.416  12.110  0.8500  2.4049 -0.0824
54315SOL     OW72874   2.310   1.310  10.861 -0.5183  0.3738 -0.1502
54315SOL    HW172875   2.231   1.261  10.882 -0.6327  0.3946 -0.5307
54315SOL    HW272876   2.379   1.270  10.915 -0.6890  0.0476 -0.1770
54316SOL     OW72877   6.627   4.876   4.781  0.6127 -0.1314  0.0460
54316SOL    HW172878   6.579   4.901   4.860  0.2168 -1.8552  0.4000
54316SOL    HW272879   6.566   4.895   4.709  0.2374 -0.2916  0.3180
54317SOL     OW72880   5.203   0.121   0.778 -0.4202  0.0986  0.2717
54317SOL    HW172881   5.156   0.055   0.726 -0.9382  0.6238  0.0702
54317SOL    HW272882   5.143   0.141   0.850 -0.1994  0.2406  0.4157
54318SOL     OW72883   2.653   4.063   4.097 -0.0679  0.4471 -0.3635
54318SOL    HW172884   2.569   4.105   4.080  0.1547  1.6694  1.3505
54318SOL    HW272885   2.703   4.074   4.016 -1.3383  0.1936 -1.2001
54319SOL     OW72886   0.833  12.351   5.642 -0.4793 -0.5934  0.1671
54319SOL    HW172887   0.838  12.313   5.554 -1.3950  0.4822 -0.3900
54319SOL    HW272888   0.774  12.293   5.690 -1.5572 -0.1357 -0.5557
54320SOL     OW72889   4.019   6.815   8.323  0.5570  0.1489  0.0553
54320SOL    HW172890   3.987   6.884   8.265  0.0154  0.0349  0.2112
54320SOL    HW272891   3.942   6.787   8.372  0.8823 -0.1881  0.3863
54321SOL     OW72892   8.823   2.332   3.184 -0.2488 -0.0018  0.0254
54321SOL    HW172893   8.812   2.423   3.211 -0.9058 -0.5969  1.9171
54321SOL    HW272894   8.911   2.309   3.216  0.7517  0.4904 -2.1899
54322SOL     OW72895   7.568  12.149   9.843 -0.1478  0.4595  0.2740
54322SOL    HW172896   7.584  12.198   9.924 -1.3637  0.8567  0.3021
54322SOL    HW272897   7.608  12.064   9.858  0.2243  0.7585  1.0317
54323SOL     OW72898   0.679   2.501   4.112  0.5728 -0.1855 -0.0861
54323SOL    HW172899   0.626   2.570   4.073 -1.3231 -0.2570  2.1333
54323SOL    HW272900   0.695   2.440   4.040 -0.1562  1.1230 -1.4206
54324SOL     OW72901   9.580   1.889   9.686 -0.4341 -0.4124 -0.0330
54324SOL    HW172902   9.547   1.823   9.624 -0.1344 -1.7159  1.1574
54324SOL    HW272903   9.675   1.882   9.680 -0.3800 -1.6530  1.6661
54325SOL     OW72904   3.209   3.899   9.460 -0.3728 -0.2199 -0.3464
54325SOL    HW172905   3.274   3.969   9.454 -0.6587  0.3892  2.3136
54325SOL    HW272906   3.254   3.822   9.426  1.3242  0.4553  0.2240
54326SOL     OW72907  10.055   2.323   4.930  0.3672  0.1416  0.0548
54326SOL    HW172908  10.048   2.282   4.844 -1.0806 -0.1953  0.3086
54326SOL    HW272909  10.111   2.265   4.981 -0.5931 -0.8607  0.0074
54327SOL     OW72910   2.405   5.556  10.705  0.0829  0.1846 -0.2175
54327SOL    HW172911   2.367   5.616  10.769 -0.4063 -0.4811  0.1374
54327SOL    HW272912   2.491   5.593  10.684  1.1471 -0.5749  2.3353
54328SOL     OW72913  12.970   7.711   3.477 -0.5710  0.1573  0.6231
54328SOL    HW172914  12.958   7.669   3.393 -0.8499 -0.3280  0.9021
54328SOL    HW272915  12.912   7.787   3.474  0.4003  0.8984 -0.1194
54329SOL     OW72916   7.308  12.416  12.805 -0.1323 -0.2121 -0.4105
54329SOL    HW172917   7.310  12.469  12.725  0.9420 -0.3929 -0.5260
54329SOL    HW272918   7.399  12.389  12.817 -0.1847  0.2439  1.1651
54330SOL     OW72919  10.392   7.961   4.699  0.4858 -0.6561  0.1834
54330SOL    HW172920  10.339   8.018   4.644 -1.5480 -1.3302  1.3126
54330SOL    HW272921  10.448   8.021   4.749 -0.4499  0.2463  0.1893
54331SOL     OW72922  11.862   1.412   1.051  0.4140 -0.1229 -0.0920
54331SOL    HW172923  11.862   1.505   1.027  0.0104  0.0276  0.4731
54331SOL    HW272924  11.954   1.389   1.059  0.5489 -0.0023 -1.0879
54332SOL     OW72925   8.868   1.072   2.788  0.0960  0.3754  0.2241
54332SOL    HW172926   8.826   1.015   2.853  0.8357  0.1393  0.4995
54332SOL    HW272927   8.802   1.082   2.720  0.2824 -1.6142 -0.3201
54333SOL     OW72928   5.426   7.855   2.179  0.2964  0.2135  0.1670
54333SOL    HW172929   5.400   7.947   2.183 -0.1973  0.0154  2.2223
54333SOL    HW272930   5.522   7.857   2.178  0.3097  0.7563 -1.5379
54334SOL     OW72931  12.038  12.968   6.781 -0.0788 -0.2604  0.0083
54334SOL    HW172932  12.048  12.887   6.831  0.9657  0.0010  0.2583
54334SOL    HW272933  12.008  12.940   6.695  0.0286 -0.8921  0.1742
54335SOL     OW72934   4.551   7.516   3.483  0.5492 -0.0122  0.1479
54335SOL    HW172935   4.550   7.601   3.439 -0.9393 -0.4606 -0.7586
54335SOL    HW272936   4.571   7.453   3.414 -2.0574 -0.7542 -0.0289
54336SOL     OW72937   2.004  10.157   4.561 -0.2566  0.4008 -0.4058
54336SOL    HW172938   1.993  10.152   4.466  1.3777 -0.0321 -0.6125
54336SOL    HW272939   1.992  10.249   4.582  0.6358  0.7215 -1.2315
54337SOL     OW72940  11.272  10.109   0.018 -0.3146  0.6632 -0.5087
54337SOL    HW172941  11.272  10.016  -0.005 -0.2550 -0.0333  2.0308
54337SOL    HW272942  11.359  10.140  -0.008 -0.2741 -0.0106 -1.2191
54338SOL     OW72943   7.247  12.048   4.775  0.1878 -0.2985  0.1574
54338SOL    HW172944   7.216  12.014   4.691  1.5449 -0.5583 -0.2529
54338SOL    HW272945   7.300  12.124   4.753 -1.5907  1.2689  0.9774
54339SOL     OW72946   4.745   2.728   3.505  0.3164  0.0519  0.4801
54339SOL    HW172947   4.763   2.806   3.558  0.6403 -0.0398  0.5066
54339SOL    HW272948   4.832   2.697   3.478  0.2773 -1.0264  1.5151
54340SOL     OW72949   0.774   0.794   0.929  0.3250  0.4228 -0.0211
54340SOL    HW172950   0.867   0.799   0.949  0.5402 -0.2686 -0.7948
54340SOL    HW272951   0.769   0.814   0.835 -0.1096 -1.1003 -0.3562
54341SOL     OW72952   8.927   3.541   4.180  0.3779 -0.0747  0.8227
54341SOL    HW172953   8.905   3.633   4.170  1.6691  0.1203 -0.7358
54341SOL    HW272954   8.902   3.519   4.270  0.5198  1.9198  1.3897
54342SOL     OW72955  11.760   5.089   9.179  0.2124  0.1862  0.0307
54342SOL    HW172956  11.743   5.127   9.265 -0.7035 -2.3880  1.0904
54342SOL    HW272957  11.708   5.009   9.178  1.6856 -0.8283 -2.1991
54343SOL     OW72958   4.816   4.001   1.294  0.3317 -0.0987 -0.2893
54343SOL    HW172959   4.833   4.085   1.337  0.4574 -0.0720 -0.3939
54343SOL    HW272960   4.810   4.022   1.201  1.4183 -0.3688 -0.4247
54344SOL     OW72961   1.196  10.940  11.572 -0.0471 -0.2674  0.5370
54344SOL    HW172962   1.259  10.879  11.610 -0.2005  0.4253  1.9483
54344SOL    HW272963   1.247  10.994  11.512  0.2262 -1.2923 -0.1737
54345SOL     OW72964   3.889   3.683  12.648 -0.8778 -0.3266  0.0492
54345SOL    HW172965   3.813   3.639  12.610  1.7559 -3.0830 -2.6251
54345SOL    HW272966   3.927   3.619  12.707  0.2755  0.3225  0.0452
54346SOL     OW72967   9.021   0.260  11.325  0.2415 -0.4467  0.0970
54346SOL    HW172968   9.112   0.230  11.311  0.4532 -0.7458  1.9040
54346SOL    HW272969   9.028   0.354  11.336  0.4699 -0.5702  1.1028
54347SOL     OW72970  13.031  12.306   6.889 -0.1146  0.2455  0.2554
54347SOL    HW172971  12.995  12.390   6.916  0.3339  1.1369 -1.7061
54347SOL    HW272972  13.119  12.303   6.928  0.1187  0.9956 -0.2029
54348SOL     OW72973   3.885   9.178  13.218  0.2301  0.1950 -0.1102
54348SOL    HW172974   3.816   9.239  13.243 -0.3863 -0.2265 -0.7499
54348SOL    HW272975   3.839   9.096  13.200  1.1377 -0.8024  1.7944
54349SOL     OW72976   4.848   1.444   2.033  0.1751 -0.4268  0.5363
54349SOL    HW172977   4.897   1.525   2.049  0.2718 -0.5892  1.0674
54349SOL    HW272978   4.903   1.375   2.070  0.1777 -0.7612 -0.0720
54350SOL     OW72979   3.601   3.457   1.172  0.2000 -0.1300 -0.1309
54350SOL    HW172980   3.513   3.457   1.210  0.3050 -2.7702  0.2712
54350SOL    HW272981   3.659   3.445   1.247  1.0026  2.0639 -0.3340
54351SOL     OW72982   7.506   6.329   4.637 -0.5812 -0.0983  0.2064
54351SOL    HW172983   7.415   6.327   4.605 -0.8013  1.1762  0.6682
54351SOL    HW272984   7.498   6.310   4.730 -0.0915 -2.3625 -0.1594
54352SOL     OW72985   7.882   1.875   6.943 -0.5646 -0.3949 -0.1612
54352SOL    HW172986   7.929   1.819   7.004 -1.2411 -1.2608 -0.4070
54352SOL    HW272987   7.883   1.826   6.860 -1.0239  0.0347 -0.4283
54353SOL     OW72988   1.473   7.238  11.348 -0.3348 -0.4510  0.5652
54353SOL    HW172989   1.427   7.297  11.407 -1.2491  0.7696 -1.2859
54353SOL    HW272990   1.421   7.238  11.268  1.5569 -0.9771 -0.7363
54354SOL     OW72991   7.142   7.159   6.991  0.0134 -0.2446  0.1555
54354SOL    HW172992   7.120   7.066   6.995  0.4615 -0.3922 -0.6249
54354SOL    HW272993   7.192   7.168   6.910  0.0009  0.6711  0.2437
54355SOL     OW72994   5.920   3.016   8.240 -0.4786 -0.1156  0.2114
54355SOL    HW172995   5.932   3.057   8.154 -1.6631 -0.6713 -0.2430
54355SOL    HW272996   5.953   2.927   8.230 -3.8791 -1.4443 -0.8610
54356SOL     OW72997   1.668   5.974  12.353 -0.3457 -0.3655  0.3405
54356SOL    HW172998   1.750   5.957  12.307 -0.5934  1.7262 -0.9956
54356SOL    HW272999   1.648   5.891  12.397  0.7478 -1.9938 -2.0220
54357SOL     OW73000  13.184   7.476   3.485 -0.2279 -0.2936  0.6248
54357SOL    HW173001  13.191   7.439   3.397 -1.3415 -1.4324  0.9860
54357SOL    HW273002  13.196   7.570   3.472  0.2778 -0.5080 -0.6503
54358SOL     OW73003   0.665   5.468  11.289 -0.4493  0.0372  0.4315
54358SOL    HW173004   0.689   5.503  11.375  0.3438  1.7943 -0.4359
54358SOL    HW273005   0.733   5.502  11.230 -1.2731 -0.6669 -0.9795
54359SOL     OW73006   5.642   4.070  12.993  0.0227  0.8144 -0.2199
54359SOL    HW173007   5.661   3.983  12.958  2.2129  1.3519 -0.5460
54359SOL    HW273008   5.592   4.114  12.924  1.0561  0.6152 -1.1214
54360SOL     OW73009   6.188   4.222   1.165  0.1952  0.0224 -0.7499
54360SOL    HW173010   6.218   4.157   1.102 -1.0016 -0.3897 -0.9281
54360SOL    HW273011   6.267   4.254   1.207  0.8139 -1.4793 -0.7289
54361SOL     OW73012   2.078   9.210   7.992 -0.0489 -0.0379 -0.7526
54361SOL    HW173013   2.096   9.154   8.068 -1.6380  1.4702  0.8334
54361SOL    HW273014   2.031   9.153   7.931  1.0494 -1.2221 -0.5453
54362SOL     OW73015   3.975   8.321   4.395  0.0294  0.2520 -0.2999
54362SOL    HW173016   4.049   8.262   4.410 -1.0457 -0.8751  0.8184
54362SOL    HW273017   3.929   8.283   4.319  0.3534  0.7306 -0.7473
54363SOL     OW73018   7.232   3.612   8.352 -0.3850 -0.2343 -0.5974
54363SOL    HW173019   7.296   3.585   8.418 -1.9876 -2.5322  0.1386
54363SOL    HW273020   7.221   3.706   8.368  2.1890  0.1076 -0.2830
54364SOL     OW73021   3.594   4.305   2.515 -0.5361 -0.3382  0.9917
54364SOL    HW173022   3.656   4.326   2.585  0.7318 -0.2829 -0.0870
54364SOL    HW273023   3.541   4.234   2.550  0.1382 -0.3766  1.9775
54365SOL     OW73024   5.731   5.311   2.184 -0.0558 -0.8523 -0.1341
54365SOL    HW173025   5.822   5.288   2.205 -0.7900 -0.9319  3.8006
54365SOL    HW273026   5.702   5.361   2.260 -3.0557  0.0594 -1.7414
54366SOL     OW73027  10.225   6.283   3.664  0.2054  0.1084  0.3046
54366SOL    HW173028  10.289   6.313   3.729  0.5540 -1.1614  0.5732
54366SOL    HW273029  10.175   6.362   3.642  1.1359  0.8944  0.9128
54367SOL     OW73030  10.227  10.191   5.406  0.4172  0.0298  0.0461
54367SOL    HW173031  10.300  10.229   5.356 -1.4327  1.4838 -1.7285
54367SOL    HW273032  10.199  10.115   5.355 -0.3557  0.4741 -0.2110
54368SOL     OW73033   6.019   5.747   7.434 -0.3538 -0.4688  0.1715
54368SOL    HW173034   6.072   5.810   7.385  0.9441 -0.6294  1.3160
54368SOL    HW273035   5.932   5.754   7.396  0.2360  0.5816 -1.0472
54369SOL     OW73036  12.268   6.187   1.660 -0.0065 -0.0622  0.3028
54369SOL    HW173037  12.326   6.216   1.730 -0.1800 -1.7132  1.1885
54369SOL    HW273038  12.324   6.135   1.602 -0.3764 -0.8587  0.6420
54370SOL     OW73039   3.204   8.224   9.380 -0.1228  0.2753 -0.7255
54370SOL    HW173040   3.255   8.275   9.443 -0.7306 -0.1538  0.1354
54370SOL    HW273041   3.154   8.289   9.331  0.5888  0.6330 -0.9889
54371SOL     OW73042   2.187   3.844  12.203 -0.3562  0.3993  0.0578
54371SOL    HW173043   2.268   3.886  12.174 -0.7014  0.3211 -1.0963
54371SOL    HW273044   2.145   3.909  12.260  0.6233  0.3324  0.8844
54372SOL     OW73045  12.688   0.197   6.636 -0.4152  0.2674 -0.4141
54372SOL    HW173046  12.626   0.246   6.690  0.2346  1.0422 -0.3373
54372SOL    HW273047  12.741   0.148   6.699 -1.3677 -0.9307 -0.5171
54373SOL     OW73048   4.493  11.967   4.467 -0.7871 -0.7926  0.2093
54373SOL    HW173049   4.402  11.959   4.495 -0.3945 -2.4001  1.1669
54373SOL    HW273050   4.492  11.945   4.374 -1.4197 -0.4422  0.1310
54374SOL     OW73051  12.581   2.725   8.737 -0.0547 -0.1026 -0.1511
54374SOL    HW173052  12.629   2.730   8.820 -1.1157 -0.6566  0.5191
54374SOL    HW273053  12.608   2.803   8.689 -0.0184  0.6432  1.0381
54375SOL     OW73054   1.117  11.848   6.510  0.5267  0.4886  0.0091
54375SOL    HW173055   1.056  11.807   6.449 -0.9741 -0.9743  2.3310
54375SOL    HW273056   1.150  11.925   6.464 -1.6473  0.2787 -2.0521
54376SOL     OW73057  10.424   8.779   8.074  0.3044  0.4360 -0.2212
54376SOL    HW173058  10.446   8.706   8.132  0.8005  0.3574 -0.5058
54376SOL    HW273059  10.427   8.856   8.130  1.0861  0.3982 -0.2054
54377SOL     OW73060  10.713   5.561   3.869  0.2165 -0.2324 -0.2063
54377SOL    HW173061  10.769   5.485   3.852 -1.3108 -0.8306 -3.1131
54377SOL    HW273062  10.641   5.526   3.922  0.1340 -0.5720 -0.5323
54378SOL     OW73063   6.220   8.060   1.335 -0.1246  0.3018  0.3694
54378SOL    HW173064   6.303   8.029   1.300  0.9202 -0.4536  3.2503
54378SOL    HW273065   6.239   8.147   1.369 -0.7107  0.4046  0.4461
54379SOL     OW73066   7.248   1.427   1.924 -0.0805 -0.7487 -0.2194
54379SOL    HW173067   7.186   1.413   1.853  0.0259 -0.6090 -0.3390
54379SOL    HW273068   7.208   1.382   1.999  0.0628 -1.3445 -0.4974
54380SOL     OW73069   7.885   0.192   0.648  0.5158  0.1245 -0.1064
54380SOL    HW173070   7.934   0.244   0.712 -1.0822  1.2827  0.2241
54380SOL    HW273071   7.799   0.179   0.687 -0.2732  0.2479 -1.6954
54381SOL     OW73072  10.686   0.786   0.240 -0.3774 -0.1826  0.4390
54381SOL    HW173073  10.718   0.816   0.325 -0.3042 -1.3136  0.8305
54381SOL    HW273074  10.741   0.711   0.219  0.8872  1.1993 -1.5320
54382SOL     OW73075  11.511   3.983   8.958 -0.2183 -0.3872 -0.1604
54382SOL    HW173076  11.436   3.933   8.986  0.0526  0.1785  1.6965
54382SOL    HW273077  11.484   4.024   8.876 -2.0696  0.0908  0.6534
54383SOL     OW73078  10.387  12.468   4.152 -0.3269 -0.5217 -0.2007
54383SOL    HW173079  10.339  12.389   4.175 -0.6215 -0.1825  0.3586
54383SOL    HW273080  10.339  12.504   4.077  0.5163 -1.5148 -1.2486
54384SOL     OW73081   1.107   9.990   9.002  0.0480 -0.2571  0.4481
54384SOL    HW173082   1.057   9.960   8.926 -1.0643 -0.7206  1.3222
54384SOL    HW273083   1.101   9.917   9.064  0.0955  0.4913  1.3528
54385SOL     OW73084  12.185   5.618   8.934 -0.2046  0.3337 -0.3104
54385SOL    HW173085  12.220   5.704   8.907 -0.4857  0.7408  0.5953
54385SOL    HW273086  12.091   5.625   8.922 -0.2945  0.3827  0.3811
54386SOL     OW73087   5.691   1.059   1.844 -0.4340 -0.5330  0.5770
54386SOL    HW173088   5.749   0.984   1.851 -1.3914 -1.1902  1.9294
54386SOL    HW273089   5.609   1.024   1.809 -0.4392  0.1488 -0.1195
54387SOL     OW73090   8.321   1.871  12.777 -0.2449  0.0521 -0.2623
54387SOL    HW173091   8.240   1.833  12.741 -0.7568 -1.3282  2.1171
54387SOL    HW273092   8.298   1.962  12.796 -0.5364  0.2746 -1.5457
54388SOL     OW73093   2.838   5.428   6.145 -0.5599 -0.0218 -0.1552
54388SOL    HW173094   2.885   5.404   6.065  0.6344 -2.9735  1.2339
54388SOL    HW273095   2.757   5.377   6.141 -1.2627  1.0788 -0.1965
54389SOL     OW73096   8.247   6.694   4.780 -0.6964 -0.1398  0.0453
54389SOL    HW173097   8.203   6.715   4.698 -1.3807  0.4077  0.5332
54389SOL    HW273098   8.216   6.607   4.804 -0.8789 -0.0946 -0.0305
54390SOL     OW73099  12.670  11.007   4.756  0.0800 -0.5767  0.3717
54390SOL    HW173100  12.671  11.102   4.758  0.9304 -0.5475  3.0450
54390SOL    HW273101  12.686  10.984   4.664  0.7878  1.8304 -0.1691
54391SOL     OW73102   0.638   0.130   3.701 -0.4038  0.1692  0.2979
54391SOL    HW173103   0.584   0.191   3.650  0.1554  0.0761 -0.4298
54391SOL    HW273104   0.714   0.115   3.646 -0.5201 -1.1815  0.4698
54392SOL     OW73105  13.258  12.591  10.009 -0.0891 -0.1194 -0.5200
54392SOL    HW173106  13.326  12.598  10.076 -0.0037 -0.7881 -0.5252
54392SOL    HW273107  13.306  12.579   9.927 -0.1119 -4.0057 -0.1689
54393SOL     OW73108   3.881  10.412   2.704 -0.3266  0.3892  0.9095
54393SOL    HW173109   3.887  10.327   2.747  1.5565 -0.8865 -1.6254
54393SOL    HW273110   3.935  10.470   2.758  2.1166 -1.1847  0.3047
54394SOL     OW73111   7.990   5.085   0.273  0.0018 -0.0037  0.1552
54394SOL    HW173112   8.075   5.045   0.292  0.6478  0.9861 -0.5383
54394SOL    HW273113   7.954   5.109   0.358 -0.5953 -2.3742  0.6315
54395SOL     OW73114   5.822   9.209  10.417  0.0227 -0.2095  0.2368
54395SOL    HW173115   5.904   9.167  10.390  0.1148 -0.2109  0.5198
54395SOL    HW273116   5.829   9.299  10.383  0.5447  0.0629  1.0476
54396SOL     OW73117  12.100   7.636   2.523  0.2879 -0.5452  0.1592
54396SOL    HW173118  12.138   7.714   2.564 -1.2338  1.7157 -2.3722
54396SOL    HW273119  12.171   7.597   2.473  0.5626  0.6270 -0.4072
54397SOL     OW73120   1.069  10.004   4.237  0.0149 -0.0708 -0.0381
54397SOL    HW173121   0.989  10.035   4.278  1.0466  2.2139  0.4081
54397SOL    HW273122   1.137  10.019   4.302  1.2096  0.6719 -1.3924
54398SOL     OW73123  13.204   5.841   0.117 -0.2180 -0.1117  0.3135
54398SOL    HW173124  13.211   5.925   0.161 -2.1407 -0.4144  1.2982
54398SOL    HW273125  13.244   5.855   0.031  0.8188  1.3590  0.9902
54399SOL     OW73126   1.299  12.861   7.039  0.0175 -0.0923 -0.7881
54399SOL    HW173127   1.245  12.785   7.060  1.0388 -0.9101 -1.0396
54399SOL    HW273128   1.354  12.873   7.117 -1.0942  1.2721 -0.1789
54400SOL     OW73129   1.764   6.711  10.622 -0.5014  0.1745  0.3554
54400SOL    HW173130   1.699   6.650  10.588 -1.1117  0.1092  1.5698
54400SOL    HW273131   1.798   6.668  10.701 -1.9149  1.9411  2.0097
54401SOL     OW73132   8.810   7.261   6.280  0.3362 -0.3984  0.0511
54401SOL    HW173133   8.887   7.283   6.228  0.3297 -0.1613  0.1414
54401SOL    HW273134   8.746   7.329   6.257  0.4258 -0.1356  0.5771
54402SOL     OW73135   3.072   2.183  10.767 -0.1142  0.4653 -0.0955
54402SOL    HW173136   3.028   2.181  10.852  0.1154  1.6386  0.0761
54402SOL    HW273137   3.001   2.187  10.703 -0.4320 -3.4881 -0.2218
54403SOL     OW73138   5.558   2.367   1.610 -0.4984 -0.3857  0.2851
54403SOL    HW173139   5.510   2.361   1.693  0.3905  1.3259  0.9739
54403SOL    HW273140   5.628   2.430   1.627 -0.9971  0.9436 -2.1088
54404SOL     OW73141   3.459   4.735  10.096 -0.3024  0.5849  0.0674
54404SOL    HW173142   3.524   4.736  10.026  0.1738 -0.0268  0.4984
54404SOL    HW273143   3.376   4.718  10.052  0.2250 -1.5900 -0.1744
54405SOL     OW73144   6.634  11.240   8.463 -0.1296 -0.6278  1.0522
54405SOL    HW173145   6.667  11.292   8.390 -2.9609  0.8866  0.7408
54405SOL    HW273146   6.643  11.150   8.434  1.6058 -0.2224  0.1460
54406SOL     OW73147   2.968   7.649   6.644 -0.4058 -0.5425 -0.0404
54406SOL    HW173148   2.968   7.670   6.738  0.0438  1.4794 -0.4385
54406SOL    HW273149   2.903   7.708   6.606  1.8327  1.2021 -1.4331
54407SOL     OW73150   4.776   7.335   7.382 -0.0427  0.2493 -1.0502
54407SOL    HW173151   4.818   7.262   7.337  0.6747  0.2163 -0.3577
54407SOL    HW273152   4.849   7.389   7.412 -0.4630  0.0367  0.4537
54408SOL     OW73153   5.932   9.067   9.509  0.5421 -0.1024 -0.1573
54408SOL    HW173154   6.005   9.014   9.476  1.3904  0.9690 -0.0459
54408SOL    HW273155   5.949   9.155   9.476  0.7603  0.7506  2.0512
54409SOL     OW73156   3.982   9.408   2.876 -0.4509 -0.2698  0.1255
54409SOL    HW173157   4.032   9.438   2.800 -0.8863  1.8786  0.6161
54409SOL    HW273158   3.906   9.364   2.837  1.0091 -2.3114 -0.6157
54410SOL     OW73159  11.085   6.968   0.343  0.1703 -1.1185  0.4155
54410SOL    HW173160  11.118   6.915   0.270  1.6057 -0.0985  0.2718
54410SOL    HW273161  11.020   7.026   0.304  0.6773 -0.8227  0.0002
54411SOL     OW73162   6.294   1.628   1.672  0.0697 -0.0042 -0.1375
54411SOL    HW173163   6.297   1.706   1.618  1.2314  0.5769  0.7053
54411SOL    HW273164   6.202   1.604   1.676 -0.3593  1.5703 -0.0831
54412SOL     OW73165   7.402  10.838   9.277  0.1494 -0.1594 -0.0251
54412SOL    HW173166   7.432  10.768   9.334  1.4091 -1.3661 -2.0513
54412SOL    HW273167   7.477  10.898   9.271  0.7892 -1.0927 -1.9383
54413SOL     OW73168   4.741  12.262   0.575 -0.6064  0.3856 -0.7418
54413SOL    HW173169   4.800  12.192   0.546  0.1866  0.1412  1.2765
54413SOL    HW273170   4.798  12.327   0.614 -1.6620 -0.5336  2.6440
54414SOL     OW73171   3.151   5.909   3.278 -0.0885  0.3571  0.0690
54414SOL    HW173172   3.163   5.902   3.373  1.7032 -1.0672 -0.2162
54414SOL    HW273173   3.137   5.819   3.249  0.0736  0.6967 -1.0995
54415SOL     OW73174   3.010  10.641   9.798  0.2635  0.3370  0.3875
54415SOL    HW173175   2.988  10.621   9.707  3.7022  1.2749 -0.8298
54415SOL    HW273176   2.937  10.694   9.830 -1.2124 -0.3524 -1.6716
54416SOL     OW73177   0.043   4.640   9.276 -0.0569  0.1914  0.8168
54416SOL    HW173178   0.049   4.735   9.283  0.8231  0.2687 -0.6530
54416SOL    HW273179   0.121   4.608   9.322  1.3922  0.3588 -1.3887
54417SOL     OW73180   4.347   6.678   5.946  0.0115  0.2580 -0.2244
54417SOL    HW173181   4.282   6.688   5.877 -0.6384  1.8666  0.5626
54417SOL    HW273182   4.314   6.732   6.018  1.6917  0.2776  0.5867
54418SOL     OW73183  13.220  10.926  11.938  0.0959  0.0018  0.2145
54418SOL    HW173184  13.229  10.999  11.877  0.1626  0.2471  0.5103
54418SOL    HW273185  13.155  10.956  12.001 -0.2460 -0.3962  0.0533
54419SOL     OW73186   6.279   1.688   4.111  0.7652  0.5716 -0.0763
54419SOL    HW173187   6.327   1.759   4.069  1.9334  0.6421  1.2920
54419SOL    HW273188   6.333   1.610   4.095  0.1513  0.2228 -0.4732
54420SOL     OW73189  12.548   0.914   4.343 -0.5153 -0.0197 -0.2715
54420SOL    HW173190  12.604   0.970   4.290 -0.5691 -0.0157 -0.3254
54420SOL    HW273191  12.561   0.944   4.433  1.7074 -1.8191  0.0899
54421SOL     OW73192   9.793   8.018   0.050  0.9548 -0.4522 -0.1707
54421SOL    HW173193   9.768   8.101   0.011  0.1290 -0.3848  0.4840
54421SOL    HW273194   9.812   7.961  -0.025 -1.0419 -0.4659 -0.7152
54422SOL     OW73195  10.082  11.330   8.957  0.1974  0.2634 -0.0197
54422SOL    HW173196  10.029  11.266   8.909  0.8725 -0.5453  0.2817
54422SOL    HW273197  10.026  11.407   8.964 -0.7090 -0.3570 -0.2343
54423SOL     OW73198  10.500   3.999   3.128 -0.2471  0.5046 -0.2431
54423SOL    HW173199  10.411   4.007   3.163  0.3026  0.7765  1.1765
54423SOL    HW273200  10.524   4.088   3.103  0.0371  0.6385  0.4781
54424SOL     OW73201   4.529  10.732   7.924 -0.1630 -0.2341  0.3137
54424SOL    HW173202   4.505  10.745   8.016 -0.0704 -0.6627  0.4006
54424SOL    HW273203   4.593  10.801   7.906  0.6804 -0.8407  0.8996
54425SOL     OW73204   6.678   3.664   7.747 -0.0604  0.2681  0.0119
54425SOL    HW173205   6.628   3.735   7.706  3.1313  4.1330  2.0778
54425SOL    HW273206   6.739   3.635   7.679  0.2102  1.2617 -0.1850
54426SOL     OW73207   0.203  10.857   8.911  0.0785  0.1324  0.5930
54426SOL    HW173208   0.218  10.935   8.966  1.1107 -0.4707  1.1979
54426SOL    HW273209   0.199  10.785   8.973  0.5501 -0.4742 -0.0698
54427SOL     OW73210   7.790   9.144   8.311  0.0527 -0.5226  0.7187
54427SOL    HW173211   7.742   9.223   8.284  0.1397 -0.4746  0.7053
54427SOL    HW273212   7.877   9.176   8.333  0.1418 -0.6438  0.5382
54428SOL     OW73213   8.716   8.950  11.477  0.2026 -0.0532  0.4534
54428SOL    HW173214   8.710   8.943  11.572 -0.1074  0.4238  0.4704
54428SOL    HW273215   8.629   8.980  11.450  0.3725  0.0711  0.0476
54429SOL     OW73216   4.025   5.964  10.818  0.5929 -0.2926  0.3003
54429SOL    HW173217   4.030   6.056  10.790  1.5476 -0.5324 -0.3654
54429SOL    HW273218   4.084   5.960  10.893  0.8530 -0.4419  0.0893
54430SOL     OW73219   0.159  13.056   4.520  0.1853  0.3645  0.2624
54430SOL    HW173220   0.148  12.990   4.451  1.6833  0.8210 -0.4501
54430SOL    HW273221   0.070  13.076   4.548 -0.6333  1.1810 -2.5402
54431SOL     OW73222   3.959   3.182   0.799 -0.0498  0.4128  0.5228
54431SOL    HW173223   3.976   3.258   0.854  0.0264  0.0265  1.0428
54431SOL    HW273224   3.956   3.216   0.710 -0.5330  1.1067  0.7970
54432SOL     OW73225   2.645  11.793  10.980 -0.4697 -0.5818  0.4650
54432SOL    HW173226   2.635  11.791  10.885  1.2397 -0.2292  0.2452
54432SOL    HW273227   2.567  11.839  11.012 -1.1061 -0.7909 -0.7425
54433SOL     OW73228   2.681   9.741   9.235  0.3744  0.1032  0.3171
54433SOL    HW173229   2.616   9.700   9.291  0.1754  0.1416  0.1148
54433SOL    HW273230   2.746   9.777   9.295  1.1635 -1.4946  0.4866
54434SOL     OW73231  11.418  11.200   3.386  0.5168 -0.1205 -0.1595
54434SOL    HW173232  11.488  11.220   3.448  0.6093 -0.2328 -0.2272
54434SOL    HW273233  11.435  11.109   3.359  0.9800  0.1998 -0.9962
54435SOL     OW73234  11.399   3.193   2.660  0.3084  0.9960  0.0025
54435SOL    HW173235  11.376   3.180   2.752  0.2559  1.7951  0.1138
54435SOL    HW273236  11.424   3.106   2.628 -1.6522  0.2999  0.2176
54436SOL     OW73237   8.115   6.076   2.011 -0.0804 -0.0437  0.1878
54436SOL    HW173238   8.057   6.095   1.937  0.2244 -0.3642 -0.1347
54436SOL    HW273239   8.201   6.063   1.971 -0.0811 -1.0937  0.5032
54437SOL     OW73240   6.997   1.777  13.086 -0.0896 -0.0198  0.1145
54437SOL    HW173241   6.985   1.834  13.011 -1.2189  0.3937  0.5964
54437SOL    HW273242   6.929   1.710  13.077 -1.0197  0.7231  1.3917
54438SOL     OW73243   0.837   6.337  12.889 -0.2838  0.3552  0.5331
54438SOL    HW173244   0.925   6.371  12.874  0.2673 -1.0285  0.5344
54438SOL    HW273245   0.820   6.354  12.982 -0.4298  1.5034  0.3142
54439SOL     OW73246  12.940   4.484  12.164  0.5369 -0.0671  0.2155
54439SOL    HW173247  12.875   4.454  12.100 -0.9138 -2.0457  2.4462
54439SOL    HW273248  12.937   4.579  12.159 -1.0428 -0.1528 -1.1755
54440SOL     OW73249  11.312  10.838   9.869  0.1526 -0.1627 -0.4151
54440SOL    HW173250  11.377  10.894   9.911 -0.0119  0.1447 -0.5664
54440SOL    HW273251  11.364  10.768   9.828  0.4276  0.2914 -0.8610
54441SOL     OW73252   5.325   0.808   8.545  0.6478  0.2620 -0.6365
54441SOL    HW173253   5.244   0.858   8.554  0.3013  0.1679 -2.6630
54441SOL    HW273254   5.295   0.720   8.520  1.2674 -0.9024  2.3404
54442SOL     OW73255   3.873   0.065   8.699 -0.2875  0.0617 -0.4528
54442SOL    HW173256   3.827   0.147   8.681  0.8270  0.9849  0.6718
54442SOL    HW273257   3.812   0.016   8.755 -1.1443 -0.1051 -1.4891
54443SOL     OW73258   7.809   1.209  12.148 -0.9053 -0.0603 -0.4052
54443SOL    HW173259   7.797   1.116  12.131 -1.5300 -0.2085  0.7028
54443SOL    HW273260   7.722   1.239  12.176 -1.0932  1.2134 -2.2483
54444SOL     OW73261   3.738   7.708  10.986 -0.1430 -0.1059  0.3159
54444SOL    HW173262   3.767   7.754  10.907 -0.7555 -0.7141 -0.2847
54444SOL    HW273263   3.807   7.644  11.004 -0.2352 -0.3069 -0.0311
54445SOL     OW73264   7.689   3.672   7.530 -0.2519  0.1906  0.0104
54445SOL    HW173265   7.621   3.628   7.580 -1.9536  0.3455 -2.0041
54445SOL    HW273266   7.645   3.702   7.451  1.8641  1.5730 -0.7506
54446SOL     OW73267   2.369  12.528   1.415 -0.7925 -0.1568  0.1645
54446SOL    HW173268   2.371  12.606   1.360 -0.9780  1.4440  2.3336
54446SOL    HW273269   2.460  12.498   1.418 -0.7413 -0.1278 -0.7745
54447SOL     OW73270   1.428   3.121   3.618 -0.1753 -0.3802 -0.0992
54447SOL    HW173271   1.359   3.093   3.678  0.6007 -2.5653 -0.1590
54447SOL    HW273272   1.430   3.055   3.550  1.8711 -0.3068 -0.1768
54448SOL     OW73273   0.792  13.313   7.046  0.1183  0.5781 -0.0316
54448SOL    HW173274   0.773  13.405   7.025 -1.3682  0.8161  2.0743
54448SOL    HW273275   0.762  13.264   6.969  1.7777  1.8768 -1.5800
54449SOL     OW73276   4.438   7.434   4.600 -0.0509  0.2927  0.2166
54449SOL    HW173277   4.470   7.523   4.613 -0.7186  0.9223 -2.0176
54449SOL    HW273278   4.406   7.433   4.510 -1.7775 -1.6899  0.7745
54450SOL     OW73279   5.663   8.167   3.796  0.0438 -0.3366 -0.0864
54450SOL    HW173280   5.568   8.169   3.803  0.0395 -0.8848  0.0818
54450SOL    HW273281   5.693   8.149   3.886  0.2996 -0.2344 -0.1504
54451SOL     OW73282  13.120   6.529  13.022  0.2406 -0.0637  0.2340
54451SOL    HW173283  13.118   6.489  13.109 -0.4966 -1.7298 -0.5011
54451SOL    HW273284  13.030   6.522  12.990  0.8886 -1.4999 -1.4799
54452SOL     OW73285   5.185   0.644   6.346  0.6015  0.1174 -0.1666
54452SOL    HW173286   5.250   0.608   6.406  1.1136  0.5437 -0.4483
54452SOL    HW273287   5.175   0.735   6.373 -0.3725 -0.1155  0.2817
54453SOL     OW73288   9.100   3.912  10.682  0.2393  0.9017 -0.2094
54453SOL    HW173289   9.176   3.892  10.627 -0.0904 -1.1098 -0.0021
54453SOL    HW273290   9.056   3.828  10.693 -0.5108  1.5296  1.9567
54454SOL     OW73291   5.270   8.334  11.682 -0.4412 -0.2433 -0.0500
54454SOL    HW173292   5.288   8.428  11.683  1.4934 -0.5080 -1.9952
54454SOL    HW273293   5.191   8.325  11.629 -0.1094  0.2416 -0.6365
54455SOL     OW73294   4.284  10.706   1.702  0.5048 -0.1932  0.1568
54455SOL    HW173295   4.251  10.695   1.613 -2.5697  1.1099  1.0221
54455SOL    HW273296   4.271  10.798   1.722  0.9471 -0.4926  2.0264
54456SOL     OW73297  11.105   8.746   6.916  0.1991  0.1211 -0.3683
54456SOL    HW173298  11.018   8.706   6.917  0.5217 -0.6135 -0.5412
54456SOL    HW273299  11.150   8.708   6.992  1.4021 -1.9628 -1.9992
54457SOL     OW73300   0.693   2.417   6.362  0.2873 -0.1143 -0.2023
54457SOL    HW173301   0.778   2.373   6.372  1.7142  1.8801 -2.4699
54457SOL    HW273302   0.709   2.486   6.298 -3.1093  0.3430 -0.7384
54458SOL     OW73303  10.459   5.558  12.325  0.6623  0.0985  0.0590
54458SOL    HW173304  10.452   5.617  12.400  1.1389 -1.4206  1.3558
54458SOL    HW273305  10.545   5.577  12.287  2.0129 -1.5203  2.1015
54459SOL     OW73306  13.184  10.666   6.324 -0.5659  0.6354 -0.0058
54459SOL    HW173307  13.101  10.617   6.318 -0.8644  1.2870 -1.5302
54459SOL    HW273308  13.170  10.727   6.397 -0.8241 -0.3428  0.7912
54460SOL     OW73309  12.159   9.985   5.884 -0.3873 -0.7015  0.8409
54460SOL    HW173310  12.163   9.916   5.818 -0.7849 -1.4121  1.5409
54460SOL    HW273311  12.150   9.938   5.967 -0.2495  0.1844  1.3697
54461SOL     OW73312   1.058   5.259  11.156  0.1526  0.1399  0.0464
54461SOL    HW173313   1.085   5.172  11.125 -1.3252 -0.3995  0.2135
54461SOL    HW273314   1.008   5.295  11.083  0.5894  0.7837  0.0592
54462SOL     OW73315   0.598   8.923   6.517 -0.1431 -0.1727 -1.1425
54462SOL    HW173316   0.506   8.939   6.496 -0.1529  0.7320 -0.4774
54462SOL    HW273317   0.646   8.962   6.444 -0.2475  0.9668 -0.6280
54463SOL     OW73318   6.426   6.084   9.363  0.5309 -0.3528  0.2857
54463SOL    HW173319   6.434   6.074   9.268  1.2285 -1.3786  0.4333
54463SOL    HW273320   6.436   5.995   9.397  1.4507  0.1516  1.3936
54464SOL     OW73321   7.702   0.449  11.964  0.5256 -0.6404  0.4334
54464SOL    HW173322   7.732   0.522  12.019 -0.3840  0.0461  0.0400
54464SOL    HW273323   7.758   0.376  11.989  1.6798  0.2721  0.6174
54465SOL     OW73324   6.478  11.648   3.773  0.2812 -0.6548  0.5535
54465SOL    HW173325   6.507  11.561   3.801  1.5499 -0.9169 -1.3717
54465SOL    HW273326   6.556  11.703   3.784  0.4078 -0.4765 -1.1069
54466SOL     OW73327  11.059   9.957   5.341 -0.5718  0.2880  0.1618
54466SOL    HW173328  11.140   9.946   5.391 -0.5229  1.2133  0.2999
54466SOL    HW273329  11.063   9.889   5.273  0.3123  0.3197  0.1740
54467SOL     OW73330  12.996  11.861   0.661  0.5333  0.2208 -0.2113
54467SOL    HW173331  12.939  11.797   0.702  0.2224 -1.6297 -3.1867
54467SOL    HW273332  13.082  11.847   0.701 -0.6012  1.9719  3.1854
54468SOL     OW73333   0.331  11.560   4.203  0.0212 -0.2436  0.4751
54468SOL    HW173334   0.376  11.644   4.196 -0.0444 -0.1325  1.2940
54468SOL    HW273335   0.335  11.538   4.297 -2.9154  0.5054  0.8696
54469SOL     OW73336   7.956   0.394   5.566 -0.1311  0.4432 -0.2971
54469SOL    HW173337   8.044   0.425   5.587 -0.2017  0.6247 -0.2671
54469SOL    HW273338   7.968   0.302   5.542 -0.0290  0.2463  0.4614
54470SOL     OW73339   3.027   4.678   7.022 -0.3595  0.0205  0.0075
54470SOL    HW173340   3.014   4.681   6.927 -1.8461  1.1606  0.2115
54470SOL    HW273341   2.939   4.688   7.059 -0.1474 -2.6302  1.5351
54471SOL     OW73342   4.494   1.787  13.094 -0.5402 -0.0272 -0.2907
54471SOL    HW173343   4.530   1.812  13.179 -1.9073 -0.4335  0.4415
54471SOL    HW273344   4.559   1.816  13.030  1.1222 -0.8318  0.9563
54472SOL     OW73345   1.119  10.239   1.839  0.2212  0.1260 -0.4776
54472SOL    HW173346   1.122  10.301   1.911  1.5491 -0.3566 -0.0892
54472SOL    HW273347   1.209  10.208   1.830 -0.2117 -0.9524 -1.3534
54473SOL     OW73348  12.946   0.550   1.254  0.2208 -0.2692  0.4924
54473SOL    HW173349  12.983   0.514   1.335  0.3871  3.0610  2.0595
54473SOL    HW273350  12.889   0.621   1.284 -0.8222  0.1571 -2.2896
54474SOL     OW73351   3.244   4.093   8.663 -0.1566  0.1103 -0.2811
54474SOL    HW173352   3.287   4.157   8.606  0.8931  0.9153  1.3435
54474SOL    HW273353   3.286   4.009   8.641 -0.3063  0.2561 -1.1840
54475SOL     OW73354  11.755  10.277  12.770  0.0157  0.0255 -0.1879
54475SOL    HW173355  11.750  10.182  12.771 -0.8096  0.0557 -0.6915
54475SOL    HW273356  11.716  10.304  12.854 -2.6607  0.0021 -1.3160
54476SOL     OW73357   9.682   0.617   1.807 -0.7138  0.4377  0.5006
54476SOL    HW173358   9.669   0.523   1.794 -0.3864  0.2775  1.3223
54476SOL    HW273359   9.643   0.635   1.892  0.5430  0.7613  1.0322
54477SOL     OW73360  12.062   1.047   2.063  0.3410 -0.0819  0.5928
54477SOL    HW173361  12.103   1.013   2.143 -2.0658 -2.0121  1.1319
54477SOL    HW273362  12.086   0.983   1.995 -1.3388 -1.0276  0.8376
54478SOL     OW73363   1.120   6.869   9.593  0.0190  0.6500  0.4880
54478SOL    HW173364   1.091   6.959   9.580  0.8020  0.8905  0.3242
54478SOL    HW273365   1.188   6.875   9.660 -0.2949  0.1055  0.8632
54479SOL     OW73366   5.087   1.125   3.633  0.3201  0.1968 -0.5659
54479SOL    HW173367   5.111   1.086   3.549  0.8370  1.8867 -1.2472
54479SOL    HW273368   5.166   1.120   3.686  1.1068  2.2692 -1.4507
54480SOL     OW73369   7.720  10.022  12.060 -0.2600  0.2915  0.1014
54480SOL    HW173370   7.720   9.935  12.101 -0.9001 -1.6040 -3.4810
54480SOL    HW273371   7.812  10.042  12.046 -0.0925  0.4016  1.3199
54481SOL     OW73372   2.745   6.663   6.589 -0.4670 -0.0985 -0.1955
54481SOL    HW173373   2.649   6.659   6.582 -0.4380  0.9412 -1.6856
54481SOL    HW273374   2.763   6.632   6.677 -2.2736  0.6851  0.5190
54482SOL     OW73375   5.106   4.884   5.673 -0.3720  0.4523 -1.0160
54482SOL    HW173376   5.145   4.962   5.713  1.4262 -0.0512 -1.6923
54482SOL    HW273377   5.169   4.814   5.689 -2.0130 -0.9447 -0.2945
54483SOL     OW73378  13.168   6.109  11.260 -0.4438  0.2732  0.1813
54483SOL    HW173379  13.207   6.184  11.305  2.2115  0.1693 -1.7230
54483SOL    HW273380  13.120   6.148  11.187  1.3029  0.2021 -1.0707
54484SOL     OW73381   2.399   8.780   4.785 -0.1618 -0.0699  0.1490
54484SOL    HW173382   2.336   8.839   4.746 -0.6742 -0.6231  0.1283
54484SOL    HW273383   2.423   8.822   4.868  0.6602  0.9254 -0.5694
54485SOL     OW73384   0.011   2.486  10.639  0.1573 -0.3676 -0.0079
54485SOL    HW173385   0.103   2.488  10.611  0.2702  0.1352  0.3862
54485SOL    HW273386   0.009   2.421  10.710  0.2796 -0.1281  0.2173
54486SOL     OW73387   2.953  11.833  10.908  0.1996  0.4508  0.1165
54486SOL    HW173388   2.872  11.830  10.959 -1.2263  1.6448 -1.9556
54486SOL    HW273389   2.980  11.925  10.912  1.5150  0.0630  0.7962
54487SOL     OW73390  13.130   2.000   1.068  0.0090 -0.1562 -0.0634
54487SOL    HW173391  13.095   2.085   1.040 -1.4092 -0.3039  1.1512
54487SOL    HW273392  13.150   1.954   0.987 -1.5908  0.3779 -0.7986
54488SOL     OW73393  11.002   1.922  13.238  0.3663  0.2662 -0.0440
54488SOL    HW173394  10.907   1.918  13.250  0.1670  1.1051 -1.2179
54488SOL    HW273395  11.036   1.855  13.297 -1.0064 -0.5154 -0.0940
54489SOL     OW73396   9.299   7.070  11.758 -0.0177  0.1376 -0.6827
54489SOL    HW173397   9.284   6.996  11.699  0.4156  0.7667 -1.5948
54489SOL    HW273398   9.384   7.051  11.799 -1.8441 -2.0893  2.4919
54490SOL     OW73399   3.821   5.193   1.603 -0.0110 -0.3799 -0.3142
54490SOL    HW173400   3.803   5.150   1.687  1.3973  0.6020  0.5402
54490SOL    HW273401   3.888   5.259   1.624  0.0457  0.1916 -2.1322
54491SOL     OW73402   9.988   9.569   5.739 -0.2117  0.1668  0.0575
54491SOL    HW173403   9.939   9.649   5.719  1.0257  0.9776  0.1694
54491SOL    HW273404   9.921   9.501   5.746 -1.2016  1.0027 -0.9836
54492SOL     OW73405   3.957  11.370   9.055  0.0450  0.1511  0.2191
54492SOL    HW173406   3.896  11.356   8.982 -1.2903 -0.2861  1.3792
54492SOL    HW273407   4.002  11.452   9.033 -0.1124 -0.1263 -1.2269
54493SOL     OW73408  13.020   4.079  10.168  0.3034  0.1249 -0.2038
54493SOL    HW173409  13.103   4.072  10.121  1.5409  2.2491  1.4940
54493SOL    HW273410  12.954   4.084  10.099  1.6564 -0.6045 -1.6075
54494SOL     OW73411  12.600  11.441  13.101  0.7433 -0.1302 -0.6583
54494SOL    HW173412  12.556  11.374  13.048 -1.7501  0.5584  0.4184
54494SOL    HW273413  12.537  11.513  13.105  2.4968  1.4283  0.0003
54495SOL     OW73414   2.732  13.305  10.467 -0.3941  0.4188 -0.6439
54495SOL    HW173415   2.694  13.219  10.484 -0.3273  0.6201  0.6208
54495SOL    HW273416   2.660  13.367  10.483 -0.3676  0.6178 -1.2695
54496SOL     OW73417   7.000   1.870   0.293 -0.0683  0.0567 -0.5929
54496SOL    HW173418   7.043   1.843   0.212  1.6554 -0.6058  0.5034
54496SOL    HW273419   7.047   1.948   0.321 -0.8762  0.4831 -0.3878
54497SOL     OW73420   7.305  10.716   5.872 -0.2855 -0.2351  0.1980
54497SOL    HW173421   7.368  10.706   5.801 -1.4308 -1.7589 -0.6636
54497SOL    HW273422   7.346  10.670   5.946  1.0545  1.6329  0.7047
54498SOL     OW73423   2.349   4.121   3.133 -1.2679  0.2657  0.5728
54498SOL    HW173424   2.294   4.146   3.207 -2.7166 -1.2972  0.0649
54498SOL    HW273425   2.289   4.080   3.071  0.5800 -2.5081  0.4399
54499SOL     OW73426   0.230   1.369   5.719  0.1627  0.1841 -0.1084
54499SOL    HW173427   0.250   1.289   5.767  0.2249  1.1341  1.5197
54499SOL    HW273428   0.279   1.437   5.764 -2.0848  1.6080  0.3555
54500SOL     OW73429   0.655   4.258   6.417  0.0763 -0.0756 -0.1727
54500SOL    HW173430   0.598   4.296   6.484  0.2203 -0.2499  0.0543
54500SOL    HW273431   0.697   4.184   6.461 -1.7175 -1.7879 -1.1921
54501SOL     OW73432   1.589   7.337   2.114  0.0733  0.0843 -0.0407
54501SOL    HW173433   1.602   7.420   2.068  0.0414 -0.1954 -0.5602
54501SOL    HW273434   1.517   7.294   2.068  0.5975 -0.5769 -0.2772
54502SOL     OW73435   2.262   9.800   4.406  0.4888  0.0655  0.1096
54502SOL    HW173436   2.325   9.776   4.474 -0.0398 -2.0965 -0.1059
54502SOL    HW273437   2.293   9.755   4.328 -0.1316  0.7433 -0.5442
54503SOL     OW73438   2.378   3.475   9.258 -0.2492  0.2234  0.3879
54503SOL    HW173439   2.335   3.433   9.332 -0.7812 -1.5770 -0.8848
54503SOL    HW273440   2.470   3.450   9.267  0.1297  1.8728  1.6273
54504SOL     OW73441  12.751  12.009   5.818  0.3621  0.2983 -0.1465
54504SOL    HW173442  12.847  12.017   5.819  0.4319 -0.0616  2.2471
54504SOL    HW273443  12.720  12.095   5.846 -0.0317  0.4077 -0.8981
54505SOL     OW73444   3.956  12.782   1.322  0.3788 -0.0872 -0.0079
54505SOL    HW173445   4.033  12.727   1.308  1.0191  1.0978 -1.2886
54505SOL    HW273446   3.983  12.846   1.387  0.1092 -0.3498  0.3675
54506SOL     OW73447  11.364  13.113   2.326 -0.2249  0.4375  0.3942
54506SOL    HW173448  11.351  13.202   2.361 -0.8977  0.8731 -0.8876
54506SOL    HW273449  11.445  13.083   2.366 -0.3755  1.3357  1.4362
54507SOL     OW73450   4.278   9.651  13.118 -0.2782  0.4533  0.1196
54507SOL    HW173451   4.344   9.636  13.050  0.4897  0.0529  0.9315
54507SOL    HW273452   4.200   9.608  13.084 -0.5876  2.1880 -1.5299
54508SOL     OW73453   1.009   3.134   2.580  0.3469 -0.2925 -0.5236
54508SOL    HW173454   0.943   3.164   2.643 -0.1128 -0.4156 -0.9452
54508SOL    HW273455   0.962   3.073   2.524  0.9657 -0.8255 -0.4680
54509SOL     OW73456  10.244   8.400   3.405  0.1900 -0.3541  0.2667
54509SOL    HW173457  10.329   8.376   3.368  0.7884 -0.4864  1.6959
54509SOL    HW273458  10.189   8.323   3.389  0.1327 -0.0441 -1.1905
54510SOL     OW73459   9.072   7.499   8.474 -0.2487 -0.8338  0.6243
54510SOL    HW173460   9.086   7.585   8.435 -1.3267 -0.2909  1.4000
54510SOL    HW273461   9.054   7.441   8.400 -0.0778 -0.2776  0.1434
54511SOL     OW73462   6.682   7.123   1.604  0.1799  0.4051 -0.1692
54511SOL    HW173463   6.726   7.196   1.560 -1.8891  1.8072 -0.0748
54511SOL    HW273464   6.608   7.102   1.547 -0.1902 -0.5314  0.6265
54512SOL     OW73465   6.643   7.366  12.689  0.3601 -0.0593 -0.2375
54512SOL    HW173466   6.633   7.275  12.660  0.2487 -0.3623  0.6854
54512SOL    HW273467   6.707   7.404  12.629  1.1635 -1.0506 -0.0395
54513SOL     OW73468   5.228   0.378   7.704  0.0819  0.2238  0.0416
54513SOL    HW173469   5.271   0.440   7.763 -1.4239  0.0886  1.3815
54513SOL    HW273470   5.206   0.429   7.626  2.0300  0.4341 -0.4027
54514SOL     OW73471   8.656   0.074   5.899  0.1689 -0.0390  0.4923
54514SOL    HW173472   8.585   0.091   5.960  0.0440 -0.1946  0.3933
54514SOL    HW273473   8.732   0.118   5.936 -0.2347  1.0820  0.0301
54515SOL     OW73474   6.584   3.418   2.792 -0.6362 -0.0762 -0.0615
54515SOL    HW173475   6.657   3.445   2.847  0.6004 -1.8487 -0.7783
54515SOL    HW273476   6.591   3.473   2.714 -0.3322  0.0473  0.0513
54516SOL     OW73477  10.957   5.880   1.500 -0.0921  0.1709  0.4776
54516SOL    HW173478  11.040   5.880   1.451 -0.1212  1.4882  0.4052
54516SOL    HW273479  10.958   5.796   1.547  1.1295  0.0149  0.2286
54517SOL     OW73480   9.258  12.628   6.500  0.1581 -0.6980  0.0007
54517SOL    HW173481   9.279  12.569   6.427 -0.4450  0.3932 -1.1011
54517SOL    HW273482   9.343  12.663   6.527  0.3780 -1.0044 -0.2821
54518SOL     OW73483   2.991   8.817  10.755 -0.4417 -0.0743 -0.2448
54518SOL    HW173484   3.017   8.753  10.821 -1.1962  1.1711  1.3391
54518SOL    HW273485   3.023   8.781  10.673 -1.1798 -2.6832  0.5010
54519SOL     OW73486   3.090   5.533   5.304 -0.4596  0.0964  0.4575
54519SOL    HW173487   3.097   5.507   5.212 -0.1465  0.2015  0.4495
54519SOL    HW273488   3.179   5.562   5.327 -0.9255  1.7561  0.2894
54520SOL     OW73489  10.801   7.562  11.209 -0.0124  0.0544 -0.2492
54520SOL    HW173490  10.742   7.487  11.214 -2.1185  1.4573 -1.8841
54520SOL    HW273491  10.808   7.580  11.115  1.8329  0.8864  0.0043
54521SOL     OW73492   7.103  11.763   8.524 -0.4101  0.4844  0.4361
54521SOL    HW173493   7.064  11.792   8.442 -1.0608 -0.4904  0.3701
54521SOL    HW273494   7.064  11.676   8.539  1.4466 -0.3607  0.5904
54522SOL     OW73495   1.845   5.519   1.957 -0.2733 -0.3783 -0.4140
54522SOL    HW173496   1.866   5.593   1.901  0.2160 -0.4505 -0.3332
54522SOL    HW273497   1.872   5.442   1.907 -0.7980 -0.5088 -0.5075
54523SOL     OW73498  11.104   4.974   6.129  0.6847  0.7858  0.4027
54523SOL    HW173499  11.191   5.003   6.101 -0.2720  3.2052 -0.2405
54523SOL    HW273500  11.076   5.040   6.192 -0.6639 -0.0435  0.7034
54524SOL     OW73501  10.505   0.334   2.410  0.6028 -0.2114 -0.0927
54524SOL    HW173502  10.450   0.306   2.483 -1.1235 -1.0183 -1.6229
54524SOL    HW273503  10.585   0.283   2.419 -0.4303 -1.8504  0.0838
54525SOL     OW73504   4.570   7.025   4.754 -0.1257  0.5971  0.3961
54525SOL    HW173505   4.514   7.070   4.691 -1.0857 -1.1857 -0.0851
54525SOL    HW273506   4.659   7.045   4.726 -0.5289  1.4243 -0.3439
54526SOL     OW73507  13.250   3.783   7.709 -0.2549  0.4923  0.1186
54526SOL    HW173508  13.344   3.772   7.698 -0.0677  1.9554 -0.0448
54526SOL    HW273509  13.216   3.795   7.620 -0.1448  2.7711  0.3170
54527SOL     OW73510   9.768   0.665   1.512 -0.3216  0.3385 -0.1327
54527SOL    HW173511   9.707   0.591   1.510  0.8419 -0.6791  0.9555
54527SOL    HW273512   9.728   0.727   1.574 -1.2254  0.5849 -0.9389
54528SOL     OW73513   6.403  11.138  12.645  0.3801  0.0709 -0.5117
54528SOL    HW173514   6.497  11.123  12.649  0.3898  0.0722 -0.7074
54528SOL    HW273515   6.363  11.052  12.656  0.2506  0.4854  3.9021
54529SOL     OW73516   9.664   1.440  13.263 -0.8812  0.3506 -0.0347
54529SOL    HW173517   9.637   1.486  13.342  0.7376  0.1537  0.6655
54529SOL    HW273518   9.730   1.377  13.293 -0.1243  0.3845 -1.5527
54530SOL     OW73519   9.598  13.288   3.771 -0.1245 -0.1237  0.0300
54530SOL    HW173520   9.539  13.281   3.846 -0.9851  0.8687 -0.5299
54530SOL    HW273521   9.632  13.199   3.760 -1.8376 -0.8375  0.1209
54531SOL     OW73522  10.429   4.193   5.079  0.4551  0.5160  0.0809
54531SOL    HW173523  10.410   4.262   5.144 -1.5238 -0.0345  0.1364
54531SOL    HW273524  10.398   4.229   4.996  0.3436  0.0864 -0.0638
54532SOL     OW73525   2.661   1.856   6.931  0.7086 -0.1476 -0.2901
54532SOL    HW173526   2.610   1.792   6.882  1.7384  0.2486 -1.9582
54532SOL    HW273527   2.600   1.893   6.994 -1.0593  0.1936 -2.1026
54533SOL     OW73528   9.432   2.896   1.590 -0.0227  0.5186 -0.5393
54533SOL    HW173529   9.418   2.925   1.679 -0.2432 -0.3518 -0.2804
54533SOL    HW273530   9.385   2.813   1.583  2.7692 -1.2315 -0.3942
54534SOL     OW73531   2.705   5.745  12.492 -0.6546  0.2045 -0.2767
54534SOL    HW173532   2.789   5.775  12.456  0.3176  0.1010  1.7432
54534SOL    HW273533   2.647   5.821  12.484  0.8427  1.6928  1.8735
54535SOL     OW73534   5.530  11.308   2.493  0.5787 -0.2433  0.2679
54535SOL    HW173535   5.435  11.309   2.490  0.5880  1.0489 -0.5126
54535SOL    HW273536   5.554  11.216   2.476 -0.5273 -1.0855  2.8713
54536SOL     OW73537   3.532  12.766   4.702 -0.5284 -0.0544 -0.0684
54536SOL    HW173538   3.463  12.700   4.698  0.0576 -0.6474 -0.8617
54536SOL    HW273539   3.550  12.777   4.796  0.4271 -2.1954  0.0515
54537SOL     OW73540  11.603   4.343   0.704 -0.2133  0.2813 -0.3364
54537SOL    HW173541  11.684   4.297   0.728  0.0362  0.3898 -0.9479
54537SOL    HW273542  11.613   4.429   0.745 -0.0926  0.2421 -0.2792
54538SOL     OW73543   4.174  12.588   7.364  0.0307 -0.2632 -0.2715
54538SOL    HW173544   4.153  12.549   7.448 -0.4635 -1.1425 -0.7880
54538SOL    HW273545   4.187  12.514   7.305  0.1562  0.3362 -1.0208
54539SOL     OW73546   9.259  12.501   1.384 -0.3387 -0.3571 -0.4455
54539SOL    HW173547   9.343  12.514   1.339 -0.0543 -0.1844  0.1193
54539SOL    HW273548   9.195  12.496   1.314 -0.3030  2.6703 -0.8283
54540SOL     OW73549   9.561  13.150   7.328 -0.2010 -0.6336  0.2116
54540SOL    HW173550   9.474  13.187   7.335  0.0936  0.0852  0.1461
54540SOL    HW273551   9.601  13.195   7.253  0.5900 -0.1775  0.8844
54541SOL     OW73552   5.292   2.617   1.078 -0.3931  0.1773 -0.0851
54541SOL    HW173553   5.227   2.551   1.102  1.2055 -1.6872 -0.5756
54541SOL    HW273554   5.375   2.568   1.074  0.6040  1.8656 -2.1131
54542SOL     OW73555   4.485   4.403  10.681 -0.0402  0.4435 -0.2861
54542SOL    HW173556   4.443   4.480  10.720  0.7057  0.2345  1.0052
54542SOL    HW273557   4.422   4.332  10.695 -0.1951  0.5686 -0.3441
54543SOL     OW73558   5.698   1.181   2.886  0.3761 -0.2185 -0.0620
54543SOL    HW173559   5.758   1.122   2.842  0.8701 -0.0232  0.3344
54543SOL    HW273560   5.653   1.126   2.950 -1.0724 -0.7255 -1.4482
54544SOL     OW73561   9.344  11.822  11.197 -0.2456  0.2009 -0.1160
54544SOL    HW173562   9.385  11.791  11.278  0.1928  0.2273 -0.3224
54544SOL    HW273563   9.337  11.917  11.209  1.6031  0.4710 -0.8774
54545SOL     OW73564   6.745  11.439   0.245 -0.1106  0.1267  0.1212
54545SOL    HW173565   6.712  11.349   0.248  2.4939 -0.9271  0.3985
54545SOL    HW273566   6.718  11.471   0.159  1.1414 -1.9527 -1.1636
54546SOL     OW73567   2.088   9.377   7.302  0.5682 -0.4669 -0.3786
54546SOL    HW173568   2.149   9.451   7.292 -1.3062  1.0729 -0.9169
54546SOL    HW273569   2.001   9.416   7.292 -0.4885 -2.7905 -0.7806
54547SOL     OW73570   9.766  12.207   5.176  0.1252  0.4401 -0.2411
54547SOL    HW173571   9.713  12.270   5.127  0.6498  0.5817 -0.6266
54547SOL    HW273572   9.802  12.148   5.110  0.4364  0.3361  0.0174
54548SOL     OW73573  12.138   1.656   1.670 -0.2746 -0.7473 -0.4646
54548SOL    HW173574  12.049   1.676   1.641  0.0824 -0.3123 -1.3032
54548SOL    HW273575  12.193   1.714   1.617  0.4576 -0.5056  0.5474
54549SOL     OW73576   0.685  12.980   0.459 -0.0714  0.3416 -0.4045
54549SOL    HW173577   0.636  13.060   0.477 -0.6874 -0.3797  1.3300
54549SOL    HW273578   0.629  12.910   0.492  1.2951 -0.6644 -0.1405
54550SOL     OW73579  10.292   8.765   6.071  0.0960 -0.0425  0.3487
54550SOL    HW173580  10.320   8.681   6.033 -0.1408 -0.0902  0.2819
54550SOL    HW273581  10.302   8.828   5.999 -2.1967 -0.4668 -0.4025
54551SOL     OW73582  12.638  10.627   6.036 -0.6186  0.1051 -0.1320
54551SOL    HW173583  12.585  10.705   6.021 -0.3298  0.3759  0.2568
54551SOL    HW273584  12.579  10.567   6.081 -0.7661  0.1906 -0.2103
54552SOL     OW73585   7.340   5.617   1.508  0.0818 -0.7743 -0.4246
54552SOL    HW173586   7.383   5.677   1.569 -0.4366 -1.3963  0.5705
54552SOL    HW273587   7.352   5.658   1.422  0.6046  0.2470  0.1163
54553SOL     OW73588  12.359  13.088   9.297  0.2286  0.1490 -0.1268
54553SOL    HW173589  12.437  13.063   9.347  0.9583  0.8268 -0.8959
54553SOL    HW273590  12.353  13.182   9.307 -1.7457 -0.1077  1.6617
54554SOL     OW73591   3.467   2.169   9.467  0.1870 -0.0244 -0.1962
54554SOL    HW173592   3.393   2.113   9.440 -0.1576 -0.2318  1.1394
54554SOL    HW273593   3.542   2.132   9.420 -0.1695 -1.1565  0.0885
54555SOL     OW73594   6.829   3.238   4.281 -0.5641  0.0483  0.1333
54555SOL    HW173595   6.858   3.155   4.245  0.1173 -0.1839  1.1785
54555SOL    HW273596   6.775   3.277   4.212  0.6469 -0.4033 -1.1012
54556SOL     OW73597   1.894   9.203   8.906  0.7583 -0.6890  0.3676
54556SOL    HW173598   1.855   9.145   8.841 -1.0476 -0.6718  1.3815
54556SOL    HW273599   1.979   9.163   8.926  1.1481 -0.9592 -1.5775
54557SOL     OW73600   2.669   5.245   0.633  0.1096  0.4448 -0.0197
54557SOL    HW173601   2.753   5.290   0.624  0.5535 -0.5396 -1.0820
54557SOL    HW273602   2.623   5.263   0.551  0.1524 -0.7184 -0.3217
54558SOL     OW73603  10.040   6.759  11.278 -0.2316 -0.2923 -0.0304
54558SOL    HW173604  10.001   6.812  11.347  1.6795 -1.9972  2.5533
54558SOL    HW273605  10.038   6.815  11.201 -3.5127  1.3078  1.0309
54559SOL     OW73606   9.057   0.054   9.410  0.4722  0.4123  0.1854
54559SOL    HW173607   9.072   0.148   9.425  1.6030  0.1847  0.5950
54559SOL    HW273608   9.144   0.020   9.388 -0.1215 -0.3451 -1.0933
54560SOL     OW73609   1.445   5.390   4.077  0.0533 -0.8922 -0.3672
54560SOL    HW173610   1.444   5.483   4.058  0.6868 -0.9034 -0.4897
54560SOL    HW273611   1.529   5.376   4.122 -0.1177 -1.3692 -0.1913
54561SOL     OW73612   5.983   5.197   2.120 -0.2589  0.5276 -0.4277
54561SOL    HW173613   6.054   5.187   2.057  0.6899 -0.0106  0.6781
54561SOL    HW273614   5.911   5.146   2.084  0.2685  0.2281 -1.0756
54562SOL     OW73615   6.879  12.159  10.929  0.3274  0.0082 -0.0597
54562SOL    HW173616   6.854  12.099  10.858 -1.2792  0.7376 -0.1623
54562SOL    HW273617   6.918  12.234  10.884 -0.2869  0.2767 -0.1577
54563SOL     OW73618   9.421   7.483   8.060 -0.0417  0.4450  0.3091
54563SOL    HW173619   9.342   7.466   8.111 -0.0154  1.1633  0.6077
54563SOL    HW273620   9.493   7.473   8.123  0.1503 -0.7290 -0.0852
54564SOL     OW73621   2.679  12.801   1.380  0.7406  0.1387  0.0095
54564SOL    HW173622   2.690  12.784   1.286  0.3454  2.0236 -0.4153
54564SOL    HW273623   2.726  12.730   1.422 -1.2930 -2.3258 -1.5532
54565SOL     OW73624   8.488   6.388   6.606  0.1378  0.1265 -0.6215
54565SOL    HW173625   8.407   6.339   6.617 -0.2062  0.5739 -1.1265
54565SOL    HW273626   8.546   6.329   6.559  0.5833 -0.6926  0.8803
54566SOL     OW73627   8.379  10.321   1.338  0.7085 -0.1308 -0.2843
54566SOL    HW173628   8.431  10.251   1.378  1.3814 -0.4207 -1.5997
54566SOL    HW273629   8.394  10.310   1.244 -1.1072  0.2844 -0.6490
54567SOL     OW73630   8.390   4.497   2.974 -0.1560  0.2017 -0.8526
54567SOL    HW173631   8.324   4.437   3.009 -0.4783  0.1192 -1.5892
54567SOL    HW273632   8.340   4.566   2.931  0.2333  0.4848 -0.8628
54568SOL     OW73633   8.775  12.222  12.006  0.1271 -0.1903 -0.4946
54568SOL    HW173634   8.813  12.221  12.094 -0.2293 -0.7698 -0.3413
54568SOL    HW273635   8.845  12.189  11.949  0.9419  1.7513 -0.6957
54569SOL     OW73636   1.172   0.390  10.339  0.2036  0.2482  0.4039
54569SOL    HW173637   1.100   0.327  10.338  1.9354 -1.8628  0.6536
54569SOL    HW273638   1.149   0.453  10.407 -1.5044 -0.2147  0.2838
54570SOL     OW73639   0.539   3.747  10.811  0.4159 -0.5781  0.0069
54570SOL    HW173640   0.558   3.656  10.837 -0.1393 -1.1278 -1.4124
54570SOL    HW273641   0.590   3.760  10.731 -0.0147  0.1385 -0.1596
54571SOL     OW73642   3.860  12.401   0.150  0.4972  0.0499 -0.7369
54571SOL    HW173643   3.883  12.331   0.211 -1.6005 -2.4535 -2.5884
54571SOL    HW273644   3.849  12.478   0.206  4.7356 -0.4564  1.1841
54572SOL     OW73645   1.532   2.419   0.191  0.2455 -0.3309  0.0448
54572SOL    HW173646   1.495   2.447   0.275 -1.1683 -0.1758 -0.5979
54572SOL    HW273647   1.465   2.443   0.127  1.3174 -0.4207 -1.1371
54573SOL     OW73648   3.513   6.457   9.583 -0.5944  0.3017  0.0760
54573SOL    HW173649   3.537   6.415   9.666 -2.3527  0.8035  0.8836
54573SOL    HW273650   3.431   6.415   9.557  0.4573 -0.6063 -2.0082
54574SOL     OW73651   9.950   6.563   3.564 -0.4372 -0.1965  0.3920
54574SOL    HW173652   9.959   6.543   3.658 -1.5390 -1.7897  0.2043
54574SOL    HW273653   9.993   6.489   3.521  1.0112  1.0531 -0.4024
54575SOL     OW73654  11.016   5.845  10.830  0.1879  0.3568  0.8141
54575SOL    HW173655  11.006   5.897  10.910  2.6376  1.0088  0.7976
54575SOL    HW273656  11.046   5.908  10.764  1.9092 -0.7724  0.4296
54576SOL     OW73657   4.297   6.551   4.358 -0.4966  0.7585  0.3504
54576SOL    HW173658   4.288   6.587   4.447 -1.3730 -0.9602  0.9971
54576SOL    HW273659   4.250   6.468   4.361  1.7596 -0.6496 -0.9704
54577SOL     OW73660   4.828  12.763  11.307 -0.0559  0.2854  0.3476
54577SOL    HW173661   4.922  12.779  11.295 -0.1547  0.3522 -0.3814
54577SOL    HW273662   4.824  12.680  11.354  0.3910  0.9375  1.5885
54578SOL     OW73663   5.003  12.560   3.489 -0.2536  0.4286 -0.3774
54578SOL    HW173664   5.013  12.513   3.406  1.1989 -0.3664  0.2119
54578SOL    HW273665   4.943  12.631   3.469  1.6797  1.5447 -2.6790
54579SOL     OW73666  10.781   9.558  12.396  0.2619  0.6087 -0.0683
54579SOL    HW173667  10.759   9.616  12.468  3.0001  0.6123  0.8784
54579SOL    HW273668  10.753   9.471  12.426 -0.1740  0.8553  0.2518
54580SOL     OW73669  12.804   9.228  10.022  0.0091  0.0445  0.3929
54580SOL    HW173670  12.732   9.167  10.002 -0.8702  1.2448 -0.2500
54580SOL    HW273671  12.795   9.297   9.957  2.6164 -0.4319 -0.5968
54581SOL     OW73672   3.105  10.009   0.153 -0.2014  0.0466  0.0199
54581SOL    HW173673   3.165  10.070   0.196 -1.9716  1.3220  0.8429
54581SOL    HW273674   3.056  10.064   0.091 -0.3094 -1.0198 -0.8650
54582SOL     OW73675   8.671   7.503   7.281  0.0992  0.4005  0.4041
54582SOL    HW173676   8.726   7.432   7.314 -0.7614 -1.2800 -1.5356
54582SOL    HW273677   8.657   7.481   7.189 -2.8553  1.3271  0.5342
54583SOL     OW73678   0.792   7.938   4.136 -0.1406  0.2079  0.3878
54583SOL    HW173679   0.855   8.004   4.167  0.6880 -0.2549 -0.2658
54583SOL    HW273680   0.735   7.922   4.211 -0.4606  1.7856  0.5130
54584SOL     OW73681   9.636   1.026   4.654 -0.1457 -0.2486 -0.2392
54584SOL    HW173682   9.664   0.981   4.733  0.3595  1.5385  0.6485
54584SOL    HW273683   9.696   0.996   4.586  0.0366 -1.0440  0.2578
54585SOL     OW73684  12.762   5.287   9.745 -0.7543  0.1949 -0.0530
54585SOL    HW173685  12.831   5.300   9.680 -1.3044 -0.0330 -0.6943
54585SOL    HW273686  12.794   5.216   9.801 -0.0995  0.6666  0.1768
54586SOL     OW73687  12.234   4.753   0.260  0.0819  0.2951  0.1198
54586SOL    HW173688  12.246   4.699   0.183  0.3949  0.1409  0.2757
54586SOL    HW273689  12.291   4.829   0.246  2.3281 -1.0292  1.4255
54587SOL     OW73690   7.335   1.307  11.094  0.1616  0.7762 -0.4758
54587SOL    HW173691   7.283   1.363  11.036 -1.4424  1.8384  1.8516
54587SOL    HW273692   7.273   1.241  11.125  0.7941  0.6721  0.5984
54588SOL     OW73693  12.905  10.552   4.784 -0.2075  0.5320  0.4775
54588SOL    HW173694  12.837  10.591   4.730 -1.5232 -0.4411  1.3376
54588SOL    HW273695  12.949  10.626   4.826  0.0812  1.2326 -1.0041
54589SOL     OW73696   3.989   1.334   2.176 -0.2439 -0.6413  0.5237
54589SOL    HW173697   3.973   1.333   2.081  0.7809  0.5872  0.3154
54589SOL    HW273698   3.903   1.351   2.214 -0.6349 -0.9757 -0.1874
54590SOL     OW73699   0.494  10.607   3.277  0.2696 -0.1545  0.2749
54590SOL    HW173700   0.445  10.560   3.344  0.9392 -1.3961 -0.0691
54590SOL    HW273701   0.428  10.656   3.228 -0.3054  0.2090  1.3695
54591SOL     OW73702   1.523  12.102  12.547  0.3478 -0.3977 -0.4845
54591SOL    HW173703   1.440  12.150  12.549  0.4563 -0.2254 -0.0243
54591SOL    HW273704   1.525  12.063  12.459  0.3623  0.6211 -0.9557
54592SOL     OW73705   5.233   0.425   0.461 -0.3203 -0.0777  0.3165
54592SOL    HW173706   5.261   0.516   0.475 -0.1460 -0.1939  0.7471
54592SOL    HW273707   5.303   0.386   0.409 -1.0634  0.4099 -1.1153
54593SOL     OW73708  12.762   9.809   2.525  0.0093 -0.3880 -0.1301
54593SOL    HW173709  12.757   9.797   2.620  2.3383  0.6355  0.2031
54593SOL    HW273710  12.673   9.794   2.494 -0.8293 -0.7025  2.2122
54594SOL     OW73711   4.707   9.224  11.931  0.5847 -0.3663 -0.3340
54594SOL    HW173712   4.786   9.235  11.984 -0.2338 -1.4226  1.1898
54594SOL    HW273713   4.719   9.140  11.887  0.7142 -0.0783 -0.8546
54595SOL     OW73714   3.181   4.941   8.512 -0.0052  0.1704  0.1759
54595SOL    HW173715   3.135   4.870   8.467 -0.3937  1.0127 -0.7914
54595SOL    HW273716   3.268   4.941   8.474  0.6478 -1.0168  1.5629
54596SOL     OW73717   4.401   8.616   5.075 -0.7230 -0.2185  0.4059
54596SOL    HW173718   4.430   8.533   5.039 -1.3852  0.3788 -1.6816
54596SOL    HW273719   4.473   8.645   5.130 -0.0289 -1.6614  0.3066
54597SOL     OW73720   8.388   8.905   9.090  0.0085  0.4191  0.4112
54597SOL    HW173721   8.430   8.945   9.166 -1.3373  0.7726  1.0117
54597SOL    HW273722   8.353   8.822   9.122 -1.4312  1.0208  0.4733
54598SOL     OW73723   8.236   3.378   3.987  0.0000  0.2798  0.0340
54598SOL    HW173724   8.260   3.465   3.955 -0.8945  0.1893 -0.9318
54598SOL    HW273725   8.244   3.385   4.083  0.3921  1.2736 -0.0539
54599SOL     OW73726  11.418   5.345   2.202  0.3028 -0.3530  0.0505
54599SOL    HW173727  11.368   5.264   2.215  1.4617 -0.8977  1.2769
54599SOL    HW273728  11.417   5.358   2.107 -1.6573 -0.6406 -0.0179
54600SOL     OW73729   6.114  10.769   7.272  0.0354  0.4436 -0.1338
54600SOL    HW173730   6.101  10.726   7.187 -1.3086  0.9330 -0.1992
54600SOL    HW273731   6.042  10.736   7.326  1.5976 -0.8645  1.2575
54601SOL     OW73732   3.661  10.790   8.327  0.3398  0.1543  0.1624
54601SOL    HW173733   3.595  10.748   8.381  0.7229  0.3542  0.7900
54601SOL    HW273734   3.672  10.730   8.252 -0.2198 -0.0946  0.2749
54602SOL     OW73735   1.689   5.664   5.265  0.5056  0.3500  0.3876
54602SOL    HW173736   1.761   5.606   5.240  2.7461  2.5552  1.3028
54602SOL    HW273737   1.686   5.659   5.361 -2.4677 -1.7227  0.3362
54603SOL     OW73738   4.976  11.658   3.136 -0.1908  0.0244  0.1078
54603SOL    HW173739   4.926  11.588   3.178 -0.5692 -1.6070 -2.7524
54603SOL    HW273740   4.923  11.736   3.147 -1.5142 -0.8808  0.3623
54604SOL     OW73741   5.701   1.146  11.886 -0.2721 -0.0661 -0.0117
54604SOL    HW173742   5.692   1.202  11.963 -1.0129 -0.0167 -0.1205
54604SOL    HW273743   5.779   1.093  11.902 -0.4151 -0.0429  0.7610
54605SOL     OW73744   4.922   6.492   4.900  0.0210 -0.2266  0.2689
54605SOL    HW173745   4.847   6.552   4.897 -0.2471 -0.5798 -0.2797
54605SOL    HW273746   4.977   6.527   4.970 -0.8212 -0.1671  0.9237
54606SOL     OW73747   9.822   9.154  12.639 -0.0584  0.0653  0.2761
54606SOL    HW173748   9.906   9.144  12.685 -0.2518  0.3690  0.7021
54606SOL    HW273749   9.786   9.235  12.674 -0.4224  0.0572 -0.0839
54607SOL     OW73750   3.598   8.952  11.828  0.2008  0.1242  0.3516
54607SOL    HW173751   3.655   8.875  11.837  1.2187  0.4289 -2.3640
54607SOL    HW273752   3.644   9.020  11.877 -0.5707 -0.8609  2.5569
54608SOL     OW73753   6.280   0.322  10.077  0.0776  0.3436  0.1317
54608SOL    HW173754   6.315   0.407  10.049  0.8890 -0.3451 -1.0076
54608SOL    HW273755   6.295   0.321  10.172 -0.2329  1.5878  0.2197
54609SOL     OW73756   2.888   5.799  11.622  0.3237 -0.3060  0.1589
54609SOL    HW173757   2.912   5.817  11.712  2.0177 -0.1959 -0.2787
54609SOL    HW273758   2.838   5.718  11.626  2.5071 -1.7112  1.0034
54610SOL     OW73759  11.432   1.070   3.821  0.3075 -0.3198  0.4466
54610SOL    HW173760  11.478   1.148   3.790  2.6955 -1.4851  0.8048
54610SOL    HW273761  11.404   1.093   3.910 -0.1839  0.5436  0.0842
54611SOL     OW73762   3.169   3.756  13.100  0.3190 -0.1877 -0.6270
54611SOL    HW173763   3.262   3.781  13.098  0.5188 -0.8772 -0.2695
54611SOL    HW273764   3.170   3.665  13.128 -0.6129  0.5367  2.0800
54612SOL     OW73765   5.397   7.551   2.148  0.0575  0.0869 -0.3477
54612SOL    HW173766   5.483   7.587   2.125 -0.0427 -0.2878 -1.3292
54612SOL    HW273767   5.369   7.604   2.223  1.3458 -0.0966  0.2796
54613SOL     OW73768   4.999   7.346   5.016  0.2071 -0.1959 -0.4178
54613SOL    HW173769   4.938   7.274   5.031  2.0405 -1.5208  1.1110
54613SOL    HW273770   5.040   7.362   5.101  1.4582  1.1458 -1.2164
54614SOL     OW73771   4.943   2.104   6.661  0.2692 -0.4114 -0.0589
54614SOL    HW173772   4.928   2.170   6.728 -0.0743  2.2342 -2.5584
54614SOL    HW273773   5.033   2.117   6.633  0.0499 -0.6398 -0.9195
54615SOL     OW73774   3.983   8.791   6.215 -0.2578 -0.3976 -0.1762
54615SOL    HW173775   3.904   8.776   6.267 -1.1989 -0.5766 -1.5985
54615SOL    HW273776   3.998   8.708   6.170 -0.7094  0.3512 -1.7904
54616SOL     OW73777   3.540   2.498   8.152  0.1268  0.5559 -0.5842
54616SOL    HW173778   3.467   2.451   8.112 -0.3333  0.4965  0.3067
54616SOL    HW273779   3.583   2.432   8.207  0.6632  0.6741 -0.8572
54617SOL     OW73780   8.395  12.080  12.254 -0.3622  0.1393 -0.0231
54617SOL    HW173781   8.462  12.012  12.247 -0.3090  0.2402 -0.5664
54617SOL    HW273782   8.414  12.140  12.182 -2.7304 -1.3613 -2.0418
54618SOL     OW73783   7.688   2.655   1.217 -0.6175 -0.2219 -0.0128
54618SOL    HW173784   7.729   2.633   1.134 -0.1138 -1.7685  0.6161
54618SOL    HW273785   7.624   2.723   1.195  0.8993  0.8498 -1.3248
54619SOL     OW73786   0.304   0.878   1.433 -0.1511  1.1466 -0.6034
54619SOL    HW173787   0.236   0.944   1.420  0.2959  1.6807 -0.2799
54619SOL    HW273788   0.386   0.924   1.413  0.3016  1.1389  1.0475
54620SOL     OW73789   1.882  13.011  12.288 -0.0505  0.1534 -1.2016
54620SOL    HW173790   1.975  12.987  12.288 -0.2151 -0.8055  1.4418
54620SOL    HW273791   1.851  12.985  12.374 -2.6057  1.2341 -1.7177
54621SOL     OW73792   6.909   1.103   1.085  0.1185  0.5240  0.3048
54621SOL    HW173793   6.863   1.167   1.030  0.7053  0.8431  0.1774
54621SOL    HW273794   6.965   1.055   1.024  0.1299  0.2925  0.4968
54622SOL     OW73795   8.325   0.817  10.513 -0.2006  0.8620  0.2756
54622SOL    HW173796   8.417   0.797  10.493 -0.5882 -0.8844  0.0410
54622SOL    HW273797   8.316   0.910  10.495  1.5094  1.0511  0.2289
54623SOL     OW73798   4.050   0.001   7.802 -0.0808  0.0182 -0.3209
54623SOL    HW173799   3.988  -0.004   7.729  0.6053  1.7085 -1.0504
54623SOL    HW273800   4.009   0.061   7.864  0.2293  0.1125 -0.2048
54624SOL     OW73801  11.298   9.504   1.653  0.0917  0.0731  0.2922
54624SOL    HW173802  11.211   9.517   1.690 -0.5018  0.0152 -1.0291
54624SOL    HW273803  11.314   9.410   1.663 -0.2356 -0.0113  0.0446
54625SOL     OW73804   1.408  13.118   5.778 -1.0298  0.0339 -0.3948
54625SOL    HW173805   1.467  13.182   5.818 -0.2980  2.1291 -4.3340
54625SOL    HW273806   1.321  13.159   5.783 -1.2821 -0.5899  0.6385
54626SOL     OW73807   9.660   2.221   4.645 -0.3957 -0.5502 -0.1584
54626SOL    HW173808   9.640   2.182   4.560  0.2238 -1.2061 -0.0061
54626SOL    HW273809   9.584   2.200   4.700 -0.4907 -0.7179 -0.3548
54627SOL     OW73810   3.721   2.100   0.043 -0.1217  0.5213  0.6943
54627SOL    HW173811   3.759   2.087   0.130 -1.2437 -1.0248  0.9976
54627SOL    HW273812   3.655   2.168   0.055  1.0038  1.6694  0.6168
54628SOL     OW73813   3.327   0.661   0.159 -0.3691 -0.2064 -0.2654
54628SOL    HW173814   3.265   0.683   0.228 -0.7848 -0.2369 -0.6237
54628SOL    HW273815   3.308   0.725   0.090  0.8159  0.5719  0.0988
54629SOL     OW73816   5.410  10.954   3.229  0.3435  0.5999 -0.2284
54629SOL    HW173817   5.334  11.006   3.203 -0.0614 -0.2993 -0.9033
54629SOL    HW273818   5.420  10.890   3.158 -0.8514 -2.0492  1.8286
54630SOL     OW73819   0.127   3.682  10.393  0.0338 -0.1816  0.0501
54630SOL    HW173820   0.147   3.589  10.391  0.8223 -0.0182 -0.1129
54630SOL    HW273821   0.165   3.713  10.475 -0.1292  0.0157  0.0511
54631SOL     OW73822   5.211   7.088   4.087 -0.3950  0.3858  0.1381
54631SOL    HW173823   5.163   7.087   4.170  1.0624 -1.1120  1.0153
54631SOL    HW273824   5.276   7.158   4.099  0.5634 -0.5699  0.7630
54632SOL     OW73825  11.381   1.246  10.008 -0.0965  0.0323 -0.0061
54632SOL    HW173826  11.364   1.186  10.080 -1.6984  1.1026  0.5775
54632SOL    HW273827  11.477   1.249  10.000  0.0443 -2.3635  0.0726
54633SOL     OW73828  10.466   3.325   9.345  0.1987 -0.3955  0.1441
54633SOL    HW173829  10.521   3.404   9.348  0.9096 -0.9111  1.6743
54633SOL    HW273830  10.396   3.342   9.407 -0.2569 -0.5605 -0.3164
54634SOL     OW73831   1.024  11.187   7.604  0.3558 -0.2322  0.1647
54634SOL    HW173832   0.984  11.100   7.611  1.4433 -0.8005 -0.5397
54634SOL    HW273833   1.083  11.192   7.679 -0.8736  0.5610  1.1320
54635SOL     OW73834   1.132   6.942   2.554 -0.0460  0.1401  0.0274
54635SOL    HW173835   1.086   7.011   2.603  2.5800  2.9041 -1.0574
54635SOL    HW273836   1.205   6.918   2.610 -0.3512 -1.0438 -0.0657
54636SOL     OW73837   4.493   9.904   0.930 -0.0112 -0.0581  0.5132
54636SOL    HW173838   4.423   9.954   0.972 -1.2243 -0.6079 -0.7674
54636SOL    HW273839   4.485   9.816   0.966  0.3369 -0.0006  0.7292
54637SOL     OW73840  11.275   7.598   5.609  0.2620 -0.3721  0.0791
54637SOL    HW173841  11.281   7.679   5.558 -1.3274 -0.6095 -0.5409
54637SOL    HW273842  11.357   7.594   5.659  1.9694 -0.1578 -2.5155
54638SOL     OW73843   4.710   4.115   8.580  0.1736 -0.8383 -0.0159
54638SOL    HW173844   4.664   4.119   8.496 -1.6573 -1.4704  0.9275
54638SOL    HW273845   4.687   4.029   8.616  2.3448 -1.3176  0.3863
54639SOL     OW73846   5.675   9.736   5.739  0.4298  0.0392 -0.2108
54639SOL    HW173847   5.688   9.701   5.651  0.2412 -0.3468 -0.0862
54639SOL    HW273848   5.761   9.728   5.781  0.7797  1.1305 -0.6709
54640SOL     OW73849  12.937   9.534   7.809  0.4676  0.2897  0.2819
54640SOL    HW173850  12.864   9.575   7.855 -0.2967  0.0199 -0.6580
54640SOL    HW273851  12.990   9.493   7.879 -0.6585 -0.1100  0.9252
54641SOL     OW73852  10.446   8.428   7.374 -0.1947  0.4634 -0.2156
54641SOL    HW173853  10.428   8.356   7.313  2.7099 -2.4627  2.0331
54641SOL    HW273854  10.519   8.475   7.334 -1.2000  1.3997 -1.0221
54642SOL     OW73855   1.165   0.839   1.852  0.2373  0.2773 -0.5314
54642SOL    HW173856   1.230   0.903   1.881 -0.0969  0.7890 -0.8860
54642SOL    HW273857   1.209   0.787   1.785  1.0968 -1.0655  1.0051
54643SOL     OW73858   5.349   7.330  12.831  0.2948 -0.9227  0.7910
54643SOL    HW173859   5.344   7.403  12.893 -0.3195 -0.0946 -0.2059
54643SOL    HW273860   5.411   7.360  12.764 -2.0946 -0.0832 -1.1555
54644SOL     OW73861   1.334   3.606   9.452  0.0850  0.2267  0.3075
54644SOL    HW173862   1.353   3.573   9.364 -0.7061  0.8711 -0.1208
54644SOL    HW273863   1.379   3.691   9.455  3.5454 -1.4745  1.9960
54645SOL     OW73864   5.473   3.415   8.219 -0.3810  0.2360 -0.6659
54645SOL    HW173865   5.389   3.389   8.257 -0.6272 -0.6945 -1.7963
54645SOL    HW273866   5.483   3.359   8.142  1.5998 -0.1724 -0.1713
54646SOL     OW73867   0.099  11.534   0.196  0.2728  0.0071  0.3189
54646SOL    HW173868   0.177  11.589   0.196 -0.0589  0.4847  0.5915
54646SOL    HW273869   0.101  11.488   0.112  1.3449 -0.7091  0.7148
54647SOL     OW73870  12.185  12.838  13.194 -0.2079  0.2962  0.0725
54647SOL    HW173871  12.148  12.830  13.106  0.4781  3.3700 -0.6271
54647SOL    HW273872  12.253  12.771  13.197 -0.0812  0.2649 -1.8632
54648SOL     OW73873  10.365  13.131  10.727  0.2984  0.5008 -0.4135
54648SOL    HW173874  10.426  13.128  10.653  0.9913 -0.1315  0.1716
54648SOL    HW273875  10.419  13.117  10.804 -0.6350 -0.5433  0.0882
54649SOL     OW73876   5.160   6.710  11.806  0.0019 -0.3727 -0.3880
54649SOL    HW173877   5.126   6.665  11.729  0.9037 -1.0036 -0.4405
54649SOL    HW273878   5.246   6.743  11.780 -0.2091  0.4942 -0.0251
54650SOL     OW73879   5.375   5.548   8.773 -0.2426 -0.4008 -0.6928
54650SOL    HW173880   5.285   5.570   8.750  0.2846  1.8203 -0.7952
54650SOL    HW273881   5.370   5.519   8.865 -1.0325 -0.0386 -0.6167
54651SOL     OW73882   2.926   5.371  10.847 -0.3086  0.1599  0.3322
54651SOL    HW173883   2.910   5.441  10.784 -1.9263  1.4492  2.0504
54651SOL    HW273884   2.868   5.300  10.821 -0.5271  0.4423  0.0452
54652SOL     OW73885   7.417   1.598   1.602  0.6339 -0.0961  0.5361
54652SOL    HW173886   7.424   1.623   1.694  0.1735 -0.8780  0.7897
54652SOL    HW273887   7.332   1.554   1.595  0.3176  0.6241 -0.4267
54653SOL     OW73888   7.229   1.268   8.729 -0.0372 -0.4960  0.4673
54653SOL    HW173889   7.233   1.173   8.737 -1.7405 -0.5983  0.5142
54653SOL    HW273890   7.251   1.285   8.637 -1.6554 -1.1398 -0.0853
54654SOL     OW73891  10.390   1.005   6.069 -0.0705  0.2461 -0.3595
54654SOL    HW173892  10.369   0.911   6.067  4.2486 -0.9708  0.4885
54654SOL    HW273893  10.415   1.026   5.979  1.0871 -0.0892 -0.1370
54655SOL     OW73894   7.750  12.157  11.645  0.0743  0.2178 -0.2836
54655SOL    HW173895   7.760  12.252  11.656 -0.3162  0.3633 -1.0841
54655SOL    HW273896   7.659  12.146  11.616  0.3569 -0.3254 -0.9963
54656SOL     OW73897  11.857   8.879   7.617  0.4534 -0.1232 -0.2389
54656SOL    HW173898  11.797   8.884   7.542 -0.1936  1.3901  0.3328
54656SOL    HW273899  11.904   8.797   7.604 -2.9965 -2.3881  0.2148
54657SOL     OW73900   9.550   6.381  12.658 -0.0823 -0.0557 -1.2349
54657SOL    HW173901   9.541   6.476  12.667  1.2161  0.0702 -1.1359
54657SOL    HW273902   9.475   6.356  12.603 -1.1831  0.8235 -0.1965
54658SOL     OW73903  10.137  12.712   7.981 -0.4211 -0.0105 -0.0047
54658SOL    HW173904  10.200  12.729   8.051  0.6717  0.7027 -1.1023
54658SOL    HW273905  10.057  12.756   8.009 -0.3161 -0.5766  1.2311
54659SOL     OW73906   0.538   7.321   6.796  0.0204  0.2948 -0.0899
54659SOL    HW173907   0.601   7.273   6.850  0.7515  1.7691  0.4054
54659SOL    HW273908   0.541   7.411   6.828 -1.1030  0.7669 -1.1916
54660SOL     OW73909  12.918   1.593   4.012  0.1713  0.5026  0.2202
54660SOL    HW173910  12.838   1.642   4.031 -1.0826 -1.3258 -0.1058
54660SOL    HW273911  12.918   1.585   3.917  0.8473  0.6260  0.2079
54661SOL     OW73912  12.355   4.340   5.920  0.0971  0.0178 -0.4412
54661SOL    HW173913  12.271   4.295   5.907 -0.6735  1.3667 -0.3246
54661SOL    HW273914  12.402   4.286   5.983 -0.1954 -1.3748 -1.3681
54662SOL     OW73915   3.666   8.190   4.277 -0.1244  0.1706 -0.4069
54662SOL    HW173916   3.747   8.153   4.243 -0.4165 -1.0498  0.1540
54662SOL    HW273917   3.603   8.177   4.206  0.3626  1.9724 -1.2096
54663SOL     OW73918   2.153   8.310  12.622  0.2629 -0.3051  0.0623
54663SOL    HW173919   2.081   8.327  12.684 -1.0169  0.3505 -1.5374
54663SOL    HW273920   2.111   8.267  12.548  1.6740 -0.5470 -0.6224
54664SOL     OW73921   0.215  11.560  10.316  0.1137  0.0228 -0.0506
54664SOL    HW173922   0.217  11.567  10.221  1.6199 -2.2855 -0.2628
54664SOL    HW273923   0.268  11.633  10.348 -1.1719  1.3748 -0.8688
54665SOL     OW73924   6.453   0.790   7.320 -0.0423  0.6296  0.0004
54665SOL    HW173925   6.413   0.706   7.343 -0.1060  0.7599  0.3590
54665SOL    HW273926   6.438   0.798   7.225 -0.6158  0.5442  0.0794
54666SOL     OW73927   0.200   9.760  11.488  0.0753 -0.3204  0.3142
54666SOL    HW173928   0.165   9.671  11.492  0.3662 -0.6044 -1.9900
54666SOL    HW273929   0.122   9.816  11.494 -0.3499 -0.8203 -0.3064
54667SOL     OW73930   4.117   3.656  10.868  0.0418 -0.0396 -0.5123
54667SOL    HW173931   4.176   3.696  10.931  0.5730 -0.5454 -0.6802
54667SOL    HW273932   4.103   3.723  10.801 -0.3906  0.4385  0.0486
54668SOL     OW73933  11.003   8.335   7.308  0.3359  0.0552 -0.0779
54668SOL    HW173934  10.943   8.277   7.260 -0.5784  0.6946  0.2656
54668SOL    HW273935  10.946   8.387   7.364  1.3209 -0.1263  1.1349
54669SOL     OW73936   3.500   3.622   6.867 -0.2431 -0.4409  0.1451
54669SOL    HW173937   3.539   3.656   6.786 -0.8899 -1.4438 -0.6128
54669SOL    HW273938   3.509   3.694   6.930 -0.0923  0.5141 -0.9304
54670SOL     OW73939   1.824   2.614  12.514  0.2236 -0.2993  0.1471
54670SOL    HW173940   1.750   2.556  12.532 -0.1702  0.5158  1.3027
54670SOL    HW273941   1.796   2.666  12.438 -0.8366  0.6830  1.1649
54671SOL     OW73942   7.027   8.898   7.925 -0.0133 -0.1582 -0.5648
54671SOL    HW173943   7.009   8.810   7.958  0.7516 -0.1166  0.0115
54671SOL    HW273944   6.942   8.934   7.903 -0.4746 -0.5223  0.5536
54672SOL     OW73945   3.010   7.287   4.966 -0.3539 -0.1678 -0.6766
54672SOL    HW173946   2.937   7.319   4.912 -0.4846 -1.6214 -1.4041
54672SOL    HW273947   3.062   7.234   4.906  0.9641  0.3131  0.0067
54673SOL     OW73948  10.437   1.866   9.726 -0.8702 -0.0431  0.9192
54673SOL    HW173949  10.436   1.840   9.634 -0.1910  1.2439  0.5119
54673SOL    HW273950  10.348   1.849   9.757 -0.4368 -2.9553  0.7954
54674SOL     OW73951   1.069   3.765   0.677  0.9726 -0.2530 -0.0072
54674SOL    HW173952   1.157   3.783   0.644  0.1604  1.8548 -1.1799
54674SOL    HW273953   1.062   3.817   0.757  0.9540 -0.8096  0.3558
54675SOL     OW73954  11.360   7.110   1.976 -0.0564  1.0769 -0.2674
54675SOL    HW173955  11.379   7.196   1.940  2.1785 -0.1291 -2.2689
54675SOL    HW273956  11.335   7.057   1.901  2.0650 -0.8457  0.2497
54676SOL     OW73957   5.896   0.309   5.325  0.0370  0.1380  1.0231
54676SOL    HW173958   5.982   0.271   5.307 -0.7102 -1.4565  0.6649
54676SOL    HW273959   5.897   0.327   5.419 -0.8416 -4.3577  2.0989
54677SOL     OW73960   4.909   6.173   0.648  0.1853  0.1434  0.1426
54677SOL    HW173961   4.957   6.139   0.724  0.6099  0.2625 -0.0662
54677SOL    HW273962   4.837   6.111   0.635 -0.1093  0.3222  0.8640
54678SOL     OW73963   8.550  12.020  13.010  0.2550  0.3571 -0.5546
54678SOL    HW173964   8.629  11.982  12.972 -0.4652 -0.2691 -1.5003
54678SOL    HW273965   8.577  12.104  13.045  1.2193  0.4140 -1.3981
54679SOL     OW73966   8.753   3.586  11.480 -0.3568  0.4966 -0.1165
54679SOL    HW173967   8.739   3.661  11.538 -1.9826  0.0558  0.0915
54679SOL    HW273968   8.702   3.515  11.519 -0.2152 -0.2490 -1.2375
54680SOL     OW73969   7.150   8.092   8.762 -0.2423 -0.3584  0.6122
54680SOL    HW173970   7.179   8.182   8.776 -0.9310 -0.2957  1.6918
54680SOL    HW273971   7.059   8.091   8.791 -0.7216 -1.0442 -0.8249
54681SOL     OW73972   8.710   0.651   1.136  0.3695  0.4708  0.1880
54681SOL    HW173973   8.735   0.576   1.190 -0.0442 -0.1837 -0.5043
54681SOL    HW273974   8.791   0.677   1.092  0.3572 -0.0894 -0.1796
54682SOL     OW73975   0.396  10.719   5.420  0.6440 -1.1306 -0.7351
54682SOL    HW173976   0.421  10.630   5.445  0.0945 -0.9804  0.4060
54682SOL    HW273977   0.352  10.709   5.335 -2.5342 -2.4641  0.9206
54683SOL     OW73978   6.499   8.092   0.717 -0.0978  0.2862  0.2868
54683SOL    HW173979   6.572   8.153   0.718  0.1240  0.1480 -2.0350
54683SOL    HW273980   6.537   8.007   0.738  0.1880  0.4208  0.3081
54684SOL     OW73981   2.378   8.824   2.872  0.0224 -0.2209  0.0564
54684SOL    HW173982   2.433   8.836   2.795  0.4765 -0.6439  0.3058
54684SOL    HW273983   2.291   8.852   2.845  0.5423  1.3705 -0.0657
54685SOL     OW73984   8.084   7.066   8.345  0.4146  0.1046  0.1095
54685SOL    HW173985   8.013   7.051   8.408  1.4998  0.7567  1.5453
54685SOL    HW273986   8.065   7.153   8.308  0.4399  0.2730  0.4819
54686SOL     OW73987   5.315   9.746   4.941 -0.1707  0.3883 -0.5344
54686SOL    HW173988   5.377   9.701   4.999 -2.1367 -2.0335 -0.1430
54686SOL    HW273989   5.369   9.807   4.891  2.1424  0.0388  1.3561
54687SOL     OW73990  12.322   6.608   9.285  0.0943  0.1976 -0.6141
54687SOL    HW173991  12.246   6.549   9.284  0.9203 -0.8752 -0.9860
54687SOL    HW273992  12.397   6.552   9.267  1.2505  0.9011  1.6160
54688SOL     OW73993   5.152   7.947   4.890  0.0896  0.4299  0.6652
54688SOL    HW173994   5.087   7.898   4.940  1.9524 -1.6227  1.2553
54688SOL    HW273995   5.112   7.961   4.804 -2.2510  1.9611  1.8968
54689SOL     OW73996  10.358   5.777   1.072 -0.0577  0.1395 -0.1545
54689SOL    HW173997  10.450   5.792   1.092 -0.0116  0.2589 -0.4518
54689SOL    HW273998  10.311   5.844   1.123  0.0309  0.1981 -0.1504
54690SOL     OW73999   1.986   9.350   4.930  0.3119  0.8796  0.2201
54690SOL    HW174000   1.982   9.441   4.960 -0.4562  0.9489 -0.0754
54690SOL    HW274001   1.929   9.348   4.854  1.0291  0.3467 -0.3134
54691SOL     OW74002  11.302  12.285   4.527 -0.2306  0.5862  0.4733
54691SOL    HW174003  11.266  12.197   4.513  0.6709  0.0685  1.3004
54691SOL    HW274004  11.256  12.340   4.464 -0.3163 -0.6068 -0.5336
54692SOL     OW74005  13.148  10.876   0.047 -0.4291  0.0073 -0.0494
54692SOL    HW174006  13.113  10.902   0.132 -0.0680  0.1439  0.0587
54692SOL    HW274007  13.090  10.806   0.018 -0.2091 -0.4469  0.5767
54693SOL     OW74008   6.834  12.937  11.470 -0.8053 -0.2785 -0.3436
54693SOL    HW174009   6.748  12.948  11.510 -0.1455  0.8146  0.8530
54693SOL    HW274010   6.820  12.872  11.400 -2.3235 -1.0545  0.6244
54694SOL     OW74011   7.231   3.654   4.555  0.1614  0.3509  0.6722
54694SOL    HW174012   7.153   3.653   4.610  0.8856  0.7226  1.7370
54694SOL    HW274013   7.224   3.575   4.502 -2.0137  1.4413 -0.8341
54695SOL     OW74014   0.543   5.463  13.130 -0.0985 -0.0039  0.5197
54695SOL    HW174015   0.524   5.541  13.076  0.0306 -0.2111  0.1699
54695SOL    HW274016   0.459   5.438  13.167 -0.1631  0.2275  0.5307
54696SOL     OW74017  11.690   5.848   0.039  0.0295 -0.2944  0.5026
54696SOL    HW174018  11.653   5.772   0.083  0.7787 -0.7317  0.4010
54696SOL    HW274019  11.663   5.923   0.092 -1.6117 -0.5126  0.0117
54697SOL     OW74020   9.166   1.564   0.789  0.9122 -0.7383  0.0014
54697SOL    HW174021   9.155   1.595   0.878 -0.7090  0.6925 -0.6525
54697SOL    HW274022   9.203   1.638   0.741  0.8593 -1.1653 -0.7295
54698SOL     OW74023   2.867  10.947   1.569 -0.2694 -0.2719  0.5319
54698SOL    HW174024   2.811  10.869   1.580 -0.7415 -0.0550 -0.2523
54698SOL    HW274025   2.828  11.012   1.627 -0.1969 -0.4535  0.7860
54699SOL     OW74026   3.975   2.693  12.073 -0.0521 -0.1789 -0.3130
54699SOL    HW174027   3.906   2.757  12.088 -0.8030 -1.1450  0.4983
54699SOL    HW274028   3.937   2.630  12.012 -0.6979 -1.8533  1.6993
54700SOL     OW74029   4.921   8.990  10.061 -0.0517  0.0404 -0.1488
54700SOL    HW174030   4.980   8.960   9.992 -1.9337 -0.5037 -1.6038
54700SOL    HW274031   4.923   9.086  10.055  0.2998  0.0122 -0.5149
54701SOL     OW74032  11.227   4.069   5.845 -0.2626 -0.4959 -0.1884
54701SOL    HW174033  11.249   4.156   5.876 -0.9377 -0.1720 -0.6013
54701SOL    HW274034  11.213   4.018   5.925 -0.5766 -0.0384  0.0527
54702SOL     OW74035   5.772   9.730  12.048  0.3038 -0.2856 -0.1033
54702SOL    HW174036   5.814   9.667  12.107  2.1604 -1.3071 -2.3276
54702SOL    HW274037   5.845   9.779  12.009 -0.6392 -0.6459 -2.5427
54703SOL     OW74038  10.359  12.287  11.718  0.3149  0.0138 -1.2750
54703SOL    HW174039  10.379  12.266  11.810  1.0247 -1.5385 -1.7546
54703SOL    HW274040  10.415  12.361  11.698 -0.2643  0.7447 -0.2941
54704SOL     OW74041  11.041  11.458   4.567 -0.0240 -0.2373 -0.3374
54704SOL    HW174042  11.092  11.379   4.548  0.9071  0.1639  0.4409
54704SOL    HW274043  11.035  11.503   4.482 -2.0416 -1.9385 -1.1880
54705SOL     OW74044   0.556  10.028   3.336 -0.2252  0.4720 -0.2306
54705SOL    HW174045   0.614   9.963   3.377  1.0126  1.7291  0.0797
54705SOL    HW274046   0.564  10.105   3.392 -0.8965  1.2280 -1.1528
54706SOL     OW74047  12.998   8.123  12.469 -0.0561 -0.5124  0.1570
54706SOL    HW174048  12.905   8.110  12.453 -0.6908  2.2930  1.0371
54706SOL    HW274049  13.033   8.151  12.384 -0.5935  0.9335  0.3821
54707SOL     OW74050   1.027  11.099   4.567 -0.1362 -0.4922 -0.0094
54707SOL    HW174051   0.956  11.157   4.592 -0.3896 -0.9714  0.4084
54707SOL    HW274052   1.046  11.049   4.646 -1.5743 -2.7142 -0.9745
54708SOL     OW74053   6.254  12.409  10.518  1.1581  0.7665 -0.5924
54708SOL    HW174054   6.286  12.441  10.602  2.8485  1.4266 -1.4403
54708SOL    HW274055   6.218  12.487  10.476  0.3240  0.4391 -0.4975
54709SOL     OW74056  13.206  10.235   6.800 -0.4181 -0.1797  0.0436
54709SOL    HW174057  13.250  10.319   6.811  1.3247 -1.2262  1.6278
54709SOL    HW274058  13.272  10.178   6.761  0.4419 -2.2396  3.9375
54710SOL     OW74059   1.055   5.224   1.865 -0.1805 -0.0347  0.4127
54710SOL    HW174060   1.095   5.157   1.920  2.0873  1.3501  0.5683
54710SOL    HW274061   1.007   5.174   1.798  2.0722 -1.8802  0.0287
54711SOL     OW74062   5.361  12.329   2.368  0.2831  0.2843 -0.1802
54711SOL    HW174063   5.341  12.415   2.405  0.8565  0.2629  0.1876
54711SOL    HW274064   5.276  12.294   2.342 -0.0988  0.4321  0.8315
54712SOL     OW74065  10.546   6.521   3.677 -0.3206  0.3867  0.5803
54712SOL    HW174066  10.529   6.497   3.586  0.8944  1.5034  0.0291
54712SOL    HW274067  10.546   6.438   3.724 -0.9534 -0.2074 -0.4364
54713SOL     OW74068   7.755   9.798  12.213 -0.6742  0.1134 -0.0711
54713SOL    HW174069   7.674   9.756  12.183 -0.9511  0.6050 -0.0106
54713SOL    HW274070   7.726   9.876  12.260 -0.2738 -0.7479  1.7084
54714SOL     OW74071   6.017   4.617  11.218 -0.4417 -0.0648  0.2065
54714SOL    HW174072   5.971   4.622  11.134  5.1234 -0.4650 -3.4216
54714SOL    HW274073   6.030   4.523  11.232  0.2028  0.0619  0.4833
54715SOL     OW74074   2.966   3.762   2.150 -0.1397  0.7065  0.3755
54715SOL    HW174075   2.915   3.843   2.157  0.0034  0.6891  1.8938
54715SOL    HW274076   2.911   3.696   2.192 -0.2273  0.0091 -0.8041
54716SOL     OW74077  10.405  11.043  10.265 -0.0314  0.1347 -0.4978
54716SOL    HW174078  10.459  11.122  10.274 -1.6233  1.3048 -0.7894
54716SOL    HW274079  10.399  11.030  10.170  0.7984 -0.7796 -0.4415
54717SOL     OW74080   9.895   9.923   9.160 -0.6237 -0.0946  0.5713
54717SOL    HW174081   9.802   9.900   9.158 -0.8006  0.3635  2.2885
54717SOL    HW274082   9.904   9.992   9.094 -1.0386 -1.5688 -1.1308
54718SOL     OW74083   1.049   6.149   5.313  0.4964  0.2992  0.4105
54718SOL    HW174084   0.981   6.147   5.380  0.1574 -0.7394  0.0581
54718SOL    HW274085   1.105   6.074   5.333 -0.2595 -0.7236 -1.0876
54719SOL     OW74086   0.451   5.830   2.877 -0.2376  0.5661  0.5862
54719SOL    HW174087   0.456   5.911   2.928  1.4488  0.3556  0.8001
54719SOL    HW274088   0.542   5.805   2.861 -0.6341  1.1294 -3.4499
54720SOL     OW74089   3.165   5.190   0.480  0.4047  0.1451 -0.3537
54720SOL    HW174090   3.104   5.146   0.540  1.4606 -0.2372  0.4556
54720SOL    HW274091   3.122   5.182   0.394 -0.0427 -1.3496 -0.0265
54721SOL     OW74092   7.776   3.527   1.338 -0.4762 -0.7281  0.2640
54721SOL    HW174093   7.805   3.523   1.429 -0.4764 -1.5945  0.2388
54721SOL    HW274094   7.704   3.465   1.333 -1.0937  0.0145 -0.1190
54722SOL     OW74095   2.659  10.783  11.877 -0.2272  0.4790  0.4994
54722SOL    HW174096   2.604  10.829  11.940 -1.6126 -0.4236 -0.0146
54722SOL    HW274097   2.670  10.696  11.913  3.4525  1.4115  2.1148
54723SOL     OW74098   5.957   0.454   4.932  0.0950  0.3230 -0.7837
54723SOL    HW174099   5.969   0.463   5.026  2.3563 -1.2885 -0.8445
54723SOL    HW274100   5.871   0.492   4.915 -0.3938  0.6025  1.9215
54724SOL     OW74101  10.196   9.307   6.405 -0.0585 -0.3548  0.2794
54724SOL    HW174102  10.119   9.290   6.459 -0.7101 -0.5865 -0.6977
54724SOL    HW274103  10.261   9.342   6.467 -0.9206 -0.1974  1.1287
54725SOL     OW74104   4.554   4.360  12.627  0.1333 -0.3113  0.3534
54725SOL    HW174105   4.594   4.325  12.547 -0.2547 -1.3044  0.5782
54725SOL    HW274106   4.461   4.347  12.614  0.0140  0.2072  0.6660
54726SOL     OW74107   7.813   8.132  12.421  0.2732  0.5847 -0.7612
54726SOL    HW174108   7.841   8.199  12.482 -0.6016  0.8481 -0.6398
54726SOL    HW274109   7.852   8.051  12.454 -0.7442  0.6035  0.5460
54727SOL     OW74110   9.006   7.272   3.434  0.1597  0.1407 -0.0997
54727SOL    HW174111   8.969   7.200   3.484 -1.7496  0.9818 -0.2214
54727SOL    HW274112   8.932   7.312   3.389  1.8210 -1.1878 -4.5446
54728SOL     OW74113   8.625   9.119   2.510 -0.3660  0.2165  0.2696
54728SOL    HW174114   8.581   9.123   2.425  0.0347 -0.4161  0.0221
54728SOL    HW274115   8.687   9.047   2.501  0.1364  0.5609  0.8834
54729SOL     OW74116  12.551   8.921   1.299  0.0897  0.1228  0.0743
54729SOL    HW174117  12.544   8.979   1.223 -1.9108 -1.0646 -0.7180
54729SOL    HW274118  12.580   8.837   1.264  1.3378  0.1476  0.9748
54730SOL     OW74119   3.765   3.477   6.225  0.3413  0.6262 -0.2608
54730SOL    HW174120   3.670   3.466   6.230  0.3969 -0.2423 -0.8624
54730SOL    HW274121   3.798   3.391   6.199  1.3481  0.7616  0.4901
54731SOL     OW74122  11.550   7.101   7.410  0.0951 -0.2015 -0.2078
54731SOL    HW174123  11.467   7.102   7.458  0.9659  2.5857  1.4553
54731SOL    HW274124  11.550   7.016   7.365 -3.0799 -0.8099  0.6626
54732SOL     OW74125  10.543  12.343   7.327 -0.1306 -0.8303 -0.1691
54732SOL    HW174126  10.612  12.368   7.265 -1.4251  0.2161 -1.2413
54732SOL    HW274127  10.519  12.254   7.302 -1.0237 -0.2206 -1.5718
54733SOL     OW74128   8.923   9.841   6.905 -0.0775  0.2663 -0.4716
54733SOL    HW174129   8.889   9.911   6.960  0.0174  0.8209 -1.0982
54733SOL    HW274130   8.944   9.770   6.965 -0.7650  0.5423  0.1083
54734SOL     OW74131  10.814   7.650   6.662 -0.3261 -0.2834 -0.3122
54734SOL    HW174132  10.745   7.696   6.613 -0.8577 -0.4039  0.3000
54734SOL    HW274133  10.868   7.609   6.595 -0.6450  0.1078 -0.8207
54735SOL     OW74134   9.796   0.201  10.489  0.3181 -0.0531  0.1904
54735SOL    HW174135   9.740   0.193  10.412 -0.3194  0.3308  0.6038
54735SOL    HW274136   9.849   0.122  10.489 -0.4881 -0.5989 -0.0002
54736SOL     OW74137  12.633   7.467   7.369 -0.6914 -0.6500  0.5954
54736SOL    HW174138  12.710   7.519   7.346 -0.6923 -0.9623 -0.1521
54736SOL    HW274139  12.649   7.440   7.460 -0.1573 -0.2923  0.6123
54737SOL     OW74140   2.914   3.598   7.460 -0.0846 -0.1004  0.1955
54737SOL    HW174141   2.979   3.540   7.420  1.2696  1.7022 -0.3365
54737SOL    HW274142   2.965   3.666   7.503 -1.6145  0.2442  1.5836
54738SOL     OW74143   6.936   5.237   9.880 -0.4086  0.4401  0.2892
54738SOL    HW174144   6.969   5.149   9.860 -1.0718  0.1214  0.5499
54738SOL    HW274145   6.930   5.280   9.795 -2.9052 -0.7882 -0.2590
54739SOL     OW74146   2.847   0.575  12.760  0.2406 -0.6128  1.0205
54739SOL    HW174147   2.879   0.634  12.828  0.8364  0.1732  0.0975
54739SOL    HW274148   2.757   0.554  12.786 -0.1473  1.0737  1.1529
54740SOL     OW74149   4.768   4.874   0.567 -0.6912  0.2805 -0.1034
54740SOL    HW174150   4.755   4.824   0.486 -0.5146 -1.9037  1.1314
54740SOL    HW274151   4.809   4.956   0.539  1.4789 -1.3540 -2.0180
54741SOL     OW74152  11.960   3.269   1.314 -0.1393 -0.9249  0.6330
54741SOL    HW174153  11.982   3.337   1.378 -2.6338 -0.3774  1.0227
54741SOL    HW274154  11.993   3.188   1.353  0.8770 -0.2438  1.2426
54742SOL     OW74155   9.152   7.885   6.613 -0.0622  0.3324  0.0854
54742SOL    HW174156   9.118   7.950   6.674  0.3273  0.6219 -0.0006
54742SOL    HW274157   9.248   7.893   6.620 -0.0033 -0.6914  0.5629
54743SOL     OW74158   1.507   2.985   4.529  0.2662  0.0150 -0.1736
54743SOL    HW174159   1.419   3.017   4.510  1.3316  1.1053 -4.0552
54743SOL    HW274160   1.519   3.003   4.623 -1.8745  4.4324 -0.4920
54744SOL     OW74161  12.213   6.160   9.534  0.4036 -0.6116  0.2866
54744SOL    HW174162  12.122   6.179   9.511 -0.0256 -0.9547  1.6281
54744SOL    HW274163  12.217   6.064   9.539  1.3359 -0.7130 -1.6407
54745SOL     OW74164   4.201   0.484   9.642 -0.5662 -0.1590  0.2563
54745SOL    HW174165   4.180   0.527   9.560  1.2322 -2.7558 -1.7459
54745SOL    HW274166   4.290   0.513   9.663  0.5834 -2.4558 -1.0039
54746SOL     OW74167   1.395   2.191   9.968 -0.0212  0.6219 -0.2783
54746SOL    HW174168   1.339   2.269   9.975 -0.3418  0.2698  1.5698
54746SOL    HW274169   1.364   2.146   9.890 -1.1744  1.3320 -0.2559
54747SOL     OW74170   4.350   8.752  12.816  0.2297  0.3923  0.0213
54747SOL    HW174171   4.377   8.739  12.906  0.3541 -2.9907 -0.3696
54747SOL    HW274172   4.254   8.758  12.820  0.3639  3.6881  0.5922
54748SOL     OW74173   2.338  11.439   0.370  0.2749 -0.3644 -0.4592
54748SOL    HW174174   2.350  11.427   0.465 -0.8503  0.8146 -0.1364
54748SOL    HW274175   2.321  11.351   0.336 -0.5833 -0.6474  0.6407
54749SOL     OW74176   6.435   6.658   1.667 -0.1318 -0.0252  0.1838
54749SOL    HW174177   6.450   6.722   1.736  0.6565  1.4842 -1.3229
54749SOL    HW274178   6.506   6.672   1.605 -1.3970 -0.5738 -1.4648
54750SOL     OW74179   9.851   9.756  12.982 -0.2935 -0.0561  0.6544
54750SOL    HW174180   9.789   9.717  13.043 -0.0942 -2.0285 -0.3145
54750SOL    HW274181   9.858   9.848  13.009 -1.7263 -0.3900  2.2978
54751SOL     OW74182  10.309   4.572   7.216 -0.2115 -0.1161  0.0866
54751SOL    HW174183  10.372   4.586   7.287 -2.6002  0.9186  2.1532
54751SOL    HW274184  10.259   4.654   7.212 -1.1932 -0.7547 -1.7157
54752SOL     OW74185   0.098   3.079   4.631 -0.0111 -0.5180  0.0510
54752SOL    HW174186   0.146   3.020   4.689  0.1460  0.2378  0.7059
54752SOL    HW274187   0.026   3.112   4.685 -0.0796 -0.0914 -0.2933
54753SOL     OW74188  13.314   6.658   5.419  0.2492 -0.5094  0.0573
54753SOL    HW174189  13.223   6.681   5.435  0.2678 -0.0923 -0.4192
54753SOL    HW274190  13.341   6.611   5.498  0.4361  1.7233  1.3977
54754SOL     OW74191   7.563   5.130  12.172 -0.0260  0.7602 -0.0017
54754SOL    HW174192   7.501   5.144  12.244  0.4424  0.7928  0.4041
54754SOL    HW274193   7.648   5.125  12.215  0.3431  1.4748 -0.6234
54755SOL     OW74194   3.901   9.475   6.308  0.4726  0.0621  0.8647
54755SOL    HW174195   3.924   9.385   6.330  1.2061  0.5372  2.2096
54755SOL    HW274196   3.911   9.523   6.391 -0.3497  1.2944  0.2897
54756SOL     OW74197   0.572  12.846   2.355 -0.0842  0.0945 -0.5202
54756SOL    HW174198   0.664  12.824   2.340 -0.1591 -2.4300  1.9398
54756SOL    HW274199   0.570  12.879   2.445 -1.4570  1.3697 -0.9750
54757SOL     OW74200  12.410   1.488   5.712  0.1609  0.1110 -0.0781
54757SOL    HW174201  12.336   1.549   5.704  0.3577  0.0328 -3.8694
54757SOL    HW274202  12.389   1.417   5.652  2.0428 -1.3574  0.9288
54758SOL     OW74203   1.548   0.071   9.440  0.6465  0.0685 -0.1753
54758SOL    HW174204   1.618   0.134   9.455 -0.1691  0.4404  2.6278
54758SOL    HW274205   1.588  -0.014   9.460  0.6697  0.1308  0.0429
54759SOL     OW74206   4.154   2.280  11.068  0.0814  0.5522 -0.8452
54759SOL    HW174207   4.236   2.241  11.101  0.7706  1.1035 -1.8622
54759SOL    HW274208   4.124   2.219  11.001 -0.0536  0.6332 -0.8582
54760SOL     OW74209   6.566  12.204   1.816 -0.0351 -0.0365 -0.3279
54760SOL    HW174210   6.653  12.199   1.778 -0.4021  0.0937 -1.2190
54760SOL    HW274211   6.538  12.295   1.804  0.1612  0.2355  1.0368
54761SOL     OW74212   6.643   5.224   7.395  0.5226 -0.3999  0.1867
54761SOL    HW174213   6.593   5.219   7.476  1.6742  0.2964  0.9559
54761SOL    HW274214   6.689   5.140   7.389 -1.4710 -1.5022 -1.0757
54762SOL     OW74215   1.780   3.044   9.425 -0.4557 -0.4892 -1.0046
54762SOL    HW174216   1.730   2.983   9.479 -0.1023 -0.8701 -1.1027
54762SOL    HW274217   1.774   3.127   9.472  1.3873 -1.1991  0.6343
54763SOL     OW74218   7.361  10.978  11.708  0.6466 -0.6603  0.1552
54763SOL    HW174219   7.373  10.951  11.799  2.9519  0.9944  0.4203
54763SOL    HW274220   7.279  10.936  11.682 -0.9225 -0.0100  3.4404
54764SOL     OW74221   0.040   1.827   2.930  0.3770  0.0813 -0.1441
54764SOL    HW174222   0.042   1.922   2.943 -1.2900  0.0997  0.1181
54764SOL    HW274223  -0.052   1.805   2.920  0.6236 -1.6611  0.9279
54765SOL     OW74224   1.857   4.213   8.284 -0.8200 -0.1132  0.1252
54765SOL    HW174225   1.770   4.190   8.318 -0.9694 -0.5278 -0.5048
54765SOL    HW274226   1.854   4.187   8.192  0.3801 -1.2519  0.3812
54766SOL     OW74227  11.975   2.884  12.787 -0.4805  0.1977  0.2473
54766SOL    HW174228  11.945   2.805  12.832  1.3016 -0.0326  1.0934
54766SOL    HW274229  11.986   2.857  12.695  0.8144 -0.7703  0.6620
54767SOL     OW74230   1.480   3.477  11.528  0.0579  0.2691 -0.0012
54767SOL    HW174231   1.499   3.528  11.448 -0.7801  0.0947 -0.3212
54767SOL    HW274232   1.526   3.394  11.514  0.6781  0.5847  0.1167
54768SOL     OW74233   7.247   3.485  11.271 -0.0017 -0.2289  0.3683
54768SOL    HW174234   7.222   3.559  11.327 -2.8800 -1.0006  0.2581
54768SOL    HW274235   7.298   3.428  11.328  0.2574  0.7514  1.1365
54769SOL     OW74236  11.940   8.327   7.284  0.0507 -0.2565  0.4437
54769SOL    HW174237  11.967   8.383   7.211  2.6988  1.3435  2.4446
54769SOL    HW274238  11.954   8.238   7.252  0.7010  0.3853 -1.1627
54770SOL     OW74239  13.223  11.510   1.314 -0.3920 -0.0639 -0.2267
54770SOL    HW174240  13.264  11.429   1.346  0.4717  0.3909 -0.1631
54770SOL    HW274241  13.195  11.489   1.225  0.9559 -0.0622 -0.6677
54771SOL     OW74242  12.561   2.935  13.080 -0.0847 -0.0449 -0.7781
54771SOL    HW174243  12.515   2.935  12.996 -0.8135 -1.0731 -0.3962
54771SOL    HW274244  12.494   2.952  13.145 -0.0364 -1.8452 -0.1879
54772SOL     OW74245   8.626   9.341  12.258  0.0556  0.6840 -0.5764
54772SOL    HW174246   8.643   9.254  12.293  0.2725  0.8083 -0.3666
54772SOL    HW274247   8.537   9.337  12.224 -0.3336  0.7053  0.4333
54773SOL     OW74248   3.306   0.083   7.862  0.4358 -0.1705 -0.2145
54773SOL    HW174249   3.348   0.159   7.901  0.5600  0.1181 -0.9025
54773SOL    HW274250   3.226   0.071   7.914 -0.2512  1.2124 -0.8833
54774SOL     OW74251   2.933   1.942   8.992  0.3287 -0.1123  0.0185
54774SOL    HW174252   2.888   2.023   9.018 -0.8313 -1.0431  1.0468
54774SOL    HW274253   2.862   1.880   8.976  1.2238 -1.6568  1.7427
54775SOL     OW74254   6.319  12.249   0.952  0.5742 -0.1690  0.3633
54775SOL    HW174255   6.248  12.269   0.891 -0.3566 -0.2120  1.4152
54775SOL    HW274256   6.391  12.305   0.923 -0.3952  1.0710  0.2545
54776SOL     OW74257   8.141  10.885  11.122 -0.3515 -0.7363  0.1017
54776SOL    HW174258   8.222  10.868  11.074 -0.6038  0.7158 -0.9093
54776SOL    HW274259   8.170  10.930  11.202 -0.0707 -1.5891  0.4970
54777SOL     OW74260   6.564   6.820   1.843  0.4096  0.6019 -0.5981
54777SOL    HW174261   6.635   6.843   1.903  0.0169  1.5632 -0.4715
54777SOL    HW274262   6.538   6.904   1.804  0.5740  0.0230 -2.0318
54778SOL     OW74263   8.230   5.896  12.353 -0.1052  0.2465 -0.0289
54778SOL    HW174264   8.216   5.903  12.447  0.2878  0.1262  0.0391
54778SOL    HW274265   8.307   5.949  12.336 -0.5440  0.7879 -0.3806
54779SOL     OW74266   3.003  12.938   5.616 -0.4951  0.1518  0.4481
54779SOL    HW174267   2.979  12.939   5.709 -1.6041 -1.3303  0.2149
54779SOL    HW274268   2.989  12.847   5.589 -1.7677  0.8875 -1.5690
54780SOL     OW74269   7.576  10.700   7.437  0.1414  0.2649 -0.1880
54780SOL    HW174270   7.606  10.650   7.361 -0.5348  0.1319 -0.3757
54780SOL    HW274271   7.489  10.731   7.412 -0.2573 -0.1148  0.6848
54781SOL     OW74272   6.797   5.190  12.246  0.2730 -0.1196 -0.2656
54781SOL    HW174273   6.790   5.274  12.292  0.4670 -0.6491  0.7413
54781SOL    HW274274   6.729   5.135  12.285 -1.4904  0.2716 -2.5360
54782SOL     OW74275   9.964   1.313   1.303 -0.0539 -0.4308  0.3752
54782SOL    HW174276   9.975   1.248   1.234  0.9368 -0.3110  0.4146
54782SOL    HW274277  10.035   1.295   1.365 -0.0304  0.4093  0.6026
54783SOL     OW74278   6.077  12.688   5.680  0.2487 -0.5976 -0.0346
54783SOL    HW174279   6.021  12.761   5.708 -1.5277 -2.6184  2.1744
54783SOL    HW274280   6.145  12.682   5.747 -0.3419 -1.6530  0.5063
54784SOL     OW74281   1.639  11.700   3.164  0.3042 -0.1193  0.0020
54784SOL    HW174282   1.704  11.770   3.172  1.5831 -1.2481 -0.2321
54784SOL    HW274283   1.601  11.713   3.077 -1.5940  2.0076  1.0369
54785SOL     OW74284   2.249  11.540   9.615 -0.1956  0.7564 -0.1007
54785SOL    HW174285   2.332  11.570   9.651  0.0662 -1.1200  0.9948
54785SOL    HW274286   2.270  11.516   9.524  0.7322 -0.5974  0.4372
54786SOL     OW74287   7.567   0.218   6.257  0.4814 -0.0807 -0.1148
54786SOL    HW174288   7.492   0.191   6.310  1.8260 -0.0280  1.8950
54786SOL    HW274289   7.567   0.313   6.261 -0.8901  0.1009 -2.4338
54787SOL     OW74290   5.676   0.944   9.540 -0.0445  0.2143  0.2132
54787SOL    HW174291   5.763   0.972   9.569  0.1088  0.3032 -0.3205
54787SOL    HW274292   5.685   0.850   9.524  0.0729  0.3023 -0.2556
54788SOL     OW74293   2.197  12.197  11.026 -0.6994  0.2014 -0.1152
54788SOL    HW174294   2.192  12.128  11.092 -1.5621  0.4694  0.1049
54788SOL    HW274295   2.149  12.162  10.951  0.3674 -0.1467 -0.6591
54789SOL     OW74296   2.806  10.023  12.490  0.2492  0.1023  0.1507
54789SOL    HW174297   2.763   9.961  12.431 -0.8084  0.7177  0.2486
54789SOL    HW274298   2.899  10.014  12.469 -0.1342  0.9697 -2.3010
54790SOL     OW74299  11.462   3.342   9.752 -0.0913  0.1127  0.0604
54790SOL    HW174300  11.554   3.325   9.768 -0.1884  1.5385  2.5980
54790SOL    HW274301  11.416   3.278   9.806 -0.6505 -0.5343 -1.1233
54791SOL     OW74302   2.925   8.573  11.442 -0.5969 -0.2349  0.0488
54791SOL    HW174303   2.916   8.641  11.375 -0.4410  0.3408  0.5943
54791SOL    HW274304   3.007   8.528  11.420 -1.1801 -0.8842 -0.8652
54792SOL     OW74305   3.779   3.077   3.168  0.0097 -0.0983  0.4449
54792SOL    HW174306   3.789   3.071   3.072  1.1664 -1.3707  0.5988
54792SOL    HW274307   3.727   3.000   3.191 -0.8579  0.5824  0.7838
54793SOL     OW74308  11.118   7.671   5.223 -0.1188  0.3070 -0.1080
54793SOL    HW174309  11.176   7.600   5.200 -1.1414 -0.1082 -1.5610
54793SOL    HW274310  11.065   7.637   5.295  1.4531  0.7359  1.3094
54794SOL     OW74311  10.936   1.985   5.476  0.1252 -0.0696  0.1423
54794SOL    HW174312  10.868   2.049   5.452  0.3334  0.5719  1.1956
54794SOL    HW274313  10.887   1.910   5.508 -0.0986  0.0356  0.0560
54795SOL     OW74314   0.748   2.235  12.590  0.7854 -0.0579  0.6591
54795SOL    HW174315   0.703   2.306  12.543  0.3304 -1.5473 -1.2906
54795SOL    HW274316   0.705   2.232  12.675 -0.7077  0.5825 -0.0319
54796SOL     OW74317   6.722   2.154   8.213 -0.2796 -0.0759 -0.2758
54796SOL    HW174318   6.738   2.079   8.269  2.2531  0.8116  0.3573
54796SOL    HW274319   6.681   2.219   8.270  0.4626  0.1173  0.0532
54797SOL     OW74320   5.963   0.700   0.662  0.4035 -0.3111  0.6810
54797SOL    HW174321   6.029   0.651   0.614  0.8507  1.1430 -0.2820
54797SOL    HW274322   5.880   0.661   0.635  0.6694  0.2194 -1.0606
54798SOL     OW74323   3.524   0.978   0.496  0.1847 -0.1405 -0.0271
54798SOL    HW174324   3.618   0.996   0.501  0.2188 -0.6295  1.5122
54798SOL    HW274325   3.520   0.888   0.463  0.2215  0.0277 -0.5124
54799SOL     OW74326   9.608   7.325   7.471 -0.0511 -0.2148  0.0292
54799SOL    HW174327   9.675   7.328   7.538 -0.8266 -0.8257  0.8502
54799SOL    HW274328   9.573   7.414   7.467  0.8671  0.1287 -0.4780
54800SOL     OW74329   4.200   0.379   2.895  0.2561  0.3448 -0.2557
54800SOL    HW174330   4.152   0.308   2.936 -1.4036  0.2852 -2.1383
54800SOL    HW274331   4.151   0.398   2.814  3.2036  0.5224 -2.1516
54801SOL     OW74332   8.433   5.278  10.584 -0.0141 -0.2467 -0.5630
54801SOL    HW174333   8.464   5.328  10.659 -0.7597  0.7752 -0.9189
54801SOL    HW274334   8.512   5.234  10.551  0.4418 -0.1821  0.4029
54802SOL     OW74335   3.543   1.877   4.063  0.1981 -0.0349  0.2270
54802SOL    HW174336   3.448   1.889   4.065  0.3783  1.4975  1.1458
54802SOL    HW274337   3.573   1.907   4.149  1.5280 -0.3946 -0.0848
54803SOL     OW74338  11.458   5.806   3.585 -0.1920 -0.0734 -0.0964
54803SOL    HW174339  11.513   5.740   3.544  1.9015  1.1346  0.5914
54803SOL    HW274340  11.459   5.783   3.678 -1.3603 -0.3575 -0.1418
54804SOL     OW74341  11.224   1.222   5.959 -0.1308 -0.1444  0.1175
54804SOL    HW174342  11.301   1.166   5.946 -0.8994 -0.8740 -1.5883
54804SOL    HW274343  11.239   1.264   6.043  2.1257 -0.2947 -0.1509
54805SOL     OW74344  11.713   5.637   3.528  0.2035 -0.6553  0.2067
54805SOL    HW174345  11.791   5.658   3.478 -1.0442  0.6122 -1.2937
54805SOL    HW274346  11.700   5.543   3.513 -0.3986 -0.2258 -2.3059
54806SOL     OW74347  12.148   2.484   8.182  0.0208 -0.4975 -0.1342
54806SOL    HW174348  12.098   2.552   8.137 -1.0699 -1.1692  0.0124
54806SOL    HW274349  12.115   2.486   8.272  1.5582  0.2527  0.4430
54807SOL     OW74350   0.942  12.415  13.094  0.2862  0.0142  0.6899
54807SOL    HW174351   1.026  12.430  13.052 -0.1632 -1.1511 -0.6736
54807SOL    HW274352   0.937  12.483  13.162  0.5549  2.7315 -1.8023
54808SOL     OW74353   6.207   7.614   7.930  0.0873 -0.3733  0.1214
54808SOL    HW174354   6.218   7.655   7.844 -0.0473 -0.6995 -0.0495
54808SOL    HW274355   6.293   7.625   7.972 -0.6240  2.4136  1.1158
54809SOL     OW74356   7.401   3.214  12.842  0.2580  0.0150 -0.3733
54809SOL    HW174357   7.338   3.274  12.881  0.4741  0.2967 -0.4520
54809SOL    HW274358   7.363   3.127  12.854 -0.2885  0.2063 -0.6929
54810SOL     OW74359   6.155  12.373  13.145 -0.3989  0.0512 -0.3239
54810SOL    HW174360   6.192  12.460  13.133  0.1518  0.3040  2.5639
54810SOL    HW274361   6.066  12.389  13.175 -0.2989 -0.3722  0.2081
54811SOL     OW74362   5.994   5.811  11.219 -0.5101 -0.0522 -0.3665
54811SOL    HW174363   5.993   5.882  11.155 -3.0093  1.0967  0.8149
54811SOL    HW274364   6.049   5.744  11.179 -0.2542  1.4455 -2.7491
54812SOL     OW74365   8.392  11.103  11.660 -0.1009  0.1319  0.0514
54812SOL    HW174366   8.411  11.064  11.575 -0.4875  1.7620 -0.8066
54812SOL    HW274367   8.476  11.099  11.706 -0.5456 -3.6597  0.9213
54813SOL     OW74368  10.438   1.768   6.933  0.0322  0.2943 -0.0239
54813SOL    HW174369  10.443   1.704   6.862 -0.0063  1.5019 -1.1650
54813SOL    HW274370  10.518   1.821   6.923  0.2483  0.2070  1.1171
54814SOL     OW74371  12.624   6.672   7.540 -0.4458 -0.1718 -0.6009
54814SOL    HW174372  12.658   6.589   7.574 -0.4842  0.0782  0.0480
54814SOL    HW274373  12.627   6.732   7.614  0.1706  0.5888 -1.2284
54815SOL     OW74374   5.159   4.137   2.675  0.1460 -0.4012  0.2529
54815SOL    HW174375   5.179   4.056   2.629  0.4944 -0.3597  0.3275
54815SOL    HW274376   5.221   4.201   2.640 -0.6145  0.0280 -0.3491
54816SOL     OW74377   9.069  11.423   6.549 -0.3153  0.8129  0.4720
54816SOL    HW174378   9.005  11.416   6.478  0.1251  0.4213  0.1081
54816SOL    HW274379   9.023  11.391   6.627 -0.5757  0.5802  0.2240
54817SOL     OW74380  10.672   4.277   7.381  0.5292 -0.5992 -0.4612
54817SOL    HW174381  10.717   4.322   7.452  1.0347 -1.0801 -0.4771
54817SOL    HW274382  10.708   4.189   7.380 -0.1191 -0.8715 -0.7382
54818SOL     OW74383  10.183   9.759   4.117 -0.2085 -0.5219  0.3293
54818SOL    HW174384  10.127   9.821   4.163  1.3503 -0.2725  2.0328
54818SOL    HW274385  10.122   9.696   4.077 -1.7670  1.4525 -0.5579
54819SOL     OW74386  10.769  13.176   0.358 -0.0735  0.2039 -0.1590
54819SOL    HW174387  10.795  13.087   0.336  0.7431  0.8689 -2.1420
54819SOL    HW274388  10.820  13.197   0.436 -0.6854 -1.2330  0.6556
54820SOL     OW74389   8.711  10.039   3.793  1.1639 -0.3430 -0.2715
54820SOL    HW174390   8.676   9.968   3.846  0.6247 -0.1149 -0.3151
54820SOL    HW274391   8.769  10.087   3.852  1.0612 -0.4648 -0.0703
54821SOL     OW74392  11.064  12.742  11.293  0.2350 -0.5173 -0.2277
54821SOL    HW174393  10.979  12.785  11.297  0.9626  1.0654 -0.7537
54821SOL    HW274394  11.111  12.789  11.223  1.9662 -0.5001  0.8866
54822SOL     OW74395  11.364   3.577  12.344  0.6106 -0.3711  0.1319
54822SOL    HW174396  11.305   3.557  12.271  0.7914 -2.4042  0.4778
54822SOL    HW274397  11.318   3.643  12.395 -0.7197 -0.8736 -0.3820
54823SOL     OW74398   1.889   7.085   2.812  0.7660 -0.2548  0.1907
54823SOL    HW174399   1.947   7.145   2.765  0.6848 -0.6553 -0.4313
54823SOL    HW274400   1.801   7.105   2.779  0.6817 -0.4135  0.3128
54824SOL     OW74401   0.388  11.999   2.515  0.1657  0.2372 -0.1897
54824SOL    HW174402   0.339  11.988   2.433  1.9137 -1.9799 -1.0300
54824SOL    HW274403   0.353  12.080   2.553 -1.9381  0.3852 -2.2287
54825SOL     OW74404   5.789   1.323   6.270 -0.6373  0.0167 -0.2929
54825SOL    HW174405   5.767   1.240   6.227 -0.8158 -0.6592  1.0394
54825SOL    HW274406   5.751   1.390   6.213  1.3531 -0.6473 -2.5650
54826SOL     OW74407  10.504   1.398  11.240  0.5463 -0.4495 -0.0412
54826SOL    HW174408  10.478   1.390  11.148 -1.5949  0.8821  0.3841
54826SOL    HW274409  10.439   1.456  11.279  1.7662 -0.4554  2.1995
54827SOL     OW74410   5.212   7.591   2.688  0.0083 -0.2674 -0.3696
54827SOL    HW174411   5.132   7.624   2.648 -0.0839 -0.1029 -0.0573
54827SOL    HW274412   5.204   7.616   2.780  1.2906  1.5109 -0.6742
54828SOL     OW74413  12.766   9.948   9.074  0.6822  0.6771 -0.6743
54828SOL    HW174414  12.741  10.014   9.140  0.1576  0.9553 -1.1363
54828SOL    HW274415  12.793  10.000   8.998  1.3681  0.3594 -0.6505
54829SOL     OW74416   5.303   8.170  10.644  0.2406 -0.3335  0.5803
54829SOL    HW174417   5.327   8.262  10.637  0.5573 -0.4098  0.6288
54829SOL    HW274418   5.373   8.130  10.695 -0.1555 -0.5024  1.0009
54830SOL     OW74419  12.410  12.915   6.810  0.0368 -0.3900  0.2243
54830SOL    HW174420  12.451  12.834   6.779 -0.5168 -0.7218  0.3446
54830SOL    HW274421  12.465  12.985   6.776 -0.9465 -0.6953 -2.1945
54831SOL     OW74422   2.076   0.460  13.289 -0.0090 -0.1730  0.1448
54831SOL    HW174423   2.135   0.443  13.215 -0.1969 -2.7932  0.5076
54831SOL    HW274424   2.096   0.391  13.352 -1.4987  0.5933  1.5252
54832SOL     OW74425  11.678   9.772  12.206  0.4548 -0.3787  0.5154
54832SOL    HW174426  11.639   9.830  12.271  2.4332  0.4248  1.0569
54832SOL    HW274427  11.628   9.787  12.126 -0.9953 -0.1958  1.4378
54833SOL     OW74428  10.137   8.149  12.416 -0.5423 -0.5604 -0.4868
54833SOL    HW174429  10.165   8.063  12.445 -0.0037 -0.6013 -1.1196
54833SOL    HW274430  10.216   8.203  12.421 -0.7994 -0.1856 -0.4103
54834SOL     OW74431  11.324   6.229  11.736  0.4764 -0.1162  0.2125
54834SOL    HW174432  11.300   6.261  11.649  0.9608  2.2492  0.8569
54834SOL    HW274433  11.340   6.136  11.724 -0.6539 -0.0996 -1.9639
54835SOL     OW74434   9.963   9.235  13.159 -0.1730 -0.3184  0.2402
54835SOL    HW174435  10.044   9.188  13.178 -0.3192 -1.0985 -0.9911
54835SOL    HW274436   9.925   9.190  13.084 -1.0372  0.9073 -0.0967
54836SOL     OW74437  12.559   1.492   8.668 -0.5740  0.2413  0.3251
54836SOL    HW174438  12.522   1.415   8.710 -0.7806 -1.6751 -3.0600
54836SOL    HW274439  12.646   1.502   8.707 -0.5378 -1.7372  0.8121
54837SOL     OW74440   5.204  10.276  11.294  0.0618 -0.1574 -0.3449
54837SOL    HW174441   5.127  10.219  11.294 -0.0870  0.0396 -0.3924
54837SOL    HW274442   5.167  10.365  11.299  0.2914 -0.0705 -0.2106
54838SOL     OW74443   1.648   8.299   9.787  0.1084  0.4666  0.0961
54838SOL    HW174444   1.567   8.325   9.831  0.3855  0.1418  0.8102
54838SOL    HW274445   1.619   8.253   9.708 -0.4169 -0.3735  0.7689
54839SOL     OW74446   4.345  10.115   2.408 -0.4359  0.4822  0.5067
54839SOL    HW174447   4.362  10.066   2.328  1.9665 -0.4160  1.4607
54839SOL    HW274448   4.259  10.154   2.395 -0.8826 -1.0748 -1.7629
54840SOL     OW74449   7.547  10.097   9.687 -0.4801  0.8348 -0.4569
54840SOL    HW174450   7.563  10.146   9.768 -1.4275  1.3692 -0.5792
54840SOL    HW274451   7.589  10.013   9.701 -0.2824  1.0735  0.4312
54841SOL     OW74452   3.040  13.084   3.030 -0.1580 -0.3588 -0.3213
54841SOL    HW174453   2.975  13.024   2.994 -1.3648  1.0989 -0.6373
54841SOL    HW274454   3.099  13.103   2.956  0.2194 -1.1113 -0.2244
54842SOL     OW74455   3.334   1.877   8.156  0.1166 -0.2525 -0.4065
54842SOL    HW174456   3.254   1.907   8.113  0.0443 -2.1208 -1.6662
54842SOL    HW274457   3.312   1.792   8.194  1.6192 -1.0826 -1.2803
54843SOL     OW74458   7.555   8.028  11.579 -0.0321  0.4360 -0.0779
54843SOL    HW174459   7.599   7.990  11.655 -0.8013  1.2106  0.7764
54843SOL    HW274460   7.545   7.954  11.519  2.7618  0.2887 -0.5233
54844SOL     OW74461   1.954   5.657   3.777  0.7184  0.0015 -0.4801
54844SOL    HW174462   1.960   5.618   3.864  0.1194 -2.9146 -1.6103
54844SOL    HW274463   1.861   5.682   3.769  0.7719  0.2637 -0.2909
54845SOL     OW74464   0.036   9.276  11.089 -0.1682  0.7377 -0.1574
54845SOL    HW174465  -0.000   9.224  11.160 -1.0589  1.2913 -0.1886
54845SOL    HW274466   0.128   9.249  11.083 -0.5655 -0.7229 -0.0885
54846SOL     OW74467   8.507  11.467   3.623  0.3888 -0.6872  0.0395
54846SOL    HW174468   8.567  11.462   3.549 -0.2640 -0.1028 -0.5489
54846SOL    HW274469   8.425  11.429   3.590  0.3677 -1.2714  0.7579
54847SOL     OW74470   9.889   7.863  13.170  0.0810  0.4044 -0.3705
54847SOL    HW174471   9.877   7.868  13.075  1.1286 -1.1570 -0.6092
54847SOL    HW274472   9.965   7.806  13.183 -0.8172 -0.4961  1.4408
54848SOL     OW74473   5.217   1.535  12.596  0.8984  0.5523  0.0571
54848SOL    HW174474   5.162   1.554  12.520  0.5162  2.1451  0.6737
54848SOL    HW274475   5.240   1.622  12.631  0.2745 -0.1129  2.3011
54849SOL     OW74476   5.439  13.305   4.071 -0.6927 -0.2935  0.3259
54849SOL    HW174477   5.351  13.268   4.065 -0.9988  0.5415 -0.7535
54849SOL    HW274478   5.453  13.318   4.164 -0.5309 -3.1354  0.7676
54850SOL     OW74479  10.749   9.180   4.870  0.5138 -0.7129 -0.4523
54850SOL    HW174480  10.839   9.197   4.840  0.7510  0.6092  0.8654
54850SOL    HW274481  10.694   9.216   4.801  1.0443  2.9418  0.7783
54851SOL     OW74482   9.600   9.041   5.379  0.5949 -0.9744 -0.1386
54851SOL    HW174483   9.619   9.091   5.459  1.4946 -1.8845  0.2367
54851SOL    HW274484   9.668   9.069   5.318 -0.2049 -0.1371 -0.6753
54852SOL     OW74485  12.373   0.793  11.797 -0.2822  0.7898 -0.2928
54852SOL    HW174486  12.297   0.844  11.768 -0.7717  0.4730  0.4144
54852SOL    HW274487  12.439   0.807  11.729 -1.5672 -0.3578 -1.8515
54853SOL     OW74488   8.771   7.640   2.765 -0.1035 -0.6086 -0.5031
54853SOL    HW174489   8.850   7.684   2.735 -0.3340 -0.5039 -0.9751
54853SOL    HW274490   8.731   7.606   2.684 -1.8070  1.4243 -0.5842
54854SOL     OW74491   0.183  10.683  10.966 -0.1581  0.0300 -0.2378
54854SOL    HW174492   0.256  10.667  11.026 -0.4742 -0.8743 -0.0843
54854SOL    HW274493   0.119  10.730  11.019  0.7039  1.7542 -0.6454
54855SOL     OW74494   2.716   7.162   8.639  0.3769 -0.2712  0.6243
54855SOL    HW174495   2.621   7.162   8.637  0.1863 -4.5313 -1.5502
54855SOL    HW274496   2.742   7.184   8.550  1.4053 -0.0471  0.9620
54856SOL     OW74497  10.219  11.579   4.808 -0.1410 -0.2918  0.1589
54856SOL    HW174498  10.306  11.557   4.842  0.6317  2.0597 -0.1163
54856SOL    HW274499  10.235  11.605   4.717 -0.6935  2.3333  0.7300
54857SOL     OW74500   8.510   9.508  12.845  0.0185  0.0218  0.3014
54857SOL    HW174501   8.535   9.597  12.820  0.6291  0.1044  1.1805
54857SOL    HW274502   8.552   9.453  12.779 -0.4020  0.3761 -0.2785
54858SOL     OW74503   2.755  11.319   5.794 -0.0102  0.5603  0.2445
54858SOL    HW174504   2.769  11.271   5.875  0.1083  2.2240  1.2655
54858SOL    HW274505   2.660  11.320   5.783 -0.0442  0.6065  0.5424
54859SOL     OW74506   5.141   7.069  11.168 -0.4308  0.2515 -0.1100
54859SOL    HW174507   5.069   7.120  11.206 -1.0595 -0.9525  0.3646
54859SOL    HW274508   5.216   7.088  11.225 -0.4440  1.2602 -0.4154
54860SOL     OW74509  10.970   2.644   6.310 -0.0161  0.0378 -0.3021
54860SOL    HW174510  10.911   2.570   6.296  1.1322 -0.7431 -1.1786
54860SOL    HW274511  10.912   2.716   6.337 -1.1536 -1.1540  0.5570
54861SOL     OW74512  11.520   4.037  11.470  0.3636 -0.6046  0.6448
54861SOL    HW174513  11.492   4.127  11.451  0.7639 -0.6602 -0.2948
54861SOL    HW274514  11.613   4.037  11.449 -0.1882 -1.9838 -2.4204
54862SOL     OW74515   2.606   5.576   4.069  0.2102 -0.0635  0.4237
54862SOL    HW174516   2.512   5.585   4.078  0.2017 -0.3646  0.6353
54862SOL    HW274517   2.632   5.651   4.015 -0.2513 -0.4287 -0.3094
54863SOL     OW74518   8.970   0.846   7.124  0.2734 -0.3785  0.1930
54863SOL    HW174519   9.059   0.858   7.159  0.0728 -0.3368  0.6865
54863SOL    HW274520   8.912   0.868   7.196 -0.1468 -0.3173 -0.1570
54864SOL     OW74521   4.247   9.028   3.693 -0.0618 -0.0720  0.1915
54864SOL    HW174522   4.170   9.000   3.742  0.2636  0.7959  1.2700
54864SOL    HW274523   4.225   9.116   3.662  0.5806  0.3199  0.7903
54865SOL     OW74524  13.224   4.860  10.667 -0.2593 -0.7746  0.6326
54865SOL    HW174525  13.280   4.785  10.686 -0.8206 -1.2390  0.4846
54865SOL    HW274526  13.193   4.890  10.752  0.2821 -0.4659  0.7194
54866SOL     OW74527   3.707   1.747  10.094  0.0442 -0.4776 -0.4470
54866SOL    HW174528   3.705   1.779  10.004  0.3248 -0.2521 -0.3747
54866SOL    HW274529   3.761   1.668  10.091 -0.2122 -0.6510 -0.5324
54867SOL     OW74530   0.051   3.413   0.972  0.2759 -0.2184 -0.2872
54867SOL    HW174531  -0.014   3.475   0.939 -0.8619 -0.9088  0.5823
54867SOL    HW274532   0.046   3.339   0.912 -1.0782 -1.0460  0.7912
54868SOL     OW74533   2.438  12.453   7.622  0.0472  0.3723 -0.6429
54868SOL    HW174534   2.485  12.514   7.566  1.5540 -0.0449  0.1179
54868SOL    HW274535   2.392  12.509   7.685  1.3110  0.7481 -0.0267
54869SOL     OW74536   1.980   3.100  10.412  0.3001  0.7656  0.1591
54869SOL    HW174537   1.946   3.052  10.487  2.5119  0.2698  0.9230
54869SOL    HW274538   2.029   3.172  10.450  0.4476  1.2210 -0.8577
54870SOL     OW74539   1.022  10.411   6.191 -0.5220 -0.6838 -0.1907
54870SOL    HW174540   0.940  10.427   6.144 -0.7298  0.4214  0.4940
54870SOL    HW274541   1.070  10.494   6.183 -0.1669 -0.7884  0.7405
54871SOL     OW74542  12.184   0.198  13.165 -0.3475 -0.6520 -0.7395
54871SOL    HW174543  12.136   0.278  13.185  1.1286  0.4799 -1.5847
54871SOL    HW274544  12.199   0.157  13.251 -1.6719 -0.3996 -0.3586
54872SOL     OW74545   5.268  12.694   5.912  0.2551 -0.3076  0.0068
54872SOL    HW174546   5.258  12.636   5.987  0.7913  0.7061  0.9005
54872SOL    HW274547   5.238  12.779   5.944 -0.7854 -0.1351 -1.3601
54873SOL     OW74548   8.069   5.858   3.775  0.7999  0.3740 -0.0358
54873SOL    HW174549   8.117   5.908   3.841  2.7112 -0.1800 -0.9584
54873SOL    HW274550   8.136   5.810   3.727 -0.5924  0.3515 -2.0629
54874SOL     OW74551   2.253   9.053   8.487  0.0771  0.4612  0.1066
54874SOL    HW174552   2.273   8.965   8.519  1.4551  0.6745 -0.1210
54874SOL    HW274553   2.307   9.064   8.409 -0.9338  1.1016 -0.5377
54875SOL     OW74554   1.250   3.024   0.887  0.1039 -0.5470  0.3136
54875SOL    HW174555   1.190   2.991   0.821  0.2054 -1.6962  0.7727
54875SOL    HW274556   1.298   2.947   0.917  1.9284  0.3555 -0.1512
54876SOL     OW74557  10.497  12.953   5.523  0.0640 -0.6517 -0.1117
54876SOL    HW174558  10.528  12.880   5.576  0.2282 -0.8893 -0.5250
54876SOL    HW274559  10.517  13.031   5.574  3.8568 -0.5408 -1.4609
54877SOL     OW74560  11.155  10.953  10.991 -0.2017 -0.5955  0.6190
54877SOL    HW174561  11.210  10.897  11.046 -1.1511  0.0503  2.2785
54877SOL    HW274562  11.186  11.042  11.009  0.3407 -0.4411 -0.9206
54878SOL     OW74563  12.138   4.799   0.761  0.1283  0.6449  0.0991
54878SOL    HW174564  12.110   4.737   0.829  0.9252 -0.5036 -0.5738
54878SOL    HW274565  12.100   4.764   0.680 -1.5522  2.4864  0.0257
54879SOL     OW74566  12.347   8.369   7.830 -0.2316  0.0458 -0.8194
54879SOL    HW174567  12.317   8.282   7.803  2.1603 -2.2162  2.8483
54879SOL    HW274568  12.303   8.385   7.913  0.1108  1.9268 -0.9605
54880SOL     OW74569   3.037   8.637   6.044 -0.0951 -0.4651 -0.0723
54880SOL    HW174570   3.129   8.661   6.037  0.1873 -1.5929 -0.4591
54880SOL    HW274571   3.026   8.567   5.980 -0.9442 -1.1093  0.7618
54881SOL     OW74572   4.635   9.326  11.370 -0.1878  0.4163 -0.4010
54881SOL    HW174573   4.552   9.357  11.406  0.4286  0.8385  0.6982
54881SOL    HW274574   4.687   9.406  11.358  0.5080  0.0428  0.0802
54882SOL     OW74575  10.906   6.528  12.124  0.2536  0.4208  0.0753
54882SOL    HW174576  10.835   6.489  12.175  0.1632  2.0864  1.3135
54882SOL    HW274577  10.916   6.470  12.048 -2.4422  0.1154 -0.1610
54883SOL     OW74578   9.744  11.017  12.988  0.1333  0.0004 -0.5728
54883SOL    HW174579   9.656  11.052  13.003 -0.3496 -0.8895 -1.2255
54883SOL    HW274580   9.729  10.938  12.935  1.3196 -0.2050 -0.6143
54884SOL     OW74581   8.576   1.155   2.164 -0.3377  0.2820  0.2578
54884SOL    HW174582   8.581   1.187   2.254  0.7489  1.8603 -0.3020
54884SOL    HW274583   8.500   1.098   2.162 -0.7019  0.6560  2.0416
54885SOL     OW74584   9.470   8.987  12.526 -0.1118 -0.2677  0.4236
54885SOL    HW174585   9.504   9.071  12.497 -1.9179 -0.2666 -2.0630
54885SOL    HW274586   9.545   8.928  12.522  0.5167  0.5714 -0.8803
54886SOL     OW74587  12.627   5.446  11.140 -0.6427 -0.2546  0.0458
54886SOL    HW174588  12.612   5.430  11.233 -1.8575 -0.9634 -0.2438
54886SOL    HW274589  12.554   5.501  11.113  0.7362  1.6044 -0.1143
54887SOL     OW74590   7.781  13.262   5.617  0.4547  0.0378  0.1340
54887SOL    HW174591   7.853  13.271   5.554  0.0490 -1.3693 -0.6032
54887SOL    HW274592   7.713  13.321   5.584 -0.2508 -1.5939 -1.5888
54888SOL     OW74593   5.456   4.787   0.964  0.1302 -0.0212 -0.3043
54888SOL    HW174594   5.470   4.693   0.956  1.3200  0.1376 -0.2054
54888SOL    HW274595   5.404   4.810   0.887  0.2906 -0.6704 -0.6146
54889SOL     OW74596   0.554   3.072  11.711 -0.0594 -0.5527 -0.7029
54889SOL    HW174597   0.467   3.105  11.687 -0.2150 -0.7521 -0.4269
54889SOL    HW274598   0.578   3.122  11.789  0.8579  0.7622 -1.8002
54890SOL     OW74599   0.226   6.750   1.143  0.1624  0.5951  0.1953
54890SOL    HW174600   0.188   6.672   1.104 -0.8005  1.3487 -0.4377
54890SOL    HW274601   0.297   6.775   1.084  0.3646  0.3052  0.3121
54891SOL     OW74602   7.512  11.379   3.173  0.0054 -0.2922  0.6171
54891SOL    HW174603   7.509  11.457   3.118  0.7942 -0.4555  0.3225
54891SOL    HW274604   7.421  11.363   3.198 -0.3170  0.0193 -0.3163
54892SOL     OW74605  11.803   5.770   7.846 -0.3722 -0.0009  0.1178
54892SOL    HW174606  11.767   5.795   7.761 -0.2190  1.4506  0.4477
54892SOL    HW274607  11.895   5.797   7.841 -0.1716 -0.6073  0.4808
54893SOL     OW74608   8.426  12.911   3.632 -0.2976 -0.0991 -0.0272
54893SOL    HW174609   8.477  12.963   3.570  0.5736 -0.0184  0.7428
54893SOL    HW274610   8.389  12.975   3.693  0.1224 -0.2969  0.4473
54894SOL     OW74611   1.900   2.562   7.486 -0.6081 -0.3175 -0.2413
54894SOL    HW174612   1.931   2.548   7.575 -1.4592  1.0891  0.3086
54894SOL    HW274613   1.860   2.479   7.461 -0.2427 -0.7699  0.6390
54895SOL     OW74614   0.108   4.452  13.141  0.1571  0.1027  0.6487
54895SOL    HW174615   0.081   4.481  13.229  0.7781 -1.1709  1.2817
54895SOL    HW274616   0.034   4.474  13.085  0.3177  2.2932  1.1814
54896SOL     OW74617   6.655  12.160   6.490  0.1582  0.6754  0.2925
54896SOL    HW174618   6.663  12.227   6.558  1.4546  0.3602  0.4749
54896SOL    HW274619   6.605  12.089   6.532 -0.2526  1.0513  0.4499
54897SOL     OW74620   8.425   2.178  12.547 -0.0013 -0.1081  0.0949
54897SOL    HW174621   8.426   2.170  12.642 -0.9979  2.0955  0.3365
54897SOL    HW274622   8.356   2.118  12.519  1.5255 -2.1943  0.5258
54898SOL     OW74623   1.910   9.495   9.644  0.3215  0.3672 -0.4954
54898SOL    HW174624   1.823   9.534   9.643  0.1626  0.0188 -0.5268
54898SOL    HW274625   1.967   9.561   9.683 -0.4465 -0.4476  2.2298
54899SOL     OW74626  13.108   1.096   2.456  0.1009  0.2131 -0.4633
54899SOL    HW174627  13.198   1.066   2.446  0.2516  0.6813 -0.5403
54899SOL    HW274628  13.067   1.031   2.513  0.4389 -0.0970 -0.5702
54900SOL     OW74629   9.541   3.696   0.758 -0.1472  0.7892  0.0684
54900SOL    HW174630   9.612   3.643   0.795 -0.5352 -0.5596 -1.0226
54900SOL    HW274631   9.575   3.723   0.672 -1.8564 -2.1582 -1.7064
54901SOL     OW74632   4.969   8.134   2.469 -0.2730  0.0637 -0.5090
54901SOL    HW174633   4.886   8.144   2.422 -0.2151 -0.1041 -0.6496
54901SOL    HW274634   5.023   8.207   2.439  0.1740 -0.6806 -1.5818
54902SOL     OW74635   2.900   2.838   9.279 -0.1012 -0.0255 -0.0116
54902SOL    HW174636   2.940   2.906   9.335  0.7508  0.3961 -1.1025
54902SOL    HW274637   2.811   2.870   9.264 -0.4863 -0.3456  1.4149
54903SOL     OW74638   6.164   1.564   1.046 -0.3122 -0.0991 -0.0428
54903SOL    HW174639   6.078   1.543   1.011 -0.6364  2.3245 -0.9218
54903SOL    HW274640   6.220   1.574   0.968  0.6054 -0.9530  0.4843
54904SOL     OW74641  13.306  11.420   6.118 -0.6176 -0.1018 -0.6175
54904SOL    HW174642  13.394  11.423   6.155 -0.3818  3.0896 -1.1883
54904SOL    HW274643  13.311  11.353   6.050  1.3016 -0.1945 -0.4334
54905SOL     OW74644  11.224   5.978   3.984  0.0777 -0.0388 -0.5286
54905SOL    HW174645  11.249   6.052   3.929  0.6630  0.7023  0.6916
54905SOL    HW274646  11.128   5.975   3.978  0.0428  0.8699 -0.5326
54906SOL     OW74647  10.982   3.480  10.601  0.2350 -0.0087 -0.0786
54906SOL    HW174648  10.959   3.548  10.664  1.1474 -0.0792  0.3371
54906SOL    HW274649  11.077   3.469  10.610  0.5297  0.5351 -2.0201
54907SOL     OW74650   7.887  11.013   2.533 -0.1316  0.1440  0.2915
54907SOL    HW174651   7.834  10.964   2.596 -1.2740  0.1101 -0.6778
54907SOL    HW274652   7.963  11.043   2.584 -1.8300  1.5559  2.1132
54908SOL     OW74653   9.921   2.349   0.511  0.6043 -0.1671  0.3136
54908SOL    HW174654   9.837   2.393   0.519 -0.2140 -0.4500 -4.1167
54908SOL    HW274655   9.985   2.420   0.504  0.2724  0.1320  0.3110
54909SOL     OW74656   0.867   5.527   0.175  0.6482 -0.1301 -0.3962
54909SOL    HW174657   0.939   5.490   0.226 -0.6942 -0.6311  1.2143
54909SOL    HW274658   0.790   5.515   0.230 -0.5183  1.3420 -1.6251
54910SOL     OW74659   0.001   7.257  10.655 -0.6261  0.0965  0.1823
54910SOL    HW174660   0.083   7.292  10.622 -1.2216  1.0886 -0.2887
54910SOL    HW274661   0.027   7.188  10.716  0.5407  0.1258 -0.2583
54911SOL     OW74662   8.617   6.898   0.010 -0.5936  0.2041 -0.1810
54911SOL    HW174663   8.618   6.988  -0.023 -3.3109  0.6091  0.6323
54911SOL    HW274664   8.614   6.844  -0.069 -3.0642  1.0169 -0.7271
54912SOL     OW74665   1.061  10.483   0.251  0.3211  0.2069  1.1292
54912SOL    HW174666   1.113  10.479   0.170  0.4719  1.1894  1.1671
54912SOL    HW274667   1.012  10.401   0.251  0.1238  0.2965 -0.0973
54913SOL     OW74668   0.058   0.136  13.253  0.6688 -0.0475  0.7354
54913SOL    HW174669   0.051   0.223  13.215 -2.7368 -0.3289  0.3658
54913SOL    HW274670   0.025   0.146  13.342  2.6792 -0.5593  1.5968
54914SOL     OW74671   6.388   8.963   2.228 -0.1199 -0.4325 -0.0226
54914SOL    HW174672   6.458   8.961   2.164  1.3129  0.4992  1.4194
54914SOL    HW274673   6.388   9.054   2.260 -0.3682 -0.9902  1.6749
54915SOL     OW74674   8.820   7.813   7.101  0.3014 -0.2173 -0.5068
54915SOL    HW174675   8.802   7.826   7.195  2.4387 -1.3058  0.0957
54915SOL    HW274676   8.810   7.719   7.087  1.8854 -0.3398 -0.9265
54916SOL     OW74677  11.969   8.396   0.420 -0.5821 -0.1776 -0.0452
54916SOL    HW174678  11.929   8.309   0.427  1.2591 -1.1176 -0.6312
54916SOL    HW274679  11.954   8.422   0.328 -1.9032  0.5563  0.3497
54917SOL     OW74680  10.943   5.378  12.299 -0.2679  0.3115  0.1448
54917SOL    HW174681  11.001   5.315  12.256  0.4156  1.4371 -0.6139
54917SOL    HW274682  10.975   5.464  12.272 -1.9875  0.9854  0.1014
54918SOL     OW74683   2.076   6.396  10.421 -0.5296  0.5236 -0.2734
54918SOL    HW174684   2.093   6.350  10.503 -1.0904 -0.7828 -0.8786
54918SOL    HW274685   1.984   6.379  10.401 -0.0812 -0.2550 -1.8220
54919SOL     OW74686  12.550   2.480   2.955  0.4545  0.1203 -0.3106
54919SOL    HW174687  12.539   2.561   3.005  0.0714 -0.7356  1.0721
54919SOL    HW274688  12.574   2.415   3.021 -1.0799 -1.2943 -1.0703
54920SOL     OW74689  10.488  12.241  12.764 -0.4581  0.0049 -0.0019
54920SOL    HW174690  10.536  12.166  12.798  1.3751  0.3205 -1.7297
54920SOL    HW274691  10.430  12.205  12.697 -0.9515 -0.0852  0.4685
54921SOL     OW74692   3.822   0.853   9.294 -0.1686  0.0450 -0.6474
54921SOL    HW174693   3.905   0.842   9.246 -0.8779  0.0047 -1.9266
54921SOL    HW274694   3.810   0.769   9.339  0.0342 -0.2876 -1.1987
54922SOL     OW74695   3.512  10.031   2.342  0.7182  0.2313 -0.5318
54922SOL    HW174696   3.475  10.031   2.254  1.5457  0.6554 -0.8847
54922SOL    HW274697   3.470   9.957   2.385 -0.9798  1.0251 -0.7252
54923SOL     OW74698   3.527  12.507  12.171  0.4116  0.4785 -0.0083
54923SOL    HW174699   3.557  12.545  12.089 -1.3122 -0.2709 -1.0388
54923SOL    HW274700   3.607  12.495  12.223  1.5600  0.7502 -1.6589
54924SOL     OW74701   6.504   7.775   3.893 -0.3075  0.1068 -0.0123
54924SOL    HW174702   6.492   7.697   3.948  0.7600 -0.2084 -0.1940
54924SOL    HW274703   6.444   7.763   3.820  0.9288 -1.3254 -0.8442
54925SOL     OW74704   9.022   7.115  11.172  0.1497 -0.1196  0.2001
54925SOL    HW174705   9.112   7.147  11.165  0.1971 -0.3935 -0.5687
54925SOL    HW274706   9.002   7.122  11.265  0.8250  0.3210  0.3273
54926SOL     OW74707   5.969  12.312   5.170  0.6456  0.1620 -0.0282
54926SOL    HW174708   5.931  12.230   5.140 -0.2527  0.9413 -1.1136
54926SOL    HW274709   6.053  12.318   5.124  0.5410  0.0308 -0.2375
54927SOL     OW74710   9.485   7.316   1.258  0.1028  0.4801 -0.8335
54927SOL    HW174711   9.530   7.346   1.178 -0.9004  2.6013 -0.6629
54927SOL    HW274712   9.548   7.332   1.328  0.6089 -0.4635 -1.0489
54928SOL     OW74713   2.143   5.190   9.552  0.4542  0.5922  0.1189
54928SOL    HW174714   2.124   5.096   9.551 -1.2639  0.9104 -0.1888
54928SOL    HW274715   2.072   5.228   9.602  0.3364  1.8827 -0.9775
54929SOL     OW74716   4.102   0.810   8.433  0.2009  0.4412 -0.4044
54929SOL    HW174717   4.011   0.800   8.463 -0.1300  0.5389 -1.3470
54929SOL    HW274718   4.154   0.807   8.514 -0.6066  0.0214  0.1169
54930SOL     OW74719  12.672  11.238   4.163 -0.2980  0.5334  0.1133
54930SOL    HW174720  12.737  11.247   4.233  0.5264 -1.1911 -0.3907
54930SOL    HW274721  12.714  11.275   4.086 -1.7330  3.7556  0.7256
54931SOL     OW74722   8.149  10.587   9.459  0.2351 -0.2193  0.0956
54931SOL    HW174723   8.098  10.508   9.475 -0.0278 -0.0920 -0.0992
54931SOL    HW274724   8.088  10.659   9.480 -0.3713 -0.0182 -2.0759
54932SOL     OW74725   4.143   1.292  10.918  0.1441  0.5669 -0.3872
54932SOL    HW174726   4.163   1.371  10.867 -0.3885  0.9713  0.0169
54932SOL    HW274727   4.065   1.315  10.969 -0.7536 -0.6366 -1.1687
54933SOL     OW74728  10.816   7.678   2.028 -0.1955 -0.7957 -0.1498
54933SOL    HW174729  10.747   7.705   2.089 -1.3516 -0.6420 -1.4609
54933SOL    HW274730  10.881   7.635   2.083 -1.7350 -1.7113  1.0410
54934SOL     OW74731   2.772  12.101   8.479 -0.6783  0.0653  0.2451
54934SOL    HW174732   2.758  12.033   8.545  2.0652 -0.0887  0.7965
54934SOL    HW274733   2.757  12.057   8.396  1.0960 -1.3032  0.5914
54935SOL     OW74734  11.826   1.565  11.786  0.3002 -0.2809 -0.4781
54935SOL    HW174735  11.736   1.548  11.815  0.6441  0.1597  0.8839
54935SOL    HW274736  11.868   1.479  11.784  0.0324 -0.4114 -0.4950
54936SOL     OW74737   9.482   9.566   5.082  0.2168  0.2322  0.2228
54936SOL    HW174738   9.470   9.492   5.022 -0.5648 -0.2557  0.9664
54936SOL    HW274739   9.549   9.537   5.143  0.3755  0.3953  0.1303
54937SOL     OW74740   4.785   8.952   4.197  0.0452  0.2617 -0.0134
54937SOL    HW174741   4.691   8.936   4.211 -0.0129 -0.0919 -0.7582
54937SOL    HW274742   4.797   8.942   4.103  0.9940 -0.5499  0.1788
54938SOL     OW74743   3.231  11.025   9.585  0.4422  0.3033 -0.5560
54938SOL    HW174744   3.177  10.946   9.574  1.0974 -0.0884 -1.0068
54938SOL    HW274745   3.307  10.995   9.634 -0.7726  1.3246  2.1623
54939SOL     OW74746   6.425   1.462   4.112 -0.0631 -0.2827 -0.2027
54939SOL    HW174747   6.384   1.376   4.120  0.0996 -0.3480 -0.0659
54939SOL    HW274748   6.514   1.444   4.083  0.5720 -0.2998  1.5968
54940SOL     OW74749  10.085   5.476   0.081  0.4210  0.3866  0.2687
54940SOL    HW174750  10.155   5.427   0.036  0.2837 -1.1599  1.6179
54940SOL    HW274751  10.029   5.408   0.118 -2.6307  1.5452 -1.8636
54941SOL     OW74752   4.342   5.955   0.553  0.2462  0.3197  0.4732
54941SOL    HW174753   4.418   5.897   0.550  1.1563  1.4422  0.6824
54941SOL    HW274754   4.272   5.907   0.510  1.2356 -0.5361 -0.2153
54942SOL     OW74755   1.442  10.269   0.141 -0.0511 -0.2448 -0.1171
54942SOL    HW174756   1.486  10.186   0.161 -0.1365  0.0473  1.3877
54942SOL    HW274757   1.442  10.317   0.223 -0.3540  1.1036 -0.8705
54943SOL     OW74758   0.953   9.158  10.047  0.6664 -0.0709 -0.4216
54943SOL    HW174759   1.017   9.225  10.023  0.6879  0.4149  0.8997
54943SOL    HW274760   0.877   9.176   9.992  0.9629  0.5524 -0.6380
54944SOL     OW74761   4.251  10.130   4.554  0.0177 -0.0099 -0.0170
54944SOL    HW174762   4.220  10.055   4.604  0.6861 -0.8106 -0.7547
54944SOL    HW274763   4.172  10.171   4.520 -0.3193 -1.1477 -0.6646
54945SOL     OW74764   6.777   5.874   5.386 -0.6898  0.0761 -0.2055
54945SOL    HW174765   6.830   5.939   5.340 -0.4423  0.6836  0.9081
54945SOL    HW274766   6.831   5.846   5.459 -1.6703  0.2948  0.6296
54946SOL     OW74767   0.706   7.362   4.898  0.0847 -0.6773 -0.2313
54946SOL    HW174768   0.618   7.399   4.912 -0.5614 -1.6931 -1.3866
54946SOL    HW274769   0.699   7.314   4.816  2.2830  0.8555 -1.4063
54947SOL     OW74770   0.208  11.795   0.183 -0.2209  0.3243 -0.3260
54947SOL    HW174771   0.193  11.838   0.099 -2.1204 -0.2641 -0.3371
54947SOL    HW274772   0.120  11.774   0.215  0.5448 -1.2963  0.8404
54948SOL     OW74773  11.985   5.176   1.006  0.2557  0.8968 -0.1327
54948SOL    HW174774  11.933   5.218   1.075 -1.7842 -0.3397 -0.8500
54948SOL    HW274775  12.032   5.248   0.965 -1.8365  2.2866 -0.2496
54949SOL     OW74776   2.877   5.036  11.886 -0.1365 -0.5901  0.3078
54949SOL    HW174777   2.919   5.077  11.810  0.6354  0.4020  1.2533
54949SOL    HW274778   2.793   5.081  11.893 -0.2709 -0.7806 -0.0302
54950SOL     OW74779   5.342   7.783  10.429  0.5083  0.3292 -0.0113
54950SOL    HW174780   5.264   7.752  10.383 -0.0451  0.6536  0.6967
54950SOL    HW274781   5.338   7.740  10.515 -0.6370  2.8067  1.2666
54951SOL     OW74782   3.528   5.241   4.656  0.4695  0.0820  0.0234
54951SOL    HW174783   3.497   5.284   4.576 -1.2481 -0.5512  0.3115
54951SOL    HW274784   3.559   5.155   4.626 -0.2070 -0.1693  0.0318
54952SOL     OW74785   2.569   4.044  11.178 -0.4278 -0.5584  0.2235
54952SOL    HW174786   2.626   3.989  11.231 -0.5298 -1.1521 -0.2721
54952SOL    HW274787   2.533   3.985  11.112 -1.1795 -0.0714  0.1834
54953SOL     OW74788   8.833   4.853  11.253 -0.2155  0.6625 -0.2171
54953SOL    HW174789   8.784   4.923  11.211 -0.0924  0.1986 -1.1701
54953SOL    HW274790   8.884   4.813  11.182 -0.3310 -0.4276  0.2886
54954SOL     OW74791  12.199   6.828   9.129 -0.6112  0.0950  0.4290
54954SOL    HW174792  12.128   6.764   9.120  0.7323 -1.5868  1.2540
54954SOL    HW274793  12.276   6.775   9.148  0.7511  1.9274  0.1816
54955SOL     OW74794  10.611   3.171   1.569 -0.0536  1.1116  0.0241
54955SOL    HW174795  10.522   3.183   1.604  0.3760  0.5493  1.4205
54955SOL    HW274796  10.601   3.104   1.501 -0.4275 -0.6647  1.7273
54956SOL     OW74797  11.043   4.248   6.448 -0.4713  0.3223 -0.0303
54956SOL    HW174798  11.138   4.236   6.446 -0.4725  0.2893  0.0871
54956SOL    HW274799  11.011   4.201   6.371 -0.4785 -0.4442  0.4337
54957SOL     OW74800   5.648   4.702  12.731 -0.3667  0.7251 -0.2168
54957SOL    HW174801   5.609   4.615  12.742  0.0227  0.4412 -1.0352
54957SOL    HW274802   5.734   4.685  12.691  1.3241  1.2003  2.8706
54958SOL     OW74803   0.315  10.185   3.416 -0.3173 -0.2954 -0.3036
54958SOL    HW174804   0.322  10.115   3.481  1.3906 -0.1461 -0.2905
54958SOL    HW274805   0.383  10.164   3.352 -0.9034  0.4520 -1.1835
54959SOL     OW74806   2.224  11.315   2.894 -0.7949  0.0261  0.5391
54959SOL    HW174807   2.259  11.376   2.959 -0.6609  1.8577 -1.1853
54959SOL    HW274808   2.301  11.269   2.861 -0.5973  0.6388  0.1408
54960SOL     OW74809  10.686   0.013  12.309 -0.1466 -0.0134  0.6802
54960SOL    HW174810  10.733   0.090  12.277  0.7604  0.1485  2.2826
54960SOL    HW274811  10.649   0.040  12.392 -3.5633 -0.0017 -0.7087
54961SOL     OW74812   8.141   7.943   1.078  0.6356 -0.2936  0.3784
54961SOL    HW174813   8.151   7.853   1.048  0.5444 -0.4399  0.7759
54961SOL    HW274814   8.229   7.972   1.099  0.5517 -0.6721  1.3127
54962SOL     OW74815   8.245   6.837   0.802 -0.2999 -0.4961 -0.6610
54962SOL    HW174816   8.325   6.786   0.812  0.0666 -0.0189 -1.1215
54962SOL    HW274817   8.254   6.908   0.866  0.9908  1.2242 -2.6200
54963SOL     OW74818  12.173  12.689   2.721  0.1244  0.2703 -0.3654
54963SOL    HW174819  12.265  12.697   2.746  0.7855 -0.4557 -2.3713
54963SOL    HW274820  12.144  12.780   2.709  0.9961  0.4757 -1.0435
54964SOL     OW74821  12.104   6.326   6.968  1.6661  0.2858 -0.3498
54964SOL    HW174822  12.106   6.422   6.973  1.0108  0.2578  0.8497
54964SOL    HW274823  12.127   6.307   6.877 -0.3758  1.6638 -1.2315
54965SOL     OW74824   4.809  10.205   5.108 -0.5011 -0.1183  0.4154
54965SOL    HW174825   4.812  10.113   5.132 -0.2623  0.0028  0.8678
54965SOL    HW274826   4.716  10.224   5.094 -0.6760 -0.1434  1.4683
54966SOL     OW74827   5.933   3.461   8.603 -0.3416 -0.2444  0.2275
54966SOL    HW174828   6.004   3.463   8.539 -0.0303 -1.5174  0.5113
54966SOL    HW274829   5.972   3.493   8.684 -0.3742  0.0241  0.1412
54967SOL     OW74830   8.674   1.079  12.196 -0.5063 -0.4233 -0.9371
54967SOL    HW174831   8.613   1.109  12.264  1.2034  0.5114  0.2614
54967SOL    HW274832   8.754   1.129  12.212  0.4275 -1.2417 -2.7759
54968SOL     OW74833   6.317  12.169  13.038 -0.0599  0.4732 -0.1298
54968SOL    HW174834   6.401  12.178  13.082  1.2453  1.2470 -2.5413
54968SOL    HW274835   6.253  12.206  13.099  1.5583  1.2182  1.1874
54969SOL     OW74836   1.941   6.766   1.429 -0.0051  0.3939 -0.2820
54969SOL    HW174837   2.033   6.759   1.453 -0.2429  1.3027  1.0075
54969SOL    HW274838   1.903   6.682   1.454  0.5810 -0.2090 -1.3847
54970SOL     OW74839   6.402   0.046   4.246 -0.2230 -0.2046  0.7964
54970SOL    HW174840   6.435   0.037   4.156 -0.7146  0.6460  0.5144
54970SOL    HW274841   6.469   0.005   4.300 -0.4933 -1.8245 -0.0411
54971SOL     OW74842   4.085   7.811   9.533 -0.7450 -0.3868 -0.7550
54971SOL    HW174843   4.128   7.763   9.462  0.8760  0.2935 -0.2954
54971SOL    HW274844   4.120   7.900   9.525 -3.4711  0.7161 -1.4323
54972SOL     OW74845   6.421  11.290   1.430  0.5889  0.3992 -0.2036
54972SOL    HW174846   6.437  11.365   1.372 -0.9939  0.6144 -0.3875
54972SOL    HW274847   6.394  11.329   1.513  0.7705  0.0382  0.0287
54973SOL     OW74848   1.178   7.538   9.501  0.0722 -0.0282  0.1038
54973SOL    HW174849   1.135   7.484   9.435 -1.2291 -0.0679  0.9548
54973SOL    HW274850   1.135   7.623   9.495  0.3801  0.1614  0.4840
54974SOL     OW74851   8.753   1.881  12.106 -0.5651  0.9334 -0.3859
54974SOL    HW174852   8.675   1.829  12.128  0.4549 -1.1800 -1.4797
54974SOL    HW274853   8.790   1.906  12.190 -0.8692 -0.4817  0.1906
54975SOL     OW74854  10.156   3.489   0.703  0.1815 -0.0031  0.1368
54975SOL    HW174855  10.221   3.419   0.702 -0.0215 -0.2715  2.3689
54975SOL    HW274856  10.130   3.497   0.794 -0.3977  2.4469 -0.1790
54976SOL     OW74857   4.098   4.439   1.402  0.6094  0.0552  0.3096
54976SOL    HW174858   4.016   4.487   1.390  1.1481  1.0118  0.3909
54976SOL    HW274859   4.074   4.348   1.388 -0.7969  0.1451  1.8203
54977SOL     OW74860   3.443  12.314   2.655 -0.4783  0.4861  0.0588
54977SOL    HW174861   3.537  12.332   2.656 -0.0802 -1.3838  0.7413
54977SOL    HW274862   3.416  12.330   2.565  1.4835 -3.2656 -1.3915
54978SOL     OW74863  12.252  10.983   1.333  0.5082  0.1296 -0.3689
54978SOL    HW174864  12.308  10.910   1.358  0.5526  0.5462  0.8142
54978SOL    HW274865  12.312  11.048   1.296  0.7694  0.3685  0.4332
54979SOL     OW74866   9.452   5.165  11.745  0.2716 -0.1967 -0.3961
54979SOL    HW174867   9.546   5.153  11.735  0.1117 -0.9880 -1.0242
54979SOL    HW274868   9.419   5.173  11.655 -0.1855  0.7179 -0.1605
54980SOL     OW74869   8.682  12.009   0.287 -0.1688 -0.8854  0.5838
54980SOL    HW174870   8.752  11.972   0.234 -0.3049 -1.6494  0.9196
54980SOL    HW274871   8.674  12.099   0.257  0.0075 -1.1927 -0.4352
54981SOL     OW74872   5.978   2.803   3.577 -0.6751 -0.2394  0.2767
54981SOL    HW174873   5.977   2.843   3.490  0.7781  0.4057  0.5196
54981SOL    HW274874   5.890   2.817   3.611 -0.5419  1.8609 -0.0799
54982SOL     OW74875   6.267   0.732   9.556 -0.0493  0.2995 -0.0445
54982SOL    HW174876   6.243   0.782   9.634 -1.4765 -0.6467  0.1609
54982SOL    HW274877   6.196   0.748   9.495 -1.4858 -2.7488  0.6411
54983SOL     OW74878   5.206   9.385   7.264  0.0947 -0.6519  0.6797
54983SOL    HW174879   5.167   9.457   7.314  0.4862 -0.6992  1.0561
54983SOL    HW274880   5.258   9.337   7.328 -0.1241 -1.2419  0.4184
54984SOL     OW74881   8.277   0.147   3.941  0.3890  0.1851 -0.2016
54984SOL    HW174882   8.269   0.094   3.862  0.8726  0.7341 -0.6316
54984SOL    HW274883   8.250   0.235   3.913  0.8491  0.4465  0.1715
54985SOL     OW74884   0.721   9.237   9.877 -0.2055 -0.3118 -0.7257
54985SOL    HW174885   0.662   9.200   9.944 -0.5505 -0.9458 -1.3576
54985SOL    HW274886   0.663   9.285   9.818  0.4842  3.6934  1.5252
54986SOL     OW74887   5.227   6.042   0.465  0.2057  0.4749 -0.2621
54986SOL    HW174888   5.256   5.954   0.442 -1.4125 -0.0592 -0.4267
54986SOL    HW274889   5.150   6.028   0.521 -0.0985  1.7823 -0.3061
54987SOL     OW74890   4.023   1.160   5.417 -0.7314 -0.0982  0.0770
54987SOL    HW174891   4.024   1.200   5.504 -1.9125 -3.2021  1.6681
54987SOL    HW274892   3.931   1.144   5.399 -0.6343  1.6630 -2.4450
54988SOL     OW74893   3.884   5.360   3.587  0.4219 -0.5085  0.7311
54988SOL    HW174894   3.797   5.397   3.574  0.4428 -0.8125 -0.3374
54988SOL    HW274895   3.869   5.266   3.597  0.5881 -0.5031  1.0659
54989SOL     OW74896   2.668   9.722   9.520  0.4797  0.0023 -0.5020
54989SOL    HW174897   2.648   9.635   9.555  0.3744  0.6154  1.0395
54989SOL    HW274898   2.698   9.772   9.596  2.1979  0.8403 -1.6684
54990SOL     OW74899  11.331  12.777   9.213  0.0143  0.6043 -0.6316
54990SOL    HW174900  11.314  12.862   9.172 -1.1616  0.8660  0.3446
54990SOL    HW274901  11.250  12.756   9.259  1.2402  0.3470  1.5731
54991SOL     OW74902   7.386  11.697   6.259 -0.0745 -0.0764 -0.0988
54991SOL    HW174903   7.464  11.692   6.314 -0.1525 -0.1244  0.0067
54991SOL    HW274904   7.374  11.791   6.243  1.8246 -0.1599 -2.6928
54992SOL     OW74905   7.825   9.053  11.011  0.1231  0.2769 -0.0993
54992SOL    HW174906   7.755   9.037  10.948 -0.8971  1.6984  0.6223
54992SOL    HW274907   7.808   8.992  11.083 -0.3452  0.5711  0.0415
54993SOL     OW74908  10.595   3.546   1.700  0.3122 -0.3249  0.5041
54993SOL    HW174909  10.511   3.570   1.661  0.3263 -0.9379  0.0603
54993SOL    HW274910  10.654   3.535   1.625  0.5420 -0.7909  0.7425
54994SOL     OW74911   4.753   1.005  12.485  0.4250  0.6531 -0.1238
54994SOL    HW174912   4.776   1.052  12.405 -0.0028  1.8793  0.4502
54994SOL    HW274913   4.687   0.942  12.458 -0.0629  1.3768 -0.6712
54995SOL     OW74914  10.702   9.546  13.315 -0.0907 -0.1982 -0.3439
54995SOL    HW174915  10.680   9.503  13.397 -2.5966  2.1235  0.3477
54995SOL    HW274916  10.762   9.617  13.340 -2.0977  1.5202 -0.1554
54996SOL     OW74917   7.593  12.487  12.971 -0.4945 -0.6358 -0.4554
54996SOL    HW174918   7.675  12.477  13.020  0.2894 -0.3059 -1.6342
54996SOL    HW274919   7.537  12.540  13.027  0.4379 -0.1139  0.0069
54997SOL     OW74920   4.987  10.969   9.707  0.0369 -0.2493  0.3565
54997SOL    HW174921   5.000  10.878   9.732  0.0942 -0.2401  0.3609
54997SOL    HW274922   4.924  11.003   9.770  0.5065 -0.1037  0.7634
54998SOL     OW74923   3.069   7.316   3.329 -0.8693 -0.5620  0.2927
54998SOL    HW174924   2.989   7.269   3.309 -1.3791  0.7360 -0.9060
54998SOL    HW274925   3.045   7.409   3.323  1.0632 -0.0944 -1.8017
54999SOL     OW74926   0.071   7.797   5.800  0.6560 -0.5559 -0.0704
54999SOL    HW174927   0.034   7.878   5.767 -0.2039 -1.8354 -2.4736
54999SOL    HW274928   0.008   7.768   5.867  1.4871  1.1603  1.5640
55000SOL     OW74929   6.370  12.374   3.922  0.2336  0.0271 -0.5499
55000SOL    HW174930   6.404  12.348   4.007 -0.5732  0.4992 -0.0679
55000SOL    HW274931   6.275  12.359   3.929 -0.2147  2.5405 -0.4197
55001SOL     OW74932   0.223   4.264   5.911  0.2549 -0.0283 -0.4342
55001SOL    HW174933   0.237   4.285   6.003  0.8672 -1.8831 -0.0592
55001SOL    HW274934   0.132   4.288   5.894 -1.2401 -3.3085  1.8161
55002SOL     OW74935   0.790   3.456   7.338  0.7361 -0.2333 -0.1459
55002SOL    HW174936   0.739   3.388   7.381  0.3633  0.5548  0.7049
55002SOL    HW274937   0.790   3.529   7.400  3.1369 -0.2883  0.0352
55003SOL     OW74938   0.456   7.499   1.450 -0.4193 -0.3926 -0.0837
55003SOL    HW174939   0.399   7.563   1.492  0.7342  1.1284 -0.7543
55003SOL    HW274940   0.407   7.470   1.373 -0.2323  1.0387 -0.7582
55004SOL     OW74941   5.226  11.458  12.405  0.2856  0.2826  0.1414
55004SOL    HW174942   5.249  11.454  12.312 -0.1562  0.2298  0.0316
55004SOL    HW274943   5.242  11.370  12.438  0.3223  0.2693  0.0886
55005SOL     OW74944   9.853   1.498   0.636  0.9532 -0.7321 -0.0091
55005SOL    HW174945   9.844   1.554   0.559 -0.3644 -0.3862  0.3757
55005SOL    HW274946   9.868   1.411   0.600 -0.6512 -0.7537 -0.6978
55006SOL     OW74947  13.262   7.744  10.211 -0.4350  0.0893 -0.0460
55006SOL    HW174948  13.203   7.816  10.189 -1.1382 -0.9681 -1.7825
55006SOL    HW274949  13.252   7.681  10.139  0.5412 -1.5145  1.1494
55007SOL     OW74950   5.120  12.257   0.649 -0.2626  0.4497  0.3220
55007SOL    HW174951   5.083  12.268   0.737  0.3357  1.4517  0.4753
55007SOL    HW274952   5.213  12.241   0.664 -0.1247  0.8023 -0.1278
55008SOL     OW74953  11.586  12.552   7.219  0.0231 -0.2536 -0.0064
55008SOL    HW174954  11.607  12.525   7.130 -1.7386  0.7396 -0.7711
55008SOL    HW274955  11.508  12.502   7.241 -0.2985  0.4451  0.4810
55009SOL     OW74956   6.890  11.028  11.020 -0.1112 -0.1414 -0.2128
55009SOL    HW174957   6.938  11.110  11.033  0.4572 -0.5218  0.1538
55009SOL    HW274958   6.837  11.019  11.100 -0.0793 -0.1878 -0.1959
55010SOL     OW74959   9.370   2.337   1.939  0.0417 -0.2959  0.1816
55010SOL    HW174960   9.343   2.341   2.031  2.1567 -0.6775  0.8887
55010SOL    HW274961   9.382   2.428   1.914  1.0550 -0.2325  0.8341
55011SOL     OW74962   1.035  11.816  11.205  0.2458 -0.0522  0.5500
55011SOL    HW174963   1.118  11.768  11.207  0.9903  1.2396  1.7048
55011SOL    HW274964   1.058  11.904  11.177 -0.7955  0.2213  0.5058
55012SOL     OW74965   2.309   0.269   5.476  0.6444  0.1246  0.1747
55012SOL    HW174966   2.232   0.239   5.427 -0.3319  1.6883  0.6618
55012SOL    HW274967   2.294   0.239   5.566  1.3644 -0.8665 -0.0238
55013SOL     OW74968   7.365  10.578   9.779  0.3221  0.4827  0.5650
55013SOL    HW174969   7.358  10.574   9.875  0.0588  2.7596  0.7061
55013SOL    HW274970   7.452  10.617   9.764  0.0546  0.8423 -0.0769
55014SOL     OW74971   7.394   7.355  11.747  0.2517 -0.0830 -0.0783
55014SOL    HW174972   7.337   7.357  11.671  0.1858 -0.6110 -0.0509
55014SOL    HW274973   7.394   7.263  11.774  0.2847  0.0988  0.5505
55015SOL     OW74974   2.800   2.493   1.462  0.4699 -0.0032  0.6976
55015SOL    HW174975   2.786   2.445   1.543  0.6650 -1.8424 -0.2975
55015SOL    HW274976   2.786   2.429   1.393 -0.0742  1.5966 -0.7668
55016SOL     OW74977  13.069  10.623   2.333 -0.0235  0.6531 -0.8197
55016SOL    HW174978  13.045  10.650   2.244 -0.9020 -1.3661 -1.2332
55016SOL    HW274979  12.986  10.624   2.381  0.2352  0.4591 -0.3682
55017SOL     OW74980   9.092   5.416   2.081  0.2888  0.2747  0.0455
55017SOL    HW174981   9.133   5.396   1.997  0.2844 -0.3162  0.1743
55017SOL    HW274982   9.039   5.494   2.065  0.3845  0.2325 -0.4698
55018SOL     OW74983  10.906   0.327   4.483 -0.8634  0.1048 -0.3705
55018SOL    HW174984  10.846   0.272   4.533 -0.7738  1.4274  1.2816
55018SOL    HW274985  10.936   0.393   4.545  2.7927 -0.8030 -0.9020
55019SOL     OW74986   4.419   3.596   0.082 -0.5447  0.2424  0.3233
55019SOL    HW174987   4.436   3.585   0.175 -1.2743 -0.8991  0.3443
55019SOL    HW274988   4.489   3.547   0.038 -0.8771 -0.2342  0.3107
55020SOL     OW74989   3.318   7.596   0.837 -0.2772 -0.0202 -0.2644
55020SOL    HW174990   3.252   7.649   0.882 -0.3857  0.0953 -0.5561
55020SOL    HW274991   3.400   7.643   0.853 -0.0033 -0.9957  1.4284
55021SOL     OW74992   5.963   1.695   7.986  0.1013 -0.1772 -0.4702
55021SOL    HW174993   5.903   1.747   7.932 -0.4138 -1.2966 -1.0039
55021SOL    HW274994   6.049   1.713   7.950 -0.3613 -2.1511 -2.8107
55022SOL     OW74995   4.659   5.342  11.311  0.1662 -0.2023 -0.3057
55022SOL    HW174996   4.728   5.313  11.370 -0.3850  3.2397  2.3460
55022SOL    HW274997   4.703   5.360  11.228  1.9384 -0.4261  0.5502
55023SOL     OW74998   0.470   1.981   6.911 -0.4559 -0.3774 -0.1662
55023SOL    HW174999   0.483   1.971   6.817 -4.1983 -1.7386 -0.7107
55023SOL    HW275000   0.447   1.894   6.942 -3.0393  0.6590  1.1839
55024SOL     OW75001   5.429  10.667  12.472  0.0196 -0.0946 -0.4620
55024SOL    HW175002   5.335  10.660  12.483 -0.1932  1.1638 -1.3175
55024SOL    HW275003   5.460  10.576  12.473 -1.0086 -0.4624  1.1995
55025SOL     OW75004   4.636   5.280   0.408  0.0681 -0.1427  0.0509
55025SOL    HW175005   4.633   5.345   0.478  1.4358 -2.4003  2.3744
55025SOL    HW275006   4.554   5.231   0.416  0.2488 -0.4372  0.1206
55026SOL     OW75007   8.524   8.178   8.240  0.0036 -0.5566 -0.1657
55026SOL    HW175008   8.499   8.209   8.327  0.4357 -1.3325  0.2503
55026SOL    HW275009   8.545   8.085   8.254 -0.0025 -0.7024 -1.1133
55027SOL     OW75010   9.399   7.041   0.084  0.1667  0.0603  0.2263
55027SOL    HW175011   9.460   6.968   0.077 -0.9833 -0.9036 -0.0043
55027SOL    HW275012   9.363   7.035   0.173  0.7746  0.9475  0.5527
55028SOL     OW75013   6.665  11.108   5.134  0.6479  0.3852  0.7255
55028SOL    HW175014   6.645  11.060   5.215  2.9612  1.1871  1.8556
55028SOL    HW275015   6.601  11.179   5.133 -2.1676 -1.9240 -0.4430
55029SOL     OW75016   4.666  12.614   4.566 -0.2278 -0.5652 -0.4163
55029SOL    HW175017   4.634  12.536   4.520 -1.1495 -0.5492  0.1595
55029SOL    HW275018   4.616  12.614   4.648 -0.1711  0.5885 -0.3768
55030SOL     OW75019   1.581   9.214   4.723  0.6431  0.3759  0.0191
55030SOL    HW175020   1.506   9.252   4.768 -0.7517 -1.4577 -0.6100
55030SOL    HW275021   1.598   9.132   4.771  0.6079 -0.4547 -1.3363
55031SOL     OW75022   5.748   2.701  11.073 -0.2191  0.0235  0.5237
55031SOL    HW175023   5.672   2.749  11.039  0.5145  1.0046  0.2090
55031SOL    HW275024   5.710   2.635  11.132 -1.2763  1.0405  1.0407
55032SOL     OW75025   9.787   8.145   6.847 -0.0690 -0.1940 -0.2943
55032SOL    HW175026   9.723   8.084   6.883  0.2892  0.1105  0.9088
55032SOL    HW275027   9.759   8.231   6.878  0.7582 -0.0279  0.0273
55033SOL     OW75028   8.492   8.184  11.650  0.0248  0.3050  0.1123
55033SOL    HW175029   8.580   8.196  11.686  0.3504 -2.3763  0.4522
55033SOL    HW275030   8.433   8.206  11.722  0.3747  2.0397 -0.0904
55034SOL     OW75031  11.213  12.364   9.652 -0.4906 -0.6063  0.3794
55034SOL    HW175032  11.224  12.312   9.573 -0.5091  0.2592 -0.2094
55034SOL    HW275033  11.247  12.308   9.722  0.8764 -0.8425 -0.4193
55035SOL     OW75034   3.233   0.314   6.426  0.3183  0.2433 -0.6764
55035SOL    HW175035   3.203   0.223   6.420 -0.1782  0.2068  1.4042
55035SOL    HW275036   3.200   0.355   6.347  0.6069 -1.3920 -1.7029
55036SOL     OW75037   1.565  11.923   5.007 -0.3445  0.5030  0.5167
55036SOL    HW175038   1.599  11.882   4.927 -1.3433 -1.4932  1.0499
55036SOL    HW275039   1.642  11.933   5.064 -0.1473 -1.2021  0.5860
55037SOL     OW75040  13.179   2.374   5.903  0.5170  0.6531  0.5570
55037SOL    HW175041  13.135   2.421   5.974 -0.7360  0.6674 -0.1961
55037SOL    HW275042  13.270   2.402   5.908  0.1551  1.7514  1.2662
55038SOL     OW75043   6.191   5.735   8.500 -0.0031 -0.1137 -0.2978
55038SOL    HW175044   6.099   5.707   8.494 -0.3625  1.1612 -1.1368
55038SOL    HW275045   6.225   5.725   8.411  1.1391 -1.9415  0.2720
55039SOL     OW75046   0.506   7.841   1.478 -0.3937  0.3963  0.0289
55039SOL    HW175047   0.497   7.760   1.528 -0.3273  1.0477  1.1556
55039SOL    HW275048   0.448   7.903   1.523 -2.1698  0.3978 -2.1470
55040SOL     OW75049   5.915   1.762  11.167  0.4032 -0.5897  0.1132
55040SOL    HW175050   5.906   1.695  11.099 -1.0640 -0.0174 -0.2989
55040SOL    HW275051   5.984   1.729  11.224 -1.6319 -3.5422  1.1304
55041SOL     OW75052   7.387  12.571   6.085 -0.0402 -0.4955  0.4068
55041SOL    HW175053   7.388  12.603   6.176 -0.1383  0.1483  0.1849
55041SOL    HW275054   7.466  12.517   6.078  1.6401  1.8388  0.0366
55042SOL     OW75055  11.796   8.186   5.466  0.6917 -0.1859  0.3064
55042SOL    HW175056  11.792   8.225   5.553 -1.3298 -0.7781  0.5233
55042SOL    HW275057  11.707   8.193   5.433  1.3792 -0.1506 -1.6605
55043SOL     OW75058   7.229   9.927   8.367 -0.5294 -0.0672 -0.3131
55043SOL    HW175059   7.174   9.850   8.377  0.1963 -0.5636 -0.1377
55043SOL    HW275060   7.298   9.917   8.432 -0.1830  0.5120 -0.5777
55044SOL     OW75061   6.896   1.466  11.757  0.3340 -0.5346  0.6875
55044SOL    HW175062   6.982   1.428  11.740  0.6488  0.3512  0.2513
55044SOL    HW275063   6.890   1.472  11.852  1.8256  1.7747  0.6880
55045SOL     OW75064   2.994   6.565   6.403 -0.5017 -0.5366 -0.0440
55045SOL    HW175065   3.021   6.565   6.494 -0.6326 -0.9845 -0.0003
55045SOL    HW275066   3.069   6.602   6.356 -0.9222  0.8705  0.3651
55046SOL     OW75067   0.437   6.634   1.352 -0.4016  0.4030  0.4252
55046SOL    HW175068   0.392   6.709   1.390 -1.0450  0.9173 -1.2488
55046SOL    HW275069   0.509   6.615   1.412 -1.1127  1.4265  1.6270
55047SOL     OW75070   1.500  11.380  12.356 -0.3665  0.2414  0.0153
55047SOL    HW175071   1.576  11.335  12.393 -0.9269 -0.6572  0.1073
55047SOL    HW275072   1.518  11.473  12.371  0.5626  0.0284  0.3224
55048SOL     OW75073   7.527  13.120  10.727 -0.1510 -0.1295 -0.5623
55048SOL    HW175074   7.490  13.195  10.772 -0.7561 -0.9007  0.2769
55048SOL    HW275075   7.474  13.046  10.758  3.9531 -1.9283  3.2810
55049SOL     OW75076   5.759  11.512   2.001 -0.0077  0.1856  0.3966
55049SOL    HW175077   5.838  11.482   1.957  0.0094 -0.1851  0.6765
55049SOL    HW275078   5.752  11.457   2.079  1.2594  2.3616  2.1532
55050SOL     OW75079   1.614   5.873  11.239  0.1581 -0.1703 -0.0059
55050SOL    HW175080   1.572   5.843  11.320 -2.5948  1.9325 -0.5084
55050SOL    HW275081   1.605   5.799  11.179 -3.5967  0.2471 -0.2504
55051SOL     OW75082  11.188   3.541   1.585  0.1649  0.0220 -0.0701
55051SOL    HW175083  11.182   3.455   1.625 -1.7725 -0.9635 -2.2491
55051SOL    HW275084  11.279   3.568   1.598  0.8763 -2.4192  0.4955
55052SOL     OW75085   2.612   0.740   4.243  0.1791 -0.4832  0.4251
55052SOL    HW175086   2.624   0.745   4.338 -0.6280 -1.5261  0.6043
55052SOL    HW275087   2.526   0.700   4.232  0.6659 -1.2634 -0.7403
55053SOL     OW75088   0.497  11.243   4.418  0.1226 -0.4867 -0.2577
55053SOL    HW175089   0.520  11.248   4.510 -0.8745 -1.1131  0.0380
55053SOL    HW275090   0.496  11.150   4.398 -1.5556 -0.4882 -0.3766
55054SOL     OW75091   6.436   9.437  11.066  0.4647 -0.8483  0.0631
55054SOL    HW175092   6.474   9.439  11.154  0.1079 -0.2745  0.2094
55054SOL    HW275093   6.363   9.376  11.073 -0.1363 -0.1146  0.4159
55055SOL     OW75094   7.820   7.335  11.693 -0.2076 -0.3338 -0.6030
55055SOL    HW175095   7.796   7.345  11.785  0.3763 -4.4871  0.2028
55055SOL    HW275096   7.824   7.425  11.659 -1.1992  1.3300  3.1708
55056SOL     OW75097   6.587  10.864  13.072  0.2071  0.1655 -0.0035
55056SOL    HW175098   6.638  10.864  13.153 -1.7500  0.0021  1.2824
55056SOL    HW275099   6.503  10.901  13.097 -0.1455  0.9772 -2.1928
55057SOL     OW75100  12.437   3.895   2.144  0.4715 -0.6744 -0.0562
55057SOL    HW175101  12.407   3.873   2.233  1.4392 -1.1606  0.1625
55057SOL    HW275102  12.368   3.861   2.087 -0.0948 -0.4776  0.4992
55058SOL     OW75103  10.851  10.583   0.347  0.0061 -0.6173  0.0517
55058SOL    HW175104  10.893  10.620   0.425 -0.3240  0.1761 -0.1438
55058SOL    HW275105  10.863  10.650   0.280 -1.3907 -0.4717 -0.0654
55059SOL     OW75106   9.184   7.565  10.016  0.2011  0.4911  0.1667
55059SOL    HW175107   9.188   7.649  10.062 -0.1637  0.6796 -0.1299
55059SOL    HW275108   9.270   7.527  10.027 -0.2529 -0.0546  2.0800
55060SOL     OW75109   4.988   1.871   6.382 -0.3955 -0.5331  0.3973
55060SOL    HW175110   5.075   1.896   6.349 -1.0592  0.5101 -0.6357
55060SOL    HW275111   4.998   1.869   6.478  0.7460 -0.3942  0.2928
55061SOL     OW75112  11.493   9.441   2.831 -0.4171  0.0789 -0.2736
55061SOL    HW175113  11.586   9.438   2.853  0.2120 -0.3398 -2.7145
55061SOL    HW275114  11.479   9.364   2.775 -2.1052  0.4577 -0.4275
55062SOL     OW75115   0.050   0.015   0.435  0.4901  0.0867 -0.0818
55062SOL    HW175116   0.007   0.096   0.465 -0.2944 -0.4526  0.2977
55062SOL    HW275117   0.095   0.040   0.355 -1.8265  0.3569 -1.3919
55063SOL     OW75118  12.865   4.216   7.591  0.6977 -0.1441 -0.2807
55063SOL    HW175119  12.897   4.267   7.665 -0.1212  0.2669 -0.2009
55063SOL    HW275120  12.917   4.136   7.593  3.9892  1.7590 -2.0533
55064SOL     OW75121   2.578   7.505  12.421 -0.3150 -0.1761 -0.0243
55064SOL    HW175122   2.514   7.561  12.464 -0.3620  0.5015 -0.9491
55064SOL    HW275123   2.540   7.417  12.425  0.2444 -0.3806  2.3907
55065SOL     OW75124   5.408   0.004   5.522  0.1775  0.6799 -0.3771
55065SOL    HW175125   5.440  -0.063   5.461  0.5375 -1.7551  2.2540
55065SOL    HW275126   5.457   0.083   5.499  0.9835 -0.3805 -2.5733
55066SOL     OW75127   9.794   9.179  11.084  0.4097 -0.0964  0.3325
55066SOL    HW175128   9.795   9.220  10.998  0.7180 -2.6284 -0.9796
55066SOL    HW275129   9.818   9.249  11.145  1.2577  1.5228 -1.7475
55067SOL     OW75130   6.463  11.527   1.221  0.7595  0.1210 -0.1561
55067SOL    HW175131   6.468  11.559   1.311  1.1418 -1.2993  0.3645
55067SOL    HW275132   6.447  11.605   1.168  0.9520  1.0418  1.0977
55068SOL     OW75133   9.974   4.047  11.160  0.9522  0.3183 -0.7439
55068SOL    HW175134  10.022   4.036  11.242 -0.8389  0.3577  0.3757
55068SOL    HW275135   9.974   3.960  11.121  1.3878  0.1828 -0.4554
55069SOL     OW75136   3.971   3.131  11.223 -0.4610  0.0009 -0.1031
55069SOL    HW175137   4.014   3.109  11.141 -1.6130  1.1959 -1.0794
55069SOL    HW275138   3.959   3.048  11.268  1.5663 -0.4977 -0.4300
55070SOL     OW75139  13.067   0.402  12.440 -0.1966 -0.0812  0.0200
55070SOL    HW175140  13.030   0.475  12.490 -1.1351 -1.9755  2.3262
55070SOL    HW275141  13.150   0.383  12.483  1.0837  0.9126 -1.9144
55071SOL     OW75142   1.441  12.482  11.127 -0.5600  0.2231 -0.4860
55071SOL    HW175143   1.455  12.390  11.103  0.4958  0.5914 -1.3502
55071SOL    HW275144   1.357  12.482  11.171 -0.3152 -1.2605  0.0490
55072SOL     OW75145   6.508  12.188   9.899  0.3990  0.2789 -0.4426
55072SOL    HW175146   6.498  12.112   9.841  1.8362 -0.1422 -0.2029
55072SOL    HW275147   6.560  12.250   9.848 -0.4942  0.9786 -0.5168
55073SOL     OW75148   6.383   1.415   7.202  0.2322 -0.1689  0.3282
55073SOL    HW175149   6.461   1.424   7.147  0.4874 -1.0990  0.5164
55073SOL    HW275150   6.375   1.320   7.216 -1.5731 -0.2195 -0.6379
55074SOL     OW75151   1.101   3.802   6.332  0.2651  0.5040  0.1287
55074SOL    HW175152   1.168   3.843   6.386  0.7272  1.6864 -1.2617
55074SOL    HW275153   1.035   3.870   6.320  0.3093  0.3692 -0.9878
55075SOL     OW75154   2.478   6.830  12.871  0.2730  0.0624  0.1113
55075SOL    HW175155   2.564   6.812  12.909  0.1237 -2.6301 -0.5839
55075SOL    HW275156   2.492   6.902  12.810  2.2237 -0.8211 -0.5520
55076SOL     OW75157  12.248   2.223   0.993 -0.1681  0.1329  0.1249
55076SOL    HW175158  12.176   2.163   0.971 -0.9158  1.0870 -0.1027
55076SOL    HW275159  12.319   2.198   0.933 -0.8525  0.1842 -0.7296
55077SOL     OW75160   6.685   6.935  10.077  0.1686 -0.3717 -0.1898
55077SOL    HW175161   6.698   6.844  10.101  1.1015 -0.0390  0.6106
55077SOL    HW275162   6.722   6.943   9.990  2.0459 -0.2963  0.5743
55078SOL     OW75163   8.323  12.129   7.545 -0.5421 -0.5389  0.2924
55078SOL    HW175164   8.378  12.203   7.520 -0.9838 -0.4329 -0.3746
55078SOL    HW275165   8.325  12.071   7.470 -0.6784 -0.9235  0.5828
55079SOL     OW75166  11.508   2.347  12.772 -0.1481  0.5787 -0.2870
55079SOL    HW175167  11.585   2.402  12.755  0.4046  0.2744  1.1043
55079SOL    HW275168  11.492   2.301  12.689  2.4308 -0.9126 -0.0535
55080SOL     OW75169   2.634   3.646  10.911  1.2339  0.3084 -0.1414
55080SOL    HW175170   2.595   3.706  10.847  1.0483  0.4624  0.1112
55080SOL    HW275171   2.668   3.574  10.859 -0.5180 -0.4692 -0.2875
55081SOL     OW75172   3.940   9.201   1.353 -0.2879  0.0002  0.1148
55081SOL    HW175173   3.942   9.204   1.258  0.0213 -0.6839  0.0970
55081SOL    HW275174   4.026   9.169   1.378 -0.3536  0.2161  0.6282
55082SOL     OW75175   8.601   2.535   0.023 -0.1058 -0.8845  0.1825
55082SOL    HW175176   8.638   2.491  -0.053 -0.0490 -0.4905 -0.0179
55082SOL    HW275177   8.650   2.499   0.097  0.2589 -0.8218 -0.0223
55083SOL     OW75178   7.367   2.574   1.010 -0.2980 -0.0288 -0.0091
55083SOL    HW175179   7.402   2.599   0.924 -0.0277  1.3136  0.4661
55083SOL    HW275180   7.312   2.498   0.992 -0.2620  0.2391 -1.3744
55084SOL     OW75181  11.376  12.010   1.186 -0.3224 -0.2139  0.8247
55084SOL    HW175182  11.449  11.968   1.232 -0.6247 -1.2645  0.3729
55084SOL    HW275183  11.349  12.081   1.244  0.6049 -0.2514  1.3215
55085SOL     OW75184  11.264   7.710  13.079 -0.2083 -0.3345  0.7857
55085SOL    HW175185  11.257   7.806  13.086 -1.2205 -0.3553  0.2447
55085SOL    HW275186  11.301   7.696  12.992  0.7160 -0.4245  1.1805
55086SOL     OW75187   4.090  10.205   0.019  0.1965 -0.2894  0.5355
55086SOL    HW175188   4.175  10.201   0.064 -0.6435  1.1594  2.4123
55086SOL    HW275189   4.077  10.298   0.001 -0.6253 -0.5923 -0.5315
55087SOL     OW75190   8.097  10.611   6.190  0.3029  0.2976 -0.1384
55087SOL    HW175191   8.180  10.614   6.142 -0.9850 -0.1864 -2.5213
55087SOL    HW275192   8.067  10.521   6.182 -0.0015  0.2005  1.6150
55088SOL     OW75193   4.386   4.799   6.138 -0.4068 -0.0182 -0.1633
55088SOL    HW175194   4.376   4.894   6.148 -1.3294 -0.2467  1.4526
55088SOL    HW275195   4.366   4.764   6.224 -0.3666 -1.7230 -0.8136
55089SOL     OW75196   8.750   6.733   3.163  0.0625 -0.2036  0.0016
55089SOL    HW175197   8.663   6.731   3.122 -0.0080 -0.5214  0.1607
55089SOL    HW275198   8.776   6.825   3.159 -0.0386 -0.1944 -0.5605
55090SOL     OW75199  10.238   4.076   2.363  0.0995 -0.6238  0.6045
55090SOL    HW175200  10.245   4.030   2.280  2.2838  0.1157  0.3049
55090SOL    HW275201  10.173   4.027   2.413 -1.6030 -0.8282 -1.6767
55091SOL     OW75202   3.322   6.265   9.480 -0.7929 -0.1327  0.5227
55091SOL    HW175203   3.231   6.244   9.459 -0.4580 -0.8803 -0.2399
55091SOL    HW275204   3.349   6.196   9.540  0.2228 -1.8624 -1.7690
55092SOL     OW75205  12.460   3.351  12.450 -0.4236 -0.0631  0.3155
55092SOL    HW175206  12.532   3.295  12.419 -0.8232  0.5513 -1.8652
55092SOL    HW275207  12.493   3.390  12.531  1.4525 -0.2834 -0.3015
55093SOL     OW75208   0.201   1.985   8.534  0.0264 -0.0083  0.2985
55093SOL    HW175209   0.214   2.027   8.449 -1.2892 -0.4820 -0.1555
55093SOL    HW275210   0.207   2.057   8.597 -2.2959  0.9517 -0.4747
55094SOL     OW75211   3.789   8.173   2.776 -0.6655  0.0259  0.1055
55094SOL    HW175212   3.788   8.117   2.698 -0.7360 -1.0258  0.8428
55094SOL    HW275213   3.857   8.237   2.759  2.8687 -3.1074  1.1367
55095SOL     OW75214   0.872   4.589   2.453  0.5796 -0.1198 -0.5972
55095SOL    HW175215   0.830   4.671   2.478 -0.0619 -0.2158 -1.3278
55095SOL    HW275216   0.814   4.551   2.387  0.9458 -1.0881 -0.3835
55096SOL     OW75217  12.415   7.959  12.026 -0.3693 -0.3069  0.0900
55096SOL    HW175218  12.500   7.950  11.983  0.6966  0.8101  1.8279
55096SOL    HW275219  12.418   7.895  12.097 -0.9332 -0.1625  0.2444
55097SOL     OW75220  10.617   9.840   1.425 -0.3453  0.1000  0.5587
55097SOL    HW175221  10.569   9.759   1.409 -2.7226  1.2054  1.6377
55097SOL    HW275222  10.686   9.841   1.358  0.8622 -3.5635  1.5258
55098SOL     OW75223   6.169   6.297  10.123  0.4883 -0.1843  0.4131
55098SOL    HW175224   6.223   6.234  10.075 -0.2472  0.6009 -1.5576
55098SOL    HW275225   6.108   6.331  10.057 -0.1810  1.4291  1.7944
55099SOL     OW75226  12.446   2.509  12.136  0.1595  0.7232 -0.4842
55099SOL    HW175227  12.491   2.430  12.107  0.2704  0.4623  0.3809
55099SOL    HW275228  12.414   2.488  12.223  1.7122  2.2190  0.5074
55100SOL     OW75229   2.587  11.206   5.196 -0.1734  0.3169 -0.2759
55100SOL    HW175230   2.519  11.168   5.140 -0.5308  0.3756  0.1135
55100SOL    HW275231   2.633  11.269   5.140 -0.7272  0.6014 -0.4121
55101SOL     OW75232  10.442  12.900   0.994 -0.3672 -0.6305 -0.5454
55101SOL    HW175233  10.532  12.917   0.964 -0.6935 -0.3968 -1.4267
55101SOL    HW275234  10.443  12.922   1.087  0.8843 -2.1341 -0.1685
55102SOL     OW75235   5.105   1.732   4.208  0.1713 -0.7215  0.4630
55102SOL    HW175236   5.028   1.782   4.183  1.0076 -0.4477 -1.8483
55102SOL    HW275237   5.166   1.797   4.242  0.7087 -0.3102 -1.1738
55103SOL     OW75238  13.275   2.048   8.206  0.5776  0.0345 -0.1594
55103SOL    HW175239  13.321   2.106   8.266  1.0227 -0.3067 -0.1684
55103SOL    HW275240  13.342   2.014   8.148  0.2917 -0.3250 -0.2884
55104SOL     OW75241   5.057   9.955   2.963  0.4889 -0.3416  0.2953
55104SOL    HW175242   4.971   9.948   2.921  0.7475 -0.5848 -0.2122
55104SOL    HW275243   5.102  10.024   2.914  0.6697 -0.3872  0.3966
55105SOL     OW75244   3.275   7.632   8.384 -0.4579 -0.1286 -0.4249
55105SOL    HW175245   3.318   7.577   8.318  1.1645  2.1158 -1.3567
55105SOL    HW275246   3.338   7.640   8.455 -0.5246  0.7575 -0.4496
55106SOL     OW75247   6.870   2.121   0.654 -0.2989 -0.1528 -0.1236
55106SOL    HW175248   6.854   2.120   0.749 -0.4870 -2.1483 -0.1319
55106SOL    HW275249   6.922   2.042   0.638  1.4741  1.2208 -1.4308
55107SOL     OW75250   0.511   0.966  11.446 -0.0397 -0.5659  0.1380
55107SOL    HW175251   0.457   0.996  11.374 -1.2743  0.4582  1.4357
55107SOL    HW275252   0.502   0.871  11.445 -0.8840 -0.4902 -0.4222
55108SOL     OW75253   6.034   6.926   6.302  0.0086 -0.4103 -0.1681
55108SOL    HW175254   6.082   6.863   6.355  0.5402  0.6203  0.6156
55108SOL    HW275255   5.972   6.873   6.252  0.3150 -1.5260  0.5976
55109SOL     OW75256   5.273  10.654   5.774  0.5162 -0.2216  0.0247
55109SOL    HW175257   5.237  10.579   5.727  0.8415  0.1725 -0.8638
55109SOL    HW275258   5.327  10.615   5.843  1.8390 -0.8427 -1.3056
55110SOL     OW75259   5.709  11.792   0.882  0.3668 -0.2142  0.4005
55110SOL    HW175260   5.732  11.808   0.973  1.5742  0.5791 -0.0320
55110SOL    HW275261   5.632  11.847   0.866  1.5354  1.4447  0.3111
55111SOL     OW75262   2.028   4.745   1.652  0.2690 -0.1258  0.4956
55111SOL    HW175263   1.988   4.755   1.565  0.8650 -1.1175  0.0927
55111SOL    HW275264   2.122   4.746   1.635  0.5378  3.1867  1.5395
55112SOL     OW75265   5.831  11.820   1.122 -0.3355  0.7664 -0.0196
55112SOL    HW175266   5.916  11.780   1.103 -0.7001 -1.0254  1.7679
55112SOL    HW275267   5.846  11.870   1.203 -1.1487 -0.4230  0.9147
55113SOL     OW75268  12.639  11.267   8.794 -0.1044 -0.2140  0.1793
55113SOL    HW175269  12.712  11.240   8.739  0.7514 -0.4337  1.3838
55113SOL    HW275270  12.593  11.185   8.814  1.1767 -0.5487  1.9803
55114SOL     OW75271  11.743   9.059   3.474  0.1042 -0.2919  0.3180
55114SOL    HW175272  11.685   9.135   3.483  1.1013  0.6597 -0.9988
55114SOL    HW275273  11.721   9.004   3.549 -1.5475  0.6741  0.6009
55115SOL     OW75274   6.248   2.924   1.086 -0.1022  0.0909 -0.2633
55115SOL    HW175275   6.170   2.966   1.050  0.9083  1.2135 -1.2309
55115SOL    HW275276   6.297   2.894   1.009  0.0433 -1.3301  0.3564
55116SOL     OW75277  12.844   7.647   5.849  0.3917  0.3020 -0.4546
55116SOL    HW175278  12.791   7.622   5.774 -0.4906 -1.0853  0.5717
55116SOL    HW275279  12.894   7.568   5.870 -1.3063 -0.2556  1.9501
55117SOL     OW75280   2.669   7.095   9.784 -0.4639  0.5245 -0.6056
55117SOL    HW175281   2.715   7.082   9.867 -2.0588 -0.7858  0.1260
55117SOL    HW275282   2.581   7.120   9.809 -0.7004  1.0844 -1.9417
55118SOL     OW75283   0.839  12.812   2.343  0.2078  0.1331  0.6726
55118SOL    HW175284   0.819  12.724   2.376 -0.5955  0.0985  0.1197
55118SOL    HW275285   0.931  12.825   2.363  0.7912 -1.5166 -0.7422
55119SOL     OW75286   8.416   0.093   6.051  0.1963 -0.3857 -0.3191
55119SOL    HW175287   8.380   0.085   6.139 -0.4486 -0.0925 -0.5469
55119SOL    HW275288   8.380   0.019   6.003  1.9952 -1.6086  0.1152
55120SOL     OW75289   3.084  10.981   8.191 -0.2680 -0.3882  0.2845
55120SOL    HW175290   3.121  10.924   8.258 -0.5381 -0.9516 -0.0421
55120SOL    HW275291   2.991  10.985   8.211 -0.1367  0.6184  0.7988
55121SOL     OW75292   0.659   8.679   9.399 -0.4310  0.1241 -0.3709
55121SOL    HW175293   0.716   8.638   9.464 -0.7015 -2.1620 -1.4751
55121SOL    HW275294   0.571   8.672   9.436 -0.3206  1.2491  0.1527
55122SOL     OW75295  12.293   2.081   5.906 -0.2289 -0.6701 -0.2622
55122SOL    HW175296  12.267   2.040   5.824 -1.0958  0.5361 -0.6279
55122SOL    HW275297  12.247   2.166   5.906  0.0388 -0.4909  1.2968
55123SOL     OW75298  10.335   1.323   5.752 -0.7467  0.1516  0.7650
55123SOL    HW175299  10.424   1.351   5.733 -0.7053  0.4086  1.3272
55123SOL    HW275300  10.291   1.322   5.667  0.3845 -2.1489  0.1457
55124SOL     OW75301   3.321   6.701  10.440  0.1299  0.0172 -0.2019
55124SOL    HW175302   3.416   6.699  10.444  0.1332  0.5550  0.0258
55124SOL    HW275303   3.299   6.793  10.420 -0.2774 -0.4061 -1.9281
55125SOL     OW75304   1.684   6.872  12.067  0.1011  0.0109  0.3833
55125SOL    HW175305   1.718   6.851  12.154  0.0937  1.1478  0.6852
55125SOL    HW275306   1.748   6.835  12.006 -0.4469 -1.7277  0.8353
55126SOL     OW75307  10.810   8.795  11.518  0.0969  0.3762  0.3059
55126SOL    HW175308  10.741   8.770  11.458  2.4054  0.5771 -2.6631
55126SOL    HW275309  10.787   8.884  11.546 -0.7969  0.4769 -0.7056
55127SOL     OW75310   6.259   8.825   9.503  0.1754 -0.2378 -0.2201
55127SOL    HW175311   6.247   8.818   9.598  1.0775 -0.5057 -0.1156
55127SOL    HW275312   6.349   8.799   9.488  0.3618  0.8037 -1.0540
55128SOL     OW75313   9.995  11.352   6.926  0.1785  1.0464  0.1696
55128SOL    HW175314  10.067  11.348   6.864  0.3441 -0.6120  0.4112
55128SOL    HW275315   9.970  11.260   6.940  0.3103  1.3267  2.7301
55129SOL     OW75316   2.274  12.015   6.534  0.1778 -0.1336  0.3131
55129SOL    HW175317   2.187  11.977   6.545  0.7669 -1.3056  1.2081
55129SOL    HW275318   2.320  11.993   6.615  0.3736  3.1984  1.2393
55130SOL     OW75319  12.365   3.983   1.007  0.1219 -0.5499  0.4015
55130SOL    HW175320  12.461   3.979   1.012  0.1986  1.1437  1.2030
55130SOL    HW275321  12.344   3.950   0.920  1.3651 -1.7062  0.5092
55131SOL     OW75322   0.659  11.327  11.147  0.2269 -0.3708 -0.1001
55131SOL    HW175323   0.613  11.262  11.094 -0.6586  0.3672 -0.2596
55131SOL    HW275324   0.617  11.410  11.125  1.6642  0.3308 -0.2604
55132SOL     OW75325  12.334   0.926  11.264 -0.6877  0.1194  0.3156
55132SOL    HW175326  12.410   0.875  11.237 -0.6491  0.9897 -1.3755
55132SOL    HW275327  12.282   0.866  11.318  0.6380 -0.8325  0.5816
55133SOL     OW75328  11.003   1.075   1.074  0.2175 -0.2858 -0.0691
55133SOL    HW175329  10.929   1.136   1.068 -0.7353 -1.5142 -1.6870
55133SOL    HW275330  11.009   1.054   1.167 -0.8239  0.6117  0.2302
55134SOL     OW75331  10.076  10.145   3.412 -0.3952  0.6666  0.4294
55134SOL    HW175332  10.095  10.160   3.320 -1.0292  0.6774  0.2935
55134SOL    HW275333  10.008  10.078   3.412 -1.4079  1.6659  0.8212
55135SOL     OW75334   5.620  13.221   3.723 -0.0344  0.3351 -0.3198
55135SOL    HW175335   5.582  13.275   3.654 -0.8909  0.2557  0.0816
55135SOL    HW275336   5.610  13.131   3.692 -1.6868  0.2120  0.5113
55136SOL     OW75337  10.692  12.985  10.785  0.1435  0.2251 -0.0400
55136SOL    HW175338  10.724  12.920  10.847  0.1555  1.4063  1.2397
55136SOL    HW275339  10.739  12.965  10.703  0.7605 -0.8422  0.5509
55137SOL     OW75340   4.486   6.391   1.796  0.8442  0.6796  0.7023
55137SOL    HW175341   4.563   6.335   1.786  0.3177  0.0884 -0.1852
55137SOL    HW275342   4.444   6.390   1.710 -0.6690  0.2233  1.4010
55138SOL     OW75343   5.447   7.947   6.912 -0.1435 -0.0381 -0.4744
55138SOL    HW175344   5.374   7.986   6.959 -0.1297 -0.2962 -0.2372
55138SOL    HW275345   5.425   7.854   6.906  0.7664 -0.3551  0.7391
55139SOL     OW75346  12.848   3.126   0.198  0.4311 -0.1036  0.7303
55139SOL    HW175347  12.873   3.065   0.267 -0.3494 -0.5779  0.6038
55139SOL    HW275348  12.780   3.180   0.237  0.4468  0.0511  0.5425
55140SOL     OW75349   1.243   5.346   4.965  0.2017 -0.4273 -0.1308
55140SOL    HW175350   1.300   5.411   5.006  0.7906 -0.3031 -1.1125
55140SOL    HW275351   1.269   5.263   5.004 -1.2498 -0.0119  1.9018
55141SOL     OW75352   1.604   1.225  11.786  0.3231  0.7162  0.2917
55141SOL    HW175353   1.536   1.229  11.853 -0.3699 -0.5271 -0.3123
55141SOL    HW275354   1.673   1.171  11.826  0.8821  1.7863  0.8151
55142SOL     OW75355   0.611   6.511   1.527 -0.2430 -0.3358 -0.2818
55142SOL    HW175356   0.622   6.547   1.615  0.7972 -2.5913  0.5906
55142SOL    HW275357   0.698   6.519   1.486  1.0186 -4.5847  1.1379
55143SOL     OW75358   9.023   1.332  12.856  0.4892 -0.8764 -0.7255
55143SOL    HW175359   9.058   1.266  12.796  1.3903 -1.6609  0.6012
55143SOL    HW275360   8.987   1.282  12.929 -0.1030  0.0588 -0.3561
55144SOL     OW75361   8.086   7.020  12.926  0.5011  0.1357 -0.1231
55144SOL    HW175362   8.016   7.038  12.863 -0.7683  0.5763  1.3453
55144SOL    HW275363   8.156   6.981  12.873 -0.3222  0.8783 -1.8586
55145SOL     OW75364   5.850  12.132  10.945 -0.4211  0.1882  0.9338
55145SOL    HW175365   5.817  12.062  11.001 -1.9508  1.1053  1.2268
55145SOL    HW275366   5.945  12.116  10.940 -0.7419 -1.9877  0.8204
55146SOL     OW75367  10.661  12.529   8.737 -0.1651  0.2786  0.6141
55146SOL    HW175368  10.736  12.487   8.781  0.0183 -0.1746 -0.1126
55146SOL    HW275369  10.596  12.459   8.729 -1.7979  1.2526  3.5973
55147SOL     OW75370   8.659   0.520   3.459  0.6739 -0.4539  0.2924
55147SOL    HW175371   8.595   0.563   3.403  0.2019  1.1680  1.9497
55147SOL    HW275372   8.744   0.542   3.421  0.3321 -1.2844 -1.0184
55148SOL     OW75373  10.535   3.904   0.783  0.2155  0.0412 -0.2688
55148SOL    HW175374  10.498   3.921   0.870  2.0021  2.0312  0.1793
55148SOL    HW275375  10.459   3.901   0.726 -0.9566 -0.6207  1.2347
55149SOL     OW75376   1.146   1.329   1.453 -0.0072  0.4393  0.5495
55149SOL    HW175377   1.076   1.395   1.453 -0.9352 -0.1948 -3.9825
55149SOL    HW275378   1.106   1.253   1.495 -1.2705  0.8040  0.0690
55150SOL     OW75379   7.837  10.238   1.844 -0.5054  0.2147  0.0768
55150SOL    HW175380   7.806  10.309   1.788  1.1184  0.9990  0.1231
55150SOL    HW275381   7.794  10.253   1.928 -1.6373  0.0121 -0.4412
55151SOL     OW75382   6.479  10.855   2.614 -0.1249 -0.0268  0.1513
55151SOL    HW175383   6.404  10.797   2.601  0.5787 -1.1995  1.0857
55151SOL    HW275384   6.545  10.799   2.656  1.1464  1.0608 -0.3316
55152SOL     OW75385  12.387  12.512   8.823  0.0088  0.2418 -0.6600
55152SOL    HW175386  12.437  12.517   8.741 -0.4779  0.0278 -0.9741
55152SOL    HW275387  12.300  12.485   8.796  0.0467 -0.5946  0.0164
55153SOL     OW75388  10.813   3.368   4.854 -0.5105 -0.0706  0.0292
55153SOL    HW175389  10.814   3.318   4.936 -1.4667 -1.2033 -0.6114
55153SOL    HW275390  10.759   3.315   4.795  2.2162 -0.6287 -2.1697
55154SOL     OW75391   1.216  11.645   0.498  0.0956 -0.2760 -0.2269
55154SOL    HW175392   1.201  11.584   0.570  0.4824  0.1887  0.2635
55154SOL    HW275393   1.192  11.731   0.535  2.5851  0.3250  0.1726
55155SOL     OW75394   0.569   3.749   3.772  0.5868  0.2192  0.0333
55155SOL    HW175395   0.553   3.655   3.759  0.8488  0.3801 -1.5930
55155SOL    HW275396   0.660   3.762   3.746  0.5820  0.9145  0.3434
55156SOL     OW75397   8.249   4.192   3.745  0.4810  0.2073  0.1926
55156SOL    HW175398   8.285   4.104   3.750 -0.4011 -0.1557  0.2089
55156SOL    HW275399   8.325   4.249   3.759  0.8186 -0.5596  1.7655
55157SOL     OW75400   1.984   6.894   3.604  0.2151  0.3910 -0.4506
55157SOL    HW175401   1.957   6.972   3.555  0.0625 -0.4709 -1.8071
55157SOL    HW275402   1.902   6.860   3.640 -0.1427 -0.5749 -2.0778
55158SOL     OW75403  11.748   8.455   5.999 -0.1786 -0.0134  0.2900
55158SOL    HW175404  11.824   8.428   5.948 -0.8484  1.6733 -1.7229
55158SOL    HW275405  11.764   8.546   6.021 -2.5962  1.1489 -2.2762
55159SOL     OW75406   2.237   3.561  10.807 -0.4972  0.1959 -0.1184
55159SOL    HW175407   2.225   3.648  10.845 -1.2763  0.3588 -0.7206
55159SOL    HW275408   2.161   3.549  10.750 -0.1031 -0.6482 -0.4787
55160SOL     OW75409  11.101   7.941  12.806 -0.0348  0.2823  0.3437
55160SOL    HW175410  11.014   7.935  12.844 -0.5679  0.8124 -0.7360
55160SOL    HW275411  11.160   7.951  12.881 -0.9125  0.0893  1.0739
55161SOL     OW75412   2.129   7.738   5.695 -0.7296  0.2314  0.4002
55161SOL    HW175413   2.209   7.738   5.748 -1.0565  1.3355  0.9238
55161SOL    HW275414   2.060   7.764   5.756 -1.1458  1.3468 -0.5051
55162SOL     OW75415  11.782   3.111   2.694 -0.9938 -0.0249  0.5041
55162SOL    HW175416  11.748   3.184   2.641  0.0535 -0.1917 -0.4215
55162SOL    HW275417  11.836   3.060   2.634  0.9421  0.2373  1.9176
55163SOL     OW75418  10.543   4.895   9.801 -0.1062 -0.5439  0.4788
55163SOL    HW175419  10.471   4.836   9.779  0.8139 -1.4916 -0.1529
55163SOL    HW275420  10.533   4.969   9.741 -1.3936  0.0811  1.4196
55164SOL     OW75421   6.226   2.912   5.877  0.3458 -0.2090  0.1862
55164SOL    HW175422   6.252   2.820   5.881  1.4084  0.0612 -0.1066
55164SOL    HW275423   6.217   2.931   5.784 -0.6349 -0.2014  0.2670
55165SOL     OW75424  12.567   7.873  12.612  0.2858 -0.3235  0.2358
55165SOL    HW175425  12.596   7.787  12.642 -1.6827 -0.3819  2.2088
55165SOL    HW275426  12.476   7.860  12.585  0.6161  0.7355 -1.6113
55166SOL     OW75427  11.970   1.462   5.330 -0.0005  0.0256 -0.4218
55166SOL    HW175428  11.911   1.416   5.390  0.3292  1.1748  0.8254
55166SOL    HW275429  12.035   1.397   5.306 -1.0145 -0.8910 -0.7895
55167SOL     OW75430   3.302  12.947   0.122 -0.3037  0.1284 -0.7184
55167SOL    HW175431   3.239  12.891   0.076 -1.1381  0.9155 -0.5639
55167SOL    HW275432   3.267  13.035   0.113  2.1490  1.0279 -2.9485
55168SOL     OW75433  10.541   1.901  12.984 -0.4444 -0.0760 -0.0531
55168SOL    HW175434  10.520   1.980  12.933 -0.7961 -0.0400  0.1469
55168SOL    HW275435  10.488   1.909  13.064 -0.1779 -0.3183  0.1483
55169SOL     OW75436   8.189   9.126   8.988 -0.3360 -0.1211  0.0745
55169SOL    HW175437   8.167   9.193   9.052  1.1451  1.3169 -0.8539
55169SOL    HW275438   8.284   9.119   8.993 -0.4398 -2.0711  0.0247
55170SOL     OW75439   4.314   8.999   4.024  0.0289 -1.1495 -0.0203
55170SOL    HW175440   4.257   8.928   4.051 -0.9190 -0.2082  0.5440
55170SOL    HW275441   4.264   9.079   4.044  0.9011 -0.3333 -0.9678
55171SOL     OW75442   2.090   3.224  13.221 -0.1723 -0.1606 -0.2612
55171SOL    HW175443   2.078   3.174  13.302  0.0421 -1.6123 -1.0998
55171SOL    HW275444   2.183   3.245  13.220 -0.3582  0.7899  0.3638
55172SOL     OW75445  12.529   2.588   6.610 -0.2163 -0.3119 -0.4163
55172SOL    HW175446  12.524   2.493   6.620 -1.6836 -0.3293 -1.0788
55172SOL    HW275447  12.604   2.602   6.552  2.0837 -0.8079  2.2220
55173SOL     OW75448   2.102  10.546  12.465  0.4471  0.5352 -0.5213
55173SOL    HW175449   2.136  10.621  12.513  0.7685 -0.4542  0.8408
55173SOL    HW275450   2.042  10.503  12.526 -0.3144  0.0872 -1.5440
55174SOL     OW75451   6.636   2.538  11.368  0.1881  0.0975  0.8267
55174SOL    HW175452   6.620   2.632  11.377 -0.1954 -0.0230  1.3883
55174SOL    HW275453   6.668   2.511  11.453  4.2147  0.4620 -0.3490
55175SOL     OW75454   0.632   5.849   4.446  0.0971  0.0315  0.4501
55175SOL    HW175455   0.582   5.768   4.453  2.1230 -1.3153  0.1787
55175SOL    HW275456   0.719   5.827   4.480  0.4385  2.3753  1.2810
55176SOL     OW75457  11.900   5.516  11.022 -0.7708  0.3920 -0.4189
55176SOL    HW175458  11.886   5.558  11.106 -0.9663 -0.2497 -0.1268
55176SOL    HW275459  11.823   5.461  11.009 -1.4887  1.6192 -1.7244
55177SOL     OW75460   3.558   8.995   2.549 -0.5543  0.2945  0.0391
55177SOL    HW175461   3.611   9.070   2.524 -0.4758  0.6455  1.2274
55177SOL    HW275462   3.478   9.004   2.496 -0.7981  1.5405  0.5791
55178SOL     OW75463  13.226   1.911   2.228  0.1714 -0.2337  0.0938
55178SOL    HW175464  13.191   1.903   2.139 -1.5766  0.3433  0.6876
55178SOL    HW275465  13.236   2.006   2.240  0.3904 -0.3105  0.5145
55179SOL     OW75466  12.180   8.733   1.311 -0.2164 -0.3228  0.2380
55179SOL    HW175467  12.243   8.770   1.374  0.5868  0.3028 -0.8941
55179SOL    HW275468  12.116   8.803   1.297  0.0019 -0.2033 -0.1650
55180SOL     OW75469  10.795   6.124   6.334 -0.0518 -0.2768  0.6017
55180SOL    HW175470  10.873   6.109   6.281  0.0827 -3.1489  1.4455
55180SOL    HW275471  10.828   6.155   6.418 -0.0442  1.0215  0.1420
55181SOL     OW75472   4.319   5.815  11.961  0.2822  0.4362 -0.2095
55181SOL    HW175473   4.234   5.842  11.926  0.4677  0.6330 -0.5184
55181SOL    HW275474   4.298   5.754  12.031 -0.1371  0.9903  0.1573
55182SOL     OW75475   9.073   4.788  10.081  0.3160  0.1437 -0.6849
55182SOL    HW175476   9.118   4.847  10.141  0.6208 -1.2275  0.4908
55182SOL    HW275477   9.008   4.843  10.037 -0.3899  1.0807  1.3960
55183SOL     OW75478   0.264   9.467  13.253  0.1001  0.4383 -0.1502
55183SOL    HW175479   0.356   9.445  13.257 -0.3119 -1.5272 -0.6131
55183SOL    HW275480   0.222   9.391  13.213 -1.7042  1.3415 -0.0970
55184SOL     OW75481   3.317   5.860   6.380  0.1294  0.0724 -0.1653
55184SOL    HW175482   3.292   5.866   6.288  0.8721  1.7602 -0.2926
55184SOL    HW275483   3.412   5.848   6.378 -0.0325 -1.5638  0.3824
55185SOL     OW75484   9.220  10.459  10.030 -0.6707  0.3239 -0.4022
55185SOL    HW175485   9.207  10.371  10.067 -0.2570  0.1833 -0.5886
55185SOL    HW275486   9.212  10.518  10.105  0.7209 -0.0021  0.0271
55186SOL     OW75487   5.591   2.621   5.290  0.3158 -0.0203 -0.6972
55186SOL    HW175488   5.521   2.676   5.255  0.5269  0.9739  0.3458
55186SOL    HW275489   5.550   2.536   5.306 -0.3625  0.2173 -1.1462
55187SOL     OW75490   4.949   4.286  12.538 -0.0253  0.0758  0.0253
55187SOL    HW175491   4.904   4.362  12.574  1.1223  0.0795  1.5760
55187SOL    HW275492   4.882   4.217  12.537 -0.6089  0.6317  0.3210
55188SOL     OW75493   6.152   9.085   6.450  0.0911 -1.4469 -0.0118
55188SOL    HW175494   6.112   9.108   6.534 -1.5123 -0.1732 -1.0520
55188SOL    HW275495   6.080   9.050   6.398  0.5046 -0.0770 -1.5973
55189SOL     OW75496   8.891   6.912  12.420  0.5079  0.4719  0.3947
55189SOL    HW175497   8.957   6.976  12.444 -0.2229  2.4975 -2.4884
55189SOL    HW275498   8.810   6.962  12.411 -0.0589 -0.7416 -2.2041
55190SOL     OW75499   5.627  10.133  12.675  0.3405  0.8179 -0.3356
55190SOL    HW175500   5.635  10.227  12.691 -0.9440  0.9135 -0.1642
55190SOL    HW275501   5.706  10.110  12.626  2.5461  1.2654  2.6938
55191SOL     OW75502   9.143   5.174  12.014 -0.5437 -0.1189 -0.4950
55191SOL    HW175503   9.168   5.100  12.069 -1.2777 -1.3095 -1.7007
55191SOL    HW275504   9.226   5.210  11.984 -0.1332  0.5189  1.2998
55192SOL     OW75505   7.872   1.797   2.858 -0.0597 -0.2843  0.4298
55192SOL    HW175506   7.860   1.786   2.764  0.6960 -1.0368  0.4079
55192SOL    HW275507   7.808   1.863   2.883  0.4549  0.7079 -0.7864
55193SOL     OW75508   4.092   4.535   7.957  0.6197  0.4842  0.0256
55193SOL    HW175509   4.172   4.502   7.996  0.5374  1.0730  0.7110
55193SOL    HW275510   4.119   4.571   7.873  1.2229  1.4382  0.6174
55194SOL     OW75511   3.604  10.036   3.245 -0.0522 -0.4636  0.1120
55194SOL    HW175512   3.628  10.084   3.166 -1.7706 -0.4347 -0.4142
55194SOL    HW275513   3.656  10.078   3.314  1.0038 -0.0804 -0.8669
55195SOL     OW75514  11.873   8.259  10.334  0.1551  0.0618  0.2989
55195SOL    HW175515  11.955   8.284  10.291 -0.5314 -0.3531 -1.3305
55195SOL    HW275516  11.876   8.163  10.336 -0.0978  0.0609  0.6447
55196SOL     OW75517  12.744   6.122   3.254  0.3510  0.1538 -0.2366
55196SOL    HW175518  12.750   6.072   3.335  0.2427 -0.2219 -0.4580
55196SOL    HW275519  12.675   6.187   3.270 -0.2907 -0.4949 -0.3304
55197SOL     OW75520   9.946  10.897  12.713 -0.1341 -0.2855  0.3165
55197SOL    HW175521   9.964  10.911  12.806  1.6617  0.4231 -0.0922
55197SOL    HW275522  10.020  10.844  12.682 -0.4873 -0.1615 -0.7836
55198SOL     OW75523  13.227  12.519   2.753 -0.1682 -0.0015  0.2151
55198SOL    HW175524  13.169  12.452   2.718 -0.9892  0.8466 -0.0810
55198SOL    HW275525  13.296  12.470   2.797 -1.6644 -1.0377  1.5171
55199SOL     OW75526   2.535   4.185   6.224  0.3841 -0.1859  0.0995
55199SOL    HW175527   2.533   4.093   6.197 -0.1730 -0.0023 -0.5168
55199SOL    HW275528   2.618   4.194   6.271  0.1435 -1.1535  0.7337
55200SOL     OW75529   5.841   7.240   0.984  0.2630  0.0721  0.4086
55200SOL    HW175530   5.768   7.227   1.045 -0.3788  1.1529 -0.1087
55200SOL    HW275531   5.865   7.332   0.994  0.7775  0.0186 -0.2764
55201SOL     OW75532   3.994  10.072   7.904 -0.3371  0.4738  0.4153
55201SOL    HW175533   4.072  10.029   7.870 -2.0500 -1.3458 -1.4495
55201SOL    HW275534   4.008  10.166   7.888  0.5408 -0.0085 -1.9459
55202SOL     OW75535   0.667   1.371   3.490  0.1621  0.5107  0.0748
55202SOL    HW175536   0.614   1.451   3.497  0.9704  1.3021 -1.9412
55202SOL    HW275537   0.670   1.354   3.396  0.5183 -1.5804  0.4345
55203SOL     OW75538  11.417   5.824   9.490  0.1837  0.0883 -0.0017
55203SOL    HW175539  11.349   5.768   9.453 -1.8266  1.6236  1.1922
55203SOL    HW275540  11.397   5.911   9.458  1.1829  0.6943  0.9297
55204SOL     OW75541  10.375   9.109   0.546  0.5970  0.0728  0.2774
55204SOL    HW175542  10.304   9.052   0.519  1.6356 -1.3076  0.3646
55204SOL    HW275543  10.340   9.158   0.620 -0.7528  0.5496 -0.6497
55205SOL     OW75544   6.780  10.058   3.082 -0.2050  0.4780  0.1053
55205SOL    HW175545   6.708  10.118   3.100 -0.8297  0.2483 -1.4757
55205SOL    HW275546   6.838  10.067   3.157 -1.2419  1.6266  0.8024
55206SOL     OW75547   8.974   1.943   1.572 -0.0847 -0.0267 -0.8618
55206SOL    HW175548   9.015   1.859   1.592 -0.3879  0.0762  0.2668
55206SOL    HW275549   8.903   1.950   1.635  2.2492  2.7789  1.7668
55207SOL     OW75550  12.654   6.739   3.947  0.3587  0.1798  0.1373
55207SOL    HW175551  12.615   6.825   3.929 -0.5721  0.3266  2.5170
55207SOL    HW275552  12.712   6.723   3.872 -0.7322  2.0893 -1.2086
55208SOL     OW75553   6.343   2.482   1.717 -0.4153  0.3957 -0.0060
55208SOL    HW175554   6.250   2.473   1.737 -0.2085 -1.1222  0.3571
55208SOL    HW275555   6.386   2.477   1.803  0.0527  0.2404 -0.2478
55209SOL     OW75556   1.259   3.552   3.587 -0.2155 -0.1746  0.7623
55209SOL    HW175557   1.198   3.480   3.569 -0.6385 -0.0941  1.8167
55209SOL    HW275558   1.248   3.570   3.680  1.1978  0.0613  0.9085
55210SOL     OW75559   5.977   4.646   7.778  0.1687 -0.4748 -0.4980
55210SOL    HW175560   5.887   4.624   7.755 -1.4433  1.0949  3.3577
55210SOL    HW275561   6.023   4.562   7.783 -1.7711 -1.5598 -0.1966
55211SOL     OW75562   7.129   8.685  11.747 -0.1744  0.0230  0.2074
55211SOL    HW175563   7.075   8.742  11.803 -0.0517 -1.4785  1.9581
55211SOL    HW275564   7.210   8.733  11.734  0.0652  0.1430  1.9482
55212SOL     OW75565   4.958   9.416   1.700  0.1795 -0.2402 -0.2969
55212SOL    HW175566   4.913   9.389   1.620  0.4457 -1.6463  0.0037
55212SOL    HW275567   4.981   9.507   1.684 -3.7838  1.0166 -0.0360
55213SOL     OW75568  11.751   7.443   7.269  0.2417  0.5731  0.2348
55213SOL    HW175569  11.749   7.536   7.293 -1.6684  0.0756  2.3702
55213SOL    HW275570  11.659   7.415   7.273  0.2063 -0.6030 -4.2092
55214SOL     OW75571   9.193   1.516   2.397 -0.0454  0.1374  0.1696
55214SOL    HW175572   9.119   1.513   2.337 -0.4197  1.1631  0.5635
55214SOL    HW275573   9.153   1.514   2.484  0.4311 -0.0471  0.3883
55215SOL     OW75574   9.180  10.707   0.026 -0.5742 -0.1237 -0.6070
55215SOL    HW175575   9.183  10.689  -0.068  1.2688 -2.1963 -0.2215
55215SOL    HW275576   9.272  10.710   0.053 -1.0080  2.5372  0.8126
55216SOL     OW75577   9.006   4.598   3.646  0.1456  0.6335  0.4861
55216SOL    HW175578   9.066   4.532   3.614  0.4005  0.5036  1.2028
55216SOL    HW275579   9.050   4.682   3.630 -0.5203  0.7040 -1.1517
55217SOL     OW75580   1.004   5.811  11.409  0.3415  0.2630 -0.6428
55217SOL    HW175581   1.066   5.874  11.445 -1.4618  0.3226  2.7545
55217SOL    HW275582   0.923   5.827  11.457 -1.2868 -2.1269 -2.3762
55218SOL     OW75583   1.683   4.293   4.267  0.2614  0.2715 -0.1304
55218SOL    HW175584   1.761   4.237   4.261  0.6631  0.9670 -2.1474
55218SOL    HW275585   1.692   4.354   4.194 -2.6458 -0.2024 -0.9917
55219SOL     OW75586  10.126   3.225   0.907  0.0127 -0.2403 -0.7889
55219SOL    HW175587  10.045   3.182   0.880  1.0105 -2.7384 -0.0591
55219SOL    HW275588  10.099   3.314   0.932 -2.2311 -0.5345 -1.9598
55220SOL     OW75589  11.135   5.218  13.144  0.5225  0.2092  0.4817
55220SOL    HW175590  11.177   5.165  13.212 -0.1119 -0.8077  0.1129
55220SOL    HW275591  11.127   5.158  13.069 -0.7650  0.6332  0.2578
55221SOL     OW75592   7.653   6.508   9.310 -0.2388 -0.0662 -0.3240
55221SOL    HW175593   7.591   6.573   9.346 -1.1139  0.3978 -2.5233
55221SOL    HW275594   7.738   6.551   9.318 -0.8071  1.4443 -1.7902
55222SOL     OW75595  13.144   1.545   3.585 -0.9125  0.0070  0.7476
55222SOL    HW175596  13.219   1.494   3.617 -1.1977 -0.5898  0.4731
55222SOL    HW275597  13.142   1.528   3.491  0.1888  2.0961  0.2792
55223SOL     OW75598   2.466   9.587   8.315  0.4948  0.8970 -0.3162
55223SOL    HW175599   2.391   9.528   8.301  0.5640  1.0490 -1.4081
55223SOL    HW275600   2.535   9.529   8.348  0.5206  0.3783 -1.2493
55224SOL     OW75601  13.171  12.158   7.228 -0.1639  0.5105  0.0349
55224SOL    HW175602  13.080  12.163   7.198 -0.5842  0.8255  1.3109
55224SOL    HW275603  13.211  12.091   7.172 -1.6796 -0.9689  0.6536
55225SOL     OW75604   8.358  11.555   7.117  0.8036 -0.4402 -0.0304
55225SOL    HW175605   8.275  11.516   7.091  0.6694  0.4375 -0.9578
55225SOL    HW275606   8.415  11.547   7.041  0.3979  2.1603 -0.7100
55226SOL     OW75607  12.650   1.622   3.706 -0.4033  0.2698 -0.3482
55226SOL    HW175608  12.745   1.608   3.699 -0.5618 -0.1133 -2.2038
55226SOL    HW275609  12.617   1.545   3.751 -0.1648 -1.0874 -2.3977
55227SOL     OW75610   0.064   3.773   5.545 -0.1554  0.1182 -0.3407
55227SOL    HW175611   0.139   3.833   5.546  0.9419 -1.1770 -0.6259
55227SOL    HW275612   0.082   3.715   5.470 -0.8906 -0.8858  0.2432
55228SOL     OW75613   7.932   4.310   0.072  0.1526  0.1503  0.1464
55228SOL    HW175614   7.862   4.309   0.137 -1.9713  1.6361 -1.9214
55228SOL    HW275615   7.973   4.396   0.082 -0.3979  0.5195 -0.6222
55229SOL     OW75616  10.929   9.308   8.588  0.0972 -0.3975 -0.4118
55229SOL    HW175617  10.967   9.259   8.516  0.4862  0.5117 -0.8474
55229SOL    HW275618  10.852   9.351   8.550  1.0632  1.1716 -0.6784
55230SOL     OW75619   5.576   5.800   4.768 -0.7611  0.1916 -0.5998
55230SOL    HW175620   5.564   5.795   4.673  0.7607  0.0335 -0.8178
55230SOL    HW275621   5.488   5.804   4.804 -1.3525  1.3448 -2.0827
55231SOL     OW75622  12.360   3.279   4.232  0.7692 -0.2008 -0.4571
55231SOL    HW175623  12.381   3.335   4.157  1.9065  1.4872  1.0354
55231SOL    HW275624  12.265   3.270   4.229  0.3374  2.9990 -0.0660
55232SOL     OW75625  11.109   8.460  12.865 -0.4695 -0.1200 -0.0297
55232SOL    HW175626  11.192   8.425  12.899 -0.3725  0.2271  0.0866
55232SOL    HW275627  11.059   8.481  12.944 -0.2794  0.6008 -0.1016
55233SOL     OW75628   3.249   7.513   6.983 -0.2134  0.5684 -0.3630
55233SOL    HW175629   3.198   7.482   6.908  0.6628 -4.1955  0.6579
55233SOL    HW275630   3.185   7.518   7.054 -0.1062 -1.1926 -0.0829
55234SOL     OW75631   5.746   0.704   6.582  0.1065  0.3053  0.2841
55234SOL    HW175632   5.761   0.739   6.670  1.0527 -0.1016  0.2848
55234SOL    HW275633   5.772   0.612   6.587 -0.9441 -0.0373 -0.1233
55235SOL     OW75634   8.608  12.611   3.140 -0.0539 -0.0740 -0.0701
55235SOL    HW175635   8.560  12.616   3.223  2.0527 -0.2447  1.2269
55235SOL    HW275636   8.640  12.700   3.125 -0.4431 -0.0385 -0.7227
55236SOL     OW75637  12.927   4.324   7.345  0.2787  0.2259 -0.0844
55236SOL    HW175638  12.893   4.302   7.431 -1.8031  1.6950 -0.4247
55236SOL    HW275639  12.967   4.411   7.356  1.0469 -0.0874 -0.3659
55237SOL     OW75640   6.014   0.722   7.275  0.7368  0.0190 -0.5331
55237SOL    HW175641   6.070   0.707   7.199  0.5472  1.5137 -0.9940
55237SOL    HW275642   5.978   0.810   7.262 -0.1524 -0.1243  0.7476
55238SOL     OW75643   6.018   9.749  12.867  0.0188 -0.2900 -0.1787
55238SOL    HW175644   5.924   9.742  12.849  0.1572 -1.6753 -0.4251
55238SOL    HW275645   6.060   9.740  12.782  0.3516  1.9111 -0.3044
55239SOL     OW75646   9.387   9.644  10.524 -0.3091  0.0823 -0.0414
55239SOL    HW175647   9.331   9.590  10.470 -1.2368 -1.0605  1.9403
55239SOL    HW275648   9.335   9.724  10.540 -0.7403 -0.2957  0.4933
55240SOL     OW75649   8.001   5.555   1.657 -0.3198 -0.2566 -0.6583
55240SOL    HW175650   7.946   5.609   1.713  0.5398 -0.2863  0.2450
55240SOL    HW275651   7.990   5.591   1.569  0.5008  1.6391 -0.0321
55241SOL     OW75652  12.016   2.649   9.101 -0.3411  0.0497  0.0513
55241SOL    HW175653  11.949   2.581   9.093 -1.4984  1.1609  0.0216
55241SOL    HW275654  12.007   2.700   9.020 -0.4280  1.0647  0.6954
55242SOL     OW75655  10.530  10.773   6.310 -0.3916  0.4111 -0.4663
55242SOL    HW175656  10.543  10.754   6.217  0.0774 -0.3042 -0.2682
55242SOL    HW275657  10.547  10.689   6.354  1.7232  1.2446  0.4579
55243SOL     OW75658   9.929   6.911   7.054  0.7338 -0.4156 -0.2137
55243SOL    HW175659   9.950   6.820   7.075 -2.6938 -1.5732 -1.0593
55243SOL    HW275660   9.972   6.927   6.971 -0.5025 -2.2028 -1.2829
55244SOL     OW75661  11.557   3.176   9.058  0.5092  0.3154 -0.6655
55244SOL    HW175662  11.483   3.120   9.035 -0.9204  0.4817  2.8599
55244SOL    HW275663  11.518   3.248   9.109  2.9831  0.7099  0.8691
55245SOL     OW75664  10.189  10.577   0.144  0.1859 -0.6236  0.1585
55245SOL    HW175665  10.276  10.594   0.180 -0.1670 -1.0824  1.2643
55245SOL    HW275666  10.190  10.484   0.122 -0.1027 -0.6835  0.3979
55246SOL     OW75667   7.728   9.516   4.064  0.0322 -0.2706 -0.1772
55246SOL    HW175668   7.642   9.496   4.101  0.1425 -0.8949 -0.2514
55246SOL    HW275669   7.747   9.604   4.095 -0.5711 -0.1817 -0.0403
55247SOL     OW75670  12.004   2.883   7.567  0.2836 -0.1011 -0.0220
55247SOL    HW175671  11.914   2.882   7.534  0.6420  0.3283 -1.0541
55247SOL    HW275672  12.058   2.885   7.488  1.1972 -0.1588  0.5929
55248SOL     OW75673  11.395   1.769   5.668 -0.1292 -0.0587 -0.3647
55248SOL    HW175674  11.300   1.764   5.658  0.1275 -0.8179 -3.0382
55248SOL    HW275675  11.417   1.696   5.727 -1.1398 -0.2415 -0.2014
55249SOL     OW75676   9.370   3.898   8.454 -0.1021 -0.3978  0.1549
55249SOL    HW175677   9.296   3.897   8.393 -1.2009 -0.7644  1.4418
55249SOL    HW275678   9.330   3.890   8.541  1.5491 -2.5637  0.8105
55250SOL     OW75679   1.179   7.505   8.373  0.4741 -0.1483 -0.0694
55250SOL    HW175680   1.123   7.558   8.429  1.4746 -1.6205  2.4967
55250SOL    HW275681   1.118   7.452   8.322 -0.5268 -0.8235  1.7424
55251SOL     OW75682   7.303   0.263   3.516 -0.2480  0.4027  0.0534
55251SOL    HW175683   7.329   0.347   3.478  0.1936 -0.0753 -0.7234
55251SOL    HW275684   7.287   0.283   3.608  0.4433  1.2182  0.0143
55252SOL     OW75685   3.798   1.364   3.360 -0.0824 -0.0148 -0.3111
55252SOL    HW175686   3.866   1.418   3.399 -2.1783  2.3305  0.3440
55252SOL    HW275687   3.769   1.306   3.431  0.3912 -0.1795 -0.2501
55253SOL     OW75688   9.134   4.915   4.499 -0.2824  0.4663  0.1480
55253SOL    HW175689   9.056   4.943   4.547 -0.7968 -0.7531  0.0735
55253SOL    HW275690   9.134   4.819   4.508  1.8993  0.5091  1.1873
55254SOL     OW75691   3.183   2.603  10.454  0.4022  0.4712  0.3355
55254SOL    HW175692   3.247   2.591  10.383 -1.0580 -0.6591 -0.8541
55254SOL    HW275693   3.236   2.597  10.534  1.7645 -0.7661 -0.5904
55255SOL     OW75694   3.076   8.462   6.707 -0.0047  0.5570 -0.1319
55255SOL    HW175695   3.092   8.367   6.705 -0.1705  0.3951  2.6211
55255SOL    HW275696   2.986   8.471   6.677  0.0532 -0.1097 -0.5487
55256SOL     OW75697   3.422   3.437   2.619 -0.0096  0.1419  0.1167
55256SOL    HW175698   3.403   3.509   2.559 -0.5830 -0.2747 -0.2141
55256SOL    HW275699   3.471   3.374   2.566  2.6411  1.3035  1.0202
55257SOL     OW75700   3.198   5.884   6.979  0.5415  0.3817 -0.0215
55257SOL    HW175701   3.147   5.915   6.905  1.4341  0.4085 -0.6333
55257SOL    HW275702   3.269   5.948   6.989  1.5631 -0.6596 -0.3909
55258SOL     OW75703   6.834  10.675  11.117  0.3956  0.1126 -0.0129
55258SOL    HW175704   6.741  10.672  11.095  0.1794 -0.2326  0.9083
55258SOL    HW275705   6.840  10.742  11.185  0.5093 -1.1971  1.3035
55259SOL     OW75706   6.464   6.917   3.466 -0.6806 -0.4132  0.0268
55259SOL    HW175707   6.520   6.973   3.520 -1.8178 -0.9498  1.8851
55259SOL    HW275708   6.426   6.976   3.401  0.6510  0.2911 -0.1362
55260SOL     OW75709   7.463   9.290  12.321 -1.1433 -0.1169  0.3156
55260SOL    HW175710   7.455   9.297  12.416  0.3061 -0.3789  0.4771
55260SOL    HW275711   7.429   9.373  12.287 -0.1136  0.6751  1.1695
55261SOL     OW75712  12.476   6.257   1.829  0.4180 -0.0024 -0.1290
55261SOL    HW175713  12.548   6.265   1.767 -0.5895 -3.0278 -1.8789
55261SOL    HW275714  12.512   6.208   1.902  0.9582  1.4218  0.5895
55262SOL     OW75715   5.349   5.536   3.970  0.2249  0.5891 -0.2694
55262SOL    HW175716   5.294   5.574   3.902  0.0320  0.5467 -0.1390
55262SOL    HW275717   5.289   5.483   4.022  0.8086 -1.5612 -1.6392
55263SOL     OW75718  12.279   9.761  11.610  0.1564  0.5362 -0.8413
55263SOL    HW175719  12.212   9.809  11.658 -0.3172  0.4520 -1.4097
55263SOL    HW275720  12.257   9.669  11.623  0.9696  0.4472  0.1113
55264SOL     OW75721   6.819   7.567   6.910  0.1330  0.0667 -0.7450
55264SOL    HW175722   6.851   7.478   6.894 -0.1188  0.3620 -3.1894
55264SOL    HW275723   6.846   7.617   6.833 -0.1273  2.0239  0.3700
55265SOL     OW75724   9.144   1.376  11.332  0.1606  0.3193  0.0882
55265SOL    HW175725   9.183   1.463  11.319  0.9035  0.2892  1.9305
55265SOL    HW275726   9.070   1.375  11.271  0.2445  2.1667 -0.1198
55266SOL     OW75727   8.020   8.885   9.171  0.2313  0.0334  0.1990
55266SOL    HW175728   7.975   8.945   9.112  0.3031 -1.8306 -1.9012
55266SOL    HW275729   7.955   8.863   9.237 -0.8051  0.1121 -0.7656
55267SOL     OW75730   5.796  12.960  10.420  0.1521  0.0801 -0.1943
55267SOL    HW175731   5.788  12.888  10.358 -0.3087  0.2186 -0.2996
55267SOL    HW275732   5.758  13.035  10.375  0.1549  0.2680  0.1131
55268SOL     OW75733   1.124   5.915   7.229  0.1530 -0.2164  0.1789
55268SOL    HW175734   1.124   5.894   7.136 -0.0775  1.3231 -0.1978
55268SOL    HW275735   1.125   5.830   7.273  0.1604 -0.9681 -1.2211
55269SOL     OW75736   5.727   3.162   8.045  0.8489 -0.1882 -0.9272
55269SOL    HW175737   5.687   3.135   8.128 -0.0172  1.2391 -0.8414
55269SOL    HW275738   5.672   3.123   7.977 -0.5946  1.4908 -0.8082
55270SOL     OW75739   7.307  11.548   4.236  0.2071 -0.3609  0.1360
55270SOL    HW175740   7.318  11.556   4.330 -1.3133  0.0366  0.3173
55270SOL    HW275741   7.263  11.629   4.209  0.8352 -0.3567 -0.9611
55271SOL     OW75742   5.457   6.245  12.988  0.5078  0.6549 -0.4206
55271SOL    HW175743   5.424   6.303  12.919 -0.0215  1.0023  0.1190
55271SOL    HW275744   5.536   6.288  13.020 -0.0504  1.2499  0.1889
55272SOL     OW75745  12.568   7.701   9.659  0.4570  0.5605 -0.0566
55272SOL    HW175746  12.582   7.763   9.588 -1.1394  1.9071  0.7284
55272SOL    HW275747  12.606   7.743   9.736 -2.7820  1.8549  1.0042
55273SOL     OW75748   1.886   0.092   8.986  0.2382  0.4308 -0.1434
55273SOL    HW175749   1.924   0.063   8.904  1.4472 -1.3506  0.9835
55273SOL    HW275750   1.945   0.160   9.018  0.1255  0.6590 -0.4187
55274SOL     OW75751  12.028  11.127   8.265 -0.1850  0.3622  0.2120
55274SOL    HW175752  12.026  11.217   8.231 -0.7100  0.3745  0.2707
55274SOL    HW275753  12.117  11.116   8.299  0.2330  0.4948 -0.7856
55275SOL     OW75754  13.094   0.562   6.377  0.4239 -0.7661  0.0872
55275SOL    HW175755  13.182   0.600   6.376  0.2250 -0.3038  0.1767
55275SOL    HW275756  13.058   0.582   6.291  0.8421 -1.9995 -0.4005
55276SOL     OW75757   2.885   3.639   7.071 -0.2535 -0.3099 -0.1703
55276SOL    HW175758   2.824   3.605   7.136 -0.6069 -1.1151 -0.8938
55276SOL    HW275759   2.948   3.568   7.057 -0.0753 -0.0816 -0.5666
55277SOL     OW75760   2.407   4.348   4.562  0.1299  0.2937 -0.0433
55277SOL    HW175761   2.491   4.394   4.566 -0.4771  1.3616  0.7560
55277SOL    HW275762   2.405   4.297   4.644 -0.0231  0.3066 -0.0396
55278SOL     OW75763  10.493   8.564  12.894  0.4159  0.0984  0.0374
55278SOL    HW175764  10.426   8.596  12.833 -0.8111 -0.2974  1.1364
55278SOL    HW275765  10.510   8.638  12.952  2.4794  0.8902 -1.4421
55279SOL     OW75766   5.323  11.562   5.132 -0.2541 -0.4170 -0.5112
55279SOL    HW175767   5.310  11.636   5.074 -1.6651 -0.1332  0.1188
55279SOL    HW275768   5.235  11.540   5.163  0.4477 -0.4224  1.6489
55280SOL     OW75769  12.584  11.123   9.210  0.2460 -0.4312 -0.7658
55280SOL    HW175770  12.584  11.043   9.158  1.1110 -1.7795  1.1541
55280SOL    HW275771  12.677  11.147   9.217 -0.0892  1.6413 -2.5268
55281SOL     OW75772   7.735  11.365  10.346 -0.2177 -0.1702 -0.6385
55281SOL    HW175773   7.652  11.356  10.299  1.0318 -2.3750 -2.6333
55281SOL    HW275774   7.770  11.276  10.350  2.4039  0.7752 -0.5461
55282SOL     OW75775   2.002   1.847   2.676 -0.1908 -0.0932 -0.3618
55282SOL    HW175776   1.990   1.913   2.608  0.3466  0.2708 -0.1134
55282SOL    HW275777   2.083   1.802   2.651  0.7628  0.9627  0.7711
55283SOL     OW75778   0.601  10.660   7.520  0.9463  0.2169  0.2149
55283SOL    HW175779   0.508  10.635   7.521  0.8166  0.5616 -1.3151
55283SOL    HW275780   0.619  10.683   7.429  2.4439  0.5409  0.5663
55284SOL     OW75781   6.785   0.827   2.264 -0.0020 -0.4850 -0.1851
55284SOL    HW175782   6.864   0.874   2.238 -0.2879  0.3367  0.3607
55284SOL    HW275783   6.800   0.737   2.238  1.8308 -0.7008  1.4194
55285SOL     OW75784  12.161   6.820   5.988  0.0823  0.3672  0.3762
55285SOL    HW175785  12.185   6.832   6.080  2.1788 -1.0678  0.0914
55285SOL    HW275786  12.068   6.841   5.985 -0.1143  0.1841  2.8834
55286SOL     OW75787   1.811   4.567   2.187  0.4321 -0.0691  0.2534
55286SOL    HW175788   1.878   4.564   2.255 -0.1318 -0.8217  0.7938
55286SOL    HW275789   1.773   4.654   2.194  1.6654  0.5454 -0.3811
55287SOL     OW75790   4.280   5.580   6.151 -0.3389 -0.2960  0.4367
55287SOL    HW175791   4.208   5.580   6.088 -1.5298 -2.1496  1.6879
55287SOL    HW275792   4.238   5.598   6.235  1.0643  1.0718  0.9054
55288SOL     OW75793   6.095  10.853   5.554  0.9033  0.0187 -0.6344
55288SOL    HW175794   6.015  10.896   5.584  0.7610  0.9469 -2.2306
55288SOL    HW275795   6.164  10.889   5.610  0.2122 -1.0806  1.0235
55289SOL     OW75796   8.687   7.998   5.185 -0.1892  0.1642 -0.1097
55289SOL    HW175797   8.759   8.059   5.198  0.3642 -0.5143  0.0801
55289SOL    HW275798   8.647   7.988   5.271 -0.0037 -0.0689 -0.0486
55290SOL     OW75799   3.876  11.199   6.807 -0.1095 -0.3800  0.0659
55290SOL    HW175800   3.916  11.263   6.749 -0.1053  0.3675  0.8773
55290SOL    HW275801   3.797  11.171   6.761 -0.2791  0.4505 -0.1653
55291SOL     OW75802  12.434   8.036   8.587  0.0289 -0.3943  0.2014
55291SOL    HW175803  12.422   8.117   8.636 -1.1405 -0.9183  0.8397
55291SOL    HW275804  12.520   8.044   8.547  0.9274  0.1721  2.1248
55292SOL     OW75805   9.100   2.506  11.224  0.2209 -0.4900  0.2232
55292SOL    HW175806   9.031   2.466  11.170  0.8897  0.5769 -1.5123
55292SOL    HW275807   9.059   2.584  11.261 -0.5624 -1.7783  2.2069
55293SOL     OW75808  10.674  10.948   4.290 -0.2100  0.0059  0.1305
55293SOL    HW175809  10.697  10.933   4.199 -1.1262  1.5386 -0.3833
55293SOL    HW275810  10.641  10.864   4.321 -1.0663 -0.2135 -1.3190
55294SOL     OW75811   2.694   2.967   1.099  0.1880  0.3948 -0.1191
55294SOL    HW175812   2.744   2.919   1.033  1.2548 -1.3586  1.8324
55294SOL    HW275813   2.760   3.007   1.155 -0.6974  2.5551 -0.5351
55295SOL     OW75814   4.708   9.515   2.223 -0.2193 -0.3592  0.4805
55295SOL    HW175815   4.740   9.456   2.292 -2.3211 -1.6293  0.4561
55295SOL    HW275816   4.769   9.502   2.150  1.0852 -0.2201  1.5086
55296SOL     OW75817   6.306   8.146   1.037 -0.1432 -0.0698  0.3083
55296SOL    HW175818   6.341   8.086   1.102  1.2447 -1.8478 -1.9095
55296SOL    HW275819   6.254   8.091   0.978 -1.1724  1.4109 -0.2380
55297SOL     OW75820   7.037   3.927   2.253 -0.2542  0.4342  0.1982
55297SOL    HW175821   7.066   3.934   2.162 -2.4649  1.2799 -0.5022
55297SOL    HW275822   7.063   4.010   2.293  0.5586  0.1338  0.3269
55298SOL     OW75823   2.657   6.649  13.212  0.4238  0.1570  0.3122
55298SOL    HW175824   2.635   6.561  13.183  0.5750  0.2207 -0.0051
55298SOL    HW275825   2.677   6.640  13.305  0.4645 -0.1455  0.2740
55299SOL     OW75826   0.864  11.284  12.412 -0.1149  0.1138  0.8866
55299SOL    HW175827   0.888  11.192  12.422 -1.0911 -0.1696  0.6463
55299SOL    HW275828   0.772  11.288  12.435 -0.9538  0.4480 -2.1299
55300SOL     OW75829   1.044  12.803   1.599 -0.6991  0.2382 -0.1184
55300SOL    HW175830   1.040  12.836   1.689 -0.3665  0.2351 -0.0996
55300SOL    HW275831   0.968  12.841   1.555  0.9912  3.1339 -0.8002
55301SOL     OW75832  11.307  13.062   2.677  0.3877  0.1746  0.0403
55301SOL    HW175833  11.289  13.028   2.765 -0.0486 -0.1625 -0.1722
55301SOL    HW275834  11.376  13.127   2.689  1.3405 -0.8935  0.4387
55302SOL     OW75835   9.717  10.193   7.820  0.4923  0.1975  0.0775
55302SOL    HW175836   9.771  10.199   7.741 -0.6748 -0.7265 -0.8384
55302SOL    HW275837   9.766  10.242   7.886  2.7840 -1.1471 -0.4928
55303SOL     OW75838   7.817  12.112   5.769  0.3885 -0.4042 -0.1176
55303SOL    HW175839   7.800  12.064   5.688  2.9237  0.5391 -1.3397
55303SOL    HW275840   7.780  12.199   5.755 -0.5468 -0.7141  0.3937
55304SOL     OW75841   5.768   1.859   1.520 -0.1393  0.4585 -0.1732
55304SOL    HW175842   5.858   1.877   1.546  0.3528 -1.2891 -0.5124
55304SOL    HW275843   5.775   1.828   1.430 -0.7233 -2.0239  0.5433
55305SOL     OW75844  10.264   1.196   0.240  0.0581 -0.2712  0.2432
55305SOL    HW175845  10.239   1.107   0.265  0.4357 -0.3682  0.2935
55305SOL    HW275846  10.267   1.244   0.323 -2.3486  0.3845  0.0031
55306SOL     OW75847   0.555   0.118   4.181 -0.0803  0.1485 -0.3253
55306SOL    HW175848   0.572   0.086   4.269  1.0079  2.3291  0.3312
55306SOL    HW275849   0.493   0.190   4.193 -0.8762 -0.3027 -1.5034
55307SOL     OW75850   5.389   7.392   0.377 -0.3602 -0.1865 -0.1518
55307SOL    HW175851   5.402   7.307   0.335  2.8033  0.2213 -0.2354
55307SOL    HW275852   5.367   7.451   0.305 -0.0288 -0.4669 -0.4848
55308SOL     OW75853  10.219   4.712   0.637  0.4263  0.2218  0.1248
55308SOL    HW175854  10.306   4.713   0.675  0.2486  0.9980  0.5222
55308SOL    HW275855  10.202   4.803   0.613  0.3000 -0.1506 -1.2845
55309SOL     OW75856   5.073   4.106   5.957  0.3000 -0.0058  0.0603
55309SOL    HW175857   5.144   4.097   6.019 -0.6015 -1.0532  0.9826
55309SOL    HW275858   4.998   4.133   6.010  0.0615  1.3979 -0.9335
55310SOL     OW75859   4.706   1.271  11.630  0.4721  0.1610 -0.1034
55310SOL    HW175860   4.687   1.228  11.546 -1.1350  1.8139 -0.6588
55310SOL    HW275861   4.620   1.292  11.666  1.1268 -0.7924  2.1495
55311SOL     OW75862   1.058   1.970   9.621 -0.3330  0.0704  0.2369
55311SOL    HW175863   0.983   2.030   9.623 -0.4830 -0.1415  1.2929
55311SOL    HW275864   1.090   1.976   9.531 -1.7305  0.0251 -0.3002
55312SOL     OW75865   3.338   3.800   6.102  0.0722  0.6477 -0.0910
55312SOL    HW175866   3.391   3.864   6.055  0.3945  0.2359 -0.2963
55312SOL    HW275867   3.313   3.735   6.036 -0.1068  0.4717  0.1462
55313SOL     OW75868   0.222   5.664   8.949  0.4540  0.0994  0.0899
55313SOL    HW175869   0.301   5.610   8.954  0.7368  0.4828 -0.1712
55313SOL    HW275870   0.239   5.725   8.878  0.3131  0.8181  0.6637
55314SOL     OW75871   5.235   1.825   5.569  0.4395 -0.1746 -0.3608
55314SOL    HW175872   5.141   1.840   5.568  0.2801 -0.9977  0.3743
55314SOL    HW275873   5.244   1.730   5.566  1.2795 -0.0795 -1.3284
55315SOL     OW75874   8.397   1.450  10.655 -0.5164 -0.3189  0.0537
55315SOL    HW175875   8.424   1.359  10.642  0.5752  0.0999 -0.7632
55315SOL    HW275876   8.449   1.500  10.592  0.8870  1.1799  2.2379
55316SOL     OW75877   5.134   7.427   7.005 -0.1346  0.1374 -0.3035
55316SOL    HW175878   5.152   7.409   7.097 -0.3920  0.6203 -0.1568
55316SOL    HW275879   5.197   7.371   6.957 -1.5570 -1.9281  0.0925
55317SOL     OW75880   9.541   6.121   9.400 -0.0173  0.3879  0.2979
55317SOL    HW175881   9.477   6.100   9.332 -2.1789 -0.5220  2.4730
55317SOL    HW275882   9.592   6.041   9.411 -0.8345 -0.0559  0.9274
55318SOL     OW75883  10.462   0.038   5.907 -0.3103 -0.0688 -0.2562
55318SOL    HW175884  10.419  -0.035   5.952  0.1909  0.5451  1.3116
55318SOL    HW275885  10.491   0.096   5.978  0.4153  1.0306 -1.3996
55319SOL     OW75886   6.368   6.701  12.571 -0.3432 -0.1604 -0.4658
55319SOL    HW175887   6.380   6.608  12.587 -2.7361 -0.2255  1.6705
55319SOL    HW275888   6.295   6.705  12.509 -0.2768  0.2829 -0.5186
55320SOL     OW75889   6.008   2.956  12.657  0.2916 -0.3094  0.6104
55320SOL    HW175890   5.999   2.866  12.625 -0.7234  0.2879 -0.9448
55320SOL    HW275891   6.063   2.999  12.592 -1.9550  0.9905 -0.5732
55321SOL     OW75892  12.011   1.743  11.884 -0.2893  0.2657  0.0483
55321SOL    HW175893  12.074   1.672  11.870 -0.5039  0.1016 -0.0879
55321SOL    HW275894  11.930   1.712  11.842  0.0647  1.2735 -1.4431
55322SOL     OW75895   3.694   7.462   6.041  0.1981  0.5046 -0.5527
55322SOL    HW175896   3.716   7.402   5.969  0.5283  0.5519 -0.4940
55322SOL    HW275897   3.701   7.407   6.120 -1.5637  0.0783 -0.6531
55323SOL     OW75898   8.210   0.998  11.998 -0.5028  0.3292 -0.1709
55323SOL    HW175899   8.169   0.957  11.922  0.4893  0.9431 -1.0725
55323SOL    HW275900   8.302   1.008  11.973  0.1209 -0.5386  1.5871
55324SOL     OW75901   7.616   9.506   1.010 -0.6331 -0.4231 -0.4045
55324SOL    HW175902   7.527   9.496   0.976  0.1805 -1.8293 -2.3572
55324SOL    HW275903   7.667   9.442   0.961  1.4647  0.3158  0.6917
55325SOL     OW75904  12.830   4.923   9.619 -0.1124 -0.1764  0.6338
55325SOL    HW175905  12.845   4.888   9.707  0.7331 -1.5210 -0.0082
55325SOL    HW275906  12.918   4.929   9.581 -0.5659 -0.9708 -0.6058
55326SOL     OW75907   6.755   9.835   7.344 -0.0817  0.4293 -0.6905
55326SOL    HW175908   6.703   9.878   7.412  1.5153  1.3826 -0.0187
55326SOL    HW275909   6.731   9.881   7.263  0.5019  1.6444 -0.2088
55327SOL     OW75910  10.138   4.658   4.431 -0.2695 -0.1055  0.3421
55327SOL    HW175911  10.111   4.573   4.465  1.7470 -1.3690 -1.0305
55327SOL    HW275912  10.229   4.668   4.459 -0.8503  2.2923  1.6573
55328SOL     OW75913   7.717   9.065  10.391  0.1391 -0.2176 -0.4202
55328SOL    HW175914   7.700   9.152  10.354  0.8953  1.2971  2.4283
55328SOL    HW275915   7.751   9.084  10.479  0.6121 -3.4290  0.1901
55329SOL     OW75916   3.014   6.485   6.802 -0.9184  0.5391  0.8135
55329SOL    HW175917   2.919   6.473   6.792 -1.0955  0.4545  2.2827
55329SOL    HW275918   3.027   6.489   6.897  0.6144  0.0898  0.6476
55330SOL     OW75919   4.781  11.703   1.220  0.0496 -0.0988  0.5829
55330SOL    HW175920   4.853  11.695   1.281  0.3108 -0.0629  0.2817
55330SOL    HW275921   4.705  11.721   1.275  0.3670  0.4220  0.8583
55331SOL     OW75922   8.669   0.563   8.788 -0.0518 -0.1081  0.1407
55331SOL    HW175923   8.686   0.521   8.872 -0.1167 -0.6829 -0.1266
55331SOL    HW275924   8.579   0.538   8.767  0.6238 -1.6936 -1.0698
55332SOL     OW75925   0.431   5.229  11.517 -0.1222 -0.0580  0.1952
55332SOL    HW175926   0.440   5.299  11.453 -0.1203 -0.5418 -0.3460
55332SOL    HW275927   0.384   5.269  11.591  1.7815  1.0899  0.8543
55333SOL     OW75928   3.046   0.894  11.091 -0.2250  0.3916  0.0656
55333SOL    HW175929   3.124   0.846  11.117 -0.0707  0.1391 -0.8301
55333SOL    HW275930   2.975   0.854  11.141  0.3407  1.2690  1.6402
55334SOL     OW75931  12.386  11.498   3.674  0.1667  0.6193  0.1818
55334SOL    HW175932  12.404  11.587   3.704  0.6174  0.5010  0.2591
55334SOL    HW275933  12.388  11.504   3.578  3.5630  0.0587  0.0815
55335SOL     OW75934   7.167   7.956   7.849  0.0538 -0.2889  0.2342
55335SOL    HW175935   7.131   7.997   7.927  0.7020 -0.3765  0.5890
55335SOL    HW275936   7.105   7.886   7.827 -0.7167  0.4459  0.0042
55336SOL     OW75937   5.367   6.712   2.290  0.1284 -0.0466 -0.3176
55336SOL    HW175938   5.460   6.708   2.312 -0.2610  0.8321  1.6944
55336SOL    HW275939   5.351   6.632   2.240  2.3021  0.6389 -2.2678
55337SOL     OW75940   1.167  10.084   6.903 -0.0342  0.2133  0.2932
55337SOL    HW175941   1.106  10.096   6.830  1.2254 -1.1707 -1.0723
55337SOL    HW275942   1.251  10.116   6.869  0.6135 -0.5952  1.0871
55338SOL     OW75943  12.367   8.155  10.169  0.0672  0.2379 -0.2903
55338SOL    HW175944  12.358   8.238  10.215 -2.6890  0.2444 -0.7056
55338SOL    HW275945  12.299   8.156  10.102  0.7389 -1.8612 -1.0909
55339SOL     OW75946  11.080  11.873  11.233 -0.5485  0.1724 -0.2926
55339SOL    HW175947  11.075  11.961  11.197 -0.9629  0.1445 -0.3066
55339SOL    HW275948  11.025  11.876  11.311 -1.1538 -0.2654 -0.6939
55340SOL     OW75949   5.753  10.005  12.957  0.0915  0.0064  0.3412
55340SOL    HW175950   5.679  10.063  12.972 -0.9213 -0.4858 -2.2825
55340SOL    HW275951   5.820  10.036  13.017 -1.6918  1.4513  1.7008
55341SOL     OW75952   8.814   0.376   4.876 -0.5078 -0.0770  0.0130
55341SOL    HW175953   8.903   0.357   4.847 -0.2578 -0.2102  0.8601
55341SOL    HW275954   8.758   0.334   4.810  0.0432 -2.4209  0.9356
55342SOL     OW75955   2.631   0.763   8.962 -0.2282 -0.1068  0.1408
55342SOL    HW175956   2.658   0.818   9.035 -3.1749 -0.8578  1.9532
55342SOL    HW275957   2.694   0.691   8.961 -0.6174 -0.5645  2.6011
55343SOL     OW75958   2.650   2.568   4.134  0.1108  0.6122  0.0290
55343SOL    HW175959   2.631   2.567   4.040 -0.0507 -1.0583  0.0510
55343SOL    HW275960   2.746   2.565   4.139  0.0893 -1.3527 -0.1184
55344SOL     OW75961   0.930  11.823   4.740  0.4092 -0.3200 -0.2528
55344SOL    HW175962   0.959  11.911   4.715  0.4728 -0.1772  0.2901
55344SOL    HW275963   1.011  11.773   4.747  0.3663 -0.4470 -0.6444
55345SOL     OW75964  10.263  12.875  11.683  0.2218 -0.2703  0.1083
55345SOL    HW175965  10.346  12.832  11.702 -0.0456  0.5132  3.5658
55345SOL    HW275966  10.286  12.965  11.662  0.3047 -0.3104  0.0285
55346SOL     OW75967   8.312   2.071  10.269 -0.1778 -0.5296 -0.5492
55346SOL    HW175968   8.328   2.151  10.220 -1.0285 -0.6434 -1.0178
55346SOL    HW275969   8.302   2.100  10.360 -0.8432 -0.0701 -0.7698
55347SOL     OW75970   6.920   0.437   8.075 -0.0563  0.7297  0.0002
55347SOL    HW175971   6.973   0.450   7.997 -1.0924 -1.2307 -1.0955
55347SOL    HW275972   6.831   0.455   8.048 -0.3877  0.4327  0.8414
55348SOL     OW75973  12.939   7.524   7.057 -0.2794  0.0123  0.1468
55348SOL    HW175974  12.863   7.466   7.064 -0.4257  0.2084  0.1939
55348SOL    HW275975  13.007   7.470   7.017 -0.6266  0.0029 -0.4520
55349SOL     OW75976  12.168   1.019   1.695 -0.2308  0.3867 -0.1237
55349SOL    HW175977  12.123   1.021   1.610 -1.6290  0.0827  0.5813
55349SOL    HW275978  12.126   0.947   1.743 -0.1976  1.2231  1.2068
55350SOL     OW75979   2.835   4.838   9.326 -0.5512 -0.2516  0.8638
55350SOL    HW175980   2.779   4.768   9.292 -0.9986  0.9775 -1.1132
55350SOL    HW275981   2.801   4.856   9.413 -2.3677 -0.5049  0.2552
55351SOL     OW75982  10.390   1.860   4.734 -0.0010  0.1623 -0.3787
55351SOL    HW175983  10.429   1.878   4.820  0.0368  2.0205 -0.7318
55351SOL    HW275984  10.455   1.893   4.672  0.4691 -2.1570 -1.2049
55352SOL     OW75985   5.045   8.924   7.585 -0.2787  0.0079 -0.2258
55352SOL    HW175986   4.991   8.969   7.521 -1.0571 -0.9296 -0.2589
55352SOL    HW275987   5.113   8.881   7.533 -0.2020  0.2260 -0.3048
55353SOL     OW75988   5.478   1.722  12.377 -0.2235 -0.7896  0.2489
55353SOL    HW175989   5.437   1.665  12.443 -0.5906 -0.7471  0.0640
55353SOL    HW275990   5.433   1.699  12.295  0.0541 -0.6656  0.0606
55354SOL     OW75991   0.453   3.895  10.454 -0.0035  0.7757  0.1090
55354SOL    HW175992   0.480   3.983  10.476  1.7567 -0.0435  1.4178
55354SOL    HW275993   0.533   3.849  10.430 -0.9498 -0.3300 -1.1291
55355SOL     OW75994   4.566   1.928   4.104 -0.3633 -0.0785 -0.1083
55355SOL    HW175995   4.631   1.985   4.064  0.2981 -0.5981  0.2087
55355SOL    HW275996   4.604   1.902   4.188 -0.6622 -0.9544 -0.2297
55356SOL     OW75997   6.522   0.126  11.607  0.1940  0.6297  0.0816
55356SOL    HW175998   6.455   0.155  11.669  0.4025 -0.0925  0.6502
55356SOL    HW275999   6.599   0.108  11.661  1.1701  2.3715 -0.6735
55357SOL     OW76000  11.681   6.528   2.595 -0.0303  0.0302 -0.3999
55357SOL    HW176001  11.667   6.497   2.506  1.0221  0.0789 -0.5994
55357SOL    HW276002  11.725   6.613   2.584  0.2960 -0.0633  0.1612
55358SOL     OW76003   0.704   6.380   0.079  0.3251  1.0742  0.2019
55358SOL    HW176004   0.719   6.430  -0.001 -1.3330  1.4253  0.0632
55358SOL    HW276005   0.728   6.440   0.150 -1.6275  2.1546  0.0384
55359SOL     OW76006  11.568  10.683  13.162  0.3872 -0.1359 -0.0892
55359SOL    HW176007  11.615  10.724  13.090  0.1775  0.8479  0.3143
55359SOL    HW276008  11.484  10.656  13.124  0.6433 -0.4772 -0.4261
55360SOL     OW76009   5.317   7.112   8.865  0.2585 -0.5107 -0.0786
55360SOL    HW176010   5.409   7.109   8.838  0.2521 -0.2873 -0.1222
55360SOL    HW276011   5.320   7.142   8.956  0.3676 -2.3908  0.5999
55361SOL     OW76012  13.244  11.048   8.533 -0.4097  0.2790 -0.3778
55361SOL    HW176013  13.164  11.057   8.481 -0.6440  1.8123  0.1796
55361SOL    HW276014  13.283  11.136   8.532  0.5645 -0.1212  0.4622
55362SOL     OW76015   9.836  11.496  11.159 -0.1656 -0.0892  0.0676
55362SOL    HW176016   9.858  11.435  11.088  1.6534  0.9667 -0.3589
55362SOL    HW276017   9.909  11.487  11.221 -1.0798 -0.0498  1.1717
55363SOL     OW76018   1.648   6.402  11.805  0.1402  0.1601  0.5725
55363SOL    HW176019   1.578   6.466  11.817  0.1895  0.1395  0.9859
55363SOL    HW276020   1.606   6.318  11.817 -0.1104  0.0674 -0.8614
55364SOL     OW76021  13.291   4.810   8.084  0.0167 -0.7729  0.0763
55364SOL    HW176022  13.197   4.831   8.087 -0.1665 -1.6097  0.4288
55364SOL    HW276023  13.313   4.785   8.173  1.1144  1.5419  0.5282
55365SOL     OW76024   3.265   1.391   6.269  0.4781  0.1976  0.4111
55365SOL    HW176025   3.280   1.462   6.207 -0.7682 -0.4685 -0.7020
55365SOL    HW276026   3.177   1.358   6.248 -0.5894  0.7843  3.3891
55366SOL     OW76027  10.070   6.569   6.598  0.2876 -0.1327 -0.1260
55366SOL    HW176028  10.089   6.652   6.554  0.4394 -0.6326 -1.0422
55366SOL    HW276029  10.102   6.581   6.688  0.9960  0.5403 -0.4535
55367SOL     OW76030   9.494   5.105   9.996  0.2720  0.0654 -0.2894
55367SOL    HW176031   9.554   5.031   9.985 -0.3047 -0.7994  1.8870
55367SOL    HW276032   9.552   5.181  10.010  0.8746 -0.4901  0.3043
55368SOL     OW76033   9.786   9.849   7.191 -0.2238  0.0496  0.0288
55368SOL    HW176034   9.762   9.808   7.108  1.9807 -1.1579 -0.0844
55368SOL    HW276035   9.744   9.794   7.258 -1.1101  0.3958 -0.2186
55369SOL     OW76036  12.647   0.457   4.835 -0.6314 -0.4793  0.5239
55369SOL    HW176037  12.736   0.492   4.833 -0.8038  0.2820 -3.7199
55369SOL    HW276038  12.658   0.362   4.829  0.0326 -0.3062 -2.0878
55370SOL     OW76039   9.984  12.728  11.604  0.2693 -0.0750 -0.5872
55370SOL    HW176040  10.042  12.799  11.631 -1.6234  0.3987  2.8412
55370SOL    HW276041  10.007  12.655  11.662 -1.5779 -0.3317 -0.1251
55371SOL     OW76042   3.732  12.932   6.724  0.7982  0.1245  0.0915
55371SOL    HW176043   3.714  12.869   6.794 -1.4648 -1.1410 -1.5019
55371SOL    HW276044   3.818  12.908   6.692  1.2664 -0.1764  1.4972
55372SOL     OW76045   2.240   8.263  10.682  0.1648  0.3638  0.6071
55372SOL    HW176046   2.295   8.234  10.610 -1.3853 -0.7456 -0.1945
55372SOL    HW276047   2.185   8.187  10.702 -0.2304  1.0238  2.1936
55373SOL     OW76048  10.934   3.232   3.314  0.0470 -0.2643 -0.3593
55373SOL    HW176049  10.859   3.188   3.354  1.1822 -0.8679  1.1906
55373SOL    HW276050  10.983   3.269   3.387 -0.1015  2.4625 -1.5070
55374SOL     OW76051   8.055  12.724   1.407 -0.3073  0.4650 -0.4044
55374SOL    HW176052   8.123  12.787   1.428  0.9065 -0.1522 -2.2000
55374SOL    HW276053   8.000  12.768   1.343  0.0993  0.0086 -1.0886
55375SOL     OW76054   7.130   7.077   3.154  0.6103  0.0407 -0.1773
55375SOL    HW176055   7.130   7.119   3.067  2.7115 -0.7448 -0.6032
55375SOL    HW276056   7.213   7.103   3.193 -0.2425  0.2580  1.5837
55376SOL     OW76057   8.021   9.710   0.235  0.6830 -0.4134  0.5370
55376SOL    HW176058   8.079   9.664   0.295 -0.9335 -2.6044  0.5426
55376SOL    HW276059   7.943   9.654   0.228 -0.5874  1.3862 -1.0308
55377SOL     OW76060   4.374  12.880   5.976  0.3550 -0.1306 -0.5380
55377SOL    HW176061   4.392  12.942   6.047 -0.1062 -0.5316 -0.0642
55377SOL    HW276062   4.445  12.894   5.913 -0.5815  2.0074 -1.2227
55378SOL     OW76063   8.176   6.901   3.195 -1.1104  0.6967  0.0606
55378SOL    HW176064   8.238   6.964   3.159 -1.1272  0.2679 -0.7425
55378SOL    HW276065   8.230   6.828   3.224 -0.9529  1.6138  2.2556
55379SOL     OW76066   0.306   5.284   0.878 -0.5253 -0.2674 -0.2027
55379SOL    HW176067   0.374   5.331   0.830 -0.3726  0.3601  0.6030
55379SOL    HW276068   0.230   5.342   0.876 -1.1526 -1.0931 -1.3500
55380SOL     OW76069  11.403   5.776   2.634 -0.2210 -0.5986 -0.0185
55380SOL    HW176070  11.498   5.788   2.635  0.1013 -2.7478 -0.4022
55380SOL    HW276071  11.368   5.862   2.656  1.8313 -0.1536  1.8155
55381SOL     OW76072   1.280  12.982   4.674  0.1912 -0.1826 -0.6418
55381SOL    HW176073   1.218  13.046   4.639 -0.8134 -1.7246 -1.7842
55381SOL    HW276074   1.342  13.035   4.725 -0.4424  1.7290 -1.7346
55382SOL     OW76075  11.573  12.821   3.687 -0.9589 -0.1925  0.2105
55382SOL    HW176076  11.635  12.881   3.730 -1.6458  0.9300 -0.3083
55382SOL    HW276077  11.500  12.815   3.749 -1.4509  0.5268 -0.2913
55383SOL     OW76078   5.962  13.226   3.381  0.3946 -0.3699 -0.0235
55383SOL    HW176079   6.018  13.149   3.378 -0.7504 -1.2262 -0.1951
55383SOL    HW276080   5.944  13.240   3.474  0.9026 -0.0827  0.0323
55384SOL     OW76081   6.321  12.945   1.339 -0.2510 -0.3081 -0.4540
55384SOL    HW176082   6.405  12.961   1.294 -0.1797 -1.1314 -0.6420
55384SOL    HW276083   6.343  12.885   1.410 -0.5569  0.1080  0.0022
55385SOL     OW76084   1.178   7.069   4.247 -0.2337 -0.4492 -0.5160
55385SOL    HW176085   1.176   7.103   4.158 -0.0609  1.6658  0.2320
55385SOL    HW276086   1.202   6.977   4.238 -1.0582 -0.4939 -2.6915
55386SOL     OW76087   0.696  12.859  10.337  0.4803 -0.3437 -0.1585
55386SOL    HW176088   0.650  12.775  10.339 -1.3183  0.5420 -1.8579
55386SOL    HW276089   0.768  12.846  10.275  0.0498 -0.5540 -0.6136
55387SOL     OW76090  10.677   6.538   2.701  0.1147  0.2347  0.5670
55387SOL    HW176091  10.745   6.524   2.767 -2.0015  0.7580  3.0276
55387SOL    HW276092  10.663   6.451   2.663  2.1396  0.1279 -0.0414
55388SOL     OW76093  12.689   4.599  10.108 -0.1232 -0.2398  0.3058
55388SOL    HW176094  12.623   4.535  10.135 -1.0570  0.6523  0.2078
55388SOL    HW276095  12.751   4.549  10.056 -0.6840 -1.1178  0.4512
55389SOL     OW76096   5.992   6.262   0.002  0.1072 -0.3146 -0.9103
55389SOL    HW176097   5.979   6.167   0.010  0.4459 -0.2274  1.0558
55389SOL    HW276098   6.064   6.271  -0.060 -1.0483 -1.2432 -2.4699
55390SOL     OW76099   1.256  10.145   4.488 -0.0505  0.2539  0.7272
55390SOL    HW176100   1.300  10.227   4.464  0.6815 -0.4553 -0.4727
55390SOL    HW276101   1.328  10.084   4.504 -0.5620 -0.9401 -1.2639
55391SOL     OW76102   5.991   7.943   1.474  0.4785  0.1955  0.3212
55391SOL    HW176103   5.995   7.858   1.431  1.7947  0.1147  0.5515
55391SOL    HW276104   6.058   7.996   1.430 -1.8507  1.9232 -1.3970
55392SOL     OW76105   8.935   5.000   1.393  0.0280  0.3569 -0.0421
55392SOL    HW176106   8.992   4.925   1.409  0.2682  0.6839  0.6460
55392SOL    HW276107   8.962   5.065   1.457 -0.6929  0.7522 -0.1298
55393SOL     OW76108  11.072   6.445   9.413 -0.0998  0.0928  0.1436
55393SOL    HW176109  11.065   6.537   9.389 -0.8122  0.2130  0.7578
55393SOL    HW276110  11.158   6.418   9.383  0.3286  1.1116  0.4288
55394SOL     OW76111  10.675   0.099   0.253 -0.1185 -0.1741 -0.3264
55394SOL    HW176112  10.693   0.020   0.303 -0.1104  0.3870  0.5748
55394SOL    HW276113  10.749   0.107   0.193  0.0500 -0.6674 -0.1879
55395SOL     OW76114   1.455   3.185  12.155  0.0265 -0.5974 -0.7862
55395SOL    HW176115   1.390   3.153  12.093  0.5160 -2.9535 -0.2002
55395SOL    HW276116   1.508   3.107  12.176  1.8218  0.8177  0.1939
55396SOL     OW76117   7.041   5.146  10.143 -0.1523 -0.1412 -0.0972
55396SOL    HW176118   7.122   5.122  10.097  0.5823  1.5502  0.2473
55396SOL    HW276119   6.990   5.194  10.078  0.0662  0.6213  0.2810
55397SOL     OW76120   4.716   7.753   9.524 -0.1124 -0.2949  0.5777
55397SOL    HW176121   4.783   7.807   9.566 -1.4018  1.7311  0.1362
55397SOL    HW276122   4.668   7.714   9.597 -0.6389  1.0444  0.9690
55398SOL     OW76123  11.717   9.123  11.986  0.0735 -0.4179 -0.0038
55398SOL    HW176124  11.634   9.097  11.946 -0.2363  0.1406  0.2622
55398SOL    HW276125  11.746   9.199  11.935  0.4718 -0.6724 -0.1572
55399SOL     OW76126   3.798   7.261   5.860 -0.3253 -0.1009  0.0868
55399SOL    HW176127   3.753   7.176   5.866 -0.3652 -0.0535  0.4969
55399SOL    HW276128   3.879   7.249   5.910 -1.5681  0.8855  2.5464
55400SOL     OW76129   4.008   2.408   9.516  0.0233  0.4673  0.0133
55400SOL    HW176130   4.017   2.319   9.481  1.5601  1.0703 -1.2671
55400SOL    HW276131   3.992   2.462   9.439  0.6124  1.4754  0.5811
55401SOL     OW76132  10.955  11.833   7.033  0.9287 -0.3705  0.3328
55401SOL    HW176133  10.877  11.887   7.044  0.7806 -0.8191  1.6605
55401SOL    HW276134  10.959  11.780   7.113  2.6891 -0.2332  0.3683
55402SOL     OW76135   6.982   3.490  10.049 -0.9572  0.1495 -0.3466
55402SOL    HW176136   6.942   3.428   9.989 -1.1390  1.3171 -1.4650
55402SOL    HW276137   6.971   3.575  10.007 -1.2257  1.0320  1.4041
55403SOL     OW76138   3.126   7.621  11.939 -0.4725 -0.4115 -0.3632
55403SOL    HW176139   3.060   7.658  11.880 -0.2427 -0.2868 -0.5392
55403SOL    HW276140   3.075   7.566  11.998 -0.8546  0.3641  0.0560
55404SOL     OW76141   9.231   7.779   4.731 -0.6176 -0.3096 -0.2696
55404SOL    HW176142   9.320   7.781   4.766 -1.8953 -2.0576  3.6942
55404SOL    HW276143   9.226   7.697   4.682  0.0059 -0.0700 -0.7404
55405SOL     OW76144   3.841  11.526   4.897 -0.5091  0.0568 -0.4708
55405SOL    HW176145   3.868  11.600   4.842  1.7545  0.1743  0.6899
55405SOL    HW276146   3.747  11.538   4.908 -0.0126  3.8509  1.1440
55406SOL     OW76147   0.182   4.671  13.302  0.2608 -0.0716 -0.4334
55406SOL    HW176148   0.114   4.730  13.335 -1.6168 -1.2609 -1.9329
55406SOL    HW276149   0.251   4.675  13.368 -0.6242  2.2681  0.4759
55407SOL     OW76150   3.725   6.827   0.206 -0.8330 -0.0573  0.4496
55407SOL    HW176151   3.775   6.892   0.256 -2.5653  0.1172  2.0426
55407SOL    HW276152   3.656   6.878   0.162 -0.0529 -0.3755 -1.2304
55408SOL     OW76153   0.348   5.025   8.085 -0.1798  0.5063  0.2961
55408SOL    HW176154   0.334   4.930   8.081 -1.7493  0.7311 -0.9467
55408SOL    HW276155   0.388   5.040   8.170 -2.5735 -0.9925  1.8302
55409SOL     OW76156   0.792  12.239   1.616  0.1979  0.4204  0.7566
55409SOL    HW176157   0.861  12.193   1.567  0.2862  0.3045  0.9874
55409SOL    HW276158   0.785  12.191   1.698  1.1010  1.5019  1.4957
55410SOL     OW76159   2.896   6.888   9.724 -0.2156  0.1836  0.4918
55410SOL    HW176160   2.935   6.840   9.651 -0.9018  0.2880  0.0483
55410SOL    HW276161   2.919   6.836   9.802  0.0115 -0.2476  0.1428
55411SOL     OW76162  11.885  12.501   0.088 -0.6329 -0.2565  0.1187
55411SOL    HW176163  11.910  12.461   0.171  1.2443  0.5415 -0.0036
55411SOL    HW276164  11.928  12.448   0.021  0.2013  0.7118 -0.1520
55412SOL     OW76165   5.043   4.539  12.124  0.0567 -0.5614 -0.9491
55412SOL    HW176166   4.982   4.534  12.197  1.2526 -0.2321  0.0860
55412SOL    HW276167   4.992   4.507  12.049 -1.0540 -1.3353  0.0914
55413SOL     OW76168   6.603   3.633   0.346  0.5840  0.2639  0.1453
55413SOL    HW176169   6.667   3.655   0.278  0.5445 -1.3604 -0.4647
55413SOL    HW276170   6.656   3.600   0.419  0.4717 -1.1051 -0.3697
55414SOL     OW76171   1.300   1.748   0.695  0.3875  0.0370  0.0138
55414SOL    HW176172   1.222   1.718   0.648 -0.6386 -1.7566  2.6228
55414SOL    HW276173   1.268   1.818   0.752  1.4731  1.7065 -1.3185
55415SOL     OW76174   6.106   8.250   7.988  0.2123  0.1015 -0.3594
55415SOL    HW176175   6.125   8.172   7.937 -0.8625 -0.4457  0.0533
55415SOL    HW276176   6.067   8.311   7.925 -0.6558 -0.3897 -0.3115
55416SOL     OW76177   1.657  10.688   3.479  0.5479  0.2787 -0.1522
55416SOL    HW176178   1.618  10.669   3.394  1.0940 -1.6354 -0.0207
55416SOL    HW276179   1.598  10.753   3.518 -1.2302 -0.7834 -0.9180
55417SOL     OW76180   6.046   2.714   1.725  0.1486 -0.2245  0.0610
55417SOL    HW176181   6.058   2.704   1.630  0.5232  0.5528  0.0201
55417SOL    HW276182   6.018   2.627   1.754 -0.9557 -0.2250 -0.9105
55418SOL     OW76183  10.445   4.009   2.068  0.0215 -0.1558  0.3812
55418SOL    HW176184  10.420   3.941   2.005 -1.9132  1.5984 -0.8867
55418SOL    HW276185  10.487   4.076   2.014  0.0604  0.5569  1.2795
55419SOL     OW76186   1.156   9.890   4.011 -0.2676  0.2294 -0.5766
55419SOL    HW176187   1.202   9.808   4.029 -2.0858 -1.0775 -1.5017
55419SOL    HW276188   1.118   9.915   4.095  0.9611  0.5604 -0.1170
55420SOL     OW76189   4.170   3.276   7.756 -0.5886  0.3191 -0.0383
55420SOL    HW176190   4.176   3.360   7.711  2.3906 -0.3598 -1.2079
55420SOL    HW276191   4.254   3.267   7.801 -0.2835 -2.4805 -0.9184
55421SOL     OW76192   8.285   6.274   2.222  0.1491  0.3574 -0.2733
55421SOL    HW176193   8.199   6.261   2.181 -0.0566 -0.6368  0.4269
55421SOL    HW276194   8.268   6.335   2.294 -0.1306 -0.3705  0.2974
55422SOL     OW76195  12.338   9.780   1.431 -0.1400  0.2766 -0.3879
55422SOL    HW176196  12.341   9.873   1.406 -2.1939  0.5784  0.2552
55422SOL    HW276197  12.340   9.782   1.527  2.1932 -0.5447 -0.3423
55423SOL     OW76198   3.738   8.030   5.939  0.1663 -0.5420  0.2064
55423SOL    HW176199   3.819   8.073   5.915  0.5007 -0.7751  0.8918
55423SOL    HW276200   3.728   7.960   5.874  0.2798 -0.2408 -0.1383
55424SOL     OW76201   7.246   8.458   3.827  0.0780 -0.5027 -0.2495
55424SOL    HW176202   7.334   8.488   3.851 -0.1120 -0.0166 -0.1410
55424SOL    HW276203   7.235   8.488   3.736 -0.9109  1.6810  0.5158
55425SOL     OW76204   5.346   2.454   7.995 -0.4347  0.2345  0.3057
55425SOL    HW176205   5.367   2.545   7.976 -0.4834  0.2693  0.4135
55425SOL    HW276206   5.332   2.452   8.090  0.9366 -0.1607  0.5224
55426SOL     OW76207   4.270   0.849   2.885 -0.6142  0.2394 -0.0513
55426SOL    HW176208   4.282   0.756   2.905 -1.1004  0.1991  0.0667
55426SOL    HW276209   4.356   0.888   2.902 -0.6331 -0.0422  0.7403
55427SOL     OW76210   1.964   5.914   9.814  0.0478  0.4332 -0.4223
55427SOL    HW176211   2.036   5.955   9.863  1.7913 -1.6575 -1.0512
55427SOL    HW276212   1.908   5.876   9.881  0.6602  0.3399  0.0549
55428SOL     OW76213   2.885   4.236  13.091 -0.2854  0.3655  0.0094
55428SOL    HW176214   2.947   4.163  13.092 -1.3004 -0.5324  0.8827
55428SOL    HW276215   2.938   4.313  13.072  0.7848 -0.6225 -1.1407
55429SOL     OW76216   5.654   9.492   0.753 -0.3184 -0.1355 -0.4782
55429SOL    HW176217   5.677   9.584   0.741 -0.4036 -0.0000  0.3754
55429SOL    HW276218   5.738   9.446   0.750  0.1401  0.3328  2.3474
55430SOL     OW76219   5.145   7.079   6.699 -0.3952 -0.5470 -0.6401
55430SOL    HW176220   5.098   6.999   6.673 -0.9179 -0.3645 -0.2679
55430SOL    HW276221   5.185   7.110   6.618 -0.3768 -1.0614 -0.8338
55431SOL     OW76222   4.617   8.054   8.303 -0.0647 -1.3194  0.3300
55431SOL    HW176223   4.672   8.019   8.373 -0.6755 -0.7933  1.0888
55431SOL    HW276224   4.543   8.094   8.348  0.3432  0.5121 -0.5308
55432SOL     OW76225   6.586  12.442   1.028  0.0893  0.4163  0.1959
55432SOL    HW176226   6.501  12.443   1.071 -1.0161 -1.1734 -1.7514
55432SOL    HW276227   6.633  12.368   1.068 -0.3320 -0.0817 -0.2051
55433SOL     OW76228   1.617   6.640   6.149 -0.0856 -0.7103 -0.1650
55433SOL    HW176229   1.526   6.617   6.166 -0.1177  0.5928  1.5492
55433SOL    HW276230   1.666   6.563   6.178 -0.5446 -0.8270  0.3228
55434SOL     OW76231   6.821   7.164   0.487 -0.2739 -0.2097 -0.1424
55434SOL    HW176232   6.818   7.071   0.463 -0.2191 -0.1613 -0.3341
55434SOL    HW276233   6.914   7.183   0.497 -0.2506 -0.0177 -0.7086
55435SOL     OW76234  11.190  10.825   5.286 -0.3102  0.4525  0.4300
55435SOL    HW176235  11.285  10.839   5.292  0.0447 -1.1882 -0.4724
55435SOL    HW276236  11.181  10.730   5.287 -2.0811  0.5874  1.7967
55436SOL     OW76237   2.257   7.131   9.124  0.2019 -0.4736  0.2277
55436SOL    HW176238   2.218   7.068   9.184  1.8770 -0.9063  0.8849
55436SOL    HW276239   2.185   7.192   9.105 -0.8540 -1.3559  1.2340
55437SOL     OW76240   1.558  12.292   8.111 -0.2311  0.2671  0.0361
55437SOL    HW176241   1.467  12.272   8.089  0.3048 -1.8895 -0.4980
55437SOL    HW276242   1.557  12.384   8.136 -2.0790  1.0470 -2.4864
55438SOL     OW76243   5.305  11.988  10.858 -0.8883 -0.3899  0.1573
55438SOL    HW176244   5.226  12.042  10.867  0.5251  2.1409 -1.3455
55438SOL    HW276245   5.343  12.016  10.775  0.8247 -2.6111  0.1242
55439SOL     OW76246   6.411   6.743   0.353  0.7665 -0.6632  0.2491
55439SOL    HW176247   6.442   6.832   0.339  0.0641 -0.5576 -0.7618
55439SOL    HW276248   6.318   6.754   0.376  0.9012 -1.0894  1.0365
55440SOL     OW76249   0.722  12.341   7.663 -0.0636 -0.1352  0.1926
55440SOL    HW176250   0.722  12.417   7.721  2.6647 -0.6317  0.9849
55440SOL    HW276251   0.671  12.368   7.587  2.2052  3.1728 -0.3274
55441SOL     OW76252   6.239   4.136   2.231  0.5681 -0.5131  0.0344
55441SOL    HW176253   6.186   4.204   2.190  0.0767 -0.9037  0.0046
55441SOL    HW276254   6.311   4.120   2.169 -0.0377 -0.9365 -0.5766
55442SOL     OW76255   3.740   9.289   8.462 -0.2547 -0.3560  0.0611
55442SOL    HW176256   3.826   9.266   8.497  0.0981  1.5817  0.6064
55442SOL    HW276257   3.681   9.282   8.537 -0.0044  1.1202  0.4284
55443SOL     OW76258   5.870   6.874   2.376  0.0071 -0.3567  0.6481
55443SOL    HW176259   5.858   6.968   2.386  1.5926 -0.0135 -0.2847
55443SOL    HW276260   5.904   6.845   2.461 -1.3662 -0.2826  1.2471
55444SOL     OW76261  10.576   7.489   0.337  0.0020 -1.0541  0.1860
55444SOL    HW176262  10.640   7.417   0.335 -1.6012 -2.5404 -0.1449
55444SOL    HW276263  10.496   7.449   0.370 -1.4714  0.1245 -1.7437
55445SOL     OW76264   6.250   0.284   6.694 -0.3740  0.2343  0.5320
55445SOL    HW176265   6.214   0.195   6.701 -0.0255  0.1247  0.9352
55445SOL    HW276266   6.228   0.325   6.778 -0.7980  0.6301  0.2322
55446SOL     OW76267   7.069  11.593   1.701  0.0979  0.4617 -0.1923
55446SOL    HW176268   7.064  11.676   1.653  1.6768 -0.4990 -2.1467
55446SOL    HW276269   7.148  11.550   1.667  0.4541 -0.9668  2.2389
55447SOL     OW76270  11.664   0.548   7.410 -0.3347  0.2526 -0.0594
55447SOL    HW176271  11.657   0.623   7.351 -0.6112 -0.0055 -0.3613
55447SOL    HW276272  11.757   0.525   7.409 -0.3822  0.0876 -0.5941
55448SOL     OW76273   9.644   5.420   3.454 -0.0987  0.1577  0.1760
55448SOL    HW176274   9.665   5.327   3.462  2.1036  0.6477  0.6190
55448SOL    HW276275   9.554   5.421   3.420 -0.0622 -2.1126 -0.1452
55449SOL     OW76276   2.384   3.816   9.280 -0.2268  0.0163 -0.0266
55449SOL    HW176277   2.452   3.751   9.260 -0.4361 -0.0202 -0.6060
55449SOL    HW276278   2.362   3.799   9.372  1.6062  0.9832  0.6503
55450SOL     OW76279   2.701   1.313  10.951 -0.2490 -0.4649 -0.2456
55450SOL    HW176280   2.666   1.402  10.950  2.3149  0.7070  2.0204
55450SOL    HW276281   2.648   1.267  11.017 -1.1577 -0.5011 -0.9660
55451SOL     OW76282  10.857   6.369   4.740 -0.0447  0.2249 -0.1667
55451SOL    HW176283  10.886   6.410   4.822  0.9951  0.4153 -0.6132
55451SOL    HW276284  10.817   6.440   4.691 -0.1905  0.2298 -0.0406
55452SOL     OW76285   0.158   6.628   4.939  0.2485  0.3918  0.2768
55452SOL    HW176286   0.142   6.668   5.025  1.4883 -1.1295  1.2663
55452SOL    HW276287   0.196   6.543   4.959 -2.0176 -1.2495 -1.7211
55453SOL     OW76288  12.987  11.355   0.397  0.0617 -0.1440 -0.6403
55453SOL    HW176289  13.028  11.304   0.327  2.4851  0.2943  0.3418
55453SOL    HW276290  13.052  11.422   0.419 -1.1712  0.5525  1.1341
55454SOL     OW76291   7.534  12.377   5.042  0.0955 -0.1893 -0.2938
55454SOL    HW176292   7.579  12.430   5.108  0.9627  1.4449 -2.0862
55454SOL    HW276293   7.579  12.293   5.044  0.5891  0.0806  0.6615
55455SOL     OW76294  10.856   9.726  10.425 -0.1529  0.4555 -0.1927
55455SOL    HW176295  10.780   9.781  10.442 -1.0050 -0.5738 -0.5651
55455SOL    HW276296  10.923   9.786  10.392 -1.9154  0.9534 -3.2191
55456SOL     OW76297   5.453  12.358   0.678  0.3373 -1.0808  0.2125
55456SOL    HW176298   5.513  12.288   0.654 -0.4973 -1.3919 -1.0881
55456SOL    HW276299   5.468  12.372   0.772  0.7953 -2.7325  0.4181
55457SOL     OW76300   2.815  11.479  12.364  0.4275 -0.4357  0.6941
55457SOL    HW176301   2.768  11.415  12.418  1.9224 -1.8468  0.3938
55457SOL    HW276302   2.846  11.429  12.289  0.5293  0.9535 -0.2114
55458SOL     OW76303   8.279   1.218  11.582 -0.1898  0.0347 -0.0766
55458SOL    HW176304   8.265   1.172  11.665 -1.1353 -1.9960 -1.2964
55458SOL    HW276305   8.344   1.166  11.536 -1.1538 -0.0278 -1.4310
55459SOL     OW76306   8.758  11.111  11.474  0.6529  0.6932  0.7462
55459SOL    HW176307   8.747  11.205  11.490  1.6716  0.8679  0.4518
55459SOL    HW276308   8.776  11.074  11.560 -0.8327  0.5888  1.0400
55460SOL     OW76309  11.577  12.988   4.780  0.1498  0.3125 -0.5664
55460SOL    HW176310  11.664  12.971   4.744  0.1697 -0.6614 -0.0924
55460SOL    HW276311  11.535  13.046   4.716  1.7403  2.2304  0.0440
55461SOL     OW76312   9.471   7.728   9.928 -0.2388  0.1262  0.0547
55461SOL    HW176313   9.473   7.794   9.997  3.1067  0.4348 -0.1702
55461SOL    HW276314   9.467   7.644   9.974 -0.7203  0.3666  0.4682
55462SOL     OW76315   6.777  11.911   0.753  0.6858 -0.6313  0.4507
55462SOL    HW176316   6.774  11.993   0.802  0.0911 -0.2421 -0.2109
55462SOL    HW276317   6.774  11.938   0.661  0.8919 -1.3813  0.2162
55463SOL     OW76318  11.482   2.295   8.157  0.0948 -0.4073  0.3003
55463SOL    HW176319  11.522   2.267   8.239 -1.6463 -1.5660  0.8200
55463SOL    HW276320  11.482   2.391   8.162  0.9519 -0.4443  1.1730
55464SOL     OW76321   9.759   5.916  11.868  0.0061 -0.5610  0.3392
55464SOL    HW176322   9.769   5.837  11.816 -0.6604 -0.9000  0.7112
55464SOL    HW276323   9.830   5.912  11.933  1.3902  0.2971 -1.0348
55465SOL     OW76324   6.151   0.083  10.931 -0.1831  0.7151  0.0556
55465SOL    HW176325   6.087   0.109  10.865  1.1952 -0.9144 -2.0651
55465SOL    HW276326   6.160  -0.011  10.921  2.4764  0.8532  0.2556
55466SOL     OW76327   4.538   5.682   9.291  0.3417 -0.0269  0.1343
55466SOL    HW176328   4.593   5.612   9.256  0.4221 -0.2285  0.6600
55466SOL    HW276329   4.555   5.756   9.233 -0.5352 -0.7281 -1.0678
55467SOL     OW76330  12.788   2.125   7.857 -0.0654 -0.0036  0.3212
55467SOL    HW176331  12.795   2.144   7.950  2.4741  0.3036  0.1520
55467SOL    HW276332  12.743   2.041   7.852 -1.4673  0.6132  1.7099
55468SOL     OW76333   0.823   0.400   9.187 -0.2161 -0.1143 -0.6483
55468SOL    HW176334   0.875   0.456   9.129 -0.0247  1.2746  0.8210
55468SOL    HW276335   0.864   0.314   9.178  0.9829  0.4743 -1.1610
55469SOL     OW76336   9.858   5.092   3.038  0.1859 -0.2695 -0.3037
55469SOL    HW176337   9.856   5.008   3.084  0.4075 -0.3776 -0.4896
55469SOL    HW276338   9.914   5.148   3.092  0.1204 -0.2719 -0.2327
55470SOL     OW76339   7.283   3.810  12.915 -0.7106  0.0983 -0.0028
55470SOL    HW176340   7.341   3.871  12.960 -0.6871  1.6784 -2.0425
55470SOL    HW276341   7.269   3.739  12.978 -0.1035  1.8136  2.1710
55471SOL     OW76342   2.229   7.449   8.000  0.1276  0.2529  0.2486
55471SOL    HW176343   2.249   7.403   8.082 -0.0964 -0.7685 -0.2510
55471SOL    HW276344   2.142   7.418   7.976  0.6695 -0.3781 -0.9944
55472SOL     OW76345  11.140  12.176   3.771 -0.0257  0.5811 -0.2700
55472SOL    HW176346  11.058  12.128   3.760  0.4361 -0.1499 -0.6496
55472SOL    HW276347  11.161  12.167   3.864  1.3927 -2.2838 -0.7577
55473SOL     OW76348   8.375   9.994   7.036 -0.0105 -0.1832  0.4912
55473SOL    HW176349   8.326   9.990   6.955 -0.1370  0.7068  0.5084
55473SOL    HW276350   8.390  10.088   7.050 -1.7950 -0.1276  2.5593
55474SOL     OW76351   7.634   9.093  11.284 -0.0226 -0.5210  0.2378
55474SOL    HW176352   7.607   9.106  11.193 -0.6989 -1.2117  0.3264
55474SOL    HW276353   7.707   9.152  11.297 -1.4096  1.3524 -0.0728
55475SOL     OW76354   6.057   3.887   0.322  0.0856  0.5872 -0.1980
55475SOL    HW176355   6.015   3.857   0.403 -0.1679  1.0990 -0.1326
55475SOL    HW276356   6.140   3.840   0.319 -0.5919 -0.6551 -0.4643
55476SOL     OW76357   1.226   6.589   5.651 -0.0356  0.3843  0.1363
55476SOL    HW176358   1.182   6.504   5.644 -0.8271  0.7775  0.1912
55476SOL    HW276359   1.314   6.573   5.616 -0.2821 -0.3759 -0.1683
55477SOL     OW76360   8.230  13.162   0.080 -0.2618 -0.5779 -0.0997
55477SOL    HW176361   8.227  13.184   0.173 -0.4722 -0.1026 -0.2109
55477SOL    HW276362   8.210  13.069   0.075 -1.6789 -0.3082  0.2263
55478SOL     OW76363   8.257   1.867   2.082  0.1102  0.1430 -0.0814
55478SOL    HW176364   8.263   1.853   1.987  0.4027 -1.0410  0.0961
55478SOL    HW276365   8.164   1.872   2.100 -0.0464 -1.7977 -0.1659
55479SOL     OW76366  10.406   9.739   6.437 -0.0340  0.7175 -0.3661
55479SOL    HW176367  10.500   9.727   6.424 -0.3400 -0.7098 -1.5049
55479SOL    HW276368  10.392   9.722   6.530  1.0320  2.6018  0.1885
55480SOL     OW76369   2.109   4.940   3.245 -0.1027 -0.0979 -0.1261
55480SOL    HW176370   2.170   4.919   3.175 -0.7018  2.9272 -1.7042
55480SOL    HW276371   2.161   4.932   3.325  1.3942 -0.8305 -1.1239
55481SOL     OW76372   9.803   3.560   1.582  0.1515 -0.0683  0.1016
55481SOL    HW176373   9.788   3.496   1.651  0.2437 -0.3585 -0.1423
55481SOL    HW276374   9.745   3.632   1.603  0.1133 -0.1918  0.4327
55482SOL     OW76375  12.020  10.155  11.830 -0.0470  0.5917 -0.2771
55482SOL    HW176376  11.947  10.176  11.771  0.1659  0.5724 -0.5496
55482SOL    HW276377  12.090  10.214  11.802  0.5882 -0.5064 -1.0935
55483SOL     OW76378   7.874  11.775   0.574  0.9220 -0.2703  0.1008
55483SOL    HW176379   7.845  11.739   0.658 -0.2311 -0.6476 -0.4482
55483SOL    HW276380   7.913  11.700   0.529 -0.2471 -0.5328 -0.4912
55484SOL     OW76381   3.150  10.655   8.799 -0.4675 -0.2130 -0.9433
55484SOL    HW176382   3.126  10.659   8.891  1.8636  1.1655 -0.3209
55484SOL    HW276383   3.116  10.570   8.769 -2.6833  0.0007  0.6890
55485SOL     OW76384   4.415   0.320   2.708 -0.3515  0.2937 -0.2676
55485SOL    HW176385   4.495   0.369   2.728  0.1614 -0.8654  0.5894
55485SOL    HW276386   4.353   0.344   2.776  0.2805 -1.0807  0.8336
55486SOL     OW76387  12.913   2.771   1.067 -0.2703  0.1882 -0.6499
55486SOL    HW176388  12.899   2.819   0.986 -0.3051 -2.2391 -2.1828
55486SOL    HW276389  13.008   2.765   1.076 -0.2148 -1.5708 -1.8854
55487SOL     OW76390   8.720   8.337  12.747 -0.1198 -0.8356  0.3301
55487SOL    HW176391   8.779   8.298  12.811  0.4532 -0.3047  0.1407
55487SOL    HW276392   8.779   8.380  12.684 -0.6768 -1.1562 -0.4201
55488SOL     OW76393   4.988  12.870   3.115 -0.2402 -0.2862  0.4764
55488SOL    HW176394   4.923  12.895   3.050  0.4418  0.1048 -0.0629
55488SOL    HW276395   5.060  12.832   3.064  0.1646 -0.2684  1.0256
55489SOL     OW76396  10.966   2.210   7.033  0.0452  0.4285 -0.1089
55489SOL    HW176397  10.904   2.138   7.020  0.4581  0.0524 -0.0115
55489SOL    HW276398  11.035   2.194   6.969  0.3542  0.4931  0.2030
55490SOL     OW76399   0.801  13.075   5.806 -0.1985  0.0279  0.1659
55490SOL    HW176400   0.844  13.145   5.854  1.3543  0.1409 -1.3018
55490SOL    HW276401   0.765  13.117   5.728  1.5261 -0.8674 -1.1977
55491SOL     OW76402   3.089   9.254  12.972 -0.1405 -0.2211  0.3127
55491SOL    HW176403   3.041   9.183  13.016 -1.8438 -0.0391 -1.1125
55491SOL    HW276404   3.074   9.330  13.027  0.1425 -0.5714  0.8864
55492SOL     OW76405   3.187   1.379   1.254  0.2854 -0.1365 -1.0284
55492SOL    HW176406   3.191   1.325   1.333  2.4085 -0.5296 -1.3434
55492SOL    HW276407   3.106   1.353   1.211  0.7032 -2.2702 -0.6051
55493SOL     OW76408   6.767   8.255   0.961  0.2039  0.6799 -0.9403
55493SOL    HW176409   6.676   8.281   0.945 -0.2406  0.2092  0.6915
55493SOL    HW276410   6.773   8.166   0.927 -0.8366 -0.4577  1.6013
55494SOL     OW76411   9.283   1.302   7.791 -0.9768  0.8217 -0.3388
55494SOL    HW176412   9.373   1.299   7.759 -1.1802  1.9948 -1.0826
55494SOL    HW276413   9.288   1.347   7.875 -0.6492 -0.8403  0.5802
55495SOL     OW76414   5.611  11.026   1.063 -0.1102 -0.1491 -0.0385
55495SOL    HW176415   5.590  11.018   1.156 -2.1144 -0.4895 -0.4698
55495SOL    HW276416   5.526  11.032   1.020  0.6439 -2.1854 -2.0465
55496SOL     OW76417   4.257  11.958   7.052 -0.3408 -0.0903  0.3146
55496SOL    HW176418   4.238  11.876   7.006  1.3564 -0.1625 -0.3036
55496SOL    HW276419   4.294  11.931   7.135 -0.2142  0.0483  0.3033
55497SOL     OW76420   4.601  10.713   0.359  0.4301  0.3620  0.3933
55497SOL    HW176421   4.548  10.665   0.423 -1.2315  1.1681 -0.3315
55497SOL    HW276422   4.630  10.791   0.405 -1.2132  1.2107  0.0518
55498SOL     OW76423   8.137   6.038   4.466 -0.3641 -0.2210  0.4316
55498SOL    HW176424   8.149   6.076   4.379  0.5032 -0.9122  0.2314
55498SOL    HW276425   8.049   6.065   4.492 -0.2887  0.7543 -0.2722
55499SOL     OW76426   5.753   8.569   4.716 -0.8314  0.1311 -0.2808
55499SOL    HW176427   5.724   8.556   4.625  1.2746  0.5596 -1.0622
55499SOL    HW276428   5.705   8.648   4.744 -3.1555 -1.2108 -0.2063
55500SOL     OW76429   1.934   8.465   8.532 -0.1132  0.1556  0.2146
55500SOL    HW176430   1.989   8.405   8.582 -0.1772 -2.0140 -2.1407
55500SOL    HW276431   1.845   8.444   8.559 -0.1300 -0.8150 -0.5470
55501SOL     OW76432   1.547  12.304   2.484  0.1813  0.0207 -0.5684
55501SOL    HW176433   1.533  12.282   2.577  0.6930 -1.5714 -0.8341
55501SOL    HW276434   1.467  12.276   2.440  0.2677  0.0130 -0.7210
55502SOL     OW76435  11.294  10.226   2.918 -0.0224  0.8270  0.5252
55502SOL    HW176436  11.368  10.191   2.968 -0.4722  1.8122  1.9330
55502SOL    HW276437  11.302  10.184   2.832  0.5619 -1.2420  1.5042
55503SOL     OW76438   3.038  12.149   0.026  0.4534 -0.0921  0.5395
55503SOL    HW176439   3.064  12.076   0.082  0.7400 -0.5427 -0.1750
55503SOL    HW276440   3.106  12.153  -0.042 -0.2076  0.0637 -0.1254
55504SOL     OW76441   7.539   8.317   8.715 -0.4195 -0.3440 -0.2812
55504SOL    HW176442   7.601   8.257   8.675  0.6141  0.7188 -0.3316
55504SOL    HW276443   7.523   8.384   8.647  2.3577  2.2140  1.3686
55505SOL     OW76444   6.625   7.548   9.256 -0.5134 -0.3470  0.2851
55505SOL    HW176445   6.633   7.610   9.328 -1.3986  0.5877 -0.3876
55505SOL    HW276446   6.539   7.566   9.219  0.7369  0.6947 -2.3520
55506SOL     OW76447  12.219   6.382   4.309 -0.3250 -0.0666  0.0061
55506SOL    HW176448  12.177   6.453   4.261 -1.1533  0.2172  1.0985
55506SOL    HW276449  12.292   6.424   4.355 -0.3340 -0.0788  0.0325
55507SOL     OW76450   8.608   2.502   0.462 -0.2564  0.0058 -0.1733
55507SOL    HW176451   8.572   2.581   0.503 -0.2395  0.9100 -1.8314
55507SOL    HW276452   8.535   2.440   0.460 -1.3911  1.2964 -2.1557
55508SOL     OW76453  10.287   0.150   2.268  0.0518 -0.3181 -0.3901
55508SOL    HW176454  10.226   0.223   2.265  0.0012 -0.2423  1.5482
55508SOL    HW276455  10.372   0.189   2.244  0.2646  0.6901  1.7850
55509SOL     OW76456   3.544   6.550   4.630  0.3910 -0.7817  0.4554
55509SOL    HW176457   3.561   6.489   4.558 -0.7352  0.3366 -0.8382
55509SOL    HW276458   3.510   6.496   4.701  1.5511 -1.9247  0.1769
55510SOL     OW76459   6.499   2.702  12.427  0.1430  0.0196  0.7779
55510SOL    HW176460   6.564   2.632  12.421 -1.2027 -1.2274  0.2488
55510SOL    HW276461   6.416   2.657  12.438 -0.8550  1.5182 -0.2345
55511SOL     OW76462   0.959   7.967   7.262  0.0978 -0.1636  0.1822
55511SOL    HW176463   0.959   7.948   7.168  1.3482  2.7824 -0.5240
55511SOL    HW276464   0.991   7.886   7.302  1.0358 -1.0085 -2.0789
55512SOL     OW76465  10.729   0.875  10.756 -0.3693 -0.1903  0.2017
55512SOL    HW176466  10.820   0.890  10.732  0.8093 -2.6461  2.5735
55512SOL    HW276467  10.729   0.872  10.852 -3.0690  0.2006  0.3091
55513SOL     OW76468   5.541   5.902   1.584 -0.1025 -0.0309 -0.2749
55513SOL    HW176469   5.465   5.886   1.640  0.0749  1.2172  0.3673
55513SOL    HW276470   5.599   5.956   1.638 -0.1015  1.5700 -1.7932
55514SOL     OW76471   5.499   9.976   4.902 -0.0666  0.2971  0.3127
55514SOL    HW176472   5.481  10.022   4.820 -1.7791 -0.7277  0.0545
55514SOL    HW276473   5.531  10.043   4.961  0.9648  1.1100 -1.1122
55515SOL     OW76474   1.136   7.315  13.291  0.0931  0.2610 -0.2671
55515SOL    HW176475   1.093   7.397  13.268  0.6396  0.2744 -1.2843
55515SOL    HW276476   1.066   7.250  13.289 -0.2485  0.6068  0.0704
55516SOL     OW76477   5.013   2.142   9.008  0.0032  0.2452 -0.7453
55516SOL    HW176478   4.946   2.169   9.071 -0.7106  2.4972 -2.3360
55516SOL    HW276479   5.091   2.192   9.033  0.5927 -0.9832 -0.0145
55517SOL     OW76480   2.140   2.971   6.270 -0.1572  0.2916 -0.3129
55517SOL    HW176481   2.096   2.887   6.278  0.4015 -0.1477 -1.6045
55517SOL    HW276482   2.083   3.032   6.318 -1.7504 -0.4105 -1.2229
55518SOL     OW76483  10.519   0.376   2.856  0.4496 -0.0233  0.5440
55518SOL    HW176484  10.579   0.305   2.879 -0.2928 -0.9549 -0.2912
55518SOL    HW276485  10.490   0.411   2.940  0.3826 -1.0986  0.9876
55519SOL     OW76486   0.358  13.156   0.325  0.5877  0.3491 -0.3953
55519SOL    HW176487   0.328  13.199   0.405  1.6129 -0.5986  0.5497
55519SOL    HW276488   0.340  13.063   0.340 -1.2772  0.3433 -2.2404
55520SOL     OW76489  12.945   7.307   9.165 -0.2157 -0.4303  0.0574
55520SOL    HW176490  13.003   7.237   9.134 -0.2903 -0.0919 -0.8622
55520SOL    HW276491  12.941   7.293   9.260 -0.4319 -1.8398 -0.1248
55521SOL     OW76492  12.114   0.548   7.851  0.2373  0.1946  0.0145
55521SOL    HW176493  12.201   0.567   7.815  0.3838 -0.3039  0.0978
55521SOL    HW276494  12.087   0.630   7.893  0.7136  0.3176  0.0846
55522SOL     OW76495   3.943   2.588   7.622 -0.2531  0.0172  0.7198
55522SOL    HW176496   3.848   2.591   7.612 -0.5769  0.0476  3.2061
55522SOL    HW276497   3.957   2.553   7.710  2.0330  1.2987  0.9409
55523SOL     OW76498   2.934   8.716  11.220  0.7625  0.1713  0.3663
55523SOL    HW176499   2.862   8.779  11.213  0.2819 -0.3873  0.2140
55523SOL    HW276500   3.013   8.769  11.211  0.4098  0.9450  1.5467
55524SOL     OW76501   4.453   1.682  12.238  0.0643 -0.5516  0.7471
55524SOL    HW176502   4.395   1.699  12.164 -0.8636 -0.7944  1.3996
55524SOL    HW276503   4.413   1.608  12.283  2.2455 -2.4333 -0.1996
55525SOL     OW76504   4.992   0.939   8.870 -0.0570 -0.2894 -0.1747
55525SOL    HW176505   4.930   0.942   8.943  0.6214 -1.9759  0.5264
55525SOL    HW276506   5.030   1.027   8.868 -2.6901  0.9573 -0.9028
55526SOL     OW76507   6.871   5.487   0.474 -0.4875  0.3908  0.2466
55526SOL    HW176508   6.855   5.569   0.427  0.5396  0.3399 -0.2194
55526SOL    HW276509   6.788   5.440   0.469 -0.2762  0.1508 -2.0279
55527SOL     OW76510   0.027   4.067   7.015 -0.0120 -0.5947 -0.2927
55527SOL    HW176511   0.122   4.069   7.024  0.0147 -0.2354 -0.6209
55527SOL    HW276512  -0.003   4.150   7.052 -0.2723 -1.0478  0.5471
55528SOL     OW76513   4.631   0.484   2.734 -0.4653  0.3291 -0.2782
55528SOL    HW176514   4.605   0.533   2.657  1.6104  0.4929 -0.9389
55528SOL    HW276515   4.618   0.544   2.808  1.4598  1.7317 -1.0014
55529SOL     OW76516  12.134   6.328   4.650 -0.4570  0.2608 -0.2632
55529SOL    HW176517  12.229   6.317   4.657 -0.2552 -0.1269 -2.7841
55529SOL    HW276518  12.122   6.423   4.646 -0.1603  0.3060 -0.1308
55530SOL     OW76519   7.679   9.606   3.323  0.1737  0.2736  0.0701
55530SOL    HW176520   7.773   9.618   3.328  0.6262 -2.1861 -1.1224
55530SOL    HW276521   7.659   9.541   3.390 -0.3249 -0.7153 -0.9984
55531SOL     OW76522   8.298   8.187   3.835 -0.0221  0.4522  0.0907
55531SOL    HW176523   8.384   8.149   3.816 -1.3247 -2.7309 -0.0676
55531SOL    HW276524   8.308   8.228   3.921  1.2058 -1.6639  1.0273
55532SOL     OW76525   7.695   8.752   2.997 -0.0886 -0.2754 -0.2300
55532SOL    HW176526   7.674   8.679   3.055  0.2343 -0.5206 -0.4226
55532SOL    HW276527   7.761   8.718   2.937 -1.0426 -0.3049 -1.3158
55533SOL     OW76528   7.560   2.248   4.132 -0.3372 -0.6955  0.4573
55533SOL    HW176529   7.608   2.331   4.130 -0.8454 -0.3643  1.3080
55533SOL    HW276530   7.625   2.182   4.108  0.5823 -0.2683  1.6666
55534SOL     OW76531   2.190   9.369  12.514  0.8057 -0.1880 -0.7292
55534SOL    HW176532   2.197   9.295  12.574  3.1667  0.1035 -0.5473
55534SOL    HW276533   2.139   9.434  12.563 -0.8098 -1.4107 -0.6823
55535SOL     OW76534   0.370   0.052   8.488  0.3880 -0.0242  0.3889
55535SOL    HW176535   0.425   0.023   8.415  1.6473 -1.1247  1.7093
55535SOL    HW276536   0.365  -0.024   8.546 -0.6513  0.7958  1.4248
55536SOL     OW76537   1.053   4.869   5.094 -0.0859 -1.1456  0.3912
55536SOL    HW176538   1.138   4.839   5.064 -0.2581 -1.4491  0.2090
55536SOL    HW276539   0.991   4.804   5.062 -0.2370 -1.6584  1.6765
55537SOL     OW76540   5.407   4.938  10.055  0.4185  0.0767  0.5523
55537SOL    HW176541   5.460   4.909  10.129 -0.4574  0.5141  1.3729
55537SOL    HW276542   5.392   4.859  10.003  1.1406 -0.2065  0.7745
55538SOL     OW76543   5.440  10.901   2.519  0.0955  0.2067 -0.5217
55538SOL    HW176544   5.425  10.809   2.500  1.9623 -0.1243 -0.6410
55538SOL    HW276545   5.356  10.934   2.549 -0.8189 -1.3196 -1.3001
55539SOL     OW76546   7.542   9.137   1.545  0.5564 -0.2745 -0.0318
55539SOL    HW176547   7.516   9.052   1.508 -0.5309  0.3032 -0.6089
55539SOL    HW276548   7.636   9.143   1.525  1.0410 -2.0549  1.4506
55540SOL     OW76549   2.347  11.769   5.160  0.1167 -0.2698 -0.0613
55540SOL    HW176550   2.346  11.849   5.213  0.1361 -0.5797  0.4145
55540SOL    HW276551   2.311  11.796   5.076 -0.5193  0.0938  0.3187
55541SOL     OW76552   4.807  12.492  10.912 -0.0054 -0.1126  0.6462
55541SOL    HW176553   4.749  12.567  10.921  1.3485  0.9181  1.0864
55541SOL    HW276554   4.770  12.426  10.970 -0.4969  0.6719  1.2390
55542SOL     OW76555   6.326   6.994   2.059  0.0190  0.7402 -0.0713
55542SOL    HW176556   6.397   6.985   2.123  0.4762 -0.4568 -0.7118
55542SOL    HW276557   6.272   7.065   2.094 -1.1771 -1.4581  3.0035
55543SOL     OW76558  12.360   1.550  10.944  0.3948 -0.3426 -0.1487
55543SOL    HW176559  12.400   1.515  10.864  0.3541  1.1048 -0.8326
55543SOL    HW276560  12.431   1.593  10.990  0.3725 -0.9866  0.5005
55544SOL     OW76561  10.927   1.234  11.813 -0.1185 -0.3216  0.8328
55544SOL    HW176562  10.882   1.307  11.770  1.3361 -0.2832 -0.7108
55544SOL    HW276563  10.963   1.272  11.894 -0.5875  0.2993  0.7564
55545SOL     OW76564   9.180   4.666   8.527  0.5492 -0.1445  0.0746
55545SOL    HW176565   9.136   4.739   8.485 -0.7288 -1.7518 -1.5605
55545SOL    HW276566   9.254   4.646   8.469  0.2767 -0.7769 -0.0671
55546SOL     OW76567  10.799   3.338  10.444  0.2228 -0.3568  0.5958
55546SOL    HW176568  10.869   3.380  10.495  2.0699  0.8331 -2.6694
55546SOL    HW276569  10.723   3.394  10.457  1.2782  1.2005  0.2935
55547SOL     OW76570  12.989   7.584  10.929 -0.1173  0.0461 -0.0711
55547SOL    HW176571  12.913   7.570  10.984 -0.1958  3.3404  0.8750
55547SOL    HW276572  13.031   7.498  10.923 -1.4429 -0.9487  3.0926
55548SOL     OW76573   5.621   0.071   4.627 -0.0214  0.0492  0.0283
55548SOL    HW176574   5.533   0.033   4.619  0.1716 -0.4325  0.1953
55548SOL    HW276575   5.657   0.067   4.538  0.0350 -0.2543  0.0627
55549SOL     OW76576  12.798   0.807   6.578  0.7897 -0.1500  0.1402
55549SOL    HW176577  12.734   0.877   6.592  1.9178  0.8155  0.7067
55549SOL    HW276578  12.814   0.772   6.665  1.6824  0.2387  0.1455
55550SOL     OW76579   2.519   1.575   7.876 -0.2732  0.7938  0.1023
55550SOL    HW176580   2.478   1.658   7.902  0.4675  1.5355 -1.0085
55550SOL    HW276581   2.608   1.599   7.852  0.0617 -0.3964  0.1151
55551SOL     OW76582   8.134   6.223   3.299  0.4232 -0.1994 -0.0460
55551SOL    HW176583   8.185   6.302   3.281 -0.6944  0.4614 -0.4516
55551SOL    HW276584   8.193   6.167   3.350  1.6514  0.3803 -0.7758
55552SOL     OW76585   5.872  11.208   3.095 -0.0184  0.0804  0.2205
55552SOL    HW176586   5.781  11.183   3.111 -0.0299 -0.7034 -0.9824
55552SOL    HW276587   5.918  11.126   3.083  0.6649  0.5162 -0.1734
55553SOL     OW76588   7.920   2.025   3.178 -0.4625 -0.1715 -0.4435
55553SOL    HW176589   7.997   2.082   3.179 -0.1646 -0.5589  0.7218
55553SOL    HW276590   7.891   2.025   3.087  1.1234 -0.2883 -0.9698
55554SOL     OW76591  12.687   5.087   9.388 -0.0655  0.1878 -0.4641
55554SOL    HW176592  12.770   5.111   9.428  0.6085 -0.1997 -1.5804
55554SOL    HW276593  12.653   5.015   9.442 -0.8967  1.8909  1.4306
55555SOL     OW76594   0.559   1.856  11.533 -0.3499 -0.5507 -0.0963
55555SOL    HW176595   0.480   1.817  11.570  0.2274 -0.7986  0.9134
55555SOL    HW276596   0.568   1.939  11.580 -1.3740  0.7176 -1.9733
55556SOL     OW76597  10.017  12.463  10.323 -0.0147  0.0058  0.0550
55556SOL    HW176598  10.011  12.555  10.349 -0.3609  0.1811 -0.6028
55556SOL    HW276599   9.988  12.463  10.231 -0.8494 -0.8865  0.3032
55557SOL     OW76600  12.743   3.125   1.025  0.1094  0.4220 -0.2271
55557SOL    HW176601  12.786   3.078   0.953  0.4899 -0.1973  0.3887
55557SOL    HW276602  12.747   3.064   1.098 -1.4642  0.5227 -0.0329
55558SOL     OW76603  12.544  11.302  11.059 -0.2269 -0.1623  0.1467
55558SOL    HW176604  12.633  11.273  11.078  0.1424  0.4813 -0.5741
55558SOL    HW276605  12.532  11.285  10.966 -0.2623  1.2839 -0.1307
55559SOL     OW76606   5.908   0.398   6.307 -0.5622  0.2031  0.4178
55559SOL    HW176607   5.830   0.397   6.251 -0.4510  2.7991  0.0981
55559SOL    HW276608   5.881   0.351   6.386 -2.3859  0.8092  0.2153
55560SOL     OW76609  10.164   6.661   9.667  0.6645  0.1641  0.3768
55560SOL    HW176610  10.148   6.573   9.632  1.3821 -0.4099  1.4401
55560SOL    HW276611  10.258   6.674   9.659  0.4657  1.1731 -0.5065
55561SOL     OW76612  10.063   0.668   0.726  0.4908 -0.2844 -0.0580
55561SOL    HW176613  10.141   0.707   0.766  0.4708 -0.7304  0.4316
55561SOL    HW276614  10.033   0.604   0.791 -1.5477  1.3873  0.7430
55562SOL     OW76615   1.500   8.856   6.082 -0.2810  0.2992  0.0303
55562SOL    HW176616   1.494   8.894   5.994  2.4779  1.2501  0.1618
55562SOL    HW276617   1.551   8.777   6.070 -0.4952  0.0594  0.6993
55563SOL     OW76618   2.167   5.586   7.183  0.0172 -0.0099 -0.1977
55563SOL    HW176619   2.087   5.558   7.227  0.8142  0.6899  1.8529
55563SOL    HW276620   2.215   5.505   7.166  0.2723 -0.2769  1.5393
55564SOL     OW76621   4.483  10.674   3.149  0.1709  0.0603 -0.1778
55564SOL    HW176622   4.568  10.630   3.143  0.0059 -0.1528 -1.0329
55564SOL    HW276623   4.482  10.711   3.237  0.9168 -0.4129  0.0409
55565SOL     OW76624  12.254   9.784  12.052  0.7949 -0.3507  0.3701
55565SOL    HW176625  12.180   9.817  12.002  0.4835 -0.4453  0.7613
55565SOL    HW276626  12.233   9.805  12.143  0.3775 -2.0062  0.6847
55566SOL     OW76627   2.248  11.840   5.549  0.1296 -0.0024  0.6707
55566SOL    HW176628   2.235  11.763   5.494 -1.7224 -1.5507  3.0588
55566SOL    HW276629   2.335  11.828   5.588  0.1526 -0.5014  0.4690
55567SOL     OW76630   0.073   3.918   4.485 -0.0502 -0.4404  0.1120
55567SOL    HW176631   0.147   3.972   4.512 -1.2098  1.7497 -0.8629
55567SOL    HW276632   0.092   3.895   4.394 -1.1341  1.2802 -0.5934
55568SOL     OW76633  12.432   5.655  12.275 -0.2897 -0.6196  0.0779
55568SOL    HW176634  12.467   5.570  12.246 -2.5231 -0.7744 -2.4660
55568SOL    HW276635  12.476   5.719  12.219 -0.5998 -0.3417  0.1533
55569SOL     OW76636   6.925   7.827   2.646 -0.2291 -0.2774 -0.0234
55569SOL    HW176637   6.879   7.774   2.711 -0.8506  2.6103  2.0536
55569SOL    HW276638   6.986   7.880   2.697 -2.0106  3.4637 -1.4335
55570SOL     OW76639   4.302   9.945   8.832  0.4581  0.4157  0.1810
55570SOL    HW176640   4.368   9.889   8.792  1.0145  2.6576 -2.2655
55570SOL    HW276641   4.225   9.934   8.776  0.2565  1.3206  0.2796
55571SOL     OW76642   0.653   8.001   8.930  0.9430  0.6329 -0.1525
55571SOL    HW176643   0.652   7.938   8.858 -1.4950  1.2917 -0.7897
55571SOL    HW276644   0.666   7.948   9.009  2.5114 -0.2215 -0.9528
55572SOL     OW76645  10.866   8.950   5.349 -0.6299  0.0896 -0.2794
55572SOL    HW176646  10.833   8.861   5.337 -0.4237  0.1729 -1.6214
55572SOL    HW276647  10.835   8.976   5.436 -0.0070 -1.5787  0.4930
55573SOL     OW76648  13.279   5.405  11.578  0.6953 -0.7348  0.2237
55573SOL    HW176649  13.280   5.327  11.633  0.8931 -1.8179 -1.2415
55573SOL    HW276650  13.360   5.400  11.527  0.9360  0.6819  0.4250
55574SOL     OW76651   3.178   7.215   7.203  0.4404 -0.3393  0.4067
55574SOL    HW176652   3.256   7.169   7.235  1.2194  0.8515  0.2798
55574SOL    HW276653   3.212   7.281   7.142 -0.5762  0.6744  0.8883
55575SOL     OW76654  11.146   1.805  13.002 -0.1389 -1.0442 -0.5304
55575SOL    HW176655  11.216   1.856  12.960 -0.2605 -0.4858 -0.0767
55575SOL    HW276656  11.091   1.871  13.043 -1.7637 -1.3502 -2.0719
55576SOL     OW76657   0.446  10.189   8.202  0.5681  0.1402  0.0377
55576SOL    HW176658   0.475  10.101   8.228  0.4096 -0.3506 -1.3445
55576SOL    HW276659   0.411  10.177   8.113  0.7302  1.6402 -0.2525
55577SOL     OW76660   8.542   5.741   1.423  0.3872  0.2771 -0.2481
55577SOL    HW176661   8.468   5.690   1.456  0.7453 -0.2193 -0.2095
55577SOL    HW276662   8.617   5.683   1.432  0.9531  1.1143  0.6041
55578SOL     OW76663   6.505   4.547   4.245  0.5676 -0.4282 -0.8225
55578SOL    HW176664   6.577   4.560   4.183  0.6122 -2.7105 -1.3477
55578SOL    HW276665   6.548   4.534   4.330  0.5073  2.6821 -0.2097
55579SOL     OW76666   1.674   1.522   1.671  0.3150 -0.6914  0.1019
55579SOL    HW176667   1.619   1.558   1.741  0.0254  0.5518 -0.7356
55579SOL    HW276668   1.755   1.572   1.676 -0.1362  0.2375 -1.1519
55580SOL     OW76669   6.746  10.486   3.921 -0.5991 -0.2060 -0.1493
55580SOL    HW176670   6.822  10.539   3.947  0.9786 -1.1778 -2.4108
55580SOL    HW276671   6.781  10.398   3.909 -2.0047 -0.6111 -1.5707
55581SOL     OW76672   4.954   8.240   4.010 -0.1793 -0.8052  0.0836
55581SOL    HW176673   4.869   8.219   3.972 -0.5276 -0.6797  0.7811
55581SOL    HW276674   5.014   8.239   3.935 -0.7289 -1.2211 -0.3659
55582SOL     OW76675   3.516  10.292   5.456  0.3538  0.0618  0.0461
55582SOL    HW176676   3.549  10.208   5.427  0.2538  0.3313 -0.8775
55582SOL    HW276677   3.421  10.283   5.455  0.3524 -0.1679  1.0486
55583SOL     OW76678  12.048   0.198   6.222  0.5182 -0.3644 -0.0736
55583SOL    HW176679  11.969   0.208   6.169  0.7796 -0.2358 -0.4428
55583SOL    HW276680  12.026   0.238   6.306 -0.2120 -1.4017  0.2428
55584SOL     OW76681   6.249   9.893   9.293  0.1741 -0.0005  0.4236
55584SOL    HW176682   6.203   9.814   9.322  0.6622 -0.3769  0.1992
55584SOL    HW276683   6.323   9.859   9.243 -0.5399  0.6249 -1.1034
55585SOL     OW76684   8.552   8.747  11.170  0.5089 -0.1963 -0.3360
55585SOL    HW176685   8.563   8.728  11.263  0.5905  0.0835 -0.2855
55585SOL    HW276686   8.641   8.756  11.136  0.4873 -0.7076 -0.5301
55586SOL     OW76687   4.908   1.904   4.793 -0.2279 -0.5961  0.7497
55586SOL    HW176688   4.835   1.847   4.772 -0.6085 -0.0596  0.5897
55586SOL    HW276689   4.900   1.921   4.887  0.1334 -1.1460  0.8810
55587SOL     OW76690  10.549   2.256  13.135 -0.0553  0.5305 -0.3677
55587SOL    HW176691  10.630   2.271  13.087  1.0895 -1.3596  0.8122
55587SOL    HW276692  10.480   2.258  13.069  1.2225 -0.0095 -1.7622
55588SOL     OW76693  10.661   0.157  11.759 -0.1143 -0.0341 -0.0333
55588SOL    HW176694  10.717   0.234  11.768  0.8557 -0.8745  1.5096
55588SOL    HW276695  10.722   0.083  11.753 -1.0312 -0.8990  0.9277
55589SOL     OW76696   4.168  10.888  12.136  0.9819 -0.7132  0.5270
55589SOL    HW176697   4.251  10.917  12.098  0.1953 -1.1453 -1.6736
55589SOL    HW276698   4.193  10.822  12.200  2.4203  0.5306  1.3126
55590SOL     OW76699   2.182  13.049  10.139  0.2507  0.0445 -0.1163
55590SOL    HW176700   2.185  13.141  10.116 -0.0845  0.2690  0.6861
55590SOL    HW276701   2.273  13.026  10.160  0.6678 -0.3306 -2.1863
55591SOL     OW76702   9.144  12.986  11.701 -0.4557 -0.1156  0.1407
55591SOL    HW176703   9.049  12.984  11.716 -0.3356  0.0156  0.9821
55591SOL    HW276704   9.180  13.021  11.783  0.2893  0.2168 -0.3189
55592SOL     OW76705   4.504   3.262  10.859  0.4518 -0.1767 -0.4973
55592SOL    HW176706   4.588   3.293  10.894  1.1790 -3.0166  0.5449
55592SOL    HW276707   4.528   3.199  10.792 -0.6724 -3.0336  1.6094
55593SOL     OW76708   4.279   0.310   4.234 -0.4745  0.6665 -0.3541
55593SOL    HW176709   4.292   0.231   4.287 -1.8982 -0.2922 -1.3519
55593SOL    HW276710   4.346   0.371   4.265  0.3804 -0.7645  0.7598
55594SOL     OW76711  12.781   0.580  11.007  0.1100  0.3059 -0.3196
55594SOL    HW176712  12.833   0.501  10.991  0.8566  0.4245  1.3510
55594SOL    HW276713  12.779   0.625  10.922  0.5930 -0.9458 -1.0309
55595SOL     OW76714   0.809   6.617   9.847 -0.0624 -0.6577  0.5252
55595SOL    HW176715   0.717   6.641   9.858 -0.7407 -2.8381  0.1211
55595SOL    HW276716   0.832   6.572   9.928  0.7721  0.1725  0.7635
55596SOL     OW76717   8.570  12.724  10.718  0.0491 -1.0832 -0.5048
55596SOL    HW176718   8.537  12.691  10.801 -0.1631 -1.6111 -0.7942
55596SOL    HW276719   8.493  12.757  10.672  0.1759 -0.7212 -0.4649
55597SOL     OW76720   2.581   5.897   7.398  0.0422  0.3809 -0.1950
55597SOL    HW176721   2.549   5.860   7.315  0.1632  1.1624 -0.5976
55597SOL    HW276722   2.676   5.891   7.391  0.0388 -1.2986  0.7072
55598SOL     OW76723   2.237  10.139   5.361  0.5842 -0.4853 -0.2120
55598SOL    HW176724   2.258  10.049   5.336  0.8447 -0.3102 -0.6314
55598SOL    HW276725   2.205  10.132   5.451 -0.3697 -1.1280 -0.5900
55599SOL     OW76726  12.341   4.684   0.528  0.0597  0.2611 -0.2078
55599SOL    HW176727  12.296   4.623   0.586  0.0708 -1.2171 -1.6923
55599SOL    HW276728  12.301   4.670   0.442  0.4188  1.9937 -0.6967
55600SOL     OW76729   6.219   6.811   3.631 -0.1252  0.0754 -1.1207
55600SOL    HW176730   6.170   6.755   3.571 -0.3629  0.6320 -1.4519
55600SOL    HW276731   6.307   6.814   3.595 -0.0036 -0.4094 -0.8762
55601SOL     OW76732   1.141   1.335   6.605  0.1960  0.2962  0.6796
55601SOL    HW176733   1.231   1.323   6.634  0.6761  1.4873 -0.2270
55601SOL    HW276734   1.144   1.413   6.550 -1.2475 -0.0865  0.0139
55602SOL     OW76735   5.141   0.117   2.424 -0.0340  0.3097  1.2383
55602SOL    HW176736   5.051   0.093   2.445  0.1170 -0.2858  1.2259
55602SOL    HW276737   5.169   0.171   2.497 -0.0996 -0.2680  1.6958
55603SOL     OW76738   2.305   0.823  11.337  0.5223 -0.0825  0.5206
55603SOL    HW176739   2.284   0.739  11.377  1.3139  0.4777  2.2094
55603SOL    HW276740   2.231   0.841  11.278 -0.6440 -1.0260  1.6435
55604SOL     OW76741   4.297   2.979   9.723 -0.1948  0.2012 -0.3534
55604SOL    HW176742   4.256   2.895   9.701  1.1958 -1.0954  1.7135
55604SOL    HW276743   4.323   3.016   9.638 -0.5506 -1.5934 -1.2886
55605SOL     OW76744   5.830   5.636  12.846 -0.2045  0.1328 -0.1224
55605SOL    HW176745   5.846   5.646  12.940  0.6969 -1.7870 -0.0328
55605SOL    HW276746   5.758   5.573  12.840  0.9307 -1.1349 -0.7219
55606SOL     OW76747   4.860   2.552   6.020  0.2616  0.0397 -0.4304
55606SOL    HW176748   4.919   2.559   5.944  0.4935  0.7073 -0.1910
55606SOL    HW276749   4.889   2.621   6.079 -0.6959  0.3044 -0.2576
55607SOL     OW76750   5.388   8.704   3.837  0.2607 -0.2347  0.7541
55607SOL    HW176751   5.417   8.707   3.746 -2.0411 -0.5384 -0.0567
55607SOL    HW276752   5.338   8.785   3.849 -1.4733 -1.2939  0.9729
55608SOL     OW76753   3.962   6.299   7.229  0.1840 -0.5585 -0.0872
55608SOL    HW176754   3.917   6.318   7.311 -1.3587 -1.5684 -0.6525
55608SOL    HW276755   3.897   6.319   7.161  0.8689 -1.2753 -0.9784
55609SOL     OW76756   9.615   4.525   4.108 -0.6942  0.2024 -0.5700
55609SOL    HW176757   9.608   4.573   4.191 -1.8438 -0.2501 -0.3760
55609SOL    HW276758   9.668   4.448   4.128 -0.5077  0.3767 -0.3936
55610SOL     OW76759   7.398  12.028   8.944 -0.0126 -0.7221  0.5060
55610SOL    HW176760   7.303  12.028   8.934  0.1291 -0.0586 -1.1682
55610SOL    HW276761   7.412  12.048   9.037 -1.5130  1.1486  0.4014
55611SOL     OW76762   3.910   9.093  10.988 -0.2519 -0.3674 -0.0104
55611SOL    HW176763   3.906   9.183  11.022  1.2694 -0.4991  0.5810
55611SOL    HW276764   3.988   9.056  11.027 -0.3274 -1.6534 -1.0153
55612SOL     OW76765   9.421   0.455   2.945  0.0497 -0.0032 -0.5311
55612SOL    HW176766   9.432   0.361   2.962  2.6257  0.0668 -1.4308
55612SOL    HW276767   9.472   0.498   3.014 -1.5230  0.8116  0.1831
55613SOL     OW76768   0.967   9.727   5.275 -0.0884  0.8864 -0.2026
55613SOL    HW176769   0.886   9.746   5.228  0.6665  1.3802 -1.3448
55613SOL    HW276770   1.005   9.813   5.293 -0.1995  0.6889  1.0456
55614SOL     OW76771   0.350   2.745   1.739  0.4519  0.8022  0.0839
55614SOL    HW176772   0.340   2.654   1.712 -0.4415  1.0035 -0.3024
55614SOL    HW276773   0.444   2.763   1.731  0.5593  0.0799 -0.3500
55615SOL     OW76774   0.731  10.922   1.601  0.0414  0.4446 -0.1216
55615SOL    HW176775   0.653  10.967   1.632 -0.9478 -0.7532 -0.7605
55615SOL    HW276776   0.743  10.849   1.662 -0.1534 -0.1558 -0.7767
55616SOL     OW76777  11.868  10.194   6.106  0.5357 -0.3296 -0.7043
55616SOL    HW176778  11.841  10.112   6.065 -1.4673 -0.6164  1.0264
55616SOL    HW276779  11.787  10.244   6.115  1.0944  0.3042  1.5337
55617SOL     OW76780   7.093   9.479   5.515 -0.3385 -0.5565 -0.6130
55617SOL    HW176781   7.172   9.426   5.514 -1.0976 -1.7200 -0.2349
55617SOL    HW276782   7.083   9.509   5.424  0.2416 -0.8208 -0.7683
55618SOL     OW76783  13.138   1.454   9.460  0.2587  0.2747 -0.3717
55618SOL    HW176784  13.182   1.400   9.395  2.9170  0.7368  0.9001
55618SOL    HW276785  13.150   1.406   9.542 -2.4643  0.0160 -0.0231
55619SOL     OW76786   3.480   5.413   3.991  0.2797  0.1425 -0.1378
55619SOL    HW176787   3.390   5.414   3.960  0.3674  0.4743 -0.3819
55619SOL    HW276788   3.498   5.503   4.017  0.7911  0.2454 -0.8233
55620SOL     OW76789   5.182   5.635   9.358  0.1205 -0.0955 -0.4626
55620SOL    HW176790   5.192   5.726   9.328 -1.4224 -0.3279 -1.8591
55620SOL    HW276791   5.224   5.633   9.444  0.0121  1.9925 -0.3094
55621SOL     OW76792  10.158   6.493   9.936  0.0998 -0.3077 -0.1215
55621SOL    HW176793  10.123   6.535  10.015 -0.6710  0.1633 -0.6970
55621SOL    HW276794  10.113   6.537   9.864  0.3230 -1.1749 -0.7992
55622SOL     OW76795   6.778  13.267   3.824 -0.1440 -0.6328  0.3385
55622SOL    HW176796   6.834  13.231   3.756 -0.3378  0.2431 -0.3047
55622SOL    HW276797   6.691  13.272   3.784 -0.4468 -0.9251  0.9457
55623SOL     OW76798  12.677   7.778  10.223  0.0207 -0.1051  0.3035
55623SOL    HW176799  12.766   7.793  10.255  0.3403  1.3171 -1.1035
55623SOL    HW276800  12.687   7.711  10.155  0.0545  0.1743  0.0304
55624SOL     OW76801   9.758   3.002  13.077 -0.1195  0.2253  0.4972
55624SOL    HW176802   9.809   2.959  13.146  1.1869  0.8638 -0.0433
55624SOL    HW276803   9.706   2.932  13.038  1.6095 -0.8024 -0.0544
55625SOL     OW76804   2.476  12.028   8.942  0.1183  0.0321 -0.1454
55625SOL    HW176805   2.512  12.083   9.012  1.3406 -1.7339  0.6721
55625SOL    HW276806   2.400  11.985   8.982  1.9238 -2.4680  0.8521
55626SOL     OW76807   8.907   8.418   3.826  0.4333 -0.1867  0.6888
55626SOL    HW176808   8.942   8.342   3.872  1.1923  0.6408  1.5177
55626SOL    HW276809   8.813   8.414   3.843  0.4815 -0.8491  0.8450
55627SOL     OW76810  10.975   3.076  10.554  0.1072 -0.0535  0.1334
55627SOL    HW176811  11.012   2.990  10.535 -0.2216 -0.1596 -0.0290
55627SOL    HW276812  11.035   3.114  10.619 -1.0567 -1.3741  2.0834
55628SOL     OW76813   5.631   4.267   2.283 -0.2302  0.7549  0.3169
55628SOL    HW176814   5.656   4.324   2.355  1.8633  1.5352 -0.9298
55628SOL    HW276815   5.698   4.198   2.283 -0.7400  0.2525 -0.2961
55629SOL     OW76816  10.736   8.076  11.347  0.0060 -0.5395  0.2338
55629SOL    HW176817  10.706   8.062  11.438  0.3719 -2.1126  0.1399
55629SOL    HW276818  10.775   8.163  11.348 -1.3049  0.0870  1.2301
55630SOL     OW76819   3.493   9.318   4.966  0.0160  0.1234 -0.1894
55630SOL    HW176820   3.400   9.312   4.943 -0.0232 -0.1879  0.0512
55630SOL    HW276821   3.523   9.227   4.969 -0.4082 -0.0300  2.7627
55631SOL     OW76822   4.147   1.844  11.758  0.2846 -0.2906 -0.0604
55631SOL    HW176823   4.180   1.759  11.785  0.9871 -0.3068 -0.9599
55631SOL    HW276824   4.186   1.861  11.673 -0.9813  0.2922 -0.5646
55632SOL     OW76825  12.025   4.141   5.715  0.7643 -0.1064 -0.0231
55632SOL    HW176826  12.095   4.188   5.670  0.3988  0.0236 -0.4640
55632SOL    HW276827  11.950   4.147   5.656 -0.2489  1.5564  1.3567
55633SOL     OW76828  12.776   3.899   9.747 -0.2305  0.3050  0.4572
55633SOL    HW176829  12.681   3.914   9.745 -0.3740 -0.6454 -0.9004
55633SOL    HW276830  12.785   3.804   9.734  0.9241  0.4336  0.2934
55634SOL     OW76831   9.039  11.471   8.311  0.1290 -0.5636  0.2935
55634SOL    HW176832   9.122  11.491   8.268  0.7380 -0.6806  1.3834
55634SOL    HW276833   8.982  11.441   8.240  0.2468  1.7104 -0.8703
55635SOL     OW76834  11.306  12.999   8.975  0.2164  0.2955  0.0075
55635SOL    HW176835  11.263  13.022   9.058 -0.9576  0.2456 -0.5632
55635SOL    HW276836  11.394  13.034   8.983  0.4300 -0.4843  1.6472
55636SOL     OW76837   3.418   1.066  11.943 -0.2082 -0.3844  0.3932
55636SOL    HW176838   3.402   1.150  11.986  0.0093  0.2202 -0.6662
55636SOL    HW276839   3.470   1.016  12.006  0.0570  0.4520  0.8543
55637SOL     OW76840   7.600  11.189  11.109  0.3056  0.2177  0.3384
55637SOL    HW176841   7.613  11.116  11.170  1.3475 -0.4505 -0.6579
55637SOL    HW276842   7.659  11.257  11.141 -1.0645  0.8812  1.5937
55638SOL     OW76843   9.216   4.981  11.316 -0.3222  0.6678  0.1159
55638SOL    HW176844   9.189   4.914  11.378 -3.8878  1.9189  0.1844
55638SOL    HW276845   9.215   4.937  11.231  1.1419 -0.2115  0.5234
55639SOL     OW76846   6.788   4.251   4.312 -0.5350 -0.0797 -0.6460
55639SOL    HW176847   6.764   4.252   4.404  1.0844 -1.9150 -0.1400
55639SOL    HW276848   6.803   4.342   4.289 -0.7629  0.3791  0.9521
55640SOL     OW76849   7.386   0.066   6.411 -0.1296 -0.1170 -0.4091
55640SOL    HW176850   7.298   0.046   6.443 -0.9644  2.0096 -1.1757
55640SOL    HW276851   7.406  -0.004   6.349 -1.2496 -0.6720 -0.1607
55641SOL     OW76852   5.650   9.329   8.445  0.5934 -0.2311  0.2186
55641SOL    HW176853   5.738   9.339   8.481  0.3820 -0.5050  0.8231
55641SOL    HW276854   5.648   9.388   8.370  0.8517  0.7942  0.9936
55642SOL     OW76855  11.445   5.680  10.349 -0.0762 -0.0695 -0.0184
55642SOL    HW176856  11.411   5.696  10.437  0.2925 -1.5698  0.4255
55642SOL    HW276857  11.382   5.724  10.291  1.0457  3.1414  1.0258
55643SOL     OW76858   6.159   0.114  10.338 -0.0402  0.1611 -0.3593
55643SOL    HW176859   6.235   0.114  10.396  0.0310  1.3089 -0.4276
55643SOL    HW276860   6.194   0.088  10.253  0.1942  0.2528 -0.2924
55644SOL     OW76861   9.473   9.637   9.071  0.7728  0.4477 -0.0497
55644SOL    HW176862   9.408   9.702   9.043  1.0318  0.0983 -1.5471
55644SOL    HW276863   9.426   9.582   9.134  0.0705  1.0838  0.0002
55645SOL     OW76864   0.384  12.660  11.193 -0.3087 -0.4354  0.1966
55645SOL    HW176865   0.399  12.690  11.283  0.7929 -0.4906  0.0471
55645SOL    HW276866   0.315  12.717  11.160  0.0284  0.3103  0.7344
55646SOL     OW76867   5.912   8.621   4.226 -0.4879  0.3252 -0.1460
55646SOL    HW176868   5.961   8.556   4.276 -0.4592 -0.0384 -0.6458
55646SOL    HW276869   5.848   8.656   4.288 -1.5181 -1.2534 -0.2858
55647SOL     OW76870  12.781   2.091  10.274  0.0766 -0.5996  0.1829
55647SOL    HW176871  12.728   2.142  10.212  0.5162 -2.0467 -1.4905
55647SOL    HW276872  12.872   2.112  10.250  0.3185 -3.0263 -1.4831
55648SOL     OW76873   5.117   4.185  11.827 -0.3180 -0.2194  0.0479
55648SOL    HW176874   5.043   4.124  11.821 -0.6009  0.1771 -0.5521
55648SOL    HW276875   5.090   4.250  11.891  0.3281 -1.1712  1.3544
55649SOL     OW76876  12.691   7.442   9.703 -0.1276 -0.1898 -0.1623
55649SOL    HW176877  12.785   7.431   9.686  0.7719 -0.1087  3.9360
55649SOL    HW276878  12.674   7.534   9.680  1.4622  0.5639  1.4304
55650SOL     OW76879   1.315   9.461   5.956  0.1919 -0.1275  0.6796
55650SOL    HW176880   1.326   9.544   5.910  0.0698 -0.7761 -0.5835
55650SOL    HW276881   1.350   9.476   6.043  4.4339  0.0011 -0.8149
55651SOL     OW76882  11.581   4.853   7.097 -0.2250 -0.1914 -0.0330
55651SOL    HW176883  11.497   4.896   7.086  0.6630  1.8049  0.4592
55651SOL    HW276884  11.581   4.822   7.188 -0.1670  0.4528  0.1927
55652SOL     OW76885   1.793  12.313   6.263 -0.4998 -0.2724 -0.4240
55652SOL    HW176886   1.844  12.297   6.342 -0.5221 -1.5940 -0.6511
55652SOL    HW276887   1.807  12.234   6.210  0.0668  0.8806 -2.0401
55653SOL     OW76888   8.653   4.170   3.710 -0.5766  0.2801  0.4972
55653SOL    HW176889   8.624   4.080   3.722  0.4716 -0.1979 -0.4096
55653SOL    HW276890   8.645   4.186   3.616  0.9610  0.5118  0.3797
55654SOL     OW76891   3.608   8.815   3.670  0.1478  0.3920 -0.3141
55654SOL    HW176892   3.520   8.778   3.662  0.1414  0.3916 -0.2506
55654SOL    HW276893   3.658   8.748   3.717 -0.1220  0.8656  0.6747
55655SOL     OW76894   2.404  11.124   0.916  0.2526  0.4502 -0.2049
55655SOL    HW176895   2.359  11.062   0.859  2.0862 -1.3480  0.1854
55655SOL    HW276896   2.338  11.191   0.935 -1.6280 -1.0173 -1.1799
55656SOL     OW76897   4.419   9.270   3.318  0.1246 -0.1036 -0.2530
55656SOL    HW176898   4.500   9.233   3.283 -0.1486 -2.8194  1.6427
55656SOL    HW276899   4.447   9.338   3.378  0.9082  0.1163 -0.8561
55657SOL     OW76900   4.089   3.736  12.459 -0.0880 -0.3070  0.1806
55657SOL    HW176901   4.140   3.771  12.386 -0.8482  0.5234  0.0362
55657SOL    HW276902   3.999   3.735  12.427 -0.1125 -2.3960  0.1803
55658SOL     OW76903   5.499   9.305   8.859 -0.3629 -0.1643 -0.3072
55658SOL    HW176904   5.478   9.296   8.766 -0.0744 -1.5239 -0.2543
55658SOL    HW276905   5.459   9.228   8.900 -1.6434  1.0873  0.9238
55659SOL     OW76906   0.449   1.051   0.252  0.2119  0.1621 -0.0831
55659SOL    HW176907   0.385   0.982   0.236  0.0941 -0.2316  1.7964
55659SOL    HW276908   0.423   1.088   0.337  0.2543  2.5586 -1.0529
55660SOL     OW76909  12.863  10.389  13.171  0.5002 -0.2598  0.1710
55660SOL    HW176910  12.818  10.334  13.235 -0.9176 -1.3433 -1.6609
55660SOL    HW276911  12.861  10.338  13.090  1.0757  1.5883 -1.0631
55661SOL     OW76912  10.029   4.248   5.992 -0.5872  0.7165 -0.1994
55661SOL    HW176913  10.085   4.257   6.069 -1.9242 -2.5636  1.3553
55661SOL    HW276914   9.944   4.282   6.020 -0.8837  0.2116 -0.4769
55662SOL     OW76915   7.283   8.185  12.285 -0.0159  0.0284  0.2383
55662SOL    HW176916   7.274   8.090  12.282 -0.3541  0.0826 -2.1890
55662SOL    HW276917   7.337   8.207  12.210  1.2199  1.6941  1.5214
55663SOL     OW76918  10.020  12.417   2.511 -0.2130  0.0817 -0.1033
55663SOL    HW176919  10.052  12.337   2.552  4.2303  2.9580  2.8250
55663SOL    HW276920   9.979  12.467   2.582 -2.3490  0.8439 -1.7231
55664SOL     OW76921   5.026   3.758   8.539  0.2883  0.6294 -0.2706
55664SOL    HW176922   5.014   3.748   8.633  0.5859  0.0855 -0.2893
55664SOL    HW276923   4.939   3.745   8.501  0.0622  1.3982 -0.0296
55665SOL     OW76924   5.902   1.818  11.974  0.7787 -0.1404  0.4003
55665SOL    HW176925   5.945   1.833  12.058 -1.2349  0.1053  1.4468
55665SOL    HW276926   5.833   1.755  11.993  0.9275 -0.8740 -1.3045
55666SOL     OW76927   0.480   6.211  11.371  0.4031  0.2485  0.2385
55666SOL    HW176928   0.524   6.246  11.294  3.0615  0.8474  1.8945
55666SOL    HW276929   0.414   6.277  11.393  1.0033  1.0700 -0.3582
55667SOL     OW76930  13.282   3.773   0.383  0.0473 -0.1376  0.0341
55667SOL    HW176931  13.349   3.833   0.350  1.9755 -0.2588  3.3100
55667SOL    HW276932  13.295   3.693   0.332  1.5831  0.2539 -0.2396
55668SOL     OW76933   3.951  11.154   2.741  0.1402 -0.8325  0.2654
55668SOL    HW176934   4.023  11.155   2.677 -0.8168  2.8387 -1.0199
55668SOL    HW276935   3.992  11.185   2.822  0.3321 -0.1132 -0.0909
55669SOL     OW76936   1.040  11.982   9.032  0.0579  0.1059  0.2821
55669SOL    HW176937   0.996  12.054   8.987 -1.1893  0.0649  1.3596
55669SOL    HW276938   1.037  11.909   8.970 -2.6269 -0.2777  0.7445
55670SOL     OW76939  11.785   2.710   9.285  0.0614  0.4208 -0.3823
55670SOL    HW176940  11.851   2.693   9.353  0.0267  2.6513  0.2830
55670SOL    HW276941  11.818   2.663   9.208  0.8253 -1.0054  0.7573
55671SOL     OW76942  13.309  12.308   9.083 -0.1276 -0.0872 -0.0156
55671SOL    HW176943  13.397  12.272   9.079 -0.1940 -0.2001 -0.4995
55671SOL    HW276944  13.271  12.267   9.161  0.7238  1.0890  1.0524
55672SOL     OW76945   5.049   0.809   8.002  0.0640 -0.6991 -0.3536
55672SOL    HW176946   4.969   0.859   8.019 -0.6691 -1.5470 -1.2246
55672SOL    HW276947   5.104   0.869   7.950 -0.9369 -0.8593 -1.6580
55673SOL     OW76948  10.098   6.004   6.494 -0.3791  0.1475 -0.6897
55673SOL    HW176949  10.114   5.931   6.434 -1.6718 -1.3042  0.6710
55673SOL    HW276950  10.186   6.037   6.514  0.3928 -2.1061 -0.0580
55674SOL     OW76951   5.905   4.960  10.077 -0.3079 -0.2390  0.9281
55674SOL    HW176952   5.985   4.972  10.026 -0.3382 -1.7826  0.4578
55674SOL    HW276953   5.934   4.919  10.158 -0.6372 -1.1476  0.6016
55675SOL     OW76954   5.470   3.100   0.128 -0.5237 -0.5793  0.2981
55675SOL    HW176955   5.408   3.099   0.056 -0.1121 -0.7303 -0.0534
55675SOL    HW276956   5.460   3.187   0.167 -0.1141 -0.1756 -0.4873
55676SOL     OW76957   2.756   4.433  10.464  0.0678  0.4137 -0.2548
55676SOL    HW176958   2.802   4.400  10.542 -0.1253 -0.3279 -0.4461
55676SOL    HW276959   2.664   4.434  10.489  0.1352  1.5411 -0.0012
55677SOL     OW76960  12.113  10.031   1.525  0.0544 -0.5668  0.7763
55677SOL    HW176961  12.076   9.970   1.460  0.6704  0.6480 -0.7975
55677SOL    HW276962  12.206  10.011   1.526  0.3013  0.4768  0.0615
55678SOL     OW76963   1.422   7.895   3.561  0.7026  0.2562 -0.2883
55678SOL    HW176964   1.436   7.985   3.533 -0.3960  1.4967  2.7313
55678SOL    HW276965   1.459   7.891   3.649 -1.0597 -1.6325  0.4569
55679SOL     OW76966   0.102   4.574   1.679  0.2954 -0.2047  0.7778
55679SOL    HW176967   0.053   4.516   1.621 -0.1514 -0.0275  0.9650
55679SOL    HW276968   0.194   4.551   1.666  0.5544  2.0882 -2.5185
55680SOL     OW76969  10.286  12.003   7.985 -0.4869  0.0721  0.1918
55680SOL    HW176970  10.343  12.080   7.994  0.5914 -0.6942  0.1238
55680SOL    HW276971  10.255  12.007   7.894 -0.3543  0.3772  0.1584
55681SOL     OW76972   7.963   2.874   7.722 -0.0942  0.2027 -0.0551
55681SOL    HW176973   7.891   2.816   7.747  0.2058 -0.7866 -1.4109
55681SOL    HW276974   8.030   2.860   7.790 -0.7309  0.3089  0.6052
55682SOL     OW76975  12.957   4.452  11.035 -0.1653  0.0136  0.2541
55682SOL    HW176976  12.869   4.414  11.040 -0.1236  0.0340  4.6204
55682SOL    HW276977  12.943   4.545  11.049  0.5312  0.0384  0.8185
55683SOL     OW76978   4.117   9.551   8.998 -0.2609 -0.0056 -0.3965
55683SOL    HW176979   4.161   9.534   9.081  3.3128 -0.7819 -2.2495
55683SOL    HW276980   4.149   9.482   8.939 -1.1931  1.5524 -2.8995
55684SOL     OW76981  11.566   9.967  12.381  0.0296 -0.6924  0.0516
55684SOL    HW176982  11.568  10.062  12.379 -0.1610 -0.6964 -0.3268
55684SOL    HW276983  11.473   9.944  12.389 -0.1080 -0.8714 -1.6647
55685SOL     OW76984   7.526  10.798   9.023 -0.2956 -0.1157  0.8156
55685SOL    HW176985   7.480  10.820   9.104  0.3442  1.8830  0.6943
55685SOL    HW276986   7.619  10.807   9.046 -0.0871 -0.1604  0.0062
55686SOL     OW76987   6.632  10.629   2.336  0.2261  0.2604 -0.0417
55686SOL    HW176988   6.693  10.702   2.327  0.2978  0.0442 -1.7251
55686SOL    HW276989   6.546  10.669   2.339  0.3120  0.4517 -0.1360
55687SOL     OW76990   4.568   6.977   4.303 -0.0532  0.5767 -0.0692
55687SOL    HW176991   4.483   6.970   4.348 -0.5000  0.1192 -0.9609
55687SOL    HW276992   4.595   6.886   4.291 -0.0974  0.6866 -1.0148
55688SOL     OW76993   0.162   8.080   0.567 -0.0066 -0.1856 -0.7291
55688SOL    HW176994   0.112   8.008   0.528  0.2366 -0.0272 -1.3291
55688SOL    HW276995   0.201   8.126   0.493  1.3426 -0.5214 -0.2533
55689SOL     OW76996   1.308  13.224  10.036  0.8142 -0.2671  0.7710
55689SOL    HW176997   1.244  13.214  10.106 -0.2446  0.0138 -0.1412
55689SOL    HW276998   1.355  13.305  10.058  1.0829 -0.6303  1.5935
55690SOL     OW76999  11.867   0.450   6.442 -0.5116 -0.1782 -0.1612
55690SOL    HW177000  11.795   0.427   6.383 -1.7489 -0.8438  1.5264
55690SOL    HW277001  11.847   0.402   6.523  1.4216  0.2607  0.6143
55691SOL     OW77002   8.959   9.131   6.963 -0.3745 -0.1875 -0.3912
55691SOL    HW177003   9.031   9.096   7.017  0.3791 -0.8306 -1.7656
55691SOL    HW277004   8.943   9.219   6.999  0.2353 -0.5162  0.7392
55692SOL     OW77005   8.437   3.283   1.141  0.0932  0.1243 -0.3341
55692SOL    HW177006   8.532   3.274   1.139  0.2421  1.5482 -1.3864
55692SOL    HW277007   8.419   3.331   1.222  0.0279 -2.0036  0.9876
55693SOL     OW77008   1.080   3.329   6.650 -0.3816  0.6601  0.0944
55693SOL    HW177009   1.122   3.399   6.600 -0.5023 -0.5551 -1.7803
55693SOL    HW277010   0.991   3.324   6.615  0.0636 -1.3879 -0.8892
55694SOL     OW77011  10.002   7.783   0.293 -0.0913 -0.0548 -0.9863
55694SOL    HW177012  10.072   7.776   0.228  1.9399  0.1930  1.0308
55694SOL    HW277013  10.027   7.857   0.347 -1.5985 -0.3527  0.1997
55695SOL     OW77014   1.372   2.675  12.030 -0.0115  0.1768  0.1889
55695SOL    HW177015   1.339   2.692  12.118 -0.4695  0.8986 -0.1081
55695SOL    HW277016   1.337   2.747  11.977  0.9591  0.2267 -0.4116
55696SOL     OW77017   4.401   2.043   0.996  0.7446 -0.0528  0.3366
55696SOL    HW177018   4.330   1.980   1.002  2.2556 -2.0240 -0.9661
55696SOL    HW277019   4.397   2.093   1.078 -1.2542 -1.0084  0.8784
55697SOL     OW77020   3.286   6.482  11.834  0.6753  0.3053 -0.2079
55697SOL    HW177021   3.237   6.565  11.835  0.3053  0.1123  1.7151
55697SOL    HW277022   3.231   6.421  11.882  2.0488 -0.3707  0.5864
55698SOL     OW77023   6.203   5.006   1.689  0.2808 -0.2913 -0.0695
55698SOL    HW177024   6.147   4.982   1.615  0.4765 -0.8825 -0.0296
55698SOL    HW277025   6.248   4.925   1.713 -1.9273 -0.9159  2.5662
55699SOL     OW77026   0.564   9.771   2.780 -0.3080  0.1456  0.1114
55699SOL    HW177027   0.599   9.857   2.760 -0.3775 -0.1149 -1.1996
55699SOL    HW277028   0.530   9.779   2.870  0.4845  1.2089  0.3300
55700SOL     OW77029   6.450   2.176   8.421 -0.5501 -0.6140 -0.2399
55700SOL    HW177030   6.541   2.186   8.451  0.3915 -1.6865 -2.5279
55700SOL    HW277031   6.436   2.250   8.362 -1.4709 -0.0165  0.6905
55701SOL     OW77032   4.502   0.714   8.742  0.3777  0.0897 -0.1403
55701SOL    HW177033   4.510   0.798   8.788  0.8253 -0.2010  0.3198
55701SOL    HW277034   4.590   0.696   8.710  0.1836  0.0175 -0.6444
55702SOL     OW77035   6.940  12.169  11.566 -0.0910  0.0184  0.0561
55702SOL    HW177036   7.005  12.194  11.631  1.2592 -0.4615 -1.0697
55702SOL    HW277037   6.942  12.241  11.502 -0.3352 -0.2330 -0.2366
55703SOL     OW77038   3.922   8.169   4.146  0.2725 -0.0987 -0.8354
55703SOL    HW177039   3.892   8.243   4.095  1.2940  1.3858  0.5951
55703SOL    HW277040   4.005   8.144   4.106  0.3794  0.1448 -0.7682
55704SOL     OW77041   0.660   3.931   0.633 -0.5312 -0.3349  0.1077
55704SOL    HW177042   0.662   3.944   0.728 -1.1218 -1.6183  0.3188
55704SOL    HW277043   0.746   3.963   0.603 -0.1534 -0.3468  1.1300
55705SOL     OW77044   3.378   3.165   9.826 -0.1703 -0.8391 -0.5461
55705SOL    HW177045   3.294   3.200   9.854 -0.4755 -1.2084 -0.9769
55705SOL    HW277046   3.389   3.085   9.878  0.2379 -0.4356 -0.0013
55706SOL     OW77047  10.622   0.382   7.056  0.0300  0.2026  0.0236
55706SOL    HW177048  10.656   0.365   7.144 -0.1960 -0.1294  0.0449
55706SOL    HW277049  10.600   0.296   7.021 -0.5732  0.3975 -0.0822
55707SOL     OW77050   4.796   9.469   0.489  0.2374  0.1456 -0.2040
55707SOL    HW177051   4.843   9.467   0.573 -1.0253  1.3833  0.5766
55707SOL    HW277052   4.809   9.382   0.452  1.4881 -0.1696  0.9037
55708SOL     OW77053   4.816  10.013  13.289  0.6560 -0.2672 -0.1640
55708SOL    HW177054   4.750   9.945  13.302  2.2794 -1.9846 -0.4751
55708SOL    HW277055   4.814  10.031  13.195 -0.4362  0.8776  0.0490
55709SOL     OW77056  12.231   2.472  10.236  0.1775  0.1989 -0.3501
55709SOL    HW177057  12.285   2.518  10.172  0.4826 -0.4599 -0.5753
55709SOL    HW277058  12.290   2.409  10.277 -0.6039 -1.2081 -1.2632
55710SOL     OW77059  12.247  12.885   7.738  0.6019  0.4666  0.1124
55710SOL    HW177060  12.308  12.943   7.784  1.7920 -0.0913 -0.7062
55710SOL    HW277061  12.263  12.902   7.645  0.6929 -0.8580 -0.1442
55711SOL     OW77062   9.102   2.846   3.075 -0.5613  0.1410 -0.4456
55711SOL    HW177063   9.051   2.786   3.129 -2.6970  0.9466 -1.4199
55711SOL    HW277064   9.109   2.926   3.128  0.2925 -0.1780 -0.0584
55712SOL     OW77065   2.278   3.435   1.602 -0.0656 -0.4107 -0.0423
55712SOL    HW177066   2.308   3.521   1.631 -0.4832 -0.3543  0.2429
55712SOL    HW277067   2.340   3.374   1.641 -0.6385 -0.3346  1.0353
55713SOL     OW77068   8.862  10.920   0.691 -0.3488 -0.2440  0.8813
55713SOL    HW177069   8.900  10.833   0.703 -1.2053 -1.1240 -2.0556
55713SOL    HW277070   8.938  10.979   0.685  0.4288 -1.3239 -0.4492
55714SOL     OW77071   0.777   7.086   1.682  0.7897 -0.2356 -0.7579
55714SOL    HW177072   0.854   7.142   1.690  0.4430  0.2028 -0.3948
55714SOL    HW277073   0.707   7.145   1.652 -0.1224  0.0380  1.6481
55715SOL     OW77074  10.660  12.903  13.198 -0.0978  0.0783  0.5875
55715SOL    HW177075  10.702  12.928  13.115 -1.8300  0.0682 -0.3390
55715SOL    HW277076  10.664  12.808  13.199  2.2745  0.1253  1.8375
55716SOL     OW77077   3.678   5.456   0.590  0.2000 -0.1548 -0.2913
55716SOL    HW177078   3.722   5.541   0.597  0.8879 -0.5254 -0.0201
55716SOL    HW277079   3.730   5.408   0.526  0.1385 -0.5665 -0.0318
55717SOL     OW77080   7.532   4.674  12.140  0.1115  0.1314  0.6959
55717SOL    HW177081   7.540   4.643  12.231 -1.0664 -0.2580  0.6915
55717SOL    HW277082   7.622   4.689  12.112  0.4944  0.5027  2.0125
55718SOL     OW77083  10.483  11.603   1.985  0.1302 -0.2519  0.0270
55718SOL    HW177084  10.459  11.681   2.035 -0.3925 -0.1645 -0.3609
55718SOL    HW277085  10.578  11.612   1.971  0.1040  0.2240  0.1365
55719SOL     OW77086   5.453   6.716  11.136 -0.0244  0.6829  0.7705
55719SOL    HW177087   5.525   6.727  11.073  0.6022 -0.5324  1.2315
55719SOL    HW277088   5.486   6.650  11.198 -1.8905 -0.5888  0.4670
55720SOL     OW77089  10.360   2.249   0.163  0.1820  0.0590 -0.4209
55720SOL    HW177090  10.301   2.243   0.088 -3.1691  0.3061  1.9593
55720SOL    HW277091  10.354   2.162   0.204 -1.2931  1.0302  1.6317
55721SOL     OW77092   6.343   2.683   2.174  0.1999  0.4046 -0.4059
55721SOL    HW177093   6.250   2.689   2.150  0.1437  1.0285 -0.0344
55721SOL    HW277094   6.342   2.671   2.269  0.5207  1.1687 -0.3050
55722SOL     OW77095   6.489  11.989   3.852  0.1330  0.0118  0.0022
55722SOL    HW177096   6.491  11.911   3.796 -0.6176  1.6988 -2.5584
55722SOL    HW277097   6.581  12.007   3.873  0.3631 -1.1063 -0.0087
55723SOL     OW77098  10.131   4.072   3.776 -0.1444  0.3712  0.1385
55723SOL    HW177099  10.093   4.057   3.689  0.0692 -0.8090  0.2305
55723SOL    HW277100  10.077   4.019   3.835 -1.0137  2.0644  0.9203
55724SOL     OW77101   9.874   4.751   4.457 -0.0581 -0.2393  0.0019
55724SOL    HW177102   9.903   4.783   4.543 -1.1556 -0.3359  0.4205
55724SOL    HW277103   9.954   4.718   4.416  0.7305  1.0910  0.4126
55725SOL     OW77104   0.663   7.417   0.341 -0.5594 -1.0359  0.5942
55725SOL    HW177105   0.631   7.370   0.418 -2.4422 -3.4077 -1.4681
55725SOL    HW277106   0.689   7.349   0.280 -0.3791  0.6950 -1.3717
55726SOL     OW77107  10.392  10.822  11.479 -0.6690 -0.0724  1.2323
55726SOL    HW177108  10.458  10.766  11.521 -0.7337 -0.2913  1.0467
55726SOL    HW277109  10.384  10.787  11.390 -0.8473  0.1156  1.1737
55727SOL     OW77110   4.644   4.490   9.157 -0.1313  0.3850 -0.1082
55727SOL    HW177111   4.663   4.423   9.091  0.4351 -0.2476  0.6780
55727SOL    HW277112   4.549   4.495   9.159 -0.1956 -0.6572  0.0607
55728SOL     OW77113   2.044   1.640  12.585  0.9059  0.3842 -0.3351
55728SOL    HW177114   2.120   1.635  12.528  0.8417  0.6859 -0.4497
55728SOL    HW277115   2.073   1.692  12.660  0.5310  1.3631 -0.8472
55729SOL     OW77116   2.675   4.128   1.841  0.5780  0.8664 -0.5683
55729SOL    HW177117   2.657   4.049   1.892  0.4564  1.1821 -0.1135
55729SOL    HW277118   2.727   4.098   1.767 -2.5171 -0.2360 -2.4566
55730SOL     OW77119  11.462   3.126   7.453 -0.1913 -0.0587  0.5203
55730SOL    HW177120  11.377   3.126   7.409  0.5436 -0.3424 -0.9685
55730SOL    HW277121  11.447   3.175   7.534 -1.3157  1.5744 -0.6191
55731SOL     OW77122   0.056  12.123  10.035  0.3881  0.3632 -0.8108
55731SOL    HW177123  -0.001  12.193  10.067 -1.9041 -0.8053 -2.0188
55731SOL    HW277124  -0.005  12.060   9.994  2.2292 -2.5873  0.6245
55732SOL     OW77125   1.338  13.113  13.036  0.1808  0.0221  0.2122
55732SOL    HW177126   1.327  13.069  13.120 -1.2865  0.9088  0.5243
55732SOL    HW277127   1.376  13.198  13.058  1.2590 -0.3269 -0.2034
55733SOL     OW77128   9.668   4.005   3.659 -0.1505  0.1588 -0.4137
55733SOL    HW177129   9.590   4.061   3.659  0.8550  1.6231 -1.4500
55733SOL    HW277130   9.663   3.957   3.577 -0.9268 -1.2398  0.4006
55734SOL     OW77131  13.026   4.272   2.024 -0.0690  0.5283 -0.0727
55734SOL    HW177132  13.111   4.309   2.049 -0.7483  3.4975 -1.6708
55734SOL    HW277133  12.969   4.290   2.099  0.0214  1.2727 -0.1728
55735SOL     OW77134   5.862   1.540  12.979  0.7087 -0.4562  0.2857
55735SOL    HW177135   5.795   1.527  12.912  0.9358  1.2296 -0.3142
55735SOL    HW277136   5.812   1.562  13.058  0.4648 -1.9322  0.5748
55736SOL     OW77137   8.028   0.068   6.855 -0.4246 -0.3795 -0.2889
55736SOL    HW177138   7.972   0.146   6.851 -0.0631 -0.0863  0.3090
55736SOL    HW277139   8.074   0.075   6.939 -0.8010 -1.5241  0.0326
55737SOL     OW77140   7.081   8.386  12.692 -0.1771 -0.0223 -0.6309
55737SOL    HW177141   7.064   8.467  12.739 -0.5776  0.1036 -0.9765
55737SOL    HW277142   7.093   8.414  12.601  1.5505 -0.1571 -0.4688
55738SOL     OW77143   6.605  12.788   7.717  0.1565  0.4943 -0.0386
55738SOL    HW177144   6.620  12.859   7.780 -2.1508  0.3887  0.6921
55738SOL    HW277145   6.577  12.832   7.637  1.4148  0.5261 -0.4853
55739SOL     OW77146  10.110   3.048   4.795  0.2673  0.3132 -0.2719
55739SOL    HW177147  10.184   3.093   4.836  0.9251  0.6264 -1.7528
55739SOL    HW277148  10.125   2.955   4.812 -0.6722  0.5245  2.1037
55740SOL     OW77149   5.501   6.396   4.886  0.4623 -0.0859  0.6542
55740SOL    HW177150   5.444   6.329   4.923  0.2070  0.4369  1.2319
55740SOL    HW277151   5.589   6.369   4.912  0.3556 -0.1617  0.9468
55741SOL     OW77152   6.964  12.788  10.280 -0.0213  0.0432  0.4095
55741SOL    HW177153   7.038  12.846  10.299 -0.0812  0.0159  0.7326
55741SOL    HW277154   6.998  12.700  10.297  0.3911 -0.1099 -1.0885
55742SOL     OW77155   6.708   3.363  10.625  0.5580 -0.1878  0.1136
55742SOL    HW177156   6.753   3.368  10.540  1.6103 -1.1361  0.5835
55742SOL    HW277157   6.623   3.324  10.604  0.6974 -0.1575 -0.5469
55743SOL     OW77158  10.652   4.324   4.649  0.0732  0.2407  0.0518
55743SOL    HW177159  10.645   4.388   4.720  1.5084 -0.7801  1.1642
55743SOL    HW277160  10.710   4.256   4.683 -1.1746 -1.5448 -1.1959
55744SOL     OW77161   1.128   4.293   8.010 -0.4715 -0.4461 -0.4186
55744SOL    HW177162   1.180   4.213   8.021 -1.8686 -1.4259 -0.5986
55744SOL    HW277163   1.154   4.350   8.082 -0.4772 -1.6665  0.5738
55745SOL     OW77164  10.348   1.587  11.355  0.1745 -0.2903  0.2894
55745SOL    HW177165  10.379   1.602  11.444 -3.4482 -0.8956  1.7959
55745SOL    HW277166  10.355   1.673  11.312  0.7527  0.3070  1.5354
55746SOL     OW77167   9.162   1.185  10.237 -0.0428  0.0452  0.7302
55746SOL    HW177168   9.102   1.249  10.276 -0.9225 -0.1749 -0.2283
55746SOL    HW277169   9.110   1.105  10.229  1.3471 -1.1645  2.8998
55747SOL     OW77170   9.250   7.389   9.091  0.1975 -0.5976  0.0647
55747SOL    HW177171   9.168   7.339   9.085  0.1632 -0.5516  0.1449
55747SOL    HW277172   9.234   7.469   9.041  0.0064 -0.3381  0.5338
55748SOL     OW77173   2.067  10.411   1.897  0.9311 -0.8526  0.7709
55748SOL    HW177174   2.045  10.499   1.866 -0.8983 -0.7868  2.1363
55748SOL    HW277175   2.056  10.355   1.820 -1.6000 -0.4132  0.7480
55749SOL     OW77176   2.193  10.474   7.368  0.2257 -0.0603 -0.0451
55749SOL    HW177177   2.157  10.397   7.325  0.1909 -0.4205  0.6232
55749SOL    HW277178   2.273  10.493   7.318  0.9902 -1.3703  0.6238
55750SOL     OW77179   4.009  10.618  11.466 -0.6034  0.5312  0.6634
55750SOL    HW177180   3.974  10.533  11.493 -0.5747  0.4689  0.5084
55750SOL    HW277181   3.943  10.652  11.404 -0.4933  0.5077  0.5329
55751SOL     OW77182  11.869   6.089  12.333 -0.5172  0.3767  0.4632
55751SOL    HW177183  11.929   6.146  12.286  0.0755  0.4188  1.2531
55751SOL    HW277184  11.825   6.147  12.396 -0.2133  0.0490  0.9845
55752SOL     OW77185   3.120   6.126   2.938 -0.0889 -0.3990 -0.3493
55752SOL    HW177186   3.172   6.126   3.019  0.7680 -0.4465 -0.8953
55752SOL    HW277187   3.086   6.037   2.932 -0.3023 -0.3488  0.0446
55753SOL     OW77188  12.718   8.711   9.432 -0.7454 -0.4671 -0.0870
55753SOL    HW177189  12.678   8.625   9.442 -2.4855  0.4052  1.0272
55753SOL    HW277190  12.689   8.740   9.345  0.6046 -1.3364 -0.8584
55754SOL     OW77191   1.826   7.785  11.444 -0.2292  0.9012  0.2815
55754SOL    HW177192   1.895   7.768  11.379 -0.0449  1.6959  0.2609
55754SOL    HW277193   1.785   7.700  11.457  0.2003  0.5850 -0.3442
55755SOL     OW77194   1.032   9.891   7.071 -0.4819 -0.4130  0.6589
55755SOL    HW177195   1.060   9.801   7.053 -0.0795 -0.4850  1.6153
55755SOL    HW277196   1.100   9.946   7.032 -1.3907 -0.4645 -1.0972
55756SOL     OW77197   9.034   4.901  12.619  0.1669 -0.0402  0.5651
55756SOL    HW177198   9.052   4.808  12.605  3.1781  0.5796 -0.2168
55756SOL    HW277199   9.013   4.907  12.712  0.1730 -1.4651  0.6797
55757SOL     OW77200   9.685   3.605   9.135  0.0182  0.5516  0.1625
55757SOL    HW177201   9.747   3.669   9.100 -0.0676 -0.2497 -1.6049
55757SOL    HW277202   9.701   3.526   9.083 -1.6519 -0.0341  0.4769
55758SOL     OW77203   9.267   4.499  11.367  0.1663  0.3784  0.1011
55758SOL    HW177204   9.319   4.562  11.417  0.8403  0.6010 -0.8700
55758SOL    HW277205   9.179   4.537  11.366  0.7088  1.6938 -1.0726
55759SOL     OW77206   5.396  11.542   3.105 -0.1827  0.6091  0.0360
55759SOL    HW177207   5.411  11.534   3.199 -1.0204  1.3059  0.2409
55759SOL    HW277208   5.450  11.618   3.079  0.0285  0.4322 -0.0486
55760SOL     OW77209   3.283  13.312   1.648  0.9932 -0.4182  0.0152
55760SOL    HW177210   3.239  13.234   1.681 -0.3794  0.3815  0.1706
55760SOL    HW277211   3.329  13.348   1.725 -1.0856  0.6972  0.8197
55761SOL     OW77212   1.483   4.008   1.227 -0.1365 -0.1353 -0.0841
55761SOL    HW177213   1.389   3.994   1.244 -0.7177  0.0995 -2.6022
55761SOL    HW277214   1.523   3.923   1.243 -0.9020 -0.4244  0.3712
55762SOL     OW77215  12.020   3.449   5.789 -0.1760  0.2490  0.2276
55762SOL    HW177216  11.992   3.536   5.761 -0.3393 -0.1578 -0.9389
55762SOL    HW277217  12.115   3.448   5.774 -0.2885 -0.0262 -0.4937
55763SOL     OW77218  13.241   3.591  11.227  0.1171  0.2513  0.3316
55763SOL    HW177219  13.226   3.639  11.146  0.5369 -0.2245 -0.0408
55763SOL    HW277220  13.226   3.499  11.203  0.3367  0.0986  0.7702
55764SOL     OW77221   7.708   7.459  10.476  0.2688  0.6145 -0.0354
55764SOL    HW177222   7.701   7.474  10.382 -0.9679  0.1252 -0.0381
55764SOL    HW277223   7.778   7.393  10.484 -0.5120 -0.3434 -0.7366
55765SOL     OW77224  10.325   5.762   1.601  0.0284  0.2284  0.0450
55765SOL    HW177225  10.323   5.677   1.646  1.1565  0.8032  1.2447
55765SOL    HW277226  10.233   5.789   1.597 -0.2075 -0.4121  0.9111
55766SOL     OW77227   0.065   9.235   4.465 -0.5063 -0.5305 -0.9391
55766SOL    HW177228  -0.009   9.191   4.422  0.5359 -2.9221 -0.4240
55766SOL    HW277229   0.141   9.213   4.411  0.1214  0.3175 -0.4127
55767SOL     OW77230   4.781   4.828  13.084 -0.5861  0.4166 -0.2142
55767SOL    HW177231   4.864   4.875  13.074 -0.3095 -0.3885 -2.1521
55767SOL    HW277232   4.726   4.887  13.134  0.7123  1.5469 -0.0529
55768SOL     OW77233   7.482   7.023   5.672 -0.1745  0.4641  0.1361
55768SOL    HW177234   7.485   6.945   5.617  0.6581  1.9216 -2.0059
55768SOL    HW277235   7.391   7.052   5.669 -0.4484 -0.2907  0.7969
55769SOL     OW77236   9.460   3.309  12.526  0.6903 -0.0643  0.0858
55769SOL    HW177237   9.540   3.297  12.474  1.1616 -0.3773  0.8654
55769SOL    HW277238   9.489   3.300  12.617 -0.6314 -2.6220  0.3299
55770SOL     OW77239  13.157  10.932   8.753  0.5602 -0.5847  0.5696
55770SOL    HW177240  13.182  10.977   8.672  1.4480  0.5204  1.4166
55770SOL    HW277241  13.167  10.999   8.821  0.3193 -1.6310  1.6668
55771SOL     OW77242   9.101   1.760  12.925  0.4877  0.0466 -0.0706
55771SOL    HW177243   9.007   1.755  12.912  0.6201 -0.7969 -0.7760
55771SOL    HW277244   9.137   1.767  12.836  1.1483 -0.7963  0.1226
55772SOL     OW77245   5.740   8.398   5.440 -0.1104 -0.5091  0.3650
55772SOL    HW177246   5.675   8.333   5.413 -0.5809 -0.2026  0.7405
55772SOL    HW277247   5.824   8.352   5.435 -0.1536 -0.4699 -1.6353
55773SOL     OW77248   2.067  12.469   0.456  0.1378 -0.3423  1.0525
55773SOL    HW177249   1.998  12.407   0.432  0.1569  0.5859 -1.6914
55773SOL    HW277250   2.020  12.544   0.492 -0.4001  0.4070 -1.0707
55774SOL     OW77251   9.081   2.824   2.782 -0.5349 -0.1618  0.1559
55774SOL    HW177252   9.142   2.896   2.768  0.3946 -0.7617  0.9355
55774SOL    HW277253   9.097   2.797   2.873 -1.7366 -0.5492  0.2641
55775SOL     OW77254   3.463   0.650   9.355 -0.3818 -0.0764 -0.5929
55775SOL    HW177255   3.373   0.675   9.333 -0.8869 -1.6929 -0.4769
55775SOL    HW277256   3.453   0.583   9.422  0.9928  1.0817  0.8539
55776SOL     OW77257  11.084  11.677   7.250  0.0241 -0.2002  0.4997
55776SOL    HW177258  11.100  11.734   7.325 -2.2942 -0.5517  1.3303
55776SOL    HW277259  11.171  11.647   7.224  1.1441  2.0974  1.2761
55777SOL     OW77260   9.778   4.864   0.602  0.6270 -0.4847 -0.1564
55777SOL    HW177261   9.747   4.805   0.671 -0.1893  0.4075  0.2541
55777SOL    HW277262   9.726   4.944   0.613 -0.3067 -0.6938 -2.4515
55778SOL     OW77263   2.461   4.787   4.309 -0.2048  0.4741  0.0541
55778SOL    HW177264   2.541   4.750   4.346  0.2422  0.9620 -0.4033
55778SOL    HW277265   2.466   4.767   4.216  0.1324  1.8052 -0.2352
55779SOL     OW77266   2.471  10.662   1.258 -0.0123 -0.1473 -0.4290
55779SOL    HW177267   2.505  10.675   1.170  3.6565 -1.4873  0.6089
55779SOL    HW277268   2.490  10.744   1.304 -1.7943  0.4991 -0.7519
55780SOL     OW77269   3.814   9.864   5.686  0.2676 -0.4425  0.1984
55780SOL    HW177270   3.805   9.959   5.689  1.7605 -0.2410 -0.6500
55780SOL    HW277271   3.767   9.838   5.606 -1.7137 -0.6662  1.3844
55781SOL     OW77272   7.376   8.974   5.359  0.8183 -0.2306 -0.1039
55781SOL    HW177273   7.452   8.953   5.413  1.7344  0.4402 -1.0850
55781SOL    HW277274   7.408   9.041   5.299 -0.3186 -0.5581 -1.1077
55782SOL     OW77275  10.951  10.669   6.699 -0.0329 -0.1840 -0.6255
55782SOL    HW177276  11.045  10.647   6.695 -0.3497 -1.4729 -3.1677
55782SOL    HW277277  10.939  10.733   6.629 -0.9393  0.5230  0.1712
55783SOL     OW77278  13.268   5.312   1.853  0.2919 -0.1326  0.4514
55783SOL    HW177279  13.262   5.387   1.794  0.5021 -0.6488 -0.2266
55783SOL    HW277280  13.224   5.342   1.933 -0.9916  0.1754 -0.3444
55784SOL     OW77281   3.514  12.134   8.126 -0.3316  0.2423 -0.1959
55784SOL    HW177282   3.557  12.173   8.050  1.3509  0.7413  0.9679
55784SOL    HW277283   3.550  12.046   8.132 -0.6572  0.1112 -0.1065
55785SOL     OW77284   3.995   1.324   7.076 -0.3110  0.6141 -0.3089
55785SOL    HW177285   3.933   1.328   7.148 -1.4090 -1.0679 -1.0837
55785SOL    HW277286   3.992   1.411   7.037 -1.0985  0.9929  0.5543
55786SOL     OW77287   6.099  12.446   9.434  0.0765 -0.1767 -0.4277
55786SOL    HW177288   6.088  12.506   9.508  0.0047 -0.3561 -0.2920
55786SOL    HW277289   6.033  12.379   9.448  0.4652 -0.5448 -0.3216
55787SOL     OW77290  11.881  10.898   0.354 -0.1331  0.3675 -0.1916
55787SOL    HW177291  11.965  10.941   0.338 -0.1344  0.8542  0.9870
55787SOL    HW277292  11.863  10.915   0.447 -1.3898  0.0146 -0.3536
55788SOL     OW77293   5.562   8.546   7.708 -0.7427 -0.0671 -0.9140
55788SOL    HW177294   5.511   8.589   7.777 -2.6506 -1.2555 -1.5086
55788SOL    HW277295   5.496   8.507   7.650  0.8210 -2.8006 -1.0331
55789SOL     OW77296   1.539  10.756   4.283 -0.3536  0.3417 -0.3166
55789SOL    HW177297   1.513  10.739   4.192 -0.5669  0.1338 -0.2203
55789SOL    HW277298   1.626  10.796   4.276 -0.3088  0.2009 -0.6063
55790SOL     OW77299   1.985  11.244   7.798 -0.3429  0.0455 -0.3501
55790SOL    HW177300   1.932  11.282   7.868 -1.7196 -0.4603 -1.0809
55790SOL    HW277301   2.032  11.173   7.840 -0.5908  0.2066  0.2202
55791SOL     OW77302   5.952  13.294   6.264  0.0461  0.5985 -0.2290
55791SOL    HW177303   5.892  13.307   6.190  0.6529 -0.8680 -1.0230
55791SOL    HW277304   6.039  13.301   6.225  0.3732  0.4542  0.4765
55792SOL     OW77305   2.931   1.524   4.434 -0.2488 -0.5160  0.7120
55792SOL    HW177306   3.006   1.483   4.478 -0.3684 -1.8464 -0.2733
55792SOL    HW277307   2.936   1.491   4.344  0.3559  2.5994 -0.5141
55793SOL     OW77308  10.426  12.733   2.852 -0.1717  0.2347 -0.1173
55793SOL    HW177309  10.481  12.797   2.898  0.3251 -0.3617  0.1202
55793SOL    HW277310  10.472  12.717   2.769 -0.3609  0.2730 -0.2319
55794SOL     OW77311  11.274  12.260   1.010  0.4461  0.5405  0.4731
55794SOL    HW177312  11.180  12.247   0.995  0.4198  1.1980  0.0360
55794SOL    HW277313  11.284  12.253   1.105 -0.0544  0.5191  0.5281
55795SOL     OW77314   5.711  13.143  10.259  0.0564 -0.0137 -0.3022
55795SOL    HW177315   5.623  13.179  10.272  0.5818  1.8514 -1.5450
55795SOL    HW277316   5.764  13.218  10.233  2.3216 -0.8538  1.5325
55796SOL     OW77317  10.280   3.579   1.993 -0.7535 -0.0846 -0.3552
55796SOL    HW177318  10.200   3.553   2.037  0.0563 -1.7248  0.2312
55796SOL    HW277319  10.306   3.502   1.942  0.4403  0.4058 -0.5362
55797SOL     OW77320   7.610   8.936   5.528  0.0245  0.2875  0.3929
55797SOL    HW177321   7.675   8.989   5.482  0.5292 -0.0336  0.7184
55797SOL    HW277322   7.604   8.976   5.615 -1.4652  1.3375 -0.1688
55798SOL     OW77323   4.869   1.559   3.880 -0.0365 -0.0785  0.7679
55798SOL    HW177324   4.830   1.628   3.827  0.7203 -0.8841 -0.8940
55798SOL    HW277325   4.813   1.482   3.864  0.3708 -0.4097  0.9031
55799SOL     OW77326   2.726   9.162   7.492  0.1030 -0.3972 -0.1441
55799SOL    HW177327   2.635   9.170   7.464 -0.0162 -0.2255  0.2921
55799SOL    HW277328   2.734   9.073   7.526 -0.3192  0.1000  1.3030
55800SOL     OW77329   1.722   0.962   2.034 -0.6325  0.4837 -0.8397
55800SOL    HW177330   1.719   0.960   1.939 -1.4577 -1.6761 -0.8086
55800SOL    HW277331   1.816   0.961   2.055 -0.4297 -1.5761 -1.6558
55801SOL     OW77332   0.823   4.079   5.652  0.7485 -0.1737  0.6485
55801SOL    HW177333   0.750   4.129   5.615 -0.3894 -1.3121  1.2923
55801SOL    HW277334   0.899   4.137   5.643 -0.2895  1.1681  0.2597
55802SOL     OW77335  11.408   1.431   1.717  0.1036  0.5359  0.2173
55802SOL    HW177336  11.472   1.423   1.646 -1.0935  1.7494 -1.0580
55802SOL    HW277337  11.455   1.401   1.795  1.4209 -0.9572 -1.0854
55803SOL     OW77338  12.425   4.287   5.382 -0.0864 -0.1315 -0.1122
55803SOL    HW177339  12.433   4.381   5.365  0.2737 -0.1845 -0.2447
55803SOL    HW277340  12.442   4.277   5.475 -1.1847  0.0570  0.1220
55804SOL     OW77341   6.114   1.126   0.847 -0.5091  0.6374 -0.2386
55804SOL    HW177342   6.051   1.086   0.788 -1.3976  0.5074  0.7768
55804SOL    HW277343   6.181   1.059   0.860 -0.8900  0.2587 -0.2196
55805SOL     OW77344  10.280   3.178   4.243 -0.3125  0.1362  0.4650
55805SOL    HW177345  10.303   3.220   4.326  0.5035  0.7879 -0.0695
55805SOL    HW277346  10.341   3.105   4.235  0.4829  0.8583 -0.1663
55806SOL     OW77347   4.666   2.324   4.668  0.5998  0.2225 -0.3814
55806SOL    HW177348   4.624   2.409   4.678  0.0020 -0.0750 -0.3010
55806SOL    HW277349   4.605   2.273   4.614  0.5275 -0.4419  0.3076
55807SOL     OW77350   8.933   8.333  12.109 -0.2191 -0.1162 -0.0964
55807SOL    HW177351   8.931   8.425  12.134 -0.7904  0.0599 -0.7511
55807SOL    HW277352   8.952   8.334  12.015  1.5602 -0.7430  0.2121
55808SOL     OW77353  10.945   6.900   5.222 -1.2213 -0.8902  0.0454
55808SOL    HW177354  10.936   6.915   5.316  0.3867 -0.3036  0.1287
55808SOL    HW277355  10.910   6.980   5.181  1.5109  0.5462  0.3036
55809SOL     OW77356   7.800   5.412   2.547 -0.0392 -0.5388  0.1910
55809SOL    HW177357   7.768   5.414   2.456  0.8135  2.4734 -0.1476
55809SOL    HW277358   7.750   5.481   2.591  2.1144  0.5710  1.0125
55810SOL     OW77359   4.074   5.455   7.540  0.0333 -0.0227  0.2597
55810SOL    HW177360   4.051   5.538   7.582  1.2704  0.0824  0.7651
55810SOL    HW277361   4.067   5.474   7.446 -0.8435  0.2985  0.3722
55811SOL     OW77362   7.948   8.647   7.468  0.2276 -0.0320  0.3136
55811SOL    HW177363   7.912   8.705   7.401  0.9432  0.8918  0.7114
55811SOL    HW277364   7.996   8.705   7.527 -2.7011 -0.3472  3.2984
55812SOL     OW77365   7.232   2.233   1.232  0.0666  0.2892 -0.0049
55812SOL    HW177366   7.245   2.152   1.281  1.0978 -0.5254 -1.5540
55812SOL    HW277367   7.313   2.283   1.246 -0.8273  1.4190  1.5012
55813SOL     OW77368   6.448   1.958   6.469  0.3300  0.3227  0.5132
55813SOL    HW177369   6.464   1.936   6.378 -2.4622  1.2017 -0.2754
55813SOL    HW277370   6.533   1.989   6.501  1.7538 -1.4425 -1.2820
55814SOL     OW77371   3.029   1.644   4.065 -0.0389  0.0901  0.7504
55814SOL    HW177372   3.115   1.649   4.023 -0.3146 -0.1436  0.1379
55814SOL    HW277373   2.999   1.555   4.048 -1.4465  0.8507 -1.2153
55815SOL     OW77374  11.722   5.835   5.500  0.5536 -0.3840 -0.6623
55815SOL    HW177375  11.664   5.767   5.535 -0.7773  2.3344  3.0342
55815SOL    HW277376  11.665   5.909   5.483  2.5629  1.6040  0.7362
55816SOL     OW77377  10.986   7.710  13.171 -0.0469 -0.2788  0.1292
55816SOL    HW177378  10.944   7.625  13.168  0.5594 -0.7660  2.7148
55816SOL    HW277379  11.079   7.691  13.158 -0.0195  0.1325 -0.3042
55817SOL     OW77380   8.230  11.632   3.718  0.4492  0.4346  0.6128
55817SOL    HW177381   8.313  11.679   3.727 -0.9797  2.8736  2.4419
55817SOL    HW277382   8.184  11.649   3.801 -1.0496 -2.6363  0.5545
55818SOL     OW77383   0.940   3.415   9.355  0.0753 -0.1742 -0.7881
55818SOL    HW177384   0.991   3.339   9.325  0.1663 -0.5938  0.3839
55818SOL    HW277385   0.853   3.380   9.374 -0.1235  0.1826 -1.0350
55819SOL     OW77386   7.156   6.480   0.354 -0.4268  0.3309 -0.0271
55819SOL    HW177387   7.163   6.409   0.418 -2.4618  1.2199  1.3034
55819SOL    HW277388   7.148   6.436   0.270 -1.1252 -1.0286  0.7197
55820SOL     OW77389   7.062   7.545   9.930 -0.5345 -0.0274 -0.3567
55820SOL    HW177390   7.082   7.495   9.851  0.5645  1.0466 -0.7798
55820SOL    HW277391   6.967   7.557   9.927 -1.1352 -3.3679  0.5632
55821SOL     OW77392   7.078   2.488  11.769 -0.2521 -0.5449 -0.8619
55821SOL    HW177393   7.159   2.520  11.729 -1.1937  0.6729 -1.8691
55821SOL    HW277394   7.027   2.567  11.787 -0.4550 -1.1462  1.5394
55822SOL     OW77395  11.998   2.790   0.092 -0.2367 -0.0998 -0.3144
55822SOL    HW177396  11.927   2.770   0.153  0.8335  1.1507  1.4086
55822SOL    HW277397  11.958   2.779   0.005 -1.4526 -3.1980  0.5036
55823SOL     OW77398   3.429   1.993  12.630  0.2489 -0.0060  0.2207
55823SOL    HW177399   3.335   1.986  12.649  0.2806  0.7609  0.6998
55823SOL    HW277400   3.433   2.039  12.546  0.2083  1.1975  0.8528
55824SOL     OW77401   5.338   6.913   8.649  0.4967  0.6159 -0.7782
55824SOL    HW177402   5.258   6.862   8.659  0.7265  0.3763 -0.0388
55824SOL    HW277403   5.318   6.998   8.690  1.1661 -0.0647  1.0725
55825SOL     OW77404   9.122   4.774   2.574 -0.0239 -0.4658  0.1309
55825SOL    HW177405   9.067   4.841   2.534  0.5045 -1.0589 -1.6646
55825SOL    HW277406   9.207   4.785   2.533  0.6743 -0.8346  1.4296
55826SOL     OW77407   8.384   8.683   3.157 -0.3589 -0.4640 -0.5586
55826SOL    HW177408   8.374   8.588   3.159 -1.3581 -0.3710  2.1644
55826SOL    HW277409   8.474   8.697   3.126  0.7344 -2.4382  1.4403
55827SOL     OW77410  11.765   9.031   2.862 -0.1194  0.5463  0.1959
55827SOL    HW177411  11.826   8.990   2.923  1.6573  0.6104 -1.4353
55827SOL    HW277412  11.775   9.125   2.879 -0.1475  0.5323  0.2920
55828SOL     OW77413   7.981   0.820   9.752 -0.3847 -0.4439  0.4677
55828SOL    HW177414   8.070   0.853   9.762 -0.2423 -1.3474  2.9669
55828SOL    HW277415   7.925   0.893   9.779 -0.3290 -0.3697  0.3817
55829SOL     OW77416   7.529   7.460   2.848  0.1593 -0.6081 -0.4258
55829SOL    HW177417   7.603   7.404   2.824  0.7105 -0.1380  0.1245
55829SOL    HW277418   7.461   7.439   2.784  0.2626 -2.0653 -0.0930
55830SOL     OW77419   9.426   7.353  12.074  0.2581  0.0597  0.3275
55830SOL    HW177420   9.350   7.326  12.126  0.0733  1.0819  0.6169
55830SOL    HW277421   9.488   7.282  12.084  0.6102  0.5980  2.7484
55831SOL     OW77422   7.213  12.784  11.062  0.2635  0.4340  0.0845
55831SOL    HW177423   7.289  12.822  11.106  0.8147 -0.6764  0.1193
55831SOL    HW277424   7.249  12.714  11.008 -0.6709  0.2960 -0.3740
55832SOL     OW77425   4.225   4.103  10.156  0.1178  0.1288  0.0521
55832SOL    HW177426   4.141   4.057  10.143 -0.1891  0.1969  1.5632
55832SOL    HW277427   4.209   4.191  10.123  0.0819 -0.2699 -1.0492
55833SOL     OW77428  13.036   8.209   7.052 -0.6660  0.1241  0.1260
55833SOL    HW177429  13.112   8.261   7.079  0.4907 -0.0037 -2.5493
55833SOL    HW277430  13.032   8.138   7.117  1.0454  0.5735  0.7932
55834SOL     OW77431   3.284   8.623   6.629  0.0952  0.8966 -0.2739
55834SOL    HW177432   3.210   8.563   6.646 -0.0192  0.9385 -0.6185
55834SOL    HW277433   3.306   8.658   6.715 -0.6701  1.3314 -0.2464
55835SOL     OW77434  10.307   1.279   3.314 -0.6762  0.5345 -0.4206
55835SOL    HW177435  10.236   1.300   3.254 -0.0092  0.4038 -1.2814
55835SOL    HW277436  10.380   1.255   3.257 -0.8358 -2.3661  0.4695
55836SOL     OW77437  11.278   6.417   9.972  0.0491  0.7966  0.5998
55836SOL    HW177438  11.372   6.424   9.987  0.0956  0.1335  0.6691
55836SOL    HW277439  11.270   6.365   9.892 -0.2579 -0.1702  1.2363
55837SOL     OW77440  12.594   5.831  10.478 -0.1195 -0.2543 -0.2089
55837SOL    HW177441  12.641   5.914  10.474 -1.2838  0.3767 -1.2983
55837SOL    HW277442  12.502   5.855  10.471 -0.4145 -1.7071 -2.2487
55838SOL     OW77443   3.576   6.580   5.796  0.5296  0.3613  0.0457
55838SOL    HW177444   3.617   6.556   5.713 -0.2163 -1.1856  0.0769
55838SOL    HW277445   3.601   6.510   5.856  0.7222  1.2485  1.0271
55839SOL     OW77446  11.442   5.940   5.207 -0.1810  0.1295  0.3647
55839SOL    HW177447  11.407   5.936   5.117 -1.2898 -0.2366  0.7923
55839SOL    HW277448  11.422   5.854   5.244 -2.5897  1.2622  1.9470
55840SOL     OW77449   3.974  12.527   9.441 -0.2411  0.1209 -0.3991
55840SOL    HW177450   3.916  12.463   9.483 -0.1056  0.8557  0.9323
55840SOL    HW277451   3.927  12.610   9.447 -0.0692  0.3030 -1.4210
55841SOL     OW77452   5.862   9.954   5.557 -0.4794  0.4332  0.0895
55841SOL    HW177453   5.889   9.949   5.648  0.0193 -0.7921 -0.1053
55841SOL    HW277454   5.929   9.905   5.509 -0.2810  1.7427 -1.0458
55842SOL     OW77455   2.755  10.355   4.895  0.0508 -0.0203  0.0672
55842SOL    HW177456   2.769  10.348   4.801  0.6039  1.6825 -0.0057
55842SOL    HW277457   2.815  10.290   4.933  0.2694 -0.2931 -0.7272
55843SOL     OW77458  10.080  13.261   2.253 -0.1846  0.6360  0.4868
55843SOL    HW177459  10.138  13.334   2.231 -0.8031  1.3649  1.1640
55843SOL    HW277460  10.004  13.304   2.293 -0.2541 -0.4350  1.5455
55844SOL     OW77461   1.251   3.664   3.833  0.2663 -0.2489  0.0873
55844SOL    HW177462   1.159   3.682   3.817  0.2597 -0.5871 -0.2933
55844SOL    HW277463   1.293   3.750   3.833 -0.0325 -0.1033  0.1433
55845SOL     OW77464  10.090   6.937   4.501  0.2103 -0.4375  0.1782
55845SOL    HW177465  10.024   6.896   4.445  1.6350 -1.8744 -0.5188
55845SOL    HW277466  10.131   7.003   4.445 -0.5084  0.3508  0.5640
55846SOL     OW77467  11.833   7.507  11.728  0.3462  0.0445  0.2089
55846SOL    HW177468  11.877   7.569  11.786 -0.5750  1.9617 -1.0518
55846SOL    HW277469  11.903   7.471  11.673  1.1551 -1.4266  2.0709
55847SOL     OW77470   7.559  12.859   3.094 -0.0078  0.4419 -0.4915
55847SOL    HW177471   7.644  12.827   3.124  0.4587  1.6830 -0.4179
55847SOL    HW277472   7.503  12.782   3.092  1.2011 -0.4466 -0.8205
55848SOL     OW77473   8.514   7.060   6.322 -0.1558  0.1059  0.4353
55848SOL    HW177474   8.482   7.117   6.252  0.0692 -1.0901 -0.6663
55848SOL    HW277475   8.492   6.972   6.293 -1.1112 -0.3739  2.4129
55849SOL     OW77476   8.538   7.315   9.622 -0.5272 -0.3105  0.1556
55849SOL    HW177477   8.486   7.340   9.546  1.0497  1.1710 -0.4908
55849SOL    HW277478   8.473   7.293   9.689 -1.9502 -0.5397 -1.2580
55850SOL     OW77479   5.586   0.428   0.537 -0.0633 -0.3955 -0.2230
55850SOL    HW177480   5.554   0.406   0.624  0.7577  0.9839  0.4564
55850SOL    HW277481   5.664   0.374   0.526  2.2767  2.3363  1.6675
55851SOL     OW77482   3.054  10.263   3.110  0.2880 -0.3577  0.2133
55851SOL    HW177483   3.065  10.336   3.172 -0.8262  0.3879 -0.4371
55851SOL    HW277484   3.143  10.241   3.084  0.8287 -0.9575  2.3462
55852SOL     OW77485   9.567  11.100   7.297  0.3248  0.0937 -0.2673
55852SOL    HW177486   9.573  11.108   7.202 -0.6819 -0.8884 -0.4416
55852SOL    HW277487   9.634  11.159   7.331  1.8671 -0.8148 -1.6195
55853SOL     OW77488  12.244  10.464   5.007 -0.8236 -0.4155 -0.1836
55853SOL    HW177489  12.309  10.525   4.971  0.4399 -1.7996 -0.3389
55853SOL    HW277490  12.242  10.484   5.100  0.4782 -0.9007 -0.0261
55854SOL     OW77491   4.309   8.194   4.581  0.3187 -0.6478  0.2759
55854SOL    HW177492   4.331   8.287   4.569  0.6173 -0.5855  1.2450
55854SOL    HW277493   4.248   8.193   4.655 -1.6378 -0.9962 -1.2570
55855SOL     OW77494  12.746   7.946  11.563 -0.2081  0.0526 -0.5531
55855SOL    HW177495  12.759   8.022  11.619  0.3397 -0.5301  0.1296
55855SOL    HW277496  12.834   7.915  11.543 -0.4072 -0.0047 -1.3996
55856SOL     OW77497  12.439   6.152  10.375 -0.5348 -0.6311  0.1148
55856SOL    HW177498  12.358   6.109  10.347 -0.9920  0.1784  0.1612
55856SOL    HW277499  12.410   6.228  10.425  0.1506  1.3152 -2.2146
55857SOL     OW77500   1.776   8.190   1.072  0.1540  0.2744 -0.1947
55857SOL    HW177501   1.745   8.139   1.147  1.5497 -0.1152  0.1585
55857SOL    HW277502   1.730   8.273   1.079  0.3266  0.2869  1.1812
55858SOL     OW77503   8.886   9.873  10.022 -0.4733  0.2437  0.4308
55858SOL    HW177504   8.836   9.934   9.968  0.6358 -0.6376 -1.6875
55858SOL    HW277505   8.978   9.897  10.006 -0.0929 -0.6353  1.2134
55859SOL     OW77506   1.409   6.524  12.451  0.3365  0.4421 -0.4890
55859SOL    HW177507   1.433   6.506  12.542 -1.0726  1.4093  0.1031
55859SOL    HW277508   1.382   6.439  12.416  0.3611  0.1632  0.1558
55860SOL     OW77509   2.443   6.519   7.456  0.0549  0.1080  0.4402
55860SOL    HW177510   2.462   6.466   7.533 -2.5346  0.8237  1.6993
55860SOL    HW277511   2.502   6.594   7.463  3.5049 -2.2230 -1.1690
55861SOL     OW77512  11.424   1.384   9.110  0.3915  0.0080 -0.5674
55861SOL    HW177513  11.353   1.439   9.079 -1.4011 -1.0228  1.4852
55861SOL    HW277514  11.498   1.444   9.122 -0.7529  1.4994 -0.7121
55862SOL     OW77515  11.348   2.774   2.231 -0.2961 -0.6050  0.7463
55862SOL    HW177516  11.354   2.862   2.268 -1.2008 -0.1239 -0.1959
55862SOL    HW277517  11.439   2.747   2.218 -0.0126  0.1671  1.0968
55863SOL     OW77518   8.455   3.216  12.460 -1.2073  1.2006 -0.2630
55863SOL    HW177519   8.521   3.237  12.526 -1.7569  0.6106  0.4958
55863SOL    HW277520   8.505   3.182  12.386 -0.6569  0.5042  0.4022
55864SOL     OW77521   6.153   0.337  11.276  0.2623  0.2594 -0.4755
55864SOL    HW177522   6.222   0.344  11.210  0.9329 -2.6954 -0.2092
55864SOL    HW277523   6.194   0.368  11.357  0.4708  0.8315 -0.7944
55865SOL     OW77524   3.834   4.121   9.089 -0.1248  0.0644  0.2355
55865SOL    HW177525   3.740   4.115   9.108 -0.0270 -0.5891  0.5532
55865SOL    HW277526   3.838   4.118   8.993 -0.5179  1.7204  0.1458
55866SOL     OW77527   7.812   3.380   0.075 -0.4894  0.5641  0.3747
55866SOL    HW177528   7.889   3.393   0.131 -0.4444  0.0152  0.4536
55866SOL    HW277529   7.750   3.446   0.103 -1.0260 -0.6032  2.0905
55867SOL     OW77530   2.361   4.383  10.915 -0.0109 -0.2914  0.2106
55867SOL    HW177531   2.424   4.312  10.900 -0.7139 -1.1790  1.3245
55867SOL    HW277532   2.327   4.403  10.828 -0.0078 -1.5207 -0.0959
55868SOL     OW77533   5.679   0.733   4.382  0.3176 -0.1072 -0.0263
55868SOL    HW177534   5.755   0.785   4.409  0.0942  0.4742 -0.4909
55868SOL    HW277535   5.616   0.744   4.452  1.3314 -2.1127  1.2843
55869SOL     OW77536   9.576  11.261   5.282  0.2195  0.0284 -0.7494
55869SOL    HW177537   9.667  11.233   5.276 -0.5945 -2.7557 -1.8294
55869SOL    HW277538   9.539  11.206   5.352 -0.4993  1.6843  0.2421
55870SOL     OW77539   5.432   5.701   2.914 -0.2801 -0.1889  0.0643
55870SOL    HW177540   5.343   5.677   2.888 -0.2476 -0.6783  0.3979
55870SOL    HW277541   5.423   5.727   3.006 -0.1171 -0.0088  0.0299
55871SOL     OW77542   6.754  10.344   4.287 -0.0727  0.0661 -0.2863
55871SOL    HW177543   6.753  10.287   4.363  0.4875  1.1231  0.5272
55871SOL    HW277544   6.738  10.285   4.213  0.2348 -1.0953  0.5491
55872SOL     OW77545   4.437   6.352  10.394  0.4417 -0.3612  0.3571
55872SOL    HW177546   4.364   6.324  10.338  0.3172  2.2332 -0.9411
55872SOL    HW277547   4.394   6.395  10.468  0.6521 -1.1201  0.9299
55873SOL     OW77548  12.798   6.384   6.238  0.1541 -0.8661 -0.3687
55873SOL    HW177549  12.765   6.294   6.244 -0.5278 -0.6893 -1.2460
55873SOL    HW277550  12.720   6.437   6.223  0.7315 -0.3178 -1.5355
55874SOL     OW77551  11.245  13.293   4.287  0.2276 -0.0351  0.1540
55874SOL    HW177552  11.216  13.374   4.331  0.6619 -0.0794  0.5332
55874SOL    HW277553  11.280  13.323   4.203  0.3202  0.1615  0.2622
55875SOL     OW77554  11.893   4.437   1.980  0.6338 -0.0435 -0.1491
55875SOL    HW177555  11.977   4.404   1.947  0.6183  0.8032 -1.0733
55875SOL    HW277556  11.895   4.531   1.964  1.0435  0.6448  3.2672
55876SOL     OW77557   2.146  11.484   2.672  0.0360 -0.4254 -0.4625
55876SOL    HW177558   2.190  11.404   2.702 -1.5464 -1.5450 -0.9881
55876SOL    HW277559   2.207  11.522   2.609  1.9267  0.1760  1.5805
55877SOL     OW77560   3.642  11.353   6.283 -0.5575  0.1472  0.4585
55877SOL    HW177561   3.700  11.320   6.352  1.0956 -0.0590 -0.9723
55877SOL    HW277562   3.553  11.334   6.316  0.1795 -0.3308  2.3146
55878SOL     OW77563  11.811   7.356   9.381 -0.1897  0.3616 -0.0940
55878SOL    HW177564  11.842   7.266   9.370  1.4167  0.8425  0.1634
55878SOL    HW277565  11.730   7.361   9.329  1.0800 -0.5100 -2.2985
55879SOL     OW77566  10.952  10.428   3.404  0.0469  0.1339 -0.3169
55879SOL    HW177567  10.911  10.342   3.415  1.2698 -0.4393 -0.0862
55879SOL    HW277568  10.973  10.433   3.311  0.2458  0.0471 -0.2779
55880SOL     OW77569   2.928  10.158   8.650  0.2872  0.1055  0.4351
55880SOL    HW177570   2.990  10.085   8.652 -1.0805 -1.0926  0.1188
55880SOL    HW277571   2.888  10.154   8.563 -1.6208 -0.3413  1.2993
55881SOL     OW77572   0.270   5.877   4.483 -0.1666 -0.2788  0.4786
55881SOL    HW177573   0.318   5.940   4.537 -2.4588  1.2872  0.8523
55881SOL    HW277574   0.178   5.900   4.496 -0.9215 -1.3549 -2.2878
55882SOL     OW77575   4.574   3.325   7.312  0.2413 -0.0594  0.2634
55882SOL    HW177576   4.653   3.298   7.359  1.5562  0.5862 -1.4533
55882SOL    HW277577   4.560   3.256   7.248  0.0686  0.3647 -0.1622
55883SOL     OW77578  11.331   0.302   9.857  0.2146 -0.3921  0.4218
55883SOL    HW177579  11.288   0.328   9.776 -0.3833  1.3672  1.2454
55883SOL    HW277580  11.393   0.233   9.831 -0.5514 -0.4645 -1.3614
55884SOL     OW77581  10.199   6.190   1.535 -0.0704  0.3097 -0.0770
55884SOL    HW177582  10.103   6.189   1.528 -0.3161 -0.3205  2.4771
55884SOL    HW277583  10.221   6.282   1.551 -0.2038  0.5027 -0.9644
55885SOL     OW77584   1.072   4.960   2.096 -0.0589  0.4505 -0.7400
55885SOL    HW177585   1.057   4.991   2.186  1.7505  0.3503 -0.3712
55885SOL    HW277586   1.163   4.931   2.096 -0.6282 -1.4875 -2.0617
55886SOL     OW77587  12.812   9.244   3.854 -0.2000  0.7497 -0.2124
55886SOL    HW177588  12.891   9.237   3.800 -0.8020  2.6229 -1.4316
55886SOL    HW277589  12.774   9.156   3.853  1.2582  0.0908 -0.5416
55887SOL     OW77590   5.258   1.565   6.358  0.6839 -0.2417  0.2121
55887SOL    HW177591   5.280   1.646   6.311  0.1040 -1.1888 -1.8397
55887SOL    HW277592   5.169   1.580   6.390  0.9919  0.3372  0.8077
55888SOL     OW77593   3.099   6.443   8.809  0.2409  0.5216 -0.0437
55888SOL    HW177594   3.038   6.517   8.810 -0.5912 -0.1573  0.7864
55888SOL    HW277595   3.140   6.447   8.723  0.6162  2.2637  0.1689
55889SOL     OW77596   9.916   6.501  11.262  0.4172  0.0927 -0.5477
55889SOL    HW177597   9.937   6.594  11.260  0.0985  0.1570 -1.9271
55889SOL    HW277598   9.870   6.485  11.180 -1.3434 -0.8669  0.5575
55890SOL     OW77599   8.152   9.846  10.518  0.0280  0.4187  0.2528
55890SOL    HW177600   8.180   9.779  10.456 -0.7887  0.3389 -0.0473
55890SOL    HW277601   8.063   9.868  10.490  0.0670  1.1945  0.7119
55891SOL     OW77602   1.967   1.388   1.398  0.2125 -0.4950 -0.2242
55891SOL    HW177603   1.914   1.311   1.377 -0.1639 -0.1284 -0.6207
55891SOL    HW277604   1.946   1.406   1.490  0.8762 -1.3127  0.1000
55892SOL     OW77605  10.773   6.994   6.712 -0.7939  0.3821 -0.3852
55892SOL    HW177606  10.730   7.064   6.662 -0.5494  2.6280  2.2823
55892SOL    HW277607  10.855   7.034   6.742 -0.2296 -1.3697  0.5179
55893SOL     OW77608  11.656  10.492   8.406  0.5109  0.9592  0.2589
55893SOL    HW177609  11.618  10.436   8.475 -0.1776  1.0962 -0.0017
55893SOL    HW277610  11.722  10.436   8.364 -0.9127 -0.0713 -0.7082
55894SOL     OW77611  11.446   5.804  10.622  0.5819 -0.0862  0.9365
55894SOL    HW177612  11.537   5.806  10.649  1.2990  0.6929 -1.3278
55894SOL    HW277613  11.431   5.888  10.579 -0.6756 -0.8467 -0.2387
55895SOL     OW77614   5.320  13.074  11.627 -0.3116 -0.0237  0.1858
55895SOL    HW177615   5.271  12.992  11.630 -1.0940  0.4498  1.6121
55895SOL    HW277616   5.260  13.139  11.666  0.3838  1.1674 -0.6746
55896SOL     OW77617  11.487   1.624   8.702 -0.2340 -0.2362 -0.1557
55896SOL    HW177618  11.424   1.552   8.700 -0.6426  0.1278 -1.9246
55896SOL    HW277619  11.452   1.688   8.640  0.9237  0.8072  0.2284
55897SOL     OW77620  13.250   8.684   3.720 -0.1307  0.0150 -0.3934
55897SOL    HW177621  13.262   8.767   3.673 -1.1919  0.5872  0.3253
55897SOL    HW277622  13.156   8.672   3.723 -0.0194 -2.7715 -3.1144
55898SOL     OW77623   6.726   4.253   9.861 -0.4123  0.3180 -0.0872
55898SOL    HW177624   6.632   4.246   9.876 -0.4997 -0.1313 -0.7908
55898SOL    HW277625   6.739   4.343   9.832 -0.5174  0.5979  0.7148
55899SOL     OW77626  12.784  13.244   4.751  0.4427 -0.1925  0.6722
55899SOL    HW177627  12.827  13.220   4.669 -0.6225 -3.3493  0.9071
55899SOL    HW277628  12.720  13.174   4.766  0.1812  0.5910  3.8813
55900SOL     OW77629   4.337  12.593   5.946 -0.2764  0.2577  0.1139
55900SOL    HW177630   4.350  12.687   5.941  0.7932  0.1124 -0.1151
55900SOL    HW277631   4.250  12.578   5.907 -1.4937  1.3484  2.2396
55901SOL     OW77632   3.562  12.738   0.123 -0.2945  0.4590 -0.3174
55901SOL    HW177633   3.555  12.826   0.086  3.2707  0.9497 -0.0926
55901SOL    HW277634   3.598  12.685   0.052 -0.3170 -0.3073  0.2320
55902SOL     OW77635   6.615   3.503   1.661 -0.0548 -0.0938  0.3987
55902SOL    HW177636   6.543   3.543   1.710  0.4856 -0.9878  1.9779
55902SOL    HW277637   6.578   3.482   1.576 -1.0583  1.3971  0.4430
55903SOL     OW77638  12.333   5.443   7.419 -0.2862  0.4391  0.1771
55903SOL    HW177639  12.401   5.379   7.441 -0.1287  0.7352  0.5659
55903SOL    HW277640  12.372   5.528   7.437 -1.0150  0.5843  1.1717
55904SOL     OW77641   9.828   4.349  13.129 -0.3745  0.2297  0.0998
55904SOL    HW177642   9.784   4.414  13.074  0.5541 -1.2041 -2.5657
55904SOL    HW277643   9.922   4.367  13.116 -0.1276 -0.6747  0.5555
55905SOL     OW77644   2.524   4.777   1.017 -0.2598 -0.5055  0.0832
55905SOL    HW177645   2.435   4.763   1.050 -0.5120  0.6541 -0.0547
55905SOL    HW277646   2.514   4.840   0.946  0.7358  0.2157  0.5434
55906SOL     OW77647   8.372  12.046   4.037 -0.2852 -0.0772  0.3083
55906SOL    HW177648   8.345  12.066   3.947 -0.3160 -0.2380  0.2802
55906SOL    HW277649   8.395  11.953   4.034 -0.4405 -0.1227  0.5045
55907SOL     OW77650   9.255  11.827   3.738  0.0997 -0.2630 -0.0209
55907SOL    HW177651   9.221  11.839   3.649 -0.7095  0.9572  0.4224
55907SOL    HW277652   9.336  11.877   3.740 -1.3742  2.2851  0.7304
55908SOL     OW77653   4.925   2.305   3.106  0.3509 -0.8681  0.8373
55908SOL    HW177654   4.856   2.253   3.065  1.0139  0.8019 -2.7587
55908SOL    HW277655   4.879   2.379   3.146 -0.0985  1.6491 -3.7322
55909SOL     OW77656   1.006  10.350   8.496 -0.1038  0.1760 -0.0181
55909SOL    HW177657   0.954  10.369   8.574 -1.8512  0.1611 -1.1296
55909SOL    HW277658   1.044  10.435   8.472 -0.8980  0.5213 -0.0796
55910SOL     OW77659  10.074   8.980   7.219 -0.3740  0.0196  0.0906
55910SOL    HW177660  10.017   8.983   7.143 -0.6068 -0.6111  0.2356
55910SOL    HW277661  10.081   9.071   7.248 -1.1846  0.1210 -0.0226
55911SOL     OW77662   8.577   3.044  12.272  0.1022 -0.2043 -0.1186
55911SOL    HW177663   8.652   3.087  12.231  0.1700 -0.1446  0.0657
55911SOL    HW277664   8.536   2.995  12.201 -0.8058  1.2962 -0.6843
55912SOL     OW77665  12.161  11.922   5.883  0.2792 -0.5893 -0.2399
55912SOL    HW177666  12.084  11.867   5.868  0.0937 -0.3251 -0.2431
55912SOL    HW277667  12.180  11.959   5.797  0.7804 -1.1391 -0.3758
55913SOL     OW77668   7.659  10.560   7.236 -0.6048 -0.2883  0.3152
55913SOL    HW177669   7.637  10.516   7.153  0.7995 -1.9084  0.7370
55913SOL    HW277670   7.753  10.580   7.227 -0.3357 -0.8727  1.6600
55914SOL     OW77671   0.505   8.721   8.470 -0.1631 -0.3965  0.5055
55914SOL    HW177672   0.478   8.733   8.379 -0.2674  0.7898  0.6771
55914SOL    HW277673   0.601   8.725   8.468 -0.1879  3.1802  0.8363
55915SOL     OW77674   4.248   2.956   1.296  0.4944  0.0278  0.1479
55915SOL    HW177675   4.240   3.028   1.235  1.4050 -0.2497 -0.3059
55915SOL    HW277676   4.187   2.890   1.263  0.4073  0.1861 -0.0078
55916SOL     OW77677   5.585   4.413  11.982 -0.3235  0.3269 -0.2865
55916SOL    HW177678   5.514   4.439  12.041  1.6152 -0.3735  2.5918
55916SOL    HW277679   5.590   4.318  11.990  0.9030  0.3581 -0.4387
55917SOL     OW77680  12.762   5.990   3.472  0.1552  0.7180 -0.2405
55917SOL    HW177681  12.752   5.895   3.475 -1.6068  0.8771 -0.1457
55917SOL    HW277682  12.834   6.009   3.532 -0.4422 -0.4431  0.8801
55918SOL     OW77683   2.463  11.891   9.907  0.0771  0.5808 -0.1514
55918SOL    HW177684   2.452  11.805   9.947  0.3366 -0.3990 -2.0602
55918SOL    HW277685   2.540  11.882   9.851 -0.4392  1.7629 -1.0953
55919SOL     OW77686   2.879   5.217  13.302 -0.1001 -0.4546  0.0461
55919SOL    HW177687   2.867   5.303  13.261  1.7731 -0.1610  0.0313
55919SOL    HW277688   2.835   5.156  13.242 -0.1064  0.3229 -0.7727
55920SOL     OW77689   0.735   7.807   2.267  0.0012  0.3882  0.0211
55920SOL    HW177690   0.731   7.755   2.347  2.0047 -1.9239 -1.2181
55920SOL    HW277691   0.778   7.749   2.204 -0.7831  2.3946 -2.5075
55921SOL     OW77692   6.226   3.915   3.066  0.5390 -0.2853 -0.5219
55921SOL    HW177693   6.155   3.886   3.123 -0.0365 -1.3180 -1.7036
55921SOL    HW277694   6.294   3.848   3.076  0.6672 -0.1686 -0.6060
55922SOL     OW77695   5.405   1.567  12.133  0.6969  0.4940 -0.4774
55922SOL    HW177696   5.491   1.610  12.127  1.3217 -0.8079 -1.3767
55922SOL    HW277697   5.424   1.475  12.117 -0.7673  0.0514  0.2338
55923SOL     OW77698   6.261  12.275   0.054  0.1980 -0.1735 -0.2463
55923SOL    HW177699   6.319  12.349   0.072 -0.1708  0.5905 -2.0314
55923SOL    HW277700   6.223  12.294  -0.032  1.6228 -3.4133 -1.7587
55924SOL     OW77701   1.995   9.491   5.534  0.7361 -0.3198 -0.7539
55924SOL    HW177702   2.010   9.500   5.440 -0.1656  0.8847 -0.7893
55924SOL    HW277703   1.963   9.576   5.562 -0.9330 -1.2372  0.2795
55925SOL     OW77704  11.645   5.851   8.205 -0.1045  0.5127  0.1231
55925SOL    HW177705  11.685   5.937   8.213  0.2674  0.2883  0.8556
55925SOL    HW277706  11.561   5.859   8.250 -0.5826  0.7971 -0.8095
55926SOL     OW77707   0.331   7.125   0.429  0.6224  0.0204  0.0711
55926SOL    HW177708   0.315   7.136   0.522 -0.5594 -1.9624  0.1523
55926SOL    HW277709   0.305   7.209   0.390 -0.8637  0.1720  1.3039
55927SOL     OW77710   7.762   8.908  13.017 -0.7567  0.1709 -0.1899
55927SOL    HW177711   7.704   8.941  13.086 -0.4547  2.1969 -0.8430
55927SOL    HW277712   7.839   8.965  13.021  0.0832 -0.8561 -1.0179
55928SOL     OW77713  12.289  11.774   7.350 -0.4770 -0.0119  0.1194
55928SOL    HW177714  12.235  11.765   7.272 -1.1941 -0.4384  0.6516
55928SOL    HW277715  12.227  11.773   7.423  0.3445 -2.2384  0.8583
55929SOL     OW77716   4.300   7.238   2.088 -0.2322 -0.3635 -1.1188
55929SOL    HW177717   4.341   7.209   2.170  0.4510 -0.6580 -1.5547
55929SOL    HW277718   4.252   7.317   2.112 -1.0244 -1.0964 -0.1780
55930SOL     OW77719   9.128   6.090  12.032 -0.8879  0.3605 -0.5070
55930SOL    HW177720   9.219   6.075  12.004 -0.4408  1.3599  0.3768
55930SOL    HW277721   9.128   6.072  12.126 -1.6980  0.0091 -0.5622
55931SOL     OW77722  10.256  10.173   4.664  0.9363 -0.1524 -0.1329
55931SOL    HW177723  10.294  10.100   4.713 -0.6089 -0.5007  0.6186
55931SOL    HW277724  10.331  10.216   4.622  2.1636 -0.6647  1.4333
55932SOL     OW77725  10.146  10.290   3.653 -0.3592 -0.0785 -0.6977
55932SOL    HW177726  10.128  10.246   3.571 -0.6439 -1.4237  0.0559
55932SOL    HW277727  10.063  10.333   3.676  0.3008  2.1001 -2.1166
55933SOL     OW77728   6.544   8.101  10.041 -0.0313  0.2120 -0.1629
55933SOL    HW177729   6.494   8.039   9.988 -1.5565  1.3477 -0.0964
55933SOL    HW277730   6.635   8.082  10.019 -0.5454 -0.5135 -1.8712
55934SOL     OW77731  11.206   6.631  12.994  0.1475 -0.5635 -0.1105
55934SOL    HW177732  11.138   6.646  12.928  1.8578 -0.4401 -1.9516
55934SOL    HW277733  11.256   6.557  12.960  3.8970  2.2645 -1.5096
55935SOL     OW77734   1.674  10.531   1.303 -0.2178  0.3887  0.3827
55935SOL    HW177735   1.579  10.533   1.292 -0.4048 -0.5850  1.6301
55935SOL    HW277736   1.708  10.502   1.218 -1.1435 -0.7178  0.3751
55936SOL     OW77737   1.202  12.032   9.689  0.1109 -0.5833 -0.8586
55936SOL    HW177738   1.196  11.937   9.678 -1.8097 -0.7958  1.2546
55936SOL    HW277739   1.246  12.044   9.773 -1.4270  0.2910 -0.1366
55937SOL     OW77740   7.481   2.459   1.564  0.3360  0.0862  0.1495
55937SOL    HW177741   7.521   2.546   1.565  1.3275 -0.3633  0.6459
55937SOL    HW277742   7.437   2.452   1.649  0.2226  0.1180  0.0934
55938SOL     OW77743   3.780   6.754   5.938 -0.4417  0.3561 -0.3051
55938SOL    HW177744   3.692   6.721   5.919 -0.3523  0.0430 -0.1846
55938SOL    HW277745   3.837   6.679   5.923 -0.2458  0.4264  0.0794
55939SOL     OW77746   8.893   6.826  11.964  0.0702  0.2596 -0.1467
55939SOL    HW177747   8.886   6.805  12.057 -0.4565 -0.5508 -0.3629
55939SOL    HW277748   8.815   6.878  11.945 -0.0789  0.0039 -0.2420
55940SOL     OW77749   0.663   4.284   5.569  0.0428 -0.3164 -0.5761
55940SOL    HW177750   0.701   4.316   5.650 -0.2063 -0.0303 -0.5734
55940SOL    HW277751   0.688   4.349   5.503  0.3910 -0.6351 -0.7638
55941SOL     OW77752   1.314   9.052   5.184 -0.0681 -0.3060 -0.2163
55941SOL    HW177753   1.290   9.052   5.091 -0.0619  2.3816 -0.2843
55941SOL    HW277754   1.230   9.060   5.229  0.1169  1.9608 -0.1804
55942SOL     OW77755   2.404  13.046   5.237  0.1374 -0.0115  0.1109
55942SOL    HW177756   2.484  13.007   5.273 -0.1201 -0.1980  0.4950
55942SOL    HW277757   2.404  13.136   5.270 -0.7363 -0.5415  1.6752
55943SOL     OW77758   2.094   2.350  10.264 -0.5606  0.1262  0.7531
55943SOL    HW177759   2.023   2.401  10.304 -1.1177 -0.7724  0.9443
55943SOL    HW277760   2.069   2.343  10.172 -1.6795 -1.6823  1.1401
55944SOL     OW77761   1.246   1.765  10.240  0.7776  0.6204  0.7751
55944SOL    HW177762   1.211   1.753  10.329  1.0528  0.2935  0.8408
55944SOL    HW277763   1.334   1.728  10.244  0.7600  0.5297  0.3426
55945SOL     OW77764   3.992   6.398   1.389 -0.0071 -0.0772  0.2108
55945SOL    HW177765   3.996   6.304   1.404  0.8383  0.0575  0.9345
55945SOL    HW277766   3.971   6.435   1.475 -0.2800  0.3974 -0.0555
55946SOL     OW77767   1.103  10.038   2.444  0.0903  0.2031 -0.3698
55946SOL    HW177768   1.052   9.972   2.397 -0.8879  1.5948 -1.3469
55946SOL    HW277769   1.045  10.067   2.514  0.4608  0.1443 -0.0371
55947SOL     OW77770   1.133  10.857  11.164  0.6826  0.5292  0.5341
55947SOL    HW177771   1.061  10.906  11.124 -1.0964 -1.3705  1.2298
55947SOL    HW277772   1.170  10.918  11.228 -0.0203  1.6872 -0.1082
55948SOL     OW77773  10.177   1.808  11.789 -0.2290  0.2708  0.2992
55948SOL    HW177774  10.174   1.846  11.701  0.8577 -1.5013 -0.5746
55948SOL    HW277775  10.138   1.874  11.846 -2.8082  0.6957 -1.7858
55949SOL     OW77776   5.417   8.078   3.930 -0.1232  0.6038  0.5536
55949SOL    HW177777   5.450   8.006   3.984 -0.0329  0.0861 -0.1721
55949SOL    HW277778   5.384   8.035   3.851  1.4107  1.4539 -0.6176
55950SOL     OW77779  11.995   3.562   3.395  0.4698 -0.6434 -0.2251
55950SOL    HW177780  12.033   3.649   3.385  1.2443 -1.1142 -1.5990
55950SOL    HW277781  11.942   3.549   3.316  0.0300 -1.2650  0.1595
55951SOL     OW77782   8.345   0.471   7.806  0.0088 -0.4032 -0.2653
55951SOL    HW177783   8.366   0.442   7.717  0.8970  1.9444 -0.9194
55951SOL    HW277784   8.321   0.563   7.795 -0.2179 -0.1694  1.8929
55952SOL     OW77785   9.655   3.447   4.705  0.1604  0.2657 -0.0511
55952SOL    HW177786   9.650   3.533   4.664  0.7643 -0.3518 -1.4878
55952SOL    HW277787   9.583   3.398   4.666  1.2828 -0.6101 -1.1181
55953SOL     OW77788   0.704   1.494  11.987  0.0496  0.3748 -0.3995
55953SOL    HW177789   0.610   1.512  11.979 -0.0153 -0.1181 -0.8166
55953SOL    HW277790   0.708   1.424  12.053 -0.0279 -0.7778 -1.5685
55954SOL     OW77791   2.721   7.216   8.367  0.3766  0.3689  0.2658
55954SOL    HW177792   2.640   7.241   8.322  0.6537 -0.0710 -0.4897
55954SOL    HW277793   2.754   7.142   8.317  0.4942 -0.3855  1.4372
55955SOL     OW77794  11.864   9.017   0.731  0.1313  0.0704 -0.2505
55955SOL    HW177795  11.956   9.008   0.754  0.0576  0.1494  0.0862
55955SOL    HW277796  11.842   8.935   0.688 -0.1338 -0.7686  1.3945
55956SOL     OW77797   5.301   9.290  13.233  1.0170 -0.1402 -0.2671
55956SOL    HW177798   5.373   9.341  13.270  1.3381 -1.0636  0.4049
55956SOL    HW277799   5.222   9.330  13.269  1.1996  0.6100 -0.6699
55957SOL     OW77800  10.293  12.203   7.457 -0.2168  0.0009  0.5572
55957SOL    HW177801  10.357  12.212   7.528  0.4569 -1.0151  0.1037
55957SOL    HW277802  10.230  12.273   7.472  1.3688  1.4610  0.6323
55958SOL     OW77803   7.067   0.558   3.135 -0.2647  0.2796  0.1108
55958SOL    HW177804   7.137   0.497   3.160  0.1469  0.7446  0.1186
55958SOL    HW277805   7.062   0.619   3.209 -0.9667  0.0140  0.2971
55959SOL     OW77806   8.496   6.339   2.035 -0.2631  0.1526 -0.2397
55959SOL    HW177807   8.580   6.312   2.073  0.3800  3.1202  0.7822
55959SOL    HW277808   8.434   6.332   2.107 -0.4788 -0.2348 -0.4613
55960SOL     OW77809   4.049   3.939   4.153  0.1670 -0.0483 -0.4319
55960SOL    HW177810   4.128   3.907   4.110  1.0619 -1.1206  1.8443
55960SOL    HW277811   4.010   3.861   4.192 -0.6603  0.8209  0.5383
55961SOL     OW77812   3.536  10.074   6.180  0.6503 -0.0196  0.9859
55961SOL    HW177813   3.536  10.170   6.186 -0.5071  0.2138 -1.3398
55961SOL    HW277814   3.505  10.056   6.091  1.4287 -2.5620  1.1463
55962SOL     OW77815   6.376   8.144  11.884 -0.0860 -0.0521  0.3606
55962SOL    HW177816   6.341   8.153  11.795  0.5094 -0.6125  0.0642
55962SOL    HW277817   6.390   8.234  11.913  2.6643  0.1710 -1.3061
55963SOL     OW77818   4.258   4.839  11.695 -0.4169 -0.1872 -0.3923
55963SOL    HW177819   4.343   4.868  11.661 -1.5622  1.3226 -2.1370
55963SOL    HW277820   4.207   4.817  11.617 -2.2472  0.7503  0.4806
55964SOL     OW77821   1.920   6.208   6.317 -0.3184  0.3193  0.1319
55964SOL    HW177822   1.898   6.118   6.294  0.2555  0.4371 -0.9045
55964SOL    HW277823   1.896   6.215   6.410  1.1821 -1.3993  0.7053
55965SOL     OW77824   3.752   1.121   5.422 -0.5108  0.2938 -0.7030
55965SOL    HW177825   3.687   1.130   5.353  0.5457 -0.0856 -1.7820
55965SOL    HW277826   3.712   1.062   5.486 -1.7247  1.1132 -0.6827
55966SOL     OW77827   3.875  10.838   4.970  0.2484 -0.0448  0.2972
55966SOL    HW177828   3.839  10.857   5.057  0.5308 -0.4007  0.4941
55966SOL    HW277829   3.798  10.830   4.914  0.0973  1.0606  0.3277
55967SOL     OW77830   9.790   9.604   2.313  0.4192  0.2641 -0.1982
55967SOL    HW177831   9.872   9.605   2.263  0.6567 -2.0797  0.0048
55967SOL    HW277832   9.723   9.581   2.249  0.2688  0.0630  0.0290
55968SOL     OW77833   7.382   0.906   1.234  0.5346 -0.0894 -0.3749
55968SOL    HW177834   7.422   0.980   1.279  0.0017 -0.2735  0.4220
55968SOL    HW277835   7.304   0.943   1.191 -0.0927 -0.2927  0.5561
55969SOL     OW77836   2.925   4.692   6.735  0.1506 -0.5214  1.1770
55969SOL    HW177837   2.993   4.759   6.730 -0.3917  0.0301  1.0565
55969SOL    HW277838   2.958   4.620   6.681  0.2475  0.0945  0.3968
55970SOL     OW77839   3.017   7.330   9.231 -0.1573 -0.0039 -0.5636
55970SOL    HW177840   3.091   7.371   9.185  0.1212 -1.0094 -1.0352
55970SOL    HW277841   2.991   7.258   9.174 -0.9355 -0.2008  0.0316
55971SOL     OW77842   6.909   6.133   3.781 -0.3466  0.2268 -0.2914
55971SOL    HW177843   6.897   6.039   3.771  1.4586  0.0211 -0.8940
55971SOL    HW277844   6.933   6.144   3.873 -0.6984  0.1319 -0.1847
55972SOL     OW77845   9.528   1.627   0.386 -0.5271 -0.2033 -0.2988
55972SOL    HW177846   9.449   1.678   0.403  0.0818  0.6886 -0.0509
55972SOL    HW277847   9.597   1.676   0.431  0.4497 -0.0534 -1.8808
55973SOL     OW77848   3.795   4.189   7.101 -0.0370  0.2976 -0.2614
55973SOL    HW177849   3.842   4.220   7.179 -0.4524  0.0823  0.0797
55973SOL    HW277850   3.802   4.261   7.039 -1.6664  1.4455  0.7917
55974SOL     OW77851  12.441  12.616   9.889 -0.0051 -0.1845  0.4371
55974SOL    HW177852  12.497  12.605   9.966 -0.6732  1.1766  1.1643
55974SOL    HW277853  12.485  12.567   9.820  2.4678  1.3459  0.7812
55975SOL     OW77854  13.071   0.970   3.630  0.4268 -0.0610 -0.5944
55975SOL    HW177855  13.022   0.895   3.596 -1.0028  1.4391 -1.9869
55975SOL    HW277856  13.142   0.931   3.680 -0.7048 -2.3371 -0.6466
55976SOL     OW77857   2.854   8.122   2.363  0.1527 -0.2407 -0.6159
55976SOL    HW177858   2.820   8.032   2.364 -1.3524  0.3009 -0.3994
55976SOL    HW277859   2.801   8.168   2.428  0.6174  0.9148 -1.0317
55977SOL     OW77860   5.507   6.472  11.942  0.4502 -0.7387 -0.0781
55977SOL    HW177861   5.418   6.475  11.977  0.8663  0.6494  0.9655
55977SOL    HW277862   5.511   6.544  11.880  1.6137  1.1042  1.9892
55978SOL     OW77863  10.565   5.164   7.126  0.1967  0.0875  0.4197
55978SOL    HW177864  10.579   5.101   7.197 -1.2594 -0.4175  0.2972
55978SOL    HW277865  10.653   5.191   7.099  0.8701 -1.8684  0.5138
55979SOL     OW77866   2.111   0.212   4.209  0.1335 -0.5444 -0.6525
55979SOL    HW177867   2.179   0.170   4.156  1.8568 -1.1268  1.7929
55979SOL    HW277868   2.060   0.139   4.245  1.8681 -0.6050  1.9952
55980SOL     OW77869   4.884   5.787   0.382  0.0419 -0.3347 -0.0757
55980SOL    HW177870   4.864   5.772   0.290 -0.4748 -0.6836  0.0882
55980SOL    HW277871   4.832   5.864   0.405  0.4445 -0.0310 -0.1607
55981SOL     OW77872   3.590   8.204   7.430 -0.3670  0.0233 -0.7538
55981SOL    HW177873   3.504   8.218   7.471  0.4912 -1.3227  1.6805
55981SOL    HW277874   3.618   8.292   7.403 -2.0294  0.6306 -0.6397
55982SOL     OW77875   0.169   9.960   2.074  0.2354 -0.0144  0.0326
55982SOL    HW177876   0.105  10.009   2.022  1.2794  1.0065 -0.3466
55982SOL    HW277877   0.144   9.868   2.063 -0.9553  0.3423 -0.3692
55983SOL     OW77878   3.206   9.611  10.503 -0.2997 -0.3718 -0.2279
55983SOL    HW177879   3.301   9.601  10.494 -0.2613 -1.7499  1.2127
55983SOL    HW277880   3.170   9.527  10.475 -0.9183 -0.6186  1.2104
55984SOL     OW77881   2.647   6.400   5.070 -0.0129  0.3968  0.5641
55984SOL    HW177882   2.732   6.358   5.083 -0.9161 -1.8790 -0.3748
55984SOL    HW277883   2.668   6.492   5.052  2.4826 -0.5426 -2.1677
55985SOL     OW77884   6.735   7.987   0.886 -0.5385 -0.0860 -0.3906
55985SOL    HW177885   6.670   7.941   0.938 -0.9552  0.2483 -0.6136
55985SOL    HW277886   6.805   7.923   0.873 -0.7616 -0.4036 -0.0409
55986SOL     OW77887   6.194   8.969   6.145 -0.4268 -0.6822 -0.1408
55986SOL    HW177888   6.261   8.983   6.211 -0.1537  0.5844 -0.6701
55986SOL    HW277889   6.158   8.882   6.165  2.0326 -1.8466 -0.4379
55987SOL     OW77890   2.344   5.410   9.223 -0.2973  0.2073  0.3441
55987SOL    HW177891   2.286   5.435   9.295  0.3475 -0.1436  1.0041
55987SOL    HW277892   2.424   5.379   9.267  0.6843  1.3984 -0.5561
55988SOL     OW77893  12.719   6.266   5.239 -0.1867 -0.4989  0.2236
55988SOL    HW177894  12.710   6.359   5.259 -2.1622 -0.2324 -1.4968
55988SOL    HW277895  12.770   6.264   5.158 -1.4415 -0.7553 -0.5914
55989SOL     OW77896  13.042  12.796   9.723 -0.2409  0.4307 -0.0097
55989SOL    HW177897  13.084  12.794   9.637 -3.1430  1.7311 -1.6365
55989SOL    HW277898  12.958  12.753   9.709 -0.4764 -0.0147  2.4130
55990SOL     OW77899   0.918   4.641   5.097 -0.5671 -0.0213  0.0455
55990SOL    HW177900   0.848   4.643   5.162 -0.9227 -2.0637 -0.2230
55990SOL    HW277901   0.992   4.600   5.142 -0.8224 -1.4823 -0.7829
55991SOL     OW77902  12.444   2.306   2.706  0.2749 -0.0968 -0.3123
55991SOL    HW177903  12.528   2.327   2.746 -0.5979  0.6325  1.2005
55991SOL    HW277904  12.409   2.234   2.759  0.0761 -0.6538 -1.1571
55992SOL     OW77905   7.446   4.040   8.082 -0.1403  0.4675  0.3288
55992SOL    HW177906   7.533   4.078   8.097  1.2459 -2.8983  1.8824
55992SOL    HW277907   7.428   4.058   7.989  1.8309  1.8874  0.1475
55993SOL     OW77908   0.243   8.251  11.630  0.0868  0.4439 -0.2832
55993SOL    HW177909   0.317   8.302  11.597  0.3076  0.0218 -0.4499
55993SOL    HW277910   0.264   8.234  11.722 -0.4901  1.5522  0.0667
55994SOL     OW77911   6.295  11.370   6.314  0.4157  0.6294 -0.0075
55994SOL    HW177912   6.240  11.375   6.236 -0.4880  1.2840  0.6427
55994SOL    HW277913   6.273  11.449   6.364 -0.5253 -0.7236  1.8426
55995SOL     OW77914  13.021   2.658   2.967  0.3678  0.4770  0.4839
55995SOL    HW177915  13.042   2.718   3.038  1.2854  1.1773 -0.3474
55995SOL    HW277916  13.099   2.659   2.911  1.0647 -2.6659  1.2096
55996SOL     OW77917   7.326  10.375  12.819 -0.1898  0.1573  0.5547
55996SOL    HW177918   7.291  10.372  12.908 -1.5601  0.3559  0.0506
55996SOL    HW277919   7.421  10.378  12.830 -0.3524  0.5854  2.0115
55997SOL     OW77920   1.820   0.953   5.506  0.1036 -0.2453 -0.4873
55997SOL    HW177921   1.727   0.931   5.506  0.3035 -1.1310 -0.8605
55997SOL    HW277922   1.826   1.033   5.558 -1.1259  0.9248 -2.0524
55998SOL     OW77923   2.713   2.634   6.245 -0.2949  0.0915  0.2687
55998SOL    HW177924   2.772   2.685   6.189 -0.5911 -0.7402 -0.8324
55998SOL    HW277925   2.653   2.700   6.282  0.4636  0.7640  0.3273
55999SOL     OW77926   2.326   1.427  13.050  0.0672 -0.0348 -0.2100
55999SOL    HW177927   2.305   1.358  12.987 -0.7681 -0.5639  0.6324
55999SOL    HW277928   2.402   1.394  13.098 -0.2307 -0.2996  0.0818
56000SOL     OW77929  12.444   5.759   2.117 -0.3985 -0.1155  0.0049
56000SOL    HW177930  12.535   5.731   2.123 -0.7372 -0.9346  2.4982
56000SOL    HW277931  12.393   5.681   2.140 -1.8074  0.1147 -2.0613
56001SOL     OW77932   6.038  11.223  11.628  0.3027 -1.0685  0.3177
56001SOL    HW177933   6.112  11.279  11.650  0.0912 -0.3390 -0.7274
56001SOL    HW277934   6.075  11.155  11.572 -0.2730  1.5265 -3.6953
56002SOL     OW77935   0.429   0.609   7.934 -0.2960  0.1083  0.3435
56002SOL    HW177936   0.478   0.686   7.962  0.2824 -0.0741 -0.1412
56002SOL    HW277937   0.427   0.552   8.010  1.6659 -0.5910 -0.0835
56003SOL     OW77938   5.319   0.521  12.965 -0.2088 -0.3229  0.2409
56003SOL    HW177939   5.244   0.581  12.967  0.5713  0.6428  0.8984
56003SOL    HW277940   5.350   0.518  13.056  0.2904 -1.0674  0.0582
56004SOL     OW77941   3.665  12.532   6.643  0.2484 -0.1024  0.3505
56004SOL    HW177942   3.615  12.572   6.714  0.6037 -0.8126  1.0213
56004SOL    HW277943   3.754  12.524   6.678  1.0357  1.6739 -1.0187
56005SOL     OW77944   1.531   5.127   6.317 -0.3616  0.0713 -0.0035
56005SOL    HW177945   1.580   5.176   6.251 -2.5731  0.1308 -1.7344
56005SOL    HW277946   1.509   5.192   6.384 -0.4529  0.6686 -0.6058
56006SOL     OW77947   4.413   4.063   0.840  0.3681  0.4491  0.1296
56006SOL    HW177948   4.461   3.991   0.799  1.3990  0.8539  0.5857
56006SOL    HW277949   4.344   4.084   0.778  0.5101 -0.4445 -0.3527
56007SOL     OW77950   4.410   3.686  11.753  0.4332 -0.2975 -0.0622
56007SOL    HW177951   4.449   3.686  11.840  1.0400 -2.6548 -0.2654
56007SOL    HW277952   4.315   3.687  11.769  0.5294 -1.2134  0.6803
56008SOL     OW77953   3.262  11.549  12.738 -0.3118 -0.3469  0.2547
56008SOL    HW177954   3.172  11.553  12.707  0.5774 -0.4319 -2.7053
56008SOL    HW277955   3.289  11.459  12.722  0.2063 -0.4385  1.5162
56009SOL     OW77956  12.265   5.390   4.509  0.5395  0.4985  0.3668
56009SOL    HW177957  12.203   5.394   4.436  0.2767 -1.8658  0.3747
56009SOL    HW277958  12.344   5.433   4.476 -0.1341  0.9787 -0.6821
56010SOL     OW77959   5.110   9.238   5.308 -0.2507  0.1550 -0.3134
56010SOL    HW177960   5.021   9.257   5.339  0.6592  1.9443  1.4108
56010SOL    HW277961   5.149   9.324   5.296  0.8152 -0.5768 -2.5134
56011SOL     OW77962   5.597   6.244   7.993  0.3362 -0.1195  0.2019
56011SOL    HW177963   5.675   6.200   8.026  0.6583 -0.9819 -1.5840
56011SOL    HW277964   5.578   6.200   7.910  0.4391  2.8256 -1.5236
56012SOL     OW77965   7.518   9.975  12.275  0.4170 -0.8435  0.7511
56012SOL    HW177966   7.565  10.040  12.327 -0.3776 -1.7895  2.7435
56012SOL    HW277967   7.480  10.025  12.203 -0.7679  1.0816  2.5990
56013SOL     OW77968   5.224   0.592  12.625 -0.8100 -0.3361 -0.0845
56013SOL    HW177969   5.207   0.550  12.709 -0.9343 -0.1431 -0.0144
56013SOL    HW277970   5.290   0.659  12.644 -2.1965  0.9871  0.2253
56014SOL     OW77971   5.778   6.773  10.658 -0.4409 -0.0456 -0.1930
56014SOL    HW177972   5.806   6.862  10.679 -2.2592  0.7877 -1.0559
56014SOL    HW277973   5.855   6.733  10.618  0.4351  1.1137  0.2673
56015SOL     OW77974   0.036  12.632   4.073  0.0229  0.0159 -0.0106
56015SOL    HW177975   0.073  12.719   4.056  0.3078 -0.1686 -0.3380
56015SOL    HW277976  -0.046  12.631   4.024 -1.4124  1.1139  2.1758
56016SOL     OW77977   9.296   6.293  10.691  0.3881 -0.2576 -0.0000
56016SOL    HW177978   9.228   6.357  10.712  2.0209  1.7447 -0.5420
56016SOL    HW277979   9.284   6.224  10.756 -1.9146  0.1730  0.1262
56017SOL     OW77980   6.811  12.649  12.234 -0.2468 -0.1886  1.0841
56017SOL    HW177981   6.877  12.588  12.204  0.6316  1.5829 -0.7985
56017SOL    HW277982   6.841  12.677  12.321  0.1450 -1.2125  1.2918
56018SOL     OW77983   5.677   2.732   5.007  0.0524  0.4334  0.2545
56018SOL    HW177984   5.681   2.638   5.024  1.2671  0.4032 -0.0513
56018SOL    HW277985   5.585   2.755   5.016 -0.2293 -0.7490  0.5297
56019SOL     OW77986   0.077   4.282  10.157 -0.5185  0.5322  0.3934
56019SOL    HW177987   0.154   4.329  10.125 -0.1634 -0.2750  0.0108
56019SOL    HW277988   0.102   4.254  10.245 -0.8143  1.2341  0.7062
56020SOL     OW77989   3.330   7.528   9.391  0.0762 -0.0653  0.8144
56020SOL    HW177990   3.270   7.572   9.452 -0.0833 -0.6445  1.0799
56020SOL    HW277991   3.413   7.523   9.438  0.3525  0.7930  0.4227
56021SOL     OW77992   1.321   5.444  12.469  0.1461  0.0816 -0.1128
56021SOL    HW177993   1.249   5.472  12.412 -1.0837 -1.9961  0.3316
56021SOL    HW277994   1.278   5.409  12.547  1.6690 -0.7181  0.4018
56022SOL     OW77995   1.048  10.022   7.992 -0.0177  0.2648  0.6745
56022SOL    HW177996   0.984  10.005   7.923 -0.9125  0.0184  1.5596
56022SOL    HW277997   1.039  10.116   8.011  1.5909  0.8116 -0.8542
56023SOL     OW77998   0.042   7.391   3.697 -0.1542 -0.1641  0.2106
56023SOL    HW177999   0.015   7.386   3.605  0.6401  1.1015 -0.1230
56023SOL    HW278000   0.052   7.485   3.713  0.6906 -0.4315  1.3048
56024SOL     OW78001   4.716   0.729   0.411 -0.2756  0.1170  0.3697
56024SOL    HW178002   4.798   0.693   0.378 -0.1184 -1.6538  2.4969
56024SOL    HW278003   4.655   0.722   0.337  1.2725  0.8258 -1.0207
56025SOL     OW78004   8.619  10.306   9.956 -0.0969  0.3373  0.6426
56025SOL    HW178005   8.683  10.360  10.001 -0.1117  0.2301  0.7923
56025SOL    HW278006   8.535  10.334   9.991 -0.1495  0.6158  0.3016
56026SOL     OW78007   9.718   6.455  11.735  0.1109  0.3677  0.0231
56026SOL    HW178008   9.744   6.528  11.678  0.8971  0.8047  0.9156
56026SOL    HW278009   9.653   6.406  11.683  1.5830  0.1219 -1.6927
56027SOL     OW78010   0.957   4.525  12.444 -0.0175 -0.0068 -0.1792
56027SOL    HW178011   0.874   4.523  12.492  0.4037 -0.6607  0.5545
56027SOL    HW278012   0.942   4.586  12.372 -1.7475 -1.5490 -1.2029
56028SOL     OW78013   8.486  10.210  12.804  0.0705 -0.0019 -0.0217
56028SOL    HW178014   8.467  10.296  12.769  1.4358  0.6619  0.7952
56028SOL    HW278015   8.545  10.170  12.740  0.8324  0.3599  0.4521
56029SOL     OW78016   5.644   6.873   2.058 -0.2869  0.0706  0.4392
56029SOL    HW178017   5.721   6.900   2.008  0.5628 -1.4747  0.8404
56029SOL    HW278018   5.579   6.850   1.992 -0.1577  0.7264  0.0834
56030SOL     OW78019  10.729   9.591   6.557  0.1307  0.5814 -0.5115
56030SOL    HW178020  10.724   9.654   6.628  2.5174  1.1755 -0.7806
56030SOL    HW278021  10.707   9.641   6.479 -2.4048 -0.0505 -0.2642
56031SOL     OW78022  12.804   5.547   5.285  0.6656 -0.0199 -0.4848
56031SOL    HW178023  12.801   5.640   5.308 -0.5797 -0.4399  1.2174
56031SOL    HW278024  12.886   5.516   5.325  0.5161  0.1128 -0.0657
56032SOL     OW78025   4.753   5.127   5.555 -0.0466 -0.9472 -0.2615
56032SOL    HW178026   4.693   5.108   5.628  2.0237 -2.5171  1.1332
56032SOL    HW278027   4.838   5.141   5.597  1.4263 -2.8643 -2.3923
56033SOL     OW78028   1.583   2.771   2.289  0.1467 -0.6456  0.9300
56033SOL    HW178029   1.496   2.808   2.301 -0.2108 -1.9663  2.8071
56033SOL    HW278030   1.608   2.738   2.376  1.5942 -2.2751 -0.0280
56034SOL     OW78031   5.604  10.799   6.591  0.0911  0.2596  0.1220
56034SOL    HW178032   5.535  10.801   6.525  0.1548  2.6105  0.0482
56034SOL    HW278033   5.559  10.778   6.673 -0.4110  0.0444 -0.2050
56035SOL     OW78034   6.103   0.389   0.810  0.4286  0.0011 -0.1588
56035SOL    HW178035   6.015   0.355   0.796 -0.0590  1.5744 -1.1299
56035SOL    HW278036   6.105   0.415   0.902 -0.2631  0.3438 -0.2367
56036SOL     OW78037   4.953   8.341   2.701  0.5139  0.5198  0.1018
56036SOL    HW178038   4.974   8.326   2.609 -0.7710  0.8004 -0.2638
56036SOL    HW278039   5.038   8.347   2.744  1.1703 -2.0182 -0.6417
56037SOL     OW78040   2.413   2.399  12.548 -0.1038  0.4525 -0.5389
56037SOL    HW178041   2.483   2.461  12.570 -0.2597  0.8791 -1.2115
56037SOL    HW278042   2.366   2.441  12.476 -0.8880  0.0480 -0.2806
56038SOL     OW78043   3.769   8.416   7.365 -0.6641 -0.4646  0.1621
56038SOL    HW178044   3.794   8.508   7.358  0.8439 -0.9605 -2.7241
56038SOL    HW278045   3.822   8.382   7.437  1.7208  0.1594 -1.1921
56039SOL     OW78046   3.926   8.466  11.332 -0.5199 -0.5936 -0.2353
56039SOL    HW178047   3.855   8.412  11.298 -1.2710 -0.4663  1.0771
56039SOL    HW278048   3.915   8.463  11.427  1.9363 -1.5212  0.0805
56040SOL     OW78049   2.365  10.004   6.675  0.0075  0.0172 -0.1043
56040SOL    HW178050   2.427   9.971   6.610 -0.9798 -2.1073 -0.0448
56040SOL    HW278051   2.287  10.026   6.624  0.1432  0.8911  0.0541
56041SOL     OW78052   4.613   2.643   2.058 -0.3154  0.1726 -0.5107
56041SOL    HW178053   4.684   2.680   2.110  1.4800 -1.6368 -1.5596
56041SOL    HW278054   4.612   2.694   1.978 -0.1130  0.1141 -0.5499
56042SOL     OW78055  11.331  13.187   3.744 -0.0210  0.0461  0.1639
56042SOL    HW178056  11.346  13.272   3.703  1.5372  1.2101  2.8637
56042SOL    HW278057  11.362  13.123   3.681  1.1107  1.6302 -0.9486
56043SOL     OW78058  11.251   1.810   3.807 -0.0554  0.3962 -0.0561
56043SOL    HW178059  11.335   1.807   3.853  0.7892  0.8555 -1.5089
56043SOL    HW278060  11.201   1.736   3.842  2.2991 -2.1139 -1.6349
56044SOL     OW78061   7.862  10.105   7.513  0.4029 -0.2109  0.0469
56044SOL    HW178062   7.815  10.051   7.577  0.7398  0.4291  0.8516
56044SOL    HW278063   7.926  10.045   7.475  0.4076 -0.5314  0.5371
56045SOL     OW78064   2.620  11.123   8.439  0.2905 -0.1441  0.1601
56045SOL    HW178065   2.685  11.186   8.470  1.4677 -1.4113  0.4067
56045SOL    HW278066   2.634  11.046   8.495 -1.6618 -0.3557  0.4237
56046SOL     OW78067   2.269   9.901   9.845 -0.2683 -0.3688 -0.5665
56046SOL    HW178068   2.327   9.840   9.890  0.5765 -0.7154 -2.0571
56046SOL    HW278069   2.220   9.944   9.915  0.8699 -1.0010  0.6592
56047SOL     OW78070   5.763   0.012  11.133 -0.2026 -1.0844 -0.2904
56047SOL    HW178071   5.788  -0.070  11.176  0.4814 -0.4919  0.4762
56047SOL    HW278072   5.843   0.065  11.135 -1.3503  0.7451  1.9449
56048SOL     OW78073   0.324   8.404   3.754  0.0260  0.0128  0.0040
56048SOL    HW178074   0.419   8.391   3.754 -0.0588 -0.6862 -0.5727
56048SOL    HW278075   0.288   8.315   3.754 -0.6273  0.2710  0.0801
56049SOL     OW78076   8.354   6.572   8.255 -0.3707  0.2760  0.1843
56049SOL    HW178077   8.410   6.497   8.234 -0.1556  0.2924  0.6803
56049SOL    HW278078   8.276   6.559   8.201  0.6371  0.9474 -1.5190
56050SOL     OW78079  11.419   2.202   5.258 -0.1210  0.1204  0.2689
56050SOL    HW178080  11.418   2.180   5.351 -1.9376  2.0689  0.7963
56050SOL    HW278081  11.388   2.123   5.215 -2.2001  0.0960  1.6563
56051SOL     OW78082   3.085  12.656   7.814 -0.2979 -0.0259 -0.0288
56051SOL    HW178083   3.072  12.615   7.899 -1.9482 -0.5085 -0.4815
56051SOL    HW278084   3.046  12.743   7.823 -0.4761 -0.0778 -0.2764
56052SOL     OW78085   5.635   0.712   5.669  0.2352  0.0078  0.0566
56052SOL    HW178086   5.603   0.716   5.579 -1.0392  0.5651  0.5092
56052SOL    HW278087   5.722   0.672   5.662  0.4817  0.7322 -1.4975
56053SOL     OW78088  11.853  13.279   6.345  0.1281 -0.1810 -0.0688
56053SOL    HW178089  11.892  13.192   6.339  3.1564  0.9709  0.7240
56053SOL    HW278090  11.843  13.308   6.255  3.2205  0.1973 -0.4029
56054SOL     OW78091   5.714   5.682  10.934 -0.2786  0.5208  0.2724
56054SOL    HW178092   5.718   5.706  11.026  0.6237  1.3237  0.0360
56054SOL    HW278093   5.739   5.589  10.932 -0.1457  0.5445  0.8166
56055SOL     OW78094   1.024   7.385   5.694 -0.3581  0.2075  0.6609
56055SOL    HW178095   1.093   7.450   5.704 -0.8376  0.5394  2.1010
56055SOL    HW278096   1.007   7.382   5.600  1.7593 -0.0619  0.2388
56056SOL     OW78097  11.363   3.082  11.966 -0.5511 -0.2619 -0.2174
56056SOL    HW178098  11.285   3.090  12.021 -0.1889  1.9446  0.0808
56056SOL    HW278099  11.329   3.065  11.878 -1.3183 -0.1970  0.0594
56057SOL     OW78100   0.014   7.747   3.715 -0.2866  0.0554  0.2439
56057SOL    HW178101  -0.009   7.839   3.706  0.5028  0.1261 -1.4417
56057SOL    HW278102   0.084   7.746   3.781  1.0315  0.9262 -1.0880
56058SOL     OW78103   2.340   9.701   0.525  0.0954  0.2175 -0.5263
56058SOL    HW178104   2.378   9.655   0.600 -1.2255 -0.2118 -0.0860
56058SOL    HW278105   2.414   9.716   0.466  1.0396 -0.0346  0.5549
56059SOL     OW78106   4.791  12.753   8.581 -0.1145 -0.2112  0.4364
56059SOL    HW178107   4.834  12.800   8.653  0.7516 -0.2423 -0.0433
56059SOL    HW278108   4.753  12.676   8.622  1.1095 -0.6728  0.7399
56060SOL     OW78109   4.158   7.898   1.672 -0.3969  0.6934 -0.6383
56060SOL    HW178110   4.179   7.963   1.739  0.1946  1.3383 -1.4259
56060SOL    HW278111   4.075   7.928   1.635 -1.5507 -0.5068  0.8010
56061SOL     OW78112   3.368   9.877   0.711 -0.1925 -0.3608 -0.3022
56061SOL    HW178113   3.315   9.814   0.760  0.0538  0.2442  0.7833
56061SOL    HW278114   3.448   9.886   0.763  0.3764 -0.2051 -1.1847
56062SOL     OW78115   3.011   1.396   1.929  0.6404  0.2917  0.4288
56062SOL    HW178116   3.006   1.333   2.001 -1.3280 -1.0783 -0.8144
56062SOL    HW278117   3.054   1.348   1.858  0.8739  1.0025  0.0839
56063SOL     OW78118   3.030   1.302   6.145  0.3822  0.2639 -0.3765
56063SOL    HW178119   2.950   1.318   6.095 -1.2140  1.2344  2.2401
56063SOL    HW278120   3.013   1.221   6.193  0.6778  0.7682  0.6264
56064SOL     OW78121   1.990   1.159   8.357 -0.4003  0.0253 -0.3580
56064SOL    HW178122   2.033   1.121   8.434 -0.8330  1.7891  0.8303
56064SOL    HW278123   2.062   1.196   8.305 -0.2623  1.1738  0.5959
56065SOL     OW78124   2.258   8.905  11.857 -0.4007  0.2571 -0.0025
56065SOL    HW178125   2.168   8.873  11.854 -0.3569  0.2342 -2.0612
56065SOL    HW278126   2.311   8.825  11.861 -0.4481  0.2780  1.7196
56066SOL     OW78127  12.062   1.721   9.096 -0.3430 -0.0952  0.1154
56066SOL    HW178128  12.130   1.776   9.057 -1.3643  0.6218 -0.7033
56066SOL    HW278129  12.018   1.778   9.159 -1.3548  0.0365 -0.6806
56067SOL     OW78130   9.795  10.410   0.322  0.5755 -0.3120 -0.0400
56067SOL    HW178131   9.768  10.439   0.235 -2.1939  1.9212  1.3876
56067SOL    HW278132   9.858  10.477   0.351  1.2479 -0.8764 -0.1676
56068SOL     OW78133   0.932   4.267   5.365  0.0153  0.0489 -0.0355
56068SOL    HW178134   0.921   4.172   5.368  1.9096 -0.2117 -0.1923
56068SOL    HW278135   0.894   4.293   5.281  1.0203 -0.8174 -0.7789
56069SOL     OW78136   2.487   5.383   7.394  0.2086  0.2530  0.0376
56069SOL    HW178137   2.512   5.431   7.315  0.5557 -0.7755 -0.4904
56069SOL    HW278138   2.435   5.310   7.362 -0.7710  0.5587  0.8772
56070SOL     OW78139   8.172   1.463  12.379 -0.5071  0.5568 -0.3538
56070SOL    HW178140   8.126   1.442  12.298  1.7541  0.5070 -1.7408
56070SOL    HW278141   8.159   1.557  12.390 -0.3684  0.6806 -1.1466
56071SOL     OW78142  12.416   4.422   6.247  0.1879 -0.2465 -0.4464
56071SOL    HW178143  12.448   4.506   6.213  0.3166 -1.1879 -2.8399
56071SOL    HW278144  12.479   4.358   6.215  0.0226 -1.3118  1.2398
56072SOL     OW78145  12.521   0.887   2.597  0.2423  0.0914  0.1212
56072SOL    HW178146  12.545   0.809   2.547 -0.1594 -1.3700  2.1055
56072SOL    HW278147  12.595   0.903   2.655 -1.0478 -0.9256  2.1333
56073SOL     OW78148   2.922  12.076   7.275 -0.0102  0.0876 -0.4604
56073SOL    HW178149   2.951  12.070   7.366  0.2992 -1.0662 -0.6264
56073SOL    HW278150   2.941  12.167   7.250  0.0148  0.3820  0.5780
56074SOL     OW78151   2.167   6.375   0.133 -0.4933 -0.4206 -0.2227
56074SOL    HW178152   2.208   6.457   0.104 -0.8521 -0.2563 -0.2642
56074SOL    HW278153   2.241   6.316   0.149 -0.2957 -1.1008 -3.1341
56075SOL     OW78154   6.270   0.498   2.498  0.4447  0.0925  0.2543
56075SOL    HW178155   6.239   0.504   2.589  1.5036  3.8157  0.5400
56075SOL    HW278156   6.209   0.438   2.456 -2.4016  1.1394  2.5409
56076SOL     OW78157  12.664   9.548   7.179 -0.3109 -0.2007 -0.5649
56076SOL    HW178158  12.649   9.542   7.085 -1.3422 -1.6037 -0.3380
56076SOL    HW278159  12.675   9.458   7.207 -0.4908  0.1708  0.7442
56077SOL     OW78160   0.628   1.911   2.618 -0.4158  0.1239 -0.4134
56077SOL    HW178161   0.706   1.890   2.669 -1.2605 -2.1114  0.0367
56077SOL    HW278162   0.662   1.937   2.533  0.8165 -1.6603 -0.5084
56078SOL     OW78163   9.663   2.214   1.370  0.5100  0.3649  0.1433
56078SOL    HW178164   9.732   2.159   1.332 -0.0841 -0.0887 -0.3163
56078SOL    HW278165   9.629   2.162   1.443  0.9619  0.7896  0.6599
56079SOL     OW78166   6.345   8.982   4.783 -0.1182 -0.4563  0.0377
56079SOL    HW178167   6.337   9.059   4.727 -0.7440  0.6502  1.5655
56079SOL    HW278168   6.427   8.941   4.756 -0.8137 -0.4872 -2.2548
56080SOL     OW78169   6.934   6.348   4.657  0.3777  0.3111 -0.1253
56080SOL    HW178170   6.898   6.294   4.588 -0.3691  0.5445  0.0704
56080SOL    HW278171   6.991   6.290   4.707 -0.7709 -0.4425  0.3647
56081SOL     OW78172   3.914   4.921  12.008 -0.1288 -0.0097  0.0597
56081SOL    HW178173   3.884   4.842  12.054 -2.5833  1.9249  2.1727
56081SOL    HW278174   3.892   4.905  11.916  0.3994 -2.1571  0.2556
56082SOL     OW78175   9.358  11.976   6.582 -0.2610 -0.0719 -0.0532
56082SOL    HW178176   9.361  11.973   6.678  2.4511  0.9070 -0.0357
56082SOL    HW278177   9.315  12.060   6.562  1.0057  0.7092  0.3778
56083SOL     OW78178   8.932   8.652   2.272 -0.2049  0.6126 -0.1663
56083SOL    HW178179   8.883   8.688   2.198  0.6534  0.6200 -0.7534
56083SOL    HW278180   8.894   8.566   2.286  0.2263  0.2232 -1.2465
56084SOL     OW78181   8.974   9.085   7.386  0.0510  0.6611 -0.1466
56084SOL    HW178182   8.952   9.044   7.469  0.5362  3.0459  1.2510
56084SOL    HW278183   9.062   9.053   7.366  0.1189  0.4404  0.5021
56085SOL     OW78184   0.160  11.512   0.797 -0.2476 -0.2621  0.2247
56085SOL    HW178185   0.187  11.501   0.888 -2.0950  1.3293  1.0416
56085SOL    HW278186   0.067  11.534   0.803 -0.0512  1.4022 -1.9490
56086SOL     OW78187  11.234  12.413   1.509  0.1815  0.2703  0.2486
56086SOL    HW178188  11.189  12.378   1.585  1.4165  2.1388  1.9349
56086SOL    HW278189  11.181  12.487   1.481  1.0480  1.1705  0.9276
56087SOL     OW78190   1.645   1.968   4.200  0.4899 -0.2304  0.4195
56087SOL    HW178191   1.623   2.037   4.137  0.1326 -1.1113 -0.4426
56087SOL    HW278192   1.569   1.963   4.257  0.9261  0.7609  1.1122
56088SOL     OW78193   5.499   0.979   2.387  0.1330 -0.1607  0.3838
56088SOL    HW178194   5.416   0.938   2.411  0.9737 -1.3958  1.3668
56088SOL    HW278195   5.476   1.046   2.323 -1.3145 -2.3752 -1.5845
56089SOL     OW78196   2.787   0.548   9.883 -0.8010  0.3856  0.1643
56089SOL    HW178197   2.870   0.515   9.849 -1.3038 -1.0191  0.2199
56089SOL    HW278198   2.783   0.639   9.854 -0.5001 -0.3065 -2.2511
56090SOL     OW78199  11.231   6.079   5.544 -0.0619  0.4015 -0.3256
56090SOL    HW178200  11.317   6.061   5.582  0.3399 -1.2114 -1.8226
56090SOL    HW278201  11.189   6.139   5.605  2.4443  1.9094  0.0350
56091SOL     OW78202   5.631  12.764   6.924  0.2153  0.2849  0.4791
56091SOL    HW178203   5.664  12.785   7.011  0.5705 -0.5283  0.5505
56091SOL    HW278204   5.709  12.747   6.872 -0.0295 -1.7898  0.6858
56092SOL     OW78205   4.119  12.825   6.852  0.3295  0.3961  0.2742
56092SOL    HW178206   4.074  12.843   6.934  0.6922 -1.7185  0.9788
56092SOL    HW278207   4.197  12.880   6.855 -1.0310  2.4817  0.0028
56093SOL     OW78208   4.643   8.475   0.190 -0.0794  0.4126 -0.1788
56093SOL    HW178209   4.557   8.464   0.230  0.2232 -0.0352  0.3585
56093SOL    HW278210   4.705   8.453   0.259  0.5051  1.9735 -0.1566
56094SOL     OW78211  13.294   6.905   1.593  0.1846  0.2164  0.5964
56094SOL    HW178212  13.265   6.857   1.515  1.2596  2.7338 -1.5471
56094SOL    HW278213  13.387   6.922   1.578  0.3758  0.9529  2.3504
56095SOL     OW78214  12.411   4.450  12.486 -0.3128 -0.2191 -0.4758
56095SOL    HW178215  12.483   4.500  12.447 -0.5795  0.9479  0.4665
56095SOL    HW278216  12.341   4.514  12.498 -0.7068 -0.8341  0.6669
56096SOL     OW78217   0.201   8.267  11.174  0.3640  0.2887  0.4481
56096SOL    HW178218   0.167   8.355  11.190  0.0655  0.8128 -2.5273
56096SOL    HW278219   0.125   8.210  11.180  0.3002  0.4283  1.0001
56097SOL     OW78220   3.921   9.406   2.583 -0.4137 -0.1967 -0.6923
56097SOL    HW178221   3.983   9.433   2.514  0.4645  0.8832  0.4697
56097SOL    HW278222   3.930   9.311   2.587  1.2791 -0.0685 -0.5065
56098SOL     OW78223   4.146   3.678   3.845  0.2237 -0.2951 -0.1644
56098SOL    HW178224   4.177   3.726   3.921  0.0393 -1.2250  0.5092
56098SOL    HW278225   4.210   3.699   3.776  1.3055 -0.7097  0.6831
56099SOL     OW78226  11.597   7.938   2.380 -0.5974 -0.1727  0.4642
56099SOL    HW178227  11.571   7.864   2.325 -0.7407  0.9853 -1.1117
56099SOL    HW278228  11.514   7.978   2.407 -0.5373  0.7644 -0.6555
56100SOL     OW78229   3.937   3.517  12.041  0.5193  0.6155  0.6091
56100SOL    HW178230   3.901   3.604  12.023 -0.3809 -0.0767 -1.2330
56100SOL    HW278231   3.962   3.484  11.955 -3.4685 -2.7373  0.4248
56101SOL     OW78232  12.767  12.040   2.800  0.4750 -0.1824  0.4379
56101SOL    HW178233  12.819  12.047   2.720  0.3885  1.0090  0.4731
56101SOL    HW278234  12.828  12.059   2.871 -0.0742  1.7964  0.4473
56102SOL     OW78235  12.283  12.934   5.784 -0.1042  0.3397 -0.3356
56102SOL    HW178236  12.252  12.941   5.875 -0.6932  1.5360 -0.5949
56102SOL    HW278237  12.253  12.848   5.755  1.4894 -0.7483  1.0859
56103SOL     OW78238   5.049   4.930   7.701  0.0303  0.3510  0.0282
56103SOL    HW178239   4.965   4.943   7.746  0.1290 -0.5448  0.5111
56103SOL    HW278240   5.105   5.000   7.732 -1.0077  1.9504 -1.5360
56104SOL     OW78241   1.542  11.518  11.644 -0.1160 -0.1352 -0.4709
56104SOL    HW178242   1.604  11.548  11.577  1.5348 -2.6383 -0.2274
56104SOL    HW278243   1.565  11.425  11.658 -2.2102 -0.4474  1.5806
56105SOL     OW78244   8.283  12.037   4.965  0.6808  0.4303 -0.0025
56105SOL    HW178245   8.327  12.016   5.047 -0.3288  1.6556  0.8942
56105SOL    HW278246   8.249  11.953   4.934  0.4084  0.0540  1.2456
56106SOL     OW78247   6.177   4.921  10.603  0.0679  0.2697  0.0941
56106SOL    HW178248   6.189   4.907  10.509 -0.6034  0.5623 -0.0440
56106SOL    HW278249   6.263   4.951  10.634  0.4148 -0.2750 -0.3378
56107SOL     OW78250   1.290   7.351   1.347  0.2024 -0.3059 -0.2431
56107SOL    HW178251   1.366   7.384   1.301  0.2759 -0.9672 -0.5998
56107SOL    HW278252   1.215   7.381   1.295  0.2334  0.0136 -0.1040
56108SOL     OW78253   9.734   5.353   3.871  0.5951  0.3195  0.1093
56108SOL    HW178254   9.818   5.327   3.909  1.1946 -0.5935 -1.7378
56108SOL    HW278255   9.712   5.435   3.916  2.4151  0.5295  0.6934
56109SOL     OW78256   1.660   1.170   5.931 -0.0338  0.2801 -0.5563
56109SOL    HW178257   1.699   1.187   6.016  1.2462 -0.8154 -0.8938
56109SOL    HW278258   1.735   1.167   5.871 -0.7163 -0.9762 -1.3771
56110SOL     OW78259  12.533   7.178  12.035  0.1383 -0.3501  0.1652
56110SOL    HW178260  12.531   7.197  12.128  1.4357  1.6536 -0.1433
56110SOL    HW278261  12.442   7.159  12.012 -0.6459  1.6171  1.3923
56111SOL     OW78262   0.430  11.179   5.320  0.5085  0.5711 -0.2370
56111SOL    HW178263   0.397  11.095   5.349 -1.2649  1.4567  0.4530
56111SOL    HW278264   0.476  11.160   5.238  0.8298 -1.1523  0.3066
56112SOL     OW78265   9.965   9.958   2.027 -0.1803  0.2132  0.4138
56112SOL    HW178266   9.878   9.965   2.068 -0.5698  0.5251 -0.4399
56112SOL    HW278267  10.002   9.878   2.063 -2.3506 -2.0449 -1.9626
56113SOL     OW78268   5.084   6.365   0.489 -0.6134  0.8394 -0.4025
56113SOL    HW178269   5.028   6.298   0.528 -0.2874  0.2017 -1.0186
56113SOL    HW278270   5.036   6.395   0.412 -0.2472  0.5148 -0.7568
56114SOL     OW78271   2.819   8.417  10.896  0.4390 -0.6939  0.3787
56114SOL    HW178272   2.879   8.456  10.960 -0.9762  1.5366  0.4558
56114SOL    HW278273   2.752   8.373  10.948  0.6921 -1.1229  0.3474
56115SOL     OW78274  11.014  10.427   8.257  0.3059  0.0799  0.0003
56115SOL    HW178275  10.962  10.417   8.337  1.1890 -0.4706  0.5264
56115SOL    HW278276  11.054  10.341   8.244  0.8640  0.4151 -0.5414
56116SOL     OW78277   6.408   2.402   4.917  0.3023 -0.7222 -0.1144
56116SOL    HW178278   6.334   2.419   4.974  0.2805  1.6683 -0.7457
56116SOL    HW278279   6.369   2.379   4.832  0.3126 -1.0245 -0.0395
56117SOL     OW78280   5.919   7.046   5.764 -0.3691  0.1832 -0.6572
56117SOL    HW178281   5.926   7.011   5.676  0.2739 -2.4609  0.3488
56117SOL    HW278282   5.841   7.006   5.800  0.8146 -0.9151  0.8144
56118SOL     OW78283   5.747   3.014   1.633  0.3746  0.0308 -0.1535
56118SOL    HW178284   5.713   3.100   1.660 -1.6433 -0.8545  0.2390
56118SOL    HW278285   5.841   3.029   1.624  0.0796  2.3277 -0.2373
56119SOL     OW78286   2.226   9.404   7.884 -0.0662 -0.0767 -0.3173
56119SOL    HW178287   2.274   9.430   7.963 -0.8780 -0.1569  0.2121
56119SOL    HW278288   2.155   9.348   7.916  0.1987 -0.9407 -1.2093
56120SOL     OW78289   4.755  12.792   6.965 -0.0778  0.1643  0.5205
56120SOL    HW178290   4.707  12.837   6.895 -2.7874 -0.5383  1.7996
56120SOL    HW278291   4.775  12.861   7.028  0.0503  0.3587  0.2711
56121SOL     OW78292   3.946   4.516   8.260 -0.0862  0.6560  0.0060
56121SOL    HW178293   4.028   4.549   8.297  0.6814  0.8926 -1.8351
56121SOL    HW278294   3.964   4.503   8.167 -1.7451 -0.5942 -0.1946
56122SOL     OW78295   8.226   5.391  10.058 -0.2510 -0.0136 -0.6321
56122SOL    HW178296   8.236   5.397   9.963 -0.3352 -0.3307 -0.6623
56122SOL    HW278297   8.238   5.481  10.089  3.5150 -0.3708 -0.5753
56123SOL     OW78298   8.855   2.459  10.846  0.4561 -0.2029 -0.3284
56123SOL    HW178299   8.769   2.425  10.823  1.4371 -1.4255 -2.4120
56123SOL    HW278300   8.869   2.429  10.936 -1.1885 -0.1544 -0.0337
56124SOL     OW78301   3.171   1.812   4.613  0.0909  0.0947  0.1441
56124SOL    HW178302   3.210   1.783   4.531  0.8973  0.9189  0.2196
56124SOL    HW278303   3.232   1.782   4.681 -0.1931  0.0454  0.3775
56125SOL     OW78304  12.351   2.813   8.986 -0.3475  0.2218 -0.0707
56125SOL    HW178305  12.412   2.873   9.030 -0.4793  0.2526  0.0689
56125SOL    HW278306  12.366   2.728   9.028  0.5876 -0.0867 -0.9772
56126SOL     OW78307   9.661   6.846   1.650 -0.2697  0.1469 -0.0552
56126SOL    HW178308   9.620   6.851   1.564  0.8798 -1.9688 -0.8086
56126SOL    HW278309   9.599   6.796   1.703  0.2894 -1.1607 -0.5728
56127SOL     OW78310   4.146   6.845   2.835  0.2140 -0.4060 -0.2890
56127SOL    HW178311   4.233   6.807   2.831  0.6929  0.7760 -1.4177
56127SOL    HW278312   4.161   6.938   2.849 -0.7835  0.1570 -2.6537
56128SOL     OW78313  10.273  12.449   4.511  0.0833  0.1718  0.5978
56128SOL    HW178314  10.249  12.403   4.591  2.5478  1.1494  2.0099
56128SOL    HW278315  10.288  12.540   4.538 -0.0071  0.7608 -1.1694
56129SOL     OW78316   4.922   9.556   5.892 -0.5687 -0.2211 -0.1238
56129SOL    HW178317   4.928   9.588   5.982  0.2854  0.3531 -0.3659
56129SOL    HW278318   4.984   9.484   5.888  0.9016  1.0101 -0.7356
56130SOL     OW78319   8.691   7.026   9.632 -0.1556  0.0044  0.4415
56130SOL    HW178320   8.684   6.979   9.715 -1.9501 -0.9463 -0.1987
56130SOL    HW278321   8.639   7.106   9.646  1.4278  1.0002  0.9388
56131SOL     OW78322   9.539   6.821   0.059  0.0036  0.5312  0.7312
56131SOL    HW178323   9.558   6.799  -0.033 -0.5803 -0.2656  0.7933
56131SOL    HW278324   9.474   6.757   0.086 -1.7054  2.2689  0.9750
56132SOL     OW78325   7.461   3.954   1.895 -0.2454  0.5094  0.2731
56132SOL    HW178326   7.548   3.947   1.855 -0.2235  1.4827  0.1336
56132SOL    HW278327   7.411   3.882   1.856  1.3220 -2.0468  2.6065
56133SOL     OW78328   9.027   3.178   9.304 -0.0504  0.3187 -1.0798
56133SOL    HW178329   9.068   3.123   9.371 -1.2730 -1.2157 -1.5453
56133SOL    HW278330   9.053   3.267   9.328  3.2290 -0.4983 -1.1525
56134SOL     OW78331   9.122   6.631  11.968 -0.1719  0.9527 -0.1627
56134SOL    HW178332   9.112   6.576  11.891  0.0487 -0.0757  0.5340
56134SOL    HW278333   9.044   6.687  11.967  0.7361  2.3162 -2.1747
56135SOL     OW78334   8.931   6.541  10.097 -0.2301  0.1683 -0.0228
56135SOL    HW178335   8.988   6.568  10.025 -0.5933 -2.0992 -1.2617
56135SOL    HW278336   8.989   6.499  10.161 -0.3673 -1.9531 -1.1879
56136SOL     OW78337   6.389  13.094   1.942  0.5915 -0.2709 -0.1598
56136SOL    HW178338   6.436  13.085   2.025 -0.5160  0.8154  0.6238
56136SOL    HW278339   6.412  13.182   1.912  1.5223 -0.8993 -1.3884
56137SOL     OW78340   2.807   8.175   7.570 -1.1913  0.0432 -0.0514
56137SOL    HW178341   2.808   8.088   7.608 -2.3587  0.4312  0.9397
56137SOL    HW278342   2.852   8.230   7.634 -0.2271  0.1461 -0.7922
56138SOL     OW78343   9.506   4.877   0.091  0.3182  0.1383 -0.4423
56138SOL    HW178344   9.526   4.784   0.077 -0.2751 -0.0101 -0.3417
56138SOL    HW278345   9.508   4.888   0.186 -4.5606 -0.9948  0.0536
56139SOL     OW78346   5.510   6.379   5.931  0.1960  0.1368 -0.0141
56139SOL    HW178347   5.459   6.320   5.988 -0.1381 -0.7673 -1.2161
56139SOL    HW278348   5.455   6.457   5.924  0.3986  0.4165  1.1594
56140SOL     OW78349   9.850  10.311  10.786 -0.8976  0.2162 -0.0943
56140SOL    HW178350   9.839  10.216  10.799  1.7102 -0.2205 -0.4561
56140SOL    HW278351   9.836  10.325  10.693 -0.4084  0.0124 -0.2029
56141SOL     OW78352  10.347   4.222   3.860  0.3198 -0.4989 -0.4343
56141SOL    HW178353  10.390   4.245   3.777  1.1203 -0.8199 -0.1171
56141SOL    HW278354  10.271   4.170   3.834  0.4544 -0.4308 -0.9783
56142SOL     OW78355   4.522  11.416   0.075 -0.0490  0.1679 -0.0180
56142SOL    HW178356   4.488  11.503   0.095 -0.4197 -0.3692  1.9012
56142SOL    HW278357   4.464  11.356   0.123 -0.6502 -1.2606 -2.3711
56143SOL     OW78358  11.588   2.113   9.591  0.0604 -0.1891 -0.2723
56143SOL    HW178359  11.526   2.090   9.522 -0.1048  2.2885 -1.0667
56143SOL    HW278360  11.660   2.156   9.544  0.3726  0.7394  1.0046
56144SOL     OW78361   8.186  12.757  11.227 -0.2532  0.4085  0.1196
56144SOL    HW178362   8.194  12.730  11.319 -1.6244  0.5334  0.2853
56144SOL    HW278363   8.222  12.684  11.178 -0.8129 -0.2790  0.7040
56145SOL     OW78364   4.269  11.383   9.270 -0.1673 -0.0138  0.0444
56145SOL    HW178365   4.204  11.314   9.258 -2.4716  1.7626  1.4161
56145SOL    HW278366   4.298  11.405   9.181 -1.6258 -0.7261 -0.6465
56146SOL     OW78367  11.113  11.913   1.099 -0.2152 -0.3929  0.0643
56146SOL    HW178368  11.141  11.966   1.025  1.7119 -2.1497 -0.5565
56146SOL    HW278369  11.193  11.901   1.151 -1.1393 -0.6785  1.4734
56147SOL     OW78370   1.586  10.463   0.649  0.7043  0.0237  0.3979
56147SOL    HW178371   1.498  10.433   0.674  0.5530 -0.6226 -0.8135
56147SOL    HW278372   1.629  10.385   0.614  1.3839  0.5607  0.0056
56148SOL     OW78373   5.729   6.954   8.822 -0.1330 -0.3793  0.0523
56148SOL    HW178374   5.698   6.963   8.912 -0.1059  0.3549 -0.0018
56148SOL    HW278375   5.661   6.995   8.768 -0.0472 -0.6149 -0.2400
56149SOL     OW78376   6.419  12.104   5.633  0.0857 -0.1637  0.2021
56149SOL    HW178377   6.410  12.199   5.635  1.7012  0.0055  1.3622
56149SOL    HW278378   6.498  12.086   5.684  1.3837 -1.9346 -2.2509
56150SOL     OW78379   7.941   2.168   0.444  0.0038 -0.3602  0.1423
56150SOL    HW178380   8.027   2.127   0.437 -0.3614 -1.0873 -0.2334
56150SOL    HW278381   7.947   2.247   0.390  0.5693 -0.1775  0.4763
56151SOL     OW78382   5.458   3.439   5.464 -0.4242  0.9055  0.0779
56151SOL    HW178383   5.387   3.481   5.416 -0.3736 -1.0673 -1.8866
56151SOL    HW278384   5.415   3.398   5.540 -1.2219  0.6259 -0.5137
56152SOL     OW78385   7.437  11.719   0.618 -0.0986  0.0978 -0.1130
56152SOL    HW178386   7.437  11.814   0.617 -1.9501  0.1411  0.5889
56152SOL    HW278387   7.383  11.694   0.543  2.2253 -0.5135 -1.7054
56153SOL     OW78388   4.726   6.958   0.795 -0.0487  0.0782  0.1387
56153SOL    HW178389   4.773   6.941   0.877 -0.4978 -0.7313  0.2352
56153SOL    HW278390   4.650   6.900   0.799  0.1781 -0.3182 -1.0594
56154SOL     OW78391  12.241  11.730  12.200 -0.4556 -0.1050  0.5350
56154SOL    HW178392  12.281  11.673  12.134 -0.8901  0.9778 -0.7157
56154SOL    HW278393  12.301  11.804  12.208 -2.2494  1.7254 -1.6430
56155SOL     OW78394   3.470   9.301   3.402  0.0367 -0.5335  0.2078
56155SOL    HW178395   3.500   9.390   3.419 -1.5895 -0.0788  0.8110
56155SOL    HW278396   3.485   9.289   3.308  0.1297  0.4312  0.0894
56156SOL     OW78397   9.878  11.705  12.148  0.3325 -0.3865  0.2425
56156SOL    HW178398   9.852  11.770  12.213  1.2507  2.2950 -1.8781
56156SOL    HW278399   9.972  11.695  12.161  0.3321 -0.6761  0.0270
56157SOL     OW78400   4.246   7.919   5.436  0.7091  0.3027  0.5101
56157SOL    HW178401   4.169   7.927   5.492  0.6608  0.5409  0.4105
56157SOL    HW278402   4.313   7.880   5.493  0.3708 -0.3679  0.4579
56158SOL     OW78403   7.614   4.120   9.160 -0.2346  0.5746 -0.8347
56158SOL    HW178404   7.633   4.152   9.072 -1.0944  0.3266 -1.1184
56158SOL    HW278405   7.658   4.182   9.218 -1.2105  1.8113 -1.3857
56159SOL     OW78406  11.049   6.932   2.988 -0.1111 -0.0729  0.4821
56159SOL    HW178407  10.997   6.871   3.040  1.8616 -1.4580  0.9389
56159SOL    HW278408  11.021   7.018   3.018 -1.0154 -0.7819  1.8042
56160SOL     OW78409   6.711   5.805   2.466  0.2514 -0.3643  0.1416
56160SOL    HW178410   6.666   5.801   2.381  1.7067 -1.8271 -0.6114
56160SOL    HW278411   6.672   5.734   2.516 -0.2571  0.1893  0.5544
56161SOL     OW78412   3.863   5.518   2.260  0.3486  0.0200 -0.0890
56161SOL    HW178413   3.915   5.506   2.181 -0.4175 -0.3114 -0.5538
56161SOL    HW278414   3.914   5.476   2.329 -0.0291 -1.7308 -0.8299
56162SOL     OW78415   0.406   5.638  10.676  0.3487 -0.2661  0.3588
56162SOL    HW178416   0.447   5.667  10.758 -0.0193 -0.9720  0.8064
56162SOL    HW278417   0.382   5.720  10.631  1.0054  0.1318  0.7209
56163SOL     OW78418   4.290  12.906   6.552 -0.2594 -0.4859 -0.1165
56163SOL    HW178419   4.384  12.910   6.538 -0.2489 -2.0894 -0.7440
56163SOL    HW278420   4.276  12.952   6.635  0.9157  0.7666 -0.5775
56164SOL     OW78421   2.646   3.717   9.178  0.1487 -0.0928 -0.3925
56164SOL    HW178422   2.684   3.687   9.095  0.8269 -1.1578  0.2767
56164SOL    HW278423   2.642   3.638   9.233 -1.6008  0.3062  0.1170
56165SOL     OW78424  11.908  11.101   8.521 -0.1099 -0.0059 -0.1643
56165SOL    HW178425  11.940  11.095   8.431 -0.7384 -1.8511 -0.3042
56165SOL    HW278426  11.813  11.090   8.513 -0.0604 -1.3923  0.7905
56166SOL     OW78427   9.561   6.333  11.583 -0.6534  0.7823 -0.2496
56166SOL    HW178428   9.481   6.291  11.615 -0.4547 -0.3083 -1.1270
56166SOL    HW278429   9.540   6.356  11.492 -0.2766  1.3411 -0.1981
56167SOL     OW78430   5.475   3.053   1.452  1.0098 -0.3487 -0.3241
56167SOL    HW178431   5.419   2.996   1.505  2.2700 -0.6235  0.7882
56167SOL    HW278432   5.544   3.080   1.512  3.1706 -1.6081 -2.0714
56168SOL     OW78433   7.414   6.215   0.134  0.7417 -0.4402  0.1178
56168SOL    HW178434   7.407   6.139   0.077  1.0124 -0.1866 -0.2640
56168SOL    HW278435   7.451   6.181   0.215 -0.2902 -0.9279  0.4047
56169SOL     OW78436  10.556   8.962  13.030  0.3316 -0.9272 -0.2436
56169SOL    HW178437  10.587   8.997  13.114  0.5601 -1.3732 -0.1357
56169SOL    HW278438  10.630   8.972  12.971 -0.0192 -0.0901 -0.5511
56170SOL     OW78439   0.259  11.590   8.152  0.5518  0.4362 -0.4012
56170SOL    HW178440   0.253  11.639   8.070  1.7381  0.0749 -0.7195
56170SOL    HW278441   0.168  11.573   8.176  0.1456 -1.9004 -3.0925
56171SOL     OW78442  12.623   4.109   2.311  0.2970  0.4675  0.3293
56171SOL    HW178443  12.619   4.079   2.220 -0.8037 -1.1460  0.8592
56171SOL    HW278444  12.531   4.117   2.337  0.6050  1.4041  1.1559
56172SOL     OW78445   2.322  11.933   3.920  0.4454 -0.3332  0.2723
56172SOL    HW178446   2.262  11.948   3.847 -1.7559  0.2981  2.1233
56172SOL    HW278447   2.350  12.020   3.947 -1.9265 -0.1481  2.6058
56173SOL     OW78448   3.564   2.925  11.401 -0.0021  0.0140  0.1178
56173SOL    HW178449   3.584   2.860  11.334 -2.2383 -1.5506  0.8669
56173SOL    HW278450   3.539   2.874  11.478 -0.3871  1.7706  1.2185
56174SOL     OW78451   0.109   6.350  10.777 -0.1713 -0.0201  0.0548
56174SOL    HW178452   0.137   6.266  10.739 -0.0699  0.6600 -1.4619
56174SOL    HW278453   0.087   6.329  10.867 -1.9248 -2.0648 -0.7573
56175SOL     OW78454   9.137   5.722   4.762  0.3519  0.2236 -0.0371
56175SOL    HW178455   9.202   5.741   4.829 -0.7664  0.5316  1.0070
56175SOL    HW278456   9.077   5.660   4.803 -1.3815  1.7703 -0.0610
56176SOL     OW78457   2.053   5.027  12.536  0.0006 -0.0951 -0.0446
56176SOL    HW178458   1.994   4.961  12.499 -1.4753  0.9044  0.4086
56176SOL    HW278459   2.042   5.104  12.480  0.7834  0.1558  0.1331
56177SOL     OW78460  11.920   9.064   2.337  0.3040 -0.3896  0.3758
56177SOL    HW178461  11.934   8.976   2.371 -1.1570 -0.4115  1.0146
56177SOL    HW278462  11.855   9.102   2.396  0.7532  1.0527 -0.0121
56178SOL     OW78463  13.277  10.872   2.356  0.7713  0.7826  0.1992
56178SOL    HW178464  13.213  10.892   2.423  0.7702  0.0784  0.4207
56178SOL    HW278465  13.360  10.904   2.391  0.7054  0.7699  0.3645
56179SOL     OW78466   4.784   1.074  10.150 -0.1959  0.2440  0.0221
56179SOL    HW178467   4.796   1.073  10.245 -0.7788 -0.3411  0.0929
56179SOL    HW278468   4.754   0.986  10.128  0.3414  0.2419 -0.7638
56180SOL     OW78469   5.235   8.127   4.315 -0.2953 -0.2693  0.1541
56180SOL    HW178470   5.213   8.164   4.400 -0.9726  1.5411 -0.7575
56180SOL    HW278471   5.272   8.041   4.335 -1.7018 -0.4718  2.1852
56181SOL     OW78472   5.099   5.326   3.041 -0.2371  0.1715  0.4615
56181SOL    HW178473   5.025   5.267   3.050 -0.1935  0.1045  0.3812
56181SOL    HW278474   5.173   5.279   3.078  0.3579 -0.8799 -1.8909
56182SOL     OW78475   4.118   6.739   2.509 -0.2599 -0.2821  0.2347
56182SOL    HW178476   4.137   6.816   2.457 -1.1876 -0.0563  0.2106
56182SOL    HW278477   4.196   6.726   2.563 -0.4774  1.2697  0.9629
56183SOL     OW78478   1.597   2.054   5.317  0.0632 -0.1608  0.6191
56183SOL    HW178479   1.503   2.068   5.316  0.1311  0.2846  0.1059
56183SOL    HW278480   1.624   2.074   5.407 -0.2775  0.0413  0.6753
56184SOL     OW78481  10.885   0.716   0.508 -0.2390  0.8227 -0.3958
56184SOL    HW178482  10.974   0.735   0.536 -0.1162 -0.8487  0.5001
56184SOL    HW278483  10.892   0.631   0.464 -1.7280 -0.7965  2.1818
56185SOL     OW78484  10.836   5.084   4.984 -0.2119  0.3362  0.6051
56185SOL    HW178485  10.869   5.003   4.944  1.4781  1.3208 -0.1135
56185SOL    HW278486  10.751   5.099   4.944  0.0867 -0.3511 -0.3119
56186SOL     OW78487   0.574  10.811  12.323  0.5033  0.5831  0.4766
56186SOL    HW178488   0.603  10.822  12.232 -0.4849  0.8816  0.1914
56186SOL    HW278489   0.516  10.885  12.339 -0.4558 -0.2319  0.8949
56187SOL     OW78490   4.194   1.411  11.470 -0.2017  0.1435 -0.0276
56187SOL    HW178491   4.235   1.490  11.505 -1.0388  1.6160 -2.1879
56187SOL    HW278492   4.100   1.429  11.475 -0.3939 -0.5556 -0.8518
56188SOL     OW78493  13.261   4.365   3.832 -0.4126  0.1867  0.5837
56188SOL    HW178494  13.279   4.299   3.900 -3.4577  1.0240  2.3644
56188SOL    HW278495  13.259   4.314   3.750  2.6191 -0.9643  1.0630
56189SOL     OW78496   9.859   5.310  10.725  0.1479 -0.6165 -0.0262
56189SOL    HW178497   9.939   5.287  10.677  0.5182 -2.1076  1.2268
56189SOL    HW278498   9.866   5.261  10.807  0.0959  2.6721  2.1019
56190SOL     OW78499  11.918  11.937   7.392  0.2192 -0.1873 -0.2317
56190SOL    HW178500  12.004  11.895   7.389  0.7585  0.9184 -0.7187
56190SOL    HW278501  11.864  11.877   7.443  1.9333  0.2603  2.2709
56191SOL     OW78502  12.308   8.395  12.254 -0.1629  0.7620  0.1296
56191SOL    HW178503  12.265   8.322  12.209 -2.2744  2.1929 -0.3045
56191SOL    HW278504  12.389   8.409  12.205  0.7792 -1.8138  0.7766
56192SOL     OW78505   3.044   7.048   8.536 -0.4356 -0.3735 -0.2864
56192SOL    HW178506   3.033   7.142   8.548  0.9465 -0.0082 -1.5314
56192SOL    HW278507   3.071   7.015   8.621  1.7221  0.8372 -0.4322
56193SOL     OW78508   2.050   6.357   1.137 -0.0717  0.3599  0.1921
56193SOL    HW178509   2.030   6.446   1.110  1.1977  0.8426  0.7610
56193SOL    HW278510   2.145   6.356   1.149  0.1268 -1.4519 -1.1534
56194SOL     OW78511  12.582   2.944   3.478  0.3526  0.2319 -0.1058
56194SOL    HW178512  12.551   3.017   3.424 -0.3990  0.4498  0.5942
56194SOL    HW278513  12.527   2.870   3.451  0.4417  0.1697 -0.1160
56195SOL     OW78514   3.979   4.904  11.461  0.1603 -0.1226  0.2493
56195SOL    HW178515   3.924   4.976  11.432 -2.2347 -1.6974  0.5399
56195SOL    HW278516   4.045   4.894  11.393 -2.8780 -1.1928 -2.8278
56196SOL     OW78517   7.544   8.084  12.465  0.1475 -0.3134 -0.2294
56196SOL    HW178518   7.629   8.124  12.445  1.0497 -1.3821  1.2674
56196SOL    HW278519   7.517   8.043  12.383 -0.2493  2.2834 -1.4871
56197SOL     OW78520  13.002   8.306   8.976  0.9539 -0.4582 -0.5508
56197SOL    HW178521  12.940   8.293   9.047 -0.9287  0.0226 -2.0263
56197SOL    HW278522  13.020   8.218   8.943 -0.9329 -0.4684 -1.6797
56198SOL     OW78523   0.986  13.291   1.153  0.2014  0.0275 -0.0488
56198SOL    HW178524   0.930  13.242   1.093 -0.1754  0.5066 -0.0960
56198SOL    HW278525   1.075  13.262   1.132 -0.0426 -0.9489  0.2155
56199SOL     OW78526   3.340  11.980   1.938  0.8132  0.4163  0.1175
56199SOL    HW178527   3.327  11.887   1.960  2.6195  0.0851  0.0006
56199SOL    HW278528   3.257  12.008   1.902  0.4108 -1.3469 -0.4373
56200SOL     OW78529   3.517   5.890  10.730  0.1497 -0.3204  0.4870
56200SOL    HW178530   3.568   5.906  10.810 -0.4852 -0.1858  0.8737
56200SOL    HW278531   3.555   5.950  10.666 -1.1324  1.6510  1.4691
56201SOL     OW78532   1.892  12.146   5.716  0.0426 -0.0924 -0.3046
56201SOL    HW178533   1.939  12.143   5.633 -0.1955 -1.8624 -0.4215
56201SOL    HW278534   1.938  12.085   5.773 -0.1618  0.6390  0.6878
56202SOL     OW78535   4.070   2.456   8.466  0.4887 -0.5284 -0.1895
56202SOL    HW178536   4.135   2.506   8.416 -0.1405  0.6535  0.1405
56202SOL    HW278537   4.085   2.481   8.557 -1.0697  0.5812 -0.1950
56203SOL     OW78538  11.228   5.706   9.331  0.4110 -0.1255 -0.0993
56203SOL    HW178539  11.164   5.638   9.308  2.7077 -2.3003 -0.5377
56203SOL    HW278540  11.213   5.776   9.268 -1.5069 -0.5557 -0.1889
56204SOL     OW78541   1.424   9.700  10.839 -0.2636  0.1220  0.0692
56204SOL    HW178542   1.508   9.684  10.797  1.2110  0.6106  2.6286
56204SOL    HW278543   1.398   9.788  10.811  0.1362  0.0194 -0.6241
56205SOL     OW78544   0.398   9.158   2.742  0.0931 -0.3474  0.3767
56205SOL    HW178545   0.445   9.078   2.766 -0.1374 -0.8499 -0.7635
56205SOL    HW278546   0.421   9.171   2.650 -0.4277  0.5118  0.3661
56206SOL     OW78547   1.116   3.320   8.355  0.4035 -0.3257  0.5826
56206SOL    HW178548   1.120   3.389   8.289 -0.2996  0.7765  1.6472
56206SOL    HW278549   1.053   3.257   8.320 -1.2803  1.0906  0.9216
56207SOL     OW78550   4.314   0.627   1.735  0.0334  0.8310  0.0180
56207SOL    HW178551   4.357   0.712   1.720  0.1584  0.4438 -2.1159
56207SOL    HW278552   4.262   0.613   1.656  0.0915 -1.1214  0.2971
56208SOL     OW78553   1.921  11.728   5.028 -0.0492  0.0514 -0.2098
56208SOL    HW178554   1.847  11.779   5.061  2.0114  4.1308 -1.2419
56208SOL    HW278555   1.963  11.693   5.107 -1.7004 -0.3638  0.5305
56209SOL     OW78556   0.904  10.722   4.869 -0.1254 -0.2181 -0.2778
56209SOL    HW178557   0.887  10.737   4.962 -1.5477  2.4001 -0.8801
56209SOL    HW278558   0.993  10.685   4.867  1.1608  2.3570  1.9686
56210SOL     OW78559   4.844   1.145   1.706 -0.3009 -0.5870 -0.2491
56210SOL    HW178560   4.836   1.095   1.787  1.8911 -3.6163 -1.7178
56210SOL    HW278561   4.755   1.147   1.671 -0.6705 -2.5161  0.4576
56211SOL     OW78562   6.433  13.143   5.726  0.3149  0.1496  0.6439
56211SOL    HW178563   6.359  13.204   5.722 -0.1675 -0.3640  1.5309
56211SOL    HW278564   6.510  13.199   5.714 -0.1807  0.7424  0.0840
56212SOL     OW78565   9.910  12.026   6.130  0.1552 -0.2099 -0.3077
56212SOL    HW178566   9.960  12.104   6.155 -0.4307  0.1865 -0.3642
56212SOL    HW278567   9.925  12.017   6.036 -0.7300  0.5366 -0.5337
56213SOL     OW78568  11.370  10.034   2.678 -0.5138  0.0379 -0.1785
56213SOL    HW178569  11.351   9.971   2.608 -0.4295  0.1834 -0.3321
56213SOL    HW278570  11.466  10.041   2.678 -0.5274  0.2234 -0.2104
56214SOL     OW78571  10.547   0.455   7.493  0.7213  0.6017 -0.4710
56214SOL    HW178572  10.616   0.502   7.540 -0.1419 -1.2217  2.9846
56214SOL    HW278573  10.466   0.485   7.535 -0.1690 -0.9080 -1.0387
56215SOL     OW78574  12.434  10.271   7.057 -0.4008 -0.6501  0.1220
56215SOL    HW178575  12.386  10.333   7.112 -0.9181 -0.6785 -0.2985
56215SOL    HW278576  12.488  10.326   7.000  0.4409 -0.6273  0.9138
56216SOL     OW78577  12.502   5.527   3.503  0.2425  1.0886 -0.8841
56216SOL    HW178578  12.459   5.540   3.588  2.5207  0.4061  0.4395
56216SOL    HW278579  12.493   5.433   3.486  0.5746  1.0727 -0.9650
56217SOL     OW78580   0.801   7.902  10.662  0.0741 -0.0013 -0.2582
56217SOL    HW178581   0.726   7.942  10.705 -1.1719  0.4399 -2.6905
56217SOL    HW278582   0.855   7.976  10.633 -0.4936 -0.1383 -1.7611
56218SOL     OW78583  12.141   6.707   7.311 -0.4985  0.4685 -0.1668
56218SOL    HW178584  12.117   6.683   7.222 -0.4800  1.0613 -0.3392
56218SOL    HW278585  12.237   6.705   7.311 -0.5101 -1.0056  0.2675
56219SOL     OW78586   5.568   3.589  13.001  0.5154  0.2859 -0.0866
56219SOL    HW178587   5.595   3.503  13.034 -0.1427 -0.2266 -0.8574
56219SOL    HW278588   5.537   3.636  13.079  1.6070  0.1216  0.4687
56220SOL     OW78589   1.682  10.673  13.165  0.6932  0.1111  0.0010
56220SOL    HW178590   1.626  10.751  13.164 -1.4971 -1.3336  0.9971
56220SOL    HW278591   1.620  10.600  13.170  2.6903 -1.5794  1.6805
56221SOL     OW78592  10.636   4.387   3.285  0.2568  0.1033  0.5029
56221SOL    HW178593  10.565   4.399   3.222  0.9155  0.8216 -0.1110
56221SOL    HW278594  10.631   4.463   3.343 -0.0696 -0.3322  1.0636
56222SOL     OW78595   2.671   1.182   0.267  0.5846  0.3279 -0.5586
56222SOL    HW178596   2.724   1.134   0.204  0.8167 -0.0342 -0.0883
56222SOL    HW278597   2.584   1.142   0.262  0.8955 -0.4593  0.1656
56223SOL     OW78598   7.770   6.037  11.130  0.0986 -1.0236  0.3472
56223SOL    HW178599   7.771   6.065  11.221  1.4510 -0.8946  0.3153
56223SOL    HW278600   7.800   6.114  11.081  0.1297 -1.3349 -0.1312
56224SOL     OW78601  10.463   4.624   5.316 -0.2667 -0.3313  0.2422
56224SOL    HW178602  10.428   4.654   5.400 -0.3093 -0.1006  0.1422
56224SOL    HW278603  10.539   4.679   5.301 -0.8362  0.3112 -0.3522
56225SOL     OW78604   6.435   2.737  11.395  0.3929 -0.3116  0.2862
56225SOL    HW178605   6.371   2.717  11.463 -1.0943  2.2002 -0.2647
56225SOL    HW278606   6.402   2.693  11.316 -0.6810  0.9558  0.0089
56226SOL     OW78607  10.468  11.952   1.905 -0.4345  0.2051  0.2059
56226SOL    HW178608  10.521  12.030   1.890  0.0876 -0.5628 -2.5584
56226SOL    HW278609  10.379  11.980   1.885 -0.1095 -0.0794 -1.9012
56227SOL     OW78610   4.920   9.917   6.100  0.4272 -0.6054  0.2008
56227SOL    HW178611   5.014   9.905   6.088  0.8177  1.5164  0.6305
56227SOL    HW278612   4.903  10.005   6.067 -1.0870 -0.2958  1.6693
56228SOL     OW78613   5.317   5.840  11.520  1.0131 -0.0465  0.7983
56228SOL    HW178614   5.251   5.858  11.453  0.7488 -0.8539  0.8380
56228SOL    HW278615   5.396   5.885  11.488  0.6375  0.3495  0.4144
56229SOL     OW78616   6.753   7.412   2.474 -0.0902 -0.7773 -0.1366
56229SOL    HW178617   6.685   7.358   2.433  0.7585 -2.4616  0.6157
56229SOL    HW278618   6.814   7.431   2.402  0.4507 -2.1982 -0.0690
56230SOL     OW78619   2.943   3.086  11.418  0.0287 -0.1047  0.6063
56230SOL    HW178620   2.984   3.140  11.485  0.9126  0.7834 -0.6040
56230SOL    HW278621   2.862   3.133  11.396  2.4505  3.0187 -3.0534
56231SOL     OW78622   2.647  11.059   0.231  0.9881  0.4567  0.2446
56231SOL    HW178623   2.557  11.033   0.214  0.8221  1.1450  0.0283
56231SOL    HW278624   2.684  10.987   0.282 -0.7558  1.7054  3.5932
56232SOL     OW78625  10.790   5.768  13.175  0.1015 -0.0340  0.3702
56232SOL    HW178626  10.741   5.688  13.161  2.2107 -1.3810  0.1601
56232SOL    HW278627  10.819   5.762  13.266  1.4147 -0.2280 -0.0401
56233SOL     OW78628  12.769   0.349   5.738  0.1748  0.5692  0.6415
56233SOL    HW178629  12.855   0.364   5.776  0.2460  0.4515  0.5283
56233SOL    HW278630  12.714   0.420   5.772  0.4755  1.0113  0.2231
56234SOL     OW78631   8.600   0.785  11.858  0.1198  0.2587  0.0804
56234SOL    HW178632   8.600   0.700  11.902 -0.7299  0.0570 -0.2831
56234SOL    HW278633   8.528   0.834  11.899 -0.4280  0.2111 -0.7832
56235SOL     OW78634  10.093   2.757  12.853 -0.5032 -0.0093 -0.2662
56235SOL    HW178635  10.048   2.674  12.869 -1.6955  0.4355 -1.2163
56235SOL    HW278636  10.087   2.804  12.936 -2.5331  0.3689 -0.5897
56236SOL     OW78637   2.703   6.127   6.496 -0.4387 -0.0810 -0.3378
56236SOL    HW178638   2.638   6.189   6.529 -0.1623 -0.0655  0.1844
56236SOL    HW278639   2.736   6.167   6.416  0.0618  0.6653  0.2349
56237SOL     OW78640   2.866   9.172  12.795  0.1682 -0.3626  0.1012
56237SOL    HW178641   2.870   9.132  12.882  0.0561  0.7794  0.6529
56237SOL    HW278642   2.924   9.248  12.801  0.2234 -0.3122 -0.8525
56238SOL     OW78643   9.215   1.111  11.451  0.1000 -0.0873  0.7377
56238SOL    HW178644   9.182   1.170  11.383  0.6657 -0.2175  0.3334
56238SOL    HW278645   9.199   1.156  11.533 -3.4039 -1.2130  0.8243
56239SOL     OW78646  10.471  10.276   4.548  0.6012 -0.0473 -0.1558
56239SOL    HW178647  10.502  10.342   4.486  0.3980 -0.4666 -0.7205
56239SOL    HW278648  10.548  10.223   4.567  0.6174 -0.0491 -0.2232
56240SOL     OW78649   7.828  12.027   9.320 -0.1843 -0.1174  0.6280
56240SOL    HW178650   7.764  11.974   9.366 -1.0033 -1.3427 -1.7323
56240SOL    HW278651   7.782  12.058   9.242  2.0698 -1.1389 -1.2420
56241SOL     OW78652   3.963  13.150   6.872  0.2545 -0.1008  0.0292
56241SOL    HW178653   3.955  13.119   6.963  0.7094  0.4009  0.2424
56241SOL    HW278654   3.873  13.166   6.845 -0.0494 -1.9782 -0.2246
56242SOL     OW78655   1.024   8.268   0.547  0.6521 -0.1653 -0.1773
56242SOL    HW178656   1.112   8.246   0.577 -0.7778 -2.5635  2.8346
56242SOL    HW278657   1.000   8.346   0.596  0.6838 -0.2513 -0.0232
56243SOL     OW78658   0.027   9.843   3.252 -0.4713  0.6233  0.1042
56243SOL    HW178659   0.056   9.755   3.278 -1.3032  0.0632 -0.8110
56243SOL    HW278660   0.031   9.894   3.333 -0.7626 -0.4749  0.8365
56244SOL     OW78661   5.899   1.340   9.634  0.1180 -0.0622 -0.1703
56244SOL    HW178662   5.946   1.376   9.709  1.4231 -2.1313  0.0872
56244SOL    HW278663   5.808   1.330   9.664  0.1169  1.2582  0.3157
56245SOL     OW78664  11.529   0.634   5.901 -0.0563  0.3838 -0.2966
56245SOL    HW178665  11.450   0.675   5.867 -1.1100 -0.5474  0.9591
56245SOL    HW278666  11.562   0.582   5.828  0.1163  1.7352 -1.2206
56246SOL     OW78667   1.083   8.910   8.934  0.3733  0.4667 -0.2113
56246SOL    HW178668   1.025   8.834   8.936  1.5140 -0.4004  1.4645
56246SOL    HW278669   1.057   8.957   8.854 -0.6861 -1.4003 -1.0320
56247SOL     OW78670   5.389   9.859  13.162  0.6121 -0.1711 -0.2377
56247SOL    HW178671   5.423   9.770  13.151 -1.0840 -0.9000  0.1935
56247SOL    HW278672   5.367   9.888  13.074 -0.2261 -0.7583 -0.2264
56248SOL     OW78673  10.696   8.618   4.772  0.3754  0.2080  0.0372
56248SOL    HW178674  10.774   8.629   4.717  1.3455 -0.3581  1.2576
56248SOL    HW278675  10.709   8.678   4.845  0.6503 -1.3153  1.2816
56249SOL     OW78676   1.608   7.276   2.379  0.2814  0.6119  0.1051
56249SOL    HW178677   1.557   7.355   2.396  2.5840  1.7243  2.6853
56249SOL    HW278678   1.611   7.269   2.284 -0.0602  3.6309 -0.2305
56250SOL     OW78679  13.087   7.679   2.799 -0.2673  0.3757 -0.0842
56250SOL    HW178680  13.030   7.604   2.778  0.8554 -0.3215 -0.7236
56250SOL    HW278681  13.083   7.734   2.721 -0.2269  0.4349 -0.0448
56251SOL     OW78682  12.005  12.020   6.527 -0.0624  0.0293  0.0444
56251SOL    HW178683  11.976  12.027   6.436  1.2727 -2.2494 -0.6264
56251SOL    HW278684  12.080  12.078   6.533 -0.1453  0.1757 -0.3122
56252SOL     OW78685  10.947   6.343   9.938  0.4087 -0.0885  0.1641
56252SOL    HW178686  11.000   6.273   9.901  2.9786  0.9151  1.7283
56252SOL    HW278687  10.940   6.408   9.868  0.4494 -0.6343 -0.3534
56253SOL     OW78688   0.493   8.660   5.528  0.3538 -0.1593  0.6591
56253SOL    HW178689   0.587   8.661   5.510  0.3956  0.6836  0.8871
56253SOL    HW278690   0.454   8.710   5.456 -0.2458 -2.8341 -1.0213
56254SOL     OW78691  11.911   4.300   2.726  0.1276 -0.0285 -0.2028
56254SOL    HW178692  11.844   4.335   2.668 -0.0757 -0.6103 -0.3243
56254SOL    HW278693  11.866   4.236   2.780  0.7741 -1.1613 -0.9686
56255SOL     OW78694   9.048   8.677  12.487  0.7364 -0.0932 -0.1838
56255SOL    HW178695   9.134   8.635  12.486  1.7409  1.8755 -0.8516
56255SOL    HW278696   9.057   8.747  12.552 -0.2295  0.3729 -0.5369
56256SOL     OW78697   6.657  12.139  12.006 -0.9913 -0.1898  0.0955
56256SOL    HW178698   6.604  12.081  11.951  1.3974  0.2332 -2.9322
56256SOL    HW278699   6.745  12.102  12.001  0.3852  2.8795 -0.9706
56257SOL     OW78700   6.156   0.843   3.066  0.0945 -0.8433  0.1645
56257SOL    HW178701   6.184   0.774   3.126 -1.0959 -0.8654  0.7052
56257SOL    HW278702   6.226   0.847   3.000  0.0519 -2.7759 -0.0481
56258SOL     OW78703   2.216  13.064  12.682  0.3357  0.4565  0.3515
56258SOL    HW178704   2.228  13.152  12.646  1.8029 -0.0736 -0.5256
56258SOL    HW278705   2.156  13.022  12.621 -1.3182  1.1823  1.4111
56259SOL     OW78706   0.980   5.102   9.392 -0.1579 -0.3636 -0.3514
56259SOL    HW178707   0.983   5.007   9.400  1.2300 -0.4675 -1.5570
56259SOL    HW278708   0.913   5.130   9.455  1.6046 -1.8489  2.3874
56260SOL     OW78709  12.298   2.825   5.893  0.7503  0.3901  0.2603
56260SOL    HW178710  12.390   2.806   5.875  0.3273 -0.8712 -0.6423
56260SOL    HW278711  12.268   2.872   5.815  0.1507 -0.8873 -0.3013
56261SOL     OW78712  11.855   6.863  12.078 -0.0537  0.1488 -0.2401
56261SOL    HW178713  11.800   6.932  12.041  2.2733  1.4485 -1.5779
56261SOL    HW278714  11.826   6.783  12.035 -1.1593  0.7306 -0.6020
56262SOL     OW78715   2.065  11.267   7.232 -0.1146  0.4439  0.6734
56262SOL    HW178716   2.079  11.188   7.179  1.6915 -0.1461  1.9129
56262SOL    HW278717   1.982  11.302   7.201 -1.7765 -2.7438  1.0435
56263SOL     OW78718   3.826   7.240   7.170  0.1348 -0.2814  0.0126
56263SOL    HW178719   3.844   7.249   7.076 -0.0216 -0.6357 -0.0556
56263SOL    HW278720   3.908   7.262   7.213  1.2491 -3.3021 -0.3412
56264SOL     OW78721   7.742   0.758   2.489 -0.7607  0.3773 -0.0704
56264SOL    HW178722   7.667   0.730   2.436 -1.1815 -0.2579  0.8268
56264SOL    HW278723   7.817   0.715   2.447 -0.9327  0.7418 -0.7749
56265SOL     OW78724  12.004   5.517  11.352  0.3360  0.7017  0.3639
56265SOL    HW178725  12.029   5.425  11.351  0.1983  0.6567 -0.6829
56265SOL    HW278726  11.974   5.533  11.441  0.7615 -0.1563  0.6716
56266SOL     OW78727   8.724   0.099   2.179  0.0477  0.2367 -0.1653
56266SOL    HW178728   8.747   0.094   2.086  1.4096 -1.5867  0.2152
56266SOL    HW278729   8.739   0.191   2.203  1.5495  0.3285 -1.3121
56267SOL     OW78730   7.966   9.472   2.968 -0.4827 -0.0187  0.3385
56267SOL    HW178731   7.887   9.426   2.993 -1.8924  1.3416 -1.2896
56267SOL    HW278732   7.957   9.559   3.008  0.0436  0.2356 -0.0765
56268SOL     OW78733  12.700   6.410  11.398 -0.1255  0.3144 -0.0198
56268SOL    HW178734  12.662   6.436  11.482  1.8898 -2.0849  1.8136
56268SOL    HW278735  12.644   6.339  11.367 -0.2933  0.5238 -0.2001
56269SOL     OW78736   3.010   6.127   6.357 -0.0513 -0.2815 -0.1699
56269SOL    HW178737   2.986   6.045   6.315  0.3309 -0.7371  0.4902
56269SOL    HW278738   3.065   6.101   6.431  1.2294  0.6439 -0.7608
56270SOL     OW78739  11.488   1.621   3.195 -0.0135 -0.0919  0.3581
56270SOL    HW178740  11.523   1.584   3.114 -0.2448  0.4871 -0.0092
56270SOL    HW278741  11.565   1.631   3.252  0.3050  0.4048 -0.1457
56271SOL     OW78742   4.924  12.866   2.601 -0.3710 -0.1113 -0.6981
56271SOL    HW178743   4.991  12.920   2.643 -0.2972 -0.1278 -0.7916
56271SOL    HW278744   4.883  12.923   2.537  0.8016 -0.5957 -1.9414
56272SOL     OW78745  10.531  11.559   7.144 -0.1432  0.4016  0.5841
56272SOL    HW178746  10.436  11.564   7.132 -0.0425  0.2423 -0.3984
56272SOL    HW278747  10.546  11.474   7.184 -0.5770  1.3175  2.8575
56273SOL     OW78748   3.025   3.556   0.882  0.3054  0.3930 -0.1631
56273SOL    HW178749   2.959   3.605   0.931 -0.0570  0.8042 -1.0511
56273SOL    HW278750   3.002   3.464   0.897 -0.2788  0.5298 -0.2036
56274SOL     OW78751  11.803   4.179   0.754 -0.3335  0.0370  0.1406
56274SOL    HW178752  11.834   4.133   0.831  1.4853  0.3452 -0.3618
56274SOL    HW278753  11.853   4.142   0.681 -0.3080  1.3597 -0.5534
56275SOL     OW78754   5.324  10.642  11.442 -0.0520 -0.0586  0.3011
56275SOL    HW178755   5.414  10.622  11.468 -0.4694 -0.6921  1.2964
56275SOL    HW278756   5.331  10.725  11.395  1.1836 -0.6140 -0.5385
56276SOL     OW78757   3.576  11.022   6.850 -0.5811  0.1630 -0.7000
56276SOL    HW178758   3.534  11.047   6.932  0.6193  0.1569 -0.0595
56276SOL    HW278759   3.631  10.947   6.873  1.8929  1.7937 -0.8365
56277SOL     OW78760   7.991   9.149   5.193  0.0121 -0.4870  0.0204
56277SOL    HW178761   7.996   9.104   5.278 -0.6219  0.4087  0.5503
56277SOL    HW278762   8.057   9.218   5.199 -0.8298  0.3208  0.2570
56278SOL     OW78763   7.810  11.939   4.799 -0.1420  0.0368 -0.3110
56278SOL    HW178764   7.751  11.864   4.791 -1.1540  0.4872  2.0967
56278SOL    HW278765   7.761  12.003   4.850  1.0843  1.9527 -1.4187
56279SOL     OW78766   2.718   6.042   6.748  0.1310 -0.5982  0.5893
56279SOL    HW178767   2.696   6.128   6.783  0.9917 -0.1337  0.0142
56279SOL    HW278768   2.736   6.056   6.655 -1.1772 -1.6633  0.1423
56280SOL     OW78769   6.260  10.412   4.500  0.3814  0.0946  0.0226
56280SOL    HW178770   6.185  10.471   4.494  1.4820  1.4409 -1.2060
56280SOL    HW278771   6.309  10.427   4.419  1.6391 -1.2262  0.5016
56281SOL     OW78772   7.970   4.957  11.349  0.4221  0.4897  0.1429
56281SOL    HW178773   7.906   4.888  11.333  0.8050  0.2825 -0.5733
56281SOL    HW278774   8.047   4.911  11.382 -0.5002  0.9538  3.2464
56282SOL     OW78775  10.447   7.730  10.266  0.3181 -0.4578 -0.5548
56282SOL    HW178776  10.520   7.787  10.291 -0.6979  1.0247 -0.8055
56282SOL    HW278777  10.369   7.783  10.283 -0.7503 -2.2135  0.2839
56283SOL     OW78778   8.139   2.697   3.112 -0.6164  0.9929 -0.5822
56283SOL    HW178779   8.214   2.657   3.068 -0.4008  0.0801  0.5753
56283SOL    HW278780   8.173   2.779   3.148 -0.0083  0.3280  0.4013
56284SOL     OW78781  11.793   5.276  11.250  0.2754  0.1419 -0.7904
56284SOL    HW178782  11.754   5.265  11.163 -1.3984  0.4917 -0.1272
56284SOL    HW278783  11.810   5.370  11.256  0.0546  0.1733 -0.6221
56285SOL     OW78784  13.051  13.064   0.978 -0.1296 -0.3684  0.5826
56285SOL    HW178785  13.120  13.102   1.032  1.1126 -0.0354 -1.1546
56285SOL    HW278786  13.027  13.134   0.918 -0.3579 -1.2156 -0.3316
56286SOL     OW78787   4.121   0.872   7.116  0.0771  0.1627  0.2661
56286SOL    HW178788   4.041   0.881   7.167 -0.8589 -1.9211 -0.7224
56286SOL    HW278789   4.115   0.938   7.048  0.0829  1.2031  1.2539
56287SOL     OW78790   3.863   0.719   9.640  0.1345  0.4263 -0.0356
56287SOL    HW178791   3.912   0.751   9.715 -1.6029 -1.4949  2.0898
56287SOL    HW278792   3.779   0.691   9.677 -0.1669 -2.1990 -2.3798
56288SOL     OW78793   0.175  12.732   8.609  0.5915 -0.0134  0.2127
56288SOL    HW178794   0.187  12.782   8.689 -0.5189 -0.0562  0.4204
56288SOL    HW278795   0.088  12.694   8.617  0.1098  0.6751 -1.3947
56289SOL     OW78796  10.359  12.187  10.962  0.1034  0.2551  0.0613
56289SOL    HW178797  10.417  12.118  10.995  0.5306  1.0587  1.0512
56289SOL    HW278798  10.415  12.238  10.903 -0.6148 -1.0822 -1.8676
56290SOL     OW78799  11.690  11.417   7.159  0.2760 -0.3949 -0.0109
56290SOL    HW178800  11.677  11.421   7.064  0.0755 -2.8932 -0.1495
56290SOL    HW278801  11.606  11.389   7.194  0.2714  0.7542  0.9895
56291SOL     OW78802  12.565   3.796   3.028  0.4247 -0.4690 -0.2734
56291SOL    HW178803  12.581   3.762   2.940 -0.7535  1.5219 -1.3162
56291SOL    HW278804  12.508   3.731   3.069  0.2061 -0.9590 -1.3229
56292SOL     OW78805   9.700   3.501   0.866  0.5538  0.4531  0.0898
56292SOL    HW178806   9.744   3.487   0.949 -0.7164  1.0312  0.8930
56292SOL    HW278807   9.626   3.441   0.868  0.1640  0.9065 -0.3436
56293SOL     OW78808   2.776   5.660   3.036 -0.3339 -0.0906  0.5296
56293SOL    HW178809   2.820   5.588   2.991  0.8623  1.3843 -0.7834
56293SOL    HW278810   2.694   5.623   3.066 -0.0298 -1.8471 -0.6529
56294SOL     OW78811   6.677   5.243   9.472  0.0964  0.2801  0.1323
56294SOL    HW178812   6.696   5.250   9.379  1.0025 -0.9768  0.1985
56294SOL    HW278813   6.643   5.329   9.496  0.0690  0.6933 -1.3001
56295SOL     OW78814   9.002   7.715   4.393 -0.0435 -0.4135  0.3818
56295SOL    HW178815   8.980   7.801   4.428  0.0301 -0.1043 -0.3207
56295SOL    HW278816   9.092   7.724   4.361 -0.6083 -0.2286 -1.2678
56296SOL     OW78817  11.558   2.814   3.555 -0.2619  0.3631  0.8956
56296SOL    HW178818  11.592   2.887   3.504  1.5536 -1.8636 -1.3614
56296SOL    HW278819  11.610   2.815   3.636  0.7460  0.7695  0.2614
56297SOL     OW78820   7.154  10.403   8.845 -0.5169  0.1367  0.1211
56297SOL    HW178821   7.160  10.417   8.751  1.0146 -0.3743  0.1207
56297SOL    HW278822   7.081  10.459   8.873 -0.1129  1.3555 -1.1524
56298SOL     OW78823   6.285   4.903   7.032 -0.1164  0.5879 -0.5984
56298SOL    HW178824   6.349   4.940   7.093 -0.8436  0.6335  0.1567
56298SOL    HW278825   6.328   4.826   6.996 -0.1616 -0.2214  0.9878
56299SOL     OW78826  10.342   3.362  11.638 -0.4897  0.3378  0.3146
56299SOL    HW178827  10.309   3.426  11.702  0.5296  1.0678  0.1260
56299SOL    HW278828  10.368   3.415  11.562  0.1304 -0.3259  0.0556
56300SOL     OW78829   0.343   8.966   4.100  0.4930 -0.2403  0.4007
56300SOL    HW178830   0.410   8.900   4.084  1.9702  1.3181 -0.1939
56300SOL    HW278831   0.314   8.992   4.013 -1.7818 -1.6617  0.6403
56301SOL     OW78832   0.006   3.215   9.544 -0.0285 -0.2751 -0.1061
56301SOL    HW178833   0.001   3.230   9.449  1.1160 -0.3548 -0.1924
56301SOL    HW278834  -0.074   3.254   9.578 -0.4006 -0.1326 -1.0929
56302SOL     OW78835   1.794   9.762  12.682 -0.9787  0.5898 -0.4308
56302SOL    HW178836   1.722   9.701  12.692  0.0330 -0.5131  0.4010
56302SOL    HW278837   1.769   9.818  12.608 -2.8075  0.4630  0.0638
56303SOL     OW78838   6.859   7.204   8.790 -0.2738  0.0951 -0.2331
56303SOL    HW178839   6.814   7.288   8.780  2.1454  1.7548  1.7735
56303SOL    HW278840   6.863   7.190   8.885  3.1635 -0.0124 -0.2774
56304SOL     OW78841   2.082   8.317   8.714  0.1273 -0.9488 -0.8877
56304SOL    HW178842   2.129   8.233   8.719 -0.0933 -1.1579 -2.0616
56304SOL    HW278843   2.001   8.301   8.764  0.0674 -1.4521 -1.1323
56305SOL     OW78844   7.146  10.778   0.371 -0.0737 -0.1546 -0.2931
56305SOL    HW178845   7.087  10.716   0.415 -0.2299 -0.4042 -0.8374
56305SOL    HW278846   7.185  10.829   0.441  1.9675 -2.5127  0.4625
56306SOL     OW78847   6.335   1.556  12.360  0.0233 -0.4152 -0.0739
56306SOL    HW178848   6.269   1.587  12.421 -0.0010 -0.3855 -0.1153
56306SOL    HW278849   6.354   1.467  12.389 -1.1111 -0.9614 -0.9630
56307SOL     OW78850   5.246   2.205   1.561 -0.0242 -0.1357 -0.3547
56307SOL    HW178851   5.168   2.185   1.509  0.8679 -2.0089 -1.0570
56307SOL    HW278852   5.256   2.300   1.553 -2.0978  0.1427 -0.3794
56308SOL     OW78853   5.231   1.998   2.406 -0.4391 -0.1886  0.0336
56308SOL    HW178854   5.172   1.940   2.453  0.5848 -1.2853  0.0182
56308SOL    HW278855   5.292   1.940   2.361  2.0637  0.8098  1.8420
56309SOL     OW78856   6.036   1.651   1.609 -0.0273 -0.4211 -0.7303
56309SOL    HW178857   5.965   1.595   1.577  0.3321 -1.1740 -0.2521
56309SOL    HW278858   6.044   1.719   1.543 -0.3885 -1.0132 -1.4084
56310SOL     OW78859   8.386   5.965   5.337 -0.5937 -0.3419 -0.3419
56310SOL    HW178860   8.465   6.018   5.350 -0.4000 -1.0721  2.0544
56310SOL    HW278861   8.317   6.013   5.381 -1.1153 -0.5412 -0.9358
56311SOL     OW78862   9.305   4.176   1.009 -0.1995 -0.0030 -0.0399
56311SOL    HW178863   9.375   4.155   1.070  0.2231  0.5213 -0.3452
56311SOL    HW278864   9.334   4.140   0.925 -1.1253 -1.4170  0.2088
56312SOL     OW78865   3.888   6.982  12.189 -0.1684  0.0278  0.3840
56312SOL    HW178866   3.917   7.072  12.201 -0.2502  0.0952  0.0883
56312SOL    HW278867   3.949   6.929  12.240  0.7886  0.1237 -0.6390
56313SOL     OW78868  10.496   4.243   1.836 -0.1653  0.0527  0.1793
56313SOL    HW178869  10.495   4.274   1.745 -0.4558 -1.9097 -0.5420
56313SOL    HW278870  10.411   4.271   1.871 -1.0050 -1.0670 -0.8766
56314SOL     OW78871   0.819  10.671   3.973  0.5538  0.5011 -0.2488
56314SOL    HW178872   0.902  10.625   3.961  0.0093 -0.4546 -0.4744
56314SOL    HW278873   0.827  10.751   3.921  1.3588  0.4607 -0.1941
56315SOL     OW78874   8.235  10.438   5.907 -0.0778 -0.1959  0.5191
56315SOL    HW178875   8.201  10.476   5.826  1.1752 -1.0664 -0.4621
56315SOL    HW278876   8.162  10.388   5.942 -1.6031  2.5732  1.5802
56316SOL     OW78877   1.418   9.539   7.744 -0.3857 -0.1005  0.5692
56316SOL    HW178878   1.385   9.490   7.819 -0.2747 -0.5659  0.3165
56316SOL    HW278879   1.474   9.477   7.698 -1.2119 -0.1206 -0.4344
56317SOL     OW78880   3.227  10.121   4.028 -0.0227  0.0208 -0.3210
56317SOL    HW178881   3.146  10.076   4.053 -0.3141  1.2657  1.1665
56317SOL    HW278882   3.292  10.089   4.091  0.9863 -1.8095 -2.1847
56318SOL     OW78883   6.603   7.096   6.363 -0.7267  0.4658  0.4763
56318SOL    HW178884   6.638   7.056   6.284  0.3207  1.2608  0.5110
56318SOL    HW278885   6.518   7.053   6.377 -1.6479  1.3564 -1.9068
56319SOL     OW78886  12.662   7.667   2.714  0.1334 -0.4249  0.3685
56319SOL    HW178887  12.609   7.746   2.721 -1.1738 -1.1086 -1.1111
56319SOL    HW278888  12.725   7.686   2.645 -0.1950 -0.6807 -0.0025
56320SOL     OW78889  10.884   4.342  12.955 -0.2439 -0.1357  0.3768
56320SOL    HW178890  10.862   4.405  13.023  0.1426  0.1013  0.2806
56320SOL    HW278891  10.940   4.278  12.998  3.0516  1.9397 -0.5065
56321SOL     OW78892   2.003  12.726   1.681  0.1910 -0.1135 -0.3558
56321SOL    HW178893   1.962  12.782   1.747  0.6828 -0.1702 -0.0008
56321SOL    HW278894   2.012  12.782   1.603  1.2018  0.4779  0.1706
56322SOL     OW78895   1.379   8.350   0.963  0.4661  0.2062  0.1441
56322SOL    HW178896   1.405   8.260   0.943 -0.1682  0.1718 -0.5777
56322SOL    HW278897   1.455   8.388   1.007  0.6002 -0.7930  0.8016
56323SOL     OW78898  13.212   1.223  12.613  0.9263  0.0420 -0.0320
56323SOL    HW178899  13.242   1.254  12.527 -0.1566 -0.7010 -0.7023
56323SOL    HW278900  13.195   1.130  12.601  0.8961 -0.1062  1.0357
56324SOL     OW78901   0.473   1.446   0.894 -0.7793 -0.2108  0.1511
56324SOL    HW178902   0.467   1.352   0.907 -1.5184 -0.2563 -0.4438
56324SOL    HW278903   0.385   1.472   0.866 -0.7379  0.7490  0.8742
56325SOL     OW78904  11.498   6.722   2.399 -0.4127  0.1804 -0.1576
56325SOL    HW178905  11.536   6.668   2.329  0.2446  0.4270  0.0057
56325SOL    HW278906  11.411   6.684   2.413 -0.8330  0.5535 -1.5842
56326SOL     OW78907   5.309   2.944   4.846  0.5384  0.7242  0.5311
56326SOL    HW178908   5.332   2.867   4.897 -1.3663  0.0734  0.4739
56326SOL    HW278909   5.390   2.995   4.842  1.3978 -0.4545  1.9732
56327SOL     OW78910  12.328   6.464  13.164 -0.2908 -0.0570  0.4065
56327SOL    HW178911  12.309   6.551  13.197 -0.4664 -0.1399  0.5302
56327SOL    HW278912  12.258   6.409  13.200 -1.5614  0.1786 -1.5632
56328SOL     OW78913  10.132  11.818   1.453  0.5505  0.4096 -0.5507
56328SOL    HW178914  10.065  11.766   1.498  1.4369  0.7615  1.3047
56328SOL    HW278915  10.092  11.843   1.370 -0.5941 -1.6526 -0.6956
56329SOL     OW78916   9.991   0.049   8.401 -0.2186  0.4037 -0.0769
56329SOL    HW178917   9.947  -0.026   8.360 -0.6853  0.9879 -0.6792
56329SOL    HW278918  10.081   0.021   8.414 -0.7931 -0.9056  1.3800
56330SOL     OW78919   0.194   2.195   6.115  0.4009 -0.6700  0.1352
56330SOL    HW178920   0.112   2.162   6.152  0.6043 -1.2496  0.0884
56330SOL    HW278921   0.257   2.124   6.130  1.6956  0.9008  2.9412
56331SOL     OW78922  10.872  13.043   0.706 -0.2800 -0.1310 -0.0186
56331SOL    HW178923  10.913  13.113   0.655 -0.6806  1.0660  1.2240
56331SOL    HW278924  10.926  12.966   0.690  1.7571  1.0922  0.6181
56332SOL     OW78925   5.902  11.679  10.079 -0.6849  0.7073 -0.2978
56332SOL    HW178926   5.937  11.678   9.990 -2.3563 -0.5711 -0.9981
56332SOL    HW278927   5.893  11.587  10.102  0.3772  1.0194  1.5053
56333SOL     OW78928   5.441   0.024   7.428  0.3874  0.1549 -0.5993
56333SOL    HW178929   5.402   0.074   7.357  1.6513  1.5060 -0.3873
56333SOL    HW278930   5.526  -0.004   7.393 -0.8847 -3.2844 -1.2956
56334SOL     OW78931   8.545   3.264   3.523  0.3808 -0.0110 -0.1357
56334SOL    HW178932   8.546   3.353   3.486  0.4370  0.2966  0.5909
56334SOL    HW278933   8.510   3.276   3.611  0.8234 -0.6560  0.1264
56335SOL     OW78934  12.045   6.375  10.996 -0.4052  0.4384 -0.0426
56335SOL    HW178935  12.064   6.283  10.983  1.2881  0.7715 -0.1356
56335SOL    HW278936  11.953   6.377  11.023 -0.7633 -1.1692 -1.0154
56336SOL     OW78937   9.650   4.582   4.861  0.4558 -0.1388  0.1291
56336SOL    HW178938   9.569   4.618   4.897  0.4760  0.3342 -0.2836
56336SOL    HW278939   9.702   4.659   4.838  1.1492 -0.4439  0.6656
56337SOL     OW78940  12.623  11.902   6.664  0.8212  0.4267  0.3362
56337SOL    HW178941  12.641  11.972   6.726 -0.4250 -0.8236  2.2226
56337SOL    HW278942  12.644  11.821   6.711  1.4296 -0.5313 -1.4774
56338SOL     OW78943  10.013   8.741  12.236 -0.2161 -0.1283 -0.3559
56338SOL    HW178944   9.966   8.662  12.211  2.3924 -1.8560 -0.2873
56338SOL    HW278945  10.101   8.710  12.260  0.1695  2.4658  2.2574
56339SOL     OW78946  10.682  12.113   2.137  0.5944 -0.1419 -0.0177
56339SOL    HW178947  10.626  12.156   2.072  0.4026  1.6787  1.2741
56339SOL    HW278948  10.754  12.077   2.086 -0.1082  0.2608 -1.3561
56340SOL     OW78949   1.742   0.479   6.702 -0.1794 -0.5502  0.1520
56340SOL    HW178950   1.707   0.564   6.678  0.2113 -0.8474 -1.6087
56340SOL    HW278951   1.781   0.492   6.788 -2.2233  0.4248  0.9918
56341SOL     OW78952   8.484  11.561  11.657  0.3911  0.4881  0.1191
56341SOL    HW178953   8.562  11.616  11.648 -0.0863  1.0315 -0.7912
56341SOL    HW278954   8.415  11.610  11.612 -0.3301 -0.2735  0.3888
56342SOL     OW78955   4.357   7.409  12.588 -0.4309  0.1577 -0.1294
56342SOL    HW178956   4.368   7.450  12.502  0.6097  2.5333  1.0333
56342SOL    HW278957   4.310   7.327  12.570 -3.1036  2.0133 -2.6402
56343SOL     OW78958   3.731   8.614   3.841  0.1325 -0.1518 -0.1574
56343SOL    HW178959   3.798   8.614   3.910  1.5207 -1.7513 -1.4118
56343SOL    HW278960   3.671   8.544   3.867 -0.3740  0.4362  0.3064
56344SOL     OW78961   3.954  10.419   8.457  0.1415  0.2745 -0.8228
56344SOL    HW178962   3.924  10.453   8.541  2.3532  1.8439 -0.5876
56344SOL    HW278963   3.988  10.332   8.477 -1.2461 -0.2346 -0.5400
56345SOL     OW78964   6.854   8.969   2.000  0.0902 -0.3656  0.1396
56345SOL    HW178965   6.766   8.932   2.004 -0.6554  0.7607 -3.0484
56345SOL    HW278966   6.842   9.062   2.015  0.3379  0.1376 -2.3504
56346SOL     OW78967   2.020   0.722   1.567  0.0833 -0.2549 -0.7376
56346SOL    HW178968   2.111   0.739   1.590  0.0054 -0.5620 -0.1799
56346SOL    HW278969   1.982   0.809   1.551 -0.1734  0.0940  1.5185
56347SOL     OW78970   4.710   5.481   5.745 -0.6440  0.3956  0.0297
56347SOL    HW178971   4.642   5.549   5.750  0.4992  1.6148 -0.4948
56347SOL    HW278972   4.720   5.465   5.651 -0.3749  0.0406  0.1186
56348SOL     OW78973   5.348   3.054   8.538  0.3854  0.6250 -0.2287
56348SOL    HW178974   5.369   3.117   8.469 -0.0364  1.6721  0.5836
56348SOL    HW278975   5.368   3.099   8.620  0.0690 -0.2922  0.3723
56349SOL     OW78976   5.316  11.753   8.115  0.1433 -0.4901 -0.6346
56349SOL    HW178977   5.261  11.719   8.184 -0.4779  1.3467 -0.1732
56349SOL    HW278978   5.272  11.728   8.034 -0.3104 -0.7507 -0.3082
56350SOL     OW78979   7.515   6.049  12.045  0.2132  0.4990  0.2960
56350SOL    HW178980   7.430   6.023  12.009  0.1791  0.6414  0.2751
56350SOL    HW278981   7.557   6.098  11.974  0.6122 -0.1952  0.0436
56351SOL     OW78982  12.092   5.114  11.053  0.3111 -0.6118  0.7162
56351SOL    HW178983  12.160   5.181  11.061 -0.8944  0.8465 -0.4364
56351SOL    HW278984  12.113   5.069  10.971 -0.4779  0.3843 -0.0814
56352SOL     OW78985  11.076  13.071   8.075  0.0474  0.1430 -0.0987
56352SOL    HW178986  11.049  12.980   8.085 -0.4441 -0.0378 -2.4284
56352SOL    HW278987  11.066  13.109   8.162  1.2994 -2.2612  1.1925
56353SOL     OW78988   4.687  12.538   2.812 -0.0250 -0.5737  0.2277
56353SOL    HW178989   4.702  12.446   2.834 -0.0878 -0.8733 -0.8953
56353SOL    HW278990   4.665  12.579   2.895 -0.2865 -1.6385  0.7096
56354SOL     OW78991   2.445   9.628   3.701 -0.2774 -0.3745 -0.0186
56354SOL    HW178992   2.508   9.564   3.733 -0.3109 -1.1002 -1.3498
56354SOL    HW278993   2.399   9.584   3.630 -0.4330  1.0547 -0.8494
56355SOL     OW78994   9.138   9.660   3.052 -0.3847 -0.2666 -0.0262
56355SOL    HW178995   9.212   9.707   3.090 -0.5151 -0.0918  0.0148
56355SOL    HW278996   9.168   9.631   2.966 -0.1542 -0.4942  0.1292
56356SOL     OW78997  10.473   6.730   3.141 -0.0853  0.4819 -0.2377
56356SOL    HW178998  10.523   6.654   3.171 -0.6918 -0.3327 -1.2531
56356SOL    HW278999  10.434   6.766   3.221 -0.3843 -0.7103  0.1721
56357SOL     OW79000   1.937  10.760   9.260  0.0739 -0.1338 -0.5128
56357SOL    HW179001   2.007  10.706   9.223 -0.4145 -0.9069 -0.3310
56357SOL    HW279002   1.865  10.698   9.276 -0.9313  0.7816 -1.3952
56358SOL     OW79003   9.117   4.545   1.679  0.0411 -0.0377 -0.1556
56358SOL    HW179004   9.032   4.504   1.668 -0.9936  2.2442 -1.1742
56358SOL    HW279005   9.169   4.514   1.605 -0.5066  0.0108 -0.5605
56359SOL     OW79006   7.602   8.259   1.362  0.2534  0.4726 -0.4441
56359SOL    HW179007   7.622   8.275   1.270  0.8097  1.0632 -0.2297
56359SOL    HW279008   7.508   8.277   1.369  0.3054  0.9161 -0.7977
56360SOL     OW79009   4.187  13.113   8.562  0.1090 -0.4105  0.7980
56360SOL    HW179010   4.225  13.163   8.490 -3.5428  0.6605 -0.6029
56360SOL    HW279011   4.207  13.022   8.542 -1.1726 -0.1917 -1.9154
56361SOL     OW79012   6.435   6.597   3.369 -0.0336 -0.1999  0.7001
56361SOL    HW179013   6.393   6.680   3.391 -3.2672 -1.6237  0.3370
56361SOL    HW279014   6.406   6.578   3.280  1.4255 -1.3323  0.4199
56362SOL     OW79015   3.245  13.042   1.404 -0.4989 -0.0788 -0.2488
56362SOL    HW179016   3.257  12.985   1.480  0.7356 -0.2510 -0.5559
56362SOL    HW279017   3.221  12.983   1.333 -0.1432 -0.1141 -0.3439
56363SOL     OW79018   2.012   8.346   3.214 -0.0729  0.0190  0.3881
56363SOL    HW179019   2.048   8.343   3.302 -1.7752  0.3587  1.1385
56363SOL    HW279020   2.021   8.438   3.187  0.0805 -0.0018  0.3702
56364SOL     OW79021   8.449   7.786   0.024  0.2717  0.3718 -0.2097
56364SOL    HW179022   8.530   7.788   0.074 -0.8182 -2.1781  1.9240
56364SOL    HW279023   8.400   7.712   0.060 -2.2011  0.5998 -2.7002
56365SOL     OW79024   0.296   2.161   7.014  0.1568 -0.1680  0.5194
56365SOL    HW179025   0.217   2.109   7.031  0.0019  0.0836  0.5811
56365SOL    HW279026   0.358   2.099   6.977  0.4136 -0.6774  1.7552
56366SOL     OW79027   8.568  10.854   1.966  0.0855 -0.1913 -0.6883
56366SOL    HW179028   8.633  10.923   1.953 -0.8704  0.3832 -2.6593
56366SOL    HW279029   8.488  10.888   1.927 -0.0478 -2.9349 -3.1717
56367SOL     OW79030   7.277  11.398   7.713  0.1332  0.0385 -0.0291
56367SOL    HW179031   7.182  11.405   7.715  0.1133 -0.4254  1.6395
56367SOL    HW279032   7.294  11.331   7.647 -0.6801  0.2043 -0.4224
56368SOL     OW79033   2.688   6.349  12.399 -0.0060 -0.2316 -0.3400
56368SOL    HW179034   2.757   6.284  12.412  1.2994  1.3070  0.7094
56368SOL    HW279035   2.693   6.405  12.476 -1.4448  0.8271 -0.9752
56369SOL     OW79036   6.737   5.945   0.026  0.1356 -0.1906 -0.1274
56369SOL    HW179037   6.711   5.891  -0.049  1.9027  0.8618 -1.5870
56369SOL    HW279038   6.812   5.900   0.063 -1.8941 -1.7975  2.4140
56370SOL     OW79039  11.758   9.840  11.726  0.0767 -0.0207  0.6752
56370SOL    HW179040  11.849   9.848  11.697 -0.1939  0.6478 -0.0117
56370SOL    HW279041  11.713   9.795  11.655 -0.4561  1.0639  0.2977
56371SOL     OW79042   5.008   2.425   4.589 -0.0326 -0.4620  0.0425
56371SOL    HW179043   5.080   2.443   4.529  0.9290 -0.6907  1.0943
56371SOL    HW279044   4.972   2.341   4.558  0.3701 -0.5176 -0.2852
56372SOL     OW79045   8.475  11.188  10.458 -0.4345 -0.0380  0.7577
56372SOL    HW179046   8.402  11.132  10.432 -1.0969  0.9320  0.4787
56372SOL    HW279047   8.484  11.250  10.387  0.9102 -0.3535  0.6226
56373SOL     OW79048   8.269   3.666  13.090 -0.1178  0.2947 -0.3051
56373SOL    HW179049   8.260   3.746  13.038 -1.5318  1.0213  0.9699
56373SOL    HW279050   8.307   3.602  13.030  0.4597  1.7433 -1.5405
56374SOL     OW79051   9.767   6.974  11.871 -0.0388 -0.7025 -0.1285
56374SOL    HW179052   9.801   6.890  11.840  1.4701 -0.1111 -0.1483
56374SOL    HW279053   9.830   7.003  11.937 -1.0925 -0.0617  0.6312
56375SOL     OW79054   4.076   6.783  11.558  0.6384 -0.0017 -0.1246
56375SOL    HW179055   4.009   6.765  11.491  0.6235 -2.4635  0.4392
56375SOL    HW279056   4.026   6.798  11.638  0.7008 -1.1867  0.1578
56376SOL     OW79057   7.939   9.565   4.753 -0.0531 -0.4632  0.1872
56376SOL    HW179058   7.851   9.600   4.764 -0.5611 -0.7652 -2.3258
56376SOL    HW279059   7.948   9.499   4.821 -2.8058 -2.2697 -1.0483
56377SOL     OW79060   4.058   6.143   9.953  0.4524  0.1713  0.1272
56377SOL    HW179061   3.990   6.111  10.011 -0.3377  0.3708 -0.6586
56377SOL    HW279062   4.057   6.238   9.964  0.6857  0.1657  0.2045
56378SOL     OW79063   3.520   8.058   6.104 -0.0304 -0.9316 -0.1828
56378SOL    HW179064   3.438   8.010   6.087  0.0719 -0.8157 -1.0676
56378SOL    HW279065   3.584   8.018   6.045  0.1308  0.0800 -0.7169
56379SOL     OW79066  11.882   9.532   3.400 -0.6100  0.7628 -0.8595
56379SOL    HW179067  11.956   9.476   3.377 -1.2152  0.1670 -1.4108
56379SOL    HW279068  11.921   9.617   3.420  0.5436 -0.2665  1.7459
56380SOL     OW79069   0.099  12.961   8.057  0.3354 -0.0444 -0.0036
56380SOL    HW179070   0.114  12.931   8.146 -0.1669 -0.5055 -0.0638
56380SOL    HW279071   0.008  12.935   8.039 -0.6777  2.7978  0.4484
56381SOL     OW79072   2.750   0.302   0.641  0.0273  0.5499  0.0852
56381SOL    HW179073   2.816   0.315   0.572  1.1693 -1.3305  0.7429
56381SOL    HW279074   2.761   0.378   0.698  0.7406  0.9191 -0.5129
56382SOL     OW79075  12.388   8.218   8.092  1.0819 -0.7291  0.0665
56382SOL    HW179076  12.455   8.193   8.029  1.2413 -0.9096  0.3040
56382SOL    HW279077  12.438   8.241   8.171  0.9485  0.4333 -0.1757
56383SOL     OW79078  12.169  12.294   6.718 -0.1261 -0.0714 -0.5507
56383SOL    HW179079  12.189  12.242   6.795  0.4294 -0.4596 -0.9513
56383SOL    HW279080  12.246  12.349   6.705 -0.6978  0.8467 -0.1404
56384SOL     OW79081  12.801  10.223   8.607  0.2021 -0.0081  0.2561
56384SOL    HW179082  12.845  10.140   8.589 -0.2827 -0.5884  1.6216
56384SOL    HW279083  12.714  10.213   8.569  0.2820  0.0412  0.0571
56385SOL     OW79084  10.592   0.132   6.956  0.5452  0.0755  0.3159
56385SOL    HW179085  10.686   0.140   6.939  0.2409 -0.4342 -1.9966
56385SOL    HW279086  10.578   0.038   6.972  0.2020 -0.1777 -1.3034
56386SOL     OW79087   0.717   9.202   2.130 -0.0039  0.8368  1.0728
56386SOL    HW179088   0.634   9.170   2.095  0.9136 -2.4593  1.6258
56386SOL    HW279089   0.696   9.237   2.217 -1.0637  1.9446  0.3994
56387SOL     OW79090   5.461   8.923   7.909 -0.3662 -0.1605  0.5555
56387SOL    HW179091   5.418   8.912   7.824  0.0739 -2.2161  0.5587
56387SOL    HW279092   5.392   8.954   7.967 -1.1613 -0.6513 -0.0997
56388SOL     OW79093   2.331   8.204   6.804 -0.0574 -0.0422 -0.1405
56388SOL    HW179094   2.344   8.293   6.834 -0.5058 -0.2441  0.6752
56388SOL    HW279095   2.393   8.194   6.731  1.0567  0.4546  0.7101
56389SOL     OW79096   4.339   8.176   1.177 -0.3326 -0.9833  0.0830
56389SOL    HW179097   4.257   8.223   1.195 -1.3147 -2.8655  0.9008
56389SOL    HW279098   4.399   8.206   1.245 -1.0425 -1.1440  0.7998
56390SOL     OW79099   6.479   4.216  12.689  0.4935 -0.0681  0.2035
56390SOL    HW179100   6.462   4.284  12.754  0.7345  1.6279 -1.4009
56390SOL    HW279101   6.400   4.216  12.634  0.2968 -1.4573  0.4461
56391SOL     OW79102   2.905   3.779   3.982 -0.2345 -0.7091 -0.5146
56391SOL    HW179103   2.815   3.784   3.953  0.7097  1.4417 -3.5518
56391SOL    HW279104   2.951   3.847   3.933  2.8791 -0.9671  1.6636
56392SOL     OW79105   4.528   4.102   2.193 -0.1678  0.0664  0.0941
56392SOL    HW179106   4.610   4.126   2.238 -0.4383  0.0545  0.6056
56392SOL    HW279107   4.515   4.171   2.129  0.2543  0.0608  0.0020
56393SOL     OW79108   5.620   7.654   9.094  0.4328 -0.0511 -0.2911
56393SOL    HW179109   5.553   7.712   9.130  0.3618  0.1332 -0.7045
56393SOL    HW279110   5.574   7.571   9.080 -1.0508  1.1736 -4.6178
56394SOL     OW79111   3.922   5.736   0.905  0.2474  0.2918 -0.4871
56394SOL    HW179112   4.015   5.715   0.901  0.5200  1.3970 -0.2645
56394SOL    HW279113   3.919   5.823   0.945 -0.9577 -0.2875  0.7590
56395SOL     OW79114  10.603   4.296   5.487 -0.0050  0.0205 -0.4098
56395SOL    HW179115  10.630   4.209   5.518  1.1672  1.1250  1.8993
56395SOL    HW279116  10.517   4.309   5.527 -0.4193 -0.2393 -1.1831
56396SOL     OW79117   3.290   8.907   8.878 -0.2779 -0.3838  0.3757
56396SOL    HW179118   3.225   8.899   8.809 -1.3487  0.2351  1.2746
56396SOL    HW279119   3.285   8.825   8.927 -1.7214  0.3390  1.5320
56397SOL     OW79120  11.401   2.663   0.182  0.1327  0.4795  0.0083
56397SOL    HW179121  11.347   2.677   0.104  0.9259  0.4636 -0.5537
56397SOL    HW279122  11.342   2.623   0.246 -0.0451 -1.4248 -1.2667
56398SOL     OW79123  11.881   5.586   8.675  0.0274  0.3517  0.0551
56398SOL    HW179124  11.959   5.557   8.629 -0.7158  0.8029 -1.5868
56398SOL    HW279125  11.857   5.513   8.732  2.1384  0.5742  1.3095
56399SOL     OW79126   0.640  11.379   9.704 -0.1695  0.1051 -0.4968
56399SOL    HW179127   0.630  11.409   9.795  1.1748 -0.3863 -0.1559
56399SOL    HW279128   0.721  11.421   9.674  1.9726 -3.1971  0.0900
56400SOL     OW79129   3.303   0.891   7.657  0.1980  0.1515  0.1374
56400SOL    HW179130   3.337   0.940   7.581  0.0594  0.4005  0.2365
56400SOL    HW279131   3.249   0.955   7.704  2.0435  0.6584  1.6673
56401SOL     OW79132  11.456  10.757  10.456 -0.4636 -0.4432 -0.4076
56401SOL    HW179133  11.465  10.663  10.469 -2.1977 -0.4353  1.3622
56401SOL    HW279134  11.544  10.792  10.472  0.5187 -1.8114 -2.3696
56402SOL     OW79135   5.219   2.039   8.859 -0.2491  0.2776  0.2274
56402SOL    HW179136   5.195   2.040   8.766  0.1546  0.2377  0.1206
56402SOL    HW279137   5.139   2.066   8.905 -1.5256 -2.8130  0.1123
56403SOL     OW79138  13.210   1.863   4.068 -0.1515  0.4742  0.6294
56403SOL    HW179139  13.139   1.865   4.005  0.9101  3.2573 -0.6410
56403SOL    HW279140  13.176   1.911   4.144 -0.7268 -1.1051  1.4018
56404SOL     OW79141   1.762   1.518   6.199 -0.4509  0.0483 -0.5964
56404SOL    HW179142   1.822   1.550   6.132  1.3852  0.2473  1.0429
56404SOL    HW279143   1.688   1.580   6.196  0.4749  1.1745 -1.1669
56405SOL     OW79144   6.016  11.191   9.672 -0.3364  0.3094 -0.1026
56405SOL    HW179145   6.017  11.156   9.761  1.2010 -1.7464 -0.8466
56405SOL    HW279146   6.101  11.234   9.662 -0.7890  1.1645 -0.3612
56406SOL     OW79147   2.259   7.508   2.279 -0.0978 -0.1439  0.3678
56406SOL    HW179148   2.293   7.420   2.296  0.2745  0.0272  0.5457
56406SOL    HW279149   2.301   7.534   2.198  0.2347  0.0849  0.6091
56407SOL     OW79150   9.441  13.039   1.981  0.0260 -0.4460  0.1307
56407SOL    HW179151   9.372  13.105   1.988  0.4213 -0.0203  0.1138
56407SOL    HW279152   9.444  12.997   2.067  0.7302  0.5444  0.6094
56408SOL     OW79153   3.047   6.424   0.111  0.7159  0.5758 -0.4280
56408SOL    HW179154   3.103   6.428   0.033 -0.8104  0.6122 -1.5571
56408SOL    HW279155   3.031   6.515   0.135 -0.5750  0.6260 -1.4022
56409SOL     OW79156   0.293   9.313   3.177  0.0020  0.0835 -0.7182
56409SOL    HW179157   0.198   9.313   3.172 -0.1097 -0.2348  0.7519
56409SOL    HW279158   0.323   9.309   3.086 -1.3647  1.3145 -1.2557
56410SOL     OW79159   2.398   9.647   0.853 -0.1766  0.5431 -0.9745
56410SOL    HW179160   2.464   9.703   0.894 -0.7924 -0.6415  1.8867
56410SOL    HW279161   2.449   9.577   0.811  0.4560  1.2458 -1.4011
56411SOL     OW79162   1.463   0.472   8.199  0.5326 -0.8061  0.2096
56411SOL    HW179163   1.481   0.562   8.225  1.5885 -1.0833  0.4536
56411SOL    HW279164   1.367   0.468   8.194  0.2565 -0.5775  3.4797
56412SOL     OW79165   5.497  12.762   4.697 -0.1119  0.6808  0.3130
56412SOL    HW179166   5.450  12.751   4.615 -0.1661 -0.1930  0.4480
56412SOL    HW279167   5.564  12.828   4.678 -0.2792  0.6612 -0.3625
56413SOL     OW79168   2.127   2.104   6.591  0.1401 -0.2826  0.6010
56413SOL    HW179169   2.181   2.064   6.522  0.8903  0.7492  0.5543
56413SOL    HW279170   2.043   2.059   6.586  0.5480 -0.9691 -0.2680
56414SOL     OW79171  12.707  13.233   7.270 -0.0157  0.5070 -0.6625
56414SOL    HW179172  12.705  13.166   7.202  0.1552 -0.6684  0.4486
56414SOL    HW279173  12.796  13.228   7.306 -0.7066 -0.3376  1.0133
56415SOL     OW79174  11.640   4.627   5.797 -0.6663 -0.7728  0.0290
56415SOL    HW179175  11.735   4.632   5.790 -0.7513  0.0096 -0.6259
56415SOL    HW279176  11.619   4.535   5.778 -0.0069 -1.0781  0.7299
56416SOL     OW79177   7.554   5.060  11.051  0.4545 -0.5983  0.3329
56416SOL    HW179178   7.624   5.014  11.005  0.0392 -3.8126  2.5608
56416SOL    HW279179   7.589   5.074  11.139 -0.6724  0.4081  0.6472
56417SOL     OW79180   0.653  11.162  10.780 -0.5718 -0.5972  0.2494
56417SOL    HW179181   0.645  11.067  10.776  0.9510 -0.9634  3.0876
56417SOL    HW279182   0.584  11.189  10.840  0.1346 -0.1577  0.8786
56418SOL     OW79183   4.221   5.509   3.297  0.1674  0.6484 -0.2408
56418SOL    HW179184   4.201   5.443   3.365  2.1329  1.4343  1.2025
56418SOL    HW279185   4.228   5.458   3.216  0.7537 -0.8273  0.6783
56419SOL     OW79186   4.165   5.829   7.079  0.1902 -0.0351 -0.1055
56419SOL    HW179187   4.107   5.779   7.021 -0.6655  0.4862  0.2970
56419SOL    HW279188   4.149   5.793   7.166  0.4043  0.1795  0.0238
56420SOL     OW79189  10.268   1.367   5.501 -0.9858 -0.2751 -0.3139
56420SOL    HW179190  10.276   1.318   5.419 -0.8925  0.7809 -0.9513
56420SOL    HW279191  10.226   1.449   5.476  1.9393  1.4994  0.0794
56421SOL     OW79192  11.385   0.586   7.786  0.2988 -0.5371 -0.1658
56421SOL    HW179193  11.317   0.541   7.736  0.9402 -1.9636  0.1988
56421SOL    HW279194  11.466   0.543   7.760  0.7529 -0.7331  1.4570
56422SOL     OW79195   7.962   2.645  10.771  0.2071  0.3370  0.0446
56422SOL    HW179196   8.048   2.661  10.811  0.8821 -3.3009  0.3603
56422SOL    HW279197   7.980   2.638  10.678  0.0016  0.8963 -0.0400
56423SOL     OW79198   0.955   6.582   8.513  0.0616  0.4566  0.1181
56423SOL    HW179199   1.030   6.559   8.458 -0.0040 -1.2873  0.7102
56423SOL    HW279200   0.937   6.503   8.565 -3.5449 -0.0351 -1.5341
56424SOL     OW79201   4.483   8.323   7.659  0.5769 -0.2807  0.0736
56424SOL    HW179202   4.521   8.236   7.672  0.9241 -0.3519 -1.2707
56424SOL    HW279203   4.508   8.346   7.570 -0.8301  0.5510 -0.1178
56425SOL     OW79204   7.734   0.910   2.927  0.4246 -0.1807  0.2074
56425SOL    HW179205   7.762   0.999   2.905 -0.1463 -0.0084  0.1787
56425SOL    HW279206   7.816   0.861   2.934  0.7000 -0.2769 -2.4547
56426SOL     OW79207   5.654   7.267   3.101  0.4188  0.3261  0.1149
56426SOL    HW179208   5.627   7.254   3.192  0.2110  0.5216  0.0827
56426SOL    HW279209   5.723   7.202   3.087 -0.0736 -0.2285  0.1828
56427SOL     OW79210   7.179   4.350   1.676 -0.1688  0.5076  0.4281
56427SOL    HW179211   7.215   4.309   1.597  0.4692  1.8953 -0.0233
56427SOL    HW279212   7.239   4.326   1.746  0.8869  1.6267 -0.0600
56428SOL     OW79213   6.914   5.081   0.009 -0.2987  0.2939  0.4218
56428SOL    HW179214   6.966   5.121   0.079  1.2520  0.3134 -0.7020
56428SOL    HW279215   6.901   5.151  -0.055 -1.3269  0.1540  0.4600
56429SOL     OW79216   4.506   1.578  12.923 -0.6959 -0.1083  0.5675
56429SOL    HW179217   4.581   1.524  12.947 -0.4089 -0.8291 -1.7615
56429SOL    HW279218   4.495   1.637  12.998  4.0638  2.1196 -0.1345
56430SOL     OW79219  11.920   6.632  11.638 -0.1829 -0.1296  0.3283
56430SOL    HW179220  11.906   6.640  11.544  1.9332  0.2287 -0.0071
56430SOL    HW279221  11.909   6.721  11.672  0.4112  0.0015  0.1899
56431SOL     OW79222  11.224   5.702  12.929  0.2577  0.0234 -0.1157
56431SOL    HW179223  11.303   5.675  12.975 -1.4869 -2.2881  1.8514
56431SOL    HW279224  11.207   5.631  12.867 -1.0217 -0.2908  0.5563
56432SOL     OW79225   0.927   2.742  13.172 -0.5954  0.0727 -0.0603
56432SOL    HW179226   0.923   2.837  13.183 -1.0655  0.1562 -0.9208
56432SOL    HW279227   0.936   2.728  13.078 -2.0490 -0.7625 -0.1186
56433SOL     OW79228   7.968   6.048   2.246 -0.1153 -0.4514  0.3952
56433SOL    HW179229   8.026   6.072   2.173 -0.5627  0.4414  0.3179
56433SOL    HW279230   8.028   6.034   2.320  0.1951  0.9970  0.4562
56434SOL     OW79231   7.587   9.880  12.796  0.3549 -0.0433  0.0533
56434SOL    HW179232   7.553   9.957  12.750  1.0197  0.7624  0.8611
56434SOL    HW279233   7.680   9.879  12.774  0.3335 -0.6785 -0.0257
56435SOL     OW79234   4.073   4.270  11.871 -0.1419 -0.2259 -0.1748
56435SOL    HW179235   4.058   4.186  11.827  2.3595 -0.1130 -1.3958
56435SOL    HW279236   4.060   4.335  11.802  1.0115  0.1511 -0.0582
56436SOL     OW79237   4.806  10.768   2.869 -0.1216  0.3529  0.3014
56436SOL    HW179238   4.863  10.754   2.945  1.5238  1.1420 -0.7231
56436SOL    HW279239   4.729  10.811   2.905 -0.9238 -2.2683  2.0017
56437SOL     OW79240   6.773   9.156  13.296 -0.3458 -0.5333 -0.3868
56437SOL    HW179241   6.690   9.129  13.258  0.5410 -1.5303 -1.7364
56437SOL    HW279242   6.751   9.191  13.382 -1.8820 -3.4456  0.5541
56438SOL     OW79243   4.434   0.545   8.084 -0.2870 -0.3337 -0.5102
56438SOL    HW179244   4.369   0.484   8.117 -0.0056  0.4440  1.6247
56438SOL    HW279245   4.384   0.609   8.033 -0.7082 -1.6473 -1.8137
56439SOL     OW79246  11.029   1.316   5.219 -0.2842 -0.0902 -0.4112
56439SOL    HW179247  11.077   1.243   5.258  0.9337  1.3693  0.9702
56439SOL    HW279248  10.969   1.275   5.156 -0.5917 -2.3651  1.2526
56440SOL     OW79249   4.789  12.787  12.529 -0.1546 -0.3170 -0.3022
56440SOL    HW179250   4.883  12.801  12.537 -0.1596  1.1575 -2.2255
56440SOL    HW279251   4.782  12.700  12.488  0.5397  0.6542 -2.6601
56441SOL     OW79252   6.764   1.483   5.063 -0.0148  1.2141 -0.2239
56441SOL    HW179253   6.730   1.474   5.152  0.4250 -0.2590 -0.1767
56441SOL    HW279254   6.831   1.415   5.056 -0.4672  0.8862 -1.8728
56442SOL     OW79255   3.946   1.442   6.005 -0.4037 -0.2863  0.3339
56442SOL    HW179256   4.026   1.488   6.030  0.0976 -0.4697 -0.8553
56442SOL    HW279257   3.931   1.468   5.914 -1.0763 -1.1178  0.1920
56443SOL     OW79258   9.272   2.932   3.974 -0.2762  0.1867  0.0409
56443SOL    HW179259   9.342   2.996   3.989 -2.2755  2.4903  0.2579
56443SOL    HW279260   9.306   2.874   3.907  0.8808  2.9021 -1.8873
56444SOL     OW79261   9.276   7.144   6.444 -0.2878 -0.0745  0.3058
56444SOL    HW179262   9.274   7.066   6.388  0.4416  0.3181 -0.2771
56444SOL    HW279263   9.184   7.170   6.452 -0.5697 -1.1302  0.7147
56445SOL     OW79264   6.647   0.044   8.072 -0.3240  0.3535  0.3120
56445SOL    HW179265   6.711  -0.006   8.125  0.8782  0.1661 -1.2364
56445SOL    HW279266   6.604   0.101   8.135  0.7612 -0.1530  1.5770
56446SOL     OW79267  12.312  11.842   1.663 -0.4149 -0.8031 -0.6633
56446SOL    HW179268  12.262  11.906   1.611  1.8651  2.2388  0.5852
56446SOL    HW279269  12.389  11.823   1.609  0.1917 -0.4450  0.0656
56447SOL     OW79270   1.376   3.657  11.042  1.1234  0.2005  0.2372
56447SOL    HW179271   1.458   3.683  11.001  0.7300  0.2694 -0.5152
56447SOL    HW279272   1.318   3.635  10.969  0.5241 -0.0107  0.7644
56448SOL     OW79273   6.498   2.573   0.955 -0.1600 -0.1424 -0.2043
56448SOL    HW179274   6.462   2.514   0.889  1.0737 -1.4493  0.2408
56448SOL    HW279275   6.532   2.516   1.023 -1.9306  1.1685  1.9312
56449SOL     OW79276   4.908   6.606   2.463  0.4348 -0.9297  0.9923
56449SOL    HW179277   4.989   6.582   2.507  0.6729  2.8580  3.0544
56449SOL    HW279278   4.936   6.656   2.386  0.0979  0.0716  1.5037
56450SOL     OW79279   5.963   0.355   8.856 -0.1727  0.0257 -0.1243
56450SOL    HW179280   5.912   0.382   8.780 -0.0141  2.8069  0.6343
56450SOL    HW279281   5.899   0.318   8.916 -0.7225  0.2394 -0.5666
56451SOL     OW79282  11.048   4.458   5.426  0.5109 -0.0873 -0.3731
56451SOL    HW179283  11.081   4.484   5.512 -0.8955 -0.6743  0.3812
56451SOL    HW279284  10.953   4.470   5.432  0.3019 -0.9630 -1.5435
56452SOL     OW79285   1.381   4.232   8.303  0.1339 -0.3183 -0.1236
56452SOL    HW179286   1.440   4.280   8.244  0.2468  0.6580  0.7630
56452SOL    HW279287   1.435   4.208   8.377 -0.6775  1.1210  0.9883
56453SOL     OW79288   2.259   3.731   0.422  0.4338  0.0388 -0.3284
56453SOL    HW179289   2.203   3.653   0.412  2.9853 -2.2177  1.4853
56453SOL    HW279290   2.306   3.737   0.339  0.1322 -0.2454 -0.5271
56454SOL     OW79291   8.491  11.412   2.918 -0.2704 -0.2913 -0.2881
56454SOL    HW179292   8.475  11.318   2.917 -0.9686 -0.1840 -0.1131
56454SOL    HW279293   8.403  11.450   2.909 -0.5093  0.3923  3.5697
56455SOL     OW79294   0.451   1.102   8.697 -0.1005  0.9100  0.1523
56455SOL    HW179295   0.357   1.086   8.711 -0.7712  1.5385 -2.8488
56455SOL    HW279296   0.455   1.189   8.659  1.5835  0.4694 -0.7689
56456SOL     OW79297  12.325  11.369   5.954 -0.3021 -0.0443 -0.0914
56456SOL    HW179298  12.301  11.314   5.879  0.2109  1.2636 -1.2596
56456SOL    HW279299  12.285  11.454   5.935  0.7306  0.6173  0.5904
56457SOL     OW79300   3.521   1.062   4.310  0.3705  0.4076  0.1713
56457SOL    HW179301   3.488   1.059   4.400 -1.4070  0.8017 -0.4288
56457SOL    HW279302   3.586   1.132   4.311  1.2387 -0.3820  1.4026
56458SOL     OW79303   4.910   9.637   2.512 -0.1307 -0.0626  0.8427
56458SOL    HW179304   4.959   9.708   2.469  1.3585 -2.7033 -2.2194
56458SOL    HW279305   4.821   9.646   2.479  0.2026 -0.0041 -0.0741
56459SOL     OW79306   9.106   7.602  12.184  0.1356  0.4138 -0.8345
56459SOL    HW179307   9.013   7.622  12.192 -0.0458 -0.9000  1.2492
56459SOL    HW279308   9.110   7.529  12.123 -0.5337 -1.1473  0.8860
56460SOL     OW79309   5.776   4.482  10.034  0.5600 -0.9710 -0.0162
56460SOL    HW179310   5.826   4.551  10.076  0.2286 -0.0712 -1.0603
56460SOL    HW279311   5.815   4.401  10.065 -0.6663 -0.4471  3.3206
56461SOL     OW79312   1.866   0.159   3.633  0.2239 -0.5819  0.1626
56461SOL    HW179313   1.860   0.065   3.623  1.0245 -0.6857  0.5602
56461SOL    HW279314   1.777   0.188   3.654 -0.2115 -1.1220 -0.9089
56462SOL     OW79315  12.725  12.741   3.587  0.2248  0.0853  0.1519
56462SOL    HW179316  12.697  12.778   3.671 -1.7372 -0.9518 -0.0020
56462SOL    HW279317  12.687  12.800   3.521  0.3056 -0.0778 -0.0395
56463SOL     OW79318   7.687  11.022   1.478  0.5375  0.0450 -0.2631
56463SOL    HW179319   7.740  10.955   1.436  0.0155 -0.7011  0.2559
56463SOL    HW279320   7.611  10.975   1.513 -0.3890  1.0637 -0.8502
56464SOL     OW79321   7.807  11.026   8.792  0.3515  0.3604 -0.2015
56464SOL    HW179322   7.880  11.026   8.853 -1.0334  1.0841  1.5508
56464SOL    HW279323   7.825  10.953   8.733  1.9077 -0.1691  0.8621
56465SOL     OW79324   5.418   3.247   9.795 -0.5768  0.0297  0.8223
56465SOL    HW179325   5.455   3.198   9.721  1.0922 -2.0338  2.8613
56465SOL    HW279326   5.341   3.290   9.759  0.2363 -0.7440 -2.1351
56466SOL     OW79327   1.597   4.719  12.002  0.2806 -0.3214 -0.7130
56466SOL    HW179328   1.569   4.650  12.061 -0.2571  0.8674  0.4761
56466SOL    HW279329   1.659   4.676  11.942 -1.6673 -2.3105 -1.4317
56467SOL     OW79330   3.764   8.822   6.698 -0.0757 -0.0281 -0.6745
56467SOL    HW179331   3.763   8.917   6.704 -2.7811 -0.0592  1.4611
56467SOL    HW279332   3.723   8.803   6.614 -0.9853  0.7469 -0.4321
56468SOL     OW79333   5.600   3.197   3.830 -0.5230  0.1793 -0.0836
56468SOL    HW179334   5.612   3.292   3.838 -1.4079  0.2132  0.9210
56468SOL    HW279335   5.568   3.185   3.740 -0.3684  0.8207 -0.2316
56469SOL     OW79336   5.667   9.440   8.190 -0.2765  0.1625 -0.4253
56469SOL    HW179337   5.665   9.535   8.182  0.6612  0.2668  0.3675
56469SOL    HW279338   5.732   9.411   8.126 -2.2802 -0.2112 -2.4441
56470SOL     OW79339   3.917   5.039  10.578 -0.5348  0.2593  0.0513
56470SOL    HW179340   3.924   5.118  10.524  1.6121  0.7702  0.9938
56470SOL    HW279341   3.929   4.967  10.517 -0.7092  0.7229 -0.5429
56471SOL     OW79342   7.346  13.085   7.572 -0.0691 -0.3462 -0.9281
56471SOL    HW179343   7.280  13.152   7.558  0.9898  0.6092 -1.5302
56471SOL    HW279344   7.414  13.128   7.624 -0.1550 -1.4709  0.1706
56472SOL     OW79345   9.525   4.356   1.882  0.5170 -0.0617  0.1774
56472SOL    HW179346   9.569   4.360   1.967 -0.0545  0.3013  0.4589
56472SOL    HW279347   9.569   4.284   1.836  1.1990  0.0977  0.5655
56473SOL     OW79348   6.445   1.315  10.686 -0.5419 -0.0195  0.1955
56473SOL    HW179349   6.395   1.235  10.701 -0.5396 -0.2557 -0.9025
56473SOL    HW279350   6.532   1.284  10.659 -1.0502  0.2669 -1.9790
56474SOL     OW79351   7.890   8.314  12.598 -0.2226 -0.1788 -0.4938
56474SOL    HW179352   7.962   8.255  12.618 -0.4347 -0.8129 -1.4960
56474SOL    HW279353   7.915   8.398  12.637  1.0917 -0.3671 -0.8833
56475SOL     OW79354   5.970  11.293  11.904  0.5674 -0.7185  0.0171
56475SOL    HW179355   5.883  11.325  11.881  0.5327 -0.6224  0.2850
56475SOL    HW279356   5.993  11.339  11.984  1.2844  0.0003 -0.5778
56476SOL     OW79357   8.758   9.525   4.237 -0.0902 -0.3420  0.0355
56476SOL    HW179358   8.687   9.520   4.301  0.7925  1.8670  1.3078
56476SOL    HW279359   8.823   9.461   4.269 -0.1813 -0.1323  0.6662
56477SOL     OW79360  13.278  12.452  12.569  0.5261  0.1556  0.3065
56477SOL    HW179361  13.324  12.526  12.608  0.7445 -0.4359  1.1819
56477SOL    HW279362  13.222  12.492  12.502 -0.4944  1.2848  1.7753
56478SOL     OW79363   9.120   0.490   3.246  0.0607 -0.1894 -0.0122
56478SOL    HW179364   9.125   0.586   3.242  1.8942 -0.2488  0.1655
56478SOL    HW279365   9.127   0.462   3.155  0.0935 -0.1725 -0.0148
56479SOL     OW79366   9.793  13.204   0.904 -0.1234 -0.7761 -0.4829
56479SOL    HW179367   9.806  13.262   0.829 -0.2121 -0.2055 -0.0689
56479SOL    HW279368   9.704  13.222   0.932 -0.7406 -2.3387 -1.3562
56480SOL     OW79369   3.037   8.298   0.928  0.4175 -0.3655  0.2461
56480SOL    HW179370   3.022   8.327   1.017 -0.0563 -0.0088  0.0532
56480SOL    HW279371   2.954   8.313   0.883  0.6659 -0.4887 -0.2672
56481SOL     OW79372   5.761   8.569   9.200 -0.5957 -1.0513 -0.0817
56481SOL    HW179373   5.779   8.500   9.136 -0.5167  0.8206 -2.1684
56481SOL    HW279374   5.825   8.552   9.270 -0.0529 -2.6182 -0.8943
56482SOL     OW79375   0.758   4.329   3.070 -0.2975 -0.0917 -0.0683
56482SOL    HW179376   0.688   4.270   3.097  0.4013 -2.1500 -2.4162
56482SOL    HW279377   0.730   4.361   2.984  1.0075  0.1073 -0.4368
56483SOL     OW79378   4.247  12.423  11.873  0.2006 -0.1988  0.1797
56483SOL    HW179379   4.225  12.469  11.953  1.0558 -0.5417  0.6254
56483SOL    HW279380   4.250  12.491  11.806  0.1008  0.1832  0.5599
56484SOL     OW79381   6.888   1.649  10.855 -0.4262 -0.5550  0.4323
56484SOL    HW179382   6.824   1.670  10.787 -1.4609 -1.2150  1.1564
56484SOL    HW279383   6.965   1.700  10.833 -1.7680  1.5959  0.4273
56485SOL     OW79384   9.679  12.567   0.461  0.7886  0.7669 -0.4601
56485SOL    HW179385   9.705  12.569   0.369 -3.7133 -0.0490 -2.0064
56485SOL    HW279386   9.686  12.475   0.486 -0.8415  0.4330 -1.0813
56486SOL     OW79387  11.066  12.469   9.198 -0.0406 -0.0466  0.2408
56486SOL    HW179388  11.057  12.547   9.252 -1.3579 -1.2864  1.9050
56486SOL    HW279389  10.983  12.462   9.151 -0.0819 -0.6534  0.3953
56487SOL     OW79390   7.477   2.079  13.020  0.0697 -0.2461  0.3166
56487SOL    HW179391   7.402   2.022  13.035 -0.2970  0.0254 -0.4458
56487SOL    HW279392   7.448   2.166  13.050 -0.2002  0.0184 -0.6721
56488SOL     OW79393   2.585  12.432   6.734 -0.0134  0.3191 -0.2575
56488SOL    HW179394   2.672  12.440   6.773 -0.2896 -0.0594  0.4704
56488SOL    HW279395   2.590  12.480   6.652  1.5114 -1.4285 -1.2706
56489SOL     OW79396   4.851   0.568   6.067 -0.2916  0.1929  0.2357
56489SOL    HW179397   4.931   0.520   6.046  0.1232  1.5115 -1.3682
56489SOL    HW279398   4.806   0.512   6.130  0.2418 -2.2001 -1.3742
56490SOL     OW79399  10.129   0.216   4.813  0.2857  0.3044 -0.1565
56490SOL    HW179400  10.069   0.213   4.888  0.4776 -0.5945 -0.0274
56490SOL    HW279401  10.125   0.128   4.776  1.8970  0.0879  0.1381
56491SOL     OW79402   9.778   9.113   0.814 -0.0264 -0.0238 -0.2952
56491SOL    HW179403   9.772   9.111   0.719  0.3522 -1.3944 -0.3135
56491SOL    HW279404   9.696   9.151   0.843 -0.8666 -1.1439 -1.1227
56492SOL     OW79405  10.324   9.153   6.239  0.5399  0.4616 -0.0810
56492SOL    HW179406  10.305   9.064   6.269  3.6164 -0.5817 -0.8480
56492SOL    HW279407  10.315   9.207   6.318 -2.3665 -0.2675  0.1863
56493SOL     OW79408  10.822   4.891   2.433 -0.0267  0.1265 -0.4453
56493SOL    HW179409  10.753   4.945   2.395 -0.0971  1.3327  1.3086
56493SOL    HW279410  10.775   4.819   2.476 -0.2981  1.1655  1.1013
56494SOL     OW79411  10.088   1.173  10.099 -0.0845  0.3914 -0.0077
56494SOL    HW179412  10.046   1.218  10.026 -2.3693 -2.0288 -0.3048
56494SOL    HW279413  10.027   1.184  10.173  0.0847 -0.8064  0.3347
56495SOL     OW79414   1.110  11.644  12.934  0.3444 -0.4396  0.4690
56495SOL    HW179415   1.171  11.702  12.887  0.3220 -1.2556 -0.5918
56495SOL    HW279416   1.073  11.588  12.866 -1.2606 -0.2673  1.1735
56496SOL     OW79417  11.540   6.674   3.939  0.7522 -0.4990  0.0193
56496SOL    HW179418  11.587   6.674   3.856  0.0538 -0.0919 -0.3847
56496SOL    HW279419  11.475   6.604   3.930  0.5458 -0.3254  0.1412
56497SOL     OW79420   5.730   7.994   7.685 -0.3067 -0.7502 -0.3715
56497SOL    HW179421   5.692   8.081   7.698 -0.7252 -0.9577 -0.1859
56497SOL    HW279422   5.681   7.937   7.745  0.6591 -0.9303  0.2626
56498SOL     OW79423   6.279   7.469   4.832  0.3597  0.3047  0.1831
56498SOL    HW179424   6.288   7.377   4.857 -0.6000  0.4127  0.9552
56498SOL    HW279425   6.230   7.467   4.750  1.0563  0.1010 -0.2436
56499SOL     OW79426   3.489   5.237   1.816 -0.5552  0.3622 -0.1790
56499SOL    HW179427   3.541   5.171   1.771 -0.5740 -0.2694  0.6963
56499SOL    HW279428   3.549   5.309   1.832 -0.0220 -0.2391  0.5621
56500SOL     OW79429   5.077   2.507  10.349  0.3978  0.3024  0.6326
56500SOL    HW179430   5.016   2.570  10.310 -1.4244 -1.4583  0.4822
56500SOL    HW279431   5.163   2.537  10.319 -0.1407  3.6282  1.8838
56501SOL     OW79432   5.246   2.415  10.731 -0.4584  0.0303  0.4663
56501SOL    HW179433   5.158   2.442  10.705  0.5793  2.2399 -1.1071
56501SOL    HW279434   5.289   2.392  10.648  1.3223  2.0310  0.7390
56502SOL     OW79435   5.314   0.002   2.287 -0.5685  0.0556 -0.2870
56502SOL    HW179436   5.238   0.046   2.326  0.0892  1.9777 -1.0813
56502SOL    HW279437   5.388   0.028   2.342 -0.1678 -0.1291 -0.7358
56503SOL     OW79438   3.118   5.680   6.442  0.3308  0.2572  0.2908
56503SOL    HW179439   3.178   5.754   6.436 -0.0869  0.6035  0.2626
56503SOL    HW279440   3.165   5.615   6.494  0.5319  0.7211  0.7016
56504SOL     OW79441   1.812   9.869   7.241  0.0643  0.5831  0.8737
56504SOL    HW179442   1.835   9.796   7.298 -2.3123  0.6563  2.0332
56504SOL    HW279443   1.791   9.941   7.301 -0.6612  1.2405 -0.1390
56505SOL     OW79444   8.324   2.169  11.238 -0.4096 -0.0221  0.2261
56505SOL    HW179445   8.322   2.260  11.265 -1.3936 -0.1809  0.7375
56505SOL    HW279446   8.350   2.121  11.316  0.4945 -0.1557 -0.1464
56506SOL     OW79447   5.229   0.690   3.505 -0.5881 -0.2093 -0.0885
56506SOL    HW179448   5.178   0.617   3.471  0.0396 -0.4955 -0.4271
56506SOL    HW279449   5.307   0.693   3.450 -0.2334  0.2222  0.4242
56507SOL     OW79450   1.051  12.682  13.108 -0.0811 -0.2554 -0.4805
56507SOL    HW179451   1.094  12.683  13.193  0.0359  0.4439 -0.5422
56507SOL    HW279452   0.958  12.675  13.128 -0.1492  1.0432 -0.2364
56508SOL     OW79453   3.692   2.054  12.617 -0.0064 -0.2027 -0.0436
56508SOL    HW179454   3.608   2.014  12.639  0.3962 -0.4561  1.0497
56508SOL    HW279455   3.681   2.082  12.526 -1.9116  1.3787  0.6059
56509SOL     OW79456   3.758  10.032  10.907 -0.5070  0.0337 -0.2970
56509SOL    HW179457   3.677  10.013  10.955  0.5189  0.8707  1.8907
56509SOL    HW279458   3.799  10.103  10.957  2.0036 -0.9581 -0.8254
56510SOL     OW79459  12.597  13.144   2.237  0.7055  0.7387  0.9340
56510SOL    HW179460  12.534  13.073   2.250 -0.7450  1.9109  0.5997
56510SOL    HW279461  12.559  13.197   2.167  2.2428  1.3212  0.5048
56511SOL     OW79462   5.565   4.991  12.922 -0.4533 -0.1697 -0.1482
56511SOL    HW179463   5.495   4.970  12.984 -0.6234 -0.2123 -0.3518
56511SOL    HW279464   5.611   4.909  12.908  0.8755  0.2383  1.4788
56512SOL     OW79465   5.919   7.696   9.869  0.1368  0.3904  0.0446
56512SOL    HW179466   5.911   7.636   9.795  2.9383  1.0956 -0.9494
56512SOL    HW279467   5.913   7.640   9.946 -1.0071 -0.6068 -0.7210
56513SOL     OW79468   3.252   5.748  11.599  0.3832 -0.0671  0.1346
56513SOL    HW179469   3.213   5.676  11.549 -0.7442  0.6916 -0.1388
56513SOL    HW279470   3.233   5.726  11.691 -0.6134  0.2171  0.0131
56514SOL     OW79471  13.102   1.907  11.673 -0.0004  0.2930 -0.3882
56514SOL    HW179472  13.048   1.975  11.632  0.2584  0.5056 -0.3874
56514SOL    HW279473  13.185   1.952  11.692  0.4208 -0.1995 -1.0071
56515SOL     OW79474   8.160   5.184   1.325 -0.3907  0.2711 -0.9600
56515SOL    HW179475   8.224   5.170   1.256  0.5374  1.2722 -0.3430
56515SOL    HW279476   8.107   5.104   1.326 -0.5672  0.3133 -2.9369
56516SOL     OW79477  11.286   5.758  11.224  0.5839 -0.8956  0.4402
56516SOL    HW179478  11.240   5.728  11.146  0.0090 -1.2043  0.8877
56516SOL    HW279479  11.291   5.853  11.215 -2.4012 -0.5319  1.5461
56517SOL     OW79480  10.581  12.659  12.373 -0.2303  0.3791  0.2220
56517SOL    HW179481  10.676  12.660  12.361 -0.1517  1.8553  0.7798
56517SOL    HW279482  10.558  12.566  12.372  0.7308  0.0338 -3.3961
56518SOL     OW79483   0.331  11.573   1.425 -0.1860  0.1387  0.0108
56518SOL    HW179484   0.362  11.651   1.379 -1.6036  0.5060 -0.4055
56518SOL    HW279485   0.241  11.595   1.450  0.0726 -0.6057  1.7136
56519SOL     OW79486   1.614   7.672  11.729  1.0402  0.0499 -0.1815
56519SOL    HW179487   1.594   7.743  11.790 -0.0339 -0.7177  0.3877
56519SOL    HW279488   1.558   7.688  11.654  2.9306  1.4525 -1.4093
56520SOL     OW79489   3.820  12.246   0.416 -0.1594  0.4618  0.3403
56520SOL    HW179490   3.733  12.214   0.437 -0.0825 -0.3867 -0.6078
56520SOL    HW279491   3.865  12.251   0.501 -0.7889 -0.0948  0.7115
56521SOL     OW79492  13.084   1.801   2.982 -0.0101  0.2301 -0.0725
56521SOL    HW179493  13.074   1.887   3.024  0.3472  0.5462 -0.6145
56521SOL    HW279494  13.003   1.790   2.932 -0.5582 -0.2733  0.9118
56522SOL     OW79495   4.778   6.178  11.887  0.3158  0.0846  0.2133
56522SOL    HW179496   4.697   6.199  11.934  0.5080  1.4081 -0.0257
56522SOL    HW279497   4.749   6.126  11.812 -0.6013  2.3729 -1.1081
56523SOL     OW79498   6.319   5.197  12.751 -0.2975 -0.0051 -0.3320
56523SOL    HW179499   6.272   5.240  12.823  0.8531  0.7167  0.0306
56523SOL    HW279500   6.300   5.251  12.674  1.8509  1.8188  0.2862
56524SOL     OW79501  10.009   8.911   8.511  0.3469 -0.2479 -0.8629
56524SOL    HW179502  10.008   9.001   8.477 -1.7225  0.1251  0.0455
56524SOL    HW279503   9.925   8.902   8.556  0.9349 -2.3378 -0.1051
56525SOL     OW79504   7.736   1.484   1.569  0.1678  0.0960  0.4999
56525SOL    HW179505   7.708   1.534   1.646 -1.1844 -0.6109  0.4791
56525SOL    HW279506   7.684   1.404   1.571  1.5260 -0.8490 -0.0712
56526SOL     OW79507   5.726   3.964   1.030 -0.2163  0.0430 -0.6256
56526SOL    HW179508   5.776   4.043   1.007  0.0286 -0.1495 -0.7504
56526SOL    HW279509   5.792   3.900   1.055 -0.5003  0.5101  1.4645
56527SOL     OW79510   1.223   1.922   1.371  0.0418 -0.0191 -0.2972
56527SOL    HW179511   1.272   1.969   1.438  1.6857  0.0174 -1.4581
56527SOL    HW279512   1.175   1.990   1.324  0.0173  0.1262 -0.0625
56528SOL     OW79513   4.725   4.243   9.027  0.0937 -0.0675 -0.4602
56528SOL    HW179514   4.810   4.250   9.069 -0.5691  1.1222  0.7424
56528SOL    HW279515   4.681   4.172   9.072 -0.4891  0.9896  0.7016
56529SOL     OW79516  12.950   3.245  10.768 -0.3477  0.4155  0.2884
56529SOL    HW179517  12.855   3.242  10.776 -0.3716 -0.5945 -0.2262
56529SOL    HW279518  12.982   3.226  10.856 -0.6248 -0.4958  0.2004
56530SOL     OW79519   8.700   9.608   1.493 -0.0924 -0.4644 -0.1209
56530SOL    HW179520   8.684   9.670   1.423  0.7489 -0.8960 -0.7122
56530SOL    HW279521   8.735   9.530   1.449 -1.9640 -1.7199  0.4895
56531SOL     OW79522   7.336  10.939  10.976  0.5326 -0.2461  0.1200
56531SOL    HW179523   7.406  10.897  10.926  1.7470  0.2932  1.2645
56531SOL    HW279524   7.347  11.033  10.958 -0.6825 -0.2233 -0.6172
56532SOL     OW79525   5.074   7.083   8.663  0.0835 -0.0446 -0.2924
56532SOL    HW179526   5.004   7.038   8.616  0.3477 -0.1061 -0.6311
56532SOL    HW279527   5.122   7.130   8.595  0.9215 -0.7412 -0.2038
56533SOL     OW79528   1.864   0.352  13.156  0.2461  0.0113  0.4173
56533SOL    HW179529   1.936   0.385  13.211  0.2233  1.0442 -0.1488
56533SOL    HW279530   1.860   0.414  13.083 -0.4695 -0.7023 -0.1537
56534SOL     OW79531   6.563   1.351   5.504 -0.3152 -0.0339  0.9333
56534SOL    HW179532   6.520   1.267   5.523  0.4500 -1.1331 -1.6323
56534SOL    HW279533   6.648   1.345   5.548  0.7744 -1.8074 -1.1578
56535SOL     OW79534   1.097   1.797  12.290 -0.1614 -0.1299  0.3640
56535SOL    HW179535   1.101   1.703  12.307  0.2953 -0.1637  0.0795
56535SOL    HW279536   1.040   1.806  12.214 -1.8444 -0.0129  1.5779
56536SOL     OW79537   2.413   8.993   9.826 -0.0344  0.3798  0.3114
56536SOL    HW179538   2.341   8.942   9.790  0.9234 -0.4705 -0.4597
56536SOL    HW279539   2.491   8.940   9.809  0.7049  0.9502  1.7413
56537SOL     OW79540   7.149   0.510   1.355 -0.0543 -0.8125 -0.0020
56537SOL    HW179541   7.198   0.552   1.425  0.1740 -0.6268 -0.2729
56537SOL    HW279542   7.199   0.430   1.335  0.3376 -0.4427 -0.5228
56538SOL     OW79543   2.309   1.728   6.300  0.2308  0.1580  0.1005
56538SOL    HW179544   2.246   1.730   6.229 -1.0906 -2.4422  1.0486
56538SOL    HW279545   2.394   1.718   6.257  0.0150  2.8942 -1.1597
56539SOL     OW79546   2.992   0.342   0.440  0.0956 -0.4616 -0.3610
56539SOL    HW179547   2.989   0.246   0.450  3.0370 -0.9372 -2.7044
56539SOL    HW279548   2.956   0.358   0.353 -0.6375  0.6737  0.1257
56540SOL     OW79549  13.144   3.054  11.219 -0.1724  0.7760 -0.0030
56540SOL    HW179550  13.083   2.992  11.179  0.1402  0.6438 -0.2824
56540SOL    HW279551  13.096   3.090  11.294 -0.4366  0.3602  0.0320
56541SOL     OW79552   3.329   7.491  12.684 -0.0275 -0.2021  0.1882
56541SOL    HW179553   3.238   7.462  12.674  0.4193 -1.3640 -0.8806
56541SOL    HW279554   3.366   7.432  12.750 -0.3272  0.9932  1.4505
56542SOL     OW79555  11.470   0.479  11.472  0.0756 -0.3883  0.7655
56542SOL    HW179556  11.444   0.571  11.469 -1.0466 -0.6813  1.3135
56542SOL    HW279557  11.454   0.446  11.383  0.7690  0.0065  0.4846
56543SOL     OW79558   8.935   6.783  10.474 -0.4950  0.3050  0.3472
56543SOL    HW179559   8.942   6.851  10.542 -1.6661  1.5511 -0.7246
56543SOL    HW279560   8.967   6.704  10.517  1.8095  1.6832  1.3656
56544SOL     OW79561   1.335   0.432  12.319 -0.8800  0.5617 -0.0867
56544SOL    HW179562   1.399   0.493  12.353 -1.1921  0.8583 -0.0247
56544SOL    HW279563   1.295   0.477  12.245  0.9402 -0.7008 -1.9436
56545SOL     OW79564  10.318   3.960   4.547 -1.1788 -0.4120  0.4378
56545SOL    HW179565  10.297   4.051   4.570  1.0131  0.4701 -0.8059
56545SOL    HW279566  10.372   3.930   4.620  0.1034  0.1297 -0.2540
56546SOL     OW79567  11.961   0.669   0.122  0.4445  0.7014  0.4335
56546SOL    HW179568  11.956   0.588   0.173  0.1135  1.0878  1.0279
56546SOL    HW279569  12.054   0.693   0.126  0.3003  1.1653  1.5786
56547SOL     OW79570   5.458   6.009   7.095  0.3010  0.0483 -0.2130
56547SOL    HW179571   5.547   5.975   7.095  0.5367  0.6295 -1.3236
56547SOL    HW279572   5.464   6.092   7.144 -0.0657 -0.9073  1.5452
56548SOL     OW79573   4.465  10.196  12.989 -0.2417 -0.3328  0.1092
56548SOL    HW179574   4.530  10.157  12.931 -1.2125 -1.3050 -0.3898
56548SOL    HW279575   4.423  10.264  12.936 -1.6709 -1.7469 -0.6916
56549SOL     OW79576   4.659   5.028   6.092  0.4078  0.3789  0.3770
56549SOL    HW179577   4.625   5.118   6.086  0.2730  0.3613  0.8419
56549SOL    HW279578   4.667   5.012   6.186 -1.5602 -0.8344  0.3983
56550SOL     OW79579   0.330   3.152   1.455  0.4949 -0.6718 -0.2023
56550SOL    HW179580   0.294   3.237   1.428 -1.2293 -1.4341 -0.4423
56550SOL    HW279581   0.254   3.103   1.488  1.6263 -1.7595  0.9052
56551SOL     OW79582   6.249   1.224   1.983 -0.4829  0.0126  0.2168
56551SOL    HW179583   6.301   1.251   2.058 -1.1596 -1.9020  1.4470
56551SOL    HW279584   6.190   1.298   1.967 -1.3291 -0.0624  2.5420
56552SOL     OW79585  11.119  10.115   4.688  0.3561 -0.4135  0.0529
56552SOL    HW179586  11.203  10.158   4.705  0.1734 -0.8708  2.4899
56552SOL    HW279587  11.062  10.185   4.655  0.9414  0.5167  0.9661
56553SOL     OW79588   9.833   2.713   4.436  0.1742 -0.3833  1.2028
56553SOL    HW179589   9.806   2.674   4.353  0.3309 -0.0528  0.9926
56553SOL    HW279590   9.924   2.742   4.421  0.1379 -0.1461  1.4227
56554SOL     OW79591   7.030   4.458  13.058  0.5653  0.3577  0.7069
56554SOL    HW179592   6.948   4.501  13.085  0.6574 -0.4784  2.4576
56554SOL    HW279593   7.025   4.457  12.963 -0.8270  1.5442  0.7103
56555SOL     OW79594   4.263  12.108   5.760  0.0365 -0.4938  0.5784
56555SOL    HW179595   4.217  12.169   5.702  2.3763  0.4158 -0.4709
56555SOL    HW279596   4.297  12.164   5.830  1.1117 -0.7740  0.2999
56556SOL     OW79597   5.993   2.994   5.388  0.3942  0.6108  0.4850
56556SOL    HW179598   5.966   2.937   5.317  1.6606 -0.0517  0.5181
56556SOL    HW279599   5.956   3.080   5.365 -1.3390 -0.1341  0.3329
56557SOL     OW79600   2.616   6.917   9.507 -0.0654 -0.5261 -0.4268
56557SOL    HW179601   2.640   6.853   9.439 -1.8032 -1.2565 -0.4221
56557SOL    HW279602   2.591   6.863   9.582  2.9151  0.2737  1.2942
56558SOL     OW79603   6.623  12.838   0.990 -0.4345  0.2882 -0.2892
56558SOL    HW179604   6.692  12.773   1.005 -0.8051  0.4226  2.5859
56558SOL    HW279605   6.652  12.887   0.913  0.8750 -1.9274 -1.2973
56559SOL     OW79606   6.754   8.221   9.454  0.2516  0.0761  0.1013
56559SOL    HW179607   6.756   8.315   9.437 -0.5951 -0.1846 -1.7290
56559SOL    HW279608   6.749   8.213   9.549  1.4704  1.8464  0.3583
56560SOL     OW79609   1.401  12.757   3.995  0.1000  0.7728 -0.2069
56560SOL    HW179610   1.322  12.754   3.940  1.5614  0.0893 -2.4129
56560SOL    HW279611   1.402  12.672   4.039  1.7691 -1.1472 -3.5897
56561SOL     OW79612   1.194   0.469   8.288  0.2187  0.0911  0.0693
56561SOL    HW179613   1.129   0.526   8.246  1.2202 -0.4894 -2.4586
56561SOL    HW279614   1.186   0.386   8.241 -0.4404 -1.6077  2.9366
56562SOL     OW79615   2.541   0.355   8.620 -0.1488  0.3775  0.5149
56562SOL    HW179616   2.546   0.344   8.715  0.3840  1.0126  0.5713
56562SOL    HW279617   2.503   0.442   8.608  0.5314  0.6403  0.1656
56563SOL     OW79618   6.180  10.539   5.494 -0.5617  0.2436 -0.4801
56563SOL    HW179619   6.114  10.607   5.476 -0.5048  0.9568  1.6924
56563SOL    HW279620   6.226  10.570   5.572  0.6478 -1.4852 -0.4434
56564SOL     OW79621   2.673  11.194   8.801 -0.0315 -0.3601 -0.2957
56564SOL    HW179622   2.624  11.269   8.835 -3.4695 -2.1173 -0.9518
56564SOL    HW279623   2.698  11.219   8.712  1.6399  1.0928  0.5251
56565SOL     OW79624   0.687  11.582   7.569 -0.4668  0.0936  0.1147
56565SOL    HW179625   0.638  11.586   7.651 -0.3057  1.0404  0.1741
56565SOL    HW279626   0.724  11.494   7.568 -0.2972  0.1347  1.1649
56566SOL     OW79627   6.164   4.190   3.261  0.0063  0.2687 -0.5683
56566SOL    HW179628   6.135   4.174   3.172 -1.3606  1.6078 -0.4067
56566SOL    HW279629   6.111   4.131   3.315 -0.3994  0.6856 -0.5072
56567SOL     OW79630   8.928  13.093   9.727  0.1364 -0.0661  0.0342
56567SOL    HW179631   8.972  13.129   9.804  1.0620 -2.5792  0.7828
56567SOL    HW279632   8.999  13.064   9.670 -0.4944 -2.0363  0.1756
56568SOL     OW79633  11.793   6.308   8.945 -0.3894  0.3533 -0.4376
56568SOL    HW179634  11.780   6.374   9.014  0.4354  1.4131 -1.2532
56568SOL    HW279635  11.864   6.253   8.978 -1.3217 -0.3922  0.4075
56569SOL     OW79636   7.567   0.490  10.548 -0.6042  0.0059  0.0782
56569SOL    HW179637   7.648   0.473  10.500  0.2400 -0.2843  1.5572
56569SOL    HW279638   7.566   0.426  10.619 -1.0113  1.4242  1.4028
56570SOL     OW79639   6.593   8.253   5.785 -0.3001 -0.6562 -0.4716
56570SOL    HW179640   6.663   8.192   5.812  0.2608  1.0049  2.1006
56570SOL    HW279641   6.638   8.317   5.729  0.1714  0.0894  0.7256
56571SOL     OW79642   9.052   8.448   6.213  0.1867  0.0414  0.1415
56571SOL    HW179643   9.140   8.410   6.208  0.2729  0.2544  0.0366
56571SOL    HW279644   9.022   8.427   6.302 -0.8102 -2.5843 -0.7216
56572SOL     OW79645   0.004   7.802  10.827 -0.0610 -0.6774 -0.2305
56572SOL    HW179646   0.089   7.804  10.872 -0.5851 -1.4801  0.8510
56572SOL    HW279647  -0.058   7.774  10.895 -1.4160  1.1100 -0.6747
56573SOL     OW79648   3.472   0.194   5.401 -0.0963  0.1374 -0.1026
56573SOL    HW179649   3.387   0.234   5.422 -1.2586 -2.0109 -0.4401
56573SOL    HW279650   3.450   0.105   5.374  2.1812 -0.0927 -1.4081
56574SOL     OW79651   9.949   9.717   3.447  0.2827 -0.1764  0.1454
56574SOL    HW179652   9.965   9.649   3.381 -0.9987 -1.6005  1.2448
56574SOL    HW279653  10.036   9.737   3.482  0.5622 -2.5507  1.0018
56575SOL     OW79654   0.320   0.870   2.546 -0.3030  0.5024  0.4823
56575SOL    HW179655   0.284   0.873   2.634  2.9540  0.8769  1.9644
56575SOL    HW279656   0.345   0.779   2.533  0.4250  0.6847  0.5304
56576SOL     OW79657   0.507   7.773   3.167  0.1983 -0.4005  0.4126
56576SOL    HW179658   0.473   7.839   3.228 -0.9974  1.8046 -2.3786
56576SOL    HW279659   0.597   7.801   3.150 -0.2695  0.5321 -0.6759
56577SOL     OW79660   5.672   3.995   3.387 -0.1264 -0.3780 -0.1609
56577SOL    HW179661   5.577   3.982   3.380 -0.0020 -0.8783 -1.0772
56577SOL    HW279662   5.682   4.080   3.430 -0.9932  0.2551 -1.1785
56578SOL     OW79663   4.122   7.830   6.517 -0.3698 -0.1987 -0.6403
56578SOL    HW179664   4.190   7.844   6.583  0.3990 -2.4415 -0.8377
56578SOL    HW279665   4.050   7.886   6.544 -0.3040 -1.3779  2.4719
56579SOL     OW79666   4.371   2.884   3.829  0.0504 -0.2940 -0.0331
56579SOL    HW179667   4.329   2.899   3.745 -0.1460 -1.9594 -0.2640
56579SOL    HW279668   4.338   2.955   3.885 -1.0263 -0.0617 -0.9245
56580SOL     OW79669   8.078   4.332   2.756 -0.4323  0.3754  0.8364
56580SOL    HW179670   8.060   4.358   2.847  0.3043 -0.1955  1.1578
56580SOL    HW279671   8.172   4.312   2.755 -0.5320 -0.0910  0.0663
56581SOL     OW79672   2.100   5.742   1.444 -0.4338  0.2857 -0.4259
56581SOL    HW179673   2.021   5.725   1.394 -0.6984 -0.4626  0.2255
56581SOL    HW279674   2.074   5.804   1.512 -0.1630  1.0007 -0.9572
56582SOL     OW79675   1.567  11.042   6.007 -0.6338  0.2819 -0.7075
56582SOL    HW179676   1.612  11.122   6.035 -0.3338 -0.3701  0.7543
56582SOL    HW279677   1.502  11.073   5.944 -2.4422  2.1034  1.8490
56583SOL     OW79678   6.285  10.773   9.101 -0.1460 -0.3469  0.1752
56583SOL    HW179679   6.302  10.680   9.088 -2.3461 -0.4750 -2.5993
56583SOL    HW279680   6.195  10.777   9.134  0.8679  0.7703  3.1301
56584SOL     OW79681   1.122  12.268  11.014 -0.3594  0.3698 -0.6019
56584SOL    HW179682   1.214  12.283  10.993 -0.8707  0.4730 -3.1592
56584SOL    HW279683   1.091  12.352  11.049  0.1808  0.8014 -1.1390
56585SOL     OW79684   2.836  10.095  13.260 -0.5663 -0.0919  0.0941
56585SOL    HW179685   2.800  10.122  13.344  0.3486 -1.6318  1.0345
56585SOL    HW279686   2.799  10.009  13.244  0.2769 -0.3674 -0.4446
56586SOL     OW79687   9.883   0.710   5.920  0.0995 -0.0056 -0.0984
56586SOL    HW179688   9.844   0.758   5.847  0.1332  0.0681 -0.0678
56586SOL    HW279689   9.832   0.630   5.925  0.8944 -0.5970 -1.0112
56587SOL     OW79690   7.377   1.676   2.489 -0.7084 -0.3246  0.2882
56587SOL    HW179691   7.446   1.635   2.541 -0.0199  0.3252 -0.1015
56587SOL    HW279692   7.406   1.766   2.477 -2.0696  0.2358  0.9091
56588SOL     OW79693  10.250   8.867   4.464 -0.0912 -0.0958 -0.3525
56588SOL    HW179694  10.244   8.962   4.475 -2.3872 -0.1704 -0.5237
56588SOL    HW279695  10.326   8.854   4.408 -0.3547  1.7141 -1.1898
56589SOL     OW79696   1.297   4.929  10.139  0.3193  0.0249 -0.8310
56589SOL    HW179697   1.270   5.010  10.094 -1.9259  0.0942  0.4763
56589SOL    HW279698   1.298   4.863  10.070  0.6562  0.8460 -1.6400
56590SOL     OW79699   2.651   3.534   8.406  0.4499 -0.2531  0.3124
56590SOL    HW179700   2.707   3.525   8.483 -0.6903  0.3011  1.2500
56590SOL    HW279701   2.622   3.444   8.387  1.3423 -0.4924  0.0423
56591SOL     OW79702  11.317  13.185  11.015  0.2040  0.2839 -0.4877
56591SOL    HW179703  11.280  13.097  11.009 -0.0506  0.4491 -1.6043
56591SOL    HW279704  11.244  13.243  10.992  0.5346  0.7475 -0.3839
56592SOL     OW79705   0.790   7.333  10.130  0.4245 -0.2633  0.2200
56592SOL    HW179706   0.802   7.287  10.213  0.3019 -1.0230 -0.1732
56592SOL    HW279707   0.861   7.302  10.074 -0.8017 -1.5487 -0.7119
56593SOL     OW79708   4.171   4.218  13.309  0.3850 -0.1742  0.2353
56593SOL    HW179709   4.114   4.162  13.361  0.2949 -0.2943  0.0109
56593SOL    HW279710   4.220   4.269  13.373 -1.7369  1.7431  0.4384
56594SOL     OW79711   6.160   8.423   8.525 -0.1042  0.2334  0.0185
56594SOL    HW179712   6.077   8.377   8.511 -0.6203  0.8484  0.9611
56594SOL    HW279713   6.148   8.471   8.607  1.1321  0.4624  0.0902
56595SOL     OW79714  11.020  11.706   5.555  0.3131  0.0969  0.0202
56595SOL    HW179715  11.112  11.690   5.575 -0.0883 -0.9325  1.1647
56595SOL    HW279716  11.021  11.781   5.496  1.8841  0.0680 -0.0275
56596SOL     OW79717   7.400  10.742   3.521  0.3734 -0.4374 -0.2627
56596SOL    HW179718   7.412  10.831   3.556 -0.6714 -1.0871  1.9768
56596SOL    HW279719   7.339  10.701   3.583  0.9436 -2.7700 -1.1554
56597SOL     OW79720  11.503   6.750  12.421  0.9802  0.2223  0.0183
56597SOL    HW179721  11.509   6.815  12.491 -0.2815  0.2943  0.0837
56597SOL    HW279722  11.458   6.795  12.350 -3.4288 -1.4931  1.3779
56598SOL     OW79723  12.010  10.229   8.896  0.4702 -0.3962  0.4722
56598SOL    HW179724  11.989  10.304   8.950 -0.3650  0.2072 -0.6430
56598SOL    HW279725  11.925  10.191   8.873  0.7540 -0.2266 -0.9510
56599SOL     OW79726   4.997   1.396   5.243  0.2900  0.8529  0.2497
56599SOL    HW179727   4.929   1.442   5.194 -0.9364 -1.7148 -0.6183
56599SOL    HW279728   4.966   1.397   5.334  0.5727  2.1483  0.3548
56600SOL     OW79729   4.063   3.658   3.263  0.2937  0.5009 -0.4590
56600SOL    HW179730   3.986   3.672   3.318 -0.4923 -2.0299 -0.8052
56600SOL    HW279731   4.086   3.566   3.276  0.1856 -0.2099 -4.1522
56601SOL     OW79732   0.250   5.736  12.422  0.5278 -0.2086  0.5082
56601SOL    HW179733   0.215   5.678  12.490  1.2370 -0.2502  0.8515
56601SOL    HW279734   0.198   5.816  12.430 -1.2194 -1.1659 -0.7075
56602SOL     OW79735   1.678   1.914  10.842  0.2086 -0.3858  0.2557
56602SOL    HW179736   1.727   1.933  10.762 -2.2752  2.2586 -0.8524
56602SOL    HW279737   1.600   1.970  10.836 -0.5672 -0.7308  4.1237
56603SOL     OW79738   9.816   6.854   2.631  0.0755 -0.0974  0.5542
56603SOL    HW179739   9.891   6.911   2.613  1.4737 -1.7708  0.8586
56603SOL    HW279740   9.755   6.910   2.679  0.9978  1.3883  0.0587
56604SOL     OW79741   1.861   1.728   1.616  0.5843  0.0241 -0.0749
56604SOL    HW179742   1.792   1.789   1.644  0.0708 -1.2966  1.6943
56604SOL    HW279743   1.891   1.764   1.532 -1.5069  1.2398 -0.3897
56605SOL     OW79744  12.382   5.181   5.577  0.0972  0.1981 -0.1908
56605SOL    HW179745  12.455   5.209   5.633 -2.0058  0.2579  2.7277
56605SOL    HW279746  12.319   5.252   5.581 -1.9690 -1.5655  0.9780
56606SOL     OW79747   3.991   6.465   2.077 -0.0280 -0.2625  0.0151
56606SOL    HW179748   4.055   6.471   2.148 -1.4456 -0.5092  1.3758
56606SOL    HW279749   3.985   6.554   2.042 -0.3897  0.2147  1.2293
56607SOL     OW79750   6.107   9.503   4.163 -0.0026 -0.3603  0.1630
56607SOL    HW179751   6.013   9.514   4.176 -0.2127 -1.7465 -0.0540
56607SOL    HW279752   6.136   9.453   4.240  0.0986 -2.0188 -0.8887
56608SOL     OW79753   1.819  11.908   1.241 -0.1494  0.3905  0.1405
56608SOL    HW179754   1.822  11.941   1.151  0.2098 -2.2535 -0.8960
56608SOL    HW279755   1.908  11.920   1.274  0.0390  0.2139 -0.3020
56609SOL     OW79756   6.574  11.450  10.766 -0.1633 -0.3035 -0.4577
56609SOL    HW179757   6.572  11.356  10.747  0.7572 -0.6953  1.1816
56609SOL    HW279758   6.494  11.466  10.817 -0.9077  0.0731 -1.6839
56610SOL     OW79759  12.097  11.387   8.145  0.6582  0.3107 -0.3941
56610SOL    HW179760  12.021  11.445   8.142  1.4673  1.3682 -1.2880
56610SOL    HW279761  12.152  11.423   8.215  0.5519 -0.2005 -0.0355
56611SOL     OW79762   3.897  11.853  12.218 -0.5270 -0.3562  0.0791
56611SOL    HW179763   3.834  11.926  12.219 -2.0971 -1.4863 -3.0249
56611SOL    HW279764   3.982  11.896  12.206 -1.3648  1.0406 -1.3135
56612SOL     OW79765   5.542   9.822  10.606  0.0572 -1.0955  0.3601
56612SOL    HW179766   5.506   9.834  10.518  2.6069 -0.1188 -0.6244
56612SOL    HW279767   5.471   9.850  10.664 -0.8057  0.7445 -1.4454
56613SOL     OW79768   3.825  12.169   6.265 -0.4447  0.0864 -0.5310
56613SOL    HW179769   3.905  12.179   6.214 -0.4960  0.3479 -0.5609
56613SOL    HW279770   3.852  12.183   6.356 -0.3611 -0.3364 -0.4869
56614SOL     OW79771  13.268  12.868   0.519  0.0242 -0.1039  0.2977
56614SOL    HW179772  13.254  12.943   0.460 -1.2128 -0.4329  0.1235
56614SOL    HW279773  13.244  12.901   0.605  0.7723  0.0731  0.4372
56615SOL     OW79774   7.902   4.137   1.782 -0.2123  0.1204  0.0718
56615SOL    HW179775   7.953   4.068   1.739  0.0248 -0.0369  0.5985
56615SOL    HW279776   7.959   4.169   1.852 -0.0757  1.2706 -0.5359
56616SOL     OW79777   5.203  11.181   7.082  0.7200  0.4711  0.2394
56616SOL    HW179778   5.241  11.231   7.154  2.1867 -1.0350  0.5604
56616SOL    HW279779   5.258  11.104   7.075  0.2842  0.3182 -2.1688
56617SOL     OW79780   1.743  11.704   4.593  0.5451  0.2324 -0.2283
56617SOL    HW179781   1.807  11.677   4.527  0.6721  1.1570 -0.5002
56617SOL    HW279782   1.791  11.701   4.676  1.6491  2.9608 -0.6561
56618SOL     OW79783   2.796   4.685  13.152  0.1459  0.2067 -0.2380
56618SOL    HW179784   2.720   4.665  13.098 -1.6802 -0.4211  2.3456
56618SOL    HW279785   2.786   4.777  13.176  2.2603  1.2239 -2.7208
56619SOL     OW79786   0.473   8.887   1.219  0.2725  0.3908  0.4503
56619SOL    HW179787   0.541   8.924   1.275  0.9901  1.5193 -1.1054
56619SOL    HW279788   0.509   8.890   1.131 -1.3721  0.0111 -0.2851
56620SOL     OW79789   3.455   8.538  10.139  0.2762 -0.2701  0.0828
56620SOL    HW179790   3.510   8.470  10.099  1.7383  0.4622  0.7704
56620SOL    HW279791   3.488   8.620  10.104 -1.9617  0.1299 -1.3196
56621SOL     OW79792   3.314   7.165   9.276  0.2017  0.3597 -0.4646
56621SOL    HW179793   3.243   7.221   9.305  1.7434  2.1638  0.0389
56621SOL    HW279794   3.324   7.184   9.183 -0.0753 -0.0380 -0.5793
56622SOL     OW79795   6.077   5.849   4.362 -0.9460 -0.1447 -0.4161
56622SOL    HW179796   6.105   5.863   4.271 -1.2031 -2.7931 -0.9905
56622SOL    HW279797   6.145   5.792   4.399 -1.5794 -0.2446  0.6178
56623SOL     OW79798   2.019  12.704   2.746 -0.4001 -0.4085 -0.5108
56623SOL    HW179799   2.098  12.689   2.693  1.7473  0.6786  2.1662
56623SOL    HW279800   2.015  12.628   2.803  0.1274  0.6319  0.9576
56624SOL     OW79801   6.888   0.964  11.407 -0.2870  0.2325 -0.3361
56624SOL    HW179802   6.858   0.991  11.320 -0.4361 -2.4437 -1.2306
56624SOL    HW279803   6.809   0.930  11.450  0.0561  0.1632  0.2581
56625SOL     OW79804   9.053   6.833  11.422  0.2234  0.4483  0.5712
56625SOL    HW179805   8.959   6.825  11.438  0.0882 -0.1298 -0.4619
56625SOL    HW279806   9.073   6.926  11.438 -0.8604  0.9667 -0.9302
56626SOL     OW79807  13.081   6.671   9.950  0.2331 -0.0594 -0.6954
56626SOL    HW179808  13.077   6.661  10.045  0.4962 -1.1165 -0.7822
56626SOL    HW279809  13.143   6.604   9.921 -0.3425 -0.1961 -1.6752
56627SOL     OW79810   9.757   1.044  11.681 -0.5988  0.3922  0.1358
56627SOL    HW179811   9.746   1.139  11.681 -0.7331  0.4089 -1.3109
56627SOL    HW279812   9.669   1.010  11.669 -0.2074  0.2944 -3.9719
56628SOL     OW79813   2.489   3.307  11.362 -0.0812 -0.2694 -0.3327
56628SOL    HW179814   2.567   3.340  11.317 -1.1757  0.7796 -1.5582
56628SOL    HW279815   2.457   3.382  11.412 -0.9047 -0.3714 -0.7032
56629SOL     OW79816   3.980   6.041   7.534 -0.9122  0.2658  0.2977
56629SOL    HW179817   3.885   6.032   7.528 -0.8844  0.6391 -2.5762
56629SOL    HW279818   4.006   6.069   7.446  1.8485  0.3760  1.0589
56630SOL     OW79819   4.620   8.224   2.043 -0.0835  0.9464 -0.4586
56630SOL    HW179820   4.662   8.291   1.989  2.1297 -0.4481 -0.6329
56630SOL    HW279821   4.610   8.149   1.984  0.2435  0.1744  0.4355
56631SOL     OW79822   2.388   3.104  10.940  0.4580 -0.6654  0.2683
56631SOL    HW179823   2.362   3.188  10.976  2.2845  0.9928 -2.0325
56631SOL    HW279824   2.310   3.072  10.893 -1.0692 -1.6053  3.1740
56632SOL     OW79825   3.938   6.703   0.448  0.4141  0.5956 -0.1819
56632SOL    HW179826   3.935   6.734   0.539 -1.4553  1.8392 -0.6047
56632SOL    HW279827   3.900   6.775   0.398  1.2292 -0.1538 -1.9424
56633SOL     OW79828  12.620   7.328   8.788  0.2908 -0.1497  0.2636
56633SOL    HW179829  12.535   7.284   8.777 -0.5141  0.7706  2.3356
56633SOL    HW279830  12.600   7.404   8.843  2.1595  1.1434 -0.7535
56634SOL     OW79831   3.963   0.826   1.001 -0.6636 -0.1444  0.0547
56634SOL    HW179832   4.050   0.799   0.972 -0.5449  0.6116 -0.3173
56634SOL    HW279833   3.915   0.744   1.012  0.0096 -0.5559 -0.0055
56635SOL     OW79834  11.164   1.215   9.093 -0.2617 -0.2457 -0.2652
56635SOL    HW179835  11.117   1.298   9.087  3.0612  1.8397  0.1075
56635SOL    HW279836  11.146   1.172   9.010 -2.3846  0.6196 -0.3109
56636SOL     OW79837   7.294   6.224  11.531  0.5907  0.3186  0.1005
56636SOL    HW179838   7.279   6.167  11.456  0.3956  1.3004 -0.6301
56636SOL    HW279839   7.360   6.286  11.501 -0.4603  1.5642  0.2670
56637SOL     OW79840   3.461   6.739   4.872 -0.1865  0.7709  0.3552
56637SOL    HW179841   3.481   6.818   4.821  2.9115  0.6250  1.1688
56637SOL    HW279842   3.498   6.668   4.820  1.6969  0.4694  2.0179
56638SOL     OW79843   7.775   5.479  12.043  0.2101 -0.2477 -0.2280
56638SOL    HW179844   7.852   5.433  12.077 -1.0237 -0.6173  2.2238
56638SOL    HW279845   7.765   5.555  12.100 -0.4769  0.5721 -1.3882
56639SOL     OW79846   5.417   1.750   0.293  0.2488 -0.2983  0.5833
56639SOL    HW179847   5.430   1.717   0.382 -0.1982 -0.5949  0.5400
56639SOL    HW279848   5.415   1.846   0.303 -1.8766 -0.3582  1.1967
56640SOL     OW79849   1.592   0.773   1.030  0.1760  0.0372  0.1658
56640SOL    HW179850   1.654   0.779   0.957 -0.7594  1.5162 -0.5695
56640SOL    HW279851   1.628   0.706   1.087  0.2525 -2.2178 -2.3328
56641SOL     OW79852  10.301   8.014   0.861 -0.1392 -0.0782 -0.9643
56641SOL    HW179853  10.258   8.070   0.925  0.6566  1.1107 -1.4338
56641SOL    HW279854  10.251   8.025   0.780 -1.6233 -2.1849 -0.4188
56642SOL     OW79855   2.440  11.722  12.559  0.5204 -0.0034  0.0137
56642SOL    HW179856   2.432  11.681  12.645  1.3874  0.2111  0.2066
56642SOL    HW279857   2.470  11.651  12.502  0.4747 -0.0142  0.0029
56643SOL     OW79858   5.127   7.048   7.412  0.5958 -0.2716 -0.0088
56643SOL    HW179859   5.043   7.049   7.365 -0.0472  0.1241  1.1002
56643SOL    HW279860   5.188   7.093   7.353 -0.0499 -0.2874 -0.7015
56644SOL     OW79861  12.768   8.194   4.796 -0.4217  0.2292 -0.1709
56644SOL    HW179862  12.784   8.207   4.889 -0.8914  0.1271 -0.0757
56644SOL    HW279863  12.852   8.161   4.762 -0.5430 -0.7030  0.4018
56645SOL     OW79864   4.763   3.790   5.943  0.0603  0.3049  0.0112
56645SOL    HW179865   4.823   3.734   5.895  0.7416  0.5367  0.5815
56645SOL    HW279866   4.739   3.859   5.881 -2.0673 -1.4415 -1.2551
56646SOL     OW79867   0.803   1.968   5.189 -0.1604 -0.5929  0.2915
56646SOL    HW179868   0.801   1.879   5.156  2.2124 -1.2012  1.5157
56646SOL    HW279869   0.816   1.958   5.284 -0.6990  1.0623  0.5746
56647SOL     OW79870   6.130  12.845   7.407 -0.1883 -0.6396 -0.2092
56647SOL    HW179871   6.150  12.869   7.317 -0.8053 -0.7135 -0.3750
56647SOL    HW279872   6.074  12.916   7.439 -1.5349 -1.5212 -0.5092
56648SOL     OW79873   7.186   8.940   2.190 -0.1291  0.5706 -0.0708
56648SOL    HW179874   7.266   8.889   2.203 -1.6806 -2.7997 -2.3024
56648SOL    HW279875   7.195   8.976   2.101 -0.7492  0.8825 -0.0124
56649SOL     OW79876   1.141   7.632  10.733  0.1561  0.1735  0.3346
56649SOL    HW179877   1.219   7.579  10.749  1.0127  0.3142 -2.7564
56649SOL    HW279878   1.176   7.720  10.714 -0.8039  0.4446 -0.2425
56650SOL     OW79879  11.267   1.619  12.720 -0.3785 -0.1776 -0.2485
56650SOL    HW179880  11.324   1.666  12.781  1.7941  0.2979 -2.4818
56650SOL    HW279881  11.187   1.670  12.717 -0.1107  0.3853  1.3296
56651SOL     OW79882   1.758   1.634  10.748  0.2731  0.0604  0.1536
56651SOL    HW179883   1.837   1.645  10.694 -0.2131  2.4892 -0.1490
56651SOL    HW279884   1.725   1.723  10.762 -0.7348 -0.6416  2.8553
56652SOL     OW79885   9.144   1.726   9.528  0.6350  0.3161 -0.1068
56652SOL    HW179886   9.230   1.684   9.535  2.0272  2.9136 -0.6347
56652SOL    HW279887   9.110   1.725   9.617  1.3569 -0.4067  0.1815
56653SOL     OW79888   0.297  12.202   9.312  0.5301 -0.0005  0.0104
56653SOL    HW179889   0.353  12.131   9.344  2.7362  0.8914 -1.6131
56653SOL    HW279890   0.304  12.270   9.380  0.6268 -0.2611  0.2649
56654SOL     OW79891  12.686   0.425   9.754 -0.9007  0.1999 -0.3452
56654SOL    HW179892  12.709   0.430   9.661 -1.1318 -0.2683 -0.4267
56654SOL    HW279893  12.769   0.441   9.800 -0.7021 -0.0074 -0.6338
56655SOL     OW79894   7.238  12.170   0.993  0.7435 -0.0168 -0.5998
56655SOL    HW179895   7.160  12.153   1.045  0.5835 -2.1080 -1.4227
56655SOL    HW279896   7.221  12.254   0.950 -0.8067 -0.1763 -0.3314
56656SOL     OW79897   6.357   9.997   5.773  0.3031  0.5585 -0.1038
56656SOL    HW179898   6.300   9.969   5.844  0.9383  1.6774  0.8901
56656SOL    HW279899   6.298  10.036   5.708 -0.3444 -1.0247 -0.5011
56657SOL     OW79900   7.795   5.690   5.212 -0.3462  0.0007  0.1004
56657SOL    HW179901   7.863   5.745   5.251 -2.5701  1.2178  2.5131
56657SOL    HW279902   7.761   5.743   5.140  0.1859  0.0512 -0.1220
56658SOL     OW79903   2.772   0.224   2.603  0.3147  0.2943 -0.1788
56658SOL    HW179904   2.798   0.203   2.514  0.3745  0.2888 -0.1603
56658SOL    HW279905   2.763   0.139   2.646 -1.3054  0.2165 -0.6195
56659SOL     OW79906   0.656   0.216   9.654 -0.3284 -0.0526  0.3356
56659SOL    HW179907   0.603   0.147   9.695  0.4146 -0.5211  0.5337
56659SOL    HW279908   0.625   0.297   9.694 -2.0976 -0.1071 -0.8098
56660SOL     OW79909   2.690   2.415  10.075  0.2916 -0.0445 -0.0917
56660SOL    HW179910   2.648   2.498  10.099 -0.5269 -0.4165 -0.1890
56660SOL    HW279911   2.622   2.349  10.089  1.1319 -0.7947  0.6302
56661SOL     OW79912   5.293  11.970   2.711  0.1676 -0.7402 -0.3233
56661SOL    HW179913   5.306  11.880   2.738 -1.0984 -0.9493 -0.3430
56661SOL    HW279914   5.222  11.966   2.647 -0.7046  0.3900  0.5265
56662SOL     OW79915   9.958  11.675   9.305 -0.4991 -0.4927 -0.1451
56662SOL    HW179916   9.913  11.591   9.314 -1.6583 -0.0822 -1.6721
56662SOL    HW279917   9.984  11.698   9.394 -0.7530 -2.1288  0.3884
56663SOL     OW79918   9.488  11.992   3.858 -0.2419  0.2683 -0.3275
56663SOL    HW179919   9.543  12.066   3.887 -0.8285  1.1440 -1.3819
56663SOL    HW279920   9.532  11.958   3.780  0.2413 -0.7842  0.3790
56664SOL     OW79921   9.157  10.006   4.387 -0.0125 -0.0781 -0.3023
56664SOL    HW179922   9.088   9.945   4.411 -0.4344  0.7745  0.7051
56664SOL    HW279923   9.120  10.057   4.315 -0.6411  0.6923  0.5393
56665SOL     OW79924   0.393   0.623   8.778  0.1574 -0.1878  0.3937
56665SOL    HW179925   0.431   0.711   8.783  0.8342 -0.5266  1.7451
56665SOL    HW279926   0.467   0.566   8.758  0.1613 -0.6943  1.7289
56666SOL     OW79927   1.385  10.469   5.407 -0.1710 -0.3332 -0.2442
56666SOL    HW179928   1.447  10.400   5.432  0.6502 -0.5878 -2.7254
56666SOL    HW279929   1.438  10.534   5.362 -1.5345 -0.0473 -1.5032
56667SOL     OW79930   4.432   9.535  11.343 -0.4881  0.4565  0.3174
56667SOL    HW179931   4.375   9.505  11.414 -1.5521  1.6929  0.0256
56667SOL    HW279932   4.397   9.494  11.264  1.3955 -1.8569  0.5811
56668SOL     OW79933   7.043   0.812   5.811 -0.0052  0.3290  0.0994
56668SOL    HW179934   7.087   0.894   5.829  1.2723 -0.8348  2.7888
56668SOL    HW279935   7.111   0.745   5.820 -1.4094 -1.1756  0.0290
56669SOL     OW79936  10.996   6.904   0.791 -0.4160  0.1216  0.7121
56669SOL    HW179937  11.023   6.859   0.710 -0.0452 -1.4036  1.6414
56669SOL    HW279938  11.074   6.949   0.821 -0.0319 -0.8372  1.1820
56670SOL     OW79939   6.499   9.937   4.400 -0.5984 -0.2328  0.0886
56670SOL    HW179940   6.545   9.967   4.478 -2.1336 -0.2069  1.0261
56670SOL    HW279941   6.568   9.903   4.343  0.5783 -0.0668  1.3653
56671SOL     OW79942   0.843  10.795   4.265  0.2211 -0.2905 -0.4159
56671SOL    HW179943   0.829  10.882   4.303 -0.8605 -1.3914  1.8672
56671SOL    HW279944   0.806  10.801   4.177 -1.3701  1.0963  0.2977
56672SOL     OW79945   2.250   1.704   2.583  0.3744  0.2453  0.5031
56672SOL    HW179946   2.200   1.688   2.503  0.3449 -2.0922  0.9196
56672SOL    HW279947   2.305   1.626   2.593  0.4773  0.5337  2.7073
56673SOL     OW79948   5.150   1.552   6.982 -0.1528 -0.7653  0.3680
56673SOL    HW179949   5.129   1.608   7.057 -0.0713  0.1897 -0.2959
56673SOL    HW279950   5.180   1.470   7.020 -1.0824 -0.6521  1.3650
56674SOL     OW79951   9.463  11.926   0.083  0.3782  0.0298 -0.0482
56674SOL    HW179952   9.464  11.990   0.155 -2.3663 -0.2554  0.3236
56674SOL    HW279953   9.406  11.856   0.114  0.0806 -0.6695 -2.0719
56675SOL     OW79954   6.717  10.763   9.763  0.3710 -0.1792 -0.0588
56675SOL    HW179955   6.710  10.845   9.714 -0.0460  1.5043  2.6147
56675SOL    HW279956   6.746  10.699   9.698 -2.5317  1.2590 -3.0746
56676SOL     OW79957   6.837   0.888  13.112 -0.2388 -0.1381  0.6987
56676SOL    HW179958   6.806   0.889  13.021  0.8785 -0.0854  0.2917
56676SOL    HW279959   6.819   0.799  13.143 -3.0171  0.5726  1.3303
56677SOL     OW79960   4.175  13.076   7.169 -0.5915 -0.0870 -0.8614
56677SOL    HW179961   4.197  13.130   7.093 -1.1906  2.1928  0.4914
56677SOL    HW279962   4.081  13.089   7.182 -0.5813 -0.7622  0.0346
56678SOL     OW79963   0.051   7.988  12.752 -0.0955  0.4130 -0.3368
56678SOL    HW179964  -0.042   7.972  12.734 -0.8212  2.3624  1.2922
56678SOL    HW279965   0.064   7.954  12.840  0.6224  0.5757 -0.3741
56679SOL     OW79966   9.583   8.208   6.109 -0.1662  0.0917  0.2641
56679SOL    HW179967   9.545   8.157   6.181 -0.1724  2.2201  1.8588
56679SOL    HW279968   9.532   8.289   6.107 -0.2222  0.0584 -2.2485
56680SOL     OW79969   9.862   3.388   0.669  0.1599 -0.2250  0.1308
56680SOL    HW179970   9.789   3.448   0.686 -0.0576 -0.7317  1.0854
56680SOL    HW279971   9.940   3.438   0.694  0.2142  0.5114 -1.4056
56681SOL     OW79972   2.694   9.500   5.667  0.1127  0.6104  0.1064
56681SOL    HW179973   2.690   9.432   5.735  0.5575  1.5903  1.1464
56681SOL    HW279974   2.620   9.557   5.687  0.7921  1.4228  0.3553
56682SOL     OW79975   3.504   4.491   3.464  0.3363 -0.3069 -0.1109
56682SOL    HW179976   3.485   4.421   3.527  0.2802  0.2520  0.4913
56682SOL    HW279977   3.427   4.547   3.466  0.1942 -0.4511 -0.9210
56683SOL     OW79978  11.801   4.291   3.421 -0.1896 -0.1419 -0.0125
56683SOL    HW179979  11.860   4.218   3.441 -0.3427 -0.1575  0.3829
56683SOL    HW279980  11.737   4.291   3.492  0.6128  1.2329  0.7463
56684SOL     OW79981  13.052   8.935   8.435  0.0554 -0.1223  0.5089
56684SOL    HW179982  12.999   8.863   8.400  1.2365 -0.1329 -1.4178
56684SOL    HW279983  13.140   8.898   8.442  0.4701  0.8383  0.4738
56685SOL     OW79984   0.157   7.915  11.947 -0.0669  0.1230 -0.0333
56685SOL    HW179985   0.248   7.890  11.933  0.1808 -0.2690  1.9696
56685SOL    HW279986   0.160   8.010  11.961 -0.0680  0.2079 -0.5785
56686SOL     OW79987   8.593  13.055   8.762  0.3558 -0.2231  0.3595
56686SOL    HW179988   8.533  13.057   8.837  0.1988 -1.9363  0.3359
56686SOL    HW279989   8.560  13.121   8.702 -1.4001 -0.9668  0.4493
56687SOL     OW79990   9.148   3.292   4.249  0.7558 -0.1177 -0.4638
56687SOL    HW179991   9.205   3.215   4.244  2.0673  0.4865  2.5063
56687SOL    HW279992   9.197   3.362   4.206  0.4899 -0.4664 -1.3404
56688SOL     OW79993  12.467   6.118   4.523  0.0463 -0.0714 -0.2248
56688SOL    HW179994  12.448   6.086   4.435  1.4159  1.9595 -1.3421
56688SOL    HW279995  12.539   6.063   4.554 -1.3688 -1.7412  0.3003
56689SOL     OW79996   6.133   2.886   1.892 -0.1540  0.0540 -0.0958
56689SOL    HW179997   6.084   2.826   1.835  2.3488 -1.3626 -0.9183
56689SOL    HW279998   6.225   2.870   1.869  0.7348  2.3433  1.5708
56690SOL     OW79999   7.444   8.564   0.342  0.1660  0.0616  0.1111
56690SOL    HW180000   7.481   8.651   0.331  0.9024 -0.2436  0.1190
56690SOL    HW280001   7.481   8.533   0.425 -0.9190  0.1518  0.6445
56691SOL     OW80002   6.724   2.239   1.212 -0.1174  0.3372 -0.2547
56691SOL    HW180003   6.815   2.219   1.235  0.1174  0.3078 -1.1549
56691SOL    HW280004   6.717   2.334   1.222  0.4450  0.5454 -1.5636
56692SOL     OW80005   9.423   9.281   0.519  0.1575 -0.1189  0.3310
56692SOL    HW180006   9.380   9.272   0.604  1.1553  0.6255  0.9457
56692SOL    HW280007   9.410   9.373   0.496  0.2935 -0.2063 -0.1060
56693SOL     OW80008  13.239  10.109  12.252 -0.1130  0.2723  0.1543
56693SOL    HW180009  13.267  10.084  12.340  0.1107  1.7846  0.5438
56693SOL    HW280010  13.201  10.196  12.264  0.8305  0.9215 -1.4101
56694SOL     OW80011   1.917   7.235  10.073  0.0897 -0.0648  0.2680
56694SOL    HW180012   1.846   7.298  10.061 -0.3606 -0.4426  0.9061
56694SOL    HW280013   1.908   7.205  10.163  1.2620  0.1168  0.4616
56695SOL     OW80014   1.646   9.306   6.600  0.3248 -0.2500 -0.0176
56695SOL    HW180015   1.625   9.223   6.641  0.1006 -0.5363 -0.6872
56695SOL    HW280016   1.732   9.329   6.634 -0.4348  0.2156  1.6493
56696SOL     OW80017   0.005   2.533  12.201  0.6324  0.3831  0.0750
56696SOL    HW180018   0.037   2.623  12.191  0.7061  0.2561 -0.9124
56696SOL    HW280019  -0.067   2.525  12.138 -0.3110  0.1701  1.1451
56697SOL     OW80020  10.248  11.690   7.824  0.1600  0.0667  0.4644
56697SOL    HW180021  10.266  11.759   7.760 -1.3813 -2.2344 -2.6837
56697SOL    HW280022  10.332  11.648   7.838  0.5789  0.8105  0.2482
56698SOL     OW80023   2.922   5.329  10.135  0.2642  0.0972  0.3462
56698SOL    HW180024   2.991   5.351  10.197  0.4011  0.1161  0.1889
56698SOL    HW280025   2.841   5.339  10.184  0.2970  1.2446  0.1977
56699SOL     OW80026   3.760   2.978   4.236 -0.4340  0.0175  0.2287
56699SOL    HW180027   3.784   2.886   4.242 -0.3738  0.1208  2.2697
56699SOL    HW280028   3.698   2.992   4.307 -2.4017  1.0129 -1.5790
56700SOL     OW80029   0.141   7.404   5.648 -0.2619 -0.3339 -0.3914
56700SOL    HW180030   0.153   7.365   5.562  0.8848 -0.7844 -0.0478
56700SOL    HW280031   0.098   7.336   5.700 -1.3767  0.0998 -0.7125
56701SOL     OW80032   9.970  10.656   9.031  0.8607 -0.4127  0.0412
56701SOL    HW180033   9.914  10.715   8.981  1.9826  1.1201  0.4878
56701SOL    HW280034   9.928  10.649   9.117  0.8918  0.0300  0.0948
56702SOL     OW80035   4.005  10.296   7.124 -0.4943  1.0004 -0.2514
56702SOL    HW180036   4.089  10.277   7.081 -0.1618 -1.0039  1.1451
56702SOL    HW280037   3.957  10.213   7.122 -2.2833  1.9867 -0.6027
56703SOL     OW80038   5.095   5.943   2.193  0.3210 -0.1151  0.0775
56703SOL    HW180039   5.019   5.956   2.250  1.4495 -1.6162  2.0062
56703SOL    HW280040   5.080   5.857   2.153 -0.5120  0.9500 -2.1371
56704SOL     OW80041   6.351  11.999   2.788  0.6183 -0.2514 -0.2572
56704SOL    HW180042   6.263  11.978   2.757  1.5212 -1.5798 -2.1076
56704SOL    HW280043   6.338  12.035   2.876 -1.8202  0.4761 -0.8557
56705SOL     OW80044   1.331  11.317   1.780 -0.5772 -0.2134  0.1757
56705SOL    HW180045   1.297  11.316   1.691  2.5868  0.1772 -1.1945
56705SOL    HW280046   1.414  11.364   1.773  0.1623 -0.8381  3.2088
56706SOL     OW80047   4.070   0.923   8.183  0.5936 -0.4491 -0.3201
56706SOL    HW180048   4.074   0.863   8.257  0.2099 -0.8966 -0.6563
56706SOL    HW280049   4.103   1.006   8.218 -0.6491 -0.3354  0.6698
56707SOL     OW80050   8.352  12.804   0.232 -0.2571  0.1093 -0.3059
56707SOL    HW180051   8.280  12.856   0.198  0.0673  0.7234 -0.0648
56707SOL    HW280052   8.312  12.751   0.302 -0.1920  1.6208  0.9433
56708SOL     OW80053   0.862   8.173   4.999  0.4455 -0.3825  0.3390
56708SOL    HW180054   0.806   8.177   4.921 -0.8785 -1.3971  1.2043
56708SOL    HW280055   0.872   8.264   5.025 -0.4271 -0.1433 -0.1101
56709SOL     OW80056   3.779  11.503   6.571  0.1506  0.2838 -0.6706
56709SOL    HW180057   3.686  11.518   6.555 -0.1393 -1.1464 -0.5124
56709SOL    HW280058   3.793  11.531   6.661 -1.2386 -3.5441  0.9886
56710SOL     OW80059  13.298   7.163   2.193 -0.1109  0.1752  0.0190
56710SOL    HW180060  13.252   7.079   2.198 -0.7654  0.3959 -1.7809
56710SOL    HW280061  13.273   7.208   2.273 -2.2548 -0.1184 -0.4334
56711SOL     OW80062  11.111   7.439   7.373  0.5165 -0.6312 -0.1708
56711SOL    HW180063  11.025   7.470   7.346  0.0201 -1.9416 -0.1483
56711SOL    HW280064  11.172   7.479   7.310  0.2800  2.5585  1.4375
56712SOL     OW80065   2.855   9.252   8.550  0.4965  0.0709 -0.0008
56712SOL    HW180066   2.872   9.330   8.603  1.8073 -0.7399  0.8511
56712SOL    HW280067   2.855   9.180   8.613 -0.2435 -0.6723 -0.8284
56713SOL     OW80068  10.961   6.724  11.432 -0.7639  0.0972  0.0562
56713SOL    HW180069  10.996   6.812  11.446  0.3256 -0.2943 -0.0887
56713SOL    HW280070  10.937   6.693  11.520 -3.0477  1.2539 -0.0807
56714SOL     OW80071   2.115   6.966   9.835 -0.0538  0.1040  0.6058
56714SOL    HW180072   2.131   6.937   9.745 -3.2280  1.9371 -0.7237
56714SOL    HW280073   2.171   7.043   9.846  1.6098 -1.0971  0.8825
56715SOL     OW80074   4.797   3.660   9.069  0.4550 -0.1183  0.5626
56715SOL    HW180075   4.708   3.664   9.103 -0.0125 -0.8569 -0.5114
56715SOL    HW280076   4.824   3.569   9.083 -0.1838 -0.7745 -1.9821
56716SOL     OW80077   7.178   3.114   2.908  0.6805 -0.1393 -0.2711
56716SOL    HW180078   7.147   3.031   2.945  0.8630  0.6500  1.8309
56716SOL    HW280079   7.109   3.140   2.847  0.3686 -1.5624 -0.5575
56717SOL     OW80080   7.101   9.414   9.423  0.3098  0.4478 -0.2583
56717SOL    HW180081   7.073   9.338   9.473  1.1072  0.7621  0.6990
56717SOL    HW280082   7.076   9.394   9.333  2.0887 -1.7754 -0.3684
56718SOL     OW80083  12.767  10.502   8.573  0.7329  0.2305 -0.8467
56718SOL    HW180084  12.674  10.482   8.581  0.2905  2.0186 -1.2948
56718SOL    HW280085  12.809  10.416   8.577 -0.9428 -0.6487 -0.9988
56719SOL     OW80086   1.860   5.185   2.917 -0.4795  0.1209  0.4504
56719SOL    HW180087   1.833   5.219   3.002 -1.1659  0.0892  0.2603
56719SOL    HW280088   1.810   5.239   2.854 -1.9677 -1.5118  0.1522
56720SOL     OW80089   4.812   6.729   1.154 -0.2318  0.4801 -0.1965
56720SOL    HW180090   4.735   6.673   1.164 -0.5835  0.9958 -0.0195
56720SOL    HW280091   4.823   6.771   1.239 -0.4833  1.3377 -0.5856
56721SOL     OW80092   5.341   1.852   4.384  0.0699  0.7689  0.0720
56721SOL    HW180093   5.391   1.815   4.311 -1.5799 -1.5621  0.0142
56721SOL    HW280094   5.384   1.821   4.463  0.7297  1.7046  0.0983
56722SOL     OW80095   9.156   0.639   6.997 -0.0149  0.4789  0.4683
56722SOL    HW180096   9.212   0.679   7.064 -1.0184 -0.1079  1.6942
56722SOL    HW280097   9.180   0.547   6.997  1.0202  0.7095 -1.0698
56723SOL     OW80098   3.431   2.731   0.329  0.0733  0.4588 -0.0095
56723SOL    HW180099   3.457   2.675   0.256 -2.9501 -1.9269  0.5502
56723SOL    HW280100   3.481   2.698   0.404 -1.2871 -1.3116  0.1964
56724SOL     OW80101   7.511   8.956   2.258  0.8959 -0.0827 -0.2228
56724SOL    HW180102   7.463   8.888   2.306  0.1504 -0.0364 -0.8763
56724SOL    HW280103   7.554   9.007   2.326 -0.0440 -0.0865  0.3991
56725SOL     OW80104  12.679   9.590   6.632  0.2340  0.3598  0.0655
56725SOL    HW180105  12.614   9.521   6.623  0.2477  0.4032 -0.3780
56725SOL    HW280106  12.628   9.669   6.647  0.2554  0.0296  2.1840
56726SOL     OW80107   2.299   2.498  12.342  0.9264  0.1721 -0.1701
56726SOL    HW180108   2.300   2.588  12.308  1.4558  0.5786  0.8902
56726SOL    HW280109   2.211   2.466  12.321  0.2755  1.3978  0.5687
56727SOL     OW80110  10.617   6.792   9.419 -1.3505 -0.5847  0.3113
56727SOL    HW180111  10.577   6.874   9.392  2.4334  1.5639  0.4627
56727SOL    HW280112  10.661   6.760   9.340  0.1169 -0.4801  1.0450
56728SOL     OW80113  10.684   3.935   7.622 -0.2301 -0.0721 -0.3876
56728SOL    HW180114  10.773   3.921   7.589 -0.3285 -0.6381 -0.4204
56728SOL    HW280115  10.693   3.926   7.717 -0.1653  0.3661 -0.3491
56729SOL     OW80116  12.818   1.370  11.727 -0.0759 -0.2872  0.5414
56729SOL    HW180117  12.859   1.291  11.761  2.1336 -0.1393 -1.5092
56729SOL    HW280118  12.753   1.337  11.664 -1.4414 -0.4750  1.9980
56730SOL     OW80119   1.071   9.277  12.824  0.0125 -0.3255 -0.2353
56730SOL    HW180120   1.120   9.331  12.762  0.0032 -0.5921 -0.4719
56730SOL    HW280121   0.992   9.328  12.842  1.4615  1.3370  2.0953
56731SOL     OW80122  10.968   8.441  10.878 -0.2560  0.0213 -0.4950
56731SOL    HW180123  11.052   8.486  10.871  0.7480 -1.3979  1.4045
56731SOL    HW280124  10.986   8.365  10.933 -3.0967  0.4803  1.2927
56732SOL     OW80125  12.548   7.191   1.211  0.3048  0.2436  0.1398
56732SOL    HW180126  12.601   7.153   1.141 -0.5139  0.3042 -0.5456
56732SOL    HW280127  12.484   7.246   1.164 -0.8045 -0.3785  0.8671
56733SOL     OW80128   3.022   0.632   4.384 -0.4578 -0.0318  0.1664
56733SOL    HW180129   2.990   0.555   4.338 -2.1169  0.1168  1.0153
56733SOL    HW280130   3.065   0.684   4.317  0.8816 -1.7573 -0.3961
56734SOL     OW80131   2.726   0.856   6.781 -0.3203  0.6095 -0.4613
56734SOL    HW180132   2.739   0.826   6.872 -0.6579  1.4080 -0.1433
56734SOL    HW280133   2.749   0.780   6.728 -1.1137 -0.2216  0.3262
56735SOL     OW80134   4.789   1.137   7.504  0.0955  0.0406 -0.6837
56735SOL    HW180135   4.808   1.171   7.416 -1.9990  0.5837 -0.9756
56735SOL    HW280136   4.800   1.212   7.562 -2.2230  0.7247 -1.0265
56736SOL     OW80137   8.606  11.963   4.165 -0.8233 -0.0281 -0.2958
56736SOL    HW180138   8.688  12.013   4.172  0.4916 -1.8622 -1.7122
56736SOL    HW280139   8.538  12.030   4.162  0.6202  1.5822  0.5613
56737SOL     OW80140  10.283   8.822   2.147 -0.1979  0.2386  0.7021
56737SOL    HW180141  10.295   8.887   2.078 -0.6042 -1.7681 -1.3633
56737SOL    HW280142  10.372   8.800   2.174  0.0869 -0.3510 -0.6132
56738SOL     OW80143   6.504  12.362   5.930  0.1249 -0.7028 -0.3523
56738SOL    HW180144   6.545  12.361   5.844 -0.6513 -0.9446 -0.7262
56738SOL    HW280145   6.526  12.277   5.968  0.2919 -0.6782 -0.3930
56739SOL     OW80146   7.061   7.475   3.631  0.0730  0.1603 -0.1860
56739SOL    HW180147   6.968   7.455   3.616  0.2695 -1.0776  0.1477
56739SOL    HW280148   7.062   7.524   3.713 -0.2169 -0.5909  0.2751
56740SOL     OW80149   9.070   7.794   3.667  0.3996  0.1271 -0.3337
56740SOL    HW180150   9.022   7.714   3.646 -1.0852  0.6060  1.0398
56740SOL    HW280151   9.161   7.774   3.645 -0.1347 -1.4527 -1.2671
56741SOL     OW80152  12.698   6.375   0.087 -0.1403  0.4534  0.2284
56741SOL    HW180153  12.702   6.311   0.015 -2.9346 -1.7133  1.7833
56741SOL    HW280154  12.672   6.457   0.045 -0.4690 -0.4396 -1.3986
56742SOL     OW80155   6.677   5.726   7.239  0.6426  0.4220 -0.1577
56742SOL    HW180156   6.658   5.642   7.281  1.5779 -0.1964 -0.9320
56742SOL    HW280157   6.770   5.721   7.217  0.8240  1.8521  0.1877
56743SOL     OW80158  11.694   1.753   9.421  0.3049 -0.5878 -0.0648
56743SOL    HW180159  11.738   1.722   9.500 -0.2955 -0.8965  0.1588
56743SOL    HW280160  11.757   1.811   9.379 -0.1030  1.1815  1.6734
56744SOL     OW80161   4.456   0.441  10.612 -0.3694 -0.1078 -0.2280
56744SOL    HW180162   4.372   0.409  10.579  0.3245 -2.0554 -0.2487
56744SOL    HW280163   4.482   0.376  10.677  0.1706  1.5663  1.3307
56745SOL     OW80164  12.575   6.481  11.777 -0.1026 -0.4134  0.2731
56745SOL    HW180165  12.508   6.416  11.758  0.4790 -0.8652 -0.2938
56745SOL    HW280166  12.635   6.438  11.838 -0.1741 -0.1073  0.5646
56746SOL     OW80167   6.202   0.981   8.299  0.8233  0.3744 -0.1647
56746SOL    HW180168   6.109   0.969   8.317  0.7473 -0.1932 -0.8672
56746SOL    HW280169   6.229   1.053   8.356  0.0166  0.3678  0.2369
56747SOL     OW80170   1.395   9.378   9.301  0.6734 -0.3683 -0.3269
56747SOL    HW180171   1.472   9.377   9.357  0.9736  0.0812 -0.7277
56747SOL    HW280172   1.427   9.407   9.216 -0.1628  1.1205 -0.1581
56748SOL     OW80173   7.820   4.514  12.851  0.6286 -0.0184 -0.7489
56748SOL    HW180174   7.741   4.544  12.808  0.3001  0.8251  0.3981
56748SOL    HW280175   7.790   4.470  12.930  1.2150 -1.6456 -1.3665
56749SOL     OW80176   0.738   3.643   7.593 -0.2341  0.0310  0.3507
56749SOL    HW180177   0.756   3.564   7.643  0.3460 -0.2511 -0.2860
56749SOL    HW280178   0.805   3.705   7.620 -0.8904  0.4276  1.0962
56750SOL     OW80179   6.955   0.722   7.120 -0.1531 -0.1453  0.2802
56750SOL    HW180180   6.892   0.689   7.185 -0.3805 -0.2244  0.0226
56750SOL    HW280181   7.041   0.702   7.158 -0.1277  3.0647  2.3011
56751SOL     OW80182   1.932   5.145   3.346 -0.0584  0.2394 -0.6089
56751SOL    HW180183   1.985   5.183   3.417  0.7878  0.2928 -1.2594
56751SOL    HW280184   1.987   5.075   3.310 -0.8619 -0.3915 -0.6247
56752SOL     OW80185   3.925   3.223   3.952 -0.2555  0.1345  0.5366
56752SOL    HW180186   3.996   3.284   3.931 -0.5999  0.1114 -0.7975
56752SOL    HW280187   3.966   3.137   3.948 -0.6100  0.0010 -1.7062
56753SOL     OW80188   9.754  10.895  10.767 -0.2751 -0.4208  0.2332
56753SOL    HW180189   9.718  10.862  10.684  1.8715 -1.5790 -0.3179
56753SOL    HW280190   9.814  10.965  10.741 -0.9287  0.4488  0.9991
56754SOL     OW80191  11.483  10.399   4.249 -0.3220  0.4304  0.5092
56754SOL    HW180192  11.482  10.482   4.201 -0.0587  0.7035  0.9662
56754SOL    HW280193  11.531  10.419   4.330  0.2105 -0.3068  0.3789
56755SOL     OW80194  12.211   2.358   8.797 -0.3434  0.8895  0.0964
56755SOL    HW180195  12.194   2.319   8.883  2.4616  0.2918  0.4846
56755SOL    HW280196  12.125   2.384   8.765 -1.5835  0.3307  2.6930
56756SOL     OW80197  10.105   6.140   2.900 -0.1215  0.2526  0.2178
56756SOL    HW180198  10.036   6.197   2.933 -1.3790 -1.3574  0.4765
56756SOL    HW280199  10.104   6.152   2.805  0.0764  1.1071  0.3120
56757SOL     OW80200   8.298  11.879   1.316 -0.0844  0.4034 -0.2655
56757SOL    HW180201   8.301  11.899   1.410  0.4792  1.2763 -0.4516
56757SOL    HW280202   8.248  11.798   1.310  2.9196 -1.7927  1.1584
56758SOL     OW80203   5.474   1.334   6.592  0.4631  0.9083 -0.2575
56758SOL    HW180204   5.384   1.364   6.610  0.2098  0.2392 -0.3606
56758SOL    HW280205   5.506   1.304   6.677  0.2055  0.1722 -0.4125
56759SOL     OW80206  12.798  12.122   7.008 -0.0126  0.4019  0.0797
56759SOL    HW180207  12.867  12.180   6.978  0.7587 -0.6605 -0.2650
56759SOL    HW280208  12.844  12.047   7.046 -0.9753  0.0451  0.5808
56760SOL     OW80209  12.764  12.827   2.888 -0.1612 -0.0035 -0.4531
56760SOL    HW180210  12.742  12.772   2.963  0.0503  0.6936  0.1288
56760SOL    HW280211  12.791  12.910   2.926 -0.0391  0.3579 -1.3046
56761SOL     OW80212  11.206   7.318   2.918  0.4851 -0.4491  0.1263
56761SOL    HW180213  11.231   7.233   2.881  1.0721 -0.4086  0.4156
56761SOL    HW280214  11.287   7.354   2.952 -0.0331 -0.5063  1.5025
56762SOL     OW80215  11.337  11.366   6.875  0.0773  0.3693 -0.0618
56762SOL    HW180216  11.416  11.319   6.851 -0.5423 -2.6744  3.0564
56762SOL    HW280217  11.273  11.341   6.809  0.4488 -1.1864  0.1260
56763SOL     OW80218   0.934   8.427   9.282  0.2397  0.0127  0.2457
56763SOL    HW180219   0.933   8.523   9.285 -1.3149  0.0103  1.4041
56763SOL    HW280220   1.027   8.404   9.282  0.7053  1.5174 -2.3577
56764SOL     OW80221  11.717   0.096   4.085  0.4858  0.2538  0.1158
56764SOL    HW180222  11.648   0.031   4.073 -2.2193  2.7156  1.0302
56764SOL    HW280223  11.697   0.164   4.020  2.3163  0.8839  0.1532
56765SOL     OW80224   7.637   9.679  10.566 -0.1060  0.4277  0.0074
56765SOL    HW180225   7.618   9.594  10.526 -0.3021 -0.1162  1.2048
56765SOL    HW280226   7.685   9.658  10.646  1.9949  1.5851 -0.8586
56766SOL     OW80227  12.048   4.982   4.605 -0.0261  0.4472 -0.1104
56766SOL    HW180228  12.050   5.000   4.511 -0.3009  0.7631 -0.0561
56766SOL    HW280229  12.103   5.050   4.644 -0.0403  0.4113 -0.0266
56767SOL     OW80230   3.770  10.742   1.888 -0.2753  0.5469 -0.5309
56767SOL    HW180231   3.847  10.783   1.850 -0.1804  1.8008  0.9286
56767SOL    HW280232   3.696  10.797   1.861 -0.3752  0.6627 -0.0246
56768SOL     OW80233  10.251   9.974   8.986 -0.5301 -0.1586 -0.2171
56768SOL    HW180234  10.258  10.065   9.015  1.1032  0.0011 -1.0261
56768SOL    HW280235  10.269   9.977   8.892 -1.0948 -1.2569 -0.3813
56769SOL     OW80236   2.172   3.000   1.400 -0.1477 -0.5855  0.3772
56769SOL    HW180237   2.179   3.094   1.384 -1.2375 -0.4693  0.4444
56769SOL    HW280238   2.260   2.966   1.389 -0.0289  0.1838 -1.3362
56770SOL     OW80239   3.348   0.631   1.485 -1.3268  0.2053  0.3545
56770SOL    HW180240   3.415   0.696   1.507 -0.1473  0.4036 -3.2202
56770SOL    HW280241   3.360   0.561   1.550  0.6776  1.3443  1.2960
56771SOL     OW80242   3.720   3.248  12.470 -0.4300  0.0671 -0.0040
56771SOL    HW180243   3.812   3.250  12.447 -0.9668  1.4319 -2.2673
56771SOL    HW280244   3.717   3.285  12.559  1.1955 -0.1873  0.1849
56772SOL     OW80245   7.710   0.724   6.662  0.8870 -0.5525 -0.2215
56772SOL    HW180246   7.782   0.764   6.613  0.0319 -0.3365 -1.3329
56772SOL    HW280247   7.657   0.797   6.692 -0.5029 -0.7897 -1.9835
56773SOL     OW80248   5.618   5.848   8.857  0.0943 -1.2155  0.6452
56773SOL    HW180249   5.660   5.899   8.927  2.1567 -1.4971 -0.3075
56773SOL    HW280250   5.541   5.809   8.899  0.1545  0.2080  2.2131
56774SOL     OW80251  10.932   0.059   8.807 -0.0900  0.0698  0.7901
56774SOL    HW180252  11.008   0.005   8.828 -0.7314 -1.4854 -0.6167
56774SOL    HW280253  10.943   0.080   8.714 -2.2569 -1.8353  0.0040
56775SOL     OW80254  13.262   3.548   2.641 -0.6172 -0.3655 -0.1455
56775SOL    HW180255  13.240   3.582   2.727  0.5910  0.5168 -0.1679
56775SOL    HW280256  13.325   3.610   2.605  0.1785 -1.5980 -0.9788
56776SOL     OW80257   5.494   9.744   1.584  0.0183  0.2629  0.3413
56776SOL    HW180258   5.484   9.828   1.541  2.0053  0.2327 -0.3010
56776SOL    HW280259   5.520   9.765   1.674 -0.3267  0.3259  0.4274
56777SOL     OW80260  13.217   2.244  10.967  0.1191  0.3095  0.2125
56777SOL    HW180261  13.202   2.155  10.936  0.2903 -0.1694  1.4476
56777SOL    HW280262  13.148   2.296  10.926  0.6432 -0.1791 -1.3586
56778SOL     OW80263   9.205  12.295   9.905 -0.7164 -0.2794 -0.1843
56778SOL    HW180264   9.194  12.201   9.919  0.8873 -0.5438 -0.5542
56778SOL    HW280265   9.118  12.324   9.877 -1.4545 -1.4814  0.7280
56779SOL     OW80266   8.385   4.459   7.847  0.8087 -0.0101  0.5173
56779SOL    HW180267   8.340   4.407   7.781 -1.3650  1.2542  0.8952
56779SOL    HW280268   8.423   4.532   7.799  0.9914 -0.1779  0.4079
56780SOL     OW80269   7.087   1.546   0.542  0.4820  0.5176 -0.2820
56780SOL    HW180270   7.152   1.580   0.602  2.3414  1.7809 -2.8204
56780SOL    HW280271   7.137   1.520   0.464 -1.7927 -0.6774 -1.4655
56781SOL     OW80272   1.006   3.111  12.151  0.4896  0.0545 -0.5337
56781SOL    HW180273   0.964   3.185  12.195  0.4782  0.5357 -1.3218
56781SOL    HW280274   0.991   3.128  12.058 -0.4232 -1.4852 -0.6994
56782SOL     OW80275   4.653   7.730   2.104  0.4626 -0.2215 -0.2622
56782SOL    HW180276   4.739   7.770   2.114  0.0851  1.1356 -2.0746
56782SOL    HW280277   4.670   7.636   2.106  1.8740  0.0236  0.1575
56783SOL     OW80278   5.702   2.423   1.899 -0.4335 -0.4051 -0.3775
56783SOL    HW180279   5.720   2.495   1.959  4.1587 -0.0589 -1.7634
56783SOL    HW280280   5.673   2.351   1.956  0.7664  0.7893  1.8899
56784SOL     OW80281   0.442   1.092   1.642  0.0908  0.4380  0.2443
56784SOL    HW180282   0.357   1.132   1.624  0.8347  1.3264 -1.5748
56784SOL    HW280283   0.493   1.162   1.682 -0.0212 -0.1139  1.4009
56785SOL     OW80284   3.089   9.383   8.328  0.2623 -0.4211  0.0171
56785SOL    HW180285   3.010   9.375   8.273 -0.1922 -0.9461  0.7294
56785SOL    HW280286   3.160   9.395   8.265 -0.3789  0.0256 -0.6466
56786SOL     OW80287   0.569  10.438  10.090 -0.0764  0.4502  0.3080
56786SOL    HW180288   0.648  10.451  10.037 -0.6099 -0.1401 -0.6601
56786SOL    HW280289   0.580  10.498  10.164  0.1959  2.0835 -0.9974
56787SOL     OW80290  12.442  11.974   7.262  0.3703 -0.0865  0.2610
56787SOL    HW180291  12.383  11.905   7.291 -0.2125  0.7033  1.0088
56787SOL    HW280292  12.385  12.050   7.247  1.2290  0.8626  1.5415
56788SOL     OW80293   1.785   0.894   6.240 -0.0673  0.1076 -0.2379
56788SOL    HW180294   1.806   0.823   6.180 -1.1795 -1.1521  0.8126
56788SOL    HW280295   1.698   0.924   6.213  0.4941  1.2748 -0.8292
56789SOL     OW80296  12.985   5.893   7.898 -0.0861  0.2160  0.2812
56789SOL    HW180297  12.949   5.947   7.969  0.2999  0.6864  0.1230
56789SOL    HW280298  12.909   5.846   7.863 -0.7258  1.8212 -0.6046
56790SOL     OW80299   4.088   7.709  12.462 -0.2524  0.1001 -0.1070
56790SOL    HW180300   4.024   7.775  12.434  2.6426  2.3668 -2.0359
56790SOL    HW280301   4.124   7.674  12.381  0.3850 -1.7368  0.9070
56791SOL     OW80302   2.306   5.589   4.090 -0.6641  0.1268  0.1390
56791SOL    HW180303   2.231   5.647   4.105  0.0367  0.4566  2.9186
56791SOL    HW280304   2.312   5.537   4.171  1.4314 -0.6859 -0.4829
56792SOL     OW80305   4.572   9.662   8.921  0.6546 -0.0693  0.1041
56792SOL    HW180306   4.583   9.694   8.831 -0.2107 -0.5131 -0.1720
56792SOL    HW280307   4.529   9.734   8.967  0.9473  0.0942  0.1277
56793SOL     OW80308   9.368   8.258  11.947  0.0574 -0.1343  0.3162
56793SOL    HW180309   9.286   8.221  11.915 -0.3137  0.8977  0.0060
56793SOL    HW280310   9.355   8.353  11.939  1.5507  0.0358 -0.4237
56794SOL     OW80311   5.101   0.440  11.087  0.1469  0.4029 -0.5003
56794SOL    HW180312   5.188   0.402  11.099 -0.4127 -0.8796 -0.2743
56794SOL    HW280313   5.062   0.438  11.175 -0.7371 -0.6906 -0.8967
56795SOL     OW80314   0.782  10.724  10.315  0.2620 -0.0369  0.1612
56795SOL    HW180315   0.700  10.679  10.293 -0.2058  1.3740 -1.1929
56795SOL    HW280316   0.755  10.806  10.355  0.9971  0.4167 -0.2375
56796SOL     OW80317   0.564   8.340   2.844 -0.2032  0.3269 -0.1048
56796SOL    HW180318   0.585   8.251   2.816 -0.7288 -0.3167  1.4219
56796SOL    HW280319   0.498   8.370   2.781 -1.1657 -0.9682  0.2361
56797SOL     OW80320  10.815  10.742   3.418  0.4319  0.4997 -0.2608
56797SOL    HW180321  10.900  10.724   3.378 -0.7122  0.1330 -2.7179
56797SOL    HW280322  10.753  10.693   3.365 -1.3667  0.9183  1.3482
56798SOL     OW80323   3.772   3.914   7.086 -0.2485  0.1778  0.2307
56798SOL    HW180324   3.777   4.008   7.070 -1.3407  0.8805  3.3054
56798SOL    HW280325   3.679   3.892   7.075  0.1361 -0.8124 -1.4246
56799SOL     OW80326   0.360   4.631   4.379 -0.0145 -0.3495 -0.1485
56799SOL    HW180327   0.274   4.597   4.357 -0.1953  0.4848 -0.7849
56799SOL    HW280328   0.347   4.682   4.459 -0.1456 -0.0953 -0.3313
56800SOL     OW80329   4.709  11.473   1.522  0.1293 -0.2414 -0.2163
56800SOL    HW180330   4.680  11.382   1.531  2.5434 -1.1435 -0.8838
56800SOL    HW280331   4.676  11.500   1.436 -1.8121  0.0697  0.5594
56801SOL     OW80332   1.263  10.782   7.740 -0.5461 -0.6175  0.3937
56801SOL    HW180333   1.319  10.713   7.776 -0.2274  0.8458  3.0255
56801SOL    HW280334   1.177  10.766   7.779  0.0143  1.5136  2.8081
56802SOL     OW80335   2.542   9.632  10.330 -0.4869 -0.0275 -0.1594
56802SOL    HW180336   2.631   9.597  10.343 -0.9541 -1.7816 -1.4119
56802SOL    HW280337   2.553   9.700  10.264 -0.3188 -1.5915 -1.7927
56803SOL     OW80338   2.090   1.880  12.269  0.1634  0.0630 -0.1800
56803SOL    HW180339   2.091   1.970  12.303 -0.8081  0.3162 -0.7882
56803SOL    HW280340   2.017   1.838  12.316 -0.7566  0.2224 -1.4089
56804SOL     OW80341  10.650   7.729   4.292  0.2421  0.1558 -0.2515
56804SOL    HW180342  10.613   7.775   4.217  4.2271  4.3567 -0.0689
56804SOL    HW280343  10.661   7.796   4.359  2.3127 -2.0935  1.8875
56805SOL     OW80344  11.458   1.833   5.391 -0.3845  0.3330 -0.0976
56805SOL    HW180345  11.516   1.762   5.360 -2.7611 -1.0556 -1.6695
56805SOL    HW280346  11.472   1.835   5.486  0.8655 -1.2258 -0.2055
56806SOL     OW80347   4.052   6.313   5.415  0.9080  0.1368  0.1384
56806SOL    HW180348   4.107   6.341   5.488 -1.0189  1.0678  1.3094
56806SOL    HW280349   4.011   6.232   5.445  1.0153 -0.1333 -0.4196
56807SOL     OW80350   3.772  10.213   0.176 -0.3396  0.1148 -0.2654
56807SOL    HW180351   3.866  10.230   0.178 -0.3669  0.3697 -0.8172
56807SOL    HW280352   3.764  10.118   0.189  0.0402 -0.0232 -0.9781
56808SOL     OW80353   5.944  13.067   6.691  0.3827  0.6362  0.3612
56808SOL    HW180354   5.953  13.104   6.604 -2.3726  2.3199  0.6707
56808SOL    HW280355   6.023  13.095   6.738  2.5106 -1.2968 -1.7918
56809SOL     OW80356   0.071   3.125   1.819  0.1033 -0.4019 -0.3986
56809SOL    HW180357   0.112   3.081   1.745 -0.8579 -0.9865 -0.5962
56809SOL    HW280358   0.028   3.202   1.780 -2.7193 -2.1183 -0.9788
56810SOL     OW80359   0.459   3.819   6.014 -0.6859 -0.0352  0.2456
56810SOL    HW180360   0.369   3.820   5.982 -0.1384  0.0834 -1.3765
56810SOL    HW280361   0.468   3.900   6.064 -1.6982 -0.4321  1.0945
56811SOL     OW80362  10.914   9.554   1.088  0.1787 -0.1305  0.2234
56811SOL    HW180363  10.856   9.486   1.122  0.4557 -0.2266  0.5060
56811SOL    HW280364  10.998   9.510   1.076  0.1287 -0.0542 -0.4278
56812SOL     OW80365   0.035   6.725   0.657 -0.1810  0.4003  0.7684
56812SOL    HW180366   0.006   6.811   0.627 -1.4020 -0.5896 -1.0525
56812SOL    HW280367   0.131   6.728   0.647 -0.3725  0.7026 -1.9242
56813SOL     OW80368  11.314   3.322   3.810 -0.4290  0.0902  0.4080
56813SOL    HW180369  11.256   3.396   3.792 -1.8975 -0.9371  0.6870
56813SOL    HW280370  11.286   3.290   3.896 -0.2086 -1.1108  0.0519
56814SOL     OW80371   3.989   8.438   9.355 -0.5516 -0.8426 -0.0628
56814SOL    HW180372   4.076   8.410   9.384 -1.3333 -3.2026  0.2756
56814SOL    HW280373   3.953   8.486   9.430 -0.0515 -1.0609  0.3189
56815SOL     OW80374   9.051   2.066   1.303 -0.0162  0.0730  0.5879
56815SOL    HW180375   9.026   2.021   1.383  1.5590  1.0668  1.6993
56815SOL    HW280376   9.129   2.019   1.272  0.0837  0.4264  0.2953
56816SOL     OW80377   0.661  12.225   6.244  0.3904  0.5054  0.1257
56816SOL    HW180378   0.671  12.227   6.339  0.7772 -0.1110  0.1071
56816SOL    HW280379   0.716  12.297   6.213  0.0397  0.8882  0.3821
56817SOL     OW80380   0.701   6.490   8.853 -0.0275 -0.3232 -0.6654
56817SOL    HW180381   0.733   6.534   8.774  1.3923 -0.8380 -0.4033
56817SOL    HW280382   0.738   6.402   8.849  0.9353 -0.0519  1.0619
56818SOL     OW80383  12.937   8.102   2.006  0.0692 -0.1473 -0.1881
56818SOL    HW180384  12.924   8.010   2.029 -1.4527 -0.1010 -0.7172
56818SOL    HW280385  12.858   8.146   2.038  0.9527  1.0708  0.4303
56819SOL     OW80386   9.103   4.968   1.105  0.6041  0.2160  0.4523
56819SOL    HW180387   9.161   4.892   1.093  1.0131  0.6632 -0.5582
56819SOL    HW280388   9.041   4.940   1.173 -0.0244 -1.4803 -0.7365
56820SOL     OW80389   6.356   6.815  12.252 -0.3591 -0.6811  0.1221
56820SOL    HW180390   6.269   6.790  12.286 -1.1617  0.9997 -0.5927
56820SOL    HW280391   6.348   6.806  12.157 -0.0069  0.2385 -0.0009
56821SOL     OW80392  11.775   3.715   6.751  0.2674 -0.0200  1.1769
56821SOL    HW180393  11.760   3.799   6.794 -0.9541 -0.3968  1.5039
56821SOL    HW280394  11.748   3.649   6.815  1.1747 -0.6719  0.9082
56822SOL     OW80395   1.436  11.480  12.730 -0.4550 -0.0369 -0.0864
56822SOL    HW180396   1.440  11.416  12.659  0.2090  0.0291 -0.1107
56822SOL    HW280397   1.392  11.434  12.801 -0.1775 -0.4503 -0.1783
56823SOL     OW80398   7.034   8.043  11.690 -0.0046 -0.0431  0.7505
56823SOL    HW180399   7.036   8.057  11.785 -0.6938 -0.1493  0.7852
56823SOL    HW280400   7.123   8.016  11.668  0.2164  0.1934  1.3352
56824SOL     OW80401   5.498   4.196   0.092 -0.4275 -0.5251 -0.2984
56824SOL    HW180402   5.450   4.161   0.017 -1.1858  2.9887 -1.6691
56824SOL    HW280403   5.431   4.211   0.159 -0.0352 -2.0508  0.4567
56825SOL     OW80404   5.881   5.763  11.473  0.4540 -0.3437  0.3172
56825SOL    HW180405   5.936   5.772  11.395  1.3615 -0.4240  0.9244
56825SOL    HW280406   5.942   5.733  11.541 -0.5379 -1.3694  0.7838
56826SOL     OW80407   7.700   6.824   0.405 -0.0670 -0.0855 -0.0236
56826SOL    HW180408   7.740   6.789   0.484  1.2247 -0.0278 -0.6354
56826SOL    HW280409   7.683   6.746   0.351  1.4567  0.0816 -0.7699
56827SOL     OW80410   0.237   1.776   4.879  0.2986 -0.2804 -0.5633
56827SOL    HW180411   0.273   1.860   4.852 -0.6466  0.2513 -0.2356
56827SOL    HW280412   0.237   1.723   4.800 -0.2445  0.4535 -1.0744
56828SOL     OW80413   5.457   6.812   0.421  0.1220  0.5199 -0.5855
56828SOL    HW180414   5.370   6.825   0.384 -0.0254 -0.6587 -0.6927
56828SOL    HW280415   5.445   6.746   0.489  0.4427  2.4343  1.4024
56829SOL     OW80416   5.911   5.870   0.349  1.3215  0.3743 -0.2246
56829SOL    HW180417   5.909   5.835   0.260 -1.3632 -0.0625 -0.0912
56829SOL    HW280418   5.903   5.964   0.338  0.2306  0.2678 -0.4736
56830SOL     OW80419   9.382   0.772  12.971  0.0017  0.0585  0.1445
56830SOL    HW180420   9.424   0.824  12.902  0.8369 -0.8401 -0.0544
56830SOL    HW280421   9.432   0.792  13.050 -0.0826  0.0547  0.1994
56831SOL     OW80422   5.320  12.244  10.264  0.2267  0.0763 -0.0847
56831SOL    HW180423   5.300  12.213  10.176 -1.0706  1.1195 -0.1933
56831SOL    HW280424   5.378  12.177  10.301 -2.5048 -2.6222 -0.2390
56832SOL     OW80425   2.068   3.088   7.564 -0.4546 -0.4353 -0.2276
56832SOL    HW180426   2.064   3.097   7.659  1.2677  0.6286 -0.2077
56832SOL    HW280427   2.149   3.133   7.539 -0.4473 -1.3808 -2.1156
56833SOL     OW80428   1.295   6.140   5.701  0.4163 -0.8671  0.7635
56833SOL    HW180429   1.276   6.074   5.768 -0.1033 -1.0905  0.3972
56833SOL    HW280430   1.324   6.217   5.751 -1.1463 -0.6118  1.3496
56834SOL     OW80431   7.618   3.822   1.261  0.7620  0.4770 -0.1062
56834SOL    HW180432   7.661   3.736   1.262  1.1422  0.6129 -1.6397
56834SOL    HW280433   7.547   3.814   1.324  0.9262 -0.8980 -0.0604
56835SOL     OW80434   7.786   8.548   1.265  0.3783  0.0016 -0.2209
56835SOL    HW180435   7.816   8.581   1.180  0.5639  0.8162  0.1508
56835SOL    HW280436   7.760   8.627   1.313 -0.2524 -0.5025  0.2763
56836SOL     OW80437   7.889   8.629   2.159 -0.3151 -0.3422 -0.3217
56836SOL    HW180438   7.873   8.638   2.253 -0.7726 -2.2988 -0.1684
56836SOL    HW280439   7.982   8.608   2.152 -0.4097 -0.7766 -0.2640
56837SOL     OW80440   7.506   9.898   2.214  0.1106  0.5669  0.8054
56837SOL    HW180441   7.424   9.947   2.218  0.3457  0.8981  1.8942
56837SOL    HW280442   7.480   9.811   2.185 -0.4285  1.0526 -0.2649
56838SOL     OW80443   7.645   6.826   2.213  0.1057 -0.2893 -0.2783
56838SOL    HW180444   7.687   6.740   2.217  0.1144 -0.3028 -0.6592
56838SOL    HW280445   7.597   6.825   2.130 -0.2282 -0.0822 -0.0878
56839SOL     OW80446   6.004   7.552   3.686 -0.1166  0.0958  0.2667
56839SOL    HW180447   5.945   7.484   3.717  2.2072 -1.6154  1.2620
56839SOL    HW280448   6.038   7.519   3.603  0.1223  0.6257  0.1488
56840SOL     OW80449   2.421   4.017   6.659  0.5144 -0.1743 -0.2160
56840SOL    HW180450   2.345   3.967   6.690 -0.6834  1.3069 -0.6450
56840SOL    HW280451   2.482   3.950   6.627  0.4946 -1.5711  2.3701
56841SOL     OW80452   4.005  10.101   8.371 -0.2407 -0.7303 -0.8699
56841SOL    HW180453   4.060  10.022   8.368 -3.1857 -3.0308  0.2513
56841SOL    HW280454   3.934  10.078   8.431 -1.7711  2.5071 -1.2289
56842SOL     OW80455   4.760   8.167   0.039  0.1844 -0.3468 -0.0249
56842SOL    HW180456   4.838   8.115   0.055 -0.4777 -1.9662 -1.6763
56842SOL    HW280457   4.792   8.244  -0.008  0.9045 -0.4274  0.3197
56843SOL     OW80458   9.519   7.668   7.170  0.3228  0.1179 -0.5586
56843SOL    HW180459   9.589   7.732   7.186 -0.2391  1.3221 -2.5503
56843SOL    HW280460   9.562   7.599   7.118  0.6476 -0.5530  0.5723
56844SOL     OW80461   5.647  12.817   6.618 -0.1942  0.2417 -0.0330
56844SOL    HW180462   5.572  12.855   6.663  0.3272  1.5129 -0.1964
56844SOL    HW280463   5.714  12.807   6.686 -0.4938 -0.9144  0.1199
56845SOL     OW80464  11.521  12.310  12.804 -0.0876  0.3626  0.2254
56845SOL    HW180465  11.492  12.400  12.820 -0.2695  0.2491  0.5340
56845SOL    HW280466  11.599  12.320  12.750  0.1595  0.7289  0.6401
56846SOL     OW80467   8.836   9.875   9.224  0.1503  0.1638  0.5403
56846SOL    HW180468   8.763   9.883   9.287  0.7456 -0.0524  1.2726
56846SOL    HW280469   8.850   9.780   9.217 -0.0273  0.1804 -0.0605
56847SOL     OW80470   8.096  12.397   6.248  0.2434 -0.4448  0.6103
56847SOL    HW180471   8.069  12.331   6.184 -0.8182  1.7238 -1.3499
56847SOL    HW280472   8.090  12.480   6.201 -0.4102  1.3042  3.4947
56848SOL     OW80473   7.249   1.090   0.854  1.0317 -0.3402  0.0753
56848SOL    HW180474   7.210   1.167   0.896  2.4808  1.0808 -1.0721
56848SOL    HW280475   7.230   1.018   0.914 -1.4973  0.6381  0.5507
56849SOL     OW80476   1.833   1.121   0.287 -0.4770  0.8079 -0.0098
56849SOL    HW180477   1.817   1.118   0.192 -1.5747  0.3691  0.1682
56849SOL    HW280478   1.883   1.201   0.300 -0.3354  0.8937 -0.9614
56850SOL     OW80479  12.394   1.892  11.884 -0.0624  0.2232  0.3324
56850SOL    HW180480  12.446   1.961  11.843 -0.3943  1.1423  1.4216
56850SOL    HW280481  12.320   1.879  11.825  0.7134 -0.1941 -0.5799
56851SOL     OW80482   4.436   8.314   6.940  0.4003 -0.1249  0.2067
56851SOL    HW180483   4.452   8.265   7.021 -0.6293 -0.7134  0.0802
56851SOL    HW280484   4.342   8.303   6.925  0.3307  1.1167 -0.3417
56852SOL     OW80485  10.645   3.846   2.317  0.2658 -0.0671  0.4938
56852SOL    HW180486  10.660   3.798   2.398  2.3324  0.4484  0.4732
56852SOL    HW280487  10.551   3.837   2.300  0.1675 -1.9658  1.8031
56853SOL     OW80488  12.027   7.641   8.365  0.1005  0.3566  0.4435
56853SOL    HW180489  11.933   7.644   8.383  0.2215 -0.8806  1.3727
56853SOL    HW280490  12.047   7.548   8.355  0.8629  0.6995 -1.9023
56854SOL     OW80491   5.721   0.674  11.016 -0.0609 -0.1427 -0.5644
56854SOL    HW180492   5.702   0.620  11.092 -0.2246  0.1687 -0.3852
56854SOL    HW280493   5.733   0.611  10.945  0.1281 -0.4334 -0.2770
56855SOL     OW80494   4.054  10.573   6.258  0.0106 -0.1244 -1.0761
56855SOL    HW180495   3.980  10.545   6.204 -0.3469  3.3502 -2.6730
56855SOL    HW280496   4.110  10.623   6.198  2.4774 -0.6137  0.6403
56856SOL     OW80497   9.069  11.789   8.952  0.1238  0.4025  0.2954
56856SOL    HW180498   9.084  11.781   8.858  1.3217  0.4557  0.4738
56856SOL    HW280499   9.156  11.788   8.991 -0.0910  3.8957  1.1608
56857SOL     OW80500   9.572   9.047   3.495  0.1740 -0.1533 -0.4144
56857SOL    HW180501   9.652   9.075   3.538 -0.6674 -0.2117  1.2782
56857SOL    HW280502   9.571   8.952   3.505  0.0016 -0.1775 -0.6345
56858SOL     OW80503   3.386   6.750   1.167 -0.1967  0.5119  0.0803
56858SOL    HW180504   3.413   6.658   1.158 -1.8721  0.0062 -0.2556
56858SOL    HW280505   3.454   6.790   1.220  0.2914 -1.0871  0.7293
56859SOL     OW80506   2.856   7.685   8.190  0.5292  0.3015  0.5207
56859SOL    HW180507   2.921   7.700   8.121 -0.3492 -2.4430 -1.0510
56859SOL    HW280508   2.879   7.599   8.226 -0.9159  0.2797  1.4830
56860SOL     OW80509   2.730  10.020   2.854  0.3795 -0.6260 -0.0996
56860SOL    HW180510   2.760   9.931   2.837  0.5620 -0.6436  0.3107
56860SOL    HW280511   2.696  10.018   2.943  0.1520 -0.3457 -0.1765
56861SOL     OW80512   2.465  13.133   2.342 -0.2990  0.4129 -0.2992
56861SOL    HW180513   2.537  13.196   2.339  0.7878 -0.8319 -1.9315
56861SOL    HW280514   2.466  13.100   2.432  0.7615  0.8822 -0.1232
56862SOL     OW80515   1.641   7.178  12.233  0.1728  0.3687  0.0003
56862SOL    HW180516   1.727   7.137  12.242 -0.5401 -1.2147 -0.1136
56862SOL    HW280517   1.646   7.227  12.151  0.7336 -0.3761 -0.4267
56863SOL     OW80518   6.822  10.743   0.526 -0.0367 -0.2695  0.0878
56863SOL    HW180519   6.900  10.689   0.517 -0.3919 -0.4307 -4.9182
56863SOL    HW280520   6.754  10.681   0.555  0.6306 -1.3991 -0.6645
56864SOL     OW80521  11.239  12.665  13.116 -0.5279  0.1102  0.5019
56864SOL    HW180522  11.306  12.657  13.184  0.9406 -0.5213 -0.9824
56864SOL    HW280523  11.156  12.656  13.164  0.4745 -0.8691  2.1412
56865SOL     OW80524   8.237   2.299   2.641  0.3958  0.2626  0.1872
56865SOL    HW180525   8.249   2.244   2.718 -0.0608 -1.0473 -0.6330
56865SOL    HW280526   8.279   2.250   2.570  0.0088  0.9957 -0.5667
56866SOL     OW80527  11.229  11.808   1.646 -0.2947 -0.0901 -0.2920
56866SOL    HW180528  11.323  11.821   1.634 -0.0347 -0.5263  1.1006
56866SOL    HW280529  11.220  11.716   1.671 -0.8242  0.4825  1.8036
56867SOL     OW80530  11.674   1.049   2.331 -0.0882 -0.6404 -0.4780
56867SOL    HW180531  11.698   1.017   2.244  1.8847 -0.7985  0.0878
56867SOL    HW280532  11.620   1.126   2.314 -0.1978 -0.9857 -1.8324
56868SOL     OW80533   0.108  10.692   4.574  0.8067 -0.3113  0.1034
56868SOL    HW180534   0.049  10.764   4.550  0.8607 -0.0712  0.6697
56868SOL    HW280535   0.110  10.694   4.670  0.8330 -1.0487  0.1254
56869SOL     OW80536   9.946   6.131  10.623  0.2800 -0.4186  0.3637
56869SOL    HW180537   9.988   6.129  10.537  0.1471  0.8312  0.2571
56869SOL    HW280538   9.853   6.123  10.605  0.3307 -1.4798  0.4952
56870SOL     OW80539   7.548   0.661   2.293  0.2842  0.0190 -0.5154
56870SOL    HW180540   7.540   0.660   2.197 -0.0648 -0.0001 -0.4876
56870SOL    HW280541   7.498   0.585   2.322  1.7218 -0.9036 -0.4066
56871SOL     OW80542   9.831  11.372  10.097 -0.0952  0.0818  0.3207
56871SOL    HW180543   9.854  11.437  10.030  1.3317 -0.0993  0.5955
56871SOL    HW280544   9.752  11.407  10.138  0.6119  1.6464  0.4381
56872SOL     OW80545   4.262   3.945  10.381 -0.0261 -0.2692  0.2254
56872SOL    HW180546   4.279   3.982  10.295  1.4471 -0.9553  0.2038
56872SOL    HW280547   4.195   4.003  10.419  1.0410  1.4688 -0.4248
56873SOL     OW80548   6.200  11.185  10.897 -0.1328  0.0339  0.1334
56873SOL    HW180549   6.203  11.279  10.917 -2.5258  0.1175  0.3459
56873SOL    HW280550   6.160  11.180  10.811  1.2387 -0.7804 -0.4961
56874SOL     OW80551  12.431  13.138   5.077  0.3168  0.2515 -0.1142
56874SOL    HW180552  12.414  13.072   5.010  0.3307  1.2525 -1.1421
56874SOL    HW280553  12.487  13.202   5.033 -3.3599  3.3928 -0.7601
56875SOL     OW80554   7.371  10.644  12.776 -0.2726 -0.0422 -0.2384
56875SOL    HW180555   7.313  10.698  12.829  2.5129  1.6787  1.2847
56875SOL    HW280556   7.323  10.562  12.764 -2.4697  0.8186  1.9397
56876SOL     OW80557   1.458  10.419   0.372 -0.2012 -0.2457  0.7801
56876SOL    HW180558   1.484  10.481   0.303 -1.4243 -0.1859  0.3475
56876SOL    HW280559   1.445  10.474   0.449  0.2356 -0.1834  0.8147
56877SOL     OW80560   3.433   2.415   4.509 -0.5999  0.6091  0.6548
56877SOL    HW180561   3.457   2.507   4.523  2.4748 -0.3933  3.3580
56877SOL    HW280562   3.514   2.373   4.482 -1.5484 -1.5974  1.0259
56878SOL     OW80563   1.142  12.981   8.352 -0.0841  0.1756 -0.3960
56878SOL    HW180564   1.138  12.923   8.275 -1.1473 -0.3549  0.0336
56878SOL    HW280565   1.093  12.933   8.420  0.4891  0.8202  0.4864
56879SOL     OW80566  11.958   7.732   7.977  0.0411  0.5342 -0.8151
56879SOL    HW180567  12.030   7.701   7.922 -0.2839 -0.5199 -0.6808
56879SOL    HW280568  11.882   7.730   7.920 -0.0784  0.5910 -0.6581
56880SOL     OW80569  13.142   4.058   9.542  0.1107 -0.1290  0.4090
56880SOL    HW180570  13.130   3.967   9.514  1.3713 -0.5162  1.0561
56880SOL    HW280571  13.136   4.109   9.460  2.4285 -1.1173 -0.4896
56881SOL     OW80572   3.882   6.083  11.093 -0.0714  0.2785  0.1460
56881SOL    HW180573   3.828   6.063  11.169 -0.2404 -0.4734 -0.1544
56881SOL    HW280574   3.965   6.040  11.110 -0.8523 -1.9160 -1.0661
56882SOL     OW80575  10.948   5.221   5.388 -0.6314  0.0840  0.1727
56882SOL    HW180576  11.006   5.153   5.356 -0.5190  0.3434 -0.1776
56882SOL    HW280577  10.911   5.261   5.309 -0.5062  0.5903  0.3652
56883SOL     OW80578   2.638   3.468   3.847  0.0214  0.3671  0.0168
56883SOL    HW180579   2.547   3.462   3.876 -0.7621 -0.3520 -2.3792
56883SOL    HW280580   2.649   3.559   3.819 -0.3807  0.1600 -0.8572
56884SOL     OW80581   7.998   0.741   6.857 -0.1859  0.1748 -0.1298
56884SOL    HW180582   7.934   0.806   6.830 -1.9927 -0.7894  1.5658
56884SOL    HW280583   7.989   0.736   6.952  2.6042  0.1384  0.2077
56885SOL     OW80584   5.364   6.161   5.002  0.9521  0.1806  0.6560
56885SOL    HW180585   5.336   6.070   4.997  1.3650  0.0885 -0.2340
56885SOL    HW280586   5.453   6.157   5.038  0.8008  0.2784  1.0545
56886SOL     OW80587   4.141  11.954   8.905 -0.3256 -0.7197 -0.1608
56886SOL    HW180588   4.053  11.983   8.885 -0.9610 -1.7266  1.0209
56886SOL    HW280589   4.145  11.952   9.001  1.4124  0.5346 -0.1644
56887SOL     OW80590   2.370   5.687   4.463  0.2175  0.4436 -0.5232
56887SOL    HW180591   2.435   5.628   4.500  0.1639  1.9555  2.3000
56887SOL    HW280592   2.413   5.727   4.388  1.0048 -1.5591 -1.1883
56888SOL     OW80593   9.332   7.212   1.654 -0.0839 -0.4559 -0.2955
56888SOL    HW180594   9.339   7.117   1.642 -0.1524 -0.4015 -0.7721
56888SOL    HW280595   9.398   7.232   1.720 -0.0834 -0.8378 -0.1732
56889SOL     OW80596   0.367   1.951   7.679  0.7972 -0.3288 -0.3588
56889SOL    HW180597   0.428   1.925   7.610  0.2804 -1.1118 -0.5346
56889SOL    HW280598   0.396   1.903   7.756  0.8460 -0.1383 -0.2599
56890SOL     OW80599  10.520  12.255   0.207 -0.1522  0.0173  0.2561
56890SOL    HW180600  10.458  12.315   0.167  0.4563  0.5978  0.1601
56890SOL    HW280601  10.494  12.252   0.299  0.6070  1.4872  0.5488
56891SOL     OW80602   0.183  10.646   8.193 -0.0498  0.0192  0.4885
56891SOL    HW180603   0.142  10.660   8.278  0.1577  1.6185  0.3615
56891SOL    HW280604   0.268  10.690   8.201  0.8159 -1.5167  0.0924
56892SOL     OW80605   4.044   5.686  12.943 -0.1472 -0.4288 -0.4829
56892SOL    HW180606   3.951   5.666  12.931 -0.1447 -0.3704 -0.6004
56892SOL    HW280607   4.086   5.601  12.955 -0.2699 -0.4301 -0.0496
56893SOL     OW80608   2.229   0.150   9.702  0.1828 -0.1693 -0.3500
56893SOL    HW180609   2.138   0.142   9.673  0.8107  0.0513 -2.6413
56893SOL    HW280610   2.229   0.226   9.760 -1.1886 -0.5740  0.2141
56894SOL     OW80611   3.375  10.780  10.852 -0.5966  0.0050 -0.0547
56894SOL    HW180612   3.359  10.874  10.840  1.6324  0.4682  0.2202
56894SOL    HW280613   3.387  10.769  10.946 -0.7619 -0.5379 -0.0959
56895SOL     OW80614   5.280   8.927   0.414 -0.1257 -0.5762 -0.3010
56895SOL    HW180615   5.268   8.942   0.508 -0.3654 -0.5531 -0.3337
56895SOL    HW280616   5.342   8.995   0.387  0.2765 -0.8559 -0.0784
56896SOL     OW80617   4.737   3.711   2.621 -0.0413  0.5483 -0.2380
56896SOL    HW180618   4.680   3.665   2.683  1.0370 -0.0434  0.3289
56896SOL    HW280619   4.813   3.654   2.610  0.2105  1.0661 -1.4193
56897SOL     OW80620   1.378   8.553   5.895  0.5847 -0.7147 -0.4309
56897SOL    HW180621   1.319   8.616   5.853 -0.1722 -1.4282 -0.4793
56897SOL    HW280622   1.404   8.594   5.977  0.1929 -0.2949 -0.5147
56898SOL     OW80623   4.538   9.096   6.122 -0.1057 -0.1964  0.4134
56898SOL    HW180624   4.518   9.139   6.205  1.0584 -1.9433  1.6680
56898SOL    HW280625   4.464   9.037   6.107 -0.5386  0.4463 -0.0740
56899SOL     OW80626   5.987   5.173  12.781 -0.2618  0.8689  0.5881
56899SOL    HW180627   6.034   5.209  12.857  0.8356  0.2552  0.2100
56899SOL    HW280628   6.018   5.225  12.707  1.1908 -0.6579  0.0672
56900SOL     OW80629  11.109   8.709   8.649  0.2545 -0.1409  0.4865
56900SOL    HW180630  11.191   8.702   8.698  1.2679 -0.3868 -1.1621
56900SOL    HW280631  11.040   8.691   8.713  1.4794  0.2084  1.9387
56901SOL     OW80632   8.287  10.576   0.356 -0.3703  0.2968 -0.2043
56901SOL    HW180633   8.311  10.494   0.400 -2.7238  0.6233  1.9210
56901SOL    HW280634   8.265  10.636   0.427  1.1479  2.7872 -1.7133
56902SOL     OW80635   8.498   0.167  12.779 -0.0886  0.0792 -0.0016
56902SOL    HW180636   8.451   0.107  12.837  0.5559 -0.0004  0.4523
56902SOL    HW280637   8.453   0.251  12.789 -0.6909 -0.2001 -0.2707
56903SOL     OW80638   3.346   0.602   7.060 -0.4290 -0.3318 -1.1204
56903SOL    HW180639   3.383   0.661   6.994 -0.3211  1.5548  0.5158
56903SOL    HW280640   3.270   0.563   7.018  0.5643 -0.4589 -2.8927
56904SOL     OW80641   5.411   7.764   4.943 -0.4450  0.4629 -0.0486
56904SOL    HW180642   5.379   7.845   4.982  1.4562  2.5240 -2.4333
56904SOL    HW280643   5.346   7.741   4.877 -0.9246  0.0819  0.5472
56905SOL     OW80644   5.668   3.561   8.053 -0.0736  0.3237 -0.1649
56905SOL    HW180645   5.717   3.529   7.977  1.5532  3.8274 -0.7950
56905SOL    HW280646   5.603   3.622   8.017 -0.7695  0.3889  1.1161
56906SOL     OW80647   1.783   3.955  12.514 -0.0200 -0.4572  0.2898
56906SOL    HW180648   1.794   3.913  12.428  3.1750  1.7596 -0.5469
56906SOL    HW280649   1.774   3.882  12.575 -0.7840 -2.1354 -1.6932
56907SOL     OW80650  10.856  11.132   5.359 -0.4061  0.5775  0.1443
56907SOL    HW180651  10.852  11.221   5.324  0.0011  0.7250  0.4583
56907SOL    HW280652  10.830  11.076   5.286 -1.4816  1.0036  0.1948
56908SOL     OW80653   9.689   8.001   2.937  0.0105  0.3361 -0.4111
56908SOL    HW180654   9.692   7.912   2.903  0.4973  0.1622  0.0747
56908SOL    HW280655   9.611   8.039   2.897 -1.2245 -0.8651  0.7524
56909SOL     OW80656   5.784   0.121   5.679 -0.0733 -0.2980  0.6683
56909SOL    HW180657   5.716   0.118   5.746 -1.3554  0.5562 -0.5265
56909SOL    HW280658   5.843   0.049   5.701 -1.3483 -1.0422  1.7903
56910SOL     OW80659   2.843   9.626   0.337  0.4709 -0.0910 -0.2739
56910SOL    HW180660   2.929   9.605   0.373  0.7396  0.7268 -0.4046
56910SOL    HW280661   2.859   9.641   0.244  0.1671 -0.0678 -0.3246
56911SOL     OW80662   4.407  12.825   0.013  0.0001  0.1837  0.4372
56911SOL    HW180663   4.389  12.901   0.069  0.4002  1.5453 -1.2013
56911SOL    HW280664   4.400  12.859  -0.076  1.2284 -1.4804 -0.3385
56912SOL     OW80665  11.895   4.957   2.194 -0.6893 -0.6136 -0.1380
56912SOL    HW180666  11.842   4.919   2.124  0.8143 -2.2687 -0.4756
56912SOL    HW280667  11.956   5.015   2.149 -1.2444  0.1429  0.0780
56913SOL     OW80668   8.745  11.485  13.017  0.0201 -0.4773 -0.0097
56913SOL    HW180669   8.662  11.518  13.051  0.0547 -1.1674  0.7843
56913SOL    HW280670   8.779  11.430  13.087  1.0854 -0.3126 -0.3846
56914SOL     OW80671  13.173   9.641   7.684 -0.0811  0.2314  0.3847
56914SOL    HW180672  13.090   9.613   7.723 -0.0461 -0.7138 -0.1814
56914SOL    HW280673  13.161   9.627   7.590  0.5287  0.5967  0.2485
56915SOL     OW80674   7.295   5.770   5.401  0.3289  0.7884 -0.6913
56915SOL    HW180675   7.386   5.757   5.375  0.4143  1.8978 -0.9774
56915SOL    HW280676   7.245   5.710   5.345  0.7355  1.3697 -1.6890
56916SOL     OW80677  10.124   6.942  12.469 -0.7975  0.1693  0.1188
56916SOL    HW180678  10.123   6.995  12.549 -0.3750  0.3866 -0.0163
56916SOL    HW280679  10.178   6.866  12.491 -2.1141 -0.6818  0.5956
56917SOL     OW80680  11.556   8.984   2.700  0.4891 -0.2668  0.8415
56917SOL    HW180681  11.575   8.905   2.649  0.4920  0.3856 -0.2046
56917SOL    HW280682  11.637   9.003   2.747  0.6355 -0.6144  0.7333
56918SOL     OW80683  10.562   0.412  10.277  0.1949  0.1981  0.5357
56918SOL    HW180684  10.602   0.436  10.193  0.1329 -1.8785 -0.1477
56918SOL    HW280685  10.469   0.434  10.265 -0.3435 -2.4803 -1.0290
56919SOL     OW80686   1.194   3.935   3.044  0.1383  0.6873  0.1205
56919SOL    HW180687   1.245   4.011   3.016 -1.8977  1.6671 -1.1933
56919SOL    HW280688   1.246   3.859   3.015  0.4396  1.6352 -2.0437
56920SOL     OW80689   8.076   2.067   8.489 -0.3546 -0.0474 -0.4658
56920SOL    HW180690   8.047   2.075   8.580  0.1940  0.8376 -0.3579
56920SOL    HW280691   8.107   1.977   8.481  0.7333  0.2227  0.5639
56921SOL     OW80692   3.851   8.973   0.591 -0.4366  0.2236  0.7204
56921SOL    HW180693   3.764   8.933   0.589  0.0902 -1.6849  4.7963
56921SOL    HW280694   3.837   9.057   0.636 -0.3107  0.4638  0.3173
56922SOL     OW80695  11.801   7.929   1.608 -0.4625 -0.3084  0.5679
56922SOL    HW180696  11.719   7.886   1.586  0.1491 -0.5662 -1.4592
56922SOL    HW280697  11.780   8.022   1.610 -0.5377 -0.2422 -1.5032
56923SOL     OW80698   6.495   6.706   1.122  0.3362  0.3561 -0.0500
56923SOL    HW180699   6.456   6.793   1.109 -0.9741 -0.0443  1.0331
56923SOL    HW280700   6.589   6.723   1.131  0.1173  1.6426 -0.0418
56924SOL     OW80701   8.694  13.012   3.523 -0.1233 -0.0498  0.3038
56924SOL    HW180702   8.651  13.091   3.554  0.7341  0.3105  0.6001
56924SOL    HW280703   8.741  13.039   3.444  1.7536  0.2216  1.4642
56925SOL     OW80704   1.367   3.997   5.888  0.4721 -0.1271 -0.2878
56925SOL    HW180705   1.312   4.013   5.811  2.6213  0.5557 -1.7776
56925SOL    HW280706   1.340   4.064   5.951 -0.7644 -0.1739 -0.7303
56926SOL     OW80707  13.009   2.257   9.477  0.1333 -0.0171  0.0622
56926SOL    HW180708  13.031   2.310   9.554 -0.5887  0.6978 -0.2102
56926SOL    HW280709  13.089   2.209   9.457  0.4845  0.1922  0.9422
56927SOL     OW80710   1.728   0.829   0.333 -0.1465 -0.1489  0.0690
56927SOL    HW180711   1.782   0.883   0.276  0.8585 -1.7502 -0.5653
56927SOL    HW280712   1.791   0.786   0.391 -0.8400 -1.1254  0.1207
56928SOL     OW80713  10.677  10.576   3.232  0.8076  0.2728 -0.2740
56928SOL    HW180714  10.610  10.602   3.169  1.0497 -0.8684 -1.0310
56928SOL    HW280715  10.654  10.486   3.255  0.2310  0.9151  1.9387
56929SOL     OW80716   2.671   9.502   6.691  0.5345 -0.1892  0.1093
56929SOL    HW180717   2.679   9.460   6.606  2.1630 -0.4387  0.3633
56929SOL    HW280718   2.653   9.594   6.671 -0.5560 -0.5091 -0.4687
56930SOL     OW80719   8.202  12.110   4.263  0.2600  0.3379  0.0375
56930SOL    HW180720   8.232  12.097   4.173  0.4396 -0.1396  0.1650
56930SOL    HW280721   8.281  12.105   4.316  0.4154  2.2967  0.0855
56931SOL     OW80722  10.270  10.350   6.783 -0.0888  0.0576 -0.3585
56931SOL    HW180723  10.314  10.419   6.734 -1.3346  0.0018 -1.6237
56931SOL    HW280724  10.340  10.290   6.809  0.8109  0.9861 -0.5589
56932SOL     OW80725   6.004   4.438  12.700 -0.3291  0.1235 -0.4378
56932SOL    HW180726   6.020   4.411  12.791 -1.3107 -0.1284 -0.3291
56932SOL    HW280727   6.076   4.399  12.651 -0.9312 -1.5262 -0.0693
56933SOL     OW80728   0.248   1.619  10.239 -0.3084 -0.0312 -0.5430
56933SOL    HW180729   0.179   1.676  10.272 -0.3651  0.9182 -2.1648
56933SOL    HW280730   0.216   1.590  10.154  1.1620  0.2354 -1.2211
56934SOL     OW80731   9.918   1.103   4.843 -0.1811 -0.6057 -0.2023
56934SOL    HW180732   9.942   1.160   4.769 -1.1461 -0.9332 -0.7919
56934SOL    HW280733   9.959   1.019   4.823 -0.3285 -0.6552 -0.2966
56935SOL     OW80734  10.877   5.764   1.885  0.0140  0.1457  0.1818
56935SOL    HW180735  10.878   5.859   1.874 -2.6949  0.1387 -0.9957
56935SOL    HW280736  10.927   5.731   1.811 -0.3054  0.6389 -0.2655
56936SOL     OW80737  11.175   9.121   2.838 -0.1408  0.0519 -0.1165
56936SOL    HW180738  11.173   9.216   2.845  0.1245 -0.0449  1.7817
56936SOL    HW280739  11.096   9.092   2.883 -0.0159 -0.6495 -0.3320
56937SOL     OW80740   4.579   1.475  11.385 -0.7236 -0.1177 -0.3701
56937SOL    HW180741   4.507   1.457  11.324 -0.8556 -0.1949 -0.1946
56937SOL    HW280742   4.638   1.532  11.336 -1.2022  0.4312 -0.3126
56938SOL     OW80743   8.021   7.905   0.524  0.2116 -0.3082  0.2888
56938SOL    HW180744   8.052   7.994   0.536  0.6669 -0.2611 -1.0354
56938SOL    HW280745   8.100   7.851   0.528 -0.1758 -0.8060  2.1784
56939SOL     OW80746   2.433  11.789   9.376  0.2617 -0.5887 -0.0837
56939SOL    HW180747   2.508  11.737   9.347  1.2683  0.0027  1.3437
56939SOL    HW280748   2.358  11.751   9.330  1.5847 -0.3147 -2.6604
56940SOL     OW80749   3.223   4.771  10.406  0.4230 -0.2075 -0.1998
56940SOL    HW180750   3.188   4.816  10.329  1.8655 -0.0122 -0.7719
56940SOL    HW280751   3.293   4.828  10.438  0.0660 -0.4512  1.0671
56941SOL     OW80752   5.750  11.105   7.737  0.9434 -0.1910 -0.1115
56941SOL    HW180753   5.808  11.087   7.811 -0.2638 -0.8934  0.7156
56941SOL    HW280754   5.789  11.180   7.693  2.4661 -0.6436  0.4062
56942SOL     OW80755  12.001   8.983   6.718  0.5718  0.1141 -0.0594
56942SOL    HW180756  12.090   8.976   6.750  0.2389  1.3932  1.2957
56942SOL    HW280757  11.980   9.076   6.727 -1.1808 -0.2951  0.5073
56943SOL     OW80758  11.448   3.855  10.421  0.1785  0.0810 -0.1602
56943SOL    HW180759  11.356   3.842  10.399 -0.0398  0.3961  0.5315
56943SOL    HW280760  11.465   3.793  10.492 -0.4088  2.2598  1.9885
56944SOL     OW80761   3.412   4.686   7.165 -0.0137 -0.4114  0.0047
56944SOL    HW180762   3.403   4.690   7.070 -0.6507 -2.5158 -0.0787
56944SOL    HW280763   3.506   4.681   7.180  0.0521 -1.1665 -0.6030
56945SOL     OW80764   9.147   5.703   5.158 -0.1325  0.1511 -0.0581
56945SOL    HW180765   9.220   5.703   5.095 -1.6367 -2.2062 -1.9393
56945SOL    HW280766   9.074   5.740   5.110 -0.7786  0.4246  1.0909
56946SOL     OW80767  12.129   5.072   0.458  0.4283 -0.0499  0.0132
56946SOL    HW180768  12.119   5.156   0.502 -0.7600  0.4519 -1.1496
56946SOL    HW280769  12.064   5.015   0.500 -0.2687  0.2529 -0.6142
56947SOL     OW80770   7.495  10.216  11.383 -0.3258 -0.1225  0.3492
56947SOL    HW180771   7.433  10.259  11.324  0.0503 -1.0733 -0.7786
56947SOL    HW280772   7.455  10.132  11.403 -0.3959  0.1430  1.3849
56948SOL     OW80773  10.796   6.204   4.090  0.3837 -0.3924 -0.5189
56948SOL    HW180774  10.844   6.283   4.064  0.9104 -0.8579 -0.9977
56948SOL    HW280775  10.850   6.132   4.058 -0.8106 -0.9288 -1.3896
56949SOL     OW80776   6.118   4.401   7.894  0.3299 -0.1807  0.1408
56949SOL    HW180777   6.091   4.445   7.975  0.2065 -0.0321  0.0174
56949SOL    HW280778   6.059   4.326   7.887  2.7321 -2.4904  2.2469
56950SOL     OW80779   4.436   9.555  10.781  0.2195  0.4654 -0.2476
56950SOL    HW180780   4.400   9.552  10.692  0.6540 -0.3462 -0.4064
56950SOL    HW280781   4.457   9.648  10.795  1.8030  0.3674 -1.6775
56951SOL     OW80782  12.445   0.391  10.862 -0.2425  0.5450 -0.2194
56951SOL    HW180783  12.398   0.308  10.855  1.2575 -0.6683  2.5736
56951SOL    HW280784  12.434   0.432  10.777 -0.2500 -2.9293 -2.0513
56952SOL     OW80785   7.929   9.547  13.002 -0.1073 -0.5056 -0.2166
56952SOL    HW180786   7.897   9.478  13.060 -0.9933 -1.0963 -1.3413
56952SOL    HW280787   7.928   9.506  12.915 -0.2271  0.7858 -0.8386
56953SOL     OW80788  11.274  13.156   7.256  0.0063  0.5917  0.2970
56953SOL    HW180789  11.226  13.087   7.210 -1.7002  1.8854  0.0246
56953SOL    HW280790  11.291  13.120   7.343  0.8108 -0.8434 -0.4209
56954SOL     OW80791   4.711   5.740   2.590 -0.5157 -0.1744  0.8175
56954SOL    HW180792   4.726   5.741   2.684 -1.2703 -2.4424  1.0285
56954SOL    HW280793   4.623   5.777   2.579 -0.7892 -0.7233  1.1142
56955SOL     OW80794   9.499  12.346   2.381  0.2398  0.2205 -0.3842
56955SOL    HW180795   9.416  12.394   2.388  0.8892  1.1258  2.0906
56955SOL    HW280796   9.483  12.263   2.426  0.2950 -0.1894 -1.1073
56956SOL     OW80797   4.950   5.745   8.912  0.2328  0.4101 -0.0683
56956SOL    HW180798   4.900   5.741   8.993  2.0288 -1.7388  1.0298
56956SOL    HW280799   5.042   5.743   8.939  0.9045 -1.2308 -2.1047
56957SOL     OW80800   6.371   1.033   9.139  0.0264 -0.3387 -0.1373
56957SOL    HW180801   6.431   1.095   9.096 -0.2808  0.2007  0.1945
56957SOL    HW280802   6.364   0.960   9.078  1.5844 -0.7458  0.1444
56958SOL     OW80803   1.816   9.885   6.310  0.2429  0.4260 -0.5788
56958SOL    HW180804   1.793   9.867   6.401  0.4207  1.5549 -0.2868
56958SOL    HW280805   1.842   9.800   6.274  0.2718 -0.0180  0.4543
56959SOL     OW80806  11.929   3.916  12.300  0.1499 -0.1422  0.1559
56959SOL    HW180807  11.973   3.875  12.226 -0.1345 -0.1967  0.0164
56959SOL    HW280808  11.960   4.006  12.300  0.4918 -0.2559  0.2410
56960SOL     OW80809  11.267  13.038   0.214 -0.5963  0.0943  0.1769
56960SOL    HW180810  11.347  13.001   0.251  0.1069 -0.9259 -2.2392
56960SOL    HW280811  11.233  12.970   0.157 -1.4971  1.6786 -1.2518
56961SOL     OW80812   3.091   9.692   3.293 -0.2876 -0.4680 -0.1387
56961SOL    HW180813   3.173   9.669   3.249  0.1229 -0.8681  0.7968
56961SOL    HW280814   3.116   9.704   3.385 -0.6940  2.5546 -0.3154
56962SOL     OW80815   8.170   4.932   6.893  0.3701  0.6539  0.2697
56962SOL    HW180816   8.180   4.999   6.826  0.2435  1.3624  0.9438
56962SOL    HW280817   8.167   4.981   6.975  0.9809 -0.2283  0.8327
56963SOL     OW80818   9.553   7.061  12.202 -0.0165 -0.1408 -0.0617
56963SOL    HW180819   9.620   7.102  12.256  1.2919 -0.0773 -1.6615
56963SOL    HW280820   9.581   6.970  12.193  0.2726  0.0470 -1.3027
56964SOL     OW80821   7.097   6.700   9.976 -0.3489  0.1375 -0.1523
56964SOL    HW180822   7.090   6.673  10.068  0.6694  0.1919 -0.0561
56964SOL    HW280823   7.146   6.782   9.978 -1.8217  1.0639 -0.6070
56965SOL     OW80824   7.743   0.059  12.531 -0.6246  0.1752 -0.1618
56965SOL    HW180825   7.675   0.080  12.467  0.1759 -1.6201 -1.7356
56965SOL    HW280826   7.790  -0.014  12.491  0.8634 -0.0468  1.8608
56966SOL     OW80827   3.997   2.127   3.628  0.4249  0.0813  0.3046
56966SOL    HW180828   4.050   2.047   3.625 -1.4476 -1.3965  2.6689
56966SOL    HW280829   4.036   2.185   3.563  0.7870 -3.4419 -2.9436
56967SOL     OW80830   8.495   6.637   7.544 -0.1286 -0.2749 -0.0304
56967SOL    HW180831   8.558   6.619   7.614 -0.8198 -0.3252  0.5944
56967SOL    HW280832   8.469   6.728   7.559  1.1593  0.3468 -1.4009
56968SOL     OW80833   3.196   8.658  12.701 -0.7965 -0.0476 -0.5551
56968SOL    HW180834   3.129   8.594  12.724 -2.0669  1.7714  1.0759
56968SOL    HW280835   3.256   8.658  12.775 -1.3028  1.2516 -0.1220
56969SOL     OW80836   4.549   3.663   8.848  0.1348 -0.1810 -0.1489
56969SOL    HW180837   4.528   3.635   8.759  0.9679  0.7557 -0.6604
56969SOL    HW280838   4.592   3.747   8.836 -1.4292  0.8718  1.2661
56970SOL     OW80839  13.203   2.866   2.767 -0.0374  0.2027  0.4470
56970SOL    HW180840  13.264   2.873   2.694  1.8762  1.4385  2.0638
56970SOL    HW280841  13.125   2.915   2.739  1.0368  1.4744 -0.4049
56971SOL     OW80842   1.906   0.149  11.992  0.0626 -0.5731 -0.3596
56971SOL    HW180843   1.953   0.076  12.033  0.4834 -0.2936 -0.3335
56971SOL    HW280844   1.814   0.126  12.000  0.2195 -1.4647 -1.0399
56972SOL     OW80845   7.417  10.937   3.739 -0.3264  0.3639 -0.7150
56972SOL    HW180846   7.504  10.965   3.767 -0.7801 -0.6962  2.0845
56972SOL    HW280847   7.360  10.957   3.813 -1.4922 -3.5829 -0.3202
56973SOL     OW80848  12.690   8.757   9.709  0.2532 -0.0440  0.2093
56973SOL    HW180849  12.618   8.816   9.731 -1.0412 -1.5145  0.0905
56973SOL    HW280850  12.697   8.762   9.614 -0.3254 -0.5712  0.1298
56974SOL     OW80851  12.273   8.431  12.978 -0.4244  0.0883 -0.6121
56974SOL    HW180852  12.187   8.408  13.013  0.3024  0.2812  1.4059
56974SOL    HW280853  12.326   8.353  12.991  0.2843  0.6866  0.2057
56975SOL     OW80854   3.199   0.235   0.898  0.1308 -0.9869  0.1970
56975SOL    HW180855   3.267   0.295   0.928 -1.9140  1.0397  1.0835
56975SOL    HW280856   3.201   0.241   0.803  1.3894 -1.2698  0.1829
56976SOL     OW80857   9.489  10.856   8.955  0.0364 -0.8178 -0.2478
56976SOL    HW180858   9.558  10.816   8.901 -0.8426 -1.8885 -0.6273
56976SOL    HW280859   9.531  10.871   9.040  0.7622 -1.3568 -0.4984
56977SOL     OW80860   7.036   5.596  11.991 -0.1201 -0.4960  0.6300
56977SOL    HW180861   7.079   5.535  11.931 -0.6873  1.1934 -1.6067
56977SOL    HW280862   7.087   5.590  12.072  0.8024 -2.6963 -0.0413
56978SOL     OW80863   4.099   8.566   4.388 -0.5886 -0.3964  0.0510
56978SOL    HW180864   4.028   8.503   4.381 -1.9944  1.0952  0.2075
56978SOL    HW280865   4.055   8.650   4.404  1.1666  0.6891 -0.5008
56979SOL     OW80866  10.117  11.689   6.154  0.2628  1.0257 -0.0530
56979SOL    HW180867  10.202  11.681   6.196  0.1119  0.0477  0.0862
56979SOL    HW280868  10.054  11.686   6.226  0.0036 -0.6696 -0.3038
56980SOL     OW80869   1.611   5.085  13.182  0.1086  0.0678 -0.0325
56980SOL    HW180870   1.653   5.048  13.105  0.6177  0.5557  0.0029
56980SOL    HW280871   1.553   5.153  13.147 -0.4791 -0.4375 -0.0625
56981SOL     OW80872   3.789   5.911  12.676  0.0532 -0.2450  0.3138
56981SOL    HW180873   3.770   5.960  12.596  1.0259  2.5075  1.6275
56981SOL    HW280874   3.878   5.879  12.664 -0.4971 -1.5502 -0.4517
56982SOL     OW80875   7.570   4.727   1.240  0.3509  0.3146  0.3087
56982SOL    HW180876   7.648   4.691   1.283  0.1502  0.4890  0.8213
56982SOL    HW280877   7.536   4.792   1.301 -1.0078 -0.7413  0.7342
56983SOL     OW80878   2.820  10.702  10.410 -0.8609  0.4667 -0.3291
56983SOL    HW180879   2.845  10.793  10.395  0.4885  0.1990  0.1682
56983SOL    HW280880   2.899  10.661  10.445 -1.8069 -0.6041  0.6316
56984SOL     OW80881   4.733   7.319  12.643  0.1414 -0.1545  0.3952
56984SOL    HW180882   4.754   7.412  12.645 -1.7790  0.3397 -0.1009
56984SOL    HW280883   4.698   7.300  12.730  2.0105 -0.8474  1.0494
56985SOL     OW80884  11.611   3.609  12.255  0.3770  0.0476 -0.0189
56985SOL    HW180885  11.538   3.590  12.314 -0.7706  0.7810 -1.1749
56985SOL    HW280886  11.653   3.686  12.293 -0.7317  0.8971 -0.4523
56986SOL     OW80887   3.322  11.630  12.399  0.3114 -0.7853 -0.5354
56986SOL    HW180888   3.344  11.570  12.329 -1.1449 -2.8426  0.6499
56986SOL    HW280889   3.276  11.576  12.464 -2.0737  1.7848  0.1334
56987SOL     OW80890   8.873  12.378  10.658 -0.1128 -0.2629  0.1321
56987SOL    HW180891   8.856  12.314  10.728  0.7409 -0.2788  0.3410
56987SOL    HW280892   8.841  12.461  10.694 -0.4269 -0.4171  0.2127
56988SOL     OW80893  11.094   0.558   2.018  0.3088 -0.0334  0.3519
56988SOL    HW180894  11.063   0.491   1.958 -0.9229  0.4206  0.4628
56988SOL    HW280895  11.035   0.553   2.093  1.2310  0.0552  1.1064
56989SOL     OW80896   5.723   3.840   1.322  0.2301 -0.4213 -0.3646
56989SOL    HW180897   5.732   3.827   1.228  0.3154  0.2171 -0.4511
56989SOL    HW280898   5.630   3.823   1.340  0.3207 -1.0426 -0.4769
56990SOL     OW80899  10.142   7.215   2.205 -1.0061  0.5644  0.6703
56990SOL    HW180900  10.218   7.157   2.202 -1.0251  0.4095  2.1366
56990SOL    HW280901  10.068   7.158   2.224 -1.8720  0.4483 -2.5450
56991SOL     OW80902  11.854   7.224   2.500  0.1971 -0.3256  0.6200
56991SOL    HW180903  11.761   7.206   2.484 -0.2541  1.2770  1.1882
56991SOL    HW280904  11.877   7.291   2.435  1.2331 -1.4030 -0.1468
56992SOL     OW80905   6.032   8.505   7.290  0.3702 -0.2820 -0.5390
56992SOL    HW180906   6.125   8.520   7.306  0.3710 -1.2112  0.3751
56992SOL    HW280907   6.001   8.459   7.368 -0.2691 -2.3413 -1.9180
56993SOL     OW80908   1.673  10.779   8.320  0.2502 -0.7337 -0.0159
56993SOL    HW180909   1.764  10.798   8.297  0.3178 -1.4598 -0.3895
56993SOL    HW280910   1.639  10.730   8.246 -0.3481 -0.7681  0.2722
56994SOL     OW80911   0.406   2.771   8.016  0.5973 -0.1872 -0.4506
56994SOL    HW180912   0.495   2.771   8.051  0.4715 -1.6401 -0.0933
56994SOL    HW280913   0.416   2.796   7.924  1.3408 -0.1005 -0.3460
56995SOL     OW80914   4.564  10.330   2.173  0.2256  0.1157 -0.4078
56995SOL    HW180915   4.519  10.268   2.117 -0.7562  0.1591  0.3159
56995SOL    HW280916   4.563  10.412   2.123  0.6705 -0.2041 -0.9491
56996SOL     OW80917   2.225   2.576  10.647  0.2245  0.7431 -0.6070
56996SOL    HW180918   2.206   2.667  10.669  0.9853  0.9232 -0.6503
56996SOL    HW280919   2.316   2.564  10.674  0.3715  0.2205 -1.3100
56997SOL     OW80920  12.503  11.621   8.130 -0.0311  0.4614 -0.1610
56997SOL    HW180921  12.578  11.603   8.073 -0.1195  1.9000 -0.7969
56997SOL    HW280922  12.427  11.612   8.073 -0.3504 -0.8768  0.4534
56998SOL     OW80923   2.888  11.327  12.113 -0.0460  0.4634  0.0720
56998SOL    HW180924   2.978  11.356  12.124  0.8274 -0.9776 -2.4325
56998SOL    HW280925   2.894  11.232  12.105 -1.9253  0.2302  0.8371
56999SOL     OW80926   6.014  10.560   0.112 -0.4808 -0.1797 -0.1188
56999SOL    HW180927   5.982  10.513   0.035  0.9683 -0.9797 -0.2697
56999SOL    HW280928   6.105  10.533   0.120  0.0258  1.5739  0.6009
57000SOL     OW80929   9.875   8.665  11.061  0.2117 -0.5181  0.2620
57000SOL    HW180930   9.921   8.740  11.022  1.0570  0.5225  3.0460
57000SOL    HW280931   9.943   8.616  11.107 -0.1717 -3.5952 -2.1312
57001SOL     OW80932   9.581   3.451   5.496 -0.4877  0.1000 -0.4925
57001SOL    HW180933   9.513   3.506   5.535  0.5965 -0.9171  3.2157
57001SOL    HW280934   9.534   3.376   5.460 -1.5112  0.6803 -0.3811
57002SOL     OW80935  10.931   0.713   4.507  0.2861 -0.2372 -0.4430
57002SOL    HW180936  10.985   0.667   4.571 -0.4336 -0.5459 -0.0521
57002SOL    HW280937  10.945   0.665   4.425  0.9922 -0.0057 -0.4704
57003SOL     OW80938   2.859   8.513  10.628 -0.6885  0.0440 -0.4144
57003SOL    HW180939   2.934   8.564  10.596 -1.7525  1.3682 -0.8590
57003SOL    HW280940   2.888   8.479  10.712  0.3206  0.7571 -0.4548
57004SOL     OW80941   1.082   2.825   8.731  0.3841  0.1824  0.5273
57004SOL    HW180942   1.163   2.781   8.758  0.0659  0.2010  1.5498
57004SOL    HW280943   1.087   2.911   8.773  0.4486  0.6863 -0.4944
57005SOL     OW80944  11.304   1.383  11.478 -0.2420  0.5156 -0.0967
57005SOL    HW180945  11.320   1.473  11.507 -0.0953  0.6791 -0.6754
57005SOL    HW280946  11.311   1.330  11.558  2.6144  0.6527 -0.1648
57006SOL     OW80947  11.331   9.389   2.048 -0.1946 -0.6046  0.5851
57006SOL    HW180948  11.370   9.326   2.108 -1.0255 -0.5887  1.1544
57006SOL    HW280949  11.349   9.354   1.961 -1.3511 -2.0701  0.8946
57007SOL     OW80950   1.934  10.246   8.519 -0.4297 -0.7030 -0.4076
57007SOL    HW180951   1.868  10.255   8.588 -0.4062 -2.3906 -0.1199
57007SOL    HW280952   2.015  10.227   8.566  0.4543  1.8101 -0.7264
57008SOL     OW80953  10.115  11.217   2.201  0.1073 -0.3833 -0.0959
57008SOL    HW180954  10.166  11.171   2.267  0.2824  1.9482  1.5203
57008SOL    HW280955  10.161  11.201   2.118  1.3249 -1.3288  0.7384
57009SOL     OW80956  11.218   9.461   7.942  0.0818  0.3431 -0.1565
57009SOL    HW180957  11.158   9.523   7.983  2.1563  1.1656  1.8192
57009SOL    HW280958  11.302   9.507   7.938  1.2572 -1.6726 -0.3595
57010SOL     OW80959  13.200  10.914   2.108 -0.3508  0.3796 -0.0399
57010SOL    HW180960  13.109  10.890   2.127  0.5488 -2.0340  1.7294
57010SOL    HW280961  13.239  10.928   2.194  1.3682 -0.3870 -0.6507
57011SOL     OW80962   4.168   7.345   2.925 -0.3161  0.2907 -0.5204
57011SOL    HW180963   4.113   7.341   2.847 -0.8639  0.3743 -0.1468
57011SOL    HW280964   4.249   7.387   2.896 -0.5204  0.3270 -1.0398
57012SOL     OW80965   3.791   8.869   2.301  0.5758  0.0864  0.6633
57012SOL    HW180966   3.822   8.929   2.369  1.1682 -0.2710  0.7157
57012SOL    HW280967   3.845   8.889   2.225  0.1470  0.2488  0.4019
57013SOL     OW80968  11.887  10.307  11.398 -0.0364  0.3848  0.2675
57013SOL    HW180969  11.946  10.366  11.444 -0.4736  0.6800  0.4576
57013SOL    HW280970  11.830  10.272  11.467 -1.1056  1.3084 -0.1160
57014SOL     OW80971   0.123  12.921   1.695 -0.0029  0.8128  0.1922
57014SOL    HW180972   0.070  12.916   1.774  0.1007 -0.8617  0.1882
57014SOL    HW280973   0.161  12.834   1.685 -0.2875  0.8665 -1.8934
57015SOL     OW80974   2.083   1.308   5.701 -0.0226  0.6900 -0.5951
57015SOL    HW180975   2.099   1.402   5.695  0.1078  0.7078 -0.0522
57015SOL    HW280976   2.158   1.274   5.751  0.3180  0.1829 -1.4229
57016SOL     OW80977   3.181   6.757   8.587 -0.3697  0.2088 -0.5443
57016SOL    HW180978   3.154   6.798   8.670  0.5231  1.1264 -0.6937
57016SOL    HW280979   3.217   6.829   8.535  1.0155 -0.7125 -0.9109
57017SOL     OW80980   8.242   8.897  11.074  0.2710  0.0244 -0.1283
57017SOL    HW180981   8.294   8.818  11.085 -0.7856 -0.4681  1.8030
57017SOL    HW280982   8.192   8.881  10.993  1.7307 -0.2407 -1.0230
57018SOL     OW80983   7.780   5.046   2.137  0.2075  0.7295  1.1928
57018SOL    HW180984   7.709   4.984   2.119  0.7079  0.2142  0.9731
57018SOL    HW280985   7.750   5.128   2.097 -1.6249  1.3989  3.6658
57019SOL     OW80986  10.057   8.917  11.088  0.1745 -0.2566 -0.2691
57019SOL    HW180987  10.097   9.002  11.106  0.6329 -0.6836  0.8590
57019SOL    HW280988  10.009   8.929  11.006 -0.9243  1.4790  0.5692
57020SOL     OW80989   8.027  12.007   9.815  0.1937 -0.2932  0.0525
57020SOL    HW180990   7.979  11.938   9.861  0.2782 -0.8075 -0.6190
57020SOL    HW280991   7.993  12.004   9.726 -1.3368  1.9408  0.4619
57021SOL     OW80992   1.168   0.257   8.122  0.4217 -0.8310  0.9623
57021SOL    HW180993   1.204   0.175   8.089  0.6379 -0.4381  0.2022
57021SOL    HW280994   1.080   0.262   8.085  0.5357 -0.5596  0.7173
57022SOL     OW80995  10.537   2.295  12.468 -0.5453 -0.2240 -0.2285
57022SOL    HW180996  10.449   2.331  12.455 -0.3577 -0.1778 -1.5375
57022SOL    HW280997  10.594   2.372  12.470 -0.4141 -0.3094 -0.5717
57023SOL     OW80998   1.158   3.370   4.761  0.2040  0.2091  0.0335
57023SOL    HW180999   1.228   3.304   4.760  1.5800  1.5180  2.1516
57023SOL    HW281000   1.080   3.321   4.789  1.3261 -0.4731  2.1478
57024SOL     OW81001   4.099   5.345   9.414 -0.5270 -0.4246 -0.2852
57024SOL    HW181002   4.043   5.306   9.481  0.3058 -1.5621 -0.2312
57024SOL    HW281003   4.038   5.387   9.353 -1.3700 -0.7168  0.3481
57025SOL     OW81004  10.691   8.472   2.146 -0.0629 -0.1004  0.0269
57025SOL    HW181005  10.735   8.552   2.173  0.2441  0.1419 -1.1427
57025SOL    HW281006  10.742   8.440   2.072 -0.8290 -0.7769 -0.2298
57026SOL     OW81007   3.812  12.268   7.836 -0.6942 -0.2708  0.6231
57026SOL    HW181008   3.821  12.363   7.847 -0.0228 -0.3575  0.8627
57026SOL    HW281009   3.896  12.232   7.865 -0.6403 -0.8833 -0.2501
57027SOL     OW81010   8.816   1.570  12.038  0.5328 -0.0712  0.6593
57027SOL    HW181011   8.848   1.583  11.949  0.6120  1.1217  0.8429
57027SOL    HW281012   8.790   1.658  12.067  0.7346 -0.3956  1.8899
57028SOL     OW81013   3.721   0.625  11.433 -0.4008 -0.2740 -0.2459
57028SOL    HW181014   3.631   0.654  11.444 -0.3710 -0.2726 -0.0149
57028SOL    HW281015   3.724   0.539  11.476  0.2532  0.6584  1.6798
57029SOL     OW81016   5.509   2.462   3.808  0.4381  0.0846  0.2931
57029SOL    HW181017   5.582   2.442   3.750  0.6613  3.6033 -0.8701
57029SOL    HW281018   5.474   2.545   3.775 -2.8834 -0.4729  1.9894
57030SOL     OW81019   4.005   9.373   5.756 -0.0050  0.3024  0.5573
57030SOL    HW181020   4.042   9.407   5.838  1.0547  0.6243 -0.0257
57030SOL    HW281021   4.008   9.278   5.765  2.9690  0.2038 -0.2337
57031SOL     OW81022   1.656   4.897   1.279 -0.7811 -0.3486  0.1455
57031SOL    HW181023   1.574   4.860   1.247 -1.9765  0.9932  1.4950
57031SOL    HW281024   1.647   4.897   1.374 -0.0029  1.4777  0.2685
57032SOL     OW81025   9.428   7.610  10.200 -0.4293 -0.0424 -0.4638
57032SOL    HW181026   9.523   7.600  10.205 -0.6217 -2.2175 -0.4734
57032SOL    HW281027   9.394   7.552  10.267 -1.7472  3.0127  1.7864
57033SOL     OW81028   7.463  10.258   0.545 -0.2184 -0.2541 -0.6278
57033SOL    HW181029   7.447  10.323   0.614 -4.7448 -2.4622  0.8113
57033SOL    HW281030   7.536  10.206   0.578 -1.1630 -0.1960  1.7808
57034SOL     OW81031   0.982  11.512   9.355 -0.0104 -0.4658 -0.2829
57034SOL    HW181032   1.050  11.577   9.341  0.2403 -0.9229 -1.2627
57034SOL    HW281033   0.909  11.540   9.300  0.0410 -0.9223 -0.5881
57035SOL     OW81034   8.728   0.338   2.333  0.2660 -0.0428  0.1091
57035SOL    HW181035   8.709   0.381   2.249 -1.5292 -0.1554  0.4243
57035SOL    HW281036   8.663   0.374   2.393  1.0063 -0.5829  1.2663
57036SOL     OW81037   2.864   7.068   9.156  0.1786 -0.1740 -0.1741
57036SOL    HW181038   2.914   7.002   9.108  2.4389  0.7764  0.6995
57036SOL    HW281039   2.827   7.125   9.088 -0.7646 -1.5805 -0.8809
57037SOL     OW81040   5.100   1.882   1.491  0.0832 -0.7592 -0.4129
57037SOL    HW181041   5.072   1.801   1.533 -1.0620  0.3085  0.9573
57037SOL    HW281042   5.113   1.858   1.399  1.3310 -2.8324  0.2484
57038SOL     OW81043   2.318   0.981   7.025 -0.2169 -0.3322 -0.0024
57038SOL    HW181044   2.388   1.045   7.011  0.1830 -0.9664 -1.0566
57038SOL    HW281045   2.310   0.936   6.940 -1.2681 -0.8946  0.3815
57039SOL     OW81046   7.842   6.954   7.534  0.8281 -0.7286  0.2803
57039SOL    HW181047   7.887   6.972   7.451  0.6440 -0.9708  0.1261
57039SOL    HW281048   7.819   7.040   7.568  1.2466 -0.6114  0.2709
57040SOL     OW81049   0.590   7.633   9.604 -0.3454 -0.1034  0.0884
57040SOL    HW181050   0.624   7.710   9.650  1.0420 -0.4742 -0.2534
57040SOL    HW281051   0.666   7.599   9.556 -0.7770 -2.0089  0.6712
57041SOL     OW81052   5.590  10.058  11.154 -0.2129  0.4332  0.2987
57041SOL    HW181053   5.672  10.026  11.193 -1.4157 -2.8300  0.5112
57041SOL    HW281054   5.582  10.148  11.184  3.0325  0.7146  0.6657
57042SOL     OW81055   3.642   0.971   2.731  0.1344  0.3764  0.0279
57042SOL    HW181056   3.552   0.944   2.750 -0.3972  2.9043  1.6569
57042SOL    HW281057   3.684   0.977   2.817  1.2407  1.1147 -0.5332
57043SOL     OW81058  10.844   6.087   6.971 -0.0626  0.1292 -0.2847
57043SOL    HW181059  10.841   6.066   6.878 -1.6658 -1.6239  0.0958
57043SOL    HW281060  10.817   6.178   6.977 -1.8948 -0.3061 -1.4111
57044SOL     OW81061  10.403   0.241   6.788  0.4187 -0.5852 -0.1769
57044SOL    HW181062  10.481   0.204   6.827 -0.3605 -1.9190  0.1676
57044SOL    HW281063  10.435   0.316   6.738  1.6286  0.2118  1.6907
57045SOL     OW81064   8.388   9.939   7.754 -0.0644  0.7480 -0.6322
57045SOL    HW181065   8.473   9.896   7.744 -0.2436  0.3491 -0.4815
57045SOL    HW281066   8.329   9.868   7.779 -0.1176  1.2700  0.8151
57046SOL     OW81067   6.547  10.437   1.517  0.8683  0.2426 -0.1399
57046SOL    HW181068   6.489  10.362   1.527  2.1720 -1.0338 -1.5843
57046SOL    HW281069   6.554  10.450   1.423  1.7320  1.3118  0.0498
57047SOL     OW81070  10.784  12.088  11.107  0.2594 -0.0243 -0.4428
57047SOL    HW181071  10.792  12.039  11.188  1.4682  1.6946  0.5469
57047SOL    HW281072  10.859  12.148  11.107 -1.5808  2.4863 -1.0397
57048SOL     OW81073   5.591   2.007   6.653 -0.8044  0.5611 -0.0197
57048SOL    HW181074   5.580   2.083   6.597  0.0051  0.8684  0.2249
57048SOL    HW281075   5.528   1.943   6.620  0.2701  0.3934 -1.8595
57049SOL     OW81076   1.103   1.253   0.722 -0.4751 -0.0416 -0.0678
57049SOL    HW181077   1.103   1.307   0.801 -2.9607  3.2021 -2.0550
57049SOL    HW281078   1.020   1.206   0.724 -0.3328 -0.3274 -0.5619
57050SOL     OW81079  11.601   2.533   7.055 -0.2473  0.3827  0.3522
57050SOL    HW181080  11.566   2.619   7.078 -3.3031 -0.7657  0.4092
57050SOL    HW281081  11.532   2.492   7.004  0.7114 -2.4308  1.1555
57051SOL     OW81082   4.012   0.802  10.799 -0.3005 -0.1135 -0.1248
57051SOL    HW181083   4.079   0.740  10.829  0.4061  0.7443  0.1071
57051SOL    HW281084   3.940   0.793  10.862 -0.6367 -1.4025 -0.6618
57052SOL     OW81085   7.831   8.410   9.118 -0.1134  0.0780 -0.1836
57052SOL    HW181086   7.898   8.477   9.105 -1.0066  1.1397  0.4724
57052SOL    HW281087   7.753   8.459   9.144 -0.4775 -1.3142  1.5040
57053SOL     OW81088   4.149   2.616  10.280  0.3620 -0.3527  0.1057
57053SOL    HW181089   4.071   2.590  10.329 -0.0520  1.1162  0.2675
57053SOL    HW281090   4.123   2.612  10.188  0.2339 -0.2729  0.1397
57054SOL     OW81091  10.553  12.680   6.544 -0.5614 -0.1064  0.1603
57054SOL    HW181092  10.471  12.717   6.576  0.3826  2.0878  0.1884
57054SOL    HW281093  10.621  12.740   6.574  0.9953 -1.3749 -0.6205
57055SOL     OW81094   9.046   0.196  12.751  0.0761  0.0554  0.1932
57055SOL    HW181095   9.063   0.251  12.674 -0.1389  0.4615  0.4300
57055SOL    HW281096   8.952   0.180  12.749  0.4045 -2.1484 -1.0881
57056SOL     OW81097   4.763   4.832   4.374 -0.4443  0.1172  0.3665
57056SOL    HW181098   4.794   4.745   4.401  4.2355  1.6774  1.0623
57056SOL    HW281099   4.754   4.880   4.456  0.1818  1.1263 -0.1388
57057SOL     OW81100   1.147  12.252   3.170  0.3363 -0.0402 -0.1506
57057SOL    HW181101   1.172  12.163   3.193 -0.3808  0.0886  1.2946
57057SOL    HW281102   1.112  12.245   3.081 -0.3976 -1.3416  0.2120
57058SOL     OW81103  11.256   7.824  11.709 -0.8250  0.2904 -0.0469
57058SOL    HW181104  11.283   7.750  11.655  0.2430  0.3082  0.4348
57058SOL    HW281105  11.318   7.894  11.688 -0.9091  0.5642  0.5804
57059SOL     OW81106   5.959   8.493   3.584 -0.4394  0.3877  0.4425
57059SOL    HW181107   5.999   8.578   3.604  1.4670 -0.2639 -0.3897
57059SOL    HW281108   5.912   8.470   3.665  1.1179  1.0730  1.5952
57060SOL     OW81109  13.014   8.962   9.601 -0.0453  0.0484  0.4598
57060SOL    HW181110  12.979   8.997   9.520 -1.6886 -1.0877  0.6459
57060SOL    HW281111  13.029   9.039   9.656 -2.3113  0.6077  0.3735
57061SOL     OW81112   9.485  10.586  11.623  0.0327 -0.2864 -0.3415
57061SOL    HW181113   9.554  10.521  11.642 -0.9790 -1.0957  0.7082
57061SOL    HW281114   9.533  10.664  11.594  1.5128 -0.2677  1.9102
57062SOL     OW81115   7.040   7.476  12.085 -0.3484  0.4408 -0.0107
57062SOL    HW181116   7.014   7.423  12.010  0.0592 -1.6058  1.2184
57062SOL    HW281117   7.136   7.470  12.086 -0.3353  0.7265  0.4982
57063SOL     OW81118   0.441   4.424   8.243 -0.2243  0.2894 -0.2080
57063SOL    HW181119   0.447   4.395   8.152 -1.3868 -0.5494 -0.0482
57063SOL    HW281120   0.386   4.357   8.286 -0.3679  1.0949  0.9178
57064SOL     OW81121   5.194  11.715   6.943  0.4683 -0.1300 -0.0439
57064SOL    HW181122   5.201  11.701   6.848 -1.6201  0.2103 -0.2878
57064SOL    HW281123   5.252  11.649   6.981 -0.1823 -1.6233 -1.5167
57065SOL     OW81124  13.245   7.133  10.922 -0.1079  0.0640 -0.7705
57065SOL    HW181125  13.306   7.192  10.966 -0.1507  0.4646 -1.2281
57065SOL    HW281126  13.261   7.048  10.961  0.2145  0.3113 -0.3526
57066SOL     OW81127  10.839   0.191  11.373 -0.3728  0.0596 -0.1746
57066SOL    HW181128  10.875   0.268  11.328  0.2546 -1.1547 -1.8454
57066SOL    HW281129  10.745   0.208  11.380 -0.3578  0.6427 -1.2285
57067SOL     OW81130   3.402  11.896   3.662  0.9828  0.5033 -0.1780
57067SOL    HW181131   3.400  11.992   3.668  0.9511  0.5052 -0.2157
57067SOL    HW281132   3.310  11.870   3.673  0.7925  0.5541 -1.5385
57068SOL     OW81133   6.322  12.860   2.761 -0.4183 -0.7599  0.2710
57068SOL    HW181134   6.231  12.892   2.764 -0.2673 -0.4227  1.6105
57068SOL    HW281135   6.370  12.930   2.716 -0.7212 -0.7233 -0.0040
57069SOL     OW81136   6.639  12.279   0.797 -0.1681 -0.0602 -0.0303
57069SOL    HW181137   6.729  12.247   0.801 -0.2421 -0.4872 -1.3423
57069SOL    HW281138   6.639  12.357   0.853  0.7628 -0.6097  0.7717
57070SOL     OW81139   4.297   4.924   8.696  0.8421  0.0911 -0.2913
57070SOL    HW181140   4.383   4.900   8.661  0.5203  0.5346 -1.4543
57070SOL    HW281141   4.240   4.852   8.669  0.9123 -0.4182  0.8548
57071SOL     OW81142  10.764   7.391   4.359  0.1967  0.2040  0.1329
57071SOL    HW181143  10.673   7.395   4.387  0.4128  1.8231  0.7180
57071SOL    HW281144  10.791   7.301   4.378 -1.5183 -0.5881 -0.9493
57072SOL     OW81145   2.307  11.979   8.550  0.1087 -0.0352 -0.1342
57072SOL    HW181146   2.386  11.946   8.593  0.9457  0.8987 -0.9016
57072SOL    HW281147   2.250  11.902   8.541  1.0560 -0.7848  0.1534
57073SOL     OW81148   3.915   5.057   7.700  0.2252  0.2831  0.0464
57073SOL    HW181149   3.990   5.103   7.662 -0.7591  2.1179  0.2550
57073SOL    HW281150   3.931   5.059   7.794 -0.6221  1.7188  0.1831
57074SOL     OW81151   9.372   5.064   4.164  0.5179 -0.3435 -0.5742
57074SOL    HW181152   9.390   5.114   4.085 -1.8240 -0.9178 -1.5799
57074SOL    HW281153   9.392   4.973   4.140  0.8848 -0.3902 -0.1111
57075SOL     OW81154   1.615   1.533   3.963  0.1913 -0.5028 -0.0885
57075SOL    HW181155   1.648   1.543   3.874 -1.8156  0.0075 -0.8244
57075SOL    HW281156   1.553   1.605   3.975 -0.2954 -1.1187  1.3801
57076SOL     OW81157   5.938   1.168   7.707 -0.5419 -0.2860 -0.0566
57076SOL    HW181158   5.984   1.105   7.763 -0.4141  0.7303  1.0272
57076SOL    HW281159   5.943   1.251   7.755  0.0806  0.7661 -1.8612
57077SOL     OW81160   5.617   7.228   7.551  0.1632 -0.3823 -0.3946
57077SOL    HW181161   5.691   7.175   7.524  1.5108  1.8197 -1.3503
57077SOL    HW281162   5.566   7.241   7.471  1.4471  2.0292 -0.9405
57078SOL     OW81163   1.110   3.351   3.524 -0.1166  0.1073  0.3837
57078SOL    HW181164   1.145   3.271   3.484  0.1606  0.2167  0.4035
57078SOL    HW281165   1.016   3.334   3.534 -0.0992 -0.1220  0.1659
57079SOL     OW81166   2.435   1.428   4.296 -0.1780  1.1535 -0.1979
57079SOL    HW181167   2.525   1.446   4.269  0.3099 -1.1369 -0.3554
57079SOL    HW281168   2.398   1.378   4.223 -0.8876  0.2982  0.7249
57080SOL     OW81169   7.438   5.060   0.355 -0.0366  0.2015  0.1043
57080SOL    HW181170   7.481   4.987   0.400 -0.6707  1.1134  2.3275
57080SOL    HW281171   7.488   5.137   0.383 -1.3774  0.9585  0.4748
57081SOL     OW81172   0.165   9.539   2.777 -0.0204 -0.1087  0.0411
57081SOL    HW181173   0.135   9.599   2.844 -0.9083  0.1452 -0.5631
57081SOL    HW281174   0.088   9.485   2.756  1.0131 -2.2571  1.3632
57082SOL     OW81175  10.005   1.723   1.307 -0.4759 -0.4338  0.8900
57082SOL    HW181176   9.934   1.787   1.300 -0.1199 -0.2622 -2.1325
57082SOL    HW281177  10.058   1.755   1.380 -1.6270  1.3495  1.0104
57083SOL     OW81178   6.867  12.377  11.982  0.0841 -0.4627  0.1982
57083SOL    HW181179   6.904  12.290  11.967  0.2301 -0.4349  0.3905
57083SOL    HW281180   6.790  12.361  12.037  0.7234 -0.3761  1.1439
57084SOL     OW81181   0.603   2.794  11.994 -0.1818  0.1628 -0.0352
57084SOL    HW181182   0.516   2.757  12.004 -0.3957  0.6879  0.0929
57084SOL    HW281183   0.636   2.804  12.083 -1.0195  2.3371  0.0881
57085SOL     OW81184  12.358  10.595   8.367  0.2285  0.3932  0.3525
57085SOL    HW181185  12.273  10.581   8.409  0.5965  0.4575  1.1539
57085SOL    HW281186  12.360  10.689   8.348  0.4076  0.5310  1.0091
57086SOL     OW81187   2.829   8.976  11.206  0.1104 -0.8697  0.4250
57086SOL    HW181188   2.777   8.957  11.128  1.7463 -2.3515 -0.3761
57086SOL    HW281189   2.877   9.056  11.185 -0.7087 -0.3124  0.6112
57087SOL     OW81190   5.300   8.168   0.664  0.1375 -0.2381 -0.3107
57087SOL    HW181191   5.286   8.229   0.736  0.9163 -0.2207 -0.1563
57087SOL    HW281192   5.395   8.168   0.652  0.1560 -1.4597 -0.2666
57088SOL     OW81193   2.304   0.474  12.831 -1.0066  0.4505  0.4538
57088SOL    HW181194   2.371   0.539  12.809 -1.8008  1.7302  1.6478
57088SOL    HW281195   2.307   0.468  12.926 -0.6934 -1.6096  0.3691
57089SOL     OW81196   2.831   6.349   6.364 -0.4775  0.1674 -0.3509
57089SOL    HW181197   2.881   6.429   6.375 -0.1412  0.2055 -1.8791
57089SOL    HW281198   2.895   6.279   6.377 -0.7898  0.1141  1.0728
57090SOL     OW81199   7.568   3.189   8.265  0.2998  0.1209 -0.2356
57090SOL    HW181200   7.655   3.218   8.236  0.1067 -0.3363 -1.3086
57090SOL    HW281201   7.520   3.173   8.184 -1.2337  1.6352  0.3041
57091SOL     OW81202   6.797  12.219  12.731  0.6302  0.3598 -0.4904
57091SOL    HW181203   6.729  12.159  12.759  1.1321 -1.6988 -3.2905
57091SOL    HW281204   6.876  12.189  12.776  0.7883 -0.8656 -1.5431
57092SOL     OW81205   7.521   5.834  10.660 -0.0278  0.3773  0.2975
57092SOL    HW181206   7.459   5.854  10.590 -1.0139  0.7048  1.2422
57092SOL    HW281207   7.589   5.901  10.653  0.0281  0.2461 -0.4993
57093SOL     OW81208  12.838  12.581   5.610 -0.6236  0.1315 -0.4448
57093SOL    HW181209  12.923  12.602   5.570 -0.2462  0.3770  0.4706
57093SOL    HW281210  12.848  12.603   5.702 -1.8301  0.5477 -0.3963
57094SOL     OW81211   2.132   0.504   1.108 -0.4634 -0.5687 -0.5054
57094SOL    HW181212   2.154   0.596   1.119  0.0097 -0.8756  1.6069
57094SOL    HW281213   2.210   0.465   1.068  0.6729 -0.6005  1.6159
57095SOL     OW81214   8.087  12.832   6.257 -0.0785  0.4666  0.1035
57095SOL    HW181215   8.166  12.798   6.298  0.0154  1.9287  1.2306
57095SOL    HW281216   8.086  12.925   6.281 -1.8361  0.6062 -0.3672
57096SOL     OW81217   2.090  11.585   8.514 -0.4840 -0.4062 -0.0184
57096SOL    HW181218   2.153  11.620   8.451  0.5588 -2.0049  0.0819
57096SOL    HW281219   2.040  11.520   8.464 -1.6445  0.3777  0.0739
57097SOL     OW81220  10.018  12.174   2.609 -0.7134 -0.7600 -0.5725
57097SOL    HW181221  10.002  12.104   2.547 -3.6011 -1.3278  0.6323
57097SOL    HW281222   9.964  12.151   2.685  0.9264  1.0291  1.2440
57098SOL     OW81223   8.185   8.608   9.636  0.1505 -0.2859  0.4072
57098SOL    HW181224   8.217   8.535   9.582 -0.5096 -1.0697  1.0512
57098SOL    HW281225   8.106   8.574   9.678 -1.1070  1.3311 -0.5129
57099SOL     OW81226   2.850   8.413   3.598  0.1273 -0.4989 -0.6477
57099SOL    HW181227   2.922   8.393   3.658  0.7490  0.8174 -0.9382
57099SOL    HW281228   2.797   8.477   3.646  0.0062 -0.2925 -1.0601
57100SOL     OW81229   2.000   7.140   1.949  0.2015  0.1719 -0.1835
57100SOL    HW181230   1.981   7.050   1.976 -1.0500  0.7732  1.0945
57100SOL    HW281231   1.972   7.144   1.858  1.3883 -1.0320 -0.6326
57101SOL     OW81232   3.288  11.405  11.647  0.7326  0.3056  0.0870
57101SOL    HW181233   3.214  11.345  11.650 -0.0588  1.2844  0.3686
57101SOL    HW281234   3.273  11.467  11.719  1.0412  1.3990 -0.7604
57102SOL     OW81235   9.377  11.747   7.916 -0.0790  0.1082  0.1618
57102SOL    HW181236   9.305  11.803   7.887 -1.1358 -0.2532  1.9790
57102SOL    HW281237   9.438  11.807   7.959 -1.3099 -0.0821  2.2923
57103SOL     OW81238  11.377   4.371   1.282 -0.1835  0.4579  0.1907
57103SOL    HW181239  11.448   4.427   1.248 -0.1348 -0.4547 -1.3230
57103SOL    HW281240  11.422   4.299   1.325 -0.2330  0.9494  1.0819
57104SOL     OW81241   2.027   5.822  10.223 -1.1579  0.0851 -0.0800
57104SOL    HW181242   2.029   5.908  10.181  0.5019 -0.1523 -0.5680
57104SOL    HW281243   1.947   5.822  10.274 -1.8598  1.4225 -1.1169
57105SOL     OW81244   3.238   2.401   1.540  0.3394 -0.4598 -0.2642
57105SOL    HW181245   3.294   2.455   1.595 -1.1426  1.2683 -0.3627
57105SOL    HW281246   3.201   2.461   1.476 -1.5602 -1.5262 -0.2485
57106SOL     OW81247   3.320   0.788   9.668 -0.3016  0.3503  0.1931
57106SOL    HW181248   3.276   0.763   9.750 -0.8902 -1.3056 -0.5860
57106SOL    HW281249   3.260   0.760   9.599  0.5597  0.9721 -0.8436
57107SOL     OW81250  11.372  12.270   3.456  0.1278 -0.0183 -0.2127
57107SOL    HW181251  11.456  12.276   3.501  0.2276 -1.1865 -0.2222
57107SOL    HW281252  11.386  12.205   3.388 -0.5535  0.3917 -0.7545
57108SOL     OW81253   2.119   0.736   0.762 -0.1942 -0.6311 -0.0091
57108SOL    HW181254   2.152   0.666   0.706 -0.1610 -1.6507  1.2306
57108SOL    HW281255   2.195   0.764   0.813 -0.0788  0.7217 -0.8680
57109SOL     OW81256   1.743  11.860   5.208 -0.5650  0.1395  0.2059
57109SOL    HW181257   1.687  11.848   5.285 -0.4113 -1.8943  0.0570
57109SOL    HW281258   1.794  11.939   5.227 -1.6115  0.5425  1.4898
57110SOL     OW81259   4.913  11.989   3.707  1.2690  0.6640  0.1514
57110SOL    HW181260   4.911  11.963   3.615  1.3213  0.4846  0.2002
57110SOL    HW281261   4.823  11.979   3.737  1.5572 -0.9817  0.5829
57111SOL     OW81262   7.826   8.485   4.273  0.5798 -0.1246 -0.0540
57111SOL    HW181263   7.825   8.505   4.179  1.6831 -0.1321 -0.0832
57111SOL    HW281264   7.737   8.503   4.302  0.3719  0.4485 -0.9871
57112SOL     OW81265  11.019   9.656   6.393 -0.0340 -0.0272  0.0257
57112SOL    HW181266  11.067   9.589   6.442  0.2535 -0.6972 -1.1404
57112SOL    HW281267  11.016   9.732   6.452 -0.1557 -0.9817  1.2668
57113SOL     OW81268   1.596  11.888   6.673 -0.1288 -0.4086 -0.4259
57113SOL    HW181269   1.512  11.842   6.669 -1.1006  1.2783 -0.3943
57113SOL    HW281270   1.625  11.892   6.582  0.0453 -1.1914 -0.4141
57114SOL     OW81271   2.070  13.163  11.222  0.3917  0.2818  0.5971
57114SOL    HW181272   1.981  13.161  11.258  0.0034  1.9651 -0.1450
57114SOL    HW281273   2.089  13.073  11.197 -2.6904  0.3599 -2.8661
57115SOL     OW81274   6.513   9.222  11.307 -0.0185 -0.2657  0.1423
57115SOL    HW181275   6.580   9.159  11.335 -0.4714 -1.2185 -0.8643
57115SOL    HW281276   6.554   9.307  11.322  0.3502 -0.7340  2.1974
57116SOL     OW81277   2.160  11.755  11.169  0.6070  0.5967  0.1025
57116SOL    HW181278   2.113  11.734  11.088  0.8115 -0.4139  0.2326
57116SOL    HW281279   2.143  11.848  11.184 -0.1483  0.5810 -0.6343
57117SOL     OW81280   3.079   7.985   9.563 -0.2079  0.1101  0.0464
57117SOL    HW181281   3.118   8.065   9.527 -0.9273  0.1470 -0.6884
57117SOL    HW281282   3.043   7.940   9.486 -0.8841 -0.3172  0.6064
57118SOL     OW81283   1.728   2.227   3.081 -0.1052  0.0001  0.6419
57118SOL    HW181284   1.727   2.156   3.145  1.5967 -0.3054  0.3828
57118SOL    HW281285   1.751   2.305   3.132 -1.6282  0.3338  0.8660
57119SOL     OW81286   5.347   1.679  10.365  0.0134  0.2900  0.1120
57119SOL    HW181287   5.363   1.635  10.282 -0.1670  0.7439 -0.1647
57119SOL    HW281288   5.256   1.655  10.387 -1.0985  2.7158 -1.4238
57120SOL     OW81289   4.365  11.728   4.949  0.1553 -0.5940  0.2776
57120SOL    HW181290   4.445  11.688   4.985  0.0223 -1.4636 -0.3747
57120SOL    HW281291   4.307  11.738   5.025  0.0232 -2.0617  0.3820
57121SOL     OW81292   2.975   8.095  11.426  0.0994  0.4833  0.0422
57121SOL    HW181293   2.991   8.027  11.360 -2.0954  0.2334 -0.3305
57121SOL    HW281294   2.925   8.050  11.495 -3.1851  1.9687 -1.1285
57122SOL     OW81295  13.275   4.263  10.751 -0.3730 -1.2221  0.0590
57122SOL    HW181296  13.201   4.238  10.806 -0.7888  1.7187  0.9929
57122SOL    HW281297  13.304   4.347  10.786  4.0587 -2.5935  0.3605
57123SOL     OW81298  10.432   5.053   3.225 -0.2795  0.1462  0.3260
57123SOL    HW181299  10.462   5.110   3.155 -0.1033  1.5078  1.4724
57123SOL    HW281300  10.387   5.111   3.286 -1.8360 -1.2514  0.5790
57124SOL     OW81301  12.657  10.634  11.475  0.5233 -0.1514  0.3303
57124SOL    HW181302  12.667  10.602  11.565 -1.1147 -0.6915  0.3590
57124SOL    HW281303  12.650  10.729  11.484 -2.4711 -0.3299  1.1714
57125SOL     OW81304   3.174   5.468   0.462  0.1484  0.7879 -0.4285
57125SOL    HW181305   3.267   5.488   0.455  0.5075 -0.3860  0.6748
57125SOL    HW281306   3.170   5.373   0.472 -1.1427  0.8481 -0.1716
57126SOL     OW81307   5.905  12.818   9.117 -0.0731 -0.3028 -0.2923
57126SOL    HW181308   5.914  12.802   9.023 -3.3923 -1.5169 -0.5443
57126SOL    HW281309   5.951  12.745   9.159  3.2738  1.3620 -0.7881
57127SOL     OW81310  12.596   3.317  10.938 -0.4505  0.1410 -0.6179
57127SOL    HW181311  12.609   3.412  10.938 -0.2307  0.1246  0.5307
57127SOL    HW281312  12.518   3.304  10.883 -0.4450  0.9712 -0.8401
57128SOL     OW81313   5.286   4.832   4.372  0.2545  0.4187  0.1279
57128SOL    HW181314   5.225   4.764   4.344  0.7784 -0.7931  1.8035
57128SOL    HW281315   5.250   4.864   4.455  1.7106 -0.0966  0.9827
57129SOL     OW81316  11.879   8.729   2.971 -0.5998 -0.1116  0.2628
57129SOL    HW181317  11.926   8.800   2.928 -1.6465  0.2166 -0.3691
57129SOL    HW281318  11.910   8.649   2.928 -2.1074  0.2530 -1.6359
57130SOL     OW81319   4.861   7.606   1.664  0.2492  0.5068  0.3196
57130SOL    HW181320   4.878   7.682   1.719  0.8562  0.3296  0.3845
57130SOL    HW281321   4.778   7.626   1.620 -1.3655 -0.1839  2.7949
57131SOL     OW81322   8.878   1.020  10.205 -0.5767 -0.6622  0.5030
57131SOL    HW181323   8.871   0.956  10.276 -0.9709 -0.9307  0.2260
57131SOL    HW281324   8.826   0.983  10.134  0.5597 -0.8271 -0.2608
57132SOL     OW81325   3.566   7.771   2.181 -0.9617  0.1136  0.2131
57132SOL    HW181326   3.525   7.719   2.251 -0.5173  0.2054  0.5483
57132SOL    HW281327   3.577   7.857   2.220  0.6116 -0.2068  0.5469
57133SOL     OW81328  11.283   7.075  11.337  0.5113 -0.0145  0.4188
57133SOL    HW181329  11.229   7.054  11.413  0.5558  0.4997  0.5920
57133SOL    HW281330  11.280   7.170  11.331  0.1447 -0.0735 -0.4810
57134SOL     OW81331   3.690  11.944   4.337  0.1046  0.3961 -0.0280
57134SOL    HW181332   3.755  12.003   4.373  0.5386 -0.0594 -0.0590
57134SOL    HW281333   3.667  11.885   4.409  1.5213 -0.9902 -0.6602
57135SOL     OW81334   5.573  11.005   7.351  0.8470 -0.0910  0.3526
57135SOL    HW181335   5.530  10.940   7.406 -1.5088  2.3924  1.6788
57135SOL    HW281336   5.641  11.043   7.407  1.0721 -0.2171  0.1701
57136SOL     OW81337   1.453   1.438   5.633 -1.0483 -0.3720  0.3224
57136SOL    HW181338   1.429   1.366   5.691 -0.4523  0.1245  1.2199
57136SOL    HW281339   1.395   1.509   5.658 -1.2860 -0.3745 -0.2083
57137SOL     OW81340   9.243   2.062   3.567 -0.4159  0.3000  0.2170
57137SOL    HW181341   9.334   2.079   3.590 -0.0776 -1.0039 -0.0921
57137SOL    HW281342   9.227   2.118   3.491 -0.4757  1.9760  1.4170
57138SOL     OW81343   5.073  13.246   4.673  0.0339 -0.0779 -0.1389
57138SOL    HW181344   5.136  13.256   4.745 -0.9623  3.2986  0.4493
57138SOL    HW281345   4.990  13.227   4.717 -0.1451 -0.3447 -0.5885
57139SOL     OW81346   9.504   5.251   3.964  0.3316  0.0530  0.7458
57139SOL    HW181347   9.511   5.347   3.955  0.5450 -0.0179  0.0541
57139SOL    HW281348   9.558   5.217   3.893 -1.9469 -0.5745 -0.7894
57140SOL     OW81349   4.212   5.114   6.416  0.2146 -0.2659 -0.0985
57140SOL    HW181350   4.159   5.182   6.375 -1.3135 -1.5540 -0.3898
57140SOL    HW281351   4.268   5.161   6.478  0.4645  1.4041 -1.5289
57141SOL     OW81352   1.432   2.105   5.871 -0.4554 -0.1941 -0.2408
57141SOL    HW181353   1.401   2.016   5.853 -1.1968 -0.0564  0.3305
57141SOL    HW281354   1.517   2.110   5.826 -0.2787 -1.2814 -0.0579
57142SOL     OW81355   2.209   5.512   1.105 -0.7103 -0.1747  0.6470
57142SOL    HW181356   2.281   5.522   1.167  0.3239  0.2349 -0.5817
57142SOL    HW281357   2.130   5.524   1.159  0.1573  0.6164  1.8019
57143SOL     OW81358   6.556   7.405   8.312 -0.4131 -0.4013 -0.7969
57143SOL    HW181359   6.646   7.426   8.287 -0.3802 -0.0687 -0.4047
57143SOL    HW281360   6.545   7.313   8.287  1.3224 -1.7045  2.5835
57144SOL     OW81361  11.399  12.090   5.693  0.3889 -0.2645 -0.5275
57144SOL    HW181362  11.414  12.009   5.644  0.9779 -0.2532 -0.3769
57144SOL    HW281363  11.463  12.086   5.764  1.6812  1.1489 -1.5285
57145SOL     OW81364  11.991   6.374  11.679  0.5975 -0.0541 -0.2598
57145SOL    HW181365  11.937   6.343  11.751  1.0506 -0.3909 -0.0583
57145SOL    HW281366  11.972   6.467  11.672  0.0894 -0.1469 -0.1075
57146SOL     OW81367  11.862   6.423   2.124 -0.3232  0.6828  0.4136
57146SOL    HW181368  11.906   6.447   2.205  0.6836 -1.0831  0.4347
57146SOL    HW281369  11.869   6.328   2.120 -2.5660  0.4946 -0.5074
57147SOL     OW81370  10.561   6.381   8.174  0.6890 -0.5948  0.1029
57147SOL    HW181371  10.527   6.297   8.140  1.8277 -0.2723 -1.9915
57147SOL    HW281372  10.656   6.371   8.171  0.8590 -0.0780  2.2237
57148SOL     OW81373   1.827   9.271  10.456  0.3174  0.4999  0.5733
57148SOL    HW181374   1.815   9.340  10.520 -0.2734  1.1129 -0.1807
57148SOL    HW281375   1.919   9.278  10.431  0.3544  0.7679  0.7761
57149SOL     OW81376  11.269   8.765   3.682  0.2217 -0.2291  0.1016
57149SOL    HW181377  11.225   8.710   3.617 -0.9434 -0.2913  0.8942
57149SOL    HW281378  11.264   8.854   3.646 -0.6349 -0.2285  0.1916
57150SOL     OW81379   5.055   8.163   8.125  0.1507 -0.0288 -0.2495
57150SOL    HW181380   5.082   8.175   8.216  0.4457  0.9570 -0.4513
57150SOL    HW281381   4.960   8.167   8.127  0.1988  2.2938 -0.2504
57151SOL     OW81382   9.212   4.608  11.908 -1.1386  0.4199 -0.3829
57151SOL    HW181383   9.295   4.584  11.867 -0.7495  0.2238  0.5083
57151SOL    HW281384   9.145   4.577  11.846 -0.5550  1.7080 -1.7122
57152SOL     OW81385  11.119   6.284   1.828  0.5776 -0.0677 -0.1148
57152SOL    HW181386  11.170   6.208   1.858 -2.2533 -1.7302  0.8922
57152SOL    HW281387  11.104   6.266   1.735 -1.0881 -1.4794  0.3710
57153SOL     OW81388  10.049   4.647   6.955 -0.4540  0.2521 -0.3387
57153SOL    HW181389  10.089   4.702   7.023 -0.0279  0.8031 -1.0220
57153SOL    HW281390  10.104   4.569   6.953 -0.5742  0.1571  0.0746
57154SOL     OW81391   5.967   2.099  11.373  0.5859  0.3019  0.1870
57154SOL    HW181392   5.884   2.146  11.367  0.3915  0.1790  1.6969
57154SOL    HW281393   6.020   2.134  11.301 -0.9871 -0.0923 -1.2188
57155SOL     OW81394   8.590  11.145   3.031 -0.5155 -0.4092  0.5192
57155SOL    HW181395   8.550  11.137   2.944  0.3057 -1.4084  0.2100
57155SOL    HW281396   8.537  11.087   3.086 -0.5952 -0.3337  0.5230
57156SOL     OW81397   1.070   9.924   8.411 -0.0778  0.6472 -0.2035
57156SOL    HW181398   1.024  10.008   8.412  1.3641  1.4632  0.0508
57156SOL    HW281399   1.031   9.875   8.484 -1.6088  0.6852 -0.9572
57157SOL     OW81400   8.753  10.205   6.344  0.5310 -0.8030  0.4391
57157SOL    HW181401   8.707  10.218   6.261  1.4532 -2.0636 -0.3099
57157SOL    HW281402   8.684  10.186   6.407 -0.1647 -0.0357 -0.0671
57158SOL     OW81403  13.275   9.135   5.858  0.4276  0.2006  0.2326
57158SOL    HW181404  13.355   9.129   5.807 -0.3736 -0.6741 -0.9740
57158SOL    HW281405  13.230   9.211   5.823 -0.7470 -1.1560 -1.3780
57159SOL     OW81406   8.704   6.291  11.702  0.4377  0.7330  0.1503
57159SOL    HW181407   8.713   6.336  11.618  0.0922  0.1833 -0.1858
57159SOL    HW281408   8.703   6.361  11.767 -3.2500  1.5230 -0.5404
57160SOL     OW81409   1.740   1.633  11.357  0.6639  0.4106 -0.0387
57160SOL    HW181410   1.812   1.614  11.417  0.3509 -1.9620 -0.3122
57160SOL    HW281411   1.661   1.607  11.404  0.0339  2.0710 -0.1120
57161SOL     OW81412   3.615   4.886   2.820  0.5960 -0.1153  0.1387
57161SOL    HW181413   3.545   4.857   2.762  1.2940 -0.8204 -0.3662
57161SOL    HW281414   3.594   4.977   2.840 -2.1877 -1.1337  2.5310
57162SOL     OW81415  11.497  13.194  13.198 -0.1700  0.1484 -0.2155
57162SOL    HW181416  11.591  13.211  13.203 -0.1243 -0.3079  0.9898
57162SOL    HW281417  11.485  13.113  13.249 -1.4795  1.3295  1.4633
57163SOL     OW81418   0.288   9.386   7.775  0.2186 -0.2440  0.3818
57163SOL    HW181419   0.245   9.303   7.793  0.5603 -0.3905  0.5372
57163SOL    HW281420   0.381   9.368   7.788  0.3437  0.0222 -0.1193
57164SOL     OW81421   6.181  13.047   8.556 -0.5929 -0.3872  0.1781
57164SOL    HW181422   6.187  13.118   8.492 -1.0896 -0.9918 -0.5542
57164SOL    HW281423   6.087  13.032   8.566 -0.5365 -0.1219  1.2663
57165SOL     OW81424   7.769   2.563   2.605  0.5266  0.0444 -0.1971
57165SOL    HW181425   7.854   2.520   2.613  0.4895 -0.1294 -0.6907
57165SOL    HW281426   7.790   2.653   2.579  0.5072 -0.5064 -2.2342
57166SOL     OW81427   5.679   3.054   4.202  0.0311  0.0410  0.1739
57166SOL    HW181428   5.604   3.049   4.142 -0.9929  0.8640  1.3481
57166SOL    HW281429   5.680   3.145   4.230  0.9106 -0.1895  0.8989
57167SOL     OW81430   5.120   6.582  11.568  0.2919  0.5978 -0.1839
57167SOL    HW181431   5.132   6.646  11.498 -0.5848 -0.0503 -0.9458
57167SOL    HW281432   5.041   6.534  11.544  0.7300 -0.5446  0.5609
57168SOL     OW81433  13.305   7.228   4.542 -0.5916 -0.2725 -0.7883
57168SOL    HW181434  13.325   7.299   4.481 -0.0772  1.2507  1.0488
57168SOL    HW281435  13.213   7.209   4.528 -0.5975  0.3568 -1.6947
57169SOL     OW81436  10.614  11.377   8.956 -0.9635  0.7116  0.1676
57169SOL    HW181437  10.580  11.378   9.045 -3.4372 -0.1246 -0.6978
57169SOL    HW281438  10.539  11.353   8.902  0.6767  0.3295 -2.0654
57170SOL     OW81439   4.930  11.131  11.416 -0.1490  0.2835  0.0941
57170SOL    HW181440   4.899  11.183  11.342 -0.7929 -1.9292 -1.2910
57170SOL    HW281441   4.906  11.041  11.394  0.3742 -0.5655  2.6411
57171SOL     OW81442   8.521   9.108  11.920 -0.4365 -0.2050 -0.4144
57171SOL    HW181443   8.443   9.158  11.942  1.0564  1.0022  2.8064
57171SOL    HW281444   8.523   9.036  11.983  2.0520  1.0912  1.1838
57172SOL     OW81445   4.382   1.842  10.671 -0.4922  0.2027  0.0808
57172SOL    HW181446   4.385   1.765  10.728 -1.7327  0.4054  0.4456
57172SOL    HW281447   4.301   1.832  10.621 -0.0218  0.6454 -0.7878
57173SOL     OW81448   4.258   8.679   0.750 -0.5804 -0.5188 -0.1894
57173SOL    HW181449   4.202   8.748   0.714  0.4946 -0.5247 -2.0584
57173SOL    HW281450   4.298   8.639   0.672  0.6218 -1.6806  0.9807
57174SOL     OW81451   9.296  10.645  11.923 -0.1458  0.4881 -0.0366
57174SOL    HW181452   9.276  10.568  11.870  0.2179  0.5523 -0.2671
57174SOL    HW281453   9.343  10.610  11.999  0.6229  0.5443 -0.4721
57175SOL     OW81454   3.274   9.072  13.184  0.0065  0.0760  0.0311
57175SOL    HW181455   3.226   9.025  13.252 -0.8384  2.2051  1.0308
57175SOL    HW281456   3.262   9.020  13.105 -0.4329 -1.5947  1.1383
57176SOL     OW81457   5.698   4.925   1.448  0.8814 -0.9129 -0.0055
57176SOL    HW181458   5.746   4.956   1.371 -1.0978 -1.6909 -1.6538
57176SOL    HW281459   5.724   4.834   1.457 -1.3519 -1.8417 -1.9321
57177SOL     OW81460   0.323  10.601   5.850  0.0254 -0.3178 -0.5698
57177SOL    HW181461   0.368  10.577   5.769  0.6961  0.2760 -0.3864
57177SOL    HW281462   0.267  10.675   5.825  1.1721  0.6910 -0.2504
57178SOL     OW81463   5.011   4.735   8.835  0.8783 -0.0570 -0.6017
57178SOL    HW181464   4.976   4.784   8.761  0.1986 -1.8757 -1.5425
57178SOL    HW281465   5.099   4.709   8.807  1.2298  0.5569 -0.1104
57179SOL     OW81466   9.888   7.410   8.683 -0.6117  0.5494 -0.4513
57179SOL    HW181467   9.877   7.500   8.714 -0.3779  0.2027  0.6821
57179SOL    HW281468   9.810   7.364   8.716  0.7870 -0.3728  1.7578
57180SOL     OW81469  10.202   0.076  10.326  0.4357  0.0679 -0.6922
57180SOL    HW181470  10.190   0.070  10.421 -4.4240  0.1298 -1.0545
57180SOL    HW281471  10.205   0.170  10.309  0.7960  0.0651 -0.6495
57181SOL     OW81472   1.559   3.826   5.111 -0.1114  0.0540  0.1251
57181SOL    HW181473   1.486   3.767   5.129  0.6874 -1.2227 -0.6583
57181SOL    HW281474   1.604   3.834   5.195 -2.2308  2.5113  1.1659
57182SOL     OW81475   2.834   6.940   1.598 -0.0402 -0.1837 -0.7982
57182SOL    HW181476   2.806   7.020   1.554  1.5366  0.3584 -0.8600
57182SOL    HW281477   2.904   6.967   1.657 -1.9462 -0.9156  1.9945
57183SOL     OW81478   4.549   8.225   0.791  0.0964 -0.1031  0.1164
57183SOL    HW181479   4.460   8.191   0.795  0.4340 -1.1216 -0.5489
57183SOL    HW281480   4.540   8.320   0.798 -0.9486 -0.2650  1.1880
57184SOL     OW81481   4.023   7.104   5.026 -0.7944 -0.1487 -0.1992
57184SOL    HW181482   4.010   7.097   5.121 -1.1458 -2.3480 -0.3577
57184SOL    HW281483   4.109   7.063   5.011  0.2587  2.0615 -0.6612
57185SOL     OW81484   8.941   8.664   0.491  0.1486  0.3978 -0.1043
57185SOL    HW181485   8.904   8.624   0.570  0.8536 -0.6404 -0.2761
57185SOL    HW281486   8.906   8.611   0.419  3.3194 -1.8786 -0.1907
57186SOL     OW81487   3.596   3.935   2.145 -0.2784  0.1824  0.0525
57186SOL    HW181488   3.540   4.009   2.168  0.4898  0.4379  1.1753
57186SOL    HW281489   3.652   3.922   2.222 -0.0737 -1.2669 -0.3112
57187SOL     OW81490   1.716  11.127   6.340 -0.1480  0.0753 -0.0006
57187SOL    HW181491   1.727  11.222   6.347 -0.3076  0.2413 -1.6012
57187SOL    HW281492   1.634  11.109   6.385 -0.8838  0.9192 -0.9553
57188SOL     OW81493   4.512   9.112   3.898  0.1473  0.3245 -0.2645
57188SOL    HW181494   4.484   9.098   3.808  0.7850  2.0016 -0.7543
57188SOL    HW281495   4.442   9.075   3.951 -0.2541 -0.6451 -1.4368
57189SOL     OW81496  11.971   7.539   9.482  0.0997 -0.3727 -0.0392
57189SOL    HW181497  11.905   7.471   9.469 -0.8301 -0.2371  3.1779
57189SOL    HW281498  12.005   7.523   9.570 -0.0118  3.1683  0.7861
57190SOL     OW81499  11.440   1.177   4.491  0.0840  0.5775  0.3580
57190SOL    HW181500  11.464   1.240   4.423  1.2372  0.2113  0.4203
57190SOL    HW281501  11.426   1.231   4.569  1.8903  0.6979  0.6252
57191SOL     OW81502   7.633  12.572   3.706 -0.4934  0.0856  0.0767
57191SOL    HW181503   7.554  12.518   3.710 -0.0712 -0.6125 -0.6921
57191SOL    HW281504   7.681  12.538   3.631  2.0299 -1.5761  2.2472
57192SOL     OW81505   9.632   6.230   0.048 -0.4813 -0.5601  0.0332
57192SOL    HW181506   9.678   6.292   0.103  0.5633 -1.0524 -0.2581
57192SOL    HW281507   9.634   6.268  -0.040 -0.9234 -0.4323  0.0740
57193SOL     OW81508   2.591   0.502  10.532 -0.1769  0.2098 -0.2869
57193SOL    HW181509   2.643   0.433  10.574  0.1143  1.0653  0.8182
57193SOL    HW281510   2.512   0.458  10.502  0.3298 -0.7385 -0.2526
57194SOL     OW81511  11.475  10.132   4.168  0.3974  0.0524  0.1859
57194SOL    HW181512  11.478  10.221   4.202  0.2760  0.4107 -0.7233
57194SOL    HW281513  11.385  10.120   4.140 -0.1265 -1.0966  2.1952
57195SOL     OW81514   8.815   6.807   1.798 -0.0496  0.5143  0.1999
57195SOL    HW181515   8.765   6.726   1.810  0.2061  0.4394  0.7975
57195SOL    HW281516   8.781   6.866   1.866 -1.7572  1.6792 -1.5561
57196SOL     OW81517   7.774   1.736   3.582  0.7033 -0.3915 -0.5485
57196SOL    HW181518   7.749   1.650   3.547 -2.1369  0.9817 -2.2931
57196SOL    HW281519   7.788   1.790   3.504 -0.8188  1.5187  0.4210
57197SOL     OW81520   5.470   3.131  11.103  0.1548  0.0152 -0.3389
57197SOL    HW181521   5.446   3.038  11.108  1.6027 -0.3893 -0.5510
57197SOL    HW281522   5.538   3.141  11.169 -0.8699  1.2380  0.5699
57198SOL     OW81523   6.192   2.426  12.671  0.3170  0.7741 -0.3610
57198SOL    HW181524   6.158   2.339  12.691  0.8622  0.6514  0.0597
57198SOL    HW281525   6.262   2.440  12.735 -0.3754  1.9005  0.1936
57199SOL     OW81526   3.261  11.547  11.171  0.0862 -0.3135 -0.0576
57199SOL    HW181527   3.208  11.479  11.129 -0.8959 -0.4028  1.2768
57199SOL    HW281528   3.207  11.626  11.164  0.0937 -0.2410  0.6371
57200SOL     OW81529  12.781   6.085   7.529 -0.1075  0.0658 -0.1803
57200SOL    HW181530  12.853   6.067   7.469 -0.0319 -2.5321  0.5562
57200SOL    HW281531  12.768   6.179   7.523 -0.0910 -0.0193 -4.2182
57201SOL     OW81532  12.472   5.918   9.916  0.0145  0.1272  0.1490
57201SOL    HW181533  12.413   5.873   9.976 -0.9358  0.9079 -0.1808
57201SOL    HW281534  12.421   5.991   9.882  1.1619  0.7967 -0.1828
57202SOL     OW81535   2.681   8.396   6.834 -0.4665 -0.4934  0.2959
57202SOL    HW181536   2.758   8.448   6.812 -1.8343  1.3398 -0.4184
57202SOL    HW281537   2.644   8.369   6.750 -1.6099  0.2589  0.5220
57203SOL     OW81538  13.259   7.446   1.584  0.0800 -0.2513 -0.1219
57203SOL    HW181539  13.303   7.369   1.620  0.8390  0.4196  0.4037
57203SOL    HW281540  13.214   7.486   1.658 -0.7829 -0.4871 -0.5025
57204SOL     OW81541  10.108   7.573  11.316  0.2241  0.3620 -0.4800
57204SOL    HW181542  10.165   7.632  11.365 -0.9876  1.1578  0.0463
57204SOL    HW281543  10.080   7.508  11.381 -0.0075  0.3910 -0.5494
57205SOL     OW81544  10.969   9.840  11.551  0.0004  0.1376  0.1331
57205SOL    HW181545  10.921   9.799  11.623 -1.7936  0.1146 -1.0171
57205SOL    HW281546  11.013   9.767  11.507 -0.9438 -0.2126 -0.2602
57206SOL     OW81547  10.609   4.136   0.582 -0.2714 -0.7595 -0.0513
57206SOL    HW181548  10.614   4.158   0.676  0.0285 -0.0596 -0.2211
57206SOL    HW281549  10.594   4.041   0.580 -0.0897 -0.8106  0.7048
57207SOL     OW81550   0.787   9.253  11.581  0.0615  0.0570 -0.4805
57207SOL    HW181551   0.803   9.228  11.672 -2.7592 -3.4600 -0.7529
57207SOL    HW281552   0.862   9.220  11.532  1.2529  1.3577  0.3826
57208SOL     OW81553   9.280  13.114   2.950 -0.4726  0.3736  0.5011
57208SOL    HW181554   9.307  13.191   2.900  2.1364 -0.2519  0.7790
57208SOL    HW281555   9.357  13.091   3.001 -1.0704 -2.5538  0.2703
57209SOL     OW81556   8.847  13.295   4.941 -0.2493  0.1426 -0.4208
57209SOL    HW181557   8.908  13.302   4.867 -0.1077 -0.2868 -0.3471
57209SOL    HW281558   8.887  13.231   4.999  0.3823  1.5512  0.7601
57210SOL     OW81559  10.177  11.332   9.442  0.0825 -0.0919  0.0499
57210SOL    HW181560  10.128  11.262   9.399 -0.7827 -0.2597  1.2349
57210SOL    HW281561  10.175  11.405   9.380 -2.0359  0.0379  0.1916
57211SOL     OW81562   9.449   0.542   4.576  0.7068 -0.0080 -0.1213
57211SOL    HW181563   9.481   0.597   4.505  0.9361  0.2602  0.1855
57211SOL    HW281564   9.472   0.590   4.656 -1.4133  0.7354  0.1028
57212SOL     OW81565  12.091  10.776  12.082  0.5277 -0.0262  0.1782
57212SOL    HW181566  11.996  10.782  12.071  0.3405  0.4867  1.8002
57212SOL    HW281567  12.123  10.862  12.054  0.5471 -0.2577 -0.5328
57213SOL     OW81568   7.248  13.311   3.292  0.4441  0.4755  0.1112
57213SOL    HW181569   7.273  13.331   3.202  0.8459  0.9961  0.3371
57213SOL    HW281570   7.320  13.345   3.346  1.0406 -1.3239  0.5357
57214SOL     OW81571   6.686   9.818  12.162  0.7684 -0.1437 -0.0941
57214SOL    HW181572   6.676   9.736  12.113  0.9357 -0.3649  0.2372
57214SOL    HW281573   6.676   9.887  12.096  0.5542 -0.4286 -0.3607
57215SOL     OW81574   0.818   5.109   4.376 -0.0827  0.1784 -0.4111
57215SOL    HW181575   0.746   5.087   4.316 -2.3017 -0.3964  2.2393
57215SOL    HW281576   0.852   5.025   4.405  0.7970  0.4405 -0.6646
57216SOL     OW81577   7.423   0.653   6.112 -0.1010  0.1405 -0.3860
57216SOL    HW181578   7.349   0.708   6.138 -0.9404 -1.1023 -0.0570
57216SOL    HW281579   7.391   0.564   6.121  1.7051 -0.4650  0.5498
57217SOL     OW81580  11.763   4.493   3.723 -0.2282 -0.4319 -0.5797
57217SOL    HW181581  11.702   4.434   3.767 -1.1261 -0.2385 -1.5278
57217SOL    HW281582  11.814   4.532   3.794 -0.4922 -1.3794  0.1503
57218SOL     OW81583  12.329   1.766  12.307  0.2227  0.2640  0.2848
57218SOL    HW181584  12.234   1.757  12.302  0.2501 -0.3622  0.8135
57218SOL    HW281585  12.363   1.681  12.280  0.7146  1.0873 -1.9441
57219SOL     OW81586  10.189  13.262   6.193 -0.0941  0.1983  0.3981
57219SOL    HW181587  10.262  13.249   6.132 -0.6519 -0.5403 -0.1411
57219SOL    HW281588  10.111  13.246   6.140 -0.5938 -0.6216  1.3422
57220SOL     OW81589   9.387   3.339  12.021 -0.2338 -0.5728 -0.1355
57220SOL    HW181590   9.431   3.370  11.941 -0.4730  1.4981  0.4942
57220SOL    HW281591   9.296   3.327  11.995 -0.2106 -0.4250 -0.2867
57221SOL     OW81592  11.708  10.270  10.445 -0.5635 -0.0913 -0.8299
57221SOL    HW181593  11.750  10.253  10.529 -1.4481 -0.4167 -0.4413
57221SOL    HW281594  11.644  10.200  10.436 -0.8324  0.2358 -1.5429
57222SOL     OW81595   5.097   1.529   9.015 -0.2037  0.3734 -0.0578
57222SOL    HW181596   5.059   1.444   9.038  0.5257  0.6780  2.5976
57222SOL    HW281597   5.188   1.508   8.993 -0.2316  0.3785 -0.1787
57223SOL     OW81598  12.434   5.473   7.145 -0.3033  0.4521 -0.3997
57223SOL    HW181599  12.414   5.421   7.223 -2.2083 -0.2919 -1.3286
57223SOL    HW281600  12.486   5.415   7.090 -1.2183  0.0258 -0.8212
57224SOL     OW81601   7.853  13.015   0.038  0.3338 -0.4819 -0.4917
57224SOL    HW181602   7.845  13.039   0.131 -1.3733 -1.0398 -0.4611
57224SOL    HW281603   7.825  12.923   0.034 -0.9665 -0.0693 -1.7372
57225SOL     OW81604  12.550   5.993   2.806  0.4481 -0.5989  0.6733
57225SOL    HW181605  12.526   5.929   2.873 -3.0363  1.0716  1.2139
57225SOL    HW281606  12.552   6.077   2.852  0.5639  0.2561 -0.8225
57226SOL     OW81607  11.901  12.502   8.217  0.1273 -0.1762 -0.2554
57226SOL    HW181608  11.941  12.424   8.255 -2.0803 -0.1704  2.3832
57226SOL    HW281609  11.843  12.467   8.149 -1.1627 -0.9481  1.1829
57227SOL     OW81610   1.320   4.007   8.502 -0.0347  0.9008  0.1487
57227SOL    HW181611   1.273   4.080   8.542 -0.8153 -0.0724  1.0721
57227SOL    HW281612   1.320   3.939   8.569  0.0562 -0.2054 -0.9338
57228SOL     OW81613   4.524   1.832   5.081  0.5404  0.8191  0.1363
57228SOL    HW181614   4.574   1.806   5.158  1.8274  0.3531 -0.8288
57228SOL    HW281615   4.460   1.896   5.115  0.3413 -0.1640  1.7582
57229SOL     OW81616   3.334   3.929   5.006 -0.0534 -0.1024 -0.1969
57229SOL    HW181617   3.414   3.930   4.955 -0.4231 -0.2819 -0.7884
57229SOL    HW281618   3.282   4.002   4.971 -0.3090 -0.2227 -0.0734
57230SOL     OW81619  10.120   4.477   6.666 -0.0345 -0.2099 -0.5700
57230SOL    HW181620  10.210   4.464   6.636 -0.0902 -1.5643 -0.2068
57230SOL    HW281621  10.090   4.390   6.691 -1.5777  0.1648 -1.0231
57231SOL     OW81622   1.796   2.060   7.617 -0.5781 -0.8824  0.9008
57231SOL    HW181623   1.704   2.045   7.640 -0.7250 -1.4398 -0.0367
57231SOL    HW281624   1.802   2.039   7.524  0.5112 -0.8940  0.9621
57232SOL     OW81625   4.810   3.409  10.832 -0.1012 -0.1755  0.4117
57232SOL    HW181626   4.855   3.365  10.904  1.2842 -0.7790 -0.7610
57232SOL    HW281627   4.775   3.489  10.871  1.1087 -0.1935  1.6204
57233SOL     OW81628   0.012   6.829  11.939  0.6009 -0.4562  0.2103
57233SOL    HW181629   0.027   6.820  11.845  1.5990 -2.7935  0.5073
57233SOL    HW281630  -0.054   6.762  11.959 -0.2057  0.5660  1.0771
57234SOL     OW81631  12.775   1.712   7.480 -0.0556 -0.1184  0.0221
57234SOL    HW181632  12.715   1.641   7.455 -0.6721  0.3088  0.2728
57234SOL    HW281633  12.851   1.667   7.515  0.8574 -0.7678 -2.5697
57235SOL     OW81634   4.629  13.209   6.626 -0.2203 -0.0939  0.3068
57235SOL    HW181635   4.546  13.203   6.578 -0.3843 -0.7272  0.6520
57235SOL    HW281636   4.647  13.302   6.632 -0.5480  0.0242 -0.3840
57236SOL     OW81637   7.291  10.651  10.385 -0.2596 -0.3535  0.2295
57236SOL    HW181638   7.323  10.706  10.457  0.5883  1.0157 -1.1170
57236SOL    HW281639   7.264  10.569  10.427  0.1619  0.4108  2.0926
57237SOL     OW81640  12.655   6.725  10.968 -0.5104 -0.2141 -0.0908
57237SOL    HW181641  12.710   6.728  10.889 -0.3912  0.9412  0.0132
57237SOL    HW281642  12.710   6.680  11.033 -0.4150 -0.7271 -0.5211
57238SOL     OW81643   7.787   9.171   8.701 -0.6124  0.7683  0.3118
57238SOL    HW181644   7.712   9.119   8.729 -1.3366  0.4543 -2.0255
57238SOL    HW281645   7.862   9.115   8.717 -1.0200  0.4362  1.1441
57239SOL     OW81646   4.408   9.561   1.696 -0.0905  0.0854  0.7571
57239SOL    HW181647   4.438   9.539   1.784  0.2709 -1.3066  0.3087
57239SOL    HW281648   4.343   9.493   1.675  0.5936 -0.2341 -0.4378
57240SOL     OW81649   4.282   0.771   4.139  0.2949 -0.1871  0.3318
57240SOL    HW181650   4.218   0.757   4.069 -0.5299  0.4215  0.9323
57240SOL    HW281651   4.367   0.752   4.099 -0.2880 -1.4228 -0.3704
57241SOL     OW81652   3.865  10.862  12.247 -0.2619 -0.0365  0.4365
57241SOL    HW181653   3.772  10.878  12.229 -0.1450  0.1134 -0.0618
57241SOL    HW281654   3.910  10.941  12.216 -0.0955  0.5228  2.0070
57242SOL     OW81655   0.068  10.832   2.648 -0.2817 -0.5611  0.0843
57242SOL    HW181656   0.094  10.923   2.666 -0.1749 -0.7471  0.9014
57242SOL    HW281657  -0.024  10.828   2.674  0.0344 -0.9858  1.1903
57243SOL     OW81658   2.933   4.094   3.564  0.0591 -0.1203 -0.3183
57243SOL    HW181659   2.949   4.159   3.496 -0.6701  1.7487  1.2261
57243SOL    HW281660   2.837   4.093   3.573  0.1989  0.7591  1.6617
57244SOL     OW81661   2.719   2.523   6.757  0.3065  0.0691 -0.0882
57244SOL    HW181662   2.721   2.483   6.669  0.8495 -0.8320  0.3174
57244SOL    HW281663   2.801   2.571   6.763  0.2673  0.1339 -0.0706
57245SOL     OW81664   2.773   7.218  11.699 -0.4560 -0.4316 -0.0192
57245SOL    HW181665   2.795   7.302  11.658 -0.2481  0.2285  1.3768
57245SOL    HW281666   2.682   7.202  11.674 -0.4984  0.2112 -0.2994
57246SOL     OW81667   7.169   6.816   3.343  0.0297 -0.0513  0.0919
57246SOL    HW181668   7.156   6.727   3.376 -0.5445  0.6449  1.8327
57246SOL    HW281669   7.200   6.866   3.418 -0.1182  1.3351 -0.7244
57247SOL     OW81670   4.659   2.184  11.592 -0.0602  0.4228  0.2715
57247SOL    HW181671   4.717   2.176  11.667  1.7765 -0.6162 -1.1700
57247SOL    HW281672   4.584   2.234  11.624  0.7430  0.1561  2.7092
57248SOL     OW81673   3.017   9.066   4.584 -0.6218 -0.3108 -0.0839
57248SOL    HW181674   3.063   9.130   4.638  0.8721 -1.1917 -0.2691
57248SOL    HW281675   2.980   9.004   4.647  2.5592 -2.3153  0.0198
57249SOL     OW81676   4.472  10.261  12.602 -0.1358 -0.1865 -0.9642
57249SOL    HW181677   4.417  10.263  12.680 -0.5405  0.6518 -1.2622
57249SOL    HW281678   4.552  10.215  12.630 -0.9193 -1.2973 -0.4986
57250SOL     OW81679   9.300   7.186   2.013  0.1922  0.4154  0.6274
57250SOL    HW181680   9.216   7.206   1.971 -0.4916 -0.5209  1.4846
57250SOL    HW281681   9.357   7.260   1.990 -0.0501 -0.1588 -2.1112
57251SOL     OW81682  10.624   7.483   5.534  0.1188  0.3957  0.4615
57251SOL    HW181683  10.686   7.512   5.601  1.0878 -0.0141 -0.2265
57251SOL    HW281684  10.558   7.432   5.582  0.6727  0.2972  1.1286
57252SOL     OW81685  12.072  12.260   2.967  0.3413  0.1755  0.3295
57252SOL    HW181686  12.094  12.341   2.922 -0.1886  0.3566  0.3926
57252SOL    HW281687  12.028  12.207   2.901 -0.0521  0.2705  0.5145
57253SOL     OW81688   4.541   5.087   5.795 -0.0225  0.3621  0.6145
57253SOL    HW181689   4.548   5.002   5.752 -0.5441  0.5956  0.0549
57253SOL    HW281690   4.587   5.075   5.878  2.0020  0.2305 -0.4518
57254SOL     OW81691   8.856   6.169   1.467  0.2567  0.4970  0.1092
57254SOL    HW181692   8.857   6.161   1.372 -1.4815  1.5999 -0.0296
57254SOL    HW281693   8.928   6.230   1.487 -0.9098  2.2170 -0.7378
57255SOL     OW81694   0.614   6.665   8.291 -0.4279  0.4120 -0.1121
57255SOL    HW181695   0.584   6.756   8.285  0.6451  0.8019  0.2898
57255SOL    HW281696   0.666   6.652   8.212  0.4352  0.5420  0.4231
57256SOL     OW81697   0.039   7.192   6.275 -0.2451  0.5209 -0.0285
57256SOL    HW181698  -0.036   7.209   6.219  1.5777 -1.5701 -3.4905
57256SOL    HW281699   0.036   7.097   6.292  0.4931  0.7448  1.5166
57257SOL     OW81700   5.548   2.733   7.660 -0.3716 -0.0119 -0.5239
57257SOL    HW181701   5.536   2.760   7.569 -0.6791 -0.5904 -0.6571
57257SOL    HW281702   5.537   2.638   7.659  1.7099 -0.3136 -0.2458
57258SOL     OW81703  11.779   1.459  10.734 -0.3049  0.0448 -0.0897
57258SOL    HW181704  11.843   1.501  10.792  0.9100 -0.0998 -1.2860
57258SOL    HW281705  11.695   1.494  10.764  0.0507 -1.2959  2.8574
57259SOL     OW81706   3.445  12.698   5.188 -0.3902  0.0880 -0.1668
57259SOL    HW181707   3.360  12.710   5.231 -0.0324  0.3422  0.4806
57259SOL    HW281708   3.466  12.784   5.152 -0.0731  0.2245  0.3177
57260SOL     OW81709   3.364   2.758   2.367  0.9976  0.3904 -0.0604
57260SOL    HW181710   3.359   2.747   2.462  0.8645 -0.9774 -0.1981
57260SOL    HW281711   3.288   2.813   2.346  0.2246 -0.4184  0.4953
57261SOL     OW81712   9.420   8.849   2.428  0.5099 -0.5070  0.2546
57261SOL    HW181713   9.337   8.853   2.380 -0.5527 -0.2664  2.0011
57261SOL    HW281714   9.424   8.760   2.463  0.6004 -0.2894  0.8096
57262SOL     OW81715   4.357  12.770   4.917 -0.1252  0.3322  0.2987
57262SOL    HW181716   4.274  12.752   4.872 -0.2511  0.3463  0.5227
57262SOL    HW281717   4.418  12.705   4.883 -0.5614 -0.5091  1.0660
57263SOL     OW81718   8.609   7.574   7.996  0.6388  0.1934 -0.1075
57263SOL    HW181719   8.567   7.548   7.914  0.8323 -0.1032 -0.1142
57263SOL    HW281720   8.539   7.617   8.046  0.6627  0.8831 -0.6569
57264SOL     OW81721   0.979   7.727   4.165 -0.0803 -0.2192  0.0133
57264SOL    HW181722   0.914   7.797   4.161  0.4221  0.2667  0.2523
57264SOL    HW281723   1.042   7.749   4.096 -0.0135 -0.5265 -0.0244
57265SOL     OW81724  12.760   4.720  10.769  0.1364  0.1684 -0.4532
57265SOL    HW181725  12.758   4.644  10.711  3.7171 -0.1978 -0.3201
57265SOL    HW281726  12.811   4.785  10.722 -0.2997  1.3746  0.6785
57266SOL     OW81727   2.984   0.147   6.484  0.4297 -0.3215  0.2017
57266SOL    HW181728   2.893   0.178   6.484  0.8818  1.1817  1.6591
57266SOL    HW281729   3.010   0.152   6.576  2.6398  1.4113 -0.4193
57267SOL     OW81730   2.349   0.211  12.044  0.0490 -0.7971 -0.6555
57267SOL    HW181731   2.341   0.303  12.071  0.0226 -0.5672 -1.4091
57267SOL    HW281732   2.278   0.199  11.981 -0.1725 -1.4447 -0.2888
57268SOL     OW81733   6.738   8.149  11.393 -0.3608 -0.1009  0.0630
57268SOL    HW181734   6.660   8.148  11.448 -1.2816 -0.0502 -1.2070
57268SOL    HW281735   6.761   8.056  11.382 -0.3934 -0.1276  0.2210
57269SOL     OW81736   6.925  13.098   4.510  0.1790  0.5524  0.2051
57269SOL    HW181737   6.902  13.116   4.419 -1.0932 -0.8137  0.2102
57269SOL    HW281738   6.963  13.010   4.508 -0.2310  0.3397  1.0142
57270SOL     OW81739   5.760   9.173   0.696  0.4091  0.0511  0.4661
57270SOL    HW181740   5.801   9.104   0.644 -1.2141 -0.1906 -0.5925
57270SOL    HW281741   5.687   9.129   0.740 -0.3181  0.9529  0.1991
57271SOL     OW81742   9.559  11.787   4.389  0.4668 -0.1093 -0.0580
57271SOL    HW181743   9.531  11.827   4.471  0.7910 -0.1043  0.0538
57271SOL    HW281744   9.510  11.833   4.321 -0.0286 -0.3190  0.1546
57272SOL     OW81745   1.493   2.510   1.544 -0.1819  0.5493 -0.2334
57272SOL    HW181746   1.460   2.521   1.455  0.3887  2.5074 -0.2630
57272SOL    HW281747   1.549   2.586   1.558  3.1244 -1.7758  0.3550
57273SOL     OW81748   8.059   2.290   3.139 -0.1978  0.4216  0.3290
57273SOL    HW181749   8.137   2.263   3.090 -1.3462  1.6943 -2.4159
57273SOL    HW281750   8.092   2.353   3.202  1.0757  0.6907 -0.5528
57274SOL     OW81751  11.705   4.172   4.238 -0.1412  0.1830 -0.1313
57274SOL    HW181752  11.684   4.106   4.172  0.2319 -0.2426  0.1735
57274SOL    HW281753  11.783   4.139   4.282  0.0814  0.8577 -0.0137
57275SOL     OW81754   6.969  10.360  10.389 -0.1392  0.0024 -0.3924
57275SOL    HW181755   6.966  10.432  10.452  1.0659  2.2592 -2.7218
57275SOL    HW281756   7.004  10.286  10.439 -0.3642  1.3299  1.8504
57276SOL     OW81757   9.829   7.363  11.253  0.1975  0.7162 -0.1936
57276SOL    HW181758   9.896   7.360  11.321 -0.4961  0.2575  0.4849
57276SOL    HW281759   9.877   7.354  11.171  0.8911 -0.4758  0.3210
57277SOL     OW81760   5.220  11.704  10.585 -0.3702 -0.6211 -0.2370
57277SOL    HW181761   5.231  11.691  10.679  0.6104  0.8868 -0.1116
57277SOL    HW281762   5.149  11.644  10.561 -0.4243 -1.2633  1.3916
57278SOL     OW81763  13.041   1.652   0.936 -0.5019 -0.8584  0.5999
57278SOL    HW181764  13.133   1.652   0.909 -0.7739 -1.4862 -0.3829
57278SOL    HW281765  13.039   1.601   1.017 -0.0715 -1.3942  0.2766
57279SOL     OW81766   8.270   7.256  10.498 -0.1070 -0.2020  0.1528
57279SOL    HW181767   8.252   7.317  10.425 -1.2450  0.8134  1.2217
57279SOL    HW281768   8.326   7.306  10.557  0.3420 -0.8148  0.2484
57280SOL     OW81769   0.522   1.806   2.366  0.3550 -0.8693  0.2560
57280SOL    HW181770   0.597   1.864   2.356 -2.0535  2.7435  1.2336
57280SOL    HW281771   0.538   1.759   2.448  1.0559  0.7454  1.0784
57281SOL     OW81772  10.987   2.562   0.085 -0.3538 -0.1389 -0.1194
57281SOL    HW181773  11.006   2.563   0.179 -0.4890  0.2258 -0.0932
57281SOL    HW281774  10.954   2.474   0.068  1.5863 -0.9017 -0.2204
57282SOL     OW81775  12.594   3.949   7.471  0.3426 -0.3078  0.1160
57282SOL    HW181776  12.597   4.034   7.514  0.2687  0.1199 -0.7178
57282SOL    HW281777  12.501   3.934   7.453  0.3259 -0.6875  0.4873
57283SOL     OW81778   3.332   7.569  11.066 -0.2909  0.6465  0.2230
57283SOL    HW181779   3.369   7.641  11.015 -1.4372  2.0736  1.3170
57283SOL    HW281780   3.247   7.551  11.024 -0.3202  0.3932  0.3863
57284SOL     OW81781   2.548   7.335   0.331  0.0547 -0.3196  0.1227
57284SOL    HW181782   2.519   7.288   0.253  1.7583 -2.4041  0.6482
57284SOL    HW281783   2.636   7.366   0.309  0.0214  0.2305  0.7505
57285SOL     OW81784   4.984   8.972   5.269 -0.1694  0.5017  0.0863
57285SOL    HW181785   4.956   8.925   5.348  0.8948  0.1804  0.2925
57285SOL    HW281786   4.956   9.062   5.283 -0.0773  0.4251  0.7944
57286SOL     OW81787  12.405   8.290   3.802 -0.1298  0.6995 -0.1034
57286SOL    HW181788  12.404   8.265   3.710  2.3695 -3.8514  0.8109
57286SOL    HW281789  12.325   8.251   3.838  0.3514 -0.1472  0.0917
57287SOL     OW81790   3.614   3.607   3.562 -0.2941 -0.5125 -0.6317
57287SOL    HW181791   3.519   3.597   3.566 -0.2269 -2.6357 -2.6016
57287SOL    HW281792   3.644   3.584   3.649 -1.5956  1.1203  0.3165
57288SOL     OW81793   2.058   1.105   2.790  0.2401  0.5155 -0.4356
57288SOL    HW181794   2.141   1.096   2.835 -0.0935 -1.3546 -0.1287
57288SOL    HW281795   2.067   1.186   2.739  2.0743  0.5678 -0.0901
57289SOL     OW81796  12.824   4.179   2.983  0.1269 -0.0014 -0.1160
57289SOL    HW181797  12.766   4.179   3.059 -0.7854  0.1154 -0.7918
57289SOL    HW281798  12.783   4.119   2.921  0.4408  0.4819 -0.8097
57290SOL     OW81799  12.321   2.952   8.764  0.0802 -0.1932 -0.1037
57290SOL    HW181800  12.327   2.903   8.846 -0.1918  0.0819  0.0841
57290SOL    HW281801  12.408   2.943   8.724  0.6747  0.8447  0.8966
57291SOL     OW81802   6.740   1.183   1.567 -0.2270 -0.2974 -0.3739
57291SOL    HW181803   6.775   1.189   1.478 -0.4916  1.4476 -0.3929
57291SOL    HW281804   6.815   1.156   1.620  1.1917  2.9694 -0.4848
57292SOL     OW81805  12.496   2.827   9.394 -0.2637  0.5298  0.0565
57292SOL    HW181806  12.438   2.807   9.321 -1.1996 -0.0745  0.9418
57292SOL    HW281807  12.559   2.755   9.396 -0.6280  0.2125  0.2278
57293SOL     OW81808  11.084   3.769   1.038 -0.5400  0.2597 -0.1384
57293SOL    HW181809  11.113   3.855   1.068  1.9466 -0.7841  0.7656
57293SOL    HW281810  11.074   3.718   1.119 -2.3172 -0.2486 -0.6374
57294SOL     OW81811   0.346   2.028   1.373 -0.1049 -0.4403  0.2427
57294SOL    HW181812   0.387   2.054   1.291 -1.0546  0.7657  0.1141
57294SOL    HW281813   0.256   2.007   1.349 -1.0899  2.1693  1.2237
57295SOL     OW81814   1.543   3.384   4.577 -0.2847  0.1677 -0.0156
57295SOL    HW181815   1.615   3.405   4.518  0.2071 -1.7870 -0.1818
57295SOL    HW281816   1.565   3.430   4.658  0.9875 -0.1183 -0.1746
57296SOL     OW81817   9.676   7.135  11.571 -0.2084 -0.7161  0.2575
57296SOL    HW181818   9.636   7.208  11.619  0.6942 -0.9420  1.3832
57296SOL    HW281819   9.745   7.177  11.519 -0.5562 -0.6019 -0.1197
57297SOL     OW81820   0.635   3.820   5.150  0.7574 -0.6129  0.0510
57297SOL    HW181821   0.695   3.767   5.098  2.1246  1.4147 -0.5386
57297SOL    HW281822   0.663   3.807   5.241  0.4317 -1.6561  0.0085
57298SOL     OW81823  10.997   1.595  13.037  0.7303  0.2603 -0.2719
57298SOL    HW181824  11.072   1.653  13.026 -0.2851  1.9793  1.3089
57298SOL    HW281825  10.923   1.642  12.999  0.3465 -1.3058 -1.6009
57299SOL     OW81826   6.975   9.170   5.530 -0.1291 -0.2174 -0.7749
57299SOL    HW181827   7.038   9.103   5.558 -0.6249 -0.2813  0.2065
57299SOL    HW281828   6.971   9.231   5.603  1.7035  1.9495 -2.3412
57300SOL     OW81829   4.529   4.405  11.870  0.2897 -0.9783  0.3596
57300SOL    HW181830   4.548   4.470  11.803  1.6215 -1.5082  0.1927
57300SOL    HW281831   4.475   4.340  11.825 -1.2972  0.1075  0.6052
57301SOL     OW81832   6.839  10.988   6.923  0.0121 -0.2770  0.1470
57301SOL    HW181833   6.786  10.910   6.940 -0.3550 -0.3219 -1.1179
57301SOL    HW281834   6.818  11.013   6.833 -1.8226  2.7883  1.2596
57302SOL     OW81835   5.011   0.065   4.445 -0.1314  0.0439  0.5376
57302SOL    HW181836   5.007   0.019   4.529 -1.2950 -0.4668  0.2127
57302SOL    HW281837   5.092   0.116   4.450 -0.5854  0.6545  2.2946
57303SOL     OW81838   9.774  10.419   5.705 -0.3919 -0.0044  0.3100
57303SOL    HW181839   9.813  10.493   5.751  1.6970  0.2400 -1.6650
57303SOL    HW281840   9.805  10.342   5.752  1.6981  0.2377 -0.5936
57304SOL     OW81841   6.208   3.598   5.922 -0.4059 -0.3024  0.3127
57304SOL    HW181842   6.230   3.669   5.982 -1.1771  0.3389 -0.1440
57304SOL    HW281843   6.154   3.538   5.974  0.9686 -1.0331  0.9544
57305SOL     OW81844   3.049   4.234   5.738  0.4427 -0.0426 -0.1076
57305SOL    HW181845   3.017   4.323   5.751  1.2123  0.2320  0.0022
57305SOL    HW281846   2.979   4.178   5.770  0.3629  0.5481  0.7863
57306SOL     OW81847   2.591   8.923   4.956  0.5595  0.0815 -0.2596
57306SOL    HW181848   2.625   8.833   4.954  1.1077  0.2971 -1.3490
57306SOL    HW281849   2.643   8.966   5.024  1.0178 -0.1575 -0.4506
57307SOL     OW81850   3.459   7.659   5.674  0.7824 -0.0794 -0.7354
57307SOL    HW181851   3.532   7.635   5.617  1.4959  0.2108  0.0386
57307SOL    HW281852   3.495   7.652   5.763 -0.3617 -0.6959 -0.3032
57308SOL     OW81853  13.201   8.618   7.322  0.0132  0.3383  0.1002
57308SOL    HW181854  13.223   8.627   7.229  0.0601 -0.5962  0.0109
57308SOL    HW281855  13.114   8.577   7.321  0.8938 -1.6723  0.4447
57309SOL     OW81856   0.582  12.817   1.036 -0.5438  0.3294 -0.2185
57309SOL    HW181857   0.610  12.727   1.019 -1.4139  0.1056 -0.5383
57309SOL    HW281858   0.618  12.838   1.122 -1.4667 -0.8235  0.4882
57310SOL     OW81859   9.126  12.830   1.953  0.2266 -0.3568 -0.7388
57310SOL    HW181860   9.150  12.801   1.865  1.4336  0.0018 -0.5458
57310SOL    HW281861   9.172  12.769   2.011 -0.7436 -0.7340 -0.3384
57311SOL     OW81862   3.029   9.187  11.132  0.4717  0.0457  0.8952
57311SOL    HW181863   3.062   9.225  11.213  2.3825  0.0026  0.1931
57311SOL    HW281864   3.029   9.260  11.070  0.5770 -0.2811  0.5099
57312SOL     OW81865   2.969   2.414   6.196  0.1370 -0.2427 -0.8382
57312SOL    HW181866   2.969   2.502   6.159  0.3669  0.0365 -0.1815
57312SOL    HW281867   2.892   2.372   6.158 -0.2362  0.3923 -0.7980
57313SOL     OW81868   8.498   7.037   0.694  0.1404  0.5387  0.0897
57313SOL    HW181869   8.578   6.994   0.723 -0.4805 -1.4269 -0.9333
57313SOL    HW281870   8.440   7.032   0.770  0.1084 -0.4238  0.0203
57314SOL     OW81871   0.301   8.295   0.446 -0.1598  0.2372  0.5629
57314SOL    HW181872   0.269   8.376   0.486  0.0227  0.3923  0.3994
57314SOL    HW281873   0.290   8.309   0.352 -2.0029 -0.7216  0.5918
57315SOL     OW81874   4.609  11.485  10.327 -0.7005  0.2315  0.1832
57315SOL    HW181875   4.652  11.465  10.244  0.1498 -1.1255  0.9113
57315SOL    HW281876   4.549  11.412  10.341 -2.2565  1.4006 -0.1209
57316SOL     OW81877   4.522   0.866  10.385  0.1041 -0.6092  0.0166
57316SOL    HW181878   4.470   0.946  10.374  1.7890  0.4867 -0.3724
57316SOL    HW281879   4.472   0.799  10.339 -0.2728  0.7139 -1.6145
57317SOL     OW81880  10.181  13.030   1.299 -0.3515  0.1887  0.0126
57317SOL    HW181881  10.208  13.034   1.391 -0.6938  1.6203  0.0694
57317SOL    HW281882  10.259  12.999   1.253 -0.0155 -0.0516  0.7169
57318SOL     OW81883   7.694   7.006  10.266 -0.4331 -0.2258 -0.6754
57318SOL    HW181884   7.712   6.980  10.357 -1.0566 -1.0994 -0.7910
57318SOL    HW281885   7.773   6.981  10.218 -0.4774 -0.6398 -0.5368
57319SOL     OW81886   7.803   3.809   2.888 -0.4299  0.5116  0.5008
57319SOL    HW181887   7.797   3.902   2.865 -1.7951  0.5576  0.9079
57319SOL    HW281888   7.804   3.808   2.983  0.3090  0.1349  0.4890
57320SOL     OW81889   5.104  12.235  11.586 -0.2215  0.1762 -0.5350
57320SOL    HW181890   5.151  12.317  11.582 -0.5299  0.4801  1.1194
57320SOL    HW281891   5.032  12.245  11.523  1.4946 -0.0768 -2.6499
57321SOL     OW81892   7.660   9.715  11.934  0.0657  0.0414  0.1523
57321SOL    HW181893   7.649   9.628  11.973  1.4841 -0.3877 -0.3402
57321SOL    HW281894   7.751   9.717  11.906  0.3974  2.0899  1.1396
57322SOL     OW81895   3.224   7.387   2.923  0.2292 -0.1876 -0.3851
57322SOL    HW181896   3.132   7.369   2.940  0.4228  0.0166  0.9956
57322SOL    HW281897   3.271   7.338   2.990  1.0134  1.1200  0.0677
57323SOL     OW81898  10.543   0.300  10.516  0.0306 -0.0256  0.5235
57323SOL    HW181899  10.615   0.349  10.555  1.6400 -0.5792 -1.5405
57323SOL    HW281900  10.530   0.341  10.430  0.3072 -2.0894 -0.5678
57324SOL     OW81901  11.396  10.542   8.727  0.3511  0.5010 -0.9044
57324SOL    HW181902  11.441  10.583   8.801  1.9154 -0.1183 -1.4796
57324SOL    HW281903  11.310  10.518   8.762 -0.0107  2.7334 -0.0898
57325SOL     OW81904  12.206  12.187  10.414 -0.0733  0.1346 -0.0634
57325SOL    HW181905  12.196  12.265  10.467 -0.8892 -0.2018  0.2879
57325SOL    HW281906  12.256  12.216  10.338 -1.3143  1.2491 -0.4904
57326SOL     OW81907  10.365   1.134  11.088 -0.0876  0.2858 -0.3501
57326SOL    HW181908  10.345   1.041  11.079 -2.1363  0.7429 -1.0760
57326SOL    HW281909  10.291   1.178  11.046 -1.5413  2.3172  3.8308
57327SOL     OW81910  10.604   6.492   6.590 -0.1878  0.7821 -0.1344
57327SOL    HW181911  10.683   6.530   6.628  0.3934  0.1097 -0.6502
57327SOL    HW281912  10.535   6.511   6.654  0.5353  0.7138  0.6783
57328SOL     OW81913   5.448   9.896  12.043  0.3865  0.5707 -0.1683
57328SOL    HW181914   5.499   9.976  12.058  1.5247 -0.3895  1.4744
57328SOL    HW281915   5.512   9.825  12.049 -0.9655 -0.6278  1.0919
57329SOL     OW81916   2.771   6.960   6.982 -0.2098 -0.1749  0.8081
57329SOL    HW181917   2.693   6.950   6.927  0.1297 -0.2076  0.3270
57329SOL    HW281918   2.787   7.055   6.982  1.1078 -0.3255 -1.0446
57330SOL     OW81919   5.574  11.097  11.309  0.2013  0.7430 -0.0089
57330SOL    HW181920   5.546  11.163  11.246  0.1356 -0.4347 -1.2528
57330SOL    HW281921   5.668  11.090  11.296  0.0020 -0.4582 -0.9605
57331SOL     OW81922  12.395   3.572   8.736 -0.0907  0.0284 -0.0214
57331SOL    HW181923  12.355   3.486   8.721 -0.9122  0.4613 -0.3512
57331SOL    HW281924  12.352   3.630   8.673  0.2708  0.7384  0.3779
57332SOL     OW81925   0.438   5.317   6.265 -0.3336 -0.2588 -0.4572
57332SOL    HW181926   0.525   5.344   6.234 -0.6650  1.4927  0.0108
57332SOL    HW281927   0.454   5.282   6.353  0.0898 -1.5297 -1.0157
57333SOL     OW81928   9.398  10.322   3.237 -0.1713 -0.0894  0.0575
57333SOL    HW181929   9.381  10.233   3.268  1.3386  0.0116  1.3109
57333SOL    HW281930   9.408  10.312   3.142 -2.2408 -0.8557 -0.1286
57334SOL     OW81931   4.225   2.862   1.589 -0.2816  0.3495 -0.1947
57334SOL    HW181932   4.285   2.795   1.622 -0.3037  0.5710  0.3013
57334SOL    HW281933   4.262   2.889   1.505 -2.2007 -2.9392 -2.3379
57335SOL     OW81934  12.610   1.440  11.155 -0.4968 -0.2520  0.3026
57335SOL    HW181935  12.549   1.384  11.106 -0.1923 -1.8070  1.6160
57335SOL    HW281936  12.584   1.529  11.133 -3.8521 -0.8096  1.4616
57336SOL     OW81937   6.265  13.010  10.756  0.1986  0.1034  1.1436
57336SOL    HW181938   6.310  12.986  10.675 -0.1165  3.4036 -0.1944
57336SOL    HW281939   6.256  12.928  10.804  0.2584 -2.0641 -2.2090
57337SOL     OW81940   0.036   7.417   9.687  0.0762 -0.2768 -0.3863
57337SOL    HW181941   0.017   7.507   9.659 -3.3165 -0.6251  0.3158
57337SOL    HW281942  -0.019   7.404   9.763  0.1571 -3.0936 -0.7238
57338SOL     OW81943   8.940  11.722   3.627  0.0313  0.0784 -0.5436
57338SOL    HW181944   9.016  11.753   3.578 -1.1413  0.6920 -2.0771
57338SOL    HW281945   8.909  11.799   3.675  0.9221 -0.4139  0.8525
57339SOL     OW81946   7.140   4.347   5.318  0.0802 -0.3390  0.2805
57339SOL    HW181947   7.092   4.276   5.361 -0.9464  0.1874  0.0238
57339SOL    HW281948   7.076   4.417   5.308  1.3672  1.1203  1.6398
57340SOL     OW81949  12.063  13.212   6.957 -0.3522  0.0510  0.5432
57340SOL    HW181950  12.119  13.201   7.034  0.0873 -1.9981  0.0153
57340SOL    HW281951  12.086  13.138   6.900 -2.0152  0.4147 -0.7019
57341SOL     OW81952   9.368   5.859   4.373 -0.0315 -0.3235 -0.3614
57341SOL    HW181953   9.397   5.821   4.455 -0.7776  1.3481  0.7243
57341SOL    HW281954   9.447   5.864   4.319  1.0506  1.0847  1.2897
57342SOL     OW81955  10.252   0.989  11.617  0.4337  0.2339 -0.5677
57342SOL    HW181956  10.240   1.031  11.702  0.2182  0.4191 -0.6891
57342SOL    HW281957  10.277   1.059  11.558  0.4985  0.1197 -0.6770
57343SOL     OW81958   0.884  12.827   3.473  0.6692  0.3609  0.3700
57343SOL    HW181959   0.970  12.803   3.440  3.0319  2.0050  4.4938
57343SOL    HW281960   0.855  12.898   3.416  1.7935 -0.5171 -1.3646
57344SOL     OW81961   4.442   6.125   9.893  0.8016 -0.3225  0.4476
57344SOL    HW181962   4.384   6.069   9.841 -0.1142  0.0855  0.9992
57344SOL    HW281963   4.510   6.153   9.832 -0.6117  0.7015 -0.7349
57345SOL     OW81964   6.109  10.189  11.271  0.3435  0.1195  0.2157
57345SOL    HW181965   6.160  10.210  11.193 -0.1446  1.3142  0.1896
57345SOL    HW281966   6.071  10.103  11.253 -0.3278  0.6792 -1.1750
57346SOL     OW81967  11.942   3.483   7.141  0.2456  0.1457 -0.4547
57346SOL    HW181968  11.916   3.562   7.188 -0.7412 -0.5249  0.1637
57346SOL    HW281969  12.016   3.448   7.192 -1.5995 -1.2552  1.4275
57347SOL     OW81970   7.846   9.476  12.737 -0.2693  0.5013  0.5723
57347SOL    HW181971   7.765   9.525  12.720 -0.1834  0.9273  1.3347
57347SOL    HW281972   7.915   9.526  12.695  0.1154  2.1990  3.0140
57348SOL     OW81973  10.279  11.948   6.633 -0.1991  0.4034 -0.3116
57348SOL    HW181974  10.357  11.898   6.611 -1.2679 -1.4720 -0.1160
57348SOL    HW281975  10.221  11.937   6.557 -0.2838  1.7768 -0.4647
57349SOL     OW81976  10.358  10.769   5.713 -0.6434  0.1933 -0.1896
57349SOL    HW181977  10.313  10.775   5.629 -0.5815  1.6352 -0.1403
57349SOL    HW281978  10.448  10.742   5.691 -1.6189 -3.6989 -0.2167
57350SOL     OW81979   9.554   7.590   7.842 -0.6101 -0.0717 -0.5377
57350SOL    HW181980   9.462   7.598   7.816 -1.1674 -0.7565  1.0843
57350SOL    HW281981   9.552   7.603   7.937  0.8358 -1.1490 -0.3416
57351SOL     OW81982  12.334  11.109   6.713 -0.4071  0.0125 -0.2497
57351SOL    HW181983  12.349  11.031   6.659 -0.2993  0.4229 -0.8194
57351SOL    HW281984  12.401  11.171   6.685 -1.2890  0.7857 -0.7157
57352SOL     OW81985   0.807   4.300   5.108  0.3737 -0.4655  0.7501
57352SOL    HW181986   0.729   4.349   5.081 -1.1018 -2.8023  0.4557
57352SOL    HW281987   0.859   4.292   5.028  0.7336  0.7307  0.8472
57353SOL     OW81988  11.555  11.814   6.342 -0.0197  0.6645  0.0501
57353SOL    HW181989  11.523  11.729   6.373  0.1203  0.4272 -0.4587
57353SOL    HW281990  11.551  11.870   6.420 -0.2085  0.2223  0.3648
57354SOL     OW81991  10.998   3.799   6.957 -0.7777 -0.5799 -0.0182
57354SOL    HW181992  10.963   3.791   6.868 -1.3540 -0.4123  0.1918
57354SOL    HW281993  11.087   3.832   6.945 -1.0732  0.0528 -0.5045
57355SOL     OW81994  11.619   9.876  10.006 -0.6426  0.4843  0.0368
57355SOL    HW181995  11.688   9.936   9.978 -1.2821  1.4240  0.3796
57355SOL    HW281996  11.610   9.813   9.935  0.6087  0.3057  0.0267
57356SOL     OW81997  10.313  11.336   6.481  0.0001  0.0813 -0.1424
57356SOL    HW181998  10.266  11.299   6.406 -0.6184  1.4115 -0.4603
57356SOL    HW281999  10.388  11.278   6.495 -0.2032 -0.5134 -1.4197
57357SOL     OW82000   3.614   7.027   5.895  0.4412 -0.5484  0.6487
57357SOL    HW182001   3.525   7.060   5.908  1.0460  1.4560  0.0936
57357SOL    HW282002   3.606   6.960   5.827 -0.4155  1.1012 -0.9715
57358SOL     OW82003   7.292   8.468  12.139 -0.2204 -0.2977  0.1385
57358SOL    HW182004   7.205   8.463  12.101  0.3606 -0.0648 -1.3026
57358SOL    HW282005   7.341   8.397  12.097  0.1223 -0.8474  1.4178
57359SOL     OW82006   7.603   1.858   1.997 -0.3323  0.3067  0.0140
57359SOL    HW182007   7.518   1.831   1.963 -0.5881  0.0304  0.8491
57359SOL    HW282008   7.582   1.926   2.062  0.2325  1.9007 -1.3881
57360SOL     OW82009   3.850   0.203   7.489 -0.4315  0.4122  0.0318
57360SOL    HW182010   3.834   0.155   7.570  0.3766  0.2812  0.1153
57360SOL    HW282011   3.885   0.287   7.517  1.1129 -0.1166 -0.1942
57361SOL     OW82012   8.813   6.131   2.895  0.0103  0.5138  0.2298
57361SOL    HW182013   8.720   6.137   2.871  0.0629  0.0194 -0.1039
57361SOL    HW282014   8.813   6.083   2.978 -0.0887  1.2452  0.6594
57362SOL     OW82015   5.508   3.533  12.710 -0.0308 -0.0536  0.3086
57362SOL    HW182016   5.566   3.590  12.660 -1.3106  1.6050  0.5938
57362SOL    HW282017   5.554   3.518  12.793  0.0239  1.2551  0.5406
57363SOL     OW82018   4.589   3.580   2.800  0.4197 -0.1147  0.0987
57363SOL    HW182019   4.555   3.617   2.882  2.3837  0.8149  0.5476
57363SOL    HW282020   4.588   3.485   2.815  0.7631  0.0455  1.1996
57364SOL     OW82021   2.998   8.626   7.056 -0.3525  0.7158  0.1058
57364SOL    HW182022   3.063   8.690   7.028 -0.4630 -0.1435 -2.3137
57364SOL    HW282023   2.915   8.659   7.022 -0.4530 -0.5222 -0.9294
57365SOL     OW82024   2.682   4.285  11.083 -0.0513 -0.3380  0.5857
57365SOL    HW182025   2.648   4.362  11.130 -0.9105 -1.3711  1.7238
57365SOL    HW282026   2.627   4.213  11.113  1.1051 -1.5092 -0.0223
57366SOL     OW82027   1.168   9.428  10.731  0.1299 -0.4244  0.2972
57366SOL    HW182028   1.087   9.453  10.687  0.3825 -1.0811 -0.5775
57366SOL    HW282029   1.170   9.332  10.725  1.0682 -0.4075  0.1136
57367SOL     OW82030   6.442  11.930   9.536  0.1985 -0.2862  0.0480
57367SOL    HW182031   6.355  11.957   9.508  0.7617  0.3534 -1.1341
57367SOL    HW282032   6.498  11.944   9.460  0.7275 -4.0640 -0.4360
57368SOL     OW82033   3.802   2.222   1.497 -0.4434 -0.0507  0.1350
57368SOL    HW182034   3.823   2.309   1.531  0.4632 -0.8526  1.7706
57368SOL    HW282035   3.770   2.238   1.409 -0.5828  1.9621  0.4950
57369SOL     OW82036   3.908   7.593   3.051 -0.0773 -0.0088  0.2277
57369SOL    HW182037   3.912   7.614   2.957  0.3223 -0.5603  0.1172
57369SOL    HW282038   3.961   7.514   3.060  1.7089  1.2514  1.2765
57370SOL     OW82039   6.732   0.430   8.567 -0.3864 -0.0505  0.1226
57370SOL    HW182040   6.791   0.452   8.639 -0.4970  0.9510 -0.0733
57370SOL    HW282041   6.674   0.362   8.602  0.0167 -0.0812  0.7412
57371SOL     OW82042   7.817   8.142   3.231 -0.0936  0.5629 -0.4109
57371SOL    HW182043   7.788   8.111   3.145  0.0968 -0.1041 -0.2394
57371SOL    HW282044   7.886   8.205   3.211 -0.9782  1.4345 -0.7876
57372SOL     OW82045  11.757   7.526   8.355  0.2373 -0.1367  0.0022
57372SOL    HW182046  11.679   7.544   8.408  0.2467  0.2864 -0.1254
57372SOL    HW282047  11.798   7.450   8.398  0.0365 -0.0382  0.3757
57373SOL     OW82048   8.742   4.508  11.188  0.0902  0.0650 -0.6283
57373SOL    HW182049   8.744   4.424  11.143  0.4344 -0.8447  1.0054
57373SOL    HW282050   8.661   4.549  11.159 -0.2509 -0.9879 -1.1961
57374SOL     OW82051   2.416   7.256   0.093  0.2974 -0.0807 -0.2410
57374SOL    HW182052   2.374   7.331   0.051  0.8503 -0.0511 -0.7468
57374SOL    HW282053   2.354   7.184   0.081 -0.2682  0.2962  0.3005
57375SOL     OW82054   3.264   2.311  11.209  0.4953 -0.1093  0.1137
57375SOL    HW182055   3.256   2.249  11.280  1.4381 -0.0903  0.2377
57375SOL    HW282056   3.183   2.363  11.213  0.2348 -0.5629  0.7214
57376SOL     OW82057  11.893   9.825   0.419  0.4437  0.3025  0.3832
57376SOL    HW182058  11.834   9.761   0.460  1.8436 -1.5246 -0.3283
57376SOL    HW282059  11.967   9.831   0.479  1.4938 -0.7296 -0.7561
57377SOL     OW82060   0.612   8.279   2.004 -0.0379 -0.0140  0.0725
57377SOL    HW182061   0.572   8.346   1.948  0.9251  0.4031 -0.1343
57377SOL    HW282062   0.580   8.300   2.092  0.2485  0.7236  0.0105
57378SOL     OW82063  10.817  11.506   7.275  0.3936  0.1138 -0.1942
57378SOL    HW182064  10.866  11.453   7.212 -0.0331 -2.1253  1.2282
57378SOL    HW282065  10.846  11.474   7.360 -0.0394  2.1168  0.7586
57379SOL     OW82066   9.675   9.278   1.592  0.1727 -0.8164 -0.3830
57379SOL    HW182067   9.584   9.256   1.577  0.0428 -0.6769  0.1685
57379SOL    HW282068   9.704   9.320   1.511 -0.1717 -1.1074 -0.6589
57380SOL     OW82069   3.419   8.432  11.073 -0.4659  0.0518  0.1707
57380SOL    HW182070   3.410   8.360  11.011  0.2198  1.1459 -1.2528
57380SOL    HW282071   3.510   8.460  11.064 -0.7028  1.0439  0.7500
57381SOL     OW82072   8.817   3.587  12.969  0.1263 -0.3446  0.6045
57381SOL    HW182073   8.754   3.653  12.938  2.1909  1.6070  0.2707
57381SOL    HW282074   8.779   3.554  13.050 -1.8569 -0.1020 -0.1592
57382SOL     OW82075  11.129  12.877   7.615  0.2926  0.4513 -0.5276
57382SOL    HW182076  11.188  12.828   7.672  0.0609  0.9634  0.1778
57382SOL    HW282077  11.181  12.898   7.538  0.9566  0.6688 -0.0301
57383SOL     OW82078   6.411   5.700   1.994 -0.3999 -0.0364 -0.1988
57383SOL    HW182079   6.411   5.702   1.899 -0.3268 -0.6711 -0.2189
57383SOL    HW282080   6.449   5.615   2.017  0.0734  0.3277  0.4054
57384SOL     OW82081   6.372  10.479   7.764  0.3432  0.0405 -0.1132
57384SOL    HW182082   6.282  10.483   7.796 -0.2523 -0.6955 -1.5720
57384SOL    HW282083   6.371  10.528   7.682  1.3293  0.1743 -0.0650
57385SOL     OW82084   2.908   1.866  12.607  0.4824 -0.1733  0.0753
57385SOL    HW182085   2.990   1.877  12.655  0.2417  2.0956  0.0948
57385SOL    HW282086   2.927   1.900  12.519 -0.3907  0.2850  0.0556
57386SOL     OW82087   8.791  12.144  12.982  0.2350 -0.9573  1.0151
57386SOL    HW182088   8.790  12.232  12.946 -2.9646 -0.3870  2.2306
57386SOL    HW282089   8.846  12.151  13.060  0.4110 -0.1691  0.8285
57387SOL     OW82090  12.819   1.496   8.733 -0.5602  0.5641 -0.0545
57387SOL    HW182091  12.780   1.567   8.783 -0.2492  0.1397  0.8155
57387SOL    HW282092  12.873   1.539   8.667 -0.4274  1.1294  0.4203
57388SOL     OW82093  12.149   3.273  12.639 -0.4387 -0.4580  0.0570
57388SOL    HW182094  12.076   3.280  12.700  1.1636 -0.9213  2.1522
57388SOL    HW282095  12.220   3.321  12.681  0.8240 -1.0416 -1.3089
57389SOL     OW82096   2.984  12.316   4.420 -0.3852 -0.4877  0.0208
57389SOL    HW182097   2.889  12.305   4.423 -0.1774 -2.5246  0.8150
57389SOL    HW282098   3.004  12.322   4.327 -1.2656 -0.3195 -0.1692
57390SOL     OW82099   3.485  10.193  12.230 -0.0227  0.2384 -0.1986
57390SOL    HW182100   3.440  10.278  12.227  1.5316  1.0867 -0.3936
57390SOL    HW282101   3.578  10.215  12.233  0.4189 -1.4745 -0.2620
57391SOL     OW82102   5.053   0.760  11.341  0.1353 -0.7942  0.1021
57391SOL    HW182103   5.078   0.670  11.361 -1.0477 -1.2172 -0.2582
57391SOL    HW282104   4.958   0.757  11.330  0.1575  0.3698 -0.5839
57392SOL     OW82105   7.499   1.278  12.774 -0.3026  0.3816  0.4342
57392SOL    HW182106   7.466   1.362  12.806 -0.2718  0.7868 -0.5657
57392SOL    HW282107   7.454   1.265  12.690  0.2925 -0.2110  0.1978
57393SOL     OW82108   8.744  11.408   2.026 -0.8575 -0.3993 -0.1676
57393SOL    HW182109   8.688  11.370   2.094 -0.8093  1.0884  0.7550
57393SOL    HW282110   8.808  11.460   2.075 -0.9354  0.8622 -1.3570
57394SOL     OW82111   9.651   6.289   3.896  0.2593  0.9830 -0.6430
57394SOL    HW182112   9.569   6.257   3.934  1.0760 -0.0580  0.3247
57394SOL    HW282113   9.664   6.235   3.819  1.8501 -1.5319  1.2168
57395SOL     OW82114   4.899   1.933   0.524  0.2118  0.7016  0.2189
57395SOL    HW182115   4.805   1.924   0.536  0.2284 -0.0609 -0.2010
57395SOL    HW282116   4.924   1.860   0.468  1.1545  0.5117  0.8557
57396SOL     OW82117   8.226   8.247   9.712  0.5258  0.0958  0.1105
57396SOL    HW182118   8.310   8.291   9.699  1.1523 -1.2457 -0.5603
57396SOL    HW282119   8.165   8.291   9.653  0.6351  1.3343  0.8898
57397SOL     OW82120  11.831   2.543   5.828  0.0329 -0.1438 -0.2023
57397SOL    HW182121  11.802   2.576   5.743 -4.2649  0.8315  1.3705
57397SOL    HW282122  11.875   2.617   5.869  1.3880 -0.3645 -1.2099
57398SOL     OW82123  12.258   5.859   6.601  0.0640  0.1052 -0.2982
57398SOL    HW182124  12.248   5.912   6.680  1.3556 -0.1178  0.0353
57398SOL    HW282125  12.346   5.880   6.569 -0.0572 -0.5680 -1.1210
57399SOL     OW82126  10.068   8.017   7.282  0.3005 -0.6524  0.3437
57399SOL    HW182127   9.975   8.003   7.268 -0.3908  1.3242  2.3937
57399SOL    HW282128  10.086   8.101   7.240  1.9010 -2.3027 -2.5500
57400SOL     OW82129   4.402  12.513  10.147 -0.1482 -0.0069 -0.3704
57400SOL    HW182130   4.475  12.457  10.174 -0.2921 -0.7972 -1.5199
57400SOL    HW282131   4.332  12.494  10.210 -0.8704 -2.6592 -1.8347
57401SOL     OW82132   4.834   2.103   7.818  0.1866 -0.5252  0.1301
57401SOL    HW182133   4.868   2.136   7.735 -1.3996 -0.7708 -0.6589
57401SOL    HW282134   4.911   2.076   7.867  1.2332  0.6201 -0.8251
57402SOL     OW82135   1.350   3.172   3.289 -1.0069 -0.2069 -0.0942
57402SOL    HW182136   1.424   3.223   3.322 -0.8834 -0.0976 -0.5379
57402SOL    HW282137   1.390   3.099   3.242 -1.1412  0.9229 -2.0560
57403SOL     OW82138  10.111   9.959   5.267  0.0215 -0.1705  0.0960
57403SOL    HW182139  10.138   9.867   5.261 -0.9210 -0.4180 -0.6061
57403SOL    HW282140  10.113   9.990   5.176  0.5018  0.5647  0.3440
57404SOL     OW82141  12.672   4.879   0.060  0.0648  0.0948  0.4198
57404SOL    HW182142  12.617   4.831  -0.002 -1.3845  0.2288  1.5615
57404SOL    HW282143  12.651   4.971   0.044  2.9617  0.5074 -1.8816
57405SOL     OW82144   1.905   5.055   7.662  0.1059  0.1815 -0.1509
57405SOL    HW182145   1.843   5.127   7.645  0.6302  0.6159 -0.2589
57405SOL    HW282146   1.921   5.016   7.576  1.0408  0.9587 -0.3501
57406SOL     OW82147   1.069   8.579   5.493 -0.4457  0.1634 -0.0104
57406SOL    HW182148   1.038   8.510   5.551  0.5027  1.1582  1.7736
57406SOL    HW282149   1.090   8.652   5.552 -0.0076  1.4533 -1.6785
57407SOL     OW82150  13.265  11.864   7.330 -0.4218 -0.2064 -0.0254
57407SOL    HW182151  13.354  11.883   7.359 -0.4639  0.7602 -0.4823
57407SOL    HW282152  13.269  11.874   7.234 -1.0083 -0.1686 -0.0503
57408SOL     OW82153   8.061   8.305   1.191 -0.4646 -0.3274 -0.0802
57408SOL    HW182154   8.124   8.369   1.157 -1.8886  1.0329 -0.3025
57408SOL    HW282155   8.040   8.336   1.279 -2.1291  0.3049 -0.6564
57409SOL     OW82156   9.023   1.958   4.599 -0.2369  0.0935  0.6471
57409SOL    HW182157   8.987   1.881   4.556  1.2150 -0.9203  1.1676
57409SOL    HW282158   9.105   1.928   4.638 -0.1615  1.6448  1.7838
57410SOL     OW82159   4.797   2.328  10.116 -0.1533  0.2159  0.0376
57410SOL    HW182160   4.809   2.399  10.179  3.8415  0.5492 -0.8337
57410SOL    HW282161   4.746   2.367  10.045  0.2994  1.6214  0.4508
57411SOL     OW82162   8.208   8.753   3.578 -0.5205  0.7432  0.2031
57411SOL    HW182163   8.291   8.787   3.610 -0.1487 -0.6830  0.8253
57411SOL    HW282164   8.142   8.812   3.615  0.0388  0.3050  1.9849
57412SOL     OW82165   6.301  12.142   1.716 -0.3023  0.1210  0.5894
57412SOL    HW182166   6.249  12.062   1.722 -0.4474  0.1808  0.1582
57412SOL    HW282167   6.387  12.117   1.751 -0.4039 -0.1740  0.6341
57413SOL     OW82168   5.451   6.131   9.333 -0.0464  0.0180  0.0920
57413SOL    HW182169   5.474   6.208   9.283  0.4189 -0.3216 -0.2246
57413SOL    HW282170   5.479   6.150   9.422 -0.9148  0.6383  0.2488
57414SOL     OW82171  10.410   1.471  11.000  0.3545  0.1451 -0.2176
57414SOL    HW182172  10.441   1.415  10.929  0.0377 -3.5685  2.2990
57414SOL    HW282173  10.323   1.437  11.022 -0.2266  2.2122  0.9396
57415SOL     OW82174  11.338  11.563   3.627 -0.2597  0.0593  0.5874
57415SOL    HW182175  11.422  11.596   3.596  0.0015  0.0446  1.2782
57415SOL    HW282176  11.307  11.506   3.556  0.5564 -0.3576  0.5550
57416SOL     OW82177   2.758  12.174   1.933 -0.5283 -0.8271 -0.3853
57416SOL    HW182178   2.668  12.166   1.903 -1.0608  0.0024  0.9267
57416SOL    HW282179   2.758  12.133   2.019  0.2687 -0.4921 -0.2188
57417SOL     OW82180   2.996   1.712  13.112  0.2276  0.5055 -0.1273
57417SOL    HW182181   2.996   1.695  13.206 -0.0806  3.6426  0.5702
57417SOL    HW282182   2.920   1.663  13.079  0.1751 -0.4237  1.2951
57418SOL     OW82183   4.289   8.157   2.786  0.1528 -0.0888 -0.1933
57418SOL    HW182184   4.310   8.065   2.803 -1.9600 -1.2057 -2.8270
57418SOL    HW282185   4.343   8.181   2.711 -0.7996  0.1052 -0.8411
57419SOL     OW82186  10.753  12.396   0.197  0.1712  0.3067 -1.1866
57419SOL    HW182187  10.775  12.432   0.111 -0.5708  0.2725 -1.3959
57419SOL    HW282188  10.686  12.330   0.179  0.4971 -0.1833 -0.6522
57420SOL     OW82189   1.848   1.318  10.371  0.4760  0.5446  0.0031
57420SOL    HW182190   1.759   1.300  10.401  0.5149 -2.1214 -1.2237
57420SOL    HW282191   1.903   1.262  10.425  1.1103  0.0397 -1.1461
57421SOL     OW82192   2.411  10.378   2.574 -0.1000  0.3078  0.0054
57421SOL    HW182193   2.334  10.328   2.545 -1.4601  1.4938  1.3721
57421SOL    HW282194   2.430  10.436   2.501  1.1362 -1.6709 -1.3664
57422SOL     OW82195   6.836   3.603   0.735 -0.1410 -0.1492  0.1088
57422SOL    HW182196   6.912   3.600   0.792 -1.5565 -0.9522  2.0454
57422SOL    HW282197   6.775   3.662   0.779 -1.1534 -0.5325 -0.7386
57423SOL     OW82198   9.386   7.878   1.364  0.1507 -0.1300  0.0825
57423SOL    HW182199   9.383   7.796   1.315 -1.1556  0.1566 -0.3603
57423SOL    HW282200   9.315   7.871   1.428 -0.2030  0.7674 -0.1866
57424SOL     OW82201  10.108  12.779   9.121  0.0190  0.0186 -0.6843
57424SOL    HW182202  10.122  12.865   9.160  1.6873 -0.5348  0.0159
57424SOL    HW282203  10.040  12.738   9.175  1.2945 -0.1914  0.8374
57425SOL     OW82204   3.428   9.011  10.236 -0.3778 -0.3987  0.1990
57425SOL    HW182205   3.430   9.019  10.332  0.2024  1.6394  0.0619
57425SOL    HW282206   3.361   8.944  10.219 -2.3167  0.9454  1.9723
57426SOL     OW82207   6.010   2.703  12.538  0.5546 -1.0445  0.2967
57426SOL    HW182208   6.095   2.663  12.518  0.3537 -0.9023 -0.9073
57426SOL    HW282209   5.948   2.656  12.483  0.2767  0.7081 -0.9615
57427SOL     OW82210  10.831  11.811   7.896 -0.1654 -0.2889 -0.0809
57427SOL    HW182211  10.847  11.903   7.918 -0.4707 -0.0688 -0.7393
57427SOL    HW282212  10.772  11.815   7.820 -1.8449 -1.0401  1.1334
57428SOL     OW82213   9.137   9.976   9.958  0.3533 -0.2966 -0.2937
57428SOL    HW182214   9.162  10.057  10.002 -2.2547  0.6024 -0.3269
57428SOL    HW282215   9.194   9.972   9.881 -0.2807  2.1577 -0.9566
57429SOL     OW82216   4.704   6.034   0.615 -0.2485  0.1230  0.3593
57429SOL    HW182217   4.682   5.942   0.629 -1.1932  0.4337  1.0191
57429SOL    HW282218   4.635   6.082   0.660 -0.9818  1.1831 -1.7911
57430SOL     OW82219   3.905  10.227   1.515  0.2340  0.2706  0.0928
57430SOL    HW182220   3.844  10.180   1.458 -0.0383  0.2565  0.3923
57430SOL    HW282221   3.861  10.310   1.534  0.9749  0.9136 -0.9260
57431SOL     OW82222   6.705   1.563  10.368 -0.0823  0.4249  0.4342
57431SOL    HW182223   6.791   1.541  10.334 -0.4268 -0.2573 -0.0201
57431SOL    HW282224   6.719   1.642  10.421  0.6605  0.8354 -0.3507
57432SOL     OW82225   9.479   9.736   6.691 -0.4112 -0.1643  0.5521
57432SOL    HW182226   9.418   9.718   6.619  0.1376 -0.4156  0.1421
57432SOL    HW282227   9.448   9.681   6.763 -1.1879  0.3690  0.6413
57433SOL     OW82228  10.978   6.281   5.609 -0.4677 -0.0765  0.4159
57433SOL    HW182229  11.006   6.337   5.682 -0.9310  0.8557 -0.1107
57433SOL    HW282230  10.987   6.335   5.532  0.5891 -1.2520 -0.3261
57434SOL     OW82231   2.784   6.037   8.699  0.4135 -0.0980 -0.5179
57434SOL    HW182232   2.831   5.964   8.660 -0.8967  0.0663 -2.5100
57434SOL    HW282233   2.740   5.999   8.776  1.6799 -0.8136 -0.1259
57435SOL     OW82234   9.137   4.843   0.362 -0.4100  0.4979  0.1525
57435SOL    HW182235   9.137   4.933   0.395 -0.7207  0.1808  1.0292
57435SOL    HW282236   9.179   4.792   0.430 -0.8684 -0.1334 -0.0313
57436SOL     OW82237   4.149  10.083   0.766  0.6797 -0.3996 -0.2120
57436SOL    HW182238   4.143  10.163   0.820 -1.0015 -0.1136 -0.7851
57436SOL    HW282239   4.206  10.108   0.693 -1.3132  0.9233 -1.3968
57437SOL     OW82240   5.560   7.833   3.600  0.2717 -0.1591  0.1192
57437SOL    HW182241   5.522   7.920   3.589  1.0875  0.2272  0.2564
57437SOL    HW282242   5.643   7.849   3.644  0.1934 -1.0625  0.6104
57438SOL     OW82243   5.546   5.101  11.157  0.4454 -0.3845 -0.3828
57438SOL    HW182244   5.555   5.069  11.247 -1.1367  0.6434  0.1973
57438SOL    HW282245   5.533   5.195  11.167  0.0034 -0.2918 -1.6822
57439SOL     OW82246  11.461   9.507   5.259  0.4271 -0.3519 -0.3977
57439SOL    HW182247  11.449   9.602   5.254  0.4993 -0.4080 -2.8201
57439SOL    HW282248  11.505   9.493   5.342  1.3921  1.8606 -0.4547
57440SOL     OW82249   6.269   9.120  11.315  0.3486 -0.0350 -0.4072
57440SOL    HW182250   6.222   9.203  11.303  0.7486  0.2110 -0.3007
57440SOL    HW282251   6.358   9.139  11.285  0.7082 -0.1343  0.5737
57441SOL     OW82252   0.832  12.406   6.089  0.0357  0.3613  0.0037
57441SOL    HW182253   0.879  12.345   6.032  0.7477 -0.0936  1.0524
57441SOL    HW282254   0.840  12.491   6.046  0.1800 -0.0506 -0.7947
57442SOL     OW82255   0.954   9.752   3.541 -0.4634  0.2722 -0.4784
57442SOL    HW182256   1.024   9.727   3.481 -0.9957 -0.4193 -0.8220
57442SOL    HW282257   0.998   9.803   3.609  0.2899  0.2896 -0.9668
57443SOL     OW82258   4.128  10.976  13.069 -0.0481  0.6385  0.3772
57443SOL    HW182259   4.166  11.064  13.068 -0.9606  1.0358 -0.5237
57443SOL    HW282260   4.042  10.987  13.109 -1.2526  0.6575 -2.0401
57444SOL     OW82261   4.067   9.825  13.009  0.0062  0.1144 -0.4849
57444SOL    HW182262   4.094   9.738  12.980  0.7600 -0.7617  2.4303
57444SOL    HW282263   4.129   9.885  12.968  0.8149 -0.9749 -0.9105
57445SOL     OW82264  11.872   5.471   0.772  0.0101 -0.2479 -0.1101
57445SOL    HW182265  11.824   5.540   0.726  1.2393  0.8712  0.2145
57445SOL    HW282266  11.906   5.414   0.703 -0.7654 -0.3723 -0.3964
57446SOL     OW82267   4.180   7.586   5.445  0.2990  0.4647  0.1469
57446SOL    HW182268   4.202   7.498   5.477 -0.6760  0.2190  0.1903
57446SOL    HW282269   4.248   7.642   5.480  0.2321 -0.0820  1.1982
57447SOL     OW82270  12.125   9.741   5.706  0.0083 -0.1774 -0.5571
57447SOL    HW182271  12.191   9.673   5.722  0.9320  0.9771  0.8341
57447SOL    HW282272  12.051   9.715   5.761 -0.6934 -1.3767 -1.9800
57448SOL     OW82273   9.116   0.071   2.570 -0.0519 -0.0368 -0.1677
57448SOL    HW182274   9.203   0.110   2.582  0.6515 -1.3291 -0.8100
57448SOL    HW282275   9.083   0.059   2.659  0.3671  0.5914  0.0814
57449SOL     OW82276   3.193   3.372   5.327 -0.6288 -0.4966 -0.7484
57449SOL    HW182277   3.162   3.427   5.399  1.7177  1.2162 -0.9226
57449SOL    HW282278   3.165   3.283   5.351 -1.0719  0.1971  1.5825
57450SOL     OW82279  11.809   3.888  12.526 -0.5637  0.3525 -0.3894
57450SOL    HW182280  11.835   3.906  12.436 -3.1426 -0.9453 -1.4874
57450SOL    HW282281  11.878   3.831  12.560  0.5401  1.0209 -1.4281
57451SOL     OW82282  13.013  10.038  12.563  0.1242 -0.1324 -0.0192
57451SOL    HW182283  13.086   9.977  12.554 -0.7328 -1.2832  0.7276
57451SOL    HW282284  13.055  10.122  12.583  1.3536 -0.2829 -1.7129
57452SOL     OW82285  10.232   5.720   3.230 -0.6063  0.1395 -0.0421
57452SOL    HW182286  10.311   5.691   3.184 -0.0012  0.6768  0.6252
57452SOL    HW282287  10.191   5.782   3.170 -0.1833  0.3336 -0.1378
57453SOL     OW82288  11.418   2.106   0.708 -0.1870 -0.6637  0.1436
57453SOL    HW182289  11.501   2.082   0.748 -0.2415  1.8512  1.9910
57453SOL    HW282290  11.352   2.083   0.774 -0.5330  1.0255  0.4391
57454SOL     OW82291   6.994   9.853   6.372 -0.2120 -0.6677  0.2848
57454SOL    HW182292   7.012   9.907   6.295 -3.0949  1.2169  0.7826
57454SOL    HW282293   7.054   9.885   6.439  0.4878 -0.5194 -0.3978
57455SOL     OW82294  10.968  10.125  12.118  0.2809 -0.2892  0.3476
57455SOL    HW182295  11.038  10.061  12.108 -1.3533 -2.0757 -0.3971
57455SOL    HW282296  10.910  10.086  12.185 -0.2653  0.8916  0.5924
57456SOL     OW82297   0.961  12.663   4.012  0.6207 -0.7069  0.6952
57456SOL    HW182298   1.023  12.698   3.949  0.0560  1.2063  1.1258
57456SOL    HW282299   0.920  12.589   3.967  0.6981  0.1932 -0.9387
57457SOL     OW82300   9.961  10.681   3.275  0.0611  0.5369  0.3553
57457SOL    HW182301   9.934  10.701   3.365 -0.8975 -1.5486  0.5849
57457SOL    HW282302   9.917  10.747   3.222 -0.9391  0.6106  1.2483
57458SOL     OW82303   5.186  11.098   8.947  0.1932  0.1463 -0.6457
57458SOL    HW182304   5.107  11.079   8.999 -0.1503  1.9560 -0.4108
57458SOL    HW282305   5.157  11.165   8.884  1.2526 -0.0759 -1.3868
57459SOL     OW82306   3.269   2.419   7.057 -0.0233 -0.3324  0.0666
57459SOL    HW182307   3.222   2.502   7.066 -0.1257 -0.4593  0.7634
57459SOL    HW282308   3.216   2.368   6.995 -1.6939 -1.0742  1.9843
57460SOL     OW82309   5.307   3.731  12.876 -0.1377  0.5707 -0.3961
57460SOL    HW182310   5.377   3.666  12.892  0.2921  0.7106 -1.6385
57460SOL    HW282311   5.234   3.679  12.842  0.2822  0.7419 -1.6020
57461SOL     OW82312  11.153   6.978   7.224  0.4834 -0.7030  0.1139
57461SOL    HW182313  11.200   6.927   7.290  0.4362  1.6209  2.1074
57461SOL    HW282314  11.220   7.037   7.187  0.2461 -1.1510 -1.0724
57462SOL     OW82315   2.339  11.591   2.523 -0.0810 -0.9485 -0.0334
57462SOL    HW182316   2.374  11.680   2.515  0.6126 -1.0800  1.1778
57462SOL    HW282317   2.369  11.546   2.444  2.1701 -0.9198  0.7200
57463SOL     OW82318  12.424   0.883   6.109  0.3199  0.0816  0.0880
57463SOL    HW182319  12.379   0.936   6.174  0.5180 -0.7381  0.9144
57463SOL    HW282320  12.356   0.858   6.046  0.1755  1.0776 -0.1571
57464SOL     OW82321   0.890   5.472  12.127 -0.3809 -0.2818  0.4960
57464SOL    HW182322   0.928   5.542  12.180 -0.8560 -0.0558  0.5420
57464SOL    HW282323   0.881   5.510  12.040 -2.4359  0.4007  0.9393
57465SOL     OW82324  10.260   7.508   9.256  0.3205  0.4732  0.1212
57465SOL    HW182325  10.331   7.445   9.267 -0.4101 -0.2736  0.5763
57465SOL    HW282326  10.211   7.476   9.180  0.1356  0.6757  0.1535
57466SOL     OW82327  12.981   2.955  10.670  0.3228 -0.2899 -0.1747
57466SOL    HW182328  13.000   2.888  10.735  2.2540 -1.1747 -1.5596
57466SOL    HW282329  13.050   3.021  10.682  0.2396 -0.0778 -0.8046
57467SOL     OW82330   8.816  11.355   7.665 -0.1665  0.3962  0.0687
57467SOL    HW182331   8.813  11.451   7.666  0.5010  0.4251 -0.4543
57467SOL    HW282332   8.787  11.331   7.578  1.7052  0.2177 -0.5449
57468SOL     OW82333  12.176  12.845   1.557 -0.0098 -0.1742  0.7617
57468SOL    HW182334  12.091  12.888   1.559 -1.5889 -2.8879 -1.6625
57468SOL    HW282335  12.238  12.915   1.536 -1.7287  1.7017  1.6939
57469SOL     OW82336  11.352   9.111   3.256  0.0540  0.1168  0.1631
57469SOL    HW182337  11.260   9.139   3.258  0.3582  1.2877 -0.9828
57469SOL    HW282338  11.363   9.071   3.169 -0.5258 -4.4017  1.8818
57470SOL     OW82339   6.974   1.860   4.571 -0.0812 -0.3457 -0.4668
57470SOL    HW182340   6.880   1.858   4.557 -0.0254  0.6330 -1.0682
57470SOL    HW282341   7.008   1.916   4.501  0.9564 -0.7756 -0.3287
57471SOL     OW82342   3.773  12.794   5.741 -0.2422 -0.0747  1.1561
57471SOL    HW182343   3.745  12.885   5.739  2.2447  0.7705  0.9633
57471SOL    HW282344   3.698  12.746   5.776 -1.2826  2.1649  2.1884
57472SOL     OW82345   9.306   9.326   2.370  0.2335 -0.0356  0.1538
57472SOL    HW182346   9.280   9.353   2.282 -0.3410 -2.5179 -0.5198
57472SOL    HW282347   9.400   9.308   2.362  0.2856  0.2187  0.1863
57473SOL     OW82348   5.267  11.637   4.022  0.2199 -0.4940  0.6022
57473SOL    HW182349   5.222  11.560   4.056  1.4452 -1.0699  0.9702
57473SOL    HW282350   5.265  11.700   4.094 -0.3021 -0.3791  0.4899
57474SOL     OW82351  11.836   3.209   9.068  0.5202  0.1705 -0.2840
57474SOL    HW182352  11.826   3.234   9.160  1.5799 -0.7586  0.1021
57474SOL    HW282353  11.746   3.197   9.037  0.1779 -1.1539  1.1053
57475SOL     OW82354   9.099  12.283   2.895 -0.2072  0.4949  0.4765
57475SOL    HW182355   9.007  12.306   2.904 -0.1522  0.5968  0.8316
57475SOL    HW282356   9.113  12.273   2.801 -0.3049  1.6329  0.3242
57476SOL     OW82357  12.524   2.968  12.790 -0.1021 -0.0343 -0.5836
57476SOL    HW182358  12.536   2.875  12.812 -1.8314  0.2272  1.8763
57476SOL    HW282359  12.445   2.969  12.736  0.5521 -0.0576 -1.5701
57477SOL     OW82360   5.014   3.790   3.190  0.1648  0.4929 -0.3469
57477SOL    HW182361   5.081   3.829   3.247  1.8622 -0.6258 -1.4792
57477SOL    HW282362   5.063   3.731   3.133 -1.8485 -0.5139 -1.1140
57478SOL     OW82363  10.737   6.235  12.035 -0.2660  0.0503  0.3526
57478SOL    HW182364  10.800   6.199  11.973 -1.4454 -1.8417  0.1744
57478SOL    HW282365  10.746   6.180  12.113 -1.0689  0.3298  0.6578
57479SOL     OW82366   0.874   1.315  10.597 -0.2803 -0.7081 -0.4364
57479SOL    HW182367   0.794   1.266  10.615 -0.0125 -1.7836 -2.0584
57479SOL    HW282368   0.850   1.407  10.614 -1.3671 -1.1630  0.6286
57480SOL     OW82369  12.705   3.728  10.126 -0.0067  0.1854 -0.3959
57480SOL    HW182370  12.681   3.637  10.141 -1.9257  0.9796  2.1491
57480SOL    HW282371  12.801   3.729  10.128  0.0310 -1.6198  0.8260
57481SOL     OW82372  11.001   9.474   1.547 -0.4541  0.8392 -0.0402
57481SOL    HW182373  10.964   9.555   1.511 -0.2981  0.7717 -0.3454
57481SOL    HW282374  11.067   9.446   1.484  0.2122  1.0187  0.5577
57482SOL     OW82375   9.389   6.843   9.720 -0.0812  0.0985  0.0844
57482SOL    HW182376   9.319   6.793   9.678 -0.1168  0.0663  0.1808
57482SOL    HW282377   9.344   6.907   9.775 -0.0352 -0.1860  0.4599
57483SOL     OW82378   5.234   0.891   2.449 -0.5303  0.6642  0.0712
57483SOL    HW182379   5.196   0.803   2.446 -1.9949  1.3007 -1.4736
57483SOL    HW282380   5.218   0.920   2.539 -1.1497 -0.1651  0.2480
57484SOL     OW82381   1.629   6.005  10.040 -0.1393  0.1302  0.3355
57484SOL    HW182382   1.684   6.077  10.008  1.5470 -0.8383  0.9115
57484SOL    HW282383   1.572   6.046  10.106 -0.5951  1.2836 -0.7437
57485SOL     OW82384   4.613   3.528   0.259 -0.3354  0.4827  0.0703
57485SOL    HW182385   4.632   3.595   0.325 -0.0764  0.4862 -0.0042
57485SOL    HW282386   4.671   3.455   0.282  1.6134  1.4015 -1.5815
57486SOL     OW82387   7.680   0.026  10.252 -0.2558  0.0110  0.1044
57486SOL    HW182388   7.729  -0.055  10.243  1.3462  1.0409 -0.7819
57486SOL    HW282389   7.643   0.042  10.165  0.2397  0.7251  0.0202
57487SOL     OW82390   3.095  13.070  10.942  0.3058 -0.2659  0.5093
57487SOL    HW182391   3.176  13.027  10.970  0.0486 -1.3900 -0.4032
57487SOL    HW282392   3.025  13.015  10.976 -0.0364 -0.3797 -0.3458
57488SOL     OW82393  11.749  11.848   1.800 -0.5391  0.4743 -0.2346
57488SOL    HW182394  11.746  11.814   1.711 -0.4441  0.0358 -0.0712
57488SOL    HW282395  11.813  11.792   1.845 -0.3612  0.8814  0.0283
57489SOL     OW82396   2.596   6.994   0.239 -0.0945  0.3035 -0.0832
57489SOL    HW182397   2.528   7.044   0.284  0.9701 -1.0533  3.4343
57489SOL    HW282398   2.675   7.048   0.247  0.0573  0.1516 -0.5450
57490SOL     OW82399   1.024  11.073   1.810  0.5155  0.1718  0.5783
57490SOL    HW182400   0.947  11.117   1.774  0.9745  0.6495  0.1631
57490SOL    HW282401   1.027  10.989   1.763 -0.7678 -0.6501  1.8812
57491SOL     OW82402  11.658   6.347   3.071 -0.1901  0.1779 -0.2583
57491SOL    HW182403  11.647   6.377   2.981  2.2759  1.8641 -0.0935
57491SOL    HW282404  11.696   6.260   3.063 -1.0017 -0.1292 -0.8248
57492SOL     OW82405   6.550   8.754   5.707  0.1264 -0.3371  0.5559
57492SOL    HW182406   6.550   8.730   5.800 -0.4466  1.9463  1.2206
57492SOL    HW282407   6.486   8.696   5.667 -1.1460 -0.0340  2.0279
57493SOL     OW82408   2.237   3.035   4.472 -0.2933  0.5908 -0.4334
57493SOL    HW182409   2.215   3.110   4.417 -0.0452 -0.2890 -1.8044
57493SOL    HW282410   2.326   3.011   4.446 -0.2389  0.0367  0.2272
57494SOL     OW82411   2.934   8.856   6.635  0.6729 -0.8740 -0.2157
57494SOL    HW182412   3.004   8.845   6.571  0.9529 -0.7531  0.0694
57494SOL    HW282413   2.975   8.903   6.707 -0.2048  1.0580 -0.9105
57495SOL     OW82414   2.471   7.442   4.719 -0.0277 -0.0973 -0.2561
57495SOL    HW182415   2.557   7.464   4.683  0.9761 -0.9557  1.4664
57495SOL    HW282416   2.486   7.360   4.767 -1.6032  0.1895  0.7910
57496SOL     OW82417   3.185  12.585   2.592  0.5384 -0.4983  0.1243
57496SOL    HW182418   3.230  12.513   2.550  1.5360  1.3520 -2.2200
57496SOL    HW282419   3.239  12.662   2.573 -2.8543  1.6650 -1.8079
57497SOL     OW82420   1.969   7.648   5.463 -0.7214 -0.5333 -0.5818
57497SOL    HW182421   2.039   7.672   5.403  0.8065 -2.3431  0.3477
57497SOL    HW282422   2.007   7.660   5.550 -2.5562  1.1012  0.0613
57498SOL     OW82423   8.791   9.645   6.709  0.5341  0.4224  0.1673
57498SOL    HW182424   8.734   9.620   6.783  0.0283  0.5279 -0.1795
57498SOL    HW282425   8.843   9.718   6.743  1.1055 -0.2503  0.7729
57499SOL     OW82426  11.722  12.409  11.579  0.2568  0.1630 -0.3614
57499SOL    HW182427  11.721  12.427  11.673  0.5623  0.2689 -0.3781
57499SOL    HW282428  11.727  12.496  11.538  1.2017  0.0752 -0.4520
57500SOL     OW82429   6.756   7.613   6.303  0.1242 -0.1035 -1.3977
57500SOL    HW182430   6.699   7.554   6.254 -1.6627 -0.3963  0.8845
57500SOL    HW282431   6.705   7.694   6.311 -1.4243 -1.2015  2.9557
57501SOL     OW82432   9.760   1.504   3.352  0.4422  0.5691 -0.2517
57501SOL    HW182433   9.749   1.569   3.282 -1.9988  0.7307  0.1840
57501SOL    HW282434   9.799   1.429   3.309  2.8503  2.0568 -0.8834
57502SOL     OW82435   9.280   3.021   2.770 -0.5652  0.0486 -0.4090
57502SOL    HW182436   9.324   3.014   2.685  0.6730  2.1228  0.0024
57502SOL    HW282437   9.306   3.106   2.804 -0.6224 -0.9170  2.2983
57503SOL     OW82438  12.468   6.857   1.585 -0.2563  0.8532 -0.2906
57503SOL    HW182439  12.381   6.822   1.565 -1.0352  1.3521  1.9883
57503SOL    HW282440  12.473   6.938   1.534 -1.8016  1.6334  0.7266
57504SOL     OW82441   3.809  11.001   5.213 -0.4209  0.0552 -0.2770
57504SOL    HW182442   3.833  11.051   5.291 -0.0128  0.3539 -0.5889
57504SOL    HW282443   3.775  10.918   5.247 -0.5531  0.3117  0.2254
57505SOL     OW82444   0.764   2.286   9.103  0.2991  0.3145 -0.1585
57505SOL    HW182445   0.752   2.345   9.029  0.4857  0.0698 -0.3886
57505SOL    HW282446   0.854   2.255   9.095 -0.0507 -0.6549 -0.5310
57506SOL     OW82447   3.710  12.925   7.975  0.2811 -0.2634 -0.3058
57506SOL    HW182448   3.770  12.942   7.903 -0.7825  0.2514 -1.1075
57506SOL    HW282449   3.727  12.834   8.000  0.8945 -0.3455 -0.9961
57507SOL     OW82450   2.303   1.877   1.628 -0.7323 -0.1338  0.3748
57507SOL    HW182451   2.221   1.840   1.659 -1.1739  0.3727 -0.1546
57507SOL    HW282452   2.371   1.832   1.677 -1.3029 -0.9371  0.4332
57508SOL     OW82453  12.256   0.088   4.990  0.1265 -0.2779  0.2193
57508SOL    HW182454  12.183   0.037   5.025  1.4675 -1.9836  0.6703
57508SOL    HW282455  12.260   0.064   4.897 -1.2581  1.5779 -0.3740
57509SOL     OW82456   5.828   3.078   0.121  0.0125  0.0578 -0.1186
57509SOL    HW182457   5.806   3.010   0.185 -1.4203 -1.2051 -1.8602
57509SOL    HW282458   5.819   3.035   0.036  0.5710  2.0325 -1.2355
57510SOL     OW82459   1.538   6.703   3.897  0.8390 -0.1959 -0.1068
57510SOL    HW182460   1.586   6.621   3.885  0.2613 -0.3266 -1.7286
57510SOL    HW282461   1.483   6.710   3.819  0.2689  1.3292  0.4073
57511SOL     OW82462   0.385   4.073   5.787 -0.5124  0.8970 -0.4881
57511SOL    HW182463   0.337   4.154   5.804  0.3885  1.9659 -2.6392
57511SOL    HW282464   0.475   4.094   5.810  0.0285  1.1210 -2.5971
57512SOL     OW82465   0.274   0.543   5.965  0.1859 -0.1066 -0.3184
57512SOL    HW182466   0.338   0.561   5.897  0.8229  1.6614  0.6731
57512SOL    HW282467   0.191   0.534   5.918  0.0389  4.0209 -1.2525
57513SOL     OW82468  11.477   8.820  12.931 -0.0514 -0.5726 -0.0413
57513SOL    HW182469  11.564   8.853  12.909 -0.4855 -0.0732 -1.1009
57513SOL    HW282470  11.418   8.892  12.908 -0.7271 -0.8063  0.9065
57514SOL     OW82471   4.495   2.917   4.738  0.1522 -0.8249 -0.1192
57514SOL    HW182472   4.476   2.862   4.661  1.4115 -2.6877  0.8016
57514SOL    HW282473   4.437   2.884   4.806  0.2362 -0.3391  0.1907
57515SOL     OW82474   0.808   8.894   3.408  0.8079  0.7480 -0.1761
57515SOL    HW182475   0.831   8.838   3.483  1.5455  0.2880 -0.7405
57515SOL    HW282476   0.747   8.958   3.445  0.1614 -0.2414  0.5527
57516SOL     OW82477   5.159  11.515   3.812  0.3834  0.3001  0.0886
57516SOL    HW182478   5.076  11.473   3.835 -0.7664  1.3586 -1.7798
57516SOL    HW282479   5.174  11.577   3.883 -1.7994  1.8508 -0.6772
57517SOL     OW82480  12.183   7.086   8.063  0.1900 -0.3971 -0.1873
57517SOL    HW182481  12.113   7.026   8.090  0.2291  0.1048  1.1355
57517SOL    HW282482  12.255   7.067   8.123 -0.0391  1.4059  0.7291
57518SOL     OW82483   5.489   0.889   0.128 -0.0004  0.1556 -0.6556
57518SOL    HW182484   5.395   0.876   0.117 -0.2123 -0.9500  1.8309
57518SOL    HW282485   5.498   0.980   0.155 -0.5466 -0.1034  0.4597
57519SOL     OW82486   2.601  10.213   8.533  0.2840  0.1594 -0.9740
57519SOL    HW182487   2.542  10.234   8.605  1.9219 -0.7746  0.7236
57519SOL    HW282488   2.543  10.195   8.459 -1.4562  1.0883  0.0927
57520SOL     OW82489   5.472  11.623   2.500  0.3087  0.3296  0.1791
57520SOL    HW182490   5.510  11.707   2.474 -0.9411  0.4038 -1.6300
57520SOL    HW282491   5.544  11.561   2.492  0.6249  0.8190 -1.0867
57521SOL     OW82492   8.976  11.084   6.475 -0.0384 -0.0750  0.0188
57521SOL    HW182493   8.920  11.010   6.452 -0.7053  0.2349  0.6166
57521SOL    HW282494   8.917  11.148   6.514  0.8578 -0.0949  1.4800
57522SOL     OW82495   2.903   1.780  10.709 -0.4218 -0.1665  0.2357
57522SOL    HW182496   2.861   1.785  10.623 -0.0323 -1.4190 -0.0567
57522SOL    HW282497   2.996   1.792  10.692 -0.2814 -0.9439  0.3968
57523SOL     OW82498  11.775  10.937  12.311  0.0880  0.0611  0.3813
57523SOL    HW182499  11.850  10.995  12.299  0.7645 -0.7431  0.6065
57523SOL    HW282500  11.798  10.885  12.388 -0.1469 -1.0387 -0.2755
57524SOL     OW82501   0.779   9.665   0.184  0.2696  0.1367  0.2393
57524SOL    HW182502   0.802   9.752   0.152 -0.0387 -0.3600 -1.4740
57524SOL    HW282503   0.694   9.646   0.145  0.0197 -0.6688  1.1270
57525SOL     OW82504   2.542   5.798  11.762 -0.1778  0.5542 -0.0616
57525SOL    HW182505   2.613   5.735  11.752 -0.4750 -0.0666  1.4881
57525SOL    HW282506   2.493   5.791  11.679  1.1903  0.5672 -0.9024
57526SOL     OW82507   6.049   2.535   0.624 -0.1449  0.5442 -0.2668
57526SOL    HW182508   5.976   2.521   0.563  1.1639  0.3385 -1.8627
57526SOL    HW282509   6.121   2.484   0.587  0.2538 -1.0292  2.4162
57527SOL     OW82510   4.024   3.157   7.932  0.4664  0.1531  0.0325
57527SOL    HW182511   3.950   3.214   7.955  0.4830  0.1254  0.1589
57527SOL    HW282512   4.084   3.214   7.885  1.0483  0.5665  1.2203
57528SOL     OW82513  11.725   3.580  13.047 -0.3144  0.0360  0.3745
57528SOL    HW182514  11.754   3.623  13.127  1.9343 -1.0152  0.1956
57528SOL    HW282515  11.699   3.492  13.075 -0.1174 -0.1279  0.0526
57529SOL     OW82516   1.490   9.311  10.794  0.2923 -0.0782 -0.0069
57529SOL    HW182517   1.475   9.394  10.839  0.3059  0.0036 -0.1569
57529SOL    HW282518   1.438   9.248  10.844 -0.5975  0.2110 -0.5513
57530SOL     OW82519  10.207   4.470   3.366  0.4206  0.2051  0.3294
57530SOL    HW182520  10.188   4.417   3.444 -2.7667 -1.5921 -1.4278
57530SOL    HW282521  10.141   4.539   3.367  0.4224  0.2365 -0.7045
57531SOL     OW82522  12.781  11.691   5.262  0.2720 -0.3572  0.4821
57531SOL    HW182523  12.850  11.693   5.329  0.8460 -0.0642 -0.1029
57531SOL    HW282524  12.802  11.614   5.209 -0.8607 -1.2814  1.3196
57532SOL     OW82525   0.866   2.703  11.959 -0.3827 -0.1141 -0.2902
57532SOL    HW182526   0.883   2.733  12.048  1.8292  0.1732 -0.7527
57532SOL    HW282527   0.772   2.717  11.946 -0.3665  1.8429  1.2534
57533SOL     OW82528   2.261   4.228  12.774  0.3921 -0.6827  0.5142
57533SOL    HW182529   2.192   4.206  12.711 -0.8619  0.2833  1.4927
57533SOL    HW282530   2.305   4.144  12.790 -0.4742 -1.3103 -0.2301
57534SOL     OW82531  10.980   2.296   2.410 -0.1376 -0.4504 -0.0599
57534SOL    HW182532  10.918   2.243   2.460  1.6945 -3.0077 -0.2540
57534SOL    HW282533  11.066   2.274   2.448  1.0830 -0.6123 -2.6782
57535SOL     OW82534   7.133   0.511   2.112  0.2083  0.0034  0.0199
57535SOL    HW182535   7.081   0.577   2.066  0.6533  0.0279 -0.4686
57535SOL    HW282536   7.082   0.430   2.106 -0.5355  0.3884  0.9873
57536SOL     OW82537   8.100  11.647   6.834  0.0991 -0.2449 -0.2590
57536SOL    HW182538   8.132  11.721   6.886 -4.2315 -0.9543  4.1522
57536SOL    HW282539   8.089  11.683   6.746  2.2606  2.9465  0.5595
57537SOL     OW82540  11.392  10.032   5.868  0.2296 -0.4767 -0.0900
57537SOL    HW182541  11.463   9.972   5.890  0.5233  0.3185  1.1904
57537SOL    HW282542  11.436  10.105   5.822 -0.0585 -0.9630 -1.1768
57538SOL     OW82543   3.132  12.276   1.921 -0.3718  0.5246 -0.6949
57538SOL    HW182544   3.085  12.354   1.952 -0.6501  1.6389 -3.6095
57538SOL    HW282545   3.076  12.203   1.948 -1.1136  1.4459  0.3918
57539SOL     OW82546   5.786  10.767  11.612  0.2712 -0.2387  0.0109
57539SOL    HW182547   5.846  10.722  11.552  0.7055 -1.1186  1.0665
57539SOL    HW282548   5.843  10.820  11.668 -0.0744  0.0619  0.0829
57540SOL     OW82549   9.900   3.840   5.179 -0.6766  0.1450 -0.0000
57540SOL    HW182550   9.854   3.778   5.123  0.8731 -0.4943 -0.6414
57540SOL    HW282551   9.991   3.810   5.178 -0.1759  1.5117  0.9627
57541SOL     OW82552   0.974  10.327   4.194  0.3009  0.0739  0.8646
57541SOL    HW182553   0.985  10.343   4.100  1.7223  0.1704  1.0274
57541SOL    HW282554   0.944  10.236   4.200  1.4486 -0.3533  0.3607
57542SOL     OW82555   9.921   3.857  13.025 -0.6143  0.0687  0.6070
57542SOL    HW182556   9.835   3.860  12.984 -0.7718  0.5859  0.9724
57542SOL    HW282557   9.980   3.833  12.954 -1.1442 -0.9789  0.4993
57543SOL     OW82558   3.706   6.567   8.184 -0.3445 -0.1151  0.4098
57543SOL    HW182559   3.757   6.596   8.260  0.1156 -0.5988  0.2912
57543SOL    HW282560   3.647   6.640   8.166 -0.2340  0.1390  1.0303
57544SOL     OW82561   4.618   8.667   3.768 -0.5301  0.0573 -0.8122
57544SOL    HW182562   4.708   8.633   3.764 -0.8078 -0.9955  0.8598
57544SOL    HW282563   4.580   8.624   3.845 -1.4118  3.0255  0.5328
57545SOL     OW82564   5.201   7.637   5.152  0.0739 -0.3542 -0.0558
57545SOL    HW182565   5.203   7.558   5.098 -0.2839  1.3073 -2.6317
57545SOL    HW282566   5.288   7.639   5.194  0.2747 -1.8153 -0.3312
57546SOL     OW82567   3.491   6.306   9.253  0.2346  0.3113  0.1389
57546SOL    HW182568   3.448   6.360   9.187  0.2199  0.5998  0.3830
57546SOL    HW282569   3.422   6.285   9.316  0.6535  1.6392  1.0905
57547SOL     OW82570   1.527  12.916   4.535  0.3045 -0.4272 -0.0242
57547SOL    HW182571   1.449  12.912   4.590  0.0189  0.2013 -0.3710
57547SOL    HW282572   1.533  12.829   4.495 -0.1729 -0.5045  0.0658
57548SOL     OW82573   2.246  10.195   2.774 -0.0315  0.3284  0.0396
57548SOL    HW182574   2.311  10.139   2.816 -0.8657 -1.2413 -0.6756
57548SOL    HW282575   2.231  10.266   2.837  1.4663  0.0802  0.7230
57549SOL     OW82576   1.699  12.881  11.734  0.1647  0.5925 -0.0611
57549SOL    HW182577   1.702  12.948  11.665  1.6222  0.9679  0.3281
57549SOL    HW282578   1.665  12.927  11.810 -0.6016  0.4069 -0.2901
57550SOL     OW82579   4.682   8.510   8.695  0.1990  0.4934  0.0806
57550SOL    HW182580   4.620   8.559   8.749 -0.0700 -0.5904  0.7772
57550SOL    HW282581   4.667   8.418   8.718 -0.0410 -0.0231 -1.9688
57551SOL     OW82582   7.359   7.647   0.061  0.6075 -0.1141  0.0183
57551SOL    HW182583   7.414   7.657  -0.017 -0.0577 -0.7913 -0.5511
57551SOL    HW282584   7.407   7.692   0.130  1.6360 -0.2714 -0.5810
57552SOL     OW82585   9.426   9.164  12.215 -0.1273 -0.6901 -0.0120
57552SOL    HW182586   9.487   9.196  12.281  2.1604 -0.7504 -1.9563
57552SOL    HW282587   9.448   9.071  12.205 -3.2036 -1.7856  1.9062
57553SOL     OW82588   1.785   1.885   8.108  0.1584  0.3820 -0.0817
57553SOL    HW182589   1.770   1.908   8.199  0.8906  0.5647 -0.0025
57553SOL    HW282590   1.875   1.853   8.105 -0.6302 -2.0279 -0.2758
57554SOL     OW82591   6.037   1.424   4.327  0.3206 -0.0438 -0.1913
57554SOL    HW182592   6.100   1.368   4.373  0.9043  0.4672 -0.3615
57554SOL    HW282593   6.010   1.372   4.251  1.8489  0.3886 -1.0759
57555SOL     OW82594   9.648   1.112   4.105 -0.2938 -0.1694 -0.6993
57555SOL    HW182595   9.714   1.044   4.100  2.2950  2.2323 -2.6273
57555SOL    HW282596   9.580   1.083   4.044  0.0414 -1.6328 -0.4206
57556SOL     OW82597   5.104   2.644   8.843 -0.0956 -0.3859 -0.2719
57556SOL    HW182598   5.170   2.705   8.874  1.4999 -0.9606 -2.2453
57556SOL    HW282599   5.030   2.698   8.817  0.1413  0.4107  0.6878
57557SOL     OW82600  12.626  12.430  10.078 -0.1655  0.0641  0.1275
57557SOL    HW182601  12.701  12.446  10.136 -1.5389 -4.1812  3.6556
57557SOL    HW282602  12.661  12.375  10.008  0.4399  0.0254  0.4525
57558SOL     OW82603  10.936   4.349   0.154 -0.1543 -0.0160 -0.2976
57558SOL    HW182604  10.930   4.264   0.109  0.8491 -1.0735  1.4279
57558SOL    HW282605  11.029   4.368   0.156 -0.2027  0.1842  0.9308
57559SOL     OW82606  10.471  10.206  12.122 -0.0283 -0.0134 -0.1864
57559SOL    HW182607  10.401  10.140  12.119 -0.5904  0.6155 -1.1799
57559SOL    HW282608  10.489  10.217  12.216  0.0089 -1.4971  0.0012
57560SOL     OW82609   3.539   0.520  13.282  0.2906 -0.8270  0.0770
57560SOL    HW182610   3.626   0.484  13.270  0.3004 -0.1060 -2.5956
57560SOL    HW282611   3.554   0.609  13.315  0.5190 -0.9793  0.3874
57561SOL     OW82612   6.217   5.886   2.824  0.0226  0.0919 -0.0168
57561SOL    HW182613   6.303   5.849   2.805 -0.5134 -1.8446  1.0300
57561SOL    HW282614   6.156   5.826   2.780 -0.8665  0.1781  1.0739
57562SOL     OW82615  10.187   5.943   5.224 -0.0741  0.1443  0.0299
57562SOL    HW182616  10.222   6.020   5.179 -1.1611  1.5744  1.5079
57562SOL    HW282617  10.249   5.926   5.295 -1.4921  1.8356  1.7995
57563SOL     OW82618   6.517   1.277   8.816 -0.1252  0.4567 -0.0100
57563SOL    HW182619   6.475   1.242   8.737 -0.6973  1.6920 -0.2767
57563SOL    HW282620   6.453   1.339   8.852 -0.2243 -0.6793  1.9105
57564SOL     OW82621   9.433   5.474  11.187  0.0494 -0.3654  0.2973
57564SOL    HW182622   9.363   5.483  11.122 -0.0155 -2.3503  0.0428
57564SOL    HW282623   9.407   5.531  11.259  0.6066  2.7035 -1.7545
57565SOL     OW82624   3.389   4.663   9.685 -0.0137  0.1450  0.0861
57565SOL    HW182625   3.457   4.710   9.733 -0.5994  0.1051  0.9760
57565SOL    HW282626   3.310   4.674   9.738 -0.5634 -0.3351 -0.6110
57566SOL     OW82627  10.149   3.627   8.249  0.1922  0.3054 -0.2076
57566SOL    HW182628  10.138   3.535   8.224  1.6964 -0.3708  1.4014
57566SOL    HW282629  10.136   3.627   8.344 -0.8815  1.9711 -0.3186
57567SOL     OW82630  11.652   8.499   5.091 -0.2380  0.0996  0.7826
57567SOL    HW182631  11.616   8.523   5.176  1.2235  1.0499  1.1704
57567SOL    HW282632  11.737   8.460   5.111 -0.2478 -0.4736 -0.1971
57568SOL     OW82633   4.508   6.441   4.646 -0.2435  0.0261 -0.3022
57568SOL    HW182634   4.552   6.368   4.604  0.9803  0.9925 -0.7905
57568SOL    HW282635   4.449   6.401   4.709  0.8091 -1.3646 -0.1457
57569SOL     OW82636   8.013   1.429   1.438 -0.0047  0.4181  0.1554
57569SOL    HW182637   8.038   1.520   1.455 -2.0182  1.3642 -1.5469
57569SOL    HW282638   7.923   1.434   1.406 -0.1039 -2.1717 -0.2015
57570SOL     OW82639   9.158   8.543   3.769 -0.1323 -0.7198 -0.6401
57570SOL    HW182640   9.089   8.515   3.830 -2.4636  2.0229 -1.7670
57570SOL    HW282641   9.110   8.580   3.695  2.5889  1.3110 -1.5278
57571SOL     OW82642   6.335   2.054   0.505  0.3818  0.1832 -0.8024
57571SOL    HW182643   6.347   1.959   0.497 -0.1717  0.0905 -0.5577
57571SOL    HW282644   6.401   2.081   0.569  0.2575 -0.1025 -0.5482
57572SOL     OW82645  11.608   0.689  12.423  0.3845  0.3423  0.1541
57572SOL    HW182646  11.588   0.670  12.514  0.9764 -0.7540  0.0737
57572SOL    HW282647  11.666   0.618  12.396  0.6235  0.9290 -0.9305
57573SOL     OW82648   2.444   8.321   1.363  0.0582  0.3094  0.0408
57573SOL    HW182649   2.518   8.266   1.389 -0.1290 -0.4458 -0.9589
57573SOL    HW282650   2.421   8.369   1.442  0.1928 -1.1056  0.9804
57574SOL     OW82651   1.989   0.922  12.202  0.0809 -0.2032 -0.1167
57574SOL    HW182652   2.011   1.004  12.247 -0.8447  0.4005 -0.7219
57574SOL    HW282653   1.970   0.860  12.272 -1.8988  0.8801  0.3692
57575SOL     OW82654  10.804   8.272   0.942 -0.6804  0.2997 -0.5746
57575SOL    HW182655  10.761   8.189   0.919  0.1615 -0.6932  1.1941
57575SOL    HW282656  10.873   8.282   0.877  0.2093 -1.2543  0.0738
57576SOL     OW82657   3.270   3.519   2.928 -0.2721  0.0915  0.7728
57576SOL    HW182658   3.287   3.564   3.011 -0.7869 -0.2058  1.0444
57576SOL    HW282659   3.340   3.454   2.921  0.1616  0.5641  0.6425
57577SOL     OW82660   3.683  11.399   1.412  0.0262 -0.1905 -0.0316
57577SOL    HW182661   3.658  11.334   1.346 -0.8229  1.0034 -0.9362
57577SOL    HW282662   3.673  11.354   1.495  0.6471 -1.5886 -0.6824
57578SOL     OW82663   3.028   2.002  10.312 -0.1822 -0.0119  0.4366
57578SOL    HW182664   2.936   1.976  10.310 -0.1590 -0.0834 -1.5549
57578SOL    HW282665   3.025   2.096  10.333 -0.4568 -0.6525  3.8351
57579SOL     OW82666   0.881   6.964   5.965 -0.4521 -0.6124  0.0272
57579SOL    HW182667   0.946   6.982   5.897 -0.4011 -1.9794 -0.3076
57579SOL    HW282668   0.929   6.913   6.031 -0.6310  0.2723  0.8721
57580SOL     OW82669   2.325   0.799   0.581 -0.0955 -0.4195  0.4103
57580SOL    HW182670   2.382   0.872   0.555  1.2806 -1.2279  1.0209
57580SOL    HW282671   2.280   0.775   0.500  1.1271 -0.3321 -0.3321
57581SOL     OW82672   8.969  13.027   2.078  0.6014 -0.2607 -0.2331
57581SOL    HW182673   9.022  12.949   2.063 -0.6330 -1.0359 -0.7288
57581SOL    HW282674   8.919  13.007   2.157  0.7002  0.2704 -0.0295
57582SOL     OW82675   6.808   2.793  10.623  0.4497 -0.5629  0.0128
57582SOL    HW182676   6.729   2.809  10.676  0.9907  1.1478  0.3442
57582SOL    HW282677   6.879   2.793  10.687  1.0523  1.0207 -0.6134
57583SOL     OW82678   7.733  10.897   5.359  0.0072 -0.1701 -0.2427
57583SOL    HW182679   7.773  10.867   5.277 -1.7065  0.2738 -1.2903
57583SOL    HW282680   7.661  10.954   5.331 -2.2256 -1.9487  1.4631
57584SOL     OW82681   7.051   7.826   3.475 -0.0340 -1.0730  0.1222
57584SOL    HW182682   7.014   7.885   3.409  0.1574 -0.6043  0.4263
57584SOL    HW282683   6.981   7.763   3.493 -0.1529 -1.0949 -0.3883
57585SOL     OW82684   3.369   4.300   6.526 -0.2761 -0.2054 -0.5854
57585SOL    HW182685   3.407   4.240   6.462  1.2904  0.1400  0.0021
57585SOL    HW282686   3.423   4.379   6.521  0.2952 -0.3974  1.5963
57586SOL     OW82687   9.910   9.043   5.695  0.0618 -0.2235  0.5152
57586SOL    HW182688   9.924   9.100   5.771  2.1803  1.1417 -0.7782
57586SOL    HW282689   9.881   9.102   5.626 -0.2414 -1.1610 -0.1797
57587SOL     OW82690   0.459   2.821   4.577  0.3162  0.9347 -0.0558
57587SOL    HW182691   0.513   2.867   4.641  0.2309  0.0002  0.7014
57587SOL    HW282692   0.373   2.812   4.618  0.5241 -0.5142  0.1168
57588SOL     OW82693   7.984  11.958   9.555 -0.1752  0.5519  0.0688
57588SOL    HW182694   7.961  11.870   9.525 -1.4477  0.5267  1.0464
57588SOL    HW282695   7.944  12.017   9.492 -2.5552  0.4904  1.3978
57589SOL     OW82696   4.356   5.211   0.533  0.5079 -0.0162 -0.1140
57589SOL    HW182697   4.374   5.120   0.511  0.3099 -0.7797  2.5663
57589SOL    HW282698   4.343   5.211   0.628 -1.5089  2.4934 -0.2954
57590SOL     OW82699   3.917  10.403   4.695  0.0860  0.1527  0.3960
57590SOL    HW182700   3.915  10.324   4.748 -1.0008  1.0999  1.8422
57590SOL    HW282701   4.009  10.428   4.691  0.4154 -1.0435  0.0843
57591SOL     OW82702   3.429  11.130   8.715  0.5614 -0.4657  0.2925
57591SOL    HW182703   3.492  11.160   8.779  0.5918  1.4278 -0.5733
57591SOL    HW282704   3.463  11.161   8.631 -0.9605 -0.3227 -0.3043
57592SOL     OW82705  12.485   9.869   1.913 -0.1118 -0.1231  0.6104
57592SOL    HW182706  12.488   9.789   1.966  2.1893 -1.4960 -1.4228
57592SOL    HW282707  12.555   9.925   1.949  1.1844 -0.8913 -0.6137
57593SOL     OW82708   6.987  12.491   6.806 -0.1771  0.8286 -0.3835
57593SOL    HW182709   6.975  12.464   6.897 -3.4029 -0.0592 -0.9234
57593SOL    HW282710   7.029  12.417   6.764  0.6354  0.9387  0.2258
57594SOL     OW82711   8.845  12.873  13.021 -0.5376 -0.0594  0.6718
57594SOL    HW182712   8.933  12.839  13.042  0.6106  2.3150 -0.0129
57594SOL    HW282713   8.833  12.947  13.081 -1.8635 -0.0038  0.3670
57595SOL     OW82714   8.284  10.748   3.214 -0.4652 -0.2676 -0.1970
57595SOL    HW182715   8.191  10.767   3.222 -0.4377  0.0018 -0.5049
57595SOL    HW282716   8.289  10.654   3.199 -0.7306 -0.1655 -0.9585
57596SOL     OW82717   0.557  11.582  10.816 -0.1955 -0.0839  0.0690
57596SOL    HW182718   0.634  11.528  10.828 -0.3365 -0.8619 -2.0601
57596SOL    HW282719   0.566  11.617  10.727 -1.9385  0.3979  0.0418
57597SOL     OW82720   8.985   8.989   6.149  0.0864 -0.3576  0.4415
57597SOL    HW182721   8.941   8.917   6.195  0.5682 -0.2644  1.0548
57597SOL    HW282722   8.928   9.007   6.074 -0.2738 -1.0717  0.5338
57598SOL     OW82723   8.372   9.388  11.766  0.3758 -0.1086 -0.1097
57598SOL    HW182724   8.449   9.412  11.818  0.0115 -0.6227  0.6740
57598SOL    HW282725   8.326   9.324  11.820  0.9991 -2.1637 -1.8879
57599SOL     OW82726   6.148   4.258   3.662  0.3919 -0.8825  0.2027
57599SOL    HW182727   6.169   4.169   3.689 -0.1420 -1.3263 -0.7713
57599SOL    HW282728   6.068   4.249   3.610 -0.6582  0.3841  1.5072
57600SOL     OW82729   6.423  10.795   3.773  0.2382 -0.0056 -0.1473
57600SOL    HW182730   6.502  10.849   3.776  0.1886  0.0777 -0.3114
57600SOL    HW282731   6.397  10.787   3.864 -0.3230  1.1033 -0.1889
57601SOL     OW82732   4.387  11.759   7.660 -0.1612  0.4532 -0.0659
57601SOL    HW182733   4.385  11.839   7.713  0.2513  0.0917  0.5173
57601SOL    HW282734   4.417  11.691   7.721  2.2609  0.3722 -1.2308
57602SOL     OW82735   8.426   1.884   7.327  0.5219 -0.7028 -0.2185
57602SOL    HW182736   8.459   1.802   7.362  0.5263 -0.6557 -0.1117
57602SOL    HW282737   8.337   1.864   7.298  0.4400 -0.6892  0.0198
57603SOL     OW82738   7.089   3.763  11.197 -0.1459 -0.5173  0.1616
57603SOL    HW182739   7.135   3.747  11.280  1.6558  1.6321 -0.3169
57603SOL    HW282740   7.148   3.821  11.148 -3.2472  2.3141 -0.6218
57604SOL     OW82741   6.285  12.286   7.113 -0.5624 -0.0002  0.1453
57604SOL    HW182742   6.222  12.352   7.141 -1.1660 -1.0873  1.4151
57604SOL    HW282743   6.302  12.233   7.191  2.5254  0.6943  0.0807
57605SOL     OW82744   6.957  12.588   8.171 -0.0598 -0.0154 -0.4241
57605SOL    HW182745   6.929  12.496   8.171 -0.1049 -0.0011 -0.2946
57605SOL    HW282746   6.875  12.638   8.173 -0.0511  0.0310 -0.9613
57606SOL     OW82747   6.701   5.976   9.576  0.2423  0.4036  0.1688
57606SOL    HW182748   6.765   6.047   9.568  0.5714  0.1642  0.6175
57606SOL    HW282749   6.706   5.930   9.492  1.0154  0.0946  0.3759
57607SOL     OW82750   4.663   4.110   9.592 -1.0574  0.5444 -0.1374
57607SOL    HW182751   4.659   4.018   9.616  0.3034 -0.2680 -2.6173
57607SOL    HW282752   4.574   4.131   9.563 -1.1351 -0.3394 -0.5853
57608SOL     OW82753   4.628  11.617   9.709 -0.0580  0.1925 -0.5166
57608SOL    HW182754   4.694  11.588   9.646 -0.0495  0.4616 -0.6288
57608SOL    HW282755   4.574  11.539   9.723 -1.0170  0.5473 -2.0451
57609SOL     OW82756   3.003   2.418   3.568  0.3938  0.0496 -0.2682
57609SOL    HW182757   3.021   2.504   3.530  0.6061 -0.3692 -1.1525
57609SOL    HW282758   2.938   2.379   3.509 -0.1091 -0.1803  0.4318
57610SOL     OW82759   8.086   5.822   2.690 -0.3695 -0.0071 -0.6086
57610SOL    HW182760   8.049   5.909   2.679  2.2073  1.6898  2.4615
57610SOL    HW282761   8.015   5.770   2.729 -1.4654  1.1177 -1.0408
57611SOL     OW82762   6.707   5.962  10.498  0.1528  0.5264  0.4560
57611SOL    HW182763   6.658   5.933  10.575 -1.1660  0.1760 -0.4760
57611SOL    HW282764   6.770   6.026  10.532  0.1277 -0.1735  1.9184
57612SOL     OW82765   4.880   9.040   9.613  0.1812 -0.2527  0.1576
57612SOL    HW182766   4.938   9.099   9.661 -0.4121 -0.4955  1.2089
57612SOL    HW282767   4.812   9.098   9.577  1.1122  0.0520 -1.1992
57613SOL     OW82768   9.109  12.714  11.295  0.3376  0.0942 -1.1540
57613SOL    HW182769   9.198  12.725  11.328  0.1963  0.3939 -0.8644
57613SOL    HW282770   9.066  12.798  11.315 -0.3239 -0.4358 -0.3020
57614SOL     OW82771   6.521  13.183   1.433  0.2608  0.2212  0.0726
57614SOL    HW182772   6.607  13.216   1.408 -0.3084  1.0947 -0.7702
57614SOL    HW282773   6.475  13.170   1.350  0.5772 -3.1575  0.2852
57615SOL     OW82774  11.100   6.322  10.172  0.3707 -0.7618  0.7509
57615SOL    HW182775  11.029   6.305  10.110 -0.4714 -0.2221  1.5580
57615SOL    HW282776  11.171   6.358  10.117  0.4259 -2.2563 -0.2197
57616SOL     OW82777  12.005   9.304  11.740 -0.0130 -0.3028  0.5610
57616SOL    HW182778  12.013   9.399  11.748  0.6314 -0.2259 -0.6811
57616SOL    HW282779  11.930   9.291  11.682 -0.3122 -0.5616  1.0052
57617SOL     OW82780   5.882  11.750   8.047 -0.0685 -0.1212 -0.5029
57617SOL    HW182781   5.961  11.698   8.055  0.8089  1.2123 -0.1757
57617SOL    HW282782   5.853  11.765   8.136 -0.2289  0.0715 -0.5861
57618SOL     OW82783   5.464  12.621   4.065  0.1457  0.6192 -0.2671
57618SOL    HW182784   5.548  12.577   4.049  0.8583  1.2520  1.4296
57618SOL    HW282785   5.400  12.551   4.071  0.7224  0.0527 -0.6426
57619SOL     OW82786   4.048   4.068   6.090 -0.0120 -0.6471  0.2801
57619SOL    HW182787   4.087   4.061   6.003  1.2475  1.6518  0.5639
57619SOL    HW282788   3.959   4.037   6.079 -0.0481  0.0769 -1.9881
57620SOL     OW82789  10.229  11.845  11.318  0.1271  0.0873  0.0915
57620SOL    HW182790  10.237  11.821  11.410 -0.6567  0.7009  0.3324
57620SOL    HW282791  10.264  11.934  11.313 -0.2514  0.2287 -0.1120
57621SOL     OW82792   7.668   6.185  11.806  0.8490  0.2244  0.2996
57621SOL    HW182793   7.621   6.231  11.736  1.8472  0.4124 -0.2648
57621SOL    HW282794   7.759   6.209  11.793  1.0758  0.0578  1.5352
57622SOL     OW82795   3.448   8.492  12.700 -0.4492 -0.5884  0.0741
57622SOL    HW182796   3.385   8.450  12.759 -0.1451 -0.7866  0.2564
57622SOL    HW282797   3.533   8.457  12.726 -0.3212 -0.7291 -0.5265
57623SOL     OW82798   7.621   4.690   2.720 -0.0097  0.5859 -0.6131
57623SOL    HW182799   7.682   4.645   2.778 -2.8046 -0.8993  1.3679
57623SOL    HW282800   7.637   4.651   2.634 -0.6135 -2.5420  0.5643
57624SOL     OW82801  12.089   3.589   2.030  0.1586 -0.0818 -0.1763
57624SOL    HW182802  12.114   3.506   1.989 -0.5074  1.1183 -3.3341
57624SOL    HW282803  11.993   3.583   2.038  0.2290 -0.0734  0.7443
57625SOL     OW82804   1.119  10.628   2.309  0.4335  0.6252  0.4697
57625SOL    HW182805   1.212  10.608   2.302  0.4270  0.9230 -0.8279
57625SOL    HW282806   1.085  10.566   2.373  2.1300  2.6680  3.5718
57626SOL     OW82807   5.611   6.749   4.604  0.0599  0.5974 -0.2914
57626SOL    HW182808   5.525   6.734   4.565  0.2990 -2.2953  0.0957
57626SOL    HW282809   5.646   6.825   4.557 -2.3843  1.4021 -0.9419
57627SOL     OW82810   2.973   8.153  10.334  0.2447 -0.6631  0.0246
57627SOL    HW182811   2.897   8.206  10.355 -0.2365 -0.6104 -1.6717
57627SOL    HW282812   3.014   8.134  10.418 -1.6587 -0.7401  0.9885
57628SOL     OW82813   9.298  12.771   3.630  0.4103  0.5682  0.1363
57628SOL    HW182814   9.264  12.808   3.712 -2.5537 -0.3929 -0.5777
57628SOL    HW282815   9.265  12.829   3.562  0.3597 -0.2928 -0.5880
57629SOL     OW82816  10.058   8.036   4.655  0.5774 -0.9723 -0.0365
57629SOL    HW182817   9.978   8.063   4.610  0.5449 -1.4321 -0.2680
57629SOL    HW282818  10.028   7.989   4.733  0.6380  0.4662  0.8832
57630SOL     OW82819   4.549   3.000   2.018  0.1842 -0.2263 -0.1264
57630SOL    HW182820   4.482   3.056   1.978  0.0826  0.0381  0.4165
57630SOL    HW282821   4.563   2.930   1.953 -0.2843 -0.0328 -0.4399
57631SOL     OW82822  11.614   4.866   5.959  0.0118  0.1529  0.1469
57631SOL    HW182823  11.531   4.906   5.935  1.1858  1.4220 -2.0855
57631SOL    HW282824  11.599   4.772   5.949 -1.2682  0.3325  0.2067
57632SOL     OW82825   3.179   7.380   2.650 -0.2535  0.3764 -0.1664
57632SOL    HW182826   3.213   7.374   2.739  1.3938  1.6692 -0.6700
57632SOL    HW282827   3.095   7.425   2.660 -0.7165 -0.6602  0.8463
57633SOL     OW82828   7.312   4.889   4.307  0.0561 -0.7920 -0.3416
57633SOL    HW182829   7.342   4.957   4.367  0.1944 -1.3791  0.2603
57633SOL    HW282830   7.391   4.846   4.277 -0.0297 -0.6738 -0.7381
57634SOL     OW82831   8.554   4.393  10.619 -0.4851 -0.0299  0.0680
57634SOL    HW182832   8.480   4.451  10.605 -0.4589  0.4927  1.9173
57634SOL    HW282833   8.536   4.318  10.562 -0.2401  1.9360 -2.8329
57635SOL     OW82834   3.129  10.882   8.647 -0.5650 -0.5115 -0.1724
57635SOL    HW182835   3.038  10.914   8.649 -1.0721 -1.9293  0.2548
57635SOL    HW282836   3.130  10.808   8.707  1.4320  0.8507  1.6177
57636SOL     OW82837  13.187   6.641   8.264  0.2256  0.6546 -0.0400
57636SOL    HW182838  13.115   6.613   8.319  0.4882 -0.9333 -0.4540
57636SOL    HW282839  13.148   6.651   8.177  0.4957 -0.2801 -0.2804
57637SOL     OW82840  11.191   0.812   7.829 -0.5875 -0.3927 -0.4748
57637SOL    HW182841  11.249   0.737   7.843 -0.5595 -0.5143 -1.2088
57637SOL    HW282842  11.210   0.841   7.740  1.3166  2.1229  0.5936
57638SOL     OW82843   0.785  11.487   2.972  0.7828 -0.0427  0.8819
57638SOL    HW182844   0.694  11.503   2.995 -0.0956 -1.6555 -1.1147
57638SOL    HW282845   0.832  11.484   3.055 -1.1541 -0.0955  2.0124
57639SOL     OW82846   5.062  12.862  10.597 -0.0138 -0.1236 -0.0189
57639SOL    HW182847   5.038  12.798  10.530  1.1225 -0.7113  0.1232
57639SOL    HW282848   5.116  12.814  10.659  0.5507  0.8774  0.2898
57640SOL     OW82849   0.521   2.858   5.892  0.0937 -0.2622 -0.0960
57640SOL    HW182850   0.460   2.923   5.857  0.5620 -0.4587 -1.3094
57640SOL    HW282851   0.481   2.831   5.975 -0.7805  0.5891 -0.2166
57641SOL     OW82852   2.594   9.573   4.918  0.7888 -0.7256  0.1198
57641SOL    HW182853   2.524   9.508   4.921 -0.5310  0.3906 -2.8888
57641SOL    HW282854   2.559   9.649   4.966  0.3694 -0.5464 -0.4676
57642SOL     OW82855   0.420   9.787   1.510  0.4868 -0.3527 -0.2896
57642SOL    HW182856   0.367   9.864   1.490  0.0464  0.1694  2.5257
57642SOL    HW282857   0.368   9.713   1.477 -0.9394  0.3052  0.4057
57643SOL     OW82858  13.284   1.565   5.920 -0.5581 -0.1471 -0.1583
57643SOL    HW182859  13.278   1.469   5.921 -0.3932 -0.1702  1.5678
57643SOL    HW282860  13.236   1.591   5.842 -0.0860 -1.6703 -1.0011
57644SOL     OW82861   6.250   7.219   6.927  0.1082  0.3675 -0.0720
57644SOL    HW182862   6.266   7.153   6.860  1.5717  1.5567 -0.9452
57644SOL    HW282863   6.157   7.208   6.949 -0.1297 -0.7786 -1.4864
57645SOL     OW82864   9.325  10.952   5.773  0.0985  0.3337  0.0770
57645SOL    HW182865   9.361  10.868   5.744 -0.2877  0.4404 -0.7579
57645SOL    HW282866   9.401  11.010   5.777  0.2570  0.1423 -0.1072
57646SOL     OW82867  12.052  12.386   7.869 -0.5527 -0.2563 -0.6347
57646SOL    HW182868  12.138  12.414   7.901 -0.2410 -0.3650 -1.3641
57646SOL    HW282869  12.025  12.316   7.930  0.5444 -1.2565 -1.2586
57647SOL     OW82870   7.226  11.803   4.204  0.2162  0.4531 -0.3651
57647SOL    HW182871   7.157  11.868   4.215  0.5468  0.7249  0.1484
57647SOL    HW282872   7.306  11.848   4.231  0.4685 -0.1207 -0.1346
57648SOL     OW82873   8.259   9.915   4.604  0.2918  0.2042  0.3032
57648SOL    HW182874   8.327   9.876   4.549  0.6502  0.5341  0.5030
57648SOL    HW282875   8.198   9.844   4.622  1.3174 -0.4546  1.2693
57649SOL     OW82876   6.560  10.147   5.864 -0.2713  0.0505  0.1925
57649SOL    HW182877   6.563  10.107   5.951 -0.3177 -3.4797 -1.2683
57649SOL    HW282878   6.496  10.095   5.816  1.5289  0.2814 -2.6643
57650SOL     OW82879   7.597   7.723   0.497 -0.1583 -0.0582  0.0857
57650SOL    HW182880   7.657   7.777   0.549  0.5289  0.7109 -1.4411
57650SOL    HW282881   7.551   7.670   0.561  2.1084 -0.6387  1.3350
57651SOL     OW82882   8.147   2.282   1.178  0.5182 -0.0874  0.3770
57651SOL    HW182883   8.083   2.322   1.236 -0.3889  0.3924 -0.9099
57651SOL    HW282884   8.117   2.192   1.166  1.9003 -0.8816  2.3132
57652SOL     OW82885  10.860   0.565   9.883 -0.4859  0.4168  0.3747
57652SOL    HW182886  10.864   0.579   9.978 -2.0864  3.7482  0.0715
57652SOL    HW282887  10.948   0.585   9.852  0.5406 -2.3211  1.1997
57653SOL     OW82888   2.002  10.899   8.493 -0.8045 -0.2464 -0.4887
57653SOL    HW182889   2.038  10.982   8.462  0.2216 -1.2435 -2.1300
57653SOL    HW282890   2.011  10.840   8.419  0.2523 -2.3444  1.1755
57654SOL     OW82891   8.135   9.921   7.476  0.0303  0.0590  0.1924
57654SOL    HW182892   8.122   9.925   7.382 -1.7472 -1.5477  0.3303
57654SOL    HW282893   8.138   9.828   7.497  2.0782  0.3569  1.5497
57655SOL     OW82894   0.301   4.767   4.609  0.1785  0.1403 -0.4014
57655SOL    HW182895   0.230   4.826   4.632  0.4702  0.2976  0.1394
57655SOL    HW282896   0.375   4.825   4.591 -0.0136  0.0061 -1.6473
57656SOL     OW82897   0.102  10.162   0.636  0.1523 -0.6200  0.2675
57656SOL    HW182898   0.135  10.210   0.712 -0.8943  1.5955 -0.6038
57656SOL    HW282899   0.031  10.108   0.671  0.4101 -0.4663  1.0421
57657SOL     OW82900   7.159   7.073   4.592  0.6608  0.4774  0.5024
57657SOL    HW182901   7.109   7.073   4.674  0.8715 -0.1290  0.6338
57657SOL    HW282902   7.172   6.980   4.572  1.7634  0.6259  0.4809
57658SOL     OW82903   9.658   7.617   3.562  0.4880 -0.5890 -0.4663
57658SOL    HW182904   9.673   7.671   3.640  1.5158  0.5436 -1.4134
57658SOL    HW282905   9.567   7.633   3.539  0.2498 -0.7337  0.3328
57659SOL     OW82906  12.539   7.532  10.747  0.0617  0.3555  0.0720
57659SOL    HW182907  12.504   7.445  10.767 -0.7105 -0.2436 -3.2973
57659SOL    HW282908  12.631   7.516  10.726 -0.3728  0.0712 -1.7681
57660SOL     OW82909  11.623   0.749   7.841  0.1048  0.4148  0.0126
57660SOL    HW182910  11.606   0.656   7.852 -0.7575  0.4355 -1.0984
57660SOL    HW282911  11.695   0.753   7.778  1.0868  0.4793  1.1014
57661SOL     OW82912   1.358   7.201   2.465  0.6880  0.3305  0.1859
57661SOL    HW182913   1.360   7.232   2.555 -0.8832 -0.1755  0.4263
57661SOL    HW282914   1.450   7.196   2.439  1.2864 -1.2617  2.3622
57662SOL     OW82915   5.098   1.959   3.735 -0.0350 -0.5290  0.0108
57662SOL    HW182916   5.121   1.898   3.805 -0.4191  0.7222  1.2869
57662SOL    HW282917   5.158   2.033   3.748 -0.2192 -0.2129 -0.8902
57663SOL     OW82918  10.734   6.041  12.237  0.0092 -0.5983 -0.0437
57663SOL    HW182919  10.756   6.117  12.291 -0.0958 -1.5222  1.3685
57663SOL    HW282920  10.747   5.966  12.296  0.3750 -1.6937 -1.4770
57664SOL     OW82921   5.965   2.920   2.914  0.6828  0.0657  0.2536
57664SOL    HW182922   5.913   2.873   2.978 -0.2291  1.9414  0.9699
57664SOL    HW282923   6.056   2.906   2.941  0.3346  0.2549  1.5686
57665SOL     OW82924   6.647   9.650  12.672  0.0760 -0.5811 -0.1701
57665SOL    HW182925   6.631   9.622  12.582 -1.7245  0.4842 -0.2371
57665SOL    HW282926   6.727   9.701  12.667  0.2706 -0.9521 -1.0826
57666SOL     OW82927   2.450   2.027   3.607  0.0426 -0.1611 -0.6648
57666SOL    HW182928   2.370   2.066   3.643 -0.5567  0.3870 -2.4727
57666SOL    HW282929   2.418   1.965   3.541  1.0680  1.2033 -2.5618
57667SOL     OW82930  11.482   2.200   7.095  0.4477 -0.3116  0.0990
57667SOL    HW182931  11.521   2.133   7.039 -0.5706 -0.6228 -0.2582
57667SOL    HW282932  11.451   2.267   7.034 -0.6105 -0.6211  0.2838
57668SOL     OW82933  11.816   0.092  11.634 -0.5312 -0.0448  0.0406
57668SOL    HW182934  11.855   0.124  11.553  2.6962 -2.3926  0.4705
57668SOL    HW282935  11.867   0.134  11.704  0.0743 -1.7670  0.6911
57669SOL     OW82936   0.426   2.035   3.114  0.2708  0.4058  0.1400
57669SOL    HW182937   0.335   2.037   3.145  0.7143  0.3312  1.5577
57669SOL    HW282938   0.421   2.059   3.022 -1.3716 -1.3804 -0.2987
57670SOL     OW82939  11.607   8.947  13.164 -0.2326  0.2229 -0.3499
57670SOL    HW182940  11.624   8.931  13.071  0.6243 -0.2716 -0.1159
57670SOL    HW282941  11.638   8.868  13.208  0.8081  1.0838  0.5045
57671SOL     OW82942   0.496   3.897   8.364 -0.4120  0.7288  0.3401
57671SOL    HW182943   0.538   3.818   8.400  0.1252  0.5197 -0.6918
57671SOL    HW282944   0.569   3.957   8.347 -0.7469  1.1663  0.4365
57672SOL     OW82945   5.036  10.416   2.924 -0.4120  0.4864 -0.2444
57672SOL    HW182946   4.974  10.406   2.852 -0.1000  0.4612 -0.5082
57672SOL    HW282947   5.025  10.507   2.952  0.5994  0.9827 -1.3713
57673SOL     OW82948  11.821   0.196   4.321 -0.4150 -0.6151 -0.0867
57673SOL    HW182949  11.820   0.107   4.285  0.6813 -1.5791  2.0981
57673SOL    HW282950  11.735   0.232   4.298 -1.3650 -2.6914  0.0281
57674SOL     OW82951   7.733   5.653   4.779  0.8849  0.5236  0.1664
57674SOL    HW182952   7.775   5.713   4.717  2.7673 -1.2222 -0.3528
57674SOL    HW282953   7.705   5.709   4.851  4.2835  1.8970  0.6387
57675SOL     OW82954   9.066   7.305  10.117  0.1821  0.1515  0.7006
57675SOL    HW182955   9.149   7.291  10.163 -0.2839  0.1694  1.5751
57675SOL    HW282956   9.048   7.221  10.074  1.5063  0.6743 -0.9615
57676SOL     OW82957   1.115   4.047   0.269  0.1445 -0.5633 -0.0508
57676SOL    HW182958   1.022   4.043   0.249  0.6507  0.9112 -3.3101
57676SOL    HW282959   1.132   4.139   0.289  0.9920 -0.7143 -0.0295
57677SOL     OW82960  13.003   1.350   9.881  0.3378  0.3512  0.1096
57677SOL    HW182961  13.048   1.283   9.933  0.7712 -0.4687 -1.2683
57677SOL    HW282962  12.912   1.345   9.909  0.1998 -1.4164 -0.5441
57678SOL     OW82963   7.877   6.839   9.840 -0.1947  0.2741 -0.0889
57678SOL    HW182964   7.891   6.745   9.838  0.4019  0.3578 -0.1167
57678SOL    HW282965   7.940   6.874   9.777 -0.3622  0.6937 -0.0261
57679SOL     OW82966   0.093  11.156   8.099 -0.1070 -0.2071  0.0674
57679SOL    HW182967   0.087  11.108   8.181  0.9099  1.5023  1.2221
57679SOL    HW282968   0.187  11.175   8.090 -0.3636  0.6868 -0.8391
57680SOL     OW82969   1.411   3.231  13.094  0.3374  0.3968  0.5746
57680SOL    HW182970   1.368   3.249  13.178 -0.1644  3.0977 -0.1491
57680SOL    HW282971   1.349   3.264  13.029  1.7565  0.5553 -0.7289
57681SOL     OW82972  10.652   8.173   7.475 -0.0917  0.6765 -0.2032
57681SOL    HW182973  10.669   8.079   7.481 -2.1327  0.1280 -1.7900
57681SOL    HW282974  10.707   8.202   7.402  1.1242  0.9088  0.7790
57682SOL     OW82975   0.349   9.597   0.678  0.2315  0.1308 -0.2477
57682SOL    HW182976   0.425   9.580   0.733  0.2161 -1.1243 -0.5828
57682SOL    HW282977   0.378   9.573   0.589  0.0103  1.3698 -0.6683
57683SOL     OW82978  12.529   7.115   4.322 -0.1857 -0.6265 -0.5676
57683SOL    HW182979  12.448   7.065   4.333 -0.4390 -0.4147 -1.4254
57683SOL    HW282980  12.559   7.094   4.234  0.0681  0.1956 -0.6840
57684SOL     OW82981  10.164  12.926   0.331 -0.0117 -0.4882  0.2815
57684SOL    HW182982  10.177  13.020   0.321 -0.2732 -0.3412  1.2013
57684SOL    HW282983  10.240  12.896   0.381  1.2866 -1.1997 -1.9681
57685SOL     OW82984   5.831  12.231   7.022 -0.1252 -0.0718  0.2630
57685SOL    HW182985   5.775  12.180   7.080  1.0733 -0.4987  1.0821
57685SOL    HW282986   5.918  12.191   7.031 -0.2112 -1.3252 -3.1777
57686SOL     OW82987   2.925   9.837   8.428  0.2880  0.4408  0.1395
57686SOL    HW182988   2.840   9.806   8.459 -0.8413  2.3594 -0.8499
57686SOL    HW282989   2.947   9.778   8.356 -1.0859  0.9531 -0.7375
57687SOL     OW82990   0.395   1.191   9.653  0.4440  0.8206 -0.2496
57687SOL    HW182991   0.327   1.254   9.674  1.2207  1.3132  0.8773
57687SOL    HW282992   0.397   1.131   9.728  0.5000  0.1411 -0.7795
57688SOL     OW82993  10.480   5.813   0.233 -0.0100 -0.2860  0.1664
57688SOL    HW182994  10.426   5.786   0.158  0.8985 -0.3972 -0.4671
57688SOL    HW282995  10.472   5.908   0.235  1.7854 -0.0301 -1.5552
57689SOL     OW82996   4.835   5.300   1.581 -0.3158  0.1495 -0.7807
57689SOL    HW182997   4.795   5.226   1.627  0.8338  0.8248  1.3845
57689SOL    HW282998   4.876   5.260   1.504 -1.3039 -1.1726 -0.6553
57690SOL     OW82999   0.714   3.602  12.640  0.3406  0.0302 -0.3910
57690SOL    HW183000   0.803   3.621  12.668  0.4139 -0.3204 -0.3742
57690SOL    HW283001   0.671   3.687  12.634  0.2690  0.1082  0.9732
57691SOL     OW83002   5.285   0.029  12.767  0.2582  0.1717  0.4675
57691SOL    HW183003   5.324   0.082  12.836  1.2317  1.2741 -0.8635
57691SOL    HW283004   5.236  -0.039  12.813  0.9809  0.7855  2.2193
57692SOL     OW83005  12.341  13.069   1.501 -0.0117 -0.5002  0.2890
57692SOL    HW183006  12.340  13.126   1.578 -1.6508 -1.2218  0.8390
57692SOL    HW283007  12.284  13.112   1.438  0.8861 -0.1952 -0.3354
57693SOL     OW83008   7.167  11.857   9.564  0.6337 -0.2029 -0.2394
57693SOL    HW183009   7.101  11.856   9.495  0.5114 -0.3109 -0.1222
57693SOL    HW283010   7.116  11.853   9.646  0.7705  0.1174 -0.1383
57694SOL     OW83011   2.756   2.110   7.932  0.3948  0.5709  0.0607
57694SOL    HW183012   2.698   2.185   7.942 -0.0549  0.2012  0.2638
57694SOL    HW283013   2.831   2.130   7.988  0.5212  1.1065 -0.2962
57695SOL     OW83014   6.592   0.873  10.281  0.1199 -0.0363  0.3619
57695SOL    HW183015   6.499   0.861  10.259  0.5435 -1.4334 -0.8150
57695SOL    HW283016   6.610   0.804  10.345  0.3155  0.3177  0.6902
57696SOL     OW83017   4.789   1.487  11.813  0.0543 -0.1398  0.0949
57696SOL    HW183018   4.869   1.529  11.780 -0.8622  1.8042  0.2364
57696SOL    HW283019   4.762   1.429  11.742  0.5665  0.6070 -0.7313
57697SOL     OW83020   0.166   4.335   0.134 -0.4949 -0.9391 -0.7000
57697SOL    HW183021   0.237   4.345   0.198  0.3395 -0.2021 -1.7025
57697SOL    HW283022   0.210   4.324   0.050 -1.5724 -1.4056 -1.2271
57698SOL     OW83023   0.692   7.362   2.822  0.2384  0.4123  0.4560
57698SOL    HW183024   0.601   7.334   2.828  0.6206 -0.9159  0.3560
57698SOL    HW283025   0.741   7.295   2.870  1.2688  0.4874 -0.4402
57699SOL     OW83026   3.009  12.988   4.199  0.1461  0.4853 -0.0769
57699SOL    HW183027   2.992  13.079   4.174  1.9634  0.6488 -0.8892
57699SOL    HW283028   2.994  12.938   4.118 -2.2699 -0.1963  0.7068
57700SOL     OW83029   7.066   5.309   4.433  0.1033  0.6210  0.5647
57700SOL    HW183030   6.986   5.328   4.483 -1.0615  1.0858 -1.3433
57700SOL    HW283031   7.103   5.395   4.414 -0.4285  0.5667 -0.8052
57701SOL     OW83032   1.009   1.313   9.536  0.3827  0.0811  0.0809
57701SOL    HW183033   1.022   1.358   9.453  2.1303  0.5766  0.5865
57701SOL    HW283034   0.915   1.321   9.553  0.2415  1.2410 -1.1219
57702SOL     OW83035   0.096   7.312  11.058  0.3027 -0.4250  0.2643
57702SOL    HW183036   0.101   7.395  11.012 -0.6778 -0.7563 -0.4888
57702SOL    HW283037   0.093   7.335  11.151  2.6198  0.2415  0.2302
57703SOL     OW83038   0.467   9.393   3.994  0.4711  0.1521  0.8655
57703SOL    HW183039   0.462   9.451   3.918  0.2028 -0.8013  0.1426
57703SOL    HW283040   0.538   9.430   4.048  0.2763  1.1624  0.4461
57704SOL     OW83041   5.643   1.642  10.361  0.2264 -0.3221 -0.2139
57704SOL    HW183042   5.638   1.574  10.294  0.3189 -0.3014 -0.2422
57704SOL    HW283043   5.556   1.682  10.361  0.7175  0.8210 -1.5151
57705SOL     OW83044  12.427   4.676  10.964 -0.2612 -0.0693  0.0109
57705SOL    HW183045  12.347   4.627  10.983 -1.9328  2.1277 -0.9673
57705SOL    HW283046  12.456   4.644  10.878 -0.1235 -0.7839  0.3164
57706SOL     OW83047   1.511   4.561   3.428 -0.3344 -0.1360 -0.1976
57706SOL    HW183048   1.524   4.562   3.333 -0.6783 -1.4531 -0.2866
57706SOL    HW283049   1.586   4.513   3.463  0.4237  1.3789  0.3455
57707SOL     OW83050   8.642   3.462  13.159  0.1560 -0.4683 -0.7420
57707SOL    HW183051   8.637   3.371  13.187 -0.7466 -0.3884 -0.5834
57707SOL    HW283052   8.555   3.480  13.123 -0.0440  0.6315  0.2220
57708SOL     OW83053   3.444   6.686   2.623 -0.4294  0.3077  0.2821
57708SOL    HW183054   3.438   6.750   2.694 -1.3388  0.2834  0.2328
57708SOL    HW283055   3.529   6.643   2.638 -0.3190  0.7420  0.9748
57709SOL     OW83056  11.707   7.526  13.042  0.3207 -0.3524 -0.0691
57709SOL    HW183057  11.699   7.537  13.137 -1.6494 -0.2158 -0.2087
57709SOL    HW283058  11.731   7.613  13.010 -0.7717  0.0619  0.1731
57710SOL     OW83059   8.631   4.296   7.880 -0.0790  0.1559 -0.4536
57710SOL    HW183060   8.632   4.206   7.848 -1.1927  0.4550 -1.3824
57710SOL    HW283061   8.538   4.316   7.891  0.1955  0.5667  1.6153
57711SOL     OW83062  11.675   8.819  10.354  0.1235 -0.3483  0.4169
57711SOL    HW183063  11.758   8.851  10.389  0.0458 -1.2891  1.5116
57711SOL    HW283064  11.642   8.892  10.301  1.4938  0.1488  0.2043
57712SOL     OW83065  13.291   9.872   9.546  0.1786  0.7663 -0.0997
57712SOL    HW183066  13.225   9.900   9.609 -0.1663  1.9833 -0.9745
57712SOL    HW283067  13.334   9.953   9.517  1.0938  0.1315 -0.5954
57713SOL     OW83068   9.331   4.525   2.727 -1.0082 -0.2008  0.4116
57713SOL    HW183069   9.294   4.577   2.655  0.7844 -0.6702 -0.8949
57713SOL    HW283070   9.422   4.552   2.732 -0.4441 -2.0448  0.7938
57714SOL     OW83071   5.617   1.208   4.035 -0.2645 -0.1594 -1.0320
57714SOL    HW183072   5.595   1.120   4.066  1.1020 -0.9212 -2.1113
57714SOL    HW283073   5.646   1.195   3.944 -1.3110  1.5918 -1.6699
57715SOL     OW83074   5.957   5.938   4.695  0.1360  0.9087  0.0547
57715SOL    HW183075   5.930   5.848   4.681  2.2669  0.1967  0.2341
57715SOL    HW283076   5.937   5.982   4.612 -0.5551  0.1936 -0.1626
57716SOL     OW83077   2.534   2.597   3.502 -0.3287 -0.4963  0.0491
57716SOL    HW183078   2.461   2.656   3.487  1.1304  2.0105  1.9701
57716SOL    HW283079   2.611   2.654   3.504  1.3667 -2.6494  0.6399
57717SOL     OW83080   6.810  10.969  10.773  0.0663 -0.9146  0.2787
57717SOL    HW183081   6.752  11.045  10.777  0.7862 -0.3651  0.6933
57717SOL    HW283082   6.852  10.968  10.859  0.0214 -1.8250  0.2912
57718SOL     OW83083   2.067   5.880   7.562 -0.6239 -0.4503  0.3450
57718SOL    HW183084   1.974   5.886   7.584 -0.9857 -0.5783 -1.0634
57718SOL    HW283085   2.108   5.949   7.613 -1.9279  1.6089 -1.2249
57719SOL     OW83086   6.993   0.803   2.541 -0.6280  0.0554 -0.0612
57719SOL    HW183087   7.029   0.779   2.627 -0.1607  5.0382  1.4664
57719SOL    HW283088   7.053   0.870   2.508 -2.1498  0.0653 -3.2000
57720SOL     OW83089   3.818   7.808  12.517  0.3596  0.0427  0.2298
57720SOL    HW183090   3.761   7.825  12.592  1.8071  0.0063  1.3921
57720SOL    HW283091   3.779   7.858  12.446 -1.5070 -0.5502  0.7727
57721SOL     OW83092   6.307  11.454   0.984  0.5641  0.5073 -0.7445
57721SOL    HW183093   6.317  11.464   1.079  1.2458 -0.9611 -0.6366
57721SOL    HW283094   6.392  11.421   0.954 -0.2384 -0.9434 -1.5614
57722SOL     OW83095   8.040   0.261   6.226 -0.2819  0.0063 -0.1919
57722SOL    HW183096   7.979   0.212   6.281  0.4708  0.9093  1.4997
57722SOL    HW283097   8.051   0.205   6.148  0.0477 -2.2019  1.3476
57723SOL     OW83098   5.433  11.138  10.054 -0.2569 -0.1820 -0.4130
57723SOL    HW183099   5.386  11.164  10.133  0.4477 -2.3742  0.8117
57723SOL    HW283100   5.505  11.201  10.047  0.7599 -0.9691  1.8082
57724SOL     OW83101  12.460  13.161   9.724 -0.5628 -0.6801  0.6945
57724SOL    HW183102  12.431  13.070   9.727 -1.6773 -0.4381 -1.0279
57724SOL    HW283103  12.534  13.161   9.662 -1.2485 -0.2856 -0.1497
57725SOL     OW83104   7.296   6.739  12.065  0.0471 -0.1366 -0.2297
57725SOL    HW183105   7.289   6.718  11.972 -0.1621 -1.3606  0.0409
57725SOL    HW283106   7.212   6.711  12.102 -0.1319  0.9653  0.2240
57726SOL     OW83107   6.947  13.124   8.942  0.0154  0.1971 -0.0448
57726SOL    HW183108   6.931  13.077   9.024 -0.4360  0.8228  0.2344
57726SOL    HW283109   7.003  13.065   8.891  0.7024  0.0006  0.9131
57727SOL     OW83110   1.011  11.752  11.850  0.1542 -0.2933  0.1144
57727SOL    HW183111   1.003  11.810  11.774  0.3948  0.6183  0.7707
57727SOL    HW283112   0.935  11.695  11.844  0.2724 -0.3596 -0.9178
57728SOL     OW83113   3.671   4.997   8.935  0.1992  0.2275  1.0222
57728SOL    HW183114   3.721   4.998   8.853 -1.3320 -1.2541 -0.0044
57728SOL    HW283115   3.734   4.970   9.002  0.7842 -1.8897 -0.2795
57729SOL     OW83116   0.544   3.572   2.936 -0.1777 -0.2688  0.0542
57729SOL    HW183117   0.449   3.564   2.939 -0.4232  1.8716 -0.1565
57729SOL    HW283118   0.565   3.638   3.003  0.9973  0.2182 -0.7509
57730SOL     OW83119   7.655   9.834   9.699 -0.0633  0.1823  0.0051
57730SOL    HW183120   7.747   9.810   9.710 -0.0720  0.3298  0.4038
57730SOL    HW283121   7.617   9.826   9.786 -0.0176  1.8178  0.1964
57731SOL     OW83122   3.786  11.388   2.629  0.5112  0.0837 -0.0853
57731SOL    HW183123   3.835  11.380   2.711  0.2355  2.9085  0.4482
57731SOL    HW283124   3.709  11.334   2.641  0.5907  0.2822  1.4432
57732SOL     OW83125   3.181   0.870  11.750 -0.0724 -0.0978 -0.1251
57732SOL    HW183126   3.167   0.856  11.843  1.8174 -1.1828  0.0566
57732SOL    HW283127   3.105   0.830  11.708  0.1699 -1.7499  0.8844
57733SOL     OW83128  12.175   2.546   1.876  0.5663  0.2674 -0.1600
57733SOL    HW183129  12.084   2.552   1.907  1.5385  1.9831  2.7166
57733SOL    HW283130  12.215   2.629   1.901  3.0118 -0.5042 -1.1964
57734SOL     OW83131  12.651   8.991   7.345  0.5958 -0.1678 -0.0652
57734SOL    HW183132  12.585   8.973   7.412  0.1441 -1.6371 -0.8480
57734SOL    HW283133  12.613   8.955   7.265  2.1697 -0.6729 -0.6175
57735SOL     OW83134  10.423   7.338   5.716  0.1230 -0.0463 -0.3591
57735SOL    HW183135  10.441   7.425   5.752  1.8228 -0.6622  0.4035
57735SOL    HW283136  10.370   7.295   5.784 -1.5671  0.6702 -1.1619
57736SOL     OW83137   5.508   2.917  12.406  0.0756 -0.3196  0.4605
57736SOL    HW183138   5.527   2.942  12.316  1.6666  2.8530  1.4986
57736SOL    HW283139   5.530   2.824  12.411  2.5221  0.0318 -1.8326
57737SOL     OW83140   5.137   1.117   6.634 -0.7318  0.2583 -0.7437
57737SOL    HW183141   5.089   1.081   6.709  1.5768 -0.6104  0.3905
57737SOL    HW283142   5.156   1.208   6.659 -0.6500  0.2085 -0.6248
57738SOL     OW83143  11.801  10.225   2.293 -0.1373  0.4752  0.4168
57738SOL    HW183144  11.742  10.150   2.281 -0.2688  0.7587 -0.8632
57738SOL    HW283145  11.745  10.294   2.328 -0.4291  0.5199 -0.1155
57739SOL     OW83146  12.988   4.099   3.838  0.4914  0.2455  0.2419
57739SOL    HW183147  12.957   4.010   3.818 -0.3024  0.9026 -1.6279
57739SOL    HW283148  13.072   4.085   3.883  0.8914 -1.4316 -0.9212
57740SOL     OW83149   7.059  13.300  11.533 -0.1987 -0.3971  0.0544
57740SOL    HW183150   7.054  13.277  11.626  0.1024 -0.1779  0.1242
57740SOL    HW283151   7.144  13.342  11.523 -0.8053  0.8440 -0.0398
57741SOL     OW83152   0.291   2.675  10.078 -0.0399 -0.0939  0.3068
57741SOL    HW183153   0.289   2.587  10.115  1.3449  0.3475  1.5219
57741SOL    HW283154   0.223   2.674  10.010  0.0449 -2.1256  0.1882
57742SOL     OW83155  12.913   9.232  13.112  0.2882 -0.0497 -0.3987
57742SOL    HW183156  12.913   9.174  13.188 -2.0810 -1.0945 -1.1066
57742SOL    HW283157  12.881   9.177  13.040 -3.3743  2.3053 -0.8516
57743SOL     OW83158   3.979   6.251  12.705  0.0437 -0.4005  0.0205
57743SOL    HW183159   3.904   6.257  12.646 -0.3896  0.8046  0.6625
57743SOL    HW283160   4.047   6.305  12.664 -0.4988  1.0291  0.9403
57744SOL     OW83161  10.171  10.771   6.674  0.4496  0.1292  0.8144
57744SOL    HW183162  10.230  10.697   6.661 -0.4986 -0.2163 -2.4111
57744SOL    HW283163  10.208  10.841   6.621 -2.0402 -0.2071 -1.5943
57745SOL     OW83164   6.056   3.360   5.926  0.1841 -0.2219 -0.4816
57745SOL    HW183165   6.067   3.271   5.893 -2.8487 -0.3033 -1.5835
57745SOL    HW283166   6.030   3.411   5.850 -1.6657  0.7931  0.7585
57746SOL     OW83167   0.386  11.616   0.509  0.1719  0.3406  0.0190
57746SOL    HW183168   0.412  11.702   0.477  2.8067 -0.0204  0.9082
57746SOL    HW283169   0.415  11.615   0.600  2.1571 -2.1473 -0.5169
57747SOL     OW83170   4.198   7.845   8.455  0.1238  0.2305  0.2621
57747SOL    HW183171   4.187   7.755   8.484  0.6200  0.0689 -0.0388
57747SOL    HW283172   4.292   7.862   8.464  0.0940  0.5821 -0.0674
57748SOL     OW83173   8.649  11.875   2.191  0.5406 -0.1634  0.4732
57748SOL    HW183174   8.633  11.781   2.187 -0.7479 -0.0164  1.6040
57748SOL    HW283175   8.596  11.911   2.119 -0.4165 -0.1539  1.1596
57749SOL     OW83176   0.125   8.068   1.068 -0.2061 -0.6060 -0.4451
57749SOL    HW183177   0.105   8.161   1.081 -0.5331 -0.7514  0.1622
57749SOL    HW283178   0.052   8.036   1.015 -0.8330 -0.8088  0.5130
57750SOL     OW83179   7.220   7.549   9.578 -0.0224  0.0232 -0.1346
57750SOL    HW183180   7.250   7.553   9.488 -1.4396 -0.7472 -0.6748
57750SOL    HW283181   7.295   7.578   9.630  0.3547  1.9315 -1.6306
57751SOL     OW83182  10.857   2.673  12.213 -0.4308 -0.0307  0.4363
57751SOL    HW183183  10.796   2.694  12.142 -0.1038 -0.1118  0.1292
57751SOL    HW283184  10.926   2.622  12.171  0.2330  0.6833  0.6292
57752SOL     OW83185   6.329  13.023   8.772 -0.1732 -0.3011 -0.3422
57752SOL    HW183186   6.274  13.041   8.695 -1.4286  1.4728  0.8823
57752SOL    HW283187   6.401  13.086   8.765 -0.3568 -0.0518 -0.0161
57753SOL     OW83188  10.492   0.822   1.322 -0.1598  0.2150  0.6617
57753SOL    HW183189  10.564   0.822   1.385  0.3518  1.3772  0.1026
57753SOL    HW283190  10.534   0.834   1.237 -1.0150  1.1681  0.3506
57754SOL     OW83191   6.251   4.274   4.963 -0.6485 -0.2157  0.1630
57754SOL    HW183192   6.285   4.317   4.885  0.2393 -1.0544  0.0809
57754SOL    HW283193   6.207   4.344   5.012 -1.0276  0.3553 -0.9719
57755SOL     OW83194   1.662   8.448   0.250 -0.3187 -0.3794 -0.1761
57755SOL    HW183195   1.738   8.504   0.237  0.0735 -0.9678 -0.4284
57755SOL    HW283196   1.698   8.364   0.279 -0.9056 -0.4862  0.2724
57756SOL     OW83197  10.515  13.205   5.664  0.2500  0.0941 -0.3263
57756SOL    HW183198  10.525  13.274   5.729 -1.2873  0.0338  0.0062
57756SOL    HW283199  10.425  13.174   5.676  0.1817 -0.4202 -1.9849
57757SOL     OW83200   6.318   3.129   3.866 -0.1867 -0.2032  0.9474
57757SOL    HW183201   6.246   3.179   3.827 -0.4445 -0.7079  0.7657
57757SOL    HW283202   6.313   3.149   3.959  0.2654  0.7982  0.7689
57758SOL     OW83203   6.190   1.864   1.155 -0.0209 -0.0374  0.6059
57758SOL    HW183204   6.241   1.872   1.235  1.6611  1.7932 -0.5462
57758SOL    HW283205   6.119   1.927   1.165 -1.6587 -1.9791  1.8541
57759SOL     OW83206   8.189   6.584   5.778  0.7126 -0.7645  0.3441
57759SOL    HW183207   8.257   6.632   5.731 -1.9535  2.0825 -0.9530
57759SOL    HW283208   8.143   6.535   5.710 -1.3379  1.0483  0.3388
57760SOL     OW83209  11.490   8.580   6.374 -0.0135  0.4463 -0.1047
57760SOL    HW183210  11.473   8.492   6.408  0.7874 -0.4063 -1.7445
57760SOL    HW283211  11.584   8.580   6.355 -0.4061  0.7600 -2.3842
57761SOL     OW83212   1.315   8.429   5.438 -0.4762 -0.1715 -0.0885
57761SOL    HW183213   1.321   8.398   5.348 -2.1556  1.1812 -0.7285
57761SOL    HW283214   1.226   8.463   5.446 -0.0665  0.6196  1.8038
57762SOL     OW83215   5.014   3.445  11.451 -0.3083  0.1656 -0.2042
57762SOL    HW183216   5.042   3.536  11.439  0.1751  0.1085  0.5002
57762SOL    HW283217   4.930   3.452  11.497 -0.2831  0.2517 -0.1722
57763SOL     OW83218   6.429   0.158  11.094 -0.0823 -0.1068 -0.3336
57763SOL    HW183219   6.419   0.246  11.128 -2.1365 -0.5857  0.4302
57763SOL    HW283220   6.406   0.101  11.167 -2.1042 -1.2021 -1.7408
57764SOL     OW83221   2.734   0.431  11.390 -0.2845  0.4172  0.5416
57764SOL    HW183222   2.699   0.347  11.419  0.1816 -0.0790 -0.3291
57764SOL    HW283223   2.667   0.466  11.331  1.0877 -1.0412 -2.0168
57765SOL     OW83224   4.562  12.415   4.319  0.3708  0.0154 -0.4617
57765SOL    HW183225   4.574  12.357   4.244 -0.6185 -0.5003 -0.2349
57765SOL    HW283226   4.480  12.387   4.359  0.5719  0.6769  0.4643
57766SOL     OW83227  12.628   7.257   2.277 -0.2872  0.1460 -0.0576
57766SOL    HW183228  12.616   7.233   2.370 -1.7860  1.5331  0.1467
57766SOL    HW283229  12.713   7.302   2.275 -0.7341  1.0680  0.8624
57767SOL     OW83230   5.772   9.134  11.538  0.0553 -0.4105 -0.0077
57767SOL    HW183231   5.854   9.116  11.492  0.3115  0.9569 -0.1406
57767SOL    HW283232   5.763   9.062  11.600  2.4285  0.3865  1.4304
57768SOL     OW83233   7.430  13.130  11.551  0.1839 -0.1512  0.2230
57768SOL    HW183234   7.400  13.221  11.555  0.6402  0.1086 -1.4613
57768SOL    HW283235   7.525  13.136  11.543  0.3295 -0.8289  1.2737
57769SOL     OW83236   3.168   6.252   9.891  0.3363 -0.0890 -0.1299
57769SOL    HW183237   3.244   6.264   9.948  1.7026  0.3160 -1.9460
57769SOL    HW283238   3.127   6.339   9.887  0.7294  0.0844 -0.4211
57770SOL     OW83239   4.798   8.976   7.401  0.2992 -0.5172  0.1717
57770SOL    HW183240   4.853   8.910   7.358  1.3695  0.5722 -0.1880
57770SOL    HW283241   4.714   8.932   7.413  0.8510 -1.8119 -0.4223
57771SOL     OW83242   5.427   7.426   8.235 -0.0891  0.0178  0.2410
57771SOL    HW183243   5.460   7.516   8.237 -0.3318  0.0929  1.2906
57771SOL    HW283244   5.501   7.374   8.207  0.2668  0.4636  0.3390
57772SOL     OW83245   8.706   1.267  12.772 -0.0408 -0.1686  0.0600
57772SOL    HW183246   8.746   1.180  12.774  1.0636  0.2960  2.8149
57772SOL    HW283247   8.612   1.250  12.781  0.0394 -1.0955 -0.7082
57773SOL     OW83248  10.453   5.098   8.074  0.1139 -0.4132 -0.4177
57773SOL    HW183249  10.366   5.135   8.092 -0.9584 -2.9325  0.0400
57773SOL    HW283250  10.441   5.004   8.084  3.3074 -0.7670  1.2912
57774SOL     OW83251  11.543   8.616   5.298 -0.5137  0.0716 -0.0236
57774SOL    HW183252  11.526   8.710   5.305 -2.1090 -0.1545 -0.4371
57774SOL    HW283253  11.522   8.581   5.384  1.2613  0.2201  0.5127
57775SOL     OW83254  10.286   9.483  11.391 -1.0900  0.5292  0.9268
57775SOL    HW183255  10.349   9.551  11.413  1.2998 -1.0756 -0.4271
57775SOL    HW283256  10.203   9.529  11.380  0.3299  3.1638  0.4396
57776SOL     OW83257   3.450   3.586   8.703  0.7267 -0.3715 -0.9523
57776SOL    HW183258   3.416   3.529   8.634  0.2848 -0.7926 -0.4044
57776SOL    HW283259   3.523   3.536   8.741  0.4368 -0.5238 -0.5744
57777SOL     OW83260   4.282   3.253  10.698  0.4708  0.2807  0.2935
57777SOL    HW183261   4.319   3.187  10.639  0.5748  1.1332 -0.6081
57777SOL    HW283262   4.350   3.268  10.764  0.6465 -0.1385  0.2114
57778SOL     OW83263   6.837   8.990   2.676  0.3104  0.0804 -0.0494
57778SOL    HW183264   6.798   8.999   2.590  1.1783 -0.7672 -0.5467
57778SOL    HW283265   6.769   8.949   2.730  0.6016 -1.7583 -1.0059
57779SOL     OW83266  12.224   4.619   6.378 -0.5270 -0.2401  0.1615
57779SOL    HW183267  12.132   4.627   6.406 -0.8442 -0.6100 -0.7527
57779SOL    HW283268  12.219   4.597   6.286  0.4980  3.1788 -0.8642
57780SOL     OW83269   2.352   7.408   9.435  0.6738 -0.1058 -0.3009
57780SOL    HW183270   2.259   7.400   9.454  1.0153 -1.5288  1.0011
57780SOL    HW283271   2.380   7.318   9.415  1.6935  0.3568 -1.0540
57781SOL     OW83272  12.857   4.015   0.473 -0.1629 -0.0985 -0.1531
57781SOL    HW183273  12.947   4.003   0.502 -0.4512 -0.5084  0.5923
57781SOL    HW283274  12.853   3.970   0.388  0.0578 -1.0351  0.3210
57782SOL     OW83275   3.551   4.284   3.895 -0.2256  0.2702 -0.1220
57782SOL    HW183276   3.518   4.261   3.808  1.3866 -0.7729 -0.5131
57782SOL    HW283277   3.594   4.204   3.926 -1.2261  0.4515  1.8900
57783SOL     OW83278  10.289   2.483   2.316 -0.2978  0.1035 -0.5183
57783SOL    HW183279  10.310   2.413   2.377  0.0896 -1.8513 -2.7555
57783SOL    HW283280  10.201   2.463   2.285 -1.0441  1.8358  0.3150
57784SOL     OW83281   7.125   9.097   9.633 -0.2216  0.1863  0.2806
57784SOL    HW183282   7.106   9.032   9.564 -0.5474 -2.9673  3.0833
57784SOL    HW283283   7.221   9.097   9.640 -0.2645 -1.2571  1.2786
57785SOL     OW83284   1.343   8.488   2.696  0.3145  0.0217 -0.1872
57785SOL    HW183285   1.315   8.550   2.764 -0.8034  1.7082 -2.0571
57785SOL    HW283286   1.264   8.439   2.674  0.2871  0.4949 -1.2170
57786SOL     OW83287  13.104   7.513  12.399  0.0938  0.0159  0.2048
57786SOL    HW183288  13.104   7.446  12.467  0.9181  0.7327  0.9314
57786SOL    HW283289  13.053   7.475  12.327 -0.4696 -0.8972  1.0754
57787SOL     OW83290   0.371  12.539  12.867 -0.2465 -0.1356 -0.1159
57787SOL    HW183291   0.328  12.481  12.804 -0.3944 -0.8994  0.6633
57787SOL    HW283292   0.309  12.610  12.881 -0.1104  0.1697 -1.0021
57788SOL     OW83293   8.391  10.313  10.136  0.1331  0.4803  0.5026
57788SOL    HW183294   8.331  10.319  10.210 -0.8764 -0.2053 -0.2403
57788SOL    HW283295   8.426  10.224  10.140 -0.3206  0.2712 -0.1397
57789SOL     OW83296   7.724  11.592   8.574 -0.1255 -0.0614 -0.3474
57789SOL    HW183297   7.633  11.574   8.549 -0.5025  0.4739  0.5775
57789SOL    HW283298   7.735  11.550   8.659  0.1861  0.6901  0.0002
57790SOL     OW83299   4.016   8.938  11.796 -0.4483  0.6664  0.0571
57790SOL    HW183300   4.048   8.980  11.716 -0.9945 -0.4747 -0.7946
57790SOL    HW283301   4.040   8.999  11.866  1.4633  0.9597 -0.7783
57791SOL     OW83302   1.998   5.362   1.522  0.0897 -0.3619  0.5289
57791SOL    HW183303   1.987   5.275   1.484  0.5274 -0.4336  0.5678
57791SOL    HW283304   2.034   5.346   1.609  0.8073 -0.1112  0.2841
57792SOL     OW83305   3.736   7.449   1.356 -0.6031 -0.4861 -0.3842
57792SOL    HW183306   3.651   7.464   1.315 -0.3923  2.1515 -0.0189
57792SOL    HW283307   3.799   7.486   1.295  0.0639 -0.2758  0.4238
57793SOL     OW83308  11.436   2.819  11.759  0.1773  0.3401  0.6445
57793SOL    HW183309  11.371   2.751  11.743  0.5636 -0.1898  1.3177
57793SOL    HW283310  11.385   2.899  11.770 -0.3498 -0.0332  0.9445
57794SOL     OW83311  13.138   5.037   9.569 -0.0143 -0.2921 -0.6939
57794SOL    HW183312  13.084   5.113   9.587 -0.9139 -1.2944  1.1425
57794SOL    HW283313  13.177   5.015   9.654 -0.1257 -2.1115 -1.0692
57795SOL     OW83314   2.982   6.625  11.680 -0.2622  0.1113  0.6259
57795SOL    HW183315   2.931   6.606  11.759 -0.6834  1.2032  0.6321
57795SOL    HW283316   3.032   6.703  11.703  2.5054 -1.6590  1.0983
57796SOL     OW83317  10.818  11.270   1.890 -0.5635  0.0082 -0.0951
57796SOL    HW183318  10.795  11.348   1.840 -1.2472 -0.1876 -0.1074
57796SOL    HW283319  10.911  11.280   1.910 -0.3402  0.2118 -1.1797
57797SOL     OW83320  11.640  12.556   0.226 -0.4179  0.0930 -0.2845
57797SOL    HW183321  11.620  12.463   0.233  0.3359  0.0377  2.1391
57797SOL    HW283322  11.706  12.561   0.157 -0.5095 -1.1655 -0.4915
57798SOL     OW83323   2.461  11.637   6.385  0.0355  0.6028 -0.1602
57798SOL    HW183324   2.430  11.638   6.476 -1.5482  0.0799 -0.6523
57798SOL    HW283325   2.429  11.720   6.348 -1.7441 -0.3611 -0.9367
57799SOL     OW83326  10.918   3.024   5.162  0.1309  0.0448  0.5993
57799SOL    HW183327  11.007   3.026   5.196 -0.3127 -0.6088  1.8834
57799SOL    HW283328  10.911   2.940   5.117  0.8052  1.0282 -1.4666
57800SOL     OW83329   5.681   1.997   7.476 -0.4400 -0.1794  0.2003
57800SOL    HW183330   5.703   1.964   7.389 -0.6165  0.4743 -0.1057
57800SOL    HW283331   5.761   2.041   7.505 -0.7826  0.7304 -0.1935
57801SOL     OW83332   5.585   8.813   0.321 -0.4439 -0.5213 -0.1341
57801SOL    HW183333   5.496   8.779   0.309 -1.0263  0.8833  0.0342
57801SOL    HW283334   5.602   8.802   0.414 -0.5641 -0.4976 -0.1089
57802SOL     OW83335   6.394   9.954   3.030  0.5446 -0.2039  0.6789
57802SOL    HW183336   6.452  10.010   3.082  0.7047 -0.7324  1.0648
57802SOL    HW283337   6.419   9.865   3.053 -0.4942 -0.4420  0.9230
57803SOL     OW83338   2.197   0.010  10.005 -0.2302 -0.8037 -0.1895
57803SOL    HW183339   2.160   0.028   9.919 -1.3866 -1.4004  0.1554
57803SOL    HW283340   2.291   0.011   9.992 -0.1458  3.6749 -0.5363
57804SOL     OW83341   3.533   0.466   5.300 -0.2689 -0.1865 -0.3742
57804SOL    HW183342   3.593   0.477   5.373  0.5682 -1.3249 -0.8583
57804SOL    HW283343   3.458   0.419   5.336  0.8433 -2.1881 -0.5369
57805SOL     OW83344  12.338   4.994   0.686  0.6726 -0.1484  0.0833
57805SOL    HW183345  12.309   4.954   0.604 -1.9216  0.6086  0.5453
57805SOL    HW283346  12.320   4.927   0.753 -0.7360  0.5438  0.4501
57806SOL     OW83347   9.023  10.936  11.257  0.2390  0.6103  0.1750
57806SOL    HW183348   9.015  10.841  11.246  0.3135  0.6769 -0.5045
57806SOL    HW283349   8.935  10.964  11.284  0.4720  0.2262  1.3869
57807SOL     OW83350   9.821  11.436   7.855  0.1669  0.1234 -0.2620
57807SOL    HW183351   9.837  11.342   7.852 -0.2733  0.0299  0.1688
57807SOL    HW283352   9.904  11.475   7.831 -0.0606 -0.3860 -2.0396
57808SOL     OW83353   9.100   6.594   6.791 -0.1492  0.3845 -1.1910
57808SOL    HW183354   9.067   6.630   6.873  0.4793 -0.7249 -0.4400
57808SOL    HW283355   9.139   6.670   6.746  0.3004  0.8431 -0.0666
57809SOL     OW83356   0.963  13.215   7.297  0.1658  0.2703 -0.0002
57809SOL    HW183357   0.917  13.137   7.327  0.1753  0.1801 -0.2124
57809SOL    HW283358   0.923  13.235   7.212 -0.1745  0.7850  0.2721
57810SOL     OW83359   5.133  10.922  12.746  0.1789 -0.2035 -0.2789
57810SOL    HW183360   5.078  10.972  12.806  0.4330  0.3720 -0.5148
57810SOL    HW283361   5.072  10.869  12.694  0.0324 -2.2162  1.7732
57811SOL     OW83362   4.056   5.659   1.811 -0.4339 -0.1284  0.2394
57811SOL    HW183363   3.986   5.712   1.848 -0.4309 -0.5867  0.9034
57811SOL    HW283364   4.102   5.622   1.886 -0.7701 -1.5172 -0.2142
57812SOL     OW83365  11.684  11.906   1.098 -0.5375  0.6918 -0.8889
57812SOL    HW183366  11.612  11.889   1.159  1.0683 -3.9952  0.1354
57812SOL    HW283367  11.640  11.923   1.015 -3.0964 -3.1047 -0.6031
57813SOL     OW83368   7.929   5.352  10.111  0.0950  0.0944 -0.3155
57813SOL    HW183369   8.016   5.391  10.109 -0.2606  0.9478  0.2444
57813SOL    HW283370   7.873   5.420  10.150 -1.1841  0.2901 -2.3561
57814SOL     OW83371   1.623   8.553   0.761 -0.0046 -0.3332 -0.7611
57814SOL    HW183372   1.666   8.469   0.778 -0.8006 -0.3265  1.6534
57814SOL    HW283373   1.680   8.618   0.803 -1.0897 -0.0722  0.3527
57815SOL     OW83374  11.904   7.839  12.785  0.0231  0.0796 -0.3794
57815SOL    HW183375  11.850   7.766  12.754  1.5157 -2.4320  2.3474
57815SOL    HW283376  11.884   7.846  12.878  1.5877  1.6756 -0.1047
57816SOL     OW83377  10.021   8.715   7.859 -0.2340 -0.3184 -0.1257
57816SOL    HW183378  10.012   8.742   7.767 -0.5607  1.3505  0.3542
57816SOL    HW283379  10.033   8.621   7.855  0.5716 -0.1854 -1.9411
57817SOL     OW83380   6.557  11.496   3.501  0.0113 -0.3312 -0.4251
57817SOL    HW183381   6.589  11.578   3.464 -0.9544 -0.3711 -1.3892
57817SOL    HW283382   6.463  11.509   3.512 -0.1547 -1.3083 -0.5990
57818SOL     OW83383   7.868   0.293   3.278  0.6683  0.2561 -0.8345
57818SOL    HW183384   7.958   0.316   3.252  0.8238  0.8731  0.2194
57818SOL    HW283385   7.848   0.352   3.350  0.4679 -1.7843  0.8796
57819SOL     OW83386   6.534   0.454   8.785  0.5034  0.1159 -0.6216
57819SOL    HW183387   6.461   0.451   8.724 -0.7471 -0.5999  0.8457
57819SOL    HW283388   6.547   0.548   8.802 -0.3437  0.2354 -0.5917
57820SOL     OW83389   4.927   4.886   1.504  0.3562  0.3516 -0.7756
57820SOL    HW183390   4.849   4.860   1.455 -0.8246  1.5581  0.3908
57820SOL    HW283391   4.983   4.928   1.438 -0.0789 -0.2879 -1.5715
57821SOL     OW83392   6.593  10.166   6.362  0.3750  0.4416  0.3726
57821SOL    HW183393   6.523  10.182   6.425 -0.5049 -1.5349 -0.0186
57821SOL    HW283394   6.673  10.194   6.406 -0.4027  0.5377  1.7666
57822SOL     OW83395   9.198   1.540   1.110 -0.4196 -0.0947 -0.7615
57822SOL    HW183396   9.250   1.460   1.111 -0.3514 -0.0499  0.0442
57822SOL    HW283397   9.108   1.510   1.095  0.0171 -0.0333 -4.0828
57823SOL     OW83398   9.290  12.191   7.183 -0.4431 -0.4885  0.0271
57823SOL    HW183399   9.199  12.163   7.190 -0.4799 -0.0341  2.5595
57823SOL    HW283400   9.299  12.258   7.251  1.7049 -0.3259 -0.3610
57824SOL     OW83401   8.225  12.041   1.093  0.1733 -0.2620 -0.7137
57824SOL    HW183402   8.275  12.009   1.017 -1.0642 -1.7016 -0.9657
57824SOL    HW283403   8.272  12.007   1.169  0.8726  0.3793 -0.8371
57825SOL     OW83404   0.319   4.411  10.065 -0.2276  0.1057 -0.1158
57825SOL    HW183405   0.402   4.452  10.090  0.1082  0.5833 -1.8945
57825SOL    HW283406   0.343   4.343  10.002 -1.1368 -0.0938 -0.2601
57826SOL     OW83407  13.185  10.171  11.931 -0.2446  0.6961  0.3498
57826SOL    HW183408  13.259  10.123  11.966 -1.0899 -1.2514 -0.4174
57826SOL    HW283409  13.109  10.134  11.976 -1.1173 -0.1735 -1.7284
57827SOL     OW83410   3.563   8.310   5.772 -0.0180  0.5473  0.5238
57827SOL    HW183411   3.543   8.308   5.866 -0.1209  0.0008  0.4953
57827SOL    HW283412   3.503   8.375   5.736 -2.3069 -1.5263  0.3175
57828SOL     OW83413  11.118   1.048   3.949  0.2520  0.2598  0.0408
57828SOL    HW183414  11.088   1.043   4.039  1.0403 -1.9913  0.2434
57828SOL    HW283415  11.127   1.142   3.931  0.8488  0.7533  2.5581
57829SOL     OW83416  11.830   2.282  12.503  0.1678  0.1524  0.2890
57829SOL    HW183417  11.753   2.225  12.503  0.4762 -0.2792  0.0392
57829SOL    HW283418  11.854   2.290  12.595 -0.0792  0.1478  0.3540
57830SOL     OW83419   2.009   3.972  11.289 -0.4986  0.0903  0.0062
57830SOL    HW183420   2.087   3.974  11.344 -0.3766 -0.5352 -0.1291
57830SOL    HW283421   1.997   3.879  11.269 -0.0769  0.3718 -1.6681
57831SOL     OW83422   1.803   5.626   5.513  0.1888  0.2728 -0.6734
57831SOL    HW183423   1.892   5.616   5.479 -0.0720  0.0286 -1.3183
57831SOL    HW283424   1.812   5.678   5.592  1.2000 -1.8058  0.6652
57832SOL     OW83425   2.500   2.876   2.702 -0.0617  0.1190 -0.2353
57832SOL    HW183426   2.429   2.829   2.659 -1.2150  0.1691  1.5111
57832SOL    HW283427   2.457   2.928   2.770  1.4893  1.3876 -0.1684
57833SOL     OW83428   9.667  10.560  12.132 -0.2135  0.3723 -0.0747
57833SOL    HW183429   9.725  10.582  12.205  1.0559 -0.6384 -0.7347
57833SOL    HW283430   9.581  10.591  12.160  0.0337 -0.7757  2.2408
57834SOL     OW83431   9.972   7.954   6.816  0.3575  0.0632 -0.6391
57834SOL    HW183432   9.898   8.015   6.818  0.1261 -0.1517 -2.0737
57834SOL    HW283433  10.048   8.009   6.838 -0.0854  0.4650 -0.0539
57835SOL     OW83434   1.870   0.421   1.169  0.4009  0.2750 -0.1676
57835SOL    HW183435   1.949   0.466   1.138  0.3663  0.1500 -0.4455
57835SOL    HW283436   1.898   0.376   1.249  0.7639 -0.2376 -0.5718
57836SOL     OW83437  11.878   1.156   9.720  0.0229 -0.5943  0.1994
57836SOL    HW183438  11.921   1.183   9.640  3.5856 -2.6725  1.2117
57836SOL    HW283439  11.793   1.121   9.692  0.2384  0.7250 -2.3150
57837SOL     OW83440   5.294   4.084   3.746  0.8321 -0.3152  0.3626
57837SOL    HW183441   5.268   4.176   3.743  0.8942 -0.3061 -0.0795
57837SOL    HW283442   5.366   4.081   3.809  0.9760 -0.0176  0.2194
57838SOL     OW83443   2.279   1.853   7.250  0.0238 -0.5216 -0.2375
57838SOL    HW183444   2.311   1.766   7.227  2.9342 -0.2047  2.0837
57838SOL    HW283445   2.274   1.852   7.346 -1.5887  1.3624 -0.2306
57839SOL     OW83446   0.669  11.276  11.404 -0.0569  0.3763 -0.0343
57839SOL    HW183447   0.760  11.245  11.398 -0.5413 -1.0440 -0.5744
57839SOL    HW283448   0.639  11.280  11.313 -0.6102  0.5957  0.1542
57840SOL     OW83449   5.794   2.507  10.608 -0.1666  0.2551  0.0466
57840SOL    HW183450   5.733   2.565  10.653 -0.7987 -0.3476  0.0002
57840SOL    HW283451   5.744   2.426  10.595 -0.1213  0.4980 -1.9875
57841SOL     OW83452  10.355   0.860   3.717 -0.1511  0.7410  0.5434
57841SOL    HW183453  10.303   0.938   3.697 -0.9160 -0.1726 -1.2179
57841SOL    HW283454  10.304   0.787   3.683  2.3073 -0.2049 -1.4328
57842SOL     OW83455  13.122  10.508   0.001 -0.7023 -0.8785 -0.1975
57842SOL    HW183456  13.033  10.505  -0.032 -1.2201  0.6197  0.9442
57842SOL    HW283457  13.112  10.499   0.096  0.4150 -1.2027 -0.0933
57843SOL     OW83458  13.256   2.479   4.373  0.2619 -0.3763 -1.1284
57843SOL    HW183459  13.294   2.538   4.308 -0.0365 -0.4136 -1.3395
57843SOL    HW283460  13.199   2.421   4.322 -1.4092  0.7501 -0.6394
57844SOL     OW83461   4.268  12.052  10.481 -0.3754  0.5779 -0.3475
57844SOL    HW183462   4.268  11.992  10.406  2.0001  0.8936 -0.6755
57844SOL    HW283463   4.302  12.134  10.445 -1.2108  1.3849  0.6481
57845SOL     OW83464   7.637  11.776  12.175 -0.0836  0.0137  0.4779
57845SOL    HW183465   7.718  11.742  12.136  0.1179 -0.5481  1.3713
57845SOL    HW283466   7.573  11.707  12.163 -0.1846  0.0865  0.5942
57846SOL     OW83467  12.104   7.740   8.670 -0.2236 -0.4917 -0.0537
57846SOL    HW183468  12.123   7.658   8.625 -0.3679 -0.9153  0.6395
57846SOL    HW283469  12.023   7.772   8.629  1.2305  0.7169 -2.1966
57847SOL     OW83470   6.892   5.769   9.824 -0.4519 -0.3539 -0.0399
57847SOL    HW183471   6.943   5.848   9.803 -1.9835  1.0060  1.1315
57847SOL    HW283472   6.949   5.719   9.882 -0.4177  1.1399  1.2641
57848SOL     OW83473   1.467   0.423   6.502  0.3296 -0.0630 -0.4176
57848SOL    HW183474   1.454   0.394   6.592  3.2549 -0.5638 -0.0637
57848SOL    HW283475   1.402   0.373   6.452  0.2064 -1.5721  1.1350
57849SOL     OW83476   3.215   0.782   4.187 -0.1017  0.1983 -0.4623
57849SOL    HW183477   3.288   0.731   4.151 -0.7546 -1.7925  0.8519
57849SOL    HW283478   3.241   0.873   4.175  2.6885 -0.4258  0.1056
57850SOL     OW83479   9.551   2.574  10.607  1.0214  0.1257  0.3834
57850SOL    HW183480   9.463   2.608  10.594  1.8472  1.8483 -1.0780
57850SOL    HW283481   9.602   2.649  10.639  1.9233 -0.9028  1.4723
57851SOL     OW83482   9.398  10.601   1.944 -0.5178 -0.4339  0.0884
57851SOL    HW183483   9.425  10.551   1.867  1.0340  0.5593 -0.0776
57851SOL    HW283484   9.314  10.564   1.970  0.3955 -2.8548 -0.2249
57852SOL     OW83485   0.630   4.026   4.974 -0.1011  0.2074 -0.1348
57852SOL    HW183486   0.721   4.054   4.980  0.0372 -0.1093 -0.6867
57852SOL    HW283487   0.618   3.969   5.050  0.2213  0.0983 -0.1632
57853SOL     OW83488   8.453  10.934   6.611 -0.5798 -0.5645  0.4156
57853SOL    HW183489   8.431  10.863   6.670 -3.5360 -2.1725 -2.2909
57853SOL    HW283490   8.481  10.890   6.530  1.6041  1.4742 -0.0614
57854SOL     OW83491   2.333   2.968   2.870  0.1895 -0.3507 -0.0428
57854SOL    HW183492   2.247   2.937   2.898  0.5057 -1.5883 -0.3999
57854SOL    HW283493   2.314   3.043   2.814 -0.5463  0.7157  1.5520
57855SOL     OW83494   3.049  12.570   6.445  0.3756  0.0276 -0.4434
57855SOL    HW183495   3.031  12.611   6.530  1.8085  1.3327 -0.7106
57855SOL    HW283496   2.963  12.543   6.412 -0.4239  1.1870  0.5983
57856SOL     OW83497   7.924  12.012   0.434 -0.0328  0.0593 -0.4722
57856SOL    HW183498   7.928  11.926   0.477  1.4420  0.8725  1.1562
57856SOL    HW283499   7.924  11.992   0.341  1.6077 -1.7220 -0.1632
57857SOL     OW83500  13.160  10.806  11.089 -0.1839 -0.3091 -0.1125
57857SOL    HW183501  13.088  10.767  11.040 -1.6593  0.9273  1.0017
57857SOL    HW283502  13.163  10.757  11.171 -0.4169  0.2945  0.2593
57858SOL     OW83503   1.498   2.212   3.666  0.7426 -0.3376 -0.3882
57858SOL    HW183504   1.554   2.274   3.713 -3.1302  2.0624  1.6165
57858SOL    HW283505   1.483   2.253   3.581  0.2601  0.2218 -0.0454
57859SOL     OW83506  10.233   6.100  11.134  0.8837  0.3869  0.3566
57859SOL    HW183507  10.258   6.117  11.043 -1.2932  0.5285 -0.2626
57859SOL    HW283508  10.225   6.186  11.174  1.2885  0.3459  0.5293
57860SOL     OW83509  11.531   1.438   5.433  0.7595 -0.2345  0.0666
57860SOL    HW183510  11.566   1.485   5.357  2.4825 -1.8913 -0.2632
57860SOL    HW283511  11.448   1.401   5.403  0.1912  1.1985 -0.1754
57861SOL     OW83512   8.795   6.515   4.648  0.9051 -0.0682 -0.8188
57861SOL    HW183513   8.805   6.561   4.564 -0.3494  1.6311 -0.1164
57861SOL    HW283514   8.704   6.534   4.674  1.4958  0.0852  1.2656
57862SOL     OW83515   6.542   2.352   7.178 -1.0625 -0.3426  0.4230
57862SOL    HW183516   6.495   2.401   7.245 -1.1868  1.2080 -0.7507
57862SOL    HW283517   6.490   2.272   7.166 -1.5231 -0.2244  1.5097
57863SOL     OW83518   4.453   1.361   1.841  0.6166  0.6147  0.0589
57863SOL    HW183519   4.461   1.266   1.854  3.4193  0.7895  0.3166
57863SOL    HW283520   4.384   1.388   1.901  0.2373 -1.1699  0.4825
57864SOL     OW83521   0.823  11.533   9.572 -0.1741 -0.0815 -0.6260
57864SOL    HW183522   0.835  11.628   9.574  0.2094 -0.1224 -1.0084
57864SOL    HW283523   0.858  11.506   9.488 -0.0592 -0.5944 -0.4170
57865SOL     OW83524   8.606  11.013   9.248  0.1907  0.2598 -0.0819
57865SOL    HW183525   8.545  10.940   9.247 -0.5253  0.8192  0.9823
57865SOL    HW283526   8.630  11.026   9.156 -0.1920 -0.8628 -0.3529
57866SOL     OW83527   5.892   8.386   1.229  0.1495 -0.4021  0.1213
57866SOL    HW183528   5.911   8.385   1.323  0.7945 -0.9902 -0.0046
57866SOL    HW283529   5.975   8.409   1.188 -0.0252 -0.5590 -0.3268
57867SOL     OW83530   3.152   7.756   1.013 -0.0278  0.1844 -0.1940
57867SOL    HW183531   3.138   7.831   1.071  1.8007  0.0673  0.4601
57867SOL    HW283532   3.087   7.691   1.042  1.3549 -0.1903  2.3577
57868SOL     OW83533  11.228   1.666   5.320  0.1552 -0.3241  0.1588
57868SOL    HW183534  11.294   1.729   5.348  0.1160  1.0069 -2.4770
57868SOL    HW283535  11.273   1.581   5.324  0.7188  0.0108  2.1532
57869SOL     OW83536   4.174   2.777   4.678  0.2075  0.3365  0.1150
57869SOL    HW183537   4.127   2.697   4.656  0.6417 -1.5538  4.7754
57869SOL    HW283538   4.258   2.768   4.634 -1.3257  0.7219 -3.2289
57870SOL     OW83539   1.262   6.203  10.638  0.0909  0.0615  0.5430
57870SOL    HW183540   1.219   6.170  10.559 -0.1840 -0.9754  1.0967
57870SOL    HW283541   1.355   6.198  10.618  0.0369 -0.6001  0.4338
57871SOL     OW83542   1.983   2.330   3.764 -0.4825 -0.1689  0.2516
57871SOL    HW183543   1.979   2.332   3.860  3.0078  2.0409  0.5577
57871SOL    HW283544   1.922   2.398   3.736  2.0894  2.8850  1.4120
57872SOL     OW83545   8.175  12.903   4.967  0.4152  0.3108 -0.0694
57872SOL    HW183546   8.224  12.876   4.889  2.0292  1.6866  0.4073
57872SOL    HW283547   8.229  12.972   5.006 -0.4310 -0.2081  2.1683
57873SOL     OW83548   2.787   9.220   6.222  0.0983 -0.1580  0.0794
57873SOL    HW183549   2.771   9.184   6.135 -1.8251 -1.1098  0.7830
57873SOL    HW283550   2.784   9.144   6.280  0.7232  0.5465  1.0617
57874SOL     OW83551   1.130   9.870  12.386 -0.0939 -0.2306 -0.1337
57874SOL    HW183552   1.188   9.864  12.309  0.5745  0.4712  0.2962
57874SOL    HW283553   1.043   9.886  12.349  0.3815  1.1477 -0.7428
57875SOL     OW83554   8.686   9.909   3.146 -0.2897  0.5986  0.4464
57875SOL    HW183555   8.717   9.827   3.108 -1.7112  0.8539 -1.4041
57875SOL    HW283556   8.766   9.959   3.162  0.5041 -0.4568 -0.0074
57876SOL     OW83557   4.941   0.272  13.112 -0.2601  0.2852 -0.4631
57876SOL    HW183558   4.849   0.258  13.088  0.3700 -2.5203 -1.6211
57876SOL    HW283559   4.946   0.243  13.203 -0.3489 -0.5831 -0.7250
57877SOL     OW83560   0.670   6.254   6.405 -0.6272 -0.9942 -0.0154
57877SOL    HW183561   0.704   6.183   6.350  4.8667  1.5312 -0.4441
57877SOL    HW283562   0.706   6.236   6.492 -0.4310  0.4881  0.2254
57878SOL     OW83563   2.761  11.061   4.409 -0.4735  0.8907 -0.1316
57878SOL    HW183564   2.754  11.043   4.315  1.2195 -0.4625 -0.0650
57878SOL    HW283565   2.676  11.034   4.445 -0.0206 -1.8010 -0.8710
57879SOL     OW83566   7.272   0.311   5.425  0.7303 -0.1223  0.3284
57879SOL    HW183567   7.258   0.299   5.331 -0.9237 -0.6808  0.6176
57879SOL    HW283568   7.277   0.406   5.437  1.5515 -0.0677 -0.3855
57880SOL     OW83569   0.460   7.522   4.527  0.4599 -0.3485 -0.4385
57880SOL    HW183570   0.441   7.430   4.506 -0.8202 -0.3149  0.4472
57880SOL    HW283571   0.374   7.561   4.545  0.8382  1.3516 -1.9701
57881SOL     OW83572  11.464   6.612  11.425  0.3041 -0.1740 -0.5364
57881SOL    HW183573  11.374   6.582  11.412  0.6092 -0.1443 -3.4798
57881SOL    HW283574  11.457   6.707  11.422  0.4312 -0.1729 -0.8026
57882SOL     OW83575   8.461   0.378  10.090 -0.6597 -0.0736  0.3812
57882SOL    HW183576   8.390   0.442  10.088  1.1109  1.9639 -0.0738
57882SOL    HW283577   8.493   0.381  10.181  1.5513  2.2736 -0.3498
57883SOL     OW83578   5.167   2.383   5.177 -0.2755  0.1348 -0.4038
57883SOL    HW183579   5.133   2.472   5.181 -1.2578 -0.2173 -0.6697
57883SOL    HW283580   5.107   2.332   5.232  0.7319 -0.2341  0.3967
57884SOL     OW83581   1.550   3.620   2.928 -0.3521 -0.2426 -0.4119
57884SOL    HW183582   1.502   3.615   2.845  0.5868  0.6427 -1.0270
57884SOL    HW283583   1.613   3.690   2.915 -1.8989  1.7693  1.9389
57885SOL     OW83584   3.484  13.100   7.902 -0.0886 -0.1082 -0.0822
57885SOL    HW183585   3.556  13.059   7.949  0.0621 -0.8529 -0.9400
57885SOL    HW283586   3.490  13.193   7.925  2.0188  0.0891 -1.2304
57886SOL     OW83587  11.726  10.923   7.743 -0.2369 -0.2913 -0.0801
57886SOL    HW183588  11.815  10.945   7.769  0.7180  0.2257 -3.2815
57886SOL    HW283589  11.676  11.003   7.759  0.3786  0.1112 -0.1423
57887SOL     OW83590   7.830   8.819   0.597 -0.5911 -0.0683  0.2316
57887SOL    HW183591   7.924   8.826   0.583 -0.7520  0.1911 -0.8135
57887SOL    HW283592   7.821   8.781   0.684  0.4664  0.8494  0.7588
57888SOL     OW83593   2.114   3.368   2.402  0.7082  0.4655  0.4044
57888SOL    HW183594   2.085   3.459   2.409  1.5180  0.7456  0.2440
57888SOL    HW283595   2.084   3.339   2.316 -1.5446 -0.1658  1.3356
57889SOL     OW83596   8.632   0.754   4.928  1.1304  0.6616  0.0801
57889SOL    HW183597   8.623   0.796   5.014 -0.6339 -0.3262  0.4146
57889SOL    HW283598   8.588   0.670   4.937  0.3927  0.7709 -1.9526
57890SOL     OW83599  10.099   7.440   0.472 -0.7468 -0.2278  0.2702
57890SOL    HW183600  10.075   7.375   0.406  0.2657 -0.4135  0.0764
57890SOL    HW283601  10.017   7.484   0.492 -1.2218 -0.7302 -0.5040
57891SOL     OW83602   3.542  11.970   5.807  0.3714 -0.0637  0.0045
57891SOL    HW183603   3.449  11.950   5.794 -0.1408  1.4815  1.0075
57891SOL    HW283604   3.559  11.948   5.898  1.2565 -1.1935 -0.4149
57892SOL     OW83605   7.731   7.580   8.041 -0.2204 -0.0844  0.1064
57892SOL    HW183606   7.675   7.586   8.118 -1.5445  1.7201 -0.9262
57892SOL    HW283607   7.679   7.533   7.976  0.9281 -1.6934  0.2627
57893SOL     OW83608   9.468   1.140   9.380  0.1053  0.2724 -0.0604
57893SOL    HW183609   9.469   1.081   9.304  2.2162  2.1447 -1.6035
57893SOL    HW283610   9.387   1.190   9.369 -0.0719 -0.1006 -0.5450
57894SOL     OW83611   0.126   6.643   6.874 -0.0026  0.4152  0.3716
57894SOL    HW183612   0.072   6.601   6.941  0.1591  0.0683  0.2880
57894SOL    HW283613   0.093   6.609   6.791 -0.3771  1.0495  0.2553
57895SOL     OW83614   4.153   8.975  12.313  0.2818 -0.1665 -0.4094
57895SOL    HW183615   4.248   8.964  12.314  0.1955 -1.0242 -0.0397
57895SOL    HW283616   4.124   8.936  12.396 -0.4811 -0.9838 -1.0376
57896SOL     OW83617   8.519  12.680   2.289 -0.1026 -0.2271 -0.0548
57896SOL    HW183618   8.532  12.589   2.264  1.3886 -0.0043 -0.1653
57896SOL    HW283619   8.537  12.730   2.209  0.9269  0.2571  0.4545
57897SOL     OW83620   6.437   1.177  11.846  0.4506 -0.2707 -0.3058
57897SOL    HW183621   6.467   1.261  11.879  0.1740 -0.1724 -0.3039
57897SOL    HW283622   6.508   1.116  11.869  0.5162 -0.0971 -0.0397
57898SOL     OW83623  11.135   0.733   0.632  0.2712  0.1454 -0.4612
57898SOL    HW183624  11.131   0.797   0.703 -1.0185  0.7983 -1.0977
57898SOL    HW283625  11.225   0.740   0.600  0.8817 -0.1472  1.0612
57899SOL     OW83626   7.472   4.566   3.900  0.0776  0.5149  0.7649
57899SOL    HW183627   7.422   4.636   3.857 -0.2156  0.1875  0.5715
57899SOL    HW283628   7.406   4.504   3.931  0.3836 -0.8861 -1.1386
57900SOL     OW83629  11.918  10.893   0.913 -0.0706 -0.7298  0.1271
57900SOL    HW183630  11.906  10.866   1.004 -0.3995  0.5598  0.4912
57900SOL    HW283631  11.971  10.823   0.874  0.3909 -1.1237  1.4006
57901SOL     OW83632   6.783   8.861   6.098  0.6880 -0.1994 -0.0270
57901SOL    HW183633   6.707   8.903   6.057 -1.4720 -2.6354  1.2113
57901SOL    HW283634   6.795   8.908   6.180 -0.0214 -0.3179  0.1508
57902SOL     OW83635   5.034  10.976  10.232 -0.2202 -0.0545  0.3396
57902SOL    HW183636   5.064  11.058  10.272  0.2008 -0.6732  1.3108
57902SOL    HW283637   5.113  10.924  10.219 -0.3668  0.0404 -1.1532
57903SOL     OW83638  12.189   6.544   6.762 -0.0404 -0.8807 -0.6163
57903SOL    HW183639  12.145   6.462   6.742 -2.4426  0.2556 -0.3994
57903SOL    HW283640  12.122   6.612   6.745  2.1498  1.1317 -1.8205
57904SOL     OW83641   4.718  11.081  12.682 -0.2452  0.7209 -0.3995
57904SOL    HW183642   4.637  11.038  12.656 -0.2645  0.9427 -0.7107
57904SOL    HW283643   4.777  11.067  12.609 -0.2029  1.0872 -0.4375
57905SOL     OW83644  11.979  12.107   0.550 -0.2528  0.7247  0.0185
57905SOL    HW183645  12.033  12.029   0.540  1.7977  1.9528  1.0303
57905SOL    HW283646  11.891  12.073   0.566  0.6060 -1.3736  0.6100
57906SOL     OW83647   1.339   9.043   4.554 -0.3260 -0.5871 -0.0977
57906SOL    HW183648   1.391   8.988   4.495  0.0260 -0.6654  0.2808
57906SOL    HW283649   1.387   9.125   4.559 -0.5348 -0.4601 -0.1880
57907SOL     OW83650   5.761   5.005   8.102 -0.0702  0.1183 -0.5740
57907SOL    HW183651   5.715   4.999   8.018 -0.3929  0.6007 -0.4313
57907SOL    HW283652   5.693   5.002   8.168  0.2121 -0.6483 -0.3057
57908SOL     OW83653   3.498   7.478   1.211 -0.6190 -0.0557 -0.5553
57908SOL    HW183654   3.533   7.448   1.128 -0.0162  0.4382 -0.4861
57908SOL    HW283655   3.473   7.569   1.195 -0.8256 -0.0653 -0.2950
57909SOL     OW83656   2.387   5.247   3.495 -0.0294 -0.4177 -0.0836
57909SOL    HW183657   2.475   5.211   3.506 -0.1162 -1.4182 -2.2155
57909SOL    HW283658   2.379   5.263   3.401 -2.6097 -1.6934 -0.1754
57910SOL     OW83659   0.633   5.340  12.276 -0.0599  0.0303 -0.0551
57910SOL    HW183660   0.651   5.387  12.194 -0.4959  0.2965 -0.0039
57910SOL    HW283661   0.672   5.395  12.344 -0.5407  0.3099  0.0014
57911SOL     OW83662   1.872   0.775   4.417 -0.4598 -0.1158 -0.1162
57911SOL    HW183663   1.925   0.757   4.339 -0.1586 -0.8041  0.2463
57911SOL    HW283664   1.799   0.828   4.384 -1.0027 -1.4335 -1.0870
57912SOL     OW83665  13.190  12.370   6.660 -0.0354  0.0458 -0.1960
57912SOL    HW183666  13.176  12.276   6.646 -0.8477  0.2071 -0.4936
57912SOL    HW283667  13.142  12.390   6.740 -0.7588  0.4138 -0.7083
57913SOL     OW83668   7.558  12.325   8.154 -0.5498 -0.3379 -0.2323
57913SOL    HW183669   7.600  12.385   8.092  1.5369 -0.9128  0.5346
57913SOL    HW283670   7.503  12.269   8.099 -0.7708  0.7975 -1.2271
57914SOL     OW83671   2.264   8.280   9.310  0.5092  0.2227 -0.3479
57914SOL    HW183672   2.298   8.204   9.263  0.0969 -0.2110  0.0475
57914SOL    HW283673   2.170   8.267   9.311  0.5176  0.2217  0.6124
57915SOL     OW83674   3.091   0.393  12.796  0.2566 -0.1970  0.0842
57915SOL    HW183675   3.178   0.432  12.791 -0.2396  1.0838  0.7532
57915SOL    HW283676   3.032   0.468  12.806 -0.8129 -1.1027  0.8291
57916SOL     OW83677   9.796  11.806   0.283  0.0776 -0.3884 -0.4433
57916SOL    HW183678   9.763  11.816   0.193 -0.6747 -1.1120 -0.2631
57916SOL    HW283679   9.769  11.886   0.328 -1.1033 -0.7970 -0.4065
57917SOL     OW83680   3.318   3.557   1.257 -0.7544  0.2981 -0.2750
57917SOL    HW183681   3.267   3.602   1.191 -1.1062 -0.9931 -0.9144
57917SOL    HW283682   3.304   3.464   1.240  0.4300 -0.0782  0.6110
57918SOL     OW83683   6.005   8.984  10.712  0.3459 -0.1588  0.1513
57918SOL    HW183684   5.947   8.956  10.783  0.6202  1.5797  1.1421
57918SOL    HW283685   5.956   8.967  10.632 -1.4002  0.8656  0.9382
57919SOL     OW83686   8.099   8.844   0.559 -0.2636  0.8830 -0.0064
57919SOL    HW183687   8.185   8.805   0.570 -0.0827  1.1361 -0.5138
57919SOL    HW283688   8.107   8.899   0.481 -1.5288 -0.9861 -1.5572
57920SOL     OW83689   3.546   8.753   3.337  0.0937  0.4286 -0.1675
57920SOL    HW183690   3.483   8.692   3.375  0.5939  0.1521  0.2261
57920SOL    HW283691   3.623   8.746   3.393  1.2819 -0.8234 -1.8452
57921SOL     OW83692   7.547  13.306   8.020  0.1672  0.9804  0.1106
57921SOL    HW183693   7.620  13.334   8.076 -1.2509  0.8202  2.1495
57921SOL    HW283694   7.492  13.384   8.014  0.1901  0.9216 -0.9039
57922SOL     OW83695   2.467  11.687   0.752  0.1658  0.1452  0.0502
57922SOL    HW183696   2.523  11.736   0.813 -0.2743 -1.1343  1.5412
57922SOL    HW283697   2.379  11.724   0.765  0.3753  1.2521 -1.3412
57923SOL     OW83698   7.047   6.570   7.202 -0.0428  0.5242  0.0482
57923SOL    HW183699   7.115   6.545   7.139 -0.2150  0.4264 -0.0983
57923SOL    HW283700   7.067   6.661   7.224 -0.1637  0.6548 -0.3845
57924SOL     OW83701  10.322   7.833   9.913 -0.1572  0.1149 -0.1737
57924SOL    HW183702  10.354   7.761   9.860  2.1237  0.7200  0.2997
57924SOL    HW283703  10.368   7.910   9.880 -0.8431  0.9833  0.8137
57925SOL     OW83704   1.628   5.825   8.095  0.6780  0.1516 -0.0078
57925SOL    HW183705   1.675   5.854   8.016 -0.9956  0.3555 -0.9865
57925SOL    HW283706   1.539   5.859   8.083 -0.0573 -1.2819  1.1558
57926SOL     OW83707   1.767   3.296   6.625  0.1261  0.4611 -0.5249
57926SOL    HW183708   1.753   3.256   6.711 -0.2495  0.3524 -0.6328
57926SOL    HW283709   1.701   3.365   6.620  1.0512  1.3919 -0.1618
57927SOL     OW83710   1.720   4.157   5.963  0.5756  0.2085 -0.2423
57927SOL    HW183711   1.658   4.085   5.971  0.3163  0.2321 -1.8078
57927SOL    HW283712   1.758   4.166   6.051  0.3966 -1.6286  0.0531
57928SOL     OW83713   1.568  10.208   2.212 -0.6969 -0.1397  0.2049
57928SOL    HW183714   1.572  10.267   2.136 -1.3751 -0.2110  0.1103
57928SOL    HW283715   1.475  10.194   2.227 -0.5606 -1.4915 -0.0154
57929SOL     OW83716   9.983   0.341   2.811  0.2874  0.0593  0.4892
57929SOL    HW183717  10.003   0.353   2.904 -0.0115 -2.0807  0.8714
57929SOL    HW283718  10.065   0.362   2.766  0.7663  0.0255  1.3252
57930SOL     OW83719   8.652   6.347   4.879 -0.0388  0.2611 -0.1128
57930SOL    HW183720   8.646   6.314   4.789 -0.8063 -0.7146  0.2673
57930SOL    HW283721   8.624   6.438   4.874 -0.5694  0.0641 -0.7826
57931SOL     OW83722  12.153   7.688   9.166 -0.7111  0.6578 -0.0446
57931SOL    HW183723  12.133   7.736   9.086  0.6266  3.1267  0.9874
57931SOL    HW283724  12.102   7.608   9.159 -1.7214  1.4101 -2.6954
57932SOL     OW83725   0.432  12.672   8.133  0.0377 -0.3256  0.5247
57932SOL    HW183726   0.393  12.759   8.133  1.2321  0.2771 -1.3672
57932SOL    HW283727   0.422  12.641   8.042  2.3366 -0.8367  0.3784
57933SOL     OW83728  12.634   3.184   1.966 -0.2525 -0.0481 -0.3649
57933SOL    HW183729  12.606   3.174   2.057  3.0640 -0.8971  0.6755
57933SOL    HW283730  12.680   3.267   1.964 -2.1321  1.0343 -1.8835
57934SOL     OW83731   3.817  13.104  12.451 -0.6178 -0.3224  0.7498
57934SOL    HW183732   3.747  13.151  12.406 -0.0454  0.0112  0.1978
57934SOL    HW283733   3.815  13.016  12.415  0.3893  0.1694 -0.5904
57935SOL     OW83734   7.640   5.970  11.508  0.2342 -0.3148  0.3360
57935SOL    HW183735   7.672   6.052  11.473  2.4170 -0.6242  1.3856
57935SOL    HW283736   7.678   5.903  11.452 -0.4309 -0.6540  0.2791
57936SOL     OW83737   3.348  10.921   3.318 -0.5433 -0.3980  0.6957
57936SOL    HW183738   3.387  10.995   3.364  0.2314 -0.8766  0.8242
57936SOL    HW283739   3.393  10.844   3.353  0.2020 -0.7588 -0.9676
57937SOL     OW83740   1.196   3.694   5.001  0.0850  0.2786  0.3038
57937SOL    HW183741   1.153   3.689   4.916 -0.1447  1.0001  0.3757
57937SOL    HW283742   1.275   3.640   4.991  0.8813  1.6087 -0.8514
57938SOL     OW83743   7.454   5.762   0.099  0.3089  0.5369 -0.1070
57938SOL    HW183744   7.462   5.672   0.070  0.9425 -0.1256  1.9838
57938SOL    HW283745   7.542   5.799   0.087  0.7986  0.0148  1.6152
57939SOL     OW83746   5.509   2.937   9.474 -0.0375 -0.0238 -0.3759
57939SOL    HW183747   5.561   3.009   9.440  0.2404 -0.7975 -1.6578
57939SOL    HW283748   5.565   2.894   9.538 -0.8078  1.8509  1.6611
57940SOL     OW83749   1.458   8.811   7.823 -0.0583  0.1752  0.1255
57940SOL    HW183750   1.399   8.778   7.754 -1.0984  0.3231  0.9198
57940SOL    HW283751   1.487   8.733   7.869  1.0100  0.0326 -0.7351
57941SOL     OW83752   4.028   3.124   7.060  0.5049  0.6967  0.0893
57941SOL    HW183753   3.950   3.161   7.101 -0.3456 -0.0349 -0.8000
57941SOL    HW283754   4.079   3.089   7.133 -1.4702 -1.5363  0.5449
57942SOL     OW83755   0.408  10.859  10.773  0.1531  0.2381 -1.0663
57942SOL    HW183756   0.377  10.770  10.793  0.0529  0.5978  0.5471
57942SOL    HW283757   0.338  10.916  10.805  1.1343  0.9552 -0.1249
57943SOL     OW83758   1.136   3.196   9.360 -0.1528 -0.4579 -0.2111
57943SOL    HW183759   1.130   3.102   9.341  0.7188 -0.6320  0.3155
57943SOL    HW283760   1.156   3.200   9.454 -0.7581  0.2788 -0.1002
57944SOL     OW83761  11.216   1.471   9.924 -0.4616  0.2105 -0.3053
57944SOL    HW183762  11.270   1.391   9.927 -1.5677 -0.5323  1.0249
57944SOL    HW283763  11.145   1.454   9.985 -0.3665  2.5022  0.5471
57945SOL     OW83764   9.228   8.385   5.240 -0.0961 -0.5301 -0.1200
57945SOL    HW183765   9.228   8.336   5.323 -1.5854  1.1750  0.9556
57945SOL    HW283766   9.317   8.422   5.234  0.2237 -1.1914  0.3624
57946SOL     OW83767   1.502   4.855   8.676  0.5975  0.0566  0.1004
57946SOL    HW183768   1.514   4.760   8.681  2.5476  0.2767  0.4025
57946SOL    HW283769   1.446   4.868   8.600  0.4449 -1.3325 -0.0496
57947SOL     OW83770   8.439  10.014   8.217  0.1103 -0.3138  0.8185
57947SOL    HW183771   8.475   9.928   8.194 -1.1626 -0.4396 -0.8376
57947SOL    HW283772   8.441  10.015   8.313  2.5066 -1.1311  0.8503
57948SOL     OW83773   8.931   7.781   8.373  0.4215  0.2197 -0.3561
57948SOL    HW183774   8.900   7.870   8.354 -2.0247 -0.8905 -2.1119
57948SOL    HW283775   8.861   7.741   8.425  0.0885 -1.5269 -2.0320
57949SOL     OW83776   5.823  10.790   6.832 -0.4624 -0.8169 -0.5593
57949SOL    HW183777   5.785  10.878   6.830 -2.1738 -1.5204 -2.1642
57949SOL    HW283778   5.908  10.799   6.790 -0.5965  0.0930 -0.6507
57950SOL     OW83779  10.587   8.443   9.313  0.0543 -0.2217  0.0487
57950SOL    HW183780  10.603   8.447   9.219  1.2851  0.0850  0.2618
57950SOL    HW283781  10.542   8.360   9.326  2.2615 -1.5707 -0.4812
57951SOL     OW83782   5.883   9.399   7.483  0.4856  0.4824  0.0314
57951SOL    HW183783   5.803   9.365   7.524  0.4942 -0.7719 -0.9423
57951SOL    HW283784   5.860   9.488   7.456  0.1205  0.9312  1.6814
57952SOL     OW83785   3.011  12.940  10.094  0.5853  0.0837 -0.0486
57952SOL    HW183786   2.929  12.957  10.048 -0.1239  0.4775  1.2866
57952SOL    HW283787   3.079  12.964  10.032 -0.2516 -1.5377 -1.6899
57953SOL     OW83788   6.494   4.959  10.557  0.2678  0.0555 -0.2086
57953SOL    HW183789   6.488   4.872  10.519  1.1594  0.4922 -1.3845
57953SOL    HW283790   6.491   4.943  10.652 -1.0089 -1.1164 -0.4142
57954SOL     OW83791   5.389   7.672   3.737  0.4983 -0.0817 -0.3199
57954SOL    HW183792   5.439   7.740   3.692  0.9381 -0.3930 -0.3067
57954SOL    HW283793   5.366   7.711   3.821 -1.5378  1.0354 -1.3037
57955SOL     OW83794   6.487   7.178   0.802  0.1639 -0.2421 -0.3106
57955SOL    HW183795   6.421   7.244   0.781  1.2275  0.2504 -2.3636
57955SOL    HW283796   6.446   7.095   0.779 -0.8333 -0.2859  1.4004
57956SOL     OW83797   5.679   0.447   7.437 -0.3859  0.7815 -0.5625
57956SOL    HW183798   5.733   0.493   7.501  0.9238  0.8152 -1.6492
57956SOL    HW283799   5.617   0.397   7.489  0.1010  1.4582  0.7014
57957SOL     OW83800   8.837  10.416  12.962  0.1420 -0.0601 -0.1322
57957SOL    HW183801   8.855  10.430  13.054 -2.4486  0.7214  0.3440
57957SOL    HW283802   8.750  10.454  12.948  0.4738 -0.0625 -2.9185
57958SOL     OW83803   7.396   8.911   8.973  0.0014 -0.5706  0.1455
57958SOL    HW183804   7.386   8.987   9.031 -0.1134 -0.7729  0.3936
57958SOL    HW283805   7.372   8.836   9.028 -0.0953 -0.7649 -0.1597
57959SOL     OW83806   8.773   8.778   8.091 -0.2002 -0.1635 -0.1188
57959SOL    HW183807   8.680   8.784   8.109 -0.0254  1.4422  0.4428
57959SOL    HW283808   8.810   8.856   8.132  1.1919 -0.0202 -1.5564
57960SOL     OW83809  10.755   6.101   5.398  0.1001  0.2970  0.2205
57960SOL    HW183810  10.835   6.049   5.407 -0.7541 -0.9652  0.8893
57960SOL    HW283811  10.733   6.126   5.488 -0.5743  0.1192  0.1058
57961SOL     OW83812   9.071  11.363  11.853 -0.5195 -0.0695 -0.0854
57961SOL    HW183813   9.152  11.348  11.901  0.1375  4.5260  0.7016
57961SOL    HW283814   9.098  11.384  11.764 -0.9976 -0.1937 -0.2638
57962SOL     OW83815   9.088   7.150   1.024  0.2152 -0.1717  0.3944
57962SOL    HW183816   9.007   7.135   1.072  0.6882  1.6533  1.9382
57962SOL    HW283817   9.127   7.064   1.015 -1.6400 -1.0193  0.0616
57963SOL     OW83818   6.500   7.440  12.331 -0.0721 -0.0974  0.1993
57963SOL    HW183819   6.495   7.351  12.365 -2.3684 -0.6751 -1.4198
57963SOL    HW283820   6.416   7.454  12.287  0.7947  2.3481 -0.8714
57964SOL     OW83821  11.679   5.161   7.927 -0.3352 -0.3406  0.7761
57964SOL    HW183822  11.709   5.218   7.856  0.0246 -0.9231  0.4593
57964SOL    HW283823  11.759   5.134   7.972 -0.4288 -1.3311  0.3639
57965SOL     OW83824   0.913   2.225   5.684  0.3887  0.0783 -0.4261
57965SOL    HW183825   0.967   2.158   5.726 -0.2429 -0.6219 -0.7173
57965SOL    HW283826   0.842   2.241   5.747  0.9244  1.0086 -0.0360
57966SOL     OW83827   4.529   5.393  10.368  0.0768  0.1421 -0.3870
57966SOL    HW183828   4.472   5.435  10.304  2.1424  0.4647 -2.1142
57966SOL    HW283829   4.578   5.465  10.408  0.2839 -0.2344  0.0500
57967SOL     OW83830   0.056   1.368   5.509  0.5831 -0.1070 -0.2636
57967SOL    HW183831   0.041   1.462   5.513  3.0914  0.4939 -2.0790
57967SOL    HW283832   0.116   1.350   5.581  3.8178  0.7047 -2.5260
57968SOL     OW83833   1.322  10.956   8.663  0.2591  0.1385 -0.3241
57968SOL    HW183834   1.232  10.923   8.671  0.2150  0.5894  1.5673
57968SOL    HW283835   1.313  11.036   8.612 -1.1565  2.4956  3.1966
57969SOL     OW83836   5.088  12.044   8.130  0.5628 -0.2919  0.1981
57969SOL    HW183837   5.046  12.120   8.091 -0.9494 -1.2732 -0.1640
57969SOL    HW283838   5.035  12.024   8.207  1.1037 -0.8175  0.4367
57970SOL     OW83839   6.124   5.404  10.198  0.4545  0.7303  0.4792
57970SOL    HW183840   6.154   5.317  10.224  0.4302  0.5292 -0.1492
57970SOL    HW283841   6.197   5.441  10.149  1.3948  2.0102  2.7300
57971SOL     OW83842   9.835   7.333  10.139  1.0586  0.3829  0.0588
57971SOL    HW183843   9.898   7.404  10.127  1.5038 -0.0453 -0.1366
57971SOL    HW283844   9.878   7.255  10.103 -0.1087  0.3416 -1.3391
57972SOL     OW83845  11.199   6.582   5.250  0.6097 -0.2706 -0.0990
57972SOL    HW183846  11.187   6.623   5.164  1.3991  1.1582  0.4284
57972SOL    HW283847  11.269   6.518   5.236  0.7833  0.0032 -0.4975
57973SOL     OW83848   7.082   0.674   4.277  0.7202  0.4724 -0.5802
57973SOL    HW183849   7.039   0.710   4.354  2.5683 -0.6992  1.0980
57973SOL    HW283850   7.011   0.654   4.216 -0.9753 -0.2334  1.5347
57974SOL     OW83851   8.117   9.099   2.069 -0.1241 -0.1954  0.4467
57974SOL    HW183852   8.117   9.015   2.022  0.5724  0.1760 -0.2436
57974SOL    HW283853   8.072   9.080   2.151 -1.3967 -0.8657 -0.3645
57975SOL     OW83854   3.186  10.538  12.581 -0.0636 -0.4403 -0.0833
57975SOL    HW183855   3.217  10.566  12.667 -0.0140 -0.8965  0.0529
57975SOL    HW283856   3.135  10.612  12.548  1.3684  0.4319 -0.4185
57976SOL     OW83857  10.207   5.581   2.013  0.0831 -0.2710 -0.6025
57976SOL    HW183858  10.112   5.597   2.009  0.1249 -0.0395 -0.6923
57976SOL    HW283859  10.246   5.667   2.002  0.3058 -0.3670 -0.5663
57977SOL     OW83860   1.878  13.168   2.086 -0.8776 -0.0317  0.2116
57977SOL    HW183861   1.852  13.130   2.171 -0.7320 -0.5004  0.0488
57977SOL    HW283862   1.967  13.136   2.071 -1.3146 -0.8798 -0.6516
57978SOL     OW83863   8.479  10.175   0.435  1.1846 -0.5992 -0.0393
57978SOL    HW183864   8.434  10.259   0.438 -0.2347 -1.3378  0.2331
57978SOL    HW283865   8.572  10.197   0.445  0.7795  0.8692  0.7304
57979SOL     OW83866   1.687   7.571   2.004 -0.5924  0.2733  0.4376
57979SOL    HW183867   1.726   7.654   2.035  0.1353  0.1826 -0.1983
57979SOL    HW283868   1.763   7.517   1.980 -1.1074  0.1763 -1.0624
57980SOL     OW83869   4.160  11.171   9.869 -0.4401  0.3029 -0.3868
57980SOL    HW183870   4.242  11.152   9.824 -0.3874 -0.6000  0.0546
57980SOL    HW283871   4.149  11.266   9.862  0.3765  0.3635 -0.8936
57981SOL     OW83872   1.532   7.824  12.512 -0.1691 -0.2544  0.0148
57981SOL    HW183873   1.596   7.839  12.443 -0.7760 -0.0716 -0.5236
57981SOL    HW283874   1.565   7.748  12.560  0.1625 -0.5123 -0.6070
57982SOL     OW83875   1.879   7.989   3.710  0.4011 -0.1691  0.2137
57982SOL    HW183876   1.913   7.919   3.654 -0.6177 -1.5310  1.2527
57982SOL    HW283877   1.809   8.030   3.659  1.0192  0.1489 -0.4044
57983SOL     OW83878   1.979   6.883  10.731 -0.2981  0.7336 -0.0984
57983SOL    HW183879   1.974   6.871  10.636 -1.8051  0.8933 -0.0589
57983SOL    HW283880   1.991   6.795  10.765  2.6749  0.8769 -0.5151
57984SOL     OW83881   4.092   2.401   4.322 -0.2134 -0.2867 -0.3853
57984SOL    HW183882   4.141   2.387   4.241 -1.1011 -0.6648 -0.8676
57984SOL    HW283883   4.009   2.355   4.309 -0.6824  0.2902  0.4379
57985SOL     OW83884   1.936   3.595   6.654  0.3849 -0.2753 -0.4029
57985SOL    HW183885   1.854   3.572   6.610  0.7870 -0.9564 -0.8106
57985SOL    HW283886   1.999   3.530   6.623  1.2472  0.6470 -0.6013
57986SOL     OW83887  12.250   6.093  11.683  0.6025 -0.3126  0.0597
57986SOL    HW183888  12.209   6.179  11.684  2.4004  0.6526 -1.9742
57986SOL    HW283889  12.203   6.045  11.615  0.1306 -0.7028  0.6433
57987SOL     OW83890   7.501   8.267  11.771  0.1616  0.2314  0.0011
57987SOL    HW183891   7.559   8.215  11.715 -0.7753  1.7358 -2.5391
57987SOL    HW283892   7.416   8.263  11.727 -0.6725  1.3638  1.4400
57988SOL     OW83893   9.834   6.394   0.137  0.4564  0.0770 -0.5207
57988SOL    HW183894   9.779   6.448   0.079  1.8384  1.3837 -0.6983
57988SOL    HW283895   9.853   6.451   0.211 -1.1440 -1.5225  1.2145
57989SOL     OW83896  12.988   7.658   8.460 -0.0238  0.2607 -0.7048
57989SOL    HW183897  12.929   7.607   8.515 -1.5537 -0.2946 -2.7436
57989SOL    HW283898  12.944   7.664   8.376  2.1496  1.1746 -1.8720
57990SOL     OW83899   5.649   1.511  12.792 -0.2348 -0.3237 -0.1750
57990SOL    HW183900   5.600   1.451  12.847 -1.3205 -0.6737 -1.4750
57990SOL    HW283901   5.632   1.482  12.702  0.3651  1.0542 -0.7742
57991SOL     OW83902   0.098   8.276   6.826 -0.2562 -0.3874  0.1337
57991SOL    HW183903   0.145   8.302   6.905 -1.1524 -2.5983  1.4806
57991SOL    HW283904   0.007   8.299   6.843 -0.6563 -2.0142  0.3042
57992SOL     OW83905   2.135   5.642   5.342 -0.2384  0.5321 -0.9561
57992SOL    HW183906   2.200   5.692   5.292 -0.6537 -0.3941 -2.5091
57992SOL    HW283907   2.088   5.707   5.392  1.9914  1.2310  0.3884
57993SOL     OW83908   2.869   5.863  12.279  0.3921  0.5588 -0.1040
57993SOL    HW183909   2.865   5.958  12.269  0.5657  0.8221  1.8625
57993SOL    HW283910   2.962   5.844  12.292  0.8093 -0.3235 -3.5589
57994SOL     OW83911   3.002   9.868   3.103 -0.1554 -0.0478  0.5811
57994SOL    HW183912   2.938   9.929   3.141 -1.2485 -1.2540  0.7834
57994SOL    HW283913   3.034   9.819   3.179 -0.0869 -0.4290  0.3037
57995SOL     OW83914   3.103  11.325   1.268 -0.2484 -0.1603 -0.6065
57995SOL    HW183915   3.112  11.289   1.180 -0.4355 -1.2659 -0.1888
57995SOL    HW283916   3.137  11.257   1.326 -0.8889  0.2126  0.2312
57996SOL     OW83917  10.138  11.940   6.862 -0.1645  0.5807  0.1786
57996SOL    HW183918  10.197  11.904   6.796  1.4846  1.6023  1.0403
57996SOL    HW283919  10.107  11.864   6.911 -1.2659 -0.1813 -1.5777
57997SOL     OW83920   4.610   7.276  12.888  0.4749  0.1498 -0.0089
57997SOL    HW183921   4.517   7.288  12.907  0.2334 -0.7076 -0.5865
57997SOL    HW283922   4.645   7.233  12.966  0.4556  0.7470  0.3335
57998SOL     OW83923   9.158   5.893  12.272 -0.1218  0.2833 -0.4138
57998SOL    HW183924   9.221   5.859  12.208 -0.5692  1.7104 -1.6762
57998SOL    HW283925   9.119   5.815  12.311  0.3162 -0.6364 -1.7420
57999SOL     OW83926   1.944  11.549   7.839 -0.5204  0.0758 -0.2058
57999SOL    HW183927   1.964  11.478   7.779  0.1845  0.4400 -0.4175
57999SOL    HW283928   1.857  11.528   7.874 -0.4129 -0.7627 -0.4285
58000SOL     OW83929  11.041  11.202   0.062  0.3726  0.2317  0.4268
58000SOL    HW183930  11.063  11.212  -0.030  1.0842 -0.6158  0.4873
58000SOL    HW283931  10.951  11.170   0.063  1.0685 -1.8902 -0.0914
58001SOL     OW83932   7.621  11.263   5.731 -0.0412 -0.3928 -0.8743
58001SOL    HW183933   7.588  11.348   5.759 -2.4189 -1.9569  1.4862
58001SOL    HW283934   7.716  11.268   5.746 -0.1631  1.7267 -0.5800
58002SOL     OW83935   2.818   5.458  13.214  0.0427 -0.1272  0.0094
58002SOL    HW183936   2.756   5.488  13.281  0.3593 -0.3913  0.4251
58002SOL    HW283937   2.789   5.500  13.134  0.0169  0.6670  0.4302
58003SOL     OW83938   9.945  11.763  12.840  0.0345 -0.3704 -0.2415
58003SOL    HW183939  10.011  11.733  12.902  1.1632  0.2275 -1.1252
58003SOL    HW283940   9.884  11.690  12.832 -0.2901 -0.3624  1.7581
58004SOL     OW83941   3.329   4.158   9.392 -0.1527 -0.0177  0.7686
58004SOL    HW183942   3.358   4.241   9.355  0.4392  0.2441  1.7714
58004SOL    HW283943   3.265   4.125   9.329  1.4097 -0.0285 -0.9076
58005SOL     OW83944   0.513   2.457   4.939  0.2102  0.4534  0.0236
58005SOL    HW183945   0.555   2.543   4.948 -1.3421  1.4540 -1.5776
58005SOL    HW283946   0.457   2.466   4.862 -0.7898 -1.6902  0.4336
58006SOL     OW83947  11.803   5.751  12.223  0.5072  0.0772 -0.1030
58006SOL    HW183948  11.827   5.751  12.131 -1.9779  0.9711 -0.8415
58006SOL    HW283949  11.886   5.759  12.270  1.7545  0.6318 -2.2727
58007SOL     OW83950   7.771   7.356   2.486  0.0675  0.3206  0.4082
58007SOL    HW183951   7.713   7.428   2.461 -1.1417 -1.4904 -2.5312
58007SOL    HW283952   7.714   7.279   2.491  1.7604 -1.0125  0.2893
58008SOL     OW83953   9.359   1.602  12.399  0.1024  0.1245 -0.2675
58008SOL    HW183954   9.280   1.558  12.370 -0.5359  1.0186  0.0695
58008SOL    HW283955   9.354   1.600  12.495  0.8524 -0.4481 -0.2284
58009SOL     OW83956   5.382   6.184   8.975  0.3970 -0.2746 -0.1792
58009SOL    HW183957   5.316   6.157   9.039  0.7422  0.1623  0.3805
58009SOL    HW283958   5.332   6.204   8.896 -0.1163 -0.2189  0.1491
58010SOL     OW83959  12.340   9.685   3.352  0.4611 -0.5611  0.2299
58010SOL    HW183960  12.399   9.755   3.326  1.2191 -1.1008  0.4545
58010SOL    HW283961  12.274   9.728   3.407 -0.6152  0.4253 -1.7315
58011SOL     OW83962   6.008   3.203  10.485 -0.3982  0.2086 -0.1277
58011SOL    HW183963   6.082   3.246  10.443 -1.1007  2.0762  0.4588
58011SOL    HW283964   6.041   3.115  10.506  0.6349 -0.0890 -2.6028
58012SOL     OW83965   9.954  12.742   6.896 -0.0422 -0.0636 -0.6002
58012SOL    HW183966  10.001  12.695   6.965  1.0904  0.3032 -1.0992
58012SOL    HW283967   9.989  12.832   6.899 -1.1012  0.3647 -0.6329
58013SOL     OW83968  10.474   3.854   0.337  0.0402 -0.9281  0.1928
58013SOL    HW183969  10.474   3.764   0.306  1.8463 -0.9357  0.1546
58013SOL    HW283970  10.564   3.884   0.326  0.2716 -0.2047  3.3318
58014SOL     OW83971  12.017  11.546   9.127  0.1215  0.0695 -0.1912
58014SOL    HW183972  12.103  11.537   9.086  0.4793 -0.5241  0.6469
58014SOL    HW283973  12.036  11.569   9.218 -0.6157  0.1679 -0.0533
58015SOL     OW83974   9.434   8.079   2.826 -0.0248 -0.1782  0.3911
58015SOL    HW183975   9.452   8.122   2.743  1.7242 -1.5446  0.0228
58015SOL    HW283976   9.373   8.008   2.804 -0.5343  0.2194  0.4993
58016SOL     OW83977   7.865   4.981  12.780 -0.7575 -0.0486 -0.1819
58016SOL    HW183978   7.903   4.931  12.853 -2.4725 -1.2647 -0.0420
58016SOL    HW283979   7.940   5.017  12.733  0.4532 -0.7056  1.1819
58017SOL     OW83980   9.540   9.639   5.567 -0.3246  0.0138  0.6730
58017SOL    HW183981   9.609   9.700   5.543 -1.0777  0.4033 -0.6097
58017SOL    HW283982   9.462   9.671   5.521 -1.1423 -0.9381  1.3391
58018SOL     OW83983   0.289  10.585   6.942  0.3039 -0.6004  0.4045
58018SOL    HW183984   0.364  10.636   6.911 -0.7455  0.4327 -0.5114
58018SOL    HW283985   0.322  10.539   7.020  1.9311 -0.3381 -0.0921
58019SOL     OW83986   4.510   8.038   7.683 -0.0429  0.1335  0.5045
58019SOL    HW183987   4.534   7.985   7.607 -1.9954 -1.0910  0.6641
58019SOL    HW283988   4.415   8.028   7.690 -0.2483  2.2667  1.6125
58020SOL     OW83989  10.207   7.854  10.170 -0.2170  0.1621 -0.6721
58020SOL    HW183990  10.236   7.842  10.080 -0.3023 -0.6721 -0.5974
58020SOL    HW283991  10.111   7.859  10.164 -0.1871  0.8606 -0.6995
58021SOL     OW83992   1.501   6.776   5.419  0.2394  0.0276  0.2753
58021SOL    HW183993   1.586   6.757   5.378 -0.5253 -0.8370 -0.9706
58021SOL    HW283994   1.523   6.834   5.493  1.7535  1.0807 -0.9207
58022SOL     OW83995   5.287   9.799  12.422 -0.0280  0.0068 -0.3632
58022SOL    HW183996   5.317   9.724  12.371 -0.9053  0.3773 -1.4596
58022SOL    HW283997   5.349   9.869  12.402  1.4085 -0.6573  1.4614
58023SOL     OW83998   6.755   7.445   5.527 -0.6475 -1.0721  0.0231
58023SOL    HW183999   6.827   7.468   5.469  0.0283  0.4741  1.3974
58023SOL    HW284000   6.728   7.529   5.566 -2.1815 -1.8299  0.6704
58024SOL     OW84001   4.666   6.502   5.371  0.6802 -0.3915 -0.1136
58024SOL    HW184002   4.716   6.580   5.397 -0.7826  0.9192 -1.0308
58024SOL    HW284003   4.582   6.537   5.342 -1.4203 -2.6310  2.7828
58025SOL     OW84004   8.265   1.331  10.881  0.0369  0.0505  0.2302
58025SOL    HW184005   8.183   1.310  10.836 -0.6051 -2.1942  2.2304
58025SOL    HW284006   8.327   1.351  10.810 -1.5597 -0.7177 -1.4724
58026SOL     OW84007   8.807   0.923   4.358 -0.2104  0.4973 -0.1379
58026SOL    HW184008   8.730   0.945   4.410  1.7850  1.8178  2.5248
58026SOL    HW284009   8.868   0.883   4.421  2.1647  1.7169 -1.4994
58027SOL     OW84010   5.218   8.713   2.055 -0.1203 -0.3539  0.4502
58027SOL    HW184011   5.263   8.667   1.983 -1.4695 -0.8890 -0.0729
58027SOL    HW284012   5.288   8.730   2.118  0.4800 -3.2259  0.7216
58028SOL     OW84013   3.820   8.959  12.486 -0.3746 -0.1573 -0.6811
58028SOL    HW184014   3.850   9.048  12.467 -0.1149  0.2066  1.2461
58028SOL    HW284015   3.754   8.941  12.419  1.6282  0.3255 -2.9478
58029SOL     OW84016   9.051  12.984  12.167 -0.0624 -0.0073 -0.0008
58029SOL    HW184017   9.109  13.016  12.097 -1.2386 -1.8892 -1.9751
58029SOL    HW284018   9.078  12.894  12.181 -1.6335 -0.5168 -0.0442
58030SOL     OW84019  13.078  12.724   2.639 -0.2488 -0.0689 -0.0712
58030SOL    HW184020  13.141  12.652   2.640 -0.3171 -0.1530 -1.0310
58030SOL    HW284021  13.052  12.732   2.547 -0.5245  0.9339  0.0825
58031SOL     OW84022   7.473   9.443  11.455  0.2122  0.2237  0.1887
58031SOL    HW184023   7.553   9.458  11.505 -0.6062  1.8157  1.0930
58031SOL    HW284024   7.404   9.444  11.520 -0.6218 -0.4459 -0.6658
58032SOL     OW84025   6.804  10.929   3.228  0.2727  0.4351 -0.2024
58032SOL    HW184026   6.860  10.993   3.272 -0.6687  0.7619  0.5686
58032SOL    HW284027   6.756  10.886   3.299 -1.5422  1.2186 -0.8850
58033SOL     OW84028   5.613   5.520   9.387  0.0685 -0.6548 -0.3139
58033SOL    HW184029   5.676   5.554   9.451  0.2986  1.4674 -1.5661
58033SOL    HW284030   5.666   5.503   9.309 -0.6234 -0.5321 -0.8162
58034SOL     OW84031   2.812  11.478   2.644  0.8768 -0.3743  0.4400
58034SOL    HW184032   2.873  11.439   2.706 -0.1263 -2.6883  0.0837
58034SOL    HW284033   2.726  11.469   2.686  0.5993  2.0284  0.5644
58035SOL     OW84034   4.844  10.384   2.696  0.4418 -0.1277 -0.6017
58035SOL    HW184035   4.816  10.463   2.648 -0.1137  1.4096  2.0309
58035SOL    HW284036   4.880  10.327   2.629 -2.7215  0.6694 -3.2939
58036SOL     OW84037   4.891   6.402  11.764 -0.7948 -0.5403 -0.1086
58036SOL    HW184038   4.875   6.312  11.793  0.8886 -1.0197 -0.5703
58036SOL    HW284039   4.892   6.453  11.845  0.7735 -1.3757  0.4435
58037SOL     OW84040   6.401   6.839  11.363 -0.6747 -0.0671  0.5695
58037SOL    HW184041   6.402   6.748  11.394  0.9475 -0.1539  0.3106
58037SOL    HW284042   6.453   6.887  11.427  1.7476 -0.0404 -1.3088
58038SOL     OW84043  12.535   5.466   5.233 -0.2928 -0.2190  0.1349
58038SOL    HW184044  12.613   5.425   5.269  0.5790 -0.1676 -1.6002
58038SOL    HW284045  12.480   5.483   5.309  0.9148 -1.2194  1.2876
58039SOL     OW84046   9.153   0.155   5.585 -0.2581 -0.4814 -0.3389
58039SOL    HW184047   9.101   0.178   5.508  0.1995  1.2109 -0.1898
58039SOL    HW284048   9.141   0.229   5.645  0.4893 -1.1271  0.6468
58040SOL     OW84049  11.268   3.918   3.135 -0.2600 -0.1302 -0.7554
58040SOL    HW184050  11.247   3.837   3.181 -0.5842  0.9323  1.0679
58040SOL    HW284051  11.199   3.927   3.070 -1.5826 -0.1480  0.5969
58041SOL     OW84052   6.702   4.219  12.235  0.1824 -0.0730 -0.0371
58041SOL    HW184053   6.607   4.226  12.230  0.3812  3.2341 -1.6011
58041SOL    HW284054   6.729   4.190  12.148  0.6914  1.0314 -0.2585
58042SOL     OW84055  12.454   8.524   4.910  0.3529 -0.4465 -0.5957
58042SOL    HW184056  12.522   8.482   4.856  2.0089  2.8828 -1.3267
58042SOL    HW284057  12.399   8.571   4.847  0.4761  1.0152  0.3442
58043SOL     OW84058   5.816  11.208  10.648 -0.3044  0.0729 -0.4035
58043SOL    HW184059   5.840  11.220  10.740  1.6046 -0.7700 -0.7393
58043SOL    HW284060   5.881  11.259  10.600 -0.8528 -0.0681 -1.3065
58044SOL     OW84061   1.429  10.082  12.732  0.0927 -0.1485  0.2188
58044SOL    HW184062   1.460  10.173  12.733 -0.4920  0.0803  2.3220
58044SOL    HW284063   1.348  10.084  12.783 -0.2874 -1.7449 -0.2802
58045SOL     OW84064   1.079   8.465   0.901 -0.4457 -0.1314  0.4652
58045SOL    HW184065   1.040   8.454   0.988 -0.2438 -1.1018  0.4462
58045SOL    HW284066   1.136   8.389   0.891 -0.8025 -0.2576 -0.6927
58046SOL     OW84067   4.591   6.444   8.789 -0.1054  0.1843  0.3022
58046SOL    HW184068   4.509   6.396   8.779  0.3217 -0.7519  1.0904
58046SOL    HW284069   4.634   6.436   8.704 -0.3649 -0.2300  0.2082
58047SOL     OW84070  10.735   9.676   4.768  0.6610  0.1792 -0.3309
58047SOL    HW184071  10.708   9.679   4.676  2.9039  2.8115 -1.0405
58047SOL    HW284072  10.808   9.614   4.769 -1.4449 -2.4707  0.4571
58048SOL     OW84073   9.323  10.073   0.727  0.2579  0.2056 -0.2884
58048SOL    HW184074   9.250  10.136   0.728  0.4680  0.4671 -0.9548
58048SOL    HW284075   9.368  10.088   0.810 -1.0175 -0.6484  0.5926
58049SOL     OW84076   8.798  11.188  13.049  0.0444  0.3701  0.4835
58049SOL    HW184077   8.731  11.191  13.117  0.5216  1.6875  0.9109
58049SOL    HW284078   8.845  11.106  13.065 -0.9724 -0.2053  0.6311
58050SOL     OW84079   9.963   8.053   1.458  0.3292  0.3054  0.5732
58050SOL    HW184080  10.024   7.980   1.471  0.6744  0.5067  0.1098
58050SOL    HW284081   9.900   8.045   1.530  0.5887 -0.2220  0.7439
58051SOL     OW84082   9.389   9.884   3.526  0.0354  0.1231 -0.3176
58051SOL    HW184083   9.327   9.955   3.540  0.8088  0.6978  0.2228
58051SOL    HW284084   9.334   9.806   3.520 -0.8020  0.7213 -0.6797
58052SOL     OW84085   9.207  12.093   3.262 -0.0523  0.2321  0.9302
58052SOL    HW184086   9.119  12.055   3.263  0.3800 -0.8009  1.4508
58052SOL    HW284087   9.193  12.186   3.280 -1.1816  0.4532 -0.8322
58053SOL     OW84088   6.659  11.502   5.024  0.0803 -0.1943  0.4023
58053SOL    HW184089   6.596  11.521   4.954 -0.7957  0.9177  1.4569
58053SOL    HW284090   6.665  11.406   5.025  1.4394 -0.2420 -2.3129
58054SOL     OW84091   8.237  12.659  10.350  0.7067 -0.1984  0.5461
58054SOL    HW184092   8.296  12.656  10.274  1.2465  0.3551  0.9379
58054SOL    HW284093   8.189  12.741  10.340  0.6809 -0.1920  0.7295
58055SOL     OW84094   6.996   4.344   3.775  0.3988 -0.5835  0.2198
58055SOL    HW184095   6.957   4.274   3.722 -0.3027  0.6178 -0.8868
58055SOL    HW284096   7.033   4.405   3.711  0.7477  0.2179  1.1608
58056SOL     OW84097   8.515   5.157   0.227  0.9845  0.0940  0.0304
58056SOL    HW184098   8.519   5.093   0.156 -0.7354  0.0380 -0.0716
58056SOL    HW284099   8.543   5.239   0.188  2.1548 -0.3686 -0.1256
58057SOL     OW84100   1.642  13.220   6.011  0.1309  0.8993  0.3037
58057SOL    HW184101   1.728  13.217   5.971 -1.2628 -1.3114 -2.9471
58057SOL    HW284102   1.638  13.142   6.067  0.1634  0.8412  0.2251
58058SOL     OW84103   2.577   3.076   0.109  0.1286  0.1025 -0.3170
58058SOL    HW184104   2.543   3.133   0.178 -3.2765 -1.9310 -0.0826
58058SOL    HW284105   2.624   3.007   0.154  0.5092  0.3820 -0.2817
58059SOL     OW84106  12.275   4.056   3.944  0.1642 -0.2517  0.4360
58059SOL    HW184107  12.242   4.134   3.988  0.1232  0.0180 -0.0654
58059SOL    HW284108  12.369   4.056   3.960 -0.1172 -1.3974  2.4657
58060SOL     OW84109  11.604  11.679   4.530 -0.0982  0.1018  0.7652
58060SOL    HW184110  11.580  11.587   4.536  0.1832 -0.0076  0.2557
58060SOL    HW284111  11.615  11.707   4.621 -1.9299  0.1046  1.0223
58061SOL     OW84112  10.204   0.119   3.901  0.1768  0.7091  0.0874
58061SOL    HW184113  10.284   0.068   3.906 -0.2309  0.0231 -0.1711
58061SOL    HW284114  10.175   0.128   3.993 -1.3957 -2.2589  0.0161
58062SOL     OW84115   2.988  13.170   0.844  0.4373 -0.1205  0.2983
58062SOL    HW184116   3.069  13.177   0.793 -1.1770  2.3599 -2.2359
58062SOL    HW284117   2.973  13.258   0.878 -1.3425 -0.4352  0.4437
58063SOL     OW84118   4.662   4.436  12.864 -0.2722 -0.1551 -0.1472
58063SOL    HW184119   4.592   4.502  12.866  2.9895  3.8489 -2.2424
58063SOL    HW284120   4.677   4.420  12.771  2.6296  0.5850  0.0803
58064SOL     OW84121   4.619   2.943   0.630  0.1215  0.0163 -0.2024
58064SOL    HW184122   4.551   2.886   0.665  1.8735 -1.5971  0.7812
58064SOL    HW284123   4.629   3.012   0.695  1.4514 -1.4394  1.2207
58065SOL     OW84124   3.293  12.094   4.234 -0.0518  0.2964 -0.2094
58065SOL    HW184125   3.368  12.047   4.269 -0.2420 -0.0668 -0.2827
58065SOL    HW284126   3.330  12.155   4.170  0.1832  0.1539 -0.2091
58066SOL     OW84127  11.618   0.375   5.343 -0.2236  0.3664 -0.0387
58066SOL    HW184128  11.699   0.423   5.359 -0.5470  0.8532  0.1921
58066SOL    HW284129  11.610   0.315   5.417  0.1598 -0.0055 -0.3013
58067SOL     OW84130  11.837  12.182   5.599  0.7414  0.0424  0.0392
58067SOL    HW184131  11.897  12.256   5.602 -1.1876  1.7040  2.1945
58067SOL    HW284132  11.842  12.144   5.687 -2.3679  1.2622  0.8983
58068SOL     OW84133   5.451   3.240   7.945  0.0885 -0.1368 -0.6214
58068SOL    HW184134   5.384   3.172   7.949 -0.5203  0.3994 -1.4846
58068SOL    HW284135   5.437   3.283   7.861  1.1160  0.4010 -0.5382
58069SOL     OW84136   5.341   4.004   5.170  0.1585 -0.2607 -0.7689
58069SOL    HW184137   5.427   4.045   5.181 -1.1431  2.0430  3.0577
58069SOL    HW284138   5.281   4.078   5.157 -1.4719 -1.6594 -1.6056
58070SOL     OW84139   2.434   1.432   6.454  0.2783 -0.1822  0.2660
58070SOL    HW184140   2.475   1.499   6.400  0.4401 -0.0124  0.5957
58070SOL    HW284141   2.503   1.402   6.513  0.3810 -1.0825 -0.2858
58071SOL     OW84142   6.132   1.550   7.253 -0.5384  0.4364 -0.1754
58071SOL    HW184143   6.092   1.511   7.331  0.5939  0.4609  0.4369
58071SOL    HW284144   6.214   1.502   7.241  0.8755  2.5210  0.5511
58072SOL     OW84145   6.725   7.355   1.486 -0.0683  0.3827  0.8681
58072SOL    HW184146   6.740   7.306   1.405  0.2151 -0.6485  1.5245
58072SOL    HW284147   6.648   7.409   1.467 -0.9315 -0.9618  0.3859
58073SOL     OW84148  10.591   2.932   3.156  0.4604 -0.3061  0.3974
58073SOL    HW184149  10.641   2.851   3.163  1.7237  0.2589 -1.4798
58073SOL    HW284150  10.578   2.959   3.247  2.2782 -1.2715  1.0070
58074SOL     OW84151   4.132  11.000   0.849  0.9072 -0.0292  0.6057
58074SOL    HW184152   4.072  10.929   0.868  1.0638 -0.3301 -0.0007
58074SOL    HW284153   4.079  11.079   0.856  0.1151 -0.3713 -1.1752
58075SOL     OW84154   7.399   5.326   4.310 -0.4369  0.2206 -0.0442
58075SOL    HW184155   7.334   5.333   4.239 -0.6808  0.5295  0.2081
58075SOL    HW284156   7.347   5.301   4.387 -0.2615  0.4877  0.1626
58076SOL     OW84157   6.005   4.606   2.700  0.2294 -0.0507 -0.0302
58076SOL    HW184158   5.986   4.519   2.735  1.1081 -0.1869  0.1421
58076SOL    HW284159   5.987   4.599   2.606  0.2065 -0.3933 -0.0017
58077SOL     OW84160   8.999   9.813   0.818 -0.2153 -0.1094 -0.4258
58077SOL    HW184161   9.048   9.844   0.742 -1.0110  0.4196 -0.7373
58077SOL    HW284162   8.941   9.746   0.783  0.9256 -1.4125  0.1059
58078SOL     OW84163   0.450   5.912   3.950 -0.1073 -0.6105  0.5646
58078SOL    HW184164   0.437   5.835   4.005  0.0499 -1.4020 -0.4668
58078SOL    HW284165   0.538   5.943   3.971 -0.8364  0.4241  2.3197
58079SOL     OW84166   5.645  12.352   2.248 -0.5970 -0.2347 -0.1864
58079SOL    HW184167   5.653  12.422   2.312 -2.8603 -0.4054  0.3357
58079SOL    HW284168   5.563  12.308   2.269  0.9601 -3.4331 -0.1419
58080SOL     OW84169  11.823   0.902   9.227 -0.0339 -0.0428  0.5727
58080SOL    HW184170  11.843   0.990   9.258 -1.0354  0.1891  0.6096
58080SOL    HW284171  11.777   0.860   9.300  1.0038 -0.8290  0.7945
58081SOL     OW84172   3.963  11.415   5.152 -0.1129  0.6444  0.1544
58081SOL    HW184173   4.038  11.424   5.211  0.3942 -1.7966 -0.0049
58081SOL    HW284174   3.891  11.387   5.209 -0.3128  0.8397 -0.0029
58082SOL     OW84175   3.166   1.898  12.713 -0.1787  0.3759  0.3961
58082SOL    HW184176   3.118   1.897  12.796  0.2912 -0.0912  0.6675
58082SOL    HW284177   3.215   1.816  12.713  0.7650  0.9318  0.2049
58083SOL     OW84178  11.595  10.780   1.779 -0.3230  0.2499 -0.0368
58083SOL    HW184179  11.557  10.772   1.867  0.8823 -0.6653  0.4301
58083SOL    HW284180  11.556  10.859   1.743 -0.9794  0.5401  1.2567
58084SOL     OW84181   7.924   4.759   6.894  0.9753  0.1739  0.0941
58084SOL    HW184182   7.999   4.811   6.920 -0.7580  2.6649  0.4274
58084SOL    HW284183   7.851   4.795   6.944 -0.8912 -0.5777 -1.9175
58085SOL     OW84184   7.617   7.388   7.882  0.2947  0.1500  0.7040
58085SOL    HW184185   7.706   7.371   7.852 -0.5798 -0.2992 -1.8537
58085SOL    HW284186   7.600   7.319   7.946  0.5709 -2.1094 -1.4891
58086SOL     OW84187   3.790   7.801   8.874  0.5044 -0.5403  0.2557
58086SOL    HW184188   3.791   7.705   8.880 -1.0991 -0.6523 -0.7754
58086SOL    HW284189   3.701   7.826   8.899  1.2989  0.8252  1.8864
58087SOL     OW84190   0.823  12.851   8.366  0.6580  0.0412 -0.1191
58087SOL    HW184191   0.798  12.944   8.359  0.0028 -0.0915  0.3709
58087SOL    HW284192   0.807  12.816   8.278 -0.0923  0.1594 -0.0362
58088SOL     OW84193   6.940  13.117  11.688 -0.1327  0.1367 -0.3542
58088SOL    HW184194   6.856  13.081  11.718 -0.4177  1.9034  1.1289
58088SOL    HW284195   7.004  13.049  11.712 -1.1322 -1.4565 -1.9503
58089SOL     OW84196   0.044   7.140  10.352  0.6833  0.3455  0.1496
58089SOL    HW184197   0.047   7.204  10.280  1.0081  0.5722  0.3600
58089SOL    HW284198  -0.034   7.088  10.334 -1.2831  2.6257  1.5219
58090SOL     OW84199   9.238   3.838   3.711 -0.2630  0.4335  0.8121
58090SOL    HW184200   9.169   3.799   3.657  0.9650  0.3454 -0.7819
58090SOL    HW284201   9.286   3.895   3.651  1.9863 -0.6849  1.4359
58091SOL     OW84202   8.578  10.675   8.065 -0.5668  0.0533 -0.0887
58091SOL    HW184203   8.671  10.687   8.083 -0.7469 -0.4501  1.3428
58091SOL    HW284204   8.562  10.723   7.984  0.5015  1.9205  0.7439
58092SOL     OW84205   8.374  10.368   9.455  0.6738  0.1862 -0.3045
58092SOL    HW184206   8.387  10.330   9.368  1.1751 -0.8536  0.2050
58092SOL    HW284207   8.349  10.294   9.510  0.6190  0.7848  0.4897
58093SOL     OW84208   8.580  12.731   1.714 -0.4568  0.1957  0.8239
58093SOL    HW184209   8.511  12.767   1.770 -1.4027  0.0311 -0.1991
58093SOL    HW284210   8.658  12.728   1.770 -0.7455  2.2949  1.4180
58094SOL     OW84211   1.344   0.369  11.624  0.1387  0.0399  0.3055
58094SOL    HW184212   1.293   0.446  11.649  1.4463  1.4058 -1.0219
58094SOL    HW284213   1.358   0.378  11.530  3.2724  0.0781  0.6598
58095SOL     OW84214   3.879   6.036  12.010 -0.2110  0.1648 -0.4507
58095SOL    HW184215   3.898   6.126  11.984  0.3339  0.1155 -0.2298
58095SOL    HW284216   3.861   5.990  11.928  0.2839  0.2956 -0.6351
58096SOL     OW84217   4.009   8.829   0.770  0.3434  0.2646  0.0310
58096SOL    HW184218   3.934   8.809   0.827  1.3818 -1.4931  0.8666
58096SOL    HW284219   3.971   8.877   0.697 -1.0517  2.7515  2.2082
58097SOL     OW84220   9.332   7.059   4.680 -0.4025  0.8567 -0.5027
58097SOL    HW184221   9.315   7.008   4.600 -2.4173  0.0502  0.3771
58097SOL    HW284222   9.375   6.997   4.739 -0.7418  0.8569 -0.2554
58098SOL     OW84223   4.881   8.659  10.248  0.1570 -0.4153  0.0054
58098SOL    HW184224   4.869   8.587  10.186 -1.2736  0.0274 -0.2781
58098SOL    HW284225   4.795   8.702  10.251  1.1228  1.6606 -0.2903
58099SOL     OW84226   4.256   4.423  11.605  0.3530  0.1041 -0.0309
58099SOL    HW184227   4.263   4.414  11.510  0.5780  1.4537 -0.1636
58099SOL    HW284228   4.203   4.502  11.618  0.4120 -0.0067  0.9530
58100SOL     OW84229   8.447  10.276   1.745 -0.2689 -0.4841 -0.0012
58100SOL    HW184230   8.542  10.272   1.745 -0.2623 -0.3275  0.6391
58100SOL    HW284231   8.420  10.199   1.695  0.1645 -1.5862  1.3858
58101SOL     OW84232   1.205   6.459  11.814 -0.5933 -0.2087 -0.2675
58101SOL    HW184233   1.123   6.508  11.809 -0.6728  0.0264  2.2387
58101SOL    HW284234   1.179   6.370  11.837 -0.2402 -0.6698 -1.5552
58102SOL     OW84235   6.903  12.065   6.540 -0.4678 -0.5644 -0.6440
58102SOL    HW184236   6.849  12.005   6.592 -0.2902 -0.6389 -0.5424
58102SOL    HW284237   6.840  12.116   6.490 -0.6321 -0.6591 -0.5377
58103SOL     OW84238   5.500   3.247   1.084 -0.5419 -0.3332  0.7965
58103SOL    HW184239   5.594   3.262   1.081 -0.7546  1.2090  1.3911
58103SOL    HW284240   5.486   3.173   1.025  1.1865 -1.4454  1.7026
58104SOL     OW84241  10.999   7.825  11.620  0.2304 -0.4235 -0.2985
58104SOL    HW184242  10.962   7.909  11.593  1.3818 -0.4821 -2.2097
58104SOL    HW284243  11.089   7.846  11.647  1.2917 -1.2702 -2.8961
58105SOL     OW84244   7.899  12.948   2.008 -0.0923 -0.1271 -0.8141
58105SOL    HW184245   7.870  13.027   1.961  1.1275 -0.6287 -2.5206
58105SOL    HW284246   7.868  12.876   1.954  1.7686 -0.7166 -1.1480
58106SOL     OW84247   2.065   8.066  12.906  0.3730  0.5153  0.3761
58106SOL    HW184248   2.152   8.067  12.866 -0.0876  1.2809 -0.6590
58106SOL    HW284249   2.011   8.120  12.848 -0.7532  0.2096  1.0990
58107SOL     OW84250   0.653   6.736   5.007 -0.3921  0.1381 -0.1792
58107SOL    HW184251   0.728   6.681   5.032 -1.0720 -1.1752 -0.9166
58107SOL    HW284252   0.688   6.825   5.006  1.1151 -0.4282 -0.3237
58108SOL     OW84253   1.717   6.501   4.374  0.3935 -0.4115  0.1499
58108SOL    HW184254   1.641   6.519   4.429  0.5577 -0.5367  0.4209
58108SOL    HW284255   1.734   6.408   4.386  0.8664 -0.2924  0.4521
58109SOL     OW84256   8.669   4.546  13.111  0.2123 -0.0973 -0.8196
58109SOL    HW184257   8.591   4.549  13.167 -0.8265  2.4451 -2.2244
58109SOL    HW284258   8.670   4.458  13.075 -1.5749 -0.4350 -0.1463
58110SOL     OW84259   6.956   7.143   5.355  0.3244 -0.1914 -0.7826
58110SOL    HW184260   6.906   7.213   5.313  0.8635  0.2875 -0.6345
58110SOL    HW284261   7.032   7.131   5.299  0.7645  0.0639 -0.2476
58111SOL     OW84262   3.323   3.745   5.264 -0.5822 -0.1145  0.5802
58111SOL    HW184263   3.311   3.833   5.230 -1.4217  0.1254  1.4615
58111SOL    HW284264   3.284   3.747   5.351  2.0033 -0.5534  1.8403
58112SOL     OW84265   1.208  10.204   9.688  0.0008  0.3482  0.1158
58112SOL    HW184266   1.264  10.280   9.701 -0.7715  1.0237 -0.4425
58112SOL    HW284267   1.222  10.178   9.597  1.0463 -0.8394  0.5837
58113SOL     OW84268   4.012   4.487   5.380  0.0754  0.1610 -0.2426
58113SOL    HW184269   4.101   4.522   5.378  0.0386  0.3813  0.9637
58113SOL    HW284270   3.981   4.507   5.468 -1.0975 -0.0995 -0.5828
58114SOL     OW84271  10.753   5.010   6.505  0.1894  0.0495  0.8480
58114SOL    HW184272  10.753   4.914   6.512  0.6065  0.0312  0.6135
58114SOL    HW284273  10.830   5.030   6.452  0.2175  0.5276  1.0657
58115SOL     OW84274   6.946   3.320  10.783 -0.2810 -0.0964 -0.2576
58115SOL    HW184275   6.853   3.307  10.764 -0.4130 -0.0877  0.3644
58115SOL    HW284276   6.965   3.409  10.753  0.1331 -0.9013 -2.6537
58116SOL     OW84277  10.925   0.575  11.982 -0.3509  0.1403  0.3031
58116SOL    HW184278  10.970   0.578  12.066 -0.0353  1.0268  0.1089
58116SOL    HW284279  10.832   0.577  12.005 -0.2584  1.6326  0.5994
58117SOL     OW84280  10.902  11.114   9.856 -0.3047 -0.0942  0.4298
58117SOL    HW184281  10.902  11.184   9.921  0.7839  0.1824  0.1613
58117SOL    HW284282  10.972  11.055   9.885 -0.2769 -0.3331 -0.1144
58118SOL     OW84283   9.026   5.860   0.436 -0.0549 -0.2015 -0.2137
58118SOL    HW184284   9.077   5.779   0.434 -0.2784 -0.4163  1.5110
58118SOL    HW284285   8.950   5.839   0.490 -0.4922  0.9659 -0.3515
58119SOL     OW84286  12.151   0.999  11.058 -0.4859  0.1029 -0.5011
58119SOL    HW184287  12.210   0.994  11.133 -0.7403 -1.5938 -0.3801
58119SOL    HW284288  12.201   0.959  10.986 -0.9938 -0.1172 -0.7305
58120SOL     OW84289  12.650   5.087  10.282 -0.0201  0.3409 -0.4763
58120SOL    HW184290  12.720   5.149  10.259  0.9918  0.7084  2.9627
58120SOL    HW284291  12.673   5.007  10.234  1.7703  0.9984 -0.8285
58121SOL     OW84292  13.229   1.750   3.227 -0.0021  0.1615  0.1153
58121SOL    HW184293  13.184   1.751   3.143 -0.7245  0.5894  0.4942
58121SOL    HW284294  13.286   1.674   3.224 -0.0209  0.1811 -0.7626
58122SOL     OW84295  12.339   2.987   3.699  0.6000  0.4026  0.2016
58122SOL    HW184296  12.378   3.062   3.655  0.2974  0.0552 -0.6724
58122SOL    HW284297  12.299   3.024   3.778 -1.1590  1.4909 -1.1182
58123SOL     OW84298   5.740   6.656  10.059 -0.0510 -0.1852 -0.4225
58123SOL    HW184299   5.697   6.661  10.144  0.9733 -0.5581  0.1331
58123SOL    HW284300   5.669   6.633   9.998 -1.7195  4.1425 -0.4596
58124SOL     OW84301   7.847   7.153   0.966  0.1316 -0.2226  0.2331
58124SOL    HW184302   7.804   7.148   0.880  1.7248  0.7722 -0.6808
58124SOL    HW284303   7.880   7.243   0.970 -0.9719  0.1306  2.4534
58125SOL     OW84304   5.239   5.937   6.301  0.1784 -0.1182 -0.0715
58125SOL    HW184305   5.179   5.942   6.375 -0.6255 -0.8380 -0.6450
58125SOL    HW284306   5.186   5.901   6.230  1.6417 -2.1309 -0.2294
58126SOL     OW84307   1.076   7.484   1.176  0.5676  0.1765 -0.1104
58126SOL    HW184308   1.074   7.455   1.085  2.4639  0.9639 -0.4522
58126SOL    HW284309   1.046   7.575   1.173  1.0789  0.3507 -0.0249
58127SOL     OW84310  10.358  10.155   8.066 -0.3107  0.0335  0.4012
58127SOL    HW184311  10.404  10.234   8.094 -0.7628 -0.1329  1.6875
58127SOL    HW284312  10.424  10.086   8.071 -0.0126  0.2590 -0.3608
58128SOL     OW84313  11.000   4.380   6.796  0.3918  0.1835 -0.1387
58128SOL    HW184314  10.997   4.387   6.891  2.5716 -0.1609  0.0265
58128SOL    HW284315  10.993   4.470   6.764  2.8845  0.7286  0.5817
58129SOL     OW84316   6.925   4.828   4.767  0.0218  0.2495  0.1469
58129SOL    HW184317   6.836   4.850   4.794 -0.2998 -0.3206 -0.4371
58129SOL    HW284318   6.919   4.738   4.735  0.7554  0.2954 -0.1249
58130SOL     OW84319   2.224   0.063   7.705  0.1254  0.2091 -0.3860
58130SOL    HW184320   2.246  -0.030   7.705  0.0849  0.1951 -0.9243
58130SOL    HW284321   2.142   0.068   7.754 -0.7253 -0.2615 -1.7157
58131SOL     OW84322   2.918  13.224   3.741 -0.6212 -0.0214  0.7906
58131SOL    HW184323   2.897  13.317   3.749  1.8044  0.9021 -1.8420
58131SOL    HW284324   2.870  13.195   3.663 -1.1326 -0.9031  1.4249
58132SOL     OW84325  12.831   9.162   9.096  0.3889  0.5866  0.3465
58132SOL    HW184326  12.910   9.108   9.093 -0.5314 -0.7897 -0.9233
58132SOL    HW284327  12.856   9.243   9.052  0.7930 -0.3295 -1.2022
58133SOL     OW84328   4.470   3.096   5.567  0.1239 -0.0030  0.4212
58133SOL    HW184329   4.545   3.037   5.571 -1.1958 -1.7625  0.2647
58133SOL    HW284330   4.452   3.105   5.473 -1.5084 -1.8522  0.4977
58134SOL     OW84331   7.399   2.473   7.858  0.2059  0.1476  0.3117
58134SOL    HW184332   7.464   2.505   7.920  0.0762 -0.6733  0.8947
58134SOL    HW284333   7.426   2.508   7.773 -0.1722  2.1203  0.9607
58135SOL     OW84334   2.653  11.651  11.348 -1.1018  0.2590 -0.0605
58135SOL    HW184335   2.638  11.556  11.343 -1.8302  0.3975 -0.7476
58135SOL    HW284336   2.569  11.689  11.325 -0.7436  1.0821 -0.0205
58136SOL     OW84337  12.256   4.896   2.496  0.0093 -0.5250 -0.0699
58136SOL    HW184338  12.246   4.910   2.591 -0.7732  0.0384 -0.2249
58136SOL    HW284339  12.348   4.913   2.479 -0.5263  3.3172 -0.0079
58137SOL     OW84340   1.123  10.028   7.627  0.2795  0.4271 -0.1261
58137SOL    HW184341   1.068  10.072   7.692  2.0887  1.7697  0.5794
58137SOL    HW284342   1.085   9.940   7.620 -0.6489  0.6027  1.9181
58138SOL     OW84343  13.049   8.496   1.090  0.2563 -0.5879 -0.5032
58138SOL    HW184344  13.124   8.513   1.034 -0.2603  0.0595 -1.0176
58138SOL    HW284345  12.981   8.465   1.030 -0.7252  1.3639 -0.4705
58139SOL     OW84346   4.238  10.891  12.548  0.0736 -0.0156  0.1114
58139SOL    HW184347   4.214  10.819  12.490  0.2844 -0.6347  0.7874
58139SOL    HW284348   4.155  10.930  12.575 -0.0236  0.4101 -0.7545
58140SOL     OW84349   2.068   3.989  10.396 -0.4403  0.2567  0.3155
58140SOL    HW184350   2.102   4.038  10.471  0.0645 -0.5243  0.6155
58140SOL    HW284351   1.979   3.964  10.420 -0.2615 -0.0327  0.6789
58141SOL     OW84352   8.407   2.858  13.132 -0.1459 -0.0812  0.3770
58141SOL    HW184353   8.376   2.945  13.106  1.3501  0.4713  0.3044
58141SOL    HW284354   8.328   2.808  13.147 -1.0537  1.1354 -0.1250
58142SOL     OW84355  13.251   4.227  11.154 -0.2177  0.3878  0.3842
58142SOL    HW184356  13.247   4.134  11.131 -2.3682 -0.0728  2.2090
58142SOL    HW284357  13.337   4.256  11.124  0.0968 -1.9202 -1.1637
58143SOL     OW84358  10.493  12.764  10.617  0.7726  0.0968  0.1293
58143SOL    HW184359  10.455  12.769  10.705  1.0615  1.5730  0.1979
58143SOL    HW284360  10.420  12.782  10.558  0.7811  0.1132  0.1242
58144SOL     OW84361   3.350   1.131   2.334 -0.2263 -0.4519 -0.2077
58144SOL    HW184362   3.319   1.105   2.248  0.0211 -0.5869 -0.2559
58144SOL    HW284363   3.278   1.182   2.371  0.1361  0.6773 -0.9874
58145SOL     OW84364   3.123   5.214   7.630 -0.2897  0.0252 -0.7116
58145SOL    HW184365   3.059   5.170   7.685 -0.1398 -2.1316 -2.1376
58145SOL    HW284366   3.083   5.298   7.608 -0.8022  0.5059  1.7105
58146SOL     OW84367   5.629   5.769   1.371 -0.0416  0.1203 -0.1423
58146SOL    HW184368   5.584   5.685   1.378  4.5436 -2.6187  0.1637
58146SOL    HW284369   5.606   5.815   1.452 -0.9461 -1.7656  0.7388
58147SOL     OW84370   1.581   4.327   8.122  0.1146  0.1317 -0.5511
58147SOL    HW184371   1.608   4.418   8.121 -0.3742  0.3088  0.5873
58147SOL    HW284372   1.620   4.289   8.043  3.0587  0.5287  0.6030
58148SOL     OW84373   5.366  12.161   6.435 -0.3456 -0.2274  0.3859
58148SOL    HW184374   5.418  12.241   6.445  1.1082 -1.3612  2.5069
58148SOL    HW284375   5.275  12.192   6.436  0.2002  1.5385 -0.5733
58149SOL     OW84376   2.469   6.349  10.260 -0.2932  0.0253  0.1548
58149SOL    HW184377   2.559   6.325  10.281  0.5979  2.1760 -0.8729
58149SOL    HW284378   2.445   6.414  10.327 -1.4133 -1.0773  0.8841
58150SOL     OW84379   1.001   5.436   8.253  0.5895  0.2653  0.0945
58150SOL    HW184380   0.995   5.351   8.210  2.0529 -0.2968  0.9211
58150SOL    HW284381   0.911   5.464   8.266  0.0812  0.1301 -2.6479
58151SOL     OW84382   5.568   9.818   3.862 -0.3684 -0.5454 -0.2599
58151SOL    HW184383   5.595   9.909   3.870  1.6839 -1.0156 -0.9970
58151SOL    HW284384   5.558   9.787   3.952  0.5497 -0.0102  0.0343
58152SOL     OW84385   6.483   4.259   2.446 -0.3019 -0.3521 -0.6716
58152SOL    HW184386   6.484   4.355   2.446 -1.7779 -0.3034 -1.4516
58152SOL    HW284387   6.422   4.236   2.516  1.4604 -0.8071  0.7770
58153SOL     OW84388   1.376   3.578   5.659  0.5232 -0.4503 -0.4164
58153SOL    HW184389   1.405   3.636   5.588 -0.9536  0.9583  0.0618
58153SOL    HW284390   1.303   3.625   5.699  0.5011 -1.8080  1.2291
58154SOL     OW84391  12.590   3.645   2.787 -0.2570 -0.1910 -0.0241
58154SOL    HW184392  12.539   3.583   2.736 -1.4531  1.6935 -1.2336
58154SOL    HW284393  12.671   3.658   2.737  0.8634 -2.0781  1.1650
58155SOL     OW84394  12.033  12.197   7.666 -0.3191 -0.1506  0.1152
58155SOL    HW184395  12.038  12.269   7.728 -0.4465  0.4649 -0.5783
58155SOL    HW284396  12.121  12.191   7.629 -0.1850 -0.6608  0.5062
58156SOL     OW84397   5.757   8.604  11.994 -0.0490 -0.0142 -0.1207
58156SOL    HW184398   5.694   8.645  12.053 -1.3290  0.8070 -1.9720
58156SOL    HW284399   5.710   8.528  11.959  0.1224  0.3647 -1.2004
58157SOL     OW84400  10.898  11.495   5.385  0.5485 -0.1688 -0.2104
58157SOL    HW184401  10.829  11.432   5.364 -0.7664  0.8563  0.8507
58157SOL    HW284402  10.883  11.517   5.477  1.5517  1.0171 -0.3092
58158SOL     OW84403   5.959   0.444   0.151  0.3472  0.0358 -0.7050
58158SOL    HW184404   5.978   0.362   0.106 -0.7818 -0.0514 -1.0789
58158SOL    HW284405   6.008   0.510   0.102  2.7822 -0.5989  0.7191
58159SOL     OW84406   7.070   7.649   5.089 -0.3185  0.4677 -0.3323
58159SOL    HW184407   7.025   7.671   5.007  0.3661  1.6234 -0.4227
58159SOL    HW284408   7.077   7.733   5.135  1.1905  0.2068 -0.0529
58160SOL     OW84409   8.643   1.199   1.674  0.3314  0.4260 -0.4107
58160SOL    HW184410   8.575   1.171   1.736  0.0415 -0.6538 -1.1966
58160SOL    HW284411   8.697   1.260   1.724 -0.1002 -0.1535  0.7985
58161SOL     OW84412  10.923   4.530   7.008 -0.3918  0.1436 -0.0663
58161SOL    HW184413  10.861   4.565   6.944 -1.5600 -0.8506  0.4841
58161SOL    HW284414  10.939   4.602   7.069 -2.9160 -0.2209  1.1717
58162SOL     OW84415   2.440   1.315   0.086 -0.4477 -0.1474  0.1462
58162SOL    HW184416   2.401   1.338   0.001 -1.5487  0.0433  0.6932
58162SOL    HW284417   2.526   1.280   0.063 -0.4042  0.6320 -1.0003
58163SOL     OW84418   1.870   8.024   2.662 -0.4645  0.1526 -0.4458
58163SOL    HW184419   1.904   8.113   2.673  0.8959 -0.2010 -1.4149
58163SOL    HW284420   1.777   8.036   2.644 -0.1852  1.4359 -1.1820
58164SOL     OW84421   7.825   7.973  13.305 -0.0142 -0.4462  0.9282
58164SOL    HW184422   7.753   8.010  13.357  0.3194 -0.6938  1.5865
58164SOL    HW284423   7.897   8.035  13.317  0.0572 -0.4907  0.7314
58165SOL     OW84424   7.645   0.500   8.984  0.2582 -0.4550  0.1775
58165SOL    HW184425   7.623   0.542   8.900 -1.0104  0.8015  1.0876
58165SOL    HW284426   7.722   0.446   8.965  1.2842  1.4235 -1.3138
58166SOL     OW84427  12.759   9.224   1.784 -0.0772  0.1484 -0.0418
58166SOL    HW184428  12.809   9.260   1.711  0.7149 -1.6480 -0.4393
58166SOL    HW284429  12.744   9.299   1.842 -1.6196  1.8770 -2.4737
58167SOL     OW84430   8.785   3.907  13.238  0.4333 -0.3063 -0.2406
58167SOL    HW184431   8.873   3.910  13.201  0.0557  1.3173 -1.0743
58167SOL    HW284432   8.764   3.998  13.259 -1.1002 -0.6443 -0.1773
58168SOL     OW84433   0.573   7.621   5.398 -0.0089 -0.0354 -0.1331
58168SOL    HW184434   0.594   7.665   5.316 -0.6533  2.3669  0.9248
58168SOL    HW284435   0.656   7.613   5.444  0.2707 -0.9250 -0.7603
58169SOL     OW84436  12.429   1.844   6.028 -0.3719 -0.2095 -0.2700
58169SOL    HW184437  12.365   1.913   6.016  0.2396  1.0800  2.8452
58169SOL    HW284438  12.505   1.871   5.976 -1.1873 -0.1244 -1.4447
58170SOL     OW84439   5.143   3.561  12.026  0.2387 -0.3605 -0.0344
58170SOL    HW184440   5.193   3.607  11.958  2.1947 -1.9620  0.2439
58170SOL    HW284441   5.209   3.532  12.088 -1.2504 -1.1703  1.2175
58171SOL     OW84442   1.922  11.778   3.602 -0.1548 -0.2873  0.2108
58171SOL    HW184443   1.829  11.785   3.626 -0.2828  0.8878 -0.5277
58171SOL    HW284444   1.924  11.798   3.509  0.7194 -1.4730 -0.0386
58172SOL     OW84445   0.194   2.846   6.096 -0.1105 -0.2289 -0.4023
58172SOL    HW184446   0.210   2.808   6.009  1.2704  0.4163 -0.4632
58172SOL    HW284447   0.126   2.792   6.134 -0.6862 -0.5743 -1.8649
58173SOL     OW84448   8.417   6.294   0.162  0.1298 -0.1160 -0.1976
58173SOL    HW184449   8.388   6.270   0.074 -0.3383 -0.5981  0.0781
58173SOL    HW284450   8.503   6.334   0.149  0.1682 -0.3946 -0.8501
58174SOL     OW84451   8.696   7.704   8.558  0.6648  0.1363 -0.7873
58174SOL    HW184452   8.676   7.759   8.482  2.3054  1.0544 -0.6081
58174SOL    HW284453   8.639   7.736   8.628 -1.0789 -0.9177 -1.6670
58175SOL     OW84454  11.110   0.162  11.847  0.3905 -0.1367 -0.0296
58175SOL    HW184455  11.085   0.245  11.806  0.4919 -0.0850  0.0126
58175SOL    HW284456  11.126   0.185  11.939  0.1360 -0.2561  0.0479
58176SOL     OW84457  11.739   3.962   8.492  0.3826 -0.2571 -0.2198
58176SOL    HW184458  11.765   4.017   8.419  0.5389  0.4775  0.3789
58176SOL    HW284459  11.766   4.010   8.570  0.5248 -1.1830  0.3181
58177SOL     OW84460   8.944   5.667   1.554 -0.0415  0.0816 -0.1668
58177SOL    HW184461   8.989   5.721   1.489 -0.7493  0.8053 -0.0640
58177SOL    HW284462   8.929   5.725   1.628  0.9974 -0.8027  0.7758
58178SOL     OW84463  11.318   7.521   3.951 -0.4483  0.0187  0.7010
58178SOL    HW184464  11.312   7.574   4.031 -2.1328 -0.6787  1.0812
58178SOL    HW284465  11.246   7.552   3.897  0.9782  0.8339 -0.8148
58179SOL     OW84466   4.266  10.409  11.550  0.2172 -0.4205  0.5677
58179SOL    HW184467   4.295  10.499  11.535 -0.4816  0.0225  1.7042
58179SOL    HW284468   4.228  10.411  11.638 -0.0108 -1.7790  0.5184
58180SOL     OW84469  11.490   7.664   5.066 -0.4203 -0.0365 -0.2903
58180SOL    HW184470  11.579   7.695   5.053 -0.1557 -0.9251 -0.6377
58180SOL    HW284471  11.499   7.583   5.116 -0.7893 -1.7158 -2.7313
58181SOL     OW84472   7.948  11.662  10.713  0.2713  0.0712  0.2982
58181SOL    HW184473   7.978  11.632  10.799  0.2664 -0.2189  0.2012
58181SOL    HW284474   8.025  11.705  10.675  0.8827 -1.5175 -0.3361
58182SOL     OW84475   5.750  12.325   0.514 -0.3159 -0.8544  0.0889
58182SOL    HW184476   5.721  12.382   0.442 -1.0837 -1.0584  0.2207
58182SOL    HW284477   5.798  12.383   0.573  1.5472 -0.9704 -1.2668
58183SOL     OW84478  10.130  11.309   2.848 -0.0824 -0.8504 -0.2755
58183SOL    HW184479  10.198  11.297   2.914  0.2904  2.9127  0.2347
58183SOL    HW284480  10.178  11.327   2.767 -0.3704  1.2026 -0.0423
58184SOL     OW84481  10.114   0.917   3.923 -0.9064 -0.4400  0.0369
58184SOL    HW184482  10.182   0.850   3.917 -0.6112 -0.0332 -2.0687
58184SOL    HW284483  10.141   0.972   3.996  1.1827 -0.1887 -0.8349
58185SOL     OW84484   8.039   9.230   8.295 -0.2736 -0.2367  0.0237
58185SOL    HW184485   8.076   9.304   8.247  0.9762  0.2753  1.6890
58185SOL    HW284486   8.065   9.154   8.243  0.4575  0.3368 -0.4912
58186SOL     OW84487   8.867  10.099   0.622 -0.2404 -0.1454  0.2144
58186SOL    HW184488   8.828  10.015   0.644  1.8637 -1.5171 -0.8967
58186SOL    HW284489   8.876  10.097   0.527  1.9901  0.2627  0.3582
58187SOL     OW84490   3.730   9.402   0.523 -0.2127 -0.4739  0.4301
58187SOL    HW184491   3.763   9.341   0.590 -0.5068 -0.4810  0.5736
58187SOL    HW284492   3.692   9.345   0.456 -0.7437 -0.4452  0.7008
58188SOL     OW84493  11.984   3.382   6.284  0.7164 -0.1400  0.0285
58188SOL    HW184494  12.020   3.309   6.335  0.1116 -1.2397 -1.0468
58188SOL    HW284495  12.001   3.358   6.192  0.2490  0.9339 -0.3573
58189SOL     OW84496   5.941   7.306   5.463 -0.0770  0.5375 -0.7263
58189SOL    HW184497   5.925   7.223   5.508 -1.0038  0.2421 -1.5810
58189SOL    HW284498   5.854   7.340   5.442  0.2876  1.7455 -0.3922
58190SOL     OW84499   4.543   6.109   4.822 -0.3934 -0.0966  0.1707
58190SOL    HW184500   4.599   6.186   4.825  0.7564 -0.9235  2.7448
58190SOL    HW284501   4.485   6.125   4.748  1.9934  1.6482 -1.4673
58191SOL     OW84502   1.383   1.713  12.478 -0.0002 -0.3005 -0.4864
58191SOL    HW184503   1.336   1.792  12.503  0.5289 -0.0181 -0.3770
58191SOL    HW284504   1.328   1.641  12.510 -0.1223  0.0320  0.0541
58192SOL     OW84505  12.525  12.011  11.695 -0.1683  0.0637 -0.2779
58192SOL    HW184506  12.456  12.065  11.658 -0.8019 -0.8257 -0.4316
58192SOL    HW284507  12.589  12.073  11.729  0.0479  0.9145 -2.1251
58193SOL     OW84508   0.209  10.421   0.552  0.3565 -0.1058  0.5525
58193SOL    HW184509   0.261  10.412   0.472  0.0203  0.5999  0.2457
58193SOL    HW284510   0.160  10.339   0.559  0.9378 -0.4615  0.4308
58194SOL     OW84511   8.040  12.130  11.588 -0.2714 -0.5615 -0.4314
58194SOL    HW184512   8.054  12.037  11.606  0.0836 -0.7408 -1.5632
58194SOL    HW284513   7.949  12.146  11.615 -0.3318 -1.2321 -0.2176
58195SOL     OW84514  12.471   6.760   5.497  0.4123  0.5200 -0.3533
58195SOL    HW184515  12.433   6.773   5.583  1.3528  0.4257  0.0870
58195SOL    HW284516  12.481   6.848   5.461 -1.2570  0.4925 -0.9491
58196SOL     OW84517   1.545   6.997   8.430  0.1071 -0.3545 -0.3180
58196SOL    HW184518   1.629   6.963   8.399  0.5784 -0.1403  0.6752
58196SOL    HW284519   1.568   7.059   8.499 -0.8052  0.9088 -1.0978
58197SOL     OW84520   2.868   8.809   4.227 -0.0669  0.1247 -0.0090
58197SOL    HW184521   2.956   8.835   4.255 -0.4264  1.0605  0.3010
58197SOL    HW284522   2.873   8.714   4.215  0.7442  0.0461  0.8753
58198SOL     OW84523   9.706   1.753  11.899 -0.0632  0.4611  0.2210
58198SOL    HW184524   9.666   1.828  11.943  1.9462  1.4880  0.4159
58198SOL    HW284525   9.801   1.766  11.911  0.3996 -1.1377 -1.3260
58199SOL     OW84526  11.079   7.524  11.305 -0.1145  0.3065  0.1012
58199SOL    HW184527  10.985   7.535  11.289  0.3955  3.9177 -1.2182
58199SOL    HW284528  11.120   7.543  11.221  1.8635 -1.5564  0.5606
58200SOL     OW84529  11.588   6.292   1.702 -0.4666 -0.2127  0.1167
58200SOL    HW184530  11.548   6.214   1.740 -0.7127 -1.0337 -1.7080
58200SOL    HW284531  11.682   6.274   1.704 -0.4028  0.2142  1.2794
58201SOL     OW84532   1.299   8.902  10.759  0.5684  0.3916 -0.1638
58201SOL    HW184533   1.314   8.917  10.665 -1.2107 -1.7015 -0.8615
58201SOL    HW284534   1.218   8.852  10.763 -0.7164  2.4830  2.7080
58202SOL     OW84535  10.612   3.181   4.077  0.1197  0.1923 -0.0314
58202SOL    HW184536  10.528   3.216   4.048  0.3049  1.6908  1.0952
58202SOL    HW284537  10.626   3.104   4.022 -2.3906 -0.6395  0.3439
58203SOL     OW84538  11.863   9.453   8.925  0.1923 -0.0534  0.2315
58203SOL    HW184539  11.927   9.419   8.863 -0.1938  1.0634 -0.8419
58203SOL    HW284540  11.852   9.545   8.899 -0.7567  0.1585  1.3115
58204SOL     OW84541   7.422   2.783  10.746  0.0051 -0.2718 -0.1392
58204SOL    HW184542   7.373   2.738  10.678  0.6577 -1.0772 -0.0966
58204SOL    HW284543   7.514   2.761  10.728  0.2223 -0.0968  0.7065
58205SOL     OW84544   2.205   0.725   1.852  0.2237 -0.3403 -0.3091
58205SOL    HW184545   2.244   0.701   1.767  0.0843  1.3222 -0.8874
58205SOL    HW284546   2.114   0.697   1.845 -0.6036  2.4165 -1.9561
58206SOL     OW84547   1.191  10.875   0.559  0.0961 -0.6014  0.2145
58206SOL    HW184548   1.188  10.779   0.554 -1.5469 -0.5390 -0.8506
58206SOL    HW284549   1.207  10.894   0.651  0.8142 -1.8926  0.3796
58207SOL     OW84550  13.192   9.084   5.519 -0.1982 -0.1234  0.3057
58207SOL    HW184551  13.260   9.098   5.453 -1.3226  0.2635 -0.8006
58207SOL    HW284552  13.213   9.146   5.589  0.8035 -0.2849  0.1592
58208SOL     OW84553   5.183   7.912  11.599  0.2453 -0.2199  0.1113
58208SOL    HW184554   5.175   7.965  11.520 -1.4679 -1.7507 -0.8160
58208SOL    HW284555   5.109   7.938  11.653  1.4429  0.8589  1.2752
58209SOL     OW84556  11.525  10.782  11.965 -0.4261  0.0807  0.4629
58209SOL    HW184557  11.538  10.748  11.877  0.4417  1.4687  0.0198
58209SOL    HW284558  11.452  10.843  11.957 -1.1297 -0.6822  0.9717
58210SOL     OW84559   0.120   8.713  12.008  0.0029  0.6875 -0.1190
58210SOL    HW184560   0.096   8.720  12.101 -1.1083 -0.1620 -0.3249
58210SOL    HW284561   0.058   8.651  11.972  0.7951  0.5704 -1.3244
58211SOL     OW84562   2.431   0.606   0.761  0.0583 -0.3181  0.2921
58211SOL    HW184563   2.502   0.646   0.810 -0.5257  0.9151  0.1784
58211SOL    HW284564   2.428   0.655   0.679 -0.0005 -1.3095 -0.3218
58212SOL     OW84565   8.736   1.300  11.279  0.1964  0.1574 -0.6223
58212SOL    HW184566   8.686   1.310  11.360 -0.2073 -0.0538 -0.8464
58212SOL    HW284567   8.785   1.219  11.291  1.7861  1.1720  0.2886
58213SOL     OW84568  10.691   8.961   7.241  0.1007 -0.4495 -0.6447
58213SOL    HW184569  10.706   8.965   7.146 -1.4451 -2.8357 -1.0955
58213SOL    HW284570  10.601   8.992   7.252  0.1804 -0.4403  0.0010
58214SOL     OW84571  10.475   7.041  10.849 -0.2446 -0.3867  0.1325
58214SOL    HW184572  10.533   7.115  10.831  4.0182 -3.0179  1.6336
58214SOL    HW284573  10.442   7.015  10.763 -0.1576  1.8850 -0.6577
58215SOL     OW84574  10.480  11.222   4.891  0.1086  0.5216 -0.3071
58215SOL    HW184575  10.534  11.193   4.817  1.5395  2.1022  0.0744
58215SOL    HW284576  10.441  11.141   4.924  0.5029 -0.3919 -1.9424
58216SOL     OW84577   3.634   0.320   4.065  0.2669  0.2680 -0.0196
58216SOL    HW184578   3.699   0.388   4.053  1.2136 -0.5974  0.0189
58216SOL    HW284579   3.659   0.251   4.003 -0.1074 -0.4274  0.5754
58217SOL     OW84580  12.089  10.959   0.594  0.1364  0.3255 -0.3748
58217SOL    HW184581  12.119  10.943   0.504  1.8928 -0.7085  0.3567
58217SOL    HW284582  12.066  11.052   0.594  2.0478  0.8452 -1.3845
58218SOL     OW84583  11.320  10.255   5.460 -0.1296  0.2359 -0.3705
58218SOL    HW184584  11.309  10.161   5.468 -0.5533  0.2648 -0.5956
58218SOL    HW284585  11.347  10.268   5.369 -0.3439  0.3545 -0.4181
58219SOL     OW84586   6.174  11.471   1.311  0.3873 -0.6443  0.3030
58219SOL    HW184587   6.242  11.509   1.366 -1.0562  1.5468  0.6591
58219SOL    HW284588   6.098  11.463   1.368  0.2926 -3.1585 -0.0567
58220SOL     OW84589   1.159   7.814   4.559  0.0146 -0.1159  0.0213
58220SOL    HW184590   1.073   7.846   4.586 -0.0630 -0.7666  0.5799
58220SOL    HW284591   1.180   7.864   4.480 -1.1230 -0.3377 -0.4468
58221SOL     OW84592   4.798   2.614   1.290 -0.0601  0.0446  0.0634
58221SOL    HW184593   4.873   2.618   1.231 -0.9349  0.2182 -1.0975
58221SOL    HW284594   4.830   2.571   1.369  0.8767 -1.2625 -0.9953
58222SOL     OW84595   3.822  11.250   8.830 -0.0158 -0.6495  0.1998
58222SOL    HW184596   3.847  11.189   8.760  1.2479  1.0914 -0.9760
58222SOL    HW284597   3.731  11.229   8.849 -0.2266 -1.5877 -1.5691
58223SOL     OW84598  10.922   9.644   9.990 -0.3080  0.2617  0.4669
58223SOL    HW184599  10.840   9.630  10.037 -0.5193 -0.2441 -0.0493
58223SOL    HW284600  10.900   9.706   9.921 -0.4242 -0.3904 -0.0977
58224SOL     OW84601  10.207  12.474   3.532 -0.5643 -0.1406 -0.3663
58224SOL    HW184602  10.221  12.569   3.528 -1.8049  0.2282  1.9232
58224SOL    HW284603  10.254  12.439   3.457  1.6829  2.0779 -0.1059
58225SOL     OW84604  12.964   1.718   2.266 -0.6999 -0.5023 -0.1519
58225SOL    HW184605  12.966   1.623   2.256  0.6839 -0.5977  0.7631
58225SOL    HW284606  13.027   1.750   2.202 -1.3152 -0.1697 -0.6039
58226SOL     OW84607   9.753  11.178   5.719 -0.5606  0.0548  0.9313
58226SOL    HW184608   9.712  11.160   5.635 -1.3659 -2.1608  1.7110
58226SOL    HW284609   9.845  11.192   5.699 -0.9126  0.5952 -0.4003
58227SOL     OW84610  12.913  12.489  11.637  1.1547 -0.4130 -0.0135
58227SOL    HW184611  12.934  12.458  11.549  0.1892  0.0893 -0.4366
58227SOL    HW284612  12.820  12.467  11.648  0.2411  2.7216 -0.5638
58228SOL     OW84613   6.976   4.079   5.551  0.1704  0.0900  0.0996
58228SOL    HW184614   6.945   4.130   5.626 -1.5422  0.9391 -1.1231
58228SOL    HW284615   6.920   4.001   5.551  0.4259 -0.0948 -0.0728
58229SOL     OW84616   3.908   4.541  13.276 -0.4851 -0.1758  0.8610
58229SOL    HW184617   3.943   4.590  13.201  1.9432 -0.6148  1.6223
58229SOL    HW284618   3.900   4.451  13.244  0.8007 -0.4152  1.1582
58230SOL     OW84619  13.251   4.158   7.910 -0.3788 -0.6633  0.0930
58230SOL    HW184620  13.271   4.251   7.895 -0.9638 -0.4834  0.4186
58230SOL    HW284621  13.332   4.112   7.885 -0.7794 -0.2653 -2.1594
58231SOL     OW84622  12.404   8.653  10.399 -0.2269 -0.5640 -0.7075
58231SOL    HW184623  12.484   8.633  10.350  0.1062 -0.5876 -0.1700
58231SOL    HW284624  12.372   8.569  10.430 -0.3177 -0.5281 -0.7022
58232SOL     OW84625   6.672   8.393  12.827 -0.0791 -0.4420 -0.5528
58232SOL    HW184626   6.724   8.334  12.882  1.4531  0.0763 -1.3956
58232SOL    HW284627   6.612   8.436  12.888  0.4563 -1.0800  0.4490
58233SOL     OW84628   9.256  10.753   3.294  0.1237  0.2876 -0.1732
58233SOL    HW184629   9.267  10.722   3.204 -0.4342 -2.3843  0.5988
58233SOL    HW284630   9.295  10.684   3.348 -1.0471  1.0338  1.7018
58234SOL     OW84631  10.802   7.884   5.280  0.1114 -0.1231  0.5269
58234SOL    HW184632  10.756   7.968   5.290  0.6638  0.2441  0.1040
58234SOL    HW284633  10.797   7.865   5.187  1.0105  0.0458  0.4352
58235SOL     OW84634  10.443   7.143  10.328 -0.7417 -0.2617  0.1921
58235SOL    HW184635  10.518   7.142  10.269 -0.4685 -1.6330  0.5226
58235SOL    HW284636  10.478   7.178  10.410 -0.5852 -0.3949  0.1841
58236SOL     OW84637  12.692  11.237  10.625  0.3323  0.3373  0.4949
58236SOL    HW184638  12.730  11.323  10.609 -0.2839  0.6444  0.6736
58236SOL    HW284639  12.766  11.176  10.615  0.6015  0.8003 -0.4764
58237SOL     OW84640   4.173   7.805   7.109  0.4356  0.3548  0.0331
58237SOL    HW184641   4.122   7.885   7.096  1.0509  0.6530 -0.5491
58237SOL    HW284642   4.125   7.757   7.177 -1.4214 -0.0536 -1.4810
58238SOL     OW84643  10.380   5.850   8.349  0.2099 -0.1960 -0.5616
58238SOL    HW184644  10.305   5.833   8.406  1.8623  0.9888  2.1257
58238SOL    HW284645  10.429   5.768   8.349  0.2871 -0.1507 -0.1520
58239SOL     OW84646   0.988   5.767   6.933  0.5256 -0.4530 -0.6017
58239SOL    HW184647   0.998   5.674   6.911  1.1185 -0.7479  0.7804
58239SOL    HW284648   0.900   5.789   6.904 -0.3716 -1.9860  0.7825
58240SOL     OW84649   8.176   1.162   2.859  0.0626 -0.9936  0.7639
58240SOL    HW184650   8.268   1.166   2.887 -0.5792  1.4465  2.8488
58240SOL    HW284651   8.170   1.228   2.790 -0.1662 -0.9518  0.8245
58241SOL     OW84652   0.803   8.952   6.961  0.1915 -0.2799 -0.9721
58241SOL    HW184653   0.898   8.968   6.958  0.1935  0.5297  1.2794
58241SOL    HW284654   0.764   9.039   6.958 -0.1933 -0.1654  2.7637
58242SOL     OW84655   5.720   4.561   4.612  0.0592 -0.5162  0.1040
58242SOL    HW184656   5.698   4.641   4.564  1.2964 -1.7113 -2.6751
58242SOL    HW284657   5.816   4.560   4.615  0.0599 -0.2824  3.1547
58243SOL     OW84658   9.732  12.865  11.575 -0.3891  0.1206 -0.2497
58243SOL    HW184659   9.689  12.808  11.511  1.1724 -0.2823 -0.9983
58243SOL    HW284660   9.818  12.825  11.587 -0.0388  1.1596  0.8405
58244SOL     OW84661   5.127   6.329   9.638 -0.5324  0.1391  0.0504
58244SOL    HW184662   5.057   6.267   9.616 -1.3815  1.3696 -0.8558
58244SOL    HW284663   5.085   6.392   9.697 -0.7554  1.9125 -1.8908
58245SOL     OW84664  10.819   8.441  10.200  1.1165 -0.2694  0.2740
58245SOL    HW184665  10.897   8.470  10.154  0.3979  0.1455 -0.7392
58245SOL    HW284666  10.788   8.365  10.151 -1.3167  1.9000 -1.9081
58246SOL     OW84667   5.864   8.778  12.282  0.0063 -0.0735 -0.3861
58246SOL    HW184668   5.950   8.807  12.313  1.1070 -0.2380 -3.0764
58246SOL    HW284669   5.842   8.705  12.339  1.6236 -0.0065  0.3869
58247SOL     OW84670   8.602  12.048   2.404  0.2392  0.2222  0.2930
58247SOL    HW184671   8.612  11.988   2.330  0.8771  1.7561 -0.9115
58247SOL    HW284672   8.537  12.112   2.375  1.2350  1.4304  0.6431
58248SOL     OW84673   4.988   9.057  11.311 -0.2569 -0.4227  0.1682
58248SOL    HW184674   4.957   9.003  11.384 -2.2873  0.2539 -0.1477
58248SOL    HW284675   4.947   9.142  11.324  0.5587  0.1769 -0.9670
58249SOL     OW84676   6.898   6.745   8.798  0.4185  0.0756 -0.3852
58249SOL    HW184677   6.827   6.804   8.822  0.5669 -0.1051  0.5508
58249SOL    HW284678   6.904   6.751   8.702 -1.5494 -0.7097 -0.5995
58250SOL     OW84679   6.736   0.338  11.490 -0.1990  0.4721 -0.1255
58250SOL    HW184680   6.655   0.359  11.536  0.6478 -0.1597  1.7682
58250SOL    HW284681   6.758   0.417  11.441 -0.8396  1.4010  1.0610
58251SOL     OW84682   3.986  11.906   5.002  0.8132  0.1836  0.3733
58251SOL    HW184683   3.988  11.994   4.963 -0.4271  0.0729  0.0066
58251SOL    HW284684   3.892  11.886   5.011  1.0413 -1.5798 -0.6450
58252SOL     OW84685  13.014   5.051   7.931  0.0189  1.0380  0.1177
58252SOL    HW184686  12.938   5.081   7.982 -0.3593  3.1554 -1.5600
58252SOL    HW284687  13.089   5.094   7.972  0.6250 -1.8301  2.4146
58253SOL     OW84688   0.803   0.240   0.118 -0.4078 -0.2215 -0.6410
58253SOL    HW184689   0.814   0.197   0.034 -0.2004 -1.5513  0.0432
58253SOL    HW284690   0.832   0.175   0.182 -0.9267  0.6232  0.4772
58254SOL     OW84691  12.909   6.676   4.085  0.2668  0.4167  0.2430
58254SOL    HW184692  12.881   6.651   3.997  0.1808  2.2612 -0.2872
58254SOL    HW284693  12.977   6.612   4.108  0.4995  0.0903 -1.2866
58255SOL     OW84694  12.280  11.658   7.960 -0.9146  0.1023 -0.2628
58255SOL    HW184695  12.220  11.601   7.912 -0.8198  0.3418 -0.6632
58255SOL    HW284696  12.289  11.736   7.906  0.1856 -0.1612 -0.4701
58256SOL     OW84697  12.657   7.354   0.840  0.0938  0.2196 -0.6076
58256SOL    HW184698  12.666   7.264   0.870 -0.4965  0.1808 -0.5398
58256SOL    HW284699  12.649   7.347   0.745  0.6903  0.2496 -0.6625
58257SOL     OW84700   3.008   5.133   2.787 -0.2425  0.5863  0.0150
58257SOL    HW184701   3.098   5.166   2.778 -0.1286 -0.1030 -1.6840
58257SOL    HW284702   3.005   5.097   2.876  1.5194 -0.3620 -0.2680
58258SOL     OW84703  12.548   0.878   8.477 -0.1378 -0.2935  0.2720
58258SOL    HW184704  12.546   0.929   8.559 -2.2841  2.2101 -1.1602
58258SOL    HW284705  12.465   0.900   8.434  1.9118  0.5723 -3.7547
58259SOL     OW84706   1.822   7.003   0.317 -0.3474 -0.2176  0.2577
58259SOL    HW184707   1.873   7.083   0.335  0.0488 -0.0945 -1.3206
58259SOL    HW284708   1.736   7.036   0.290 -0.2452 -0.3234 -0.2018
58260SOL     OW84709   6.825   8.756  12.326  0.2025 -0.1698  0.4035
58260SOL    HW184710   6.770   8.688  12.286 -2.1816  1.4987  0.6233
58260SOL    HW284711   6.818   8.830  12.266  0.3939  0.8306  1.5775
58261SOL     OW84712  11.021   4.661   6.678  0.3697  0.0902 -0.0946
58261SOL    HW184713  11.075   4.724   6.631 -1.5590  3.7799  2.1213
58261SOL    HW284714  11.041   4.677   6.770 -0.7593 -2.0971  0.5885
58262SOL     OW84715   4.772   2.751   5.198  0.3329 -0.3317  0.3982
58262SOL    HW184716   4.719   2.765   5.120  2.4309  1.7285 -0.8082
58262SOL    HW284717   4.838   2.687   5.171  1.9896  1.4915 -0.1169
58263SOL     OW84718   8.888   1.818   3.898  0.1945  0.1863  0.2402
58263SOL    HW184719   8.883   1.731   3.939 -1.1667  0.1930  0.1296
58263SOL    HW284720   8.872   1.802   3.805  0.1674  0.5323  0.1832
58264SOL     OW84721  10.103   4.545   8.895 -0.2207 -0.1311 -0.2453
58264SOL    HW184722  10.194   4.525   8.873 -0.7606 -0.6732 -2.1612
58264SOL    HW284723  10.104   4.558   8.990  1.3459 -2.8211  0.2062
58265SOL     OW84724   3.224   8.518   7.717  0.0671  0.3046  0.1401
58265SOL    HW184725   3.177   8.452   7.767  1.2307 -0.4308  0.3079
58265SOL    HW284726   3.156   8.579   7.687 -0.8461 -0.1375  1.2317
58266SOL     OW84727   2.966   8.151   2.970 -0.4531  0.0144  0.1087
58266SOL    HW184728   2.904   8.126   2.902 -1.4928 -0.2717  1.1239
58266SOL    HW284729   2.912   8.162   3.049  0.9469 -1.7989  1.4120
58267SOL     OW84730   8.856   1.001   5.504 -0.4569  0.8897  0.5218
58267SOL    HW184731   8.785   1.035   5.559 -0.5055  1.9283 -0.1574
58267SOL    HW284732   8.911   1.077   5.486 -0.4384  0.5747 -0.8664
58268SOL     OW84733   9.102  11.626   4.008 -0.2582  0.1423  0.3955
58268SOL    HW184734   9.128  11.706   3.962  1.1765 -0.1895  0.5596
58268SOL    HW284735   9.113  11.647   4.101 -1.4559  0.2522  0.5317
58269SOL     OW84736  11.392   7.452   6.418  0.2922 -0.4170 -0.4819
58269SOL    HW184737  11.358   7.472   6.505 -1.9729 -0.8941 -1.1917
58269SOL    HW284738  11.483   7.426   6.433  0.5118  1.2284  1.5018
58270SOL     OW84739   4.159  11.045   5.902 -0.0879  0.5275 -0.4286
58270SOL    HW184740   4.224  11.115   5.894  0.8487 -0.0203  1.8157
58270SOL    HW284741   4.107  11.068   5.978 -1.0385 -0.2555 -0.8122
58271SOL     OW84742   1.859   7.489   1.291 -0.1659  0.3794 -0.0497
58271SOL    HW184743   1.852   7.583   1.310  1.3792  0.9214 -1.8366
58271SOL    HW284744   1.907   7.485   1.209 -1.2509 -1.9818 -0.6428
58272SOL     OW84745  12.627   7.116   7.212  0.2948  0.1276  0.3721
58272SOL    HW184746  12.678   7.105   7.292 -1.5655 -0.2587  1.5678
58272SOL    HW284747  12.672   7.060   7.148  0.9367 -0.8038  1.5733
58273SOL     OW84748   7.279   9.407   2.821 -0.2101 -0.1263 -0.0164
58273SOL    HW184749   7.184   9.416   2.826 -0.2225 -0.6933  0.8345
58273SOL    HW284750   7.302   9.352   2.895  0.8047  0.1187 -0.1396
58274SOL     OW84751   4.605   6.672   6.062 -0.2463 -0.0937  0.3215
58274SOL    HW184752   4.532   6.669   6.000  0.5399 -1.5616 -0.5987
58274SOL    HW284753   4.564   6.692   6.146 -1.7497 -1.1150 -0.1239
58275SOL     OW84754   7.581   0.112   0.551  0.0331 -0.2489 -0.2302
58275SOL    HW184755   7.495   0.079   0.575  0.0709 -0.2354 -0.0771
58275SOL    HW284756   7.580   0.204   0.579 -0.4523  0.1834 -1.5881
58276SOL     OW84757  11.589  12.692   9.278 -0.1553  0.1465  0.0350
58276SOL    HW184758  11.560  12.612   9.321 -2.9567 -0.0064 -1.8744
58276SOL    HW284759  11.508  12.733   9.246  1.4429  2.0779 -1.8387
58277SOL     OW84760  12.706   3.091   6.225 -0.0923  0.2310 -0.1395
58277SOL    HW184761  12.711   3.054   6.137  1.1146 -1.5175  0.5970
58277SOL    HW284762  12.795   3.124   6.242  0.2294 -1.1428  1.0610
58278SOL     OW84763   2.989  12.627   2.794 -0.3995  0.8824  0.6924
58278SOL    HW184764   3.028  12.670   2.869 -0.0322  1.7171  0.0400
58278SOL    HW284765   3.062  12.618   2.732 -0.9092  1.0986  0.0539
58279SOL     OW84766   5.493  11.908   1.223  0.2672  0.5630 -0.0177
58279SOL    HW184767   5.557  11.849   1.264  0.0449  1.1206  1.1647
58279SOL    HW284768   5.418  11.852   1.204  1.3758 -0.2962 -2.2155
58280SOL     OW84769   7.050  12.321  12.906  0.0957 -0.0786 -0.6023
58280SOL    HW184770   6.986  12.378  12.949  1.5925 -0.0927  1.8490
58280SOL    HW284771   7.126  12.377  12.892  1.0417 -1.0535  0.4297
58281SOL     OW84772  10.306   4.848   3.334 -0.5095  0.1030 -0.3676
58281SOL    HW184773  10.353   4.927   3.306  0.3831  0.0312  0.8312
58281SOL    HW284774  10.331   4.837   3.426  0.2524 -2.1759 -0.7979
58282SOL     OW84775   6.685   9.603   9.855  0.3546 -0.0559 -0.6314
58282SOL    HW184776   6.664   9.685   9.811 -2.6683 -0.9727 -1.1290
58282SOL    HW284777   6.676   9.623   9.948  0.1351  0.3219 -0.7318
58283SOL     OW84778   8.923   5.056   8.237 -0.9531  0.0892  0.0217
58283SOL    HW184779   8.837   5.038   8.200 -1.7281  0.9653  1.3424
58283SOL    HW284780   8.943   5.146   8.212 -1.9089  1.0386  2.3938
58284SOL     OW84781   1.435   5.250  11.695  0.1942 -0.3859 -0.1991
58284SOL    HW184782   1.387   5.198  11.760 -0.8523 -0.7000 -1.1884
58284SOL    HW284783   1.461   5.186  11.629  0.8859 -0.0015 -0.2973
58285SOL     OW84784  11.678   0.758   3.381 -0.0566 -0.4652  0.4899
58285SOL    HW184785  11.669   0.753   3.477 -0.3428  0.1230  0.5011
58285SOL    HW284786  11.609   0.819   3.355  0.1014 -0.5333 -0.0829
58286SOL     OW84787   4.499  10.033   3.876  0.4454  0.2542 -0.1587
58286SOL    HW184788   4.569  10.093   3.900  0.3981  0.5058 -0.6358
58286SOL    HW284789   4.423  10.064   3.925  0.5216  0.3372 -0.0928
58287SOL     OW84790   7.954   6.694  10.875 -0.4509 -0.5746  0.4884
58287SOL    HW184791   7.949   6.790  10.871  0.4489 -0.5658 -1.1104
58287SOL    HW284792   7.974   6.676  10.967 -3.0016  0.6000  1.3612
58288SOL     OW84793   8.591   7.293   1.172 -0.4517 -0.2102  0.4669
58288SOL    HW184794   8.602   7.386   1.188  1.6645 -0.3070 -0.1208
58288SOL    HW284795   8.540   7.287   1.091 -3.2672  0.3371  2.0694
58289SOL     OW84796   9.061   0.338   9.993  0.0598 -0.6862 -0.7169
58289SOL    HW184797   8.987   0.395   9.973  0.9606  0.0025 -2.3116
58289SOL    HW284798   9.044   0.259   9.943 -0.2814 -1.1040  0.0441
58290SOL     OW84799  10.327   1.204  12.712  0.1669  0.6137  0.9504
58290SOL    HW184800  10.269   1.236  12.643  0.5800  1.3432  0.9332
58290SOL    HW284801  10.403   1.168  12.666 -0.5909 -1.0656  0.9339
58291SOL     OW84802   9.830  13.038   6.964 -0.3349  0.4396  0.0169
58291SOL    HW184803   9.921  13.030   6.993 -0.2938 -1.3915 -0.4811
58291SOL    HW284804   9.835  13.086   6.882  0.1972  0.3622 -0.0014
58292SOL     OW84805   2.270   0.508   7.658  0.3713 -0.5167 -0.5403
58292SOL    HW184806   2.266   0.437   7.594 -0.1131  0.1604 -1.2850
58292SOL    HW284807   2.223   0.474   7.734 -0.8733 -0.6020 -1.3068
58293SOL     OW84808   2.128  11.121   8.411  0.1840 -0.1396  0.0938
58293SOL    HW184809   2.107  11.195   8.354  2.8450  0.1515 -0.6460
58293SOL    HW284810   2.175  11.160   8.484 -1.0378 -0.8106  1.2824
58294SOL     OW84811   8.302   6.828   1.362  0.2927  0.4686 -0.2751
58294SOL    HW184812   8.222   6.871   1.334 -0.3368 -0.2121  0.4532
58294SOL    HW284813   8.321   6.866   1.448 -1.2390 -1.8790  1.2001
58295SOL     OW84814   3.578   2.713   4.130 -0.0731 -0.2971 -0.0593
58295SOL    HW184815   3.522   2.757   4.193 -0.4160  0.5889 -0.9503
58295SOL    HW284816   3.517   2.661   4.077 -0.2272  1.3957 -1.6320
58296SOL     OW84817   4.433  10.115  10.284  0.0177 -0.2012  0.4559
58296SOL    HW184818   4.344  10.145  10.301 -0.0990  0.2114 -0.7736
58296SOL    HW284819   4.486  10.194  10.285 -0.0888 -0.0596 -1.5363
58297SOL     OW84820   9.030   8.273  12.627 -1.1141  0.0566  0.0050
58297SOL    HW184821   9.061   8.361  12.648 -0.3589 -0.2291  0.1284
58297SOL    HW284822   9.110   8.222  12.614 -1.4471 -1.3315  2.7698
58298SOL     OW84823   5.293   0.495   2.448 -0.1609 -0.3458  0.4600
58298SOL    HW184824   5.263   0.406   2.427 -0.3972 -0.1381 -0.1142
58298SOL    HW284825   5.381   0.484   2.483  1.0563 -0.5867 -2.4253
58299SOL     OW84826   3.803   8.438   1.652  0.2390  0.1369 -0.3682
58299SOL    HW184827   3.716   8.401   1.663  0.0936  0.9047  1.5369
58299SOL    HW284828   3.788   8.526   1.618  0.4359 -0.4665 -2.1429
58300SOL     OW84829  13.014   6.975   3.919  0.0013 -0.6322 -0.3842
58300SOL    HW184830  12.963   6.906   3.876 -0.4769  0.3784 -1.4795
58300SOL    HW284831  13.062   6.929   3.989 -1.1756 -1.8747 -0.3460
58301SOL     OW84832   2.342   1.394   7.238  0.4512 -0.6767 -0.4772
58301SOL    HW184833   2.434   1.366   7.243  0.3591 -0.9713 -0.4315
58301SOL    HW284834   2.306   1.371   7.324 -0.1786 -2.3847 -1.1595
58302SOL     OW84835  10.928  12.923   6.342 -0.4845 -0.5361  0.2175
58302SOL    HW184836  10.908  12.871   6.265  0.2588 -1.8561  0.8783
58302SOL    HW284837  10.891  12.873   6.415  0.5411 -0.3178  0.9093
58303SOL     OW84838  11.275   9.510   8.242  0.0917  0.2740  0.1853
58303SOL    HW184839  11.332   9.451   8.291  1.0060 -0.2601 -1.4624
58303SOL    HW284840  11.201   9.456   8.216  0.0615  0.3236  0.1674
58304SOL     OW84841   8.204   4.864   0.142  0.1696  0.1450  0.1535
58304SOL    HW184842   8.116   4.837   0.168 -0.8738  0.3148 -2.8280
58304SOL    HW284843   8.238   4.910   0.219 -2.9386  1.4316  0.9338
58305SOL     OW84844   8.454   8.688   8.289 -0.0613 -0.4408 -0.0370
58305SOL    HW184845   8.388   8.750   8.321 -0.7502 -1.5818  0.8891
58305SOL    HW284846   8.537   8.735   8.296 -0.5841  0.4593  0.4032
58306SOL     OW84847   2.964   7.035   2.308 -0.4408 -0.1959 -0.4212
58306SOL    HW184848   2.997   6.966   2.364 -2.1385 -0.3788  0.4069
58306SOL    HW284849   3.003   7.115   2.342  0.0268 -0.5237 -0.1850
58307SOL     OW84850  10.350   3.371  10.224  0.9011  0.3449  0.2545
58307SOL    HW184851  10.436   3.357  10.264  0.4551 -0.8103  0.8529
58307SOL    HW284852  10.315   3.449  10.267  0.6516 -0.5757  1.7881
58308SOL     OW84853   6.356   9.621   1.621  0.2534 -0.0928 -0.6330
58308SOL    HW184854   6.363   9.709   1.586 -1.5946  0.5659  0.5258
58308SOL    HW284855   6.431   9.613   1.681 -0.4513  1.3100  0.4809
58309SOL     OW84856   0.864   0.060  10.122 -0.6108 -0.4568  0.0673
58309SOL    HW184857   0.895  -0.029  10.142  0.5502 -0.2900 -0.8515
58309SOL    HW284858   0.910   0.083  10.041 -1.3022  0.7830  0.0109
58310SOL     OW84859   1.364  11.155  11.048  0.3602  0.5379  0.2880
58310SOL    HW184860   1.453  11.137  11.020 -0.3650 -1.3827 -0.9438
58310SOL    HW284861   1.338  11.232  10.999  1.7210  1.9208  1.6193
58311SOL     OW84862   2.162   8.746   0.848  0.8883 -0.2154 -0.1516
58311SOL    HW184863   2.081   8.694   0.854  0.7553 -0.1248 -0.9612
58311SOL    HW284864   2.132   8.837   0.846  0.9493 -0.2019 -1.1067
58312SOL     OW84865   3.976  11.646   3.080  0.4082  0.1315 -0.4628
58312SOL    HW184866   3.924  11.569   3.102  1.5947 -0.6745 -0.4204
58312SOL    HW284867   3.912  11.710   3.050 -0.4862 -1.2916 -1.7096
58313SOL     OW84868   4.705   2.321  11.364  0.6039 -0.2267  0.0553
58313SOL    HW184869   4.772   2.383  11.392  3.4625 -3.0460  0.0737
58313SOL    HW284870   4.681   2.275  11.445 -2.2943  1.3818  0.2497
58314SOL     OW84871  10.671   0.631   7.684  0.1591 -0.5838 -0.3047
58314SOL    HW184872  10.762   0.651   7.704  0.7205 -2.6907 -0.5133
58314SOL    HW284873  10.639   0.582   7.760 -0.9974  0.6423  0.0243
58315SOL     OW84874   0.336   6.465  11.397  0.0747 -0.4953 -0.7804
58315SOL    HW184875   0.401   6.522  11.437 -0.5253  0.6220 -1.3438
58315SOL    HW284876   0.252   6.498  11.430 -0.2758 -1.2194 -0.9209
58316SOL     OW84877  10.241  11.481   2.315  0.7709 -0.0115 -0.7673
58316SOL    HW184878  10.327  11.484   2.273  0.1623  2.2851 -2.0253
58316SOL    HW284879  10.199  11.403   2.278  1.9776 -0.6486 -0.8250
58317SOL     OW84880  13.187   5.227   8.033  0.6133  0.1181 -1.3003
58317SOL    HW184881  13.162   5.294   8.096 -0.2803 -0.5036 -0.9693
58317SOL    HW284882  13.283   5.230   8.031  0.6258  0.5582 -0.3605
58318SOL     OW84883   0.089   0.363  13.092  0.2689 -0.3320 -0.1948
58318SOL    HW184884   0.155   0.329  13.031  0.3010  0.6174 -0.6964
58318SOL    HW284885   0.140   0.410  13.158  0.1271 -0.0746 -0.2705
58319SOL     OW84886   2.333   6.882   7.061  0.0313 -0.3771 -0.0526
58319SOL    HW184887   2.239   6.888   7.046  0.1205 -1.7448 -1.5120
58319SOL    HW284888   2.342   6.858   7.153 -0.9933  0.6796  0.3332
58320SOL     OW84889   0.812   7.369   0.067  0.4276  0.2774  0.2152
58320SOL    HW184890   0.856   7.432   0.124  0.6021  2.3102 -2.0068
58320SOL    HW284891   0.763   7.423   0.005  1.6978 -1.6802 -2.7099
58321SOL     OW84892   5.407   1.391   0.456 -0.3315  0.1521  0.5499
58321SOL    HW184893   5.485   1.334   0.454 -0.6058 -0.2193  0.3706
58321SOL    HW284894   5.357   1.366   0.378  0.4222  1.9080 -0.5482
58322SOL     OW84895   1.874   3.518  12.032 -0.4571  0.3478  0.9519
58322SOL    HW184896   1.930   3.595  12.024  0.9268 -0.7951 -1.8322
58322SOL    HW284897   1.804   3.533  11.968 -0.1447 -0.7064  0.3446
58323SOL     OW84898  10.659   9.228  11.286  0.2858 -0.6610 -0.9647
58323SOL    HW184899  10.750   9.199  11.280  0.3103 -1.4837  1.8092
58323SOL    HW284900  10.663   9.316  11.323  0.0036 -1.3631  0.8798
58324SOL     OW84901  10.650  12.775   6.854 -0.1212 -0.0641  0.1406
58324SOL    HW184902  10.643  12.835   6.928 -0.1904 -0.3775  0.3880
58324SOL    HW284903  10.642  12.831   6.777  0.8305  0.3870  0.3501
58325SOL     OW84904   4.033   8.421   9.675  0.0919  0.8543  0.3543
58325SOL    HW184905   4.056   8.420   9.768  0.4683  1.2521  0.2707
58325SOL    HW284906   4.113   8.453   9.632  1.2154 -2.5990 -0.4592
58326SOL     OW84907   5.735  11.335   8.997  0.2593  0.3214 -0.1510
58326SOL    HW184908   5.666  11.270   8.981  0.5492 -0.2049  0.6839
58326SOL    HW284909   5.817  11.286   8.988  0.4885  0.6715  0.0321
58327SOL     OW84910   2.149   6.639   5.606  0.0559  0.4973  0.1662
58327SOL    HW184911   2.101   6.671   5.530  2.8343 -0.3626 -2.1033
58327SOL    HW284912   2.214   6.707   5.623  0.8256 -0.2931  0.4121
58328SOL     OW84913  10.466  13.133   4.877  0.5720  0.6444 -0.3563
58328SOL    HW184914  10.471  13.047   4.918 -1.2877  1.5538  2.0078
58328SOL    HW284915  10.526  13.187   4.927  1.7379  0.7737 -1.8370
58329SOL     OW84916  10.983   8.846   2.326  0.2550  0.1287  0.5721
58329SOL    HW184917  10.967   8.940   2.323 -0.0673  0.0806  0.7342
58329SOL    HW284918  11.053   8.831   2.262  0.0918  0.4327  0.3211
58330SOL     OW84919  13.144   6.498   4.656  0.3999  0.2068  0.4112
58330SOL    HW184920  13.065   6.535   4.695 -0.9318 -0.8495 -1.1167
58330SOL    HW284921  13.194   6.574   4.626 -0.1830  0.8800  1.1100
58331SOL     OW84922   9.349  10.013   9.791 -0.7897 -0.3554 -0.1428
58331SOL    HW184923   9.374  10.097   9.831 -0.9254  0.1147 -1.0250
58331SOL    HW284924   9.430   9.961   9.793 -0.2273  0.4428 -1.1869
58332SOL     OW84925  10.225   6.863  11.542  0.2097  0.1781  0.3223
58332SOL    HW184926  10.270   6.884  11.624  0.9648 -2.1936  0.5930
58332SOL    HW284927  10.153   6.926  11.537 -0.5196 -0.2651  3.3888
58333SOL     OW84928   1.651   1.470   4.732 -0.4711  0.5929  0.2918
58333SOL    HW184929   1.700   1.394   4.761 -0.6834  0.8006  1.2439
58333SOL    HW284930   1.562   1.439   4.720 -0.2491  0.3571 -0.8213
58334SOL     OW84931   9.802   9.845  11.580  0.5660  0.3186  0.2750
58334SOL    HW184932   9.769   9.920  11.530  0.6866 -0.6618 -1.3467
58334SOL    HW284933   9.863   9.801  11.521  0.0154 -1.4283  0.9233
58335SOL     OW84934   2.845  11.999  10.499 -0.3261  0.0326 -0.6561
58335SOL    HW184935   2.853  11.917  10.450 -0.9511 -0.1127 -0.5177
58335SOL    HW284936   2.936  12.024  10.517  0.0851  1.1966 -3.6666
58336SOL     OW84937   9.334   8.941   8.681 -0.0021  0.0032 -0.0592
58336SOL    HW184938   9.350   8.955   8.774  1.2676  1.6695 -0.4858
58336SOL    HW284939   9.252   8.892   8.678  0.0073 -0.2146  1.9276
58337SOL     OW84940   6.370  11.009  13.132 -0.0989 -0.1502  0.1967
58337SOL    HW184941   6.283  10.984  13.164 -1.4560 -0.6302 -3.3180
58337SOL    HW284942   6.355  11.094  13.090  0.8470 -0.7041 -1.3394
58338SOL     OW84943   2.259  13.022   2.208  0.0494 -0.1371  0.0692
58338SOL    HW184944   2.337  13.061   2.248 -0.0468  0.3557 -0.2198
58338SOL    HW284945   2.189  13.040   2.271  0.2065 -0.8159  0.4595
58339SOL     OW84946   0.725   6.024   6.232  0.9507  0.4428  0.2930
58339SOL    HW184947   0.673   5.957   6.188  0.3946  1.0378  0.0237
58339SOL    HW284948   0.801   6.035   6.175  2.1602 -1.4680  1.4243
58340SOL     OW84949  10.911   4.301   7.652  0.3222  0.3564 -0.8657
58340SOL    HW184950  10.919   4.395   7.635  0.7906  0.2774 -1.0711
58340SOL    HW284951  10.957   4.259   7.580  0.9268 -0.0119 -0.2691
58341SOL     OW84952  12.119   3.625  13.119 -0.3713 -0.0229  0.0942
58341SOL    HW184953  12.089   3.593  13.034  0.2380  0.4757 -0.3142
58341SOL    HW284954  12.196   3.678  13.099  0.3679 -0.6919  1.0432
58342SOL     OW84955  12.323   0.543  11.224  0.3589  0.0454 -0.0099
58342SOL    HW184956  12.257   0.531  11.156  0.4657 -0.6756  0.0121
58342SOL    HW284957  12.406   0.542  11.177  0.3414  1.9609 -0.1754
58343SOL     OW84958   9.815   8.582   5.208 -0.2539  0.1850 -0.0515
58343SOL    HW184959   9.748   8.526   5.170 -0.5708  0.0554  0.6838
58343SOL    HW284960   9.801   8.576   5.303  0.5318  0.4823  0.0919
58344SOL     OW84961  11.008   3.001   2.557  0.1755  0.3278 -0.3163
58344SOL    HW184962  11.006   2.916   2.514  1.7774 -0.2215  0.6519
58344SOL    HW284963  10.919   3.035   2.546 -0.4519 -1.3928 -0.8366
58345SOL     OW84964   0.755  12.136   7.051 -0.3523  0.4155 -0.4332
58345SOL    HW184965   0.723  12.201   7.113  0.9817 -0.3601  1.1312
58345SOL    HW284966   0.734  12.051   7.091  1.2885 -0.0983 -0.5916
58346SOL     OW84967   7.569  10.437  12.213  0.5977  0.4307  0.1103
58346SOL    HW184968   7.493  10.435  12.271 -0.7508 -2.8436 -1.5037
58346SOL    HW284969   7.626  10.368  12.247  1.6043  1.0500 -0.2823
58347SOL     OW84970   3.983  11.848  12.718  0.2252 -0.1347 -0.2094
58347SOL    HW184971   4.074  11.819  12.710  0.0620 -0.5291 -0.6674
58347SOL    HW284972   3.943  11.827  12.633 -0.7887 -1.7112  0.6093
58348SOL     OW84973  13.165   5.557  10.998  0.9133  0.3643  0.0248
58348SOL    HW184974  13.195   5.642  10.967 -0.2839  0.2192 -1.6906
58348SOL    HW284975  13.152   5.506  10.919  2.3721 -1.7351  1.0503
58349SOL     OW84976   1.159   4.485  12.185 -0.5068 -0.5299 -0.0267
58349SOL    HW184977   1.160   4.415  12.120  0.9291 -0.2171 -0.3725
58349SOL    HW284978   1.228   4.461  12.247 -1.6422 -0.6629  1.2331
58350SOL     OW84979   3.365   8.054   5.259 -0.7197  0.0649 -0.3769
58350SOL    HW184980   3.438   8.014   5.306 -1.9309 -1.5661  0.2402
58350SOL    HW284981   3.348   8.136   5.305  1.4945  1.1565 -1.3318
58351SOL     OW84982   8.893   9.390   5.948 -0.6148  0.2770 -0.5084
58351SOL    HW184983   8.882   9.309   5.898 -0.6635 -1.0149  1.4493
58351SOL    HW284984   8.967   9.372   6.006 -0.5802  1.6687 -0.0897
58352SOL     OW84985  11.084  12.416   8.402 -0.3881  0.2132 -0.2889
58352SOL    HW184986  11.132  12.365   8.468 -0.6017 -1.4353 -1.3269
58352SOL    HW284987  11.059  12.496   8.447 -0.2403 -0.7043  1.5419
58353SOL     OW84988   6.373   1.910   2.542 -0.2754 -0.0469 -0.2894
58353SOL    HW184989   6.308   1.879   2.479  0.1018 -0.7388 -0.3505
58353SOL    HW284990   6.455   1.868   2.514  0.6263  2.2802 -1.3611
58354SOL     OW84991   4.546   6.078   0.124  0.0687  0.1622 -0.0788
58354SOL    HW184992   4.633   6.051   0.154  1.5212  3.4397 -0.9401
58354SOL    HW284993   4.507   6.123   0.199  0.3469  1.2131 -0.5454
58355SOL     OW84994  11.743   2.537  12.437  0.2619  0.1750 -0.6271
58355SOL    HW184995  11.768   2.447  12.419 -0.4142 -0.3245  0.8232
58355SOL    HW284996  11.810   2.590  12.393  2.0774 -1.0655  0.5188
58356SOL     OW84997   3.096   3.921   6.099  0.0520 -0.2690 -0.0256
58356SOL    HW184998   3.055   3.931   6.013  1.8041 -0.5139 -0.9472
58356SOL    HW284999   3.177   3.872   6.081  0.9104  0.4549  1.6303
58357SOL     OW85000   1.475  11.398   8.933 -0.0965 -0.4226  0.1454
58357SOL    HW185001   1.432  11.312   8.929  0.2961 -0.7417  2.0062
58357SOL    HW285002   1.404  11.461   8.921 -0.7751 -0.9823  1.1045
58358SOL     OW85003   2.036  12.935  13.285  0.3052  0.0408 -0.3247
58358SOL    HW185004   2.039  12.915  13.191 -0.7707 -1.2699 -0.1210
58358SOL    HW285005   2.018  12.850  13.327 -1.4836  0.9519  0.8790
58359SOL     OW85006   5.752  10.824   5.683 -0.1430 -0.2151  0.0080
58359SOL    HW185007   5.784  10.895   5.628  0.3439 -0.6608 -0.2957
58359SOL    HW285008   5.787  10.745   5.643 -2.3979 -0.8229 -0.8963
58360SOL     OW85009   3.313   1.267  11.211  0.2232 -0.3199 -0.2936
58360SOL    HW185010   3.255   1.239  11.141  1.0711 -1.8179 -0.4621
58360SOL    HW285011   3.256   1.306  11.277 -0.9648 -1.5959 -0.5198
58361SOL     OW85012  11.904   0.330   0.719 -0.5210  0.0814 -0.2971
58361SOL    HW185013  11.819   0.375   0.723 -0.1661  1.1097 -2.7452
58361SOL    HW285014  11.942   0.343   0.806 -1.8805  1.6173  0.1183
58362SOL     OW85015   1.959  11.774  10.252 -0.1680  0.3906 -0.2537
58362SOL    HW185016   1.907  11.727  10.188  0.1615 -0.1075 -0.1667
58362SOL    HW285017   2.048  11.773  10.217 -0.1034  0.6923 -0.1064
58363SOL     OW85018  10.338   7.462   6.651  0.1833  0.2943  0.1496
58363SOL    HW185019  10.283   7.522   6.599 -0.6689 -1.1926 -0.7372
58363SOL    HW285020  10.418   7.453   6.600  0.4145  0.8679  0.4100
58364SOL     OW85021   4.556  12.695  11.373  0.0104 -0.2570  0.3133
58364SOL    HW185022   4.649  12.715  11.358  0.1709 -0.3779  1.0886
58364SOL    HW285023   4.556  12.645  11.455 -0.5153 -2.2086 -0.8047
58365SOL     OW85024   0.221   1.104   4.849 -0.4160 -0.2386 -0.1429
58365SOL    HW185025   0.228   1.151   4.932  1.8708  2.8992 -1.9247
58365SOL    HW285026   0.306   1.062   4.838 -0.7429 -0.7230 -0.8925
58366SOL     OW85027   5.417   6.823   3.376 -0.1106 -0.0325  0.3505
58366SOL    HW185028   5.446   6.742   3.418  2.9578  1.3717  1.2042
58366SOL    HW285029   5.343   6.853   3.430 -0.0559 -1.2899  1.1607
58367SOL     OW85030   7.505   9.900   5.684 -0.2477 -0.0577 -0.1593
58367SOL    HW185031   7.465   9.879   5.600  0.6303 -0.1781 -0.5586
58367SOL    HW285032   7.551   9.983   5.668 -0.6935  0.3095  0.4121
58368SOL     OW85033   7.815  10.051  12.446  0.2778  0.6489 -0.4352
58368SOL    HW185034   7.744  10.114  12.461 -0.0669 -0.1867  1.8139
58368SOL    HW285035   7.892  10.106  12.431 -0.4200  1.5838 -0.7036
58369SOL     OW85036  11.566   5.191  12.745 -0.3878  0.2631 -0.0234
58369SOL    HW185037  11.617   5.272  12.745  1.5822 -0.9219  1.1308
58369SOL    HW285038  11.493   5.209  12.805 -0.4359  1.4113 -0.3892
58370SOL     OW85039   5.305   0.901   5.714  0.3706  0.1015 -0.7074
58370SOL    HW185040   5.386   0.890   5.764 -0.5432  0.2362  0.8603
58370SOL    HW285041   5.244   0.838   5.753 -0.6950  0.9624 -0.9267
58371SOL     OW85042   2.174  10.022  10.847  0.3244  0.0786  0.2623
58371SOL    HW185043   2.245  10.043  10.908  0.9260 -0.6354 -0.1755
58371SOL    HW285044   2.132   9.945  10.885  0.8437 -0.5074 -0.3174
58372SOL     OW85045   0.164   3.934   5.895 -0.0118 -0.2701  0.7412
58372SOL    HW185046   0.138   3.996   5.963 -3.9791 -0.1144 -0.6222
58372SOL    HW285047   0.235   3.977   5.848  1.2317  0.6119  3.2933
58373SOL     OW85048   7.914   5.138   0.947 -0.5503 -0.2371  0.5268
58373SOL    HW185049   7.876   5.070   0.892 -1.9498  0.1703  0.9460
58373SOL    HW285050   7.841   5.171   0.999  0.4235  0.4470  1.5320
58374SOL     OW85051   2.050  10.066   4.816 -0.0137  0.3560  0.0485
58374SOL    HW185052   1.974  10.058   4.873 -0.4713 -0.9356 -0.6960
58374SOL    HW285053   2.015  10.103   4.735  0.2557  0.2735 -0.1062
58375SOL     OW85054   3.344  12.466   1.904 -0.4888 -0.0784  0.0616
58375SOL    HW185055   3.423  12.414   1.914 -0.7856 -1.3764 -3.0794
58375SOL    HW285056   3.274  12.403   1.889 -1.9173  1.0853  1.4432
58376SOL     OW85057   4.446   0.210   9.106 -0.2701  0.3418  0.1325
58376SOL    HW185058   4.462   0.259   9.026  0.2829  0.8693  0.5538
58376SOL    HW285059   4.416   0.124   9.076  2.6589 -0.4847 -0.7515
58377SOL     OW85060   5.154  12.640   0.186 -0.0282 -0.1541 -0.2147
58377SOL    HW185061   5.156  12.638   0.282  1.2984  1.0988 -0.1765
58377SOL    HW285062   5.062  12.655   0.165 -0.5652 -1.7694  0.7937
58378SOL     OW85063   2.065   2.398   4.977 -0.2374  0.6436 -0.6683
58378SOL    HW185064   2.108   2.475   4.939 -1.7055  1.1404 -1.4481
58378SOL    HW285065   1.976   2.428   4.995 -0.2578 -0.3118  0.9420
58379SOL     OW85066   0.984   6.721   0.899  0.5258  0.0618 -0.1965
58379SOL    HW185067   0.909   6.772   0.929  1.0540 -0.2459  1.8488
58379SOL    HW285068   1.052   6.785   0.881  0.0690  0.2844 -1.1489
58380SOL     OW85069   8.989   8.014   1.346 -0.2689  0.4054 -0.3181
58380SOL    HW185070   8.915   7.992   1.401 -0.6185 -0.6365 -1.1701
58380SOL    HW285071   9.001   8.108   1.359 -1.1250  0.4104  0.5555
58381SOL     OW85072  11.041   0.419  11.739 -0.3358  0.4570  0.1160
58381SOL    HW185073  11.111   0.465  11.694 -0.0976  0.0088  0.0202
58381SOL    HW285074  11.023   0.472  11.816  0.5247  0.2668  0.4585
58382SOL     OW85075   4.336   7.508   4.374 -0.1550 -0.4415  0.0442
58382SOL    HW185076   4.371   7.476   4.291  0.1256  0.5083 -0.2123
58382SOL    HW285077   4.270   7.572   4.350 -1.4095 -1.5012  0.5471
58383SOL     OW85078   1.355   2.168   9.312 -1.1019 -0.0973 -0.4765
58383SOL    HW185079   1.411   2.104   9.268 -1.8505 -1.0580 -0.0821
58383SOL    HW285080   1.414   2.212   9.373 -0.5017 -0.1911 -0.9766
58384SOL     OW85081   0.844   5.183   0.220 -0.9744  0.2254 -0.4014
58384SOL    HW185082   0.762   5.134   0.208 -0.4685 -1.0498  1.0005
58384SOL    HW285083   0.828   5.238   0.297 -0.1420 -0.9817  0.6823
58385SOL     OW85084   7.498  12.118   2.929  0.0267  0.5188  0.6753
58385SOL    HW185085   7.403  12.120   2.939 -0.0222  0.4560  0.2555
58385SOL    HW285086   7.516  12.033   2.888  0.7036 -1.7150  4.9236
58386SOL     OW85087   2.822  13.313  12.543  0.0730  0.7411  0.4899
58386SOL    HW185088   2.789  13.268  12.465  0.4161 -0.5912  1.0811
58386SOL    HW285089   2.752  13.373  12.568 -0.1820  0.9311 -0.6259
58387SOL     OW85090   9.957   5.706   3.029 -0.0167  0.0412  0.2858
58387SOL    HW185091   9.877   5.752   3.053 -0.5949  0.0647 -1.5563
58387SOL    HW285092  10.023   5.775   3.023 -0.6619  0.5563 -1.5215
58388SOL     OW85093   6.177   5.241  12.984 -0.1778  0.2915  0.8548
58388SOL    HW185094   6.207   5.330  13.001 -0.5281  0.2338  1.8686
58388SOL    HW285095   6.175   5.199  13.070  0.0826 -0.7337  0.3802
58389SOL     OW85096   0.452   6.914   8.851 -0.1776  0.0455 -0.3470
58389SOL    HW185097   0.410   6.903   8.766  1.1948 -0.7979 -0.9654
58389SOL    HW285098   0.544   6.895   8.834  0.4794  1.8239  0.9385
58390SOL     OW85099   2.766  10.505   7.613 -0.0691  0.1101 -0.1008
58390SOL    HW185100   2.801  10.573   7.671 -0.3792  0.1483  0.0440
58390SOL    HW285101   2.673  10.498   7.638 -0.1875  0.0756 -0.5407
58391SOL     OW85102   5.846  10.181   1.804  0.3336  0.6659  0.5601
58391SOL    HW185103   5.847  10.124   1.727 -0.3215  1.1987  0.1448
58391SOL    HW285104   5.902  10.137   1.867 -0.6835 -0.7836  0.4914
58392SOL     OW85105   6.541  12.777   3.232  0.6489  0.3000 -0.0132
58392SOL    HW185106   6.517  12.755   3.141 -1.2171 -0.6270  0.6467
58392SOL    HW285107   6.592  12.857   3.224 -0.0297  0.6040 -1.8524
58393SOL     OW85108   5.705   7.374   8.812 -0.3960  0.7360  0.1129
58393SOL    HW185109   5.704   7.336   8.900  0.2731  0.1776 -0.1095
58393SOL    HW285110   5.797   7.370   8.786 -0.7405 -0.1924 -1.0722
58394SOL     OW85111   0.426   8.955   8.568  0.5375 -0.4286 -0.6769
58394SOL    HW185112   0.490   8.988   8.505  0.1779 -0.2727 -0.9571
58394SOL    HW285113   0.412   8.863   8.542 -1.9743  0.4434 -2.8012
58395SOL     OW85114  13.238   2.508   7.667 -0.0213 -0.1854  0.2174
58395SOL    HW185115  13.331   2.531   7.657 -0.4232  0.8538 -1.8756
58395SOL    HW285116  13.198   2.587   7.704  0.1239 -1.2145  2.7766
58396SOL     OW85117   1.740  11.145   9.357 -0.4515 -0.2533 -0.0293
58396SOL    HW185118   1.690  11.137   9.438  0.9577 -0.6256  0.8328
58396SOL    HW285119   1.728  11.061   9.312  0.3779 -0.8072  0.7638
58397SOL     OW85120   5.677   8.271   7.680  0.2834  0.6665 -0.3234
58397SOL    HW185121   5.641   8.348   7.724 -0.8323 -0.6749  1.2383
58397SOL    HW285122   5.658   8.286   7.587 -3.0767  0.7695  0.2449
58398SOL     OW85123   1.427   1.768   6.871  0.1675  0.5239 -0.5867
58398SOL    HW185124   1.337   1.748   6.846  0.0586 -0.7017  0.7137
58398SOL    HW285125   1.445   1.852   6.827 -0.9134 -0.1504 -2.4612
58399SOL     OW85126   2.801   6.885   8.681  0.1158 -0.6456 -0.4639
58399SOL    HW185127   2.769   6.972   8.654 -1.8508 -1.4151 -0.7855
58399SOL    HW285128   2.827   6.896   8.772  0.8877  0.5208 -0.8020
58400SOL     OW85129  12.555   8.702   5.370 -0.6773 -0.0566  0.2145
58400SOL    HW185130  12.503   8.775   5.336 -2.1521 -1.3748 -0.4854
58400SOL    HW285131  12.547   8.634   5.304  1.6127 -0.4998  0.3054
58401SOL     OW85132   9.662   1.317   1.083  0.0823  0.4200  0.2241
58401SOL    HW185133   9.588   1.355   1.036 -0.7482 -1.8112 -0.3912
58401SOL    HW285134   9.736   1.374   1.060 -0.9556  1.3090 -1.0784
58402SOL     OW85135   1.612   7.718   0.715 -0.4605 -0.1274  0.3980
58402SOL    HW185136   1.612   7.671   0.799  0.5193  0.6886  0.8758
58402SOL    HW285137   1.702   7.748   0.705 -0.5605 -0.2569 -0.9834
58403SOL     OW85138   2.135   8.654  10.885 -0.4926  0.1055 -0.3830
58403SOL    HW185139   2.174   8.716  10.823  0.7422 -0.7293 -0.4872
58403SOL    HW285140   2.118   8.705  10.963  2.2293  0.2769  0.2097
58404SOL     OW85141   9.705   0.490  11.173 -0.1598  0.2144 -0.4681
58404SOL    HW185142   9.751   0.481  11.256 -1.0528 -1.8002 -0.1145
58404SOL    HW285143   9.775   0.491  11.107  0.5328  1.3500  0.2420
58405SOL     OW85144   3.430   8.749   1.603  0.1739  0.2745  0.4243
58405SOL    HW185145   3.359   8.780   1.659 -1.2292  0.7385 -1.5380
58405SOL    HW285146   3.393   8.675   1.556  0.7765  0.8647 -1.0310
58406SOL     OW85147   8.341   2.766  11.796 -0.5423  0.7259  0.3991
58406SOL    HW185148   8.402   2.827  11.755 -1.3313  2.7559  2.0386
58406SOL    HW285149   8.284   2.737  11.725  0.4522  1.1189 -0.5982
58407SOL     OW85150   7.061   5.644  12.483 -0.8167 -0.2172 -0.2183
58407SOL    HW185151   7.138   5.679  12.529 -0.8445  1.3377 -1.2521
58407SOL    HW285152   6.987   5.674  12.535 -0.7482 -1.9079  0.9030
58408SOL     OW85153   8.959  11.951   0.708 -0.5361 -0.4042 -0.6486
58408SOL    HW185154   8.909  12.028   0.680 -0.5330 -0.5660 -1.1120
58408SOL    HW285155   8.896  11.879   0.705 -0.6787 -0.3286  0.3111
58409SOL     OW85156   3.906   6.086   5.458  0.0267  0.3638  0.2785
58409SOL    HW185157   3.873   6.112   5.544  1.5809  0.4188  0.8953
58409SOL    HW285158   3.972   6.019   5.476 -1.3778 -1.4697 -1.0567
58410SOL     OW85159   7.451   7.751   5.569 -0.4761  0.0296  0.5141
58410SOL    HW185160   7.379   7.762   5.507  1.7972  0.7424 -2.1453
58410SOL    HW285161   7.444   7.826   5.628  0.1921  2.1754 -2.0039
58411SOL     OW85162  11.592   8.894   8.127  0.0393 -0.2440  0.1078
58411SOL    HW185163  11.625   8.903   8.038  0.0958 -0.9008  0.0574
58411SOL    HW285164  11.513   8.948   8.130 -0.8911 -1.4733 -0.8304
58412SOL     OW85165   0.548   7.827  11.525 -0.3303 -0.3798 -0.2795
58412SOL    HW185166   0.598   7.756  11.567 -0.0822 -0.2482 -0.3541
58412SOL    HW285167   0.610   7.899  11.518 -0.2073 -0.5795 -1.3820
58413SOL     OW85168   8.498   1.852  11.727 -0.0091 -0.0464 -0.2071
58413SOL    HW185169   8.420   1.839  11.782  1.7867 -0.2601  2.5195
58413SOL    HW285170   8.556   1.905  11.782  2.4159 -1.2584 -1.4742
58414SOL     OW85171  12.524   8.410  12.618  0.3044  0.4836  0.5745
58414SOL    HW185172  12.580   8.380  12.547 -0.5183  0.1747  0.0353
58414SOL    HW285173  12.462   8.339  12.632 -0.2994  1.0329  0.7755
58415SOL     OW85174  10.395   4.315   0.203 -0.7300 -0.6601 -0.0031
58415SOL    HW185175  10.385   4.408   0.179  0.9062 -0.7556 -1.2192
58415SOL    HW285176  10.350   4.268   0.133 -2.0681 -0.8206  0.9174
58416SOL     OW85177  10.086   2.886   5.673 -0.1268 -0.6421  0.6969
58416SOL    HW185178  10.177   2.876   5.699  0.0516 -0.1904  0.2628
58416SOL    HW285179  10.083   2.969   5.625 -0.4381 -1.4245 -0.7101
58417SOL     OW85180   0.557  11.426   2.044  0.5473 -0.0563  0.7233
58417SOL    HW185181   0.553  11.381   2.128  0.1524 -0.4276  0.5136
58417SOL    HW285182   0.613  11.502   2.059 -0.5919  0.6387  1.6812
58418SOL     OW85183   5.203  10.984  13.171 -0.0496  0.5780  0.0914
58418SOL    HW185184   5.195  11.062  13.116  1.6082 -0.1233 -1.2405
58418SOL    HW285185   5.220  10.913  13.109  1.2914 -0.3489  1.4599
58419SOL     OW85186   1.987   2.697   3.388  0.0257 -0.1060 -0.3845
58419SOL    HW185187   2.041   2.751   3.331 -1.3070 -0.2851 -1.9168
58419SOL    HW285188   1.932   2.647   3.328 -0.1146 -1.7596  1.0380
58420SOL     OW85189   8.948   4.339   1.156 -0.3254 -0.1255  0.1114
58420SOL    HW185190   8.891   4.302   1.089 -0.5615 -2.2760  1.4123
58420SOL    HW285191   8.969   4.265   1.213  0.3754  1.4814  2.0491
58421SOL     OW85192   6.006  13.146  11.443  0.2216 -0.9796  0.3373
58421SOL    HW185193   6.050  13.145  11.528  1.6344  1.2188 -0.2689
58421SOL    HW285194   6.077  13.159  11.380 -1.1622  2.8866 -0.7042
58422SOL     OW85195   6.750   7.414   4.316  0.0077  0.2758 -0.2368
58422SOL    HW185196   6.753   7.318   4.312  0.2307  0.1104  2.3108
58422SOL    HW285197   6.842   7.441   4.313  0.0906  0.2303  1.1946
58423SOL     OW85198   7.339   9.468   0.978  0.0001 -0.4323  0.7329
58423SOL    HW185199   7.273   9.501   0.918  0.7888  0.0712  0.1172
58423SOL    HW285200   7.298   9.473   1.064 -1.2569 -1.4533  0.2223
58424SOL     OW85201   8.575  10.037   4.411 -0.3289  0.1152  0.1183
58424SOL    HW185202   8.482  10.020   4.393  0.1331 -1.2700 -1.1265
58424SOL    HW285203   8.576  10.070   4.501 -1.8628 -1.5947  0.8245
58425SOL     OW85204  13.019   7.237   3.064  0.4018  0.5911 -0.1249
58425SOL    HW185205  12.973   7.262   3.144 -1.2883 -0.1858 -0.7882
58425SOL    HW285206  13.057   7.318   3.031  0.7885  0.9864  1.2447
58426SOL     OW85207   2.316   2.712   9.146 -0.3306  0.0043 -0.2314
58426SOL    HW185208   2.352   2.633   9.107 -0.7493 -0.1212 -0.3707
58426SOL    HW285209   2.231   2.685   9.179 -0.8741  0.6082 -1.0921
58427SOL     OW85210   0.346   3.477   1.809  0.8872  0.3652 -0.5303
58427SOL    HW185211   0.272   3.491   1.749  0.7026  1.1490 -0.1316
58427SOL    HW285212   0.339   3.548   1.873  1.0533 -0.4890  0.4582
58428SOL     OW85213  10.095  12.871   6.447 -0.0753  0.7364 -0.3683
58428SOL    HW185214  10.087  12.854   6.353  2.3030 -0.2836 -0.4532
58428SOL    HW285215  10.111  12.965   6.452  0.4058  0.7058 -1.0597
58429SOL     OW85216  12.209   7.512   1.713  0.1100  0.1065  0.0887
58429SOL    HW185217  12.183   7.571   1.643  0.5127  1.5555  1.1238
58429SOL    HW285218  12.268   7.449   1.671 -1.3073 -0.3554 -1.2838
58430SOL     OW85219   4.613  13.271   2.597 -0.2926  0.1209 -0.6662
58430SOL    HW185220   4.532  13.269   2.648  0.4542 -0.9918  0.5668
58430SOL    HW285221   4.585  13.269   2.506 -1.6555 -1.5795 -0.2539
58431SOL     OW85222  10.563   3.201   5.065 -0.4468  0.0550 -0.6889
58431SOL    HW185223  10.652   3.230   5.085 -0.3328  0.1966 -1.3959
58431SOL    HW285224  10.515   3.214   5.147  0.3622 -0.7412 -0.0674
58432SOL     OW85225   3.064   9.157   3.729  0.4085 -0.4906  0.6902
58432SOL    HW185226   3.120   9.222   3.687  0.0263  1.8730  3.4706
58432SOL    HW285227   3.011   9.120   3.659  2.8259 -0.1193 -1.4600
58433SOL     OW85228   2.698   1.068   1.953 -0.1490  0.1106 -0.2106
58433SOL    HW185229   2.609   1.036   1.944 -0.4644  0.2263  1.8733
58433SOL    HW285230   2.721   1.102   1.867 -2.1335  0.1495 -0.7651
58434SOL     OW85231   3.526   1.427   6.445 -0.5410 -0.5525  0.8679
58434SOL    HW185232   3.566   1.499   6.396  0.4636 -2.0838 -0.6713
58434SOL    HW285233   3.440   1.414   6.404 -0.6524 -0.3762  1.0376
58435SOL     OW85234  10.384   4.611   3.195  0.3183 -0.0607 -0.5733
58435SOL    HW185235  10.329   4.542   3.230 -0.0944 -0.0478 -1.1815
58435SOL    HW285236  10.387   4.677   3.264 -0.0080 -0.2872 -0.3403
58436SOL     OW85237   4.127   1.560  11.867  0.7139  0.3101 -0.5629
58436SOL    HW185238   4.051   1.534  11.920  1.1209  0.8108  0.2997
58436SOL    HW285239   4.146   1.483  11.814 -1.3898  0.6971 -2.0327
58437SOL     OW85240   0.159  10.419   4.577  0.3847  0.5997 -0.5773
58437SOL    HW185241   0.144  10.497   4.523  1.5199 -0.8187 -3.1456
58437SOL    HW285242   0.072  10.396   4.609  0.0293  2.8739  0.2506
58438SOL     OW85243  10.435  11.391   9.808 -0.2731 -0.3230 -0.3306
58438SOL    HW185244  10.387  11.474   9.812  0.2625  0.0702 -1.7750
58438SOL    HW285245  10.449  11.375   9.715  1.6233 -0.8873  0.0036
58439SOL     OW85246   2.400  12.019  12.118  0.0323 -0.2712 -0.1233
58439SOL    HW185247   2.343  12.095  12.106 -2.1381 -1.8608 -0.4233
58439SOL    HW285248   2.425  12.022  12.210 -1.0469  0.1267  0.1687
58440SOL     OW85249   6.323  10.758   1.432 -0.3514 -0.1182  0.2257
58440SOL    HW185250   6.397  10.819   1.443 -2.7842  3.2787 -0.4646
58440SOL    HW285251   6.255  10.794   1.489 -1.8121 -2.5913  0.1489
58441SOL     OW85252   0.621   8.956   0.984 -0.7489  0.1617 -0.6437
58441SOL    HW185253   0.705   8.977   0.944 -0.4534 -0.8541 -0.5778
58441SOL    HW285254   0.604   8.865   0.960 -1.0174 -0.1787  0.7322
58442SOL     OW85255  11.439   3.501   0.402 -0.2572 -0.1602  0.0897
58442SOL    HW185256  11.489   3.551   0.337 -0.2647 -0.5454 -0.2166
58442SOL    HW285257  11.357   3.478   0.357 -0.0654 -0.8272  0.0751
58443SOL     OW85258  10.501  12.201   7.923 -0.0969  0.6580 -0.1735
58443SOL    HW185259  10.568  12.266   7.903 -0.8835  1.4929 -0.1382
58443SOL    HW285260  10.507  12.189   8.018  0.8937 -0.2848 -0.3286
58444SOL     OW85261   1.707   8.521   7.443 -0.7016 -0.0656  0.4599
58444SOL    HW185262   1.718   8.467   7.365  0.0536  0.1946  0.3739
58444SOL    HW285263   1.789   8.569   7.450  0.4048 -2.1116  2.9959
58445SOL     OW85264   1.511   7.600  13.142 -1.1566  0.3865 -0.0857
58445SOL    HW185265   1.572   7.637  13.205 -0.1743  0.5819 -1.1259
58445SOL    HW285266   1.428   7.644  13.159 -0.3749  2.0161 -0.3254
58446SOL     OW85267   7.537   2.699  11.600 -0.4974 -0.0238 -0.3558
58446SOL    HW185268   7.603   2.656  11.654 -0.3924  1.1022  0.4221
58446SOL    HW285269   7.488   2.626  11.561  0.3838 -0.8601  0.0493
58447SOL     OW85270   9.493   7.009   4.015  0.4610  0.6401 -0.4489
58447SOL    HW185271   9.583   7.039   4.002 -0.1316  1.5129 -3.0438
58447SOL    HW285272   9.440   7.070   3.965 -1.6029  0.0594  0.9302
58448SOL     OW85273   3.418   0.493   1.134 -0.0984  0.0281 -0.7893
58448SOL    HW185274   3.441   0.463   1.046 -1.5584 -1.4416 -0.7180
58448SOL    HW285275   3.380   0.417   1.177 -0.1713  0.9372  0.8455
58449SOL     OW85276   5.476   1.188   2.211  0.9527  0.3818 -0.4005
58449SOL    HW185277   5.469   1.203   2.117 -0.7041 -0.3929 -0.4335
58449SOL    HW285278   5.452   1.271   2.251  0.4507  0.3627 -0.6576
58450SOL     OW85279   2.308  12.200  10.570  0.0203  0.7859 -0.2825
58450SOL    HW185280   2.269  12.113  10.559  0.6209  0.6680 -1.7485
58450SOL    HW285281   2.381  12.201  10.508  0.5139  2.0590  0.2893
58451SOL     OW85282   0.318   7.129   8.348  0.0079 -0.1388 -0.0764
58451SOL    HW185283   0.339   7.061   8.284 -1.7541 -0.1803 -0.6761
58451SOL    HW285284   0.290   7.204   8.296 -0.7026  0.0988  0.6164
58452SOL     OW85285   5.773   4.745   2.717 -0.3273 -0.3283 -0.2695
58452SOL    HW185286   5.863   4.713   2.712  0.5048  1.7241  0.6583
58452SOL    HW285287   5.720   4.666   2.728  1.3182 -1.5884 -0.9512
58453SOL     OW85288   2.285   2.640   8.817  0.5233  0.0249 -0.0534
58453SOL    HW185289   2.256   2.565   8.766 -0.7441  0.1715  0.4118
58453SOL    HW285290   2.345   2.687   8.759 -2.2000  1.1779 -2.1712
58454SOL     OW85291   0.160   0.402  11.275 -0.2058 -0.0189 -0.5068
58454SOL    HW185292   0.117   0.398  11.190 -0.8702  1.4302 -0.2626
58454SOL    HW285293   0.102   0.351  11.333  1.5318 -3.2434 -1.3496
58455SOL     OW85294   5.371   4.473  10.423 -0.2216 -0.7005  0.1716
58455SOL    HW185295   5.458   4.432  10.414 -0.1802 -0.5688 -0.0361
58455SOL    HW285296   5.315   4.402  10.454 -0.0107 -0.7533  0.4367
58456SOL     OW85297   0.701   7.007   8.086  0.1117  0.8488  0.4156
58456SOL    HW185298   0.771   6.941   8.080  0.3462  0.9739  1.5288
58456SOL    HW285299   0.729   7.077   8.027  1.4109  1.3054  1.5208
58457SOL     OW85300   6.588   7.038  11.432 -0.4659 -0.0125 -0.5117
58457SOL    HW185301   6.550   7.123  11.409  0.0944  0.6952  1.0105
58457SOL    HW285302   6.664   7.060  11.486  1.5553 -1.4073 -2.5700
58458SOL     OW85303   2.181   4.487   8.296  0.5128 -0.0274 -0.0330
58458SOL    HW185304   2.106   4.448   8.343 -0.0169 -0.0561 -0.8785
58458SOL    HW285305   2.169   4.581   8.307  0.2161 -0.0237 -0.3588
58459SOL     OW85306   6.184  10.054   9.542 -0.2767  0.0701  0.8050
58459SOL    HW185307   6.161  10.104   9.464  0.6836  0.5369  0.8018
58459SOL    HW285308   6.184  10.119   9.612 -1.5291 -0.4168  1.2887
58460SOL     OW85309   7.821   8.822   1.412 -0.2104  0.2661  0.0596
58460SOL    HW185310   7.807   8.777   1.496 -1.7054 -0.4200 -0.5350
58460SOL    HW285311   7.916   8.838   1.410  0.2949 -2.2350  0.6288
58461SOL     OW85312   8.660  12.105   3.882  0.4424  0.3871  0.4716
58461SOL    HW185313   8.617  12.031   3.925 -1.9119  0.2555 -1.8590
58461SOL    HW285314   8.680  12.166   3.952 -1.2632 -0.7165  1.9945
58462SOL     OW85315   1.879   4.131   8.912 -0.2192 -0.0213 -0.3241
58462SOL    HW185316   1.923   4.055   8.874  0.3090  0.9731 -1.7702
58462SOL    HW285317   1.889   4.120   9.007 -2.4194 -3.0947 -0.2987
58463SOL     OW85318  12.887   6.660   1.107  0.2346  0.1791 -0.1089
58463SOL    HW185319  12.805   6.638   1.150 -0.7786  2.5915 -0.6607
58463SOL    HW285320  12.883   6.614   1.023 -0.6950  0.4990 -0.2511
58464SOL     OW85321   7.795   2.823   4.750 -0.6487  0.2606 -0.6854
58464SOL    HW185322   7.843   2.768   4.812 -0.7227 -0.1391 -0.9757
58464SOL    HW285323   7.709   2.781   4.742 -0.4135 -0.0842 -1.5642
58465SOL     OW85324  10.697   2.315   0.039 -0.3442  0.1991 -0.2076
58465SOL    HW185325  10.626   2.256   0.015  0.0745 -0.0093 -0.9561
58465SOL    HW285326  10.666   2.402   0.011 -0.5970  0.2120  0.1073
58466SOL     OW85327  12.194   2.541  13.158 -0.8585 -0.2237 -0.3427
58466SOL    HW185328  12.184   2.578  13.246  0.6559  0.1752 -0.3240
58466SOL    HW285329  12.231   2.454  13.172 -1.9821 -0.7501 -0.5296
58467SOL     OW85330   6.055  12.923   3.119  0.6176  0.5447 -0.6133
58467SOL    HW185331   5.980  12.864   3.114 -0.3120  1.5658  0.3746
58467SOL    HW285332   6.069  12.934   3.213  1.0969  1.4670 -0.7872
58468SOL     OW85333  12.374   6.570   2.608 -0.1543 -0.1463  0.4184
58468SOL    HW185334  12.449   6.556   2.550 -0.6017 -0.8222 -0.0071
58468SOL    HW285335  12.354   6.663   2.599  0.5552  0.0136  0.4444
58469SOL     OW85336   9.380  12.651  11.562 -0.0799  0.2725  0.4774
58469SOL    HW185337   9.307  12.609  11.606 -0.6063  0.3969 -0.2565
58469SOL    HW285338   9.448  12.583  11.558 -1.0693 -0.6942 -1.0541
58470SOL     OW85339  12.264   8.985   6.421 -0.5687  0.3367  0.1031
58470SOL    HW185340  12.211   8.910   6.395 -0.0970 -0.4473  1.3265
58470SOL    HW285341  12.205   9.039   6.473 -0.1082 -0.7300  1.7964
58471SOL     OW85342   1.746   1.026   9.636  0.5394 -0.2619  0.4914
58471SOL    HW185343   1.826   1.079   9.635 -0.0691  0.6592 -0.0385
58471SOL    HW285344   1.697   1.054   9.560 -0.6291 -0.3146  1.2069
58472SOL     OW85345  11.275   0.808   8.892  0.1097 -0.0772  0.2365
58472SOL    HW185346  11.210   0.753   8.848 -1.6024  3.9432 -2.9019
58472SOL    HW285347  11.359   0.779   8.856 -0.6744 -1.0195 -0.9130
58473SOL     OW85348   1.618  12.510   3.320  0.4884 -0.2155  0.1011
58473SOL    HW185349   1.702  12.555   3.329 -0.5587  2.1132 -0.8397
58473SOL    HW285350   1.581  12.512   3.409  1.1043 -0.5968  0.3726
58474SOL     OW85351   4.459   0.494  11.144  0.2438  0.4442 -0.0897
58474SOL    HW185352   4.442   0.483  11.237  0.7836  1.8598  0.2022
58474SOL    HW285353   4.534   0.554  11.140 -0.5307  1.3847 -1.4412
58475SOL     OW85354   5.193   0.998  11.970 -0.7017 -0.0209  0.2748
58475SOL    HW185355   5.200   1.093  11.966 -0.8796 -0.0328 -0.9374
58475SOL    HW285356   5.255   0.967  11.903  1.3832 -0.8898  2.4466
58476SOL     OW85357  11.791   2.367   1.277  0.0012 -0.1193  0.4588
58476SOL    HW185358  11.723   2.346   1.213  0.3412  0.3018 -0.0439
58476SOL    HW285359  11.853   2.294   1.271 -0.2026 -0.3111  0.6451
58477SOL     OW85360   6.101   8.146   4.029 -0.1318 -0.4225  0.2920
58477SOL    HW185361   6.015   8.147   4.070 -0.1336 -0.2320  0.2867
58477SOL    HW285362   6.159   8.109   4.095 -0.5634 -2.4561 -0.4140
58478SOL     OW85363   7.745  10.348   6.571 -0.0631  0.1117  0.6226
58478SOL    HW185364   7.723  10.301   6.651 -0.7720  0.9337  0.9232
58478SOL    HW285365   7.732  10.284   6.501  0.1508 -0.4839  1.1245
58479SOL     OW85366   0.694   0.661  11.332  0.4258  0.2068  0.6591
58479SOL    HW185367   0.708   0.727  11.264  2.0603 -0.0076  0.7648
58479SOL    HW285368   0.599   0.655  11.339  0.2347  1.3793 -0.4878
58480SOL     OW85369  13.006   0.551  10.181 -0.0604  0.0106 -0.1165
58480SOL    HW185370  12.977   0.639  10.206 -1.0707  0.1417 -1.6435
58480SOL    HW285371  12.975   0.540  10.091 -0.1919 -2.0337  0.1409
58481SOL     OW85372  12.335  11.627   9.105 -0.0044  0.0317  0.1219
58481SOL    HW185373  12.346  11.611   9.199  0.3773 -1.1601 -0.1073
58481SOL    HW285374  12.396  11.565   9.063  0.3176  1.0062 -0.8898
58482SOL     OW85375   2.265  13.308  13.222  0.1862  0.3605  0.0642
58482SOL    HW185376   2.347  13.275  13.260  0.1337  1.0925  0.8658
58482SOL    HW285377   2.264  13.274  13.133  0.2625 -1.5214  0.7522
58483SOL     OW85378   8.645   0.444   5.722 -0.2205 -0.6203  0.4803
58483SOL    HW185379   8.560   0.411   5.752 -0.6731 -0.1310 -0.2238
58483SOL    HW285380   8.701   0.367   5.719 -1.4308 -1.5225 -1.7530
58484SOL     OW85381   1.259   1.406   8.121 -0.3384 -0.1231  0.0918
58484SOL    HW185382   1.247   1.439   8.033  1.6287  1.4908  0.3475
58484SOL    HW285383   1.199   1.457   8.175  0.7281  1.1979  0.0857
58485SOL     OW85384  12.566   3.013   8.667  0.2961 -0.9071  0.7417
58485SOL    HW185385  12.659   3.024   8.684  0.4947  0.5838 -1.0747
58485SOL    HW285386  12.535   3.101   8.645 -1.2811 -1.5790  0.1408
58486SOL     OW85387  10.043   9.824   8.867  0.2175  0.7067  0.0981
58486SOL    HW185388   9.953   9.855   8.857 -0.1113  0.0166  0.7452
58486SOL    HW285389  10.077   9.873   8.943 -0.4520 -0.7698  1.4057
58487SOL     OW85390   3.621   0.140   7.076  0.5930 -0.3828 -0.3718
58487SOL    HW185391   3.565   0.188   7.016 -0.5018 -0.2192  0.7280
58487SOL    HW285392   3.697   0.197   7.090  1.1361 -0.6732 -1.9995
58488SOL     OW85393   6.672  10.405   5.804  0.4188 -0.3332 -0.7915
58488SOL    HW185394   6.748  10.371   5.756  1.5880 -0.5286  1.0985
58488SOL    HW285395   6.625  10.327   5.832  0.3650 -0.2507 -0.6549
58489SOL     OW85396   2.139   6.544   2.711  0.2195 -0.4877 -0.2662
58489SOL    HW185397   2.078   6.470   2.706  0.3759 -0.6638  0.3296
58489SOL    HW285398   2.216   6.508   2.754 -0.0593  0.2455  0.8989
58490SOL     OW85399   3.076   8.235   4.685  0.0361 -0.0429  0.1000
58490SOL    HW185400   3.117   8.237   4.772  0.3332  1.2855 -0.0422
58490SOL    HW285401   2.996   8.286   4.696  0.0028  0.0057 -0.3729
58491SOL     OW85402   1.497  12.286   5.239  0.2427  0.1989 -0.4652
58491SOL    HW185403   1.461  12.374   5.247  0.5411  0.3247 -0.4678
58491SOL    HW285404   1.585  12.299   5.204  0.4787 -0.0627  0.0078
58492SOL     OW85405   7.285   9.299   0.270 -0.0670 -0.3375 -0.1462
58492SOL    HW185406   7.332   9.231   0.222 -0.8515 -0.5165 -0.6784
58492SOL    HW285407   7.300   9.278   0.362 -0.1280 -1.1072 -0.3067
58493SOL     OW85408   9.154   0.824  12.704 -0.1118 -0.0242  0.2544
58493SOL    HW185409   9.213   0.845  12.631  0.4970 -0.1493  0.7037
58493SOL    HW285410   9.145   0.728  12.700 -0.1173 -0.0259  0.3167
58494SOL     OW85411   8.765   2.066   0.506 -0.1717 -0.3834 -0.0342
58494SOL    HW185412   8.731   2.074   0.417  1.4089 -0.1859 -0.6603
58494SOL    HW285413   8.840   2.127   0.508 -0.5171  0.0338  1.6057
58495SOL     OW85414  12.887   6.305   4.371 -0.6351 -0.2207  0.3443
58495SOL    HW185415  12.820   6.298   4.304 -1.5040 -1.8955  1.3309
58495SOL    HW285416  12.952   6.239   4.347 -0.8260 -0.6553  1.0016
58496SOL     OW85417   9.438  10.484   7.748  0.4466  0.9077  0.2742
58496SOL    HW185418   9.394  10.509   7.667  0.4214  0.4668  0.1504
58496SOL    HW285419   9.378  10.423   7.790  0.7954  0.5630  0.2704
58497SOL     OW85420  10.866  11.843   1.520  0.3113 -0.0839  0.1154
58497SOL    HW185421  10.838  11.856   1.610 -2.7303  1.9782 -0.9649
58497SOL    HW285422  10.809  11.774   1.487 -0.5602  1.0837 -0.9244
58498SOL     OW85423   2.330  11.993   7.769  0.1383  0.5247 -0.4457
58498SOL    HW185424   2.295  12.078   7.742  0.1038  0.6944  0.1221
58498SOL    HW285425   2.270  11.962   7.837 -0.0071 -0.0864 -0.8423
58499SOL     OW85426   8.021   4.015  12.662 -0.0413  0.6395 -0.4308
58499SOL    HW185427   7.972   4.059  12.731 -0.7841 -0.2478 -0.3808
58499SOL    HW285428   7.955   3.984  12.601  0.3641 -1.1541 -0.0270
58500SOL     OW85429   6.332   0.235  10.505  0.4642  0.5114 -0.1892
58500SOL    HW185430   6.315   0.313  10.557  1.8585 -0.3305  1.6682
58500SOL    HW285431   6.420   0.248  10.469  0.1341  0.3938 -1.0788
58501SOL     OW85432   6.407   1.535   8.466 -0.0567  0.0679 -0.6168
58501SOL    HW185433   6.447   1.548   8.552  0.1306 -3.3423 -0.0331
58501SOL    HW285434   6.313   1.548   8.481  0.1146  0.9430 -0.2620
58502SOL     OW85435  11.621   8.125  12.698  0.3602 -0.5711 -0.0620
58502SOL    HW185436  11.595   8.077  12.777  0.1104 -1.2412 -0.5481
58502SOL    HW285437  11.632   8.215  12.728 -1.8657 -0.3632  0.3302
58503SOL     OW85438   4.367   3.942   4.785  0.2890  0.4292  0.3030
58503SOL    HW185439   4.313   4.020   4.797  1.9352  1.2176  3.6442
58503SOL    HW285440   4.304   3.869   4.785 -1.0384  1.5448  0.2480
58504SOL     OW85441   6.264   8.752   2.027  0.4164  0.2417 -0.3773
58504SOL    HW185442   6.246   8.839   1.992 -2.9672 -0.1053  0.1239
58504SOL    HW285443   6.266   8.764   2.122 -0.4725 -0.2551 -0.2853
58505SOL     OW85444   6.068   8.820   7.436 -0.7788  0.7212 -0.0015
58505SOL    HW185445   6.161   8.842   7.435 -1.2139  2.9945  1.5659
58505SOL    HW285446   6.034   8.855   7.353 -0.3330  0.2502 -0.3898
58506SOL     OW85447  10.383   8.538   5.953 -0.2412 -0.2782  0.1408
58506SOL    HW185448  10.439   8.556   5.877  0.6132  0.7655  0.9753
58506SOL    HW285449  10.440   8.491   6.014 -0.6814 -0.4157  0.4466
58507SOL     OW85450   2.333  10.882   8.854  0.3989  0.9089 -0.1286
58507SOL    HW185451   2.403  10.824   8.884 -0.5630  0.3730  1.1803
58507SOL    HW285452   2.369  10.970   8.862  0.7713  0.6743  0.9893
58508SOL     OW85453   5.788   9.019   5.260 -0.2463 -0.6778 -0.9821
58508SOL    HW185454   5.873   9.060   5.246 -0.3500  0.1560  0.5099
58508SOL    HW285455   5.739   9.085   5.309 -0.6163 -2.3851  1.0722
58509SOL     OW85456  11.404   8.913  11.059 -0.0687 -0.0364 -0.0952
58509SOL    HW185457  11.331   8.913  10.997 -0.8403  0.4764  0.7828
58509SOL    HW285458  11.439   8.824  11.056 -0.6060 -0.2304 -0.6753
58510SOL     OW85459   1.481  11.566   4.792 -0.5612 -0.3259 -0.0986
58510SOL    HW185460   1.438  11.646   4.823 -0.0984  0.8589 -2.3349
58510SOL    HW285461   1.540  11.542   4.864 -1.7972  0.4532  1.2405
58511SOL     OW85462   6.403   7.578  10.308 -0.1955  0.4560  0.0850
58511SOL    HW185463   6.493   7.546  10.318 -0.1292 -0.9357 -3.6810
58511SOL    HW285464   6.348   7.501  10.321 -0.5060  0.3090 -1.8724
58512SOL     OW85465   8.978   0.316   4.337  0.0821 -0.2466  0.5795
58512SOL    HW185466   9.064   0.346   4.307 -0.1716 -0.2775 -0.2201
58512SOL    HW285467   8.933   0.397   4.364  0.1506 -0.1571  0.4279
58513SOL     OW85468   1.917  10.463   1.446 -0.3748  0.5014 -0.5024
58513SOL    HW185469   1.827  10.483   1.420 -0.7762  1.5137  1.4993
58513SOL    HW285470   1.970  10.494   1.372 -1.6863 -1.9418 -2.6503
58514SOL     OW85471  12.852  10.073   2.505  0.1522 -0.4543  0.1466
58514SOL    HW185472  12.821   9.983   2.505  0.3884 -0.5528 -1.2282
58514SOL    HW285473  12.923  10.075   2.570  0.4746 -1.3735 -0.1739
58515SOL     OW85474  11.715   6.100   7.083  0.3983 -0.0632  0.3009
58515SOL    HW185475  11.637   6.049   7.062 -0.1436  0.8982 -0.0953
58515SOL    HW285476  11.774   6.084   7.010  0.8847 -1.3692  0.9521
58516SOL     OW85477   9.211   7.867   9.889 -0.1459 -0.0186 -0.2776
58516SOL    HW185478   9.236   7.955   9.860  1.3395 -0.7202 -1.2864
58516SOL    HW285479   9.250   7.858   9.976  1.0120 -0.1961 -0.7988
58517SOL     OW85480  11.213   3.473   2.903 -0.0571  0.8648 -0.0566
58517SOL    HW185481  11.118   3.475   2.918  0.0707  2.2571  0.6915
58517SOL    HW285482  11.252   3.475   2.990  0.6848 -0.0274 -0.3455
58518SOL     OW85483   3.727  13.184   8.456 -0.0300 -0.1023 -0.4304
58518SOL    HW185484   3.797  13.123   8.476  1.3761  0.2821 -3.6386
58518SOL    HW285485   3.758  13.269   8.489 -0.1640 -0.3547  0.3746
58519SOL     OW85486  12.866   0.360   0.685  0.1648 -0.4580  0.6906
58519SOL    HW185487  12.925   0.289   0.660 -0.4855 -1.1849  1.1604
58519SOL    HW285488  12.782   0.338   0.644  0.5650  1.3970 -1.3290
58520SOL     OW85489  11.358   0.365   7.380  0.2299  0.2950  0.0914
58520SOL    HW185490  11.398   0.426   7.317  1.8854  0.8778  1.6050
58520SOL    HW285491  11.432   0.313   7.411 -0.7442 -0.7071  0.7553
58521SOL     OW85492   7.575  11.462   3.816  0.1853  0.2137  0.1471
58521SOL    HW185493   7.502  11.411   3.851  0.4962 -0.4430 -0.1443
58521SOL    HW285494   7.564  11.549   3.855 -0.5759  0.0405  0.3431
58522SOL     OW85495   6.553  10.389   5.534  0.3622  0.1723 -0.4993
58522SOL    HW185496   6.516  10.477   5.526  0.0768  0.1668  0.5788
58522SOL    HW285497   6.567  10.378   5.628 -1.4116 -1.6388 -0.3933
58523SOL     OW85498   7.732   8.994   4.262 -0.2570 -0.3781 -0.5826
58523SOL    HW185499   7.684   9.075   4.278  0.9449  0.0632  1.1459
58523SOL    HW285500   7.790   8.985   4.339 -1.7280 -3.8994  0.3141
58524SOL     OW85501   1.208   6.397   4.544 -0.1521 -0.0318 -0.4866
58524SOL    HW185502   1.221   6.435   4.631 -1.1563 -0.1771 -0.2654
58524SOL    HW285503   1.182   6.471   4.489  1.1577  0.1923 -0.8471
58525SOL     OW85504  10.178   9.771   0.631 -0.6047  0.7532 -0.0467
58525SOL    HW185505  10.138   9.693   0.593 -3.1386  2.5819 -1.4510
58525SOL    HW285506  10.169   9.760   0.725 -0.7459 -0.7092 -0.2202
58526SOL     OW85507   3.644   1.501   0.166  0.2928 -0.1204  0.1894
58526SOL    HW185508   3.688   1.579   0.201  0.4799 -0.0959 -0.0982
58526SOL    HW285509   3.562   1.497   0.214  0.6493 -0.2207  0.8008
58527SOL     OW85510   1.540   7.470   6.107 -0.1709 -0.0257 -0.6045
58527SOL    HW185511   1.564   7.563   6.107 -2.5512  0.6721 -0.2474
58527SOL    HW285512   1.522   7.451   6.015  0.2767 -0.1298 -0.6725
58528SOL     OW85513  11.257   8.916   1.555  0.3478 -0.2284  0.4707
58528SOL    HW185514  11.342   8.914   1.599 -0.2392 -0.9099  1.6160
58528SOL    HW285515  11.199   8.958   1.619 -0.0392  0.8897 -0.5776
58529SOL     OW85516   4.043   8.610  10.376  0.4416 -0.0544 -0.6162
58529SOL    HW185517   4.034   8.695  10.419 -0.2401 -0.7199  0.6348
58529SOL    HW285518   3.996   8.549  10.434  1.5168 -1.3960 -1.1026
58530SOL     OW85519   7.500   2.478   2.606  0.1144  0.0869  0.1180
58530SOL    HW185520   7.590   2.506   2.590  0.0131  0.7051  0.5861
58530SOL    HW285521   7.508   2.411   2.675  0.3385 -0.9535 -0.8768
58531SOL     OW85522  10.678  11.099   2.361  0.5438 -0.0890 -0.0584
58531SOL    HW185523  10.761  11.060   2.332  0.9584 -0.3494  1.3911
58531SOL    HW285524  10.686  11.103   2.457 -0.9797  0.2010  0.0768
58532SOL     OW85525   0.352  12.619   7.113  0.0180  0.3289  0.1314
58532SOL    HW185526   0.409  12.578   7.049 -0.5497 -0.0512 -0.1364
58532SOL    HW285527   0.308  12.689   7.064 -0.6463 -0.1612  0.0199
58533SOL     OW85528   5.132   7.781   5.619  0.2443 -0.3667 -0.1391
58533SOL    HW185529   5.207   7.837   5.597 -1.2652  2.0755  0.5970
58533SOL    HW285530   5.087   7.767   5.536 -0.1666  0.7942 -0.1322
58534SOL     OW85531   1.197  11.294  13.225 -0.0319  0.0336 -0.8867
58534SOL    HW185532   1.246  11.260  13.300  1.1994 -1.5982 -2.3384
58534SOL    HW285533   1.194  11.388  13.238  0.6024 -0.1664  0.9281
58535SOL     OW85534   3.430   5.397   7.329  0.1807 -0.3319  0.5922
58535SOL    HW185535   3.463   5.437   7.249  0.5005 -0.8134  0.4814
58535SOL    HW285536   3.418   5.471   7.389 -1.0399  0.1524 -0.2195
58536SOL     OW85537   9.579   8.674  12.424 -0.5683 -0.4046 -0.6548
58536SOL    HW185538   9.625   8.757  12.429 -0.3957 -0.5405  0.4190
58536SOL    HW285539   9.623   8.619  12.489 -0.5556 -1.3926 -1.4814
58537SOL     OW85540  12.769  12.279   3.379  0.2051 -0.6249  0.6366
58537SOL    HW185541  12.742  12.366   3.406 -0.6131 -0.3953 -0.7974
58537SOL    HW285542  12.859  12.291   3.346 -0.0332 -0.2383  0.1141
58538SOL     OW85543   7.561  10.299   4.093 -0.3079  0.0195 -0.0970
58538SOL    HW185544   7.636  10.340   4.137 -0.6122  2.8686 -1.9906
58538SOL    HW285545   7.596  10.270   4.008 -0.8895 -0.5946 -0.1327
58539SOL     OW85546   6.066   6.767   7.362 -0.0114  0.3985  0.0096
58539SOL    HW185547   6.100   6.754   7.274 -0.9115 -0.6331 -0.2062
58539SOL    HW285548   6.087   6.685   7.408 -0.3254  0.5804  0.4884
58540SOL     OW85549   1.242   1.185   5.136 -1.2353  0.2157 -0.1255
58540SOL    HW185550   1.153   1.209   5.165 -0.5151  3.4084 -0.1209
58540SOL    HW285551   1.292   1.266   5.145  1.1745 -0.9109 -2.1601
58541SOL     OW85552  12.591   3.731   1.494  0.2743 -0.1412  0.9180
58541SOL    HW185553  12.636   3.815   1.491 -0.7254  0.4090  1.0125
58541SOL    HW285554  12.499   3.752   1.480 -0.1627 -1.0855  2.1922
58542SOL     OW85555   5.799   5.175   3.782 -1.0529  0.0431  0.3196
58542SOL    HW185556   5.762   5.148   3.867  1.1468  0.3880  1.4443
58542SOL    HW285557   5.867   5.110   3.765  0.0824  1.3041 -0.0304
58543SOL     OW85558   8.727   8.718   8.556 -0.0801  0.4208 -1.0017
58543SOL    HW185559   8.766   8.781   8.496  0.8055  0.2724 -0.5987
58543SOL    HW285560   8.799   8.659   8.579  0.1235  1.4859  1.5490
58544SOL     OW85561   4.664  11.362  11.716  0.2894  0.2682 -0.4762
58544SOL    HW185562   4.575  11.353  11.682 -1.5589 -0.3987  3.7709
58544SOL    HW285563   4.713  11.290  11.676 -2.0758 -1.4666 -0.4893
58545SOL     OW85564  10.692   2.993  12.583  0.1528  0.3407  0.5627
58545SOL    HW185565  10.738   2.910  12.595  2.0377  1.0684 -1.2014
58545SOL    HW285566  10.599   2.969  12.590  0.6513 -1.7363  0.9722
58546SOL     OW85567   0.350  10.672   7.663  0.7482  0.1626  0.5873
58546SOL    HW185568   0.272  10.685   7.610  1.0210  0.0928  0.1637
58546SOL    HW285569   0.317  10.664   7.753  0.3543  1.0861  0.5358
58547SOL     OW85570   5.218   9.426   9.823  0.5359 -0.4868 -0.2016
58547SOL    HW185571   5.145   9.364   9.815 -1.5039  1.7191 -0.0948
58547SOL    HW285572   5.214   9.455   9.914  0.8000  0.4784 -0.4839
58548SOL     OW85573   6.134   7.613   2.670  0.1937 -0.0247  0.3982
58548SOL    HW185574   6.219   7.654   2.658 -0.0840  0.3296 -0.4857
58548SOL    HW285575   6.124   7.555   2.594 -0.4362  0.0947  0.3801
58549SOL     OW85576   7.518  10.308   2.781 -0.1530  0.0034 -0.1277
58549SOL    HW185577   7.603  10.268   2.800  0.4323  0.9143 -0.7295
58549SOL    HW285578   7.532  10.402   2.795 -1.6284  0.0002  1.7467
58550SOL     OW85579   7.938  10.775   1.820  0.1196 -0.1094  0.2703
58550SOL    HW185580   7.860  10.774   1.764  0.1270 -1.7851  0.2196
58550SOL    HW285581   7.906  10.747   1.906  0.5634 -0.2231  0.4012
58551SOL     OW85582  11.441   6.855   5.618  0.1774  0.3275 -0.1315
58551SOL    HW185583  11.437   6.792   5.689 -1.5338  1.5663  0.9370
58551SOL    HW285584  11.514   6.913   5.642  0.1360  0.2504  0.1774
58552SOL     OW85585   2.282   1.260  11.575  0.2349 -0.1578 -0.9062
58552SOL    HW185586   2.367   1.233  11.542  0.9575 -0.1010  0.8221
58552SOL    HW285587   2.267   1.205  11.652 -1.0350  0.2233 -0.8597
58553SOL     OW85588   5.298   8.070   2.999  0.1752 -0.2221 -0.5938
58553SOL    HW185589   5.325   7.978   3.000  2.1169  0.2947 -0.7812
58553SOL    HW285590   5.338   8.108   3.077 -2.3552  0.0789  0.6687
58554SOL     OW85591  11.828   9.013   5.421  0.7142  0.8203 -0.2261
58554SOL    HW185592  11.742   8.984   5.391  0.1967  0.0610  1.7726
58554SOL    HW285593  11.854   8.946   5.485  1.9863  1.9686  0.5046
58555SOL     OW85594  12.264   4.421   3.532 -0.4262 -0.2657 -0.0725
58555SOL    HW185595  12.231   4.361   3.465 -2.6781 -0.7440  1.3443
58555SOL    HW285596  12.212   4.401   3.610  2.0706  0.2689  1.8616
58556SOL     OW85597   9.939  12.743   1.943  0.1263 -0.4660  0.9630
58556SOL    HW185598   9.967  12.834   1.934  1.5362 -0.9148  0.3904
58556SOL    HW285599  10.021  12.693   1.938 -0.7707 -1.8762 -0.7852
58557SOL     OW85600   0.431   7.454   7.472 -0.1082 -0.0110  0.6589
58557SOL    HW185601   0.344   7.483   7.497 -0.6748 -2.1289  1.3833
58557SOL    HW285602   0.459   7.515   7.404 -1.5030  1.6149  1.4932
58558SOL     OW85603  12.007  10.777   5.803  0.6054 -0.0579 -0.1842
58558SOL    HW185604  12.098  10.780   5.774  0.0576  1.5624 -1.9168
58558SOL    HW285605  11.977  10.690   5.775  0.8806  0.4266 -2.1557
58559SOL     OW85606   0.208   8.388   6.445  0.1150 -0.6616 -0.2590
58559SOL    HW185607   0.122   8.393   6.487 -0.8395 -0.4564 -2.1475
58559SOL    HW285608   0.253   8.316   6.489 -1.7960 -2.1159 -0.5906
58560SOL     OW85609   1.171   7.397   2.681  0.3640 -0.6771 -0.2858
58560SOL    HW185610   1.210   7.469   2.632 -0.3759  0.1198  0.2740
58560SOL    HW285611   1.104   7.438   2.736 -3.6170 -2.2214 -3.4541
58561SOL     OW85612   3.195   1.881   8.499 -0.4273 -0.2008  0.2091
58561SOL    HW185613   3.208   1.819   8.428  0.3838 -0.7912  0.8484
58561SOL    HW285614   3.232   1.963   8.467 -1.5072 -0.0192 -0.6415
58562SOL     OW85615   0.391  13.294  10.939 -0.2048 -0.7124 -0.0962
58562SOL    HW185616   0.296  13.295  10.935 -0.3585 -0.9317  2.0314
58562SOL    HW285617   0.415  13.201  10.935 -0.1503 -0.7153  0.2579
58563SOL     OW85618  11.293   4.694   1.197  0.1375  0.1985  0.1624
58563SOL    HW185619  11.358   4.632   1.165  0.2853 -0.4007  1.5367
58563SOL    HW285620  11.253   4.730   1.118  1.2263 -0.3900 -0.6851
58564SOL     OW85621   0.511  12.779   5.213 -0.3559 -0.6067  0.1051
58564SOL    HW185622   0.581  12.816   5.267 -0.8234  0.1163  0.2265
58564SOL    HW285623   0.556  12.715   5.157  0.2471 -0.8341  0.8287
58565SOL     OW85624   9.870   3.027   2.672  0.6174 -0.2706 -0.1133
58565SOL    HW185625   9.954   3.012   2.714  0.0259 -1.2910  0.7808
58565SOL    HW285626   9.886   3.007   2.579  1.2612 -0.8996  0.1196
58566SOL     OW85627   9.665   0.593   9.693 -0.6415 -0.0427 -0.0470
58566SOL    HW185628   9.601   0.661   9.671 -2.1135 -0.3435  2.8362
58566SOL    HW285629   9.625   0.511   9.662 -1.4690 -0.1590  1.2364
58567SOL     OW85630   5.691   6.891   3.943 -0.4196 -0.1135 -0.2898
58567SOL    HW185631   5.697   6.976   3.899 -0.6039 -0.6364 -1.3744
58567SOL    HW285632   5.764   6.841   3.908 -0.0591 -0.2706  0.6692
58568SOL     OW85633  10.700  10.466   8.725 -0.7911  0.5459 -0.0745
58568SOL    HW185634  10.743  10.385   8.756 -0.9106 -0.2495 -1.8844
58568SOL    HW285635  10.755  10.536   8.760  1.7704 -0.4159 -1.8618
58569SOL     OW85636   9.392   8.399  11.623 -0.1958  0.5275  0.0829
58569SOL    HW185637   9.377   8.484  11.582  0.7497  0.2280 -0.9502
58569SOL    HW285638   9.480   8.405  11.660  0.6644 -0.5475 -1.6110
58570SOL     OW85639   2.444   4.750   7.631  0.0226  0.3878  0.3709
58570SOL    HW185640   2.477   4.667   7.596  0.3589  0.4780  0.4634
58570SOL    HW285641   2.403   4.726   7.714 -2.6304 -0.1434 -0.9925
58571SOL     OW85642   5.003  10.740   9.873 -0.0524  0.2797 -0.5923
58571SOL    HW185643   4.917  10.737   9.830 -0.5634  3.1367 -0.0004
58571SOL    HW285644   5.054  10.672   9.830 -2.6948 -1.7921 -0.7048
58572SOL     OW85645  11.206   0.823  10.866  0.1683  0.3741  0.1345
58572SOL    HW185646  11.137   0.886  10.886  0.4046  1.6639 -2.7374
58572SOL    HW285647  11.280   0.850  10.920 -0.7018  0.6275  1.2314
58573SOL     OW85648   4.124   4.092   0.634  0.0367 -0.4960  0.1656
58573SOL    HW185649   4.053   4.124   0.689  0.3881 -0.3044  0.5122
58573SOL    HW285650   4.080   4.042   0.565 -0.5782  1.3322 -0.8295
58574SOL     OW85651   0.037   6.205   7.536 -0.0854  0.1986 -0.4709
58574SOL    HW185652  -0.005   6.190   7.621  1.6928 -1.4962  0.1921
58574SOL    HW285653   0.093   6.281   7.550 -0.6681  0.6503 -0.5123
58575SOL     OW85654   4.447  12.313   2.883  0.1105  0.6499 -0.2241
58575SOL    HW185655   4.429  12.230   2.837 -2.5982  0.8829  0.2418
58575SOL    HW285656   4.385  12.375   2.845  0.1605  1.7324  1.3895
58576SOL     OW85657   1.780   1.704   5.145 -0.5318  0.1161 -0.1034
58576SOL    HW185658   1.807   1.738   5.060 -1.5596  1.9392  0.2556
58576SOL    HW285659   1.694   1.666   5.129 -2.4383  3.6849  0.6966
58577SOL     OW85660   0.594   4.867  12.701  0.0448  0.4833  0.3867
58577SOL    HW185661   0.508   4.884  12.740 -0.6929 -0.8193 -0.5878
58577SOL    HW285662   0.579   4.867  12.607  1.4259  1.6946  0.1292
58578SOL     OW85663   3.151  12.877   4.737  0.0641 -0.3864  1.0547
58578SOL    HW185664   3.058  12.893   4.722  0.2416  0.0333  0.3236
58578SOL    HW285665   3.195  12.942   4.682  0.8001 -1.6327  0.1299
58579SOL     OW85666   4.972   6.636  13.108  0.1870 -0.1586 -1.0953
58579SOL    HW185667   5.012   6.683  13.035  2.3426  0.2535  0.2782
58579SOL    HW285668   5.045   6.614  13.166 -1.4220 -0.5744  0.8939
58580SOL     OW85669  10.247   7.108   9.701  0.0522  0.5765 -0.1797
58580SOL    HW185670  10.251   7.144   9.790  0.9101  1.1525 -0.4394
58580SOL    HW285671  10.154   7.092   9.687  0.0530 -1.3960  1.5387
58581SOL     OW85672   3.539   4.183   1.903  0.1888  0.7582 -0.0266
58581SOL    HW185673   3.626   4.147   1.887  0.0901 -0.0338  1.1143
58581SOL    HW285674   3.539   4.207   1.995 -1.3935 -1.0230  0.5024
58582SOL     OW85675  12.233  12.040   1.516  0.0034 -0.0437 -0.5997
58582SOL    HW185676  12.170  12.111   1.528  0.0311  0.7161 -3.8824
58582SOL    HW285677  12.314  12.073   1.553 -0.4758  0.7909 -0.2783
58583SOL     OW85678   6.658   6.939   8.473 -0.4589 -0.2930  0.3358
58583SOL    HW185679   6.568   6.959   8.448 -0.2544  0.1083 -0.0927
58583SOL    HW285680   6.710   6.963   8.397 -0.2382 -3.0803 -0.5019
58584SOL     OW85681  10.635   0.465   0.258 -0.2530  0.1571  0.8133
58584SOL    HW185682  10.724   0.501   0.257  0.4564 -1.3828  2.8564
58584SOL    HW285683  10.594   0.502   0.179  2.7215 -0.4488 -1.1890
58585SOL     OW85684  10.978   2.742   5.097  0.5415  0.4576  0.4953
58585SOL    HW185685  11.038   2.679   5.136  0.0760 -0.2658  0.0594
58585SOL    HW285686  11.023   2.772   5.019 -0.0888 -0.8900 -0.4217
58586SOL     OW85687   0.275   7.869  10.882 -0.2038 -0.1444 -0.1392
58586SOL    HW185688   0.341   7.805  10.858 -1.1181 -1.7971  1.5429
58586SOL    HW285689   0.325   7.950  10.898  1.0592 -0.6203 -1.4549
58587SOL     OW85690   1.926   5.250   0.381 -0.9855 -0.6689  0.0872
58587SOL    HW185691   1.873   5.191   0.434  0.9516 -1.7943  0.8874
58587SOL    HW285692   1.924   5.213   0.293  0.9542 -2.5894  0.7585
58588SOL     OW85693   9.371  10.975   4.929 -0.0894  0.2031  0.2289
58588SOL    HW185694   9.373  10.900   4.869  1.8190  1.6248 -1.5783
58588SOL    HW285695   9.443  10.959   4.990  0.1464  0.4191  0.0096
58589SOL     OW85696   4.264   5.143   9.815  0.2453  0.5268 -0.1563
58589SOL    HW185697   4.315   5.214   9.778 -0.6875  3.2888  3.3188
58589SOL    HW285698   4.172   5.169   9.804 -0.1280 -0.1058  1.1618
58590SOL     OW85699  11.098   6.564  11.621 -0.6799  0.1306  0.0504
58590SOL    HW185700  11.062   6.476  11.623 -0.9884  0.2213 -0.8177
58590SOL    HW285701  11.149   6.567  11.540 -1.1507  0.9243 -0.2255
58591SOL     OW85702   3.413   0.462  12.146  0.6999  0.2519 -0.6836
58591SOL    HW185703   3.352   0.536  12.143 -0.3681 -0.1998  3.3132
58591SOL    HW285704   3.357   0.384  12.148  1.4273 -0.2836  0.8743
58592SOL     OW85705  12.414   1.934   3.528 -0.2962  0.2567  0.1307
58592SOL    HW185706  12.402   1.994   3.455  0.8300 -1.0692 -1.1990
58592SOL    HW285707  12.337   1.947   3.583 -0.3872  2.4460 -0.4105
58593SOL     OW85708   2.729   5.601   0.565  0.1153 -0.1411 -0.2924
58593SOL    HW185709   2.667   5.581   0.634  1.2017  2.5290  1.6288
58593SOL    HW285710   2.675   5.632   0.492 -0.9918 -2.2116 -0.4305
58594SOL     OW85711   5.425   8.545  12.663 -0.2633 -0.2657 -0.4500
58594SOL    HW185712   5.377   8.551  12.579 -0.2250 -0.4346 -0.4836
58594SOL    HW285713   5.455   8.454  12.666 -1.3853 -0.6338  0.3578
58595SOL     OW85714   3.126  12.738   3.007  0.0777  0.2094 -0.1475
58595SOL    HW185715   3.193  12.671   3.000 -0.4927 -0.2989 -0.8393
58595SOL    HW285716   3.068  12.707   3.077 -0.1159  0.0350 -0.3824
58596SOL     OW85717   8.524  12.399  10.697  0.0008  0.0733 -0.7980
58596SOL    HW185718   8.544  12.488  10.724  2.3153 -0.6019 -0.0729
58596SOL    HW285719   8.462  12.367  10.763 -1.7897  1.4569 -1.7222
58597SOL     OW85720   4.692  11.359  10.108  0.3087  0.4761  0.2824
58597SOL    HW185721   4.707  11.286  10.048  0.1971 -0.0707  0.9125
58597SOL    HW285722   4.673  11.434  10.051  1.9972  0.3912 -0.4347
58598SOL     OW85723  12.374   4.852   8.244  0.7689  0.0952 -0.5643
58598SOL    HW185724  12.378   4.839   8.149  0.3104 -1.2617 -0.4206
58598SOL    HW285725  12.452   4.903   8.264  1.2404 -0.1850 -1.5898
58599SOL     OW85726  12.548   0.588   3.975 -0.0473 -0.1267  0.1810
58599SOL    HW185727  12.640   0.568   3.989  0.1545  2.1974  3.6601
58599SOL    HW285728  12.549   0.671   3.927 -0.4145 -0.8192 -1.0546
58600SOL     OW85729  12.756   1.700  13.227  0.2198  0.0971 -0.1314
58600SOL    HW185730  12.838   1.653  13.237 -0.3720 -1.5979 -2.4839
58600SOL    HW285731  12.699   1.641  13.177 -2.5156  1.1281  1.5116
58601SOL     OW85732   7.953  10.075   8.635 -0.1474 -0.1353 -0.1299
58601SOL    HW185733   7.885  10.126   8.592  0.1644  0.9382  0.6020
58601SOL    HW285734   7.909  10.035   8.710  0.0308  0.7063  0.4500
58602SOL     OW85735  13.113   4.728   9.140  0.4102 -0.1326 -0.5732
58602SOL    HW185736  13.166   4.805   9.123 -0.6137  0.9601  0.9218
58602SOL    HW285737  13.160   4.681   9.209 -0.4181  0.7310  0.6098
58603SOL     OW85738   1.699   6.483   3.876 -0.3822  0.2266  0.3174
58603SOL    HW185739   1.686   6.444   3.962 -0.0301 -1.5965 -0.4059
58603SOL    HW285740   1.789   6.514   3.876  0.8035 -2.8997 -0.4819
58604SOL     OW85741   4.341   4.204   7.856  0.3561 -0.1124 -0.2394
58604SOL    HW185742   4.420   4.218   7.908 -0.2069 -1.1654  0.9690
58604SOL    HW285743   4.269   4.219   7.917 -0.3618 -0.1693 -1.0462
58605SOL     OW85744  10.445   4.997   2.488 -0.1748 -0.4757  0.3636
58605SOL    HW185745  10.365   5.048   2.481 -0.3721 -0.9611 -1.3973
58605SOL    HW285746  10.463   4.992   2.582 -0.9390  1.5500  0.6575
58606SOL     OW85747   3.997   9.787   8.973 -0.0648 -0.1129 -0.3010
58606SOL    HW185748   4.055   9.712   8.985 -0.8015 -0.3651  2.2567
58606SOL    HW285749   3.914   9.748   8.944 -0.3316 -0.3025  0.6589
58607SOL     OW85750   0.386   3.701   4.783 -0.3031  0.2494  0.2220
58607SOL    HW185751   0.295   3.727   4.793  0.0265  1.1371  1.0181
58607SOL    HW285752   0.387   3.607   4.803 -0.9436  0.3530  0.7571
58608SOL     OW85753   3.880  12.708   6.310  0.2868  0.1106  0.1081
58608SOL    HW185754   3.945  12.686   6.243 -0.2168  2.1037 -1.1215
58608SOL    HW285755   3.932  12.723   6.389  0.9400 -1.8060  0.1063
58609SOL     OW85756   7.453  10.976   9.702 -0.3841  0.2504  0.4736
58609SOL    HW185757   7.409  11.037   9.642 -1.5164 -1.2152 -0.2400
58609SOL    HW285758   7.383  10.948   9.762 -0.2885 -1.6062 -0.2511
58610SOL     OW85759   6.841   6.675  10.438  0.5840 -0.3431 -0.0459
58610SOL    HW185760   6.787   6.615  10.489  1.4687  0.1872  1.6047
58610SOL    HW285761   6.830   6.760  10.482  0.6359  0.3599 -1.3365
58611SOL     OW85762  10.993   3.605   3.041  0.3656 -0.1648  0.1210
58611SOL    HW185763  10.957   3.679   2.992  1.0364  0.9494  1.2551
58611SOL    HW285764  10.920   3.573   3.093  0.3729  0.5461  0.5902
58612SOL     OW85765   0.633   3.551   9.465 -0.1565  0.3423 -0.1369
58612SOL    HW185766   0.653   3.520   9.553  0.9978 -0.6985 -0.7304
58612SOL    HW285767   0.719   3.558   9.422 -0.7397  0.3047 -1.3430
58613SOL     OW85768   0.199   3.112   0.378  0.0809 -0.1882 -0.5165
58613SOL    HW185769   0.176   3.154   0.461  0.4059 -1.3456  0.2017
58613SOL    HW285770   0.294   3.103   0.382 -0.0243 -1.5162 -0.3436
58614SOL     OW85771   2.671   7.211   6.876  0.0950 -0.4084  0.5855
58614SOL    HW185772   2.583   7.189   6.907  0.4154 -2.1395  0.3266
58614SOL    HW285773   2.666   7.305   6.856 -1.9896 -0.6913 -0.4698
58615SOL     OW85774   0.250   2.257   2.148  0.4942 -0.1964  0.2662
58615SOL    HW185775   0.192   2.266   2.224  1.4136  1.3236  0.8357
58615SOL    HW285776   0.201   2.297   2.076  0.5370  0.4776  0.5979
58616SOL     OW85777  11.955   7.273   3.573  0.0482 -0.5259  0.1749
58616SOL    HW185778  12.027   7.313   3.524 -0.2544  0.1659  0.2737
58616SOL    HW285779  11.890   7.343   3.581 -0.4627 -1.0213  0.4338
58617SOL     OW85780   5.066  13.185   5.088 -0.0796 -0.1709  0.5085
58617SOL    HW185781   5.053  13.091   5.104 -1.4954 -0.2886 -1.0574
58617SOL    HW285782   4.977  13.219   5.078  0.4963  0.6309 -2.6581
58618SOL     OW85783   3.349   0.164  10.079 -0.2211  0.2757 -0.1530
58618SOL    HW185784   3.310   0.250  10.064  1.7151  1.3936  0.8465
58618SOL    HW285785   3.387   0.170  10.166  0.9377 -1.2107 -0.5292
58619SOL     OW85786  12.580   4.787  12.098 -0.5955  0.0885 -0.8674
58619SOL    HW185787  12.575   4.712  12.040 -0.3012 -1.1827  0.6763
58619SOL    HW285788  12.672   4.791  12.125 -1.0412 -0.4571  0.8539
58620SOL     OW85789   6.643   5.861  11.600 -0.5619  0.6684  0.0619
58620SOL    HW185790   6.685   5.937  11.642  1.3632  0.4174 -1.2490
58620SOL    HW285791   6.608   5.895  11.518  3.1399 -0.2600 -2.1562
58621SOL     OW85792  10.974   4.210   4.372  0.6020 -0.0533  0.1559
58621SOL    HW185793  10.906   4.156   4.413  0.2928  0.5236  0.4217
58621SOL    HW285794  10.960   4.298   4.408  1.6557  0.0248  0.4156
58622SOL     OW85795   7.166   9.898  12.910  0.1758 -0.3670  0.0610
58622SOL    HW185796   7.121   9.847  12.977 -0.4370 -0.5408 -0.4724
58622SOL    HW285797   7.194   9.977  12.955  0.4577 -0.8223  0.7077
58623SOL     OW85798  11.763  12.486   0.533  0.1360  1.1307  0.3984
58623SOL    HW185799  11.677  12.445   0.536  1.1308 -1.0731  1.5210
58623SOL    HW285800  11.761  12.550   0.604 -0.8602  1.7247 -0.1563
58624SOL     OW85801  11.381  12.233   5.035 -0.6901  0.2474 -0.0126
58624SOL    HW185802  11.372  12.327   5.022 -0.4252  0.3281  0.3731
58624SOL    HW285803  11.470  12.221   5.070 -1.0221 -0.0533  0.7532
58625SOL     OW85804   4.787   5.412  11.062  0.4574 -0.0582 -0.4207
58625SOL    HW185805   4.739   5.490  11.033  2.4813  0.9265 -1.3867
58625SOL    HW285806   4.801   5.362  10.982  2.4577  0.5652 -0.5276
58626SOL     OW85807   0.818   2.875  12.484  0.4807  0.2084 -0.5362
58626SOL    HW185808   0.860   2.828  12.412 -2.4868  0.7621 -2.8549
58626SOL    HW285809   0.812   2.810  12.554  1.4179 -1.1022 -1.6069
58627SOL     OW85810   8.236  12.950  11.832  0.0959  0.1143 -0.5399
58627SOL    HW185811   8.201  12.867  11.865 -1.2606  0.1090 -1.8897
58627SOL    HW285812   8.287  12.926  11.755  1.9529  0.2971  0.5664
58628SOL     OW85813   4.251   1.277   7.199  0.7168 -0.0568  0.0297
58628SOL    HW185814   4.166   1.284   7.156  0.3781  0.3870  0.7438
58628SOL    HW285815   4.296   1.359   7.176  0.0170  0.8142  1.5518
58629SOL     OW85816   9.256  10.669   5.568  0.3233  0.4978  0.3118
58629SOL    HW185817   9.267  10.596   5.507 -1.1387  0.4665  0.0548
58629SOL    HW285818   9.214  10.630   5.645 -1.0080  1.1542 -0.0607
58630SOL     OW85819   5.724   0.032  10.841  0.0850 -0.1470 -0.5149
58630SOL    HW185820   5.724  -0.051  10.794 -0.9350 -0.7289  0.4873
58630SOL    HW285821   5.720   0.008  10.933  0.8961  1.0099 -0.1494
58631SOL     OW85822   5.110  11.543   3.499  0.2968  0.7373 -0.2890
58631SOL    HW185823   5.057  11.469   3.471 -0.2773  1.4481 -1.1582
58631SOL    HW285824   5.137  11.522   3.588  0.2716 -0.5715 -0.5788
58632SOL     OW85825   9.102   6.745   6.077  0.5363  0.2253 -0.3864
58632SOL    HW185826   9.013   6.715   6.058  0.1261  0.1259  1.5008
58632SOL    HW285827   9.090   6.832   6.117  1.2142 -0.0811  0.5095
58633SOL     OW85828   3.174  12.775   3.334 -0.2963 -0.1207 -0.0052
58633SOL    HW185829   3.085  12.781   3.299  0.5237  1.9543 -2.0388
58633SOL    HW285830   3.173  12.832   3.411 -0.2709  1.7197 -1.2921
58634SOL     OW85831   5.781  10.948   7.527 -0.2909 -0.0932  0.1046
58634SOL    HW185832   5.825  11.007   7.465  2.1256  0.2028  1.9695
58634SOL    HW285833   5.759  11.004   7.601 -1.6543 -0.7672  0.2230
58635SOL     OW85834   3.847  10.048   2.174 -0.0612 -0.5548 -0.6278
58635SOL    HW185835   3.925  10.019   2.222  0.1151  0.2495 -0.4085
58635SOL    HW285836   3.806   9.967   2.144  0.6436 -1.0104 -0.4043
58636SOL     OW85837  11.689   0.138   7.199  0.4993 -0.4125 -0.6605
58636SOL    HW185838  11.696   0.073   7.270  0.2677 -0.5476 -0.7589
58636SOL    HW285839  11.652   0.215   7.241 -0.2225 -0.7010 -0.7586
58637SOL     OW85840   1.147   9.397   0.040  0.4602 -0.0604 -0.1881
58637SOL    HW185841   1.073   9.339   0.056 -0.3986  0.8942 -0.6442
58637SOL    HW285842   1.221   9.337   0.024 -0.3021 -1.0236 -0.1987
58638SOL     OW85843   5.508  12.077   9.942  0.4430  0.4431  0.1214
58638SOL    HW185844   5.425  12.109   9.976  0.2160 -0.3876  0.3770
58638SOL    HW285845   5.559  12.055  10.021  1.4320  2.1547  0.0306
58639SOL     OW85846  13.218  12.890   3.818  0.2642  0.4775 -0.4729
58639SOL    HW185847  13.161  12.838   3.762  0.2302  1.2724 -1.1923
58639SOL    HW285848  13.160  12.924   3.886  0.2656 -0.2987 -0.0609
58640SOL     OW85849   8.106  13.094   6.317  0.2845 -0.2334 -0.1926
58640SOL    HW185850   8.119  13.176   6.365  2.4057 -0.4434 -0.3049
58640SOL    HW285851   8.076  13.122   6.230  5.7049  1.0150 -2.0354
58641SOL     OW85852   3.391   1.642   4.390  0.3525  0.0341  0.5021
58641SOL    HW185853   3.362   1.731   4.371  0.1400 -0.0439  0.4560
58641SOL    HW285854   3.444   1.617   4.314  1.3132  0.5079  0.9933
58642SOL     OW85855   3.414   6.321   7.221  0.1041 -0.1812  0.3802
58642SOL    HW185856   3.395   6.410   7.250  0.1700 -0.0521  0.0323
58642SOL    HW285857   3.474   6.286   7.287 -0.9911 -0.4483  1.2534
58643SOL     OW85858  10.616   7.700   7.097 -0.3771 -0.0443 -0.4219
58643SOL    HW185859  10.669   7.620   7.102 -0.8003 -0.2729  0.9490
58643SOL    HW285860  10.568   7.692   7.015  1.0040 -0.2639 -1.2532
58644SOL     OW85861   2.531   9.293   1.811 -0.0205  0.4503 -0.0746
58644SOL    HW185862   2.461   9.243   1.852  0.3983  0.7348  1.0210
58644SOL    HW285863   2.507   9.385   1.827  0.7183  0.5459  0.5289
58645SOL     OW85864   1.894   5.434   0.050 -0.1225 -0.1205 -1.0607
58645SOL    HW185865   1.874   5.349   0.089 -0.0067 -0.1000 -0.9557
58645SOL    HW285866   1.836   5.496   0.094  0.0061 -0.0981 -0.9242
58646SOL     OW85867   7.331   2.767   0.322  0.4340  0.2393  0.4938
58646SOL    HW185868   7.383   2.704   0.272 -0.8165  0.6948 -1.5138
58646SOL    HW285869   7.326   2.844   0.266 -2.1456  0.2998  0.6862
58647SOL     OW85870   6.547   3.143   4.865  0.0984  0.1970  0.6486
58647SOL    HW185871   6.462   3.100   4.864 -0.6261  1.5424  0.9336
58647SOL    HW285872   6.597   3.095   4.931  0.0398 -1.4143 -0.4198
58648SOL     OW85873   4.488  12.652   8.262 -0.0496  0.1884  0.6795
58648SOL    HW185874   4.548  12.725   8.279  0.5319  0.9391 -3.4879
58648SOL    HW285875   4.405  12.693   8.240 -0.6256 -0.6012  1.3130
58649SOL     OW85876   2.371   8.437   3.988 -0.0598  0.0045 -0.1996
58649SOL    HW185877   2.382   8.343   3.974  1.1619  0.2566 -1.2020
58649SOL    HW285878   2.461   8.470   3.999 -0.3428  1.2467 -1.3647
58650SOL     OW85879   0.723   4.882   9.885 -0.0750 -0.1612  0.1474
58650SOL    HW185880   0.817   4.899   9.886 -0.1473  0.4013  1.9923
58650SOL    HW285881   0.707   4.834   9.804  1.5148  1.2510 -1.0598
58651SOL     OW85882   0.633   8.523  10.088  0.2338 -0.2016  0.7891
58651SOL    HW185883   0.569   8.505  10.156  0.3080  1.5403  1.3681
58651SOL    HW285884   0.581   8.556  10.014  0.4544  1.6506  1.4197
58652SOL     OW85885  10.360   6.727  10.010 -0.9786  0.0638 -0.1158
58652SOL    HW185886  10.336   6.642   9.973 -0.5721 -0.3452  0.5346
58652SOL    HW285887  10.289   6.785   9.986 -1.9602 -0.8004  0.6175
58653SOL     OW85888   7.056   7.976  10.546 -0.4284  0.4857  0.0059
58653SOL    HW185889   7.036   7.909  10.481 -0.0097 -0.5665  0.9285
58653SOL    HW285890   6.979   8.032  10.547 -0.9903 -0.2615 -0.4448
58654SOL     OW85891   6.458   2.174  12.965  0.0030 -0.1071 -0.2476
58654SOL    HW185892   6.430   2.131  13.046 -1.8351  0.1575 -0.6907
58654SOL    HW285893   6.530   2.231  12.991  0.3805 -1.0902  0.9295
58655SOL     OW85894  12.229   3.193   2.281 -0.0026  0.1580  0.2373
58655SOL    HW185895  12.198   3.168   2.368 -1.5741  0.4854 -0.1971
58655SOL    HW285896  12.164   3.156   2.221  0.7660  0.4016 -0.7729
58656SOL     OW85897   0.684   2.252  12.009  0.0761  0.2131  0.1602
58656SOL    HW185898   0.627   2.176  12.016  0.2101  0.0711 -0.2747
58656SOL    HW285899   0.658   2.294  11.927 -0.1549  0.7654  0.5116
58657SOL     OW85900   2.509   1.123   3.926 -0.0470  0.6414 -0.4986
58657SOL    HW185901   2.596   1.152   3.952  0.4126  1.6057 -2.8466
58657SOL    HW285902   2.454   1.139   4.003  1.4939  1.6503  0.4487
58658SOL     OW85903   7.108   7.648  13.041 -0.1885  0.0690 -0.2521
58658SOL    HW185904   7.062   7.594  12.976 -2.0311  1.2497  0.0055
58658SOL    HW285905   7.120   7.590  13.116  0.8909 -0.9504 -1.1744
58659SOL     OW85906   8.788   7.489  10.513 -0.4084 -0.7038 -0.4334
58659SOL    HW185907   8.812   7.572  10.473 -0.1860 -0.1517  0.8143
58659SOL    HW285908   8.845   7.481  10.589 -1.2206 -1.4404  0.1261
58660SOL     OW85909   8.458   9.210   5.062 -0.3427  0.1386 -0.0628
58660SOL    HW185910   8.488   9.271   5.129 -0.0760  1.0351 -0.9756
58660SOL    HW285911   8.520   9.137   5.065  0.0496  0.4835  0.2142
58661SOL     OW85912   7.296   5.245   6.117 -0.8408  0.0232 -0.0231
58661SOL    HW185913   7.372   5.284   6.073 -0.7435 -0.2342 -0.0854
58661SOL    HW285914   7.233   5.232   6.047 -0.3094 -1.3272 -0.2902
58662SOL     OW85915   7.426   4.689  12.769 -0.3466 -0.7926 -0.8880
58662SOL    HW185916   7.426   4.743  12.848 -0.4320 -1.6008 -0.3230
58662SOL    HW285917   7.516   4.692  12.738 -0.4165 -0.0821 -1.0403
58663SOL     OW85918   2.347   2.737  12.219 -0.0703 -0.4908 -0.3275
58663SOL    HW185919   2.306   2.813  12.261 -0.5955 -0.8101 -0.2473
58663SOL    HW285920   2.408   2.774  12.156 -0.0900 -0.0020 -0.0606
58664SOL     OW85921   5.751  10.137  12.277  0.1476  0.0973 -0.4535
58664SOL    HW185922   5.819  10.128  12.211  1.1742  0.7593  0.4739
58664SOL    HW285923   5.783  10.205  12.336 -0.2102 -1.2056  1.3309
58665SOL     OW85924   1.433   4.463  11.041  0.2161 -0.0604  0.5850
58665SOL    HW185925   1.514   4.508  11.066 -0.2265  0.7131  0.6609
58665SOL    HW285926   1.444   4.374  11.073  1.9540 -0.5901 -1.2835
58666SOL     OW85927   2.429   4.159   2.125  0.8705 -0.0317 -0.4647
58666SOL    HW185928   2.381   4.112   2.057 -0.6705 -0.7643  1.0588
58666SOL    HW285929   2.378   4.239   2.139 -1.8553 -2.0964  3.1790
58667SOL     OW85930   0.054  10.619   1.447 -0.8446 -0.1320 -0.1834
58667SOL    HW185931   0.001  10.640   1.370 -2.2048 -2.4295  0.0391
58667SOL    HW285932   0.031  10.528   1.468  1.6834 -0.5480  1.1835
58668SOL     OW85933   8.743   4.572   3.331  0.9204 -0.4607  0.0771
58668SOL    HW185934   8.790   4.506   3.383 -0.1014 -0.6371  0.8187
58668SOL    HW285935   8.794   4.652   3.342  1.8080 -0.9708 -0.2814
58669SOL     OW85936  11.591  11.168   7.779  0.0565  0.2588 -0.0982
58669SOL    HW185937  11.575  11.164   7.685  0.5009  1.1218 -0.2213
58669SOL    HW285938  11.647  11.245   7.791  0.7271 -0.3337  0.7664
58670SOL     OW85939   9.370  10.855   7.746 -0.3423  0.2626 -0.1560
58670SOL    HW185940   9.371  10.783   7.809  0.3634  1.1891  0.9469
58670SOL    HW285941   9.307  10.917   7.783  1.8924  1.9634  1.0551
58671SOL     OW85942   3.371  12.922  10.687 -0.3533  0.2704  0.2607
58671SOL    HW185943   3.423  12.850  10.654  0.6613  0.1770  1.9512
58671SOL    HW285944   3.376  12.989  10.618  1.7574  0.1423  0.2429
58672SOL     OW85945   2.674   9.923   2.235 -0.0086 -0.3122 -0.0008
58672SOL    HW185946   2.606   9.989   2.248  1.9085  1.5319  1.3557
58672SOL    HW285947   2.734   9.962   2.172 -0.0721 -1.8507 -1.0692
58673SOL     OW85948   6.427   9.975   3.570 -0.1347 -0.2424  0.1476
58673SOL    HW185949   6.493  10.033   3.606  0.1661  0.2737 -1.1565
58673SOL    HW285950   6.345  10.001   3.611  0.5526 -1.4366  2.4190
58674SOL     OW85951   6.054   2.474  10.611  0.3656  0.3956 -0.6651
58674SOL    HW185952   6.094   2.523  10.539  1.0649 -0.1355 -0.6514
58674SOL    HW285953   5.963   2.502  10.611  0.1131 -0.2865 -2.3888
58675SOL     OW85954   1.170  12.566  11.224  0.4527 -0.6240  0.1876
58675SOL    HW185955   1.166  12.646  11.276 -2.0710 -1.1880  1.0224
58675SOL    HW285956   1.119  12.585  11.146 -0.3245 -1.4195  0.4765
58676SOL     OW85957  11.789   5.554   9.677  0.2681 -0.1376  0.4344
58676SOL    HW185958  11.742   5.637   9.670 -1.1330 -0.7161  2.2041
58676SOL    HW285959  11.775   5.526   9.767  2.8930 -1.0587  0.6494
58677SOL     OW85960   5.355   7.721   1.179  0.1413  0.0111 -0.3281
58677SOL    HW185961   5.416   7.652   1.202 -0.8317 -1.4971 -2.0116
58677SOL    HW285962   5.269   7.680   1.186 -0.4985  1.1806 -0.9959
58678SOL     OW85963   6.254   9.877  13.138  0.1903 -0.6053 -0.4918
58678SOL    HW185964   6.169   9.914  13.113  0.2651  0.4236  0.7079
58678SOL    HW285965   6.254   9.880  13.233  1.8936  0.1751 -0.4815
58679SOL     OW85966   8.356   9.680  10.750  0.3036  0.1439  0.4078
58679SOL    HW185967   8.446   9.649  10.766  1.0350  2.6108  1.6565
58679SOL    HW285968   8.359   9.716  10.661  0.2396 -0.7392  0.0422
58680SOL     OW85969   4.758   4.605  11.803  0.1513 -0.1536 -0.1543
58680SOL    HW185970   4.747   4.593  11.709  2.0759  1.7827 -0.7043
58680SOL    HW285971   4.687   4.663  11.829 -0.3755 -0.6811 -0.4087
58681SOL     OW85972   3.385   9.605  13.202 -0.3322  0.3468 -0.0500
58681SOL    HW185973   3.328   9.671  13.241 -0.8049 -0.9127  1.4772
58681SOL    HW285974   3.443   9.577  13.273 -1.3180 -2.1181 -0.1116
58682SOL     OW85975  12.213   2.222   8.132 -0.5678 -0.3549 -0.0651
58682SOL    HW185976  12.209   2.192   8.222 -2.3162 -0.3167 -0.1053
58682SOL    HW285977  12.186   2.314   8.135 -2.0757 -0.7394 -0.7651
58683SOL     OW85978  11.061   1.076   4.283 -0.4192 -0.3207 -0.2162
58683SOL    HW185979  11.140   1.129   4.271 -0.3387 -0.6100 -1.0180
58683SOL    HW285980  11.063   1.050   4.375  1.8040 -2.5026 -0.8040
58684SOL     OW85981   7.224   8.963  10.151  0.1041  0.3935 -0.0152
58684SOL    HW185982   7.317   8.952  10.131  0.0961  0.2103  0.0454
58684SOL    HW285983   7.210   9.058  10.148  0.5226  0.4987  0.9973
58685SOL     OW85984   1.498   8.429   9.207  0.0553 -0.1114 -0.5226
58685SOL    HW185985   1.592   8.419   9.190  0.2116 -1.5440  0.9624
58685SOL    HW285986   1.459   8.432   9.120  1.4991  0.9852 -1.1819
58686SOL     OW85987   8.697   5.946   0.026 -0.3956 -0.2799 -0.0615
58686SOL    HW185988   8.765   5.985   0.081  1.0492 -0.9973 -1.2606
58686SOL    HW285989   8.623   5.932   0.085  1.0496 -0.9231  1.6887
58687SOL     OW85990   5.948   0.531   0.440  0.2336  0.0577 -0.1496
58687SOL    HW185991   5.877   0.592   0.461  0.6128  0.0288  1.2924
58687SOL    HW285992   5.970   0.550   0.349 -2.9315 -1.2498 -1.3354
58688SOL     OW85993   1.683  10.573   0.902 -0.0294 -0.5504  0.1100
58688SOL    HW185994   1.661  10.544   0.813  1.7438 -0.1539 -0.4905
58688SOL    HW285995   1.777  10.560   0.909  0.3186  1.9268  0.9912
58689SOL     OW85996   3.501   2.807   6.420  0.0445 -0.0945  0.1999
58689SOL    HW185997   3.564   2.790   6.351  0.4671 -1.0691  0.8091
58689SOL    HW285998   3.549   2.860   6.484  0.4582 -1.3374  0.9503
58690SOL     OW85999   0.029   9.819  11.875 -0.1761 -0.1826  0.4549
58690SOL    HW186000   0.098   9.843  11.812  0.8846 -0.5847  1.4172
58690SOL    HW286001   0.018   9.897  11.928  1.7485 -1.0105  2.2218
58691SOL     OW86002   8.283   4.595   3.545 -0.1014  0.4621  0.3789
58691SOL    HW186003   8.260   4.648   3.622  1.0881  0.0005  1.0687
58691SOL    HW286004   8.375   4.573   3.557  0.7633  2.1521 -2.2367
58692SOL     OW86005   6.854   4.116   9.329  0.4800  0.4101  0.6261
58692SOL    HW186006   6.879   4.045   9.271  1.4256  0.6109  0.7697
58692SOL    HW286007   6.759   4.108   9.339  0.2323  0.6099 -1.2681
58693SOL     OW86008  12.307   7.994  10.847  0.4303  0.0649  0.3026
58693SOL    HW186009  12.297   7.955  10.760 -2.1091  0.3821  0.3740
58693SOL    HW286010  12.373   8.063  10.835  1.0036 -0.6851 -1.0703
58694SOL     OW86011   4.742   9.851   8.038  0.3402  0.6552 -0.2918
58694SOL    HW186012   4.654   9.864   8.002  0.4440 -0.3840 -0.9758
58694SOL    HW286013   4.731   9.785   8.106  0.5408  0.7765 -0.1414
58695SOL     OW86014   0.825  12.898   5.080  0.8227  0.0568  0.1818
58695SOL    HW186015   0.921  12.896   5.080  0.8402  0.4805 -0.5024
58695SOL    HW286016   0.800  12.865   5.166  1.5981  0.4138  0.5555
58696SOL     OW86017   9.147   7.303   2.303  0.5601 -0.1603 -0.3479
58696SOL    HW186018   9.139   7.305   2.208 -2.2154  0.0974 -0.1821
58696SOL    HW286019   9.142   7.210   2.326  2.3231 -0.3187 -0.4651
58697SOL     OW86020   7.167  12.406   8.987 -0.5554 -0.1019  0.4609
58697SOL    HW186021   7.210  12.381   8.906 -0.0751  2.3046 -0.0965
58697SOL    HW286022   7.230  12.462   9.031 -2.0164  1.1971  0.9853
58698SOL     OW86023   2.476   2.510   4.745 -0.0173  0.3434 -0.1712
58698SOL    HW186024   2.532   2.433   4.731 -0.7148 -0.7329  2.2270
58698SOL    HW286025   2.389   2.482   4.714 -0.1222  0.4140  0.0573
58699SOL     OW86026   2.200  10.040  11.940 -0.1475  0.1280  0.1119
58699SOL    HW186027   2.115  10.002  11.963 -0.4651  1.0797  0.5543
58699SOL    HW286028   2.250  10.036  12.022  0.4110 -0.8683 -0.2671
58700SOL     OW86029   5.560   4.925   9.760 -0.2775 -0.1759 -0.0301
58700SOL    HW186030   5.483   4.872   9.776 -0.6457  0.1274 -0.7299
58700SOL    HW286031   5.551   4.953   9.669  0.9261 -0.5730 -0.2922
58701SOL     OW86032   8.797  11.591   0.587  0.6850  0.2375 -0.8778
58701SOL    HW186033   8.850  11.521   0.548 -0.2684 -1.5297  0.7883
58701SOL    HW286034   8.737  11.545   0.645 -0.6883  2.4110 -0.4650
58702SOL     OW86035   3.320  11.379   3.582  0.4630  0.4368 -0.2200
58702SOL    HW186036   3.350  11.425   3.661 -0.5043 -0.0558  0.4490
58702SOL    HW286037   3.366  11.295   3.584 -1.8984 -0.9482  1.5987
58703SOL     OW86038   6.528   9.542   5.255 -0.3939 -0.1709  0.3309
58703SOL    HW186039   6.501   9.456   5.286  2.2678 -1.3324 -0.2393
58703SOL    HW286040   6.618   9.553   5.288 -1.1274  3.1249  1.7023
58704SOL     OW86041   7.405   4.020   5.141  0.4870  0.1917  0.0452
58704SOL    HW186042   7.314   3.997   5.160 -0.0318 -0.6366 -2.9289
58704SOL    HW286043   7.409   4.115   5.156 -0.9309  0.2878 -0.0047
58705SOL     OW86044   6.837   0.288   2.205  0.1501 -0.5702  0.1540
58705SOL    HW186045   6.859   0.248   2.288 -0.4423 -0.5098  0.3497
58705SOL    HW286046   6.744   0.269   2.193 -0.4431  1.6300  0.7822
58706SOL     OW86047   6.658   8.100   8.273  0.4144 -0.1321  0.1428
58706SOL    HW186048   6.747   8.113   8.305  0.4472 -1.4373  0.6372
58706SOL    HW286049   6.615   8.184   8.287  2.2815  1.4547 -2.7008
58707SOL     OW86050   2.388   2.406  10.363 -0.0613  0.1396  0.3207
58707SOL    HW186051   2.299   2.383  10.335 -0.6790  2.3341  0.3167
58707SOL    HW286052   2.413   2.478  10.305  1.2584  0.3464  1.1181
58708SOL     OW86053   0.551  12.799   6.606 -0.0597  0.0937 -0.3730
58708SOL    HW186054   0.620  12.789   6.671  0.8166  2.5509 -0.8122
58708SOL    HW286055   0.541  12.712   6.568 -0.2662 -1.3158  2.6365
58709SOL     OW86056   2.545  12.176   7.844  0.4212  0.2134 -0.2660
58709SOL    HW186057   2.476  12.144   7.787  0.5448  0.8222 -0.7685
58709SOL    HW286058   2.500  12.207   7.923  0.3496 -1.7818  0.5393
58710SOL     OW86059   5.774  10.640  12.601 -0.0132 -0.3171 -0.4938
58710SOL    HW186060   5.814  10.672  12.521  0.4877  1.1587  0.3048
58710SOL    HW286061   5.730  10.716  12.638  2.3419 -0.0949  2.1658
58711SOL     OW86062   8.188  11.350   0.419  0.5030  0.6691 -0.3725
58711SOL    HW186063   8.266  11.296   0.433 -0.7656 -1.1149  0.1937
58711SOL    HW286064   8.160  11.329   0.330 -0.4277 -0.2563  0.1144
58712SOL     OW86065   7.330  11.491   2.829  0.2490 -0.4454 -0.1493
58712SOL    HW186066   7.337  11.498   2.925  1.9136 -1.3894 -0.1617
58712SOL    HW286067   7.248  11.536   2.808 -0.2709 -0.4049  1.7382
58713SOL     OW86068   2.995  12.710  11.607  0.3017  0.0372 -0.2617
58713SOL    HW186069   3.024  12.619  11.606  0.6861  0.1617 -0.7599
58713SOL    HW286070   3.005  12.738  11.699 -0.7702 -0.7157  0.0993
58714SOL     OW86071   7.022   5.052  11.556 -0.8790  0.6194  0.0488
58714SOL    HW186072   6.969   5.079  11.632 -0.3775 -0.4102  0.7876
58714SOL    HW286073   7.059   4.968  11.582  1.0625  1.2726 -0.4916
58715SOL     OW86074  11.543   2.813   9.276 -0.6924 -0.6343 -0.1374
58715SOL    HW186075  11.551   2.894   9.326 -0.4329 -0.1700 -0.9099
58715SOL    HW286076  11.628   2.771   9.286 -0.7286 -0.6708  0.0240
58716SOL     OW86077   7.297  13.147  12.445 -0.1959 -0.7603 -0.0151
58716SOL    HW186078   7.330  13.167  12.533  0.5172  0.9835 -0.6325
58716SOL    HW286079   7.226  13.084  12.460 -0.5913  0.0513  1.8718
58717SOL     OW86080   4.811   5.000  10.566  0.0167  0.0877 -0.2051
58717SOL    HW186081   4.773   5.005  10.478  0.1966  1.6306 -0.2350
58717SOL    HW286082   4.737   4.978  10.623 -0.9428  2.7015 -0.3011
58718SOL     OW86083  10.000   0.415   3.976  0.0438  0.1424 -0.0890
58718SOL    HW186084  10.012   0.434   3.883 -1.4674  0.5762 -0.2178
58718SOL    HW286085   9.909   0.437   3.994  0.3509  0.2370  1.5437
58719SOL     OW86086   1.551   4.221  11.121 -0.1832 -0.1272  0.1681
58719SOL    HW186087   1.530   4.146  11.065 -1.1020 -1.2521  1.9194
58719SOL    HW286088   1.647   4.225  11.121 -0.0780 -1.9014  0.7438
58720SOL     OW86089   7.165   2.115   6.663  0.1985  0.5581 -0.0807
58720SOL    HW186090   7.146   2.205   6.689 -0.8426  1.4725 -3.5421
58720SOL    HW286091   7.260   2.113   6.651  0.3783  0.8055  1.1736
58721SOL     OW86092   1.218  10.775   2.074  0.0873  0.0075  0.2903
58721SOL    HW186093   1.155  10.725   2.125 -0.9219  1.3898  0.4585
58721SOL    HW286094   1.201  10.866   2.098 -0.4556  0.7470 -2.5029
58722SOL     OW86095   9.282  11.813   4.948 -0.2861  0.0364 -0.0689
58722SOL    HW186096   9.253  11.854   4.867 -0.2134 -1.0920 -0.6855
58722SOL    HW286097   9.231  11.856   5.017  0.4126  1.7488 -0.5761
58723SOL     OW86098   1.932   6.827   6.796 -0.4605  0.0372 -0.5518
58723SOL    HW186099   1.861   6.763   6.790 -0.3364 -0.1270 -0.2836
58723SOL    HW286100   2.005   6.778   6.834 -0.7984  0.7082  1.0392
58724SOL     OW86101  12.698   1.210  12.393 -0.6482 -0.4283 -0.1434
58724SOL    HW186102  12.783   1.252  12.404  0.3459 -2.0805 -1.1643
58724SOL    HW286103  12.656   1.261  12.324 -0.8949  0.9378  0.9642
58725SOL     OW86104   8.172  11.622   4.252  0.1655  0.0629 -0.1800
58725SOL    HW186105   8.086  11.663   4.247 -0.0326 -0.4913 -1.8327
58725SOL    HW286106   8.210  11.656   4.333 -1.0724  1.3479 -0.0971
58726SOL     OW86107   4.168   1.768   7.220  0.1792  0.4069 -0.3491
58726SOL    HW186108   4.144   1.688   7.173 -0.2396 -0.4631  1.2618
58726SOL    HW286109   4.119   1.837   7.175 -1.9828 -0.7036  0.1472
58727SOL     OW86110  11.173   7.039  10.568  0.4862  0.2745 -0.7226
58727SOL    HW186111  11.128   7.031  10.652  2.2448 -1.4639  0.1383
58727SOL    HW286112  11.203   7.130  10.566 -1.4837  0.9783 -0.5509
58728SOL     OW86113   7.900  10.046  10.490  0.2904  0.6344  0.0544
58728SOL    HW186114   7.963  10.074  10.556 -0.4264  1.0532  0.5806
58728SOL    HW286115   7.820  10.094  10.512 -0.0621  0.5112 -0.9075
58729SOL     OW86116   1.584   2.471  12.564  0.2260  0.0354  0.4569
58729SOL    HW186117   1.540   2.481  12.479  0.9196  0.2006  0.1124
58729SOL    HW286118   1.602   2.378  12.571  0.3039  0.0423  0.3533
58730SOL     OW86119   4.661   4.702   5.249  0.3250 -0.0329  0.0024
58730SOL    HW186120   4.635   4.661   5.331  0.1798  2.3144  1.2136
58730SOL    HW286121   4.740   4.752   5.270 -0.9660  2.4540 -0.5964
58731SOL     OW86122   0.869   8.335   1.370 -0.2939  0.0884  0.2222
58731SOL    HW186123   0.844   8.387   1.446 -3.1293  1.0771 -1.2400
58731SOL    HW286124   0.866   8.244   1.400 -0.2966  0.5089  1.5295
58732SOL     OW86125  11.066   2.205   7.875 -0.5333 -0.0622  0.2521
58732SOL    HW186126  11.161   2.218   7.869 -0.7130  0.4765 -2.3939
58732SOL    HW286127  11.030   2.293   7.889 -0.6261 -0.4461  2.9622
58733SOL     OW86128   1.959   5.677   3.233 -0.8040  0.1124 -0.6730
58733SOL    HW186129   1.984   5.712   3.319 -0.9002 -0.3293 -0.4628
58733SOL    HW286130   1.972   5.750   3.173 -0.4749  0.3473 -0.3231
58734SOL     OW86131   9.745  10.771   9.630 -0.2038  0.3048 -0.5712
58734SOL    HW186132   9.681  10.840   9.647  1.4667  2.0828 -1.0628
58734SOL    HW286133   9.693  10.697   9.600 -1.9709  2.0023 -2.0073
58735SOL     OW86134   1.231   0.049   4.943 -0.0651 -0.5051 -0.0174
58735SOL    HW186135   1.195   0.130   4.979  2.6595  0.8999 -0.2359
58735SOL    HW286136   1.217  -0.016   5.012  2.6357  1.4892  2.6375
58736SOL     OW86137  10.479   0.825  12.101  0.6545 -0.2736 -0.0760
58736SOL    HW186138  10.435   0.772  12.034  1.2495 -1.4447  0.4477
58736SOL    HW286139  10.409   0.852  12.161  0.5167 -1.4489  0.3028
58737SOL     OW86140  10.836   6.081   3.108 -0.2524  0.5691 -0.2633
58737SOL    HW186141  10.844   6.080   3.013 -0.5951 -1.1356 -0.3043
58737SOL    HW286142  10.776   6.009   3.128  1.4599 -0.4992  1.3625
58738SOL     OW86143  12.350   2.912  10.167 -0.4978 -0.3983  0.3245
58738SOL    HW186144  12.375   2.989  10.115  1.9635 -0.6692  0.9416
58738SOL    HW286145  12.258   2.898  10.147 -0.4116  1.2887 -1.6327
58739SOL     OW86146  10.516   7.478   1.570 -0.1896 -0.0699 -0.4268
58739SOL    HW186147  10.607   7.508   1.568 -0.0930 -0.1289  1.4733
58739SOL    HW286148  10.520   7.385   1.551  0.3954 -0.4692  1.4349
58740SOL     OW86149   4.883  11.659   3.787  0.3287  0.4659  0.2684
58740SOL    HW186150   4.947  11.706   3.841 -0.7383  0.5213  1.5517
58740SOL    HW286151   4.867  11.717   3.712  0.3451  1.3438  0.9314
58741SOL     OW86152   0.546   1.404  10.128  0.1310 -0.7484 -0.6841
58741SOL    HW186153   0.496   1.328  10.098  2.4631 -2.2544 -1.0046
58741SOL    HW286154   0.623   1.406  10.070  0.7309  1.1397  0.1128
58742SOL     OW86155   0.260   9.937   0.569 -0.3079 -0.3819  0.2700
58742SOL    HW186156   0.231  10.015   0.615 -2.1945 -0.2117 -1.0601
58742SOL    HW286157   0.195   9.870   0.593 -0.5740 -0.6339 -1.0636
58743SOL     OW86158  10.947  12.343  11.392  0.3642 -0.4519  0.0119
58743SOL    HW186159  10.977  12.389  11.470 -1.1866 -0.1982  0.4888
58743SOL    HW286160  10.867  12.299  11.419  0.1943 -0.9620 -1.2514
58744SOL     OW86161  12.923  10.250   2.054  0.0534 -0.0870 -0.5740
58744SOL    HW186162  12.947  10.275   2.143 -1.6163 -1.2956  0.2576
58744SOL    HW286163  12.957  10.161   2.044  1.7033  0.6103 -1.8009
58745SOL     OW86164   5.280  12.959  13.236  0.2986 -0.4399 -0.2252
58745SOL    HW186165   5.317  12.886  13.284 -1.7278 -1.1572  0.3647
58745SOL    HW286166   5.230  13.008  13.302 -1.1893 -0.5053 -1.2666
58746SOL     OW86167   9.751   8.368   0.223  0.2809 -0.3112 -0.5054
58746SOL    HW186168   9.816   8.435   0.203 -0.0485  0.0653 -0.3217
58746SOL    HW286169   9.733   8.326   0.139  1.9001 -1.4643 -0.3217
58747SOL     OW86170   7.689   5.157   2.365  0.3108 -0.1115  0.3063
58747SOL    HW186171   7.607   5.124   2.401 -1.7923  1.9818 -2.1521
58747SOL    HW286172   7.711   5.096   2.295  0.4042 -0.2325  0.4412
58748SOL     OW86173   3.482   4.150   5.465  0.0158 -0.1205 -0.5102
58748SOL    HW186174   3.416   4.081   5.461  0.3616 -0.4359 -0.7854
58748SOL    HW286175   3.462   4.197   5.546 -0.9441  0.1916 -0.9163
58749SOL     OW86176   7.426   2.783   3.215 -0.0036 -0.2706 -0.7120
58749SOL    HW186177   7.400   2.780   3.123  1.6641  1.4770 -1.3194
58749SOL    HW286178   7.415   2.874   3.241  0.7176 -0.4845  0.4458
58750SOL     OW86179  12.353  11.568  12.937  0.3358 -0.0951 -0.2859
58750SOL    HW186180  12.406  11.608  13.005  0.6181  0.9443 -1.1042
58750SOL    HW286181  12.390  11.600  12.855 -1.2241  0.2362 -0.8857
58751SOL     OW86182   9.374   7.017   5.590 -0.3647 -0.3575  0.2340
58751SOL    HW186183   9.371   7.112   5.600 -1.2283 -0.2515 -0.7801
58751SOL    HW286184   9.399   6.984   5.676  0.1102  0.7925  0.5542
58752SOL     OW86185   0.863   9.841   8.895  0.3115  0.2395 -0.2635
58752SOL    HW186186   0.918   9.763   8.890 -1.6376 -1.2208  0.1608
58752SOL    HW286187   0.882   9.889   8.814  1.9322 -0.3663 -0.2761
58753SOL     OW86188   0.182   4.712   6.543 -0.0928 -0.4349 -0.5659
58753SOL    HW186189   0.164   4.658   6.466 -2.1648  0.6046 -0.9014
58753SOL    HW286190   0.222   4.792   6.509  0.6652 -0.7217 -0.3545
58754SOL     OW86191   3.545   9.989   4.441 -0.8555  0.0815  0.0289
58754SOL    HW186192   3.575   9.950   4.523 -0.4189  0.7459  0.1872
58754SOL    HW286193   3.624  10.022   4.399 -0.9742 -0.8563 -1.0036
58755SOL     OW86194   7.755   9.613  11.173  0.3956 -0.1676  0.1826
58755SOL    HW186195   7.804   9.654  11.244  1.3699 -0.8764 -0.0680
58755SOL    HW286196   7.789   9.652  11.093 -2.1945  2.2500  0.1144
58756SOL     OW86197  11.183   2.556  10.530  0.0040  0.0990 -0.4169
58756SOL    HW186198  11.257   2.512  10.488 -1.1833 -1.1718 -1.2574
58756SOL    HW286199  11.117   2.562  10.462 -1.2315 -0.1673  0.7216
58757SOL     OW86200  12.882   2.500  11.087  0.2133  0.4554  0.1554
58757SOL    HW186201  12.967   2.472  11.119 -0.0429 -1.2907 -0.5342
58757SOL    HW286202  12.857   2.573  11.143  0.6177 -1.2050  2.6886
58758SOL     OW86203   9.558  10.170   5.125  0.3636 -0.6999  0.6427
58758SOL    HW186204   9.515  10.092   5.090 -0.5293 -0.5652  1.4144
58758SOL    HW286205   9.640  10.137   5.162  0.0546 -1.2483  0.8495
58759SOL     OW86206   9.536   9.735  12.682 -0.0109 -0.6981 -0.3908
58759SOL    HW186207   9.630   9.741  12.698  0.0654  1.8467 -1.3116
58759SOL    HW286208   9.528   9.729  12.587 -0.7904 -0.8401 -0.3219
58760SOL     OW86209  12.419   4.979  12.159  0.0594 -0.2533 -0.1948
58760SOL    HW186210  12.473   4.903  12.137  0.2540 -0.4583  0.9595
58760SOL    HW286211  12.482   5.047  12.182 -0.1050  0.3561 -1.4506
58761SOL     OW86212  12.670   9.035   0.250 -0.5968  0.8550 -0.1564
58761SOL    HW186213  12.619   9.057   0.172 -0.4982  0.6224 -0.2871
58761SOL    HW286214  12.697   8.944   0.237 -1.2740  0.5493  0.5347
58762SOL     OW86215   0.027   8.434   3.583  0.5744 -0.4102  0.0217
58762SOL    HW186216   0.097   8.397   3.637 -1.0268 -0.6977  2.0066
58762SOL    HW286217   0.003   8.515   3.628 -0.6738 -0.5456 -0.3656
58763SOL     OW86218   4.278   6.586   9.784 -0.3425 -0.0770 -0.4512
58763SOL    HW186219   4.190   6.617   9.760 -0.8631  0.2538  1.7085
58763SOL    HW286220   4.269   6.557   9.874  1.9052  0.4738  0.0015
58764SOL     OW86221   4.159   6.025  11.115 -0.2508 -0.0172  0.5234
58764SOL    HW186222   4.176   5.942  11.160 -1.5792 -0.7365 -0.2463
58764SOL    HW286223   4.238   6.040  11.062  0.6017 -0.0284  1.7541
58765SOL     OW86224   2.689   3.484   7.359  0.3575  0.2968 -0.6925
58765SOL    HW186225   2.778   3.499   7.391 -0.2463 -1.9857  2.6051
58765SOL    HW286226   2.683   3.389   7.348 -2.3467 -0.0322  2.0175
58766SOL     OW86227   4.193   0.460   6.628 -0.4193 -0.6258 -0.3787
58766SOL    HW186228   4.259   0.393   6.614  0.2850 -0.0747  0.1947
58766SOL    HW286229   4.214   0.497   6.714 -0.4914  0.6494 -0.8758
58767SOL     OW86230   4.438   9.932   3.264  0.3533  0.3497  0.4879
58767SOL    HW186231   4.385  10.003   3.228 -0.3483 -1.1254 -1.5827
58767SOL    HW286232   4.374   9.868   3.296  0.7929 -1.1975 -1.5219
58768SOL     OW86233   3.233   3.632  10.162 -0.1159  0.2145  0.0117
58768SOL    HW186234   3.323   3.638  10.193 -0.1865 -0.1513  0.3003
58768SOL    HW286235   3.221   3.539  10.142 -0.2281  0.3699 -0.6426
58769SOL     OW86236   2.663  11.844   1.751  0.2935 -0.1241  0.6736
58769SOL    HW186237   2.701  11.785   1.686  2.7449 -0.2886  2.0992
58769SOL    HW286238   2.621  11.913   1.700 -1.3790 -2.2796 -1.0265
58770SOL     OW86239  13.141   7.634   0.599 -0.2017  0.0276  0.0963
58770SOL    HW186240  13.152   7.593   0.685  0.1825 -0.5230 -0.2087
58770SOL    HW286241  13.055   7.675   0.602 -0.8995 -1.4008  0.1751
58771SOL     OW86242   2.397   7.133   9.411  0.1058  1.0607 -0.5003
58771SOL    HW186243   2.445   7.061   9.453  0.6210  1.5395 -0.2483
58771SOL    HW286244   2.307   7.123   9.442  0.0596  0.2205 -0.8801
58772SOL     OW86245   5.092   0.503   0.100  0.2776 -0.2956  0.3296
58772SOL    HW186246   5.088   0.408   0.106  0.7130 -0.2252  2.5021
58772SOL    HW286247   5.171   0.521   0.050 -1.2891 -1.0401 -2.6637
58773SOL     OW86248   4.291   5.413   5.169 -0.5983 -0.0378  0.1687
58773SOL    HW186249   4.242   5.352   5.224  2.4334 -2.9469 -0.0183
58773SOL    HW286250   4.248   5.410   5.084 -2.6056  0.9850  1.0755
58774SOL     OW86251  11.397   6.473   3.676  0.1689  0.7023 -1.1553
58774SOL    HW186252  11.330   6.425   3.627  0.2599 -0.1486 -0.4599
58774SOL    HW286253  11.470   6.411   3.684 -0.5024  0.1331  1.5861
58775SOL     OW86254   3.539   0.172   0.878 -0.3760 -0.5412 -0.2792
58775SOL    HW186255   3.537   0.124   0.795 -1.2184 -0.0960 -0.5310
58775SOL    HW286256   3.616   0.139   0.923  0.1982 -0.6597 -1.3186
58776SOL     OW86257   1.977   9.564   1.079  0.3580  0.5523 -0.1905
58776SOL    HW186258   1.952   9.482   1.036  0.1964  0.1172  0.7088
58776SOL    HW286259   1.896   9.616   1.080  0.0871  0.1311  0.5285
58777SOL     OW86260   6.651  12.842   9.070  0.5293 -0.4735  0.3059
58777SOL    HW186261   6.666  12.833   8.976 -0.2546 -0.1369  0.1430
58777SOL    HW286262   6.694  12.766   9.109  2.4847  0.3270 -0.1434
58778SOL     OW86263   6.168   7.908   9.677 -0.1072  0.3039  0.1222
58778SOL    HW186264   6.249   7.951   9.651 -0.7224  2.6795  1.7871
58778SOL    HW286265   6.104   7.938   9.613  0.1327 -0.9032 -0.7024
58779SOL     OW86266   0.839   9.477   3.786  0.5498  0.0034  0.3296
58779SOL    HW186267   0.862   9.468   3.693  2.2942  0.4748  0.6752
58779SOL    HW286268   0.889   9.553   3.815 -1.5334  1.1167  1.2144
58780SOL     OW86269   2.300   5.495   1.391  0.3933  0.1498  0.0545
58780SOL    HW186270   2.295   5.452   1.477 -0.8109 -2.2759 -1.1398
58780SOL    HW286271   2.224   5.553   1.388 -0.6751 -1.2102 -0.0607
58781SOL     OW86272   8.870  11.981   3.729 -0.2924  0.3872 -0.1055
58781SOL    HW186273   8.816  12.018   3.799  0.7678  1.0595  0.3869
58781SOL    HW286274   8.900  12.057   3.680  0.3773  0.0353 -0.2436
58782SOL     OW86275  11.771   2.624   5.570 -0.6238 -0.1618 -0.2232
58782SOL    HW186276  11.858   2.611   5.532 -0.9125 -0.7962 -0.6708
58782SOL    HW286277  11.716   2.647   5.495 -0.8985 -0.0216  0.0217
58783SOL     OW86278   1.637   6.375   4.103  0.0629 -0.7005 -0.1346
58783SOL    HW186279   1.648   6.283   4.126  0.1221 -1.1544 -1.8406
58783SOL    HW286280   1.672   6.423   4.179 -1.4475 -2.0223  1.4903
58784SOL     OW86281   9.700   8.363   6.948  0.4391  0.0976  0.4607
58784SOL    HW186282   9.737   8.409   7.023 -0.7720  1.3900  0.3004
58784SOL    HW286283   9.607   8.388   6.948  0.2473 -0.5332 -0.9963
58785SOL     OW86284  11.247   7.824   5.426  0.3296  0.0252 -0.1488
58785SOL    HW186285  11.253   7.918   5.441  0.0229  0.0911 -0.4209
58785SOL    HW286286  11.173   7.814   5.367 -0.3827 -0.4915  0.7997
58786SOL     OW86287  12.605   2.213   4.455 -0.2462  0.3513 -0.4450
58786SOL    HW186288  12.529   2.257   4.495 -0.0608 -0.9751  1.5013
58786SOL    HW286289  12.670   2.209   4.525  0.6179 -0.8709 -1.2761
58787SOL     OW86290   4.216   6.197   9.107 -0.2952  0.6481 -0.4100
58787SOL    HW186291   4.128   6.163   9.093 -1.7381  3.8681  0.1816
58787SOL    HW286292   4.236   6.173   9.198 -0.3887 -0.3342 -0.6306
58788SOL     OW86293   3.272   6.957   8.429  0.3304 -0.1904 -0.4650
58788SOL    HW186294   3.341   7.024   8.422  0.2570 -0.1321 -0.6463
58788SOL    HW286295   3.192   7.007   8.445  0.3966 -0.2873  0.1702
58789SOL     OW86296   5.974   2.281   3.803 -0.3458  0.3078  0.3142
58789SOL    HW186297   6.001   2.372   3.811  0.2181  0.6564 -3.4943
58789SOL    HW286298   6.053   2.236   3.771 -0.6288 -1.5533  2.0521
58790SOL     OW86299   0.316   2.214   0.221 -0.0148  0.3958  0.1570
58790SOL    HW186300   0.388   2.159   0.254  0.1546 -1.6349 -3.1409
58790SOL    HW286301   0.337   2.301   0.253  3.5941 -0.2188 -0.0169
58791SOL     OW86302   2.891  10.056   5.892 -0.2279 -0.4044 -0.4791
58791SOL    HW186303   2.953  10.079   5.962 -0.1997 -1.9186  0.0382
58791SOL    HW286304   2.940   9.997   5.835 -0.7113 -0.3452 -0.9655
58792SOL     OW86305  12.429   7.748   7.358  0.0901 -0.1714  0.0038
58792SOL    HW186306  12.425   7.712   7.269 -2.8107 -1.1243  0.4020
58792SOL    HW286307  12.494   7.818   7.353 -1.0089  0.7973 -3.2922
58793SOL     OW86308  11.300  11.452  11.147  0.1837  0.1750  0.0049
58793SOL    HW186309  11.284  11.367  11.107  0.8274  0.4829 -0.9484
58793SOL    HW286310  11.392  11.471  11.126 -0.0787  1.3001 -0.1798
58794SOL     OW86311  11.003  12.463   5.822 -0.2521  0.6015 -0.7363
58794SOL    HW186312  11.035  12.373   5.823 -2.5927 -0.2902 -0.2539
58794SOL    HW286313  10.918  12.458   5.778 -1.0900  2.3203  0.5475
58795SOL     OW86314   3.664  12.538   7.878 -0.0887  0.1133  0.3318
58795SOL    HW186315   3.578  12.540   7.920 -0.5025 -0.7130 -0.4392
58795SOL    HW286316   3.653  12.478   7.805  1.3109 -0.4466  0.5566
58796SOL     OW86317   3.990   9.478   3.143  0.6044 -0.4407  0.2084
58796SOL    HW186318   3.998   9.384   3.131  0.8734 -0.4901  0.7555
58796SOL    HW286319   3.983   9.513   3.054  1.3548 -0.8989 -0.0362
58797SOL     OW86320   4.822   0.997   9.781  0.1541 -0.0585  0.0171
58797SOL    HW186321   4.801   0.909   9.749 -1.8351 -0.0325  1.0875
58797SOL    HW286322   4.900   0.985   9.835 -0.1352 -1.1892  0.2069
58798SOL     OW86323   7.808   7.365  11.150  0.0357  0.2618  0.2872
58798SOL    HW186324   7.896   7.330  11.164  0.1389  0.8388  1.1181
58798SOL    HW286325   7.794   7.357  11.055  0.0407 -2.0272  0.4194
58799SOL     OW86326  12.665  11.505  12.157 -0.1018  0.2569  0.4124
58799SOL    HW186327  12.699  11.556  12.083 -0.8130 -1.5835 -1.2766
58799SOL    HW286328  12.629  11.570  12.217 -0.2800  1.7851 -1.2781
58800SOL     OW86329   6.596  12.681   5.777 -0.2658 -0.3674 -0.2735
58800SOL    HW186330   6.595  12.774   5.801  0.1798 -0.4549  0.0843
58800SOL    HW286331   6.611  12.635   5.859  0.5411 -0.7018 -0.6002
58801SOL     OW86332   0.751  11.968   0.167  0.1761 -0.3354  0.5627
58801SOL    HW186333   0.808  12.009   0.103 -2.3938  2.6378 -0.0662
58801SOL    HW286334   0.786  11.879   0.177  1.5044 -0.5820 -3.9824
58802SOL     OW86335   2.979   0.954   2.327  0.5113 -0.7204  0.0033
58802SOL    HW186336   2.926   0.909   2.261  1.2864 -0.5669 -0.7474
58802SOL    HW286337   3.063   0.971   2.283 -0.1138  2.5453 -0.2179
58803SOL     OW86338   4.659  11.917   2.616  0.5007  0.2787 -0.8469
58803SOL    HW186339   4.565  11.902   2.612  0.3896  0.2434  0.9873
58803SOL    HW286340   4.694  11.871   2.540 -0.5798 -2.9066  0.4386
58804SOL     OW86341   3.796  10.139   3.411 -0.1215  0.1773 -0.2313
58804SOL    HW186342   3.821  10.048   3.399 -1.0389 -0.1858  0.4846
58804SOL    HW286343   3.779  10.147   3.505  0.3101  1.1820 -0.2240
58805SOL     OW86344   8.311   5.333  13.177 -0.2109 -0.2933  0.2042
58805SOL    HW186345   8.250   5.267  13.145  0.0125  0.4589 -1.9419
58805SOL    HW286346   8.309   5.323  13.272 -3.6837 -0.2782  0.2512
58806SOL     OW86347   8.938   8.516   9.703 -0.3962  0.2242 -0.3130
58806SOL    HW186348   9.020   8.491   9.746 -0.0635  1.3751 -0.2423
58806SOL    HW286349   8.934   8.460   9.625 -0.0262 -0.5050  0.1819
58807SOL     OW86350  10.770   1.333   3.169  0.4310 -0.1588  0.4420
58807SOL    HW186351  10.790   1.389   3.244 -0.0245 -0.9508  1.1645
58807SOL    HW286352  10.795   1.245   3.197 -1.5054 -0.7747  0.4000
58808SOL     OW86353   9.690   9.647   7.364  0.2248 -0.2954 -0.2053
58808SOL    HW186354   9.684   9.641   7.459  0.7340 -1.3078 -0.2203
58808SOL    HW286355   9.625   9.585   7.332 -0.4269  0.5374 -0.5382
58809SOL     OW86356  10.793  11.560   8.821  0.0300  0.1173 -0.0094
58809SOL    HW186357  10.746  11.624   8.875  0.0874 -0.8265  1.2024
58809SOL    HW286358  10.735  11.484   8.818  0.2773 -0.0462 -0.8359
58810SOL     OW86359   8.908   2.879   1.237 -0.2999  0.6832  0.1123
58810SOL    HW186360   8.844   2.862   1.306 -0.5455  0.4712 -0.1654
58810SOL    HW286361   8.919   2.795   1.193  1.4692  0.2962  1.2406
58811SOL     OW86362   0.756   1.940   1.402 -0.5429  0.1591  0.2590
58811SOL    HW186363   0.757   1.984   1.488 -1.3355  1.9068 -0.5727
58811SOL    HW286364   0.706   2.000   1.346  0.0316 -0.9196 -1.4519
58812SOL     OW86365   4.012  12.782   2.453  0.0729  0.0916 -0.2626
58812SOL    HW186366   4.100  12.766   2.488 -0.0141 -1.7433 -0.7855
58812SOL    HW286367   4.028  12.822   2.368  0.2871  4.2784  1.5025
58813SOL     OW86368  12.221   5.539   7.818  0.1259 -0.6960  0.1110
58813SOL    HW186369  12.169   5.616   7.796  0.7316 -0.5603 -0.9372
58813SOL    HW286370  12.161   5.465   7.809 -0.3171 -0.4065  0.6049
58814SOL     OW86371  10.549  12.089   7.252  0.1743 -0.4901  0.1600
58814SOL    HW186372  10.621  12.063   7.309  0.0180 -0.7894  0.2224
58814SOL    HW286373  10.580  12.068   7.164 -0.0378 -1.1093  0.2256
58815SOL     OW86374  11.855   7.583  12.190  0.4047 -0.0793  0.1450
58815SOL    HW186375  11.784   7.586  12.126 -1.5560 -0.3042  2.1873
58815SOL    HW286376  11.858   7.671  12.227 -0.8156 -0.7557  2.0286
58816SOL     OW86377   0.396  12.791   1.416 -0.3899  0.1071  0.6476
58816SOL    HW186378   0.457  12.726   1.383 -0.3106  0.3993  0.2176
58816SOL    HW286379   0.444  12.835   1.487  0.3212  1.0710 -0.3875
58817SOL     OW86380   0.578   6.910  12.959  0.9136 -0.3138 -0.6591
58817SOL    HW186381   0.490   6.921  12.924  1.3647 -1.2989 -2.1952
58817SOL    HW286382   0.571   6.938  13.051 -0.0218  3.6074 -1.7603
58818SOL     OW86383  11.987  12.436   1.272 -0.2624 -0.4099  0.1460
58818SOL    HW186384  11.980  12.519   1.319 -0.7064 -1.2054  1.5335
58818SOL    HW286385  11.930  12.447   1.196 -2.3523 -0.2917  1.6488
58819SOL     OW86386   0.274   4.928   4.328  0.5619  0.1696 -0.0278
58819SOL    HW186387   0.339   4.901   4.263  0.9201 -0.1510  0.4560
58819SOL    HW286388   0.190   4.897   4.293  0.5955  1.0075 -0.8861
58820SOL     OW86389   1.977   9.431   6.406 -0.4330 -0.7351  0.3941
58820SOL    HW186390   2.041   9.406   6.473 -0.9967 -2.5204  0.3350
58820SOL    HW286391   1.973   9.355   6.348 -1.6971 -0.1615 -0.3031
58821SOL     OW86392   9.852   7.573   6.995  0.2580  0.6109 -0.3930
58821SOL    HW186393   9.865   7.491   7.043  1.2435 -0.2191 -1.9838
58821SOL    HW286394   9.870   7.641   7.059  0.4319 -0.4280  0.7114
58822SOL     OW86395   2.456   0.724   4.873  0.3542  0.0811  0.0754
58822SOL    HW186396   2.434   0.673   4.796 -0.2613  0.3012  0.0968
58822SOL    HW286397   2.539   0.688   4.903 -0.3613 -1.3310  0.4498
58823SOL     OW86398  11.126   7.266   0.152  0.3310 -0.0099  0.1120
58823SOL    HW186399  11.156   7.333   0.091 -0.9010 -1.2924 -2.0100
58823SOL    HW286400  11.171   7.287   0.234  0.7768  2.7597 -0.7350
58824SOL     OW86401  12.634   0.100  12.648  0.0530  0.2775  0.4450
58824SOL    HW186402  12.574   0.173  12.665 -0.1047  0.0050  1.0718
58824SOL    HW286403  12.579   0.022  12.653  0.6301 -0.0564  2.0121
58825SOL     OW86404  11.124   5.062   6.763 -0.4894 -0.4025  0.1041
58825SOL    HW186405  11.180   5.069   6.840 -1.9251 -0.7481  1.2194
58825SOL    HW286406  11.174   5.105   6.693  0.2731  1.1917  1.5383
58826SOL     OW86407  10.425   6.705   0.281 -0.0779 -0.5268 -0.3087
58826SOL    HW186408  10.342   6.751   0.293  1.1402  1.7337 -0.0256
58826SOL    HW286409  10.439   6.658   0.364  0.6668  2.1640  1.2084
58827SOL     OW86410  11.251   1.116   1.970 -0.5023 -0.0173  0.0773
58827SOL    HW186411  11.308   1.056   2.017  0.1627  0.6983  0.2069
58827SOL    HW286412  11.164   1.100   2.006 -0.1432 -0.0919  0.9255
58828SOL     OW86413  11.764   5.312  10.059 -0.3605 -0.2020 -0.0970
58828SOL    HW186414  11.797   5.228  10.091 -2.5263 -0.3485  2.0342
58828SOL    HW286415  11.701   5.289   9.991 -1.2117 -0.3591  0.7288
58829SOL     OW86416   8.312   1.950   3.080  0.3475  0.1436  0.0523
58829SOL    HW186417   8.356   1.897   3.014 -0.1563  1.5058 -1.4637
58829SOL    HW286418   8.294   1.890   3.152  0.0775 -1.6526 -1.4476
58830SOL     OW86419   3.594   0.971   3.009 -0.1669 -0.1747  0.2593
58830SOL    HW186420   3.508   0.999   3.040  0.0991  1.1309 -0.1263
58830SOL    HW286421   3.654   0.993   3.080 -0.1051 -0.9291  0.4582
58831SOL     OW86422   4.286   3.628   1.045  0.1718 -0.4653 -0.0133
58831SOL    HW186423   4.247   3.579   0.972  0.9449 -0.5312 -0.3897
58831SOL    HW286424   4.239   3.711   1.047  0.3498 -0.3398 -0.7869
58832SOL     OW86425   4.671   1.512   1.812  0.0718  0.3105 -0.5916
58832SOL    HW186426   4.726   1.453   1.864 -0.6684 -1.4224 -1.6812
58832SOL    HW286427   4.581   1.483   1.830 -0.4086  1.9879 -0.1470
58833SOL     OW86428  10.488  12.822   4.416  0.1771  0.4830 -1.0074
58833SOL    HW186429  10.493  12.918   4.423 -0.0893  0.4643 -0.5064
58833SOL    HW286430  10.475  12.806   4.323  1.5270  0.8735 -1.2875
58834SOL     OW86431   6.754  10.073   3.845  0.0657  0.0224  0.5574
58834SOL    HW186432   6.747  10.140   3.777 -0.3636  1.6326  2.1274
58834SOL    HW286433   6.807  10.004   3.805  0.0803  1.0519 -1.2919
58835SOL     OW86434   5.646   3.797  11.729  0.5803 -0.3656 -0.6253
58835SOL    HW186435   5.660   3.703  11.744  0.0436 -0.3955 -0.2739
58835SOL    HW286436   5.639   3.806  11.634 -0.3800 -0.8313 -0.6042
58836SOL     OW86437   9.616   4.236  12.693  0.2150 -0.4916  0.2448
58836SOL    HW186438   9.531   4.278  12.681  0.9213  1.6385  2.2162
58836SOL    HW286439   9.608   4.187  12.775 -0.0254 -2.9762 -1.1362
58837SOL     OW86440   2.889   9.538   5.022  0.3596 -0.1080  0.5448
58837SOL    HW186441   2.841   9.618   5.001  0.0038  0.4027  2.9972
58837SOL    HW286442   2.970   9.569   5.064  0.4539 -1.0208  1.0591
58838SOL     OW86443   3.321  10.667   9.835  0.3233  0.3292 -0.4873
58838SOL    HW186444   3.347  10.737   9.895  1.7297  0.7946 -1.5730
58838SOL    HW286445   3.232  10.645   9.861  0.5965  1.0736  1.2278
58839SOL     OW86446  12.422  10.884   2.879 -0.0232  0.4008  0.0110
58839SOL    HW186447  12.370  10.804   2.886  0.2398  0.1523 -0.8889
58839SOL    HW286448  12.388  10.940   2.949 -1.8653  0.4456 -0.8720
58840SOL     OW86449  12.920   1.450   6.860 -0.1297 -0.1042  0.0534
58840SOL    HW186450  13.007   1.482   6.835 -0.7843  0.4956 -1.5834
58840SOL    HW286451  12.859   1.509   6.816 -1.4188  0.2841  2.1649
58841SOL     OW86452  11.609  12.854   9.905 -0.0122  0.0190 -0.2193
58841SOL    HW186453  11.703  12.872   9.905 -0.0827  0.4750  1.1378
58841SOL    HW286454  11.580  12.879   9.992 -0.6824 -3.7556  0.8122
58842SOL     OW86455  10.932   7.356   0.761 -0.4270  0.0981 -0.1623
58842SOL    HW186456  10.969   7.332   0.846  0.7891 -2.0179 -1.2331
58842SOL    HW286457  10.866   7.289   0.743 -0.9179  0.7207 -0.7485
58843SOL     OW86458   2.692   8.425   2.768 -0.3312  0.2288  0.5356
58843SOL    HW186459   2.696   8.508   2.815  1.6938  0.6271 -0.2514
58843SOL    HW286460   2.782   8.394   2.765 -1.0608 -2.2120  1.0944
58844SOL     OW86461   5.910  12.120   3.182  0.3219  0.1998 -0.7668
58844SOL    HW186462   5.952  12.088   3.102 -0.1810  1.3114 -1.5192
58844SOL    HW286463   5.834  12.170   3.150  0.9818  1.9730  0.2970
58845SOL     OW86464  10.927   8.977   3.761 -0.0592  1.2244 -0.6010
58845SOL    HW186465  10.870   8.990   3.836  0.4624 -0.1440  0.0742
58845SOL    HW286466  10.903   9.046   3.699 -1.6080  1.3836  0.1488
58846SOL     OW86467   0.572   4.616   0.710 -0.1123 -0.1516 -0.2022
58846SOL    HW186468   0.634   4.597   0.781 -0.8311 -0.1918  0.4218
58846SOL    HW286469   0.557   4.710   0.715 -1.5439 -0.4053  0.8719
58847SOL     OW86470   0.268   0.885   3.478  0.2464 -0.1000 -0.3128
58847SOL    HW186471   0.307   0.929   3.553 -1.3546 -2.5150  2.1167
58847SOL    HW286472   0.342   0.866   3.420  1.5296  1.7976  0.5833
58848SOL     OW86473  10.854   3.125   3.622  0.0090  0.0279 -0.7923
58848SOL    HW186474  10.767   3.149   3.588 -0.8244 -0.4273  0.8940
58848SOL    HW286475  10.835   3.062   3.692  1.6866  0.2226 -0.1327
58849SOL     OW86476  10.190   3.921  10.536 -0.4924  0.2614  0.2194
58849SOL    HW186477  10.227   4.004  10.565 -0.1428 -0.0033  0.5332
58849SOL    HW286478  10.098   3.942  10.516  0.0189  1.1205 -1.4489
58850SOL     OW86479   1.162   9.088   8.312  0.4292 -0.0670  0.8297
58850SOL    HW186480   1.254   9.088   8.284  0.0904  1.5828 -0.4105
58850SOL    HW286481   1.135   8.996   8.304  1.1538 -0.1195 -1.6692
58851SOL     OW86482   5.487   5.984  11.238 -0.4750  0.1458  0.4816
58851SOL    HW186483   5.544   5.921  11.195 -0.1570  1.7892 -1.6509
58851SOL    HW286484   5.407   5.985  11.185 -0.0880  2.1971 -0.1418
58852SOL     OW86485   5.579  13.128   9.663 -0.7250 -0.4140  0.2681
58852SOL    HW186486   5.635  13.176   9.723  0.6418  1.6457 -2.4192
58852SOL    HW286487   5.630  13.050   9.640 -0.4746 -0.3054  0.4521
58853SOL     OW86488   5.459   9.583   5.832  0.5729 -0.3045 -0.3914
58853SOL    HW186489   5.411   9.637   5.894  0.8660 -0.9754  0.4373
58853SOL    HW286490   5.543   9.627   5.821 -0.0427  0.6389 -1.5120
58854SOL     OW86491  10.965   5.737  11.239  0.1751  0.0350  0.2452
58854SOL    HW186492  11.037   5.754  11.300  1.2347  1.1430 -1.2302
58854SOL    HW286493  11.002   5.676  11.174 -0.0918  0.8160 -0.6727
58855SOL     OW86494   2.020   3.205  10.892 -0.0229 -0.4479  0.3708
58855SOL    HW186495   2.044   3.268  10.960 -0.8759 -1.1200  1.3241
58855SOL    HW286496   1.938   3.166  10.923 -1.0536  0.0522 -1.6062
58856SOL     OW86497   1.044   0.860   7.777 -0.0670  0.4420  0.6321
58856SOL    HW186498   1.066   0.772   7.807  0.4277  0.0088 -0.8937
58856SOL    HW286499   0.951   0.855   7.754  0.2909 -0.1098 -0.7856
58857SOL     OW86500   0.435   9.934   9.692  0.0418 -0.4602  0.2394
58857SOL    HW186501   0.368   9.988   9.651 -0.9181 -0.8039  1.3025
58857SOL    HW286502   0.453   9.866   9.628 -0.4750 -0.2457 -0.1443
58858SOL     OW86503   3.743   4.943   4.365 -0.3797  0.3395  0.1576
58858SOL    HW186504   3.730   4.868   4.307 -1.1277  0.5150  0.0851
58858SOL    HW286505   3.838   4.955   4.369 -0.0560 -2.0948  2.0795
58859SOL     OW86506   8.593   3.323   4.249 -0.3123 -0.0121  0.1612
58859SOL    HW186507   8.680   3.328   4.288 -0.7807  0.5578  1.1724
58859SOL    HW286508   8.580   3.231   4.229  1.1843  0.0761 -1.5953
58860SOL     OW86509   3.678   9.255   3.773  0.3203 -0.1699  0.1968
58860SOL    HW186510   3.665   9.185   3.708  1.1138  1.8194 -2.3017
58860SOL    HW286511   3.762   9.235   3.813  0.4499 -0.7559 -0.3396
58861SOL     OW86512   1.289  11.115   9.673 -0.4942 -0.2207 -0.3942
58861SOL    HW186513   1.213  11.083   9.624 -2.7972  2.1722  1.3482
58861SOL    HW286514   1.255  11.186   9.727  3.6374  3.4082 -1.9833
58862SOL     OW86515   8.142  10.377   4.197 -0.5155  0.2518  0.0703
58862SOL    HW186516   8.095  10.331   4.127 -1.5209  0.2390  0.7223
58862SOL    HW286517   8.205  10.314   4.230 -2.0641 -0.8309  1.1352
58863SOL     OW86518   5.890   8.637  11.561 -0.2448 -0.2326 -0.4526
58863SOL    HW186519   5.980   8.608  11.551 -0.8789 -1.9383 -1.6756
58863SOL    HW286520   5.839   8.556  11.564 -1.6590  0.6501  1.3559
58864SOL     OW86521   1.351  12.226  10.512  0.0144 -0.0642 -0.1266
58864SOL    HW186522   1.330  12.196  10.424 -1.0627 -1.1803  0.4730
58864SOL    HW286523   1.272  12.271  10.541  0.6649  1.0443 -0.0237
58865SOL     OW86524   5.700   4.647   7.709 -0.0453  0.1453  0.0029
58865SOL    HW186525   5.612   4.625   7.738  0.2763 -0.9518  0.1723
58865SOL    HW286526   5.699   4.629   7.615  0.1253 -0.2830  0.0833
58866SOL     OW86527   6.915   9.019   5.232  0.8686 -0.3191  0.0721
58866SOL    HW186528   6.840   8.996   5.177  1.4034 -2.6739  0.2471
58866SOL    HW286529   6.884   9.005   5.322  1.0691  0.1537  0.2172
58867SOL     OW86530   0.115  10.116   9.528  0.1059  0.2076 -0.6597
58867SOL    HW186531   0.181  10.183   9.509  0.2858  0.2922  0.2623
58867SOL    HW286532   0.048  10.162   9.577 -0.2852 -0.0530 -0.9484
58868SOL     OW86533  10.576  10.144   5.002 -0.8193 -0.4317  0.6716
58868SOL    HW186534  10.568  10.079   4.932 -2.3847 -0.8111  1.1770
58868SOL    HW286535  10.652  10.197   4.976 -0.6971 -1.2397 -0.7453
58869SOL     OW86536   4.722   5.509   7.052 -0.2327 -0.7129 -0.1708
58869SOL    HW186537   4.668   5.445   7.098 -0.6889 -1.1230 -1.2371
58869SOL    HW286538   4.712   5.590   7.102 -0.5000 -1.2010  0.5862
58870SOL     OW86539   7.472   4.654   9.565 -0.1779  0.3911 -0.2819
58870SOL    HW186540   7.565   4.658   9.543  0.5438 -2.2707  1.7592
58870SOL    HW286541   7.468   4.680   9.657 -1.7526  2.0811 -0.7614
58871SOL     OW86542   7.953  10.300  13.068 -0.1101  0.0778  0.0495
58871SOL    HW186543   8.040  10.328  13.041  0.6494 -1.9068  0.2837
58871SOL    HW286544   7.968  10.240  13.141 -1.6241 -0.7980 -0.3009
58872SOL     OW86545  12.466   9.993   8.614  0.0238 -0.1219 -0.0528
58872SOL    HW186546  12.396  10.050   8.645 -1.0491 -0.3500 -1.8986
58872SOL    HW286547  12.525  10.051   8.565  0.4266 -0.1407  0.4099
58873SOL     OW86548   8.486   9.610   0.451  0.4688 -0.1499  0.3628
58873SOL    HW186549   8.514   9.572   0.368 -1.3293 -4.2080  1.4026
58873SOL    HW286550   8.559   9.593   0.511  0.8563  0.7856  0.1753
58874SOL     OW86551   8.145  11.286   0.148  0.2176  0.5982  0.0422
58874SOL    HW186552   8.222  11.245   0.110 -0.3181 -0.0520 -0.3605
58874SOL    HW286553   8.081  11.289   0.077 -0.6517 -0.2577  0.7652
58875SOL     OW86554   2.677  10.538   6.848  0.3163 -0.4956  0.0067
58875SOL    HW186555   2.647  10.612   6.900  0.2467  0.2310 -1.0248
58875SOL    HW286556   2.770  10.530   6.868  0.2580 -0.3233  0.3484
58876SOL     OW86557   0.838  10.004  12.628 -0.4396  0.1941  0.4116
58876SOL    HW186558   0.746   9.983  12.615 -0.0921 -0.2453 -1.7408
58876SOL    HW286559   0.875  10.008  12.539  1.7867 -0.4520  1.2248
58877SOL     OW86560   7.105   2.255   4.606  0.3256 -0.1532  0.1487
58877SOL    HW186561   7.069   2.177   4.648  2.7654 -1.3450  0.2093
58877SOL    HW286562   7.166   2.291   4.671 -0.1953  1.3912 -0.1805
58878SOL     OW86563   9.369  11.120   3.677 -0.2641 -0.1843 -0.0559
58878SOL    HW186564   9.452  11.073   3.673  0.2910  0.7100  0.7967
58878SOL    HW286565   9.370  11.166   3.761 -1.1128  0.7843 -0.5452
58879SOL     OW86566   4.498   0.702   0.249  0.0182  0.5709 -0.3851
58879SOL    HW186567   4.435   0.708   0.177  0.1302 -0.4224 -0.5782
58879SOL    HW286568   4.452   0.653   0.316  0.1420  0.9578 -0.0121
58880SOL     OW86569   5.391   9.125   8.424 -0.2198 -0.0382  0.4083
58880SOL    HW186570   5.447   9.051   8.449  2.0800  1.7496  0.8511
58880SOL    HW286571   5.434   9.162   8.346 -2.5303 -0.3804 -1.1206
58881SOL     OW86572   8.512   8.044   3.765  0.1056  0.2963  0.3282
58881SOL    HW186573   8.559   8.056   3.848  0.0988  0.3612  0.3226
58881SOL    HW286574   8.498   7.950   3.759  1.0171  0.1721 -0.0921
58882SOL     OW86575   4.765  11.972   1.118 -0.3454  0.4183  0.2234
58882SOL    HW186576   4.759  11.878   1.136 -0.0588  0.4528  0.5148
58882SOL    HW286577   4.780  12.012   1.203 -1.0384  0.7879  0.1753
58883SOL     OW86578  11.991   6.330   3.191 -0.1385  0.1173 -0.3354
58883SOL    HW186579  11.908   6.303   3.152 -0.1694 -0.2108 -0.0567
58883SOL    HW286580  11.966   6.366   3.276  0.0912 -1.0906  0.2721
58884SOL     OW86581  13.130   7.108   3.694 -0.0502 -0.0887 -0.1795
58884SOL    HW186582  13.206   7.050   3.689  0.1129  0.0087  1.0102
58884SOL    HW286583  13.081   7.078   3.770 -1.4086 -0.3654 -1.1188
58885SOL     OW86584   5.849   6.078   6.243  0.5365  0.3864  0.0651
58885SOL    HW186585   5.769   6.055   6.195  0.7577  0.6101 -0.4211
58885SOL    HW286586   5.837   6.039   6.329  0.1517 -0.0653 -0.1864
58886SOL     OW86587   4.122   8.274  12.060  0.3138  0.2169  0.2714
58886SOL    HW186588   4.067   8.259  12.137 -1.0915  0.6338 -0.6127
58886SOL    HW286589   4.112   8.368  12.042 -1.0444 -0.2301 -1.5908
58887SOL     OW86590  11.850   7.222   0.842 -0.1752  0.4006 -0.0228
58887SOL    HW186591  11.935   7.234   0.801  0.1737 -2.5072 -0.3694
58887SOL    HW286592  11.869   7.210   0.935  0.0649 -1.7154 -0.2798
58888SOL     OW86593   7.839  12.713  12.520  0.0383  0.8554 -0.0194
58888SOL    HW186594   7.898  12.788  12.527 -1.7475  2.2979  0.3970
58888SOL    HW286595   7.800  12.706  12.607  0.6210 -0.9797  0.1201
58889SOL     OW86596   0.928  10.162   4.469  0.5576  0.5067 -0.3636
58889SOL    HW186597   1.014  10.196   4.491  0.3093  0.5421  0.5822
58889SOL    HW286598   0.920  10.081   4.519 -0.5237  1.2411  0.7082
58890SOL     OW86599   3.681   2.946   0.515  0.1914 -0.0798  0.6803
58890SOL    HW186600   3.695   2.861   0.556  0.4573 -0.4217 -0.1048
58890SOL    HW286601   3.742   2.947   0.441 -0.8426  0.2001 -0.1808
58891SOL     OW86602  12.499   3.708   1.187  0.1428 -0.0899  0.3155
58891SOL    HW186603  12.517   3.643   1.119  0.3972 -0.0183  0.3139
58891SOL    HW286604  12.577   3.707   1.242  0.5223  0.8393 -0.1848
58892SOL     OW86605  10.541   3.742   9.228  0.0548  0.0579  0.4788
58892SOL    HW186606  10.565   3.680   9.297 -0.2889  0.0948  0.6335
58892SOL    HW286607  10.504   3.688   9.158  0.0867  0.0546  0.4642
58893SOL     OW86608  11.652  12.144   3.145  0.5155  0.3318 -0.1332
58893SOL    HW186609  11.613  12.200   3.078  0.5137 -0.0643 -0.4668
58893SOL    HW286610  11.704  12.081   3.096 -1.6083 -1.6845  0.0352
58894SOL     OW86611  11.316   6.389   7.406 -0.0770  0.1107 -0.9331
58894SOL    HW186612  11.263   6.462   7.438 -2.7149 -0.8830 -2.6451
58894SOL    HW286613  11.287   6.314   7.458  0.6806 -0.2143 -0.9723
58895SOL     OW86614   5.170  11.016  11.992  0.2899  0.4468  0.0639
58895SOL    HW186615   5.216  10.933  11.981 -0.2130  0.1057  0.4718
58895SOL    HW286616   5.233  11.082  11.963  1.2462  0.0431  1.1062
58896SOL     OW86617   1.269   5.962  11.253 -0.5372 -0.5312  0.3691
58896SOL    HW186618   1.360   5.935  11.265 -0.3916  0.1706  0.9483
58896SOL    HW286619   1.239   5.982  11.342 -0.0004  3.0875 -0.1128
58897SOL     OW86620   0.057   6.989   7.438  0.2540 -0.2984  0.8181
58897SOL    HW186621   0.056   6.901   7.477  1.4975 -0.1583  1.2156
58897SOL    HW286622  -0.019   6.990   7.380  0.2139 -1.6429  0.8039
58898SOL     OW86623  10.554   0.053   6.351 -0.3050  0.5774  0.6120
58898SOL    HW186624  10.607   0.106   6.411 -0.5683  0.7442  0.6971
58898SOL    HW286625  10.478   0.027   6.403  0.3523 -0.8027  0.9162
58899SOL     OW86626   2.127   4.207   1.474  0.2960 -0.2743 -0.2655
58899SOL    HW186627   2.109   4.119   1.443  0.2176 -0.3642  0.0309
58899SOL    HW286628   2.042   4.242   1.499  0.6786 -1.8366  4.1787
58900SOL     OW86629   1.192   0.912  12.993  0.2546  0.4840  0.0272
58900SOL    HW186630   1.284   0.886  13.003  0.0951  0.1682  0.6849
58900SOL    HW286631   1.160   0.922  13.082 -0.6141 -0.3256 -0.1846
58901SOL     OW86632   3.500   9.756  12.662 -0.1296 -0.1949 -0.1744
58901SOL    HW186633   3.489   9.662  12.676  1.4274 -0.1200  2.1860
58901SOL    HW286634   3.516   9.765  12.568 -0.1079 -2.3166 -0.4142
58902SOL     OW86635   9.008   9.675   0.397  0.3303 -0.7478  0.1501
58902SOL    HW186636   9.056   9.603   0.438  1.3266 -0.9901 -1.3513
58902SOL    HW286637   9.053   9.689   0.313 -0.4835  0.9399 -0.0426
58903SOL     OW86638  11.676   4.534   5.288 -0.0303 -0.4253  0.5259
58903SOL    HW186639  11.692   4.511   5.380 -0.1880 -1.8080  0.2311
58903SOL    HW286640  11.585   4.509   5.273 -0.5693  1.4456  0.4499
58904SOL     OW86641   0.207  13.142  12.568 -0.5368  0.1357 -0.6230
58904SOL    HW186642   0.203  13.232  12.538  1.1182  1.0689  1.6598
58904SOL    HW286643   0.177  13.145  12.659  2.2750 -1.0036  0.4617
58905SOL     OW86644  12.303  12.981   8.298  0.2179  0.1756 -0.1834
58905SOL    HW186645  12.301  12.885   8.294  1.4800  0.1685 -1.5306
58905SOL    HW286646  12.220  13.007   8.258  0.7775 -0.3657 -1.7824
58906SOL     OW86647   1.597   2.011   9.263  0.1086  0.4679 -0.2960
58906SOL    HW186648   1.582   2.069   9.338  0.4378  0.3222 -0.1140
58906SOL    HW286649   1.688   1.983   9.272 -0.5263 -1.5014  0.6354
58907SOL     OW86650  11.495  10.511   5.675  1.0444 -0.3908 -0.2214
58907SOL    HW186651  11.405  10.539   5.689  0.8959 -1.0089  0.1175
58907SOL    HW286652  11.498  10.483   5.583  0.6622 -1.1553 -0.0112
58908SOL     OW86653   5.790   3.235   8.743  0.2300 -0.0454 -0.0654
58908SOL    HW186654   5.798   3.305   8.677  1.9233 -0.5713 -0.4612
58908SOL    HW286655   5.803   3.154   8.693 -1.0920 -0.6234  0.4959
58909SOL     OW86656   4.079  11.627   6.151 -0.1069 -0.1185 -0.3663
58909SOL    HW186657   4.053  11.557   6.091  0.2405 -0.5227 -0.0596
58909SOL    HW286658   4.048  11.598   6.236 -0.3844  0.3378 -0.3105
58910SOL     OW86659   8.007   0.146   4.264 -0.0004  0.3470 -0.1425
58910SOL    HW186660   7.943   0.109   4.203 -0.6461 -1.5567  1.5629
58910SOL    HW286661   8.001   0.090   4.342  2.0112  1.6097  1.0171
58911SOL     OW86662   6.590   8.735   3.654  0.1355  0.3216  0.2490
58911SOL    HW186663   6.574   8.643   3.673 -0.1026  0.5295  1.0771
58911SOL    HW286664   6.514   8.781   3.690  0.3081  0.8612 -0.0485
58912SOL     OW86665  12.470   5.218  13.133 -0.3702  0.0217  0.3489
58912SOL    HW186666  12.429   5.271  13.065  0.3958 -1.2770 -1.1811
58912SOL    HW286667  12.431   5.131  13.123  1.3438 -0.7627  0.0817
58913SOL     OW86668  10.887   7.342   1.383  0.1224 -0.0878 -0.4866
58913SOL    HW186669  10.915   7.429   1.356  1.6514 -0.2488  0.4555
58913SOL    HW286670  10.955   7.312   1.443 -2.3924 -0.2623  2.5874
58914SOL     OW86671   8.216   9.519   2.041 -0.3055 -0.1213  0.0639
58914SOL    HW186672   8.121   9.525   2.036 -0.3610  0.0964  1.1836
58914SOL    HW286673   8.248   9.586   1.981 -0.8713  0.7261  0.6860
58915SOL     OW86674  11.662  10.417   2.442  0.2551  0.1980  0.6736
58915SOL    HW186675  11.712  10.461   2.511  1.7598 -1.6501  0.8420
58915SOL    HW286676  11.584  10.383   2.486  0.8879 -0.4012  1.3630
58916SOL     OW86677   9.263   9.355  12.584 -0.4606  0.1098  0.1382
58916SOL    HW186678   9.289   9.369  12.493  0.4460  0.9145  0.5022
58916SOL    HW286679   9.297   9.432  12.631  1.3854 -1.4984  1.6122
58917SOL     OW86680   8.704   9.865   0.628  0.5051 -0.2289  0.5061
58917SOL    HW186681   8.627   9.920   0.613  1.5767  0.8512 -1.3456
58917SOL    HW286682   8.708   9.808   0.551  0.3773 -1.7797  1.5997
58918SOL     OW86683   1.024  11.530   2.841  0.1468 -0.7863 -0.9641
58918SOL    HW186684   0.954  11.522   2.906 -0.9925  1.3425 -1.8243
58918SOL    HW286685   1.007  11.614   2.798  3.2385 -0.1580 -1.2231
58919SOL     OW86686   5.997  10.820   8.152 -0.2777 -0.5036  0.1935
58919SOL    HW186687   6.042  10.820   8.237 -1.1629 -0.7344  0.6847
58919SOL    HW286688   5.959  10.732   8.146 -2.1840  0.2260  0.6593
58920SOL     OW86689   1.997   1.970   5.745 -0.1085 -0.3661  0.0019
58920SOL    HW186690   1.905   1.978   5.719 -0.0638 -1.5577 -0.6054
58920SOL    HW286691   2.009   2.036   5.813 -0.6692  1.8050 -1.8674
58921SOL     OW86692   9.160  12.975   2.725  0.4104  0.1005 -0.6992
58921SOL    HW186693   9.148  13.033   2.650 -0.7143  0.9448  0.0996
58921SOL    HW286694   9.221  13.021   2.782 -0.6253  0.6268  0.0224
58922SOL     OW86695  10.567   9.035   9.943 -0.1978 -0.2669 -0.0426
58922SOL    HW186696  10.489   8.989   9.909  0.0454 -1.0021  0.3848
58922SOL    HW286697  10.560   9.123   9.906 -0.1743 -0.9017 -1.6860
58923SOL     OW86698   3.799  11.938   9.887 -0.5502  0.3556 -0.3812
58923SOL    HW186699   3.738  11.865   9.891 -0.6365  0.4739  1.9935
58923SOL    HW286700   3.880  11.901   9.854 -0.6074 -0.8037  0.7514
58924SOL     OW86701   7.790  11.107   0.442  0.6358  0.1881  0.6777
58924SOL    HW186702   7.789  11.038   0.377 -1.6739  0.9122 -0.1595
58924SOL    HW286703   7.796  11.188   0.391 -1.7867  0.7940  1.2614
58925SOL     OW86704   7.287   3.289   7.503  0.0757  0.4232 -0.4534
58925SOL    HW186705   7.318   3.314   7.416  0.6697  1.3178 -0.0010
58925SOL    HW286706   7.195   3.316   7.504 -0.0682 -0.0085 -0.9454
58926SOL     OW86707   5.330  11.064   0.232  0.2765  0.6556 -0.1815
58926SOL    HW186708   5.392  11.129   0.263  1.8207 -1.1673  0.7776
58926SOL    HW286709   5.373  11.023   0.157 -0.6561  0.6896 -0.7555
58927SOL     OW86710  10.603  12.743   5.676 -0.0383  0.2009  0.0364
58927SOL    HW186711  10.534  12.696   5.722 -0.9417  1.4802  0.0498
58927SOL    HW286712  10.623  12.689   5.600 -0.3138 -0.6919  0.5827
58928SOL     OW86713  12.696   2.102   7.018 -0.5554 -0.2061 -0.1928
58928SOL    HW186714  12.672   2.012   7.038  0.8219 -1.1341 -2.3308
58928SOL    HW286715  12.623   2.136   6.967 -1.7169  0.4464  1.7715
58929SOL     OW86716  12.149   8.388   4.719  0.4024 -0.0805 -0.4088
58929SOL    HW186717  12.108   8.389   4.806 -0.2172 -0.2368 -0.6985
58929SOL    HW286718  12.187   8.475   4.709 -1.3025  0.6453 -0.8282
58930SOL     OW86719   0.848   3.236   6.483  0.4514  0.6590 -0.4145
58930SOL    HW186720   0.869   3.174   6.414  0.5250  1.8323 -1.4801
58930SOL    HW286721   0.762   3.271   6.459 -0.1075  0.1627  0.7832
58931SOL     OW86722   5.266   3.603   3.348  0.4182 -0.4433 -0.2631
58931SOL    HW186723   5.329   3.645   3.407  0.6182 -1.7167  0.4714
58931SOL    HW286724   5.193   3.577   3.405  0.3814 -1.2357 -0.6540
58932SOL     OW86725   0.442   1.204  11.633  0.1134 -0.2719 -0.1218
58932SOL    HW186726   0.431   1.127  11.577  1.7104  0.7660 -1.9711
58932SOL    HW286727   0.356   1.246  11.633  0.0266 -0.3949 -1.6785
58933SOL     OW86728   6.713   8.245  12.375 -0.1197 -0.3384  0.2844
58933SOL    HW186729   6.804   8.253  12.348 -0.4354 -0.7178 -0.9691
58933SOL    HW286730   6.707   8.159  12.416 -0.3641 -1.3297 -1.6957
58934SOL     OW86731   1.842   1.945   8.773  0.3516 -0.1750 -0.3961
58934SOL    HW186732   1.757   1.984   8.796 -0.4880 -1.7721 -0.6611
58934SOL    HW286733   1.861   1.885   8.844  1.0977 -0.0919 -0.5229
58935SOL     OW86734   5.700  12.421   5.861  0.3473  0.0998 -0.0216
58935SOL    HW186735   5.667  12.475   5.789  1.2788  1.3807  0.4860
58935SOL    HW286736   5.795  12.429   5.856  0.4337  0.0923  1.2458
58936SOL     OW86737  10.509   2.821  13.276 -0.5206 -0.1968  0.5021
58936SOL    HW186738  10.577   2.878  13.242 -0.7605  0.0787  0.4795
58936SOL    HW286739  10.439   2.881  13.303 -0.3345 -0.4033  1.4881
58937SOL     OW86740   6.866   6.132  10.634 -0.6951  0.3954 -0.0487
58937SOL    HW186741   6.932   6.066  10.653 -1.1303 -0.2272 -0.6666
58937SOL    HW286742   6.834   6.160  10.720  0.5890  0.9393  0.2728
58938SOL     OW86743   9.400   5.446   5.014 -0.0381 -0.3304 -0.2351
58938SOL    HW186744   9.324   5.484   5.058 -0.3279 -0.3445 -0.7195
58938SOL    HW286745   9.423   5.369   5.067  0.3671  0.3416  0.5774
58939SOL     OW86746   0.124   0.231   5.806 -0.3372  0.1752  0.3069
58939SOL    HW186747   0.175   0.208   5.728 -0.1384  0.5136  0.3364
58939SOL    HW286748   0.138   0.325   5.817  1.1936 -0.1937  1.8558
58940SOL     OW86749   3.982   2.889   6.892 -0.2454  0.2973  0.2873
58940SOL    HW186750   3.981   2.922   6.802 -1.5164 -0.8585 -0.1676
58940SOL    HW286751   3.980   2.968   6.947  0.3371  1.0107 -0.6992
58941SOL     OW86752  12.763  10.012   9.896  0.5016  0.0261  0.7782
58941SOL    HW186753  12.781  10.072   9.824 -0.4834  0.6330  1.0147
58941SOL    HW286754  12.703   9.947   9.859  1.4828 -0.7774  0.5514
58942SOL     OW86755   4.731  10.146   7.303  0.3659 -0.1583  0.5605
58942SOL    HW186756   4.820  10.162   7.270  0.7667 -0.5305  1.4457
58942SOL    HW286757   4.728  10.189   7.388 -0.2655 -0.2611  0.5974
58943SOL     OW86758   2.931   2.610  11.545 -0.6356 -0.3975 -0.0179
58943SOL    HW186759   2.950   2.690  11.593 -1.3790 -0.5418  0.5445
58943SOL    HW286760   2.957   2.539  11.604  0.1646 -0.5758 -0.5740
58944SOL     OW86761   3.142  13.283   1.296  0.1304 -0.4981 -0.1516
58944SOL    HW186762   3.178  13.208   1.344  1.9986  1.0639  1.0373
58944SOL    HW286763   3.169  13.268   1.205  1.9286 -0.4839  0.3472
58945SOL     OW86764   7.340  12.651   6.692 -0.3209 -0.0642  0.1728
58945SOL    HW186765   7.431  12.682   6.693 -0.2206 -0.3548  0.3439
58945SOL    HW286766   7.301  12.689   6.770 -0.9195  1.6953 -0.9195
58946SOL     OW86767   8.596   2.415  10.955  0.3721 -0.1183  0.2261
58946SOL    HW186768   8.514   2.374  10.984  1.9624 -2.5067  1.6455
58946SOL    HW286769   8.610   2.487  11.017 -0.2987 -0.0653  0.3328
58947SOL     OW86770   2.484   9.267   6.099  0.1773 -0.2159 -0.0542
58947SOL    HW186771   2.494   9.172   6.109 -2.4253 -0.5989 -0.2947
58947SOL    HW286772   2.403   9.277   6.048  0.3864  2.1441 -0.0276
58948SOL     OW86773   2.484   5.444  10.166 -0.6085 -0.2201  0.3740
58948SOL    HW186774   2.467   5.364  10.216  1.0083  0.7425  2.6503
58948SOL    HW286775   2.415   5.447  10.101 -2.1348 -2.2264  1.7792
58949SOL     OW86776  10.616   5.694   6.926 -0.2740 -0.3934  0.1785
58949SOL    HW186777  10.676   5.713   6.854  1.5619 -1.0827  1.4644
58949SOL    HW286778  10.623   5.771   6.983  0.3156 -0.9930  0.9258
58950SOL     OW86779   4.291   9.844  12.705  0.3449 -0.1696  0.6164
58950SOL    HW186780   4.269   9.915  12.765 -2.1055  0.4362 -0.8702
58950SOL    HW286781   4.382   9.861  12.680  0.4695  1.2101  1.9175
58951SOL     OW86782  11.876   7.529   7.635  0.2968 -0.1276 -0.2103
58951SOL    HW186783  11.820   7.594   7.677  1.5690  0.9910 -0.1548
58951SOL    HW286784  11.820   7.454   7.621 -0.7925  0.3710  1.2549
58952SOL     OW86785   5.316   7.873   8.736  0.0186  0.3345  0.1298
58952SOL    HW186786   5.231   7.844   8.704  0.9278 -0.8006 -1.4196
58952SOL    HW286787   5.357   7.793   8.769  0.4651  0.8885  0.9551
58953SOL     OW86788   4.887   0.419   2.706  0.4671  0.0802 -0.3202
58953SOL    HW186789   4.879   0.373   2.622  0.3720 -0.5038 -0.0023
58953SOL    HW286790   4.799   0.449   2.726  0.4159 -0.1048 -0.2584
58954SOL     OW86791   6.301   6.424  12.525  0.3208 -0.5485  0.1128
58954SOL    HW186792   6.328   6.353  12.467  0.7710  0.4197 -0.9118
58954SOL    HW286793   6.213   6.447  12.495 -0.7790 -2.1055  1.8950
58955SOL     OW86794   9.552  12.223   4.586 -0.0057 -0.4391  0.7049
58955SOL    HW186795   9.503  12.176   4.518 -0.7901  0.7835  0.3825
58955SOL    HW286796   9.640  12.232   4.551 -0.4873  0.4816 -0.3459
58956SOL     OW86797  11.357   6.419   7.713  0.4764 -0.3297 -0.0535
58956SOL    HW186798  11.335   6.333   7.678  0.8029  0.4494 -2.3181
58956SOL    HW286799  11.451   6.428   7.700  0.4576  0.3582  0.2039
58957SOL     OW86800  10.262   0.129  12.592 -0.0093  0.1468 -0.2582
58957SOL    HW186801  10.270   0.071  12.667 -0.9022  0.8437  0.3992
58957SOL    HW286802  10.168   0.133  12.574  0.2604 -0.9258 -2.1710
58958SOL     OW86803  10.236   7.854  12.419 -0.2049 -0.0346  0.1647
58958SOL    HW186804  10.328   7.831  12.429  0.4680  2.5983  0.8894
58958SOL    HW286805  10.208   7.810  12.339  1.2763 -1.9126  0.6048
58959SOL     OW86806   4.311   3.178   9.993  0.6103  0.6709 -0.4507
58959SOL    HW186807   4.282   3.123   9.920  0.4257 -0.5622  0.5218
58959SOL    HW286808   4.258   3.258   9.986 -1.3153 -0.5122 -0.1597
58960SOL     OW86809   4.111  11.102   8.363 -0.4635  0.4833 -0.0078
58960SOL    HW186810   4.037  11.162   8.366 -1.2502 -0.4823  1.4106
58960SOL    HW286811   4.072  11.018   8.339 -0.0260 -0.2374  1.6609
58961SOL     OW86812   1.335   3.515   7.307  0.1252 -0.2042  0.4266
58961SOL    HW186813   1.380   3.585   7.260 -0.6399 -0.1556 -0.2563
58961SOL    HW286814   1.255   3.556   7.339  0.4222 -0.3600  1.3886
58962SOL     OW86815   7.255  11.195   1.664 -0.4466  0.1876  0.1612
58962SOL    HW186816   7.300  11.221   1.583  1.5933 -0.8055  0.9010
58962SOL    HW286817   7.166  11.174   1.636 -0.3455  1.6867 -1.4852
58963SOL     OW86818   3.342   0.746   5.229  0.2468 -0.6691 -0.5775
58963SOL    HW186819   3.409   0.679   5.240 -0.7700 -1.3166  3.2287
58963SOL    HW286820   3.389   0.829   5.241  0.6584 -1.0558  0.7212
58964SOL     OW86821   9.851  11.434  12.185  0.0117  0.1470 -0.1798
58964SOL    HW186822   9.861  11.528  12.196  1.6825 -0.0453  0.2634
58964SOL    HW286823   9.777  11.410  12.240  0.3692  1.0362  0.7145
58965SOL     OW86824   2.536   2.822   0.305 -0.1106 -0.1849  0.2132
58965SOL    HW186825   2.511   2.736   0.338  0.8466  0.2541  2.2402
58965SOL    HW286826   2.623   2.810   0.268  1.1619  0.3011  2.7841
58966SOL     OW86827   0.354   0.393  10.295 -0.7739 -0.1986  0.1821
58966SOL    HW186828   0.444   0.421  10.309 -0.8622  1.2489 -1.7604
58966SOL    HW286829   0.308   0.419  10.375  0.0213  1.4626  0.1465
58967SOL     OW86830  12.241   1.344   6.925  0.4757  0.5027 -0.1758
58967SOL    HW186831  12.201   1.362   6.840  0.2725 -1.2772 -0.4996
58967SOL    HW286832  12.319   1.398   6.927  0.6178  0.3823 -1.6192
58968SOL     OW86833   4.802   0.591  10.906  0.0576 -0.3931  0.7274
58968SOL    HW186834   4.809   0.526  10.836  0.7567 -0.5352  0.9178
58968SOL    HW286835   4.797   0.675  10.860  1.6600 -0.3837  0.4835
58969SOL     OW86836   7.294   8.358   3.464 -0.3007 -0.0388  0.2164
58969SOL    HW186837   7.261   8.447   3.468  0.7224  0.3042  2.0933
58969SOL    HW286838   7.237   8.308   3.522 -0.1999 -0.3701  0.0340
58970SOL     OW86839   3.924   4.202   4.130 -0.5146 -0.0885 -0.0152
58970SOL    HW186840   3.889   4.165   4.211  0.1915 -0.4750  0.1176
58970SOL    HW286841   3.883   4.150   4.060  0.5998 -1.2606  0.1720
58971SOL     OW86842   8.333   9.724   5.782 -0.6501  0.5772  0.4100
58971SOL    HW186843   8.417   9.681   5.795 -1.3712 -0.7490  0.7908
58971SOL    HW286844   8.351   9.791   5.716  0.9249  1.0375  1.2386
58972SOL     OW86845  12.825   5.011  11.037 -0.5129  0.4471  0.5426
58972SOL    HW186846  12.804   5.098  11.004 -0.5660  0.7980  1.4907
58972SOL    HW286847  12.789   5.009  11.126 -0.3289 -0.4687  0.6104
58973SOL     OW86848   2.342   8.763  10.234  0.7572  0.5374 -0.2653
58973SOL    HW186849   2.437   8.767  10.229  0.9751 -0.8476  1.6581
58973SOL    HW286850   2.317   8.700  10.167  1.2936  0.1383 -0.0965
58974SOL     OW86851  11.573   1.060  13.250 -0.2255  0.3820 -0.3477
58974SOL    HW186852  11.566   0.984  13.307 -1.6355 -0.3819 -1.4874
58974SOL    HW286853  11.667   1.080  13.248  0.1380 -1.1925  0.1105
58975SOL     OW86854  11.066   3.158  12.957  0.0588  0.1676 -0.1932
58975SOL    HW186855  11.019   3.241  12.951  1.7860  1.1571 -0.7760
58975SOL    HW286856  11.064   3.123  12.868 -0.1631 -0.1368 -0.0705
58976SOL     OW86857   8.176   6.235  10.715 -0.3630  0.5082 -0.4055
58976SOL    HW186858   8.087   6.237  10.750 -0.3075 -0.2524 -0.2059
58976SOL    HW286859   8.215   6.157  10.754 -0.4284 -0.6249 -2.4365
58977SOL     OW86860   6.065  12.301   0.536 -0.4228 -0.0725  0.2108
58977SOL    HW186861   6.160  12.300   0.543 -0.3803 -0.0095 -0.3716
58977SOL    HW286862   6.035  12.320   0.625  0.1253  0.5276  0.2711
58978SOL     OW86863  10.701   0.346   3.164  0.4982  0.2880  0.0979
58978SOL    HW186864  10.761   0.418   3.147  2.0784 -1.2854 -1.4611
58978SOL    HW286865  10.749   0.288   3.223 -0.7357  0.4534  1.3140
58979SOL     OW86866   4.232   7.763   0.570  0.6128 -0.1135  0.0889
58979SOL    HW186867   4.304   7.793   0.626  0.6684  0.8079 -0.4471
58979SOL    HW286868   4.202   7.682   0.610 -0.5396  1.4101  2.5423
58980SOL     OW86869   0.976   5.878   4.285 -0.8226 -0.3980 -0.5745
58980SOL    HW186870   0.951   5.971   4.292 -0.9652 -0.5133  0.6805
58980SOL    HW286871   0.949   5.840   4.369  1.8573 -0.9424  0.1284
58981SOL     OW86872   1.286   6.877   9.809 -0.3634  0.1000  0.5683
58981SOL    HW186873   1.287   6.972   9.820  0.5573  0.0534  0.9848
58981SOL    HW286874   1.217   6.847   9.868 -2.2602  0.6712 -1.2390
58982SOL     OW86875   2.617   7.524   1.151 -0.6470  0.0088  0.0285
58982SOL    HW186876   2.681   7.528   1.080 -0.8112 -0.4824 -0.1532
58982SOL    HW286877   2.570   7.607   1.145 -1.6979 -0.6330 -1.4432
58983SOL     OW86878   0.902   0.529   8.657 -0.6345  0.9665 -0.1740
58983SOL    HW186879   0.829   0.589   8.672  0.7879  3.2422 -1.6494
58983SOL    HW286880   0.886   0.494   8.569  0.9451  3.0918 -1.4242
58984SOL     OW86881   8.575   3.204   1.470 -0.2049 -0.5352 -0.0455
58984SOL    HW186882   8.495   3.234   1.426  0.1930  1.2912  0.3866
58984SOL    HW286883   8.545   3.157   1.547 -0.8696 -0.3776 -0.2071
58985SOL     OW86884   0.914  10.742   0.008  0.4714 -0.4712  0.0018
58985SOL    HW186885   0.903  10.734   0.103  1.5898  0.9352  0.2838
58985SOL    HW286886   0.935  10.834  -0.006  1.4540 -0.8848 -1.4799
58986SOL     OW86887   6.366   1.165   7.760 -0.1055  0.1086  0.0527
58986SOL    HW186888   6.278   1.146   7.791 -0.5105  2.2694  0.4288
58986SOL    HW286889   6.388   1.249   7.801  2.1609 -0.4008  0.0181
58987SOL     OW86890   8.161   9.951   9.080 -0.3937  0.0139 -0.5648
58987SOL    HW186891   8.201   9.940   8.994 -0.0761  0.3610 -0.4622
58987SOL    HW286892   8.219  10.011   9.127 -0.8140  0.2014 -0.2741
58988SOL     OW86893   5.391   3.863   5.940  0.4113 -0.5547 -0.1124
58988SOL    HW186894   5.346   3.779   5.948 -0.3884 -0.1729 -0.4858
58988SOL    HW286895   5.345   3.920   6.002 -1.0871  0.4354 -2.0169
58989SOL     OW86896  10.501  11.752   7.913  0.2503  0.3146  0.2793
58989SOL    HW186897  10.461  11.833   7.943  1.5464  0.7001  1.0736
58989SOL    HW286898  10.564  11.730   7.982 -0.6063 -1.7976  0.4654
58990SOL     OW86899  11.365  12.578   7.535  0.3138 -0.1270  0.0536
58990SOL    HW186900  11.315  12.637   7.480  0.1734 -0.7713 -0.5259
58990SOL    HW286901  11.398  12.510   7.475  0.5807 -0.5627  0.6737
58991SOL     OW86902   1.703   2.507   2.273  0.1579  0.2099  0.1103
58991SOL    HW186903   1.612   2.531   2.292  0.1254  0.9304 -0.8624
58991SOL    HW286904   1.755   2.582   2.299  0.3872  0.1189 -0.0751
58992SOL     OW86905   0.085  11.897   0.640 -0.5947 -0.2873 -0.6081
58992SOL    HW186906   0.074  11.878   0.733 -1.4534  0.7672 -0.4819
58992SOL    HW286907   0.164  11.952   0.636 -1.1564  0.5496 -0.3746
58993SOL     OW86908  11.405  11.543  12.450 -0.2838  0.5456  0.1502
58993SOL    HW186909  11.396  11.639  12.449  2.5169  0.9126  0.5658
58993SOL    HW286910  11.421  11.520  12.358  0.1892  0.6347  0.2085
58994SOL     OW86911   3.290   5.786   7.275  0.4662 -0.7221  0.1281
58994SOL    HW186912   3.199   5.814   7.264  1.7239  4.0814 -0.3643
58994SOL    HW286913   3.308   5.802   7.368  1.0228 -0.8495  0.0428
58995SOL     OW86914  11.844   7.784   8.532  0.0682 -0.7871 -0.2691
58995SOL    HW186915  11.878   7.873   8.544  0.0379 -0.5479 -1.8593
58995SOL    HW286916  11.805   7.762   8.617  1.0530  0.2863  0.4878
58996SOL     OW86917  12.790   1.228   5.332 -0.2275 -0.1340  0.1633
58996SOL    HW186918  12.781   1.165   5.260  0.1860 -0.9991  0.8368
58996SOL    HW286919  12.728   1.297   5.313 -0.2382 -0.4404 -0.9387
58997SOL     OW86920   6.024  11.891  11.509  0.2470 -0.0672 -0.1285
58997SOL    HW186921   6.087  11.849  11.451  1.1390  0.5159  0.3879
58997SOL    HW286922   6.051  11.866  11.597 -1.2406 -1.1422  0.0589
58998SOL     OW86923   5.946   5.390  10.691 -0.0989 -0.1278  0.3590
58998SOL    HW186924   5.902   5.371  10.608 -0.9703 -0.2380  0.8261
58998SOL    HW286925   6.037   5.408  10.667  0.1087 -2.0069 -0.4197
58999SOL     OW86926   7.175  10.672   8.295  0.2031 -0.3391 -0.3933
58999SOL    HW186927   7.109  10.609   8.321  1.7615 -1.5369  0.9376
58999SOL    HW286928   7.218  10.633   8.219  0.9784 -0.7907  0.2555
59000SOL     OW86929  12.911   1.136   6.726  0.1344 -0.2907 -0.0481
59000SOL    HW186930  12.827   1.111   6.690  0.4704 -1.6356  0.0407
59000SOL    HW286931  12.900   1.227   6.754 -1.5374 -0.7056  0.7375
59001SOL     OW86932   0.496   2.238   1.988  0.0683 -0.1009 -0.3571
59001SOL    HW186933   0.468   2.294   1.916  0.8493 -0.4144 -0.9225
59001SOL    HW286934   0.519   2.154   1.946 -0.4847 -0.6435  0.3928
59002SOL     OW86935   9.993   4.800   0.793 -0.0717 -0.2353 -0.6105
59002SOL    HW186936  10.072   4.766   0.750 -0.7698 -0.7078 -1.5266
59002SOL    HW286937   9.946   4.847   0.725 -0.4521  0.2842  0.0014
59003SOL     OW86938   0.328  10.769   9.680 -0.2342 -0.2220  0.5088
59003SOL    HW186939   0.264  10.836   9.705  0.0832 -0.1476  1.1281
59003SOL    HW286940   0.320  10.702   9.748  0.9385  0.1849  1.0687
59004SOL     OW86941   9.316   8.176   3.832 -0.3913  0.0743 -0.1311
59004SOL    HW186942   9.230   8.161   3.792 -0.8102 -2.3696  1.5130
59004SOL    HW286943   9.334   8.268   3.813 -1.1937 -0.4447 -4.5702
59005SOL     OW86944  10.599   4.289   7.918 -0.5200  0.3215  0.7081
59005SOL    HW186945  10.657   4.214   7.923 -1.4141 -0.4093  0.2902
59005SOL    HW286946  10.545   4.274   7.841 -1.3254  0.9342  1.1274
59006SOL     OW86947   1.319   0.096   5.337  0.0885  0.0855  0.5464
59006SOL    HW186948   1.375   0.023   5.311 -1.1255 -0.7570  0.1825
59006SOL    HW286949   1.377   0.172   5.338  1.1163 -0.6481 -0.3565
59007SOL     OW86950   2.040   2.470   2.964  0.6447 -0.5921 -0.7503
59007SOL    HW186951   2.077   2.547   2.920 -1.4006 -0.2447 -2.0250
59007SOL    HW286952   2.017   2.411   2.892 -3.7008  0.3770 -0.4396
59008SOL     OW86953   6.989   9.096   6.388 -0.1467 -0.2693 -0.3238
59008SOL    HW186954   7.071   9.069   6.346  1.1856  3.3342 -0.3514
59008SOL    HW286955   7.014   9.116   6.479 -0.0044  4.1196 -1.1273
59009SOL     OW86956  10.266  11.784   3.024 -0.0820  0.0085  0.1866
59009SOL    HW186957  10.198  11.847   3.050  0.7834  1.1111 -0.1389
59009SOL    HW286958  10.218  11.717   2.975 -0.8957  1.0046 -0.4454
59010SOL     OW86959   5.619   9.860   8.449  0.4085 -0.3144  0.2811
59010SOL    HW186960   5.663   9.800   8.510  0.8172  0.7164  1.0359
59010SOL    HW286961   5.632   9.947   8.487  0.6952  0.3756 -1.2852
59011SOL     OW86962   1.104   5.664   8.115  0.2576  0.4123 -0.0637
59011SOL    HW186963   1.090   5.614   8.034  4.2901  1.8650 -1.9230
59011SOL    HW286964   1.099   5.599   8.185 -2.0412 -1.1387 -1.5104
59012SOL     OW86965   9.677   1.460   5.290 -1.0778 -0.4051  0.3388
59012SOL    HW186966   9.720   1.522   5.349  0.4866  0.3092 -1.4258
59012SOL    HW286967   9.702   1.374   5.323 -0.5073 -0.0343  0.9115
59013SOL     OW86968  12.563   3.482   1.416 -0.0235  0.4849 -0.6628
59013SOL    HW186969  12.582   3.564   1.462 -2.2048  1.1440 -0.8136
59013SOL    HW286970  12.567   3.416   1.485  0.5084  0.9030 -0.2798
59014SOL     OW86971   1.008   7.205  10.001  0.1781 -0.4845  0.0415
59014SOL    HW186972   1.057   7.274   9.955 -0.2684 -1.4690 -2.0213
59014SOL    HW286973   1.073   7.163  10.058  0.6439  1.0690  0.7072
59015SOL     OW86974  13.045  12.314   5.485  0.6313  0.2401 -0.1617
59015SOL    HW186975  12.993  12.394   5.477  2.6014  1.5822 -0.1543
59015SOL    HW286976  13.071  12.294   5.395  0.7582  0.0312 -0.0781
59016SOL     OW86977  12.448   2.301  11.056  0.1532 -0.1109 -0.1028
59016SOL    HW186978  12.475   2.287  10.966  0.7787 -1.0685  0.2186
59016SOL    HW286979  12.529   2.315  11.105 -0.2414  1.4245  0.1614
59017SOL     OW86980   7.745   7.580  12.533  0.1491  0.2830  0.0870
59017SOL    HW186981   7.676   7.645  12.523 -1.0229 -0.8002  0.6629
59017SOL    HW286982   7.710   7.520  12.599  0.9442 -1.1999 -0.7907
59018SOL     OW86983   9.792  12.759   8.753 -0.3506  0.2114  0.8146
59018SOL    HW186984   9.750  12.701   8.817 -0.5920 -0.3292  0.1759
59018SOL    HW286985   9.830  12.700   8.688 -2.0662  0.7489 -0.7814
59019SOL     OW86986   4.357   5.739   4.364  0.0672  0.3830  0.2149
59019SOL    HW186987   4.387   5.683   4.435  1.1270  0.1947 -0.3694
59019SOL    HW286988   4.267   5.709   4.347 -0.5004  0.9392  1.9587
59020SOL     OW86989  11.637   9.194   8.594 -0.4502 -0.2349 -0.1517
59020SOL    HW186990  11.695   9.225   8.664 -0.5752 -0.8839  0.2435
59020SOL    HW286991  11.566   9.149   8.640 -0.3165 -1.0328 -0.7093
59021SOL     OW86992   7.486   4.088  11.773 -0.1237  0.5704 -0.5824
59021SOL    HW186993   7.458   4.167  11.728 -0.5230  0.1559 -1.0755
59021SOL    HW286994   7.460   4.016  11.715 -1.6893 -0.0566  0.8142
59022SOL     OW86995   7.404   3.626   7.381  0.3742  0.2080  0.3035
59022SOL    HW186996   7.422   3.611   7.474  0.6007  1.7978  0.5534
59022SOL    HW286997   7.321   3.582   7.364  0.5128 -0.3985  1.1653
59023SOL     OW86998   1.973  11.457   1.119  0.0562  0.2688  0.1304
59023SOL    HW186999   1.982  11.378   1.066  0.0325  0.7117 -0.5535
59023SOL    HW287000   1.998  11.431   1.207  1.0854 -0.2490 -0.3046
59024SOL     OW87001   2.346   4.303   2.525 -0.7145 -0.1723 -0.2096
59024SOL    HW187002   2.436   4.322   2.549 -1.4287  0.0016  2.7789
59024SOL    HW287003   2.351   4.224   2.470  1.3175  0.9434 -1.7484
59025SOL     OW87004  10.992   1.060   2.063 -0.0235 -0.6579 -0.8717
59025SOL    HW187005  10.925   0.992   2.076  0.1964 -0.9529 -1.2369
59025SOL    HW287006  10.943   1.135   2.030 -0.4822 -0.1223  0.9362
59026SOL     OW87007  12.318   5.828   8.810  0.5794  0.6588 -0.1795
59026SOL    HW187008  12.407   5.840   8.778  0.7444  1.5103  0.5658
59026SOL    HW287009  12.263   5.846   8.733  1.0134  1.2134 -0.3689
59027SOL     OW87010  11.425   6.886  12.833  0.1773 -0.2288  0.0068
59027SOL    HW187011  11.411   6.801  12.790  2.9864 -0.5124 -0.5736
59027SOL    HW287012  11.349   6.939  12.808 -0.6327 -1.9274 -1.3232
59028SOL     OW87013   6.804   8.553  13.170  0.1332 -0.5691 -0.6206
59028SOL    HW187014   6.839   8.570  13.257  0.9186 -1.3543 -0.7642
59028SOL    HW287015   6.723   8.505  13.185 -1.0747  1.4523 -0.2738
59029SOL     OW87016   9.880   4.144   0.900  0.3690  0.8277 -0.1685
59029SOL    HW187017   9.946   4.169   0.964 -1.4516  0.8834  1.7989
59029SOL    HW287018   9.930   4.108   0.826  2.5177 -0.6064  1.8611
59030SOL     OW87019   1.574   3.085   2.433  0.1502 -0.5364  0.1067
59030SOL    HW187020   1.523   3.158   2.467 -0.9600 -0.6751 -1.1683
59030SOL    HW287021   1.580   3.102   2.339  1.5716 -1.0767  0.0767
59031SOL     OW87022   7.106   0.205  11.161 -0.0158 -0.0956 -0.3498
59031SOL    HW187023   7.042   0.190  11.230 -0.0986 -0.1868 -0.4464
59031SOL    HW287024   7.062   0.263  11.099 -0.0108 -0.1730 -0.4255
59032SOL     OW87025   9.841   0.394   9.958 -0.1040  0.7730 -0.0269
59032SOL    HW187026   9.909   0.447   9.998  0.6169 -0.6138  0.6474
59032SOL    HW287027   9.865   0.304   9.979 -2.1360  0.2440  0.2201
59033SOL     OW87028   6.947  11.487  10.133  0.4235 -0.0125  0.3308
59033SOL    HW187029   6.931  11.573  10.095 -0.1838  0.3385  1.3465
59033SOL    HW287030   7.042  11.477  10.132  0.5856  1.2517  1.4501
59034SOL     OW87031   9.298   7.803  10.883 -0.4107  0.1212  0.1219
59034SOL    HW187032   9.372   7.776  10.938 -0.4454  0.0630  0.1404
59034SOL    HW287033   9.301   7.899  10.884  1.4643  0.1840 -2.3095
59035SOL     OW87034   3.973   9.237   1.058  0.9849 -0.0812  0.6887
59035SOL    HW187035   4.013   9.320   1.032  0.6172 -0.4117 -1.0699
59035SOL    HW287036   4.044   9.173   1.050  1.3094  0.0648  2.1942
59036SOL     OW87037   0.116   8.337   4.266  0.2204  0.4430 -0.3307
59036SOL    HW187038   0.085   8.390   4.339 -0.8243  0.9970 -1.1529
59036SOL    HW287039   0.151   8.400   4.204 -0.4786  0.1314 -1.0585
59037SOL     OW87040   6.343   4.622   4.741 -0.6467 -0.3169 -0.1434
59037SOL    HW187041   6.321   4.531   4.721  0.9282 -0.6343 -0.6185
59037SOL    HW287042   6.339   4.667   4.657 -0.1956 -0.2394 -0.1273
59038SOL     OW87043   9.720   0.389   2.778 -0.3881  0.1335  0.1242
59038SOL    HW187044   9.705   0.408   2.870  0.4070  1.5494 -0.0212
59038SOL    HW287045   9.810   0.356   2.774  0.1970  1.6928 -0.3316
59039SOL     OW87046   9.210   3.345   8.857  0.3473 -0.6826 -0.3236
59039SOL    HW187047   9.304   3.355   8.846  0.2792  1.3434  0.4323
59039SOL    HW287048   9.172   3.422   8.814 -0.7366 -0.0233  1.6602
59040SOL     OW87049   4.536   5.639   8.099  0.3388 -0.3347  0.2305
59040SOL    HW187050   4.453   5.592   8.112  0.3714 -0.9721 -1.6304
59040SOL    HW287051   4.512   5.716   8.047  0.6804  0.4013  1.1295
59041SOL     OW87052   2.667   0.937   9.163  0.0445 -0.1561  0.1513
59041SOL    HW187053   2.700   1.027   9.169  0.7074 -0.4459  1.0538
59041SOL    HW287054   2.708   0.891   9.237 -0.7958 -1.0388  0.0937
59042SOL     OW87055   4.224  12.396   6.675  0.1873  0.1421 -0.4419
59042SOL    HW187056   4.305  12.346   6.682 -0.1596 -0.5374 -1.1710
59042SOL    HW287057   4.216  12.418   6.582 -0.3493  0.3919 -0.3439
59043SOL     OW87058   8.098   8.671   4.083 -0.0003  0.3777  0.3161
59043SOL    HW187059   8.168   8.606   4.072  0.6637  1.3918 -2.3531
59043SOL    HW287060   8.137   8.753   4.052 -2.5807  0.8094 -2.1885
59044SOL     OW87061   9.755   1.162   0.660 -0.1804  0.2395  0.7385
59044SOL    HW187062   9.837   1.122   0.631 -0.6282 -0.2295  0.0915
59044SOL    HW287063   9.768   1.178   0.754 -0.1125 -1.8076  1.1210
59045SOL     OW87064  11.651   1.909   1.830 -0.4511 -0.3781 -0.0772
59045SOL    HW187065  11.604   1.983   1.792 -0.7352  0.0062  0.9722
59045SOL    HW287066  11.658   1.931   1.923  1.9639 -0.3418 -0.2091
59046SOL     OW87067   9.732   7.788  10.891  0.0577  0.2908 -0.3206
59046SOL    HW187068   9.683   7.867  10.867  0.5853  0.7581  0.0913
59046SOL    HW287069   9.821   7.820  10.908  0.7920 -0.6983 -2.0964
59047SOL     OW87070   0.369  10.457   3.483 -0.8875 -0.1054  0.0363
59047SOL    HW187071   0.393  10.431   3.572 -1.5233 -0.9782 -0.0285
59047SOL    HW287072   0.359  10.374   3.436 -0.6095  0.3422 -0.8397
59048SOL     OW87073   0.776  12.736  11.582  0.3311  0.5000 -0.0170
59048SOL    HW187074   0.752  12.657  11.535  0.9870  0.3855 -0.1753
59048SOL    HW287075   0.861  12.715  11.622  0.1835  0.8846  0.5128
59049SOL     OW87076  12.591   4.697   0.637 -0.0148 -0.3747  0.8009
59049SOL    HW187077  12.500   4.700   0.606  0.1966  1.9081  0.2522
59049SOL    HW287078  12.624   4.613   0.604 -2.0483 -1.5105  1.4909
59050SOL     OW87079  12.998   1.494  11.011  0.1722 -0.4324  0.0470
59050SOL    HW187080  13.035   1.557  10.950 -1.9688  0.7128 -0.1614
59050SOL    HW287081  13.058   1.494  11.085  2.0263 -0.7613 -1.4029
59051SOL     OW87082   7.004  11.392  11.606 -0.4919  0.0231 -0.2612
59051SOL    HW187083   7.017  11.298  11.593  2.0406  0.2356  0.2846
59051SOL    HW287084   7.081  11.433  11.566 -1.3123  1.8395 -0.0683
59052SOL     OW87085   0.384   1.513   8.789 -0.1730 -0.4803  0.1961
59052SOL    HW187086   0.309   1.455   8.777 -1.0979  0.3048  1.7353
59052SOL    HW287087   0.367   1.587   8.732  1.1764 -1.7695 -2.0299
59053SOL     OW87088   7.842   5.289   4.076  0.4789 -0.1372  0.6120
59053SOL    HW187089   7.880   5.374   4.052 -0.5092 -0.4580 -2.5140
59053SOL    HW287090   7.880   5.270   4.162  1.5349  2.9591  0.9714
59054SOL     OW87091  12.522   5.000  11.496 -0.0985 -0.0249  0.0104
59054SOL    HW187092  12.495   4.968  11.582  0.1303 -1.1692 -0.3320
59054SOL    HW287093  12.446   4.984  11.440 -0.5851  1.5239  0.1519
59055SOL     OW87094   9.818   0.885  12.517 -0.6128 -0.5113  0.3245
59055SOL    HW187095   9.897   0.937  12.533  0.8154 -2.2664 -0.6192
59055SOL    HW287096   9.833   0.803  12.563 -1.0031 -1.6214 -1.4390
59056SOL     OW87097   8.785   8.705  12.709 -0.1208  0.4798 -0.4105
59056SOL    HW187098   8.865   8.690  12.758 -0.1102 -0.5413 -0.7216
59056SOL    HW287099   8.774   8.627  12.655 -3.7264 -1.7352  2.9514
59057SOL     OW87100   4.256   6.886   3.886  0.1336  0.7002 -0.0142
59057SOL    HW187101   4.215   6.825   3.825  0.3914  1.3475 -0.8598
59057SOL    HW287102   4.210   6.872   3.969 -0.5907  0.1820 -0.4898
59058SOL     OW87103  12.659   2.955   0.127  0.2064 -0.2035 -0.0697
59058SOL    HW187104  12.576   2.998   0.147  0.6453  0.1885  1.0592
59058SOL    HW287105  12.725   3.021   0.150  0.8343  0.2727 -2.8772
59059SOL     OW87106   7.072   6.765   4.614  0.3584 -0.1928 -0.1317
59059SOL    HW187107   7.015   6.704   4.661  1.0991 -0.8376 -0.0479
59059SOL    HW287108   7.075   6.731   4.524 -0.9539  0.9637 -0.6499
59060SOL     OW87109   1.495   8.190   1.840  0.0427 -0.0787 -0.1459
59060SOL    HW187110   1.575   8.148   1.871 -0.3245  0.3826  1.5191
59060SOL    HW287111   1.478   8.259   1.904  0.1704  2.1070 -2.3074
59061SOL     OW87112   4.942   7.472   0.142  0.2657  0.1696  0.0274
59061SOL    HW187113   4.861   7.513   0.174  0.3221  0.4527 -0.1910
59061SOL    HW287114   4.937   7.482   0.047  1.4795  1.9302  0.1040
59062SOL     OW87115   9.655  10.073  12.819 -0.2052  0.4059 -0.6448
59062SOL    HW187116   9.728  10.135  12.815 -0.7596  1.0226 -2.4654
59062SOL    HW287117   9.691   9.997  12.864  1.7823  0.4472 -2.0003
59063SOL     OW87118   4.464  11.900   0.204  0.5493  0.0905 -0.0652
59063SOL    HW187119   4.443  11.887   0.297 -0.2191 -0.4199 -0.3057
59063SOL    HW287120   4.423  11.984   0.182 -1.5565 -1.0129 -0.5952
59064SOL     OW87121   0.321   6.337   7.521  0.1087  0.2438  0.0948
59064SOL    HW187122   0.296   6.405   7.457  1.3373  0.0469 -0.6185
59064SOL    HW287123   0.416   6.335   7.518  0.1012 -1.3034  0.3424
59065SOL     OW87124   1.958  12.799   2.140  0.0545  0.0144 -0.6947
59065SOL    HW187125   1.933  12.880   2.183  0.7873 -0.4513  0.6587
59065SOL    HW287126   1.938  12.730   2.203  3.1817 -0.5163 -0.0753
59066SOL     OW87127   5.261  11.523   5.958  0.2571 -0.4860  0.0110
59066SOL    HW187128   5.244  11.596   6.017 -1.3809  0.2631 -1.2995
59066SOL    HW287129   5.229  11.446   6.005  0.6094 -0.1591  0.8027
59067SOL     OW87130   7.846   4.629   4.096 -0.3449 -0.0424 -0.3329
59067SOL    HW187131   7.755   4.607   4.118  0.3052 -0.0382  2.9327
59067SOL    HW287132   7.860   4.715   4.135  1.0434  0.0113 -0.8810
59068SOL     OW87133  13.270   1.008   5.085 -0.1075 -0.0493  0.3049
59068SOL    HW187134  13.193   0.951   5.094  0.0045 -0.2671 -0.0608
59068SOL    HW287135  13.333   0.974   5.149 -0.0471 -0.3290  0.0995
59069SOL     OW87136   1.026   4.711   4.800 -0.0785  0.3645  0.0503
59069SOL    HW187137   1.029   4.616   4.788 -0.1670  0.2028  1.1281
59069SOL    HW287138   0.950   4.725   4.858 -0.5518  1.1751 -0.7386
59070SOL     OW87139   1.190   8.180   0.843  0.2001 -0.7762 -0.0185
59070SOL    HW187140   1.220   8.209   0.929 -1.0116  1.2877 -0.2327
59070SOL    HW287141   1.120   8.118   0.862  0.0590 -0.4697  0.4851
59071SOL     OW87142   7.220   4.805   3.502 -0.0680 -0.4590 -0.1594
59071SOL    HW187143   7.131   4.832   3.523  0.2311 -0.2416  0.8917
59071SOL    HW287144   7.247   4.863   3.430 -0.4095  0.1649  0.2118
59072SOL     OW87145   3.544  12.080  10.845 -0.1525 -0.2330 -0.3210
59072SOL    HW187146   3.632  12.057  10.874  0.2451  0.3032 -1.0779
59072SOL    HW287147   3.486  12.036  10.908  0.6643  0.0857  0.6895
59073SOL     OW87148   6.914   2.016   3.170 -0.0573 -0.8121  0.5404
59073SOL    HW187149   6.846   2.069   3.211 -0.4195 -1.0341  0.2388
59073SOL    HW287150   6.922   1.939   3.226 -0.1800 -0.8677  0.4830
59074SOL     OW87151   3.515   9.390   8.276 -0.1695 -0.0539  0.3251
59074SOL    HW187152   3.426   9.387   8.241 -0.1374 -2.1008  0.3193
59074SOL    HW287153   3.533   9.484   8.286 -1.5576  0.4752 -1.5515
59075SOL     OW87154  12.796   3.970   8.315 -0.1631  0.9302  0.0166
59075SOL    HW187155  12.753   4.020   8.246  0.0300  1.6161  0.3860
59075SOL    HW287156  12.890   3.984   8.301  0.0711 -1.6528 -1.6120
59076SOL     OW87157   3.259   7.578  11.462  0.3452 -0.2612 -0.4046
59076SOL    HW187158   3.285   7.642  11.530  0.8770 -0.9800  0.0892
59076SOL    HW287159   3.165   7.589  11.454 -0.6709 -3.3233  3.8920
59077SOL     OW87160   3.864   3.770   4.494 -0.1065 -0.3493 -0.0482
59077SOL    HW187161   3.799   3.717   4.448  0.0451 -0.2398 -0.3911
59077SOL    HW287162   3.825   3.858   4.499  0.5379  0.0277 -1.3676
59078SOL     OW87163   7.453  13.167   0.919  0.5236  0.9941 -0.1520
59078SOL    HW187164   7.500  13.113   0.983 -0.0222  1.0248  0.2857
59078SOL    HW287165   7.502  13.156   0.837  1.5827  1.4159  0.3999
59079SOL     OW87166   6.013   0.685   8.833 -0.3382 -0.1771 -0.1934
59079SOL    HW187167   6.044   0.664   8.746  2.5270  1.4459  0.2911
59079SOL    HW287168   6.056   0.621   8.890 -0.1509  0.3254  0.2382
59080SOL     OW87169  11.586   5.739   2.342 -0.2256  0.0070 -0.0323
59080SOL    HW187170  11.626   5.652   2.348 -0.3972  0.0115  1.2721
59080SOL    HW287171  11.628   5.778   2.265  2.6934  0.1860  1.4869
59081SOL     OW87172   3.014   7.461  11.688  0.3849  0.1378  0.5191
59081SOL    HW187173   3.027   7.393  11.754 -1.3776  0.8584  1.6832
59081SOL    HW287174   2.965   7.529  11.734 -1.6317  0.3152 -1.7050
59082SOL     OW87175  12.665   3.063   8.194 -0.4390 -0.3817 -0.4368
59082SOL    HW187176  12.728   3.134   8.206  1.0086 -1.5738 -0.6628
59082SOL    HW287177  12.586   3.106   8.161 -0.5475  1.4570  1.9635
59083SOL     OW87178  10.579   0.114   2.820 -0.7234 -0.7041  0.2042
59083SOL    HW187179  10.577   0.075   2.908  0.2156 -1.5647 -0.1385
59083SOL    HW287180  10.497   0.084   2.779 -0.5487 -1.3908  0.3392
59084SOL     OW87181   2.290   6.751   3.315 -0.2304 -0.3388  0.2021
59084SOL    HW187182   2.220   6.721   3.373 -0.2696  0.2863  0.4754
59084SOL    HW287183   2.262   6.722   3.228 -0.1369 -1.3426  0.4864
59085SOL     OW87184   6.265  12.751   3.833  0.4631  0.4672 -0.1848
59085SOL    HW187185   6.215  12.827   3.802  1.1772  0.2799 -1.8804
59085SOL    HW287186   6.354  12.766   3.802  0.8138 -0.6368  0.2270
59086SOL     OW87187  12.179  10.282   6.915 -0.2932 -0.6830 -0.9294
59086SOL    HW187188  12.086  10.299   6.898 -0.5360  0.2292  1.0167
59086SOL    HW287189  12.181  10.243   7.002  1.2162  0.6555 -0.3072
59087SOL     OW87190   7.779   9.396   2.590  0.0165  0.2556  0.1096
59087SOL    HW187191   7.848   9.452   2.626 -0.2781  0.6998 -0.0149
59087SOL    HW287192   7.737   9.357   2.666  0.1173  0.3269  0.2014
59088SOL     OW87193   9.550   3.872   2.726 -0.1454  0.1021 -0.0051
59088SOL    HW187194   9.507   3.871   2.640 -1.5857  0.8315  0.6686
59088SOL    HW287195   9.589   3.785   2.734 -1.1331 -0.4492 -0.8646
59089SOL     OW87196   3.413   0.711  12.502 -0.5353 -0.5335 -0.0173
59089SOL    HW187197   3.448   0.628  12.471  1.4291 -0.6822  2.3158
59089SOL    HW287198   3.461   0.729  12.583 -2.6634  1.6483  0.8920
59090SOL     OW87199   0.168   1.752  13.128 -0.2292  0.0180  0.3457
59090SOL    HW187200   0.241   1.718  13.180  0.2299  1.4807  0.7020
59090SOL    HW287201   0.195   1.840  13.103 -2.4459  1.1513  1.6588
59091SOL     OW87202  12.953  12.444   3.706 -0.3227  0.3367 -0.2335
59091SOL    HW187203  12.897  12.456   3.629 -1.2425 -0.5325  0.2790
59091SOL    HW287204  12.897  12.466   3.780 -0.1471 -0.9877  0.3146
59092SOL     OW87205   4.939   3.488   2.940 -0.0762  0.3801  0.9180
59092SOL    HW187206   4.927   3.513   2.849  1.4473  0.0798  0.6078
59092SOL    HW287207   4.967   3.397   2.937  0.8019  0.6063  1.6087
59093SOL     OW87208   1.278  11.637   8.993  0.2706 -0.0143  0.3583
59093SOL    HW187209   1.337  11.711   9.001  1.2222 -0.8903  1.9187
59093SOL    HW287210   1.191  11.677   8.982  0.6122  1.3787  2.1978
59094SOL     OW87211   8.867  11.452   4.252 -0.4666  0.5052 -0.0214
59094SOL    HW187212   8.887  11.409   4.335 -0.5206 -1.1663 -0.8368
59094SOL    HW287213   8.947  11.501   4.231  0.0597 -0.1717  0.3606
59095SOL     OW87214  10.360   5.314   0.264 -0.1562 -0.2562  0.6521
59095SOL    HW187215  10.392   5.249   0.202  2.2176  0.7796  0.6884
59095SOL    HW287216  10.404   5.395   0.238 -0.7619  0.6834  2.3862
59096SOL     OW87217   8.834   2.681  12.980 -0.1506  0.8016 -0.4048
59096SOL    HW187218   8.794   2.721  13.057 -0.1058 -1.2713  0.7927
59096SOL    HW287219   8.762   2.672  12.917 -0.5866  0.9959  0.0602
59097SOL     OW87220   1.167   7.198   3.272  0.9737 -0.4793  0.2513
59097SOL    HW187221   1.073   7.186   3.281  0.5465  2.0330 -0.1758
59097SOL    HW287222   1.197   7.118   3.227 -0.9015 -1.3730  0.4911
59098SOL     OW87223   2.110   5.779  10.627  0.0615  0.3055  0.3373
59098SOL    HW187224   2.169   5.782  10.702 -0.0278  0.0108  0.4221
59098SOL    HW287225   2.024   5.758  10.665  0.2215 -0.9601  0.0538
59099SOL     OW87226   1.485  11.083   2.338 -0.2700 -0.0938 -0.0179
59099SOL    HW187227   1.466  11.074   2.244 -2.7695 -1.1718  0.5279
59099SOL    HW287228   1.499  11.177   2.350 -0.3984  0.1273 -1.3761
59100SOL     OW87229   8.302   1.424   5.126 -0.3541  0.4059 -0.4252
59100SOL    HW187230   8.274   1.333   5.138  0.4121  0.2222  0.0588
59100SOL    HW287231   8.341   1.426   5.039  0.9797 -0.1121  0.1237
59101SOL     OW87232   9.565   6.668  12.668 -0.8461  0.7635 -0.0047
59101SOL    HW187233   9.660   6.657  12.673 -0.9257  0.0995  0.0404
59101SOL    HW287234   9.546   6.676  12.574 -0.4726  3.4532  0.0550
59102SOL     OW87235  13.028  11.651   2.824 -0.5396 -0.2135  0.8526
59102SOL    HW187236  12.961  11.654   2.892 -0.4824 -1.1257  0.9631
59102SOL    HW287237  13.021  11.563   2.787 -1.7469  0.7753 -1.5181
59103SOL     OW87238   8.106   9.395   8.822 -0.3347  0.1029  0.4965
59103SOL    HW187239   8.089   9.349   8.740 -1.2972 -1.0837  1.3171
59103SOL    HW287240   8.196   9.373   8.844  0.3156  1.3607 -0.7869
59104SOL     OW87241   3.554   8.660  12.505  0.6949  0.0535 -0.4340
59104SOL    HW187242   3.541   8.611  12.586 -2.0475 -0.5526 -1.1551
59104SOL    HW287243   3.610   8.604  12.452  0.4366 -0.7139  0.0887
59105SOL     OW87244   9.071   7.164   5.372  0.2607  0.2100 -0.5371
59105SOL    HW187245   9.088   7.253   5.403  0.7979 -0.0436 -0.1157
59105SOL    HW287246   9.015   7.177   5.295  0.3615  0.9134 -0.4987
59106SOL     OW87247   6.085   6.177   0.452 -0.6231  0.0601  0.0749
59106SOL    HW187248   6.145   6.128   0.395  0.0086  0.1127  0.6834
59106SOL    HW287249   6.052   6.248   0.397 -1.1972 -0.7626 -0.6780
59107SOL     OW87250   9.644   6.789   7.093  0.0866  0.0078 -0.0277
59107SOL    HW187251   9.731   6.771   7.127  1.1537  1.7441 -1.6352
59107SOL    HW287252   9.653   6.780   6.998 -1.4222  0.4597 -0.2423
59108SOL     OW87253   6.929   3.642   3.306  0.2356 -0.3493  0.2106
59108SOL    HW187254   6.917   3.736   3.298  0.1339 -0.3683  0.1436
59108SOL    HW287255   7.024   3.629   3.301  0.3123 -0.1766  1.0185
59109SOL     OW87256   8.015   8.298   0.890 -0.0544  0.1221 -0.1631
59109SOL    HW187257   7.995   8.335   0.976 -1.4362  0.1735 -0.4883
59109SOL    HW287258   8.080   8.230   0.909  1.2723  1.5456  0.6361
59110SOL     OW87259   7.958   2.178  13.125 -0.7864  0.3958 -0.4909
59110SOL    HW187260   7.931   2.255  13.174  0.2051  1.5601 -1.6864
59110SOL    HW287261   7.905   2.179  13.045  0.5843  1.0340 -1.4540
59111SOL     OW87262   5.642   3.495   3.821  0.2620 -0.4496 -0.1055
59111SOL    HW187263   5.603   3.515   3.736 -0.5359  0.5237  0.4606
59111SOL    HW287264   5.650   3.580   3.864 -0.3747 -1.0165  1.2078
59112SOL     OW87265   9.370   2.216  10.894  0.4640 -0.1684 -0.1182
59112SOL    HW187266   9.368   2.221  10.798  1.1469 -0.9088 -0.1792
59112SOL    HW287267   9.360   2.307  10.922  1.3255  0.2004 -0.9269
59113SOL     OW87268  10.757   7.302   6.601  0.2096  0.2434  0.7164
59113SOL    HW187269  10.829   7.340   6.651 -0.5260 -0.6454  2.5437
59113SOL    HW287270  10.713   7.377   6.561  0.9762  0.9562  1.1891
59114SOL     OW87271   3.164  10.787   2.338 -0.1634  0.1285  0.2035
59114SOL    HW187272   3.255  10.764   2.324 -0.3544 -0.7871  0.4217
59114SOL    HW287273   3.154  10.873   2.296  0.6900  0.0564 -0.1616
59115SOL     OW87274  10.732   7.389  12.935 -0.2207 -0.2012 -0.0190
59115SOL    HW187275  10.733   7.419  12.844  1.9666 -2.9775 -1.0668
59115SOL    HW287276  10.656   7.332  12.940  0.7869 -1.6938 -0.8188
59116SOL     OW87277   9.502   4.975  11.261  0.8415  0.1799 -0.4746
59116SOL    HW187278   9.534   5.065  11.264 -2.4535  1.4689 -0.1264
59116SOL    HW287279   9.414   4.980  11.297 -0.1834 -2.8673 -2.2295
59117SOL     OW87280   1.080   9.018   3.466  0.1559 -0.3916 -0.3031
59117SOL    HW187281   1.004   9.060   3.507 -0.2632  0.0542 -1.4993
59117SOL    HW287282   1.118   8.964   3.536 -0.0113  1.0134  0.9169
59118SOL     OW87283   2.337  10.734   7.435  0.3586 -0.2217  0.1412
59118SOL    HW187284   2.429  10.720   7.414 -0.2408 -0.7934 -2.4755
59118SOL    HW287285   2.292  10.657   7.401 -1.3349  1.1081 -0.8440
59119SOL     OW87286   5.885   2.085   9.018  0.0222  0.2473  0.7831
59119SOL    HW187287   5.940   2.109   8.943 -0.2281  0.5512  0.6927
59119SOL    HW287288   5.923   2.133   9.092  0.4562 -0.2955  0.9164
59120SOL     OW87289  12.757  12.459   1.406  0.2185 -0.2400  0.1859
59120SOL    HW187290  12.826  12.439   1.344  0.4708 -0.0102  0.3900
59120SOL    HW287291  12.803  12.495   1.482 -0.1743  0.5629  0.0589
59121SOL     OW87292  12.586   8.837   3.701 -0.1927 -0.7662 -0.6760
59121SOL    HW187293  12.510   8.780   3.713  0.3706 -2.0229 -2.5358
59121SOL    HW287294  12.581   8.862   3.609  1.0297  0.0614 -0.5288
59122SOL     OW87295   8.976   8.095   2.830 -0.3341 -0.5762  0.1045
59122SOL    HW187296   9.035   8.095   2.906 -1.8280 -0.2695  1.3214
59122SOL    HW287297   8.990   8.010   2.789  1.6944 -0.1029 -0.2707
59123SOL     OW87298   0.907  10.721   9.400 -0.2783  0.2306  0.6261
59123SOL    HW187299   0.968  10.742   9.329  0.6800 -0.5455  1.1920
59123SOL    HW287300   0.890  10.627   9.390  1.0050 -0.2265  2.2333
59124SOL     OW87301   8.130  10.299  10.625 -0.1684  0.0026 -0.0914
59124SOL    HW187302   8.106  10.214  10.661  1.1842 -0.9362 -1.3048
59124SOL    HW287303   8.139  10.356  10.702 -2.7317 -0.4575  0.6301
59125SOL     OW87304   5.213   4.202   9.573  0.5684 -0.5123 -0.3797
59125SOL    HW187305   5.200   4.285   9.527 -1.2171 -1.5100 -1.8233
59125SOL    HW287306   5.145   4.201   9.640  1.1402 -0.4596  0.2161
59126SOL     OW87307   8.719   7.676   2.397 -0.4827  0.2792 -0.0585
59126SOL    HW187308   8.691   7.585   2.407 -1.3087  0.3558 -1.5118
59126SOL    HW287309   8.639   7.727   2.406 -0.3591  0.7135 -1.2721
59127SOL     OW87310   0.659   3.687   8.406  0.0786 -0.3036 -0.6286
59127SOL    HW187311   0.750   3.692   8.434 -0.3735 -0.8953  1.0380
59127SOL    HW287312   0.658   3.621   8.337  1.3529  1.7617 -2.7794
59128SOL     OW87313  10.212   6.919  10.219 -0.0249  0.3613 -0.5841
59128SOL    HW187314  10.306   6.914  10.203  0.1474  0.5267  0.3331
59128SOL    HW287315  10.192   7.013  10.219  0.1132  0.4140  0.8177
59129SOL     OW87316   9.106  11.049   3.582 -0.0948  0.0573 -0.3589
59129SOL    HW187317   9.196  11.046   3.614 -0.0174 -1.1888 -0.6453
59129SOL    HW287318   9.113  11.086   3.494 -0.0346  1.2733  0.1494
59130SOL     OW87319   6.325   1.214  11.533 -0.2572  0.1608  0.3489
59130SOL    HW187320   6.415   1.185  11.523 -0.3516 -0.1863  0.5194
59130SOL    HW287321   6.276   1.165  11.467 -0.5901 -0.8504  1.3211
59131SOL     OW87322   0.168   3.497   8.303  0.2461 -0.2229  0.0772
59131SOL    HW187323   0.198   3.408   8.322  0.0984  0.2311  2.8228
59131SOL    HW287324   0.073   3.491   8.299  0.0307  0.1672  2.9643
59132SOL     OW87325   9.852   9.297   8.611 -0.0781 -0.5732  0.2451
59132SOL    HW187326   9.756   9.298   8.613 -0.1260 -0.6685 -1.0151
59132SOL    HW287327   9.877   9.246   8.688 -1.0421 -0.6810  0.5035
59133SOL     OW87328  12.173   8.062   3.099  0.2231 -0.1792 -0.3849
59133SOL    HW187329  12.145   8.026   3.015 -0.5075  0.2184 -0.3223
59133SOL    HW287330  12.181   7.986   3.157  1.2944 -0.5159 -0.9602
59134SOL     OW87331  10.573   1.953   2.131 -0.0044  0.3000  0.6685
59134SOL    HW187332  10.634   2.026   2.132  1.0040 -0.5292  1.2931
59134SOL    HW287333  10.514   1.969   2.204 -0.5475  1.0890  0.0778
59135SOL     OW87334   5.870   6.657  12.808  0.4902  0.2486 -0.4045
59135SOL    HW187335   5.869   6.705  12.891 -0.1047 -1.3374  0.5530
59135SOL    HW287336   5.898   6.569  12.832 -1.4108 -0.7287 -1.5786
59136SOL     OW87337  12.314   6.967   4.339  0.4053 -0.4886 -0.3556
59136SOL    HW187338  12.267   6.886   4.357 -2.4775  1.1618  0.0281
59136SOL    HW287339  12.278   6.999   4.256  3.1390 -0.6528 -1.7190
59137SOL     OW87340   9.655   9.829   9.133  0.4307 -0.0052  0.1170
59137SOL    HW187341   9.610   9.751   9.103 -2.2875  0.3744  2.7519
59137SOL    HW287342   9.621   9.900   9.079  0.2267 -0.1487  0.0592
59138SOL     OW87343   8.429   8.999   2.729 -0.4426  0.3724 -0.9189
59138SOL    HW187344   8.465   8.970   2.813  0.1814  3.0626 -0.1619
59138SOL    HW287345   8.504   9.038   2.683 -0.8853 -0.6174 -2.5557
59139SOL     OW87346  12.889   9.434  12.318  0.0025 -0.3765 -0.2031
59139SOL    HW187347  12.823   9.400  12.257  0.1268  0.0351 -0.5769
59139SOL    HW287348  12.968   9.445  12.264  0.4268 -1.0099  0.2706
59140SOL     OW87349   8.884   3.490   3.376 -0.4898  0.3357  0.3323
59140SOL    HW187350   8.960   3.436   3.356 -0.2156  0.8791 -0.1005
59140SOL    HW287351   8.811   3.445   3.334 -0.7633 -1.2348  2.3336
59141SOL     OW87352   3.698  12.522   4.166  0.2716  0.0536 -0.4182
59141SOL    HW187353   3.775  12.566   4.202  0.2554 -0.3180  0.0866
59141SOL    HW287354   3.716  12.512   4.073  0.6980  0.2430 -0.3549
59142SOL     OW87355  11.586   9.891   2.496 -0.5228 -0.6463 -0.2160
59142SOL    HW187356  11.600   9.806   2.537  1.0060 -0.3763 -0.1174
59142SOL    HW287357  11.617   9.954   2.562 -1.7891  0.0086 -0.2186
59143SOL     OW87358  12.156   6.874   2.115 -0.0024 -0.5609 -0.2999
59143SOL    HW187359  12.212   6.927   2.171 -0.2804  2.6348 -2.7814
59143SOL    HW287360  12.214   6.841   2.047 -0.2230 -1.8800  0.1084
59144SOL     OW87361  13.065   1.371   2.392 -0.0606  0.1108  0.3914
59144SOL    HW187362  13.079   1.285   2.431  0.7263  0.5808  1.1912
59144SOL    HW287363  13.135   1.379   2.327  0.5098  0.5431  1.0398
59145SOL     OW87364   3.453   7.402   6.865  0.0218 -0.1044 -0.0896
59145SOL    HW187365   3.391   7.454   6.916 -1.5674 -0.6700 -1.3469
59145SOL    HW287366   3.424   7.312   6.877 -0.0039 -0.3060 -1.4251
59146SOL     OW87367   6.463  11.654   9.554  0.1969 -0.2997 -0.1496
59146SOL    HW187368   6.384  11.621   9.597 -0.0064  0.5306  0.1381
59146SOL    HW287369   6.454  11.749   9.558  1.5292 -0.1735  0.4955
59147SOL     OW87370   4.829   0.064   8.768  0.0457  0.0533 -0.4216
59147SOL    HW187371   4.916   0.095   8.740  0.5299 -0.7945  0.0968
59147SOL    HW287372   4.838   0.052   8.862 -0.3711 -0.8764 -0.4972
59148SOL     OW87373   2.685   0.252  12.548 -0.3469  0.5790  0.5369
59148SOL    HW187374   2.747   0.323  12.534 -0.2523  0.3641 -0.2017
59148SOL    HW287375   2.599   0.291  12.533 -0.3206  0.6214  0.4977
59149SOL     OW87376   8.370   7.019   1.005  0.0997  0.2933  0.6505
59149SOL    HW187377   8.407   6.995   1.090 -0.6376  0.1526  0.9381
59149SOL    HW287378   8.281   7.047   1.025  0.0638  0.6787 -0.0266
59150SOL     OW87379  10.394   9.303  11.194  0.3024  0.1618  0.1566
59150SOL    HW187380  10.480   9.299  11.234  0.0267  1.1850  0.8958
59150SOL    HW287381  10.353   9.381  11.231 -1.6263 -1.2435  1.2385
59151SOL     OW87382  10.417   9.367   4.247  0.1907  0.5350  0.0281
59151SOL    HW187383  10.426   9.462   4.237 -0.6286  0.5582 -0.6017
59151SOL    HW287384  10.391   9.355   4.338  0.5041  0.9004  0.1672
59152SOL     OW87385   8.758   8.217   8.497  0.3352  0.4110 -0.3625
59152SOL    HW187386   8.720   8.303   8.480 -2.7599 -0.6671  0.4193
59152SOL    HW287387   8.770   8.214   8.591 -0.1230 -0.1835 -0.3157
59153SOL     OW87388   5.152   1.446   3.619  0.5057  0.1553 -0.2622
59153SOL    HW187389   5.095   1.370   3.605 -0.1613  1.0040 -2.7524
59153SOL    HW287390   5.181   1.439   3.710 -0.7741 -2.2133  0.0256
59154SOL     OW87391   5.601   2.791   1.722  0.4679 -0.4050 -0.6367
59154SOL    HW187392   5.672   2.856   1.721  0.6834 -0.6183  0.1704
59154SOL    HW287393   5.521   2.843   1.720  0.5352 -0.1572 -4.3073
59155SOL     OW87394   9.904  12.456  11.970 -0.0194  0.4818 -0.7084
59155SOL    HW187395   9.846  12.471  12.045 -1.2200  0.8906 -1.6922
59155SOL    HW287396   9.945  12.540  11.954  3.2723 -0.4129  1.8360
59156SOL     OW87397   9.310   7.665   9.655 -0.1097  0.0675  0.5045
59156SOL    HW187398   9.323   7.705   9.741  1.3161 -0.0415  0.3726
59156SOL    HW287399   9.381   7.601   9.647  0.2014  0.5527 -1.0124
59157SOL     OW87400  12.605   8.040   3.363 -0.3426 -0.3806 -0.0892
59157SOL    HW187401  12.580   7.988   3.287  0.1209 -2.9419  1.3840
59157SOL    HW287402  12.684   7.998   3.397  0.3417  1.6100  0.9680
59158SOL     OW87403   4.148   1.927  10.102  0.8352 -0.2000 -0.4938
59158SOL    HW187404   4.142   1.848  10.048  0.8278 -0.5594  0.0296
59158SOL    HW287405   4.154   1.895  10.192  0.0286  0.4123 -0.2122
59159SOL     OW87406   5.272   7.589   7.674  0.2381 -0.4802  0.6337
59159SOL    HW187407   5.234   7.563   7.590  0.1500  0.3832  0.3889
59159SOL    HW287408   5.359   7.550   7.674  1.3410  1.7534 -1.1254
59160SOL     OW87409   0.880   9.230   1.245  0.2573  0.0327  0.6432
59160SOL    HW187410   0.899   9.137   1.254  1.6390  0.3227  1.0405
59160SOL    HW287411   0.949   9.273   1.296 -0.2657  1.2724  0.3364
59161SOL     OW87412  11.888  11.520   4.174  0.3619  0.8878  0.5307
59161SOL    HW187413  11.847  11.457   4.233  0.1009  0.2774 -0.2815
59161SOL    HW287414  11.853  11.605   4.202  0.9590  0.7345  1.8390
59162SOL     OW87415   9.096  12.276  11.465 -0.1413 -0.1153  0.4234
59162SOL    HW187416   9.124  12.315  11.548 -1.7955  1.4275  0.3095
59162SOL    HW287417   9.121  12.340  11.399 -1.6224  0.1466  0.0810
59163SOL     OW87418   3.713   9.177   2.405  0.2112  0.0811  0.5272
59163SOL    HW187419   3.668   9.184   2.321  0.3462  1.4420  0.5490
59163SOL    HW287420   3.805   9.191   2.385  0.6246 -2.1667  0.5629
59164SOL     OW87421   4.405   8.013   4.012  0.1185  0.0290  0.0859
59164SOL    HW187422   4.439   7.999   4.100  1.1705 -0.1621 -0.3353
59164SOL    HW287423   4.430   8.102   3.990 -0.4748  0.2067  0.1197
59165SOL     OW87424   5.472   9.492  11.673 -0.6536 -0.1804  0.3404
59165SOL    HW187425   5.437   9.405  11.691  0.3127 -0.5035  0.7289
59165SOL    HW287426   5.398   9.551  11.688 -0.8219 -0.7604  1.9672
59166SOL     OW87427   7.054   3.432   0.562 -0.0820  0.1027 -0.3754
59166SOL    HW187428   7.019   3.510   0.519 -0.5562  0.0563 -0.0860
59166SOL    HW287429   7.086   3.377   0.491 -0.7552  0.0759 -0.6657
59167SOL     OW87430   7.688   7.513  13.028  0.2714  0.4285  0.2441
59167SOL    HW187431   7.599   7.494  13.058  0.4744  0.1931  0.7019
59167SOL    HW287432   7.703   7.605  13.052  1.4451 -0.4813  3.4816
59168SOL     OW87433   2.407   7.337  11.033  0.2465  0.3170  0.4419
59168SOL    HW187434   2.502   7.329  11.031  0.6524  2.9225  2.6115
59168SOL    HW287435   2.389   7.383  11.115 -2.8335  0.6211 -0.2865
59169SOL     OW87436   3.798   9.004   9.331  0.7455 -0.3080 -0.1048
59169SOL    HW187437   3.806   8.909   9.337 -1.4306 -0.5310  0.0480
59169SOL    HW287438   3.879   9.037   9.369  1.6281 -2.0947 -0.3227
59170SOL     OW87439   2.448   5.032  12.653 -0.2606 -0.2539  0.1412
59170SOL    HW187440   2.485   5.107  12.699  2.0140 -0.5499 -1.0921
59170SOL    HW287441   2.482   4.956  12.700  1.1074 -0.5367 -1.2286
59171SOL     OW87442   6.748   6.601   0.894  0.5603  0.0741  0.0672
59171SOL    HW187443   6.813   6.670   0.905 -0.4202  0.7713  1.9071
59171SOL    HW287444   6.672   6.646   0.856  0.1774 -0.1340  0.5727
59172SOL     OW87445   7.218   5.833  13.168 -0.0916  0.1419 -0.2637
59172SOL    HW187446   7.238   5.748  13.207  0.3382  1.1545  1.8890
59172SOL    HW287447   7.132   5.821  13.128 -0.0322 -1.3012 -0.0245
59173SOL     OW87448  13.028   8.196   0.976 -0.1990  0.2462 -0.2581
59173SOL    HW187449  12.946   8.221   0.934 -0.6011 -1.6990 -0.7064
59173SOL    HW287450  13.008   8.200   1.070 -0.5422  0.5917 -0.3415
59174SOL     OW87451   2.518   1.010   4.836 -0.7234 -0.0136  0.2008
59174SOL    HW187452   2.484   0.926   4.865  0.4415 -0.1465  1.2776
59174SOL    HW287453   2.509   1.008   4.741 -1.1536 -1.1491  0.2493
59175SOL     OW87454   7.019  13.192  10.152 -0.3090  0.0242 -0.1108
59175SOL    HW187455   7.037  13.123  10.215 -0.7715 -0.5304 -0.5702
59175SOL    HW287456   6.930  13.221  10.172  0.2654  1.2524  0.7740
59176SOL     OW87457   6.613   1.041   1.158  0.1784 -0.2920 -0.8062
59176SOL    HW187458   6.696   1.087   1.170 -0.4773  0.8451 -0.4699
59176SOL    HW287459   6.633   0.969   1.099  1.3891  0.0107 -0.7756
59177SOL     OW87460   9.565   4.660   2.688 -0.0516  0.1960 -0.1039
59177SOL    HW187461   9.528   4.747   2.683  0.0374  0.2376 -0.0471
59177SOL    HW287462   9.639   4.669   2.749 -0.5862 -0.1010  0.6115
59178SOL     OW87463   3.745   6.459   8.726  0.6423  0.0293 -0.1632
59178SOL    HW187464   3.823   6.462   8.671  1.5724  0.5608  1.1335
59178SOL    HW287465   3.690   6.531   8.694  1.0498  0.1636 -0.5701
59179SOL     OW87466  10.105   8.639   4.439 -0.0485  0.0552  0.2870
59179SOL    HW187467  10.151   8.723   4.444 -0.5406  0.4790 -1.4718
59179SOL    HW287468  10.171   8.578   4.404 -0.0872  0.0463  0.2292
59180SOL     OW87469   5.630   2.037   2.381 -0.1908 -0.4446 -0.2820
59180SOL    HW187470   5.619   2.070   2.471  1.7455 -0.1017 -0.1201
59180SOL    HW287471   5.691   2.098   2.341  0.0171 -1.3657 -1.4132
59181SOL     OW87472   6.152   1.149   4.001  0.1569  0.0807  0.5701
59181SOL    HW187473   6.072   1.201   4.005 -0.3463 -0.6076 -0.3436
59181SOL    HW287474   6.160   1.122   3.910  2.0837  1.1073  0.3708
59182SOL     OW87475   6.141   9.293   8.386 -0.5569 -0.2213  0.2321
59182SOL    HW187476   6.195   9.223   8.423  0.4356  0.0215 -0.7001
59182SOL    HW287477   6.071   9.247   8.339  0.2778 -0.6261 -0.6581
59183SOL     OW87478   7.477  10.808  12.557  0.3975 -0.5300 -0.6745
59183SOL    HW187479   7.487  10.755  12.637 -1.1235 -0.0418 -0.1156
59183SOL    HW287480   7.450  10.894  12.589 -1.3180 -0.6183 -1.7270
59184SOL     OW87481   9.415   3.714   2.308 -0.2450  0.0420 -0.1255
59184SOL    HW187482   9.460   3.635   2.278  1.4941  0.8138  0.3204
59184SOL    HW287483   9.484   3.767   2.348 -1.7387  0.8628  1.4986
59185SOL     OW87484   7.894   9.693   7.644  0.3928  0.0933  0.1703
59185SOL    HW187485   7.938   9.771   7.679 -0.0161  0.8371 -0.9116
59185SOL    HW287486   7.949   9.620   7.671  1.8372  0.9200 -0.4390
59186SOL     OW87487  11.469   0.053  10.049 -0.0270  0.2590  0.1344
59186SOL    HW187488  11.435   0.032   9.962 -1.7308  1.0752  0.5506
59186SOL    HW287489  11.411   0.122  10.081  1.2030  0.7065  1.5110
59187SOL     OW87490   7.099  10.157   9.563 -0.1861 -0.1938  0.3138
59187SOL    HW187491   7.171  10.203   9.606  0.0241 -0.5404  0.3432
59187SOL    HW287492   7.122  10.156   9.471  0.3040 -1.0849  0.4288
59188SOL     OW87493   3.826   2.052   4.204 -0.2958 -0.2222  0.1262
59188SOL    HW187494   3.864   2.026   4.288 -0.1049  0.4608  0.2509
59188SOL    HW287495   3.735   2.071   4.224 -0.4835 -0.9587  0.0002
59189SOL     OW87496   5.887   6.978   1.063  0.7504 -0.7302  0.3890
59189SOL    HW187497   5.862   7.046   1.001  1.7597 -0.8512 -0.1570
59189SOL    HW287498   5.982   6.970   1.054  0.9137 -0.7936  1.9027
59190SOL     OW87499  12.657   1.725   6.938 -0.1636 -0.1595  0.2772
59190SOL    HW187500  12.693   1.701   6.853 -0.6347 -1.2108  0.3551
59190SOL    HW287501  12.732   1.759   6.987  0.6374 -1.7020  0.2146
59191SOL     OW87502  12.971   1.783   5.411 -0.2214 -0.5197 -0.6399
59191SOL    HW187503  12.917   1.708   5.433 -0.7882 -0.2642 -1.1040
59191SOL    HW287504  13.005   1.764   5.323 -1.3389  0.2690 -1.2761
59192SOL     OW87505   2.933   1.799  11.096  0.5937 -0.4571 -0.3859
59192SOL    HW187506   2.868   1.852  11.049 -2.3862 -2.5367  1.0444
59192SOL    HW287507   2.983   1.862  11.148 -0.1693  1.2561 -1.6485
59193SOL     OW87508   0.189   7.571   1.511 -0.1483  0.3951 -0.1044
59193SOL    HW187509   0.175   7.477   1.499 -0.6084  0.6356 -1.7634
59193SOL    HW287510   0.112   7.600   1.561  0.1673 -0.1505  0.7216
59194SOL     OW87511   0.279   7.274   9.704 -0.3353 -0.0495  0.2717
59194SOL    HW187512   0.360   7.325   9.710  0.1650 -0.8320  0.2290
59194SOL    HW287513   0.216   7.324   9.757  0.1301  0.6346  0.1988
59195SOL     OW87514  10.494   6.965  11.374  0.0273  0.0161  0.1585
59195SOL    HW187515  10.578   7.009  11.364  0.0096 -0.0701 -0.4611
59195SOL    HW287516  10.509   6.898  11.440  0.3375  0.2569  0.3337
59196SOL     OW87517   3.347   0.656   1.925 -0.1944 -0.3784 -0.1329
59196SOL    HW187518   3.358   0.654   2.020  5.3521 -0.6504 -0.4391
59196SOL    HW287519   3.333   0.749   1.904 -0.8479 -0.2335  0.8968
59197SOL     OW87520   2.347   9.156  13.043 -0.4577 -0.6850  0.1028
59197SOL    HW187521   2.410   9.190  13.106 -0.7883  1.6759 -0.7162
59197SOL    HW287522   2.270   9.133  13.095 -0.1835 -0.2105  0.7269
59198SOL     OW87523   7.798  11.448   6.516  0.4323  0.0212 -0.0889
59198SOL    HW187524   7.714  11.406   6.496  0.2431  0.3305  0.0457
59198SOL    HW287525   7.843  11.385   6.573 -0.3476  0.4998  1.1019
59199SOL     OW87526   9.519   6.799   7.344 -0.0853  0.2038 -0.6479
59199SOL    HW187527   9.558   6.841   7.420 -1.7310 -0.8167  0.8282
59199SOL    HW287528   9.593   6.783   7.285  1.3866  0.1997  1.1217
59200SOL     OW87529   5.444  13.239   2.963 -0.3742 -0.0560 -0.1321
59200SOL    HW187530   5.522  13.242   3.018  0.4184 -0.5178 -1.2127
59200SOL    HW287531   5.376  13.282   3.016  1.0904  2.2027  0.0257
59201SOL     OW87532   3.781   0.570   0.997 -0.0961 -0.2461  0.2341
59201SOL    HW187533   3.858   0.514   0.999 -0.2594 -0.4688  2.0384
59201SOL    HW287534   3.761   0.580   0.904 -0.2008 -3.3681 -0.1884
59202SOL     OW87535  10.839  11.486   3.144 -0.0704  0.0560  0.0083
59202SOL    HW187536  10.812  11.568   3.103 -1.0467 -0.2839 -0.0530
59202SOL    HW287537  10.794  11.485   3.229  0.3893 -0.1567  0.2568
59203SOL     OW87538  11.099   4.976   7.308  0.4452 -0.2948 -0.1869
59203SOL    HW187539  11.154   4.983   7.386 -0.4670  0.2429  0.4250
59203SOL    HW287540  11.027   5.037   7.324  0.4950  0.1983 -1.6658
59204SOL     OW87541   3.321   7.238  11.467  0.0562  0.0707  0.5822
59204SOL    HW187542   3.354   7.328  11.461 -0.0555  0.0250 -1.5477
59204SOL    HW287543   3.233   7.242  11.429  0.2312 -1.0006  0.0182
59205SOL     OW87544  11.494   3.761  11.737  0.6268  0.0123 -0.3948
59205SOL    HW187545  11.480   3.716  11.821 -1.9381 -0.0170 -0.7408
59205SOL    HW287546  11.545   3.699  11.685  0.3799 -0.8996  0.4146
59206SOL     OW87547   8.652  13.133  10.317 -0.2519 -0.0774  0.2125
59206SOL    HW187548   8.631  13.205  10.377  0.5571  0.7632 -0.5030
59206SOL    HW287549   8.603  13.153  10.237 -0.2439 -0.4835  0.1014
59207SOL     OW87550   9.306  10.018   4.048 -0.2961  0.3405  0.1953
59207SOL    HW187551   9.279   9.928   4.061  1.2956 -0.1083  0.6378
59207SOL    HW287552   9.246  10.069   4.102 -0.7153 -0.5124  0.5515
59208SOL     OW87553   3.808   2.134   1.068 -0.4977  0.0977  0.3590
59208SOL    HW187554   3.828   2.041   1.078  0.8192  0.3863  0.6075
59208SOL    HW287555   3.894   2.177   1.066 -1.1043  1.4728  1.8085
59209SOL     OW87556   7.563   7.192   8.055 -0.2318 -0.3411 -0.2635
59209SOL    HW187557   7.516   7.114   8.027  2.0361 -0.8242 -3.1621
59209SOL    HW287558   7.633   7.159   8.112 -0.5391 -0.1753  0.2111
59210SOL     OW87559   8.554   5.137   5.622 -0.7551 -0.2899 -0.3066
59210SOL    HW187560   8.537   5.219   5.574  1.9067  0.6370  0.1249
59210SOL    HW287561   8.617   5.162   5.690  0.8125 -2.8376 -0.6979
59211SOL     OW87562   6.377  10.182   2.247 -0.2875 -0.1306 -0.0865
59211SOL    HW187563   6.396  10.246   2.178  1.9061  1.7007  2.0357
59211SOL    HW287564   6.383  10.232   2.329  0.2705 -2.7956  1.6235
59212SOL     OW87565  11.951   4.680  13.189 -0.9306 -0.8637  0.0257
59212SOL    HW187566  11.939   4.759  13.242 -0.6277 -0.6722 -0.1850
59212SOL    HW287567  12.035   4.645  13.218 -1.1646 -1.2232  0.2632
59213SOL     OW87568   2.986   2.764   5.810  0.3049  0.4158 -0.0082
59213SOL    HW187569   2.915   2.705   5.833 -0.0034 -0.3390 -2.5310
59213SOL    HW287570   3.065   2.710   5.816  0.2223  0.2146 -0.5873
59214SOL     OW87571   5.126   3.479   0.850  0.4166 -0.3819  0.2628
59214SOL    HW187572   5.164   3.435   0.926 -0.2832 -0.0333  0.8262
59214SOL    HW287573   5.147   3.571   0.862  1.8108 -0.5190 -0.8774
59215SOL     OW87574   3.249   8.432  12.466  0.6379 -0.1761  0.3319
59215SOL    HW187575   3.295   8.457  12.546  0.0256  0.7750  0.4042
59215SOL    HW287576   3.308   8.458  12.395  0.0579  1.4796  0.4095
59216SOL     OW87577   0.560   0.620   9.631 -0.1495  0.3221 -0.3338
59216SOL    HW187578   0.613   0.563   9.575  0.0087 -0.7269  0.8274
59216SOL    HW287579   0.471   0.611   9.597 -0.5430 -2.4423  1.1169
59217SOL     OW87580   1.062   6.657   8.942  0.3071  0.2829  0.1964
59217SOL    HW187581   1.143   6.689   8.982 -0.0271  0.6663  0.5803
59217SOL    HW287582   1.058   6.565   8.967 -0.8100  0.9240  2.6315
59218SOL     OW87583   0.526  12.819   9.254 -0.9192  0.4841  0.6240
59218SOL    HW187584   0.602  12.833   9.311  0.0765 -0.2220 -0.4627
59218SOL    HW287585   0.522  12.897   9.199 -0.9620  0.5177  0.6750
59219SOL     OW87586   3.347   6.236  12.489  0.3235 -0.5506 -0.3061
59219SOL    HW187587   3.412   6.280  12.435 -0.0162  1.1844  0.6202
59219SOL    HW287588   3.380   6.244  12.579 -0.8352 -0.2199  0.1138
59220SOL     OW87589   8.688  11.082   8.951 -0.0521 -0.3899 -0.5640
59220SOL    HW187590   8.754  11.023   8.913  1.2106  0.6786 -0.0923
59220SOL    HW287591   8.617  11.082   8.887  1.2477 -0.0264 -2.0696
59221SOL     OW87592  11.263   3.006   3.803  0.2106  0.0529 -0.1096
59221SOL    HW187593  11.271   2.924   3.853  0.7142  0.3754  0.3513
59221SOL    HW287594  11.233   3.070   3.868  0.7685  0.4517 -0.2404
59222SOL     OW87595   5.617   5.952   7.622  0.4197  0.1511 -0.2436
59222SOL    HW187596   5.685   5.900   7.664 -0.4491 -0.6719  0.1998
59222SOL    HW287597   5.652   5.973   7.536  1.0029 -0.7418 -0.2404
59223SOL     OW87598  10.754  12.875   8.402 -0.3027  0.4087  0.3442
59223SOL    HW187599  10.727  12.928   8.477 -1.6189  1.3802 -0.7480
59223SOL    HW287600  10.747  12.934   8.327 -0.1870 -0.8541 -0.7090
59224SOL     OW87601   4.100   2.019  12.684 -0.2246  0.4133  0.0836
59224SOL    HW187602   4.072   2.056  12.768  0.9002  1.3293  0.0700
59224SOL    HW287603   4.191   1.992  12.699  0.2758  1.3796 -1.0840
59225SOL     OW87604   4.995   2.161   9.955 -0.0530 -0.0308 -0.5384
59225SOL    HW187605   4.962   2.211  10.029 -0.4016 -2.2500  0.9227
59225SOL    HW287606   5.069   2.212   9.922 -0.9677  1.8729  0.1987
59226SOL     OW87607   3.439   0.251   8.637 -0.4739  0.0966 -0.0306
59226SOL    HW187608   3.421   0.159   8.619 -0.1210  0.0667 -0.2360
59226SOL    HW287609   3.533   0.255   8.651 -0.2132  0.6808 -1.6796
59227SOL     OW87610   9.821   5.781  12.221 -0.0060 -0.4642 -0.6001
59227SOL    HW187611   9.742   5.731  12.199 -1.7038  1.7238  0.2487
59227SOL    HW287612   9.815   5.860  12.167  2.3331 -0.8377 -1.5018
59228SOL     OW87613  11.692  12.209  10.929 -0.0151  0.4835  0.1033
59228SOL    HW187614  11.697  12.178  11.019  2.7868  1.7701  0.5136
59228SOL    HW287615  11.655  12.136  10.880 -1.2441 -0.3841  2.2060
59229SOL     OW87616   4.727   5.640   5.010 -0.0305 -0.1427  0.5670
59229SOL    HW187617   4.707   5.689   4.930 -0.1700  0.4340  0.9514
59229SOL    HW287618   4.651   5.584   5.023  0.6659 -1.4226 -0.5755
59230SOL     OW87619  13.289   0.778  13.245  0.3399 -0.0456 -0.0362
59230SOL    HW187620  13.329   0.792  13.159 -3.1702  0.3008 -1.8422
59230SOL    HW287621  13.285   0.866  13.284  0.7944  0.0058 -0.1069
59231SOL     OW87622  10.218  11.133   2.631  0.2708 -0.7439 -0.0024
59231SOL    HW187623  10.143  11.123   2.690  0.8710 -2.3809  0.5303
59231SOL    HW287624  10.186  11.100   2.546  0.0581 -0.4022 -0.0562
59232SOL     OW87625   1.417  10.868   8.400  0.8077 -0.4031 -0.3311
59232SOL    HW187626   1.509  10.841   8.393  0.8890 -0.1696 -0.1569
59232SOL    HW287627   1.403  10.885   8.493  0.7118 -0.0066 -0.4129
59233SOL     OW87628   6.607   0.723   5.845 -0.9027 -0.1946  0.1771
59233SOL    HW187629   6.559   0.802   5.872  0.8932  0.8223  0.5062
59233SOL    HW287630   6.551   0.651   5.874 -1.7133  0.9361  1.5776
59234SOL     OW87631   8.931   6.155   1.208  0.1461 -0.1958  0.1949
59234SOL    HW187632   9.019   6.187   1.227 -0.5502  2.2541 -0.4043
59234SOL    HW287633   8.943   6.095   1.134  1.1573  1.5728 -1.1594
59235SOL     OW87634  12.285   8.793   6.108  0.4139  0.0674 -0.1501
59235SOL    HW187635  12.322   8.759   6.189 -0.4760  2.7983  1.5214
59235SOL    HW287636  12.361   8.821   6.056  1.0110 -2.0885 -0.5533
59236SOL     OW87637  12.259  12.157  10.113  0.3557  0.0877  0.5053
59236SOL    HW187638  12.171  12.188  10.091 -0.6205 -2.6628  0.2303
59236SOL    HW287639  12.295  12.126  10.030  0.7263 -0.7891  0.9818
59237SOL     OW87640   7.046   2.594  10.783  0.2894  0.3853  0.4412
59237SOL    HW187641   6.962   2.547  10.777 -0.7522  2.0535  1.1123
59237SOL    HW287642   7.046   2.632  10.871  0.1986  3.1005 -0.6296
59238SOL     OW87643   8.056  11.316   3.653  0.4057 -0.3857  0.9358
59238SOL    HW187644   8.083  11.343   3.741  0.5819  0.6964  0.5558
59238SOL    HW287645   7.966  11.348   3.645  0.6667  0.2405  0.4294
59239SOL     OW87646   1.504  10.886   5.598  0.9165  0.3404 -0.5905
59239SOL    HW187647   1.599  10.891   5.610  0.8351 -0.9768  1.1693
59239SOL    HW287648   1.478  10.808   5.648 -1.0366  0.3648 -1.4585
59240SOL     OW87649   7.777  10.553   9.004 -0.2677  0.1802 -0.2298
59240SOL    HW187650   7.865  10.553   9.042 -0.0451  1.8008 -0.6507
59240SOL    HW287651   7.722  10.509   9.068  0.7761 -0.4821  0.2265
59241SOL     OW87652   2.613   1.127   5.379  0.1786 -0.4519  0.2780
59241SOL    HW187653   2.647   1.211   5.347 -0.0163 -0.2580  0.5715
59241SOL    HW287654   2.629   1.066   5.308 -0.4573  0.0162 -0.2814
59242SOL     OW87655  12.003   9.143   3.506  0.2311  0.0262 -0.4221
59242SOL    HW187656  11.920   9.095   3.516  0.5203 -0.0424  2.9253
59242SOL    HW287657  12.069   9.074   3.502  0.3508  0.0823  0.4099
59243SOL     OW87658  10.655   3.206   6.885 -0.3762  0.3541 -0.1127
59243SOL    HW187659  10.732   3.151   6.897 -1.0416 -0.3706  0.9676
59243SOL    HW287660  10.687   3.280   6.833  0.6649 -0.7413 -1.0833
59244SOL     OW87661   9.244   5.052  10.087 -0.0647 -0.0184 -0.4309
59244SOL    HW187662   9.327   5.070  10.042 -0.7234  2.2747 -0.8846
59244SOL    HW287663   9.216   5.138  10.120 -1.5129 -0.9931  1.0594
59245SOL     OW87664  12.269   8.788   4.342 -0.2945  0.5129 -0.4871
59245SOL    HW187665  12.307   8.707   4.308  1.2275  0.7042  0.6794
59245SOL    HW287666  12.199   8.759   4.402 -1.5161  0.1495 -2.0109
59246SOL     OW87667   1.269   7.070   0.541  0.1016  0.2646 -0.3116
59246SOL    HW187668   1.283   6.993   0.486  1.0978  1.6518 -2.0968
59246SOL    HW287669   1.333   7.134   0.510 -1.1717  2.0717  0.6144
59247SOL     OW87670  13.292   2.367   8.503 -0.2029 -0.5790  0.0828
59247SOL    HW187671  13.381   2.355   8.536  0.0950  0.8896 -0.0807
59247SOL    HW287672  13.242   2.399   8.578 -0.0245  0.7668 -0.3466
59248SOL     OW87673  11.608   8.145  11.363  0.1138  0.3757 -0.6818
59248SOL    HW187674  11.556   8.143  11.282 -0.4329 -0.9153 -0.3168
59248SOL    HW287675  11.687   8.193  11.338  0.3982 -0.8310 -2.2768
59249SOL     OW87676  11.455   8.354   3.848  0.0408  0.0813  0.2866
59249SOL    HW187677  11.396   8.345   3.922 -1.1845 -1.0940 -0.7665
59249SOL    HW287678  11.398   8.368   3.773  1.0367 -1.4672 -0.8301
59250SOL     OW87679   4.105   8.528   6.357 -0.3499  0.3425 -0.7145
59250SOL    HW187680   4.066   8.560   6.438  3.4785  1.7249  0.7931
59250SOL    HW287681   4.133   8.439   6.377  0.1031  0.4873 -0.7023
59251SOL     OW87682   3.197   5.243   4.535 -0.3345  0.7102 -0.0874
59251SOL    HW187683   3.212   5.162   4.583 -0.0059  0.6002 -0.3756
59251SOL    HW287684   3.156   5.215   4.453 -1.9305  0.9797  0.5748
59252SOL     OW87685  13.266   0.989   4.479 -0.0005 -0.2135 -0.0713
59252SOL    HW187686  13.286   1.051   4.409 -0.9735  0.1857 -0.0111
59252SOL    HW287687  13.351   0.952   4.503  0.6232  1.1747 -0.0283
59253SOL     OW87688  12.885   0.354   7.676 -0.1460  0.5343  0.4508
59253SOL    HW187689  12.955   0.291   7.655 -1.2317 -0.5373 -0.1034
59253SOL    HW287690  12.807   0.317   7.633 -0.9557  1.9300  0.6828
59254SOL     OW87691   1.696   3.059   9.032  0.2886  0.0786  0.0878
59254SOL    HW187692   1.605   3.031   9.041  0.5360 -0.4197  1.2499
59254SOL    HW287693   1.691   3.149   9.002 -0.6380  0.6776  1.8846
59255SOL     OW87694   1.150   5.669   1.798  0.3878 -0.2577  0.0598
59255SOL    HW187695   1.170   5.653   1.890  1.2624  1.2760  0.1731
59255SOL    HW287696   1.232   5.650   1.752  0.1930 -0.2394 -0.2966
59256SOL     OW87697   4.479  12.561   3.368 -0.0731  0.0771  0.4184
59256SOL    HW187698   4.471  12.516   3.284  0.9165 -0.3943  0.5622
59256SOL    HW287699   4.501  12.492   3.431  1.0231  0.6761  0.7218
59257SOL     OW87700   1.133   4.318  12.444  0.0839 -0.6888  0.3786
59257SOL    HW187701   1.086   4.238  12.469 -0.1651 -0.2027  1.5244
59257SOL    HW287702   1.069   4.388  12.451 -0.4635 -0.6313 -3.1883
59258SOL     OW87703   6.694   6.679   3.515 -0.0831 -0.4130 -0.7391
59258SOL    HW187704   6.619   6.623   3.498  0.0693 -0.7422 -0.3505
59258SOL    HW287705   6.666   6.736   3.588  0.6491 -1.7796  0.6720
59259SOL     OW87706   8.925   7.051   3.606 -0.3256 -0.1088 -0.2339
59259SOL    HW187707   8.837   7.062   3.641  0.2817  0.2978  1.2599
59259SOL    HW287708   8.940   6.957   3.607 -0.1107 -0.0816  1.2376
59260SOL     OW87709  10.017   4.213   5.501  0.2206 -0.1690  0.0521
59260SOL    HW187710  10.041   4.266   5.577  0.6685  0.0733 -0.2548
59260SOL    HW287711   9.969   4.273   5.444 -0.4478 -0.4502  0.3094
59261SOL     OW87712  10.634   9.379  10.787 -0.1155 -0.2383 -0.0898
59261SOL    HW187713  10.665   9.329  10.863  2.1154 -1.0035 -1.3971
59261SOL    HW287714  10.559   9.330  10.755 -1.9407  0.7918  2.2745
59262SOL     OW87715   9.906  12.959   4.955 -0.1035  0.1618 -0.2641
59262SOL    HW187716   9.907  12.955   5.051 -1.6997 -0.6092 -0.2388
59262SOL    HW287717   9.995  12.935   4.929  0.5680  1.0996  1.0293
59263SOL     OW87718   0.115   2.828  12.724  0.6561 -0.9178  0.1816
59263SOL    HW187719   0.110   2.836  12.628 -0.5355 -0.1388  0.2898
59263SOL    HW287720   0.070   2.746  12.743  0.0165 -0.5804  0.1413
59264SOL     OW87721  11.210   6.987   2.754  0.2738  1.3127 -0.0115
59264SOL    HW187722  11.162   6.971   2.836 -0.0235  2.9431  0.1709
59264SOL    HW287723  11.210   6.903   2.709 -1.2153  0.8441  0.8083
59265SOL     OW87724  11.134   0.114   9.904  0.3426  0.1843 -0.5166
59265SOL    HW187725  11.188   0.178   9.951 -0.8272 -0.0926  1.3343
59265SOL    HW287726  11.048   0.121   9.945 -0.0193 -2.0257 -0.7815
59266SOL     OW87727   5.773   1.974   6.868 -0.0469 -0.0412 -0.2745
59266SOL    HW187728   5.749   1.988   6.777 -1.1826 -0.2595 -0.0257
59266SOL    HW287729   5.773   1.879   6.878  0.7749 -0.0438 -0.2130
59267SOL     OW87730   0.514   1.901   3.876  0.1953  0.8032  0.3378
59267SOL    HW187731   0.569   1.828   3.849 -0.1088 -0.2941  2.5034
59267SOL    HW287732   0.575   1.965   3.913  0.3466  1.2281 -0.6028
59268SOL     OW87733   0.969   1.563   1.423 -0.1442 -0.0984  0.2528
59268SOL    HW187734   0.878   1.537   1.410 -0.7230  1.8397  0.1522
59268SOL    HW287735   0.982   1.638   1.364  1.3069  0.0952  0.7643
59269SOL     OW87736   6.545   9.221   0.429 -0.1884  0.0140 -0.0126
59269SOL    HW187737   6.604   9.184   0.494  1.8078  0.2060 -1.6160
59269SOL    HW287738   6.554   9.316   0.438 -1.8725  0.1076  1.0895
59270SOL     OW87739  10.259   5.155  12.389  1.0152 -0.1939 -0.2913
59270SOL    HW187740  10.212   5.142  12.471  0.1884  1.7551 -0.3939
59270SOL    HW287741  10.341   5.198  12.414  0.5393  0.8598 -0.5131
59271SOL     OW87742   6.067  12.389   4.150  0.1475  0.1306  0.5132
59271SOL    HW187743   6.138  12.415   4.209 -0.3002  2.2492  0.1702
59271SOL    HW287744   6.006  12.462   4.152 -0.9772 -0.7362 -0.8699
59272SOL     OW87745  12.888  11.994   2.136 -0.0693  0.1470 -0.7442
59272SOL    HW187746  12.851  12.010   2.049  1.0277  1.8968 -0.9400
59272SOL    HW287747  12.979  12.025   2.130  0.3740 -0.7532  0.7068
59273SOL     OW87748   4.321   3.841   2.596  0.0069  0.1572  0.3767
59273SOL    HW187749   4.254   3.855   2.662 -0.4176  0.1964 -0.0555
59273SOL    HW287750   4.326   3.746   2.586  0.6690  0.1119  1.0630
59274SOL     OW87751  12.725   1.987   2.755  0.3774 -0.4432  0.1013
59274SOL    HW187752  12.709   2.081   2.755  1.1859 -0.2965  0.5871
59274SOL    HW287753  12.819   1.979   2.740  0.0906 -1.2352 -1.5861
59275SOL     OW87754  13.163   4.429   7.561 -0.6444 -0.4362 -0.0473
59275SOL    HW187755  13.115   4.486   7.501 -1.0785  0.6759  1.3184
59275SOL    HW287756  13.241   4.479   7.585  0.5900 -1.6931 -1.2096
59276SOL     OW87757   5.446  11.373   8.160 -0.3453  0.0032  0.0464
59276SOL    HW187758   5.481  11.355   8.073 -0.0981  2.2974 -0.3970
59276SOL    HW287759   5.405  11.291   8.187  0.2017 -0.9786 -1.9123
59277SOL     OW87760  13.264   7.952  10.618  0.3588  0.0738 -0.0325
59277SOL    HW187761  13.174   7.933  10.592  1.1509 -3.2141 -0.8678
59277SOL    HW287762  13.283   7.889  10.688  1.3122  2.3904  1.9455
59278SOL     OW87763   1.030   6.818   3.756  0.0008  0.0844 -0.1629
59278SOL    HW187764   0.984   6.737   3.736  1.3007 -0.5769 -0.5558
59278SOL    HW287765   0.975   6.887   3.717 -0.1256 -0.7674 -1.5528
59279SOL     OW87766   5.069   7.354   1.781  0.1203  0.0350 -0.6601
59279SOL    HW187767   5.134   7.407   1.827 -0.4053  0.4583 -0.3847
59279SOL    HW287768   5.119   7.302   1.719  0.5159  2.2214 -2.3034
59280SOL     OW87769   5.605   1.568  11.056 -0.0543 -0.0783  0.3413
59280SOL    HW187770   5.657   1.634  11.010 -0.1108 -0.0290  0.3465
59280SOL    HW287771   5.668   1.501  11.083 -0.0248 -0.1236  0.1619
59281SOL     OW87772  13.011   6.921   7.484  0.7909 -0.4823  0.6843
59281SOL    HW187773  13.038   7.001   7.528 -1.4138  0.5097  0.4033
59281SOL    HW287774  13.020   6.853   7.550  4.6051 -0.4773  0.3404
59282SOL     OW87775   8.600   0.663   6.367 -0.0157  0.1872 -0.5726
59282SOL    HW187776   8.578   0.616   6.447 -0.5190 -0.2970 -0.9891
59282SOL    HW287777   8.516   0.675   6.323  0.3724 -0.4496 -1.5145
59283SOL     OW87778   5.918   2.428   5.856  0.9058 -0.0519 -0.5126
59283SOL    HW187779   5.938   2.335   5.843 -1.7360 -0.9276  0.8126
59283SOL    HW287780   5.857   2.450   5.786 -0.8674 -0.2686  0.8765
59284SOL     OW87781   9.750   0.790  12.945 -0.0027 -0.4349 -0.0064
59284SOL    HW187782   9.739   0.792  13.040  0.5235 -1.4492  0.0899
59284SOL    HW287783   9.684   0.851  12.912  0.2123  0.3927  1.0353
59285SOL     OW87784   2.502   4.573  12.841  0.0356  0.4352  0.3448
59285SOL    HW187785   2.587   4.540  12.868 -0.8053 -0.3906  2.0908
59285SOL    HW287786   2.440   4.536  12.903 -1.7773  0.0242 -1.5960
59286SOL     OW87787  10.331   6.377   0.419  0.8054  0.0320  0.0725
59286SOL    HW187788  10.240   6.406   0.411  0.8223  0.1627  0.3627
59286SOL    HW287789  10.325   6.281   0.418  0.7002  0.0380 -0.2900
59287SOL     OW87790   7.018   1.511   9.883 -0.5327 -0.3492 -0.2183
59287SOL    HW187791   6.993   1.452   9.812 -0.5866 -0.3596 -0.1907
59287SOL    HW287792   7.075   1.576   9.842  0.4952 -1.0943 -0.0266
59288SOL     OW87793   0.227   3.606  11.161 -0.3983 -0.0039 -0.7905
59288SOL    HW187794   0.154   3.565  11.208  0.6416 -1.1342 -0.1277
59288SOL    HW287795   0.301   3.548  11.174  0.3172  0.4126 -2.5942
59289SOL     OW87796   0.980   6.301   1.407 -0.2685  0.1107 -0.0525
59289SOL    HW187797   0.974   6.326   1.500  0.2949 -0.4194  0.1305
59289SOL    HW287798   1.072   6.311   1.385 -0.5459  1.1181 -0.8221
59290SOL     OW87799   5.622   9.383  11.443 -0.4920  0.7340 -0.4052
59290SOL    HW187800   5.551   9.404  11.503  1.0160 -0.3600  1.9215
59290SOL    HW287801   5.685   9.335  11.497  1.3991  0.4918 -2.6806
59291SOL     OW87802  10.942  12.379   0.544 -0.0322  0.2887 -0.3681
59291SOL    HW187803  10.939  12.285   0.562 -1.5919  0.5351  0.8532
59291SOL    HW287804  11.022  12.391   0.493  0.3320 -1.6554 -0.3251
59292SOL     OW87805   1.010  12.305   5.848 -0.1691  0.0913 -0.2746
59292SOL    HW187806   1.083  12.286   5.789 -1.1389  0.0738 -1.5131
59292SOL    HW287807   0.932  12.291   5.795 -1.1595 -1.4878  1.4563
59293SOL     OW87808   2.048  12.433   3.767 -0.1638 -0.4111  0.0119
59293SOL    HW187809   1.982  12.468   3.706  2.0864 -0.3877 -2.6066
59293SOL    HW287810   2.083  12.510   3.811 -1.5656 -0.3957  1.2034
59294SOL     OW87811   6.040   2.978   4.642  0.0822  0.1683  0.1273
59294SOL    HW187812   6.008   2.944   4.558  1.8833  0.0763 -0.5704
59294SOL    HW287813   5.987   2.933   4.708 -2.1843  1.1185 -0.9369
59295SOL     OW87814  11.099   2.292  11.151  0.0654  0.5760 -0.1100
59295SOL    HW187815  11.053   2.298  11.067  1.7107 -0.8539 -1.1676
59295SOL    HW287816  11.159   2.366  11.151 -0.3894  0.9518  0.1183
59296SOL     OW87817   2.916   3.408   9.369 -0.4316 -0.3723 -0.0422
59296SOL    HW187818   2.956   3.392   9.284 -0.1718 -0.4738  0.0969
59296SOL    HW287819   2.988   3.437   9.425 -1.1611  3.5937 -0.8347
59297SOL     OW87820   0.538   7.893   0.037 -0.5965 -0.0534 -0.3888
59297SOL    HW187821   0.526   7.825   0.102 -0.9029 -0.3173 -0.7191
59297SOL    HW287822   0.457   7.944   0.040 -1.7539 -1.6050 -2.3475
59298SOL     OW87823  11.706  10.656   2.976 -1.0550  0.5864  0.1506
59298SOL    HW187824  11.782  10.617   3.019 -2.0640 -0.9653  0.6232
59298SOL    HW287825  11.670  10.716   3.042 -0.9971  0.3281  0.4195
59299SOL     OW87826   4.580  12.027  10.588 -0.0786 -0.5697 -0.6804
59299SOL    HW187827   4.488  12.048  10.575  0.1337  1.2420  0.3979
59299SOL    HW287828   4.623  12.063  10.510 -0.0864  0.2364 -0.3207
59300SOL     OW87829   4.944  10.380   9.575 -0.1184 -0.0161  0.2482
59300SOL    HW187830   4.934  10.451   9.639  0.5994  0.7646 -0.4849
59300SOL    HW287831   4.979  10.307   9.626 -2.7093 -0.5517  1.4472
59301SOL     OW87832   7.153  13.047  11.423 -0.3307  0.8537 -0.2305
59301SOL    HW187833   7.163  12.952  11.420 -1.8729  0.6339  0.4111
59301SOL    HW287834   7.226  13.078  11.475  0.5752  0.0999 -1.0185
59302SOL     OW87835   4.462   1.623  10.407 -0.0233  0.0994 -0.0728
59302SOL    HW187836   4.531   1.604  10.471  0.3102 -1.6351 -0.8938
59302SOL    HW287837   4.454   1.718  10.408  1.7505  0.2731  0.7073
59303SOL     OW87838   0.345   5.399   4.588  0.1162 -0.2260 -0.3053
59303SOL    HW187839   0.320   5.377   4.678  0.4287  1.1817  0.1576
59303SOL    HW287840   0.348   5.315   4.543 -0.0797 -0.9612  0.9885
59304SOL     OW87841   7.031  10.570   1.039  0.2187 -0.8637 -0.3843
59304SOL    HW187842   6.976  10.617   0.977  0.9436 -1.7414 -1.7500
59304SOL    HW287843   6.972  10.509   1.083 -0.5098  0.5144  0.6150
59305SOL     OW87844   9.170   9.186  11.971 -0.4435 -0.1948  0.5706
59305SOL    HW187845   9.247   9.137  11.940  0.0361 -0.1454  1.6393
59305SOL    HW287846   9.203   9.274  11.988 -0.3545 -0.5536  2.4768
59306SOL     OW87847   0.133   9.408  10.148  0.6716  0.3741 -0.2973
59306SOL    HW187848   0.134   9.321  10.108 -0.3424 -0.9937  2.3590
59306SOL    HW287849   0.205   9.407  10.211 -0.9534  0.3599  1.6821
59307SOL     OW87850   4.766  11.331   7.214  0.5445  0.0818 -0.0999
59307SOL    HW187851   4.844  11.285   7.182  0.1244 -0.6481 -0.0975
59307SOL    HW287852   4.798  11.383   7.288  1.1414  0.2504 -0.4728
59308SOL     OW87853  10.616  10.080   3.054 -0.2620 -0.0189 -0.1282
59308SOL    HW187854  10.522  10.069   3.040 -0.1016 -2.4542  0.2845
59308SOL    HW287855  10.654  10.077   2.967 -0.3775 -1.8102 -0.1536
59309SOL     OW87856   7.114   8.300  10.893 -0.4935  0.0121 -0.3352
59309SOL    HW187857   7.051   8.308  10.820 -1.0279 -1.1415 -0.0251
59309SOL    HW287858   7.059   8.283  10.969  0.1207  0.3908  0.1968
59310SOL     OW87859  11.662   6.659   8.269 -0.1354  0.0346  0.4260
59310SOL    HW187860  11.697   6.660   8.358  0.1631  0.2455  0.3032
59310SOL    HW287861  11.628   6.570   8.259  2.7814 -1.1030 -0.4038
59311SOL     OW87862   5.509   5.858  13.227 -0.0674 -0.0011 -0.3587
59311SOL    HW187863   5.527   5.873  13.134  2.0413 -0.1562 -0.0209
59311SOL    HW287864   5.595   5.851  13.267 -0.9418 -0.0284  1.6149
59312SOL     OW87865   0.864   8.296   8.520 -0.0177  0.0036  0.1087
59312SOL    HW187866   0.851   8.235   8.448  0.7186  0.9723 -0.8823
59312SOL    HW287867   0.824   8.253   8.596  0.6544 -1.7787 -0.4941
59313SOL     OW87868   0.744   0.090  12.821  0.3497  0.1786 -0.3125
59313SOL    HW187869   0.703   0.048  12.897  1.0364 -1.1177 -0.6155
59313SOL    HW287870   0.811   0.147  12.858  0.1918  0.1174  0.0736
59314SOL     OW87871   9.235   6.831   6.639 -0.1834 -0.0996  0.3070
59314SOL    HW187872   9.329   6.812   6.643 -0.4939 -1.7751  0.4200
59314SOL    HW287873   9.217   6.845   6.546  0.1352 -0.0318  0.2543
59315SOL     OW87874  10.039   6.262  11.644 -0.7046  0.1062  0.4827
59315SOL    HW187875   9.960   6.251  11.698 -1.8080 -1.1410 -1.3034
59315SOL    HW287876  10.101   6.198  11.679 -0.2814  1.2974  2.0945
59316SOL     OW87877   6.663   2.135   1.857 -0.7511 -0.2434  0.3286
59316SOL    HW187878   6.585   2.171   1.898  0.6410  2.4309  0.8874
59316SOL    HW287879   6.712   2.094   1.929  0.3880  2.0314  0.9470
59317SOL     OW87880   0.712  10.683   2.991 -0.2329  0.1175  0.3918
59317SOL    HW187881   0.739  10.679   3.082  0.1079  1.3340  0.3676
59317SOL    HW287882   0.667  10.767   2.983  2.1098  1.3355 -1.1421
59318SOL     OW87883  11.279   2.506   4.464 -0.2493  0.0600 -0.3959
59318SOL    HW187884  11.324   2.524   4.381 -1.4469 -0.4442 -1.1866
59318SOL    HW287885  11.268   2.411   4.465 -1.1174  0.1570 -0.1399
59319SOL     OW87886   3.353   2.610   6.286  0.5975 -0.2013 -0.1834
59319SOL    HW187887   3.401   2.601   6.204  1.9597  1.1284  0.4055
59319SOL    HW287888   3.399   2.680   6.333  0.3581 -1.4469  2.0462
59320SOL     OW87889  13.167   4.636  11.562  0.1985  0.4207  0.1156
59320SOL    HW187890  13.126   4.571  11.619  0.2265 -0.2377 -0.5941
59320SOL    HW287891  13.144   4.607  11.473 -1.5477  2.5159 -0.2052
59321SOL     OW87892  12.525   9.470   2.727  0.3504  0.6425  0.1643
59321SOL    HW187893  12.591   9.517   2.675 -0.1886  0.6373 -0.5371
59321SOL    HW287894  12.527   9.513   2.813  1.5230  0.4041  0.2738
59322SOL     OW87895   9.186   9.656  11.229  0.2534 -0.5464 -0.0613
59322SOL    HW187896   9.200   9.627  11.319 -0.7068 -1.3089 -0.1302
59322SOL    HW287897   9.229   9.741  11.223 -0.6243  0.0415  1.4505
59323SOL     OW87898   7.760   6.949   3.130  0.5001  0.1251  0.1599
59323SOL    HW187899   7.774   6.878   3.192 -4.8867 -0.5297  1.1005
59323SOL    HW287900   7.732   6.906   3.049 -1.3798  1.0392  0.2692
59324SOL     OW87901   1.199   1.386   2.245 -0.2003 -0.2353 -0.0525
59324SOL    HW187902   1.136   1.415   2.179 -0.4267  0.8536  0.6223
59324SOL    HW287903   1.267   1.454   2.244  1.0143 -1.4245 -0.8214
59325SOL     OW87904   4.707   9.785   5.367  0.2855  0.5177 -0.5419
59325SOL    HW187905   4.735   9.863   5.319 -0.5296  0.0988 -1.7550
59325SOL    HW287906   4.780   9.724   5.357  0.8114  1.0074  0.1791
59326SOL     OW87907   4.202   9.193  10.049  0.6318 -0.0201 -0.1103
59326SOL    HW187908   4.190   9.283  10.018 -1.1578 -0.1678  0.0277
59326SOL    HW287909   4.194   9.199  10.144 -1.5026 -0.5394 -0.2077
59327SOL     OW87910   3.603   1.763  12.755 -0.0657 -0.6568  0.0452
59327SOL    HW187911   3.584   1.672  12.731  1.7258 -0.6498 -1.6577
59327SOL    HW287912   3.568   1.814  12.682 -0.1922 -0.0496  0.5288
59328SOL     OW87913  13.148  12.574   1.850  0.9878 -0.4411 -0.0934
59328SOL    HW187914  13.153  12.587   1.755  0.4764 -0.8432 -0.1809
59328SOL    HW287915  13.162  12.480   1.862 -0.1767 -0.6066  0.1157
59329SOL     OW87916   1.159  12.903  10.054 -0.1046 -0.1086  0.2437
59329SOL    HW187917   1.180  12.831   9.996  0.6280  0.8331 -0.6803
59329SOL    HW287918   1.243  12.939  10.081 -0.4001 -0.6897  2.1516
59330SOL     OW87919  10.578  12.397   6.450  0.7046  0.3541  0.0124
59330SOL    HW187920  10.668  12.369   6.466 -0.0293 -1.4881  1.1763
59330SOL    HW287921  10.578  12.490   6.472  2.3214  0.3891 -0.0143
59331SOL     OW87922   9.501  12.419   7.144  0.2857  0.3496  0.4452
59331SOL    HW187923   9.492  12.337   7.095  2.2949  0.6084 -0.4530
59331SOL    HW287924   9.417  12.464   7.129  0.0812 -0.4597 -1.1435
59332SOL     OW87925   7.789   3.577   2.395 -0.0076  0.3810  0.2940
59332SOL    HW187926   7.731   3.597   2.468  0.0107 -1.9705  1.0294
59332SOL    HW287927   7.833   3.497   2.421  0.9729  0.2016 -1.7628
59333SOL     OW87928   6.219   0.525   4.394 -0.0215 -0.0921 -0.3157
59333SOL    HW187929   6.272   0.450   4.420 -0.1708  0.0222  0.3182
59333SOL    HW287930   6.240   0.538   4.301  0.5189 -0.4894 -0.2506
59334SOL     OW87931   4.242   2.521  11.507 -0.1919  0.0954  0.3179
59334SOL    HW187932   4.186   2.461  11.459 -1.8248  0.9212  1.1145
59334SOL    HW287933   4.303   2.554  11.441 -0.6228 -0.8331 -0.5755
59335SOL     OW87934   3.474   3.621  12.764  0.3900  0.0916  0.2181
59335SOL    HW187935   3.546   3.646  12.706 -0.2217  1.1045 -0.1368
59335SOL    HW287936   3.405   3.591  12.704  0.2369 -0.1443  0.5092
59336SOL     OW87937  10.775   7.490   3.224  0.2151  0.2778 -0.6345
59336SOL    HW187938  10.730   7.569   3.194  0.4247  0.3754 -0.6967
59336SOL    HW287939  10.821   7.458   3.146 -0.2540 -0.1730 -0.7276
59337SOL     OW87940   6.414  12.638   2.593  0.9542  0.1263 -0.0844
59337SOL    HW187941   6.352  12.564   2.598  0.4403  0.4280 -1.5148
59337SOL    HW287942   6.381  12.701   2.657  1.2134 -0.7376  0.9252
59338SOL     OW87943  10.155   4.194   7.123  0.4611 -0.1206 -0.3348
59338SOL    HW187944  10.222   4.169   7.186 -0.5632  0.2734  0.9625
59338SOL    HW287945  10.073   4.192   7.173 -0.7872 -2.2154 -2.2294
59339SOL     OW87946   2.370  13.005  10.666 -0.1326 -0.2499  0.1603
59339SOL    HW187947   2.305  12.942  10.635 -0.1499 -0.8895  1.4198
59339SOL    HW287948   2.338  13.033  10.752 -0.1587  1.5554 -0.3933
59340SOL     OW87949   4.311   7.346   9.520  0.0820  0.0962 -0.1642
59340SOL    HW187950   4.247   7.316   9.456  1.0730  0.0104 -1.1486
59340SOL    HW287951   4.351   7.265   9.553 -0.1978  0.1554  0.3399
59341SOL     OW87952  12.546   4.351  11.226  0.8651  0.5090  0.1893
59341SOL    HW187953  12.457   4.386  11.220  1.0713  0.8764 -1.1337
59341SOL    HW287954  12.581   4.361  11.137  1.4565 -1.6890  0.1092
59342SOL     OW87955   2.845   6.820   4.802  0.1690 -0.3873 -0.3380
59342SOL    HW187956   2.841   6.789   4.712 -2.5148 -2.7210  0.4570
59342SOL    HW287957   2.919   6.773   4.841  0.5965 -0.2633 -0.9898
59343SOL     OW87958   7.471  11.199   8.176 -0.2983 -0.1423 -0.5920
59343SOL    HW187959   7.432  11.121   8.136 -1.4167  0.0571  0.0504
59343SOL    HW287960   7.420  11.272   8.139 -0.0157  0.1935 -0.3251
59344SOL     OW87961  10.725   6.900   6.216 -0.1046  0.1844 -0.1399
59344SOL    HW187962  10.733   6.836   6.146  1.6508 -1.1689  1.1982
59344SOL    HW287963  10.737   6.849   6.297  0.1410  2.0194  1.0456
59345SOL     OW87964   3.543   3.850   1.055  0.1422 -0.3975 -0.1764
59345SOL    HW187965   3.531   3.858   1.150  1.3075 -0.9724  0.0316
59345SOL    HW287966   3.535   3.939   1.022 -0.7023 -0.2448  0.3961
59346SOL     OW87967   0.937  13.194  11.035 -0.4873 -0.2601  0.1126
59346SOL    HW187968   0.990  13.257  11.083 -0.6811  0.5672 -0.7439
59346SOL    HW287969   0.864  13.174  11.094 -1.2853  1.5265 -0.2034
59347SOL     OW87970   0.929   4.093  13.292 -0.1399 -0.1985 -0.2382
59347SOL    HW187971   0.871   4.112  13.218 -1.5870 -0.3223  0.8188
59347SOL    HW287972   0.904   4.156  13.359  2.0695  0.8104 -0.2612
59348SOL     OW87973  10.879  10.866   6.486 -0.0951 -0.0682 -0.1216
59348SOL    HW187974  10.806  10.905   6.439  0.5634  0.3066 -0.8537
59348SOL    HW287975  10.955  10.918   6.461  0.4575 -0.5550  0.4913
59349SOL     OW87976   5.565  12.808   7.775 -0.2612  0.3677 -0.1334
59349SOL    HW187977   5.523  12.871   7.718 -3.8253  0.6905  2.5524
59349SOL    HW287978   5.507  12.732   7.775  1.5538 -1.1198  0.2661
59350SOL     OW87979   0.425  11.379   0.754  0.2179 -0.1240 -0.3636
59350SOL    HW187980   0.421  11.310   0.821 -0.3619  1.1476  0.9915
59350SOL    HW287981   0.333  11.393   0.731  0.1568  1.3242  0.6422
59351SOL     OW87982   1.236   7.180   3.697 -0.0218  0.0881  0.4346
59351SOL    HW187983   1.269   7.237   3.767  1.0623 -1.1010  0.9209
59351SOL    HW287984   1.266   7.222   3.616 -0.3438  0.8859  0.7142
59352SOL     OW87985   1.378   9.047   1.245 -1.0134 -0.2252 -0.2278
59352SOL    HW187986   1.417   9.098   1.175  1.0745  0.2661  1.1931
59352SOL    HW287987   1.352   9.112   1.311  0.1139 -0.8318  0.8607
59353SOL     OW87988   9.780   8.354   3.459  0.0957 -0.3328 -0.2931
59353SOL    HW187989   9.719   8.346   3.533  0.0639  1.0965 -0.1302
59353SOL    HW287990   9.765   8.275   3.407  0.2136 -1.4570  1.2885
59354SOL     OW87991   3.285   2.756   1.949  0.0869  0.0250  0.0971
59354SOL    HW187992   3.285   2.674   1.998 -0.3513 -0.4821 -0.7150
59354SOL    HW287993   3.362   2.751   1.892  0.1810  0.2752  0.1989
59355SOL     OW87994  10.593   8.757  11.355 -0.5075  0.3486  0.2463
59355SOL    HW187995  10.572   8.664  11.360 -0.2285  0.3319  1.4994
59355SOL    HW287996  10.517   8.797  11.314 -0.1867 -0.5538 -1.3144
59356SOL     OW87997   6.484   8.518  12.995  0.0700  0.7728  0.4771
59356SOL    HW187998   6.464   8.609  13.017 -1.4942  0.1697  1.7368
59356SOL    HW287999   6.490   8.473  13.079  0.1306 -0.4281 -0.1361
59357SOL     OW88000  11.759   7.521   5.084 -0.0217  0.0063  0.4023
59357SOL    HW188001  11.709   7.471   5.149  2.1601 -1.3538  1.1564
59357SOL    HW288002  11.732   7.483   4.999 -0.8990 -0.0761  0.7043
59358SOL     OW88003  10.290   9.861   8.032 -0.1293  0.0451  0.2060
59358SOL    HW188004  10.326   9.948   8.015  0.9481 -0.4682 -0.2004
59358SOL    HW288005  10.196   9.871   8.016  0.2502  0.6160 -1.9751
59359SOL     OW88006   1.653  11.071   1.905 -0.5376  0.1249  0.4997
59359SOL    HW188007   1.635  10.978   1.892 -1.4902  0.1397  1.5203
59359SOL    HW288008   1.611  11.092   1.989 -0.1551  1.4285  0.3919
59360SOL     OW88009   9.777   7.969  12.149  0.0949 -0.3196  0.3747
59360SOL    HW188010   9.792   7.963  12.243 -0.6960  0.4346  0.5701
59360SOL    HW288011   9.710   8.037  12.140  0.0024 -0.5318 -0.7170
59361SOL     OW88012  12.336   6.290   6.490 -0.3318 -0.8241 -0.3167
59361SOL    HW188013  12.297   6.350   6.427 -0.5884  0.2012  0.7878
59361SOL    HW288014  12.419   6.331   6.515 -1.6826  0.5117  2.4257
59362SOL     OW88015   6.742  13.183   0.577 -0.1597 -0.1505 -0.0429
59362SOL    HW188016   6.654  13.217   0.562  0.0230 -0.3289 -1.6486
59362SOL    HW288017   6.773  13.155   0.491  1.6116  0.2489  0.4101
59363SOL     OW88018   1.921   9.980   0.011  0.1298 -0.2339 -0.2751
59363SOL    HW188019   2.004   9.938   0.033  0.9979  0.9840 -1.1031
59363SOL    HW288020   1.946  10.059  -0.037 -1.5288 -0.6260 -1.9287
59364SOL     OW88021   4.962   4.919   1.756 -0.3002  0.1476 -0.3675
59364SOL    HW188022   4.945   4.938   1.664 -0.5072  2.3862  0.0766
59364SOL    HW288023   5.056   4.937   1.768 -0.5434  1.1403  0.1222
59365SOL     OW88024   9.216   0.473   4.233 -0.0386 -0.3822  0.1435
59365SOL    HW188025   9.233   0.543   4.169 -1.3270 -0.9899 -0.9235
59365SOL    HW288026   9.300   0.429   4.243  0.9498  1.6256  1.2675
59366SOL     OW88027   4.274   7.641   6.173 -0.3458 -0.0265  0.3042
59366SOL    HW188028   4.254   7.730   6.202  1.2380  0.4435  0.0168
59366SOL    HW288029   4.212   7.624   6.102 -1.7323  0.2158  1.4017
59367SOL     OW88030   4.687   7.689  10.330  0.2995  0.3337  0.0395
59367SOL    HW188031   4.666   7.720  10.419  0.5805 -0.5394  0.4166
59367SOL    HW288032   4.626   7.617  10.315 -0.8650  1.5137 -1.1337
59368SOL     OW88033   2.120   7.741  12.716  0.1219 -0.0976 -0.1877
59368SOL    HW188034   2.183   7.744  12.644  0.7349 -0.1924  0.3391
59368SOL    HW288035   2.133   7.823  12.764  1.0798 -0.8719  0.9396
59369SOL     OW88036   4.495   7.878  11.503  0.0632  0.0464 -0.0680
59369SOL    HW188037   4.525   7.860  11.414 -0.6259  0.0899 -0.3150
59369SOL    HW288038   4.404   7.849  11.504 -0.7046  2.2936 -0.1028
59370SOL     OW88039   1.662   5.886   0.389  0.6827  0.3612 -0.4868
59370SOL    HW188040   1.638   5.795   0.404 -1.2416  0.7461 -0.9797
59370SOL    HW288041   1.594   5.936   0.435  1.3066  1.5460 -0.8222
59371SOL     OW88042   8.739  12.185   7.208  0.1057  0.1389  0.5397
59371SOL    HW188043   8.692  12.188   7.125  1.9005  0.5632 -0.5047
59371SOL    HW288044   8.716  12.267   7.252  0.0260  0.4327 -0.0426
59372SOL     OW88045   0.960  10.497  13.170 -0.2171  0.4289 -0.3393
59372SOL    HW188046   0.954  10.546  13.251 -0.2758  0.4819 -0.3756
59372SOL    HW288047   1.045  10.453  13.174 -0.2519  0.3736 -0.2168
59373SOL     OW88048  11.917   4.031   0.953 -0.0879 -0.6936  0.0069
59373SOL    HW188049  11.941   3.940   0.938  0.6565 -0.4905 -0.0857
59373SOL    HW288050  12.001   4.075   0.969 -0.5574 -0.3188  1.6484
59374SOL     OW88051  10.126  10.810   3.644  0.3904  0.7032 -0.0438
59374SOL    HW188052  10.172  10.727   3.645 -2.6456 -1.1160  1.6420
59374SOL    HW288053  10.068  10.807   3.721 -1.8090  3.1700 -1.4378
59375SOL     OW88054   4.357   7.009  11.511  0.3919 -0.3425 -0.3581
59375SOL    HW188055   4.338   6.938  11.573  2.2249 -3.0440 -2.6045
59375SOL    HW288056   4.431   7.055  11.549 -0.5057  0.1229  0.9003
59376SOL     OW88057   7.830   6.274  10.218  0.3526  0.5042 -0.1341
59376SOL    HW188058   7.871   6.310  10.297 -0.7550  1.4171  0.0546
59376SOL    HW288059   7.874   6.318  10.145 -0.0676  1.2506  0.0551
59377SOL     OW88060   7.975  10.028   4.365 -0.6593  0.0327 -0.0085
59377SOL    HW188061   8.017   9.995   4.444  1.9943  0.4891 -1.1396
59377SOL    HW288062   7.991  10.123   4.367  1.1845 -0.1541 -1.9534
59378SOL     OW88063   9.875  12.830  10.104 -0.4751 -0.1776  0.4464
59378SOL    HW188064   9.865  12.893  10.032 -2.1839 -0.8033  0.1087
59378SOL    HW288065   9.810  12.762  10.086  1.7735 -2.4648  0.3949
59379SOL     OW88066   2.075   0.840   5.768  0.7182  0.4311  0.5488
59379SOL    HW188067   2.050   0.760   5.814  1.5986 -0.3474 -0.2829
59379SOL    HW288068   2.073   0.908   5.836  1.0484 -0.5063  1.5246
59380SOL     OW88069  12.535  11.644   2.947  0.1958 -0.2390 -0.0117
59380SOL    HW188070  12.565  11.554   2.933  1.6115  0.4147 -1.5141
59380SOL    HW288071  12.463  11.655   2.884  0.5129 -0.0972 -0.3510
59381SOL     OW88072   1.627   8.982   7.160  0.4640 -0.0215  0.6999
59381SOL    HW188073   1.595   8.986   7.250 -1.9221  0.5586 -0.0999
59381SOL    HW288074   1.664   9.069   7.144 -0.4868  0.4012  0.6978
59382SOL     OW88075   7.918  12.997  11.859  0.1201  0.4845 -0.4295
59382SOL    HW188076   7.887  12.907  11.853 -0.4040  0.6908 -0.9329
59382SOL    HW288077   8.013  12.991  11.850 -0.0307  0.1084 -2.0790
59383SOL     OW88078   0.883  10.130  12.909  0.3298  0.3606 -0.0256
59383SOL    HW188079   0.891  10.124  12.813  0.5629 -0.1730  0.0198
59383SOL    HW288080   0.910  10.043  12.940 -1.2458  0.0072  0.4388
59384SOL     OW88081   2.531   1.038   4.556  0.6720  0.7153  0.0199
59384SOL    HW188082   2.462   1.099   4.528  0.2731  1.2140  1.9179
59384SOL    HW288083   2.612   1.081   4.532  0.3576  1.3659  0.0954
59385SOL     OW88084  12.454   2.965   0.850 -0.2999  0.0805  0.3011
59385SOL    HW188085  12.377   2.913   0.826 -0.3324  0.3516 -0.2056
59385SOL    HW288086  12.528   2.905   0.840 -0.5566 -0.5897  2.1210
59386SOL     OW88087   1.410   3.098   8.131  0.2642  0.0413  0.2217
59386SOL    HW188088   1.383   3.007   8.141 -0.3129  0.0284 -1.2558
59386SOL    HW288089   1.346   3.136   8.071  0.0652  1.6279  1.3862
59387SOL     OW88090   4.429   0.111   0.937  0.1969 -0.0135  0.7206
59387SOL    HW188091   4.417   0.018   0.955  2.5250 -0.9590 -1.9607
59387SOL    HW288092   4.520   0.129   0.962  0.2214  1.1864 -0.1425
59388SOL     OW88093  12.956  13.078  12.514  0.4273  0.0696 -0.2501
59388SOL    HW188094  12.989  12.997  12.476 -0.7335 -0.6192  0.1792
59388SOL    HW288095  12.897  13.050  12.584  1.7107  1.2898  1.4093
59389SOL     OW88096   7.144   1.417  11.688  0.3650  0.5302 -0.1576
59389SOL    HW188097   7.172   1.494  11.738 -0.6992  0.7433  0.1295
59389SOL    HW288098   7.149   1.444  11.596 -2.8160  2.0224 -0.0296
59390SOL     OW88099   1.844  12.945   0.237 -0.0271  0.1077  0.2860
59390SOL    HW188100   1.766  12.999   0.226 -0.1471  0.0366  0.7756
59390SOL    HW288101   1.917  13.007   0.236  0.2113 -0.0123 -2.9865
59391SOL     OW88102   5.668   6.142   1.376 -0.0398 -0.3967  0.0087
59391SOL    HW188103   5.616   6.106   1.448 -1.2533 -0.5996 -0.9554
59391SOL    HW288104   5.630   6.228   1.359 -0.1978 -0.6333 -0.8426
59392SOL     OW88105   5.772  10.671   0.088  0.5449  0.1392 -0.2246
59392SOL    HW188106   5.716  10.657   0.164  1.5039  1.0569  0.6952
59392SOL    HW288107   5.860  10.649   0.118  0.7218 -1.1512 -1.6020
59393SOL     OW88108   4.606   7.978   3.398 -0.2242 -0.3597  0.2280
59393SOL    HW188109   4.620   7.982   3.492 -0.8297 -1.3665  0.3649
59393SOL    HW288110   4.614   7.886   3.375  3.8826  0.1559 -1.3606
59394SOL     OW88111   7.274   2.927   2.439 -0.1916  0.1550  0.1672
59394SOL    HW188112   7.179   2.917   2.444 -0.2769  0.7531 -0.1108
59394SOL    HW288113   7.287   3.007   2.388  0.4673 -0.1386 -0.1384
59395SOL     OW88114   5.760  12.826   8.184 -0.4270 -0.0893  0.4780
59395SOL    HW188115   5.745  12.821   8.279  0.3678  1.6235  0.7325
59395SOL    HW288116   5.809  12.907   8.172 -0.7805 -0.1181 -1.4518
59396SOL     OW88117   0.293   5.195   5.203  0.6047 -0.0405 -0.8896
59396SOL    HW188118   0.325   5.122   5.257 -2.2922 -1.2707 -0.6349
59396SOL    HW288119   0.320   5.274   5.249 -0.5238 -1.0473  1.6621
59397SOL     OW88120   5.526   2.186   6.454  0.1217 -0.8290  0.2291
59397SOL    HW188121   5.432   2.200   6.438  0.1604  0.0937  0.7261
59397SOL    HW288122   5.554   2.131   6.381 -0.6219 -0.3577 -0.4402
59398SOL     OW88123   6.817   7.625  11.304  0.1755  0.0398  0.0821
59398SOL    HW188124   6.900   7.610  11.260  0.5204 -0.4312  0.8788
59398SOL    HW288125   6.806   7.549  11.361  0.4102  1.2473  1.8091
59399SOL     OW88126   2.283   3.160   2.710  0.3121 -0.5004 -0.7244
59399SOL    HW188127   2.209   3.149   2.650 -1.3597 -2.5981  1.4794
59399SOL    HW288128   2.265   3.241   2.756  0.4224 -0.0182 -1.5189
59400SOL     OW88129   4.967   6.776   3.214  0.3527  0.3649  0.0046
59400SOL    HW188130   4.992   6.752   3.303  0.5608  2.5256  0.5842
59400SOL    HW288131   5.047   6.765   3.162  0.5287  0.1936  0.3121
59401SOL     OW88132  10.454   6.541   1.996  0.1638 -0.0221 -0.5816
59401SOL    HW188133  10.373   6.539   1.945  0.8686 -3.2607 -1.8109
59401SOL    HW288134  10.518   6.581   1.937  0.1758 -0.5079 -0.9064
59402SOL     OW88135   9.358   0.788  10.692  0.1334 -0.8658 -0.5431
59402SOL    HW188136   9.353   0.702  10.649 -0.1769 -0.5986 -1.0512
59402SOL    HW288137   9.304   0.845  10.638  0.5309 -0.2912 -0.3417
59403SOL     OW88138   2.057   7.622  13.190  0.1222  0.9290 -0.0261
59403SOL    HW188139   2.010   7.683  13.248 -1.0116  2.0769 -2.0470
59403SOL    HW288140   2.000   7.613  13.114  1.0341 -1.4519 -0.5022
59404SOL     OW88141   4.534   1.657   1.485 -0.3624  0.2745 -0.5060
59404SOL    HW188142   4.579   1.572   1.474 -1.0451  0.0673 -1.9608
59404SOL    HW288143   4.454   1.636   1.533  0.1551  0.3357  0.3978
59405SOL     OW88144   4.645   7.650   8.355 -0.3485 -0.1956 -0.4406
59405SOL    HW188145   4.631   7.703   8.434 -1.1080  1.6661 -1.7616
59405SOL    HW288146   4.732   7.675   8.324 -0.5253 -0.0487 -0.8241
59406SOL     OW88147   6.062   0.125   3.214 -0.0210  0.1043 -0.1193
59406SOL    HW188148   6.055   0.096   3.123 -1.1616  1.8316 -0.6272
59406SOL    HW288149   6.055   0.044   3.266 -1.2671 -0.7097 -1.4998
59407SOL     OW88150   8.743  11.898   9.868  0.2902  0.3485  0.1528
59407SOL    HW188151   8.686  11.969   9.837 -0.1172 -0.4746 -1.0574
59407SOL    HW288152   8.689  11.820   9.863  1.3155 -0.3460 -0.3524
59408SOL     OW88153   6.615   6.288   4.477  0.1849 -0.7581  0.0696
59408SOL    HW188154   6.590   6.307   4.567  0.7567  0.0880  0.0659
59408SOL    HW288155   6.648   6.198   4.479 -2.9864 -2.0380  0.0139
59409SOL     OW88156   6.178   1.906   0.027  0.4218  0.0044  0.2001
59409SOL    HW188157   6.154   1.894   0.119  1.2916  0.3386  0.4760
59409SOL    HW288158   6.185   1.817  -0.007  0.6081 -0.1348  0.5961
59410SOL     OW88159   8.354  10.260  13.154  0.0661  0.5810  0.8140
59410SOL    HW188160   8.322  10.348  13.176 -1.4342  0.0615  0.8323
59410SOL    HW288161   8.307  10.202  13.215  0.3933 -0.3105  0.2282
59411SOL     OW88162   2.322   3.694  11.832  0.0464 -0.5945  0.0191
59411SOL    HW188163   2.298   3.707  11.923  0.4780 -1.4439  0.2679
59411SOL    HW288164   2.238   3.697  11.785 -0.5319 -2.7874  0.7768
59412SOL     OW88165   4.664  10.003  11.533  0.2096  0.1768  0.4386
59412SOL    HW188166   4.594  10.062  11.562 -0.1371  0.2009 -0.4142
59412SOL    HW288167   4.713   9.983  11.613 -0.2531  0.8443  0.9041
59413SOL     OW88168   4.786   6.881   3.564  0.3592  0.3251 -0.0403
59413SOL    HW188169   4.700   6.884   3.606  0.0839  0.4048 -0.6034
59413SOL    HW288170   4.837   6.821   3.619  0.0613  0.5583  0.5045
59414SOL     OW88171   9.858   8.105  12.422 -0.5702 -0.0039 -0.5693
59414SOL    HW188172   9.847   8.011  12.427  0.0967 -0.0453  0.4907
59414SOL    HW288173   9.952   8.119  12.435 -0.5964  0.7811 -1.1133
59415SOL     OW88174   9.439  10.513   0.995 -0.1639  0.2664 -0.7697
59415SOL    HW188175   9.477  10.526   0.908  0.2026 -0.2476 -0.6913
59415SOL    HW288176   9.369  10.578   1.001 -0.6090 -0.1193 -1.6895
59416SOL     OW88177   7.404   1.304   4.491 -0.3831 -0.2511 -0.1892
59416SOL    HW188178   7.316   1.333   4.469 -0.8101  0.9016  2.6672
59416SOL    HW288179   7.398   1.272   4.580  2.4932  2.2233  1.0797
59417SOL     OW88180   6.390   5.140   9.772  0.5070  0.5802 -0.2113
59417SOL    HW188181   6.321   5.081   9.802  3.5828 -1.9396  2.5286
59417SOL    HW288182   6.387   5.214   9.833 -1.1085  1.6925 -1.5347
59418SOL     OW88183   9.551   1.804   5.200 -0.0020 -0.6507 -0.0161
59418SOL    HW188184   9.614   1.784   5.269  0.5572 -2.8813 -1.0681
59418SOL    HW288185   9.603   1.807   5.120 -0.8856  0.1281 -0.5821
59419SOL     OW88186  11.760   7.902   7.103 -0.3845 -0.1769 -0.0006
59419SOL    HW188187  11.811   7.973   7.065 -0.3528  0.2651  0.8419
59419SOL    HW288188  11.724   7.855   7.028  0.6394 -0.0445 -0.5847
59420SOL     OW88189   2.545   9.693   3.011 -0.3822  0.2848  0.6438
59420SOL    HW188190   2.605   9.710   3.084 -1.0400  0.1190  1.2341
59420SOL    HW288191   2.530   9.599   3.014  0.8013  0.0249 -0.6852
59421SOL     OW88192   2.000   7.982  11.341 -0.1205  0.4150  0.3594
59421SOL    HW188193   1.912   7.998  11.374 -0.2322  1.1018 -0.2504
59421SOL    HW288194   2.023   8.062  11.294 -0.0052 -0.5368 -1.2978
59422SOL     OW88195   7.497  11.681  12.442  0.1746  0.3811  1.1603
59422SOL    HW188196   7.577  11.630  12.435 -0.1295  0.1019 -0.6772
59422SOL    HW288197   7.463  11.686  12.353 -1.6515  0.8316  1.8316
59423SOL     OW88198   5.657  10.747   1.558  0.2221 -0.4625  0.6232
59423SOL    HW188199   5.657  10.757   1.463  0.2814  0.9244  0.7520
59423SOL    HW288200   5.630  10.833   1.592 -0.1657 -1.0410  1.8501
59424SOL     OW88201   4.644   8.270   2.692  0.2717  0.0814 -0.0794
59424SOL    HW188202   4.609   8.294   2.778 -1.2356 -3.4087  0.4455
59424SOL    HW288203   4.736   8.250   2.708  0.2907  0.6111  0.4781
59425SOL     OW88204   3.324   4.523   9.201  0.1749 -0.2822 -0.1746
59425SOL    HW188205   3.310   4.592   9.265  1.8054  0.0401 -0.1403
59425SOL    HW288206   3.235   4.496   9.175 -0.4836  0.8319  0.8494
59426SOL     OW88207   0.186   2.795  11.922  0.4130 -0.3320 -0.6126
59426SOL    HW188208   0.262   2.747  11.954  1.1312  0.4031 -1.1845
59426SOL    HW288209   0.197   2.797  11.827 -0.5307 -0.5613 -0.7338
59427SOL     OW88210   7.224   8.630  10.084 -0.3388  0.6448 -0.3341
59427SOL    HW188211   7.189   8.541  10.079 -0.2210  0.5654  0.3011
59427SOL    HW288212   7.153   8.684  10.048  0.1700  0.1639 -2.1815
59428SOL     OW88213   1.350   1.014  10.254 -0.3627  0.0725 -0.0794
59428SOL    HW188214   1.341   0.919  10.267  0.3995  0.0519  0.3404
59428SOL    HW288215   1.353   1.050  10.343 -0.0244  0.4272 -0.2331
59429SOL     OW88216   4.140   6.289  11.715  0.0888  0.3964 -0.3939
59429SOL    HW188217   4.045   6.290  11.725  0.2356  2.2057  1.6571
59429SOL    HW288218   4.160   6.367  11.665  0.5393  0.4678 -0.1070
59430SOL     OW88219   4.879  10.112   7.970  0.4313  0.2991  0.0884
59430SOL    HW188220   4.908  10.158   8.048  0.2949  0.3788  0.0933
59430SOL    HW288221   4.859  10.023   8.000  0.0339  0.4285  0.2180
59431SOL     OW88222   7.802  10.209   6.145 -0.5928  0.2907  0.2631
59431SOL    HW188223   7.749  10.172   6.215 -0.0498 -0.6534  0.1797
59431SOL    HW288224   7.774  10.301   6.140 -1.6652 -0.0001  0.7287
59432SOL     OW88225   7.681   8.027   6.649  0.1724  0.0766 -0.4066
59432SOL    HW188226   7.762   8.052   6.694  0.0057  0.5201 -0.3398
59432SOL    HW288227   7.617   8.018   6.720 -0.1416  0.9784 -0.5535
59433SOL     OW88228   6.923   0.103   5.766  0.1948 -0.0761  0.2262
59433SOL    HW188229   6.926   0.198   5.771 -1.3717 -0.0620  2.1192
59433SOL    HW288230   6.895   0.075   5.853  0.8232 -2.2943 -0.2134
59434SOL     OW88231   4.830   5.904   1.602  0.3120 -0.8617  0.1104
59434SOL    HW188232   4.872   5.990   1.592 -0.3519 -0.7057 -1.6933
59434SOL    HW288233   4.881   5.860   1.671  0.5032  1.0578  1.2684
59435SOL     OW88234   8.678   3.674   0.051 -0.5350  0.4969  0.1797
59435SOL    HW188235   8.590   3.658   0.019 -0.2423 -0.1770 -0.2922
59435SOL    HW288236   8.705   3.755   0.007 -0.1306 -0.4211 -1.3350
59436SOL     OW88237   1.570   5.732   2.478  0.2986 -0.3659  0.2931
59436SOL    HW188238   1.557   5.792   2.552  0.8197 -2.0716  1.8508
59436SOL    HW288239   1.665   5.729   2.467  0.2633 -0.7994  0.1212
59437SOL     OW88240   0.334  11.020   7.507 -0.2957  0.0613  0.0036
59437SOL    HW188241   0.335  10.938   7.459 -0.8507 -0.5799  1.0458
59437SOL    HW288242   0.294  11.083   7.447 -0.3879 -0.5633 -0.5984
59438SOL     OW88243   6.070   9.663  12.558 -0.2403 -0.3935 -0.5581
59438SOL    HW188244   6.082   9.745  12.510 -1.4844  0.5642  0.7001
59438SOL    HW288245   6.068   9.596  12.490  0.5479  0.6297 -1.6354
59439SOL     OW88246   5.309   1.691   5.268 -0.0682  0.5240  0.2473
59439SOL    HW188247   5.244   1.739   5.319  0.9375  1.5290  0.6274
59439SOL    HW288248   5.348   1.758   5.211 -0.4251 -0.3689 -1.0916
59440SOL     OW88249   2.668   6.853   5.905  0.4535  0.7167 -0.4240
59440SOL    HW188250   2.628   6.769   5.926  0.3636  0.8016 -0.2505
59440SOL    HW288251   2.762   6.834   5.896  0.6064  0.8049  0.8047
59441SOL     OW88252  10.268   3.687   6.114 -0.3024  0.1477  0.0546
59441SOL    HW188253  10.265   3.670   6.208 -3.3023 -0.1691 -0.0012
59441SOL    HW288254  10.264   3.601   6.074  1.5318  0.2426 -0.4501
59442SOL     OW88255   8.943   7.957  13.029 -0.0954 -0.4104 -0.4665
59442SOL    HW188256   8.921   7.922  13.116  2.9804 -1.1228  0.1283
59442SOL    HW288257   8.959   7.880  12.975  0.5897  0.0551 -0.9427
59443SOL     OW88258   1.863   6.022   1.169  0.6560  0.4970 -0.6663
59443SOL    HW188259   1.855   5.933   1.202  0.6583  0.9018  0.4845
59443SOL    HW288260   1.785   6.035   1.116  0.8668 -0.3238 -1.1878
59444SOL     OW88261   0.973  12.139  11.929  0.4846 -0.4802  0.1523
59444SOL    HW188262   0.969  12.142  11.834  0.1262 -0.6268  0.1631
59444SOL    HW288263   0.975  12.231  11.956 -0.9113 -0.4066  0.0633
59445SOL     OW88264   5.423   2.829   8.747 -0.5689  1.0449 -0.2342
59445SOL    HW188265   5.431   2.918   8.714  0.2116  1.3524  0.7008
59445SOL    HW288266   5.382   2.839   8.833  2.4646  0.9195  1.3703
59446SOL     OW88267  11.613   2.313  10.065  0.7446  0.0333  0.2626
59446SOL    HW188268  11.583   2.267  10.143 -1.4268  1.0920  0.1416
59446SOL    HW288269  11.692   2.360  10.093 -0.5627  1.2286  2.1736
59447SOL     OW88270   5.696   4.550   9.786 -0.5014 -0.3002 -0.0956
59447SOL    HW188271   5.718   4.469   9.832 -0.2936 -0.7218 -0.9312
59447SOL    HW288272   5.733   4.619   9.841  0.4567 -0.8442 -0.0366
59448SOL     OW88273   7.824   6.608   3.981  0.4558  0.0527  0.1377
59448SOL    HW188274   7.740   6.651   3.963 -0.1408 -1.1849 -0.1118
59448SOL    HW288275   7.884   6.681   4.000  0.3958  1.3934 -3.7261
59449SOL     OW88276   3.276   5.526   4.379  0.2934 -0.7589  0.3140
59449SOL    HW188277   3.249   5.575   4.302  1.4449  0.0626  0.4141
59449SOL    HW288278   3.226   5.564   4.451  1.0738  0.1931  0.3686
59450SOL     OW88279   4.682   8.781   5.157  0.1524 -0.0896  0.1323
59450SOL    HW188280   4.750   8.777   5.224 -0.0613  1.9671  0.5293
59450SOL    HW288281   4.638   8.864   5.172 -1.7513 -0.8571 -0.8131
59451SOL     OW88282  10.508   7.614   8.405 -0.4483 -0.0915  0.0266
59451SOL    HW188283  10.466   7.637   8.488  0.5560  0.4948  0.3931
59451SOL    HW288284  10.515   7.697   8.358 -0.7780 -0.3807 -0.5378
59452SOL     OW88285   9.167   9.232   3.394 -0.6283  0.3968 -0.4160
59452SOL    HW188286   9.116   9.153   3.413  1.6048 -0.8856  0.5579
59452SOL    HW288287   9.142   9.255   3.304 -1.5049 -1.2826 -0.6414
59453SOL     OW88288  11.056   6.475   3.875  0.0439  0.1162 -0.3448
59453SOL    HW188289  11.024   6.511   3.792  1.4039  1.4386 -0.3366
59453SOL    HW288290  11.069   6.552   3.931 -0.9152 -0.7597  1.1484
59454SOL     OW88291   3.908  10.697   3.781 -0.8904  0.0335 -0.0782
59454SOL    HW188292   3.899  10.612   3.738  1.1124 -0.8404  1.0750
59454SOL    HW288293   3.989  10.734   3.745 -1.2499  1.0281  0.1153
59455SOL     OW88294   4.711   6.647   3.232 -0.4169  0.1176 -0.4185
59455SOL    HW188295   4.804   6.665   3.219  0.0617 -1.0000  1.2122
59455SOL    HW288296   4.668   6.732   3.218  0.9631  0.8951 -0.0944
59456SOL     OW88297   9.323   1.032   1.820  0.5703  0.0011  0.2390
59456SOL    HW188298   9.370   1.074   1.892 -0.0742 -1.3605  1.5070
59456SOL    HW288299   9.259   1.097   1.791  0.7231  0.5072  1.0227
59457SOL     OW88300   4.053   1.567   8.106  0.2821  0.0997  0.1353
59457SOL    HW188301   4.141   1.531   8.112  0.7297  1.1176  0.0139
59457SOL    HW288302   4.063   1.645   8.051 -0.4698  0.8850  1.0583
59458SOL     OW88303   0.274   8.713   1.790 -0.0172 -0.0423 -0.2636
59458SOL    HW188304   0.277   8.806   1.770  0.5108 -0.3139 -1.5410
59458SOL    HW288305   0.244   8.672   1.709  0.7035 -1.0713 -0.0321
59459SOL     OW88306  13.020  10.451  10.443 -0.1017 -0.4261 -0.4502
59459SOL    HW188307  13.035  10.374  10.499 -2.5347 -0.4445  0.2769
59459SOL    HW288308  13.053  10.524  10.495  2.0250 -0.8783 -1.0553
59460SOL     OW88309   5.273   1.421   8.744 -0.3572  0.5913 -0.0453
59460SOL    HW188310   5.280   1.503   8.695  1.5126  0.6749  0.2850
59460SOL    HW288311   5.304   1.442   8.832 -0.7384 -0.2688  0.3069
59461SOL     OW88312   7.950   7.984   9.927  0.2027 -0.4879 -0.5667
59461SOL    HW188313   7.865   8.027   9.931  0.5889  0.2813 -0.1658
59461SOL    HW288314   7.995   8.027   9.854  1.1107  0.8332  0.7074
59462SOL     OW88315  11.605   9.971   2.889 -0.1617 -0.3772 -0.1297
59462SOL    HW188316  11.662   9.896   2.902  1.0358  0.7268  1.2784
59462SOL    HW288317  11.517   9.934   2.886  0.4687 -1.9154 -0.4082
59463SOL     OW88318   8.080  12.777  11.983 -1.0054  0.2196 -0.0204
59463SOL    HW188319   7.994  12.785  12.024 -1.2649 -0.5097 -0.3893
59463SOL    HW288320   8.076  12.693  11.937  0.5033 -0.6449  1.3471
59464SOL     OW88321   7.553   1.183   8.151 -0.1771 -0.5903  0.2682
59464SOL    HW188322   7.591   1.270   8.135  0.5687 -0.8594  0.5293
59464SOL    HW288323   7.605   1.125   8.096  0.2895 -1.0749  1.1989
59465SOL     OW88324  12.371   5.381  12.934  0.0293 -0.4959  0.3934
59465SOL    HW188325  12.281   5.389  12.965 -0.0069 -0.6617  0.3305
59465SOL    HW288326  12.364   5.330  12.854 -0.0068  0.8878 -0.5072
59466SOL     OW88327   0.959   3.402   3.275 -0.5114 -0.2023  0.1399
59466SOL    HW188328   0.946   3.490   3.310  0.7970 -0.2602  0.8648
59466SOL    HW288329   1.051   3.402   3.245  0.7834 -2.3616  3.5690
59467SOL     OW88330   6.023   8.443   6.999 -0.3855 -0.3883 -0.8664
59467SOL    HW188331   5.981   8.508   6.942  1.7529  2.0368  0.1032
59467SOL    HW288332   6.010   8.477   7.088  2.3451 -0.2072 -0.4449
59468SOL     OW88333   1.043   6.908   4.552 -0.2425  0.2406  0.1985
59468SOL    HW188334   1.111   6.917   4.484  0.5405 -1.2106  0.7553
59468SOL    HW288335   1.019   6.999   4.573  0.6017  0.7522 -0.9153
59469SOL     OW88336   0.041   8.876  10.240  0.1301 -0.2716 -0.0877
59469SOL    HW188337   0.108   8.807  10.242  0.5379  0.0955 -0.7981
59469SOL    HW288338   0.069   8.938  10.307  2.1298  1.3420 -2.2589
59470SOL     OW88339  11.215   3.941   4.009  0.4259  0.6745 -0.4500
59470SOL    HW188340  11.275   3.889   3.957 -0.6263 -0.0473 -0.9873
59470SOL    HW288341  11.137   3.951   3.954 -1.2041 -1.1087  1.3230
59471SOL     OW88342  12.949  12.665   0.486  0.4465 -0.3646  0.5983
59471SOL    HW188343  12.942  12.750   0.529 -0.0668 -0.6213  1.0253
59471SOL    HW288344  12.883  12.611   0.528  0.1534 -0.7184 -0.2924
59472SOL     OW88345   4.034   7.260   5.488 -0.0547  0.1057  0.3056
59472SOL    HW188346   3.976   7.294   5.557  2.1589  2.4498  1.1786
59472SOL    HW288347   4.022   7.321   5.415  0.4150 -0.1039  0.0516
59473SOL     OW88348   5.060   7.312   3.011  0.3875 -0.2503  0.5032
59473SOL    HW188349   5.058   7.216   3.003  1.2480 -0.1649 -1.3780
59473SOL    HW288350   5.130   7.329   3.073  0.6480 -0.8501  0.3820
59474SOL     OW88351   4.671   1.951   8.752  0.1975 -0.2610 -0.1001
59474SOL    HW188352   4.733   2.021   8.768  0.0016 -0.0106 -0.4314
59474SOL    HW288353   4.621   1.979   8.675 -1.5922  0.4131  1.2428
59475SOL     OW88354   1.474   5.167   1.712  0.5554 -0.1992  0.1445
59475SOL    HW188355   1.507   5.253   1.683 -1.6209 -0.4688 -3.8833
59475SOL    HW288356   1.486   5.110   1.636  0.0982 -3.0008  2.0202
59476SOL     OW88357  10.735   5.347   2.435 -0.1341  0.3484 -0.1871
59476SOL    HW188358  10.647   5.355   2.400  0.0684  1.6654 -0.4227
59476SOL    HW288359  10.777   5.280   2.380 -0.4153  1.0311 -1.2544
59477SOL     OW88360   6.019   0.065  11.717  0.0856 -0.1957 -0.3351
59477SOL    HW188361   6.112   0.088  11.715  0.1765 -0.5805 -0.6171
59477SOL    HW288362   6.000   0.054  11.811  0.7576 -1.7968 -0.3600
59478SOL     OW88363   3.556   2.087   5.641  0.0618 -0.1751 -0.3239
59478SOL    HW188364   3.538   2.130   5.724  1.7436  0.2212 -0.1248
59478SOL    HW288365   3.485   2.114   5.583 -2.6204 -2.4738  1.6329
59479SOL     OW88366   6.866   8.660   2.120 -0.5839 -0.2821 -0.0063
59479SOL    HW188367   6.959   8.640   2.107 -0.1835  1.6963 -0.4362
59479SOL    HW288368   6.823   8.626   2.042 -0.1903 -0.9211  0.0446
59480SOL     OW88369   2.678   7.516   9.751 -0.3744  0.0053  0.3997
59480SOL    HW188370   2.661   7.425   9.776  0.2717 -0.0121  0.7897
59480SOL    HW288371   2.592   7.556   9.745 -0.5750  0.3944  4.0207
59481SOL     OW88372   0.945  12.432   6.900  0.0157 -0.4607 -0.2832
59481SOL    HW188373   0.975  12.427   6.991 -0.6342 -0.0251 -0.0371
59481SOL    HW288374   1.021  12.465   6.852  0.5059 -1.1218  0.0245
59482SOL     OW88375   7.381   0.364   6.073 -0.3668 -0.5665 -0.1619
59482SOL    HW188376   7.365   0.270   6.063  1.3566 -0.6474 -3.3505
59482SOL    HW288377   7.474   0.375   6.053 -0.5083  1.8409  0.1773
59483SOL     OW88378   8.037   3.343   8.303 -0.4482  0.4366 -0.2163
59483SOL    HW188379   8.065   3.408   8.239 -0.2532  2.8700  2.1605
59483SOL    HW288380   8.099   3.271   8.293  0.7152  1.5731 -1.4899
59484SOL     OW88381   5.006   2.570  12.372 -0.0020 -0.8143  0.2612
59484SOL    HW188382   5.085   2.625  12.376 -0.5897  0.0684  0.0925
59484SOL    HW288383   5.016   2.509  12.444  1.1206 -1.1085 -0.1203
59485SOL     OW88384   9.080   2.249   0.673 -0.6508 -0.1430  0.1072
59485SOL    HW188385   9.102   2.160   0.646  2.0309  0.4440  0.0755
59485SOL    HW288386   9.149   2.304   0.635 -1.4406  1.7802  1.2636
59486SOL     OW88387   8.437  10.322   7.363 -0.2297  0.4928 -0.1250
59486SOL    HW188388   8.402  10.259   7.426 -0.4805  1.6678  0.9592
59486SOL    HW288389   8.494  10.379   7.415  0.1504  1.0396 -1.1066
59487SOL     OW88390  11.026   5.332   0.373  0.3345 -0.0367 -0.2436
59487SOL    HW188391  10.988   5.381   0.300 -0.6812 -1.3043 -0.6051
59487SOL    HW288392  11.104   5.292   0.336  2.0961  2.4709  0.4669
59488SOL     OW88393   9.094  12.842   3.269 -0.3797  1.1244 -0.0931
59488SOL    HW188394   9.144  12.862   3.190  0.7240  0.9058  0.5245
59488SOL    HW288395   9.126  12.905   3.334 -1.8751  1.8645 -0.0229
59489SOL     OW88396   4.798   7.059   6.234 -0.2230 -0.4483  0.4936
59489SOL    HW188397   4.818   7.142   6.279  1.3448  0.0059 -0.9454
59489SOL    HW288398   4.711   7.073   6.196 -0.1877  0.3424  0.6809
59490SOL     OW88399  12.408   8.042   9.145 -0.8328  0.2563  0.1428
59490SOL    HW188400  12.475   7.974   9.153 -0.1178  1.0326  0.8537
59490SOL    HW288401  12.360   8.018   9.065  0.2631 -0.3332 -0.3638
59491SOL     OW88402   3.764   2.044   0.331  0.3479 -0.5965  0.4326
59491SOL    HW188403   3.821   1.969   0.348 -0.1250 -1.2059 -0.6296
59491SOL    HW288404   3.795   2.111   0.392 -0.6845 -2.3665  3.0569
59492SOL     OW88405  10.069   6.028   7.348  0.1347 -0.4027  0.5767
59492SOL    HW188406  10.145   6.032   7.290 -0.7936  0.8620 -0.6104
59492SOL    HW288407  10.014   6.101   7.321 -1.4941 -1.2524  1.4240
59493SOL     OW88408   3.338  12.628   9.163 -0.2921 -0.3910 -0.1502
59493SOL    HW188409   3.353  12.538   9.135  0.9787 -0.7179  1.4362
59493SOL    HW288410   3.244  12.641   9.151 -0.4934 -1.8924 -0.4676
59494SOL     OW88411   5.475  11.336   2.936 -0.5473 -0.2115 -0.3185
59494SOL    HW188412   5.460  11.377   3.021 -2.6266  2.2559 -1.7280
59494SOL    HW288413   5.537  11.393   2.891  0.5261 -1.4803 -0.5061
59495SOL     OW88414  12.968   3.991   0.919 -0.0448 -0.1616 -0.5313
59495SOL    HW188415  12.926   4.077   0.920  0.4893  0.1576 -2.5979
59495SOL    HW288416  13.061   4.009   0.904  0.0731 -1.0794 -0.9862
59496SOL     OW88417  11.781   4.655  11.802 -0.1130  0.6618  0.0906
59496SOL    HW188418  11.832   4.656  11.722  1.7889 -0.9538  1.2131
59496SOL    HW288419  11.816   4.728  11.854  1.4676 -0.7054  1.0386
59497SOL     OW88420   7.801   3.926  12.507  0.7763 -0.1013 -0.4094
59497SOL    HW188421   7.739   3.998  12.517  1.5841  0.5397  0.0784
59497SOL    HW288422   7.756   3.850  12.546  0.1255  0.2437 -0.4730
59498SOL     OW88423   9.386   5.672  11.389 -0.3924 -0.4177 -0.2795
59498SOL    HW188424   9.296   5.684  11.422 -0.8761  0.6240 -1.8822
59498SOL    HW288425   9.441   5.705  11.460 -1.3108 -0.0485  0.2872
59499SOL     OW88426   1.324   6.264   9.620 -0.2372 -0.0200 -0.3390
59499SOL    HW188427   1.374   6.188   9.650 -0.3884 -0.1493 -0.4107
59499SOL    HW288428   1.306   6.246   9.528  0.1150  0.3153 -0.4746
59500SOL     OW88429  12.111  10.305   1.475 -0.1182  0.1322 -0.4817
59500SOL    HW188430  12.131  10.215   1.501  1.3919 -0.2532 -2.7255
59500SOL    HW288431  12.029  10.325   1.520  0.1902 -1.8693  1.1186
59501SOL     OW88432   9.127  10.352  10.922  0.2794  0.0286 -0.5927
59501SOL    HW188433   9.203  10.406  10.902 -1.7969  2.7886 -1.7355
59501SOL    HW288434   9.140  10.324  11.012  3.1047 -0.5215 -1.1043
59502SOL     OW88435   5.944   7.238   9.468 -0.1949  0.2685 -0.2204
59502SOL    HW188436   5.994   7.185   9.406  1.5900  1.6618 -0.0567
59502SOL    HW288437   5.917   7.176   9.536  0.8860 -0.6278 -0.5772
59503SOL     OW88438  12.783   7.990   7.760  0.6397  0.4543 -0.4866
59503SOL    HW188439  12.870   7.956   7.784  0.4433  1.8286  2.6240
59503SOL    HW288440  12.725   7.956   7.827 -1.0010  0.7440 -1.7110
59504SOL     OW88441   7.918   0.032   9.084  0.2573 -0.1219  0.4022
59504SOL    HW188442   7.995  -0.001   9.131  1.5391  0.4257 -1.2302
59504SOL    HW288443   7.863  -0.045   9.072 -0.0744 -0.3138  2.6205
59505SOL     OW88444   1.473  11.355   4.054  0.4962 -0.1422 -0.1771
59505SOL    HW188445   1.380  11.371   4.070  0.0219 -1.6158 -1.2397
59505SOL    HW288446   1.515  11.362   4.140 -0.5275  0.8950  0.2549
59506SOL     OW88447   2.800  10.685   0.653 -0.3475 -0.3793 -0.1603
59506SOL    HW188448   2.743  10.758   0.628  0.4247  0.3815  0.2346
59506SOL    HW288449   2.778  10.615   0.591 -0.1572  0.6397 -1.4346
59507SOL     OW88450   7.088  10.831  12.219 -0.1826  0.4741  0.1037
59507SOL    HW188451   7.145  10.881  12.161 -1.3397  0.2287 -1.3023
59507SOL    HW288452   7.148  10.790  12.282  0.9897  1.7257 -0.1419
59508SOL     OW88453   2.858  10.702  12.929  0.2274 -0.4221  0.6517
59508SOL    HW188454   2.859  10.797  12.917 -1.4699 -0.4513 -0.0406
59508SOL    HW288455   2.913  10.687  13.005  3.7925  0.7315 -1.4513
59509SOL     OW88456  11.386   0.061  12.570  0.4234  0.0055 -0.2144
59509SOL    HW188457  11.444   0.009  12.515  0.7490 -0.6663  0.7436
59509SOL    HW288458  11.302   0.015  12.568  0.1723  0.4625 -0.8332
59510SOL     OW88459  11.311   8.682   6.185  0.1694  0.2383 -0.6187
59510SOL    HW188460  11.352   8.625   6.250  2.4240 -0.0010 -2.1602
59510SOL    HW288461  11.276   8.622   6.119 -0.8464  0.5319 -0.3647
59511SOL     OW88462   1.714   8.478   1.584  0.3916  0.3865 -0.1197
59511SOL    HW188463   1.768   8.474   1.505  2.5363 -1.1741  1.3001
59511SOL    HW288464   1.662   8.398   1.582  1.9739 -0.7459  0.9544
59512SOL     OW88465   5.017  12.414   7.156  0.0729  0.1938  0.3890
59512SOL    HW188466   4.953  12.463   7.207 -0.2361  0.5874 -0.3649
59512SOL    HW288467   4.996  12.322   7.172 -0.2369  0.3210  0.6990
59513SOL     OW88468   1.848  11.505  11.469 -0.0855 -0.0455 -0.1474
59513SOL    HW188469   1.930  11.547  11.446  0.2352 -0.4861  0.1785
59513SOL    HW288470   1.790  11.577  11.495  0.7645  0.1306  1.3566
59514SOL     OW88471  10.917  10.780  12.676 -0.1539 -0.2117  0.3827
59514SOL    HW188472  10.844  10.834  12.708 -1.1097 -1.3708  0.2115
59514SOL    HW288473  10.977  10.843  12.636 -2.0940  0.6184 -1.4337
59515SOL     OW88474   6.322  11.315  13.073  0.3679 -0.0021  0.0001
59515SOL    HW188475   6.407  11.314  13.116 -0.2715 -2.5540  1.3788
59515SOL    HW288476   6.272  11.383  13.119  1.1047  0.3175  0.3304
59516SOL     OW88477  12.180  12.039   5.638 -0.3355 -0.3130  0.6302
59516SOL    HW188478  12.094  12.071   5.611 -0.4024 -0.7507  0.3115
59516SOL    HW288479  12.210  11.986   5.564  1.3939  1.9548 -0.4255
59517SOL     OW88480  10.393   7.646   1.386 -0.4493  1.3467  0.1748
59517SOL    HW188481  10.439   7.592   1.450 -0.2160 -0.3272 -1.3250
59517SOL    HW288482  10.310   7.601   1.371  1.1392 -0.8619 -3.7261
59518SOL     OW88483  11.995   4.427   0.340  0.5502  0.1027  0.2791
59518SOL    HW188484  11.916   4.376   0.358  0.4582 -0.3782 -1.3753
59518SOL    HW288485  11.985   4.506   0.394 -1.5529  0.5159 -0.6111
59519SOL     OW88486   4.617   1.231   0.434  0.1280 -0.4995  0.2811
59519SOL    HW188487   4.540   1.183   0.405 -0.6883  0.5115  0.6879
59519SOL    HW288488   4.610   1.232   0.530  0.9111 -0.8195  0.3468
59520SOL     OW88489   1.910   7.394   4.196 -0.1269  0.2475 -0.4957
59520SOL    HW188490   1.859   7.314   4.205  0.0677  0.0877 -0.8065
59520SOL    HW288491   2.001   7.366   4.211 -0.2253  0.7285  1.2270
59521SOL     OW88492   5.405  11.735   1.741  0.5162  0.4877 -0.0101
59521SOL    HW188493   5.379  11.807   1.798 -0.8332 -0.7946  1.0819
59521SOL    HW288494   5.444  11.670   1.800 -1.3087 -1.0596 -0.3839
59522SOL     OW88495   7.741   5.477   1.315 -0.0647 -0.0230  0.0675
59522SOL    HW188496   7.780   5.525   1.242 -0.2628 -0.8015 -0.5618
59522SOL    HW288497   7.774   5.521   1.393 -0.0803  1.0077 -0.4872
59523SOL     OW88498   8.103   8.286   4.769  0.2158  0.6653  0.3694
59523SOL    HW188499   8.016   8.251   4.790  0.5450  0.1244  0.8603
59523SOL    HW288500   8.113   8.271   4.675  0.7065 -1.4169  0.7088
59524SOL     OW88501   4.308   3.311   1.663  0.5098 -0.2784  0.2151
59524SOL    HW188502   4.233   3.255   1.641  0.5941  0.4784 -2.4144
59524SOL    HW288503   4.269   3.395   1.686  0.4997 -0.0586 -0.5681
59525SOL     OW88504   3.555   5.759   6.442 -0.2851  0.3381  0.2312
59525SOL    HW188505   3.542   5.724   6.531  4.4459 -0.0111  1.0664
59525SOL    HW288506   3.579   5.682   6.390 -0.0264  0.9567 -0.5805
59526SOL     OW88507   6.122   0.217   4.940 -0.0049  0.6247  0.3192
59526SOL    HW188508   6.115   0.170   5.024 -1.5866  0.6409  0.2379
59526SOL    HW288509   6.064   0.293   4.951 -0.4210  0.4976 -0.8643
59527SOL     OW88510   9.944   2.765   8.560  0.3430  0.2024 -0.3198
59527SOL    HW188511   9.944   2.676   8.596 -1.0066  0.1283 -0.4612
59527SOL    HW288512   9.859   2.801   8.586  1.4756  2.0340  1.0932
59528SOL     OW88513   6.621   4.131   4.122 -0.0986 -0.1184  0.5615
59528SOL    HW188514   6.530   4.128   4.150 -0.1284 -3.5527  0.4976
59528SOL    HW288515   6.670   4.154   4.202 -0.7047 -3.3984  2.0264
59529SOL     OW88516  10.402   6.451   4.809  0.0551  0.9715  0.1109
59529SOL    HW188517  10.355   6.511   4.752  1.7049  0.8215 -1.5283
59529SOL    HW288518  10.396   6.366   4.765  1.3591  0.8504  0.1187
59530SOL     OW88519  10.727  10.654   2.216  0.0443  0.2382 -0.3987
59530SOL    HW188520  10.767  10.664   2.303  0.8974 -1.5942 -0.5327
59530SOL    HW288521  10.650  10.711   2.218  0.9237  1.4461  0.9908
59531SOL     OW88522  11.124   4.977   0.262 -0.0100  0.3869  0.7280
59531SOL    HW188523  11.177   4.908   0.302 -0.5016 -0.3212  0.1861
59531SOL    HW288524  11.143   4.969   0.168  1.0147  1.9231  0.7642
59532SOL     OW88525   4.642   2.196   1.382 -0.0448  0.4798 -0.6259
59532SOL    HW188526   4.648   2.101   1.374 -0.7479  0.3227  0.5064
59532SOL    HW288527   4.697   2.230   1.311  1.3606 -0.7624 -0.1588
59533SOL     OW88528   2.915   7.646   5.049 -0.5452  0.6528 -0.1780
59533SOL    HW188529   2.882   7.637   4.959 -0.4107 -1.0210 -0.0926
59533SOL    HW288530   2.852   7.704   5.091 -1.5876  0.0770 -0.8955
59534SOL     OW88531  13.169  12.711   6.042 -0.0628 -0.5215 -0.0324
59534SOL    HW188532  13.259  12.729   6.072 -0.4442  1.0413  0.2438
59534SOL    HW288533  13.120  12.695   6.123  0.1691 -2.5895 -0.2403
59535SOL     OW88534   1.298   5.504   1.196 -0.2171 -0.2568  0.8329
59535SOL    HW188535   1.281   5.438   1.264  1.0662 -1.0219  0.4426
59535SOL    HW288536   1.256   5.469   1.117 -1.0532  0.2667  1.0323
59536SOL     OW88537   2.280   9.548  10.736  0.0887 -0.9203  0.0828
59536SOL    HW188538   2.209   9.485  10.739  0.9823 -1.9757 -0.1543
59536SOL    HW288539   2.306   9.560  10.828 -1.3834  0.6758  0.3375
59537SOL     OW88540   0.522   1.195   5.271  0.1123  0.0542  0.7577
59537SOL    HW188541   0.493   1.117   5.225 -0.6472 -1.0374  2.9450
59537SOL    HW288542   0.468   1.198   5.350  1.7359  1.4758  1.8938
59538SOL     OW88543   3.721   3.725   9.643 -0.2102  0.2677  0.0938
59538SOL    HW188544   3.678   3.704   9.726 -0.1799 -0.2145 -0.0104
59538SOL    HW288545   3.702   3.651   9.587 -1.8077  1.4247 -0.9519
59539SOL     OW88546   2.518  10.015  12.588  0.7622  0.0931  0.6595
59539SOL    HW188547   2.570   9.959  12.531  1.8406  0.2488  1.4632
59539SOL    HW288548   2.435   9.968  12.599  1.7237 -1.4926  1.5258
59540SOL     OW88549   7.236   8.139   3.022  0.1815  0.4062 -0.4817
59540SOL    HW188550   7.212   8.187   2.943  4.3263  1.4495 -1.3051
59540SOL    HW288551   7.224   8.202   3.093 -0.6948  0.4192 -0.6217
59541SOL     OW88552   0.347   9.523  12.315 -0.6983 -0.0585 -0.6304
59541SOL    HW188553   0.333   9.432  12.288 -2.7031 -0.4586  1.3960
59541SOL    HW288554   0.387   9.515  12.402 -0.8737  1.0062 -0.4444
59542SOL     OW88555  12.772   6.014   6.678  0.4970  0.0813  0.5036
59542SOL    HW188556  12.830   6.073   6.726  0.6363 -0.0858  0.5418
59542SOL    HW288557  12.810   5.927   6.691  1.6612  0.2264 -1.4909
59543SOL     OW88558   0.847  11.884   2.343 -0.2063 -0.1453 -0.4790
59543SOL    HW188559   0.779  11.858   2.281  0.5734  1.2262 -1.9906
59543SOL    HW288560   0.814  11.966   2.382 -0.3196 -0.5598  0.3155
59544SOL     OW88561   5.328   7.835   8.343 -0.3157  0.4980 -0.7900
59544SOL    HW188562   5.401   7.837   8.282  0.6527 -0.7851  0.2780
59544SOL    HW288563   5.360   7.786   8.418 -2.2208  0.0528 -0.2058
59545SOL     OW88564   6.060  10.183   6.853 -0.5496  0.3492  0.5859
59545SOL    HW188565   6.092  10.240   6.783 -0.8773 -0.3771 -0.1837
59545SOL    HW288566   5.990  10.231   6.895 -0.6499  0.6165  0.1137
59546SOL     OW88567   7.737   0.937   6.850 -0.1751 -0.1830  0.1614
59546SOL    HW188568   7.739   0.890   6.934  1.1056  1.4908  1.1270
59546SOL    HW288569   7.713   1.026   6.874  1.2708  0.5790 -1.1261
59547SOL     OW88570  12.720  10.999   3.796  0.7346  0.3036  0.4020
59547SOL    HW188571  12.711  10.930   3.729 -0.3639 -1.0641  1.8655
59547SOL    HW288572  12.812  11.022   3.794  1.0189 -0.7931 -0.5745
59548SOL     OW88573   0.790   1.555  12.818 -0.3531  0.1999  0.3353
59548SOL    HW188574   0.833   1.615  12.879 -0.0883  0.7512 -0.3789
59548SOL    HW288575   0.854   1.486  12.802  0.2669  0.9879 -0.6817
59549SOL     OW88576   6.687   5.642  10.746  0.6789  0.1539 -0.5952
59549SOL    HW188577   6.708   5.592  10.667  1.0377 -0.4696 -0.1191
59549SOL    HW288578   6.761   5.626  10.805 -0.1820 -0.4594  0.3561
59550SOL     OW88579   0.529   8.405   1.451  0.2029 -0.2125  0.4469
59550SOL    HW188580   0.536   8.496   1.481  0.5389 -0.1412  0.1564
59550SOL    HW288581   0.435   8.387   1.451  0.1602 -0.0086  0.9283
59551SOL     OW88582   6.050   5.013   3.231  0.2223 -0.0577  0.3202
59551SOL    HW188583   6.137   4.993   3.196  0.2671 -0.9724  0.8976
59551SOL    HW288584   6.059   4.997   3.325 -0.5584 -0.1282  0.3847
59552SOL     OW88585   2.156   2.481  12.051  0.0999 -0.1587 -0.1538
59552SOL    HW188586   2.215   2.419  12.094 -1.3500 -0.6708  1.1931
59552SOL    HW288587   2.211   2.556  12.030  1.3402 -0.8350  0.5642
59553SOL     OW88588   6.982   4.785   1.177  0.1150 -0.3826 -0.1817
59553SOL    HW188589   6.902   4.738   1.155 -0.3233 -0.5337  1.6023
59553SOL    HW288590   6.959   4.878   1.167 -0.1489 -0.4406 -0.1201
59554SOL     OW88591   0.280   7.916   8.125 -0.4336 -0.1114 -0.0434
59554SOL    HW188592   0.203   7.916   8.069 -0.2786 -1.4112 -0.2930
59554SOL    HW288593   0.354   7.912   8.065 -0.1863  0.4160  0.2148
59555SOL     OW88594   1.397   2.157  10.625  0.0990 -0.0511 -0.7556
59555SOL    HW188595   1.341   2.185  10.552  0.7078 -1.1316 -1.6748
59555SOL    HW288596   1.366   2.069  10.646 -0.4476  0.4704  0.7028
59556SOL     OW88597   2.269   1.144   1.462 -0.3177 -0.2185  0.2950
59556SOL    HW188598   2.196   1.103   1.509  0.2254 -0.1904  1.2006
59556SOL    HW288599   2.347   1.098   1.494  0.0005 -0.8505 -1.3213
59557SOL     OW88600  12.185   0.025  11.023  0.5322  0.3919 -0.5721
59557SOL    HW188601  12.131  -0.053  11.038  0.6014  0.0070 -2.0960
59557SOL    HW288602  12.274  -0.009  11.014  0.7501  0.8017 -0.0415
59558SOL     OW88603   5.795   8.730   9.929 -0.1604  0.3580  0.1481
59558SOL    HW188604   5.869   8.786   9.954  1.9175 -1.3966 -1.5689
59558SOL    HW288605   5.726   8.791   9.902  0.9448  2.0750  1.0612
59559SOL     OW88606   1.571   2.294   6.095 -0.2876  0.1217  0.0528
59559SOL    HW188607   1.572   2.358   6.023  1.3536 -0.9632 -0.9537
59559SOL    HW288608   1.539   2.214   6.054  0.3118 -0.4174  0.6293
59560SOL     OW88609   9.171   3.841  12.917 -0.6434  0.0426  0.6554
59560SOL    HW188610   9.110   3.824  12.845 -1.0805 -1.6163  1.3744
59560SOL    HW288611   9.175   3.759  12.965 -0.1653  1.0266  2.3959
59561SOL     OW88612  10.882   9.671   1.383  0.1153 -0.1817  0.3597
59561SOL    HW188613  10.867   9.763   1.363 -0.9005 -0.0432  1.6588
59561SOL    HW288614  10.925   9.636   1.304  0.7224  1.4325 -0.0609
59562SOL     OW88615   3.668  10.373   0.892 -0.1036 -0.2905 -0.1154
59562SOL    HW188616   3.603  10.424   0.940  0.2592  0.8995 -0.8588
59562SOL    HW288617   3.656  10.398   0.801  1.1221 -0.3608 -0.3117
59563SOL     OW88618   4.407  11.871   9.151  0.0569 -0.3246 -0.0871
59563SOL    HW188619   4.469  11.923   9.202 -0.0913  0.0960 -0.3336
59563SOL    HW288620   4.322  11.893   9.188 -0.1159  0.4853 -0.9381
59564SOL     OW88621   9.080  13.096   0.373  0.2883  0.0886 -0.1403
59564SOL    HW188622   9.060  13.128   0.285 -3.4125 -0.0176  0.4984
59564SOL    HW288623   9.166  13.056   0.365  1.0690  2.0586 -3.1385
59565SOL     OW88624   3.547   5.825   0.454  0.6658  0.2176  0.6172
59565SOL    HW188625   3.597   5.858   0.380  2.4704  3.5336  3.0678
59565SOL    HW288626   3.462   5.799   0.417  2.4123 -1.0182 -2.9216
59566SOL     OW88627   7.201   8.442   9.643  0.2808 -0.5250 -0.8061
59566SOL    HW188628   7.209   8.373   9.577  1.7461 -0.5996 -0.5947
59566SOL    HW288629   7.162   8.399   9.718  1.6338 -1.2877 -0.5010
59567SOL     OW88630  12.224  11.954   4.049  0.0059 -0.1303 -0.2670
59567SOL    HW188631  12.184  11.868   4.053  0.4490 -0.3216  0.1419
59567SOL    HW288632  12.164  12.011   4.098 -1.3611  0.2522 -2.2370
59568SOL     OW88633   1.773   5.758   1.108  0.4990  0.0219  0.1627
59568SOL    HW188634   1.735   5.791   1.027  1.8517 -0.2695 -0.6132
59568SOL    HW288635   1.855   5.717   1.082  0.6288 -0.7038  1.5911
59569SOL     OW88636   8.038   7.781   7.361  0.6475  0.5543 -0.2113
59569SOL    HW188637   8.078   7.829   7.289 -0.0338  3.1445  1.0297
59569SOL    HW288638   7.972   7.841   7.397 -2.9825 -2.6425 -0.8083
59570SOL     OW88639   5.926  12.439   2.591 -0.8639 -0.5222  0.2194
59570SOL    HW188640   5.965  12.520   2.556 -0.5291 -0.7125  0.1497
59570SOL    HW288641   5.855  12.470   2.647 -1.8113 -0.2244 -1.1129
59571SOL     OW88642   7.755   9.338   0.646 -0.6339  0.2756  0.3493
59571SOL    HW188643   7.700   9.417   0.646 -1.5264 -0.3213  0.7176
59571SOL    HW288644   7.694   9.267   0.624  0.1094 -0.3362  0.2453
59572SOL     OW88645   1.176   6.889   0.791  0.2984 -0.2212  0.0316
59572SOL    HW188646   1.260   6.934   0.787 -0.5611  1.6379  1.1687
59572SOL    HW288647   1.143   6.891   0.701  2.0244 -2.2490 -0.7241
59573SOL     OW88648   5.654   7.492   6.283  0.0844  0.1587  0.0309
59573SOL    HW188649   5.728   7.458   6.332  1.9929 -0.9457 -3.2754
59573SOL    HW288650   5.690   7.565   6.232 -1.3061  0.1382 -1.0567
59574SOL     OW88651   3.207  11.274   8.352  0.0736  0.0664 -0.2209
59574SOL    HW188652   3.128  11.299   8.304 -0.1503 -0.5116 -0.1690
59574SOL    HW288653   3.222  11.183   8.326 -1.2694 -0.9913  2.4022
59575SOL     OW88654   1.106  10.161   1.012 -0.2714  0.0285 -0.3693
59575SOL    HW188655   1.130  10.069   1.015 -0.2812 -0.0435 -1.7783
59575SOL    HW288656   1.179  10.206   1.054  0.1720 -0.5549 -0.5009
59576SOL     OW88657  10.313   6.174   1.813  0.2766  0.6369  0.5900
59576SOL    HW188658  10.289   6.165   1.721  0.7633  1.2149  0.4033
59576SOL    HW288659  10.313   6.268   1.829 -1.0483  0.5132  1.5213
59577SOL     OW88660  10.107   4.581   2.383  1.1166  0.0555  0.4141
59577SOL    HW188661  10.104   4.611   2.474  0.5442  0.3970  0.2889
59577SOL    HW288662  10.021   4.541   2.369  0.8163  0.9099 -0.2758
59578SOL     OW88663  12.778   5.272  10.990  0.1487 -0.6358  0.0729
59578SOL    HW188664  12.740   5.292  10.904  1.0082  0.0044 -0.1748
59578SOL    HW288665  12.721   5.318  11.052  1.3654  1.6680 -0.4030
59579SOL     OW88666  12.705   8.454   9.101  0.3698 -0.2712 -0.4293
59579SOL    HW188667  12.760   8.521   9.060 -2.3621  2.1936 -0.3745
59579SOL    HW288668  12.621   8.462   9.056 -1.4059 -0.5455  2.5908
59580SOL     OW88669   7.332   2.524   5.053  0.3329 -0.2724 -0.3375
59580SOL    HW188670   7.298   2.607   5.019 -0.1052  1.0411  2.9184
59580SOL    HW288671   7.423   2.543   5.077  0.4459 -0.9398 -0.2154
59581SOL     OW88672   5.144   9.995   2.607  0.2716 -0.2076  0.2464
59581SOL    HW188673   5.184  10.061   2.550  3.0940 -1.3137  0.8269
59581SOL    HW288674   5.130  10.041   2.690  0.6353  0.1177  0.1318
59582SOL     OW88675   4.766   2.520  11.855  0.4838  0.3809  0.3907
59582SOL    HW188676   4.690   2.573  11.880 -0.3166 -0.7331  0.3751
59582SOL    HW288677   4.831   2.584  11.825 -0.5112  1.3402  0.2210
59583SOL     OW88678   7.515  11.253   6.114  0.0407 -0.0186  0.5356
59583SOL    HW188679   7.499  11.332   6.062 -1.0379 -0.8410 -0.4185
59583SOL    HW288680   7.507  11.282   6.204  0.6722  1.1759  0.2248
59584SOL     OW88681   7.484   7.273   8.344 -0.1452  0.2372  0.9121
59584SOL    HW188682   7.573   7.240   8.350 -0.0524  0.0533 -0.9740
59584SOL    HW288683   7.493   7.364   8.316 -0.5448  0.3754  1.2146
59585SOL     OW88684   4.075   7.298   9.374 -0.0977  0.2201 -0.0765
59585SOL    HW188685   4.037   7.371   9.325  3.3942  1.1566 -1.6718
59585SOL    HW288686   4.051   7.220   9.325 -1.8896  0.4704  0.3373
59586SOL     OW88687   8.185  10.833   7.265  0.0193 -0.0597 -0.2439
59586SOL    HW188688   8.255  10.769   7.282  0.5296  0.8550  1.3480
59586SOL    HW288689   8.109  10.797   7.312 -0.3182 -0.5580 -1.1516
59587SOL     OW88690   1.509  11.525  11.002 -0.3166  0.1276  0.1016
59587SOL    HW188691   1.579  11.478  11.047 -1.3152 -0.0673  1.5278
59587SOL    HW288692   1.551  11.605  10.970  0.9133 -0.7411 -0.5166
59588SOL     OW88693  12.430   2.744   6.184 -0.1377  0.0962  0.2256
59588SOL    HW188694  12.420   2.704   6.097  1.3069 -0.2597  0.1964
59588SOL    HW288695  12.395   2.679   6.244  0.7224 -0.5508  0.0500
59589SOL     OW88696   0.263   7.598   5.788  0.5111 -0.0334 -0.4582
59589SOL    HW188697   0.208   7.527   5.758  0.1258 -0.3646  0.9637
59589SOL    HW288698   0.203   7.672   5.798  0.5782 -0.0122 -0.2155
59590SOL     OW88699   8.347   4.896   7.540 -0.6288  0.1171 -0.3410
59590SOL    HW188700   8.422   4.841   7.517  0.2274  1.3227 -0.5347
59590SOL    HW288701   8.359   4.915   7.633 -0.8745  0.0516 -0.2955
59591SOL     OW88702  11.773   1.179   4.530 -0.3114 -0.4005  0.2429
59591SOL    HW188703  11.844   1.199   4.469  1.4428 -3.7549  0.9099
59591SOL    HW288704  11.699   1.156   4.475  0.1864 -0.1422 -0.5457
59592SOL     OW88705  11.464   6.521  10.642 -0.2259  0.8113  0.2777
59592SOL    HW188706  11.535   6.531  10.578  0.6974 -0.7304  0.9931
59592SOL    HW288707  11.384   6.523  10.590  0.5495 -2.2590 -1.2527
59593SOL     OW88708   2.379  12.186   2.540  0.0458  0.3490  0.1034
59593SOL    HW188709   2.473  12.168   2.549 -0.0983  0.1917  1.4968
59593SOL    HW288710   2.362  12.257   2.601 -0.4259  1.6216 -1.4568
59594SOL     OW88711   3.949   7.957   8.498 -0.1194 -0.5098 -0.1985
59594SOL    HW188712   4.036   7.920   8.486 -0.5887 -1.8352  0.2986
59594SOL    HW288713   3.892   7.900   8.447 -0.9804 -1.0190  1.2946
59595SOL     OW88714   0.007   1.851   6.856  0.2694  0.4409  0.0936
59595SOL    HW188715   0.004   1.759   6.831 -0.2583  0.2408  0.8399
59595SOL    HW288716   0.062   1.893   6.789  0.1655 -0.3325 -0.4909
59596SOL     OW88717  12.645   2.577  10.512 -0.1064 -0.5895 -0.4268
59596SOL    HW188718  12.610   2.562  10.425  1.5416 -4.2834 -0.6296
59596SOL    HW288719  12.728   2.529  10.514  0.3145 -0.0350  2.9438
59597SOL     OW88720   5.721   5.091  10.665  0.1346 -0.1150  0.6174
59597SOL    HW188721   5.656   5.022  10.656  1.0046 -0.6759 -2.2628
59597SOL    HW288722   5.681   5.154  10.725 -2.5718 -0.9525 -0.1673
59598SOL     OW88723   6.325  11.627  10.924  0.5219 -0.2173  0.1960
59598SOL    HW188724   6.379  11.617  11.003  2.2866 -0.3130 -0.9556
59598SOL    HW288725   6.385  11.663  10.859 -1.5081  2.3513 -0.4211
59599SOL     OW88726   0.788   4.916   2.138 -0.3444  0.3562 -0.5862
59599SOL    HW188727   0.881   4.929   2.122  0.2676 -0.9138  1.4730
59599SOL    HW288728   0.758   4.998   2.177  0.2910  0.2477  0.1460
59600SOL     OW88729   6.875   3.571  13.301 -0.1064  0.3426  0.5617
59600SOL    HW188730   6.795   3.614  13.271 -0.7800 -1.5246 -0.4567
59600SOL    HW288731   6.849   3.520  13.378  0.6547  1.5484  1.6696
59601SOL     OW88732  13.110  10.436  11.954  0.3649 -0.2707 -0.4202
59601SOL    HW188733  13.122  10.457  12.046 -0.0600 -1.1913 -0.1424
59601SOL    HW288734  13.121  10.341  11.949  1.0624 -0.1578 -1.4335
59602SOL     OW88735   6.803   6.595   9.576  0.4694  0.5951  0.0199
59602SOL    HW188736   6.846   6.625   9.656 -1.0739  0.7785  0.8278
59602SOL    HW288737   6.818   6.501   9.574 -1.1898  0.2352  1.6801
59603SOL     OW88738  11.714   2.687  10.109 -0.1401 -0.2560 -0.3568
59603SOL    HW188739  11.765   2.606  10.100  1.6031  0.9492 -2.4329
59603SOL    HW288740  11.644   2.678  10.044  0.0902 -0.1076 -0.6311
59604SOL     OW88741   1.110   5.138   5.682  0.5210 -0.1230  0.2656
59604SOL    HW188742   1.041   5.083   5.720  0.0772 -0.1476 -0.5382
59604SOL    HW288743   1.174   5.075   5.647  0.1653 -0.1288 -0.3827
59605SOL     OW88744   9.695  11.791   4.068  0.1026 -0.3786 -0.4485
59605SOL    HW188745   9.621  11.825   4.119 -0.6438  1.4104 -2.5992
59605SOL    HW288746   9.655  11.731   4.005  0.5851 -0.0498 -1.0738
59606SOL     OW88747   7.205   6.523  11.312 -0.8196  0.0392  0.0101
59606SOL    HW188748   7.157   6.450  11.274  0.3421 -0.3239 -0.7935
59606SOL    HW288749   7.234   6.576  11.237  1.1389 -0.4651  0.3506
59607SOL     OW88750   8.345  10.720   3.679 -0.6286 -0.0169  0.1518
59607SOL    HW188751   8.358  10.690   3.769 -0.0698  1.1948  0.4985
59607SOL    HW288752   8.271  10.780   3.684 -0.4581  0.2233 -0.1486
59608SOL     OW88753   2.425   1.059   0.228  0.5084 -0.3192 -0.0302
59608SOL    HW188754   2.395   0.999   0.160  4.2260 -1.3793 -1.0168
59608SOL    HW288755   2.396   1.146   0.198 -0.6907 -1.1018 -1.2516
59609SOL     OW88756   9.027   3.019  13.112  0.1366 -0.9697  0.3593
59609SOL    HW188757   8.934   2.997  13.103  0.1063 -0.2612 -1.3253
59609SOL    HW288758   9.065   3.003  13.026  1.3852 -0.3240  0.7595
59610SOL     OW88759  11.584   1.094  12.943  0.1175  0.2478 -0.4425
59610SOL    HW188760  11.555   1.004  12.928 -1.8688  1.0961 -2.2727
59610SOL    HW288761  11.634   1.090  13.024 -0.7676 -2.3227  0.0671
59611SOL     OW88762  12.647   0.517   6.023  0.2962 -0.4549  0.8335
59611SOL    HW188763  12.615   0.427   6.020 -2.9272  0.5530  1.5159
59611SOL    HW288764  12.602   0.556   6.098 -0.2050  2.3251 -0.7839
59612SOL     OW88765  11.202   7.635   7.704 -0.0618  0.0848  0.7411
59612SOL    HW188766  11.227   7.667   7.790 -0.2053 -0.9052  1.1537
59612SOL    HW288767  11.111   7.606   7.713 -0.1260  0.1024  0.2250
59613SOL     OW88768   4.318   5.873   4.635  0.3143  0.0098  0.3072
59613SOL    HW188769   4.322   5.969   4.633 -0.2030  0.0259 -0.0795
59613SOL    HW288770   4.298   5.848   4.545  1.4938 -0.5193  0.1797
59614SOL     OW88771  11.850  11.812   2.616  0.1589 -0.0021  0.2979
59614SOL    HW188772  11.883  11.861   2.541  3.0466 -0.0201  1.3927
59614SOL    HW288773  11.914  11.830   2.686 -1.1927 -1.7007  2.0811
59615SOL     OW88774   3.038   3.710   3.639  0.3357 -0.2315  0.1845
59615SOL    HW188775   3.026   3.632   3.694  0.2905  0.0079  0.5167
59615SOL    HW288776   2.958   3.715   3.587  0.4992 -0.6201 -0.1096
59616SOL     OW88777  12.981   7.853   4.296  0.0622  0.0115 -0.0538
59616SOL    HW188778  12.992   7.895   4.381  2.8534  0.1156 -0.3889
59616SOL    HW288779  12.910   7.790   4.309  0.9602 -0.5593  2.5934
59617SOL     OW88780   1.280   2.757  11.498  0.0383 -0.8274  0.1242
59617SOL    HW188781   1.295   2.735  11.406 -1.2756 -0.5013 -0.1885
59617SOL    HW288782   1.264   2.673  11.540 -2.4865 -0.7949 -0.5856
59618SOL     OW88783   7.117   1.385  10.945 -0.4049  0.3778  1.3743
59618SOL    HW188784   7.103   1.480  10.935 -0.2824  0.2340 -0.6073
59618SOL    HW288785   7.033   1.347  10.920 -0.3317 -0.0532  1.7872
59619SOL     OW88786   2.405   8.214   5.235 -0.9723  0.2984  0.7174
59619SOL    HW188787   2.358   8.131   5.228  2.2219 -1.7751  1.8698
59619SOL    HW288788   2.387   8.244   5.324  1.4241 -1.6375  1.9546
59620SOL     OW88789  10.517   1.950  10.861  0.2126  0.3135 -0.2728
59620SOL    HW188790  10.490   1.859  10.873 -1.2449  0.4646 -1.9701
59620SOL    HW288791  10.610   1.945  10.840  0.4504 -0.6594  0.9130
59621SOL     OW88792   9.931   3.783   8.763  0.2871  0.2516  0.0613
59621SOL    HW188793   9.877   3.710   8.733  1.1673 -0.3911 -0.0081
59621SOL    HW288794   9.893   3.808   8.847 -1.9175  1.7632 -1.2876
59622SOL     OW88795   4.183  12.610   1.249 -0.4486  0.3809  0.1945
59622SOL    HW188796   4.257  12.669   1.239  0.6998 -0.9520  0.5695
59622SOL    HW288797   4.219  12.534   1.295 -1.8194 -0.7430 -0.5334
59623SOL     OW88798   7.821   2.448   5.195 -0.3297  0.6420 -0.4595
59623SOL    HW188799   7.794   2.432   5.286 -0.5964  0.4872 -0.5656
59623SOL    HW288800   7.896   2.507   5.203  0.3825 -0.2797 -0.0736
59624SOL     OW88801  13.065  10.378   9.903  0.0704  0.7597 -0.4398
59624SOL    HW188802  13.066  10.368   9.998 -2.5312  1.0213 -0.2963
59624SOL    HW288803  13.037  10.468   9.889  2.2023  1.3064 -1.5177
59625SOL     OW88804   3.784   1.997   2.532  0.2178  0.0608 -0.0752
59625SOL    HW188805   3.854   1.944   2.570 -0.1469 -0.5755 -0.2707
59625SOL    HW288806   3.704   1.955   2.561 -0.0749  0.1023 -0.7963
59626SOL     OW88807   1.077   4.603   1.547 -0.2656  0.1588  0.1573
59626SOL    HW188808   1.069   4.563   1.461 -1.6120  0.4856  0.1058
59626SOL    HW288809   1.097   4.530   1.606 -2.3785 -0.6239  0.0236
59627SOL     OW88810   4.594  10.205   7.892 -0.2447 -0.2954  0.1675
59627SOL    HW188811   4.677  10.163   7.867 -0.3728  0.0294 -0.8620
59627SOL    HW288812   4.537  10.193   7.816 -0.3792  1.4657 -0.0607
59628SOL     OW88813   3.823   5.275  10.931 -0.4303  0.1404 -0.2027
59628SOL    HW188814   3.781   5.309  10.852 -0.5437  0.4263 -0.0232
59628SOL    HW288815   3.754   5.277  10.997  0.1249  1.6477  0.3844
59629SOL     OW88816  10.536  12.441  12.162 -0.0140  0.0525  0.0694
59629SOL    HW188817  10.612  12.461  12.107 -0.7125  0.8802 -0.6229
59629SOL    HW288818  10.480  12.518  12.155 -1.8592 -1.2905 -1.0714
59630SOL     OW88819   3.376   7.395   5.961  0.1690  0.4712  0.0253
59630SOL    HW188820   3.402   7.325   5.901 -2.5139 -0.7645  0.1353
59630SOL    HW288821   3.304   7.440   5.916  0.3582  1.7310  0.9168
59631SOL     OW88822   7.008   4.168  10.308 -0.5633 -1.2037 -0.3772
59631SOL    HW188823   6.972   4.130  10.388 -2.2735  3.1038  1.2058
59631SOL    HW288824   6.936   4.165  10.245  0.2753 -3.1278 -1.3258
59632SOL     OW88825   7.866   3.992   4.808 -0.5233 -0.0849 -0.9412
59632SOL    HW188826   7.924   3.917   4.826 -1.1352 -0.6248 -1.1710
59632SOL    HW288827   7.835   4.019   4.895  0.3079  0.4094 -0.7884
59633SOL     OW88828   2.326   5.277   3.748  0.5550  0.1310 -0.0523
59633SOL    HW188829   2.386   5.221   3.798 -1.2356 -1.2309  0.6711
59633SOL    HW288830   2.345   5.257   3.657  1.9119  0.5207  0.1219
59634SOL     OW88831  13.141  10.323   0.402  0.1386  0.3083 -0.2980
59634SOL    HW188832  13.198  10.261   0.356  0.3139 -0.4254  0.8916
59634SOL    HW288833  13.172  10.322   0.492 -0.1591  1.7907 -0.1500
59635SOL     OW88834  10.347  12.572  12.576 -0.0922  0.4641 -0.1129
59635SOL    HW188835  10.311  12.651  12.536  0.5532  0.2246 -1.1976
59635SOL    HW288836  10.327  12.502  12.514  0.4692 -0.0046  0.2252
59636SOL     OW88837   2.483  12.571   8.454 -0.2939 -0.3080 -0.4516
59636SOL    HW188838   2.426  12.626   8.401  0.6709  1.0396 -0.1237
59636SOL    HW288839   2.571  12.608   8.443 -0.0106 -0.1762  1.7979
59637SOL     OW88840   6.615   0.520   4.187 -0.2461  0.4248 -0.6415
59637SOL    HW188841   6.641   0.469   4.263 -0.6887  0.4230 -0.4904
59637SOL    HW288842   6.698   0.546   4.146 -0.0048  0.5273 -0.0970
59638SOL     OW88843  12.221   4.068   4.642  0.4467 -0.1842 -0.0230
59638SOL    HW188844  12.149   4.006   4.655 -0.2273  0.7454  0.8558
59638SOL    HW288845  12.211   4.132   4.714  0.1215  1.8784 -1.7889
59639SOL     OW88846  11.544   7.143   6.322 -0.2233 -0.2747  0.2781
59639SOL    HW188847  11.566   7.230   6.356  0.6703 -1.4618  3.0068
59639SOL    HW288848  11.451   7.148   6.302 -0.0879  1.4272 -0.0705
59640SOL     OW88849   4.116   7.765   5.180 -0.5882  0.4522 -0.1134
59640SOL    HW188850   4.148   7.676   5.166 -0.9328  0.3216 -0.0965
59640SOL    HW288851   4.149   7.789   5.266 -2.7410 -0.7090  1.1501
59641SOL     OW88852  10.499  12.724   0.717 -0.7520  0.2516 -0.1056
59641SOL    HW188853  10.544  12.771   0.787  1.8835  0.7353 -1.9451
59641SOL    HW288854  10.555  12.648   0.701  0.6398  1.8154 -3.7115
59642SOL     OW88855   1.295   8.138   7.021 -0.2967 -0.3361  0.0257
59642SOL    HW188856   1.278   8.060   6.968 -0.5314 -1.1801  1.3095
59642SOL    HW288857   1.250   8.209   6.974 -1.8341 -1.3397 -0.0869
59643SOL     OW88858   6.324   3.872   2.699  0.3612 -0.3853  0.3008
59643SOL    HW188859   6.307   3.934   2.769 -0.5113  0.4639 -0.6493
59643SOL    HW288860   6.344   3.926   2.623  3.4590 -1.2801  0.3437
59644SOL     OW88861   9.855  13.085   3.801  0.3647  0.0020 -0.0404
59644SOL    HW188862   9.879  13.052   3.714  2.1573  0.4128  0.2580
59644SOL    HW288863   9.765  13.055   3.814 -0.3730  0.9355 -2.5064
59645SOL     OW88864   5.728  12.159   5.599 -0.0753 -0.2400 -0.5380
59645SOL    HW188865   5.761  12.078   5.636  1.2551  0.0208 -1.0752
59645SOL    HW288866   5.672  12.196   5.667  0.1059 -1.1091  0.1009
59646SOL     OW88867  10.861  12.240   3.419 -0.2332 -0.6983  0.0094
59646SOL    HW188868  10.901  12.314   3.465 -1.1376 -0.0882 -0.1654
59646SOL    HW288869  10.911  12.164   3.448 -0.9617 -0.3928  2.2783
59647SOL     OW88870   4.014   8.095  12.578  0.0678  0.4635  0.1535
59647SOL    HW188871   4.079   8.069  12.643 -1.2311 -1.0895  0.8918
59647SOL    HW288872   3.930   8.067  12.615 -0.7907  0.2034 -1.8546
59648SOL     OW88873   9.942   5.393   0.373  0.4593  0.3784 -0.7181
59648SOL    HW188874   9.859   5.384   0.420  1.7898 -2.0799  1.4498
59648SOL    HW288875   9.990   5.459   0.424  0.6895  0.1132 -0.5924
59649SOL     OW88876   1.300   5.818   4.936  0.5205 -0.2549 -0.1126
59649SOL    HW188877   1.307   5.722   4.934  1.3282 -0.2017 -1.2447
59649SOL    HW288878   1.236   5.836   5.005 -0.8013 -1.6750 -0.8906
59650SOL     OW88879   0.267   7.961  12.238  0.1814 -0.0819 -0.5838
59650SOL    HW188880   0.327   7.938  12.167  0.2445 -0.5737 -0.3745
59650SOL    HW288881   0.225   7.879  12.262 -1.2904  0.3941 -1.3549
59651SOL     OW88882   0.289  11.415   3.273  0.1009 -0.0783 -0.8839
59651SOL    HW188883   0.214  11.429   3.331  1.1305  2.3316 -0.0291
59651SOL    HW288884   0.343  11.350   3.317 -0.1664  0.1847 -0.1568
59652SOL     OW88885   1.525  12.564   2.381 -0.0548  0.5083  0.0216
59652SOL    HW188886   1.568  12.484   2.351 -0.2452  0.7750 -1.0048
59652SOL    HW288887   1.449  12.574   2.323 -1.0515  0.4934  1.2660
59653SOL     OW88888  13.182   7.726   7.434  0.4643  0.2757  0.2235
59653SOL    HW188889  13.189   7.642   7.479 -0.9681 -0.1685 -0.3375
59653SOL    HW288890  13.186   7.704   7.341 -0.6324  0.7206  0.0525
59654SOL     OW88891   9.089   2.425   1.916  0.3503 -0.7757  0.0873
59654SOL    HW188892   9.130   2.339   1.916  4.0754  0.8152 -0.6513
59654SOL    HW288893   9.073   2.444   2.009 -0.0986 -2.0546  0.2795
59655SOL     OW88894   7.334   5.389  13.105 -0.2996  1.0465 -0.3968
59655SOL    HW188895   7.415   5.342  13.126 -0.9808  0.4559  0.9791
59655SOL    HW288896   7.289   5.332  13.043 -0.2430  0.7983 -0.2098
59656SOL     OW88897   3.490   1.086  12.668  0.3655 -0.2774 -0.0793
59656SOL    HW188898   3.480   1.107  12.760 -0.3304 -2.1752  0.3382
59656SOL    HW288899   3.400   1.082  12.634  0.5928  0.0357 -0.7397
59657SOL     OW88900   1.518   0.206  10.888 -0.4784  0.3970 -0.6827
59657SOL    HW188901   1.573   0.155  10.828  0.3210  0.8076 -0.3155
59657SOL    HW288902   1.573   0.219  10.966 -0.7832  1.5424 -0.6454
59658SOL     OW88903  11.250  11.764   7.984 -0.9438  0.1704 -0.1357
59658SOL    HW188904  11.238  11.698   7.916  2.9425 -1.4159  0.4519
59658SOL    HW288905  11.210  11.726   8.062  0.0383 -0.9124 -0.1357
59659SOL     OW88906  10.755   8.860   9.115  0.3407  0.1487  1.4110
59659SOL    HW188907  10.805   8.939   9.094 -0.6379  0.2717 -0.7236
59659SOL    HW288908  10.675   8.867   9.063  0.3027 -2.3215  0.9960
59660SOL     OW88909   4.139   9.526   3.375  0.3719  0.0002 -0.5668
59660SOL    HW188910   4.099   9.521   3.288 -1.4575  1.0102  0.1648
59660SOL    HW288911   4.073   9.492   3.434  1.2328  0.1880  0.5415
59661SOL     OW88912   6.464   7.961   1.610 -0.0765  0.0161 -0.0223
59661SOL    HW188913   6.430   7.922   1.690  3.1474 -2.2050  0.4509
59661SOL    HW288914   6.496   8.047   1.637  0.5177 -0.5069  1.0056
59662SOL     OW88915  11.777   0.152   8.356  0.0828 -0.4332  0.3499
59662SOL    HW188916  11.821   0.120   8.277 -1.1195  2.1631 -1.5077
59662SOL    HW288917  11.762   0.245   8.339 -1.8175 -0.1661  2.9193
59663SOL     OW88918  11.564   0.546  11.958  0.1163 -0.1735 -0.3847
59663SOL    HW188919  11.479   0.552  12.002  0.1335  0.2173 -0.4036
59663SOL    HW288920  11.550   0.485  11.886 -1.1695  2.6190 -2.7041
59664SOL     OW88921   0.553   0.892   9.218  0.1342 -0.0605  0.1483
59664SOL    HW188922   0.583   0.927   9.302  0.8746 -0.8423  0.2271
59664SOL    HW288923   0.630   0.847   9.182  0.1927  1.2180 -1.4933
59665SOL     OW88924  12.388  10.199  11.887 -0.2354 -0.2917 -0.4011
59665SOL    HW188925  12.468  10.244  11.915 -0.9750 -0.4208  2.2730
59665SOL    HW288926  12.362  10.148  11.964 -2.8819 -0.2473 -1.1721
59666SOL     OW88927   2.370  12.949   1.098  0.7957 -0.0096 -0.0161
59666SOL    HW188928   2.442  12.953   1.035  0.0582  1.3988 -0.8115
59666SOL    HW288929   2.387  13.020   1.159  0.4179 -0.0657  0.1603
59667SOL     OW88930   5.054   2.431  12.616  0.2504  0.1652  0.5606
59667SOL    HW188931   5.149   2.419  12.618  0.3091  0.6509  0.8015
59667SOL    HW288932   5.020   2.347  12.587  0.9393  0.9925 -3.1637
59668SOL     OW88933   2.764   1.030   8.295 -0.0771 -0.0261 -0.0539
59668SOL    HW188934   2.806   0.950   8.264  0.8353  0.4847 -0.1567
59668SOL    HW288935   2.730   1.007   8.382  1.4813 -0.1172  0.5662
59669SOL     OW88936   2.353   6.014  11.955 -0.7653 -0.1102  0.0460
59669SOL    HW188937   2.320   6.028  11.866 -2.1238 -1.0713  0.3666
59669SOL    HW288938   2.410   6.089  11.972 -2.5081  1.4645 -0.7001
59670SOL     OW88939   4.274   5.374   3.055 -0.1376  0.0445 -0.0943
59670SOL    HW188940   4.305   5.295   3.100 -0.5078 -1.7524 -2.7559
59670SOL    HW288941   4.341   5.392   2.990 -0.0064  2.0867  0.5435
59671SOL     OW88942   2.727   7.712   7.228 -0.2504  0.3454  0.6277
59671SOL    HW188943   2.792   7.667   7.281 -1.5219 -0.3263  1.6802
59671SOL    HW288944   2.643   7.679   7.259 -1.1179  1.2476 -0.6205
59672SOL     OW88945   9.078   7.638   6.296  0.1145  0.4598  0.0058
59672SOL    HW188946   9.144   7.637   6.365 -1.9174 -0.5343  2.0540
59672SOL    HW288947   8.999   7.602   6.337 -1.4426  0.6248 -2.6092
59673SOL     OW88948   9.790   0.603   0.876  0.0301  0.3319  0.3831
59673SOL    HW188949   9.783   0.639   0.788 -0.7064  0.2119  0.3896
59673SOL    HW288950   9.793   0.508   0.863 -1.2647  0.2485  0.5377
59674SOL     OW88951   3.504   0.859   5.857  0.0684  0.4072  0.0152
59674SOL    HW188952   3.581   0.880   5.910  0.5699  0.2401 -0.6314
59674SOL    HW288953   3.441   0.927   5.879  1.2214  1.9329 -1.1394
59675SOL     OW88954   8.644  11.599   9.275  0.0462  0.2302  0.1036
59675SOL    HW188955   8.703  11.531   9.307  0.1950  1.0110  1.5672
59675SOL    HW288956   8.614  11.566   9.190 -1.9101 -2.9022  1.8407
59676SOL     OW88957   7.484  12.091   3.246 -0.3357  0.0158 -0.3360
59676SOL    HW188958   7.446  12.174   3.215  0.4303  0.7616  0.6522
59676SOL    HW288959   7.496  12.039   3.167 -2.0982  0.2919 -0.8425
59677SOL     OW88960   5.761   8.240   2.142  1.0090 -0.7813  0.2254
59677SOL    HW188961   5.801   8.238   2.229  2.2627 -0.4238 -0.3244
59677SOL    HW288962   5.669   8.258   2.159  1.3250 -0.1924  1.4474
59678SOL     OW88963  12.929   9.676   6.553 -0.5223  0.0725 -0.1121
59678SOL    HW188964  12.940   9.621   6.475 -0.0179 -0.4994  0.3549
59678SOL    HW288965  12.848   9.645   6.593 -0.1854 -0.4071  0.2063
59679SOL     OW88966  11.641   7.896   4.016  0.1859  0.9189 -0.0196
59679SOL    HW188967  11.729   7.933   4.010  0.4201  0.4255  0.4448
59679SOL    HW288968  11.587   7.958   3.966  1.0198  0.4674 -1.5610
59680SOL     OW88969  11.858   5.323   5.680 -0.0119  0.1141 -0.3291
59680SOL    HW188970  11.913   5.389   5.637  0.3529 -0.2119 -0.3699
59680SOL    HW288971  11.854   5.351   5.772  0.4418 -0.0014 -0.2710
59681SOL     OW88972  11.218   0.324   2.640  0.1458  0.1836  0.2516
59681SOL    HW188973  11.150   0.352   2.702 -0.3049 -0.6339  0.1421
59681SOL    HW288974  11.184   0.243   2.602  1.0946 -0.1278  0.0363
59682SOL     OW88975  10.008  12.684   7.405  0.0430 -0.5865 -0.1318
59682SOL    HW188976   9.935  12.640   7.361 -0.4250 -2.2600  2.1575
59682SOL    HW288977  10.076  12.618   7.411 -0.4230 -0.9195  2.7860
59683SOL     OW88978   3.084   4.343  12.022  0.2008  0.0166 -0.0112
59683SOL    HW188979   3.030   4.264  12.022 -0.8391  0.6888 -1.2900
59683SOL    HW288980   3.161   4.320  11.972  0.9378 -0.8228  1.4606
59684SOL     OW88981  12.696  12.889   6.051  0.0885 -0.2685  0.2489
59684SOL    HW188982  12.679  12.983   6.056 -0.5145 -0.2153 -1.7150
59684SOL    HW288983  12.610  12.850   6.043  0.2821 -1.1065  1.9481
59685SOL     OW88984  12.568   0.612   4.436 -0.0699 -0.3882  0.1506
59685SOL    HW188985  12.562   0.703   4.408  0.7069 -0.6100 -0.7895
59685SOL    HW288986  12.545   0.561   4.358  0.2866 -1.0020  0.4356
59686SOL     OW88987  13.133   8.946   2.981 -0.2587 -0.0199 -0.0068
59686SOL    HW188988  13.224   8.971   2.995 -0.0582 -1.5946  1.8835
59686SOL    HW288989  13.136   8.864   2.933 -0.6541 -0.3375  0.4948
59687SOL     OW88990   4.691   6.073   3.424 -0.4428 -0.2930 -0.0535
59687SOL    HW188991   4.598   6.078   3.447  0.0252  1.0740  1.7818
59687SOL    HW288992   4.693   6.095   3.331 -1.8538  1.3388  0.2364
59688SOL     OW88993   2.977  11.359   8.208 -0.1702 -0.3013  0.0629
59688SOL    HW188994   2.900  11.329   8.160 -0.1047  0.0619 -0.2778
59688SOL    HW288995   2.975  11.454   8.198  0.4411 -0.3067 -0.1364
59689SOL     OW88996  10.629  12.649   9.595 -0.0943 -0.1321  1.0518
59689SOL    HW188997  10.578  12.591   9.652  0.3890  0.6787  2.3565
59689SOL    HW288998  10.675  12.708   9.656  0.0303  1.1101 -0.2048
59690SOL     OW88999   5.544   5.993  12.939 -0.1494 -0.1300  0.3150
59690SOL    HW189000   5.520   6.082  12.964  0.4238  0.6141 -1.5696
59690SOL    HW289001   5.475   5.965  12.878 -0.2439 -0.9309  0.7701
59691SOL     OW89002   2.061   2.295   5.722 -0.2761  0.3077  0.4275
59691SOL    HW189003   2.147   2.312   5.685 -0.2136  1.6139  1.1167
59691SOL    HW289004   2.010   2.260   5.649  0.1846  1.6876 -0.5910
59692SOL     OW89005   1.967   5.514   0.514 -0.0859  0.0932 -0.3717
59692SOL    HW189006   1.893   5.483   0.462 -0.4196  0.3058 -0.0214
59692SOL    HW289007   1.930   5.539   0.598  0.2522  0.9753 -0.4728
59693SOL     OW89008  10.647   1.504   2.382 -0.2729 -0.0923 -0.0824
59693SOL    HW189009  10.625   1.429   2.438 -3.5753 -0.0199 -1.0436
59693SOL    HW289010  10.616   1.580   2.430 -0.2551  0.2801 -0.6491
59694SOL     OW89011   1.595   4.363   8.967  0.3413  0.7293 -0.7119
59694SOL    HW189012   1.606   4.306   8.891  0.4272 -0.0554 -0.1155
59694SOL    HW289013   1.662   4.431   8.956 -0.0043  0.9428 -1.6141
59695SOL     OW89014   7.823  11.340   2.406  0.0580 -0.5323  0.3411
59695SOL    HW189015   7.781  11.305   2.484 -0.9154 -1.1416 -0.4433
59695SOL    HW289016   7.901  11.286   2.394  0.5029 -0.0943  1.1803
59696SOL     OW89017   6.947   3.667  12.983 -0.4180  0.1443  0.6063
59696SOL    HW189018   6.856   3.655  13.009 -1.2564  0.7850 -1.7809
59696SOL    HW289019   6.944   3.734  12.914  1.4500 -2.0123 -1.7653
59697SOL     OW89020  12.346   0.837  10.529  0.1829  0.4496 -0.4461
59697SOL    HW189021  12.279   0.805  10.591  1.5743  0.3155  1.0548
59697SOL    HW289022  12.406   0.888  10.583  1.3529  0.4911 -1.7371
59698SOL     OW89023  11.935   6.192   3.842  0.1920  0.4180 -0.4785
59698SOL    HW189024  11.888   6.276   3.847  0.2289  0.3952  0.3405
59698SOL    HW289025  12.016   6.207   3.889  0.0495 -0.1801 -0.0365
59699SOL     OW89026   5.540   8.518   5.598 -0.6272  0.0401  0.0995
59699SOL    HW189027   5.602   8.479   5.537 -2.9642  0.3337 -2.6742
59699SOL    HW289028   5.563   8.611   5.601 -0.3877 -0.0111 -0.1819
59700SOL     OW89029   2.980   2.782   7.843 -0.0882  0.2218 -0.0986
59700SOL    HW189030   2.995   2.741   7.928 -2.2035 -0.4376  0.0206
59700SOL    HW289031   2.911   2.728   7.803 -1.2692  2.2705 -0.9554
59701SOL     OW89032   0.273   4.838  11.628 -0.2602 -0.2015  0.3695
59701SOL    HW189033   0.315   4.885  11.700  3.4068  0.7409 -2.1205
59701SOL    HW289034   0.253   4.906  11.564 -3.0137 -1.0769  0.1559
59702SOL     OW89035   1.153   1.760  11.252  0.3873  0.0531  0.2545
59702SOL    HW189036   1.154   1.839  11.305  0.4394 -0.2245  0.6792
59702SOL    HW289037   1.061   1.736  11.244  0.1891  1.2401 -1.5475
59703SOL     OW89038   8.768   2.450  10.562 -0.1364  0.2164 -0.2630
59703SOL    HW189039   8.814   2.374  10.599  1.0348  0.8244 -0.4460
59703SOL    HW289040   8.703   2.411  10.503  0.3511 -0.6537 -0.2462
59704SOL     OW89041   9.167  13.152   3.278 -0.1948  0.3800 -0.5391
59704SOL    HW189042   9.262  13.155   3.270  0.0988 -0.5337  1.8953
59704SOL    HW289043   9.142  13.239   3.309  0.0166  0.2545  0.0001
59705SOL     OW89044   7.329   9.504   5.855 -0.1959  0.2279  0.2895
59705SOL    HW189045   7.381   9.576   5.889  1.8939 -0.9523 -0.2538
59705SOL    HW289046   7.367   9.425   5.895 -3.0651 -0.5725  1.7056
59706SOL     OW89047  10.792   9.745  11.775  0.0929 -0.1849 -0.2175
59706SOL    HW189048  10.729   9.680  11.745 -0.3652 -0.1657  0.6455
59706SOL    HW289049  10.748   9.787  11.850 -0.7154  2.8694 -2.2123
59707SOL     OW89050  10.321   5.091   4.788  0.5366  0.2219  0.0752
59707SOL    HW189051  10.248   5.076   4.728 -0.8694 -2.7702  2.2613
59707SOL    HW289052  10.300   5.173   4.833 -1.6072 -0.5937  0.6837
59708SOL     OW89053   8.293   8.807   8.687  0.1176 -0.0126 -0.7345
59708SOL    HW189054   8.250   8.749   8.624  0.1381  0.4598 -1.1928
59708SOL    HW289055   8.238   8.802   8.765  0.2639 -0.8483 -0.6796
59709SOL     OW89056   4.448  12.306   5.596  1.0981 -0.6691  0.0511
59709SOL    HW189057   4.454  12.213   5.577 -2.3395 -1.0132 -0.0466
59709SOL    HW289058   4.457  12.312   5.691  0.0027 -1.3321  0.2195
59710SOL     OW89059   2.574  10.315   4.028 -0.2414  0.0186  0.2968
59710SOL    HW189060   2.522  10.248   4.073  1.1728 -1.0902  0.3701
59710SOL    HW289061   2.656  10.318   4.077  0.9033 -0.4102 -1.5002
59711SOL     OW89062   5.196   6.942  13.042  0.0170  0.2213  0.4832
59711SOL    HW189063   5.256   6.932  13.116  1.8580  3.0252 -0.4950
59711SOL    HW289064   5.130   7.005  13.073  0.3345  0.7873  0.0305
59712SOL     OW89065   0.568   0.170  10.985  0.5202 -0.0900 -0.0015
59712SOL    HW189066   0.594   0.148  11.074 -0.4236  0.7291  0.5000
59712SOL    HW289067   0.520   0.093  10.954  0.3575 -0.1535  0.4077
59713SOL     OW89068   3.329   8.615  11.777 -0.1424  0.2592  0.0276
59713SOL    HW189069   3.285   8.673  11.839  0.2539 -2.6533  3.3940
59713SOL    HW289070   3.422   8.625  11.797  0.0254 -0.3386 -0.4364
59714SOL     OW89071   0.235   9.931  11.256  0.6068 -0.4550 -0.4369
59714SOL    HW189072   0.232   9.893  11.343 -2.1874 -0.8378 -0.6299
59714SOL    HW289073   0.150   9.973  11.244 -0.8617 -3.7966 -4.3931
59715SOL     OW89074  12.411   5.665   6.178 -0.3086  0.2832 -0.3043
59715SOL    HW189075  12.368   5.742   6.214 -0.8704  1.2229 -2.7342
59715SOL    HW289076  12.501   5.693   6.160 -0.6056  0.5469 -1.5090
59716SOL     OW89077   3.354   3.562   0.891  0.3047 -0.3226  0.1770
59716SOL    HW189078   3.264   3.581   0.865  0.3839 -1.5082 -1.1231
59716SOL    HW289079   3.385   3.642   0.932 -0.2882  1.3108 -2.2996
59717SOL     OW89080   9.430   1.618  11.447  0.4098  0.2626  0.1905
59717SOL    HW189081   9.503   1.638  11.506  0.2454 -0.5786  0.6875
59717SOL    HW289082   9.364   1.578  11.503  0.4403 -1.0069 -0.6354
59718SOL     OW89083  11.901   0.084   5.886  0.0026  0.2876 -0.0615
59718SOL    HW189084  11.949   0.011   5.847  0.0768  0.6259 -0.6251
59718SOL    HW289085  11.968   0.149   5.906  0.2111 -0.5642  2.3159
59719SOL     OW89086   1.012   8.605   3.874 -0.5109  0.1768 -0.1333
59719SOL    HW189087   0.992   8.672   3.939 -3.1986  1.3740 -2.0253
59719SOL    HW289088   0.994   8.522   3.918  0.6813  0.7598  1.5337
59720SOL     OW89089   3.088   2.125   1.973  0.0203  0.7991  0.1354
59720SOL    HW189090   3.001   2.096   2.002  1.6554 -1.0494  3.8724
59720SOL    HW289091   3.132   2.045   1.945  0.7347  1.6213 -1.1774
59721SOL     OW89092  12.221   3.759   6.793  0.6130  0.3129  0.6350
59721SOL    HW189093  12.248   3.739   6.882  3.7747  0.7126 -0.1294
59721SOL    HW289094  12.230   3.677   6.745 -0.1047  0.3333  0.4527
59722SOL     OW89095   1.277   6.795   2.752 -0.8839 -0.0379  0.0763
59722SOL    HW189096   1.263   6.701   2.745 -2.3731  0.2503 -1.6420
59722SOL    HW289097   1.222   6.822   2.826  1.4552 -0.7841  2.2137
59723SOL     OW89098   5.170   1.514   5.934  0.0489 -0.1925 -0.3967
59723SOL    HW189099   5.142   1.527   6.024 -1.3357  0.0872 -0.8462
59723SOL    HW289100   5.118   1.577   5.883 -0.1129 -1.2010 -1.5271
59724SOL     OW89101   6.620  12.798   2.511  0.0705 -0.0055 -0.8219
59724SOL    HW189102   6.565  12.729   2.550  1.6903 -0.7799  0.1871
59724SOL    HW289103   6.557  12.859   2.473 -1.4622 -1.3951 -0.6503
59725SOL     OW89104   9.900   3.613   1.332 -0.8026 -0.4487 -0.1270
59725SOL    HW189105   9.830   3.598   1.395  0.1932 -0.4134  1.0399
59725SOL    HW289106   9.922   3.706   1.343 -0.8836 -0.3403 -0.8235
59726SOL     OW89107   6.962   8.910   3.359  0.1689 -0.5548  0.5037
59726SOL    HW189108   6.942   8.995   3.319  0.4823  0.2056  1.8950
59726SOL    HW289109   6.885   8.890   3.413  0.1618 -1.0915  0.3011
59727SOL     OW89110   6.819   7.942   2.039 -0.0877  0.3106  0.3681
59727SOL    HW189111   6.745   7.933   2.100  0.4709 -0.2961  0.9804
59727SOL    HW289112   6.890   7.894   2.082  0.8179  1.3248  0.0357
59728SOL     OW89113   5.593   9.111  13.248  0.7410 -0.4699 -0.2233
59728SOL    HW189114   5.525   9.123  13.181  0.7195  3.7542  0.2833
59728SOL    HW289115   5.669   9.159  13.214  1.6343 -0.4879  1.6154
59729SOL     OW89116   1.154  10.991   6.806  0.2811  0.2816  0.2122
59729SOL    HW189117   1.192  10.951   6.885 -0.1499 -0.7112 -0.0650
59729SOL    HW289118   1.102  11.064   6.839 -1.4817 -1.2548  1.0956
59730SOL     OW89119   7.517   7.398   1.606 -0.0475  0.2321  0.0740
59730SOL    HW189120   7.526   7.310   1.569 -2.6044 -0.3168  0.5529
59730SOL    HW289121   7.486   7.452   1.533 -1.2289  0.0469  0.4105
59731SOL     OW89122  12.043  10.264   5.904  0.4001 -0.0148  0.4867
59731SOL    HW189123  12.117  10.205   5.920 -0.9763 -1.8519  0.3909
59731SOL    HW289124  11.988  10.255   5.982 -0.4500  0.1516 -0.0768
59732SOL     OW89125  10.232  12.109   8.362  0.1631  0.1171 -0.8339
59732SOL    HW189126  10.198  12.020   8.372  1.1355 -0.1285  0.7458
59732SOL    HW289127  10.289  12.104   8.286  2.6775 -1.4998  0.9960
59733SOL     OW89128   9.678   3.630   2.626 -0.5595  0.0104 -0.3445
59733SOL    HW189129   9.751   3.656   2.682 -0.5161 -1.0771  0.1236
59733SOL    HW289130   9.709   3.551   2.582 -0.6744  0.7378 -1.7650
59734SOL     OW89131   2.744   1.040  11.797 -0.4509  0.0440 -0.5774
59734SOL    HW189132   2.723   0.947  11.784  0.4129 -0.2777  0.2135
59734SOL    HW289133   2.738   1.078  11.710 -1.8337 -0.5314 -0.7650
59735SOL     OW89134  11.379   6.488   7.989  0.0207 -0.5584 -0.2083
59735SOL    HW189135  11.362   6.486   7.894 -0.5721  2.1889 -0.2393
59735SOL    HW289136  11.450   6.551   8.000 -0.1959 -0.5323  1.2173
59736SOL     OW89137   4.817  10.961  10.823  0.5622 -0.1508 -0.1821
59736SOL    HW189138   4.735  10.992  10.861  0.0295 -2.3126  0.5781
59736SOL    HW289139   4.883  11.022  10.856 -0.5559  0.9069  0.1932
59737SOL     OW89140  11.327   5.528   3.020 -0.5151  0.3735 -0.3869
59737SOL    HW189141  11.327   5.469   2.945 -2.4034  1.2332 -1.1127
59737SOL    HW289142  11.383   5.601   2.993 -0.0938  0.0395 -0.4190
59738SOL     OW89143   3.494  10.801   3.036  0.1351  0.5579 -0.0080
59738SOL    HW189144   3.472  10.708   3.037 -1.8759  0.9850  1.0072
59738SOL    HW289145   3.441  10.837   2.964  2.0333  0.7154 -1.3895
59739SOL     OW89146  11.936  10.247   0.555  0.3295 -0.1183  0.4034
59739SOL    HW189147  11.873  10.235   0.485  0.1322 -0.1624  0.5885
59739SOL    HW289148  11.988  10.166   0.554  0.0706 -0.2901  0.5660
59740SOL     OW89149  10.954   3.821   6.140  0.4995  0.4562  0.3476
59740SOL    HW189150  10.892   3.894   6.141  0.0490  0.0895  0.0152
59740SOL    HW289151  10.912   3.755   6.085 -0.1091 -0.9113  2.3277
59741SOL     OW89152   8.215   4.687   2.909 -0.3190 -0.1154 -0.3537
59741SOL    HW189153   8.162   4.657   2.983 -1.4409 -0.2503 -1.1800
59741SOL    HW289154   8.160   4.753   2.866  0.8763  0.9459 -0.3011
59742SOL     OW89155   2.510  10.252  11.755  0.0659  0.2285 -0.4695
59742SOL    HW189156   2.496  10.342  11.782 -1.7344 -0.3991  0.8322
59742SOL    HW289157   2.531  10.205  11.836 -0.2580 -0.7558 -0.9363
59743SOL     OW89158   8.990  10.125   9.216  0.2063 -0.3593 -0.0694
59743SOL    HW189159   8.955  10.205   9.255  0.4509  0.2722 -1.1311
59743SOL    HW289160   9.081  10.122   9.245  0.6933  0.6686 -1.4158
59744SOL     OW89161   1.996  11.600  12.861  0.2995  0.4595 -0.1338
59744SOL    HW189162   2.023  11.509  12.873  2.0169  0.8757 -0.5340
59744SOL    HW289163   1.911  11.606  12.904  0.3690 -1.2096  0.3065
59745SOL     OW89164   3.389  11.508   6.860  0.2587  0.3969 -0.3625
59745SOL    HW189165   3.341  11.425   6.849  1.7440 -0.4155 -1.0419
59745SOL    HW289166   3.359  11.563   6.788  1.4741 -0.7089 -1.7931
59746SOL     OW89167   8.261   8.731   4.635 -0.0193 -0.2623  0.0076
59746SOL    HW189168   8.328   8.800   4.634 -0.3111  0.0222 -0.5299
59746SOL    HW289169   8.190   8.767   4.689  0.0751 -0.3828  0.2121
59747SOL     OW89170  11.802   8.331   2.292 -0.3161  0.6111 -0.3906
59747SOL    HW189171  11.737   8.268   2.262  0.9851 -1.4427  0.9046
59747SOL    HW289172  11.844   8.361   2.212 -2.2915  1.4353 -1.1949
59748SOL     OW89173   0.096   2.764   4.562  0.1779 -0.3368 -0.4538
59748SOL    HW189174   0.061   2.841   4.518  1.4022 -0.2458 -1.3489
59748SOL    HW289175   0.156   2.799   4.628  0.7903 -0.4943 -0.9089
59749SOL     OW89176   9.150   0.917   0.585 -0.3167  0.2455 -0.0549
59749SOL    HW189177   9.177   1.005   0.558 -0.9538 -0.0497 -1.7741
59749SOL    HW289178   9.219   0.889   0.646  0.7434  1.3021 -0.7230
59750SOL     OW89179   5.196   6.124   5.997 -0.2255  0.5582 -0.1123
59750SOL    HW189180   5.128   6.073   6.041 -0.7231  1.9176  0.7536
59750SOL    HW289181   5.149   6.194   5.951  0.5832  1.9023  1.0155
59751SOL     OW89182   8.806  11.005   2.611 -0.4073  0.1917 -0.0116
59751SOL    HW189183   8.768  11.092   2.625 -1.7061 -0.1693 -0.9843
59751SOL    HW289184   8.730  10.946   2.611  0.4583 -0.9713  0.7281
59752SOL     OW89185   0.803   4.566   9.419 -0.5135  0.0021  0.0265
59752SOL    HW189186   0.858   4.539   9.346 -0.1673  1.0762 -0.1228
59752SOL    HW289187   0.713   4.556   9.386 -0.3617  0.3765 -0.5076
59753SOL     OW89188   0.893  12.887   8.866 -0.3745 -0.5303 -0.4370
59753SOL    HW189189   0.804  12.919   8.851 -0.6493  0.1548  2.1389
59753SOL    HW289190   0.949  12.960   8.839 -0.6410 -0.4624 -0.8276
59754SOL     OW89191   3.541  12.658   7.171  0.1887 -0.3174  0.2839
59754SOL    HW189192   3.572  12.711   7.245 -2.8089 -2.3349  3.3023
59754SOL    HW289193   3.449  12.642   7.190 -0.5060 -1.7758 -3.5177
59755SOL     OW89194   1.618  12.543   6.222  0.4046 -0.1248 -0.0429
59755SOL    HW189195   1.568  12.483   6.277  2.2327 -0.2510  1.6108
59755SOL    HW289196   1.671  12.487   6.167  0.5073 -0.0136 -0.0577
59756SOL     OW89197   2.443   9.683   2.118  0.0905 -0.3894 -0.1093
59756SOL    HW189198   2.446   9.754   2.054  0.1963 -0.4870 -0.2118
59756SOL    HW289199   2.525   9.691   2.166 -0.1787 -0.0458  0.3082
59757SOL     OW89200   9.448  12.317   5.764  0.5094 -0.2049 -0.2132
59757SOL    HW189201   9.384  12.385   5.745  0.4129 -0.2989 -0.2259
59757SOL    HW289202   9.430  12.292   5.855  1.6636  0.9934  0.3649
59758SOL     OW89203   8.580  10.720   5.329 -0.0420  0.4455  0.4405
59758SOL    HW189204   8.515  10.709   5.399 -0.8590  2.8401  0.1672
59758SOL    HW289205   8.636  10.792   5.359  1.0446 -0.0339 -0.3706
59759SOL     OW89206   5.683  10.662   8.167 -0.4004 -0.3620 -0.3500
59759SOL    HW189207   5.593  10.631   8.178 -0.2950 -1.1869 -1.6405
59759SOL    HW289208   5.697  10.720   8.242 -1.6006 -1.1487  0.5384
59760SOL     OW89209   8.869   5.004   8.607  0.2863  0.1367 -0.5976
59760SOL    HW189210   8.867   5.097   8.631  2.2243 -0.0097  0.3631
59760SOL    HW289211   8.793   4.966   8.652 -0.8919  1.3363 -1.5140
59761SOL     OW89212   3.456   4.203   7.263 -0.3758 -0.0192 -0.4788
59761SOL    HW189213   3.517   4.175   7.331 -2.3993 -0.7216  1.1854
59761SOL    HW289214   3.511   4.238   7.193  2.0497 -3.0554 -0.2983
59762SOL     OW89215   5.862  11.065  11.493 -1.0017  0.4774 -0.8489
59762SOL    HW189216   5.774  11.041  11.523 -1.1048  0.2333 -1.3374
59762SOL    HW289217   5.893  11.129  11.557 -0.9932 -0.4536  0.0949
59763SOL     OW89218   4.113   0.456   9.912 -0.5815  0.0172  0.0583
59763SOL    HW189219   4.083   0.445   9.821  0.6585  0.3208 -0.4117
59763SOL    HW289220   4.164   0.537   9.910  2.6843 -1.8586  0.1079
59764SOL     OW89221   1.572   2.336   8.703  0.2143 -0.4419 -0.7268
59764SOL    HW189222   1.495   2.367   8.656  1.4913  4.7246 -0.0826
59764SOL    HW289223   1.630   2.302   8.634 -0.6354  0.5444 -1.9782
59765SOL     OW89224   5.329   5.552   0.113 -0.4291  0.4774  0.2865
59765SOL    HW189225   5.277   5.567   0.034 -1.1915  0.0821  0.7046
59765SOL    HW289226   5.420   5.557   0.083 -0.6819 -1.5437 -1.0045
59766SOL     OW89227   8.698   5.797   3.738  0.1324  0.0757 -0.1860
59766SOL    HW189228   8.750   5.805   3.818  1.3446  0.3792 -0.9746
59766SOL    HW289229   8.758   5.821   3.668 -0.4788 -1.5875 -1.3421
59767SOL     OW89230  10.998   0.911  11.432  0.0087  0.3245  0.1108
59767SOL    HW189231  10.990   0.820  11.463  0.8866 -0.1949 -1.0888
59767SOL    HW289232  11.012   0.962  11.512  1.0602 -0.8044  0.6840
59768SOL     OW89233  11.155   5.278   3.266  0.2535 -0.3203  0.0826
59768SOL    HW189234  11.138   5.371   3.254  0.3414 -0.1368  1.3026
59768SOL    HW289235  11.189   5.271   3.355  1.4297 -1.3626 -0.4214
59769SOL     OW89236   0.110   7.048   8.930 -0.0557 -0.1066  0.0100
59769SOL    HW189237   0.088   7.083   9.017 -1.5101 -0.1959 -0.3007
59769SOL    HW289238   0.119   6.953   8.945  1.4508  0.0735  0.3795
59770SOL     OW89239   0.893   0.251   8.065 -0.1509 -0.5245 -0.0426
59770SOL    HW189240   0.878   0.167   8.022  1.1401 -0.8649  0.1069
59770SOL    HW289241   0.835   0.250   8.141 -0.0683 -1.3485  0.0189
59771SOL     OW89242   8.094   7.343   4.377  0.9282  0.5979  0.1842
59771SOL    HW189243   8.181   7.376   4.356 -0.5305  3.2304 -2.4697
59771SOL    HW289244   8.102   7.310   4.466  4.8965 -0.4996 -0.3702
59772SOL     OW89245   5.210  13.211   3.268 -0.5898  0.2325  0.0449
59772SOL    HW189246   5.121  13.215   3.302 -1.1456 -1.2862 -1.1346
59772SOL    HW289247   5.204  13.248   3.180 -0.5010 -1.6225 -0.7948
59773SOL     OW89248   3.091   7.034   3.124 -0.2065 -0.8099  0.4930
59773SOL    HW189249   3.159   7.100   3.136 -0.5838 -0.3994  0.3606
59773SOL    HW289250   3.073   7.002   3.213 -0.4049 -0.3588  0.6142
59774SOL     OW89251  13.236   4.090   3.953  0.1907  0.7908 -0.6290
59774SOL    HW189252  13.311   4.104   4.011  0.0455 -0.8990  0.0049
59774SOL    HW289253  13.269   4.037   3.881 -0.3931  0.0348 -0.3468
59775SOL     OW89254  12.056  11.403  11.753 -0.3337 -0.5034 -0.7086
59775SOL    HW189255  11.972  11.426  11.792 -0.0470 -0.0067 -0.3816
59775SOL    HW289256  12.050  11.309  11.738 -1.0416 -0.4353 -0.9115
59776SOL     OW89257  12.524   7.896   3.629 -0.5822 -0.1041  0.1195
59776SOL    HW189258  12.428   7.897   3.638 -0.5618  0.1176  0.3258
59776SOL    HW289259  12.540   7.940   3.545 -0.7381 -1.5067 -0.6642
59777SOL     OW89260   4.091   1.088  11.081 -0.1285  0.0296 -0.8268
59777SOL    HW189261   4.179   1.060  11.107 -0.8019 -0.4471  1.1216
59777SOL    HW289262   4.105   1.141  11.002  1.9649  0.5907 -0.1497
59778SOL     OW89263   5.553   9.433   2.616  0.1409  0.0420 -0.6652
59778SOL    HW189264   5.482   9.492   2.592 -0.8136 -1.6233 -2.2588
59778SOL    HW289265   5.516   9.345   2.605  2.8116 -0.9555 -3.1728
59779SOL     OW89266  10.182   3.397   4.610  0.0919  0.0112  0.1060
59779SOL    HW189267  10.224   3.311   4.617 -1.3756 -0.6471  1.5942
59779SOL    HW289268  10.088   3.378   4.619 -0.3940  1.6338 -1.0731
59780SOL     OW89269   4.745   0.594  12.379 -0.0583  0.5377 -0.0448
59780SOL    HW189270   4.800   0.568  12.305 -1.0243 -0.9671 -0.2847
59780SOL    HW289271   4.666   0.630  12.338 -0.8032 -0.7396  0.2081
59781SOL     OW89272   5.513   8.948   1.373 -0.3981 -0.6616  0.9099
59781SOL    HW189273   5.547   9.036   1.387 -0.5695 -0.5511  0.6261
59781SOL    HW289274   5.588   8.890   1.386 -0.1771 -0.4412  0.5962
59782SOL     OW89275  10.805   8.983  10.104 -0.0255 -0.2174  0.2582
59782SOL    HW189276  10.723   8.974  10.056 -1.7690  0.7240  2.8667
59782SOL    HW289277  10.849   9.056  10.061 -1.8967  1.1359  0.5120
59783SOL     OW89278   0.499   7.151   4.378 -0.1659 -0.2812  0.5463
59783SOL    HW189279   0.447   7.196   4.445 -0.8662  0.1435 -0.2602
59783SOL    HW289280   0.433   7.109   4.323 -0.0237  3.2426 -2.6979
59784SOL     OW89281  11.565   9.279   6.498 -0.2864 -0.2997  0.1197
59784SOL    HW189282  11.588   9.347   6.435 -0.8687 -2.4514 -2.5831
59784SOL    HW289283  11.508   9.323   6.561  1.4014  2.2570  0.0113
59785SOL     OW89284  11.515   6.725   3.127  0.0216  0.5101 -0.1358
59785SOL    HW189285  11.595   6.672   3.134 -1.3167 -1.4630  1.3325
59785SOL    HW289286  11.546   6.811   3.100  2.5323 -0.4538 -0.6412
59786SOL     OW89287   3.861   3.624   7.065  0.6285  0.0566  0.2927
59786SOL    HW189288   3.798   3.575   7.118  0.9713 -0.5673  0.1407
59786SOL    HW289289   3.837   3.715   7.076 -0.1012 -0.1563  0.4933
59787SOL     OW89290   5.760   8.828   1.407 -0.0399  0.1920  0.2155
59787SOL    HW189291   5.799   8.793   1.327 -0.3552 -1.8958  0.9004
59787SOL    HW289292   5.832   8.872   1.452  0.0283  1.8266 -1.4057
59788SOL     OW89293   5.868   7.577  11.378  0.1696 -0.3197 -0.0824
59788SOL    HW189294   5.843   7.668  11.391 -3.6268 -0.9618 -1.3477
59788SOL    HW289295   5.907   7.575  11.290  1.7955  0.2459  0.5912
59789SOL     OW89296   4.397   3.368   6.264  0.5186 -0.0961 -0.2541
59789SOL    HW189297   4.352   3.417   6.333  0.5436 -1.1193  0.5094
59789SOL    HW289298   4.405   3.430   6.192  0.5554  1.0299  0.6869
59790SOL     OW89299  12.814  12.092  11.635  0.2504  0.2391  0.2790
59790SOL    HW189300  12.800  12.060  11.546 -0.0198  1.5752 -0.1856
59790SOL    HW289301  12.814  12.013  11.689 -0.1830 -0.5477 -0.8252
59791SOL     OW89302  12.614  11.120   6.916  0.7557 -0.3393  0.1997
59791SOL    HW189303  12.684  11.160   6.865 -1.7398 -0.1130 -3.4113
59791SOL    HW289304  12.541  11.181   6.909 -0.8595 -2.0886  0.8899
59792SOL     OW89305   0.198   7.388  10.307 -0.9344  0.1551 -0.1287
59792SOL    HW189306   0.220   7.354  10.220  1.4163  0.1867  0.3713
59792SOL    HW289307   0.226   7.319  10.367 -0.5745  0.9887  0.6831
59793SOL     OW89308   5.908   6.490   8.114  0.1204 -0.3164 -0.1249
59793SOL    HW189309   6.003   6.476   8.107  0.1567 -0.0606 -0.1775
59793SOL    HW289310   5.881   6.435   8.187  0.2574 -0.6395 -0.3177
59794SOL     OW89311   5.270   4.503  11.067  0.0464 -0.3459 -0.2275
59794SOL    HW189312   5.220   4.572  11.111  1.7004  0.6413  0.1859
59794SOL    HW289313   5.263   4.525  10.974  1.3968  1.0240 -0.0421
59795SOL     OW89314   7.715  10.216   3.280  0.1646  0.4584 -0.5899
59795SOL    HW189315   7.753  10.201   3.194 -0.6391  0.6499 -0.9838
59795SOL    HW289316   7.691  10.308   3.281  0.3180  0.4987 -0.0959
59796SOL     OW89317  11.626  11.051   3.794  0.5750  0.2280 -0.5815
59796SOL    HW189318  11.543  11.093   3.773  0.8868  0.8092 -0.6591
59796SOL    HW289319  11.638  11.067   3.887  0.1531 -0.6607 -0.3597
59797SOL     OW89320  12.168   9.397   9.951  0.2732  0.1137  0.2772
59797SOL    HW189321  12.075   9.414   9.966  0.4648 -0.1387  1.9413
59797SOL    HW289322  12.170   9.309   9.914 -0.1591  0.2440 -0.0691
59798SOL     OW89323   1.805   6.808  12.309  0.6827  0.1986 -0.1342
59798SOL    HW189324   1.874   6.874  12.301  1.2619 -0.4726 -0.9610
59798SOL    HW289325   1.851   6.727  12.330  0.0985 -0.1524 -0.1708
59799SOL     OW89326   9.050  10.392   1.501 -0.0624 -0.5126 -0.2017
59799SOL    HW189327   9.099  10.405   1.582 -2.2795  1.0340  1.0103
59799SOL    HW289328   9.053  10.298   1.486  1.7854 -0.6542  0.7321
59800SOL     OW89329   5.539   9.912   7.309  0.3481  0.2770 -0.1356
59800SOL    HW189330   5.540   9.992   7.362 -0.0709  0.2775 -0.1280
59800SOL    HW289331   5.505   9.845   7.368 -1.5214  0.5748 -0.8206
59801SOL     OW89332  12.320  11.613   2.774 -0.1777  0.4475 -0.5158
59801SOL    HW189333  12.364  11.529   2.758 -0.7781  0.5125 -2.9538
59801SOL    HW289334  12.298  11.645   2.686 -2.0227  2.0462  0.4526
59802SOL     OW89335   7.249  11.545  10.935 -0.0785 -0.1035 -0.3302
59802SOL    HW189336   7.310  11.583  10.997 -0.0123  0.6310 -0.8276
59802SOL    HW289337   7.184  11.614  10.920  1.3102  0.7900 -3.0249
59803SOL     OW89338   3.558   5.405   7.649 -0.2201 -0.0752 -0.3997
59803SOL    HW189339   3.519   5.317   7.641  0.2037 -0.2840 -0.1457
59803SOL    HW289340   3.652   5.390   7.647 -0.1377  0.3040  0.4270
59804SOL     OW89341   1.586  10.335   5.511  0.3215 -0.0228 -0.0843
59804SOL    HW189342   1.621  10.256   5.554  0.6431 -0.1167 -0.5076
59804SOL    HW289343   1.653  10.358   5.447  0.0296  0.3521 -0.2547
59805SOL     OW89344   7.794   6.208   2.742  0.0275 -0.4640 -0.3926
59805SOL    HW189345   7.712   6.210   2.693  0.7997 -2.3469 -1.9113
59805SOL    HW289346   7.776   6.258   2.822 -2.7468 -1.2964 -0.3963
59806SOL     OW89347   0.480   5.697   9.138 -0.3684 -0.3942  0.4083
59806SOL    HW189348   0.396   5.658   9.114  0.7644 -1.3902 -2.4328
59806SOL    HW289349   0.477   5.786   9.103  0.4359 -1.1166 -1.7107
59807SOL     OW89350  10.939   1.458  12.121 -0.1055  0.5545  0.1572
59807SOL    HW189351  10.891   1.526  12.168 -1.0760 -0.1927  0.2743
59807SOL    HW289352  10.884   1.380  12.129 -0.0408  0.2624 -1.7539
59808SOL     OW89353  10.192   2.475   3.891 -0.4136 -0.2950 -0.3967
59808SOL    HW189354  10.155   2.508   3.809  0.2617 -0.1480 -0.6410
59808SOL    HW289355  10.192   2.380   3.879 -0.1323 -0.2655 -0.6490
59809SOL     OW89356   1.708   1.987  11.375 -1.2387 -0.3571 -0.1586
59809SOL    HW189357   1.793   1.999  11.332 -1.1107  0.5868  0.3584
59809SOL    HW289358   1.648   1.969  11.302 -0.3091 -2.9646 -0.4177
59810SOL     OW89359   0.499   5.020   9.924 -0.1537 -0.4085 -0.1583
59810SOL    HW189360   0.593   5.004   9.936  0.4063  2.2797 -0.3223
59810SOL    HW289361   0.467   5.041  10.011 -0.6592 -1.3582 -0.0964
59811SOL     OW89362   1.518   4.315   8.693  0.4993  0.3995 -0.5941
59811SOL    HW189363   1.484   4.402   8.714  0.0304 -0.0608  0.6388
59811SOL    HW289364   1.440   4.263   8.675  0.4596 -0.5741  1.9017
59812SOL     OW89365   5.470   3.603  10.998 -0.2949 -0.0907  0.0936
59812SOL    HW189366   5.375   3.617  10.998 -0.2889  0.0866 -1.3212
59812SOL    HW289367   5.481   3.519  10.954  0.1795 -0.4593  0.8905
59813SOL     OW89368   8.422   6.532   5.042  0.7042 -0.2409 -0.4875
59813SOL    HW189369   8.345   6.487   5.077 -0.4847  0.8345 -1.6782
59813SOL    HW289370   8.411   6.623   5.068  1.1109  0.0930 -1.4504
59814SOL     OW89371   1.777   9.305  10.054  0.0254  0.0129 -0.2406
59814SOL    HW189372   1.847   9.247  10.082  1.5767  2.5865  1.7074
59814SOL    HW289373   1.701   9.278  10.105  1.0289  0.3597  1.5015
59815SOL     OW89374   2.430  11.296  13.311  0.0184 -0.4660 -0.0493
59815SOL    HW189375   2.440  11.213  13.357  0.9659 -1.0464 -1.2492
59815SOL    HW289376   2.355  11.284  13.253  1.2983 -1.2211 -1.6463
59816SOL     OW89377   1.034  11.208   8.072 -0.1666  0.2581  0.3968
59816SOL    HW189378   0.999  11.134   8.023  1.6604  0.0362 -0.6988
59816SOL    HW289379   1.121  11.222   8.034  1.2073  0.3576  3.3029
59817SOL     OW89380   7.664   0.283   0.354  0.7781  0.0162 -0.0144
59817SOL    HW189381   7.646   0.224   0.427  1.4512  0.9477  0.9396
59817SOL    HW289382   7.584   0.282   0.301 -0.9633  1.6072  2.3554
59818SOL     OW89383  12.997   7.741   5.622 -0.4524  0.1009  0.1926
59818SOL    HW189384  13.004   7.796   5.700  1.2565 -0.5560  0.5306
59818SOL    HW289385  12.916   7.691   5.636 -0.8829  0.9581  0.8851
59819SOL     OW89386   4.356   4.495   0.368  0.2996  0.4476  0.4616
59819SOL    HW189387   4.284   4.439   0.400  0.8046 -1.6132 -1.6786
59819SOL    HW289388   4.404   4.439   0.307  2.7792  2.2952  0.5603
59820SOL     OW89389   9.278  11.944   9.485 -0.4057 -1.0238 -0.2528
59820SOL    HW189390   9.217  11.876   9.513 -0.0603 -1.1486  0.2255
59820SOL    HW289391   9.224  12.013   9.448 -0.7987 -1.3269 -0.2434
59821SOL     OW89392  10.667   1.024  12.010 -0.0561 -0.1932 -0.0638
59821SOL    HW189393  10.615   0.947  12.036 -0.4871 -0.3854 -1.4119
59821SOL    HW289394  10.731   0.989  11.948  0.0990  0.4504 -0.2712
59822SOL     OW89395  11.526   1.041   0.881 -0.2998  0.7186  0.6886
59822SOL    HW189396  11.568   1.126   0.893 -1.4737  1.1391  2.2553
59822SOL    HW289397  11.435   1.055   0.908 -0.4053 -1.1316  1.4615
59823SOL     OW89398   4.576   5.792   9.716  0.2303 -0.2200 -0.3295
59823SOL    HW189399   4.648   5.853   9.698  0.7493 -0.6851  0.1319
59823SOL    HW289400   4.544   5.767   9.630 -0.4412  1.2267 -0.5243
59824SOL     OW89401   0.613  11.774   9.363 -0.3360 -0.7137 -0.3704
59824SOL    HW189402   0.634  11.867   9.365  1.9518 -1.1736  1.7396
59824SOL    HW289403   0.574  11.760   9.277 -2.7669  2.5305  0.0062
59825SOL     OW89404   3.209   3.682  10.745  0.4236  0.1319 -0.5914
59825SOL    HW189405   3.201   3.699  10.839  5.1833 -1.8222  0.4303
59825SOL    HW289406   3.168   3.758  10.704 -2.5270  0.7304  2.9146
59826SOL     OW89407   3.634   2.520   1.844  0.3781 -0.7165 -0.0927
59826SOL    HW189408   3.662   2.570   1.768  0.7200 -0.6603  0.0671
59826SOL    HW289409   3.541   2.504   1.830 -0.0412  1.0457  0.4513
59827SOL     OW89410   5.632  10.037   8.002 -0.2220  0.1319  0.1036
59827SOL    HW189411   5.714  10.067   7.963  0.5245  1.0124  2.1758
59827SOL    HW289412   5.606  10.109   8.060 -0.5567 -1.5413  2.1474
59828SOL     OW89413   5.835  12.218  11.701 -0.4157  0.0331 -0.1474
59828SOL    HW189414   5.819  12.281  11.630  0.2003 -0.6623 -0.9162
59828SOL    HW289415   5.927  12.195  11.692 -0.6732 -1.0956  0.0327
59829SOL     OW89416   9.860  11.943  11.942  0.2403 -0.2394 -0.9365
59829SOL    HW189417   9.884  11.854  11.967 -1.0739 -0.6058 -0.8936
59829SOL    HW289418   9.941  11.982  11.910  1.3002 -0.7924  0.9154
59830SOL     OW89419   5.749   6.089  12.123 -0.1059  0.0745 -0.1804
59830SOL    HW189420   5.749   6.047  12.037  0.4509 -0.0360 -0.1285
59830SOL    HW289421   5.675   6.150  12.120 -1.8286 -1.8601  0.2216
59831SOL     OW89422  10.851   1.490   3.399  0.1772 -0.6483  0.1640
59831SOL    HW189423  10.845   1.585   3.404  0.2572 -0.6300 -0.0542
59831SOL    HW289424  10.796   1.458   3.471 -2.0352 -0.4730 -1.3358
59832SOL     OW89425   7.538  11.022  10.323  0.1313 -0.4043  0.0385
59832SOL    HW189426   7.535  11.027  10.418  0.1103 -0.7733  0.0578
59832SOL    HW289427   7.493  10.941  10.301 -0.6197  0.1015 -0.3371
59833SOL     OW89428  11.536  11.643  11.618 -0.1555  0.1331  0.0985
59833SOL    HW189429  11.555  11.554  11.649  1.7335  0.6565  0.5701
59833SOL    HW289430  11.543  11.636  11.522 -0.3019 -0.2806  0.1141
59834SOL     OW89431   2.333  11.126   5.025  0.6037  1.0990  0.6045
59834SOL    HW189432   2.341  11.221   5.026  0.8458  1.0848  1.5660
59834SOL    HW289433   2.407  11.096   4.973  0.1933  1.4549 -0.1954
59835SOL     OW89434   8.146   6.487  12.499 -0.0531  0.0287  0.0355
59835SOL    HW189435   8.148   6.551  12.428  1.0091 -0.4714 -0.4093
59835SOL    HW289436   8.205   6.522  12.566  0.2952 -0.3286 -0.0790
59836SOL     OW89437   1.618   7.366   2.696  0.0944  0.3158 -0.0561
59836SOL    HW189438   1.693   7.360   2.637  0.1159 -1.4194  0.1122
59836SOL    HW289439   1.592   7.276   2.712 -1.8114  0.8543  0.2028
59837SOL     OW89440   3.680   6.229   0.009 -0.0511 -0.4277  0.1158
59837SOL    HW189441   3.631   6.161  -0.036 -1.3858 -1.7565  3.2908
59837SOL    HW289442   3.747   6.182   0.058 -1.2002  0.3684  2.6450
59838SOL     OW89443  11.405   1.904   2.613 -0.1479 -0.2578 -0.3583
59838SOL    HW189444  11.445   1.990   2.625 -0.0808 -0.3183 -0.1503
59838SOL    HW289445  11.320   1.922   2.573 -0.7163  0.0010  0.9317
59839SOL     OW89446  11.755   7.610   6.910  0.9428  0.4207  0.4065
59839SOL    HW189447  11.712   7.525   6.910  0.7365  0.4025 -2.7660
59839SOL    HW289448  11.848   7.590   6.923  0.6538 -0.0347  1.9330
59840SOL     OW89449   5.386  11.733   7.301 -0.3389  0.0295 -0.2609
59840SOL    HW189450   5.334  11.733   7.220  0.9048  0.4545 -1.0801
59840SOL    HW289451   5.335  11.679   7.362 -2.0843  0.9914 -0.8017
59841SOL     OW89452   0.022   5.809   8.703 -0.0236 -0.0749 -0.1424
59841SOL    HW189453   0.011   5.887   8.648 -1.9381  1.3690  2.0938
59841SOL    HW289454   0.113   5.812   8.731  0.3187  0.5033 -1.2509
59842SOL     OW89455   1.550   1.468   8.790  0.0199  0.0756  0.4911
59842SOL    HW189456   1.532   1.438   8.879 -0.7744  0.3510  0.4324
59842SOL    HW289457   1.527   1.393   8.735  1.0385 -0.2867  0.5493
59843SOL     OW89458   1.251   2.415   4.515  0.1549 -0.3743 -0.8794
59843SOL    HW189459   1.244   2.319   4.521 -1.1665 -0.2139  2.7445
59843SOL    HW289460   1.333   2.435   4.561 -0.2444  0.2601 -0.4271
59844SOL     OW89461   3.655   0.480   9.259 -0.3644 -0.5011  0.0201
59844SOL    HW189462   3.735   0.509   9.302 -0.5042 -1.1449  0.7405
59844SOL    HW289463   3.585   0.525   9.307 -0.6303 -2.4936  1.6236
59845SOL     OW89464   1.434   3.256  12.575 -0.1421  0.1771  0.2120
59845SOL    HW189465   1.502   3.287  12.515 -0.8264 -0.2979 -0.8596
59845SOL    HW289466   1.475   3.256  12.661  0.7270  1.3777 -0.1745
59846SOL     OW89467  13.033   6.489   7.471  0.3263 -0.6334 -0.4784
59846SOL    HW189468  13.026   6.562   7.410  2.5062 -0.5905 -0.7302
59846SOL    HW289469  13.086   6.523   7.543 -0.6336 -1.2686  0.5723
59847SOL     OW89470   0.730  11.103   9.795 -0.2789  0.0735 -0.1564
59847SOL    HW189471   0.694  11.187   9.765  0.1266  0.2950 -0.0414
59847SOL    HW289472   0.724  11.108   9.891  1.5535  0.8339 -0.0190
59848SOL     OW89473   3.444  10.307   6.571  0.8195 -0.1709  0.3618
59848SOL    HW189474   3.419  10.275   6.658  1.7321 -1.6842  0.1042
59848SOL    HW289475   3.365  10.349   6.537  0.6859  1.2016  2.2393
59849SOL     OW89476  11.263   5.754   4.621 -0.3247 -0.0499  0.0386
59849SOL    HW189477  11.206   5.774   4.547 -0.5059  1.5771  0.5786
59849SOL    HW289478  11.348   5.789   4.596  0.1599 -1.3305 -0.2227
59850SOL     OW89479  11.542   6.261   3.928 -0.0500 -0.0400 -0.3423
59850SOL    HW189480  11.575   6.172   3.932  0.8373  0.2140 -1.5256
59850SOL    HW289481  11.614   6.312   3.891 -1.1901  0.8258 -1.4601
59851SOL     OW89482   4.225   0.507  12.542  0.1478  0.3069  0.9141
59851SOL    HW189483   4.261   0.421  12.563 -0.7136 -0.0828  0.8381
59851SOL    HW289484   4.133   0.502  12.568 -0.5611  0.3688 -1.3240
59852SOL     OW89485   5.674  11.288   5.689 -0.0982 -0.4590  0.0834
59852SOL    HW189486   5.578  11.284   5.694 -0.0002 -2.2199  1.3457
59852SOL    HW289487   5.694  11.381   5.702 -1.5543 -0.3283  1.7149
59853SOL     OW89488   5.200  11.358   3.169 -0.4173 -0.2091  0.5780
59853SOL    HW189489   5.154  11.332   3.089  0.2427 -0.7836  0.3726
59853SOL    HW289490   5.267  11.419   3.139 -0.2255 -0.3580  0.7026
59854SOL     OW89491   5.552  10.635  11.805 -0.5461  0.1575 -0.5222
59854SOL    HW189492   5.470  10.681  11.819 -0.5644 -0.5885  2.6462
59854SOL    HW289493   5.603  10.653  11.884  0.5740 -2.8823 -0.4116
59855SOL     OW89494  11.973  12.927   6.531 -0.8057  0.3598  0.2183
59855SOL    HW189495  12.045  12.990   6.540 -0.2761 -0.0691 -0.8597
59855SOL    HW289496  11.922  12.959   6.457 -1.8342  0.7299  1.0461
59856SOL     OW89497   1.397  12.603   7.334  0.4129 -0.0637  0.1282
59856SOL    HW189498   1.457  12.603   7.409  0.5633  0.2752  0.0073
59856SOL    HW289499   1.439  12.659   7.269  0.3311 -0.4404 -0.2508
59857SOL     OW89500   7.893   9.753  10.971 -0.0650  0.1279 -0.0805
59857SOL    HW189501   7.967   9.803  10.935  0.1105  0.2341  0.4226
59857SOL    HW289502   7.844   9.725  10.894  0.9835 -0.7086 -0.4717
59858SOL     OW89503  13.074   1.668  11.522 -0.4854 -0.4205 -0.1968
59858SOL    HW189504  13.084   1.759  11.551 -1.0991 -0.5320  0.3743
59858SOL    HW289505  13.019   1.673  11.444  0.0189 -0.2480 -0.5487
59859SOL     OW89506  10.672   7.493  12.640 -0.2468  0.1526  0.3563
59859SOL    HW189507  10.683   7.459  12.551 -0.8946 -0.7289  0.5969
59859SOL    HW289508  10.579   7.478  12.660 -0.0379  0.0352  1.2927
59860SOL     OW89509   6.384   6.486   7.637  0.3217  0.2363 -0.0997
59860SOL    HW189510   6.338   6.539   7.572  2.5484  0.6595 -1.4663
59860SOL    HW289511   6.344   6.399   7.630 -1.1000  0.8805 -0.2711
59861SOL     OW89512  11.855   0.552   9.801  0.0883 -0.4640 -0.4585
59861SOL    HW189513  11.793   0.513   9.739 -1.2858 -1.8152  1.6325
59861SOL    HW289514  11.800   0.602   9.862  1.0333 -1.4133  1.2530
59862SOL     OW89515  11.144  11.974   8.240 -0.4269 -0.1736 -0.3894
59862SOL    HW189516  11.176  11.899   8.190  0.8978  1.1547 -1.6378
59862SOL    HW289517  11.198  11.976   8.318  1.4714  0.9998 -1.6414
59863SOL     OW89518   0.790   1.582   3.153  0.0655  0.1014  0.3402
59863SOL    HW189519   0.775   1.523   3.079 -0.0819 -0.4810  0.8266
59863SOL    HW289520   0.776   1.670   3.117  0.3564 -0.1486 -0.4082
59864SOL     OW89521   7.912  12.362  11.298  0.4845  0.2052  0.5193
59864SOL    HW189522   7.886  12.395  11.384  0.6631  0.6225  0.4170
59864SOL    HW289523   7.875  12.274  11.293  0.7751  0.0400  1.1681
59865SOL     OW89524  12.086   7.350   4.173 -0.1499  0.1163  0.0053
59865SOL    HW189525  12.156   7.381   4.231 -2.0798  2.5988  1.1594
59865SOL    HW289526  12.126   7.276   4.127  3.9705  2.6225 -1.0023
59866SOL     OW89527   9.431   5.500   3.008 -0.7051  0.3356 -0.3965
59866SOL    HW189528   9.460   5.585   2.974 -1.3615  0.3624 -0.9213
59866SOL    HW289529   9.494   5.437   2.973  0.8401  0.7771  1.4375
59867SOL     OW89530   2.781   0.892   7.902 -0.4156  0.7043 -0.2005
59867SOL    HW189531   2.778   0.903   7.997 -1.6930  3.6213 -0.4614
59867SOL    HW289532   2.849   0.827   7.887 -0.8969 -0.6509  2.7317
59868SOL     OW89533  10.276   2.663   1.770  0.1332 -0.6372  0.4096
59868SOL    HW189534  10.267   2.619   1.685  0.8681  0.3475 -0.1972
59868SOL    HW289535  10.342   2.612   1.816 -1.1036 -1.8817  0.8894
59869SOL     OW89536  10.697   4.935  10.240  0.2195 -0.3072 -0.7575
59869SOL    HW189537  10.775   4.933  10.296 -0.5778  1.1266  0.4786
59869SOL    HW289538  10.667   4.845  10.239  0.7049 -0.5147  0.5090
59870SOL     OW89539   1.796   2.021   0.262 -0.3892 -0.3400 -0.1274
59870SOL    HW189540   1.725   1.972   0.220 -2.9248  1.7560  1.3984
59870SOL    HW289541   1.785   2.005   0.356  1.0789  0.2017  0.1711
59871SOL     OW89542   6.063   7.864  13.031  0.0382  0.3140  0.0151
59871SOL    HW189543   6.123   7.803  13.074 -1.2370  0.6333  2.3916
59871SOL    HW289544   6.114   7.944  13.020  0.6796 -0.0835  0.0494
59872SOL     OW89545   7.580   0.133   1.678 -0.0400  0.2704  0.5774
59872SOL    HW189546   7.612   0.223   1.679  2.6061 -0.5410 -1.1945
59872SOL    HW289547   7.645   0.084   1.628 -1.5469 -2.6031  1.1681
59873SOL     OW89548   4.784   0.736   4.335  0.1580 -0.2712 -0.4599
59873SOL    HW189549   4.736   0.815   4.308 -1.4217 -1.3188 -0.8947
59873SOL    HW289550   4.818   0.700   4.253 -1.1197 -1.2485 -0.5982
59874SOL     OW89551   1.122   2.444   0.260  0.4173 -0.0220  0.1170
59874SOL    HW189552   1.176   2.375   0.222 -0.4130 -0.2808 -0.6347
59874SOL    HW289553   1.060   2.397   0.317 -0.4247  0.0445 -0.7212
59875SOL     OW89554  12.776  12.110   7.812  0.1811 -0.7427 -0.2231
59875SOL    HW189555  12.821  12.107   7.896  1.1169  1.3232 -0.5913
59875SOL    HW289556  12.787  12.200   7.781 -1.2531 -1.0853 -1.9665
59876SOL     OW89557   0.453   0.688   5.787 -0.4983 -0.3841  0.2468
59876SOL    HW189558   0.400   0.676   5.708 -0.5372 -1.2683  0.4045
59876SOL    HW289559   0.541   0.663   5.759 -0.0585  1.4126 -0.1155
59877SOL     OW89560   5.318   0.728   2.701  0.0280  0.4530 -0.2448
59877SOL    HW189561   5.385   0.703   2.638 -0.5732 -0.9070 -0.3686
59877SOL    HW289562   5.366   0.773   2.770  0.8570  0.8368 -1.0513
59878SOL     OW89563   4.282   2.761   2.897 -0.0489  0.0327  0.4024
59878SOL    HW189564   4.372   2.738   2.922 -0.2709 -2.6379 -0.8400
59878SOL    HW289565   4.261   2.837   2.951  1.5948 -1.6075  3.6977
59879SOL     OW89566   7.319   8.447   6.666  0.5973 -0.9525  0.5693
59879SOL    HW189567   7.297   8.371   6.720  0.2107 -1.7896 -0.7258
59879SOL    HW289568   7.361   8.410   6.588 -2.5060 -0.2092 -1.6358
59880SOL     OW89569   4.069   2.484  12.229 -0.3962 -0.5123  0.3877
59880SOL    HW189570   4.032   2.453  12.147  0.8959 -1.1352  0.0085
59880SOL    HW289571   4.047   2.577  12.232  0.0081 -0.3482 -0.9459
59881SOL     OW89572   7.849   8.945  12.222  0.1925 -0.0662  0.1726
59881SOL    HW189573   7.782   9.013  12.231  1.3948  1.4235 -1.5715
59881SOL    HW289574   7.799   8.863  12.221 -1.5873  0.9677 -0.7264
59882SOL     OW89575   5.259   2.060   7.087 -0.2782 -0.4859 -0.5378
59882SOL    HW189576   5.311   1.995   7.040  1.1350  0.4568 -0.3486
59882SOL    HW289577   5.295   2.058   7.176  0.8233  1.5514 -0.8826
59883SOL     OW89578  10.376  11.603   9.297 -0.1052 -0.9572 -0.2365
59883SOL    HW189579  10.349  11.675   9.354  0.1252 -0.3341 -0.9091
59883SOL    HW289580  10.299  11.547   9.291 -0.6929 -0.0963 -0.7464
59884SOL     OW89581  11.734   4.589   4.421  0.2276 -0.0578 -0.2633
59884SOL    HW189582  11.747   4.530   4.495 -0.5742 -0.7208 -0.6376
59884SOL    HW289583  11.640   4.585   4.403 -0.0525  2.1855  0.3957
59885SOL     OW89584   0.253   9.085   7.690  0.7640  0.3009  0.2412
59885SOL    HW189585   0.332   9.036   7.716  1.4988  0.5550 -1.3814
59885SOL    HW289586   0.287   9.167   7.654 -0.3151  0.8038  0.3395
59886SOL     OW89587   3.647   9.639   6.284  0.0049  0.0324  0.0364
59886SOL    HW189588   3.645   9.708   6.218  0.1411  0.8992  0.9120
59886SOL    HW289589   3.730   9.594   6.269  0.5913  0.9801  0.3573
59887SOL     OW89590   1.850   3.907  10.552 -0.0098 -0.4196  0.3322
59887SOL    HW189591   1.871   3.963  10.626 -1.0152 -0.6343  0.7874
59887SOL    HW289592   1.846   3.819  10.589  2.3734 -0.9648 -0.5148
59888SOL     OW89593   4.216   5.213   5.634  0.0824  0.4578  0.3742
59888SOL    HW189594   4.293   5.251   5.677  0.3658  0.3156 -0.0057
59888SOL    HW289595   4.239   5.122   5.618 -0.6479  0.0668  1.3968
59889SOL     OW89596   7.117   8.364  10.078 -0.1235 -0.4222 -0.0239
59889SOL    HW189597   7.044   8.322  10.122 -0.1202 -0.2811  0.1159
59889SOL    HW289598   7.190   8.304  10.090  0.1187  0.0564  0.9816
59890SOL     OW89599   6.589  10.949   7.152 -0.1848 -0.0126 -0.2554
59890SOL    HW189600   6.668  10.906   7.119 -0.3918  0.7924 -1.9297
59890SOL    HW289601   6.527  10.944   7.078 -0.3837  2.6502 -0.3516
59891SOL     OW89602   9.316   0.639   5.052 -0.0758  0.0466 -0.3051
59891SOL    HW189603   9.365   0.720   5.043  0.0536 -0.1305 -1.2686
59891SOL    HW289604   9.243   0.661   5.110  0.8678  0.4273  0.7747
59892SOL     OW89605  10.276   8.032   3.975 -0.5238 -0.1955 -0.4403
59892SOL    HW189606  10.241   7.943   3.962  0.8304 -0.8229  0.0388
59892SOL    HW289607  10.359   8.032   3.926  0.7316 -0.0333  1.5966
59893SOL     OW89608   6.362  12.723  12.006  0.3482  0.1462  0.2920
59893SOL    HW189609   6.417  12.665  12.058  0.6328  1.4323  1.4702
59893SOL    HW289610   6.346  12.798  12.062  0.1223  1.2939 -1.2340
59894SOL     OW89611   3.500   3.307   0.015  0.1890  0.2073  0.0554
59894SOL    HW189612   3.505   3.213   0.034  0.0437  0.5128  1.8663
59894SOL    HW289613   3.411   3.319  -0.020  0.0974 -0.2936  0.1028
59895SOL     OW89614   4.539   9.875  10.615  0.0487 -0.1833  0.0375
59895SOL    HW189615   4.575   9.899  10.700  1.3061  2.0349 -1.0200
59895SOL    HW289616   4.445   9.869  10.629 -0.0079  2.2740  1.1866
59896SOL     OW89617  10.693   8.395   9.069  0.1406 -0.3860  0.3568
59896SOL    HW189618  10.689   8.380   8.974  0.6456 -2.2495  0.6038
59896SOL    HW289619  10.783   8.376   9.093  0.0611  0.2625  1.2023
59897SOL     OW89620   0.466   6.586   5.719  0.0623 -0.1253  0.2974
59897SOL    HW189621   0.524   6.526   5.672  0.0933 -1.5840  2.0630
59897SOL    HW289622   0.523   6.657   5.747  0.5018 -0.3722  0.0442
59898SOL     OW89623  12.376  12.730   3.619  0.3400  0.5774  0.1647
59898SOL    HW189624  12.295  12.754   3.664 -0.0206  0.1122 -0.2256
59898SOL    HW289625  12.405  12.650   3.662 -0.9750 -0.8988 -1.5629
59899SOL     OW89626  11.857  10.716   3.945  0.3428  0.0086  0.0791
59899SOL    HW189627  11.860  10.726   3.850 -1.5758  3.9576  0.2552
59899SOL    HW289628  11.926  10.773   3.978 -1.8169  2.2680  1.0240
59900SOL     OW89629   6.992  12.457  11.366  0.6759  0.1135  0.0785
59900SOL    HW189630   7.039  12.534  11.400 -0.3288 -0.1126  2.1590
59900SOL    HW289631   7.061  12.394  11.346  1.3661  0.3775  1.4897
59901SOL     OW89632   7.513   0.361   4.159  0.3698  0.1173 -0.0228
59901SOL    HW189633   7.503   0.317   4.074 -0.3284  1.2392 -0.5312
59901SOL    HW289634   7.424   0.373   4.191  0.5619  1.0127  0.1893
59902SOL     OW89635   1.524  10.706   4.914 -0.0714  0.8274  0.4618
59902SOL    HW189636   1.504  10.615   4.891  0.0651  1.6104 -3.5211
59902SOL    HW289637   1.619  10.712   4.905  0.0786  1.0961  2.0701
59903SOL     OW89638   5.937   2.097   6.143 -0.4972 -0.2915 -0.3062
59903SOL    HW189639   6.019   2.122   6.186  0.1257 -2.7210  0.1225
59903SOL    HW289640   5.870   2.111   6.209 -0.0555 -0.5285  0.2045
59904SOL     OW89641   5.880   6.590  13.095  0.0924 -0.4734 -0.2071
59904SOL    HW189642   5.956   6.573  13.152  0.4549 -0.2077 -0.6010
59904SOL    HW289643   5.850   6.677  13.121 -1.0070 -1.1739  0.9691
59905SOL     OW89644   1.400  10.143   9.035 -0.0540  0.0111  0.2128
59905SOL    HW189645   1.324  10.086   9.049 -0.7995  1.0907  0.6970
59905SOL    HW289646   1.464  10.087   8.991 -1.3472 -0.7800 -0.7406
59906SOL     OW89647  10.271  11.417   5.091 -0.3485  0.5160  0.1866
59906SOL    HW189648  10.218  11.409   5.012 -0.2554  1.8812 -0.0458
59906SOL    HW289649  10.258  11.508   5.119  2.9694  1.4131 -0.7285
59907SOL     OW89650   8.456   8.266  12.128 -0.0310 -0.1515  0.5020
59907SOL    HW189651   8.544   8.230  12.129  0.1654  0.3287  0.6025
59907SOL    HW289652   8.464   8.351  12.170  0.0410  1.2008 -2.0682
59908SOL     OW89653   8.955   9.414  11.985  0.6374  0.5006  0.8590
59908SOL    HW189654   8.979   9.352  12.054 -0.1853 -0.0841  0.6418
59908SOL    HW289655   8.888   9.368  11.935  0.1834  1.4842  0.5433
59909SOL     OW89656   5.359   4.324  12.354  0.4716  0.5344  0.3183
59909SOL    HW189657   5.279   4.311  12.303  0.3254 -2.0709  1.0738
59909SOL    HW289658   5.347   4.410  12.395 -0.7540  1.3408 -1.5395
59910SOL     OW89659   8.099  10.188   4.984 -0.4309 -0.4022  0.0902
59910SOL    HW189660   8.056  10.185   5.070  0.8612  1.0054  0.8433
59910SOL    HW289661   8.142  10.274   4.982  1.4204 -1.2983 -1.0557
59911SOL     OW89662  11.474   5.187   3.981  0.2235  0.6007  0.7980
59911SOL    HW189663  11.429   5.115   4.024  0.4835  0.3173  0.5996
59911SOL    HW289664  11.417   5.263   3.995 -0.1494  0.3167  0.8333
59912SOL     OW89665  13.190   6.434  10.638 -0.2645 -0.2965  0.0543
59912SOL    HW189666  13.235   6.372  10.695  1.8424  0.6427 -0.4888
59912SOL    HW289667  13.149   6.497  10.698 -0.4801 -0.9118  0.5595
59913SOL     OW89668   0.491   3.482   0.516 -0.3321 -0.4642 -0.0880
59913SOL    HW189669   0.530   3.400   0.546  0.3299  0.1234  0.7201
59913SOL    HW289670   0.533   3.549   0.570 -0.7130  0.4256 -0.8729
59914SOL     OW89671   2.038   8.805   1.185  0.1407  0.1349  0.0226
59914SOL    HW189672   2.022   8.895   1.155 -0.4301 -0.3071 -1.0573
59914SOL    HW289673   1.984   8.796   1.263  0.2317  0.7411  0.1660
59915SOL     OW89674  13.261   5.816   5.922 -0.6850 -0.2931 -0.6662
59915SOL    HW189675  13.338   5.855   5.964 -0.4289  0.0007 -1.3990
59915SOL    HW289676  13.243   5.737   5.974 -1.4599  0.9809  1.1072
59916SOL     OW89677  10.930   7.168  10.818 -0.4100 -0.2430 -0.0314
59916SOL    HW189678  10.914   7.076  10.837 -1.0893 -0.2763 -0.7406
59916SOL    HW289679  11.023   7.181  10.839  0.0644 -1.4362 -1.2895
59917SOL     OW89680  12.918   8.441   9.285  0.0943  0.3423  0.5993
59917SOL    HW189681  12.836   8.453   9.238  0.8263  0.0022 -0.8309
59917SOL    HW289682  12.946   8.352   9.263  0.0379 -0.1800  2.4401
59918SOL     OW89683   3.783   8.523  10.706 -0.4087  0.3172 -0.2490
59918SOL    HW189684   3.870   8.497  10.678 -0.0646  1.6788 -0.5070
59918SOL    HW289685   3.745   8.443  10.744  1.2810 -0.0708  0.7352
59919SOL     OW89686   8.041  12.213  11.051 -0.0284 -0.1977 -0.1218
59919SOL    HW189687   7.994  12.193  11.132  0.1345 -0.7148 -0.1481
59919SOL    HW289688   8.133  12.214  11.077  0.0192 -0.3085 -0.2906
59920SOL     OW89689   3.183  11.705   5.157 -0.0302 -0.1072 -0.1264
59920SOL    HW189690   3.140  11.701   5.243 -1.2800  1.3351 -0.6409
59920SOL    HW289691   3.184  11.614   5.127 -1.2258 -0.4071  0.6550
59921SOL     OW89692   1.960   2.745   6.247  0.1741  0.3488  0.5639
59921SOL    HW189693   2.009   2.665   6.264 -1.8186 -0.8300  1.1845
59921SOL    HW289694   1.909   2.725   6.168  0.0407  1.1936  0.4284
59922SOL     OW89695   4.928   6.152   9.616 -0.2183 -0.1057  0.4759
59922SOL    HW189696   4.881   6.176   9.695 -0.5392  3.0807 -0.5298
59922SOL    HW289697   4.860   6.126   9.554 -0.4105  1.3285  0.0461
59923SOL     OW89698   6.092  12.448   7.238 -0.1716  0.3475  0.2618
59923SOL    HW189699   6.057  12.482   7.321 -1.7203  0.8452 -0.5690
59923SOL    HW289700   6.023  12.464   7.174 -0.2090 -2.6869 -0.5878
59924SOL     OW89701  12.450   4.217   7.948 -0.2967 -0.1140  0.2184
59924SOL    HW189702  12.406   4.159   7.886 -1.2974 -1.4972  2.1086
59924SOL    HW289703  12.382   4.278   7.976  0.5349  1.5334 -1.1046
59925SOL     OW89704  11.845   0.509   4.069  0.1792  0.0569 -0.1596
59925SOL    HW189705  11.891   0.466   4.141  0.0123 -1.3031 -0.8249
59925SOL    HW289706  11.907   0.574   4.036  1.3007 -1.1143 -0.4535
59926SOL     OW89707   2.909   0.709   5.940  0.1976 -0.1012  0.6108
59926SOL    HW189708   2.889   0.725   6.033 -0.0820 -1.9556  0.9079
59926SOL    HW289709   2.857   0.775   5.893 -1.8822 -0.8681  1.6677
59927SOL     OW89710   1.856   3.777   5.484  0.5750 -0.2052 -0.3844
59927SOL    HW189711   1.912   3.713   5.441  1.3317  1.3744 -1.8793
59927SOL    HW289712   1.916   3.835   5.531 -0.1088 -0.6792  1.1260
59928SOL     OW89713   6.423   2.451   8.586  0.5059 -0.1531  0.1635
59928SOL    HW189714   6.341   2.426   8.629  0.8777  0.6040  1.3760
59928SOL    HW289715   6.487   2.388   8.618  0.7513  0.3112  0.6046
59929SOL     OW89716   5.777   5.506   9.172  0.6032  0.0521 -0.0164
59929SOL    HW189717   5.791   5.575   9.107  1.3652  0.3032  0.3989
59929SOL    HW289718   5.865   5.472   9.191  0.4023 -0.0089  0.8858
59930SOL     OW89719   3.198   8.652   5.419 -0.3066 -0.1557 -0.8052
59930SOL    HW189720   3.179   8.741   5.450  1.3038 -0.0635  0.0211
59930SOL    HW289721   3.278   8.661   5.368 -0.2197 -1.0990 -0.8570
59931SOL     OW89722   6.218   4.455   0.061 -0.4043  0.3035 -0.4372
59931SOL    HW189723   6.135   4.436   0.017 -0.5389  0.1308 -0.1132
59931SOL    HW289724   6.235   4.378   0.116  1.5537 -1.1131 -2.8085
59932SOL     OW89725   2.628   3.200   7.342  0.2760  0.4128  0.5456
59932SOL    HW189726   2.587   3.222   7.259 -0.2132  2.0192  1.1729
59932SOL    HW289727   2.720   3.187   7.321 -0.0210 -0.2496 -0.4021
59933SOL     OW89728  11.476   4.712   0.904  0.5751  0.3203  0.3955
59933SOL    HW189729  11.437   4.797   0.882  1.9913  0.5353 -1.4803
59933SOL    HW289730  11.446   4.653   0.835 -1.7468 -1.2340  2.5398
59934SOL     OW89731   6.172  11.786   3.336 -0.3812  0.2349 -0.3363
59934SOL    HW189732   6.245  11.848   3.335  0.2537 -0.4845 -0.1098
59934SOL    HW289733   6.213  11.702   3.356 -1.4020 -0.0189  0.7985
59935SOL     OW89734   0.798   8.817   1.570 -0.3349  0.0033  0.0527
59935SOL    HW189735   0.766   8.906   1.553 -0.6853 -0.1291  0.0063
59935SOL    HW289736   0.889   8.818   1.542 -0.1537  0.5273  0.6306
59936SOL     OW89737   8.522  10.462   2.819 -0.0873 -0.4461 -0.1421
59936SOL    HW189738   8.583  10.523   2.861  0.2791 -0.4673 -0.6319
59936SOL    HW289739   8.579  10.400   2.774 -0.4582 -1.0892  0.2597
59937SOL     OW89740   4.118   5.103   4.590 -0.2874  0.3418 -0.2879
59937SOL    HW189741   4.056   5.148   4.532  1.1464  1.5838 -0.9279
59937SOL    HW289742   4.168   5.045   4.532  1.1819  1.6189 -0.3583
59938SOL     OW89743   3.760   4.305   5.729 -0.0711 -0.6404 -0.1276
59938SOL    HW189744   3.754   4.253   5.809 -0.0611 -1.1080 -0.4254
59938SOL    HW289745   3.685   4.363   5.732  0.6331  0.2398  0.8435
59939SOL     OW89746  12.866   3.118   7.867  0.4905  0.3617  0.4883
59939SOL    HW189747  12.832   3.029   7.858 -1.7478  1.1524  0.4603
59939SOL    HW289748  12.840   3.162   7.787  2.4344  0.8308  0.0706
59940SOL     OW89749   0.720   2.634   6.199  0.1253  0.2437 -0.2443
59940SOL    HW189750   0.778   2.701   6.235  0.5757 -1.2230  1.9648
59940SOL    HW289751   0.633   2.674   6.202  0.4990  1.0518  0.1392
59941SOL     OW89752   2.888  12.098   3.158 -0.4612 -0.3608  0.0795
59941SOL    HW189753   2.979  12.071   3.155  0.0550  1.2748 -0.2082
59941SOL    HW289754   2.848  12.044   3.227  0.8486 -0.7272  0.5680
59942SOL     OW89755  11.838   5.969   4.373 -0.3367  0.0490 -0.2743
59942SOL    HW189756  11.809   5.957   4.283 -1.2691  0.4946 -0.0405
59942SOL    HW289757  11.862   6.062   4.378  1.6661 -0.3977 -0.5969
59943SOL     OW89758   6.613  11.587   4.317  0.0425  0.5164  0.3191
59943SOL    HW189759   6.685  11.643   4.287 -0.1229  0.0238 -1.0440
59943SOL    HW289760   6.644  11.498   4.302 -0.4983  0.2828  0.5679
59944SOL     OW89761   6.832  12.452  13.034 -0.4681  0.6177  0.5332
59944SOL    HW189762   6.819  12.399  13.113 -0.0265 -0.1173  0.1305
59944SOL    HW289763   6.745  12.457  12.994 -1.0136  2.2537  1.8040
59945SOL     OW89764   8.388   3.064   2.152 -0.9365  0.2777  0.0950
59945SOL    HW189765   8.381   3.152   2.190  2.2043  0.4431  0.5301
59945SOL    HW289766   8.385   3.079   2.058 -2.0709  0.6358  0.1734
59946SOL     OW89767   0.426  12.994   8.021  0.0121 -0.3553  0.0725
59946SOL    HW189768   0.397  12.945   7.944 -0.6229 -2.1906  1.4039
59946SOL    HW289769   0.392  13.083   8.006 -1.0976 -0.9462 -1.2237
59947SOL     OW89770   2.295   0.871   2.212  0.5033  0.0968 -0.0794
59947SOL    HW189771   2.331   0.784   2.231 -0.9784 -0.4034  0.6334
59947SOL    HW289772   2.346   0.931   2.267 -0.1300 -0.6809  1.4316
59948SOL     OW89773  11.388  10.556   0.777 -0.9232 -0.0087 -0.3849
59948SOL    HW189774  11.424  10.644   0.781 -0.2753 -0.2760 -0.2821
59948SOL    HW289775  11.337  10.554   0.696 -0.6857  0.3625 -0.5434
59949SOL     OW89776   6.744   2.437   3.315  0.3923 -0.3906 -0.0088
59949SOL    HW189777   6.817   2.464   3.259  0.2275 -0.6017 -0.3289
59949SOL    HW289778   6.680   2.399   3.255 -1.2281  2.2929 -0.1802
59950SOL     OW89779   5.370   9.323   3.528 -0.1575  0.1495 -0.1040
59950SOL    HW189780   5.441   9.354   3.472 -0.3532  1.2216  0.2191
59950SOL    HW289781   5.403   9.242   3.567  1.1640  0.9904  0.5872
59951SOL     OW89782   9.322   1.368   0.906 -0.1194  0.0067  0.0234
59951SOL    HW189783   9.402   1.368   0.852 -0.8375  1.0847 -1.0974
59951SOL    HW289784   9.257   1.411   0.852 -0.8402  1.3323  1.8496
59952SOL     OW89785   8.623   6.774   6.050 -0.4405 -0.0917 -0.0587
59952SOL    HW189786   8.561   6.782   6.123 -0.9435  0.2054 -0.5102
59952SOL    HW289787   8.659   6.862   6.039 -1.2354  0.1450 -0.9115
59953SOL     OW89788   2.187  12.656  12.260  0.7482 -0.0171 -0.1784
59953SOL    HW189789   2.240  12.636  12.182 -0.6850 -0.0350 -1.1777
59953SOL    HW289790   2.235  12.728  12.303  1.0897  0.6344 -1.5797
59954SOL     OW89791   0.622   4.649   0.168 -0.5441  0.1201 -0.0610
59954SOL    HW189792   0.530   4.664   0.145 -1.7205 -3.0351  1.9910
59954SOL    HW289793   0.619   4.625   0.261  2.9655  4.2673  1.4817
59955SOL     OW89794   1.569   2.365   7.983  0.0305  0.1648 -0.1589
59955SOL    HW189795   1.602   2.288   8.029 -0.9618  0.5196  1.1998
59955SOL    HW289796   1.646   2.401   7.939  0.3882 -1.9275 -1.3327
59956SOL     OW89797  11.830   7.913   2.202 -0.0395  0.5846  0.9532
59956SOL    HW189798  11.811   7.823   2.176 -0.2134  1.0405 -0.6206
59956SOL    HW289799  11.765   7.933   2.269 -1.1467  0.0953  0.0559
59957SOL     OW89800   5.499   7.141   1.804  0.0809  0.0581 -0.7133
59957SOL    HW189801   5.564   7.070   1.807  2.3890  2.0642 -0.0775
59957SOL    HW289802   5.515   7.191   1.884 -2.2193  0.7215 -0.6103
59958SOL     OW89803   9.372   6.076   4.713  0.0316  0.2781 -0.1785
59958SOL    HW189804   9.459   6.055   4.680  0.3035  0.2981  0.5104
59958SOL    HW289805   9.335   5.992   4.741 -0.6364  0.0963 -1.5307
59959SOL     OW89806  12.971   0.876   0.383 -0.0112  0.3176  0.1968
59959SOL    HW189807  13.035   0.811   0.408 -0.6413 -0.0758  0.8144
59959SOL    HW289808  13.020   0.940   0.332  0.1959 -1.9489 -2.7546
59960SOL     OW89809   1.924  12.206   8.421  0.1373 -0.3842 -0.1355
59960SOL    HW189810   1.905  12.216   8.328 -0.1785  2.7442  0.1393
59960SOL    HW289811   2.015  12.233   8.430 -0.3648  1.1674  0.6333
59961SOL     OW89812   5.761  10.428   2.440 -0.1142  0.1879 -0.2391
59961SOL    HW189813   5.813  10.467   2.370  0.0227 -0.9580 -0.7936
59961SOL    HW289814   5.720  10.352   2.400 -2.4023  1.1489  0.1386
59962SOL     OW89815   0.982   1.184   2.029  0.7279 -0.1827 -0.0959
59962SOL    HW189816   0.892   1.195   2.059  1.2587  4.0893  0.5343
59962SOL    HW289817   1.029   1.153   2.107  0.2256  0.1614  0.3522
59963SOL     OW89818  11.887  10.431   8.057  0.1558 -0.2235  0.4562
59963SOL    HW189819  11.965  10.482   8.077  0.9750 -0.8470 -0.9803
59963SOL    HW289820  11.860  10.394   8.141  1.1723  0.3188  1.0381
59964SOL     OW89821   2.671  10.634   5.579  0.1210  0.4033  0.2150
59964SOL    HW189822   2.710  10.585   5.652 -1.6881 -1.6659 -0.1077
59964SOL    HW289823   2.684  10.578   5.503 -1.6260  0.5746 -0.2525
59965SOL     OW89824   7.984   6.648   0.466 -0.0347 -0.1181 -0.0357
59965SOL    HW189825   8.062   6.703   0.470  0.2764 -0.3191 -2.1229
59965SOL    HW289826   7.930   6.677   0.539  1.3655  0.9833  0.6122
59966SOL     OW89827  11.367   4.594  10.364  0.6041  0.4956 -0.1442
59966SOL    HW189828  11.345   4.645  10.442 -1.2342 -1.7546  0.9332
59966SOL    HW289829  11.286   4.588  10.315  1.0128 -0.5417 -0.7239
59967SOL     OW89830   9.293   1.425  10.059  0.2903 -0.2122 -0.0107
59967SOL    HW189831   9.208   1.434  10.015 -0.6668 -1.3127  1.5319
59967SOL    HW289832   9.353   1.479  10.006 -0.9294 -0.9119 -2.2424
59968SOL     OW89833  12.833   7.326   1.926 -0.3067 -0.0981  0.4073
59968SOL    HW189834  12.862   7.400   1.980  0.1603 -0.4023  0.5730
59968SOL    HW289835  12.879   7.250   1.962 -2.2516 -0.8403  1.5342
59969SOL     OW89836   1.880   0.753   0.932  0.2317 -0.3287  0.4676
59969SOL    HW189837   1.958   0.768   0.879 -0.6797  0.1927 -0.7755
59969SOL    HW289838   1.833   0.682   0.887 -0.6968  0.3112  0.4013
59970SOL     OW89839   4.195   0.120  12.172  0.0371  0.3169  0.3227
59970SOL    HW189840   4.221   0.028  12.168  0.1931  0.3726  0.0482
59970SOL    HW289841   4.266   0.163  12.220 -1.2370 -0.1331  2.7728
59971SOL     OW89842   8.281   3.501   2.107  0.5700  0.8829 -0.1692
59971SOL    HW189843   8.274   3.593   2.129 -0.3928  0.6815  0.4336
59971SOL    HW289844   8.198   3.479   2.064  0.1388 -0.0431  1.0744
59972SOL     OW89845  11.033   2.645   0.401 -0.6335 -0.3999 -0.6785
59972SOL    HW189846  10.941   2.621   0.404 -0.7890  0.2218  1.2833
59972SOL    HW289847  11.043   2.710   0.471  1.4988 -1.2257 -0.1365
59973SOL     OW89848   3.455   8.109   3.591 -0.0968 -0.1528 -0.0960
59973SOL    HW189849   3.526   8.055   3.555 -1.7168 -1.5303 -1.3612
59973SOL    HW289850   3.404   8.050   3.646 -0.3463  0.8026  0.7437
59974SOL     OW89851  11.335   6.380   9.317 -0.5016  0.1355 -0.6275
59974SOL    HW189852  11.395   6.318   9.358  1.2836  1.3778 -1.2470
59974SOL    HW289853  11.356   6.377   9.224 -1.8351  0.1870 -0.9624
59975SOL     OW89854  10.063   9.904  12.729  0.1203  0.1306  0.8673
59975SOL    HW189855  10.122   9.829  12.731  0.6418  0.5374  0.9840
59975SOL    HW289856  10.121   9.980  12.718 -0.2138  0.7296  2.9239
59976SOL     OW89857  11.432   0.362   3.605 -0.4865  0.3225 -0.0390
59976SOL    HW189858  11.375   0.300   3.649  0.4795 -0.5800 -0.0325
59976SOL    HW289859  11.374   0.434   3.579 -1.6220 -0.5915 -0.0878
59977SOL     OW89860   4.704   0.322   5.688 -0.0636 -0.5330 -0.1932
59977SOL    HW189861   4.695   0.313   5.593 -1.8854  1.1959 -0.2364
59977SOL    HW289862   4.799   0.323   5.703  0.3191  1.3489 -2.2581
59978SOL     OW89863   5.887   1.286  13.182  0.0325 -0.4923  0.2402
59978SOL    HW189864   5.890   1.190  13.173 -0.7111 -0.4328 -0.7835
59978SOL    HW289865   5.826   1.314  13.114 -1.7085  0.5046  2.1133
59979SOL     OW89866   0.701   7.919   3.021  0.3372  0.2757  0.5274
59979SOL    HW189867   0.748   7.962   3.092  0.5134  2.1968 -0.6699
59979SOL    HW289868   0.672   7.991   2.964 -3.3254 -0.8445  0.7267
59980SOL     OW89869   4.321   2.340   4.110  0.2763 -0.2036  0.1827
59980SOL    HW189870   4.347   2.248   4.118 -1.4111 -0.8302 -1.0849
59980SOL    HW289871   4.301   2.352   4.018  1.0665  1.6480  0.2019
59981SOL     OW89872   1.947   7.866  11.858 -0.3847 -0.2063 -0.0867
59981SOL    HW189873   1.891   7.917  11.799 -1.4475 -1.1065  0.1113
59981SOL    HW289874   2.021   7.924  11.877 -2.0319  1.6494  0.9355
59982SOL     OW89875   2.430   5.025   0.507 -0.1838  0.1341 -0.2039
59982SOL    HW189876   2.444   4.937   0.472 -0.5724 -0.4694  1.0983
59982SOL    HW289877   2.518   5.061   0.516  0.0403 -0.4748  0.1166
59983SOL     OW89878   2.212  10.634   7.745 -0.1278  0.3912 -0.3910
59983SOL    HW189879   2.288  10.582   7.718 -0.3982 -0.2529  0.0689
59983SOL    HW289880   2.239  10.725   7.730  1.2344  0.2586  0.9886
59984SOL     OW89881   1.980   5.430   8.303 -0.8251 -0.7079 -0.2164
59984SOL    HW189882   1.893   5.412   8.267 -0.8123 -2.2496  0.4780
59984SOL    HW289883   2.040   5.411   8.231 -0.9788 -0.8082 -0.3182
59985SOL     OW89884  11.990   8.471   2.460 -0.2470  0.0019  0.4307
59985SOL    HW189885  11.911   8.430   2.424 -0.2354 -1.9691  2.4539
59985SOL    HW289886  12.060   8.446   2.399 -0.5008 -1.8907  0.8579
59986SOL     OW89887   6.179   3.462  13.066 -0.0771 -0.1911 -0.2042
59986SOL    HW189888   6.243   3.419  13.008  0.4059 -1.7823  1.3977
59986SOL    HW289889   6.191   3.555  13.050  1.4249 -0.5206 -1.2305
59987SOL     OW89890  11.066  12.483  12.151 -0.8369  0.4427 -0.0767
59987SOL    HW189891  11.118  12.412  12.115 -0.6635 -0.8536  2.5208
59987SOL    HW289892  11.120  12.561  12.138  0.6007 -0.4720  0.1810
59988SOL     OW89893  10.618   6.799   1.233  0.0992  0.2612  0.8191
59988SOL    HW189894  10.687   6.861   1.211  0.2775  0.3240  1.5609
59988SOL    HW289895  10.542   6.853   1.253 -0.4756  0.1831 -0.9120
59989SOL     OW89896   5.090  10.084   4.524 -0.1486  0.1319  0.8800
59989SOL    HW189897   5.173  10.093   4.477 -0.7821  0.0765 -0.2800
59989SOL    HW289898   5.023  10.094   4.457 -1.0897  0.1014  1.7885
59990SOL     OW89899  11.325   8.128   1.679  0.3426 -0.6755  0.1780
59990SOL    HW189900  11.380   8.142   1.602 -0.0314 -2.0905 -0.3787
59990SOL    HW289901  11.382   8.145   1.754  0.5387  1.3769 -0.3755
59991SOL     OW89902   8.056   7.098   4.900 -0.1020  0.0157 -0.1922
59991SOL    HW189903   8.009   7.181   4.888 -1.7037 -0.6369  1.0972
59991SOL    HW289904   8.121   7.116   4.968 -0.6823  0.1570  0.3381
59992SOL     OW89905   9.587   9.936   5.682 -0.0407 -0.7407 -0.2705
59992SOL    HW189906   9.613   9.992   5.755 -0.9471 -0.8787  0.1795
59992SOL    HW289907   9.649   9.863   5.683  1.5033  0.4798 -1.2022
59993SOL     OW89908  12.677   7.811   0.129  0.0561 -0.0582  0.4911
59993SOL    HW189909  12.631   7.746   0.075 -1.4479  1.2814  0.0743
59993SOL    HW289910  12.620   7.821   0.206 -0.0131  1.1075  0.3081
59994SOL     OW89911   6.359   6.453   3.900  0.1394 -0.3887  0.5737
59994SOL    HW189912   6.336   6.360   3.907  1.6034 -0.6857  1.9492
59994SOL    HW289913   6.312   6.483   3.822 -1.8849 -1.8054  1.1485
59995SOL     OW89914   0.404   1.424   1.912  0.3479  0.2839 -0.6938
59995SOL    HW189915   0.410   1.520   1.909 -0.7778  0.4846  1.4607
59995SOL    HW289916   0.334   1.407   1.974  2.9932 -1.9604  1.9750
59996SOL     OW89917   0.513   6.384  11.150  0.8038 -0.1160 -0.4966
59996SOL    HW189918   0.595   6.417  11.115 -0.1891  1.1789 -1.6979
59996SOL    HW289919   0.480   6.455  11.205 -0.0903 -0.1124 -1.0190
59997SOL     OW89920   3.245  11.088  12.283  0.4715  0.0852  0.1291
59997SOL    HW189921   3.242  11.005  12.236 -3.0214  1.5496 -2.6010
59997SOL    HW289922   3.314  11.138  12.238  0.1366 -0.0712 -0.5696
59998SOL     OW89923   0.379   7.617   6.037 -0.3203  0.4486 -0.3686
59998SOL    HW189924   0.404   7.709   6.033  1.8721 -0.1075 -0.6181
59998SOL    HW289925   0.337   7.600   5.953 -2.5628  1.6415  0.4264
59999SOL     OW89926   6.893   4.359   4.037  0.2261  0.2432 -0.1845
59999SOL    HW189927   6.925   4.368   3.947 -0.7571  1.0197 -0.4797
59999SOL    HW289928   6.963   4.313   4.083  0.8329  0.0139 -1.2969
60000SOL     OW89929   5.825  12.611   3.603 -0.5394  0.0600  0.0265
60000SOL    HW189930   5.819  12.516   3.612 -1.1267 -0.2646 -2.8109
60000SOL    HW289931   5.745  12.644   3.644 -1.2813 -0.8341 -0.6745
60001SOL     OW89932   7.431   0.295  12.311  0.3259 -0.3925  0.4257
60001SOL    HW189933   7.363   0.350  12.272  0.0155  0.2549  1.8166
60001SOL    HW289934   7.453   0.232  12.243 -2.0317 -0.9616  0.0964
60002SOL     OW89935   9.301   6.940   0.588 -0.5350 -0.1192  0.2102
60002SOL    HW189936   9.377   6.918   0.535 -0.2226  3.2447 -0.9380
60002SOL    HW289937   9.334   6.942   0.678  0.5581  0.4982 -0.1847
60003SOL     OW89938   6.465  10.867   0.188 -0.0209  0.0037 -0.5386
60003SOL    HW189939   6.450  10.786   0.237  1.6254  0.3464  0.6032
60003SOL    HW289940   6.379  10.909   0.185 -0.4523 -0.6965  0.8915
60004SOL     OW89941   6.715   0.162   2.617  1.3152 -0.0990  0.0659
60004SOL    HW189942   6.642   0.172   2.678 -0.1483 -0.1299 -1.5826
60004SOL    HW289943   6.777   0.231   2.641 -0.1475  1.1739  0.3382
60005SOL     OW89944  12.530   2.958   4.701 -0.2916 -0.0596 -0.6303
60005SOL    HW189945  12.621   2.935   4.722 -0.5271  0.4579  1.1449
60005SOL    HW289946  12.526   3.053   4.715 -0.8400  0.1206 -1.8661
60006SOL     OW89947   6.253   6.903   9.961 -0.0078 -0.0894  0.1378
60006SOL    HW189948   6.314   6.880  10.031  0.8734  1.2909 -0.1463
60006SOL    HW289949   6.303   6.960   9.903 -1.2607  0.2339 -0.6595
60007SOL     OW89950   5.535  12.558  12.865  0.4411  0.6387  0.0794
60007SOL    HW189951   5.524  12.501  12.789 -3.5786  0.3512  0.6551
60007SOL    HW289952   5.503  12.643  12.836  0.3859  0.9424  1.0010
60008SOL     OW89953   4.113  10.329   0.911 -1.0147 -0.3035  0.0767
60008SOL    HW189954   4.036  10.379   0.937 -0.7603 -0.8413  2.0624
60008SOL    HW289955   4.187  10.388   0.926 -0.8189 -0.8072  1.2148
60009SOL     OW89956   0.539   5.518  12.664 -0.2200  0.4477 -0.0375
60009SOL    HW189957   0.512   5.433  12.697  0.1254  1.0076  1.8168
60009SOL    HW289958   0.605   5.498  12.597  0.4850 -0.7502  0.9682
60010SOL     OW89959   0.184   1.076   8.765 -0.2824 -0.5898  0.4261
60010SOL    HW189960   0.114   1.043   8.820 -0.9621  0.2842  0.1123
60010SOL    HW289961   0.145   1.150   8.718 -0.0266 -1.8576 -1.9400
60011SOL     OW89962  12.832  11.602   2.007  0.2039  0.2701 -0.0624
60011SOL    HW189963  12.873  11.544   1.943 -1.1295 -0.0086 -0.7105
60011SOL    HW289964  12.889  11.678   2.012  1.3984 -0.6096 -0.0328
60012SOL     OW89965   1.447  11.827   3.497  0.1640 -0.6649  0.8522
60012SOL    HW189966   1.416  11.897   3.439 -0.9691 -1.5680  0.3309
60012SOL    HW289967   1.405  11.847   3.581  1.3693  0.3326  1.2541
60013SOL     OW89968   6.605  11.262   3.963  1.0600 -0.3072 -0.2942
60013SOL    HW189969   6.661  11.277   4.040  0.0368  1.4011  0.1526
60013SOL    HW289970   6.615  11.340   3.910 -0.8213  0.0277 -0.2327
60014SOL     OW89971   1.169   0.858   5.534 -0.2030  0.3309  0.7937
60014SOL    HW189972   1.213   0.943   5.543 -1.3557  0.9107  1.0283
60014SOL    HW289973   1.233   0.804   5.487 -0.1329  1.8661 -0.9912
60015SOL     OW89974   7.803   8.556   8.311 -0.0927  0.4052  0.5944
60015SOL    HW189975   7.756   8.606   8.378  0.8887  1.8377  0.2498
60015SOL    HW289976   7.830   8.621   8.247  0.5580 -0.6940 -0.2812
60016SOL     OW89977   9.992   5.421   3.527  0.5700  0.2385 -0.6638
60016SOL    HW189978   9.979   5.465   3.443 -0.0663  2.3822  0.4630
60016SOL    HW289979   9.928   5.462   3.586  3.1907  1.2910  1.6794
60017SOL     OW89980  10.047   2.075   9.712 -0.1804 -0.1625 -0.2319
60017SOL    HW189981  10.032   2.120   9.629 -0.7340  1.5758  0.7716
60017SOL    HW289982  10.030   2.141   9.779  2.0292 -0.9813  1.2464
60018SOL     OW89983   9.194   1.171   1.055 -0.4083 -0.5593 -0.1235
60018SOL    HW189984   9.231   1.248   1.011 -1.2833  1.2356  2.1224
60018SOL    HW289985   9.132   1.135   0.991 -2.2740  2.4466 -0.1748
60019SOL     OW89986   9.121   8.193  13.105 -0.0886  0.9077  0.3300
60019SOL    HW189987   9.150   8.212  13.194  0.4448  1.9720 -0.0501
60019SOL    HW289988   9.081   8.106  13.111  3.6277 -0.9846  0.8384
60020SOL     OW89989   6.552   4.992   7.553  0.5891 -0.4589  0.0662
60020SOL    HW189990   6.540   5.005   7.647  0.4375  2.7875 -0.2908
60020SOL    HW289991   6.464   4.991   7.517  0.6418 -1.7991 -0.0771
60021SOL     OW89992   0.259   1.290   5.062  0.0214  0.1287 -0.0018
60021SOL    HW189993   0.204   1.358   5.025 -2.0012 -0.3283  1.9081
60021SOL    HW289994   0.206   1.253   5.133  2.7702 -0.4267  1.9203
60022SOL     OW89995   4.330   9.503   7.803  0.1923  0.4996 -0.2734
60022SOL    HW189996   4.237   9.523   7.795  0.0271 -0.2373 -0.3071
60022SOL    HW289997   4.355   9.470   7.716  0.3285  0.1201 -0.0952
60023SOL     OW89998   4.922   2.866   8.712  0.6258  0.7167 -0.0556
60023SOL    HW189999   5.005   2.886   8.668 -0.1545  1.0536 -1.4505
60023SOL    HW290000   4.872   2.818   8.646  0.3497 -1.0511  1.3689
60024SOL     OW90001   5.415  10.801   3.935  0.3383  0.6726  0.2972
60024SOL    HW190002   5.335  10.803   3.882  0.8910 -0.2473 -0.6006
60024SOL    HW290003   5.398  10.864   4.006 -1.4007  0.0817  0.4596
60025SOL     OW90004   0.962   0.720   9.657  0.1291 -0.3994  0.6125
60025SOL    HW190005   0.993   0.646   9.708  2.4904  0.7268  0.9372
60025SOL    HW290006   1.033   0.784   9.661 -1.0485  1.1428 -1.2055
60026SOL     OW90007   2.935  11.726   4.221 -0.2114 -0.0862  0.1409
60026SOL    HW190008   2.966  11.816   4.208  2.0548 -0.5578  1.7556
60026SOL    HW290009   2.966  11.679   4.144 -0.3324  0.2522 -0.1201
60027SOL     OW90010   8.813   0.810  12.115  0.1656  0.3794  0.0022
60027SOL    HW190011   8.762   0.830  12.036  1.1291  0.5515 -0.5954
60027SOL    HW290012   8.753   0.827  12.187 -1.1014 -0.8412 -0.7228
60028SOL     OW90013   0.871   9.649   8.055  0.0297 -0.8562 -0.2060
60028SOL    HW190014   0.919   9.571   8.026 -0.3611 -0.5600 -1.7270
60028SOL    HW290015   0.938   9.705   8.094  1.1620 -0.1340 -2.9425
60029SOL     OW90016   5.602   4.529   2.733 -0.2016 -0.4266 -0.0164
60029SOL    HW190017   5.606   4.547   2.827  0.2495 -1.4956  0.1846
60029SOL    HW290018   5.523   4.476   2.722 -0.8855  0.6468 -0.4255
60030SOL     OW90019  10.883   2.823   0.817  0.0854 -0.0047 -0.4035
60030SOL    HW190020  10.904   2.884   0.746 -2.2950  0.9408 -0.4151
60030SOL    HW290021  10.968   2.795   0.851  1.3295  3.0998 -0.6147
60031SOL     OW90022   4.385   3.461   9.791 -0.5974 -0.1897 -0.0307
60031SOL    HW190023   4.366   3.452   9.697  0.9722 -3.0786 -0.1676
60031SOL    HW290024   4.304   3.434   9.834 -0.5375 -1.3404 -0.5935
60032SOL     OW90025   5.797   6.534   9.752  0.1076 -0.0159  0.3702
60032SOL    HW190026   5.842   6.494   9.827  1.0173  0.3693  0.0536
60032SOL    HW290027   5.800   6.468   9.684  0.5856  0.1598  0.2152
60033SOL     OW90028  10.317  11.605   4.544 -0.4504  0.0603  0.3339
60033SOL    HW190029  10.274  11.528   4.508  0.0621 -0.8393  1.5539
60033SOL    HW290030  10.396  11.615   4.491  0.0233 -0.9202  0.8208
60034SOL     OW90031   2.768   4.680  11.385 -0.0697  0.0025  0.0756
60034SOL    HW190032   2.802   4.699  11.473  0.6329  0.8819 -0.3746
60034SOL    HW290033   2.832   4.719  11.326  0.4784 -2.1958 -0.8961
60035SOL     OW90034   8.952   2.292   4.830 -0.3460 -0.6570 -0.4655
60035SOL    HW190035   8.901   2.321   4.905 -0.2444 -1.9572  0.1299
60035SOL    HW290036   8.999   2.371   4.801 -0.5659 -0.0807  0.6797
60036SOL     OW90037   5.461   5.460   1.209  0.8483 -0.0991  0.8914
60036SOL    HW190038   5.411   5.510   1.145  1.5097 -0.1927  0.2963
60036SOL    HW290039   5.532   5.420   1.159  1.6631  0.2253  1.7590
60037SOL     OW90040   7.456  12.358   3.690 -0.5594 -0.1471 -0.5472
60037SOL    HW190041   7.382  12.408   3.655 -2.3752 -2.1227  0.2100
60037SOL    HW290042   7.495  12.316   3.613 -0.7570  0.2452 -0.8630
60038SOL     OW90043   1.517  12.111   6.798 -0.7216  0.3887  0.0550
60038SOL    HW190044   1.535  12.038   6.739 -0.8895  0.4643 -0.0953
60038SOL    HW290045   1.491  12.070   6.880  1.7472  0.2579  0.8440
60039SOL     OW90046  13.152   2.781  11.392 -0.0098  0.4621 -0.5914
60039SOL    HW190047  13.083   2.816  11.448 -0.1222  1.2209 -1.1804
60039SOL    HW290048  13.109   2.713  11.341 -1.2616  3.0098 -3.2687
60040SOL     OW90049  12.697   3.731   7.117 -0.5073 -0.1234 -0.2319
60040SOL    HW190050  12.702   3.677   7.038  0.1113 -1.0341  0.4223
60040SOL    HW290051  12.770   3.793   7.109 -0.1996 -0.4768 -0.1917
60041SOL     OW90052  10.482   1.051   3.892 -0.3118 -0.7202 -0.6024
60041SOL    HW190053  10.457   0.976   3.838  1.5039  0.0335 -2.6425
60041SOL    HW290054  10.465   1.023   3.982 -1.1172 -2.9885 -1.3990
60042SOL     OW90055   4.897  10.747   8.144 -0.3511 -0.4867 -0.4801
60042SOL    HW190056   4.989  10.770   8.133 -0.1617 -0.7883  0.4647
60042SOL    HW290057   4.850  10.817   8.098  0.2943  0.5326  0.3654
60043SOL     OW90058   1.810   4.539   0.676 -0.1066 -0.5007  0.0976
60043SOL    HW190059   1.851   4.467   0.725  0.2626 -1.5198 -1.6111
60043SOL    HW290060   1.883   4.581   0.630  0.3932  3.6003  3.9616
60044SOL     OW90061   4.932   9.732  11.325  0.0174  0.3761 -0.0116
60044SOL    HW190062   5.007   9.789  11.341  0.3127  0.2557 -0.9396
60044SOL    HW290063   4.857   9.780  11.361  0.3595  1.0537 -0.1942
60045SOL     OW90064  11.356   6.395   1.382 -0.1621  0.3788  0.1436
60045SOL    HW190065  11.428   6.352   1.336 -0.8093 -0.7527  0.1601
60045SOL    HW290066  11.278   6.372   1.330 -0.5185  1.6305  0.0876
60046SOL     OW90067  10.743   5.328   0.331 -0.3296  0.3548 -0.7489
60046SOL    HW190068  10.750   5.367   0.417  0.7522  0.1466 -0.7260
60046SOL    HW290069  10.831   5.294   0.312 -1.1439 -1.9618 -0.7970
60047SOL     OW90070  11.949   6.356   7.216  0.3585  0.8898  0.1010
60047SOL    HW190071  11.991   6.339   7.132 -0.3597 -1.5879  0.1773
60047SOL    HW290072  11.906   6.441   7.205  0.4632  0.7180 -1.9464
60048SOL     OW90073   8.960   5.153   3.561  0.8426  0.0665  0.1900
60048SOL    HW190074   8.897   5.145   3.632  1.4457  1.1828  0.8725
60048SOL    HW290075   8.906   5.164   3.482  0.1680  0.6401  0.7190
60049SOL     OW90076   3.753   2.734  10.407  0.0547 -0.7568 -0.1923
60049SOL    HW190077   3.790   2.822  10.404 -0.4351 -0.5857 -1.7247
60049SOL    HW290078   3.686   2.733  10.339  0.1281 -2.3513 -0.2808
60050SOL     OW90079   0.855   9.812  11.203 -0.3039  0.6778 -0.5681
60050SOL    HW190080   0.946   9.792  11.224  0.0271  2.3877 -0.1958
60050SOL    HW290081   0.855   9.822  11.107  0.1833  1.7972 -0.4751
60051SOL     OW90082   0.950   2.636   5.082 -0.0587 -0.3558 -0.1141
60051SOL    HW190083   0.919   2.726   5.096  0.3531 -0.4646  1.7457
60051SOL    HW290084   0.983   2.636   4.992 -1.3712  0.9507 -0.6441
60052SOL     OW90085   1.437   0.804   0.298 -0.0523 -0.9460 -0.0769
60052SOL    HW190086   1.526   0.821   0.329  0.5372  1.9503 -2.8090
60052SOL    HW290087   1.388   0.882   0.322 -1.4573 -1.8264 -0.0138
60053SOL     OW90088  10.911   9.525   4.390  0.7015 -0.0110  0.7077
60053SOL    HW190089  10.996   9.562   4.416  0.9172 -0.2929  0.4163
60053SOL    HW290090  10.852   9.601   4.387  1.2669  0.4022 -0.3971
60054SOL     OW90091   6.912   9.229   7.875  0.2036  0.0811  0.0048
60054SOL    HW190092   6.882   9.162   7.814  0.3468 -0.6085  0.6692
60054SOL    HW290093   7.003   9.204   7.895  0.3455  0.6276  0.0542
60055SOL     OW90094   1.999   1.038   5.957 -0.0862 -0.3542 -0.3394
60055SOL    HW190095   2.066   1.024   6.025 -0.0808  0.1774 -0.2363
60055SOL    HW290096   1.964   1.125   5.975 -1.4599 -0.9886  0.1594
60056SOL     OW90097   2.543   0.373   9.445 -0.3223 -0.1576 -0.3312
60056SOL    HW190098   2.549   0.278   9.441  0.0810 -0.1537  0.1030
60056SOL    HW290099   2.469   0.390   9.503 -0.7054 -0.2006 -0.7961
60057SOL     OW90100   8.722   0.231   1.718  0.2461  0.2460  0.0050
60057SOL    HW190101   8.778   0.179   1.660  1.2727  1.0232  0.2545
60057SOL    HW290102   8.731   0.320   1.686 -1.4064  0.3178 -0.3474
60058SOL     OW90103   7.652  12.877   7.343  0.4128  0.1769  0.4503
60058SOL    HW190104   7.693  12.827   7.273  0.8243  1.2200 -0.0766
60058SOL    HW290105   7.559  12.856   7.337  0.4793  0.0792 -0.2634
60059SOL     OW90106   5.098   5.541   9.096  0.1551  0.0622  0.7599
60059SOL    HW190107   5.102   5.448   9.072  0.1501 -0.1369  1.5067
60059SOL    HW290108   5.084   5.541   9.191  1.9360  0.8330  1.0565
60060SOL     OW90109   9.739   7.784   4.097  0.1488 -0.0080 -0.5028
60060SOL    HW190110   9.784   7.850   4.149  0.0199 -0.4291  0.1506
60060SOL    HW290111   9.775   7.701   4.127  0.4519 -0.2351 -1.4570
60061SOL     OW90112   1.906   5.069   8.708  0.1357 -0.1741  0.1822
60061SOL    HW190113   1.816   5.066   8.742 -0.8359  0.7617 -2.1192
60061SOL    HW290114   1.927   5.162   8.704  0.8147 -0.3442 -0.2918
60062SOL     OW90115  10.797   1.178  10.036  0.4923 -0.1605  0.1763
60062SOL    HW190116  10.806   1.267  10.002  1.6486  0.0901  1.1036
60062SOL    HW290117  10.867   1.129   9.994 -0.6499 -0.8809 -0.9888
60063SOL     OW90118   3.019   0.923   3.396 -0.5340 -0.1054  0.1531
60063SOL    HW190119   3.050   0.987   3.332  0.2604 -0.8405 -0.2128
60063SOL    HW290120   3.062   0.950   3.478 -1.3971  0.7175  0.3464
60064SOL     OW90121   5.257   8.775   6.014  0.0112 -0.4141  0.5026
60064SOL    HW190122   5.268   8.689   6.055 -1.0440 -0.4620  0.7219
60064SOL    HW290123   5.166   8.798   6.033  0.4358  0.9938  0.9001
60065SOL     OW90124   0.929  13.163   8.317 -0.1104 -0.5364  0.1337
60065SOL    HW190125   1.006  13.107   8.312 -0.1303 -0.5503 -0.0264
60065SOL    HW290126   0.898  13.170   8.227 -0.8501 -1.3032  0.3134
60066SOL     OW90127   6.215   7.287   0.624  0.3344 -0.5897 -0.1131
60066SOL    HW190128   6.247   7.218   0.566  0.0910 -0.7084 -0.1105
60066SOL    HW290129   6.132   7.252   0.658  0.4676 -0.5168  0.2935
60067SOL     OW90130   2.902   2.139   6.604 -0.0272 -0.4393 -0.2012
60067SOL    HW190131   2.807   2.142   6.616  0.0900 -0.3204  0.7432
60067SOL    HW290132   2.934   2.088   6.678  0.8563  1.5393  0.8528
60068SOL     OW90133   1.681   8.647   6.326  0.1428 -0.2705  0.1758
60068SOL    HW190134   1.670   8.742   6.319  1.1669 -0.1838 -0.4906
60068SOL    HW290135   1.763   8.636   6.373  0.1514 -0.8212  0.0335
60069SOL     OW90136  12.585   8.826   2.657  0.2901  0.1428  0.0535
60069SOL    HW190137  12.654   8.815   2.722  0.1724  1.3205  0.4077
60069SOL    HW290138  12.624   8.796   2.575  0.1828 -2.0773  0.7636
60070SOL     OW90139  10.333  12.515   7.942  0.1592 -0.5602  0.0674
60070SOL    HW190140  10.272  12.589   7.940  0.8793  0.0632  0.5713
60070SOL    HW290141  10.284  12.446   7.987 -0.0412  0.0724  0.8528
60071SOL     OW90142   1.992   6.476   5.775  0.2625 -0.7124 -0.1593
60071SOL    HW190143   2.047   6.526   5.714 -2.0886  0.6483 -1.3191
60071SOL    HW290144   1.950   6.543   5.829  1.3726 -1.8368  2.2471
60072SOL     OW90145   4.131   8.313   0.733  0.4417 -0.2876  0.3908
60072SOL    HW190146   4.187   8.248   0.776  0.3740 -0.9789 -0.5159
60072SOL    HW290147   4.139   8.292   0.640  2.1955  2.3847 -0.1920
60073SOL     OW90148   1.858   2.068   2.178 -0.3831 -0.1478 -0.4306
60073SOL    HW190149   1.781   2.031   2.135 -1.2125 -0.1168  0.9819
60073SOL    HW290150   1.900   2.121   2.110 -2.5302  1.2067 -0.8080
60074SOL     OW90151   2.359   5.711   5.196 -0.2044 -0.2489 -0.2817
60074SOL    HW190152   2.451   5.700   5.172  0.7283 -0.3796  2.9432
60074SOL    HW290153   2.349   5.805   5.209 -0.5188 -0.2454 -0.5380
60075SOL     OW90154   8.473   7.056   6.846 -0.3638  0.5138 -0.2280
60075SOL    HW190155   8.453   6.966   6.818 -2.2176  0.7542  0.1760
60075SOL    HW290156   8.510   7.098   6.768  2.1400 -1.0043  0.0219
60076SOL     OW90157   2.563  12.897   0.907 -0.3288 -0.2634  0.4343
60076SOL    HW190158   2.527  12.870   0.822  0.4655 -2.4983  0.7443
60076SOL    HW290159   2.608  12.980   0.889 -0.8093 -0.3105 -1.1518
60077SOL     OW90160   5.454   6.805   1.426 -0.3807  0.2611 -0.2686
60077SOL    HW190161   5.422   6.818   1.337  0.7336  0.9278 -0.5897
60077SOL    HW290162   5.375   6.786   1.478 -1.1331  0.6787 -1.2379
60078SOL     OW90163   5.122   6.736  12.903 -0.1107 -0.2435 -0.6193
60078SOL    HW190164   5.127   6.818  12.951 -1.0989 -0.5264 -0.0103
60078SOL    HW290165   5.062   6.755  12.830 -2.1098 -0.9659  0.7431
60079SOL     OW90166   9.278  10.837  11.729  0.1325  0.1079 -0.2086
60079SOL    HW190167   9.304  10.783  11.802 -2.0817 -2.0949 -0.9325
60079SOL    HW290168   9.256  10.775  11.659 -1.2120  1.9666 -1.5453
60080SOL     OW90169   0.763   5.277   4.949  0.3025 -0.0608  0.2558
60080SOL    HW190170   0.792   5.368   4.955 -0.2573  0.0545  1.5253
60080SOL    HW290171   0.833   5.232   4.902 -0.5623  1.5023 -2.8255
60081SOL     OW90172  10.359   1.132   4.716 -0.9628 -0.3840 -0.3888
60081SOL    HW190173  10.398   1.180   4.788  1.3109  0.6007 -2.1647
60081SOL    HW290174  10.290   1.189   4.683 -1.0628 -0.2218  0.1008
60082SOL     OW90175   5.209   1.261  11.937 -0.3064 -0.2605  0.5919
60082SOL    HW190176   5.268   1.273  12.011 -0.9707  0.6255  0.9903
60082SOL    HW290177   5.133   1.317  11.957 -0.2231  0.4839 -1.0538
60083SOL     OW90178  11.693   0.175   0.073 -0.0202  0.2128 -0.5438
60083SOL    HW190179  11.701   0.081   0.055  0.2763 -0.1981  1.5680
60083SOL    HW290180  11.621   0.182   0.136  1.5192  1.1217  1.1929
60084SOL     OW90181   2.680   3.934   6.802 -0.0169  0.6545  0.3953
60084SOL    HW190182   2.768   3.920   6.835  0.9283 -1.3287 -2.5545
60084SOL    HW290183   2.629   3.861   6.836 -0.6534  1.9106  2.2672
60085SOL     OW90184   1.512   2.612   3.456  0.3421  0.3259  0.3329
60085SOL    HW190185   1.424   2.619   3.492  0.0277 -0.5900 -0.2234
60085SOL    HW290186   1.567   2.589   3.531  0.4006  2.4120  0.9926
60086SOL     OW90187   4.670   2.996   6.044 -0.4113  0.4535 -0.1117
60086SOL    HW190188   4.736   2.990   5.975  1.6616  0.4384  1.7362
60086SOL    HW290189   4.677   3.086   6.076  0.6397 -0.2477  1.8048
60087SOL     OW90190   2.801   6.682  11.922 -0.2858 -0.3910 -0.0396
60087SOL    HW190191   2.807   6.741  11.997 -3.3831  0.9154 -0.6447
60087SOL    HW290192   2.818   6.595  11.958  1.2011  0.5024  1.5418
60088SOL     OW90193  11.780  10.007   0.228  0.2661 -0.0269 -0.6412
60088SOL    HW190194  11.817   9.948   0.293  0.2028 -1.6495 -2.0185
60088SOL    HW290195  11.750  10.083   0.279  0.1044 -1.2801  1.2276
60089SOL     OW90196   8.909   9.058   3.970 -0.4816  0.2699 -0.1753
60089SOL    HW190197   8.981   9.034   3.912 -0.1841 -0.2071  0.3836
60089SOL    HW290198   8.941   9.133   4.019 -0.1479 -0.2869  0.4713
60090SOL     OW90199   4.460   3.974   3.000  0.0702 -0.4463 -0.3114
60090SOL    HW190200   4.554   3.995   2.994 -0.3783  1.9231 -0.0624
60090SOL    HW290201   4.431   4.021   3.078 -1.7354  0.6684 -1.5877
60091SOL     OW90202   4.639   2.768   1.827  0.0991 -0.8184  0.1437
60091SOL    HW190203   4.722   2.720   1.829  0.2386 -0.6789 -1.1729
60091SOL    HW290204   4.620   2.778   1.734 -0.5780  0.5635  0.4044
60092SOL     OW90205   2.976   8.896   1.878  0.3632 -0.4746 -0.6412
60092SOL    HW190206   2.880   8.902   1.879  0.4399  0.9633 -0.6160
60092SOL    HW290207   2.999   8.866   1.966 -0.0532 -0.6285 -0.5835
60093SOL     OW90208   4.220   2.942   5.853  0.1150 -0.1980 -0.2274
60093SOL    HW190209   4.168   3.021   5.834 -0.2593 -0.6120 -0.9749
60093SOL    HW290210   4.278   2.969   5.924 -1.9724 -0.0756  1.5694
60094SOL     OW90211   2.772   9.696  12.044 -0.3816  0.0666 -0.4211
60094SOL    HW190212   2.735   9.625  11.992 -0.3709  0.5898 -1.1481
60094SOL    HW290213   2.864   9.700  12.017 -0.3850  0.3636 -0.3871
60095SOL     OW90214   8.620   9.371   4.449  0.0243 -0.7617  0.3367
60095SOL    HW190215   8.693   9.417   4.491 -0.3786  1.9918 -1.7168
60095SOL    HW290216   8.561   9.350   4.522  1.7667 -1.0184  1.7566
60096SOL     OW90217   4.728   9.226   4.071  0.0517 -0.6969 -0.0187
60096SOL    HW190218   4.815   9.215   4.032  0.3676  0.6877  0.2384
60096SOL    HW290219   4.669   9.182   4.010  0.7461 -0.1632 -1.1294
60097SOL     OW90220   1.494  10.128   8.162 -0.3367 -0.5969 -0.0278
60097SOL    HW190221   1.420  10.068   8.163  0.3244 -1.4396 -0.1356
60097SOL    HW290222   1.552  10.097   8.232 -0.1584  0.1579  0.1769
60098SOL     OW90223   7.221   5.945  11.011  0.1019  0.0324  0.0429
60098SOL    HW190224   7.211   5.965  10.918 -0.2697  0.7681  0.2353
60098SOL    HW290225   7.316   5.941  11.024  0.1656  0.4028 -0.2749
60099SOL     OW90226  13.176  11.564  12.261 -0.2857 -0.0922 -0.2627
60099SOL    HW190227  13.121  11.570  12.339  0.1521  1.0823 -0.0253
60099SOL    HW290228  13.261  11.599  12.288  0.6431 -1.9278 -0.6012
60100SOL     OW90229  11.685   8.513   9.906  0.1008 -0.0883  0.0016
60100SOL    HW190230  11.748   8.584   9.912 -0.1120  0.0513  0.5975
60100SOL    HW290231  11.721   8.454   9.840  0.0083  0.8502 -0.9228
60101SOL     OW90232  12.793  12.466   6.758  0.6147  0.1544  0.3284
60101SOL    HW190233  12.834  12.390   6.716  1.8843  0.7979  0.3622
60101SOL    HW290234  12.861  12.533   6.757 -0.5578  1.3662  0.1096
60102SOL     OW90235  11.966   1.232   9.963  0.3300 -0.0753  0.0028
60102SOL    HW190236  11.938   1.149  10.000  1.0110 -0.0867  0.5097
60102SOL    HW290237  11.947   1.224   9.869  0.2500 -0.7369  0.0693
60103SOL     OW90238  11.944   1.069   2.840 -0.3905  0.0263  0.6082
60103SOL    HW190239  11.916   1.161   2.841  1.6963  0.7775 -1.6003
60103SOL    HW290240  11.928   1.040   2.750  0.0485 -1.4510  0.9720
60104SOL     OW90241   8.468   6.812  10.740  0.3167  0.3543  0.5694
60104SOL    HW190242   8.558   6.810  10.770  0.1526 -1.5908  1.0362
60104SOL    HW290243   8.472   6.782  10.649  0.2432  1.3001  0.2436
60105SOL     OW90244  10.005   2.763   2.517  0.5345  0.1253  0.6771
60105SOL    HW190245   9.931   2.820   2.497  0.1895  0.3664  2.4716
60105SOL    HW290246  10.063   2.771   2.440  0.0680  2.1798  0.4727
60106SOL     OW90247   2.076   2.925   8.408 -0.3388  0.9539 -0.5927
60106SOL    HW190248   2.034   3.005   8.439  0.4387  1.5501 -1.0554
60106SOL    HW290249   2.068   2.864   8.482  0.3353  1.9261  0.3099
60107SOL     OW90250  10.088  11.559   1.300 -0.3501  0.3109  0.2220
60107SOL    HW190251  10.022  11.491   1.312  0.7620 -0.3904  3.2923
60107SOL    HW290252  10.042  11.631   1.257 -2.2597 -1.3130 -0.6129
60108SOL     OW90253   1.934   2.438   9.761 -0.3236 -0.3025  0.2636
60108SOL    HW190254   1.957   2.505   9.696 -0.6876 -0.2107  0.2317
60108SOL    HW290255   1.865   2.387   9.720 -0.3567 -0.4228  0.4688
60109SOL     OW90256   3.527   1.977   3.571 -0.4773  0.7138  0.3502
60109SOL    HW190257   3.601   1.996   3.512  0.0806 -3.0427 -0.4245
60109SOL    HW290258   3.454   2.026   3.534  0.2287 -0.2557 -2.6996
60110SOL     OW90259   8.519   9.314  10.374 -0.2756  0.6594 -0.5741
60110SOL    HW190260   8.612   9.320  10.396 -0.1030  1.1866 -1.3886
60110SOL    HW290261   8.502   9.220  10.369  0.1126  0.5553 -0.0205
60111SOL     OW90262  11.909   8.503  10.940 -0.4082  0.2375 -0.4766
60111SOL    HW190263  11.985   8.454  10.909 -0.3370  0.6027 -0.8841
60111SOL    HW290264  11.839   8.478  10.880 -0.2204  1.1026 -1.0701
60112SOL     OW90265   9.941   2.455   4.042  0.4282  0.1489  0.5402
60112SOL    HW190266  10.022   2.468   3.993  1.4576  1.2302  2.3619
60112SOL    HW290267   9.967   2.404   4.119 -1.3029 -2.3503 -0.4167
60113SOL     OW90268   8.692  12.927  11.189  0.2859 -0.9481  0.3673
60113SOL    HW190269   8.731  12.876  11.118 -0.7535  0.8036 -1.5590
60113SOL    HW290270   8.736  13.012  11.185 -3.1282  0.9328 -1.5732
60114SOL     OW90271   4.371   5.493   2.527  0.2617 -0.1075 -0.4047
60114SOL    HW190272   4.313   5.417   2.529 -0.9455  0.8006  0.2413
60114SOL    HW290273   4.457   5.458   2.548 -0.5755 -1.0588  1.7646
60115SOL     OW90274   0.593   0.796   3.020  0.4783 -0.0829  0.6765
60115SOL    HW190275   0.651   0.804   2.944  0.7311 -0.1770  0.8559
60115SOL    HW290276   0.548   0.712   3.007 -0.5629  0.5798 -0.1043
60116SOL     OW90277  13.022   6.589  11.784  0.7271 -0.1544 -0.2289
60116SOL    HW190278  13.064   6.608  11.868 -0.4899 -1.2051  0.6398
60116SOL    HW290279  12.940   6.639  11.786  0.6773 -0.2077 -0.7815
60117SOL     OW90280   2.758   7.168   8.917 -0.0071  0.5113 -0.3512
60117SOL    HW190281   2.738   7.154   8.825 -1.6287 -0.4313  0.1082
60117SOL    HW290282   2.677   7.148   8.963  0.6678  1.2822  1.2716
60118SOL     OW90283   5.945  10.374   7.701  0.5231  0.0876  0.2089
60118SOL    HW190284   5.968  10.284   7.721 -0.4212 -0.2532 -0.2045
60118SOL    HW290285   5.983  10.390   7.615  0.6605  0.0770  0.2670
60119SOL     OW90286   3.588   8.086   5.610 -0.0540 -0.2533 -0.1425
60119SOL    HW190287   3.541   8.144   5.670 -1.3794 -0.9760 -0.4179
60119SOL    HW290288   3.678   8.088   5.640  0.0545  2.2874 -0.4460
60120SOL     OW90289   0.218   9.367   1.481  0.5828 -0.2575  0.3441
60120SOL    HW190290   0.142   9.368   1.538  1.1512  0.0454  1.1014
60120SOL    HW290291   0.223   9.276   1.450 -0.5265 -0.1056 -0.3289
60121SOL     OW90292   7.327   7.330   2.295 -0.5577 -0.5265 -0.7853
60121SOL    HW190293   7.257   7.285   2.341 -0.5033  0.4913  0.3383
60121SOL    HW290294   7.298   7.421   2.290  0.5359 -0.1496 -0.5515
60122SOL     OW90295  11.416   7.722   0.372 -0.0392  0.2595  0.4521
60122SOL    HW190296  11.353   7.788   0.342 -1.5091 -0.6187  1.4373
60122SOL    HW290297  11.451   7.757   0.454 -0.6842 -0.0720  0.8812
60123SOL     OW90298   7.544  12.597   7.911  0.1391  0.2440  0.3571
60123SOL    HW190299   7.574  12.613   7.822 -2.1142 -1.7818 -0.8887
60123SOL    HW290300   7.490  12.519   7.905 -0.0777 -0.0073  3.5480
60124SOL     OW90301   2.820   4.809   3.213 -0.0057  0.1927  0.4666
60124SOL    HW190302   2.767   4.816   3.292  1.7791  1.4018  1.6115
60124SOL    HW290303   2.810   4.717   3.186 -1.7259  0.1052  1.2719
60125SOL     OW90304   6.212   9.844   1.250 -0.2058  0.2864 -0.0593
60125SOL    HW190305   6.169   9.815   1.331 -0.5503 -0.4188 -0.4895
60125SOL    HW290306   6.287   9.896   1.281 -0.9004  0.8558  0.6935
60126SOL     OW90307  11.312   1.742   4.970 -0.8951  0.5026  0.4593
60126SOL    HW190308  11.343   1.783   5.051 -1.0528 -0.8140  1.2260
60126SOL    HW290309  11.270   1.661   4.999 -0.7941 -0.0941 -0.9565
60127SOL     OW90310  11.453   5.129   1.364 -0.1968 -0.0675 -0.0440
60127SOL    HW190311  11.471   5.216   1.327 -0.0048  0.2262  0.7177
60127SOL    HW290312  11.472   5.068   1.293 -0.6267  0.5315 -0.6876
60128SOL     OW90313   9.642   9.326   4.935  0.4407  0.0259  0.5481
60128SOL    HW190314   9.720   9.343   4.987  0.4711  0.1132  0.4747
60128SOL    HW290315   9.639   9.230   4.927  0.5928  0.0268  0.4730
60129SOL     OW90316   5.760  11.901  10.755  0.2681  0.4998  0.0344
60129SOL    HW190317   5.764  11.981  10.807 -3.6739  0.1673  1.2155
60129SOL    HW290318   5.730  11.834  10.816  0.5170 -1.1595 -1.5773
60130SOL     OW90319   3.637  10.327  10.218 -0.1179 -0.1636  0.3725
60130SOL    HW190320   3.650  10.387  10.145  0.3336 -1.0520 -0.2881
60130SOL    HW290321   3.718  10.332  10.269  0.3524 -0.9826 -0.2679
60131SOL     OW90322  12.830   7.671   3.896  0.4102 -0.1439  0.0430
60131SOL    HW190323  12.905   7.642   3.845  1.2187  1.3751  0.2982
60131SOL    HW290324  12.857   7.659   3.987  0.6279  1.0341  0.1456
60132SOL     OW90325   4.971   2.499   4.294 -0.0673 -0.1784 -0.3942
60132SOL    HW190326   4.920   2.433   4.247  0.3866 -0.4506 -0.5068
60132SOL    HW290327   4.906   2.560   4.327 -0.6180 -1.2689  0.6402
60133SOL     OW90328   9.584   2.138  12.402  0.6105  0.1697 -0.4111
60133SOL    HW190329   9.508   2.087  12.375  0.0920  0.5035  0.3629
60133SOL    HW290330   9.548   2.225  12.423  0.8177 -0.2759  2.0681
60134SOL     OW90331  10.663  10.273  11.278  0.5672  0.2856 -0.2492
60134SOL    HW190332  10.634  10.205  11.338 -1.0305 -0.3595 -1.6517
60134SOL    HW290333  10.724  10.229  11.219  0.5554  0.3971 -0.3455
60135SOL     OW90334   9.247   3.123   1.559 -0.0441 -0.2491  0.5518
60135SOL    HW190335   9.165   3.090   1.594 -1.4082  0.3067 -1.8810
60135SOL    HW290336   9.310   3.052   1.574 -1.7244 -1.9935 -0.2456
60136SOL     OW90337   2.058   4.247   5.078  0.0645 -0.1739 -0.2252
60136SOL    HW190338   2.016   4.171   5.039 -0.6749 -0.6134  1.3463
60136SOL    HW290339   2.007   4.265   5.157  1.7748  0.3534  0.8207
60137SOL     OW90340  11.821   4.524  10.040  0.6999 -0.1967 -0.1004
60137SOL    HW190341  11.816   4.574   9.959  1.9569  0.1421  0.0144
60137SOL    HW290342  11.802   4.434  10.014 -0.0281  0.0847 -0.5741
60138SOL     OW90343   4.596  12.295   9.984 -0.2295  0.3027 -0.5892
60138SOL    HW190344   4.641  12.374  10.014  0.7396  0.3658 -2.1105
60138SOL    HW290345   4.503  12.315   9.995  0.0432  0.8116  1.0364
60139SOL     OW90346  12.792   9.478   4.177 -0.0491 -0.3513 -0.1189
60139SOL    HW190347  12.801   9.555   4.234 -0.6847 -1.1254  1.0714
60139SOL    HW290348  12.748   9.413   4.231 -1.1008 -0.9789 -1.6573
60140SOL     OW90349   6.487  13.136  11.378  0.9183  0.5972  0.9323
60140SOL    HW190350   6.520  13.104  11.294 -1.1652  0.1198  0.2222
60140SOL    HW290351   6.508  13.066  11.440  0.3639 -0.1658  0.2925
60141SOL     OW90352   5.151   6.317   8.496  0.0620 -0.5087 -0.2892
60141SOL    HW190353   5.200   6.256   8.440  1.4825 -0.2116  0.5720
60141SOL    HW290354   5.134   6.393   8.439  0.8225 -0.5200 -0.5519
60142SOL     OW90355   1.226  12.313   4.006 -1.0809 -0.3360 -0.1795
60142SOL    HW190356   1.238  12.336   3.914  0.4245 -3.8050 -1.0036
60142SOL    HW290357   1.153  12.251   4.006 -0.6116 -0.9187  0.8378
60143SOL     OW90358   1.972   7.598   5.944 -0.4554 -0.7275 -0.2680
60143SOL    HW190359   1.881   7.570   5.932 -0.6349 -0.5930  0.6836
60143SOL    HW290360   1.968   7.694   5.940  0.0488 -0.7328 -2.7785
60144SOL     OW90361   7.942   9.327   4.008 -0.2836  1.0314 -0.3920
60144SOL    HW190362   8.014   9.374   4.050  0.0977  0.1182  0.0038
60144SOL    HW290363   7.864   9.355   4.055 -0.0139  0.9982  0.0850
60145SOL     OW90364   4.382   5.034  12.618 -0.4285  0.2896 -0.1532
60145SOL    HW190365   4.341   4.958  12.576  0.0873 -1.1665  1.8183
60145SOL    HW290366   4.310   5.078  12.663 -0.2753 -0.8730  1.2929
60146SOL     OW90367  11.164   1.392   0.463 -0.6401 -0.0243 -1.2063
60146SOL    HW190368  11.219   1.464   0.433 -0.2907 -0.3552 -1.3664
60146SOL    HW290369  11.225   1.328   0.499 -1.0626  0.6623  0.9188
60147SOL     OW90370   8.395   0.344   5.883 -0.0172  0.3080 -0.2769
60147SOL    HW190371   8.318   0.400   5.878  0.1268  0.5917  0.6625
60147SOL    HW290372   8.390   0.302   5.968  0.7935  0.2167 -0.2638
60148SOL     OW90373   4.604   6.034   8.817 -0.4933  0.5912 -0.1539
60148SOL    HW190374   4.571   6.079   8.894 -0.8681  1.6580 -0.9066
60148SOL    HW290375   4.539   5.967   8.798  0.8819 -1.4736  1.9479
60149SOL     OW90376   5.265   0.673   7.778  0.1827  0.2206 -0.7463
60149SOL    HW190377   5.244   0.725   7.700 -0.0716  0.6840 -0.3803
60149SOL    HW290378   5.185   0.623   7.795  0.9009 -1.4045 -1.9280
60150SOL     OW90379   2.710   2.313   1.658 -0.3119  0.0095 -0.1068
60150SOL    HW190380   2.630   2.339   1.704 -0.5725 -0.5790 -0.2172
60150SOL    HW290381   2.704   2.218   1.651  0.5842 -0.0831  0.2232
60151SOL     OW90382   7.270   9.902  10.999  0.4359  0.5509  0.1408
60151SOL    HW190383   7.333   9.834  10.974 -0.5105 -0.2753 -0.0900
60151SOL    HW290384   7.286   9.974  10.938  0.3820 -0.1253 -0.6924
60152SOL     OW90385   1.997   4.508   1.364 -0.1350  0.0929 -0.1601
60152SOL    HW190386   2.047   4.467   1.293  2.9235  0.6372  1.5228
60152SOL    HW290387   1.980   4.437   1.426 -0.9385  0.0348 -0.4408
60153SOL     OW90388   9.936   1.053   2.351 -0.9551 -0.1624 -0.2125
60153SOL    HW190389   9.964   0.962   2.354  0.3563  0.1206 -2.1900
60153SOL    HW290390   9.875   1.058   2.277 -2.6724  0.1938  1.1560
60154SOL     OW90391   8.268   0.959   0.612  0.0988  0.0600  0.1862
60154SOL    HW190392   8.191   0.975   0.666  0.3739  1.2536  0.2509
60154SOL    HW290393   8.246   0.995   0.526  0.5669  0.3703  0.1916
60155SOL     OW90394   6.514   3.697   9.615  0.1338 -0.0362  0.0855
60155SOL    HW190395   6.478   3.609   9.625 -0.3700  0.1686  0.0781
60155SOL    HW290396   6.483   3.726   9.530  0.5245  0.0488 -0.0312
60156SOL     OW90397   5.053   2.064   7.957  0.1579  0.4515  0.3824
60156SOL    HW190398   5.090   2.007   8.024 -1.3286 -0.3815  0.5111
60156SOL    HW290399   5.044   2.149   8.000  0.1147  0.1695  0.9301
60157SOL     OW90400  11.824   4.649   3.517  0.3234  0.4357  0.5859
60157SOL    HW190401  11.920   4.653   3.510  0.3938  0.5035  1.4100
60157SOL    HW290402  11.808   4.594   3.594 -0.2980  0.4944  0.5044
60158SOL     OW90403  11.600   1.065   9.728  0.5399  0.3523  0.3387
60158SOL    HW190404  11.575   1.016   9.806 -1.2630  0.2533 -0.2569
60158SOL    HW290405  11.520   1.111   9.702  1.3642  1.1442 -0.8942
60159SOL     OW90406  12.659  12.859   3.817  0.2734 -0.0578  0.0658
60159SOL    HW190407  12.580  12.909   3.797 -0.8313 -1.8233 -0.1701
60159SOL    HW290408  12.630  12.792   3.878  1.6228 -0.7013  0.0359
60160SOL     OW90409  11.461   7.680   1.807  0.0002  0.6979  0.5105
60160SOL    HW190410  11.512   7.625   1.867 -0.7805  0.6440  1.1435
60160SOL    HW290411  11.373   7.642   1.809  0.0647  0.3857 -1.0787
60161SOL     OW90412   4.549   2.998   2.719  0.2287 -0.5765  0.0174
60161SOL    HW190413   4.595   2.924   2.758  0.1991 -1.9693 -2.3887
60161SOL    HW290414   4.614   3.039   2.661 -0.3601 -0.0216 -0.2660
60162SOL     OW90415   7.156  11.595   3.260 -0.7622  0.0418  0.1961
60162SOL    HW190416   7.099  11.662   3.222 -1.4439  0.5930  2.0696
60162SOL    HW290417   7.228  11.643   3.299 -0.8436 -0.3605  0.8686
60163SOL     OW90418  11.998   7.768   9.811 -0.7895  0.3423 -0.5027
60163SOL    HW190419  12.093   7.779   9.807 -0.8273  0.4767 -3.3143
60163SOL    HW290420  11.967   7.840   9.866  0.6497  1.0539 -0.6053
60164SOL     OW90421   3.363   1.234   2.998  0.3902  0.2663 -0.3610
60164SOL    HW190422   3.383   1.158   2.944 -0.3356  0.3424 -0.7542
60164SOL    HW290423   3.274   1.217   3.031 -1.2962  2.4557 -3.2692
60165SOL     OW90424  12.558  12.169   5.164 -0.2092 -0.0329 -0.4890
60165SOL    HW190425  12.585  12.222   5.239  0.0426 -0.4110 -0.3119
60165SOL    HW290426  12.636  12.120   5.139 -0.5272 -0.5670 -0.4441
60166SOL     OW90427   2.347  10.361   4.512  0.2318 -0.1389 -0.0853
60166SOL    HW190428   2.316  10.313   4.435  1.9412 -1.1095 -0.2178
60166SOL    HW290429   2.377  10.445   4.477 -1.8840  0.7385  0.0165
60167SOL     OW90430   5.645  12.676  11.554  0.1397  0.0242  0.3315
60167SOL    HW190431   5.715  12.621  11.519  1.3390  0.9269  1.2376
60167SOL    HW290432   5.648  12.660  11.649 -1.0441 -0.1000  0.3598
60168SOL     OW90433   5.037   7.196   2.088  0.4068  0.2925  0.0450
60168SOL    HW190434   5.121   7.188   2.042  0.0741  1.9590 -0.9291
60168SOL    HW290435   5.059   7.234   2.173  0.6183  1.1898 -0.3975
60169SOL     OW90436  11.397   7.999  10.465  0.3121  0.2302 -0.1072
60169SOL    HW190437  11.480   7.976  10.505  0.0386  1.1920  1.0789
60169SOL    HW290438  11.387   8.092  10.484 -1.5573 -0.1129  0.7427
60170SOL     OW90439  12.506  11.711   5.322 -0.0439 -0.0023  0.0199
60170SOL    HW190440  12.472  11.799   5.306  1.2724  0.4579 -0.3569
60170SOL    HW290441  12.591  11.710   5.279  0.5576 -1.0217  1.1810
60171SOL     OW90442   9.474   8.855   8.449 -0.1555 -0.2339 -0.9730
60171SOL    HW190443   9.439   8.870   8.536 -0.0595 -0.6153 -0.8674
60171SOL    HW290444   9.419   8.784   8.413  0.6840 -1.0471 -0.6938
60172SOL     OW90445   2.975   9.269   1.446  0.1184  0.3715 -0.1411
60172SOL    HW190446   3.028   9.209   1.393 -0.7252  0.0164 -0.5902
60172SOL    HW290447   3.032   9.346   1.459  0.5243  0.2476 -1.1196
60173SOL     OW90448   1.982  12.037   4.373  0.1818  0.1954  0.2331
60173SOL    HW190449   1.897  11.996   4.357  0.0402  0.2827  0.7302
60173SOL    HW290450   1.968  12.092   4.450  1.0187 -0.7906  1.1125
60174SOL     OW90451  11.609   6.104  10.781 -0.3302 -0.4203 -0.2739
60174SOL    HW190452  11.598   6.104  10.686 -0.3118 -0.1397 -0.2769
60174SOL    HW290453  11.622   6.011  10.803 -0.4259 -0.4982 -0.5330
60175SOL     OW90454  10.178  10.457   3.917  0.3779 -0.0515 -0.3671
60175SOL    HW190455  10.206  10.505   3.839  0.0468 -0.5655 -0.8056
60175SOL    HW290456  10.084  10.471   3.921  0.3703 -0.1608 -0.1457
60176SOL     OW90457   1.186  12.858  10.606 -0.1977 -0.3407  0.0738
60176SOL    HW190458   1.207  12.929  10.667  0.4539 -0.0571 -0.4783
60176SOL    HW290459   1.268  12.811  10.594 -0.4023 -0.5939 -0.3416
60177SOL     OW90460   2.871   6.736  10.880  0.0890 -0.1190  0.4670
60177SOL    HW190461   2.813   6.771  10.948  1.9499  2.8524  0.7056
60177SOL    HW290462   2.944   6.697  10.929  0.8923  1.0482  0.2489
60178SOL     OW90463   8.008   1.902   1.565  0.5996  0.1466 -0.4129
60178SOL    HW190464   8.098   1.927   1.589  0.3878 -0.3233  0.9638
60178SOL    HW290465   7.956   1.981   1.578  0.5552 -0.0000  0.3556
60179SOL     OW90466   4.317  11.337  13.016  0.1308 -0.0225  0.0515
60179SOL    HW190467   4.249  11.391  12.976  0.7722 -0.2667 -1.4271
60179SOL    HW290468   4.338  11.271  12.950  2.3629  0.5201  0.1256
60180SOL     OW90469   0.187   1.106   0.789  0.2972  0.2094  0.4128
60180SOL    HW190470   0.208   1.171   0.722  0.4584 -1.1231 -0.8908
60180SOL    HW290471   0.095   1.084   0.773  0.8977 -1.6853 -0.8660
60181SOL     OW90472   9.309   9.948   1.131 -0.2759 -0.3525 -0.2507
60181SOL    HW190473   9.350  10.024   1.091 -0.4312 -0.4377 -0.5760
60181SOL    HW290474   9.361   9.931   1.209  2.1578 -2.1947 -2.0960
60182SOL     OW90475   1.958   0.942   9.346 -0.2541  0.2492  0.6355
60182SOL    HW190476   1.891   0.980   9.403 -0.1420  0.0338  0.9126
60182SOL    HW290477   1.961   0.850   9.371  0.8099  0.4385  1.2961
60183SOL     OW90478   5.067   1.705   2.494 -0.2805  0.6155 -0.1135
60183SOL    HW190479   5.056   1.613   2.470 -0.1447 -0.4226  3.2829
60183SOL    HW290480   5.158   1.725   2.472 -0.3792  0.0359 -1.0805
60184SOL     OW90481   1.269   1.231   3.954 -0.0702 -0.3029 -0.0203
60184SOL    HW190482   1.276   1.320   3.920  1.0836  0.1882  1.3899
60184SOL    HW290483   1.198   1.235   4.018  1.0478  0.0509  1.2431
60185SOL     OW90484   9.327   9.286  13.199 -0.4543 -1.5535 -0.0649
60185SOL    HW190485   9.245   9.264  13.242  0.1462 -0.9371  1.4795
60185SOL    HW290486   9.304   9.351  13.133 -1.0475 -0.1642  1.4309
60186SOL     OW90487   8.648   8.825   9.781  0.5996 -0.5522 -0.3124
60186SOL    HW190488   8.569   8.802   9.732 -0.1659 -1.5459  1.3260
60186SOL    HW290489   8.632   8.914   9.811 -0.1263 -0.9203  0.4197
60187SOL     OW90490   2.616   9.874  11.878 -0.2113  0.0723  0.1170
60187SOL    HW190491   2.630   9.813  11.951  0.3097  0.4485  0.3366
60187SOL    HW290492   2.625   9.960  11.918  0.7220  0.2768 -0.5253
60188SOL     OW90493   2.033   1.498   0.072 -0.2786 -0.4358 -0.4688
60188SOL    HW190494   2.026   1.470   0.164 -0.6412 -0.5181 -0.5179
60188SOL    HW290495   1.943   1.518   0.047 -0.1245  0.0138 -0.6747
60189SOL     OW90496   2.303   8.324   2.055 -0.3603  1.0231 -0.3400
60189SOL    HW190497   2.325   8.232   2.069 -2.5171  0.7691  2.3296
60189SOL    HW290498   2.213   8.322   2.022 -0.0625  2.1956 -1.3032
60190SOL     OW90499   0.532   8.800   3.992  0.5119 -0.0761 -0.7469
60190SOL    HW190500   0.524   8.707   4.012  2.1603 -0.5152 -1.9181
60190SOL    HW290501   0.543   8.804   3.897 -1.5791  1.5100 -1.0107
60191SOL     OW90502   8.395   1.501   3.245  0.2125 -0.2271 -0.4725
60191SOL    HW190503   8.363   1.435   3.306  1.6183  0.7656  1.4653
60191SOL    HW290504   8.473   1.537   3.288  1.2747  0.5505 -2.8838
60192SOL     OW90505  12.097   3.760   8.131 -0.2009 -0.1397 -0.1998
60192SOL    HW190506  12.079   3.797   8.044  0.8988 -2.0275 -1.3071
60192SOL    HW290507  12.047   3.679   8.134  1.6126 -1.3231 -0.1046
60193SOL     OW90508   9.813   0.365   5.671  0.2501  0.2067  0.2116
60193SOL    HW190509   9.905   0.390   5.666  0.3448 -0.0464  0.6664
60193SOL    HW290510   9.802   0.299   5.602  0.3399  0.4435 -0.0308
60194SOL     OW90511   1.233   5.803   8.638 -0.3977  0.1584 -0.2076
60194SOL    HW190512   1.230   5.753   8.557 -0.5813  1.8648 -1.2884
60194SOL    HW290513   1.284   5.882   8.617 -4.3636  3.0416 -0.1436
60195SOL     OW90514   5.707  12.437   4.010 -0.1207 -0.0365 -0.6130
60195SOL    HW190515   5.653  12.359   4.022  0.0104  0.0323  0.5932
60195SOL    HW290516   5.769  12.413   3.941  0.4798 -1.3322  0.3183
60196SOL     OW90517   9.713   1.423  12.862 -0.6101 -0.3737 -0.3824
60196SOL    HW190518   9.751   1.371  12.932 -0.0822 -0.4641 -0.7337
60196SOL    HW290519   9.705   1.511  12.899 -1.2793 -0.6421  0.1295
60197SOL     OW90520   5.552   6.754  12.304  0.0870  0.1454 -0.1489
60197SOL    HW190521   5.521   6.681  12.251 -0.8202  0.9028 -0.6993
60197SOL    HW290522   5.488   6.762  12.375 -0.1983  0.8089 -0.4678
60198SOL     OW90523   7.357   6.350   9.551  0.0046  0.5850  0.2087
60198SOL    HW190524   7.422   6.420   9.561  1.2178 -0.2059 -1.5799
60198SOL    HW290525   7.273   6.396   9.556  0.6686  1.6807  2.2436
60199SOL     OW90526   0.444   8.515  10.755  0.2367  0.1977  0.5677
60199SOL    HW190527   0.419   8.481  10.841  1.2281 -0.6236  0.5617
60199SOL    HW290528   0.377   8.481  10.695  0.4316 -0.5989  0.7828
60200SOL     OW90529  11.661   1.317   9.970 -0.8224  0.2293 -0.1921
60200SOL    HW190530  11.752   1.289   9.967 -0.0268  2.4375  0.9401
60200SOL    HW290531  11.647   1.360   9.886 -1.1713 -1.0139 -0.7873
60201SOL     OW90532  12.957  10.047  10.358  0.2905  0.6164 -0.2128
60201SOL    HW190533  12.996   9.963  10.382 -1.0862 -0.0164 -0.0857
60201SOL    HW290534  12.955  10.045  10.262 -2.3081 -0.8011 -0.2220
60202SOL     OW90535  11.489   3.225   6.405  0.0538  0.4632 -0.6560
60202SOL    HW190536  11.408   3.267   6.376  0.1204 -0.2121 -1.8811
60202SOL    HW290537  11.509   3.161   6.336 -0.1751 -1.7732  1.2261
60203SOL     OW90538   0.081   8.913   3.615 -0.4480 -0.4382  0.6713
60203SOL    HW190539   0.141   8.915   3.689  0.3119 -2.1767  0.1615
60203SOL    HW290540   0.136   8.929   3.539 -1.1578  0.9394  0.4225
60204SOL     OW90541   4.993   9.043   1.734 -0.1848 -0.1853  0.0079
60204SOL    HW190542   5.069   8.998   1.770 -0.1550 -0.9266 -0.9257
60204SOL    HW290543   5.029   9.115   1.682 -0.2281  0.8874  1.4161
60205SOL     OW90544   9.304   4.934  10.339 -0.3016  0.1584  0.2931
60205SOL    HW190545   9.299   4.964  10.248 -1.5315  3.1577  1.2194
60205SOL    HW290546   9.392   4.958  10.367  0.2749 -1.2685 -0.2019
60206SOL     OW90547   2.475   3.719  13.227 -0.3644  0.7533 -0.1038
60206SOL    HW190548   2.495   3.635  13.186 -3.6166  0.9173 -2.4259
60206SOL    HW290549   2.554   3.772  13.215  0.5578 -0.8897 -1.6898
60207SOL     OW90550   2.604   9.712   9.849 -0.0499  0.0760 -0.0691
60207SOL    HW190551   2.688   9.754   9.867  0.6169 -0.9267 -0.7441
60207SOL    HW290552   2.600   9.639   9.911 -0.5547  0.2712  0.1353
60208SOL     OW90553  11.328   2.557   8.645  0.2199  0.3198  0.6507
60208SOL    HW190554  11.386   2.609   8.590  0.7786 -1.1114 -0.1660
60208SOL    HW290555  11.379   2.479   8.667 -1.6774 -1.5343 -1.0206
60209SOL     OW90556   6.253  13.096   5.172  0.2198 -0.2761  0.0357
60209SOL    HW190557   6.208  13.017   5.143  1.9763 -2.0791  1.9150
60209SOL    HW290558   6.313  13.117   5.101 -1.1316  0.1580 -1.0137
60210SOL     OW90559  11.338   9.474   0.335 -0.6231 -0.7360  0.1095
60210SOL    HW190560  11.328   9.535   0.262 -0.1722 -0.1787  0.5014
60210SOL    HW290561  11.324   9.528   0.413  1.5147 -0.7272  0.5343
60211SOL     OW90562   9.114   9.080   5.110  0.2980 -0.0216 -0.0955
60211SOL    HW190563   9.081   9.170   5.112 -0.2369 -0.2087  1.2560
60211SOL    HW290564   9.201   9.086   5.149 -0.4401 -0.2980  1.7119
60212SOL     OW90565   4.382  12.152  11.872 -0.7764  0.6380  0.4148
60212SOL    HW190566   4.356  12.137  11.963  0.4641  1.7668  0.9893
60212SOL    HW290567   4.413  12.067  11.842  0.1459  0.5402  1.5384
60213SOL     OW90568   1.442   1.176   5.724 -0.2816  0.5104 -0.0061
60213SOL    HW190569   1.521   1.161   5.777  0.7756  1.6948 -1.1720
60213SOL    HW290570   1.381   1.109   5.753  1.1361 -0.4216  0.9760
60214SOL     OW90571   0.379   1.723   6.904  0.3410  0.0379 -0.7367
60214SOL    HW190572   0.333   1.708   6.987  0.3447  3.1487 -0.0366
60214SOL    HW290573   0.311   1.713   6.837 -0.9730  2.3646  0.1102
60215SOL     OW90574   8.076  11.920   8.664 -0.0112  0.1562  0.2099
60215SOL    HW190575   7.998  11.890   8.618  0.6485  0.5506 -1.2201
60215SOL    HW290576   8.046  11.941   8.752 -1.4610  0.0908 -0.2550
60216SOL     OW90577   8.897   5.121  11.899 -0.3951  0.2489 -0.1614
60216SOL    HW190578   8.925   5.178  11.827  0.5861  2.4848  1.8650
60216SOL    HW290579   8.969   5.123  11.961 -1.1303 -1.7830  0.8464
60217SOL     OW90580  13.028   9.005   0.604 -0.2472  0.3234 -0.4046
60217SOL    HW190581  13.052   8.913   0.597  3.3212  1.0839 -0.2305
60217SOL    HW290582  12.966   9.019   0.533  1.2445 -1.6543 -2.2201
60218SOL     OW90583  10.453   0.882   5.248  0.1964  0.1226  0.3248
60218SOL    HW190584  10.430   0.913   5.335 -0.6512 -0.2312  0.2352
60218SOL    HW290585  10.539   0.920   5.231  0.9377 -0.7859  1.8130
60219SOL     OW90586   4.266   1.693   0.731 -0.6318 -0.0133  0.1800
60219SOL    HW190587   4.202   1.695   0.660 -1.0340 -0.2693  0.5304
60219SOL    HW290588   4.257   1.777   0.774 -0.7313 -0.0496  0.2294
60220SOL     OW90589  12.480  10.602   9.071  0.3477 -0.2293  0.1815
60220SOL    HW190590  12.416  10.658   9.115  0.7947  0.1488  0.3715
60220SOL    HW290591  12.445  10.514   9.079 -1.6367  0.2400 -2.3167
60221SOL     OW90592   5.479   2.116   7.635 -0.1718 -0.1439 -0.2147
60221SOL    HW190593   5.551   2.081   7.582  1.0630  0.5956  0.9201
60221SOL    HW290594   5.522   2.158   7.710 -1.5082  4.0041 -1.5206
60222SOL     OW90595   4.664  11.872   7.088  0.5102 -0.3939  0.0416
60222SOL    HW190596   4.612  11.830   7.019  1.4467  1.1813 -1.7284
60222SOL    HW290597   4.754  11.849   7.067  0.8432  0.4261  0.5253
60223SOL     OW90598   4.756   4.995   7.425 -0.2738 -0.2824 -0.9434
60223SOL    HW190599   4.724   5.014   7.513 -1.8350  0.7216 -1.6575
60223SOL    HW290600   4.847   5.022   7.426 -0.3905  0.1297  0.2431
60224SOL     OW90601   4.763  13.020  10.811  0.1985  0.4640 -0.0448
60224SOL    HW190602   4.852  13.038  10.841  0.4305  0.3111 -0.6193
60224SOL    HW290603   4.774  12.985  10.722 -0.2971 -1.3103  0.5468
60225SOL     OW90604   8.640   8.096  11.371 -0.3241  0.3126  0.0220
60225SOL    HW190605   8.604   8.097  11.460  1.9750 -0.0759  1.0263
60225SOL    HW290606   8.695   8.174  11.366 -1.2238  0.9030 -1.4668
60226SOL     OW90607  13.029   1.163   4.567 -0.0999  0.2280  0.2239
60226SOL    HW190608  12.988   1.181   4.482 -0.2954  0.5625  0.3877
60226SOL    HW290609  13.112   1.122   4.545  1.0654  2.6450 -0.2132
60227SOL     OW90610   7.384   9.690   2.102 -0.0411 -0.3883 -0.1289
60227SOL    HW190611   7.330   9.618   2.135  0.1696 -0.8173 -0.6910
60227SOL    HW290612   7.322   9.746   2.054 -0.2319 -0.1081  0.4378
60228SOL     OW90613   6.421   8.045   4.980  0.0604  0.1226  0.3554
60228SOL    HW190614   6.438   8.048   5.074  0.3543 -1.3839  0.3858
60228SOL    HW290615   6.360   7.972   4.970 -1.6799  1.6174 -0.4159
60229SOL     OW90616  12.172   5.263   5.832  0.4899 -0.1604  0.1696
60229SOL    HW190617  12.257   5.297   5.858 -1.4598  4.2373  1.7756
60229SOL    HW290618  12.147   5.316   5.756 -1.2996 -0.3803  0.5505
60230SOL     OW90619   0.163   7.765   9.597  0.1071  0.3967  0.3464
60230SOL    HW190620   0.085   7.721   9.564 -1.6516  2.7701  1.0981
60230SOL    HW290621   0.236   7.713   9.563 -1.7364 -1.1995 -1.4149
60231SOL     OW90622   2.489  12.305   8.438  0.4926  0.2339 -0.4130
60231SOL    HW190623   2.484  12.398   8.463  0.8776  0.3127 -0.6214
60231SOL    HW290624   2.582  12.288   8.428  0.4495 -0.3154  0.1252
60232SOL     OW90625   0.993   5.803   0.074  0.6415  0.1964 -0.6392
60232SOL    HW190626   1.025   5.813  -0.016  0.1647 -1.9112 -1.1105
60232SOL    HW290627   0.989   5.708   0.087 -0.1872  0.4536  1.3029
60233SOL     OW90628   2.253   9.188   6.268 -0.3431  0.1796 -0.3060
60233SOL    HW190629   2.295   9.121   6.215  1.5287  1.6320 -0.7857
60233SOL    HW290630   2.188   9.228   6.210 -0.4784 -0.2708 -0.4690
60234SOL     OW90631   9.323  10.860   2.976  0.7647  0.6867  0.2350
60234SOL    HW190632   9.352  10.769   2.978  0.3471  0.5216 -0.5003
60234SOL    HW290633   9.377  10.904   3.040 -0.7203 -0.5549  2.4816
60235SOL     OW90634   9.207   8.536  10.343  0.0008 -0.3833 -0.1321
60235SOL    HW190635   9.226   8.554  10.435  1.1327  0.2245 -0.4766
60235SOL    HW290636   9.292   8.519  10.304 -0.1092  2.1220 -1.6594
60236SOL     OW90637   0.768   7.995   7.451 -0.0903  0.3108 -0.5460
60236SOL    HW190638   0.720   8.065   7.407  0.7400  1.9217  1.0085
60236SOL    HW290639   0.837   7.971   7.388 -0.4450  0.8031 -1.1396
60237SOL     OW90640  13.084   0.127   6.076  0.1426  0.4862  0.0516
60237SOL    HW190641  13.129   0.046   6.099 -0.2508 -0.6200 -2.7364
60237SOL    HW290642  13.153   0.188   6.052  0.3175 -0.0704 -0.8779
60238SOL     OW90643  12.819  10.155   1.495 -0.2826 -0.3034  0.0762
60238SOL    HW190644  12.883  10.226   1.498 -0.4874 -0.1138  0.0226
60238SOL    HW290645  12.793  10.151   1.403 -0.1310 -0.5723  0.0473
60239SOL     OW90646   8.685  11.738   7.444  0.1998  0.8019 -0.0540
60239SOL    HW190647   8.737  11.779   7.376 -0.3430  1.3161 -0.1655
60239SOL    HW290648   8.594  11.745   7.413  0.1517 -1.6243 -0.7061
60240SOL     OW90649   9.308  10.245   8.466  0.2403  0.3703  0.1659
60240SOL    HW190650   9.278  10.167   8.511 -0.3789 -0.3623 -1.4350
60240SOL    HW290651   9.272  10.318   8.517  4.0533 -0.0721  4.0416
60241SOL     OW90652   2.712  11.076   3.018 -0.0350  0.3069 -0.4677
60241SOL    HW190653   2.708  10.991   3.062 -0.0086  0.1310 -0.7994
60241SOL    HW290654   2.788  11.119   3.058 -0.1175  0.2231 -0.2147
60242SOL     OW90655   5.029   5.082   8.833 -0.3272  0.1186  0.0767
60242SOL    HW190656   5.076   5.031   8.899  0.6172  0.6150 -0.1934
60242SOL    HW290657   4.955   5.120   8.880 -0.8429 -1.2086  0.3610
60243SOL     OW90658   0.132  12.860   3.556 -0.1439  0.6016  0.1451
60243SOL    HW190659   0.176  12.807   3.623  0.5597 -0.2506 -0.9490
60243SOL    HW290660   0.087  12.929   3.605  3.5587  2.4345  1.3475
60244SOL     OW90661  10.092  11.439   5.551 -1.1070  0.4549  0.1880
60244SOL    HW190662  10.021  11.500   5.574  0.5012  2.3657  0.3114
60244SOL    HW290663  10.141  11.428   5.632  0.3561  1.4287 -0.5185
60245SOL     OW90664  12.695   2.310   7.668  0.5442 -0.2313 -0.4036
60245SOL    HW190665  12.700   2.273   7.580 -1.2845 -0.5706 -0.4088
60245SOL    HW290666  12.713   2.236   7.726  3.0009  0.2416 -0.4323
60246SOL     OW90667   5.233   5.879   8.678 -0.0351  0.6025 -0.5652
60246SOL    HW190668   5.272   5.841   8.757  0.2944  0.2065 -0.9129
60246SOL    HW290669   5.304   5.928   8.637 -0.0145  0.2549 -0.9614
60247SOL     OW90670  12.304   8.800   2.656 -0.5935  0.5647 -0.4911
60247SOL    HW190671  12.397   8.799   2.682 -0.4118  0.2717 -1.1331
60247SOL    HW290672  12.264   8.730   2.707 -0.6457  1.2232  0.4081
60248SOL     OW90673   2.844   1.407   5.862 -0.0990 -0.0244 -0.3359
60248SOL    HW190674   2.776   1.360   5.813 -0.6586 -0.5850  0.9220
60248SOL    HW290675   2.807   1.418   5.949  0.4368  1.9082 -0.3044
60249SOL     OW90676  11.290  10.192   3.901  0.1738  0.3191 -0.6080
60249SOL    HW190677  11.306  10.239   3.819 -0.4899  1.0268 -0.3385
60249SOL    HW290678  11.293  10.100   3.876  0.7044  0.5123 -1.2894
60250SOL     OW90679  12.085   9.980   7.456  0.3318 -0.1188  0.1659
60250SOL    HW190680  12.114   9.910   7.397  1.9177  0.1434  0.5719
60250SOL    HW290681  12.063   9.935   7.538  0.8201 -0.2178  0.2488
60251SOL     OW90682   7.373   5.623   5.962  0.2402  0.0037  0.4850
60251SOL    HW190683   7.410   5.712   5.963 -1.2165  0.6349  1.3089
60251SOL    HW290684   7.291   5.631   6.010  0.0688 -1.8060  0.5399
60252SOL     OW90685   4.022   0.219   2.230  0.4539  0.1070  0.6864
60252SOL    HW190686   4.054   0.152   2.168 -0.5140  0.4951 -0.2639
60252SOL    HW290687   4.064   0.300   2.201 -0.9304  0.5239 -0.2557
60253SOL     OW90688  12.503   9.285   7.711 -0.3660 -0.0551  0.4158
60253SOL    HW190689  12.576   9.311   7.767 -1.1399 -1.0074  1.9372
60253SOL    HW290690  12.516   9.335   7.630  2.0964 -0.4106  0.5256
60254SOL     OW90691  10.569   4.144   3.421 -0.7864 -0.4766  0.2445
60254SOL    HW190692  10.585   4.057   3.383 -0.3985 -0.4502  0.3388
60254SOL    HW290693  10.586   4.204   3.349 -0.4343 -0.4480  0.3466
60255SOL     OW90694   7.079   6.238   4.046 -0.1368  0.7914  0.5154
60255SOL    HW190695   7.080   6.328   4.015 -0.8764  0.3135 -0.9839
60255SOL    HW290696   7.018   6.240   4.120  0.2816  1.6173  0.8520
60256SOL     OW90697   1.657   2.787   0.406  0.0044  0.2312 -0.3293
60256SOL    HW190698   1.613   2.702   0.413 -1.9569  1.1200 -0.9328
60256SOL    HW290699   1.694   2.788   0.318 -2.0509  0.8620 -1.2459
60257SOL     OW90700   9.275  10.006   7.759  0.5570  0.0740  0.0781
60257SOL    HW190701   9.270   9.912   7.776 -0.3202  0.0878 -0.0618
60257SOL    HW290702   9.360  10.018   7.717  0.2030 -0.8320 -0.9452
60258SOL     OW90703   4.836   4.196   3.705  0.6295  0.0142 -0.0873
60258SOL    HW190704   4.790   4.211   3.623 -1.0367  0.7660  0.9154
60258SOL    HW290705   4.919   4.155   3.680  1.0918  2.0854 -2.2897
60259SOL     OW90706   9.598   7.481   1.460  0.1935  0.0702 -0.3576
60259SOL    HW190707   9.639   7.517   1.381  1.6588 -1.6145 -0.4466
60259SOL    HW290708   9.599   7.552   1.523  3.0391  0.2246 -0.4812
60260SOL     OW90709   4.052  12.775   5.009  0.1461  0.3663  0.0268
60260SOL    HW190710   4.067  12.706   5.073  0.9947 -1.1149 -1.6497
60260SOL    HW290711   4.109  12.847   5.037  2.1559 -1.0537 -0.1618
60261SOL     OW90712   1.730  12.259  12.583 -0.0866 -0.2053  0.3019
60261SOL    HW190713   1.769  12.257  12.495 -0.4232 -0.0332  0.1490
60261SOL    HW290714   1.648  12.210  12.574 -0.3626  0.2379  0.4075
60262SOL     OW90715   5.101   9.024   6.225  0.3907 -0.6645  0.0022
60262SOL    HW190716   5.043   9.065   6.159  1.1209  0.0325 -0.2231
60262SOL    HW290717   5.108   8.933   6.197  1.4607 -0.1716 -1.4789
60263SOL     OW90718   9.124  12.678   4.898 -0.0354  0.0718  0.5441
60263SOL    HW190719   9.113  12.630   4.816 -2.5291 -0.4459  1.0853
60263SOL    HW290720   9.214  12.710   4.896  0.8422 -2.2613 -1.1085
60264SOL     OW90721   5.291   7.872   0.371 -0.0403 -0.4137  0.3993
60264SOL    HW190722   5.311   7.956   0.330  1.8839 -1.0831 -0.1546
60264SOL    HW290723   5.275   7.813   0.298  0.2712 -0.9017  0.7178
60265SOL     OW90724   5.481  12.977   2.112 -0.0996  0.5023  0.3235
60265SOL    HW190725   5.502  13.038   2.041  1.9550 -1.3747 -0.8255
60265SOL    HW290726   5.505  13.024   2.192  0.1526  1.6832 -0.4192
60266SOL     OW90727   6.249   4.453  12.113  0.0014  0.5896 -0.2735
60266SOL    HW190728   6.183   4.455  12.181  0.8019  1.6535  0.5027
60266SOL    HW290729   6.200   4.460  12.031 -0.9017  0.3122  0.2342
60267SOL     OW90730  13.098  11.348  12.611  0.2261  0.1919  0.0782
60267SOL    HW190731  13.115  11.437  12.642  0.2324  0.4598 -0.6744
60267SOL    HW290732  13.123  11.350  12.518  0.3784 -0.6391  0.0967
60268SOL     OW90733  12.212   0.178   0.945  0.1409  0.0369  0.6843
60268SOL    HW190734  12.304   0.153   0.945 -0.0661 -0.7733 -0.3057
60268SOL    HW290735  12.169   0.114   0.889 -1.3481 -0.7045  2.5632
60269SOL     OW90736   8.046   5.251   2.771  0.3969 -0.0992 -0.3367
60269SOL    HW190737   7.993   5.185   2.817 -0.2732  1.3458  1.0908
60269SOL    HW290738   7.994   5.274   2.694  0.3339 -0.7875 -0.5002
60270SOL     OW90739   2.814  12.982   9.733 -0.3463 -0.1017 -0.2220
60270SOL    HW190740   2.747  12.946   9.791 -1.4759 -0.1047 -1.4841
60270SOL    HW290741   2.867  12.907   9.708 -0.4283 -0.2552  0.0627
60271SOL     OW90742  10.575  13.295   9.362  0.6728 -0.0817  0.3190
60271SOL    HW190743  10.551  13.376   9.315 -0.8444 -0.9044 -0.4266
60271SOL    HW290744  10.632  13.324   9.432  1.1035  1.5055 -0.6269
60272SOL     OW90745   9.440   1.746  13.280 -0.2807 -0.5998  0.6569
60272SOL    HW190746   9.435   1.675  13.217 -0.5200 -1.5168  1.6708
60272SOL    HW290747   9.513   1.722  13.338 -0.4884 -0.1248  1.1301
60273SOL     OW90748   2.071  11.394   0.154  0.2503 -0.3087  0.2023
60273SOL    HW190749   2.109  11.320   0.202  3.1090 -0.3236 -1.7973
60273SOL    HW290750   2.108  11.471   0.196  1.2700 -0.2592 -0.7331
60274SOL     OW90751  11.170   5.889   6.240  0.4841 -0.2448  0.0500
60274SOL    HW190752  11.183   5.865   6.332  0.2012  0.7065  0.3522
60274SOL    HW290753  11.252   5.868   6.197  1.5244  1.5604  1.0277
60275SOL     OW90754  10.599   2.952  12.339 -0.0428  0.1518 -0.0364
60275SOL    HW190755  10.690   2.935  12.365 -0.5414 -0.2260  1.5717
60275SOL    HW290756  10.589   3.047  12.348  0.5163  0.3595 -1.4025
60276SOL     OW90757  13.209  11.524   0.403 -0.0394  0.8391  0.3926
60276SOL    HW190758  13.273  11.552   0.469 -0.0358  2.4822 -0.2515
60276SOL    HW290759  13.259  11.521   0.321 -0.2189 -0.4434  0.3049
60277SOL     OW90760   3.189   1.586  11.952  0.0033  0.1226  0.3211
60277SOL    HW190761   3.166   1.495  11.971 -1.3619  0.5126  0.5993
60277SOL    HW290762   3.258   1.579  11.885 -0.8823 -1.0925 -0.5082
60278SOL     OW90763  12.784   7.761   4.512 -0.0158  0.3443 -0.0640
60278SOL    HW190764  12.811   7.828   4.574  0.7906  0.1385 -0.1696
60278SOL    HW290765  12.731   7.807   4.447  1.1377  1.0396 -0.5477
60279SOL     OW90766   0.119   5.715  11.351  0.3093 -0.3462  0.3622
60279SOL    HW190767   0.089   5.781  11.289  1.5060 -1.3807 -1.4116
60279SOL    HW290768   0.214   5.728  11.357  0.4976 -1.5738  0.3526
60280SOL     OW90769  11.373  13.000  10.720  0.0200 -0.1368 -0.9001
60280SOL    HW190770  11.459  13.040  10.729  0.0179 -0.1855 -0.6420
60280SOL    HW290771  11.390  12.905  10.725  0.0394 -0.1720 -1.6341
60281SOL     OW90772   4.972  10.389  12.341 -0.0022 -0.0421  0.3293
60281SOL    HW190773   4.893  10.441  12.354 -1.5051 -1.7287 -1.5707
60281SOL    HW290774   4.977  10.332  12.418 -0.6113  0.0828  0.4623
60282SOL     OW90775  12.401   1.980   1.214  0.2313  0.0856 -0.0662
60282SOL    HW190776  12.323   1.993   1.268  0.3274 -0.0406  0.1037
60282SOL    HW290777  12.474   2.002   1.272  0.4118 -1.3096  0.2709
60283SOL     OW90778   4.438  12.544   9.851  0.3525  0.8159  0.0475
60283SOL    HW190779   4.520  12.585   9.877  1.4784 -0.6060 -1.1190
60283SOL    HW290780   4.400  12.513   9.933  1.1067  1.2429  0.5700
60284SOL     OW90781   4.193   6.686   1.679 -0.2975 -0.1124 -0.1722
60284SOL    HW190782   4.131   6.715   1.746 -0.4502  1.2702 -0.8713
60284SOL    HW290783   4.274   6.667   1.727 -0.3711  0.9682  0.4038
60285SOL     OW90784   4.730   6.656  11.346  0.0931 -0.1474 -0.2982
60285SOL    HW190785   4.767   6.580  11.392 -0.4656  0.8459  1.9513
60285SOL    HW290786   4.636   6.639  11.343 -0.3195  1.2237  2.0142
60286SOL     OW90787  13.088   2.666   7.009  0.0761  0.3363 -0.1655
60286SOL    HW190788  13.043   2.620   7.080 -0.5176  1.8222  0.4643
60286SOL    HW290789  13.150   2.602   6.975 -2.2638 -1.7461 -0.8830
60287SOL     OW90790   4.232   3.507   3.056  0.0397 -0.0798  0.2546
60287SOL    HW190791   4.182   3.578   3.097 -1.1313  0.0965 -1.3952
60287SOL    HW290792   4.285   3.551   2.990  0.1110 -0.6238 -0.0491
60288SOL     OW90793  12.295   5.013  11.332  0.0505  0.5515  0.1581
60288SOL    HW190794  12.221   4.977  11.382  0.4092  1.4205  1.3886
60288SOL    HW290795  12.254   5.062  11.261 -0.5270  0.1631  0.2182
60289SOL     OW90796   5.766   2.221   9.327 -0.1973  0.4954  0.0748
60289SOL    HW190797   5.850   2.181   9.301 -0.0037  0.5533  0.6086
60289SOL    HW290798   5.727   2.249   9.244 -0.0864 -0.3122 -0.2591
60290SOL     OW90799   7.744   7.307   9.921 -0.4315 -0.3668  0.3891
60290SOL    HW190800   7.698   7.376   9.969 -0.3012 -2.3099  3.6247
60290SOL    HW290801   7.675   7.245   9.897 -0.4546  0.4444 -1.8780
60291SOL     OW90802   1.588   7.309   0.875 -0.1732  0.3465 -0.1113
60291SOL    HW190803   1.542   7.353   0.803  0.4333 -0.3767 -0.9587
60291SOL    HW290804   1.620   7.381   0.929 -0.1722  0.9310 -0.8605
60292SOL     OW90805   0.668   9.793   3.828 -0.7339  0.3797  0.0956
60292SOL    HW190806   0.663   9.743   3.746 -2.1372  0.1868  0.2723
60292SOL    HW290807   0.739   9.753   3.877 -0.2345  0.1482 -0.8014
60293SOL     OW90808  10.752  13.221   7.765 -0.0298  0.4774 -0.2114
60293SOL    HW190809  10.809  13.144   7.759  1.0947  1.3703 -1.9768
60293SOL    HW290810  10.801  13.282   7.821 -0.8916 -0.0264  1.1350
60294SOL     OW90811   8.730   7.530  11.006 -0.1890  0.1511 -0.8385
60294SOL    HW190812   8.746   7.564  10.918 -1.4285  1.6195 -0.5449
60294SOL    HW290813   8.792   7.459  11.016  0.4390  0.3941 -2.6525
60295SOL     OW90814  12.361   7.021   9.779  0.3691 -0.2926 -0.3617
60295SOL    HW190815  12.443   6.975   9.798 -0.3702 -0.8569  1.7604
60295SOL    HW290816  12.328   6.979   9.700  1.6245 -0.7247 -0.6817
60296SOL     OW90817   5.655   2.654   9.444  0.3092  0.0959 -1.0281
60296SOL    HW190818   5.736   2.628   9.400  0.9985  1.7935 -0.8408
60296SOL    HW290819   5.599   2.576   9.439  2.1197 -1.2957 -0.7075
60297SOL     OW90820   4.006  11.999   8.105  0.4238 -0.2575 -0.5051
60297SOL    HW190821   3.942  11.946   8.152 -1.2732 -0.0770 -2.4727
60297SOL    HW290822   4.074  12.017   8.170 -2.3489  1.0553  2.3078
60298SOL     OW90823   3.493   0.039   2.738  0.3809  0.0611 -0.0861
60298SOL    HW190824   3.500  -0.010   2.820 -1.3874 -2.3335 -1.2525
60298SOL    HW290825   3.516  -0.025   2.670 -3.2712  0.3154 -1.7807
60299SOL     OW90826  10.872   4.589  10.545 -0.8815 -0.0467 -0.0217
60299SOL    HW190827  10.814   4.664  10.530 -1.7462 -0.2386  2.1127
60299SOL    HW290828  10.882   4.585  10.640  2.2069 -0.3807 -0.2838
60300SOL     OW90829   7.539   1.099   1.345  0.2437  0.3143  0.1352
60300SOL    HW190830   7.521   1.170   1.407 -0.0328  1.8126 -1.5983
60300SOL    HW290831   7.626   1.119   1.310 -0.1590  0.2640 -0.9324
60301SOL     OW90832   3.386   8.004   9.006 -0.0195  0.3869  0.0197
60301SOL    HW190833   3.452   8.033   9.069 -0.1025  0.6337 -0.0058
60301SOL    HW290834   3.315   7.968   9.059  0.2454 -0.1172  0.0399
60302SOL     OW90835   8.557   3.905   3.798 -0.3242 -0.1971 -0.3773
60302SOL    HW190836   8.566   3.872   3.888  0.3007 -2.2138 -1.1396
60302SOL    HW290837   8.631   3.868   3.751 -1.0564  0.2258 -1.9267
60303SOL     OW90838   6.437   9.430  13.081  1.0981  0.2650  0.5130
60303SOL    HW190839   6.380   9.507  13.088 -0.6268 -0.9324  0.3660
60303SOL    HW290840   6.450   9.419  12.987 -0.2211 -0.6599  0.4068
60304SOL     OW90841  10.311   8.012   0.188  0.0261  0.4436 -0.0895
60304SOL    HW190842  10.302   7.979   0.277 -0.2182  0.6548 -0.0335
60304SOL    HW290843  10.352   7.940   0.139 -2.3426 -0.7703 -0.4474
60305SOL     OW90844   1.210  11.655   8.391 -0.0162 -0.1449 -0.3299
60305SOL    HW190845   1.144  11.649   8.460 -0.0548  0.1197 -0.3445
60305SOL    HW290846   1.289  11.618   8.430 -0.2198 -0.6518 -0.3751
60306SOL     OW90847   4.936   6.200   7.844  0.4040  0.1413 -0.0398
60306SOL    HW190848   4.856   6.186   7.894 -0.3146 -0.2632 -1.2632
60306SOL    HW290849   4.906   6.229   7.758  1.5334 -0.5500 -0.6945
60307SOL     OW90850  12.826   2.364   1.172 -0.7754 -0.1499  0.5054
60307SOL    HW190851  12.779   2.359   1.256 -0.4858  1.3928  0.7906
60307SOL    HW290852  12.761   2.396   1.110 -0.4168  0.9114  0.6577
60308SOL     OW90853   8.686   4.727  10.495 -0.2417  0.0615  0.7541
60308SOL    HW190854   8.694   4.632  10.508 -0.5721 -0.2972 -1.3221
60308SOL    HW290855   8.773   4.755  10.464 -0.1834  0.4122  1.2284
60309SOL     OW90856   3.535   4.933  10.837  0.2134 -1.0855 -0.8122
60309SOL    HW190857   3.498   5.001  10.893 -0.8859 -1.8311 -0.6004
60309SOL    HW290858   3.590   4.981  10.774  0.7549 -0.1627  0.3287
60310SOL     OW90859  11.500  10.670   2.780 -0.1954 -0.7567 -0.3004
60310SOL    HW190860  11.517  10.607   2.850  1.8086 -0.7117 -0.6836
60310SOL    HW290861  11.431  10.630   2.728 -1.1947 -1.1298  1.2588
60311SOL     OW90862   5.320  10.785   5.543 -0.2006  0.4723 -0.0585
60311SOL    HW190863   5.331  10.756   5.634 -0.9732 -0.2467 -0.1826
60311SOL    HW290864   5.235  10.828   5.541 -0.4938 -0.1053 -0.5703
60312SOL     OW90865  12.023   2.430   3.598  0.2415 -0.3744 -0.7358
60312SOL    HW190866  12.118   2.433   3.585  0.1336 -1.3774 -1.9060
60312SOL    HW290867  11.987   2.417   3.511 -1.0430  0.8168 -0.4237
60313SOL     OW90868   4.854   7.928   3.958  0.3450  0.0814 -0.6642
60313SOL    HW190869   4.892   7.889   3.879 -1.1692 -1.0578 -0.8869
60313SOL    HW290870   4.815   7.854   4.004 -1.2714  1.1033 -0.3040
60314SOL     OW90871   3.569  11.210   9.517 -0.1591 -0.4393  0.2264
60314SOL    HW190872   3.549  11.290   9.566 -0.1970  0.0250 -0.5322
60314SOL    HW290873   3.663  11.200   9.525 -0.2705 -0.8903  1.1673
60315SOL     OW90874  11.253  10.195   0.291  0.2678 -0.5752 -0.5211
60315SOL    HW190875  11.205  10.145   0.356  3.2550 -1.9413  0.8170
60315SOL    HW290876  11.259  10.137   0.215  1.4281 -1.2381  0.0488
60316SOL     OW90877   7.251   0.113   8.238  0.3268  0.0345  0.2600
60316SOL    HW190878   7.226   0.025   8.267 -0.3695  0.6754  1.6814
60316SOL    HW290879   7.198   0.128   8.159  1.1139 -1.1454 -0.5264
60317SOL     OW90880   5.625  12.163  11.154  0.0880  0.0985  0.0523
60317SOL    HW190881   5.583  12.127  11.232 -2.0822  1.5437 -0.3293
60317SOL    HW290882   5.641  12.088  11.098 -0.2971 -0.7216  1.0094
60318SOL     OW90883   1.694   3.360  12.488  0.4543  0.2388  0.5605
60318SOL    HW190884   1.784   3.355  12.519  0.3433  0.0696  0.8694
60318SOL    HW290885   1.697   3.328  12.398  0.8402  1.0601  0.2761
60319SOL     OW90886   1.631   7.576   1.006 -0.5435  0.8279  0.2834
60319SOL    HW190887   1.724   7.571   1.030 -0.3289 -2.2005 -0.7622
60319SOL    HW290888   1.612   7.670   1.006  1.8925  1.4759  2.6768
60320SOL     OW90889  10.348   3.846  11.739  0.0974  0.4535 -0.0602
60320SOL    HW190890  10.348   3.851  11.835 -1.0594  1.2742 -0.0724
60320SOL    HW290891  10.287   3.915  11.712 -1.3111 -1.1755 -1.2980
60321SOL     OW90892   7.072   5.100  12.320  0.0590 -0.3763 -0.0493
60321SOL    HW190893   7.033   5.025  12.366  0.2899 -0.4883 -0.0321
60321SOL    HW290894   6.998   5.146  12.282 -0.3380  0.7238  1.8923
60322SOL     OW90895   3.106   0.613   1.835 -0.6318  0.0851 -0.1955
60322SOL    HW190896   3.083   0.684   1.776 -1.3695 -0.3188 -0.4079
60322SOL    HW290897   3.197   0.629   1.858  0.7900 -1.4361 -3.9421
60323SOL     OW90898   7.637  11.351   5.426  0.4484  0.4105  0.0552
60323SOL    HW190899   7.581  11.352   5.504 -2.0321  0.5777 -1.5878
60323SOL    HW290900   7.603  11.279   5.373  1.5080  0.8156 -1.2475
60324SOL     OW90901   2.051   1.995   7.120 -0.6787  0.5624 -0.5308
60324SOL    HW190902   2.020   1.918   7.073 -1.5873  0.1557  0.6920
60324SOL    HW290903   2.131   1.967   7.164 -0.8628  0.3898 -0.3043
60325SOL     OW90904   0.532   3.661  10.071  0.1946 -0.2467 -0.4642
60325SOL    HW190905   0.472   3.720  10.116  0.5325  0.0170 -0.3537
60325SOL    HW290906   0.592   3.632  10.140  0.6805  0.1109 -0.7381
60326SOL     OW90907   7.996   4.330   3.024 -0.4308  0.1922  0.2269
60326SOL    HW190908   8.024   4.420   3.042 -0.6747  0.1639  0.7568
60326SOL    HW290909   7.903   4.329   3.048 -0.1417 -0.5221  1.3718
60327SOL     OW90910  11.727   4.463   8.789 -0.2673 -0.0310  0.2725
60327SOL    HW190911  11.812   4.480   8.749 -0.5238 -0.3682 -0.4233
60327SOL    HW290912  11.740   4.384   8.841  0.1493  0.5828  1.1481
60328SOL     OW90913   1.827   9.178  12.597 -0.1160 -0.2230  0.6374
60328SOL    HW190914   1.888   9.136  12.658  1.4822  0.6086 -0.2863
60328SOL    HW290915   1.821   9.268  12.629 -0.3171 -0.1311  0.3371
60329SOL     OW90916  11.678   5.067   0.832 -0.5334 -0.0247 -0.0662
60329SOL    HW190917  11.725   5.143   0.797  0.5686 -0.1266  1.1488
60329SOL    HW290918  11.737   4.993   0.817 -1.2426 -0.5209 -0.4726
60330SOL     OW90919  13.132   7.166   0.336  0.1251 -0.1392  0.3179
60330SOL    HW190920  13.109   7.237   0.395 -0.8343  2.5555 -2.9381
60330SOL    HW290921  13.226   7.178   0.319  0.0231  0.2236 -0.0121
60331SOL     OW90922   2.323   7.667   4.816 -0.8054 -0.5372 -0.1328
60331SOL    HW190923   2.270   7.699   4.744 -0.8471  0.8272  0.4703
60331SOL    HW290924   2.372   7.593   4.780 -0.7388  0.1968 -1.5781
60332SOL     OW90925   9.743   4.025  11.327  0.1197 -0.1425 -0.0779
60332SOL    HW190926   9.770   4.102  11.377  0.6143 -0.7194  0.5665
60332SOL    HW290927   9.810   4.016  11.259 -1.2544  1.4236 -1.7610
60333SOL     OW90928   1.669   5.218   5.454 -0.9666 -0.9920 -0.9214
60333SOL    HW190929   1.644   5.132   5.419  0.1138 -0.6269 -2.7455
60333SOL    HW290930   1.707   5.264   5.379  4.1280 -1.1489  1.1676
60334SOL     OW90931   4.693   7.568   0.147 -0.6476  0.0045 -0.6312
60334SOL    HW190932   4.653   7.540   0.230 -1.6151  0.5148 -0.9107
60334SOL    HW290933   4.634   7.635   0.113 -1.5985 -1.8744 -2.9584
60335SOL     OW90934   2.455  11.525   2.935 -0.0959  0.6755  0.4403
60335SOL    HW190935   2.423  11.613   2.916  0.4132  0.9956  1.0194
60335SOL    HW290936   2.419  11.505   3.022 -0.7063  0.0614  0.0639
60336SOL     OW90937   0.060  12.691   2.449  0.1963 -0.5393 -0.0482
60336SOL    HW190938   0.152  12.696   2.475  0.8593  1.7225 -2.4003
60336SOL    HW290939   0.056  12.616   2.389  0.2375 -1.2603  0.8253
60337SOL     OW90940  11.626   1.631   5.254 -0.4276  0.5830 -0.0613
60337SOL    HW190941  11.681   1.576   5.197  0.4108 -1.6429  2.6864
60337SOL    HW290942  11.685   1.702   5.281  1.5149 -1.9663  3.1374
60338SOL     OW90943   4.232   3.612  12.672  0.2323  0.4270 -0.2841
60338SOL    HW190944   4.182   3.672  12.617 -0.7083  1.4071  1.5583
60338SOL    HW290945   4.316   3.601  12.626 -0.1276  1.9821 -1.3804
60339SOL     OW90946   7.627   8.042   9.249 -0.5712 -0.4907 -0.0006
60339SOL    HW190947   7.600   8.119   9.198 -0.1259 -0.2149  0.1783
60339SOL    HW290948   7.584   7.969   9.205 -1.2265 -0.1134 -0.0073
60340SOL     OW90949   2.806   5.325   7.526 -0.7014  0.0442 -0.1548
60340SOL    HW190950   2.775   5.235   7.524 -2.8736  0.7288 -0.0015
60340SOL    HW290951   2.819   5.349   7.434  0.2404 -0.5192 -0.1767
60341SOL     OW90952   4.942   5.716  10.013 -0.2028 -0.1670  0.0846
60341SOL    HW190953   4.892   5.634  10.009  0.8758 -0.8114 -0.4066
60341SOL    HW290954   4.972   5.721  10.103  1.9888 -1.7343 -0.4636
60342SOL     OW90955   1.012  10.275   8.048  0.1294  0.6809  0.2984
60342SOL    HW190956   1.093  10.324   8.061  0.3338  0.4420 -0.0735
60342SOL    HW290957   0.948  10.318   8.106  0.7723  0.2547  1.3621
60343SOL     OW90958   2.077   4.264   2.590 -0.2053 -0.1946  0.0953
60343SOL    HW190959   2.169   4.262   2.563  0.0448 -1.5794  0.9722
60343SOL    HW290960   2.075   4.217   2.673 -1.9168 -1.5553 -0.6357
60344SOL     OW90961   7.417   9.072   9.855  0.0719  0.1910  0.0727
60344SOL    HW190962   7.341   9.130   9.849  1.5562  2.3370  0.5956
60344SOL    HW290963   7.450   9.085   9.944  1.5258 -0.0242 -0.4097
60345SOL     OW90964   1.218  11.343   0.880  0.3070 -0.0271 -0.0624
60345SOL    HW190965   1.171  11.374   0.802  1.0398 -1.0062 -0.9225
60345SOL    HW290966   1.308  11.333   0.851  0.6407 -0.1808  0.9957
60346SOL     OW90967  12.361   5.564   6.537 -0.0198  0.0293  0.0188
60346SOL    HW190968  12.433   5.624   6.516  0.2999 -0.3315  0.0712
60346SOL    HW290969  12.392   5.478   6.506 -0.8637  0.0494 -0.9249
60347SOL     OW90970   7.968   3.340  12.305  0.0186  0.1097 -0.6001
60347SOL    HW190971   7.874   3.352  12.318  0.1520  2.0696 -1.1007
60347SOL    HW290972   8.005   3.428  12.318  1.9259 -0.8234  0.7057
60348SOL     OW90973   7.911  13.252  10.473 -0.0278 -0.3300 -0.3568
60348SOL    HW190974   7.876  13.232  10.559 -1.3079 -0.7006 -0.9418
60348SOL    HW290975   7.865  13.192  10.414 -0.2365  0.8998 -1.4844
60349SOL     OW90976   1.004   2.831   6.515  0.2650 -0.1746 -0.7829
60349SOL    HW190977   1.054   2.759   6.553 -0.2373 -0.6515 -1.0072
60349SOL    HW290978   1.050   2.910   6.544 -0.1478 -0.5067  0.8813
60350SOL     OW90979   6.610   0.194   1.327  0.2846  0.1809  0.5641
60350SOL    HW190980   6.696   0.216   1.364 -0.3798  0.0154  2.3105
60350SOL    HW290981   6.554   0.183   1.403 -1.6514  1.6660 -0.5514
60351SOL     OW90982  12.993   0.664  11.182  0.0471  0.3339 -0.4864
60351SOL    HW190983  12.929   0.660  11.111 -0.7808  3.3597 -0.0355
60351SOL    HW290984  12.955   0.723  11.246  1.5686 -0.9150  1.7191
60352SOL     OW90985   2.724   4.031   1.574  0.0861 -0.2886  0.1635
60352SOL    HW190986   2.643   4.074   1.546  0.9472  0.3617 -1.4131
60352SOL    HW290987   2.791   4.098   1.564  0.8553 -0.8620  1.3358
60353SOL     OW90988   5.928   6.022   9.999  0.3376  0.4211 -0.0898
60353SOL    HW190989   5.882   6.098  10.036  0.0876  0.0917  0.2929
60353SOL    HW290990   6.012   6.022  10.044 -0.3385 -0.5446  1.2330
60354SOL     OW90991   6.568   0.903   0.419  0.0303  0.4182  0.1633
60354SOL    HW190992   6.581   0.957   0.498 -0.0933  0.1649  0.3579
60354SOL    HW290993   6.514   0.830   0.449  2.0030 -1.0268  0.4347
60355SOL     OW90994  10.890   0.827   1.892  0.1182  0.4936  0.4238
60355SOL    HW190995  10.900   0.774   1.813  1.8459  2.9251 -1.1328
60355SOL    HW290996  10.796   0.825   1.911 -0.5820  0.9050 -2.5415
60356SOL     OW90997   7.880   2.194   3.484  0.0859  0.2398 -0.0732
60356SOL    HW190998   7.893   2.150   3.400 -1.3259 -2.9195  1.2411
60356SOL    HW290999   7.932   2.143   3.546 -0.6325  1.1795  1.3547
60357SOL     OW91000  11.781   4.107  12.664 -0.4937 -0.3981 -0.4233
60357SOL    HW191001  11.767   4.021  12.625 -0.2212 -0.1869 -0.9985
60357SOL    HW291002  11.737   4.168  12.605  1.4099  0.1063 -1.4112
60358SOL     OW91003   2.831   2.825   5.122  0.1611 -0.1210 -0.3136
60358SOL    HW191004   2.756   2.880   5.145  0.5720  0.7639 -1.0283
60358SOL    HW291005   2.810   2.790   5.036  1.4007  1.7347 -1.4290
60359SOL     OW91006   3.452  10.662   0.575  0.1876  0.2502  0.2980
60359SOL    HW191007   3.491  10.722   0.513  0.9970 -0.3456  0.2114
60359SOL    HW291008   3.468  10.702   0.661  0.4961  0.2820  0.2257
60360SOL     OW91009   2.588   1.802   0.495  0.5532 -0.3350 -0.0250
60360SOL    HW191010   2.681   1.790   0.516  0.8139  2.5564  0.9163
60360SOL    HW291011   2.587   1.871   0.429 -0.9782  0.9041  1.2282
60361SOL     OW91012   0.349   4.500  10.500 -0.0399  0.2019  0.8854
60361SOL    HW191013   0.317   4.551  10.575 -0.2947  1.7128 -0.2159
60361SOL    HW291014   0.364   4.565  10.432 -1.5571 -1.3135 -1.0086
60362SOL     OW91015  12.183   3.560  10.005 -0.2379  0.4485 -0.7003
60362SOL    HW191016  12.259   3.595   9.958  0.1941  1.8450  0.9463
60362SOL    HW291017  12.220   3.494  10.063 -0.5606 -0.1709 -1.1884
60363SOL     OW91018   2.035   2.487   1.345  0.3474 -0.0999  0.0661
60363SOL    HW191019   2.092   2.551   1.302  0.4753  0.4643  1.0619
60363SOL    HW291020   1.965   2.539   1.384 -1.4352 -0.8422 -1.9210
60364SOL     OW91021   2.454  10.303   4.757  0.4797  0.1539  0.2127
60364SOL    HW191022   2.547  10.294   4.740  0.6152  1.9703 -0.2070
60364SOL    HW291023   2.414  10.315   4.671 -0.6875 -3.9457 -0.0313
60365SOL     OW91024   4.669  11.336   5.288  0.1159 -0.2850 -0.3347
60365SOL    HW191025   4.628  11.292   5.213 -2.3173  1.2146 -0.0090
60365SOL    HW291026   4.643  11.282   5.363  0.6485 -0.5555 -0.3434
60366SOL     OW91027   4.721  10.181   3.950  0.0605  0.9148 -0.3041
60366SOL    HW191028   4.768  10.115   3.899 -1.6201  0.7125 -1.6736
60366SOL    HW291029   4.768  10.184   4.033  1.5083 -0.4026 -1.0082
60367SOL     OW91030  13.109  10.097   3.370 -0.4441  0.2880  0.1030
60367SOL    HW191031  13.064  10.031   3.423 -0.5359  0.8895  0.7898
60367SOL    HW291032  13.179  10.130   3.427  0.8617 -0.5825 -0.9133
60368SOL     OW91033  12.081   2.605  11.014 -0.2195 -0.0641 -0.3560
60368SOL    HW191034  12.103   2.618  11.106 -0.7517  0.3627 -0.2812
60368SOL    HW291035  12.088   2.510  11.001 -1.1129 -0.2474  0.3875
60369SOL     OW91036   6.068   8.986   7.211 -0.4243  0.3716  0.1770
60369SOL    HW191037   6.057   9.000   7.117 -2.3055  1.1692  0.4617
60369SOL    HW291038   6.045   9.070   7.251 -0.1880 -0.1084  1.3745
60370SOL     OW91039   0.465   4.755   8.556  0.0452  0.2362 -0.3804
60370SOL    HW191040   0.428   4.674   8.591 -1.0966  0.5428 -0.8267
60370SOL    HW291041   0.547   4.767   8.604 -0.5433 -0.3465  0.8121
60371SOL     OW91042   5.789   3.733  11.135 -0.4476  0.4349 -0.4799
60371SOL    HW191043   5.793   3.640  11.155  3.9220 -0.2996 -3.3784
60371SOL    HW291044   5.711   3.743  11.081 -0.0499 -1.9614 -1.6178
60372SOL     OW91045   6.093  12.593   0.500 -0.5295 -0.0122 -0.1177
60372SOL    HW191046   6.098  12.663   0.565 -0.0024  0.4264 -0.6251
60372SOL    HW291047   6.006  12.555   0.513 -0.2524 -0.2540  1.1683
60373SOL     OW91048   8.592  10.348   3.149  0.1212  0.0806  0.0935
60373SOL    HW191049   8.636  10.416   3.201  1.5417 -1.7427  1.4149
60373SOL    HW291050   8.646  10.339   3.070  0.2483  0.1099  0.1767
60374SOL     OW91051   9.264   6.332   4.597  0.0784  0.3190  0.8018
60374SOL    HW191052   9.326   6.346   4.525 -0.6777 -0.7684 -0.0982
60374SOL    HW291053   9.247   6.419   4.631  0.6187  0.8421 -0.2129
60375SOL     OW91054   5.241  11.505  12.889 -0.1747 -0.1459 -0.9539
60375SOL    HW191055   5.296  11.563  12.838  0.2676  0.4650  0.1932
60375SOL    HW291056   5.153  11.544  12.885 -0.1282 -0.0700 -1.1982
60376SOL     OW91057  10.053   9.554   8.812  0.2654 -0.0104  0.1752
60376SOL    HW191058   9.962   9.523   8.817 -0.6994  1.7911 -2.9604
60376SOL    HW291059  10.052   9.640   8.854  0.9626 -0.6461  1.5526
60377SOL     OW91060   2.320  10.957   6.318  0.1045 -0.3435 -0.5411
60377SOL    HW191061   2.244  10.964   6.376  1.4476  0.4113  1.1981
60377SOL    HW291062   2.328  11.044   6.278 -0.3161 -0.6195 -1.2540
60378SOL     OW91063   1.573  11.014  10.665 -0.2394  0.3898 -0.1749
60378SOL    HW191064   1.621  11.001  10.747 -0.5012 -2.4597 -0.3417
60378SOL    HW291065   1.506  11.078  10.686  2.2346  2.9578  0.6177
60379SOL     OW91066   3.052   7.051  11.072 -0.7535 -0.2569 -0.3011
60379SOL    HW191067   2.961   7.023  11.069 -0.9684  0.3010  0.6214
60379SOL    HW291068   3.077   7.041  11.164 -0.5277  1.5372 -0.1348
60380SOL     OW91069   1.737  12.972   9.043  0.6409  0.0875  0.2313
60380SOL    HW191070   1.676  12.991   8.971  0.3841 -0.8681  0.1730
60380SOL    HW291071   1.708  13.029   9.114 -2.0219 -2.1058  1.0822
60381SOL     OW91072   4.142   2.821   8.127  0.0924  0.1672  0.5549
60381SOL    HW191073   4.053   2.841   8.156  0.5898 -1.1841  3.3960
60381SOL    HW291074   4.194   2.896   8.155  0.1955 -0.0715  1.0118
60382SOL     OW91075   3.137   9.139   1.978  0.2169  0.1339  0.3463
60382SOL    HW191076   3.172   9.143   1.889 -0.3700  0.5255  0.1249
60382SOL    HW291077   3.106   9.050   1.988  1.5543 -0.3283  0.6690
60383SOL     OW91078  10.422   5.888   6.342 -0.1944 -0.8042 -0.1094
60383SOL    HW191079  10.330   5.861   6.340 -0.1303 -0.9984 -0.8120
60383SOL    HW291080  10.445   5.900   6.249  0.5421 -0.9556  0.0490
60384SOL     OW91081   7.557   8.191   4.011 -0.0455 -0.3538  0.8223
60384SOL    HW191082   7.628   8.224   3.957  0.6493  0.7511  2.3585
60384SOL    HW291083   7.580   8.099   4.027 -0.3726 -0.7742 -0.8540
60385SOL     OW91084   6.353   6.518  10.170 -0.0144 -0.6232  0.3665
60385SOL    HW191085   6.418   6.472  10.223  0.2406 -0.2844  0.3476
60385SOL    HW291086   6.276   6.461  10.172  0.6157 -1.5271 -0.4592
60386SOL     OW91087   4.918   3.836   4.411 -0.8172  0.5243  0.0650
60386SOL    HW191088   4.977   3.895   4.364 -0.8533  0.6351  0.1582
60386SOL    HW291089   4.905   3.878   4.496  0.5559 -0.4829  0.8174
60387SOL     OW91090  11.940   1.302   8.767 -0.1341 -0.7802 -0.6701
60387SOL    HW191091  11.863   1.318   8.713 -0.8542  1.0364  0.8076
60387SOL    HW291092  11.968   1.389   8.797  1.2484 -1.5741  0.4956
60388SOL     OW91093   2.511   4.442   3.002  0.2174  0.2457 -0.5535
60388SOL    HW191094   2.515   4.517   2.944 -2.3066 -0.0681 -1.2569
60388SOL    HW291095   2.537   4.368   2.947  1.0801  0.3585 -0.3166
60389SOL     OW91096   2.461   6.745   8.382 -0.0225  0.1387 -0.3693
60389SOL    HW191097   2.380   6.796   8.392  1.0018  1.9292 -0.6647
60389SOL    HW291098   2.514   6.770   8.458  0.6081 -0.2826 -0.6639
60390SOL     OW91099   4.819  11.948   0.114 -0.2345  0.4991 -0.7438
60390SOL    HW191100   4.798  11.980   0.026 -0.6865  1.3195 -0.3459
60390SOL    HW291101   4.736  11.955   0.162  0.2123  0.8751 -0.0134
60391SOL     OW91102   3.237   1.125   5.233  0.6025 -0.2301  0.4725
60391SOL    HW191103   3.271   1.112   5.144 -0.5699 -3.7958  0.4169
60391SOL    HW291104   3.142   1.116   5.224  0.2938  1.2758  1.8550
60392SOL     OW91105   1.900  10.077   5.753 -0.1426  0.1709  0.3242
60392SOL    HW191106   1.855  10.020   5.816 -1.7370  0.6972 -0.2817
60392SOL    HW291107   1.836  10.090   5.683  0.8233  1.3115 -0.3857
60393SOL     OW91108   0.724   5.171   7.439  0.1482 -0.1507 -0.2356
60393SOL    HW191109   0.722   5.076   7.427  2.1236 -0.1395 -1.0034
60393SOL    HW291110   0.675   5.186   7.520  1.2032 -1.9943  0.8100
60394SOL     OW91111   5.232  13.107  13.012 -0.3368 -0.1145 -0.7613
60394SOL    HW191112   5.140  13.133  13.007 -0.5256 -0.9366 -1.9372
60394SOL    HW291113   5.235  13.046  13.085 -0.8116 -0.3721 -0.9483
60395SOL     OW91114   2.662   4.842   1.881 -0.0050 -0.1340 -0.0856
60395SOL    HW191115   2.581   4.842   1.931  0.8686  4.2935  1.7610
60395SOL    HW291116   2.647   4.905   1.810  0.8645 -1.7053 -1.7729
60396SOL     OW91117  13.029   5.461  12.384  0.1762 -0.0052  0.2450
60396SOL    HW191118  12.957   5.409  12.420  0.1155  0.5342  0.9230
60396SOL    HW291119  13.080   5.399  12.332  0.1952 -0.7924  1.1714
60397SOL     OW91120   5.723   2.360   8.419 -0.0448 -0.4312  0.5140
60397SOL    HW191121   5.666   2.294   8.380 -0.0772 -0.3648  0.4482
60397SOL    HW291122   5.794   2.371   8.355 -0.7849  0.6372 -0.1565
60398SOL     OW91123   6.710   9.623  10.196 -0.1786 -0.3815  0.2648
60398SOL    HW191124   6.734   9.570  10.271  3.0698 -0.5499 -0.7460
60398SOL    HW291125   6.729   9.713  10.222 -0.7902 -0.2412  0.2433
60399SOL     OW91126   3.961  10.341   1.792  0.4933  0.0569 -0.5884
60399SOL    HW191127   3.922  10.272   1.739  0.4680  1.0378 -1.8747
60399SOL    HW291128   3.924  10.423   1.758  0.5512  0.7376  0.8705
60400SOL     OW91129   4.398   8.931   8.666 -0.0493 -0.2248  0.4696
60400SOL    HW191130   4.428   8.852   8.712 -0.3004 -0.7512 -0.2420
60400SOL    HW291131   4.425   8.917   8.575 -1.0414  0.0150  0.1235
60401SOL     OW91132   3.180   9.065   9.114  0.4977  0.2477  0.3213
60401SOL    HW191133   3.209   9.006   9.044  0.6816  0.7122  0.0057
60401SOL    HW291134   3.093   9.094   9.087  0.2295 -0.2052  0.6841
60402SOL     OW91135   5.464   4.507   3.163  0.6466  0.0026  0.2379
60402SOL    HW191136   5.506   4.512   3.248 -0.0721 -2.2440  0.7746
60402SOL    HW291137   5.453   4.414   3.146  2.6099  0.2103 -3.2832
60403SOL     OW91138   6.745   4.640   3.835 -0.1109 -0.0023  0.0272
60403SOL    HW191139   6.725   4.616   3.744 -0.4674  2.5360 -0.6530
60403SOL    HW291140   6.724   4.562   3.886 -0.4678 -1.3016 -2.0024
60404SOL     OW91141   3.475  11.781   1.026  0.0467  0.2596 -0.4639
60404SOL    HW191142   3.472  11.800   0.932 -1.3966  1.8608 -0.1427
60404SOL    HW291143   3.420  11.848   1.066 -0.5287 -1.2257  1.3976
60405SOL     OW91144   0.965   3.082   5.038  0.1927  0.3371 -0.7147
60405SOL    HW191145   0.957   3.132   5.120  0.1258 -0.9264  0.0707
60405SOL    HW291146   0.891   3.022   5.040  0.6754 -0.2847 -1.3034
60406SOL     OW91147   3.113   5.932   8.220  0.2681  0.2493 -0.5075
60406SOL    HW191148   3.116   5.841   8.248 -1.1614 -0.0224 -1.1203
60406SOL    HW291149   3.023   5.960   8.241  0.9473  1.7981  0.4935
60407SOL     OW91150  10.182  12.054   0.008 -0.1257 -0.6661  0.3001
60407SOL    HW191151  10.139  12.093  -0.068  1.4247  1.0228  0.2166
60407SOL    HW291152  10.157  12.111   0.081  1.6026  0.1369  0.3117
60408SOL     OW91153  11.689   3.521   9.984 -0.2499 -0.0466  0.3367
60408SOL    HW191154  11.721   3.468   9.911  0.9634  1.0331  0.0528
60408SOL    HW291155  11.764   3.576  10.009 -0.2781 -1.0575  3.0606
60409SOL     OW91156  10.875   5.230  10.047  0.1954 -0.0011  0.0129
60409SOL    HW191157  10.904   5.319  10.030 -1.3109  0.5499  0.1603
60409SOL    HW291158  10.931   5.175   9.992  2.0424  0.8817  0.9227
60410SOL     OW91159   7.942   7.121   2.820  0.1965  0.3288  0.0232
60410SOL    HW191160   7.946   7.153   2.910 -0.8390 -1.1447  0.6200
60410SOL    HW291161   7.937   7.026   2.828  0.3558  0.1486 -1.6091
60411SOL     OW91162  12.121   4.242   6.887 -0.8446  0.0831  0.2883
60411SOL    HW191163  12.160   4.156   6.871 -0.8848 -0.2969  2.0722
60411SOL    HW291164  12.131   4.288   6.804  0.7893 -1.0144 -0.1756
60412SOL     OW91165   4.050   2.278  10.620  0.5650 -0.2754  0.5591
60412SOL    HW191166   4.061   2.226  10.699  0.1831  0.8404  1.3812
60412SOL    HW291167   4.070   2.368  10.648 -1.0569  0.3756 -0.2112
60413SOL     OW91168   4.762   4.877   4.652 -0.1830  0.1718  0.2117
60413SOL    HW191169   4.803   4.796   4.682  1.1092  0.9691  0.6587
60413SOL    HW291170   4.684   4.885   4.707  0.0768 -0.3854  0.6810
60414SOL     OW91171  10.945   3.212   0.135  0.2406  0.0891  0.2897
60414SOL    HW191172  10.994   3.270   0.077 -0.0187 -0.8726 -0.9303
60414SOL    HW291173  10.855   3.242   0.127  0.3367  0.5850  0.9843
60415SOL     OW91174  12.736  11.037   2.528  0.0525  0.0509  0.0403
60415SOL    HW191175  12.673  10.972   2.560 -1.7397  0.9569 -1.4270
60415SOL    HW291176  12.777  10.996   2.452  0.1988  0.0038  0.1430
60416SOL     OW91177   1.738   6.863   7.959  0.0530 -0.1084  0.2163
60416SOL    HW191178   1.805   6.796   7.970 -0.2826 -0.3416  0.9040
60416SOL    HW291179   1.689   6.836   7.881  0.1722 -0.4425  0.2582
60417SOL     OW91180  13.291   2.518   3.260 -0.7921  0.4062  0.1044
60417SOL    HW191181  13.211   2.567   3.278 -0.0379  1.6900  0.0657
60417SOL    HW291182  13.360   2.585   3.253 -0.0073 -0.4902 -1.5686
60418SOL     OW91183  13.048   6.319   0.856  0.1397 -0.2025  0.5378
60418SOL    HW191184  12.997   6.335   0.777 -1.6121 -0.0907  1.6447
60418SOL    HW291185  13.111   6.391   0.860  0.9142 -0.7410 -1.2376
60419SOL     OW91186   0.001   3.342   2.039 -0.6952 -0.2956 -0.4275
60419SOL    HW191187  -0.073   3.289   2.012 -0.0969  0.3694 -3.7136
60419SOL    HW291188   0.077   3.285   2.028 -0.2737  0.4953 -1.7818
60420SOL     OW91189  12.824   3.310  12.607 -0.4332 -0.0688 -0.2022
60420SOL    HW191190  12.790   3.293  12.519 -1.2133 -0.4256  0.1619
60420SOL    HW291191  12.753   3.285  12.666 -0.4630  1.5114  0.4821
60421SOL     OW91192   4.261   1.147  11.405  0.5416  0.0329 -0.5477
60421SOL    HW191193   4.204   1.224  11.401  1.0438  0.3428 -1.8275
60421SOL    HW291194   4.203   1.077  11.436 -0.6527  0.2645 -2.1535
60422SOL     OW91195   5.586  10.001   0.918 -0.1049 -0.1941 -0.5475
60422SOL    HW191196   5.519  10.065   0.942  0.7213 -0.2858  2.3915
60422SOL    HW291197   5.559   9.920   0.961  1.3374 -0.5146 -0.1869
60423SOL     OW91198   1.270   9.687   6.338 -0.6196  0.1528 -0.3858
60423SOL    HW191199   1.216   9.646   6.270  0.4061 -1.3237 -0.3637
60423SOL    HW291200   1.353   9.706   6.295  0.3632 -1.6082  0.6086
60424SOL     OW91201   6.014  12.880  11.686 -0.4004 -0.5415 -0.0900
60424SOL    HW191202   5.921  12.885  11.663 -0.3244  1.3663 -0.1787
60424SOL    HW291203   6.023  12.940  11.760  0.8861 -0.1687 -0.5209
60425SOL     OW91204  12.120   4.471  10.647 -0.2518 -0.0449  0.4966
60425SOL    HW191205  12.086   4.408  10.584  2.2483  0.7468 -1.8020
60425SOL    HW291206  12.124   4.423  10.730 -2.3944 -1.5192 -0.1795
60426SOL     OW91207   7.728  12.678  10.401 -0.0149  0.5416 -0.2051
60426SOL    HW191208   7.738  12.710  10.311  0.9324  0.2285 -0.2256
60426SOL    HW291209   7.731  12.582  10.392 -2.2732  0.3943 -0.0903
60427SOL     OW91210   1.012  12.110   9.966 -0.3684  0.1488  0.4990
60427SOL    HW191211   1.103  12.090   9.946 -0.2954  0.2846  0.6933
60427SOL    HW291212   1.011  12.205   9.981 -1.2883  0.9875 -3.6415
60428SOL     OW91213   0.823   2.570   8.118 -0.3126 -0.2524  0.2843
60428SOL    HW191214   0.819   2.567   8.023  2.4915  1.1276  0.0290
60428SOL    HW291215   0.915   2.554   8.139 -0.6198  0.6657  2.6929
60429SOL     OW91216   9.109  12.646   2.189  0.4860  0.3263  0.4364
60429SOL    HW191217   9.081  12.670   2.277 -0.0294 -0.9263  0.6241
60429SOL    HW291218   9.204  12.658   2.190  0.7227 -1.3849  1.7299
60430SOL     OW91219  11.660   1.683   6.400  0.2758  0.4246  0.3254
60430SOL    HW191220  11.597   1.690   6.472 -1.4583  2.3277 -1.2502
60430SOL    HW291221  11.710   1.764   6.404 -0.8464  1.2800 -1.3918
60431SOL     OW91222   8.878   9.868   7.798 -0.3831  0.3633 -0.0585
60431SOL    HW191223   8.900   9.807   7.868 -0.4328  0.1377 -0.2410
60431SOL    HW291224   8.961   9.889   7.756  0.0058  2.2608  1.4930
60432SOL     OW91225   9.557  10.241  11.031  0.0352  0.7578 -0.4667
60432SOL    HW191226   9.574  10.334  11.045 -0.4234  0.6299  1.1244
60432SOL    HW291227   9.537  10.207  11.118 -1.0266 -0.5785 -1.2005
60433SOL     OW91228   4.546  12.980  12.292  0.8581 -0.5565  0.3071
60433SOL    HW191229   4.639  12.993  12.271  0.5071 -0.4264 -1.3158
60433SOL    HW291230   4.515  12.921  12.223 -0.5523  0.3806  0.1227
60434SOL     OW91231  11.870   3.437   4.951  0.2130 -0.2543 -0.0756
60434SOL    HW191232  11.853   3.383   4.874  1.0124  2.6332 -2.4445
60434SOL    HW291233  11.965   3.447   4.953  0.0092  2.8128 -1.1482
60435SOL     OW91234   2.977   7.574   1.041  0.4733  0.3706  0.5812
60435SOL    HW191235   2.910   7.633   1.008  0.3845 -0.1054 -0.1374
60435SOL    HW291236   2.963   7.493   0.991  0.8666 -0.1031  1.2308
60436SOL     OW91237   8.103   2.843  11.108 -0.8824 -0.1464  0.2524
60436SOL    HW191238   8.123   2.836  11.015 -1.1546 -2.1621  0.2956
60436SOL    HW291239   8.189   2.843  11.151 -0.7642  0.4790  0.0233
60437SOL     OW91240   8.905   5.116  10.841  0.2559  0.1138  0.3826
60437SOL    HW191241   8.921   5.085  10.930  0.3048 -1.0459 -0.0078
60437SOL    HW291242   8.982   5.170  10.820  1.0825 -1.0039  0.4533
60438SOL     OW91243  11.927   3.650  10.028  0.6515  0.3988 -0.6319
60438SOL    HW191244  11.951   3.741  10.014  2.2216  0.4361  1.5820
60438SOL    HW291245  12.009   3.602  10.015  0.2650 -0.4597 -0.0177
60439SOL     OW91246   5.457   1.771   4.636 -0.1345 -0.2285  0.7042
60439SOL    HW191247   5.395   1.824   4.686 -2.4850 -3.1098  1.1618
60439SOL    HW291248   5.501   1.717   4.703 -0.3311 -1.2620  0.0220
60440SOL     OW91249  11.366   7.188   7.191  0.4524 -0.3799 -0.8400
60440SOL    HW191250  11.384   7.282   7.198 -0.8112 -0.0868 -1.1010
60440SOL    HW291251  11.397   7.151   7.273  0.4928  0.3536 -0.5125
60441SOL     OW91252  10.232   1.215   3.878  0.4644 -0.2881 -0.3535
60441SOL    HW191253  10.292   1.211   3.804 -0.4741 -0.5173 -1.1229
60441SOL    HW291254  10.228   1.308   3.900  0.9685 -0.2527 -0.4066
60442SOL     OW91255  13.216   7.486   7.550 -0.4110  0.0241 -0.1938
60442SOL    HW191256  13.152   7.415   7.554 -1.1260  0.6906  1.7427
60442SOL    HW291257  13.301   7.443   7.545 -0.9527 -0.8887 -2.8876
60443SOL     OW91258   1.632  10.278   7.652  0.4845 -0.0613 -0.5909
60443SOL    HW191259   1.550  10.229   7.644  1.7475 -2.4224  0.2251
60443SOL    HW291260   1.634  10.334   7.574 -1.3276 -0.7991 -1.2143
60444SOL     OW91261   8.643  12.793   8.740  0.1109 -0.7086 -0.1368
60444SOL    HW191262   8.638  12.889   8.737  1.3260 -0.5474  1.6281
60444SOL    HW291263   8.554  12.765   8.762 -0.4472 -0.0702 -1.4404
60445SOL     OW91264  11.653   9.171   6.815 -0.6262 -0.0569 -0.3423
60445SOL    HW191265  11.586   9.120   6.770 -0.4835  0.3934 -1.0806
60445SOL    HW291266  11.615   9.190   6.901 -2.0975  1.4515 -1.2595
60446SOL     OW91267  11.187   9.755   0.891  0.6136  1.1381 -0.4071
60446SOL    HW191268  11.227   9.835   0.855  2.0310  0.3956 -0.5836
60446SOL    HW291269  11.093   9.770   0.885  0.8178  1.9751 -2.3454
60447SOL     OW91270   4.778  11.472   0.142  0.1248 -0.7038  0.4711
60447SOL    HW191271   4.784  11.460   0.237 -0.6726 -0.2115  0.5926
60447SOL    HW291272   4.688  11.446   0.121  0.3931 -1.1103 -0.2000
60448SOL     OW91273  13.298   8.115   2.415  0.4266 -0.1794 -0.4719
60448SOL    HW191274  13.236   8.099   2.485 -0.2193  1.4327 -0.6221
60448SOL    HW291275  13.250   8.170   2.353  2.3316  2.1922  0.0133
60449SOL     OW91276   9.054  10.266   0.245  0.2586  0.2853  0.4038
60449SOL    HW191277   9.047  10.359   0.223 -0.0100  0.3943  0.9233
60449SOL    HW291278   9.105  10.264   0.326 -2.2149  0.2452  2.0728
60450SOL     OW91279   7.770  13.280   3.005  0.7007 -0.8591 -0.2803
60450SOL    HW191280   7.730  13.204   2.962 -0.0995 -1.3752  1.3302
60450SOL    HW291281   7.752  13.268   3.098  1.0613  1.0155  0.0741
60451SOL     OW91282   9.055   0.102   9.870  0.6079 -0.4585  0.4230
60451SOL    HW191283   9.118   0.069   9.806 -0.1778 -1.7965  0.2975
60451SOL    HW291284   9.082   0.063   9.953  0.3592 -0.4786  0.4969
60452SOL     OW91285  10.517  13.006   3.280 -0.0013 -0.2139  0.0728
60452SOL    HW191286  10.566  13.083   3.309 -0.3283  0.0371 -0.0347
60452SOL    HW291287  10.480  12.969   3.360  0.0208 -0.1681  0.1035
60453SOL     OW91288   3.386   6.464  10.953 -0.3772 -0.6536 -0.0812
60453SOL    HW191289   3.356   6.549  10.986 -1.1873 -1.1811  0.5946
60453SOL    HW291290   3.437   6.485  10.875  0.1025  0.5090  0.5151
60454SOL     OW91291  10.383  11.040   9.982  0.3393  0.1266  0.2792
60454SOL    HW191292  10.469  11.018   9.944  0.9465 -0.8090  2.0670
60454SOL    HW291293  10.334  11.079   9.910  1.1360 -2.2802 -1.7174
60455SOL     OW91294   8.100  12.639   6.051 -0.2121 -0.0929 -0.2897
60455SOL    HW191295   8.123  12.715   6.104  2.0530 -2.1593  1.9802
60455SOL    HW291296   8.178  12.621   5.999 -0.6131 -1.0049 -0.6034
60456SOL     OW91297   6.085  10.462   4.845 -0.3986  0.1540  0.3920
60456SOL    HW191298   5.998  10.499   4.829 -0.2203 -0.0366 -1.1865
60456SOL    HW291299   6.125  10.521   4.908 -0.8908  1.4815 -0.4878
60457SOL     OW91300  12.404   9.629   7.600 -0.2189  0.1353 -0.3386
60457SOL    HW191301  12.338   9.599   7.537 -0.3619 -0.7114  0.2043
60457SOL    HW291302  12.482   9.579   7.578 -0.5586 -0.9209  0.7967
60458SOL     OW91303   3.222   6.987   5.050 -0.1883 -0.0823  0.7234
60458SOL    HW191304   3.220   7.033   4.966 -1.2970 -0.1381  0.6988
60458SOL    HW291305   3.308   7.005   5.086  1.0435 -1.6054 -1.2658
60459SOL     OW91306   8.769   3.593  11.206  0.6377  0.2415  0.0303
60459SOL    HW191307   8.777   3.580  11.300  1.3103  1.9307  0.2312
60459SOL    HW291308   8.758   3.687  11.195 -2.2752 -0.1524 -1.4175
60460SOL     OW91309   3.081  11.155   1.689  0.3105 -0.5790 -0.2946
60460SOL    HW191310   3.004  11.157   1.633  1.3098  0.2091 -1.7251
60460SOL    HW291311   3.149  11.116   1.634  0.9518 -1.2355  0.9284
60461SOL     OW91312  10.239  11.130   5.996 -0.8535 -0.0285 -0.5844
60461SOL    HW191313  10.286  11.092   5.921 -0.2429  0.6980 -0.5814
60461SOL    HW291314  10.263  11.073   6.069  0.7798  0.8311 -0.3979
60462SOL     OW91315   4.331  10.225  10.019 -0.1057  0.2686  0.3310
60462SOL    HW191316   4.316  10.247  10.111  1.1274  0.1978  0.5733
60462SOL    HW291317   4.424  10.243  10.005 -0.2223  0.0498 -0.8412
60463SOL     OW91318   7.641   7.239   5.528  1.0512 -0.6595 -0.2767
60463SOL    HW191319   7.662   7.265   5.618 -0.8299 -0.2220  0.0757
60463SOL    HW291320   7.589   7.159   5.538 -0.9618  0.4968 -0.7748
60464SOL     OW91321   4.905  11.332  13.277  0.4335  0.1408 -0.6424
60464SOL    HW191322   4.837  11.269  13.257  1.7524 -1.3198 -0.6876
60464SOL    HW291323   4.860  11.401  13.326 -1.0549 -0.7526 -0.6934
60465SOL     OW91324   2.115   6.922   6.585 -0.2162 -0.4700  0.1395
60465SOL    HW191325   2.195   6.913   6.637 -0.3862 -0.9900  0.3214
60465SOL    HW291326   2.044   6.918   6.649 -0.3647  1.1891  0.1148
60466SOL     OW91327   7.863  13.219   1.819  0.4241 -0.6293  0.1103
60466SOL    HW191328   7.837  13.256   1.903  0.7758 -1.0366  0.3987
60466SOL    HW291329   7.925  13.283   1.783  2.6478 -1.8751  1.5367
60467SOL     OW91330   0.123  10.689   2.870  0.3398 -0.3380  0.7514
60467SOL    HW191331   0.216  10.688   2.896  0.6189 -1.3581 -0.2492
60467SOL    HW291332   0.122  10.736   2.787  0.2671 -2.0279 -0.2535
60468SOL     OW91333   4.271  11.683  11.442 -0.2251 -0.0723 -0.2480
60468SOL    HW191334   4.211  11.615  11.472 -2.0791  1.2772 -0.7239
60468SOL    HW291335   4.307  11.649  11.360  2.4071 -2.3736  1.6855
60469SOL     OW91336   6.281   3.212  12.203  0.0692  0.0344 -0.3201
60469SOL    HW191337   6.186   3.205  12.218  0.1318 -2.0669 -0.6101
60469SOL    HW291338   6.290   3.213  12.108  0.3555  0.1041 -0.2925
60470SOL     OW91339   0.474  12.652   9.778  0.3931 -0.0526  0.3384
60470SOL    HW191340   0.569  12.639   9.767  0.3724  0.4759 -0.6110
60470SOL    HW291341   0.448  12.699   9.699 -0.2389  2.1377  1.7920
60471SOL     OW91342   7.502   6.904   4.593 -0.2345  0.0443  0.2063
60471SOL    HW191343   7.525   6.962   4.666  0.2666 -0.0922  0.1552
60471SOL    HW291344   7.561   6.830   4.601  0.6723  0.6000 -1.0608
60472SOL     OW91345   3.927   8.275   3.657 -0.2999  0.1434 -0.7652
60472SOL    HW191346   3.864   8.280   3.585 -0.3475 -1.9486 -0.9407
60472SOL    HW291347   3.882   8.223   3.724  1.3027 -1.7101 -1.0434
60473SOL     OW91348   7.404   2.826   7.737 -0.0140  0.2425 -0.1387
60473SOL    HW191349   7.379   2.832   7.829 -1.3346  2.2569 -0.5562
60473SOL    HW291350   7.424   2.916   7.712  0.2516 -0.2552 -1.8411
60474SOL     OW91351  10.193   8.792  12.541  0.3692  0.8155 -0.7780
60474SOL    HW191352  10.198   8.887  12.534 -1.8302  0.8738 -2.3701
60474SOL    HW291353  10.256   8.760  12.476 -0.6966  1.2436 -2.0709
60475SOL     OW91354   1.095   1.132   7.755  0.0739  0.1086 -0.2803
60475SOL    HW191355   1.072   1.169   7.670 -2.1177  0.6028  0.4530
60475SOL    HW291356   1.096   1.037   7.741 -1.5139  0.1187 -0.6271
60476SOL     OW91357  12.942   2.560   7.617  0.2452  0.0335  0.5910
60476SOL    HW191358  12.975   2.472   7.635 -1.0438 -0.3639  1.1412
60476SOL    HW291359  12.864   2.568   7.671 -1.4161  0.3586 -1.6980
60477SOL     OW91360  11.308   4.769   2.350  0.1783 -0.0381  0.2303
60477SOL    HW191361  11.345   4.820   2.422 -1.8538  1.6279  0.1912
60477SOL    HW291362  11.217   4.752   2.377 -0.2423 -0.4953 -1.3576
60478SOL     OW91363  10.460   9.164  10.773 -0.8495 -0.1172 -0.5385
60478SOL    HW191364  10.455   9.087  10.829 -0.1342  0.3854  0.2315
60478SOL    HW291365  10.468   9.129  10.684 -1.2035 -0.9181 -0.2607
60479SOL     OW91366   4.879   6.774   8.605 -0.3656 -0.3197  0.6200
60479SOL    HW191367   4.966   6.739   8.583  0.0540  1.1333 -0.1133
60479SOL    HW291368   4.865   6.746   8.696  0.9316 -0.4573  0.7991
60480SOL     OW91369  10.340   5.039   7.383 -0.0686  0.4851  1.3070
60480SOL    HW191370  10.426   4.996   7.382 -0.6841 -0.7989 -0.5767
60480SOL    HW291371  10.349   5.109   7.318 -0.8555 -0.5948 -0.0143
60481SOL     OW91372  13.177  10.608  12.209 -0.5782 -0.1409 -0.0640
60481SOL    HW191373  13.149  10.628  12.298  0.0289 -1.5233  0.4682
60481SOL    HW291374  13.181  10.693  12.165  2.3604  1.0703  2.1657
60482SOL     OW91375   8.437   7.596  10.499  0.1645  0.4720  0.2132
60482SOL    HW191376   8.383   7.640  10.564 -1.4455  0.5190 -1.0798
60482SOL    HW291377   8.466   7.516  10.542 -1.7851 -0.0574  0.6700
60483SOL     OW91378   9.809   8.749   3.691  0.4771 -0.6788  0.5896
60483SOL    HW191379   9.793   8.730   3.599  1.1866  0.7688  0.1281
60483SOL    HW291380   9.775   8.673   3.738  1.6190 -2.2294 -0.9650
60484SOL     OW91381   4.549   1.279  10.289  0.2421 -0.3630 -0.0573
60484SOL    HW191382   4.615   1.279  10.358 -0.7884  0.8032  0.9756
60484SOL    HW291383   4.593   1.320  10.214  0.8174  0.0484  0.4908
60485SOL     OW91384   1.034   5.770  13.116  0.0633 -0.3555  0.2683
60485SOL    HW191385   1.072   5.699  13.065 -1.1139 -1.2985  0.6662
60485SOL    HW291386   0.945   5.780  13.081  0.0832  0.6728  0.4728
60486SOL     OW91387   1.719  12.273   4.120  0.3173  0.3283  0.1155
60486SOL    HW191388   1.714  12.262   4.215  0.6801 -0.1264  0.0837
60486SOL    HW291389   1.698  12.187   4.084  1.0144  0.2800 -0.1912
60487SOL     OW91390   2.485   9.431   1.383 -0.1473 -0.5378 -0.2457
60487SOL    HW191391   2.431   9.356   1.408  1.5024 -0.9835  2.4046
60487SOL    HW291392   2.575   9.401   1.395  0.5918  1.4509 -0.3536
60488SOL     OW91393   5.313  12.201   8.914 -0.3396  0.4409 -0.3552
60488SOL    HW191394   5.313  12.133   8.981 -1.2128  1.8787  1.1916
60488SOL    HW291395   5.220  12.212   8.892 -0.1802  0.9442 -0.7796
60489SOL     OW91396   4.389  13.267  11.551 -0.2196  0.4487 -0.4725
60489SOL    HW191397   4.307  13.258  11.504 -0.2826  0.6377 -0.4028
60489SOL    HW291398   4.437  13.186  11.533  0.1242  0.8764 -1.5619
60490SOL     OW91399  12.101  11.246   1.288 -0.1891 -0.1736  0.0146
60490SOL    HW191400  12.093  11.150   1.290 -2.2436 -0.0365  1.4233
60490SOL    HW291401  12.118  11.270   1.380  0.3574  0.8177 -0.3345
60491SOL     OW91402  10.566   6.814   5.897  0.0935  0.4917 -0.1559
60491SOL    HW191403  10.610   6.788   5.978 -0.2335  2.1496  0.5937
60491SOL    HW291404  10.522   6.735   5.868 -1.2691  0.2402  2.2821
60492SOL     OW91405   6.603   3.989   1.342  0.0677  0.3325  0.1794
60492SOL    HW191406   6.558   4.044   1.278 -1.3782  0.3374  1.1297
60492SOL    HW291407   6.539   3.980   1.414  0.7839 -1.4602  0.6397
60493SOL     OW91408   7.450   6.931  13.021  0.1518 -0.2680 -0.7571
60493SOL    HW191409   7.484   6.871  12.955 -0.4735 -0.9853 -0.4451
60493SOL    HW291410   7.429   6.875  13.096  0.7416  0.5105  0.0220
60494SOL     OW91411   2.496   4.282   6.728  0.7212 -0.0395  1.0259
60494SOL    HW191412   2.590   4.267   6.725  0.5458 -1.2059 -0.3501
60494SOL    HW291413   2.458   4.197   6.704 -0.6962  0.2790  2.0127
60495SOL     OW91414   0.515   8.688  11.096 -0.4080 -0.7125 -0.0293
60495SOL    HW191415   0.503   8.748  11.170 -0.3724 -0.1874 -0.4424
60495SOL    HW291416   0.610   8.683  11.085 -0.4324  1.3326 -1.7150
60496SOL     OW91417   0.951   4.064   0.766 -0.9681  0.0800 -0.6842
60496SOL    HW191418   0.869   4.044   0.812 -0.7452  1.4475  0.3796
60496SOL    HW291419   1.020   4.035   0.825 -0.6759  1.1338 -0.4990
60497SOL     OW91420   6.651   7.470  10.385 -0.7809 -0.1798  0.5714
60497SOL    HW191421   6.653   7.378  10.360  1.2505  0.5486 -2.6401
60497SOL    HW291422   6.734   7.484  10.431 -1.0660  0.0667  1.0132
60498SOL     OW91423   6.134   0.628   0.042  0.0641  0.4825  0.1362
60498SOL    HW191424   6.222   0.604   0.070  0.0718 -0.7341 -0.8451
60498SOL    HW291425   6.147   0.684  -0.034 -0.0032 -0.2683 -0.4378
60499SOL     OW91426   4.600   7.936   2.281 -0.4331  0.6342 -0.3738
60499SOL    HW191427   4.631   7.850   2.250  0.7934 -0.1768  2.7000
60499SOL    HW291428   4.509   7.940   2.253 -1.1950 -2.7043  1.1448
60500SOL     OW91429   6.384   2.572   3.659 -0.1272 -0.2990  0.1958
60500SOL    HW191430   6.296   2.576   3.621  0.8877  3.1743 -2.2657
60500SOL    HW291431   6.374   2.612   3.745 -0.9792  0.1233 -0.0834
60501SOL     OW91432  12.557  11.163  11.638 -0.1535  0.0502 -0.1134
60501SOL    HW191433  12.477  11.182  11.588 -0.4732  0.6781  0.6064
60501SOL    HW291434  12.628  11.188  11.580 -0.5328  3.5918  0.7038
60502SOL     OW91435   3.840   0.010   4.186 -0.2209  0.6774 -0.5395
60502SOL    HW191436   3.919   0.053   4.153 -1.3626  3.3512 -0.0520
60502SOL    HW291437   3.799  -0.027   4.109 -0.4160  2.6607 -1.4423
60503SOL     OW91438   8.763   6.948   4.710 -0.4861 -0.0925  0.2119
60503SOL    HW191439   8.830   7.007   4.675 -1.5733  1.4382  0.5832
60503SOL    HW291440   8.807   6.902   4.782  0.1512  0.9082  0.4832
60504SOL     OW91441  10.136   5.492  10.169  0.1756  0.4627  0.4313
60504SOL    HW191442  10.196   5.541  10.225  0.2812  0.8860 -0.0406
60504SOL    HW291443  10.049   5.510  10.205  0.0530  2.3184 -0.6650
60505SOL     OW91444   0.668   1.725   5.359  0.2258  0.0844 -0.4942
60505SOL    HW191445   0.653   1.819   5.369 -0.3008 -0.1269  0.9443
60505SOL    HW291446   0.611   1.699   5.287 -0.2783  0.7265 -0.3363
60506SOL     OW91447   5.601   1.581   0.464  0.4957 -0.6643 -1.1063
60506SOL    HW191448   5.538   1.509   0.469 -0.0535 -0.1571 -0.5116
60506SOL    HW291449   5.621   1.601   0.556 -0.4635  0.8832 -1.1929
60507SOL     OW91450   2.799   0.735  13.011  0.0842 -0.1831 -0.2063
60507SOL    HW191451   2.850   0.811  13.037  0.0586 -0.4297  0.5885
60507SOL    HW291452   2.709   0.757  13.035  0.2735 -1.0408  1.4197
60508SOL     OW91453   8.765   9.962   4.679  0.9201  0.0721 -0.0756
60508SOL    HW191454   8.784  10.052   4.652  1.1106 -0.2349 -1.0070
60508SOL    HW291455   8.803   9.954   4.767  0.8827  0.9016  0.0183
60509SOL     OW91456   4.259   9.558   6.767 -0.5559  0.4139 -0.0324
60509SOL    HW191457   4.318   9.570   6.841 -0.2398 -0.7692 -0.0673
60509SOL    HW291458   4.289   9.621   6.702 -1.1880  1.8609  1.0187
60510SOL     OW91459   2.356   2.521   6.928 -0.0137 -0.0518 -0.0407
60510SOL    HW191460   2.301   2.532   7.005  2.4917  3.6874  1.4910
60510SOL    HW291461   2.425   2.461   6.956  0.5569  0.8307  0.4977
60511SOL     OW91462  11.345   5.751   8.747 -0.1576 -0.2449  0.4033
60511SOL    HW191463  11.293   5.676   8.775 -0.6292 -0.1777 -0.2617
60511SOL    HW291464  11.435   5.721   8.753 -0.3758 -1.1828 -0.7028
60512SOL     OW91465   4.048   8.812  12.497 -0.7344  0.4564  0.0447
60512SOL    HW191466   3.972   8.869  12.486 -1.4077 -0.4286 -0.0060
60512SOL    HW291467   4.075   8.825  12.588 -1.4525  0.1751  0.3045
60513SOL     OW91468  10.430   7.334   1.145 -0.3927 -0.2104 -0.2003
60513SOL    HW191469  10.506   7.305   1.194  0.4767  2.3597  0.1286
60513SOL    HW291470  10.355   7.313   1.201  0.3256 -0.1513  0.8039
60514SOL     OW91471   5.411   7.325   5.690  0.3887  0.5254 -0.3706
60514SOL    HW191472   5.420   7.293   5.780 -1.2429  1.5799  0.2165
60514SOL    HW291473   5.397   7.419   5.699  0.8163  0.7400 -1.7772
60515SOL     OW91474   2.427   9.386   7.211 -0.0102  0.3549 -0.0934
60515SOL    HW191475   2.378   9.464   7.186  0.6945  0.6060 -0.7355
60515SOL    HW291476   2.462   9.406   7.297 -0.3293  0.5139 -0.0014
60516SOL     OW91477   0.640  13.135   6.219 -0.2958  0.4148  0.0171
60516SOL    HW191478   0.715  13.173   6.266  0.2032  1.7365 -1.7439
60516SOL    HW291479   0.576  13.205   6.215 -1.6046 -0.6408  1.3013
60517SOL     OW91480  11.890   4.851   5.342  0.2577  0.2675 -0.3389
60517SOL    HW191481  11.946   4.774   5.338  0.3744  0.3998 -1.4184
60517SOL    HW291482  11.803   4.819   5.319 -0.0943  0.1005  1.1361
60518SOL     OW91483  10.949   5.068   0.453  0.3296  0.4711  0.2471
60518SOL    HW191484  10.993   5.013   0.388  0.5033 -0.2573  0.9593
60518SOL    HW291485  10.983   5.156   0.437 -0.4437  0.5114 -1.3423
60519SOL     OW91486  10.961  10.005   6.044 -0.4716 -0.2907  0.5389
60519SOL    HW191487  11.052   9.997   6.072 -0.6582  0.0691  1.2776
60519SOL    HW291488  10.919  10.056   6.113 -0.4151  2.9622 -1.6277
60520SOL     OW91489  10.938   7.647   8.258  0.4490  0.0026  0.1996
60520SOL    HW191490  10.863   7.593   8.231 -0.7107  2.1807 -1.2342
60520SOL    HW291491  10.914   7.681   8.344  0.3320 -0.2287  0.2601
60521SOL     OW91492   4.278   9.868  10.720 -0.0097  0.1835 -0.2381
60521SOL    HW191493   4.207   9.865  10.656 -1.6003  1.7007  1.3201
60521SOL    HW291494   4.273   9.957  10.757  3.4276  0.7417 -0.7898
60522SOL     OW91495   6.008  11.979   9.314 -0.2124 -0.0108 -0.2667
60522SOL    HW191496   6.039  12.067   9.334  0.3202 -0.2345 -0.0902
60522SOL    HW291497   5.942  11.961   9.381 -0.3974  0.2916 -0.3650
60523SOL     OW91498   0.400   6.874   4.158 -0.3515  0.2871 -0.2558
60523SOL    HW191499   0.369   6.803   4.102  0.2845 -0.0101 -0.2328
60523SOL    HW291500   0.368   6.954   4.116 -2.4979 -0.0445  0.5733
60524SOL     OW91501  10.479   5.916  10.942  0.2809  0.1831  0.1596
60524SOL    HW191502  10.426   5.995  10.956  0.8345  0.7021 -0.5385
60524SOL    HW291503  10.445   5.878  10.862 -0.4071 -0.6609  0.8407
60525SOL     OW91504   9.068   3.069   1.868  0.2324  0.3901 -0.0974
60525SOL    HW191505   9.028   3.033   1.947 -3.6150 -0.5845 -2.2254
60525SOL    HW291506   9.049   3.162   1.871 -0.9150  0.1760 -0.3540
60526SOL     OW91507   1.422   7.252   3.924  0.6496 -0.2892  0.5176
60526SOL    HW191508   1.416   7.271   4.017 -1.0886 -0.0027  0.3768
60526SOL    HW291509   1.506   7.289   3.897  1.6658 -1.2955  2.1414
60527SOL     OW91510   0.099   8.995   1.184 -0.2533  0.0878 -0.5275
60527SOL    HW191511   0.127   8.908   1.155  1.6378  0.7002 -0.7082
60527SOL    HW291512   0.045   9.028   1.112  0.2005 -0.3877 -1.1006
60528SOL     OW91513   4.858  10.408  13.047  0.1826  0.0021 -0.4186
60528SOL    HW191514   4.778  10.461  13.038 -1.2496 -2.0972 -0.9080
60528SOL    HW291515   4.880  10.415  13.140 -2.3157 -1.6380  0.4025
60529SOL     OW91516   4.259   2.680   3.332  0.4353  0.8826  0.5956
60529SOL    HW191517   4.176   2.666   3.377  0.3665 -1.2345 -0.0998
60529SOL    HW291518   4.296   2.758   3.374 -0.9335  0.6429  2.3505
60530SOL     OW91519   3.470   8.188   0.027  0.3238  0.1036 -0.4059
60530SOL    HW191520   3.374   8.188   0.035  0.4534 -0.3352  1.5433
60530SOL    HW291521   3.486   8.169  -0.065 -1.4572 -0.1481 -0.7034
60531SOL     OW91522   7.138  10.431  12.209 -0.1020 -0.2292 -0.0858
60531SOL    HW191523   7.096  10.346  12.219 -0.8804 -0.2727 -2.9406
60531SOL    HW291524   7.078  10.493  12.251 -0.7958 -0.8011 -0.2269
60532SOL     OW91525   2.866   2.315   3.928  0.5242 -0.0264 -0.0326
60532SOL    HW191526   2.794   2.323   3.865 -0.1394 -0.2223  0.6942
60532SOL    HW291527   2.824   2.307   4.013  1.4063 -0.2070  0.4048
60533SOL     OW91528   4.054   6.857  10.193  0.7944 -0.5117 -0.2278
60533SOL    HW191529   4.006   6.940  10.186  0.6366 -0.6437 -0.8227
60533SOL    HW291530   4.028   6.808  10.115  2.1515 -0.4611 -0.7390
60534SOL     OW91531  10.814   8.415   9.488 -0.2304  0.3503  0.2241
60534SOL    HW191532  10.802   8.480   9.557  0.0668  1.1115 -0.4152
60534SOL    HW291533  10.751   8.441   9.420 -1.1343 -0.8976  0.5608
60535SOL     OW91534   3.385   7.156   5.799 -0.6370 -0.1000  0.8328
60535SOL    HW191535   3.305   7.107   5.781 -0.3697 -0.4387  0.5505
60535SOL    HW291536   3.438   7.145   5.720  0.2455 -1.0018  1.5197
60536SOL     OW91537   5.461   8.619   4.463  0.0704  0.2066 -0.2290
60536SOL    HW191538   5.396   8.641   4.530  1.3144 -0.7163  1.3676
60536SOL    HW291539   5.463   8.523   4.462  0.2820  0.2045 -1.4133
60537SOL     OW91540   8.852  10.153  10.910 -0.3823 -0.2274 -0.0554
60537SOL    HW191541   8.810  10.067  10.917 -1.2125  0.1482 -0.2765
60537SOL    HW291542   8.859  10.169  10.816  2.5062 -1.3242 -0.1431
60538SOL     OW91543   1.224  12.371  13.143 -0.2176  0.0397 -0.4671
60538SOL    HW191544   1.205  12.434  13.213  0.6054  1.1270 -1.1880
60538SOL    HW291545   1.317  12.352  13.152 -0.2766 -0.4298 -0.7927
60539SOL     OW91546   1.245   7.912  10.730  0.0223 -0.3293 -0.0694
60539SOL    HW191547   1.223   7.920  10.637  0.6086 -2.5500 -0.4643
60539SOL    HW291548   1.340   7.925  10.732  0.2714 -1.9843 -0.0707
60540SOL     OW91549  11.579   1.032   2.995  0.0766  0.2103 -0.4291
60540SOL    HW191550  11.620   1.084   2.925  0.8045  1.2888  0.7571
60540SOL    HW291551  11.535   0.961   2.949  1.6859  0.0966 -1.8988
60541SOL     OW91552   7.455   5.774  11.010 -0.3098 -0.5487  0.3693
60541SOL    HW191553   7.482   5.707  11.072  0.3117 -1.8141 -1.1962
60541SOL    HW291554   7.414   5.726  10.938 -1.8768  0.9407  0.2078
60542SOL     OW91555  12.956  10.484   1.100 -0.1921 -0.3517  0.4281
60542SOL    HW191556  12.980  10.432   1.023 -1.4829 -0.0697 -0.1892
60542SOL    HW291557  13.012  10.450   1.170  0.2819 -1.3115 -0.3878
60543SOL     OW91558   3.576  12.353   0.789 -0.2251 -0.1338  0.5557
60543SOL    HW191559   3.498  12.325   0.741  0.4510 -1.9879  0.4555
60543SOL    HW291560   3.629  12.400   0.725 -0.7395  0.1485  0.3326
60544SOL     OW91561  10.407  10.318   1.651  0.7153  0.1204  0.3465
60544SOL    HW191562  10.465  10.275   1.588  1.1800  1.1339  0.0685
60544SOL    HW291563  10.465  10.350   1.719  0.4577  0.9220  0.1926
60545SOL     OW91564   0.075   2.258   1.492 -0.1302  0.3154  0.4312
60545SOL    HW191565   0.149   2.201   1.471 -0.9282 -0.5508 -0.0574
60545SOL    HW291566  -0.002   2.210   1.462 -0.7376  2.2304 -1.3081
60546SOL     OW91567   2.513   3.532   6.137 -0.2370  0.0225 -0.1032
60546SOL    HW191568   2.569   3.566   6.067 -0.5903 -2.3306 -1.6665
60546SOL    HW291569   2.492   3.443   6.108  0.2191 -1.3520  3.3771
60547SOL     OW91570  10.118   8.850  13.214 -0.3306  0.2587  0.3085
60547SOL    HW191571  10.057   8.844  13.287  0.1963  0.6024  0.7804
60547SOL    HW291572  10.133   8.944  13.202 -0.9441  0.2381 -0.6878
60548SOL     OW91573   0.363  11.432   3.680 -0.1251 -0.2451 -0.6499
60548SOL    HW191574   0.366  11.463   3.771 -0.3803  0.0563 -0.7412
60548SOL    HW291575   0.315  11.500   3.633  1.8594  0.6700 -1.4509
60549SOL     OW91576   6.126   0.988   6.974 -0.0077 -0.3475  0.3382
60549SOL    HW191577   6.061   1.024   7.034 -0.1941  1.3803 -0.8645
60549SOL    HW291578   6.085   0.992   6.888  0.5535 -2.0956 -0.0594
60550SOL     OW91579  10.696   7.910   9.504  0.3702  0.1396 -0.0755
60550SOL    HW191580  10.619   7.948   9.545  0.1390 -1.3406  0.9558
60550SOL    HW291581  10.767   7.971   9.525  0.1276 -0.2413  2.0288
60551SOL     OW91582   4.317   2.131  13.275  0.1299 -0.1270 -0.2325
60551SOL    HW191583   4.251   2.063  13.258  0.3431  0.0263 -1.8624
60551SOL    HW291584   4.270   2.213  13.263  0.0561  0.0358  1.0054
60552SOL     OW91585   3.785   6.253   4.301 -0.3007 -0.1028  0.2376
60552SOL    HW191586   3.757   6.201   4.226 -0.0911 -0.6497  0.5267
60552SOL    HW291587   3.704   6.293   4.334 -0.6153 -0.9578  0.5364
60553SOL     OW91588  10.507  12.803  11.766 -0.4662 -0.2789 -0.4278
60553SOL    HW191589  10.576  12.850  11.720  1.0199  0.1480  2.0882
60553SOL    HW291590  10.520  12.825  11.858 -2.3440 -2.3086  0.4053
60554SOL     OW91591   1.580   9.865   3.812 -0.1419  0.3939 -0.1347
60554SOL    HW191592   1.564   9.921   3.736  2.2331  0.6385 -0.5449
60554SOL    HW291593   1.537   9.910   3.885  1.5206  2.7597 -0.4906
60555SOL     OW91594   1.147   7.199   6.889  0.0308 -0.0010  0.8474
60555SOL    HW191595   1.056   7.225   6.905 -0.2199 -0.2604 -0.1027
60555SOL    HW291596   1.192   7.219   6.971 -0.5374  1.6557  0.7906
60556SOL     OW91597   9.147   4.527   7.860  0.0636  0.0201  0.5551
60556SOL    HW191598   9.185   4.609   7.888  1.0913  0.2939 -1.4257
60556SOL    HW291599   9.205   4.460   7.896  0.3732  0.2714  0.5299
60557SOL     OW91600  13.043   1.496   4.258  0.0086  0.5674 -0.2252
60557SOL    HW191601  13.004   1.526   4.176  0.6873 -0.0870 -0.8072
60557SOL    HW291602  13.124   1.547   4.266 -0.4921  1.2719  0.5112
60558SOL     OW91603   4.379   4.776   9.582  0.1921 -0.4759  0.5289
60558SOL    HW191604   4.427   4.820   9.652  0.4655 -1.8166  1.2029
60558SOL    HW291605   4.446   4.752   9.518  0.5316 -2.5458  1.5732
60559SOL     OW91606   4.595  11.207   6.762  0.0472  0.0448 -0.1002
60559SOL    HW191607   4.650  11.198   6.684  1.2204 -0.2915  0.7370
60559SOL    HW291608   4.589  11.301   6.776 -0.2939  0.1101 -0.6896
60560SOL     OW91609   1.570   6.954   2.399  0.4759 -0.8100 -0.0080
60560SOL    HW191610   1.478   6.929   2.394 -0.3249  1.2320  2.2071
60560SOL    HW291611   1.590   6.990   2.312 -0.9668 -0.8589 -0.3813
60561SOL     OW91612   7.332   1.968   2.978 -0.6983  0.3950  0.4849
60561SOL    HW191613   7.242   1.998   2.964 -1.3655 -1.4420  0.5555
60561SOL    HW291614   7.348   1.907   2.905  0.7351  1.1879  0.1036
60562SOL     OW91615   4.329   0.595  10.226 -0.1550 -0.1871  0.0570
60562SOL    HW191616   4.298   0.538  10.296 -1.1920  1.0343  0.6352
60562SOL    HW291617   4.251   0.645  10.199  0.9784  2.0272  0.6216
60563SOL     OW91618   0.969  12.106   2.599  0.0705 -0.1619  0.5709
60563SOL    HW191619   0.892  12.153   2.632  1.6080  1.0081  2.7743
60563SOL    HW291620   0.993  12.154   2.520 -0.7690  0.1999  0.5190
60564SOL     OW91621   1.604   7.245   8.090  0.2198  0.3131 -0.6902
60564SOL    HW191622   1.539   7.190   8.133  1.8760 -1.2506 -0.0447
60564SOL    HW291623   1.605   7.326   8.141  1.0421 -0.9053  1.3539
60565SOL     OW91624   7.188  11.159  11.141 -0.3150 -0.4060 -0.2027
60565SOL    HW191625   7.264  11.166  11.083  0.8411 -0.4546  1.2495
60565SOL    HW291626   7.124  11.220  11.104  0.8608  0.5064 -0.8224
60566SOL     OW91627   4.840   5.369  12.685 -0.3506 -0.3034 -0.9262
60566SOL    HW191628   4.756   5.350  12.726  0.3729  1.2610  1.5101
60566SOL    HW291629   4.871   5.284  12.654 -2.3857 -1.0455 -1.0599
60567SOL     OW91630   2.445   7.260   9.920  0.5813 -0.1696  0.2300
60567SOL    HW191631   2.476   7.348   9.941  1.1918 -0.2392 -0.3422
60567SOL    HW291632   2.360   7.254   9.963  1.9611 -0.5149  3.1500
60568SOL     OW91633  12.900  11.823  10.959 -0.4659 -0.1471 -0.1406
60568SOL    HW191634  12.806  11.822  10.940 -0.7154  1.5452  0.7778
60568SOL    HW291635  12.924  11.915  10.957  1.0580 -0.5075  0.2100
60569SOL     OW91636   9.002  13.286  11.159 -0.3756 -0.0683 -1.0843
60569SOL    HW191637   8.979  13.199  11.128 -0.2048 -1.5035  2.4427
60569SOL    HW291638   9.097  13.290  11.151 -0.3873 -0.1754 -1.2826
60570SOL     OW91639   9.771   3.248   5.271 -0.5760 -0.6077  0.0435
60570SOL    HW191640   9.787   3.200   5.353 -2.3243 -0.6080  0.4322
60570SOL    HW291641   9.781   3.182   5.202  0.8724 -0.6162  0.2224
60571SOL     OW91642   5.855  11.437   2.960 -0.0291 -0.5212 -0.3348
60571SOL    HW191643   5.808  11.490   3.024  0.5759 -0.1072 -0.2169
60571SOL    HW291644   5.869  11.353   3.004  1.5625  0.1972  0.6289
60572SOL     OW91645   9.723  13.278   8.757 -0.4015 -0.2991 -0.1354
60572SOL    HW191646   9.655  13.323   8.708 -0.6855  1.6079  1.8436
60572SOL    HW291647   9.679  13.245   8.835  0.2936 -2.0940 -0.4563
60573SOL     OW91648  10.054   9.149   5.366 -0.3925 -0.3129 -0.2559
60573SOL    HW191649  10.092   9.163   5.280  0.0056 -1.5465 -0.2996
60573SOL    HW291650  10.120   9.099   5.414 -1.1288 -0.7422  0.3348
60574SOL     OW91651  10.757  11.089   7.821  0.4307  0.1588 -0.8071
60574SOL    HW191652  10.689  11.142   7.862  0.5551  0.5320 -1.0688
60574SOL    HW291653  10.758  11.118   7.730 -0.8310 -1.6730 -1.4435
60575SOL     OW91654  10.259  10.353   6.259  0.4414 -0.2314 -0.0413
60575SOL    HW191655  10.212  10.420   6.309 -0.8295 -0.4696 -0.8540
60575SOL    HW291656  10.314  10.403   6.198  1.1482  0.0548  0.8121
60576SOL     OW91657   1.915   2.972  10.629  0.1314 -0.0166 -0.4293
60576SOL    HW191658   1.935   3.041  10.693  1.9316 -0.1183 -0.8105
60576SOL    HW291659   1.875   2.902  10.680 -2.3485  1.5151 -0.1361
60577SOL     OW91660  10.211   3.042   9.796  0.5396 -0.2699  0.2544
60577SOL    HW191661  10.307   3.032   9.799  0.5438 -0.2171  0.2954
60577SOL    HW291662  10.189   3.035   9.703  0.6693  0.5004  0.1586
60578SOL     OW91663   0.291   0.874   0.084  0.0777 -0.1491 -0.1517
60578SOL    HW191664   0.301   0.896  -0.008 -2.9423 -1.3886 -0.9162
60578SOL    HW291665   0.337   0.791   0.094  0.8384  0.2373 -0.4163
60579SOL     OW91666   7.953   1.566  10.413  0.4685  0.6117 -0.1142
60579SOL    HW191667   7.995   1.652  10.406  0.8842  0.4214  0.0670
60579SOL    HW291668   8.025   1.504  10.422  0.1756  0.2233 -0.4045
60580SOL     OW91669   6.038   0.949  11.600 -0.3135 -0.2850 -0.8511
60580SOL    HW191670   6.071   1.014  11.662 -0.4658 -1.6111  0.6817
60580SOL    HW291671   5.995   1.001  11.532  0.3249  1.2403 -0.1370
60581SOL     OW91672   2.969   3.080   5.120 -0.1379  0.0795  0.2165
60581SOL    HW191673   3.051   3.070   5.169 -1.3821 -3.1494  1.9447
60581SOL    HW291674   2.928   2.993   5.124 -3.6452  1.5248 -0.6023
60582SOL     OW91675   9.848   0.821  12.222 -0.1109  0.2391  0.2656
60582SOL    HW191676   9.813   0.884  12.285 -1.9270 -0.6637  0.2327
60582SOL    HW291677   9.864   0.873  12.143 -1.5321  0.7007  0.2547
60583SOL     OW91678   0.466   6.465   3.329  0.5031  0.6964  0.2357
60583SOL    HW191679   0.373   6.474   3.313  0.3278  2.0338  1.8037
60583SOL    HW291680   0.507   6.535   3.277  0.4293  1.3908  1.0850
60584SOL     OW91681   8.483   0.574   3.247  0.2412 -0.8336  0.1436
60584SOL    HW191682   8.388   0.568   3.240  0.1009  0.6332  0.4312
60584SOL    HW291683   8.506   0.651   3.196  0.8488  0.9742  2.9133
60585SOL     OW91684   6.258   5.218   4.337 -0.2246  0.0394  0.5162
60585SOL    HW191685   6.216   5.144   4.293 -1.5862  1.9564 -1.6147
60585SOL    HW291686   6.351   5.196   4.337 -0.4484 -1.0710 -1.3655
60586SOL     OW91687   5.530   0.547  11.205  0.1107 -0.2033  0.5579
60586SOL    HW191688   5.561   0.499  11.282 -0.1824  0.3546  1.0253
60586SOL    HW291689   5.497   0.479  11.147  1.4070 -0.7443  0.4107
60587SOL     OW91690   0.793   7.831  12.745  0.4544 -0.1290  0.1947
60587SOL    HW191691   0.741   7.902  12.707  1.7522 -0.3406 -2.0970
60587SOL    HW291692   0.743   7.752  12.727  0.9340 -0.1989 -0.8648
60588SOL     OW91693   1.258  12.480   1.974 -0.3106  0.2422  0.2177
60588SOL    HW191694   1.230  12.389   1.982 -0.7556  0.3661  0.0985
60588SOL    HW291695   1.342  12.475   1.928 -0.5128 -0.0859 -0.1258
60589SOL     OW91696  11.409  11.826   1.920 -0.1154 -0.4484 -0.1866
60589SOL    HW191697  11.376  11.915   1.912 -1.6487 -1.0099 -0.6426
60589SOL    HW291698  11.460  11.825   2.000 -0.2912  0.7794 -0.0489
60590SOL     OW91699   4.577   1.154  12.630 -0.0408 -0.2041  0.3627
60590SOL    HW191700   4.493   1.109  12.627  0.8321 -1.9876  1.1898
60590SOL    HW291701   4.636   1.101  12.576  0.1603  2.0545 -1.8219
60591SOL     OW91702   0.495   8.537   0.517  0.4740  0.5206 -0.5221
60591SOL    HW191703   0.530   8.626   0.515 -0.9559  1.1186 -2.0719
60591SOL    HW291704   0.405   8.548   0.551  0.7764 -0.5661  0.7235
60592SOL     OW91705   0.792   4.524   4.372 -0.5789 -0.0268  0.2533
60592SOL    HW191706   0.883   4.494   4.366 -1.1459 -1.9083  0.4469
60592SOL    HW291707   0.799   4.620   4.379  1.3660 -0.1122  0.1075
60593SOL     OW91708   5.952   5.500   7.146 -0.1926  0.7118 -0.2163
60593SOL    HW191709   5.991   5.443   7.080 -0.5875  0.5902 -0.3497
60593SOL    HW291710   5.857   5.489   7.134 -0.2700  0.7496  0.3127
60594SOL     OW91711   3.240   3.688   7.111  0.0440 -0.7171 -0.4661
60594SOL    HW191712   3.147   3.665   7.115 -0.2182  0.4561  0.7709
60594SOL    HW291713   3.242   3.770   7.062  0.1823  0.2791  1.1316
60595SOL     OW91714   6.421   0.989   2.546 -0.1416 -0.2443  0.1941
60595SOL    HW191715   6.336   0.950   2.525  0.5456 -0.9843 -1.4021
60595SOL    HW291716   6.485   0.931   2.505  1.0395  1.3653 -0.3455
60596SOL     OW91717  11.350   1.630  11.568 -0.2307 -0.3163 -0.2211
60596SOL    HW191718  11.390   1.717  11.569  2.1548 -1.3351  0.4955
60596SOL    HW291719  11.256   1.647  11.572 -0.0744  2.2920 -3.4290
60597SOL     OW91720  11.267  11.735   5.683  0.0486  0.3908  0.3799
60597SOL    HW191721  11.321  11.745   5.761  0.1188  0.3033  0.3415
60597SOL    HW291722  11.317  11.676   5.626 -0.0344  0.3996  0.2978
60598SOL     OW91723   2.522  12.243   5.899  0.4269  0.1189  0.6973
60598SOL    HW191724   2.499  12.333   5.920 -1.2914 -0.2516  0.5765
60598SOL    HW291725   2.438  12.199   5.887  1.2393 -1.0134 -1.3665
60599SOL     OW91726  10.040   4.744   3.595 -0.1984 -0.0524  0.0829
60599SOL    HW191727  10.041   4.757   3.500  1.3509  0.5177  0.1539
60599SOL    HW291728  10.026   4.832   3.630 -0.2592 -0.1845  0.3870
60600SOL     OW91729   3.698   6.423   1.396 -0.2078 -0.8572  0.6898
60600SOL    HW191730   3.699   6.472   1.478 -0.2299 -0.3856  0.4084
60600SOL    HW291731   3.786   6.435   1.359 -0.3273 -0.7345  0.4452
60601SOL     OW91732   7.141   4.253   0.133 -0.0849 -0.8867  0.2786
60601SOL    HW191733   7.199   4.207   0.194  0.5874  0.4315  0.6722
60601SOL    HW291734   7.151   4.206   0.051 -0.8980 -2.6206  1.1227
60602SOL     OW91735   8.432   0.795   2.307 -0.3273  0.3597 -0.5678
60602SOL    HW191736   8.423   0.833   2.220  0.9087 -1.1800 -1.4355
60602SOL    HW291737   8.519   0.754   2.306 -0.1978  0.4790  1.4755
60603SOL     OW91738   2.283   0.431  11.770  0.3420 -0.1313 -0.4919
60603SOL    HW191739   2.205   0.469  11.728  0.5488 -0.2991 -1.0341
60603SOL    HW291740   2.249   0.358  11.822 -0.0021  0.5172  0.2002
60604SOL     OW91741   8.006   6.017  13.083 -0.5768  0.7932  0.1767
60604SOL    HW191742   8.049   5.941  13.044  0.1359  1.3908 -0.2224
60604SOL    HW291743   8.028   6.090  13.025 -0.0454  1.5749  1.3248
60605SOL     OW91744   3.469   9.181   6.326 -0.2761  0.1283 -0.7070
60605SOL    HW191745   3.556   9.149   6.351 -0.7975 -0.3504  0.6203
60605SOL    HW291746   3.476   9.276   6.330  0.4791  0.1311 -1.7250
60606SOL     OW91747   0.699   9.482   2.861 -0.3063  0.7329 -0.4253
60606SOL    HW191748   0.775   9.516   2.815  0.3177 -0.2449 -0.1565
60606SOL    HW291749   0.640   9.557   2.870  1.0542  1.7544  0.2704
60607SOL     OW91750   3.746   3.457   1.468  0.3361 -0.0025 -0.3675
60607SOL    HW191751   3.696   3.458   1.550  1.9908 -0.2734  0.6919
60607SOL    HW291752   3.796   3.538   1.469  1.1283 -0.4789 -0.6011
60608SOL     OW91753   7.263   7.085  11.010 -0.5544 -0.5244 -0.0980
60608SOL    HW191754   7.219   7.007  11.044  1.2443 -2.3477 -1.6347
60608SOL    HW291755   7.351   7.081  11.048  0.5889 -1.0862 -2.5703
60609SOL     OW91756   5.110   0.439   9.425 -0.8392  0.0189 -0.1609
60609SOL    HW191757   5.174   0.499   9.387 -0.7274 -0.2922 -0.4741
60609SOL    HW291758   5.027   0.464   9.384 -0.8043  0.0048 -0.2397
60610SOL     OW91759   0.936   3.762  12.087  0.9451  0.1621  0.0356
60610SOL    HW191760   1.032   3.770  12.089  0.8302  1.7748  0.1156
60610SOL    HW291761   0.909   3.819  12.015 -0.0948  1.6252  1.5254
60611SOL     OW91762  11.439   0.716  10.389 -0.6828 -0.0304 -0.2355
60611SOL    HW191763  11.348   0.739  10.369 -0.5913  1.0240  0.4875
60611SOL    HW291764  11.479   0.798  10.416  0.5029 -0.4800 -0.5633
60612SOL     OW91765   4.850   8.907   0.533  0.7112  0.3163 -0.4465
60612SOL    HW191766   4.797   8.979   0.567 -1.4518 -1.0889 -0.6645
60612SOL    HW291767   4.880   8.938   0.447 -1.1698  0.5475 -1.0603
60613SOL     OW91768  11.844  12.814  11.505  0.1315 -0.2588  0.3680
60613SOL    HW191769  11.904  12.865  11.450 -0.3846  0.8082  0.7512
60613SOL    HW291770  11.834  12.867  11.584 -0.1622 -1.1408  0.9403
60614SOL     OW91771   7.574   2.211   0.066  0.0858  0.2739  0.5772
60614SOL    HW191772   7.622   2.131   0.087 -1.2499 -0.6960  0.0063
60614SOL    HW291773   7.482   2.184   0.060 -0.4841  1.9775  1.0611
60615SOL     OW91774   4.245   9.224   1.191  0.5222  0.3283  0.4212
60615SOL    HW191775   4.329   9.185   1.169  1.4635  1.3966  1.9279
60615SOL    HW291776   4.267   9.303   1.240 -1.3422  1.4720 -0.4548
60616SOL     OW91777   4.069   3.497   5.269  0.1813 -0.1885 -0.0261
60616SOL    HW191778   4.015   3.573   5.289  0.4160 -0.3741  1.4100
60616SOL    HW291779   4.101   3.513   5.180  0.0733  1.2917  0.1716
60617SOL     OW91780   3.823   5.409   1.242 -0.2556 -0.0044 -0.4765
60617SOL    HW191781   3.803   5.450   1.158  1.0869  0.8960 -0.3827
60617SOL    HW291782   3.827   5.482   1.304  0.1861 -0.4961  0.0880
60618SOL     OW91783   6.828   5.670   0.274  0.0981 -0.0191 -0.3642
60618SOL    HW191784   6.796   5.591   0.230 -1.0768  0.1390  0.1706
60618SOL    HW291785   6.750   5.708   0.314  1.0129  0.1749  1.3365
60619SOL     OW91786   8.317   5.953   4.863  0.3543 -0.0208  0.2949
60619SOL    HW191787   8.272   5.965   4.946 -0.1420 -1.7399  0.3096
60619SOL    HW291788   8.393   6.012   4.868 -0.6996  1.3138  1.1523
60620SOL     OW91789   0.784   5.620   2.015  0.2322 -0.0534 -0.1663
60620SOL    HW191790   0.694   5.648   2.002  0.1919  0.7647  1.5881
60620SOL    HW291791   0.782   5.525   2.001 -0.2735  0.3012 -2.9756
60621SOL     OW91792   9.354  13.086   3.651  0.5036  0.2658 -0.3320
60621SOL    HW191793   9.443  13.090   3.616  0.5569  0.2804 -0.1934
60621SOL    HW291794   9.354  13.147   3.724  1.1952 -1.7973  1.5193
60622SOL     OW91795   9.765   3.129   1.230  0.6000  0.2276 -0.0729
60622SOL    HW191796   9.844   3.155   1.278  0.9624 -0.2929 -0.3856
60622SOL    HW291797   9.712   3.082   1.295  0.8189  0.0536 -0.0196
60623SOL     OW91798   3.250   4.274   1.524  0.1051 -0.4151 -0.0412
60623SOL    HW191799   3.250   4.179   1.511  0.7903 -0.1721 -2.1562
60623SOL    HW291800   3.254   4.285   1.619  0.9671 -2.5043  0.2139
60624SOL     OW91801  10.187   8.709   9.492  0.4584 -0.8631 -0.2394
60624SOL    HW191802  10.181   8.664   9.408 -1.4756 -0.4030 -0.3886
60624SOL    HW291803  10.104   8.691   9.536  0.9589 -0.1249  1.0898
60625SOL     OW91804   6.730   9.221   5.479 -0.7658 -0.3149  0.2573
60625SOL    HW191805   6.819   9.188   5.495 -1.4801 -2.7558 -0.3999
60625SOL    HW291806   6.705   9.263   5.562 -0.4682 -3.2520  1.9842
60626SOL     OW91807   8.545   5.743   0.320 -0.0633 -0.0148 -0.0415
60626SOL    HW191808   8.452   5.731   0.338  0.2431 -0.2489  1.4566
60626SOL    HW291809   8.549   5.827   0.272 -0.9147  0.7565  1.1773
60627SOL     OW91810   1.751   3.496   5.480  0.2912  0.5904 -0.1502
60627SOL    HW191811   1.813   3.477   5.550  0.7978 -1.3061 -1.0491
60627SOL    HW291812   1.755   3.591   5.470  1.8428  0.6758  0.9013
60628SOL     OW91813  10.570  12.084   4.321 -0.6395 -0.4570  0.1350
60628SOL    HW191814  10.616  12.068   4.403  1.0156  0.4478 -0.5788
60628SOL    HW291815  10.584  12.005   4.269 -0.9128 -0.6591  0.3664
60629SOL     OW91816   5.912   7.187   2.816  0.3795 -0.3754  0.1482
60629SOL    HW191817   5.902   7.190   2.911  0.3926 -2.2206  0.2347
60629SOL    HW291818   6.006   7.196   2.801  0.3180  0.5750  0.2448
60630SOL     OW91819  10.316  11.526  12.624 -0.1791 -0.3289  0.1250
60630SOL    HW191820  10.223  11.549  12.620 -0.1523  0.0113  1.2942
60630SOL    HW291821  10.358  11.586  12.562 -0.5337  0.5847  0.7670
60631SOL     OW91822  12.825   4.306  12.368  0.2480  0.1112 -0.2640
60631SOL    HW191823  12.791   4.239  12.309 -1.4217 -0.0639  0.8186
60631SOL    HW291824  12.875   4.365  12.312 -1.6758  0.2246 -1.9640
60632SOL     OW91825  11.179   2.404   1.654 -0.2532  0.1579  0.2909
60632SOL    HW191826  11.219   2.490   1.671  0.1062 -0.0584  0.5844
60632SOL    HW291827  11.197   2.387   1.562 -0.6435  0.5597  0.1410
60633SOL     OW91828  10.480   2.582   3.446 -0.4311  0.2895  0.0256
60633SOL    HW191829  10.533   2.635   3.386 -0.9878 -0.4171 -1.1379
60633SOL    HW291830  10.544   2.533   3.498  0.1011 -0.3641 -1.1867
60634SOL     OW91831  10.580   0.033   8.062  0.7438  0.7143  0.5212
60634SOL    HW191832  10.657   0.069   8.019  0.8046  2.4744  1.9971
60634SOL    HW291833  10.533  -0.013   7.992  2.4141  0.7681 -0.6958
60635SOL     OW91834   6.691   2.600   0.434  0.8864 -0.1797 -0.1548
60635SOL    HW191835   6.705   2.550   0.514 -1.9215 -1.4565 -0.3726
60635SOL    HW291836   6.717   2.690   0.457 -2.0392  0.0415  3.0245
60636SOL     OW91837   9.535   7.287   3.773 -0.0536 -0.1024  0.4205
60636SOL    HW191838   9.477   7.227   3.726 -0.7704  1.2225 -0.4171
60636SOL    HW291839   9.615   7.288   3.720  0.0872 -0.5410  0.6129
60637SOL     OW91840  12.834   5.897  11.730 -0.0319 -0.5852  0.1398
60637SOL    HW191841  12.865   5.828  11.788  0.0370 -1.4534 -0.9151
60637SOL    HW291842  12.777   5.853  11.667 -0.2095  0.3586 -0.3784
60638SOL     OW91843   4.771   4.644  13.309 -0.4265 -0.3397 -0.3554
60638SOL    HW191844   4.712   4.716  13.286 -1.6021 -0.8704  0.8356
60638SOL    HW291845   4.853   4.686  13.331 -1.1381  0.6773  0.4470
60639SOL     OW91846   6.724  13.246   7.380  0.1219 -0.2612 -0.1712
60639SOL    HW191847   6.649  13.201   7.341 -0.8234  1.5430 -0.5818
60639SOL    HW291848   6.742  13.319   7.320 -1.7929  3.0218  2.8355
60640SOL     OW91849  11.687   1.948  11.326 -0.2559 -0.1250 -0.4134
60640SOL    HW191850  11.629   1.901  11.266 -0.4141 -0.1223 -0.2636
60640SOL    HW291851  11.722   1.880  11.384 -0.5626 -0.0463 -0.1322
60641SOL     OW91852   5.902   5.678   4.663 -0.7542  0.3673 -0.2738
60641SOL    HW191853   5.973   5.625   4.699 -1.4666  0.2227  0.9724
60641SOL    HW291854   5.866   5.624   4.592  0.3528  0.4394 -0.9071
60642SOL     OW91855   5.142  10.178   2.823 -0.1558 -0.2272 -0.0959
60642SOL    HW191856   5.106  10.252   2.873  1.3305 -0.5445  1.5654
60642SOL    HW291857   5.224  10.211   2.787  0.2755 -0.8945  0.2471
60643SOL     OW91858  11.919  12.210   3.745  0.2091 -0.3856 -0.2022
60643SOL    HW191859  11.880  12.126   3.717 -1.2098  0.4321 -0.7957
60643SOL    HW291860  12.013  12.195   3.740  0.0299 -2.5188  1.4921
60644SOL     OW91861  10.826   5.614   9.863  0.2250  0.8719 -0.5307
60644SOL    HW191862  10.772   5.541   9.833  1.2585 -0.7639  1.2787
60644SOL    HW291863  10.774   5.657   9.931  0.4304  0.4666 -0.1088
60645SOL     OW91864   8.743  13.190   6.819  0.1690  0.3576  0.3897
60645SOL    HW191865   8.794  13.125   6.770  1.6215  0.2712  1.9041
60645SOL    HW291866   8.722  13.258   6.756 -0.9129 -1.2845 -1.1140
60646SOL     OW91867   5.930  12.902   0.548  0.7769  0.2650  0.1283
60646SOL    HW191868   5.903  12.867   0.463  0.9979  0.1560  0.1020
60646SOL    HW291869   6.026  12.894   0.548  0.8118  0.6549  0.2166
60647SOL     OW91870   8.432   8.656   7.226 -0.3978 -0.5889  0.0412
60647SOL    HW191871   8.419   8.578   7.280  0.1477 -1.4374 -1.0124
60647SOL    HW291872   8.346   8.673   7.188 -0.3490 -1.1711 -0.3521
60648SOL     OW91873  11.513  10.347  11.466 -0.2490  0.1606 -0.0983
60648SOL    HW191874  11.525  10.388  11.552  0.9201 -1.2738  0.4709
60648SOL    HW291875  11.420  10.323  11.464 -0.2975  0.2260  0.7781
60649SOL     OW91876   7.136   1.884   8.781  0.1675 -0.4071 -0.1776
60649SOL    HW191877   7.212   1.835   8.811 -0.3776 -0.3254  1.4200
60649SOL    HW291878   7.061   1.834   8.812 -0.4205  0.2326 -0.5339
60650SOL     OW91879   7.354   1.225  10.404  0.1197  0.0793 -0.0216
60650SOL    HW191880   7.435   1.194  10.445 -0.1276 -0.9837 -0.2869
60650SOL    HW291881   7.304   1.263  10.476 -1.3292 -3.8320  1.2968
60651SOL     OW91882   1.758  12.703  10.151 -0.3321 -0.1783  0.0165
60651SOL    HW191883   1.851  12.699  10.129 -0.0120 -2.4664  1.4716
60651SOL    HW291884   1.747  12.640  10.222 -2.6627  1.3863  1.2076
60652SOL     OW91885  11.574   7.777   4.251 -0.6183  0.5242 -0.3369
60652SOL    HW191886  11.575   7.824   4.168 -2.2429 -1.9860 -1.9393
60652SOL    HW291887  11.613   7.692   4.230 -0.6355  0.0089  1.6023
60653SOL     OW91888  10.355   6.193   0.056 -0.0454 -0.3041 -0.4492
60653SOL    HW191889  10.377   6.285   0.068  0.3481 -0.1812 -1.9324
60653SOL    HW291890  10.272   6.182   0.103 -0.2904  0.9048 -0.5559
60654SOL     OW91891   8.948   4.093   1.322  0.2789 -0.3271  0.2320
60654SOL    HW191892   8.957   3.998   1.325 -0.1251 -0.3572  0.5636
60654SOL    HW291893   8.862   4.110   1.360  0.6900  0.2283  0.9422
60655SOL     OW91894   2.133   4.226   3.323 -0.4724  0.0795 -0.1264
60655SOL    HW191895   2.048   4.267   3.308 -0.2761  0.2585 -0.7546
60655SOL    HW291896   2.111   4.137   3.352 -0.8767  0.1588 -0.1787
60656SOL     OW91897  13.077  11.814  11.655 -1.1054  0.4223  0.3814
60656SOL    HW191898  13.100  11.898  11.615  1.5089 -0.0997  0.6498
60656SOL    HW291899  13.062  11.755  11.581 -1.0888  0.6613  0.1872
60657SOL     OW91900   0.425   1.635   8.090  0.3329 -0.3144  0.1917
60657SOL    HW191901   0.480   1.564   8.057  0.2262 -0.7414  0.9080
60657SOL    HW291902   0.433   1.629   8.186  0.7294  0.9587  0.2623
60658SOL     OW91903   8.065  12.333   6.908  0.0385 -0.4442 -0.0086
60658SOL    HW191904   8.036  12.414   6.950 -1.0922 -1.5103  1.3746
60658SOL    HW291905   8.042  12.344   6.816 -0.5112  0.6104  0.2393
60659SOL     OW91906   6.662   7.540   0.924 -0.5577  0.4755  0.1223
60659SOL    HW191907   6.663   7.525   1.019  0.6997 -1.0703 -0.0999
60659SOL    HW291908   6.692   7.458   0.886  0.9562  1.7125 -1.5303
60660SOL     OW91909   7.544   1.464   1.264 -0.1097 -0.3331 -0.7702
60660SOL    HW191910   7.522   1.432   1.352  2.8363  0.5583  0.4357
60660SOL    HW291911   7.510   1.553   1.261  1.3498  0.3061  0.2643
60661SOL     OW91912   4.051   6.399   9.669  0.1200 -0.1618 -0.0894
60661SOL    HW191913   4.145   6.388   9.650  0.1136  2.7954 -2.7085
60661SOL    HW291914   4.007   6.343   9.606  0.1063 -0.5093  0.2257
60662SOL     OW91915  12.600   9.094   6.913  0.2205  0.1560  0.3217
60662SOL    HW191916  12.561   9.172   6.953 -2.0554 -1.3053  1.1357
60662SOL    HW291917  12.675   9.128   6.863  0.5480  2.5907  2.2534
60663SOL     OW91918   9.623   9.517   6.458 -0.2173 -0.2330  0.3890
60663SOL    HW191919   9.552   9.500   6.519 -1.1906 -2.0935 -1.1532
60663SOL    HW291920   9.587   9.578   6.395  0.4563  0.8943  1.0702
60664SOL     OW91921   0.844   4.284   8.261  0.0001  0.3650  0.0855
60664SOL    HW191922   0.858   4.285   8.167  0.8706 -0.4213  0.1886
60664SOL    HW291923   0.932   4.281   8.299 -0.3528 -0.2948  0.8939
60665SOL     OW91924   1.582   4.032   2.941  0.4146 -0.0185 -0.4674
60665SOL    HW191925   1.653   3.968   2.936 -0.3930 -0.9961  0.0858
60665SOL    HW291926   1.625   4.114   2.965  1.5659 -0.1651 -1.9060
60666SOL     OW91927   3.039  13.092   9.475 -0.0128 -1.0223  0.1663
60666SOL    HW191928   3.020  13.179   9.509 -0.6291 -1.7989  1.9057
60666SOL    HW291929   3.101  13.054   9.536 -1.7096 -2.7244  0.9493
60667SOL     OW91930   1.204  10.996   2.946  0.2822 -0.1123 -0.4458
60667SOL    HW191931   1.239  10.920   2.992  0.3420 -0.1210 -0.5059
60667SOL    HW291932   1.131  11.025   3.000 -0.2860 -0.7300 -0.8749
60668SOL     OW91933   2.829  11.963  12.248  0.0149  0.3108 -0.3281
60668SOL    HW191934   2.844  12.002  12.334 -0.3242  1.5178 -0.7901
60668SOL    HW291935   2.793  11.876  12.266  1.4558 -0.0909  0.7450
60669SOL     OW91936   2.251   9.754   3.872 -0.2373 -0.2605  0.3409
60669SOL    HW191937   2.174   9.698   3.859 -0.8685  0.5002  0.7038
60669SOL    HW291938   2.320   9.713   3.821 -0.9029 -0.9381 -0.0246
60670SOL     OW91939   8.288   5.698   3.029 -0.1353 -0.5004  0.7307
60670SOL    HW191940   8.290   5.672   3.121 -1.2497 -0.6517  0.7276
60670SOL    HW291941   8.280   5.615   2.981 -2.6224 -0.2951  0.6696
60671SOL     OW91942   4.381   5.158   0.802  0.0956 -0.5391  0.0338
60671SOL    HW191943   4.394   5.218   0.875 -1.4928  0.0052 -0.0923
60671SOL    HW291944   4.466   5.116   0.790  0.1499 -1.5160  2.9581
60672SOL     OW91945  10.138  12.403  13.206 -0.1535  0.1235 -0.7061
60672SOL    HW191946  10.118  12.315  13.172  0.5067  0.2975 -1.5905
60672SOL    HW291947  10.218  12.428  13.160  0.7527  0.4017  0.9679
60673SOL     OW91948   6.879   5.539   5.938  0.3222 -0.7445 -0.3178
60673SOL    HW191949   6.818   5.514   5.869  2.6069 -1.0115 -2.3566
60673SOL    HW291950   6.889   5.634   5.928  0.7236 -0.7954 -0.4114
60674SOL     OW91951  12.779  11.723   6.397 -0.1970 -0.2330  0.8154
60674SOL    HW191952  12.695  11.696   6.435 -0.1762 -1.0551  0.3126
60674SOL    HW291953  12.841  11.716   6.470 -1.2144  4.7208  2.5301
60675SOL     OW91954   1.211   7.918  10.463 -0.1723 -0.6458  0.2903
60675SOL    HW191955   1.204   7.971  10.383 -2.7633 -2.3363 -0.7256
60675SOL    HW291956   1.279   7.854  10.443  0.2682 -0.1056  0.0387
60676SOL     OW91957  12.624  11.524   9.960  0.3327 -0.3590 -0.7207
60676SOL    HW191958  12.613  11.517   9.865  0.2462 -1.1597 -0.6606
60676SOL    HW291959  12.593  11.612   9.981 -1.8789 -0.9814 -1.1348
60677SOL     OW91960  10.818   5.276   3.882  0.3838 -0.3882 -0.4546
60677SOL    HW191961  10.728   5.263   3.912  1.0071  0.4766  1.9940
60677SOL    HW291962  10.851   5.187   3.866  0.4330 -1.1539  3.0611
60678SOL     OW91963   1.518  13.228   7.942 -0.0025  0.0520 -0.1725
60678SOL    HW191964   1.602  13.239   7.987 -0.2601 -0.1336  0.3681
60678SOL    HW291965   1.468  13.169   7.999 -0.6783  0.5446 -0.2358
60679SOL     OW91966   4.086   0.831  10.542  0.2771 -0.4399  0.3937
60679SOL    HW191967   4.056   0.815  10.631  0.0689 -0.5918  0.2954
60679SOL    HW291968   4.153   0.899  10.552  0.8461 -1.0389  0.7559
60680SOL     OW91969   7.619  12.022   6.955 -0.3600  0.1672 -0.4049
60680SOL    HW191970   7.698  11.973   6.931  0.5271  0.0028  2.5102
60680SOL    HW291971   7.559  11.956   6.987 -1.2836  0.4359 -1.5168
60681SOL     OW91972   1.887   4.030   8.602 -0.0222  0.2251  0.5969
60681SOL    HW191973   1.960   4.017   8.663 -0.2693  0.6711  0.9993
60681SOL    HW291974   1.929   4.049   8.518  0.3318 -1.7262  0.2946
60682SOL     OW91975   0.374  11.300   7.788  0.2155  0.4545 -0.2442
60682SOL    HW191976   0.363  11.205   7.794  1.3658  0.3774  1.2797
60682SOL    HW291977   0.286  11.335   7.776 -0.2891 -0.7596 -0.1204
60683SOL     OW91978   3.593   8.978   0.065  0.1230  0.0750 -0.0196
60683SOL    HW191979   3.628   9.048   0.011  1.4216 -0.5271  0.0024
60683SOL    HW291980   3.570   8.909   0.003 -1.0834  0.4637 -0.0351
60684SOL     OW91981   5.056   2.346   1.973 -0.8632 -0.7343  0.2983
60684SOL    HW191982   5.051   2.438   2.000  1.7182 -0.4981  0.1940
60684SOL    HW291983   5.071   2.298   2.055  0.8909 -0.6788  0.0468
60685SOL     OW91984   9.691   4.898   4.829 -0.2857  0.0469  0.5542
60685SOL    HW191985   9.720   4.962   4.895  0.0966  0.1390  0.2972
60685SOL    HW291986   9.595   4.907   4.828 -0.3113 -0.0901  1.2332
60686SOL     OW91987  10.205   6.268   7.678  0.2512 -0.6151  0.7710
60686SOL    HW191988  10.270   6.260   7.608 -0.6151 -1.4320  0.0339
60686SOL    HW291989  10.159   6.184   7.678  0.6011 -0.8509  2.7262
60687SOL     OW91990   3.922   8.176   5.516  0.0381  0.3023 -0.0269
60687SOL    HW191991   3.849   8.228   5.550 -0.8816  0.7026 -2.4336
60687SOL    HW291992   3.989   8.240   5.493  0.4493  0.0769  0.5121
60688SOL     OW91993  11.236   8.266   0.492 -0.4747 -0.1890 -0.2728
60688SOL    HW191994  11.191   8.195   0.538  0.0427 -0.0795  0.4292
60688SOL    HW291995  11.291   8.306   0.560  0.8222 -0.4465 -1.1374
60689SOL     OW91996   3.375   2.971   9.037  0.5993  0.2831 -0.3121
60689SOL    HW191997   3.358   2.904   8.971  2.0569 -0.0303 -0.4014
60689SOL    HW291998   3.462   3.004   9.016  0.3825  1.3894  0.4368
60690SOL     OW91999   1.302   5.305   2.602  0.7055  0.4262  0.7392
60690SOL    HW192000   1.321   5.260   2.520 -0.0025  0.5786  0.4826
60690SOL    HW292001   1.356   5.261   2.667  1.0346  0.0985  0.2484
60691SOL     OW92002   2.488  11.529  12.379  0.4289  0.0999  0.0520
60691SOL    HW192003   2.533  11.483  12.449  1.6172 -0.9829 -1.3495
60691SOL    HW292004   2.544  11.603  12.358  1.1027 -0.6671 -0.9989
60692SOL     OW92005   6.705   3.653  12.548  0.2187  0.1225 -0.5032
60692SOL    HW192006   6.659   3.569  12.552  1.2771 -0.5363 -1.3351
60692SOL    HW292007   6.730   3.662  12.456  1.4727  0.5916 -0.1359
60693SOL     OW92008   4.999   3.563  12.431 -0.1670 -0.0098 -0.4466
60693SOL    HW192009   4.938   3.521  12.492 -0.2255 -3.1535 -2.4027
60693SOL    HW292010   5.083   3.564  12.477 -0.2936 -1.9381 -0.1023
60694SOL     OW92011   9.470   9.537  10.005  0.6444  0.4876 -0.0049
60694SOL    HW192012   9.386   9.558   9.964  0.9191 -0.4509 -1.0980
60694SOL    HW292013   9.513   9.479   9.943 -0.2186 -3.7378  2.9403
60695SOL     OW92014   1.440   6.832   6.610  0.7081 -0.0266 -0.1945
60695SOL    HW192015   1.398   6.858   6.527  1.1163 -0.3087 -0.4926
60695SOL    HW292016   1.517   6.888   6.615  0.0384  0.8477  0.6024
60696SOL     OW92017  11.595   5.576  10.948  0.1185  0.0850  0.0766
60696SOL    HW192018  11.521   5.577  10.888  1.1550  1.9897 -1.2734
60696SOL    HW292019  11.596   5.664  10.987  1.8093  0.2065 -0.1486
60697SOL     OW92020   4.637   5.922  10.668  0.2796  0.8084  0.2511
60697SOL    HW192021   4.564   5.891  10.616  0.2366 -1.3346  1.4938
60697SOL    HW292022   4.713   5.913  10.611  0.0673 -0.3892  0.1445
60698SOL     OW92023   0.157   1.986   6.658  0.1741 -0.3329  0.8238
60698SOL    HW192024   0.175   2.074   6.689  2.4136 -0.8578  1.1649
60698SOL    HW292025   0.135   1.997   6.565 -0.5276  0.6367  1.0853
60699SOL     OW92026   3.400   8.958   2.995  0.2079 -0.4735  0.1109
60699SOL    HW192027   3.349   9.023   2.946 -0.0923 -1.4079 -0.8404
60699SOL    HW292028   3.426   9.004   3.075 -0.9680  0.4559 -0.0133
60700SOL     OW92029   0.167   1.335   9.816 -0.1488  0.2916 -0.2690
60700SOL    HW192030   0.099   1.270   9.800 -0.9008  0.8752  0.4679
60700SOL    HW292031   0.227   1.293   9.878 -1.2787  0.6913  1.1462
60701SOL     OW92032  10.720   8.666   2.671 -0.6914 -0.0590 -0.4359
60701SOL    HW192033  10.782   8.626   2.609  0.1423 -0.3773  0.5770
60701SOL    HW292034  10.663   8.719   2.616 -0.3770 -0.8367 -1.5557
60702SOL     OW92035   0.535   8.666   7.189  0.1028  0.3667 -0.0961
60702SOL    HW192036   0.579   8.749   7.206 -1.7045  1.6987 -1.5124
60702SOL    HW292037   0.518   8.630   7.276  1.2497  1.2593  0.5398
60703SOL     OW92038   1.147   4.008   4.189  0.5462 -0.2372 -0.3345
60703SOL    HW192039   1.193   4.057   4.121  0.6216  1.2610  0.7367
60703SOL    HW292040   1.054   4.015   4.165  0.2451  2.9219  1.1987
60704SOL     OW92041  12.788   2.082   8.779 -0.2610  0.1713 -0.8331
60704SOL    HW192042  12.845   2.148   8.740 -1.5496  0.3764 -2.5044
60704SOL    HW292043  12.811   2.001   8.733  0.3268 -0.2651  0.2011
60705SOL     OW92044   8.685   2.380   0.215 -0.1036 -0.1792 -0.3521
60705SOL    HW192045   8.644   2.293   0.220  0.3017 -0.3355  0.4728
60705SOL    HW292046   8.662   2.422   0.298  1.0351 -0.1103 -0.0597
60706SOL     OW92047   1.910   5.510  11.691  0.0666  0.2546 -0.7155
60706SOL    HW192048   1.833   5.474  11.647  0.2266 -0.3835 -0.4775
60706SOL    HW292049   1.877   5.542  11.775  0.3943 -1.8424  0.2554
60707SOL     OW92050   2.606   3.952  13.188 -0.2193  0.1505  0.3559
60707SOL    HW192051   2.664   3.904  13.130 -0.4050 -0.3464  0.5733
60707SOL    HW292052   2.650   4.036  13.202 -0.1834  0.2770 -0.5017
60708SOL     OW92053   7.948   8.284   1.918 -1.1260 -0.5202  0.4992
60708SOL    HW192054   8.040   8.263   1.906 -1.1658 -1.4859  1.6732
60708SOL    HW292055   7.943   8.379   1.905 -0.1514 -0.5982 -0.5403
60709SOL     OW92056   7.714  12.137   9.605 -0.4484 -0.5036  0.1490
60709SOL    HW192057   7.647  12.151   9.672 -0.2514 -0.0771  0.2609
60709SOL    HW292058   7.679  12.066   9.551 -2.1741  1.2649 -1.2624
60710SOL     OW92059   6.052   3.622   2.377  0.3711  0.3934 -0.0579
60710SOL    HW192060   6.086   3.658   2.459 -0.2891  0.4611  0.1870
60710SOL    HW292061   6.121   3.562   2.348  0.9864  1.0030  0.1023
60711SOL     OW92062   2.360   5.324   6.825  0.0741 -0.0593  0.1198
60711SOL    HW192063   2.428   5.271   6.782  0.1723  0.0366  0.1572
60711SOL    HW292064   2.319   5.372   6.753  0.6236  0.5435  0.1936
60712SOL     OW92065   0.567  11.816   2.295 -0.2423  0.0846 -0.0129
60712SOL    HW192066   0.572  11.911   2.306 -1.8346  0.4094 -1.5928
60712SOL    HW292067   0.523  11.785   2.374  0.3615  0.6503  0.5490
60713SOL     OW92068   9.560   3.250   0.890 -0.0950 -0.0318  0.2064
60713SOL    HW192069   9.549   3.222   0.980 -2.9751 -2.0453 -0.6424
60713SOL    HW292070   9.581   3.169   0.842  1.2130  0.9634 -0.9938
60714SOL     OW92071   1.083   8.396   8.960  0.0960 -0.1099 -0.1618
60714SOL    HW192072   1.115   8.311   8.932 -0.7963 -1.8327  3.4173
60714SOL    HW292073   0.994   8.401   8.927  0.7219  0.3687 -1.9235
60715SOL     OW92074   5.355  11.748   3.737 -0.4157  0.0262 -0.1610
60715SOL    HW192075   5.362  11.713   3.826  0.6542 -0.2322 -0.3320
60715SOL    HW292076   5.291  11.819   3.744 -1.1139 -0.6561  0.5990
60716SOL     OW92077   1.819   4.271   1.016  0.7694 -0.0837 -0.1693
60716SOL    HW192078   1.725   4.254   1.010  0.4623  1.2433  0.3770
60716SOL    HW292079   1.852   4.201   1.073  0.0944 -0.5027 -0.2803
60717SOL     OW92080   0.461   6.768  12.478 -0.1439  0.6909  0.4813
60717SOL    HW192081   0.550   6.794  12.501  0.1912  0.2796 -0.3221
60717SOL    HW292082   0.428   6.724  12.557 -0.2421  2.2718  1.3699
60718SOL     OW92083   8.189  12.781   6.909  0.2491 -0.0290 -0.2911
60718SOL    HW192084   8.100  12.817   6.900 -1.4462 -2.9292  2.5828
60718SOL    HW292085   8.195  12.715   6.840  0.0864  0.0598 -0.3908
60719SOL     OW92086   9.064   6.853   0.354  0.5983  0.2642  0.4639
60719SOL    HW192087   9.037   6.846   0.446  0.9398  0.4219  0.5787
60719SOL    HW292088   9.016   6.784   0.309  1.8210 -1.0459  1.0833
60720SOL     OW92089   1.833   2.021  12.624 -0.0614  0.0981  0.4329
60720SOL    HW192090   1.842   1.955  12.556 -0.4595  0.2026  0.2732
60720SOL    HW292091   1.749   2.063  12.606 -1.0434 -1.0663  2.0420
60721SOL     OW92092  13.171   8.124   7.616  0.5660 -0.4320  0.0296
60721SOL    HW192093  13.177   8.061   7.688  0.3009 -0.3340  0.1388
60721SOL    HW292094  13.133   8.202   7.656  1.6793  0.1014  0.0867
60722SOL     OW92095   8.987  11.126   2.364  0.0120 -0.1585  0.6268
60722SOL    HW192096   8.913  11.095   2.416 -0.5449  1.2851  0.7302
60722SOL    HW292097   8.986  11.072   2.285 -1.6878  0.4378  0.2241
60723SOL     OW92098   9.694   9.813   6.932 -0.4870  0.2478 -0.2558
60723SOL    HW192099   9.754   9.887   6.922 -1.9337  1.3740 -0.9307
60723SOL    HW292100   9.704   9.763   6.852 -1.4581  1.2455 -1.0416
60724SOL     OW92101   5.820   1.767   5.522  0.3400  0.1381 -0.2296
60724SOL    HW192102   5.731   1.735   5.507 -0.1273  1.8422 -1.2912
60724SOL    HW292103   5.859   1.702   5.581 -2.0968  0.1057  1.5163
60725SOL     OW92104   0.772  10.009  11.402 -0.2428  0.0642 -0.0197
60725SOL    HW192105   0.711   9.957  11.351  0.9123  0.3855 -1.8221
60725SOL    HW292106   0.752  10.100  11.378  1.7302  0.1222 -1.6628
60726SOL     OW92107   8.642  10.387   4.835 -0.1857 -0.0201 -0.0428
60726SOL    HW192108   8.707  10.351   4.896  2.3428  0.6619 -2.1623
60726SOL    HW292109   8.662  10.480   4.832 -0.0838 -0.0777 -2.0548
60727SOL     OW92110  12.346   5.382   1.936  0.6071  0.2676  0.2805
60727SOL    HW192111  12.436   5.350   1.945  0.3216 -0.6111  0.0457
60727SOL    HW292112  12.321   5.360   1.847  0.3271  0.9759  0.1750
60728SOL     OW92113  10.768   1.399   5.515  0.1212  0.0421 -0.4997
60728SOL    HW192114  10.703   1.412   5.584 -0.7989  0.7059 -1.4609
60728SOL    HW292115  10.836   1.463   5.534 -0.4147  0.6294 -0.5294
60729SOL     OW92116  11.999  10.305   9.757  0.6366 -0.0264  0.3894
60729SOL    HW192117  11.907  10.324   9.779  0.4937  0.7344 -0.7882
60729SOL    HW292118  11.994  10.238   9.689  1.0092 -0.7649  1.0668
60730SOL     OW92119  12.633   7.233   9.198  0.1127 -0.3088 -0.3621
60730SOL    HW192120  12.563   7.295   9.181 -0.1334  0.0113  1.5850
60730SOL    HW292121  12.712   7.276   9.167  0.0100  1.2177  1.3625
60731SOL     OW92122   5.206   3.592   9.184 -0.1715  0.0829 -0.0898
60731SOL    HW192123   5.259   3.566   9.109  1.4939  0.2207  1.0044
60731SOL    HW292124   5.181   3.683   9.165  0.3187  0.1486 -0.4458
60732SOL     OW92125   6.642  11.936   2.723 -0.1123  0.0623 -0.0057
60732SOL    HW192126   6.680  11.968   2.805 -2.0554 -1.1348  1.4621
60732SOL    HW292127   6.547  11.939   2.738 -0.6252  1.1601 -2.7889
60733SOL     OW92128   3.665   7.587   5.493 -0.0663  0.4854  0.7163
60733SOL    HW192129   3.703   7.522   5.551  1.3521  2.9052  2.7345
60733SOL    HW292130   3.741   7.626   5.449 -0.7351  1.5923  0.5097
60734SOL     OW92131   1.015   6.708   2.438  0.0001  0.0085 -0.0526
60734SOL    HW192132   1.091   6.674   2.390  0.2971  1.6314 -0.8003
60734SOL    HW292133   1.039   6.798   2.460 -1.5690  0.4297  0.0221
60735SOL     OW92134   4.915   7.018   3.347  0.2757  0.0839 -0.1365
60735SOL    HW192135   4.909   6.959   3.271  2.0874 -1.4426  0.8179
60735SOL    HW292136   4.866   6.973   3.416  0.9869  0.0797  0.3759
60736SOL     OW92137   2.315   9.424   2.599 -0.0530 -0.6186 -0.4147
60736SOL    HW192138   2.338   9.334   2.574  1.5288 -0.7053  1.0815
60736SOL    HW292139   2.280   9.416   2.688 -4.4324 -0.2154 -1.8701
60737SOL     OW92140   0.455  13.103   5.018  0.1497  0.0986  0.0994
60737SOL    HW192141   0.373  13.055   5.036  0.8804 -1.1794  0.1838
60737SOL    HW292142   0.509  13.040   4.970  1.0571  0.9490 -0.0191
60738SOL     OW92143   1.206   8.788  11.699  0.7938 -0.0251 -0.0263
60738SOL    HW192144   1.116   8.790  11.730  1.2541  0.3173  1.3555
60738SOL    HW292145   1.199   8.776  11.604 -0.6962  0.2189  0.0386
60739SOL     OW92146  10.463   7.843   7.448 -0.4086 -0.0208 -0.5805
60739SOL    HW192147  10.422   7.757   7.454  0.0923 -0.2448 -0.3374
60739SOL    HW292148  10.395   7.904   7.479 -0.3109 -0.4587  0.5326
60740SOL     OW92149   3.982  10.448   5.163  0.5894 -0.0497 -0.1899
60740SOL    HW192150   3.994  10.353   5.161 -0.0415 -0.1276 -0.7398
60740SOL    HW292151   3.975  10.473   5.071 -1.4032  0.2228 -0.0096
60741SOL     OW92152   3.871   6.762  10.385  0.0456 -0.6944 -0.2914
60741SOL    HW192153   3.800   6.823  10.362  0.1495 -0.2159  0.5967
60741SOL    HW292154   3.950   6.805  10.353  0.1442 -0.2355  0.5438
60742SOL     OW92155   6.996  11.609   1.996 -0.3220 -0.4171 -0.1304
60742SOL    HW192156   7.064  11.614   2.063  0.5531  3.8722 -1.0289
60742SOL    HW292157   7.039  11.566   1.922  0.3764 -0.5109  0.3187
60743SOL     OW92158  12.454   8.680   0.134 -0.1115 -0.0381  0.1090
60743SOL    HW192159  12.416   8.740   0.069  1.1928  0.7164  0.0016
60743SOL    HW292160  12.497   8.612   0.081 -1.7894 -1.2488  0.2302
60744SOL     OW92161   1.113   4.407   9.668 -0.2809  0.1380 -0.4605
60744SOL    HW192162   1.135   4.358   9.747 -0.6896  1.1490  0.2995
60744SOL    HW292163   1.131   4.347   9.596 -0.2636 -0.9279  0.4226
60745SOL     OW92164  11.000   0.562  12.900 -0.2249 -0.4444 -0.4745
60745SOL    HW192165  10.998   0.574  12.805 -1.7217  0.1464 -0.3960
60745SOL    HW292166  11.092   0.570  12.924  0.3970 -2.2362 -2.0629
60746SOL     OW92167   2.565   7.260   1.177 -0.4166 -0.3568  0.0290
60746SOL    HW192168   2.579   7.350   1.207  0.8306 -1.0236  1.6396
60746SOL    HW292169   2.566   7.208   1.258 -2.5904 -1.6700 -0.7180
60747SOL     OW92170  11.214   7.117   0.536 -0.5070 -0.5132  0.1872
60747SOL    HW192171  11.164   7.198   0.540 -0.6670 -0.6337  0.7698
60747SOL    HW292172  11.173   7.067   0.466 -0.4826 -0.1411 -0.0941
60748SOL     OW92173  12.959   9.879   0.010 -0.1610  0.2407  0.0116
60748SOL    HW192174  12.967   9.964  -0.033 -0.3113  1.3214  1.9794
60748SOL    HW292175  13.027   9.879   0.077  0.4013 -1.5768 -0.5077
60749SOL     OW92176   5.920   9.102   1.155 -0.4982 -0.5204  0.2905
60749SOL    HW192177   5.992   9.164   1.171  0.6575 -1.5801 -0.6968
60749SOL    HW292178   5.883   9.130   1.071  1.8757 -2.7680 -1.6778
60750SOL     OW92179   6.892   3.681  10.350  0.3856  0.2088 -0.0019
60750SOL    HW192180   6.809   3.685  10.303  0.4702 -0.1263 -0.1876
60750SOL    HW292181   6.897   3.763  10.398  1.0092  1.2650 -1.7757
60751SOL     OW92182   0.844  10.013   6.468  0.4641  0.5206 -0.5189
60751SOL    HW192183   0.840  10.076   6.396  0.1838 -0.5166 -1.4292
60751SOL    HW292184   0.928   9.967   6.455 -0.5659 -1.1832 -1.5176
60752SOL     OW92185   3.414  12.312   0.566  0.1506 -0.2310 -0.1118
60752SOL    HW192186   3.326  12.277   0.560  0.3544 -0.5230 -2.0262
60752SOL    HW292187   3.463  12.268   0.496  1.8259 -0.0929  0.9147
60753SOL     OW92188  13.268   4.365   5.773 -0.2895  0.1271  0.0671
60753SOL    HW192189  13.213   4.287   5.768  1.7903 -1.3825 -1.3706
60753SOL    HW292190  13.272   4.397   5.683 -0.2821  1.3044  0.4715
60754SOL     OW92191   2.594  10.629  11.110 -0.1514  0.0674 -0.0351
60754SOL    HW192192   2.581  10.631  11.016  0.0980  1.6502 -0.0662
60754SOL    HW292193   2.590  10.720  11.137 -0.5826 -0.3836  1.5499
60755SOL     OW92194   6.603   0.901   2.782  0.3864 -0.8324  0.2088
60755SOL    HW192195   6.662   0.927   2.853  0.7944 -1.4505  0.1073
60755SOL    HW292196   6.644   0.936   2.703  0.5364 -1.1160  0.1576
60756SOL     OW92197   7.884   8.214   0.194 -0.2652  0.4295  0.1065
60756SOL    HW192198   7.940   8.280   0.155  2.5343 -0.2943  2.5516
60756SOL    HW292199   7.824   8.263   0.251 -0.6575  1.0706 -0.8505
60757SOL     OW92200  12.103   1.223  11.230  0.1476  0.1147 -0.0175
60757SOL    HW192201  12.052   1.242  11.308 -1.3021 -0.4126 -0.7956
60757SOL    HW292202  12.193   1.240  11.255 -0.3920  0.9293  1.4521
60758SOL     OW92203  13.223   0.249  10.669 -0.1661  0.5906 -0.0293
60758SOL    HW192204  13.130   0.230  10.680 -0.2615 -0.6207 -2.3463
60758SOL    HW292205  13.224   0.335  10.626 -0.2001  0.6665  0.1196
60759SOL     OW92206   0.011  11.121   4.541  0.2483  0.2696  0.8064
60759SOL    HW192207  -0.059  11.176   4.505  0.4169 -1.2829 -2.2401
60759SOL    HW292208   0.089  11.175   4.533  0.0747  0.4064 -0.1607
60760SOL     OW92209   6.097   8.142   2.203  0.0652  0.7419  0.4049
60760SOL    HW192210   6.038   8.187   2.263  0.7621  2.1649  0.0551
60760SOL    HW292211   6.156   8.210   2.171 -0.2258  0.0082 -1.8498
60761SOL     OW92212  10.251  11.968   7.695 -0.8324 -0.5473 -0.2716
60761SOL    HW192213  10.244  11.916   7.615  0.4396 -1.4368  0.1721
60761SOL    HW292214  10.273  12.056   7.665 -0.9790 -0.7267 -0.9183
60762SOL     OW92215   1.019   9.046   2.483 -0.2263  0.9690 -0.1388
60762SOL    HW192216   1.096   9.082   2.438  0.5151 -0.2417  0.1280
60762SOL    HW292217   0.945   9.072   2.428  0.5133  0.8639 -1.2155
60763SOL     OW92218   1.198   9.415   3.537 -0.0297 -0.1295 -0.4567
60763SOL    HW192219   1.103   9.424   3.525 -0.2140 -0.0604  0.8994
60763SOL    HW292220   1.211   9.323   3.556  0.4060 -0.4866 -2.3234
60764SOL     OW92221   8.030   0.483   9.225 -0.0853 -0.4675 -0.2733
60764SOL    HW192222   8.069   0.491   9.312  0.8740 -0.9774 -0.6414
60764SOL    HW292223   7.936   0.475   9.241 -0.2867  2.4874  0.5736
60765SOL     OW92224   0.050   4.648   8.593 -0.6510 -0.1519  0.0103
60765SOL    HW192225   0.088   4.733   8.614  2.7978 -1.3156 -0.8825
60765SOL    HW292226   0.094   4.587   8.653 -2.0110 -1.5023 -0.3040
60766SOL     OW92227   9.446   8.201   1.568 -0.6286  0.4573  0.1880
60766SOL    HW192228   9.496   8.258   1.626  0.2455 -0.5493  0.4446
60766SOL    HW292229   9.511   8.140   1.532 -1.1214  1.0851 -1.9109
60767SOL     OW92230   4.356  11.970   1.307 -0.1442 -0.2831  0.0623
60767SOL    HW192231   4.287  11.962   1.373  0.4095  2.5014  1.0954
60767SOL    HW292232   4.427  11.914   1.339  0.0083  0.8030  1.7566
60768SOL     OW92233   1.308   7.481   4.991  0.0669  0.3000 -0.1271
60768SOL    HW192234   1.308   7.392   5.026  1.6182 -0.5451 -2.0550
60768SOL    HW292235   1.238   7.482   4.926  0.5188  0.2505 -0.6201
60769SOL     OW92236   1.376  10.598   1.941 -0.4319 -0.5725 -0.1518
60769SOL    HW192237   1.329  10.570   1.862 -0.4338 -2.1021  0.3573
60769SOL    HW292238   1.312  10.651   1.990 -0.6801 -0.2624 -0.8018
60770SOL     OW92239   9.049   0.323  13.192 -0.7225  1.0703  0.0067
60770SOL    HW192240   8.957   0.308  13.215 -0.6801  1.4548  0.4589
60770SOL    HW292241   9.046   0.355  13.102 -0.9340 -0.0190 -0.3926
60771SOL     OW92242   1.308   7.542   1.736 -0.3052  0.2734 -0.0756
60771SOL    HW192243   1.326   7.514   1.825 -1.7487 -0.8076 -0.0866
60771SOL    HW292244   1.322   7.464   1.683 -1.0062  0.4760 -0.5797
60772SOL     OW92245   1.072   0.185   5.550  0.5143 -0.1845  0.0700
60772SOL    HW192246   1.150   0.233   5.576 -0.2564  0.9814  0.2876
60772SOL    HW292247   1.092   0.153   5.461  0.7193  1.2957 -0.4341
60773SOL     OW92248   4.650   9.260   3.153 -0.2875 -0.3439  0.1967
60773SOL    HW192249   4.710   9.228   3.086 -0.4001  1.1267 -0.6305
60773SOL    HW292250   4.676   9.351   3.168 -1.0807 -0.2625  1.2321
60774SOL     OW92251   1.491  12.396   4.397 -0.3079 -0.7135  0.5055
60774SOL    HW192252   1.558  12.329   4.384 -1.8593 -2.7130  2.0514
60774SOL    HW292253   1.466  12.423   4.308  3.2169  0.9718 -0.1365
60775SOL     OW92254  11.573   9.123  10.989  0.3248  0.1216  0.0807
60775SOL    HW192255  11.579   9.179  11.067  1.3137  0.7726 -0.4304
60775SOL    HW292256  11.497   9.068  11.004  0.4622  0.2832  1.4807
60776SOL     OW92257   6.102  12.091   7.011  0.5350 -0.0642  0.6686
60776SOL    HW192258   6.154  12.019   7.046  1.7407 -0.4021 -1.6392
60776SOL    HW292259   6.149  12.170   7.037  1.1912 -0.2875  0.1833
60777SOL     OW92260   9.875   5.157  12.804 -0.1593 -0.2060 -0.2003
60777SOL    HW192261   9.814   5.129  12.735 -0.0329 -0.7533 -0.0963
60777SOL    HW292262   9.818   5.183  12.877 -0.2831 -0.1777 -0.3070
60778SOL     OW92263  13.208   1.057   8.990  0.6037 -0.7293 -0.4052
60778SOL    HW192264  13.260   0.976   8.989  0.7237 -0.6788  0.5993
60778SOL    HW292265  13.117   1.027   8.987  0.6379 -0.9261  0.4353
60779SOL     OW92266   5.971   7.467   1.011  0.0835 -0.4394 -0.2277
60779SOL    HW192267   5.947   7.555   1.040  0.2542 -0.6612  0.6276
60779SOL    HW292268   6.023   7.481   0.932  1.6064  0.3526  0.8674
60780SOL     OW92269   0.646  11.280  10.459  0.4136  0.3056 -0.0537
60780SOL    HW192270   0.703  11.286  10.536  0.7247 -1.0764 -0.1384
60780SOL    HW292271   0.596  11.361  10.460  1.5588  1.0423  0.6881
60781SOL     OW92272   2.987  13.093   6.602 -0.2555  0.0012  0.0605
60781SOL    HW192273   2.948  13.032   6.539 -1.2927  0.0479  0.6350
60781SOL    HW292274   2.921  13.101   6.671  0.8567 -0.0490  1.1627
60782SOL     OW92275  10.049   6.948   6.808  0.3685  0.3722  0.0288
60782SOL    HW192276   9.995   6.957   6.729  0.2193  1.3144  0.2327
60782SOL    HW292277  10.131   6.993   6.786  0.0099  1.3855  0.6952
60783SOL     OW92278  11.667  11.007   5.579  0.5125 -0.2377 -0.0921
60783SOL    HW192279  11.690  10.914   5.576  2.0800  0.1064  0.2108
60783SOL    HW292280  11.667  11.035   5.487  0.4204 -0.4531 -0.1576
60784SOL     OW92281   4.091   3.318  12.150  0.3347  0.4173  0.4755
60784SOL    HW192282   4.010   3.367  12.135  0.9648  1.0194 -1.1706
60784SOL    HW292283   4.061   3.235  12.188 -1.0434  0.6889  0.0546
60785SOL     OW92284  11.271  10.731   7.526  0.0296  0.1371  0.2982
60785SOL    HW192285  11.356  10.756   7.564 -0.6282  0.7150  1.4383
60785SOL    HW292286  11.279  10.756   7.434  0.6312  1.4684  0.6733
60786SOL     OW92287   3.006   3.851  12.387 -0.1124 -0.2003  0.5691
60786SOL    HW192288   3.083   3.827  12.336  1.2358 -0.0042  2.4310
60786SOL    HW292289   3.004   3.787  12.459 -0.7550  0.7791  1.4492
60787SOL     OW92290   7.305   1.942   3.353 -0.3248  0.4564  0.0853
60787SOL    HW192291   7.340   1.994   3.281  2.7093 -0.6787  0.5901
60787SOL    HW292292   7.369   1.954   3.424 -1.2135 -1.4183  1.2840
60788SOL     OW92293   4.201   5.173   8.816  0.3366  0.2280  0.2577
60788SOL    HW192294   4.186   5.098   8.759 -0.3248  0.2613  0.3761
60788SOL    HW292295   4.295   5.173   8.832  0.6455  0.6414 -1.4199
60789SOL     OW92296   4.353   1.687   9.557 -0.0731 -0.0798 -0.2878
60789SOL    HW192297   4.333   1.775   9.525  2.1125  0.5817  0.0501
60789SOL    HW292298   4.352   1.633   9.478 -1.2265  0.2492 -0.5248
60790SOL     OW92299   2.618   8.746   8.777 -0.5711 -0.2041 -0.0182
60790SOL    HW192300   2.566   8.666   8.777 -2.6587  1.0617 -0.8633
60790SOL    HW292301   2.651   8.753   8.687  0.0553 -0.3780  0.1950
60791SOL     OW92302   9.472  11.310   6.447 -0.5147  0.3334 -0.4695
60791SOL    HW192303   9.421  11.370   6.501  0.7029 -0.2571  1.4474
60791SOL    HW292304   9.406  11.257   6.402 -1.6025  0.7074  0.6118
60792SOL     OW92305   2.644  11.439   2.032 -0.3344  0.0245  0.7568
60792SOL    HW192306   2.603  11.365   2.078 -0.8454 -0.0891  0.1235
60792SOL    HW292307   2.605  11.438   1.945 -1.9472  2.3169  1.3508
60793SOL     OW92308   9.092   6.639   1.868 -0.6464 -0.1853 -0.0758
60793SOL    HW192309   9.028   6.705   1.893 -0.3089  1.0260 -2.1912
60793SOL    HW292310   9.163   6.648   1.931  0.0668  2.5663 -1.1335
60794SOL     OW92311  11.308   6.309   2.322  0.6633  0.3670 -0.1856
60794SOL    HW192312  11.237   6.373   2.316  0.0657 -0.3020 -0.4906
60794SOL    HW292313  11.270   6.228   2.287  0.8735 -0.5995  1.7137
60795SOL     OW92314   1.226  11.584   4.982 -0.3100  0.0772 -0.3237
60795SOL    HW192315   1.238  11.674   5.011  1.3236 -0.2712  0.2107
60795SOL    HW292316   1.199  11.537   5.061  0.4111 -0.1825 -0.2262
60796SOL     OW92317  11.914   4.345  13.224 -0.3669  0.3755 -0.2395
60796SOL    HW192318  11.945   4.405  13.156 -1.8963  0.1421 -1.1766
60796SOL    HW292319  11.991   4.331  13.279  0.6708  1.2985 -1.3810
60797SOL     OW92320   9.942   5.541   4.929 -0.0668  0.5952 -0.0147
60797SOL    HW192321  10.024   5.574   4.894  0.3416 -1.0523 -0.7213
60797SOL    HW292322   9.892   5.514   4.852  0.0950 -1.4139  0.5296
60798SOL     OW92323   5.940   7.481   9.665 -1.0110  0.7391  0.6268
60798SOL    HW192324   5.944   7.395   9.708 -2.6030  0.4117  0.1715
60798SOL    HW292325   5.870   7.472   9.600  0.4936  1.6020 -1.2129
60799SOL     OW92326   7.137   8.598   3.194  0.4329  0.3762 -0.4138
60799SOL    HW192327   7.118   8.659   3.123  1.8166  0.3448 -0.8372
60799SOL    HW292328   7.054   8.553   3.210  0.0854  0.4073 -1.9953
60800SOL     OW92329   7.669   0.583   2.936 -0.7290  0.0986  0.3782
60800SOL    HW192330   7.678   0.576   3.031 -0.2887  0.7112  0.3902
60800SOL    HW292331   7.612   0.659   2.923 -0.1933  0.4652  0.1412
60801SOL     OW92332   1.276  13.265   1.073 -0.1752 -0.1118 -0.4455
60801SOL    HW192333   1.285  13.206   0.999  0.2965 -1.1320  0.4060
60801SOL    HW292334   1.324  13.344   1.046  1.5791 -1.1544 -0.5373
60802SOL     OW92335   9.591  11.327   0.730  0.1688  0.2316  0.3879
60802SOL    HW192336   9.654  11.389   0.768 -0.4093  1.1430 -0.0987
60802SOL    HW292337   9.530  11.382   0.682  1.4809 -0.8974 -2.8186
60803SOL     OW92338   3.363   3.778  12.517  0.0155 -0.4893  0.2229
60803SOL    HW192339   3.415   3.781  12.436 -1.6950  3.9685 -1.0188
60803SOL    HW292340   3.323   3.691  12.516 -0.2392 -0.5845 -4.0812
60804SOL     OW92341   9.189  11.987   9.910  0.1840  0.1789 -0.1162
60804SOL    HW192342   9.234  11.907   9.885 -0.9975  0.0498 -2.0089
60804SOL    HW292343   9.097  11.971   9.889 -0.0715  2.0203 -0.5772
60805SOL     OW92344  10.146  10.822   4.411  0.0310 -0.0290  0.1784
60805SOL    HW192345  10.104  10.770   4.342 -0.6333  0.2183  0.3853
60805SOL    HW292346  10.147  10.765   4.487 -1.4809  0.5095  0.6554
60806SOL     OW92347   3.851   2.306  12.446  0.2285 -0.1397 -0.7995
60806SOL    HW192348   3.940   2.270  12.452  0.1546 -0.3216 -0.7684
60806SOL    HW292349   3.832   2.308  12.352  0.4334  0.3191 -0.8295
60807SOL     OW92350   5.990   8.619  11.107  0.0760 -0.4645 -0.0068
60807SOL    HW192351   5.999   8.714  11.095  0.5236 -0.6732 -1.6109
60807SOL    HW292352   6.023   8.582  11.025 -0.6019 -1.9891  0.3832
60808SOL     OW92353  12.904   4.690   0.034 -0.9455 -0.2101  0.6992
60808SOL    HW192354  12.873   4.600   0.024 -0.3686 -0.2123 -1.3420
60808SOL    HW292355  12.829   4.737   0.073 -0.6401 -1.8924  3.5738
60809SOL     OW92356   6.733  11.607   7.838 -0.1894  0.3689  0.1501
60809SOL    HW192357   6.809  11.639   7.790  0.6951 -0.8437  0.6752
60809SOL    HW292358   6.688  11.549   7.776  0.2265 -0.1729  0.3439
60810SOL     OW92359  12.623   5.930   9.079  0.3810  0.7897 -0.2409
60810SOL    HW192360  12.638   5.855   9.021  0.9974  0.6986  0.0314
60810SOL    HW292361  12.686   5.919   9.150 -0.9302  0.4499  0.9077
60811SOL     OW92362   0.274  13.051   3.893 -0.2179  0.2095 -0.5705
60811SOL    HW192363   0.363  13.020   3.876 -0.8372 -0.4519 -2.9188
60811SOL    HW292364   0.284  13.113   3.966  1.8262 -1.4321  0.6645
60812SOL     OW92365   7.352   6.500  13.267 -0.1020 -0.0022 -0.1339
60812SOL    HW192366   7.289   6.460  13.326  0.1280  0.5655  0.5033
60812SOL    HW292367   7.355   6.441  13.191 -1.0971 -0.2373 -0.0008
60813SOL     OW92368   3.478   7.697  12.191 -0.0585  0.0240  0.3839
60813SOL    HW192369   3.552   7.642  12.217  0.4548  0.7986  0.5927
60813SOL    HW292370   3.440   7.650  12.116  1.6814  0.4329 -0.8313
60814SOL     OW92371   2.734  10.103  12.749 -0.1745 -0.0557  0.7531
60814SOL    HW192372   2.642  10.088  12.725 -0.4871  0.1163  1.7781
60814SOL    HW292373   2.782  10.095  12.667 -1.1588  0.2939  0.1251
60815SOL     OW92374   9.169   0.953   9.363  0.2615  0.4952  0.0348
60815SOL    HW192375   9.167   0.885   9.430 -1.0123  0.8161  0.3580
60815SOL    HW292376   9.090   1.006   9.380 -1.5203 -0.8464 -3.1301
60816SOL     OW92377   4.889   6.863   6.376 -0.3300  0.3736  0.2885
60816SOL    HW192378   4.864   6.904   6.460 -0.2141  2.3071 -0.5666
60816SOL    HW292379   4.873   6.931   6.311  1.1757 -0.5107 -1.0719
60817SOL     OW92380   6.575  12.299  13.109  0.0809  0.3558  0.4752
60817SOL    HW192381   6.601  12.213  13.078 -3.4668 -0.8331  0.3268
60817SOL    HW292382   6.548  12.345  13.029  0.3092  0.9725  0.7498
60818SOL     OW92383   2.571   5.235   2.639  0.3279  0.4189 -0.2595
60818SOL    HW192384   2.501   5.176   2.669 -0.1773  1.0909 -0.0857
60818SOL    HW292385   2.650   5.182   2.645 -0.2831 -0.6909 -1.4370
60819SOL     OW92386   9.768  12.303   6.742  0.7514 -0.9232  0.1557
60819SOL    HW192387   9.782  12.318   6.835 -3.2718 -2.1450  1.1694
60819SOL    HW292388   9.844  12.253   6.714  1.8865 -0.8906  2.8825
60820SOL     OW92389   6.460   3.419  13.168 -0.3227 -0.4019  0.0922
60820SOL    HW192390   6.489   3.347  13.111 -0.2292 -0.5357  0.3061
60820SOL    HW292391   6.537   3.476  13.176 -0.9553  0.7832 -1.6690
60821SOL     OW92392   5.388   6.528   5.733  0.1283  0.1003  0.3133
60821SOL    HW192393   5.382   6.597   5.667 -0.1729 -0.4563 -0.2495
60821SOL    HW292394   5.452   6.467   5.697  0.7258  0.2961  1.0151
60822SOL     OW92395   9.267   4.487  13.034  0.3158  0.5345 -0.4398
60822SOL    HW192396   9.258   4.421  13.103 -2.4551 -2.0098 -2.9354
60822SOL    HW292397   9.328   4.448  12.972 -0.5507  0.7423 -1.4484
60823SOL     OW92398  12.433   1.263   9.300  0.1311  0.2152  0.0221
60823SOL    HW192399  12.373   1.290   9.370 -0.9508  1.5130 -1.3366
60823SOL    HW292400  12.488   1.339   9.285 -1.6128  1.1183 -2.4933
60824SOL     OW92401   9.682   9.239   0.458  0.5094  0.1099  0.3119
60824SOL    HW192402   9.684   9.286   0.374  0.8887  0.1776  0.3564
60824SOL    HW292403   9.593   9.254   0.492  0.6342  0.8158  0.3338
60825SOL     OW92404  13.080  10.135   8.929 -0.3619 -0.0366  0.4665
60825SOL    HW192405  13.083  10.079   8.850 -0.8259  0.2407  0.2516
60825SOL    HW292406  12.987  10.149   8.945 -0.2557  1.5807 -0.1296
60826SOL     OW92407  11.625  10.798  10.656 -0.0619 -0.5797 -0.2768
60826SOL    HW192408  11.553  10.742  10.626  0.9038 -1.8747 -0.2748
60826SOL    HW292409  11.622  10.792  10.751 -0.5366  0.1292 -0.2488
60827SOL     OW92410   5.581   7.466  10.541 -0.3298 -0.0943  0.1710
60827SOL    HW192411   5.514   7.401  10.560 -0.2928 -0.4873 -0.9594
60827SOL    HW292412   5.596   7.511  10.625 -2.5987  0.5813  0.2701
60828SOL     OW92413   5.074   9.751   2.123  0.5886 -0.4397 -0.3095
60828SOL    HW192414   4.995   9.771   2.072 -0.0075 -0.6977  0.4804
60828SOL    HW292415   5.121   9.834   2.128  1.3519 -0.6984 -2.3974
60829SOL     OW92416   9.646   3.407   1.330  0.0241  0.1536  0.0827
60829SOL    HW192417   9.631   3.502   1.337  0.3654  0.1512  1.1301
60829SOL    HW292418   9.710   3.388   1.399 -0.0757 -0.8510 -0.0847
60830SOL     OW92419   5.588   1.868   9.322  0.9245 -0.0931  0.0602
60830SOL    HW192420   5.546   1.789   9.289  2.6439 -1.4283  0.9334
60830SOL    HW292421   5.675   1.868   9.281  1.4559  0.5765  1.1443
60831SOL     OW92422   0.975   8.275  11.344 -0.6933 -0.5164 -0.5388
60831SOL    HW192423   0.931   8.280  11.428 -2.0733 -1.3623 -1.1717
60831SOL    HW292424   0.953   8.357  11.300 -1.3148 -0.7610 -0.6911
60832SOL     OW92425  12.266  12.034   2.337 -0.3572 -0.0527  0.2911
60832SOL    HW192426  12.329  11.970   2.303  0.4263  0.8508 -0.0086
60832SOL    HW292427  12.279  12.111   2.282 -1.2202  0.3972  0.7087
60833SOL     OW92428   1.523  10.749   9.463 -0.2422  0.1089 -0.3666
60833SOL    HW192429   1.445  10.802   9.446 -1.2116 -1.3463 -0.6415
60833SOL    HW292430   1.596  10.809   9.446 -1.2684  1.1742 -1.2806
60834SOL     OW92431   4.666   7.675  11.644 -0.0421 -0.2898 -0.0860
60834SOL    HW192432   4.639   7.763  11.617 -1.0469 -0.1162  1.4124
60834SOL    HW292433   4.588   7.621  11.630  0.2969 -0.7706 -0.1496
60835SOL     OW92434   3.545   4.330   6.855 -0.3694  0.6008  0.9428
60835SOL    HW192435   3.462   4.313   6.898 -0.8929  0.1255 -0.2143
60835SOL    HW292436   3.584   4.402   6.905 -0.7496 -0.2046  2.4275
60836SOL     OW92437   7.325   7.322   7.787  0.2045 -0.2589 -0.1290
60836SOL    HW192438   7.358   7.320   7.697  1.0053 -0.9095  0.1639
60836SOL    HW292439   7.401   7.349   7.839 -0.1572 -0.2338  0.3839
60837SOL     OW92440   4.952  10.993   2.626 -0.2398  0.2011  0.2858
60837SOL    HW192441   4.928  11.056   2.693 -1.2443 -0.2353  0.3631
60837SOL    HW292442   4.926  11.035   2.544  1.3141  0.8856  0.1064
60838SOL     OW92443   1.304   2.528   0.749 -0.1182 -0.6431 -0.0240
60838SOL    HW192444   1.313   2.578   0.668  0.1890  0.2554  0.5471
60838SOL    HW292445   1.210   2.512   0.758 -0.2022 -0.2956 -0.2903
60839SOL     OW92446   5.308  12.525  12.528  0.0161  0.6359 -0.0245
60839SOL    HW192447   5.371  12.482  12.586  0.1481  2.0041  0.8985
60839SOL    HW292448   5.355  12.536  12.445  0.7838  1.0655  0.4577
60840SOL     OW92449   1.173   1.623  11.920  0.3055  0.3488  0.3033
60840SOL    HW192450   1.091   1.669  11.938  0.4805  1.3238 -1.2027
60840SOL    HW292451   1.202   1.659  11.836  0.5871 -2.3290 -0.8372
60841SOL     OW92452  11.115   1.110   3.350 -0.3418  0.1609 -0.0415
60841SOL    HW192453  11.098   1.204   3.345 -0.8063  0.0304 -1.4708
60841SOL    HW292454  11.206   1.101   3.321  0.2580  0.2893  1.6769
60842SOL     OW92455   6.804  12.819   3.638  0.1899  0.8489  0.1684
60842SOL    HW192456   6.794  12.891   3.575  1.2696 -0.2758 -1.3649
60842SOL    HW292457   6.889  12.835   3.679  1.4131 -0.5575 -1.6450
60843SOL     OW92458   6.242  11.813  10.441  0.4114  0.0766 -0.6167
60843SOL    HW192459   6.313  11.840  10.383  0.8706  1.4712  0.5487
60843SOL    HW292460   6.162  11.836  10.394  0.7841  1.4697 -0.6011
60844SOL     OW92461  12.335   2.134  12.683  0.2164  0.3634 -0.3476
60844SOL    HW192462  12.246   2.109  12.708  0.4202  0.0169  0.0428
60844SOL    HW292463  12.365   2.063  12.626  0.2251  0.5043 -0.5188
60845SOL     OW92464   1.520   8.274   8.363  0.1207  0.1130 -0.3901
60845SOL    HW192465   1.547   8.221   8.438  0.3168 -0.0276 -0.5574
60845SOL    HW292466   1.452   8.223   8.320 -0.2288  0.3497 -0.1158
60846SOL     OW92467  10.292  11.416   7.430 -0.1606  0.5752  0.4824
60846SOL    HW192468  10.332  11.497   7.398 -0.4825  1.9102  3.1640
60846SOL    HW292469  10.344  11.346   7.390  1.2257  2.1362 -0.5743
60847SOL     OW92470   8.489  10.880   8.264 -0.1348  0.0014 -0.4120
60847SOL    HW192471   8.530  10.821   8.200  1.1648  0.6858 -0.2344
60847SOL    HW292472   8.429  10.933   8.213  0.0545 -0.2359 -0.8852
60848SOL     OW92473  10.839   5.209   2.185  0.1107 -0.1010  0.8515
60848SOL    HW192474  10.797   5.162   2.113 -0.2572  1.1971  0.1934
60848SOL    HW292475  10.851   5.298   2.152  1.1363  0.1862  1.9268
60849SOL     OW92476   8.230   4.681  11.631 -0.0157 -0.4800  0.2306
60849SOL    HW192477   8.247   4.589  11.647 -0.2171 -0.3669  1.1091
60849SOL    HW292478   8.283   4.728  11.695 -0.5576 -0.0100  0.3490
60850SOL     OW92479  10.852   1.162  11.365  0.3351 -0.1595  0.5932
60850SOL    HW192480  10.786   1.141  11.298  0.7883  0.1941  0.0303
60850SOL    HW292481  10.911   1.087  11.364  1.3063  0.5801 -0.6169
60851SOL     OW92482   5.587   7.190  10.330  0.2902 -0.8122  0.7787
60851SOL    HW192483   5.569   7.269  10.279 -2.1702 -1.1038  1.0488
60851SOL    HW292484   5.564   7.214  10.420  1.1805 -1.3401  1.1581
60852SOL     OW92485   2.612   7.641  11.735  0.0372  0.0108 -0.7308
60852SOL    HW192486   2.593   7.730  11.706 -0.1334 -0.3007 -1.6054
60852SOL    HW292487   2.578   7.638  11.825 -1.2750  0.4040 -1.1840
60853SOL     OW92488  11.024   3.430   5.521 -0.4018  0.4864 -0.3265
60853SOL    HW192489  10.963   3.371   5.565 -1.0014  0.9650 -0.5140
60853SOL    HW292490  10.996   3.431   5.429  0.2928  0.1949 -0.5491
60854SOL     OW92491   8.885  12.120   0.949  0.1753 -0.8152 -0.0519
60854SOL    HW192492   8.906  12.042   1.001  1.0613 -0.7013 -0.2173
60854SOL    HW292493   8.966  12.140   0.903 -0.5856 -0.9157 -1.4944
60855SOL     OW92494   5.035  10.094   8.765 -0.3873 -0.1222 -0.4146
60855SOL    HW192495   4.989  10.029   8.818 -1.4376 -1.3175 -2.6971
60855SOL    HW292496   5.119  10.106   8.810 -1.3488 -0.7771  1.6943
60856SOL     OW92497   6.921   4.863   0.486 -0.0961 -0.0307  0.2794
60856SOL    HW192498   6.957   4.790   0.435 -1.7499 -1.6892  1.3638
60856SOL    HW292499   6.997   4.910   0.518  1.0164 -1.0686 -0.7512
60857SOL     OW92500  12.359   7.661   3.865 -0.3529  0.0931  0.0837
60857SOL    HW192501  12.354   7.617   3.950  0.5316 -0.3945 -0.1075
60857SOL    HW292502  12.448   7.695   3.861 -0.8972  1.5933  0.0522
60858SOL     OW92503  10.874   4.061   6.961 -0.5661  0.1888  0.5735
60858SOL    HW192504  10.904   3.972   6.974  1.2418  0.7519  0.5315
60858SOL    HW292505  10.929   4.095   6.890  0.7244  2.1739  2.4036
60859SOL     OW92506  11.378   5.654   6.899  0.0698 -0.3472 -0.2260
60859SOL    HW192507  11.435   5.677   6.826 -0.2890 -1.5786 -0.9215
60859SOL    HW292508  11.424   5.582   6.943  0.0216  0.0245  0.4444
60860SOL     OW92509  12.105   6.262   6.661  0.3023  0.0613  0.3987
60860SOL    HW192510  12.050   6.291   6.588 -0.8664  0.8452  1.5575
60860SOL    HW292511  12.194   6.263   6.626 -0.3273 -0.6505 -1.3419
60861SOL     OW92512   9.428  11.797   0.914  0.0609 -0.2334  0.3167
60861SOL    HW192513   9.409  11.784   1.008  0.8457 -3.0853  0.1812
60861SOL    HW292514   9.343  11.782   0.871 -0.6114  2.3855  0.5578
60862SOL     OW92515   9.184   7.333  11.303 -0.3083  0.2844  0.0966
60862SOL    HW192516   9.174   7.423  11.271  0.4300  0.9807  1.7143
60862SOL    HW292517   9.212   7.343  11.394  0.1653 -1.5915  0.1933
60863SOL     OW92518   5.404  12.239   2.686  0.1015  0.2836  0.2257
60863SOL    HW192519   5.361  12.153   2.683  1.0985 -0.2116 -0.3789
60863SOL    HW292520   5.379  12.281   2.603 -1.0823  0.9438  0.8940
60864SOL     OW92521   5.986   1.864   7.595  0.7760 -0.1188 -0.5297
60864SOL    HW192522   6.057   1.799   7.598  0.7766 -0.1369 -0.8951
60864SOL    HW292523   5.993   1.903   7.508  1.4930  1.1892  0.0907
60865SOL     OW92524   3.550   1.301   5.214  0.1351  0.1401  0.4472
60865SOL    HW192525   3.480   1.272   5.273 -1.1589  1.1687 -0.5236
60865SOL    HW292526   3.542   1.246   5.137 -1.5659  2.1021 -0.8989
60866SOL     OW92527  13.216   5.794  12.598 -0.2084 -0.3948  0.2061
60866SOL    HW192528  13.310   5.778  12.598 -0.1857 -0.2662 -0.0571
60866SOL    HW292529  13.186   5.762  12.683 -0.0110 -0.9386  0.0780
60867SOL     OW92530  10.687   9.830  12.039 -0.5883  0.0840  0.3427
60867SOL    HW192531  10.720   9.894  12.102  0.1635 -1.0224  1.1185
60867SOL    HW292532  10.724   9.746  12.068 -0.0349 -0.4458 -1.6784
60868SOL     OW92533   6.247   7.799  12.191 -0.3301  0.5399  0.1900
60868SOL    HW192534   6.339   7.794  12.219 -0.7825 -1.9240  1.5357
60868SOL    HW292535   6.241   7.881  12.142  2.6776  0.5991 -0.2657
60869SOL     OW92536   6.254   3.994   1.012 -0.1208 -0.7119 -0.0758
60869SOL    HW192537   6.266   3.899   1.014 -0.4979 -0.7624 -0.1052
60869SOL    HW292538   6.302   4.022   0.934  1.0222 -0.7197  0.6074
60870SOL     OW92539   9.219   5.810   1.625 -0.4799 -0.0241  0.2097
60870SOL    HW192540   9.126   5.786   1.629  0.0212 -2.3579 -0.5243
60870SOL    HW292541   9.244   5.824   1.716 -1.3335 -0.3643  0.5049
60871SOL     OW92542  11.183   1.341  12.653  0.1519 -0.4760  0.0462
60871SOL    HW192543  11.274   1.320  12.632 -0.0829 -0.2447 -1.3026
60871SOL    HW292544  11.187   1.431  12.686  0.4467 -0.5610  0.2487
60872SOL     OW92545  10.563   7.024   4.364  0.0941  0.1858 -0.3447
60872SOL    HW192546  10.523   7.111   4.374  3.2505  1.7535 -0.1715
60872SOL    HW292547  10.596   7.023   4.275  0.0881 -0.8829 -0.3505
60873SOL     OW92548   3.195   1.223  13.239  0.3306 -0.3874  0.2667
60873SOL    HW192549   3.277   1.174  13.250  0.1696 -0.5335  0.9001
60873SOL    HW292550   3.129   1.155  13.223  0.1272 -0.3785  1.0273
60874SOL     OW92551   1.596  11.833   4.055 -0.1733 -0.2985  0.4592
60874SOL    HW192552   1.618  11.826   4.147  1.4698  0.3445  0.1505
60874SOL    HW292553   1.674  11.871   4.014 -1.8292  2.0362 -0.7802
60875SOL     OW92554   6.950   2.476   2.754  0.5489  0.2453  0.2843
60875SOL    HW192555   7.002   2.437   2.824 -1.2489 -0.8512  1.0920
60875SOL    HW292556   6.956   2.570   2.769  2.7201  0.2007 -0.0140
60876SOL     OW92557   3.405  10.689   6.304  0.7781  0.0544  0.7621
60876SOL    HW192558   3.371  10.777   6.289  1.4965  0.3265  0.6692
60876SOL    HW292559   3.328  10.636   6.328  0.4315  0.8542  1.4646
60877SOL     OW92560   7.545   4.006  10.129 -0.6004 -0.3020 -0.5742
60877SOL    HW192561   7.630   3.960  10.131 -1.1907 -1.4858  1.6802
60877SOL    HW292562   7.567   4.095  10.104  1.1409 -0.8799 -1.3068
60878SOL     OW92563   1.171  11.468   1.100 -0.3977 -0.2979  0.0023
60878SOL    HW192564   1.247  11.461   1.159  0.2864  2.7829 -0.3185
60878SOL    HW292565   1.198  11.424   1.020  2.3745  3.0101 -1.1435
60879SOL     OW92566   6.279  11.747  12.351  0.0294  0.1888  0.4223
60879SOL    HW192567   6.319  11.701  12.426 -0.0052  0.5519  0.6647
60879SOL    HW292568   6.186  11.750  12.372 -0.0660 -0.2503  0.0727
60880SOL     OW92569  12.383   8.913  10.511  0.7335  0.2451 -0.1237
60880SOL    HW192570  12.388   8.823  10.481  1.1440 -0.0393  0.7446
60880SOL    HW292571  12.296   8.921  10.549  0.5519  0.3316 -0.5610
60881SOL     OW92572   6.281   0.565  12.416  0.1664 -0.5246  0.2015
60881SOL    HW192573   6.364   0.613  12.420 -0.0168 -0.2740  1.3107
60881SOL    HW292574   6.225   0.608  12.481 -0.4834 -1.3617  0.2153
60882SOL     OW92575   4.230   6.032   7.688 -0.1034 -0.2065 -0.1644
60882SOL    HW192576   4.242   6.123   7.714 -1.5631 -0.0996  0.1661
60882SOL    HW292577   4.149   6.031   7.638 -1.4490 -1.7099  1.8960
60883SOL     OW92578  12.012   2.348   6.314 -0.2664 -0.6725  0.1147
60883SOL    HW192579  11.988   2.441   6.310 -0.1929 -0.5477  1.7349
60883SOL    HW292580  12.106   2.347   6.292 -0.0200 -0.2123  1.0858
60884SOL     OW92581   5.323   9.098   5.853  0.4875  0.3478 -0.3447
60884SOL    HW192582   5.270   9.175   5.875 -0.5179 -0.2572 -0.6334
60884SOL    HW292583   5.375   9.126   5.777 -0.0551  0.6649 -0.6010
60885SOL     OW92584   1.885  11.290   5.389  0.5840  0.5725  0.2391
60885SOL    HW192585   1.853  11.252   5.307  2.1739  1.1834 -0.7153
60885SOL    HW292586   1.945  11.224   5.424  0.1993  0.4764  0.7322
60886SOL     OW92587  11.573  12.775   7.359  0.5691  0.1054 -0.0349
60886SOL    HW192588  11.619  12.750   7.440  1.0240  0.4777 -0.1758
60886SOL    HW292589  11.586  12.700   7.301  0.4795 -0.0450  0.1359
60887SOL     OW92590   2.299   6.251   0.771  0.7775 -0.0614 -0.1207
60887SOL    HW192591   2.287   6.330   0.719 -0.1662  0.6372  1.1085
60887SOL    HW292592   2.219   6.200   0.756  1.3034 -0.7121 -0.7675
60888SOL     OW92593   6.902   1.104   9.409 -0.1018 -0.4477 -0.2721
60888SOL    HW192594   6.831   1.057   9.453  0.6751 -1.0139  0.4075
60888SOL    HW292595   6.889   1.196   9.434  0.6048 -0.8155  1.5919
60889SOL     OW92596   9.798   4.825  12.598 -0.1964  0.6732 -0.2812
60889SOL    HW192597   9.802   4.739  12.556  0.1171  0.0368  1.0055
60889SOL    HW292598   9.888   4.847  12.619 -0.3651  0.8629  0.2752
60890SOL     OW92599   3.794   5.584  12.940 -0.2047 -0.2005  0.1625
60890SOL    HW192600   3.704   5.613  12.953 -0.3854  0.7903 -2.6173
60890SOL    HW292601   3.792   5.490  12.961 -1.4599  0.1279  1.7042
60891SOL     OW92602   3.665   2.746  12.486 -0.0292  0.4940 -0.5726
60891SOL    HW192603   3.607   2.776  12.556  0.2656  0.4670 -0.3122
60891SOL    HW292604   3.607   2.717  12.416 -0.3368 -0.2895 -0.0036
60892SOL     OW92605   2.697   5.620   8.052 -0.6662  0.2022 -0.0847
60892SOL    HW192606   2.738   5.573   8.125 -0.5528  1.1543  0.4741
60892SOL    HW292607   2.677   5.551   7.989 -0.3469 -0.5848  0.6409
60893SOL     OW92608   0.965  13.162  13.172  0.1241 -0.1645  0.1410
60893SOL    HW192609   0.904  13.106  13.124 -0.0104 -0.7239  0.9435
60893SOL    HW292610   1.050  13.119  13.162  0.4138  0.5938 -0.9436
60894SOL     OW92611  10.095   0.443   5.668 -0.1443  0.0641  0.0046
60894SOL    HW192612  10.191   0.441   5.666 -0.1473 -2.4437 -1.4414
60894SOL    HW292613  10.072   0.528   5.630  1.4778  0.6760  0.2989
60895SOL     OW92614   9.126   9.772   7.568  0.1230  0.3032 -0.6648
60895SOL    HW192615   9.141   9.839   7.500  0.4340  1.2471  0.3048
60895SOL    HW292616   9.210   9.766   7.614 -0.2359  0.0609 -0.0358
60896SOL     OW92617   6.589  10.898   1.937  0.2606  0.4540 -0.3191
60896SOL    HW192618   6.503  10.857   1.943  0.3206  0.5022  1.2850
60896SOL    HW292619   6.585  10.948   1.855 -2.5279  3.2495  1.2816
60897SOL     OW92620   0.319   9.400   7.378  0.1795  0.0470  0.0927
60897SOL    HW192621   0.274   9.457   7.441 -0.5738 -0.9633  0.5003
60897SOL    HW292622   0.252   9.379   7.313  0.1637 -1.1147  0.4611
60898SOL     OW92623  10.079   2.713  11.717  0.3318  0.1128  0.3001
60898SOL    HW192624  10.000   2.660  11.728  0.1621  0.0767 -0.9300
60898SOL    HW292625  10.099   2.707  11.624  1.0933  1.1163  0.3794
60899SOL     OW92626  11.036   6.708   7.154 -0.2659  0.5864  0.4675
60899SOL    HW192627  11.039   6.795   7.193 -0.3397  1.4700 -1.3840
60899SOL    HW292628  10.986   6.655   7.216  0.1400  1.7443  1.8245
60900SOL     OW92629   6.328   9.368  10.122 -0.7223  0.3585 -0.0512
60900SOL    HW192630   6.398   9.303  10.113 -0.9678 -0.0069  0.6480
60900SOL    HW292631   6.374   9.450  10.140 -0.5089 -0.1170  1.7109
60901SOL     OW92632   7.210   8.158   4.417 -0.5919 -0.0177 -0.1495
60901SOL    HW192633   7.202   8.253   4.430 -0.5931  0.1757 -1.3982
60901SOL    HW292634   7.129   8.134   4.372 -0.2141 -0.4517 -0.6078
60902SOL     OW92635   7.527   1.668   3.878  0.4869  0.7864 -0.3950
60902SOL    HW192636   7.617   1.695   3.858  0.6600 -0.1159 -0.8862
60902SOL    HW292637   7.472   1.730   3.829  0.8710  0.4853 -1.2336
60903SOL     OW92638   7.437   0.215   2.610  0.6847 -0.3449  0.0855
60903SOL    HW192639   7.528   0.247   2.613  0.9375 -1.0010 -0.3832
60903SOL    HW292640   7.439   0.144   2.546 -0.3959  0.3427 -0.7265
60904SOL     OW92641   3.382  11.969  10.631  0.0453  0.1365  0.6147
60904SOL    HW192642   3.457  12.003  10.680  1.6073 -0.8203 -1.0054
60904SOL    HW292643   3.414  11.960  10.542 -1.7585 -1.0947  0.0439
60905SOL     OW92644  12.652  11.992   9.903 -0.2050  0.0375  0.2255
60905SOL    HW192645  12.560  12.012   9.923 -0.1672  0.5084 -0.0470
60905SOL    HW292646  12.680  11.933   9.973 -0.4137  0.7205  0.8887
60906SOL     OW92647   5.860   6.324   3.570  0.0352  0.3457 -0.1275
60906SOL    HW192648   5.874   6.306   3.477  0.8016  0.3526 -0.0156
60906SOL    HW292649   5.873   6.240   3.613  0.9509  0.6022  0.1065
60907SOL     OW92650   7.971  12.907   0.539  0.8184  0.8045 -0.0424
60907SOL    HW192651   8.036  12.906   0.608  1.2362 -1.1653 -0.3980
60907SOL    HW292652   7.902  12.848   0.570  0.8252  0.2084 -1.0857
60908SOL     OW92653   9.613   4.889   4.096  0.6138  0.0240  0.1678
60908SOL    HW192654   9.643   4.972   4.133  2.5973  0.0470 -1.3056
60908SOL    HW292655   9.643   4.823   4.158  2.4459  0.1813 -0.4721
60909SOL     OW92656   4.926   4.079   9.332 -0.0195  0.3620  0.3959
60909SOL    HW192657   4.931   4.041   9.244  0.1013  1.4171 -0.0770
60909SOL    HW292658   4.910   4.005   9.390 -1.5695 -0.1773 -0.6710
60910SOL     OW92659  11.875  13.105   0.603 -0.2686 -0.3309 -0.0613
60910SOL    HW192660  11.907  13.194   0.616 -3.0246  0.9320 -1.2718
60910SOL    HW292661  11.853  13.074   0.691  0.6116  0.1976  0.3570
60911SOL     OW92662   1.750  10.227   9.533 -0.6263 -0.3575  0.3730
60911SOL    HW192663   1.683  10.270   9.480  1.1125  2.6985  0.4527
60911SOL    HW292664   1.728  10.133   9.526 -1.4949 -0.0958 -4.3766
60912SOL     OW92665  11.497   1.301   5.666 -0.0433 -0.0486 -0.5783
60912SOL    HW192666  11.480   1.359   5.741  0.3984 -1.2769  0.5169
60912SOL    HW292667  11.493   1.359   5.590 -0.4691  1.2578  0.3891
60913SOL     OW92668  11.933   8.677  12.299  0.5750  0.1837 -0.0493
60913SOL    HW192669  11.857   8.661  12.243  1.7663  0.6616 -1.8913
60913SOL    HW292670  11.917   8.764  12.337 -1.2322 -0.9957  2.1310
60914SOL     OW92671   2.902  11.513   0.661 -1.0138 -0.5241  0.4841
60914SOL    HW192672   2.823  11.519   0.608 -2.3091 -0.0720  2.3408
60914SOL    HW292673   2.895  11.586   0.722  0.8839 -0.4504  0.6717
60915SOL     OW92674   7.841   5.414   0.517 -0.3882  0.1513  0.8957
60915SOL    HW192675   7.831   5.463   0.599 -0.9198  0.3549  0.7163
60915SOL    HW292676   7.758   5.366   0.508  0.4035 -1.3674  1.4329
60916SOL     OW92677   2.482   2.396   3.709  0.3141 -0.4811  0.0852
60916SOL    HW192678   2.491   2.405   3.614  0.3461 -1.3116 -0.0020
60916SOL    HW292679   2.530   2.315   3.729 -0.9879 -1.1497  0.5950
60917SOL     OW92680   7.680   1.751   0.898  0.0742 -0.0237 -0.0116
60917SOL    HW192681   7.607   1.783   0.950 -0.2392 -0.1615 -0.3627
60917SOL    HW292682   7.660   1.658   0.883 -0.2316  0.1940 -1.0299
60918SOL     OW92683   1.750   9.697   9.123 -0.4100  0.2692 -0.5960
60918SOL    HW192684   1.827   9.741   9.089 -0.9412  1.7352  0.0273
60918SOL    HW292685   1.716   9.646   9.049  1.4353 -0.8661 -0.7230
60919SOL     OW92686  10.202  11.073   0.583 -0.0396  0.4444  0.2007
60919SOL    HW192687  10.250  11.129   0.522  0.8749 -0.2678  0.2317
60919SOL    HW292688  10.267  11.048   0.649  0.0838 -1.9362 -0.6962
60920SOL     OW92689   3.430   5.487   3.266  0.2487  0.4995 -0.4131
60920SOL    HW192690   3.373   5.435   3.209 -1.1416  0.7181  0.7183
60920SOL    HW292691   3.455   5.427   3.336  2.7574 -0.0614 -1.6815
60921SOL     OW92692  12.420   1.192   3.111  0.2154  0.1079  0.5322
60921SOL    HW192693  12.346   1.243   3.145 -0.6293  0.7184 -1.9582
60921SOL    HW292694  12.379   1.116   3.069  0.8739  0.7284 -1.3539
60922SOL     OW92695  12.302   3.187  10.942  0.0090 -0.7798 -0.1415
60922SOL    HW192696  12.260   3.212  10.860  0.1703 -0.0146  0.0065
60922SOL    HW292697  12.280   3.256  11.003  2.0643  0.0446 -0.2484
60923SOL     OW92698   3.297   5.897   0.707  0.7041  0.0884 -0.0434
60923SOL    HW192699   3.276   5.923   0.617 -1.5994  0.5879  0.5667
60923SOL    HW292700   3.215   5.860   0.741  1.3693  0.3471  2.0016
60924SOL     OW92701   3.452   5.973   4.860  0.3429 -0.3561 -0.2991
60924SOL    HW192702   3.463   6.006   4.949 -0.1014 -3.1472  0.9143
60924SOL    HW292703   3.528   5.917   4.845  0.6305  0.4000 -1.8743
60925SOL     OW92704   2.010  12.871   6.875  0.4804 -0.8593 -0.4986
60925SOL    HW192705   2.049  12.785   6.887  0.0728 -0.9172  0.5129
60925SOL    HW292706   2.009  12.884   6.780  3.7967 -0.4584 -0.6025
60926SOL     OW92707   1.069   2.217   2.822  0.0689 -0.1983  0.2592
60926SOL    HW192708   1.104   2.233   2.734  1.0344 -0.9727  0.4840
60926SOL    HW292709   1.139   2.169   2.867 -0.1192  0.8222  1.6901
60927SOL     OW92710   9.556   1.859  12.965 -0.2791 -0.3296  0.0248
60927SOL    HW192711   9.461   1.865  12.963 -0.3255 -0.9030  0.2276
60927SOL    HW292712   9.574   1.772  13.001  0.3267  0.0631  0.7038
60928SOL     OW92713  13.282  11.920  12.534 -0.4163 -0.4205  0.8133
60928SOL    HW192714  13.316  11.950  12.618 -0.9114  2.7506 -0.0054
60928SOL    HW292715  13.222  11.989  12.506 -2.0896 -2.5069 -1.0832
60929SOL     OW92716   0.219   0.171   0.291  0.8493 -0.1140 -0.1518
60929SOL    HW192717   0.183   0.260   0.292  0.5892 -0.2307  0.6685
60929SOL    HW292718   0.302   0.181   0.244  1.0688  0.6604  0.3815
60930SOL     OW92719   6.413  10.708  11.578  0.2836 -0.2533  0.1287
60930SOL    HW192720   6.378  10.735  11.662  2.0641  3.2872 -0.0957
60930SOL    HW292721   6.477  10.639  11.599  0.2840  0.1728  1.6072
60931SOL     OW92722   8.046   5.310   2.474  0.6815  0.2061  0.3753
60931SOL    HW192723   7.955   5.334   2.489  1.0511  0.9972  1.4924
60931SOL    HW292724   8.042   5.228   2.425 -0.6475 -0.8260  2.1179
60932SOL     OW92725  10.516   4.708  12.805 -0.1426  0.1546  0.5666
60932SOL    HW192726  10.579   4.637  12.793 -0.3748  0.1251 -0.5804
60932SOL    HW292727  10.569   4.781  12.838  0.2733 -0.2366  0.7795
60933SOL     OW92728   2.419   0.184   5.141 -0.0619  0.4277  0.8110
60933SOL    HW192729   2.348   0.214   5.198 -0.8336 -0.6803  0.4570
60933SOL    HW292730   2.381   0.112   5.091  1.8276 -1.4767  1.9283
60934SOL     OW92731   6.735   7.400  12.987  0.4818  0.0399 -0.0129
60934SOL    HW192732   6.812   7.407  12.931 -0.3353  0.8524 -1.0839
60934SOL    HW292733   6.663   7.379  12.927  0.0409 -1.9304  1.1124
60935SOL     OW92734   8.898   7.535  10.225 -0.3866 -0.2089  0.6367
60935SOL    HW192735   8.934   7.449  10.201 -0.2691  0.7908 -3.6105
60935SOL    HW292736   8.811   7.516  10.260 -0.0775 -2.0858  0.4998
60936SOL     OW92737   0.017   5.365   0.893 -0.3145 -0.0282 -0.2387
60936SOL    HW192738  -0.064   5.383   0.846 -0.9150 -0.8957  0.4192
60936SOL    HW292739   0.008   5.414   0.975 -0.1172 -0.0255 -0.2183
60937SOL     OW92740  13.301   8.307   2.844 -0.2611  0.0617 -0.6489
60937SOL    HW192741  13.320   8.360   2.766  0.3749 -2.1324 -2.0731
60937SOL    HW292742  13.380   8.254   2.857 -0.4272  0.2546  1.4203
60938SOL     OW92743   2.372   3.348   9.856  0.4842  0.0021  0.4376
60938SOL    HW192744   2.292   3.343   9.804  0.7307 -0.8576  0.1202
60938SOL    HW292745   2.368   3.434   9.898 -0.7973 -0.1749  0.7314
60939SOL     OW92746  10.084   4.155   1.538  0.1906  0.3569 -0.3896
60939SOL    HW192747  10.003   4.155   1.588  0.2788  1.4790 -0.2308
60939SOL    HW292748  10.074   4.227   1.476  1.0726  0.5120 -0.3575
60940SOL     OW92749  10.031  12.743   1.067  0.4876 -0.1426  0.6096
60940SOL    HW192750  10.006  12.833   1.087 -0.4841 -0.6966  2.0096
60940SOL    HW292751   9.977  12.689   1.124  2.8944 -1.5322  1.7386
60941SOL     OW92752  13.287   2.385   8.226 -0.0900 -0.4564  0.5475
60941SOL    HW192753  13.304   2.376   8.320 -1.3273 -4.0407  0.5736
60941SOL    HW292754  13.197   2.417   8.221  0.5039  1.3454  0.4808
60942SOL     OW92755   2.570   5.712   5.661 -0.0388 -0.1324  0.0945
60942SOL    HW192756   2.638   5.778   5.646 -0.7611  0.4770 -0.5537
60942SOL    HW292757   2.488   5.759   5.653 -0.6843 -1.5098 -2.8613
60943SOL     OW92758   1.121  12.421   9.982  0.2368  0.4218  0.0893
60943SOL    HW192759   1.048  12.468  10.022  0.2205 -0.2889  0.9381
60943SOL    HW292760   1.096  12.410   9.891  0.7639  3.0832 -0.4707
60944SOL     OW92761   7.812   5.888   9.495 -0.3162  0.2372 -0.1189
60944SOL    HW192762   7.892   5.935   9.520 -0.3063 -0.4419  1.2107
60944SOL    HW292763   7.844   5.812   9.447 -0.2252  0.4452 -0.3967
60945SOL     OW92764   1.250  11.441   7.928 -0.2378 -0.3807  0.1894
60945SOL    HW192765   1.337  11.413   7.900 -0.2630 -2.6082  2.1166
60945SOL    HW292766   1.265  11.488   8.010 -0.7554  0.6031 -0.2562
60946SOL     OW92767   7.014  13.135   0.763 -0.3457 -0.2431 -0.6828
60946SOL    HW192768   6.983  13.101   0.680 -0.1747 -1.2269 -0.3593
60946SOL    HW292769   7.104  13.103   0.769 -0.0534  0.5989 -0.5418
60947SOL     OW92770   4.258   7.152   4.334 -0.3042  0.0691 -0.6018
60947SOL    HW192771   4.182   7.126   4.281 -0.0749 -2.1161  0.0326
60947SOL    HW292772   4.307   7.213   4.278 -1.7544  0.3709 -1.5898
60948SOL     OW92773  10.126   9.868   6.527 -0.1819  0.5397  0.0978
60948SOL    HW192774  10.090   9.806   6.464 -0.8099  0.3503  0.6307
60948SOL    HW292775  10.140   9.948   6.477  0.4321  0.0369 -0.5478
60949SOL     OW92776   1.591   8.655  12.359 -0.7437  0.1595  0.3588
60949SOL    HW192777   1.500   8.665  12.329 -1.4959  0.6169  2.6032
60949SOL    HW292778   1.630   8.741  12.344 -0.8074  0.1045 -0.1616
60950SOL     OW92779  11.283   9.221   1.608  0.5823 -0.4199  0.1199
60950SOL    HW192780  11.352   9.194   1.548  0.7519  0.8446 -0.2645
60950SOL    HW292781  11.202   9.193   1.565  0.7609 -0.4733 -0.1848
60951SOL     OW92782   1.598   6.726   3.031  0.1733 -0.4242 -0.5162
60951SOL    HW192783   1.655   6.760   3.101 -2.2486 -0.1951  1.4804
60951SOL    HW292784   1.621   6.634   3.024  1.3323 -0.1695 -0.3533
60952SOL     OW92785   3.577  11.036   5.436  0.1779  1.0299 -0.1117
60952SOL    HW192786   3.665  11.022   5.469 -0.7173 -2.2890  1.2383
60952SOL    HW292787   3.534  11.088   5.504  0.6372  1.2707 -0.0008
60953SOL     OW92788   9.419   3.103   3.430 -0.7669 -0.0370  0.4081
60953SOL    HW192789   9.469   3.127   3.352  2.5135  0.9773  2.6138
60953SOL    HW292790   9.437   3.010   3.442 -0.1728  0.0931  0.6052
60954SOL     OW92791  12.059   1.696   7.524 -0.5858  0.1840  0.0525
60954SOL    HW192792  12.009   1.620   7.493  1.5841  0.4174 -5.2234
60954SOL    HW292793  12.009   1.772   7.493  0.2588  0.5837 -0.3784
60955SOL     OW92794   7.808   9.304   6.194  0.4448 -0.3899  0.4537
60955SOL    HW192795   7.734   9.246   6.179 -0.3575  0.4107  1.2206
60955SOL    HW292796   7.850   9.268   6.273 -0.7433  0.7147  1.6291
60956SOL     OW92797   7.762   8.628   0.384 -0.3232  0.4936 -0.5727
60956SOL    HW192798   7.702   8.681   0.331 -1.7549  0.6527  1.0870
60956SOL    HW292799   7.791   8.688   0.453 -1.7987 -0.7453  1.2155
60957SOL     OW92800   8.242  12.579   5.431  0.2423 -0.3496 -0.3424
60957SOL    HW192801   8.226  12.518   5.503  0.9765 -0.4319 -0.2436
60957SOL    HW292802   8.293  12.528   5.368 -0.5379 -0.3310 -1.0042
60958SOL     OW92803   0.663  10.457   1.822  0.4562 -0.5740  0.3317
60958SOL    HW192804   0.686  10.403   1.746  0.9331  0.0973 -0.0026
60958SOL    HW292805   0.699  10.410   1.897  1.6872 -0.2493 -0.0480
60959SOL     OW92806   3.335   2.780   3.865  0.0082 -0.0352  0.6522
60959SOL    HW192807   3.289   2.854   3.905  1.1339  1.0084  0.1076
60959SOL    HW292808   3.407   2.821   3.817  0.5780 -1.4941  0.2211
60960SOL     OW92809   1.749  12.756   6.382 -0.2506  0.1936  0.0097
60960SOL    HW192810   1.697  12.680   6.354 -0.2973  0.5422 -0.8706
60960SOL    HW292811   1.747  12.816   6.307  0.7479  0.5678  0.2665
60961SOL     OW92812   2.611   5.140   7.780 -0.5962 -0.0602 -0.2676
60961SOL    HW192813   2.673   5.099   7.720  0.1570  1.3550 -0.5158
60961SOL    HW292814   2.643   5.117   7.868  0.1755  0.4739 -0.3960
60962SOL     OW92815   2.428   1.096  12.390  0.2889  0.6889 -0.7155
60962SOL    HW192816   2.441   1.019  12.335  1.1250 -0.5610  1.1344
60962SOL    HW292817   2.516   1.125  12.411  0.0605 -0.0112  1.4442
60963SOL     OW92818  12.324  11.008   2.649 -0.2277 -0.5166 -0.0400
60963SOL    HW192819  12.396  11.005   2.586 -0.6594 -1.1200 -0.5086
60963SOL    HW292820  12.352  10.951   2.720  0.3566  0.3366  0.4305
60964SOL     OW92821   6.485  11.171   8.208  0.1941 -0.4054  0.3755
60964SOL    HW192822   6.521  11.204   8.125 -0.9921 -1.4879 -0.6133
60964SOL    HW292823   6.432  11.242   8.242 -0.1561 -0.3226 -0.3399
60965SOL     OW92824  10.685   8.639   2.957  0.1590 -0.1070 -0.2526
60965SOL    HW192825  10.591   8.654   2.954  0.2119  1.2814  2.4254
60965SOL    HW292826  10.715   8.654   2.867 -1.9752  0.7379 -0.8711
60966SOL     OW92827  11.949   0.284   3.020  0.3768  0.0117 -0.2709
60966SOL    HW192828  11.990   0.362   3.057 -1.0350  1.1398 -0.9768
60966SOL    HW292829  11.988   0.212   3.068  1.2587  1.1877  0.8646
60967SOL     OW92830   4.962   7.714   6.128 -0.3718 -0.1067 -0.1956
60967SOL    HW192831   4.899   7.677   6.190 -0.2934  0.6435  0.3532
60967SOL    HW292832   4.968   7.807   6.153 -0.9753  0.4131 -1.8738
60968SOL     OW92833   0.380   5.184  11.144 -0.3752 -0.3317 -0.4280
60968SOL    HW192834   0.423   5.120  11.201  3.2285 -0.6650 -3.1570
60968SOL    HW292835   0.319   5.132  11.092  0.0426 -0.9422 -0.3225
60969SOL     OW92836   6.930   0.503  12.874  0.2981  0.3843 -0.3915
60969SOL    HW192837   6.859   0.537  12.821 -1.1466 -1.9418 -0.1139
60969SOL    HW292838   6.932   0.409  12.854  0.5078 -0.3854  2.6845
60970SOL     OW92839   1.173  10.248   7.151 -0.1183  0.4266  0.0337
60970SOL    HW192840   1.173  10.169   7.205 -2.0461  0.3964  0.0681
60970SOL    HW292841   1.189  10.217   7.062 -0.2223  0.0616  0.1410
60971SOL     OW92842   4.694   8.557  10.490  0.2087 -0.2513  0.2044
60971SOL    HW192843   4.662   8.475  10.528  1.5830 -0.9094  0.0035
60971SOL    HW292844   4.665   8.554  10.399  1.0564 -0.9882 -0.0598
60972SOL     OW92845  12.551   6.531   6.168  0.1107 -0.4386  0.0161
60972SOL    HW192846  12.471   6.549   6.217  0.4896  0.2840  0.4019
60972SOL    HW292847  12.532   6.560   6.079 -0.7101 -2.1029 -0.3789
60973SOL     OW92848   2.197   1.288   7.489 -0.6072 -0.2398 -0.6318
60973SOL    HW192849   2.154   1.257   7.568  1.3351  0.7201  0.8862
60973SOL    HW292850   2.148   1.367   7.465  0.5423  1.1704  1.4035
60974SOL     OW92851   4.133   5.759   3.437 -0.3224  0.5239 -0.0422
60974SOL    HW192852   4.184   5.731   3.513  0.5181  0.1505 -0.7239
60974SOL    HW292853   4.164   5.704   3.366 -2.2898 -0.3104 -0.3232
60975SOL     OW92854   4.266   9.410   3.885  0.3224  0.1597 -0.3726
60975SOL    HW192855   4.258   9.378   3.975 -0.2602 -0.4255 -0.6248
60975SOL    HW292856   4.326   9.348   3.842  1.7048  1.2209 -0.0369
60976SOL     OW92857  10.101   5.865   5.615 -0.7103 -0.5916  0.4888
60976SOL    HW192858  10.171   5.800   5.624 -1.4354 -1.2976  1.1832
60976SOL    HW292859  10.137   5.931   5.556  0.8873 -0.4670  1.5458
60977SOL     OW92860  10.866   0.454  11.291  0.1018 -0.3931 -0.3875
60977SOL    HW192861  10.938   0.515  11.303 -2.1112  2.0302  1.8716
60977SOL    HW292862  10.800   0.504  11.243 -1.0508 -1.6694 -0.1868
60978SOL     OW92863   2.032  10.812   4.604  0.1005 -0.2680  0.2901
60978SOL    HW192864   1.997  10.750   4.669  0.2597 -0.6268  0.0371
60978SOL    HW292865   2.036  10.762   4.523  0.0879  0.1236  0.0475
60979SOL     OW92866   0.273   2.203   2.582  0.0985 -0.3645 -0.2419
60979SOL    HW192867   0.191   2.174   2.540 -0.3837  0.7720 -0.1232
60979SOL    HW292868   0.341   2.187   2.516 -0.6187  1.2428 -1.4597
60980SOL     OW92869   3.677   7.561   3.258  0.3771 -0.0974 -0.1468
60980SOL    HW192870   3.763   7.553   3.215  0.2146  0.3757 -0.5642
60980SOL    HW292871   3.661   7.655   3.262  0.5705 -0.1046  1.3299
60981SOL     OW92872  10.815   8.137   8.015 -0.5673  0.3746  0.4127
60981SOL    HW192873  10.869   8.069   8.056 -0.5574 -0.2640 -0.6245
60981SOL    HW292874  10.728   8.097   8.007 -1.4226  1.5895  2.5889
60982SOL     OW92875  11.502   2.659   1.252 -0.3358  0.1138 -0.0244
60982SOL    HW192876  11.476   2.623   1.337  2.4066 -0.5857  0.6302
60982SOL    HW292877  11.532   2.748   1.272  0.5184 -0.1246 -0.1680
60983SOL     OW92878   6.225   5.731  12.569 -0.0816 -0.0659 -0.0951
60983SOL    HW192879   6.135   5.698  12.568  0.4574 -1.6173 -0.7404
60983SOL    HW292880   6.221   5.811  12.622 -1.7605 -0.3015  0.1848
60984SOL     OW92881   7.113   1.737   4.776  0.1687  0.3853 -0.3315
60984SOL    HW192882   7.041   1.698   4.824  0.9869  0.6230  1.1441
60984SOL    HW292883   7.071   1.794   4.711 -0.9557 -0.0559 -0.0045
60985SOL     OW92884   1.267   8.779   5.785 -0.7128 -0.6070 -0.3403
60985SOL    HW192885   1.295   8.851   5.728  1.6645 -0.4408  0.9173
60985SOL    HW292886   1.185   8.810   5.824 -0.0910  1.1612 -0.3395
60986SOL     OW92887  12.585   3.449   4.408 -0.1271  0.1574  0.1906
60986SOL    HW192888  12.625   3.517   4.463 -1.1289  1.0272 -0.1284
60986SOL    HW292889  12.501   3.430   4.451 -1.3866  1.5471 -1.4936
60987SOL     OW92890  13.060  10.881   2.544  0.1348 -0.2269  0.1647
60987SOL    HW192891  13.004  10.822   2.595  1.0318 -1.1707  0.0891
60987SOL    HW292892  13.006  10.905   2.469 -0.9203  0.5608  1.1488
60988SOL     OW92893   8.424  12.921   8.107 -0.5541 -0.6976  0.0991
60988SOL    HW192894   8.375  12.893   8.184 -0.9507 -1.5201 -0.4435
60988SOL    HW292895   8.374  12.887   8.033 -0.5761  0.6979 -0.5662
60989SOL     OW92896   6.443   4.586   9.714 -0.1002  0.2289 -0.1457
60989SOL    HW192897   6.452   4.651   9.645  1.0254  0.8645  0.5730
60989SOL    HW292898   6.400   4.512   9.671  0.5536  0.6130 -1.5239
60990SOL     OW92899   2.803   2.804   6.801  0.0285  0.1008 -0.4280
60990SOL    HW192900   2.824   2.831   6.891  0.3742  0.0169 -0.4829
60990SOL    HW292901   2.711   2.778   6.804  0.2757 -0.7394  0.0952
60991SOL     OW92902   8.588   9.943   2.867 -0.2120 -0.3204 -0.1640
60991SOL    HW192903   8.605   9.922   2.959 -2.4327 -0.7948  0.1935
60991SOL    HW292904   8.568   9.859   2.827 -0.1178  0.0024 -0.9027
60992SOL     OW92905   5.484   5.818   2.673 -0.7091  0.1054  0.2130
60992SOL    HW192906   5.578   5.804   2.663 -0.5845  1.0777 -0.0819
60992SOL    HW292907   5.463   5.779   2.758 -0.0032  0.0284  0.3608
60993SOL     OW92908   3.256  12.088   2.975 -0.1510  0.2694  0.2434
60993SOL    HW192909   3.290  12.154   3.035 -0.2543 -0.5738  1.2524
60993SOL    HW292910   3.237  12.137   2.895  2.7670  0.9015 -0.1752
60994SOL     OW92911  10.432   0.486  10.038 -0.0213 -0.7201 -1.1278
60994SOL    HW192912  10.420   0.581  10.049 -2.2454 -1.2846  4.3589
60994SOL    HW292913  10.351   0.455   9.998 -1.3299 -0.6411  1.3098
60995SOL     OW92914   5.782   0.962   6.425  0.0347  0.3090 -0.3339
60995SOL    HW192915   5.815   0.883   6.469 -0.7834 -0.4901 -1.1036
60995SOL    HW292916   5.689   0.944   6.411 -0.3196  1.7324  0.1124
60996SOL     OW92917  12.719   1.827   8.459 -0.3204 -0.4207  0.1868
60996SOL    HW192918  12.648   1.764   8.451  0.8482 -1.6571 -0.9755
60996SOL    HW292919  12.715   1.857   8.550 -0.2377 -3.0136  1.1293
60997SOL     OW92920   2.126   3.726   7.856 -0.0396  0.1096  0.0489
60997SOL    HW192921   2.169   3.645   7.828  0.1488  0.2768 -0.1490
60997SOL    HW292922   2.049   3.696   7.904 -2.5217 -0.2341 -3.7832
60998SOL     OW92923  11.461   0.957   2.060 -0.0396  0.2792 -0.1826
60998SOL    HW192924  11.554   0.975   2.048  0.3516 -1.4248  0.0783
60998SOL    HW292925  11.457   0.863   2.077 -1.8733  0.2105 -0.8325
60999SOL     OW92926   8.404   6.882  11.955 -0.0805 -0.4446  0.0537
60999SOL    HW192927   8.474   6.924  12.006  0.3438  0.4899 -1.2515
60999SOL    HW292928   8.428   6.789  11.955 -0.5199 -0.6224  2.1736
61000SOL     OW92929   8.313   9.838   0.500 -0.3180  0.4984 -0.2967
61000SOL    HW192930   8.333   9.842   0.594 -2.2232 -0.2469  0.1797
61000SOL    HW292931   8.331   9.747   0.475 -0.9783  0.3828 -0.3623
61001SOL     OW92932   7.191  10.076   7.528 -0.1198 -0.4983  0.3491
61001SOL    HW192933   7.287  10.072   7.534 -0.0162  1.0633  0.2373
61001SOL    HW292934   7.167  10.005   7.469  1.1553  0.2240 -1.1110
61002SOL     OW92935  12.660  12.483   7.002 -0.0642  0.8308  0.1179
61002SOL    HW192936  12.582  12.535   6.980  0.1469  0.6067 -1.2874
61002SOL    HW292937  12.702  12.467   6.917 -0.3978 -2.0899  0.4222
61003SOL     OW92938   2.230   6.278  10.615  0.2627  0.3871  0.7008
61003SOL    HW192939   2.318   6.239  10.618 -0.2781 -0.8479  1.5421
61003SOL    HW292940   2.171   6.204  10.632 -0.9749  1.1242 -0.1941
61004SOL     OW92941   2.749  12.419   3.922  0.0009  0.0236 -0.1234
61004SOL    HW192942   2.720  12.399   4.011 -0.9357 -1.8268 -0.7967
61004SOL    HW292943   2.831  12.371   3.913 -0.1388 -0.1596 -0.4097
61005SOL     OW92944   4.800   8.110   2.873  0.1089 -0.0508  0.4471
61005SOL    HW192945   4.733   8.148   2.930  0.7645 -0.3551  1.4492
61005SOL    HW292946   4.753   8.044   2.821 -0.8306  1.3447 -0.5721
61006SOL     OW92947  11.812   6.949   0.019  0.2638  0.3143  0.3492
61006SOL    HW192948  11.866   7.027   0.036  2.1762 -1.0524  0.8480
61006SOL    HW292949  11.841   6.919  -0.067  0.6484 -0.7056  0.8275
61007SOL     OW92950   2.260   7.819   0.170 -0.3082  0.5251  0.1631
61007SOL    HW192951   2.187   7.833   0.230 -0.5180  1.5783 -0.3317
61007SOL    HW292952   2.332   7.868   0.209  0.4406 -1.2205  1.1300
61008SOL     OW92953  10.959   0.240   7.489  0.4455 -0.2406  0.2231
61008SOL    HW192954  11.018   0.286   7.428  0.4736 -0.9689 -0.3063
61008SOL    HW292955  10.998   0.154   7.501 -1.5227 -1.5104 -1.7463
61009SOL     OW92956   3.894   8.763  12.031  0.4959  0.0814 -0.3478
61009SOL    HW192957   3.868   8.822  12.101  0.0652 -0.5921  0.0643
61009SOL    HW292958   3.904   8.819  11.954 -0.0432  0.6603  0.0059
61010SOL     OW92959   1.933  12.280   0.046  0.3852 -0.5090  0.1323
61010SOL    HW192960   1.876  12.239  -0.019  1.0391 -0.8097 -0.2677
61010SOL    HW292961   1.875  12.304   0.118 -0.3927  0.0757 -0.6801
61011SOL     OW92962   1.769   6.400   5.983  0.2192 -0.1246 -0.1982
61011SOL    HW192963   1.784   6.325   6.040  2.3785 -1.2928 -2.1492
61011SOL    HW292964   1.839   6.461   6.006 -0.8194  0.8337  0.5448
61012SOL     OW92965   9.568   9.715   7.620  0.1219  0.4572 -0.0375
61012SOL    HW192966   9.620   9.685   7.694  0.1666  0.2631 -0.1474
61012SOL    HW292967   9.481   9.732   7.657  0.1991  0.5542  0.0979
61013SOL     OW92968   4.020   2.321   8.117  0.1369  0.5260 -0.0547
61013SOL    HW192969   4.036   2.279   8.201 -0.2875  1.0327  0.2903
61013SOL    HW292970   3.938   2.283   8.086  0.7378 -0.3060 -0.6697
61014SOL     OW92971  12.901  12.488   9.769 -0.1585 -0.8200  0.4273
61014SOL    HW192972  12.807  12.468   9.766  0.1578 -2.3461 -0.1764
61014SOL    HW292973  12.944  12.406   9.746  1.3502 -0.2244  0.9788
61015SOL     OW92974   6.213   3.199  10.733  0.3535 -0.5514  0.5318
61015SOL    HW192975   6.149   3.248  10.785  0.5793  0.3129  0.0218
61015SOL    HW292976   6.168   3.118  10.710 -0.9577  0.4723 -0.6987
61016SOL     OW92977   0.583   4.047   9.627  0.3013 -0.0149 -0.4724
61016SOL    HW192978   0.521   4.107   9.585 -0.3575 -1.3446 -1.4909
61016SOL    HW292979   0.533   3.966   9.639  0.5222  0.2197  2.7823
61017SOL     OW92980   9.365  12.881   6.343  0.4271  0.6806 -0.2481
61017SOL    HW192981   9.431  12.908   6.278  0.4221  0.1109 -0.4932
61017SOL    HW292982   9.384  12.789   6.359  0.3264  0.7760  0.4483
61018SOL     OW92983  12.932   1.331  10.813  0.1777 -0.1445  0.2522
61018SOL    HW192984  12.953   1.409  10.762  0.1893 -0.2373  0.1133
61018SOL    HW292985  12.951   1.355  10.903 -0.5504  0.2748  0.3038
61019SOL     OW92986   2.284   5.600  12.900 -0.3834  0.9517 -0.2147
61019SOL    HW192987   2.277   5.689  12.866  0.2012  1.2491  0.4342
61019SOL    HW292988   2.286   5.610  12.995 -0.0469  0.2650 -0.1431
61020SOL     OW92989   0.413   9.794   5.072 -0.1511 -0.7384 -0.4299
61020SOL    HW192990   0.431   9.776   5.164  0.8359 -0.1644 -0.4997
61020SOL    HW292991   0.463   9.874   5.053 -1.2028 -0.2302 -1.1738
61021SOL     OW92992   4.760  11.559  12.035  0.3136 -0.2095 -0.2133
61021SOL    HW192993   4.824  11.488  12.042  0.8624 -0.0353 -2.5747
61021SOL    HW292994   4.792  11.626  12.095  1.3735 -0.8294 -0.0643
61022SOL     OW92995  12.469   3.649  10.775  0.3870  0.4484 -0.3429
61022SOL    HW192996  12.378   3.665  10.802 -0.1611  0.4569 -2.0915
61022SOL    HW292997  12.520   3.709  10.829 -0.6570  0.6377  0.4846
61023SOL     OW92998   6.784  13.112   6.681  0.1034  0.0094 -0.4336
61023SOL    HW192999   6.789  13.021   6.710  0.2356  0.5739  1.4701
61023SOL    HW293000   6.694  13.121   6.649 -0.5961 -0.2828  1.3345
61024SOL     OW93001   8.699   2.302   3.928 -0.2545  0.7150  0.2910
61024SOL    HW193002   8.673   2.315   3.837 -0.0358  0.2356  0.1565
61024SOL    HW293003   8.746   2.218   3.928 -2.9045 -0.8888  1.3589
61025SOL     OW93004   3.059   1.419   7.907  0.2523 -0.0049  0.1648
61025SOL    HW193005   3.150   1.393   7.919  0.3203  0.8078  1.6901
61025SOL    HW293006   3.055   1.509   7.939 -0.7471  0.5995 -1.5243
61026SOL     OW93007   0.900   0.721   4.118  0.7877  0.1009 -0.3326
61026SOL    HW193008   0.824   0.719   4.060  1.1416  1.5292 -0.8977
61026SOL    HW293009   0.933   0.632   4.118 -0.2802 -0.3122 -0.9036
61027SOL     OW93010   7.779  11.830   7.652  0.0610 -0.5501  0.9726
61027SOL    HW193011   7.692  11.793   7.633  0.4105 -0.8023 -0.2126
61027SOL    HW293012   7.797  11.802   7.742 -1.0249 -0.6004  1.1966
61028SOL     OW93013   6.352   1.253   0.768  0.1233  0.0087  0.1553
61028SOL    HW193014   6.259   1.268   0.788 -0.1951 -0.5848 -0.8198
61028SOL    HW293015   6.391   1.232   0.852 -1.3163 -3.2267  0.1709
61029SOL     OW93016   7.449   5.042   2.410  0.2529 -0.1233 -0.1304
61029SOL    HW193017   7.380   5.091   2.365  1.1577  0.4700 -0.9140
61029SOL    HW293018   7.402   4.982   2.467 -0.9283  1.9767  1.2522
61030SOL     OW93019   9.372   4.355   4.516  0.0214 -0.1424  0.4571
61030SOL    HW193020   9.301   4.315   4.566  0.8004 -0.8119  1.0484
61030SOL    HW293021   9.428   4.282   4.491  1.4094  0.5441  1.4530
61031SOL     OW93022  10.840   2.168   4.719  0.2416 -0.0055  0.0996
61031SOL    HW193023  10.842   2.263   4.729  2.5472  0.1988 -1.4756
61031SOL    HW293024  10.816   2.135   4.806  0.3931  1.9735  0.9419
61032SOL     OW93025  11.708  10.572   7.533  0.1547 -0.2843 -0.0025
61032SOL    HW193026  11.659  10.509   7.479  1.2353  0.0003 -1.3810
61032SOL    HW293027  11.766  10.517   7.586  0.3057 -0.5137 -0.3968
61033SOL     OW93028  11.904   4.911  10.700  0.4791 -0.0111 -0.2991
61033SOL    HW193029  11.932   4.930  10.611 -1.2035  1.2241 -0.6036
61033SOL    HW293030  11.871   4.994  10.734 -0.7580 -0.8887  0.7641
61034SOL     OW93031   0.286  12.730   4.563 -0.4055 -0.4207 -0.1060
61034SOL    HW193032   0.330  12.764   4.485 -0.3474 -0.4401 -0.0810
61034SOL    HW293033   0.219  12.671   4.529 -0.4801 -0.3136 -0.1483
61035SOL     OW93034   8.269  11.095   8.505  0.4729 -0.3486 -0.8009
61035SOL    HW193035   8.261  11.000   8.509 -0.3023 -0.2547  0.9257
61035SOL    HW293036   8.357  11.111   8.472  1.1080 -1.6888  0.1648
61036SOL     OW93037  13.225  13.239   9.546  0.1108  0.4016 -0.0691
61036SOL    HW193038  13.208  13.298   9.472 -0.3621  1.0193  0.5207
61036SOL    HW293039  13.230  13.152   9.507 -0.2817  0.7016 -0.8108
61037SOL     OW93040   0.802   0.604  10.884 -0.3671  0.0691 -0.1090
61037SOL    HW193041   0.880   0.554  10.908 -0.0829 -0.2065 -1.5406
61037SOL    HW293042   0.734   0.538  10.874 -0.8153  0.3150  1.1884
61038SOL     OW93043   9.712  11.354  11.463  0.3774 -0.1791  0.1174
61038SOL    HW193044   9.666  11.364  11.546 -0.6798  1.2070 -0.5947
61038SOL    HW293045   9.805  11.361  11.486  0.3277 -2.6333  1.5283
61039SOL     OW93046   7.214   2.699  12.349  0.0026  0.1399 -0.3838
61039SOL    HW193047   7.199   2.609  12.377  0.0567 -0.4293 -2.0319
61039SOL    HW293048   7.197   2.697  12.254  1.0014  1.6384 -0.6254
61040SOL     OW93049   2.642   6.023  10.478 -0.7484  0.1835 -0.1127
61040SOL    HW193050   2.713   6.013  10.542 -1.5574  0.5126  0.8556
61040SOL    HW293051   2.668   5.966  10.405  0.8501  0.8399 -0.0988
61041SOL     OW93052  13.039  12.701   3.338 -0.3849  0.3014 -0.4112
61041SOL    HW193053  13.127  12.701   3.302  0.4137 -0.3801  1.4322
61041SOL    HW293054  12.999  12.782   3.304  0.4864 -0.0149 -2.2633
61042SOL     OW93055   7.096  11.814   0.282  0.2030  0.7566 -0.4432
61042SOL    HW193056   7.079  11.880   0.349  0.9182  1.0638 -0.5520
61042SOL    HW293057   7.110  11.865   0.202  1.7109  0.5581 -0.3401
61043SOL     OW93058  12.373   7.741   9.339 -0.3274 -0.5216  0.3817
61043SOL    HW193059  12.395   7.657   9.381 -1.0854 -0.7276  0.3933
61043SOL    HW293060  12.290   7.724   9.296  0.2967 -0.2236 -0.9774
61044SOL     OW93061  12.785   6.058   2.180 -0.5707  0.2780  0.3282
61044SOL    HW193062  12.879   6.040   2.173 -0.9653 -2.2176  0.6131
61044SOL    HW293063  12.769   6.064   2.274 -0.7870  0.0999  0.3030
61045SOL     OW93064  11.676   0.872   1.007  0.4548 -0.0274 -0.0202
61045SOL    HW193065  11.615   0.921   0.952  0.8820 -0.1666 -0.6410
61045SOL    HW293066  11.746   0.934   1.026 -0.0126  0.2261  0.9450
61046SOL     OW93067   0.920   8.245   2.032  0.4615  0.8722 -0.4428
61046SOL    HW193068   0.932   8.162   2.078  0.7076  0.8336 -0.5717
61046SOL    HW293069   0.826   8.260   2.033  0.5328  1.4050  1.0249
61047SOL     OW93070   4.336  13.296   7.625  0.2211  0.5509  0.0219
61047SOL    HW193071   4.266  13.299   7.561  0.7848  1.9234 -0.5727
61047SOL    HW293072   4.391  13.222   7.599 -0.1870  0.3986 -0.3962
61048SOL     OW93073   6.197   9.948   5.335  0.3725  0.2575 -0.4079
61048SOL    HW193074   6.266   9.893   5.297 -0.2786 -0.1608 -1.0215
61048SOL    HW293075   6.219  10.036   5.306  0.1858  0.0126 -1.3370
61049SOL     OW93076   0.406   5.964   7.141 -0.0713 -0.2867  0.5717
61049SOL    HW193077   0.440   6.026   7.205 -0.0632 -1.9391  2.2364
61049SOL    HW293078   0.440   5.879   7.169  0.0630 -1.0592 -1.7460
61050SOL     OW93079   6.459  11.834  12.107 -0.4526 -0.3891  0.1845
61050SOL    HW193080   6.449  11.750  12.151  1.3214 -1.0268 -0.5669
61050SOL    HW293081   6.489  11.812  12.019  1.5903  1.0460  0.4482
61051SOL     OW93082   8.714   9.175   6.393 -0.5368 -0.0372 -0.1776
61051SOL    HW193083   8.743   9.087   6.417  0.8330  0.1078 -1.2076
61051SOL    HW293084   8.698   9.170   6.299 -1.3051  0.5967 -0.0887
61052SOL     OW93085   4.929   4.722  10.577  0.3412  0.0817 -0.0272
61052SOL    HW193086   4.994   4.767  10.631  0.6230  0.6202 -0.7934
61052SOL    HW293087   4.866   4.791  10.555 -0.2562 -0.3370  0.3410
61053SOL     OW93088  13.184   8.990   7.281  0.3008 -0.1657  0.5103
61053SOL    HW193089  13.261   8.951   7.322 -0.6265 -0.7579  1.7469
61053SOL    HW293090  13.121   8.918   7.274  0.0518  0.1549 -1.0602
61054SOL     OW93091  11.559   4.446   9.078 -0.2542 -0.7910  0.5550
61054SOL    HW193092  11.639   4.411   9.038  1.3143  0.3772  2.4826
61054SOL    HW293093  11.522   4.371   9.125 -0.0119 -1.1991  0.1165
61055SOL     OW93094   5.528   3.497  10.231 -0.1990  0.6733  0.3419
61055SOL    HW193095   5.480   3.552  10.170  0.1211 -0.5454 -1.1017
61055SOL    HW293096   5.614   3.538  10.237 -0.1531  0.6833 -0.2541
61056SOL     OW93097  10.228  11.213   7.598  0.1036 -0.1432  0.0237
61056SOL    HW193098  10.210  11.278   7.530  0.2806  1.0028  1.0350
61056SOL    HW293099  10.171  11.139   7.576  1.7776 -0.8072 -2.6661
61057SOL     OW93100   9.098   0.502   8.870 -0.6138 -0.3436  0.2793
61057SOL    HW193101   9.044   0.460   8.802 -0.7633 -0.6645  0.5933
61057SOL    HW293102   9.187   0.501   8.833 -1.0327  1.6769 -0.9644
61058SOL     OW93103   5.834  12.801   5.449 -0.4009 -0.1003 -0.4029
61058SOL    HW193104   5.857  12.727   5.392  1.2877  0.6272 -0.7149
61058SOL    HW293105   5.911  12.813   5.504 -0.2259  2.0552 -1.0469
61059SOL     OW93106  12.324  13.006   6.091 -0.3654 -0.6654  0.4491
61059SOL    HW193107  12.372  13.028   6.171  1.1716 -2.1253 -0.0105
61059SOL    HW293108  12.252  12.950   6.121  2.0627 -3.9977  0.6683
61060SOL     OW93109   3.298   9.503  10.903 -0.0170  0.0145 -0.0177
61060SOL    HW193110   3.357   9.513  10.978  0.6361  0.0066 -0.5290
61060SOL    HW293111   3.355   9.493  10.828 -0.6511 -1.8665 -0.2964
61061SOL     OW93112   9.210   0.898  12.445 -0.3538 -0.2072 -0.4514
61061SOL    HW193113   9.127   0.927  12.408 -0.3937  0.6064  0.2533
61061SOL    HW293114   9.276   0.925  12.381 -0.2600  2.5484  0.6993
61062SOL     OW93115   7.413  11.960  11.499  0.3340  0.1454  0.6229
61062SOL    HW193116   7.397  12.021  11.570  0.3115  0.3305  0.4604
61062SOL    HW293117   7.508  11.954  11.493  0.3584 -1.4384  2.0034
61063SOL     OW93118  12.826   7.187   4.345  0.2945  0.0498 -0.4949
61063SOL    HW193119  12.847   7.134   4.268  1.0883 -0.9005  0.3550
61063SOL    HW293120  12.736   7.163   4.367  0.8141 -1.3898  0.1950
61064SOL     OW93121  12.809  11.779  10.337  0.4098 -0.7645  0.2864
61064SOL    HW193122  12.820  11.762  10.430 -1.6549 -0.3030  0.6784
61064SOL    HW293123  12.719  11.811  10.330  1.6951  2.9785 -1.3272
61065SOL     OW93124  12.343   2.232  12.061  0.5935 -0.4728 -0.4242
61065SOL    HW193125  12.348   2.138  12.079  1.6868 -0.4218 -0.3889
61065SOL    HW293126  12.319   2.272  12.145  1.2256 -0.6324 -0.1619
61066SOL     OW93127   6.610   4.019   0.854 -0.1022 -0.3089  0.4656
61066SOL    HW193128   6.529   4.069   0.842  0.0580 -0.0470  0.4750
61066SOL    HW293129   6.652   4.022   0.768 -0.1292 -0.4941  0.4455
61067SOL     OW93130  11.714   4.336  11.240 -0.3355  0.1011 -0.1458
61067SOL    HW193131  11.681   4.353  11.328  0.8727  0.5045  0.2550
61067SOL    HW293132  11.643   4.362  11.181 -0.7529  0.8482  0.6727
61068SOL     OW93133   8.336   9.071  13.169  0.1372  0.0423  0.3852
61068SOL    HW193134   8.390   8.991  13.165  0.8193  0.4715  0.8608
61068SOL    HW293135   8.352   9.114  13.086  0.3142  0.0312  0.4128
61069SOL     OW93136   8.835   7.997   6.060  0.4426 -0.0202  0.0844
61069SOL    HW193137   8.768   7.982   5.994 -0.1066  1.1816  0.3398
61069SOL    HW293138   8.786   8.023   6.138  1.2031  1.1305  0.1991
61070SOL     OW93139   5.898  10.029  12.685  0.5474  0.2398 -0.2362
61070SOL    HW193140   5.882  10.006  12.777 -0.7032  0.0025 -0.5047
61070SOL    HW293141   5.943  10.113  12.689 -0.4486  0.7522  0.5698
61071SOL     OW93142   9.730  11.047   4.600 -0.2029  0.1344 -0.1368
61071SOL    HW193143   9.664  11.031   4.669 -0.8876 -0.5673 -0.9281
61071SOL    HW293144   9.686  11.106   4.539  0.8923  1.8734  0.6969
61072SOL     OW93145   1.273   7.352  13.036 -0.0232  0.1768  0.7656
61072SOL    HW193146   1.229   7.339  13.120 -1.1286 -0.5890  0.0925
61072SOL    HW293147   1.249   7.275  12.984 -0.5476  1.3227 -0.7480
61073SOL     OW93148  11.276   3.059  11.067  0.1835 -0.3044  0.2092
61073SOL    HW193149  11.310   3.106  11.143 -1.5189  3.4871 -1.1661
61073SOL    HW293150  11.183   3.047  11.085 -0.0960 -0.0106 -0.9188
61074SOL     OW93151   8.283   6.844  13.248 -0.4375  0.4348  0.1560
61074SOL    HW193152   8.307   6.796  13.169 -1.2062  0.7038 -0.2463
61074SOL    HW293153   8.313   6.788  13.320 -0.0883  0.0056 -0.3156
61075SOL     OW93154  13.022   0.416   3.185  0.1922 -0.2171  0.0355
61075SOL    HW193155  12.973   0.338   3.213 -2.0510  0.7813 -0.8842
61075SOL    HW293156  13.015   0.415   3.090  1.6228  0.2337 -0.0955
61076SOL     OW93157   6.424  11.979   6.937  0.8142  0.0653  0.8064
61076SOL    HW193158   6.508  11.957   6.978  0.2083  0.1502  2.1371
61076SOL    HW293159   6.362  11.916   6.974  0.4908 -0.8731 -1.1631
61077SOL     OW93160   6.645   9.305   0.178  0.5240 -0.1246 -0.1240
61077SOL    HW193161   6.581   9.265   0.237 -0.5558 -0.1581 -1.2708
61077SOL    HW293162   6.602   9.384   0.146  0.3894 -0.9330 -2.0926
61078SOL     OW93163   1.330   1.008   8.950  0.3120  0.0081  0.1031
61078SOL    HW193164   1.258   0.950   8.925  0.8009  0.0590 -1.5686
61078SOL    HW293165   1.364   1.042   8.867  1.0301  1.5030  0.9560
61079SOL     OW93166   2.775  12.922  12.901 -0.4973  0.3774  0.0571
61079SOL    HW193167   2.860  12.953  12.868  0.2859 -0.9538  0.6955
61079SOL    HW293168   2.733  13.000  12.936  0.6985  0.9911  0.1960
61080SOL     OW93169  11.843   4.954   1.725 -0.0949  0.2680  0.1432
61080SOL    HW193170  11.789   4.937   1.648  0.4776  0.8890 -0.4091
61080SOL    HW293171  11.919   4.897   1.715  0.4537  1.0584 -0.2585
61081SOL     OW93172   7.291   4.394   1.114 -0.0189 -0.2738  0.3501
61081SOL    HW193173   7.340   4.312   1.110 -0.8331 -0.7287 -0.9806
61081SOL    HW293174   7.309   4.428   1.202 -0.6857 -2.5318  1.4465
61082SOL     OW93175   5.668   4.729   3.710  0.0554 -0.0660  0.0663
61082SOL    HW193176   5.663   4.759   3.801 -1.6865  2.2494 -0.7088
61082SOL    HW293177   5.585   4.683   3.697  1.1576 -2.2106  0.1591
61083SOL     OW93178   8.768  10.806  12.340  0.1719 -0.2367  0.3873
61083SOL    HW193179   8.805  10.890  12.313 -1.3645  0.8135  1.3868
61083SOL    HW293180   8.687  10.829  12.386 -0.7033 -2.3146 -0.0031
61084SOL     OW93181   9.614   1.253   3.210 -0.8962 -0.1120  0.6233
61084SOL    HW193182   9.577   1.297   3.287 -0.0134  1.5838  0.1423
61084SOL    HW293183   9.637   1.325   3.151 -2.6150 -1.3906 -1.7672
61085SOL     OW93184   4.177  11.435   3.138  0.0868 -0.8618  0.5495
61085SOL    HW193185   4.133  11.519   3.154  1.0321 -0.3026  0.2558
61085SOL    HW293186   4.184  11.395   3.225 -2.1859 -1.5953  0.4678
61086SOL     OW93187  13.285  10.620   5.907  0.5852  0.2708  0.3492
61086SOL    HW193188  13.312  10.703   5.868  0.6338 -0.4410 -1.2042
61086SOL    HW293189  13.196  10.636   5.938 -0.1856  0.3702 -1.7655
61087SOL     OW93190  13.187   3.176   7.152 -0.0633 -0.2518 -0.2474
61087SOL    HW193191  13.185   3.082   7.134 -1.7139 -0.0509 -1.3179
61087SOL    HW293192  13.147   3.184   7.239 -1.5329 -0.4219 -0.8854
61088SOL     OW93193   7.604  11.910   2.082  0.6355 -0.1225  0.3518
61088SOL    HW193194   7.586  11.928   1.989 -1.0589  1.3105  0.9141
61088SOL    HW293195   7.639  11.821   2.082  1.0514 -0.0237 -1.7001
61089SOL     OW93196  11.176  10.182   3.154  0.7042  0.1745 -0.2181
61089SOL    HW193197  11.164  10.098   3.110 -0.5712  0.4632 -0.4898
61089SOL    HW293198  11.213  10.239   3.086 -1.1308  0.5812 -0.9610
61090SOL     OW93199   0.595   6.420   9.576 -0.0492  0.2384 -0.2649
61090SOL    HW193200   0.562   6.393   9.661 -0.7145  0.4466 -0.4496
61090SOL    HW293201   0.690   6.419   9.585 -0.1174  1.5172  0.8805
61091SOL     OW93202   5.267   2.537   0.060 -0.0410 -0.3617  0.1741
61091SOL    HW193203   5.302   2.626   0.061  0.3239 -0.4888  1.7166
61091SOL    HW293204   5.197   2.539  -0.005  0.7655  0.7216 -0.6890
61092SOL     OW93205   2.491  10.729   2.719  0.0995 -0.1800  0.9536
61092SOL    HW193206   2.409  10.748   2.765  0.5442  1.9230  0.9902
61092SOL    HW293207   2.468  10.729   2.626  0.2390  1.7878  0.8791
61093SOL     OW93208   0.488   2.856  10.386 -0.4343 -0.0224 -0.0358
61093SOL    HW193209   0.454   2.920  10.449  1.3315  1.1686 -0.2042
61093SOL    HW293210   0.481   2.900  10.301 -2.6550 -1.5572 -0.7342
61094SOL     OW93211   5.206   5.517   1.491 -0.1977 -0.0052  0.5461
61094SOL    HW193212   5.223   5.431   1.530 -0.8653 -0.2730  0.2716
61094SOL    HW293213   5.283   5.569   1.513  1.1518 -1.2546 -0.9730
61095SOL     OW93214   3.330  12.544  11.251 -0.0032 -0.5000 -0.0646
61095SOL    HW193215   3.344  12.637  11.235 -0.6682 -0.5265 -0.9012
61095SOL    HW293216   3.332  12.534  11.346  0.0728  0.3614  0.0248
61096SOL     OW93217  11.547   7.287   4.257 -0.9100  0.4333  0.5675
61096SOL    HW193218  11.452   7.298   4.265 -0.9189  1.1206 -0.2669
61096SOL    HW293219  11.557   7.212   4.197 -0.9222  0.2944  0.7384
61097SOL     OW93220   6.691  13.298   2.978 -0.4610 -0.1791  0.0752
61097SOL    HW193221   6.781  13.268   2.990 -0.3147  0.1537 -0.1808
61097SOL    HW293222   6.683  13.374   3.036 -2.2031 -3.2685  4.3757
61098SOL     OW93223   4.870   6.221   6.155  0.0695  0.2607 -0.5886
61098SOL    HW193224   4.891   6.299   6.103  0.7760 -0.8572 -2.0492
61098SOL    HW293225   4.867   6.150   6.091  0.4555 -1.0986  0.8516
61099SOL     OW93226   2.380   3.745   3.456  0.1172  0.6779  0.2328
61099SOL    HW193227   2.367   3.711   3.545  0.9147  0.2007  0.1834
61099SOL    HW293228   2.381   3.840   3.466 -0.2619  0.6386  0.6651
61100SOL     OW93229   0.020   4.187  13.118 -0.3967 -0.3802 -0.7298
61100SOL    HW193230   0.052   4.145  13.198 -3.4551 -0.6353  0.5234
61100SOL    HW293231   0.050   4.277  13.124  0.2895 -0.6589  0.2081
61101SOL     OW93232   9.009   5.686  12.355  0.3815  0.4850  0.9318
61101SOL    HW193233   9.027   5.592  12.343  1.2405  0.7762 -0.3703
61101SOL    HW293234   9.007   5.698  12.450  0.1560 -0.8673  1.1234
61102SOL     OW93235  12.114   0.513   0.650 -0.4800  0.7398  0.1625
61102SOL    HW193236  12.095   0.559   0.732 -1.4110  1.1832 -0.2802
61102SOL    HW293237  12.055   0.437   0.651  1.3092 -0.6937  1.0573
61103SOL     OW93238   9.687   9.322  10.329 -0.3909 -0.3524  0.0473
61103SOL    HW193239   9.752   9.392  10.320  0.3062 -1.0499 -0.5153
61103SOL    HW293240   9.603   9.366  10.321  0.0456  0.3656 -0.6832
61104SOL     OW93241  12.516   7.876   2.442 -0.3714  0.6089  0.3433
61104SOL    HW193242  12.601   7.863   2.483 -1.7940 -0.0648  3.3671
61104SOL    HW293243  12.512   7.969   2.422  0.6036  0.8793  1.3351
61105SOL     OW93244   1.004   1.871  10.043  0.0005 -0.0047  0.0272
61105SOL    HW193245   1.048   1.828   9.970 -0.7155  1.1952 -1.1638
61105SOL    HW293246   1.075   1.902  10.100  0.5821 -0.4071 -0.4747
61106SOL     OW93247   1.668   5.259   2.421  0.0355 -0.1057 -0.0046
61106SOL    HW193248   1.613   5.311   2.480  0.5397 -0.2544  0.6156
61106SOL    HW293249   1.614   5.246   2.343 -0.8490 -0.3340  0.6246
61107SOL     OW93250  12.356   7.997   5.502  0.2093  0.2701 -0.0222
61107SOL    HW193251  12.398   8.075   5.539  1.3190 -1.3835  2.4479
61107SOL    HW293252  12.280   7.982   5.559  0.3501 -0.7810 -0.0995
61108SOL     OW93253   0.615   9.475  10.723 -0.0581  0.6433 -0.7858
61108SOL    HW193254   0.570   9.404  10.677 -0.1580  0.3085 -0.1697
61108SOL    HW293255   0.544   9.524  10.765  0.0700  0.6989 -0.6370
61109SOL     OW93256   2.090   8.297   3.532 -0.6094 -0.0999 -0.6441
61109SOL    HW193257   2.007   8.339   3.555 -0.3711 -0.4342  0.9363
61109SOL    HW293258   2.157   8.360   3.559 -0.2979 -0.8108  0.3055
61110SOL     OW93259   1.649   0.727   8.284  0.0387 -0.0803  0.6604
61110SOL    HW193260   1.699   0.779   8.347 -1.2697  2.2353 -0.1083
61110SOL    HW293261   1.566   0.773   8.275 -0.4877 -1.3219 -1.4696
61111SOL     OW93262  10.440   9.378   4.527 -0.3458 -0.7205 -0.4805
61111SOL    HW193263  10.494   9.453   4.503 -0.0862 -0.6380  0.3358
61111SOL    HW293264  10.503   9.311   4.555 -0.6570 -0.5943  0.5592
61112SOL     OW93265   0.038   9.550   7.883  0.5478  0.0256 -0.2627
61112SOL    HW193266   0.090   9.478   7.846  1.5945  0.7345 -0.2235
61112SOL    HW293267  -0.026   9.571   7.816  0.3592 -0.8189 -0.3535
61113SOL     OW93268   7.440   7.925   7.859  0.0032 -0.1046 -0.2747
61113SOL    HW193269   7.344   7.930   7.852 -0.0312  0.0080  0.2318
61113SOL    HW293270   7.460   7.972   7.940  0.4050 -0.9173  0.1018
61114SOL     OW93271   0.409  12.932   8.289 -0.6085  0.3082  0.3039
61114SOL    HW193272   0.410  12.927   8.193 -2.0862  0.2267  0.2700
61114SOL    HW293273   0.408  13.026   8.307  1.6634  0.3981  0.3334
61115SOL     OW93274  12.222  12.722   1.188 -0.8724 -0.1289  0.2947
61115SOL    HW193275  12.297  12.762   1.232  0.1805 -0.6726 -0.9181
61115SOL    HW293276  12.154  12.718   1.255 -0.1909  1.3821  1.1298
61116SOL     OW93277  13.067   1.089  10.803 -0.3706 -0.6222 -0.5719
61116SOL    HW193278  13.036   1.180  10.800 -0.3242 -0.5739  0.2317
61116SOL    HW293279  12.988   1.038  10.824 -0.0025 -0.5304  1.1728
61117SOL     OW93280   8.926   0.688   5.222  0.6329  0.0636  0.2647
61117SOL    HW193281   8.935   0.650   5.135 -1.3348  1.2083 -0.5082
61117SOL    HW293282   8.923   0.783   5.207 -0.7194  0.2444  1.4349
61118SOL     OW93283   0.427   6.102   5.698 -0.1887  0.1902 -0.2063
61118SOL    HW193284   0.464   6.023   5.737  1.2436  1.1684  0.5177
61118SOL    HW293285   0.471   6.110   5.614 -0.4012  0.1526 -0.3192
61119SOL     OW93286   0.230  12.276   3.223  0.3735 -0.6068 -0.3614
61119SOL    HW193287   0.313  12.282   3.270  0.4192 -0.9279 -0.3984
61119SOL    HW293288   0.247  12.317   3.139  0.1664  0.3793  0.0612
61120SOL     OW93289   5.979   2.005   7.088 -0.2239 -0.0833  0.4559
61120SOL    HW193290   5.995   1.967   7.002  1.9846 -2.6879  1.8456
61120SOL    HW293291   5.997   2.099   7.077 -2.7944  0.1975 -2.4394
61121SOL     OW93292   7.210   0.223   2.890  0.0728  0.2304  0.2729
61121SOL    HW193293   7.273   0.291   2.866  1.5298 -0.9415  0.6849
61121SOL    HW293294   7.157   0.210   2.811  2.9193 -1.5313 -1.5042
61122SOL     OW93295  11.168  10.785   8.792  0.0132  0.1219 -0.5981
61122SOL    HW193296  11.231  10.716   8.813  0.0274 -0.3631 -2.0957
61122SOL    HW293297  11.089  10.738   8.765 -0.5621  0.7223 -0.0182
61123SOL     OW93298  12.542  10.813   4.434 -0.1766 -0.0882 -0.1271
61123SOL    HW193299  12.508  10.883   4.378 -0.9836 -0.1801  0.2381
61123SOL    HW293300  12.537  10.734   4.380  1.9200  0.2965 -1.0018
61124SOL     OW93301  10.360   0.967   9.829  0.4510 -0.0392 -0.1683
61124SOL    HW193302  10.313   1.011   9.758 -0.5588 -0.6316  0.1067
61124SOL    HW293303  10.291   0.940   9.890  0.8543 -2.9022 -0.8196
61125SOL     OW93304   4.523  11.144  12.258  0.0784  0.2610 -0.1027
61125SOL    HW193305   4.618  11.158  12.260  0.0424  0.3984  0.6935
61125SOL    HW293306   4.494  11.192  12.180  0.7789 -0.5667 -0.8950
61126SOL     OW93307  11.307   0.869  10.034 -0.4030 -0.0817  0.3450
61126SOL    HW193308  11.339   0.913  10.113  0.5907  0.1362 -0.1615
61126SOL    HW293309  11.232   0.921  10.006  0.5748  1.1606 -0.0802
61127SOL     OW93310   4.611   5.264   9.158 -0.0147  0.0721  0.1452
61127SOL    HW193311   4.610   5.169   9.148  0.0371 -0.1611  1.9783
61127SOL    HW293312   4.577   5.279   9.246  0.5950  1.7192  0.1342
61128SOL     OW93313   7.663  10.281   5.680  0.1602  0.0723  0.3275
61128SOL    HW193314   7.699  10.320   5.601  0.4500  0.4215  0.6303
61128SOL    HW293315   7.679  10.187   5.670 -2.4311 -0.2847 -1.4002
61129SOL     OW93316   3.074   1.411   3.176  0.5466  0.5107 -0.0377
61129SOL    HW193317   3.066   1.408   3.272  1.1967 -0.3847  0.0076
61129SOL    HW293318   3.157   1.457   3.161  1.9450 -1.8294 -0.0382
61130SOL     OW93319   7.198   3.630  12.741 -0.0565  0.0561 -0.4518
61130SOL    HW193320   7.221   3.706  12.795 -0.5659 -0.7561  0.9703
61130SOL    HW293321   7.154   3.571  12.802  1.5575 -1.9963 -1.1722
61131SOL     OW93322   3.593   5.207   6.776  0.1012 -0.2903 -0.0967
61131SOL    HW193323   3.607   5.158   6.695  0.0792 -1.3836  0.5442
61131SOL    HW293324   3.672   5.193   6.828  0.1690  0.4996  0.0386
61132SOL     OW93325   3.894   4.254   7.361 -0.6422  0.1262 -0.5133
61132SOL    HW193326   3.947   4.325   7.396  0.2037  0.2086 -1.8953
61132SOL    HW293327   3.942   4.175   7.383 -0.7650  0.0869 -0.3832
61133SOL     OW93328   6.338   2.299   9.187 -0.0431  0.0278 -0.3859
61133SOL    HW193329   6.407   2.315   9.123  0.5595 -1.1860 -0.0590
61133SOL    HW293330   6.292   2.221   9.153  0.0748 -0.4239  0.4803
61134SOL     OW93331   2.643  11.344  12.508 -0.0082  0.1376 -0.0355
61134SOL    HW193332   2.668  11.253  12.493  1.0557  0.4562 -0.2738
61134SOL    HW293333   2.632  11.351  12.603  2.3874  0.3367  0.2832
61135SOL     OW93334   1.362   9.963   7.205  0.0338  0.3513 -0.0238
61135SOL    HW193335   1.428   9.965   7.275 -1.0164  1.7709  0.9816
61135SOL    HW293336   1.283   9.930   7.248 -0.1628 -0.5238 -1.0139
61136SOL     OW93337   2.612   4.100   3.148  0.5479 -0.2591  0.3317
61136SOL    HW193338   2.664   4.168   3.190  1.4666 -0.6802 -0.1014
61136SOL    HW293339   2.522   4.130   3.156  0.9759  1.2691 -0.3106
61137SOL     OW93340   0.817   0.256   6.550  0.1789  0.1731 -0.3062
61137SOL    HW193341   0.734   0.299   6.530  0.3061  0.3430 -0.4792
61137SOL    HW293342   0.793   0.170   6.584 -0.2230  1.3593  2.7252
61138SOL     OW93343  13.225   1.100   9.410  0.8879 -0.0634  0.2167
61138SOL    HW193344  13.317   1.113   9.389  0.9219  0.1090  0.4776
61138SOL    HW293345  13.225   1.031   9.477  0.7462 -0.9971 -0.7059
61139SOL     OW93346   2.289  12.089   2.293 -0.3862  0.1888  0.5934
61139SOL    HW193347   2.347  12.017   2.267 -0.6801  0.3047 -0.3962
61139SOL    HW293348   2.305  12.099   2.387  0.9523 -0.0035  0.4049
61140SOL     OW93349   7.056   6.709   4.317 -0.2037  0.2288  0.1432
61140SOL    HW193350   7.032   6.616   4.318  1.4614 -0.2634  2.1180
61140SOL    HW293351   7.110   6.719   4.239 -0.7605 -0.3523 -0.3286
61141SOL     OW93352  11.929   7.838   4.038  0.3969 -0.4544  0.1285
61141SOL    HW193353  11.894   7.766   3.984  0.5752  0.0482 -0.6744
61141SOL    HW293354  12.023   7.836   4.022  0.3225  0.4256 -0.4945
61142SOL     OW93355  13.268   6.473   9.894  0.5600 -0.1657  0.9065
61142SOL    HW193356  13.257   6.412   9.821  0.2917  1.2776 -0.3226
61142SOL    HW293357  13.228   6.429   9.969 -1.3337 -0.7502 -0.3569
61143SOL     OW93358   6.641   6.028   2.144  0.3964 -0.1164 -0.0334
61143SOL    HW193359   6.573   6.095   2.139 -0.0827 -0.6868 -1.7524
61143SOL    HW293360   6.604   5.961   2.202 -0.5959 -0.4934 -1.0781
61144SOL     OW93361  11.905   4.261   7.460  0.1323 -0.1312 -0.5197
61144SOL    HW193362  11.974   4.327   7.462  1.6701 -1.6689  1.0548
61144SOL    HW293363  11.846   4.290   7.391  0.4172  3.1647  0.4520
61145SOL     OW93364   4.336   2.873   7.482  0.1687 -0.8032  0.1848
61145SOL    HW193365   4.245   2.901   7.490 -0.6619 -3.3173  0.1882
61145SOL    HW293366   4.348   2.808   7.550  1.3856 -1.9142 -1.0293
61146SOL     OW93367   0.456   9.195   7.893 -0.2234 -0.4738 -0.5228
61146SOL    HW193368   0.450   9.099   7.894 -0.0965 -0.5084 -1.9290
61146SOL    HW293369   0.535   9.214   7.944 -0.0681 -1.1384 -0.5083
61147SOL     OW93370  10.189   6.777  10.452 -0.4072 -0.1102  0.0168
61147SOL    HW193371  10.164   6.820  10.370  0.5308  1.0814  0.3306
61147SOL    HW293372  10.184   6.846  10.518 -4.0953 -1.6592  1.6453
61148SOL     OW93373   2.877   8.022  13.176  0.2732 -0.2796  0.2285
61148SOL    HW193374   2.841   7.936  13.153 -0.4185  0.2104 -0.5640
61148SOL    HW293375   2.805   8.068  13.219 -0.1564  0.7445 -1.4618
61149SOL     OW93376   9.338   7.208   0.764  0.0861 -0.0859  0.1301
61149SOL    HW193377   9.362   7.274   0.829  1.6143 -1.1462  0.6857
61149SOL    HW293378   9.263   7.246   0.718  0.6555  1.8449  0.7084
61150SOL     OW93379   7.539  10.761   4.557 -0.1562  0.5216 -0.2078
61150SOL    HW193380   7.499  10.750   4.470 -1.6128 -0.2383  0.5160
61150SOL    HW293381   7.498  10.692   4.611  0.5493  1.1185  1.1325
61151SOL     OW93382   2.127   8.522   2.657  0.1404 -0.0184 -0.0693
61151SOL    HW193383   2.220   8.545   2.650  0.1502  0.3320  1.0498
61151SOL    HW293384   2.081   8.599   2.625  0.2096  0.9376  1.9546
61152SOL     OW93385  10.752   0.845   2.583  0.0184  0.2143 -0.3295
61152SOL    HW193386  10.770   0.752   2.566 -1.2114  0.3183 -2.5574
61152SOL    HW293387  10.771   0.856   2.676 -0.4354 -2.4418  0.1705
61153SOL     OW93388   6.659   8.094   7.864 -0.2375 -0.2607  0.4514
61153SOL    HW193389   6.678   8.001   7.870  1.1835 -0.1001 -0.8414
61153SOL    HW293390   6.731   8.137   7.909  0.4666  0.2612 -1.1048
61154SOL     OW93391  13.305  10.925   0.688 -0.8757 -0.4013 -0.5634
61154SOL    HW193392  13.311  10.832   0.708 -1.3173 -0.4489 -0.6514
61154SOL    HW293393  13.337  10.968   0.768  0.8123 -0.6335 -1.0706
61155SOL     OW93394   4.622  12.300   7.869 -0.1184  0.1464 -0.4078
61155SOL    HW193395   4.609  12.348   7.951 -0.0006 -1.6401  0.7391
61155SOL    HW293396   4.537  12.300   7.827 -0.3002  0.6839 -0.0451
61156SOL     OW93397  11.284   9.787   8.703 -0.6210 -0.0966  0.6424
61156SOL    HW193398  11.361   9.748   8.745 -0.1214  1.3513  1.1469
61156SOL    HW293399  11.250   9.848   8.768 -1.0252  0.7348 -0.3265
61157SOL     OW93400   6.094   7.608  12.484  0.0593  0.1273  0.4218
61157SOL    HW193401   6.040   7.594  12.562  0.5909  0.6633  0.8861
61157SOL    HW293402   6.111   7.702  12.482  2.1981 -0.1847  1.1151
61158SOL     OW93403  10.163   7.806  13.089 -1.0111  0.0148 -0.0451
61158SOL    HW193404  10.107   7.814  13.012 -3.3442  0.9906  1.6619
61158SOL    HW293405  10.204   7.720  13.080 -1.6636 -0.1300 -2.0742
61159SOL     OW93406   4.295   8.599   6.049  0.5805 -0.0271 -0.2010
61159SOL    HW193407   4.208   8.559   6.055  1.0989 -1.1543  0.1281
61159SOL    HW293408   4.325   8.579   5.960 -0.2919  2.1324 -1.0439
61160SOL     OW93409  11.733   6.692   8.903  0.5404  0.1017 -0.4269
61160SOL    HW193410  11.752   6.605   8.867 -0.9433 -1.0213  1.3968
61160SOL    HW293411  11.641   6.689   8.927  0.2206  2.5145 -1.1183
61161SOL     OW93412   0.190   0.805   7.208  0.2522  0.4172  0.4205
61161SOL    HW193413   0.111   0.776   7.162 -0.2343  1.4970  0.5441
61161SOL    HW293414   0.181   0.768   7.296  0.2350 -0.0599  0.2188
61162SOL     OW93415   9.933   8.293  11.792 -0.2737 -0.5752 -0.3640
61162SOL    HW193416   9.939   8.208  11.837 -1.2424 -1.0616 -1.1195
61162SOL    HW293417   9.841   8.318  11.801  0.0608  0.5545  0.1096
61163SOL     OW93418   4.462   6.412   9.698  0.1462  0.1063  0.1509
61163SOL    HW193419   4.406   6.456   9.762  0.1324 -0.3708  0.4659
61163SOL    HW293420   4.402   6.374   9.635  0.1048 -0.5813  0.6025
61164SOL     OW93421  12.016  11.221   7.609 -0.5359 -0.4231 -0.2907
61164SOL    HW193422  11.990  11.163   7.538 -2.4911 -0.2294  0.2033
61164SOL    HW293423  11.935  11.267   7.633  0.6960  1.6955  0.0785
61165SOL     OW93424  13.065   9.111  10.589  0.2347  0.0039  0.1758
61165SOL    HW193425  13.085   9.171  10.661 -1.9414  2.5717 -1.1741
61165SOL    HW293426  13.034   9.032  10.632  2.5379 -0.0031  2.0393
61166SOL     OW93427   6.421  11.930  10.637  0.0878  0.3334 -0.5601
61166SOL    HW193428   6.458  11.868  10.699 -0.2840 -0.0244 -0.6893
61166SOL    HW293429   6.359  11.879  10.586  0.4937  0.5982 -1.3269
61167SOL     OW93430  12.619   9.554  10.099  0.5958  0.2191 -0.8686
61167SOL    HW193431  12.540   9.539  10.047 -0.7693 -0.2664  1.2416
61167SOL    HW293432  12.686   9.502  10.055 -0.1256  0.8465 -2.8699
61168SOL     OW93433  11.303   5.469   9.980 -0.2244  0.2456 -0.0326
61168SOL    HW193434  11.347   5.390  10.011 -0.0223  0.4073  0.0921
61168SOL    HW293435  11.221   5.472  10.029 -1.2236 -1.0237 -1.5231
61169SOL     OW93436   3.517   9.099   0.650  0.0012  0.1983  0.1002
61169SOL    HW193437   3.430   9.110   0.612  1.2660 -1.3223 -3.6046
61169SOL    HW293438   3.535   9.006   0.641  1.6479  0.3094  1.8000
61170SOL     OW93439  12.549   8.422   6.470 -0.2993 -0.1679  0.2761
61170SOL    HW193440  12.545   8.424   6.375 -0.1969 -0.2683  0.2703
61170SOL    HW293441  12.544   8.514   6.496  1.1218 -0.0234  0.1195
61171SOL     OW93442   4.401  12.424   8.797 -0.2995 -0.3880 -0.1088
61171SOL    HW193443   4.415  12.339   8.840 -2.2436 -0.3780  0.6390
61171SOL    HW293444   4.307  12.439   8.803  0.0695  2.2430  0.6019
61172SOL     OW93445   1.729  10.708  10.824 -0.2899 -0.2627  0.4351
61172SOL    HW193446   1.699  10.627  10.864 -1.2704 -1.5177 -2.5759
61172SOL    HW293447   1.664  10.773  10.851 -0.3261 -0.7770  1.6597
61173SOL     OW93448   5.679   6.658   7.710 -0.1945  0.1192 -0.0565
61173SOL    HW193449   5.691   6.593   7.779  0.1402  1.1499  0.8730
61173SOL    HW293450   5.660   6.739   7.756 -2.1842  0.3976 -1.2244
61174SOL     OW93451   1.828   0.082   1.242  0.0040  0.1918 -0.6843
61174SOL    HW193452   1.799   0.130   1.319 -0.5780 -2.2517  0.7520
61174SOL    HW293453   1.749   0.073   1.188 -0.2314 -0.2638 -0.2808
61175SOL     OW93454   9.007  12.817   3.655  0.1837 -0.2540  0.0779
61175SOL    HW193455   8.916  12.824   3.627 -0.0875 -0.2403  0.9419
61175SOL    HW293456   9.056  12.868   3.590 -0.6266  1.2783  0.6155
61176SOL     OW93457   1.159   6.479  10.543  0.0716  0.3973 -0.3827
61176SOL    HW193458   1.200   6.450  10.624 -1.5675 -1.8302 -0.2774
61176SOL    HW293459   1.180   6.411  10.479 -1.3976  0.4325 -0.9360
61177SOL     OW93460   3.748   7.223  12.448  0.0922 -0.1046  0.5298
61177SOL    HW193461   3.743   7.297  12.509 -0.5472  0.3525 -0.0682
61177SOL    HW293462   3.820   7.244  12.390  2.5420 -1.7991  2.7194
61178SOL     OW93463   6.205   5.283  13.253  0.1395 -0.4405  0.5498
61178SOL    HW193464   6.269   5.220  13.288  0.0309  0.4646  2.5632
61178SOL    HW293465   6.220   5.362  13.305 -0.7708  0.6918 -0.8570
61179SOL     OW93466   3.215   9.406  11.510 -0.2622  0.1993 -0.1088
61179SOL    HW193467   3.262   9.484  11.537 -1.1605  1.1130 -1.0830
61179SOL    HW293468   3.277   9.334  11.522  1.3658  1.3418 -1.3117
61180SOL     OW93469  12.044   6.759   5.398 -0.6174 -0.2399 -0.0535
61180SOL    HW193470  12.040   6.713   5.482 -0.9960  0.4082  0.2920
61180SOL    HW293471  12.129   6.734   5.361 -0.1950 -0.0818  0.7846
61181SOL     OW93472   5.278  12.802   1.961  0.2857  0.2532  0.8250
61181SOL    HW193473   5.329  12.761   2.030  0.8700  0.7076  0.6648
61181SOL    HW293474   5.283  12.896   1.979  0.5721  0.3872  0.0806
61182SOL     OW93475   3.123  11.898   6.786  0.1511  0.7177  0.2513
61182SOL    HW193476   3.056  11.941   6.840 -0.7917 -0.5232  0.1005
61182SOL    HW293477   3.078  11.879   6.703  0.4232 -0.8417  0.4328
61183SOL     OW93478  12.375  10.040  12.132  0.3169 -0.6801  0.2286
61183SOL    HW193479  12.284  10.060  12.156  0.4409 -0.0703  0.1858
61183SOL    HW293480  12.428  10.080  12.201  0.5227 -1.8541  0.7828
61184SOL     OW93481  10.556  11.763   9.181 -0.2636 -1.0110 -0.6541
61184SOL    HW193482  10.611  11.797   9.251 -0.7855  1.7375 -1.4464
61184SOL    HW293483  10.501  11.697   9.223 -0.8849  0.8668  1.6794
61185SOL     OW93484  13.108   1.453   5.060  0.0130 -0.4179 -0.1223
61185SOL    HW193485  13.110   1.358   5.045 -0.1903 -0.5312  0.5257
61185SOL    HW293486  13.070   1.462   5.148 -1.7669  0.3485 -0.9205
61186SOL     OW93487   6.578   1.800   3.416  0.3288  0.2055 -0.5844
61186SOL    HW193488   6.604   1.738   3.348 -1.5170 -0.6407 -0.5702
61186SOL    HW293489   6.526   1.866   3.371 -0.0941  0.1696 -0.1633
61187SOL     OW93490  10.100   5.784  12.429  0.4001  0.1180  0.3311
61187SOL    HW193491  10.172   5.758  12.486  0.9891  1.2938  0.1609
61187SOL    HW293492  10.021   5.758  12.475  0.9231 -2.2507  0.0112
61188SOL     OW93493   8.535   8.379  10.258 -0.5847 -0.1796 -0.2425
61188SOL    HW193494   8.484   8.458  10.242  0.1697  0.1266 -1.2107
61188SOL    HW293495   8.550   8.341  10.172  1.6909  0.3099 -0.1356
61189SOL     OW93496   0.413   5.775   5.516  0.1601  0.0063 -0.2090
61189SOL    HW193497   0.378   5.862   5.498 -0.8965 -0.7813 -2.2890
61189SOL    HW293498   0.349   5.735   5.575 -0.1908  0.0984 -0.5212
61190SOL     OW93499   3.522   3.872   7.050 -0.0447  0.2956 -0.0725
61190SOL    HW193500   3.442   3.841   7.092 -0.2794  0.8180 -0.1317
61190SOL    HW293501   3.510   3.966   7.041  0.2859  0.2813 -0.7111
61191SOL     OW93502   0.840   1.645   9.550 -0.3761 -0.0152  0.2738
61191SOL    HW193503   0.929   1.624   9.576 -0.0043 -0.5029 -1.2459
61191SOL    HW293504   0.834   1.741   9.556  0.6804  0.1371 -0.8282
61192SOL     OW93505   6.679   9.675   9.249 -0.1920 -0.4679  0.6186
61192SOL    HW193506   6.750   9.656   9.309  0.6062 -1.8259 -0.7048
61192SOL    HW293507   6.713   9.745   9.192  0.2478 -1.3579 -0.2371
61193SOL     OW93508   0.724   4.297  10.854 -0.0417  0.4459 -0.0944
61193SOL    HW193509   0.808   4.336  10.831  0.0265  0.2134 -0.2402
61193SOL    HW293510   0.728   4.207  10.821  0.7523 -0.5051  2.3643
61194SOL     OW93511   2.865   7.042   2.945  0.4339  0.9216 -0.8564
61194SOL    HW193512   2.882   7.101   2.872  2.6247  1.4475  0.0184
61194SOL    HW293513   2.942   7.049   3.001 -0.8315 -0.0612  1.1305
61195SOL     OW93514   9.558   1.274  12.276 -0.2504  0.5391  0.4313
61195SOL    HW193515   9.648   1.299  12.299  0.0727 -0.8125  0.7329
61195SOL    HW293516   9.567   1.221  12.197 -1.0198  2.1584 -0.8045
61196SOL     OW93517   7.905   9.894   6.691  0.2069 -0.1885 -0.9611
61196SOL    HW193518   7.894   9.888   6.596  0.1338  0.4939 -1.0047
61196SOL    HW293519   7.822   9.930   6.723  0.0095 -0.9690 -0.5625
61197SOL     OW93520   2.116   1.346   2.726  0.4858 -0.5068  0.2868
61197SOL    HW193521   2.195   1.398   2.742  1.0791 -0.8839 -1.2665
61197SOL    HW293522   2.088   1.371   2.638  0.1720 -2.0209 -0.0694
61198SOL     OW93523   2.032  12.173  12.120 -0.5680  0.2514 -0.0969
61198SOL    HW193524   2.095  12.223  12.069 -0.2355  0.0854  0.1523
61198SOL    HW293525   2.057  12.082  12.109 -1.0605  0.1497 -0.3955
61199SOL     OW93526   9.326  11.470   8.980 -0.2846  0.1098  0.0881
61199SOL    HW193527   9.350  11.430   9.063  0.3626 -1.6042 -0.8739
61199SOL    HW293528   9.368  11.556   8.982  1.0918 -0.5494  0.8656
61200SOL     OW93529   3.574   1.269   9.389 -0.6569  0.8146 -0.1710
61200SOL    HW193530   3.553   1.343   9.331  0.4021  0.1501 -1.4775
61200SOL    HW293531   3.549   1.299   9.476 -0.5633  2.5980 -0.7070
61201SOL     OW93532  10.526  13.076   2.214  0.6773  0.0608 -0.5841
61201SOL    HW193533  10.601  13.116   2.256  0.4509  0.1209 -0.2277
61201SOL    HW293534  10.509  12.997   2.266 -0.4818  0.8777  0.3280
61202SOL     OW93535   0.621   6.030   7.470  0.3917  0.6525  0.0260
61202SOL    HW193536   0.627   5.961   7.404  0.5522  0.1081  0.5959
61202SOL    HW293537   0.676   5.999   7.542  1.2930  1.8518 -0.1124
61203SOL     OW93538   6.863   4.117  11.169 -0.9699  0.2193 -0.0212
61203SOL    HW193539   6.853   4.048  11.236  1.3782  0.0363  0.2134
61203SOL    HW293540   6.863   4.069  11.086  2.1449 -0.3638  0.2033
61204SOL     OW93541   2.164   4.055   6.201 -0.2720  0.4216 -0.5372
61204SOL    HW193542   2.215   4.100   6.134  1.5180  1.2153  1.2358
61204SOL    HW293543   2.210   4.075   6.283 -0.3400 -3.2340  0.5797
61205SOL     OW93544   3.518   8.140   1.672 -0.2108 -0.2062  0.2241
61205SOL    HW193545   3.494   8.055   1.708 -0.3606 -0.2346  0.0588
61205SOL    HW293546   3.614   8.141   1.675 -0.2237 -0.1810  0.6769
61206SOL     OW93547  10.844   0.926   2.833 -0.3532  0.5478 -0.0946
61206SOL    HW193548  10.752   0.909   2.853  0.4659 -2.3659  1.9432
61206SOL    HW293549  10.883   0.951   2.917  1.0688 -0.2782 -0.4718
61207SOL     OW93550   3.640  12.381  12.951 -0.1943  0.0725 -0.0123
61207SOL    HW193551   3.628  12.309  12.889  2.9625 -0.2019 -0.4391
61207SOL    HW293552   3.685  12.342  13.026  2.9237  1.7476 -0.8680
61208SOL     OW93553   0.877   6.736   8.737  0.1034 -0.0316 -0.0721
61208SOL    HW193554   0.935   6.714   8.809 -0.3024 -0.4925  0.1202
61208SOL    HW293555   0.930   6.720   8.658  0.1964 -0.5739  0.0961
61209SOL     OW93556  11.609   5.270   5.377 -0.4487 -0.1329  0.0608
61209SOL    HW193557  11.565   5.186   5.389  1.1270 -1.2529 -1.4309
61209SOL    HW293558  11.656   5.260   5.294  0.7782  1.7857  0.4763
61210SOL     OW93559  11.688   5.164   9.436  1.1352  0.6745 -0.4831
61210SOL    HW193560  11.709   5.125   9.521 -1.4713  0.0722 -0.0358
61210SOL    HW293561  11.596   5.189   9.443  0.8696  0.7153 -3.1092
61211SOL     OW93562   6.866   7.536  12.287  0.7588  0.2623 -0.3925
61211SOL    HW193563   6.935   7.534  12.220 -0.1889  2.4378 -1.5197
61211SOL    HW293564   6.825   7.621  12.277 -1.5069 -0.5902  0.8894
61212SOL     OW93565   7.672   3.623   7.014 -0.6020  0.3383 -0.1099
61212SOL    HW193566   7.754   3.671   7.025 -0.5098 -0.1808  1.7686
61212SOL    HW293567   7.683   3.544   7.067 -2.6085  0.6780  0.9291
61213SOL     OW93568   5.947   5.084  11.254  0.6596  0.1767  0.5333
61213SOL    HW193569   5.933   5.079  11.160 -0.5468  0.1971  0.6962
61213SOL    HW293570   5.905   5.005  11.289  0.8815  0.2924  1.0774
61214SOL     OW93571  10.416   8.361   9.950  0.9248 -0.3039 -0.3523
61214SOL    HW193572  10.399   8.365  10.045 -0.6226  1.1734 -0.6481
61214SOL    HW293573  10.470   8.438   9.932  1.7164 -0.8983 -0.6188
61215SOL     OW93574  12.469  10.086  12.702  0.4914  0.4386 -1.2801
61215SOL    HW193575  12.379  10.056  12.688 -1.0235  4.2815 -0.8754
61215SOL    HW293576  12.480  10.086  12.797  0.6491  0.6857 -1.2972
61216SOL     OW93577   1.935   9.058   6.505 -0.1658 -0.5267  0.0940
61216SOL    HW193578   2.014   9.007   6.486 -1.2482 -2.7439  1.2133
61216SOL    HW293579   1.940   9.074   6.599 -0.8593 -0.3180  0.0957
61217SOL     OW93580  10.290   3.831   7.848  0.0181  0.1219 -0.1054
61217SOL    HW193581  10.213   3.775   7.861  0.3737 -0.1011  1.2426
61217SOL    HW293582  10.336   3.792   7.775 -0.3123 -0.7157  0.1179
61218SOL     OW93583   4.541   4.329   3.760 -0.4600  0.0516 -0.1282
61218SOL    HW193584   4.477   4.259   3.766 -0.9704  0.5289  0.0433
61218SOL    HW293585   4.606   4.297   3.697 -2.4005  0.7201 -2.6734
61219SOL     OW93586   7.416  12.073  11.142  0.0131  0.2088 -0.5659
61219SOL    HW193587   7.446  11.983  11.125  0.4851 -0.0081  1.1625
61219SOL    HW293588   7.395  12.073  11.235  0.1217  1.9312 -0.5178
61220SOL     OW93589   3.203  10.524   3.781 -0.6624 -0.1564 -0.0131
61220SOL    HW193590   3.124  10.502   3.830 -0.0544 -0.0631  1.0402
61220SOL    HW293591   3.227  10.612   3.810  0.0797 -0.3612  0.0237
61221SOL     OW93592   4.712   3.877   8.221  0.5247 -0.3905 -0.8538
61221SOL    HW193593   4.710   3.965   8.258 -1.5244 -0.4825 -0.5769
61221SOL    HW293594   4.774   3.882   8.149  2.2109  0.6395  0.5759
61222SOL     OW93595   4.097  10.034   3.140  0.3233  0.5051 -0.4493
61222SOL    HW193596   4.115  10.068   3.052  1.4426  1.0370 -0.0430
61222SOL    HW293597   4.097  10.112   3.196 -0.1095  0.1423  0.0622
61223SOL     OW93598   8.773  10.684  11.903  0.1265  0.2638  0.5276
61223SOL    HW193599   8.797  10.662  11.993  1.8575  1.5488  0.4219
61223SOL    HW293600   8.846  10.652  11.849 -0.5183  0.2052 -0.3377
61224SOL     OW93601   0.650   4.712   2.775  0.1992 -0.9182 -0.6881
61224SOL    HW193602   0.675   4.790   2.826  0.9691 -1.1434 -0.7080
61224SOL    HW293603   0.646   4.743   2.685  1.0901 -1.0296 -0.7709
61225SOL     OW93604  12.013   8.130   0.809 -0.0917 -0.1972  0.0279
61225SOL    HW193605  12.043   8.210   0.765  0.7482 -0.2874  0.4253
61225SOL    HW293606  11.925   8.115   0.773  0.3055  0.1045 -1.1199
61226SOL     OW93607   1.235  12.922   9.705 -0.2011 -0.0857 -0.5879
61226SOL    HW193608   1.258  12.938   9.613  1.4099  0.4364 -0.1179
61226SOL    HW293609   1.305  12.964   9.755 -0.7188 -0.9139  0.8817
61227SOL     OW93610   6.314   7.443   2.448 -0.4316 -0.0098 -0.0025
61227SOL    HW193611   6.364   7.365   2.424  0.7686  0.6568  0.2543
61227SOL    HW293612   6.285   7.425   2.537 -0.6936 -0.4275 -0.1701
61228SOL     OW93613   4.075  13.248  11.745 -0.8014 -0.1900  0.2804
61228SOL    HW193614   4.085  13.216  11.655 -1.2917 -0.4592  0.3192
61228SOL    HW293615   4.080  13.343  11.737 -3.7076 -0.0093 -0.4473
61229SOL     OW93616   0.342   0.850   4.900  0.3411  0.2907  0.1151
61229SOL    HW193617   0.297   0.768   4.878  0.4128 -0.2975  2.0305
61229SOL    HW293618   0.272   0.909   4.928  0.6174 -0.3771  2.3586
61230SOL     OW93619  12.223   3.889   9.912  0.2473  0.3242 -0.2632
61230SOL    HW193620  12.132   3.917   9.905  0.6925  1.7783 -0.5780
61230SOL    HW293621  12.230   3.850   9.999 -0.3277  1.5832  0.3659
61231SOL     OW93622  13.155   9.243   1.471  0.2220  0.2682 -0.6086
61231SOL    HW193623  13.163   9.325   1.519  0.3647  0.2449 -0.5931
61231SOL    HW293624  13.112   9.267   1.389  0.2474  0.3559 -0.5960
61232SOL     OW93625  11.677   8.824   3.663 -0.2931 -0.4654  0.5796
61232SOL    HW193626  11.720   8.895   3.710 -0.9612 -0.0846  0.6310
61232SOL    HW293627  11.671   8.753   3.727 -0.5820 -0.1885  0.8648
61233SOL     OW93628  10.454  10.756   7.662 -0.0195  0.0011 -0.4114
61233SOL    HW193629  10.362  10.760   7.636  0.2287 -2.1430 -1.8512
61233SOL    HW293630  10.502  10.784   7.584  0.5845  0.3005  0.0653
61234SOL     OW93631   4.089   2.434   8.753  0.4150  0.3935  0.5546
61234SOL    HW193632   4.098   2.522   8.790 -0.3627  0.1005  1.4961
61234SOL    HW293633   4.038   2.386   8.818  1.3637 -0.9511  0.3448
61235SOL     OW93634   1.550  13.267   3.357 -0.2635  0.6055  0.5193
61235SOL    HW193635   1.579  13.357   3.373 -1.8722  1.1132  0.6974
61235SOL    HW293636   1.577  13.249   3.267  0.3892  1.1195  0.6009
61236SOL     OW93637   2.732   0.073   9.165 -0.1790  0.7477  0.0162
61236SOL    HW193638   2.680   0.134   9.112 -2.9762 -0.0157  1.6825
61236SOL    HW293639   2.730  -0.009   9.115 -2.3775  0.1705  0.9259
61237SOL     OW93640   8.661   2.021  11.883  0.0734  0.0218 -0.1771
61237SOL    HW193641   8.727   1.997  11.948  0.1249  0.6021 -0.0025
61237SOL    HW293642   8.587   2.054  11.935 -0.4367 -0.8114 -0.3610
61238SOL     OW93643   6.388   4.733   2.012  0.4679 -0.1539  0.1103
61238SOL    HW193644   6.408   4.649   1.972  2.9196  0.4737 -0.1635
61238SOL    HW293645   6.468   4.785   2.001 -0.4554  1.7232  1.5306
61239SOL     OW93646   9.950   7.922   9.313  0.0319 -0.0200  0.1371
61239SOL    HW193647  10.006   7.999   9.316 -0.4849  0.3762 -0.2975
61239SOL    HW293648  10.010   7.848   9.304  0.4286  0.5125 -2.1075
61240SOL     OW93649  11.656   2.728   0.281 -0.8596  0.0300 -0.4110
61240SOL    HW193650  11.561   2.717   0.270 -1.0512 -0.9865  1.7252
61240SOL    HW293651  11.666   2.817   0.315 -1.0699  0.0730 -0.4597
61241SOL     OW93652   8.592   9.936   8.780  0.1689 -0.8113 -0.0797
61241SOL    HW193653   8.520   9.907   8.836 -0.6231  1.1043 -0.0137
61241SOL    HW293654   8.580  10.031   8.773  3.3180 -0.2037  0.8376
61242SOL     OW93655  13.015   1.488   9.129  0.9427 -0.0848 -0.5261
61242SOL    HW193656  13.090   1.433   9.151  1.1728  0.2950 -0.3598
61242SOL    HW293657  13.036   1.522   9.042  0.2562 -1.1988 -1.1572
61243SOL     OW93658  11.768   7.877  12.241  0.3236  0.7409 -0.0287
61243SOL    HW193659  11.691   7.909  12.194  1.2252  2.0318 -0.6926
61243SOL    HW293660  11.763   7.920  12.326 -0.3204 -0.1368  0.3908
61244SOL     OW93661   5.021   7.713   5.356 -0.4622 -0.2466 -0.6150
61244SOL    HW193662   4.946   7.657   5.374 -1.0671  0.5112 -0.7101
61244SOL    HW293663   5.080   7.660   5.302 -0.2076 -1.3809  0.7309
61245SOL     OW93664   5.395   1.145   9.039  0.0726 -0.0562  0.0542
61245SOL    HW193665   5.486   1.144   9.069  1.1634  0.2955 -2.8915
61245SOL    HW293666   5.398   1.107   8.951 -2.5670  0.3863 -0.3227
61246SOL     OW93667   0.362  10.056   6.430 -0.1357  0.5232 -0.3045
61246SOL    HW193668   0.356  10.149   6.452 -0.6624  0.1547  1.2191
61246SOL    HW293669   0.446  10.028   6.468  0.7872  0.6871 -2.1119
61247SOL     OW93670   8.321   8.651   2.902  0.5692 -0.5324 -0.1081
61247SOL    HW193671   8.262   8.577   2.916  0.4017 -0.4278 -0.2544
61247SOL    HW293672   8.342   8.682   2.990 -0.4983  0.1433 -0.0756
61248SOL     OW93673   7.520  10.974  12.800  0.4630 -0.0243 -0.0512
61248SOL    HW193674   7.511  11.069  12.808  0.2444 -0.0316 -0.2112
61248SOL    HW293675   7.449  10.940  12.855  0.4917 -0.0949 -0.0593
61249SOL     OW93676  13.274   6.008   6.179 -0.2167  0.0572 -0.0493
61249SOL    HW193677  13.322   6.014   6.262  1.0125  0.2591 -0.7441
61249SOL    HW293678  13.242   6.097   6.164  2.0256  0.7751 -1.1536
61250SOL     OW93679   8.429   6.599   6.474  0.1715  0.0237  0.2898
61250SOL    HW193680   8.450   6.526   6.531  0.7726 -1.2611 -1.4909
61250SOL    HW293681   8.357   6.567   6.419 -0.3544  1.1974  0.2486
61251SOL     OW93682   3.680   0.328  12.162  0.1568 -0.4143  0.1955
61251SOL    HW193683   3.697   0.421  12.154  1.5833 -0.7189 -0.6269
61251SOL    HW293684   3.586   0.319  12.147 -0.0461  0.9077  0.5764
61252SOL     OW93685   6.009   8.835   7.795 -0.1451  0.2539  0.5139
61252SOL    HW193686   6.026   8.860   7.886 -0.4572  0.8683  0.4074
61252SOL    HW293687   6.096   8.828   7.756 -0.0579  2.1364  0.2971
61253SOL     OW93688   2.998   9.207   5.662 -0.8511  0.6039  0.0334
61253SOL    HW193689   2.922   9.150   5.664 -0.9528  0.7476  0.2358
61253SOL    HW293690   2.964   9.292   5.631 -0.6256  0.4397 -0.6995
61254SOL     OW93691  11.841  10.713   8.968 -0.3747 -0.0597 -0.2669
61254SOL    HW193692  11.849  10.628   9.010  1.2267 -0.5454 -1.4223
61254SOL    HW293693  11.798  10.695   8.884 -0.2860  0.3002 -0.3934
61255SOL     OW93694  11.461  10.465   9.421 -0.0875 -0.2960 -0.8702
61255SOL    HW193695  11.426  10.376   9.422  0.2307 -0.4179 -0.7500
61255SOL    HW293696  11.470  10.489   9.513  1.3836 -0.7506 -0.8704
61256SOL     OW93697  10.827   2.371   5.700  0.0458  0.4120  0.1718
61256SOL    HW193698  10.921   2.386   5.697  0.0602  0.1997 -2.0133
61256SOL    HW293699  10.798   2.381   5.609 -1.8229 -0.9364  0.5543
61257SOL     OW93700  10.293  10.033  10.461 -0.2741 -0.2619 -0.1487
61257SOL    HW193701  10.283   9.995  10.548 -2.0470  2.8394  1.1761
61257SOL    HW293702  10.387  10.047  10.451  0.0689 -1.7452  0.7051
61258SOL     OW93703   9.019   1.807  11.602  0.1354  0.4223 -0.1188
61258SOL    HW193704   8.998   1.762  11.520  0.1187  1.5614 -0.7613
61258SOL    HW293705   9.087   1.869  11.578  2.7127 -1.6141  1.4588
61259SOL     OW93706   7.880   6.882   1.003 -0.0260 -0.2763 -0.8453
61259SOL    HW193707   7.874   6.973   0.975  0.5127 -0.0587 -0.2667
61259SOL    HW293708   7.880   6.886   1.099  1.1134 -0.7898 -0.8057
61260SOL     OW93709   3.906   9.646  10.621 -0.1131  0.2658  0.7280
61260SOL    HW193710   3.815   9.655  10.595 -0.0822 -0.9224  0.1776
61260SOL    HW293711   3.922   9.722  10.677 -0.8423  1.6310 -0.8298
61261SOL     OW93712   6.025   9.727  10.167  0.1662  0.5172 -0.2857
61261SOL    HW193713   6.014   9.638  10.132  3.0536  0.7335 -2.1163
61261SOL    HW293714   6.001   9.784  10.094  2.1239  1.0737 -0.5662
61262SOL     OW93715   1.440   6.192  10.290 -0.1487 -0.2446 -0.5203
61262SOL    HW193716   1.368   6.150  10.243  2.4122 -2.5725 -2.7462
61262SOL    HW293717   1.453   6.275  10.244 -1.0752 -0.0206 -0.4012
61263SOL     OW93718   1.140  12.585   7.451  0.3867 -0.1737  0.6246
61263SOL    HW193719   1.139  12.492   7.431  1.5460 -0.6157  2.3687
61263SOL    HW293720   1.220  12.618   7.410 -0.4655  0.2709 -0.7326
61264SOL     OW93721   7.043  10.359   8.063  0.0517 -0.3701  0.4612
61264SOL    HW193722   6.999  10.290   8.114 -0.9151  0.1485  0.3516
61264SOL    HW293723   6.987  10.371   7.986  0.0271  0.7502  0.6331
61265SOL     OW93724   3.787  12.322   2.421  0.3140  0.0119  0.3152
61265SOL    HW193725   3.868  12.371   2.438 -0.3319  0.6549  1.7844
61265SOL    HW293726   3.728  12.349   2.492 -1.1260 -0.5875 -0.6102
61266SOL     OW93727   5.548  10.589   1.765 -0.0126 -0.1945 -0.1345
61266SOL    HW193728   5.590  10.645   1.700  1.9511  1.2383  2.1423
61266SOL    HW293729   5.615  10.525   1.787 -1.1053 -1.4625 -0.4074
61267SOL     OW93730  12.914   6.240  10.395 -0.1446 -0.4317  0.3373
61267SOL    HW193731  12.939   6.293  10.319 -0.5518 -1.6472 -0.6813
61267SOL    HW293732  12.995   6.196  10.421  0.1310  0.4633  1.0032
61268SOL     OW93733   2.626   1.661   1.246 -0.0882  0.5466 -0.1580
61268SOL    HW193734   2.629   1.689   1.155  0.1967  2.1627  0.3061
61268SOL    HW293735   2.711   1.688   1.282 -0.4844  0.6138  0.7499
61269SOL     OW93736   7.053   3.923   2.809 -0.0983  0.3157 -0.0658
61269SOL    HW193737   7.025   4.005   2.768  0.1821  2.2695  3.3023
61269SOL    HW293738   6.972   3.883   2.839 -0.1170  0.0506 -0.4575
61270SOL     OW93739  12.164   1.207  12.777  0.6910 -0.2120 -0.1201
61270SOL    HW193740  12.228   1.278  12.776 -1.3320  1.7376 -0.6574
61270SOL    HW293741  12.206   1.138  12.827  2.3612  1.7874  1.4392
61271SOL     OW93742  12.909   8.852   7.343 -0.4806  0.0692  0.2177
61271SOL    HW193743  12.885   8.830   7.253 -1.3610 -1.5403  0.7958
61271SOL    HW293744  12.849   8.923   7.367  0.6226  1.4088 -0.8423
61272SOL     OW93745   6.535   9.119  10.193 -0.3030  0.5939  0.1694
61272SOL    HW193746   6.567   9.051  10.134 -1.5625  0.5051 -0.4446
61272SOL    HW293747   6.537   9.078  10.280 -0.2689  0.0693 -0.0759
61273SOL     OW93748   2.548   8.921   3.077 -0.1332  0.1362 -0.1381
61273SOL    HW193749   2.468   8.951   3.122  0.5722  0.3256  1.0178
61273SOL    HW293750   2.515   8.870   3.002 -1.3387 -0.4756  0.7711
61274SOL     OW93751   1.756   3.344  10.023 -0.2758 -0.1569 -0.0502
61274SOL    HW193752   1.758   3.432  10.059  2.5896 -0.3494  0.4888
61274SOL    HW293753   1.775   3.286  10.097  0.7451 -0.9480 -0.8808
61275SOL     OW93754  11.454   3.418   1.915 -0.2731  0.1262 -0.2287
61275SOL    HW193755  11.424   3.397   1.827  1.6354  0.4659 -0.9915
61275SOL    HW293756  11.547   3.397   1.915 -0.1911  0.2989  1.6626
61276SOL     OW93757   3.817   6.625   3.647 -0.1029 -0.3879  0.0184
61276SOL    HW193758   3.729   6.611   3.682 -0.7261  0.5105 -1.1087
61276SOL    HW293759   3.875   6.611   3.722 -1.1533 -1.5211  0.6607
61277SOL     OW93760   5.791   3.473   4.975  0.0263  0.5966 -0.5190
61277SOL    HW193761   5.743   3.505   5.052  3.0367 -0.3478  1.9918
61277SOL    HW293762   5.757   3.385   4.960 -0.2530  0.5995  0.0566
61278SOL     OW93763   8.007  12.566  10.514  0.0160 -0.2341 -0.1395
61278SOL    HW193764   8.070  12.587  10.445 -0.6129 -0.3232 -0.7536
61278SOL    HW293765   7.943  12.510  10.471 -0.6992  0.1799  0.3751
61279SOL     OW93766   3.023   3.999   7.753  0.7930 -0.7060  0.4271
61279SOL    HW193767   3.021   4.021   7.847  3.3023  0.7102  0.2549
61279SOL    HW293768   2.934   4.017   7.723  0.3884  0.6440  2.1888
61280SOL     OW93769   2.256   2.808   4.081  0.1791  0.8773  0.1054
61280SOL    HW193770   2.306   2.743   4.131 -0.1613 -0.7272 -1.5363
61280SOL    HW293771   2.258   2.886   4.136  1.9253 -0.0333  1.4618
61281SOL     OW93772  13.230   6.827   7.036 -0.5475  0.5264  0.0008
61281SOL    HW193773  13.174   6.777   6.977 -1.1083  0.7317  0.3540
61281SOL    HW293774  13.275   6.760   7.088 -0.8003  0.3662  0.0184
61282SOL     OW93775   9.021   1.131  12.120  0.4464 -0.4637 -0.0080
61282SOL    HW193776   9.049   1.082  12.197 -1.0084  0.8317  1.4338
61282SOL    HW293777   8.952   1.189  12.152 -0.9076 -0.5398 -2.4858
61283SOL     OW93778   1.701   9.325  11.156 -0.2713 -0.1299 -0.4417
61283SOL    HW193779   1.745   9.322  11.241  0.6383  0.4473 -0.8757
61283SOL    HW293780   1.687   9.234  11.133  0.3571 -0.3212 -0.1008
61284SOL     OW93781   1.695   3.465  10.426 -0.2127  1.0621  0.5394
61284SOL    HW193782   1.722   3.452  10.335 -2.6927 -1.3746 -0.0088
61284SOL    HW293783   1.685   3.560  10.435  0.9015  1.4221 -1.4413
61285SOL     OW93784   2.933   1.126   5.701 -0.0297  0.3757 -0.3210
61285SOL    HW193785   2.925   1.083   5.616 -0.0737 -0.0536 -0.1039
61285SOL    HW293786   3.027   1.125   5.720  0.0560  1.1303 -0.6982
61286SOL     OW93787   4.909  12.770   6.672 -0.3758 -0.4138  0.0493
61286SOL    HW193788   4.951  12.733   6.750 -0.4619  0.8228  0.7106
61286SOL    HW293789   4.974  12.832   6.637 -0.8633  0.0279 -0.0803
61287SOL     OW93790  11.983   1.276   0.472 -0.4706  0.1756 -0.0403
61287SOL    HW193791  11.908   1.331   0.450  0.4439  1.3532 -0.3070
61287SOL    HW293792  11.981   1.271   0.568 -0.5744  0.6614 -0.0141
61288SOL     OW93793   3.109  11.442   5.134 -0.2672 -0.1716  0.4985
61288SOL    HW193794   3.062  11.410   5.057  0.6759 -2.0626  0.6533
61288SOL    HW293795   3.052  11.417   5.207  0.1454 -0.9134  0.5749
61289SOL     OW93796   1.836   2.368   3.424  0.3284 -0.6241 -0.4192
61289SOL    HW193797   1.853   2.416   3.343  0.3711  1.5317  0.7758
61289SOL    HW293798   1.824   2.437   3.490  0.6624 -2.2978  1.4769
61290SOL     OW93799  11.919  12.887   5.915  0.1163 -0.0030  0.2771
61290SOL    HW193800  11.840  12.925   5.954  0.1682  1.1145 -0.6520
61290SOL    HW293801  11.941  12.813   5.972 -1.7267 -0.4833  0.4355
61291SOL     OW93802   1.643   2.227  12.693 -0.0580  0.0853 -0.2513
61291SOL    HW193803   1.573   2.171  12.730 -0.1152 -0.4488 -1.1485
61291SOL    HW293804   1.716   2.216  12.754  0.4980 -2.2771 -1.2035
61292SOL     OW93805   0.669   4.987  10.229  0.2818 -0.1207  0.2509
61292SOL    HW193806   0.634   4.956  10.313 -0.5322  2.6860  1.0631
61292SOL    HW293807   0.591   5.011  10.179  0.8284 -0.4237 -0.7689
61293SOL     OW93808  11.811  10.960   9.157 -0.5353 -0.0496 -0.1194
61293SOL    HW193809  11.728  10.914   9.166 -0.2749 -0.3077  1.1591
61293SOL    HW293810  11.878  10.894   9.174 -0.1156  0.4382  0.1856
61294SOL     OW93811   8.929   2.556   5.250  0.1624 -0.2813  0.3813
61294SOL    HW193812   8.923   2.618   5.322 -0.9883 -1.0145  0.9410
61294SOL    HW293813   8.890   2.476   5.284  1.1689 -1.1714 -0.4943
61295SOL     OW93814  12.094   3.290   7.280 -0.4119  0.1816  0.5138
61295SOL    HW193815  12.154   3.268   7.209 -2.0787 -0.4102 -0.7884
61295SOL    HW293816  12.047   3.209   7.298 -2.8526  1.2531 -0.5839
61296SOL     OW93817   4.475   4.816   0.870 -0.0161 -0.0282  0.4069
61296SOL    HW193818   4.382   4.796   0.881  0.0944 -1.1946 -0.5230
61296SOL    HW293819   4.493   4.885   0.934 -1.1798 -0.8064  1.6335
61297SOL     OW93820   6.143   6.865   8.678 -0.3236  0.0216 -0.6392
61297SOL    HW193821   6.210   6.933   8.689 -0.0552 -0.3399  0.0346
61297SOL    HW293822   6.186   6.784   8.705 -1.2242 -0.1179  0.4900
61298SOL     OW93823   4.425   2.224   1.785 -0.8047  0.3129  0.5248
61298SOL    HW193824   4.485   2.159   1.747 -1.7560 -0.6269  0.5773
61298SOL    HW293825   4.476   2.305   1.787  0.4240 -0.4222  0.4567
61299SOL     OW93826   7.915   8.406   7.567 -0.1274 -0.0486 -0.0105
61299SOL    HW193827   7.924   8.497   7.539 -0.3825 -0.4442 -1.4601
61299SOL    HW293828   7.833   8.377   7.526  0.7422 -1.3749 -0.8700
61300SOL     OW93829  10.617   7.897   5.657  0.1086  0.3221  0.0849
61300SOL    HW193830  10.633   7.988   5.632  2.3306 -0.1723 -0.4894
61300SOL    HW293831  10.611   7.850   5.574 -0.4084 -0.1564  0.3885
61301SOL     OW93832   3.842   7.896  11.436 -0.3310  0.6421 -0.1483
61301SOL    HW193833   3.821   7.822  11.379 -1.3777  0.5680  0.3041
61301SOL    HW293834   3.808   7.870  11.522  2.7537 -0.0120  1.0108
61302SOL     OW93835  11.885   9.033   7.990 -0.3366  0.5921 -0.6361
61302SOL    HW193836  11.872   8.943   8.022 -1.1863  0.3529 -1.6074
61302SOL    HW293837  11.979   9.049   8.001 -0.2268 -0.3032 -0.1626
61303SOL     OW93838  10.379   6.108  11.857 -0.2777 -0.4719  0.0241
61303SOL    HW193839  10.469   6.088  11.833  0.0418  0.0294  0.7944
61303SOL    HW293840  10.363   6.195  11.820 -0.2053 -0.2517  0.5033
61304SOL     OW93841   2.519  10.295   1.738  0.3963 -1.1420  0.1203
61304SOL    HW193842   2.449  10.357   1.719  1.2012  0.0100  0.7754
61304SOL    HW293843   2.491  10.250   1.818 -0.2942 -1.7951 -0.4838
61305SOL     OW93844   0.614   6.784   3.541  0.1245 -0.3706 -0.1913
61305SOL    HW193845   0.566   6.778   3.624  0.2515 -0.5615 -0.1293
61305SOL    HW293846   0.692   6.730   3.556 -0.0141 -0.6689 -0.5493
61306SOL     OW93847   5.687   6.088   3.232  0.3703  0.4933  0.3888
61306SOL    HW193848   5.662   6.005   3.192  0.5256  1.7725 -2.6524
61306SOL    HW293849   5.606   6.119   3.274 -1.5740  1.4370 -3.5489
61307SOL     OW93850  11.555  10.665   7.209  0.0760 -0.1349 -0.2150
61307SOL    HW193851  11.624  10.609   7.174  2.5074  1.1295  2.2151
61307SOL    HW293852  11.499  10.606   7.258  0.5768 -0.9172 -0.5528
61308SOL     OW93853  12.091   3.295   4.172  0.4786 -0.1367 -0.4210
61308SOL    HW193854  12.082   3.290   4.077 -3.4464 -2.4698 -0.1650
61308SOL    HW293855  12.002   3.283   4.205  1.5757  1.1051  3.6085
61309SOL     OW93856   8.039   1.323   1.016  0.0895  0.4751  0.1471
61309SOL    HW193857   8.053   1.239   1.060  1.1298  1.0350  0.9128
61309SOL    HW293858   7.979   1.370   1.075  2.0724  1.5224  1.4411
61310SOL     OW93859  10.277  13.108   6.430  0.1207  0.3043  0.2373
61310SOL    HW193860  10.369  13.091   6.409 -0.0394 -2.4668  1.4010
61310SOL    HW293861  10.237  13.132   6.346  1.3792 -1.1155 -0.8188
61311SOL     OW93862  12.403   7.444   7.236  0.1227  0.0093 -0.6570
61311SOL    HW193863  12.404   7.535   7.208 -0.5763  0.8542  1.8471
61311SOL    HW293864  12.468   7.439   7.306 -0.3893 -1.2263 -0.2367
61312SOL     OW93865   3.857   5.746   9.485 -0.0169  0.6246  0.0162
61312SOL    HW193866   3.830   5.708   9.568  1.2592 -2.0685 -0.6864
61312SOL    HW293867   3.803   5.702   9.419 -0.8398  2.5313 -0.6735
61313SOL     OW93868   4.742   6.741   2.865 -0.5469 -0.4330  0.3075
61313SOL    HW193869   4.682   6.694   2.923 -0.5921  1.3671  1.8046
61313SOL    HW293870   4.711   6.721   2.777 -1.9888 -1.2861  0.9828
61314SOL     OW93871   6.446   8.819   9.959  0.2958 -0.5526  0.2939
61314SOL    HW193872   6.460   8.724   9.955  1.4619 -0.3583 -0.8317
61314SOL    HW293873   6.531   8.855   9.983  0.1682  0.2771 -0.4399
61315SOL     OW93874  11.151   7.359   6.233  0.4547 -0.4476 -0.0923
61315SOL    HW193875  11.212   7.393   6.297  0.4273  0.0408 -0.3217
61315SOL    HW293876  11.187   7.274   6.208  0.8618 -0.3098  0.0184
61316SOL     OW93877   6.219  13.188   6.526 -0.7123  0.0926  0.6670
61316SOL    HW193878   6.153  13.136   6.480 -1.1043  1.0650  0.0990
61316SOL    HW293879   6.275  13.223   6.457 -0.4230  0.3931  1.0459
61317SOL     OW93880  12.421   2.518   8.218  0.0154  0.3101 -0.8061
61317SOL    HW193881  12.328   2.514   8.199 -0.5111  0.2418  1.4973
61317SOL    HW293882  12.455   2.432   8.191 -1.2322 -0.8663  1.1342
61318SOL     OW93883   6.730   2.850   0.497 -0.7568 -0.1043 -0.3334
61318SOL    HW193884   6.803   2.902   0.463 -1.0845  0.3198 -0.3945
61318SOL    HW293885   6.677   2.912   0.546 -1.1207 -0.3951 -0.3578
61319SOL     OW93886   8.102  12.907   0.096 -0.2875 -0.1198 -0.1060
61319SOL    HW193887   8.034  12.952   0.046 -1.0767 -0.3649  0.7219
61319SOL    HW293888   8.058  12.829   0.132  0.3547 -0.1556  0.6355
61320SOL     OW93889   4.511   0.330   4.548 -0.1099 -0.1026 -0.3868
61320SOL    HW193890   4.584   0.268   4.542  0.0051  0.0030 -0.1084
61320SOL    HW293891   4.535   0.401   4.488 -1.4609 -1.5221 -2.7757
61321SOL     OW93892   5.258   8.768  11.727  0.4727 -0.1491  0.0223
61321SOL    HW193893   5.216   8.751  11.643  0.9498 -1.8660  0.0857
61321SOL    HW293894   5.199   8.828  11.772 -2.3383 -2.9249  0.3683
61322SOL     OW93895   8.558   4.661  12.180 -0.1424 -0.3043  0.3753
61322SOL    HW193896   8.584   4.695  12.094 -0.4725 -1.6245 -0.2770
61322SOL    HW293897   8.640   4.647  12.226  0.0054  1.2433  0.6315
61323SOL     OW93898  10.285  10.250   2.107  0.1965  0.2651 -0.1016
61323SOL    HW193899  10.308  10.167   2.064  1.5289  0.9907 -0.8282
61323SOL    HW293900  10.254  10.223   2.194 -2.7198 -1.2595 -1.4371
61324SOL     OW93901   9.862  12.691   6.634 -0.0981 -0.0427  0.1316
61324SOL    HW193902   9.887  12.779   6.604 -0.7776  0.7263  1.6868
61324SOL    HW293903   9.893  12.687   6.725 -0.4968 -1.2388  0.2283
61325SOL     OW93904   1.430   5.826   5.365  0.1793 -0.4854 -0.3503
61325SOL    HW193905   1.473   5.810   5.448 -1.7984  0.4464  0.9252
61325SOL    HW293906   1.386   5.910   5.376 -0.1883 -0.3646 -2.3206
61326SOL     OW93907   6.447   1.149   2.824  0.2348 -0.4382  0.4182
61326SOL    HW193908   6.390   1.139   2.900  0.1170 -0.3680  0.3410
61326SOL    HW293909   6.450   1.062   2.785  0.5425 -0.5422  0.6765
61327SOL     OW93910  13.165  11.671  11.288 -0.1060 -0.0855  0.1023
61327SOL    HW193911  13.147  11.673  11.194  0.1660 -0.3960  0.0418
61327SOL    HW293912  13.084  11.638  11.327  0.8997 -3.5505 -0.3503
61328SOL     OW93913  11.666   3.020   3.407  0.1897  0.6481 -0.1884
61328SOL    HW193914  11.661   2.992   3.315  0.1739 -0.3133  0.1000
61328SOL    HW293915  11.692   3.113   3.402  2.4535  0.0344 -1.1052
61329SOL     OW93916   4.729   2.095   6.494 -0.2615 -0.7713 -0.4638
61329SOL    HW193917   4.664   2.097   6.564 -2.1424  0.7438 -2.1324
61329SOL    HW293918   4.813   2.086   6.539 -1.5388 -2.1853  1.8080
61330SOL     OW93919  12.350   4.072   7.705 -0.2864  0.3017 -0.2576
61330SOL    HW193920  12.391   3.994   7.741 -1.7537 -1.5973 -2.4104
61330SOL    HW293921  12.344   4.055   7.611 -2.4366  2.1457 -0.5515
61331SOL     OW93922   3.807  12.618   2.455  0.3075 -0.2439  0.8936
61331SOL    HW193923   3.859  12.696   2.471  0.5200 -0.1249 -0.3227
61331SOL    HW293924   3.754  12.639   2.378 -0.5236 -0.8667  1.2728
61332SOL     OW93925   6.939   7.449   4.645  0.0488  0.0669  0.0841
61332SOL    HW193926   7.015   7.497   4.679 -0.0579  0.5759 -0.3970
61332SOL    HW293927   6.926   7.378   4.709 -0.8215  1.6154  1.7360
61333SOL     OW93928  12.274   3.485   5.735 -0.4039 -0.4234 -0.6279
61333SOL    HW193929  12.343   3.551   5.726 -0.1627 -0.5047  0.4856
61333SOL    HW293930  12.320   3.408   5.769 -0.8429 -0.8763 -1.0452
61334SOL     OW93931   5.702   2.232  12.280  0.1723 -0.5492  0.4164
61334SOL    HW193932   5.713   2.207  12.372  0.6147 -0.1129  0.4824
61334SOL    HW293933   5.765   2.177  12.233 -1.6629 -2.5202  0.0680
61335SOL     OW93934  12.669  12.739   1.891  0.5941  0.2057  0.0331
61335SOL    HW193935  12.653  12.820   1.844  0.9855 -0.4950 -1.3795
61335SOL    HW293936  12.761  12.745   1.918  0.3071  0.7043  0.9263
61336SOL     OW93937   5.107   0.174   0.494 -0.5197  0.0833 -0.2478
61336SOL    HW193938   5.152   0.258   0.478 -2.2370  0.7560 -2.0278
61336SOL    HW293939   5.097   0.170   0.589 -2.4890  3.1459 -0.1797
61337SOL     OW93940   1.433   2.532  12.916 -0.3425 -0.5079 -0.0468
61337SOL    HW193941   1.414   2.439  12.911 -0.0364 -0.5196 -2.6809
61337SOL    HW293942   1.519   2.541  12.874 -0.0868  0.9094  0.7029
61338SOL     OW93943   9.773   7.754   7.792  0.5608 -0.3773  0.4124
61338SOL    HW193944   9.783   7.743   7.886  0.6706  0.2417  0.4744
61338SOL    HW293945   9.704   7.692   7.768 -0.1498  0.1403  1.0561
61339SOL     OW93946   7.160   7.551   0.962  0.6125  0.2173  0.1574
61339SOL    HW193947   7.142   7.468   0.918 -0.0911  0.2145  0.4420
61339SOL    HW293948   7.202   7.605   0.894 -1.3465  0.5566 -0.8595
61340SOL     OW93949  10.875   3.770   8.807 -0.3541 -0.1992  0.3402
61340SOL    HW193950  10.843   3.807   8.889 -2.6496 -1.4862  0.0994
61340SOL    HW293951  10.842   3.829   8.739  0.4060  0.1231  0.2369
61341SOL     OW93952   5.717  11.534   5.804 -0.1614  0.2864 -0.2854
61341SOL    HW193953   5.627  11.561   5.785  0.6685  1.6797 -2.7875
61341SOL    HW293954   5.751  11.602   5.862 -1.3246 -1.5300  2.7802
61342SOL     OW93955   2.945   9.756   2.828  0.5933  0.8056  0.0282
61342SOL    HW193956   2.969   9.773   2.919  0.2020 -0.5203  0.3958
61342SOL    HW293957   2.887   9.680   2.831 -1.6450  2.3458 -1.0906
61343SOL     OW93958   9.322   4.711  12.441 -0.4502  0.4379 -0.0065
61343SOL    HW193959   9.404   4.712  12.391 -0.2757 -0.0275  0.2678
61343SOL    HW293960   9.264   4.770  12.392  0.2922  1.4008  0.2326
61344SOL     OW93961   1.598   8.106   8.561 -0.6607 -0.2546 -0.0686
61344SOL    HW193962   1.546   8.035   8.598  0.2563 -0.7678  0.2707
61344SOL    HW293963   1.653   8.136   8.634 -1.6272  1.3945  0.0345
61345SOL     OW93964  12.444   6.760   6.429  0.1513 -0.0520  0.2741
61345SOL    HW193965  12.355   6.786   6.403 -0.2494 -1.2509  0.3934
61345SOL    HW293966  12.432   6.714   6.512  0.6326 -1.8631 -0.5986
61346SOL     OW93967   4.006  11.452   7.275  0.3985 -0.7621 -0.4003
61346SOL    HW193968   4.010  11.430   7.368  0.1055  0.2583 -0.1348
61346SOL    HW293969   3.965  11.375   7.234  3.0476 -2.4680 -0.1424
61347SOL     OW93970  10.852   8.243   5.677  0.3839  0.2438 -0.3241
61347SOL    HW193971  10.846   8.164   5.731  3.8760  1.4633  2.2575
61347SOL    HW293972  10.839   8.315   5.739  4.1853  1.7026 -0.9432
61348SOL     OW93973  11.899   2.846   5.249 -0.0564 -0.5606 -0.1229
61348SOL    HW193974  11.829   2.852   5.184  1.5450 -0.3196 -1.9216
61348SOL    HW293975  11.870   2.901   5.321 -0.3999  2.0587 -2.1186
61349SOL     OW93976   5.686  11.827   3.907 -0.3272 -0.3713  0.7476
61349SOL    HW193977   5.752  11.852   3.843 -1.1039 -2.4590 -0.9884
61349SOL    HW293978   5.735  11.809   3.987  1.0107 -0.3030 -0.0370
61350SOL     OW93979   5.376  11.254   3.432  0.5773  0.3648 -0.3525
61350SOL    HW193980   5.343  11.343   3.418 -1.7291 -0.4830 -0.6634
61350SOL    HW293981   5.453  11.266   3.488 -0.9845  2.4293  1.5641
61351SOL     OW93982  13.274   6.307  12.621 -0.7085  0.1783  0.1663
61351SOL    HW193983  13.364   6.281  12.637 -0.5139  0.3111 -0.6493
61351SOL    HW293984  13.233   6.308  12.707  0.2467  0.7958  0.6265
61352SOL     OW93985   6.007   8.885   9.938  0.3555  0.0089 -0.0670
61352SOL    HW193986   5.978   8.961   9.887  2.0698  0.9078  0.2398
61352SOL    HW293987   6.084   8.852   9.891  0.2452 -0.9205  0.3780
61353SOL     OW93988  12.619   2.842  10.218 -0.3621 -0.2505  0.0461
61353SOL    HW193989  12.658   2.861  10.303  1.0539  2.7587 -1.1408
61353SOL    HW293990  12.530   2.878  10.223 -0.1684  0.2122  0.1459
61354SOL     OW93991   5.455  11.968   4.067  0.0220  0.0656  0.2213
61354SOL    HW193992   5.464  11.881   4.030  2.1784  0.3919 -0.1530
61354SOL    HW293993   5.543  12.004   4.067 -0.7295  2.0902  0.7925
61355SOL     OW93994   7.851   9.140   6.433 -0.2890  0.1697  0.3801
61355SOL    HW193995   7.770   9.167   6.476  0.6981  2.4120  1.0003
61355SOL    HW293996   7.918   9.149   6.501  0.7702  0.3520 -0.6679
61356SOL     OW93997   0.471   3.885   1.013  0.5066 -0.2046  0.2692
61356SOL    HW193998   0.401   3.876   0.949  1.0026 -0.6426 -0.2220
61356SOL    HW293999   0.472   3.801   1.060  0.4124 -0.0353  0.5766
61357SOL     OW94000   1.402   4.335   3.757  0.2020 -0.0964 -0.4829
61357SOL    HW194001   1.336   4.382   3.707  0.3104  0.7570  0.1571
61357SOL    HW294002   1.429   4.397   3.825  1.8318 -0.3173 -0.8800
61358SOL     OW94003   8.973   9.653   1.149 -0.1344 -0.0918 -0.2083
61358SOL    HW194004   8.926   9.721   1.102 -1.1071  0.4272  1.4098
61358SOL    HW294005   9.063   9.684   1.155  0.1935 -0.5114 -2.2744
61359SOL     OW94006   6.100   4.431  10.199  0.1073  0.3557  0.3132
61359SOL    HW194007   6.053   4.349  10.188 -0.9332  0.5584  2.5998
61359SOL    HW294008   6.057   4.473  10.274  1.5744  2.2878  0.1444
61360SOL     OW94009  12.089   5.940   5.251 -0.5778  0.0441 -0.1791
61360SOL    HW194010  12.045   5.889   5.318  0.7338  1.1020  1.5706
61360SOL    HW294011  12.167   5.889   5.228 -0.7645 -0.0784 -0.5552
61361SOL     OW94012  11.127   7.102   1.283  0.0080  0.0489  0.6376
61361SOL    HW194013  11.054   7.095   1.344 -0.5686  1.3945  0.1431
61361SOL    HW294014  11.173   7.019   1.291 -2.4461 -1.4726 -0.1744
61362SOL     OW94015   8.773   4.883   2.010 -0.3979  0.0441 -0.2477
61362SOL    HW194016   8.745   4.795   2.035 -0.3659 -0.2272 -1.1346
61362SOL    HW294017   8.779   4.931   2.092 -0.6722 -0.7108  0.2168
61363SOL     OW94018   6.592   0.548   1.997  0.6689 -0.7186  0.3745
61363SOL    HW194019   6.674   0.521   1.956  1.0498 -0.3868  0.9006
61363SOL    HW294020   6.558   0.617   1.940  1.5473  0.2271  0.9571
61364SOL     OW94021  11.251   1.599   9.109 -0.1630  0.6813  0.3313
61364SOL    HW194022  11.157   1.589   9.092 -0.3371  0.2512  1.4451
61364SOL    HW294023  11.256   1.637   9.197  0.7223 -1.7389  1.4001
61365SOL     OW94024  13.240   0.598  11.593 -0.2045  0.2580 -0.3660
61365SOL    HW194025  13.150   0.599  11.625 -0.5128 -0.3635 -1.1907
61365SOL    HW294026  13.283   0.531  11.647 -1.0673 -1.7858 -2.0651
61366SOL     OW94027   5.695   4.255   0.837  0.1977 -0.5035 -0.1364
61366SOL    HW194028   5.762   4.253   0.905  1.3790 -0.0588 -1.2554
61366SOL    HW294029   5.672   4.164   0.823  0.4984 -0.6539  0.3281
61367SOL     OW94030   7.021   6.605  10.208  0.0168 -0.4839 -0.2129
61367SOL    HW194031   6.970   6.526  10.188 -0.7748  0.3280 -1.5476
61367SOL    HW294032   6.974   6.645  10.282 -1.7337  0.5675 -1.8013
61368SOL     OW94033   1.622  10.696   3.183 -0.1973  0.6959  0.1868
61368SOL    HW194034   1.703  10.681   3.135  1.1670  2.0209  1.9178
61368SOL    HW294035   1.610  10.791   3.180 -1.5898  0.5439  0.1431
61369SOL     OW94036   0.787  11.754   4.510  0.0935 -0.1725 -0.7015
61369SOL    HW194037   0.840  11.785   4.584 -1.1436  0.7126 -0.1608
61369SOL    HW294038   0.759  11.667   4.536 -1.0664  0.4726  0.2923
61370SOL     OW94039  12.822  13.041   3.955 -0.0253  0.0245 -0.2367
61370SOL    HW194040  12.795  13.031   4.047 -3.3711  0.9391 -0.9623
61370SOL    HW294041  12.773  12.973   3.909  4.1468 -2.6850 -1.1422
61371SOL     OW94042  12.103   8.559   1.972  0.1242  0.0159  0.3736
61371SOL    HW194043  12.139   8.612   2.043 -1.5295  0.3802  0.9896
61371SOL    HW294044  12.092   8.620   1.900 -0.1745  0.1347  0.5167
61372SOL     OW94045   8.190   7.367  11.028 -0.3315  0.0288 -0.0870
61372SOL    HW194046   8.131   7.337  10.958 -1.0703  1.5937 -0.1764
61372SOL    HW294047   8.146   7.342  11.109 -0.3201 -0.2445 -0.1636
61373SOL     OW94048   6.777   4.280   7.932 -0.0682  0.0194 -0.4365
61373SOL    HW194049   6.729   4.356   7.964  0.5334  0.7221 -1.1787
61373SOL    HW294050   6.842   4.262   8.000 -1.3854 -0.9995  0.6274
61374SOL     OW94051   5.697   8.915   5.838 -0.0128  0.4973  0.0401
61374SOL    HW194052   5.781   8.961   5.834  0.3193  0.1112  1.7200
61374SOL    HW294053   5.699   8.870   5.922 -1.7769  0.2075 -0.0428
61375SOL     OW94054  12.784   0.227   8.908  0.5129  0.4591  0.3215
61375SOL    HW194055  12.867   0.195   8.945  0.1109  0.7983  1.5894
61375SOL    HW294056  12.798   0.322   8.897  0.7731  0.3002 -0.8459
61376SOL     OW94057   4.361  10.131   1.591  0.6210  0.1466  0.2510
61376SOL    HW194058   4.375  10.220   1.558  2.9418  0.2323  1.2017
61376SOL    HW294059   4.309  10.088   1.524 -0.7803  2.2696 -0.1358
61377SOL     OW94060   6.436   9.979   4.936  0.1192  0.1293  0.5256
61377SOL    HW194061   6.532   9.971   4.931  0.3678  2.7519 -0.6698
61377SOL    HW294062   6.421  10.072   4.952 -2.2699 -0.1990  0.5638
61378SOL     OW94063   5.072   3.237   2.739  0.9049  0.3691  0.4100
61378SOL    HW194064   5.164   3.220   2.720  0.8470 -0.1041  0.5277
61378SOL    HW294065   5.041   3.157   2.782  0.3687  0.4021  0.1050
61379SOL     OW94066   6.420   7.660  12.700  0.1216 -0.4721  0.2417
61379SOL    HW194067   6.498   7.642  12.751  1.1058 -1.4942 -1.5366
61379SOL    HW294068   6.385   7.574  12.678 -1.6019 -0.0398  1.0769
61380SOL     OW94069   8.844  11.327  10.175  0.4902  0.0659 -0.9360
61380SOL    HW194070   8.750  11.309  10.173  0.6097 -0.5667 -1.2338
61380SOL    HW294071   8.851  11.422  10.169 -0.2626  0.5990  3.6548
61381SOL     OW94072   0.436  12.074  11.572  0.3418 -0.0475 -0.9266
61381SOL    HW194073   0.406  12.112  11.655  1.3094 -3.0286  0.9219
61381SOL    HW294074   0.528  12.099  11.566  0.8461 -1.5761  0.0388
61382SOL     OW94075   0.403  13.154   4.199  0.6917  0.1187 -0.2691
61382SOL    HW194076   0.463  13.211   4.151  0.5246  1.3054  0.8658
61382SOL    HW294077   0.327  13.210   4.217  0.1558 -0.7268  0.1435
61383SOL     OW94078   3.657   7.616   4.212 -0.2841  0.2015 -0.2919
61383SOL    HW194079   3.668   7.673   4.288 -1.3794 -0.1596  0.1506
61383SOL    HW294080   3.571   7.575   4.224  0.0707 -0.8213 -1.0818
61384SOL     OW94081  13.239   1.896   9.193 -0.0207 -0.1467 -0.5750
61384SOL    HW194082  13.285   1.933   9.269 -2.3853  1.0633  0.3719
61384SOL    HW294083  13.260   1.955   9.121  0.1301  0.2416 -0.2162
61385SOL     OW94084  11.604  10.372   5.425  0.2886  0.3656  0.3218
61385SOL    HW194085  11.699  10.378   5.414  0.0860  0.1283 -1.8811
61385SOL    HW294086  11.586  10.278   5.425 -0.2842  0.3441 -3.4766
61386SOL     OW94087  11.197   5.171   1.048 -0.4269  0.4087  0.0232
61386SOL    HW194088  11.279   5.214   1.022 -0.6438  0.1265 -1.2076
61386SOL    HW294089  11.132   5.205   0.987 -1.2668  0.7182  1.0682
61387SOL     OW94090   5.209   2.917   3.988  0.2998  0.0338 -0.1883
61387SOL    HW194091   5.291   2.948   3.949 -0.5981  1.6299 -0.9146
61387SOL    HW294092   5.180   2.989   4.043 -0.8455 -0.3226 -0.2987
61388SOL     OW94093   0.994   7.781  10.296  0.3443 -0.0049 -0.0459
61388SOL    HW194094   0.942   7.821  10.366  0.3312 -0.5837  0.2796
61388SOL    HW294095   1.079   7.763  10.336  0.5102  0.1477 -0.3314
61389SOL     OW94096   9.094  12.800  13.111  0.2147  0.0202 -0.2841
61389SOL    HW194097   9.154  12.815  13.184 -0.5104  1.4561  0.0617
61389SOL    HW294098   9.141  12.834  13.035  0.5441 -0.4891 -0.3098
61390SOL     OW94099   5.288   1.966  13.109  0.0001 -0.0098 -0.1342
61390SOL    HW194100   5.203   2.007  13.121 -0.6666 -1.6961  1.3880
61390SOL    HW294101   5.287   1.891  13.168  2.9268  0.4763  0.7243
61391SOL     OW94102   2.984   7.580   3.251 -0.1626  0.2402  0.4218
61391SOL    HW194103   3.051   7.648   3.254  0.6168 -0.5293  0.8731
61391SOL    HW294104   2.927   7.606   3.179  0.2152  1.2791  0.4865
61392SOL     OW94105   1.767   0.783   6.835 -0.0467 -0.2542 -0.6332
61392SOL    HW194106   1.736   0.797   6.745 -2.3150  0.9951  0.2593
61392SOL    HW294107   1.852   0.828   6.838 -0.0528 -0.0874 -2.0447
61393SOL     OW94108   5.944   1.323  10.322 -0.2399 -0.2088  0.6513
61393SOL    HW194109   5.982   1.252  10.270  0.7283  1.1385 -0.5801
61393SOL    HW294110   6.015   1.348  10.382 -0.0286  0.6810  0.0480
61394SOL     OW94111   1.632   9.362   7.730 -0.3140  0.0307  0.0104
61394SOL    HW194112   1.641   9.391   7.821 -0.9616 -1.1161  0.4651
61394SOL    HW294113   1.721   9.349   7.699 -0.0782  0.7428  0.3709
61395SOL     OW94114  11.761   0.847   8.953  0.1375  0.1755  0.3462
61395SOL    HW194115  11.732   0.926   8.907 -0.0991  0.3771  0.8362
61395SOL    HW294116  11.792   0.878   9.038 -0.7298 -0.3325  0.8731
61396SOL     OW94117   5.461   6.513  12.232 -0.2549  0.2959 -0.0179
61396SOL    HW194118   5.393   6.450  12.208 -1.9555  1.6295  1.0034
61396SOL    HW294119   5.508   6.471  12.303 -2.7834  0.9176  2.1853
61397SOL     OW94120   8.817   4.791   1.572 -1.0553 -0.3278 -0.3898
61397SOL    HW194121   8.786   4.881   1.568 -0.6253 -0.2104 -3.4944
61397SOL    HW294122   8.887   4.792   1.637 -1.2877  1.4753 -0.1202
61398SOL     OW94123  12.367   6.217   4.941 -0.1125  0.5532  0.0934
61398SOL    HW194124  12.340   6.303   4.972  0.2755  0.9551 -0.6526
61398SOL    HW294125  12.459   6.228   4.914 -0.5412  0.3662 -1.5900
61399SOL     OW94126  10.566   2.936   6.879 -0.3027 -0.2438  0.2151
61399SOL    HW194127  10.585   3.025   6.910 -0.0200 -0.0367 -0.5334
61399SOL    HW294128  10.588   2.880   6.953  0.0819  0.2675  0.4969
61400SOL     OW94129   7.237   1.302   1.061  0.1166  0.1418  0.2551
61400SOL    HW194130   7.238   1.280   1.154  3.0116 -0.2046  0.2315
61400SOL    HW294131   7.311   1.362   1.050 -1.1252  1.4554 -1.5888
61401SOL     OW94132  12.133  11.768   3.778 -0.1183  0.0480  0.1065
61401SOL    HW194133  12.103  11.847   3.733  0.2509 -0.5632 -1.2524
61401SOL    HW294134  12.065  11.703   3.761 -0.0573 -0.1505  0.5930
61402SOL     OW94135   1.878  10.406   9.918  0.0130  0.3213 -0.3363
61402SOL    HW194136   1.907  10.419  10.008 -1.2948 -0.2571  0.1936
61402SOL    HW294137   1.918  10.324   9.891 -1.1679 -0.5290  0.4264
61403SOL     OW94138   4.550   9.228   2.806  0.5548 -0.9298  0.1613
61403SOL    HW194139   4.520   9.157   2.862 -0.5726  0.0036  0.7957
61403SOL    HW294140   4.469   9.269   2.774  1.1815 -0.3882 -0.7630
61404SOL     OW94141   3.410   7.776  10.560  0.2768 -0.1489  0.9295
61404SOL    HW194142   3.494   7.731  10.558  0.2215 -0.2339  0.4677
61404SOL    HW294143   3.421   7.844  10.627  1.1795  0.7480 -0.0861
61405SOL     OW94144   6.851   4.809   0.054  1.0441 -0.1446 -0.0597
61405SOL    HW194145   6.877   4.898   0.030  2.2428 -0.3022  0.5463
61405SOL    HW294146   6.767   4.819   0.100  2.1810  0.9536  1.9090
61406SOL     OW94147   9.578  11.085   1.054 -0.5520  0.4045  0.2752
61406SOL    HW194148   9.517  11.155   1.030 -1.2896 -0.3564 -0.1066
61406SOL    HW294149   9.662  11.130   1.065 -0.7766  1.2070 -1.0104
61407SOL     OW94150  11.762  11.201   1.788 -0.9801 -0.3582  0.4188
61407SOL    HW194151  11.817  11.143   1.735  0.2482  0.1585  1.0889
61407SOL    HW294152  11.711  11.250   1.724  0.8127  0.5973 -0.3677
61408SOL     OW94153  11.602   7.401  11.333  0.5926 -0.3538  0.2305
61408SOL    HW194154  11.628   7.332  11.394  0.6333 -1.2277 -0.7480
61408SOL    HW294155  11.669   7.468  11.343 -1.3710  1.3626  3.9321
61409SOL     OW94156   0.466   8.708   3.174  0.0233  0.1068 -0.1127
61409SOL    HW194157   0.456   8.729   3.081  1.0469 -0.4942 -0.3682
61409SOL    HW294158   0.525   8.776   3.207  1.2193 -0.7761 -0.3553
61410SOL     OW94159   2.924   1.307   8.393 -0.0800 -0.1425  0.1287
61410SOL    HW194160   2.840   1.342   8.364 -0.0703 -1.1288 -1.1418
61410SOL    HW294161   2.908   1.277   8.483 -0.5453  1.4343  0.6007
61411SOL     OW94162   8.043   5.370  10.398 -0.2451 -0.3026 -0.7349
61411SOL    HW194163   8.124   5.415  10.377 -0.6173  0.7567  0.0429
61411SOL    HW294164   8.016   5.405  10.482 -2.2991  0.5025 -1.6442
61412SOL     OW94165  10.345   3.649   1.609  0.4831  0.3130  0.0504
61412SOL    HW194166  10.358   3.707   1.535  0.9109  0.7650  0.4705
61412SOL    HW294167  10.255   3.665   1.637  0.4327  0.3910 -0.1555
61413SOL     OW94168   7.376   4.451   0.823 -0.4328  0.4682  0.0929
61413SOL    HW194169   7.297   4.504   0.813  0.0350  1.2413  0.4276
61413SOL    HW294170   7.366   4.410   0.909 -0.4787  0.5415  0.1227
61414SOL     OW94171   0.530   1.609  12.959 -0.0302  0.2952 -0.4458
61414SOL    HW194172   0.497   1.698  12.973  1.6359  0.9896 -0.6830
61414SOL    HW294173   0.530   1.569  13.046  0.3939  0.9786 -0.1243
61415SOL     OW94174   7.692   4.526   1.073 -0.0624 -0.0138 -0.3677
61415SOL    HW194175   7.752   4.601   1.071  0.7195 -0.5503  1.3228
61415SOL    HW294176   7.610   4.562   1.109 -0.8233  0.7015 -2.6126
61416SOL     OW94177  10.587   1.420   4.104 -0.1751 -0.2657 -0.4570
61416SOL    HW194178  10.505   1.446   4.060  0.7780  2.5786 -0.7250
61416SOL    HW294179  10.559   1.394   4.192 -1.2760  2.4800  0.1105
61417SOL     OW94180  11.872   8.902  11.921 -0.2067  0.4494  0.0573
61417SOL    HW194181  11.800   8.845  11.894 -0.4135  1.4504 -1.6841
61417SOL    HW294182  11.829   8.979  11.958 -0.0252  0.7758 -0.4034
61418SOL     OW94183   8.129   9.122   0.864 -0.3226  0.8091  0.0227
61418SOL    HW194184   8.126   9.146   0.772 -1.2351  1.0910  0.1180
61418SOL    HW294185   8.203   9.171   0.900  2.5979 -2.1918 -1.3312
61419SOL     OW94186   9.279  12.550  11.047  0.2543 -0.4001  0.0170
61419SOL    HW194187   9.356  12.598  11.077 -0.1532 -0.7537  1.7584
61419SOL    HW294188   9.243  12.510  11.126 -1.7810 -0.1769 -0.7280
61420SOL     OW94189   2.236   7.223   5.010  0.3655 -0.2211  0.6134
61420SOL    HW194190   2.228   7.318   5.013 -2.7131 -0.1270 -3.0131
61420SOL    HW294191   2.315   7.207   4.959  1.9017  0.2365  2.7427
61421SOL     OW94192   4.486   7.825  10.927 -0.3506  0.6935 -0.0094
61421SOL    HW194193   4.579   7.849  10.918 -0.0123 -0.1872  0.9422
61421SOL    HW294194   4.439   7.905  10.906  0.6858  1.7821  1.5305
61422SOL     OW94195  10.911   4.403  12.430  0.5789 -0.5549  0.1942
61422SOL    HW194196  10.922   4.498  12.433 -3.7859  0.1657  0.3055
61422SOL    HW294197  10.934   4.374  12.518  0.9623  0.5552  0.4778
61423SOL     OW94198   8.751   8.131  10.613 -0.3306  0.4732 -0.1360
61423SOL    HW194199   8.685   8.093  10.670 -0.2026 -2.3444 -1.6614
61423SOL    HW294200   8.831   8.130  10.665 -0.4637 -0.9450  0.0947
61424SOL     OW94201   2.448  10.498   7.588  1.0276 -0.2418 -0.0649
61424SOL    HW194202   2.509  10.517   7.517 -0.7223 -0.0740 -1.5847
61424SOL    HW294203   2.399  10.422   7.558 -0.5409  0.5325  0.4286
61425SOL     OW94204   6.442  12.957   2.345 -0.3565  0.1867 -0.6063
61425SOL    HW194205   6.362  12.919   2.310 -0.9867  1.6884 -0.9031
61425SOL    HW294206   6.412  13.018   2.412  0.4394  1.4126 -1.3138
61426SOL     OW94207   6.744   2.618   4.112  0.1361  0.1214 -0.1441
61426SOL    HW194208   6.765   2.668   4.191  1.6578  0.8950 -0.9880
61426SOL    HW294209   6.679   2.672   4.066 -0.2722 -0.0193  0.2672
61427SOL     OW94210   2.815  10.456  12.810 -0.1586  0.3643  0.0666
61427SOL    HW194211   2.825  10.545  12.844  3.0221 -0.5414  1.9252
61427SOL    HW294212   2.737  10.422  12.855  0.1300  1.3877  1.4207
61428SOL     OW94213  13.232   0.731   2.577 -0.4735 -0.5616  0.2357
61428SOL    HW194214  13.183   0.813   2.572 -1.2975 -1.0417  0.3967
61428SOL    HW294215  13.190   0.681   2.647 -0.0751 -1.1879  0.0372
61429SOL     OW94216   9.782   7.446   3.914  0.3742  0.4498  0.2333
61429SOL    HW194217   9.799   7.352   3.920  1.7506  0.6857  0.4024
61429SOL    HW294218   9.790   7.478   4.004  1.3936  0.9423 -0.0177
61430SOL     OW94219   9.703  12.934   0.089  0.0912  0.4339  0.4920
61430SOL    HW194220   9.629  12.966   0.140 -0.8517 -0.7999 -0.0478
61430SOL    HW294221   9.779  12.945   0.147 -0.7869  0.0378  1.7518
61431SOL     OW94222  11.112  12.915  10.254 -0.0723 -0.0387  0.0994
61431SOL    HW194223  11.155  13.000  10.241  0.3003 -0.1628  0.4867
61431SOL    HW294224  11.021  12.938  10.275  0.3924  0.3627  1.8569
61432SOL     OW94225   7.826   9.253   7.396 -0.6419  1.0816 -0.0695
61432SOL    HW194226   7.811   9.341   7.363 -2.9415  1.1550  0.9989
61432SOL    HW294227   7.814   9.196   7.320  1.5146  1.6518 -0.9155
61433SOL     OW94228   8.187   2.664  12.084 -0.4371  0.7444  0.2253
61433SOL    HW194229   8.229   2.628  12.162  1.3879  0.5870 -0.7594
61433SOL    HW294230   8.177   2.757  12.104 -1.1789  0.4866  1.1237
61434SOL     OW94231   4.065  12.946   5.541 -0.0575  0.0098  0.0913
61434SOL    HW194232   4.068  12.969   5.634  0.1767  1.0017 -0.1412
61434SOL    HW294233   4.090  13.027   5.496  0.2277 -0.5673 -0.8224
61435SOL     OW94234  11.357   5.583  10.737 -0.3566 -0.1042 -0.3551
61435SOL    HW194235  11.356   5.674  10.707 -2.3015  0.1092  0.2024
61435SOL    HW294236  11.271   5.548  10.712  0.7516 -2.1704 -1.5870
61436SOL     OW94237   6.247   8.840  11.321  0.0593 -0.2487 -0.2161
61436SOL    HW194238   6.282   8.919  11.362  0.2570 -0.8512  0.8200
61436SOL    HW294239   6.224   8.783  11.395 -1.1733 -0.6999 -0.9164
61437SOL     OW94240  11.798   6.415   8.676 -0.1810  0.2326  0.6453
61437SOL    HW194241  11.841   6.339   8.636  0.8344  0.5665  1.0660
61437SOL    HW294242  11.782   6.387   8.767  0.0724  0.4599  0.7634
61438SOL     OW94243   3.418   4.130   9.964  0.4602 -0.2759 -0.3151
61438SOL    HW194244   3.435   4.222   9.981 -2.3744  0.5602 -1.4633
61438SOL    HW294245   3.405   4.125   9.869 -2.8869 -1.1043  0.0893
61439SOL     OW94246  10.720  10.772  10.437  0.5161  0.3103 -0.3807
61439SOL    HW194247  10.790  10.832  10.412 -0.8716  2.4413  0.5568
61439SOL    HW294248  10.653  10.784  10.370  0.6758 -1.1302 -0.8339
61440SOL     OW94249   0.359   4.922   1.797  0.3101  0.3436  0.3136
61440SOL    HW194250   0.382   4.853   1.860 -1.4918  0.6056  1.3218
61440SOL    HW294251   0.425   4.913   1.728 -0.7811 -3.5015 -0.4695
61441SOL     OW94252   6.567   6.525  11.174 -0.2400 -0.2826 -0.2626
61441SOL    HW194253   6.635   6.506  11.110  0.7661  1.9888  0.0425
61441SOL    HW294254   6.606   6.504  11.258 -1.0590 -1.8791 -0.2298
61442SOL     OW94255  12.354   6.521   3.472  0.0093  0.0069 -0.6318
61442SOL    HW194256  12.325   6.484   3.555  0.2912 -0.3500 -0.6862
61442SOL    HW294257  12.282   6.578   3.444  0.7174  1.7443  0.8391
61443SOL     OW94258  10.889   7.731   2.649 -0.0715  0.0203 -0.2349
61443SOL    HW194259  10.980   7.704   2.639  0.0778  0.1182  0.8092
61443SOL    HW294260  10.891   7.804   2.710 -0.9440 -0.6420  0.6277
61444SOL     OW94261  12.459   1.850   7.084  0.4966  0.1754  0.0553
61444SOL    HW194262  12.520   1.816   7.019 -0.7360 -1.8623 -0.1471
61444SOL    HW294263  12.420   1.771   7.123 -1.8859  1.3777  0.2720
61445SOL     OW94264   0.763  13.091   7.844  0.2169 -0.1605  0.3120
61445SOL    HW194265   0.772  13.068   7.751  2.2927 -0.3274  0.5049
61445SOL    HW294266   0.803  13.018   7.891  0.1542  0.4097  1.2906
61446SOL     OW94267  11.620   0.126   0.760  0.4606  0.2105 -0.0347
61446SOL    HW194268  11.626   0.079   0.844  3.5605  0.7414  0.1633
61446SOL    HW294269  11.579   0.063   0.701  0.5276 -1.1301  1.2698
61447SOL     OW94270   0.383  11.882   5.278 -0.6365 -0.6660 -0.6562
61447SOL    HW194271   0.295  11.918   5.267  0.0073  0.5110 -2.4821
61447SOL    HW294272   0.371  11.787   5.269 -1.7476 -0.5333 -0.6776
61448SOL     OW94273   1.627   3.414   1.437 -0.2436 -0.4570  0.5923
61448SOL    HW194274   1.559   3.413   1.368  1.1494 -0.1017 -0.8475
61448SOL    HW294275   1.608   3.336   1.490 -1.9144 -0.2314  0.3957
61449SOL     OW94276   3.644   6.571   4.164 -0.1131  0.8918  0.3704
61449SOL    HW194277   3.605   6.657   4.183 -0.9542  0.7964 -0.8164
61449SOL    HW294278   3.606   6.512   4.229  0.8107  1.4760  1.4825
61450SOL     OW94279   6.099  12.151   1.485  0.0506 -0.1405  0.6156
61450SOL    HW194280   6.176  12.096   1.498  1.2060  1.6255  1.6873
61450SOL    HW294281   6.040  12.126   1.556  1.0166  0.6799  1.7486
61451SOL     OW94282  10.947   8.086  11.620  0.2862 -0.4800 -0.5920
61451SOL    HW194283  10.857   8.113  11.636  0.5757  0.8508 -1.1401
61451SOL    HW294284  10.992   8.103  11.702  0.3318  0.1405 -0.7431
61452SOL     OW94285   5.515   8.094   1.864 -0.6146  0.2601 -0.6051
61452SOL    HW194286   5.533   8.011   1.908  4.0507  1.0206 -0.5476
61452SOL    HW294287   5.436   8.127   1.907 -2.2909 -3.7367 -0.2128
61453SOL     OW94288  13.205   5.063   3.022 -0.0511  0.0023 -0.7749
61453SOL    HW194289  13.162   5.145   2.999  0.2117  0.7895  1.2742
61453SOL    HW294290  13.146   5.022   3.086  0.6648 -0.5132 -0.4291
61454SOL     OW94291   8.799   7.684   0.458  0.5026  0.1736 -0.3640
61454SOL    HW194292   8.815   7.689   0.552  0.5258 -2.2236 -0.1763
61454SOL    HW294293   8.880   7.647   0.422 -0.6544 -2.1521 -0.7982
61455SOL     OW94294   3.819   7.403   8.120 -0.1001 -0.0571  0.4236
61455SOL    HW194295   3.877   7.429   8.048  1.1065  0.9557  1.7159
61455SOL    HW294296   3.747   7.466   8.117 -0.6542 -0.7011 -0.5547
61456SOL     OW94297   6.533   8.819   8.489  0.2365 -0.0901  0.8192
61456SOL    HW194298   6.457   8.779   8.531  0.0927 -1.9096 -1.0013
61456SOL    HW294299   6.497   8.895   8.443 -0.7141 -1.4156 -0.7356
61457SOL     OW94300   4.899  11.519   8.731 -0.0106 -0.0236 -0.4283
61457SOL    HW194301   4.832  11.451   8.743  0.1839 -0.1351  0.0709
61457SOL    HW294302   4.849  11.600   8.722 -0.3145 -0.3973 -2.5522
61458SOL     OW94303   7.588  12.053   6.108 -0.4319 -0.2919  0.0189
61458SOL    HW194304   7.645  12.115   6.152  0.1497  0.0553 -1.1676
61458SOL    HW294305   7.510  12.049   6.163 -0.8176  2.0853 -0.2133
61459SOL     OW94306  12.393  10.146   0.078 -0.0253  0.0680  0.1077
61459SOL    HW194307  12.428  10.057   0.076 -1.8432 -0.8091  2.2685
61459SOL    HW294308  12.305  10.138   0.042  0.1804  1.2376 -0.7060
61460SOL     OW94309   3.560   8.804  10.082 -0.4286 -0.0374 -0.4197
61460SOL    HW194310   3.535   8.793   9.991 -0.4104 -0.1493 -0.4120
61460SOL    HW294311   3.560   8.898  10.097 -1.0994 -0.0411 -0.3497
61461SOL     OW94312   2.390   2.329   8.480 -0.3292 -0.1129 -0.3284
61461SOL    HW194313   2.423   2.380   8.405  0.0371 -0.9004 -0.7199
61461SOL    HW294314   2.296   2.345   8.480 -0.2464  0.4086 -0.5656
61462SOL     OW94315   9.614   9.909   3.837  0.2241  0.0685 -0.2752
61462SOL    HW194316   9.587   9.826   3.798  4.0981 -2.1811  1.2444
61462SOL    HW294317   9.537   9.940   3.883 -0.9141 -3.8486  0.8342
61463SOL     OW94318   5.352  11.707  11.310 -0.3874 -0.0465  0.0393
61463SOL    HW194319   5.257  11.721  11.299 -0.4658 -0.6376 -0.0645
61463SOL    HW294320   5.380  11.666  11.228  0.3458  1.9464 -0.7629
61464SOL     OW94321   0.633  10.231   3.483 -0.3820  0.2591  0.5283
61464SOL    HW194322   0.645  10.266   3.395  1.6534 -1.1185  0.1996
61464SOL    HW294323   0.656  10.304   3.541  2.3833  0.0231 -0.1419
61465SOL     OW94324   9.860  12.654   3.636  0.0568  0.2023  0.0572
61465SOL    HW194325   9.784  12.647   3.694  0.6834 -0.5392  0.7990
61465SOL    HW294326   9.844  12.588   3.568 -1.6045  2.2978 -1.7815
61466SOL     OW94327   3.266   3.755   7.422 -0.9540  0.3832  0.1014
61466SOL    HW194328   3.348   3.801   7.441 -1.7563  1.3127  1.4687
61466SOL    HW294329   3.279   3.718   7.335  0.9213  0.4934  0.3029
61467SOL     OW94330   6.428  11.574   2.405  0.4235 -0.0059  0.2412
61467SOL    HW194331   6.486  11.537   2.338  1.4987  0.0542  1.1068
61467SOL    HW294332   6.408  11.662   2.373 -0.3408 -0.5201 -0.7437
61468SOL     OW94333   8.004  10.325   8.869  0.4896  0.1252  0.1677
61468SOL    HW194334   7.942  10.262   8.906  0.6365  0.8620  1.7455
61468SOL    HW294335   7.960  10.360   8.792  0.4756 -2.0180 -0.8774
61469SOL     OW94336  10.333   8.348   2.439 -0.1959 -0.1169 -0.3538
61469SOL    HW194337  10.389   8.272   2.426 -0.8770 -0.7233  0.1512
61469SOL    HW294338  10.347   8.402   2.362 -0.5042 -1.2830 -1.2633
61470SOL     OW94339   4.874  12.208   6.553  0.6533  0.1643 -0.7757
61470SOL    HW194340   4.785  12.183   6.580 -0.0322  2.5987 -0.4652
61470SOL    HW294341   4.909  12.131   6.510 -1.0367 -1.3857  0.4670
61471SOL     OW94342   8.059   1.741  12.758  0.5079 -0.1964  0.0148
61471SOL    HW194343   8.092   1.656  12.728  1.0807  0.1170 -0.2473
61471SOL    HW294344   7.969   1.723  12.783  1.5905 -1.7430  3.4314
61472SOL     OW94345   4.123   5.407   9.721  0.3517  0.1511  0.2132
61472SOL    HW194346   4.058   5.337   9.726 -0.0681  0.5818  1.1424
61472SOL    HW294347   4.175   5.387   9.644 -0.3242 -0.6965 -0.0339
61473SOL     OW94348   7.880  10.849   4.004  0.2641  0.6044  0.0626
61473SOL    HW194349   7.972  10.870   4.018  0.5331 -0.2203 -0.4360
61473SOL    HW294350   7.834  10.931   4.023  1.1837  1.2994 -0.6331
61474SOL     OW94351   5.189  11.942  10.479 -0.0098  0.4875  0.1528
61474SOL    HW194352   5.198  11.857  10.521 -0.0160  0.6530  0.4978
61474SOL    HW294353   5.100  11.970  10.501 -0.4850  0.0079 -1.0580
61475SOL     OW94354   3.087   9.606   7.062 -0.1384  0.0725 -0.0233
61475SOL    HW194355   3.090   9.636   7.153 -1.5546  1.9237 -0.5170
61475SOL    HW294356   3.004   9.559   7.055  0.9808 -2.0124  0.1418
61476SOL     OW94357   4.406   5.331   5.803  0.0114 -0.2482  0.3401
61476SOL    HW194358   4.408   5.350   5.897  0.1287  0.7135  0.1533
61476SOL    HW294359   4.465   5.256   5.793  0.5991  0.1271  0.9289
61477SOL     OW94360   7.962   3.246   1.307  0.4739  0.4521 -0.0650
61477SOL    HW194361   7.983   3.290   1.224 -0.7067  0.9920 -0.0897
61477SOL    HW294362   8.039   3.259   1.361  0.9750  0.7191 -0.8251
61478SOL     OW94363  11.971   4.643  11.603  0.5255  0.5282 -0.5045
61478SOL    HW194364  11.985   4.665  11.511  1.3882 -0.5620 -0.6590
61478SOL    HW294365  11.957   4.548  11.603  0.2977  0.5474  0.4687
61479SOL     OW94366   9.434   4.659  11.509 -0.0341  0.0791 -0.4587
61479SOL    HW194367   9.526   4.634  11.499  0.3041  0.6791  0.8694
61479SOL    HW294368   9.437   4.752  11.535 -0.7945 -0.5985  2.5156
61480SOL     OW94369   1.216   5.208  11.446 -0.2083 -0.2362 -1.0296
61480SOL    HW194370   1.189   5.218  11.537 -0.3160 -0.3198 -1.0523
61480SOL    HW294371   1.259   5.291  11.425  2.3401 -1.2045 -0.0430
61481SOL     OW94372   0.459   7.283   1.226  0.0666 -0.3322 -0.5699
61481SOL    HW194373   0.365   7.263   1.219 -0.0597  0.0192  0.0014
61481SOL    HW294374   0.503   7.205   1.194 -0.4269 -0.6767 -0.4197
61482SOL     OW94375   3.966   1.726   8.375 -0.2393 -0.1230  0.5397
61482SOL    HW194376   3.944   1.687   8.290 -1.4261  0.3363  0.6235
61482SOL    HW294377   3.885   1.723   8.425  0.2551  0.3061  1.3946
61483SOL     OW94378   7.872   7.721   8.885 -0.1806  0.0848 -0.0367
61483SOL    HW194379   7.900   7.792   8.827  1.3796 -0.1295  0.4190
61483SOL    HW294380   7.911   7.743   8.970  0.1072 -1.1736  0.1735
61484SOL     OW94381   7.425   9.771   1.186  0.8368  0.4732  0.0223
61484SOL    HW194382   7.427   9.778   1.090  1.6931 -1.3191 -0.1368
61484SOL    HW294383   7.462   9.685   1.204  0.8706  0.8594  1.9954
61485SOL     OW94384   7.564  13.266   2.669  0.1500  0.2417 -0.6772
61485SOL    HW194385   7.626  13.324   2.626 -0.2474 -0.4178 -2.2158
61485SOL    HW294386   7.545  13.199   2.603  0.0373 -1.2168  0.7789
61486SOL     OW94387  12.282   4.369  11.288  0.7678  0.8679  0.5356
61486SOL    HW194388  12.201   4.331  11.320  0.7755  0.0900 -0.3251
61486SOL    HW294389  12.267   4.464  11.292 -0.8225  0.7501 -1.0875
61487SOL     OW94390  11.128   8.208  10.661 -0.1938 -0.2542 -0.1854
61487SOL    HW194391  11.154   8.119  10.685 -1.4098 -0.3000  1.0840
61487SOL    HW294392  11.193   8.235  10.596  1.2384 -1.4301  0.6800
61488SOL     OW94393   9.993   5.872   0.841  0.4043  0.5357  0.0025
61488SOL    HW194394   9.952   5.843   0.760  0.8670  0.2810 -0.1477
61488SOL    HW294395   9.964   5.810   0.908  0.8771  0.1082 -0.1870
61489SOL     OW94396   0.108  10.721   5.232  0.2977  0.1804 -0.1848
61489SOL    HW194397   0.034  10.771   5.197 -0.3068 -0.1231  0.6261
61489SOL    HW294398   0.075  10.683   5.313  1.2539 -0.2192  0.0324
61490SOL     OW94399   6.762   1.420   2.052  0.0776 -0.1489  0.2127
61490SOL    HW194400   6.810   1.501   2.066  1.8856 -0.8988 -1.3330
61490SOL    HW294401   6.678   1.448   2.015  0.6595  1.0231 -0.2813
61491SOL     OW94402  12.061   3.197  10.153  0.7069 -0.6057  0.0453
61491SOL    HW194403  12.104   3.276  10.186  0.7248 -0.0583 -1.2238
61491SOL    HW294404  11.968   3.217  10.158  0.5409 -1.6340  2.4022
61492SOL     OW94405   9.845   6.931  12.513 -0.2172  0.4460 -0.4344
61492SOL    HW194406   9.932   6.928  12.473  0.7257  1.3649  1.4000
61492SOL    HW294407   9.803   6.849  12.487  2.5680 -1.8053  1.5023
61493SOL     OW94408   9.346   5.991  11.479 -0.0678  0.1663 -0.3933
61493SOL    HW194409   9.265   5.940  11.480 -0.4767  0.7750 -1.3170
61493SOL    HW294410   9.321   6.076  11.515 -0.0519  0.6457 -1.4862
61494SOL     OW94411  11.512  11.431   4.636  0.8993 -0.2219 -0.1341
61494SOL    HW194412  11.510  11.349   4.588  0.2894  1.2981 -2.8862
61494SOL    HW294413  11.589  11.423   4.694  0.7760 -2.7120 -0.2124
61495SOL     OW94414  13.240   2.074   6.148 -0.2649  0.2605  0.9602
61495SOL    HW194415  13.230   1.989   6.105  1.6745 -0.0512  0.9929
61495SOL    HW294416  13.151   2.109   6.156 -1.1389 -1.9227  1.2891
61496SOL     OW94417   3.414   8.775   0.791 -0.0717  0.0668 -0.3360
61496SOL    HW194418   3.382   8.717   0.860 -0.6748  0.8127  0.0248
61496SOL    HW294419   3.342   8.781   0.728  0.4080 -0.4704 -0.9626
61497SOL     OW94420  12.210   5.401  10.157 -0.3371  0.2604  0.2970
61497SOL    HW194421  12.160   5.431  10.233  1.2612  2.7653  0.4650
61497SOL    HW294422  12.268   5.332  10.192 -0.7164  0.2912  1.0010
61498SOL     OW94423   8.635   5.184   4.725  0.0636 -0.8641 -0.1199
61498SOL    HW194424   8.633   5.228   4.640 -2.4628 -0.5971  0.0141
61498SOL    HW294425   8.590   5.101   4.711  0.3709 -1.2022  0.7839
61499SOL     OW94426   3.247   6.515   1.837  0.0195  0.1528  0.2499
61499SOL    HW194427   3.165   6.508   1.788  0.4346 -0.3528 -0.3942
61499SOL    HW294428   3.222   6.500   1.928 -0.8567  1.7490  0.2955
61500SOL     OW94429   6.909   1.998   8.086 -0.2794  0.0642 -0.4830
61500SOL    HW194430   6.992   2.039   8.110  0.1607 -0.7106 -0.6355
61500SOL    HW294431   6.845   2.068   8.094 -0.0642  0.0647  2.2184
61501SOL     OW94432   7.191   9.066  12.543 -0.1585 -0.0221 -0.0944
61501SOL    HW194433   7.204   9.095  12.453 -0.4143 -2.0486 -0.8328
61501SOL    HW294434   7.278   9.045  12.575  0.2769  3.1445  1.0963
61502SOL     OW94435   5.177   4.728   2.267 -0.8022 -0.4119 -0.1624
61502SOL    HW194436   5.094   4.765   2.299 -0.3151  0.2042  0.4001
61502SOL    HW294437   5.242   4.795   2.285 -0.0679 -1.1418 -0.0427
61503SOL     OW94438   8.853  12.479  11.574  0.1218  0.1963  0.1627
61503SOL    HW194439   8.793  12.406  11.560 -0.3985  0.7223 -0.4381
61503SOL    HW294440   8.934  12.453  11.530  0.1436 -0.2649  0.4679
61504SOL     OW94441  11.206  11.484   0.863 -0.7845  0.4208 -0.2827
61504SOL    HW194442  11.226  11.529   0.945 -0.1505  0.4099 -0.4251
61504SOL    HW294443  11.275  11.418   0.854 -2.5337 -1.6539  0.6899
61505SOL     OW94444   5.318   4.250   1.555 -0.1421  0.2735 -0.0540
61505SOL    HW194445   5.293   4.341   1.537 -0.1535  0.1329 -0.7790
61505SOL    HW294446   5.255   4.197   1.505 -0.0824 -0.1299  0.2938
61506SOL     OW94447  10.992  13.050   3.901  0.0894  0.0286 -0.0871
61506SOL    HW194448  10.908  13.004   3.898 -0.6637  1.4074 -0.9079
61506SOL    HW294449  11.053  12.992   3.856 -0.1115 -1.5265  1.5316
61507SOL     OW94450  11.116   0.195   9.225  0.0432 -0.2195 -0.2813
61507SOL    HW194451  11.079   0.219   9.140  2.4026 -2.5508 -2.1171
61507SOL    HW294452  11.054   0.132   9.262 -0.1865 -0.4682 -1.0713
61508SOL     OW94453   1.306   8.429   4.963  0.2537  0.1405  0.4162
61508SOL    HW194454   1.320   8.469   4.878 -1.9586 -2.0623 -1.1229
61508SOL    HW294455   1.350   8.344   4.957  0.6560  0.2388  1.7368
61509SOL     OW94456   4.110   0.606  12.783  0.2023 -0.4689 -0.0391
61509SOL    HW194457   4.196   0.580  12.748  1.3817  0.7743  1.7249
61509SOL    HW294458   4.088   0.538  12.846  1.9994  1.1707  2.5869
61510SOL     OW94459   0.781   0.226  10.731 -0.1977 -0.2532 -0.1310
61510SOL    HW194460   0.759   0.297  10.792  0.9416  0.3957 -0.4309
61510SOL    HW294461   0.750   0.147  10.774 -2.0948  0.4634 -0.0753
61511SOL     OW94462   3.220   5.023  10.698 -0.0494  0.4076 -0.8271
61511SOL    HW194463   3.301   4.973  10.706 -0.1213  0.0755 -2.0460
61511SOL    HW294464   3.194   5.041  10.789  1.3775  0.5185 -0.4147
61512SOL     OW94465   0.919   2.521  11.578  0.1263  0.3782 -0.0240
61512SOL    HW194466   1.012   2.501  11.571 -0.3079 -1.6063 -0.7984
61512SOL    HW294467   0.890   2.477  11.658 -0.0936  1.2086  0.3581
61513SOL     OW94468  10.565   8.423   3.958 -0.0047  0.1954 -0.3283
61513SOL    HW194469  10.596   8.377   4.036  0.5149  0.3001 -0.4723
61513SOL    HW294470  10.492   8.370   3.927 -0.8881  0.7106  0.8164
61514SOL     OW94471   5.445   7.092   5.377 -0.6716 -0.2946  0.3838
61514SOL    HW194472   5.361   7.049   5.393 -1.6849  0.7200 -1.7044
61514SOL    HW294473   5.477   7.053   5.296  0.1700  0.3305  0.3972
61515SOL     OW94474   2.267   4.432   9.106 -0.4332 -0.1878 -0.2917
61515SOL    HW194475   2.242   4.349   9.065 -1.9851  0.9618 -1.8180
61515SOL    HW294476   2.213   4.437   9.185 -1.4486  0.0329 -0.9869
61516SOL     OW94477   8.111   8.532   4.912 -1.2426  0.1979 -0.2605
61516SOL    HW194478   8.070   8.611   4.877 -2.4469 -0.3898 -0.2522
61516SOL    HW294479   8.112   8.471   4.838 -2.0140 -0.3909  0.2043
61517SOL     OW94480   9.344   8.485   2.975  0.3948  0.5345 -0.4321
61517SOL    HW194481   9.292   8.519   3.048  1.1917  1.5688 -0.3280
61517SOL    HW294482   9.282   8.433   2.924 -0.3936  0.5541  0.4709
61518SOL     OW94483   8.921  10.456   5.531  0.2264  0.6087 -0.6408
61518SOL    HW194484   8.990  10.450   5.597  0.5964  0.1625 -1.0641
61518SOL    HW294485   8.949  10.398   5.461 -0.7301  0.1685 -0.6810
61519SOL     OW94486   7.891   2.790   2.920 -0.3575 -0.5392 -0.3553
61519SOL    HW194487   7.820   2.854   2.912 -0.2405 -0.3789 -0.0944
61519SOL    HW294488   7.970   2.842   2.930 -0.5309 -0.6863  2.5755
61520SOL     OW94489   0.477   7.525   1.979  1.1213 -0.3325  0.5308
61520SOL    HW194490   0.395   7.516   2.028  0.8837 -1.5119 -0.0641
61520SOL    HW294491   0.531   7.452   2.008  1.8776  0.2890  0.7241
61521SOL     OW94492   5.255  12.490   6.225  0.2405  0.0236  0.3732
61521SOL    HW194493   5.287  12.548   6.293  1.0979  1.1728 -0.9603
61521SOL    HW294494   5.184  12.441   6.267  0.5866  0.8509  2.0048
61522SOL     OW94495   6.412   7.520   8.731 -0.1439  0.1418 -0.4556
61522SOL    HW194496   6.407   7.614   8.750 -0.8334  0.2600 -1.2044
61522SOL    HW294497   6.432   7.480   8.816 -0.1610  0.9351 -0.0678
61523SOL     OW94498   6.756   3.662   9.398  0.1563  0.1638 -0.3631
61523SOL    HW194499   6.811   3.591   9.430 -0.2003  0.5345  1.1407
61523SOL    HW294500   6.817   3.728   9.367  0.5575  0.3965  0.9039
61524SOL     OW94501  10.075   8.473   2.438 -0.3446  0.1801 -0.3574
61524SOL    HW194502  10.085   8.544   2.375  1.4972  2.5753  2.3937
61524SOL    HW294503  10.156   8.423   2.430  0.8719  1.7412  1.3991
61525SOL     OW94504   3.754   0.428  10.539  0.5763  0.0035 -0.1657
61525SOL    HW194505   3.677   0.372  10.537 -1.0831  2.1403  0.4338
61525SOL    HW294506   3.819   0.377  10.588 -1.3795 -0.7817  1.7901
61526SOL     OW94507   4.641  10.374  11.936  0.1759  0.2749 -0.1418
61526SOL    HW194508   4.734  10.371  11.912 -0.0922 -2.3535 -1.1452
61526SOL    HW294509   4.640  10.348  12.029  0.4789  0.8654  0.0301
61527SOL     OW94510   8.655   7.166   3.409  0.1488  0.4039  0.0881
61527SOL    HW194511   8.673   7.260   3.421  1.0003  0.6213 -2.2736
61527SOL    HW294512   8.571   7.164   3.363  0.6626  0.0914 -0.8564
61528SOL     OW94513   0.154  11.082   3.769 -0.5244 -0.6022 -0.0358
61528SOL    HW194514   0.097  11.142   3.721 -1.9498 -1.4252  0.5407
61528SOL    HW294515   0.221  11.138   3.807 -0.6376  0.3400 -1.1595
61529SOL     OW94516  10.742   3.078   2.545 -0.0949  0.3744 -0.1702
61529SOL    HW194517  10.669   3.077   2.483  0.3711 -1.5293 -0.7541
61529SOL    HW294518  10.707   3.125   2.621 -2.5129 -1.8106  0.2057
61530SOL     OW94519   2.969  12.119  12.078 -0.3847 -0.1964 -0.3672
61530SOL    HW194520   2.933  12.048  12.130 -0.3175  0.0294 -0.0114
61530SOL    HW294521   2.930  12.199  12.114 -0.7897 -0.0800 -1.0370
61531SOL     OW94522   1.996   2.293   4.051 -0.5614  0.2525  0.1496
61531SOL    HW194523   2.039   2.208   4.053  1.0489  0.9885 -0.8647
61531SOL    HW294524   2.051   2.349   4.106 -1.7092  0.6059  0.9678
61532SOL     OW94525   3.901   1.093   3.988 -0.2623 -0.5382  0.2165
61532SOL    HW194526   3.922   1.069   3.898 -0.3920  0.2313 -0.0288
61532SOL    HW294527   3.946   1.176   4.002 -1.4584  0.1138  0.3461
61533SOL     OW94528   2.001  11.846   9.430  0.4650  0.0192 -0.2943
61533SOL    HW194529   1.974  11.821   9.341  0.7234 -1.0676 -0.0827
61533SOL    HW294530   1.919  11.859   9.477  0.3205  1.0343 -0.7924
61534SOL     OW94531  10.859  11.712   2.614  0.3827 -0.3668 -0.2168
61534SOL    HW194532  10.803  11.768   2.562  0.1270  0.2987  0.7413
61534SOL    HW294533  10.889  11.768   2.686 -0.1396 -1.5258  0.9579
61535SOL     OW94534   1.691   6.637   5.790  0.2216  0.1980 -0.4665
61535SOL    HW194535   1.743   6.710   5.822 -0.6898  0.3258  0.7936
61535SOL    HW294536   1.703   6.568   5.855  0.0335 -0.3108 -0.9598
61536SOL     OW94537   4.579   4.437   7.804 -1.1116 -0.2318  0.0093
61536SOL    HW194538   4.639   4.406   7.871 -0.5316  1.0446  0.1130
61536SOL    HW294539   4.528   4.360   7.779  1.6207 -1.7716 -1.2344
61537SOL     OW94540   3.743   9.019   4.751 -0.1011  0.4822  0.0734
61537SOL    HW194541   3.717   8.998   4.841  0.3891 -0.4385  0.0108
61537SOL    HW294542   3.742   9.115   4.747  1.0281  0.5736  1.4017
61538SOL     OW94543   8.285   9.820   5.478 -0.2942  0.5931 -0.3151
61538SOL    HW194544   8.252   9.906   5.506  0.4405  0.5916  0.6268
61538SOL    HW294545   8.362   9.841   5.425 -0.4642  0.5366 -0.5822
61539SOL     OW94546  13.036  10.215   0.650  0.3808  0.2878 -0.7130
61539SOL    HW194547  13.021  10.202   0.556  0.5260 -0.3476 -0.6536
61539SOL    HW294548  13.071  10.131   0.680 -0.2856  0.2681  0.0325
61540SOL     OW94549   8.864   5.398   3.009  0.1953 -0.1716 -0.2823
61540SOL    HW194550   8.806   5.332   3.048  1.5194 -1.1834  0.0269
61540SOL    HW294551   8.949   5.383   3.050  1.0623  0.2736 -1.8387
61541SOL     OW94552   5.553   1.696  11.310 -0.5024  0.2856  0.3253
61541SOL    HW194553   5.584   1.624  11.365  1.0961  0.4370 -0.3382
61541SOL    HW294554   5.527   1.654  11.228  1.8963  0.5650 -0.6492
61542SOL     OW94555   6.176   1.820   7.223  0.1374  0.5991 -0.3430
61542SOL    HW194556   6.162   1.725   7.216 -0.2707  0.6309  0.0404
61542SOL    HW294557   6.095   1.853   7.261 -0.2849  1.2817 -1.7472
61543SOL     OW94558   5.236   5.751  13.232 -0.2971 -0.0201 -0.5229
61543SOL    HW194559   5.273   5.712  13.153 -2.2933 -0.5509 -1.2805
61543SOL    HW294560   5.289   5.829  13.248  2.2043 -1.6610 -0.4452
61544SOL     OW94561  12.405   2.094   7.966 -0.2243  0.1393 -0.1970
61544SOL    HW194562  12.361   2.123   7.886  0.3058 -1.1212 -0.9635
61544SOL    HW294563  12.347   2.124   8.037 -2.1397 -1.0956 -1.1481
61545SOL     OW94564   2.168   4.852   8.972 -0.0653  0.0832  0.3850
61545SOL    HW194565   2.227   4.925   8.986  0.0095 -0.0569  0.8192
61545SOL    HW294566   2.171   4.836   8.878 -0.0117  0.5746  0.3010
61546SOL     OW94567   6.960   8.430   1.490  0.6916  0.8649 -0.0382
61546SOL    HW194568   6.974   8.456   1.398  2.5967 -2.9438 -1.0282
61546SOL    HW294569   7.046   8.400   1.519 -1.0133 -4.0225  0.7831
61547SOL     OW94570  12.992   3.627   6.983  0.1083 -0.0522 -0.0756
61547SOL    HW194571  12.913   3.588   6.947  0.5766 -1.0980 -0.0124
61547SOL    HW294572  12.961   3.695   7.043 -0.6946  1.3325 -1.9472
61548SOL     OW94573   6.293   9.646   0.641 -0.6104 -0.2741 -0.1594
61548SOL    HW194574   6.222   9.623   0.701  0.9299 -0.6249  1.6220
61548SOL    HW294575   6.258   9.624   0.554 -2.4081 -1.0890  0.7000
61549SOL     OW94576  11.071  10.643   8.088 -0.6235  0.3420  0.2376
61549SOL    HW194577  11.042  10.565   8.135  1.3298 -1.1429 -0.8720
61549SOL    HW294578  11.119  10.694   8.153  1.5947 -1.4274  0.1134
61550SOL     OW94579   7.200   8.843   1.271  0.0956  0.0377  0.1898
61550SOL    HW194580   7.105   8.829   1.274  0.1069 -0.4683 -1.0214
61550SOL    HW294581   7.228   8.796   1.192  1.3881  0.0079  0.6525
61551SOL     OW94582   4.994   2.356  13.151  0.1304 -0.1543 -0.0775
61551SOL    HW194583   4.898   2.360  13.159 -0.0895 -0.7433 -1.9296
61551SOL    HW294584   5.021   2.447  13.145 -0.1515  0.0856  1.6839
61552SOL     OW94585   3.880  10.304   5.454 -0.4123  0.1844 -0.0795
61552SOL    HW194586   3.943  10.342   5.515 -0.6207 -1.3279  1.1382
61552SOL    HW294587   3.933  10.266   5.384  0.1251 -1.5547  1.2093
61553SOL     OW94588  11.492  13.212   0.675  0.0795  0.1606 -0.5653
61553SOL    HW194589  11.409  13.253   0.696  0.0674  0.1375 -0.5671
61553SOL    HW294590  11.481  13.120   0.701  0.2751  0.2685 -0.1053
61554SOL     OW94591  12.587   5.032   6.214  0.0621 -0.7162 -0.2691
61554SOL    HW194592  12.515   5.064   6.160  0.9711  0.5079 -0.7970
61554SOL    HW294593  12.548   4.960   6.265 -1.4522 -0.2643 -0.7250
61555SOL     OW94594  13.062  10.278   3.717  0.2768 -0.0155  0.2910
61555SOL    HW194595  12.983  10.269   3.771  0.1057  0.9805  0.2267
61555SOL    HW294596  13.063  10.370   3.691  0.4825 -0.4152 -1.2268
61556SOL     OW94597   4.706  12.064  10.995 -0.3386 -0.0058 -0.0835
61556SOL    HW194598   4.762  12.041  11.070 -1.8119  0.9573  1.3732
61556SOL    HW294599   4.696  12.159  11.002 -0.0719  0.1734 -1.8554
61557SOL     OW94600   9.612   4.442  11.323 -0.1068  0.4113 -0.8024
61557SOL    HW194601   9.691   4.405  11.362 -0.1889  0.1135 -0.9103
61557SOL    HW294602   9.628   4.536  11.320 -0.3512  0.5194  0.5304
61558SOL     OW94603   2.595   3.144   7.070  0.0210  0.6267  0.2764
61558SOL    HW194604   2.505   3.178   7.065  0.2746  1.6988  2.2251
61558SOL    HW294605   2.650   3.220   7.051  0.5511  0.1640 -0.0740
61559SOL     OW94606  11.365   4.584   2.152  0.3352  0.5698  0.1090
61559SOL    HW194607  11.336   4.667   2.189  0.9821  0.4238  0.9965
61559SOL    HW294608  11.292   4.524   2.169  0.6147  0.5111  1.1615
61560SOL     OW94609   6.813  13.104   8.466  0.1229  0.1808  0.3218
61560SOL    HW194610   6.767  13.186   8.447 -0.2408  0.3611  1.8744
61560SOL    HW294611   6.802  13.091   8.560  0.2166 -1.6400  0.1148
61561SOL     OW94612   0.065  11.126   3.408 -0.2759 -0.1301  0.2214
61561SOL    HW194613  -0.001  11.194   3.396 -0.5302 -0.6488 -1.6109
61561SOL    HW294614   0.130  11.166   3.467 -1.4058  0.9471  0.7894
61562SOL     OW94615  13.267   9.267   6.327  0.2259  0.0601  0.1821
61562SOL    HW194616  13.175   9.264   6.354  0.2140 -0.8401  0.0569
61562SOL    HW294617  13.275   9.351   6.281  0.1341  1.4314  2.4732
61563SOL     OW94618   4.789  12.418   1.343 -0.1886  0.4411  0.0028
61563SOL    HW194619   4.759  12.455   1.426 -3.9320 -1.7093 -0.1664
61563SOL    HW294620   4.793  12.492   1.283  1.4123  1.8352  1.6909
61564SOL     OW94621   1.911   1.488   7.664 -0.2480  0.3100 -0.2154
61564SOL    HW194622   1.977   1.503   7.597 -1.0818  0.0072 -1.1166
61564SOL    HW294623   1.828   1.502   7.620 -0.8532 -1.0846  0.4327
61565SOL     OW94624   3.550   8.789  13.166 -0.4603 -0.2057 -0.0121
61565SOL    HW194625   3.481   8.757  13.108 -2.4861  0.4597  1.8887
61565SOL    HW294626   3.590   8.710  13.202 -0.9786 -0.6146 -0.3132
61566SOL     OW94627   4.120   5.277   5.354  0.1778  0.5153  0.3822
61566SOL    HW194628   4.062   5.352   5.360 -0.2222  0.2686 -0.2782
61566SOL    HW294629   4.168   5.277   5.437 -0.9025  0.6035  1.0298
61567SOL     OW94630   8.734   7.607  11.860  0.3696  0.2249  0.3698
61567SOL    HW194631   8.776   7.521  11.853  0.0802  0.0493  0.7258
61567SOL    HW294632   8.799   7.669  11.826  0.2879 -0.2077 -0.5875
61568SOL     OW94633   2.179  13.004   6.152  0.2109 -0.6195 -0.4686
61568SOL    HW194634   2.172  12.999   6.247 -1.4950  0.2320 -0.5072
61568SOL    HW294635   2.147  12.920   6.121 -1.5489 -0.0500 -0.3198
61569SOL     OW94636  10.732   5.842   9.258 -0.4039 -0.1473  0.5240
61569SOL    HW194637  10.712   5.760   9.303 -1.8623 -0.3201 -0.3755
61569SOL    HW294638  10.654   5.861   9.207  0.2045  1.4132  0.1109
61570SOL     OW94639  10.071  12.857   6.176  0.1408 -0.0182 -0.6246
61570SOL    HW194640  10.024  12.777   6.154 -0.1096  0.5718 -2.3452
61570SOL    HW294641  10.163  12.831   6.180 -0.1212 -0.8496  1.2177
61571SOL     OW94642   3.739   5.979   2.873 -0.0525 -0.5191  0.3388
61571SOL    HW194643   3.799   6.040   2.830 -0.8286 -0.3708 -0.5683
61571SOL    HW294644   3.674   6.035   2.916 -0.5562 -0.6951 -0.1849
61572SOL     OW94645   3.678   7.315   4.223  0.2486 -0.3492  0.1060
61572SOL    HW194646   3.652   7.321   4.131  0.2869 -3.2451 -0.1726
61572SOL    HW294647   3.757   7.370   4.229  0.4466 -0.3862 -1.6840
61573SOL     OW94648   5.851  11.015   5.151 -0.3887  0.4289 -0.3229
61573SOL    HW194649   5.899  11.077   5.206  0.0605  0.0411 -0.2705
61573SOL    HW294650   5.855  10.932   5.199 -0.4497  0.2128 -0.6876
61574SOL     OW94651   6.422   4.705   9.958  0.0137  0.0080 -0.4396
61574SOL    HW194652   6.423   4.651   9.879  0.9238  0.6705 -0.8977
61574SOL    HW294653   6.488   4.772   9.942 -0.8022  1.0200  0.2919
61575SOL     OW94654   5.753  10.854   4.114 -0.2474  0.5787 -0.5295
61575SOL    HW194655   5.689  10.915   4.076 -0.6820  0.1409 -0.5003
61575SOL    HW294656   5.828  10.910   4.134  0.2937  0.7076 -2.6989
61576SOL     OW94657  12.732   4.163  12.963  0.2095  0.2150 -0.0489
61576SOL    HW194658  12.780   4.188  13.042  0.3856  0.5334 -0.2569
61576SOL    HW294659  12.665   4.103  12.994  0.3063  0.3072  0.3407
61577SOL     OW94660   2.566   6.103   9.453 -0.3564 -0.1680 -0.1458
61577SOL    HW194661   2.538   6.049   9.527 -0.9061 -0.5438 -0.6185
61577SOL    HW294662   2.659   6.119   9.469 -0.0575 -1.6666 -0.2349
61578SOL     OW94663  10.878   6.058   9.257 -0.0086  0.2206  0.3133
61578SOL    HW194664  10.829   6.109   9.193  0.3318 -0.3140 -0.3914
61578SOL    HW294665  10.843   5.969   9.248  1.4404 -0.2812 -0.5845
61579SOL     OW94666   0.900   8.291  11.598 -0.3904 -0.0922 -0.1293
61579SOL    HW194667   0.935   8.379  11.606 -0.1102 -0.1669 -0.4979
61579SOL    HW294668   0.810   8.298  11.632 -0.1963  0.2113  0.3298
61580SOL     OW94669  11.857   5.802   2.440 -0.2092  0.6956  0.5567
61580SOL    HW194670  11.866   5.713   2.475  0.0105 -0.3885 -2.0004
61580SOL    HW294671  11.763   5.814   2.429 -0.2288  0.7252  0.7551
61581SOL     OW94672  13.124  12.572  12.952  0.0739  0.3469  0.1933
61581SOL    HW194673  13.041  12.602  12.990 -0.6601  0.5252 -1.4441
61581SOL    HW294674  13.114  12.589  12.858  1.1142 -1.6256 -0.3170
61582SOL     OW94675   5.743  10.071   6.623  0.3093  0.1204  0.3905
61582SOL    HW194676   5.653  10.042   6.632 -0.5313  2.4001 -0.1648
61582SOL    HW294677   5.773  10.084   6.714 -0.1245 -0.0282  0.5568
61583SOL     OW94678   4.457   2.325  10.765  0.1468 -0.0616 -0.2585
61583SOL    HW194679   4.453   2.404  10.819  0.3973 -0.9240  1.0577
61583SOL    HW294680   4.436   2.253  10.825  1.0719 -1.1147 -1.1469
61584SOL     OW94681   2.107   1.648   8.780  0.1157  0.2470 -0.1883
61584SOL    HW194682   2.023   1.693   8.789 -0.2453 -0.0098 -1.8615
61584SOL    HW294683   2.171   1.718   8.777 -0.1705  0.5132 -0.1403
61585SOL     OW94684  10.965   0.361   5.628 -0.2763  0.1192  0.2140
61585SOL    HW194685  10.906   0.308   5.680  1.1701 -2.1300 -0.3106
61585SOL    HW294686  10.966   0.446   5.672 -2.6354 -0.2467  1.1163
61586SOL     OW94687   8.806  10.332   2.912  0.0236  0.0194  0.0439
61586SOL    HW194688   8.870  10.377   2.857 -0.0761  0.3470  0.1897
61586SOL    HW294689   8.855  10.261   2.954  0.4648  0.6887  0.6850
61587SOL     OW94690   0.713  11.591   2.390  0.5789  0.0531  0.2574
61587SOL    HW194691   0.636  11.647   2.379 -1.1461 -2.2496 -0.2298
61587SOL    HW294692   0.724  11.583   2.485 -1.4021 -1.5410  0.4235
61588SOL     OW94693   6.399   7.886   9.348  0.1388  0.7226 -0.0832
61588SOL    HW194694   6.458   7.949   9.306  2.0394 -1.5422 -0.9954
61588SOL    HW294695   6.450   7.849   9.419 -0.2406 -1.0829 -0.7012
61589SOL     OW94696   1.545   8.693   0.378 -0.2326 -0.2408  0.3713
61589SOL    HW194697   1.625   8.643   0.361  0.1967 -0.0995  1.7670
61589SOL    HW294698   1.564   8.780   0.343  0.7585  0.1561  1.7922
61590SOL     OW94699  13.064  12.270   0.257 -0.4201  1.0437 -0.3157
61590SOL    HW194700  13.057  12.362   0.283 -0.3953  2.0175 -3.3932
61590SOL    HW294701  13.114  12.229   0.327 -2.4986  2.7783  2.3904
61591SOL     OW94702   2.866   5.086   6.220  0.1221  0.7164 -0.2038
61591SOL    HW194703   2.873   4.999   6.181 -2.1620  0.0258  0.7616
61591SOL    HW294704   2.910   5.144   6.158  1.0790 -1.0114 -1.2059
61592SOL     OW94705   8.348   3.189   5.577  0.5251 -0.5427  0.2105
61592SOL    HW194706   8.303   3.205   5.494 -0.1204  0.6715  0.7732
61592SOL    HW294707   8.429   3.144   5.551 -0.6876 -2.2296 -0.8665
61593SOL     OW94708   8.099   9.361   9.147 -0.2360 -0.1313 -0.1393
61593SOL    HW194709   8.011   9.396   9.140 -0.2371  0.1898  1.1503
61593SOL    HW294710   8.116   9.358   9.241  1.6932  1.3094 -0.3768
61594SOL     OW94711  10.394   7.789   5.128  0.3509  0.0935  0.9508
61594SOL    HW194712  10.363   7.861   5.183 -0.5899  0.5248 -0.1095
61594SOL    HW294713  10.335   7.716   5.147 -0.2357  0.3698  0.2309
61595SOL     OW94714  11.878   4.060   5.951 -0.4197  0.0844  0.0775
61595SOL    HW194715  11.930   4.030   6.025 -0.8806  0.8438  0.7180
61595SOL    HW294716  11.942   4.068   5.879  0.2266  0.3558  0.6686
61596SOL     OW94717  12.901  13.006  10.230  0.1115 -0.4486  0.1575
61596SOL    HW194718  12.995  13.023  10.241 -0.0660 -0.3142  1.8150
61596SOL    HW294719  12.865  13.090  10.202  0.5484 -0.6377 -1.0129
61597SOL     OW94720   3.624  11.890   7.049 -0.1147 -0.4209 -0.7936
61597SOL    HW194721   3.569  11.918   7.123  2.3275  0.6932  0.7204
61597SOL    HW294722   3.605  11.797   7.038  0.5954 -1.0293  2.3502
61598SOL     OW94723   8.800   3.067   7.996  0.8871 -0.1408 -0.5349
61598SOL    HW194724   8.714   3.032   7.974  0.2016  2.4751 -2.6338
61598SOL    HW294725   8.842   2.998   8.046 -1.9211 -2.0506 -0.5690
61599SOL     OW94726   0.203   4.263  12.010 -0.3460 -0.0409  0.0682
61599SOL    HW194727   0.142   4.330  12.041 -0.9314  0.2214 -1.5909
61599SOL    HW294728   0.147   4.188  11.988  0.0418 -0.1740 -0.4695
61600SOL     OW94729   3.920  12.751   7.578 -0.2356 -0.3074 -0.3199
61600SOL    HW194730   3.970  12.780   7.501  0.6289  1.1200  0.7279
61600SOL    HW294731   3.863  12.682   7.545  1.3351 -0.9261 -1.8898
61601SOL     OW94732   1.275   4.016   6.396 -0.0246  0.5437  0.2382
61601SOL    HW194733   1.355   4.031   6.446 -0.0963  1.4405  0.1138
61601SOL    HW294734   1.305   4.003   6.306 -0.0064  0.7432  0.2146
61602SOL     OW94735   6.124  10.064   3.036  0.0126  0.0073  0.1964
61602SOL    HW194736   6.212  10.031   3.053 -0.8742 -1.9297  1.2303
61602SOL    HW294737   6.137  10.156   3.013  2.5196 -0.7840 -2.0151
61603SOL     OW94738  13.057   8.055   8.875  0.1707 -0.3930  0.4511
61603SOL    HW194739  13.017   7.980   8.832  0.1221 -0.3899  0.4912
61603SOL    HW294740  13.092   8.020   8.957 -0.1440 -0.3041  0.6235
61604SOL     OW94741   8.338   1.513   4.297  0.3535  0.1767  0.4207
61604SOL    HW194742   8.243   1.501   4.303  0.3942  0.4533  2.3496
61604SOL    HW294743   8.355   1.593   4.347  1.6955 -0.5095  1.1216
61605SOL     OW94744  10.629   3.553   3.533  0.0173 -0.4540  0.0148
61605SOL    HW194745  10.585   3.592   3.457  0.7163  0.1365 -0.0952
61605SOL    HW294746  10.612   3.614   3.605  0.4171 -0.3615  0.0342
61606SOL     OW94747   4.891  12.109   9.357 -0.5618  0.0969  0.1465
61606SOL    HW194748   4.813  12.059   9.333 -0.7509  0.0975  0.7398
61606SOL    HW294749   4.867  12.152   9.439  0.4893 -0.9335  1.0418
61607SOL     OW94750  13.199   6.361  10.132  0.2874 -0.3109  0.4992
61607SOL    HW194751  13.221   6.394  10.219 -1.4516 -1.1062  1.2999
61607SOL    HW294752  13.232   6.272  10.131  1.0959 -0.0175 -0.0184
61608SOL     OW94753  12.157   4.804   6.104  0.8252 -0.3314 -0.1085
61608SOL    HW194754  12.116   4.872   6.051 -0.5834  0.4312  1.8454
61608SOL    HW294755  12.186   4.738   6.041 -0.7411  0.5309 -1.8161
61609SOL     OW94756   3.842  12.733   0.878  0.2832 -0.1081  0.0114
61609SOL    HW194757   3.772  12.791   0.907  1.2352  1.0864 -0.0236
61609SOL    HW294758   3.800  12.677   0.812 -0.7795  0.1483  0.4407
61610SOL     OW94759   4.490  12.363   9.355 -0.2138  0.2588 -0.0219
61610SOL    HW194760   4.408  12.381   9.400 -0.1241  0.2165  0.1585
61610SOL    HW294761   4.557  12.374   9.421 -0.1916 -1.3033  0.2722
61611SOL     OW94762   3.831  12.068  10.646  0.3326 -0.2737 -0.0020
61611SOL    HW194763   3.919  12.032  10.639  0.6996  0.8030 -1.2113
61611SOL    HW294764   3.773  11.992  10.637  1.1158 -0.9052  0.2103
61612SOL     OW94765   4.352  10.408  12.857  0.4953 -0.1730 -0.6126
61612SOL    HW194766   4.257  10.393  12.851  0.9563 -3.3208 -2.0757
61612SOL    HW294767   4.360  10.498  12.889 -2.9662  0.4141 -0.9904
61613SOL     OW94768   7.868   6.603  10.625 -0.0711  0.7481 -0.5858
61613SOL    HW194769   7.793   6.660  10.609 -2.2389 -1.3733  1.1927
61613SOL    HW294770   7.900   6.629  10.711 -0.9446 -0.4492  0.1452
61614SOL     OW94771   3.307  12.834  11.214 -0.3853  0.0976 -0.0013
61614SOL    HW194772   3.261  12.898  11.268  0.9859  0.1461  1.1762
61614SOL    HW294773   3.394  12.872  11.200 -0.2712 -0.5193 -1.1643
61615SOL     OW94774   4.415  11.577   0.999  0.1437  0.3015  0.0184
61615SOL    HW194775   4.434  11.572   1.092 -0.0578  0.3859  0.0634
61615SOL    HW294776   4.347  11.643   0.991 -1.8931 -1.6590  0.1192
61616SOL     OW94777   3.254  12.080   2.673  0.0010 -1.0403  0.1062
61616SOL    HW194778   3.310  12.012   2.634 -0.3997 -0.7252 -1.0688
61616SOL    HW294779   3.311  12.156   2.682  0.3633 -1.4267  1.1070
61617SOL     OW94780   0.409   0.877   5.350 -0.1812 -0.0272  0.2573
61617SOL    HW194781   0.442   0.902   5.264 -1.0459 -1.3117 -0.4804
61617SOL    HW294782   0.474   0.816   5.384 -0.3316 -0.3056  0.0566
61618SOL     OW94783   3.724  12.597  13.254  0.2877  0.1500  0.5131
61618SOL    HW194784   3.801  12.631  13.210 -0.2044  0.4911 -0.0934
61618SOL    HW294785   3.756  12.521  13.303  0.7002 -0.7527 -1.0822
61619SOL     OW94786   0.810   8.014   2.535  0.0969  0.1320  0.0783
61619SOL    HW194787   0.885   8.013   2.475  0.0195  0.6570 -0.0366
61619SOL    HW294788   0.755   8.085   2.502  0.6549  1.2880  1.4917
61620SOL     OW94789   0.400   4.502   6.066 -0.1543  0.0751 -0.2173
61620SOL    HW194790   0.366   4.422   6.106  0.5149  0.0209  0.2576
61620SOL    HW294791   0.490   4.480   6.041  0.4063  0.9765  0.8644
61621SOL     OW94792   1.851  11.155   5.157  0.6871 -0.6194 -0.5387
61621SOL    HW194793   1.867  11.215   5.084 -1.3317  0.3076 -0.2697
61621SOL    HW294794   1.763  11.121   5.143 -0.6204  1.1225  2.4603
61622SOL     OW94795   8.510   0.306   6.272  0.3016  0.3518  0.0191
61622SOL    HW194796   8.473   0.223   6.303  1.1934 -0.4464 -0.9770
61622SOL    HW294797   8.448   0.372   6.303  0.7758 -0.4041  2.9296
61623SOL     OW94798   0.819   0.123   7.407 -0.0924  0.2600  0.0869
61623SOL    HW194799   0.838   0.041   7.361 -0.1532  1.5428 -2.3466
61623SOL    HW294800   0.850   0.107   7.496 -2.2556 -3.2505  0.4222
61624SOL     OW94801  10.374   6.754   8.147  0.2404  0.4152 -0.1501
61624SOL    HW194802  10.454   6.801   8.124 -1.1506  2.9909 -0.1008
61624SOL    HW294803  10.388   6.665   8.115  3.0972  0.7751 -0.1172
61625SOL     OW94804   0.365   5.811  13.163 -0.5572 -0.5324 -0.2080
61625SOL    HW194805   0.340   5.734  13.214 -1.1725 -0.1465  0.0835
61625SOL    HW294806   0.418   5.864  13.222 -1.7211  0.1767  0.2364
61626SOL     OW94807   7.121   8.584   2.799  0.2891  0.4353  0.4222
61626SOL    HW194808   7.161   8.660   2.757 -0.8409  1.1159  0.5175
61626SOL    HW294809   7.045   8.620   2.846  0.4806 -0.5628  1.5579
61627SOL     OW94810   6.098  11.025  13.182 -0.0104  0.2101  0.0136
61627SOL    HW194811   6.020  11.008  13.235  0.8513 -0.1858  1.1939
61627SOL    HW294812   6.064  11.039  13.093 -1.3814 -0.3238  0.4277
61628SOL     OW94813   9.506   2.528   3.587 -0.2608  0.6549  0.0116
61628SOL    HW194814   9.574   2.565   3.530 -1.1829  0.8762 -0.9879
61628SOL    HW294815   9.545   2.529   3.674  0.6242  1.7827 -0.3639
61629SOL     OW94816  10.775   7.404   7.939  0.6046 -0.2377 -0.1274
61629SOL    HW194817  10.813   7.342   8.001  1.3690  1.5832  1.3497
61629SOL    HW294818  10.693   7.431   7.980  1.0627  0.9036  0.0833
61630SOL     OW94819   6.220   8.474   8.805  0.4945  0.0505 -0.2903
61630SOL    HW194820   6.232   8.414   8.878  1.5514  0.4939 -0.0827
61630SOL    HW294821   6.175   8.549   8.843 -1.3173 -0.7889 -0.6602
61631SOL     OW94822   7.858   9.890  12.754  0.3335  0.0474  0.1705
61631SOL    HW194823   7.934   9.881  12.696 -0.6271  0.5742 -1.2137
61631SOL    HW294824   7.895   9.883  12.843  1.8600 -0.6166 -0.4787
61632SOL     OW94825   2.492   6.952  10.162  0.0295  0.0221 -0.3289
61632SOL    HW194826   2.488   6.867  10.206 -0.1953  0.0868 -0.2232
61632SOL    HW294827   2.408   6.993  10.181 -0.0279  0.0978 -0.7317
61633SOL     OW94828   3.873   1.731  11.768 -0.4307 -0.2341 -0.3636
61633SOL    HW194829   3.867   1.717  11.862 -1.9650 -1.6551 -0.6299
61633SOL    HW294830   3.962   1.762  11.754  0.1304 -0.9014  1.4422
61634SOL     OW94831  12.199   7.347   8.089  0.5686 -0.4369 -0.5193
61634SOL    HW194832  12.181   7.260   8.055  2.2275 -1.4067  0.8599
61634SOL    HW294833  12.179   7.341   8.183  2.0993  0.1802 -0.1194
61635SOL     OW94834  12.321   8.756   7.013 -0.3974 -0.1044 -0.1158
61635SOL    HW194835  12.332   8.678   6.958 -0.5109 -0.9120  0.9743
61635SOL    HW294836  12.328   8.723   7.103 -0.9149  1.0770  0.3758
61636SOL     OW94837   4.845   1.805   2.583  0.1890 -0.1284  0.2813
61636SOL    HW194838   4.795   1.802   2.502  0.8417 -2.5939 -0.1076
61636SOL    HW294839   4.933   1.777   2.558  0.3745 -1.0802  1.8493
61637SOL     OW94840  11.206  11.912  12.148  0.6237 -0.2221 -0.2447
61637SOL    HW194841  11.117  11.948  12.139  0.3802 -0.8706 -0.5030
61637SOL    HW294842  11.227  11.924  12.241  0.2444 -0.1190 -0.1697
61638SOL     OW94843  10.842   5.159   1.069  1.1186  0.0721 -0.1013
61638SOL    HW194844  10.861   5.065   1.071  1.1107  0.0807  2.3301
61638SOL    HW294845  10.912   5.198   1.121  1.9468  1.6369 -2.2409
61639SOL     OW94846   8.270   8.971  10.584  0.5591 -0.2326  0.5721
61639SOL    HW194847   8.247   9.062  10.601  1.2124 -0.3999  2.5238
61639SOL    HW294848   8.195   8.921  10.615  1.4520 -0.5038  2.3844
61640SOL     OW94849   1.505   5.430   7.161 -0.0904  0.5775 -0.9617
61640SOL    HW194850   1.472   5.347   7.126  1.1996 -0.2884 -0.2063
61640SOL    HW294851   1.518   5.413   7.254  0.4574  1.5576 -0.8495
61641SOL     OW94852   0.186   7.669   1.232 -0.3009  0.3778 -0.0019
61641SOL    HW194853   0.266   7.647   1.186  1.1223  1.4350  1.8308
61641SOL    HW294854   0.203   7.645   1.323 -2.8031 -1.1791  0.1571
61642SOL     OW94855   6.048   1.190   8.087 -0.0657  0.2483 -0.4784
61642SOL    HW194856   5.961   1.166   8.058 -0.1287 -2.1963  1.4143
61642SOL    HW294857   6.087   1.235   8.012 -2.2636 -0.2809 -2.0229
61643SOL     OW94858   7.079   5.239   4.800  0.1212  0.0384  0.5866
61643SOL    HW194859   7.124   5.308   4.750  0.0889 -0.5469 -0.2722
61643SOL    HW294860   6.993   5.276   4.820  0.1416  0.2939  0.2173
61644SOL     OW94861   8.141  11.230   9.169  0.0900  0.3403  0.4711
61644SOL    HW194862   8.236  11.223   9.173 -0.0075 -1.2014  4.1451
61644SOL    HW294863   8.122  11.317   9.204  0.0857  0.7299 -0.4536
61645SOL     OW94864   1.286  12.025   0.008 -0.6781  0.3018 -0.2227
61645SOL    HW194865   1.334  12.073  -0.059 -3.5814  1.5600 -1.5756
61645SOL    HW294866   1.289  12.082   0.085  0.9738 -0.2331  0.1541
61646SOL     OW94867   7.635   2.927  11.805  0.0746  0.9474 -0.2190
61646SOL    HW194868   7.727   2.905  11.823  0.1481  1.3157 -0.1338
61646SOL    HW294869   7.586   2.880  11.872  0.2852  1.6134  0.4142
61647SOL     OW94870   6.847   0.056   5.023  0.7443 -0.6984 -0.6952
61647SOL    HW194871   6.875  -0.013   5.083  0.1189 -0.0037  0.4291
61647SOL    HW294872   6.915   0.124   5.032 -1.2447  1.1172  2.2566
61648SOL     OW94873   2.000   5.692  11.402  0.3719 -0.2776  0.8820
61648SOL    HW194874   2.055   5.696  11.480  3.0544 -0.9177 -0.8450
61648SOL    HW294875   2.008   5.602  11.371  1.6507  0.5641 -1.5668
61649SOL     OW94876  12.585   0.296   3.899 -0.5675  0.2104 -0.0924
61649SOL    HW194877  12.628   0.357   3.959 -0.8737 -0.6128  0.9853
61649SOL    HW294878  12.535   0.353   3.840 -0.5929  1.0187  0.6810
61650SOL     OW94879   1.053   8.723   7.085  0.1252  0.0014  0.3935
61650SOL    HW194880   1.094   8.675   7.157 -0.6785  0.4275  1.1593
61650SOL    HW294881   0.969   8.679   7.072 -0.9025  1.5118  1.5183
61651SOL     OW94882   2.720  10.517   2.268  0.3041  0.1993 -1.0228
61651SOL    HW194883   2.742  10.490   2.178  1.4843 -0.2910 -0.6060
61651SOL    HW294884   2.805  10.535   2.309 -0.2302  0.4941 -0.0222
61652SOL     OW94885   9.336   7.650   5.150 -0.5627 -0.5665  0.3059
61652SOL    HW194886   9.336   7.738   5.113  3.0956 -0.5810 -0.0449
61652SOL    HW294887   9.306   7.662   5.240 -2.9993  0.4711 -0.5360
61653SOL     OW94888   3.920   1.784   5.731  0.0899  0.5890  0.2158
61653SOL    HW194889   3.913   1.781   5.826  2.3061  0.2397  0.4214
61653SOL    HW294890   3.892   1.873   5.708 -0.9205  0.5214  1.1313
61654SOL     OW94891   4.839  13.148   8.628  0.1660  0.5798 -0.3329
61654SOL    HW194892   4.860  13.090   8.701  1.0317  1.6616  0.3022
61654SOL    HW294893   4.828  13.234   8.668  2.2696  1.5406 -1.6266
61655SOL     OW94894   5.052  11.969   1.066  0.4805  0.4245  0.3001
61655SOL    HW194895   5.088  12.031   1.130  0.5287 -0.1261  0.8112
61655SOL    HW294896   4.957  11.975   1.077  0.4570  0.8215 -0.0557
61656SOL     OW94897  10.047   4.394   1.382  0.1493 -0.1459 -0.1531
61656SOL    HW194898  10.018   4.406   1.291 -0.1767 -0.2215 -0.0614
61656SOL    HW294899  10.099   4.472   1.400 -2.0478  1.2709  0.4672
61657SOL     OW94900   1.382   3.401   6.207 -0.6039  0.2374 -0.4304
61657SOL    HW194901   1.326   3.473   6.236  1.2554  0.6515  2.5515
61657SOL    HW294902   1.410   3.426   6.119 -1.1234  2.4981 -0.0092
61658SOL     OW94903   5.589   1.394  12.546  0.0308 -0.7026 -0.2204
61658SOL    HW194904   5.614   1.307  12.517  0.5923 -0.5202 -0.2907
61658SOL    HW294905   5.646   1.453  12.497  2.3474 -0.4546  2.5358
61659SOL     OW94906   9.463   8.989   4.745  0.1792  0.2956  0.1127
61659SOL    HW194907   9.488   9.013   4.656 -2.0687  0.5671 -0.5192
61659SOL    HW294908   9.404   8.914   4.734  1.5804 -1.0951  1.5650
61660SOL     OW94909  12.522   5.404  12.140 -1.0198 -0.0876  0.1444
61660SOL    HW194910  12.598   5.451  12.175 -0.8993 -0.5501  0.5175
61660SOL    HW294911  12.498   5.452  12.061 -0.4390  0.1567  0.1118
61661SOL     OW94912   3.729   2.958   5.926  0.0834  0.1821 -1.0389
61661SOL    HW194913   3.777   2.942   6.007  1.9566  2.0078 -1.7055
61661SOL    HW294914   3.639   2.973   5.955  0.2088 -1.4984  0.4270
61662SOL     OW94915   7.993   9.819  12.518 -0.4040  0.2340 -0.0518
61662SOL    HW194916   8.064   9.852  12.463 -0.8478 -0.3511 -1.0042
61662SOL    HW294917   7.917   9.869  12.490 -0.6125 -0.0045  0.0917
61663SOL     OW94918  12.559   1.706   3.424 -1.1552 -0.1749  0.3270
61663SOL    HW194919  12.516   1.633   3.380  0.9141 -1.3236  0.1088
61663SOL    HW294920  12.525   1.784   3.379 -1.8994 -1.0948 -0.7767
61664SOL     OW94921   8.908   9.619   3.230  0.2560  0.2963  0.2654
61664SOL    HW194922   8.997   9.638   3.200  0.0496  0.3573 -0.3392
61664SOL    HW294923   8.918   9.543   3.288  0.5658 -0.4964 -0.7844
61665SOL     OW94924   7.670  10.777  12.365 -0.2497  0.7459  0.1010
61665SOL    HW194925   7.601  10.815  12.419  1.0098  2.2759  0.6829
61665SOL    HW294926   7.659  10.817  12.279  0.7773  2.1389  0.5849
61666SOL     OW94927   9.500   6.276  10.435 -0.2548 -0.2176 -0.2845
61666SOL    HW194928   9.526   6.240  10.520 -0.0094  0.5584 -0.0201
61666SOL    HW294929   9.425   6.332  10.456  0.3712  0.7010 -0.4274
61667SOL     OW94930  11.531   3.776   0.421  0.3181  0.5235  0.4685
61667SOL    HW194931  11.566   3.766   0.509  1.4250  0.4580  0.0454
61667SOL    HW294932  11.493   3.864   0.420  0.7630  0.7209  0.8591
61668SOL     OW94933   8.049  10.630   4.135  0.3046  0.2399  0.0207
61668SOL    HW194934   8.082  10.544   4.161  2.0587  0.7523 -0.4041
61668SOL    HW294935   7.985  10.611   4.066  0.4411 -0.7413  0.1568
61669SOL     OW94936   8.219   2.879   3.839 -0.2851  0.0254  0.1046
61669SOL    HW194937   8.242   2.859   3.930 -1.2779 -0.9526  0.1646
61669SOL    HW294938   8.188   2.796   3.803 -1.2895  0.7123 -0.6855
61670SOL     OW94939  10.722  10.937  12.778  0.8031 -0.0726  0.0358
61670SOL    HW194940  10.666  10.964  12.706  1.1359  0.2792 -0.1008
61670SOL    HW294941  10.751  11.020  12.818 -2.0936 -0.1999  2.7650
61671SOL     OW94942   0.280  12.094   1.673  0.6873  0.6704  0.1406
61671SOL    HW194943   0.201  12.073   1.623  0.9701  1.8169 -0.8252
61671SOL    HW294944   0.345  12.030   1.643 -0.1555 -1.1099  1.8520
61672SOL     OW94945   3.447   1.012  13.265 -0.6479  1.1723  1.1381
61672SOL    HW194946   3.497   0.943  13.220  0.0608  2.3755  0.0086
61672SOL    HW294947   3.513   1.063  13.311 -1.3457  0.1127  3.4226
61673SOL     OW94948   7.242  13.093   5.423  0.1201  0.0495 -0.9869
61673SOL    HW194949   7.224  13.181   5.455  0.5139  1.1093 -3.4526
61673SOL    HW294950   7.251  13.040   5.503 -0.4263  2.1390  0.5606
61674SOL     OW94951   2.418  10.122   7.015 -0.6236 -0.3414 -0.2176
61674SOL    HW194952   2.478  10.048   7.021 -0.6924 -0.5518 -1.7113
61674SOL    HW294953   2.475  10.198   6.999 -0.5877 -0.1281  0.8614
61675SOL     OW94954   3.716   5.401   8.852  0.5304 -0.3327  0.4614
61675SOL    HW194955   3.762   5.484   8.843 -0.2407  0.0707  0.1712
61675SOL    HW294956   3.624   5.425   8.863  0.4691 -1.1026  1.7753
61676SOL     OW94957   8.267   5.927  10.793 -0.3037 -0.4976 -0.2275
61676SOL    HW194958   8.288   5.891  10.879 -1.1622 -0.5035 -0.0074
61676SOL    HW294959   8.171   5.928  10.790 -0.2935  0.4439 -0.7871
61677SOL     OW94960  12.971   9.170   0.052 -0.4624  0.1464 -0.0375
61677SOL    HW194961  12.891   9.154   0.102  0.5756  1.4917  2.1938
61677SOL    HW294962  13.042   9.150   0.113  0.8991  1.2279 -1.1841
61678SOL     OW94963   2.061  10.976   2.640  0.6010 -0.5607 -0.3111
61678SOL    HW194964   2.156  10.989   2.639  0.4933  0.4226  0.2341
61678SOL    HW294965   2.025  11.065   2.640 -0.2714 -0.8563  1.4784
61679SOL     OW94966   5.247   7.794   6.040  0.6499  0.4976 -0.6672
61679SOL    HW194967   5.215   7.705   6.053  2.6712 -0.0740  0.9192
61679SOL    HW294968   5.230   7.838   6.123 -2.3568  2.3877 -2.1002
61680SOL     OW94969   6.029  11.476   0.103 -0.5467 -0.1231 -0.0698
61680SOL    HW194970   6.034  11.461   0.198  0.9686 -0.1958 -0.1250
61680SOL    HW294971   5.942  11.512   0.088 -1.1656 -1.0242  1.2225
61681SOL     OW94972  13.098   3.257   6.015 -0.1053 -0.8079 -0.4860
61681SOL    HW194973  13.131   3.344   6.035 -1.7029  0.3378 -2.5202
61681SOL    HW294974  13.158   3.222   5.949 -0.2902 -0.6494 -0.7382
61682SOL     OW94975   8.684  12.450   9.517 -0.0717 -0.0960  0.0572
61682SOL    HW194976   8.616  12.384   9.532  0.7229 -1.1220 -0.7980
61682SOL    HW294977   8.756  12.423   9.574  0.5167 -0.3732 -0.8006
61683SOL     OW94978  12.352  11.514   1.955 -0.0693 -0.0378 -0.8513
61683SOL    HW194979  12.383  11.461   1.881  1.2190  0.4924 -0.7033
61683SOL    HW294980  12.293  11.456   2.003 -1.2243 -0.2982 -2.4625
61684SOL     OW94981   5.912  12.095   1.687 -0.2808  0.1735  0.1877
61684SOL    HW194982   5.963  12.144   1.752  1.4159  0.2329 -1.1304
61684SOL    HW294983   5.833  12.147   1.675 -1.0964 -0.2927  2.8174
61685SOL     OW94984   2.519   9.483   4.559  0.1724  0.0862 -0.1359
61685SOL    HW194985   2.477   9.568   4.572 -1.8675 -1.1001  1.7670
61685SOL    HW294986   2.585   9.478   4.628  1.7304  0.8785 -1.5023
61686SOL     OW94987   7.217   7.275  11.241 -0.1157  0.2625 -0.6630
61686SOL    HW194988   7.283   7.230  11.188 -0.4713 -1.3688  0.1958
61686SOL    HW294989   7.144   7.213  11.246 -0.0351  0.2785  1.8108
61687SOL     OW94990   2.132   1.847   8.180  0.5533  0.3108 -0.1214
61687SOL    HW194991   2.118   1.816   8.269  0.2506 -0.5943 -0.4675
61687SOL    HW294992   2.177   1.931   8.190 -1.1420  1.1519  0.9262
61688SOL     OW94993   8.615   1.858  12.718 -0.6700  0.1448  0.1085
61688SOL    HW194994   8.531   1.814  12.731  0.0985 -1.7857 -1.0883
61688SOL    HW294995   8.636   1.894  12.805 -2.5291  0.3843  0.5145
61689SOL     OW94996  12.501   0.029   5.839  0.2823  0.3133 -0.3628
61689SOL    HW194997  12.419  -0.015   5.861  2.1392 -2.2770  2.1731
61689SOL    HW294998  12.524  -0.004   5.752  0.4491 -2.0943  0.5199
61690SOL     OW94999   3.238   6.867   2.361  0.0955  0.1330  0.2445
61690SOL    HW195000   3.319   6.820   2.342 -0.1112 -0.3985  0.6556
61690SOL    HW295001   3.221   6.918   2.282  0.0370 -0.8918 -0.4229
61691SOL     OW95002  11.843   9.596  12.493 -0.0964 -0.8002  0.5122
61691SOL    HW195003  11.860   9.689  12.473  0.3355 -0.8941  0.4122
61691SOL    HW295004  11.834   9.555  12.407  2.7720 -1.3898  0.3919
61692SOL     OW95005   5.024  10.775   7.139  0.7199 -0.0121 -0.0992
61692SOL    HW195006   4.966  10.834   7.186 -1.2963 -0.7602 -1.4973
61692SOL    HW295007   5.101  10.767   7.195  0.0448  2.0385  1.2300
61693SOL     OW95008  12.220   6.298   8.272 -0.3180  0.1514 -0.4346
61693SOL    HW195009  12.145   6.357   8.263 -0.9162 -0.7299 -1.5384
61693SOL    HW295010  12.185   6.212   8.251  0.4409 -0.6963  1.5579
61694SOL     OW95011   3.837   3.245   8.940 -0.1784 -0.3294 -0.5823
61694SOL    HW195012   3.850   3.209   8.852  1.0538 -0.0257 -0.5394
61694SOL    HW295013   3.907   3.309   8.951 -0.2697 -0.4087  0.6513
61695SOL     OW95014   9.481   7.832  10.472  0.1243  0.1844 -0.0531
61695SOL    HW195015   9.396   7.875  10.480 -0.1192 -0.3395  0.1887
61695SOL    HW295016   9.463   7.739  10.486  0.7849  0.1048  0.3136
61696SOL     OW95017   5.427   5.532   2.586 -0.4097 -0.3306  0.0061
61696SOL    HW195018   5.392   5.615   2.554  0.3270 -0.2256 -0.5577
61696SOL    HW295019   5.499   5.557   2.645 -1.0629 -0.5477  0.9196
61697SOL     OW95020   8.534  10.146   1.460  0.0347  0.6869 -0.0614
61697SOL    HW195021   8.565  10.106   1.542 -0.7679 -0.5302 -0.3367
61697SOL    HW295022   8.610  10.141   1.402  0.5227  1.2961  0.5046
61698SOL     OW95023   5.080  10.233   3.890 -0.2969 -0.4452 -0.1149
61698SOL    HW195024   5.000  10.183   3.876 -0.2657 -0.4550 -0.2590
61698SOL    HW295025   5.097  10.226   3.984 -0.5982 -0.2420 -0.0449
61699SOL     OW95026   6.640   5.391   4.753 -0.3253  0.2223  0.2490
61699SOL    HW195027   6.562   5.367   4.802 -0.2157  0.9527  0.7983
61699SOL    HW295028   6.688   5.310   4.743 -1.3726 -0.3305 -0.4958
61700SOL     OW95029   6.301   4.333  10.957 -0.3088  0.2061  0.0599
61700SOL    HW195030   6.326   4.295  11.041 -1.5467  0.7238  0.6879
61700SOL    HW295031   6.210   4.360  10.969 -1.0294 -1.1575 -1.9695
61701SOL     OW95032   2.445  12.184  10.342  0.1508 -0.5772  0.0093
61701SOL    HW195033   2.533  12.177  10.305  0.8345 -0.3425  1.5107
61701SOL    HW295034   2.408  12.262  10.300  1.1659  0.0921  0.3214
61702SOL     OW95035   6.425   4.219  12.176  0.5001  0.4899 -0.2041
61702SOL    HW195036   6.369   4.292  12.150 -0.1935 -0.5112 -1.6610
61702SOL    HW295037   6.365   4.158  12.220  0.8035  0.1900 -0.2037
61703SOL     OW95038   0.788   2.967   3.242 -0.5758  0.1811 -0.0102
61703SOL    HW195039   0.823   3.009   3.321  0.1686  0.2825 -0.3841
61703SOL    HW295040   0.786   3.036   3.177 -3.8870  0.8576  0.6412
61704SOL     OW95041  11.212   4.349   3.451 -0.0428 -0.0400 -0.0695
61704SOL    HW195042  11.288   4.388   3.409 -0.2213 -1.1633 -1.5354
61704SOL    HW295043  11.155   4.322   3.378 -1.2642 -0.3492  0.9562
61705SOL     OW95044   0.070   3.229   0.165  0.2875 -0.5011 -0.5410
61705SOL    HW195045   0.121   3.186   0.233  1.5363 -0.1750 -1.2464
61705SOL    HW295046   0.130   3.294   0.128 -0.5087 -0.3975 -1.6752
61706SOL     OW95047   0.418   0.098   5.922 -0.0244 -0.6072  0.3453
61706SOL    HW195048   0.492   0.119   5.866 -0.2429 -0.2781  0.1731
61706SOL    HW295049   0.370   0.030   5.876 -0.2986 -0.2154  0.0475
61707SOL     OW95050   8.754   3.882  11.612  0.7531 -0.3447  0.6739
61707SOL    HW195051   8.803   3.857  11.690 -1.2198 -3.8496  1.0183
61707SOL    HW295052   8.666   3.899  11.644  0.5772  1.0579 -0.4841
61708SOL     OW95053   8.465   8.165   1.206  0.2727  0.4760  0.1406
61708SOL    HW195054   8.435   8.081   1.241  1.3040 -0.1993 -0.5340
61708SOL    HW295055   8.402   8.186   1.137  0.4869 -0.1727 -0.2544
61709SOL     OW95056   8.598   2.092   2.859 -0.8522  0.6589  0.6482
61709SOL    HW195057   8.558   2.130   2.936 -0.0775  2.2510  0.3144
61709SOL    HW295058   8.542   2.120   2.786 -0.4561  0.9324  0.4373
61710SOL     OW95059   2.228   2.901   7.174 -0.1649 -0.0243 -0.4830
61710SOL    HW195060   2.229   2.964   7.103 -1.2231 -0.9296 -1.3337
61710SOL    HW295061   2.148   2.921   7.223  0.3131  0.2899  0.1979
61711SOL     OW95062   4.433   2.520   6.676 -0.1542 -0.1254 -0.2920
61711SOL    HW195063   4.371   2.592   6.683  0.6240  0.5792 -0.4435
61711SOL    HW295064   4.454   2.516   6.582 -0.8741 -1.1535 -0.4269
61712SOL     OW95065   1.548   8.389  10.223  0.2482  0.1311 -0.5162
61712SOL    HW195066   1.613   8.427  10.282  0.9313 -1.6566 -0.0606
61712SOL    HW295067   1.578   8.413  10.136  0.4191  0.9522 -0.2483
61713SOL     OW95068   1.609   9.862   9.270  0.1742  0.2278 -0.1244
61713SOL    HW195069   1.666   9.794   9.234  0.9707  0.7981  0.0060
61713SOL    HW295070   1.556   9.891   9.196  0.6142  0.2215 -0.4487
61714SOL     OW95071  13.220  12.479  10.504  0.0062  0.0082 -0.0681
61714SOL    HW195072  13.172  12.400  10.479 -1.5367  0.8710 -0.0002
61714SOL    HW295073  13.190  12.497  10.593  2.1148 -0.5845  0.8246
61715SOL     OW95074   6.560   1.677  12.931  0.2799  0.3818 -0.0971
61715SOL    HW195075   6.625   1.612  12.906 -0.7510 -0.1636 -1.5113
61715SOL    HW295076   6.611   1.755  12.952  1.4082 -0.1521 -0.7789
61716SOL     OW95077   7.282  12.967   1.896 -0.2657  0.2408  0.6303
61716SOL    HW195078   7.307  12.874   1.902  0.3174  0.3009 -0.5800
61716SOL    HW295079   7.200  12.967   1.847 -0.1305  0.3739  0.4002
61717SOL     OW95080  10.314  12.455   9.081 -0.1306  0.0644  0.2078
61717SOL    HW195081  10.399  12.494   9.103  0.1883 -0.8241  0.5639
61717SOL    HW295082  10.288  12.500   9.000  0.5738  0.4934  0.2085
61718SOL     OW95083  13.271   7.271   1.000  0.1531 -0.4582  0.3994
61718SOL    HW195084  13.347   7.223   0.968  0.6287 -0.8478  2.0661
61718SOL    HW295085  13.243   7.224   1.078 -0.1358  1.2379  1.3608
61719SOL     OW95086   4.916   9.211   7.344  0.2738  0.1447 -0.1337
61719SOL    HW195087   4.885   9.122   7.332  1.4360 -0.1022 -1.6944
61719SOL    HW295088   4.959   9.233   7.261 -1.4316  2.7598 -0.4528
61720SOL     OW95089   5.986  13.294   8.961  0.1146 -0.3711 -0.0871
61720SOL    HW195090   6.037  13.266   8.885  1.3815  0.0922  0.5571
61720SOL    HW295091   5.990  13.218   9.020  1.0544  0.0693  0.4368
61721SOL     OW95092   5.128   5.261  11.315  0.3186  0.8614 -0.2100
61721SOL    HW195093   5.043   5.274  11.357 -0.5221 -1.9007 -0.8361
61721SOL    HW295094   5.174   5.199  11.372  1.2511  1.0419 -0.7373
61722SOL     OW95095  12.101   8.168   1.932  0.5126 -0.3635 -0.1559
61722SOL    HW195096  12.089   8.109   2.007  2.6804 -0.6605  0.0103
61722SOL    HW295097  12.067   8.118   1.858  1.3541 -1.4474  0.1497
61723SOL     OW95098   7.385   8.898   0.992 -0.7772 -0.7527  0.4001
61723SOL    HW195099   7.298   8.917   0.958 -1.2045 -2.7995  0.1957
61723SOL    HW295100   7.377   8.810   1.031  0.7306 -0.2238  2.0691
61724SOL     OW95101   1.780   4.557   7.462 -0.2516  0.0630  0.2919
61724SOL    HW195102   1.864   4.553   7.416  0.5888 -0.6753  1.8110
61724SOL    HW295103   1.802   4.593   7.548 -1.4671 -0.2754  0.7606
61725SOL     OW95104   1.431   2.415   3.988 -0.0018 -0.3036 -0.5267
61725SOL    HW195105   1.416   2.440   4.079 -0.9553 -1.9504 -0.1885
61725SOL    HW295106   1.444   2.498   3.941  1.3375  0.5347  1.2234
61726SOL     OW95107   2.096  10.156  13.177 -0.4138  0.0633 -0.3502
61726SOL    HW195108   2.033  10.228  13.190 -0.6168  0.0354 -1.1105
61726SOL    HW295109   2.113  10.156  13.083  0.4715 -0.1554 -0.1990
61727SOL     OW95110   0.925   4.690   6.728  0.4557 -0.1863  0.3601
61727SOL    HW195111   0.896   4.603   6.703 -2.9159  0.6445  0.9160
61727SOL    HW295112   0.904   4.697   6.821  1.4222  0.9539  0.5233
61728SOL     OW95113   3.355   4.893   3.087 -0.3982  0.1815 -0.5443
61728SOL    HW195114   3.295   4.848   3.027  1.6409 -1.2392 -1.6107
61728SOL    HW295115   3.431   4.836   3.093  0.8576  1.8776  0.8302
61729SOL     OW95116   3.499  11.185  12.210  0.5086 -0.1615  0.1297
61729SOL    HW195117   3.542  11.133  12.142  0.4517 -1.9039  1.3799
61729SOL    HW295118   3.536  11.153  12.292 -1.7688 -0.4010  1.1419
61730SOL     OW95119   9.555   8.756   3.524 -0.3177 -0.3954  0.4038
61730SOL    HW195120   9.519   8.695   3.589  0.8412 -0.7250  0.7584
61730SOL    HW295121   9.598   8.699   3.459 -0.3713 -0.0073  0.0227
61731SOL     OW95122   9.426   1.142   4.798  0.5353  0.1962  0.0903
61731SOL    HW195123   9.370   1.176   4.728  0.9671  1.1428  0.1866
61731SOL    HW295124   9.504   1.110   4.753  1.0311  1.2612  0.1548
61732SOL     OW95125  13.250   9.624   7.319  0.1765 -0.0367 -0.1008
61732SOL    HW195126  13.258   9.596   7.228  0.0518  2.1366 -0.8332
61732SOL    HW295127  13.336   9.659   7.341  0.6089 -1.6941  1.1014
61733SOL     OW95128   8.285   1.943   9.894 -0.0787  0.0146  0.4081
61733SOL    HW195129   8.204   1.993   9.900  0.4759  1.1085 -0.5527
61733SOL    HW295130   8.340   1.995   9.835  0.4248 -1.9155 -0.9197
61734SOL     OW95131   3.197  13.273   2.805 -0.1721  0.2240  0.3146
61734SOL    HW195132   3.223  13.301   2.893 -0.5488  0.7804  0.2575
61734SOL    HW295133   3.280  13.259   2.759  0.1887 -3.8126  1.8355
61735SOL     OW95134   3.693   1.985   3.334  0.1572 -0.4222  0.0786
61735SOL    HW195135   3.784   1.957   3.344 -0.0791 -1.3823 -0.3296
61735SOL    HW295136   3.699   2.077   3.307  1.0925 -1.0041 -1.9677
61736SOL     OW95137   8.257  11.505   3.124 -0.1603 -0.8589 -0.3922
61736SOL    HW195138   8.253  11.420   3.168 -1.2724 -0.7793 -0.3123
61736SOL    HW295139   8.167  11.521   3.096 -0.1139  0.6454  0.2586
61737SOL     OW95140   1.153   7.935   4.062 -0.1812  0.1496  0.0047
61737SOL    HW195141   1.154   7.904   4.152 -0.1305  1.4676  0.4755
61737SOL    HW295142   1.242   7.966   4.046 -0.2073 -0.0134 -0.4828
61738SOL     OW95143   7.022   7.330  11.834  0.4825  0.1293 -0.3162
61738SOL    HW195144   6.981   7.243  11.831  3.0749 -1.1711 -0.8453
61738SOL    HW295145   7.035   7.354  11.742  0.2607  0.8424 -0.1687
61739SOL     OW95146  10.126   1.370   1.780 -0.3272 -0.2105 -0.3930
61739SOL    HW195147  10.200   1.367   1.841 -2.0897 -0.9389  1.8575
61739SOL    HW295148  10.115   1.280   1.751  0.5131  0.1362 -1.9036
61740SOL     OW95149   5.959   4.161  12.379 -0.1990  0.9441  0.1134
61740SOL    HW195150   5.958   4.211  12.298 -0.9859 -0.2001 -0.6169
61740SOL    HW295151   5.883   4.192  12.428 -0.4762  0.7187 -0.1743
61741SOL     OW95152  11.229  11.005   1.469  0.2949  0.1088 -0.6161
61741SOL    HW195153  11.239  11.095   1.438  0.1496  0.1464 -0.5544
61741SOL    HW295154  11.141  10.980   1.442  0.6749 -0.3451 -1.4723
61742SOL     OW95155   9.282   7.777   3.427  0.5819 -0.1379 -0.3571
61742SOL    HW195156   9.299   7.817   3.513 -1.3333  0.6828 -0.3163
61742SOL    HW295157   9.326   7.692   3.432  4.4458  1.6327 -0.2825
61743SOL     OW95158   7.982   6.887   4.735  0.4698 -0.4976  0.0687
61743SOL    HW195159   7.912   6.835   4.773  1.4009 -0.7757  1.4455
61743SOL    HW295160   7.996   6.958   4.797  0.2216  0.5879 -1.0676
61744SOL     OW95161   2.170   5.001   4.342 -0.6010 -0.1020 -0.1029
61744SOL    HW195162   2.145   5.083   4.384 -0.7588 -0.4462  0.4825
61744SOL    HW295163   2.184   4.940   4.415  0.0108 -0.4532 -0.5080
61745SOL     OW95164   1.485   1.061   5.193 -0.4307 -0.7903 -0.0792
61745SOL    HW195165   1.502   1.016   5.110  0.4423  0.9904 -0.9450
61745SOL    HW295166   1.403   1.108   5.179  0.2733  0.3933 -0.3690
61746SOL     OW95167  13.112   7.909   0.071 -0.3082 -0.2554  0.3788
61746SOL    HW195168  13.059   7.984   0.045  1.2143  1.3836  1.7396
61746SOL    HW295169  13.049   7.843   0.098 -1.7052  0.4266 -1.0536
61747SOL     OW95170   0.061  12.486   9.396 -0.0944  0.0709 -0.5400
61747SOL    HW195171   0.071  12.546   9.322  1.8168 -1.3672 -1.5536
61747SOL    HW295172   0.148  12.482   9.435 -0.9083  0.2525  1.4150
61748SOL     OW95173  10.242  11.322   4.484 -0.1667  0.4037 -0.6125
61748SOL    HW195174  10.304  11.249   4.488 -0.7742 -0.1435 -0.8290
61748SOL    HW295175  10.156  11.280   4.492 -0.4748  1.2530  0.8443
61749SOL     OW95176  11.544   5.422  11.703 -0.1138 -0.8199  0.1511
61749SOL    HW195177  11.565   5.486  11.771  0.2351 -0.3447 -0.3950
61749SOL    HW295178  11.583   5.340  11.734  2.5386  0.0070 -0.7893
61750SOL     OW95179  10.422   5.411   1.238 -0.1491  0.2541 -0.0587
61750SOL    HW195180  10.467   5.485   1.198  0.3663 -0.0018  0.0365
61750SOL    HW295181  10.448   5.413   1.330  0.1731 -0.2705 -0.1370
61751SOL     OW95182  13.147   1.201   7.839 -0.2594 -0.4406  0.1700
61751SOL    HW195183  13.087   1.209   7.765 -1.4135  0.6065  1.1869
61751SOL    HW295184  13.229   1.241   7.808 -0.8933  0.4589 -0.3631
61752SOL     OW95185   8.000  11.293   7.226 -0.3543 -0.5769  0.2670
61752SOL    HW195186   8.021  11.342   7.146 -0.9843  0.0804  0.5005
61752SOL    HW295187   7.965  11.209   7.194 -0.9323 -0.1838 -0.1537
61753SOL     OW95188   7.197   0.864  12.045 -0.0420  0.4282 -0.2811
61753SOL    HW195189   7.178   0.828  12.132  3.2336 -2.7192 -0.6206
61753SOL    HW295190   7.129   0.827  11.989 -0.8490  0.6096  0.5457
61754SOL     OW95191   0.037   3.505  11.474 -0.1554 -0.2993 -0.0229
61754SOL    HW195192  -0.032   3.533  11.414  0.9583  0.7494 -0.8446
61754SOL    HW295193  -0.005   3.506  11.560 -1.2170  0.1284 -0.5237
61755SOL     OW95194  11.912   5.692   3.352 -0.2777  0.2759 -0.1022
61755SOL    HW195195  11.998   5.728   3.375 -0.2458  0.0216  0.1908
61755SOL    HW295196  11.931   5.620   3.292 -0.4069  1.4392 -1.5903
61756SOL     OW95197   9.606  11.528   3.183  0.0532 -0.4540  0.3130
61756SOL    HW195198   9.590  11.462   3.250  0.7688 -0.4012  0.5441
61756SOL    HW295199   9.699  11.548   3.191 -0.0439  0.1905 -0.1132
61757SOL     OW95200   6.281  12.073   9.170 -0.2032 -0.2280  0.0987
61757SOL    HW195201   6.363  12.121   9.178  0.6882 -1.6928  0.0169
61757SOL    HW295202   6.285  12.032   9.084 -1.1119 -0.1735  0.0137
61758SOL     OW95203  11.992   7.069   5.761  0.4006 -0.0305  0.3008
61758SOL    HW195204  11.911   7.119   5.766  0.1642 -0.4114  0.3175
61758SOL    HW295205  12.057   7.124   5.804  0.7137  1.3800 -1.8670
61759SOL     OW95206   1.596  11.315  13.019 -0.7625  0.0345  0.0867
61759SOL    HW195207   1.575  11.296  12.927 -1.6291 -1.0111  0.4838
61759SOL    HW295208   1.521  11.365  13.050 -0.8681 -0.3543  0.4585
61760SOL     OW95209   1.814   0.239   1.440 -0.1115  0.0758  0.3997
61760SOL    HW195210   1.867   0.312   1.473  1.7866 -0.9703 -0.1972
61760SOL    HW295211   1.727   0.255   1.476  0.7588  1.4784  2.0554
61761SOL     OW95212   1.219   9.208   9.196 -0.1517 -0.1969  0.0012
61761SOL    HW195213   1.213   9.140   9.263 -1.0193  0.8162  0.9954
61761SOL    HW295214   1.291   9.264   9.225  0.6283 -0.7197 -0.8674
61762SOL     OW95215   2.918   0.097   0.499  0.3504  0.2119 -0.3811
61762SOL    HW195216   2.961   0.012   0.500  0.7872  0.4352  0.6682
61762SOL    HW295217   2.851   0.090   0.567 -1.1311 -0.0325 -1.7828
61763SOL     OW95218   1.984   8.196   2.266  0.4788 -0.0079  0.4081
61763SOL    HW195219   1.974   8.284   2.303 -2.6676 -0.5981  1.3111
61763SOL    HW295220   2.033   8.147   2.333  0.4117  0.5461  0.8707
61764SOL     OW95221  11.414   1.838   2.200 -0.1879  0.1457  0.4273
61764SOL    HW195222  11.372   1.864   2.282  0.2836 -1.6529  1.2914
61764SOL    HW295223  11.389   1.746   2.188  1.6484 -0.3226 -0.1932
61765SOL     OW95224   9.941   2.191   3.790  0.0784  0.6580 -0.3468
61765SOL    HW195225   9.924   2.183   3.697 -1.1279  0.0168 -0.0872
61765SOL    HW295226   9.879   2.258   3.820 -0.9873 -0.5809  0.3354
61766SOL     OW95227  10.424   8.279   6.534 -0.1014  0.5504 -0.4284
61766SOL    HW195228  10.336   8.297   6.502 -0.9071  0.1666  1.4224
61766SOL    HW295229  10.421   8.189   6.564  0.4200  1.0202  1.1480
61767SOL     OW95230   1.404   3.852   9.203 -0.2494  0.4776  0.0582
61767SOL    HW195231   1.480   3.796   9.217  1.2789  2.3159 -0.5935
61767SOL    HW295232   1.372   3.828   9.116  1.1609  1.4221 -0.7594
61768SOL     OW95233   2.804  12.117   7.855 -0.6345  0.3499  0.4011
61768SOL    HW195234   2.715  12.151   7.850 -0.4724  0.6571 -0.5767
61768SOL    HW295235   2.804  12.041   7.796  0.4731  2.0425 -1.9250
61769SOL     OW95236   2.358  10.811   0.788  0.8172  0.5399  0.5349
61769SOL    HW195237   2.323  10.846   0.870 -0.3163 -0.3032  0.4324
61769SOL    HW295238   2.281  10.788   0.737  1.3633 -3.2235  1.0630
61770SOL     OW95239  11.084  11.057   3.213 -0.2495 -0.1046  0.4075
61770SOL    HW195240  11.086  11.033   3.306  1.3587  0.9779  0.6865
61770SOL    HW295241  10.991  11.074   3.195 -0.5024  0.4348  2.0254
61771SOL     OW95242   9.676  10.007   1.724  0.5047  0.2446  0.6844
61771SOL    HW195243   9.769  10.006   1.699  0.4319  0.2765  0.4077
61771SOL    HW295244   9.655   9.916   1.746 -0.0376 -0.2493 -1.6576
61772SOL     OW95245   9.068   5.737   4.477 -0.3795  0.2267  0.6072
61772SOL    HW195246   9.083   5.722   4.570 -1.0897  0.3787  0.7522
61772SOL    HW295247   8.974   5.756   4.470 -0.3316  0.2373 -0.1353
61773SOL     OW95248   4.195  10.887   6.361 -0.4373 -0.3266  0.8581
61773SOL    HW195249   4.231  10.834   6.433  3.6368  0.2702 -0.4849
61773SOL    HW295250   4.166  10.823   6.296  1.6129 -0.9821  0.5262
61774SOL     OW95251  12.680  12.103  10.258 -0.1601 -0.0213 -0.3769
61774SOL    HW195252  12.659  12.011  10.275  1.5626 -0.5912 -1.0943
61774SOL    HW295253  12.595  12.144  10.242 -0.8859 -1.7085 -1.1391
61775SOL     OW95254  10.125   1.958   1.941  0.1965 -0.4058 -0.1692
61775SOL    HW195255  10.106   1.957   2.035 -0.6326 -0.1751 -0.3204
61775SOL    HW295256  10.038   1.954   1.899  0.5395 -0.2206 -0.9184
61776SOL     OW95257   2.003   3.016   4.930 -0.0189  0.1423 -0.0959
61776SOL    HW195258   1.922   2.969   4.914  0.6731 -0.6777 -1.3951
61776SOL    HW295259   2.057   2.957   4.983 -0.0879  0.5023  0.3871
61777SOL     OW95260   2.142   3.342   6.048 -0.0612 -0.1306  0.2628
61777SOL    HW195261   2.106   3.418   6.003  0.1190 -0.3114 -0.1897
61777SOL    HW295262   2.075   3.317   6.111 -0.5981 -0.2709 -0.3550
61778SOL     OW95263  10.929   6.053   8.798  0.2493  0.4833  0.9550
61778SOL    HW195264  10.972   5.968   8.805 -1.0004 -0.3484 -0.9165
61778SOL    HW295265  10.838   6.036   8.822  0.0036  1.3088  0.6292
61779SOL     OW95266   4.079   0.784  12.193  0.1830 -0.6629  0.5020
61779SOL    HW195267   4.100   0.873  12.165  1.7791 -1.7621 -2.1843
61779SOL    HW295268   4.103   0.781  12.286  2.1906  1.1149  0.0986
61780SOL     OW95269   0.147   7.885   4.101  0.1007  0.3126 -0.1255
61780SOL    HW195270   0.191   7.900   4.184  0.0225  0.4589 -0.1102
61780SOL    HW295271   0.085   7.815   4.119 -0.3776  0.7906  0.1053
61781SOL     OW95272   6.478   2.087   1.539  0.3350  0.5805  0.1559
61781SOL    HW195273   6.426   2.078   1.459 -0.3063 -0.8083  0.6925
61781SOL    HW295274   6.413   2.101   1.608  0.8510  1.3330  0.4985
61782SOL     OW95275   2.556  12.312  10.055  0.6826 -0.4057  0.3379
61782SOL    HW195276   2.632  12.354  10.095  1.1494 -0.1545 -0.7905
61782SOL    HW295277   2.592  12.260   9.983  0.2528 -3.4654  2.1353
61783SOL     OW95278   5.980   2.588   9.676  0.3559 -0.4828  0.2260
61783SOL    HW195279   6.024   2.641   9.742  0.3226 -0.9067  0.5953
61783SOL    HW295280   5.887   2.602   9.692  0.3476 -0.2214 -0.0352
61784SOL     OW95281   6.410   8.833   0.068  0.0293  0.0010 -0.6000
61784SOL    HW195282   6.344   8.836   0.138  1.6463  0.8475  0.9503
61784SOL    HW295283   6.484   8.881   0.102  1.2211 -0.2837 -2.6037
61785SOL     OW95284   7.726   9.682   6.777 -0.1417 -0.4698  0.2014
61785SOL    HW195285   7.690   9.717   6.859 -0.0590 -1.0018  0.4649
61785SOL    HW295286   7.651   9.680   6.718 -0.2988 -0.5114  0.4011
61786SOL     OW95287   1.032  10.800  10.874 -0.8294  0.2492 -0.5970
61786SOL    HW195288   1.087  10.878  10.870  0.0355 -0.2039  1.2421
61786SOL    HW295289   0.953  10.829  10.920 -0.6005  0.1190 -0.1081
61787SOL     OW95290  13.270   9.564   5.873  0.1423 -0.1244  0.4986
61787SOL    HW195291  13.364   9.583   5.871 -0.0268  0.7164 -1.0375
61787SOL    HW295292  13.229   9.644   5.905 -0.1113 -0.2253  0.4332
61788SOL     OW95293   0.364   9.788   6.813 -0.6183 -0.1053 -0.1443
61788SOL    HW195294   0.300   9.778   6.884  0.5176 -0.8923  0.8091
61788SOL    HW295295   0.440   9.829   6.855  0.4250 -1.4198 -0.6793
61789SOL     OW95296  10.239  11.661   5.221 -0.0087  0.0954  0.0789
61789SOL    HW195297  10.154  11.621   5.241 -0.6328 -0.6671 -3.4699
61789SOL    HW295298  10.271  11.692   5.306 -2.0182 -3.0037  2.1872
61790SOL     OW95299  10.098  12.377   9.226  0.0923  0.2854  0.3281
61790SOL    HW195300  10.173  12.393   9.168 -0.1768  1.1992  0.2146
61790SOL    HW295301  10.113  12.434   9.301 -0.2981  0.1929  0.4769
61791SOL     OW95302   7.101   5.594   0.621  0.4293  0.1879  0.0838
61791SOL    HW195303   7.153   5.537   0.677  0.5550  0.2013 -0.0190
61791SOL    HW295304   7.024   5.542   0.599  1.3638 -0.6066 -1.4410
61792SOL     OW95305   6.314   8.036   6.274 -0.1985  0.0222 -0.5188
61792SOL    HW195306   6.323   7.976   6.348  1.3683  1.0222  0.1550
61792SOL    HW295307   6.232   8.010   6.232  0.4729 -2.6829 -0.3564
61793SOL     OW95308   7.487   9.717   9.876  0.7218  0.3526  0.1652
61793SOL    HW195309   7.464   9.692   9.965  1.3180 -1.6063 -0.1688
61793SOL    HW295310   7.421   9.673   9.821  2.0297 -0.8620 -0.4858
61794SOL     OW95311   3.423  12.364  11.687  0.1185 -0.3279 -0.1127
61794SOL    HW195312   3.454  12.302  11.621  0.0225  1.4847 -1.9678
61794SOL    HW295313   3.491  12.432  11.690 -1.0701  0.9192 -0.2721
61795SOL     OW95314  12.780  10.220   0.056 -0.1268  0.1489 -0.2425
61795SOL    HW195315  12.853  10.248   0.111  0.6253 -1.1180 -0.5619
61795SOL    HW295316  12.702  10.239   0.108  0.2351  3.2725 -0.6069
61796SOL     OW95317   4.215   1.032   2.395  0.5268  0.4291 -0.0858
61796SOL    HW195318   4.301   1.008   2.359  0.3649  1.0796 -0.9413
61796SOL    HW295319   4.204   0.974   2.470  1.3817 -0.1914 -0.4169
61797SOL     OW95320   7.664   0.167  10.481 -0.3720  0.4485  0.6274
61797SOL    HW195321   7.576   0.164  10.521 -1.0001 -1.1042 -0.7827
61797SOL    HW295322   7.655   0.117  10.400  1.2698  2.1526 -0.6861
61798SOL     OW95323   8.441   8.961   6.078  0.0576 -0.2438  0.4309
61798SOL    HW195324   8.526   8.917   6.066 -0.1279 -0.5278  0.1440
61798SOL    HW295325   8.452   9.045   6.034  0.6775  0.3421  1.6564
61799SOL     OW95326  11.192   1.264   6.790 -0.1006 -0.3848 -0.5755
61799SOL    HW195327  11.100   1.267   6.816 -0.0099  0.8791 -0.3185
61799SOL    HW295328  11.238   1.313   6.859  0.4954  0.7490 -1.7347
61800SOL     OW95329  11.227  11.539   1.526 -0.3978  0.2284  0.2840
61800SOL    HW195330  11.160  11.531   1.595 -0.4522 -0.0701  0.1977
61800SOL    HW295331  11.212  11.625   1.488 -0.6981  0.1873  0.3070
61801SOL     OW95332   9.661   8.509   3.082  0.2248 -0.6130  0.3011
61801SOL    HW195333   9.645   8.419   3.054 -1.1027  0.0863 -1.3559
61801SOL    HW295334   9.696   8.500   3.171 -1.1552 -2.7165  0.7287
61802SOL     OW95335   1.088   1.587   6.064  0.1947 -0.4913 -0.4343
61802SOL    HW195336   1.182   1.589   6.085  0.1900  0.7996 -0.4548
61802SOL    HW295337   1.062   1.496   6.080  1.7220 -1.1908 -1.7040
61803SOL     OW95338   7.293   0.815   0.366  0.4206  0.5112 -0.2482
61803SOL    HW195339   7.378   0.848   0.395 -0.4450  1.0263  1.8893
61803SOL    HW295340   7.288   0.839   0.273  3.5173 -1.5242 -1.1273
61804SOL     OW95341   9.655  10.682   0.510  0.0806  0.1422 -0.2923
61804SOL    HW195342   9.718  10.699   0.440 -0.3106 -0.2236 -0.7408
61804SOL    HW295343   9.585  10.632   0.468  1.0341 -2.3528  0.8759
61805SOL     OW95344   3.946   2.608   9.319  0.1117  0.2045  0.1284
61805SOL    HW195345   3.863   2.624   9.364  0.4796  2.5344  0.1126
61805SOL    HW295346   3.921   2.583   9.230 -0.6180  1.7190 -0.1292
61806SOL     OW95347   2.051   8.397  10.865  0.0521  0.6324 -0.0485
61806SOL    HW195348   2.130   8.373  10.817  0.1210  0.3601  0.1954
61806SOL    HW295349   2.074   8.477  10.911  1.1476 -0.8938  2.2671
61807SOL     OW95350   1.009   3.047  10.785  0.1315  0.8216  0.3088
61807SOL    HW195351   0.955   3.094  10.848  1.7996  0.5780  2.0278
61807SOL    HW295352   1.096   3.085  10.796  0.7864 -0.2937 -0.7721
61808SOL     OW95353   8.968  11.826  10.997 -0.4895 -0.3997  0.0115
61808SOL    HW195354   8.950  11.916  11.024 -1.6352 -0.2565 -1.1051
61808SOL    HW295355   9.024  11.835  10.920 -0.0666 -0.6691  0.2861
61809SOL     OW95356   3.807   6.894   1.351 -0.2180  0.1178  0.8146
61809SOL    HW195357   3.801   6.989   1.353  0.3762  0.1797  0.0369
61809SOL    HW295358   3.877   6.873   1.413  0.7103  0.3011 -0.1477
61810SOL     OW95359  10.814   4.707   4.305 -0.5710  1.0721 -0.2847
61810SOL    HW195360  10.774   4.626   4.338  2.1824 -0.0776  0.5075
61810SOL    HW295361  10.752   4.776   4.328 -3.1564 -0.7686 -1.2045
61811SOL     OW95362   4.226   3.439   1.263  0.1796 -0.0274 -0.7648
61811SOL    HW195363   4.298   3.400   1.314 -0.3321  0.7049  0.5519
61811SOL    HW295364   4.270   3.481   1.189  1.3602  1.9682  0.9615
61812SOL     OW95365   9.769   1.034  13.259  0.6358  0.2168  0.2290
61812SOL    HW195366   9.779   1.114  13.310  1.2396  1.2359 -1.3862
61812SOL    HW295367   9.843   1.034  13.198 -1.4565  0.6195 -2.5552
61813SOL     OW95368   7.555   0.802   0.645 -0.0510  0.2178  0.0877
61813SOL    HW195369   7.524   0.715   0.623 -1.9650  1.6597 -3.6417
61813SOL    HW295370   7.650   0.792   0.654  0.0102 -1.9541 -2.1095
61814SOL     OW95371   3.985  12.165  12.478 -0.2553 -0.5847  0.0574
61814SOL    HW195372   3.979  12.243  12.423 -1.7105 -0.2692  0.6191
61814SOL    HW295373   3.898  12.126  12.475  0.6738 -2.8111 -1.0199
61815SOL     OW95374   3.332   3.979   0.010 -0.3594 -0.3105  0.1182
61815SOL    HW195375   3.283   4.001   0.090 -1.3565 -1.6056 -0.0882
61815SOL    HW295376   3.325   3.884   0.004  2.3552 -0.5692  0.1319
61816SOL     OW95377   0.122  12.292   2.779  0.2248  0.1267 -0.1338
61816SOL    HW195378   0.164  12.310   2.863  0.3991  1.8562 -0.5505
61816SOL    HW295379   0.177  12.337   2.715 -1.7377  1.7369 -0.7861
61817SOL     OW95380   9.360  13.256   5.720 -0.4743  0.3957 -0.2018
61817SOL    HW195381   9.316  13.178   5.754 -0.7541  0.0309 -1.3703
61817SOL    HW295382   9.445  13.224   5.689  0.3064  0.9492  1.2666
61818SOL     OW95383   8.492   5.964   0.195 -0.2618 -0.3460 -0.0481
61818SOL    HW195384   8.432   5.914   0.140 -1.4181  0.5143  0.3975
61818SOL    HW295385   8.458   6.054   0.192  0.6183  0.0337  0.7506
61819SOL     OW95386  10.883   8.966   7.612  0.0249 -0.0695 -0.0596
61819SOL    HW195387  10.941   9.020   7.667 -0.1680 -0.3513  0.4293
61819SOL    HW295388  10.799   9.012   7.615 -0.3192 -0.7285  0.8952
61820SOL     OW95389  10.541   5.526   0.250 -0.7692  0.2243  0.3573
61820SOL    HW195390  10.543   5.621   0.258 -0.5287  0.1504  1.3825
61820SOL    HW295391  10.607   5.495   0.313 -0.4158 -0.5976 -0.3984
61821SOL     OW95392  10.113  13.286   4.633  0.1001  0.6300  0.5441
61821SOL    HW195393  10.038  13.243   4.673  0.5803  0.4545  1.2843
61821SOL    HW295394  10.111  13.260   4.541  0.2382 -0.7705  0.9198
61822SOL     OW95395   9.293  10.420  13.279 -0.1199 -0.1045 -0.0980
61822SOL    HW195396   9.274  10.513  13.288 -0.8812 -0.3135  0.6318
61822SOL    HW295397   9.325  10.410  13.189  1.2482  1.0589  0.2172
61823SOL     OW95398   6.492  13.244   9.436  0.6647 -0.2075 -0.0972
61823SOL    HW195399   6.486  13.328   9.480  1.6458 -0.0706 -0.2019
61823SOL    HW295400   6.502  13.266   9.343 -0.7709 -0.4799 -0.3311
61824SOL     OW95401   6.395  10.201  10.287 -0.0025  0.0591 -0.1777
61824SOL    HW195402   6.456  10.143  10.332  0.7939  0.4322 -0.7409
61824SOL    HW295403   6.449  10.273  10.256 -1.0907  1.5238  1.1601
61825SOL     OW95404  11.369   3.160   1.394 -0.0115 -0.2371 -0.1489
61825SOL    HW195405  11.391   3.248   1.423  0.7541  0.4019 -2.4333
61825SOL    HW295406  11.440   3.136   1.334  0.0917 -2.6570  0.8237
61826SOL     OW95407   3.025   7.423  12.994 -0.0297 -0.3283 -0.6048
61826SOL    HW195408   2.951   7.425  12.933 -0.1090 -0.4084 -0.5106
61826SOL    HW295409   3.086   7.488  12.959 -0.9327  1.0593  0.3177
61827SOL     OW95410   3.398   1.648   3.667  0.6441  0.5662 -0.3893
61827SOL    HW195411   3.358   1.578   3.615 -1.3719  0.5398  1.0828
61827SOL    HW295412   3.490   1.622   3.675 -0.1396 -2.2232  0.5691
61828SOL     OW95413   3.970   2.956  10.186  0.1772  0.3029 -0.3414
61828SOL    HW195414   3.925   2.986  10.264  0.8648  1.0220 -0.2048
61828SOL    HW295415   3.927   2.874  10.162 -0.1760  0.1936  0.6598
61829SOL     OW95416   6.791  10.259   6.498  0.3863  0.5382  0.3483
61829SOL    HW195417   6.881  10.225   6.493 -0.4202 -1.6979 -0.2459
61829SOL    HW295418   6.781  10.288   6.588  0.9353 -1.6687  1.1941
61830SOL     OW95419   6.406  13.227   8.187 -0.1839 -0.8903  0.1181
61830SOL    HW195420   6.489  13.250   8.146 -0.5013  1.2334  0.5743
61830SOL    HW295421   6.376  13.150   8.138  0.3732  0.3918 -2.4028
61831SOL     OW95422   0.016   4.597   8.992  0.1737 -0.6962  0.2517
61831SOL    HW195423   0.023   4.575   9.085  1.5322  0.7668  0.5542
61831SOL    HW295424  -0.078   4.596   8.974 -0.0318 -2.4415  1.2440
61832SOL     OW95425   6.113   4.267   4.287 -0.3191 -0.6275 -0.2422
61832SOL    HW195426   6.052   4.318   4.233 -0.6353 -0.7082  0.0358
61832SOL    HW295427   6.059   4.198   4.325 -1.0083  1.5420  3.2026
61833SOL     OW95428  11.421   5.203  10.998  0.0512 -0.0380  0.1337
61833SOL    HW195429  11.422   5.159  10.913 -0.7201 -0.4356  0.3220
61833SOL    HW295430  11.453   5.137  11.060  1.3959  0.5092  0.0455
61834SOL     OW95431   0.680   9.178   6.866 -0.1864 -0.4411 -0.0973
61834SOL    HW195432   0.716   9.140   6.786  0.1767 -1.3547  0.4947
61834SOL    HW295433   0.605   9.230   6.835  0.4301 -0.1026 -1.1151
61835SOL     OW95434   3.181   0.957   1.517 -0.4422 -0.1950  0.1993
61835SOL    HW195435   3.152   0.875   1.478 -0.2834  0.1653 -0.6991
61835SOL    HW295436   3.137   0.961   1.602 -3.1795  0.4073 -1.1445
61836SOL     OW95437  12.085   3.265   5.086  0.1235 -0.4643  0.2902
61836SOL    HW195438  11.991   3.251   5.095  0.1315 -0.6228  0.1236
61836SOL    HW295439  12.114   3.198   5.023  0.5464 -1.1720  1.2215
61837SOL     OW95440   6.214  10.013   8.804 -1.0082 -0.3019 -0.0880
61837SOL    HW195441   6.176   9.949   8.863 -1.7317  0.8365  0.7326
61837SOL    HW295442   6.250  10.080   8.862 -0.4605  0.1411 -0.9228
61838SOL     OW95443   0.413   7.406   9.079  0.0419 -0.1927  0.6465
61838SOL    HW195444   0.423   7.329   9.024  0.3128  0.4985 -0.2832
61838SOL    HW295445   0.318   7.422   9.082 -0.1908 -1.5347  2.2422
61839SOL     OW95446  12.758   9.998   6.592  0.0614 -0.0813  0.1066
61839SOL    HW195447  12.748  10.086   6.555  1.3062 -0.2008 -0.5645
61839SOL    HW295448  12.839  10.002   6.643 -0.6685 -0.4360  1.3323
61840SOL     OW95449   1.867  12.755   8.138 -0.2354  0.6104 -0.0448
61840SOL    HW195450   1.795  12.755   8.075  0.9527 -0.5385 -1.4647
61840SOL    HW295451   1.933  12.813   8.100  0.5793 -0.2582  0.0022
61841SOL     OW95452   0.236   2.581   2.323 -0.1268 -0.0171  0.7052
61841SOL    HW195453   0.263   2.655   2.378  0.4493  0.0337  0.3661
61841SOL    HW295454   0.168   2.618   2.266 -0.1192  0.1529  0.8051
61842SOL     OW95455   7.061   6.358   1.688 -0.4762  0.0272 -0.4358
61842SOL    HW195456   7.134   6.296   1.697 -1.9732 -1.5461  2.0097
61842SOL    HW295457   7.098   6.442   1.713  1.0329 -0.2747 -1.5179
61843SOL     OW95458  11.588   9.499   8.544 -0.3901 -0.0865 -0.4689
61843SOL    HW195459  11.600   9.405   8.555  0.1076  0.0203 -0.0984
61843SOL    HW295460  11.581   9.511   8.449 -1.9066 -0.6699 -0.4605
61844SOL     OW95461   4.967   8.459   0.325 -0.0243 -0.3886  0.5941
61844SOL    HW195462   4.936   8.528   0.384 -0.5483 -0.1758  0.0826
61844SOL    HW295463   5.035   8.414   0.375  0.7555  0.8719  0.7314
61845SOL     OW95464   7.475   5.329   9.777  0.3259 -0.4626  0.8127
61845SOL    HW195465   7.548   5.302   9.721  0.2155  0.3763  0.2567
61845SOL    HW295466   7.419   5.251   9.782  0.0682 -0.4052 -0.6756
61846SOL     OW95467   2.715  12.835  10.219 -0.6656  0.0263 -0.0661
61846SOL    HW195468   2.712  12.821  10.125  1.6110 -0.0665 -0.1770
61846SOL    HW295469   2.692  12.927  10.231 -1.8759 -0.1905 -0.6008
61847SOL     OW95470   4.854   1.150  11.185 -0.3278 -0.1915  0.0328
61847SOL    HW195471   4.860   1.137  11.280 -0.3916  0.1117  0.0806
61847SOL    HW295472   4.927   1.101  11.149 -0.4144 -0.4627  0.2260
61848SOL     OW95473   0.779   3.374   8.725  0.2465 -0.0019 -0.5006
61848SOL    HW195474   0.716   3.345   8.791 -0.6225  1.1309 -0.8030
61848SOL    HW295475   0.732   3.366   8.642  0.3540  1.2254 -0.6927
61849SOL     OW95476  11.170   0.473   7.028  0.4259 -0.3500 -0.0334
61849SOL    HW195477  11.107   0.444   6.961 -0.6989 -0.2587  0.9598
61849SOL    HW295478  11.117   0.522   7.091  1.4509 -0.4787  0.9547
61850SOL     OW95479   7.225  12.604   7.885 -0.1150  0.9361 -0.5505
61850SOL    HW195480   7.285  12.645   7.824  0.4676  0.4906 -0.2857
61850SOL    HW295481   7.199  12.523   7.842  1.1371  0.0864  0.2283
61851SOL     OW95482   9.026   9.100  10.671 -0.3045 -0.2145 -0.0239
61851SOL    HW195483   8.974   9.118  10.749 -2.3240 -2.0477 -0.8438
61851SOL    HW295484   9.028   9.004  10.665  0.8338 -0.1356 -1.5667
61852SOL     OW95485  12.504  12.520   0.562 -0.2325  0.2370  0.0410
61852SOL    HW195486  12.494  12.469   0.482  3.0721  1.1620 -1.1720
61852SOL    HW295487  12.440  12.590   0.554 -0.8773 -0.4485 -1.1314
61853SOL     OW95488  11.932   4.914   9.840 -0.0467  0.3478 -0.3738
61853SOL    HW195489  11.967   4.884   9.924  0.2836  1.0673 -0.2462
61853SOL    HW295490  11.976   4.997   9.824 -1.2022  0.9527 -0.5283
61854SOL     OW95491   3.030   0.889   7.007  0.0783 -0.6306 -0.0187
61854SOL    HW195492   3.081   0.917   7.083 -2.3256  1.8166  0.8515
61854SOL    HW295493   2.951   0.849   7.044 -0.7722 -0.0979 -1.1917
61855SOL     OW95494   4.698  11.827   4.635  0.1645  0.1533  0.0169
61855SOL    HW195495   4.790  11.844   4.615  0.5024  0.3673  1.6099
61855SOL    HW295496   4.650  11.856   4.558  1.3020  1.5640 -0.1895
61856SOL     OW95497  11.719   3.502   1.579  0.0820 -0.2942  0.1191
61856SOL    HW195498  11.787   3.550   1.626  1.2562 -1.3287 -0.4587
61856SOL    HW295499  11.739   3.515   1.487 -1.0769  0.1548 -0.0854
61857SOL     OW95500   4.258  10.665  11.414  0.0374 -0.4076 -0.6968
61857SOL    HW195501   4.232  10.753  11.387 -1.0434 -1.0205 -1.7456
61857SOL    HW295502   4.177  10.623  11.443  0.2467 -1.5536 -1.6857
61858SOL     OW95503  13.294   4.340   9.896 -0.7498  0.1793  0.0144
61858SOL    HW195504  13.301   4.330   9.991  4.5949  0.6742 -0.0254
61858SOL    HW295505  13.307   4.252   9.862  1.0767  0.4818 -0.1689
61859SOL     OW95506   6.183   7.388   6.030  0.0542 -0.3162 -0.0840
61859SOL    HW195507   6.117   7.348   5.974 -1.1345  1.0560  0.2952
61859SOL    HW295508   6.134   7.421   6.105  0.7520  2.7716 -0.8395
61860SOL     OW95509   1.617   7.502   1.607 -0.2843  0.3357 -0.2438
61860SOL    HW195510   1.583   7.571   1.550  1.6109  1.8110  0.3110
61860SOL    HW295511   1.704   7.483   1.574 -0.3259 -0.9901  0.3286
61861SOL     OW95512   2.017   7.590   4.418  0.3605 -0.3063 -0.2755
61861SOL    HW195513   1.990   7.681   4.407 -0.3198 -0.5612 -0.7780
61861SOL    HW295514   1.962   7.541   4.357  0.6331 -1.0715  0.0801
61862SOL     OW95515   1.363   0.348   3.076  0.2387 -0.4839  0.0635
61862SOL    HW195516   1.345   0.412   3.145 -4.6213  0.1781 -1.4641
61862SOL    HW295517   1.390   0.401   3.001  2.1061 -0.9184  0.3615
61863SOL     OW95518  12.003   9.408   2.574 -0.1118 -0.6155 -0.1783
61863SOL    HW195519  12.011   9.461   2.653  0.8639 -2.0102  0.6989
61863SOL    HW295520  12.090   9.371   2.560 -0.3875 -0.7983 -1.6267
61864SOL     OW95521   4.106   6.196   4.772  0.0855 -0.0138  0.4120
61864SOL    HW195522   4.054   6.244   4.837  2.0705  2.1945  0.4864
61864SOL    HW295523   4.044   6.177   4.701 -1.0113  1.9825  0.7598
61865SOL     OW95524   9.418  10.307   5.624 -0.1922  0.5008 -0.5172
61865SOL    HW195525   9.392  10.354   5.704  1.4588  0.8208 -0.1255
61865SOL    HW295526   9.336  10.273   5.589 -0.8159 -1.6105  2.5435
61866SOL     OW95527   7.270   5.117   4.480 -0.2424  0.4057  0.0797
61866SOL    HW195528   7.225   5.050   4.531  0.6009 -0.7696 -0.6545
61866SOL    HW295529   7.209   5.190   4.477 -0.5472  0.2985  2.2506
61867SOL     OW95530   4.991   8.014   4.182 -1.3130  0.9130 -0.4009
61867SOL    HW195531   4.934   8.023   4.258 -0.4076  1.6934  0.2167
61867SOL    HW295532   4.932   7.994   4.110 -2.2235  0.4653  0.4502
61868SOL     OW95533   6.110   9.302   8.832  0.0994 -0.0908  0.5609
61868SOL    HW195534   6.146   9.373   8.885  0.2103  0.9682 -0.8655
61868SOL    HW295535   6.015   9.312   8.841  0.1190 -0.1517  0.8529
61869SOL     OW95536  13.109   9.415  10.737  0.0415  0.2445 -0.0505
61869SOL    HW195537  13.114   9.405  10.832 -1.2582  0.0272  0.0044
61869SOL    HW295538  13.108   9.510  10.722  1.8981  0.3195  0.0295
61870SOL     OW95539   4.819   5.251   3.507  0.3475 -0.4332 -0.0519
61870SOL    HW195540   4.725   5.252   3.525  0.5706 -1.5499  1.4020
61870SOL    HW295541   4.831   5.177   3.448  0.3150 -0.2283 -0.3196
61871SOL     OW95542   2.066   6.130   5.932  0.3096 -0.5418  0.2707
61871SOL    HW195543   2.075   6.068   6.004  1.6278 -0.3460  0.2961
61871SOL    HW295544   2.131   6.198   5.950 -2.4025  2.0007  1.3363
61872SOL     OW95545   8.539   2.955  11.730  0.5877 -0.2743  0.2425
61872SOL    HW195546   8.544   3.045  11.699  0.5900 -0.4705 -0.3356
61872SOL    HW295547   8.604   2.908  11.678 -1.3056 -1.1690 -1.4466
61873SOL     OW95548   1.698  10.036   7.994  0.4736 -0.3930  0.5830
61873SOL    HW195549   1.735  10.054   7.907  1.8542 -0.3914  1.1466
61873SOL    HW295550   1.634  10.106   8.007  2.3000  1.3754  0.7268
61874SOL     OW95551   1.180   4.825   1.682  0.0158  0.0627 -0.4322
61874SOL    HW195552   1.257   4.779   1.716 -0.6311  0.6832  2.0850
61874SOL    HW295553   1.127   4.756   1.642  0.0490 -1.0965  1.3802
61875SOL     OW95554  10.895   2.706  12.887  0.7430 -0.2041  0.9997
61875SOL    HW195555  10.837   2.671  12.955 -0.4757  1.0875  0.6811
61875SOL    HW295556  10.955   2.763  12.934  1.5875 -1.2815  1.2855
61876SOL     OW95557   9.678   7.870  11.331  0.1366  0.6426  0.1702
61876SOL    HW195558   9.746   7.810  11.303 -1.3238 -0.5222 -1.0762
61876SOL    HW295559   9.705   7.955  11.297  0.2415 -0.0861 -1.6979
61877SOL     OW95560   6.532   9.324   9.099 -0.1748 -0.3139 -0.0086
61877SOL    HW195561   6.614   9.288   9.065  0.5243  0.4854  0.7666
61877SOL    HW295562   6.546   9.330   9.194 -0.7106  0.8779  0.0082
61878SOL     OW95563   7.589  13.177   9.265  0.5419 -0.0758  0.6783
61878SOL    HW195564   7.527  13.245   9.291 -0.9662 -1.3171  0.4727
61878SOL    HW295565   7.595  13.186   9.170  3.1764  2.0425  0.9103
61879SOL     OW95566   3.234   4.595   3.104 -0.5920 -0.2514 -0.3951
61879SOL    HW195567   3.250   4.613   3.012  0.9496  0.3257 -0.0558
61879SOL    HW295568   3.309   4.542   3.132 -0.0173  1.1416  0.9176
61880SOL     OW95569  11.109  11.349   9.718 -0.2546 -0.8968 -0.1060
61880SOL    HW195570  11.181  11.406   9.691 -0.1920 -0.2052  1.4275
61880SOL    HW295571  11.114  11.275   9.658 -1.0405  1.1797 -2.9268
61881SOL     OW95572   5.639  10.745   4.745  0.3835 -0.2614  0.2932
61881SOL    HW195573   5.629  10.681   4.674 -1.1560  0.3472 -0.0655
61881SOL    HW295574   5.596  10.704   4.820 -0.8488  0.4463 -0.0105
61882SOL     OW95575   9.733   5.598   0.114 -0.5774 -0.1459 -0.1579
61882SOL    HW195576   9.798   5.609   0.184 -0.1120 -0.6551 -0.4991
61882SOL    HW295577   9.650   5.583   0.160 -0.7714  2.0062  0.3058
61883SOL     OW95578  10.310   8.277  11.837  0.1509  0.0076  0.6013
61883SOL    HW195579  10.363   8.201  11.861 -0.0278  0.2119  1.7247
61883SOL    HW295580  10.220   8.251  11.856  0.2053  0.9671  2.4440
61884SOL     OW95581   7.954  12.710   5.000 -0.4432 -0.3094 -0.0458
61884SOL    HW195582   7.952  12.665   5.085 -2.6376  0.7742  0.5685
61884SOL    HW295583   8.036  12.758   5.000 -0.2988 -0.5009  1.3911
61885SOL     OW95584   9.730  12.578   2.807 -0.7242 -0.4466  0.2775
61885SOL    HW195585   9.691  12.663   2.787  1.3384  0.6606  0.7278
61885SOL    HW295586   9.725  12.530   2.724  1.1999  1.4427 -1.0613
61886SOL     OW95587   8.706   4.612   2.061 -0.6181 -0.1267  0.0934
61886SOL    HW195588   8.753   4.573   2.135 -0.0425  1.1314  0.4279
61886SOL    HW295589   8.706   4.544   1.994 -0.9160 -1.1985  1.1498
61887SOL     OW95590  13.028   2.773  10.870  0.5774 -0.0004  0.0073
61887SOL    HW195591  12.983   2.845  10.914  1.1957  0.3172  0.1379
61887SOL    HW295592  13.094   2.744  10.932  1.6762  0.6671 -0.7885
61888SOL     OW95593  11.329   8.766  11.418  0.1715 -0.2236  0.7055
61888SOL    HW195594  11.333   8.752  11.512  1.8368 -0.9716  0.5548
61888SOL    HW295595  11.253   8.714  11.389  0.3132 -0.8760  1.4836
61889SOL     OW95596   6.571  10.684  10.978  0.1907  0.0781 -0.2264
61889SOL    HW195597   6.535  10.680  10.889  0.6103 -0.5027 -0.3748
61889SOL    HW295598   6.505  10.642  11.033  0.2043 -0.1052 -0.3513
61890SOL     OW95599  12.668  12.425   4.971  0.0681 -0.2328  0.4457
61890SOL    HW195600  12.695  12.384   5.054 -1.2599 -1.6536  0.2096
61890SOL    HW295601  12.623  12.505   4.998  0.6017 -0.1206  1.0373
61891SOL     OW95602   9.988   1.810   9.753  0.1832  0.1389 -0.3540
61891SOL    HW195603   9.957   1.812   9.843  0.6990 -0.8342 -0.1342
61891SOL    HW295604  10.007   1.901   9.731  0.4800  0.3371  0.6849
61892SOL     OW95605   3.746   9.770   2.322  0.2889  0.2075  0.7959
61892SOL    HW195606   3.820   9.712   2.342  1.6834  1.3341 -0.7708
61892SOL    HW295607   3.720   9.807   2.406  3.5914  2.1550  1.1066
61893SOL     OW95608   3.697  11.317   0.599 -0.2751  0.0872  0.3227
61893SOL    HW195609   3.748  11.244   0.564 -0.6232  0.0279 -0.0758
61893SOL    HW295610   3.681  11.373   0.524 -0.4389  0.3167  0.5267
61894SOL     OW95611   1.399  10.220   1.841 -0.0752  0.7069 -0.0562
61894SOL    HW195612   1.460  10.148   1.823 -0.8871  0.0675 -0.3018
61894SOL    HW295613   1.455  10.289   1.877  0.6653 -0.1868  0.5721
61895SOL     OW95614   3.455   4.895  10.563  0.5711  0.0704  0.4193
61895SOL    HW195615   3.486   4.982  10.587 -0.1408  0.2751  0.6086
61895SOL    HW295616   3.534   4.846  10.541  1.1465  0.1993  2.1167
61896SOL     OW95617  12.668   7.732  13.018  0.1830 -0.5075 -0.4448
61896SOL    HW195618  12.615   7.677  12.961  0.6972 -1.6268  0.1334
61896SOL    HW295619  12.712   7.671  13.077  2.4706  0.3266 -1.1754
61897SOL     OW95620   2.065   8.532  12.196 -0.8642 -0.3242 -0.2276
61897SOL    HW195621   2.097   8.622  12.183  0.4655 -0.6623  0.5636
61897SOL    HW295622   1.994   8.541  12.259  0.6957 -0.0191  1.5774
61898SOL     OW95623  11.873   5.983  12.673  0.1103  0.5250 -0.0663
61898SOL    HW195624  11.896   5.974  12.766 -1.4746 -1.4483  0.1965
61898SOL    HW295625  11.780   6.007  12.673  0.3404  1.5227 -1.1632
61899SOL     OW95626   6.364   1.823   3.890 -0.7975 -0.4509  0.3024
61899SOL    HW195627   6.430   1.845   3.825 -0.2872 -2.4007  0.1030
61899SOL    HW295628   6.291   1.883   3.872  0.0998  0.3481 -0.7883
61900SOL     OW95629   3.538   7.842   0.841 -0.0625  0.3646 -0.0765
61900SOL    HW195630   3.610   7.871   0.896  0.1026 -0.7881  0.3303
61900SOL    HW295631   3.558   7.879   0.754  0.3166  1.1411  0.3334
61901SOL     OW95632   9.745   9.263   1.865  0.1721 -0.2297 -0.1911
61901SOL    HW195633   9.653   9.265   1.893  0.0977  2.5943 -0.2986
61901SOL    HW295634   9.741   9.277   1.770  0.6890  0.6443 -0.0970
61902SOL     OW95635   4.665   1.701   2.798 -0.2435 -0.0451  0.0700
61902SOL    HW195636   4.746   1.710   2.748  0.7645 -0.2560  1.6012
61902SOL    HW295637   4.601   1.751   2.748  1.0485  0.8886 -0.7255
61903SOL     OW95638   4.750   3.532  11.555 -0.6023 -0.1816  0.0501
61903SOL    HW195639   4.658   3.515  11.535 -1.1981  2.9833 -0.3365
61903SOL    HW295640   4.768   3.480  11.633 -1.4698 -4.0094 -2.0394
61904SOL     OW95641   2.933   6.981  11.895  0.3983  0.5443  0.1928
61904SOL    HW195642   2.886   7.045  11.949  0.0428  0.1893  0.3064
61904SOL    HW295643   2.972   6.921  11.959  1.2121  0.9697  0.1140
61905SOL     OW95644  12.641   5.245   8.854  0.2244  0.2456  0.1120
61905SOL    HW195645  12.597   5.227   8.937 -0.0343 -0.2383 -0.1262
61905SOL    HW295646  12.734   5.249   8.877  0.1014  0.8094  0.5386
61906SOL     OW95647   4.747  10.247   0.097  0.0593  0.0350 -0.0075
61906SOL    HW195648   4.668  10.269   0.047 -1.3825 -2.7971  0.8146
61906SOL    HW295649   4.788  10.176   0.047  1.6543  0.8712  0.0514
61907SOL     OW95650   5.651   6.996  12.198  0.3692  0.5644  0.7002
61907SOL    HW195651   5.620   6.915  12.239  2.3089 -0.7001 -0.1557
61907SOL    HW295652   5.728   7.021  12.249  1.1478  0.5432 -0.4270
61908SOL     OW95653   9.773   4.057   5.720  0.2652 -0.3460 -0.1629
61908SOL    HW195654   9.680   4.062   5.741  0.4968 -1.0044  1.1277
61908SOL    HW295655   9.794   3.964   5.728  1.0275 -0.2094 -0.5025
61909SOL     OW95656   1.218   8.147  11.439 -0.3268  0.4558  0.3825
61909SOL    HW195657   1.168   8.200  11.500  0.2796  0.9763  0.4390
61909SOL    HW295658   1.219   8.198  11.358  0.7838  0.8440  0.6189
61910SOL     OW95659  13.038  11.289   1.619 -0.4977 -0.0503  0.5251
61910SOL    HW195660  13.045  11.199   1.649 -1.1971  0.4510  2.3201
61910SOL    HW295661  13.123  11.307   1.579  0.7076 -0.6791  2.6402
61911SOL     OW95662   5.198  10.944  12.366 -0.0811 -0.1036 -0.1583
61911SOL    HW195663   5.270  10.912  12.311  0.4717 -0.3559  0.6948
61911SOL    HW295664   5.242  10.993  12.435 -0.6514 -1.1658  0.9827
61912SOL     OW95665  12.282  11.060  10.819 -0.3579 -0.2177  0.2314
61912SOL    HW195666  12.256  10.984  10.767 -0.5502 -0.0358  0.0611
61912SOL    HW295667  12.309  11.024  10.903 -1.4342 -0.3722  0.5120
61913SOL     OW95668   8.370   1.516   0.889  0.5291  0.2922 -0.1238
61913SOL    HW195669   8.333   1.601   0.867 -0.4572 -0.1942 -0.3968
61913SOL    HW295670   8.379   1.517   0.985 -0.1461  0.4422 -0.0575
61914SOL     OW95671   0.195  10.068  13.177  0.4031 -0.4359  0.0775
61914SOL    HW195672   0.100  10.062  13.169  0.2604 -0.6502  1.6919
61914SOL    HW295673   0.223   9.981  13.204  0.8967 -0.0371  0.8960
61915SOL     OW95674   7.429  12.419  13.223 -0.3893 -0.2835  0.3128
61915SOL    HW195675   7.380  12.424  13.305 -0.7513  0.2352  0.0710
61915SOL    HW295676   7.390  12.344  13.177  0.4324 -1.1479  1.0023
61916SOL     OW95677   3.197  11.906   3.933  0.6301  0.6867  0.0607
61916SOL    HW195678   3.161  11.973   3.991 -0.2685  0.1360  0.1612
61916SOL    HW295679   3.213  11.831   3.989 -0.1178  0.1956 -0.3592
61917SOL     OW95680   9.629   9.353   2.726 -0.4112  0.7183 -0.6474
61917SOL    HW195681   9.691   9.406   2.676 -0.7614  0.6140 -1.1992
61917SOL    HW295682   9.680   9.278   2.757  0.1368  1.4728  0.3113
61918SOL     OW95683   8.574   0.012   0.110  0.7601 -0.0958 -0.0467
61918SOL    HW195684   8.491  -0.033   0.091  0.4779  0.7101 -0.8156
61918SOL    HW295685   8.548   0.100   0.138  1.3606  1.0704 -2.8015
61919SOL     OW95686   4.215   9.721   2.175 -0.1931 -0.6702  0.1820
61919SOL    HW195687   4.194   9.703   2.084  0.8351 -0.0637 -0.2019
61919SOL    HW295688   4.258   9.807   2.173 -0.8168 -0.3100  1.3317
61920SOL     OW95689  12.403   4.636   3.533  0.4341 -0.8744 -0.3490
61920SOL    HW195690  12.424   4.640   3.626 -1.2370 -0.2005  0.0356
61920SOL    HW295691  12.372   4.546   3.520 -1.2043 -0.4311  0.2214
61921SOL     OW95692   3.893   2.495   2.916 -0.1966 -0.3120 -0.4476
61921SOL    HW195693   3.841   2.573   2.935  0.3450 -0.1876  0.6026
61921SOL    HW295694   3.940   2.517   2.836  0.2895  0.6221  0.0748
61922SOL     OW95695   9.311   8.961   0.086  0.1819 -0.4974 -0.0322
61922SOL    HW195696   9.223   8.972   0.049 -0.4302 -1.6719  1.0042
61922SOL    HW295697   9.322   9.036   0.144 -0.6934 -1.0306  0.8497
61923SOL     OW95698   4.592   0.067   0.679 -0.0686  0.1466  0.1856
61923SOL    HW195699   4.623  -0.020   0.651  1.3529  0.6987 -0.0328
61923SOL    HW295700   4.539   0.049   0.757 -1.4191 -1.0968 -0.9503
61924SOL     OW95701   8.051  11.125   7.948 -0.8140  1.0701  0.6316
61924SOL    HW195702   7.982  11.147   8.010 -0.9333 -0.8221  1.2214
61924SOL    HW295703   8.036  11.033   7.927  0.6965  1.0093 -0.3294
61925SOL     OW95704   7.195   0.588  12.589 -0.1611 -0.1949  0.2158
61925SOL    HW195705   7.185   0.628  12.503  1.8275  1.1570  0.5260
61925SOL    HW295706   7.148   0.645  12.649  0.0428 -0.0706  0.2587
61926SOL     OW95707   6.481   5.895  10.363  0.0243 -0.1334 -0.0059
61926SOL    HW195708   6.401   5.903  10.415 -0.7610  1.4706 -1.3269
61926SOL    HW295709   6.550   5.932  10.418 -0.3568 -0.5066  0.7318
61927SOL     OW95710   1.796   4.338   9.613  0.1360  0.1019 -0.1446
61927SOL    HW195711   1.710   4.342   9.570  0.4396 -0.2613 -0.7923
61927SOL    HW295712   1.811   4.245   9.628  0.1945  0.2036  0.4256
61928SOL     OW95713   4.043   6.188   6.282 -0.3196 -0.5266  0.6590
61928SOL    HW195714   4.130   6.216   6.311 -1.2806  1.6105  1.7174
61928SOL    HW295715   3.983   6.232   6.342 -2.1821 -1.0022 -0.7722
61929SOL     OW95716   5.425  12.287   5.020 -0.1872  0.2433 -0.0203
61929SOL    HW195717   5.483  12.349   4.976 -0.6179  0.6056 -0.0946
61929SOL    HW295718   5.341  12.298   4.976 -0.7866  1.0221  1.2254
61930SOL     OW95719   8.419   9.983   3.899  0.0410  0.1535  0.3729
61930SOL    HW195720   8.375   9.898   3.901  0.6473 -0.1634  0.4992
61930SOL    HW295721   8.508   9.965   3.929  1.0370  0.3331 -2.2258
61931SOL     OW95722   0.068  13.113   0.584  0.4583 -0.5962  0.2857
61931SOL    HW195723   0.071  13.194   0.533 -1.3629 -0.5930  0.1217
61931SOL    HW295724   0.057  13.143   0.674 -0.3478 -0.6421  0.2105
61932SOL     OW95725   5.404   4.855   2.637  0.2310  0.7168 -0.0722
61932SOL    HW195726   5.495   4.883   2.647  0.2372  1.0973 -1.1627
61932SOL    HW295727   5.353   4.925   2.678  0.2629  2.2404 -2.4961
61933SOL     OW95728  12.500   0.292   8.378  0.7135 -0.0382 -0.0019
61933SOL    HW195729  12.501   0.219   8.440  0.9413 -0.7324 -0.8110
61933SOL    HW295730  12.575   0.346   8.404  1.6880 -1.0893 -0.5562
61934SOL     OW95731  11.299  12.073   1.868  0.4348  0.4062 -0.2436
61934SOL    HW195732  11.209  12.045   1.883  0.2988  0.6929 -0.5119
61934SOL    HW295733  11.296  12.168   1.875  1.1204  0.3166  1.8828
61935SOL     OW95734  11.312  12.594   5.729 -0.1737  0.2768 -0.1814
61935SOL    HW195735  11.356  12.646   5.796  0.7464  1.6476 -1.7657
61935SOL    HW295736  11.219  12.613   5.741 -0.1767 -0.7014  1.6336
61936SOL     OW95737   0.727  11.428   6.363  0.3446 -0.0003 -0.5410
61936SOL    HW195738   0.775  11.376   6.427  0.7425  1.1079  0.1011
61936SOL    HW295739   0.794  11.485   6.324 -0.0070 -0.2340 -1.5143
61937SOL     OW95740  10.332  12.797   6.212 -0.6736  0.5560  0.1794
61937SOL    HW195741  10.335  12.718   6.264 -2.5419  0.2405 -0.0891
61937SOL    HW295742  10.415  12.842   6.229  0.9719 -2.0139 -0.5985
61938SOL     OW95743   3.788  12.347   3.633  0.1221 -0.0391  0.4392
61938SOL    HW195744   3.863  12.315   3.583 -0.9593  0.0863 -1.3120
61938SOL    HW295745   3.779  12.439   3.606  0.4891  0.5323  2.1078
61939SOL     OW95746   2.863   5.313  12.766 -0.0420 -0.3624  0.1392
61939SOL    HW195747   2.890   5.259  12.692 -2.2979 -1.1467 -0.1972
61939SOL    HW295748   2.841   5.251  12.834 -4.5445 -0.2119 -0.8804
61940SOL     OW95749   9.313   8.059  10.975 -0.1085 -0.0581  0.2975
61940SOL    HW195750   9.287   8.070  11.066 -2.3300  1.3881 -0.4099
61940SOL    HW295751   9.278   8.136  10.931  1.3743 -0.4492 -1.7033
61941SOL     OW95752   0.555   6.715   9.858  0.0191 -0.1500 -0.7459
61941SOL    HW195753   0.546   6.807   9.880  0.7209 -0.4984  1.2672
61941SOL    HW295754   0.474   6.674   9.889 -0.4666 -0.1784 -1.9973
61942SOL     OW95755   2.201   6.214   2.841 -0.0003 -0.1185 -0.4281
61942SOL    HW195756   2.283   6.259   2.819  1.2074 -2.2106 -0.5188
61942SOL    HW295757   2.210   6.127   2.801 -1.0458 -1.3785  1.8536
61943SOL     OW95758   8.266   8.937   3.046  0.1251 -0.5961 -0.1937
61943SOL    HW195759   8.179   8.903   3.068 -0.7023  2.0055  1.0363
61943SOL    HW295760   8.324   8.898   3.111 -0.5031 -0.8072  0.2485
61944SOL     OW95761   6.582  13.233   0.850 -0.4066  0.2860 -0.0606
61944SOL    HW195762   6.586  13.277   0.935 -1.3100  4.0181 -1.7584
61944SOL    HW295763   6.495  13.253   0.816 -0.0238 -0.9943 -1.9507
61945SOL     OW95764   5.431  11.373   3.827  0.3061  0.1188  0.1871
61945SOL    HW195765   5.361  11.436   3.806  0.2151  0.1135  0.4763
61945SOL    HW295766   5.496  11.424   3.875  0.7515  0.2448 -0.5401
61946SOL     OW95767   6.262   9.618   0.125 -0.0158  0.0875 -0.1505
61946SOL    HW195768   6.188   9.558   0.125  1.0750 -1.3153  0.1760
61946SOL    HW295769   6.223   9.705   0.137 -1.7802 -0.3436 -2.1939
61947SOL     OW95770  12.773   2.888   7.784  0.0918  0.0384 -0.3948
61947SOL    HW195771  12.692   2.879   7.833 -1.0459  0.0078 -2.2121
61947SOL    HW295772  12.768   2.821   7.717  1.6933 -0.0426 -0.4719
61948SOL     OW95773  12.485   3.225   0.794 -0.4265 -0.3605  0.3607
61948SOL    HW195774  12.480   3.129   0.792 -0.0807 -0.3930  1.0530
61948SOL    HW295775  12.577   3.245   0.779 -0.4259 -0.1433  0.6655
61949SOL     OW95776  12.575  10.895   6.772 -0.0785  0.1058  0.3128
61949SOL    HW195777  12.579  10.943   6.689 -0.5392 -1.5688 -0.7276
61949SOL    HW295778  12.566  10.963   6.839 -3.4981  1.4179 -1.2497
61950SOL     OW95779   3.061  10.389   8.764 -0.2216 -0.3321 -0.1020
61950SOL    HW195780   3.040  10.404   8.856 -0.7241 -0.0964 -0.2552
61950SOL    HW295781   3.007  10.315   8.739  1.1949 -1.5494  0.2573
61951SOL     OW95782  11.326  13.054   9.567 -0.2991  0.0457 -0.0389
61951SOL    HW195783  11.238  13.090   9.578  0.3827  1.5051  0.9316
61951SOL    HW295784  11.367  13.065   9.652  1.6670  1.7754 -1.1307
61952SOL     OW95785  12.722   2.733  10.000 -0.0618  0.0314  0.0325
61952SOL    HW195786  12.659   2.773  10.061  0.2546  1.3867 -0.5043
61952SOL    HW295787  12.781   2.683  10.057 -0.7129 -0.0188  0.6865
61953SOL     OW95788  11.784   1.866  13.188  0.4142  0.4803  0.2306
61953SOL    HW195789  11.834   1.880  13.269 -0.1190 -2.1852  1.1212
61953SOL    HW295790  11.849   1.874  13.118  2.0960 -2.2811  1.3151
61954SOL     OW95791   8.096  12.920   2.710 -0.2973 -0.3338 -0.1551
61954SOL    HW195792   8.120  12.998   2.661 -1.0562 -0.0773 -0.1410
61954SOL    HW295793   8.116  12.941   2.801 -0.4439 -0.1733 -0.1590
61955SOL     OW95794   1.578   7.347   3.314  0.3450  0.3566  0.4879
61955SOL    HW195795   1.623   7.274   3.271 -0.1927 -0.8192  1.8204
61955SOL    HW295796   1.648   7.407   3.338  0.9396 -0.2777  0.3827
61956SOL     OW95797   7.843   7.128  12.633 -0.0002 -0.0809  0.4233
61956SOL    HW195798   7.855   7.165  12.720  1.8455  1.5915 -0.4534
61956SOL    HW295799   7.766   7.173  12.598  0.9159  1.3331  0.1868
61957SOL     OW95800   1.297  12.072  11.203  0.0710 -0.2669  0.1795
61957SOL    HW195801   1.270  12.055  11.293  0.2791 -0.4939  0.2013
61957SOL    HW295802   1.229  12.129  11.167 -1.7238 -2.6738 -0.5036
61958SOL     OW95803   2.538   1.817   8.589  0.1032 -0.1684  0.3098
61958SOL    HW195804   2.468   1.865   8.545 -0.9650 -0.5949  1.4667
61958SOL    HW295805   2.566   1.751   8.526  1.5409  1.8476 -1.2797
61959SOL     OW95806   0.508  10.182   2.110 -0.1898  0.2573  0.0409
61959SOL    HW195807   0.547  10.124   2.044  1.4297  1.5093 -0.1571
61959SOL    HW295808   0.449  10.239   2.061 -0.8950 -0.4318  0.0680
61960SOL     OW95809  12.705   8.779   4.766  0.1277  0.0703 -0.3815
61960SOL    HW195810  12.732   8.781   4.858 -0.9459  0.9603 -0.0685
61960SOL    HW295811  12.658   8.697   4.756  2.6527 -1.4268 -0.8916
61961SOL     OW95812   8.723   6.590   3.417  0.0802 -0.9594 -0.1726
61961SOL    HW195813   8.733   6.632   3.331  0.2250 -1.9628 -0.6543
61961SOL    HW295814   8.662   6.647   3.463  0.7225  0.1162 -0.5883
61962SOL     OW95815   6.310   4.550   9.451  0.5795  0.0284 -0.6622
61962SOL    HW195816   6.358   4.477   9.410 -0.5523  0.2235 -2.4691
61962SOL    HW295817   6.227   4.553   9.403 -0.8055  0.4154  1.6105
61963SOL     OW95818   6.046   6.735   6.623 -0.5361  0.6886  0.4363
61963SOL    HW195819   6.103   6.727   6.547 -2.7418  0.5910 -1.2924
61963SOL    HW295820   5.985   6.662   6.616 -2.3429  2.0762  0.8869
61964SOL     OW95821   4.616   3.063  13.073 -0.5438 -0.1165  0.1713
61964SOL    HW195822   4.591   2.988  13.019  0.3003  0.2230 -0.7190
61964SOL    HW295823   4.594   3.139  13.019  0.5367  0.2227  0.1813
61965SOL     OW95824   2.346   8.601   0.671 -0.3251  0.1915 -0.3775
61965SOL    HW195825   2.330   8.653   0.592 -0.6556  0.6151 -0.0394
61965SOL    HW295826   2.282   8.634   0.734  0.3415  0.2771  0.2619
61966SOL     OW95827   4.287   3.868   7.913 -0.2785  0.8267 -0.0732
61966SOL    HW195828   4.362   3.921   7.884  1.0878 -0.3714  1.0777
61966SOL    HW295829   4.245   3.921   7.980  2.6733 -0.3987  3.0698
61967SOL     OW95830   9.907   9.502   9.861  0.5426  0.6132 -0.0247
61967SOL    HW195831   9.906   9.412   9.893  0.5864  0.3698 -0.6898
61967SOL    HW295832  10.000   9.521   9.847  0.5155  0.6812 -0.1102
61968SOL     OW95833   3.580   5.411   0.018 -0.3348  0.2101  0.4223
61968SOL    HW195834   3.602   5.496   0.057 -1.4736  1.2203 -1.0274
61968SOL    HW295835   3.485   5.412   0.009 -0.3216 -1.0187 -0.1060
61969SOL     OW95836  12.524   0.269   2.179 -0.1611 -0.3058 -0.5083
61969SOL    HW195837  12.504   0.224   2.098 -0.6445 -0.3907 -0.3448
61969SOL    HW295838  12.542   0.200   2.242  1.0668 -0.2215 -0.7545
61970SOL     OW95839   0.014   1.762  10.863 -0.3628  0.0168  0.1949
61970SOL    HW195840   0.101   1.801  10.859 -0.7248  0.9452  0.8135
61970SOL    HW295841   0.015   1.709  10.943  0.0462 -1.0610 -0.5079
61971SOL     OW95842   2.633   4.348   8.518 -0.0216 -0.4605 -0.1609
61971SOL    HW195843   2.636   4.301   8.601  0.1366  0.2201  0.2268
61971SOL    HW295844   2.540   4.367   8.505 -0.3379 -2.5137 -1.2750
61972SOL     OW95845   1.483  13.287  11.433  0.2018  0.3943  0.0979
61972SOL    HW195846   1.447  13.272  11.521 -0.0032  1.5390  0.2256
61972SOL    HW295847   1.531  13.370  11.441  1.2323 -0.1159 -0.5638
61973SOL     OW95848   8.600   3.578   4.143  0.6295 -0.0986 -0.0267
61973SOL    HW195849   8.603   3.485   4.165  4.0146  0.3306  2.0933
61973SOL    HW295850   8.636   3.583   4.055  1.5325 -0.7638  0.2841
61974SOL     OW95851  10.848  12.241  10.436  0.1744 -0.1285  0.5986
61974SOL    HW195852  10.770  12.185  10.438  0.7505 -1.0856 -1.5139
61974SOL    HW295853  10.844  12.290  10.519 -0.4409 -3.1255  2.5028
61975SOL     OW95854   7.717   6.587  11.968 -0.2021 -0.1438 -0.1831
61975SOL    HW195855   7.704   6.584  12.063 -1.3996 -1.1388 -0.3671
61975SOL    HW295856   7.678   6.670  11.941  0.4071  0.2848  0.2148
61976SOL     OW95857   9.112   7.595  11.272 -0.6962  0.0559  0.0813
61976SOL    HW195858   9.196   7.630  11.241 -1.1088 -0.0794 -1.2641
61976SOL    HW295859   9.048   7.661  11.247 -0.9554  0.3558  1.4855
61977SOL     OW95860   2.018   7.283   2.660 -0.6527  0.5165 -0.1482
61977SOL    HW195861   2.038   7.240   2.576 -2.0411  0.4824 -0.4913
61977SOL    HW295862   1.942   7.338   2.641 -0.8775  0.6431  1.0457
61978SOL     OW95863   0.389   4.200   3.076 -0.5240 -0.4730  0.3480
61978SOL    HW195864   0.396   4.197   2.981  1.7999  1.3286  0.3401
61978SOL    HW295865   0.455   4.138   3.108  1.0678  1.2931  0.6737
61979SOL     OW95866   0.678   9.407   5.022  0.2323 -0.1434 -0.2437
61979SOL    HW195867   0.762   9.409   4.976 -0.4022  0.0373 -1.4460
61979SOL    HW295868   0.617   9.452   4.963 -1.3347 -2.6653 -0.7191
61980SOL     OW95869   3.501   0.343   1.416  0.9017  0.3324  0.4061
61980SOL    HW195870   3.571   0.397   1.379  0.3272  0.4278 -0.5899
61980SOL    HW295871   3.528   0.326   1.506  0.6445  3.0941  1.0907
61981SOL     OW95872   9.883   7.012   4.131 -0.0274 -0.6575 -0.1582
61981SOL    HW195873   9.853   7.027   4.041 -0.9091 -1.1238  0.0478
61981SOL    HW295874   9.916   7.098   4.160 -2.2358  0.2081 -0.0068
61982SOL     OW95875   5.007   5.217   0.564  0.3019  0.2834 -0.0026
61982SOL    HW195876   4.961   5.177   0.490 -1.4040  1.7302  0.1960
61982SOL    HW295877   5.096   5.231   0.532  0.5817 -2.2641 -0.5470
61983SOL     OW95878   7.105   6.220  12.688 -0.2407  0.3536 -0.2128
61983SOL    HW195879   7.040   6.250  12.625  1.3220  1.8030 -1.2264
61983SOL    HW295880   7.086   6.269  12.767 -1.2047 -0.2624 -0.0457
61984SOL     OW95881  11.088   7.765   4.964 -0.4098 -0.0551  0.4661
61984SOL    HW195882  11.085   7.714   5.045 -0.7415 -0.4595  0.2063
61984SOL    HW295883  11.001   7.753   4.926 -0.4015  0.4897  0.2649
61985SOL     OW95884   0.283   7.563   8.064  0.1668  0.0816 -0.1710
61985SOL    HW195885   0.338   7.486   8.050  0.7387  0.2565  0.9876
61985SOL    HW295886   0.335   7.620   8.120 -0.5803  0.9526 -0.3403
61986SOL     OW95887   5.115  10.929   0.124 -0.5087  1.0153 -0.6484
61986SOL    HW195888   5.135  10.954   0.034 -0.3100  1.4664 -0.4801
61986SOL    HW295889   5.176  10.980   0.178 -2.4925  2.9441 -0.0662
61987SOL     OW95890   2.259   1.429  10.311 -0.0556  0.0458 -0.4426
61987SOL    HW195891   2.243   1.338  10.336  0.7695  0.4562  1.7391
61987SOL    HW295892   2.171   1.465  10.298 -0.4159 -0.8452 -0.5993
61988SOL     OW95893   4.951   5.180  12.270 -0.0729 -0.2229 -0.5571
61988SOL    HW195894   4.924   5.144  12.354 -0.3384  0.3059 -0.4114
61988SOL    HW295895   4.906   5.127  12.205  0.5525 -0.9745 -0.3835
61989SOL     OW95896  12.616  13.009   1.727  0.0202  0.3372 -0.7896
61989SOL    HW195897  12.584  12.974   1.644  1.0594 -0.8020 -0.7458
61989SOL    HW295898  12.699  13.052   1.704 -0.4234  1.3465 -0.5649
61990SOL     OW95899   7.003  10.543   0.470 -0.4233 -0.1087  0.0331
61990SOL    HW195900   7.044  10.468   0.513  0.1965 -0.3016 -0.8716
61990SOL    HW295901   6.984  10.512   0.381 -0.3632  0.7363 -0.2774
61991SOL     OW95902  12.535   8.605   8.458  0.2138 -0.2844  0.0681
61991SOL    HW195903  12.520   8.578   8.368 -0.4239  0.2222  0.0125
61991SOL    HW295904  12.494   8.692   8.464  0.1010 -0.3858  0.8820
61992SOL     OW95905   6.724   7.034   0.762 -0.1872 -0.3050  0.2930
61992SOL    HW195906   6.674   7.106   0.800 -0.7504  0.1194 -1.1618
61992SOL    HW295907   6.767   7.073   0.685 -1.0057 -1.6441 -0.8932
61993SOL     OW95908   2.488   0.288   2.141  0.4155  0.2010 -0.4362
61993SOL    HW195909   2.567   0.245   2.109  0.4824 -0.2227  0.2897
61993SOL    HW295910   2.422   0.219   2.143 -0.0436  0.5929 -1.2336
61994SOL     OW95911   8.404  11.383   1.519 -0.6115  0.4973 -0.2937
61994SOL    HW195912   8.436  11.398   1.608  0.3797  1.2483 -0.7543
61994SOL    HW295913   8.335  11.448   1.506  0.0344  1.1676 -0.4533
61995SOL     OW95914  10.763   5.683   4.319  0.3503 -0.5838 -0.0722
61995SOL    HW195915  10.672   5.662   4.300 -0.2204  1.3326  0.3427
61995SOL    HW295916  10.765   5.779   4.325  2.2789 -0.6175  0.5058
61996SOL     OW95917   7.900  12.615   6.849 -0.5473  0.1248 -0.4697
61996SOL    HW195918   7.867  12.687   6.902  0.8341  1.0790 -0.8308
61996SOL    HW295919   7.846  12.615   6.770 -1.4762 -0.1806  0.1545
61997SOL     OW95920   7.315  10.451   8.152  0.4168 -0.4758  0.2820
61997SOL    HW195921   7.238  10.403   8.121  1.3502 -1.2395 -0.9274
61997SOL    HW295922   7.339  10.508   8.079  0.6437  0.2399  0.8920
61998SOL     OW95923   0.230   2.268   9.660 -0.0017  0.2403 -0.0540
61998SOL    HW195924   0.213   2.177   9.684  1.7938 -0.5722 -1.6022
61998SOL    HW295925   0.176   2.283   9.582 -0.4100  0.5755  0.2855
61999SOL     OW95926  12.323   2.638   5.285  0.5068 -0.0081  0.5232
61999SOL    HW195927  12.261   2.710   5.274 -0.2827 -0.4392  1.8953
61999SOL    HW295928  12.401   2.678   5.323  0.3685  0.2457  0.5394
62000SOL     OW95929   0.741   2.201   6.836 -0.5044  0.4342  0.1146
62000SOL    HW195930   0.786   2.152   6.905 -0.0139  2.0455  1.0016
62000SOL    HW295931   0.654   2.218   6.872 -0.8889 -0.2960 -0.4477
62001SOL     OW95932   1.124   2.163   0.489  0.6134 -0.3908  0.4406
62001SOL    HW195933   1.199   2.221   0.499  0.1470  0.2323  0.3991
62001SOL    HW295934   1.049   2.215   0.520 -0.0950 -0.2825 -1.3115
62002SOL     OW95935   4.542   2.266   7.613  0.4540 -0.4224  0.2702
62002SOL    HW195936   4.563   2.173   7.623 -1.6581 -0.9460  0.3378
62002SOL    HW295937   4.527   2.277   7.519  0.3804 -0.2250  0.3051
62003SOL     OW95938   5.958   6.104   7.014  0.2385 -0.0952 -0.6545
62003SOL    HW195939   6.038   6.051   7.016 -0.0486 -0.5044  1.0552
62003SOL    HW295940   5.889   6.045   7.043 -0.3690  0.7808 -0.2829
62004SOL     OW95941   2.551   3.431   1.354 -0.2653 -0.2749 -0.3837
62004SOL    HW195942   2.565   3.342   1.384 -0.6208 -0.8036 -1.7464
62004SOL    HW295943   2.637   3.473   1.362 -0.0260 -0.8181 -0.0598
62005SOL     OW95944   7.893   3.753   0.332 -0.2061  0.6613  0.0928
62005SOL    HW195945   7.947   3.690   0.380 -2.4257 -0.5761  1.1466
62005SOL    HW295946   7.910   3.734   0.240  0.0218 -0.7329  0.3951
62006SOL     OW95947  11.287   8.252  12.686  0.1473 -0.2304 -0.0939
62006SOL    HW195948  11.329   8.242  12.772  0.8167 -2.5467 -0.6428
62006SOL    HW295949  11.198   8.220  12.699 -0.5503  1.6973  0.2704
62007SOL     OW95950  11.470   8.943   9.867 -0.1553 -0.5662 -0.6597
62007SOL    HW195951  11.544   8.967   9.923 -0.2379  0.5398 -0.9946
62007SOL    HW295952  11.398   8.928   9.928  0.2531 -1.3094 -0.3534
62008SOL     OW95953   0.622   5.155   3.311  0.0208 -0.0465  0.4599
62008SOL    HW195954   0.714   5.158   3.283 -0.2723  0.7067 -0.4672
62008SOL    HW295955   0.572   5.156   3.230 -0.8167 -1.1112  0.9425
62009SOL     OW95956   0.611   6.453   2.539 -0.3586 -0.1709  0.2667
62009SOL    HW195957   0.609   6.457   2.444 -0.3202  1.2204  0.2978
62009SOL    HW295958   0.522   6.428   2.564 -0.7183  0.6601 -0.1178
62010SOL     OW95959  11.250   1.293   6.238  0.5749 -0.3349 -0.3383
62010SOL    HW195960  11.333   1.300   6.286 -0.8403  1.6384  2.0599
62010SOL    HW295961  11.235   1.199   6.231  2.1163 -0.7228  0.8643
62011SOL     OW95962   5.432   3.105   4.058 -0.4388  0.0469 -0.4021
62011SOL    HW195963   5.484   3.145   3.988  0.7711 -2.0678 -0.8104
62011SOL    HW295964   5.389   3.178   4.101 -2.7291  1.3927 -4.4796
62012SOL     OW95965   2.168   1.495   8.293  0.0640  0.1456 -0.3704
62012SOL    HW195966   2.127   1.580   8.311  0.6630  0.6743 -1.3369
62012SOL    HW295967   2.108   1.452   8.232  1.2103  1.2280 -2.3695
62013SOL     OW95968  10.631   6.685  10.072  0.2688  0.0807 -0.2591
62013SOL    HW195969  10.583   6.648  10.146 -1.8898  2.1889 -0.5059
62013SOL    HW295970  10.568   6.685  10.000  0.7876  2.3668 -0.7797
62014SOL     OW95971  11.603  12.351   1.474  0.1486 -0.2855  0.0542
62014SOL    HW195972  11.564  12.307   1.550  0.0935 -0.1780  0.0882
62014SOL    HW295973  11.638  12.433   1.509  1.8289 -1.0919  0.3405
62015SOL     OW95974   4.704   5.551   6.809  0.4825 -0.5735 -0.3853
62015SOL    HW195975   4.673   5.467   6.776  0.2144 -0.1199 -1.3290
62015SOL    HW295976   4.706   5.541   6.904 -0.9538 -1.1758 -0.3977
62016SOL     OW95977   5.589   5.611   0.073 -0.0356 -0.4016  0.4358
62016SOL    HW195978   5.578   5.702   0.103  1.9261 -0.0537  0.2621
62016SOL    HW295979   5.623   5.620  -0.016 -0.3341 -1.3369  0.2222
62017SOL     OW95980   0.414   0.120  12.236 -0.2317  0.3322  0.3825
62017SOL    HW195981   0.419   0.027  12.212  2.2135  0.6527 -0.6064
62017SOL    HW295982   0.492   0.136  12.288 -1.3241  1.5760  1.7229
62018SOL     OW95983   1.645   0.377  11.669 -0.9089  0.5159  0.3017
62018SOL    HW195984   1.625   0.470  11.665  0.1152  0.6969 -1.6014
62018SOL    HW295985   1.559   0.334  11.673 -1.4573  1.4912 -0.5469
62019SOL     OW95986   2.396   5.153   3.209  0.1832  0.4514 -0.1212
62019SOL    HW195987   2.319   5.197   3.173 -0.1894  0.0380  0.1658
62019SOL    HW295988   2.409   5.076   3.154  0.5678  0.6787 -0.3498
62020SOL     OW95989  10.402   6.530   5.415  0.3479  0.1997 -0.4331
62020SOL    HW195990  10.436   6.586   5.484 -0.2554  0.0209  0.0090
62020SOL    HW295991  10.481   6.501   5.367  0.7549  0.4038  0.1071
62021SOL     OW95992   9.629   9.822   3.200  0.4910  0.2743 -0.1924
62021SOL    HW195993   9.565   9.751   3.207  0.5029  0.2878  0.0372
62021SOL    HW295994   9.643   9.831   3.106 -0.5099  0.8475 -0.3049
62022SOL     OW95995   0.543   0.872  10.746  0.1178 -0.0318 -0.8406
62022SOL    HW195996   0.517   0.865  10.838  0.4539 -2.0285 -0.8510
62022SOL    HW295997   0.593   0.792  10.730  3.6068  2.1154 -1.6702
62023SOL     OW95998  11.937   8.703   0.999  0.7830  0.3053  0.1845
62023SOL    HW195999  11.942   8.798   1.008 -0.3502  0.3924  0.0806
62023SOL    HW296000  12.026   8.672   1.016  1.4048  1.4642 -0.8001
62024SOL     OW96001  10.419   8.615   9.617  0.2518  1.0561  0.2319
62024SOL    HW196002  10.492   8.622   9.555 -0.0456  0.1489 -0.2395
62024SOL    HW296003  10.345   8.652   9.570  0.0752  0.5738  0.1268
62025SOL     OW96004   4.736  10.816  12.880 -0.3786  0.0976 -0.1935
62025SOL    HW196005   4.823  10.803  12.843  0.6293 -0.9426  2.3344
62025SOL    HW296006   4.751  10.868  12.959 -2.1839  0.7627 -0.2581
62026SOL     OW96007   7.713   7.081   7.303  0.5154 -0.3020 -0.1049
62026SOL    HW196008   7.741   7.164   7.264  0.9101 -0.6615 -0.5941
62026SOL    HW296009   7.703   7.021   7.229  0.7944 -0.8540  0.2959
62027SOL     OW96010   1.748  13.222   1.602  0.7231 -0.0832  0.0304
62027SOL    HW196011   1.666  13.269   1.584  0.5732 -0.4700 -0.3073
62027SOL    HW296012   1.777  13.257   1.686 -1.0797 -1.6750  1.4039
62028SOL     OW96013   8.070  12.679   3.858 -0.2534  0.2075  0.3513
62028SOL    HW196014   7.976  12.697   3.858  0.1684  2.7801  0.0329
62028SOL    HW296015   8.095  12.682   3.766  0.3826  1.2047  0.5392
62029SOL     OW96016   8.138   0.152   7.611  0.0207  0.3355  0.0574
62029SOL    HW196017   8.230   0.177   7.604 -0.1706  0.9785 -0.3344
62029SOL    HW296018   8.129   0.076   7.554 -0.0071  1.2291 -1.1712
62030SOL     OW96019   6.714  12.682   6.409 -0.3225 -0.3821 -0.0266
62030SOL    HW196020   6.621  12.664   6.420 -0.3260  0.8368  2.7764
62030SOL    HW296021   6.757  12.626   6.474  0.6337  0.9019  0.4998
62031SOL     OW96022   4.129   4.888   9.479 -0.1306 -0.3919 -0.5790
62031SOL    HW196023   4.200   4.841   9.524 -1.0252  0.1950  1.5206
62031SOL    HW296024   4.057   4.888   9.541 -0.6761  2.4671 -1.1015
62032SOL     OW96025   9.616   5.766   1.792  0.3016  0.2340 -0.5341
62032SOL    HW196026   9.647   5.767   1.702 -0.4624 -0.0854 -0.8145
62032SOL    HW296027   9.530   5.809   1.789 -0.8578 -1.9253 -0.4271
62033SOL     OW96028   7.319  13.277   3.022  0.1503  0.2285 -0.1747
62033SOL    HW196029   7.382  13.343   2.992  1.3401  0.5978  2.7396
62033SOL    HW296030   7.373  13.210   3.064 -1.2628 -0.4722  0.6134
62034SOL     OW96031   6.112  10.987   1.216 -0.0807 -0.0792 -0.2099
62034SOL    HW196032   6.026  10.982   1.172  0.1497 -1.6231 -0.5235
62034SOL    HW296033   6.093  10.970   1.308 -0.3177  1.3165  0.0221
62035SOL     OW96034  10.291   0.487   5.323 -0.5799  0.1099 -0.9731
62035SOL    HW196035  10.312   0.451   5.410 -0.1963  1.6124 -0.4095
62035SOL    HW296036  10.342   0.568   5.318  0.0514 -0.3575 -2.9573
62036SOL     OW96037   7.452   6.549   5.743 -0.3408  0.2767  0.2980
62036SOL    HW196038   7.496   6.479   5.695 -1.5777 -1.0248  1.0031
62036SOL    HW296039   7.496   6.553   5.828 -1.3663 -0.8494  0.9060
62037SOL     OW96040   3.373   1.153   6.843  0.3583  0.0484  0.5388
62037SOL    HW196041   3.344   1.243   6.828  0.6443  0.2627  1.2542
62037SOL    HW296042   3.447   1.142   6.784 -0.0414  0.0790  0.0154
62038SOL     OW96043   7.869  12.905  10.489 -0.1286  0.2273 -0.4661
62038SOL    HW196044   7.957  12.910  10.451 -0.1650 -0.4611 -0.6540
62038SOL    HW296045   7.830  12.828  10.448 -1.4146  1.4416 -1.6024
62039SOL     OW96046  12.279   0.246   9.755  0.0250  0.2970  0.2286
62039SOL    HW196047  12.194   0.270   9.793  0.8962  1.5017  1.5584
62039SOL    HW296048  12.340   0.310   9.793  1.2410  0.6470 -2.1184
62040SOL     OW96049   7.639  10.786   5.616 -0.4439 -0.1781 -0.1493
62040SOL    HW196050   7.695  10.835   5.556 -1.7288 -1.0028 -2.1371
62040SOL    HW296051   7.622  10.846   5.688  1.0382  0.9177 -0.6679
62041SOL     OW96052   3.959   9.327   0.176 -0.2120  1.0353  0.4201
62041SOL    HW196053   3.906   9.300   0.101  0.3286 -1.9069  0.9977
62041SOL    HW296054   3.898   9.377   0.231 -1.8611 -0.4666  0.0577
62042SOL     OW96055   8.352  12.684   9.231 -0.4605  0.4898  0.3746
62042SOL    HW196056   8.396  12.743   9.293  0.0638  1.1574 -0.5935
62042SOL    HW296057   8.260  12.688   9.256 -0.7687  3.2436 -0.7725
62043SOL     OW96058   8.396   1.687  12.997  0.5035 -0.4769  0.2161
62043SOL    HW196059   8.323   1.705  13.058 -0.8750 -0.9460 -1.2313
62043SOL    HW296060   8.384   1.751  12.927  0.4309 -1.6697 -0.8979
62044SOL     OW96061  12.290   1.149   5.852  0.2592 -0.3915 -0.3336
62044SOL    HW196062  12.299   1.111   5.764  1.1714 -1.1537  0.0819
62044SOL    HW296063  12.243   1.082   5.902 -1.1519  0.4386 -0.4632
62045SOL     OW96064   1.203  10.873  12.390  0.1769  0.3638  0.4741
62045SOL    HW196065   1.167  10.796  12.436  2.0282  0.6163  2.5519
62045SOL    HW296066   1.147  10.945  12.418 -1.1322 -0.0600 -0.9164
62046SOL     OW96067   7.897  12.440   2.953 -0.4506  0.1213  0.1594
62046SOL    HW196068   7.930  12.357   2.987 -0.4806 -0.3467 -0.8954
62046SOL    HW296069   7.834  12.415   2.885  0.7202  0.9591 -1.3175
62047SOL     OW96070   5.617   1.448   8.486  0.2759 -0.2381  0.5500
62047SOL    HW196071   5.531   1.477   8.457  1.2538  1.1311 -1.1680
62047SOL    HW296072   5.638   1.373   8.430  0.6045  0.0696  0.2528
62048SOL     OW96073  11.036  12.018  10.788  0.7364 -0.9798 -0.1680
62048SOL    HW196074  11.100  12.074  10.832  0.4495 -1.0478  0.3407
62048SOL    HW296075  11.059  12.024  10.695  1.5258 -1.0565  0.0155
62049SOL     OW96076   6.171   2.332   8.651 -0.3504  0.1477 -0.6644
62049SOL    HW196077   6.081   2.362   8.664  0.2867  1.3093  1.6992
62049SOL    HW296078   6.175   2.249   8.698  0.0016  0.5353  0.0135
62050SOL     OW96079   9.528   7.045   9.982  0.6017  0.5082  0.4782
62050SOL    HW196080   9.469   7.009  10.048 -0.3963 -0.2169 -0.7665
62050SOL    HW296081   9.470   7.091   9.921  1.6017  2.0382  0.6211
62051SOL     OW96082   8.340  10.112   7.507  0.3907  0.1844  0.1540
62051SOL    HW196083   8.377  10.135   7.592  0.7396  2.8407 -0.6123
62051SOL    HW296084   8.284  10.037   7.524  0.6068  0.5276  2.6824
62052SOL     OW96085   2.343   5.917   3.906 -0.0804 -0.0120 -0.6454
62052SOL    HW196086   2.407   5.855   3.940 -0.1082  0.7000  0.7456
62052SOL    HW296087   2.395   5.993   3.878 -0.2599  0.3785  0.0565
62053SOL     OW96088  12.558   6.262   4.289  0.3817  0.2653  0.0215
62053SOL    HW196089  12.532   6.248   4.381  0.6643  0.0369  0.0710
62053SOL    HW296090  12.516   6.344   4.264  0.8101  0.6571  0.5532
62054SOL     OW96091   8.015   2.417   0.335  0.1125  0.3591  0.6204
62054SOL    HW196092   8.105   2.430   0.366  1.1009  0.2055 -1.9497
62054SOL    HW296093   7.983   2.505   0.316  0.3286  0.3190  0.0373
62055SOL     OW96094   8.612   5.622   3.121 -0.4744 -0.4070  0.6668
62055SOL    HW196095   8.594   5.654   3.032  0.9763 -0.4908  0.3100
62055SOL    HW296096   8.657   5.539   3.108  0.9006  0.1799  1.4138
62056SOL     OW96097  10.628   2.027   0.591 -0.1689  0.6600 -0.2147
62056SOL    HW196098  10.659   2.087   0.524 -0.3037 -0.7377 -1.5862
62056SOL    HW296099  10.682   2.046   0.668  0.5188  1.7599 -0.9489
62057SOL     OW96100   2.159   7.732   6.803  0.7358  0.1691 -0.0826
62057SOL    HW196101   2.204   7.792   6.862  2.0921  0.6087 -1.4742
62057SOL    HW296102   2.219   7.724   6.728 -0.5760 -0.9255 -1.0563
62058SOL     OW96103  11.616   6.556  11.196  0.1060  0.1155 -0.1753
62058SOL    HW196104  11.549   6.591  11.138  0.6257 -0.4000 -1.1063
62058SOL    HW296105  11.579   6.566  11.284 -0.4250  1.4884 -0.5257
62059SOL     OW96106   8.597   9.079  12.338  0.0152 -0.3154 -0.0325
62059SOL    HW196107   8.521   9.022  12.339 -1.9954  2.1738  1.5352
62059SOL    HW296108   8.640   9.063  12.423 -0.4217  0.2670  0.3102
62060SOL     OW96109   4.968   5.099   4.659 -0.0374 -0.2533 -0.7176
62060SOL    HW196110   5.030   5.035   4.625  1.4572  1.2266 -0.9124
62060SOL    HW296111   4.885   5.051   4.665  0.4767 -1.5916 -2.9632
62061SOL     OW96112   3.685   8.019  11.045 -0.2806  0.4328 -0.0159
62061SOL    HW196113   3.753   7.957  11.020 -1.8487 -1.1199 -0.7184
62061SOL    HW296114   3.658   7.992  11.132 -0.3938  0.6658  0.0233
62062SOL     OW96115   0.024  10.464   6.460 -0.0892 -0.0147  0.5531
62062SOL    HW196116  -0.064  10.498   6.447 -0.1739 -0.1787  0.7014
62062SOL    HW296117   0.015  10.369   6.451 -0.1507 -0.1432  1.7789
62063SOL     OW96118   4.036   6.717  11.184 -0.0381  0.3016  0.4465
62063SOL    HW196119   4.092   6.795  11.188  0.7605 -0.2839  0.9696
62063SOL    HW296120   4.015   6.708  11.091  2.0674 -0.3474 -0.0269
62064SOL     OW96121   9.680   8.847   9.006  0.1244  0.0828  0.0036
62064SOL    HW196122   9.729   8.779   8.959  0.2711  0.1196  0.1033
62064SOL    HW296123   9.613   8.798   9.054  1.3867 -0.1868  1.5669
62065SOL     OW96124   9.657   7.728   3.818 -0.0744  0.2251  0.4381
62065SOL    HW196125   9.664   7.761   3.907 -1.5554  1.2800  0.2031
62065SOL    HW296126   9.610   7.645   3.827  0.8176 -0.2602  0.7315
62066SOL     OW96127  13.189  12.935   1.526  0.0901 -0.0007  0.3215
62066SOL    HW196128  13.281  12.945   1.550  0.4587 -0.4446 -0.7963
62066SOL    HW296129  13.170  13.012   1.471  0.0406 -0.3273 -0.1254
62067SOL     OW96130   5.421   2.020  11.701 -0.5502 -0.5201 -0.0887
62067SOL    HW196131   5.406   2.000  11.794 -0.3518 -0.7704 -0.1107
62067SOL    HW296132   5.430   1.935  11.659 -0.2235 -0.3998 -0.2678
62068SOL     OW96133   8.104   4.329   1.163  0.1626 -0.1209 -0.0014
62068SOL    HW196134   8.013   4.300   1.177  0.5221 -1.0720  0.4652
62068SOL    HW296135   8.107   4.352   1.070 -0.2333 -1.3426 -0.3443
62069SOL     OW96136   3.574   9.197  12.113  0.2862 -0.1198  0.1532
62069SOL    HW196137   3.578   9.263  12.182  1.2780 -0.4121  0.3835
62069SOL    HW296138   3.502   9.139  12.139 -0.9385  1.1371 -0.3134
62070SOL     OW96139   1.849   3.145  11.559  0.5330  0.7187  0.1768
62070SOL    HW196140   1.857   3.054  11.585 -1.7119  0.9186  1.8735
62070SOL    HW296141   1.874   3.195  11.637  0.9836  1.5559 -0.4776
62071SOL     OW96142   3.645  13.309   2.126  0.5954 -0.0350  0.6049
62071SOL    HW196143   3.597  13.227   2.112  0.7672 -0.0750  0.2266
62071SOL    HW296144   3.652  13.317   2.221 -0.1032 -0.0598  0.6670
62072SOL     OW96145   0.931   1.756  13.005  0.2148 -0.4601  0.2539
62072SOL    HW196146   0.927   1.850  12.987  1.2897 -0.2476  1.0424
62072SOL    HW296147   0.902   1.749  13.096  1.7471 -0.6879  0.7421
62073SOL     OW96148   0.074   1.291   2.991 -0.5276  0.7310 -0.3505
62073SOL    HW196149   0.149   1.330   2.947  0.4856  0.8598  1.3734
62073SOL    HW296150   0.037   1.230   2.928  2.0328 -0.5664 -0.7256
62074SOL     OW96151   7.881  12.090   3.280 -0.2471 -0.5589 -0.8156
62074SOL    HW196152   7.928  12.015   3.316 -0.0527 -0.6288 -1.2013
62074SOL    HW296153   7.825  12.052   3.212  1.1052 -0.1854 -2.2200
62075SOL     OW96154   5.391  13.287   8.537 -0.0891 -0.1940  0.1072
62075SOL    HW196155   5.333  13.340   8.482 -0.7131  1.6740  2.4149
62075SOL    HW296156   5.334  13.217   8.571  0.2014 -1.1087 -1.2042
62076SOL     OW96157   4.207   2.347   2.791 -0.5756 -0.0971  0.4977
62076SOL    HW196158   4.209   2.255   2.816 -1.5313  0.2217  1.9001
62076SOL    HW296159   4.113   2.368   2.787 -0.3758  0.6839 -0.2964
62077SOL     OW96160   8.300   3.870   1.137  0.1808 -0.2941 -0.1578
62077SOL    HW196161   8.305   3.776   1.154 -0.4412 -0.6307 -1.7283
62077SOL    HW296162   8.245   3.904   1.208  0.7363 -1.0352  0.6498
62078SOL     OW96163   3.221   9.130  11.519 -0.3093 -0.0629  0.1383
62078SOL    HW196164   3.276   9.091  11.587  0.3097 -0.5491 -0.6270
62078SOL    HW296165   3.136   9.089  11.532  0.3782 -1.8588 -0.7677
62079SOL     OW96166   8.677   6.713  12.579  0.3675  0.3240  0.0524
62079SOL    HW196167   8.653   6.806  12.583  0.2483  0.2795  0.3662
62079SOL    HW296168   8.770   6.712  12.600 -0.1843  0.1149  2.8703
62080SOL     OW96169  11.195   5.589   7.181  0.0437  0.5654  0.7515
62080SOL    HW196170  11.196   5.679   7.149 -3.4892  0.5516  0.1909
62080SOL    HW296171  11.195   5.597   7.276  0.1023  1.1312  0.7050
62081SOL     OW96172   2.674   9.244  11.427 -0.0737 -1.0165 -0.2544
62081SOL    HW196173   2.716   9.165  11.461 -0.0504 -0.7256  0.4097
62081SOL    HW296174   2.655   9.223  11.336 -0.4629 -1.9502  0.0234
62082SOL     OW96175   4.247  11.413   7.660  0.0885 -0.4202  0.7444
62082SOL    HW196176   4.314  11.425   7.728 -0.8227  2.1094  1.2864
62082SOL    HW296177   4.206  11.499   7.651 -0.7762 -1.0344 -2.0550
62083SOL     OW96178  12.060   4.863   3.809 -0.7387 -0.1684  0.1849
62083SOL    HW196179  12.078   4.948   3.849 -0.2914 -0.4569  0.6129
62083SOL    HW296180  12.005   4.883   3.733 -1.7026  0.3764  1.0090
62084SOL     OW96181   6.507   6.519   7.879 -0.2131 -0.2859  0.7083
62084SOL    HW196182   6.468   6.523   7.792  2.2161 -0.3147 -0.4682
62084SOL    HW296183   6.577   6.585   7.877  1.4533 -1.9339  1.7571
62085SOL     OW96184   8.406   6.948   9.416  0.5560 -0.3521  0.2394
62085SOL    HW196185   8.390   7.042   9.407 -0.4131 -0.6692 -2.2595
62085SOL    HW296186   8.439   6.921   9.330  0.7223 -2.3134  0.8755
62086SOL     OW96187   4.969   6.563   7.798 -0.4837  0.0965 -0.1392
62086SOL    HW196188   4.958   6.491   7.736  3.2691 -0.5142 -0.3526
62086SOL    HW296189   4.914   6.539   7.873  1.1985 -3.5627  0.1740
62087SOL     OW96190   4.793   0.368   6.596  0.6237 -0.5380 -0.0726
62087SOL    HW196191   4.846   0.293   6.568  0.5161 -1.0743  1.0784
62087SOL    HW296192   4.856   0.425   6.641  0.2993 -1.0516  1.0668
62088SOL     OW96193   3.406  12.356  10.047  0.0639 -0.6213 -0.2080
62088SOL    HW196194   3.441  12.407  10.120  1.5334  0.4013 -1.5532
62088SOL    HW296195   3.471  12.287  10.032  0.0501 -0.5035 -0.8685
62089SOL     OW96196   8.317   3.180   0.490  0.0373 -0.4789  0.1042
62089SOL    HW196197   8.255   3.127   0.440  0.1826 -0.7818  0.2475
62089SOL    HW296198   8.396   3.183   0.436  0.0301 -0.4077  0.0974
62090SOL     OW96199  13.224   9.982   3.748 -0.5791 -0.0596 -0.1465
62090SOL    HW196200  13.308  10.022   3.770 -0.0452 -0.6209 -1.1121
62090SOL    HW296201  13.199   9.933   3.826  0.2808 -0.3545 -0.0502
62091SOL     OW96202  12.204   3.196   8.250 -0.0469 -0.2956 -0.1612
62091SOL    HW196203  12.203   3.105   8.280 -0.1428 -0.1776  0.2048
62091SOL    HW296204  12.290   3.206   8.209 -0.4920 -0.8779 -1.2537
62092SOL     OW96205   0.338   5.522   8.228  0.2347 -0.4557  0.5803
62092SOL    HW196206   0.360   5.614   8.240 -2.5827  0.4979 -0.8850
62092SOL    HW296207   0.374   5.500   8.142  0.1559 -0.4953  0.5582
62093SOL     OW96208  10.781   6.877   4.515 -0.1966  0.4125 -0.3914
62093SOL    HW196209  10.781   6.797   4.567  1.4008  0.2630 -0.5634
62093SOL    HW296210  10.698   6.875   4.467  0.0158 -1.3908 -0.7498
62094SOL     OW96211   6.423   3.045   2.110 -0.2096  0.4487 -0.1395
62094SOL    HW196212   6.517   3.034   2.127 -0.3530 -0.3191  0.2099
62094SOL    HW296213   6.396   2.962   2.071 -0.7556  0.6449 -0.1842
62095SOL     OW96214   5.446   9.961  11.780  0.0683 -0.4630 -0.7974
62095SOL    HW196215   5.537   9.936  11.762  1.6109  2.5151  1.8970
62095SOL    HW296216   5.432   9.935  11.871 -0.8439  1.3782 -0.3721
62096SOL     OW96217   8.700  12.453  11.868 -0.3434  0.6519  0.2950
62096SOL    HW196218   8.689  12.382  11.931 -2.4079  0.6242 -0.0251
62096SOL    HW296219   8.770  12.507  11.905  2.8277 -2.5355 -0.4611
62097SOL     OW96220   5.487   6.142   7.772  0.4873 -0.1490 -0.3469
62097SOL    HW196221   5.510   6.230   7.743 -4.5370  0.6498 -3.0192
62097SOL    HW296222   5.519   6.084   7.703  2.1984 -0.3183  0.5276
62098SOL     OW96223   0.115   4.965   1.948 -0.2375 -0.0457 -1.1190
62098SOL    HW196224   0.200   4.965   1.903 -1.6129  0.2115 -3.9825
62098SOL    HW296225   0.086   4.874   1.945 -0.4494  0.0151 -0.9657
62099SOL     OW96226  10.880  12.258   7.441  0.3149  0.4098 -0.1026
62099SOL    HW196227  10.876  12.199   7.516  1.2733  0.2930 -0.1364
62099SOL    HW296228  10.890  12.200   7.365  0.9051  0.5875 -0.1681
62100SOL     OW96229  10.080   4.409   8.520  1.0300  0.2859 -0.0773
62100SOL    HW196230  10.174   4.424   8.529  1.7921 -3.1484 -0.7227
62100SOL    HW296231  10.073   4.351   8.444 -1.3303 -1.6339  1.4870
62101SOL     OW96232   7.058   8.967   4.836  0.5637  0.2478  0.2374
62101SOL    HW196233   6.970   9.005   4.838  0.0746 -0.7655 -1.1548
62101SOL    HW296234   7.079   8.953   4.929 -1.4524 -1.0774  0.5619
62102SOL     OW96235   4.164   2.136   5.593  0.2168 -0.3843  0.9254
62102SOL    HW196236   4.140   2.109   5.504  0.4831 -0.6672  0.9393
62102SOL    HW296237   4.185   2.054   5.638  1.0471 -0.1625  0.9639
62103SOL     OW96238   4.555   4.059   2.652 -0.3077  0.1494 -0.6697
62103SOL    HW196239   4.498   3.983   2.665 -0.7245  0.4190 -0.9121
62103SOL    HW296240   4.497   4.134   2.663  0.1300  0.4377 -0.2961
62104SOL     OW96241   4.794   8.893   9.252 -0.3767 -0.9752 -0.3985
62104SOL    HW196242   4.708   8.872   9.216 -0.3332 -2.0264  0.0527
62104SOL    HW296243   4.856   8.872   9.182 -0.5157  0.4038 -0.9534
62105SOL     OW96244   3.382   8.050   4.449 -0.3299 -0.5504  0.4089
62105SOL    HW196245   3.305   8.104   4.469 -0.1683 -0.9240  2.1418
62105SOL    HW296246   3.436   8.106   4.394 -0.8701  0.4975  0.9143
62106SOL     OW96247  12.482   9.259   9.671 -0.0267 -0.0031 -0.1087
62106SOL    HW196248  12.472   9.241   9.765 -0.5663 -0.7810 -0.2986
62106SOL    HW296249  12.405   9.218   9.631  0.2870  0.1716 -0.9107
62107SOL     OW96250  13.257   9.927   7.766  0.2266 -0.2513  0.0189
62107SOL    HW196251  13.245   9.835   7.743 -0.5732 -0.1770  0.1255
62107SOL    HW296252  13.321   9.925   7.837  0.1057 -0.7378  0.1229
62108SOL     OW96253  11.989   2.254   2.540  0.2329 -0.1531  0.3597
62108SOL    HW196254  12.069   2.267   2.592  1.1101  0.2640 -1.0273
62108SOL    HW296255  12.016   2.196   2.469 -1.6047 -2.9343  1.7754
62109SOL     OW96256  13.229   3.507   6.374 -0.1248  0.2972  0.8235
62109SOL    HW196257  13.308   3.455   6.359 -0.9833 -0.6517 -0.6895
62109SOL    HW296258  13.198   3.479   6.460  1.0574  0.5486  1.3574
62110SOL     OW96259  11.653   5.125   6.834  0.4393 -0.1021  0.3421
62110SOL    HW196260  11.572   5.169   6.860  1.4360  1.3048  1.2595
62110SOL    HW296261  11.719   5.195   6.834  1.3963 -0.9290 -1.7496
62111SOL     OW96262   8.726   2.981  11.437 -0.0372 -0.9565  0.1070
62111SOL    HW196263   8.743   3.061  11.388 -0.0127 -1.1450 -0.1966
62111SOL    HW296264   8.790   2.982  11.508 -2.3389  1.1334  2.3715
62112SOL     OW96265   5.717   4.690  10.600  0.5642 -0.2952 -0.2469
62112SOL    HW196266   5.723   4.698  10.505  1.4395 -1.1418 -0.2862
62112SOL    HW296267   5.650   4.753  10.626  2.0484  1.7891 -1.1637
62113SOL     OW96268   9.269   3.515   1.364 -0.0832 -0.0690 -0.3040
62113SOL    HW196269   9.302   3.513   1.274  0.0581  1.7342 -0.3350
62113SOL    HW296270   9.185   3.469   1.359  0.3879 -0.8793 -1.1294
62114SOL     OW96271   0.790   5.189   3.972 -0.5063  0.3744  0.3304
62114SOL    HW196272   0.824   5.112   4.018  0.3406  0.0003 -0.8629
62114SOL    HW296273   0.869   5.234   3.940 -1.0473  0.8575 -0.3420
62115SOL     OW96274   9.845   1.669  10.967 -0.3595 -0.1635  0.1152
62115SOL    HW196275   9.831   1.619  11.047 -1.3471  0.7777  0.5562
62115SOL    HW296276   9.772   1.643  10.910 -0.1191 -0.2172 -0.1717
62116SOL     OW96277   6.929   3.766   1.567 -0.0103 -0.2244 -0.0746
62116SOL    HW196278   6.975   3.683   1.554 -0.1471 -0.2157 -0.6939
62116SOL    HW296279   6.848   3.756   1.515 -0.2313  0.1308  0.1981
62117SOL     OW96280  11.110   0.555   3.143  0.1473 -0.3270  0.1857
62117SOL    HW196281  11.150   0.477   3.181  0.5905 -0.3486 -0.3016
62117SOL    HW296282  11.177   0.589   3.083 -0.5517 -0.3553 -0.6399
62118SOL     OW96283   8.242   9.142   4.888 -0.6904  0.5552  0.3600
62118SOL    HW196284   8.268   9.061   4.932  0.6268  0.6382 -0.2193
62118SOL    HW296285   8.302   9.208   4.922  0.0338  0.7223 -1.1575
62119SOL     OW96286  11.406   7.941   7.857  0.3617 -0.2070  0.0589
62119SOL    HW196287  11.376   7.883   7.927  0.2044 -0.6954 -0.4031
62119SOL    HW296288  11.348   7.921   7.783  0.2431  0.6199 -0.0742
62120SOL     OW96289  10.197   1.775   0.124  0.0652  0.1520  0.5305
62120SOL    HW196290  10.159   1.862   0.139 -1.4096 -0.6022  1.3250
62120SOL    HW296291  10.153   1.744   0.045 -0.4368 -0.4343  1.0395
62121SOL     OW96292  11.564  11.246   6.647 -0.1451  0.2472 -0.2166
62121SOL    HW196293  11.544  11.289   6.564 -2.2203  0.8026  0.5096
62121SOL    HW296294  11.659  11.251   6.654  0.1956 -0.6512 -2.9738
62122SOL     OW96295   5.849   6.587   2.732  0.0140  0.1967 -0.0324
62122SOL    HW196296   5.944   6.598   2.735 -0.1985  2.0904  2.1215
62122SOL    HW296297   5.834   6.500   2.768  0.9037  0.0659  0.0542
62123SOL     OW96298  11.440   3.423   0.860 -0.4471  0.3340 -0.3122
62123SOL    HW196299  11.360   3.474   0.850 -1.1645 -0.2623  1.8094
62123SOL    HW296300  11.414   3.333   0.839 -0.3050  0.1845  0.1241
62124SOL     OW96301   4.531   7.424   0.775 -0.0011  0.3090  0.3358
62124SOL    HW196302   4.552   7.381   0.858 -0.5878  1.9021  1.3408
62124SOL    HW296303   4.593   7.497   0.770 -1.1584  1.3013  0.2643
62125SOL     OW96304   3.563   4.034   6.792 -0.0906 -0.5856 -0.1085
62125SOL    HW196305   3.559   4.125   6.820  0.0870 -0.4887 -0.3947
62125SOL    HW296306   3.550   4.037   6.697  0.1539 -0.8366 -0.1512
62126SOL     OW96307   2.690   6.868  11.627  0.4021  0.0190  0.2140
62126SOL    HW196308   2.692   6.896  11.719 -1.3668 -2.9592  1.3182
62126SOL    HW296309   2.635   6.932  11.583 -0.1135  0.5853  1.6290
62127SOL     OW96310   4.705   4.223  11.984  0.0784  0.1920 -0.6124
62127SOL    HW196311   4.661   4.145  11.951  1.0603  0.3316 -2.3950
62127SOL    HW296312   4.638   4.291  11.981 -0.9798 -0.6639  1.5962
62128SOL     OW96313   6.846   6.685  11.196  0.6193 -0.3014  0.4848
62128SOL    HW196314   6.758   6.723  11.189  0.7520  0.1764  1.2529
62128SOL    HW296315   6.898   6.753  11.239  0.8565 -1.3579  1.9354
62129SOL     OW96316  11.134   6.192   5.071  0.4325  0.1449 -0.6120
62129SOL    HW196317  11.098   6.103   5.069  1.2160 -0.1789 -0.3572
62129SOL    HW296318  11.074   6.240   5.128  2.4788 -1.3358  3.1308
62130SOL     OW96319   5.796  12.890   1.317 -0.0506 -0.4056 -0.1931
62130SOL    HW196320   5.843  12.811   1.342 -0.0801 -0.9525 -1.7565
62130SOL    HW296321   5.717  12.858   1.274  0.0955  0.4620 -1.1482
62131SOL     OW96322   7.807   1.652   7.174 -0.1471 -0.3850 -0.3498
62131SOL    HW196323   7.813   1.656   7.269 -0.8691  0.6344 -0.3311
62131SOL    HW296324   7.891   1.687   7.143 -0.1128 -0.2346 -0.0871
62132SOL     OW96325   7.126   9.080   7.262 -0.3234 -0.2839  0.5127
62132SOL    HW196326   7.049   9.103   7.209  0.3486  1.9808  0.4333
62132SOL    HW296327   7.189   9.149   7.245  1.4677 -1.6535  1.2225
62133SOL     OW96328   8.079  11.083  11.576  0.1942 -0.2178 -0.1132
62133SOL    HW196329   8.149  11.143  11.600 -0.3960  1.1697 -1.6662
62133SOL    HW296330   7.998  11.130  11.598 -0.2827 -1.3960  0.7497
62134SOL     OW96331   9.701   9.530   9.687  0.2170 -0.0475  0.0580
62134SOL    HW196332   9.637   9.477   9.735  0.4799 -0.4474 -0.0279
62134SOL    HW296333   9.770   9.548   9.751 -0.4166  1.1833  0.4290
62135SOL     OW96334   3.753   9.591   7.265  0.4074 -0.3665 -0.3969
62135SOL    HW196335   3.832   9.645   7.274 -1.0551  1.8341 -0.0447
62135SOL    HW296336   3.730   9.597   7.173 -0.4535  0.7233 -0.1353
62136SOL     OW96337   4.841   7.752   9.897 -0.1522 -0.2750 -0.3900
62136SOL    HW196338   4.849   7.657   9.890  0.7556 -0.3035  0.7991
62136SOL    HW296339   4.852   7.771   9.990 -2.2223  0.8460 -0.2976
62137SOL     OW96340  11.892   9.623   5.109  0.1429  0.6166  0.7231
62137SOL    HW196341  11.912   9.706   5.067  1.0457  0.4229  0.7389
62137SOL    HW296342  11.921   9.634   5.200  1.1570 -0.0072  0.4996
62138SOL     OW96343   4.239   0.641   6.910 -0.2871 -0.4624  0.1740
62138SOL    HW196344   4.163   0.699   6.902 -0.3202 -0.0939  2.4688
62138SOL    HW296345   4.307   0.683   6.856 -0.8651  0.7153  0.3237
62139SOL     OW96346  12.214   3.693   0.979  0.3080  0.2921  0.3822
62139SOL    HW196347  12.264   3.751   0.921  1.5474 -1.6606 -0.5999
62139SOL    HW296348  12.253   3.707   1.066  0.5338  0.9771  0.1754
62140SOL     OW96349   5.640   3.179   0.530  0.0042 -0.2897 -0.7217
62140SOL    HW196350   5.701   3.242   0.491 -0.4315  0.4276 -0.2802
62140SOL    HW296351   5.693   3.102   0.549  1.0200  0.7105  0.6493
62141SOL     OW96352   3.328   4.249   5.679  0.6017  0.1707  0.0910
62141SOL    HW196353   3.236   4.267   5.661  0.8394  1.5756  0.1743
62141SOL    HW296354   3.329   4.217   5.770  0.3621  1.9393  0.7527
62142SOL     OW96355   9.999   0.034   3.736 -0.2746 -0.4183  0.5389
62142SOL    HW196356  10.077   0.059   3.786 -0.2830  2.2372 -0.6066
62142SOL    HW296357   9.973  -0.051   3.772  3.0265 -1.3218  1.0650
62143SOL     OW96358   6.233  12.059  12.072 -0.2073  0.3677  0.7615
62143SOL    HW196359   6.235  12.070  11.977  1.4416  2.3548  0.9586
62143SOL    HW296360   6.154  12.106  12.100  0.7987  2.2499  0.5725
62144SOL     OW96361   7.558   9.008   8.405  0.1764 -0.0006 -0.1577
62144SOL    HW196362   7.619   9.054   8.347  0.9051  1.0908  1.4266
62144SOL    HW296363   7.555   9.061   8.484 -1.9301 -0.6877  0.2750
62145SOL     OW96364   5.272   2.188   0.583 -0.1583 -0.3921 -0.6147
62145SOL    HW196365   5.213   2.130   0.631 -0.5814  1.7503  1.5827
62145SOL    HW296366   5.215   2.243   0.530 -0.1071  0.8229  0.5436
62146SOL     OW96367  12.308  10.728   3.777  0.1419 -0.2986 -0.2636
62146SOL    HW196368  12.258  10.732   3.695  2.3681  1.7725 -1.6392
62146SOL    HW296369  12.391  10.687   3.753  0.6912 -0.0180  1.0623
62147SOL     OW96370   7.348   1.604   2.110 -0.4467 -0.1916 -0.5559
62147SOL    HW196371   7.285   1.675   2.105 -0.8213 -0.3408  1.4704
62147SOL    HW296372   7.308   1.532   2.061  0.0185  0.9794 -2.7855
62148SOL     OW96373   9.175   8.913   7.337  0.1243 -0.7842 -0.5552
62148SOL    HW196374   9.128   8.848   7.284  0.7400 -0.0555 -2.0685
62148SOL    HW296375   9.262   8.918   7.297  1.0840 -1.1311  1.3573
62149SOL     OW96376   1.684   9.862   7.652  0.5345  0.0625  0.0079
62149SOL    HW196377   1.701   9.779   7.607 -0.1044  0.4490 -0.9889
62149SOL    HW296378   1.678   9.926   7.581  1.5059  1.0588  0.7833
62150SOL     OW96379   4.926   9.181   5.721  0.3085 -0.1839  0.0403
62150SOL    HW196380   5.015   9.199   5.750 -0.1650  2.3753  0.1225
62150SOL    HW296381   4.910   9.243   5.650 -1.3244 -0.7855 -0.1636
62151SOL     OW96382   5.905  12.367  11.242 -0.5577  0.1613  0.2328
62151SOL    HW196383   5.866  12.356  11.156  3.3256 -0.5107 -1.6575
62151SOL    HW296384   5.893  12.281  11.284 -0.5328 -0.2247 -0.5292
62152SOL     OW96385   6.219  12.817  11.367  0.1386  0.2193  0.1915
62152SOL    HW196386   6.153  12.881  11.343  0.5988  0.2744 -1.0018
62152SOL    HW296387   6.265  12.856  11.442 -0.9441  0.3222  0.8152
62153SOL     OW96388   4.797   7.181   5.072 -0.3181  0.5110 -0.0988
62153SOL    HW196389   4.763   7.267   5.094 -1.6310  0.1019 -0.4836
62153SOL    HW296390   4.783   7.129   5.151  0.2395  0.5654  0.0441
62154SOL     OW96391   5.235   7.623   4.776 -0.4453  0.2342  0.6721
62154SOL    HW196392   5.147   7.586   4.775 -0.9625  1.4244  0.3323
62154SOL    HW296393   5.232   7.695   4.713  1.0226 -0.2393  0.0157
62155SOL     OW96394   1.581  10.084   2.518  0.3581  0.1371  0.0098
62155SOL    HW196395   1.556  10.171   2.550  0.0220  1.3049 -3.0296
62155SOL    HW296396   1.500  10.048   2.481  0.5541 -1.3829  0.9914
62156SOL     OW96397   4.223   0.448   3.773 -0.3281 -0.0850 -0.5819
62156SOL    HW196398   4.292   0.406   3.825  1.8276  2.0169 -1.5507
62156SOL    HW296399   4.232   0.409   3.686 -0.9498 -0.4108 -0.5035
62157SOL     OW96400   4.245  13.188   6.618 -0.0553  0.0008  0.1382
62157SOL    HW196401   4.186  13.159   6.549 -1.5512  1.7322  0.5887
62157SOL    HW296402   4.313  13.237   6.573  1.6005 -2.6966 -0.4682
62158SOL     OW96403  12.618  11.018  11.928  0.1086  0.4814 -0.4758
62158SOL    HW196404  12.559  10.943  11.918  0.5145  0.2944 -1.5374
62158SOL    HW296405  12.679  11.011  11.854  1.8650  0.3075  0.9006
62159SOL     OW96406   8.316   5.797   2.551  0.5013 -0.3115 -0.4837
62159SOL    HW196407   8.322   5.707   2.521  0.0820 -0.1717 -0.9977
62159SOL    HW296408   8.248   5.796   2.619  1.8756 -0.7421  0.9353
62160SOL     OW96409   1.762  12.067   9.783 -0.0554  0.1821 -0.2028
62160SOL    HW196410   1.757  12.120   9.862  0.0682 -0.3013  0.1327
62160SOL    HW296411   1.783  12.130   9.713 -1.0892  0.7536 -0.0135
62161SOL     OW96412   4.636   6.753  10.498  0.4297 -0.1095  0.1245
62161SOL    HW196413   4.656   6.750  10.404 -0.3724 -0.9637 -0.0289
62161SOL    HW296414   4.577   6.827  10.507  3.5672  2.5553  0.6057
62162SOL     OW96415   2.403   2.002   1.174  0.3751  0.6189 -0.1536
62162SOL    HW196416   2.308   2.020   1.174 -0.0932 -1.5793  1.0756
62162SOL    HW296417   2.418   1.955   1.093  0.3611  0.6582 -0.1794
62163SOL     OW96418  10.249   7.307   4.066 -0.1444 -0.4292  0.0079
62163SOL    HW196419  10.305   7.230   4.056 -0.5885 -0.5279 -2.2341
62163SOL    HW296420  10.302   7.370   4.116  1.1278 -1.3011 -0.2184
62164SOL     OW96421   2.787  11.467   5.233  0.1124  0.0493 -0.4767
62164SOL    HW196422   2.783  11.428   5.146  0.0955  0.3221 -0.5989
62164SOL    HW296423   2.695  11.486   5.255 -0.3443 -3.2013  1.0723
62165SOL     OW96424   5.511  11.894   4.540  0.2344  0.1606  0.9035
62165SOL    HW196425   5.571  11.819   4.544  2.2948  1.5768 -1.1138
62165SOL    HW296426   5.567  11.968   4.517 -2.2558  1.6213 -0.8434
62166SOL     OW96427  10.661   2.557  12.532  0.0277 -0.1963  0.0387
62166SOL    HW196428  10.724   2.619  12.568 -0.5560  0.8646 -0.7492
62166SOL    HW296429  10.648   2.585  12.442 -1.6709 -0.3137  0.2294
62167SOL     OW96430  11.925   8.845   9.543  0.0183 -0.4585 -0.1376
62167SOL    HW196431  12.008   8.825   9.586 -0.5842 -2.0895  0.3383
62167SOL    HW296432  11.862   8.853   9.615  0.2714  4.3554 -0.1198
62168SOL     OW96433   6.022   5.138   2.371  0.2359  0.2932 -0.4208
62168SOL    HW196434   6.108   5.109   2.341 -0.1684 -0.6431 -0.6983
62168SOL    HW296435   5.969   5.142   2.292 -0.1154  0.3911 -0.1823
62169SOL     OW96436  12.996   2.777   4.066  0.6727  0.7194 -0.2888
62169SOL    HW196437  12.955   2.711   4.122 -1.0448  0.6607 -1.5192
62169SOL    HW296438  12.961   2.860   4.097 -0.4814  0.6696 -1.3528
62170SOL     OW96439   0.519   2.554   6.666 -0.1975  0.1421  0.2703
62170SOL    HW196440   0.500   2.639   6.626  0.2410  0.0820 -0.0835
62170SOL    HW296441   0.523   2.494   6.592 -1.7287 -0.4405  0.6164
62171SOL     OW96442   4.669   4.958   6.335  0.0183 -0.2464 -0.0919
62171SOL    HW196443   4.588   4.912   6.359  0.6683 -1.0240  0.6795
62171SOL    HW296444   4.736   4.890   6.336  0.8483  0.5542  0.1631
62172SOL     OW96445   9.123   5.707  11.461 -0.4409  0.2437  0.9681
62172SOL    HW196446   9.042   5.656  11.474 -0.6382  0.9228  2.7613
62172SOL    HW296447   9.094   5.798  11.464  0.3610  0.4896  1.4763
62173SOL     OW96448  11.527   5.329   4.584 -0.2019 -0.3186 -0.5510
62173SOL    HW196449  11.498   5.374   4.505  0.0387 -1.6019 -1.4141
62173SOL    HW296450  11.461   5.349   4.650 -0.3627  0.8447 -1.0486
62174SOL     OW96451  11.721  10.429   4.427 -0.5652  0.5743 -0.6564
62174SOL    HW196452  11.785  10.500   4.439  1.7457 -1.7280  2.0381
62174SOL    HW296453  11.678  10.421   4.512 -1.5604 -0.5573 -1.2431
62175SOL     OW96454   9.865   0.675  12.734  0.1162 -0.6135 -0.4006
62175SOL    HW196455   9.796   0.615  12.709 -0.7127  0.6590 -1.3131
62175SOL    HW296456   9.829   0.723  12.809 -0.4869  0.8115 -1.5537
62176SOL     OW96457  12.390   1.105   6.827 -0.0653  0.8805 -0.2816
62176SOL    HW196458  12.424   1.099   6.916  0.5704  2.5505 -0.3727
62176SOL    HW296459  12.341   1.188   6.826 -2.0868 -0.2557 -0.8415
62177SOL     OW96460   7.757  12.351   5.395  0.2391  0.3249  0.4207
62177SOL    HW196461   7.746  12.428   5.339 -1.0686  1.2660  1.8878
62177SOL    HW296462   7.823  12.378   5.459  2.3003 -1.0109 -1.0276
62178SOL     OW96463   9.357   0.692   9.864 -0.3105 -0.1593 -0.3151
62178SOL    HW196464   9.401   0.679   9.948 -0.2413  2.5594  0.1441
62178SOL    HW296465   9.337   0.603   9.834 -0.5429 -1.2326  2.6764
62179SOL     OW96466   7.759  11.481  13.084  0.3839 -0.5390  0.6339
62179SOL    HW196467   7.812  11.517  13.013  1.5695  0.9924  2.2143
62179SOL    HW296468   7.700  11.553  13.109 -1.7066 -1.8259 -0.3027
62180SOL     OW96469   3.671   1.533   3.639 -1.5623  0.0471 -0.3670
62180SOL    HW196470   3.749   1.586   3.622 -0.3685 -1.1330  1.0995
62180SOL    HW296471   3.651   1.491   3.555  0.2046 -0.6528 -0.4768
62181SOL     OW96472  11.017  10.438   9.265  0.4344 -0.3899  0.2905
62181SOL    HW196473  11.033  10.379   9.339  1.4135  1.5485  1.7320
62181SOL    HW296474  11.102  10.480   9.250  0.2109 -0.6160 -1.8870
62182SOL     OW96475   7.790   7.581   6.682  0.1849 -0.2584 -0.3011
62182SOL    HW196476   7.733   7.647   6.641 -0.6853 -0.3501  0.7134
62182SOL    HW296477   7.759   7.498   6.647  0.3799 -0.2368 -0.5300
62183SOL     OW96478   6.231   3.171   2.883 -0.2383 -0.1810  0.7735
62183SOL    HW196479   6.212   3.081   2.909  1.2409 -0.3639  1.2766
62183SOL    HW296480   6.326   3.179   2.888 -0.3236  1.3782  0.6064
62184SOL     OW96481  11.457   1.853   0.453 -0.4185 -0.0049  0.3759
62184SOL    HW196482  11.380   1.904   0.477  1.3951  3.9889 -1.4605
62184SOL    HW296483  11.525   1.882   0.513  0.5079 -0.9833 -0.1546
62185SOL     OW96484   7.357   8.221   8.324 -0.0650 -0.1283 -0.3927
62185SOL    HW196485   7.298   8.260   8.259  2.0189  1.7553 -1.2877
62185SOL    HW296486   7.444   8.248   8.296  1.3412 -3.2406  0.5686
62186SOL     OW96487  10.543   8.081   4.914 -0.2737 -0.0491  0.1915
62186SOL    HW196488  10.506   8.112   4.997 -2.1712  1.4693 -1.1272
62186SOL    HW296489  10.582   8.159   4.875 -1.2372 -0.2337 -1.2296
62187SOL     OW96490   0.203   6.915  10.346  0.2740  0.2751 -0.5693
62187SOL    HW196491   0.284   6.958  10.317  1.8976 -1.7190  0.7709
62187SOL    HW296492   0.148   6.987  10.377  1.8035  1.6348 -0.8719
62188SOL     OW96493   2.815   6.618   8.021 -0.3343 -0.2602 -0.3507
62188SOL    HW196494   2.737   6.571   7.992 -1.2491  1.3175 -0.5478
62188SOL    HW296495   2.788   6.710   8.028  0.4445 -0.1459  3.2455
62189SOL     OW96496  12.467  11.007   7.681  0.1929  0.0056  0.1864
62189SOL    HW196497  12.412  11.067   7.731  0.4537  1.7860 -1.5490
62189SOL    HW296498  12.428  10.921   7.695 -1.6808  0.9158  0.7950
62190SOL     OW96499   2.314   8.379   5.938  0.3400  0.0260  0.6088
62190SOL    HW196500   2.366   8.419   6.008 -1.0720  0.0898  1.6780
62190SOL    HW296501   2.242   8.440   5.924  0.1106 -0.4341 -0.2895
62191SOL     OW96502  12.621  13.161   3.530 -1.0686  0.5363  0.1029
62191SOL    HW196503  12.705  13.199   3.554 -0.6723 -1.2801  1.8876
62191SOL    HW296504  12.634  13.129   3.441 -0.3360  1.4916 -0.1525
62192SOL     OW96505   7.490   7.960   1.089  0.4526 -0.7583 -0.8104
62192SOL    HW196506   7.476   7.874   1.049 -2.5028  0.8041 -3.5687
62192SOL    HW296507   7.550   8.005   1.030  1.0492 -0.4830 -0.0141
62193SOL     OW96508   3.163   9.273   8.767 -0.0181 -0.0740  0.4285
62193SOL    HW196509   3.129   9.348   8.815 -0.8976  0.8741 -1.5619
62193SOL    HW296510   3.239   9.245   8.818 -1.3584  0.3002  2.7929
62194SOL     OW96511   6.597   3.049  12.999 -0.0026 -0.2260  0.4022
62194SOL    HW196512   6.515   3.016  13.036 -1.5406  1.6916 -1.0742
62194SOL    HW296513   6.580   3.056  12.905  0.8210  2.8242  0.3658
62195SOL     OW96514   7.398   6.762   2.042  0.5954 -0.2123 -0.0513
62195SOL    HW196515   7.393   6.845   1.996  0.5029 -1.2398 -1.9706
62195SOL    HW296516   7.347   6.776   2.122  1.7580  1.9811  0.3685
62196SOL     OW96517   3.185  11.821  10.742 -0.1524  0.0406  0.3223
62196SOL    HW196518   3.122  11.854  10.807  0.0458  1.6120 -0.2486
62196SOL    HW296519   3.232  11.899  10.712  0.0213 -0.6969 -1.4382
62197SOL     OW96520   8.339   6.295  10.025 -0.0560  0.2067  0.2731
62197SOL    HW196521   8.392   6.274   9.948  2.2639  0.6239  1.6791
62197SOL    HW296522   8.373   6.379  10.056 -1.1104  0.1727  1.6208
62198SOL     OW96523  11.059   6.859   1.065 -0.3293  0.3169  0.2957
62198SOL    HW196524  11.126   6.928   1.069 -0.8613  0.9716 -1.1461
62198SOL    HW296525  11.102   6.786   1.020 -0.1841  0.2441  0.5548
62199SOL     OW96526   0.495   7.909   7.083  0.5851  0.1306  0.2032
62199SOL    HW196527   0.474   7.961   7.161 -1.0563 -0.6063  0.2897
62199SOL    HW296528   0.413   7.904   7.035  1.2851 -0.4527 -0.9792
62200SOL     OW96529   4.643  10.396   8.093  0.5272  0.2453 -0.2299
62200SOL    HW196530   4.723  10.356   8.125  0.0827 -0.5235 -0.0645
62200SOL    HW296531   4.613  10.339   8.023 -1.2112 -0.8973  1.3603
62201SOL     OW96532   9.898   2.058  11.198 -0.5251  0.2902  0.0872
62201SOL    HW196533   9.907   2.074  11.292 -0.1312  1.3986 -0.1286
62201SOL    HW296534   9.898   1.962  11.191 -0.4815  0.1895  1.2068
62202SOL     OW96535   3.610   7.725   8.304  0.4916 -0.1296 -0.3563
62202SOL    HW196536   3.706   7.729   8.312  0.7203  0.0227 -2.5283
62202SOL    HW296537   3.579   7.705   8.392  2.4153  1.5004  0.7702
62203SOL     OW96538  10.432   9.726   1.788 -0.4998 -0.1969 -0.1911
62203SOL    HW196539  10.509   9.717   1.732 -1.2462  1.5944 -1.6339
62203SOL    HW296540  10.467   9.749   1.874  0.6171  0.7130 -0.8510
62204SOL     OW96541   4.347   1.599   9.814 -0.1733  0.1074  0.4871
62204SOL    HW196542   4.353   1.615   9.720 -0.1414 -0.3117  0.4158
62204SOL    HW296543   4.399   1.520   9.828  0.9371  0.9244  1.0687
62205SOL     OW96544  12.393  10.844   0.959 -0.2749 -0.2615  0.7056
62205SOL    HW196545  12.330  10.914   0.944 -0.9707 -1.3111 -1.8052
62205SOL    HW296546  12.344  10.778   1.009 -1.0529 -0.8331 -0.7584
62206SOL     OW96547   8.961  11.612   2.910  0.5592 -0.2852  0.1125
62206SOL    HW196548   9.023  11.637   2.841 -1.4468 -0.2203 -1.7891
62206SOL    HW296549   8.931  11.696   2.946  0.2727 -0.2352 -0.2286
62207SOL     OW96550  11.236  10.678   6.440 -0.0032  0.0214  0.8766
62207SOL    HW196551  11.146  10.649   6.456 -0.5513  0.7041 -0.7452
62207SOL    HW296552  11.290  10.601   6.459 -1.3593 -2.1319 -2.9194
62208SOL     OW96553   9.292   3.996   8.792  0.3269 -0.4693 -0.3423
62208SOL    HW196554   9.237   3.943   8.850  2.3236 -1.0680  1.1234
62208SOL    HW296555   9.256   4.085   8.799 -1.0467 -1.0223 -0.2134
62209SOL     OW96556  12.311   5.286   9.156 -0.4692  0.3808  0.1134
62209SOL    HW196557  12.375   5.357   9.156  0.5575 -0.4654  2.0171
62209SOL    HW296558  12.257   5.302   9.233 -0.6830 -0.5210  0.1644
62210SOL     OW96559   0.977   6.194   2.688  0.5525  0.1218  0.0022
62210SOL    HW196560   0.901   6.138   2.701  0.0797  0.5319 -0.9596
62210SOL    HW296561   0.992   6.233   2.774  0.6322 -1.1360  0.5820
62211SOL     OW96562   8.764  10.065   8.599 -0.2704  0.1647 -0.0478
62211SOL    HW196563   8.713  10.133   8.555  0.6827  1.4207  0.7230
62211SOL    HW296564   8.706  10.031   8.667 -0.6725  0.3817 -0.2796
62212SOL     OW96565   1.919   5.422  10.616  0.3012  0.4636 -0.1800
62212SOL    HW196566   1.985   5.403  10.549 -0.7930 -0.9600 -0.8931
62212SOL    HW296567   1.874   5.500  10.584 -0.4660 -0.4264 -1.3244
62213SOL     OW96568   5.743   5.795   0.790  0.1352 -0.3084  0.6109
62213SOL    HW196569   5.838   5.799   0.778  0.5094 -0.3739  3.0798
62213SOL    HW296570   5.707   5.849   0.720  1.9174 -1.0848 -0.9742
62214SOL     OW96571  10.045   1.604   6.089 -0.3053  0.1287  0.4756
62214SOL    HW196572  10.080   1.522   6.056 -0.6874  0.8004 -1.7816
62214SOL    HW296573   9.965   1.619   6.038 -0.2371  1.8917  0.8065
62215SOL     OW96574   1.218   4.621   7.389  0.0401 -0.4087  0.0188
62215SOL    HW196575   1.261   4.689   7.442 -0.4198  0.9409 -1.2791
62215SOL    HW296576   1.289   4.564   7.361  0.8143  0.8977 -0.7952
62216SOL     OW96577  12.697   8.729   2.429 -0.4787  0.5155 -0.2733
62216SOL    HW196578  12.645   8.767   2.358 -1.6614 -0.9785 -0.2454
62216SOL    HW296579  12.779   8.703   2.388 -0.7825  0.5198 -0.8819
62217SOL     OW96580   3.478   7.144  11.667  0.1155  0.5710 -0.7469
62217SOL    HW196581   3.524   7.085  11.607 -1.2559 -1.6465  0.2424
62217SOL    HW296582   3.397   7.166  11.621  0.6084  1.7082 -1.0965
62218SOL     OW96583  11.811   1.613   9.647  0.1333 -0.2504  0.2282
62218SOL    HW196584  11.754   1.537   9.651  0.7681 -0.7215  0.4376
62218SOL    HW296585  11.777   1.672   9.714  0.3421 -0.8455  0.8668
62219SOL     OW96586  12.511   4.153   4.037  0.5308 -0.2536  0.7810
62219SOL    HW196587  12.604   4.156   4.015  0.5476 -0.9571  0.7413
62219SOL    HW296588  12.509   4.140   4.132  0.4642  0.2791  0.8581
62220SOL     OW96589  11.060   0.160   9.636  0.2217  0.2819 -0.2634
62220SOL    HW196590  10.986   0.218   9.618  1.4117  1.7656 -0.6405
62220SOL    HW296591  11.064   0.156   9.732  0.1462  0.8792 -0.2306
62221SOL     OW96592   9.996  10.317   6.838  0.2773 -0.3663 -0.0395
62221SOL    HW196593  10.080  10.306   6.794  0.2103 -1.4273  0.0847
62221SOL    HW296594   9.998  10.408   6.870  0.1742  0.5543 -2.4823
62222SOL     OW96595   2.264  10.062   3.149 -0.1912 -0.4466  0.2182
62222SOL    HW196596   2.333  10.119   3.117  0.3919 -0.7352  0.9435
62222SOL    HW296597   2.214  10.116   3.210 -1.0606 -0.0197 -0.8243
62223SOL     OW96598   0.869   9.780   2.804 -0.2297 -0.0597 -0.1478
62223SOL    HW196599   0.781   9.816   2.812  0.0393  0.5702 -0.0109
62223SOL    HW296600   0.915   9.811   2.882  0.6825  1.2548 -1.1676
62224SOL     OW96601  11.949   4.528   5.692  0.4360  0.1769  0.3642
62224SOL    HW196602  11.995   4.610   5.705 -0.2079  0.3737  1.5135
62224SOL    HW296603  12.016   4.460   5.700  0.5014  0.4322  2.4296
62225SOL     OW96604   6.472   1.598   8.728 -0.3428 -0.4238  0.1173
62225SOL    HW196605   6.558   1.600   8.770 -0.1753  0.6931 -0.2659
62225SOL    HW296606   6.412   1.571   8.798 -0.1249  1.7299  1.2254
62226SOL     OW96607   5.184   2.266   1.146  0.4660  0.0782 -0.3438
62226SOL    HW196608   5.224   2.183   1.172 -2.9767 -1.9545 -0.8995
62226SOL    HW296609   5.218   2.283   1.058  2.1696 -0.0143  0.2685
62227SOL     OW96610   2.575  10.909  12.639  0.0906  0.3458  0.0450
62227SOL    HW196611   2.513  10.943  12.703 -1.2121  0.7786 -1.3743
62227SOL    HW296612   2.526  10.840  12.593  1.0123 -0.0044 -0.4326
62228SOL     OW96613  11.188  10.910   4.143  0.6870 -0.5220  0.2169
62228SOL    HW196614  11.136  10.989   4.130  1.0388 -0.5442 -1.7789
62228SOL    HW296615  11.137  10.840   4.103  1.6701 -0.7535 -0.6963
62229SOL     OW96616   6.979   0.305  12.088 -0.5281 -0.0396 -0.6103
62229SOL    HW196617   6.992   0.335  12.178 -1.2622 -1.9681  0.1945
62229SOL    HW296618   7.041   0.233  12.078 -1.6783 -0.9975 -1.0259
62230SOL     OW96619   4.599   7.068   2.492  0.6683 -0.0378  0.7580
62230SOL    HW196620   4.621   6.975   2.487  0.6196  0.0132 -2.6931
62230SOL    HW296621   4.674   7.113   2.453  0.1372  1.2729  1.1720
62231SOL     OW96622  11.451   9.871  12.076  0.8191  0.0146 -0.0653
62231SOL    HW196623  11.389   9.938  12.047  1.6957  0.9381  0.1040
62231SOL    HW296624  11.441   9.800  12.013  0.6296  0.7726 -0.9230
62232SOL     OW96625   7.027   0.015  10.873  0.0426 -0.0900 -0.5878
62232SOL    HW196626   6.996  -0.076  10.866 -1.7592  0.1540  2.1696
62232SOL    HW296627   7.081   0.015  10.952  1.8537  0.8489 -1.7861
62233SOL     OW96628  11.306  11.679   8.913  0.0068  0.3029  0.1157
62233SOL    HW196629  11.380  11.621   8.927  0.7277  0.3944 -2.6785
62233SOL    HW296630  11.233  11.621   8.891  0.0187  0.3186  0.0324
62234SOL     OW96631  11.374  10.598   4.569 -0.5592 -0.1216 -0.1582
62234SOL    HW196632  11.434  10.668   4.593  1.3676 -2.2016  1.4410
62234SOL    HW296633  11.288  10.641   4.566  0.3745  2.1099  1.7273
62235SOL     OW96634   7.252  11.899  10.351 -0.7900  0.0327 -0.5142
62235SOL    HW196635   7.164  11.909  10.313 -0.4400 -0.4705 -1.4848
62235SOL    HW296636   7.311  11.934  10.285 -0.3435  2.4834  1.0261
62236SOL     OW96637  11.949   0.066  12.730 -0.6589 -0.1857 -0.5248
62236SOL    HW196638  11.948   0.017  12.812  0.8115 -0.1236 -0.4510
62236SOL    HW296639  12.035   0.107  12.727 -1.6624  2.0382 -0.8135
62237SOL     OW96640   8.266   9.264   7.039  0.2145 -0.0252  0.3362
62237SOL    HW196641   8.240   9.341   7.090  0.3262  0.8297 -0.8788
62237SOL    HW296642   8.354   9.243   7.070 -0.1746 -0.2618  1.3402
62238SOL     OW96643   1.706   9.400   8.204  0.0206 -0.3035 -0.3547
62238SOL    HW196644   1.703   9.310   8.237 -0.7827 -0.3005 -0.4159
62238SOL    HW296645   1.733   9.452   8.280 -1.6355 -0.3189  0.2732
62239SOL     OW96646   5.375   6.310   2.814 -0.2911  0.5367 -0.1245
62239SOL    HW196647   5.311   6.349   2.874 -0.6634  0.7049 -0.6226
62239SOL    HW296648   5.346   6.337   2.727 -0.4837 -0.7665 -0.4771
62240SOL     OW96649   3.446   8.675  10.818  0.6386 -0.6137 -0.0845
62240SOL    HW196650   3.540   8.660  10.811  0.9546  1.3560 -0.3657
62240SOL    HW296651   3.436   8.732  10.894  0.2687  3.2660 -2.7420
62241SOL     OW96652  10.185   5.032  13.057 -0.0899 -0.2890  0.0965
62241SOL    HW196653  10.248   5.096  13.090 -1.3062  2.2100 -2.0523
62241SOL    HW296654  10.105   5.049  13.106 -0.5238  0.0979 -0.7325
62242SOL     OW96655   0.350   3.424   4.823  0.2593  0.0598 -0.2059
62242SOL    HW196656   0.318   3.351   4.876 -1.1692  3.0219  3.4910
62242SOL    HW296657   0.314   3.408   4.736 -1.0036 -2.9497  0.7216
62243SOL     OW96658   1.079   9.735  10.039  0.2217 -0.4253 -0.5092
62243SOL    HW196659   0.992   9.696  10.048 -0.3932  1.1140  0.6802
62243SOL    HW296660   1.094   9.780  10.122  2.9299 -2.0638  0.0315
62244SOL     OW96661   8.462   0.608   4.557  0.4124  0.4724  0.2414
62244SOL    HW196662   8.510   0.538   4.512 -0.7243  1.1895 -2.2085
62244SOL    HW296663   8.456   0.679   4.493  0.0054  2.1825  2.0573
62245SOL     OW96664   0.329   7.109   9.169  0.0072 -0.6996 -0.3299
62245SOL    HW196665   0.374   7.035   9.210  0.9588  0.4700  0.8717
62245SOL    HW296666   0.236   7.090   9.180  0.2254 -0.7569  1.8997
62246SOL     OW96667   0.552   8.750   9.645 -0.1539 -0.2389 -0.0343
62246SOL    HW196668   0.469   8.759   9.598  0.4873 -1.0806 -1.4024
62246SOL    HW296669   0.593   8.836   9.638 -1.9777  1.0434  2.9493
62247SOL     OW96670   5.257   9.325   8.133  0.5938 -0.3099 -0.0073
62247SOL    HW196671   5.344   9.287   8.139  0.7564  0.2702  1.8529
62247SOL    HW296672   5.211   9.293   8.211 -0.4488  0.3845 -0.3082
62248SOL     OW96673  11.694  12.184   4.837  0.1990 -0.1766 -0.3737
62248SOL    HW196674  11.611  12.136   4.834  0.3497 -0.4050 -1.0063
62248SOL    HW296675  11.674  12.263   4.888 -0.7940  0.4857 -1.7228
62249SOL     OW96676   1.981   0.940   4.962 -0.0432 -0.6526  0.3751
62249SOL    HW196677   1.960   0.997   5.036 -0.9410  0.6411 -0.8171
62249SOL    HW296678   1.938   0.858   4.982 -1.4243  0.1173  0.6878
62250SOL     OW96679  10.229  12.147   8.646 -0.0313  0.1526  0.0156
62250SOL    HW196680  10.185  12.068   8.677 -1.7847  1.2738  0.5853
62250SOL    HW296681  10.237  12.135   8.552  0.7879 -1.1726  0.2309
62251SOL     OW96682   1.725   8.292   0.808  0.0946  0.1484  0.6530
62251SOL    HW196683   1.733   8.233   0.883 -1.2618  0.9548  1.4662
62251SOL    HW296684   1.674   8.243   0.743 -1.5491  0.6040  1.5600
62252SOL     OW96685  11.752   2.262  11.037  0.1237  0.0114 -0.0387
62252SOL    HW196686  11.676   2.284  10.983  1.5877  0.6492 -1.9937
62252SOL    HW296687  11.761   2.336  11.097 -0.7370 -0.0246  0.1438
62253SOL     OW96688  10.081   6.380  13.049 -0.7846  0.3704 -0.2426
62253SOL    HW196689   9.998   6.338  13.027 -0.7393 -0.7370  1.4533
62253SOL    HW296690  10.145   6.309  13.049 -0.0140  1.0476 -0.6302
62254SOL     OW96691   4.819   3.662  11.884 -0.0514 -0.2027 -0.1950
62254SOL    HW196692   4.793   3.580  11.843 -0.8701  0.2148 -0.5190
62254SOL    HW296693   4.829   3.640  11.977 -0.7578 -0.5585 -0.1989
62255SOL     OW96694  10.024   7.342   5.256  0.1037 -0.1761  0.6977
62255SOL    HW196695  10.111   7.328   5.291 -0.9278 -0.7872  3.2290
62255SOL    HW296696   9.986   7.409   5.313 -1.7393 -1.3410  0.9126
62256SOL     OW96697  13.119  11.563   3.779  0.3242  0.0537  0.7944
62256SOL    HW196698  13.188  11.609   3.826 -0.7283  1.1417  1.3359
62256SOL    HW296699  13.137  11.579   3.687  0.3063  1.0749  0.9607
62257SOL     OW96700   6.748   8.401   5.632  0.6469 -0.5313  0.5474
62257SOL    HW196701   6.789   8.466   5.690  0.4033  0.2545 -0.1446
62257SOL    HW296702   6.813   8.385   5.564 -0.3326  1.0982 -0.8376
62258SOL     OW96703   9.768   6.591  10.752 -0.0067  0.3223  0.4463
62258SOL    HW196704   9.819   6.520  10.713 -0.5166  0.4374 -0.4418
62258SOL    HW296705   9.705   6.615  10.685  0.9964  2.5028  0.1934
62259SOL     OW96706   8.393   4.294  12.003  0.1044 -0.0357  0.4774
62259SOL    HW196707   8.415   4.321  12.092  1.9737 -0.2529  0.1226
62259SOL    HW296708   8.381   4.199  12.009  0.0662 -0.0271  0.5319
62260SOL     OW96709   0.517  11.974   3.892 -0.1951 -0.0217  0.1032
62260SOL    HW196710   0.545  12.059   3.928  0.1838 -0.2124  0.2686
62260SOL    HW296711   0.425  11.987   3.869 -0.2689  0.2936  0.5540
62261SOL     OW96712  11.223   5.202   6.559  0.0757 -0.5568 -0.2118
62261SOL    HW196713  11.257   5.271   6.615 -1.4134  0.2408 -0.2318
62261SOL    HW296714  11.252   5.225   6.471  1.8564 -1.4546  0.0924
62262SOL     OW96715   7.722   9.904   2.734  0.2287 -0.1923 -0.2390
62262SOL    HW196716   7.642   9.938   2.773  0.9602 -0.2410  1.3747
62262SOL    HW296717   7.693   9.859   2.654 -1.1683  1.0031 -0.4428
62263SOL     OW96718   4.460   7.114   5.295 -0.5258 -0.5021  0.0242
62263SOL    HW196719   4.545   7.156   5.306  0.5474 -2.1586 -1.3675
62263SOL    HW296720   4.428   7.100   5.384  1.4228 -1.2789  0.6559
62264SOL     OW96721   0.861  11.945   1.398  0.1556  0.7188 -0.3176
62264SOL    HW196722   0.905  11.976   1.319  1.7868  0.4031  0.4319
62264SOL    HW296723   0.918  11.876   1.432 -0.1560  1.2967  1.4896
62265SOL     OW96724  12.312   7.286   2.204  0.0731  0.0160  0.0128
62265SOL    HW196725  12.365   7.270   2.126 -0.2272  0.2890 -0.2526
62265SOL    HW296726  12.326   7.209   2.259  0.3194 -0.1602 -0.2943
62266SOL     OW96727   4.981  10.364   0.925  0.0528  0.3383 -0.1521
62266SOL    HW196728   4.960  10.271   0.927 -2.1200  0.7693 -0.1049
62266SOL    HW296729   5.016  10.383   1.012  0.0899 -0.3548 -0.0115
62267SOL     OW96730  11.570   1.641  10.845 -0.3188  0.5848 -0.0239
62267SOL    HW196731  11.508   1.709  10.871 -1.0644 -0.8167  2.1182
62267SOL    HW296732  11.615   1.617  10.926  0.4302 -0.9920 -0.8538
62268SOL     OW96733   1.953   7.492  10.450  0.2951  0.0480  0.2876
62268SOL    HW196734   1.899   7.428  10.404 -0.5986  1.2562 -0.3896
62268SOL    HW296735   2.037   7.491  10.404 -0.2735  0.5545 -0.8114
62269SOL     OW96736   2.277   5.401   4.309 -0.2792 -0.1506  0.5514
62269SOL    HW196737   2.371   5.404   4.326 -0.2437 -1.7463  0.8548
62269SOL    HW296738   2.240   5.355   4.385 -0.8859 -2.1944 -0.8693
62270SOL     OW96739  11.656   5.629   8.058  0.4237 -0.5907  0.4302
62270SOL    HW196740  11.642   5.716   8.095  1.6346 -0.6300  1.0172
62270SOL    HW296741  11.727   5.640   7.995  0.9711 -1.2455  0.9206
62271SOL     OW96742   7.290  11.713   2.005  0.0425 -0.1083 -0.2025
62271SOL    HW196743   7.224  11.776   2.036  0.1027 -1.1532  2.3754
62271SOL    HW296744   7.374  11.756   2.021  0.2056 -1.4058  3.6409
62272SOL     OW96745   2.979   8.769  12.426  0.0716 -0.0416  0.0654
62272SOL    HW196746   2.973   8.794  12.518  0.7466  1.5391 -0.2780
62272SOL    HW296747   3.064   8.803  12.398 -0.1006 -0.5398 -1.1346
62273SOL     OW96748  12.262   5.546   4.042  0.3377 -0.2335 -1.0143
62273SOL    HW196749  12.261   5.451   4.058  0.1915 -0.0370  0.2925
62273SOL    HW296750  12.182   5.562   3.992 -0.1905 -0.6832 -0.3481
62274SOL     OW96751   5.573   0.561   6.011  0.0070  0.8003 -0.3417
62274SOL    HW196752   5.479   0.550   6.024 -0.0322  0.7899 -0.6285
62274SOL    HW296753   5.592   0.650   6.039  0.1089  0.4384  0.8062
62275SOL     OW96754   5.377   7.948   7.873 -0.3323  0.4082 -0.6925
62275SOL    HW196755   5.288   7.934   7.905  0.0587  0.1270  0.3048
62275SOL    HW296756   5.432   7.945   7.951  0.5488  0.6902 -1.2776
62276SOL     OW96757   6.110   4.514   1.821 -0.0093 -0.3089 -0.4522
62276SOL    HW196758   6.129   4.491   1.730 -0.1924  0.5673 -0.7192
62276SOL    HW296759   6.165   4.591   1.838  0.0350 -0.4756  0.1835
62277SOL     OW96760   0.604   9.575   3.520  0.0628 -0.3872  0.4839
62277SOL    HW196761   0.516   9.548   3.496  0.1540 -1.0673  0.8986
62277SOL    HW296762   0.661   9.527   3.460  0.1814 -0.4643  0.6572
62278SOL     OW96763   5.454   3.136   8.796 -0.6151 -0.3383 -0.1728
62278SOL    HW196764   5.468   3.230   8.783  0.9995 -0.6999 -1.4529
62278SOL    HW296765   5.422   3.128   8.885 -0.6126  1.4179  0.0101
62279SOL     OW96766   1.896   8.881  13.111 -0.7948  0.1303  0.2231
62279SOL    HW196767   1.959   8.814  13.084 -0.1899  0.0383  1.7709
62279SOL    HW296768   1.827   8.832  13.157 -0.3207  0.5462  1.4188
62280SOL     OW96769   5.259  13.156  10.862  0.0250  0.1900 -0.5971
62280SOL    HW196770   5.292  13.190  10.945 -1.7474  1.7982 -0.4733
62280SOL    HW296771   5.292  13.066  10.858  1.9159  0.7608  0.7994
62281SOL     OW96772   4.055  10.287   4.467 -0.2507 -0.2423 -1.1824
62281SOL    HW196773   3.995  10.317   4.399 -1.6528 -0.5614 -0.1456
62281SOL    HW296774   3.999  10.274   4.543  1.3846  0.7996  0.2642
62282SOL     OW96775   7.432   6.786   8.880 -0.6943  0.3456 -0.4723
62282SOL    HW196776   7.401   6.721   8.942  0.1397 -0.5719 -0.9789
62282SOL    HW296777   7.373   6.861   8.891 -2.2516 -0.8273 -0.5108
62283SOL     OW96778   5.865   6.643   3.654 -0.2114  0.0342  0.4556
62283SOL    HW196779   5.943   6.629   3.600 -0.8881  0.7966 -0.7636
62283SOL    HW296780   5.822   6.558   3.656 -0.9231  0.3026 -1.4608
62284SOL     OW96781  11.701  11.553   3.073  0.1133 -0.0070  0.2127
62284SOL    HW196782  11.655  11.562   3.156  0.0168  1.0665  0.0456
62284SOL    HW296783  11.632  11.530   3.010 -0.5079  2.9570 -0.3212
62285SOL     OW96784   2.306   4.137   5.611 -0.4955  0.1011  0.7524
62285SOL    HW196785   2.313   4.138   5.706 -0.6365 -1.0830  0.7885
62285SOL    HW296786   2.231   4.194   5.592 -1.1503 -0.5187  1.4304
62286SOL     OW96787  11.219  12.731   6.351 -0.2346 -0.2001  0.1326
62286SOL    HW196788  11.162  12.808   6.351 -0.2404 -0.1635 -1.5451
62286SOL    HW296789  11.273  12.741   6.273  1.7308 -0.5120  1.3863
62287SOL     OW96790   6.055   8.425   6.170  0.0772 -0.1958  0.1310
62287SOL    HW196791   5.964   8.398   6.179 -0.2494  0.0558 -1.8154
62287SOL    HW296792   6.105   8.358   6.216 -0.9378 -1.9414 -1.1613
62288SOL     OW96793  11.101  12.544   6.530 -0.3923  0.0013  0.3213
62288SOL    HW196794  11.149  12.583   6.457  0.7257  2.6694  2.2738
62288SOL    HW296795  11.168  12.525   6.595 -1.5321 -0.2742  1.4640
62289SOL     OW96796   0.949  12.441  11.323 -0.5538  0.0131  0.0172
62289SOL    HW196797   1.026  12.497  11.322 -1.0469  0.7452  1.2222
62289SOL    HW296798   0.950  12.397  11.238 -0.1516  1.8273 -0.9500
62290SOL     OW96799   9.904   9.420   7.055  0.2823  0.1228 -0.0764
62290SOL    HW196800   9.968   9.491   7.061 -2.5759  2.9473 -0.0396
62290SOL    HW296801   9.856   9.423   7.138 -1.5946  0.0049 -1.0861
62291SOL     OW96802   6.708   3.274  13.085  0.6323  0.4719  1.1296
62291SOL    HW196803   6.670   3.192  13.053  1.1559  0.5556  0.2771
62291SOL    HW296804   6.704   3.267  13.180 -0.2930 -0.0898  1.0605
62292SOL     OW96805   7.890  11.902   2.232  0.3493  0.4516  0.0133
62292SOL    HW196806   7.852  11.907   2.320 -0.4694 -0.5545 -0.2704
62292SOL    HW296807   7.831  11.955   2.178 -0.2922 -0.5708 -0.3027
62293SOL     OW96808   1.980   4.322   7.878  0.1691  0.2892 -0.6209
62293SOL    HW196809   1.925   4.305   7.801 -1.3219  0.4260  0.3728
62293SOL    HW296810   1.954   4.255   7.941  1.7491 -0.1469 -0.3860
62294SOL     OW96811  11.371   7.259  12.284 -0.1983  0.1854 -0.6874
62294SOL    HW196812  11.458   7.233  12.314 -0.2716 -1.4206 -1.6861
62294SOL    HW296813  11.357   7.346  12.321  0.7213 -0.6064  1.6994
62295SOL     OW96814   2.647   5.403   7.892 -0.4750  0.4607  0.5033
62295SOL    HW196815   2.623   5.360   7.974  1.2850 -1.7759 -0.0275
62295SOL    HW296816   2.629   5.337   7.825 -1.0887  1.9355 -0.8541
62296SOL     OW96817  11.331  12.228   2.435  0.0155  0.1383  0.1642
62296SOL    HW196818  11.331  12.135   2.414 -1.0854  0.3790 -1.0128
62296SOL    HW296819  11.424  12.251   2.441  0.3016 -1.1274  1.0067
62297SOL     OW96820   4.457  11.928   4.169  0.1873  0.3368 -0.5538
62297SOL    HW196821   4.525  11.861   4.166  0.3761  0.4461  0.7101
62297SOL    HW296822   4.388  11.896   4.111  0.8800 -0.2658 -1.0474
62298SOL     OW96823   0.102   3.137   0.642  0.8128 -0.1319 -0.5153
62298SOL    HW196824   0.047   3.077   0.694  1.4837 -1.3684 -1.1918
62298SOL    HW296825   0.166   3.171   0.705 -0.7971  1.5143  0.3444
62299SOL     OW96826   2.199   1.591  10.576 -0.6405 -0.9274  0.1761
62299SOL    HW196827   2.231   1.503  10.560  1.7375 -0.2332  0.6730
62299SOL    HW296828   2.232   1.643  10.503  1.2846  0.2197  1.7498
62300SOL     OW96829   7.687   0.294   7.950  0.3958  0.1691  0.5725
62300SOL    HW196830   7.769   0.252   7.976  0.4174  0.1146  0.4136
62300SOL    HW296831   7.625   0.269   8.018  0.3363 -0.3521  0.3263
62301SOL     OW96832  12.173   9.196   2.311  0.3301 -0.9310 -0.7873
62301SOL    HW196833  12.083   9.164   2.302 -0.9374  1.0858  2.5433
62301SOL    HW296834  12.204   9.158   2.394  0.9957  1.4487  0.1380
62302SOL     OW96835  10.815   8.207   6.112  0.3970  0.1807  1.0324
62302SOL    HW196836  10.840   8.291   6.150 -0.1314  0.3878  0.9309
62302SOL    HW296837  10.768   8.162   6.182  1.7175 -0.5313  1.4798
62303SOL     OW96838   1.845   5.086   4.005 -0.1326  0.3486  1.0301
62303SOL    HW196839   1.917   5.142   3.974 -0.9321  1.9607  1.9482
62303SOL    HW296840   1.859   5.079   4.099 -0.6202 -0.1832  1.0680
62304SOL     OW96841   6.531   4.386   3.153  0.7401  0.3955 -0.3031
62304SOL    HW196842   6.474   4.397   3.076 -0.2094 -0.5789  0.2292
62304SOL    HW296843   6.607   4.339   3.120 -0.0537 -0.7968 -0.5241
62305SOL     OW96844  11.388   4.346   4.371 -0.1280 -0.2810  0.0134
62305SOL    HW196845  11.448   4.387   4.309  0.4534 -1.9821 -0.6156
62305SOL    HW296846  11.351   4.272   4.322  0.4308 -1.7489  1.6990
62306SOL     OW96847  12.043   6.764   6.653  0.1540 -0.1828 -0.2858
62306SOL    HW196848  12.065   6.820   6.579  1.0395 -0.3397 -0.1482
62306SOL    HW296849  12.074   6.812   6.730 -1.3700  0.3005  0.0711
62307SOL     OW96850   9.991  10.879  12.071  0.0708 -0.6486 -0.0157
62307SOL    HW196851   9.990  10.850  11.980 -0.9605 -0.8397  0.0462
62307SOL    HW296852  10.064  10.830  12.111 -0.3477 -1.6182 -0.4033
62308SOL     OW96853   3.257   1.748   6.459  0.5445 -0.1303  0.2769
62308SOL    HW196854   3.194   1.747   6.387  0.3582 -0.1017  0.4387
62308SOL    HW296855   3.331   1.799   6.426 -0.0699  0.9704  0.5496
62309SOL     OW96856   7.006   6.784   1.958 -0.0152 -0.0891 -0.2037
62309SOL    HW196857   7.006   6.697   1.998  1.2142  0.5594  1.3222
62309SOL    HW296858   7.066   6.776   1.884  0.3837 -0.4554  0.1536
62310SOL     OW96859   7.873   2.687   0.550 -0.2374 -0.1058 -0.3702
62310SOL    HW196860   7.950   2.649   0.591 -0.6972 -1.6055 -0.8436
62310SOL    HW296861   7.801   2.665   0.609 -0.3266  1.4278  0.1554
62311SOL     OW96862  10.206   0.964  12.799  0.0479  0.6225  0.1477
62311SOL    HW196863  10.262   0.893  12.829  0.4996  0.9020 -0.0362
62311SOL    HW296864  10.244   1.043  12.837  1.1087  1.0976 -1.7914
62312SOL     OW96865   1.414   1.294   6.695  0.3572  0.0849 -0.1926
62312SOL    HW196866   1.430   1.199   6.692 -1.4755 -0.2438 -0.7805
62312SOL    HW296867   1.471   1.330   6.626  1.1084 -0.5696  0.0696
62313SOL     OW96868  11.616  12.884  10.182  0.3767  0.2305  0.8250
62313SOL    HW196869  11.664  12.814  10.225 -0.2411 -1.2428 -0.7816
62313SOL    HW296870  11.596  12.946  10.252  2.1669 -0.4718  2.0244
62314SOL     OW96871  10.273  10.024   8.450 -0.9241 -0.3579  0.1429
62314SOL    HW196872  10.315  10.029   8.536  0.9238  4.2026 -0.7366
62314SOL    HW296873  10.341   9.991   8.391 -1.6243 -1.7638  0.0807
62315SOL     OW96874   3.537  12.574   1.018  0.2066  0.1533  0.7293
62315SOL    HW196875   3.613  12.559   1.074  0.3003 -1.1184  0.2954
62315SOL    HW296876   3.540  12.503   0.954 -1.1127  0.3290  0.4381
62316SOL     OW96877  10.691  11.526   3.378  0.3241  0.5331  0.3593
62316SOL    HW196878  10.609  11.542   3.425 -0.3561  0.0635 -0.6334
62316SOL    HW296879  10.701  11.431   3.379 -0.7949  0.3279 -2.1813
62317SOL     OW96880   1.275   3.867  12.026 -0.3538  0.1831  0.4235
62317SOL    HW196881   1.350   3.812  12.003  1.3388  2.1460  0.9105
62317SOL    HW296882   1.244   3.900  11.942 -1.1439 -1.1344  0.1608
62318SOL     OW96883   5.913   1.619  10.934  0.2351  0.2486 -0.4115
62318SOL    HW196884   5.897   1.536  10.888  0.5333  0.4103 -0.8239
62318SOL    HW296885   5.865   1.684  10.883  0.9222  0.4970 -0.7670
62319SOL     OW96886   4.179  11.657   0.255 -0.3371  0.1052  0.5682
62319SOL    HW196887   4.111  11.607   0.300 -2.3376  0.8394 -1.4400
62319SOL    HW296888   4.131  11.730   0.215  1.2164 -0.4998 -2.7228
62320SOL     OW96889  11.018   2.584   4.625 -0.4314 -0.4422  0.4745
62320SOL    HW196890  11.096   2.593   4.569 -0.9802  0.5536 -0.1558
62320SOL    HW296891  10.965   2.517   4.581  0.4926 -1.9010  1.4554
62321SOL     OW96892   4.060   4.205   0.297 -0.0156  0.3580 -0.2400
62321SOL    HW196893   4.051   4.118   0.257 -0.9334  1.2283 -2.0979
62321SOL    HW296894   3.987   4.256   0.259 -0.5654  1.4783  2.1452
62322SOL     OW96895  13.054   6.903   6.574  0.3094 -0.0087 -0.2015
62322SOL    HW196896  13.092   6.990   6.566  0.0158  0.0094 -1.6594
62322SOL    HW296897  13.012   6.887   6.489 -0.3324 -1.2403  0.3242
62323SOL     OW96898   1.863   4.827   3.274 -0.6608 -0.0658  0.4375
62323SOL    HW196899   1.950   4.861   3.257 -0.4125 -0.6856  0.4472
62323SOL    HW296900   1.862   4.808   3.368 -1.2876  1.2608  0.7258
62324SOL     OW96901   5.785   4.994   4.037 -0.4733 -0.2063 -0.0644
62324SOL    HW196902   5.752   4.937   4.107 -0.4789  0.0193  0.1160
62324SOL    HW296903   5.861   4.947   4.002  0.4803  0.4018  1.1252
62325SOL     OW96904   1.595   5.702  11.658 -0.4623  0.0442  0.4390
62325SOL    HW196905   1.614   5.655  11.577 -1.8334  0.3538 -0.0887
62325SOL    HW296906   1.543   5.641  11.710  0.5927 -0.2326  1.2021
62326SOL     OW96907   5.196   4.793   8.541  0.1101  0.2220  0.3664
62326SOL    HW196908   5.102   4.793   8.555 -0.0643 -1.2257 -0.5650
62326SOL    HW296909   5.229   4.727   8.602  0.2271 -0.8174 -0.7714
62327SOL     OW96910   4.024  12.143   5.334  0.5547 -0.1263  0.6497
62327SOL    HW196911   3.936  12.176   5.317  0.1199 -0.8680  1.3867
62327SOL    HW296912   4.060  12.202   5.400  0.2707 -0.3428  1.0029
62328SOL     OW96913   0.521  10.209   6.933 -0.0737  0.8264 -0.6539
62328SOL    HW196914   0.571  10.249   6.862 -2.0071  4.2773 -0.3046
62328SOL    HW296915   0.435  10.190   6.894 -0.7071  1.4638  0.3712
62329SOL     OW96916   6.449   6.116   5.752 -0.3782 -0.6038 -0.0373
62329SOL    HW196917   6.370   6.064   5.767 -2.0322  1.2672 -1.6622
62329SOL    HW296918   6.431   6.199   5.796  0.0739  0.3356 -1.5616
62330SOL     OW96919  12.496   9.800   9.885  0.0789 -0.0355 -0.2464
62330SOL    HW196920  12.553   9.849   9.944 -0.1860 -1.2608  1.0951
62330SOL    HW296921  12.438   9.866   9.847  0.9603  0.9269  0.0481
62331SOL     OW96922  10.509  12.426  10.615  0.1277  0.4319 -0.2978
62331SOL    HW196923  10.451  12.439  10.690  0.1627 -2.0878  0.2451
62331SOL    HW296924  10.596  12.452  10.646 -0.0964  0.7108  0.0891
62332SOL     OW96925  12.323   9.706   0.193 -0.8336  0.1898  0.2067
62332SOL    HW196926  12.286   9.744   0.114 -1.8909  0.6006  0.8773
62332SOL    HW296927  12.322   9.612   0.177 -4.6306 -0.1072  1.1054
62333SOL     OW96928   6.826  11.564   8.087 -0.6489  0.3034 -0.0888
62333SOL    HW196929   6.780  11.488   8.122  0.1336 -0.7106 -1.1715
62333SOL    HW296930   6.775  11.589   8.010 -0.1987  0.0815 -0.4599
62334SOL     OW96931  12.396   4.605   2.248 -0.3005 -0.1510  0.0852
62334SOL    HW196932  12.326   4.638   2.191  1.2150  0.2129 -1.6844
62334SOL    HW296933  12.454   4.680   2.261 -0.4336 -0.3207  1.9082
62335SOL     OW96934   8.486  12.880   0.519 -0.5661  0.8205  0.5272
62335SOL    HW196935   8.493  12.921   0.433 -1.5314 -1.3059 -0.6689
62335SOL    HW296936   8.420  12.811   0.507 -0.9703  0.6614  3.0739
62336SOL     OW96937   1.247   9.335   7.461  0.0638 -0.1379  0.5054
62336SOL    HW196938   1.331   9.329   7.417 -0.4294  0.9378 -0.6370
62336SOL    HW296939   1.215   9.423   7.442 -1.7552 -0.8286  0.0562
62337SOL     OW96940   4.116   1.663   0.503 -0.2567 -0.5764  0.2105
62337SOL    HW196941   4.181   1.597   0.478 -0.8988 -1.3080  0.4169
62337SOL    HW296942   4.031   1.618   0.494 -0.8328  0.6753 -1.0895
62338SOL     OW96943   6.395   3.075   2.508 -0.5808 -0.5100 -0.1455
62338SOL    HW196944   6.405   3.037   2.596  1.6584  2.1986  0.9102
62338SOL    HW296945   6.307   3.113   2.509 -0.8673 -1.1481  0.6214
62339SOL     OW96946   8.161   7.713   5.532  0.3271 -0.0015  0.3341
62339SOL    HW196947   8.142   7.648   5.600 -0.1363  1.3107  1.5211
62339SOL    HW296948   8.238   7.759   5.564 -0.0916  0.8463  0.1418
62340SOL     OW96949   9.407   6.627   1.581  0.0321 -0.0424  0.0583
62340SOL    HW196950   9.440   6.650   1.668 -1.4497  0.9321  0.3959
62340SOL    HW296951   9.449   6.543   1.561 -0.2531 -0.7238  2.0763
62341SOL     OW96952   3.254  10.774   3.857 -0.3485 -0.2056  0.0442
62341SOL    HW196953   3.162  10.800   3.869  0.5040  2.9394  0.7645
62341SOL    HW296954   3.298  10.804   3.937  1.6152  0.1608 -1.1172
62342SOL     OW96955   6.608   8.383   6.039  0.1132  0.1851  0.4333
62342SOL    HW196956   6.598   8.336   5.957  1.0583  0.7525 -0.0200
62342SOL    HW296957   6.543   8.343   6.098 -1.0908  0.2752 -0.7918
62343SOL     OW96958   0.361   0.442  11.890  0.0565 -0.2330  0.3145
62343SOL    HW196959   0.392   0.356  11.860  0.0072 -0.1564  0.0363
62343SOL    HW296960   0.317   0.424  11.973  0.2323 -0.4449  0.3636
62344SOL     OW96961   0.907   5.565   1.767  0.3369  0.1916 -0.3093
62344SOL    HW196962   0.905   5.537   1.858  1.0237 -0.6644 -0.5438
62344SOL    HW296963   0.985   5.620   1.760  0.6801 -0.3199 -0.5365
62345SOL     OW96964  11.545  12.175  12.283  0.0492  0.3132  0.3341
62345SOL    HW196965  11.551  12.113  12.355 -0.3425 -0.2779 -0.1355
62345SOL    HW296966  11.631  12.171  12.241  0.2882  0.6804  0.7791
62346SOL     OW96967   2.874   9.889  12.262 -0.3529 -0.5902  0.3908
62346SOL    HW196968   2.963   9.870  12.233  0.8163  2.5387  1.4477
62346SOL    HW296969   2.834   9.936  12.189  0.7342  2.4736  1.5900
62347SOL     OW96970   9.883   0.684   9.418 -0.1455 -0.5730 -0.0150
62347SOL    HW196971   9.967   0.723   9.392  0.2332 -1.1933  0.2358
62347SOL    HW296972   9.853   0.737   9.491  1.3409 -1.9008  1.6248
62348SOL     OW96973   8.443   5.526   3.688  0.1416 -0.3924  0.3312
62348SOL    HW196974   8.531   5.498   3.713  0.3105 -0.6309 -0.4740
62348SOL    HW296975   8.396   5.444   3.674  0.6002 -0.3474 -1.9308
62349SOL     OW96976  10.769   0.212   4.689  0.1079 -0.2729 -0.2926
62349SOL    HW196977  10.807   0.134   4.648  1.0034 -0.0196  0.0336
62349SOL    HW296978  10.680   0.217   4.653 -1.0035 -2.9744  1.6603
62350SOL     OW96979   5.289   8.043   2.711 -0.3904 -0.4616  0.5084
62350SOL    HW196980   5.198   8.012   2.712 -1.4681  2.4506  0.2580
62350SOL    HW296981   5.307   8.064   2.803  0.1841 -1.3482  0.6099
62351SOL     OW96982   1.554  10.617   6.791 -0.0077  0.0991 -0.2806
62351SOL    HW196983   1.504  10.676   6.734  0.9552  0.5582 -0.6597
62351SOL    HW296984   1.594  10.554   6.731  0.5589  0.2492 -0.0623
62352SOL     OW96985   8.757   0.876   2.986  0.2442 -0.5153 -0.3943
62352SOL    HW196986   8.834   0.834   3.022  0.0446 -0.7765 -0.2674
62352SOL    HW296987   8.753   0.961   3.030 -0.0248 -0.8511  0.2462
62353SOL     OW96988   9.892  11.368   2.117 -0.3357 -0.3211  0.0386
62353SOL    HW196989   9.837  11.372   2.196 -0.2849  2.1734  0.0406
62353SOL    HW296990   9.970  11.321   2.145  0.8352  2.6082  2.3685
62354SOL     OW96991  11.010   0.315   4.127 -0.0624 -0.2604 -1.0293
62354SOL    HW196992  10.985   0.262   4.052 -1.0945 -1.3065  0.0006
62354SOL    HW296993  11.101   0.293   4.143 -0.1432 -0.8332 -1.3304
62355SOL     OW96994   5.093   7.388   0.450 -0.2801  0.2076  0.3794
62355SOL    HW196995   5.166   7.419   0.396  0.4693 -1.3559  0.4336
62355SOL    HW296996   5.126   7.392   0.540 -0.8385  0.9699  0.5616
62356SOL     OW96997   4.751   5.175   2.353  0.5486  0.5317 -0.0447
62356SOL    HW196998   4.746   5.169   2.448 -0.0238 -1.4315 -0.1397
62356SOL    HW296999   4.844   5.184   2.334  0.7252  0.3467  0.7002
62357SOL     OW97000   3.050   0.676   9.254 -0.2123 -0.1128 -0.1887
62357SOL    HW197001   3.095   0.594   9.274  3.5279  1.3793 -1.5477
62357SOL    HW297002   3.107   0.720   9.192 -3.6482  2.1903 -2.0311
62358SOL     OW97003   8.629   7.278   1.963  0.0340 -0.0246  0.5992
62358SOL    HW197004   8.550   7.331   1.976  0.0549  0.3247 -0.6128
62358SOL    HW297005   8.682   7.296   2.040 -0.9063  0.0214  1.2569
62359SOL     OW97006   4.926   6.990   0.389 -0.1279 -0.3100  0.1171
62359SOL    HW197007   4.943   7.034   0.473 -0.5342 -0.1671  0.1251
62359SOL    HW297008   4.908   7.062   0.329 -1.7944 -0.5068  0.3517
62360SOL     OW97009  11.947   8.381   1.600  0.2780 -0.2905  0.0261
62360SOL    HW197010  12.011   8.345   1.662  0.5621  1.7103  0.9977
62360SOL    HW297011  12.000   8.414   1.527  0.1973 -0.1852  0.0153
62361SOL     OW97012   2.750   4.410   7.343  0.1288  0.5081 -0.1157
62361SOL    HW197013   2.778   4.372   7.425 -0.8667 -0.8330 -0.3711
62361SOL    HW297014   2.827   4.407   7.287  0.0052 -1.5527 -0.2529
62362SOL     OW97015   0.120   9.283   4.738  0.2308 -0.2405 -0.2703
62362SOL    HW197016   0.094   9.278   4.646  1.2093 -0.7241 -0.5378
62362SOL    HW297017   0.203   9.330   4.737 -0.4775  1.0693  0.5293
62363SOL     OW97018   8.851   7.479   4.334 -0.0900 -0.0256  0.1833
62363SOL    HW197019   8.895   7.562   4.352 -0.6803  0.5397 -0.8609
62363SOL    HW297020   8.759   7.495   4.354 -0.1955 -0.4479  0.0495
62364SOL     OW97021  13.002  12.131  10.627 -0.1087 -0.4391  0.1150
62364SOL    HW197022  13.051  12.066  10.576 -1.8324 -0.6854 -1.3536
62364SOL    HW297023  12.995  12.206  10.568  0.3514  0.4212  1.1366
62365SOL     OW97024  12.412   6.493  11.469 -0.2751  0.8473 -0.1085
62365SOL    HW197025  12.358   6.473  11.546 -0.2380  2.5221  0.3885
62365SOL    HW297026  12.374   6.440  11.399 -0.6252 -0.3274  0.9335
62366SOL     OW97027  11.866   7.802   1.351 -0.1108 -0.5531 -0.0646
62366SOL    HW197028  11.906   7.722   1.385 -1.5264 -0.6665  1.5017
62366SOL    HW297029  11.811   7.834   1.424 -0.4500  1.2283 -1.0355
62367SOL     OW97030   2.248   6.026   7.712  0.5458 -0.4131 -0.0755
62367SOL    HW197031   2.252   6.121   7.722 -0.6682 -0.2189 -1.2004
62367SOL    HW297032   2.336   6.001   7.682  0.8627  0.3474  0.2020
62368SOL     OW97033   1.903   0.379   1.964 -0.2327 -0.0183 -0.0322
62368SOL    HW197034   1.896   0.465   1.925 -1.6359 -0.0936 -0.0145
62368SOL    HW297035   1.862   0.320   1.901  0.6759 -0.6830 -0.0304
62369SOL     OW97036  12.958   2.196   5.909  0.4699 -0.1055 -0.0914
62369SOL    HW197037  12.971   2.137   5.835 -0.4614 -0.3797 -0.0488
62369SOL    HW297038  13.031   2.258   5.903  0.4130 -0.1282 -1.2296
62370SOL     OW97039   1.606   6.400  10.528  0.6354 -0.2545  0.4595
62370SOL    HW197040   1.566   6.312  10.531  0.6595 -0.3552 -1.2122
62370SOL    HW297041   1.562   6.448  10.597 -0.6908 -1.0816  0.2340
62371SOL     OW97042   3.021   4.476   6.175 -0.3246 -0.1277  0.1822
62371SOL    HW197043   2.975   4.560   6.167  1.7730  1.0272 -0.4507
62371SOL    HW297044   3.042   4.451   6.085  0.8084 -0.2910  0.4689
62372SOL     OW97045   1.544  12.916   4.908 -0.6751  0.3981  0.1639
62372SOL    HW197046   1.472  12.977   4.892 -1.8014 -0.3504  2.0150
62372SOL    HW297047   1.507  12.830   4.888  0.0992  0.0993 -0.0192
62373SOL     OW97048   9.290   6.233  11.573 -0.6475 -0.2749  0.4644
62373SOL    HW197049   9.238   6.236  11.653 -0.5274  0.2318  0.5305
62373SOL    HW297050   9.252   6.301  11.517  0.5848  0.8513  0.9336
62374SOL     OW97051   7.940   5.908  10.029 -0.3403  0.1808 -0.0506
62374SOL    HW197052   8.018   5.954   9.996 -0.8090  0.5317 -0.6963
62374SOL    HW297053   7.944   5.822   9.988 -0.8185  0.5499 -0.8940
62375SOL     OW97054   1.092   3.623   1.821  0.1161  0.1032 -0.2641
62375SOL    HW197055   1.174   3.668   1.798 -0.2598  1.2634  0.5914
62375SOL    HW297056   1.071   3.571   1.743  0.2336  1.9258 -1.5890
62376SOL     OW97057   2.378   5.741  11.250 -0.6788  0.0873  0.0197
62376SOL    HW197058   2.464   5.765  11.283 -0.6627  0.9452 -0.5953
62376SOL    HW297059   2.352   5.665  11.301  1.4910 -1.7352 -1.4371
62377SOL     OW97060  12.076   4.662   7.615 -0.4609 -0.4799 -0.0300
62377SOL    HW197061  12.169   4.682   7.617 -0.6162  0.4136 -0.8961
62377SOL    HW297062  12.036   4.725   7.674 -0.7407  0.6104 -1.3307
62378SOL     OW97063   7.614   4.762   7.272  0.1229  0.3988  0.3563
62378SOL    HW197064   7.528   4.723   7.289  0.0566  1.3259  2.5955
62378SOL    HW297065   7.674   4.716   7.331  0.3878  2.2483  1.6340
62379SOL     OW97066   1.561   7.063  11.580  0.4548  0.1014 -0.0162
62379SOL    HW197067   1.653   7.065  11.555  0.6058  1.1583  0.5738
62379SOL    HW297068   1.517   7.115  11.513  0.3376 -0.0587 -0.0657
62380SOL     OW97069   5.018   0.576   7.891 -0.1307 -0.3956 -0.7010
62380SOL    HW197070   4.978   0.590   7.805 -0.0103  2.1507 -0.4134
62380SOL    HW297071   5.019   0.662   7.932  1.1815 -1.2687  1.2897
62381SOL     OW97072   7.768   6.397   1.223  0.2407 -0.3775 -0.6696
62381SOL    HW197073   7.862   6.395   1.241  0.3316  0.1274 -1.0849
62381SOL    HW297074   7.749   6.311   1.184  0.5085 -0.5125 -0.5063
62382SOL     OW97075   9.440   3.386   1.155 -0.4815  0.7434  0.7087
62382SOL    HW197076   9.422   3.292   1.159 -0.5389  0.7231  0.1430
62382SOL    HW297077   9.501   3.402   1.226 -0.3247  0.2436  0.6922
62383SOL     OW97078  11.619   1.081   0.476  0.5714 -0.1599  0.3490
62383SOL    HW197079  11.654   1.064   0.563 -2.4641 -1.2345  1.5115
62383SOL    HW297080  11.661   1.162   0.448  2.7791 -0.6007  2.1010
62384SOL     OW97081   1.940   0.812   9.751  0.5561  0.1181 -0.0615
62384SOL    HW197082   1.866   0.854   9.709 -1.0235 -0.6989  1.7461
62384SOL    HW297083   1.969   0.745   9.690 -0.4300  0.2168 -0.6423
62385SOL     OW97084   2.778   6.302   9.078  0.1014 -0.0634  0.1303
62385SOL    HW197085   2.783   6.343   8.992 -1.3653  0.7557  0.3942
62385SOL    HW297086   2.732   6.220   9.063  0.2501 -0.1375  0.0741
62386SOL     OW97087   6.515  10.362   6.135  0.1149 -0.3082  0.1220
62386SOL    HW197088   6.454  10.357   6.209  1.0374  1.8489  1.1216
62386SOL    HW297089   6.520  10.273   6.102 -1.2619 -1.1124  1.9062
62387SOL     OW97090   3.243  13.037   0.971 -0.6306  0.1343  0.0740
62387SOL    HW197091   3.213  13.112   1.022 -0.0943  0.5216 -0.1740
62387SOL    HW297092   3.254  13.072   0.882  1.1814  0.1695  0.2869
62388SOL     OW97093   5.577   8.000   1.604  0.6792 -0.2908 -0.0267
62388SOL    HW197094   5.639   8.054   1.556  1.9351 -1.5082  0.1615
62388SOL    HW297095   5.568   8.043   1.689 -0.0549  0.8030 -0.6365
62389SOL     OW97096   2.994  11.576   3.964  0.1938 -0.0030 -0.5910
62389SOL    HW197097   2.944  11.619   3.894 -0.6009 -0.7744 -0.5143
62389SOL    HW297098   3.023  11.493   3.926 -0.2675 -0.4422 -0.0057
62390SOL     OW97099   9.244  10.540   9.446 -0.0409 -0.1016  0.4623
62390SOL    HW197100   9.296  10.581   9.377 -0.2320  0.1561  0.4736
62390SOL    HW297101   9.178  10.605   9.470 -1.0200 -0.8068 -0.2539
62391SOL     OW97102  11.579  12.737   2.351  0.1380 -0.3561 -0.0145
62391SOL    HW197103  11.538  12.674   2.410  0.6965 -0.3324  0.4126
62391SOL    HW297104  11.557  12.706   2.264 -0.2950 -0.6672  0.2034
62392SOL     OW97105   4.620   9.702   2.393 -0.6659 -0.1682  0.3967
62392SOL    HW197106   4.640   9.624   2.341 -0.3843 -0.5724  1.0876
62392SOL    HW297107   4.573   9.760   2.333 -0.6869 -0.7783 -0.1903
62393SOL     OW97108   1.903  12.119  13.080  0.4439 -0.1794  0.6311
62393SOL    HW197109   1.824  12.164  13.049 -0.0773 -1.1674  0.4868
62393SOL    HW297110   1.924  12.057  13.010  1.6821  0.4448  0.4152
62394SOL     OW97111  10.170   5.589   4.666 -0.1426  0.3669  0.5820
62394SOL    HW197112  10.111   5.575   4.591  0.2325 -0.3619  0.4184
62394SOL    HW297113  10.240   5.645   4.631 -0.4673  0.8230  0.6469
62395SOL     OW97114  10.377   8.400   9.033  0.5017  0.5313 -0.0363
62395SOL    HW197115  10.464   8.367   9.056  1.2188  1.2214 -1.6138
62395SOL    HW297116  10.393   8.488   8.998 -0.5148 -0.2516 -2.6558
62396SOL     OW97117  11.227   6.064   1.173  0.2162 -0.2713 -0.0109
62396SOL    HW197118  11.173   6.093   1.099 -0.1663 -0.1143  0.3254
62396SOL    HW297119  11.317   6.081   1.146  0.0680 -0.0757 -0.3802
62397SOL     OW97120   4.276   9.115  12.879 -0.1148 -0.5525  0.1539
62397SOL    HW197121   4.217   9.117  12.804  0.0663 -0.4277  0.0162
62397SOL    HW297122   4.348   9.058  12.853  0.8829  0.9368 -0.4741
62398SOL     OW97123   7.593   3.421   6.163  0.2992  0.1902 -0.3584
62398SOL    HW197124   7.532   3.438   6.235  0.6411 -1.8026  0.4540
62398SOL    HW297125   7.551   3.354   6.110  1.5398 -0.8572 -0.0650
62399SOL     OW97126   4.429  11.092   7.203 -0.2249 -0.1067 -0.5397
62399SOL    HW197127   4.381  11.142   7.269 -0.4199 -0.5489 -0.3438
62399SOL    HW297128   4.500  11.051   7.252  1.5309  2.0494 -1.1374
62400SOL     OW97129   1.983  10.232   5.275  0.0743  0.3170  0.2614
62400SOL    HW197130   2.026  10.269   5.197 -0.7916 -0.8218 -0.7913
62400SOL    HW297131   2.051  10.181   5.318  0.4344  0.5632 -0.0069
62401SOL     OW97132  12.664   8.605  10.289 -0.5765 -0.4988 -0.0978
62401SOL    HW197133  12.689   8.514  10.276 -0.8609 -0.6886  0.6284
62401SOL    HW297134  12.713   8.654  10.223  1.0197 -0.9481  0.7067
62402SOL     OW97135   7.260  10.336   5.043  0.5289 -0.1677 -0.0625
62402SOL    HW197136   7.232  10.376   5.125  1.2460  0.9599 -0.3422
62402SOL    HW297137   7.225  10.394   4.975  0.6404 -0.6304 -0.5256
62403SOL     OW97138   4.890  10.522   4.564 -0.4270 -0.1863  0.0140
62403SOL    HW197139   4.823  10.585   4.590  1.0025  1.6399 -0.5432
62403SOL    HW297140   4.867  10.442   4.612 -0.7640  1.5167  2.9454
62404SOL     OW97141   2.422   9.012   0.567 -0.2603 -0.2210  0.7610
62404SOL    HW197142   2.473   9.005   0.647  2.2314 -0.6156 -0.7344
62404SOL    HW297143   2.465   9.083   0.518 -2.0845  0.4164  0.0039
62405SOL     OW97144   9.152   1.263   4.863 -1.2483  0.4460  0.0215
62405SOL    HW197145   9.101   1.239   4.940 -1.3908  0.0407 -0.1955
62405SOL    HW297146   9.243   1.257   4.891 -1.2293 -1.4923 -0.3331
62406SOL     OW97147   3.178   2.421   4.813  0.3384 -0.2910 -0.0957
62406SOL    HW197148   3.169   2.417   4.718  0.9300 -0.5146 -0.1511
62406SOL    HW297149   3.115   2.358   4.846  0.8281 -0.9525 -0.3935
62407SOL     OW97150  13.061   9.083  11.479  0.0394 -0.0364 -0.0496
62407SOL    HW197151  12.971   9.115  11.478 -0.3440 -1.0731 -0.4367
62407SOL    HW297152  13.098   9.117  11.561 -0.8331  0.0516  0.3187
62408SOL     OW97153  11.942   3.408  11.321 -0.4072  0.4318  0.1736
62408SOL    HW197154  11.931   3.346  11.249 -0.5417  1.6555 -0.8834
62408SOL    HW297155  12.010   3.369  11.375  1.7600  0.7982 -2.1097
62409SOL     OW97156  11.174   4.404  11.823  0.1098 -0.4002  0.0417
62409SOL    HW197157  11.201   4.347  11.751 -0.9551  2.2532 -2.6910
62409SOL    HW297158  11.254   4.421  11.872  0.9082 -2.1298 -0.5833
62410SOL     OW97159  11.740   2.663   8.948 -0.0994 -0.6508  0.2072
62410SOL    HW197160  11.745   2.679   8.854  1.1825  0.2444  0.3983
62410SOL    HW297161  11.722   2.569   8.955  3.3395 -1.5547 -0.9644
62411SOL     OW97162   6.424  11.195   0.009 -0.2183  0.1334 -0.2405
62411SOL    HW197163   6.378  11.228   0.087 -0.8682  0.4821 -0.7610
62411SOL    HW297164   6.367  11.127  -0.026  0.0595 -0.0008 -0.4374
62412SOL     OW97165   2.946   5.035   3.372  0.8755  0.4961 -0.3139
62412SOL    HW197166   3.037   5.029   3.401  0.4432  2.2769  1.6353
62412SOL    HW297167   2.912   4.946   3.380  2.2346 -0.0621 -0.4221
62413SOL     OW97168   0.932   2.841   4.725  0.5600 -0.2553 -0.0619
62413SOL    HW197169   0.981   2.780   4.780  0.5994 -0.4816 -0.3514
62413SOL    HW297170   0.863   2.874   4.783  0.6526 -0.4315  0.1505
62414SOL     OW97171  12.660   1.466  13.092  0.4424 -0.2370 -0.0043
62414SOL    HW197172  12.609   1.387  13.111  0.7186 -0.4197 -0.0176
62414SOL    HW297173  12.615   1.507  13.018  0.1305 -0.2271  0.1930
62415SOL     OW97174   1.952   1.976   2.941 -0.2928  0.4036  0.8153
62415SOL    HW197175   1.984   1.949   2.855 -1.6343  1.9420 -0.2405
62415SOL    HW297176   1.942   1.895   2.990 -1.2907 -0.7396 -1.1462
62416SOL     OW97177   8.335   9.693   8.489  0.1761  0.2530  0.7990
62416SOL    HW197178   8.374   9.781   8.490  0.1911  0.2747 -0.2345
62416SOL    HW297179   8.294   9.687   8.403  0.7329 -0.9878  0.6017
62417SOL     OW97180  12.555   2.278   0.574 -0.2251  0.1981  0.3440
62417SOL    HW197181  12.614   2.262   0.501  0.2319 -2.1844  1.1311
62417SOL    HW297182  12.486   2.334   0.538  0.6008  0.0582 -1.5743
62418SOL     OW97183   5.530  12.167  12.458 -0.4366  0.2498 -0.1465
62418SOL    HW197184   5.485  12.134  12.381  0.2707 -1.1229 -0.0024
62418SOL    HW297185   5.621  12.138  12.448  0.2084  2.0247  0.0960
62419SOL     OW97186   8.551   7.465   1.707  0.0821 -0.1905  0.4508
62419SOL    HW197187   8.551   7.533   1.774 -1.2615  0.7131 -0.4167
62419SOL    HW297188   8.470   7.415   1.723 -0.0778 -0.1783 -0.2783
62420SOL     OW97189  11.691   5.835  10.741 -0.7201 -0.0841 -0.0796
62420SOL    HW197190  11.764   5.857  10.683 -0.5937 -1.4808 -0.4818
62420SOL    HW297191  11.723   5.762  10.794 -0.8247  1.1657  1.7999
62421SOL     OW97192   7.065  11.907  12.673  0.7492  0.3778  0.1542
62421SOL    HW197193   7.097  11.996  12.666  2.1529 -0.1891 -1.1264
62421SOL    HW297194   7.099  11.862  12.595 -0.7771 -1.0205  0.2095
62422SOL     OW97195  12.405   7.534   8.158  0.0203  0.2432  0.1318
62422SOL    HW197196  12.379   7.599   8.222 -1.0154 -0.1051  0.0800
62422SOL    HW297197  12.324   7.506   8.117  0.3240 -1.6137  0.6610
62423SOL     OW97198  10.515  11.440  10.082  0.1128 -0.4148  0.3345
62423SOL    HW197199  10.480  11.419   9.996 -3.5208  0.7942  1.3112
62423SOL    HW297200  10.522  11.536  10.083  1.0458 -0.4670  1.1038
62424SOL     OW97201   4.682  10.890   6.558 -0.2823  0.1549  0.0775
62424SOL    HW197202   4.698  10.947   6.483 -1.3683 -0.6616 -0.8002
62424SOL    HW297203   4.590  10.903   6.580 -0.6466 -1.4673 -0.3437
62425SOL     OW97204   8.675   6.496   3.691 -0.7473 -0.4928  0.1764
62425SOL    HW197205   8.724   6.512   3.611  1.4456 -3.4517  0.7317
62425SOL    HW297206   8.713   6.557   3.754  0.4760 -0.9395 -0.0842
62426SOL     OW97207   6.781  12.711  10.530 -0.5010  0.2603 -0.5329
62426SOL    HW197208   6.853  12.746  10.478  1.3982 -1.1768  0.9114
62426SOL    HW297209   6.778  12.618  10.507 -1.3038  0.1232  0.0657
62427SOL     OW97210   3.345   0.136  12.786  0.1616 -0.1373 -0.0767
62427SOL    HW197211   3.280   0.168  12.724  0.1229 -1.8215 -0.9425
62427SOL    HW297212   3.314   0.167  12.871 -1.0712  0.1620 -0.6214
62428SOL     OW97213   5.604   2.470   4.999 -0.0725 -0.2632  0.1615
62428SOL    HW197214   5.551   2.484   4.920 -0.9397 -0.3430  0.7143
62428SOL    HW297215   5.561   2.397   5.044 -0.7570  1.0280  1.6951
62429SOL     OW97216   7.404  10.766   3.221  0.5960 -0.0307  0.2510
62429SOL    HW197217   7.459  10.845   3.217  0.4878  0.0401  0.1572
62429SOL    HW297218   7.350  10.779   3.299  0.1317  0.2860 -0.1142
62430SOL     OW97219  12.672   2.334  11.193 -0.7664  0.5688 -0.2561
62430SOL    HW197220  12.636   2.381  11.268 -0.1106 -0.9026  1.0207
62430SOL    HW297221  12.729   2.399  11.150  0.5075  0.8652  1.7430
62431SOL     OW97222   2.741   7.163   5.328  0.5272 -0.1947  0.1593
62431SOL    HW197223   2.702   7.235   5.279 -0.4946 -0.5195  0.4633
62431SOL    HW297224   2.728   7.087   5.272  1.8343 -0.1142 -0.2783
62432SOL     OW97225   5.130   1.654   3.898 -0.0248  0.0153  0.3612
62432SOL    HW197226   5.129   1.699   3.982  0.7306 -1.6026  1.2951
62432SOL    HW297227   5.046   1.608   3.895 -0.6815  1.2069 -0.4703
62433SOL     OW97228   3.588   7.057  12.840  0.3281  0.0859  0.2752
62433SOL    HW197229   3.682   7.074  12.844  0.3328 -0.0872  0.8774
62433SOL    HW297230   3.551   7.108  12.912 -0.1823  1.0883 -0.6731
62434SOL     OW97231   1.280   0.141  12.704 -0.4981 -0.1662 -0.2707
62434SOL    HW197232   1.328   0.114  12.625  1.5878 -0.5487  1.0520
62434SOL    HW297233   1.240   0.060  12.736  0.8657 -0.5733  0.4763
62435SOL     OW97234   7.804   4.255  11.208 -0.1809  0.4898 -0.0038
62435SOL    HW197235   7.784   4.161  11.198 -1.7712  0.7813  0.2414
62435SOL    HW297236   7.720   4.299  11.197  0.1981  1.7617  1.8381
62436SOL     OW97237  12.809   9.121   4.678 -0.0503  0.5239  0.0355
62436SOL    HW197238  12.777   9.048   4.625 -2.5490  1.9595 -0.5725
62436SOL    HW297239  12.838   9.186   4.614 -0.1204  1.0269  0.5061
62437SOL     OW97240   9.935  11.045   0.497  0.7491 -0.4884  0.2143
62437SOL    HW197241   9.889  11.046   0.581 -0.6361  0.0417 -0.5203
62437SOL    HW297242  10.018  11.088   0.515  0.0622  0.5301  1.1071
62438SOL     OW97243   2.554   2.624  12.598  0.5219 -0.0562 -0.6897
62438SOL    HW197244   2.633   2.667  12.631  0.3511 -0.1805 -0.1113
62438SOL    HW297245   2.482   2.671  12.640  0.3286 -0.7801 -0.2018
62439SOL     OW97246   0.965   6.152   1.751 -0.4600  0.4212 -0.0933
62439SOL    HW197247   0.996   6.062   1.759 -0.7461  0.3606  0.3402
62439SOL    HW297248   0.888   6.146   1.694  0.4091  0.5963 -1.3346
62440SOL     OW97249  12.601   1.746   2.804 -0.6898 -0.0399 -0.3694
62440SOL    HW197250  12.613   1.841   2.805  0.4314 -0.0714  3.0289
62440SOL    HW297251  12.681   1.712   2.763 -0.5766  0.4734 -0.5802
62441SOL     OW97252   1.991   3.522   4.503  0.2530  0.0063 -0.1268
62441SOL    HW197253   1.932   3.597   4.513  1.0007  0.3788  2.2452
62441SOL    HW297254   2.016   3.500   4.593  1.5328 -1.9221 -0.8898
62442SOL     OW97255   2.529   5.967  10.996 -0.5317 -0.0203 -0.2743
62442SOL    HW197256   2.526   5.873  11.013 -0.3619 -0.0374 -0.3430
62442SOL    HW297257   2.568   6.004  11.076  1.2877 -0.2050 -1.0356
62443SOL     OW97258   2.277  11.677  13.053  0.3375  0.2491 -0.6395
62443SOL    HW197259   2.360  11.717  13.078  0.8427 -0.7656 -0.6398
62443SOL    HW297260   2.291  11.583  13.065 -1.4182  0.1404  1.2460
62444SOL     OW97261   0.476   3.171   0.364  0.8887 -0.3406  0.1403
62444SOL    HW197262   0.507   3.174   0.273  1.8876 -1.0057  0.4533
62444SOL    HW297263   0.555   3.172   0.417  0.3662 -1.2859  0.9737
62445SOL     OW97264   4.482  12.454  12.871 -0.4815 -0.0423  0.7606
62445SOL    HW197265   4.531  12.505  12.807 -0.2112 -0.5170  0.5875
62445SOL    HW297266   4.404  12.507  12.889  0.2723  0.9096  1.3423
62446SOL     OW97267   0.419   9.924   7.830 -0.0683 -0.3346  0.1274
62446SOL    HW197268   0.351   9.858   7.848  0.7827 -1.1728  0.3626
62446SOL    HW297269   0.493   9.897   7.885  0.9771 -0.2815 -1.2138
62447SOL     OW97270   9.518   8.056   9.306 -0.6309 -1.1431 -0.1323
62447SOL    HW197271   9.523   8.037   9.213 -1.1822 -1.2637 -0.1426
62447SOL    HW297272   9.432   8.023   9.333 -0.6336 -0.7673  0.3380
62448SOL     OW97273   4.096   9.652   4.743 -0.5111 -0.1583  0.4024
62448SOL    HW197274   4.117   9.569   4.701  0.6634  0.6544 -0.6961
62448SOL    HW297275   4.142   9.649   4.827 -0.0165 -0.3860  0.1227
62449SOL     OW97276  11.564   6.194   8.479 -0.2373  0.6210  0.1902
62449SOL    HW197277  11.596   6.253   8.412  0.4436 -0.5000 -0.5037
62449SOL    HW297278  11.481   6.160   8.445  0.3762 -0.3713 -0.3768
62450SOL     OW97279   1.001  10.569   0.760 -0.0695  0.4015  0.6240
62450SOL    HW197280   0.944  10.493   0.770 -1.4455  1.2462 -0.3965
62450SOL    HW297281   1.079  10.547   0.810 -1.0905 -0.9977  1.6881
62451SOL     OW97282   1.999   0.675   7.528 -0.2679 -0.2595  0.0191
62451SOL    HW197283   1.961   0.675   7.616 -1.3257  2.5406 -0.3374
62451SOL    HW297284   1.927   0.648   7.471 -0.8364  1.7226 -0.3010
62452SOL     OW97285  12.627   4.741   2.326 -0.2495 -0.4673 -0.1685
62452SOL    HW197286  12.704   4.695   2.293  0.2051 -1.6107  2.2229
62452SOL    HW297287  12.659   4.828   2.349  0.5339 -1.0861  1.2650
62453SOL     OW97288  10.730   5.116   7.571  0.0352  0.1875  1.1670
62453SOL    HW197289  10.660   5.124   7.636 -0.9274  2.4306 -0.0399
62453SOL    HW297290  10.696   5.055   7.506  0.0766 -0.3149  1.6072
62454SOL     OW97291   0.270  12.273   9.956 -0.2073 -0.3563  0.0029
62454SOL    HW197292   0.245  12.364   9.975 -0.4624 -0.3681 -0.2755
62454SOL    HW297293   0.199  12.220   9.992  0.2511 -0.4865  0.7384
62455SOL     OW97294   6.140   6.714   5.090 -0.2026 -0.0296  0.0358
62455SOL    HW197295   6.058   6.670   5.068  0.4917 -1.3821  0.0937
62455SOL    HW297296   6.166   6.678   5.174  0.5596  0.2228 -0.0813
62456SOL     OW97297  10.692   8.995  12.786 -0.4255 -0.1657  0.6582
62456SOL    HW197298  10.640   9.001  12.706  0.6900  0.9438 -0.0189
62456SOL    HW297299  10.778   8.965  12.757  0.0948  0.5825  1.3801
62457SOL     OW97300   7.247  12.793   5.082  0.4716  0.3674  0.4042
62457SOL    HW197301   7.262  12.739   5.160  1.0985  1.4131  1.0254
62457SOL    HW297302   7.240  12.729   5.011 -2.2188 -0.7941  1.5460
62458SOL     OW97303   9.188   9.880   6.300 -0.3340  0.7130 -0.2461
62458SOL    HW197304   9.156   9.921   6.220 -2.1169 -0.8339 -0.4044
62458SOL    HW297305   9.126   9.909   6.367 -1.2288 -1.0766 -0.2367
62459SOL     OW97306   6.537   5.907  12.206 -0.0200 -0.0806 -0.1226
62459SOL    HW197307   6.578   5.970  12.147 -0.3881  0.2509 -0.0287
62459SOL    HW297308   6.444   5.912  12.185  0.1841 -2.7928 -2.2619
62460SOL     OW97309  11.966   6.440   8.209  0.2724  0.2048 -0.4347
62460SOL    HW197310  11.979   6.532   8.233  1.1012  0.6700 -2.4381
62460SOL    HW297311  11.931   6.444   8.120  0.2079 -1.4164 -0.4999
62461SOL     OW97312   7.293  10.090  10.807  0.2544 -0.2661  0.5235
62461SOL    HW197313   7.337  10.168  10.841  1.5622 -0.4194 -0.6621
62461SOL    HW297314   7.343  10.068  10.727 -0.1802 -2.2010  0.7264
62462SOL     OW97315  10.156  10.243  10.724 -0.1965 -0.4038  0.0495
62462SOL    HW197316  10.157  10.264  10.630 -1.1311  1.3626  0.4017
62462SOL    HW297317  10.122  10.322  10.766 -0.0109 -1.2507  1.8703
62463SOL     OW97318   9.702  10.586   3.154 -0.2155 -0.4997  0.5254
62463SOL    HW197319   9.687  10.608   3.246  0.5511  0.5110  0.4363
62463SOL    HW297320   9.673  10.664   3.106 -1.4851 -1.3746 -0.1777
62464SOL     OW97321   9.369   9.402  11.755 -0.2619 -0.2446 -0.4232
62464SOL    HW197322   9.310   9.477  11.752 -0.1078 -0.0935  0.1504
62464SOL    HW297323   9.331   9.339  11.693  0.4098  0.8702 -2.0295
62465SOL     OW97324   6.110   7.251  11.935  0.2754 -0.1587 -0.2116
62465SOL    HW197325   6.114   7.345  11.954 -0.4056 -0.1443 -0.1035
62465SOL    HW297326   6.113   7.246  11.840  1.4584 -0.1007 -0.1925
62466SOL     OW97327   7.622   7.616   3.779 -0.1498  0.6701 -0.3524
62466SOL    HW197328   7.605   7.643   3.689 -1.2849 -0.6231 -0.5607
62466SOL    HW297329   7.705   7.658   3.802 -0.4995  2.0763 -1.5308
62467SOL     OW97330  12.706   1.873  10.592  0.6649  0.2645 -0.2614
62467SOL    HW197331  12.679   1.847  10.504  0.9513  0.7160 -0.4888
62467SOL    HW297332  12.780   1.932  10.578  0.5627  0.5317  0.2722
62468SOL     OW97333   4.999   2.167   6.000  0.1249  0.3067 -0.2004
62468SOL    HW197334   4.916   2.211   5.981  0.6627  1.2676 -0.3602
62468SOL    HW297335   4.974   2.075   6.016 -0.9759  0.6036 -0.1225
62469SOL     OW97336   8.876   0.277   1.942 -0.1773  0.0656 -0.2988
62469SOL    HW197337   8.816   0.231   1.883 -0.7537 -0.0077  0.3245
62469SOL    HW297338   8.956   0.288   1.891 -0.4907 -0.4307 -0.9210
62470SOL     OW97339   4.000   7.688   1.405 -0.1285  0.1373  0.1586
62470SOL    HW197340   3.943   7.661   1.477 -1.8993 -0.3692 -1.3390
62470SOL    HW297341   3.970   7.636   1.330  1.0081  1.3185 -1.1765
62471SOL     OW97342   3.129  12.878   1.668  0.0289  0.1036  0.2113
62471SOL    HW197343   3.044  12.908   1.634 -0.7543 -1.4552  0.7100
62471SOL    HW297344   3.111  12.854   1.759 -0.2192 -4.5833 -0.8481
62472SOL     OW97345   6.713  10.158   1.318 -0.1053 -0.1694 -0.7601
62472SOL    HW197346   6.765  10.153   1.398 -1.1882 -0.2824 -0.0418
62472SOL    HW297347   6.736  10.243   1.280  1.7030 -0.8416 -1.2585
62473SOL     OW97348   8.504   2.944  12.019  0.1049 -0.0888  0.2813
62473SOL    HW197349   8.413   2.925  12.043 -0.7604  2.9014 -0.2985
62473SOL    HW297350   8.505   2.940  11.923  0.6377 -0.2673  0.2919
62474SOL     OW97351   0.864   9.391  10.850 -0.2794  0.1045  0.3475
62474SOL    HW197352   0.771   9.406  10.864 -0.4236  2.0376 -2.0951
62474SOL    HW297353   0.907   9.449  10.914 -0.7741  0.6321  0.2117
62475SOL     OW97354   1.158   1.552   6.453 -0.3800  0.3794  0.6284
62475SOL    HW197355   1.084   1.594   6.410  0.1685 -0.4463 -1.2497
62475SOL    HW297356   1.188   1.615   6.517 -0.7932  2.0442 -0.7451
62476SOL     OW97357   7.952   4.387  12.379 -0.2326  0.2644  0.2365
62476SOL    HW197358   7.877   4.359  12.431  0.2524  0.1150  0.8715
62476SOL    HW297359   8.028   4.372  12.436  0.4572 -1.1218 -0.9567
62477SOL     OW97360  12.493  11.966   2.848  0.0390  0.9818  0.4300
62477SOL    HW197361  12.582  11.992   2.824  0.5610  0.4265  1.6709
62477SOL    HW297362  12.494  11.962   2.944 -0.7779 -0.8788  0.4023
62478SOL     OW97363   5.934   5.405   3.707 -0.3436 -0.0112 -0.3967
62478SOL    HW197364   5.882   5.329   3.733  0.1104 -0.7978 -1.6837
62478SOL    HW297365   5.990   5.373   3.636  0.9713  1.1347  0.0618
62479SOL     OW97366   6.165   9.367   9.701 -0.2159  0.4792  0.5268
62479SOL    HW197367   6.089   9.368   9.643  0.0396 -0.2865  0.1768
62479SOL    HW297368   6.196   9.458   9.701 -0.2824  0.5065 -0.4430
62480SOL     OW97369   1.758   4.028   0.806 -0.1688  0.2860 -0.0773
62480SOL    HW197370   1.712   4.070   0.733 -0.1429  0.3416 -0.0614
62480SOL    HW297371   1.767   4.097   0.872 -0.7897  0.0593  0.2548
62481SOL     OW97372   7.148   0.223   2.378  0.2781  0.2047  0.0236
62481SOL    HW197373   7.056   0.202   2.365 -0.3629  1.6741  1.7816
62481SOL    HW297374   7.192   0.190   2.299 -1.8836  0.4534 -1.3488
62482SOL     OW97375  10.052   5.403  10.976  0.1558  0.3531 -0.4358
62482SOL    HW197376  10.096   5.322  11.002  1.1788  1.1046  0.2206
62482SOL    HW297377  10.067   5.409  10.881  1.6719  0.6921 -0.1996
62483SOL     OW97378   0.860  12.673   1.085 -0.6276  0.4108 -0.0580
62483SOL    HW197379   0.897  12.643   1.168 -0.7511  0.3950 -0.0094
62483SOL    HW297380   0.932  12.663   1.023  0.0291  2.0999  0.3870
62484SOL     OW97381  11.244   7.823  11.361  0.2975 -0.1802  0.2016
62484SOL    HW197382  11.296   7.889  11.407 -0.7639  1.7045 -1.1581
62484SOL    HW297383  11.154   7.840  11.390 -0.1872  0.0465 -1.3651
62485SOL     OW97384   5.939   2.679   9.961 -0.3583  0.0521 -0.5844
62485SOL    HW197385   5.902   2.591   9.958 -0.5337  0.1339 -0.8098
62485SOL    HW297386   5.959   2.693  10.054  0.8571 -0.7177 -0.7002
62486SOL     OW97387   1.936   9.045   3.352 -0.2904 -0.2395  0.2890
62486SOL    HW197388   2.001   8.976   3.365  0.4836  0.4787  0.3629
62486SOL    HW297389   1.911   9.038   3.260  1.9241  1.1372 -0.5036
62487SOL     OW97390   7.536   1.796   1.466 -0.2685  0.0224  0.1633
62487SOL    HW197391   7.465   1.856   1.442  0.4531  0.2099 -1.6488
62487SOL    HW297392   7.493   1.724   1.512 -1.8908 -0.6143 -2.1815
62488SOL     OW97393   6.422   2.206   2.006 -0.4745  0.2230  0.1701
62488SOL    HW197394   6.396   2.284   1.957 -1.1129  0.5009  0.9279
62488SOL    HW297395   6.412   2.231   2.098 -2.2476 -1.2318  0.4388
62489SOL     OW97396   5.213   2.102  12.879 -0.6670  0.1298 -0.0124
62489SOL    HW197397   5.261   2.046  12.940 -0.0617  1.1510  0.4925
62489SOL    HW297398   5.255   2.086  12.794 -0.7099 -0.4125  0.0700
62490SOL     OW97399  11.067   5.598   1.326  0.1947 -0.7485 -0.5622
62490SOL    HW197400  11.126   5.673   1.338 -0.1507 -0.5735  0.1274
62490SOL    HW297401  11.109   5.544   1.260  1.6862 -1.1717  0.6756
62491SOL     OW97402   6.764   2.166   0.235  0.5944 -0.0463  0.1020
62491SOL    HW197403   6.847   2.199   0.269 -0.3232  1.4978  0.9139
62491SOL    HW297404   6.724   2.121   0.309  0.2618  0.0814  0.0016
62492SOL     OW97405   4.948   3.411   4.493  0.2293  0.3789 -0.1897
62492SOL    HW197406   4.933   3.321   4.463  1.5108 -0.1715  0.7319
62492SOL    HW297407   5.033   3.408   4.537  0.3816  2.0968 -0.2998
62493SOL     OW97408   8.480  10.773   7.812  0.5570 -0.1249 -0.2915
62493SOL    HW197409   8.389  10.793   7.832  0.3093 -0.5386 -0.9672
62493SOL    HW297410   8.530  10.847   7.847  0.0167 -0.1724  0.5825
62494SOL     OW97411   9.385   2.308   1.089  0.7004 -0.0468  0.5689
62494SOL    HW197412   9.290   2.294   1.089  0.6711  0.0902 -0.1208
62494SOL    HW297413   9.421   2.227   1.053  0.8004  0.1044  0.3210
62495SOL     OW97414  12.402  12.870   4.874  0.1875 -0.1919 -0.1050
62495SOL    HW197415  12.361  12.864   4.960 -1.4454 -1.0182 -0.8873
62495SOL    HW297416  12.464  12.797   4.872 -1.4637 -1.6678 -0.4276
62496SOL     OW97417   5.907   0.216  13.149 -0.1225 -0.6720  0.3401
62496SOL    HW197418   5.846   0.173  13.209 -0.8520 -0.9167 -0.5586
62496SOL    HW297419   5.898   0.168  13.067  0.5601 -0.0866 -0.0850
62497SOL     OW97420   0.655  13.018   7.076  0.3307  0.1368  0.2677
62497SOL    HW197421   0.610  13.050   7.155 -1.7379 -0.5451 -0.5731
62497SOL    HW297422   0.733  12.974   7.110 -0.2429  0.2974  1.9159
62498SOL     OW97423  11.295   0.496   9.353 -0.2160  0.0328  0.5367
62498SOL    HW197424  11.279   0.535   9.438  1.1599 -0.0163  0.8420
62498SOL    HW297425  11.339   0.413   9.372  2.1480  1.0312 -0.2358
62499SOL     OW97426   3.197   0.484   1.310 -0.0069 -0.0955 -0.0500
62499SOL    HW197427   3.274   0.481   1.366  0.4895  2.4467 -0.4895
62499SOL    HW297428   3.226   0.531   1.231 -1.4803 -0.9067 -1.1266
62500SOL     OW97429   2.196   6.632  11.713 -1.0670 -0.1148  0.5628
62500SOL    HW197430   2.174   6.554  11.764  0.8243 -0.1621  1.3545
62500SOL    HW297431   2.261   6.601  11.649  0.8542  1.0559  1.8650
62501SOL     OW97432  12.328   1.114   0.438  0.3263 -0.2278  0.1442
62501SOL    HW197433  12.285   1.142   0.357 -1.1397 -1.2251  0.5324
62501SOL    HW297434  12.271   1.148   0.508  1.5452  0.5796  0.7758
62502SOL     OW97435   1.512   0.411   9.557  0.2392  0.0291  0.0171
62502SOL    HW197436   1.417   0.413   9.553  0.2307 -0.1919 -3.6143
62502SOL    HW297437   1.537   0.502   9.574 -0.5926  0.1407  0.7117
62503SOL     OW97438   6.826   8.746   0.267 -0.5513 -0.0501  0.3382
62503SOL    HW197439   6.883   8.679   0.228 -2.8535 -0.1939 -3.2459
62503SOL    HW297440   6.738   8.709   0.261 -1.4779  1.6347  2.2677
62504SOL     OW97441   7.436   9.944   7.568  0.3630  0.1651  0.2240
62504SOL    HW197442   7.506   9.900   7.615 -1.2589 -1.7558  1.0247
62504SOL    HW297443   7.441   9.910   7.479  0.3945 -0.0459  0.3065
62505SOL     OW97444   2.369  10.946   5.910 -0.2828 -0.0392 -0.0411
62505SOL    HW197445   2.414  10.977   5.831 -0.0345  0.4936  0.3039
62505SOL    HW297446   2.423  10.874   5.942  1.1125  1.4819  1.1476
62506SOL     OW97447   0.433  10.872   6.307 -0.1409 -0.4410  0.0371
62506SOL    HW197448   0.472  10.837   6.387  1.0106 -1.1651 -0.8013
62506SOL    HW297449   0.414  10.794   6.254  0.6846  0.0833 -1.0677
62507SOL     OW97450   9.320  12.865   8.527 -0.3268  0.5904 -0.0231
62507SOL    HW197451   9.243  12.813   8.504  1.1073 -1.4901 -0.4301
62507SOL    HW297452   9.356  12.894   8.443  0.9182 -0.9366 -0.0572
62508SOL     OW97453   8.265   3.536   0.951  0.3581  0.5324 -0.0149
62508SOL    HW197454   8.271   3.552   1.045 -1.1260  0.5626  0.1068
62508SOL    HW297455   8.354   3.516   0.924  0.9041  1.0776  1.2952
62509SOL     OW97456   7.796   1.973   1.022 -0.2440  0.4191 -0.5883
62509SOL    HW197457   7.749   1.897   0.989  0.0455  0.2888 -0.7067
62509SOL    HW297458   7.835   1.944   1.104  0.9112  0.0452 -1.2495
62510SOL     OW97459   1.019   4.284  11.603  0.0708  0.6858 -0.8699
62510SOL    HW197460   1.099   4.301  11.653 -0.8969  2.5372  0.1575
62510SOL    HW297461   1.031   4.333  11.521  0.5256 -0.1313 -1.3019
62511SOL     OW97462   2.223   0.609  10.864  0.6568 -0.0476  0.3506
62511SOL    HW197463   2.303   0.659  10.851  2.0301 -2.0690  0.5898
62511SOL    HW297464   2.239   0.524  10.822 -2.4200  0.3642 -2.0392
62512SOL     OW97465   3.311   3.187   4.821  0.4738  0.2489 -0.2536
62512SOL    HW197466   3.407   3.184   4.818  0.4770 -0.7725  0.3057
62512SOL    HW297467   3.292   3.237   4.901  0.5688 -1.1360  0.6652
62513SOL     OW97468   3.367   5.065   3.829 -0.1206 -0.6702 -0.1332
62513SOL    HW197469   3.440   5.127   3.817 -0.7128 -0.0478 -0.6256
62513SOL    HW297470   3.291   5.121   3.845  0.0219 -1.3365  3.9169
62514SOL     OW97471   3.461   8.502   9.268  0.0925 -0.5919 -0.3896
62514SOL    HW197472   3.427   8.467   9.351  1.4557  1.1109  0.9740
62514SOL    HW297473   3.536   8.447   9.247 -0.2962 -1.0692 -0.5415
62515SOL     OW97474   8.828  10.769  10.220  0.8284  0.0115 -0.1061
62515SOL    HW197475   8.832  10.864  10.207  1.1958  0.2652  1.5933
62515SOL    HW297476   8.846  10.732  10.133 -0.9370  1.4667 -1.1716
62516SOL     OW97477   1.212  10.936  11.927  0.1880 -0.5533 -0.6401
62516SOL    HW197478   1.153  10.987  11.983 -1.0923 -1.8753 -0.7013
62516SOL    HW297479   1.155  10.868  11.889  1.5644 -1.2662 -1.4967
62517SOL     OW97480   5.609   8.655   3.627  0.1025  0.3689  0.3160
62517SOL    HW197481   5.620   8.589   3.696 -3.6867  0.9971  1.7431
62517SOL    HW297482   5.675   8.721   3.647  0.6991 -0.6366  1.8596
62518SOL     OW97483   8.976  11.377   8.801  0.4641  0.0837  0.0182
62518SOL    HW197484   9.008  11.288   8.791  0.8609 -0.0172  1.8153
62518SOL    HW297485   9.039  11.431   8.754  1.2069 -0.4467  0.3914
62519SOL     OW97486  12.699   4.813   3.727 -0.8907  0.3851 -0.2129
62519SOL    HW197487  12.686   4.902   3.759 -1.2271 -0.1024  1.1047
62519SOL    HW297488  12.630   4.762   3.770  0.9056 -0.9881  1.2119
62520SOL     OW97489  13.002  11.359   4.532  0.2098 -0.2384  0.1687
62520SOL    HW197490  13.074  11.358   4.469  0.3682 -0.8822  0.3472
62520SOL    HW297491  12.968  11.448   4.529  0.4714 -0.1580 -0.5375
62521SOL     OW97492  12.063  11.065   5.009  0.3261  0.0911 -0.1029
62521SOL    HW197493  12.110  11.116   5.075  0.5776 -0.1272 -0.1119
62521SOL    HW297494  12.087  10.974   5.027  1.5878  0.1361 -1.4173
62522SOL     OW97495   9.955   8.961  11.832 -0.8122 -0.2804 -0.0395
62522SOL    HW197496   9.995   9.048  11.836  0.1539 -0.6626 -1.0928
62522SOL    HW297497  10.024   8.902  11.861 -1.9791 -0.5855  2.3189
62523SOL     OW97498  11.060   4.640   9.095 -0.2232  0.1863  0.4916
62523SOL    HW197499  11.044   4.720   9.045 -0.8401  0.4204  1.0463
62523SOL    HW297500  11.140   4.658   9.144 -0.4897  0.5658  0.7988
62524SOL     OW97501   4.186  13.091  12.856 -1.4505  0.2041  0.4859
62524SOL    HW197502   4.209  13.037  12.932 -1.4977  0.4148  0.6537
62524SOL    HW297503   4.103  13.056  12.825 -1.5451  0.2577  0.6725
62525SOL     OW97504   0.483   0.230  10.013 -0.0060 -0.0307  0.4713
62525SOL    HW197505   0.397   0.211  10.049 -1.0048 -0.2772 -1.9173
62525SOL    HW297506   0.466   0.271   9.929  2.2214  0.8402  0.3820
62526SOL     OW97507   4.827   8.602   1.313  0.3470  0.8886 -0.5444
62526SOL    HW197508   4.773   8.523   1.317  1.9593 -0.3859 -2.1035
62526SOL    HW297509   4.848   8.622   1.404  1.2838 -1.5306 -0.1525
62527SOL     OW97510   9.246   8.154   8.419  0.2922  0.2055  0.6365
62527SOL    HW197511   9.202   8.077   8.456 -1.3747 -0.3884 -2.2540
62527SOL    HW297512   9.183   8.189   8.356  2.8113  1.1625 -1.5337
62528SOL     OW97513   5.711   8.253  12.097  0.4622 -0.3526 -0.1148
62528SOL    HW197514   5.639   8.314  12.116  1.6312  0.5533  1.6373
62528SOL    HW297515   5.685   8.172  12.140  0.4023 -0.0966  0.3326
62529SOL     OW97516  12.802  11.596   8.443  0.1082  0.1671  0.0958
62529SOL    HW197517  12.840  11.679   8.473 -0.0350 -0.2586  1.5247
62529SOL    HW297518  12.707  11.611   8.446  0.0769 -0.1387  0.6184
62530SOL     OW97519  10.179   1.325   1.469 -0.0106  0.5463 -0.5697
62530SOL    HW197520  10.201   1.374   1.548  1.3423  0.2746 -0.7588
62530SOL    HW297521  10.232   1.246   1.474 -0.9837 -0.1642 -1.0588
62531SOL     OW97522  12.366   0.437   8.778  0.4715  0.1051 -0.0307
62531SOL    HW197523  12.426   0.405   8.845 -0.2275 -1.6374 -0.2064
62531SOL    HW297524  12.302   0.490   8.826  0.6411 -0.1787  0.5092
62532SOL     OW97525  12.501  10.136   3.874 -0.0311 -0.3813  0.0468
62532SOL    HW197526  12.506  10.120   3.968 -0.3826 -0.6706  0.0169
62532SOL    HW297527  12.517  10.050   3.835 -0.0591 -0.2959 -0.1528
62533SOL     OW97528  10.487   1.867  10.197 -0.2744  0.2194 -0.0956
62533SOL    HW197529  10.533   1.875  10.114 -0.6479  0.6306 -0.2633
62533SOL    HW297530  10.400   1.833  10.174  0.0903 -1.0326  0.2646
62534SOL     OW97531   5.151   8.804  11.478 -0.5401 -1.0949  0.1835
62534SOL    HW197532   5.082   8.862  11.512  0.9942  0.5475  0.6734
62534SOL    HW297533   5.177   8.843  11.395  0.6729 -0.8929  0.6264
62535SOL     OW97534  10.501   7.108   0.738  0.0428 -0.0874  0.3471
62535SOL    HW197535  10.529   7.132   0.650 -0.9710  0.6423  0.1970
62535SOL    HW297536  10.572   7.137   0.795  0.3645  0.1289 -0.1595
62536SOL     OW97537   3.175   7.093   7.575 -0.3135  0.0509  0.4782
62536SOL    HW197538   3.226   7.082   7.495 -2.2106 -2.2116 -0.5579
62536SOL    HW297539   3.142   7.183   7.571  0.1505  0.1838 -0.9609
62537SOL     OW97540   0.328  11.494   1.036  0.2442 -0.1561  0.2604
62537SOL    HW197541   0.375  11.427   1.086  0.8696 -0.3307 -0.5602
62537SOL    HW297542   0.321  11.568   1.097  2.4126  0.2294  0.0994
62538SOL     OW97543   5.081   9.949   3.265  0.7374  0.5153 -1.2396
62538SOL    HW197544   5.092   9.943   3.170  0.1418 -1.2668 -1.2298
62538SOL    HW297545   5.077   9.858   3.295  0.4918  1.0411  0.4519
62539SOL     OW97546  10.713   2.194   0.322 -0.1785 -0.1803  0.2979
62539SOL    HW197547  10.734   2.227   0.234  1.6372 -1.3718  0.2132
62539SOL    HW297548  10.633   2.144   0.310 -0.0031 -0.2507 -0.6811
62540SOL     OW97549   9.245   9.372  12.182 -0.3316 -0.5537 -0.0798
62540SOL    HW197550   9.312   9.304  12.176 -0.0206 -0.3337  0.7649
62540SOL    HW297551   9.173   9.331  12.230 -0.8506 -0.8194 -1.0664
62541SOL     OW97552  10.555   3.140   2.130 -0.1956  0.0019 -0.1141
62541SOL    HW197553  10.610   3.218   2.127 -2.3368  1.7179  1.7974
62541SOL    HW297554  10.616   3.067   2.134  1.8811  1.5500 -1.6613
62542SOL     OW97555   2.981   7.960   3.697 -0.5442 -1.0490 -0.3799
62542SOL    HW197556   2.983   8.026   3.628 -0.3998 -0.7906 -0.1344
62542SOL    HW297557   3.047   7.990   3.760 -1.9777 -0.2436  0.8040
62543SOL     OW97558   1.949   5.294   1.817  0.2082 -0.1721 -0.5382
62543SOL    HW197559   1.874   5.240   1.842 -0.7327  1.2880 -0.0862
62543SOL    HW297560   2.010   5.232   1.775 -0.8748 -1.5368 -0.1884
62544SOL     OW97561   4.329  11.299   7.400 -0.6437 -0.1475 -0.3005
62544SOL    HW197562   4.415  11.333   7.375  0.4132 -0.9745  1.9090
62544SOL    HW297563   4.277  11.377   7.420  0.2534  0.3277  0.2470
62545SOL     OW97564  12.588   9.186   0.830 -0.1028 -0.4041 -0.2675
62545SOL    HW197565  12.518   9.248   0.851 -0.9858 -1.5306  0.2538
62545SOL    HW297566  12.620   9.215   0.744 -1.5996 -0.1725 -0.7875
62546SOL     OW97567   9.447  10.099  12.610 -0.1460  0.1077 -0.0865
62546SOL    HW197568   9.492  10.103  12.694  2.7522 -0.6696 -1.4771
62546SOL    HW297569   9.462  10.184  12.570 -0.5792  0.0996 -0.2802
62547SOL     OW97570   3.316  10.678   2.007 -0.1842  0.1171 -0.0582
62547SOL    HW197571   3.357  10.654   2.090  0.0236  0.3400 -0.0946
62547SOL    HW297572   3.222  10.680   2.026 -0.1623 -0.1708  0.0832
62548SOL     OW97573   0.542   7.512   5.749 -0.1209  0.1835  0.3648
62548SOL    HW197574   0.447   7.502   5.742 -0.4224  2.4972  0.4611
62548SOL    HW297575   0.555   7.604   5.768  2.0949 -0.3695  1.9273
62549SOL     OW97576  13.175  11.270   8.037 -0.3141  0.9115 -0.6229
62549SOL    HW197577  13.262  11.231   8.029  0.3320  1.9474  0.8670
62549SOL    HW297578  13.128  11.211   8.096 -0.2727  0.9133 -0.5881
62550SOL     OW97579  10.141   7.181   1.638 -0.2503 -0.3648 -0.2186
62550SOL    HW197580  10.201   7.233   1.692 -1.2293  0.0909  0.4646
62550SOL    HW297581  10.192   7.104   1.613  0.3706 -0.3942  1.0315
62551SOL     OW97582   6.183   7.277   3.894 -0.6650  0.3880  0.2515
62551SOL    HW197583   6.223   7.349   3.845 -0.1444  0.0254  0.1365
62551SOL    HW297584   6.104   7.316   3.933 -0.8825  0.7784 -0.5560
62552SOL     OW97585   1.070   7.089   5.403 -0.3138 -0.0605 -0.1801
62552SOL    HW197586   0.980   7.060   5.385  0.1366 -1.7949  0.1748
62552SOL    HW297587   1.122   7.009   5.396  0.9972  0.6458  1.1106
62553SOL     OW97588   8.988   3.714  13.194 -0.2112  0.4775  0.1854
62553SOL    HW197589   9.059   3.668  13.150  0.1415 -0.0232  1.2453
62553SOL    HW297590   8.964   3.658  13.268 -1.1458  1.0351  0.3291
62554SOL     OW97591  13.130   4.568   3.732  0.5197 -0.6657  0.1591
62554SOL    HW197592  13.179   4.487   3.747 -0.1922 -1.2320 -0.5168
62554SOL    HW297593  13.040   4.539   3.714  0.3114  0.2624 -0.3464
62555SOL     OW97594  11.589   2.431   2.238  0.5651  0.4910 -0.2600
62555SOL    HW197595  11.684   2.436   2.252  0.9079 -2.8690 -0.5382
62555SOL    HW297596  11.579   2.379   2.158 -1.5547  2.4277 -1.3736
62556SOL     OW97597  10.753   6.810   8.767 -0.2620 -0.1284  0.3006
62556SOL    HW197598  10.843   6.840   8.762  0.0493 -0.5266  2.4334
62556SOL    HW297599  10.758   6.716   8.748  0.0517 -0.4747  1.9364
62557SOL     OW97600   3.072  10.798  12.528  0.1126 -0.1346  0.2851
62557SOL    HW197601   2.993  10.812  12.580 -0.4496 -0.1295 -0.5657
62557SOL    HW297602   3.041  10.762  12.445  0.8872  0.9768 -0.5153
62558SOL     OW97603   5.729   0.702   7.281  0.4103 -0.0707 -0.5184
62558SOL    HW197604   5.822   0.679   7.289  0.4257  0.2446  0.3802
62558SOL    HW297605   5.699   0.655   7.204  1.6200  0.7881 -1.5649
62559SOL     OW97606   8.749  11.136   3.572  0.0575 -0.7324  0.5667
62559SOL    HW197607   8.710  11.145   3.660  0.4674 -0.3903  0.7143
62559SOL    HW297608   8.781  11.046   3.569  1.0686 -0.3989  1.1903
62560SOL     OW97609   2.051  12.814  10.246  0.2607 -0.5204  0.0804
62560SOL    HW197610   2.064  12.755  10.171 -1.1070  0.0807 -0.6738
62560SOL    HW297611   2.129  12.869  10.247  1.5801 -2.2821  0.7968
62561SOL     OW97612   4.774  13.064   2.953 -0.2444 -0.3135 -0.0515
62561SOL    HW197613   4.823  13.118   2.892  1.7799 -1.4678  0.4851
62561SOL    HW297614   4.769  12.978   2.912  2.4579 -1.5410  1.8974
62562SOL     OW97615   2.035  10.426   6.980 -0.2439  0.1527 -0.2525
62562SOL    HW197616   2.011  10.386   7.063 -2.5817 -0.9603 -1.3789
62562SOL    HW297617   2.084  10.358   6.934 -0.4841  0.1449 -0.4940
62563SOL     OW97618   3.143   4.676   1.306  0.0844  0.5472 -0.0156
62563SOL    HW197619   3.112   4.597   1.350 -0.2170 -0.2033 -1.5098
62563SOL    HW297620   3.076   4.742   1.323 -0.5375 -0.0286 -0.2271
62564SOL     OW97621  13.030   6.144  13.099 -0.3231  0.3789  0.4387
62564SOL    HW197622  13.100   6.155  13.163  0.1937 -0.8998  0.1136
62564SOL    HW297623  13.004   6.052  13.107 -1.2304  0.5687 -0.1940
62565SOL     OW97624   6.801  12.594   0.999  0.4143  0.5798  0.0226
62565SOL    HW197625   6.854  12.586   1.078 -0.0437  1.4855  0.4426
62565SOL    HW297626   6.715  12.560   1.025 -0.3946  2.9034  0.6337
62566SOL     OW97627   0.465   1.695   5.582  0.6026  0.3777 -0.4961
62566SOL    HW197628   0.477   1.603   5.559  1.9419  0.5342 -0.5181
62566SOL    HW297629   0.530   1.742   5.530  2.6607  0.8995  2.2448
62567SOL     OW97630   1.172   7.209   0.817 -0.4298  0.4850 -0.5985
62567SOL    HW197631   1.226   7.190   0.741  0.4239  0.3975  0.0097
62567SOL    HW297632   1.229   7.190   0.892 -1.2768  0.4820  0.0598
62568SOL     OW97633  11.157   2.993   5.262 -0.4172 -0.4802  0.0898
62568SOL    HW197634  11.158   3.015   5.356  0.1041  0.6077 -0.1591
62568SOL    HW297635  11.213   2.916   5.255 -0.9154 -0.9185  0.7437
62569SOL     OW97636  12.665   2.511   0.673  0.0139 -0.3326  0.4340
62569SOL    HW197637  12.596   2.578   0.666 -0.2132 -0.4846  1.1042
62569SOL    HW297638  12.619   2.429   0.656 -0.0828 -0.4846  1.4130
62570SOL     OW97639   8.946   0.494  12.984 -0.0126  0.0660 -0.4954
62570SOL    HW197640   8.914   0.547  12.911  1.6498 -0.2491 -1.5040
62570SOL    HW297641   8.991   0.556  13.041  0.9654 -0.0674 -1.1038
62571SOL     OW97642   8.713  10.141   9.087 -0.0096 -0.0303  0.3116
62571SOL    HW197643   8.632  10.092   9.071 -0.4500  1.4846 -3.1466
62571SOL    HW297644   8.691  10.201   9.158 -2.0022  0.3637 -0.5464
62572SOL     OW97645   8.223   7.272   3.139 -0.0001 -0.1711 -0.3927
62572SOL    HW197646   8.145   7.223   3.117 -0.7281  0.3577  0.8895
62572SOL    HW297647   8.208   7.359   3.102  0.7849 -0.5657 -1.6806
62573SOL     OW97648  13.278   8.215   7.909 -0.0963  0.1890 -0.3478
62573SOL    HW197649  13.250   8.296   7.951 -0.5587  0.6538 -1.5113
62573SOL    HW297650  13.201   8.184   7.862  0.3283 -0.4475 -0.6355
62574SOL     OW97651   4.205  10.232   1.806  0.4946 -0.1263 -0.4407
62574SOL    HW197652   4.213  10.192   1.720 -1.0655 -0.8133 -0.2893
62574SOL    HW297653   4.123  10.280   1.803 -0.1083 -1.0110  0.9859
62575SOL     OW97654  12.208   9.231   1.476  0.3839  0.0925 -0.5823
62575SOL    HW197655  12.212   9.136   1.467 -1.4575  0.1494 -3.3462
62575SOL    HW297656  12.140   9.246   1.542  1.5784 -0.4540  0.8188
62576SOL     OW97657  11.947   6.483   1.866  0.5961 -0.3078  0.0339
62576SOL    HW197658  11.988   6.569   1.872  2.2124 -1.0640  0.2313
62576SOL    HW297659  11.894   6.477   1.946 -0.0080  0.7215 -0.2728
62577SOL     OW97660   3.605  10.768  13.082 -0.2687  0.0083 -0.2034
62577SOL    HW197661   3.613  10.687  13.132 -0.0698  0.3045  0.2537
62577SOL    HW297662   3.652  10.752  13.001  0.2328 -0.1443  0.1176
62578SOL     OW97663   3.104   3.173   8.466 -0.0326  0.2262  0.2322
62578SOL    HW197664   3.066   3.217   8.390  0.2746 -0.3159 -0.2411
62578SOL    HW297665   3.138   3.091   8.432  1.2417  0.5240  0.7114
62579SOL     OW97666  11.748   4.194  10.592 -0.0776 -0.2110  0.2470
62579SOL    HW197667  11.657   4.216  10.611 -0.3651 -1.1537 -0.0133
62579SOL    HW297668  11.743   4.123  10.529  0.8470  0.0125 -0.0901
62580SOL     OW97669   3.591  10.641  10.737 -0.1254 -0.7540 -0.4536
62580SOL    HW197670   3.648  10.583  10.787  0.1167  0.3463  0.6035
62580SOL    HW297671   3.530  10.676  10.802 -0.0013  0.4722 -0.9762
62581SOL     OW97672   0.225   3.407   0.476  0.0305  0.2912 -0.0720
62581SOL    HW197673   0.243   3.396   0.383  0.8406  0.5020  0.0506
62581SOL    HW297674   0.312   3.414   0.516 -0.3240  0.8090  0.6229
62582SOL     OW97675   5.627   8.891  12.442  0.4183 -0.6599  0.5980
62582SOL    HW197676   5.537   8.917  12.461  0.2971  0.0714 -0.8375
62582SOL    HW297677   5.620   8.803  12.406 -0.0382  0.2507 -1.7387
62583SOL     OW97678   3.339  11.524   2.924  0.5478 -0.8155 -0.4898
62583SOL    HW197679   3.253  11.505   2.962 -0.0295  0.2800 -1.1814
62583SOL    HW297680   3.389  11.444   2.936 -1.1284 -2.1144 -1.6599
62584SOL     OW97681   0.673  12.378   3.976 -0.1736 -0.3966  0.1638
62584SOL    HW197682   0.672  12.456   4.032  0.3377  0.6364 -1.2270
62584SOL    HW297683   0.757  12.382   3.931 -0.6181 -1.1640 -0.7549
62585SOL     OW97684   3.809   0.992   5.857 -0.2680 -0.0648 -0.0232
62585SOL    HW197685   3.788   1.083   5.836  0.5919  0.2556  0.4934
62585SOL    HW297686   3.849   0.958   5.777 -0.5386  0.0159 -0.1973
62586SOL     OW97687  11.588   0.023   1.021 -0.5602 -0.2434  0.2354
62586SOL    HW197688  11.615  -0.064   0.993  0.0457  0.5379 -1.7739
62586SOL    HW297689  11.640   0.040   1.100  1.1357 -0.7819 -0.7053
62587SOL     OW97690   3.573   7.824   3.135 -0.1230  0.4105  0.5110
62587SOL    HW197691   3.517   7.775   3.074 -0.0176  3.2403 -2.0988
62587SOL    HW297692   3.525   7.821   3.218 -1.6843 -1.3118 -0.3672
62588SOL     OW97693   3.832  12.829   2.817  0.1303 -0.4959  0.7407
62588SOL    HW197694   3.901  12.772   2.782  1.3211  0.6041  1.2234
62588SOL    HW297695   3.859  12.848   2.907 -0.2717  0.7248  0.6291
62589SOL     OW97696   8.027  11.374   5.577 -0.1778 -0.0564  0.2099
62589SOL    HW197697   7.970  11.449   5.561 -0.6550  0.1738  2.6132
62589SOL    HW297698   7.975  11.298   5.548 -1.2548  0.2428  1.2816
62590SOL     OW97699   9.918   2.401   4.341 -0.1940  0.2074  0.4454
62590SOL    HW197700   9.896   2.309   4.328  1.0063 -0.2914  1.6552
62590SOL    HW297701   9.905   2.417   4.434 -0.0445  1.1735  0.3195
62591SOL     OW97702   8.854   4.036   0.722 -0.0188 -0.3407 -0.3566
62591SOL    HW197703   8.761   4.055   0.725  0.2436  1.7320 -2.2722
62591SOL    HW297704   8.860   3.950   0.681 -1.0991 -1.2811  1.3763
62592SOL     OW97705   7.114   8.203   3.610 -0.9224 -0.4011  0.1279
62592SOL    HW197706   7.176   8.136   3.637 -1.6303 -0.7840  0.8707
62592SOL    HW297707   7.033   8.181   3.657 -1.4645  0.3825 -0.4055
62593SOL     OW97708  11.274   4.974   3.779  0.0408 -0.4301  0.2262
62593SOL    HW197709  11.253   4.914   3.707  0.4728  0.1273 -0.3738
62593SOL    HW297710  11.331   4.923   3.837 -1.6104 -1.4359  1.0517
62594SOL     OW97711  12.402   2.505   0.480 -0.2612 -0.3628  0.3175
62594SOL    HW197712  12.418   2.590   0.438  0.9544 -1.1979 -0.9630
62594SOL    HW297713  12.315   2.480   0.451 -1.2060  1.0278  1.7792
62595SOL     OW97714  12.726   9.117   5.396 -0.2687 -0.1990 -0.3298
62595SOL    HW197715  12.769   9.173   5.332 -0.6133  1.0036  0.4697
62595SOL    HW297716  12.798   9.078   5.446 -0.0415 -0.1664 -0.6289
62596SOL     OW97717  11.021   6.893   8.747  0.3704 -0.2738 -0.0120
62596SOL    HW197718  11.104   6.942   8.744  0.8006 -0.8531  1.4982
62596SOL    HW297719  11.013   6.854   8.660  0.3041  1.9736 -1.0698
62597SOL     OW97720   4.746   2.137   3.615 -0.2702  0.0770 -0.2715
62597SOL    HW197721   4.674   2.122   3.676 -0.8674  0.0851 -0.9701
62597SOL    HW297722   4.754   2.232   3.610  0.7533  0.0907  0.9062
62598SOL     OW97723   4.740   7.730   6.803 -0.6199  0.1243  0.5699
62598SOL    HW197724   4.790   7.803   6.838  1.1284 -1.1515  0.9012
62598SOL    HW297725   4.732   7.749   6.709 -0.9680  1.1333  0.7903
62599SOL     OW97726   4.641   9.439   7.254 -0.0432  0.3644 -0.0852
62599SOL    HW197727   4.550   9.414   7.240 -0.3260  0.8341  0.8047
62599SOL    HW297728   4.658   9.506   7.188 -0.9155  1.5533  0.8412
62600SOL     OW97729  13.222   6.024  12.862  0.1340  0.1408  0.5682
62600SOL    HW197730  13.187   6.035  12.774  2.1422  0.8519 -0.1866
62600SOL    HW297731  13.195   5.935  12.887  0.9828 -0.7524 -1.4705
62601SOL     OW97732   8.533   9.931  11.725  0.0816 -0.1790 -0.1311
62601SOL    HW197733   8.446   9.970  11.715 -0.1457 -1.1659 -2.8783
62601SOL    HW297734   8.531   9.853  11.669  3.6348  1.3829 -2.8545
62602SOL     OW97735  13.094   5.175  12.515 -0.4789  0.6141 -0.0394
62602SOL    HW197736  13.057   5.092  12.546  0.4460  0.6650  1.3231
62602SOL    HW297737  13.130   5.155  12.428  0.1725 -0.5655  0.4745
62603SOL     OW97738  10.636  11.700   1.441  0.1318 -0.1790  0.1906
62603SOL    HW197739  10.556  11.679   1.490 -0.3553 -3.5147 -1.6987
62603SOL    HW297740  10.654  11.620   1.390  3.7586  1.0388 -0.7259
62604SOL     OW97741   4.876  10.333   7.775  0.1681  0.5333 -0.7342
62604SOL    HW197742   4.879  10.250   7.822 -0.5436  0.0999 -1.4253
62604SOL    HW297743   4.865  10.399   7.843  2.5465  0.2714 -0.0080
62605SOL     OW97744   3.840   7.632   1.873 -0.6782 -0.1122 -0.0345
62605SOL    HW197745   3.835   7.710   1.927 -1.6206 -0.7326  0.7991
62605SOL    HW297746   3.933   7.625   1.849 -0.2079  0.0765  1.6460
62606SOL     OW97747   5.866  12.499  11.482 -0.4107  0.2868  0.0031
62606SOL    HW197748   5.919  12.471  11.408 -1.1765  2.1604 -1.3281
62606SOL    HW297749   5.923  12.558  11.532 -0.1794 -0.2945  0.4331
62607SOL     OW97750   5.667   3.655   1.022 -0.0885  0.3600 -0.0089
62607SOL    HW197751   5.734   3.709   0.980 -0.6991  1.7892  0.7614
62607SOL    HW297752   5.586   3.678   0.976 -0.4045  0.3047  0.5119
62608SOL     OW97753   5.922  10.440  10.437 -0.2607  0.1301  0.8139
62608SOL    HW197754   5.851  10.436  10.373 -0.5256  2.0640  0.9057
62608SOL    HW297755   5.987  10.377  10.406 -0.5436  0.7443 -1.1744
62609SOL     OW97756  12.513  11.390   2.596 -0.1772  0.1252 -0.1841
62609SOL    HW197757  12.428  11.349   2.611  0.8305 -1.6429  1.1281
62609SOL    HW297758  12.528  11.382   2.502 -2.1164  1.9132 -0.7060
62610SOL     OW97759   2.176   6.083   9.916  0.0755  0.5372  0.2803
62610SOL    HW197760   2.258   6.103   9.961  0.5955  0.1178 -0.4577
62610SOL    HW297761   2.112   6.075   9.986  1.3636 -2.6548  1.2684
62611SOL     OW97762   7.441   8.949  12.575 -0.2225  0.4073  0.2534
62611SOL    HW197763   7.437   8.855  12.595  1.1502  0.4797  1.0083
62611SOL    HW297764   7.532   8.963  12.548 -0.4557  1.5052  0.0008
62612SOL     OW97765   3.918   3.262   9.691 -0.1748  0.3182  0.0420
62612SOL    HW197766   3.971   3.341   9.684  0.3736 -0.0573 -0.1284
62612SOL    HW297767   3.953   3.218   9.769  1.0982 -0.8914 -1.1520
62613SOL     OW97768   0.312  11.789   7.926 -0.2077 -0.0001  0.5659
62613SOL    HW197769   0.349  11.839   7.853  1.3321 -1.6058  0.1745
62613SOL    HW297770   0.217  11.800   7.917 -0.0233  0.4802 -1.1958
62614SOL     OW97771   7.214  11.954  10.662  0.0438  0.7146  0.3327
62614SOL    HW197772   7.292  11.901  10.641 -0.8254 -0.0812 -1.0551
62614SOL    HW297773   7.215  12.025  10.597 -0.2090  0.8846  0.5142
62615SOL     OW97774  10.039  11.353  10.719  0.2788 -0.1726  0.2970
62615SOL    HW197775  10.098  11.415  10.675  1.7329 -0.1706  2.1318
62615SOL    HW297776   9.962  11.349  10.662  0.9013  1.9047 -0.8127
62616SOL     OW97777   4.352   7.772   8.936 -0.2614 -0.1056  0.1825
62616SOL    HW197778   4.371   7.714   9.010  3.4214  0.6260  0.0063
62616SOL    HW297779   4.323   7.713   8.866 -1.4952 -1.0618  1.4303
62617SOL     OW97780   1.008  11.123   2.235  0.5975 -0.1466 -0.2984
62617SOL    HW197781   1.044  11.076   2.310 -1.8699  2.8092  3.0401
62617SOL    HW297782   0.914  11.126   2.251  0.2398  2.7394 -2.1754
62618SOL     OW97783   4.149   4.338   5.799  0.3221  0.9498  0.5170
62618SOL    HW197784   4.240   4.309   5.802 -0.0548 -0.2339  1.4651
62618SOL    HW297785   4.137   4.389   5.880 -0.7458 -1.9140  2.3221
62619SOL     OW97786   0.090   6.972  11.464 -0.1294  0.0765 -0.4449
62619SOL    HW197787   0.124   7.058  11.489  0.0758 -0.6401  2.0337
62619SOL    HW297788   0.167   6.916  11.458 -0.3697 -0.2382 -0.6234
62620SOL     OW97789   0.960  11.729   5.412 -0.2685  0.0390 -0.1670
62620SOL    HW197790   0.922  11.675   5.481  2.2122 -2.4957 -0.6136
62620SOL    HW297791   0.935  11.686   5.330  2.4363 -1.1392 -0.5022
62621SOL     OW97792  10.041   3.685  11.562 -0.0464 -0.0036  0.1439
62621SOL    HW197793  10.071   3.653  11.476 -2.1655  0.3124 -0.7716
62621SOL    HW297794   9.973   3.623  11.588 -1.1595  1.2953  0.4138
62622SOL     OW97795   5.029   2.263   2.854 -0.2169  0.1152 -0.1586
62622SOL    HW197796   5.014   2.260   2.948 -0.6342 -0.1646 -0.2318
62622SOL    HW297797   5.052   2.173   2.830  0.0873  0.2266 -0.2922
62623SOL     OW97798   5.793   0.478   7.984 -0.3370  0.2429 -0.4434
62623SOL    HW197799   5.769   0.552   7.928 -0.7644  0.2811 -0.2149
62623SOL    HW297800   5.760   0.502   8.070  0.9983  0.5426  0.0144
62624SOL     OW97801   4.378   9.928   8.065  0.2211 -0.0006 -0.3311
62624SOL    HW197802   4.368   9.999   8.001  2.1411  1.4181  0.8108
62624SOL    HW297803   4.387   9.849   8.011  0.1165  0.9152 -1.7552
62625SOL     OW97804   4.519   8.540   0.804  0.0885 -0.0214  0.0900
62625SOL    HW197805   4.556   8.628   0.810 -2.0029  0.9018  0.5665
62625SOL    HW297806   4.428   8.554   0.779 -0.0841 -2.1328 -0.7083
62626SOL     OW97807   1.381   8.449   0.687  0.3319  0.2150 -0.3024
62626SOL    HW197808   1.469   8.483   0.700  0.1624  0.7733 -0.5803
62626SOL    HW297809   1.352   8.422   0.774  0.5943  0.4795 -0.1349
62627SOL     OW97810   3.786   8.955   4.482  0.2347 -0.4941  0.3777
62627SOL    HW197811   3.765   8.959   4.575  0.7981 -0.3821  0.5046
62627SOL    HW297812   3.701   8.950   4.438 -0.1385  1.6657  0.7781
62628SOL     OW97813   1.227   3.205   5.611  0.2538  1.1190  0.0957
62628SOL    HW197814   1.131   3.207   5.607  0.1248 -0.6292  1.2120
62628SOL    HW297815   1.247   3.206   5.704  1.2983  0.8641 -0.1194
62629SOL     OW97816   8.194  10.372   1.818 -0.8753 -0.0552  0.1879
62629SOL    HW197817   8.280  10.358   1.779 -0.9949  0.0644 -0.1138
62629SOL    HW297818   8.133  10.370   1.745 -1.1232 -0.0695  0.3931
62630SOL     OW97819  10.487  12.460   9.718  0.0904  0.3534 -0.3446
62630SOL    HW197820  10.403  12.480   9.759  2.2094  0.4709  4.6170
62630SOL    HW297821  10.495  12.365   9.725  1.1597  0.5206  1.2988
62631SOL     OW97822   1.855   0.942  10.568  0.0731  0.0171 -0.1799
62631SOL    HW197823   1.904   0.934  10.486 -0.5149 -1.0330 -0.4545
62631SOL    HW297824   1.769   0.906  10.547  0.0742 -0.7559  1.0264
62632SOL     OW97825  11.837  11.693  12.903 -0.1341  0.2900  0.0267
62632SOL    HW197826  11.858  11.784  12.925 -2.1838  0.7860  0.1442
62632SOL    HW297827  11.922  11.650  12.895  0.8960  2.3085 -0.4493
62633SOL     OW97828   7.011  12.992   7.246  0.2657  0.3726  0.8785
62633SOL    HW197829   6.977  12.978   7.335 -3.3463 -1.2375 -0.5869
62633SOL    HW297830   6.962  13.068   7.214  0.2238 -0.1690 -0.3610
62634SOL     OW97831   4.601  12.304   3.447  0.0563 -0.8264 -0.1420
62634SOL    HW197832   4.631  12.241   3.382  1.3202  0.3534 -0.7658
62634SOL    HW297833   4.674  12.313   3.508 -0.2243 -0.2268  0.1179
62635SOL     OW97834  11.215   9.529   4.545 -0.4157  0.4878 -0.3361
62635SOL    HW197835  11.140   9.586   4.561 -1.8725 -1.8731  1.9564
62635SOL    HW297836  11.244   9.500   4.632  1.5872 -0.6346 -1.2829
62636SOL     OW97837   6.375  10.436   2.436 -0.9704 -0.6276  0.6368
62636SOL    HW197838   6.411  10.521   2.464  1.4907 -0.6603 -1.9928
62636SOL    HW297839   6.400  10.375   2.506 -0.8508  0.3881  1.5115
62637SOL     OW97840   9.208  10.688   5.018  0.6327  0.0077  0.6396
62637SOL    HW197841   9.275  10.692   4.950 -1.4275 -0.1475 -1.5177
62637SOL    HW297842   9.149  10.761   4.998 -3.0169 -3.0965 -1.2166
62638SOL     OW97843   3.536   4.700  11.566  0.2462  0.1677  0.6499
62638SOL    HW197844   3.524   4.641  11.492 -0.2176  0.4812  0.4692
62638SOL    HW297845   3.447   4.728  11.589  0.5366  1.9867 -0.2446
62639SOL     OW97846  13.009   4.544  11.772  0.0343 -0.2011 -0.0882
62639SOL    HW197847  12.955   4.614  11.735  0.1121 -0.2951 -0.3859
62639SOL    HW297848  12.956   4.507  11.842  1.2227  2.2195  2.2402
62640SOL     OW97849   6.795   0.819  10.807 -0.0832 -0.1630  0.2793
62640SOL    HW197850   6.790   0.851  10.717 -0.7113 -0.9823  0.0117
62640SOL    HW297851   6.885   0.838  10.833  0.6139 -1.3365 -1.0890
62641SOL     OW97852   2.001   9.078   5.063  0.0651  0.5061 -0.1117
62641SOL    HW197853   1.906   9.068   5.055  0.2686 -0.4603 -1.7078
62641SOL    HW297854   2.017   9.170   5.040 -0.5283  0.8565  0.8151
62642SOL     OW97855  10.802   5.404   3.506 -0.4756 -0.4203  0.4672
62642SOL    HW197856  10.715   5.431   3.534 -1.7846 -2.8054 -0.9277
62642SOL    HW297857  10.824   5.462   3.433 -0.6097  0.5657  1.1981
62643SOL     OW97858   9.213   4.645   6.949  0.7519 -1.3788 -0.3980
62643SOL    HW197859   9.285   4.687   6.995  0.2850 -1.2465  0.2244
62643SOL    HW297860   9.199   4.700   6.872  1.7920 -1.8196 -0.9285
62644SOL     OW97861  11.104  10.139   2.055  0.3181 -0.0753 -0.1305
62644SOL    HW197862  11.067  10.098   1.977 -1.8667  2.0243 -0.3248
62644SOL    HW297863  11.158  10.071   2.095 -1.8791 -2.6344 -1.1898
62645SOL     OW97864   0.903   5.979  12.554 -0.2123 -0.6365  0.1224
62645SOL    HW197865   0.997   5.994  12.550  0.0578 -2.0447  0.6057
62645SOL    HW297866   0.868   6.058  12.594  0.9429 -0.6751  1.2853
62646SOL     OW97867   8.720  13.293   3.146  0.8934  0.0508  0.4618
62646SOL    HW197868   8.655  13.224   3.129  1.4329 -0.2827 -0.3117
62646SOL    HW297869   8.784  13.251   3.203 -0.3337  0.8384  2.5414
62647SOL     OW97870   9.183  10.520   8.960 -0.5161 -0.2657 -0.5656
62647SOL    HW197871   9.217  10.606   8.987 -0.2142 -0.5086 -0.1747
62647SOL    HW297872   9.193  10.465   9.037 -1.8093 -0.3489 -0.4330
62648SOL     OW97873   4.462   6.542   3.294 -0.2877 -0.9719 -0.0713
62648SOL    HW197874   4.451   6.509   3.383 -2.0703  0.5657  0.3207
62648SOL    HW297875   4.551   6.578   3.293  0.4035 -2.5680  0.5167
62649SOL     OW97876   4.137   1.818   7.602  0.3874  0.0997  0.0152
62649SOL    HW197877   4.202   1.880   7.570 -0.4918  1.8658  1.5110
62649SOL    HW297878   4.063   1.828   7.542  0.3818  0.2270  0.0439
62650SOL     OW97879   0.264   9.780   8.154  0.5227  0.3120  0.1461
62650SOL    HW197880   0.337   9.741   8.203 -0.4161  0.5501  1.8425
62650SOL    HW297881   0.192   9.779   8.217 -1.5796 -1.8297 -2.0997
62651SOL     OW97882   7.825   2.083  12.247  0.0253  0.0165 -0.2852
62651SOL    HW197883   7.892   2.015  12.253  0.9337  0.7945 -1.2009
62651SOL    HW297884   7.743   2.036  12.244  0.6717 -1.0894 -1.5139
62652SOL     OW97885   2.053   0.111   4.821  0.2462 -0.6640  0.1280
62652SOL    HW197886   2.039   0.048   4.892 -3.7138  0.0929  0.2779
62652SOL    HW297887   2.109   0.179   4.858  0.9738 -1.9154  1.3925
62653SOL     OW97888  10.095   4.489  10.611 -0.3462  0.6388 -0.0690
62653SOL    HW197889  10.120   4.450  10.695  0.6525  2.5647  0.6082
62653SOL    HW297890  10.120   4.581  10.620 -1.2852  1.1406 -2.0749
62654SOL     OW97891  11.779   1.923   1.270 -0.0969 -0.5278 -0.6017
62654SOL    HW197892  11.693   1.957   1.245  0.0794  1.0030  0.7711
62654SOL    HW297893  11.761   1.836   1.305 -1.3434  0.4122  1.2222
62655SOL     OW97894   3.127   4.835   2.635  0.0257 -0.0635 -0.1220
62655SOL    HW197895   3.136   4.929   2.616  1.3293 -0.0339  0.4913
62655SOL    HW297896   3.130   4.793   2.549  2.3871  0.2938 -0.2842
62656SOL     OW97897   3.123   0.711   0.353  0.5145 -0.1303  0.3800
62656SOL    HW197898   3.075   0.778   0.401 -0.7804  0.8044 -2.0601
62656SOL    HW297899   3.123   0.635   0.412 -1.4848  0.7463  1.6140
62657SOL     OW97900   6.468  13.206   0.517 -0.1783 -0.1813  0.3647
62657SOL    HW197901   6.499  13.275   0.458  1.6222  1.9974  3.5904
62657SOL    HW297902   6.375  13.225   0.529 -0.1232  0.5315 -0.2484
62658SOL     OW97903   3.719  12.244   4.224 -0.1403  0.4678 -0.4005
62658SOL    HW197904   3.769  12.240   4.143 -0.1494 -0.5320 -0.3672
62658SOL    HW297905   3.666  12.324   4.216 -0.0501  0.4401 -1.3170
62659SOL     OW97906   5.471  10.694   5.008 -0.4909 -0.1575 -0.0115
62659SOL    HW197907   5.468  10.605   4.973 -0.8298  0.1591 -0.8083
62659SOL    HW297908   5.429  10.687   5.094  0.7606 -1.0333  0.5604
62660SOL     OW97909   1.539   5.889   5.957 -0.1436  0.2153  0.0773
62660SOL    HW197910   1.555   5.972   6.002 -1.7524  0.2031  0.7709
62660SOL    HW297911   1.445   5.891   5.936 -0.4542 -1.8104  0.9988
62661SOL     OW97912   5.000   1.217  10.428 -0.5760 -0.2796 -0.5744
62661SOL    HW197913   5.056   1.212  10.505 -1.6871 -1.7851  0.1952
62661SOL    HW297914   4.921   1.262  10.459 -1.0752 -0.9982 -0.7829
62662SOL     OW97915  12.055  11.237   5.552 -0.5398  0.0740  0.1156
62662SOL    HW197916  12.026  11.148   5.569  1.2263 -0.3862  0.8966
62662SOL    HW297917  12.036  11.285   5.633 -0.2316  0.0746  0.1863
62663SOL     OW97918  10.267  10.593   4.995 -0.0141  0.2741 -0.5528
62663SOL    HW197919  10.300  10.552   4.915 -0.9931  0.4321 -1.0498
62663SOL    HW297920  10.220  10.670   4.965  1.3228  1.5003  0.3350
62664SOL     OW97921   0.552  10.250  12.177  0.0413  0.6910  0.2541
62664SOL    HW197922   0.468  10.284  12.147  1.1875  1.5793 -2.1721
62664SOL    HW297923   0.586  10.318  12.236 -0.9155  0.2937  1.3041
62665SOL     OW97924  10.653  12.818   7.570 -0.6190 -0.2711  0.4473
62665SOL    HW197925  10.610  12.746   7.524  0.8522  0.2591 -1.9469
62665SOL    HW297926  10.594  12.892   7.557 -1.8657 -0.8515  2.4420
62666SOL     OW97927  13.091   4.696   6.175  0.0245 -0.1255 -0.0696
62666SOL    HW197928  13.001   4.669   6.192  0.4383 -0.0034  2.6327
62666SOL    HW297929  13.130   4.619   6.133 -1.5207  0.1752 -2.2641
62667SOL     OW97930   0.308   0.442   5.138  0.2430  0.5736 -0.0164
62667SOL    HW197931   0.242   0.420   5.205  0.6459 -0.9272 -0.0823
62667SOL    HW297932   0.280   0.393   5.061  1.1339  0.3555 -0.2060
62668SOL     OW97933   7.738   4.730   9.348  0.5527  0.0109  0.0679
62668SOL    HW197934   7.756   4.676   9.425  0.5924  0.2818  0.2492
62668SOL    HW297935   7.659   4.691   9.310  0.5182 -0.1109  0.2593
62669SOL     OW97936   7.112   5.294   5.814 -0.7259 -0.1526  0.4114
62669SOL    HW197937   7.041   5.339   5.860 -2.7162 -2.5287 -0.1472
62669SOL    HW297938   7.106   5.203   5.842  0.7502 -0.8413 -1.2893
62670SOL     OW97939  13.122  11.493   5.285  0.4228 -0.2475  0.0028
62670SOL    HW197940  13.196  11.476   5.227  0.1905 -2.0844  0.1793
62670SOL    HW297941  13.157  11.481   5.373  0.4623  1.2430  0.2088
62671SOL     OW97942  11.137   9.595  12.902 -0.1501 -0.5272  0.6003
62671SOL    HW197943  11.134   9.515  12.954 -1.2829  1.1406  3.2863
62671SOL    HW297944  11.077   9.655  12.946  2.9075  2.8700  0.5940
62672SOL     OW97945  11.455   2.194   9.153 -0.2611 -0.8217 -0.1612
62672SOL    HW197946  11.413   2.233   9.077 -0.4421  0.3233  0.4954
62672SOL    HW297947  11.511   2.264   9.188 -0.7655 -1.0484  1.1883
62673SOL     OW97948  12.496  10.033  10.475 -0.4018  0.4804  0.1965
62673SOL    HW197949  12.571  10.071  10.429 -0.3594  1.0981  0.7601
62673SOL    HW297950  12.420  10.059  10.423 -0.2904  0.5423  0.0639
62674SOL     OW97951   3.138   1.630   0.220  0.2138  0.1612  0.5273
62674SOL    HW197952   3.134   1.540   0.189 -0.8200 -0.5701  2.5622
62674SOL    HW297953   3.055   1.669   0.195  1.2461  1.0878 -1.6798
62675SOL     OW97954  11.387   0.523  13.209  0.5080  0.5225 -0.7761
62675SOL    HW197955  11.410   0.432  13.188  0.5495  0.4847 -0.5662
62675SOL    HW297956  11.406   0.532  13.302 -0.4642  0.4473 -0.5609
62676SOL     OW97957  12.239   0.530   4.021 -0.1320 -0.5152 -0.7437
62676SOL    HW197958  12.320   0.524   4.072 -0.1569  0.6414 -0.5440
62676SOL    HW297959  12.215   0.623   4.025 -1.7887 -0.9406 -0.3146
62677SOL     OW97960  10.753   1.960  12.135  0.1815  0.6301 -0.6082
62677SOL    HW197961  10.659   1.973  12.129 -0.0445 -0.9631 -1.1278
62677SOL    HW297962  10.778   1.922  12.051  0.6791 -2.0647  0.6194
62678SOL     OW97963   2.093   9.897   5.907  0.1495 -0.9197 -0.6073
62678SOL    HW197964   2.103   9.992   5.901 -0.8160 -0.7036  0.7984
62678SOL    HW297965   2.000   9.883   5.925  0.3027 -2.1270 -0.6271
62679SOL     OW97966   2.015   8.557   4.211  1.0953 -0.2634  0.2454
62679SOL    HW197967   2.052   8.581   4.126 -0.3176  1.2652  0.0143
62679SOL    HW297968   2.086   8.574   4.274  1.3785  0.9285 -0.3728
62680SOL     OW97969  12.207  10.267   2.843 -0.3612 -0.3730  0.5983
62680SOL    HW197970  12.283  10.213   2.866 -0.3603 -0.8141 -0.3897
62680SOL    HW297971  12.232  10.312   2.763 -0.8618  0.0835  0.6918
62681SOL     OW97972   0.129   9.720   0.759  0.7624  0.3987  0.1295
62681SOL    HW197973   0.054   9.671   0.791  0.7959  0.4426  0.2786
62681SOL    HW297974   0.196   9.654   0.744  0.7146  0.3668  0.0605
62682SOL     OW97975   6.981   1.829  11.060  0.4730 -0.4445 -0.4439
62682SOL    HW197976   7.075   1.843  11.062  1.3023 -4.6117  1.1093
62682SOL    HW297977   6.969   1.755  11.000 -1.7382 -0.4075 -0.1272
62683SOL     OW97978   6.877  12.752   4.710 -0.2741 -0.4165 -0.3661
62683SOL    HW197979   6.806  12.735   4.771  0.7985 -2.0454  0.4924
62683SOL    HW297980   6.866  12.844   4.685 -1.1361  0.1166  1.7626
62684SOL     OW97981   9.814   1.516   5.070 -0.1835  0.1576 -0.0202
62684SOL    HW197982   9.782   1.439   5.023  1.9730 -1.1711  0.5014
62684SOL    HW297983   9.774   1.509   5.157  0.0670 -0.4768  0.0539
62685SOL     OW97984  12.519   9.980   3.154 -0.0494  0.2659  0.7091
62685SOL    HW197985  12.465   9.987   3.075 -0.1505 -0.7225  0.6811
62685SOL    HW297986  12.474  10.035   3.218 -0.6669  0.0657  0.4555
62686SOL     OW97987   5.183   0.025  11.791 -0.0967  0.0998  0.6079
62686SOL    HW197988   5.227  -0.001  11.872  2.1823  0.1214 -0.5615
62686SOL    HW297989   5.254   0.044  11.729 -1.7484 -0.7305 -1.6780
62687SOL     OW97990   9.750   9.195   3.048  0.5833  0.8259  0.1717
62687SOL    HW197991   9.705   9.164   2.969  0.9501  2.4984 -0.7612
62687SOL    HW297992   9.707   9.149   3.120 -0.6560  0.2250 -0.8969
62688SOL     OW97993   5.012   2.491  12.112  0.2689  0.0199  0.2216
62688SOL    HW197994   4.961   2.410  12.104  0.0449  0.3070 -1.4998
62688SOL    HW297995   5.008   2.512  12.206 -1.0119 -1.0903  0.4466
62689SOL     OW97996   1.637   4.648   2.805 -0.2792 -0.1447  0.6660
62689SOL    HW197997   1.719   4.676   2.846 -0.2336 -1.0034  1.1874
62689SOL    HW297998   1.605   4.577   2.861 -1.7110  0.5880  0.8305
62690SOL     OW97999   9.086  11.964   8.325 -0.1238 -0.1596 -0.6659
62690SOL    HW198000   9.006  11.950   8.375  0.3560 -1.5709 -0.2504
62690SOL    HW298001   9.154  11.919   8.374  1.0114  1.2822 -0.8461
62691SOL     OW98002   5.348   9.670   4.568 -0.1708 -0.3523 -0.1969
62691SOL    HW198003   5.422   9.725   4.593 -0.6032  0.3877 -0.5061
62691SOL    HW298004   5.340   9.607   4.639  0.4934 -0.1776  0.0394
62692SOL     OW98005   5.020   5.166   2.376 -0.4025  0.0532  0.0648
62692SOL    HW198006   5.075   5.176   2.298  0.2893 -1.6508  0.2761
62692SOL    HW298007   5.076   5.192   2.449 -0.8010  0.9353  0.0619
62693SOL     OW98008   8.020  12.153  10.715  0.0639  0.0382 -0.2487
62693SOL    HW198009   8.109  12.162  10.681  0.7096  3.2955  1.8304
62693SOL    HW298010   7.964  12.156  10.636  1.6802  1.5680 -1.4167
62694SOL     OW98011   7.459   2.044  10.845 -0.4185 -0.4502  0.2652
62694SOL    HW198012   7.430   2.125  10.886  0.8146 -0.9468  2.2920
62694SOL    HW298013   7.501   2.071  10.764 -3.0483  0.5801 -0.8833
62695SOL     OW98014  10.682   8.755  10.497 -0.2180 -0.3283  0.2460
62695SOL    HW198015  10.727   8.783  10.576  0.4235  0.4130 -0.3553
62695SOL    HW298016  10.665   8.662  10.510 -1.9311  0.1779  2.0956
62696SOL     OW98017  13.298   5.275  12.667 -0.3685  0.4769 -0.2991
62696SOL    HW198018  13.229   5.248  12.606 -0.1953  2.5768 -1.4996
62696SOL    HW298019  13.251   5.289  12.750 -1.0097 -0.1036 -0.5446
62697SOL     OW98020  11.532   8.017   4.966  0.4504 -0.0746  0.5361
62697SOL    HW198021  11.572   8.025   4.879  0.7812 -1.8945  0.4736
62697SOL    HW298022  11.486   7.933   4.963 -3.8405  2.0152  0.4673
62698SOL     OW98023   2.748   6.293   6.842 -0.1574 -0.7743  0.0361
62698SOL    HW198024   2.825   6.244   6.873 -0.0399 -0.6654 -0.0787
62698SOL    HW298025   2.705   6.323   6.921  0.3092 -0.2377  0.0921
62699SOL     OW98026   9.932  11.706   3.193  0.3585 -0.6118  0.3905
62699SOL    HW198027   9.993  11.776   3.171  0.1293 -0.5299  0.0147
62699SOL    HW298028   9.852  11.752   3.219 -0.5272 -0.7200 -1.9097
62700SOL     OW98029   1.654  11.495   8.733 -0.0446  0.1075  0.2616
62700SOL    HW198030   1.583  11.453   8.781 -0.2770  0.1206 -0.0683
62700SOL    HW298031   1.733  11.450   8.764 -0.3828 -1.3904 -0.8851
62701SOL     OW98032  12.657   1.628   1.110  0.5150  0.2979  0.4182
62701SOL    HW198033  12.624   1.711   1.076  1.6279  0.5773 -0.0117
62701SOL    HW298034  12.598   1.562   1.074 -0.8058  0.9300  1.3201
62702SOL     OW98035  10.733  11.348   5.275  0.4149  0.2221 -0.2675
62702SOL    HW198036  10.659  11.408   5.286 -0.4397 -1.0984  1.7354
62702SOL    HW298037  10.703  11.287   5.207 -0.0769  0.0752  0.0749
62703SOL     OW98038   6.396  11.756   8.628 -0.1578  0.1640 -0.2124
62703SOL    HW198039   6.363  11.835   8.671 -0.9993 -1.1490  1.6507
62703SOL    HW298040   6.409  11.693   8.698 -0.6116 -1.7653 -1.7599
62704SOL     OW98041   8.718  10.754  10.514 -0.8386  0.7833  0.1682
62704SOL    HW198042   8.737  10.831  10.568 -2.6554  2.1900 -1.0773
62704SOL    HW298043   8.645  10.781  10.459 -1.2457 -1.7178 -0.6352
62705SOL     OW98044   3.520  12.950   8.457  0.3775  0.1490  0.0072
62705SOL    HW198045   3.587  13.018   8.468  0.1614  0.4781 -0.6395
62705SOL    HW298046   3.467  12.980   8.383  0.6934 -1.0544 -0.7483
62706SOL     OW98047   1.337   2.387   8.598 -0.3284 -0.3806  0.1306
62706SOL    HW198048   1.253   2.362   8.636 -1.3660  0.3149 -1.5780
62706SOL    HW298049   1.319   2.398   8.505  1.4246  0.8130 -0.1213
62707SOL     OW98050  11.587  10.648   3.871  0.8570 -0.0997 -0.1593
62707SOL    HW198051  11.670  10.685   3.901  1.3556  0.6958 -2.3161
62707SOL    HW298052  11.520  10.708   3.904  1.1508 -0.4285  1.0990
62708SOL     OW98053   7.694  10.758  10.658 -0.2178  0.2530  0.1596
62708SOL    HW198054   7.751  10.682  10.648 -0.2055  0.2941 -0.0846
62708SOL    HW298055   7.725  10.821  10.593 -1.0347 -0.0229 -0.5169
62709SOL     OW98056  10.670   6.645   7.241 -0.3513  0.3054 -0.1846
62709SOL    HW198057  10.631   6.632   7.328  0.7569 -0.1690  0.2626
62709SOL    HW298058  10.757   6.606   7.248 -0.2141  0.3376 -1.4935
62710SOL     OW98059  13.203   2.758   3.892  0.2673 -0.1825 -0.5592
62710SOL    HW198060  13.201   2.840   3.842 -0.8840 -1.1615 -2.2235
62710SOL    HW298061  13.131   2.764   3.954  1.7488  1.0754  1.1251
62711SOL     OW98062  11.366   2.596  10.184  0.3011  0.1306  0.0041
62711SOL    HW198063  11.393   2.688  10.183  3.1726 -0.5928  1.5131
62711SOL    HW298064  11.399   2.562  10.267 -1.0819 -2.1784 -0.3223
62712SOL     OW98065  10.034   1.089  13.194 -0.0941  0.3311  0.1368
62712SOL    HW198066  10.034   1.150  13.268 -1.2725 -0.4682  0.8271
62712SOL    HW298067  10.054   1.003  13.233 -1.1713 -0.1778 -0.3856
62713SOL     OW98068  13.192   4.458   1.283  0.6068  0.1419  0.1163
62713SOL    HW198069  13.248   4.535   1.268 -2.2976  1.9991 -2.5182
62713SOL    HW298070  13.131   4.485   1.351 -0.1617  0.0651 -0.5222
62714SOL     OW98071   3.258   9.331   0.096 -0.3956 -0.7516  0.2593
62714SOL    HW198072   3.309   9.329   0.015  2.3901  0.7942  1.8242
62714SOL    HW298073   3.206   9.411   0.090 -0.2663 -0.6885 -0.0284
62715SOL     OW98074   9.063   0.553   5.410 -0.0689  0.0673 -0.2157
62715SOL    HW198075   9.003   0.493   5.453 -0.2162  1.7810  2.1845
62715SOL    HW298076   9.009   0.599   5.345 -0.6266 -0.3832 -0.0787
62716SOL     OW98077  11.102   4.788   6.917  0.4144  0.1309  0.1610
62716SOL    HW198078  11.065   4.876   6.905 -0.1696 -0.2168 -0.7025
62716SOL    HW298079  11.190   4.795   6.880  0.7309  0.6035  0.9842
62717SOL     OW98080   6.055   9.592  12.028  0.0990  0.1483  0.4792
62717SOL    HW198081   6.025   9.550  11.947 -0.4081  0.0846  0.6934
62717SOL    HW298082   6.144   9.560  12.040  0.0091 -0.2159  0.1965
62718SOL     OW98083   5.872   3.634  11.543  0.4643  0.1426  0.1287
62718SOL    HW198084   5.808   3.690  11.499  0.6758 -1.6567 -2.7699
62718SOL    HW298085   5.832   3.613  11.627 -1.6562  0.9843 -0.5909
62719SOL     OW98086   2.495   0.725  10.005 -0.3093  0.3808  0.3678
62719SOL    HW198087   2.581   0.767  10.011 -0.3161  0.3828  0.4536
62719SOL    HW298088   2.457   0.736  10.092 -0.5620  0.7379  0.2162
62720SOL     OW98089   1.107   1.085  10.106 -0.3009  0.7040 -0.1291
62720SOL    HW198090   1.112   1.169  10.060  0.1278  0.1745 -1.0801
62720SOL    HW298091   1.179   1.090  10.170 -1.4277  1.7805  1.1117
62721SOL     OW98092   4.579   3.202   0.482 -1.4752 -0.4837  0.3479
62721SOL    HW198093   4.642   3.254   0.431 -1.5368 -2.3663 -1.8050
62721SOL    HW298094   4.629   3.124   0.509 -2.2891 -0.9395  0.5601
62722SOL     OW98095  12.426   0.918  10.290  0.1720  0.6224  0.6261
62722SOL    HW198096  12.389   0.892  10.375 -2.0176  2.5749  0.3575
62722SOL    HW298097  12.507   0.965  10.313  0.8118 -0.8065  1.4475
62723SOL     OW98098  13.141  11.691   1.696 -0.1006 -0.3392 -0.1419
62723SOL    HW198099  13.232  11.682   1.667  0.1406 -0.4427  0.6324
62723SOL    HW298100  13.140  11.654   1.784 -0.3457  1.9204  0.8645
62724SOL     OW98101   5.867  12.324   3.826 -0.0067  0.2363  0.1830
62724SOL    HW198102   5.868  12.235   3.861 -0.6240  0.1157 -0.0877
62724SOL    HW298103   5.951  12.362   3.853  0.1495 -0.3404  0.5190
62725SOL     OW98104   0.748   6.192   1.374 -0.3941  0.1299 -0.0862
62725SOL    HW198105   0.832   6.239   1.371 -0.6405  0.6715  0.9778
62725SOL    HW298106   0.744   6.157   1.463 -1.2465  0.0274 -0.1607
62726SOL     OW98107   6.139   2.826   0.387  0.3025 -0.1122 -0.7547
62726SOL    HW198108   6.209   2.762   0.404 -1.6810 -2.1954  0.1819
62726SOL    HW298109   6.140   2.838   0.292  0.2838 -2.2104 -1.0805
62727SOL     OW98110  12.738   0.678   5.607 -0.2401  0.1835 -0.6249
62727SOL    HW198111  12.656   0.721   5.632 -0.8666  0.4585 -2.9542
62727SOL    HW298112  12.784   0.664   5.690 -2.7761 -0.3029  0.7964
62728SOL     OW98113   0.459   6.860   3.755 -0.3525 -0.1382  0.4948
62728SOL    HW198114   0.366   6.838   3.753 -0.8964  1.6862  2.1395
62728SOL    HW298115   0.465   6.944   3.710  0.4306 -0.0354  0.7713
62729SOL     OW98116   8.337   8.087  11.446 -0.0801 -0.5761  0.2519
62729SOL    HW198117   8.411   8.129  11.490  0.5914 -0.7716 -0.6516
62729SOL    HW298118   8.377   8.021  11.389 -0.8095  0.3064 -1.3713
62730SOL     OW98119   7.746  11.689   5.659  0.4860  0.1809 -0.1854
62730SOL    HW198120   7.753  11.784   5.651  0.9786  0.2870  1.1770
62730SOL    HW298121   7.818  11.664   5.718  0.5897 -1.0838 -0.7995
62731SOL     OW98122  11.794   2.385   5.351  0.1294  0.4335 -0.2042
62731SOL    HW198123  11.784   2.448   5.422 -0.6168  1.6977 -1.4029
62731SOL    HW298124  11.811   2.302   5.396  1.4913  1.5095  1.4032
62732SOL     OW98125   2.686   8.377   5.184 -0.2617  0.1842  0.2530
62732SOL    HW198126   2.615   8.328   5.141 -2.7841  0.9460  3.1958
62732SOL    HW298127   2.733   8.311   5.235  0.1942 -0.0716 -0.4798
62733SOL     OW98128   9.437   0.357  10.883  0.5049 -0.0881  0.9181
62733SOL    HW198129   9.451   0.297  10.810  0.2937  0.1192  0.7052
62733SOL    HW298130   9.353   0.398  10.864  0.4533 -0.0243  1.2743
62734SOL     OW98131   1.041   0.439   0.118  0.3836  0.1278 -0.3872
62734SOL    HW198132   1.082   0.428   0.204 -1.4412 -0.1899  0.4967
62734SOL    HW298133   0.962   0.384   0.121  0.2878  0.0772 -2.2906
62735SOL     OW98134   1.114  12.949   5.808  0.0554 -0.5152 -0.0777
62735SOL    HW198135   1.154  13.014   5.751  1.9544  0.2458  1.9471
62735SOL    HW298136   1.020  12.967   5.804  0.4870  2.1842  0.1775
62736SOL     OW98137  10.951   7.426   8.901  0.3006 -0.5572  0.6517
62736SOL    HW198138  10.960   7.502   8.843 -1.3289  0.3497  1.5299
62736SOL    HW298139  10.871   7.383   8.872  0.5856 -1.2952  0.9225
62737SOL     OW98140   8.440   0.847   5.623 -0.2509  0.0956  0.0060
62737SOL    HW198141   8.520   0.810   5.662  0.0647  0.6270 -0.1184
62737SOL    HW298142   8.471   0.894   5.546 -0.7615 -0.1728 -0.3664
62738SOL     OW98143   9.727  12.495   0.196  0.0232 -0.4182 -0.3551
62738SOL    HW198144   9.730  12.403   0.221 -0.9411 -0.4282 -0.2514
62738SOL    HW298145   9.813  12.512   0.157  0.6098 -1.0629  0.6266
62739SOL     OW98146   7.769   0.510   4.835  0.1113  0.8384 -0.2530
62739SOL    HW198147   7.778   0.563   4.756 -1.5897 -0.3596 -1.3181
62739SOL    HW298148   7.675   0.506   4.851  0.1150 -2.0488 -0.4136
62740SOL     OW98149   4.625   9.740   9.569 -0.2533 -0.0181  0.2791
62740SOL    HW198150   4.664   9.743   9.656  0.4806 -0.5008 -0.0218
62740SOL    HW298151   4.672   9.807   9.519 -1.4426  1.0515  0.5445
62741SOL     OW98152  11.598   0.586   1.299  0.3722  0.4686  0.0725
62741SOL    HW198153  11.527   0.650   1.307  0.9487  1.1503 -0.2079
62741SOL    HW298154  11.618   0.562   1.390  0.5114  1.0879  0.2102
62742SOL     OW98155   0.536  12.032   9.723  0.4733  0.6417  0.3989
62742SOL    HW198156   0.600  12.062   9.788  0.2623  1.7649  0.1099
62742SOL    HW298157   0.504  11.949   9.758  0.6644  1.0249  1.5336
62743SOL     OW98158  10.543   0.464   4.755  0.0362  0.3587  0.0653
62743SOL    HW198159  10.555   0.517   4.676 -0.0302 -1.0623 -0.9486
62743SOL    HW298160  10.506   0.382   4.723  0.6712 -0.5269  1.4984
62744SOL     OW98161   7.168   5.981   5.098  0.4401  0.1299 -0.1426
62744SOL    HW198162   7.171   6.046   5.027 -0.1331  0.2429 -0.0615
62744SOL    HW298163   7.200   5.900   5.057 -2.0961 -0.4348 -1.2168
62745SOL     OW98164  10.762   8.312   8.218 -0.0353 -0.0602 -0.5061
62745SOL    HW198165  10.792   8.253   8.149  2.1481 -1.2609  1.3467
62745SOL    HW298166  10.748   8.256   8.294  0.5752  1.5448  0.8723
62746SOL     OW98167   9.386   4.901   1.691 -0.0141  0.0890  0.1881
62746SOL    HW198168   9.367   4.811   1.716 -0.0331 -0.1812 -0.7570
62746SOL    HW298169   9.444   4.893   1.615 -0.4610  0.8665 -0.2492
62747SOL     OW98170   5.601   5.787  12.629 -0.1383  0.2214  0.1434
62747SOL    HW198171   5.512   5.789  12.594 -0.3646  0.0249  0.6885
62747SOL    HW298172   5.601   5.713  12.690  0.2159  0.6015  0.6154
62748SOL     OW98173   3.550  12.888   1.539  0.1216  0.5398  0.4609
62748SOL    HW198174   3.573  12.796   1.547 -0.0454  0.4897  0.3648
62748SOL    HW298175   3.533  12.901   1.446 -1.7161  0.2210  0.7141
62749SOL     OW98176   0.307   3.033   6.279 -0.1260  0.4968  0.4574
62749SOL    HW198177   0.268   2.946   6.269  0.6711  0.1448  0.3668
62749SOL    HW298178   0.327   3.061   6.189  2.7909 -0.7172  0.6084
62750SOL     OW98179  12.593   5.808  12.082 -0.2131  0.4685  0.1128
62750SOL    HW198180  12.606   5.894  12.121  1.2643  0.9596 -1.3210
62750SOL    HW298181  12.531   5.823  12.010  0.6368  0.5279 -0.6293
62751SOL     OW98182   4.738  11.165   6.999  0.2873 -0.0872 -0.9156
62751SOL    HW198183   4.727  11.240   7.057  0.5163 -1.4292  0.9291
62751SOL    HW298184   4.699  11.193   6.916 -0.5441  1.6815  0.0239
62752SOL     OW98185   7.784   9.487   3.783 -0.2627  0.3202  0.2057
62752SOL    HW198186   7.873   9.520   3.785  0.0042 -0.3687 -0.1035
62752SOL    HW298187   7.761   9.475   3.875 -0.0973  0.6473  0.2922
62753SOL     OW98188  11.234   9.269   0.840  0.5125 -0.7950 -0.4593
62753SOL    HW198189  11.238   9.236   0.751  0.4263 -1.6161 -0.1743
62753SOL    HW298190  11.310   9.231   0.884  0.7282 -0.1524 -0.2591
62754SOL     OW98191  13.224  12.090   7.521  0.1254  0.3576  0.6073
62754SOL    HW198192  13.280  12.152   7.474  1.5630 -1.2126  0.1537
62754SOL    HW298193  13.187  12.034   7.453 -0.3551  0.0878  1.0856
62755SOL     OW98194   5.781  10.461   6.117  0.1494  0.1663  0.8917
62755SOL    HW198195   5.856  10.479   6.174  0.1898 -0.1941  0.9502
62755SOL    HW298196   5.712  10.433   6.177 -0.2742  1.2297  0.9248
62756SOL     OW98197   6.426   2.062  13.206  0.1327 -0.2701  0.4028
62756SOL    HW198198   6.493   2.036  13.269 -0.2428  0.1388  0.9820
62756SOL    HW298199   6.343   2.035  13.245 -0.1176  0.1102  0.1508
62757SOL     OW98200   8.509   1.843   0.367  0.0616  0.5025  0.5732
62757SOL    HW198201   8.452   1.811   0.437  0.2129  1.6464  1.2361
62757SOL    HW298202   8.458   1.829   0.287 -0.1096 -0.8297  0.8815
62758SOL     OW98203   2.408   0.444  10.331  0.1141 -0.1169 -0.3304
62758SOL    HW198204   2.318   0.478  10.330 -0.5574 -1.7724  0.2786
62758SOL    HW298205   2.430   0.434  10.238 -0.4318  0.0406 -0.4809
62759SOL     OW98206  11.410   1.781  12.875  0.2408 -0.3905  0.0858
62759SOL    HW198207  11.501   1.758  12.891 -0.1593 -1.3507  1.2125
62759SOL    HW298208  11.400   1.869  12.912  1.3138  0.8980 -2.4633
62760SOL     OW98209   7.004   5.960   1.010  0.4369 -0.0451 -0.1884
62760SOL    HW198210   7.016   5.912   0.928 -0.7494 -1.5212  0.4566
62760SOL    HW298211   6.953   6.037   0.986  0.8333 -0.0163 -0.9636
62761SOL     OW98212   7.399   7.386   5.240 -0.0096  0.7396  0.4210
62761SOL    HW198213   7.359   7.470   5.218  0.5423  0.5844 -1.3932
62761SOL    HW298214   7.373   7.370   5.330  0.0308  2.9344  0.8817
62762SOL     OW98215  11.623   3.017   0.067  0.2897 -0.0875  0.3737
62762SOL    HW198216  11.560   3.082   0.101  0.0805 -0.3851  0.5641
62762SOL    HW298217  11.705   3.039   0.110  0.8701  1.6557 -1.5024
62763SOL     OW98218   7.876   7.717  12.308 -0.2097  0.0285 -0.3119
62763SOL    HW198219   7.867   7.651  12.377 -0.8322 -1.4945 -1.7648
62763SOL    HW298220   7.970   7.729  12.297 -0.1021 -0.0895  0.4495
62764SOL     OW98221   4.483   8.168   9.109  0.4016 -0.6311  0.0439
62764SOL    HW198222   4.523   8.083   9.094  1.8585 -0.1190  0.8804
62764SOL    HW298223   4.504   8.219   9.030  1.3163 -0.4024  0.4280
62765SOL     OW98224   3.734   8.683  10.327 -0.0159 -0.7301 -0.3507
62765SOL    HW198225   3.805   8.736  10.364 -1.4352 -0.2137  1.7495
62765SOL    HW298226   3.710   8.730  10.247  0.4464  0.3962  0.1395
62766SOL     OW98227   4.940   1.873   7.017 -0.1265 -0.4840 -0.2101
62766SOL    HW198228   4.920   1.864   6.924  1.7029 -0.9343 -0.6058
62766SOL    HW298229   4.872   1.824   7.062  0.3782 -2.4163 -1.4718
62767SOL     OW98230   4.948   3.594   7.599  0.4704  0.2877 -0.4890
62767SOL    HW198231   4.984   3.553   7.520 -0.5596 -0.1119 -0.7664
62767SOL    HW298232   4.865   3.548   7.614  0.3343  0.8156  0.4423
62768SOL     OW98233   6.001   1.639   0.163 -0.3405 -0.0089 -0.5712
62768SOL    HW198234   5.970   1.694   0.091 -1.1212  1.1162  0.5889
62768SOL    HW298235   5.980   1.550   0.136  0.8395  0.2218 -2.4375
62769SOL     OW98236   6.801  12.150   6.924 -0.3721  0.0038  0.3383
62769SOL    HW198237   6.783  12.056   6.921 -2.3646  0.3541 -1.8632
62769SOL    HW298238   6.895  12.156   6.940  0.3268 -2.4779 -2.0891
62770SOL     OW98239   2.189  11.090   0.734  0.2417  0.0483  0.2933
62770SOL    HW198240   2.188  10.997   0.710 -1.0699  0.2864 -0.6367
62770SOL    HW298241   2.137  11.133   0.667 -0.6787  1.2189  1.6993
62771SOL     OW98242  11.670   6.962   5.699 -0.0936  0.5486  0.0547
62771SOL    HW198243  11.655   6.894   5.765  0.2272  0.5246  0.1044
62771SOL    HW298244  11.694   7.040   5.749 -0.8250  0.7988  0.0146
62772SOL     OW98245  13.153   0.129   5.257  0.3318 -0.0836 -0.3554
62772SOL    HW198246  13.232   0.086   5.224  1.2413  1.0361  0.3178
62772SOL    HW298247  13.185   0.204   5.307 -1.1301 -0.0676  0.6128
62773SOL     OW98248   9.027   4.415  11.790  0.2463 -0.0750 -0.5602
62773SOL    HW198249   8.986   4.340  11.748  0.1433 -0.0149 -0.5703
62773SOL    HW298250   8.973   4.490  11.763  0.0241 -0.0715 -0.1193
62774SOL     OW98251   6.143  11.574   2.179  0.2901 -0.8563  0.4280
62774SOL    HW198252   6.193  11.581   2.098  0.0567 -1.0769  0.2628
62774SOL    HW298253   6.129  11.665   2.207  2.7163 -0.7791  1.6958
62775SOL     OW98254   1.076   4.560   5.325  0.1486  0.1960 -0.1425
62775SOL    HW198255   1.113   4.475   5.301  0.8483  0.9738 -1.9974
62775SOL    HW298256   1.008   4.539   5.389 -0.4711 -1.8846 -1.3886
62776SOL     OW98257   8.221   1.509   1.136 -0.2753 -0.0796 -0.1215
62776SOL    HW198258   8.168   1.589   1.139 -0.3176  0.0673 -2.5793
62776SOL    HW298259   8.165   1.445   1.092  1.0441 -0.3078 -1.5728
62777SOL     OW98260   7.119   8.773   0.169  0.2064 -0.8778  0.1230
62777SOL    HW198261   7.086   8.846   0.118 -0.2981  0.0792  1.7295
62777SOL    HW298262   7.214   8.786   0.171  0.0964 -0.0335  0.6679
62778SOL     OW98263   0.578   4.885   1.625 -0.3625  0.3563 -0.3606
62778SOL    HW198264   0.650   4.948   1.622 -0.9402  1.2149  1.6591
62778SOL    HW298265   0.620   4.801   1.642  0.1749  0.8837  1.0528
62779SOL     OW98266   0.053   0.615   1.503  0.1707 -0.7438  0.0199
62779SOL    HW198267   0.141   0.583   1.484  0.0970 -0.4961 -0.7748
62779SOL    HW298268   0.047   0.614   1.598  1.4020  0.2576  0.1213
62780SOL     OW98269   2.086   2.153   7.468  0.1540 -0.3591  0.3440
62780SOL    HW198270   2.102   2.116   7.555  3.1529 -1.4235 -0.5308
62780SOL    HW298271   2.119   2.242   7.473 -2.2580  0.5688  0.9896
62781SOL     OW98272   5.333   2.656  10.821  0.5573  0.0378 -0.0995
62781SOL    HW198273   5.295   2.714  10.755 -0.4335  0.5356  0.8845
62781SOL    HW298274   5.315   2.568  10.787  1.2076  0.2706 -1.1122
62782SOL     OW98275   6.944  11.277   9.162 -0.0949 -0.1245 -0.8740
62782SOL    HW198276   6.976  11.357   9.120 -4.0433  2.2240  0.1030
62782SOL    HW298277   6.881  11.240   9.100  0.2778 -1.4908 -0.4926
62783SOL     OW98278   5.020  12.433   5.394 -0.1954  0.6464  0.3630
62783SOL    HW198279   5.017  12.528   5.400 -1.0181  0.6415  0.1927
62783SOL    HW298280   4.928  12.407   5.384 -0.1548 -0.2615  1.8910
62784SOL     OW98281   4.154   7.546   0.094 -0.8259 -0.3718 -0.1671
62784SOL    HW198282   4.181   7.456   0.113  0.5209  0.1091  0.3637
62784SOL    HW298283   4.195   7.598   0.163  0.2009  0.8799 -1.6518
62785SOL     OW98284   1.334   0.046   1.941 -0.1898 -0.2141  0.4054
62785SOL    HW198285   1.341  -0.043   1.909  1.2174  0.0165  0.0116
62785SOL    HW298286   1.414   0.060   1.992  0.6378  1.4687 -1.2374
62786SOL     OW98287   1.119   0.711   0.066  0.0377  0.2124  0.1520
62786SOL    HW198288   1.109   0.626   0.108  1.4270 -0.1027 -0.1020
62786SOL    HW298289   1.164   0.692  -0.016 -1.4406  0.9766 -0.8741
62787SOL     OW98290   9.252   7.091   8.606  0.0183  0.5918  0.0302
62787SOL    HW198291   9.320   7.050   8.660  0.0561  1.6038  0.7924
62787SOL    HW298292   9.201   7.144   8.668  0.1476  1.8965 -0.9425
62788SOL     OW98293   0.163   9.509   9.698 -0.5607  0.7245 -0.0033
62788SOL    HW198294   0.193   9.564   9.626  0.5277  2.1803  1.4901
62788SOL    HW298295   0.190   9.420   9.674 -0.8530  1.0632 -1.6791
62789SOL     OW98296   1.830  12.133   5.222 -0.2549 -0.2052 -0.2138
62789SOL    HW198297   1.787  12.162   5.142  1.5703 -0.2452 -1.2529
62789SOL    HW298298   1.814  12.204   5.285 -0.6789  0.3842 -0.9752
62790SOL     OW98299   0.893   8.273   7.112 -0.0209  0.0618 -0.7294
62790SOL    HW198300   0.826   8.206   7.097 -0.0919 -0.2178  0.7240
62790SOL    HW298301   0.847   8.356   7.103 -0.3992 -0.1199 -0.4725
62791SOL     OW98302   0.833   5.893   5.084  0.0529  0.3239 -0.2231
62791SOL    HW198303   0.742   5.903   5.055  0.4506  1.8953 -1.0930
62791SOL    HW298304   0.827   5.871   5.177 -1.2151  0.6747 -0.2046
62792SOL     OW98305   0.176   3.423   2.764  0.2812  0.6455 -0.4453
62792SOL    HW198306   0.098   3.473   2.742  0.8365  1.2111 -1.2117
62792SOL    HW298307   0.202   3.454   2.850 -0.2129  0.6076 -0.2819
62793SOL     OW98308   7.839  12.221   7.334  0.1441 -0.2838  0.3540
62793SOL    HW198309   7.891  12.193   7.259  0.4821 -0.3228  0.5960
62793SOL    HW298310   7.814  12.140   7.378 -3.8213 -0.6461 -2.0774
62794SOL     OW98311  11.763   3.748  13.272 -0.6808  0.2689  0.3301
62794SOL    HW198312  11.700   3.803  13.226  2.1295  2.5177 -1.1479
62794SOL    HW298313  11.841   3.802  13.280  2.1924 -3.3045 -0.7674
62795SOL     OW98314   2.239  13.086   0.872 -0.1986 -0.0612 -0.3047
62795SOL    HW198315   2.235  13.006   0.925 -2.1996  1.2586  1.7192
62795SOL    HW298316   2.263  13.154   0.934 -0.3037  1.2156 -1.6122
62796SOL     OW98317   7.654   4.087   1.263 -0.1804  0.7835 -0.5207
62796SOL    HW198318   7.634   4.086   1.357  1.3902 -0.0971 -0.1652
62796SOL    HW298319   7.637   3.997   1.234 -2.1212  1.3908 -1.4641
62797SOL     OW98320   9.498   6.894  13.070 -1.0904 -0.5685  0.0581
62797SOL    HW198321   9.454   6.968  13.027  0.2769  0.0149 -0.3893
62797SOL    HW298322   9.466   6.817  13.023 -1.2610 -0.1206 -0.5806
62798SOL     OW98323   5.150   6.165   6.648 -0.1466  0.3610 -0.2423
62798SOL    HW198324   5.208   6.179   6.723  0.5378  0.1676 -0.7193
62798SOL    HW298325   5.078   6.113   6.683 -0.8547  1.8940  0.7203
62799SOL     OW98326  12.036   2.535   0.987 -0.3188 -0.2731  0.1877
62799SOL    HW198327  12.113   2.591   0.985  0.7614 -1.6607  0.9367
62799SOL    HW298328  12.051   2.477   1.062 -1.8274 -0.9357  0.0033
62800SOL     OW98329   0.576   8.349  11.363  0.0301  0.7609  0.2781
62800SOL    HW198330   0.583   8.266  11.410 -0.7131 -0.9503 -2.4176
62800SOL    HW298331   0.663   8.365  11.327 -0.0005  0.8069  0.2239
62801SOL     OW98332   5.796  11.942   9.484  0.2878  0.1725  0.0624
62801SOL    HW198333   5.719  11.991   9.513 -0.6639 -1.1247 -0.1319
62801SOL    HW298334   5.760  11.875   9.426  1.7964  0.7965 -1.6910
62802SOL     OW98335   7.305   4.195   1.489  0.6787  0.4256 -0.3946
62802SOL    HW198336   7.389   4.153   1.507  0.4295  0.0305 -0.1411
62802SOL    HW298337   7.240   4.125   1.502  0.0796  1.3268  1.8832
62803SOL     OW98338  13.279   3.110   6.442 -0.8538 -0.4258 -0.3854
62803SOL    HW198339  13.274   3.027   6.395  1.1719  0.0765 -1.6047
62803SOL    HW298340  13.320   3.170   6.380 -0.8167  1.0707  1.0264
62804SOL     OW98341   1.280   5.030   1.845  0.3492 -0.2057  0.0774
62804SOL    HW198342   1.347   5.090   1.812  1.5556 -0.4377  2.0041
62804SOL    HW298343   1.260   4.974   1.770  2.5455 -0.3262 -0.4809
62805SOL     OW98344  11.800   0.081   2.303 -0.0575 -0.2314  0.2856
62805SOL    HW198345  11.760   0.146   2.244 -0.0190 -0.4317  0.0391
62805SOL    HW298346  11.893   0.103   2.302 -0.1023 -0.0192  0.5434
62806SOL     OW98347   1.631   6.750   6.771 -0.2627  0.2911 -0.2321
62806SOL    HW198348   1.633   6.827   6.829 -1.0560 -0.6003  1.0239
62806SOL    HW298349   1.538   6.739   6.749 -0.4483 -1.3824  1.1459
62807SOL     OW98350   9.186  11.868   4.146 -0.0215  0.1445 -0.0819
62807SOL    HW198351   9.144  11.894   4.228 -0.5084  0.8364 -0.5472
62807SOL    HW298352   9.121  11.884   4.079 -0.0575 -1.5401 -0.4985
62808SOL     OW98353   3.030   7.855  11.283 -0.1445  0.6537 -0.2763
62808SOL    HW198354   3.007   7.798  11.357  0.2289  0.9286  0.0566
62808SOL    HW298355   3.125   7.850  11.277 -0.0273  1.8431  0.2631
62809SOL     OW98356  11.745  10.760  11.158  0.1686 -0.5193 -0.6297
62809SOL    HW198357  11.714  10.804  11.237 -1.5292  0.5624 -1.8249
62809SOL    HW298358  11.792  10.684  11.190  1.4818  1.0649  1.4723
62810SOL     OW98359   0.419   1.089   5.517 -0.4137 -0.0589 -0.1557
62810SOL    HW198360   0.421   1.009   5.465  0.9390 -0.6195  0.7089
62810SOL    HW298361   0.496   1.083   5.573 -1.1749  1.0786  1.0716
62811SOL     OW98362  12.364  11.809  10.471 -0.1728 -0.1665 -0.2470
62811SOL    HW198363  12.276  11.818  10.506  0.2940  0.2044  0.8720
62811SOL    HW298364  12.387  11.717  10.485  0.3153  0.1487  1.2326
62812SOL     OW98365   0.678   5.252   2.226  0.4376  0.9855 -0.0789
62812SOL    HW198366   0.611   5.200   2.183 -0.4568  2.2650 -0.2897
62812SOL    HW298367   0.707   5.315   2.160 -0.4041  2.4750  0.8928
62813SOL     OW98368   6.113   9.456  12.367 -0.1974  0.5659  0.6401
62813SOL    HW198369   6.199   9.436  12.403  0.4453  2.1062  0.0512
62813SOL    HW298370   6.098   9.389  12.301  1.4033  1.3088 -0.5566
62814SOL     OW98371   0.681  10.174   4.271  0.1910 -0.1935  0.5554
62814SOL    HW198372   0.751  10.206   4.328  0.3983  1.0082 -0.3293
62814SOL    HW298373   0.605  10.226   4.297 -0.0790 -0.6628  0.7095
62815SOL     OW98374  12.097   2.204  10.737 -0.0708 -0.1814  0.4935
62815SOL    HW198375  12.047   2.156  10.804 -1.0795 -0.2604 -0.3001
62815SOL    HW298376  12.107   2.141  10.666 -0.0369  0.2811  0.0883
62816SOL     OW98377  12.545   1.268   2.645  0.1187 -0.4470  0.1683
62816SOL    HW198378  12.467   1.257   2.700  0.0664 -3.0661 -0.3023
62816SOL    HW298379  12.519   1.336   2.582 -1.1530 -0.0674  1.0376
62817SOL     OW98380   6.944   3.981   3.450 -0.8325 -0.7181  0.0536
62817SOL    HW198381   7.017   3.989   3.389 -0.7277 -0.7997  0.1680
62817SOL    HW298382   6.969   3.908   3.508 -0.4529  0.0258  0.8518
62818SOL     OW98383   8.937  11.874  10.034 -0.3088  0.4310  0.2141
62818SOL    HW198384   8.885  11.926  10.095 -0.7854  0.5966 -0.3212
62818SOL    HW298385   8.886  11.875   9.952 -0.3456 -0.9009  0.1990
62819SOL     OW98386  11.935   3.889  11.167 -0.4781 -0.0323 -0.3612
62819SOL    HW198387  11.873   3.950  11.207  0.8603  0.3982  1.1276
62819SOL    HW298388  11.939   3.816  11.228  0.6017  0.0248 -0.3541
62820SOL     OW98389   7.342  10.849   2.227 -0.6300 -0.3192  0.5444
62820SOL    HW198390   7.387  10.925   2.263  0.2165 -0.4865 -0.1270
62820SOL    HW298391   7.251  10.858   2.257 -0.0251 -0.3362  2.4839
62821SOL     OW98392   2.371   4.758   8.610  0.4649 -0.4901 -0.2093
62821SOL    HW198393   2.298   4.801   8.653 -0.6073  0.2052 -2.5557
62821SOL    HW298394   2.383   4.676   8.659  1.3636  1.5059  3.2094
62822SOL     OW98395   5.230  12.953   6.018 -0.1312  0.0473  0.3459
62822SOL    HW198396   5.142  12.958   5.979  0.1931  2.8990 -0.2006
62822SOL    HW298397   5.260  13.043   6.022  1.9727 -0.6441  2.5119
62823SOL     OW98398   5.899   8.239   8.160 -0.4192  0.1937 -0.3164
62823SOL    HW198399   5.959   8.271   8.093 -2.8447  1.3424 -2.1035
62823SOL    HW298400   5.909   8.300   8.233  0.9688  0.0010 -0.3161
62824SOL     OW98401  12.063   4.164  12.337  0.0168  0.2159 -0.3169
62824SOL    HW198402  12.144   4.128  12.373  0.3606 -0.5358 -1.7672
62824SOL    HW298403  12.036   4.231  12.400  0.1256 -1.5833  1.7507
62825SOL     OW98404   5.374   5.588   9.546 -0.8356 -0.0106 -0.2053
62825SOL    HW198405   5.425   5.650   9.598  0.6122 -0.1941 -1.3536
62825SOL    HW298406   5.436   5.552   9.483 -1.1558 -3.7435  1.3154
62826SOL     OW98407   8.248   9.729  12.382  0.2639  0.5523  0.7096
62826SOL    HW198408   8.231   9.821  12.360 -0.2829  0.6070  1.3261
62826SOL    HW298409   8.215   9.680  12.307  2.4413  0.9360 -0.5920
62827SOL     OW98410   0.381  11.239   1.558  0.4508  0.4243 -0.7703
62827SOL    HW198411   0.318  11.290   1.506 -1.3322  0.1373  0.9588
62827SOL    HW298412   0.390  11.157   1.510 -0.7883  0.3382 -0.8950
62828SOL     OW98413   2.224   0.197  12.311  0.1230 -0.7978  0.2668
62828SOL    HW198414   2.224   0.143  12.232  0.8003 -2.9390  1.6337
62828SOL    HW298415   2.315   0.197  12.339  0.0929  0.9271  0.4336
62829SOL     OW98416  11.104  12.227   5.751  0.0919 -0.2473 -0.1110
62829SOL    HW198417  11.194  12.207   5.726  0.4879 -0.0061  1.0801
62829SOL    HW298418  11.073  12.147   5.794 -0.1274 -0.1824 -0.1487
62830SOL     OW98419   1.381   9.216   9.949  0.4119  0.4437 -0.1225
62830SOL    HW198420   1.421   9.164  10.018  1.4486  0.7297 -0.4979
62830SOL    HW298421   1.301   9.251   9.989  0.3503 -0.4024  0.5220
62831SOL     OW98422   1.542   3.345   8.111 -0.5070 -0.5777  0.3632
62831SOL    HW198423   1.584   3.300   8.185  0.3988  0.4345  0.4958
62831SOL    HW298424   1.488   3.278   8.070 -0.0425 -1.4948  1.1977
62832SOL     OW98425  11.067   1.053  11.661 -0.9426  0.1613 -0.6024
62832SOL    HW198426  11.038   1.130  11.711 -1.8835  0.2301 -1.2298
62832SOL    HW298427  11.122   1.004  11.722 -0.3441  1.3190 -0.1784
62833SOL     OW98428   6.034   9.892  10.419 -0.0316  0.3615 -0.1327
62833SOL    HW198429   5.966   9.843  10.465  0.0467  0.2037 -0.1837
62833SOL    HW298430   6.054   9.838  10.342 -0.1290  0.5991 -0.3256
62834SOL     OW98431  13.109   8.925   1.983  0.2125  0.0986  0.2091
62834SOL    HW198432  13.097   8.922   2.078 -0.6450  0.7191  0.1290
62834SOL    HW298433  13.121   9.018   1.963 -0.1243  0.0290 -0.3454
62835SOL     OW98434   9.000  10.490   4.106 -0.3222 -0.1316 -0.0337
62835SOL    HW198435   9.057  10.414   4.122  0.6765  0.5618 -0.2236
62835SOL    HW298436   8.960  10.472   4.021 -1.5449 -1.3086  0.7380
62836SOL     OW98437   1.924   3.618   9.118 -0.5525 -0.4574  0.3283
62836SOL    HW198438   1.964   3.546   9.070 -1.3931 -0.1271 -0.9181
62836SOL    HW298439   1.961   3.611   9.206  3.9234  1.0633 -1.1319
62837SOL     OW98440   0.603   7.873   4.342  0.1065 -0.6136 -0.0504
62837SOL    HW198441   0.542   7.805   4.314  1.7655 -1.7391 -1.1087
62837SOL    HW298442   0.665   7.828   4.400  0.5670  0.2569  0.1603
62838SOL     OW98443   1.721   2.145   5.055  0.3952 -0.1007  0.1836
62838SOL    HW198444   1.811   2.116   5.071  0.2911 -1.5325 -1.4828
62838SOL    HW298445   1.668   2.091   5.113  0.6107  1.1267  1.5713
62839SOL     OW98446   9.800   4.165   8.304  0.0172  0.1454  0.1770
62839SOL    HW198447   9.894   4.181   8.296  0.2049 -0.6205  0.7638
62839SOL    HW298448   9.774   4.131   8.218  0.8205 -2.2283  0.8221
62840SOL     OW98449   3.028   7.358   3.650 -0.7106 -0.5071  0.5550
62840SOL    HW198450   3.067   7.406   3.723 -0.6668  0.8203 -0.3121
62840SOL    HW298451   2.966   7.419   3.611  0.5161 -0.5125 -1.5813
62841SOL     OW98452   9.753  13.304   7.234  0.3778 -0.3973 -0.3206
62841SOL    HW198453   9.825  13.327   7.175  0.3300 -0.3896 -0.3764
62841SOL    HW298454   9.745  13.379   7.293  0.1739 -0.2386 -0.5484
62842SOL     OW98455  12.932   8.796   3.752  0.2781  0.2202  0.0061
62842SOL    HW198456  12.949   8.888   3.770 -0.3992  0.3932 -0.2103
62842SOL    HW298457  12.936   8.789   3.656  0.3826  0.0110  0.0244
62843SOL     OW98458   4.736   0.869   7.603  0.0095 -0.7468 -0.3519
62843SOL    HW198459   4.774   0.953   7.578 -0.5039 -1.1278 -2.6303
62843SOL    HW298460   4.811   0.808   7.602  0.0882 -0.6492 -0.4104
62844SOL     OW98461   8.706   3.366   5.688 -0.0432 -0.3374  0.7918
62844SOL    HW198462   8.634   3.428   5.696  0.8893  0.5904  2.7501
62844SOL    HW298463   8.774   3.401   5.745  1.6130 -1.6801 -0.2685
62845SOL     OW98464   2.841  10.776   2.599  0.1763 -0.5056 -0.1318
62845SOL    HW198465   2.807  10.796   2.512  0.4216 -1.4140 -0.4537
62845SOL    HW298466   2.776  10.718   2.637 -0.8122  1.2569  1.0030
62846SOL     OW98467   3.242   4.193  13.056  0.7331  0.2608 -0.1221
62846SOL    HW198468   3.188   4.267  13.083 -0.9571 -0.6428 -0.8666
62846SOL    HW298469   3.187   4.116  13.073  2.6746 -0.9081  1.2221
62847SOL     OW98470   4.350   9.180   7.930 -0.8513 -0.4120 -0.1238
62847SOL    HW198471   4.282   9.219   7.876  0.9523 -0.2725 -2.4502
62847SOL    HW298472   4.426   9.236   7.917  0.2289 -1.5614  0.9598
62848SOL     OW98473   3.055   5.552  11.969 -0.1521 -0.4986 -0.4970
62848SOL    HW198474   3.095   5.466  11.986  0.6971 -0.1238 -0.5204
62848SOL    HW298475   3.009   5.574  12.050  0.8866 -0.3161  0.0616
62849SOL     OW98476   5.532   3.497   0.235 -0.3883  0.2704  0.0260
62849SOL    HW198477   5.484   3.436   0.292 -1.1179  0.8538  0.0513
62849SOL    HW298478   5.598   3.443   0.193 -1.7018 -0.7780 -0.7500
62850SOL     OW98479   5.463   9.466   1.495 -0.0431 -0.1136 -1.0920
62850SOL    HW198480   5.424   9.464   1.408 -0.7079  0.8889 -0.8389
62850SOL    HW298481   5.447   9.555   1.527  2.6036  0.4314 -1.0216
62851SOL     OW98482  11.071  11.590   4.811  0.1043  0.2254 -0.5368
62851SOL    HW198483  11.048  11.542   4.732 -0.2412 -0.3435 -0.1007
62851SOL    HW298484  11.039  11.535   4.883  0.7044  0.5714  0.0097
62852SOL     OW98485   4.744  10.446   1.516  0.3776 -0.4474  0.2231
62852SOL    HW198486   4.833  10.481   1.525  1.2420 -2.5441  0.4854
62852SOL    HW298487   4.726  10.451   1.422 -0.0145  1.6935  0.3667
62853SOL     OW98488   0.062  12.281   7.339 -0.7404  0.1864  0.5803
62853SOL    HW198489  -0.013  12.252   7.287 -0.5961 -0.9067  0.9647
62853SOL    HW298490   0.138  12.265   7.283 -0.2605 -3.6781  2.0175
62854SOL     OW98491   2.014   7.474   6.171 -0.8556 -0.1781 -0.8106
62854SOL    HW198492   1.994   7.507   6.083 -0.7041 -1.1654 -1.2218
62854SOL    HW298493   2.063   7.393   6.156 -0.5381 -0.1792  0.1876
62855SOL     OW98494   1.534  12.231  12.071  0.1969 -0.1135  0.5280
62855SOL    HW198495   1.559  12.278  12.151 -0.7741  0.9718  0.2151
62855SOL    HW298496   1.439  12.226  12.075  0.1652 -0.3673 -0.3933
62856SOL     OW98497   8.052   0.369   9.716 -0.0885  0.5240  0.4096
62856SOL    HW198498   8.000   0.428   9.662  1.2971  1.5928  0.1645
62856SOL    HW298499   8.125   0.344   9.659  0.4976  0.3291  1.2317
62857SOL     OW98500   2.251  12.691  11.630  0.0971  0.1225  0.1661
62857SOL    HW198501   2.298  12.765  11.593 -0.6035 -0.3857 -1.8522
62857SOL    HW298502   2.169  12.728  11.664 -0.2940  0.2910 -0.9213
62858SOL     OW98503  12.309   3.128   3.938 -0.4079  0.3550  0.0855
62858SOL    HW198504  12.249   3.071   3.987  0.3129 -1.2694 -0.8290
62858SOL    HW298505  12.252   3.195   3.900 -1.2544  0.4101  1.3757
62859SOL     OW98506  12.158  11.476   3.140 -0.1343  0.2977 -0.4462
62859SOL    HW198507  12.152  11.434   3.226 -0.8664 -0.2683 -0.7622
62859SOL    HW298508  12.237  11.439   3.101 -1.4622 -1.9091 -1.2668
62860SOL     OW98509   0.715   5.516   3.390  0.3953  0.0298 -0.0530
62860SOL    HW198510   0.799   5.487   3.425  0.7478 -0.0337 -0.9297
62860SOL    HW298511   0.713   5.483   3.300 -0.2955  0.5656 -0.2486
62861SOL     OW98512   0.885   1.320   5.786 -0.1361  0.0818  0.4585
62861SOL    HW198513   0.904   1.283   5.700 -1.4236  0.2856  0.0523
62861SOL    HW298514   0.938   1.399   5.792 -0.3472  0.2842 -0.3289
62862SOL     OW98515   5.553   5.188  10.371  0.2068  0.3377  0.2000
62862SOL    HW198516   5.516   5.105  10.400  0.9603 -0.4622 -1.0311
62862SOL    HW298517   5.478   5.237  10.338 -0.0622 -0.4363 -0.3734
62863SOL     OW98518   5.213   0.900   5.042 -0.2149  0.1810  0.2154
62863SOL    HW198519   5.250   0.837   4.980  0.0613 -0.5895  1.1406
62863SOL    HW298520   5.135   0.934   4.999  0.8928  0.9246 -1.2659
62864SOL     OW98521   0.641  10.296   6.710 -0.4515  0.2017  0.2270
62864SOL    HW198522   0.650  10.294   6.615 -1.0286  0.1528  0.1737
62864SOL    HW298523   0.730  10.315   6.741 -0.6390  2.3368 -0.3959
62865SOL     OW98524  12.836   6.519   6.809  0.1061  0.3054  0.0285
62865SOL    HW198525  12.827   6.455   6.880 -1.7371  1.2614  0.7283
62865SOL    HW298526  12.764   6.500   6.750 -0.0587  1.3031 -0.1072
62866SOL     OW98527   2.493  10.973  12.031  0.0961 -0.4344  0.2020
62866SOL    HW198528   2.453  11.058  12.014 -0.4949 -1.1623 -2.6306
62866SOL    HW298529   2.469  10.952  12.121 -0.0864  2.1663  0.8288
62867SOL     OW98530   2.377   4.311  12.294  0.3550  0.3465  0.2591
62867SOL    HW198531   2.429   4.388  12.272  0.4334  0.0793 -0.5333
62867SOL    HW298532   2.298   4.346  12.334  0.1053  0.8810 -0.6696
62868SOL     OW98533  11.683  12.834   4.421 -0.5451 -0.0585 -0.9243
62868SOL    HW198534  11.713  12.909   4.471 -0.9254  0.3896 -1.3608
62868SOL    HW298535  11.735  12.835   4.341 -0.7990 -0.0482 -1.0926
62869SOL     OW98536   3.207   7.895  10.092  0.4056 -0.5534 -0.3388
62869SOL    HW198537   3.271   7.908  10.163  0.5493 -3.5093  0.2049
62869SOL    HW298538   3.122   7.909  10.134  0.5009  2.8840 -0.9457
62870SOL     OW98539  12.106   7.276   0.727 -0.2004 -0.3237  0.2040
62870SOL    HW198540  12.055   7.331   0.667  1.8232  2.1349  0.5620
62870SOL    HW298541  12.197   7.290   0.700  0.6319 -0.6539  2.6150
62871SOL     OW98542   1.196   8.158   8.943  0.2417 -0.0881  0.3938
62871SOL    HW198543   1.149   8.127   9.020 -0.0212 -0.8827 -0.0821
62871SOL    HW298544   1.182   8.090   8.877  0.7710  0.4079 -0.2397
62872SOL     OW98545   0.695  10.994   3.197  0.1152 -0.0524 -0.1496
62872SOL    HW198546   0.650  10.992   3.112 -0.7967  0.8232  0.2888
62872SOL    HW298547   0.629  10.964   3.259  1.2849 -2.3144  0.0741
62873SOL     OW98548  11.377   2.102  10.888  0.3601 -0.4890  0.3071
62873SOL    HW198549  11.331   2.147  10.817 -1.7915 -1.3529  1.0866
62873SOL    HW298550  11.441   2.167  10.919 -0.4730  0.8588 -0.6488
62874SOL     OW98551   1.374  10.060   2.785 -0.1844 -0.1522  0.9175
62874SOL    HW198552   1.281  10.054   2.761  0.0835 -0.2015 -0.1794
62874SOL    HW298553   1.420  10.052   2.702  0.7617  1.4231  1.2571
62875SOL     OW98554   1.373  10.070   3.929  0.0582  0.1122  0.1848
62875SOL    HW198555   1.371  10.130   4.004  0.6636  1.4240 -0.7948
62875SOL    HW298556   1.333   9.989   3.961  0.7216  0.4753  2.0399
62876SOL     OW98557  11.304   3.149   0.787  0.0804 -0.2389 -0.4485
62876SOL    HW198558  11.283   3.216   0.722  1.3809  0.0099 -0.6388
62876SOL    HW298559  11.261   3.070   0.756  2.4925 -0.7370 -2.9032
62877SOL     OW98560   9.718  12.981   0.716 -0.0589 -0.1546 -0.8954
62877SOL    HW198561   9.663  13.057   0.734 -0.6757 -0.3612 -1.8163
62877SOL    HW298562   9.681  12.912   0.771  0.1240  0.0431 -0.5159
62878SOL     OW98563  10.537   4.427   6.881 -0.3569 -0.4699 -0.0454
62878SOL    HW198564  10.478   4.477   6.937 -0.9298 -0.6560 -0.4664
62878SOL    HW298565  10.590   4.376   6.942  0.6682  1.0869  0.4239
62879SOL     OW98566   9.216   4.877  11.076 -0.3505  0.4728 -0.1629
62879SOL    HW198567   9.251   4.894  10.989 -0.0167  1.1356  0.0982
62879SOL    HW298568   9.189   4.785  11.073  1.2916 -0.0272 -0.4065
62880SOL     OW98569   8.660  11.970  11.115  0.2129  0.1238 -0.0444
62880SOL    HW198570   8.652  11.884  11.073  2.2858  0.1018 -0.5052
62880SOL    HW298571   8.754  11.987  11.118 -0.1654  2.7514 -0.6762
62881SOL     OW98572   5.261   0.927   6.912  0.2289 -0.1546 -0.2546
62881SOL    HW198573   5.168   0.944   6.898  0.2228 -0.8115 -1.1134
62881SOL    HW298574   5.298   1.011   6.937 -0.3591  0.4172 -1.2391
62882SOL     OW98575   7.710   9.795   0.534 -0.0348 -0.1068 -0.0206
62882SOL    HW198576   7.640   9.837   0.585  1.0041  1.2485  0.3468
62882SOL    HW298577   7.789   9.842   0.559  1.5302 -3.2565  1.5927
62883SOL     OW98578   8.597  12.207   1.091  0.1443  0.4384 -0.0886
62883SOL    HW198579   8.575  12.115   1.106  0.3159  0.5789  1.1750
62883SOL    HW298580   8.624  12.211   0.999 -2.2391 -0.2763 -0.8676
62884SOL     OW98581   4.706   5.828  11.425 -0.5960  0.0984  0.0505
62884SOL    HW198582   4.677   5.824  11.334 -1.2139  1.6222  0.1500
62884SOL    HW298583   4.799   5.804  11.421  0.6358  4.1932 -1.6835
62885SOL     OW98584   0.759   0.072   0.941 -0.2833 -0.3595 -0.3221
62885SOL    HW198585   0.828   0.082   0.875  0.3796 -0.8013  0.2847
62885SOL    HW298586   0.785   0.130   1.012 -1.7911  1.2744 -1.0476
62886SOL     OW98587   1.375   6.348  11.184 -0.7175 -0.3472 -0.5595
62886SOL    HW198588   1.438   6.278  11.172  0.3492  0.5484 -0.3261
62886SOL    HW298589   1.342   6.366  11.096  1.5930  1.1748 -1.2040
62887SOL     OW98590   3.623   2.129   2.886  0.3526  0.6203  0.0978
62887SOL    HW198591   3.603   2.165   2.800 -0.9232 -0.0549  0.0807
62887SOL    HW298592   3.547   2.151   2.939 -0.0989 -1.2836  0.3013
62888SOL     OW98593   3.844  11.700   5.224 -0.7485 -0.0893  0.7115
62888SOL    HW198594   3.803  11.748   5.152  2.7185  0.1234 -1.3136
62888SOL    HW298595   3.855  11.611   5.190  0.5414 -0.1028  1.1376
62889SOL     OW98596   5.826   3.932   2.810  0.5597 -0.3566  0.5499
62889SOL    HW198597   5.804   3.955   2.901 -0.4277 -1.0058  0.4899
62889SOL    HW298598   5.915   3.965   2.798  0.2777  0.8030  1.3844
62890SOL     OW98599  12.765  11.842  10.062 -0.4291  0.3400  0.3148
62890SOL    HW198600  12.837  11.788  10.029  0.1198  0.6002  1.0622
62890SOL    HW298601  12.741  11.802  10.146 -1.8946 -0.3871 -0.3964
62891SOL     OW98602   7.216   5.988  10.738  0.1254 -0.4895  0.4169
62891SOL    HW198603   7.171   5.918  10.690 -1.0295  0.7813 -0.4293
62891SOL    HW298604   7.294   6.006  10.686  0.0124 -0.6136  0.2024
62892SOL     OW98605  10.473   4.745   6.992  0.0119 -0.5647  0.5045
62892SOL    HW198606  10.421   4.738   7.073 -1.8965 -0.7710 -0.6852
62892SOL    HW298607  10.526   4.824   7.004 -0.9538 -0.0570  1.5640
62893SOL     OW98608   4.353   8.693   3.846  0.1693 -0.1326 -0.5651
62893SOL    HW198609   4.332   8.786   3.836 -0.7884 -0.3118 -0.2812
62893SOL    HW298610   4.398   8.670   3.764 -0.6640  0.2893 -1.1554
62894SOL     OW98611   5.377   2.796   9.236  0.4180 -0.3503  0.2591
62894SOL    HW198612   5.410   2.869   9.289  2.8092 -0.7915 -0.4629
62894SOL    HW298613   5.327   2.743   9.297 -0.2305  1.1649  1.1125
62895SOL     OW98614  12.478   5.902   9.468  0.3686 -0.1970  0.0823
62895SOL    HW198615  12.392   5.900   9.511  0.7115 -2.4934  0.8173
62895SOL    HW298616  12.461   5.937   9.381 -1.0437  0.8197  0.7316
62896SOL     OW98617   9.449   4.168   2.556  0.2928  0.1544  0.3571
62896SOL    HW198618   9.425   4.089   2.506  0.7915 -0.2822  0.7883
62896SOL    HW298619   9.386   4.171   2.627 -1.3131  1.5697 -1.0553
62897SOL     OW98620   6.545   3.378   1.114  0.3421 -0.5477  0.1469
62897SOL    HW198621   6.529   3.411   1.025 -1.1720  1.5565  1.1200
62897SOL    HW298622   6.479   3.310   1.127  0.0519 -0.3106 -0.0764
62898SOL     OW98623  11.105   9.231   3.188  0.1892 -0.1623  0.7410
62898SOL    HW198624  11.052   9.296   3.235 -2.6821 -3.1082  1.9198
62898SOL    HW298625  11.048   9.198   3.119  1.7481 -1.1466 -0.1442
62899SOL     OW98626  12.170   5.178   4.942  0.2581  0.4154 -0.1997
62899SOL    HW198627  12.164   5.193   4.848  2.2362  0.2039 -0.4093
62899SOL    HW298628  12.202   5.261   4.978  1.1306 -0.0214  0.0490
62900SOL     OW98629   5.561  12.017   9.116  0.3690  0.2142  0.1801
62900SOL    HW198630   5.614  12.094   9.096  1.2579 -0.4533 -0.0810
62900SOL    HW298631   5.622  11.956   9.157  0.1871 -1.1487 -1.4488
62901SOL     OW98632   4.877  10.890  11.321  0.4472 -0.4677  1.1938
62901SOL    HW198633   4.940  10.894  11.249 -0.2678  1.9736  0.5814
62901SOL    HW298634   4.810  10.828  11.291  1.3644 -1.3080  0.8377
62902SOL     OW98635   1.053   9.897  12.908 -0.4086 -0.4037 -0.2177
62902SOL    HW198636   1.123   9.961  12.897 -2.4725  2.0027 -0.1184
62902SOL    HW298637   1.054   9.875  13.001  0.7616 -1.1677 -0.3764
62903SOL     OW98638   3.352   7.544  12.012 -0.6691 -0.2232  0.6835
62903SOL    HW198639   3.264   7.573  11.989 -0.2181 -0.5951 -1.7503
62903SOL    HW298640   3.374   7.479  11.945  1.2872 -0.4828  1.5221
62904SOL     OW98641  13.252   4.845   5.483 -0.4462 -0.1129 -0.4100
62904SOL    HW198642  13.209   4.908   5.425  1.4110  0.2636 -1.4608
62904SOL    HW298643  13.284   4.897   5.556 -1.0191 -0.2609 -0.0452
62905SOL     OW98644   7.693   0.447   0.958  0.2088  0.3307  0.5686
62905SOL    HW198645   7.613   0.496   0.977 -0.8468 -1.6511  1.5201
62905SOL    HW298646   7.662   0.358   0.936  2.0229  0.0375 -1.1198
62906SOL     OW98647  11.669  11.091  11.927  0.6403 -0.0462  0.7815
62906SOL    HW198648  11.715  11.164  11.969  1.6873  0.1398 -0.6243
62906SOL    HW298649  11.576  11.110  11.941  0.8691  1.8403  0.0217
62907SOL     OW98650   1.663   4.249   3.095 -0.0574  0.0834  0.2723
62907SOL    HW198651   1.666   4.248   3.191  1.7315 -1.2523  0.2358
62907SOL    HW298652   1.754   4.247   3.068 -0.5065 -2.8045 -1.4405
62908SOL     OW98653  11.818   5.806   0.859  0.2912 -0.2417 -0.7733
62908SOL    HW198654  11.903   5.836   0.828  0.7610 -1.0386 -0.2948
62908SOL    HW298655  11.775   5.771   0.781  0.0536  0.9277 -1.1771
62909SOL     OW98656   7.050   9.535  10.960 -0.4179 -0.1792  0.2308
62909SOL    HW198657   7.113   9.465  10.943 -0.6500 -0.2076 -0.5364
62909SOL    HW298658   7.001   9.505  11.036  1.3881  0.4570  1.7148
62910SOL     OW98659   3.822   1.316   7.275 -0.3331  0.3728  0.4746
62910SOL    HW198660   3.850   1.362   7.354 -0.0019  0.5208  0.2723
62910SOL    HW298661   3.771   1.242   7.308  1.5967 -0.8241  0.9450
62911SOL     OW98662   5.412  10.802   6.799  0.0384  0.1883  0.6824
62911SOL    HW198663   5.329  10.794   6.845 -0.7136 -1.4778 -0.8549
62911SOL    HW298664   5.461  10.724   6.825 -0.5379 -0.9768 -1.4857
62912SOL     OW98665   4.477   7.082   9.862  0.4414 -0.0376  0.2142
62912SOL    HW198666   4.425   7.071   9.782  3.3436  0.0082 -1.8356
62912SOL    HW298667   4.462   7.173   9.888 -0.0271  0.1489 -0.6763
62913SOL     OW98668   1.514   8.541  11.318 -0.2559 -0.1915 -0.8763
62913SOL    HW198669   1.478   8.524  11.405  2.1449 -0.4785  0.1176
62913SOL    HW298670   1.475   8.472  11.263 -3.2716  1.0963 -0.5566
62914SOL     OW98671   1.467   4.760   5.294 -0.2315  0.3035  0.2290
62914SOL    HW198672   1.529   4.768   5.367 -0.1153 -0.9666  0.3029
62914SOL    HW298673   1.477   4.669   5.265 -4.1870 -1.0234  2.2480
62915SOL     OW98674   5.233   0.797   2.169 -0.3699  0.3482  0.0328
62915SOL    HW198675   5.249   0.839   2.254 -1.1788  0.2583  0.2395
62915SOL    HW298676   5.242   0.704   2.186 -2.7823  0.1513  0.5837
62916SOL     OW98677   6.549   7.535   5.832  0.2722  0.3023  0.5237
62916SOL    HW198678   6.570   7.609   5.776  2.8314 -0.6453  0.0925
62916SOL    HW298679   6.569   7.566   5.921 -1.2642  0.9567  0.6637
62917SOL     OW98680   9.401  12.840   4.320  0.1522 -0.1247 -0.1485
62917SOL    HW198681   9.486  12.882   4.331  0.5256 -0.9562  0.1658
62917SOL    HW298682   9.362  12.841   4.407 -1.6008  3.1952 -0.7949
62918SOL     OW98683   3.820   8.717   5.945  0.2806  0.1743  0.3810
62918SOL    HW198684   3.732   8.694   5.974 -0.1694  2.8111  1.4014
62918SOL    HW298685   3.807   8.754   5.858  0.6109 -0.7490 -0.0751
62919SOL     OW98686   1.008   3.622   8.187  0.2592  0.1017 -0.1623
62919SOL    HW198687   1.095   3.644   8.153  0.3829  0.3291  0.2894
62919SOL    HW298688   0.949   3.683   8.143  0.2547 -0.4101 -0.8735
62920SOL     OW98689  12.721   8.257  11.441  0.0057 -0.0866 -0.1928
62920SOL    HW198690  12.809   8.295  11.436  1.2572 -2.6727  0.2068
62920SOL    HW298691  12.724   8.184  11.379 -2.1831  0.2675 -0.7876
62921SOL     OW98692   5.133   9.831  10.184 -0.2215  0.5746 -0.4128
62921SOL    HW198693   5.218   9.862  10.215  1.0270 -3.0159  0.2517
62921SOL    HW298694   5.137   9.844  10.089  0.3926  1.8551 -0.2393
62922SOL     OW98695   4.862   7.361  11.458  0.4922 -0.4767  0.2802
62922SOL    HW198696   4.913   7.442  11.458 -1.3600  0.7491  0.1971
62922SOL    HW298697   4.865   7.330  11.548 -0.2214  0.6668  0.7158
62923SOL     OW98698   1.354   1.530   6.074 -0.2841  0.2193  0.8476
62923SOL    HW198699   1.375   1.437   6.075  0.4348  0.3269 -0.9740
62923SOL    HW298700   1.399   1.566   6.151  1.7303 -0.4782  0.0352
62924SOL     OW98701   9.847   4.795   1.034  0.9480 -0.0090 -0.3016
62924SOL    HW198702   9.920   4.773   0.976  1.3445 -1.3240  0.6364
62924SOL    HW298703   9.847   4.725   1.100 -0.2017  0.8052  0.6108
62925SOL     OW98704   8.372   0.279   1.831 -0.1472  0.9660 -0.5556
62925SOL    HW198705   8.398   0.307   1.919 -0.7262  0.1104 -0.0885
62925SOL    HW298706   8.417   0.195   1.819 -2.1619 -0.2837  0.0633
62926SOL     OW98707  12.631   4.457   8.071 -0.1202 -0.1736 -0.4701
62926SOL    HW198708  12.551   4.482   8.116  0.7889 -1.9490  2.4249
62926SOL    HW298709  12.678   4.539   8.058 -1.5770  0.6752 -0.5485
62927SOL     OW98710   7.681  12.512   7.032 -0.0141 -0.1669 -0.5223
62927SOL    HW198711   7.673  12.531   6.938 -2.5985 -0.9696 -0.5338
62927SOL    HW298712   7.711  12.421   7.036  1.0790  0.1792 -0.5328
62928SOL     OW98713   6.156  10.846   0.903 -0.2624  0.2031  0.6171
62928SOL    HW198714   6.102  10.770   0.924  0.8657 -0.8550 -0.0965
62928SOL    HW298715   6.096  10.910   0.865 -1.1255 -0.6067  0.5996
62929SOL     OW98716   4.674   9.119   5.463  0.6194  0.6218  0.1716
62929SOL    HW198717   4.684   9.125   5.368 -2.2301 -2.0928 -0.4495
62929SOL    HW298718   4.715   9.036   5.487  0.0017  0.5601  1.0902
62930SOL     OW98719   1.504   3.764   8.457 -0.0897  0.1696  0.0094
62930SOL    HW198720   1.586   3.717   8.445  0.1814  1.1670 -2.8545
62930SOL    HW298721   1.530   3.848   8.497 -0.1154 -0.5059  1.5376
62931SOL     OW98722   1.337   2.832   9.540  0.2642  0.4231 -0.2807
62931SOL    HW198723   1.255   2.861   9.500 -0.3197  0.9136  1.1832
62931SOL    HW298724   1.401   2.837   9.470 -0.7649  0.9732 -1.2173
62932SOL     OW98725   4.759   7.921   9.293  0.0109 -0.0975 -0.3040
62932SOL    HW198726   4.746   7.873   9.375 -2.9443 -0.5128 -0.9157
62932SOL    HW298727   4.730   8.011   9.314  0.1643  0.0297 -0.6412
62933SOL     OW98728   6.308   9.815   2.208  0.2272 -0.5052  0.2044
62933SOL    HW198729   6.272   9.827   2.296 -1.7276 -0.2590 -0.5889
62933SOL    HW298730   6.280   9.893   2.160  0.9937 -0.7952 -0.7356
62934SOL     OW98731  10.345  11.447   2.579  0.0164 -0.5696 -0.4545
62934SOL    HW198732  10.274  11.485   2.528  0.3912  0.8328 -0.0061
62934SOL    HW298733  10.381  11.378   2.524 -1.6794 -1.2981 -0.6763
62935SOL     OW98734   1.321   5.229   2.336 -0.1913 -0.2645  0.3192
62935SOL    HW198735   1.401   5.195   2.295 -0.3882 -1.5269  0.9476
62935SOL    HW298736   1.266   5.152   2.349 -0.7679  0.3333  1.5579
62936SOL     OW98737   7.600  11.951   2.742  0.3785  0.4854  0.1387
62936SOL    HW198738   7.598  11.857   2.761  0.5013  0.6260  0.8850
62936SOL    HW298739   7.671  11.961   2.678  2.3101  0.4174  2.1690
62937SOL     OW98740   8.958   0.776   3.121  0.3107  0.0437  0.3531
62937SOL    HW198741   9.023   0.767   3.190 -0.7663 -0.6453  1.3193
62937SOL    HW298742   8.982   0.711   3.055  1.1536  0.4799  0.2217
62938SOL     OW98743   4.521  12.431   8.091  0.5557 -0.2893 -0.1537
62938SOL    HW198744   4.464  12.369   8.136  2.3600 -1.4341  0.6458
62938SOL    HW298745   4.543  12.496   8.158  0.2196  0.1658 -0.4705
62939SOL     OW98746   7.998   5.736   4.923 -0.1663  0.1154 -0.4444
62939SOL    HW198747   7.918   5.706   4.882 -0.2988 -0.1436 -0.0053
62939SOL    HW298748   8.031   5.806   4.866  1.3595 -2.3248 -2.7819
62940SOL     OW98749   5.971  12.600  12.865 -0.9124  0.0770  0.6417
62940SOL    HW198750   5.927  12.684  12.854 -0.8857 -0.1023 -1.2465
62940SOL    HW298751   6.062  12.619  12.841 -0.8492 -0.4106  0.4949
62941SOL     OW98752  10.676   7.644   8.868 -0.5204  0.3195  0.3954
62941SOL    HW198753  10.586   7.677   8.871 -0.4986  0.4143  0.1035
62941SOL    HW298754  10.669   7.560   8.823 -0.3186  0.8629 -0.6884
62942SOL     OW98755  12.554   4.429   8.506 -0.3281  0.3160 -0.3333
62942SOL    HW198756  12.591   4.494   8.565 -1.0223 -0.9397  1.5914
62942SOL    HW298757  12.468   4.462   8.483 -0.7272  0.0664  0.7366
62943SOL     OW98758   6.075   3.295   6.370  0.5662 -0.3443 -0.7868
62943SOL    HW198759   6.090   3.231   6.439  1.6401 -1.2147 -1.7808
62943SOL    HW298760   6.009   3.354   6.406  3.0444  0.9438  2.1261
62944SOL     OW98761   9.389   3.977   0.775  0.5251  0.3701 -0.0612
62944SOL    HW198762   9.368   3.887   0.751  2.2649  0.0113 -0.3623
62944SOL    HW298763   9.362   4.029   0.700  1.0192 -0.1095 -0.5778
62945SOL     OW98764   3.045   6.557   3.879 -0.3100 -0.0309 -0.6901
62945SOL    HW198765   3.078   6.645   3.863  2.0702 -0.6618  0.3682
62945SOL    HW298766   3.120   6.509   3.914 -1.3667 -2.6506 -1.7501
62946SOL     OW98767   5.457   0.934   1.738 -0.4256 -0.1451  0.0620
62946SOL    HW198768   5.406   0.922   1.658  0.2058  1.7144 -0.6695
62946SOL    HW298769   5.392   0.933   1.808 -1.1429 -0.4838 -0.5889
62947SOL     OW98770   2.571   4.835   5.592  1.0669  0.3508  0.0540
62947SOL    HW198771   2.637   4.776   5.628  0.6171  0.5322  1.1974
62947SOL    HW298772   2.489   4.787   5.599  0.7568  0.9617  0.6319
62948SOL     OW98773   6.206   3.011   1.340  0.4095  0.1712  0.6839
62948SOL    HW198774   6.244   2.970   1.262  0.8783  1.5437  0.1589
62948SOL    HW298775   6.206   2.941   1.406  1.0840 -0.6911 -0.1946
62949SOL     OW98776   4.765  10.056   2.595  0.3744 -0.0997  0.1043
62949SOL    HW198777   4.722  10.131   2.555  2.2481  0.9222 -0.0802
62949SOL    HW298778   4.857  10.066   2.573  1.0575 -1.0853  2.2106
62950SOL     OW98779   5.294   2.474   3.088  0.0787 -0.3539 -0.2810
62950SOL    HW198780   5.326   2.386   3.110  2.3561  0.6752  0.7846
62950SOL    HW298781   5.339   2.532   3.149 -0.5436  1.7043 -1.6844
62951SOL     OW98782  11.815   7.658   9.288 -0.2198  0.1314  0.0161
62951SOL    HW198783  11.892   7.651   9.344 -0.8245  0.6546  0.9358
62951SOL    HW298784  11.796   7.567   9.263 -0.3148 -0.1806  1.1827
62952SOL     OW98785   7.495  10.743   4.260  0.2119 -0.4404  0.3025
62952SOL    HW198786   7.553  10.743   4.184  1.0618  0.1162  0.9301
62952SOL    HW298787   7.457  10.655   4.261  0.8545 -0.7344 -0.2674
62953SOL     OW98788   7.068   5.019   2.329  0.2446 -0.2106 -0.0924
62953SOL    HW198789   7.135   5.034   2.263 -0.0388 -1.5710 -0.7139
62953SOL    HW298790   7.011   4.953   2.291 -1.3728  0.7914  0.4928
62954SOL     OW98791   2.250   1.131  10.429 -0.2952 -0.1907  0.1740
62954SOL    HW198792   2.241   1.131  10.524 -1.8766 -1.0680  0.0596
62954SOL    HW298793   2.340   1.157  10.413 -0.0043 -0.0494  1.9133
62955SOL     OW98794  11.181   9.720   7.412  0.0351 -0.3506  0.0028
62955SOL    HW198795  11.134   9.658   7.467  0.5284  0.1166  0.9699
62955SOL    HW298796  11.114   9.782   7.383 -0.3718 -1.0567 -0.5835
62956SOL     OW98797  13.229   4.556   5.538  0.1665 -0.1841  0.0960
62956SOL    HW198798  13.207   4.632   5.484  4.2596  1.0317 -0.2331
62956SOL    HW298799  13.286   4.502   5.482  0.1350 -1.7215  1.4483
62957SOL     OW98800  11.320   4.388   0.987  0.3922 -0.4755  0.1107
62957SOL    HW198801  11.371   4.308   1.002  0.9807 -0.2888 -0.8390
62957SOL    HW298802  11.289   4.412   1.074  1.7703 -0.7062  0.6957
62958SOL     OW98803   6.078   1.481   5.388 -0.5049 -0.3495 -0.1215
62958SOL    HW198804   5.992   1.455   5.356 -0.6477 -0.2801  0.2019
62958SOL    HW298805   6.081   1.576   5.375 -1.0056 -0.1582  1.1088
62959SOL     OW98806  12.077   1.654   1.179  0.5846  0.1701 -0.0743
62959SOL    HW198807  12.167   1.659   1.147  0.4791  1.4243 -0.1924
62959SOL    HW298808  12.083   1.594   1.254  1.3817 -0.3061 -0.4957
62960SOL     OW98809   9.244   2.995   4.652 -0.0561 -0.0076  0.1847
62960SOL    HW198810   9.336   2.985   4.629  0.1893 -0.2064  1.2058
62960SOL    HW298811   9.240   2.976   4.746 -1.5609 -2.8643 -0.3297
62961SOL     OW98812   5.274   8.418   8.970  0.1362  0.1525 -0.5553
62961SOL    HW198813   5.304   8.487   9.030  0.4291 -0.0024 -0.5241
62961SOL    HW298814   5.191   8.389   9.007  1.2566 -1.3661  0.9489
62962SOL     OW98815   7.920  11.220   6.645  0.4683  0.0979 -0.0607
62962SOL    HW198816   7.902  11.130   6.618  1.3855 -0.2537  0.4663
62962SOL    HW298817   7.985  11.251   6.582  1.8715 -0.3926  1.0950
62963SOL     OW98818   0.533   9.954   9.946 -0.1874 -0.4392  0.2964
62963SOL    HW198819   0.597  10.024   9.934  1.0927 -1.7943 -1.1872
62963SOL    HW298820   0.501   9.935   9.858 -0.7311 -1.5204  0.7049
62964SOL     OW98821   6.311   3.837   0.108 -0.1054  0.0575  0.2831
62964SOL    HW198822   6.297   3.744   0.090 -1.9282  0.0776  1.3768
62964SOL    HW298823   6.232   3.880   0.076  0.8530  1.3138 -0.5220
62965SOL     OW98824  11.657   9.436   4.549 -0.2759  0.8955 -0.3390
62965SOL    HW198825  11.648   9.451   4.643  0.7021  2.5606 -0.4794
62965SOL    HW298826  11.741   9.390   4.541 -1.0226 -0.5576 -0.3261
62966SOL     OW98827   3.349   3.747   7.930 -0.6857  0.5049 -0.5702
62966SOL    HW198828   3.399   3.828   7.924 -0.2107  0.6733  3.1669
62966SOL    HW298829   3.411   3.678   7.905 -0.4530  1.1066 -1.7104
62967SOL     OW98830   1.165   2.099   8.551  0.3527  0.3162  0.0575
62967SOL    HW198831   1.133   2.157   8.620  1.3040 -0.2606  1.0099
62967SOL    HW298832   1.260   2.100   8.560  0.4110 -1.3436  0.0962
62968SOL     OW98833   5.018  11.115   3.837  0.1661  0.0832  0.0111
62968SOL    HW198834   4.934  11.098   3.879  0.8273  0.5326  1.6156
62968SOL    HW298835   5.080  11.122   3.910  1.9228 -1.8394 -1.1693
62969SOL     OW98836  10.035   6.494   6.176 -0.1563  0.2290 -0.1152
62969SOL    HW198837  10.076   6.472   6.092 -1.0355  0.1027 -0.5225
62969SOL    HW298838   9.968   6.559   6.154 -1.6056 -1.0838  0.1951
62970SOL     OW98839   0.454   7.949   1.217  0.0027 -0.3257  0.3537
62970SOL    HW198840   0.462   7.887   1.290 -2.3570 -0.8365  0.2749
62970SOL    HW298841   0.511   8.022   1.240  0.5444 -1.2017  1.9086
62971SOL     OW98842   1.535  12.427  12.896 -0.3404  0.2793 -0.2530
62971SOL    HW198843   1.453  12.386  12.870 -1.1745  0.0512  2.4820
62971SOL    HW298844   1.515  12.521  12.899  0.0846  0.4264 -1.4256
62972SOL     OW98845   7.023   6.402   7.517 -0.0588 -0.1053  0.1470
62972SOL    HW198846   7.011   6.470   7.452  0.2943 -1.2620 -1.1884
62972SOL    HW298847   6.938   6.392   7.559 -0.1048  1.1340  0.3649
62973SOL     OW98848   4.369  12.250  11.592 -0.3689  0.2579  0.6521
62973SOL    HW198849   4.344  12.202  11.513 -0.8325  0.0195  0.9339
62973SOL    HW298850   4.449  12.296  11.568  0.1484 -0.7372  0.3937
62974SOL     OW98851   0.316  11.024   7.785 -0.6376 -0.0373 -0.0575
62974SOL    HW198852   0.226  11.050   7.806 -0.9909 -0.2207 -1.2848
62974SOL    HW298853   0.318  11.018   7.690  0.5871 -0.3874 -0.0285
62975SOL     OW98854   7.220   7.050  10.727 -0.2591  0.4926 -0.1113
62975SOL    HW198855   7.126   7.068  10.730 -0.6262 -1.2270 -0.4471
62975SOL    HW298856   7.250   7.058  10.818 -1.2313 -1.3365  0.4054
62976SOL     OW98857   2.459   8.598   2.996  0.0684 -0.1472 -0.0975
62976SOL    HW198858   2.430   8.673   2.945 -0.8856  1.1256  2.1590
62976SOL    HW298859   2.550   8.618   3.019  0.2895 -0.4166 -0.7056
62977SOL     OW98860   7.318   7.504   6.752  0.1192  0.1404 -0.0891
62977SOL    HW198861   7.243   7.449   6.735 -0.5474  0.6727  1.0351
62977SOL    HW298862   7.340   7.542   6.666 -1.4102  0.6317 -0.2815
62978SOL     OW98863   3.377   5.944  12.361  0.5421 -0.9751 -0.1045
62978SOL    HW198864   3.418   5.968  12.278 -0.8067 -0.4205 -0.6373
62978SOL    HW298865   3.446   5.896  12.409  1.9708  0.3943 -0.7096
62979SOL     OW98866  10.515   8.982  12.568 -0.1831  0.5924 -0.2232
62979SOL    HW198867  10.449   9.046  12.539 -1.1504  0.6320  1.8557
62979SOL    HW298868  10.486   8.899  12.531 -2.0582  0.4206  1.4393
62980SOL     OW98869   4.906   9.813   1.913 -0.5348 -0.6064  0.1037
62980SOL    HW198870   4.844   9.742   1.895 -0.2853 -0.9286  0.4877
62980SOL    HW298871   4.851   9.885   1.944 -0.7638 -0.7228 -0.0267
62981SOL     OW98872   6.502   4.834   1.653  0.0817  0.0573  0.4841
62981SOL    HW198873   6.519   4.915   1.702 -1.2384  0.1478  0.8342
62981SOL    HW298874   6.575   4.776   1.675 -0.3055  0.2183  2.2910
62982SOL     OW98875  10.159  10.041   5.011  0.4488  0.1673  0.1097
62982SOL    HW198876  10.195   9.986   4.941 -0.0463  0.2828 -0.2374
62982SOL    HW298877  10.222  10.113   5.019  0.0491  0.6389 -0.8430
62983SOL     OW98878   6.281   8.243   9.708  0.2279  0.0314 -0.1334
62983SOL    HW198879   6.189   8.231   9.732  0.6672 -1.0848  1.1634
62983SOL    HW298880   6.279   8.268   9.616 -1.3838  0.2614 -0.0658
62984SOL     OW98881   8.156  12.765   9.413  0.0458  0.6599  0.3742
62984SOL    HW198882   8.087  12.719   9.460  0.0436  0.4630  0.1785
62984SOL    HW298883   8.189  12.829   9.476  0.9226 -0.4666  1.0971
62985SOL     OW98884   7.772  12.785   2.166  0.3068  0.2073  0.0941
62985SOL    HW198885   7.700  12.847   2.162 -0.8265 -0.6661  3.4165
62985SOL    HW298886   7.850  12.837   2.147 -1.0666  1.0453 -4.3235
62986SOL     OW98887   6.019   5.343   9.196  0.2088 -0.1112 -0.3957
62986SOL    HW198888   5.992   5.278   9.261 -1.8337  3.2350  2.4184
62986SOL    HW298889   6.091   5.391   9.237 -2.2107  3.1680  0.4376
62987SOL     OW98890   0.552   2.396   2.741 -0.2554 -0.4235  0.2702
62987SOL    HW198891   0.476   2.454   2.746  0.7875  1.1492 -1.3332
62987SOL    HW298892   0.614   2.432   2.804  0.2187 -0.0552 -0.3998
62988SOL     OW98893   3.153   3.313   3.202 -0.7048 -0.1760 -0.0035
62988SOL    HW198894   3.140   3.218   3.197  0.4370 -0.3302 -0.2169
62988SOL    HW298895   3.247   3.325   3.191 -0.9645  1.0685 -1.0142
62989SOL     OW98896  10.584  11.670  13.045  0.4942 -0.0697 -0.3526
62989SOL    HW198897  10.574  11.647  12.952  0.0720  0.8415 -0.5400
62989SOL    HW298898  10.644  11.604  13.079  1.2184 -0.0146 -1.4435
62990SOL     OW98899   5.597   9.390   4.051  0.8216 -0.9440  0.8282
62990SOL    HW198900   5.559   9.361   3.968  1.0926 -1.5373  0.9017
62990SOL    HW298901   5.528   9.373   4.116 -0.2489  1.5485  0.4641
62991SOL     OW98902   5.038   2.277   8.143 -0.2627  0.3868 -0.3637
62991SOL    HW198903   5.048   2.367   8.110 -1.2966  2.0027  3.1606
62991SOL    HW298904   5.121   2.258   8.187 -1.0047  0.8834  1.3642
62992SOL     OW98905   1.071   6.489  12.838  0.1062  0.2220 -0.0518
62992SOL    HW198906   1.035   6.573  12.809  0.1111  0.1252 -0.3413
62992SOL    HW298907   1.147   6.474  12.781  0.1237  0.0351  0.0184
62993SOL     OW98908   8.171   1.010   1.045  0.0468  0.5488  0.3711
62993SOL    HW198909   8.160   1.056   1.128 -0.5313  0.3618  0.4048
62993SOL    HW298910   8.200   0.923   1.069  0.4819  0.6869  0.3441
62994SOL     OW98911   0.557  10.926  11.117  0.1312  0.3822  0.0612
62994SOL    HW198912   0.495  10.993  11.088  0.8875  1.6171  1.1740
62994SOL    HW298913   0.626  10.975  11.162  1.1463 -1.0847  0.1777
62995SOL     OW98914  10.425  10.107   1.461 -0.1042  0.6842 -0.2467
62995SOL    HW198915  10.390  10.028   1.501  0.2834 -0.7420 -2.5544
62995SOL    HW298916  10.347  10.154   1.430 -0.2681  0.2008 -0.5941
62996SOL     OW98917   6.140   8.999   0.525  0.5682 -0.2835 -0.4729
62996SOL    HW198918   6.208   9.009   0.458  0.1315  1.4158 -0.7127
62996SOL    HW298919   6.129   9.087   0.560  0.0269 -0.9549  1.1042
62997SOL     OW98920   2.100   3.051   2.380  0.6268 -0.4448 -0.5719
62997SOL    HW198921   2.043   3.052   2.457  3.2129  0.8958  1.4607
62997SOL    HW298922   2.113   2.959   2.361  1.1027 -0.8524  1.5430
62998SOL     OW98923   8.524  10.511   8.463 -0.3722 -0.7110 -0.8577
62998SOL    HW198924   8.585  10.472   8.401  0.4974 -0.7932  0.0307
62998SOL    HW298925   8.439  10.506   8.420  0.1945 -0.9034 -1.9676
62999SOL     OW98926   6.404   1.533   3.785 -0.2129  0.4580 -0.3134
62999SOL    HW198927   6.369   1.584   3.712  0.2236  2.1881  0.6242
62999SOL    HW298928   6.391   1.589   3.862  0.7968 -0.6238  0.6898
63000SOL     OW98929   0.074  13.080   0.880  0.1010 -0.2082 -0.2539
63000SOL    HW198930   0.089  13.163   0.925  1.4509 -0.1242 -0.8004
63000SOL    HW298931   0.123  13.016   0.932 -0.7935 -0.6498  0.0681
63001SOL     OW98932   6.148   0.956   1.985  0.4008  0.0113 -0.3764
63001SOL    HW198933   6.191   0.957   2.071 -0.2002 -1.1692 -0.0395
63001SOL    HW298934   6.186   1.030   1.938  0.0715  1.2720  1.2416
63002SOL     OW98935   4.407   4.276   2.625  0.2117  0.2146 -0.2755
63002SOL    HW198936   4.447   4.361   2.644  1.3892 -0.1735 -0.9228
63002SOL    HW298937   4.387   4.279   2.531 -1.9147  0.6336  0.1394
63003SOL     OW98938   7.052   9.570   5.254  0.2974 -0.2296 -0.2889
63003SOL    HW198939   7.050   9.648   5.199 -1.1349  0.4011  0.5984
63003SOL    HW298940   7.079   9.500   5.194  0.4352  0.7157 -1.3816
63004SOL     OW98941   3.150   2.031   5.643 -0.0256  0.2771 -0.0055
63004SOL    HW198942   3.204   2.069   5.712  0.6093 -1.2533  0.3552
63004SOL    HW298943   3.081   1.984   5.690  0.6642 -1.1453 -0.3775
63005SOL     OW98944   0.365   1.713   1.952  0.0989  0.3456  0.3722
63005SOL    HW198945   0.460   1.722   1.961  0.4210 -2.8680  1.5246
63005SOL    HW298946   0.330   1.792   1.994  2.2259  1.4688  0.1905
63006SOL     OW98947   8.020   7.632   1.817 -0.9700  0.2465  0.5217
63006SOL    HW198948   8.023   7.542   1.784  0.0778  0.7658 -0.9164
63006SOL    HW298949   7.943   7.670   1.776 -0.5438  0.4411 -0.1081
63007SOL     OW98950   3.153   0.475  10.796  0.0662  0.5009  0.4402
63007SOL    HW198951   3.081   0.535  10.779 -0.6804 -0.0260  1.6234
63007SOL    HW298952   3.164   0.476  10.891  0.7223 -0.4409  0.3941
63008SOL     OW98953   7.569   2.791  12.754 -0.2996  0.7345  0.4129
63008SOL    HW198954   7.540   2.863  12.698  0.8847  0.8914 -0.0277
63008SOL    HW298955   7.654   2.764  12.717 -0.2755 -0.2573  1.1419
63009SOL     OW98956   7.560   0.409   5.288  0.0501 -0.3569  0.2497
63009SOL    HW198957   7.513   0.331   5.317 -0.2652 -0.3338 -0.1815
63009SOL    HW298958   7.492   0.463   5.246  0.4973 -0.4165 -0.5591
63010SOL     OW98959   2.984   3.729   0.267 -0.3906 -0.5647  0.4096
63010SOL    HW198960   2.987   3.751   0.360  0.2064  2.8699 -0.3059
63010SOL    HW298961   2.900   3.761   0.237 -0.0603 -0.5026 -0.4877
63011SOL     OW98962  11.033   0.610  12.221  0.1253  0.1621  0.0887
63011SOL    HW198963  11.090   0.584  12.293  0.4464 -0.0949 -0.2507
63011SOL    HW298964  11.086   0.672  12.170 -0.7621  1.8057  1.0902
63012SOL     OW98965   2.188   4.125   7.068  0.2569 -0.4665 -0.3538
63012SOL    HW198966   2.200   4.031   7.061 -1.1354 -0.6803 -0.2817
63012SOL    HW298967   2.108   4.143   7.018 -1.0397  0.2559  1.8145
63013SOL     OW98968   7.696   1.759  12.427 -0.3859 -0.6149 -0.4146
63013SOL    HW198969   7.627   1.807  12.382 -1.6077 -0.1022  1.8194
63013SOL    HW298970   7.727   1.820  12.495  1.4165 -1.2877 -0.5654
63014SOL     OW98971   4.394   0.830   9.703 -0.1559 -0.5100  0.1655
63014SOL    HW198972   4.444   0.909   9.725 -1.3611  0.1326  0.6965
63014SOL    HW298973   4.337   0.857   9.631  1.3098 -1.6710 -1.5123
63015SOL     OW98974   0.085   8.285   9.895  0.1289 -0.3841  0.5810
63015SOL    HW198975   0.168   8.269   9.940 -0.8789  0.6027  2.9277
63015SOL    HW298976   0.048   8.361   9.939 -2.1293 -0.9139 -0.2887
63016SOL     OW98977   1.231  10.714   3.723 -0.1686  1.0524  0.2097
63016SOL    HW198978   1.178  10.667   3.658  1.2708 -0.1126 -0.1776
63016SOL    HW298979   1.245  10.800   3.686  1.2261  0.1821 -1.4342
63017SOL     OW98980   1.333   5.513  13.008  0.4067 -0.0901 -0.0812
63017SOL    HW198981   1.348   5.474  12.922 -1.4558  0.7990 -0.8842
63017SOL    HW298982   1.238   5.526  13.011  0.6750  1.9663  1.1793
63018SOL     OW98983   1.728   6.367   2.334 -0.2668 -0.5213 -0.2161
63018SOL    HW198984   1.714   6.433   2.266 -1.2602 -0.7768 -0.2735
63018SOL    HW298985   1.766   6.292   2.287  1.8224  0.3246  0.0102
63019SOL     OW98986   4.158   6.699   9.451  0.1751  0.0135  0.4410
63019SOL    HW198987   4.246   6.730   9.431  0.2599 -0.6493 -0.2348
63019SOL    HW298988   4.153   6.612   9.411 -0.6176 -0.1634  0.8979
63020SOL     OW98989   8.112   7.058   1.603 -0.0538  0.2212 -0.5135
63020SOL    HW198990   8.188   7.000   1.607  0.2334 -0.1062 -5.0916
63020SOL    HW298991   8.118   7.112   1.682  1.7079 -3.3945  2.1284
63021SOL     OW98992   4.873   9.570   7.346  0.2791  0.1250 -0.0917
63021SOL    HW198993   4.890   9.585   7.253  1.1447 -0.1823  0.0120
63021SOL    HW298994   4.955   9.591   7.390 -0.3424  0.9745  0.6972
63022SOL     OW98995  11.654   2.052   6.514 -0.0548 -0.5796 -0.0505
63022SOL    HW198996  11.630   2.135   6.474 -1.7007 -0.7908  0.4215
63022SOL    HW298997  11.617   1.986   6.455 -0.7126 -0.9210  0.7301
63023SOL     OW98998   8.302   3.496  12.124  0.2346  0.1889  0.3304
63023SOL    HW198999   8.288   3.524  12.033 -0.3151 -0.6074  0.1602
63023SOL    HW299000   8.395   3.475  12.128  0.2877  0.3470 -0.0130
63024SOL     OW99001   7.113   4.021  11.917  0.5387 -0.5494 -0.5711
63024SOL    HW199002   7.083   3.933  11.937  0.2421 -0.2797  0.2234
63024SOL    HW299003   7.203   4.024  11.951 -0.3190  0.2422  1.8534
63025SOL     OW99004   5.624  11.665   0.599 -0.0993  0.2820  0.3768
63025SOL    HW199005   5.563  11.608   0.648 -0.0959 -0.9666 -0.9876
63025SOL    HW299006   5.577  11.748   0.591  0.2856  0.8624  3.2562
63026SOL     OW99007  11.338  11.940  10.931 -0.1818 -0.6262 -0.5675
63026SOL    HW199008  11.302  11.856  10.903 -0.9631 -0.2473 -0.7441
63026SOL    HW299009  11.364  11.984  10.850  0.6862 -0.8896 -0.4412
63027SOL     OW99010   9.006   8.349  10.085 -0.3575 -0.1332 -0.3080
63027SOL    HW199011   9.016   8.422  10.146  0.5283  0.4666 -1.1392
63027SOL    HW299012   9.036   8.273  10.133  2.7753  0.6976 -0.7162
63028SOL     OW99013   4.947   6.318   2.419  0.3714 -0.1452  0.0301
63028SOL    HW199014   4.902   6.292   2.499 -0.4397  1.2937  0.0694
63028SOL    HW299015   4.942   6.414   2.418 -0.3031 -0.1479 -2.1182
63029SOL     OW99016   7.260   7.519   7.113  0.0214 -0.1079  0.2207
63029SOL    HW199017   7.180   7.567   7.133 -0.7502 -1.0290 -0.5433
63029SOL    HW299018   7.310   7.577   7.056 -0.1354  0.4471  0.6441
63030SOL     OW99019   6.864   8.197   8.089 -0.3609 -0.8873  0.1861
63030SOL    HW199020   6.915   8.116   8.101  1.8131  0.5331  1.3859
63030SOL    HW299021   6.858   8.234   8.177  0.1151  1.0312 -0.5481
63031SOL     OW99022   8.351   3.887   0.376  0.3913  0.0867  0.6364
63031SOL    HW199023   8.268   3.927   0.401  1.7319  2.2763  1.8089
63031SOL    HW299024   8.362   3.814   0.437  0.2995  1.0616  1.8331
63032SOL     OW99025  13.309   7.054  12.104  0.1448 -0.5552  0.0978
63032SOL    HW199026  13.329   6.962  12.093  1.3441 -0.0081 -3.5499
63032SOL    HW299027  13.391   7.094  12.132 -0.4641 -0.5683  2.0417
63033SOL     OW99028   0.306   3.451  12.510  1.0607 -0.0217  0.3390
63033SOL    HW199029   0.263   3.402  12.580 -1.5998  1.4546 -0.1530
63033SOL    HW299030   0.262   3.422  12.430  1.2643  1.2548 -0.2532
63034SOL     OW99031   4.805  12.290   6.912 -0.2933 -0.1191 -0.6892
63034SOL    HW199032   4.775  12.380   6.907  2.2816  0.8442 -0.3166
63034SOL    HW299033   4.739  12.245   6.965 -2.8088  0.9257 -2.7036
63035SOL     OW99034   1.376   6.600  12.993  0.1590 -0.9093  0.8133
63035SOL    HW199035   1.428   6.651  13.056  1.3868 -0.5637 -0.4272
63035SOL    HW299036   1.301   6.656  12.974  0.9773  0.0376  0.2277
63036SOL     OW99037   5.700   3.285   4.392  0.4563  0.1129 -0.1633
63036SOL    HW199038   5.759   3.360   4.392  1.3595 -0.5307  1.8424
63036SOL    HW299039   5.708   3.248   4.480 -1.6925 -0.9940 -0.3601
63037SOL     OW99040   3.928   7.381   2.090 -0.6950  0.2388 -0.0687
63037SOL    HW199041   3.976   7.366   2.009 -0.7132 -0.3849  0.0292
63037SOL    HW299042   3.836   7.379   2.064 -0.8335 -2.5268  0.3129
63038SOL     OW99043   6.344   9.407  12.069 -0.3989  0.7240 -0.5275
63038SOL    HW199044   6.426   9.382  12.110 -0.8527  2.6253  1.7701
63038SOL    HW299045   6.369   9.449  11.987  0.9698  1.6658  0.3494
63039SOL     OW99046  13.229   9.781   1.459 -0.2063  0.2710  0.5385
63039SOL    HW199047  13.282   9.723   1.404 -0.3958 -1.0864  1.7512
63039SOL    HW299048  13.141   9.775   1.422 -0.0202  0.6443  0.0108
63040SOL     OW99049  10.617   5.857   5.163  0.1521 -0.9984 -0.1125
63040SOL    HW199050  10.656   5.876   5.078 -0.9255 -0.5233 -0.5195
63040SOL    HW299051  10.646   5.929   5.219 -0.8327 -0.1475 -0.6536
63041SOL     OW99052  11.092   9.818  13.179 -0.3785 -0.0742 -0.3792
63041SOL    HW199053  11.020   9.784  13.126  0.2030 -0.0716 -1.1824
63041SOL    HW299054  11.050   9.880  13.239 -1.0525 -0.0955 -0.8159
63042SOL     OW99055   3.729   0.305   3.614  0.1989 -0.3896  0.1937
63042SOL    HW199056   3.745   0.259   3.696  1.1786  1.4195  1.0693
63042SOL    HW299057   3.817   0.326   3.581 -0.2155  0.1035 -0.6196
63043SOL     OW99058   5.167   8.936   9.279  0.6277 -0.2544  0.0333
63043SOL    HW199059   5.113   8.904   9.207  2.0399 -1.4604 -0.5304
63043SOL    HW299060   5.173   9.030   9.264 -1.4143 -0.0338  0.2249
63044SOL     OW99061   3.641  13.238  12.217  0.8301  0.2197 -0.1942
63044SOL    HW199062   3.587  13.221  12.139 -0.7186  2.8708  0.1774
63044SOL    HW299063   3.707  13.300  12.187 -0.6050  2.3375  0.7911
63045SOL     OW99064   6.670   9.615  11.923 -0.8233 -0.2432 -0.7278
63045SOL    HW199065   6.579   9.593  11.902 -1.6034  2.1860 -0.2429
63045SOL    HW299066   6.707   9.644  11.840 -1.3210  1.2074 -0.4801
63046SOL     OW99067   8.306   2.768   4.101  0.2309 -0.3597 -0.7281
63046SOL    HW199068   8.278   2.684   4.065 -1.6151 -1.1432  2.1978
63046SOL    HW299069   8.401   2.760   4.108  0.3807 -1.1236 -2.8692
63047SOL     OW99070   0.155   3.922   9.740  0.2723  0.0402  0.0940
63047SOL    HW199071   0.212   3.889   9.810 -0.2974  1.0604  1.0766
63047SOL    HW299072   0.133   3.844   9.689  1.2116 -0.6332  0.6721
63048SOL     OW99073   9.935  10.958   1.087  0.3364  0.0080 -0.1195
63048SOL    HW199074   9.917  10.891   1.153  0.3844 -1.3855 -1.4571
63048SOL    HW299075   9.863  11.021   1.096 -0.3717 -0.8562  0.4040
63049SOL     OW99076   4.184   7.895   0.953 -0.0940  0.6512  0.5085
63049SOL    HW199077   4.238   7.817   0.964  0.2603  0.4774 -1.8424
63049SOL    HW299078   4.121   7.891   1.025 -1.4243 -2.9755 -0.6136
63050SOL     OW99079   8.171  10.564   7.792 -0.3735 -0.4320 -0.2219
63050SOL    HW199080   8.217  10.488   7.828  0.2872 -0.6327 -1.4318
63050SOL    HW299081   8.083  10.533   7.775  0.1715 -1.2734 -1.6882
63051SOL     OW99082   2.750   2.027   1.761  0.0160  0.0681  0.1851
63051SOL    HW199083   2.808   2.056   1.831  2.1895  0.2084 -1.5619
63051SOL    HW299084   2.744   1.932   1.773 -2.0841  0.3856  2.2536
63052SOL     OW99085  13.099   7.197   6.148 -0.2471  0.1301  0.1260
63052SOL    HW199086  13.140   7.128   6.095  0.2903  1.2465 -0.9770
63052SOL    HW299087  13.007   7.171   6.154 -0.1996 -0.3294 -0.8764
63053SOL     OW99088  12.735   3.456  13.291  0.6873  0.0511 -0.1894
63053SOL    HW199089  12.675   3.382  13.296  0.8802 -0.2699 -1.9316
63053SOL    HW299090  12.688   3.528  13.332 -1.5473  0.1805 -2.7060
63054SOL     OW99091   4.810   1.373   8.052  0.3814 -0.3987  0.2938
63054SOL    HW199092   4.890   1.320   8.061  0.0465 -0.8187  0.9077
63054SOL    HW299093   4.817   1.439   8.121  1.1793  0.8933 -0.9815
63055SOL     OW99094   5.591   1.176   0.210 -0.5213  0.2071  0.3104
63055SOL    HW199095   5.500   1.202   0.195 -0.7381 -0.0261  1.1507
63055SOL    HW299096   5.612   1.212   0.296  0.7344  1.6848 -0.5548
63056SOL     OW99097   6.572   8.300   6.950  0.3991  0.0201  0.5016
63056SOL    HW199098   6.559   8.217   6.995  1.1146 -0.2064  0.2958
63056SOL    HW299099   6.613   8.277   6.867  1.2320  0.6352  0.7276
63057SOL     OW99100   5.326   5.267   1.379  0.6316 -0.7046 -0.5402
63057SOL    HW199101   5.323   5.319   1.299 -2.8699 -3.5908 -2.5998
63057SOL    HW299102   5.415   5.232   1.381  1.0020 -0.1010 -2.8809
63058SOL     OW99103   2.377  13.157   0.648  0.6287 -0.3004 -0.8286
63058SOL    HW199104   2.374  13.245   0.684 -1.3485 -0.4718 -0.4675
63058SOL    HW299105   2.352  13.100   0.721  0.4665 -1.0165 -1.4295
63059SOL     OW99106   4.480  13.312  12.077 -0.2856  0.4285  0.0175
63059SOL    HW199107   4.397  13.343  12.041  0.4221  3.3332  0.6217
63059SOL    HW299108   4.462  13.297  12.170 -0.2857  0.3234  0.0017
63060SOL     OW99109   2.681  11.589   0.540  0.3486 -0.0257 -0.4935
63060SOL    HW199110   2.616  11.656   0.562 -0.5880 -1.1029  0.1014
63060SOL    HW299111   2.629  11.513   0.516  1.3277 -1.4500  1.5841
63061SOL     OW99112  12.591  13.078   0.540 -0.0982  0.1649  0.0778
63061SOL    HW199113  12.588  12.995   0.588 -0.1787 -0.8263 -1.5569
63061SOL    HW299114  12.504  13.116   0.552  0.2106  0.4750  1.5575
63062SOL     OW99115   2.951   3.637   5.382 -0.1805 -0.3838  0.6262
63062SOL    HW199116   2.963   3.604   5.294  0.7058 -1.8551  1.2646
63062SOL    HW299117   2.885   3.707   5.373  1.4946  1.0417 -1.5071
63063SOL     OW99118   7.920   6.348  12.589  0.2536  0.5922  0.6570
63063SOL    HW199119   7.982   6.399  12.642  0.3725  0.1083  0.9904
63063SOL    HW299120   7.834   6.372  12.623  0.3918 -0.9496  2.2230
63064SOL     OW99121   8.735  12.302   3.410  0.5142  0.6973 -0.1114
63064SOL    HW199122   8.662  12.281   3.351  1.0718 -0.0172 -0.5601
63064SOL    HW299123   8.735  12.398   3.414 -1.1314  0.6992  0.7734
63065SOL     OW99124  10.949  11.404   9.215 -0.6351  0.4896 -0.2211
63065SOL    HW199125  10.937  11.382   9.123  0.5881  1.3550 -0.6014
63065SOL    HW299126  10.968  11.320   9.257 -1.2302  0.0843 -0.7403
63066SOL     OW99127  12.229  12.087   1.972 -0.0156 -1.1437  0.1848
63066SOL    HW199128  12.324  12.084   1.975 -0.0354 -1.4527  2.3798
63066SOL    HW299129  12.201  12.001   2.003 -1.0838 -1.8882 -2.5331
63067SOL     OW99130  10.869  12.484  12.552 -0.1248  0.1802 -0.2926
63067SOL    HW199131  10.782  12.466  12.588 -0.0128  0.6460  0.2209
63067SOL    HW299132  10.901  12.398  12.524  0.0537 -0.3266  1.3254
63068SOL     OW99133   1.358   0.564  12.966 -0.3428  0.2415 -0.2239
63068SOL    HW199134   1.394   0.609  13.043  0.9878 -0.6884 -0.2646
63068SOL    HW299135   1.383   0.473  12.979 -2.6990 -0.4700 -0.3042
63069SOL     OW99136   6.060   3.284  13.264  0.6909  0.0452  0.7265
63069SOL    HW199137   6.117   3.344  13.215 -0.1564  0.2467 -0.0294
63069SOL    HW299138   6.029   3.222  13.198  2.0021 -1.6109  1.5978
63070SOL     OW99139   3.590   7.266  11.266  0.3205 -0.6624  0.7217
63070SOL    HW199140   3.562   7.281  11.356 -1.7145  0.3876 -0.0345
63070SOL    HW299141   3.673   7.312  11.259 -0.4232  0.8644  1.5631
63071SOL     OW99142   4.035   5.703   4.315  0.2154 -0.2880 -0.2063
63071SOL    HW199143   3.979   5.780   4.328 -0.2849 -0.4641 -1.1975
63071SOL    HW299144   4.017   5.648   4.391 -0.2260  0.0999 -0.0209
63072SOL     OW99145   1.877  10.161   4.021 -0.0597 -0.2959 -0.1396
63072SOL    HW199146   1.844  10.213   3.947 -1.5521 -1.0370 -0.0365
63072SOL    HW299147   1.805  10.102   4.042  0.4563 -0.3198  1.7107
63073SOL     OW99148   6.007   7.921   5.388 -0.0948 -0.7485  0.1788
63073SOL    HW199149   6.085   7.948   5.436 -0.6813  1.4838 -0.0239
63073SOL    HW299150   6.009   7.974   5.308 -3.0442  1.2779  1.2758
63074SOL     OW99151  12.097   2.782  10.823  0.2774 -0.0289 -0.7542
63074SOL    HW199152  12.187   2.809  10.842  0.3523 -0.2443 -0.8099
63074SOL    HW299153  12.077   2.717  10.889 -0.7467  1.8830  0.9348
63075SOL     OW99154   5.290   1.771   1.717  0.6373 -0.1032  0.1968
63075SOL    HW199155   5.223   1.839   1.711  0.6979 -0.0545  0.0846
63075SOL    HW299156   5.361   1.801   1.660  0.6022 -0.3289  0.0310
63076SOL     OW99157   0.841   3.471  11.002 -0.6378 -0.1077  0.7089
63076SOL    HW199158   0.772   3.456  11.067  0.3302  1.2609  2.1110
63076SOL    HW299159   0.906   3.524  11.047  0.4559  0.2374 -1.1617
63077SOL     OW99160  11.633   6.562  12.725 -0.3947  0.3948  0.1958
63077SOL    HW199161  11.700   6.504  12.762  1.2172  0.5250 -2.2746
63077SOL    HW299162  11.683   6.631  12.681 -2.2338  3.3489  2.3513
63078SOL     OW99163  10.450  12.848   2.361 -0.6180 -0.3648 -0.4166
63078SOL    HW199164  10.419  12.891   2.440  0.0590 -0.5963 -0.0242
63078SOL    HW299165  10.372  12.843   2.305 -0.6709  1.5213 -0.5599
63079SOL     OW99166  11.591   7.483  10.702  0.6394 -0.0211 -0.0159
63079SOL    HW199167  11.610   7.542  10.629  1.6211 -1.0455 -0.6265
63079SOL    HW299168  11.496   7.472  10.699  0.1477  2.8821  1.2264
63080SOL     OW99169   2.286   2.236   6.798  0.2985  0.1553  0.0535
63080SOL    HW199170   2.208   2.185   6.777  0.8936 -0.5711 -0.4279
63080SOL    HW299171   2.257   2.298   6.866  0.0106 -2.1809  2.1999
63081SOL     OW99172   3.372   6.229   2.196  0.2406  0.3188 -0.7613
63081SOL    HW199173   3.322   6.309   2.180 -0.4966 -0.1914 -1.0513
63081SOL    HW299174   3.311   6.171   2.241  1.0124  0.2039  0.1785
63082SOL     OW99175   4.541  10.076  11.940 -0.0924  0.0011 -0.0448
63082SOL    HW199176   4.463  10.110  11.985 -1.5455 -2.1379 -0.7752
63082SOL    HW299177   4.567  10.000  11.992 -0.0200 -0.7560 -1.1563
63083SOL     OW99178   1.612  10.670   1.569 -0.3424 -0.1478 -0.3649
63083SOL    HW199179   1.628  10.632   1.483  0.6915  0.0497 -0.2667
63083SOL    HW299180   1.695  10.711   1.594 -1.6250  3.1490 -0.9488
63084SOL     OW99181   4.108  12.434  11.425  0.3501  0.1160  0.6181
63084SOL    HW199182   4.015  12.437  11.404  0.2985  0.8292  0.9048
63084SOL    HW299183   4.152  12.423  11.341 -0.0390 -1.6288  0.6020
63085SOL     OW99184  10.239   1.934   8.601  0.2477 -0.4707 -0.0303
63085SOL    HW199185  10.275   2.019   8.627 -1.6189  0.1891  0.5295
63085SOL    HW299186  10.150   1.953   8.571 -0.3161 -2.2568  0.3852
63086SOL     OW99187   2.132   7.122   8.463 -0.3368 -0.3296 -0.0483
63086SOL    HW199188   2.154   7.211   8.491 -0.0699 -0.7546  1.1386
63086SOL    HW299189   2.041   7.129   8.432 -0.2106  0.4172 -0.2761
63087SOL     OW99190   1.640   8.257   4.025  0.3542 -0.4197  0.0423
63087SOL    HW199191   1.709   8.323   4.032  1.4822 -1.6242  0.7554
63087SOL    HW299192   1.684   8.180   3.991 -1.1537 -0.5407 -1.8393
63088SOL     OW99193  12.746   9.962   3.370  0.6430  0.3786  1.1211
63088SOL    HW199194  12.761   9.987   3.279 -0.0001 -1.0803  0.5814
63088SOL    HW299195  12.832   9.935   3.403  1.0214  1.6401  1.1979
63089SOL     OW99196  12.756   3.424   0.549  0.1678  0.0016 -0.3038
63089SOL    HW199197  12.837   3.471   0.530  1.0066 -1.5215 -0.5852
63089SOL    HW299198  12.759   3.409   0.644  0.1591  0.0255 -0.2996
63090SOL     OW99199  10.866   8.639   1.075  0.2240  0.0140 -0.4740
63090SOL    HW199200  10.787   8.591   1.100 -0.5787  2.5333  2.5346
63090SOL    HW299201  10.856   8.656   0.981  0.3496 -4.9180 -1.6649
63091SOL     OW99202   4.115  12.372   6.416 -0.3119 -0.8807 -0.3480
63091SOL    HW199203   4.059  12.438   6.375 -1.0221 -1.3506 -0.1704
63091SOL    HW299204   4.055  12.299   6.435  0.1183 -0.9302  0.9298
63092SOL     OW99205  10.051   0.211   4.360  0.6743  0.2204  0.2453
63092SOL    HW199206  10.081   0.242   4.275 -0.6011 -1.4097 -0.8625
63092SOL    HW299207  10.076   0.118   4.362 -0.8168 -0.2036  0.8841
63093SOL     OW99208   3.591  11.662   5.718 -0.2911 -0.0741  0.1812
63093SOL    HW199209   3.497  11.680   5.718 -0.1716  0.5645  0.2166
63093SOL    HW299210   3.620  11.683   5.629 -0.6210 -2.6953 -0.6162
63094SOL     OW99211  10.160  10.188   6.001  0.1212 -0.1899 -1.0842
63094SOL    HW199212  10.219  10.173   6.075 -1.4671  0.7203  0.4357
63094SOL    HW299213  10.103  10.111   5.999  0.2297 -0.2638 -1.4359
63095SOL     OW99214   0.132   0.886   5.257 -0.4426  0.0882 -0.1690
63095SOL    HW199215   0.225   0.898   5.277 -0.5938  1.6517 -0.2850
63095SOL    HW299216   0.115   0.794   5.277  0.4258  0.4713  2.8098
63096SOL     OW99217   1.646   0.625   9.775 -0.3981  0.5446  0.4843
63096SOL    HW199218   1.569   0.615   9.832 -0.2536 -1.3349  0.4069
63096SOL    HW299219   1.717   0.647   9.836 -0.4768 -0.3068  0.8978
63097SOL     OW99220   0.935  11.923  12.433 -0.7171  0.0342 -0.1985
63097SOL    HW199221   0.896  12.005  12.464 -0.2593 -0.1497  0.9454
63097SOL    HW299222   0.937  11.931  12.338 -1.3938  1.0180 -0.1448
63098SOL     OW99223   0.368   3.357  10.562  0.2615  0.2382 -0.4788
63098SOL    HW199224   0.305   3.348  10.491 -1.5451 -1.5767  1.2265
63098SOL    HW299225   0.329   3.423  10.621  0.5609  0.0164 -0.0242
63099SOL     OW99226   6.126  10.994  11.485  0.5011  0.0692  1.0330
63099SOL    HW199227   6.143  10.903  11.465 -0.0939  0.3875 -1.1627
63099SOL    HW299228   6.036  10.996  11.516 -0.5392  0.1987 -1.7451
63100SOL     OW99229   7.664   4.651  13.161 -0.0544  0.2676  0.4735
63100SOL    HW199230   7.678   4.641  13.255  2.3489  0.8038  0.2333
63100SOL    HW299231   7.683   4.565  13.125 -1.4106 -0.0595  0.4785
63101SOL     OW99232   5.559   3.151   0.795  0.6153  0.1703 -0.4425
63101SOL    HW199233   5.586   3.240   0.815  0.7301  0.1087 -0.3138
63101SOL    HW299234   5.548   3.149   0.700 -0.3541  0.5816 -0.3452
63102SOL     OW99235   4.655   4.239   1.758 -0.3149 -0.6399 -0.1629
63102SOL    HW199236   4.612   4.286   1.686 -0.7191  0.8089  0.9837
63102SOL    HW299237   4.748   4.251   1.742 -0.4028 -0.3115 -0.4345
63103SOL     OW99238   2.113  13.075   7.026  0.0523 -0.4281 -0.5371
63103SOL    HW199239   2.113  13.151   6.968  0.9360 -0.4719 -0.5952
63103SOL    HW299240   2.079  13.004   6.972 -1.8787  0.1318 -0.1697
63104SOL     OW99241   9.982   5.582   2.305  0.2332  0.6151 -0.7584
63104SOL    HW199242  10.044   5.653   2.326  0.6983  0.1466 -0.5042
63104SOL    HW299243   9.902   5.626   2.279  0.3908  1.2370 -0.2098
63105SOL     OW99244   1.047   1.921   4.508 -0.0037  0.0176  0.1586
63105SOL    HW199245   1.055   1.827   4.493 -1.5910 -0.0440 -0.4253
63105SOL    HW299246   0.958   1.934   4.540 -0.0154  1.3835 -0.3450
63106SOL     OW99247   3.505   9.846   1.075  0.2454 -0.1096  0.5266
63106SOL    HW199248   3.466   9.900   1.006  0.2478 -0.9829 -0.1808
63106SOL    HW299249   3.462   9.875   1.156  0.3890  1.0619  0.1944
63107SOL     OW99250   1.287   0.219   9.174 -0.0247  0.4460  0.0326
63107SOL    HW199251   1.216   0.279   9.197  0.6387  1.9806 -1.6263
63107SOL    HW299252   1.245   0.150   9.123 -0.3331  1.5180 -1.2238
63108SOL     OW99253   2.115   8.848   7.295 -0.0497  0.0103 -0.2344
63108SOL    HW199254   2.158   8.805   7.221  0.8209  0.1007  0.2093
63108SOL    HW299255   2.184   8.903   7.334 -1.2518  2.3053 -1.1379
63109SOL     OW99256   6.016   3.690   2.913  1.0244 -0.1194 -0.5006
63109SOL    HW199257   6.006   3.615   2.854  0.7900  0.9227 -1.8487
63109SOL    HW299258   6.110   3.694   2.931  1.1645 -0.1844 -1.1875
63110SOL     OW99259  12.360  12.517   5.206 -0.0702 -0.3955  0.3303
63110SOL    HW199260  12.286  12.573   5.228 -0.8577 -1.5490  0.6888
63110SOL    HW299261  12.393  12.486   5.291  0.7944  0.0588  0.1717
63111SOL     OW99262  12.477   4.663   6.094 -0.3760  0.0508 -0.1807
63111SOL    HW199263  12.425   4.728   6.047  0.0878  0.6077  0.0694
63111SOL    HW299264  12.559   4.657   6.045 -0.2717 -0.0760  0.0073
63112SOL     OW99265  12.982   3.420   4.757 -0.2367  0.4586 -0.0644
63112SOL    HW199266  12.913   3.393   4.817  0.3704 -0.1073  0.3858
63112SOL    HW299267  13.031   3.487   4.804  1.0032 -0.8608  0.5889
63113SOL     OW99268   5.811   7.541   4.671  0.7965  0.2036 -0.2552
63113SOL    HW199269   5.825   7.508   4.760  0.8692 -0.4870 -0.5103
63113SOL    HW299270   5.892   7.521   4.624  1.4969  2.2766 -0.0089
63114SOL     OW99271   4.072   3.503   9.695 -0.1728  0.0496  0.2863
63114SOL    HW199272   4.121   3.504   9.778 -0.2670  0.5743  0.3386
63114SOL    HW299273   4.045   3.594   9.682 -2.8958 -0.4911  1.3081
63115SOL     OW99274  10.183   7.948   2.295  0.4181 -0.1471  0.9654
63115SOL    HW199275  10.224   7.886   2.355 -0.9179 -1.6925  0.3546
63115SOL    HW299276  10.256   7.991   2.251  1.3809 -0.7326  1.9334
63116SOL     OW99277   8.032   8.332   5.569 -0.4871  0.3214 -0.3575
63116SOL    HW199278   8.022   8.421   5.602  1.3863  0.4742 -0.1120
63116SOL    HW299279   8.005   8.276   5.642 -0.1163  0.6853  0.0625
63117SOL     OW99280   4.610   9.034  12.947 -0.1677 -0.2072 -0.0304
63117SOL    HW199281   4.610   9.007  12.855 -0.2385  0.7574 -0.3321
63117SOL    HW299282   4.600   8.953  12.997  1.5492 -0.9535 -0.8174
63118SOL     OW99283  10.751   1.093   4.765  0.0536 -0.0245  0.0158
63118SOL    HW199284  10.818   1.028   4.742  1.5857  1.5269 -0.0963
63118SOL    HW299285  10.727   1.073   4.855  0.2937 -0.9127 -0.1126
63119SOL     OW99286   1.013   1.070   8.616 -0.6494  0.1587 -0.2346
63119SOL    HW199287   1.025   0.982   8.653  0.6968 -0.1477 -1.3227
63119SOL    HW299288   1.042   1.129   8.686  3.9555 -0.4627 -1.2981
63120SOL     OW99289   4.357   1.810   8.481 -0.7196  0.1623  0.2111
63120SOL    HW199290   4.420   1.870   8.520 -0.8483  0.2151  0.3402
63120SOL    HW299291   4.286   1.866   8.450 -0.5310  0.1378 -0.2738
63121SOL     OW99292   5.489   1.208   7.362 -0.3662 -0.3920  0.6565
63121SOL    HW199293   5.436   1.262   7.420 -0.6142  0.6904 -0.5347
63121SOL    HW299294   5.430   1.181   7.292  0.6398  1.0090 -0.8080
63122SOL     OW99295   7.662  12.671   4.228  0.2559  0.6122  0.2401
63122SOL    HW199296   7.597  12.740   4.220  0.4348  0.6444 -1.0594
63122SOL    HW299297   7.732  12.696   4.168  0.3534 -0.6395 -0.2043
63123SOL     OW99298  10.196  12.654  12.040 -0.1492 -0.0395  0.3110
63123SOL    HW199299  10.120  12.711  12.035  0.3352  0.4893 -2.6448
63123SOL    HW299300  10.263  12.706  12.084 -0.1333  1.2419 -1.1448
63124SOL     OW99301  11.183  10.872   6.077 -0.0093 -0.2134  0.4305
63124SOL    HW199302  11.166  10.778   6.085 -2.7003  0.1326 -0.3933
63124SOL    HW299303  11.210  10.885   5.986  0.8446 -0.2354  0.6747
63125SOL     OW99304  12.234  11.974   4.727 -0.2712  0.0380 -0.2650
63125SOL    HW199305  12.277  11.947   4.646 -0.3290 -1.6040  0.2132
63125SOL    HW299306  12.151  11.926   4.728 -0.5984  0.5948  0.4333
63126SOL     OW99307   6.626  10.666  12.200 -0.2983  0.0331  0.0508
63126SOL    HW199308   6.647  10.712  12.281 -0.0044  2.0825 -1.1269
63126SOL    HW299309   6.530  10.669  12.195 -0.3998 -1.0947  0.8276
63127SOL     OW99310   0.006   9.783   0.452 -0.5959 -0.7036  0.1416
63127SOL    HW199311   0.013   9.771   0.357 -0.1786 -0.8015  0.1806
63127SOL    HW299312   0.054   9.709   0.489  0.1778 -0.0895  0.4098
63128SOL     OW99313   5.441   7.470  11.390  0.4309  0.3931  0.6971
63128SOL    HW199314   5.354   7.467  11.429  1.1148  1.0775  2.3674
63128SOL    HW299315   5.430   7.523  11.311 -0.7778 -0.0692  0.5323
63129SOL     OW99316   1.325   1.794   8.177  0.5193 -0.0418  0.0179
63129SOL    HW199317   1.389   1.824   8.242  1.0791 -2.0872  0.4682
63129SOL    HW299318   1.377   1.775   8.099  0.2031  0.0078 -0.2069
63130SOL     OW99319   3.399  10.470  11.863 -0.3987  0.4634  0.1638
63130SOL    HW199320   3.456  10.394  11.868  1.0619  1.4984  0.1691
63130SOL    HW299321   3.316  10.437  11.829  0.9727 -0.7491 -2.2862
63131SOL     OW99322   7.768   7.498  10.227 -0.3363  0.2414 -0.2934
63131SOL    HW199323   7.857   7.463  10.218 -0.8910 -1.7082  1.1536
63131SOL    HW299324   7.721   7.462  10.152 -0.5202 -0.8793  0.3469
63132SOL     OW99325   4.481   1.300   2.920 -1.2179 -0.1149 -0.2397
63132SOL    HW199326   4.400   1.296   2.869 -0.6054  1.6177 -1.4203
63132SOL    HW299327   4.551   1.306   2.855 -0.2120 -0.3040  0.7783
63133SOL     OW99328   1.953   9.086   4.737 -0.2338  0.1406  0.7489
63133SOL    HW199329   2.037   9.125   4.760 -1.0206  2.2630  0.3067
63133SOL    HW299330   1.946   9.099   4.642 -0.9497 -0.2367  0.7427
63134SOL     OW99331   6.399  11.777   0.988  0.6614 -0.1854 -0.4362
63134SOL    HW199332   6.450  11.720   0.930  2.1532  0.7190 -0.0603
63134SOL    HW299333   6.465  11.825   1.039 -0.5893  0.1991  0.8849
63135SOL     OW99334   7.013   3.584  10.952 -0.3797 -0.1297 -0.1488
63135SOL    HW199335   6.919   3.579  10.967 -0.1602 -2.8046  0.7687
63135SOL    HW299336   7.044   3.649  11.015 -1.6112  1.1505 -0.7956
63136SOL     OW99337   7.291  10.084   2.202  0.3663  0.0836 -0.3626
63136SOL    HW199338   7.208  10.040   2.220  0.0995  0.4101 -0.7842
63136SOL    HW299339   7.298  10.084   2.107  1.6783 -1.4608 -0.3051
63137SOL     OW99340   2.145   5.557   6.021 -0.0780  0.0392  1.1963
63137SOL    HW199341   2.237   5.585   6.023 -0.1385  0.2277  1.4455
63137SOL    HW299342   2.129   5.523   6.109  0.0384 -0.9407  0.8540
63138SOL     OW99343   6.461  13.036   4.591 -0.8526 -0.1611 -0.0316
63138SOL    HW199344   6.544  13.029   4.639 -0.2267 -0.7648 -1.1650
63138SOL    HW299345   6.399  12.986   4.643  0.0739 -1.7222 -0.3704
63139SOL     OW99346   5.871   1.042  12.420 -0.1678 -0.5795  0.1997
63139SOL    HW199347   5.854   1.018  12.329 -0.3884 -0.2919  0.1655
63139SOL    HW299348   5.953   0.997  12.442 -0.9641 -2.0105  0.3742
63140SOL     OW99349   2.767   2.843   0.152 -0.2939 -0.6356 -0.1339
63140SOL    HW199350   2.853   2.884   0.159 -0.3172 -0.3383 -1.4148
63140SOL    HW299351   2.784   2.755   0.120 -0.5236 -0.1266 -1.7600
63141SOL     OW99352  12.672  10.306  10.109  0.3714  0.7789  0.8361
63141SOL    HW199353  12.650  10.295  10.017 -2.1986  0.9493  1.3612
63141SOL    HW299354  12.669  10.400  10.124 -0.6653  0.6797  1.3703
63142SOL     OW99355   3.020  10.243   3.731  0.1943 -0.5032 -0.0815
63142SOL    HW199356   2.937  10.264   3.689  1.1966  1.9829 -1.0089
63142SOL    HW299357   3.029  10.307   3.801 -0.2189 -2.9540  2.3567
63143SOL     OW99358   5.141  10.487   7.738 -0.2843 -0.1332 -0.2806
63143SOL    HW199359   5.150  10.539   7.658  1.4381 -0.1465 -0.1309
63143SOL    HW299360   5.048  10.465   7.741 -0.6846  1.2047 -1.4278
63144SOL     OW99361   2.071   2.153   5.320  0.0991  0.0709  0.0081
63144SOL    HW199362   2.007   2.191   5.380 -0.0120 -1.0276  0.6044
63144SOL    HW299363   2.138   2.116   5.378  0.2459 -0.5658 -0.5635
63145SOL     OW99364   9.953  13.003   1.158  0.6020 -0.0055 -0.8727
63145SOL    HW199365  10.019  13.013   1.227  2.2529  2.7665 -2.6201
63145SOL    HW299366   9.872  13.037   1.196  0.5808 -1.6457  0.6839
63146SOL     OW99367   1.335   9.084   6.923 -0.4378  0.3925  0.1828
63146SOL    HW199368   1.355   9.128   6.840  0.5595  2.0481  1.2308
63146SOL    HW299369   1.405   9.020   6.934 -1.1040 -0.5051 -0.6838
63147SOL     OW99370   0.634  10.931   2.093  0.0091  0.1308  0.0739
63147SOL    HW199371   0.599  10.878   2.164 -1.2373  1.7165  0.6986
63147SOL    HW299372   0.560  10.946   2.034  0.7028 -0.0575 -0.8775
63148SOL     OW99373  11.024  10.937   9.630  0.1332 -0.3012 -0.1774
63148SOL    HW199374  10.976  10.993   9.690 -0.9939  0.2375 -1.5211
63148SOL    HW299375  11.022  10.850   9.670  0.3115  0.2464  1.0432
63149SOL     OW99376   9.131   0.946  10.906 -0.1875  0.0157  0.0248
63149SOL    HW199377   9.120   1.003  10.982 -0.7942  0.3533 -0.3135
63149SOL    HW299378   9.166   0.865  10.943 -0.3553  0.2199  0.6524
63150SOL     OW99379   3.988  12.344   9.812  0.3168  0.3579 -0.0162
63150SOL    HW199380   4.026  12.384   9.891 -2.4051  0.9815  1.0765
63150SOL    HW299381   3.953  12.418   9.762 -2.7148 -0.3001  0.9076
63151SOL     OW99382   1.386   1.476   9.491 -0.1253 -0.1560 -0.5360
63151SOL    HW199383   1.405   1.488   9.584 -1.8198  0.2696 -0.2225
63151SOL    HW299384   1.411   1.385   9.474 -0.9737 -0.6516  0.6727
63152SOL     OW99385  10.113   1.975  13.100  0.1224 -0.4321  0.0664
63152SOL    HW199386  10.079   1.964  13.011  0.5088  1.3257 -0.3407
63152SOL    HW299387  10.035   1.973  13.156 -0.6012  1.9676 -0.6984
63153SOL     OW99388   5.889  10.580   5.571  0.6421 -0.6622  0.0181
63153SOL    HW199389   5.954  10.544   5.631 -1.6308 -2.0497  1.8189
63153SOL    HW299390   5.859  10.505   5.521  0.4135 -0.0337 -0.8071
63154SOL     OW99391  11.591   1.657  12.421 -0.5015  0.4442  0.6056
63154SOL    HW199392  11.640   1.671  12.339 -1.0697 -1.1480 -0.0544
63154SOL    HW299393  11.517   1.717  12.414 -0.0182  1.0360  0.4213
63155SOL     OW99394   6.079   1.308  12.152 -0.0717  0.3435  0.1729
63155SOL    HW199395   6.074   1.368  12.078  1.3029  0.3410  0.0641
63155SOL    HW299396   6.026   1.350  12.220 -1.2869  0.3803 -0.7522
63156SOL     OW99397   4.232   2.482   1.912 -0.0316  0.1065  0.5935
63156SOL    HW199398   4.221   2.567   1.956  1.2798  0.7732 -0.2912
63156SOL    HW299399   4.292   2.434   1.970  0.7564  0.5370  0.1575
63157SOL     OW99400   9.085   6.357   9.151 -0.0163  0.1651  0.4012
63157SOL    HW199401   9.154   6.353   9.084 -0.5634  1.2330 -0.2582
63157SOL    HW299402   9.025   6.286   9.127  1.0437 -1.0501  1.2325
63158SOL     OW99403  10.318   2.459  13.058 -0.1543  0.2222  0.3746
63158SOL    HW199404  10.334   2.522  13.128  0.0766 -0.5414  1.0283
63158SOL    HW299405  10.383   2.482  12.991  1.1883 -0.4402  1.3860
63159SOL     OW99406   3.509   4.501  11.075  0.2457 -0.6751 -0.7170
63159SOL    HW199407   3.490   4.492  11.168  0.6506 -2.0867 -0.7460
63159SOL    HW299408   3.424   4.495  11.032 -0.2864  2.4307 -0.3707
63160SOL     OW99409   7.492   2.940   0.884  0.3174 -0.1986  0.1439
63160SOL    HW199410   7.462   2.851   0.900  2.1599 -0.6430  1.4410
63160SOL    HW299411   7.519   2.939   0.792  1.1656 -1.2566  0.3843
63161SOL     OW99412  11.032  11.384   8.012 -0.0598  0.2750 -0.2405
63161SOL    HW199413  10.946  11.364   8.049  0.1382  1.0988  0.6806
63161SOL    HW299414  11.092  11.381   8.086  0.9277 -1.3906 -1.0381
63162SOL     OW99415  13.192  13.304  12.851  0.5264  0.2349 -0.0113
63162SOL    HW199416  13.214  13.397  12.854 -2.1337  0.9591 -0.2271
63162SOL    HW299417  13.148  13.286  12.934  0.6659 -0.7438 -0.1272
63163SOL     OW99418   1.187   7.950   5.557  0.0460 -0.1292 -0.1147
63163SOL    HW199419   1.142   7.872   5.589 -1.1069  1.0072  1.1706
63163SOL    HW299420   1.199   8.005   5.635  1.8095  0.5277 -0.7956
63164SOL     OW99421   7.388   9.202   4.440  0.1718  0.4709 -0.1331
63164SOL    HW199422   7.422   9.130   4.493  1.3018 -0.8529 -2.4766
63164SOL    HW299423   7.329   9.249   4.498  1.9966 -0.2935  2.5528
63165SOL     OW99424   5.502  12.973  10.437 -0.3641 -0.1155 -0.4525
63165SOL    HW199425   5.540  12.905  10.380  1.7235 -0.5043  1.3000
63165SOL    HW299426   5.407  12.959  10.429 -0.0405 -2.9372 -0.5591
63166SOL     OW99427   7.836   5.598   9.253  0.1039  0.3456 -0.0006
63166SOL    HW199428   7.808   5.541   9.182 -0.5118  0.2457  0.3173
63166SOL    HW299429   7.901   5.547   9.301  0.9645  0.6359 -0.8287
63167SOL     OW99430   0.365   6.737   6.771  0.0158  0.0924 -0.0135
63167SOL    HW199431   0.340   6.792   6.697 -0.3797  0.1133  0.1314
63167SOL    HW299432   0.283   6.700   6.802  0.4133 -1.8070 -1.0503
63168SOL     OW99433   3.190   5.522   9.063 -0.4211  0.1069  0.3298
63168SOL    HW199434   3.245   5.446   9.084 -1.2807 -0.4664  0.5865
63168SOL    HW299435   3.102   5.495   9.089 -0.6972  1.3266  0.7228
63169SOL     OW99436   8.979   0.614   9.138 -0.0064  0.0291 -0.5157
63169SOL    HW199437   9.009   0.652   9.220 -0.5266  0.6411 -0.5923
63169SOL    HW299438   8.906   0.558   9.163 -0.6000  0.7329 -0.6110
63170SOL     OW99439  11.003   3.450   6.730  0.0502 -0.1118 -0.0414
63170SOL    HW199440  11.006   3.499   6.647  1.0828  0.7786  0.4929
63170SOL    HW299441  11.011   3.517   6.797 -0.5869 -0.8505  0.7867
63171SOL     OW99442   4.230   9.675   3.002  0.5874 -0.6306 -0.3605
63171SOL    HW199443   4.300   9.681   2.937  0.9060 -0.3014  0.0051
63171SOL    HW299444   4.161   9.732   2.969  1.7908  1.6784  0.8557
63172SOL     OW99445  10.084  12.696   9.694 -0.6395 -0.2354  0.1052
63172SOL    HW199446  10.165  12.742   9.715 -0.5840 -0.5353  0.5671
63172SOL    HW299447  10.086  12.685   9.599 -0.3712  0.1866  0.0634
63173SOL     OW99448   3.790   7.820   4.680  1.2397 -0.0477 -0.1031
63173SOL    HW199449   3.810   7.910   4.706  1.3795 -0.0749 -0.1170
63173SOL    HW299450   3.729   7.789   4.747  1.8197 -0.2124  0.3597
63174SOL     OW99451   3.456   0.696  12.987  0.0106 -0.1091 -0.1778
63174SOL    HW199452   3.377   0.686  13.040  0.6660  1.7475  1.2845
63174SOL    HW299453   3.478   0.608  12.958 -1.1229 -1.0128  1.5814
63175SOL     OW99454   4.868   3.507   3.374 -0.1403 -0.6146 -0.5351
63175SOL    HW199455   4.856   3.561   3.296 -0.4445  0.4081  0.2063
63175SOL    HW299456   4.856   3.567   3.448 -0.7275 -1.7397  0.3151
63176SOL     OW99457   9.696   3.507  13.202 -0.2289 -0.0431  0.3762
63176SOL    HW199458   9.612   3.504  13.155 -0.8615 -2.8611  1.4752
63176SOL    HW299459   9.748   3.439  13.161  0.6142  0.0331  1.3011
63177SOL     OW99460  11.546   1.665   6.630 -0.1300 -0.1161  0.5003
63177SOL    HW199461  11.590   1.732   6.683 -2.1226  0.9113  0.9326
63177SOL    HW299462  11.491   1.618   6.692 -0.5541 -0.5850 -0.2290
63178SOL     OW99463   8.007   9.817  12.150  0.3147  0.2197  0.7703
63178SOL    HW199464   8.007   9.890  12.088 -0.1930 -1.0661 -0.8518
63178SOL    HW299465   7.917   9.811  12.180  0.0784 -0.4426 -0.0286
63179SOL     OW99466   4.891   6.373   7.608  0.0923 -1.1182 -0.2150
63179SOL    HW199467   4.836   6.295   7.601 -0.3133 -0.8231 -0.3738
63179SOL    HW299468   4.872   6.422   7.528  0.1993 -0.7588 -0.0185
63180SOL     OW99469   9.066   1.177   0.730 -0.1650 -0.0909 -0.3419
63180SOL    HW199470   9.117   1.200   0.652 -1.3749 -0.4521 -1.2654
63180SOL    HW299471   8.982   1.221   0.718 -0.2260  0.1923  0.9750
63181SOL     OW99472  13.001  10.748   0.365  0.0546  0.2104 -0.9570
63181SOL    HW199473  12.910  10.732   0.389  0.6868  0.2695  1.7793
63181SOL    HW299474  12.999  10.831   0.319 -1.3538 -0.1718 -1.6512
63182SOL     OW99475   2.702  10.441   0.830  0.5268  0.4735  0.0366
63182SOL    HW199476   2.713  10.351   0.800  0.3366  0.6233 -0.4925
63182SOL    HW299477   2.704  10.493   0.750 -0.5562  0.8260  0.2279
63183SOL     OW99478  13.286   2.515   0.657  0.1662 -0.6159 -0.3152
63183SOL    HW199479  13.192   2.533   0.658  0.2803  0.0378  0.8841
63183SOL    HW299480  13.292   2.424   0.630 -0.7199 -0.3072 -1.7244
63184SOL     OW99481   6.107   8.675   3.919 -0.0089 -0.1468 -0.2565
63184SOL    HW199482   6.091   8.589   3.958 -0.2398 -0.4816 -1.0825
63184SOL    HW299483   6.100   8.736   3.993  3.6335 -1.1056  1.0818
63185SOL     OW99484   2.372   2.308   1.124  0.6194 -0.5599  0.2738
63185SOL    HW199485   2.280   2.284   1.116  0.4263  0.3270 -0.3198
63185SOL    HW299486   2.391   2.357   1.044  1.2786  0.2897  0.9284
63186SOL     OW99487   8.714  12.925   7.779  0.1580 -0.1783  0.3281
63186SOL    HW199488   8.667  12.968   7.851  0.5331 -0.4001  0.7097
63186SOL    HW299489   8.805  12.925   7.807  0.2653 -0.5446 -0.0141
63187SOL     OW99490  10.287   7.688   4.224 -0.6380 -0.4050 -0.1565
63187SOL    HW199491  10.316   7.774   4.256  0.3308 -0.7458 -0.0880
63187SOL    HW299492  10.234   7.709   4.147  0.5430  0.2244 -0.8385
63188SOL     OW99493  10.283   4.017   5.392 -0.2903  0.3061  0.5130
63188SOL    HW199494  10.231   4.070   5.332  1.6288  1.9799  0.2091
63188SOL    HW299495  10.236   4.021   5.475 -1.0753  1.0366  0.0503
63189SOL     OW99496  11.218   3.601  11.955 -0.0805  0.1872  0.3633
63189SOL    HW199497  11.251   3.685  11.988  0.9371 -0.6215  1.5120
63189SOL    HW299498  11.297   3.550  11.937 -0.6054 -1.5409  2.4726
63190SOL     OW99499   9.742  11.838   8.025 -0.4715 -0.0111 -0.0242
63190SOL    HW199500   9.668  11.871   7.974 -1.2134 -1.5353 -0.0005
63190SOL    HW299501   9.817  11.843   7.965 -0.6259  1.2981 -0.1364
63191SOL     OW99502   7.663   9.374   8.227 -0.6048  0.1895 -0.0411
63191SOL    HW199503   7.708   9.433   8.167 -2.3374  0.3995 -1.2157
63191SOL    HW299504   7.585   9.346   8.179 -0.8280 -1.5350  1.2276
63192SOL     OW99505   7.311  10.522   9.407 -0.9621  0.1836 -0.5169
63192SOL    HW199506   7.282  10.458   9.472 -0.3594 -0.4065 -0.8148
63192SOL    HW299507   7.371  10.580   9.455 -4.2794  2.9265  0.7573
63193SOL     OW99508   8.404   5.669  11.403  0.0745 -0.6909 -0.4219
63193SOL    HW199509   8.380   5.589  11.450  0.0077 -0.6641 -0.4097
63193SOL    HW299510   8.342   5.675  11.331  1.2341 -1.6612 -1.5574
63194SOL     OW99511   5.545   5.677   7.032  0.3164 -0.5771  0.1682
63194SOL    HW199512   5.582   5.590   7.044 -1.4911 -1.5198 -0.5748
63194SOL    HW299513   5.617   5.738   7.051  2.6486 -2.2389 -2.5605
63195SOL     OW99514   5.479   2.690   0.236  0.1496  0.0233 -0.2248
63195SOL    HW199515   5.409   2.661   0.294 -1.4399  1.2157 -1.4598
63195SOL    HW299516   5.437   2.752   0.176  2.1249  0.2838 -1.4402
63196SOL     OW99517   4.865   0.194  11.879  0.4640  0.1923 -0.8733
63196SOL    HW199518   4.833   0.118  11.927 -3.0276  1.4674 -0.9534
63196SOL    HW299519   4.814   0.195  11.798  0.5211  2.5026 -0.9552
63197SOL     OW99520   7.892   1.144   3.977 -0.4546 -0.2214  0.4406
63197SOL    HW199521   7.865   1.137   3.885  1.0784  2.5801 -0.3370
63197SOL    HW299522   7.986   1.123   3.975  0.3673  2.9969  0.7059
63198SOL     OW99523   7.752   0.827  12.547  0.4739  0.1947 -0.2925
63198SOL    HW199524   7.712   0.764  12.488 -0.2786 -0.5662  0.9807
63198SOL    HW299525   7.680   0.883  12.575  0.4434 -0.5397  1.2220
63199SOL     OW99526   2.998   0.166  10.678 -0.7531 -0.0949  0.0755
63199SOL    HW199527   3.083   0.174  10.722 -1.0136 -0.1807  0.6016
63199SOL    HW299528   2.986   0.072  10.667 -0.0548 -0.0326 -1.4517
63200SOL     OW99529   3.394  12.580   2.943 -0.2687  0.1775  0.2928
63200SOL    HW199530   3.447  12.629   2.879  2.7516 -0.5041  2.0684
63200SOL    HW299531   3.430  12.491   2.939 -1.4008 -0.3526  1.5294
63201SOL     OW99532   2.743   5.057   9.191  0.1291  0.4509  0.7357
63201SOL    HW199533   2.779   4.976   9.227  0.8620  0.9917  1.2456
63201SOL    HW299534   2.660   5.069   9.238 -1.4947 -1.5099 -1.3848
63202SOL     OW99535   4.629   3.967  12.353  0.0276 -0.0462  0.3460
63202SOL    HW199536   4.634   3.877  12.320 -0.4204  0.2105 -0.4445
63202SOL    HW299537   4.563   4.009  12.298  0.0283  0.6879  0.8978
63203SOL     OW99538   9.976  10.181   0.538  0.2417 -0.0810 -0.0722
63203SOL    HW199539   9.917  10.254   0.557  0.6425  0.1116  0.4515
63203SOL    HW299540   9.942  10.143   0.457 -1.0206 -0.4086  0.5886
63204SOL     OW99541   4.702   3.231   9.268  0.4414  0.1703  0.5741
63204SOL    HW199542   4.684   3.149   9.222  2.7423 -2.1891  3.4269
63204SOL    HW299543   4.618   3.258   9.304 -0.3085 -1.2347 -0.0573
63205SOL     OW99544   9.261  12.856  12.478  1.0109  0.1919  0.1160
63205SOL    HW199545   9.271  12.780  12.535  1.6682  0.7726  0.8097
63205SOL    HW299546   9.332  12.847  12.414 -0.8674 -1.4746 -1.8803
63206SOL     OW99547   1.678   4.939  12.979  0.3820 -0.1180  0.3868
63206SOL    HW199548   1.672   4.847  13.004  1.2942 -0.2895  0.0287
63206SOL    HW299549   1.743   4.940  12.908 -2.5917  0.2044 -2.5864
63207SOL     OW99550  13.163   9.991   0.737  0.2688  0.0712  0.8036
63207SOL    HW199551  13.130   9.927   0.674  0.5521  1.2382 -0.5920
63207SOL    HW299552  13.118   9.970   0.819 -1.9494 -0.0136 -0.3698
63208SOL     OW99553   5.465   2.730   9.967 -0.1138 -0.0366  0.2295
63208SOL    HW199554   5.489   2.641   9.945 -0.0353  0.2064 -0.7037
63208SOL    HW299555   5.546   2.781   9.956 -0.0137  0.0653  1.3129
63209SOL     OW99556  13.172  12.975  12.859 -0.2422 -0.2739 -0.3609
63209SOL    HW199557  13.230  12.951  12.787 -1.8578 -1.1890 -1.4055
63209SOL    HW299558  13.176  13.071  12.863  0.7152 -0.2856 -0.9294
63210SOL     OW99559  12.119   5.200   1.769  0.1800 -0.6844 -0.4629
63210SOL    HW199560  12.151   5.124   1.720  0.1585 -0.5219 -0.7283
63210SOL    HW299561  12.083   5.259   1.702 -1.2179 -1.1216 -0.1295
63211SOL     OW99562   6.380   8.185  12.645 -0.4862 -0.0831  0.0899
63211SOL    HW199563   6.288   8.164  12.629 -0.1195 -0.3451 -1.9221
63211SOL    HW299564   6.399   8.255  12.583  0.5781  0.2604  0.7828
63212SOL     OW99565   8.600   8.705   7.667  0.0080 -0.2453 -0.0295
63212SOL    HW199566   8.622   8.615   7.688 -0.5590 -0.7489 -1.4574
63212SOL    HW299567   8.657   8.758   7.723  1.7315 -1.4818 -0.5351
63213SOL     OW99568   7.616   6.642   1.242  0.6433 -0.0075 -0.3248
63213SOL    HW199569   7.682   6.574   1.257 -0.1248 -0.5522  0.7212
63213SOL    HW299570   7.556   6.602   1.179  0.1215 -0.3696  0.3868
63214SOL     OW99571   3.828   2.302  11.393 -0.0782  0.2104 -0.0708
63214SOL    HW199572   3.878   2.357  11.332  0.6174 -1.2629 -0.8844
63214SOL    HW299573   3.775   2.246  11.337  1.6306 -2.1671  0.5383
63215SOL     OW99574  12.695   4.735   0.348 -0.4064 -0.0183  0.4295
63215SOL    HW199575  12.701   4.796   0.274  1.3470 -0.9219 -0.2498
63215SOL    HW299576  12.623   4.768   0.401 -0.8957  1.3935 -1.0249
63216SOL     OW99577  11.645  10.516   9.239  0.4066 -0.2846  0.1456
63216SOL    HW199578  11.729  10.474   9.256 -0.3562 -1.9946 -0.1366
63216SOL    HW299579  11.601  10.516   9.325  0.6059  0.4289  0.2529
63217SOL     OW99580  13.131   5.301   2.112  0.4750 -0.0649  0.6514
63217SOL    HW199581  13.067   5.345   2.168  2.5775  0.8119  2.5033
63217SOL    HW299582  13.091   5.215   2.094 -3.3837  2.0549 -2.4352
63218SOL     OW99583  12.617   8.208   8.889 -0.3491  0.1610 -0.2278
63218SOL    HW199584  12.665   8.248   8.816 -0.2928 -0.4124 -0.5112
63218SOL    HW299585  12.645   8.117   8.889  0.9601  0.5074  1.5833
63219SOL     OW99586   1.216   9.361   0.825  0.0926 -0.0844 -0.2680
63219SOL    HW199587   1.216   9.392   0.916 -1.2204  0.3965 -0.4065
63219SOL    HW299588   1.236   9.439   0.773 -1.2988  0.1462 -0.5004
63220SOL     OW99589   0.030   5.822   2.601  0.3706  0.2352 -0.4177
63220SOL    HW199590   0.016   5.736   2.561 -0.4433  0.3768 -0.4697
63220SOL    HW299591   0.105   5.810   2.659  0.4059 -0.4529 -0.5938
63221SOL     OW99592   8.524   6.324   3.215 -0.1301  0.2563 -0.1336
63221SOL    HW199593   8.510   6.246   3.161 -0.0413  1.7142 -2.3431
63221SOL    HW299594   8.615   6.316   3.245 -0.8026 -1.6237  1.6981
63222SOL     OW99595   8.671  10.293   3.626 -0.1588  0.2487 -0.0619
63222SOL    HW199596   8.696  10.259   3.540 -1.6244  1.1868 -0.9070
63222SOL    HW299597   8.715  10.236   3.688 -0.8890 -1.8760 -1.4061
63223SOL     OW99598  11.322   8.329   2.650  0.1562 -0.1721 -0.0874
63223SOL    HW199599  11.344   8.340   2.557  4.1348 -2.1501  0.4125
63223SOL    HW299600  11.325   8.418   2.685 -1.0192  0.5747 -1.7322
63224SOL     OW99601  11.259   0.163   6.556  0.1586  0.2741 -0.3177
63224SOL    HW199602  11.347   0.146   6.588  0.3162 -0.8773 -1.2835
63224SOL    HW299603  11.272   0.202   6.469 -0.1439 -3.9841 -2.5582
63225SOL     OW99604   1.091   0.500   1.698 -0.3617  0.0984 -0.2076
63225SOL    HW199605   1.117   0.572   1.640  1.3843  1.4767  2.1416
63225SOL    HW299606   0.995   0.508   1.705 -0.2409  1.9549 -0.2971
63226SOL     OW99607   3.236   1.877   3.677 -0.1677  0.8940 -0.6181
63226SOL    HW199608   3.273   1.947   3.730  0.8736  0.4787 -0.7790
63226SOL    HW299609   3.290   1.800   3.696 -1.4236  0.0591 -0.2640
63227SOL     OW99610  11.290   4.419   9.284 -0.1500  0.4386 -0.1764
63227SOL    HW199611  11.246   4.387   9.205  0.0506 -0.4410  0.0621
63227SOL    HW299612  11.274   4.514   9.283 -0.7234  0.3460 -0.9111
63228SOL     OW99613  11.097  11.353   3.153  0.3967  0.0557 -0.4373
63228SOL    HW199614  11.015  11.399   3.136  0.7964  1.4417  1.1914
63228SOL    HW299615  11.095  11.279   3.092 -1.8215  0.3199 -0.7857
63229SOL     OW99616   9.642  11.886  13.025  0.2367  0.0159  0.6340
63229SOL    HW199617   9.694  11.921  12.953  0.5441 -1.3982  0.1348
63229SOL    HW299618   9.553  11.917  13.008  0.2635 -0.4734 -0.4776
63230SOL     OW99619   0.521   1.873  13.014 -0.3032 -0.1669 -0.6156
63230SOL    HW199620   0.556   1.867  13.103  0.4114  1.9560 -0.6920
63230SOL    HW299621   0.452   1.940  13.021 -0.6173 -0.3880 -1.5411
63231SOL     OW99622   7.555   5.100   4.210 -0.3298 -0.4632 -0.2211
63231SOL    HW199623   7.579   5.129   4.122 -0.8425  0.8482  0.0445
63231SOL    HW299624   7.494   5.167   4.241 -0.1889 -0.9270  1.1188
63232SOL     OW99625  12.936   7.217   8.126  0.2626  0.2105  0.2448
63232SOL    HW199626  12.961   7.125   8.116 -0.8873 -0.2293  1.1608
63232SOL    HW299627  12.860   7.228   8.070 -0.0722  0.3863  0.7218
63233SOL     OW99628   5.593   1.540   6.469  0.7896  0.2797  0.1681
63233SOL    HW199629   5.677   1.496   6.484  0.6488 -0.0096  0.1133
63233SOL    HW299630   5.527   1.473   6.488  0.5659  0.6013  0.5198
63234SOL     OW99631   2.257   7.527   6.292  0.6161  0.3434  0.2533
63234SOL    HW199632   2.163   7.541   6.282  0.4515  1.6162  2.6763
63234SOL    HW299633   2.297   7.600   6.244  0.2967  0.7466  0.5940
63235SOL     OW99634   4.095   2.179  11.718 -0.3032  0.3398 -0.0089
63235SOL    HW199635   4.158   2.213  11.781 -0.1078  0.1376 -0.0965
63235SOL    HW299636   4.049   2.257  11.685  0.3209  0.5442 -0.4080
63236SOL     OW99637   5.431   1.115   9.813 -0.1887 -0.2266  0.3513
63236SOL    HW199638   5.508   1.098   9.867 -0.1925 -0.2429  0.3516
63236SOL    HW299639   5.415   1.033   9.768  0.0535 -0.1001  0.0253
63237SOL     OW99640   0.528  12.397   3.714 -0.3462 -0.2120 -0.0643
63237SOL    HW199641   0.556  12.384   3.805 -0.8579  0.0174  0.1285
63237SOL    HW299642   0.610  12.399   3.664  0.0867  1.7305  0.6387
63238SOL     OW99643   5.848   2.419  10.991 -0.0325 -0.0526 -0.3456
63238SOL    HW199644   5.943   2.422  10.980  0.0017  1.9668  0.1254
63238SOL    HW299645   5.819   2.509  10.972 -1.6772 -0.2952  0.8435
63239SOL     OW99646   4.716   9.258   8.547 -0.1344  1.1350 -0.0395
63239SOL    HW199647   4.653   9.271   8.476  1.7273  0.5768 -1.9119
63239SOL    HW299648   4.790   9.314   8.523  0.4872  1.0398  1.5643
63240SOL     OW99649   7.522   0.019   8.551  0.7101  0.4934 -0.1669
63240SOL    HW199650   7.513  -0.037   8.474  1.2255  0.3352 -0.1177
63240SOL    HW299651   7.433   0.051   8.568  0.3236 -0.6885  0.0961
63241SOL     OW99652  13.014   6.603  11.178 -0.3063 -0.0225  0.4559
63241SOL    HW199653  13.040   6.694  11.165 -0.3437 -0.1299 -0.4272
63241SOL    HW299654  12.919   6.605  11.179 -0.3275  0.1597  2.1525
63242SOL     OW99655  11.768   0.234   6.185 -0.1338  0.1745  0.2727
63242SOL    HW199656  11.730   0.226   6.272  0.5910  0.5032  0.6327
63242SOL    HW299657  11.693   0.244   6.126 -0.6775 -1.0130  0.7377
63243SOL     OW99658  12.544   2.165   2.975  0.0789 -0.4723  0.1489
63243SOL    HW199659  12.638   2.169   2.961 -0.0846 -1.2661 -1.4000
63243SOL    HW299660  12.531   2.196   3.065  1.7593  0.0654  0.2289
63244SOL     OW99661   4.565   3.960   7.923  0.6938  0.1117 -0.1891
63244SOL    HW199662   4.575   4.055   7.923 -2.3459  0.5178 -0.7370
63244SOL    HW299663   4.617   3.931   7.998  0.3653  2.3907  1.0124
63245SOL     OW99664   9.378   3.680   8.630 -0.2862  0.1248 -0.4361
63245SOL    HW199665   9.455   3.661   8.684 -0.3327 -1.1716 -0.7886
63245SOL    HW299666   9.414   3.707   8.545 -0.1899 -0.9925 -0.7712
63246SOL     OW99667  10.692   4.432   0.101  0.2824 -0.8939 -0.1868
63246SOL    HW199668  10.783   4.405   0.093  0.0686 -2.1786  1.2313
63246SOL    HW299669  10.658   4.380   0.174 -1.0834  0.8834  0.5254
63247SOL     OW99670   1.699   3.778  11.620 -0.0005  0.3293 -0.1826
63247SOL    HW199671   1.715   3.866  11.655 -0.2682  0.5700 -0.6506
63247SOL    HW299672   1.605   3.764  11.632  0.4143 -0.9148  2.1954
63248SOL     OW99673   1.120   6.786   2.988  1.0284 -0.0494 -0.2929
63248SOL    HW199674   1.028   6.766   3.004  0.8467  2.1913  2.1488
63248SOL    HW299675   1.167   6.705   3.008 -0.2644 -0.6505  0.4251
63249SOL     OW99676   4.226  12.041   4.569 -0.2159 -0.5165 -0.3338
63249SOL    HW199677   4.163  12.111   4.586  0.0862 -0.4813  0.7780
63249SOL    HW299678   4.269  12.027   4.654  0.2208 -1.5651 -0.7099
63250SOL     OW99679   5.569   1.832   2.711  0.0391 -0.2845 -0.0493
63250SOL    HW199680   5.605   1.759   2.760 -0.7745 -2.2268 -2.1496
63250SOL    HW299681   5.645   1.883   2.684  0.5661  0.1690  2.1261
63251SOL     OW99682   2.533   7.518   2.816  0.6117 -0.5255 -0.3627
63251SOL    HW199683   2.536   7.607   2.780 -3.7086  0.6445  1.5180
63251SOL    HW299684   2.452   7.481   2.781  1.5128 -3.1774  0.1685
63252SOL     OW99685   4.262   9.179   8.242 -0.2439  0.2706 -0.0142
63252SOL    HW199686   4.178   9.135   8.228 -0.4014 -0.0516  1.7293
63252SOL    HW299687   4.304   9.177   8.156 -2.1082  0.6696 -1.0045
63253SOL     OW99688   8.560   5.409   1.625 -0.2597  0.1488 -0.1504
63253SOL    HW199689   8.619   5.451   1.562 -2.0711  1.7352 -0.8858
63253SOL    HW299690   8.508   5.348   1.572 -0.2241 -0.2352  0.2493
63254SOL     OW99691   0.017  11.446   5.124  0.8394  0.2292 -0.0173
63254SOL    HW199692   0.033  11.380   5.056  1.2754  0.0318  0.2790
63254SOL    HW299693   0.076  11.423   5.195 -1.5377 -1.2528  1.6310
63255SOL     OW99694   5.172   4.815   5.404 -0.6713 -0.4283 -0.8874
63255SOL    HW199695   5.092   4.801   5.354  0.1778 -1.6130 -1.9726
63255SOL    HW299696   5.148   4.795   5.494 -0.9092 -4.0243 -1.5901
63256SOL     OW99697   5.626   6.865   5.758  0.5019  0.3157  0.4783
63256SOL    HW199698   5.592   6.946   5.719  2.0590  0.9532  0.3791
63256SOL    HW299699   5.605   6.874   5.851  0.8627  0.9420  0.5044
63257SOL     OW99700   2.559   9.192  11.179 -0.4318  0.1101 -0.3464
63257SOL    HW199701   2.561   9.101  11.148 -0.8678 -0.5109  1.2965
63257SOL    HW299702   2.602   9.242  11.110  0.8658 -1.4995 -0.7871
63258SOL     OW99703  11.256   0.981  11.376 -0.1968  0.3003  0.5806
63258SOL    HW199704  11.166   0.949  11.382  0.4446 -1.9264 -0.6312
63258SOL    HW299705  11.247   1.076  11.367 -2.4731  0.0547 -0.3434
63259SOL     OW99706   2.391   1.908   2.159  0.2942  0.0014  0.0239
63259SOL    HW199707   2.326   1.860   2.108  2.7500 -3.3896 -0.2526
63259SOL    HW299708   2.449   1.946   2.093  2.1965 -2.5410  0.0537
63260SOL     OW99709  10.980   4.161   6.175  0.4990 -0.2617 -0.5321
63260SOL    HW199710  10.899   4.113   6.187  0.6297 -0.5713 -0.8882
63260SOL    HW299711  10.968   4.209   6.093  0.2635  0.5313 -0.0440
63261SOL     OW99712   6.574   8.945   9.160 -0.2229 -0.2117  0.3341
63261SOL    HW199713   6.567   8.996   9.080 -1.9375  0.2478  0.7262
63261SOL    HW299714   6.630   8.997   9.218  0.8780 -0.4641 -0.4722
63262SOL     OW99715   0.518  10.869   3.404 -0.2454  0.1451  0.0676
63262SOL    HW199716   0.463  10.877   3.482 -0.2203 -0.6042  0.1743
63262SOL    HW299717   0.487  10.790   3.361  0.3877  0.0140 -0.1594
63263SOL     OW99718  11.890  12.882  11.136  0.2803  0.4369  0.4493
63263SOL    HW199719  11.802  12.853  11.161  1.0392 -2.1288  0.4094
63263SOL    HW299720  11.940  12.876  11.218  1.7991 -4.1451 -0.5033
63264SOL     OW99721   4.501  12.614   1.127  0.5915 -0.6149  0.1575
63264SOL    HW199722   4.447  12.552   1.077  1.5190 -1.2984 -0.0148
63264SOL    HW299723   4.443  12.689   1.141 -1.5568 -2.5608  2.7435
63265SOL     OW99724   6.856  11.050   9.371 -0.3745  0.7037 -0.3581
63265SOL    HW199725   6.836  11.141   9.347 -2.6326 -0.1559 -2.0787
63265SOL    HW299726   6.843  11.000   9.290  1.2539 -1.1365  0.4311
63266SOL     OW99727   1.201   7.940   6.234 -0.7123  0.4374 -0.5141
63266SOL    HW199728   1.188   8.030   6.264 -2.6883 -0.3788  1.3687
63266SOL    HW299729   1.181   7.942   6.141 -1.4486  1.8151 -0.3513
63267SOL     OW99730   2.265   5.576   5.607  0.2475  0.1935  0.4378
63267SOL    HW199731   2.224   5.624   5.679 -0.5028  1.3699 -0.7257
63267SOL    HW299732   2.212   5.598   5.530  1.6674 -0.1424 -0.6830
63268SOL     OW99733   9.849  11.710  10.601  0.7314 -0.4055 -0.3759
63268SOL    HW199734   9.780  11.717  10.667  0.9899 -1.2266  0.0015
63268SOL    HW299735   9.929  11.696  10.652  0.7865 -2.0911 -0.8583
63269SOL     OW99736   7.463   4.172   4.070 -0.0606  0.3968 -0.3838
63269SOL    HW199737   7.439   4.248   4.123 -0.0486 -0.3405  0.7148
63269SOL    HW299738   7.446   4.199   3.980 -0.1131  1.6746 -0.0092
63270SOL     OW99739   9.102   8.535   0.189  0.3794 -0.3868  0.0818
63270SOL    HW199740   9.166   8.487   0.242  2.0102  0.4798 -1.0154
63270SOL    HW299741   9.071   8.471   0.125  0.3189 -0.7445  0.4625
63271SOL     OW99742   7.907   5.100   2.970 -0.4029  0.3158  0.1877
63271SOL    HW199743   7.946   5.163   3.030 -0.0336  1.1946 -0.9332
63271SOL    HW299744   7.873   5.031   3.026  1.9804 -0.0634  1.2843
63272SOL     OW99745   5.902   6.028  10.636  0.0476 -0.6811 -0.6405
63272SOL    HW199746   5.864   5.985  10.713  2.6206  0.4939  1.4377
63272SOL    HW299747   5.880   6.121  10.647  1.3371 -0.3489 -0.7170
63273SOL     OW99748   0.142   2.644   9.141  0.3931 -0.1304  0.3102
63273SOL    HW199749   0.108   2.557   9.118  0.3367  0.0794 -0.4114
63273SOL    HW299750   0.169   2.635   9.232  3.4703 -1.8547 -0.6264
63274SOL     OW99751   2.077   8.788   5.596  0.2144 -0.4638 -0.3154
63274SOL    HW199752   1.989   8.813   5.626  0.4698  0.0389  0.0200
63274SOL    HW299753   2.068   8.696   5.571 -0.2076 -0.6687  0.5562
63275SOL     OW99754   6.254   3.826   2.003  0.1459  0.0102  0.1162
63275SOL    HW199755   6.340   3.858   2.032  0.7236 -2.4631  1.4046
63275SOL    HW299756   6.243   3.864   1.916  3.2399 -0.7228 -0.7250
63276SOL     OW99757   1.376  10.393   9.740  0.1709  0.3638 -0.1356
63276SOL    HW199758   1.454  10.349   9.772 -1.6829 -3.3948 -0.3053
63276SOL    HW299759   1.343  10.443   9.815  0.9950 -0.5990  0.8924
63277SOL     OW99760   0.813   9.805   2.097  0.4800  0.1733 -0.6228
63277SOL    HW199761   0.824   9.711   2.086 -0.3399 -0.0328  0.1999
63277SOL    HW299762   0.802   9.839   2.008 -1.1231 -0.7622 -0.8096
63278SOL     OW99763   3.730  10.043  10.329 -0.0946 -0.1645  0.2967
63278SOL    HW199764   3.778  10.122  10.352  0.2851 -0.2573 -0.1752
63278SOL    HW299765   3.776  10.008  10.253  0.5403 -1.5356  1.2600
63279SOL     OW99766   4.023   7.473   9.137 -0.4289 -0.7065 -0.0703
63279SOL    HW199767   4.002   7.560   9.102  0.6270  0.3676  1.7977
63279SOL    HW299768   4.062   7.427   9.064  2.0377  1.5664 -0.3542
63280SOL     OW99769   7.615  11.476   1.018 -0.2351 -0.6524  0.2999
63280SOL    HW199770   7.707  11.495   1.032 -0.3241 -0.0705  0.1422
63280SOL    HW299771   7.578  11.559   0.987 -0.6199 -1.1270 -0.5521
63281SOL     OW99772   2.719   9.906   2.485 -0.2452  0.4213  0.0952
63281SOL    HW199773   2.814   9.908   2.486 -0.2009 -0.9551  0.9592
63281SOL    HW299774   2.696   9.904   2.392  0.5418  1.1456 -0.1273
63282SOL     OW99775   8.097   1.500   2.345  0.2550 -0.1821  0.2930
63282SOL    HW199776   8.133   1.568   2.289  3.2182 -2.7983 -1.3240
63282SOL    HW299777   8.158   1.495   2.418 -0.8249 -0.0968  1.2221
63283SOL     OW99778   6.295   2.172   7.991 -0.4972  0.1130  0.5085
63283SOL    HW199779   6.241   2.100   8.024 -1.7381  0.9477  0.3957
63283SOL    HW299780   6.381   2.133   7.975 -1.2929 -1.4673 -0.0918
63284SOL     OW99781   4.286   0.192   7.831 -0.8919 -0.1423 -0.3657
63284SOL    HW199782   4.191   0.193   7.822 -0.7565 -0.7846 -2.2961
63284SOL    HW299783   4.315   0.122   7.772  0.8082  0.4350 -0.2664
63285SOL     OW99784   7.597   8.213  11.044  0.3162 -0.3183  0.0965
63285SOL    HW199785   7.514   8.171  11.022 -1.1260  1.4144  1.8541
63285SOL    HW299786   7.613   8.273  10.971  0.1408 -0.8070 -0.3524
63286SOL     OW99787   9.635   2.070   4.369  0.0828 -0.6430  0.2461
63286SOL    HW199788   9.647   1.982   4.406  0.8668  0.0799  1.7928
63286SOL    HW299789   9.717   2.087   4.322 -0.3550 -1.0037 -0.6706
63287SOL     OW99790  10.913   4.541  13.188 -0.6262 -0.0441  0.1020
63287SOL    HW199791  10.925   4.561  13.281  1.3433  0.7174 -0.2497
63287SOL    HW299792  10.939   4.621  13.143  0.3804 -1.0209 -1.1462
63288SOL     OW99793   2.167   2.196  11.720  0.4851  0.4475 -0.0303
63288SOL    HW199794   2.171   2.290  11.735 -1.6023  0.4842  0.6485
63288SOL    HW299795   2.140   2.159  11.804  0.4150 -0.6546 -0.5186
63289SOL     OW99796   2.630  10.681   8.282  0.1324 -0.4137  0.0678
63289SOL    HW199797   2.557  10.654   8.226 -0.7381 -0.9554  1.4161
63289SOL    HW299798   2.644  10.607   8.341  2.0569 -0.4777 -0.4093
63290SOL     OW99799   6.915  10.763   6.042  0.0193  0.0840  0.2512
63290SOL    HW199800   6.980  10.740   6.108 -0.8317  0.1440  1.1279
63290SOL    HW299801   6.854  10.690   6.041 -0.5365  0.5379  0.2653
63291SOL     OW99802   1.693   5.454   0.469  0.4102 -0.8340  0.0994
63291SOL    HW199803   1.642   5.376   0.492 -0.9866 -0.2319 -0.8517
63291SOL    HW299804   1.661   5.480   0.383  0.6724  0.9471  0.5035
63292SOL     OW99805  12.162   6.874   6.850 -0.3594  0.1708 -0.1572
63292SOL    HW199806  12.144   6.911   6.937  0.9267 -4.2569  2.3082
63292SOL    HW299807  12.257   6.881   6.841 -0.5052  0.7749 -1.3703
63293SOL     OW99808   7.390   3.515   4.192  0.4218  0.3716 -0.1790
63293SOL    HW199809   7.422   3.561   4.114 -0.6193 -1.8620 -2.0638
63293SOL    HW299810   7.469   3.496   4.242  1.2230  1.1992 -1.0856
63294SOL     OW99811   1.749   2.654   7.243 -0.2264 -0.0308  0.1413
63294SOL    HW199812   1.794   2.603   7.310 -0.4742  1.1762  1.2597
63294SOL    HW299813   1.797   2.635   7.162  1.4894  0.2127  1.0527
63295SOL     OW99814   1.724  11.093   3.258 -0.6090 -0.1694 -0.7166
63295SOL    HW199815   1.701  11.167   3.314 -0.0295 -1.9675  2.0928
63295SOL    HW299816   1.798  11.125   3.206  0.3846  0.9354  1.2526
63296SOL     OW99817  11.384   1.603   0.696  0.3234 -1.0276  0.3505
63296SOL    HW199818  11.382   1.522   0.747  0.0194 -0.6189  1.0074
63296SOL    HW299819  11.471   1.639   0.712 -0.3381 -0.0500  1.9797
63297SOL     OW99820   0.841   0.551   7.592  0.7784  0.3842 -0.1024
63297SOL    HW199821   0.759   0.542   7.641 -0.0602  2.3995 -1.0352
63297SOL    HW299822   0.904   0.498   7.641 -0.8810 -0.6014  1.0700
63298SOL     OW99823   2.876   3.627  11.057  0.2476 -0.0204  0.3730
63298SOL    HW199824   2.795   3.654  11.015 -0.1426 -0.7788  0.6239
63298SOL    HW299825   2.864   3.535  11.077  0.9415 -0.0002  0.9548
63299SOL     OW99826   5.738  11.029   3.409 -0.0905 -0.0243  0.2317
63299SOL    HW199827   5.741  11.124   3.394  1.2953 -0.4984 -3.3908
63299SOL    HW299828   5.700  11.021   3.497  1.2422  3.8956  1.4196
63300SOL     OW99829   6.450   8.732  13.115  0.0401  0.0996  0.3410
63300SOL    HW199830   6.488   8.806  13.067  1.8942 -1.1566 -0.2577
63300SOL    HW299831   6.432   8.767  13.203 -2.1818  2.0871 -0.7742
63301SOL     OW99832   8.236   0.911  12.874 -0.2301 -0.1112 -0.4720
63301SOL    HW199833   8.193   0.913  12.959 -1.4212 -0.9990 -1.0117
63301SOL    HW299834   8.190   0.976  12.822  0.8268  0.7923 -0.3160
63302SOL     OW99835  13.202   3.237   7.926 -0.4613 -0.3260  0.1272
63302SOL    HW199836  13.133   3.237   7.993 -0.5617 -0.0222  0.0237
63302SOL    HW299837  13.219   3.144   7.910 -0.9820 -0.4063  0.0189
63303SOL     OW99838   4.200   7.896   6.257 -0.0687  0.2255 -0.6151
63303SOL    HW199839   4.278   7.944   6.285 -1.3586  1.8072  0.4787
63303SOL    HW299840   4.151   7.880   6.338 -0.5886 -1.3049 -1.1961
63304SOL     OW99841  10.893   8.035   9.063  0.1473  0.0615 -0.1069
63304SOL    HW199842  10.872   7.943   9.079 -0.3635  0.1531 -0.2248
63304SOL    HW299843  10.964   8.033   8.998 -0.7454 -0.2302 -1.0939
63305SOL     OW99844   0.316   7.123   1.855 -0.4117 -0.0007 -0.2822
63305SOL    HW199845   0.281   7.141   1.943 -1.3950 -1.4155 -0.3464
63305SOL    HW299846   0.391   7.065   1.871 -0.4863 -0.1182 -0.3525
63306SOL     OW99847   7.140  12.787   9.159 -0.3005  0.2755 -0.7359
63306SOL    HW199848   7.128  12.763   9.251  0.4744 -1.4971 -1.0637
63306SOL    HW299849   7.065  12.843   9.139 -0.8554  0.1095  0.7799
63307SOL     OW99850  10.880   2.930  12.307 -0.9743 -0.0407  0.2225
63307SOL    HW199851  10.901   2.837  12.315 -2.1002 -0.2020  1.7498
63307SOL    HW299852  10.909   2.954  12.219  0.7506 -1.4434  0.3589
63308SOL     OW99853  10.051   8.721   1.595  0.0862  0.4895 -0.2651
63308SOL    HW199854  10.017   8.725   1.505 -0.4008  0.9433 -0.0652
63308SOL    HW299855  10.106   8.799   1.604  2.7582 -1.1353 -1.1812
63309SOL     OW99856   7.528   0.849  11.380 -0.1023  0.1446  0.2767
63309SOL    HW199857   7.581   0.919  11.418 -1.6252  1.8858 -0.6834
63309SOL    HW299858   7.506   0.793  11.454  0.1546  1.3407  1.2938
63310SOL     OW99859   9.293   0.183   0.503 -0.0055 -0.0968 -0.1425
63310SOL    HW199860   9.199   0.175   0.493  0.1105 -0.2918 -1.1658
63310SOL    HW299861   9.308   0.170   0.597 -0.8673 -1.3963 -0.1529
63311SOL     OW99862  12.488   0.848  13.052  0.3238 -0.3017 -0.0312
63311SOL    HW199863  12.456   0.758  13.046  0.2848 -0.3333  0.5474
63311SOL    HW299864  12.493   0.865  13.146 -0.3860  0.5523 -0.1323
63312SOL     OW99865   5.179  10.997   9.363  0.0751 -0.0663 -0.2698
63312SOL    HW199866   5.176  11.019   9.456 -1.2526 -2.2168  0.2665
63312SOL    HW299867   5.089  11.009   9.332 -0.6171 -3.6501 -0.0849
63313SOL     OW99868  11.595  13.041   7.356  0.2058 -0.6337  0.3835
63313SOL    HW199869  11.615  12.948   7.345  0.3713 -0.6049  0.4321
63313SOL    HW299870  11.573  13.071   7.268 -0.3206 -0.8252  0.4462
63314SOL     OW99871   1.055  10.988  10.420  0.0619 -0.4799 -0.6447
63314SOL    HW199872   1.065  10.908  10.472 -0.3474  1.1474  2.1684
63314SOL    HW299873   0.961  11.008  10.424  0.5310  1.8114  1.6211
63315SOL     OW99874  13.108   0.671   3.034  0.0023 -0.1356 -0.2546
63315SOL    HW199875  13.202   0.660   3.052  0.1855 -0.3649 -1.2639
63315SOL    HW299876  13.096   0.633   2.947 -0.7821  1.0992 -0.7106
63316SOL     OW99877   4.784  10.608   4.853  0.1273  0.1640  0.0227
63316SOL    HW199878   4.757  10.688   4.896  0.8408  0.1260  0.5544
63316SOL    HW299879   4.810  10.549   4.924 -0.7278 -0.6829 -0.3280
63317SOL     OW99880   7.768  10.892  13.129 -0.4829  0.4256  0.0578
63317SOL    HW199881   7.825  10.816  13.145  0.3961  0.7945 -1.1546
63317SOL    HW299882   7.826  10.967  13.138 -0.7324  0.8088 -1.2885
63318SOL     OW99883  10.114   6.753   9.130 -0.3222  0.3741 -0.3387
63318SOL    HW199884  10.046   6.811   9.095 -0.1210  0.9296  0.1769
63318SOL    HW299885  10.093   6.745   9.223 -0.2386 -0.2353 -0.3672
63319SOL     OW99886   5.058   3.165   0.902  0.1996  0.8340 -0.1765
63319SOL    HW199887   5.139   3.166   0.954  1.0431 -0.4546 -1.3803
63319SOL    HW299888   5.056   3.251   0.861  1.7232  0.4335 -1.1838
63320SOL     OW99889  10.217   7.682   5.403 -0.1190 -0.4947 -0.9096
63320SOL    HW199890  10.169   7.762   5.381 -1.3942  0.1223  3.2280
63320SOL    HW299891  10.150   7.618   5.425  0.7925 -0.6050  1.9569
63321SOL     OW99892   2.009  12.018   9.026 -0.0670  0.6579  0.1590
63321SOL    HW199893   1.983  12.110   9.023  1.3239  1.0859  0.3752
63321SOL    HW299894   1.971  11.980   8.946 -1.6660  1.1068  0.6761
63322SOL     OW99895   3.628   3.412  10.611  0.0773 -0.1889 -0.8554
63322SOL    HW199896   3.570   3.343  10.645  0.1698  0.6783  1.2035
63322SOL    HW299897   3.631   3.396  10.517 -2.3063 -1.1957 -0.8491
63323SOL     OW99898  11.680  10.358   3.132 -0.1468  0.0841 -0.2826
63323SOL    HW199899  11.745  10.399   3.189  1.0184 -2.4769  0.3657
63323SOL    HW299900  11.726  10.285   3.092 -2.9384 -2.8398  1.4010
63324SOL     OW99901  11.472   7.854   0.594 -0.4239 -0.0935  0.1802
63324SOL    HW199902  11.468   7.949   0.590 -2.6624 -0.0586  1.4023
63324SOL    HW299903  11.527   7.835   0.670  1.5744  0.1325 -1.1476
63325SOL     OW99904   1.618   9.251   8.579 -0.1496  0.5603  0.1395
63325SOL    HW199905   1.529   9.250   8.544  0.3520 -1.8268 -1.2300
63325SOL    HW299906   1.653   9.335   8.550 -1.5915  1.0926 -0.1808
63326SOL     OW99907   8.794  13.301  12.309 -0.0220  0.1498 -0.4521
63326SOL    HW199908   8.883  13.282  12.340 -0.7439  0.1832  1.8679
63326SOL    HW299909   8.769  13.224  12.258  0.7850 -0.5761  0.2167
63327SOL     OW99910  12.610   8.644   7.272 -0.5927  0.0154  0.1030
63327SOL    HW199911  12.535   8.646   7.331 -0.3927  0.1297  0.3538
63327SOL    HW299912  12.590   8.710   7.205 -1.5647 -1.2199 -0.8812
63328SOL     OW99913   9.934  11.203   4.245 -0.4837  0.9442 -0.5668
63328SOL    HW199914   9.936  11.289   4.286  1.4176 -1.0612  4.2957
63328SOL    HW299915   9.845  11.172   4.260 -0.9127  1.6254 -1.5549
63329SOL     OW99916   3.173   0.710  13.079 -0.3312 -0.2050 -0.2272
63329SOL    HW199917   3.122   0.787  13.102 -0.7604 -0.8838  1.2265
63329SOL    HW299918   3.173   0.709  12.983 -0.2956  1.5815 -0.2784
63330SOL     OW99919   9.134   9.936  11.390 -0.2984  0.4029  0.1069
63330SOL    HW199920   9.206   9.997  11.404  0.0829  0.0318 -0.2099
63330SOL    HW299921   9.065   9.988  11.349  0.8077  0.1781 -2.1873
63331SOL     OW99922   0.862   9.402   0.767  0.5681  0.1340  0.2892
63331SOL    HW199923   0.906   9.399   0.853  0.2686 -4.0840  0.5444
63331SOL    HW299924   0.913   9.341   0.713 -1.6350 -0.4945 -1.2077
63332SOL     OW99925   0.366   3.621   1.356  0.0019  0.1688 -0.3698
63332SOL    HW199926   0.365   3.572   1.273 -0.7396 -1.3635  0.4906
63332SOL    HW299927   0.297   3.687   1.345  0.1595  0.2279 -1.1008
63333SOL     OW99928   2.170  12.680   4.385 -0.9255 -0.5398 -0.1346
63333SOL    HW199929   2.142  12.699   4.296  4.3302 -0.4135 -2.0804
63333SOL    HW299930   2.194  12.766   4.421  2.9223 -0.9824 -1.1764
63334SOL     OW99931   9.801   5.899   2.375 -0.0894 -0.1437  0.4272
63334SOL    HW199932   9.730   5.945   2.420 -0.0852 -0.8795  1.1992
63334SOL    HW299933   9.862   5.875   2.445  0.5851 -0.1179 -0.1446
63335SOL     OW99934  10.577   4.610   5.754 -0.0630 -1.0251 -0.2315
63335SOL    HW199935  10.533   4.526   5.772 -1.0695 -0.2867  0.9586
63335SOL    HW299936  10.611   4.637   5.839  1.9509 -1.1139 -0.9588
63336SOL     OW99937  13.184  10.670   3.856  0.1586 -0.2150 -0.7538
63336SOL    HW199938  13.176  10.586   3.810 -1.0327 -0.3393 -0.3586
63336SOL    HW299939  13.100  10.713   3.841 -1.1217 -1.0996  2.8581
63337SOL     OW99940   1.837   8.811   7.100  0.2837  0.1707  0.3064
63337SOL    HW199941   1.815   8.828   7.191  1.1940  1.4724  0.3094
63337SOL    HW299942   1.763   8.847   7.050 -0.2645 -0.6379  0.5168
63338SOL     OW99943   2.285   0.124   2.688  0.3300 -0.5485 -0.0478
63338SOL    HW199944   2.334   0.045   2.710 -2.0303 -2.1710 -0.1623
63338SOL    HW299945   2.351   0.191   2.674  2.4057 -2.3238  0.7533
63339SOL     OW99946  11.030   9.239   4.435 -0.3059 -0.0941 -0.0572
63339SOL    HW199947  11.075   9.189   4.367  0.8927  1.7752 -0.7200
63339SOL    HW299948  11.044   9.331   4.411 -0.3359  0.6336  2.3940
63340SOL     OW99949   5.990   1.364   6.909  0.0274  0.0524 -0.0939
63340SOL    HW199950   6.067   1.350   6.854 -1.4623 -0.5056 -2.1890
63340SOL    HW299951   5.916   1.361   6.848 -1.7760 -0.7646  1.9747
63341SOL     OW99952   6.724  10.224   7.173  0.5248 -0.2033 -0.0754
63341SOL    HW199953   6.652  10.163   7.155  0.5130 -0.8770  1.9790
63341SOL    HW299954   6.802  10.168   7.176  0.9413  0.3169 -0.9378
63342SOL     OW99955   1.402  12.420   0.608  0.1492  0.2670 -0.0074
63342SOL    HW199956   1.436  12.376   0.685 -1.1937 -0.0824  0.4166
63342SOL    HW299957   1.311  12.389   0.601  0.2042  0.3768 -1.6498
63343SOL     OW99958   3.368   8.641  12.984 -0.2057 -0.3455 -0.4916
63343SOL    HW199959   3.305   8.613  13.051  0.7062 -0.7566  0.2229
63343SOL    HW299960   3.437   8.575  12.987 -1.1506 -1.5863 -3.3751
63344SOL     OW99961  12.105   2.451   6.620  0.3269 -0.5638  0.7175
63344SOL    HW199962  12.129   2.538   6.653 -1.7304  0.2801  0.1743
63344SOL    HW299963  12.010   2.455   6.609  0.5466 -1.7406 -2.6068
63345SOL     OW99964   0.118   3.777  11.490 -0.4114 -0.3613  0.1299
63345SOL    HW199965   0.210   3.772  11.517 -0.3573  0.1472  0.0547
63345SOL    HW299966   0.096   3.688  11.463 -0.3796 -0.8291  1.5526
63346SOL     OW99967  11.285   0.968   9.145 -0.6344 -0.2445  0.0085
63346SOL    HW199968  11.345   0.934   9.211 -1.4494 -1.8344 -0.0247
63346SOL    HW299969  11.272   0.895   9.085 -1.2151  0.6470 -0.9802
63347SOL     OW99970   6.757   5.542  11.984  0.3293  0.2364  0.3268
63347SOL    HW199971   6.754   5.448  12.001  1.2476 -0.1500 -1.4566
63347SOL    HW299972   6.846   5.568  12.005  0.3162  0.5416  0.0114
63348SOL     OW99973   2.342  10.537  12.997  0.0559  0.0442 -0.3511
63348SOL    HW199974   2.335  10.490  13.080 -1.0469  1.0620  0.1703
63348SOL    HW299975   2.360  10.628  13.022  0.1564  0.2794 -1.2430
63349SOL     OW99976   9.001   9.714   8.216 -0.0719  0.0266 -0.0228
63349SOL    HW199977   9.067   9.671   8.270 -1.4319 -1.2778  0.6527
63349SOL    HW299978   9.009   9.807   8.239  1.0638 -0.1863  0.5333
63350SOL     OW99979   1.817   1.594  11.015  0.3656  0.3540 -0.2182
63350SOL    HW199980   1.811   1.594  10.919 -2.4804 -0.3738 -0.1452
63350SOL    HW299981   1.790   1.505  11.040  2.4579  0.0682  1.2693
63351SOL     OW99982   8.333   6.756  11.554 -0.2127  0.0214  0.2931
63351SOL    HW199983   8.298   6.680  11.601 -1.3403  1.5838  2.1168
63351SOL    HW299984   8.257   6.811  11.538  0.5373  0.6138 -1.3412
63352SOL     OW99985  12.928  12.995   8.895  0.3437  0.1600  0.2277
63352SOL    HW199986  12.947  12.906   8.926 -2.1193  0.2992  2.4626
63352SOL    HW299987  12.880  12.982   8.813  0.1935 -0.5701  0.4229
63353SOL     OW99988   7.424   6.792  13.249  0.1857  0.6285 -0.9788
63353SOL    HW199989   7.465   6.804  13.335 -0.6534 -0.2714 -0.4442
63353SOL    HW299990   7.438   6.700  13.228 -1.4475  0.3285 -0.8356
63354SOL     OW99991   7.973  10.487  11.210  0.2524 -0.2153  0.1564
63354SOL    HW199992   7.907  10.491  11.279 -1.0052  2.9414 -1.0452
63354SOL    HW299993   8.056  10.499  11.256 -0.3285 -0.6246  1.3409
63355SOL     OW99994  12.313  10.594   6.626 -0.1188  0.0206 -0.1538
63355SOL    HW199995  12.243  10.530   6.617  0.9137 -1.0995 -0.4300
63355SOL    HW299996  12.377  10.552   6.683  0.9737  0.4410 -1.0385
63356SOL     OW99997  11.557  11.424  11.023 -1.0415 -0.0289 -0.0196
63356SOL    HW199998  11.545  11.409  10.929  1.2939 -0.9860 -0.2406
63356SOL    HW299999  11.639  11.471  11.030 -0.3690 -1.3180  1.5875
63357SOL     OW    0   0.201   8.620   9.397  0.0656 -0.5982  0.5753
63357SOL    HW1    1   0.213   8.711   9.426 -0.5974 -0.1118 -0.5739
63357SOL    HW2    2   0.273   8.572   9.436 -0.8828 -0.0474  3.1688
63358SOL     OW    3  10.662   7.737   5.914 -0.0935 -0.0601  0.0970
63358SOL    HW1    4  10.712   7.666   5.874  1.2094 -0.1681  1.7980
63358SOL    HW2    5  10.670   7.810   5.853  0.5129 -0.6758 -0.5721
63359SOL     OW    6  12.638   7.572   1.867 -0.0380 -0.1668 -0.0563
63359SOL    HW1    7  12.601   7.605   1.785 -2.7473 -0.9479  0.7302
63359SOL    HW2    8  12.732   7.584   1.858 -0.3134  0.5627 -2.9130
63360SOL     OW    9   0.029   9.139   3.765 -0.2320  0.0203 -0.3692
63360SOL    HW1   10  -0.049   9.194   3.756  0.6522  1.4320  0.2308
63360SOL    HW2   11   0.040   9.097   3.679  0.6146  2.9581 -1.8179
63361SOL     OW   12   0.787   4.098  11.309  1.1563  0.6715 -0.1222
63361SOL    HW1   13   0.711   4.117  11.254  0.7224 -0.1521  0.1722
63361SOL    HW2   14   0.755   4.109  11.398  0.6139 -2.1653  0.1155
63362SOL     OW   15   9.991   0.203  11.436  0.3746  0.0330 -0.6410
63362SOL    HW1   16   9.914   0.152  11.463  0.7033  0.0106  0.2967
63362SOL    HW2   17  10.065   0.149  11.463  0.7813  1.7360  2.0249
63363SOL     OW   18   9.437  12.178  10.230 -0.0385 -0.2956 -0.5316
63363SOL    HW1   19   9.347  12.212  10.228 -0.6544 -1.7888  0.5081
63363SOL    HW2   20   9.487  12.247  10.274 -0.4973  0.8672 -1.7460
63364SOL     OW   21  12.521   7.345   3.115  0.2267 -0.5298 -0.0634
63364SOL    HW1   22  12.508   7.318   3.206 -0.3067  1.6463  0.5676
63364SOL    HW2   23  12.444   7.399   3.095  1.4844  1.0048 -0.9942
63365SOL     OW   24   1.579  10.973   7.659 -0.2083  0.4058  0.4576
63365SOL    HW1   25   1.669  11.002   7.671  1.1208 -1.9014 -2.4859
63365SOL    HW2   26   1.545  11.026   7.587 -1.6724  1.9957  2.2360
63366SOL     OW   27   8.515   8.311   5.376  0.6129 -0.0583  0.2775
63366SOL    HW1   28   8.421   8.324   5.379  0.6854  1.0444 -1.0477
63366SOL    HW2   29   8.528   8.248   5.305  0.9341  1.0018 -0.6436
63367SOL     OW   30  11.650   7.602   0.243  0.0817  0.3383  0.2144
63367SOL    HW1   31  11.603   7.519   0.253 -0.6029  0.3633 -2.0914
63367SOL    HW2   32  11.591   7.668   0.280  0.7025 -0.1543  2.2156
63368SOL     OW   33  10.634  10.383   4.097  0.5133 -0.0416 -0.7627
63368SOL    HW1   34  10.624  10.472   4.064 -0.8076  0.9688  2.0395
63368SOL    HW2   35  10.546  10.346   4.094  1.2139 -1.7180 -2.8743
63369SOL     OW   36  10.224   2.112   4.097  0.4106 -0.1373  0.0787
63369SOL    HW1   37  10.182   2.028   4.080  1.5274 -0.6523 -0.2192
63369SOL    HW2   38  10.251   2.143   4.010  2.7552 -0.9661  0.4537
63370SOL     OW   39   1.746   3.654   1.440  0.3302 -0.0605  0.5714
63370SOL    HW1   40   1.690   3.579   1.423  0.4956  0.1583 -1.2210
63370SOL    HW2   41   1.807   3.625   1.507  1.1642 -1.9734 -0.9317
63371SOL     OW   42   2.050   0.866  11.175 -0.0849 -0.4585  0.0819
63371SOL    HW1   43   2.024   0.848  11.085 -0.8131 -0.2504  0.2414
63371SOL    HW2   44   2.024   0.957  11.190 -0.0650 -0.5223  0.5325
63372SOL     OW   45   2.198   2.255  12.650  0.5211  0.5884  0.2186
63372SOL    HW1   46   2.281   2.280  12.609 -0.4312  0.7525 -1.7040
63372SOL    HW2   47   2.154   2.339  12.667  0.4465  0.4711  0.6248
63373SOL     OW   48   5.061   0.955   1.262 -0.6311 -0.9205 -0.1129
63373SOL    HW1   49   5.130   0.889   1.252  0.1024 -0.1732 -0.1494
63373SOL    HW2   50   5.053   0.966   1.357  2.6217  2.2528  0.0284
63374SOL     OW   51  11.461   3.618   2.175  0.0309  0.1810 -0.2567
63374SOL    HW1   52  11.419   3.612   2.261  0.9383 -0.9831  0.1430
63374SOL    HW2   53  11.428   3.542   2.127  2.9309 -1.8787  0.7115
63375SOL     OW   54   4.058  11.760   8.646  0.0781 -0.3528  0.5066
63375SOL    HW1   55   4.007  11.837   8.668 -0.2822 -0.3180 -0.3939
63375SOL    HW2   56   4.149  11.785   8.664  0.0970  0.7294 -0.8833
63376SOL     OW   57   6.568   0.508   7.005 -0.6180 -0.5401 -0.0059
63376SOL    HW1   58   6.610   0.422   6.998 -2.3953 -1.4791  0.2583
63376SOL    HW2   59   6.553   0.520   7.098 -0.2138  0.1495 -0.0285
63377SOL     OW   60   2.593   8.258   2.969 -0.0021 -0.1860 -0.4988
63377SOL    HW1   61   2.580   8.291   2.880  1.2406 -0.4142 -0.7809
63377SOL    HW2   62   2.584   8.336   3.025 -0.1413  0.0722 -0.8777
63378SOL     OW   63   5.380   7.671   6.902 -0.1080  0.0451  0.4295
63378SOL    HW1   64   5.405   7.579   6.888 -0.4383  0.1040 -0.6405
63378SOL    HW2   65   5.292   7.677   6.864 -0.9735  0.3044  2.3620
63379SOL     OW   66   5.153   1.619   1.359 -0.1913  0.9579 -0.0830
63379SOL    HW1   67   5.108   1.565   1.294  0.3806  0.2093  0.1246
63379SOL    HW2   68   5.132   1.579   1.443 -0.1101  1.3158  0.1109
63380SOL     OW   69   9.104  11.030   9.645  0.1347  0.4618  0.1284
63380SOL    HW1   70   9.055  11.026   9.727  1.1253 -0.8269  0.6855
63380SOL    HW2   71   9.181  11.082   9.666  0.7700 -0.5025  0.2447
63381SOL     OW   72   9.404   2.083   4.757  0.6758  0.5277  0.2069
63381SOL    HW1   73   9.367   2.032   4.684  0.8037 -1.3057  1.3469
63381SOL    HW2   74   9.341   2.152   4.773  0.1355  0.3374 -0.9662
63382SOL     OW   75   1.247  10.544   5.916  0.2944  0.4745 -0.6193
63382SOL    HW1   76   1.185  10.473   5.896  1.2185 -0.1398 -1.4060
63382SOL    HW2   77   1.221  10.574   6.003 -0.7855 -0.1098 -0.7156
63383SOL     OW   78   3.543   1.979   7.395 -0.5472 -0.5121  0.6698
63383SOL    HW1   79   3.490   2.058   7.381 -0.3084 -0.4007  0.3672
63383SOL    HW2   80   3.622   1.994   7.343 -0.9150 -1.3599 -0.1601
63384SOL     OW   81   5.309  10.313   1.902  0.0561 -0.6286  0.6531
63384SOL    HW1   82   5.350  10.396   1.929  0.8245 -0.8801  0.2795
63384SOL    HW2   83   5.289  10.325   1.809 -1.7887 -0.0873  1.0789
63385SOL     OW   84  11.465  11.021   7.543  0.0187  0.2774 -0.1635
63385SOL    HW1   85  11.398  11.033   7.476 -0.5009 -2.5124 -0.2825
63385SOL    HW2   86  11.534  10.973   7.498  0.8851  0.7264  0.6589
63386SOL     OW   87  11.148  11.819  13.259  0.3040 -0.3863 -0.3706
63386SOL    HW1   88  11.056  11.793  13.264  0.1650  0.2311  0.4735
63386SOL    HW2   89  11.160  11.879  13.333  1.3063 -0.2192 -0.6576
63387SOL     OW   90  10.289  12.588   0.478  0.3675 -0.2546 -1.3062
63387SOL    HW1   91  10.310  12.636   0.398 -0.4928 -0.4227 -1.6515
63387SOL    HW2   92  10.229  12.519   0.449 -0.1373 -0.1772 -0.4789
63388SOL     OW   93  12.199   3.349  12.398  0.0351 -0.1448 -0.3693
63388SOL    HW1   94  12.169   3.317  12.483 -1.8793  2.5412  0.0985
63388SOL    HW2   95  12.292   3.366  12.410  0.3272 -2.0079  0.3873
63389SOL     OW   96   0.670   3.398  11.727  0.4843 -0.1683 -0.4608
63389SOL    HW1   97   0.710   3.467  11.675  0.8876  0.3243  0.4811
63389SOL    HW2   98   0.713   3.318  11.698  0.3379  0.0274 -1.2366
63390SOL     OW   99  10.031  11.338   1.056  0.3091 -0.0120 -0.1371
63390SOL    HW1  100  10.095  11.406   1.076  0.8096  0.3984 -2.7083
63390SOL    HW2  101  10.069  11.290   0.982 -1.6976 -0.6849 -0.8189
63391SOL     OW  102   8.272   0.822   3.820 -0.4848  0.0075 -0.0964
63391SOL    HW1  103   8.330   0.890   3.787 -0.8107 -1.0013 -3.0968
63391SOL    HW2  104   8.330   0.748   3.840 -0.4189  0.1480  0.2357
63392SOL     OW  105   6.633   8.249   6.439 -0.3420 -0.0745 -0.2278
63392SOL    HW1  106   6.567   8.302   6.394 -1.6620 -1.3906  0.1001
63392SOL    HW2  107   6.690   8.217   6.369 -0.7538  0.1174 -0.6561
63393SOL     OW  108   0.731  11.684  11.480 -0.2507  0.1227 -0.0157
63393SOL    HW1  109   0.810  11.670  11.531  0.4374  1.3501 -0.6785
63393SOL    HW2  110   0.751  11.646  11.394 -0.3911  0.3951 -0.1712
63394SOL     OW  111   3.893   3.783  12.215  0.0497 -0.0601  0.4071
63394SOL    HW1  112   3.845   3.835  12.281  0.5890 -0.3690  1.0569
63394SOL    HW2  113   3.841   3.792  12.136  0.7279  2.4633  0.1532
63395SOL     OW  114   0.869   5.952  11.131 -0.4263  0.0436  0.0610
63395SOL    HW1  115   0.911   5.866  11.129  0.6248  0.5481 -1.8390
63395SOL    HW2  116   0.914   6.000  11.200  0.8826 -0.0469 -0.7002
63396SOL     OW  117   4.972   8.771   6.593 -0.0259  0.4951  0.5156
63396SOL    HW1  118   5.065   8.789   6.577 -0.4575  0.3031 -3.0425
63396SOL    HW2  119   4.971   8.689   6.641  1.7623 -1.6689 -2.7388
63397SOL     OW  120   3.263   7.906   8.754  0.0326 -0.0456 -0.2002
63397SOL    HW1  121   3.306   7.937   8.833  0.3772  2.5536 -1.3181
63397SOL    HW2  122   3.333   7.904   8.688 -0.1392 -2.6033 -0.4303
63398SOL     OW  123   4.201   4.827   3.108 -0.5736  0.0768 -0.2251
63398SOL    HW1  124   4.270   4.770   3.141  1.4454  1.2462 -2.1468
63398SOL    HW2  125   4.167   4.782   3.031 -0.2518  0.6123 -0.6863
63399SOL     OW  126   1.994  13.111   9.162  0.1073 -0.3155  0.2711
63399SOL    HW1  127   2.008  13.116   9.068 -1.2705  2.4836  0.0954
63399SOL    HW2  128   1.903  13.084   9.173 -0.1964  0.7766  0.6870
63400SOL     OW  129   1.277  10.926   1.476  0.1393 -0.1795  1.0747
63400SOL    HW1  130   1.194  10.963   1.446  1.2472  2.5991  1.0551
63400SOL    HW2  131   1.306  10.870   1.404 -1.0081 -0.0071  0.4522
63401SOL     OW  132  12.044   2.563   1.321  0.6485  0.0844 -0.2113
63401SOL    HW1  133  12.080   2.482   1.287  1.6083  0.1434  0.6199
63401SOL    HW2  134  11.978   2.535   1.385 -0.1973 -0.0178 -1.0916
63402SOL     OW  135  13.111   6.885  12.849 -0.1490  0.4907 -1.0325
63402SOL    HW1  136  13.145   6.951  12.908 -1.5427 -1.5875  2.4494
63402SOL    HW2  137  13.188   6.840  12.814  0.7482  2.8923 -2.3300
63403SOL     OW  138   7.625  12.056   7.940  0.4446  0.1278  0.0087
63403SOL    HW1  139   7.640  11.983   8.000  1.2285 -1.9120 -2.5043
63403SOL    HW2  140   7.550  12.029   7.887  1.2874  0.7217 -1.5462
63404SOL     OW  141  10.910   0.165   2.933  0.1573 -0.1530 -0.8068
63404SOL    HW1  142  10.946   0.157   3.021 -2.1046  0.6230  0.2837
63404SOL    HW2  143  10.917   0.259   2.913 -3.3955  0.6041  0.5938
63405SOL     OW  144   4.461   7.259   1.633  0.0228  0.1975  0.3143
63405SOL    HW1  145   4.516   7.250   1.555 -0.2943 -0.5665  0.1602
63405SOL    HW2  146   4.515   7.306   1.696  0.9738 -0.8044  0.2755
63406SOL     OW  147   2.193  12.599   1.817 -0.5562 -0.0660 -0.0766
63406SOL    HW1  148   2.114  12.635   1.779 -1.1085 -0.4546  0.6699
63406SOL    HW2  149   2.184  12.617   1.911  1.2958  1.9078 -0.2011
63407SOL     OW  150   0.547   9.231  12.501 -0.0120 -0.3301 -0.2579
63407SOL    HW1  151   0.519   9.153  12.454 -0.4401  1.3286 -2.9490
63407SOL    HW2  152   0.465   9.270  12.532  0.0201  0.0611 -0.6553
63408SOL     OW  153  12.758   0.822   8.736 -0.2615  0.8130  0.0067
63408SOL    HW1  154  12.705   0.782   8.804  0.7393 -0.5009  0.0543
63408SOL    HW2  155  12.706   0.895   8.704 -1.4267  0.4699  1.0797
63409SOL     OW  156   4.225   9.476   9.481 -0.1893 -0.1103  0.0203
63409SOL    HW1  157   4.288   9.496   9.550 -0.8932  1.5626  0.2205
63409SOL    HW2  158   4.146   9.447   9.528 -0.7958  1.3913 -0.0349
63410SOL     OW  159   0.869   3.685  12.418 -0.1065 -0.0632  0.4119
63410SOL    HW1  160   0.923   3.637  12.355 -1.4947 -0.2089 -0.7239
63410SOL    HW2  161   0.928   3.702  12.492  1.3192 -0.6730 -0.5335
63411SOL     OW  162   5.592   4.814  13.243  0.3106 -0.1635  0.0722
63411SOL    HW1  163   5.680   4.851  13.243 -0.4076  1.6748 -0.8452
63411SOL    HW2  164   5.536   4.886  13.270 -0.8936 -1.4480  1.1699
63412SOL     OW  165   8.736   7.965   0.627 -0.2254 -0.1579 -0.0814
63412SOL    HW1  166   8.827   7.983   0.649 -0.1065 -1.3191  0.3881
63412SOL    HW2  167   8.730   7.870   0.620 -1.6561 -0.1858  1.0464
63413SOL     OW  168   1.526   2.598  11.427  0.8376 -0.1059  0.1028
63413SOL    HW1  169   1.528   2.685  11.387  0.6353 -0.5610 -0.9068
63413SOL    HW2  170   1.481   2.611  11.510  0.5176  0.6950 -0.1887
63414SOL     OW  171   8.909   9.115   9.450 -0.1572  0.0776 -0.6222
63414SOL    HW1  172   8.831   9.059   9.457  0.2985 -0.4354  0.7295
63414SOL    HW2  173   8.893   9.169   9.373 -0.2519 -2.5091 -2.5570
63415SOL     OW  174   3.563   8.924  12.315 -0.2066  0.0902 -0.8172
63415SOL    HW1  175   3.487   8.981  12.304  0.7277  1.4043 -0.6428
63415SOL    HW2  176   3.559   8.896  12.407  0.1476  1.1189 -0.4721
63416SOL     OW  177   1.111   5.293   8.891 -0.1527 -0.8753  0.1936
63416SOL    HW1  178   1.073   5.207   8.911 -1.2542 -0.2354  0.9139
63416SOL    HW2  179   1.078   5.351   8.960 -1.1413  0.6006 -1.4261
63417SOL     OW  180   3.601  11.696   6.242 -0.2871 -0.2002 -0.7900
63417SOL    HW1  181   3.583  11.605   6.219  2.0702 -0.8249 -0.5018
63417SOL    HW2  182   3.622  11.694   6.335 -0.7137  0.7265 -0.6637
63418SOL     OW  183  10.980   3.450   5.254  0.1164 -0.3344  0.0902
63418SOL    HW1  184  10.910   3.506   5.221 -0.5335  0.6072  2.8639
63418SOL    HW2  185  11.058   3.506   5.249 -0.0070 -0.1427  0.2783
63419SOL     OW  186  10.558  11.164   6.572  0.1697 -0.4780  0.2577
63419SOL    HW1  187  10.631  11.211   6.532  0.0386 -1.2186 -0.9166
63419SOL    HW2  188  10.556  11.080   6.526 -1.0865 -0.6859  0.6529
63420SOL     OW  189   1.632   1.526   7.165 -0.2500  0.0248 -0.4891
63420SOL    HW1  190   1.657   1.611   7.128  0.4337 -1.0310 -2.6444
63420SOL    HW2  191   1.636   1.466   7.091  1.2370 -2.3000  1.3445
63421SOL     OW  192   9.515   3.694   4.539  0.1906  0.1042 -0.2777
63421SOL    HW1  193   9.428   3.656   4.541  0.5969 -0.8939 -1.0375
63421SOL    HW2  194   9.572   3.626   4.503  1.2728  0.7669  0.0959
63422SOL     OW  195   1.252   5.975   4.291  0.3413 -0.0491 -0.7484
63422SOL    HW1  196   1.273   6.018   4.374  1.7828 -0.2733 -0.9678
63422SOL    HW2  197   1.161   5.947   4.301 -0.0836  1.5202  0.0452
63423SOL     OW  198   6.946  13.143  11.229 -0.4173  0.3778  0.0936
63423SOL    HW1  199   7.026  13.190  11.205  1.7571 -2.0272  1.9878
63423SOL    HW2  200   6.921  13.096  11.150  2.2023 -1.5473  0.2624
63424SOL     OW  201   5.213   3.015   5.400 -0.1551  0.5860 -0.1827
63424SOL    HW1  202   5.159   3.043   5.473 -1.5737 -2.1344 -0.0797
63424SOL    HW2  203   5.151   2.991   5.331  0.8622 -2.1781 -0.2378
63425SOL     OW  204   0.158   7.915  11.173  0.1597  0.3170 -0.0210
63425SOL    HW1  205   0.226   7.910  11.106  0.0209 -1.5061 -0.0756
63425SOL    HW2  206   0.141   7.824  11.197 -3.4423  0.4992 -1.2122
63426SOL     OW  207   2.269   4.356   0.863  0.5043  0.4413  0.3321
63426SOL    HW1  208   2.364   4.357   0.850  0.1792 -0.8720 -3.1501
63426SOL    HW2  209   2.235   4.415   0.797 -1.1862 -0.8930 -0.0662
63427SOL     OW  210   4.919   2.457  11.483  0.1821 -0.2597  0.0563
63427SOL    HW1  211   4.954   2.369  11.472  0.8719 -0.2177  1.6829
63427SOL    HW2  212   4.995   2.515  11.470  0.2096 -0.0332  1.1498
63428SOL     OW  213   8.257   7.995   6.731 -0.8652  0.3101  0.0602
63428SOL    HW1  214   8.269   7.970   6.639 -0.2022 -1.3507  0.5656
63428SOL    HW2  215   8.222   7.917   6.773 -0.4185  0.7915  1.3780
63429SOL     OW  216   2.359   4.218   0.480  0.6885 -0.8722  0.6329
63429SOL    HW1  217   2.407   4.226   0.398 -0.1676  0.1020  0.2023
63429SOL    HW2  218   2.422   4.243   0.548  1.4202 -1.7535  0.2829
63430SOL     OW  219  10.127   7.444   7.528  0.3955  0.0045 -0.0501
63430SOL    HW1  220  10.090   7.530   7.547  0.6966  0.6746 -2.2278
63430SOL    HW2  221  10.059   7.400   7.476  0.6075 -0.7576  0.2947
63431SOL     OW  222  11.384   8.063  11.173 -0.3967  0.2395 -0.5483
63431SOL    HW1  223  11.332   8.007  11.115  1.5210 -1.4684 -0.7100
63431SOL    HW2  224  11.354   8.152  11.152 -2.8561 -0.6031 -0.9592
63432SOL     OW  225  12.774   3.912  10.540  0.1215  0.0195 -0.1571
63432SOL    HW1  226  12.748   3.964  10.464  0.8723 -0.0755 -0.4849
63432SOL    HW2  227  12.816   3.974  10.599  0.0128 -0.0064 -0.0517
63433SOL     OW  228   3.844   8.074  10.662 -0.0289  0.5193 -0.0306
63433SOL    HW1  229   3.929   8.095  10.623 -0.6924  0.6331 -1.4867
63433SOL    HW2  230   3.787   8.057  10.587 -1.1713 -0.0443  0.9353
63434SOL     OW  231   7.305  10.252   3.539 -1.0137  0.1583 -0.2483
63434SOL    HW1  232   7.277  10.207   3.619  0.4062  1.8727  1.3097
63434SOL    HW2  233   7.388  10.294   3.563 -1.5215  2.3681 -2.0035
63435SOL     OW  234   4.512   1.013   2.336  0.3368  0.4934 -0.3103
63435SOL    HW1  235   4.552   1.063   2.408  0.6184  0.5997 -0.5398
63435SOL    HW2  236   4.572   0.940   2.321 -0.6441 -0.5820  0.7918
63436SOL     OW  237   4.459  11.442   5.627 -0.8183 -0.1484 -0.0647
63436SOL    HW1  238   4.463  11.531   5.591 -0.5654  0.3329  1.0838
63436SOL    HW2  239   4.378  11.441   5.678 -0.9667 -0.6785 -0.3100
63437SOL     OW  240   3.996   6.498  11.343  0.1814 -0.0560  0.5306
63437SOL    HW1  241   3.985   6.575  11.287  0.2696 -0.6823 -0.3713
63437SOL    HW2  242   4.018   6.427  11.282  1.9379 -0.4165  1.5100
63438SOL     OW  243   4.756  10.621   5.645 -0.1987 -0.8270  0.1293
63438SOL    HW1  244   4.671  10.579   5.656 -0.8266  0.2027 -0.6437
63438SOL    HW2  245   4.759  10.647   5.553  0.5810 -0.0642  0.3509
63439SOL     OW  246  11.144   9.765   1.717  0.4650  0.0800 -0.0840
63439SOL    HW1  247  11.125   9.832   1.651 -0.9689 -1.0024 -0.8359
63439SOL    HW2  248  11.235   9.781   1.743  0.1810  2.2706 -0.2637
63440SOL     OW  249   4.753   4.969   9.573  0.2368  0.0173  0.3373
63440SOL    HW1  250   4.669   5.014   9.563  0.0409  0.0241  1.7957
63440SOL    HW2  251   4.745   4.891   9.519 -0.9720 -0.3029  0.9269
63441SOL     OW  252  11.734   5.716  10.305 -0.5097  0.3813 -0.0667
63441SOL    HW1  253  11.726   5.628  10.341 -0.6026  0.8640  1.1443
63441SOL    HW2  254  11.645   5.740  10.280 -0.9118  1.0238  1.8437
63442SOL     OW  255   8.995   7.135   6.454  0.3618 -0.2214  0.3515
63442SOL    HW1  256   8.979   7.042   6.442  2.3022 -0.2929 -2.9432
63442SOL    HW2  257   8.926   7.178   6.402 -0.6952  0.2892  2.0752
63443SOL     OW  258   1.492   4.382  12.898  0.2087  0.8309  0.8972
63443SOL    HW1  259   1.501   4.368  12.804  1.5757 -0.9799  1.2452
63443SOL    HW2  260   1.552   4.454  12.918  1.9963 -0.5724  0.7540
63444SOL     OW  261   7.389   4.104   7.824 -0.0536  0.1584 -0.0471
63444SOL    HW1  262   7.402   4.021   7.777 -1.0347  0.2532 -0.5167
63444SOL    HW2  263   7.364   4.166   7.756  1.4986  1.0852  0.1656
63445SOL     OW  264   7.833   6.241   0.962 -0.1392 -0.2641  0.0852
63445SOL    HW1  265   7.915   6.288   0.978 -0.5731  0.0534  1.4398
63445SOL    HW2  266   7.843   6.206   0.873  0.1957  2.3789 -1.0157
63446SOL     OW  267   2.871   4.840   2.532 -0.4368  0.0508  0.5790
63446SOL    HW1  268   2.843   4.759   2.488 -0.3895  0.5596 -0.4210
63446SOL    HW2  269   2.912   4.810   2.613 -0.7492 -0.9052  0.4042
63447SOL     OW  270   9.250   3.214   7.411 -0.1690  0.3567  0.7274
63447SOL    HW1  271   9.192   3.138   7.402  1.1027 -0.3983 -2.3804
63447SOL    HW2  272   9.194   3.289   7.393 -1.0225  0.0496  1.9211
63448SOL     OW  273   5.874   9.997   3.132 -0.0356 -0.1802 -0.2384
63448SOL    HW1  274   5.848   9.957   3.049  0.6697  1.2171 -1.1721
63448SOL    HW2  275   5.963  10.030   3.116  0.8704 -1.5440  1.6851
63449SOL     OW  276   7.008   4.548  11.189  0.1793 -0.1179  0.2721
63449SOL    HW1  277   6.989   4.479  11.253 -1.2690 -0.0931 -0.1051
63449SOL    HW2  278   6.924   4.591  11.174  0.8246  0.9572 -0.4186
63450SOL     OW  279   3.260  11.679   2.484  0.0317  0.6950 -0.1116
63450SOL    HW1  280   3.200  11.609   2.456 -1.0924  1.5347  0.1430
63450SOL    HW2  281   3.236  11.696   2.575  1.6540  0.0548  0.4805
63451SOL     OW  282   5.199   7.054  11.496  0.0353  0.8644 -0.1801
63451SOL    HW1  283   5.175   7.140  11.462  0.2673  0.2094 -2.1276
63451SOL    HW2  284   5.206   7.067  11.590 -1.5782  2.5662 -0.2348
63452SOL     OW  285   1.116   3.650   7.378 -0.0771  0.2016  0.2514
63452SOL    HW1  286   1.145   3.739   7.358 -0.2625  0.1860 -0.0900
63452SOL    HW2  287   1.087   3.654   7.469  1.2270  0.1586  0.6910
63453SOL     OW  288   1.717   5.461   6.429 -0.6324 -0.0630  0.2835
63453SOL    HW1  289   1.641   5.514   6.403 -0.7949 -1.0312 -1.3443
63453SOL    HW2  290   1.712   5.383   6.373  1.8503  0.0929 -0.2655
63454SOL     OW  291  12.527  13.190   7.481  0.3197  0.0222  0.0580
63454SOL    HW1  292  12.608  13.204   7.432  0.6191  1.1236  0.8402
63454SOL    HW2  293  12.478  13.126   7.428  1.2138  0.1621 -0.9741
63455SOL     OW  294   7.603   3.975   0.910 -0.3992 -0.0993 -0.6745
63455SOL    HW1  295   7.558   3.892   0.927  0.0918  0.0630  1.7220
63455SOL    HW2  296   7.696   3.956   0.926 -0.1670  0.6840 -1.0365
63456SOL     OW  297  12.444  11.726  11.690 -0.4580  0.1302  0.1506
63456SOL    HW1  298  12.371  11.735  11.630 -0.5533  0.0291  0.2523
63456SOL    HW2  299  12.469  11.816  11.712 -0.9828  0.1594  0.6425
63457SOL     OW  300   4.621   2.891   8.648 -0.2152  0.9249 -0.6268
63457SOL    HW1  301   4.602   2.802   8.678 -0.3430  1.2941  0.3964
63457SOL    HW2  302   4.634   2.942   8.728  0.6718  1.6539 -1.2169
63458SOL     OW  303  13.109  10.085  11.641 -0.9870  0.2239  0.7768
63458SOL    HW1  304  13.044  10.126  11.583 -1.2801 -0.2747  0.7453
63458SOL    HW2  305  13.086  10.117  11.728 -1.5269 -0.2508  0.8183
63459SOL     OW  306   0.322   6.841  11.490 -0.0754  0.1472 -0.3092
63459SOL    HW1  307   0.368   6.772  11.538  0.5401  0.2293 -0.7791
63459SOL    HW2  308   0.387   6.910  11.479 -0.6471  0.7491  0.0312
63460SOL     OW  309   7.215  12.988   1.011 -0.6244 -0.0279  0.2049
63460SOL    HW1  310   7.300  13.027   0.990 -0.3801 -0.4070  0.4754
63460SOL    HW2  311   7.204  13.002   1.105 -0.0492 -1.5113  0.5240
63461SOL     OW  312   1.082   1.108   3.573  0.4678  0.0810 -0.4412
63461SOL    HW1  313   1.110   1.094   3.483  1.2225 -0.5989 -0.1194
63461SOL    HW2  314   1.032   1.190   3.571  0.4662  0.0671 -1.4677
63462SOL     OW  315   5.549   0.524   4.205 -0.5254 -0.7209  0.2351
63462SOL    HW1  316   5.503   0.589   4.152  1.2187 -0.7309 -1.3760
63462SOL    HW2  317   5.613   0.575   4.255  1.0333 -1.1699 -1.2332
63463SOL     OW  318  11.888   0.006   0.256 -0.6236 -0.4612  0.3413
63463SOL    HW1  319  11.904  -0.033   0.171  1.9448  1.9813 -0.4829
63463SOL    HW2  320  11.976   0.017   0.294 -1.6705 -1.4758  3.3599
63464SOL     OW  321   6.344  13.132  12.525 -0.0201 -0.6674 -0.2684
63464SOL    HW1  322   6.333  13.215  12.477  1.2938 -0.8688 -0.9630
63464SOL    HW2  323   6.274  13.133  12.590 -0.1400  0.9173 -0.3715
63465SOL     OW  324   4.619  11.304   9.646  0.1387  0.7366 -0.3968
63465SOL    HW1  325   4.548  11.278   9.587 -0.4208 -0.7780  0.8768
63465SOL    HW2  326   4.619  11.237   9.714  0.0164  3.0011  1.9625
63466SOL     OW  327   0.695   2.492   2.520 -0.1246 -0.0229 -0.0182
63466SOL    HW1  328   0.626   2.451   2.573 -0.9175  1.9133  0.5377
63466SOL    HW2  329   0.774   2.485   2.574  0.2871 -2.5857 -0.8136
63467SOL     OW  330   8.842   2.479  11.440 -0.4327  0.3614  0.1980
63467SOL    HW1  331   8.844   2.475  11.536  0.3043  0.9368  0.2178
63467SOL    HW2  332   8.776   2.414  11.415  0.7870 -1.2686  0.9981
63468SOL     OW  333  10.834   3.635   5.999  0.1682  0.5164  0.5428
63468SOL    HW1  334  10.867   3.545   5.991  0.6181  0.5247  1.9904
63468SOL    HW2  335  10.744   3.630   5.968  0.3500 -0.3203  0.1180
63469SOL     OW  336   9.464   7.516   4.614 -0.5463 -0.5384 -0.2765
63469SOL    HW1  337   9.478   7.421   4.604  1.7616  0.0148 -3.8441
63469SOL    HW2  338   9.391   7.536   4.556 -0.8213 -0.0632  0.2267
63470SOL     OW  339   5.601  12.126   1.649  0.4551  0.2098  0.0855
63470SOL    HW1  340   5.521  12.178   1.656  0.8907  0.8791  0.2355
63470SOL    HW2  341   5.619  12.097   1.738  0.1336 -0.3209 -0.0219
63471SOL     OW  342   7.797  12.097   7.633  0.3544  0.4873  0.3106
63471SOL    HW1  343   7.793  12.006   7.661  0.5176 -0.5996 -2.8573
63471SOL    HW2  344   7.880  12.129   7.669 -0.3249 -0.1215  2.5913
63472SOL     OW  345   6.811   2.775   3.823  0.1951  0.8066 -0.0964
63472SOL    HW1  346   6.775   2.706   3.767 -0.1406  1.5359 -0.8143
63472SOL    HW2  347   6.891   2.738   3.859  0.1515  0.1352 -0.6618
63473SOL     OW  348  13.095  11.597  12.761  0.2744 -0.5437  0.1295
63473SOL    HW1  349  13.151  11.666  12.798  0.0632  2.2574 -4.1149
63473SOL    HW2  350  13.010  11.610  12.803  0.6638  0.7634  0.5659
63474SOL     OW  351   2.902   5.320   7.834 -0.2478  0.2275 -0.4751
63474SOL    HW1  352   2.909   5.332   7.739 -0.6026 -1.9022 -0.8048
63474SOL    HW2  353   2.826   5.373   7.858 -1.4095 -0.7789 -1.7310
63475SOL     OW  354   9.070   0.820   4.232 -0.7544 -0.0502 -0.2004
63475SOL    HW1  355   8.999   0.849   4.290 -0.7872 -0.7567  0.1235
63475SOL    HW2  356   9.036   0.740   4.191 -0.4696  0.0741 -0.6916
63476SOL     OW  357  10.516   3.289   5.302 -0.4035 -0.6956  0.0643
63476SOL    HW1  358  10.512   3.245   5.387 -2.2748  0.8413  0.8561
63476SOL    HW2  359  10.576   3.362   5.317 -1.2596 -0.0183  0.3279
63477SOL     OW  360   3.110  11.882   4.680 -0.4657  0.4822 -0.2327
63477SOL    HW1  361   3.101  11.973   4.653  0.1934  0.2368 -1.3203
63477SOL    HW2  362   3.179  11.884   4.747  0.2656  0.6488 -0.9844
63478SOL     OW  363  10.768  10.138   4.210  0.2263 -0.2780 -0.0274
63478SOL    HW1  364  10.831  10.136   4.282  1.1759 -2.4448 -0.8341
63478SOL    HW2  365  10.745  10.230   4.201  2.8124  0.5311  0.7146
63479SOL     OW  366   2.277  12.894   4.574 -0.3962 -0.2012 -0.2981
63479SOL    HW1  367   2.350  12.946   4.540 -0.3313  0.5120  0.8603
63479SOL    HW2  368   2.216  12.959   4.609 -0.7989 -0.8604  0.2534
63480SOL     OW  369   8.688   2.391  12.829  0.3571  0.4726  0.1409
63480SOL    HW1  370   8.657   2.481  12.814  0.4071  0.3329 -0.8132
63480SOL    HW2  371   8.732   2.366  12.748  2.1350  0.2975  1.1049
63481SOL     OW  372   1.948   7.404   2.034 -0.0743 -0.5063  0.1360
63481SOL    HW1  373   1.930   7.313   2.012  1.5247 -0.4424 -1.7267
63481SOL    HW2  374   1.977   7.443   1.952 -2.1489  2.1213  0.5161
63482SOL     OW  375   0.911   8.071   6.769 -0.3517 -0.3617 -0.4839
63482SOL    HW1  376   0.833   8.017   6.771  0.4817 -1.6250 -0.9584
63482SOL    HW2  377   0.932   8.079   6.676  0.0329  0.0457 -0.3646
63483SOL     OW  378   9.690   7.141  10.615  0.0567 -0.4227 -0.0651
63483SOL    HW1  379   9.715   7.153  10.523 -3.7671 -1.2636 -1.3924
63483SOL    HW2  380   9.752   7.076  10.648  1.3122 -0.3754 -2.1197
63484SOL     OW  381   8.159   2.208   1.923 -0.1516 -1.1355 -0.3648
63484SOL    HW1  382   8.254   2.220   1.928 -0.0037 -1.5382 -1.8078
63484SOL    HW2  383   8.130   2.267   1.854 -1.0236 -0.7726  0.2805
63485SOL     OW  384   7.691   3.154   0.978  0.4958  0.4326 -0.0513
63485SOL    HW1  385   7.622   3.104   0.934 -1.6926  0.2797  3.1910
63485SOL    HW2  386   7.769   3.100   0.970 -0.2188 -0.4008 -2.0649
63486SOL     OW  387  10.778   6.673   6.045  0.2339  0.1083 -0.0650
63486SOL    HW1  388  10.802   6.584   6.020 -1.6709 -0.1541 -1.1339
63486SOL    HW2  389  10.861   6.719   6.054  1.2334 -1.6531  0.0412
63487SOL     OW  390   1.651   6.111   4.923 -0.2972  0.3551  0.3130
63487SOL    HW1  391   1.662   6.047   4.993  1.6561 -1.1854 -1.2953
63487SOL    HW2  392   1.601   6.066   4.856  0.2380  0.8427 -0.4308
63488SOL     OW  393   7.178   2.769  11.925 -0.4875  0.5702  0.4822
63488SOL    HW1  394   7.092   2.765  11.883 -0.3502 -0.9630  0.2952
63488SOL    HW2  395   7.176   2.701  11.991 -0.2515  2.1500  2.1891
63489SOL     OW  396   8.937   3.972  12.256 -0.6634  0.6282 -0.4889
63489SOL    HW1  397   9.017   3.924  12.238 -0.3834  0.7394  0.4391
63489SOL    HW2  398   8.956   4.061  12.227 -0.3179  0.7375  0.0576
63490SOL     OW  399   3.212   9.108  12.793  0.7239 -0.1885  0.6026
63490SOL    HW1  400   3.153   9.163  12.845 -0.0605  0.9337 -1.3538
63490SOL    HW2  401   3.223   9.028  12.844 -0.7291  0.4831  2.0396
63491SOL     OW  402   3.382  10.040   0.943 -0.0687  0.2287 -0.1825
63491SOL    HW1  403   3.299   9.991   0.943 -0.3863  0.7476  1.0886
63491SOL    HW2  404   3.366  10.113   0.883 -0.4138  0.1429 -0.2004
63492SOL     OW  405   4.494   0.490   5.742  0.3166  0.1864  0.0766
63492SOL    HW1  406   4.563   0.427   5.763 -0.9679 -1.6979 -1.0619
63492SOL    HW2  407   4.516   0.522   5.655 -0.4638 -0.8408 -0.5318
63493SOL     OW  408   1.507  12.918  10.121 -0.7029  0.3397 -0.0897
63493SOL    HW1  409   1.507  12.822  10.119 -1.7176  0.3490 -1.9370
63493SOL    HW2  410   1.589  12.941  10.164 -0.1937 -1.3501 -0.0983
63494SOL     OW  411   1.042   3.846   5.595 -0.9853 -0.1072 -0.0966
63494SOL    HW1  412   1.030   3.758   5.629  0.9751 -1.2557 -2.1115
63494SOL    HW2  413   1.116   3.881   5.644 -0.2350 -0.5248 -0.9099
63495SOL     OW  414  11.253  10.783   3.477  0.1238 -0.2887 -0.1883
63495SOL    HW1  415  11.198  10.798   3.400 -1.0318  0.0656  0.6854
63495SOL    HW2  416  11.209  10.714   3.526 -0.4233  1.0616  1.3066
63496SOL     OW  417   6.408   5.884   9.593 -0.1569 -0.4401 -0.0493
63496SOL    HW1  418   6.325   5.927   9.614  0.1875  0.2454 -0.0850
63496SOL    HW2  419   6.460   5.891   9.673 -0.1566 -0.9421 -0.0003
63497SOL     OW  420   3.144  13.309  13.206  0.7034 -0.2716 -0.1013
63497SOL    HW1  421   3.053  13.288  13.224  0.5953  0.1106 -0.1960
63497SOL    HW2  422   3.140  13.385  13.147  1.0707 -0.5794 -0.5302
63498SOL     OW  423   2.429   8.753   1.441  0.1517  0.1560 -0.1094
63498SOL    HW1  424   2.513   8.708   1.432 -0.0997 -0.1918 -0.7647
63498SOL    HW2  425   2.371   8.710   1.379 -0.7056 -0.0428  0.7900
63499SOL     OW  426   3.285   7.205   3.203 -0.1993  0.2256  0.1043
63499SOL    HW1  427   3.373   7.237   3.222  0.0079 -0.0589 -0.3515
63499SOL    HW2  428   3.227   7.264   3.251  0.2655  0.0274  0.9226
63500SOL     OW  429  11.830  12.277   7.157  0.1587 -0.0933 -0.5448
63500SOL    HW1  430  11.908  12.331   7.173 -0.2727  1.1976 -2.4584
63500SOL    HW2  431  11.864  12.191   7.136  0.9730 -0.0186  0.3813
63501SOL     OW  432  12.757   1.887   9.890 -0.1848 -0.0359  0.1823
63501SOL    HW1  433  12.774   1.934   9.809 -0.1497 -0.4201 -0.0393
63501SOL    HW2  434  12.843   1.864   9.924 -0.1804  0.7106  0.6854
63502SOL     OW  435   4.024   9.872   6.366 -0.2507 -0.0789 -0.1396
63502SOL    HW1  436   4.093   9.937   6.377 -0.0206  0.1912 -2.6386
63502SOL    HW2  437   3.946   9.924   6.345 -0.5202 -0.5153 -0.2305
63503SOL     OW  438   2.460  12.251   8.782  0.0217  0.4652  0.2913
63503SOL    HW1  439   2.476  12.158   8.792  1.7428  0.7132  0.0168
63503SOL    HW2  440   2.541  12.287   8.746 -1.1040  1.8325 -1.0406
63504SOL     OW  441  11.125   0.291   7.254 -0.1875 -0.1299  0.0899
63504SOL    HW1  442  11.198   0.312   7.311  1.7923 -1.0341 -1.9714
63504SOL    HW2  443  11.135   0.350   7.179 -1.5775 -0.2762 -0.2387
63505SOL     OW  444  11.672   6.947  11.134  0.1133  0.4861  0.2802
63505SOL    HW1  445  11.578   6.961  11.123 -0.1826 -1.0140  0.6336
63505SOL    HW2  446  11.694   6.879  11.070  1.3760  2.0937 -1.1066
63506SOL     OW  447   3.970   1.864   4.370  0.8568  0.0317  0.3478
63506SOL    HW1  448   3.936   1.783   4.407  2.0891 -0.2766  0.8749
63506SOL    HW2  449   4.055   1.876   4.412  2.0988 -0.0450 -1.9407
63507SOL     OW  450   9.664   9.562   5.896  0.2694  0.0542 -0.0276
63507SOL    HW1  451   9.640   9.483   5.847 -0.2895  0.2254 -0.0400
63507SOL    HW2  452   9.597   9.627   5.871 -0.2710  0.0202  1.2769
63508SOL     OW  453  10.369  11.658   4.213 -0.0936 -0.3516 -0.4684
63508SOL    HW1  454  10.284  11.680   4.251 -0.8058 -2.2987 -0.8495
63508SOL    HW2  455  10.365  11.564   4.196  1.8003 -0.3226 -1.3691
63509SOL     OW  456   8.229   9.747   3.793 -0.1029 -0.5584  0.3256
63509SOL    HW1  457   8.272   9.676   3.746 -0.7119 -0.9527  0.3535
63509SOL    HW2  458   8.230   9.820   3.732 -2.1593 -1.4740 -0.9074
63510SOL     OW  459   4.917   8.508   5.135 -0.1644  0.5150 -0.2455
63510SOL    HW1  460   4.954   8.436   5.186 -1.1028 -1.8056 -2.5990
63510SOL    HW2  461   4.864   8.557   5.197  1.5433 -0.0042  1.7401
63511SOL     OW  462   9.631  10.575   7.451 -0.3311 -0.4596  0.0361
63511SOL    HW1  463   9.638  10.667   7.427  0.2789 -0.4380  0.2811
63511SOL    HW2  464   9.538  10.561   7.465 -0.6471 -0.3081 -1.6737
63512SOL     OW  465   0.985   8.151   3.907  0.1953  0.0689 -0.0200
63512SOL    HW1  466   0.965   8.111   3.823  0.7184 -0.4927  0.1085
63512SOL    HW2  467   1.025   8.080   3.958 -1.9798 -0.1877  1.4381
63513SOL     OW  468   8.151  10.753  10.565 -0.1820 -0.2691 -0.7869
63513SOL    HW1  469   8.199  10.674  10.590 -0.9215  0.2162  2.5891
63513SOL    HW2  470   8.217  10.809  10.524  1.6886 -0.5788  1.5607
63514SOL     OW  471   2.184   8.291  12.246 -0.3645  0.1789 -0.0070
63514SOL    HW1  472   2.141   8.366  12.205 -0.0435 -0.1529 -1.0058
63514SOL    HW2  473   2.153   8.291  12.336  0.1751  1.9357  0.2176
63515SOL     OW  474   8.984   7.299   3.104  0.2844  0.1620  0.2528
63515SOL    HW1  475   9.035   7.221   3.082  0.5107  0.8840 -1.9936
63515SOL    HW2  476   8.983   7.351   3.024 -1.7173  1.4558  1.0350
63516SOL     OW  477   0.852   3.476  10.604  0.3949  0.5548  0.1673
63516SOL    HW1  478   0.864   3.387  10.635 -1.3840  0.4178  0.5227
63516SOL    HW2  479   0.899   3.479  10.521 -0.3375 -1.0138 -0.3322
63517SOL     OW  480   4.018   7.493   2.553  0.6933 -1.0057  0.2306
63517SOL    HW1  481   4.001   7.558   2.621 -2.2458 -0.1932 -1.1027
63517SOL    HW2  482   4.029   7.410   2.600 -1.1946 -0.4655  1.7125
63518SOL     OW  483   8.140  12.008   9.220 -0.3424  0.1840 -0.0055
63518SOL    HW1  484   8.221  12.027   9.267 -0.3562 -0.2459  0.1957
63518SOL    HW2  485   8.071  12.024   9.285 -0.3422 -0.7840  0.2499
63519SOL     OW  486  13.084   6.436  13.288  0.3896 -0.9716  0.1945
63519SOL    HW1  487  13.069   6.476  13.373  0.8814 -0.1632 -0.0853
63519SOL    HW2  488  13.063   6.343  13.300 -1.1198 -0.5814  0.7779
63520SOL     OW  489   1.725   9.216   4.144  0.0726 -0.1898 -0.0799
63520SOL    HW1  490   1.761   9.167   4.218  0.5781  0.1969 -0.0693
63520SOL    HW2  491   1.789   9.204   4.074  1.1998  2.0003  0.4788
63521SOL     OW  492   0.849  12.060   1.841 -0.2259 -0.1124 -0.9947
63521SOL    HW1  493   0.903  12.003   1.896  0.2786 -0.5537 -1.9215
63521SOL    HW2  494   0.781  12.002   1.806 -1.5973  0.5198  0.4876
63522SOL     OW  495   8.979   4.662   8.702  0.4416  1.1212  0.0094
63522SOL    HW1  496   9.040   4.667   8.628 -1.8617  1.8876 -1.9775
63522SOL    HW2  497   8.926   4.741   8.694 -1.5970 -0.0936  0.8933
63523SOL     OW  498   6.354   0.459   8.548 -0.0112  0.0054  0.0154
63523SOL    HW1  499   6.384   0.543   8.513 -0.1491  1.2216  2.5714
63523SOL    HW2  500   6.259   0.463   8.542 -0.0191  0.0546  0.1659
63524SOL     OW  501  12.551  11.980   0.614  0.0724 -0.2651  0.3906
63524SOL    HW1  502  12.587  12.060   0.576 -1.0179 -0.1187 -0.3567
63524SOL    HW2  503  12.563  11.992   0.709  1.9137 -0.2094  0.1831
63525SOL     OW  504   3.178   6.692   9.396 -0.1607 -0.2678 -0.3496
63525SOL    HW1  505   3.164   6.762   9.332  0.4407 -0.2286 -0.4443
63525SOL    HW2  506   3.273   6.688   9.407 -0.2610 -0.1018  0.7305
63526SOL     OW  507  10.709   9.315   4.357  0.2213 -0.0904 -0.1630
63526SOL    HW1  508  10.653   9.392   4.360 -0.8005 -0.7490 -1.4945
63526SOL    HW2  509  10.796   9.348   4.376 -0.0379  1.5651 -1.6228
63527SOL     OW  510   5.834   7.447  11.845  0.4378 -0.1841 -0.1971
63527SOL    HW1  511   5.776   7.517  11.817  1.7740  1.5422  1.1686
63527SOL    HW2  512   5.780   7.390  11.899 -0.0630  1.2782  0.8901
63528SOL     OW  513   8.620   0.638   1.926  0.7382  0.2096 -0.0230
63528SOL    HW1  514   8.681   0.674   1.862  0.1815 -0.6706 -1.0622
63528SOL    HW2  515   8.534   0.669   1.898  0.5049 -0.0431  0.3982
63529SOL     OW  516   1.839  10.631   5.729 -0.7317  0.0917  0.2133
63529SOL    HW1  517   1.759  10.628   5.782 -1.2812 -1.4092 -0.6496
63529SOL    HW2  518   1.907  10.595   5.785 -1.1140 -0.6306  0.2168
63530SOL     OW  519   5.889   7.039   5.503 -0.2398 -0.1096 -0.3702
63530SOL    HW1  520   5.797   7.039   5.530  0.2492 -2.0404  1.6117
63530SOL    HW2  521   5.891   6.984   5.425 -1.2441  3.2127 -3.0094
63531SOL     OW  522   0.956   0.966   4.235  0.3825  0.5781  0.1749
63531SOL    HW1  523   0.892   0.985   4.304  1.0283  0.8310  0.7194
63531SOL    HW2  524   0.936   0.877   4.208 -0.5845  0.8670 -0.0851
63532SOL     OW  525   4.271  11.975   8.224 -0.3107  0.1235  0.1645
63532SOL    HW1  526   4.285  12.070   8.221 -0.1184  0.0885 -0.0619
63532SOL    HW2  527   4.313  11.948   8.306 -2.3979  0.5615  1.4540
63533SOL     OW  528   5.129  11.273  12.719  0.0504 -0.0896 -0.3538
63533SOL    HW1  529   5.189  11.316  12.780  1.4870 -3.5233  0.8796
63533SOL    HW2  530   5.060  11.236  12.773  0.1031 -1.2622 -1.0458
63534SOL     OW  531  11.834   4.024  11.549  0.1711 -0.5534  0.0135
63534SOL    HW1  532  11.853   3.952  11.608 -0.2087 -0.9371 -0.3234
63534SOL    HW2  533  11.918   4.067  11.534  0.3318 -0.6982  0.5134
63535SOL     OW  534   2.235  12.659  11.348 -0.5014 -0.2927 -0.2683
63535SOL    HW1  535   2.150  12.641  11.388 -0.6430 -1.1825 -0.9406
63535SOL    HW2  536   2.296  12.663  11.422 -1.2233  1.0931  0.2918
63536SOL     OW  537   2.762   9.445  12.912 -0.1970 -0.3409  0.2703
63536SOL    HW1  538   2.778   9.525  12.861 -1.3643  0.1454  0.6184
63536SOL    HW2  539   2.678   9.413  12.880  0.3005 -1.5031  0.0779
63537SOL     OW  540  12.516  10.535   0.052  0.6333 -0.5518 -0.1108
63537SOL    HW1  541  12.610  10.547   0.067  0.4709  0.6102  0.0982
63537SOL    HW2  542  12.474  10.590   0.118 -0.2164 -1.7279  0.3559
63538SOL     OW  543   3.246   2.643   0.721  0.0505  0.3115 -0.1540
63538SOL    HW1  544   3.276   2.573   0.778  1.1337  0.7184 -0.2105
63538SOL    HW2  545   3.162   2.612   0.686 -0.3413 -0.1947  1.1850
63539SOL     OW  546   4.447   5.284   1.013 -0.3392 -0.4932 -0.0729
63539SOL    HW1  547   4.472   5.376   1.021  0.7653 -0.7010 -0.9271
63539SOL    HW2  548   4.399   5.265   1.093 -0.0431  0.6553  0.3955
63540SOL     OW  549  11.841  11.029   1.602 -0.4955  0.3291 -0.2596
63540SOL    HW1  550  11.815  11.090   1.533  1.7216  1.3309 -0.2870
63540SOL    HW2  551  11.901  10.968   1.560  0.4499  0.6154  0.6174
63541SOL     OW  552  12.801   8.554   9.824 -0.1600 -0.1663 -0.5319
63541SOL    HW1  553  12.895   8.554   9.807  0.2439  0.9355  1.3848
63541SOL    HW2  554  12.768   8.631   9.779  0.1886  0.4337  0.2101
63542SOL     OW  555   5.579   2.218  12.813  0.3479 -0.1221  0.3046
63542SOL    HW1  556   5.512   2.254  12.871 -0.6017  0.0758 -0.8859
63542SOL    HW2  557   5.661   2.235  12.859 -0.3729 -0.0348  1.6210
63543SOL     OW  558   1.321   6.275  12.385  0.0924  0.5194 -0.3642
63543SOL    HW1  559   1.253   6.234  12.332 -1.5294  0.8000  1.3839
63543SOL    HW2  560   1.351   6.205  12.444  1.0751  0.4971 -0.8801
63544SOL     OW  561   5.249   3.451   9.688  0.1010  0.1565  0.0698
63544SOL    HW1  562   5.241   3.492   9.774  0.1791 -0.2779  0.2886
63544SOL    HW2  563   5.322   3.495   9.646 -0.7140  1.2283 -0.2637
63545SOL     OW  564   3.900   9.541   0.345  0.3081  0.1723 -0.4381
63545SOL    HW1  565   3.862   9.520   0.430  0.9669  1.4591  0.2072
63545SOL    HW2  566   3.910   9.636   0.346  0.0074  0.2682 -2.1073
63546SOL     OW  567  12.815  12.574  12.260  0.4437 -0.0546  0.0539
63546SOL    HW1  568  12.772  12.610  12.183 -0.1503  0.0119  0.4101
63546SOL    HW2  569  12.745  12.527  12.306  0.3683  1.3408  1.4443
63547SOL     OW  570  12.877  13.271   1.778 -0.5949  0.4796  0.1838
63547SOL    HW1  571  12.904  13.182   1.755  1.4992  1.1917 -0.3583
63547SOL    HW2  572  12.891  13.277   1.872 -0.9959  0.1726  0.2673
63548SOL     OW  573   7.741   2.986   2.064  0.3691 -0.4088 -0.0143
63548SOL    HW1  574   7.802   3.045   2.109 -0.5803  1.4357 -1.0332
63548SOL    HW2  575   7.690   2.947   2.135  1.2206 -0.2448  0.7125
63549SOL     OW  576   0.240   6.285   8.344  0.1060  0.7039  0.9870
63549SOL    HW1  577   0.232   6.314   8.435 -0.0859  1.7845  0.6435
63549SOL    HW2  578   0.183   6.344   8.295 -0.4502 -0.3934  0.2609
63550SOL     OW  579   9.955   9.119   1.264  0.1838  0.2723  0.0378
63550SOL    HW1  580   9.999   9.128   1.179  1.4364 -1.0446  0.5136
63550SOL    HW2  581  10.006   9.175   1.323  0.0458  0.2436  0.1835
63551SOL     OW  582   0.257   7.536   8.667  0.0719 -0.6244  0.0063
63551SOL    HW1  583   0.218   7.468   8.721  1.3093 -2.1774 -0.9846
63551SOL    HW2  584   0.350   7.516   8.666  0.1100 -0.6360 -2.6104
63552SOL     OW  585  10.735   2.661   5.219 -0.3467  0.1430  0.1379
63552SOL    HW1  586  10.828   2.675   5.198 -0.1923 -2.2270 -1.0998
63552SOL    HW2  587  10.688   2.722   5.163  0.4326  0.6376  0.0047
63553SOL     OW  588   8.107   9.053   1.659  0.0978 -0.0214 -0.1747
63553SOL    HW1  589   8.075   9.110   1.589  2.7527  2.4142  0.4247
63553SOL    HW2  590   8.120   8.968   1.616 -1.5687  0.4533 -1.7460
63554SOL     OW  591   7.440   4.356  12.175  0.0710  0.5426  0.8604
63554SOL    HW1  592   7.526   4.341  12.213  0.7930  1.5885 -0.2944
63554SOL    HW2  593   7.452   4.338  12.081 -0.4557  2.5668  0.3588
63555SOL     OW  594   7.340   7.057   0.679 -0.0701 -0.2041 -0.5634
63555SOL    HW1  595   7.261   7.010   0.702 -1.3046  1.3543 -1.4076
63555SOL    HW2  596   7.357   7.033   0.588  1.8300 -2.3176  0.2313
63556SOL     OW  597   0.992  13.180   4.978 -0.3188 -0.0439  0.4335
63556SOL    HW1  598   1.007  13.087   4.990 -0.2997 -0.0209  0.5884
63556SOL    HW2  599   0.967  13.189   4.886  0.0935 -0.1488  0.3122
63557SOL     OW  600   1.074   4.926   4.597  1.0208 -0.6695 -0.4398
63557SOL    HW1  601   1.013   4.913   4.525  1.4160  0.6808 -1.0573
63557SOL    HW2  602   1.078   4.841   4.641 -0.9004 -0.9109 -0.6739
63558SOL     OW  603   4.683   7.454   4.738 -0.0173 -0.0712  0.2200
63558SOL    HW1  604   4.608   7.513   4.747 -1.8304 -2.3691  1.2029
63558SOL    HW2  605   4.662   7.401   4.661  1.7540  0.7356 -0.8755
63559SOL     OW  606   0.755   1.180  10.246  0.0734  0.3449 -0.6920
63559SOL    HW1  607   0.789   1.248  10.305  0.7288  0.6238 -1.3648
63559SOL    HW2  608   0.661   1.195  10.242  0.3992  2.4279 -2.2661
63560SOL     OW  609   4.164  12.891   7.970  0.0964 -0.2314 -0.1820
63560SOL    HW1  610   4.084  12.885   7.917 -0.0854  0.8535 -0.0556
63560SOL    HW2  611   4.213  12.964   7.932  0.2718  0.1420  0.7257
63561SOL     OW  612   6.021   8.714  11.937 -0.0701  0.2794  0.2610
63561SOL    HW1  613   6.023   8.771  12.015 -0.8349  2.1403 -1.0067
63561SOL    HW2  614   5.931   8.680  11.935 -0.5457  1.5028 -0.6200
63562SOL     OW  615   1.945  11.170   0.032  0.0016  0.5016  0.5027
63562SOL    HW1  616   1.898  11.187  -0.049 -0.8503  1.5596  1.1943
63562SOL    HW2  617   1.978  11.256   0.060  1.1284  0.0023  0.7771
63563SOL     OW  618   8.293  11.524  11.336  0.4761  0.0252 -0.2954
63563SOL    HW1  619   8.254  11.481  11.260 -2.0843  0.3887  0.7262
63563SOL    HW2  620   8.305  11.615  11.308 -2.8914  0.8310  0.3812
63564SOL     OW  621   4.320   3.840  12.339  0.7880  0.3424 -0.4736
63564SOL    HW1  622   4.340   3.855  12.431 -0.1376  0.3966 -0.2691
63564SOL    HW2  623   4.368   3.908  12.292 -0.6903  1.9069  0.1856
63565SOL     OW  624   9.893   4.465   5.409  0.3683  0.7066 -0.0562
63565SOL    HW1  625   9.855   4.414   5.337  2.4826  1.1814 -1.6187
63565SOL    HW2  626   9.916   4.549   5.369 -0.0442  1.6873  1.6613
63566SOL     OW  627  10.910  10.766   9.136 -0.0428  0.8900  0.2988
63566SOL    HW1  628  10.915  10.726   9.223  2.4415 -2.2725 -1.1297
63566SOL    HW2  629  10.980  10.831   9.136  0.0650  0.7753  0.5988
63567SOL     OW  630   6.560   7.680  11.067 -0.9285 -0.4681  0.1075
63567SOL    HW1  631   6.611   7.600  11.082 -1.0162 -0.4491  0.5115
63567SOL    HW2  632   6.559   7.725  11.151  1.1970  1.1940 -0.6678
63568SOL     OW  633  11.255  11.814   3.022 -0.7136 -0.3856  0.1854
63568SOL    HW1  634  11.321  11.862   2.970 -0.7936 -1.9853 -1.5136
63568SOL    HW2  635  11.207  11.882   3.069  1.2459  0.9339  0.4118
63569SOL     OW  636   9.777   7.084   5.497  0.0248  0.0525  0.1879
63569SOL    HW1  637   9.697   7.117   5.539 -0.6653 -0.6992 -0.4868
63569SOL    HW2  638   9.759   7.091   5.403  0.3877 -0.9588  0.0301
63570SOL     OW  639   1.390   1.000   9.203 -0.5648 -0.4074 -0.4671
63570SOL    HW1  640   1.359   1.025   9.116 -0.4590 -0.3946 -0.5005
63570SOL    HW2  641   1.310   0.980   9.252 -0.5781 -1.3356 -0.8467
63571SOL     OW  642   7.125   1.179  11.803  0.0705 -0.4587  0.2931
63571SOL    HW1  643   7.185   1.123  11.754 -1.5948 -0.2539 -2.2060
63571SOL    HW2  644   7.126   1.262  11.756 -1.7401 -0.2915  0.4736
63572SOL     OW  645   8.627   3.610   1.071 -0.4503  0.2155  0.4921
63572SOL    HW1  646   8.629   3.641   0.981 -0.1461  0.1741  0.4865
63572SOL    HW2  647   8.614   3.515   1.064 -0.2862  0.1935  0.4897
63573SOL     OW  648   3.778   2.080  12.190 -0.1700 -0.2494 -0.9758
63573SOL    HW1  649   3.772   2.080  12.095 -1.0008 -0.1359 -0.9263
63573SOL    HW2  650   3.869   2.104  12.208  0.2789 -1.3228 -1.7445
63574SOL     OW  651  12.601   2.571   6.873 -0.0350 -0.4721 -0.0850
63574SOL    HW1  652  12.589   2.582   6.779 -0.1289  1.5713  0.1209
63574SOL    HW2  653  12.522   2.527   6.903 -1.3774  1.5046 -0.5615
63575SOL     OW  654   9.095   9.299   6.145  0.4488 -0.3137 -0.4260
63575SOL    HW1  655   9.080   9.347   6.227 -2.4559  1.3877 -1.8055
63575SOL    HW2  656   9.122   9.211   6.173  2.7976  1.0862  2.2328
63576SOL     OW  657   9.450   9.897   6.367  0.4012  0.3019 -0.4942
63576SOL    HW1  658   9.356   9.908   6.361  0.0641 -1.3947  0.7087
63576SOL    HW2  659   9.469   9.823   6.308  0.4173 -1.5146  1.6433
63577SOL     OW  660   3.982   8.093  11.322  0.6468 -0.0319  0.2580
63577SOL    HW1  661   3.944   8.015  11.362  1.4281 -1.6973 -2.0334
63577SOL    HW2  662   4.046   8.124  11.386  0.0959 -1.0745  1.3513
63578SOL     OW  663  11.621   5.800   9.943  0.1514 -0.1700  0.0881
63578SOL    HW1  664  11.608   5.811  10.037 -1.2746 -0.0086 -0.1024
63578SOL    HW2  665  11.539   5.762   9.911  0.9772 -1.1406 -0.9501
63579SOL     OW  666   5.161   1.187   0.511 -0.0346  0.3386 -0.2674
63579SOL    HW1  667   5.201   1.216   0.429  0.5530  0.3697  0.0225
63579SOL    HW2  668   5.074   1.155   0.486  1.1250 -2.2484 -1.3360
63580SOL     OW  669   3.938   7.882   5.549  0.5459 -0.2372 -0.4767
63580SOL    HW1  670   3.901   7.867   5.635  3.1640  0.2623  0.8351
63580SOL    HW2  671   3.943   7.978   5.540  1.7920 -0.2769 -0.4324
63581SOL     OW  672   6.561   6.926   9.729  0.0698 -0.0524  0.6980
63581SOL    HW1  673   6.623   6.895   9.795 -1.3824 -0.0782  2.0958
63581SOL    HW2  674   6.506   6.850   9.710 -0.0440  0.1819  0.0497
63582SOL     OW  675   6.007   8.727   3.332  0.4506 -0.0903 -0.4657
63582SOL    HW1  676   6.024   8.735   3.238 -1.6730  1.2016 -0.8112
63582SOL    HW2  677   5.956   8.646   3.339 -0.9354  0.7327 -0.7168
63583SOL     OW  678   0.245   6.326  12.956  0.1764 -0.2227 -0.0647
63583SOL    HW1  679   0.201   6.242  12.948  0.2124 -0.5351  2.3364
63583SOL    HW2  680   0.177   6.390  12.935 -0.2050 -0.7851 -0.6026
63584SOL     OW  681   9.936   6.739  11.779 -0.0373  0.2304 -0.6566
63584SOL    HW1  682  10.016   6.736  11.833 -0.5536 -1.3751  0.0684
63584SOL    HW2  683   9.949   6.670  11.713 -1.0962 -0.5129 -0.1110
63585SOL     OW  684   6.854   6.631  12.903  0.7579  0.6127 -0.4153
63585SOL    HW1  685   6.913   6.585  12.962 -0.8306 -0.0891  0.6992
63585SOL    HW2  686   6.912   6.675  12.840  2.4834  0.9869  1.3410
63586SOL     OW  687   2.648   0.464  12.930 -0.0719  0.3507 -0.3818
63586SOL    HW1  688   2.569   0.426  12.968 -1.6147  1.2393 -2.4739
63586SOL    HW2  689   2.661   0.546  12.977  1.3994 -1.0999  1.9531
63587SOL     OW  690   1.815   9.046   2.258  0.2709 -0.1536 -0.5569
63587SOL    HW1  691   1.798   9.026   2.350  1.6480 -0.4773 -0.3515
63587SOL    HW2  692   1.731   9.078   2.225 -0.5840 -1.2260  0.4767
63588SOL     OW  693   1.277   5.091   9.263 -0.2453  0.3733 -0.0193
63588SOL    HW1  694   1.279   5.090   9.167  0.4000 -1.7221 -0.0202
63588SOL    HW2  695   1.270   4.999   9.288 -2.1239  0.9600  1.9440
63589SOL     OW  696   5.249   8.976   0.689 -0.3142 -0.4094  0.5793
63589SOL    HW1  697   5.234   9.070   0.672  0.5994 -0.0990  1.4316
63589SOL    HW2  698   5.261   8.971   0.783 -2.1706 -1.6685  0.8085
63590SOL     OW  699   1.238  11.952  12.800 -0.0408  0.3065 -0.1067
63590SOL    HW1  700   1.163  11.934  12.855 -0.0501 -0.1791 -0.2743
63590SOL    HW2  701   1.298  12.001  12.856  0.0006 -0.2829  0.3684
63591SOL     OW  702   0.759  13.051   1.948 -0.2328  0.2689  0.4631
63591SOL    HW1  703   0.831  13.072   1.889 -0.7922  0.5852 -0.1094
63591SOL    HW2  704   0.743  12.958   1.934 -0.0871  0.2490  0.4275
63592SOL     OW  705   1.422  11.358   2.136  0.0973  0.1800 -0.6037
63592SOL    HW1  706   1.383  11.291   2.080  0.5206  1.1725 -2.1239
63592SOL    HW2  707   1.367  11.359   2.214  0.7181 -2.7032 -0.0125
63593SOL     OW  708  12.969  10.524   5.534 -0.5502  0.4392 -0.6548
63593SOL    HW1  709  12.910  10.569   5.594  1.3085  0.5617  1.2266
63593SOL    HW2  710  12.995  10.445   5.582  0.4585  0.1850 -1.5885
63594SOL     OW  711   8.038   6.138   5.110 -0.1135  0.5048 -0.1708
63594SOL    HW1  712   8.098   6.065   5.101  1.0895  1.4399  0.0436
63594SOL    HW2  713   7.963   6.114   5.055  0.5475 -0.5705 -0.6394
63595SOL     OW  714   7.608   8.113   2.360 -0.2671 -0.6018  0.3882
63595SOL    HW1  715   7.593   8.203   2.332 -1.1587 -0.3890  1.4683
63595SOL    HW2  716   7.549   8.061   2.305 -0.4426 -0.4169  0.3976
63596SOL     OW  717  10.444   4.695   0.793  0.3005  0.3283 -0.2114
63596SOL    HW1  718  10.480   4.778   0.761 -0.7357  0.4375 -1.1637
63596SOL    HW2  719  10.511   4.630   0.771  1.2715  0.9419  0.8461
63597SOL     OW  720   6.693   3.677  12.811  0.4212 -0.2229  0.3394
63597SOL    HW1  721   6.709   3.768  12.784 -1.9802  0.0076 -0.6005
63597SOL    HW2  722   6.702   3.627  12.730  3.3682 -1.1675  1.1355
63598SOL     OW  723   1.526  13.065   8.366  0.4748  0.5601 -0.1992
63598SOL    HW1  724   1.460  13.134   8.366  0.5216  0.6489  1.3953
63598SOL    HW2  725   1.558  13.062   8.457  0.8115 -1.2320 -0.3361
63599SOL     OW  726   6.866   7.066  10.988  0.1813  0.3552 -0.3543
63599SOL    HW1  727   6.896   7.092  11.075  0.0455  2.3532 -0.8610
63599SOL    HW2  728   6.772   7.086  10.988  0.0716 -0.1341 -0.7929
63600SOL     OW  729   6.665   2.775  12.865  0.5562 -0.2953 -0.1079
63600SOL    HW1  730   6.739   2.832  12.845 -0.3046  1.6591  1.8424
63600SOL    HW2  731   6.649   2.788  12.958 -1.7735 -1.2576 -0.2938
63601SOL     OW  732   8.405   7.603   0.241 -0.3696  0.0469  0.2669
63601SOL    HW1  733   8.468   7.598   0.313  1.8262  1.4794 -1.4198
63601SOL    HW2  734   8.320   7.614   0.284  0.7439 -0.0036  2.6188
63602SOL     OW  735   7.717  10.905   6.350  0.6731  0.4336 -0.0645
63602SOL    HW1  736   7.806  10.938   6.344  0.4487  0.9391 -0.6528
63602SOL    HW2  737   7.661  10.982   6.339  0.1585  0.1157  0.2422
63603SOL     OW  738  12.375   6.551   9.720  0.0704  0.3570  0.0031
63603SOL    HW1  739  12.455   6.505   9.693  1.0394  1.8773  0.1732
63603SOL    HW2  740  12.366   6.622   9.657 -0.9502  0.4481  0.2313
63604SOL     OW  741  12.375   2.427   6.879  0.4502 -0.2433  0.1016
63604SOL    HW1  742  12.342   2.385   6.800  2.9563 -0.0934 -1.1295
63604SOL    HW2  743  12.304   2.484   6.908 -0.3988  0.0246 -2.3091
63605SOL     OW  744   3.093   0.662   7.582  0.7369 -0.3479 -0.7855
63605SOL    HW1  745   3.056   0.678   7.495 -1.4001 -1.4810 -0.1696
63605SOL    HW2  746   3.185   0.642   7.566  0.8782  1.3380 -2.5619
63606SOL     OW  747   7.514   8.397   4.198 -0.1857 -0.4430 -0.0074
63606SOL    HW1  748   7.512   8.378   4.292  1.7169 -1.7679 -0.1612
63606SOL    HW2  749   7.516   8.310   4.156  0.8317  0.0985 -1.1600
63607SOL     OW  750   3.234   8.743   0.556  0.5542 -0.0624  0.2675
63607SOL    HW1  751   3.255   8.712   0.468  0.3019  1.9277 -0.5530
63607SOL    HW2  752   3.141   8.767   0.551  0.3710 -0.5139  1.2749
63608SOL     OW  753  10.350   0.505  12.210  0.0334 -0.0131  0.2109
63608SOL    HW1  754  10.339   0.414  12.237 -1.0892  0.1331  0.3120
63608SOL    HW2  755  10.324   0.556  12.288  0.6651  0.3955  0.1618
63609SOL     OW  756   7.487   8.784   3.405 -0.0300 -0.2930  0.6753
63609SOL    HW1  757   7.477   8.707   3.348 -1.3186 -0.7817  1.5161
63609SOL    HW2  758   7.401   8.824   3.407  0.1738  0.1229  1.7137
63610SOL     OW  759  10.521  10.868   9.308  0.0525  0.0273 -0.2532
63610SOL    HW1  760  10.539  10.793   9.366 -1.3109 -0.2294 -0.1335
63610SOL    HW2  761  10.557  10.943   9.354  1.8858 -0.5807 -0.5918
63611SOL     OW  762   5.293  13.285   5.200 -0.5464  0.0828  0.6158
63611SOL    HW1  763   5.218  13.252   5.151 -0.0814  1.2119 -0.9586
63611SOL    HW2  764   5.259  13.304   5.287 -1.6167 -1.1859  0.4969
63612SOL     OW  765   0.696   9.721  11.740  0.7260  0.1414 -0.0495
63612SOL    HW1  766   0.633   9.763  11.798  0.7054  1.0817 -0.7359
63612SOL    HW2  767   0.735   9.651  11.793 -0.8437 -0.4281  0.3949
63613SOL     OW  768  12.579  10.239   3.313 -0.3657  0.7963 -0.2613
63613SOL    HW1  769  12.670  10.225   3.288 -0.6310 -0.2985 -0.6365
63613SOL    HW2  770  12.570  10.335   3.316  0.7415  0.9160 -0.3774
63614SOL     OW  771   4.517   1.978   9.481  0.3164 -0.2422  0.3016
63614SOL    HW1  772   4.563   1.988   9.564  2.1905  1.5315 -0.8374
63614SOL    HW2  773   4.482   2.065   9.463  1.7177 -0.0153 -1.6701
63615SOL     OW  774   2.110  10.846   9.015  0.3263 -0.2822  0.1344
63615SOL    HW1  775   2.179  10.861   8.951 -1.3240 -0.0608 -1.6948
63615SOL    HW2  776   2.092  10.933   9.051  1.3997 -0.4386  1.1129
63616SOL     OW  777  12.497  11.162   3.822  0.3459 -0.4691  0.1646
63616SOL    HW1  778  12.591  11.152   3.837  0.7986  2.6275  0.0064
63616SOL    HW2  779  12.473  11.238   3.875 -1.2555  1.1698 -2.7128
63617SOL     OW  780  11.745   3.502   6.257  0.0554  0.5599 -0.1061
63617SOL    HW1  781  11.840   3.499   6.271  0.1676 -0.4518 -1.0119
63617SOL    HW2  782  11.708   3.493   6.345  0.7974 -0.8335  0.0960
63618SOL     OW  783   1.075   4.032   6.589  0.0921 -0.2134  0.0241
63618SOL    HW1  784   1.147   4.017   6.527  0.2739  0.8181 -0.0252
63618SOL    HW2  785   1.061   3.946   6.629  1.2969 -0.4587 -0.0260
63619SOL     OW  786   2.048   7.754   0.989 -0.5802  0.0717  0.1644
63619SOL    HW1  787   2.018   7.739   1.078  0.3468 -1.1134  0.3032
63619SOL    HW2  788   2.141   7.773   0.998 -0.5809  0.4014 -0.5054
63620SOL     OW  789   2.883   5.680   1.344  0.5333 -0.0457 -0.6485
63620SOL    HW1  790   2.962   5.684   1.397  1.1482  0.1340 -1.5710
63620SOL    HW2  791   2.879   5.764   1.299 -0.6718  0.3041  0.0602
63621SOL     OW  792   7.653   1.016   4.832  0.5251 -0.0547  0.0435
63621SOL    HW1  793   7.625   0.928   4.858 -1.8554  0.4768 -0.5041
63621SOL    HW2  794   7.701   1.049   4.908  2.2819 -2.1248 -0.0850
63622SOL     OW  795  11.453   2.367   0.873 -0.6035 -0.1114  0.2187
63622SOL    HW1  796  11.414   2.310   0.806  0.8789  0.1953 -0.9558
63622SOL    HW2  797  11.495   2.437   0.823 -1.9880  1.8222  1.6215
63623SOL     OW  798   3.752  10.053   4.290 -0.2448  0.0556  0.1500
63623SOL    HW1  799   3.847  10.054   4.278 -0.2333  0.1704  0.2535
63623SOL    HW2  800   3.718  10.078   4.204 -0.1874 -0.2422  0.0407
63624SOL     OW  801   8.156  12.973  13.033  0.0034  0.2436 -0.7279
63624SOL    HW1  802   8.103  13.049  13.056 -0.9670 -0.8433  0.8671
63624SOL    HW2  803   8.093  12.901  13.030  1.0873 -0.7240 -0.8524
63625SOL     OW  804   9.080   3.870   6.362  0.0171 -0.4779 -0.1118
63625SOL    HW1  805   9.121   3.821   6.291  0.9664 -1.1782  0.8748
63625SOL    HW2  806   8.992   3.892   6.330  0.7613  0.0926 -1.8524
63626SOL     OW  807   2.601   3.803   4.018  0.0843  0.3290 -0.5832
63626SOL    HW1  808   2.596   3.896   4.039 -1.0753  0.2191 -0.2992
63626SOL    HW2  809   2.541   3.792   3.943 -2.3801 -0.7043  1.3888
63627SOL     OW  810   0.566   0.406   5.945  0.0968 -0.2826 -0.5911
63627SOL    HW1  811   0.629   0.347   5.985  1.2145  0.4439 -1.2369
63627SOL    HW2  812   0.598   0.494   5.966 -1.0315  0.1086 -0.4211
63628SOL     OW  813   2.599   9.992   9.156 -0.3903  0.0144  0.1459
63628SOL    HW1  814   2.612  10.028   9.243 -1.1012  0.8191 -0.0697
63628SOL    HW2  815   2.647   9.909   9.157 -1.0757 -0.3958  1.5680
63629SOL     OW  816   3.693   7.545   7.738 -0.0040  0.0619  0.0665
63629SOL    HW1  817   3.606   7.567   7.706 -0.1557  1.2616  1.2183
63629SOL    HW2  818   3.720   7.471   7.684 -1.2888  0.3451 -1.0323
63630SOL     OW  819   4.680   1.706   6.020  0.2372  0.3237  0.2165
63630SOL    HW1  820   4.729   1.748   5.949  0.3789 -0.2076 -0.0103
63630SOL    HW2  821   4.609   1.767   6.040 -1.0544 -0.4156 -1.7801
63631SOL     OW  822   8.514   1.869   8.290 -0.0771 -0.2857  0.7865
63631SOL    HW1  823   8.438   1.926   8.279 -0.4224 -1.1790 -2.2709
63631SOL    HW2  824   8.589   1.925   8.266 -0.2583 -0.6387 -0.6589
63632SOL     OW  825   8.338   7.721  10.731  0.7367 -1.0069 -0.1877
63632SOL    HW1  826   8.311   7.689  10.817 -1.0376 -0.2043 -0.3852
63632SOL    HW2  827   8.312   7.813  10.731  0.5865 -1.0235 -1.6194
63633SOL     OW  828   1.962   8.680  12.395 -0.1565  0.5269  0.0411
63633SOL    HW1  829   2.037   8.696  12.338 -0.3871 -0.2935 -0.5086
63633SOL    HW2  830   1.895   8.741  12.364  0.0295  0.7451  0.0590
63634SOL     OW  831  12.780   6.357  11.952  0.3194  0.1645 -0.9866
63634SOL    HW1  832  12.861   6.320  11.918 -0.5905 -0.7287 -2.2440
63634SOL    HW2  833  12.809   6.430  12.008  2.0195 -0.7679 -0.5770
63635SOL     OW  834   6.665  11.350  12.188  0.1524  0.3619 -0.3674
63635SOL    HW1  835   6.674  11.437  12.151  0.8327  1.0533  1.3161
63635SOL    HW2  836   6.670  11.363  12.283 -0.8409 -1.3847 -0.0259
63636SOL     OW  837   0.925   4.007  10.622  0.0289  0.1362  0.4434
63636SOL    HW1  838   0.839   4.036  10.591 -1.1094 -3.0154  0.2367
63636SOL    HW2  839   0.917   4.004  10.718 -0.5512 -1.2199  0.3779
63637SOL     OW  840   9.663  12.353   9.974 -0.3680  0.1102 -0.3172
63637SOL    HW1  841   9.657  12.260   9.955 -2.1125  0.3290 -0.9955
63637SOL    HW2  842   9.735  12.360  10.037  0.7027 -1.5014 -1.3061
63638SOL     OW  843   2.864   2.341  12.460  0.0852  0.0114 -0.0634
63638SOL    HW1  844   2.836   2.421  12.506  0.1574  0.8177 -1.3597
63638SOL    HW2  845   2.859   2.272  12.526 -1.0114  0.8935  0.8198
63639SOL     OW  846   3.923   0.455   5.239 -0.3849  0.2138 -0.5021
63639SOL    HW1  847   4.018   0.443   5.247 -0.1593  2.3072  0.7421
63639SOL    HW2  848   3.885   0.382   5.288  0.6200 -0.0589 -0.1080
63640SOL     OW  849   1.395   2.522   2.349  0.2586 -0.4187 -0.1915
63640SOL    HW1  850   1.358   2.608   2.327  1.1892  0.4632  1.5182
63640SOL    HW2  851   1.393   2.518   2.444 -0.3121 -2.5867 -0.2377
63641SOL     OW  852   2.314   1.810   9.300 -1.0330 -0.0077  0.1302
63641SOL    HW1  853   2.281   1.728   9.336 -0.5463 -1.5235 -2.6533
63641SOL    HW2  854   2.372   1.844   9.368 -2.8201 -0.8525  2.1982
63642SOL     OW  855   3.764   0.063   0.963  0.5751  0.3532 -0.1676
63642SOL    HW1  856   3.855   0.067   0.993  0.9865 -0.3744 -1.2559
63642SOL    HW2  857   3.750  -0.030   0.943 -0.6579  0.3294  0.6908
63643SOL     OW  858   3.151  10.887   0.008  0.1600  0.3451 -0.5461
63643SOL    HW1  859   3.186  10.878   0.097  0.7406  0.6185 -0.7416
63643SOL    HW2  860   3.223  10.924  -0.043 -0.1370  0.1006 -1.1568
63644SOL     OW  861   4.237   7.114  10.225  0.0616 -0.5179 -0.2193
63644SOL    HW1  862   4.186   7.183  10.184 -0.2908 -0.6017  0.0678
63644SOL    HW2  863   4.175   7.069  10.283 -0.0009 -1.7534 -1.1933
63645SOL     OW  864   4.176   1.754   5.309 -0.4328 -0.3618 -0.0059
63645SOL    HW1  865   4.161   1.703   5.230 -1.2449 -0.8027  0.4231
63645SOL    HW2  866   4.089   1.771   5.344 -0.1478  0.8871  0.1400
63646SOL     OW  867   6.069   8.969   4.920  0.6601  0.2899  0.5907
63646SOL    HW1  868   6.022   9.003   4.844  1.1297 -0.5413 -0.0929
63646SOL    HW2  869   6.155   9.012   4.917  0.3208  1.0459  1.2632
63647SOL     OW  870   5.591   1.684   5.396  0.3389  0.6037 -0.2000
63647SOL    HW1  871   5.570   1.611   5.338  0.3342  0.1562  0.3482
63647SOL    HW2  872   5.506   1.719   5.422  0.2979 -0.0249  0.5520
63648SOL     OW  873   2.297   7.685  13.063  0.1158 -0.2334  0.5456
63648SOL    HW1  874   2.209   7.674  13.098  0.0805  0.5352  0.7274
63648SOL    HW2  875   2.355   7.669  13.138  0.1156 -0.3460  0.5219
63649SOL     OW  876   8.570   8.192  11.124  0.0686  0.1761  0.1886
63649SOL    HW1  877   8.651   8.242  11.125  0.5324 -0.5388 -0.4062
63649SOL    HW2  878   8.569   8.146  11.208  0.0072  0.6033  0.4228
63650SOL     OW  879   4.076   9.545   7.724  0.5359  0.0723  0.8860
63650SOL    HW1  880   4.064   9.453   7.747  0.4723 -0.6237 -1.6017
63650SOL    HW2  881   4.004   9.564   7.663  1.6435  1.1869 -0.1229
63651SOL     OW  882   8.109  12.331   3.430  0.1387 -0.1519  0.1176
63651SOL    HW1  883   8.070  12.304   3.347  0.7951  0.4333 -0.3951
63651SOL    HW2  884   8.090  12.259   3.491 -0.9222 -0.2846 -0.3586
63652SOL     OW  885   0.851   0.062   8.798 -0.3499  0.2440  0.2090
63652SOL    HW1  886   0.789   0.079   8.728 -1.6958 -0.5045  1.1719
63652SOL    HW2  887   0.799   0.068   8.878  0.6385 -1.1218  1.0102
63653SOL     OW  888   6.851   3.955  12.992 -0.1419 -0.1676 -0.4781
63653SOL    HW1  889   6.792   4.031  12.995  0.3649  0.2747 -1.2528
63653SOL    HW2  890   6.929   3.988  12.948  2.6353  0.5821  4.3084
63654SOL     OW  891   4.107  13.231  13.254 -0.3478 -0.0543 -0.2577
63654SOL    HW1  892   4.197  13.243  13.225 -0.2997 -2.2281 -1.1922
63654SOL    HW2  893   4.113  13.213  13.348  0.2557 -0.6814 -0.4100
63655SOL     OW  894   9.085   1.173   1.762 -0.4582  0.5800  0.1959
63655SOL    HW1  895   9.005   1.221   1.738 -1.9037 -1.4114  0.7692
63655SOL    HW2  896   9.063   1.081   1.747  2.1617  0.0246 -0.7192
63656SOL     OW  897   4.392   9.838   9.357 -0.7379  0.4340 -0.1827
63656SOL    HW1  898   4.449   9.809   9.428 -0.0372 -0.3642 -1.0464
63656SOL    HW2  899   4.382   9.932   9.371  1.2325  0.6955 -0.3084
63657SOL     OW  900  10.935   4.703   0.105 -0.5738  0.0337 -0.1077
63657SOL    HW1  901  11.004   4.749   0.058 -0.1151 -0.4376  0.0892
63657SOL    HW2  902  10.884   4.772   0.147 -1.5845  0.5530 -2.0494
63658SOL     OW  903   3.668  12.134  11.624  0.2238 -0.1048  0.1303
63658SOL    HW1  904   3.609  12.088  11.684 -0.8116  1.6822  0.5677
63658SOL    HW2  905   3.727  12.066  11.591 -0.9121 -1.6232  1.0930
63659SOL     OW  906   3.656   7.553   6.497 -0.0055  0.0078 -0.0344
63659SOL    HW1  907   3.696   7.553   6.410  2.4529 -0.1756  1.0290
63659SOL    HW2  908   3.664   7.644   6.527 -0.8448  0.0711  0.0357
63660SOL     OW  909   8.170   4.688   6.734  0.1117 -0.1116 -0.7901
63660SOL    HW1  910   8.251   4.637   6.742 -0.2175 -0.6256 -0.6370
63660SOL    HW2  911   8.184   4.765   6.789 -0.1633 -1.0679  0.6685
63661SOL     OW  912   6.752   1.164   2.481  0.0006 -0.1718 -0.0623
63661SOL    HW1  913   6.787   1.170   2.392 -0.1217  0.0477 -0.0972
63661SOL    HW2  914   6.749   1.070   2.499  3.3948 -0.1887  1.0783
63662SOL     OW  915  11.731   1.522   7.114  0.1352 -0.1675 -0.1692
63662SOL    HW1  916  11.666   1.461   7.149  0.1055  0.7570  1.5321
63662SOL    HW2  917  11.815   1.488   7.144  0.3482 -0.6902 -1.3174
63663SOL     OW  918   3.649   3.287   6.442  0.2570 -0.1325  0.0505
63663SOL    HW1  919   3.562   3.326   6.450 -0.3293 -1.3277 -0.1855
63663SOL    HW2  920   3.695   3.312   6.522 -0.4556  0.1731  0.3708
63664SOL     OW  921   0.844   6.917   6.711 -0.4967  0.4493 -0.1860
63664SOL    HW1  922   0.933   6.888   6.731 -0.0834  1.6777 -0.1289
63664SOL    HW2  923   0.837   6.908   6.616 -0.6900 -0.6322 -0.0795
63665SOL     OW  924  10.771   7.574   0.810 -0.3912 -0.1648 -0.6009
63665SOL    HW1  925  10.768   7.634   0.735 -0.3342 -2.0798 -2.2011
63665SOL    HW2  926  10.859   7.536   0.805 -0.1141  0.2196  0.9222
63666SOL     OW  927   0.837   6.265  10.333  0.0284  0.0003 -0.1072
63666SOL    HW1  928   0.753   6.311  10.332 -0.4778 -0.8664  0.6474
63666SOL    HW2  929   0.862   6.259  10.241 -0.5442  0.6264 -0.3133
63667SOL     OW  930   2.631   6.672   9.650  0.1279  0.6605  0.0236
63667SOL    HW1  931   2.699   6.605   9.653 -1.6234 -1.2663 -0.4493
63667SOL    HW2  932   2.644   6.723   9.729  0.6181 -1.2479  1.2430
63668SOL     OW  933   3.528   1.902   1.106  0.0130  0.1664 -0.4606
63668SOL    HW1  934   3.484   1.944   1.179  0.5232 -1.6158  0.9697
63668SOL    HW2  935   3.568   1.973   1.057 -1.4414  1.5125  0.2357
63669SOL     OW  936   8.631  11.420   7.180  0.5107  0.2434  0.4285
63669SOL    HW1  937   8.599  11.456   7.097  0.9165  1.2302  0.6812
63669SOL    HW2  938   8.599  11.330   7.181 -0.0712  0.4228 -0.4895
63670SOL     OW  939   1.820   5.544  10.370 -0.6390 -0.3106  0.2282
63670SOL    HW1  940   1.798   5.629  10.407 -0.6879  1.2074 -2.9363
63670SOL    HW2  941   1.752   5.485  10.402 -0.5637  0.7456  2.5502
63671SOL     OW  942   9.700  11.693   9.126  0.0219 -0.0123  0.5314
63671SOL    HW1  943   9.769  11.702   9.192  0.3518 -0.0974  0.2002
63671SOL    HW2  944   9.622  11.670   9.177 -0.0283  1.2016  1.0172
63672SOL     OW  945   3.747   2.467   2.577  0.3435 -0.2915  0.2591
63672SOL    HW1  946   3.762   2.556   2.609  0.1287 -0.3238  0.4532
63672SOL    HW2  947   3.677   2.477   2.512 -0.6029 -0.4886  1.2148
63673SOL     OW  948   8.248  12.660   0.471 -0.0963 -0.0935 -0.0550
63673SOL    HW1  949   8.216  12.678   0.559  0.9320  1.5204  0.0255
63673SOL    HW2  950   8.292  12.575   0.478  0.9779  0.5301  1.3078
63674SOL     OW  951  11.217  11.730   9.570  0.1760  0.0516  0.1993
63674SOL    HW1  952  11.287  11.788   9.540  0.0684  0.5810  0.9508
63674SOL    HW2  953  11.145  11.745   9.509  0.1163  0.7756  0.4392
63675SOL     OW  954   9.833   0.376   2.387  0.0160  0.4781  0.0167
63675SOL    HW1  955   9.850   0.378   2.293  1.1755  0.8267  0.2138
63675SOL    HW2  956   9.819   0.468   2.410 -0.3512  0.3833  0.1632
63676SOL     OW  957   1.476  10.788   4.010 -0.1339 -0.1464  0.0198
63676SOL    HW1  958   1.392  10.791   3.963 -0.0236 -0.2451 -0.1834
63676SOL    HW2  959   1.541  10.774   3.942  0.1286  0.6806  0.0854
63677SOL     OW  960   5.337   6.736   4.441 -0.5740  0.1403 -0.4407
63677SOL    HW1  961   5.294   6.684   4.373  0.6264 -0.3447 -0.8646
63677SOL    HW2  962   5.392   6.797   4.393  0.0161  0.0354  0.0834
63678SOL     OW  963  10.333  11.383  11.395 -0.0618  0.1456  0.0246
63678SOL    HW1  964  10.317  11.405  11.303 -0.1542 -1.9701 -0.5179
63678SOL    HW2  965  10.369  11.294  11.393  1.6425  0.7099  1.9374
63679SOL     OW  966   1.910   0.006  10.899  0.0963 -0.8086 -0.0227
63679SOL    HW1  967   2.003  -0.019  10.897  0.4257  0.1595  1.5690
63679SOL    HW2  968   1.863  -0.077  10.886  1.1321 -1.1013 -2.5206
63680SOL     OW  969  11.721  11.966   6.131  0.1763  0.1310 -0.0573
63680SOL    HW1  970  11.732  12.058   6.157 -1.3260  0.4672 -0.4868
63680SOL    HW2  971  11.646  11.936   6.182 -1.2224  0.0498 -2.0419
63681SOL     OW  972   7.357   4.163   0.520 -0.1800 -0.5262 -0.3749
63681SOL    HW1  973   7.439   4.149   0.568 -0.0622 -2.0253 -0.9825
63681SOL    HW2  974   7.343   4.082   0.471 -1.5467  0.0662 -1.0165
63682SOL     OW  975   1.700  12.075   8.171 -0.1039 -0.1081 -1.2775
63682SOL    HW1  976   1.652  12.035   8.243  1.3301 -0.7631 -0.6435
63682SOL    HW2  977   1.647  12.150   8.145 -1.0685 -0.3630 -0.1236
63683SOL     OW  978   5.484   9.845  11.456  0.1747  0.5544 -0.1182
63683SOL    HW1  979   5.529   9.804  11.530  1.9779 -0.8369 -1.8804
63683SOL    HW2  980   5.401   9.875  11.493  0.6682 -0.7637  2.2910
63684SOL     OW  981   4.748   2.630  12.518  0.1741 -0.4029  0.5940
63684SOL    HW1  982   4.818   2.625  12.453 -0.9397  1.0139 -0.8100
63684SOL    HW2  983   4.668   2.639  12.466 -0.9884 -1.2704  2.1576
63685SOL     OW  984   2.686  11.078  12.459 -0.1801  0.1364 -0.4557
63685SOL    HW1  985   2.750  11.050  12.394 -0.5130  0.4696 -0.9384
63685SOL    HW2  986   2.675  11.003  12.516 -1.1067 -0.7786 -1.7630
63686SOL     OW  987   1.670   5.398  10.977 -0.9128  0.2053 -0.2201
63686SOL    HW1  988   1.760   5.384  10.949 -0.6577  4.0034 -1.7916
63686SOL    HW2  989   1.618   5.346  10.915  0.0704  1.1157 -1.8690
63687SOL     OW  990  10.275  12.145  12.598  0.3219 -0.0438 -0.2568
63687SOL    HW1  991  10.191  12.189  12.586  0.6835  0.4300 -1.1517
63687SOL    HW2  992  10.298  12.114  12.511  1.0393 -0.2309 -0.0023
63688SOL     OW  993   7.876   8.315   5.046 -0.0881  0.1108  0.2340
63688SOL    HW1  994   7.922   8.266   4.978 -1.9392 -0.3412 -0.7526
63688SOL    HW2  995   7.924   8.295   5.126  2.2812  0.8050 -0.9077
63689SOL     OW  996   9.546  10.370   8.578  0.5571 -0.0017 -0.0819
63689SOL    HW1  997   9.526  10.347   8.669  1.4688 -0.0948  0.1009
63689SOL    HW2  998   9.483  10.319   8.527 -0.3902  0.5379  0.5118
63690SOL     OW  999   4.553   2.007   2.822 -0.0792  0.7524  0.2850
63690SOL    HW1 1000   4.484   2.031   2.883 -0.3628 -0.8700  0.6426
63690SOL    HW2 1001   4.512   1.942   2.764  1.1884 -0.3944  0.6376
63691SOL     OW 1002   9.855  12.242   0.103 -0.7641 -0.1701  0.1154
63691SOL    HW1 1003   9.816  12.221   0.018 -2.5680 -2.1096  1.3497
63691SOL    HW2 1004   9.945  12.266   0.082 -1.7425  1.7104 -2.5595
63692SOL     OW 1005   6.364   5.531   7.327 -0.2191  0.4094 -0.5127
63692SOL    HW1 1006   6.349   5.565   7.238 -0.9516  2.3122  0.2884
63692SOL    HW2 1007   6.302   5.579   7.381  0.3891 -0.5518  1.0810
63693SOL     OW 1008   6.145   7.862   6.886 -0.2025  0.1984  0.3497
63693SOL    HW1 1009   6.127   7.768   6.891 -1.0851  0.3467  0.1942
63693SOL    HW2 1010   6.199   7.872   6.808 -1.6300  0.0144 -0.7055
63694SOL     OW 1011   6.193   1.186   3.318 -0.1351 -0.1304  0.5301
63694SOL    HW1 1012   6.251   1.132   3.372 -1.3522 -0.3447  1.6818
63694SOL    HW2 1013   6.195   1.272   3.360  1.6757  0.7558 -1.2090
63695SOL     OW 1014   3.165   1.952   6.631  0.1891  0.3738  0.0880
63695SOL    HW1 1015   3.204   2.025   6.582 -0.0879  1.1896  1.0612
63695SOL    HW2 1016   3.209   1.875   6.597  0.4291  0.9793 -1.0344
63696SOL     OW 1017   6.966  11.321   0.402  0.2135  1.4437 -0.6273
63696SOL    HW1 1018   6.947  11.316   0.308  1.1446  2.0543 -0.8620
63696SOL    HW2 1019   6.914  11.395   0.432 -1.3161  0.3006 -0.3164
63697SOL     OW 1020   3.880   6.208   6.791  0.3181  0.3951  0.1067
63697SOL    HW1 1021   3.913   6.280   6.738  1.1286 -1.1405 -1.5834
63697SOL    HW2 1022   3.953   6.146   6.796 -1.3144 -1.8356 -1.4132
63698SOL     OW 1023  11.034   3.858  12.987  0.5635  0.1179  0.0454
63698SOL    HW1 1024  11.030   3.789  13.053  0.8533 -0.4548 -0.5224
63698SOL    HW2 1025  10.970   3.831  12.921  1.4780 -0.2153 -0.7339
63699SOL     OW 1026   3.320  10.180   2.010 -0.2497  0.4075 -0.2795
63699SOL    HW1 1027   3.305  10.090   1.981  1.8772  0.3412 -1.3371
63699SOL    HW2 1028   3.259  10.232   1.957 -1.4052 -0.3515  0.2516
63700SOL     OW 1029   3.548  10.177  10.014  0.5235  0.2896 -0.0242
63700SOL    HW1 1030   3.565  10.226  10.094  1.9642  0.4511 -0.4040
63700SOL    HW2 1031   3.508  10.241   9.955 -0.4727  0.1884  0.5101
63701SOL     OW 1032   4.417   4.373   7.401 -0.8222  0.4385  0.0978
63701SOL    HW1 1033   4.456   4.453   7.437  2.5520 -1.3673  0.9424
63701SOL    HW2 1034   4.327   4.374   7.431 -0.5773  3.2953  1.0897
63702SOL     OW 1035   8.289   7.647  11.017 -0.0442  0.3940 -0.6455
63702SOL    HW1 1036   8.373   7.638  11.061 -0.2249  0.6570 -0.2403
63702SOL    HW2 1037   8.248   7.561  11.026 -0.4861  0.7094  0.5585
63703SOL     OW 1038   1.224   7.627  11.806  0.1211  0.4898 -0.7905
63703SOL    HW1 1039   1.131   7.606  11.817  0.7045 -1.4978  0.7547
63703SOL    HW2 1040   1.226   7.723  11.800 -2.0032  0.5760 -0.8718
63704SOL     OW 1041  12.156   5.011   9.439  0.0380  0.2511  0.1538
63704SOL    HW1 1042  12.104   5.088   9.461 -0.0528  0.3814 -0.4951
63704SOL    HW2 1043  12.102   4.962   9.378 -0.0123 -0.4723  0.7666
63705SOL     OW 1044   7.193  11.245   8.923  0.3786 -0.4776 -0.3917
63705SOL    HW1 1045   7.137  11.321   8.938  1.7246  0.7509 -1.2925
63705SOL    HW2 1046   7.134  11.170   8.927 -0.6899  0.3586  2.6464
63706SOL     OW 1047   8.023   0.385   7.694 -0.4007 -0.1278 -0.1894
63706SOL    HW1 1048   8.032   0.421   7.605  1.2098 -2.4250 -1.0828
63706SOL    HW2 1049   8.084   0.311   7.695  0.2373  0.2955  3.1307
63707SOL     OW 1050   3.558  11.438   0.424  0.0572  0.4309 -0.3319
63707SOL    HW1 1051   3.497  11.483   0.366 -1.7080 -0.0492  1.0808
63707SOL    HW2 1052   3.503  11.382   0.479  1.8555 -0.6857  0.4322
63708SOL     OW 1053   7.524   9.619   9.058  0.2642  0.1530 -0.3712
63708SOL    HW1 1054   7.614   9.639   9.084 -0.0582  1.5105 -0.2426
63708SOL    HW2 1055   7.471   9.640   9.135 -0.0779 -1.8477  0.0053
63709SOL     OW 1056   9.155   8.056   5.335 -0.7289 -0.3000 -0.4323
63709SOL    HW1 1057   9.080   8.055   5.396 -0.0185 -1.2355  0.4574
63709SOL    HW2 1058   9.134   7.988   5.271 -0.8036 -0.3038 -0.4049
63710SOL     OW 1059   6.870   8.572  10.255 -0.0733  0.3428 -0.3697
63710SOL    HW1 1060   6.793   8.587  10.201  0.8924 -0.5409 -2.0919
63710SOL    HW2 1061   6.931   8.641  10.231  0.2532  0.1275 -0.1785
63711SOL     OW 1062   4.137   7.024   1.192 -0.4405 -0.0707 -0.0319
63711SOL    HW1 1063   4.068   6.978   1.144 -0.5368 -0.0006  0.0389
63711SOL    HW2 1064   4.190   6.954   1.230  0.0413 -0.1411 -0.8092
63712SOL     OW 1065  11.793  11.666   6.651 -0.0500 -0.6249 -0.8876
63712SOL    HW1 1066  11.701  11.676   6.672 -0.2639 -0.2781 -1.9197
63712SOL    HW2 1067  11.838  11.731   6.706 -0.5445 -0.0215 -1.1848
63713SOL     OW 1068   6.004   5.919  11.845  0.1367 -0.1213  0.7895
63713SOL    HW1 1069   5.986   5.878  11.930  1.1424  3.5018  2.9630
63713SOL    HW2 1070   5.927   5.972  11.827  0.5261  0.2597  0.2040
63714SOL     OW 1071   3.650   1.204  10.556 -0.1514  0.7940 -0.3454
63714SOL    HW1 1072   3.589   1.135  10.530  0.5363 -0.3504  0.9407
63714SOL    HW2 1073   3.628   1.222  10.647  2.2179 -0.6424  0.6329
63715SOL     OW 1074   0.143   0.446  10.511 -0.2260 -0.8494  1.1882
63715SOL    HW1 1075   0.059   0.427  10.469  0.5080  0.5573 -1.1710
63715SOL    HW2 1076   0.122   0.511  10.578 -1.0570 -0.4436  0.5715
63716SOL     OW 1077   5.190   2.297   6.158 -0.4780  0.4277 -0.1046
63716SOL    HW1 1078   5.114   2.260   6.113  0.3875 -0.1610 -1.1225
63716SOL    HW2 1079   5.159   2.314   6.248 -1.1024 -2.1642  0.2348
63717SOL     OW 1080   5.836   5.437   1.588  0.1603  0.3945  0.5576
63717SOL    HW1 1081   5.777   5.417   1.515  1.2531 -0.0001 -0.2720
63717SOL    HW2 1082   5.817   5.527   1.611 -1.0392  0.1399  0.5846
63718SOL     OW 1083   8.985   5.621  12.734  0.4426  0.2490  0.4149
63718SOL    HW1 1084   8.964   5.611  12.827  0.4597  1.4674  0.5671
63718SOL    HW2 1085   8.970   5.534  12.697  1.2001 -0.4619  1.6937
63719SOL     OW 1086   2.754   0.175   5.745  0.2476 -0.2307  0.2203
63719SOL    HW1 1087   2.850   0.172   5.746  0.2639 -0.1261 -0.5074
63719SOL    HW2 1088   2.728   0.102   5.690 -0.0487  0.3457 -0.4252
63720SOL     OW 1089  12.133   1.213   5.270  0.3587  0.0729  0.2066
63720SOL    HW1 1090  12.137   1.175   5.182 -0.0312  0.0304  0.2025
63720SOL    HW2 1091  12.103   1.141   5.326  0.2733  0.1933  0.3159
63721SOL     OW 1092   0.104  11.287   1.307 -0.4992 -0.1039  0.3216
63721SOL    HW1 1093   0.068  11.271   1.219 -0.6498 -0.6653  0.4820
63721SOL    HW2 1094   0.199  11.285   1.294 -0.5102 -0.8805  0.2807
63722SOL     OW 1095   2.526   1.167   7.001  0.5993  0.0157  0.1869
63722SOL    HW1 1096   2.593   1.180   7.068  2.0337 -0.5134 -1.0887
63722SOL    HW2 1097   2.514   1.254   6.962  2.3960 -0.2932 -1.2079
63723SOL     OW 1098   4.898   4.384  11.894  0.0026  0.3546 -0.2866
63723SOL    HW1 1099   4.855   4.467  11.876 -0.1288  0.2791 -0.3192
63723SOL    HW2 1100   4.827   4.323  11.911  0.1002  0.2582 -0.2211
63724SOL     OW 1101   5.467   3.731  13.239  0.0950  0.1529 -0.3360
63724SOL    HW1 1102   5.455   3.822  13.213  1.7088  0.9143  1.4122
63724SOL    HW2 1103   5.533   3.733  13.308  1.2275 -2.4931 -1.1962
63725SOL     OW 1104   6.389   9.271   9.535  0.8997 -0.1522 -0.0627
63725SOL    HW1 1105   6.409   9.181   9.563  0.3209 -0.4933 -0.7092
63725SOL    HW2 1106   6.328   9.303   9.601  2.1546  0.2742  0.9402
63726SOL     OW 1107   8.705  12.903  12.419 -0.1100  0.1862  0.2851
63726SOL    HW1 1108   8.757  12.904  12.339  2.0461 -3.3058  1.4145
63726SOL    HW2 1109   8.615  12.894  12.388  0.7671 -2.7285 -1.8626
63727SOL     OW 1110   5.578  11.091   8.210  0.0210 -0.4052  0.8613
63727SOL    HW1 1111   5.556  11.062   8.121  0.8635  0.4925  0.3380
63727SOL    HW2 1112   5.671  11.069   8.219  0.8480  2.4940  0.2445
63728SOL     OW 1113  11.258   4.777   5.305  0.0570  0.3449  0.2119
63728SOL    HW1 1114  11.181   4.724   5.286 -0.9382  1.9975 -0.6475
63728SOL    HW2 1115  11.280   4.756   5.396 -1.7785  0.2529  0.6651
63729SOL     OW 1116   3.906   2.098   7.696 -0.0065  0.3659 -0.2956
63729SOL    HW1 1117   3.960   2.131   7.625  0.2527 -0.3955 -0.4623
63729SOL    HW2 1118   3.905   2.003   7.683 -2.7199  0.4328 -1.2804
63730SOL     OW 1119   6.404   4.523   1.833  0.5932  0.7648 -0.0853
63730SOL    HW1 1120   6.466   4.454   1.860 -0.0584  0.2416  0.1122
63730SOL    HW2 1121   6.420   4.534   1.739 -0.0669 -0.4686 -0.3584
63731SOL     OW 1122   4.525  10.033   0.694  0.0503 -0.2956  0.1426
63731SOL    HW1 1123   4.498  10.000   0.779  0.9237  0.1094  0.5840
63731SOL    HW2 1124   4.484   9.973   0.631 -0.6243 -0.5752  0.8375
63732SOL     OW 1125   0.539   6.457   6.564 -0.3351 -0.1550 -0.4803
63732SOL    HW1 1126   0.527   6.452   6.658  1.3660 -0.0021 -0.2239
63732SOL    HW2 1127   0.544   6.366   6.534  1.0055 -0.2266 -0.1191
63733SOL     OW 1128   5.324  13.274  10.623 -0.0698  0.3886  0.5288
63733SOL    HW1 1129   5.250  13.248  10.569 -1.1143  2.9698  0.5348
63733SOL    HW2 1130   5.295  13.256  10.713 -1.3191  2.5250  0.6269
63734SOL     OW 1131   9.281  10.984   4.259  0.1649  0.2084  0.0033
63734SOL    HW1 1132   9.345  11.033   4.312  1.0497 -0.6215 -0.2655
63734SOL    HW2 1133   9.201  10.984   4.311  0.4765  0.9907  0.4964
63735SOL     OW 1134   2.374  10.502   3.298 -0.0508 -0.7903  0.6060
63735SOL    HW1 1135   2.453  10.515   3.351  1.2695 -0.8821 -1.2292
63735SOL    HW2 1136   2.303  10.501   3.361  1.3054  0.2621  2.2546
63736SOL     OW 1137   9.127   0.067  12.127 -0.6495  0.0277  0.6227
63736SOL    HW1 1138   9.071   0.139  12.154 -0.1515 -0.3303  2.8502
63736SOL    HW2 1139   9.142   0.017  12.207  0.8221 -1.2939 -0.4020
63737SOL     OW 1140   6.931   9.061   1.326 -0.7936 -0.3133 -0.0501
63737SOL    HW1 1141   6.991   9.006   1.377  0.5682  1.6440  0.5787
63737SOL    HW2 1142   6.846   9.052   1.370  0.0530  0.2899  1.8174
63738SOL     OW 1143   8.135  13.014   2.206  0.2103 -0.1280  0.0967
63738SOL    HW1 1144   8.129  13.078   2.278  2.0450  0.1839  0.0276
63738SOL    HW2 1145   8.064  13.038   2.147  0.3038  1.3062  0.5163
63739SOL     OW 1146  11.647   4.361   7.699 -0.2981  0.2755 -0.2591
63739SOL    HW1 1147  11.687   4.350   7.785  0.7821  1.2140 -0.6174
63739SOL    HW2 1148  11.716   4.400   7.645 -2.2391  3.9669 -0.3572
63740SOL     OW 1149   5.103   3.848   5.146 -0.2220  0.0540  0.2013
63740SOL    HW1 1150   5.179   3.906   5.151 -0.8595  1.1418 -1.6151
63740SOL    HW2 1151   5.030   3.903   5.177 -0.6797 -0.1053 -0.5900
63741SOL     OW 1152   1.855   6.324  12.674  0.6946  0.3904 -0.1411
63741SOL    HW1 1153   1.814   6.328  12.587  2.5840 -1.0075 -1.1750
63741SOL    HW2 1154   1.816   6.247  12.715  1.1381 -0.0495 -0.5238
63742SOL     OW 1155   5.090   1.336   8.062 -0.2024 -0.0506 -0.6064
63742SOL    HW1 1156   5.177   1.299   8.074 -0.3186 -0.1935 -0.1863
63742SOL    HW2 1157   5.106   1.422   8.021  0.3243  1.0656  1.7558
63743SOL     OW 1158  10.799   8.042   3.115 -0.5366  0.0147 -0.0293
63743SOL    HW1 1159  10.815   8.052   3.021 -0.3969 -0.3992 -0.0519
63743SOL    HW2 1160  10.886   8.045   3.155 -0.3866 -1.8840 -0.1167
63744SOL     OW 1161   1.589   6.151  11.130 -0.3195  0.0715 -0.4513
63744SOL    HW1 1162   1.627   6.129  11.215 -0.7241 -1.4665 -0.6332
63744SOL    HW2 1163   1.610   6.076  11.074 -2.0578 -0.0358 -1.0366
63745SOL     OW 1164   6.767   3.971   5.160  0.3433  0.0018  0.5998
63745SOL    HW1 1165   6.731   3.884   5.141  1.6101  0.0523 -2.6942
63745SOL    HW2 1166   6.703   4.032   5.122  1.2550  0.2956 -0.5248
63746SOL     OW 1167   7.278  10.242  12.582  0.5353 -0.4089  0.3642
63746SOL    HW1 1168   7.292  10.288  12.664 -0.3153  1.8143 -0.6732
63746SOL    HW2 1169   7.183  10.243  12.570  0.7296  0.8099 -1.4222
63747SOL     OW 1170   9.844   6.930  10.662 -0.2049 -0.3258  0.2068
63747SOL    HW1 1171   9.872   6.882  10.740 -0.6127  1.5782  1.6005
63747SOL    HW2 1172   9.798   6.865  10.609  0.1087 -1.6809  1.5184
63748SOL     OW 1173   2.951   7.174   9.625  0.0323  0.0507  0.1327
63748SOL    HW1 1174   2.999   7.185   9.707  1.2256 -0.6768 -0.4268
63748SOL    HW2 1175   2.990   7.239   9.566  0.0066 -0.2313 -0.1967
63749SOL     OW 1176   0.318  12.597   7.395  0.4383 -0.5317 -0.0794
63749SOL    HW1 1177   0.226  12.611   7.416  0.2718 -2.5697  0.7825
63749SOL    HW2 1178   0.319  12.584   7.300 -0.0324  0.2534 -0.2007
63750SOL     OW 1179   6.457   9.600   3.635 -0.0328 -0.4552  0.0860
63750SOL    HW1 1180   6.495   9.648   3.709 -0.7560 -2.6969  2.0637
63750SOL    HW2 1181   6.442   9.666   3.568 -1.5902  2.2231  2.8265
63751SOL     OW 1182   1.530   8.663   3.722  0.8305 -0.2082  0.0324
63751SOL    HW1 1183   1.569   8.612   3.652 -0.5408 -0.0866 -0.8604
63751SOL    HW2 1184   1.435   8.653   3.709  0.5458 -0.2006  1.8873
63752SOL     OW 1185  11.941  10.676   6.610 -0.0868 -0.5950 -0.4369
63752SOL    HW1 1186  11.922  10.618   6.535 -0.6648 -1.5579  0.4242
63752SOL    HW2 1187  11.976  10.756   6.570 -1.4754 -0.6249 -1.8253
63753SOL     OW 1188   5.420  10.537   3.982 -0.2220 -0.4159 -0.4388
63753SOL    HW1 1189   5.420  10.630   3.959 -0.6189 -0.2917  0.0406
63753SOL    HW2 1190   5.331  10.508   3.962 -0.2538 -0.5648 -0.0725
63754SOL     OW 1191   9.123   3.971   1.987  0.3979 -0.1545 -0.1046
63754SOL    HW1 1192   9.082   4.053   1.961  1.4275  0.6362  0.6748
63754SOL    HW2 1193   9.093   3.908   1.921 -0.5786  0.7838 -0.5975
63755SOL     OW 1194   9.148   6.304   5.182  0.0196  0.5775 -0.2083
63755SOL    HW1 1195   9.165   6.319   5.275  1.5300  0.3241 -0.4137
63755SOL    HW2 1196   9.147   6.392   5.144 -0.9590  0.7049  0.0896
63756SOL     OW 1197   5.602   3.736  10.503  0.4359  0.3141  0.0625
63756SOL    HW1 1198   5.664   3.720  10.574 -0.1228  0.6814  0.6427
63756SOL    HW2 1199   5.601   3.831  10.492  1.7321  0.1698 -1.5555
63757SOL     OW 1200   1.451   4.863   3.766 -0.2065 -0.0621  0.0711
63757SOL    HW1 1201   1.488   4.890   3.850 -1.8002  3.3353 -0.1458
63757SOL    HW2 1202   1.527   4.851   3.709  0.8274  2.8288  0.6579
63758SOL     OW 1203   5.219   7.363   5.506  0.0738  0.7762  0.3446
63758SOL    HW1 1204   5.165   7.406   5.573 -0.5318 -0.9899  1.0643
63758SOL    HW2 1205   5.292   7.326   5.554 -0.9353 -1.4585  0.2780
63759SOL     OW 1206  11.720   5.731   5.998  0.3455  0.3220  0.0822
63759SOL    HW1 1207  11.640   5.680   5.985  0.1442  0.8312 -0.7926
63759SOL    HW2 1208  11.737   5.726   6.092 -1.0696  0.7322  0.3781
63760SOL     OW 1209   9.001   9.166  11.725 -0.3609  0.8897 -0.0172
63760SOL    HW1 1210   9.060   9.211  11.786 -0.7585  2.1530 -0.5548
63760SOL    HW2 1211   9.056   9.099  11.685  0.2168  0.8250  0.8527
63761SOL     OW 1212   1.098   0.953   9.672  0.5165 -0.3965  0.1069
63761SOL    HW1 1213   1.156   1.004   9.729 -0.3199 -0.3030  0.9018
63761SOL    HW2 1214   1.014   0.998   9.678  0.6021  0.0926 -1.8812
63762SOL     OW 1215   3.339   2.097   1.279 -1.1856 -0.2823 -0.4279
63762SOL    HW1 1216   3.362   2.166   1.342 -0.2264 -0.3836 -0.6489
63762SOL    HW2 1217   3.303   2.145   1.204 -0.9617 -0.0489 -0.3905
63763SOL     OW 1218   4.172   9.835  13.268  0.7869  0.5141 -0.1101
63763SOL    HW1 1219   4.123   9.891  13.206 -0.0999  0.4424  0.5012
63763SOL    HW2 1220   4.228   9.781  13.212 -1.2815 -0.8148 -1.0260
63764SOL     OW 1221   3.421   4.780   5.690  0.0240  0.1765  0.1918
63764SOL    HW1 1222   3.471   4.824   5.621 -1.1185  0.8815 -0.2138
63764SOL    HW2 1223   3.434   4.686   5.672 -0.5015  0.3429 -1.1827
63765SOL     OW 1224   3.311   8.591  11.266 -0.3058 -0.1819  0.6476
63765SOL    HW1 1225   3.246   8.537  11.311 -0.1348 -1.2937 -0.3957
63765SOL    HW2 1226   3.337   8.540  11.190 -2.9512  2.8520 -2.6452
63766SOL     OW 1227   4.441   6.281   6.616  0.4174  0.2666  0.0617
63766SOL    HW1 1228   4.490   6.254   6.693 -0.2656 -0.2639  0.3186
63766SOL    HW2 1229   4.350   6.263   6.637  0.1557  0.6890 -0.6349
63767SOL     OW 1230  11.123   4.639  10.221  0.0647 -0.0126  0.1232
63767SOL    HW1 1231  11.034   4.621  10.252  0.6302 -2.4844  0.5015
63767SOL    HW2 1232  11.139   4.572  10.154  1.6748  0.3620  0.0884
63768SOL     OW 1233  12.746   9.579   8.106  0.4783 -0.0700  0.5931
63768SOL    HW1 1234  12.705   9.625   8.033  1.6986 -1.7423 -1.2759
63768SOL    HW2 1235  12.831   9.621   8.116 -0.1095  0.8841  1.8679
63769SOL     OW 1236  12.626   5.267   7.072 -0.3740 -0.0163 -0.6510
63769SOL    HW1 1237  12.714   5.233   7.057 -0.6691 -0.3102 -1.8242
63769SOL    HW2 1238  12.572   5.189   7.090 -0.5652  0.0793 -0.8058
63770SOL     OW 1239   2.815   5.809   4.200  0.5881  0.4111  0.4065
63770SOL    HW1 1240   2.889   5.819   4.260  0.6185  0.6679  0.3287
63770SOL    HW2 1241   2.823   5.883   4.140  1.3676 -0.6195 -0.8144
63771SOL     OW 1242   1.005   0.477   6.265 -0.3425 -0.4056 -0.3487
63771SOL    HW1 1243   1.027   0.418   6.193 -2.5627 -1.3242 -0.3817
63771SOL    HW2 1244   0.998   0.419   6.342  2.0792  0.5695  0.6923
63772SOL     OW 1245  10.964  13.032   7.838 -0.4937 -0.1855  0.3854
63772SOL    HW1 1246  11.022  13.041   7.913  0.0717 -0.5424 -0.0034
63772SOL    HW2 1247  11.019  12.995   7.769 -0.8643  0.6142 -0.3679
63773SOL     OW 1248   4.627  10.278   5.914 -0.2697  0.0005  0.5010
63773SOL    HW1 1249   4.658  10.233   5.836  1.1533 -0.5703  1.3447
63773SOL    HW2 1250   4.550  10.328   5.885 -0.1496 -0.6844 -1.0949
63774SOL     OW 1251   9.528  12.823  12.620 -0.0964 -0.6770  0.0662
63774SOL    HW1 1252   9.607  12.814  12.673  0.3388 -0.2408 -0.4903
63774SOL    HW2 1253   9.533  12.913  12.586 -0.1434 -1.0846 -1.0373
63775SOL     OW 1254   6.283   9.134   0.081  0.3181 -0.1768  0.5590
63775SOL    HW1 1255   6.226   9.057   0.087 -0.8800  0.6819  0.5590
63775SOL    HW2 1256   6.241   9.191   0.017  2.4258 -0.4954 -1.2203
63776SOL     OW 1257   2.566  10.727   8.838 -0.0688 -0.3790 -0.2389
63776SOL    HW1 1258   2.497  10.667   8.812 -0.3790  0.4076 -1.3019
63776SOL    HW2 1259   2.637  10.671   8.869 -0.5871 -1.2610 -0.6350
63777SOL     OW 1260   0.297   9.585   5.937 -0.6147  0.0707  0.0853
63777SOL    HW1 1261   0.230   9.526   5.970  0.3242 -0.8786  0.3459
63777SOL    HW2 1262   0.345   9.534   5.872 -0.6669  1.0111 -0.7118
63778SOL     OW 1263   8.317   3.659   4.146  0.0620  0.1482  0.2121
63778SOL    HW1 1264   8.411   3.645   4.158 -0.1287 -2.3613 -0.6752
63778SOL    HW2 1265   8.310   3.714   4.068  0.7782  0.8471  0.6250
63779SOL     OW 1266   6.732  10.431  12.531  0.4663  0.0857  0.0507
63779SOL    HW1 1267   6.809  10.461  12.580  0.4556 -0.5904  0.4917
63779SOL    HW2 1268   6.659  10.446  12.591  0.5320 -1.3888  0.5535
63780SOL     OW 1269  10.638   2.353  11.929 -0.0519  0.0636 -0.2799
63780SOL    HW1 1270  10.598   2.269  11.907  0.8956 -0.0816 -1.5656
63780SOL    HW2 1271  10.637   2.402  11.847 -1.3541  1.6635  0.6252
63781SOL     OW 1272   0.517  11.604   3.273  0.0258  0.4318 -0.3256
63781SOL    HW1 1273   0.582  11.544   3.308  1.2201  1.5604 -0.5263
63781SOL    HW2 1274   0.470  11.553   3.207 -0.2746 -0.8174  0.8038
63782SOL     OW 1275   8.211  11.776   9.391 -0.0482 -0.5372 -0.1096
63782SOL    HW1 1276   8.139  11.794   9.330  0.7280  2.0362 -0.3959
63782SOL    HW2 1277   8.288  11.769   9.336  0.1590 -1.9713  0.3161
63783SOL     OW 1278   3.740  11.285   7.949  0.5329  0.5889  0.0136
63783SOL    HW1 1279   3.741  11.354   8.015  0.2100 -0.0316  0.6890
63783SOL    HW2 1280   3.825  11.241   7.960 -0.8479 -1.7972  2.5617
63784SOL     OW 1281   5.865   9.784   4.009 -0.5251  0.2947  0.1947
63784SOL    HW1 1282   5.783   9.803   3.963 -1.0787  0.9683  1.4231
63784SOL    HW2 1283   5.928   9.769   3.939 -1.4784  0.7034 -0.7849
63785SOL     OW 1284  11.010   8.052  12.127 -0.1010 -0.4014  0.5178
63785SOL    HW1 1285  11.007   7.992  12.052  1.1651 -0.7809  0.7492
63785SOL    HW2 1286  11.092   8.100  12.117 -0.8718  0.9645  0.6088
63786SOL     OW 1287   2.290   4.122   3.906  0.2675 -0.5244  0.1698
63786SOL    HW1 1288   2.210   4.123   3.854  1.1978 -1.7611 -1.3713
63786SOL    HW2 1289   2.284   4.200   3.962 -2.2740 -0.9122  0.5562
63787SOL     OW 1290  12.919  12.518   6.243 -0.5313 -0.3301 -0.0472
63787SOL    HW1 1291  12.982  12.506   6.314  0.1408 -0.3249 -0.6295
63787SOL    HW2 1292  12.868  12.437   6.242 -0.6574 -0.2612  0.5428
63788SOL     OW 1293  10.345   5.603  12.817 -0.2400 -0.1523  0.1819
63788SOL    HW1 1294  10.267   5.646  12.853 -0.5955  0.5150 -1.3315
63788SOL    HW2 1295  10.337   5.512  12.845 -0.3081  0.3930  2.0788
63789SOL     OW 1296   9.578   5.415   8.188  0.3027  0.4738  0.2871
63789SOL    HW1 1297   9.640   5.342   8.190 -0.5496 -0.2819  0.1137
63789SOL    HW2 1298   9.573   5.445   8.279  0.1701 -0.1184  0.4773
63790SOL     OW 1299   1.000  11.079   9.395 -0.1295  0.7526 -0.2922
63790SOL    HW1 1300   1.003  11.029   9.476 -0.0343  0.9858 -0.1492
63790SOL    HW2 1301   1.068  11.146   9.406  0.4160  0.2983 -0.8923
63791SOL     OW 1302   2.721   5.603   2.262 -0.3200  0.9304  0.8299
63791SOL    HW1 1303   2.806   5.561   2.256 -0.2004  0.9566  2.1628
63791SOL    HW2 1304   2.710   5.648   2.178 -0.3105 -1.4444 -0.5068
63792SOL     OW 1305  11.909   7.689   0.247  0.3212 -0.4640 -0.0744
63792SOL    HW1 1306  11.837   7.626   0.238 -0.3441 -0.0334  1.7025
63792SOL    HW2 1307  11.985   7.634   0.266  0.5714 -0.9426 -2.2319
63793SOL     OW 1308   9.568  12.884   7.262  0.5261 -0.1801  0.6409
63793SOL    HW1 1309   9.603  12.861   7.175 -0.9498  0.1804 -0.0712
63793SOL    HW2 1310   9.589  12.976   7.273  0.2706 -0.0984  0.4453
63794SOL     OW 1311  11.864   2.027  10.093 -0.0957 -1.0902  0.0788
63794SOL    HW1 1312  11.899   2.114  10.108 -2.9601  0.2701 -0.4811
63794SOL    HW2 1313  11.927   1.968  10.134  2.1847  1.1778  0.0274
63795SOL     OW 1314   8.618   5.123   9.822 -0.7019  0.4574 -0.5691
63795SOL    HW1 1315   8.691   5.182   9.802  1.2135 -1.7320 -0.3793
63795SOL    HW2 1316   8.579   5.159   9.902  0.8037  1.1367 -0.1082
63796SOL     OW 1317   3.107  10.580  12.310 -0.4132  0.1490 -0.3063
63796SOL    HW1 1318   3.100  10.523  12.233 -1.8460 -1.0280  0.6262
63796SOL    HW2 1319   3.154  10.527  12.375 -2.4225 -0.3567  0.8271
63797SOL     OW 1320   3.703   5.450  12.498  0.2528 -0.0107 -0.2055
63797SOL    HW1 1321   3.736   5.488  12.417 -0.0686 -0.5677 -0.6096
63797SOL    HW2 1322   3.612   5.428  12.479 -0.1843  0.9672  0.7066
63798SOL     OW 1323   9.569   9.907   8.400  0.0927  0.2073 -0.8077
63798SOL    HW1 1324   9.651   9.933   8.441 -0.1275  0.9662 -0.8476
63798SOL    HW2 1325   9.596   9.865   8.318  0.3786  2.7434 -2.0935
63799SOL     OW 1326   9.372  11.445   2.450  0.2412  0.4014 -0.0018
63799SOL    HW1 1327   9.374  11.534   2.486  1.1505  1.3852 -2.2698
63799SOL    HW2 1328   9.285  11.438   2.410  0.4998  0.6704 -0.6398
63800SOL     OW 1329  10.861   5.370   1.702  0.3667 -0.2903  0.0427
63800SOL    HW1 1330  10.928   5.341   1.764  0.1170 -0.4438  0.2475
63800SOL    HW2 1331  10.843   5.293   1.648  2.3408  0.5097 -1.8707
63801SOL     OW 1332  10.811   7.177   9.337  0.5950 -0.4032  0.0522
63801SOL    HW1 1333  10.876   7.177   9.266  0.7241  0.0184  0.1688
63801SOL    HW2 1334  10.861   7.149   9.414  0.9703  1.2492  0.4339
63802SOL     OW 1335   9.049  10.136   5.735  0.1719 -0.1365  0.4671
63802SOL    HW1 1336   9.142  10.114   5.745  0.2853  0.7940  1.7993
63802SOL    HW2 1337   9.003  10.052   5.745  0.8710 -0.6489 -0.5058
63803SOL     OW 1338   3.769   1.720   0.269 -0.4747 -0.2249 -0.5337
63803SOL    HW1 1339   3.781   1.760   0.183  1.3040 -0.4874 -0.4477
63803SOL    HW2 1340   3.844   1.750   0.320 -1.2575 -0.4389  0.7999
63804SOL     OW 1341   6.470   7.296  10.968  0.7543  0.2434  0.0333
63804SOL    HW1 1342   6.470   7.308  11.063 -0.8539  0.4216  0.0497
63804SOL    HW2 1343   6.400   7.354  10.937  1.8760  0.8979 -1.3664
63805SOL     OW 1344   3.855   3.034   2.020  0.3730 -0.1319 -0.2110
63805SOL    HW1 1345   3.849   3.062   1.928 -1.3170  0.3800  0.0159
63805SOL    HW2 1346   3.903   2.951   2.017 -0.8262 -0.8158 -1.7231
63806SOL     OW 1347   5.985   7.911   7.744 -0.0910  0.2105  0.7423
63806SOL    HW1 1348   5.907   7.966   7.737 -2.5348 -2.9668  0.7997
63806SOL    HW2 1349   5.968   7.854   7.819  1.1478 -2.1860 -0.6740
63807SOL     OW 1350  13.079   0.822   5.078  0.3247 -0.3518 -0.2000
63807SOL    HW1 1351  13.113   0.782   4.998 -0.3067  0.0156 -0.6620
63807SOL    HW2 1352  12.984   0.812   5.071  0.1109  1.6363 -0.5577
63808SOL     OW 1353   8.912  13.237   0.519  0.4399  0.6352 -0.2726
63808SOL    HW1 1354   8.844  13.242   0.452  0.5670 -1.7376 -0.6764
63808SOL    HW2 1355   8.989  13.204   0.473  0.7322 -0.3755  0.8758
63809SOL     OW 1356   5.081   0.402   6.153 -0.3825  0.0938  0.3217
63809SOL    HW1 1357   5.079   0.458   6.231 -0.0268 -0.0956  0.4692
63809SOL    HW2 1358   5.148   0.337   6.172  1.1485  1.2282 -0.9457
63810SOL     OW 1359   8.813   4.001   2.589 -0.0638 -0.4170  0.3777
63810SOL    HW1 1360   8.835   3.990   2.681  2.2993  0.7625  0.0357
63810SOL    HW2 1361   8.745   4.067   2.587 -0.3376 -0.6684  1.2768
63811SOL     OW 1362   4.030  12.600   4.164 -0.1494  0.7369 -0.4337
63811SOL    HW1 1363   4.010  12.599   4.258  0.1763  1.6102 -0.3499
63811SOL    HW2 1364   4.107  12.544   4.156 -0.3235  0.4608 -0.2163
63812SOL     OW 1365   9.352   1.514  11.018 -0.2913 -0.2552  0.6864
63812SOL    HW1 1366   9.381   1.439  10.966  2.2620  0.5865  0.7362
63812SOL    HW2 1367   9.382   1.495  11.107 -2.8318 -0.7485  1.5278
63813SOL     OW 1368   6.631   2.421   5.758  0.2915  0.5347  0.2843
63813SOL    HW1 1369   6.720   2.455   5.773  0.4466 -0.2190  1.1460
63813SOL    HW2 1370   6.617   2.359   5.830 -1.4812  1.6850  0.9779
63814SOL     OW 1371   7.286  10.363   6.497  0.7960 -0.3426  0.0285
63814SOL    HW1 1372   7.321  10.390   6.412 -2.0075  0.2997 -1.0175
63814SOL    HW2 1373   7.258  10.445   6.539 -1.9026 -0.9703 -0.4019
63815SOL     OW 1374  10.514   7.426  12.248  0.1321  0.1455  0.0189
63815SOL    HW1 1375  10.505   7.466  12.161  0.8277 -0.6508 -0.4347
63815SOL    HW2 1376  10.606   7.441  12.271  0.6884 -1.9795 -0.5923
63816SOL     OW 1377   8.566   0.581   5.222 -0.4291  0.0579  1.0883
63816SOL    HW1 1378   8.644   0.527   5.215  0.0578  0.6617  1.7270
63816SOL    HW2 1379   8.531   0.585   5.133  0.6811  0.3923  0.6572
63817SOL     OW 1380   4.687   3.089   3.107  0.0829  0.2107 -0.7738
63817SOL    HW1 1381   4.752   3.154   3.134 -1.5486  1.6541 -0.1525
63817SOL    HW2 1382   4.677   3.102   3.013 -0.1628  0.8093 -0.6697
63818SOL     OW 1383   0.882  12.892  11.371  0.1967  0.3368  0.3967
63818SOL    HW1 1384   0.808  12.844  11.332  0.4581  0.8464 -0.7517
63818SOL    HW2 1385   0.867  12.885  11.465 -0.5126 -0.8318  0.2216
63819SOL     OW 1386   6.408  10.220   1.559  0.0148  0.0049 -0.0062
63819SOL    HW1 1387   6.463  10.158   1.607  0.4569  1.4002  1.3685
63819SOL    HW2 1388   6.318  10.190   1.576  0.2453 -1.8516 -1.6666
63820SOL     OW 1389  11.950   9.517   6.362  1.0461 -0.1814  0.5492
63820SOL    HW1 1390  11.970   9.495   6.453  1.9399  1.0866  0.6898
63820SOL    HW2 1391  11.989   9.447   6.310 -0.3194 -1.4458  1.1572
63821SOL     OW 1392   8.321   5.978   7.321  0.4809 -0.1127  0.0763
63821SOL    HW1 1393   8.276   5.911   7.373  1.7241 -0.2588  1.0095
63821SOL    HW2 1394   8.278   5.974   7.235  0.1058 -1.6681  0.3018
63822SOL     OW 1395  10.079   2.527  11.416  0.2387 -0.3659 -0.4477
63822SOL    HW1 1396  10.035   2.448  11.384  0.0204 -0.1586 -0.6628
63822SOL    HW2 1397  10.113   2.502  11.502 -1.5457 -0.1107  0.3920
63823SOL     OW 1398  12.042   8.190   4.525 -0.5172 -0.3067 -0.1690
63823SOL    HW1 1399  12.091   8.263   4.562 -1.1436 -0.2115  0.4866
63823SOL    HW2 1400  12.002   8.225   4.446 -2.3926  0.6413  1.1498
63824SOL     OW 1401   2.669  12.500   5.241  0.0135 -0.1248 -0.0339
63824SOL    HW1 1402   2.664  12.595   5.230 -0.8844  0.0875  1.8216
63824SOL    HW2 1403   2.762  12.483   5.260  0.0889  0.4482  0.1333
63825SOL     OW 1404  10.852   0.778  10.368 -0.1512  0.2741 -0.1380
63825SOL    HW1 1405  10.792   0.852  10.364 -0.5340 -0.0060  0.2454
63825SOL    HW2 1406  10.926   0.809  10.420  0.3794  0.8491 -1.2021
63826SOL     OW 1407   4.590   2.223   8.867 -0.2836  0.1959 -0.4045
63826SOL    HW1 1408   4.546   2.277   8.933  0.0668 -0.3223  0.2677
63826SOL    HW2 1409   4.678   2.260   8.862 -0.2715  0.1558 -0.4832
63827SOL     OW 1410   5.576   9.674   9.324  0.1699  0.6295 -0.3308
63827SOL    HW1 1411   5.617   9.596   9.286  0.1893  1.1825 -1.4968
63827SOL    HW2 1412   5.493   9.682   9.277  0.1152  1.2421 -0.1372
63828SOL     OW 1413   5.886  11.425  10.202  0.7089 -0.4831 -0.3152
63828SOL    HW1 1414   5.893  11.434  10.297 -1.3181 -0.5879 -0.1070
63828SOL    HW2 1415   5.871  11.331  10.189  1.1322 -0.4902 -0.7589
63829SOL     OW 1416   3.737   1.523  10.485 -0.4344 -0.7706  0.2947
63829SOL    HW1 1417   3.721   1.438  10.525 -1.0382 -0.6506  0.3114
63829SOL    HW2 1418   3.816   1.510  10.432 -1.3696 -1.7501 -0.9076
63830SOL     OW 1419   5.250   1.850   0.560 -0.3289 -0.3489  0.2811
63830SOL    HW1 1420   5.204   1.903   0.625 -0.6926  0.6538 -0.7834
63830SOL    HW2 1421   5.180   1.818   0.502  0.1849  0.3334 -0.7322
63831SOL     OW 1422   6.526   6.136   3.587  0.0943 -0.0819  0.3694
63831SOL    HW1 1423   6.581   6.148   3.509 -0.2650  0.3521  0.1731
63831SOL    HW2 1424   6.502   6.225   3.613 -1.4859 -0.2915 -0.2588
63832SOL     OW 1425  10.826   3.637  12.965  0.2180  0.6184 -0.2301
63832SOL    HW1 1426  10.872   3.553  12.960 -0.0364  0.4544  0.1300
63832SOL    HW2 1427  10.767   3.627  13.039  0.5969  1.3213  0.1741
63833SOL     OW 1428   4.698   3.305   1.887  0.3469  0.3753 -0.3904
63833SOL    HW1 1429   4.771   3.297   1.948 -0.2964 -2.3582  0.1756
63833SOL    HW2 1430   4.709   3.229   1.828 -1.6982  0.2245 -0.6281
63834SOL     OW 1431   9.256   7.538   8.670  0.5661 -0.2887 -0.2200
63834SOL    HW1 1432   9.191   7.532   8.600  1.8333 -0.1490 -1.4632
63834SOL    HW2 1433   9.228   7.473   8.735 -0.0772 -1.1948 -1.3643
63835SOL     OW 1434  11.672  13.026   0.978 -0.6070 -0.1370 -0.2765
63835SOL    HW1 1435  11.688  13.045   1.070  0.6547 -0.8806 -0.3135
63835SOL    HW2 1436  11.758  13.001   0.944 -0.8310  1.1633 -1.9262
63836SOL     OW 1437  12.777   8.253   7.610  0.1817  0.0490  0.5125
63836SOL    HW1 1438  12.711   8.185   7.624 -1.1052  1.3184  0.8646
63836SOL    HW2 1439  12.802   8.279   7.699  1.8278 -0.9825  0.4040
63837SOL     OW 1440   3.945  11.784  12.996  0.2751 -0.4547  0.5186
63837SOL    HW1 1441   3.953  11.784  12.900  0.4460 -4.0016  0.3879
63837SOL    HW2 1442   3.851  11.776  13.012  0.2744 -0.1951  0.6454
63838SOL     OW 1443   0.992   3.367   0.505  0.6360  0.3113 -0.1333
63838SOL    HW1 1444   1.047   3.367   0.584  0.9910  0.7242 -0.3793
63838SOL    HW2 1445   0.945   3.451   0.508  1.7321  0.9883 -1.1010
63839SOL     OW 1446   2.199   0.993   1.218 -0.2165 -0.0576  0.0533
63839SOL    HW1 1447   2.126   0.939   1.248 -0.5371  0.6600  0.5956
63839SOL    HW2 1448   2.217   1.052   1.291  0.2646  0.4260 -0.4444
63840SOL     OW 1449  13.271   4.665   3.299  0.3362 -0.1624  0.3403
63840SOL    HW1 1450  13.297   4.752   3.329  1.2766  0.0418 -0.9338
63840SOL    HW2 1451  13.184   4.677   3.261  1.1063  0.6212 -1.2990
63841SOL     OW 1452  11.396   8.272  10.524 -0.2849  0.4345  0.1425
63841SOL    HW1 1453  11.441   8.330  10.586  1.0902  1.1961 -1.4701
63841SOL    HW2 1454  11.403   8.318  10.440 -0.0145 -1.6160 -1.0168
63842SOL     OW 1455   1.446   5.963  13.006 -0.0412  0.3799 -0.1612
63842SOL    HW1 1456   1.479   5.874  13.008  0.7311  0.6121 -1.6856
63842SOL    HW2 1457   1.358   5.957  13.043 -0.5188 -1.2442 -1.4614
63843SOL     OW 1458   4.244   9.172   6.959  0.3666  0.2167  0.1659
63843SOL    HW1 1459   4.198   9.241   6.911 -1.0773 -0.6714  0.2204
63843SOL    HW2 1460   4.329   9.165   6.915 -0.2611  0.6166 -1.1557
63844SOL     OW 1461   2.783  12.464  12.482 -0.4244 -0.0124  0.1531
63844SOL    HW1 1462   2.756  12.539  12.535  1.2052  0.4429  0.3973
63844SOL    HW2 1463   2.832  12.408  12.543  0.1745 -0.2253 -0.5139
63845SOL     OW 1464   6.822   0.106   9.492  0.4394 -0.5067  0.4360
63845SOL    HW1 1465   6.728   0.110   9.470  0.8444 -0.1685 -1.4230
63845SOL    HW2 1466   6.866   0.119   9.408  2.1651 -0.8442  1.2585
63846SOL     OW 1467   3.067   4.922   5.257 -0.3879  0.2508 -0.1560
63846SOL    HW1 1468   3.026   4.925   5.344  1.4693 -1.2557  0.8416
63846SOL    HW2 1469   3.117   5.003   5.253 -1.3094  0.8335 -0.2896
63847SOL     OW 1470   9.109   7.885   0.538  0.6292  0.0943 -0.0254
63847SOL    HW1 1471   9.133   7.796   0.563  0.5757 -0.2558 -1.1656
63847SOL    HW2 1472   9.124   7.888   0.443 -1.5225  0.5779 -0.4106
63848SOL     OW 1473   4.083   1.099  12.168 -0.6646  0.3841 -0.1341
63848SOL    HW1 1474   4.145   1.069  12.101 -0.1627 -0.2081  0.5735
63848SOL    HW2 1475   4.000   1.111  12.121 -0.6382 -1.1981 -0.6455
63849SOL     OW 1476  11.528   6.417  10.218  0.2398 -0.4093  0.4361
63849SOL    HW1 1477  11.590   6.430  10.146 -0.5307 -0.2013 -0.1992
63849SOL    HW2 1478  11.500   6.505  10.242 -0.0583 -0.5202  0.4990
63850SOL     OW 1479   7.497   5.984  12.399 -0.3091  0.1379 -0.3521
63850SOL    HW1 1480   7.545   5.956  12.321 -2.1160 -3.2534 -0.4438
63850SOL    HW2 1481   7.431   6.045  12.367  0.5276  0.7243 -1.0125
63851SOL     OW 1482  13.214   5.151   5.003  0.1319  0.6878  0.2235
63851SOL    HW1 1483  13.175   5.086   4.944  2.8815 -1.2257  0.3106
63851SOL    HW2 1484  13.286   5.190   4.953  0.9436  0.8372  1.4550
63852SOL     OW 1485   0.833  11.607   5.200 -0.6388  0.4228  0.2038
63852SOL    HW1 1486   0.755  11.643   5.156 -0.6850  1.9082  1.4177
63852SOL    HW2 1487   0.800  11.531   5.247 -1.2101  0.5870  0.0877
63853SOL     OW 1488   8.498  11.575  10.617  0.4277  0.1659  0.2046
63853SOL    HW1 1489   8.513  11.665  10.646 -0.5814  0.1911  0.6808
63853SOL    HW2 1490   8.538  11.520  10.684 -1.9383  0.2228  1.7568
63854SOL     OW 1491   4.651   0.008   4.674 -0.3799 -0.1961 -0.2957
63854SOL    HW1 1492   4.726  -0.027   4.721  0.1414  0.0168 -0.9474
63854SOL    HW2 1493   4.689   0.067   4.608 -0.9992 -1.2147 -1.6176
63855SOL     OW 1494   5.677   0.379   3.997 -0.0635 -0.5493  0.0528
63855SOL    HW1 1495   5.647   0.438   4.065  1.3708  0.8471 -0.4570
63855SOL    HW2 1496   5.600   0.326   3.975 -1.4024  1.1096  0.5421
63856SOL     OW 1497  11.344   5.100  12.073 -0.5295  0.2871 -0.0508
63856SOL    HW1 1498  11.341   5.052  11.990  0.2785 -0.2229  0.2052
63856SOL    HW2 1499  11.418   5.161  12.063  1.5806 -1.8454  1.3462
63857SOL     OW 1500   8.910   7.112   8.122  0.0109 -0.2729 -0.1196
63857SOL    HW1 1501   8.937   7.047   8.058  2.1604 -0.2381  0.6727
63857SOL    HW2 1502   8.915   7.067   8.206  0.1590  0.5176  0.3061
63858SOL     OW 1503   8.379   3.287   3.750  0.2282  0.1007  0.0017
63858SOL    HW1 1504   8.307   3.298   3.812 -0.5437 -4.0049  0.1771
63858SOL    HW2 1505   8.452   3.256   3.803  0.7040 -0.0280 -0.7075
63859SOL     OW 1506  10.689   7.766   3.854 -0.2837  0.3972 -0.2004
63859SOL    HW1 1507  10.711   7.849   3.895 -0.4529 -0.3651  1.5082
63859SOL    HW2 1508  10.593   7.764   3.854 -0.3501 -0.9976  2.4815
63860SOL     OW 1509   5.450   3.006   1.730  0.0154  0.0826  0.0614
63860SOL    HW1 1510   5.448   3.102   1.733 -2.5876  0.1052  0.1987
63860SOL    HW2 1511   5.362   2.980   1.759  0.4383 -2.3289 -0.6421
63861SOL     OW 1512  10.088   8.837   4.753 -0.0791  0.9473 -0.3092
63861SOL    HW1 1513  10.000   8.816   4.722 -0.3123  1.9215 -0.3575
63861SOL    HW2 1514  10.141   8.839   4.673  0.9542 -3.6191  0.0129
63862SOL     OW 1515   0.347  13.125   4.714 -0.2331  0.3302  0.6932
63862SOL    HW1 1516   0.277  13.130   4.649 -0.0926  0.0969  0.5222
63862SOL    HW2 1517   0.334  13.041   4.757 -1.1186  1.0574  1.8810
63863SOL     OW 1518   5.499   6.271   5.676  0.0266 -0.3589  0.2877
63863SOL    HW1 1519   5.507   6.305   5.765 -0.5455  0.2430  0.1216
63863SOL    HW2 1520   5.455   6.187   5.686 -0.8918  0.1265  0.5201
63864SOL     OW 1521   7.370   8.831   2.448 -0.1007 -0.3995  0.0994
63864SOL    HW1 1522   7.424   8.766   2.493  0.7326  0.2646  0.0763
63864SOL    HW2 1523   7.280   8.803   2.466  0.2368 -1.7566 -0.2136
63865SOL     OW 1524   8.284   3.437   7.774  0.2496 -0.4334  0.0881
63865SOL    HW1 1525   8.286   3.492   7.696 -0.2582 -0.9220 -0.2742
63865SOL    HW2 1526   8.321   3.354   7.745 -0.9098 -0.9594  0.0973
63866SOL     OW 1527   3.764   4.656   1.141 -0.3274  0.2513  0.7515
63866SOL    HW1 1528   3.700   4.727   1.139  0.3021  0.8307 -1.0786
63866SOL    HW2 1529   3.712   4.578   1.121 -0.7608  0.4158  1.1894
63867SOL     OW 1530   0.219   1.811   8.934 -0.4388  0.0189  0.0430
63867SOL    HW1 1531   0.288   1.817   8.999 -2.3824  0.3410  2.1963
63867SOL    HW2 1532   0.192   1.719   8.936  0.5575 -0.3532 -1.5671
63868SOL     OW 1533  11.095  11.268   1.970  0.6418 -0.3287 -0.1790
63868SOL    HW1 1534  11.109  11.359   1.944 -1.5075  0.3257  0.7036
63868SOL    HW2 1535  11.157  11.253   2.041  0.6975  0.5976 -0.0226
63869SOL     OW 1536   1.494   1.366  12.356  0.2915  0.1706  0.5301
63869SOL    HW1 1537   1.429   1.373  12.426  0.5898 -1.0666  0.9736
63869SOL    HW2 1538   1.558   1.434  12.375 -0.9779  1.5797 -0.0588
63870SOL     OW 1539   7.975   6.251   5.394  0.2528 -0.4390  0.3887
63870SOL    HW1 1540   7.884   6.263   5.422 -0.2303  1.0121 -1.6122
63870SOL    HW2 1541   7.969   6.231   5.300  2.0495  2.0756 -0.3449
63871SOL     OW 1542  11.123  10.960  12.503 -0.3826  0.2843  0.0066
63871SOL    HW1 1543  11.214  10.933  12.497 -0.8024 -1.2910  0.1999
63871SOL    HW2 1544  11.076  10.902  12.443 -1.4488 -0.0071  1.0694
63872SOL     OW 1545  10.781   7.784   9.085  0.5970  0.1202  0.8073
63872SOL    HW1 1546  10.765   7.711   9.145 -2.4577  0.6798  0.8392
63872SOL    HW2 1547  10.777   7.745   8.998  0.1432  0.0422  0.8589
63873SOL     OW 1548   9.611  11.469  10.645  0.2702 -0.2328  0.2635
63873SOL    HW1 1549   9.618  11.550  10.695  0.6125 -0.7113  1.0036
63873SOL    HW2 1550   9.546  11.417  10.692 -1.7616  0.5381 -1.5305
63874SOL     OW 1551   5.360   2.727   8.491  0.4012 -0.8572  0.0944
63874SOL    HW1 1552   5.442   2.719   8.442  0.4273  1.0592 -0.2784
63874SOL    HW2 1553   5.387   2.735   8.582  0.6126 -0.5730  0.0086
63875SOL     OW 1554   1.095   0.431   2.400  0.6523  0.2484  0.1919
63875SOL    HW1 1555   1.014   0.470   2.434  0.3267  0.3453 -0.6732
63875SOL    HW2 1556   1.072   0.403   2.311  1.2678 -0.6823  0.3130
63876SOL     OW 1557  12.948   3.783   7.775  0.0922 -0.5301  0.3328
63876SOL    HW1 1558  13.029   3.825   7.746  0.0320 -0.5498  0.1304
63876SOL    HW2 1559  12.975   3.724   7.845 -0.0652  1.1764  1.8849
63877SOL     OW 1560   5.487  13.278   3.257 -0.1583 -0.1691 -0.1874
63877SOL    HW1 1561   5.507  13.298   3.348 -0.8091 -1.4085  0.2584
63877SOL    HW2 1562   5.392  13.264   3.256 -0.2556  0.4725 -1.1904
63878SOL     OW 1563   7.404  12.978   5.952 -0.5593 -0.1428  0.4288
63878SOL    HW1 1564   7.451  12.896   5.968 -1.4292 -0.6982  0.1646
63878SOL    HW2 1565   7.339  12.982   6.022  0.5739  1.1816  1.4634
63879SOL     OW 1566   8.934  12.710   0.835 -0.0846 -0.2482  0.4840
63879SOL    HW1 1567   8.943  12.631   0.781  1.2525 -1.3556  2.2346
63879SOL    HW2 1568   8.948  12.680   0.925  0.6635  2.0081  1.1935
63880SOL     OW 1569   5.807   2.546   0.493 -0.2311 -0.0721  0.2221
63880SOL    HW1 1570   5.843   2.607   0.427  2.0288  0.0125  1.4050
63880SOL    HW2 1571   5.756   2.484   0.443  2.1577 -0.5744 -1.8172
63881SOL     OW 1572   2.206  12.055   4.217  0.7577 -0.3149  0.1280
63881SOL    HW1 1573   2.123  12.050   4.263  1.1020  2.0440  1.1692
63881SOL    HW2 1574   2.181  12.072   4.126  0.1131 -2.2946 -0.1082
63882SOL     OW 1575   6.633   6.848  11.148  0.1564 -0.5658 -0.9404
63882SOL    HW1 1576   6.615   6.928  11.099  0.7972 -0.7906 -1.5487
63882SOL    HW2 1577   6.547   6.821  11.180 -0.1862 -0.0924 -1.4318
63883SOL     OW 1578   4.934   4.015   5.604  0.0653  0.6978 -0.1705
63883SOL    HW1 1579   5.016   4.059   5.580  0.5046  0.7871  1.4296
63883SOL    HW2 1580   4.958   3.924   5.617 -0.5184  0.2824 -1.7368
63884SOL     OW 1581   4.475   6.541  11.324  0.0237  0.0826 -0.1217
63884SOL    HW1 1582   4.467   6.463  11.379 -0.9433  0.2752  0.0380
63884SOL    HW2 1583   4.394   6.590  11.340 -0.4571 -0.0233 -1.9692
63885SOL     OW 1584   5.027   8.609   0.117 -0.3351 -0.0802 -0.4498
63885SOL    HW1 1585   5.042   8.695   0.154 -0.1950 -0.2143 -0.1922
63885SOL    HW2 1586   4.995   8.556   0.190 -0.8874 -0.1208 -0.7146
63886SOL     OW 1587   4.380  10.877   4.943 -0.2255 -0.3334  0.3266
63886SOL    HW1 1588   4.413  10.914   5.026 -0.9726 -0.3918  0.6559
63886SOL    HW2 1589   4.285  10.889   4.948 -0.1614  1.1143 -1.2355
63887SOL     OW 1590   5.164   4.029   0.042 -0.0622  0.1719 -0.3838
63887SOL    HW1 1591   5.173   4.100  -0.021  2.3847 -0.5065 -0.8713
63887SOL    HW2 1592   5.176   4.071   0.127  1.9137  0.3268 -0.6955
63888SOL     OW 1593  13.312  11.639   2.140  0.3502  0.0544 -0.4175
63888SOL    HW1 1594  13.383  11.688   2.098  0.2246  0.5568 -0.0560
63888SOL    HW2 1595  13.341  11.547   2.136 -0.7349 -0.2890 -3.7837
63889SOL     OW 1596   8.320   7.244   1.722  0.5754  0.2797 -0.6094
63889SOL    HW1 1597   8.373   7.216   1.648 -0.6871  0.9518 -1.8080
63889SOL    HW2 1598   8.302   7.164   1.771  1.8784 -0.0932 -0.7088
63890SOL     OW 1599   4.906   7.290  11.708  0.1161  0.0787 -0.8235
63890SOL    HW1 1600   4.934   7.233  11.780 -2.2643 -0.9052 -0.5811
63890SOL    HW2 1601   4.891   7.375  11.749  1.4012  0.2741 -0.7224
63891SOL     OW 1602   2.301   1.034   2.933 -0.0743 -0.2459 -0.1318
63891SOL    HW1 1603   2.387   1.027   2.892 -0.2776  0.1312 -0.6443
63891SOL    HW2 1604   2.288   0.950   2.977  0.4020 -0.4429 -0.3580
63892SOL     OW 1605   3.567   8.046   9.421  0.0558 -0.1839 -0.4103
63892SOL    HW1 1606   3.657   8.014   9.425  0.3832  0.6561 -0.6530
63892SOL    HW2 1607   3.513   7.967   9.416  0.8756 -0.6921 -1.9425
63893SOL     OW 1608   2.835   4.898  10.122 -0.3996 -0.0987 -0.4507
63893SOL    HW1 1609   2.817   4.857  10.037  1.0628 -2.2328  0.1922
63893SOL    HW2 1610   2.792   4.840  10.186  2.7997 -1.5556  0.5873
63894SOL     OW 1611  10.904  10.314  11.110 -0.2230 -0.0026  0.5825
63894SOL    HW1 1612  10.913  10.318  11.015 -0.1872  1.7589  0.6257
63894SOL    HW2 1613  10.992  10.296  11.142 -0.2749 -0.8020  0.2773
63895SOL     OW 1614   0.382   3.989  12.928 -0.0899 -0.8968  0.3093
63895SOL    HW1 1615   0.427   3.949  13.002  0.9370 -0.9601 -0.3220
63895SOL    HW2 1616   0.289   3.970  12.942  0.1606 -1.4732  1.2240
63896SOL     OW 1617  13.162   4.476  12.624  0.0776  0.2983  0.2343
63896SOL    HW1 1618  13.106   4.516  12.558  0.2231  1.0800  0.5678
63896SOL    HW2 1619  13.116   4.396  12.650 -0.9862  1.0237  0.6423
63897SOL     OW 1620  11.951   2.135   4.891 -0.0480 -0.3560 -0.2674
63897SOL    HW1 1621  11.867   2.092   4.900  0.6459 -1.3801  1.9441
63897SOL    HW2 1622  11.977   2.157   4.980  2.1519 -0.3263 -0.8495
63898SOL     OW 1623   6.517   0.933  13.071 -0.1034  0.1732  0.0475
63898SOL    HW1 1624   6.562   0.902  12.992  1.7482 -0.4142  1.2465
63898SOL    HW2 1625   6.562   1.014  13.094  1.8162 -1.3654  2.3099
63899SOL     OW 1626   3.007  11.967   3.742  0.0752  0.3724 -0.3144
63899SOL    HW1 1627   3.078  11.967   3.806 -0.8722  0.8052  0.7675
63899SOL    HW2 1628   3.046  12.005   3.663  0.6561  2.0217  0.7275
63900SOL     OW 1629   0.607  13.180   0.904 -0.2460 -0.7739  0.3649
63900SOL    HW1 1630   0.659  13.260   0.909 -1.7804  0.2149  1.5613
63900SOL    HW2 1631   0.667  13.113   0.871  0.5478  1.3091 -2.8582
63901SOL     OW 1632   8.688  10.421  11.257  0.4881 -0.6144  0.2574
63901SOL    HW1 1633   8.757  10.393  11.317 -0.4769 -0.9959  1.2068
63901SOL    HW2 1634   8.665  10.342  11.208  1.9021 -0.1142 -1.3085
63902SOL     OW 1635   6.371   1.898  11.187  0.2370  0.3192 -0.0011
63902SOL    HW1 1636   6.318   1.819  11.178  1.1876 -0.5055  1.2974
63902SOL    HW2 1637   6.369   1.919  11.280 -0.2759  2.0654 -0.3551
63903SOL     OW 1638  10.028   7.378  11.035 -0.5451 -0.3661  0.2554
63903SOL    HW1 1639  10.039   7.471  11.016 -1.3507 -0.2418  0.3513
63903SOL    HW2 1640  10.007   7.338  10.951  2.0613 -0.8823 -0.2576
63904SOL     OW 1641   4.857   9.968   3.470  0.3123 -0.6286 -0.2496
63904SOL    HW1 1642   4.796   9.999   3.536  1.6647  1.2718  0.1691
63904SOL    HW2 1643   4.810   9.896   3.427 -2.0632  0.4838  0.2914
63905SOL     OW 1644   8.524   0.725   0.925  0.0721 -0.4888  0.4819
63905SOL    HW1 1645   8.596   0.707   0.985 -1.1479 -2.1797  1.5354
63905SOL    HW2 1646   8.453   0.754   0.982 -0.1366  1.1289 -0.5283
63906SOL     OW 1647   3.288   2.730  11.283 -0.0238 -0.8678 -0.3851
63906SOL    HW1 1648   3.266   2.821  11.302  1.1759 -1.0269  2.3271
63906SOL    HW2 1649   3.220   2.701  11.223 -2.0572  1.0377  0.8092
63907SOL     OW 1650   7.185  10.318   7.155  0.2383  0.1189  0.0479
63907SOL    HW1 1651   7.155  10.384   7.216 -0.6306 -0.0344 -0.1940
63907SOL    HW2 1652   7.105  10.286   7.113  0.8467  0.6829 -1.6443
63908SOL     OW 1653  11.279  11.603   7.618  0.7303  0.2245 -0.4563
63908SOL    HW1 1654  11.204  11.576   7.564  0.2192  3.6833 -1.7211
63908SOL    HW2 1655  11.252  11.583   7.707 -0.9177 -0.3002 -1.0283
63909SOL     OW 1656   5.562   7.754  12.889  0.1559  0.3763  1.0491
63909SOL    HW1 1657   5.579   7.736  12.797 -1.1203  0.2779  0.8123
63909SOL    HW2 1658   5.648   7.759  12.929  0.7078 -1.0922  0.1298
63910SOL     OW 1659   8.188  13.196   0.346  0.0614 -0.4806 -0.1505
63910SOL    HW1 1660   8.181  13.170   0.438 -1.6616  0.6695  0.0976
63910SOL    HW2 1661   8.183  13.292   0.348  1.6981 -0.3346 -1.3385
63911SOL     OW 1662  11.619   8.280   7.273 -0.3513  0.0800  0.3187
63911SOL    HW1 1663  11.594   8.308   7.184 -0.9434 -0.2819  0.3667
63911SOL    HW2 1664  11.708   8.314   7.284  0.4113 -1.3138 -1.0615
63912SOL     OW 1665   4.805   3.978   2.639  0.4135  0.4570 -0.3144
63912SOL    HW1 1666   4.797   3.883   2.638 -1.8747  0.5758  0.5839
63912SOL    HW2 1667   4.715   4.010   2.631  1.2100  2.5839 -1.6954
63913SOL     OW 1668  12.725  10.722   0.454 -0.3610 -0.6747 -0.3434
63913SOL    HW1 1669  12.650  10.686   0.502 -1.7887  1.1330 -1.0888
63913SOL    HW2 1670  12.699  10.719   0.362  1.4260 -2.0081 -0.8763
63914SOL     OW 1671   1.148  11.941  10.955  0.1525  0.1924 -0.3418
63914SOL    HW1 1672   1.184  11.890  10.882  0.7148 -0.7808  0.5781
63914SOL    HW2 1673   1.225  11.974  11.002 -0.1859  2.4304 -1.2287
63915SOL     OW 1674  11.462   0.407   0.949  0.0795  0.6431 -0.3188
63915SOL    HW1 1675  11.457   0.314   0.927  0.9188  0.2419  1.0939
63915SOL    HW2 1676  11.386   0.423   1.005 -0.6316  1.0766 -1.3607
63916SOL     OW 1677  10.354   5.222  11.888 -0.0735  0.0645 -0.0624
63916SOL    HW1 1678  10.321   5.157  11.826 -0.6552  0.6434 -0.3756
63916SOL    HW2 1679  10.313   5.199  11.971  2.6638 -2.2815  0.8124
63917SOL     OW 1680   9.599   4.403   0.349 -0.2460 -0.1901  0.1272
63917SOL    HW1 1681   9.641   4.401   0.434  0.7848  1.6845 -0.2935
63917SOL    HW2 1682   9.659   4.355   0.291  0.1811  0.4687  0.0127
63918SOL     OW 1683   6.947   6.941   6.067  0.2429  0.8102 -0.0545
63918SOL    HW1 1684   6.918   7.030   6.046 -1.0776  0.1712 -1.0155
63918SOL    HW2 1685   7.032   6.954   6.111  0.2633  2.5119 -0.5207
63919SOL     OW 1686   3.815   7.462   8.605 -1.0913  0.5045 -0.1306
63919SOL    HW1 1687   3.774   7.431   8.525 -0.0759  0.4167 -0.6335
63919SOL    HW2 1688   3.745   7.460   8.670 -1.3060 -2.0349 -0.3332
63920SOL     OW 1689   0.455   1.037   3.246 -0.3566  0.3184  0.5921
63920SOL    HW1 1690   0.501   0.998   3.320  0.0691  1.5693  1.0083
63920SOL    HW2 1691   0.393   1.099   3.286 -2.6972 -1.5186  0.0806
63921SOL     OW 1692   4.048   8.354   2.447 -0.7760 -0.1763 -0.4369
63921SOL    HW1 1693   3.955   8.364   2.429 -0.8599  0.1383  0.1635
63921SOL    HW2 1694   4.088   8.436   2.419 -0.7566 -0.1086 -0.2173
63922SOL     OW 1695   1.312   0.312   6.186 -0.0388 -0.1944 -0.1648
63922SOL    HW1 1696   1.393   0.276   6.222  0.2058  1.0654  0.6220
63922SOL    HW2 1697   1.242   0.267   6.233  0.2552  2.3838  3.1396
63923SOL     OW 1698   9.709   9.479   4.713 -0.2971 -0.7564 -0.2178
63923SOL    HW1 1699   9.701   9.431   4.795  0.6591 -0.1287  0.2627
63923SOL    HW2 1700   9.712   9.571   4.738  1.5799 -0.6105 -0.7853
63924SOL     OW 1701   9.480   0.418   3.641 -0.4900  0.1429 -0.0407
63924SOL    HW1 1702   9.488   0.471   3.720  0.3693  1.2387 -0.8235
63924SOL    HW2 1703   9.553   0.446   3.586 -0.0832 -1.7966 -0.5448
63925SOL     OW 1704  12.964   9.921   8.001 -0.3303  0.3829 -0.0795
63925SOL    HW1 1705  13.044   9.975   8.004  0.1654 -0.2581 -1.0194
63925SOL    HW2 1706  12.984   9.846   8.056 -1.0213  1.1212  1.2289
63926SOL     OW 1707   6.852   7.818  12.249  0.1869  0.3328 -0.5685
63926SOL    HW1 1708   6.787   7.838  12.182  0.7509 -0.1417 -1.2818
63926SOL    HW2 1709   6.875   7.903  12.287 -3.8727  0.2464  2.7146
63927SOL     OW 1710   1.355   7.614   6.603  0.2451 -0.1356 -0.6310
63927SOL    HW1 1711   1.349   7.601   6.509  0.7542 -0.8625 -0.5677
63927SOL    HW2 1712   1.365   7.709   6.613  2.9818 -0.2628 -1.4812
63928SOL     OW 1713   7.373   7.105  11.458 -0.5841 -0.2684  0.1020
63928SOL    HW1 1714   7.299   7.077  11.511  0.3922 -1.7352  0.7690
63928SOL    HW2 1715   7.426   7.160  11.517 -0.0509 -1.0102  0.3296
63929SOL     OW 1716  10.274   4.298   9.078 -0.1294 -0.4749  0.0996
63929SOL    HW1 1717  10.263   4.392   9.086 -0.5383 -0.5342  0.3124
63929SOL    HW2 1718  10.184   4.264   9.072  0.0447 -0.6236 -3.0225
63930SOL     OW 1719  11.043   8.714   4.798  0.0936 -0.0376 -0.3165
63930SOL    HW1 1720  11.131   8.680   4.814  0.2610 -1.0377 -2.8269
63930SOL    HW2 1721  11.026   8.773   4.871  3.5089  1.4728 -0.5595
63931SOL     OW 1722  13.106  12.256   4.489  0.1093  0.0652  0.1672
63931SOL    HW1 1723  13.184  12.275   4.436 -0.5792 -1.9572 -1.7277
63931SOL    HW2 1724  13.140  12.248   4.578  1.6946  1.3810 -0.2593
63932SOL     OW 1725   7.782   5.131   4.381  0.0164 -0.0580  0.1891
63932SOL    HW1 1726   7.729   5.110   4.304  1.9558  0.3918 -1.3339
63932SOL    HW2 1727   7.758   5.222   4.401 -1.7325 -0.6997  1.2200
63933SOL     OW 1728   0.152   6.064  12.921  0.1332 -0.0322 -0.2115
63933SOL    HW1 1729   0.056   6.070  12.918 -0.1150 -0.1325  3.4292
63933SOL    HW2 1730   0.170   5.975  12.949  1.2780  0.1129 -0.4374
63934SOL     OW 1731   4.090  11.217  11.248  0.1566 -0.3492 -0.2376
63934SOL    HW1 1732   4.087  11.122  11.256 -1.8244 -0.2455  1.0398
63934SOL    HW2 1733   4.031  11.237  11.175 -0.9114 -0.0499  0.6731
63935SOL     OW 1734   5.332   7.511   5.985 -0.3160  0.2021  0.9943
63935SOL    HW1 1735   5.426   7.526   5.988 -0.0534 -1.3324  1.4412
63935SOL    HW2 1736   5.305   7.545   5.899  0.8111 -0.1895  0.4636
63936SOL     OW 1737   0.538   5.011   2.686 -0.7480  0.4828 -0.0112
63936SOL    HW1 1738   0.446   5.002   2.710 -0.6606  1.5124  0.8284
63936SOL    HW2 1739   0.585   4.995   2.768 -0.2725  1.3560 -0.1008
63937SOL     OW 1740   1.958   1.024   7.833 -0.2726 -0.0010  0.2997
63937SOL    HW1 1741   1.888   1.017   7.897 -0.5531 -0.0422 -0.0079
63937SOL    HW2 1742   1.923   1.079   7.764 -0.4816 -1.0501 -0.4685
63938SOL     OW 1743   8.846   3.948   5.617 -0.0752  0.2493 -0.2554
63938SOL    HW1 1744   8.785   3.877   5.640 -0.0536  0.4290  0.3573
63938SOL    HW2 1745   8.807   4.026   5.655  1.4230  0.1074  1.7625
63939SOL     OW 1746  11.491   8.554   7.676  0.6881 -0.6439  0.6846
63939SOL    HW1 1747  11.550   8.612   7.628 -1.9565  2.1232  0.4416
63939SOL    HW2 1748  11.478   8.480   7.617 -0.1403  1.2340 -1.6797
63940SOL     OW 1749   0.241   7.112   4.255 -0.6691 -0.0163  0.3601
63940SOL    HW1 1750   0.202   7.077   4.335 -2.4405 -0.0198 -0.4781
63940SOL    HW2 1751   0.252   7.205   4.273  2.3264 -0.5335  1.8956
63941SOL     OW 1752  11.106   0.173   3.164  0.3861  0.4939 -0.0114
63941SOL    HW1 1753  11.167   0.213   3.103  0.7034 -0.8149 -0.5833
63941SOL    HW2 1754  11.159   0.113   3.216 -0.5787 -2.0338 -1.7048
63942SOL     OW 1755   0.315  10.378   0.303 -0.3413 -0.4359 -0.4560
63942SOL    HW1 1756   0.292  10.421   0.220 -0.2938  0.5984  0.0588
63942SOL    HW2 1757   0.285  10.287   0.291 -0.2953 -0.3176 -1.6193
63943SOL     OW 1758   4.725   6.838   2.427 -0.1235 -0.3081 -0.0362
63943SOL    HW1 1759   4.716   6.841   2.332  1.8085  2.3186 -0.2370
63943SOL    HW2 1760   4.803   6.785   2.442  1.1175  1.3704 -0.1715
63944SOL     OW 1761   2.922   4.089  11.773 -0.0830  0.1666 -0.3661
63944SOL    HW1 1762   2.856   4.154  11.750 -2.1840 -1.6628  0.1568
63944SOL    HW2 1763   2.946   4.110  11.863 -0.3182  0.5374 -0.3874
63945SOL     OW 1764  11.912   2.872   8.577  0.2492 -0.1981 -0.5150
63945SOL    HW1 1765  11.915   2.865   8.481 -0.6833  1.8509 -0.7550
63945SOL    HW2 1766  11.987   2.927   8.599 -0.2549  0.3773 -0.2128
63946SOL     OW 1767  12.180   9.381  10.859  0.2776  0.6477 -0.1383
63946SOL    HW1 1768  12.163   9.437  10.782  0.6778  0.9960  0.0210
63946SOL    HW2 1769  12.094   9.350  10.886  0.3204 -1.9428 -2.5368
63947SOL     OW 1770   1.866  11.647  13.269  0.2320 -0.0690 -0.1863
63947SOL    HW1 1771   1.843  11.681  13.182 -3.0117  0.6166  0.7673
63947SOL    HW2 1772   1.937  11.704  13.299 -0.4636  1.4813 -1.3333
63948SOL     OW 1773   3.600   2.139   7.084  0.2674 -0.0171  0.3272
63948SOL    HW1 1774   3.654   2.068   7.117  1.1121  0.8642  0.8936
63948SOL    HW2 1775   3.653   2.180   7.015  0.3134  0.8099  0.8378
63949SOL     OW 1776  12.879  12.267   6.587  0.0738  0.4617  0.3711
63949SOL    HW1 1777  12.937  12.207   6.634  0.5686  0.0981 -0.6724
63949SOL    HW2 1778  12.925  12.285   6.505 -1.9564 -1.0374 -1.1821
63950SOL     OW 1779  11.632   3.865   1.048  0.4894 -0.3061 -0.5923
63950SOL    HW1 1780  11.672   3.830   1.128  1.1880 -0.6320 -1.0846
63950SOL    HW2 1781  11.688   3.939   1.024  0.8341 -0.7975 -1.3138
63951SOL     OW 1782  12.948   8.015   1.181 -0.1630 -0.9096 -0.0148
63951SOL    HW1 1783  12.998   8.053   1.254  0.3184 -2.6401  0.6051
63951SOL    HW2 1784  12.857   8.022   1.208 -0.0396 -0.8265  0.3911
63952SOL     OW 1785   5.101   2.978   0.693  0.3015  0.0639  0.3729
63952SOL    HW1 1786   5.058   2.999   0.776  1.1439  1.0008  0.5968
63952SOL    HW2 1787   5.193   2.962   0.716  0.1480 -1.7484 -0.1139
63953SOL     OW 1788   8.579   5.440   5.560 -0.5460  0.2261  0.3001
63953SOL    HW1 1789   8.534   5.470   5.639  1.3821  1.5120  0.9801
63953SOL    HW2 1790   8.672   5.436   5.585 -0.2446 -3.0780 -0.7833
63954SOL     OW 1791   4.733   1.675   3.359 -0.4793  0.4301 -0.1566
63954SOL    HW1 1792   4.823   1.668   3.329  0.0712 -0.0027  1.4717
63954SOL    HW2 1793   4.719   1.769   3.371 -0.1264  0.4777 -0.1105
63955SOL     OW 1794   9.308   8.804   9.472 -0.4265 -0.1142  0.4153
63955SOL    HW1 1795   9.250   8.872   9.506 -0.9107  0.2449 -1.0205
63955SOL    HW2 1796   9.294   8.729   9.528 -0.5223  0.7076  1.5187
63956SOL     OW 1797   0.762   2.779   3.992 -0.0689 -0.5148 -0.3488
63956SOL    HW1 1798   0.719   2.859   4.020  1.4018  0.6357 -1.2191
63956SOL    HW2 1799   0.805   2.746   4.071  1.5287  1.0433 -0.5051
63957SOL     OW 1800   2.856   5.371   1.649  0.4456  1.0408  0.2699
63957SOL    HW1 1801   2.893   5.333   1.729 -0.9176  1.8941  1.3663
63957SOL    HW2 1802   2.930   5.380   1.590  1.4757  0.2472  1.3855
63958SOL     OW 1803   4.329   9.498  11.794 -0.1678  0.1407 -0.6594
63958SOL    HW1 1804   4.363   9.534  11.876 -1.1898 -1.2760  0.4421
63958SOL    HW2 1805   4.399   9.443  11.761 -0.1198 -0.0914 -0.1804
63959SOL     OW 1806   7.190   0.208   9.438  0.0696  0.1806  0.0700
63959SOL    HW1 1807   7.135   0.187   9.513  0.3701 -0.7144  0.0517
63959SOL    HW2 1808   7.130   0.203   9.363  0.0392 -0.1736  0.1168
63960SOL     OW 1809   7.450   0.269  10.189  0.2052  0.6125  0.0030
63960SOL    HW1 1810   7.357   0.255  10.173  0.4051 -1.2521  0.2853
63960SOL    HW2 1811   7.465   0.235  10.277  1.5475 -1.1984 -0.8727
63961SOL     OW 1812   7.296  12.971  11.997  0.2036 -0.2714 -0.5690
63961SOL    HW1 1813   7.219  12.959  11.941  0.3099  3.0151 -1.6533
63961SOL    HW2 1814   7.274  12.926  12.079 -3.1440  0.9807 -0.6181
63962SOL     OW 1815   6.269   7.687   2.952 -0.2317 -0.7611  0.2176
63962SOL    HW1 1816   6.305   7.686   2.864  0.7122  0.6511  0.5409
63962SOL    HW2 1817   6.191   7.743   2.946 -0.3825 -0.9739  0.2006
63963SOL     OW 1818   0.982  11.140   0.384 -0.5828  0.2686  0.3109
63963SOL    HW1 1819   1.031  11.151   0.465  0.0510  1.3666 -0.1899
63963SOL    HW2 1820   0.891  11.130   0.411 -0.2458 -0.4764  1.1944
63964SOL     OW 1821   5.859  11.535   9.499 -0.1711 -0.1970  0.2611
63964SOL    HW1 1822   5.876  11.587   9.578  2.5625 -2.3664  1.2551
63964SOL    HW2 1823   5.766  11.513   9.504 -0.2064  0.2758  2.5331
63965SOL     OW 1824   9.434   4.683   1.199 -0.0329  0.4721  0.7000
63965SOL    HW1 1825   9.479   4.765   1.182  1.3531 -0.7855 -2.5409
63965SOL    HW2 1826   9.350   4.691   1.154  0.0760  0.1430  0.4352
63966SOL     OW 1827   3.350  12.999  10.961  0.2155  0.0381 -0.7471
63966SOL    HW1 1828   3.421  12.949  11.002 -1.9375 -2.4542  0.2607
63966SOL    HW2 1829   3.352  12.972  10.869  0.3883 -0.2474 -0.6610
63967SOL     OW 1830   7.302  11.794   1.191  0.4734  0.0217 -0.5376
63967SOL    HW1 1831   7.380  11.797   1.136  0.6887 -1.4443 -0.3381
63967SOL    HW2 1832   7.277  11.702   1.193 -2.5150  0.6840 -2.2998
63968SOL     OW 1833   6.657  11.663   2.749 -0.2578 -0.2460 -0.6480
63968SOL    HW1 1834   6.685  11.750   2.721 -1.9456  0.6427  0.2522
63968SOL    HW2 1835   6.568  11.655   2.714 -0.0120 -1.7657 -0.9913
63969SOL     OW 1836  12.627   7.487   7.988  0.1558 -0.6383 -0.2992
63969SOL    HW1 1837  12.610   7.529   7.904 -0.3854 -0.1781  0.0365
63969SOL    HW2 1838  12.543   7.491   8.034  0.7920  0.3637  0.8170
63970SOL     OW 1839   0.319   5.019   9.416 -0.1451 -0.0091 -0.1027
63970SOL    HW1 1840   0.235   5.064   9.415 -0.9838 -1.5189  0.1995
63970SOL    HW2 1841   0.353   5.034   9.504 -1.2683 -1.4366  0.6053
63971SOL     OW 1842   9.687   5.317   2.151 -0.0617 -0.6883  0.2590
63971SOL    HW1 1843   9.642   5.350   2.072  1.5394 -1.0594 -0.8646
63971SOL    HW2 1844   9.706   5.395   2.202 -1.5938 -0.4910  0.5585
63972SOL     OW 1845  11.315   8.411   1.499 -0.2165  0.2296 -0.5561
63972SOL    HW1 1846  11.322   8.331   1.448 -0.1374 -1.2106  1.6091
63972SOL    HW2 1847  11.221   8.422   1.514 -0.2101  0.4502 -0.6620
63973SOL     OW 1848   5.847   9.479  10.764  0.5750  0.1617  0.2664
63973SOL    HW1 1849   5.891   9.431  10.693  0.3961  0.6134 -0.1567
63973SOL    HW2 1850   5.846   9.417  10.837  0.3975 -0.4732 -0.2525
63974SOL     OW 1851   0.166   6.630   1.419  0.4371 -0.5574 -0.8666
63974SOL    HW1 1852   0.254   6.630   1.381  0.4353 -1.2778 -0.8800
63974SOL    HW2 1853   0.174   6.684   1.498  1.3946 -2.2513  0.2641
63975SOL     OW 1854   0.303   1.264  10.302  0.1135 -0.6900 -0.2663
63975SOL    HW1 1855   0.353   1.307  10.372 -0.1271 -2.1015  0.8224
63975SOL    HW2 1856   0.211   1.284  10.322  0.1200  0.3792 -1.2203
63976SOL     OW 1857   8.078   2.984   2.949  0.4426 -0.3042  0.0920
63976SOL    HW1 1858   8.076   3.058   3.008 -0.7706  2.0035 -2.5937
63976SOL    HW2 1859   8.171   2.966   2.935  0.7475  0.4435  1.1000
63977SOL     OW 1860   7.867   8.272   9.702  0.0190  0.0679  0.0659
63977SOL    HW1 1861   7.807   8.223   9.757 -0.4826  0.4877 -0.0910
63977SOL    HW2 1862   7.892   8.211   9.632 -2.8811  0.8339 -1.8186
63978SOL     OW 1863  12.651   3.353   8.851 -0.0448  0.1898  0.1591
63978SOL    HW1 1864  12.732   3.305   8.834 -0.5368 -0.9636  0.9548
63978SOL    HW2 1865  12.639   3.408   8.774  1.2385  0.0126 -0.1845
63979SOL     OW 1866   0.076  11.001  13.271  0.0665  0.1609 -0.0533
63979SOL    HW1 1867   0.027  11.077  13.241  1.1565  2.2056  2.8336
63979SOL    HW2 1868   0.010  10.933  13.284 -1.4223  1.5735  0.0662
63980SOL     OW 1869   2.174  11.791   0.806  0.0509  0.5309 -0.4156
63980SOL    HW1 1870   2.087  11.805   0.842  0.2222  0.9315 -0.1516
63980SOL    HW2 1871   2.217  11.877   0.811  0.8920  0.0777  0.6166
63981SOL     OW 1872   2.493   9.102   5.706 -0.3753 -0.1800  0.0727
63981SOL    HW1 1873   2.494   9.156   5.627 -0.8895  1.5104  1.1501
63981SOL    HW2 1874   2.408   9.120   5.746  0.6366  0.5778  2.0085
63982SOL     OW 1875   8.533   3.813  12.316  0.1542 -0.1907  0.7056
63982SOL    HW1 1876   8.599   3.751  12.283 -2.2518 -3.3490  1.4237
63982SOL    HW2 1877   8.582   3.869  12.377  2.9460  0.3488 -1.7541
63983SOL     OW 1878   5.405  10.174   7.787 -0.4853 -0.3681  0.5016
63983SOL    HW1 1879   5.482  10.147   7.737 -1.2405 -1.3678 -0.1563
63983SOL    HW2 1880   5.367  10.093   7.820 -1.2201  0.1162  0.8885
63984SOL     OW 1881   5.317   3.486   3.996  0.4250 -0.3217  0.1241
63984SOL    HW1 1882   5.341   3.471   3.904 -3.6744  0.9121 -1.3743
63984SOL    HW2 1883   5.298   3.580   4.001 -0.2284 -0.5082  2.0201
63985SOL     OW 1884   3.225   3.687   8.845  0.4661  0.3628  0.4842
63985SOL    HW1 1885   3.188   3.703   8.758 -0.1360 -0.5885  0.5523
63985SOL    HW2 1886   3.307   3.642   8.828  0.1447 -0.2050  0.4100
63986SOL     OW 1887   8.905  12.093  11.324  0.3575 -0.0479  0.4943
63986SOL    HW1 1888   8.961  12.151  11.375 -0.5393  0.5228  0.8348
63986SOL    HW2 1889   8.888  12.141  11.243 -0.8394  0.4230  1.0068
63987SOL     OW 1890  12.217   0.524  11.636  0.2126 -0.5485  0.3192
63987SOL    HW1 1891  12.249   0.458  11.573  0.5144  0.4498 -0.5967
63987SOL    HW2 1892  12.290   0.535  11.697  1.5625  1.3553 -1.4786
63988SOL     OW 1893   7.730  12.366   1.727 -0.3109  0.5331 -0.6075
63988SOL    HW1 1894   7.654  12.358   1.785 -0.2166  0.9552 -0.4202
63988SOL    HW2 1895   7.720  12.452   1.686 -1.6348 -0.6648 -3.0558
63989SOL     OW 1896   7.331   7.321   4.668  0.2369  0.5206 -0.4420
63989SOL    HW1 1897   7.359   7.388   4.605  0.0384  0.2362 -0.8369
63989SOL    HW2 1898   7.286   7.255   4.614  1.2457 -0.3970 -0.1795
63990SOL     OW 1899   8.744  12.826   1.213 -0.1979 -0.2242 -0.0426
63990SOL    HW1 1900   8.694  12.827   1.295 -1.1008  1.2293 -0.5675
63990SOL    HW2 1901   8.699  12.889   1.157  1.0297 -0.4092 -1.2919
63991SOL     OW 1902  12.471  10.440   6.779  0.4106  0.4860  0.1794
63991SOL    HW1 1903  12.492  10.350   6.754  1.1951  1.0286 -1.2384
63991SOL    HW2 1904  12.506  10.449   6.868 -2.1619 -1.4096  1.5140
63992SOL     OW 1905   5.183  12.328   4.510  0.4272  0.0574 -0.5009
63992SOL    HW1 1906   5.191  12.347   4.416  1.4462 -0.3953 -0.5209
63992SOL    HW2 1907   5.273  12.331   4.542  0.4067 -2.2086 -0.0322
63993SOL     OW 1908   8.087   8.960  12.623  0.0419  0.3676 -0.0428
63993SOL    HW1 1909   8.165   8.931  12.669 -0.1331 -0.4418 -0.2377
63993SOL    HW2 1910   8.114   9.040  12.578 -0.1132  1.9324  2.4406
63994SOL     OW 1911   7.392  11.659   4.898 -0.7702 -0.0882  0.3538
63994SOL    HW1 1912   7.446  11.717   4.845  1.3966 -2.0721  0.2485
63994SOL    HW2 1913   7.452  11.590   4.927 -2.4234 -0.4346  3.3369
63995SOL     OW 1914   1.241   8.341   1.712 -0.3953  0.1371  0.6144
63995SOL    HW1 1915   1.298   8.418   1.717  1.3783 -1.1382  1.2881
63995SOL    HW2 1916   1.187   8.346   1.792  0.6212  0.0493  1.3307
63996SOL     OW 1917  10.348   8.365   9.683 -0.4642  0.2923 -0.1838
63996SOL    HW1 1918  10.359   8.375   9.778  1.1529  0.2042 -0.3366
63996SOL    HW2 1919  10.369   8.451   9.647  2.3103 -0.5083 -0.6758
63997SOL     OW 1920   7.781   7.791   9.711 -0.3416 -0.2632  0.1791
63997SOL    HW1 1921   7.763   7.697   9.711 -1.8682 -0.0090  1.5730
63997SOL    HW2 1922   7.836   7.804   9.788 -1.1251  0.1324  0.6837
63998SOL     OW 1923   9.742   4.880   5.332  0.1648  0.2725 -0.4359
63998SOL    HW1 1924   9.792   4.828   5.395 -0.7822  1.2921  1.2220
63998SOL    HW2 1925   9.765   4.971   5.354 -0.6385  0.6641 -1.1842
63999SOL     OW 1926   2.714   1.239   6.335 -0.2683 -0.3515 -0.2700
63999SOL    HW1 1927   2.772   1.184   6.388 -1.3718 -1.5051 -0.2082
63999SOL    HW2 1928   2.626   1.217   6.366 -0.8779 -0.2701 -1.8622
64000SOL     OW 1929  12.779   2.485   9.823 -0.5005 -0.1292 -0.6166
64000SOL    HW1 1930  12.732   2.560   9.860  0.8239  0.2164  0.4498
64000SOL    HW2 1931  12.717   2.413   9.828 -1.6332  0.7604 -1.2061
64001SOL     OW 1932  11.362   9.607   9.299  0.1428  0.1968 -0.2339
64001SOL    HW1 1933  11.303   9.645   9.233  0.1933 -0.0744 -0.4365
64001SOL    HW2 1934  11.357   9.513   9.284 -1.4536 -0.0540  1.4837
64002SOL     OW 1935   7.868  11.124   1.656  0.3772  0.2283  0.0073
64002SOL    HW1 1936   7.797  11.163   1.707 -0.4421 -1.4960  0.2878
64002SOL    HW2 1937   7.823  11.071   1.590  1.3453 -1.4247  0.6009
64003SOL     OW 1938  10.424  11.303  12.345 -0.0318 -0.1980  0.2830
64003SOL    HW1 1939  10.413  11.262  12.431  0.9542  0.4440  0.7326
64003SOL    HW2 1940  10.507  11.269  12.312 -0.0795  0.0648 -0.1270
64004SOL     OW 1941   5.180   3.114   2.038  0.4690  0.0370 -0.1787
64004SOL    HW1 1942   5.179   3.068   2.122  3.0038 -0.1895 -0.1975
64004SOL    HW2 1943   5.213   3.050   1.976  0.1941  0.6981 -1.0298
64005SOL     OW 1944  10.171   2.648  12.021  0.2073 -0.1789  0.3876
64005SOL    HW1 1945  10.145   2.665  11.931 -2.7958  2.4654  1.5361
64005SOL    HW2 1946  10.124   2.567  12.044 -0.5381  0.1514  0.0744
64006SOL     OW 1947   7.120   9.383   1.408  0.2712  0.6420 -0.2071
64006SOL    HW1 1948   7.049   9.342   1.457 -0.2513  0.0724 -1.3837
64006SOL    HW2 1949   7.197   9.372   1.463  0.0673 -1.5612 -0.2761
64007SOL     OW 1950   4.767   5.480   1.296 -0.0258 -0.0850 -0.5415
64007SOL    HW1 1951   4.712   5.488   1.374  0.2036  0.7576 -0.4555
64007SOL    HW2 1952   4.823   5.557   1.298  0.4482 -0.3988 -1.1862
64008SOL     OW 1953   5.401  12.160  11.654  0.6921  0.2274  0.0253
64008SOL    HW1 1954   5.462  12.095  11.690  0.8405 -1.2363 -2.6383
64008SOL    HW2 1955   5.333  12.107  11.612  0.1528  1.8290 -1.1855
64009SOL     OW 1956   2.672  11.601  10.449  0.0763 -0.1977  0.0388
64009SOL    HW1 1957   2.602  11.663  10.432 -0.1827 -0.5525 -0.1836
64009SOL    HW2 1958   2.714  11.634  10.529  0.6688  0.9033 -0.7097
64010SOL     OW 1959   4.820   4.466   3.362 -0.2459 -1.1960  0.4091
64010SOL    HW1 1960   4.816   4.477   3.267 -2.4701  0.3232  0.6029
64010SOL    HW2 1961   4.879   4.392   3.375  1.6232 -0.2595 -2.0340
64011SOL     OW 1962   4.071  12.843  10.876 -0.4938  0.0135 -0.1725
64011SOL    HW1 1963   4.046  12.754  10.902 -0.6427  0.1717  0.2490
64011SOL    HW2 1964   4.102  12.835  10.786  0.5066 -0.6521  0.2033
64012SOL     OW 1965  12.252   2.798  10.425  0.0780 -0.6189  0.4362
64012SOL    HW1 1966  12.291   2.842  10.350 -0.4330 -0.5324  0.2185
64012SOL    HW2 1967  12.187   2.738  10.387  0.7051 -1.5116  0.7268
64013SOL     OW 1968   1.560   0.218   8.587 -0.5631  0.9998  0.4290
64013SOL    HW1 1969   1.632   0.278   8.570 -0.1498  0.1759 -0.8890
64013SOL    HW2 1970   1.586   0.171   8.666  0.2564  0.8514  0.0816
64014SOL     OW 1971  10.167   2.955  11.895 -0.1717 -0.0987  0.2460
64014SOL    HW1 1972  10.241   3.010  11.870 -1.1291  0.6252 -1.1241
64014SOL    HW2 1973  10.169   2.882  11.834  0.7005 -1.2988  1.6426
64015SOL     OW 1974   6.947   7.123  10.738 -0.0963 -0.1010  0.3726
64015SOL    HW1 1975   6.868   7.148  10.690 -0.3784 -0.5585  0.5918
64015SOL    HW2 1976   6.920   7.115  10.829  0.5205  1.0992  0.6748
64016SOL     OW 1977   5.972   6.748   9.619 -0.3073 -0.1849 -0.2111
64016SOL    HW1 1978   5.922   6.709   9.691  0.5564  0.0921  0.5614
64016SOL    HW2 1979   6.062   6.746   9.649  0.0638 -0.0252 -1.2875
64017SOL     OW 1980   1.127   1.190  10.662  0.4378  0.0963  0.2542
64017SOL    HW1 1981   1.099   1.166  10.750 -0.4377  1.4219  0.3548
64017SOL    HW2 1982   1.069   1.261  10.636  2.0473  1.1929 -0.5437
64018SOL     OW 1983   5.051   7.807   8.658  0.1500  0.0143  0.2442
64018SOL    HW1 1984   5.045   7.850   8.573 -1.8159  1.3058  0.9597
64018SOL    HW2 1985   4.974   7.749   8.661  1.0805 -1.2529  0.5314
64019SOL     OW 1986  12.213  11.345   2.306 -0.2529 -0.3169  0.0249
64019SOL    HW1 1987  12.162  11.394   2.370  0.6549 -1.9951  2.1450
64019SOL    HW2 1988  12.304  11.356   2.333  0.0933 -1.7524 -0.4332
64020SOL     OW 1989  12.928  13.296   9.321  0.6123 -0.2910 -1.0049
64020SOL    HW1 1990  12.857  13.306   9.257  0.8790 -2.0651 -1.6356
64020SOL    HW2 1991  12.977  13.219   9.291  1.4521 -0.4725  0.6960
64021SOL     OW 1992   6.130   5.966   5.119  0.4043 -0.0278  0.6659
64021SOL    HW1 1993   6.169   6.003   5.040  0.0322  0.5880  0.7661
64021SOL    HW2 1994   6.193   5.988   5.188 -0.7432  2.2191  1.0770
64022SOL     OW 1995  12.454   4.644  10.697  0.2394  0.5632  0.2422
64022SOL    HW1 1996  12.482   4.733  10.676  0.4065  0.6318  0.7307
64022SOL    HW2 1997  12.435   4.604  10.612  1.5657  0.5992 -0.0890
64023SOL     OW 1998   8.780   5.761   7.766  0.1134  0.0388 -0.1810
64023SOL    HW1 1999   8.792   5.666   7.756 -0.4580  0.0917 -1.8319
64023SOL    HW2 2000   8.868   5.797   7.762  0.1835 -0.2110 -3.0954
64024SOL     OW 2001   4.522   5.019   1.067  0.3262 -0.0644  0.0883
64024SOL    HW1 2002   4.437   4.996   1.104 -0.2099 -0.5924 -1.3814
64024SOL    HW2 2003   4.516   5.114   1.052  0.4546  0.1074  1.0657
64025SOL     OW 2004  10.224   1.950   7.889  0.1692 -0.2950  0.3233
64025SOL    HW1 2005  10.191   1.958   7.799  1.6019 -1.4350 -0.3460
64025SOL    HW2 2006  10.310   1.990   7.887 -0.5295  1.4000  1.7076
64026SOL     OW 2007  13.304  12.275   6.947  0.3766 -0.2572  0.0140
64026SOL    HW1 2008  13.349  12.211   7.001  1.3477  0.1403 -0.2972
64026SOL    HW2 2009  13.367  12.299   6.879 -0.2674  0.3922 -0.3827
64027SOL     OW 2010   9.517   8.847   5.938 -0.0773 -0.5281  0.1741
64027SOL    HW1 2011   9.571   8.840   6.016  0.4272 -1.2002 -0.2281
64027SOL    HW2 2012   9.576   8.828   5.866 -0.5667 -0.0226 -0.3669
64028SOL     OW 2013   5.499   6.685  13.305 -0.4799 -0.3325 -0.2121
64028SOL    HW1 2014   5.526   6.650  13.220 -1.5071 -2.6691  0.3478
64028SOL    HW2 2015   5.488   6.608  13.360  2.6847  1.1571  2.9045
64029SOL     OW 2016   1.336   3.863   8.720  0.3167 -0.5076  0.7090
64029SOL    HW1 2017   1.253   3.830   8.684 -0.0479  0.6411  0.4633
64029SOL    HW2 2018   1.309   3.925   8.788  0.8545  2.2591 -1.4214
64030SOL     OW 2019   0.880   9.060   4.913 -0.3431 -0.4041 -0.7947
64030SOL    HW1 2020   0.788   9.054   4.937 -0.4563 -0.6740 -1.2799
64030SOL    HW2 2021   0.895   9.154   4.899 -0.4160 -0.3063 -0.2349
64031SOL     OW 2022   3.743   8.245   7.156 -0.4285 -0.5161  0.3097
64031SOL    HW1 2023   3.705   8.159   7.177  0.4104 -1.2463 -1.0429
64031SOL    HW2 2024   3.747   8.290   7.241 -1.7465 -1.4428  0.9033
64032SOL     OW 2025   4.019   5.334   1.753  0.2569  0.0947  0.2983
64032SOL    HW1 2026   4.079   5.281   1.701 -0.1439 -2.1200  1.9487
64032SOL    HW2 2027   4.075   5.392   1.804  0.7957  0.1029 -0.2898
64033SOL     OW 2028   5.578   0.343   6.368 -0.4967  0.1865 -0.3269
64033SOL    HW1 2029   5.630   0.293   6.431 -0.3112  1.1715  0.3417
64033SOL    HW2 2030   5.577   0.432   6.404 -1.9610  0.3727 -0.7527
64034SOL     OW 2031   4.720   9.183  11.098 -0.1566 -0.2054  0.5808
64034SOL    HW1 2032   4.726   9.246  11.170  0.0556 -0.1546  0.5187
64034SOL    HW2 2033   4.628   9.188  11.070  0.0113  0.5646  0.1364
64035SOL     OW 2034  11.618   3.818   4.693  0.4246  0.3398 -0.0996
64035SOL    HW1 2035  11.624   3.888   4.628  0.3820  0.9526  0.5391
64035SOL    HW2 2036  11.683   3.842   4.760  1.6738 -1.1531 -0.7116
64036SOL     OW 2037  13.019  13.310   0.819 -0.1993  0.3143 -0.3524
64036SOL    HW1 2038  12.926  13.331   0.829 -0.4652 -1.0743  0.4112
64036SOL    HW2 2039  13.047  13.361   0.743 -1.2848  1.6452  0.0981
64037SOL     OW 2040   6.319   5.481   2.524 -1.2115  0.3930 -0.2192
64037SOL    HW1 2041   6.233   5.522   2.518 -0.7936  1.2255 -0.6371
64037SOL    HW2 2042   6.310   5.400   2.473 -1.9996  0.0145  0.5012
64038SOL     OW 2043   7.708   0.920  10.413  0.1043 -0.5162  0.0557
64038SOL    HW1 2044   7.723   0.933  10.320  2.8213  1.3667  0.6425
64038SOL    HW2 2045   7.726   0.827  10.427  1.1838 -0.5059 -1.0735
64039SOL     OW 2046   0.047   0.548   3.564 -0.3557 -0.0842 -0.0316
64039SOL    HW1 2047   0.014   0.458   3.572  3.1161 -1.5938 -0.9303
64039SOL    HW2 2048   0.015   0.577   3.479 -0.2023 -1.1231 -0.4683
64040SOL     OW 2049   8.126  12.179   5.272  0.0008  0.2278 -0.0443
64040SOL    HW1 2050   8.217  12.152   5.254 -0.0170  0.7407 -0.9332
64040SOL    HW2 2051   8.110  12.250   5.211 -1.2898 -0.4110 -0.4696
64041SOL     OW 2052   8.872   7.315   3.890 -0.1129 -0.1675  0.1462
64041SOL    HW1 2053   8.791   7.352   3.854  0.9839  1.0065 -1.2120
64041SOL    HW2 2054   8.842   7.246   3.949 -2.0769 -0.5403 -1.1835
64042SOL     OW 2055  11.911   6.859   1.841  0.5866 -0.4309 -0.4031
64042SOL    HW1 2056  11.971   6.784   1.840 -1.1627 -1.8951 -0.3847
64042SOL    HW2 2057  11.851   6.840   1.912 -0.9762  0.0988 -1.5306
64043SOL     OW 2058  12.235   3.094   9.145  0.2835  0.4136 -0.1674
64043SOL    HW1 2059  12.171   3.026   9.129  0.6307  0.2351 -0.8377
64043SOL    HW2 2060  12.276   3.069   9.228  0.3152 -0.1194 -0.3415
64044SOL     OW 2061   3.161   1.572  10.487  0.3504 -0.3469  0.0275
64044SOL    HW1 2062   3.089   1.521  10.449 -1.4373  2.5435 -0.7318
64044SOL    HW2 2063   3.223   1.584  10.415  0.6577 -1.1195  0.1423
64045SOL     OW 2064   0.014   8.182  10.795  0.3553 -0.4643  0.4182
64045SOL    HW1 2065   0.004   8.096  10.755  1.9575 -0.0266 -1.0153
64045SOL    HW2 2066   0.074   8.229  10.738 -1.5655  2.1370  0.3596
64046SOL     OW 2067   5.443   7.100  12.913 -0.4689  0.3498 -0.3931
64046SOL    HW1 2068   5.378   7.034  12.939 -0.7768  0.5375 -0.6822
64046SOL    HW2 2069   5.391   7.177  12.890 -0.2134  0.1540 -1.6619
64047SOL     OW 2070   3.124   9.721   7.310 -0.7219  0.1429  0.0126
64047SOL    HW1 2071   3.064   9.752   7.378  1.5233  0.2629  2.0683
64047SOL    HW2 2072   3.146   9.799   7.259 -1.1283  0.3850  0.2051
64048SOL     OW 2073   3.794  12.229  13.136  0.0041 -0.7202  0.0330
64048SOL    HW1 2074   3.845  12.150  13.117 -1.5941 -1.4772 -1.3841
64048SOL    HW2 2075   3.736  12.204  13.207 -0.0481 -0.6142  0.0275
64049SOL     OW 2076   3.778  13.175   8.071  0.0215 -0.5128 -0.2686
64049SOL    HW1 2077   3.748  13.084   8.062 -2.0958 -0.2922  2.8347
64049SOL    HW2 2078   3.852  13.169   8.132  0.5730 -0.2460 -0.9106
64050SOL     OW 2079   9.345  10.312   4.029  0.1500  0.0706 -0.3270
64050SOL    HW1 2080   9.393  10.230   4.019  1.5204  0.5673  1.7644
64050SOL    HW2 2081   9.262  10.286   4.069  0.7874 -0.2645  0.8043
64051SOL     OW 2082   4.481   7.062   8.080  0.1216  0.5663 -0.3750
64051SOL    HW1 2083   4.398   7.030   8.115 -0.0968 -1.3131 -2.4036
64051SOL    HW2 2084   4.536   7.076   8.157 -1.8522  1.2987  0.9763
64052SOL     OW 2085   2.595   3.338  10.760  0.1238  0.3019  0.8063
64052SOL    HW1 2086   2.616   3.245  10.764  0.1364  0.2198 -0.6537
64052SOL    HW2 2087   2.523   3.348  10.823  0.7958 -0.4851  1.7254
64053SOL     OW 2088   2.883  11.461  12.928 -0.1592 -0.0018 -0.5076
64053SOL    HW1 2089   2.835  11.516  12.989  1.1209  1.4050 -0.7054
64053SOL    HW2 2090   2.962  11.435  12.976 -0.4703 -1.1956 -0.6201
64054SOL     OW 2091   2.768   3.323  13.034  0.3146  1.1110 -0.5031
64054SOL    HW1 2092   2.735   3.262  13.100  0.9079  3.1263  1.8045
64054SOL    HW2 2093   2.738   3.287  12.951  0.5537 -2.2417  0.7053
64055SOL     OW 2094   6.406  11.011   0.886 -0.1254  0.3901  0.6509
64055SOL    HW1 2095   6.405  10.921   0.855  1.6205  0.3227  0.6553
64055SOL    HW2 2096   6.396  11.064   0.806  0.9881  0.1863  0.3551
64056SOL     OW 2097   1.345  11.156   9.988 -0.0740 -0.3734 -0.3778
64056SOL    HW1 2098   1.252  11.177   9.985 -0.0362  0.3403  1.8237
64056SOL    HW2 2099   1.388  11.240  10.005  0.9214 -0.8317 -0.5196
64057SOL     OW 2100   0.612   4.418   7.979  0.3137  0.8401  0.0763
64057SOL    HW1 2101   0.694   4.370   7.985 -0.6036 -0.9452 -0.7452
64057SOL    HW2 2102   0.567   4.379   7.904 -1.2949  1.7473  0.5148
64058SOL     OW 2103  11.300  11.910   4.103  0.1275 -0.1098 -0.4652
64058SOL    HW1 2104  11.385  11.917   4.059  0.2761  1.4404  0.0016
64058SOL    HW2 2105  11.297  11.987   4.160 -1.3015 -0.5236  0.0378
64059SOL     OW 2106   3.866  11.239   0.397 -0.1664 -0.0684  0.4088
64059SOL    HW1 2107   3.940  11.268   0.450  0.5848 -0.9156 -0.1540
64059SOL    HW2 2108   3.860  11.303   0.327  0.7857 -0.6147 -0.1985
64060SOL     OW 2109  11.065  12.505  10.679  0.0361  0.6259  0.0899
64060SOL    HW1 2110  11.060  12.592  10.718 -0.5861  0.7057 -0.1596
64060SOL    HW2 2111  11.019  12.448  10.740  1.1595  0.3150  0.6670
64061SOL     OW 2112   3.104  12.445   0.664  0.1652 -0.2391  0.0102
64061SOL    HW1 2113   3.043  12.497   0.717  0.1309  0.2445 -0.5003
64061SOL    HW2 2114   3.107  12.490   0.580  0.9787 -0.4444 -0.0742
64062SOL     OW 2115  10.983   2.730  11.128  0.5914 -0.2167 -0.0317
64062SOL    HW1 2116  10.981   2.796  11.197  2.2349 -0.3252  0.1478
64062SOL    HW2 2117  10.909   2.672  11.148  1.1250 -0.3333  1.7045
64063SOL     OW 2118  12.996   0.182   1.344  0.0718 -0.2387 -0.1326
64063SOL    HW1 2119  12.908   0.220   1.349 -0.3519 -1.1352 -0.4441
64063SOL    HW2 2120  13.003   0.152   1.253  0.5160 -0.5824  0.0120
64064SOL     OW 2121   4.968   4.352   6.371  0.4275  0.4460 -0.7022
64064SOL    HW1 2122   4.918   4.418   6.418  0.1812 -0.5350  0.4854
64064SOL    HW2 2123   5.045   4.399   6.338  3.2749  0.5070  4.7798
64065SOL     OW 2124   0.319   5.404  10.560 -0.3458 -0.5550 -0.3252
64065SOL    HW1 2125   0.347   5.494  10.575  0.1442 -0.7833  0.1913
64065SOL    HW2 2126   0.251   5.388  10.625  0.0881 -0.7820  0.0860
64066SOL     OW 2127   7.997   4.173  11.427  0.4782 -0.2131 -0.4267
64066SOL    HW1 2128   7.940   4.180  11.504  1.2901 -3.3937  0.6279
64066SOL    HW2 2129   7.962   4.099  11.378  2.2019 -0.6699 -1.0561
64067SOL     OW 2130  11.328   7.855   4.934  0.2453 -0.2534  1.0935
64067SOL    HW1 2131  11.377   7.781   4.968  1.0003  0.0799  0.7442
64067SOL    HW2 2132  11.236   7.827   4.939  0.5387 -1.3511  0.6390
64068SOL     OW 2133   7.529   5.496  12.363 -0.2487  0.2160  0.4751
64068SOL    HW1 2134   7.476   5.574  12.380  2.0094  1.3450  3.1417
64068SOL    HW2 2135   7.603   5.528  12.310  0.8985  0.0540  1.9171
64069SOL     OW 2136   4.791   6.713  11.762 -0.1883  0.1555 -0.3329
64069SOL    HW1 2137   4.827   6.786  11.813 -0.1279 -0.0946 -0.0145
64069SOL    HW2 2138   4.764   6.649  11.827 -0.2994 -0.0821 -0.6096
64070SOL     OW 2139   1.764   3.293  12.244 -0.2179 -0.8776  0.2067
64070SOL    HW1 2140   1.802   3.218  12.200 -1.8549 -0.2247 -2.5715
64070SOL    HW2 2141   1.714   3.338  12.176 -0.4625  1.9521  2.0789
64071SOL     OW 2142   2.310   4.014  10.875  0.8461  0.8535 -0.0992
64071SOL    HW1 2143   2.380   4.071  10.843  1.8209 -0.5112 -0.4657
64071SOL    HW2 2144   2.240   4.024  10.810  1.4218  0.8351 -0.7354
64072SOL     OW 2145  12.884   3.734  10.365 -0.1599  0.0198 -0.4038
64072SOL    HW1 2146  12.841   3.787  10.432 -0.2542 -1.7853  1.0001
64072SOL    HW2 2147  12.941   3.796  10.319 -0.1922  1.3177  1.2412
64073SOL     OW 2148   3.161   3.087   1.683 -0.3652  0.0503  0.6071
64073SOL    HW1 2149   3.135   3.050   1.768 -0.1358 -1.8142 -0.0726
64073SOL    HW2 2150   3.254   3.110   1.694 -0.5561  0.6068  1.0957
64074SOL     OW 2151   5.015   7.010   8.221  0.1046  0.3748  0.4363
64074SOL    HW1 2152   5.080   6.941   8.238 -1.0920 -0.8731  0.1425
64074SOL    HW2 2153   4.994   7.000   8.128 -1.0033  0.2953  0.6854
64075SOL     OW 2154   6.633   0.006  12.838 -0.2341 -0.9096 -0.1826
64075SOL    HW1 2155   6.664  -0.023  12.752  0.9790  1.6749 -0.7140
64075SOL    HW2 2156   6.539  -0.009  12.835 -0.4042  0.1855 -2.4681
64076SOL     OW 2157  10.631   5.873   4.609  0.1343  0.3650  0.1393
64076SOL    HW1 2158  10.707   5.820   4.633  0.3721  0.2403 -0.8707
64076SOL    HW2 2159  10.665   5.962   4.599  0.4573  0.0592 -1.7617
64077SOL     OW 2160   0.708   3.747   5.884  0.3333  0.1379 -0.2408
64077SOL    HW1 2161   0.623   3.754   5.927  1.6107  1.2682  2.3139
64077SOL    HW2 2162   0.691   3.776   5.794 -1.9519  0.4293  0.2187
64078SOL     OW 2163   0.639   8.063  11.955  0.0846 -0.3661 -0.1042
64078SOL    HW1 2164   0.644   8.121  11.880  0.3470 -0.8370 -0.4558
64078SOL    HW2 2165   0.725   8.021  11.959 -0.4696 -1.6092 -0.5751
64079SOL     OW 2166  13.246   6.335   2.521 -0.1253 -0.4402 -0.1875
64079SOL    HW1 2167  13.302   6.290   2.458  0.8233 -0.6872  0.8047
64079SOL    HW2 2168  13.163   6.287   2.519 -0.2322 -0.2198 -1.4925
64080SOL     OW 2169   0.954  12.832  10.207 -0.0367  0.2160  0.3114
64080SOL    HW1 2170   0.972  12.858  10.297  0.2577  0.3827  0.2081
64080SOL    HW2 2171   1.027  12.869  10.157  0.1079 -0.3623  0.0857
64081SOL     OW 2172  10.437   1.277  13.304  0.0185  0.1834 -0.2877
64081SOL    HW1 2173  10.433   1.232  13.389 -2.9115  0.3170 -0.2684
64081SOL    HW2 2174  10.413   1.211  13.240 -0.6991  0.8037 -0.6716
64082SOL     OW 2175   4.628   4.246   6.978  0.3918 -0.0667  0.0349
64082SOL    HW1 2176   4.571   4.169   6.981 -0.2934  0.4434  0.0844
64082SOL    HW2 2177   4.622   4.276   6.887  0.9792 -0.3033 -0.0888
64083SOL     OW 2178   0.260  12.501   4.395 -0.1756 -0.3347  0.5532
64083SOL    HW1 2179   0.330  12.441   4.370 -1.1945 -2.2940  2.1400
64083SOL    HW2 2180   0.283  12.584   4.352  1.2183 -1.8546 -1.8349
64084SOL     OW 2181   2.782  11.281   5.027  0.0654 -0.2236  0.5722
64084SOL    HW1 2182   2.826  11.212   5.075  1.5730  0.4241  0.1716
64084SOL    HW2 2183   2.848  11.315   4.967 -1.2779  0.1074 -0.7972
64085SOL     OW 2184   6.827   8.971   1.631 -0.0661  0.7754 -0.5025
64085SOL    HW1 2185   6.757   8.931   1.579  1.0451 -0.2632 -1.2632
64085SOL    HW2 2186   6.791   8.975   1.720 -0.2218 -2.1150 -0.3209
64086SOL     OW 2187   8.220  11.258   3.227 -0.4738  0.5066 -0.7087
64086SOL    HW1 2188   8.131  11.236   3.255 -0.8663  2.5268 -0.2753
64086SOL    HW2 2189   8.255  11.175   3.193 -2.9156 -0.0659 -2.0340
64087SOL     OW 2190   1.437   4.725   2.364 -0.0235  0.4515 -0.2615
64087SOL    HW1 2191   1.376   4.787   2.323  0.2228  0.0016 -1.3338
64087SOL    HW2 2192   1.520   4.740   2.320  0.8028  1.3775  1.5040
64088SOL     OW 2193   3.295   8.876   4.535  0.5720  0.2604 -0.0920
64088SOL    HW1 2194   3.249   8.933   4.596 -0.6951 -0.1641 -0.6099
64088SOL    HW2 2195   3.326   8.803   4.588 -0.0210  0.1795  0.1565
64089SOL     OW 2196  10.749   6.704   5.154 -0.2037  0.0135 -0.8854
64089SOL    HW1 2197  10.825   6.753   5.185 -0.7142  0.0392  0.3753
64089SOL    HW2 2198  10.761   6.616   5.188 -1.3002  0.3074  0.3707
64090SOL     OW 2199   2.918   2.440   8.764  0.1428 -0.2983  0.0944
64090SOL    HW1 2200   2.907   2.345   8.769  0.2392 -0.2553  1.1912
64090SOL    HW2 2201   2.916   2.469   8.855  2.2350  0.5302 -0.0939
64091SOL     OW 2202   2.674   9.714   8.533 -0.1395 -0.6953 -0.4446
64091SOL    HW1 2203   2.738   9.668   8.588  1.0882  1.7258  0.2604
64091SOL    HW2 2204   2.593   9.712   8.585  0.6371  0.3164  0.8738
64092SOL     OW 2205   5.661   2.691   4.467  0.0973  0.6062  0.0997
64092SOL    HW1 2206   5.676   2.628   4.396 -0.5264  1.0898 -0.4781
64092SOL    HW2 2207   5.568   2.714   4.460  0.6842  3.0218 -0.9573
64093SOL     OW 2208  12.890   6.759   0.151 -0.7385 -0.2204 -0.0836
64093SOL    HW1 2209  12.804   6.792   0.177 -1.0986 -1.7776  0.8751
64093SOL    HW2 2210  12.875   6.719   0.065 -0.4500  1.3969 -0.9281
64094SOL     OW 2211  13.174   5.000   8.974 -0.0594  0.2026  0.1763
64094SOL    HW1 2212  13.163   4.945   8.897 -0.9951  1.0914 -0.3404
64094SOL    HW2 2213  13.086   5.030   8.996  0.3198  0.7709  0.9952
64095SOL     OW 2214   1.908   7.286  11.832  0.1103 -0.2809  0.5031
64095SOL    HW1 2215   1.863   7.212  11.791  0.7262 -0.2970 -0.1711
64095SOL    HW2 2216   1.901   7.357  11.768  0.0172  0.0751  0.9030
64096SOL     OW 2217   8.945   5.994  11.187  0.3771 -0.3049 -0.1899
64096SOL    HW1 2218   8.923   5.925  11.124  0.1437  0.5257 -1.0497
64096SOL    HW2 2219   8.861   6.023  11.222  0.4861 -0.5707  0.2902
64097SOL     OW 2220   3.461   5.687   1.310  0.3274 -0.1362 -0.1318
64097SOL    HW1 2221   3.462   5.782   1.315  2.7547 -0.1313  0.8786
64097SOL    HW2 2222   3.415   5.660   1.390  0.6837  0.2092  0.1992
64098SOL     OW 2223  12.868   7.372   0.431  0.2844 -0.2047 -0.0118
64098SOL    HW1 2224  12.892   7.460   0.402  1.7887  0.0199  1.7136
64098SOL    HW2 2225  12.821   7.334   0.357  3.3642  0.4841 -2.5535
64099SOL     OW 2226   9.816   2.477  12.497  0.1749  0.4626  0.2107
64099SOL    HW1 2227   9.890   2.527  12.460  1.2801 -1.4486 -0.3277
64099SOL    HW2 2228   9.769   2.445  12.420  0.5469 -0.7998  0.4941
64100SOL     OW 2229   2.881   0.845   0.767  0.1357  0.0368  0.4350
64100SOL    HW1 2230   2.956   0.898   0.796  1.3611 -0.4101 -1.6650
64100SOL    HW2 2231   2.879   0.857   0.672 -0.3453 -2.6454  0.0373
64101SOL     OW 2232   0.443   5.085  12.161 -0.8752  0.3274 -0.1077
64101SOL    HW1 2233   0.356   5.059  12.131  0.5009 -1.8633 -2.5562
64101SOL    HW2 2234   0.466   5.159  12.104 -0.0366 -1.0024 -1.5875
64102SOL     OW 2235  10.970   3.027   1.143  0.3198  0.6294 -0.2139
64102SOL    HW1 2236  11.006   3.108   1.108  1.2664  1.5553  2.5596
64102SOL    HW2 2237  11.047   2.981   1.179 -0.4335 -0.6171 -0.1440
64103SOL     OW 2238   0.804   7.244   2.577 -0.1947  0.4344  0.8287
64103SOL    HW1 2239   0.736   7.281   2.634 -0.3731 -0.5666  1.2881
64103SOL    HW2 2240   0.777   7.269   2.489 -1.0408  0.2407  1.0248
64104SOL     OW 2241   4.997   6.468  10.915  0.2038  0.1325  0.2249
64104SOL    HW1 2242   5.057   6.412  10.963 -1.1833 -1.8625 -0.2493
64104SOL    HW2 2243   4.949   6.516  10.982 -0.6417 -1.4853  0.8405
64105SOL     OW 2244   2.293   5.370   5.791  0.3776 -0.0225  0.1399
64105SOL    HW1 2245   2.276   5.435   5.724 -1.2558 -1.5815 -1.0714
64105SOL    HW2 2246   2.374   5.398   5.833  1.0224  1.4272 -1.9600
64106SOL     OW 2247   0.140  13.073  10.154  0.0906  0.2410  0.4845
64106SOL    HW1 2248   0.229  13.103  10.170  0.9202 -2.3142  1.1695
64106SOL    HW2 2249   0.146  13.024  10.072 -0.7157  0.1752  0.4594
64107SOL     OW 2250   2.844   8.468   0.274 -0.1267  1.0705  0.1418
64107SOL    HW1 2251   2.755   8.436   0.260  0.6295 -0.4186 -1.6886
64107SOL    HW2 2252   2.869   8.507   0.190  1.2566  0.6361  0.3285
64108SOL     OW 2253   7.011   0.348   5.114  0.5242 -0.2751 -0.0855
64108SOL    HW1 2254   7.010   0.403   5.036  0.2053  0.3165  0.3284
64108SOL    HW2 2255   7.104   0.327   5.127  0.8930  1.7029  0.7938
64109SOL     OW 2256   2.258   3.696   0.075  0.4614  0.3542 -0.3833
64109SOL    HW1 2257   2.305   3.682  -0.007  2.6074 -1.3115  1.0237
64109SOL    HW2 2258   2.312   3.759   0.123  1.1084 -1.2081  1.0585
64110SOL     OW 2259  10.381   7.550  10.063 -0.0578  0.0914  0.3428
64110SOL    HW1 2260  10.297   7.528  10.103 -1.6976  1.7838 -1.9478
64110SOL    HW2 2261  10.406   7.633  10.104  0.5299 -0.4051  1.0140
64111SOL     OW 2262   6.277   0.798   6.149 -0.3173  1.1258  0.3510
64111SOL    HW1 2263   6.261   0.882   6.191 -0.6166  1.0284  0.4359
64111SOL    HW2 2264   6.265   0.733   6.219  2.3971  1.1333  0.9509
64112SOL     OW 2265   4.955  10.300   6.949  0.1957  0.0952 -0.0853
64112SOL    HW1 2266   5.046  10.278   6.968  0.7942  0.7435 -1.9945
64112SOL    HW2 2267   4.956  10.394   6.931 -0.1832 -0.4285 -3.3772
64113SOL     OW 2268   5.333  11.558   4.535  0.0103 -0.1508 -0.0198
64113SOL    HW1 2269   5.412  11.594   4.495 -0.5204  1.4592  0.3237
64113SOL    HW2 2270   5.348  11.565   4.629  0.3710 -1.9518  0.0883
64114SOL     OW 2271   3.279   0.205  12.383  0.0790 -0.1752  0.2335
64114SOL    HW1 2272   3.239   0.241  12.304  1.6232 -0.3821 -0.6746
64114SOL    HW2 2273   3.320   0.123  12.354 -0.9214 -1.2514  1.6606
64115SOL     OW 2274   5.043   2.963   1.213 -0.1455  0.7637 -0.1888
64115SOL    HW1 2275   5.108   3.010   1.161 -0.4908  0.2463 -1.1131
64115SOL    HW2 2276   5.051   3.000   1.301 -1.4075  3.6001 -1.1745
64116SOL     OW 2277   1.691   8.924   5.360 -0.2267  0.7898  0.0906
64116SOL    HW1 2278   1.681   8.853   5.296  1.3613  0.1941  0.4471
64116SOL    HW2 2279   1.768   8.972   5.330  0.5557  0.4824  1.5570
64117SOL     OW 2280   1.397   6.855   9.352 -0.3740  0.5283  0.4366
64117SOL    HW1 2281   1.425   6.792   9.417  0.5627  0.0637 -0.3896
64117SOL    HW2 2282   1.377   6.934   9.402 -1.7234 -0.4436  1.4990
64118SOL     OW 2283   7.821   4.367   6.195  0.9553  0.0568 -0.9502
64118SOL    HW1 2284   7.857   4.296   6.249  0.4712  0.2934 -0.2934
64118SOL    HW2 2285   7.753   4.405   6.250  0.8888  0.7236 -1.4917
64119SOL     OW 2286  10.539   1.546   2.814  0.8533  0.2709 -0.4342
64119SOL    HW1 2287  10.597   1.571   2.886  2.1122 -0.1239 -1.2922
64119SOL    HW2 2288  10.457   1.522   2.857  1.4616  0.4065  0.8432
64120SOL     OW 2289   9.021  12.713  10.424 -0.2272 -0.1490 -0.4662
64120SOL    HW1 2290   9.106  12.749  10.400 -0.6891  1.2655 -0.0931
64120SOL    HW2 2291   9.028  12.620  10.404  1.6682 -0.2165  0.2966
64121SOL     OW 2292  11.377   5.695   9.842 -0.4286 -0.2842 -0.2016
64121SOL    HW1 2293  11.375   5.611   9.887  1.0022 -1.6751 -2.5308
64121SOL    HW2 2294  11.311   5.688   9.773 -0.1714  0.4203 -0.5392
64122SOL     OW 2295   8.394  10.993   9.875 -0.2660  0.4612  0.6341
64122SOL    HW1 2296   8.457  11.065   9.881  1.0044 -0.4691 -0.6888
64122SOL    HW2 2297   8.390  10.973   9.781 -2.7098  0.5894  0.6437
64123SOL     OW 2298  10.581   1.103   0.756 -0.0046 -0.2336  0.6368
64123SOL    HW1 2299  10.645   1.035   0.774 -1.2500 -1.9428 -1.0752
64123SOL    HW2 2300  10.615   1.149   0.679  1.0693  1.4994  2.0559
64124SOL     OW 2301   3.816   3.113   4.922 -0.1027  0.1398  0.1511
64124SOL    HW1 2302   3.841   3.169   4.994 -0.2217  0.4378 -0.0374
64124SOL    HW2 2303   3.897   3.097   4.874 -0.1852  0.7009 -0.1784
64125SOL     OW 2304  12.802   4.825   8.797  0.0254 -0.2783 -0.7677
64125SOL    HW1 2305  12.818   4.866   8.882  3.8367  0.6598 -1.7541
64125SOL    HW2 2306  12.813   4.895   8.733  1.5800 -1.7300 -2.2085
64126SOL     OW 2307  12.159   7.056  12.314 -0.4539 -0.9112  0.2302
64126SOL    HW1 2308  12.141   6.963  12.307 -0.4092 -0.7822 -2.3586
64126SOL    HW2 2309  12.106   7.097  12.246  2.9206  0.3911 -1.8646
64127SOL     OW 2310   9.694  12.504   6.487  0.2220  0.2445 -0.6323
64127SOL    HW1 2311   9.615  12.472   6.530  0.4131 -0.3625 -0.7200
64127SOL    HW2 2312   9.728  12.571   6.546  0.5800 -0.7035  0.2641
64128SOL     OW 2313  10.509   7.980   3.874  0.5260  0.0758  0.1174
64128SOL    HW1 2314  10.481   7.918   3.807  0.2475  1.1587 -0.8101
64128SOL    HW2 2315  10.604   7.990   3.860  1.2367 -2.4603  2.2988
64129SOL     OW 2316   1.309  10.437   0.664  0.3358  0.5807 -0.8789
64129SOL    HW1 2317   1.265  10.423   0.748  1.4455 -1.4366 -0.5627
64129SOL    HW2 2318   1.255  10.501   0.619 -1.4269  0.1894  0.5505
64130SOL     OW 2319   0.492   0.566   2.205  0.8679 -0.1946 -0.4918
64130SOL    HW1 2320   0.568   0.618   2.233  1.0049 -1.4978  1.9000
64130SOL    HW2 2321   0.460   0.610   2.126  1.3679  3.1064  0.9456
64131SOL     OW 2322  12.389   9.288   5.748 -0.1858 -0.7039 -0.3913
64131SOL    HW1 2323  12.439   9.222   5.797 -0.9168 -0.9451  0.0432
64131SOL    HW2 2324  12.400   9.263   5.656 -0.6149 -1.5479 -0.2179
64132SOL     OW 2325   5.436  10.966   4.907  0.1160 -0.2476  0.0393
64132SOL    HW1 2326   5.467  10.992   4.994  0.6317  1.6753 -0.6735
64132SOL    HW2 2327   5.395  10.880   4.921 -2.0476  1.0543  2.6296
64133SOL     OW 2328   5.758   8.866   2.140 -0.4236 -0.4421  0.8476
64133SOL    HW1 2329   5.786   8.835   2.226  3.8273  0.2581 -0.0853
64133SOL    HW2 2330   5.838   8.870   2.088 -2.4988  1.0361 -2.6000
64134SOL     OW 2331   6.279  10.573  10.266 -0.0539  0.2444  0.1170
64134SOL    HW1 2332   6.329  10.606  10.192 -3.0592  3.2582 -0.8502
64134SOL    HW2 2333   6.278  10.645  10.329  0.1386 -1.2381  1.9171
64135SOL     OW 2334  12.840   3.656  12.857 -0.0072  0.1810 -0.2137
64135SOL    HW1 2335  12.886   3.739  12.868  1.0365 -0.4273  0.1412
64135SOL    HW2 2336  12.808   3.658  12.767  0.2334  0.8533 -0.2921
64136SOL     OW 2337  11.383   3.108   1.036 -0.4338 -0.1143  0.1071
64136SOL    HW1 2338  11.338   3.127   0.954  0.6312 -0.3370 -0.5608
64136SOL    HW2 2339  11.454   3.049   1.011  0.6348  0.7438  0.9933
64137SOL     OW 2340  12.293   0.859   9.890 -0.2090  0.0189 -0.3811
64137SOL    HW1 2341  12.236   0.862   9.813 -0.4740 -0.9014 -0.2330
64137SOL    HW2 2342  12.253   0.795   9.948  0.2919  0.2918  0.2900
64138SOL     OW 2343   4.715   6.058   7.197 -0.5923  0.0383 -0.4161
64138SOL    HW1 2344   4.669   5.982   7.234 -0.0642  0.7767  1.8763
64138SOL    HW2 2345   4.645   6.120   7.175 -0.9571 -0.6958 -1.4504
64139SOL     OW 2346   8.853   4.852   3.701 -0.1746 -0.0900 -0.3205
64139SOL    HW1 2347   8.911   4.910   3.653 -0.1351  0.1628  0.0316
64139SOL    HW2 2348   8.906   4.775   3.720  0.1207  0.2336  0.1974
64140SOL     OW 2349   8.662   7.662   9.843 -0.1987 -0.5573 -0.5295
64140SOL    HW1 2350   8.664   7.755   9.866 -0.3527 -0.7091  0.1022
64140SOL    HW2 2351   8.572   7.635   9.862 -0.0240 -0.9538 -0.2481
64141SOL     OW 2352  10.425  11.867   6.376 -0.0512  0.5388 -0.4630
64141SOL    HW1 2353  10.369  11.794   6.346 -0.6541  1.2464 -1.1037
64141SOL    HW2 2354  10.397  11.942   6.324 -1.4549  1.9828  2.1646
64142SOL     OW 2355   3.219   1.930   9.079 -0.3214  0.0074 -0.3974
64142SOL    HW1 2356   3.229   1.837   9.061 -1.5014  0.3511 -3.6589
64142SOL    HW2 2357   3.142   1.956   9.027 -1.3817  2.4158  2.1006
64143SOL     OW 2358   0.901   5.766   3.747 -0.1936 -0.1771 -0.0916
64143SOL    HW1 2359   0.900   5.776   3.842  1.9962  1.5639 -0.1909
64143SOL    HW2 2360   0.826   5.817   3.716 -0.3456  0.0414  0.6285
64144SOL     OW 2361  12.071   5.672   9.276  0.7325 -0.5143  0.6635
64144SOL    HW1 2362  12.000   5.618   9.241  0.1168  1.0679 -0.6742
64144SOL    HW2 2363  12.075   5.649   9.369 -0.1431 -2.1134  0.3524
64145SOL     OW 2364   2.807   8.022  10.056 -0.0739 -0.0462 -0.0266
64145SOL    HW1 2365   2.746   8.096  10.053  0.2932  0.3477  1.3294
64145SOL    HW2 2366   2.862   8.033   9.978 -0.7374  0.4692 -0.4366
64146SOL     OW 2367  10.728   5.051   3.044  0.1223 -0.2805  0.1717
64146SOL    HW1 2368  10.770   5.094   3.118 -0.2357 -0.1359  0.2946
64146SOL    HW2 2369  10.680   5.121   3.000 -1.1468 -0.6872  0.8528
64147SOL     OW 2370  11.223  11.655   4.003  0.1761  0.5045  0.1391
64147SOL    HW1 2371  11.145  11.648   4.058  0.7895 -0.4818  0.9098
64147SOL    HW2 2372  11.253  11.745   4.016 -1.2724  1.1470 -0.7959
64148SOL     OW 2373  12.737   2.090   7.460  0.1361  0.3430 -0.4993
64148SOL    HW1 2374  12.808   2.046   7.507  0.5495 -0.4715 -1.8247
64148SOL    HW2 2375  12.782   2.144   7.395 -0.4163  1.6160  0.1544
64149SOL     OW 2376  10.742  11.376   6.481 -0.4475 -0.0887 -0.2962
64149SOL    HW1 2377  10.740  11.459   6.530  1.1956  0.0002 -0.3129
64149SOL    HW2 2378  10.748  11.403   6.389  0.9999 -0.1840 -0.2515
64150SOL     OW 2379  11.242  12.836   2.532  0.8803 -0.0346  0.1107
64150SOL    HW1 2380  11.147  12.835   2.519  1.0986  0.6997 -2.0567
64150SOL    HW2 2381  11.258  12.916   2.582  0.2404 -1.2206  2.3517
64151SOL     OW 2382   5.667  11.706   1.627  0.1759 -0.3053 -0.4493
64151SOL    HW1 2383   5.586  11.746   1.658  0.2872  0.5737 -1.2473
64151SOL    HW2 2384   5.722  11.780   1.601 -0.0268 -0.9580 -3.0008
64152SOL     OW 2385   9.705   8.028   3.373 -0.0847  0.4637  0.0701
64152SOL    HW1 2386   9.612   8.039   3.351  0.2278 -0.9044 -2.3278
64152SOL    HW2 2387   9.739   7.969   3.305  2.3570  0.2103  1.3895
64153SOL     OW 2388   5.635  11.926   3.548 -0.3434 -0.0878  0.2649
64153SOL    HW1 2389   5.592  11.844   3.571 -0.0277 -0.3548 -0.0845
64153SOL    HW2 2390   5.685  11.906   3.469 -0.8052  0.6203 -0.2241
64154SOL     OW 2391   3.033   8.286   5.571 -0.0044 -0.2611 -0.2755
64154SOL    HW1 2392   3.012   8.379   5.580 -0.8764 -0.5016  0.3514
64154SOL    HW2 2393   3.045   8.273   5.477  0.5246  0.5589 -0.3308
64155SOL     OW 2394   5.629  12.142   0.673 -0.4294 -0.5988  0.1479
64155SOL    HW1 2395   5.685  12.207   0.632 -0.5905 -0.5198  0.0505
64155SOL    HW2 2396   5.643  12.062   0.622 -1.1537 -0.3201 -0.5062
64156SOL     OW 2397   9.780   0.437   5.940 -0.0782  0.1264 -0.1211
64156SOL    HW1 2398   9.718   0.389   5.995 -0.4609  0.6893 -0.0512
64156SOL    HW2 2399   9.769   0.401   5.853 -0.5677  0.2863 -0.1249
64157SOL     OW 2400   6.145  10.635  12.089  0.4234  0.2872 -0.1455
64157SOL    HW1 2401   6.156  10.543  12.113  0.1439  0.3058  0.0628
64157SOL    HW2 2402   6.076  10.635  12.022 -0.2636  0.4293  0.5414
64158SOL     OW 2403   6.148   2.484   9.904  0.2013  0.0534 -0.7857
64158SOL    HW1 2404   6.101   2.450   9.981  1.0190  1.8366  0.5663
64158SOL    HW2 2405   6.111   2.436   9.830 -1.7774 -0.5516  0.5320
64159SOL     OW 2406   5.421  10.858   7.555 -0.1744  0.0475  0.5925
64159SOL    HW1 2407   5.383  10.942   7.529  1.2525  0.7462  0.6747
64159SOL    HW2 2408   5.348  10.796   7.549 -1.2868  1.3063  0.6658
64160SOL     OW 2409  10.261  10.687   5.957  0.2394  0.7138  0.3617
64160SOL    HW1 2410  10.271  10.682   5.862  2.0020  0.7343  0.5145
64160SOL    HW2 2411  10.303  10.770   5.980  0.9416  0.1240  1.2674
64161SOL     OW 2412   7.749   6.686   0.623  0.1738 -0.1001  0.6196
64161SOL    HW1 2413   7.745   6.687   0.719 -0.5916 -1.5366  0.6296
64161SOL    HW2 2414   7.686   6.620   0.597  0.3363  0.3006 -0.8995
64162SOL     OW 2415  11.310   1.238  11.707  0.0828  0.2629 -0.2504
64162SOL    HW1 2416  11.404   1.234  11.724 -0.1475  1.3181  1.4952
64162SOL    HW2 2417  11.280   1.148  11.722  0.8658 -0.2401 -1.4798
64163SOL     OW 2418   6.070   5.927   7.982 -0.6066  0.3890  0.3072
64163SOL    HW1 2419   5.994   5.959   7.933 -1.5747  0.1638  1.6117
64163SOL    HW2 2420   6.097   5.848   7.936 -0.2744  1.2194 -0.9807
64164SOL     OW 2421  11.125   5.276  12.612  0.3445  0.0735  0.4589
64164SOL    HW1 2422  11.196   5.291  12.549 -0.1190  1.0411  0.1536
64164SOL    HW2 2423  11.087   5.362  12.626 -2.1096 -0.6683 -0.9804
64165SOL     OW 2424   2.434   1.819   3.194 -0.2573 -0.3088  0.2856
64165SOL    HW1 2425   2.415   1.901   3.147  1.2737  0.1311  0.3593
64165SOL    HW2 2426   2.402   1.835   3.282  0.9484  0.6532  0.5856
64166SOL     OW 2427   4.584   8.103  11.113  0.4578  1.1307 -0.1946
64166SOL    HW1 2428   4.659   8.057  11.074 -0.9638 -0.2273 -1.4875
64166SOL    HW2 2429   4.559   8.047  11.187 -1.1305 -0.1717 -1.6295
64167SOL     OW 2430   5.180  12.889   2.326  0.2123 -0.4136  0.4553
64167SOL    HW1 2431   5.245  12.872   2.258 -0.0730 -4.1680  0.8722
64167SOL    HW2 2432   5.198  12.978   2.355  0.5085  1.3559 -4.2449
64168SOL     OW 2433   7.685   8.552   0.050 -0.5361 -0.0764  0.2110
64168SOL    HW1 2434   7.774   8.570   0.081 -0.4362 -0.0279 -0.1043
64168SOL    HW2 2435   7.646   8.497   0.119 -0.5110  0.5134  0.7037
64169SOL     OW 2436   6.691   3.759   1.456 -0.2547  0.0683  0.6040
64169SOL    HW1 2437   6.683   3.850   1.427  0.7310 -0.3496 -1.1036
64169SOL    HW2 2438   6.604   3.737   1.491 -1.1779  1.0012 -1.0035
64170SOL     OW 2439   7.633  13.175   0.040  0.1061 -0.1505 -0.0321
64170SOL    HW1 2440   7.674  13.262   0.039  1.4986 -0.7741  0.0047
64170SOL    HW2 2441   7.707  13.114   0.031 -0.8508 -1.3299 -0.1162
64171SOL     OW 2442   9.022   7.866   9.650 -0.3350  0.3609  0.2101
64171SOL    HW1 2443   8.979   7.950   9.670 -0.0625  0.7673 -0.8423
64171SOL    HW2 2444   9.069   7.844   9.730  0.3052  1.6718  0.2356
64172SOL     OW 2445   7.296   9.285   8.309 -0.0246  0.5438 -0.1588
64172SOL    HW1 2446   7.316   9.191   8.304 -1.3983  0.1467  1.1819
64172SOL    HW2 2447   7.375   9.324   8.346  0.0096 -0.3183  0.7194
64173SOL     OW 2448   9.045   4.412   2.020 -0.2740  0.0304 -0.1962
64173SOL    HW1 2449   9.080   4.496   1.989 -1.0398  0.2416 -0.5045
64173SOL    HW2 2450   8.991   4.435   2.095 -0.5274 -0.1806 -0.3141
64174SOL     OW 2451  12.715   8.784   8.737  0.5751 -0.6265 -0.1138
64174SOL    HW1 2452  12.642   8.834   8.773  2.1076  1.5728  0.1120
64174SOL    HW2 2453  12.761   8.845   8.680  0.9006 -2.6675 -2.2032
64175SOL     OW 2454   5.354   7.895   4.399 -0.2993 -0.1064 -0.3828
64175SOL    HW1 2455   5.435   7.907   4.448 -0.6073 -1.7289  0.5605
64175SOL    HW2 2456   5.352   7.803   4.376 -1.9911 -0.1525 -0.1945
64176SOL     OW 2457   7.270  10.829   4.937 -0.1369 -0.3932  0.2224
64176SOL    HW1 2458   7.194  10.789   4.979 -0.8538  1.2189  0.5445
64176SOL    HW2 2459   7.238  10.859   4.852  0.6342 -1.3128 -0.4140
64177SOL     OW 2460   0.579  12.100   7.426  0.3904 -0.2928  0.5849
64177SOL    HW1 2461   0.616  12.013   7.414 -1.3092 -0.8779 -0.9635
64177SOL    HW2 2462   0.523  12.092   7.503  2.2544  0.2014  2.0475
64178SOL     OW 2463   8.523  11.745   0.245 -0.1936  0.0507  0.3029
64178SOL    HW1 2464   8.536  11.825   0.194 -1.6549 -0.0671 -0.3121
64178SOL    HW2 2465   8.611  11.714   0.264  0.4190  0.2732 -1.8872
64179SOL     OW 2466   2.933   9.728  12.503  0.0186  1.1023  0.2440
64179SOL    HW1 2467   2.911   9.635  12.492  0.6411  0.9398  0.3237
64179SOL    HW2 2468   2.954   9.758  12.414  1.3799  0.7494  0.4241
64180SOL     OW 2469   9.798   6.634   6.270 -0.3368  0.4255 -0.4469
64180SOL    HW1 2470   9.873   6.617   6.326 -0.8957  0.0109  0.1908
64180SOL    HW2 2471   9.728   6.578   6.305 -1.0170  0.9831 -0.8802
64181SOL     OW 2472  11.281   1.062   2.585 -0.5898  0.0691 -0.2394
64181SOL    HW1 2473  11.276   1.125   2.657 -0.3742  0.6569 -0.7220
64181SOL    HW2 2474  11.239   1.107   2.511 -1.1156 -0.6550 -0.3968
64182SOL     OW 2475   2.972   1.296   1.122  0.1158 -0.1426  0.5093
64182SOL    HW1 2476   2.929   1.219   1.084  0.8445 -0.5244  0.4353
64182SOL    HW2 2477   2.956   1.366   1.060 -0.4083 -0.2765  0.4885
64183SOL     OW 2478   0.636  12.158   4.726  0.0188 -0.0510 -0.1427
64183SOL    HW1 2479   0.573  12.186   4.659  0.5745  2.2039  0.2048
64183SOL    HW2 2480   0.607  12.070   4.751 -2.0754  0.3296 -1.0556
64184SOL     OW 2481   2.679   4.111   9.779 -0.4675 -0.1180  0.1958
64184SOL    HW1 2482   2.662   4.052   9.705 -0.1311  0.2911 -0.2189
64184SOL    HW2 2483   2.753   4.070   9.825  0.1705  0.2768 -0.4459
64185SOL     OW 2484   1.072   4.586   3.537 -0.0204  0.3693 -0.0766
64185SOL    HW1 2485   1.151   4.640   3.534 -0.7903  1.6124  1.0496
64185SOL    HW2 2486   1.097   4.505   3.493  1.4059  1.3349 -1.1301
64186SOL     OW 2487  11.515   0.733   8.783 -0.2402  0.6096 -0.3325
64186SOL    HW1 2488  11.498   0.648   8.743  0.0404  0.7184 -0.6915
64186SOL    HW2 2489  11.605   0.754   8.757  0.0681  0.5323  0.6274
64187SOL     OW 2490   3.651   1.025   8.011  0.0524 -0.4260 -0.1001
64187SOL    HW1 2491   3.713   1.014   8.083  0.9944 -0.4269 -0.8878
64187SOL    HW2 2492   3.571   1.059   8.053  0.5805 -0.4201  0.9314
64188SOL     OW 2493   3.489  10.569   4.860  0.2718 -0.0076  0.0108
64188SOL    HW1 2494   3.502  10.493   4.918  3.0322  0.3442  0.0043
64188SOL    HW2 2495   3.501  10.645   4.917 -0.7388  0.4092 -0.3201
64189SOL     OW 2496   7.364  13.307   6.774  0.0154  0.0321  0.0826
64189SOL    HW1 2497   7.339  13.398   6.764  0.6061  0.2369  0.4612
64189SOL    HW2 2498   7.397  13.300   6.863  1.1067 -0.2668 -0.3239
64190SOL     OW 2499   7.175  10.795   7.971  0.1298  0.1452 -0.3950
64190SOL    HW1 2500   7.103  10.749   8.015  0.1679 -1.4024 -1.8667
64190SOL    HW2 2501   7.178  10.757   7.884  1.5296  1.5407 -0.9933
64191SOL     OW 2502   4.824   7.258   3.630 -0.2574  0.2964  0.2789
64191SOL    HW1 2503   4.753   7.252   3.693 -0.1134 -0.5385  0.3830
64191SOL    HW2 2504   4.845   7.351   3.624  0.4860  0.2989  2.3036
64192SOL     OW 2505   6.191   1.380   5.063  0.2230  0.1823 -0.7435
64192SOL    HW1 2506   6.258   1.446   5.081  0.7728 -0.4915 -0.2430
64192SOL    HW2 2507   6.108   1.427   5.073  0.5553  0.4781  1.0612
64193SOL     OW 2508  11.032   5.498  10.018  0.3083 -0.1816  0.7921
64193SOL    HW1 2509  10.996   5.550   9.947  1.5448  0.9406  0.9507
64193SOL    HW2 2510  11.012   5.548  10.097 -1.3046 -1.5505  1.3173
64194SOL     OW 2511   8.474  12.865   4.074 -0.1930  0.5123  0.1155
64194SOL    HW1 2512   8.505  12.955   4.088 -2.0059  1.0864  0.7063
64194SOL    HW2 2513   8.382  12.867   4.100 -0.5182 -1.3138 -0.7442
64195SOL     OW 2514  12.988   1.833  10.349 -0.2557 -0.0854  0.0616
64195SOL    HW1 2515  12.932   1.818  10.273 -1.6856 -0.6130  1.1794
64195SOL    HW2 2516  13.050   1.901  10.320 -1.2063  0.2295 -1.3404
64196SOL     OW 2517   0.305  12.895  11.837  0.1764  0.7734 -0.8955
64196SOL    HW1 2518   0.254  12.964  11.879 -1.2668 -1.4004  1.2305
64196SOL    HW2 2519   0.393  12.905  11.874 -0.2079  1.0638 -0.0131
64197SOL     OW 2520   9.912   4.917   0.390 -0.2534  0.4097  0.4340
64197SOL    HW1 2521   9.976   4.976   0.431  1.8381 -2.3845  1.4697
64197SOL    HW2 2522   9.856   4.890   0.462 -0.0981 -0.2135  0.3207
64198SOL     OW 2523   1.395   4.523  12.324 -0.3418  0.0435 -0.4483
64198SOL    HW1 2524   1.460   4.510  12.255 -0.1877 -1.5364 -0.0353
64198SOL    HW2 2525   1.372   4.616  12.317  1.5560  0.5389 -0.9592
64199SOL     OW 2526   3.548   8.949   0.368 -0.2440 -0.2265 -0.1090
64199SOL    HW1 2527   3.480   8.915   0.311  0.9692 -0.1510 -1.6910
64199SOL    HW2 2528   3.630   8.913   0.332  0.5706 -0.2802  1.6786
64200SOL     OW 2529   5.167  10.754   9.481 -0.1520 -0.3812 -0.1307
64200SOL    HW1 2530   5.180  10.829   9.423 -1.5972  0.4681  0.5955
64200SOL    HW2 2531   5.125  10.688   9.425  1.2602 -0.7449 -0.8073
64201SOL     OW 2532   1.619   5.130   3.694 -0.4712 -0.2690  0.0773
64201SOL    HW1 2533   1.607   5.035   3.688 -2.6260 -0.0910  0.7584
64201SOL    HW2 2534   1.692   5.141   3.755  0.1261 -1.4838 -0.3805
64202SOL     OW 2535  12.284   7.131  12.760  0.3517  0.3931 -0.1637
64202SOL    HW1 2536  12.314   7.045  12.789 -0.3165  0.6122  1.2091
64202SOL    HW2 2537  12.364   7.185  12.758  0.4890  0.2418  0.8214
64203SOL     OW 2538   9.788   2.276   2.429  0.5503  0.4538  0.0202
64203SOL    HW1 2539   9.846   2.347   2.459  1.2401 -0.0467 -0.0969
64203SOL    HW2 2540   9.703   2.297   2.467  1.1384  0.4314  1.4074
64204SOL     OW 2541  10.263   8.658   8.962  0.5767 -0.1510  0.5558
64204SOL    HW1 2542  10.172   8.644   8.988 -0.1165  1.6360 -0.6651
64204SOL    HW2 2543  10.273   8.754   8.960  1.7820 -0.2545 -1.5333
64205SOL     OW 2544   3.563  13.125   9.110 -0.0097  0.1119 -0.0986
64205SOL    HW1 2545   3.507  13.161   9.042  0.7762  0.6623 -0.4644
64205SOL    HW2 2546   3.506  13.066   9.160 -0.6123 -0.2479 -1.1852
64206SOL     OW 2547   2.505   1.173   6.613  0.1450  0.2721 -0.3910
64206SOL    HW1 2548   2.498   1.095   6.669 -0.0835  1.6756  1.6620
64206SOL    HW2 2549   2.416   1.209   6.612  0.4174  0.9494 -0.6159
64207SOL     OW 2550   1.503   4.754   7.111  0.3808 -0.1121  0.5049
64207SOL    HW1 2551   1.521   4.686   7.046  0.3519 -1.4387  1.8350
64207SOL    HW2 2552   1.587   4.768   7.155  0.0465 -0.3722  1.2355
64208SOL     OW 2553   4.041   4.697  13.073 -0.3142 -0.0511  0.0970
64208SOL    HW1 2554   4.082   4.743  12.999  0.0898 -3.4873 -2.0247
64208SOL    HW2 2555   4.094   4.723  13.149  2.4235 -0.0770 -1.6483
64209SOL     OW 2556   3.418   6.410   8.318 -0.5386  0.0576  0.2921
64209SOL    HW1 2557   3.476   6.471   8.365 -1.2702  1.1601 -0.1823
64209SOL    HW2 2558   3.407   6.450   8.231  0.6201 -1.8263 -0.8015
64210SOL     OW 2559   8.056  11.335   5.839 -0.0302  0.0001 -0.9938
64210SOL    HW1 2560   8.134  11.280   5.845  0.8846  1.2138 -1.2536
64210SOL    HW2 2561   8.042  11.347   5.745 -0.2166  0.2248 -0.9391
64211SOL     OW 2562  10.612   8.945   2.822  0.1317 -0.2402  0.6824
64211SOL    HW1 2563  10.577   8.928   2.734 -2.1608 -0.9050  1.6202
64211SOL    HW2 2564  10.597   8.862   2.869  0.8469  0.2650  1.8336
64212SOL     OW 2565  10.135   5.946   7.585  0.4544 -0.2099  0.1249
64212SOL    HW1 2566  10.101   5.965   7.498  1.3898 -1.6224 -0.5946
64212SOL    HW2 2567  10.193   5.871   7.572  0.1787 -0.8179  2.0658
64213SOL     OW 2568   1.018   9.501   7.867  0.1028  0.0076 -0.5094
64213SOL    HW1 2569   1.046   9.591   7.849 -0.3395  0.3032  0.2163
64213SOL    HW2 2570   1.069   9.447   7.806  2.0758  0.5309  0.5966
64214SOL     OW 2571   7.433  10.787   8.101  0.1089  0.5460  0.4477
64214SOL    HW1 2572   7.355  10.775   8.047  0.5961 -1.6099  0.1564
64214SOL    HW2 2573   7.481  10.857   8.057 -0.5421  0.2954 -0.7061
64215SOL     OW 2574   7.339   4.669  11.734 -0.5884 -0.1084 -0.0583
64215SOL    HW1 2575   7.394   4.746  11.747  1.4796 -1.4998  0.1073
64215SOL    HW2 2576   7.378   4.603  11.793 -0.8105 -1.9386 -1.8522
64216SOL     OW 2577  10.408   7.059   3.182  0.5245  0.3115  0.5675
64216SOL    HW1 2578  10.383   7.008   3.260  1.2624 -0.0091  0.6025
64216SOL    HW2 2579  10.328   7.105   3.157 -0.3798 -1.4299  0.1101
64217SOL     OW 2580  11.709   9.814   0.731  0.2961  0.1658 -0.1707
64217SOL    HW1 2581  11.743   9.867   0.803  1.9861 -1.2419  0.1561
64217SOL    HW2 2582  11.745   9.726   0.747 -1.5234 -0.8407 -1.2484
64218SOL     OW 2583   8.360  11.703   8.887  0.1745  0.5837 -0.3383
64218SOL    HW1 2584   8.410  11.642   8.834  0.2177  1.2483 -1.0857
64218SOL    HW2 2585   8.425  11.748   8.940  0.2167  0.4774 -0.2977
64219SOL     OW 2586   9.881  11.229   8.796 -0.1831  0.1040 -0.3916
64219SOL    HW1 2587   9.822  11.169   8.841 -0.7641  1.7295  1.1247
64219SOL    HW2 2588   9.823  11.288   8.748  0.3921 -0.7079 -2.2134
64220SOL     OW 2589  12.846   9.597  10.325 -0.6975  0.8281 -0.2827
64220SOL    HW1 2590  12.828   9.663  10.392 -2.7826  0.0990 -0.0430
64220SOL    HW2 2591  12.856   9.516  10.374  1.4253  0.8355 -0.6108
64221SOL     OW 2592   8.589   9.432  11.897 -0.2751  0.4867  0.1667
64221SOL    HW1 2593   8.670   9.391  11.865  0.7310  1.7396  1.0398
64221SOL    HW2 2594   8.616   9.482  11.974 -1.4761  2.6828 -0.7724
64222SOL     OW 2595   0.478   6.208  11.872 -0.0046 -0.0287 -0.4113
64222SOL    HW1 2596   0.402   6.199  11.930  0.4020 -2.1255 -0.1392
64222SOL    HW2 2597   0.553   6.209  11.931  0.2371  1.9470 -0.6862
64223SOL     OW 2598   2.078   4.735   5.915  0.4383 -0.0550 -0.1588
64223SOL    HW1 2599   2.053   4.676   5.844  1.3399 -2.2044  1.2012
64223SOL    HW2 2600   2.044   4.693   5.994 -2.2092  3.1920  0.6720
64224SOL     OW 2601   4.432  10.937  11.366 -0.4594  0.0156 -0.3660
64224SOL    HW1 2602   4.459  10.849  11.393 -2.0558 -0.2146  0.5826
64224SOL    HW2 2603   4.337  10.935  11.370 -0.5105  2.0019  0.3509
64225SOL     OW 2604   5.418   1.756   9.068  0.4243  0.3156 -0.3940
64225SOL    HW1 2605   5.460   1.696   9.130 -0.2916 -0.5431 -0.7249
64225SOL    HW2 2606   5.469   1.746   8.987 -0.9022 -1.3902 -1.0670
64226SOL     OW 2607   1.570   9.463  13.180 -0.2221  0.1854  0.1607
64226SOL    HW1 2608   1.585   9.455  13.086 -0.0082 -1.2942  0.2916
64226SOL    HW2 2609   1.626   9.396  13.219 -0.4532  0.6454  1.3293
64227SOL     OW 2610   1.104  10.736   9.787 -0.1477  0.3791  0.0666
64227SOL    HW1 2611   1.126  10.773   9.873 -0.5167  1.7535 -0.4125
64227SOL    HW2 2612   1.063  10.652   9.808 -0.1314  0.6420  1.2361
64228SOL     OW 2613  12.373   7.382   9.224  0.2026 -0.0226  0.0451
64228SOL    HW1 2614  12.347   7.314   9.287 -0.2073 -0.8406 -0.9691
64228SOL    HW2 2615  12.293   7.432   9.208 -0.2654 -1.1624 -1.4123
64229SOL     OW 2616   0.534  10.030   5.063  0.1320 -0.9836  0.3493
64229SOL    HW1 2617   0.485  10.059   4.986  0.4029 -1.4168  0.0104
64229SOL    HW2 2618   0.578  10.110   5.095  0.9406 -1.0196 -0.6239
64230SOL     OW 2619   1.472   9.031   6.341 -0.6002 -0.0978  0.5845
64230SOL    HW1 2620   1.470   9.119   6.303  0.0552  0.4515  1.7586
64230SOL    HW2 2621   1.479   8.973   6.266 -0.3340  0.8989 -0.1889
64231SOL     OW 2622  10.066   4.235   8.274  0.2890  0.2155  0.1526
64231SOL    HW1 2623  10.116   4.172   8.326 -0.1690  0.2075  0.5909
64231SOL    HW2 2624  10.069   4.200   8.185 -0.0919 -0.5248  0.4195
64232SOL     OW 2625   0.762   6.800   2.389 -0.7277  0.0592  0.4498
64232SOL    HW1 2626   0.794   6.888   2.371 -0.1340  0.0849  1.5439
64232SOL    HW2 2627   0.841   6.746   2.392 -1.2009 -0.9823 -2.3809
64233SOL     OW 2628   2.536   8.990   6.373  0.4467  0.2328  0.1213
64233SOL    HW1 2629   2.624   8.958   6.389 -0.0078 -1.1208  0.0419
64233SOL    HW2 2630   2.518   8.967   6.282  0.1827  0.9305 -0.0083
64234SOL     OW 2631   2.045  12.953   4.721  1.2388 -0.3002 -0.2700
64234SOL    HW1 2632   1.964  12.924   4.679  0.7948 -0.4907  0.6767
64234SOL    HW2 2633   2.054  13.045   4.696  0.0723  0.0730  0.5611
64235SOL     OW 2634   4.328   3.109   6.291  0.2243 -0.2042  0.1996
64235SOL    HW1 2635   4.332   3.204   6.284 -1.5902 -0.0249  0.8860
64235SOL    HW2 2636   4.375   3.088   6.371 -0.2921  0.2428  0.6286
64236SOL     OW 2637   5.767  12.179   8.155 -0.1633 -0.0442  0.4689
64236SOL    HW1 2638   5.680  12.184   8.115  0.7437  0.7039 -1.5409
64236SOL    HW2 2639   5.776  12.087   8.181 -0.7458 -0.6453 -1.3158
64237SOL     OW 2640   6.741   8.354   1.223 -0.2636 -0.3332 -0.3819
64237SOL    HW1 2641   6.825   8.400   1.225 -0.3427 -0.1870 -0.3464
64237SOL    HW2 2642   6.733   8.321   1.134 -0.2974 -0.1036 -0.4655
64238SOL     OW 2643   0.274   4.094   9.539  0.2893 -0.0573  0.1438
64238SOL    HW1 2644   0.251   4.183   9.568  0.7250  1.0073 -2.4660
64238SOL    HW2 2645   0.238   4.037   9.606  0.8230  2.1153  2.4363
64239SOL     OW 2646  10.297   5.727   8.086  0.5149  0.1676 -0.1583
64239SOL    HW1 2647  10.231   5.768   8.031  0.6676  1.7401  0.7807
64239SOL    HW2 2648  10.377   5.731   8.034  0.0128 -1.3789 -1.1328
64240SOL     OW 2649  12.292   1.186   9.071  0.0803  0.0317 -0.0341
64240SOL    HW1 2650  12.203   1.209   9.097  0.0074  0.2193 -0.4355
64240SOL    HW2 2651  12.343   1.194   9.151 -0.0264  1.1890 -0.0604
64241SOL     OW 2652  10.244   9.307   9.023 -0.3448 -0.2784 -0.4578
64241SOL    HW1 2653  10.285   9.393   9.028  0.6587 -0.7852  0.4468
64241SOL    HW2 2654  10.204   9.294   9.109 -1.7458 -0.1456 -1.0519
64242SOL     OW 2655  10.133   0.431   0.924 -0.6965 -0.3160 -0.0719
64242SOL    HW1 2656  10.069   0.446   0.993  0.5048 -2.5712  1.6789
64242SOL    HW2 2657  10.176   0.516   0.911  0.2413 -0.1471  3.2863
64243SOL     OW 2658  11.283   3.903  11.796 -0.3280 -0.5544  0.1840
64243SOL    HW1 2659  11.203   3.862  11.762 -0.5126  0.8348 -1.1686
64243SOL    HW2 2660  11.353   3.844  11.768 -0.7022 -0.6880 -0.5109
64244SOL     OW 2661  11.234   9.556  10.874 -0.3332 -0.2209  0.1540
64244SOL    HW1 2662  11.273   9.577  10.959 -0.2662 -2.0343  0.6025
64244SOL    HW2 2663  11.302   9.578  10.811 -0.3669  1.1043  0.5547
64245SOL     OW 2664   5.846   4.490   3.821 -0.0517  0.0699  0.4188
64245SOL    HW1 2665   5.857   4.410   3.770 -0.6413 -1.0570  1.9665
64245SOL    HW2 2666   5.754   4.514   3.807  0.5118  1.3975 -1.2683
64246SOL     OW 2667  12.819   9.741   7.246 -0.1204 -0.3391  0.4090
64246SOL    HW1 2668  12.765   9.669   7.212  0.5778 -0.3061 -0.8287
64246SOL    HW2 2669  12.759   9.816   7.249 -0.2675 -0.3972 -0.5978
64247SOL     OW 2670  11.348  11.378  12.126 -0.0036 -0.1750 -0.1215
64247SOL    HW1 2671  11.259  11.378  12.093  0.1666  0.1069 -0.5805
64247SOL    HW2 2672  11.352  11.301  12.183 -0.1104 -1.0363 -1.2488
64248SOL     OW 2673   9.250   4.593  11.110 -0.4010 -0.7039 -0.2928
64248SOL    HW1 2674   9.196   4.514  11.099 -1.3006 -0.0793 -0.5320
64248SOL    HW2 2675   9.278   4.590  11.202  0.2188 -1.6889 -0.5014
64249SOL     OW 2676   4.060  12.300  11.643  0.1186 -0.1112 -0.4739
64249SOL    HW1 2677   4.058  12.355  11.565  1.1634 -2.1851 -2.0716
64249SOL    HW2 2678   4.002  12.226  11.622 -0.6092 -0.0868  1.2645
64250SOL     OW 2679   2.063   6.751  11.139  0.0892  0.1826  0.2695
64250SOL    HW1 2680   2.064   6.846  11.150  0.1445  0.1970  0.1318
64250SOL    HW2 2681   2.143   6.720  11.180  0.9659  0.3578 -1.2513
64251SOL     OW 2682   3.660   5.473   8.175 -0.3643 -0.0589  0.8650
64251SOL    HW1 2683   3.669   5.380   8.194 -0.5100 -0.3882 -0.5714
64251SOL    HW2 2684   3.573   5.482   8.136  0.6265  0.2077 -1.4416
64252SOL     OW 2685   5.235  12.582  10.063  0.3689 -0.1067 -0.1561
64252SOL    HW1 2686   5.319  12.545  10.090 -0.7633 -1.8393  1.2786
64252SOL    HW2 2687   5.200  12.521   9.998 -0.3468 -0.1259  0.2282
64253SOL     OW 2688   1.907   1.498   2.902 -0.8096 -0.0640 -0.3582
64253SOL    HW1 2689   1.845   1.426   2.889  0.1830 -0.9504 -0.2522
64253SOL    HW2 2690   1.971   1.488   2.832  0.2874 -0.3195  0.6428
64254SOL     OW 2691  10.160   8.225   6.482  0.0597  0.2308 -0.2565
64254SOL    HW1 2692  10.123   8.259   6.563 -0.0231  0.9934 -0.6025
64254SOL    HW2 2693  10.088   8.232   6.419 -0.0310 -0.8200 -0.2782
64255SOL     OW 2694  11.442  13.038  11.915  0.4008 -0.7243 -0.1054
64255SOL    HW1 2695  11.404  13.117  11.876 -0.1521 -1.9152 -2.1132
64255SOL    HW2 2696  11.536  13.047  11.897  0.4422 -0.1967  0.3313
64256SOL     OW 2697   3.474   8.385   8.362  0.0149 -0.4003  0.0877
64256SOL    HW1 2698   3.467   8.412   8.271 -2.4673 -1.4962 -0.1367
64256SOL    HW2 2699   3.449   8.462   8.412 -1.5378 -0.6065 -0.3191
64257SOL     OW 2700  11.297   8.374   8.280 -0.2805 -0.2063 -0.2983
64257SOL    HW1 2701  11.317   8.299   8.336  0.5474  1.1595  1.3384
64257SOL    HW2 2702  11.233   8.425   8.330  0.5476  1.0999 -0.5292
64258SOL     OW 2703   3.521   9.645   5.853  0.4628  0.1439  0.0496
64258SOL    HW1 2704   3.575   9.692   5.917  1.2806  0.5279 -0.9028
64258SOL    HW2 2705   3.475   9.579   5.905 -0.8726  2.0883  1.4849
64259SOL     OW 2706   0.116   9.050  12.791 -0.1039  0.3029 -0.5444
64259SOL    HW1 2707   0.069   8.976  12.752 -0.9066  0.2001  0.5643
64259SOL    HW2 2708   0.047   9.111  12.816  0.4485  0.7421 -0.0757
64260SOL     OW 2709  12.560   3.410   9.918 -0.2802 -0.0372 -0.0353
64260SOL    HW1 2710  12.577   3.480   9.855 -1.2030  0.8466  0.6725
64260SOL    HW2 2711  12.632   3.348   9.905  0.9293  1.3555 -0.2205
64261SOL     OW 2712   0.014  10.599   5.462 -0.1894 -0.2988  0.7612
64261SOL    HW1 2713   0.002  10.507   5.484 -0.9528  0.3906  3.7888
64261SOL    HW2 2714  -0.074  10.637   5.473  0.3617  1.0029  0.8261
64262SOL     OW 2715  10.892   4.998  11.329  0.0716 -0.6879 -0.2844
64262SOL    HW1 2716  10.815   4.967  11.376 -1.1111  1.5416 -0.6030
64262SOL    HW2 2717  10.861   5.076  11.282  1.8125 -1.3619 -2.7400
64263SOL     OW 2718   7.687   8.027   5.877  0.2717  0.3235  0.3185
64263SOL    HW1 2719   7.680   8.118   5.848 -2.1353  0.0396 -0.2129
64263SOL    HW2 2720   7.656   8.028   5.968 -0.4660 -0.0412  0.0805
64264SOL     OW 2721   2.741   5.582  11.730 -0.5691  0.5105 -0.2299
64264SOL    HW1 2722   2.772   5.581  11.821 -1.0143 -0.2817 -0.0838
64264SOL    HW2 2723   2.666   5.523  11.729 -0.9558  1.0009 -0.9845
64265SOL     OW 2724   2.277   7.831   3.665 -0.2776  0.6196 -0.0475
64265SOL    HW1 2725   2.238   7.814   3.750 -0.0636 -0.0517 -0.0809
64265SOL    HW2 2726   2.221   7.898   3.625 -1.7661 -0.7490 -0.3539
64266SOL     OW 2727  11.323   3.747   2.555 -0.2452 -0.5458 -0.7802
64266SOL    HW1 2728  11.259   3.729   2.624  0.4661  0.8382  0.2800
64266SOL    HW2 2729  11.360   3.832   2.577  0.6378 -0.4585 -2.4048
64267SOL     OW 2730  12.363   9.331   1.905  0.3574 -0.2959 -0.3611
64267SOL    HW1 2731  12.391   9.304   1.992 -1.4414  0.4539  0.4940
64267SOL    HW2 2732  12.409   9.271   1.845  1.1713 -1.2025  1.1244
64268SOL     OW 2733   3.808   4.349  11.987  0.2942  0.3286 -0.3028
64268SOL    HW1 2734   3.894   4.344  11.946 -0.3473 -1.1956 -1.5578
64268SOL    HW2 2735   3.788   4.260  12.014 -1.8375  0.1391 -2.1782
64269SOL     OW 2736   9.725  11.554   7.517 -0.0683 -0.2621 -0.1579
64269SOL    HW1 2737   9.657  11.559   7.449 -1.4910 -3.8245  0.7990
64269SOL    HW2 2738   9.683  11.592   7.595  1.3051  3.1141 -0.8732
64270SOL     OW 2739   6.425  11.462  11.989  0.4011  0.1251  0.3048
64270SOL    HW1 2740   6.470  11.460  11.904  0.1158 -1.2481  0.1588
64270SOL    HW2 2741   6.481  11.410  12.047 -0.3351 -0.5169  0.4576
64271SOL     OW 2742   0.587  11.958   6.486 -0.2988 -0.1437  0.2067
64271SOL    HW1 2743   0.638  12.038   6.484 -0.8574  0.2311  0.7194
64271SOL    HW2 2744   0.621  11.906   6.413 -1.2581  1.3746 -1.4258
64272SOL     OW 2745   4.258   4.527   8.374 -0.6124  0.3362 -0.1876
64272SOL    HW1 2746   4.270   4.503   8.466 -1.7550  0.0613 -0.0941
64272SOL    HW2 2747   4.280   4.446   8.326  0.8486  0.7320 -0.2371
64273SOL     OW 2748   7.295   6.101   8.818 -0.3040 -0.2883 -0.2431
64273SOL    HW1 2749   7.291   6.070   8.908 -2.0874  0.5634  0.0019
64273SOL    HW2 2750   7.259   6.029   8.766  2.7736 -1.7319 -0.6350
64274SOL     OW 2751   6.965  11.844   1.002 -0.5427  0.5379 -0.1329
64274SOL    HW1 2752   7.055  11.859   0.973  0.1920 -0.9782  1.2135
64274SOL    HW2 2753   6.913  11.849   0.922  0.8984  0.2312 -1.1372
64275SOL     OW 2754  10.428   0.254   7.768  0.4166  0.1178  0.2624
64275SOL    HW1 2755  10.471   0.199   7.701 -0.5677 -0.8116  0.3615
64275SOL    HW2 2756  10.340   0.267   7.734 -0.0442 -0.2256  1.2927
64276SOL     OW 2757  10.465  12.958   8.454 -0.2561  0.2687 -0.4753
64276SOL    HW1 2758  10.530  12.977   8.387 -1.4074  1.7044 -1.2227
64276SOL    HW2 2759  10.496  13.005   8.532  0.2610 -0.1325 -0.4297
64277SOL     OW 2760   7.752   4.284   0.594  0.0639  0.2622  0.2942
64277SOL    HW1 2761   7.688   4.213   0.592 -0.5891  0.8471  0.0325
64277SOL    HW2 2762   7.737   4.327   0.678  1.3089 -0.6555  1.0205
64278SOL     OW 2763   8.279  13.069  12.095  0.1179  0.1014  0.3109
64278SOL    HW1 2764   8.214  13.133  12.065  2.0733  2.1783  0.2276
64278SOL    HW2 2765   8.291  13.011  12.021 -0.4844  0.6501 -0.2342
64279SOL     OW 2766   5.540   3.356   8.984  0.1164  0.3235 -0.1313
64279SOL    HW1 2767   5.583   3.300   8.919  0.6062  1.1065 -0.4949
64279SOL    HW2 2768   5.564   3.317   9.069 -0.6495 -0.7865 -0.4138
64280SOL     OW 2769   9.589   3.678   6.116 -0.1457 -0.5839  0.0767
64280SOL    HW1 2770   9.606   3.606   6.055 -0.1215 -0.3137 -0.2358
64280SOL    HW2 2771   9.656   3.743   6.094  1.1677 -1.3034  1.7176
64281SOL     OW 2772   9.812   3.891   8.405  0.3570 -0.0756  0.0010
64281SOL    HW1 2773   9.850   3.974   8.432 -0.8397  1.4206 -2.5463
64281SOL    HW2 2774   9.863   3.864   8.329 -0.1092 -0.9748 -0.0124
64282SOL     OW 2775   0.625   3.365   2.764  0.0587 -0.3125 -0.1392
64282SOL    HW1 2776   0.614   3.424   2.838 -2.4569 -0.7114 -0.1244
64282SOL    HW2 2777   0.549   3.381   2.708  0.9091 -1.3815 -1.6831
64283SOL     OW 2778   9.152   2.385   5.093 -0.5766  0.1528 -0.0270
64283SOL    HW1 2779   9.220   2.450   5.109  0.3892 -1.3951  2.9633
64283SOL    HW2 2780   9.070   2.430   5.114 -0.0778  0.8858  0.3782
64284SOL     OW 2781   5.323   8.700   4.684  0.0079 -0.0136  0.1962
64284SOL    HW1 2782   5.323   8.662   4.772  2.2681  2.3022  1.3411
64284SOL    HW2 2783   5.235   8.737   4.674 -0.5316 -0.9760  1.1383
64285SOL     OW 2784   0.528  11.185   5.060 -0.0073  0.7097 -0.2585
64285SOL    HW1 2785   0.534  11.094   5.033 -0.7255 -0.0930  1.9933
64285SOL    HW2 2786   0.618  11.218   5.057  0.0584  0.4166 -2.5117
64286SOL     OW 2787   7.810  12.659   1.615 -0.4879 -0.0258 -0.5537
64286SOL    HW1 2788   7.786  12.738   1.568 -1.5206 -1.2739 -2.2377
64286SOL    HW2 2789   7.892  12.631   1.574 -0.1612  0.1137 -0.0091
64287SOL     OW 2790  11.609   5.659   1.398  0.3499 -0.3521  0.2780
64287SOL    HW1 2791  11.571   5.669   1.485  2.2341 -1.1592  1.2488
64287SOL    HW2 2792  11.545   5.608   1.349 -1.0387  0.6764  0.9536
64288SOL     OW 2793  12.017   3.733   7.630  0.1908 -0.3274  0.1573
64288SOL    HW1 2794  12.017   3.643   7.662  1.8858 -0.5528 -0.3662
64288SOL    HW2 2795  11.971   3.729   7.546  0.3302 -0.7352  0.0967
64289SOL     OW 2796   1.610   8.970   8.949  0.5172  0.1198 -0.0912
64289SOL    HW1 2797   1.651   8.897   8.902 -1.4832 -0.8772 -0.3935
64289SOL    HW2 2798   1.516   8.954   8.940  0.0489  1.8427  1.2804
64290SOL     OW 2799  10.163   8.620   6.683 -0.1349 -0.6472 -0.0639
64290SOL    HW1 2800  10.211   8.667   6.615  2.2981 -0.8196  1.4040
64290SOL    HW2 2801  10.166   8.679   6.759  1.0868 -2.1818  1.1591
64291SOL     OW 2802  12.110  11.310   4.538  0.4029 -0.2741 -0.6971
64291SOL    HW1 2803  12.091  11.294   4.446  1.4100 -0.3797 -0.8883
64291SOL    HW2 2804  12.051  11.381   4.563 -0.0730 -0.4353 -1.3373
64292SOL     OW 2805   5.898  12.182   7.722 -0.6716  0.0607  0.0803
64292SOL    HW1 2806   5.858  12.199   7.636  0.4275  0.1305 -0.4272
64292SOL    HW2 2807   5.865  12.253   7.777 -1.9132 -0.3495 -0.0871
64293SOL     OW 2808   4.621  11.862  10.819 -0.7922  0.8672  0.1359
64293SOL    HW1 2809   4.600  11.926  10.752  1.2873  1.3424 -0.1184
64293SOL    HW2 2810   4.642  11.914  10.897  2.4556  0.7194 -0.4931
64294SOL     OW 2811   5.382  13.185   8.134  0.1901 -0.2961 -0.6614
64294SOL    HW1 2812   5.403  13.105   8.086 -1.5806 -1.1164 -0.1706
64294SOL    HW2 2813   5.327  13.235   8.074 -0.5051 -0.4787 -0.1950
64295SOL     OW 2814  10.270   9.672  12.501 -0.2109 -0.2779  0.2787
64295SOL    HW1 2815  10.340   9.695  12.440 -0.1959 -2.8232 -0.7937
64295SOL    HW2 2816  10.315   9.641  12.580 -0.1784  0.3291  0.4999
64296SOL     OW 2817  10.328   3.389  12.736 -0.0817 -0.2298  0.1079
64296SOL    HW1 2818  10.351   3.316  12.678 -1.2953  0.3521 -1.1669
64296SOL    HW2 2819  10.412   3.422  12.767  0.5988 -0.8087 -1.0280
64297SOL     OW 2820   4.871  11.732  13.222 -0.7475  0.4671 -0.4461
64297SOL    HW1 2821   4.930  11.802  13.194  1.5083 -0.6291  1.2901
64297SOL    HW2 2822   4.842  11.691  13.141  0.8417  1.0840 -1.3699
64298SOL     OW 2823   5.328  11.691   2.144  0.0735 -0.0073  0.3187
64298SOL    HW1 2824   5.377  11.773   2.136 -0.9686  0.5728 -0.4515
64298SOL    HW2 2825   5.238  11.718   2.164  0.1481 -1.0665  2.3027
64299SOL     OW 2826   7.409   4.287  13.039 -0.5514  0.1642  0.1689
64299SOL    HW1 2827   7.428   4.292  12.945 -0.8782  2.2718  0.1584
64299SOL    HW2 2828   7.329   4.234  13.044  0.0772 -0.9078 -0.6171
64300SOL     OW 2829  11.381   4.588   4.827 -0.3317 -0.6348  0.3109
64300SOL    HW1 2830  11.334   4.570   4.746 -2.6560  2.9755  0.6345
64300SOL    HW2 2831  11.404   4.681   4.822  0.3639 -0.5370  3.3597
64301SOL     OW 2832  12.373  10.824   8.065  0.1560 -0.3898  0.4906
64301SOL    HW1 2833  12.406  10.838   8.154  3.1594  0.6604 -0.6411
64301SOL    HW2 2834  12.362  10.913   8.030  0.9869 -0.7747 -0.8027
64302SOL     OW 2835   1.593   7.353   8.985 -0.1795 -0.0680  0.5608
64302SOL    HW1 2836   1.640   7.274   8.958  0.1654  0.6409 -1.0134
64302SOL    HW2 2837   1.658   7.422   8.983 -1.2743  1.0366 -2.1627
64303SOL     OW 2838   7.325   2.332   0.301  0.2737 -0.3526  0.1952
64303SOL    HW1 2839   7.330   2.427   0.293 -0.4668 -0.2276  1.0406
64303SOL    HW2 2840   7.316   2.300   0.211  1.1819  0.3238 -0.1468
64304SOL     OW 2841   5.650  11.808   7.463  0.0537 -0.2681  0.6194
64304SOL    HW1 2842   5.582  11.758   7.419 -1.9684  2.2143  0.6833
64304SOL    HW2 2843   5.725  11.803   7.405 -0.3126 -2.6337  0.2675
64305SOL     OW 2844   9.671   0.866   2.582 -0.5016  0.0920  0.1848
64305SOL    HW1 2845   9.579   0.883   2.598 -0.5427 -0.6691  0.7915
64305SOL    HW2 2846   9.699   0.937   2.524 -1.2107  0.9240  0.8387
64306SOL     OW 2847   2.045   0.691  10.386 -0.2123 -0.1999 -0.2153
64306SOL    HW1 2848   2.018   0.778  10.355  0.4443 -0.1656 -0.7023
64306SOL    HW2 2849   2.022   0.632  10.314 -0.2322 -0.3653 -0.0724
64307SOL     OW 2850   0.592   4.821   0.924  0.5154  0.6674  0.1073
64307SOL    HW1 2851   0.674   4.867   0.939 -0.3345  1.6972  1.8551
64307SOL    HW2 2852   0.572   4.778   1.008 -0.5371  0.1057 -0.4004
64308SOL     OW 2853   2.682   3.908   3.347 -0.2310 -0.6837  0.1325
64308SOL    HW1 2854   2.647   3.819   3.348  0.1851 -0.8594 -0.5682
64308SOL    HW2 2855   2.626   3.955   3.284  0.0081 -0.6421 -0.0511
64309SOL     OW 2856   3.361   2.991   0.041  0.3693  0.1755  0.2902
64309SOL    HW1 2857   3.328   3.069  -0.005  0.0483  0.1617  0.4931
64309SOL    HW2 2858   3.364   3.018   0.133 -1.9340 -0.7615  0.6981
64310SOL     OW 2859  12.860   8.455  12.179 -0.0961 -0.6202  0.3188
64310SOL    HW1 2860  12.836   8.505  12.257 -0.3358  1.5925 -1.1046
64310SOL    HW2 2861  12.817   8.370  12.192 -0.7796 -0.0487  2.2137
64311SOL     OW 2862   2.284   5.330  10.592  0.0512 -0.3890  0.4610
64311SOL    HW1 2863   2.221   5.374  10.534  0.4953 -0.4981 -0.1074
64311SOL    HW2 2864   2.317   5.400  10.649 -0.5378 -0.3202  0.7266
64312SOL     OW 2865  10.677   6.807   0.321 -0.0316  0.1685 -1.2159
64312SOL    HW1 2866  10.633   6.826   0.239  0.5289  0.6649 -1.4076
64312SOL    HW2 2867  10.614   6.755   0.371 -1.0122  1.2476 -1.2932
64313SOL     OW 2868   2.689  11.318   4.695 -0.5828 -0.4783 -0.1421
64313SOL    HW1 2869   2.687  11.410   4.719 -0.3135 -0.6528  0.5975
64313SOL    HW2 2870   2.770  11.308   4.644  1.7912 -1.0787  3.3500
64314SOL     OW 2871   1.914   3.843   2.042  0.4273  0.3476  0.1356
64314SOL    HW1 2872   1.850   3.838   1.971  0.6281  0.7800 -0.0794
64314SOL    HW2 2873   1.861   3.856   2.121  0.2160  0.0943  0.0355
64315SOL     OW 2874   6.541  13.063   3.149 -0.5589 -0.0188  0.5755
64315SOL    HW1 2875   6.472  13.022   3.097 -0.4875  1.0938 -0.4512
64315SOL    HW2 2876   6.525  13.157   3.140  1.0230  0.2583  0.3812
64316SOL     OW 2877   8.401   1.168  13.124  0.3873 -0.0946 -0.3891
64316SOL    HW1 2878   8.306   1.165  13.137 -0.0225 -0.1793 -2.9029
64316SOL    HW2 2879   8.422   1.261  13.115  0.4386 -0.1059 -0.3882
64317SOL     OW 2880   6.249   5.393   0.202 -0.8192 -0.7372  0.3694
64317SOL    HW1 2881   6.223   5.301   0.205 -0.3328 -0.8450  1.9567
64317SOL    HW2 2882   6.309   5.404   0.275 -0.0078  0.6058 -0.4538
64318SOL     OW 2883  12.015   9.029   5.207  0.4059 -0.1338  0.2715
64318SOL    HW1 2884  11.958   9.100   5.237  1.7046  0.7162  0.8453
64318SOL    HW2 2885  11.960   8.976   5.150 -0.8398  0.8588  0.5042
64319SOL     OW 2886  12.075   6.114   4.981  0.3429  0.4675 -0.3616
64319SOL    HW1 2887  12.056   6.192   4.929 -0.5527 -0.5403 -1.6040
64319SOL    HW2 2888  12.171   6.109   4.981  0.4730  2.0599  0.5509
64320SOL     OW 2889   5.826   4.576   9.545  0.4292  0.1915 -0.2205
64320SOL    HW1 2890   5.797   4.550   9.633 -1.4593  1.4729 -0.4079
64320SOL    HW2 2891   5.836   4.671   9.550 -0.5007  0.3879 -1.5789
64321SOL     OW 2892   1.775   5.890  10.370  0.1996 -0.3699  0.2147
64321SOL    HW1 2893   1.762   5.853  10.457 -0.0890  2.3957  1.4426
64321SOL    HW2 2894   1.769   5.984  10.382  0.0982  0.1319 -2.8382
64322SOL     OW 2895   6.750   5.544  10.457  0.5585 -0.4751 -0.2201
64322SOL    HW1 2896   6.788   5.622  10.417  1.2850 -0.4721  0.4616
64322SOL    HW2 2897   6.810   5.473  10.437  1.2598 -0.3688  1.3202
64323SOL     OW 2898  10.831  10.265   3.607 -0.1815 -0.2795  0.3277
64323SOL    HW1 2899  10.754  10.215   3.635 -0.0049 -0.6844  0.0996
64323SOL    HW2 2900  10.897  10.198   3.588  0.1989  0.0635  0.4447
64324SOL     OW 2901   1.329  11.855   9.441  0.3597  0.0318  0.0422
64324SOL    HW1 2902   1.423  11.866   9.452  0.4136  1.3108 -1.3821
64324SOL    HW2 2903   1.302  11.928   9.385 -1.4326 -0.4783  0.1572
64325SOL     OW 2904   9.163   6.770  10.826  0.0556  0.5609  0.3207
64325SOL    HW1 2905   9.230   6.739  10.764 -0.2415  0.9204 -0.1893
64325SOL    HW2 2906   9.148   6.696  10.884  1.9579  0.9381  1.3676
64326SOL     OW 2907   3.368  10.271  11.030 -0.1326  0.0330  0.8766
64326SOL    HW1 2908   3.281  10.309  11.024 -0.0016  0.2723  0.4487
64326SOL    HW2 2909   3.426  10.346  11.046  0.3666  0.3140 -1.8476
64327SOL     OW 2910   6.317   6.910   5.351 -0.0437 -0.2531  1.0498
64327SOL    HW1 2911   6.407   6.931   5.376  0.7724 -0.4496 -1.4539
64327SOL    HW2 2912   6.321   6.818   5.322 -0.7657  0.0677 -0.1482
64328SOL     OW 2913   6.579   8.519   7.116  0.0301 -0.3355 -0.0987
64328SOL    HW1 2914   6.507   8.475   7.161 -0.3351 -0.6394 -0.9564
64328SOL    HW2 2915   6.605   8.458   7.046  1.4654 -0.4562  0.5098
64329SOL     OW 2916  12.189   7.855   4.035 -0.0843  0.2990 -1.0174
64329SOL    HW1 2917  12.256   7.909   3.993 -1.5260  3.1124  0.0227
64329SOL    HW2 2918  12.237   7.800   4.097  1.4136  0.8992 -1.6023
64330SOL     OW 2919   7.513   9.596   2.530 -0.0653 -0.5887  0.0623
64330SOL    HW1 2920   7.593   9.545   2.516  1.0065  1.3314 -1.2748
64330SOL    HW2 2921   7.539   9.687   2.515 -2.4604  0.1297 -0.1830
64331SOL     OW 2922   4.087   5.353   9.002  0.4609  0.6422 -0.1500
64331SOL    HW1 2923   4.139   5.297   8.944 -1.6161  1.4465 -2.9909
64331SOL    HW2 2924   4.015   5.297   9.031  0.0172  0.9891 -0.5688
64332SOL     OW 2925   1.522   1.644   5.444 -0.2055  0.1145  0.1809
64332SOL    HW1 2926   1.604   1.685   5.472 -0.9479  1.2969  0.7167
64332SOL    HW2 2927   1.513   1.567   5.500  0.2416  0.3067  0.5243
64333SOL     OW 2928  12.904   0.524   6.157 -0.0044  0.3932  0.0372
64333SOL    HW1 2929  12.831   0.526   6.095 -1.1399  0.4795  1.3443
64333SOL    HW2 2930  12.962   0.595   6.127 -0.2418  0.0719 -1.2456
64334SOL     OW 2931   7.444   0.849   5.344 -0.1133 -0.1106  0.1882
64334SOL    HW1 2932   7.425   0.835   5.437  0.1302  0.0707  0.2644
64334SOL    HW2 2933   7.512   0.785   5.323  2.5087  2.2044  1.0403
64335SOL     OW 2934   1.147   7.583   9.010  0.1749 -0.3130 -0.3851
64335SOL    HW1 2935   1.168   7.517   8.944  1.2641  1.5754 -2.0323
64335SOL    HW2 2936   1.231   7.605   9.050 -0.0055  0.7588 -0.5636
64336SOL     OW 2937  10.819   1.360   3.908  0.0136 -0.4914  0.2255
64336SOL    HW1 2938  10.809   1.265   3.909  0.6777 -0.5843 -0.7820
64336SOL    HW2 2939  10.741   1.393   3.953 -0.2251 -1.5051  0.5840
64337SOL     OW 2940   9.536   8.165   2.566 -0.1650  0.0700  0.5230
64337SOL    HW1 2941   9.493   8.244   2.535 -0.0171  0.3697  1.0678
64337SOL    HW2 2942   9.571   8.123   2.487 -0.3586  0.4765  0.2212
64338SOL     OW 2943   2.430   0.812  10.251  0.2857  0.4900 -0.6452
64338SOL    HW1 2944   2.462   0.857  10.328  0.2141 -1.8086  0.8392
64338SOL    HW2 2945   2.343   0.780  10.275 -0.2296  0.6784 -2.1063
64339SOL     OW 2946  10.478   7.930   7.193 -0.0751  0.5002  0.3131
64339SOL    HW1 2947  10.464   7.914   7.286 -1.7045 -1.0649 -0.1476
64339SOL    HW2 2948  10.516   7.848   7.160 -2.3324 -0.1315 -0.9055
64340SOL     OW 2949   5.022   6.047   5.298  0.5864 -0.2062  0.1677
64340SOL    HW1 2950   4.994   6.042   5.207  1.1026 -0.3191  0.0136
64340SOL    HW2 2951   4.948   6.087   5.344  0.4151  0.0556 -0.3362
64341SOL     OW 2952  10.156  12.775   2.440 -0.2940 -0.5978  0.2003
64341SOL    HW1 2953  10.129  12.839   2.506 -0.5861 -1.9530  1.4617
64341SOL    HW2 2954  10.076  12.756   2.391 -0.4255 -0.6991  0.4535
64342SOL     OW 2955   8.210   9.175   0.607  0.2779 -0.0783  0.7107
64342SOL    HW1 2956   8.165   9.135   0.533 -1.0805  0.1401  1.3758
64342SOL    HW2 2957   8.299   9.142   0.602  0.0722 -0.4872 -0.7001
64343SOL     OW 2958   4.713   4.193   0.171  0.0315  0.2041  0.0569
64343SOL    HW1 2959   4.785   4.191   0.108  1.1182 -0.9564  1.2733
64343SOL    HW2 2960   4.756   4.199   0.257 -1.2110 -1.9666  0.9047
64344SOL     OW 2961   6.827  11.354   7.471 -0.1609 -0.3205  0.5729
64344SOL    HW1 2962   6.886  11.282   7.445 -0.0804 -0.0660  0.0340
64344SOL    HW2 2963   6.781  11.377   7.390 -0.1523  0.2666  0.7361
64345SOL     OW 2964   7.516   7.356   5.824  0.0001  0.0580  0.2340
64345SOL    HW1 2965   7.561   7.439   5.810 -0.7770  0.6501  1.0718
64345SOL    HW2 2966   7.441   7.379   5.879  0.8461 -1.4825  2.1505
64346SOL     OW 2967   7.739   4.688   0.795  0.3005 -0.3252  0.5368
64346SOL    HW1 2968   7.811   4.731   0.841  0.6760 -1.5221  1.1103
64346SOL    HW2 2969   7.672   4.676   0.862 -0.8827  1.6415 -0.1964
64347SOL     OW 2970   2.580   8.114   8.177 -0.1079  0.7609 -0.3672
64347SOL    HW1 2971   2.633   8.083   8.104 -0.2032 -1.1453  0.3006
64347SOL    HW2 2972   2.494   8.075   8.162  0.0251 -0.1541  1.0166
64348SOL     OW 2973  12.226   5.308   9.879 -0.0920 -0.2013  0.5913
64348SOL    HW1 2974  12.301   5.259   9.913 -0.4141 -0.7127  0.5654
64348SOL    HW2 2975  12.163   5.308   9.951 -0.0858  0.1961  0.5978
64349SOL     OW 2976   0.104   5.496   6.687  0.2638 -0.1448  0.0119
64349SOL    HW1 2977   0.062   5.536   6.611  1.1771 -1.1110 -1.0488
64349SOL    HW2 2978   0.033   5.450   6.733 -0.0721 -0.7398 -1.0665
64350SOL     OW 2979   6.682   6.558  11.419 -0.6554 -0.1172  0.4067
64350SOL    HW1 2980   6.758   6.522  11.465 -0.2757 -0.8288 -0.7345
64350SOL    HW2 2981   6.719   6.629  11.366 -0.7129 -0.6488 -0.3688
64351SOL     OW 2982   7.637   8.528   6.185  0.2309 -0.3734  0.1210
64351SOL    HW1 2983   7.683   8.453   6.221  0.1175 -0.0869  0.8823
64351SOL    HW2 2984   7.655   8.600   6.246 -4.2293 -1.0803  2.7291
64352SOL     OW 2985   3.590  12.303   6.461  0.3768  0.1730 -0.0950
64352SOL    HW1 2986   3.521  12.368   6.452 -0.5962 -0.9901 -1.5900
64352SOL    HW2 2987   3.653  12.342   6.522 -0.0587  2.5624 -1.0833
64353SOL     OW 2988   0.987  11.971   9.309  0.3927  0.2471 -0.1984
64353SOL    HW1 2989   0.999  12.020   9.228  2.1072 -0.4771 -0.4170
64353SOL    HW2 2990   1.013  11.882   9.288 -1.9304 -0.6437  0.4080
64354SOL     OW 2991   1.603   3.010   6.657  0.6508 -0.0880  1.1414
64354SOL    HW1 2992   1.677   3.002   6.596 -1.0606 -1.7459 -0.9100
64354SOL    HW2 2993   1.592   3.104   6.670  3.1235  0.2029  1.5957
64355SOL     OW 2994   1.889   4.893   5.239 -0.1224 -0.2014 -0.6167
64355SOL    HW1 2995   1.963   4.922   5.186 -1.1140  1.2680 -1.2564
64355SOL    HW2 2996   1.893   4.947   5.318  0.1303 -0.9289 -0.1141
64356SOL     OW 2997  11.460   1.959   6.336  0.3081  0.6241 -0.2150
64356SOL    HW1 2998  11.494   1.980   6.249  0.8625 -1.0790 -0.4399
64356SOL    HW2 2999  11.399   1.886   6.321 -1.3557  1.7780  0.5513
64357SOL     OW 3000   9.378  10.594  12.203 -0.2878  0.3008 -0.6179
64357SOL    HW1 3001   9.388  10.501  12.226 -0.9574  0.1886 -0.7360
64357SOL    HW2 3002   9.323  10.630  12.273 -1.5494  0.1729 -1.4949
64358SOL     OW 3003   3.055  12.225   8.427  0.3190 -0.1727  0.1114
64358SOL    HW1 3004   3.141  12.223   8.384 -0.6536  2.5663 -2.2885
64358SOL    HW2 3005   2.992  12.215   8.356 -1.3947 -0.4481  1.5882
64359SOL     OW 3006   1.344   2.546  11.058 -0.1966  0.4543  0.0672
64359SOL    HW1 3007   1.436   2.572  11.049 -0.6322  1.5319 -1.6992
64359SOL    HW2 3008   1.347   2.450  11.064  1.1298  0.5663  1.8445
64360SOL     OW 3009   2.359   8.182   9.546  0.8612 -0.4436  0.1730
64360SOL    HW1 3010   2.422   8.110   9.546  1.9616  0.4632  1.6157
64360SOL    HW2 3011   2.340   8.197   9.454  0.4311 -2.6929 -0.1629
64361SOL     OW 3012   7.956   6.501   9.343 -0.1124 -0.4802  0.0858
64361SOL    HW1 3013   7.995   6.421   9.310 -0.8070 -2.1207  2.9302
64361SOL    HW2 3014   8.028   6.547   9.387  0.4887  1.0154 -2.2517
64362SOL     OW 3015   0.774  10.148   4.003 -0.2518 -0.0140 -0.1809
64362SOL    HW1 3016   0.726  10.075   3.963 -0.2965  0.3869 -0.8755
64362SOL    HW2 3017   0.722  10.170   4.081 -0.9064  0.0714 -0.6331
64363SOL     OW 3018   9.857  11.952   8.949 -0.0313 -0.2530 -0.0760
64363SOL    HW1 3019   9.803  12.026   8.977  0.5663  0.8345 -1.6444
64363SOL    HW2 3020   9.908  11.928   9.027  1.2671  2.3594 -0.0157
64364SOL     OW 3021   3.942   4.100  11.533 -0.8073 -0.1862  0.0149
64364SOL    HW1 3022   3.970   4.051  11.455  0.8931  2.4285 -1.1415
64364SOL    HW2 3023   3.852   4.127  11.512 -0.0937  1.1935 -1.5019
64365SOL     OW 3024  11.989   9.019  10.129 -0.4632  0.1063  0.1487
64365SOL    HW1 3025  12.064   8.959  10.123 -0.7304 -0.4440  1.8286
64365SOL    HW2 3026  12.022   9.094  10.179 -1.4956 -1.0184  2.6601
64366SOL     OW 3027   5.230   4.888   9.313  0.3374  0.5456  0.2259
64366SOL    HW1 3028   5.159   4.848   9.363  0.2632  2.3504  1.6700
64366SOL    HW2 3029   5.254   4.822   9.248 -1.6040 -0.7062  0.7064
64367SOL     OW 3030   1.439   5.484   5.750 -0.5321  0.0976  0.0954
64367SOL    HW1 3031   1.346   5.467   5.763 -0.6860 -0.0597 -1.0610
64367SOL    HW2 3032   1.473   5.401   5.715  0.1082  0.0512  0.8155
64368SOL     OW 3033   1.452  10.380  10.126  0.0458  0.0703  0.1440
64368SOL    HW1 3034   1.467  10.287  10.138 -0.0355  0.2925  2.5724
64368SOL    HW2 3035   1.503  10.403  10.048 -0.3642 -2.0625 -0.8135
64369SOL     OW 3036  12.573  11.682   4.433  0.1313  0.1220  0.1052
64369SOL    HW1 3037  12.583  11.596   4.392  2.2418  0.4358 -0.1462
64369SOL    HW2 3038  12.561  11.742   4.359 -0.4247  0.1631  0.2251
64370SOL     OW 3039   3.885  12.337   1.174 -0.0460 -0.3076  1.1527
64370SOL    HW1 3040   3.862  12.293   1.256  0.3200 -1.1567  0.8151
64370SOL    HW2 3041   3.802  12.373   1.142 -0.1590  0.1977  1.9825
64371SOL     OW 3042   4.401   8.868   6.050  1.1257  0.0880  0.0596
64371SOL    HW1 3043   4.317   8.906   6.075  1.4192  0.0848  1.1110
64371SOL    HW2 3044   4.386   8.774   6.052  1.3888  0.0588  1.1693
64372SOL     OW 3045   3.740   6.580   7.585  0.2948  0.5644 -0.3315
64372SOL    HW1 3046   3.796   6.657   7.595  0.4023  0.4000  0.3784
64372SOL    HW2 3047   3.660   6.602   7.633  0.5116  0.0555  0.2795
64373SOL     OW 3048   2.206  10.765   3.616  0.0613  0.0417 -0.2329
64373SOL    HW1 3049   2.177  10.755   3.526 -0.4063 -0.5076 -0.0247
64373SOL    HW2 3050   2.131  10.803   3.662 -0.2342 -1.0757  0.2383
64374SOL     OW 3051  10.628  11.864   7.689  0.3917  0.4250  0.4360
64374SOL    HW1 3052  10.570  11.835   7.759  0.4906  0.1934  0.4218
64374SOL    HW2 3053  10.569  11.878   7.614  0.6922 -3.1413 -0.6634
64375SOL     OW 3054  12.876   1.824   8.237 -0.2490 -0.3728  0.4344
64375SOL    HW1 3055  12.785   1.809   8.211 -0.5730  1.0536  0.6761
64375SOL    HW2 3056  12.874   1.820   8.333 -0.1563  0.1321  0.4599
64376SOL     OW 3057   6.217   0.873   0.438  0.2676  0.0662  0.2420
64376SOL    HW1 3058   6.158   0.822   0.382 -1.3781 -0.0140  1.9739
64376SOL    HW2 3059   6.291   0.815   0.454  0.6239 -0.0233 -1.5421
64377SOL     OW 3060   7.499   9.388   9.560 -0.3991  0.2324 -0.2245
64377SOL    HW1 3061   7.546   9.413   9.640  0.5106 -1.8855 -0.0368
64377SOL    HW2 3062   7.497   9.468   9.508 -0.6989  1.5882  1.7381
64378SOL     OW 3063   9.926   4.558   8.307  0.0614  0.1159  0.0147
64378SOL    HW1 3064   9.960   4.522   8.225  1.0147  1.5027 -0.2321
64378SOL    HW2 3065   9.976   4.513   8.375 -0.3843 -0.6852 -0.1790
64379SOL     OW 3066   6.737   8.482   3.493 -0.0348 -0.2153 -0.1264
64379SOL    HW1 3067   6.694   8.479   3.578  1.1090 -1.0830  0.4512
64379SOL    HW2 3068   6.665   8.480   3.430 -0.8702 -1.7003  0.7981
64380SOL     OW 3069   3.422  10.648   2.281 -0.0195 -0.0457  0.1832
64380SOL    HW1 3070   3.451  10.579   2.340  0.5054 -0.1776 -0.2231
64380SOL    HW2 3071   3.489  10.716   2.288 -1.3326  1.1560  1.7977
64381SOL     OW 3072  12.137   7.234  12.998  0.2925 -0.3992  0.3796
64381SOL    HW1 3073  12.059   7.275  12.962  0.6745  0.5272  0.5767
64381SOL    HW2 3074  12.169   7.177  12.928  0.1132  0.1330 -0.1383
64382SOL     OW 3075   5.746  11.062  11.981 -0.5858 -0.1243  0.0964
64382SOL    HW1 3076   5.734  11.156  11.965 -1.4377 -0.5817 -2.3720
64382SOL    HW2 3077   5.794  11.058  12.064  1.1446  2.5537 -0.6208
64383SOL     OW 3078   3.562  11.910   4.617 -0.5499  0.2556 -0.2989
64383SOL    HW1 3079   3.581  11.950   4.702  1.9403  1.2862 -1.2471
64383SOL    HW2 3080   3.516  11.829   4.638  0.0459  0.4579  2.0171
64384SOL     OW 3081   0.932  12.783   9.285 -0.4250  0.2605 -0.4148
64384SOL    HW1 3082   0.935  12.749   9.375 -0.0192 -2.4072 -1.3418
64384SOL    HW2 3083   1.015  12.830   9.275  1.1493 -2.3359 -0.3735
64385SOL     OW 3084   8.005  11.024   2.075 -0.3428  0.1467  0.1414
64385SOL    HW1 3085   8.061  10.963   2.123 -0.7917 -1.4082 -1.2204
64385SOL    HW2 3086   8.028  11.010   1.983 -2.7074 -0.3599 -0.4460
64386SOL     OW 3087   1.833   7.513  11.700 -0.3408  0.0966 -0.0491
64386SOL    HW1 3088   1.755   7.566  11.715 -1.2113 -0.7840 -1.2670
64386SOL    HW2 3089   1.898   7.574  11.664 -1.3020  0.3633 -1.3839
64387SOL     OW 3090   2.268   0.068   6.266 -0.0136  0.2069  0.1193
64387SOL    HW1 3091   2.346   0.012   6.259 -1.5494 -2.0136 -0.2773
64387SOL    HW2 3092   2.218   0.030   6.339 -0.7039  1.6442  0.4218
64388SOL     OW 3093  11.096  12.326   3.499 -0.2795  0.3106  1.2532
64388SOL    HW1 3094  11.104  12.304   3.591 -0.8377  1.2660  1.5400
64388SOL    HW2 3095  11.183  12.306   3.462  0.2632  0.8791  2.1851
64389SOL     OW 3096   0.184   4.563   6.294 -0.2961  0.6153 -0.1144
64389SOL    HW1 3097   0.178   4.477   6.336 -0.6661  1.0310  0.7100
64389SOL    HW2 3098   0.233   4.547   6.213  0.6144 -0.1690  0.5775
64390SOL     OW 3099  11.556   0.362  11.718 -0.3769  0.0231 -0.1888
64390SOL    HW1 3100  11.571   0.271  11.692 -1.9222 -0.3852  0.2923
64390SOL    HW2 3101  11.514   0.402  11.642  0.2293  0.3439 -0.3710
64391SOL     OW 3102   9.490   5.669   1.203 -0.9923 -0.5893  0.0821
64391SOL    HW1 3103   9.446   5.641   1.122 -0.7479 -2.4546  0.5592
64391SOL    HW2 3104   9.419   5.675   1.267 -0.9390 -0.8656  0.1676
64392SOL     OW 3105   3.749   9.609  13.186 -0.1825  0.0120  0.1880
64392SOL    HW1 3106   3.697   9.570  13.257  0.7456  0.5895  1.2286
64392SOL    HW2 3107   3.836   9.619  13.224  0.3105  0.4374 -1.0185
64393SOL     OW 3108   5.968   6.058   8.812 -0.3785 -0.0074  0.1871
64393SOL    HW1 3109   5.949   6.092   8.899  1.4894 -2.1635  1.5412
64393SOL    HW2 3110   6.060   6.079   8.797 -0.7340  0.5694 -1.4460
64394SOL     OW 3111   2.882   3.151   7.343 -0.1222 -0.2915  0.0408
64394SOL    HW1 3112   2.879   3.101   7.424 -1.1526  0.1191  0.2699
64394SOL    HW2 3113   2.928   3.094   7.281  0.5987 -0.6405  0.8773
64395SOL     OW 3114  11.246   6.062   2.190  0.3124 -0.4334 -0.7561
64395SOL    HW1 3115  11.177   6.003   2.160 -2.5918  1.5231  1.4328
64395SOL    HW2 3116  11.288   6.015   2.262 -2.8464  0.3877  1.8571
64396SOL     OW 3117   3.263  10.548   4.232  0.2869 -0.1616 -0.0097
64396SOL    HW1 3118   3.316  10.491   4.176  1.5758 -0.2111  1.2210
64396SOL    HW2 3119   3.287  10.636   4.206  0.4137 -0.1842  0.0302
64397SOL     OW 3120   7.100   3.017  11.829  0.2360 -0.3491 -0.2953
64397SOL    HW1 3121   7.152   3.018  11.749  2.4176  0.0425  1.0573
64397SOL    HW2 3122   7.124   2.936  11.873 -0.4875 -0.2812  0.2447
64398SOL     OW 3123   6.668  10.673   4.577 -0.2518  0.7489 -0.3856
64398SOL    HW1 3124   6.646  10.659   4.669 -2.0483 -2.5748 -1.1753
64398SOL    HW2 3125   6.583  10.687   4.534  0.6020  2.9213 -1.5504
64399SOL     OW 3126   0.668  12.552  10.407 -0.1375  0.4142 -0.5258
64399SOL    HW1 3127   0.609  12.540  10.332 -0.1693  0.9246 -0.5895
64399SOL    HW2 3128   0.612  12.585  10.477 -0.1667 -0.3656 -0.1689
64400SOL     OW 3129   6.687   0.877  12.149  0.0002 -0.0570  0.0744
64400SOL    HW1 3130   6.683   0.936  12.073  0.4096  0.2104  0.2598
64400SOL    HW2 3131   6.775   0.841  12.148 -0.0124 -0.1030  0.3864
64401SOL     OW 3132   9.630   1.306   3.834 -0.1835  0.1156  0.9399
64401SOL    HW1 3133   9.713   1.321   3.879 -0.2776  2.1376  0.5385
64401SOL    HW2 3134   9.621   1.380   3.775 -1.6890 -0.7251  0.0478
64402SOL     OW 3135   5.000   1.335   5.514 -0.8783 -0.1373  0.0992
64402SOL    HW1 3136   4.965   1.259   5.561  0.5296 -0.7640  0.2020
64402SOL    HW2 3137   5.095   1.323   5.518 -0.6880  0.1477 -2.3177
64403SOL     OW 3138   1.528   3.219   9.931 -0.0437 -0.5085 -0.2831
64403SOL    HW1 3139   1.446   3.265   9.950  0.5677 -0.0994  1.5665
64403SOL    HW2 3140   1.597   3.280   9.955  0.7893 -2.2464  2.1389
64404SOL     OW 3141  12.009   0.381   4.257  0.7314 -0.0019 -0.4053
64404SOL    HW1 3142  12.090   0.331   4.265  1.0297  0.4286 -0.7285
64404SOL    HW2 3143  11.942   0.324   4.296  1.0162 -0.7744 -1.0166
64405SOL     OW 3144   6.409   7.628   2.694 -0.3127 -0.4777  0.3782
64405SOL    HW1 3145   6.480   7.629   2.631 -0.9132 -0.2153 -0.3075
64405SOL    HW2 3146   6.388   7.535   2.705 -0.7432 -0.4845 -0.4319
64406SOL     OW 3147   7.025   9.207   2.630 -0.0505  0.1451  0.5671
64406SOL    HW1 3148   6.968   9.131   2.642 -0.8888  0.7340  0.4676
64406SOL    HW2 3149   6.983   9.257   2.560 -0.8213  1.8519  2.1669
64407SOL     OW 3150  11.513  13.061  10.369  0.4242  0.4158  0.2042
64407SOL    HW1 3151  11.427  13.095  10.343  1.0209  1.5260 -0.4118
64407SOL    HW2 3152  11.520  13.083  10.462 -0.2693 -0.4016  0.4665
64408SOL     OW 3153   2.734   3.840   4.860 -0.2742  0.2538  0.4314
64408SOL    HW1 3154   2.679   3.775   4.905 -0.3488  0.1191  0.1481
64408SOL    HW2 3155   2.816   3.840   4.909 -0.4640  0.3301  0.7541
64409SOL     OW 3156   6.125  12.927  10.991  0.7036  0.4986  0.1435
64409SOL    HW1 3157   6.112  12.832  10.986  0.2395  0.4263  1.9562
64409SOL    HW2 3158   6.079  12.953  11.070  2.6640  1.8976  0.9164
64410SOL     OW 3159   2.730   6.827  12.995 -0.4550  0.2612 -0.1548
64410SOL    HW1 3160   2.825   6.829  13.009 -0.3983  0.2559 -0.5400
64410SOL    HW2 3161   2.698   6.767  13.063  0.0097 -1.0969 -1.1004
64411SOL     OW 3162   8.238   0.749   7.873 -0.1728  0.0976 -0.1135
64411SOL    HW1 3163   8.167   0.770   7.813 -0.2423  0.0634 -0.0437
64411SOL    HW2 3164   8.208   0.780   7.959 -0.6676 -1.0768  0.1665
64412SOL     OW 3165  12.589   1.998   1.981 -0.1669 -0.3312 -0.1751
64412SOL    HW1 3166  12.619   1.961   2.064 -0.0014 -0.1215 -0.1400
64412SOL    HW2 3167  12.536   1.928   1.941  0.3113 -0.6820 -0.2075
64413SOL     OW 3168   0.350  10.943  13.101  0.0298  0.0584 -0.4191
64413SOL    HW1 3169   0.390  10.938  13.014 -1.1966  1.0822 -1.0819
64413SOL    HW2 3170   0.259  10.967  13.084 -0.4622 -0.5649  1.1212
64414SOL     OW 3171   0.918  11.452  13.100 -0.7340 -0.2958  0.3842
64414SOL    HW1 3172   0.978  11.432  13.172 -0.0103 -0.6680 -0.3087
64414SOL    HW2 3173   0.972  11.501  13.037 -2.1345  2.9791  1.5155
64415SOL     OW 3174   2.742   8.677   7.014 -0.5836 -0.0239  0.1548
64415SOL    HW1 3175   2.686   8.599   7.015 -0.2722 -0.2754 -0.9126
64415SOL    HW2 3176   2.726   8.716   6.928 -0.8188  1.1522  0.7255
64416SOL     OW 3177   6.656   5.714   5.208 -0.1122  0.1774 -0.0380
64416SOL    HW1 3178   6.712   5.752   5.276  1.9340 -1.7767 -0.4753
64416SOL    HW2 3179   6.655   5.779   5.138 -0.0030  1.0800  0.7832
64417SOL     OW 3180   2.338   9.724  10.049  0.1869 -0.0981 -0.0193
64417SOL    HW1 3181   2.392   9.646  10.034  1.5253  0.8891 -0.5428
64417SOL    HW2 3182   2.280   9.700  10.122  0.2808 -1.7115 -0.4494
64418SOL     OW 3183   0.636   7.865   7.687  0.4662  0.0140 -0.1794
64418SOL    HW1 3184   0.676   7.933   7.633  0.1673 -0.3254 -0.8369
64418SOL    HW2 3185   0.702   7.796   7.692  1.4512  0.9933  1.8634
64419SOL     OW 3186   5.125  10.418   4.671 -0.3535 -0.2673  0.1300
64419SOL    HW1 3187   5.138  10.324   4.663 -1.0055 -0.2859 -0.8217
64419SOL    HW2 3188   5.046  10.436   4.620 -0.6658  0.6850  0.9157
64420SOL     OW 3189   3.539   3.125   3.553  0.3737 -0.7373 -0.2268
64420SOL    HW1 3190   3.467   3.066   3.528  0.1393 -0.3811 -0.3968
64420SOL    HW2 3191   3.534   3.197   3.490  0.2268 -0.1886  0.4023
64421SOL     OW 3192   6.201  13.262   8.375 -0.0035  0.2642 -0.3609
64421SOL    HW1 3193   6.254  13.271   8.296 -0.6690 -0.8367 -0.9561
64421SOL    HW2 3194   6.111  13.278   8.345 -0.3349 -0.7784  0.0251
64422SOL     OW 3195   9.623   1.681   1.220 -0.1513 -0.3513 -0.9432
64422SOL    HW1 3196   9.690   1.617   1.245  1.3482  1.5983  0.4207
64422SOL    HW2 3197   9.568   1.690   1.297 -0.3877 -0.0421 -1.1438
64423SOL     OW 3198   9.804   8.160   7.478 -0.8265 -0.5974 -0.0905
64423SOL    HW1 3199   9.840   8.128   7.560  0.1750  0.3100 -0.1509
64423SOL    HW2 3200   9.747   8.233   7.503 -0.2945 -0.1337 -0.2112
64424SOL     OW 3201   3.469   9.832   6.635  0.8832 -0.0323 -0.6194
64424SOL    HW1 3202   3.471   9.863   6.545  2.3860 -0.7029 -0.8477
64424SOL    HW2 3203   3.405   9.889   6.678 -1.3479 -0.9575 -2.5123
64425SOL     OW 3204   7.507   7.772  10.062 -0.3939  0.2490  0.1513
64425SOL    HW1 3205   7.445   7.777  10.135 -0.0559  1.0584  0.3919
64425SOL    HW2 3206   7.494   7.854  10.014  2.4731  1.8556  1.8425
64426SOL     OW 3207   3.218   9.260  12.090  0.3774  0.0608  0.0964
64426SOL    HW1 3208   3.250   9.294  12.007 -1.3343 -2.7041 -1.8458
64426SOL    HW2 3209   3.134   9.304  12.103 -1.3187 -2.2985 -1.8704
64427SOL     OW 3210   0.291   0.536   7.111  0.3033  0.0014 -0.5676
64427SOL    HW1 3211   0.254   0.620   7.136 -0.2814 -0.6424  0.8167
64427SOL    HW2 3212   0.216   0.478   7.102  0.7594 -0.5798 -0.7148
64428SOL     OW 3213   7.624   6.431   3.686 -0.4047  0.1020 -0.1541
64428SOL    HW1 3214   7.604   6.510   3.736  0.7613 -0.4297  1.2067
64428SOL    HW2 3215   7.719   6.427   3.684 -0.4134 -0.1019 -2.1481
64429SOL     OW 3216   3.415   6.905   3.151 -0.1198 -0.0755  0.4710
64429SOL    HW1 3217   3.343   6.963   3.126 -1.2158 -1.2630  0.7597
64429SOL    HW2 3218   3.378   6.850   3.221  1.6622  0.5831  2.0206
64430SOL     OW 3219   2.909  11.431   5.609  0.1605  1.0857  0.6327
64430SOL    HW1 3220   2.846  11.389   5.668  0.9892 -0.7057  0.2880
64430SOL    HW2 3221   2.929  11.515   5.651 -0.8791  0.7808  1.7889
64431SOL     OW 3222   4.587   3.527  11.167  0.2236 -0.7106  0.7588
64431SOL    HW1 3223   4.582   3.608  11.219  0.7697 -1.2005  1.6017
64431SOL    HW2 3224   4.634   3.553  11.088  0.9604 -0.3317  1.3036
64432SOL     OW 3225   1.863  12.227   3.801 -0.1287 -0.3787  0.1598
64432SOL    HW1 3226   1.779  12.269   3.787  0.2851  0.7543  0.9834
64432SOL    HW2 3227   1.924  12.298   3.818  0.3487 -1.3091  2.8944
64433SOL     OW 3228   1.324   9.637   0.918 -0.1909 -0.0883 -0.0600
64433SOL    HW1 3229   1.370   9.718   0.895  1.3516 -1.2459 -1.2117
64433SOL    HW2 3230   1.332   9.631   1.014 -0.5958  1.2527  0.0778
64434SOL     OW 3231   5.298   7.296   9.685 -0.8805  0.0627  0.1318
64434SOL    HW1 3232   5.379   7.298   9.633  0.1827  0.0059  1.7142
64434SOL    HW2 3233   5.246   7.227   9.645  0.5915 -1.0763  0.0820
64435SOL     OW 3234   1.784   2.166   6.844  0.7471  0.3828  0.3279
64435SOL    HW1 3235   1.731   2.090   6.868  2.2944 -0.6258  0.7478
64435SOL    HW2 3236   1.832   2.188   6.925  1.1661  1.0812 -0.0954
64436SOL     OW 3237   3.345   1.578  10.249  0.2413 -0.0946 -0.5406
64436SOL    HW1 3238   3.318   1.645  10.186 -1.7626  0.2483  0.5879
64436SOL    HW2 3239   3.396   1.625  10.314  0.4668 -0.0387 -0.7562
64437SOL     OW 3240   9.952   4.950   8.132 -0.3198 -0.5015 -0.3044
64437SOL    HW1 3241   9.981   4.993   8.213 -0.9067 -1.3671  0.3886
64437SOL    HW2 3242   9.886   4.887   8.161 -0.6786 -0.6939 -1.4920
64438SOL     OW 3243   3.050  12.381  10.910 -0.4163  0.4251  0.3910
64438SOL    HW1 3244   3.064  12.379  11.005 -3.3190  0.4731  0.9263
64438SOL    HW2 3245   2.958  12.405  10.900 -0.1710  0.5390 -2.4729
64439SOL     OW 3246   0.770   6.103   5.452  0.1494  0.3005 -0.7357
64439SOL    HW1 3247   0.775   6.007   5.443 -0.0345  0.3896 -1.9556
64439SOL    HW2 3248   0.680   6.125   5.426  0.3335  0.8463 -0.9226
64440SOL     OW 3249  10.305   9.929   6.718 -0.3596 -0.3658  0.9016
64440SOL    HW1 3250  10.253   9.885   6.651  0.1000 -0.0858  0.3527
64440SOL    HW2 3251  10.248   9.931   6.795 -1.9962  1.7741 -0.2429
64441SOL     OW 3252   4.174  11.127   4.369 -0.2571  0.4661  0.0744
64441SOL    HW1 3253   4.154  11.109   4.461 -0.7302  0.2167 -0.0725
64441SOL    HW2 3254   4.130  11.209   4.351  0.4141  0.8766  0.2534
64442SOL     OW 3255  11.927   0.595  13.113 -0.0463  0.1963  0.1691
64442SOL    HW1 3256  11.953   0.548  13.192 -1.0015 -2.9215 -1.2227
64442SOL    HW2 3257  12.008   0.605  13.063  0.6084  2.3985  1.5037
64443SOL     OW 3258   6.053   3.676   0.500  0.0183 -0.4569  0.4677
64443SOL    HW1 3259   6.077   3.606   0.439  0.4255  0.5317 -0.5699
64443SOL    HW2 3260   6.129   3.684   0.558 -0.0688 -0.9329  0.6497
64444SOL     OW 3261   8.473   6.794   6.693  0.4812  0.1945 -0.0316
64444SOL    HW1 3262   8.545   6.851   6.668 -0.8795  1.4623 -1.2334
64444SOL    HW2 3263   8.455   6.743   6.614  2.6882 -3.2045  1.4168
64445SOL     OW 3264  12.384   7.855   1.337 -0.0223  0.3266 -0.4513
64445SOL    HW1 3265  12.372   7.923   1.404  0.4940 -1.2614  1.3618
64445SOL    HW2 3266  12.323   7.786   1.363  1.0950 -0.8485 -0.8726
64446SOL     OW 3267   4.501   9.957   2.563  0.3667  0.1555 -0.0473
64446SOL    HW1 3268   4.453  10.015   2.504 -0.4015 -1.3854 -1.0073
64446SOL    HW2 3269   4.593   9.974   2.545  0.1470 -0.6863 -2.1445
64447SOL     OW 3270   3.662   9.518   3.753  0.0046 -0.0657  0.7224
64447SOL    HW1 3271   3.660   9.422   3.758  2.1605 -0.3352 -1.6598
64447SOL    HW2 3272   3.755   9.540   3.751 -0.4323  1.9308 -0.5724
64448SOL     OW 3273   0.919   5.353   5.604  0.2973 -0.3532  0.0839
64448SOL    HW1 3274   0.985   5.284   5.616 -0.4222 -1.1530 -0.4659
64448SOL    HW2 3275   0.929   5.409   5.681  2.0843 -0.0469 -0.3243
64449SOL     OW 3276   0.851   1.693   6.484  0.1821 -0.0273  0.2233
64449SOL    HW1 3277   0.763   1.723   6.504  0.0959  0.6242 -1.0077
64449SOL    HW2 3278   0.845   1.597   6.481 -1.0845  0.0472 -2.2176
64450SOL     OW 3279   2.024   9.885   9.017 -0.2645 -1.1509  0.1774
64450SOL    HW1 3280   2.022   9.801   8.971  1.8908 -1.1793  0.0721
64450SOL    HW2 3281   2.043   9.863   9.108 -0.2243 -0.7990  0.2587
64451SOL     OW 3282   4.772   0.201   4.526  0.2831  0.3820 -0.1804
64451SOL    HW1 3283   4.793   0.278   4.580  0.4742 -0.0025  0.2967
64451SOL    HW2 3284   4.845   0.196   4.463 -0.6806  1.7127 -1.4812
64452SOL     OW 3285   8.261   8.129   5.868  0.5198 -0.1111 -0.6151
64452SOL    HW1 3286   8.305   8.179   5.800 -0.7068  1.6077 -0.2197
64452SOL    HW2 3287   8.245   8.193   5.938 -1.9019 -0.7876 -0.4485
64453SOL     OW 3288   8.732   8.922   4.124  0.2573  0.0716  0.6857
64453SOL    HW1 3289   8.730   8.983   4.199  1.5686 -1.3649  1.9565
64453SOL    HW2 3290   8.774   8.972   4.054  0.5741  0.9070  1.4451
64454SOL     OW 3291  11.719   9.732   8.578  0.3073 -0.3444 -0.5430
64454SOL    HW1 3292  11.628   9.703   8.575  0.7405 -1.9899  0.5967
64454SOL    HW2 3293  11.770   9.657   8.547  1.3692 -0.1935  0.7221
64455SOL     OW 3294   5.527   7.121  11.665 -0.4555 -0.5518  0.3621
64455SOL    HW1 3295   5.435   7.110  11.690 -0.8723  2.3804  0.5369
64455SOL    HW2 3296   5.577   7.090  11.740 -1.3214 -1.3645  0.6176
64456SOL     OW 3297   8.224   8.389   2.220  0.6170  0.6165 -0.6414
64456SOL    HW1 3298   8.222   8.482   2.195 -0.5780  0.1588 -2.3329
64456SOL    HW2 3299   8.133   8.360   2.215  0.7551 -0.3347  1.2756
64457SOL     OW 3300   4.655   6.652   0.735 -0.3958  0.3647  0.3036
64457SOL    HW1 3301   4.693   6.705   0.665  0.3334  0.2117  0.5784
64457SOL    HW2 3302   4.676   6.561   0.711 -0.8437  0.2559  0.3093
64458SOL     OW 3303   5.476   0.140   1.721  0.1267 -0.0048 -0.2091
64458SOL    HW1 3304   5.396   0.186   1.744 -1.2087 -1.8518 -0.9372
64458SOL    HW2 3305   5.545   0.187   1.769 -1.6049  0.4687  2.0163
64459SOL     OW 3306   3.496   3.081   2.775 -0.3094  0.4325 -0.0500
64459SOL    HW1 3307   3.518   3.140   2.703  0.6202  0.7520  0.4734
64459SOL    HW2 3308   3.409   3.049   2.754  0.1798  0.0465 -1.6231
64460SOL     OW 3309   6.615   9.748   3.880 -0.3785 -0.4119 -0.1912
64460SOL    HW1 3310   6.588   9.835   3.908  1.6908  0.5387 -0.9124
64460SOL    HW2 3311   6.603   9.693   3.957  2.1997  1.4366  1.7111
64461SOL     OW 3312   8.955   6.238  10.013  0.1473  0.0954  0.2396
64461SOL    HW1 3313   9.044   6.224   9.980 -0.0057 -0.9519  0.2326
64461SOL    HW2 3314   8.930   6.323   9.978  0.9693  0.1846 -0.1612
64462SOL     OW 3315   2.573   0.393   9.817 -0.4000  0.4581 -0.2142
64462SOL    HW1 3316   2.654   0.430   9.852 -0.3067 -0.5895  0.7570
64462SOL    HW2 3317   2.546   0.453   9.748  0.6043  1.4192  0.2084
64463SOL     OW 3318   9.250   3.846   5.042 -0.3977  0.0129  1.1447
64463SOL    HW1 3319   9.264   3.789   4.967 -2.4924  0.1207  0.6236
64463SOL    HW2 3320   9.312   3.918   5.030  1.3873 -1.4509  1.1443
64464SOL     OW 3321   3.994   6.384   6.590  0.2531 -0.3510  0.6560
64464SOL    HW1 3322   4.065   6.324   6.567  1.7932  1.9234 -0.9510
64464SOL    HW2 3323   3.930   6.373   6.520  0.2682 -0.5178  0.6679
64465SOL     OW 3324  13.271   1.840   0.154 -0.1794  0.0388  0.5698
64465SOL    HW1 3325  13.211   1.904   0.193  1.4324  2.6727 -0.9764
64465SOL    HW2 3326  13.220   1.798   0.085 -0.9607  0.4601  0.8793
64466SOL     OW 3327   2.101   4.649  12.760  0.1038  0.6806 -0.2205
64466SOL    HW1 3328   2.172   4.626  12.701  0.9098 -0.4891  1.1626
64466SOL    HW2 3329   2.139   4.645  12.847 -1.1485  2.0232  0.4433
64467SOL     OW 3330   3.692   1.011   0.779  0.1652  0.1480  0.2103
64467SOL    HW1 3331   3.679   1.090   0.726  0.3490 -1.1313 -1.8427
64467SOL    HW2 3332   3.637   1.024   0.856 -0.7989  1.7177 -0.7048
64468SOL     OW 3333   1.386   6.178  11.577 -0.4868 -0.3368  0.5552
64468SOL    HW1 3334   1.362   6.271  11.571 -0.5764 -0.4408 -1.6342
64468SOL    HW2 3335   1.479   6.176  11.555 -0.9507 -0.9039 -1.6380
64469SOL     OW 3336  10.004  10.588   0.354  0.1725  0.2871  0.2518
64469SOL    HW1 3337  10.051  10.537   0.289 -0.3935 -0.3619  0.3470
64469SOL    HW2 3338  10.072  10.630   0.406  0.6428  1.3170 -1.1250
64470SOL     OW 3339   9.852   1.626   6.424 -0.1273  0.1740  0.3079
64470SOL    HW1 3340   9.896   1.544   6.402 -0.6062 -0.0600  0.2216
64470SOL    HW2 3341   9.764   1.617   6.388 -0.4711  0.3608  1.0748
64471SOL     OW 3342   8.230  12.428   7.885 -0.3775 -0.0663  0.3750
64471SOL    HW1 3343   8.292  12.493   7.917 -0.5869  1.0942 -1.4658
64471SOL    HW2 3344   8.207  12.377   7.963  2.4057 -0.1714  1.2469
64472SOL     OW 3345  12.285   7.165  11.423 -0.1075  0.0484 -0.7560
64472SOL    HW1 3346  12.301   7.079  11.463  0.5512  0.3373 -0.3720
64472SOL    HW2 3347  12.191   7.179  11.431  0.1455  0.7469  2.1185
64473SOL     OW 3348   2.932   7.931   9.342 -0.5532 -0.1664 -0.2764
64473SOL    HW1 3349   2.871   7.858   9.353 -1.1698  0.6635  2.7443
64473SOL    HW2 3350   2.914   7.964   9.254 -0.9655 -2.9473 -1.3479
64474SOL     OW 3351  11.609  12.664  12.863  0.2902 -0.2740 -0.2445
64474SOL    HW1 3352  11.612  12.755  12.890  1.6987  0.2772 -2.0414
64474SOL    HW2 3353  11.519  12.636  12.881 -0.4369  1.7494 -0.5401
64475SOL     OW 3354   3.634   7.601   6.926  0.4830  0.0879  0.4855
64475SOL    HW1 3355   3.605   7.527   6.873 -0.0347  0.9949 -0.5586
64475SOL    HW2 3356   3.619   7.677   6.870  0.9618  0.9859  1.5396
64476SOL     OW 3357   2.341   1.403   2.252 -0.4347  0.1140  0.0892
64476SOL    HW1 3358   2.291   1.461   2.195  1.3823  0.6010 -1.0913
64476SOL    HW2 3359   2.413   1.371   2.197 -0.2193 -1.6613  1.3022
64477SOL     OW 3360  10.885   3.698   3.804 -0.4934  0.2218 -1.0256
64477SOL    HW1 3361  10.799   3.720   3.768  0.3922  0.8263 -2.8580
64477SOL    HW2 3362  10.948   3.741   3.746  1.1390 -2.1022 -1.0996
64478SOL     OW 3363   4.980   0.518  12.821  0.2763 -0.1820  0.5561
64478SOL    HW1 3364   4.957   0.599  12.776 -0.5735 -0.6589  0.0993
64478SOL    HW2 3365   4.942   0.528  12.909  0.4410  0.0441  0.6014
64479SOL     OW 3366  12.911   0.065   9.709  0.7172  0.0851  0.4683
64479SOL    HW1 3367  12.855   0.094   9.781  0.1846  2.1173 -0.6692
64479SOL    HW2 3368  12.969  -0.000   9.748 -0.7733 -0.2380  2.2749
64480SOL     OW 3369   4.325   3.855   0.160  0.4533 -0.3196  0.6058
64480SOL    HW1 3370   4.370   3.779   0.122  1.5016  0.1206  0.9351
64480SOL    HW2 3371   4.395   3.916   0.182 -0.2591  0.1194  1.7441
64481SOL     OW 3372   0.780  11.736   7.897 -0.0149 -0.2183 -0.4933
64481SOL    HW1 3373   0.693  11.722   7.933  0.5809 -0.7071  0.8367
64481SOL    HW2 3374   0.819  11.648   7.895 -0.1582 -0.3129 -2.8357
64482SOL     OW 3375  12.052   9.683   5.339 -0.3145 -0.0791  0.9761
64482SOL    HW1 3376  12.142   9.655   5.325 -0.6346 -0.4407 -0.4867
64482SOL    HW2 3377  12.058   9.776   5.361  0.2746  0.6313 -1.8318
64483SOL     OW 3378  12.280   7.870  11.687  0.1594  0.1047  0.4142
64483SOL    HW1 3379  12.360   7.874  11.635 -0.1751  1.4720 -0.0231
64483SOL    HW2 3380  12.275   7.955  11.731 -1.5271  0.4071 -0.2968
64484SOL     OW 3381   3.873   2.574  12.588  0.4392 -0.0793  0.4050
64484SOL    HW1 3382   3.823   2.650  12.561  0.4231  0.0599  0.8247
64484SOL    HW2 3383   3.812   2.500  12.581  0.9352 -0.3493 -1.6950
64485SOL     OW 3384   6.180  12.935   1.910 -0.1239  0.8638  0.2376
64485SOL    HW1 3385   6.249  12.997   1.935 -0.0364  0.7856  0.1919
64485SOL    HW2 3386   6.116  12.988   1.863 -0.4127  1.0662  0.8440
64486SOL     OW 3387   0.805   3.617   1.448 -0.2107 -0.0805 -0.0148
64486SOL    HW1 3388   0.849   3.547   1.497 -0.4803 -0.1149  0.1814
64486SOL    HW2 3389   0.863   3.692   1.456  1.0521 -0.7819 -1.8398
64487SOL     OW 3390  10.950  10.448   3.757  0.1959  0.3188  0.1636
64487SOL    HW1 3391  10.928  10.421   3.847 -1.2900  0.1138 -0.2415
64487SOL    HW2 3392  10.912  10.380   3.702  1.7044  0.0741 -0.6224
64488SOL     OW 3393   5.753   6.145   9.381 -0.2937 -0.4389 -0.2237
64488SOL    HW1 3394   5.667   6.123   9.415 -0.3385  0.0131 -0.0310
64488SOL    HW2 3395   5.794   6.061   9.360  0.9261 -1.0294  3.7374
64489SOL     OW 3396   3.334   2.845   3.068 -0.5377 -0.5510 -0.0993
64489SOL    HW1 3397   3.323   2.906   3.141 -1.7171 -0.2947 -0.4754
64489SOL    HW2 3398   3.322   2.758   3.108  2.5927 -0.7188  0.7297
64490SOL     OW 3399   7.678   8.404   2.300 -0.0132  0.0117  0.1852
64490SOL    HW1 3400   7.718   8.387   2.385 -0.0647 -0.0066  0.2058
64490SOL    HW2 3401   7.618   8.477   2.316 -0.3197 -0.2517  0.2532
64491SOL     OW 3402   9.129  10.657   8.055  0.3144 -0.6484  0.2884
64491SOL    HW1 3403   9.173  10.575   8.075 -0.6155 -1.4778 -0.8750
64491SOL    HW2 3404   9.195  10.710   8.010  0.8306 -0.8910  0.7560
64492SOL     OW 3405   3.536   2.102   6.672  0.6434 -0.0833  0.4891
64492SOL    HW1 3406   3.484   2.088   6.592  0.8214 -1.4805  0.5907
64492SOL    HW2 3407   3.488   2.169   6.720  0.5227  0.7893 -0.7734
64493SOL     OW 3408   7.602   4.151  12.808  0.0155  0.3122  0.2289
64493SOL    HW1 3409   7.634   4.089  12.742 -0.1639  1.6479 -1.1662
64493SOL    HW2 3410   7.516   4.178  12.777 -1.5676 -1.4113  2.7077
64494SOL     OW 3411  11.349   8.161   0.269 -0.3628  0.0995  0.0792
64494SOL    HW1 3412  11.432   8.115   0.285  1.2925  2.5158 -0.9462
64494SOL    HW2 3413  11.316   8.183   0.356  0.7994  0.3034  0.4802
64495SOL     OW 3414   1.291   9.695  11.463  0.3054 -0.6823  0.1824
64495SOL    HW1 3415   1.275   9.639  11.387  1.8249 -0.0420 -0.6680
64495SOL    HW2 3416   1.377   9.733  11.446  0.8449 -0.7883  2.4144
64496SOL     OW 3417   9.697   9.245   1.281 -0.5025  0.2478 -0.5772
64496SOL    HW1 3418   9.786   9.222   1.256 -0.0642  0.7822  0.4029
64496SOL    HW2 3419   9.648   9.163   1.274 -0.0330  0.0290 -1.4895
64497SOL     OW 3420   7.817   7.789   9.413 -0.0186  0.4948 -0.2772
64497SOL    HW1 3421   7.828   7.801   9.508 -1.6140 -1.4868  0.2465
64497SOL    HW2 3422   7.882   7.723   9.389 -1.8467 -1.6027  0.2182
64498SOL     OW 3423   1.512   2.328   0.582  0.0495  0.2245 -0.1146
64498SOL    HW1 3424   1.483   2.268   0.513 -0.8516  0.5651 -0.0456
64498SOL    HW2 3425   1.607   2.315   0.587 -0.1674 -1.5717  0.2273
64499SOL     OW 3426   2.952   6.114   1.820 -0.1549  0.2628 -0.1646
64499SOL    HW1 3427   3.042   6.124   1.852  0.0085 -0.1068 -0.5156
64499SOL    HW2 3428   2.898   6.138   1.895  0.2347  0.3724  0.0848
64500SOL     OW 3429   5.529   3.445  12.311  0.3016  0.3196 -0.0121
64500SOL    HW1 3430   5.436   3.466  12.311  0.0153 -0.8693  0.3559
64500SOL    HW2 3431   5.545   3.401  12.228  0.6707  0.9889 -0.3130
64501SOL     OW 3432  13.028   0.116   7.640 -0.2245 -0.2826 -0.4479
64501SOL    HW1 3433  12.980   0.106   7.722 -0.7218 -2.5834 -0.9465
64501SOL    HW2 3434  13.120   0.113   7.665 -0.3148  1.7749  0.2714
64502SOL     OW 3435   3.900   3.784   5.652  0.2912  0.1146  0.0320
64502SOL    HW1 3436   3.942   3.779   5.738  0.6749  0.6555 -0.1237
64502SOL    HW2 3437   3.833   3.852   5.661  1.4694  1.3983 -0.5666
64503SOL     OW 3438   3.501   3.371   0.728  0.0140  0.0012  0.0780
64503SOL    HW1 3439   3.465   3.437   0.787 -0.2095 -0.6520  0.6885
64503SOL    HW2 3440   3.571   3.329   0.779  1.2680  0.8367 -0.8682
64504SOL     OW 3441   4.107   4.594   0.170 -0.2910  0.5298  0.2684
64504SOL    HW1 3442   4.091   4.523   0.233 -0.7069 -0.0266 -0.4501
64504SOL    HW2 3443   4.069   4.562   0.088 -0.3706  1.5398 -0.0954
64505SOL     OW 3444  11.110   9.361   1.295  0.5467 -0.1169 -0.0418
64505SOL    HW1 3445  11.091   9.273   1.329  1.9348 -0.5319 -0.2666
64505SOL    HW2 3446  11.099   9.352   1.200  3.0704 -0.7627 -0.3467
64506SOL     OW 3447   3.200   7.494   1.821 -0.3135 -0.2372  0.1900
64506SOL    HW1 3448   3.150   7.461   1.896  0.3762 -2.8599 -0.4153
64506SOL    HW2 3449   3.147   7.472   1.745 -1.2069  2.7801 -0.1951
64507SOL     OW 3450   6.359   0.294   0.169  0.3206  0.0894 -0.5445
64507SOL    HW1 3451   6.351   0.389   0.158  0.5646  0.0731 -0.8803
64507SOL    HW2 3452   6.402   0.283   0.253 -0.4759  0.2533 -0.1036
64508SOL     OW 3453   7.339   8.084   4.638 -0.4202 -0.1765 -0.3579
64508SOL    HW1 3454   7.279   8.014   4.665 -0.3079  0.2389  1.0155
64508SOL    HW2 3455   7.302   8.116   4.556  0.2335 -2.6934 -1.7715
64509SOL     OW 3456   0.013   0.417   8.460  0.2455  0.2463  0.2349
64509SOL    HW1 3457   0.091   0.428   8.515  0.2537 -0.7671  0.4413
64509SOL    HW2 3458   0.007   0.323   8.446 -0.2863  0.4159 -0.7503
64510SOL     OW 3459   0.917  10.516  12.418 -0.3337  0.5703 -0.2555
64510SOL    HW1 3460   0.923  10.465  12.499  0.6038  0.2573 -0.5071
64510SOL    HW2 3461   0.863  10.464  12.360 -4.5462  2.5911  1.4507
64511SOL     OW 3462   5.526   0.922   6.341 -0.1742 -0.3542  0.1482
64511SOL    HW1 3463   5.504   0.960   6.256 -0.6669 -2.3614 -0.6813
64511SOL    HW2 3464   5.479   0.975   6.404  0.1256  1.1267 -0.8213
64512SOL     OW 3465   6.365   8.830  12.363 -0.1039  0.1575  0.6854
64512SOL    HW1 3466   6.350   8.758  12.303  2.2501  0.7193 -0.7241
64512SOL    HW2 3467   6.408   8.790  12.438 -0.7630 -0.1916  0.8822
64513SOL     OW 3468   7.804   0.397  10.986 -0.1653 -0.2709  0.2466
64513SOL    HW1 3469   7.804   0.401  11.082  1.4996  3.5674  0.2715
64513SOL    HW2 3470   7.750   0.472  10.960  0.0554 -0.7892 -1.8070
64514SOL     OW 3471   6.406   1.006   1.319  0.2674  0.7459  0.2626
64514SOL    HW1 3472   6.489   1.022   1.275  1.4927  0.5391  2.3486
64514SOL    HW2 3473   6.350   1.080   1.295  0.9265  0.7243 -1.4177
64515SOL     OW 3474   5.322   4.464  12.088 -0.0144 -0.7065  0.0676
64515SOL    HW1 3475   5.239   4.503  12.115 -0.1458 -1.0985  0.2299
64515SOL    HW2 3476   5.298   4.381  12.046  0.1990 -0.2003 -1.0951
64516SOL     OW 3477   5.344   7.888   3.296  0.5210  0.2474  0.0387
64516SOL    HW1 3478   5.368   7.855   3.209 -1.0190 -0.6283 -0.0964
64516SOL    HW2 3479   5.355   7.813   3.354 -0.7045  0.1467  0.1661
64517SOL     OW 3480  11.564  11.035   6.861  0.4036  0.0948 -0.1194
64517SOL    HW1 3481  11.634  10.977   6.831 -0.7429 -0.5438 -1.7283
64517SOL    HW2 3482  11.548  11.094   6.787  2.0683  3.1135  1.7194
64518SOL     OW 3483   5.214   2.268  11.304 -0.1980  0.0291 -0.4687
64518SOL    HW1 3484   5.124   2.270  11.336 -0.3379 -0.6178 -0.8142
64518SOL    HW2 3485   5.212   2.319  11.223 -0.3384 -0.3258 -0.6889
64519SOL     OW 3486   9.902   6.881   3.245 -0.0668  0.0780  0.1611
64519SOL    HW1 3487   9.837   6.892   3.176 -0.2408  0.2828  0.3548
64519SOL    HW2 3488   9.980   6.927   3.213  0.1014 -0.4712 -0.2268
64520SOL     OW 3489   4.742   2.920  11.210  0.3571  0.3118  0.5830
64520SOL    HW1 3490   4.754   2.933  11.116 -1.2709 -0.9807  0.1518
64520SOL    HW2 3491   4.788   2.838  11.229  0.1323  0.2332  0.7858
64521SOL     OW 3492  13.065  10.782  12.962 -0.3748  0.3486  0.2091
64521SOL    HW1 3493  13.133  10.846  12.985  0.6810 -0.8581  0.5507
64521SOL    HW2 3494  13.017  10.768  13.044 -1.8611  2.0685 -0.2869
64522SOL     OW 3495  12.082   9.692   9.116  0.1282  0.5801  0.0505
64522SOL    HW1 3496  11.999   9.726   9.148  0.4236  1.8987 -0.5225
64522SOL    HW2 3497  12.075   9.697   9.021  0.7592  0.4498 -0.0095
64523SOL     OW 3498   7.385   9.744   1.528  0.2404 -0.1986  0.6870
64523SOL    HW1 3499   7.308   9.695   1.559 -0.2997 -0.4428 -0.9579
64523SOL    HW2 3500   7.438   9.678   1.483  1.4263 -0.0242  1.7973
64524SOL     OW 3501   6.408   1.731   1.446 -0.2616 -0.0567  0.1769
64524SOL    HW1 3502   6.362   1.664   1.395 -0.9773  0.6600 -0.1395
64524SOL    HW2 3503   6.481   1.758   1.390 -1.6896  1.5481 -1.0389
64525SOL     OW 3504   8.945   4.994   7.213 -0.1038  0.4570  0.0308
64525SOL    HW1 3505   9.039   5.009   7.216  0.0578 -0.0144 -1.6133
64525SOL    HW2 3506   8.934   4.920   7.153 -1.4429 -0.4245  1.2954
64526SOL     OW 3507   2.951   4.268  12.752 -0.3888 -0.0661  0.3006
64526SOL    HW1 3508   2.981   4.354  12.720 -1.0308  0.6713  1.6238
64526SOL    HW2 3509   2.903   4.231  12.677 -1.3579  1.3699  0.1695
64527SOL     OW 3510   5.962   1.178   0.496  0.5366  0.1486 -0.1075
64527SOL    HW1 3511   6.015   1.244   0.542 -1.0012  0.1041  1.8729
64527SOL    HW2 3512   5.973   1.098   0.548 -1.4666  0.1663  0.4331
64528SOL     OW 3513   6.759   0.207   5.280  0.2070  0.0025 -0.4210
64528SOL    HW1 3514   6.756   0.272   5.209  0.2482  0.5342  0.0599
64528SOL    HW2 3515   6.829   0.148   5.254  0.5122  0.4414 -0.6124
64529SOL     OW 3516  12.395  12.006   4.517  0.4434 -0.0414  0.1131
64529SOL    HW1 3517  12.416  12.042   4.431  1.5019 -2.2200 -0.6061
64529SOL    HW2 3518  12.470  12.029   4.572 -0.4496  1.7776  0.6636
64530SOL     OW 3519  11.444   9.248   4.511  0.5221 -0.6745 -0.1902
64530SOL    HW1 3520  11.518   9.306   4.530  0.8443 -1.1919  0.1860
64530SOL    HW2 3521  11.379   9.269   4.578  0.3305 -0.2219 -0.5178
64531SOL     OW 3522   7.774   6.008   7.010 -0.2203 -0.0616  0.2203
64531SOL    HW1 3523   7.845   5.954   6.974  0.8242 -0.0161  2.1133
64531SOL    HW2 3524   7.732   5.952   7.076 -1.2977  0.2899 -0.1386
64532SOL     OW 3525   3.157   4.166   5.051 -0.2513 -0.1797  0.0190
64532SOL    HW1 3526   3.149   4.255   5.017  1.7191  0.5414  1.3024
64532SOL    HW2 3527   3.139   4.174   5.144 -2.0387 -1.5225 -0.1529
64533SOL     OW 3528   3.680   0.195   1.956 -0.1037  0.1989 -0.1187
64533SOL    HW1 3529   3.615   0.261   1.982 -0.0672  0.1762  0.0336
64533SOL    HW2 3530   3.651   0.115   2.000  0.4303  0.3594  0.5446
64534SOL     OW 3531   3.642   4.896   5.505  0.3941  0.2239  0.9276
64534SOL    HW1 3532   3.609   4.824   5.451 -0.7522  0.5539  1.1694
64534SOL    HW2 3533   3.726   4.919   5.465  0.0145 -0.1689 -0.1382
64535SOL     OW 3534   7.627   7.740   3.532 -0.5048 -0.0403  0.3381
64535SOL    HW1 3535   7.561   7.707   3.471 -0.2285  2.6166 -1.5785
64535SOL    HW2 3536   7.693   7.780   3.476  1.3453 -0.1429  2.3228
64536SOL     OW 3537  11.156   3.518   0.789  0.2312 -0.3536  0.2029
64536SOL    HW1 3538  11.071   3.563   0.791  0.2664 -0.2244 -0.5701
64536SOL    HW2 3539  11.136   3.429   0.761  0.2140 -0.7049  1.2849
64537SOL     OW 3540   5.664   3.743   5.166  0.1600  0.4852  0.3853
64537SOL    HW1 3541   5.635   3.653   5.183  0.9880  0.2331  0.5267
64537SOL    HW2 3542   5.615   3.769   5.088  1.7130 -1.0311 -1.2161
64538SOL     OW 3543   2.731   1.510   0.347 -0.2074  0.3763  0.1478
64538SOL    HW1 3544   2.724   1.594   0.301  0.6092 -0.0880 -0.8518
64538SOL    HW2 3545   2.642   1.475   0.346 -0.4608  1.0108  0.1390
64539SOL     OW 3546   2.101  11.815  13.197 -0.0658 -0.3401 -0.1637
64539SOL    HW1 3547   2.152  11.779  13.124 -0.6926 -1.2154 -0.1861
64539SOL    HW2 3548   2.109  11.910  13.187  0.9000 -0.4515 -0.6259
64540SOL     OW 3549   1.110   0.680   5.889  0.1036 -0.2902 -0.7381
64540SOL    HW1 3550   1.050   0.755   5.895 -0.7051 -0.9303 -0.7519
64540SOL    HW2 3551   1.181   0.702   5.949 -1.7075 -0.9581  1.8477
64541SOL     OW 3552   9.205   0.759   3.269  0.1033  0.6195 -0.2440
64541SOL    HW1 3553   9.284   0.808   3.246  0.6398 -0.1530 -0.1071
64541SOL    HW2 3554   9.204   0.758   3.365  0.6867 -0.5113 -0.2260
64542SOL     OW 3555   4.733   9.038  11.708 -0.6250  0.1175  0.3531
64542SOL    HW1 3556   4.795   9.104  11.675 -0.5961  0.3949  0.9508
64542SOL    HW2 3557   4.654   9.052  11.657 -0.4418  0.2578  0.1042
64543SOL     OW 3558  12.800  10.307   7.840 -0.4834 -0.1147 -0.0678
64543SOL    HW1 3559  12.886  10.346   7.857 -0.2139 -0.4626 -0.5966
64543SOL    HW2 3560  12.771  10.349   7.759 -1.6330  1.3450  1.0329
64544SOL     OW 3561  10.061   3.045   3.626 -0.3763  0.0260  0.4681
64544SOL    HW1 3562  10.005   3.108   3.671 -3.8142 -0.5965 -2.4404
64544SOL    HW2 3563  10.019   2.961   3.642  0.5824 -0.6897 -0.6659
64545SOL     OW 3564   1.319   6.895   2.336 -0.1132 -0.5765  0.3447
64545SOL    HW1 3565   1.240   6.944   2.359 -0.2855 -0.1710 -1.0610
64545SOL    HW2 3566   1.291   6.804   2.335 -0.5303 -0.4476  0.0054
64546SOL     OW 3567   7.601   3.408   0.734 -0.2780  0.5118  0.6811
64546SOL    HW1 3568   7.519   3.374   0.698 -0.0299 -0.6773  1.1874
64546SOL    HW2 3569   7.668   3.350   0.698  0.1557  0.4131  1.6205
64547SOL     OW 3570   9.830   1.196   2.798  0.2009 -0.5633 -0.0277
64547SOL    HW1 3571   9.746   1.151   2.789  0.6532 -1.6990  1.0960
64547SOL    HW2 3572   9.892   1.142   2.749  0.7554 -1.2423  1.3602
64548SOL     OW 3573   4.705   4.962  10.050  0.2421 -0.3380 -0.8086
64548SOL    HW1 3574   4.624   4.998  10.015 -0.0525  0.6146  0.7567
64548SOL    HW2 3575   4.768   4.970   9.978 -0.3081  1.6419 -1.1313
64549SOL     OW 3576   1.761   1.531   8.230  0.2883 -0.0538  0.1166
64549SOL    HW1 3577   1.800   1.605   8.277 -0.3481 -1.5576  3.2966
64549SOL    HW2 3578   1.669   1.553   8.223  0.1042 -0.4541  1.0378
64550SOL     OW 3579   1.071   3.139   3.339  0.4673  0.2114  0.0489
64550SOL    HW1 3580   1.068   3.229   3.307  1.4876  1.0039  1.9841
64550SOL    HW2 3581   1.127   3.092   3.277 -0.1338  0.8705 -1.0137
64551SOL     OW 3582   1.141  10.373   2.520 -0.3048  0.0104  0.2035
64551SOL    HW1 3583   1.197  10.418   2.584  1.9397 -3.4045  0.8883
64551SOL    HW2 3584   1.057  10.364   2.564  1.1958 -2.3204  2.9099
64552SOL     OW 3585  13.128  12.059  11.563 -0.2657 -0.1023 -0.0290
64552SOL    HW1 3586  13.158  12.060  11.472  0.4535  0.5323  0.1997
64552SOL    HW2 3587  13.135  12.151  11.591 -1.3078 -0.1429  0.4036
64553SOL     OW 3588   3.259   2.700   3.560 -0.2566 -0.5863 -0.6501
64553SOL    HW1 3589   3.301   2.626   3.516  0.7571 -0.5042  0.1346
64553SOL    HW2 3590   3.302   2.703   3.646 -1.2912  0.0368 -0.1417
64554SOL     OW 3591   3.304   2.602   4.974  0.2710  0.2143  0.4068
64554SOL    HW1 3592   3.275   2.530   4.918 -0.3520 -2.3488  3.7247
64554SOL    HW2 3593   3.223   2.638   5.011  0.7348  0.7546  0.9259
64555SOL     OW 3594  10.578   1.179   4.558  0.1753  0.3382 -0.2600
64555SOL    HW1 3595  10.652   1.152   4.612  0.1937  0.7341 -0.0859
64555SOL    HW2 3596  10.502   1.142   4.602  0.2402  0.2176 -0.2493
64556SOL     OW 3597   9.595   4.280  10.879  0.3112  0.3269  0.1039
64556SOL    HW1 3598   9.583   4.350  10.943 -1.3613  0.3411 -0.1827
64556SOL    HW2 3599   9.601   4.200  10.931  1.7949  0.6014  0.4065
64557SOL     OW 3600  11.760   1.651   3.301 -0.1691  0.0351 -0.6959
64557SOL    HW1 3601  11.804   1.686   3.378 -0.7551  0.4109 -0.5311
64557SOL    HW2 3602  11.738   1.727   3.248 -0.8878 -0.1205 -0.6358
64558SOL     OW 3603   8.175   4.112  10.043  0.0993 -0.4145 -0.2090
64558SOL    HW1 3604   8.083   4.118  10.016  0.6838 -2.3562 -3.1011
64558SOL    HW2 3605   8.176   4.046  10.111 -1.0083  2.2972  2.6987
64559SOL     OW 3606   4.119   9.217  10.718  0.2067  0.1547  0.1949
64559SOL    HW1 3607   4.192   9.158  10.733  0.1851  0.0225 -0.2170
64559SOL    HW2 3608   4.046   9.160  10.694 -0.1099  0.2631  0.8821
64560SOL     OW 3609   7.342   0.983   4.763  0.1014  1.1278 -0.5184
64560SOL    HW1 3610   7.416   1.015   4.814  0.9770  1.2988 -1.8424
64560SOL    HW2 3611   7.294   1.063   4.740 -1.5725  0.9029  1.8221
64561SOL     OW 3612   2.823   1.079   7.053 -1.0809 -0.4532  0.2555
64561SOL    HW1 3613   2.905   1.037   7.029 -0.9715  1.2722 -2.9013
64561SOL    HW2 3614   2.763   1.007   7.070  0.5753 -1.7590  0.7908
64562SOL     OW 3615   5.690  13.250  11.724 -0.4391 -0.8213  0.4430
64562SOL    HW1 3616   5.667  13.218  11.637  1.3172 -0.4808 -0.1978
64562SOL    HW2 3617   5.746  13.326  11.707 -0.7304 -0.2541  1.8889
64563SOL     OW 3618   6.231   9.997  11.939  0.2438  0.1704  0.1681
64563SOL    HW1 3619   6.307  10.029  11.891 -0.5828  1.1092 -0.5473
64563SOL    HW2 3620   6.263   9.984  12.028  1.2994  0.3070 -0.1778
64564SOL     OW 3621  10.119  12.006  11.828 -0.5521 -0.0032 -0.3441
64564SOL    HW1 3622  10.171  11.930  11.801  0.1829  0.4899 -0.3468
64564SOL    HW2 3623  10.117  12.062  11.750  1.1975  1.2209  0.4307
64565SOL     OW 3624  11.943   0.856   9.793  0.0901 -0.0534 -0.2847
64565SOL    HW1 3625  11.930   0.795   9.865 -1.9831  0.1027 -0.4589
64565SOL    HW2 3626  11.859   0.901   9.785  0.9068  1.3298 -1.5252
64566SOL     OW 3627  10.470   5.922  12.463  0.6372  0.0796  0.8625
64566SOL    HW1 3628  10.444   5.988  12.398  0.8959 -1.6788 -1.1440
64566SOL    HW2 3629  10.510   5.972  12.534 -1.9505  2.3112  0.9128
64567SOL     OW 3630   5.062   3.180   7.828 -0.0825 -0.3643  0.2222
64567SOL    HW1 3631   5.062   3.188   7.733 -0.0603  0.1246  0.2594
64567SOL    HW2 3632   4.973   3.154   7.850 -0.2403  0.0774  0.1095
64568SOL     OW 3633   6.718   8.725  10.612 -0.5552 -0.4210  0.2575
64568SOL    HW1 3634   6.746   8.809  10.649 -1.8191 -0.0020  0.3219
64568SOL    HW2 3635   6.659   8.749  10.541 -0.1372 -1.2548 -0.3793
64569SOL     OW 3636  11.022   9.482  11.454 -0.2041  0.2527  0.8633
64569SOL    HW1 3637  11.029   9.552  11.389 -0.3305  0.8178  1.4563
64569SOL    HW2 3638  11.101   9.491  11.507 -1.3625  1.5127  2.4725
64570SOL     OW 3639   9.965  11.461   4.311 -0.3914  0.2475  0.3032
64570SOL    HW1 3640   9.914  11.541   4.320 -0.0037  0.6656 -1.0718
64570SOL    HW2 3641  10.050  11.490   4.277 -0.7143 -0.8584 -1.5824
64571SOL     OW 3642   2.381   0.702   3.786 -0.0137 -0.1982 -0.2383
64571SOL    HW1 3643   2.323   0.668   3.717 -1.9977 -0.6808  1.5320
64571SOL    HW2 3644   2.371   0.797   3.781 -1.4196 -0.2862  0.3500
64572SOL     OW 3645   9.832   9.619   9.155 -0.1947 -0.2355  0.8649
64572SOL    HW1 3646   9.856   9.709   9.174  2.0374 -0.5769 -0.0418
64572SOL    HW2 3647   9.828   9.576   9.240 -0.2508  0.4709  1.2213
64573SOL     OW 3648   0.501   6.332   2.020  0.0443 -0.5070 -0.1786
64573SOL    HW1 3649   0.510   6.366   2.109 -0.2819  0.1754 -0.3996
64573SOL    HW2 3650   0.586   6.348   1.980 -0.5945  1.6519 -0.8087
64574SOL     OW 3651   5.633  11.496   9.200 -0.0805  0.0671 -0.2081
64574SOL    HW1 3652   5.643  11.455   9.286 -0.5710  0.1168 -0.1261
64574SOL    HW2 3653   5.680  11.437   9.140  0.3259  0.0734  0.1054
64575SOL     OW 3654   4.870   4.529  11.510  0.0672 -0.2206 -0.1385
64575SOL    HW1 3655   4.950   4.521  11.459 -0.1363 -2.0294 -0.2298
64575SOL    HW2 3656   4.866   4.450  11.563 -0.3787  1.0136  1.7999
64576SOL     OW 3657   4.195   0.615  10.899  0.8266  0.6586  0.1638
64576SOL    HW1 3658   4.179   0.521  10.911  1.1211  0.6635  0.5876
64576SOL    HW2 3659   4.281   0.619  10.858  0.2809  0.6917 -1.0329
64577SOL     OW 3660  10.681   4.951   5.517  0.3891 -0.3155  0.5890
64577SOL    HW1 3661  10.587   4.950   5.534  0.5885 -0.6211  1.7784
64577SOL    HW2 3662  10.703   5.043   5.506 -0.2103 -0.3160 -0.6946
64578SOL     OW 3663   2.851  12.607   4.191 -0.0048  0.4243 -0.6529
64578SOL    HW1 3664   2.929  12.553   4.178 -0.7344 -0.6901 -0.5629
64578SOL    HW2 3665   2.802  12.562   4.260  0.5039  2.5267  1.1722
64579SOL     OW 3666   7.878   8.961   4.962 -0.1721  0.0192 -0.8213
64579SOL    HW1 3667   7.925   9.013   5.027  0.2017 -0.9322 -0.3181
64579SOL    HW2 3668   7.823   8.901   5.013 -1.2169  0.4545 -1.3962
64580SOL     OW 3669   8.125   3.997   0.452  0.0465 -0.0363  0.4416
64580SOL    HW1 3670   8.151   4.082   0.487 -0.1587 -0.0784  0.7014
64580SOL    HW2 3671   8.029   3.996   0.459  0.0301 -0.1913  0.2151
64581SOL     OW 3672   6.038  11.208  10.087  0.0146  0.6292  0.0658
64581SOL    HW1 3673   5.988  11.161  10.021  2.4793 -2.0915 -0.0647
64581SOL    HW2 3674   6.022  11.159  10.168  2.7996 -0.8317 -0.1128
64582SOL     OW 3675   3.766   0.819   6.065  0.8501  0.0170  0.3058
64582SOL    HW1 3676   3.812   0.858   6.139  1.5976  1.0652 -0.6799
64582SOL    HW2 3677   3.805   0.860   5.988 -0.8117 -0.0696 -0.6278
64583SOL     OW 3678   3.608  11.645   7.387 -0.3347  0.1650  0.2442
64583SOL    HW1 3679   3.621  11.633   7.293  0.3345  0.9323  0.2223
64583SOL    HW2 3680   3.521  11.683   7.395 -1.0720 -1.4268  0.0759
64584SOL     OW 3681   7.218   3.931   1.568  0.2001  0.3842 -0.4641
64584SOL    HW1 3682   7.217   3.885   1.652  0.0005 -0.3897 -0.8793
64584SOL    HW2 3683   7.143   3.894   1.520 -2.7849  4.1980  0.7665
64585SOL     OW 3684   3.946  10.949   1.755  0.1291  0.6712  0.2198
64585SOL    HW1 3685   3.954  11.033   1.709  1.9464  0.4029 -0.0400
64585SOL    HW2 3686   3.955  10.883   1.686  0.3138  0.2717  0.6191
64586SOL     OW 3687   9.653   5.467   0.514  0.4547  0.2914 -0.3735
64586SOL    HW1 3688   9.621   5.552   0.485  0.5697  0.2562 -0.6046
64586SOL    HW2 3689   9.621   5.406   0.447 -1.6564 -0.2001  0.9841
64587SOL     OW 3690   3.820   4.516   6.668  0.1744  0.0762  0.8006
64587SOL    HW1 3691   3.823   4.440   6.727 -1.0204 -0.5681  0.0738
64587SOL    HW2 3692   3.741   4.563   6.695 -0.3335 -0.1798 -0.2148
64588SOL     OW 3693   1.877  11.882  11.721 -0.1355  0.1122  0.8201
64588SOL    HW1 3694   1.943  11.946  11.696  1.2062 -1.0957  1.1498
64588SOL    HW2 3695   1.796  11.913  11.679  0.6965  1.4327  0.1256
64589SOL     OW 3696   0.858   4.270   7.976  0.0752 -0.6014 -0.3142
64589SOL    HW1 3697   0.949   4.297   7.962 -0.3811 -0.0094 -2.6227
64589SOL    HW2 3698   0.852   4.185   7.933 -1.2455  0.9449 -3.4600
64590SOL     OW 3699  12.815   5.801   5.419  0.1662  0.4677 -0.1649
64590SOL    HW1 3700  12.741   5.851   5.454 -0.0569  0.0292 -0.0117
64590SOL    HW2 3701  12.885   5.812   5.484 -0.3563 -0.6349  0.6044
64591SOL     OW 3702   0.560   1.251   7.341 -0.3026  0.3106  0.7837
64591SOL    HW1 3703   0.514   1.179   7.298  0.0224  0.5257  0.0625
64591SOL    HW2 3704   0.548   1.235   7.435  1.4394 -1.7882  0.7194
64592SOL     OW 3705   2.170   0.047   0.432  0.0885 -0.1293 -0.1082
64592SOL    HW1 3706   2.194  -0.043   0.452  1.1955 -0.1740 -1.4990
64592SOL    HW2 3707   2.246   0.084   0.387 -1.1881  0.7689 -1.6789
64593SOL     OW 3708   9.870  13.228  12.625  0.0072  0.2713 -0.3724
64593SOL    HW1 3709   9.797  13.256  12.680 -0.7593 -1.1087 -0.6448
64593SOL    HW2 3710   9.875  13.295  12.557  1.4390  2.4108  1.6985
64594SOL     OW 3711   8.938   0.818  10.360  0.5280 -0.1539  0.0349
64594SOL    HW1 3712   8.866   0.759  10.338  1.8759 -0.7281 -3.6001
64594SOL    HW2 3713   9.001   0.762  10.407  0.4922 -0.8756 -0.7473
64595SOL     OW 3714  12.087   2.056   6.826 -0.0835 -0.3734  0.5601
64595SOL    HW1 3715  12.121   2.015   6.746 -0.8453  0.9981 -0.5223
64595SOL    HW2 3716  12.002   2.091   6.800  0.7094  2.3071  1.2202
64596SOL     OW 3717  12.359   5.183   7.994 -0.3664  0.3272 -0.4365
64596SOL    HW1 3718  12.369   5.218   7.905 -0.0315  0.8217 -0.2057
64596SOL    HW2 3719  12.430   5.120   8.003 -1.4874 -1.1029 -1.1663
64597SOL     OW 3720   0.745   4.955  10.916 -0.2815  0.0229  0.8852
64597SOL    HW1 3721   0.696   4.890  10.866  1.6064 -2.0748  1.6131
64597SOL    HW2 3722   0.680   4.993  10.976 -1.7935  0.0785 -0.6890
64598SOL     OW 3723   7.705  13.079  11.613 -0.2501  0.1103 -0.2600
64598SOL    HW1 3724   7.794  13.107  11.633 -0.3643  0.4829 -0.2690
64598SOL    HW2 3725   7.669  13.054  11.699  0.4651 -1.8410 -0.4824
64599SOL     OW 3726   5.525   5.377   3.368 -0.0271 -0.2737 -0.3493
64599SOL    HW1 3727   5.592   5.382   3.300  0.3773  0.4425  0.0851
64599SOL    HW2 3728   5.567   5.330   3.439  1.0790  2.5940  1.0574
64600SOL     OW 3729  11.741   5.296   0.404 -0.7117  0.0670  0.1298
64600SOL    HW1 3730  11.717   5.342   0.324 -0.3406 -1.6572 -1.0225
64600SOL    HW2 3731  11.816   5.344   0.437 -1.2265  1.1480 -0.2220
64601SOL     OW 3732  10.327   4.246   3.227  0.1420 -0.3631  0.4935
64601SOL    HW1 3733  10.282   4.196   3.295  1.9885 -0.1463  1.9392
64601SOL    HW2 3734  10.273   4.325   3.216  0.4924  0.2582  2.7287
64602SOL     OW 3735  12.646   0.940  12.684 -0.0682 -0.0044 -0.1000
64602SOL    HW1 3736  12.646   0.936  12.589  1.0878  0.9497 -0.1625
64602SOL    HW2 3737  12.738   0.952  12.708 -0.2195 -1.1408  1.1916
64603SOL     OW 3738   1.141   9.811   9.370  0.3091 -0.5983  0.5919
64603SOL    HW1 3739   1.071   9.775   9.316  0.4475 -1.2151  0.8108
64603SOL    HW2 3740   1.222   9.787   9.324  0.3780  1.0052 -0.2124
64604SOL     OW 3741   1.386   9.568   3.063  0.2584  0.0094  0.1805
64604SOL    HW1 3742   1.452   9.553   3.131 -0.7166  1.2744  1.4797
64604SOL    HW2 3743   1.408   9.655   3.027 -0.1859  0.0592  0.0225
64605SOL     OW 3744   6.513   1.966   2.760  0.1974  0.5357  0.4850
64605SOL    HW1 3745   6.449   1.956   2.690  1.4347 -0.6359 -0.5283
64605SOL    HW2 3746   6.523   2.061   2.770 -0.5672  0.7208 -0.3790
64606SOL     OW 3747  10.992   4.134  13.281 -0.1696  0.1388  0.3510
64606SOL    HW1 3748  11.078   4.109  13.313 -0.0293  0.8815  0.5810
64606SOL    HW2 3749  11.004   4.146  13.187  0.4292  1.9513  0.6183
64607SOL     OW 3750   9.233   9.800   8.971  0.5263  0.1698  0.4181
64607SOL    HW1 3751   9.173   9.853   9.024  1.4150 -1.3996  3.2404
64607SOL    HW2 3752   9.183   9.776   8.893 -1.2091  1.8868  0.9244
64608SOL     OW 3753  10.622   8.419  10.565 -0.1102 -0.3050  0.3908
64608SOL    HW1 3754  10.593   8.403  10.655 -0.2101 -0.0471  0.4049
64608SOL    HW2 3755  10.716   8.434  10.573 -0.0495 -0.6674  0.4035
64609SOL     OW 3756   2.812   5.505   4.218  0.0379  0.1645  0.0872
64609SOL    HW1 3757   2.769   5.505   4.133  1.0089  0.9244 -0.4286
64609SOL    HW2 3758   2.834   5.597   4.234  2.5657 -0.3050 -0.2666
64610SOL     OW 3759   9.298  11.794   6.426  0.1138 -0.3780  0.3982
64610SOL    HW1 3760   9.320  11.867   6.485  0.5973  0.8691 -1.2470
64610SOL    HW2 3761   9.381  11.768   6.388 -0.3300 -0.3942 -0.5859
64611SOL     OW 3762   0.182  12.731  12.909  0.2401  0.2154  0.8422
64611SOL    HW1 3763   0.112  12.776  12.956 -1.5602  0.0109 -1.4686
64611SOL    HW2 3764   0.140  12.695  12.831  2.8490 -0.3246 -0.4416
64612SOL     OW 3765   2.805   3.595   6.041 -0.0592  0.0416 -0.4605
64612SOL    HW1 3766   2.897   3.574   6.056 -0.7633 -3.4970 -0.3419
64612SOL    HW2 3767   2.786   3.562   5.953 -1.6908 -1.3482  0.3589
64613SOL     OW 3768   5.144  10.218   3.411 -0.4224  0.5574 -0.4251
64613SOL    HW1 3769   5.192  10.218   3.494 -1.0527 -2.8489  0.1076
64613SOL    HW2 3770   5.187  10.285   3.358  0.6568  2.1337  2.2705
64614SOL     OW 3771   9.115   4.888   3.552 -0.0292 -0.1984  0.0352
64614SOL    HW1 3772   9.210   4.883   3.543 -0.0756 -1.5680  0.1499
64614SOL    HW2 3773   9.099   4.973   3.595  1.1134  0.1131 -0.1230
64615SOL     OW 3774   2.690   4.135  11.922 -0.3074  0.4490 -0.0088
64615SOL    HW1 3775   2.603   4.096  11.936 -0.0062  0.0108  0.6849
64615SOL    HW2 3776   2.678   4.227  11.945 -0.2886  0.1313  1.3588
64616SOL     OW 3777   0.875   9.631   7.360  0.2080 -0.1347  0.2325
64616SOL    HW1 3778   0.827   9.677   7.291 -0.3722 -0.1822  0.6044
64616SOL    HW2 3779   0.907   9.551   7.318  0.3322  0.1011 -0.1284
64617SOL     OW 3780   3.737   3.003  12.602  0.7034  0.1605 -0.3961
64617SOL    HW1 3781   3.717   2.923  12.555 -1.4758 -0.1296  0.8895
64617SOL    HW2 3782   3.729   3.072  12.537 -0.7843 -0.3652 -0.8054
64618SOL     OW 3783   3.980  11.887   0.217  0.7852 -0.1378  0.2442
64618SOL    HW1 3784   4.026  11.915   0.296  1.5506 -1.5836  0.3376
64618SOL    HW2 3785   3.928  11.963   0.191  1.4183  0.7398  1.4765
64619SOL     OW 3786  13.138   8.215   9.234 -0.3123  0.0017 -0.3197
64619SOL    HW1 3787  13.148   8.132   9.188  0.4971  1.1566 -2.3667
64619SOL    HW2 3788  13.210   8.269   9.202 -1.9217  2.1385 -0.5791
64620SOL     OW 3789   3.882   2.135   5.199  0.1462 -0.1394  0.1008
64620SOL    HW1 3790   3.822   2.071   5.239  0.4157  0.8045  2.1052
64620SOL    HW2 3791   3.902   2.098   5.113 -0.2594 -2.4123  0.9164
64621SOL     OW 3792   4.416   8.980  12.312 -0.2016 -0.0080  0.2142
64621SOL    HW1 3793   4.493   9.030  12.284  0.2101  0.3311  1.8454
64621SOL    HW2 3794   4.452   8.908  12.365 -0.9170 -0.8870 -0.4492
64622SOL     OW 3795   2.304   7.667   3.450 -0.0875 -0.1320  0.3392
64622SOL    HW1 3796   2.284   7.713   3.531 -2.1638  1.0208 -0.7363
64622SOL    HW2 3797   2.369   7.722   3.407 -0.0263  0.0086  0.6091
64623SOL     OW 3798   3.927   7.916   1.178 -0.7364 -0.5335  0.5205
64623SOL    HW1 3799   3.901   7.929   1.270 -0.8341 -0.1710  0.4422
64623SOL    HW2 3800   3.863   7.966   1.128 -0.2634 -0.1509  0.2929
64624SOL     OW 3801   3.741   0.608   7.580 -0.1437 -0.7013  0.4983
64624SOL    HW1 3802   3.748   0.633   7.488 -0.4564 -0.4601  0.5393
64624SOL    HW2 3803   3.648   0.588   7.593 -0.4327  0.9134  1.1747
64625SOL     OW 3804   8.184  12.604   6.701 -0.1839 -0.1990 -0.3350
64625SOL    HW1 3805   8.230  12.661   6.640  0.6612 -1.0626 -0.5258
64625SOL    HW2 3806   8.095  12.599   6.666 -0.2525  0.9314 -0.3478
64626SOL     OW 3807   0.314   1.260   7.006 -0.9381  0.4450 -0.0148
64626SOL    HW1 3808   0.278   1.181   7.046 -1.2160 -0.4632 -1.9612
64626SOL    HW2 3809   0.270   1.332   7.052 -1.2917 -0.5127  1.2177
64627SOL     OW 3810   1.142  11.051  10.825 -0.4446 -0.1027 -0.1983
64627SOL    HW1 3811   1.170  11.082  10.739  0.3149 -0.8221 -0.2265
64627SOL    HW2 3812   1.184  11.110  10.887 -0.9529  0.3863 -0.3120
64628SOL     OW 3813   6.699   2.018   0.467  0.4315 -0.7339  0.4406
64628SOL    HW1 3814   6.651   1.980   0.541 -2.7668  0.6862 -0.7458
64628SOL    HW2 3815   6.767   2.071   0.508 -0.7211 -0.6462  2.3760
64629SOL     OW 3816  11.994   3.109   0.828 -0.1731 -0.0981 -0.0606
64629SOL    HW1 3817  12.016   3.202   0.827 -0.9517  0.0988 -1.1878
64629SOL    HW2 3818  11.908   3.105   0.786 -0.4989 -1.2504  0.6889
64630SOL     OW 3819   5.761   5.588   6.468  0.3404  0.8243  0.6753
64630SOL    HW1 3820   5.732   5.671   6.507  1.4414  1.2295  0.6808
64630SOL    HW2 3821   5.681   5.538   6.455 -0.2320  1.3851  1.8551
64631SOL     OW 3822   5.551   2.686  10.239  0.0344 -0.4299 -0.0781
64631SOL    HW1 3823   5.540   2.667  10.146  0.9052  0.2876 -0.3416
64631SOL    HW2 3824   5.575   2.779  10.242  2.1354 -0.9565  0.6905
64632SOL     OW 3825  11.861   7.160  12.220 -0.4922 -0.0240  0.2436
64632SOL    HW1 3826  11.938   7.163  12.162 -1.1203 -1.2022 -0.7203
64632SOL    HW2 3827  11.799   7.103  12.173 -0.5025 -2.2387  2.7109
64633SOL     OW 3828  12.297   3.763   7.606 -0.3144  0.2515  0.2623
64633SOL    HW1 3829  12.207   3.773   7.636 -0.2063 -0.9354  1.0460
64633SOL    HW2 3830  12.350   3.786   7.683  0.1174  2.0855 -0.5175
64634SOL     OW 3831   0.650  10.099   4.636 -0.1356 -0.0925 -0.5835
64634SOL    HW1 3832   0.697  10.127   4.557  1.5157 -0.3070  0.2797
64634SOL    HW2 3833   0.693  10.145   4.708 -1.2975 -0.2700  0.2634
64635SOL     OW 3834   4.926  10.328  12.806 -0.2724  0.0639  1.0088
64635SOL    HW1 3835   4.903  10.358  12.894  1.4817  1.0338  1.1864
64635SOL    HW2 3836   4.883  10.391  12.747 -1.6763 -0.7462  1.1203
64636SOL     OW 3837   3.954   8.995   7.613  0.4986 -0.0082 -0.2999
64636SOL    HW1 3838   3.876   9.034   7.652  0.4860  1.1383 -1.3871
64636SOL    HW2 3839   3.973   9.051   7.537  1.2682 -1.3686 -1.1533
64637SOL     OW 3840   4.810   5.736  11.892 -0.5160 -0.5968  0.1824
64637SOL    HW1 3841   4.745   5.708  11.957 -2.6494  1.0976 -1.1237
64637SOL    HW2 3842   4.765   5.799  11.837  1.9499 -0.1333 -1.4912
64638SOL     OW 3843   5.959   5.684   8.362  0.0920 -0.1119 -0.2628
64638SOL    HW1 3844   5.878   5.735   8.358  0.5579  0.9265  1.9239
64638SOL    HW2 3845   6.010   5.714   8.286 -1.0652  0.0913 -0.9788
64639SOL     OW 3846  12.578   7.741   8.195  0.5974 -0.3282 -0.2859
64639SOL    HW1 3847  12.495   7.756   8.149  0.6570  0.0860 -0.2685
64639SOL    HW2 3848  12.566   7.658   8.241 -0.3118  0.3732  0.8113
64640SOL     OW 3849   0.426  10.425   1.116 -0.0003 -0.0609  0.0926
64640SOL    HW1 3850   0.384  10.496   1.165 -0.0898  0.0237 -0.1068
64640SOL    HW2 3851   0.359  10.357   1.110  0.1304 -0.2206  0.4033
64641SOL     OW 3852   4.259   1.048  10.559 -1.0923 -0.3605  0.1247
64641SOL    HW1 3853   4.217   1.126  10.595 -1.8586  0.2734 -1.9680
64641SOL    HW2 3854   4.323   1.021  10.625 -1.7098  1.2768  1.4438
64642SOL     OW 3855   7.179   6.282  10.808 -0.4799  0.1158  0.5792
64642SOL    HW1 3856   7.185   6.204  10.754  2.1215 -0.2973  1.3357
64642SOL    HW2 3857   7.092   6.318  10.789 -1.4752 -2.5270 -0.3232
64643SOL     OW 3858   8.865   9.057   8.154  0.1111  0.2270  0.6898
64643SOL    HW1 3859   8.793   9.095   8.106  2.0802  0.8284 -2.0376
64643SOL    HW2 3860   8.926   9.129   8.168  2.6240 -1.1370 -2.0616
64644SOL     OW 3861   4.905   8.518   4.094  0.4716 -0.7983 -0.2956
64644SOL    HW1 3862   4.918   8.424   4.084 -0.4704 -1.3534  2.6556
64644SOL    HW2 3863   4.968   8.544   4.161 -1.0023  0.0664  0.8366
64645SOL     OW 3864  10.403   9.228   5.703  0.4369 -0.1687  0.7543
64645SOL    HW1 3865  10.377   9.256   5.790  0.3164  2.3914 -0.0362
64645SOL    HW2 3866  10.492   9.261   5.692  1.5396 -2.8398  0.8433
64646SOL     OW 3867   1.164   8.774   2.422  0.1771  0.2945 -0.0171
64646SOL    HW1 3868   1.097   8.805   2.483  0.4243  1.1392 -0.1646
64646SOL    HW2 3869   1.116   8.754   2.341 -0.0773 -0.3621  0.2821
64647SOL     OW 3870   2.537   4.442   4.191  0.5820 -0.0885 -0.3633
64647SOL    HW1 3871   2.536   4.533   4.162  0.4959 -0.4317 -1.4825
64647SOL    HW2 3872   2.604   4.401   4.138 -0.9716 -1.1976 -1.5611
64648SOL     OW 3873   5.639  12.416   1.258  0.0195  0.0859 -0.3459
64648SOL    HW1 3874   5.602  12.328   1.256  0.6189 -0.1950  0.3884
64648SOL    HW2 3875   5.593  12.460   1.329 -0.0075  0.2454 -0.4609
64649SOL     OW 3876   4.328  12.558   5.560 -0.3225  0.2715  0.5011
64649SOL    HW1 3877   4.378  12.477   5.566  0.5670  0.8072  0.4232
64649SOL    HW2 3878   4.270  12.556   5.636 -2.0852 -1.5877 -0.7867
64650SOL     OW 3879  12.311  11.340  13.074 -0.9059  0.0561 -0.1007
64650SOL    HW1 3880  12.230  11.371  13.115  0.0174  0.6391  1.3522
64650SOL    HW2 3881  12.333  11.408  13.010 -1.5459 -0.1147 -0.5185
64651SOL     OW 3882   5.729   3.941   0.529 -0.5288  0.1699 -0.3945
64651SOL    HW1 3883   5.693   3.873   0.473  0.1462  0.4571 -1.2003
64651SOL    HW2 3884   5.666   3.951   0.600 -0.6806 -1.2110 -0.3242
64652SOL     OW 3885  10.770  11.471  10.409 -0.1503 -0.0681  0.1219
64652SOL    HW1 3886  10.760  11.559  10.443 -0.6780 -0.5727  1.3356
64652SOL    HW2 3887  10.685  11.429  10.426  0.4366 -1.1194  0.5418
64653SOL     OW 3888   5.668   3.786   0.105  0.7200 -0.0082  0.0521
64653SOL    HW1 3889   5.699   3.874   0.127 -0.8607  0.8580 -1.0282
64653SOL    HW2 3890   5.672   3.739   0.188 -0.0125  1.5979  1.0537
64654SOL     OW 3891   5.940   5.790  12.103  0.0847  0.1726 -0.5450
64654SOL    HW1 3892   5.908   5.809  12.191  3.8819 -0.6840  1.2335
64654SOL    HW2 3893   5.942   5.694  12.099  0.2367  0.2034 -1.4746
64655SOL     OW 3894   2.414   0.800  11.780 -0.2730 -0.1527  0.0848
64655SOL    HW1 3895   2.382   0.760  11.860  0.8689 -2.8130 -0.6694
64655SOL    HW2 3896   2.372   0.886  11.777 -1.8299 -0.7360  2.5198
64656SOL     OW 3897   2.525   7.100  11.127  0.1824 -0.0983 -0.2595
64656SOL    HW1 3898   2.517   7.191  11.097 -0.7850  0.3194  1.1789
64656SOL    HW2 3899   2.498   7.047  11.052 -0.8645  0.8664 -0.5890
64657SOL     OW 3900   5.685   2.824   2.455 -0.4859 -0.1312 -0.2609
64657SOL    HW1 3901   5.595   2.833   2.421 -1.0199 -2.1428  0.4771
64657SOL    HW2 3902   5.728   2.766   2.392  0.4569  1.0942 -0.8002
64658SOL     OW 3903   5.870   0.999  13.156 -0.4583  0.4605 -0.0667
64658SOL    HW1 3904   5.844   0.977  13.067  1.0278  1.3068 -0.7415
64658SOL    HW2 3905   5.821   0.938  13.211 -1.1565 -0.2885 -1.4754
64659SOL     OW 3906  11.684   4.407   0.039  0.5140 -0.0102 -0.1136
64659SOL    HW1 3907  11.685   4.498   0.011  1.6952  0.2840  0.7869
64659SOL    HW2 3908  11.752   4.365  -0.013  0.6622 -0.1392  0.1820
64660SOL     OW 3909   8.936   6.577   4.880 -0.0497  0.7355  0.1854
64660SOL    HW1 3910   8.882   6.545   4.807  0.6835  0.7904 -0.3986
64660SOL    HW2 3911   8.900   6.533   4.957 -2.0879  2.1255  0.1181
64661SOL     OW 3912   2.559  10.815   0.619 -0.1366 -0.1782 -0.1601
64661SOL    HW1 3913   2.523  10.807   0.531 -0.4522  2.7114 -0.3674
64661SOL    HW2 3914   2.483  10.823   0.676  0.0926 -0.1732  0.1471
64662SOL     OW 3915  11.489  12.415   6.414  0.3419 -0.3192  0.1253
64662SOL    HW1 3916  11.501  12.506   6.442 -0.0299 -0.3816  0.4894
64662SOL    HW2 3917  11.578  12.381   6.407  0.4488 -0.2302  1.0041
64663SOL     OW 3918   5.258   7.515  12.272  0.5171  0.0643  0.2977
64663SOL    HW1 3919   5.200   7.474  12.208 -0.6414 -0.4178  1.6103
64663SOL    HW2 3920   5.323   7.448  12.293 -0.7602 -0.8279  1.6630
64664SOL     OW 3921   3.274   4.117  11.168 -0.1718 -0.0988  0.1874
64664SOL    HW1 3922   3.229   4.054  11.223  1.7325 -3.2806 -1.6129
64664SOL    HW2 3923   3.242   4.099  11.080  0.3355  1.5906 -0.3828
64665SOL     OW 3924   5.576   8.224   9.808 -0.0703  0.4235 -0.1066
64665SOL    HW1 3925   5.637   8.200   9.738 -0.3874 -0.9570  0.0726
64665SOL    HW2 3926   5.632   8.237   9.885  0.1622  0.8638 -0.3438
64666SOL     OW 3927   1.972   9.614   4.886  0.1579  0.4297 -0.5384
64666SOL    HW1 3928   1.885   9.627   4.850 -0.4164  1.2026  1.0276
64666SOL    HW2 3929   2.029   9.671   4.835 -0.5021  0.9761 -0.6639
64667SOL     OW 3930   2.940   4.189   1.618 -0.0735 -0.0176  0.2209
64667SOL    HW1 3931   2.986   4.263   1.658 -0.7727 -0.1292  1.2637
64667SOL    HW2 3932   2.990   4.112   1.644  1.3457  0.1297 -1.8426
64668SOL     OW 3933   6.771   9.635   5.348  0.1045 -0.0916  0.1503
64668SOL    HW1 3934   6.865   9.632   5.329  0.6042  1.6076  2.0491
64668SOL    HW2 3935   6.763   9.597   5.435 -1.3056 -2.0673 -0.7661
64669SOL     OW 3936   8.652   3.202   0.020 -0.5808 -0.4194  0.7035
64669SOL    HW1 3937   8.656   3.136   0.089 -1.1338 -2.4703 -1.1146
64669SOL    HW2 3938   8.560   3.228   0.017 -1.1408 -2.3017 -0.8894
64670SOL     OW 3939   4.533   8.387   6.261 -0.4324 -0.3508 -0.5877
64670SOL    HW1 3940   4.486   8.470   6.264 -0.1463 -0.0953 -2.2621
64670SOL    HW2 3941   4.515   8.346   6.346 -2.0815  0.5948 -0.4389
64671SOL     OW 3942   1.377   1.647   8.453 -0.2715 -0.2229  0.4942
64671SOL    HW1 3943   1.410   1.594   8.380 -0.5278 -0.3843  0.4966
64671SOL    HW2 3944   1.428   1.728   8.448  0.6386 -0.7400  0.9219
64672SOL     OW 3945   9.953   6.014   5.110 -0.0611  0.5647  0.1657
64672SOL    HW1 3946  10.041   6.003   5.146 -0.8640  1.6049  2.6889
64672SOL    HW2 3947   9.903   5.941   5.147 -0.0633 -0.7737 -2.2642
64673SOL     OW 3948  12.031   1.060   7.289 -0.0352 -0.5480  0.3878
64673SOL    HW1 3949  12.000   0.973   7.267  1.1250 -0.7347 -0.6702
64673SOL    HW2 3950  12.042   1.104   7.204  0.6396  0.1708  0.8277
64674SOL     OW 3951   4.137   6.295  11.187  0.3997 -0.1635 -0.0895
64674SOL    HW1 3952   4.106   6.209  11.159  0.2128 -0.6238  1.4540
64674SOL    HW2 3953   4.172   6.280  11.275 -1.4192  1.7048  1.0215
64675SOL     OW 3954   2.026   6.930  12.619  0.4600  0.2514  0.1229
64675SOL    HW1 3955   1.938   6.905  12.646  0.4553  1.2643  1.1025
64675SOL    HW2 3956   2.076   6.848  12.621 -0.3669 -0.2664 -0.1039
64676SOL     OW 3957   8.323   8.693  13.289 -0.3647 -0.1426  0.0880
64676SOL    HW1 3958   8.389   8.719  13.353  1.5542 -0.3612 -1.6999
64676SOL    HW2 3959   8.262   8.638  13.339  1.5764 -1.0990  1.5435
64677SOL     OW 3960   0.302   0.154   5.623 -0.3966  0.3397  0.0741
64677SOL    HW1 3961   0.329   0.116   5.539 -0.5234  0.4635 -0.0217
64677SOL    HW2 3962   0.384   0.166   5.670 -0.2233  1.2014 -0.4220
64678SOL     OW 3963   6.515   0.437  11.648  0.3759  0.3502 -0.7566
64678SOL    HW1 3964   6.466   0.369  11.695  0.2182  0.6001 -0.5602
64678SOL    HW2 3965   6.452   0.475  11.587 -0.3283  2.1925  1.0315
64679SOL     OW 3966  10.512   3.056   2.401 -0.0738 -0.4337 -0.2537
64679SOL    HW1 3967  10.462   3.068   2.320 -0.3164  1.7397  0.1563
64679SOL    HW2 3968  10.447   3.065   2.470  0.0865 -2.5357  0.2420
64680SOL     OW 3969  12.792   6.536   5.869  0.1063 -0.2630  0.4822
64680SOL    HW1 3970  12.826   6.448   5.856  2.2889  0.5085  0.6648
64680SOL    HW2 3971  12.859   6.594   5.834 -0.6550  1.3795  1.5876
64681SOL     OW 3972  11.770   9.062   0.075  0.6100  0.5956 -0.5135
64681SOL    HW1 3973  11.708   9.064   0.003 -0.3952  1.6347  0.3213
64681SOL    HW2 3974  11.725   9.110   0.145  2.0212  0.6293  0.3972
64682SOL     OW 3975  12.559  12.467   3.436 -0.2855 -0.3261 -0.6359
64682SOL    HW1 3976  12.643  12.509   3.453  0.1593 -1.6797  0.6776
64682SOL    HW2 3977  12.528  12.509   3.355  2.0649 -0.4377 -1.6811
64683SOL     OW 3978   9.358   9.978  11.564 -0.1443 -0.1602 -0.0394
64683SOL    HW1 3979   9.327   9.932  11.642  0.9129  1.2804  1.3008
64683SOL    HW2 3980   9.338  10.070  11.581  1.1535  0.3207 -0.9483
64684SOL     OW 3981   6.229   9.752  11.744 -0.2076  0.0032  0.4482
64684SOL    HW1 3982   6.163   9.685  11.728 -0.5302  0.1174  1.2632
64684SOL    HW2 3983   6.182   9.835  11.730  0.3107  0.0727 -1.0295
64685SOL     OW 3984  11.972   6.058   5.626  0.0807  0.1827  0.0584
64685SOL    HW1 3985  11.946   5.992   5.562  0.2385  0.6054 -0.4397
64685SOL    HW2 3986  11.889   6.095   5.658  0.0238  0.6668 -0.6298
64686SOL     OW 3987   5.085  12.503  11.109  0.0770  0.0649 -0.0498
64686SOL    HW1 3988   5.166  12.511  11.159 -1.6558  1.8699  2.7225
64686SOL    HW2 3989   5.082  12.582  11.055  1.1086 -1.0563 -1.8653
64687SOL     OW 3990   8.162  10.831   8.248 -0.0735  0.0635 -0.3137
64687SOL    HW1 3991   8.223  10.779   8.195 -1.0174 -1.9769  0.5006
64687SOL    HW2 3992   8.207  10.843   8.331 -0.5565 -1.0875  0.1411
64688SOL     OW 3993  10.628   7.900  11.571  0.0251 -0.2327 -0.3000
64688SOL    HW1 3994  10.635   7.840  11.496  0.5660  0.0923 -0.5196
64688SOL    HW2 3995  10.648   7.845  11.647  1.5780 -0.1356 -0.5933
64689SOL     OW 3996  12.483  13.177  11.406 -0.7682  0.8398  0.0507
64689SOL    HW1 3997  12.531  13.197  11.326 -1.9756  3.0400 -0.1793
64689SOL    HW2 3998  12.540  13.208  11.476 -1.0171  1.6746 -0.1158
64690SOL     OW 3999   7.285  12.311   2.296  0.4493 -0.0649 -0.1178
64690SOL    HW1 4000   7.315  12.272   2.378  1.1289  0.1151 -0.2731
64690SOL    HW2 4001   7.301  12.243   2.230 -2.8944 -1.4499  0.2633
64691SOL     OW 4002  11.787   2.979   7.101 -0.2183 -0.2882 -0.2488
64691SOL    HW1 4003  11.744   3.055   7.062 -0.5332 -0.5170 -0.3552
64691SOL    HW2 4004  11.777   2.910   7.035 -0.0733 -0.4653 -0.0857
64692SOL     OW 4005   9.438   9.407  10.252  0.0331 -0.0595 -0.0536
64692SOL    HW1 4006   9.395   9.347  10.191  3.2722 -1.1340 -1.5036
64692SOL    HW2 4007   9.425   9.494  10.214 -0.6385 -0.3546 -0.5283
64693SOL     OW 4008   3.911  11.962   7.121  0.6003  0.2491 -0.5287
64693SOL    HW1 4009   3.823  11.937   7.094  0.2512  0.4141  0.4487
64693SOL    HW2 4010   3.956  11.878   7.135  0.1415  0.1486  0.4297
64694SOL     OW 4011   1.253   0.095  12.198  0.2450  0.3501 -0.1858
64694SOL    HW1 4012   1.210   0.158  12.140 -0.3709 -1.5376 -1.8484
64694SOL    HW2 4013   1.346   0.120  12.195  0.3502 -0.1322 -2.6283
64695SOL     OW 4014   2.707   9.958   8.153 -0.3383  0.0366 -0.8378
64695SOL    HW1 4015   2.791   9.914   8.137  0.1364  0.9176 -0.7951
64695SOL    HW2 4016   2.648   9.919   8.088  0.7481  1.2212 -2.6266
64696SOL     OW 4017   4.189   9.225   0.076  0.0962 -0.0289  0.4711
64696SOL    HW1 4018   4.177   9.221  -0.019 -0.5229  0.6459  0.5089
64696SOL    HW2 4019   4.100   9.231   0.111  0.2292 -1.8036  1.1872
64697SOL     OW 4020  12.602   6.860   9.812 -0.1537  0.3105 -0.6828
64697SOL    HW1 4021  12.677   6.806   9.839  0.0573  0.7123 -0.4550
64697SOL    HW2 4022  12.597   6.847   9.717 -0.8559 -1.0548 -0.4829
64698SOL     OW 4023  11.135   8.171   2.749  0.0782  0.4100  0.3372
64698SOL    HW1 4024  11.191   8.237   2.708  1.2654 -1.2566 -0.8159
64698SOL    HW2 4025  11.189   8.133   2.818  0.0325 -0.5739 -0.1650
64699SOL     OW 4026   5.234  11.989  11.533 -0.4928  0.2622  0.2219
64699SOL    HW1 4027   5.160  12.049  11.541 -0.7740 -0.0637  0.0942
64699SOL    HW2 4028   5.200  11.905  11.563  0.4138  0.5414  2.1453
64700SOL     OW 4029   0.438   0.645   2.736  0.2887 -0.2612 -0.7196
64700SOL    HW1 4030   0.501   0.589   2.782  0.6463 -1.1882 -2.2804
64700SOL    HW2 4031   0.430   0.607   2.649 -2.5357 -0.2366 -0.5755
64701SOL     OW 4032   3.246   2.343   7.744  0.4229 -0.2250  0.1038
64701SOL    HW1 4033   3.284   2.429   7.726 -0.1029 -0.3456 -1.7997
64701SOL    HW2 4034   3.153   2.361   7.761  0.2202 -0.4361 -0.7337
64702SOL     OW 4035   2.527   2.937   2.420 -0.1371 -0.3284 -0.4007
64702SOL    HW1 4036   2.537   3.017   2.472 -1.2700  0.1180 -0.8395
64702SOL    HW2 4037   2.476   2.878   2.476 -0.2001 -0.3518 -0.4831
64703SOL     OW 4038   0.646   4.488   6.011 -0.3485  0.2513  0.2847
64703SOL    HW1 4039   0.702   4.416   6.040 -0.2487 -0.1883 -0.9487
64703SOL    HW2 4040   0.701   4.538   5.951 -1.3369 -0.3239 -1.1337
64704SOL     OW 4041   8.216   3.381  12.563  0.0774 -0.2564 -0.2094
64704SOL    HW1 4042   8.200   3.442  12.491 -2.1460  0.0157  0.4274
64704SOL    HW2 4043   8.260   3.307  12.523  0.6612  0.7359 -1.4618
64705SOL     OW 4044  10.480  12.159   7.645 -0.1954 -0.4568  0.1339
64705SOL    HW1 4045  10.547  12.216   7.608 -1.0120  0.3031 -0.2157
64705SOL    HW2 4046  10.488  12.169   7.739 -0.4402  0.3862  0.0733
64706SOL     OW 4047  13.269   5.903   3.430  0.0897 -0.2218  0.1215
64706SOL    HW1 4048  13.303   5.847   3.360 -0.7191 -2.1839  1.2129
64706SOL    HW2 4049  13.322   5.882   3.506  0.4645  1.3427  0.3366
64707SOL     OW 4050   4.907   4.915   6.655  0.2103  0.2631  0.3757
64707SOL    HW1 4051   4.903   5.009   6.675  1.6821  0.3160  0.5287
64707SOL    HW2 4052   4.970   4.908   6.584  0.3598 -0.6447  0.5867
64708SOL     OW 4053   4.781   3.897   3.279  0.1337 -0.0394 -0.4803
64708SOL    HW1 4054   4.869   3.864   3.260 -0.7280 -1.0751 -3.0888
64708SOL    HW2 4055   4.734   3.892   3.196 -2.6012 -0.0602  0.9331
64709SOL     OW 4056   5.890   0.214   7.878  0.0148  0.3639  0.1098
64709SOL    HW1 4057   5.958   0.234   7.942  0.6329  3.6754 -1.3286
64709SOL    HW2 4058   5.833   0.291   7.879 -1.4063 -0.5912 -1.5121
64710SOL     OW 4059   3.063   9.517   0.636  0.4190 -0.2514 -0.2684
64710SOL    HW1 4060   3.048   9.602   0.678  0.4713 -0.7363  0.7729
64710SOL    HW2 4061   3.109   9.466   0.703  1.4263 -0.7232 -1.3035
64711SOL     OW 4062   2.587  13.065   5.931 -0.4857  0.6335 -0.3391
64711SOL    HW1 4063   2.569  13.047   5.839 -1.1863  2.1802 -0.5367
64711SOL    HW2 4064   2.579  13.160   5.939  3.3216  1.0776  0.4942
64712SOL     OW 4065   1.743  12.850  12.905 -0.4736  0.4354 -0.1826
64712SOL    HW1 4066   1.755  12.886  12.993 -0.8461  0.5115 -0.1646
64712SOL    HW2 4067   1.831  12.852  12.867 -0.3581  0.6493  0.0923
64713SOL     OW 4068   3.337   2.378   8.027 -0.0610 -0.2912 -0.5695
64713SOL    HW1 4069   3.295   2.374   7.941 -0.3784  1.0560 -0.4990
64713SOL    HW2 4070   3.267   2.354   8.089 -0.2228  0.1223 -0.5894
64714SOL     OW 4071   2.674   0.690   0.114  0.2267 -0.0842 -0.1789
64714SOL    HW1 4072   2.744   0.743   0.077 -0.5976  1.0251 -0.1952
64714SOL    HW2 4073   2.657   0.729   0.200  0.0719 -0.7468  0.0950
64715SOL     OW 4074  11.166  11.122   5.913  0.3230 -0.0179  0.3594
64715SOL    HW1 4075  11.223  11.174   5.856 -0.2947 -0.0740 -0.3199
64715SOL    HW2 4076  11.107  11.077   5.853 -0.9593  0.6422  1.0932
64716SOL     OW 4077   4.985   9.789  10.396  1.4782  0.0700  0.0688
64716SOL    HW1 4078   4.950   9.875  10.418 -1.4624 -0.9005 -0.4014
64716SOL    HW2 4079   5.050   9.807  10.328 -0.1215  1.8432 -1.1029
64717SOL     OW 4080  10.343   3.928   0.576 -0.0273 -0.1570 -0.0745
64717SOL    HW1 4081  10.395   3.906   0.498  0.2585 -1.1046  0.3612
64717SOL    HW2 4082  10.274   3.861   0.577  0.5864 -0.7866  1.0512
64718SOL     OW 4083   9.309   1.149  10.002 -0.6739 -0.1397  0.1415
64718SOL    HW1 4084   9.267   1.109  10.079 -1.8958 -0.3228 -0.5844
64718SOL    HW2 4085   9.304   1.243  10.019  0.4488 -0.2099  0.9688
64719SOL     OW 4086   0.623   6.475   5.546 -0.1920  0.1669 -0.1486
64719SOL    HW1 4087   0.699   6.422   5.571 -1.4651 -1.7748 -0.1867
64719SOL    HW2 4088   0.608   6.454   5.454 -1.2850 -0.1557  0.0915
64720SOL     OW 4089   0.840   0.724   0.079  0.8256 -0.1018  0.2849
64720SOL    HW1 4090   0.772   0.657   0.068  1.1790 -0.3344 -0.6122
64720SOL    HW2 4091   0.914   0.690   0.029  1.3081  0.5595  0.5432
64721SOL     OW 4092   3.337   3.561   3.628 -0.5910  0.0795 -0.8030
64721SOL    HW1 4093   3.248   3.530   3.614 -0.0156 -1.9933 -0.2648
64721SOL    HW2 4094   3.386   3.482   3.654  1.5160  1.0387 -1.6140
64722SOL     OW 4095   6.865  11.672   9.299 -0.0885 -0.4008  0.3145
64722SOL    HW1 4096   6.873  11.736   9.369  1.1247  2.3506 -2.1161
64722SOL    HW2 4097   6.774  11.679   9.271 -0.0559  0.0327  0.3017
64723SOL     OW 4098  10.915  11.933   9.027  0.3003  0.2656  0.3364
64723SOL    HW1 4099  11.010  11.925   9.034  0.2027 -0.8661  0.5387
64723SOL    HW2 4100  10.902  12.002   8.961  1.2532  0.3136  0.1776
64724SOL     OW 4101  10.978   0.680   4.912  0.2888 -0.1392 -0.4209
64724SOL    HW1 4102  10.960   0.682   5.006  1.9931 -0.6280 -0.0450
64724SOL    HW2 4103  10.937   0.600   4.881  1.0322 -0.7985  0.2373
64725SOL     OW 4104   3.259   1.236   3.408  0.0195  0.0503  0.2353
64725SOL    HW1 4105   3.275   1.161   3.351 -1.0089 -0.1943  0.2357
64725SOL    HW2 4106   3.323   1.301   3.381 -0.6864  0.0929 -1.4938
64726SOL     OW 4107  10.483  11.991   2.956  0.3000 -0.0619 -0.0312
64726SOL    HW1 4108  10.478  11.897   2.944 -0.9437 -0.3189  2.0224
64726SOL    HW2 4109  10.397  12.016   2.990  0.1767  2.0198 -1.6128
64727SOL     OW 4110  13.196  10.355   8.849  0.0421 -0.1396  0.7709
64727SOL    HW1 4111  13.176  10.273   8.894  0.0658  0.2656  1.5374
64727SOL    HW2 4112  13.288  10.349   8.826 -0.2042 -0.7557 -0.0988
64728SOL     OW 4113   7.745   7.711   4.126 -0.2285 -0.0056  0.1394
64728SOL    HW1 4114   7.728   7.785   4.067 -0.4309 -0.0265  0.1716
64728SOL    HW2 4115   7.799   7.651   4.074  2.6234  1.5421  1.0747
64729SOL     OW 4116  11.888   8.518   8.887  0.0415  0.3257 -0.0145
64729SOL    HW1 4117  11.978   8.492   8.905 -0.4077 -1.7156 -0.3655
64729SOL    HW2 4118  11.881   8.517   8.792 -0.5899 -0.6137  0.0191
64730SOL     OW 4119   7.830  13.132   9.403  0.3059 -0.4732 -0.3943
64730SOL    HW1 4120   7.856  13.051   9.359 -0.1822 -0.4325 -0.7625
64730SOL    HW2 4121   7.759  13.167   9.349 -0.9949 -0.9296  0.9721
64731SOL     OW 4122  13.207   8.475   5.901  0.2140 -0.2423  0.8636
64731SOL    HW1 4123  13.197   8.387   5.863 -1.4261  0.3470 -0.1786
64731SOL    HW2 4124  13.194   8.534   5.827  0.1296  0.8962  1.7635
64732SOL     OW 4125   8.016   9.024   3.276  0.0308 -0.0441  0.2100
64732SOL    HW1 4126   7.927   8.990   3.289 -0.2471  0.9225  0.9908
64732SOL    HW2 4127   8.069   8.976   3.339 -0.2851  0.6428  1.0233
64733SOL     OW 4128   1.617   7.228   4.559  0.5040  0.4753  0.0699
64733SOL    HW1 4129   1.604   7.141   4.520 -2.6580  0.4181  0.9230
64733SOL    HW2 4130   1.701   7.223   4.603 -0.0836 -2.6071  1.0819
64734SOL     OW 4131   9.234   2.496   4.689 -0.4316 -0.0690 -0.8650
64734SOL    HW1 4132   9.313   2.530   4.731 -1.6136  2.0731 -0.2781
64734SOL    HW2 4133   9.217   2.557   4.618 -0.2202 -1.9136 -2.6087
64735SOL     OW 4134   4.830   0.771   3.637  0.3042 -0.8177 -0.2383
64735SOL    HW1 4135   4.840   0.834   3.565 -1.3234 -1.6589 -1.2724
64735SOL    HW2 4136   4.916   0.769   3.678  0.3625  2.2649  0.0493
64736SOL     OW 4137   7.054   0.593  10.913  0.1554  1.3747 -0.0958
64736SOL    HW1 4138   7.004   0.519  10.877  1.2848 -0.3392  1.6363
64736SOL    HW2 4139   7.024   0.600  11.004  2.5031  0.7157  0.8005
64737SOL     OW 4140   6.734   7.704   2.842 -0.2327 -0.1033  0.2190
64737SOL    HW1 4141   6.687   7.683   2.761  1.7891  1.0826 -1.3567
64737SOL    HW2 4142   6.697   7.787   2.870  1.0335  0.9802 -1.1818
64738SOL     OW 4143   4.991  10.173  10.330 -0.2700  0.1736 -0.2163
64738SOL    HW1 4144   5.070  10.215  10.294 -0.6549  0.3783 -0.8406
64738SOL    HW2 4145   4.938  10.152  10.253 -1.1209  0.6239  0.2322
64739SOL     OW 4146  10.224   4.585   7.817  0.2855  0.2451  0.4142
64739SOL    HW1 4147  10.203   4.657   7.876 -0.2351  0.3136  0.1542
64739SOL    HW2 4148  10.163   4.515   7.841 -0.6912  0.6543 -0.7410
64740SOL     OW 4149   5.296   9.415   5.637  0.0061 -0.2793  0.3844
64740SOL    HW1 4150   5.349   9.479   5.684 -1.7394  3.4158 -2.1756
64740SOL    HW2 4151   5.229   9.389   5.700  1.1189 -0.1356  1.6845
64741SOL     OW 4152   8.635   2.767  13.185  0.5002  0.3355 -0.0077
64741SOL    HW1 4153   8.642   2.715  13.265 -1.0401 -2.1751 -1.3831
64741SOL    HW2 4154   8.541   2.776  13.169  0.6476 -1.8428 -3.0021
64742SOL     OW 4155   3.037  12.710   0.057  0.2933  0.2991 -0.1830
64742SOL    HW1 4156   3.076  12.708   0.145  1.3257  1.8935 -0.5423
64742SOL    HW2 4157   2.993  12.795   0.053  3.9588  2.3984 -2.5701
64743SOL     OW 4158  10.230  12.330  11.397  0.4140  0.1215  0.1105
64743SOL    HW1 4159  10.267  12.413  11.428 -1.9399  0.2105  3.1616
64743SOL    HW2 4160  10.136  12.348  11.388 -0.2262 -2.2739  1.2205
64744SOL     OW 4161   6.914   3.941  10.961 -0.3675  0.3423 -0.1006
64744SOL    HW1 4162   6.932   3.965  10.871  0.1177 -2.9686 -1.0265
64744SOL    HW2 4163   6.997   3.907  10.994 -1.5307 -2.6514  0.0372
64745SOL     OW 4164  13.003   1.633   8.595  0.1190 -0.1339 -0.0679
64745SOL    HW1 4165  13.067   1.677   8.652 -0.3640 -0.4091  0.7043
64745SOL    HW2 4166  12.961   1.705   8.548 -0.1230  0.1836  0.6156
64746SOL     OW 4167   2.398  10.978   9.851  0.2164  0.0932  0.5688
64746SOL    HW1 4168   2.415  10.904   9.793 -1.0196  1.6301 -1.9362
64746SOL    HW2 4169   2.305  10.972   9.871  0.7277 -0.7272  2.9884
64747SOL     OW 4170   9.969   2.838   5.403  0.2244  0.7535  0.1472
64747SOL    HW1 4171   9.996   2.855   5.493 -0.0107 -1.4378  0.6756
64747SOL    HW2 4172  10.049   2.850   5.351  0.8187  0.1822  0.9109
64748SOL     OW 4173   5.381  12.317   1.922 -0.0105 -0.1018 -0.5380
64748SOL    HW1 4174   5.352  12.372   1.994 -1.1495 -0.2042 -0.8851
64748SOL    HW2 4175   5.383  12.228   1.958 -2.1598 -0.4078 -0.9789
64749SOL     OW 4176   9.285   5.711  12.063 -0.4870 -0.2475  0.0055
64749SOL    HW1 4177   9.289   5.622  12.099  0.0509 -0.3420 -0.2748
64749SOL    HW2 4178   9.376   5.740  12.062 -0.5906  0.0676 -0.5076
64750SOL     OW 4179   1.570   2.310   8.974  0.0518 -0.3126  0.4419
64750SOL    HW1 4180   1.575   2.319   8.879 -0.6293  0.8073  0.4931
64750SOL    HW2 4181   1.506   2.375   9.001  1.3207  0.4457  1.8171
64751SOL     OW 4182  10.255   5.220   5.381  0.7510  0.4683  0.6401
64751SOL    HW1 4183  10.300   5.137   5.395 -0.3666 -0.2974 -0.1427
64751SOL    HW2 4184  10.286   5.251   5.296  1.3926  1.0289  1.0618
64752SOL     OW 4185   9.132   0.461  10.904 -0.4011 -0.3401  0.1232
64752SOL    HW1 4186   9.042   0.489  10.884  0.5608  1.2441 -2.5635
64752SOL    HW2 4187   9.122   0.375  10.945 -3.1333 -0.1938 -0.0400
64753SOL     OW 4188   7.338   3.881  10.742  0.7497 -0.2819  0.6475
64753SOL    HW1 4189   7.392   3.931  10.804 -1.1634  0.5414  1.7645
64753SOL    HW2 4190   7.248   3.904  10.766 -0.1008 -1.2423 -1.4085
64754SOL     OW 4191   2.937  10.934   2.811  0.3158 -0.3495  0.1272
64754SOL    HW1 4192   2.864  10.986   2.777 -0.3924 -0.4441  1.4608
64754SOL    HW2 4193   2.944  10.861   2.749 -0.8744 -0.4624  0.0868
64755SOL     OW 4194   5.026  12.636   7.808  0.0159 -0.0022  0.0622
64755SOL    HW1 4195   5.062  12.640   7.897  0.2915 -0.9402  0.0022
64755SOL    HW2 4196   4.954  12.573   7.814 -0.0563  0.0350 -0.3565
64756SOL     OW 4197   0.436   3.239   6.430  0.1753  0.3461 -0.4721
64756SOL    HW1 4198   0.402   3.175   6.367 -0.5920  0.4893 -0.2068
64756SOL    HW2 4199   0.439   3.191   6.513 -0.7448  0.7474 -0.1953
64757SOL     OW 4200   2.285  12.025   0.891  0.1638 -0.6642  0.6829
64757SOL    HW1 4201   2.230  12.102   0.900  0.5011 -0.4486  0.9412
64757SOL    HW2 4202   2.342  12.027   0.969  0.0221 -1.2905  0.8094
64758SOL     OW 4203   9.251  11.054   9.159 -0.2325  0.4237 -0.2896
64758SOL    HW1 4204   9.241  11.098   9.243  1.6426  1.8614 -0.7358
64758SOL    HW2 4205   9.170  11.005   9.147 -0.0950 -0.8272  2.8745
64759SOL     OW 4206   3.350   2.123   8.541  0.2877 -0.0812  0.4426
64759SOL    HW1 4207   3.275   2.182   8.531  0.4338 -0.1531 -1.4066
64759SOL    HW2 4208   3.397   2.158   8.617 -0.2077  1.5722  0.0478
64760SOL     OW 4209   0.150   1.864   4.512 -0.3259 -0.2207  0.7447
64760SOL    HW1 4210   0.217   1.795   4.518 -1.0526 -1.0246 -0.1413
64760SOL    HW2 4211   0.067   1.818   4.521 -0.8103  0.6282  0.7498
64761SOL     OW 4212   7.969  10.645   3.510  0.0130  0.3260 -0.1108
64761SOL    HW1 4213   7.965  10.549   3.512 -3.3484  0.3402 -0.0643
64761SOL    HW2 4214   7.942  10.671   3.598  1.4199  1.3599  0.0421
64762SOL     OW 4215  12.420   9.977  11.074  0.4213 -0.4770 -0.3751
64762SOL    HW1 4216  12.338   9.968  11.123  0.9465  1.3908  0.9706
64762SOL    HW2 4217  12.441  10.070  11.079  2.3224 -0.8037 -1.2040
64763SOL     OW 4218   1.332   3.003   0.586 -0.1784  0.0882  0.0901
64763SOL    HW1 4219   1.413   2.984   0.633  0.1639  0.2609 -0.4191
64763SOL    HW2 4220   1.296   3.080   0.630  1.3565  1.7401 -1.3571
64764SOL     OW 4221   2.958   1.480   0.519  0.8658 -0.1887  0.2453
64764SOL    HW1 4222   2.889   1.502   0.457  0.1648 -1.7440  0.4184
64764SOL    HW2 4223   3.032   1.451   0.465  0.4775 -0.9431  0.1073
64765SOL     OW 4224   8.658   6.241  12.754  0.0147  0.4419  0.0012
64765SOL    HW1 4225   8.695   6.204  12.834  1.1888  0.8533 -0.3322
64765SOL    HW2 4226   8.685   6.180  12.685 -2.0201 -0.5877  0.0210
64766SOL     OW 4227  10.024   3.529  13.307  0.1739  0.0130 -0.7307
64766SOL    HW1 4228   9.959   3.599  13.294 -0.4150 -0.7904 -2.3832
64766SOL    HW2 4229  10.076   3.529  13.227  1.6646  0.0311  0.1948
64767SOL     OW 4230   2.248   0.318   6.162 -0.1438  0.2555  0.1244
64767SOL    HW1 4231   2.327   0.364   6.186 -1.4287  1.9855  1.2246
64767SOL    HW2 4232   2.252   0.235   6.210 -0.3555  1.5902  2.6031
64768SOL     OW 4233   8.293   1.275   2.615 -0.0380 -0.1947  0.9066
64768SOL    HW1 4234   8.318   1.330   2.540 -2.5545 -0.0233  0.0681
64768SOL    HW2 4235   8.256   1.196   2.575 -0.8909 -0.3587  1.9602
64769SOL     OW 4236   8.812   7.400   3.280 -0.2143 -0.1201 -0.5233
64769SOL    HW1 4237   8.769   7.464   3.223 -0.9748 -0.7472 -0.6628
64769SOL    HW2 4238   8.875   7.356   3.223  0.1432  0.3291 -0.4855
64770SOL     OW 4239   8.194  11.320   2.165  0.1224  0.2214 -0.5888
64770SOL    HW1 4240   8.212  11.391   2.226  1.0355 -0.6280  0.1662
64770SOL    HW2 4241   8.264  11.257   2.179  0.4017  0.0027 -2.5630
64771SOL     OW 4242   1.130   7.697   2.834  0.8019 -0.2980  0.2791
64771SOL    HW1 4243   1.173   7.682   2.919  1.0592  1.0180  0.4077
64771SOL    HW2 4244   1.063   7.629   2.829  0.7705 -0.3896  1.5514
64772SOL     OW 4245   0.757   2.019   0.317  0.0804  0.0532  0.0669
64772SOL    HW1 4246   0.731   1.928   0.326 -1.3330  0.4955  0.6897
64772SOL    HW2 4247   0.841   2.025   0.364  0.2969 -0.9545 -0.1771
64773SOL     OW 4248   1.596   1.175  12.551  0.2027  0.8039  0.5370
64773SOL    HW1 4249   1.604   1.163  12.456  1.2318 -0.2758  0.7172
64773SOL    HW2 4250   1.567   1.089  12.583 -0.3266  1.2176  1.1806
64774SOL     OW 4251   7.838  13.002   4.411 -0.4409  0.4573  0.5973
64774SOL    HW1 4252   7.744  13.004   4.431 -0.6784 -0.2114 -0.3695
64774SOL    HW2 4253   7.872  12.929   4.463 -0.9835 -1.0274 -1.0276
64775SOL     OW 4254   5.410   0.597   3.832  0.6278  0.5690 -0.1445
64775SOL    HW1 4255   5.331   0.617   3.782  1.2618  0.2338 -1.3018
64775SOL    HW2 4256   5.407   0.659   3.905 -1.5178 -0.4920  0.7789
64776SOL     OW 4257  10.982   6.044   0.488 -0.1176 -0.2332  0.4167
64776SOL    HW1 4258  11.015   6.007   0.407 -1.1753 -0.2983  0.0039
64776SOL    HW2 4259  10.933   6.122   0.462 -0.3792 -0.1924  1.0000
64777SOL     OW 4260   2.259   2.778   2.536  0.2709  0.3214  0.6122
64777SOL    HW1 4261   2.306   2.720   2.477  1.0483 -1.4022  2.7715
64777SOL    HW2 4262   2.169   2.777   2.504  0.4652 -1.3539  0.0030
64778SOL     OW 4263   1.032  12.729   7.779 -0.4873 -0.2702 -0.9941
64778SOL    HW1 4264   1.116  12.749   7.821 -1.2659 -0.4348  0.7199
64778SOL    HW2 4265   1.039  12.637   7.755 -0.0958 -0.2215 -1.0782
64779SOL     OW 4266   6.200  12.995   0.446  0.1221  0.2003 -0.4990
64779SOL    HW1 4267   6.285  12.950   0.451 -0.6532 -1.8877 -3.4361
64779SOL    HW2 4268   6.196  13.027   0.356 -2.5480 -0.5780 -0.7325
64780SOL     OW 4269   1.524   7.748   1.421  0.0410 -0.0657 -0.0039
64780SOL    HW1 4270   1.486   7.829   1.456 -0.0839  0.1693 -0.6549
64780SOL    HW2 4271   1.603   7.777   1.375  0.7640 -0.4936  0.9319
64781SOL     OW 4272   8.087   3.641   3.285 -0.0607 -0.0324  0.0744
64781SOL    HW1 4273   8.007   3.673   3.327 -0.3179  0.0677 -0.4737
64781SOL    HW2 4274   8.082   3.546   3.292 -0.2747 -0.0297 -0.0325
64782SOL     OW 4275   8.486   4.368   3.795  0.0319 -0.6717  0.0532
64782SOL    HW1 4276   8.559   4.307   3.790  0.5139 -0.0159 -2.4282
64782SOL    HW2 4277   8.523   4.453   3.771 -1.4469 -0.2747 -0.9707
64783SOL     OW 4278   0.187   6.257   3.026 -0.1723 -0.1374  0.1448
64783SOL    HW1 4279   0.184   6.315   2.950  0.3550  1.6508  1.4304
64783SOL    HW2 4280   0.265   6.203   3.013  0.6267  1.0310  0.0279
64784SOL     OW 4281   8.278   8.288  12.371 -0.9201  0.4218  0.0815
64784SOL    HW1 4282   8.240   8.299  12.284 -0.0053 -0.0256 -0.3866
64784SOL    HW2 4283   8.369   8.316  12.362 -0.9812  0.9766  1.0552
64785SOL     OW 4284   1.142   9.114   6.517 -0.0614  0.2605 -0.1111
64785SOL    HW1 4285   1.100   9.199   6.501  1.4370  1.0049 -0.3013
64785SOL    HW2 4286   1.164   9.082   6.429 -2.2325 -1.2504 -0.1935
64786SOL     OW 4287  10.947   2.763   6.630  0.0165  0.0729 -0.0010
64786SOL    HW1 4288  10.904   2.681   6.606 -0.8423  0.6327 -0.4292
64786SOL    HW2 4289  10.890   2.832   6.593  0.6209  0.8611  0.5033
64787SOL     OW 4290   3.298   6.187   5.775 -0.5293  0.3473  0.5539
64787SOL    HW1 4291   3.278   6.101   5.739 -2.5500  1.1847 -0.4856
64787SOL    HW2 4292   3.316   6.172   5.868 -1.6538 -1.0979  0.5572
64788SOL     OW 4293   7.796   7.227   7.581 -0.1830 -0.6974  0.3563
64788SOL    HW1 4294   7.773   7.231   7.488 -0.3941 -1.0956  0.3919
64788SOL    HW2 4295   7.726   7.175   7.621 -0.1922 -0.3693  0.7702
64789SOL     OW 4296   4.528   6.372   2.129  0.2223 -0.0181  0.2954
64789SOL    HW1 4297   4.502   6.304   2.067 -0.4881 -0.0389  0.5979
64789SOL    HW2 4298   4.579   6.326   2.195 -0.7240 -0.3800  0.8001
64790SOL     OW 4299   6.803   9.429   2.474 -0.4070  0.1916 -0.0690
64790SOL    HW1 4300   6.817   9.373   2.398  0.5025 -0.1023  0.3007
64790SOL    HW2 4301   6.883   9.481   2.480 -0.1090 -0.3843  1.1804
64791SOL     OW 4302   2.689  12.637   6.999  0.2130 -0.4030  0.3855
64791SOL    HW1 4303   2.740  12.569   6.954 -1.1985 -0.6754 -0.8636
64791SOL    HW2 4304   2.624  12.588   7.050 -0.3305 -0.0044  0.0767
64792SOL     OW 4305   6.461  12.756   8.674  0.2839 -0.5365  0.5280
64792SOL    HW1 4306   6.411  12.827   8.715  0.2148 -0.4182  0.2430
64792SOL    HW2 4307   6.544  12.754   8.723  0.7549  0.5025 -0.1894
64793SOL     OW 4308   2.567   6.481   1.242 -0.9515  0.8351  0.5009
64793SOL    HW1 4309   2.500   6.466   1.175 -0.8050 -0.1556  0.5706
64793SOL    HW2 4310   2.547   6.417   1.310  0.7173 -0.2058  0.0410
64794SOL     OW 4311   3.718   0.863   4.328 -0.1666 -0.1630  0.3481
64794SOL    HW1 4312   3.761   0.846   4.245 -1.8954 -2.1272 -0.2333
64794SOL    HW2 4313   3.638   0.909   4.304  0.1262  0.7584  1.1058
64795SOL     OW 4314   7.621  13.152   6.648 -0.3182  0.6342  0.1103
64795SOL    HW1 4315   7.620  13.138   6.553 -0.7932 -1.0182  0.3379
64795SOL    HW2 4316   7.536  13.193   6.666  0.2951  2.1723 -0.3125
64796SOL     OW 4317   1.904   7.774   2.960 -0.4935  0.1163  0.1324
64796SOL    HW1 4318   1.935   7.860   2.932 -0.0121 -0.4162 -1.0150
64796SOL    HW2 4319   1.829   7.756   2.903  0.4600 -0.9542 -0.8182
64797SOL     OW 4320   6.520   6.764   8.650  0.1943  0.1899 -0.2061
64797SOL    HW1 4321   6.579   6.821   8.600  0.7749  0.0838  0.3372
64797SOL    HW2 4322   6.440   6.816   8.661 -0.6149 -0.3938 -2.6337
64798SOL     OW 4323   1.278   9.664  12.495 -0.1040  0.2593  0.3095
64798SOL    HW1 4324   1.215   9.593  12.501  0.8121 -0.7363 -1.1676
64798SOL    HW2 4325   1.230   9.737  12.456 -0.5181 -0.2347 -0.1025
64799SOL     OW 4326   2.751   8.309   0.788  0.2264  0.6908 -0.7778
64799SOL    HW1 4327   2.706   8.263   0.718  1.0085 -0.0148 -0.8251
64799SOL    HW2 4328   2.681   8.343   0.844 -0.3813 -1.2905 -0.2572
64800SOL     OW 4329   3.590   8.389   4.029  0.2263  0.0435 -0.3783
64800SOL    HW1 4330   3.601   8.440   4.109  0.0144  2.7177 -1.9595
64800SOL    HW2 4331   3.509   8.420   3.991 -0.4484 -2.2375 -0.9762
64801SOL     OW 4332   6.745   3.982  12.407 -0.2183 -0.1785 -0.1203
64801SOL    HW1 4333   6.742   4.048  12.338  3.2356  0.4143  0.1235
64801SOL    HW2 4334   6.724   3.900  12.362 -0.5813  0.5214 -1.2884
64802SOL     OW 4335   1.474  11.923   5.743  0.4333 -0.3309  0.1189
64802SOL    HW1 4336   1.471  11.885   5.655 -1.0414 -0.7250  0.3045
64802SOL    HW2 4337   1.463  12.017   5.728  0.6580 -0.3451 -0.1488
64803SOL     OW 4338   8.173   9.304  12.858 -0.2598 -0.0699 -0.6286
64803SOL    HW1 4339   8.209   9.369  12.918  0.2421  0.5135 -1.5426
64803SOL    HW2 4340   8.125   9.243  12.914 -0.7301  1.0781  0.2330
64804SOL     OW 4341   3.642   6.870   6.913 -0.2596 -0.0471  0.1800
64804SOL    HW1 4342   3.675   6.935   6.850  0.5502  0.0508  0.6812
64804SOL    HW2 4343   3.608   6.923   6.985 -0.6094 -0.1650  0.0983
64805SOL     OW 4344  10.091   8.647   2.240 -0.5219  0.1793 -0.0966
64805SOL    HW1 4345  10.081   8.579   2.173 -0.6924 -1.1304  1.2064
64805SOL    HW2 4346  10.150   8.711   2.200  0.0166 -0.9588 -1.2165
64806SOL     OW 4347   6.015   0.355  10.367  0.2348 -0.1039  0.7478
64806SOL    HW1 4348   5.924   0.374  10.344  0.3291  0.7476  1.0329
64806SOL    HW2 4349   6.025   0.261  10.353 -0.2732  0.0381 -0.7031
64807SOL     OW 4350   5.606   4.528   1.401 -0.0387  0.1188  0.8587
64807SOL    HW1 4351   5.591   4.593   1.332  0.2629  0.5606  1.2069
64807SOL    HW2 4352   5.613   4.445   1.354  1.3116  0.5651  0.2279
64808SOL     OW 4353   0.197   7.727   9.244  0.0176  0.1017 -0.2040
64808SOL    HW1 4354   0.240   7.687   9.319  0.1983 -1.3825 -1.0581
64808SOL    HW2 4355   0.172   7.653   9.188 -2.2604  0.9836 -0.4767
64809SOL     OW 4356  11.254   2.588   2.417 -0.2672  0.1696 -0.0978
64809SOL    HW1 4357  11.334   2.546   2.451  0.5743  1.5562 -0.2658
64809SOL    HW2 4358  11.280   2.623   2.332 -1.0273  0.7407 -0.0990
64810SOL     OW 4359   4.419   8.290   6.007  0.1204 -0.5345 -0.3098
64810SOL    HW1 4360   4.493   8.292   5.946 -0.8731  2.2451 -1.6205
64810SOL    HW2 4361   4.445   8.347   6.079 -0.5492  0.2113 -0.6276
64811SOL     OW 4362   7.701   7.447  12.752 -0.2230 -0.0981  0.3308
64811SOL    HW1 4363   7.749   7.364  12.762 -2.4730 -1.5747 -0.2193
64811SOL    HW2 4364   7.677   7.471  12.842  0.2714 -0.1520  0.4792
64812SOL     OW 4365   7.159  10.782   0.676  0.3676 -0.1900  0.1032
64812SOL    HW1 4366   7.201  10.855   0.631  2.6282 -1.0291  0.7251
64812SOL    HW2 4367   7.088  10.823   0.726  0.9357  1.4355 -0.3612
64813SOL     OW 4368   2.456   9.636  12.778 -0.4271  0.4200  0.7134
64813SOL    HW1 4369   2.549   9.658  12.778 -0.5509  0.9797 -0.1372
64813SOL    HW2 4370   2.453   9.543  12.798  0.2565  0.6174  1.8058
64814SOL     OW 4371   3.648   9.544   3.427 -0.4439  0.0742  0.0463
64814SOL    HW1 4372   3.679   9.537   3.517 -2.0280 -1.0415  0.5542
64814SOL    HW2 4373   3.603   9.628   3.423  0.3022  0.4797  0.0623
64815SOL     OW 4374  12.910   7.650   1.845  0.2613 -0.4468 -0.0724
64815SOL    HW1 4375  12.959   7.730   1.865  0.0764 -0.3446 -0.0308
64815SOL    HW2 4376  12.936   7.628   1.755  1.5372 -1.2248  0.4561
64816SOL     OW 4377   0.442   4.930   7.499  0.2707  0.5398  0.1236
64816SOL    HW1 4378   0.361   4.973   7.526  0.4502 -0.1772  1.9822
64816SOL    HW2 4379   0.414   4.858   7.442 -0.1249  2.1714 -1.8382
64817SOL     OW 4380   1.951   1.188   9.659  0.0466  0.8130  0.3401
64817SOL    HW1 4381   1.902   1.262   9.695 -0.4592  0.7289 -0.1664
64817SOL    HW2 4382   2.000   1.154   9.734  0.2589  1.6387  0.5824
64818SOL     OW 4383   7.958   8.193   9.219 -0.1761  0.0387  0.2501
64818SOL    HW1 4384   7.909   8.270   9.192  0.1846  0.3018  0.3304
64818SOL    HW2 4385   7.918   8.121   9.171 -1.2633  0.0850  1.0403
64819SOL     OW 4386  12.143   5.538   1.821  0.0062 -0.2408  0.0436
64819SOL    HW1 4387  12.063   5.514   1.868  0.0781 -0.0066  0.2871
64819SOL    HW2 4388  12.214   5.511   1.880  0.0921  2.1758  1.1623
64820SOL     OW 4389   8.739  12.903  11.938  0.7749  0.3542  0.3262
64820SOL    HW1 4390   8.810  12.843  11.961 -0.2327 -0.1187  2.4049
64820SOL    HW2 4391   8.780  12.966  11.879  2.1610 -1.6432 -0.9882
64821SOL     OW 4392   1.005  12.443   4.373  0.1206  0.0823 -0.0606
64821SOL    HW1 4393   1.058  12.523   4.366  1.2540 -0.6277  0.1595
64821SOL    HW2 4394   0.958  12.438   4.290 -1.9671  2.3154  0.8560
64822SOL     OW 4395   5.660   9.087   6.879 -0.0745 -0.1836 -0.6160
64822SOL    HW1 4396   5.625   9.015   6.932 -0.7259 -0.1713 -1.0146
64822SOL    HW2 4397   5.720   9.045   6.818  1.3513 -0.0983  0.6749
64823SOL     OW 4398   5.947   8.326   3.047  0.3659  0.7882 -0.0527
64823SOL    HW1 4399   6.038   8.342   3.071  0.1868  1.7097  0.0616
64823SOL    HW2 4400   5.900   8.325   3.131  0.7714 -3.6795  0.3230
64824SOL     OW 4401  13.035   2.007   6.656 -0.2568 -0.4221  0.1474
64824SOL    HW1 4402  13.074   2.056   6.584  1.0588 -0.3639  0.8599
64824SOL    HW2 4403  12.985   1.937   6.614 -1.4964  1.0282 -0.8516
64825SOL     OW 4404   2.468  13.173   3.959 -0.5064 -0.6101  0.4993
64825SOL    HW1 4405   2.513  13.193   3.877 -0.2120  0.2699  0.8581
64825SOL    HW2 4406   2.423  13.090   3.943  0.6957 -1.1658 -0.0881
64826SOL     OW 4407   9.350   0.129   2.977  0.4077 -0.4083  0.8399
64826SOL    HW1 4408   9.360   0.113   3.071 -0.4362  1.3279  1.2614
64826SOL    HW2 4409   9.256   0.124   2.961  0.5756 -1.0869 -0.0061
64827SOL     OW 4410   4.708  13.148   9.756  0.1609 -0.0935 -0.3317
64827SOL    HW1 4411   4.655  13.211   9.803 -0.3073 -1.2852  0.7887
64827SOL    HW2 4412   4.786  13.197   9.729 -1.1228  1.4875 -1.3524
64828SOL     OW 4413   7.425   6.930  12.221  0.3130 -0.3821  0.2303
64828SOL    HW1 4414   7.405   6.864  12.154 -1.5650 -1.2410  1.5466
64828SOL    HW2 4415   7.359   6.916  12.289  1.3101  1.3549  1.6455
64829SOL     OW 4416   2.537  11.124   4.059 -0.1700  0.2185 -0.1004
64829SOL    HW1 4417   2.623  11.088   4.079  1.5451  3.6722 -0.6193
64829SOL    HW2 4418   2.531  11.122   3.964 -0.5112  0.4019 -0.0856
64830SOL     OW 4419   2.513   0.843   3.040  0.1977  1.0199 -0.0599
64830SOL    HW1 4420   2.533   0.905   3.110  4.3669 -1.9157  1.7565
64830SOL    HW2 4421   2.593   0.838   2.988 -0.9266 -0.9160 -1.7753
64831SOL     OW 4422   0.262  13.214   7.958 -0.0294  0.2069  0.1105
64831SOL    HW1 4423   0.208  13.136   7.942  0.5532  0.0344 -1.1311
64831SOL    HW2 4424   0.270  13.255   7.872 -0.3244  1.6531  0.7480
64832SOL     OW 4425   1.714   3.030   7.534  0.0145  0.3459 -0.2397
64832SOL    HW1 4426   1.697   2.961   7.470  0.5877  0.6070 -0.6843
64832SOL    HW2 4427   1.654   3.011   7.606  1.0480 -1.3677  0.2272
64833SOL     OW 4428  11.923   1.244   4.070 -0.5665 -0.4449 -0.1427
64833SOL    HW1 4429  11.956   1.219   3.983 -0.7716  1.6653 -0.8730
64833SOL    HW2 4430  11.997   1.231   4.128  0.2581  0.1790 -1.0261
64834SOL     OW 4431   8.876   8.758   5.590 -0.1464 -0.4291 -0.1803
64834SOL    HW1 4432   8.831   8.823   5.536 -0.3522 -0.9943 -0.7011
64834SOL    HW2 4433   8.918   8.699   5.527 -0.3846 -1.0956  0.2722
64835SOL     OW 4434  12.129   0.673  12.956  0.1036 -0.0032 -0.7168
64835SOL    HW1 4435  12.136   0.733  12.882  2.0041  1.3622  0.4763
64835SOL    HW2 4436  12.202   0.612  12.945  0.5737  0.3825  0.1299
64836SOL     OW 4437   9.927   6.910   1.315  1.2463  0.6781  0.3444
64836SOL    HW1 4438   9.876   6.930   1.394 -0.2865  1.7481 -0.8386
64836SOL    HW2 4439   9.897   6.824   1.288  1.8600  0.2580  0.9736
64837SOL     OW 4440   8.934   5.154   4.025  0.3881 -0.4549  0.0718
64837SOL    HW1 4441   8.963   5.069   4.057  1.3891 -0.4655 -0.8100
64837SOL    HW2 4442   8.853   5.172   4.073  0.4252 -1.6768  0.6133
64838SOL     OW 4443   8.630   2.201  10.646  0.5582 -0.4954 -0.0812
64838SOL    HW1 4444   8.555   2.200  10.706 -1.9927 -0.2850 -2.9886
64838SOL    HW2 4445   8.638   2.111  10.615  2.1146 -0.6925  0.8012
64839SOL     OW 4446   7.192   9.765   3.375 -0.7478  0.5073  0.6373
64839SOL    HW1 4447   7.121   9.828   3.389 -0.1142  1.0127  1.7801
64839SOL    HW2 4448   7.220   9.742   3.464  0.0310 -0.2377  0.2053
64840SOL     OW 4449   4.763   8.751  11.350 -0.0165 -0.0878  0.5988
64840SOL    HW1 4450   4.722   8.818  11.295  0.8659  2.1418  2.4730
64840SOL    HW2 4451   4.811   8.695  11.288  0.6516  2.0770 -0.9896
64841SOL     OW 4452   2.656   0.617   3.431 -0.6205 -0.1640 -0.7066
64841SOL    HW1 4453   2.698   0.701   3.447  0.6889 -0.2625 -3.2181
64841SOL    HW2 4454   2.563   0.638   3.422 -0.3603  0.9457 -0.9572
64842SOL     OW 4455   8.074  10.463  10.922  0.4076  0.5227  0.0626
64842SOL    HW1 4456   8.166  10.477  10.947  1.0032  1.7111 -2.4597
64842SOL    HW2 4457   8.040  10.551  10.908 -1.1162  0.0808  0.8456
64843SOL     OW 4458   1.304   5.406   9.314  0.4779 -0.5142 -0.2621
64843SOL    HW1 4459   1.317   5.447   9.228 -0.9149 -1.0842 -0.7818
64843SOL    HW2 4460   1.339   5.470   9.376  1.9666 -0.3011 -1.2541
64844SOL     OW 4461  12.203   4.088   8.980 -0.4106 -0.3309  0.3060
64844SOL    HW1 4462  12.292   4.122   8.989 -0.6815  1.2417 -1.9816
64844SOL    HW2 4463  12.176   4.067   9.069  1.9331 -0.0559  1.1562
64845SOL     OW 4464   3.235   6.703   9.033  0.2556 -0.7193  0.0888
64845SOL    HW1 4465   3.225   6.617   9.074  1.6520  0.5134  3.3480
64845SOL    HW2 4466   3.146   6.730   9.011 -0.9021 -0.9572  3.7670
64846SOL     OW 4467   6.138   5.129   0.249  0.4882 -0.6650 -0.2108
64846SOL    HW1 4468   6.208   5.064   0.254  0.5793 -0.6689 -1.1886
64846SOL    HW2 4469   6.080   5.109   0.322 -0.2105 -2.7268 -1.2413
64847SOL     OW 4470  12.330   8.093   2.385 -0.1835  0.1748  0.0936
64847SOL    HW1 4471  12.246   8.099   2.339 -1.7321 -3.6622  1.9253
64847SOL    HW2 4472  12.328   8.165   2.448 -2.0698  0.2757 -0.0208
64848SOL     OW 4473   2.570   5.430   5.004 -0.1819  0.2853  0.4704
64848SOL    HW1 4474   2.549   5.386   5.087  0.1459 -1.8892 -0.5157
64848SOL    HW2 4475   2.630   5.370   4.960 -0.0569  1.5591 -1.1861
64849SOL     OW 4476   2.331   0.980   3.781 -0.2623 -0.4021 -0.0941
64849SOL    HW1 4477   2.277   1.041   3.832 -0.0235 -1.5994  1.6669
64849SOL    HW2 4478   2.420   1.013   3.791 -0.3397  0.0322 -0.7553
64850SOL     OW 4479   1.652   5.870  11.860 -0.2476  0.1213  0.6705
64850SOL    HW1 4480   1.590   5.906  11.797  0.2891  0.3927  0.2846
64850SOL    HW2 4481   1.670   5.782  11.829 -1.3276 -0.3917  1.4437
64851SOL     OW 4482  12.370  10.310   9.023  0.0482 -0.2870 -0.4005
64851SOL    HW1 4483  12.345  10.351   9.105 -2.4014 -0.1951 -1.1141
64851SOL    HW2 4484  12.380  10.217   9.044 -0.3497 -0.2261  0.0624
64852SOL     OW 4485   5.308   4.442   2.246 -0.1415  0.0731 -0.1914
64852SOL    HW1 4486   5.369   4.437   2.172  0.8143  0.7332  0.5105
64852SOL    HW2 4487   5.259   4.523   2.231  0.5659  0.5946  0.2579
64853SOL     OW 4488  11.274  12.760   7.347 -0.0761  0.2763 -0.6447
64853SOL    HW1 4489  11.370  12.765   7.346 -0.0902  2.4217  0.8941
64853SOL    HW2 4490  11.248  12.782   7.258  0.8791  4.7483 -0.0764
64854SOL     OW 4491   9.729  11.814   0.025 -0.8024  0.4450  0.4178
64854SOL    HW1 4492   9.671  11.885  -0.001  1.5128  2.6790  0.9989
64854SOL    HW2 4493   9.717  11.747  -0.042 -1.3776  2.3454 -1.4700
64855SOL     OW 4494   5.365   0.876   7.922 -0.1367  0.5098 -0.5023
64855SOL    HW1 4495   5.417   0.925   7.859  0.6976 -0.0870 -0.2969
64855SOL    HW2 4496   5.345   0.793   7.878  0.3188  0.1545 -0.0665
64856SOL     OW 4497   8.501   0.294   9.096 -0.4868  0.0385 -0.3329
64856SOL    HW1 4498   8.408   0.294   9.075 -0.3736  0.0418 -0.8280
64856SOL    HW2 4499   8.534   0.209   9.066  0.2111  1.0415 -2.6026
64857SOL     OW 4500   8.831   6.557   9.117 -0.0452  0.3747 -0.1010
64857SOL    HW1 4501   8.917   6.520   9.133 -0.0068  1.0241  1.2875
64857SOL    HW2 4502   8.827   6.635   9.171 -0.6387  1.6986 -1.9427
64858SOL     OW 4503   3.193  11.731   7.624 -0.4488  0.5414 -0.3620
64858SOL    HW1 4504   3.158  11.795   7.685  0.2459  0.4879  0.1015
64858SOL    HW2 4505   3.258  11.683   7.674 -2.3397 -1.9019 -0.0953
64859SOL     OW 4506   6.080   1.550   3.200  0.2570 -0.2168 -0.3031
64859SOL    HW1 4507   5.993   1.579   3.171 -0.0390  0.4792  1.1957
64859SOL    HW2 4508   6.097   1.471   3.149 -1.5322 -0.7176 -0.1993
64860SOL     OW 4509  12.842   3.034   8.680 -0.4258  0.5135  0.1596
64860SOL    HW1 4510  12.908   3.009   8.744 -2.3604 -1.3758  1.5707
64860SOL    HW2 4511  12.891   3.055   8.601  1.8460 -0.5019  1.2227
64861SOL     OW 4512   4.540   7.190  11.617  0.0081  0.3867  0.4079
64861SOL    HW1 4513   4.625   7.156  11.644 -0.8121 -0.7925  1.6338
64861SOL    HW2 4514   4.548   7.285  11.627  0.9061  0.2306  1.4092
64862SOL     OW 4515   9.064   6.997   6.142  0.5516  0.2684  0.4757
64862SOL    HW1 4516   9.077   7.018   6.050  1.6036 -1.0875  0.2723
64862SOL    HW2 4517   8.970   7.009   6.157  0.0507 -1.0846 -1.2342
64863SOL     OW 4518   2.071   6.684   4.512 -0.0292  0.0279  0.1434
64863SOL    HW1 4519   1.981   6.708   4.536  0.3127  1.7848 -0.1667
64863SOL    HW2 4520   2.119   6.682   4.595 -0.6698 -2.7065  0.5438
64864SOL     OW 4521   5.244   7.660   7.960  0.1540 -0.3062 -0.1718
64864SOL    HW1 4522   5.194   7.741   7.963 -1.9341 -1.5440 -0.0450
64864SOL    HW2 4523   5.226   7.623   7.873  1.1033 -0.6468 -0.2400
64865SOL     OW 4524   9.785  12.378   4.523 -0.2175  0.7431  0.1340
64865SOL    HW1 4525   9.792  12.368   4.428  2.2110  1.6528  0.1447
64865SOL    HW2 4526   9.869  12.347   4.557 -1.3115 -0.2883  2.0955
64866SOL     OW 4527  12.032   3.418  13.240  0.4551  0.0357  0.3609
64866SOL    HW1 4528  12.019   3.438  13.333  2.1886  0.9323  0.4403
64866SOL    HW2 4529  12.067   3.499  13.203 -3.3277  0.8884 -1.8679
64867SOL     OW 4530   8.762   8.587   9.947 -0.6991  0.1505  0.2216
64867SOL    HW1 4531   8.684   8.637   9.972 -1.1476 -0.6201  0.4169
64867SOL    HW2 4532   8.735   8.495   9.958  0.6406 -0.1143  1.5564
64868SOL     OW 4533   8.471   4.516   1.778 -0.1779 -0.2777  0.4973
64868SOL    HW1 4534   8.551   4.474   1.810  1.1127  1.6698  0.0088
64868SOL    HW2 4535   8.497   4.606   1.759 -2.4836  0.4010  0.2259
64869SOL     OW 4536   2.604   4.849  12.040  0.2191  0.0268 -0.3337
64869SOL    HW1 4537   2.556   4.865  11.959 -0.6414 -2.1676 -0.3377
64869SOL    HW2 4538   2.683   4.803  12.013  0.5439  0.3869 -0.0145
64870SOL     OW 4539   0.526  10.640  10.272 -0.1007  0.0976  0.1140
64870SOL    HW1 4540   0.464  10.625  10.343 -0.9928 -0.6749 -0.8100
64870SOL    HW2 4541   0.500  10.725  10.236 -0.6131 -0.2044 -0.2447
64871SOL     OW 4542   1.086   9.186   7.281 -0.1887 -0.1923 -0.2816
64871SOL    HW1 4543   1.143   9.214   7.210  0.4580 -1.0443 -0.1068
64871SOL    HW2 4544   1.130   9.216   7.361 -1.0813  1.0707 -0.2275
64872SOL     OW 4545   8.507   7.427  11.408 -0.1612 -0.0616  0.5734
64872SOL    HW1 4546   8.591   7.415  11.365  0.1026  1.3570  0.6398
64872SOL    HW2 4547   8.452   7.357  11.374  1.0474 -1.0287  0.5636
64873SOL     OW 4548   8.379   7.083   0.232  0.2935  0.1988  0.0505
64873SOL    HW1 4549   8.449   7.103   0.294  1.4576  1.2029 -1.5212
64873SOL    HW2 4550   8.424   7.066   0.149 -1.2778  0.1849 -0.8382
64874SOL     OW 4551   4.070   4.177   8.527 -0.2749 -0.2730 -0.2513
64874SOL    HW1 4552   3.997   4.200   8.469  0.7290  1.6272 -0.8354
64874SOL    HW2 4553   4.081   4.254   8.583 -2.2010 -2.5611  3.7018
64875SOL     OW 4554   0.310   6.957  12.379  0.2536 -0.0988  0.1595
64875SOL    HW1 4555   0.371   6.884  12.391 -1.9469 -2.0997 -0.1268
64875SOL    HW2 4556   0.285   6.983  12.468  1.2374  0.5525  0.2693
64876SOL     OW 4557   4.870  12.032   8.297 -0.5165 -0.1685 -0.8436
64876SOL    HW1 4558   4.853  12.029   8.391  0.8853  1.3557 -0.4847
64876SOL    HW2 4559   4.885  12.125   8.279 -0.6473 -0.4569 -2.5567
64877SOL     OW 4560   2.939   3.936   8.889 -0.6410 -0.0093  0.0828
64877SOL    HW1 4561   2.938   3.905   8.798 -1.3977 -1.7064  0.6318
64877SOL    HW2 4562   2.867   3.999   8.894 -1.4783 -0.9215 -0.1890
64878SOL     OW 4563   5.510   3.110   4.764  0.0662  0.1244 -0.6807
64878SOL    HW1 4564   5.529   3.072   4.679 -1.5797  1.4155 -1.6961
64878SOL    HW2 4565   5.474   3.196   4.744 -0.8641  0.2485  1.2907
64879SOL     OW 4566  11.477   9.221   8.229 -0.4680  0.2433  0.0053
64879SOL    HW1 4567  11.538   9.261   8.167  0.4969 -0.7575  0.2800
64879SOL    HW2 4568  11.424   9.161   8.176  0.3835 -0.6419  0.1315
64880SOL     OW 4569   7.076  13.160  12.808 -0.1114 -0.2885 -0.5231
64880SOL    HW1 4570   6.999  13.164  12.865 -0.1096  1.0187 -0.5757
64880SOL    HW2 4571   7.143  13.117  12.861 -0.3947  0.0424  0.1229
64881SOL     OW 4572   1.225   2.439  10.042  0.1947 -0.2284  0.2099
64881SOL    HW1 4573   1.237   2.482  10.126  1.0693 -0.8663  0.4229
64881SOL    HW2 4574   1.150   2.484  10.003 -0.3684 -0.0715  1.4162
64882SOL     OW 4575  11.893   0.904  13.072 -0.8964  0.3315  0.4150
64882SOL    HW1 4576  11.870   0.927  12.982 -1.9200 -0.3663  0.4887
64882SOL    HW2 4577  11.940   0.821  13.065  2.3994  2.0291  0.1966
64883SOL     OW 4578  12.112  13.206   4.744 -0.2776  0.3010  0.4989
64883SOL    HW1 4579  12.063  13.155   4.679  0.7150 -0.5175  0.3554
64883SOL    HW2 4580  12.202  13.206   4.710  0.6000 -1.4397  2.5720
64884SOL     OW 4581   1.788  12.361   9.319 -0.3708 -0.3415 -0.6817
64884SOL    HW1 4582   1.707  12.395   9.280  0.0381  1.4351 -0.0450
64884SOL    HW2 4583   1.847  12.348   9.244 -0.0223  1.8468 -0.8425
64885SOL     OW 4584  12.337   7.491   2.405  0.1582 -0.2087  0.3066
64885SOL    HW1 4585  12.304   7.426   2.343  0.6126 -0.4579  0.3231
64885SOL    HW2 4586  12.346   7.571   2.353  0.4016 -0.3797  0.0822
64886SOL     OW 4587   7.949  12.783   8.295  0.7052  0.2989  0.6195
64886SOL    HW1 4588   7.861  12.820   8.296 -0.1689 -1.4198 -2.1631
64886SOL    HW2 4589   8.005  12.854   8.265  0.1343  1.1186  1.4589
64887SOL     OW 4590   8.394   1.457   2.419  0.0751 -0.2345  0.3735
64887SOL    HW1 4591   8.343   1.467   2.339 -1.4787  2.2229  1.5157
64887SOL    HW2 4592   8.451   1.534   2.421  2.2431 -1.7648  0.2670
64888SOL     OW 4593  13.205   9.717   1.783 -0.2140  0.4941 -0.0117
64888SOL    HW1 4594  13.295   9.740   1.809  0.4592 -1.6378 -0.2890
64888SOL    HW2 4595  13.206   9.725   1.687  0.1350 -0.9236 -0.1442
64889SOL     OW 4596   0.800   9.686  10.039  0.3781 -0.1508  0.0941
64889SOL    HW1 4597   0.733   9.631   9.998  0.5563 -0.8976  0.7896
64889SOL    HW2 4598   0.750   9.753  10.085  0.1474  0.0375 -0.4247
64890SOL     OW 4599   2.038   2.628   8.879  0.2064 -0.8968  0.1367
64890SOL    HW1 4600   2.134   2.632   8.879  0.1734  0.4462  0.4308
64890SOL    HW2 4601   2.013   2.664   8.964 -0.5645 -1.1002  0.0020
64891SOL     OW 4602   5.011   9.081   4.254  0.0869 -0.1835 -0.8674
64891SOL    HW1 4603   5.028   9.115   4.166  0.6477 -1.6850 -1.3819
64891SOL    HW2 4604   4.936   9.022   4.243  0.1712 -0.3949 -0.3446
64892SOL     OW 4605   6.923   2.762   0.753 -0.4200  0.1773 -0.2062
64892SOL    HW1 4606   6.835   2.787   0.783  0.6141  2.4243  1.1584
64892SOL    HW2 4607   6.947   2.830   0.691 -0.7872 -2.1192 -3.0934
64893SOL     OW 4608  11.667   6.894   6.686 -0.0181  0.3051 -0.2027
64893SOL    HW1 4609  11.697   6.985   6.688 -0.5903  0.4857  1.1703
64893SOL    HW2 4610  11.661   6.873   6.593  2.6845  0.7897 -0.5841
64894SOL     OW 4611  13.074   2.320   2.893  0.2777 -1.2492 -0.2778
64894SOL    HW1 4612  13.074   2.411   2.862 -1.6390 -0.7210  1.0228
64894SOL    HW2 4613  13.124   2.323   2.975 -1.7311 -0.7611  1.0327
64895SOL     OW 4614   0.240   1.214   8.085  0.0067 -0.3309 -0.1712
64895SOL    HW1 4615   0.184   1.192   8.011  0.4590  0.4087 -0.7494
64895SOL    HW2 4616   0.206   1.162   8.157  0.2103 -1.8753 -1.1336
64896SOL     OW 4617   3.054  10.084   4.592 -0.3455 -0.0437 -0.7285
64896SOL    HW1 4618   3.026  10.150   4.529 -1.9961 -0.6365 -0.6498
64896SOL    HW2 4619   3.104  10.133   4.657  0.4837  0.7411 -1.9064
64897SOL     OW 4620   4.750  11.079  11.092 -0.1928 -0.2742 -0.1075
64897SOL    HW1 4621   4.789  11.162  11.118 -0.5395  0.1332 -0.8398
64897SOL    HW2 4622   4.816  11.013  11.114  0.4592  0.2877 -0.3368
64898SOL     OW 4623   7.448   2.784  11.981  0.4506 -0.5340 -0.2657
64898SOL    HW1 4624   7.454   2.691  12.003  2.7286 -0.4235 -0.1892
64898SOL    HW2 4625   7.358   2.796  11.951  0.2499 -2.8539 -0.7504
64899SOL     OW 4626   4.356   4.035   8.262  0.3281 -0.3157 -0.0967
64899SOL    HW1 4627   4.380   3.953   8.218 -1.0197  0.1009 -1.7370
64899SOL    HW2 4628   4.268   4.020   8.295 -0.0264  0.5137 -0.6177
64900SOL     OW 4629   2.152   5.138   5.914  0.0943 -0.2886  0.7072
64900SOL    HW1 4630   2.156   5.234   5.908 -1.1613 -0.2037  0.8606
64900SOL    HW2 4631   2.243   5.111   5.929  0.8166  0.6955 -1.5037
64901SOL     OW 4632   6.887   6.597   4.735  0.3345 -0.3020  0.0914
64901SOL    HW1 4633   6.867   6.575   4.826 -1.8050  0.1206 -0.2233
64901SOL    HW2 4634   6.900   6.512   4.692 -0.8743 -0.6326  0.3473
64902SOL     OW 4635  10.996   6.563   1.872  0.0069  0.1102 -0.3647
64902SOL    HW1 4636  10.923   6.579   1.813  1.4332 -0.1177 -2.2941
64902SOL    HW2 4637  11.029   6.476   1.847  0.7077  0.0409  0.7163
64903SOL     OW 4638   3.964   4.371   3.765 -0.3605  0.5582 -0.0773
64903SOL    HW1 4639   3.902   4.331   3.826 -1.7540  1.1404 -1.0666
64903SOL    HW2 4640   4.033   4.305   3.754 -1.6108 -0.7799 -0.1760
64904SOL     OW 4641  10.744  10.334   9.550  0.1989  0.8175  0.0209
64904SOL    HW1 4642  10.791  10.253   9.530 -1.9383 -0.7964  1.1788
64904SOL    HW2 4643  10.790  10.370   9.627 -0.4404 -0.7777  1.2005
64905SOL     OW 4644   3.021   5.543   7.358 -0.2046  0.0554 -0.2829
64905SOL    HW1 4645   2.983   5.458   7.337  0.5743 -0.3337 -0.1313
64905SOL    HW2 4646   3.065   5.571   7.278  0.4535 -0.1808 -0.0067
64906SOL     OW 4647   0.578  11.234   4.663  0.0975  0.1358 -0.3721
64906SOL    HW1 4648   0.633  11.188   4.726 -0.7982  0.5861  0.7734
64906SOL    HW2 4649   0.534  11.301   4.715  0.9317  1.9390 -1.8767
64907SOL     OW 4650   1.373   9.891   1.003 -0.6529  0.4893 -0.1958
64907SOL    HW1 4651   1.411   9.874   1.089 -0.7564 -1.7245 -0.5359
64907SOL    HW2 4652   1.448   9.902   0.945 -0.5031 -1.2480 -0.3807
64908SOL     OW 4653  11.344   1.076   5.131 -0.0592 -0.4488  0.1860
64908SOL    HW1 4654  11.324   1.056   5.039  1.1412  0.9223 -0.4076
64908SOL    HW2 4655  11.434   1.109   5.129 -0.1896  0.0597  1.8015
64909SOL     OW 4656  10.933  12.349  10.864 -0.5807  0.2278  0.0137
64909SOL    HW1 4657  11.023  12.317  10.861 -0.4123  0.7342 -1.9374
64909SOL    HW2 4658  10.917  12.367  10.956  1.4178  0.4196  0.3791
64910SOL     OW 4659   1.118   5.415   8.629 -0.1038 -0.3071  0.3246
64910SOL    HW1 4660   1.130   5.387   8.719  1.5112  1.7005  0.8206
64910SOL    HW2 4661   1.026   5.395   8.609 -0.4979 -0.7658  2.4033
64911SOL     OW 4662  10.377   6.153   3.978  0.1656  0.2921  0.1561
64911SOL    HW1 4663  10.417   6.159   4.065  0.1582 -0.6512  0.2277
64911SOL    HW2 4664  10.378   6.060   3.957 -1.3743  0.3244 -0.1402
64912SOL     OW 4665   7.405   6.480   2.345  0.4824 -0.7136  0.0609
64912SOL    HW1 4666   7.372   6.561   2.306 -1.2319 -0.7066  1.3892
64912SOL    HW2 4667   7.475   6.507   2.403 -0.8928  0.0366  1.4452
64913SOL     OW 4668   3.945   6.855   5.479  0.1627  0.1811 -0.3889
64913SOL    HW1 4669   4.018   6.803   5.446 -1.1400 -1.2193 -1.2055
64913SOL    HW2 4670   3.962   6.862   5.573  2.0884  1.1944 -0.7632
64914SOL     OW 4671   2.020  13.258   8.794 -0.0438  0.5310  0.6490
64914SOL    HW1 4672   1.969  13.177   8.803  0.1752  0.1694 -1.1045
64914SOL    HW2 4673   2.106  13.236   8.831  0.5975 -0.6511 -1.4226
64915SOL     OW 4674  12.922  10.227   3.979  0.6986 -0.0692  0.2566
64915SOL    HW1 4675  13.017  10.217   3.984  0.7302 -1.0938 -1.4926
64915SOL    HW2 4676  12.890  10.139   3.961 -0.7598 -0.0405  2.3210
64916SOL     OW 4677  10.668   8.903   4.880 -0.3297  0.1870 -0.0004
64916SOL    HW1 4678  10.689   8.996   4.882  0.3290  0.0482 -0.0192
64916SOL    HW2 4679  10.604   8.891   4.949 -1.7115  0.9482 -1.1036
64917SOL     OW 4680   3.793  10.167   6.784 -0.7124 -0.3252  0.0400
64917SOL    HW1 4681   3.822  10.131   6.868 -0.4620 -0.5614 -0.1445
64917SOL    HW2 4682   3.793  10.092   6.724  0.9380  0.1580 -0.6375
64918SOL     OW 4683   1.589  11.686   2.344 -0.1815 -0.0462 -0.6909
64918SOL    HW1 4684   1.539  11.767   2.330  0.8601  1.0551  1.4799
64918SOL    HW2 4685   1.680  11.715   2.348  0.0900 -0.9996  1.9589
64919SOL     OW 4686  11.054  10.023  11.730  0.1568  0.1187  0.1061
64919SOL    HW1 4687  10.958  10.016  11.732  0.0295  0.7547 -1.9134
64919SOL    HW2 4688  11.080   9.971  11.654  1.6468 -1.7810  1.7997
64920SOL     OW 4689   9.897  11.009   9.092 -0.0462  0.4452  0.1189
64920SOL    HW1 4690   9.909  10.914   9.100 -1.0301  0.4151  1.6176
64920SOL    HW2 4691   9.861  11.020   9.004 -0.2217 -0.6116  0.0360
64921SOL     OW 4692   5.751   7.622  11.070  0.3638 -0.1364  0.1623
64921SOL    HW1 4693   5.668   7.621  11.118  0.7956  1.0553  0.9902
64921SOL    HW2 4694   5.738   7.685  10.999  1.3379  2.1768  1.8926
64922SOL     OW 4695  11.942   6.808   0.219  0.2003 -0.7541  0.3045
64922SOL    HW1 4696  11.984   6.744   0.161 -2.2230 -0.9478 -1.4210
64922SOL    HW2 4697  11.895   6.866   0.159 -1.5044 -0.2485  2.0389
64923SOL     OW 4698   9.893   1.598   4.695 -0.0798 -0.6836  0.0134
64923SOL    HW1 4699   9.937   1.609   4.611  0.7969  0.6537  0.6261
64923SOL    HW2 4700   9.932   1.664   4.752 -0.1935 -1.9817  1.6721
64924SOL     OW 4701   0.906   5.051  10.375 -0.2950  0.0562  0.5113
64924SOL    HW1 4702   0.839   5.022  10.313  0.3890  1.0193 -0.7266
64924SOL    HW2 4703   0.859   5.112  10.433 -1.0109 -1.0912  1.1594
64925SOL     OW 4704   4.384   5.910  10.121  0.2479  0.4664  0.1326
64925SOL    HW1 4705   4.420   5.843  10.063  2.8347  0.5686  1.4549
64925SOL    HW2 4706   4.398   5.992  10.074 -1.6524  0.2448 -0.8927
64926SOL     OW 4707   0.092   0.819   2.235  0.0598  0.5505  0.5886
64926SOL    HW1 4708   0.101   0.726   2.253 -2.4538  0.0193 -0.3563
64926SOL    HW2 4709   0.071   0.859   2.319 -0.9681 -0.1262  0.6730
64927SOL     OW 4710   0.197   0.920   4.191 -0.4976 -0.5624  0.1615
64927SOL    HW1 4711   0.165   0.830   4.185 -0.1540 -0.7311  0.8205
64927SOL    HW2 4712   0.191   0.942   4.284 -0.8794  0.2112 -0.0343
64928SOL     OW 4713   5.640   7.284   9.800  0.4462  0.4302  0.3519
64928SOL    HW1 4714   5.622   7.191   9.811  0.4058  0.5098  1.0348
64928SOL    HW2 4715   5.705   7.304   9.867  2.3577  0.3723 -1.3993
64929SOL     OW 4716   5.539  12.858  12.474  0.1050 -0.2619  0.0510
64929SOL    HW1 4717   5.461  12.873  12.420  1.1623  1.5191 -1.0840
64929SOL    HW2 4718   5.601  12.926  12.446  1.4913 -0.6182  2.0461
64930SOL     OW 4719   9.951   8.867  10.839  0.4122  0.5703 -0.1554
64930SOL    HW1 4720   9.860   8.889  10.820  0.9443  2.4728 -0.7374
64930SOL    HW2 4721   9.978   8.811  10.767  0.3115  1.8026 -1.1881
64931SOL     OW 4722   3.951   7.972   6.177  0.4505  0.6256 -0.3304
64931SOL    HW1 4723   3.960   8.039   6.109 -0.3515  2.1597  1.0162
64931SOL    HW2 4724   4.040   7.956   6.206  0.7554  0.3118 -1.3819
64932SOL     OW 4725  12.805   9.670   1.170 -0.3388 -0.6266 -0.6757
64932SOL    HW1 4726  12.716   9.662   1.204  0.8514 -0.3531  2.9720
64932SOL    HW2 4727  12.818   9.764   1.159  0.1940 -0.4078  1.2996
64933SOL     OW 4728   7.767   4.615  10.799  0.0754  0.3273  0.0635
64933SOL    HW1 4729   7.746   4.626  10.891 -0.4895  1.2137 -0.1536
64933SOL    HW2 4730   7.860   4.590  10.797  0.0955  0.3331  0.8552
64934SOL     OW 4731   2.968   2.491  10.592 -0.5755  0.3551  0.3322
64934SOL    HW1 4732   3.014   2.561  10.545  3.4645 -2.3717 -0.3739
64934SOL    HW2 4733   2.964   2.521  10.683  1.0363  1.5738  0.0506
64935SOL     OW 4734   6.499   8.112   3.122 -0.1810  0.0162 -0.2358
64935SOL    HW1 4735   6.509   8.117   3.027 -0.8139  1.0272 -0.2640
64935SOL    HW2 4736   6.587   8.092   3.154  0.3211  0.9593 -0.9542
64936SOL     OW 4737  13.080   3.027   1.748 -0.3143 -0.0681  0.1581
64936SOL    HW1 4738  13.170   3.059   1.744 -1.1454  2.4404 -2.8352
64936SOL    HW2 4739  13.042   3.070   1.824  0.7167 -0.4110  0.8898
64937SOL     OW 4740   4.998   7.017   3.740  1.0112 -0.4378  0.4656
64937SOL    HW1 4741   4.945   7.001   3.662  0.8132 -3.2449  1.0754
64937SOL    HW2 4742   4.955   7.091   3.783 -0.9055 -1.0154 -0.3447
64938SOL     OW 4743   8.139   3.927  11.674 -0.2588 -0.6033 -0.5311
64938SOL    HW1 4744   8.051   3.894  11.692  1.0086 -2.0387  4.3708
64938SOL    HW2 4745   8.181   3.856  11.625 -0.7403 -1.6386  0.4986
64939SOL     OW 4746   8.236  10.505   4.925 -0.0210  0.1160  0.0929
64939SOL    HW1 4747   8.321  10.467   4.945  0.3375  1.5891  1.5411
64939SOL    HW2 4748   8.242  10.529   4.832  0.7658 -0.6889 -0.0796
64940SOL     OW 4749   8.713  12.031   2.658 -0.2710  0.5547 -0.0450
64940SOL    HW1 4750   8.653  12.041   2.584  1.1733  1.9281 -1.1059
64940SOL    HW2 4751   8.676  11.960   2.710 -1.6058 -0.1278 -1.8293
64941SOL     OW 4752   1.447  13.269   2.372 -0.0085 -0.0029 -0.5765
64941SOL    HW1 4753   1.426  13.228   2.456  0.6866 -2.3680 -1.4580
64941SOL    HW2 4754   1.451  13.362   2.391 -1.4023 -0.3245  1.6678
64942SOL     OW 4755   0.754   2.027  10.379 -0.1858 -0.5543 -0.4821
64942SOL    HW1 4756   0.687   2.091  10.401 -1.2249 -1.9094  0.5412
64942SOL    HW2 4757   0.720   1.982  10.302  0.0718 -0.5075 -0.6237
64943SOL     OW 4758   5.863   6.128   0.679 -0.4782  0.1605  0.3232
64943SOL    HW1 4759   5.936   6.076   0.644 -1.2236 -0.6859 -0.0041
64943SOL    HW2 4760   5.785   6.082   0.650 -1.1581  1.1259  0.5736
64944SOL     OW 4761   5.426   9.553   9.740 -0.1457 -0.5160  0.4299
64944SOL    HW1 4762   5.359   9.495   9.777  1.2795 -0.5493  3.2588
64944SOL    HW2 4763   5.498   9.494   9.716 -0.2050 -0.2633 -0.3982
64945SOL     OW 4764  10.537   3.309   1.903 -0.1862  0.0314 -0.6829
64945SOL    HW1 4765  10.453   3.332   1.863 -0.5601  0.1576  0.1635
64945SOL    HW2 4766  10.517   3.237   1.963 -0.1861  1.6641  1.4037
64946SOL     OW 4767   0.583   5.602   7.118 -0.4350 -0.7472 -0.2550
64946SOL    HW1 4768   0.658   5.548   7.092  1.3228  1.5616 -0.2685
64946SOL    HW2 4769   0.598   5.686   7.075 -1.9732  0.4517  1.4207
64947SOL     OW 4770   3.261   5.006   4.665  0.2407  0.1243  0.4519
64947SOL    HW1 4771   3.198   4.935   4.666  0.2598  0.0635 -0.7612
64947SOL    HW2 4772   3.334   4.973   4.611  0.7012  0.6810  0.7217
64948SOL     OW 4773  11.370  12.136   7.999 -0.4124  0.2283 -0.1661
64948SOL    HW1 4774  11.354  12.195   8.073  1.5970  0.0874  0.4521
64948SOL    HW2 4775  11.296  12.150   7.941 -1.0262  1.8503  0.9261
64949SOL     OW 4776   3.485   3.005  13.086  0.1661 -0.3005 -0.3115
64949SOL    HW1 4777   3.478   3.011  13.181  1.3277  0.0826 -0.2422
64949SOL    HW2 4778   3.403   2.964  13.059 -0.1528 -0.4676  0.8547
64950SOL     OW 4779  11.714   3.727   4.239 -0.2910  0.0035 -0.2300
64950SOL    HW1 4780  11.751   3.756   4.323  0.8290 -2.5546  0.2604
64950SOL    HW2 4781  11.620   3.726   4.253 -0.3451  2.3908 -0.0233
64951SOL     OW 4782   3.682   0.614   4.443  0.3011 -0.2051 -0.2573
64951SOL    HW1 4783   3.696   0.703   4.410  0.9436 -0.1370  0.1799
64951SOL    HW2 4784   3.591   0.594   4.421  0.0587  0.6832 -0.0887
64952SOL     OW 4785   4.695   1.369   0.903  0.3765  0.5683 -0.3122
64952SOL    HW1 4786   4.660   1.378   0.992 -0.7599 -1.2472 -0.5317
64952SOL    HW2 4787   4.628   1.406   0.846  0.5366  0.5528 -0.5133
64953SOL     OW 4788  10.683  12.480   0.765 -0.1533  0.1154  0.6099
64953SOL    HW1 4789  10.741  12.413   0.802  0.6888 -0.5804 -1.7613
64953SOL    HW2 4790  10.616  12.431   0.719  0.5752  0.8236 -1.3249
64954SOL     OW 4791   1.708   6.142   8.848 -0.7555 -0.4388 -0.2939
64954SOL    HW1 4792   1.658   6.088   8.786  1.0577  1.4182 -3.6718
64954SOL    HW2 4793   1.799   6.115   8.835 -0.0681  1.7141 -0.3407
64955SOL     OW 4794   3.468   0.985   8.901 -0.4250  0.7347 -0.0171
64955SOL    HW1 4795   3.487   0.918   8.966  0.2123  0.2320 -0.7021
64955SOL    HW2 4796   3.525   0.963   8.827  0.6761  2.6860  0.1723
64956SOL     OW 4797   1.426   0.405  11.899  0.2636  0.2380  0.0215
64956SOL    HW1 4798   1.394   0.383  11.811  2.0360 -0.5961 -0.4755
64956SOL    HW2 4799   1.476   0.486  11.886  1.7231 -0.6383 -0.0689
64957SOL     OW 4800   6.625   8.596   8.372 -0.5617 -0.3937  0.3923
64957SOL    HW1 4801   6.579   8.514   8.353  0.3124 -1.0265  0.9655
64957SOL    HW2 4802   6.561   8.648   8.421 -1.0695 -0.7927  0.1660
64958SOL     OW 4803   6.659   3.635  13.104 -0.4938  0.2694 -0.4425
64958SOL    HW1 4804   6.615   3.704  13.154 -0.1012  0.0281  0.2474
64958SOL    HW2 4805   6.646   3.660  13.013 -1.0972  0.7973 -0.2210
64959SOL     OW 4806  10.829  12.862   3.487  0.0740  0.1915  0.3448
64959SOL    HW1 4807  10.868  12.900   3.566  0.7200 -1.0557  0.6435
64959SOL    HW2 4808  10.735  12.876   3.497  0.2983  2.1131  0.2111
64960SOL     OW 4809   7.977   1.890  11.752 -0.0145 -0.3293  0.3903
64960SOL    HW1 4810   7.977   1.919  11.844  0.4773 -0.3128  0.3839
64960SOL    HW2 4811   7.930   1.959  11.706  0.9368  0.3517  0.4163
64961SOL     OW 4812   3.076   3.605  12.162 -0.0369  0.4164 -0.6045
64961SOL    HW1 4813   3.151   3.545  12.163 -0.4892 -0.1528 -0.1485
64961SOL    HW2 4814   3.008   3.559  12.211 -0.8982  0.6620 -1.5471
64962SOL     OW 4815   3.871   3.611   6.764 -0.7047 -0.2149  0.1631
64962SOL    HW1 4816   3.842   3.700   6.784  1.9172  0.5212  0.9843
64962SOL    HW2 4817   3.862   3.564   6.847  1.8512  0.4744  0.9039
64963SOL     OW 4818  13.192   1.480   3.064  0.2391 -0.2794 -0.5475
64963SOL    HW1 4819  13.138   1.498   2.988 -0.5022 -3.1386 -0.8069
64963SOL    HW2 4820  13.269   1.435   3.029 -0.2792 -1.9528  0.3374
64964SOL     OW 4821   9.580   1.845  10.185  0.5656  0.1743  0.0864
64964SOL    HW1 4822   9.674   1.834  10.167  0.5667  1.0864 -0.5326
64964SOL    HW2 4823   9.573   1.932  10.223 -0.1823  0.6548 -1.0971
64965SOL     OW 4824   0.490   3.459   4.480  0.6227 -0.3940 -0.5483
64965SOL    HW1 4825   0.428   3.398   4.520  0.8028 -0.0163  0.3444
64965SOL    HW2 4826   0.437   3.535   4.456  0.5469 -0.5393 -0.8377
64966SOL     OW 4827   6.476   4.589  12.719  0.5316  0.5287  0.3303
64966SOL    HW1 4828   6.498   4.682  12.714 -1.0724  0.9319  0.0225
64966SOL    HW2 4829   6.457   4.565  12.628  0.7689 -0.0600  0.4341
64967SOL     OW 4830   6.471   6.881   4.399  0.4578 -0.5428 -0.3796
64967SOL    HW1 4831   6.533   6.863   4.470 -0.5544 -1.4525  0.3054
64967SOL    HW2 4832   6.386   6.858   4.436 -0.1986 -0.1206 -1.5871
64968SOL     OW 4833  12.229   2.850   7.731 -0.1627 -0.9097  0.1766
64968SOL    HW1 4834  12.292   2.891   7.672 -1.1484  0.4180  0.0077
64968SOL    HW2 4835  12.148   2.845   7.681 -0.7577 -0.6589  1.0815
64969SOL     OW 4836   3.229  11.254  11.968 -0.5189 -0.0796  0.8154
64969SOL    HW1 4837   3.255  11.162  11.975  1.8791  0.5919  1.6575
64969SOL    HW2 4838   3.162  11.265  12.036  1.8811 -0.3897  3.3801
64970SOL     OW 4839   8.401  10.731   8.794  0.2266 -0.2947  0.2906
64970SOL    HW1 4840   8.388  10.638   8.811  0.1132 -0.3229  0.0626
64970SOL    HW2 4841   8.463  10.734   8.721 -1.0466 -0.2420 -0.8277
64971SOL     OW 4842  12.585   7.846   8.721  0.4378  0.0393  0.1166
64971SOL    HW1 4843  12.578   7.754   8.696 -0.7636  0.0173  0.4841
64971SOL    HW2 4844  12.589   7.893   8.638  1.3888 -0.3528 -0.0749
64972SOL     OW 4845  11.118   2.440   4.158  0.3977  0.4512 -0.0191
64972SOL    HW1 4846  11.112   2.460   4.065 -1.1898  2.9834  0.5344
64972SOL    HW2 4847  11.201   2.479   4.186  1.0336 -0.5956 -0.3932
64973SOL     OW 4848   0.544  12.698  10.608  0.4206  0.3160  0.7040
64973SOL    HW1 4849   0.593  12.760  10.661  0.2985 -0.1813  1.4191
64973SOL    HW2 4850   0.476  12.665  10.666  1.5410 -1.7729  0.9252
64974SOL     OW 4851   9.812   8.030   5.243  0.0596  0.1463  0.1078
64974SOL    HW1 4852   9.830   8.094   5.174  0.3267 -0.6778 -0.6211
64974SOL    HW2 4853   9.776   7.954   5.196  0.0547 -0.3543  0.9003
64975SOL     OW 4854   1.819   9.916   5.388 -0.2907  0.0394 -0.4151
64975SOL    HW1 4855   1.885   9.931   5.320  0.4582  0.1945  0.3271
64975SOL    HW2 4856   1.757   9.854   5.349  0.0373  0.2516 -1.2868
64976SOL     OW 4857  10.374   3.462   4.916  0.2800  0.1405 -0.0657
64976SOL    HW1 4858  10.397   3.445   4.825  0.5842  0.1149  0.0163
64976SOL    HW2 4859  10.399   3.382   4.962 -1.8454 -0.7145 -0.2931
64977SOL     OW 4860  12.988   6.423   6.063  0.2034 -0.5589 -0.8580
64977SOL    HW1 4861  12.947   6.422   5.977 -0.0669 -0.3356 -0.7306
64977SOL    HW2 4862  12.915   6.429   6.125  0.4048 -0.5783 -0.6165
64978SOL     OW 4863   0.306   8.994   9.258 -0.4756 -0.3416  0.0188
64978SOL    HW1 4864   0.339   9.084   9.250 -0.5951 -0.2673  0.3694
64978SOL    HW2 4865   0.304   8.962   9.168  0.7919 -0.4299 -0.0069
64979SOL     OW 4866   1.860   6.451   4.754 -0.0954 -0.4300 -0.1451
64979SOL    HW1 4867   1.823   6.539   4.764 -2.5875 -1.3994 -0.0534
64979SOL    HW2 4868   1.838   6.407   4.837 -1.3405 -1.9206 -1.2052
64980SOL     OW 4869   6.509   4.656   2.321  1.1556  0.5347  0.0146
64980SOL    HW1 4870   6.436   4.609   2.361  2.0637  0.1026  1.2040
64980SOL    HW2 4871   6.482   4.669   2.230 -0.5261  0.6495  0.5006
64981SOL     OW 4872  11.231  11.349   7.345  0.3990  0.1837  0.1274
64981SOL    HW1 4873  11.178  11.402   7.405 -0.4103  0.0207 -0.4284
64981SOL    HW2 4874  11.246  11.405   7.269 -0.5146 -0.3812 -0.4919
64982SOL     OW 4875  10.668  12.249   3.718  0.4035 -0.2394 -0.4166
64982SOL    HW1 4876  10.655  12.203   3.635  1.4878 -1.1023 -0.1204
64982SOL    HW2 4877  10.740  12.203   3.760  1.9005  2.0415 -0.3315
64983SOL     OW 4878  13.063  11.736   3.279 -0.1646 -0.8291 -0.0913
64983SOL    HW1 4879  13.089  11.780   3.198 -1.4861 -1.9067 -1.1569
64983SOL    HW2 4880  12.968  11.749   3.283 -0.3024 -1.9308  0.5671
64984SOL     OW 4881   6.190   3.665   0.801  0.2203 -0.1911 -0.2916
64984SOL    HW1 4882   6.205   3.634   0.891  1.1934  1.6840  0.2723
64984SOL    HW2 4883   6.276   3.662   0.760 -0.2503 -1.1858 -1.2448
64985SOL     OW 4884   8.736   5.902  11.543 -0.9755  0.4477 -0.2992
64985SOL    HW1 4885   8.706   5.985  11.580  0.5601  1.8330 -1.9859
64985SOL    HW2 4886   8.796   5.867  11.608 -0.5359  1.3921 -0.1871
64986SOL     OW 4887   7.742  10.403   5.446  0.0236 -0.8763  0.4927
64986SOL    HW1 4888   7.797  10.470   5.405  0.5918 -2.2056 -0.9978
64986SOL    HW2 4889   7.654  10.439   5.441  0.4541  0.3107  0.8945
64987SOL     OW 4890   0.793  12.791  11.837  0.0177 -0.3017 -0.2661
64987SOL    HW1 4891   0.774  12.792  11.743  0.0369  2.5015 -0.3352
64987SOL    HW2 4892   0.860  12.859  11.848 -0.6373  0.0578  1.8767
64988SOL     OW 4893   3.770   6.971   3.619  0.3246 -0.0028 -0.3992
64988SOL    HW1 4894   3.718   6.945   3.695 -0.5542 -0.6224 -1.2048
64988SOL    HW2 4895   3.708   6.972   3.546  0.4109  3.6625 -0.6016
64989SOL     OW 4896   9.393   9.396   8.516 -0.2465  0.7947  0.3040
64989SOL    HW1 4897   9.437   9.330   8.569 -1.5913 -1.4506 -1.2071
64989SOL    HW2 4898   9.453   9.413   8.444 -0.7877 -0.4699 -0.4732
64990SOL     OW 4899   1.770   4.466   5.894  0.3592 -0.5441  0.1607
64990SOL    HW1 4900   1.730   4.381   5.913  0.7272 -0.6330  0.5514
64990SOL    HW2 4901   1.729   4.527   5.956 -0.7939 -0.1732 -0.9063
64991SOL     OW 4902  13.074   7.945   7.848 -0.6396 -0.3821  0.0432
64991SOL    HW1 4903  13.031   7.868   7.885  0.8905 -2.7641 -2.7045
64991SOL    HW2 4904  13.163   7.916   7.829  0.2495  2.3563 -0.3870
64992SOL     OW 4905   6.875  12.375  10.526  0.1792  0.0952  0.0479
64992SOL    HW1 4906   6.817  12.351  10.598 -0.4113  0.1045 -0.4202
64992SOL    HW2 4907   6.837  12.333  10.449  1.0153 -0.2250 -0.1995
64993SOL     OW 4908  13.014   5.380   6.564  0.3947 -0.4660 -0.3071
64993SOL    HW1 4909  13.086   5.376   6.628 -0.2200 -0.1859  0.4151
64993SOL    HW2 4910  13.004   5.473   6.544  1.4861 -0.6406 -1.8898
64994SOL     OW 4911   8.912   7.356  11.086  0.1158  0.1764 -0.6525
64994SOL    HW1 4912   9.000   7.377  11.053 -0.2922  0.6667 -1.4554
64994SOL    HW2 4913   8.925   7.279  11.141  1.3363  1.2969  0.6955
64995SOL     OW 4914  12.852   8.420   0.910 -0.5897 -0.3137 -0.5737
64995SOL    HW1 4915  12.857   8.357   0.838 -1.6677 -0.2365 -0.7248
64995SOL    HW2 4916  12.759   8.424   0.934 -0.2010 -0.7519  1.1970
64996SOL     OW 4917   7.175  11.651   8.853 -0.1718 -0.7539 -0.4927
64996SOL    HW1 4918   7.222  11.630   8.934  0.0744 -0.1613 -0.4782
64996SOL    HW2 4919   7.237  11.704   8.803 -0.4591 -0.8072 -0.9077
64997SOL     OW 4920  10.942   9.219  11.352  0.2816  0.6818 -0.4593
64997SOL    HW1 4921  10.992   9.295  11.379  0.4561  1.3000 -2.3896
64997SOL    HW2 4922  11.008   9.153  11.331  0.1366  0.0443  1.0191
64998SOL     OW 4923   7.746   8.148   1.739  0.4514 -0.2088 -0.2071
64998SOL    HW1 4924   7.819   8.173   1.796  0.0559 -1.5436  0.9648
64998SOL    HW2 4925   7.753   8.207   1.664  1.6621  0.8877  0.7003
64999SOL     OW 4926   2.606   5.822   3.959  0.1301  0.5727 -0.3770
64999SOL    HW1 4927   2.658   5.806   3.881 -0.3302  2.5136 -1.1368
64999SOL    HW2 4928   2.646   5.899   3.999  0.8474 -0.8329  1.7953
65000SOL     OW 4929   9.704  11.038  11.471 -0.3734 -0.1913  0.0535
65000SOL    HW1 4930   9.680  11.130  11.481  0.6772  0.0423  0.5358
65000SOL    HW2 4931   9.641  10.991  11.526  0.4600  0.4442  1.6264
65001SOL     OW 4932   3.151  12.707  10.997  0.4412  0.0755 -0.0975
65001SOL    HW1 4933   3.099  12.704  11.078 -0.6814 -2.2884 -0.8045
65001SOL    HW2 4934   3.242  12.701  11.027  0.0065 -1.7693  1.0279
65002SOL     OW 4935   5.644   9.291   1.655 -0.4718 -0.0668 -0.6051
65002SOL    HW1 4936   5.588   9.352   1.607 -0.5185  0.1669 -0.2536
65002SOL    HW2 4937   5.706   9.346   1.702 -1.4798 -0.1742  0.9521
65003SOL     OW 4938  12.344   3.536   3.386  0.2005  0.5437 -0.3081
65003SOL    HW1 4939  12.294   3.568   3.461  0.2908  1.7905 -0.7539
65003SOL    HW2 4940  12.435   3.537   3.415 -0.0131 -2.7211  0.8630
65004SOL     OW 4941   2.567   2.710   1.022  0.0142 -0.0252 -0.3061
65004SOL    HW1 4942   2.591   2.617   1.019 -0.3484 -0.2075  1.5453
65004SOL    HW2 4943   2.586   2.736   1.112  0.4265  1.7943 -0.8955
65005SOL     OW 4944   3.849   2.123  10.497 -0.6642 -0.0928  0.4133
65005SOL    HW1 4945   3.902   2.175  10.558 -0.7400 -0.8372  1.1360
65005SOL    HW2 4946   3.760   2.127  10.534 -0.7372 -0.4373  0.2732
65006SOL     OW 4947   9.911   2.563   7.489  0.1201  0.2491  0.0678
65006SOL    HW1 4948   9.900   2.589   7.580 -1.3528  0.2491 -0.0875
65006SOL    HW2 4949   9.867   2.478   7.483  2.3648 -0.9830 -0.0995
65007SOL     OW 4950   8.430   0.596   3.857  0.1126  0.4563  0.2367
65007SOL    HW1 4951   8.475   0.566   3.936 -1.1994 -0.6362  0.6288
65007SOL    HW2 4952   8.347   0.548   3.858 -0.7080  1.7743 -0.8649
65008SOL     OW 4953   5.878   4.129  10.669 -0.5198  0.2330 -0.0586
65008SOL    HW1 4954   5.937   4.057  10.694  0.4541  1.5899  1.7366
65008SOL    HW2 4955   5.863   4.177  10.750 -4.6448 -0.3358 -0.2771
65009SOL     OW 4956   6.383   2.825   0.890  0.2477  0.0574  0.0448
65009SOL    HW1 4957   6.340   2.785   0.814 -0.4390  0.5628  0.1657
65009SOL    HW2 4958   6.438   2.754   0.925 -1.2225 -0.9227  0.4676
65010SOL     OW 4959   7.935   9.744   5.018  0.3369 -0.1062  0.6665
65010SOL    HW1 4960   7.984   9.664   5.037  1.7169  0.1508 -1.5511
65010SOL    HW2 4961   8.002   9.810   5.003 -0.6804  0.5303 -1.3740
65011SOL     OW 4962   7.654   3.802   9.087  0.4815  0.9978 -0.2245
65011SOL    HW1 4963   7.587   3.806   9.156  1.4119 -2.0012  0.9932
65011SOL    HW2 4964   7.737   3.805   9.134  1.1423 -0.6590 -1.2329
65012SOL     OW 4965   3.370   2.141   7.596  0.2405  0.3193  0.3061
65012SOL    HW1 4966   3.464   2.160   7.595  0.6264 -1.3099  1.6324
65012SOL    HW2 4967   3.331   2.213   7.645  1.0014  0.2876  0.9726
65013SOL     OW 4968  11.250   4.341   2.942 -0.6690 -0.4274 -0.2999
65013SOL    HW1 4969  11.312   4.407   2.913 -1.6305  0.6450  0.0034
65013SOL    HW2 4970  11.304   4.266   2.967  0.4346  0.1747 -0.8215
65014SOL     OW 4971   1.959  10.010  12.656 -0.1741 -0.2747  0.4952
65014SOL    HW1 4972   1.922   9.926  12.684 -0.7414 -0.8968 -1.9253
65014SOL    HW2 4973   1.890  10.074  12.674 -1.7307 -1.1175 -2.0761
65015SOL     OW 4974   3.481  10.988   1.259  0.2385 -0.7429  0.0792
65015SOL    HW1 4975   3.473  10.932   1.336 -0.9876 -0.8176 -0.0772
65015SOL    HW2 4976   3.448  10.935   1.187 -1.6382  0.3666  0.0357
65016SOL     OW 4977   2.276   0.432   0.226  0.6472  0.0537  0.1400
65016SOL    HW1 4978   2.278   0.512   0.172  3.4505  0.8304  1.2391
65016SOL    HW2 4979   2.279   0.361   0.162 -2.3077  0.6885 -0.8896
65017SOL     OW 4980   4.661   8.783   0.768  0.0480  0.1543 -0.9185
65017SOL    HW1 4981   4.618   8.828   0.841  0.0079 -1.9300  0.4413
65017SOL    HW2 4982   4.610   8.807   0.691  0.9554  3.5920 -0.5918
65018SOL     OW 4983   1.613   2.850  10.735  0.0360 -0.2047 -0.1260
65018SOL    HW1 4984   1.658   2.777  10.778  1.6467  1.4026  1.0487
65018SOL    HW2 4985   1.523   2.819  10.723  0.3831 -1.9479  1.3579
65019SOL     OW 4986   4.025   6.219   2.947  0.6439  0.1665 -0.0801
65019SOL    HW1 4987   3.997   6.178   2.865  0.3560  0.3063 -0.0530
65019SOL    HW2 4988   4.080   6.153   2.990 -0.4547 -0.5060  0.3353
65020SOL     OW 4989  12.937   9.238   9.713  0.4100  0.1082  0.0785
65020SOL    HW1 4990  12.860   9.281   9.749  0.5140  0.4568 -0.1070
65020SOL    HW2 4991  12.975   9.190   9.787 -0.1221 -0.2721  0.1081
65021SOL     OW 4992   6.387   5.981   0.764  0.5661  0.0087  0.7103
65021SOL    HW1 4993   6.457   5.987   0.829 -0.3802  0.8927  1.6773
65021SOL    HW2 4994   6.366   5.887   0.760  1.3006 -0.1756  0.9290
65022SOL     OW 4995   2.503   0.151  10.601 -0.0401 -0.0923  0.0144
65022SOL    HW1 4996   2.487   0.082  10.664  1.6033  0.9398  1.6550
65022SOL    HW2 4997   2.439   0.136  10.532 -0.0779 -2.9079  0.5588
65023SOL     OW 4998   8.332   1.262   9.844  0.0661 -0.5190 -0.7651
65023SOL    HW1 4999   8.285   1.221   9.917  0.8366  0.1797  0.1702
65023SOL    HW2 5000   8.355   1.190   9.786 -0.7982 -1.0623 -0.4463
65024SOL     OW 5001   4.422   5.566   2.166 -0.7378 -0.2603 -0.1940
65024SOL    HW1 5002   4.490   5.551   2.232 -0.2147 -0.1901 -0.7054
65024SOL    HW2 5003   4.441   5.501   2.098 -1.4317 -0.5080 -0.1533
65025SOL     OW 5004   4.225   8.222   8.174 -0.0920 -0.3233  0.3254
65025SOL    HW1 5005   4.271   8.238   8.091 -0.6784 -1.3443 -0.2130
65025SOL    HW2 5006   4.150   8.282   8.171 -0.1487 -0.4026  0.0817
65026SOL     OW 5007  10.635   5.067   8.295 -0.0600 -0.0553 -0.1166
65026SOL    HW1 5008  10.577   5.055   8.220 -0.6143 -0.9106  0.4301
65026SOL    HW2 5009  10.721   5.084   8.257 -0.7512  1.8526 -0.9548
65027SOL     OW 5010  12.138   3.950   1.656 -0.6359 -0.0993  0.1219
65027SOL    HW1 5011  12.190   4.010   1.601 -1.1608  0.0856 -0.1798
65027SOL    HW2 5012  12.087   4.007   1.712 -0.4389 -0.2847  0.4901
65028SOL     OW 5013   7.799   2.336   1.608  0.5892 -0.3288 -0.6299
65028SOL    HW1 5014   7.766   2.419   1.573  0.3509  0.0650  0.4682
65028SOL    HW2 5015   7.813   2.354   1.701  3.0358 -0.7645 -0.8579
65029SOL     OW 5016   1.926   5.665  10.838 -0.0879 -0.0500  0.2603
65029SOL    HW1 5017   1.912   5.571  10.831 -0.7863  0.1334 -1.1101
65029SOL    HW2 5018   1.840   5.699  10.865 -0.4634  0.3933 -1.4012
65030SOL     OW 5019   6.963   8.350   5.449  0.2142  0.1755  0.1929
65030SOL    HW1 5020   7.022   8.275   5.445  0.1986  0.1952 -0.9045
65030SOL    HW2 5021   6.954   8.378   5.357 -0.0876  1.2720  0.5380
65031SOL     OW 5022   1.745   6.050   3.084  0.3988 -0.0988  0.6036
65031SOL    HW1 5023   1.679   6.120   3.085  1.1459  0.6728 -0.9122
65031SOL    HW2 5024   1.820   6.088   3.130  0.0929 -0.6873  1.6215
65032SOL     OW 5025   5.513   8.663  11.331  0.7880 -0.0917  0.4258
65032SOL    HW1 5026   5.505   8.759  11.331  0.2145 -0.1181 -1.1982
65032SOL    HW2 5027   5.592   8.646  11.281 -0.6818 -0.5209 -1.8868
65033SOL     OW 5028   6.964   0.366   3.902  0.0602 -0.9691 -0.0182
65033SOL    HW1 5029   7.042   0.386   3.851  0.0498 -0.4384  0.1626
65033SOL    HW2 5030   6.898   0.342   3.836  0.0522 -0.3077 -0.2590
65034SOL     OW 5031  13.249   6.831   4.044 -0.3864  0.2562 -0.3085
65034SOL    HW1 5032  13.251   6.914   4.091 -0.0723 -0.1422  0.3871
65034SOL    HW2 5033  13.297   6.770   4.100  0.9226  0.0158 -1.6191
65035SOL     OW 5034   0.905   2.363   1.070 -0.0691  0.3523  0.2429
65035SOL    HW1 5035   0.999   2.372   1.082  0.2328 -0.1144 -1.5435
65035SOL    HW2 5036   0.892   2.270   1.052 -0.8624  0.4339  0.3588
65036SOL     OW 5037   2.711   6.440   7.112  0.0959  0.4470 -0.2984
65036SOL    HW1 5038   2.626   6.429   7.071 -0.8335  1.0154  1.4001
65036SOL    HW2 5039   2.762   6.364   7.083 -1.3275 -0.4589 -0.4823
65037SOL     OW 5040  11.115   2.164   3.229  0.2747 -0.0352  0.3324
65037SOL    HW1 5041  11.092   2.108   3.154 -0.3301 -1.2348  1.3821
65037SOL    HW2 5042  11.210   2.156   3.236  0.1713 -1.1143  0.5999
65038SOL     OW 5043   5.966   4.074   0.624  0.2154 -0.1783  0.5423
65038SOL    HW1 5044   6.002   4.000   0.673 -0.9694 -0.5281  0.9319
65038SOL    HW2 5045   5.881   4.043   0.594  0.6265  0.2718 -1.1959
65039SOL     OW 5046   3.722   3.274   4.232  0.0510  0.4091  0.5053
65039SOL    HW1 5047   3.676   3.269   4.316  0.5952 -1.3577  0.7336
65039SOL    HW2 5048   3.761   3.188   4.220  2.8610  1.6117  0.0617
65040SOL     OW 5049  11.953   0.473  10.861  0.0326 -0.0230 -0.1367
65040SOL    HW1 5050  11.880   0.413  10.873  0.9319 -1.1932 -0.3734
65040SOL    HW2 5051  11.999   0.440  10.783  0.9988  0.4871  0.2049
65041SOL     OW 5052   4.133   6.716   5.340  0.2213  0.4368 -0.0010
65041SOL    HW1 5053   4.194   6.774   5.295  3.2818 -1.4462  1.3691
65041SOL    HW2 5054   4.126   6.639   5.284  1.0713 -0.3420  0.9102
65042SOL     OW 5055   2.744   7.226   0.769  0.0266 -0.4030 -0.7971
65042SOL    HW1 5056   2.698   7.308   0.749 -0.1793 -0.8103 -2.0982
65042SOL    HW2 5057   2.704   7.196   0.851  0.0560  0.7466 -0.3413
65043SOL     OW 5058   6.774   9.685   6.936  0.3163 -0.3712  0.7267
65043SOL    HW1 5059   6.823   9.736   6.871  1.4335 -3.4892 -1.0995
65043SOL    HW2 5060   6.694   9.659   6.891  0.3653 -1.2644  1.1370
65044SOL     OW 5061   5.908   5.400   7.410 -0.4932 -0.1918 -0.2342
65044SOL    HW1 5062   5.955   5.323   7.379  0.1792  0.4028 -0.7169
65044SOL    HW2 5063   5.928   5.468   7.345 -1.4394  0.2684 -0.0600
65045SOL     OW 5064   2.871   6.147  11.054  0.4451 -0.6569  0.2731
65045SOL    HW1 5065   2.957   6.133  11.095  0.1664  0.3005  1.2266
65045SOL    HW2 5066   2.811   6.158  11.127 -0.3451 -0.4401 -0.3977
65046SOL     OW 5067  12.363  13.181  11.893  0.2682  0.2942 -0.0822
65046SOL    HW1 5068  12.362  13.276  11.881 -1.9059  0.3349  0.0194
65046SOL    HW2 5069  12.279  13.161  11.934  1.0129 -1.6059  0.6295
65047SOL     OW 5070   6.885   3.022  12.752  0.0871 -0.5130  0.4657
65047SOL    HW1 5071   6.794   3.030  12.726  0.2830 -0.0423 -0.0861
65047SOL    HW2 5072   6.930   3.094  12.708  1.2137 -2.2917 -1.5165
65048SOL     OW 5073   0.226   8.098   2.594 -0.2307  0.0986  0.2820
65048SOL    HW1 5074   0.296   8.072   2.534  2.7988  4.0356  1.6869
65048SOL    HW2 5075   0.152   8.117   2.538  1.1251 -0.3564 -1.7581
65049SOL     OW 5076   1.291   7.287   5.587 -0.0245  0.3179  0.2021
65049SOL    HW1 5077   1.251   7.366   5.624 -0.1725  0.5187 -0.3707
65049SOL    HW2 5078   1.270   7.291   5.494  0.1853 -0.2707  0.1234
65050SOL     OW 5079  10.775   3.396   2.044  0.0544  0.3060 -0.4075
65050SOL    HW1 5080  10.847   3.336   2.025 -1.7667 -1.6682 -1.4236
65050SOL    HW2 5081  10.797   3.433   2.130  1.6838 -1.0991 -0.1649
65051SOL     OW 5082   0.227   0.843  10.434  0.5901 -0.2162 -0.4544
65051SOL    HW1 5083   0.252   0.898  10.360  0.8081 -1.1935 -1.1155
65051SOL    HW2 5084   0.133   0.858  10.446  0.8032  0.9134 -0.1024
65052SOL     OW 5085  12.926   3.680   0.792 -0.3152  0.2224 -0.0688
65052SOL    HW1 5086  12.843   3.680   0.840  0.4982  2.5097  1.4753
65052SOL    HW2 5087  12.942   3.771   0.770  2.6045  0.1227  1.1629
65053SOL     OW 5088   3.711  11.661   9.456  0.6797  0.1506  0.3016
65053SOL    HW1 5089   3.662  11.737   9.425 -2.4807 -0.4080  3.2820
65053SOL    HW2 5090   3.673  11.587   9.409 -1.1241 -0.2144  2.1849
65054SOL     OW 5091   6.524   0.356  13.199  1.2145  0.0820  0.1513
65054SOL    HW1 5092   6.498   0.283  13.142 -1.1052 -0.1135  1.3483
65054SOL    HW2 5093   6.551   0.314  13.281  0.7570  0.5174  0.5315
65055SOL     OW 5094  13.159  11.987  11.263 -0.0716 -0.5041  0.0835
65055SOL    HW1 5095  13.163  12.004  11.169  0.3320  1.5926  0.4382
65055SOL    HW2 5096  13.235  11.932  11.280  0.7103  0.3456 -0.5847
65056SOL     OW 5097  10.687  11.735  12.261 -0.1702  0.8190 -0.3881
65056SOL    HW1 5098  10.779  11.745  12.288  0.7765 -3.2538 -1.3811
65056SOL    HW2 5099  10.692  11.710  12.169 -2.3028  0.7519 -0.5172
65057SOL     OW 5100   5.647  12.117  13.271  0.0726  0.0220  0.5275
65057SOL    HW1 5101   5.693  12.126  13.188 -1.9176  1.3466 -0.5250
65057SOL    HW2 5102   5.623  12.025  13.276 -0.1554  0.0116 -0.5940
65058SOL     OW 5103   5.383  12.881   9.991 -0.2787  0.1885  0.3927
65058SOL    HW1 5104   5.368  12.927  10.074 -1.5213 -0.5330  0.5855
65058SOL    HW2 5105   5.331  12.801   9.997 -1.0007  0.4565 -1.3561
65059SOL     OW 5106   0.754   5.785   6.071  0.4536  0.1436 -0.0715
65059SOL    HW1 5107   0.802   5.704   6.058  0.4847  0.2626 -0.6869
65059SOL    HW2 5108   0.663   5.757   6.084  0.3008  0.0640 -1.2355
65060SOL     OW 5109   5.263   4.692   0.140 -0.2049 -0.8080 -0.7370
65060SOL    HW1 5110   5.323   4.766   0.146 -2.6294  1.4057 -1.9756
65060SOL    HW2 5111   5.299   4.637   0.071  0.2463  0.6551 -1.6932
65061SOL     OW 5112   9.118   6.294   7.497 -0.1409  0.1217  0.3411
65061SOL    HW1 5113   9.176   6.338   7.436 -0.9299 -1.3726 -1.5792
65061SOL    HW2 5114   9.036   6.342   7.492 -0.3644 -0.3048 -0.1950
65062SOL     OW 5115  10.920   3.436  11.257 -0.4848 -0.4929 -0.0322
65062SOL    HW1 5116  10.988   3.371  11.274  1.4182  1.1678 -0.8874
65062SOL    HW2 5117  10.886   3.413  11.170  1.4516  0.6309 -1.1400
65063SOL     OW 5118   4.524   3.328   0.027 -0.5435  0.0319  0.3960
65063SOL    HW1 5119   4.454   3.290   0.080  0.8045  0.4327  2.6025
65063SOL    HW2 5120   4.597   3.266   0.035  0.4363  1.1964  0.9552
65064SOL     OW 5121   6.825   3.829   1.192 -0.0210  0.3647  0.1282
65064SOL    HW1 5122   6.748   3.879   1.217  0.7354  1.5897  0.0598
65064SOL    HW2 5123   6.821   3.750   1.246 -0.2293  1.3688  1.6242
65065SOL     OW 5124   2.065   5.779   0.827  0.4826 -0.6274  0.1028
65065SOL    HW1 5125   2.079   5.864   0.867  3.0376 -1.3269  0.8707
65065SOL    HW2 5126   2.034   5.799   0.738  1.8781  1.1453 -0.0392
65066SOL     OW 5127  10.840   2.762  12.616 -0.2962 -0.1687 -0.6278
65066SOL    HW1 5128  10.921   2.778  12.568 -0.4698 -0.5893 -1.0649
65066SOL    HW2 5129  10.869   2.739  12.705  0.1136 -1.1789 -1.0040
65067SOL     OW 5130   1.908   4.916  10.921 -0.6233 -0.2256  0.2426
65067SOL    HW1 5131   1.974   4.846  10.921 -1.1680 -0.7551 -0.6232
65067SOL    HW2 5132   1.900   4.942  11.013 -1.8603 -2.6874  0.9154
65068SOL     OW 5133   3.992   8.369   6.171  0.3462  0.4939  0.4335
65068SOL    HW1 5134   4.074   8.336   6.208  0.0001 -0.1550  0.6456
65068SOL    HW2 5135   4.019   8.439   6.111  1.1147 -0.2542 -0.1209
65069SOL     OW 5136   7.338   7.954  10.495  0.6097  0.4199  0.2356
65069SOL    HW1 5137   7.245   7.958  10.517  0.3532 -0.0627 -0.7144
65069SOL    HW2 5138   7.364   7.863  10.513  0.8504  0.5013  0.3128
65070SOL     OW 5139   2.182   1.908   4.715  0.6720 -0.9547 -0.1703
65070SOL    HW1 5140   2.158   1.841   4.779 -0.7712  0.0149  0.3519
65070SOL    HW2 5141   2.138   1.987   4.745 -0.3943 -0.5325 -2.5486
65071SOL     OW 5142   6.660   4.942   2.204 -0.3770 -0.2171 -0.2159
65071SOL    HW1 5143   6.729   4.882   2.232  0.3519  0.2359 -0.9845
65071SOL    HW2 5144   6.673   5.020   2.257  0.4675  0.3169 -1.1720
65072SOL     OW 5145   6.110  10.768  12.904  0.0571  0.5520 -0.8050
65072SOL    HW1 5146   6.205  10.781  12.907 -0.1301  2.3095 -1.2688
65072SOL    HW2 5147   6.091  10.713  12.980  1.5280 -0.6384 -1.2329
65073SOL     OW 5148   2.190  12.358   0.120 -0.7659 -0.1207 -0.1632
65073SOL    HW1 5149   2.218  12.281   0.168 -1.5556 -1.2020 -1.3730
65073SOL    HW2 5150   2.099  12.339   0.096 -0.1968  0.0361 -2.6809
65074SOL     OW 5151   0.274   8.944   3.326 -0.3772  0.6503 -0.0626
65074SOL    HW1 5152   0.368   8.943   3.308 -0.5318 -0.1166 -0.8861
65074SOL    HW2 5153   0.234   8.904   3.249 -1.3798  0.9161  0.3040
65075SOL     OW 5154   5.936   8.402   0.634  0.0918  0.1915  0.2201
65075SOL    HW1 5155   5.983   8.408   0.717  0.7717 -0.7514 -0.0738
65075SOL    HW2 5156   6.002   8.371   0.571 -0.9160 -1.2676 -0.1798
65076SOL     OW 5157   9.112   7.689  10.282 -0.3423  0.0880 -0.5884
65076SOL    HW1 5158   9.167   7.641  10.344 -0.7910  0.0590 -0.2073
65076SOL    HW2 5159   9.043   7.627  10.258  0.2569 -0.1726 -1.7269
65077SOL     OW 5160   3.693   5.625   9.678 -0.3268  0.3234 -0.4073
65077SOL    HW1 5161   3.677   5.535   9.708  1.5585  0.3485  0.7848
65077SOL    HW2 5162   3.623   5.641   9.614 -1.1294 -1.7268 -0.1239
65078SOL     OW 5163  10.730   8.626   6.208  0.1926  0.2914 -0.1197
65078SOL    HW1 5164  10.731   8.716   6.173  0.3937  0.7803  1.0776
65078SOL    HW2 5165  10.680   8.633   6.289 -1.5865 -1.1150 -1.0259
65079SOL     OW 5166  11.991   5.194  13.012 -0.1119  0.2516  0.2099
65079SOL    HW1 5167  12.072   5.241  12.995 -0.4120  0.4221 -0.7820
65079SOL    HW2 5168  11.932   5.261  13.048  0.3552  0.0003  1.5155
65080SOL     OW 5169   9.626   0.447   0.431 -0.3135 -0.2200  0.5835
65080SOL    HW1 5170   9.634   0.453   0.336  1.0651  2.7644  0.7559
65080SOL    HW2 5171   9.702   0.396   0.459 -0.5359 -0.8067  0.1374
65081SOL     OW 5172   5.774   8.849   7.220 -0.2172  0.5939  0.0053
65081SOL    HW1 5173   5.768   8.945   7.219  2.0471  0.7763 -0.1307
65081SOL    HW2 5174   5.774   8.826   7.313 -0.1796  0.7725  0.0501
65082SOL     OW 5175  11.061  11.795   3.651 -0.0252 -0.2872  0.4531
65082SOL    HW1 5176  11.028  11.715   3.611  0.5594  0.7004 -2.1800
65082SOL    HW2 5177  11.140  11.767   3.698 -0.3114 -1.3813  0.3156
65083SOL     OW 5178   6.045   1.063   0.044  0.2925  0.2328  0.2336
65083SOL    HW1 5179   5.999   1.030  -0.033  2.6754 -2.5738 -0.2055
65083SOL    HW2 5180   5.985   1.048   0.116 -1.4783  1.6993 -0.8497
65084SOL     OW 5181  11.842   2.162   8.399  0.6833 -0.6931  0.1115
65084SOL    HW1 5182  11.853   2.096   8.467  1.5372 -1.1583 -0.4757
65084SOL    HW2 5183  11.830   2.113   8.318 -0.7450 -0.1523 -0.0457
65085SOL     OW 5184   7.111  10.030   4.623 -0.2281 -0.4848 -0.1275
65085SOL    HW1 5185   7.166   9.953   4.609  0.2553  0.0060 -0.9864
65085SOL    HW2 5186   7.165  10.090   4.674 -0.3938 -0.4853  0.0482
65086SOL     OW 5187  11.319   4.243   0.243  0.4018 -0.1515 -0.4227
65086SOL    HW1 5188  11.260   4.279   0.309  0.7253 -0.2088 -0.0980
65086SOL    HW2 5189  11.365   4.320   0.208  0.6682 -0.1832 -0.1472
65087SOL     OW 5190   3.843  13.310   4.605 -0.0711 -0.0922 -0.7472
65087SOL    HW1 5191   3.796  13.388   4.635 -0.1273 -0.2335 -0.4714
65087SOL    HW2 5192   3.830  13.246   4.674  0.1386 -0.2846 -0.8864
65088SOL     OW 5193  13.110  11.123   7.610  0.3033  0.3165 -0.3048
65088SOL    HW1 5194  13.118  11.216   7.588 -1.3036  0.4338 -0.5052
65088SOL    HW2 5195  13.187  11.105   7.664  0.1605  2.0171  0.5676
65089SOL     OW 5196   3.423   2.458  11.821 -0.4437 -0.4888  0.9781
65089SOL    HW1 5197   3.397   2.366  11.826  1.4635 -1.0353  1.9931
65089SOL    HW2 5198   3.364   2.496  11.756 -1.1838 -2.4578  0.4188
65090SOL     OW 5199   8.270   5.277   4.083  0.4687 -0.0325  0.0732
65090SOL    HW1 5200   8.253   5.187   4.113  0.4735  0.0961  0.4662
65090SOL    HW2 5201   8.298   5.323   4.161  1.7985 -0.0183 -0.3866
65091SOL     OW 5202   7.555   4.828   0.455  0.3753  0.7213 -0.2517
65091SOL    HW1 5203   7.538   4.735   0.438  0.1968  1.1389 -2.5477
65091SOL    HW2 5204   7.649   4.832   0.473  0.8261  0.3321 -2.2958
65092SOL     OW 5205   3.759  12.204   9.327 -1.0921 -0.0519  0.2562
65092SOL    HW1 5206   3.785  12.125   9.375  0.5438  2.4802  4.0344
65092SOL    HW2 5207   3.744  12.173   9.238  2.2386 -4.1778  0.7470
65093SOL     OW 5208   8.434   8.577  10.975 -0.2270  0.6028  0.5257
65093SOL    HW1 5209   8.470   8.642  11.035  1.7560  1.8430 -1.8478
65093SOL    HW2 5210   8.418   8.625  10.894 -2.9975 -0.9713  0.0239
65094SOL     OW 5211   0.115  11.693   9.668  0.4875  0.1828  0.5283
65094SOL    HW1 5212   0.022  11.715   9.679  0.8323  0.9307  2.2414
65094SOL    HW2 5213   0.115  11.600   9.645 -0.8393  0.9528 -3.4108
65095SOL     OW 5214   5.260  12.917   5.153 -0.7717  0.1157 -0.3538
65095SOL    HW1 5215   5.193  12.911   5.085  0.1033 -0.0802 -1.2186
65095SOL    HW2 5216   5.335  12.870   5.117  1.1633  3.4107 -1.0525
65096SOL     OW 5217   5.043   8.192   3.025 -0.0893  0.3955 -0.6171
65096SOL    HW1 5218   4.956   8.159   3.003 -0.1865 -1.5929  2.2093
65096SOL    HW2 5219   5.100   8.115   3.018  1.2061  1.3493 -1.0382
65097SOL     OW 5220   5.848   5.283   1.186 -0.3364 -0.2804  0.1010
65097SOL    HW1 5221   5.881   5.371   1.203  1.7007 -0.7211 -1.1192
65097SOL    HW2 5222   5.777   5.295   1.123  0.4904  0.4732 -0.7254
65098SOL     OW 5223  13.301   7.346   8.548  0.3311  0.2646  0.3802
65098SOL    HW1 5224  13.393   7.373   8.541  0.1289  1.7132  2.3924
65098SOL    HW2 5225  13.259   7.382   8.469  1.5528 -1.0135 -0.9257
65099SOL     OW 5226   2.092   4.128  10.150 -0.1031 -0.8614 -0.0028
65099SOL    HW1 5227   2.004   4.155  10.175  0.4169  0.6536  0.3113
65099SOL    HW2 5228   2.123   4.074  10.223 -0.4560 -0.6982  0.2701
65100SOL     OW 5229   6.105   0.305   8.339 -0.2891  0.0973  0.0436
65100SOL    HW1 5230   6.130   0.287   8.430  2.1271  0.8367 -0.4111
65100SOL    HW2 5231   6.010   0.317   8.343 -0.2538  0.1499  2.4758
65101SOL     OW 5232  11.564   5.509   5.880  0.0150  0.2829  0.1777
65101SOL    HW1 5233  11.606   5.504   5.965  2.6928  1.1717 -0.9843
65101SOL    HW2 5234  11.508   5.432   5.876  1.2443 -0.7677  2.0232
65102SOL     OW 5235   8.366   4.307   3.450 -0.4495 -0.6297 -0.5204
65102SOL    HW1 5236   8.365   4.213   3.467 -1.1777 -0.4283  0.7194
65102SOL    HW2 5237   8.321   4.345   3.526  0.6112  0.7855 -0.5666
65103SOL     OW 5238   1.688  10.463   6.644  0.2302 -0.3571 -0.6138
65103SOL    HW1 5239   1.624  10.472   6.573 -1.3135 -0.8732  0.6610
65103SOL    HW2 5240   1.712  10.371   6.643 -0.7466 -0.6385  0.2929
65104SOL     OW 5241  11.310   6.722   3.580 -0.5876  0.1322  0.2457
65104SOL    HW1 5242  11.357   6.661   3.638  0.1263  1.0437  0.6563
65104SOL    HW2 5243  11.295   6.672   3.500  0.0671 -0.5565  0.5362
65105SOL     OW 5244   6.864   5.080  11.767  0.3347 -0.2064  0.1325
65105SOL    HW1 5245   6.915   5.010  11.807  1.1051  0.1895 -0.1407
65105SOL    HW2 5246   6.803   5.108  11.836  1.0285 -0.1427  0.7333
65106SOL     OW 5247   2.425   3.018   7.456  0.1812 -0.4008 -0.2761
65106SOL    HW1 5248   2.484   3.046   7.386 -2.2136  1.4051 -1.7316
65106SOL    HW2 5249   2.366   3.093   7.469 -0.9475 -1.5866  2.0576
65107SOL     OW 5250   3.586   1.786   9.427 -0.6164 -0.1013 -0.1781
65107SOL    HW1 5251   3.612   1.736   9.504 -0.2449 -1.2028 -0.9958
65107SOL    HW2 5252   3.504   1.829   9.453 -0.2502 -0.0690  0.9769
65108SOL     OW 5253  10.742   2.597  13.101 -0.3553 -0.5888  0.1647
65108SOL    HW1 5254  10.780   2.514  13.071  1.2812  0.4973 -0.8899
65108SOL    HW2 5255  10.723   2.582  13.194  0.0200 -2.0940  0.0253
65109SOL     OW 5256   9.764   7.072   1.501  0.1700 -0.0488 -0.3198
65109SOL    HW1 5257   9.707   7.135   1.544  0.4241 -0.0466  0.0213
65109SOL    HW2 5258   9.755   6.992   1.554  0.3739 -0.0902 -0.3483
65110SOL     OW 5259  10.067   3.166   0.481  0.3079 -0.6491  0.4526
65110SOL    HW1 5260  10.028   3.125   0.404 -1.3414  0.5657  0.5850
65110SOL    HW2 5261  10.029   3.119   0.555  0.8519 -0.9237  0.5660
65111SOL     OW 5262   2.879   8.022  11.096  0.2178  0.4129 -0.2276
65111SOL    HW1 5263   2.806   8.052  11.150  0.8153 -1.4019  1.7483
65111SOL    HW2 5264   2.914   7.946  11.143  1.4794 -0.6416 -2.6751
65112SOL     OW 5265   5.796   7.454   5.812 -0.0029  0.8590 -0.2859
65112SOL    HW1 5266   5.878   7.504   5.805  0.9137 -0.7441 -1.5696
65112SOL    HW2 5267   5.760   7.454   5.724  0.3619 -1.2352 -0.4843
65113SOL     OW 5268   9.249   3.569   4.844  0.2980  0.0457 -0.3912
65113SOL    HW1 5269   9.318   3.503   4.838 -1.0529 -1.3517 -1.7900
65113SOL    HW2 5270   9.208   3.554   4.929  0.1060 -0.8934 -0.6247
65114SOL     OW 5271   1.403   4.256  13.140 -0.4400  0.2032  0.1804
65114SOL    HW1 5272   1.434   4.282  13.053 -1.7638 -0.8802 -0.6469
65114SOL    HW2 5273   1.449   4.175  13.159 -3.1092 -1.8827 -1.4205
65115SOL     OW 5274   4.369   2.737   9.343 -0.4307 -0.6927  0.1387
65115SOL    HW1 5275   4.337   2.659   9.387 -0.9275 -0.1912  0.6779
65115SOL    HW2 5276   4.458   2.749   9.377  0.7166 -2.5354 -1.9430
65116SOL     OW 5277   5.535   6.185   9.587 -0.3755 -0.5012  0.1579
65116SOL    HW1 5278   5.512   6.112   9.645  1.6489 -0.6020  0.9081
65116SOL    HW2 5279   5.613   6.223   9.627 -0.3777  0.9927 -1.1807
65117SOL     OW 5280   2.053   3.041   7.832 -0.6231  0.0953 -0.4884
65117SOL    HW1 5281   2.075   3.001   7.916 -1.3606  0.6625 -0.0172
65117SOL    HW2 5282   1.982   2.986   7.797  0.5559 -0.9358 -1.3879
65118SOL     OW 5283   0.944   0.746  12.642  0.2967  0.1708 -1.1649
65118SOL    HW1 5284   0.985   0.695  12.712 -0.9523  0.3762 -0.2529
65118SOL    HW2 5285   0.977   0.835  12.654 -1.4333  0.6486  0.4621
65119SOL     OW 5286   6.571  11.034  11.323 -0.4312  0.1780  0.4423
65119SOL    HW1 5287   6.590  10.998  11.236 -0.1239 -1.4740  1.1720
65119SOL    HW2 5288   6.479  11.062  11.318 -0.3189  0.4018 -0.5067
65120SOL     OW 5289   0.872   0.087  11.910 -0.3388 -0.0503 -0.4346
65120SOL    HW1 5290   0.910   0.112  11.825  2.4410 -1.5312  0.2530
65120SOL    HW2 5291   0.879   0.166  11.963 -0.4835  0.3816 -1.0409
65121SOL     OW 5292   9.302   6.875  11.574  0.1373 -0.1019 -0.1033
65121SOL    HW1 5293   9.378   6.829  11.540  0.7618  1.3274 -0.7410
65121SOL    HW2 5294   9.227   6.829  11.538  0.6327 -2.0404  1.1856
65122SOL     OW 5295   0.660  12.952   0.045  0.0622  0.0626  0.1488
65122SOL    HW1 5296   0.575  12.931   0.009 -0.5622 -0.6757  1.9190
65122SOL    HW2 5297   0.670  12.891   0.119  1.8982  0.4670  0.2777
65123SOL     OW 5298  12.816   4.783   4.170  0.4988 -0.1109  0.1237
65123SOL    HW1 5299  12.728   4.795   4.206  1.4569  1.0171  2.2708
65123SOL    HW2 5300  12.863   4.733   4.237  2.0910  1.1841  0.0340
65124SOL     OW 5301   2.205   7.512   3.707 -0.0601 -0.6645  0.5600
65124SOL    HW1 5302   2.246   7.429   3.684  2.1251  0.3857  0.4705
65124SOL    HW2 5303   2.278   7.572   3.722 -1.5684  1.6372 -0.7804
65125SOL     OW 5304   8.677   6.851   1.015  0.0057 -0.3006 -0.1707
65125SOL    HW1 5305   8.715   6.881   0.933 -0.6791 -0.0117 -0.3885
65125SOL    HW2 5306   8.636   6.929   1.053 -0.1397 -0.5482  0.1907
65126SOL     OW 5307   9.378   9.657   4.204  0.4310  0.4473 -0.8356
65126SOL    HW1 5308   9.335   9.582   4.165  1.1792 -0.2812 -0.3021
65126SOL    HW2 5309   9.461   9.665   4.156  0.5011  0.7171 -0.6726
65127SOL     OW 5310   7.400   5.686  11.281  0.2092  0.4173  0.4871
65127SOL    HW1 5311   7.417   5.642  11.364 -0.2292  0.1515  0.4399
65127SOL    HW2 5312   7.310   5.662  11.259  0.9082 -1.0207 -0.9894
65128SOL     OW 5313  11.684  10.406   6.748 -0.5486 -0.4081  0.6032
65128SOL    HW1 5314  11.678  10.501   6.753  0.6501 -0.3497  1.4149
65128SOL    HW2 5315  11.611  10.374   6.801 -0.0520  0.0923  1.6189
65129SOL     OW 5316  11.303   5.468   4.673 -0.3959 -0.2006  0.0243
65129SOL    HW1 5317  11.294   5.562   4.660  0.1866 -0.2182 -0.5808
65129SOL    HW2 5318  11.285   5.430   4.587 -0.3547 -0.6178  0.1970
65130SOL     OW 5319   1.922   7.097   2.353 -0.3495 -0.6017  0.1149
65130SOL    HW1 5320   1.868   7.147   2.414  1.3499  2.1832 -0.4673
65130SOL    HW2 5321   1.989   7.057   2.408  0.2148  0.5729  0.3346
65131SOL     OW 5322   4.108   1.387  12.481 -0.0852  0.1748  0.3947
65131SOL    HW1 5323   4.022   1.414  12.450 -0.0680 -0.1944  0.0312
65131SOL    HW2 5324   4.106   1.292  12.479  0.7807  0.1654 -0.8548
65132SOL     OW 5325  11.236   7.037   9.678  0.1130 -0.7214 -0.1820
65132SOL    HW1 5326  11.317   7.075   9.712  0.2594 -2.3572  1.4565
65132SOL    HW2 5327  11.256   6.945   9.663 -1.5738 -1.3093  0.8796
65133SOL     OW 5328  10.515  13.064   7.484 -0.1178 -0.0003 -0.2325
65133SOL    HW1 5329  10.560  13.137   7.441  1.2462 -1.0029 -0.5913
65133SOL    HW2 5330  10.472  13.018   7.412  0.8420 -0.7646 -0.3471
65134SOL     OW 5331   4.492   1.447  12.048 -0.3516 -0.0379  0.2014
65134SOL    HW1 5332   4.402   1.436  12.079 -0.9959  0.4352 -1.4170
65134SOL    HW2 5333   4.533   1.503  12.114 -0.4393 -2.2566  2.3135
65135SOL     OW 5334   7.818   3.869  11.554 -0.0768  0.5351  0.6375
65135SOL    HW1 5335   7.808   3.913  11.638 -1.2327  1.1017  0.2224
65135SOL    HW2 5336   7.745   3.807  11.551 -0.2170  0.7267 -0.0670
65136SOL     OW 5337   6.794  10.389  11.508  0.2955 -0.8476  0.0169
65136SOL    HW1 5338   6.882  10.388  11.470  1.0673  0.1581  1.6734
65136SOL    HW2 5339   6.741  10.437  11.445  1.1200 -0.7252 -0.5999
65137SOL     OW 5340   7.231   8.554   2.395 -0.5256  0.4624  0.0204
65137SOL    HW1 5341   7.147   8.575   2.434 -0.7071 -0.3722  0.1131
65137SOL    HW2 5342   7.230   8.458   2.387  0.2913  0.4676 -0.2467
65138SOL     OW 5343  12.779   6.113   0.643 -0.1632 -0.2828 -0.1164
65138SOL    HW1 5344  12.781   6.132   0.737 -0.0097 -0.3865 -0.0980
65138SOL    HW2 5345  12.858   6.062   0.627 -1.7493 -3.0888  0.3169
65139SOL     OW 5346  12.525  11.301   6.647  0.2941 -0.7189  0.3710
65139SOL    HW1 5347  12.555  11.376   6.699 -0.8789 -0.2693  0.4287
65139SOL    HW2 5348  12.583  11.300   6.571 -0.6782  1.2760 -0.4630
65140SOL     OW 5349  10.957  13.148   0.043  0.0097  0.1177 -0.0438
65140SOL    HW1 5350  10.991  13.233   0.071 -0.9880 -0.0275  1.7364
65140SOL    HW2 5351  10.874  13.169  -0.000 -0.6410  0.0219  1.1182
65141SOL     OW 5352   5.649   1.669   8.915 -0.7930 -0.8496 -0.0363
65141SOL    HW1 5353   5.709   1.668   8.840 -0.0206 -0.7931  0.5601
65141SOL    HW2 5354   5.675   1.593   8.967 -0.7281 -0.3943  0.6126
65142SOL     OW 5355   8.575   7.663   5.420 -0.1726 -0.9377 -0.5223
65142SOL    HW1 5356   8.589   7.620   5.504  2.3112  1.6717  0.5659
65142SOL    HW2 5357   8.628   7.612   5.358  1.8869 -0.1925  0.5274
65143SOL     OW 5358   5.390   0.385   3.199  0.3242  0.6715 -0.1619
65143SOL    HW1 5359   5.297   0.364   3.193  0.7020 -1.6284  0.8574
65143SOL    HW2 5360   5.427   0.351   3.118  0.7394 -1.8060  0.9520
65144SOL     OW 5361   3.037  12.477   9.345 -0.0061  0.2739 -0.2796
65144SOL    HW1 5362   3.083  12.399   9.378  0.2424  0.5214 -0.0272
65144SOL    HW2 5363   2.958  12.443   9.304  0.5255 -0.1816 -0.9408
65145SOL     OW 5364  11.375   1.200   2.796 -0.0623  0.1985  0.1146
65145SOL    HW1 5365  11.467   1.175   2.791  0.1173 -0.3946  3.6599
65145SOL    HW2 5366  11.376   1.290   2.829 -0.7093  0.0522  0.5673
65146SOL     OW 5367   5.411   8.283   7.463  0.8778 -0.4932  0.1717
65146SOL    HW1 5368   5.378   8.229   7.535  0.3851  0.4623  0.6914
65146SOL    HW2 5369   5.424   8.222   7.391  1.4648 -1.4853  1.0941
65147SOL     OW 5370   4.931  11.649   9.874 -0.1723  0.0995  0.1733
65147SOL    HW1 5371   4.850  11.599   9.878 -0.6242  0.7386 -0.5755
65147SOL    HW2 5372   4.989  11.606   9.936 -0.7203 -1.0305 -0.0629
65148SOL     OW 5373  11.114   1.578   4.212  0.0516  0.0652  0.0259
65148SOL    HW1 5374  11.022   1.555   4.207 -0.5191  2.0408  0.4880
65148SOL    HW2 5375  11.135   1.573   4.305  0.3411 -0.1048 -0.0466
65149SOL     OW 5376   5.319   3.908   0.461  0.0667  0.1686  0.4138
65149SOL    HW1 5377   5.307   3.813   0.466 -0.3820  0.1346 -0.9319
65149SOL    HW2 5378   5.393   3.925   0.519 -0.2117 -0.9201  1.1341
65150SOL     OW 5379   3.219  11.440  10.115  0.2391 -0.2558 -0.7118
65150SOL    HW1 5380   3.245  11.388  10.191  1.8569  0.5140 -0.7100
65150SOL    HW2 5381   3.129  11.413  10.098 -0.1496 -0.5012  1.4223
65151SOL     OW 5382   4.500   0.208  11.550 -0.6269  0.2175 -0.6566
65151SOL    HW1 5383   4.538   0.225  11.636 -2.5573  1.2139  0.0387
65151SOL    HW2 5384   4.465   0.119  11.557 -0.8007  0.3052 -0.4104
65152SOL     OW 5385   2.051   1.208   5.427  0.2297 -0.2155  0.0295
65152SOL    HW1 5386   2.037   1.242   5.516  0.4885  1.1999 -0.4439
65152SOL    HW2 5387   2.144   1.227   5.410  0.4708 -1.4929 -0.1391
65153SOL     OW 5388   4.306   5.021   2.588 -0.2524  0.4069 -0.5238
65153SOL    HW1 5389   4.311   4.934   2.548  1.0608  0.8046 -1.3034
65153SOL    HW2 5390   4.398   5.049   2.594 -0.6663  1.7834 -0.3957
65154SOL     OW 5391   4.346   5.373   3.602  0.3463  0.3039 -0.4453
65154SOL    HW1 5392   4.334   5.468   3.613 -1.0094 -0.0883  2.1492
65154SOL    HW2 5393   4.290   5.350   3.528 -1.1133  1.2418  0.3123
65155SOL     OW 5394   3.312  11.809  12.800  0.5431  0.0548 -0.1653
65155SOL    HW1 5395   3.324  11.806  12.895 -1.2750  0.3158  0.0929
65155SOL    HW2 5396   3.314  11.717  12.773 -2.5510 -0.3468  0.6580
65156SOL     OW 5397   2.490   0.088  12.339  0.0741 -0.2475 -0.1793
65156SOL    HW1 5398   2.503   0.027  12.412 -1.4294 -0.0568  0.2822
65156SOL    HW2 5399   2.576   0.095  12.298  0.4901 -1.9564  0.3272
65157SOL     OW 5400  10.597   7.514   6.496 -0.0546  0.3821 -0.1469
65157SOL    HW1 5401  10.643   7.596   6.514  1.4155 -0.4169 -0.0842
65157SOL    HW2 5402  10.574   7.520   6.403  0.3021  0.7418 -0.2166
65158SOL     OW 5403   5.666   8.812   2.530 -0.1615  0.5845  0.1331
65158SOL    HW1 5404   5.712   8.893   2.550 -1.0410  0.6796  1.9879
65158SOL    HW2 5405   5.586   8.840   2.485 -1.3372  0.9553  2.3330
65159SOL     OW 5406   3.502   2.499   9.707 -0.0830  0.2793  0.1823
65159SOL    HW1 5407   3.522   2.588   9.736  1.3190 -0.2601  0.9609
65159SOL    HW2 5408   3.453   2.511   9.626  0.3546  1.7513  0.1015
65160SOL     OW 5409   6.591   6.284  11.728 -0.0334  0.2977  0.0728
65160SOL    HW1 5410   6.589   6.300  11.822  3.7289 -2.3711  0.8526
65160SOL    HW2 5411   6.668   6.332  11.697 -0.4013  0.0223 -1.3435
65161SOL     OW 5412   3.729   7.145   7.980  0.0270 -0.4998 -0.7140
65161SOL    HW1 5413   3.774   7.215   8.027  0.5481 -1.6166  0.5403
65161SOL    HW2 5414   3.777   7.135   7.898  1.2015 -0.7007 -0.0243
65162SOL     OW 5415   3.305   2.463   2.763  0.1697 -0.3483 -0.7581
65162SOL    HW1 5416   3.238   2.437   2.826  1.0978 -0.4855  0.1949
65162SOL    HW2 5417   3.384   2.478   2.815  0.4471  1.5611 -1.6317
65163SOL     OW 5418   3.516   7.998   5.037 -0.0214 -0.0703 -0.2250
65163SOL    HW1 5419   3.444   7.999   4.974 -0.2858 -0.0789  0.0747
65163SOL    HW2 5420   3.474   8.006   5.122  0.3479  0.1388 -0.0575
65164SOL     OW 5421   6.660   2.486   2.074 -0.5015 -0.0985 -0.3184
65164SOL    HW1 5422   6.738   2.430   2.069  1.3723  2.1434  1.3675
65164SOL    HW2 5423   6.642   2.492   2.168 -1.8631  0.5405 -0.6033
65165SOL     OW 5424  10.956   9.244   1.791  0.1428  0.6446 -0.2713
65165SOL    HW1 5425  10.931   9.268   1.880 -0.3524 -1.6817  0.2629
65165SOL    HW2 5426  10.915   9.311   1.736 -0.5079  1.4612  1.1499
65166SOL     OW 5427   6.874  12.491   3.653 -0.4719 -0.6564  0.0620
65166SOL    HW1 5428   6.913  12.545   3.720  2.0764 -0.3310 -1.5564
65166SOL    HW2 5429   6.840  12.553   3.588 -0.4697 -0.9714 -0.2469
65167SOL     OW 5430   0.564  11.086  13.284  0.2554  0.1165  0.4108
65167SOL    HW1 5431   0.498  11.028  13.321 -0.3037  0.8326  0.5694
65167SOL    HW2 5432   0.516  11.167  13.264  0.5433 -0.1656 -1.7178
65168SOL     OW 5433  10.570  11.911   9.991  0.0867  0.0274 -0.0002
65168SOL    HW1 5434  10.644  11.875   9.942 -0.2575  0.8405 -1.1437
65168SOL    HW2 5435  10.596  12.001  10.010 -1.5373  1.1444 -2.5384
65169SOL     OW 5436   0.039  11.317   8.520 -0.6223  0.0602  0.7347
65169SOL    HW1 5437  -0.017  11.394   8.512 -2.4424 -1.1668  0.7615
65169SOL    HW2 5438   0.092  11.316   8.441 -0.5500  1.3217  0.7460
65170SOL     OW 5439   5.290   4.292  10.107 -0.5197 -0.3174  0.0814
65170SOL    HW1 5440   5.373   4.314  10.065 -1.4926  0.3033 -1.6083
65170SOL    HW2 5441   5.246   4.376  10.119 -1.1479 -0.6882  0.4220
65171SOL     OW 5442   1.787  12.409   4.600  0.0835 -0.0826 -0.3659
65171SOL    HW1 5443   1.811  12.433   4.690 -0.4782 -1.4229  0.1732
65171SOL    HW2 5444   1.868  12.418   4.550  0.7851 -0.7955  0.6027
65172SOL     OW 5445  12.290  13.228   5.957  0.4185  0.3556 -0.3351
65172SOL    HW1 5446  12.220  13.256   6.016  0.1430  1.6964 -1.2704
65172SOL    HW2 5447  12.315  13.141   5.990 -0.3308  0.6822  1.1970
65173SOL     OW 5448   1.787   2.870   4.884 -0.1213  0.4525  0.3070
65173SOL    HW1 5449   1.706   2.903   4.843 -0.7873  1.3698  2.2269
65173SOL    HW2 5450   1.760   2.845   4.972  1.0952 -2.2187 -0.0035
65174SOL     OW 5451   4.949   6.113   3.685 -0.2288 -0.9254  0.1475
65174SOL    HW1 5452   4.871   6.060   3.667 -0.5926  0.1461 -1.7622
65174SOL    HW2 5453   5.016   6.076   3.627 -0.1015 -0.1928 -0.1839
65175SOL     OW 5454  10.582   8.839   6.693 -0.3371 -0.1233 -0.4564
65175SOL    HW1 5455  10.532   8.900   6.638 -0.1672  0.7519  0.3308
65175SOL    HW2 5456  10.547   8.852   6.781  1.7031  1.0087  0.2460
65176SOL     OW 5457   5.835   8.898   6.802 -0.1738  0.1613  0.2959
65176SOL    HW1 5458   5.880   8.826   6.845 -1.2275 -0.2404  0.7734
65176SOL    HW2 5459   5.828   8.871   6.710 -0.1515 -0.1365  0.3819
65177SOL     OW 5460   2.106   3.955   3.352  0.1838 -0.0910  0.6561
65177SOL    HW1 5461   2.028   3.921   3.396 -0.9155  1.1346 -0.2793
65177SOL    HW2 5462   2.171   3.885   3.361 -0.6757 -0.7232  2.3424
65178SOL     OW 5463   0.362   1.150   2.191 -0.0528  0.0569 -0.4813
65178SOL    HW1 5464   0.304   1.217   2.153  0.7959  2.1040  1.5694
65178SOL    HW2 5465   0.431   1.201   2.234  0.6427 -2.1705  1.1950
65179SOL     OW 5466  10.058  10.212  11.071 -0.1994  0.6952 -0.2184
65179SOL    HW1 5467  10.052  10.295  11.025  1.5843 -0.1133 -2.1225
65179SOL    HW2 5468  10.138  10.219  11.123  0.1956  0.0650 -0.7147
65180SOL     OW 5469   0.584  12.263  13.043  0.8468 -0.6017 -0.0545
65180SOL    HW1 5470   0.578  12.245  13.137 -0.7050 -0.6261 -0.1326
65180SOL    HW2 5471   0.616  12.181  13.006  0.0240 -1.1095  0.3073
65181SOL     OW 5472  12.158   5.911  11.123 -0.7088 -0.3905 -0.1171
65181SOL    HW1 5473  12.132   5.956  11.042 -1.4751  0.2191  0.4523
65181SOL    HW2 5474  12.252   5.894  11.111 -0.9447 -0.9327 -1.4252
65182SOL     OW 5475   5.559   6.346   3.570 -0.1660  0.2784  0.1494
65182SOL    HW1 5476   5.512   6.282   3.624  0.2625  1.8678  2.5133
65182SOL    HW2 5477   5.651   6.336   3.595  0.3170 -0.1330 -1.6284
65183SOL     OW 5478   3.321   3.206  11.933 -0.1882 -0.1186  0.2641
65183SOL    HW1 5479   3.313   3.112  11.917  1.0425  0.0655 -1.7748
65183SOL    HW2 5480   3.416   3.222  11.934 -0.3943  1.2451 -0.4604
65184SOL     OW 5481   3.653   9.545  10.158 -0.5688  0.1267  0.5579
65184SOL    HW1 5482   3.716   9.480  10.190 -1.2130  0.2220  2.0935
65184SOL    HW2 5483   3.687   9.629  10.189 -0.4040  0.4044 -0.3455
65185SOL     OW 5484  11.900   5.923  10.347  0.1706  0.1552 -0.0342
65185SOL    HW1 5485  11.852   5.841  10.360 -0.7433  0.7939  0.7755
65185SOL    HW2 5486  11.897   5.938  10.253  0.9248 -1.0636 -0.2749
65186SOL     OW 5487   6.937   3.062   0.095 -0.2893  0.0962  0.4931
65186SOL    HW1 5488   6.932   3.003   0.021  1.8581 -1.4796  1.5094
65186SOL    HW2 5489   7.029   3.089   0.099 -0.3203  0.0845  2.5685
65187SOL     OW 5490  10.987  12.465   1.061  0.1816 -0.2220  0.2778
65187SOL    HW1 5491  11.075  12.493   1.038  0.8997 -0.1059  2.8491
65187SOL    HW2 5492  10.997  12.372   1.084 -0.3937 -0.2458  0.4439
65188SOL     OW 5493   7.650   2.526   4.154 -0.0785 -0.0723 -0.1370
65188SOL    HW1 5494   7.713   2.538   4.083  1.3566  0.0064  1.1088
65188SOL    HW2 5495   7.690   2.568   4.230 -1.4122 -0.4556  0.8239
65189SOL     OW 5496   3.416   9.859   1.901  0.2298 -0.4086 -0.2559
65189SOL    HW1 5497   3.325   9.858   1.931  0.5919 -0.2717  0.9218
65189SOL    HW2 5498   3.413   9.819   1.814 -0.9468 -0.4259 -0.2282
65190SOL     OW 5499  10.312   8.485   3.649 -0.0453  0.1401  0.4099
65190SOL    HW1 5500  10.269   8.444   3.724 -0.9704  1.3817  0.5776
65190SOL    HW2 5501  10.275   8.441   3.573  0.2069 -0.4776  0.6399
65191SOL     OW 5502   2.459   1.768   3.756 -0.0110  0.1733 -0.4262
65191SOL    HW1 5503   2.427   1.858   3.750 -1.8017 -0.4857 -1.1340
65191SOL    HW2 5504   2.393   1.721   3.807  0.8694 -0.7778 -0.1131
65192SOL     OW 5505   0.319   3.378  13.153  0.3760  0.7966 -0.2886
65192SOL    HW1 5506   0.287   3.468  13.163 -0.3496  0.3708  1.4192
65192SOL    HW2 5507   0.246   3.330  13.116  0.4682  0.7041 -0.3534
65193SOL     OW 5508   5.882  12.254   6.356  0.2793  0.3157  0.5414
65193SOL    HW1 5509   5.824  12.321   6.319 -1.7808 -1.1021  0.9706
65193SOL    HW2 5510   5.883  12.274   6.450  0.6894  0.4872  0.4991
65194SOL     OW 5511  12.372   9.851   9.393  0.1950  0.4410  0.0770
65194SOL    HW1 5512  12.303   9.828   9.330  1.1874 -0.4886 -0.7216
65194SOL    HW2 5513  12.389   9.770   9.441 -0.6658  1.1847  1.7155
65195SOL     OW 5514   8.860   0.094   4.236  0.0019 -0.1957  0.0222
65195SOL    HW1 5515   8.908   0.174   4.257  0.8630 -0.4859 -0.7575
65195SOL    HW2 5516   8.870   0.039   4.313 -0.3564  0.3326  0.4523
65196SOL     OW 5517  11.440   4.163  11.136  0.1910 -0.5601 -0.1981
65196SOL    HW1 5518  11.439   4.258  11.118 -0.0992 -0.7861 -1.4897
65196SOL    HW2 5519  11.451   4.157  11.231  0.6515  0.7651 -0.1400
65197SOL     OW 5520  10.772  12.544   6.775 -0.0736  0.1616  0.3740
65197SOL    HW1 5521  10.743  12.631   6.804 -0.6133  0.4376 -0.9389
65197SOL    HW2 5522  10.859  12.533   6.814 -1.1610  0.0351  2.9949
65198SOL     OW 5523  10.960   6.470   5.401  0.0831 -0.1183  0.0554
65198SOL    HW1 5524  10.908   6.551   5.403  0.1123 -0.0957  1.6381
65198SOL    HW2 5525  11.046   6.498   5.370 -0.0352  0.3752  0.1497
65199SOL     OW 5526   7.643  10.229   3.836 -0.3734 -0.5117 -0.6390
65199SOL    HW1 5527   7.694  10.242   3.756 -1.2689 -1.9387 -1.4893
65199SOL    HW2 5528   7.561  10.188   3.806 -0.4218 -1.7674  1.0623
65200SOL     OW 5529   2.080   6.883  11.754  0.4024 -0.0138  0.3523
65200SOL    HW1 5530   2.128   6.803  11.732 -2.0177 -1.1019 -1.4722
65200SOL    HW2 5531   2.020   6.857  11.823  0.1581  0.4583  0.3231
65201SOL     OW 5532   7.195   1.128   0.360 -0.4830 -0.0750 -0.3155
65201SOL    HW1 5533   7.143   1.163   0.288 -2.4211 -1.1312  0.5084
65201SOL    HW2 5534   7.172   1.035   0.363  1.5202 -0.6119  0.0657
65202SOL     OW 5535   9.370   7.719  11.882 -0.1404  0.2823  0.4497
65202SOL    HW1 5536   9.400   7.710  11.973 -0.4769 -0.0436  0.5322
65202SOL    HW2 5537   9.449   7.710  11.829  0.0601  0.4959  0.7104
65203SOL     OW 5538   6.811   0.133  10.745  0.4703 -0.4481 -0.5283
65203SOL    HW1 5539   6.740   0.134  10.809  1.7913 -1.2893  1.0392
65203SOL    HW2 5540   6.884   0.091  10.791  2.2112  0.9669 -1.8410
65204SOL     OW 5541   3.684   1.953   6.500 -0.3593 -0.1107 -0.1682
65204SOL    HW1 5542   3.751   1.903   6.546 -0.7102 -1.1960 -0.8132
65204SOL    HW2 5543   3.683   2.038   6.545 -1.2486 -1.3706  2.3474
65205SOL     OW 5544   8.666   9.259   8.808  0.2858  0.0455 -0.4850
65205SOL    HW1 5545   8.640   9.180   8.856 -0.3671  0.2319 -0.5163
65205SOL    HW2 5546   8.726   9.227   8.741  1.5415 -0.1653  0.6880
65206SOL     OW 5547  10.004   7.387   6.287 -0.2062  0.7035  0.2052
65206SOL    HW1 5548   9.947   7.458   6.316 -0.3335  0.2674  1.0597
65206SOL    HW2 5549   9.944   7.316   6.263 -0.0616  0.5483  0.2904
65207SOL     OW 5550  11.572   3.006   8.416 -0.0520  0.2885 -0.3136
65207SOL    HW1 5551  11.518   3.052   8.352  0.0126 -0.5024 -0.9609
65207SOL    HW2 5552  11.658   3.047   8.409 -0.5649  1.5899  0.7586
65208SOL     OW 5553   4.284   1.584   9.070  0.3004 -0.4763  0.1507
65208SOL    HW1 5554   4.233   1.653   9.027 -0.8315 -1.2215  0.2539
65208SOL    HW2 5555   4.292   1.516   9.004 -2.8562 -2.3491  1.4874
65209SOL     OW 5556   0.003   9.563   7.068  0.0103 -0.0395 -0.3293
65209SOL    HW1 5557  -0.027   9.645   7.028  1.0635  0.2501 -0.5549
65209SOL    HW2 5558   0.092   9.551   7.035 -0.3203 -1.5700 -0.7263
65210SOL     OW 5559   4.799  12.845   7.509 -0.2833 -0.8385  0.1276
65210SOL    HW1 5560   4.775  12.913   7.573  0.1845 -0.4220 -0.1232
65210SOL    HW2 5561   4.779  12.763   7.553  1.0742 -0.5979  1.2795
65211SOL     OW 5562   9.617   7.406  11.407 -0.0388  0.6107  0.7330
65211SOL    HW1 5563   9.540   7.401  11.351 -0.7342  1.8951  1.5049
65211SOL    HW2 5564   9.690   7.382  11.351 -0.8920  0.3712 -0.2974
65212SOL     OW 5565  10.051   5.885   7.961 -0.1949 -0.0520 -0.0340
65212SOL    HW1 5566  10.024   5.804   7.918  0.5811 -0.9222  1.0653
65212SOL    HW2 5567   9.969   5.927   7.986 -0.5938 -1.0015  0.2921
65213SOL     OW 5568   4.172   2.957   2.247  0.2741 -0.0836 -1.0919
65213SOL    HW1 5569   4.233   3.017   2.291 -0.2515  0.7641 -1.4803
65213SOL    HW2 5570   4.195   2.871   2.280  1.8856  0.1704 -1.4586
65214SOL     OW 5571   1.634   7.762   3.229  0.5243  0.0404 -0.0766
65214SOL    HW1 5572   1.550   7.728   3.259  1.0623 -0.7202  0.6058
65214SOL    HW2 5573   1.643   7.727   3.140 -1.0491  2.2574 -1.2077
65215SOL     OW 5574   9.534   7.914  10.193 -0.2069 -0.1901 -0.2585
65215SOL    HW1 5575   9.608   7.970  10.216  2.2626 -2.3256 -2.4182
65215SOL    HW2 5576   9.522   7.858  10.270  1.2763 -0.6427 -0.3412
65216SOL     OW 5577   3.170  10.447   1.060 -0.1697  0.4496  0.0982
65216SOL    HW1 5578   3.142  10.531   1.097 -0.6924  0.3110  0.0279
65216SOL    HW2 5579   3.264  10.457   1.044 -0.2161  0.9900  0.1678
65217SOL     OW 5580  13.159   7.486   2.994 -0.0947  0.2507 -0.0235
65217SOL    HW1 5581  13.187   7.434   2.918 -0.3259 -0.9305  0.6667
65217SOL    HW2 5582  13.148   7.574   2.960  3.8764  0.7375 -0.4956
65218SOL     OW 5583  12.076   7.590  12.896  0.1376 -0.2620 -0.5674
65218SOL    HW1 5584  12.063   7.566  12.988 -0.7232 -0.8856 -0.8434
65218SOL    HW2 5585  11.997   7.561  12.852  0.2634  0.6164 -1.4073
65219SOL     OW 5586   6.469  11.975   7.617 -0.2297  0.6377  0.0337
65219SOL    HW1 5587   6.546  11.952   7.669  0.5236  1.0553 -0.8656
65219SOL    HW2 5588   6.465  12.070   7.620 -1.2654  0.5858  0.8302
65220SOL     OW 5589   8.750  12.958   5.561 -0.1681  0.3122  0.3589
65220SOL    HW1 5590   8.775  13.012   5.486 -1.1817 -0.0651 -0.2720
65220SOL    HW2 5591   8.818  12.891   5.566 -0.0385  0.3992 -0.1652
65221SOL     OW 5592  12.465   7.987  11.502 -0.2638  0.2963 -0.4112
65221SOL    HW1 5593  12.558   7.984  11.526 -0.5877 -2.3007  0.9600
65221SOL    HW2 5594  12.461   8.046  11.427  2.3396  1.1958  0.0436
65222SOL     OW 5595   1.464   2.134   4.062  0.4181 -0.2555 -0.5261
65222SOL    HW1 5596   1.527   2.116   3.992  1.9474  2.1545  0.1042
65222SOL    HW2 5597   1.452   2.229   4.059  1.4379  0.1328  3.1178
65223SOL     OW 5598   8.647   9.957   2.319  0.0137 -0.2522 -1.0174
65223SOL    HW1 5599   8.719   9.915   2.273 -0.1442 -1.2801 -0.3735
65223SOL    HW2 5600   8.583   9.887   2.331 -0.5096  0.3188 -0.3941
65224SOL     OW 5601   7.296  11.017   5.691 -0.3950 -0.2318  0.8114
65224SOL    HW1 5602   7.325  11.084   5.630  2.2394 -1.7239  0.2399
65224SOL    HW2 5603   7.280  11.063   5.773  0.5432  1.2034  0.2156
65225SOL     OW 5604  10.504   9.015   8.697 -0.1157  0.1640  0.4885
65225SOL    HW1 5605  10.498   9.109   8.717 -1.7038 -0.1744  1.8406
65225SOL    HW2 5606  10.441   8.974   8.757 -1.6235 -1.4681 -2.0378
65226SOL     OW 5607  13.278   8.640   6.358 -0.2068  1.1059  0.2514
65226SOL    HW1 5608  13.260   8.555   6.398  1.0025  2.1072  3.2361
65226SOL    HW2 5609  13.238   8.635   6.272 -2.7309 -1.4163  1.4121
65227SOL     OW 5610   4.377  10.870   8.910  0.3675  0.2164 -0.7502
65227SOL    HW1 5611   4.299  10.824   8.878 -0.4782  0.8666  0.3129
65227SOL    HW2 5612   4.353  10.899   8.998  1.8913  0.2569 -0.3216
65228SOL     OW 5613   3.103   1.173   4.972 -0.1760  0.3890 -0.4682
65228SOL    HW1 5614   3.140   1.144   4.889 -0.7308 -1.1292 -0.2275
65228SOL    HW2 5615   3.070   1.261   4.955  0.3581  0.3719 -1.6478
65229SOL     OW 5616   8.012   9.999  11.687 -0.5412 -0.0099 -0.6903
65229SOL    HW1 5617   7.983   9.907  11.692 -1.3337  0.2456 -0.4173
65229SOL    HW2 5618   7.943  10.043  11.638 -0.9890  0.7424  0.5531
65230SOL     OW 5619   2.932   6.152  10.419  0.1416 -0.3172  0.6451
65230SOL    HW1 5620   2.875   6.084  10.383 -0.4444 -0.5125  1.9123
65230SOL    HW2 5621   2.980   6.185  10.343 -1.7442 -0.0574 -0.4807
65231SOL     OW 5622  10.720  12.007  12.564 -0.5156 -0.9672 -0.4609
65231SOL    HW1 5623  10.701  11.932  12.620 -0.9792 -0.0089  0.7214
65231SOL    HW2 5624  10.815  12.018  12.569 -0.6717 -0.0072  1.4022
65232SOL     OW 5625   3.672  12.396   9.901  0.1552 -0.0534 -0.8240
65232SOL    HW1 5626   3.590  12.397   9.852  0.3709 -1.3291 -1.2765
65232SOL    HW2 5627   3.658  12.330   9.969  0.0638  1.2859  0.5048
65233SOL     OW 5628   9.658   8.321  11.762 -0.2051 -0.1868 -0.0489
65233SOL    HW1 5629   9.601   8.331  11.838 -1.4679 -0.6398 -0.9064
65233SOL    HW2 5630   9.660   8.226  11.747  0.3611 -0.1291 -0.3548
65234SOL     OW 5631   0.148   7.225  10.035  0.1674  0.4384  0.1469
65234SOL    HW1 5632   0.068   7.184  10.003  0.0937  0.1706  0.6746
65234SOL    HW2 5633   0.217   7.161  10.017  0.3971  0.9688 -0.9932
65235SOL     OW 5634   0.760  11.987   5.811  0.3856 -0.1888 -0.1924
65235SOL    HW1 5635   0.733  11.971   5.721 -0.0938 -1.7370  0.1907
65235SOL    HW2 5636   0.683  12.026   5.852 -0.7223 -2.7570  0.3902
65236SOL     OW 5637   7.123   1.347   3.097  0.2259  0.0827  0.5174
65236SOL    HW1 5638   7.195   1.406   3.076 -0.7409  1.4003  0.7427
65236SOL    HW2 5639   7.053   1.372   3.036  0.0144 -1.3220  0.1494
65237SOL     OW 5640   1.587   0.627  10.207  0.0726  0.3445  0.7044
65237SOL    HW1 5641   1.563   0.693  10.141 -0.2854  0.5163  0.9985
65237SOL    HW2 5642   1.523   0.557  10.195  0.7211 -0.1553  0.1018
65238SOL     OW 5643  11.116   3.994   0.807  0.1628 -0.1246 -0.4132
65238SOL    HW1 5644  11.187   3.931   0.821  0.4430  0.5432  1.5019
65238SOL    HW2 5645  11.095   4.026   0.895 -2.1112  0.1551 -0.9949
65239SOL     OW 5646   3.091   0.925  12.018  0.2163 -0.0200  0.0886
65239SOL    HW1 5647   3.004   0.888  12.008 -0.0032  1.1388 -4.3471
65239SOL    HW2 5648   3.081   0.994  12.084 -2.5581  0.7859 -1.0369
65240SOL     OW 5649   0.277   1.230   3.377 -0.0190 -0.0799 -0.8274
65240SOL    HW1 5650   0.194   1.251   3.335  0.2864  2.3313 -0.3915
65240SOL    HW2 5651   0.330   1.310   3.368  0.6792  0.0062  2.5795
65241SOL     OW 5652   5.454   9.382   6.539  0.1925  0.1553 -0.3041
65241SOL    HW1 5653   5.379   9.402   6.482 -0.2728 -1.1499 -0.1886
65241SOL    HW2 5654   5.461   9.287   6.536  2.4885  0.2901 -1.0933
65242SOL     OW 5655   2.162   9.887  10.565  0.2031  0.1403  0.3641
65242SOL    HW1 5656   2.189   9.924  10.649 -0.1957  1.7538 -0.1770
65242SOL    HW2 5657   2.238   9.837  10.535  1.3395  1.6834  0.5091
65243SOL     OW 5658   2.479   2.152  12.431  0.2984 -0.0019 -0.1072
65243SOL    HW1 5659   2.449   2.239  12.454 -2.2620 -0.4975 -1.2395
65243SOL    HW2 5660   2.478   2.103  12.513 -0.5467  0.4140  0.1336
65244SOL     OW 5661   6.792   7.159   1.851 -0.6900 -0.1363  0.1948
65244SOL    HW1 5662   6.733   7.153   1.777 -1.5712  0.6899  0.8019
65244SOL    HW2 5663   6.774   7.081   1.903 -0.5914 -0.3445 -0.0833
65245SOL     OW 5664   2.266   4.301   7.269 -0.9764  0.2779  0.6418
65245SOL    HW1 5665   2.361   4.294   7.262 -0.8644  2.2376 -1.0477
65245SOL    HW2 5666   2.233   4.235   7.207 -0.6623  0.4385  0.2958
65246SOL     OW 5667   0.337   2.379   4.177  0.0320  0.5175  0.2207
65246SOL    HW1 5668   0.262   2.405   4.231 -1.3994 -0.5535 -1.1434
65246SOL    HW2 5669   0.367   2.461   4.136 -0.3476  0.9732  0.8397
65247SOL     OW 5670   4.176  12.674   8.596  0.3606 -0.1539 -0.2976
65247SOL    HW1 5671   4.183  12.752   8.541 -0.4910 -0.8796 -1.4528
65247SOL    HW2 5672   4.198  12.706   8.684  2.0342  0.9632 -1.0610
65248SOL     OW 5673   6.620   7.707   9.021 -0.2312  0.8188  0.2565
65248SOL    HW1 5674   6.631   7.647   9.095 -0.4573 -0.6413 -0.8518
65248SOL    HW2 5675   6.534   7.747   9.034 -1.6346 -1.6908 -0.7286
65249SOL     OW 5676   9.329   9.501   8.129 -1.0435 -0.1299  0.4535
65249SOL    HW1 5677   9.412   9.524   8.170  0.2504  0.6878 -2.3847
65249SOL    HW2 5678   9.300   9.582   8.086 -1.9949 -1.0402 -0.6914
65250SOL     OW 5679   0.205  11.361   5.300 -0.1924  0.8318  0.5359
65250SOL    HW1 5680   0.257  11.415   5.359  0.2034 -1.1711  2.1753
65250SOL    HW2 5681   0.256  11.280   5.291 -0.0506  1.1764 -2.9699
65251SOL     OW 5682   9.822   2.873   0.307 -0.3253  0.7642  0.0660
65251SOL    HW1 5683   9.860   2.950   0.264 -1.7452  0.5796 -1.6197
65251SOL    HW2 5684   9.866   2.799   0.265 -0.8801  0.6100 -0.2530
65252SOL     OW 5685   3.784   8.953   8.604 -0.4409  0.2301 -0.2227
65252SOL    HW1 5686   3.787   9.044   8.633 -0.3512 -0.5246  2.4296
65252SOL    HW2 5687   3.700   8.921   8.636 -0.1079 -0.8244 -0.3695
65253SOL     OW 5688   8.691   9.785   5.918  0.3142 -0.3195 -0.4169
65253SOL    HW1 5689   8.647   9.844   5.979  1.3087  1.2300 -1.1045
65253SOL    HW2 5690   8.756   9.739   5.971  0.7908  0.6037 -0.1627
65254SOL     OW 5691   3.687   8.356   7.931 -0.1413 -0.0759 -0.7723
65254SOL    HW1 5692   3.657   8.400   8.010  2.0843  1.1856 -0.5511
65254SOL    HW2 5693   3.688   8.424   7.864 -0.9947 -0.8919 -1.6491
65255SOL     OW 5694   0.378   6.806  10.121 -0.6937  0.4418  0.0793
65255SOL    HW1 5695   0.282   6.807  10.120 -0.7836 -1.2015  1.5223
65255SOL    HW2 5696   0.403   6.895  10.144 -1.9751  0.4167  1.7785
65256SOL     OW 5697  12.235  11.363   9.698  0.0559 -0.2826 -1.1632
65256SOL    HW1 5698  12.273  11.280   9.671 -0.7022 -0.4088 -1.8871
65256SOL    HW2 5699  12.292  11.430   9.658 -0.9719 -0.4638 -3.0680
65257SOL     OW 5700  12.285  13.215   5.600  0.2059  0.3415 -0.1170
65257SOL    HW1 5701  12.333  13.158   5.539  1.3349  1.0114  0.1062
65257SOL    HW2 5702  12.288  13.168   5.683 -2.3491 -1.1373 -0.7458
65258SOL     OW 5703   5.828   0.028   4.097  0.1250 -0.3466  0.0415
65258SOL    HW1 5704   5.868  -0.052   4.130  0.8301 -0.8710 -1.9850
65258SOL    HW2 5705   5.862   0.097   4.154  2.0972 -1.0825 -0.1843
65259SOL     OW 5706  11.226   2.262   8.367 -0.5385  0.0847  0.0270
65259SOL    HW1 5707  11.270   2.177   8.358 -0.7189  0.2186 -3.1341
65259SOL    HW2 5708  11.134   2.239   8.382 -0.0744 -0.1795  3.1599
65260SOL     OW 5709  10.369  12.776  10.857  1.0073  0.3006 -0.4086
65260SOL    HW1 5710  10.352  12.832  10.933  1.0581 -1.3583  0.8743
65260SOL    HW2 5711  10.361  12.687  10.891  1.6267 -0.4812 -2.2291
65261SOL     OW 5712   0.792   0.850  11.862 -0.6610  0.0703 -0.3361
65261SOL    HW1 5713   0.783   0.786  11.932  0.7452 -0.8192 -0.9290
65261SOL    HW2 5714   0.736   0.816  11.792 -1.1508  0.3516 -0.0936
65262SOL     OW 5715   2.530   9.049   0.254 -0.1956 -0.2876 -0.2850
65262SOL    HW1 5716   2.609   9.057   0.307  0.8924 -2.9871 -1.2996
65262SOL    HW2 5717   2.516   9.137   0.219  2.5076  0.2653 -0.2261
65263SOL     OW 5718   9.343   5.366  11.902 -0.0919  0.2861  0.1444
65263SOL    HW1 5719   9.315   5.429  11.835 -0.9507 -0.4419 -0.1919
65263SOL    HW2 5720   9.385   5.296  11.852  0.1654  0.2140  0.4592
65264SOL     OW 5721   8.438   5.147  10.889 -0.2966  0.2420  0.4258
65264SOL    HW1 5722   8.383   5.165  10.813 -0.9143 -0.8294  0.5866
65264SOL    HW2 5723   8.517   5.197  10.875 -1.6142  2.4859  0.5563
65265SOL     OW 5724   9.738   6.602   5.559 -0.2794 -0.1021  0.2540
65265SOL    HW1 5725   9.693   6.549   5.625 -0.1374  0.2414  0.6277
65265SOL    HW2 5726   9.822   6.559   5.548 -0.3764 -0.2682  0.1555
65266SOL     OW 5727   6.313   0.303  12.493 -0.0729  0.3192 -0.3167
65266SOL    HW1 5728   6.298   0.392  12.462  0.1918  1.5221  2.7084
65266SOL    HW2 5729   6.377   0.312  12.563  0.5823 -2.3863 -0.4429
65267SOL     OW 5730   9.242   9.022   7.023  0.0889  0.1488  0.5567
65267SOL    HW1 5731   9.211   8.944   6.975 -0.8409 -0.2003  1.6875
65267SOL    HW2 5732   9.307   8.988   7.084  1.7152  0.6781 -0.8113
65268SOL     OW 5733  11.025   8.532   6.025  0.6164 -0.4651 -0.1481
65268SOL    HW1 5734  11.110   8.493   6.004  1.0346  0.2825  0.1399
65268SOL    HW2 5735  11.019   8.526   6.120  2.7207  4.1188  0.5455
65269SOL     OW 5736  10.723   9.943  13.105 -0.2779  0.1018  0.0398
65269SOL    HW1 5737  10.629   9.929  13.115 -0.4794  0.1022 -1.5765
65269SOL    HW2 5738  10.750   9.985  13.187 -2.0352  1.8480 -0.1978
65270SOL     OW 5739   6.542   9.641   1.216 -0.6016  0.2245 -0.0757
65270SOL    HW1 5740   6.496   9.561   1.242 -3.7372  2.6818  2.9003
65270SOL    HW2 5741   6.630   9.630   1.252 -1.1698 -1.5921  0.9162
65271SOL     OW 5742   7.982   8.333   3.677 -0.8952  0.5818 -0.1855
65271SOL    HW1 5743   8.016   8.244   3.685 -1.0124  0.6811  1.9478
65271SOL    HW2 5744   8.059   8.389   3.685 -1.0986  0.7099  1.1160
65272SOL     OW 5745   4.760   9.023   2.693  0.3203  0.5330 -0.3218
65272SOL    HW1 5746   4.683   8.969   2.680  0.4302  0.4115 -0.4586
65272SOL    HW2 5747   4.755   9.050   2.785  0.9734 -0.7984  0.1252
65273SOL     OW 5748  12.041   1.569   8.856  0.0196  0.5368  0.2690
65273SOL    HW1 5749  12.129   1.574   8.817 -0.2780 -0.1316 -0.5219
65273SOL    HW2 5750  12.053   1.598   8.946  0.7004  2.3009 -0.3453
65274SOL     OW 5751   3.486  13.229  13.240  0.2431  0.3965  0.7378
65274SOL    HW1 5752   3.399  13.240  13.203  0.4351  0.6064  0.3490
65274SOL    HW2 5753   3.508  13.137  13.225  0.6661  0.6695 -0.4405
65275SOL     OW 5754   0.872   3.839   0.373  0.0740  0.6073 -0.7512
65275SOL    HW1 5755   0.954   3.793   0.354  0.3228 -0.0243  1.5355
65275SOL    HW2 5756   0.900   3.921   0.413 -0.4108  0.6438 -0.4913
65276SOL     OW 5757   7.192   3.136   0.051 -0.0190  0.4379 -0.0334
65276SOL    HW1 5758   7.255   3.099  -0.012  0.9257  1.0991  0.4923
65276SOL    HW2 5759   7.202   3.231   0.041  1.2117  0.5911  2.0831
65277SOL     OW 5760  12.292  13.308   9.611 -0.1146 -0.6274 -0.1313
65277SOL    HW1 5761  12.293  13.395   9.651  1.7400 -0.1688 -1.0723
65277SOL    HW2 5762  12.364  13.262   9.652 -1.1758 -1.8171  0.4644
65278SOL     OW 5763  12.965   1.485  12.914  0.0420 -0.2505 -0.4241
65278SOL    HW1 5764  13.060   1.475  12.913  0.1025  0.2724 -0.1486
65278SOL    HW2 5765  12.932   1.396  12.927  0.5269 -0.3214  0.4573
65279SOL     OW 5766  10.210   6.617  11.424  0.7360  0.4978  0.1803
65279SOL    HW1 5767  10.177   6.653  11.342  2.1673  0.5702 -0.3916
65279SOL    HW2 5768  10.243   6.693  11.472  0.8293  0.3368  0.3731
65280SOL     OW 5769   9.631   7.080  12.466  0.4565  0.0166  0.2258
65280SOL    HW1 5770   9.665   7.166  12.441  1.0311  0.6610  2.9547
65280SOL    HW2 5771   9.704   7.037  12.512 -0.6881 -0.7968  1.3507
65281SOL     OW 5772   1.637  12.355  10.157  0.0433  0.0906  0.8214
65281SOL    HW1 5773   1.725  12.320  10.142  0.8994  2.4040 -0.1620
65281SOL    HW2 5774   1.608  12.383  10.070 -1.6470 -0.5644  1.1556
65282SOL     OW 5775  11.965  10.128   3.303 -0.2108  0.2572 -0.2251
65282SOL    HW1 5776  11.953  10.193   3.234 -1.2565  0.8423  0.4700
65282SOL    HW2 5777  11.925  10.168   3.380  1.9305  0.1207  1.0313
65283SOL     OW 5778   6.803   8.013   8.552  0.1201  0.4577  0.5143
65283SOL    HW1 5779   6.815   8.026   8.646  2.2017  1.1406  0.1860
65283SOL    HW2 5780   6.870   7.950   8.527  0.2468  1.0338 -0.6866
65284SOL     OW 5781   8.567   3.897   0.245 -0.3545 -0.2326 -0.0234
65284SOL    HW1 5782   8.550   3.847   0.165 -2.1233  1.1300 -0.5541
65284SOL    HW2 5783   8.481   3.911   0.284  0.4415 -0.6099  2.0070
65285SOL     OW 5784   1.672   5.713   9.038 -0.6962 -0.2886  0.0769
65285SOL    HW1 5785   1.643   5.705   8.947 -0.1980 -1.4955  0.0162
65285SOL    HW2 5786   1.593   5.740   9.085 -1.1609 -0.4764 -0.5761
65286SOL     OW 5787   7.664   2.599   2.910  0.3323 -0.1511  0.0899
65286SOL    HW1 5788   7.667   2.550   2.828  0.6889  1.9416 -1.2495
65286SOL    HW2 5789   7.754   2.629   2.923 -0.1884  1.7240 -0.2479
65287SOL     OW 5790   7.232  10.148   4.833 -0.3927  0.0902 -0.1440
65287SOL    HW1 5791   7.254  10.222   4.890  2.1638 -0.6463 -0.0353
65287SOL    HW2 5792   7.300  10.083   4.852 -1.3084 -1.4276 -1.7920
65288SOL     OW 5793   6.617   4.216  11.966  0.0454 -0.0648 -0.0543
65288SOL    HW1 5794   6.530   4.219  12.006  0.5318 -1.2243  1.1591
65288SOL    HW2 5795   6.637   4.307  11.944 -1.5183  0.1974 -0.4754
65289SOL     OW 5796   1.839   7.470   2.517  0.8101  0.0753  0.2853
65289SOL    HW1 5797   1.788   7.550   2.502  2.3441  1.0266 -0.1293
65289SOL    HW2 5798   1.898   7.465   2.443  0.3156 -1.8409 -0.0200
65290SOL     OW 5799   7.525   0.653   6.379  0.5279 -0.1605  0.1896
65290SOL    HW1 5800   7.611   0.675   6.345  1.3931 -1.1504  1.6724
65290SOL    HW2 5801   7.464   0.680   6.309  2.1164 -0.9073 -1.5702
65291SOL     OW 5802   0.026   3.633   0.010  0.0121 -0.2074  0.5145
65291SOL    HW1 5803   0.101   3.687   0.034  1.5065 -1.9075 -0.0949
65291SOL    HW2 5804   0.026   3.633  -0.086 -0.6392 -0.4016  0.5058
65292SOL     OW 5805   3.991   4.898   8.449 -0.2575 -0.0010 -0.2444
65292SOL    HW1 5806   3.947   4.923   8.367  2.9611  1.1505 -1.8037
65292SOL    HW2 5807   4.053   4.968   8.465  1.4468 -1.7647  1.4153
65293SOL     OW 5808   4.071  11.836  10.368  0.1027  0.0046  0.0646
65293SOL    HW1 5809   4.069  11.926  10.333  1.4196  0.2550  0.5669
65293SOL    HW2 5810   4.156  11.802  10.338  0.4420 -0.4126  1.4561
65294SOL     OW 5811  10.602   7.019  12.669 -0.2014  0.6299  0.1908
65294SOL    HW1 5812  10.533   7.013  12.735 -0.1816 -0.0906  0.1526
65294SOL    HW2 5813  10.586   7.102  12.625 -0.3442  1.0160  0.9589
65295SOL     OW 5814   4.570  12.244   1.268  0.3378  0.5541  0.6053
65295SOL    HW1 5815   4.637  12.303   1.304 -0.7988  1.4430  1.3265
65295SOL    HW2 5816   4.578  12.255   1.173  1.3201  0.5140  0.6667
65296SOL     OW 5817   9.556   6.411  11.322 -0.2647 -0.2710 -0.1488
65296SOL    HW1 5818   9.588   6.491  11.280  1.6753 -0.1307  1.4513
65296SOL    HW2 5819   9.461   6.412  11.307 -0.0144  1.2491 -1.9233
65297SOL     OW 5820   4.646   7.573   2.655  0.2717  0.3074  0.5066
65297SOL    HW1 5821   4.672   7.504   2.594  0.9351  1.4862 -0.6160
65297SOL    HW2 5822   4.623   7.647   2.599  1.4169  1.6193  1.6681
65298SOL     OW 5823   0.402   0.507   8.191  0.3270 -0.0761 -0.1506
65298SOL    HW1 5824   0.496   0.522   8.184  0.1490  0.6786 -1.1442
65298SOL    HW2 5825   0.372   0.573   8.254  0.4650 -0.3382  0.1912
65299SOL     OW 5826   9.161   9.314   3.766  0.0445 -0.1710  0.0170
65299SOL    HW1 5827   9.187   9.258   3.838  0.8529 -0.4129 -0.4480
65299SOL    HW2 5828   9.208   9.396   3.781  0.9463 -0.5319 -0.7027
65300SOL     OW 5829  12.494  11.189  10.441  0.0629 -0.2991  0.1664
65300SOL    HW1 5830  12.538  11.121  10.391  0.3898 -1.0562  1.4230
65300SOL    HW2 5831  12.561  11.220  10.503 -1.1528 -1.6138  2.2669
65301SOL     OW 5832  10.933  12.632   2.449 -0.3981 -0.4579 -0.1177
65301SOL    HW1 5833  11.006  12.583   2.412 -0.5877  0.7200 -2.1902
65301SOL    HW2 5834  10.928  12.711   2.396 -2.3285  0.1294  0.8567
65302SOL     OW 5835   3.008   4.014  11.200  0.3118  0.5924  0.2711
65302SOL    HW1 5836   2.958   4.011  11.118 -1.3254 -1.2445  1.2263
65302SOL    HW2 5837   2.986   4.099  11.238  0.4052  1.1044 -0.7695
65303SOL     OW 5838   4.648   5.297   0.121 -0.1567 -0.5455 -0.0879
65303SOL    HW1 5839   4.656   5.391   0.108 -2.7175 -0.1637  0.4045
65303SOL    HW2 5840   4.637   5.287   0.216 -3.0592 -0.8948 -0.3494
65304SOL     OW 5841   9.295   7.185  11.037 -0.1101  0.0561 -0.1331
65304SOL    HW1 5842   9.331   7.230  11.113 -1.1732  1.6319 -0.5188
65304SOL    HW2 5843   9.315   7.092  11.052  2.5109  0.6380  0.5079
65305SOL     OW 5844  12.040   1.386   3.521  0.0218 -0.0540 -0.1292
65305SOL    HW1 5845  11.946   1.369   3.513 -0.2053  1.1665 -0.3104
65305SOL    HW2 5846  12.046   1.463   3.578  0.9418 -0.3789  0.2345
65306SOL     OW 5847   3.265   4.706   0.362 -0.3646  0.1888  0.1726
65306SOL    HW1 5848   3.281   4.709   0.268  1.1904  0.4105  0.4214
65306SOL    HW2 5849   3.326   4.770   0.399 -1.4672  0.6467  1.2772
65307SOL     OW 5850   1.005   6.805   7.854 -0.3998 -0.4954 -0.3060
65307SOL    HW1 5851   0.972   6.718   7.833  0.6798 -0.9063 -0.3460
65307SOL    HW2 5852   0.975   6.821   7.943  0.6235 -1.5351  0.2516
65308SOL     OW 5853   6.105   7.912   2.868  0.6582  0.2238  0.4445
65308SOL    HW1 5854   6.156   7.976   2.817  0.5771  0.7101  0.9661
65308SOL    HW2 5855   6.042   7.877   2.806  2.2916 -1.1788 -0.5277
65309SOL     OW 5856   9.309   9.193  10.457 -0.6574  0.0155 -0.7739
65309SOL    HW1 5857   9.277   9.123  10.399 -0.0955  0.3737 -1.5271
65309SOL    HW2 5858   9.365   9.246  10.401  2.2696 -1.2555  0.7702
65310SOL     OW 5859  11.665  11.551   0.147  0.7602  0.3358  0.5457
65310SOL    HW1 5860  11.653  11.512   0.233  2.3449 -0.7377  0.3294
65310SOL    HW2 5861  11.675  11.476   0.088  3.0904  0.9784  0.0026
65311SOL     OW 5862   3.928   2.753   5.978  0.0130  0.1874 -0.4552
65311SOL    HW1 5863   3.907   2.750   5.885 -2.1283  1.3980 -0.0651
65311SOL    HW2 5864   3.891   2.672   6.013 -3.3452  1.7957  0.0342
65312SOL     OW 5865   0.040  10.542  11.842 -0.0729 -0.4965 -0.0737
65312SOL    HW1 5866  -0.034  10.489  11.872 -0.9869  1.0658  0.4882
65312SOL    HW2 5867   0.061  10.506  11.756 -3.9666  1.3894 -2.0419
65313SOL     OW 5868   2.239   4.435   3.031 -0.3235 -0.2898  0.6304
65313SOL    HW1 5869   2.223   4.380   3.108  0.6655  0.5490  1.4544
65313SOL    HW2 5870   2.334   4.448   3.029 -0.4645  0.7609  0.0036
65314SOL     OW 5871   0.229  12.061  11.397  0.1329  0.1054  0.3709
65314SOL    HW1 5872   0.284  12.065  11.475 -0.3790 -0.1151  0.7477
65314SOL    HW2 5873   0.199  12.151  11.384 -0.8080 -0.0778  1.1800
65315SOL     OW 5874   0.141  11.779   3.204 -0.3586 -0.4585  0.0071
65315SOL    HW1 5875   0.054  11.765   3.242 -0.9524 -1.5570 -1.6350
65315SOL    HW2 5876   0.128  11.767   3.110  0.9361  2.6780 -0.6837
65316SOL     OW 5877  12.068   7.700   7.662  0.6875  0.2755 -0.2736
65316SOL    HW1 5878  12.144   7.652   7.696 -0.0080  0.0712  1.0537
65316SOL    HW2 5879  12.004   7.632   7.643 -0.3521  0.6156  1.7383
65317SOL     OW 5880   6.829   3.854   5.572 -0.3840 -0.2043 -0.1882
65317SOL    HW1 5881   6.740   3.854   5.537 -0.6514 -0.7829  0.4694
65317SOL    HW2 5882   6.820   3.818   5.660  0.0764  2.3909  1.0054
65318SOL     OW 5883   9.545   1.689   5.855 -0.2223 -0.6937 -0.5608
65318SOL    HW1 5884   9.493   1.768   5.837  0.8791  0.1026 -0.3655
65318SOL    HW2 5885   9.480   1.620   5.866 -1.2017  0.1044 -1.1254
65319SOL     OW 5886   3.276  12.990   5.989  0.2627  0.0662  0.4554
65319SOL    HW1 5887   3.207  13.013   5.927  0.2648 -1.9024 -0.3722
65319SOL    HW2 5888   3.258  12.898   6.011  0.7820  0.4605  2.7217
65320SOL     OW 5889   8.358   4.809  11.842  0.0075 -0.3816 -0.2504
65320SOL    HW1 5890   8.337   4.900  11.862 -2.2099 -0.6873 -0.8982
65320SOL    HW2 5891   8.362   4.765  11.927  3.0422  0.5927  0.2418
65321SOL     OW 5892   7.759   7.179   3.334  0.2899 -0.5321 -0.6242
65321SOL    HW1 5893   7.743   7.155   3.243  0.5085  1.1201 -1.1303
65321SOL    HW2 5894   7.714   7.112   3.385 -2.9858  0.4260 -1.9725
65322SOL     OW 5895  13.037   7.503   7.762 -0.5539 -0.4515 -0.1507
65322SOL    HW1 5896  13.073   7.453   7.836 -1.4761 -1.3387 -0.2800
65322SOL    HW2 5897  13.108   7.506   7.698  0.3611  0.5869  0.8703
65323SOL     OW 5898  12.919   0.784  10.230 -0.0475 -0.6693  0.0067
65323SOL    HW1 5899  12.891   0.816  10.316  0.9017  0.2674 -0.0119
65323SOL    HW2 5900  12.865   0.831  10.167  1.0453  0.6389 -0.0007
65324SOL     OW 5901   2.877   0.380   4.241  0.6614  0.1697 -0.9464
65324SOL    HW1 5902   2.807   0.381   4.306 -0.3763 -0.3746 -1.9997
65324SOL    HW2 5903   2.934   0.307   4.267  0.2634 -0.0335 -0.6369
65325SOL     OW 5904   0.093   9.491   3.929  0.2233 -0.4088  0.0490
65325SOL    HW1 5905   0.139   9.558   3.981  0.0206 -1.0505  1.0829
65325SOL    HW2 5906   0.113   9.409   3.973 -0.2643 -0.9341 -0.6887
65326SOL     OW 5907   4.574  10.200   0.316 -0.0162 -0.2491  0.2040
65326SOL    HW1 5908   4.627  10.217   0.237 -0.4239 -0.7481 -0.1776
65326SOL    HW2 5909   4.613  10.123   0.355  1.5615  1.2192  1.7070
65327SOL     OW 5910   3.803   8.208  12.134 -0.4971  0.0931 -0.4404
65327SOL    HW1 5911   3.856   8.213  12.214  0.7664  0.0049 -1.2497
65327SOL    HW2 5912   3.773   8.298  12.120 -0.5040  0.1586 -0.0084
65328SOL     OW 5913   6.997  10.638   7.063  0.1210 -0.7917  0.4187
65328SOL    HW1 5914   6.999  10.546   7.035 -0.3191 -0.2325 -1.5810
65328SOL    HW2 5915   6.987  10.688   6.982 -0.1649  1.0165  1.5113
65329SOL     OW 5916  12.543   3.066  11.789 -0.3616 -0.3752 -0.1834
65329SOL    HW1 5917  12.466   3.118  11.811 -0.6681 -0.4322 -1.0666
65329SOL    HW2 5918  12.508   2.982  11.759  0.0025 -0.2290 -1.0626
65330SOL     OW 5919  12.230   8.277   0.068 -0.1747  0.2213 -0.7242
65330SOL    HW1 5920  12.315   8.280   0.024 -1.3758  1.7278 -3.1315
65330SOL    HW2 5921  12.196   8.189   0.049  0.6055 -0.2188 -0.1452
65331SOL     OW 5922   2.562  10.002   6.178  0.2998 -0.0819 -0.7172
65331SOL    HW1 5923   2.578   9.971   6.088 -0.4167  1.0805 -1.2699
65331SOL    HW2 5924   2.506  10.079   6.167 -1.4087 -1.0064  0.8235
65332SOL     OW 5925  12.497   3.077   1.439  0.2150 -0.2017  0.5588
65332SOL    HW1 5926  12.511   3.015   1.510  1.3630 -0.2461  0.3022
65332SOL    HW2 5927  12.573   3.068   1.383 -0.4884  0.1185 -0.4825
65333SOL     OW 5928  11.458   0.475   3.299  0.4754  0.1038  0.2066
65333SOL    HW1 5929  11.413   0.395   3.272 -0.8879 -1.0187  4.9031
65333SOL    HW2 5930  11.549   0.461   3.276  0.0088 -2.1056 -0.5059
65334SOL     OW 5931  11.160   2.921   4.144 -0.0656 -0.2686  0.4906
65334SOL    HW1 5932  11.205   2.872   4.076 -1.3702 -1.8664  0.6856
65334SOL    HW2 5933  11.201   3.007   4.144  1.6524 -1.0366 -0.5801
65335SOL     OW 5934   1.736   1.945  11.656  0.3102 -0.0851  0.3654
65335SOL    HW1 5935   1.801   1.946  11.586  2.0639 -2.3195  1.8489
65335SOL    HW2 5936   1.766   2.012  11.718  0.1104  0.1876  0.1743
65336SOL     OW 5937  12.939   2.876   9.096  0.1064 -0.0641 -0.1547
65336SOL    HW1 5938  12.924   2.931   9.019 -0.5501  0.5405  0.3836
65336SOL    HW2 5939  12.946   2.938   9.168  0.4613 -0.6382  0.3130
65337SOL     OW 5940   5.655   5.164  13.145 -0.1824 -0.2956 -0.2905
65337SOL    HW1 5941   5.721   5.232  13.158  0.3204 -0.8748  0.2951
65337SOL    HW2 5942   5.671   5.132  13.056  1.8576 -1.9646  0.5692
65338SOL     OW 5943  12.491  12.616  12.328  0.3625 -0.0820  0.5717
65338SOL    HW1 5944  12.550  12.692  12.324  1.9416 -1.1841  1.7085
65338SOL    HW2 5945  12.490  12.582  12.239  2.1504 -0.5210  0.6847
65339SOL     OW 5946   1.617  10.059   1.832 -0.1943  0.3683  0.0367
65339SOL    HW1 5947   1.636  10.117   1.905 -0.5441  0.2738  0.2047
65339SOL    HW2 5948   1.702  10.019   1.810  0.0628  0.9953 -0.1323
65340SOL     OW 5949   3.764   8.737   9.304  0.0459 -0.2343 -0.0914
65340SOL    HW1 5950   3.800   8.675   9.367  2.2251  0.0015 -1.0116
65340SOL    HW2 5951   3.670   8.740   9.324  0.7703  1.0197  4.1730
65341SOL     OW 5952  11.675   6.545  10.848 -0.2536 -0.1377 -0.4967
65341SOL    HW1 5953  11.681   6.500  10.933 -0.1730 -0.3188 -0.5978
65341SOL    HW2 5954  11.610   6.494  10.799 -1.6605  0.9976  0.0949
65342SOL     OW 5955  11.314   3.252   6.154  0.0572  0.1889  0.1877
65342SOL    HW1 5956  11.393   3.217   6.112  1.3342  0.7925  1.9835
65342SOL    HW2 5957  11.293   3.331   6.104 -0.6208 -0.9999 -1.5205
65343SOL     OW 5958   5.886   4.674  12.637  0.3426 -0.3489  0.8615
65343SOL    HW1 5959   5.929   4.738  12.694 -1.7230  0.4009  1.6931
65343SOL    HW2 5960   5.917   4.589  12.667  1.2069  0.1596  1.4248
65344SOL     OW 5961  11.961  12.320   0.763 -0.3269 -0.2916 -0.1052
65344SOL    HW1 5962  11.970  12.411   0.736  1.0835 -0.3743  0.0018
65344SOL    HW2 5963  11.990  12.269   0.687  0.7397 -0.5911  0.4805
65345SOL     OW 5964   9.754   2.197  11.885 -0.0017 -0.1960 -0.3676
65345SOL    HW1 5965   9.678   2.164  11.932 -0.4497 -0.8266 -1.5148
65345SOL    HW2 5966   9.742   2.168  11.795  2.4386 -1.8587 -0.2759
65346SOL     OW 5967   0.477   5.200  11.901 -0.0993  0.3372  0.1297
65346SOL    HW1 5968   0.459   5.284  11.858  0.7136  0.2465 -0.4044
65346SOL    HW2 5969   0.571   5.201  11.918  0.4716 -1.5041 -2.2601
65347SOL     OW 5970   4.465   6.985  12.068  0.1676 -0.5420 -0.2952
65347SOL    HW1 5971   4.421   7.051  12.122  1.0791  0.7778 -1.1008
65347SOL    HW2 5972   4.394   6.938  12.025 -0.7224 -2.9011  3.3104
65348SOL     OW 5973  11.900  11.264   1.113  0.1570  0.6936  0.2045
65348SOL    HW1 5974  11.876  11.356   1.096 -0.5368  0.6620  0.9477
65348SOL    HW2 5975  11.985  11.270   1.157 -0.6012  1.0945  1.6769
65349SOL     OW 5976   6.522   9.460  12.826  0.7368  0.3142  0.3212
65349SOL    HW1 5977   6.545   9.391  12.763  4.2391  0.8862  0.7663
65349SOL    HW2 5978   6.547   9.541  12.782 -1.5518  1.2183  0.5636
65350SOL     OW 5979   2.600   1.366   2.775  0.5320 -0.0361 -0.1490
65350SOL    HW1 5980   2.619   1.273   2.789  0.5107  0.1633  1.3360
65350SOL    HW2 5981   2.591   1.402   2.863 -4.2540  0.4286 -0.5908
65351SOL     OW 5982   6.515  10.182   3.132  0.3176 -0.0395  0.1824
65351SOL    HW1 5983   6.519  10.208   3.224  1.0409  0.1035  0.1196
65351SOL    HW2 5984   6.485  10.260   3.086  0.5081  0.0694  0.2372
65352SOL     OW 5985   2.967   4.608  11.887  0.3451  0.3096 -0.2030
65352SOL    HW1 5986   3.015   4.535  11.926 -0.3916  0.6823  1.4886
65352SOL    HW2 5987   2.877   4.597  11.918  0.1347  1.6947 -0.2669
65353SOL     OW 5988   4.566   0.080   5.667 -0.1411  0.1135 -0.1306
65353SOL    HW1 5989   4.598   0.029   5.742  1.0986 -0.2610 -0.8980
65353SOL    HW2 5990   4.592   0.170   5.686  1.2728 -0.1651 -0.6759
65354SOL     OW 5991  10.792  11.972  11.342  0.2662  0.0132  0.2117
65354SOL    HW1 5992  10.839  11.992  11.423 -1.4094 -0.2613  1.2907
65354SOL    HW2 5993  10.707  11.940  11.370 -1.2999  2.1367 -1.6560
65355SOL     OW 5994  10.564  12.892  10.117 -0.0755  0.1098 -0.5338
65355SOL    HW1 5995  10.517  12.810  10.100  1.0843 -0.5734 -0.5510
65355SOL    HW2 5996  10.576  12.894  10.212  1.5587 -0.7289 -0.6800
65356SOL     OW 5997   3.685   2.246   2.155  0.0172  0.0676  0.1010
65356SOL    HW1 5998   3.634   2.257   2.236 -0.5067  1.7161 -0.4184
65356SOL    HW2 5999   3.626   2.199   2.096 -0.3677  0.6822 -0.0072
65357SOL     OW 6000   9.558   1.628  12.678  0.3830  0.6907 -0.3748
65357SOL    HW1 6001   9.470   1.590  12.680  0.3307  0.8184  0.6390
65357SOL    HW2 6002   9.617   1.553  12.692  0.3795  0.7196 -0.1966
65358SOL     OW 6003  11.821  12.887   3.257 -0.4830  0.2884 -0.0994
65358SOL    HW1 6004  11.798  12.798   3.286 -1.4800  0.3055 -0.7893
65358SOL    HW2 6005  11.832  12.936   3.339 -0.5781 -0.3123  0.2832
65359SOL     OW 6006  11.267  12.379   1.815 -1.1495  0.6419 -0.6620
65359SOL    HW1 6007  11.252  12.472   1.797 -1.9693  0.7301  0.3461
65359SOL    HW2 6008  11.211  12.360   1.890 -1.3162 -0.7815 -1.1136
65360SOL     OW 6009   2.623   8.287  12.346  0.2122 -0.1140  0.6497
65360SOL    HW1 6010   2.693   8.239  12.389  1.8076  0.2077 -1.4010
65360SOL    HW2 6011   2.600   8.232  12.270  1.2750  1.6846 -1.0834
65361SOL     OW 6012   2.518   2.078   8.863 -0.3552 -0.6188  0.5725
65361SOL    HW1 6013   2.448   2.016   8.843 -0.9066  0.1082  0.2011
65361SOL    HW2 6014   2.474   2.149   8.910  0.2919 -0.5724  1.1195
65362SOL     OW 6015  10.276  13.312  13.043 -0.3771  0.0712 -0.1766
65362SOL    HW1 6016  10.195  13.264  13.031  0.2350 -0.8288 -0.8353
65362SOL    HW2 6017  10.262  13.395  12.998 -1.1418  0.1854  0.2528
65363SOL     OW 6018   5.904   1.327   3.061  0.1537  0.2407 -0.2416
65363SOL    HW1 6019   5.873   1.339   3.151  3.2238  1.2109  0.8026
65363SOL    HW2 6020   5.826   1.303   3.012 -2.0594  1.7881  2.2552
65364SOL     OW 6021   1.658  10.787   6.403 -0.0360  0.0573 -0.3134
65364SOL    HW1 6022   1.612  10.813   6.323 -0.6516  0.7345  0.2519
65364SOL    HW2 6023   1.748  10.817   6.389 -0.9600  4.0166  0.8779
65365SOL     OW 6024   8.644   9.392   2.348 -0.0619  0.1602 -0.1283
65365SOL    HW1 6025   8.590   9.321   2.313  1.6578 -1.6915  0.7772
65365SOL    HW2 6026   8.616   9.401   2.439  1.6718 -1.4839  0.6425
65366SOL     OW 6027   5.231   7.672  10.663  0.3169  0.5023 -0.1260
65366SOL    HW1 6028   5.253   7.598  10.607  1.0630 -0.0592  0.8624
65366SOL    HW2 6029   5.147   7.704  10.631  0.9410  0.5036 -1.8383
65367SOL     OW 6030   4.215   2.853  10.699  0.0166  0.2646 -0.1764
65367SOL    HW1 6031   4.298   2.856  10.746 -0.3213  1.4575  0.3623
65367SOL    HW2 6032   4.153   2.899  10.755 -1.1165 -0.9389 -0.3853
65368SOL     OW 6033   1.647  12.839   2.851  0.3539 -0.4764 -0.3595
65368SOL    HW1 6034   1.621  12.776   2.784  0.5948 -1.1773  0.1877
65368SOL    HW2 6035   1.675  12.785   2.925  1.1070  0.2712 -0.0811
65369SOL     OW 6036   2.805   3.789   0.486  0.5625 -0.1623  0.1087
65369SOL    HW1 6037   2.749   3.864   0.468  0.2441 -0.4648 -0.1748
65369SOL    HW2 6038   2.802   3.780   0.582 -0.4200 -0.5764  0.0589
65370SOL     OW 6039   0.219  11.870   8.532  0.2260  0.3842  0.5831
65370SOL    HW1 6040   0.278  11.795   8.525  2.2242  1.8788  0.3220
65370SOL    HW2 6041   0.234  11.904   8.620 -0.0650  0.9299  0.4296
65371SOL     OW 6042   8.467  12.607   4.235 -0.3416 -0.1393 -0.4126
65371SOL    HW1 6043   8.438  12.698   4.224 -0.2221  0.2493  1.9775
65371SOL    HW2 6044   8.390  12.561   4.268  0.1606 -0.4126  0.4066
65372SOL     OW 6045   6.802   6.543   3.853  0.2149 -0.0364 -0.1297
65372SOL    HW1 6046   6.743   6.506   3.787 -1.1589  1.0841  0.4166
65372SOL    HW2 6047   6.773   6.505   3.936 -0.5534  1.4052  0.3007
65373SOL     OW 6048   0.795   0.995   8.034 -0.0305  0.3123  0.4793
65373SOL    HW1 6049   0.857   1.061   8.004  1.1558 -1.0024 -0.0732
65373SOL    HW2 6050   0.838   0.954   8.109 -0.8641  0.3215  0.9781
65374SOL     OW 6051   1.647  10.017   3.563 -0.0791 -0.1002 -0.2177
65374SOL    HW1 6052   1.721  10.057   3.517  0.4299 -0.0248  0.6293
65374SOL    HW2 6053   1.613  10.087   3.618  0.8858 -0.8118  1.3515
65375SOL     OW 6054  12.693  11.627  11.585  0.5257  0.3588  0.3708
65375SOL    HW1 6055  12.600  11.646  11.603  0.1057 -1.0262 -0.2281
65375SOL    HW2 6056  12.718  11.565  11.653  0.5548 -0.4921 -0.4035
65376SOL     OW 6057   7.875   2.251  10.577  0.1353 -0.1635 -0.3557
65376SOL    HW1 6058   7.944   2.280  10.637 -0.2518 -1.7008  0.8882
65376SOL    HW2 6059   7.905   2.280  10.491  1.5134  0.6572  0.3625
65377SOL     OW 6060   0.699   6.757   5.807  0.4011 -0.6176  0.0360
65377SOL    HW1 6061   0.754   6.713   5.742  0.0659  0.3262 -0.9080
65377SOL    HW2 6062   0.762   6.796   5.868  0.7421 -0.8344 -0.1721
65378SOL     OW 6063  12.901   7.712  12.623  0.0867 -0.0251  0.0167
65378SOL    HW1 6064  12.897   7.704  12.528  0.6502 -0.3824  0.0231
65378SOL    HW2 6065  12.921   7.624  12.654 -0.7021 -0.0434  0.5092
65379SOL     OW 6066   9.350  10.522   6.767  0.1172 -0.3148 -0.1523
65379SOL    HW1 6067   9.409  10.597   6.770 -0.0810 -0.1426 -0.5485
65379SOL    HW2 6068   9.284  10.545   6.701 -0.1557 -0.6786 -0.0103
65380SOL     OW 6069   6.988   3.993  11.410  0.2109  0.3366 -0.1769
65380SOL    HW1 6070   7.069   3.971  11.364  0.4307 -0.1298  0.4267
65380SOL    HW2 6071   7.017   4.031  11.493 -0.1729  2.0621 -0.8028
65381SOL     OW 6072  10.090  10.166   2.333 -0.3001 -0.1150  0.2653
65381SOL    HW1 6073  10.043  10.083   2.323 -1.1075  0.2250  1.0775
65381SOL    HW2 6074  10.088  10.184   2.427  0.0214  0.7337  0.1167
65382SOL     OW 6075   3.078   7.364   7.473 -0.0966 -0.5366 -0.0405
65382SOL    HW1 6076   3.040   7.333   7.556  0.1921 -0.0155  0.2906
65382SOL    HW2 6077   3.036   7.310   7.406 -0.3452 -0.9561  0.4436
65383SOL     OW 6078  10.701   9.776  12.565  0.1665  0.8650  0.3410
65383SOL    HW1 6079  10.779   9.763  12.619  0.3426 -1.7642 -0.4088
65383SOL    HW2 6080  10.643   9.704  12.590 -0.7221  0.9570 -1.3072
65384SOL     OW 6081  12.680   9.279   8.271  0.4814 -0.2555  0.6392
65384SOL    HW1 6082  12.646   9.203   8.223  1.1974 -0.9383  1.1908
65384SOL    HW2 6083  12.686   9.347   8.205  0.5126 -0.8915 -0.0334
65385SOL     OW 6084   3.121   3.129   0.590  0.0126 -0.3159  0.3502
65385SOL    HW1 6085   3.147   3.081   0.511 -2.8326 -0.5819 -0.5421
65385SOL    HW2 6086   3.026   3.117   0.595 -0.2969  2.1541  2.2004
65386SOL     OW 6087   5.437   5.060   7.526  0.0681 -0.3841  0.5967
65386SOL    HW1 6088   5.414   4.990   7.587  2.2848 -0.4590  1.4298
65386SOL    HW2 6089   5.431   5.140   7.577 -2.6272  0.1419 -0.4003
65387SOL     OW 6090   0.142   8.673  12.289 -0.3579  0.1807 -0.0195
65387SOL    HW1 6091   0.178   8.650  12.374 -0.2730  1.6070  0.3533
65387SOL    HW2 6092   0.177   8.607  12.229  1.4638  0.4945  0.6425
65388SOL     OW 6093   0.274  11.992   8.806  0.7583 -0.0442 -0.1540
65388SOL    HW1 6094   0.338  12.034   8.748  1.8950  1.3743  1.9877
65388SOL    HW2 6095   0.275  12.045   8.885 -2.8621 -0.1950  0.1613
65389SOL     OW 6096   6.582  13.026   5.417 -0.1721 -0.2153 -0.0975
65389SOL    HW1 6097   6.555  13.113   5.385 -0.5223 -0.6279 -0.9773
65389SOL    HW2 6098   6.634  13.044   5.495  0.1010  0.8164 -0.4921
65390SOL     OW 6099   2.848   1.470  10.741  0.0405 -0.2971 -0.3673
65390SOL    HW1 6100   2.913   1.446  10.807  1.9255  0.4289 -1.8539
65390SOL    HW2 6101   2.849   1.565  10.739  0.8529 -0.2967 -2.1478
65391SOL     OW 6102   8.348   3.947   2.871 -0.2597  0.0705  0.1343
65391SOL    HW1 6103   8.303   3.911   2.947 -1.1214 -1.6986 -1.1422
65391SOL    HW2 6104   8.291   3.925   2.797  1.0078  0.8880 -1.1330
65392SOL     OW 6105   2.284   5.069   6.983 -0.1734  0.0469  0.4894
65392SOL    HW1 6106   2.320   5.095   6.898 -0.7395  1.8735  0.7584
65392SOL    HW2 6107   2.189   5.068   6.970 -0.3124  1.0708  1.2483
65393SOL     OW 6108   5.191   9.457   1.180 -0.5097 -0.4615  0.6501
65393SOL    HW1 6109   5.135   9.519   1.227 -1.3942 -0.1126 -0.7933
65393SOL    HW2 6110   5.158   9.371   1.206 -1.2909 -0.2671  0.3327
65394SOL     OW 6111   4.835  10.004   4.775 -0.4572 -0.4102 -0.3359
65394SOL    HW1 6112   4.918   9.959   4.755 -0.7624 -0.9176 -0.4834
65394SOL    HW2 6113   4.830  10.075   4.711  0.2727  0.1534  0.2160
65395SOL     OW 6114   6.397   6.180  12.461 -0.5965  0.1542  0.2846
65395SOL    HW1 6115   6.357   6.139  12.537 -0.1408  0.2697  0.5930
65395SOL    HW2 6116   6.469   6.122  12.437 -1.2925 -0.3608 -0.6250
65396SOL     OW 6117  11.794   0.491  11.518 -0.1835  0.3858  0.2479
65396SOL    HW1 6118  11.705   0.513  11.493 -0.5083 -0.8805  0.1980
65396SOL    HW2 6119  11.784   0.421  11.583  0.7769 -0.1179 -0.1278
65397SOL     OW 6120   3.144   2.802   7.604  0.1395  0.4612  0.5398
65397SOL    HW1 6121   3.069   2.856   7.578 -1.3245 -1.3359  0.8340
65397SOL    HW2 6122   3.122   2.768   7.690  0.4215 -1.5356 -0.1041
65398SOL     OW 6123   5.540   5.799   2.202 -0.3459 -0.0205  0.0406
65398SOL    HW1 6124   5.498   5.870   2.250  0.4215  0.7528 -0.4071
65398SOL    HW2 6125   5.481   5.782   2.128 -0.6470 -0.0113  0.2764
65399SOL     OW 6126   0.431  10.587  12.419 -0.5526 -0.1094  0.3297
65399SOL    HW1 6127   0.344  10.581  12.381  0.4301 -0.1673 -2.0947
65399SOL    HW2 6128   0.472  10.661  12.374  0.9820 -0.6904  0.7047
65400SOL     OW 6129   7.408   7.526   6.256  0.3077 -0.4810 -0.2075
65400SOL    HW1 6130   7.504   7.533   6.247  0.2305  1.4304  0.0397
65400SOL    HW2 6131   7.375   7.606   6.215 -1.0603 -0.0920  1.5529
65401SOL     OW 6132   8.639   7.056   3.663 -0.0122  0.6366 -0.7055
65401SOL    HW1 6133   8.633   7.094   3.575 -0.9061 -1.5752 -1.6785
65401SOL    HW2 6134   8.552   7.069   3.701  0.3014  1.3727 -0.1973
65402SOL     OW 6135   1.088  12.548   3.167  0.0543  0.2143  0.2521
65402SOL    HW1 6136   1.030  12.508   3.102  0.2517 -1.5751  1.1180
65402SOL    HW2 6137   1.098  12.481   3.235  1.5787  1.2163  1.0778
65403SOL     OW 6138  11.621   7.265   1.438 -0.3687  0.1100  0.1630
65403SOL    HW1 6139  11.668   7.183   1.454 -0.1513  0.8708  4.4412
65403SOL    HW2 6140  11.530   7.239   1.428 -0.1692 -0.7030  0.3896
65404SOL     OW 6141   3.241   6.407   3.982 -0.7093  0.4080  0.6445
65404SOL    HW1 6142   3.257   6.337   4.046 -1.1249  0.0419  0.3540
65404SOL    HW2 6143   3.327   6.446   3.967 -0.4070 -0.2954  0.5130
65405SOL     OW 6144   1.206   2.064   4.041 -0.1260  0.3418  0.0865
65405SOL    HW1 6145   1.155   2.141   4.064  0.4228  1.5288 -2.3776
65405SOL    HW2 6146   1.297   2.093   4.045  0.0702  0.0153 -1.3500
65406SOL     OW 6147   7.950   5.908   5.286  0.0202  0.2901  0.4376
65406SOL    HW1 6148   7.956   5.995   5.248  0.8800  0.9280  1.9698
65406SOL    HW2 6149   8.037   5.871   5.277 -0.2923 -0.3563 -0.0332
65407SOL     OW 6150   3.322   0.523   4.575  0.1415 -0.6600 -0.1468
65407SOL    HW1 6151   3.239   0.479   4.594  0.7295 -1.3600  0.9194
65407SOL    HW2 6152   3.317   0.544   4.482 -2.4416  1.9714  0.4384
65408SOL     OW 6153   2.223   7.417  12.305 -0.9841  0.0624  0.1981
65408SOL    HW1 6154   2.168   7.397  12.229 -0.8552  1.0510 -0.1711
65408SOL    HW2 6155   2.275   7.338  12.319 -0.7791 -0.0114 -0.9414
65409SOL     OW 6156  10.841   2.516   7.066  0.5264  0.3749  0.5683
65409SOL    HW1 6157  10.831   2.461   6.989  0.2309  0.0932  0.8032
65409SOL    HW2 6158  10.900   2.586   7.039 -0.3558  0.8320 -0.1982
65410SOL     OW 6159   4.320   2.318   6.785 -0.4518 -1.2213 -0.3061
65410SOL    HW1 6160   4.372   2.387   6.743 -1.2539  0.6757  1.5948
65410SOL    HW2 6161   4.384   2.264   6.832 -0.0075  0.5931  1.3314
65411SOL     OW 6162   0.529   5.127   6.681 -0.7802  0.3792  0.7741
65411SOL    HW1 6163   0.543   5.036   6.705  1.3514 -0.4343 -2.8136
65411SOL    HW2 6164   0.585   5.177   6.741  1.5643 -1.1406 -0.0183
65412SOL     OW 6165   9.931  10.242   9.629 -0.4044 -0.5909  0.3350
65412SOL    HW1 6166   9.957  10.188   9.704 -1.1819 -1.8072 -0.2422
65412SOL    HW2 6167   9.991  10.216   9.559 -0.2687 -0.1296  0.2828
65413SOL     OW 6168  12.838   8.016   9.349 -0.0663  0.3427  0.0212
65413SOL    HW1 6169  12.803   8.095   9.307 -0.1405  0.5104  0.3951
65413SOL    HW2 6170  12.924   8.004   9.309 -1.0635 -0.8706 -1.9316
65414SOL     OW 6171  12.471   5.870   0.986  0.2162 -0.2499  0.2774
65414SOL    HW1 6172  12.546   5.829   0.944  0.6351  1.4991 -0.7942
65414SOL    HW2 6173  12.477   5.844   1.078  2.6261  0.4937  0.3834
65415SOL     OW 6174   7.122   3.096   6.322 -0.1425 -0.2037  0.1457
65415SOL    HW1 6175   7.142   3.190   6.325  2.8312 -0.7527  0.5334
65415SOL    HW2 6176   7.058   3.083   6.392  0.1592  1.3724  0.7631
65416SOL     OW 6177   9.355   7.891   7.816 -0.5592  0.6872  0.5539
65416SOL    HW1 6178   9.389   7.927   7.734 -1.3892  0.3172  0.0390
65416SOL    HW2 6179   9.431   7.890   7.875 -0.2283  2.0730  0.1862
65417SOL     OW 6180   4.570   0.571   6.659 -0.5257  0.2983 -0.8605
65417SOL    HW1 6181   4.557   0.518   6.738 -0.7054  0.7928 -0.5574
65417SOL    HW2 6182   4.626   0.516   6.603  0.3730  0.3255 -0.0164
65418SOL     OW 6183   1.409  12.617  10.083  0.6627 -0.0502 -0.2432
65418SOL    HW1 6184   1.479  12.561  10.050  1.3243 -0.2672  1.4122
65418SOL    HW2 6185   1.343  12.616  10.014  1.3342 -1.6229 -0.9164
65419SOL     OW 6186   2.714   3.834   9.615 -0.4286 -0.5682  0.1468
65419SOL    HW1 6187   2.770   3.877   9.551  1.8824  0.4127  2.6244
65419SOL    HW2 6188   2.747   3.745   9.620  3.1921  0.6568  3.5713
65420SOL     OW 6189   2.527   4.219   5.232  0.1773  0.0128 -0.0728
65420SOL    HW1 6190   2.525   4.280   5.306 -1.0934 -0.9439  0.7185
65420SOL    HW2 6191   2.620   4.198   5.221  0.8879  3.1857 -1.3535
65421SOL     OW 6192   6.624  11.661   7.422  0.3814  0.0383 -0.1074
65421SOL    HW1 6193   6.616  11.605   7.499 -2.0685 -0.7845 -0.8744
65421SOL    HW2 6194   6.625  11.600   7.348  1.9907  0.8467 -0.8010
65422SOL     OW 6195   8.047  10.176   6.943  0.0582  0.2743  0.5220
65422SOL    HW1 6196   8.016  10.160   7.032 -1.5184 -2.3589 -0.3748
65422SOL    HW2 6197   8.071  10.090   6.909 -0.6081  0.9789 -2.0159
65423SOL     OW 6198  11.616  10.021   2.273  0.1920  0.6862  0.6011
65423SOL    HW1 6199  11.581   9.977   2.350 -1.0228 -0.2879 -0.4485
65423SOL    HW2 6200  11.643   9.950   2.215 -0.6538  1.3190 -0.6264
65424SOL     OW 6201  11.118   8.405   0.764  0.2680 -0.5717  0.4685
65424SOL    HW1 6202  11.143   8.460   0.839 -0.1711 -0.5145  0.5731
65424SOL    HW2 6203  11.196   8.405   0.708 -0.7533  2.9781 -1.2493
65425SOL     OW 6204   8.973   3.274  12.116  1.0261  0.1149 -0.3924
65425SOL    HW1 6205   9.000   3.352  12.068  1.4774 -0.2298 -0.7042
65425SOL    HW2 6206   9.051   3.248  12.165  0.0179  1.6826  2.2509
65426SOL     OW 6207  12.245   0.790   6.564  0.1482  0.0715 -0.3781
65426SOL    HW1 6208  12.238   0.810   6.657 -0.2015  0.3304 -0.4608
65426SOL    HW2 6209  12.161   0.751   6.541  1.7215 -4.5085  0.4810
65427SOL     OW 6210   4.980   6.907   2.676 -0.4363 -0.5310 -0.3816
65427SOL    HW1 6211   5.044   6.958   2.627 -1.8652  0.8760 -0.8329
65427SOL    HW2 6212   5.007   6.816   2.662  2.2731  0.0307  0.5937
65428SOL     OW 6213   3.740   6.058   5.691  0.0321 -0.4313 -0.1006
65428SOL    HW1 6214   3.780   6.109   5.762 -2.9165  0.7675  0.8908
65428SOL    HW2 6215   3.678   6.119   5.651 -0.4954 -1.9954 -1.7882
65429SOL     OW 6216  12.297   6.078  10.624 -0.3036  0.2806  0.1536
65429SOL    HW1 6217  12.307   5.990  10.586  2.0029  0.9026 -0.8705
65429SOL    HW2 6218  12.241   6.124  10.562 -0.0651  0.0347 -0.2546
65430SOL     OW 6219   3.453  10.915  11.738  0.1265 -0.0916  0.6149
65430SOL    HW1 6220   3.391  10.902  11.666  1.9717  0.9429 -1.2671
65430SOL    HW2 6221   3.430  10.848  11.802 -1.6086 -1.0414 -0.9155
65431SOL     OW 6222   8.410   6.733   3.319  0.5674  0.1156  0.8135
65431SOL    HW1 6223   8.426   6.640   3.335  0.9629  0.4561  2.6046
65431SOL    HW2 6224   8.485   6.777   3.359  0.9352  1.1698 -0.9653
65432SOL     OW 6225  13.151   6.810   9.728  0.3073 -0.0480 -0.3612
65432SOL    HW1 6226  13.246   6.816   9.733  0.2213  0.0489  1.7337
65432SOL    HW2 6227  13.124   6.771   9.811 -1.5143  0.1902 -0.7889
65433SOL     OW 6228   5.707   7.832  11.597 -0.5838 -0.1561 -0.5316
65433SOL    HW1 6229   5.639   7.892  11.628 -0.4450  0.8121 -1.9566
65433SOL    HW2 6230   5.662   7.778  11.531  0.0150  0.5308 -1.5236
65434SOL     OW 6231  11.940   0.671   2.791  0.3551 -0.0398 -0.0603
65434SOL    HW1 6232  12.008   0.604   2.796 -1.7704 -2.5387 -1.6888
65434SOL    HW2 6233  11.896   0.666   2.876  0.9340  0.1100  0.2486
65435SOL     OW 6234   0.817   3.540   4.052  0.6085 -0.1851 -0.1151
65435SOL    HW1 6235   0.798   3.528   3.959  1.6028 -1.0983 -0.2173
65435SOL    HW2 6236   0.777   3.465   4.095  0.1309  0.2483  0.2069
65436SOL     OW 6237   8.869   7.732  12.204 -0.1070  0.3585  0.4020
65436SOL    HW1 6238   8.864   7.694  12.117  0.3775 -1.6854  1.1952
65436SOL    HW2 6239   8.797   7.795  12.207 -1.9227 -1.5368 -0.5720
65437SOL     OW 6240  12.595   1.443   8.337  0.2216  0.1605 -0.0443
65437SOL    HW1 6241  12.528   1.375   8.346 -0.3313  0.6658 -0.3001
65437SOL    HW2 6242  12.667   1.414   8.394 -0.8425  0.3694  1.4671
65438SOL     OW 6243   7.859   0.958   2.292  0.4810  0.4567  0.3715
65438SOL    HW1 6244   7.880   0.960   2.385  0.8749  0.3977  0.2830
65438SOL    HW2 6245   7.875   1.047   2.262 -1.4321  0.9676  0.7482
65439SOL     OW 6246  12.581   0.384   2.548 -0.1690 -0.4121 -0.8280
65439SOL    HW1 6247  12.496   0.379   2.505 -1.0561 -1.6804  0.9837
65439SOL    HW2 6248  12.561   0.410   2.638  1.6476  2.3616 -1.1088
65440SOL     OW 6249   8.482   3.986  11.712  0.8809  0.6104  0.7319
65440SOL    HW1 6250   8.411   4.041  11.746 -0.4229  0.1130 -1.0339
65440SOL    HW2 6251   8.469   3.901  11.754  0.0872  0.3741  0.0320
65441SOL     OW 6252  12.984   8.605   7.117  0.0073  0.1841  0.1628
65441SOL    HW1 6253  13.000   8.530   7.059  1.3723  0.3636  0.2668
65441SOL    HW2 6254  12.957   8.675   7.059  0.4043  0.0858 -0.1438
65442SOL     OW 6255  11.271   5.598   1.046  0.3479  0.6048 -0.7022
65442SOL    HW1 6256  11.267   5.692   1.034 -0.6333  0.5669 -0.7250
65442SOL    HW2 6257  11.182   5.567   1.029  0.2127 -0.1106  1.1047
65443SOL     OW 6258  10.132  13.140  10.866  0.5515 -0.0914 -0.1788
65443SOL    HW1 6259  10.125  13.236  10.867  0.7910 -0.0730 -0.1525
65443SOL    HW2 6260  10.204  13.122  10.806  0.2986 -0.2698 -0.4252
65444SOL     OW 6261   8.951  12.394   5.849  0.2615  0.4646 -0.0605
65444SOL    HW1 6262   8.875  12.446   5.874 -1.1054 -0.5615 -1.7760
65444SOL    HW2 6263   8.989  12.364   5.932 -1.2107  1.0116  0.8389
65445SOL     OW 6264   6.249  12.350   7.505 -0.1518 -0.4396  0.0940
65445SOL    HW1 6265   6.189  12.337   7.432 -0.4672  0.0832  0.2533
65445SOL    HW2 6266   6.239  12.443   7.527 -0.0545 -0.5933  0.7972
65446SOL     OW 6267  11.730   4.804   2.930 -0.2595 -0.1467 -0.0657
65446SOL    HW1 6268  11.757   4.782   2.840 -0.9466 -1.3425  0.0037
65446SOL    HW2 6269  11.782   4.746   2.985 -0.7789 -0.3326  0.2307
65447SOL     OW 6270  10.829   7.530   7.345 -0.2946 -0.2079 -0.0844
65447SOL    HW1 6271  10.834   7.499   7.436  0.6943  1.4707  0.5016
65447SOL    HW2 6272  10.792   7.457   7.296  2.9578 -2.7872  0.9186
65448SOL     OW 6273   3.616   3.937  11.437 -0.7197 -0.1012  0.0281
65448SOL    HW1 6274   3.693   3.956  11.385  0.6823 -3.6177  0.4952
65448SOL    HW2 6275   3.581   4.022  11.462  4.6909  1.9160  2.2410
65449SOL     OW 6276   8.788   0.423  10.499 -0.4537  0.3028 -0.0538
65449SOL    HW1 6277   8.840   0.379  10.566  0.4223  2.1708  0.5533
65449SOL    HW2 6278   8.844   0.423  10.421 -0.7314 -0.2583 -0.2547
65450SOL     OW 6279   0.021   7.030  13.311 -0.8969  0.5635 -0.2388
65450SOL    HW1 6280   0.110   7.026  13.347 -0.4360  3.7326 -0.7590
65450SOL    HW2 6281  -0.033   6.981  13.373  0.8245  0.6350  1.3978
65451SOL     OW 6282  10.352  12.960   3.690  0.4797 -0.0283  0.3423
65451SOL    HW1 6283  10.415  12.889   3.679  1.0013  0.2151  1.5854
65451SOL    HW2 6284  10.310  12.942   3.774  0.3621  0.9272  0.5038
65452SOL     OW 6285  12.803   0.707   4.251  0.4684  0.0894 -0.1099
65452SOL    HW1 6286  12.733   0.750   4.203 -0.8625 -1.0664  0.6917
65452SOL    HW2 6287  12.805   0.751   4.336  1.4181  0.7787 -0.4754
65453SOL     OW 6288   4.937   5.864   0.872 -0.0108  0.1071 -0.5900
65453SOL    HW1 6289   4.908   5.801   0.805  0.7027 -0.4152 -0.4143
65453SOL    HW2 6290   4.981   5.811   0.938 -1.9604  0.4085  1.0689
65454SOL     OW 6291   3.843   9.957   5.971  0.4051 -0.3838  0.0671
65454SOL    HW1 6292   3.858  10.022   6.039  0.2369 -0.0866 -0.1754
65454SOL    HW2 6293   3.921   9.963   5.915  0.5705 -0.6680  0.2634
65455SOL     OW 6294   0.043   8.088   3.923 -0.1650  0.5231 -0.3690
65455SOL    HW1 6295   0.011   8.159   3.979 -0.3661  0.1898 -0.0536
65455SOL    HW2 6296   0.048   8.012   3.982  1.7023  0.6787 -0.2874
65456SOL     OW 6297   0.542  10.419   2.808  0.3135 -0.5424 -0.5545
65456SOL    HW1 6298   0.618  10.477   2.806  0.8905 -1.2348  0.7062
65456SOL    HW2 6299   0.538  10.387   2.898 -1.3403 -0.6994 -0.6511
65457SOL     OW 6300   1.286   7.652   7.356  0.7219  0.0075 -0.3688
65457SOL    HW1 6301   1.281   7.714   7.284  0.3427  2.0947  1.3465
65457SOL    HW2 6302   1.359   7.683   7.409  1.0331 -1.5068  0.1591
65458SOL     OW 6303   4.436   5.125   7.458 -0.4344 -0.0188 -0.1993
65458SOL    HW1 6304   4.354   5.151   7.417  0.0558 -0.7119 -1.6776
65458SOL    HW2 6305   4.456   5.039   7.420  1.2401  0.3752 -0.2950
65459SOL     OW 6306  10.341  12.178   4.164 -0.0731  0.8222 -0.1772
65459SOL    HW1 6307  10.408  12.135   4.217 -0.9660  0.8785  1.0192
65459SOL    HW2 6308  10.369  12.163   4.073  0.3767 -1.0567  0.2459
65460SOL     OW 6309   9.840   9.809   5.611  1.0067 -0.1109 -0.0982
65460SOL    HW1 6310   9.901   9.882   5.622  0.5429  0.6889 -2.2672
65460SOL    HW2 6311   9.852   9.782   5.520 -1.0467 -0.6635 -0.2548
65461SOL     OW 6312   0.032  11.184  12.885 -0.1220 -0.2970 -0.1146
65461SOL    HW1 6313  -0.054  11.163  12.848 -0.5659 -0.7271  1.0847
65461SOL    HW2 6314   0.071  11.098  12.904 -1.0688 -0.1859  2.8938
65462SOL     OW 6315   4.178  10.525   9.957  0.2204  0.2908 -0.1349
65462SOL    HW1 6316   4.090  10.554   9.933  0.6003  1.5277 -0.0668
65462SOL    HW2 6317   4.169  10.494  10.047 -0.0001  1.1651  0.1560
65463SOL     OW 6318  11.736   4.195   3.088  0.0194 -0.0688  0.3762
65463SOL    HW1 6319  11.721   4.176   2.995 -0.7603 -1.9158  0.8391
65463SOL    HW2 6320  11.807   4.259   3.088  0.0046  0.0024 -1.4928
65464SOL     OW 6321   0.175   2.119  11.389 -0.5650  0.7451 -0.0125
65464SOL    HW1 6322   0.088   2.150  11.412 -0.9353  0.4615 -0.9697
65464SOL    HW2 6323   0.159   2.041  11.335  0.1539  2.4138 -2.8520
65465SOL     OW 6324   6.756   9.727  11.697  1.0262  0.5638  0.1814
65465SOL    HW1 6325   6.785   9.715  11.607 -0.8632 -0.5270 -0.3411
65465SOL    HW2 6326   6.723   9.816  11.701  0.0980  0.2598 -0.5276
65466SOL     OW 6327   9.307   6.548   5.713  0.0922  0.5479 -0.4296
65466SOL    HW1 6328   9.222   6.578   5.679 -0.6613  0.8808  1.6171
65466SOL    HW2 6329   9.285   6.472   5.767  1.1626  0.3980 -0.1948
65467SOL     OW 6330   5.262   5.454   3.335  0.1189  0.4013  0.3861
65467SOL    HW1 6331   5.247   5.465   3.429 -0.4261  1.1093  0.2147
65467SOL    HW2 6332   5.338   5.395   3.331 -0.9203 -1.0813  1.2628
65468SOL     OW 6333   9.060   2.671  12.779  0.3156 -0.3507 -0.4126
65468SOL    HW1 6334   8.974   2.630  12.794 -0.5324  1.6679  0.7258
65468SOL    HW2 6335   9.101   2.673  12.866  0.2547  1.2582 -0.3863
65469SOL     OW 6336   7.906   3.295   2.152  0.1259 -0.1187 -0.3104
65469SOL    HW1 6337   7.964   3.230   2.192  0.7118  0.7388  0.2690
65469SOL    HW2 6338   7.834   3.305   2.214  0.4376  0.3530 -0.0186
65470SOL     OW 6339   6.219   8.942   3.606  0.1474 -0.3057 -0.3356
65470SOL    HW1 6340   6.201   9.034   3.627  0.9358  0.3160 -2.1311
65470SOL    HW2 6341   6.274   8.911   3.678 -2.2251 -0.2115  1.6624
65471SOL     OW 6342  11.382  11.927   9.765 -0.4128 -0.1890 -0.0683
65471SOL    HW1 6343  11.294  11.893   9.751 -0.1326 -1.0198  0.1793
65471SOL    HW2 6344  11.438  11.877   9.705  0.4101 -2.0393  2.0941
65472SOL     OW 6345   6.195   2.636   7.636  0.2919 -0.6411  0.1317
65472SOL    HW1 6346   6.170   2.553   7.674  0.5934 -0.6705  0.2715
65472SOL    HW2 6347   6.154   2.702   7.692 -0.7211 -0.7034 -0.5246
65473SOL     OW 6348   3.902   4.398  12.862  0.6497 -0.0091  0.0928
65473SOL    HW1 6349   3.889   4.414  12.768 -3.5970 -1.5954  0.1773
65473SOL    HW2 6350   3.888   4.304  12.873  1.2082  0.1163  2.3358
65474SOL     OW 6351   3.379   1.930   0.841  0.0145 -0.1261  0.4291
65474SOL    HW1 6352   3.340   1.852   0.880 -0.7528  0.5749  1.1314
65474SOL    HW2 6353   3.467   1.934   0.878  1.6687 -2.8059 -2.6614
65475SOL     OW 6354   0.491   8.689   8.741 -0.5440  0.1081  0.4351
65475SOL    HW1 6355   0.487   8.678   8.646  0.2571 -1.0056  0.5147
65475SOL    HW2 6356   0.583   8.705   8.760 -0.8867  1.6370  0.9120
65476SOL     OW 6357  11.787   8.573   3.940  0.2378  0.0816  0.2925
65476SOL    HW1 6358  11.755   8.605   4.024  0.2973  0.3915  0.1991
65476SOL    HW2 6359  11.708   8.556   3.889 -0.0367 -3.8752  1.7180
65477SOL     OW 6360   7.861  11.279  10.846 -0.5160 -0.0904 -0.0951
65477SOL    HW1 6361   7.820  11.329  10.774 -1.0187 -1.1521 -0.5787
65477SOL    HW2 6362   7.818  11.312  10.925  1.4514  2.5330  0.0132
65478SOL     OW 6363   4.188   9.760   3.273 -0.2441  0.1992 -0.9823
65478SOL    HW1 6364   4.199   9.728   3.183  1.7506 -0.4031 -0.5836
65478SOL    HW2 6365   4.181   9.680   3.325  2.1054  0.3801 -0.2655
65479SOL     OW 6366   7.466   5.956  11.222  0.2410 -0.2603 -0.0338
65479SOL    HW1 6367   7.510   5.997  11.296 -2.0082  0.3370  1.0740
65479SOL    HW2 6368   7.434   5.872  11.257  1.3199 -1.1560 -1.1069
65480SOL     OW 6369   1.883   9.565   6.718  0.3288 -0.1579  0.1294
65480SOL    HW1 6370   1.920   9.500   6.778  1.4609 -0.6597 -1.0563
65480SOL    HW2 6371   1.866   9.641   6.773  0.4604 -0.9145  1.2599
65481SOL     OW 6372   0.794   0.850   8.269 -0.3753  0.4320 -0.2493
65481SOL    HW1 6373   0.726   0.917   8.271 -2.3206 -1.4362  0.7535
65481SOL    HW2 6374   0.752   0.775   8.227  1.0435 -0.8202  0.4759
65482SOL     OW 6375   7.874   7.092  12.223 -0.0644  0.3271 -0.2202
65482SOL    HW1 6376   7.853   7.170  12.275 -1.6948 -0.1860 -0.0508
65482SOL    HW2 6377   7.957   7.061  12.259  0.0602  1.3714  0.4400
65483SOL     OW 6378   8.074   9.156  12.207  0.1581 -0.0179  0.0048
65483SOL    HW1 6379   8.014   9.229  12.224  0.2970  0.0579  0.1678
65483SOL    HW2 6380   8.019   9.078  12.217  0.2624  0.0175  0.9448
65484SOL     OW 6381  10.362   8.802  10.142  0.1149  0.4695 -0.0067
65484SOL    HW1 6382  10.320   8.718  10.122  0.8444  0.0559  0.1668
65484SOL    HW2 6383  10.290   8.860  10.167 -0.3189 -0.3024  0.5471
65485SOL     OW 6384   0.894   9.685  10.371 -0.5040  0.1683 -0.1627
65485SOL    HW1 6385   0.821   9.704  10.312 -0.9527 -0.4074  0.1971
65485SOL    HW2 6386   0.857   9.692  10.459  0.3944  2.0044  0.1192
65486SOL     OW 6387   5.437   4.540   1.654 -0.0513 -0.2605  0.4115
65486SOL    HW1 6388   5.433   4.558   1.560 -0.0320 -1.5069  0.1491
65486SOL    HW2 6389   5.357   4.579   1.689  0.3415  0.9279  0.0180
65487SOL     OW 6390   1.719   1.804   7.310 -1.0971  0.2877 -0.1252
65487SOL    HW1 6391   1.764   1.883   7.339 -1.8163  0.6222  0.0822
65487SOL    HW2 6392   1.627   1.818   7.332 -1.4861  0.0591 -1.5259
65488SOL     OW 6393   4.359  11.418   5.143  0.2959  0.8776 -0.3388
65488SOL    HW1 6394   4.265  11.406   5.157  0.3654  0.5828 -0.1107
65488SOL    HW2 6395   4.396  11.423   5.231  0.6512 -0.2773 -0.4014
65489SOL     OW 6396   3.327   5.089   1.939  0.3643 -0.2689 -0.0591
65489SOL    HW1 6397   3.384   5.145   1.886  0.4502  0.0412  0.3564
65489SOL    HW2 6398   3.250   5.144   1.958 -1.5976 -1.6187 -3.1807
65490SOL     OW 6399   9.483   2.071   0.979 -0.0860 -0.2064 -0.0674
65490SOL    HW1 6400   9.514   2.133   0.913 -0.6322 -0.7967 -0.8952
65490SOL    HW2 6401   9.563   2.040   1.022  0.3587 -0.4588 -1.0412
65491SOL     OW 6402   7.723   8.338   0.370 -0.4192  0.5497 -0.6601
65491SOL    HW1 6403   7.693   8.294   0.449  0.9133 -0.9356 -0.9165
65491SOL    HW2 6404   7.701   8.430   0.383 -3.6111 -0.1618 -0.2319
65492SOL     OW 6405   4.374   5.794   1.218 -0.7650 -0.2277 -0.6438
65492SOL    HW1 6406   4.465   5.819   1.200 -0.7866  1.0180  0.8089
65492SOL    HW2 6407   4.379   5.702   1.246  0.0075 -0.2346 -0.7902
65493SOL     OW 6408   3.382   1.052  10.671  0.2238 -0.3159  0.2408
65493SOL    HW1 6409   3.322   1.123  10.693 -0.9257 -0.4707 -1.9831
65493SOL    HW2 6410   3.446   1.050  10.742  1.2925  3.9737 -0.3080
65494SOL     OW 6411   3.664   9.656   8.112  0.5366  0.3248  0.0578
65494SOL    HW1 6412   3.703   9.732   8.069 -0.2345 -0.4142 -2.0560
65494SOL    HW2 6413   3.673   9.585   8.049 -1.6235 -0.5455  0.6493
65495SOL     OW 6414   4.216   6.563   0.840  0.1763 -0.3169  0.8141
65495SOL    HW1 6415   4.276   6.512   0.785 -0.3162 -0.0104 -0.0198
65495SOL    HW2 6416   4.244   6.544   0.929  0.1140 -1.9243  0.5241
65496SOL     OW 6417   6.680   2.770   0.889  0.2296  0.4646 -0.0554
65496SOL    HW1 6418   6.740   2.759   0.963 -0.5559  2.2289  0.9124
65496SOL    HW2 6419   6.615   2.701   0.900  0.1952  0.6297  0.8490
65497SOL     OW 6420   6.454   1.561  12.697  0.1254  0.1026 -0.0629
65497SOL    HW1 6421   6.534   1.614  12.694  0.4564 -0.4061 -0.2661
65497SOL    HW2 6422   6.456   1.519  12.783  0.7488 -0.9428 -0.5815
65498SOL     OW 6423   6.831  11.548   9.827 -0.3224  0.0295  0.0627
65498SOL    HW1 6424   6.793  11.619   9.879  0.3657  0.4334  0.0239
65498SOL    HW2 6425   6.778  11.545   9.747 -0.6715  0.1540  0.2866
65499SOL     OW 6426  13.099   5.988   4.689 -0.2403  0.1091  0.7956
65499SOL    HW1 6427  13.038   6.051   4.728 -0.2022  0.4364  0.3306
65499SOL    HW2 6428  13.064   5.902   4.714 -0.3971  0.3072  1.2744
65500SOL     OW 6429   0.045   2.049   7.045 -0.3876  0.0426 -0.3372
65500SOL    HW1 6430  -0.045   2.078   7.062 -1.3844 -2.0337 -1.7331
65500SOL    HW2 6431   0.036   1.979   6.982  2.1369 -1.1902  0.5551
65501SOL     OW 6432  11.177  10.655  13.026  0.2888 -0.0358 -0.3306
65501SOL    HW1 6433  11.170  10.734  13.080  1.3487 -0.1730  0.0355
65501SOL    HW2 6434  11.088  10.620  13.022 -0.1212  0.9670 -0.1820
65502SOL     OW 6435  13.194   4.967   2.764  0.1879  0.5511 -0.3339
65502SOL    HW1 6436  13.171   4.990   2.854 -0.9088  4.6263 -1.4567
65502SOL    HW2 6437  13.110   4.962   2.718  0.7818 -0.4402 -1.3846
65503SOL     OW 6438  11.960  11.297   7.328 -0.0452  0.2301  0.3451
65503SOL    HW1 6439  12.031  11.361   7.336  0.3225 -0.3032  1.6378
65503SOL    HW2 6440  11.885  11.348   7.297  0.7941  0.8718 -0.6846
65504SOL     OW 6441  11.178   3.626   4.794 -0.7848 -0.5808 -0.1006
65504SOL    HW1 6442  11.118   3.614   4.721 -0.9389  0.9889 -0.2577
65504SOL    HW2 6443  11.265   3.610   4.757 -0.8351  0.5231 -0.7211
65505SOL     OW 6444   9.573  11.475   4.173 -0.1779  0.1595 -0.4622
65505SOL    HW1 6445   9.507  11.539   4.200  0.3425  1.1596 -1.4494
65505SOL    HW2 6446   9.595  11.500   4.083  1.5760 -0.0824 -0.1422
65506SOL     OW 6447   7.162   2.850   2.084  0.0345  0.3367 -0.1028
65506SOL    HW1 6448   7.255   2.829   2.081 -0.4376 -1.9892 -0.5683
65506SOL    HW2 6449   7.122   2.790   2.021 -1.9222  0.4621  0.9350
65507SOL     OW 6450   5.433   5.927   9.671  0.6837  0.7012 -0.1574
65507SOL    HW1 6451   5.355   5.895   9.625  1.0112 -0.6398  0.1806
65507SOL    HW2 6452   5.404   5.940   9.761  1.1922 -1.3579  0.3580
65508SOL     OW 6453   7.462   6.633   7.025  0.2073 -0.1330 -0.4661
65508SOL    HW1 6454   7.515   6.609   6.949 -0.3557 -0.0404 -0.8978
65508SOL    HW2 6455   7.376   6.653   6.988 -0.2257 -0.6285  0.2579
65509SOL     OW 6456   2.073   4.691   9.988  0.3467  0.3571  0.7499
65509SOL    HW1 6457   2.006   4.633   9.952 -0.7691  1.0940  1.5919
65509SOL    HW2 6458   2.041   4.779   9.970  1.3103  0.7311  0.7838
65510SOL     OW 6459   4.099  13.190   2.569  0.3755  0.0318 -0.1283
65510SOL    HW1 6460   4.082  13.284   2.564  0.0366  0.0438  1.0469
65510SOL    HW2 6461   4.127  13.175   2.659  1.6104 -0.8209 -0.6242
65511SOL     OW 6462  13.208   3.174  10.238  0.2013  0.4025 -0.1749
65511SOL    HW1 6463  13.142   3.230  10.279 -0.2126 -0.4114  0.3154
65511SOL    HW2 6464  13.256   3.136  10.312 -0.0619 -0.4998 -0.4512
65512SOL     OW 6465   6.411   3.666  11.899 -0.6586  0.2513  0.3147
65512SOL    HW1 6466   6.434   3.663  11.806 -1.9497  1.1361 -0.0611
65512SOL    HW2 6467   6.370   3.582  11.918  0.2627 -0.2120  0.2755
65513SOL     OW 6468  12.699  12.682   7.805 -0.4022 -0.3762 -0.0961
65513SOL    HW1 6469  12.680  12.748   7.871 -0.5056  0.5464 -1.0227
65513SOL    HW2 6470  12.661  12.602   7.840 -0.5442  0.1078  0.9089
65514SOL     OW 6471   7.337   1.325  12.250  0.3104 -0.2276  0.0731
65514SOL    HW1 6472   7.308   1.329  12.159 -0.2706 -1.1704  0.2086
65514SOL    HW2 6473   7.426   1.288  12.246 -0.6742 -2.7826  0.0376
65515SOL     OW 6474  10.158   4.098  13.071 -0.3034  0.2938  0.3337
65515SOL    HW1 6475  10.158   4.188  13.039 -1.6500  0.6416  1.2311
65515SOL    HW2 6476  10.066   4.072  13.070  0.0939 -1.2186 -0.2470
65516SOL     OW 6477   4.476   4.190   0.429 -0.0524 -0.4965  0.2402
65516SOL    HW1 6478   4.390   4.221   0.456 -0.6642  0.0755 -2.1260
65516SOL    HW2 6479   4.536   4.260   0.455 -0.5543 -0.0859  0.2989
65517SOL     OW 6480   1.452   5.686   3.297 -0.4208  0.2487  0.0689
65517SOL    HW1 6481   1.499   5.692   3.381  0.7517  1.4009 -0.6319
65517SOL    HW2 6482   1.408   5.771   3.288 -1.7378 -0.3993  0.1643
65518SOL     OW 6483   3.103   5.098   4.287 -0.1607 -0.1274  0.2427
65518SOL    HW1 6484   3.175   5.155   4.259  0.1582  0.5769  2.3465
65518SOL    HW2 6485   3.145   5.015   4.309 -0.1453 -0.0416  0.5280
65519SOL     OW 6486   7.194   7.827   0.265  0.3298  0.7258  0.1534
65519SOL    HW1 6487   7.185   7.736   0.291  0.8189  0.1880 -1.4412
65519SOL    HW2 6488   7.289   7.842   0.261  0.2855  0.7388 -1.3652
65520SOL     OW 6489   6.708   4.637   2.001  0.1770  0.0483  0.2998
65520SOL    HW1 6490   6.695   4.632   1.906 -0.5924  0.8462  0.3526
65520SOL    HW2 6491   6.749   4.722   2.015 -0.3384  0.2261  0.7455
65521SOL     OW 6492   4.583   6.243   3.078 -0.0216  0.1045  0.1193
65521SOL    HW1 6493   4.626   6.178   3.022  1.2348  1.2941 -0.3487
65521SOL    HW2 6494   4.492   6.215   3.081  0.5516 -1.9014  0.2607
65522SOL     OW 6495   3.829   4.362   0.697  0.3915  0.3717  0.3426
65522SOL    HW1 6496   3.736   4.341   0.699 -0.1084  2.3379  0.4062
65522SOL    HW2 6497   3.845   4.390   0.607  1.6137 -2.4636 -0.4349
65523SOL     OW 6498   9.260   6.911  10.542  0.8194 -0.8824 -0.0950
65523SOL    HW1 6499   9.297   6.877  10.461  0.7492 -0.6181 -0.2370
65523SOL    HW2 6500   9.301   6.858  10.611  0.2622 -1.6627 -0.3451
65524SOL     OW 6501   3.523  11.907   0.032 -0.0476  0.7744  0.1597
65524SOL    HW1 6502   3.607  11.874   0.063 -1.2979 -3.4297 -0.3352
65524SOL    HW2 6503   3.461  11.883   0.101 -1.4749 -0.4477 -1.4656
65525SOL     OW 6504   3.210   3.984  12.598  0.6002 -1.0063 -0.3709
65525SOL    HW1 6505   3.153   3.988  12.521  0.9551  0.3896 -0.5893
65525SOL    HW2 6506   3.267   3.909  12.583 -0.0918 -1.4268 -0.9230
65526SOL     OW 6507   7.628  12.570  10.104  0.0171 -0.2652 -0.2978
65526SOL    HW1 6508   7.662  12.555  10.015 -0.5454  1.0538 -0.7690
65526SOL    HW2 6509   7.684  12.640  10.139 -1.7364  1.5200 -0.8643
65527SOL     OW 6510   9.530   2.100   1.578 -0.5028 -0.1165  0.7105
65527SOL    HW1 6511   9.536   2.164   1.648 -0.5209 -0.9636  1.5149
65527SOL    HW2 6512   9.568   2.020   1.616  1.3241 -0.0888 -0.8786
65528SOL     OW 6513   6.021   8.772   0.702 -0.1364  0.0582 -0.3724
65528SOL    HW1 6514   6.032   8.743   0.612 -0.1470  1.7497 -0.9373
65528SOL    HW2 6515   6.062   8.858   0.705 -0.5944  0.2524  1.1188
65529SOL     OW 6516   5.120  10.534  11.309  0.5428  0.2455 -0.8529
65529SOL    HW1 6517   5.100  10.598  11.240 -1.5828  0.6771  0.0646
65529SOL    HW2 6518   5.189  10.576  11.360 -0.3351  1.5386 -0.6715
65530SOL     OW 6519  11.892   8.395  12.142 -0.0712 -0.0567 -0.4284
65530SOL    HW1 6520  11.860   8.401  12.232 -1.1434  1.1380 -0.8594
65530SOL    HW2 6521  11.977   8.440  12.145  1.3538 -2.5937  0.5569
65531SOL     OW 6522   0.994   4.925  11.019  0.7030  0.1903 -0.4591
65531SOL    HW1 6523   1.053   4.849  11.020 -1.2856 -1.4490  0.7291
65531SOL    HW2 6524   0.959   4.927  10.930  0.3208 -0.7042 -0.3434
65532SOL     OW 6525   6.325   5.807   3.173 -0.3756  0.3839 -0.2556
65532SOL    HW1 6526   6.373   5.877   3.216 -0.4574 -0.1198  0.6802
65532SOL    HW2 6527   6.391   5.761   3.121 -0.4966  1.6851 -1.5964
65533SOL     OW 6528  11.997   7.591   1.892  0.0365 -0.1433  0.0109
65533SOL    HW1 6529  12.009   7.683   1.917  0.2504 -0.6269  1.8204
65533SOL    HW2 6530  12.076   7.570   1.841  1.7465 -0.2353  2.5167
65534SOL     OW 6531   6.862   2.274   3.798 -0.0182  0.1951  0.2099
65534SOL    HW1 6532   6.837   2.326   3.722  0.3648  0.6608  0.3953
65534SOL    HW2 6533   6.956   2.258   3.786  0.0210  0.1810  0.5299
65535SOL     OW 6534  10.443   9.022  11.316 -0.2485  0.3508  0.2481
65535SOL    HW1 6535  10.517   9.081  11.300 -0.5783  0.1033 -2.9125
65535SOL    HW2 6536  10.400   9.058  11.393  2.8579  0.7333  1.9532
65536SOL     OW 6537  12.695   6.139   6.286 -0.4585  0.6875  0.7214
65536SOL    HW1 6538  12.706   6.104   6.198  1.5864  1.1846  0.7307
65536SOL    HW2 6539  12.666   6.064   6.338 -0.6946  0.1545 -0.1631
65537SOL     OW 6540  13.069   2.267   7.219 -0.4106 -0.3889 -0.0458
65537SOL    HW1 6541  13.127   2.274   7.294 -1.0217  0.7891  0.3403
65537SOL    HW2 6542  13.120   2.300   7.145 -0.7253  1.0972  0.3795
65538SOL     OW 6543  11.282  11.548   1.228 -0.3596  0.1234  0.3992
65538SOL    HW1 6544  11.372  11.580   1.224 -0.4138  0.1541 -2.4687
65538SOL    HW2 6545  11.233  11.618   1.271  0.9927 -0.1039  2.4572
65539SOL     OW 6546   7.136  10.098  12.197 -0.6542 -0.5556 -0.1280
65539SOL    HW1 6547   7.225  10.092  12.162 -0.7832 -0.6094 -0.4450
65539SOL    HW2 6548   7.133  10.031  12.265 -0.0362  0.3212  0.7983
65540SOL     OW 6549   4.162   7.242  10.627  0.2016 -0.0545  0.2045
65540SOL    HW1 6550   4.103   7.314  10.605  0.5717 -0.1407 -1.1335
65540SOL    HW2 6551   4.250   7.279  10.612  0.5611  0.2290  2.6056
65541SOL     OW 6552  12.927  10.959  12.652 -0.1556  0.0148  0.7004
65541SOL    HW1 6553  12.857  10.964  12.587  1.7468 -0.5415 -1.5282
65541SOL    HW2 6554  12.942  10.865  12.665  1.8092  0.0672 -0.8070
65542SOL     OW 6555   0.275   7.833   8.900 -0.2391 -0.2423 -0.0339
65542SOL    HW1 6556   0.351   7.775   8.901 -0.1493 -0.1583 -0.9139
65542SOL    HW2 6557   0.271   7.870   8.988  0.9450  0.0132 -0.0747
65543SOL     OW 6558   9.198   2.004   9.646  0.2954 -0.7067  0.1896
65543SOL    HW1 6559   9.192   1.924   9.594  1.6124 -1.6233  1.3607
65543SOL    HW2 6560   9.235   2.069   9.587 -0.9691 -0.8748 -0.8318
65544SOL     OW 6561  11.707   6.364   1.154  0.1074  0.0723  0.4985
65544SOL    HW1 6562  11.781   6.412   1.190 -0.6970 -0.2489  2.7272
65544SOL    HW2 6563  11.654   6.431   1.111  1.0807  0.4771 -0.1146
65545SOL     OW 6564   1.460   5.969   4.773  0.4091 -1.1055 -0.8002
65545SOL    HW1 6565   1.394   5.935   4.833  0.4871  2.1371  1.3898
65545SOL    HW2 6566   1.411   6.029   4.715  1.2173  0.8744  0.4661
65546SOL     OW 6567   4.165   5.162  10.376 -0.3231 -0.2965  0.1194
65546SOL    HW1 6568   4.167   5.068  10.395  1.7343 -0.9157 -2.5171
65546SOL    HW2 6569   4.074   5.180  10.353 -0.6618 -1.7463  0.2392
65547SOL     OW 6570   5.447   5.649   9.874  0.0770  0.1362  0.6892
65547SOL    HW1 6571   5.410   5.718   9.818  2.3354  0.8695 -0.0080
65547SOL    HW2 6572   5.371   5.603   9.909 -1.4755  0.3498 -2.1234
65548SOL     OW 6573   3.412   0.923  10.095  0.1374  0.1159 -0.4264
65548SOL    HW1 6574   3.375   1.009  10.113  2.2437  0.6809  1.8036
65548SOL    HW2 6575   3.342   0.875  10.052 -2.8169  1.4185  2.5058
65549SOL     OW 6576   1.021   4.268   6.500  0.3500  0.5297 -0.2530
65549SOL    HW1 6577   1.089   4.280   6.434 -0.0359  0.8499 -0.5987
65549SOL    HW2 6578   1.028   4.176   6.525 -0.3673  0.0346 -1.7254
65550SOL     OW 6579   3.501   1.494  10.657 -0.0579 -0.1471 -0.5932
65550SOL    HW1 6580   3.485   1.438  10.580  1.6995 -1.0841 -0.3312
65550SOL    HW2 6581   3.544   1.436  10.720  0.8238  1.2414  0.1210
65551SOL     OW 6582  13.198  13.309   7.946  0.4834  0.1865  0.6545
65551SOL    HW1 6583  13.133  13.244   7.918  1.2545 -0.2010 -0.2682
65551SOL    HW2 6584  13.159  13.350   8.023 -0.0226 -1.3507  1.2352
65552SOL     OW 6585   8.480   9.995   9.149  0.2452 -0.3821 -0.3847
65552SOL    HW1 6586   8.429  10.063   9.192  2.3083  0.8291  0.2483
65552SOL    HW2 6587   8.503   9.934   9.219 -0.6080 -1.1353 -0.7386
65553SOL     OW 6588   6.191   0.010   8.043  0.3170 -0.3564 -0.1670
65553SOL    HW1 6589   6.213  -0.034   7.961 -0.9442 -0.9527 -0.2138
65553SOL    HW2 6590   6.270   0.003   8.096  1.1390  0.0145 -1.3092
65554SOL     OW 6591   9.820  11.257   8.397 -0.0279 -0.0584  0.0745
65554SOL    HW1 6592   9.910  11.224   8.408 -0.2617 -0.9813 -0.6601
65554SOL    HW2 6593   9.831  11.339   8.350  0.3466 -1.2470 -2.0521
65555SOL     OW 6594  12.339   0.301   2.402 -0.0605 -0.5950 -0.2569
65555SOL    HW1 6595  12.294   0.226   2.441  1.7866 -1.9880 -0.6356
65555SOL    HW2 6596  12.341   0.281   2.308  0.7521 -0.2313 -0.3214
65556SOL     OW 6597  10.462   8.018  12.668 -0.6403 -0.0458 -0.8104
65556SOL    HW1 6598  10.501   7.975  12.592  0.9532 -0.1455  0.0238
65556SOL    HW2 6599  10.426   8.100  12.634  0.0590 -0.0876 -1.6677
65557SOL     OW 6600  11.898   4.682   1.907 -0.2935 -0.5791  0.0659
65557SOL    HW1 6601  11.986   4.718   1.893 -0.6191 -0.0067 -0.5185
65557SOL    HW2 6602  11.844   4.758   1.930 -0.4352 -1.0602  1.4137
65558SOL     OW 6603   5.731   2.263   0.661 -0.4610  0.6045  0.2066
65558SOL    HW1 6604   5.654   2.278   0.606 -0.2371  0.8776 -0.0339
65558SOL    HW2 6605   5.805   2.278   0.602 -0.2195 -1.1801  0.0138
65559SOL     OW 6606  12.638  11.278   4.830 -0.2616 -0.0602 -0.2012
65559SOL    HW1 6607  12.579  11.335   4.780 -0.1487 -0.3659 -0.6914
65559SOL    HW2 6608  12.584  11.243   4.900 -0.5467  0.0239 -0.3772
65560SOL     OW 6609   7.144   0.541   3.484 -0.4215 -0.1435 -0.1307
65560SOL    HW1 6610   7.217   0.532   3.423  0.7196  1.7550  0.8759
65560SOL    HW2 6611   7.178   0.509   3.567 -0.7860  0.6065  0.3184
65561SOL     OW 6612   1.525   1.315   8.428 -0.6758  0.0373  0.3705
65561SOL    HW1 6613   1.541   1.296   8.521 -2.1119 -1.9038  0.2673
65561SOL    HW2 6614   1.537   1.232   8.383  1.2934  1.2003 -1.4575
65562SOL     OW 6615   2.788   8.410   5.940  0.2422 -0.2098 -0.2906
65562SOL    HW1 6616   2.877   8.403   5.905 -0.0619  2.2107 -1.8378
65562SOL    HW2 6617   2.731   8.378   5.869 -0.2194  1.7499 -0.8947
65563SOL     OW 6618   9.778   5.444   4.661  0.1160 -0.8112  0.4358
65563SOL    HW1 6619   9.691   5.484   4.667  0.4666  0.3147 -1.2717
65563SOL    HW2 6620   9.786   5.416   4.570  0.9771 -2.3218  0.9280
65564SOL     OW 6621   7.735   5.908  12.150 -0.4477 -0.1597 -0.2158
65564SOL    HW1 6622   7.786   5.989  12.151  0.2329 -0.5598 -0.8497
65564SOL    HW2 6623   7.655   5.931  12.103  0.5334 -0.2709 -2.0487
65565SOL     OW 6624  12.960   0.940  12.296  0.0302  1.0306 -0.0348
65565SOL    HW1 6625  13.028   0.908  12.236  0.1305  0.8606  0.1659
65565SOL    HW2 6626  12.948   1.032  12.272 -0.6706  0.7091 -1.0085
65566SOL     OW 6627   5.525   3.892   0.677  0.4116  0.0384 -0.2924
65566SOL    HW1 6628   5.532   3.891   0.773  0.6968  0.0043 -0.3150
65566SOL    HW2 6629   5.537   3.801   0.651 -0.8795 -0.1564 -0.2742
65567SOL     OW 6630   4.684   2.637   6.702 -0.3662 -0.1852  0.0078
65567SOL    HW1 6631   4.594   2.605   6.694 -0.3734 -0.1674  0.0161
65567SOL    HW2 6632   4.719   2.630   6.614 -0.9060  1.4017 -0.3617
65568SOL     OW 6633   5.725   6.211  13.129 -0.4911 -0.3321  0.5018
65568SOL    HW1 6634   5.765   6.173  13.208 -1.5294 -1.3524  0.5504
65568SOL    HW2 6635   5.733   6.143  13.062 -0.9688 -0.0474  0.1467
65569SOL     OW 6636  10.674   1.798   1.948 -0.2871  0.0323 -0.0128
65569SOL    HW1 6637  10.637   1.854   2.016 -0.4354 -1.2061  0.9598
65569SOL    HW2 6638  10.754   1.763   1.986 -0.7625 -1.2816 -0.1596
65570SOL     OW 6639   5.222  10.000   9.873 -0.4640 -0.5291  0.1738
65570SOL    HW1 6640   5.255  10.032   9.956 -0.3865 -0.9900  0.3205
65570SOL    HW2 6641   5.262   9.914   9.861 -0.5666 -0.5206 -0.2808
65571SOL     OW 6642  12.811  10.658   9.224  0.6813 -0.2343  0.1172
65571SOL    HW1 6643  12.785  10.724   9.289  0.5252 -1.0612  0.9047
65571SOL    HW2 6644  12.839  10.583   9.276  0.1608 -1.0625 -0.7744
65572SOL     OW 6645   3.003  10.804  11.318  0.5390 -0.4649 -0.2142
65572SOL    HW1 6646   2.908  10.808  11.325  0.5903 -1.1089  1.1888
65572SOL    HW2 6647   3.020  10.796  11.225 -0.7235  0.9180 -0.5998
65573SOL     OW 6648   3.083   0.117   6.110  0.3970 -0.1463  0.1367
65573SOL    HW1 6649   3.067   0.053   6.179 -2.0688 -0.0519 -0.2235
65573SOL    HW2 6650   2.996   0.153   6.091  1.6727  3.5224  0.4867
65574SOL     OW 6651  13.050   2.347   7.803  0.1820  0.6225 -0.1039
65574SOL    HW1 6652  13.056   2.375   7.895  0.5088  1.4429 -0.3622
65574SOL    HW2 6653  13.126   2.388   7.761 -0.9214  1.7294 -1.1099
65575SOL     OW 6654   4.362   1.474  12.391  0.0780  0.4528 -0.1555
65575SOL    HW1 6655   4.270   1.459  12.416 -0.9407  1.7929 -2.7129
65575SOL    HW2 6656   4.413   1.434  12.462 -2.3513 -5.3407 -1.1177
65576SOL     OW 6657   2.623   7.869  12.035  0.4369 -0.4830 -0.2482
65576SOL    HW1 6658   2.621   7.773  12.034 -1.4679 -0.4970  0.2878
65576SOL    HW2 6659   2.531   7.894  12.040  0.9019  1.3931 -0.4107
65577SOL     OW 6660   5.763   5.517   6.859  0.3004  0.1906  0.3571
65577SOL    HW1 6661   5.685   5.478   6.900 -0.2237 -0.1683 -0.9253
65577SOL    HW2 6662   5.729   5.590   6.808  0.9859  0.8288  0.7906
65578SOL     OW 6663  10.769   6.633   1.753  0.0430 -0.1463  0.1212
65578SOL    HW1 6664  10.747   6.725   1.768  0.2550 -0.2096  0.8476
65578SOL    HW2 6665  10.739   6.615   1.664 -0.7019  0.4162  0.2490
65579SOL     OW 6666   3.680  10.941   7.194  0.7127 -0.4250  0.3364
65579SOL    HW1 6667   3.653  11.013   7.137  0.7467 -0.9971 -0.4100
65579SOL    HW2 6668   3.618  10.870   7.175  0.2614 -0.3903  1.5399
65580SOL     OW 6669   8.015  10.049  11.980  0.3070 -0.3935 -0.4470
65580SOL    HW1 6670   8.058  10.121  12.027  1.2312 -0.4021 -1.2587
65580SOL    HW2 6671   8.003  10.082  11.891 -2.1544 -0.0829 -0.0575
65581SOL     OW 6672   8.372  11.796  12.674 -0.5247 -0.0743  0.0693
65581SOL    HW1 6673   8.408  11.883  12.655  1.3566 -0.7812  0.1361
65581SOL    HW2 6674   8.289  11.793  12.627 -1.2908  2.2276  1.1442
65582SOL     OW 6675   2.884  10.109  12.019 -0.6336  0.1414 -0.1650
65582SOL    HW1 6676   2.900  10.157  12.101 -1.8691  2.2287 -1.0644
65582SOL    HW2 6677   2.971  10.096  11.982 -0.0647 -0.7006  1.3557
65583SOL     OW 6678   2.243   8.521  13.037 -0.5711 -0.4137 -0.2481
65583SOL    HW1 6679   2.175   8.545  12.974  1.5606 -0.0602 -2.5872
65583SOL    HW2 6680   2.300   8.461  12.989  0.0748 -1.7921  2.0644
65584SOL     OW 6681   8.086   8.333  10.969 -0.2406  0.0068 -0.1082
65584SOL    HW1 6682   8.163   8.283  10.996  0.3182  0.9306  0.0493
65584SOL    HW2 6683   8.086   8.327  10.873 -0.6687 -1.0002 -0.0510
65585SOL     OW 6684   1.117   7.928   5.982 -0.0853 -0.4159 -0.3280
65585SOL    HW1 6685   1.063   7.864   5.935  2.7974 -2.4460 -1.1414
65585SOL    HW2 6686   1.132   7.998   5.919 -0.9950 -0.2664 -0.3895
65586SOL     OW 6687   7.741   1.979  13.206 -0.6651  0.2710 -0.3570
65586SOL    HW1 6688   7.732   2.022  13.121  0.2697 -0.7410 -0.9971
65586SOL    HW2 6689   7.823   2.013  13.241 -0.1322 -0.6546 -0.6807
65587SOL     OW 6690   7.920   8.653   0.998  0.2214  0.0207  0.5076
65587SOL    HW1 6691   7.894   8.602   0.921  0.6499 -1.0052  1.0205
65587SOL    HW2 6692   7.956   8.734   0.963 -3.0994  1.3128 -0.2766
65588SOL     OW 6693   5.573   2.276   6.143 -0.2030 -0.1329 -0.7175
65588SOL    HW1 6694   5.527   2.358   6.122 -0.8045 -0.5209 -0.9459
65588SOL    HW2 6695   5.662   2.303   6.166 -0.5741  0.6415 -0.1753
65589SOL     OW 6696   8.996   8.685  10.091 -0.4277 -0.2452 -0.2632
65589SOL    HW1 6697   8.922   8.649  10.041 -2.5450  3.5202 -0.1754
65589SOL    HW2 6698   8.984   8.650  10.179 -1.0655 -1.0338 -0.6384
65590SOL     OW 6699   2.496  10.184   8.262 -0.0830  0.7649 -0.4471
65590SOL    HW1 6700   2.589  10.164   8.250 -0.3869 -0.3748 -1.0481
65590SOL    HW2 6701   2.452  10.141   8.188 -1.2827 -0.3466  0.8334
65591SOL     OW 6702   0.479   9.651  12.620  0.7234 -0.6134  0.0159
65591SOL    HW1 6703   0.390   9.680  12.600  1.4536  1.4037 -0.5991
65591SOL    HW2 6704   0.488   9.662  12.714  0.9711  1.2768 -0.1992
65592SOL     OW 6705  12.099   9.605   1.178  0.5996  0.4183 -0.0661
65592SOL    HW1 6706  12.186   9.569   1.161  0.6225  0.5227 -0.1601
65592SOL    HW2 6707  12.082   9.582   1.270  0.4904 -0.1020 -0.2120
65593SOL     OW 6708   5.245   8.111   9.590  0.3205  0.0365 -0.3495
65593SOL    HW1 6709   5.229   8.030   9.638  0.6399  0.5151  0.5958
65593SOL    HW2 6710   5.217   8.092   9.501 -0.8015 -0.7153  0.1381
65594SOL     OW 6711   1.511   9.754   1.450  0.3033  0.2486 -0.1158
65594SOL    HW1 6712   1.545   9.669   1.422  2.2006 -0.1714  3.0110
65594SOL    HW2 6713   1.529   9.812   1.376 -0.8504 -1.9419 -2.2522
65595SOL     OW 6714  11.120   3.943  12.308  0.1895 -0.0619 -0.0234
65595SOL    HW1 6715  11.188   3.939  12.242  2.0760  0.1290  1.8210
65595SOL    HW2 6716  11.086   4.033  12.303 -1.2029 -0.6297 -2.0746
65596SOL     OW 6717   4.110   1.594   6.418  0.2351 -0.1478  0.4192
65596SOL    HW1 6718   4.165   1.553   6.351 -0.4171 -0.1280 -0.1494
65596SOL    HW2 6719   4.060   1.522   6.455 -2.5279  0.2629 -2.0940
65597SOL     OW 6720   8.582   8.988   5.065 -0.6090 -0.0191 -0.3448
65597SOL    HW1 6721   8.542   8.917   5.115 -0.2911 -0.0312 -0.1049
65597SOL    HW2 6722   8.655   8.946   5.018 -1.2556 -0.1312 -1.2828
65598SOL     OW 6723   9.871  10.472   2.005  0.1303  0.1839  0.1292
65598SOL    HW1 6724   9.787  10.502   2.040 -0.4350 -1.4504  0.2405
65598SOL    HW2 6725   9.855  10.382   1.977  1.4564  0.3331 -1.2461
65599SOL     OW 6726  12.634   2.791   5.050  0.0559  0.3182  0.3639
65599SOL    HW1 6727  12.692   2.745   5.110 -1.6355  0.0662  1.8835
65599SOL    HW2 6728  12.596   2.862   5.102 -0.1919  1.1363 -0.8917
65600SOL     OW 6729   1.722  12.459   2.758  0.1742 -0.0299  0.1689
65600SOL    HW1 6730   1.793  12.411   2.714  1.0982  0.8839  0.6314
65600SOL    HW2 6731   1.708  12.410   2.839  0.0213 -0.4245 -0.0917
65601SOL     OW 6732   3.043  12.446   2.119  0.3490 -0.2829  0.6120
65601SOL    HW1 6733   2.948  12.435   2.123  0.2197  0.9761  2.4564
65601SOL    HW2 6734   3.075  12.403   2.198  1.0997  0.8991  0.9753
65602SOL     OW 6735   6.894  10.779  13.005 -0.3123  0.3080  0.0515
65602SOL    HW1 6736   6.861  10.782  12.915  0.5483  1.3419 -0.2477
65602SOL    HW2 6737   6.905  10.870  13.030  1.2407  0.0364  0.5201
65603SOL     OW 6738  12.970   7.946   3.826 -0.7109 -0.1202  0.1585
65603SOL    HW1 6739  13.009   7.974   3.909 -3.0078  0.7858  1.0086
65603SOL    HW2 6740  12.972   7.850   3.829  2.3695 -0.1660 -0.3730
65604SOL     OW 6741   2.314   8.481   3.508 -0.2263  0.8004  0.5953
65604SOL    HW1 6742   2.397   8.459   3.550  0.1499 -0.2728 -0.6157
65604SOL    HW2 6743   2.339   8.527   3.428 -0.8007  0.6005  0.2943
65605SOL     OW 6744  11.211  13.175  10.277  0.6615 -0.4377  0.8150
65605SOL    HW1 6745  11.229  13.254  10.226 -0.6761 -0.2985  0.5028
65605SOL    HW2 6746  11.177  13.207  10.361  1.4129 -0.6799  1.2198
65606SOL     OW 6747   1.614   3.992  11.924  0.5863  0.3418 -0.2935
65606SOL    HW1 6748   1.579   3.903  11.918  2.2886 -0.4533  0.7404
65606SOL    HW2 6749   1.624   4.020  11.833  1.1405 -1.0054 -0.6750
65607SOL     OW 6750  10.061   0.087   3.334  0.5676  0.7223 -0.7191
65607SOL    HW1 6751  10.157   0.088   3.345  0.4572  1.1860  0.3242
65607SOL    HW2 6752  10.048   0.094   3.240  1.6032 -2.3970 -1.1904
65608SOL     OW 6753   6.001   8.578   4.799 -0.0327 -0.7976 -0.1706
65608SOL    HW1 6754   5.907   8.568   4.783 -0.4855  0.8584  1.2621
65608SOL    HW2 6755   6.024   8.660   4.755  0.3461 -0.2589  1.0113
65609SOL     OW 6756  10.302   1.113   2.851  0.7121  0.2239 -0.3009
65609SOL    HW1 6757  10.279   1.053   2.922 -0.1828 -0.3378 -1.0393
65609SOL    HW2 6758  10.397   1.104   2.841  0.3801 -2.8481 -1.8824
65610SOL     OW 6759   1.895   1.558  10.286 -0.0362  0.1799 -0.2608
65610SOL    HW1 6760   1.858   1.562  10.198 -0.5028 -0.8668 -0.1245
65610SOL    HW2 6761   1.891   1.466  10.310  2.5126  0.0097 -0.1756
65611SOL     OW 6762   7.190   8.090   2.123  0.1993 -0.3922  0.4440
65611SOL    HW1 6763   7.199   8.002   2.088 -0.9240  0.3027 -1.7575
65611SOL    HW2 6764   7.140   8.138   2.057  1.0970  2.0082  1.3773
65612SOL     OW 6765   3.289   4.239  11.857  0.0419  0.3750  0.7014
65612SOL    HW1 6766   3.287   4.263  11.765 -1.8940 -0.4399  0.4882
65612SOL    HW2 6767   3.377   4.263  11.886  1.1932 -0.6312 -1.6868
65613SOL     OW 6768   3.184  10.749   9.508  0.1970 -0.3464 -0.1202
65613SOL    HW1 6769   3.120  10.684   9.538  0.1240 -0.7070 -1.0257
65613SOL    HW2 6770   3.141  10.794   9.436  1.3116 -1.2869 -1.4235
65614SOL     OW 6771   6.068  12.646  13.176  0.4021 -0.3202 -0.0512
65614SOL    HW1 6772   6.028  12.665  13.091 -1.8051  2.8710  1.4798
65614SOL    HW2 6773   6.136  12.713  13.186  0.3201 -0.3659  0.8727
65615SOL     OW 6774   3.913  12.565  10.594  0.0698  0.2519 -0.1262
65615SOL    HW1 6775   3.945  12.536  10.680 -0.9712 -1.7311 -0.3581
65615SOL    HW2 6776   3.992  12.572  10.540  0.6134  0.4629  0.6720
65616SOL     OW 6777  10.773   2.569   7.826 -0.1984  0.5176  0.3472
65616SOL    HW1 6778  10.678   2.579   7.823 -0.3925 -1.1461 -0.0783
65616SOL    HW2 6779  10.797   2.546   7.736  0.3746 -0.7441  0.8086
65617SOL     OW 6780   8.211  12.796   2.358 -0.2154  0.1244 -0.0519
65617SOL    HW1 6781   8.302  12.784   2.330 -0.0374  1.0388  0.0946
65617SOL    HW2 6782   8.184  12.878   2.317 -1.7159 -1.2307 -1.9013
65618SOL     OW 6783   0.672   4.755  12.285 -0.0166 -0.1353 -0.1846
65618SOL    HW1 6784   0.616   4.677  12.291 -2.2894  1.1664 -2.2829
65618SOL    HW2 6785   0.630   4.818  12.344 -0.2688  0.5691 -1.0989
65619SOL     OW 6786  12.004  11.951  12.819  0.2740 -0.7658  0.2247
65619SOL    HW1 6787  12.081  11.893  12.815  0.8402 -0.0117 -0.1382
65619SOL    HW2 6788  12.000  11.980  12.910  2.1701  1.4364 -0.2891
65620SOL     OW 6789   9.463   8.080   5.424 -0.1964  0.6021 -0.0649
65620SOL    HW1 6790   9.373   8.052   5.441  0.1920 -0.1422  0.8910
65620SOL    HW2 6791   9.465   8.172   5.449 -0.9285  0.8760 -1.0179
65621SOL     OW 6792   0.863   9.894   4.551 -0.6762 -0.3223 -0.2256
65621SOL    HW1 6793   0.802   9.901   4.624 -1.2804 -1.1220 -0.6306
65621SOL    HW2 6794   0.875   9.799   4.540  2.9507 -0.2762  1.7355
65622SOL     OW 6795   1.898  12.899   1.918  0.8269  0.2046 -0.3735
65622SOL    HW1 6796   1.927  12.850   1.995  1.0643  0.4327 -0.3188
65622SOL    HW2 6797   1.954  12.976   1.916  1.1814 -0.0606 -1.0761
65623SOL     OW 6798  10.525   3.587  12.742 -0.2783 -0.1474 -0.2288
65623SOL    HW1 6799  10.478   3.628  12.815  0.0509  0.8150 -0.5418
65623SOL    HW2 6800  10.598   3.647  12.725 -0.8112  0.0750 -1.8838
65624SOL     OW 6801   0.071   2.934   5.731  0.7176  0.4064 -0.3721
65624SOL    HW1 6802   0.032   2.912   5.646  1.2988  0.2522 -0.6005
65624SOL    HW2 6803   0.103   2.850   5.764 -0.0779  0.3493  0.3001
65625SOL     OW 6804   2.068   5.283   7.597  0.0546  0.4267  0.7840
65625SOL    HW1 6805   2.092   5.357   7.653 -0.0822 -0.5857  2.2361
65625SOL    HW2 6806   2.025   5.221   7.656  0.0427 -0.7608 -0.4175
65626SOL     OW 6807   6.481   2.640   5.208  0.7431 -0.4760 -0.0796
65626SOL    HW1 6808   6.431   2.716   5.237 -1.3648 -1.6199 -0.4904
65626SOL    HW2 6809   6.526   2.669   5.130 -0.5511  0.2189 -0.5985
65627SOL     OW 6810   1.104   4.957  10.717 -0.4451  0.4016  0.3508
65627SOL    HW1 6811   1.106   4.932  10.624 -0.7769 -2.4911  1.0088
65627SOL    HW2 6812   1.191   4.992  10.735  0.1241 -0.3885 -0.7539
65628SOL     OW 6813   2.964   4.118   8.640 -0.9131  0.1350  0.5337
65628SOL    HW1 6814   2.983   4.061   8.566 -1.4547 -1.0530  1.2816
65628SOL    HW2 6815   3.051   4.139   8.676 -0.6237  1.0074 -0.6122
65629SOL     OW 6816   6.191  11.279   5.589 -0.3458 -0.3904 -0.3719
65629SOL    HW1 6817   6.247  11.271   5.666  1.2951  0.5898 -1.3893
65629SOL    HW2 6818   6.103  11.291   5.624  0.5309  1.4240  1.4237
65630SOL     OW 6819   3.512   8.063  12.066 -0.5001  0.4561  0.1007
65630SOL    HW1 6820   3.485   8.102  12.148 -0.7301 -1.3864  0.9477
65630SOL    HW2 6821   3.461   7.982  12.059 -0.6227  0.6433 -1.9475
65631SOL     OW 6822   5.196   8.423   1.418 -0.5079 -0.5421  0.0821
65631SOL    HW1 6823   5.166   8.349   1.471 -1.6447  0.3760  0.7726
65631SOL    HW2 6824   5.124   8.437   1.355 -0.7966  0.6304  0.6507
65632SOL     OW 6825  10.539   2.464  12.847 -0.2928  0.0010 -0.5442
65632SOL    HW1 6826  10.569   2.375  12.825  0.8204 -0.5840  2.7390
65632SOL    HW2 6827  10.619   2.516  12.851 -0.2228 -0.1408  2.3824
65633SOL     OW 6828  10.119   2.191   0.659 -0.3638  0.4925  0.2399
65633SOL    HW1 6829  10.049   2.246   0.624 -0.2752  0.7889  0.5225
65633SOL    HW2 6830  10.091   2.171   0.748 -0.1276  0.5482  0.3275
65634SOL     OW 6831   8.356  10.638   4.672 -0.2839 -0.6843 -0.7181
65634SOL    HW1 6832   8.312  10.564   4.631 -0.2565 -1.3306  0.3876
65634SOL    HW2 6833   8.449  10.617   4.665 -0.2738 -0.7185 -0.4631
65635SOL     OW 6834   2.182   7.733   8.408  0.1493  0.0431  0.2764
65635SOL    HW1 6835   2.176   7.769   8.497  0.3083  0.1324  0.2525
65635SOL    HW2 6836   2.276   7.729   8.391  0.1860  4.0066 -1.4921
65636SOL     OW 6837   4.451   8.653   3.205  0.3581 -0.5488  0.1044
65636SOL    HW1 6838   4.436   8.747   3.206  1.1334 -0.3749 -1.3750
65636SOL    HW2 6839   4.545   8.643   3.220  0.1951 -1.1279  0.8151
65637SOL     OW 6840  13.215   3.056  11.627  0.0629  0.0372  0.7413
65637SOL    HW1 6841  13.178   2.987  11.683 -1.0112 -0.6596 -0.7428
65637SOL    HW2 6842  13.157   3.058  11.551  1.5236  0.8675 -0.4017
65638SOL     OW 6843   0.518   1.328   8.533  0.0091 -0.0262  0.9818
65638SOL    HW1 6844   0.605   1.297   8.556 -0.1148  0.4735  2.1663
65638SOL    HW2 6845   0.535   1.405   8.478  0.3053 -1.6500 -1.3996
65639SOL     OW 6846   3.914   1.800   5.360  0.1446 -0.0740  0.2106
65639SOL    HW1 6847   3.904   1.872   5.421  1.4957  0.8846 -0.6343
65639SOL    HW2 6848   3.856   1.731   5.393  0.0301  0.8053  1.9237
65640SOL     OW 6849   6.948   3.461   2.174 -0.2210 -0.1069  0.0161
65640SOL    HW1 6850   6.901   3.493   2.097  2.0245  1.1886 -0.9217
65640SOL    HW2 6851   6.879   3.440   2.237 -2.0571  0.8145 -1.5711
65641SOL     OW 6852   8.116   8.014   5.284  0.2309  0.2545  0.4521
65641SOL    HW1 6853   8.143   7.984   5.197  0.4229  2.1806 -0.2051
65641SOL    HW2 6854   8.053   7.949   5.313 -0.5348  0.0228 -1.5335
65642SOL     OW 6855   2.392   6.050   1.493 -0.8560  0.0131 -0.1059
65642SOL    HW1 6856   2.299   6.053   1.471 -1.1173  1.3048  1.0556
65642SOL    HW2 6857   2.417   5.958   1.480 -2.3752 -0.4251 -0.0642
65643SOL     OW 6858   4.867   0.557  13.070 -0.2550  0.1976 -0.0731
65643SOL    HW1 6859   4.860   0.601  13.155 -1.2017 -1.3417  0.6915
65643SOL    HW2 6860   4.882   0.465  13.092  0.1914 -0.1198 -1.6021
65644SOL     OW 6861   2.559   8.248   5.008  0.5841 -0.3088  0.0986
65644SOL    HW1 6862   2.539   8.331   4.965  2.0348 -0.5231 -1.0893
65644SOL    HW2 6863   2.489   8.237   5.073 -0.0958  1.4190 -0.2770
65645SOL     OW 6864  10.417   4.483   2.249 -1.5804 -0.2135  0.3290
65645SOL    HW1 6865  10.396   4.501   2.157  1.0324  0.4391 -0.2239
65645SOL    HW2 6866  10.378   4.556   2.297  0.3145  1.6325 -0.7696
65646SOL     OW 6867  11.760   0.661   3.010  0.5508 -0.5073  0.5096
65646SOL    HW1 6868  11.742   0.598   3.079 -0.4023  0.7166  1.4327
65646SOL    HW2 6869  11.683   0.659   2.954  0.2456  0.2418  0.8864
65647SOL     OW 6870   8.233   5.799   1.014  0.4992 -0.0319 -0.4445
65647SOL    HW1 6871   8.316   5.791   1.063  1.0378 -0.8079 -1.4450
65647SOL    HW2 6872   8.193   5.879   1.048  1.5738  0.2567  0.2000
65648SOL     OW 6873  13.245   8.372  12.830  0.2332 -0.4722 -0.2077
65648SOL    HW1 6874  13.251   8.467  12.828 -1.1325 -0.3761 -0.0436
65648SOL    HW2 6875  13.172   8.350  12.772  1.2725 -1.5094 -1.1899
65649SOL     OW 6876   8.409   5.691  12.232  0.3273  0.0777 -0.0876
65649SOL    HW1 6877   8.341   5.751  12.263 -0.3230  0.0520 -1.3997
65649SOL    HW2 6878   8.385   5.606  12.268 -1.2731 -0.2573 -1.7928
65650SOL     OW 6879   5.055  10.767   2.028 -0.5863 -0.4319 -0.0326
65650SOL    HW1 6880   4.993  10.711   2.076 -2.2867  1.5627  0.2196
65650SOL    HW2 6881   5.001  10.812   1.963  0.5087  1.6210  0.3930
65651SOL     OW 6882  10.564   5.719   2.804  0.2418  0.4478 -0.0738
65651SOL    HW1 6883  10.636   5.782   2.815 -0.4339  1.1747  0.3153
65651SOL    HW2 6884  10.545   5.722   2.710  0.8914  0.0519 -0.2229
65652SOL     OW 6885   4.386   2.036   7.128  0.5532 -0.2497 -0.3226
65652SOL    HW1 6886   4.332   2.102   7.084 -0.0533 -0.0317  0.7203
65652SOL    HW2 6887   4.368   1.955   7.080 -0.5511 -0.1423 -0.1215
65653SOL     OW 6888   0.600   7.588   6.930 -0.2587  0.2039  0.3039
65653SOL    HW1 6889   0.612   7.510   6.984 -0.2873  0.7263  1.0755
65653SOL    HW2 6890   0.647   7.657   6.977 -0.2811  0.6668 -0.3456
65654SOL     OW 6891   6.435   0.982   1.742  0.3158  0.7634  0.0875
65654SOL    HW1 6892   6.481   1.064   1.725  0.4588  0.8774  1.0087
65654SOL    HW2 6893   6.396   0.959   1.657  2.3446  0.4696 -0.8208
65655SOL     OW 6894   4.687   1.112   5.790 -0.2472  0.0260  0.2900
65655SOL    HW1 6895   4.768   1.161   5.803  0.1246 -0.3157 -0.6505
65655SOL    HW2 6896   4.619   1.180   5.783  0.3278  0.4786 -1.5187
65656SOL     OW 6897   4.222   2.035   4.395 -0.0897 -0.1096  0.1381
65656SOL    HW1 6898   4.251   2.011   4.307  0.8960 -1.0155  0.6832
65656SOL    HW2 6899   4.302   2.034   4.447 -0.4877  1.4785  0.8348
65657SOL     OW 6900  10.352  12.261   1.184 -0.1904  0.6533 -0.0115
65657SOL    HW1 6901  10.382  12.352   1.193  0.1525  0.6423 -0.9748
65657SOL    HW2 6902  10.263  12.268   1.149 -0.5349  0.6320  0.8358
65658SOL     OW 6903  11.864  10.407   4.193 -0.0294 -0.9162  0.0433
65658SOL    HW1 6904  11.800  10.406   4.264  1.3834  0.3761  1.4096
65658SOL    HW2 6905  11.838  10.483   4.140 -0.5489 -1.3367 -0.3095
65659SOL     OW 6906   0.944  11.784   3.124 -0.1189 -0.2313  0.8935
65659SOL    HW1 6907   0.858  11.804   3.160 -1.4551 -0.9740 -1.6927
65659SOL    HW2 6908   0.962  11.694   3.152 -0.8744 -0.5970  0.2339
65660SOL     OW 6909   1.185   2.982   4.947 -0.3059  0.0452 -0.0932
65660SOL    HW1 6910   1.163   2.988   4.854 -1.5236 -2.4515 -0.0377
65660SOL    HW2 6911   1.110   3.019   4.992  0.5067  1.7520 -0.0316
65661SOL     OW 6912   1.808   2.322   7.446  0.1698  0.0275  0.6578
65661SOL    HW1 6913   1.775   2.251   7.391 -0.8872 -0.8605  2.3330
65661SOL    HW2 6914   1.822   2.281   7.532  1.7617  1.3410  1.0762
65662SOL     OW 6915   3.743   2.685   0.189  0.5250 -0.1184 -0.2602
65662SOL    HW1 6916   3.742   2.780   0.178 -1.3442 -0.0933 -0.1970
65662SOL    HW2 6917   3.652   2.658   0.175  0.7290 -1.7360  1.1539
65663SOL     OW 6918   3.746  11.217   3.193 -0.2163 -0.6536  0.0494
65663SOL    HW1 6919   3.694  11.158   3.139 -0.5533 -0.4438  0.1380
65663SOL    HW2 6920   3.758  11.169   3.275 -2.1942  0.1627  0.8826
65664SOL     OW 6921   6.451   3.877   9.988  0.2120  0.6083  0.2929
65664SOL    HW1 6922   6.410   3.793  10.008 -1.3382  1.3397  0.3382
65664SOL    HW2 6923   6.514   3.890  10.058  1.6974 -1.2738 -0.6228
65665SOL     OW 6924   6.686   5.270   8.508  0.0439 -0.7332  0.5005
65665SOL    HW1 6925   6.766   5.257   8.456 -0.1710 -1.8042  0.4041
65665SOL    HW2 6926   6.623   5.209   8.469 -0.5562 -0.5200  1.1219
65666SOL     OW 6927   0.255   5.168   0.502  0.3324  0.1386 -0.1904
65666SOL    HW1 6928   0.180   5.114   0.478 -0.2382  1.1266 -0.6937
65666SOL    HW2 6929   0.262   5.158   0.597 -0.4029 -0.0104 -0.1475
65667SOL     OW 6930   9.176   9.273  11.197 -0.9539  0.1087  0.4238
65667SOL    HW1 6931   9.212   9.188  11.170  0.8221 -0.0638  2.9496
65667SOL    HW2 6932   9.214   9.336  11.136 -1.7424 -0.7674 -1.0465
65668SOL     OW 6933   8.121   7.088   1.336  0.2155 -0.2586  0.4156
65668SOL    HW1 6934   8.164   7.173   1.347  1.3995 -0.8603  0.7028
65668SOL    HW2 6935   8.109   7.055   1.425  0.2120 -0.5920  0.2946
65669SOL     OW 6936   8.162   7.874   5.957  0.2568  0.1579 -0.4799
65669SOL    HW1 6937   8.224   7.802   5.947  0.2777 -0.3182  2.3229
65669SOL    HW2 6938   8.215   7.953   5.946  1.3115 -0.2578  1.2206
65670SOL     OW 6939   9.869   3.487   8.187 -0.0112 -0.3402 -0.2013
65670SOL    HW1 6940   9.783   3.498   8.226 -0.0366  0.1592 -0.3889
65670SOL    HW2 6941   9.908   3.575   8.189  0.8878 -0.7398  0.7924
65671SOL     OW 6942   4.426   6.599   5.311  0.0054  0.0520 -0.0770
65671SOL    HW1 6943   4.363   6.644   5.367  1.5078  0.0815  1.7012
65671SOL    HW2 6944   4.423   6.646   5.228 -0.8671  1.3012  0.6301
65672SOL     OW 6945   7.002   2.366   5.018  0.2220  0.3183 -0.0442
65672SOL    HW1 6946   6.916   2.369   5.062  1.2896  1.0023  2.1623
65672SOL    HW2 6947   7.016   2.455   4.987  0.9560  0.7401  1.4035
65673SOL     OW 6948   0.311   4.152   7.024  0.5087  0.0006 -0.0637
65673SOL    HW1 6949   0.384   4.187   7.075  0.5042  0.0119 -0.0646
65673SOL    HW2 6950   0.299   4.214   6.953  0.8945 -0.3249 -0.4141
65674SOL     OW 6951   7.130   0.665   7.493  0.1173 -0.3512 -0.1167
65674SOL    HW1 6952   7.187   0.690   7.420 -0.3121 -0.3349 -0.4492
65674SOL    HW2 6953   7.046   0.707   7.474 -0.5240 -1.7530 -0.5206
65675SOL     OW 6954   8.180   3.882   3.599 -0.5725 -0.1310  0.0791
65675SOL    HW1 6955   8.102   3.851   3.554 -0.5920 -1.8154  1.2115
65675SOL    HW2 6956   8.149   3.908   3.686 -0.0970  0.5152  0.0620
65676SOL     OW 6957  10.196   5.909   2.137  0.3209 -0.2019  0.4897
65676SOL    HW1 6958  10.240   5.883   2.219  1.2258 -1.7500 -0.4229
65676SOL    HW2 6959  10.104   5.915   2.160  0.4130 -1.7419  1.3972
65677SOL     OW 6960   7.419  10.069   2.502  0.1635 -0.1433 -0.1897
65677SOL    HW1 6961   7.365  10.074   2.422 -1.0675 -1.7387  0.4732
65677SOL    HW2 6962   7.486  10.136   2.490 -1.0045  0.8159 -1.8038
65678SOL     OW 6963   4.924   0.108   4.175  0.2984 -0.1651 -1.4479
65678SOL    HW1 6964   4.923   0.095   4.270 -0.2996 -0.3139 -1.4724
65678SOL    HW2 6965   4.834   0.131   4.152  0.0038 -1.9823 -2.2330
65679SOL     OW 6966  10.850   9.162   3.583  0.3728  0.1829  0.4218
65679SOL    HW1 6967  10.771   9.152   3.530 -0.4918  0.3999  1.6058
65679SOL    HW2 6968  10.829   9.235   3.643  1.3830  0.0959  0.9063
65680SOL     OW 6969   9.973  11.219   5.103 -0.1895 -0.2281  0.1042
65680SOL    HW1 6970   9.981  11.241   5.010 -1.1944  0.9282  0.2801
65680SOL    HW2 6971  10.055  11.174   5.124 -0.0959 -0.8315 -1.4189
65681SOL     OW 6972   2.837   6.040   0.277  0.0488  0.5123  0.1318
65681SOL    HW1 6973   2.759   6.041   0.333 -1.2060  0.6926 -1.5525
65681SOL    HW2 6974   2.845   5.949   0.247  2.2018 -0.1897  2.4901
65682SOL     OW 6975   2.451  10.228  12.427 -0.5916 -0.3846  0.3598
65682SOL    HW1 6976   2.535  10.231  12.380 -0.5079 -1.9040  0.3781
65682SOL    HW2 6977   2.464  10.164  12.496 -1.6306 -0.2779  0.6692
65683SOL     OW 6978   6.983  12.052   9.354  0.0721 -0.3056 -0.9445
65683SOL    HW1 6979   7.014  11.984   9.294  5.2713  0.4652  0.4193
65683SOL    HW2 6980   7.026  12.132   9.325  0.5092  0.6773  2.0685
65684SOL     OW 6981   8.545   2.417  12.447 -0.1555  0.2347 -0.5421
65684SOL    HW1 6982   8.505   2.332  12.467 -0.2052 -0.0116 -1.5976
65684SOL    HW2 6983   8.636   2.408  12.474 -0.4510  0.2912  0.5185
65685SOL     OW 6984  10.076  12.717  12.863 -0.0036 -0.0002 -0.1202
65685SOL    HW1 6985  10.167  12.718  12.834  0.2184  2.1872  0.4756
65685SOL    HW2 6986  10.076  12.769  12.943 -1.4693 -1.6163  0.9979
65686SOL     OW 6987   7.483   0.514   7.098  0.5026  0.3189  0.2422
65686SOL    HW1 6988   7.461   0.456   7.026 -1.2150  1.3749 -0.1217
65686SOL    HW2 6989   7.503   0.455   7.171 -1.4875 -0.7500 -0.0252
65687SOL     OW 6990  11.330   8.317   5.338  0.3618  0.5666  0.1324
65687SOL    HW1 6991  11.404   8.359   5.383  2.0212 -2.6192  0.6807
65687SOL    HW2 6992  11.337   8.348   5.248  0.1367  3.0465  0.8867
65688SOL     OW 6993   9.875   5.967   1.371  0.3172  0.1582  0.9599
65688SOL    HW1 6994   9.918   5.899   1.318  0.6979  0.8239  0.3976
65688SOL    HW2 6995   9.923   6.047   1.351 -0.7071  0.7780  0.9099
65689SOL     OW 6996   7.859   6.044   4.874 -0.2569 -0.5601 -0.4244
65689SOL    HW1 6997   7.918   6.010   4.806  0.6573  1.7603 -0.8785
65689SOL    HW2 6998   7.813   6.117   4.831  0.6531  1.2408  1.5064
65690SOL     OW 6999   9.997   5.456   2.591 -0.3703  1.0067  0.7678
65690SOL    HW1 7000   9.938   5.384   2.611 -0.2637  0.1143 -1.7347
65690SOL    HW2 7001   9.979   5.478   2.499  3.5789  0.1821 -0.4052
65691SOL     OW 7002   1.977   4.916  13.183  0.3371 -0.0887 -0.3286
65691SOL    HW1 7003   2.049   4.942  13.241 -0.8374 -0.6216  1.4330
65691SOL    HW2 7004   2.018   4.907  13.097  2.2567  0.1893  0.5079
65692SOL     OW 7005   8.281   2.298   0.800  0.3336  0.5149 -0.5920
65692SOL    HW1 7006   8.332   2.242   0.741 -0.5345 -0.4236 -0.4779
65692SOL    HW2 7007   8.191   2.291   0.768  0.1066  1.3094 -0.1505
65693SOL     OW 7008  10.522  10.807   6.003  0.2903 -0.1583  1.0990
65693SOL    HW1 7009  10.586  10.738   5.986  0.5894  0.6539 -1.3696
65693SOL    HW2 7010  10.571  10.888   5.992 -0.7405  0.4748  1.0628
65694SOL     OW 7011   5.355   1.780   7.110 -0.5886  0.6199  0.2539
65694SOL    HW1 7012   5.277   1.764   7.163  0.2075 -2.5224  0.7057
65694SOL    HW2 7013   5.424   1.730   7.154  0.3637 -1.3662 -3.0921
65695SOL     OW 7014   3.661   6.812  10.896  0.3517  0.3453  0.0859
65695SOL    HW1 7015   3.637   6.882  10.957  2.2846  0.9149  0.2574
65695SOL    HW2 7016   3.747   6.781  10.927  0.2375 -1.0620 -0.8919
65696SOL     OW 7017  13.110   1.817   3.773 -0.3795 -0.0775 -0.0498
65696SOL    HW1 7018  13.202   1.845   3.778 -0.0363 -1.3000  0.9778
65696SOL    HW2 7019  13.105   1.768   3.691  0.0874 -0.6484  0.2544
65697SOL     OW 7020  12.862  12.511  13.185 -0.4951 -0.5183  0.2104
65697SOL    HW1 7021  12.953  12.532  13.206 -0.3720  2.3186 -2.3905
65697SOL    HW2 7022  12.866  12.426  13.142  0.8732 -0.5963  0.4622
65698SOL     OW 7023   8.749   8.794   1.157 -0.1055  0.8992 -0.2132
65698SOL    HW1 7024   8.698   8.783   1.237 -0.0736  0.1629 -0.2935
65698SOL    HW2 7025   8.838   8.809   1.187  0.2796 -1.2771 -0.1112
65699SOL     OW 7026  11.334  11.596   4.751 -0.0218  0.9470 -0.8186
65699SOL    HW1 7027  11.248  11.585   4.711 -1.5408 -0.3856  2.4362
65699SOL    HW2 7028  11.392  11.538   4.702 -2.3550 -2.7190  0.4082
65700SOL     OW 7029   5.080   9.966   1.802 -0.5579 -0.1730  0.2512
65700SOL    HW1 7030   5.012   9.922   1.853  0.5232  0.9838  2.8909
65700SOL    HW2 7031   5.057  10.059   1.807 -0.0275  0.0290 -0.7999
65701SOL     OW 7032   5.925   5.957  13.071  0.0002  0.4852 -0.0647
65701SOL    HW1 7033   5.987   5.969  13.143  0.6433  0.1939 -0.5612
65701SOL    HW2 7034   5.870   5.883  13.098 -0.6958  1.2691  0.7491
65702SOL     OW 7035   9.913   0.459  11.337 -0.2746  0.1992 -0.2957
65702SOL    HW1 7036   9.946   0.543  11.370 -0.2080  0.2029 -0.3728
65702SOL    HW2 7037   9.965   0.393  11.384 -0.8734  0.1838  0.3621
65703SOL     OW 7038   7.268   5.869  12.913  0.4986 -0.1415 -0.2640
65703SOL    HW1 7039   7.346   5.923  12.897  0.4122  0.5734  1.4961
65703SOL    HW2 7040   7.271   5.849  13.007 -2.0589  0.9368  0.1381
65704SOL     OW 7041   2.389   2.818  10.301  0.7611 -1.1026 -0.5545
65704SOL    HW1 7042   2.365   2.811  10.393 -0.9163 -2.2264 -1.0308
65704SOL    HW2 7043   2.377   2.910  10.280 -0.9706 -1.1982 -0.1482
65705SOL     OW 7044   3.579   7.221   6.389  0.1943 -0.1191 -0.1471
65705SOL    HW1 7045   3.589   7.177   6.305  1.6241  1.0690 -0.6510
65705SOL    HW2 7046   3.644   7.292   6.387 -0.5646  0.6855  1.4686
65706SOL     OW 7047   8.623   1.293   1.396 -0.1193 -0.0437  0.0686
65706SOL    HW1 7048   8.648   1.271   1.486  0.5652 -2.4324 -0.6208
65706SOL    HW2 7049   8.703   1.281   1.345 -0.4423  1.5038 -0.8523
65707SOL     OW 7050   3.126   7.085  12.291  0.3389  0.5293  0.6600
65707SOL    HW1 7051   3.095   7.173  12.309 -1.0841  0.0372  0.7492
65707SOL    HW2 7052   3.175   7.093  12.209  0.7676  1.5063  0.9982
65708SOL     OW 7053   7.726   2.751   7.834 -0.2544  1.1260  0.2638
65708SOL    HW1 7054   7.739   2.690   7.907 -1.8345  0.9648  0.4566
65708SOL    HW2 7055   7.699   2.832   7.876 -0.9616  1.0960 -0.1252
65709SOL     OW 7056   0.717   8.736   4.323  0.0814 -0.2253 -0.0393
65709SOL    HW1 7057   0.635   8.773   4.359 -0.5897 -1.3360 -0.3792
65709SOL    HW2 7058   0.703   8.642   4.325  0.3988 -0.3775 -2.3354
65710SOL     OW 7059   8.084   4.353  13.081  0.0579  1.0290  0.0576
65710SOL    HW1 7060   8.013   4.407  13.046 -0.4724 -1.3226 -2.8450
65710SOL    HW2 7061   8.040   4.277  13.119  0.9075 -0.1314 -1.1725
65711SOL     OW 7062   4.208   0.706   4.422 -0.1473  0.0108  0.6914
65711SOL    HW1 7063   4.265   0.727   4.348 -1.2127  0.7557  0.0601
65711SOL    HW2 7064   4.129   0.758   4.408 -0.6659 -0.3761  1.9808
65712SOL     OW 7065   8.741   5.159   0.889 -0.4301  0.1498 -0.2421
65712SOL    HW1 7066   8.794   5.168   0.968 -0.5502 -0.5651 -0.0653
65712SOL    HW2 7067   8.802   5.127   0.823 -0.8714 -2.0199  0.3198
65713SOL     OW 7068   1.125  10.289   3.946 -0.4661 -0.2770  0.5998
65713SOL    HW1 7069   1.204  10.252   3.986 -0.2724 -0.8719 -0.3093
65713SOL    HW2 7070   1.099  10.225   3.880 -2.1402 -0.4391  1.3773
65714SOL     OW 7071   7.326   8.071   3.732 -0.2636  0.3459  0.4432
65714SOL    HW1 7072   7.395   8.035   3.788 -1.1338 -1.7601  0.2581
65714SOL    HW2 7073   7.357   8.056   3.643 -0.7335 -0.1561  0.3626
65715SOL     OW 7074  10.828   3.990   2.009  0.1083 -0.3519 -0.1614
65715SOL    HW1 7075  10.793   4.037   2.085  0.1949 -2.2883  1.1478
65715SOL    HW2 7076  10.756   3.992   1.946 -1.0794 -1.1679  1.1032
65716SOL     OW 7077  13.097   2.559   6.112  0.2412  0.3418  0.1720
65716SOL    HW1 7078  13.033   2.608   6.060 -1.1307 -1.4307  0.0823
65716SOL    HW2 7079  13.056   2.548   6.198  0.3817 -0.8149  0.1171
65717SOL     OW 7080   8.324   5.619  13.124 -0.8119  0.1979  0.3165
65717SOL    HW1 7081   8.293   5.529  13.110  0.8757 -0.6953  1.9390
65717SOL    HW2 7082   8.332   5.655  13.035  0.2837 -1.8876 -0.5106
65718SOL     OW 7083  12.928  10.580   6.863  0.2897  0.0958 -0.1147
65718SOL    HW1 7084  12.902  10.541   6.946 -2.4042  1.3241 -0.2718
65718SOL    HW2 7085  12.863  10.549   6.800  2.0906 -0.5720 -1.7690
65719SOL     OW 7086  11.297   6.073   8.467 -0.0666  0.2365 -0.0823
65719SOL    HW1 7087  11.224   6.060   8.407 -1.0717 -1.4453  1.4283
65719SOL    HW2 7088  11.257   6.095   8.551  1.2645  1.2538  0.3440
65720SOL     OW 7089   7.831   8.411   3.466  0.0007 -0.2946  0.5387
65720SOL    HW1 7090   7.768   8.340   3.456  1.9496 -1.9778 -0.7004
65720SOL    HW2 7091   7.885   8.385   3.541  2.0377 -1.3001 -1.1716
65721SOL     OW 7092   1.058   5.609   3.152 -0.8962  0.4521 -0.5399
65721SOL    HW1 7093   1.016   5.678   3.100  1.7907  1.4127 -1.6603
65721SOL    HW2 7094   1.075   5.650   3.237 -0.8566  0.6015 -0.6191
65722SOL     OW 7095   8.533  11.738  10.941  0.1267 -0.0449  0.1364
65722SOL    HW1 7096   8.521  11.644  10.956 -0.6725  0.0193 -0.0521
65722SOL    HW2 7097   8.616  11.744  10.894  0.7970 -0.5520  1.2083
65723SOL     OW 7098  12.752   2.403   0.309  0.2555  0.2386 -0.2881
65723SOL    HW1 7099  12.744   2.487   0.263  0.7864 -0.7191 -2.2286
65723SOL    HW2 7100  12.681   2.350   0.275 -1.6769  0.5995  2.7664
65724SOL     OW 7101   2.753   3.505   0.436 -0.3112  0.1432 -0.5008
65724SOL    HW1 7102   2.682   3.505   0.500 -0.4575 -0.1467 -0.6615
65724SOL    HW2 7103   2.782   3.596   0.433 -1.0945  0.3896 -0.8939
65725SOL     OW 7104   4.037  11.139   7.987 -0.7908  0.5004 -0.7143
65725SOL    HW1 7105   4.122  11.094   7.990 -0.8211  0.4122 -1.1325
65725SOL    HW2 7106   3.997  11.121   8.072 -0.9656 -0.5933 -1.0134
65726SOL     OW 7107   4.067   7.918   0.433  0.7010 -0.0330  0.1554
65726SOL    HW1 7108   4.106   7.995   0.392 -0.9928  0.6188 -0.3390
65726SOL    HW2 7109   4.137   7.880   0.486  1.1656  2.8453  1.8397
65727SOL     OW 7110  11.629   0.411   0.689  0.0900 -0.1149 -0.3038
65727SOL    HW1 7111  11.634   0.319   0.716  0.7157 -0.1669 -0.5591
65727SOL    HW2 7112  11.578   0.454   0.757  1.4125 -0.2936  0.8472
65728SOL     OW 7113   6.542   8.698   6.563  0.1742  0.3909 -0.1885
65728SOL    HW1 7114   6.562   8.726   6.474 -3.3013  0.1134 -1.1965
65728SOL    HW2 7115   6.486   8.768   6.598  0.3884 -0.1412  1.3185
65729SOL     OW 7116  12.436   4.661  11.458  0.0509  0.0603 -0.3311
65729SOL    HW1 7117  12.445   4.573  11.494  0.2845 -0.0485 -0.6468
65729SOL    HW2 7118  12.499   4.664  11.386 -0.0196  0.4555 -0.3801
65730SOL     OW 7119  10.495   5.476   1.923 -0.4172 -0.3053  0.1522
65730SOL    HW1 7120  10.534   5.556   1.889 -0.5267  0.0368  0.8310
65730SOL    HW2 7121  10.420   5.505   1.975  0.2286 -0.7664  1.3709
65731SOL     OW 7122   6.280   8.572   7.344 -0.5273 -0.4081  0.3378
65731SOL    HW1 7123   6.319   8.605   7.425 -0.9287 -0.2334  0.4657
65731SOL    HW2 7124   6.345   8.514   7.308  0.0604  0.2635  0.2926
65732SOL     OW 7125   0.579   4.930  10.474 -0.4094 -0.1571  0.0893
65732SOL    HW1 7126   0.518   4.981  10.528  1.9983  2.6811  0.3861
65732SOL    HW2 7127   0.635   4.885  10.538 -1.1133 -1.4807 -0.1784
65733SOL     OW 7128   9.790  13.285   3.558 -0.4602 -0.6255  0.5107
65733SOL    HW1 7129   9.718  13.345   3.578 -0.9408 -1.2590  0.7180
65733SOL    HW2 7130   9.859  13.308   3.620 -1.0237 -0.9493  1.2791
65734SOL     OW 7131  12.518   9.167  11.136 -0.0648 -0.0423  0.4296
65734SOL    HW1 7132  12.484   9.183  11.048 -2.5615 -1.0683  1.1436
65734SOL    HW2 7133  12.545   9.075  11.135 -0.9645 -0.3248  0.9645
65735SOL     OW 7134  10.976  12.898   2.374  0.0907  0.4094 -0.2607
65735SOL    HW1 7135  11.001  12.984   2.409 -0.9125  1.2850 -1.5889
65735SOL    HW2 7136  10.959  12.914   2.281 -1.1577 -0.9998 -0.3119
65736SOL     OW 7137   3.148   2.980  10.322  0.1927  0.0883 -0.6235
65736SOL    HW1 7138   3.084   2.909  10.310  0.0714  0.0807  0.0413
65736SOL    HW2 7139   3.209   2.946  10.388  1.4287 -0.2684 -1.9163
65737SOL     OW 7140   5.876   5.450  10.230  0.1444  0.2233 -0.0161
65737SOL    HW1 7141   5.861   5.411  10.316  2.1661  1.2309  0.8617
65737SOL    HW2 7142   5.960   5.416  10.202 -0.3363  0.1641 -1.4814
65738SOL     OW 7143   2.054   6.089   2.009 -0.2132  0.0898  0.1760
65738SOL    HW1 7144   1.988   6.158   2.010 -0.8246 -0.4956  1.1645
65738SOL    HW2 7145   2.070   6.068   2.101  1.1924  0.0562 -0.0401
65739SOL     OW 7146   6.204  12.349   8.442 -0.4697  0.8516  0.0967
65739SOL    HW1 7147   6.114  12.344   8.411 -1.3839 -2.8234  2.7355
65739SOL    HW2 7148   6.206  12.427   8.497 -2.1536  0.7695  0.3293
65740SOL     OW 7149   3.241   3.164   9.580  0.0211 -0.0941  0.1862
65740SOL    HW1 7150   3.266   3.174   9.672 -0.6884  0.0251  0.3746
65740SOL    HW2 7151   3.196   3.246   9.558 -2.2164 -1.1399  0.5479
65741SOL     OW 7152   3.825  11.933   6.625 -0.8412  0.1836 -0.1876
65741SOL    HW1 7153   3.820  11.957   6.718  0.3726 -0.2009 -0.0030
65741SOL    HW2 7154   3.734  11.915   6.600 -1.7911  4.0071 -0.1419
65742SOL     OW 7155  11.558   2.600   0.733 -0.6615 -0.0773  1.2263
65742SOL    HW1 7156  11.526   2.550   0.658  1.6168  1.0954 -0.6457
65742SOL    HW2 7157  11.650   2.617   0.714 -0.0635  0.6000  4.1568
65743SOL     OW 7158   2.192  13.181  12.320 -0.4320 -0.2037  0.0496
65743SOL    HW1 7159   2.150  13.109  12.367 -1.3667  1.0553  1.2398
65743SOL    HW2 7160   2.247  13.224  12.386 -0.3430  0.5195 -0.4775
65744SOL     OW 7161   7.288  12.326   8.744  0.5983  0.1135 -0.5998
65744SOL    HW1 7162   7.297  12.377   8.663  0.2971 -1.7354 -1.8600
65744SOL    HW2 7163   7.285  12.235   8.714 -2.9831 -0.5048  1.1925
65745SOL     OW 7164   8.260  11.589  10.242 -0.6231  0.0976 -0.1298
65745SOL    HW1 7165   8.327  11.567  10.177  0.4400 -0.1253  1.0064
65745SOL    HW2 7166   8.266  11.520  10.307 -2.0135  0.0476 -0.0222
65746SOL     OW 7167  10.588   8.523  10.329 -0.2891  0.6089  0.1337
65746SOL    HW1 7168  10.665   8.487  10.285 -0.4291  0.5814 -0.0941
65746SOL    HW2 7169  10.582   8.474  10.411 -0.7827 -0.2675 -0.4022
65747SOL     OW 7170   6.467  11.892   9.804 -0.0349  0.4198  0.1344
65747SOL    HW1 7171   6.383  11.864   9.840 -0.6036  0.7853 -0.8708
65747SOL    HW2 7172   6.450  11.907   9.712  1.2288  0.1630 -0.1662
65748SOL     OW 7173   6.617  12.298   5.691  0.7171 -0.6197  0.1178
65748SOL    HW1 7174   6.683  12.232   5.714  2.0974  1.1572  1.5945
65748SOL    HW2 7175   6.665  12.362   5.638  0.3573  0.9131  1.5633
65749SOL     OW 7176   0.927   5.694   2.576 -0.1451  0.2885 -0.0130
65749SOL    HW1 7177   0.991   5.635   2.614 -0.5897 -0.6365 -0.6783
65749SOL    HW2 7178   0.927   5.674   2.482 -1.6931 -0.0488  0.0230
65750SOL     OW 7179  10.650   3.891   2.758  0.6666 -0.0611  0.0363
65750SOL    HW1 7180  10.647   3.871   2.852  1.7958  2.0208  0.5860
65750SOL    HW2 7181  10.570   3.941   2.742  0.4117 -0.5244 -0.1497
65751SOL     OW 7182  12.974   5.569   3.523 -0.0036 -0.4676  0.3910
65751SOL    HW1 7183  13.006   5.480   3.535  0.3462 -0.2843  0.8854
65751SOL    HW2 7184  13.053   5.623   3.523  0.0326 -0.3763 -2.5066
65752SOL     OW 7185  13.188   6.255   3.003 -0.6433 -0.3433 -0.4100
65752SOL    HW1 7186  13.103   6.298   3.012 -0.4850 -0.0705 -0.2516
65752SOL    HW2 7187  13.233   6.304   2.934  0.6895  1.5804  1.7237
65753SOL     OW 7188   7.473   3.574   7.644  0.1597  0.5150 -0.0622
65753SOL    HW1 7189   7.485   3.653   7.696  0.1121  0.0064  0.7284
65753SOL    HW2 7190   7.427   3.513   7.702 -0.7023  0.2444 -0.9855
65754SOL     OW 7191   1.538   5.041   7.391  0.3144  0.2388  0.1005
65754SOL    HW1 7192   1.565   5.037   7.300  1.8820 -1.4823  0.5701
65754SOL    HW2 7193   1.475   4.970   7.401  0.3955  0.2113  0.4323
65755SOL     OW 7194   6.867  12.237   4.376 -0.2569  0.1166 -0.4784
65755SOL    HW1 7195   6.785  12.279   4.350 -0.0761 -0.4114 -2.0031
65755SOL    HW2 7196   6.846  12.144   4.381 -0.0004  0.0929  0.1704
65756SOL     OW 7197   4.705  11.677   9.303 -0.2245  0.4223 -0.3131
65756SOL    HW1 7198   4.631  11.618   9.285 -0.7179  1.0611 -0.3962
65756SOL    HW2 7199   4.757  11.630   9.368 -0.1507 -0.4892 -0.9940
65757SOL     OW 7200   3.729   7.001   8.310  0.9604 -0.4140 -0.1675
65757SOL    HW1 7201   3.706   6.911   8.331  0.9420 -0.5410 -0.7297
65757SOL    HW2 7202   3.712   7.010   8.216 -2.0254  1.0414  0.3761
65758SOL     OW 7203   3.538  13.041   6.533 -0.1497  0.0499  0.1813
65758SOL    HW1 7204   3.577  13.015   6.450 -1.2175 -1.2046  0.0404
65758SOL    HW2 7205   3.598  13.007   6.599  0.4511  0.6335 -0.0474
65759SOL     OW 7206   0.730  11.389  12.776  0.1554 -0.3369  0.6021
65759SOL    HW1 7207   0.760  11.335  12.848 -0.5782 -1.8706 -0.1834
65759SOL    HW2 7208   0.806  11.442  12.751  1.0159 -1.2879  1.1534
65760SOL     OW 7209  10.682   0.593  12.115 -0.1364  0.0496  0.0548
65760SOL    HW1 7210  10.608   0.651  12.096 -0.9671 -0.6264  1.1350
65760SOL    HW2 7211  10.697   0.602  12.209  0.1206 -1.0029  0.1292
65761SOL     OW 7212   8.239   7.566  10.118 -0.0156  0.0254  0.0252
65761SOL    HW1 7213   8.280   7.622  10.052 -0.1308 -0.2481 -0.2779
65761SOL    HW2 7214   8.295   7.575  10.195 -0.8419  1.7541  0.4813
65762SOL     OW 7215   1.107  10.722   1.073  0.0040 -0.3223 -0.4616
65762SOL    HW1 7216   1.057  10.646   1.106 -1.1030  0.5289 -0.1165
65762SOL    HW2 7217   1.099  10.787   1.142  2.3598 -0.4281 -0.0079
65763SOL     OW 7218   6.369   4.397   3.734 -0.7815 -0.3106  0.1643
65763SOL    HW1 7219   6.295   4.345   3.703 -0.5338 -1.7426  1.8734
65763SOL    HW2 7220   6.375   4.378   3.828 -0.9559  3.1532  1.0174
65764SOL     OW 7221  10.538  11.229  10.899  0.8470  0.2963  0.4432
65764SOL    HW1 7222  10.492  11.313  10.888 -0.6298 -0.4027  1.1013
65764SOL    HW2 7223  10.518  11.180  10.819  0.5317  0.0192  0.6943
65765SOL     OW 7224   6.598   7.058  10.968  0.6612  0.4088  0.1814
65765SOL    HW1 7225   6.545   7.137  10.978  0.6150  0.4682 -0.4596
65765SOL    HW2 7226   6.540   6.997  10.923  0.9346  0.2570  0.0344
65766SOL     OW 7227   3.754   0.601   4.002 -0.7966  0.2427 -0.1726
65766SOL    HW1 7228   3.809   0.678   4.015 -1.4932  0.7999 -0.5190
65766SOL    HW2 7229   3.807   0.544   3.946 -1.0555  1.3339 -1.5963
65767SOL     OW 7230  10.793   1.433   9.904 -0.5010 -0.4015 -0.0954
65767SOL    HW1 7231  10.873   1.430   9.851  0.8129 -0.9086  1.8016
65767SOL    HW2 7232  10.784   1.525   9.928  0.4030 -0.5563  0.9107
65768SOL     OW 7233   0.391   4.839   9.209  0.0713 -0.5334 -0.0262
65768SOL    HW1 7234   0.422   4.890   9.134  0.6653 -0.8451  0.0023
65768SOL    HW2 7235   0.348   4.903   9.265  1.0476 -0.0078  0.1414
65769SOL     OW 7236   0.129   9.779   7.510  0.4325 -0.6057 -0.5962
65769SOL    HW1 7237   0.175   9.703   7.544  1.4219  0.4809  0.6391
65769SOL    HW2 7238   0.181   9.854   7.540 -0.3436  0.5575 -1.9879
65770SOL     OW 7239   2.578   1.939  11.098 -0.5254  0.6824  0.0651
65770SOL    HW1 7240   2.507   1.887  11.060  0.6467 -0.6976 -0.3069
65770SOL    HW2 7241   2.655   1.917  11.046  0.4787  1.1078  1.3233
65771SOL     OW 7242  10.739   2.166   5.388 -0.1216  0.4054 -0.1580
65771SOL    HW1 7243  10.795   2.237   5.357 -0.2188  0.0717 -1.1495
65771SOL    HW2 7244  10.674   2.155   5.319 -1.4167  0.7612  0.9634
65772SOL     OW 7245   9.368  12.450   3.737  0.2417  0.0796  0.6751
65772SOL    HW1 7246   9.314  12.478   3.811 -1.2112  0.8342 -0.6173
65772SOL    HW2 7247   9.356  12.355   3.734 -1.5314  0.2707  0.1058
65773SOL     OW 7248  12.960  12.461  11.368  0.0479  0.5290  0.4192
65773SOL    HW1 7249  12.994  12.545  11.337 -0.7826  0.6118 -0.3110
65773SOL    HW2 7250  12.928  12.418  11.289  0.9179 -0.6949  0.7115
65774SOL     OW 7251   0.114   9.642   3.412 -0.2219 -0.0778 -0.4028
65774SOL    HW1 7252   0.185   9.692   3.453 -0.9752  1.1111 -0.5368
65774SOL    HW2 7253   0.050   9.629   3.482 -0.4329 -0.0961 -0.5986
65775SOL     OW 7254   3.834   6.001  10.382 -0.6786 -0.6574 -0.6741
65775SOL    HW1 7255   3.911   5.972  10.431 -0.4148 -0.0492 -0.7262
65775SOL    HW2 7256   3.866   6.016  10.293 -0.6851  0.3642 -0.5089
65776SOL     OW 7257  12.409  12.542   2.247  0.5571 -0.7291 -0.1191
65776SOL    HW1 7258  12.466  12.615   2.223  1.1944 -1.0913  0.2595
65776SOL    HW2 7259  12.441  12.514   2.333 -2.4633  1.3689  1.9044
65777SOL     OW 7260  12.011   9.684  11.396 -0.0058  0.0572 -0.2844
65777SOL    HW1 7261  11.925   9.643  11.386 -1.0004  1.7717  0.6866
65777SOL    HW2 7262  11.996   9.757  11.455  2.5207 -0.6991  1.4652
65778SOL     OW 7263  12.195   5.852   0.992 -0.0181  0.0423 -0.4149
65778SOL    HW1 7264  12.203   5.769   1.038  1.6534  1.2369  1.6536
65778SOL    HW2 7265  12.285   5.883   0.982 -0.5776  1.4173 -1.4743
65779SOL     OW 7266   3.991  13.095   9.626 -0.4157  0.0308 -0.1399
65779SOL    HW1 7267   4.040  13.016   9.648 -2.0749 -1.4051 -1.3760
65779SOL    HW2 7268   4.023  13.120   9.539 -0.7192  0.0302 -0.2535
65780SOL     OW 7269   2.715   1.399   6.111  0.2100 -0.0614 -0.6061
65780SOL    HW1 7270   2.708   1.352   6.194 -0.5926  1.4083  0.1967
65780SOL    HW2 7271   2.642   1.366   6.058  0.2507 -0.4302 -0.4355
65781SOL     OW 7272   4.755   5.341  12.166  0.8120  0.3542 -0.8997
65781SOL    HW1 7273   4.827   5.285  12.195  0.6452  0.3884 -0.4118
65781SOL    HW2 7274   4.780   5.429  12.193  0.6101  0.3729 -0.7681
65782SOL     OW 7275   4.902   8.177   8.945 -0.0617  0.2588 -0.1030
65782SOL    HW1 7276   4.972   8.158   8.883 -0.4495  1.7285 -1.0245
65782SOL    HW2 7277   4.887   8.093   8.989 -0.9773 -1.3959 -3.2238
65783SOL     OW 7278  11.999   8.623   5.315 -0.1532  0.2806 -0.1087
65783SOL    HW1 7279  11.982   8.668   5.232  0.6242  1.0405  0.1424
65783SOL    HW2 7280  12.088   8.646   5.338 -0.8136  1.2367  1.6622
65784SOL     OW 7281   3.315   3.647   3.172 -0.0076 -0.0717 -0.1868
65784SOL    HW1 7282   3.219   3.645   3.176 -0.0408 -1.4281 -1.0250
65784SOL    HW2 7283   3.341   3.571   3.224  0.6284  0.2399 -0.0457
65785SOL     OW 7284   8.992  10.947   4.786  0.2942  0.6002  0.1979
65785SOL    HW1 7285   8.988  10.886   4.859 -2.3097  1.6789  1.0696
65785SOL    HW2 7286   8.942  10.903   4.716  1.5493  0.1983 -0.4786
65786SOL     OW 7287   0.953   1.145   0.036  0.2038  0.0557  0.2399
65786SOL    HW1 7288   0.958   1.127  -0.058 -0.1170  0.9723  0.0368
65786SOL    HW2 7289   0.859   1.156   0.053  0.4038  2.1769  0.1983
65787SOL     OW 7290   3.045  10.458  10.295  0.0672 -0.3433 -0.6107
65787SOL    HW1 7291   3.115  10.496  10.241  0.9359  0.8010  1.2306
65787SOL    HW2 7292   2.966  10.468  10.241  1.1970 -1.2987 -2.5772
65788SOL     OW 7293   5.928  12.145   8.962  0.6781 -0.1534 -0.3132
65788SOL    HW1 7294   5.938  12.170   8.871  3.9955  2.5176  0.5890
65788SOL    HW2 7295   6.014  12.113   8.988 -0.2402 -1.0695  1.8678
65789SOL     OW 7296   6.807   6.484   4.145 -0.3860  0.0028  0.8047
65789SOL    HW1 7297   6.867   6.476   4.219  0.2919  0.8996  0.3778
65789SOL    HW2 7298   6.812   6.576   4.121  0.9082 -0.6236 -1.5816
65790SOL     OW 7299   6.936  10.335  12.372 -0.1326 -0.1008 -0.0975
65790SOL    HW1 7300   6.951  10.281  12.450  1.4549  0.2526 -0.1262
65790SOL    HW2 7301   6.873  10.401  12.399  0.1710 -0.1747  0.8017
65791SOL     OW 7302   3.880   4.601   7.598 -0.3306  0.6484  0.1922
65791SOL    HW1 7303   3.811   4.567   7.541 -1.0966  2.2653  0.0733
65791SOL    HW2 7304   3.834   4.631   7.676  0.6394 -1.0237  1.4625
65792SOL     OW 7305   2.711   8.736  11.806 -0.0622  0.2813  0.2294
65792SOL    HW1 7306   2.624   8.714  11.840 -0.3783 -0.2127 -0.8348
65792SOL    HW2 7307   2.718   8.685  11.725 -0.1367  2.7496 -1.4805
65793SOL     OW 7308   3.814   2.896  11.936  0.2062  0.2664  0.4487
65793SOL    HW1 7309   3.720   2.908  11.921  0.3540  1.8954  0.6004
65793SOL    HW2 7310   3.851   2.886  11.848  0.0274  0.8708  0.2992
65794SOL     OW 7311   7.490   6.157   3.711 -0.1129 -0.5938 -0.7970
65794SOL    HW1 7312   7.436   6.145   3.789 -0.2353  2.2079 -0.3631
65794SOL    HW2 7313   7.456   6.093   3.648 -1.0575 -1.8270  0.8909
65795SOL     OW 7314  11.037   7.318   0.507  0.0043  0.8345  0.0446
65795SOL    HW1 7315  11.015   7.353   0.593 -1.2248 -1.8254  0.9090
65795SOL    HW2 7316  10.957   7.330   0.455 -0.4853 -0.6913  0.3959
65796SOL     OW 7317   4.660   3.792   9.955 -0.7695 -0.1880  0.2069
65796SOL    HW1 7318   4.619   3.769   9.871 -1.3797 -0.7442  0.6418
65796SOL    HW2 7319   4.646   3.714  10.010  2.4120 -1.1641 -0.1405
65797SOL     OW 7320   0.995  12.955  10.438 -0.3390  0.6872 -0.1768
65797SOL    HW1 7321   1.059  12.927  10.503  0.7148  0.5969 -1.2064
65797SOL    HW2 7322   0.926  12.998  10.489 -0.5602 -1.1318  1.1599
65798SOL     OW 7323   0.402   2.990  10.594  0.4057  0.1062  0.1372
65798SOL    HW1 7324   0.413   3.034  10.678 -0.7344 -1.9469  1.4665
65798SOL    HW2 7325   0.332   3.040  10.550 -0.1758  0.2326  1.1651
65799SOL     OW 7326   8.613   7.602   1.959  0.0979 -0.6718  0.2423
65799SOL    HW1 7327   8.550   7.583   2.028 -0.8845  0.5693 -0.2702
65799SOL    HW2 7328   8.694   7.624   2.005 -0.2623 -0.8390  0.9651
65800SOL     OW 7329   1.383   3.691  12.888 -0.6927 -0.1715  0.2927
65800SOL    HW1 7330   1.410   3.630  12.956  2.6314  0.5217 -0.2558
65800SOL    HW2 7331   1.353   3.635  12.817 -0.4928 -1.0543  0.8804
65801SOL     OW 7332   5.955  13.197   5.669  0.1765 -0.4058 -0.3473
65801SOL    HW1 7333   5.901  13.133   5.716  0.0074  1.3138  1.9727
65801SOL    HW2 7334   6.035  13.149   5.647 -0.0574 -1.4887  1.0352
65802SOL     OW 7335   3.272   3.142   2.122 -0.1675  0.4094 -0.0610
65802SOL    HW1 7336   3.360   3.108   2.105 -0.1659 -0.5426  1.6161
65802SOL    HW2 7337   3.223   3.123   2.042  1.0889  0.7526 -0.9360
65803SOL     OW 7338   4.383   6.017   0.998 -0.4551 -0.1128 -0.1510
65803SOL    HW1 7339   4.340   6.062   1.072  0.2035  0.5218 -0.1426
65803SOL    HW2 7340   4.388   5.926   1.025  1.1655  0.3618  1.2662
65804SOL     OW 7341   3.164   1.393   6.541 -0.0636 -0.4782 -0.4610
65804SOL    HW1 7342   3.207   1.402   6.456 -0.8373  0.4439 -0.7774
65804SOL    HW2 7343   3.085   1.446   6.533 -1.1521 -1.9443  0.1735
65805SOL     OW 7344   7.873   9.631   5.436 -0.0609  0.3858  0.1768
65805SOL    HW1 7345   7.854   9.627   5.343 -0.7399 -2.5229  0.3530
65805SOL    HW2 7346   7.790   9.655   5.477  0.3642  2.1956  0.0509
65806SOL     OW 7347   3.958   7.398   5.240  0.7467 -0.7421  0.3990
65806SOL    HW1 7348   3.891   7.461   5.266  0.8234 -0.9641  1.1375
65806SOL    HW2 7349   4.001   7.440   5.165 -0.5352 -0.8179 -0.4218
65807SOL     OW 7350   9.745   1.373   6.647 -0.0051 -0.3528  0.1325
65807SOL    HW1 7351   9.776   1.282   6.648  1.6069  0.1561  1.2622
65807SOL    HW2 7352   9.825   1.425   6.636 -0.8509  0.9508 -0.0284
65808SOL     OW 7353   2.318  10.516  11.701 -0.1432 -0.1896  0.3329
65808SOL    HW1 7354   2.397  10.543  11.655 -0.8214  1.7149  0.1680
65808SOL    HW2 7355   2.316  10.571  11.779 -0.3179 -1.5935  1.3611
65809SOL     OW 7356   0.259   9.317   0.706 -0.1236 -0.1312  0.1191
65809SOL    HW1 7357   0.275   9.411   0.699  0.0877 -0.2995 -2.5116
65809SOL    HW2 7358   0.347   9.278   0.703 -0.3194 -0.5046 -1.8076
65810SOL     OW 7359   2.045   8.511   5.615 -0.1099  0.7157  0.0092
65810SOL    HW1 7360   2.082   8.492   5.702  2.4263  1.2059 -0.8742
65810SOL    HW2 7361   1.950   8.504   5.627  0.2411 -1.2635  2.3274
65811SOL     OW 7362   4.011   0.236  10.227  0.0009 -0.3131 -0.4432
65811SOL    HW1 7363   3.928   0.190  10.239  0.1684 -0.8043 -1.0733
65811SOL    HW2 7364   3.987   0.329  10.224 -0.7035 -0.5119 -1.9327
65812SOL     OW 7365   5.755   6.738   0.052  0.3219  0.2944  0.0372
65812SOL    HW1 7366   5.757   6.798   0.127 -0.1368 -0.0464  0.3267
65812SOL    HW2 7367   5.662   6.733   0.029  0.6110  1.7416 -1.6557
65813SOL     OW 7368   9.748  10.691   1.072 -0.6573 -0.1407  0.1199
65813SOL    HW1 7369   9.749  10.732   1.159  1.2726  1.7090 -0.6766
65813SOL    HW2 7370   9.724  10.762   1.012 -0.8766 -1.1070 -0.9728
65814SOL     OW 7371  11.525   5.899   7.086  0.1466 -0.0129  0.2070
65814SOL    HW1 7372  11.477   5.942   7.157 -0.4134  0.9461 -0.7250
65814SOL    HW2 7373  11.513   5.806   7.103 -0.0297  0.1900  1.3260
65815SOL     OW 7374  12.348   0.404  12.104  0.9451  0.3631  0.0571
65815SOL    HW1 7375  12.387   0.334  12.157  1.6699  0.0451 -0.8719
65815SOL    HW2 7376  12.377   0.485  12.146  0.5423  0.1235  0.8234
65816SOL     OW 7377   6.949  12.393   8.417  0.3813 -0.5675 -0.1455
65816SOL    HW1 7378   6.907  12.316   8.453 -0.8225  0.7584  1.4367
65816SOL    HW2 7379   7.041  12.368   8.407  0.2783 -1.7988  1.5242
65817SOL     OW 7380  11.489  10.156   3.586  0.0238 -0.4594 -0.0201
65817SOL    HW1 7381  11.495  10.114   3.500  0.0599 -1.6588  0.5447
65817SOL    HW2 7382  11.402  10.196   3.587 -0.2435 -1.0098 -0.3776
65818SOL     OW 7383  11.036   1.249   9.641  0.0659 -0.2020 -0.2897
65818SOL    HW1 7384  10.978   1.207   9.577  1.3087 -1.4738 -0.6444
65818SOL    HW2 7385  11.039   1.186   9.714  1.2122 -0.3038 -0.4097
65819SOL     OW 7386  12.901   7.171   1.243 -0.5008 -0.3695  0.1939
65819SOL    HW1 7387  12.974   7.233   1.252 -0.9775  0.1234  0.8283
65819SOL    HW2 7388  12.924   7.098   1.300 -0.7249  0.0177  0.7936
65820SOL     OW 7389   3.465   9.483  12.631  0.5741 -0.7776 -0.1360
65820SOL    HW1 7390   3.418   9.437  12.561 -1.9580  0.9232  0.3031
65820SOL    HW2 7391   3.417   9.461  12.711 -1.1464  2.8407  0.0391
65821SOL     OW 7392   1.528   8.616   4.028 -0.1727 -0.0079 -0.0772
65821SOL    HW1 7393   1.438   8.646   4.014 -0.3782 -1.3570 -2.1047
65821SOL    HW2 7394   1.530   8.528   3.990  1.9355 -0.1211  0.1847
65822SOL     OW 7395   4.470   4.961   0.227  0.3713  0.3474  0.1144
65822SOL    HW1 7396   4.439   5.052   0.230  0.8323  0.4880  0.9032
65822SOL    HW2 7397   4.390   4.909   0.238  0.3665  0.7086  2.2277
65823SOL     OW 7398   5.034   9.626   7.708  0.0910 -0.0926  0.1215
65823SOL    HW1 7399   5.100   9.607   7.775  0.4993  1.3370  0.1647
65823SOL    HW2 7400   4.993   9.707   7.737 -0.4346  0.0060 -0.8435
65824SOL     OW 7401   8.801   5.068   0.307 -0.1774  0.0700  0.4617
65824SOL    HW1 7402   8.831   4.985   0.271 -1.4699 -0.5469  0.7559
65824SOL    HW2 7403   8.804   5.129   0.234 -2.3014 -1.0380 -0.6429
65825SOL     OW 7404   6.154   8.104  13.149 -0.4835 -0.5499 -0.1755
65825SOL    HW1 7405   6.187   8.128  13.235 -0.6038  1.1898 -0.5722
65825SOL    HW2 7406   6.218   8.142  13.088 -0.6827 -1.2958 -0.8588
65826SOL     OW 7407   3.340  12.161   3.401 -0.5556  0.0791 -0.4791
65826SOL    HW1 7408   3.347  12.184   3.308  0.0609 -0.1710 -0.5005
65826SOL    HW2 7409   3.370  12.070   3.405  0.9456  0.5738  0.1887
65827SOL     OW 7410   6.963   7.979  12.499 -0.1342 -0.0246  0.3807
65827SOL    HW1 7411   6.899   8.001  12.566 -0.3841 -0.5271  0.3200
65827SOL    HW2 7412   6.983   8.061  12.455 -1.2323  0.0380 -0.0187
65828SOL     OW 7413   6.278  10.034   6.941 -0.3120 -0.2747 -0.1115
65828SOL    HW1 7414   6.250   9.945   6.920 -1.0209 -0.2751  0.7176
65828SOL    HW2 7415   6.196  10.085   6.943  0.0753  0.3824 -0.5117
65829SOL     OW 7416   5.077   6.088   0.988  0.0721 -0.1003  0.1223
65829SOL    HW1 7417   5.042   6.067   1.075 -0.4601  0.9638  0.1836
65829SOL    HW2 7418   5.046   6.017   0.932 -1.8688  0.5560  0.2705
65830SOL     OW 7419   6.384   9.487   5.560  0.0892  0.3713  0.1144
65830SOL    HW1 7420   6.408   9.579   5.547  0.8135  0.0229 -1.1911
65830SOL    HW2 7421   6.418   9.442   5.483 -1.0373 -0.8597  0.2967
65831SOL     OW 7422   6.429  10.199  12.869  0.0620  0.2374 -0.0421
65831SOL    HW1 7423   6.385  10.284  12.871 -0.2189  0.1758 -1.9741
65831SOL    HW2 7424   6.515  10.216  12.907  0.3711  1.6259 -1.2940
65832SOL     OW 7425   0.622  12.907   4.902 -0.2086  0.8325  0.5463
65832SOL    HW1 7426   0.655  12.841   4.841 -0.5723  0.5227  0.6859
65832SOL    HW2 7427   0.688  12.911   4.971  0.5244  1.6353 -0.1738
65833SOL     OW 7428   9.865   6.917   0.481  0.4705 -0.1104  0.3417
65833SOL    HW1 7429   9.924   6.992   0.492  1.4671 -0.7278 -0.6301
65833SOL    HW2 7430   9.911   6.844   0.522  0.6326 -0.7034 -0.8499
65834SOL     OW 7431  10.525   6.259   3.766 -0.0203 -0.3787 -0.4659
65834SOL    HW1 7432  10.537   6.184   3.707 -1.3736  1.0578 -2.7458
65834SOL    HW2 7433  10.469   6.226   3.836  0.8153 -1.8943 -0.4625
65835SOL     OW 7434  11.376   9.635   4.358 -0.1994  0.0865 -0.0923
65835SOL    HW1 7435  11.321   9.684   4.297  0.3297 -0.3647 -0.9733
65835SOL    HW2 7436  11.316   9.603   4.425 -0.8929  0.1969 -0.6444
65836SOL     OW 7437   3.688   7.807   9.689 -0.0789 -0.3279  0.1701
65836SOL    HW1 7438   3.680   7.756   9.770  0.1985  0.2596  0.5714
65836SOL    HW2 7439   3.760   7.867   9.705 -0.8719  0.7064 -0.0142
65837SOL     OW 7440   7.781   4.508  11.833  0.1478 -0.1508  0.0681
65837SOL    HW1 7441   7.812   4.429  11.789  0.0505  1.1233 -2.4492
65837SOL    HW2 7442   7.843   4.521  11.905 -0.1218 -2.7195  0.8810
65838SOL     OW 7443  10.082   2.149   1.467 -0.1882  0.4066  0.0199
65838SOL    HW1 7444  10.154   2.177   1.524  1.5855  1.0120 -2.3586
65838SOL    HW2 7445  10.047   2.071   1.510  0.6013  1.1877  2.2463
65839SOL     OW 7446  10.835   6.233   1.121  0.3499  0.0882 -0.3668
65839SOL    HW1 7447  10.798   6.208   1.206  2.1846  1.7609  1.0313
65839SOL    HW2 7448  10.788   6.313   1.097  1.7450  1.2355  0.5559
65840SOL     OW 7449  12.309   3.369   9.685 -0.1663 -0.0638  0.2466
65840SOL    HW1 7450  12.345   3.314   9.755 -1.1803 -2.0503 -0.6937
65840SOL    HW2 7451  12.320   3.316   9.606 -2.3057  0.5559 -0.5291
65841SOL     OW 7452   4.531   9.803   1.967 -0.3483  0.0322  0.2671
65841SOL    HW1 7453   4.485   9.848   1.896 -0.7780 -1.2600 -0.2978
65841SOL    HW2 7454   4.609   9.767   1.925 -0.3380 -0.2948  0.5648
65842SOL     OW 7455   1.164   9.560   0.557 -0.3853 -0.3058 -0.5091
65842SOL    HW1 7456   1.189   9.489   0.497  0.1446  0.5185 -1.2750
65842SOL    HW2 7457   1.080   9.590   0.525 -2.3821 -2.8109  1.8361
65843SOL     OW 7458   4.614   7.625  11.160  0.4372 -0.1579 -0.3001
65843SOL    HW1 7459   4.635   7.551  11.104  1.4738 -0.1104  0.0109
65843SOL    HW2 7460   4.519   7.622  11.169  0.6028 -3.6374  2.6464
65844SOL     OW 7461   7.172   2.985  11.059  0.1528  0.1075 -0.1869
65844SOL    HW1 7462   7.079   2.972  11.075  0.3356 -0.7767  0.2277
65844SOL    HW2 7463   7.177   3.067  11.011 -0.6633  1.3168  1.6843
65845SOL     OW 7464   5.958   5.113   9.357 -0.2496 -0.2381  0.9124
65845SOL    HW1 7465   5.939   5.026   9.322 -1.3837  0.1284  0.5979
65845SOL    HW2 7466   6.014   5.095   9.433  1.4033 -1.0916 -0.4420
65846SOL     OW 7467   6.116   1.939   8.097  0.1204  0.5197 -0.1541
65846SOL    HW1 7468   6.162   1.881   8.036  1.6973  1.2986  0.2555
65846SOL    HW2 7469   6.133   1.901   8.183 -0.5665  0.4607 -0.0366
65847SOL     OW 7470   9.667   6.048  10.563  0.2919  0.0797  0.0257
65847SOL    HW1 7471   9.625   5.982  10.618  0.0930  0.5928  0.4999
65847SOL    HW2 7472   9.616   6.048  10.482 -0.5225  0.5635  0.5238
65848SOL     OW 7473  11.858   8.474   8.259  1.5298 -0.4466  0.0554
65848SOL    HW1 7474  11.874   8.454   8.167 -2.3141  1.1720 -1.2078
65848SOL    HW2 7475  11.860   8.570   8.264 -0.2988 -0.3941  1.0747
65849SOL     OW 7476   9.646   6.802   9.822  0.2010 -0.6643 -0.0895
65849SOL    HW1 7477   9.561   6.818   9.781  1.0550  0.2531 -1.5874
65849SOL    HW2 7478   9.675   6.888   9.852 -0.0365 -1.1971  1.7860
65850SOL     OW 7479  13.016   1.322   1.324  0.0886  0.4269 -0.0285
65850SOL    HW1 7480  13.057   1.240   1.298  1.2925 -0.4162  3.8496
65850SOL    HW2 7481  12.945   1.297   1.383 -1.1018  2.1202 -0.6662
65851SOL     OW 7482   3.546  10.838   9.023  0.1980  0.6104 -0.4554
65851SOL    HW1 7483   3.553  10.742   9.032 -0.7233  0.6420  0.8745
65851SOL    HW2 7484   3.506  10.866   9.105  0.1828  2.1220 -0.9657
65852SOL     OW 7485   5.614   6.428   1.053  0.6968 -0.4679  0.2341
65852SOL    HW1 7486   5.567   6.490   0.998  0.8907  1.5912  2.2335
65852SOL    HW2 7487   5.548   6.364   1.080  0.5889 -1.5297 -2.2231
65853SOL     OW 7488  11.019   3.667  10.824 -0.4934  0.3239  0.1673
65853SOL    HW1 7489  11.041   3.644  10.914 -0.2988 -2.3160 -0.4839
65853SOL    HW2 7490  11.099   3.708  10.790  0.0703 -0.3327  0.6699
65854SOL     OW 7491  11.588  13.045   1.941  0.4863  0.0551 -0.2385
65854SOL    HW1 7492  11.574  13.128   1.896 -1.1482 -0.6470 -1.1120
65854SOL    HW2 7493  11.628  13.069   2.025 -1.3433  1.8680  0.1866
65855SOL     OW 7494   9.489   7.820   4.185 -0.0522  0.6856 -0.0061
65855SOL    HW1 7495   9.579   7.810   4.153 -0.2793 -1.7458 -0.0844
65855SOL    HW2 7496   9.453   7.892   4.132  0.5771 -1.0526 -3.0395
65856SOL     OW 7497   5.372   3.402   3.736 -0.3658  0.2434  0.1627
65856SOL    HW1 7498   5.426   3.405   3.657  3.0047 -0.9524  2.1940
65856SOL    HW2 7499   5.307   3.334   3.718 -0.3507  0.7076 -1.8831
65857SOL     OW 7500  10.568   6.560   4.356 -0.2371  0.0263 -0.6184
65857SOL    HW1 7501  10.534   6.647   4.338  1.3223  0.6951 -0.5093
65857SOL    HW2 7502  10.558   6.513   4.273  0.6161  0.9260 -1.2625
65858SOL     OW 7503   1.865   7.150   3.899 -0.0921  0.5843 -0.1002
65858SOL    HW1 7504   1.940   7.207   3.912 -1.4492  1.9237  2.7581
65858SOL    HW2 7505   1.800   7.205   3.856 -0.5136  0.3789  0.2704
65859SOL     OW 7506   5.227  10.344   5.347 -0.1043  0.2752  0.1711
65859SOL    HW1 7507   5.318  10.355   5.375  0.0423  0.4830 -0.3727
65859SOL    HW2 7508   5.186  10.295   5.418  0.2198  0.9157  0.8233
65860SOL     OW 7509  13.084   8.453   6.199  0.0752 -0.0121  0.2979
65860SOL    HW1 7510  13.060   8.363   6.176  2.3975 -0.4829 -0.6054
65860SOL    HW2 7511  13.117   8.491   6.117  1.0187  0.9653  1.0961
65861SOL     OW 7512   3.637  11.630  12.766 -0.2379 -0.6062  0.1701
65861SOL    HW1 7513   3.718  11.621  12.715  0.5448 -0.5871  1.3736
65861SOL    HW2 7514   3.576  11.674  12.707  0.4805 -1.0183 -0.9139
65862SOL     OW 7515   1.260   5.943   9.168  0.5596 -0.1894 -0.1560
65862SOL    HW1 7516   1.280   5.998   9.092  1.1097 -1.1684 -0.7280
65862SOL    HW2 7517   1.308   5.862   9.154  0.8386 -0.3186  1.3475
65863SOL     OW 7518   1.130   7.498   0.527 -0.3960 -0.1666  0.2951
65863SOL    HW1 7519   1.049   7.527   0.569 -0.6107  0.4419 -0.5052
65863SOL    HW2 7520   1.105   7.421   0.476 -0.1748 -0.7953  1.1262
65864SOL     OW 7521  11.926  12.565   8.652 -0.7611 -0.1856  0.0836
65864SOL    HW1 7522  11.865  12.623   8.606 -1.2348  0.4670  1.4557
65864SOL    HW2 7523  11.968  12.621   8.717  0.6130 -0.8530 -0.1860
65865SOL     OW 7524   9.431  12.673   8.140 -0.0910  0.3346  0.0267
65865SOL    HW1 7525   9.490  12.604   8.113  2.0065  1.6722  0.8829
65865SOL    HW2 7526   9.370  12.631   8.201  1.4904 -0.6713  0.9728
65866SOL     OW 7527   1.948   2.218  11.567 -0.2888  0.1280  0.0444
65866SOL    HW1 7528   2.025   2.221  11.623  0.6888  0.2744 -1.2523
65866SOL    HW2 7529   1.947   2.128  11.533  1.6793  1.0791 -3.0001
65867SOL     OW 7530   0.741   6.869   7.488  0.5247 -0.2303 -0.5247
65867SOL    HW1 7531   0.699   6.936   7.434  0.6837  0.7325  0.5018
65867SOL    HW2 7532   0.830   6.862   7.454  0.9348  1.0892  0.1969
65868SOL     OW 7533  10.521   1.432   6.168 -0.3251 -0.0467  0.1782
65868SOL    HW1 7534  10.461   1.357   6.174  0.0143 -0.3839 -0.5786
65868SOL    HW2 7535  10.513   1.475   6.253 -1.4911 -0.2002  0.1696
65869SOL     OW 7536   0.883   5.366   7.543 -0.2793 -0.3047 -0.0984
65869SOL    HW1 7537   0.963   5.321   7.515 -0.5201  0.2639 -1.7797
65869SOL    HW2 7538   0.814   5.300   7.534 -0.1528 -0.5259  0.4945
65870SOL     OW 7539   9.157  12.709   1.683  0.1134 -0.2676  0.2748
65870SOL    HW1 7540   9.136  12.712   1.590  0.1012 -1.8444  0.1901
65870SOL    HW2 7541   9.194  12.621   1.696  0.7827  0.1798  1.6196
65871SOL     OW 7542   3.452   4.508  11.376  0.1328  0.0830 -0.5866
65871SOL    HW1 7543   3.492   4.436  11.426  0.6525  0.8351  0.1191
65871SOL    HW2 7544   3.367   4.475  11.349 -1.3141  0.4496  2.9529
65872SOL     OW 7545   5.312   4.169  11.649  0.4843 -0.1456 -0.1990
65872SOL    HW1 7546   5.396   4.209  11.673  0.2459  1.7638 -2.1190
65872SOL    HW2 7547   5.258   4.177  11.727  1.4712  0.5019  0.4400
65873SOL     OW 7548   7.623  10.719   0.487  0.5590  0.1414 -0.4046
65873SOL    HW1 7549   7.570  10.738   0.565  0.4208 -1.7381  0.0141
65873SOL    HW2 7550   7.602  10.628   0.465  1.5325  0.2361 -1.9153
65874SOL     OW 7551   0.018   6.048   5.613  0.2580  0.3420  0.0227
65874SOL    HW1 7552   0.060   6.063   5.697  0.6387  1.3571 -0.3335
65874SOL    HW2 7553  -0.002   5.954   5.612 -0.2222  0.4084  1.4433
65875SOL     OW 7554  11.834   5.046   3.979  0.1754  0.1421 -0.3301
65875SOL    HW1 7555  11.809   5.118   4.037 -0.6409 -0.7282  0.4447
65875SOL    HW2 7556  11.923   5.067   3.950 -0.1352  1.5720 -0.3303
65876SOL     OW 7557  11.191  11.281   6.650  0.3413  0.5593  0.1814
65876SOL    HW1 7558  11.097  11.267   6.662  0.6338 -0.7816  1.2114
65876SOL    HW2 7559  11.200  11.311   6.560 -0.8953 -1.1916 -0.5648
65877SOL     OW 7560   1.062   7.483  12.357  0.1654  0.5964  0.2103
65877SOL    HW1 7561   1.095   7.568  12.388 -0.0485  0.3369  1.1591
65877SOL    HW2 7562   1.052   7.431  12.436 -1.3145  0.2348 -0.1880
65878SOL     OW 7563   8.998   5.803   1.348  0.3447  0.5035 -0.0582
65878SOL    HW1 7564   9.016   5.745   1.274  0.6443 -0.6056  0.8615
65878SOL    HW2 7565   8.946   5.874   1.310 -1.0750 -0.9639 -1.0192
65879SOL     OW 7566   4.750   6.152   7.618 -0.2387  0.2390  0.0927
65879SOL    HW1 7567   4.742   6.057   7.631  0.2958 -0.5607 -4.0493
65879SOL    HW2 7568   4.670   6.176   7.570  0.0087  1.7222  0.3767
65880SOL     OW 7569   1.117   6.910   6.821 -0.2730 -0.9268  0.1099
65880SOL    HW1 7570   1.155   6.910   6.733 -0.0819 -0.6423  0.1883
65880SOL    HW2 7571   1.125   7.001   6.850 -1.0851 -0.8439  0.1028
65881SOL     OW 7572  11.711  13.010   6.018 -0.6227  0.0670 -0.3010
65881SOL    HW1 7573  11.619  12.999   5.993 -1.4452 -0.9132  2.6951
65881SOL    HW2 7574  11.717  13.100   6.050 -1.0606 -0.3870  1.1514
65882SOL     OW 7575  11.163   2.004   8.027 -0.2986 -0.1123 -0.0799
65882SOL    HW1 7576  11.114   1.926   8.054 -0.3170  0.2703  1.0501
65882SOL    HW2 7577  11.096   2.062   7.989 -0.4837 -0.1864  0.1290
65883SOL     OW 7578   0.969   9.802  11.881  0.1585  0.4232 -0.2471
65883SOL    HW1 7579   0.920   9.806  11.799  0.1800  1.1281 -0.2314
65883SOL    HW2 7580   1.057   9.834  11.858 -0.5530  3.2092  0.5705
65884SOL     OW 7581   1.599   5.675   8.723  0.4235  0.0042 -0.0084
65884SOL    HW1 7582   1.619   5.659   8.631  0.1549 -1.5222  0.1639
65884SOL    HW2 7583   1.602   5.588   8.763 -1.2225  0.4082  1.0777
65885SOL     OW 7584   5.617   8.255   2.804  0.5969  0.4371 -0.4571
65885SOL    HW1 7585   5.690   8.313   2.783  1.5487 -0.5847 -0.0546
65885SOL    HW2 7586   5.655   8.167   2.801 -0.1447 -0.0029  1.6365
65886SOL     OW 7587   3.128   2.353   8.243 -0.5526  0.2106  0.2152
65886SOL    HW1 7588   3.156   2.445   8.238  0.9645 -0.2133  0.5605
65886SOL    HW2 7589   3.148   2.327   8.332 -1.6722 -0.2735  0.3479
65887SOL     OW 7590   8.532   4.641  11.099  0.0766 -0.5129 -0.0171
65887SOL    HW1 7591   8.445   4.602  11.103  0.7760 -2.3293 -1.3716
65887SOL    HW2 7592   8.522   4.714  11.038 -0.7389  0.0666  0.7804
65888SOL     OW 7593   1.972   5.514   5.806 -0.0220 -0.5385  0.0740
65888SOL    HW1 7594   2.022   5.509   5.887  0.2138  0.2816 -0.0051
65888SOL    HW2 7595   1.889   5.555   5.832 -0.6596 -1.8561  0.1987
65889SOL     OW 7596  12.681   8.063   1.550 -0.0483 -0.2697  0.5475
65889SOL    HW1 7597  12.588   8.069   1.528 -0.1249 -0.4728  0.8208
65889SOL    HW2 7598  12.710   8.154   1.553 -0.5807 -0.1299  1.9422
65890SOL     OW 7599   2.172  12.657   3.968 -0.2951  0.0492  0.3010
65890SOL    HW1 7600   2.159  12.721   4.038  0.5505 -0.3593  0.8408
65890SOL    HW2 7601   2.258  12.677   3.932  0.4199 -1.3853  1.1373
65891SOL     OW 7602   4.149  11.411   8.697 -0.1241 -0.1479  0.7458
65891SOL    HW1 7603   4.228  11.446   8.656 -1.0689  0.1617 -0.8909
65891SOL    HW2 7604   4.088  11.484   8.698 -0.6938 -0.6184  1.2055
65892SOL     OW 7605   7.760   9.293   5.274  0.2013  0.2116  0.8851
65892SOL    HW1 7606   7.826   9.232   5.242  0.6641 -0.2054  2.5589
65892SOL    HW2 7607   7.772   9.294   5.369 -0.3317  2.2961  0.9721
65893SOL     OW 7608   4.085   6.855   3.420  0.5333 -0.2388  0.0125
65893SOL    HW1 7609   4.003   6.809   3.401  1.9904 -2.8109 -0.4857
65893SOL    HW2 7610   4.099   6.841   3.514  1.0547 -0.9462 -0.1699
65894SOL     OW 7611   2.148   1.698   0.662 -0.0003  0.2818 -0.4863
65894SOL    HW1 7612   2.239   1.730   0.666  0.4422 -0.7263 -1.8751
65894SOL    HW2 7613   2.096   1.776   0.645  0.3770  1.1481  1.8415
65895SOL     OW 7614  10.946   5.256   2.758 -0.2312  0.6993 -0.6496
65895SOL    HW1 7615  11.004   5.202   2.812 -0.9452  1.1087  0.5676
65895SOL    HW2 7616  10.962   5.226   2.669  1.1052  0.1053 -0.2436
65896SOL     OW 7617   9.684   7.561  10.299  0.3092  0.2140  0.2697
65896SOL    HW1 7618   9.716   7.500  10.232  0.5398  0.5829  0.0454
65896SOL    HW2 7619   9.762   7.585  10.349  0.2328  0.4031  0.2960
65897SOL     OW 7620   2.783  11.061   5.317  0.5270  0.1093 -0.1988
65897SOL    HW1 7621   2.716  11.116   5.276 -0.1034 -0.0142  0.6305
65897SOL    HW2 7622   2.849  11.122   5.349  0.6474  0.2577 -0.7261
65898SOL     OW 7623   5.804   6.111  12.889 -0.0663  0.0321 -0.2807
65898SOL    HW1 7624   5.722   6.063  12.879  0.9222 -1.6489 -0.6418
65898SOL    HW2 7625   5.859   6.054  12.942  2.1296 -0.5751 -2.9828
65899SOL     OW 7626   7.521   1.265   1.569 -0.1074 -0.6165  0.1346
65899SOL    HW1 7627   7.534   1.227   1.656 -1.1319  0.8719  0.9883
65899SOL    HW2 7628   7.439   1.314   1.576  1.0292  1.5763 -0.9160
65900SOL     OW 7629   1.943   1.290   3.285  0.4042 -0.2251 -0.6029
65900SOL    HW1 7630   1.864   1.343   3.276  0.4416 -0.3804 -2.1242
65900SOL    HW2 7631   1.997   1.315   3.210  0.9146 -1.5597 -0.7093
65901SOL     OW 7632   6.099   2.680  10.421  0.1507  0.4421  0.0707
65901SOL    HW1 7633   6.120   2.754  10.478  0.7633  0.4742 -0.1934
65901SOL    HW2 7634   6.184   2.652  10.385  0.4236 -2.2853  2.4550
65902SOL     OW 7635  12.898   9.650   3.509  0.1699  0.3349  0.3931
65902SOL    HW1 7636  12.957   9.606   3.570 -1.1205 -0.8963  0.7993
65902SOL    HW2 7637  12.859   9.579   3.458 -0.1522  1.2126 -0.6238
65903SOL     OW 7638   1.510   1.210   3.276 -0.0101  0.2890 -0.3673
65903SOL    HW1 7639   1.577   1.181   3.337 -0.4055 -0.4575 -0.2839
65903SOL    HW2 7640   1.487   1.131   3.226  0.4109  0.9059 -1.5810
65904SOL     OW 7641   2.737   3.064   9.597 -0.3875  0.2973  0.2417
65904SOL    HW1 7642   2.658   3.094   9.642 -0.2355 -2.4430  2.5876
65904SOL    HW2 7643   2.809   3.091   9.654 -0.1455 -2.7973  1.5322
65905SOL     OW 7644   5.014   1.592   3.290 -0.2653 -0.1852 -0.0268
65905SOL    HW1 7645   5.047   1.630   3.372 -0.9938  0.2366  0.0868
65905SOL    HW2 7646   5.087   1.542   3.255 -0.1749 -1.0300  1.2932
65906SOL     OW 7647   4.756   8.341  12.979  0.0099 -0.3022  0.1771
65906SOL    HW1 7648   4.766   8.368  13.070 -0.9559 -1.0585  0.5222
65906SOL    HW2 7649   4.712   8.256  12.984 -1.7600  0.4866 -1.0352
65907SOL     OW 7650  10.078   6.202  12.068 -0.3991  0.3341 -0.4149
65907SOL    HW1 7651  10.044   6.236  12.151 -0.4255 -1.1567  0.2107
65907SOL    HW2 7652  10.133   6.128  12.093 -0.4004 -0.1366 -1.7388
65908SOL     OW 7653  10.038   5.277   3.924  0.4803  0.2462 -0.0383
65908SOL    HW1 7654   9.986   5.257   4.001 -0.9635  2.1552 -0.4366
65908SOL    HW2 7655  10.117   5.223   3.933 -0.8714 -1.6177  1.3448
65909SOL     OW 7656   2.952  10.239   5.160  0.3636 -0.1941  0.4643
65909SOL    HW1 7657   2.876  10.238   5.217 -1.4288 -0.3159 -1.7948
65909SOL    HW2 7658   2.974  10.147   5.146  1.1109 -0.1533  1.3101
65910SOL     OW 7659   2.407   9.043   1.459  0.1726 -0.0260 -0.1333
65910SOL    HW1 7660   2.437   8.961   1.421 -0.1385 -1.3827  2.3347
65910SOL    HW2 7661   2.321   9.058   1.420 -0.2263 -1.4507  0.1623
65911SOL     OW 7662   3.037   6.165   8.863 -0.0627 -0.0390  0.4968
65911SOL    HW1 7663   2.955   6.163   8.813  0.8611  1.4517 -1.2329
65911SOL    HW2 7664   3.067   6.256   8.854  1.8757 -0.6049  0.9033
65912SOL     OW 7665   8.631  10.017   7.961 -0.2582  0.3819 -0.0976
65912SOL    HW1 7666   8.679   9.935   7.964 -0.1115  0.4671 -0.0848
65912SOL    HW2 7667   8.539   9.992   7.967 -0.2413  0.1871 -0.6208
65913SOL     OW 7668   2.790   0.884   5.745 -0.2649  0.0062  0.5845
65913SOL    HW1 7669   2.704   0.896   5.705  0.4927 -0.5127 -1.2992
65913SOL    HW2 7670   2.815   0.971   5.775  0.0220  0.9000 -2.0411
65914SOL     OW 7671   4.839   7.040   4.603 -0.2134 -0.6727 -0.0124
65914SOL    HW1 7672   4.855   6.957   4.558  0.8081 -0.9061  0.7368
65914SOL    HW2 7673   4.925   7.067   4.635 -0.8339 -0.3611  1.4995
65915SOL     OW 7674   8.902   0.115   0.768  0.2623  0.1703 -0.3828
65915SOL    HW1 7675   8.904   0.020   0.778 -1.6229  0.1573  0.1749
65915SOL    HW2 7676   8.818   0.141   0.804  0.4403  1.9855 -1.1947
65916SOL     OW 7677   3.898  10.156   7.570 -0.3265  0.5425 -0.3024
65916SOL    HW1 7678   3.809  10.143   7.603  0.1574 -2.2198  0.1866
65916SOL    HW2 7679   3.924  10.243   7.602 -1.7015  0.0646  2.3450
65917SOL     OW 7680   7.450   8.450   9.701  0.5111  0.5158 -0.3487
65917SOL    HW1 7681   7.434   8.447   9.795 -0.6572 -1.0253 -0.5666
65917SOL    HW2 7682   7.363   8.447   9.662  0.8980  2.4240 -1.5033
65918SOL     OW 7683   8.347   6.545  11.165  0.6333  0.8056 -0.4828
65918SOL    HW1 7684   8.403   6.514  11.093  1.4948  0.0500  0.4815
65918SOL    HW2 7685   8.404   6.542  11.242 -0.3999  1.1921  0.3086
65919SOL     OW 7686   1.629  10.348  12.098 -0.1583  0.0481 -0.2154
65919SOL    HW1 7687   1.567  10.336  12.026 -0.5057 -0.4124  0.1551
65919SOL    HW2 7688   1.701  10.288  12.078 -2.1355 -3.3650  1.9099
65920SOL     OW 7689   2.084   9.449  12.289 -0.5771  0.1370  0.2450
65920SOL    HW1 7690   2.136   9.410  12.359 -0.1906  2.3569  1.2779
65920SOL    HW2 7691   1.997   9.462  12.327 -0.4697  1.0144  0.2128
65921SOL     OW 7692  10.084   9.688   7.581  0.1297  0.1468  0.4824
65921SOL    HW1 7693  10.096   9.666   7.673  1.0101  0.3567  0.4298
65921SOL    HW2 7694  10.169   9.722   7.553  0.8912 -2.7328 -1.1985
65922SOL     OW 7695  11.690   1.382   6.335  0.3099 -0.5162  0.4790
65922SOL    HW1 7696  11.678   1.477   6.346 -0.9502 -0.6138  0.1477
65922SOL    HW2 7697  11.740   1.374   6.253 -0.3455 -0.1573  0.0358
65923SOL     OW 7698   9.584   3.685  12.106 -0.0197 -0.6298  0.1073
65923SOL    HW1 7699   9.515   3.679  12.171  0.5649  0.6605  0.8813
65923SOL    HW2 7700   9.631   3.766  12.127 -0.6304  0.5972 -2.6974
65924SOL     OW 7701   0.343   7.531   2.704 -0.1699  0.4260  0.0606
65924SOL    HW1 7702   0.317   7.613   2.662  2.7561  0.9362 -1.0222
65924SOL    HW2 7703   0.370   7.558   2.792  1.5670  0.8503 -0.5585
65925SOL     OW 7704   7.170  12.479  10.075 -0.2590 -0.6249  0.7130
65925SOL    HW1 7705   7.249  12.533  10.077 -0.1707 -0.6163 -0.9860
65925SOL    HW2 7706   7.179  12.427   9.995 -2.7273  0.6129 -0.5082
65926SOL     OW 7707  11.472  12.973   1.672  0.0412  0.1026 -0.6669
65926SOL    HW1 7708  11.433  13.040   1.615 -0.0442 -0.1944 -0.9567
65926SOL    HW2 7709  11.470  13.013   1.759 -0.4013  0.3094 -0.7677
65927SOL     OW 7710   0.179  11.679   7.626  0.1375 -0.3665 -0.5210
65927SOL    HW1 7711   0.272  11.681   7.649  0.2372  1.2455 -0.9520
65927SOL    HW2 7712   0.153  11.771   7.622 -1.5750 -0.7972 -0.0844
65928SOL     OW 7713   0.651  11.082   8.917  0.8424 -0.2780 -0.0980
65928SOL    HW1 7714   0.595  11.109   8.990  1.5543  2.0467 -0.3419
65928SOL    HW2 7715   0.595  11.026   8.863 -0.0686 -1.0301  1.5400
65929SOL     OW 7716   9.322   0.737   0.801  0.7179  0.3406  0.1842
65929SOL    HW1 7717   9.349   0.674   0.734  0.8809 -2.0388  2.3284
65929SOL    HW2 7718   9.252   0.692   0.850  0.0258  2.3011  1.1012
65930SOL     OW 7719   3.583   6.405  13.110 -0.3026 -0.8732 -0.0058
65930SOL    HW1 7720   3.494   6.434  13.090  0.1942  1.1613  0.5048
65930SOL    HW2 7721   3.578   6.371  13.199 -0.6900 -1.4026 -0.2244
65931SOL     OW 7722   1.887  10.698  11.577 -0.0289 -0.3917 -0.2877
65931SOL    HW1 7723   1.852  10.668  11.661  1.8268 -1.2344  0.2531
65931SOL    HW2 7724   1.957  10.758  11.602  2.3334 -2.6334 -1.0528
65932SOL     OW 7725   4.569   3.298   6.499  0.6740 -0.1861 -0.3293
65932SOL    HW1 7726   4.573   3.337   6.586  0.5804 -1.7236  0.3955
65932SOL    HW2 7727   4.505   3.351   6.452  0.6904  0.6423  0.5372
65933SOL     OW 7728   4.939   1.443   8.434  0.3378 -0.6736 -0.2625
65933SOL    HW1 7729   4.889   1.450   8.353 -0.4730  1.2891  0.3428
65933SOL    HW2 7730   4.874   1.424   8.502  0.6157  0.1924  0.2731
65934SOL     OW 7731   6.579   0.431   3.217  0.0636  0.0077  0.0537
65934SOL    HW1 7732   6.518   0.362   3.192  0.4005 -0.1940 -0.2274
65934SOL    HW2 7733   6.662   0.385   3.230  0.2690  0.3471 -0.0478
65935SOL     OW 7734   0.435  13.108   5.582  0.1383 -0.3897 -1.1865
65935SOL    HW1 7735   0.351  13.123   5.537  0.7509  1.8653 -1.7249
65935SOL    HW2 7736   0.417  13.127   5.674  0.2044  0.9708 -1.4282
65936SOL     OW 7737  11.885  12.356   3.414  0.9462  0.1848  0.0427
65936SOL    HW1 7738  11.921  12.390   3.332  1.0872  0.1800  0.1036
65936SOL    HW2 7739  11.854  12.268   3.392  0.7302  0.2902 -0.0750
65937SOL     OW 7740   0.989  11.611   8.570  0.0154 -0.7945  0.4567
65937SOL    HW1 7741   0.995  11.602   8.666  0.0087 -0.3366  0.5015
65937SOL    HW2 7742   0.919  11.675   8.557  0.9738  0.2347  0.1945
65938SOL     OW 7743   0.734   5.119   5.564  0.5642 -0.0868 -0.7983
65938SOL    HW1 7744   0.775   5.203   5.582  1.2582 -1.0710  2.8532
65938SOL    HW2 7745   0.806   5.056   5.561 -0.1408 -0.9251 -0.8057
65939SOL     OW 7746  11.818   0.895   4.558 -0.1144 -0.9642  0.1669
65939SOL    HW1 7747  11.785   0.985   4.558  0.0676 -0.8958  0.4466
65939SOL    HW2 7748  11.748   0.843   4.517  0.1887 -0.5520 -0.8968
65940SOL     OW 7749   6.343   8.522  12.708  0.2356 -0.1418 -0.0454
65940SOL    HW1 7750   6.250   8.527  12.729  0.1375 -2.1689  0.2027
65940SOL    HW2 7751   6.387   8.513  12.793  0.3766 -2.0062 -0.2749
65941SOL     OW 7752   0.846   5.829   4.046 -0.0110 -0.1232 -0.2321
65941SOL    HW1 7753   0.768   5.879   4.069  0.3251  0.8953 -1.2106
65941SOL    HW2 7754   0.900   5.829   4.125 -0.9617 -0.8033  0.4394
65942SOL     OW 7755  11.509  10.072  11.349 -0.1797  0.3330 -1.0568
65942SOL    HW1 7756  11.556  10.002  11.394 -0.5789 -0.4748 -1.8657
65942SOL    HW2 7757  11.548  10.152  11.382  0.6982 -0.2840 -0.5567
65943SOL     OW 7758   1.064   8.492   4.194  0.2175 -0.0116  0.5050
65943SOL    HW1 7759   1.017   8.484   4.277 -0.1269  1.4023  0.4876
65943SOL    HW2 7760   1.150   8.527   4.219  0.1486  0.3201  0.2828
65944SOL     OW 7761  11.532   8.413  10.708  0.0836 -0.4058 -0.5720
65944SOL    HW1 7762  11.618   8.439  10.675  0.1386  0.6530  0.3630
65944SOL    HW2 7763  11.495   8.492  10.746 -0.2878 -1.4022  1.2444
65945SOL     OW 7764   9.085   0.086   3.348 -0.2313 -0.6573  0.3041
65945SOL    HW1 7765   9.043   0.072   3.432  1.2127 -0.6477  1.0582
65945SOL    HW2 7766   9.155   0.148   3.366 -1.2727  1.1322 -1.3494
65946SOL     OW 7767   6.120   5.933   5.561 -0.0519  0.0381 -0.7290
65946SOL    HW1 7768   6.065   5.926   5.639  0.8114  0.9480 -0.0027
65946SOL    HW2 7769   6.118   6.027   5.540  1.5909  0.1836 -0.3759
65947SOL     OW 7770   0.246   0.183  10.177 -0.3542 -0.1651  0.1428
65947SOL    HW1 7771   0.227   0.127  10.252  1.2629 -0.7741  0.1370
65947SOL    HW2 7772   0.300   0.254  10.212  0.9914 -0.8210 -0.5193
65948SOL     OW 7773  12.014  12.638   6.042  0.0835 -0.2645 -0.1391
65948SOL    HW1 7774  11.983  12.575   6.107 -0.4945 -0.8086 -0.9217
65948SOL    HW2 7775  12.084  12.593   5.996 -0.0779 -0.1985 -0.4502
65949SOL     OW 7776   0.386   6.781   9.115  0.0539  0.5191 -0.1571
65949SOL    HW1 7777   0.342   6.698   9.098 -0.6017  1.0057 -0.8810
65949SOL    HW2 7778   0.391   6.824   9.029  1.9943  0.4607 -0.1194
65950SOL     OW 7779  10.423   6.541  11.817 -0.4981 -0.2464  0.3077
65950SOL    HW1 7780  10.474   6.556  11.737  1.9981  0.7766  1.9350
65950SOL    HW2 7781  10.351   6.484  11.790 -0.9684  1.6560 -3.0443
65951SOL     OW 7782   4.785  13.103  12.173  0.2004 -0.8138 -0.1301
65951SOL    HW1 7783   4.821  13.120  12.261  1.6466 -0.1684 -0.8161
65951SOL    HW2 7784   4.812  13.014  12.153  0.3600 -0.7600 -0.1518
65952SOL     OW 7785   7.750   8.715   6.398  0.1742 -0.2168 -0.2549
65952SOL    HW1 7786   7.669   8.750   6.436  0.4662 -0.5817  0.7198
65952SOL    HW2 7787   7.790   8.790   6.354  0.3146  0.4727  1.0012
65953SOL     OW 7788   0.396   0.020   6.613 -0.0082  0.2609  0.4680
65953SOL    HW1 7789   0.413  -0.074   6.599 -0.6697  0.0476  1.0522
65953SOL    HW2 7790   0.481   0.061   6.598 -0.2513 -0.0730 -2.5857
65954SOL     OW 7791   6.530  13.000   3.903  0.3953  0.4901 -0.2626
65954SOL    HW1 7792   6.556  12.939   3.834  1.1856  0.4485  0.0638
65954SOL    HW2 7793   6.457  13.049   3.865 -0.3697 -0.7617 -0.4728
65955SOL     OW 7794   7.131   3.754   3.889  0.2631  0.1263 -0.0254
65955SOL    HW1 7795   7.066   3.726   3.954  0.5961 -0.7094 -0.0381
65955SOL    HW2 7796   7.188   3.814   3.938  0.8260 -0.9041  0.6237
65956SOL     OW 7797   5.213  10.693   3.345  0.2273  0.0694 -0.5224
65956SOL    HW1 7798   5.205  10.611   3.393  0.8474  1.2030  1.6446
65956SOL    HW2 7799   5.123  10.725   3.337 -0.0079 -0.7240 -1.3039
65957SOL     OW 7800  10.394   1.924   1.794 -0.2271  0.3613  0.1979
65957SOL    HW1 7801  10.301   1.938   1.809 -0.3805  3.4201 -2.4450
65957SOL    HW2 7802  10.437   1.973   1.865 -0.6890  0.8956  0.1192
65958SOL     OW 7803  10.144  12.323   8.059 -0.1323 -0.0234 -0.0222
65958SOL    HW1 7804  10.091  12.253   8.098  0.5838 -0.8362 -0.4561
65958SOL    HW2 7805  10.088  12.358   7.989 -0.2704 -0.5860 -0.2030
65959SOL     OW 7806   7.810   4.881   1.394  0.3848 -0.0719  0.1836
65959SOL    HW1 7807   7.755   4.947   1.353 -1.5185 -1.0808  0.9406
65959SOL    HW2 7808   7.885   4.871   1.336 -0.2509  1.3460 -0.9298
65960SOL     OW 7809   7.504   7.248   2.098  0.8916  0.1765 -0.1635
65960SOL    HW1 7810   7.458   7.253   2.182  0.4084  0.6377 -0.4518
65960SOL    HW2 7811   7.588   7.291   2.115  0.9244 -0.0145  0.1690
65961SOL     OW 7812   9.251   5.684   3.235 -0.2592  0.0271  0.0649
65961SOL    HW1 7813   9.219   5.702   3.147 -0.1581  1.5060  0.3039
65961SOL    HW2 7814   9.347   5.685   3.227 -0.2332 -1.9106 -0.1812
65962SOL     OW 7815   3.895  13.188   3.337  0.1508  0.2124  0.8140
65962SOL    HW1 7816   3.898  13.255   3.269 -1.2553 -0.4989  0.0147
65962SOL    HW2 7817   3.874  13.107   3.291 -0.1611 -0.4172  2.0147
65963SOL     OW 7818   9.859   7.816   0.719  0.0888 -0.3510  0.1073
65963SOL    HW1 7819   9.888   7.778   0.802 -2.4569 -0.8176  0.8589
65963SOL    HW2 7820   9.903   7.901   0.714  1.1856 -0.8224  1.3522
65964SOL     OW 7821   2.120   3.792   8.442 -0.4480  0.3239  0.3354
65964SOL    HW1 7822   2.026   3.784   8.427  0.1028 -0.3197 -4.7528
65964SOL    HW2 7823   2.134   3.886   8.456 -1.8744  0.1851  3.5727
65965SOL     OW 7824   5.545   1.439   5.214  0.1258 -0.3141 -0.1686
65965SOL    HW1 7825   5.497   1.441   5.131  1.8191 -0.2562 -1.1765
65965SOL    HW2 7826   5.485   1.395   5.274 -1.5413  0.5089 -1.1436
65966SOL     OW 7827   8.215   0.237  12.216 -0.1337  0.4145 -0.3041
65966SOL    HW1 7828   8.220   0.299  12.143 -1.8173 -0.4537 -1.2075
65966SOL    HW2 7829   8.293   0.182  12.206  0.0143  0.7363 -1.0339
65967SOL     OW 7830   3.195   3.272   0.807 -0.0180 -0.4028 -0.4961
65967SOL    HW1 7831   3.198   3.344   0.870 -0.6911  1.4172 -2.4566
65967SOL    HW2 7832   3.133   3.210   0.844  0.5390 -0.0002  1.2074
65968SOL     OW 7833   3.044   4.082   7.354 -0.7007  0.4570 -0.1519
65968SOL    HW1 7834   3.074   4.073   7.444 -0.5528  1.5840 -0.0727
65968SOL    HW2 7835   2.985   4.008   7.341 -0.3835  0.0340  0.7223
65969SOL     OW 7836   5.129  12.706  13.190 -0.3581 -0.6270 -0.3294
65969SOL    HW1 7837   5.166  12.793  13.206  0.5991 -0.9357 -0.7890
65969SOL    HW2 7838   5.036  12.722  13.176 -0.0657  0.4360 -1.2381
65970SOL     OW 7839   0.866   7.561   0.538  0.5203 -0.7354  0.2566
65970SOL    HW1 7840   0.830   7.525   0.457  0.0044 -2.3643  1.1444
65970SOL    HW2 7841   0.837   7.652   0.539 -2.4767 -1.5761  0.2358
65971SOL     OW 7842   7.412  10.966   1.574  0.0223  0.4339  0.3031
65971SOL    HW1 7843   7.365  10.891   1.609  0.4068  0.4926  0.9663
65971SOL    HW2 7844   7.376  11.041   1.622  1.4176  0.3803  1.5174
65972SOL     OW 7845   9.339  12.819   9.858  0.0791  0.0523  0.3379
65972SOL    HW1 7846   9.427  12.785   9.841  1.6765  1.4655  4.4150
65972SOL    HW2 7847   9.292  12.746   9.896  0.1020 -0.1997 -0.1094
65973SOL     OW 7848   1.149   6.810   1.494  0.0066 -0.1528  1.1318
65973SOL    HW1 7849   1.081   6.764   1.543 -1.5097 -0.7935 -1.4209
65973SOL    HW2 7850   1.204   6.741   1.458 -0.2695  0.1683  0.0654
65974SOL     OW 7851   4.382   1.764   7.790  0.6734  0.1318 -0.7120
65974SOL    HW1 7852   4.447   1.824   7.829 -0.4779  0.3389  1.0218
65974SOL    HW2 7853   4.429   1.721   7.718  2.0819  1.7945 -0.8581
65975SOL     OW 7854  12.026   0.928   8.432  0.0912 -0.0991 -0.3017
65975SOL    HW1 7855  12.014   0.838   8.401  2.0648 -0.9231  1.1135
65975SOL    HW2 7856  11.993   0.927   8.521  0.7172  0.3981 -0.0599
65976SOL     OW 7857   3.794   3.106   2.519 -0.1419  0.2283 -0.5089
65976SOL    HW1 7858   3.821   3.096   2.427  0.6511 -1.7825 -0.1012
65976SOL    HW2 7859   3.870   3.146   2.562 -0.5246  1.1987 -0.7023
65977SOL     OW 7860   6.404   0.712   0.515 -0.2446  0.1768  0.1408
65977SOL    HW1 7861   6.338   0.644   0.527  1.5525 -1.7275 -0.1008
65977SOL    HW2 7862   6.460   0.704   0.592 -0.2782  1.7892  0.3693
65978SOL     OW 7863   7.614   9.648   9.511  0.3563 -0.3663  0.4265
65978SOL    HW1 7864   7.590   9.679   9.423 -0.1764 -0.2914  0.5946
65978SOL    HW2 7865   7.660   9.721   9.550  3.1163 -1.3149 -0.7636
65979SOL     OW 7866   5.032   6.978   1.611 -0.0822  0.9158 -0.1162
65979SOL    HW1 7867   5.108   7.027   1.640  0.3428  0.4392 -0.4131
65979SOL    HW2 7868   4.989   7.035   1.547  0.6043  0.7648 -0.7243
65980SOL     OW 7869  12.787   3.125  10.387  0.0000 -0.1607 -0.0721
65980SOL    HW1 7870  12.753   3.128  10.476 -0.9811  0.1659 -0.4429
65980SOL    HW2 7871  12.815   3.034  10.375  0.3084 -0.1612  0.6236
65981SOL     OW 7872   5.516  10.679  12.146  0.1058 -0.1040  0.1173
65981SOL    HW1 7873   5.467  10.599  12.129 -0.1411  0.2647 -0.9297
65981SOL    HW2 7874   5.567  10.659  12.225  0.5565 -1.5159 -0.5012
65982SOL     OW 7875   8.854   0.879  13.221  0.2401 -0.0270  0.4407
65982SOL    HW1 7876   8.798   0.930  13.164  0.9896 -0.6451 -0.9013
65982SOL    HW2 7877   8.843   0.918  13.308 -2.9409 -0.7115  0.4427
65983SOL     OW 7878   5.005   5.005   5.924 -0.0056  0.1126 -0.1374
65983SOL    HW1 7879   4.989   4.916   5.893  0.1945  0.6371 -1.8686
65983SOL    HW2 7880   5.082   5.034   5.875 -0.6725  1.5796 -0.3825
65984SOL     OW 7881   8.099   3.356  13.074  0.5403  0.3828  0.4292
65984SOL    HW1 7882   8.128   3.405  13.151  3.0316 -0.5260  0.1500
65984SOL    HW2 7883   8.129   3.408  13.000 -1.4980  1.0455 -0.0105
65985SOL     OW 7884  12.034   7.634   3.074 -0.3359  0.1338 -0.5635
65985SOL    HW1 7885  11.985   7.620   2.993 -1.2357  0.5995 -0.1076
65985SOL    HW2 7886  11.979   7.692   3.126  1.0544  1.3327 -0.3672
65986SOL     OW 7887   1.962  12.799  10.501 -0.5753  0.2175  0.1748
65986SOL    HW1 7888   1.867  12.794  10.512 -0.5606  2.2237  1.6935
65986SOL    HW2 7889   1.975  12.794  10.406 -2.2708  0.7376 -0.1165
65987SOL     OW 7890   8.665   9.277   4.096  0.2682 -0.3327 -0.1772
65987SOL    HW1 7891   8.695   9.332   4.168  4.5751  0.8104 -2.4950
65987SOL    HW2 7892   8.586   9.320   4.064  1.0378  1.9692  0.8540
65988SOL     OW 7893  13.068  12.698   8.900 -0.1762 -0.5448  0.4835
65988SOL    HW1 7894  13.088  12.667   8.988 -0.2913  1.1971  1.1639
65988SOL    HW2 7895  13.133  12.766   8.883  0.9244 -1.9801 -1.4925
65989SOL     OW 7896   9.104   1.530  12.034  0.2767 -0.0504 -0.2982
65989SOL    HW1 7897   9.138   1.498  12.118  0.3312 -1.9858 -1.0078
65989SOL    HW2 7898   9.012   1.549  12.051 -0.1605 -2.0358 -0.1435
65990SOL     OW 7899   6.345  12.073   4.563 -0.3887  0.1250 -0.1965
65990SOL    HW1 7900   6.369  12.049   4.473  2.2803  1.0922  0.1612
65990SOL    HW2 7901   6.263  12.027   4.579  0.2271 -1.9400 -2.3425
65991SOL     OW 7902  10.602   2.542  11.715  0.3002 -0.2698 -0.7644
65991SOL    HW1 7903  10.679   2.598  11.704  0.2334 -0.3314 -1.5772
65991SOL    HW2 7904  10.537   2.577  11.654 -0.3559 -0.1592 -0.0178
65992SOL     OW 7905   9.648  11.827   7.626 -0.2317 -0.3388 -0.5704
65992SOL    HW1 7906   9.592  11.755   7.654 -0.5459 -0.0540 -0.4708
65992SOL    HW2 7907   9.596  11.874   7.560  0.1433 -0.4631 -0.9623
65993SOL     OW 7908  12.154  12.985   2.319 -0.1862  0.7632  0.6463
65993SOL    HW1 7909  12.127  13.039   2.246  1.6120 -0.9980 -1.4793
65993SOL    HW2 7910  12.092  12.911   2.318  0.8027 -0.0860 -0.2069
65994SOL     OW 7911   4.860   4.344   2.317 -0.4482 -0.5268  0.4714
65994SOL    HW1 7912   4.814   4.268   2.354  1.0340 -2.3027 -1.0878
65994SOL    HW2 7913   4.944   4.345   2.363 -0.1800 -0.2781 -0.0228
65995SOL     OW 7914   6.789   6.443   1.696  0.3085 -0.0420  0.0846
65995SOL    HW1 7915   6.863   6.396   1.735 -0.5640 -1.6901 -0.1521
65995SOL    HW2 7916   6.813   6.535   1.702  3.1370 -0.5509 -1.4462
65996SOL     OW 7917   6.002   0.728  13.013 -0.3419  0.3473  0.3549
65996SOL    HW1 7918   5.929   0.750  12.956 -1.0052 -2.6419 -0.1372
65996SOL    HW2 7919   6.000   0.632  13.019  2.3247  0.2729  1.9496
65997SOL     OW 7920   5.417   3.279  11.548  0.5096 -0.5667  0.6065
65997SOL    HW1 7921   5.414   3.192  11.509  2.1050  0.0144 -0.9345
65997SOL    HW2 7922   5.348   3.278  11.615 -0.9376 -2.2958 -0.8147
65998SOL     OW 7923   1.113   4.403   8.570 -0.6756  0.0083 -0.0208
65998SOL    HW1 7924   1.187   4.343   8.583 -0.8432 -0.4229 -1.0064
65998SOL    HW2 7925   1.153   4.490   8.570 -0.2423 -0.1882 -0.0160
65999SOL     OW 7926   2.497   9.309  10.527  0.1076 -0.0256 -0.0819
65999SOL    HW1 7927   2.552   9.300  10.449  0.3155  0.5883 -0.0092
65999SOL    HW2 7928   2.558   9.330  10.597 -0.3200  2.1831 -0.2812
66000SOL     OW 7929   2.048   3.063   2.105 -0.0702 -0.1074 -0.2657
66000SOL    HW1 7930   2.029   2.969   2.099 -2.8469  0.3354  0.4382
66000SOL    HW2 7931   2.075   3.076   2.196 -1.4878  0.0314  0.1507
66001SOL     OW 7932   6.111   7.554   4.150 -0.3350  0.0285  0.2063
66001SOL    HW1 7933   6.138   7.646   4.146  0.8124 -0.2496  1.0037
66001SOL    HW2 7934   6.193   7.505   4.137 -0.9808 -0.8863 -0.4974
66002SOL     OW 7935   3.988   2.299   8.959 -0.0226  1.2098  0.5209
66002SOL    HW1 7936   4.034   2.339   9.033 -0.5380  3.1134 -0.1357
66002SOL    HW2 7937   3.896   2.320   8.974 -0.2233  0.9067 -0.2555
66003SOL     OW 7938   5.833  10.302   6.909 -0.0092  0.4409 -0.2990
66003SOL    HW1 7939   5.781  10.370   6.952  0.6628 -0.4756  2.1664
66003SOL    HW2 7940   5.774  10.227   6.904 -0.2733  0.7201 -1.6116
66004SOL     OW 7941  10.002   2.572   2.903  0.4100 -0.1772 -0.4255
66004SOL    HW1 7942   9.914   2.553   2.868  0.2305 -0.6010  0.2273
66004SOL    HW2 7943  10.041   2.631   2.838 -0.5070  0.3546 -0.5212
66005SOL     OW 7944   3.605  12.875  12.970  0.2819 -0.1550 -0.6809
66005SOL    HW1 7945   3.644  12.788  12.975 -0.8222 -0.7342 -1.6013
66005SOL    HW2 7946   3.578  12.884  12.879  0.9849  1.4458 -0.7737
66006SOL     OW 7947   7.372  11.565   9.437  0.1169  0.0059 -0.2292
66006SOL    HW1 7948   7.396  11.644   9.486 -0.6995  0.2229 -0.1554
66006SOL    HW2 7949   7.379  11.494   9.501 -0.3677  0.2029  0.0477
66007SOL     OW 7950   7.124   4.003   3.236  0.4172 -0.1308 -0.0666
66007SOL    HW1 7951   7.097   4.076   3.179  0.6748 -0.7813 -1.0416
66007SOL    HW2 7952   7.121   3.926   3.179  2.4483 -0.5311  0.3067
66008SOL     OW 7953   9.412   7.866   2.600  0.4879 -0.2226  0.2535
66008SOL    HW1 7954   9.498   7.904   2.587  0.4499 -0.2100  0.0407
66008SOL    HW2 7955   9.351   7.940   2.594  0.3417 -0.4088 -0.9520
66009SOL     OW 7956   0.143   2.669   6.328 -0.1575 -0.1171  0.3843
66009SOL    HW1 7957   0.143   2.693   6.421  2.1891  0.5463  0.2916
66009SOL    HW2 7958   0.185   2.583   6.325 -2.5730 -1.3747  0.1026
66010SOL     OW 7959   8.640  10.436   7.490 -0.2672 -0.2270 -0.3259
66010SOL    HW1 7960   8.613  10.527   7.502 -0.0714 -0.3043  0.8387
66010SOL    HW2 7961   8.727  10.441   7.452  0.7299  0.1358  1.8818
66011SOL     OW 7962   7.422   1.981  11.708 -0.1740  0.1120  0.1485
66011SOL    HW1 7963   7.348   2.042  11.705  0.7395  1.3143  1.0997
66011SOL    HW2 7964   7.382   1.895  11.706 -1.5771  0.7376  0.1979
66012SOL     OW 7965   6.465   8.094   7.649 -0.1321 -0.6362  0.3333
66012SOL    HW1 7966   6.536   8.108   7.711  0.9240  0.5955 -1.0956
66012SOL    HW2 7967   6.393   8.060   7.703  0.9112 -0.1569  2.1136
66013SOL     OW 7968   4.317   1.194   6.179 -0.1734  0.3642 -0.0661
66013SOL    HW1 7969   4.290   1.103   6.192  0.1100  0.1766 -0.7440
66013SOL    HW2 7970   4.326   1.203   6.084 -1.2351  1.4096 -0.0915
66014SOL     OW 7971  11.523  10.230   1.621  0.2974  0.0283  0.6644
66014SOL    HW1 7972  11.509  10.321   1.595 -2.5685 -1.0184 -2.0673
66014SOL    HW2 7973  11.440  10.202   1.659  2.2583 -0.5607  5.2341
66015SOL     OW 7974  10.912   2.257   5.194 -0.0677  0.0082  0.3497
66015SOL    HW1 7975  10.972   2.261   5.119 -0.9775  1.2959 -0.3485
66015SOL    HW2 7976  10.905   2.348   5.223 -0.3412 -0.3755  1.5176
66016SOL     OW 7977  13.066   2.909   5.565  0.5483  0.3374 -0.4117
66016SOL    HW1 7978  13.131   2.867   5.509  2.0139  1.0248  0.7293
66016SOL    HW2 7979  12.998   2.939   5.504  0.4888 -1.7462 -1.4632
66017SOL     OW 7980  11.320   9.565   9.600  0.1355 -0.1686  0.0692
66017SOL    HW1 7981  11.340   9.593   9.510  1.2431  1.4490  0.7773
66017SOL    HW2 7982  11.396   9.513   9.625  0.3688  0.3498  0.4537
66018SOL     OW 7983  12.891   3.291   8.757 -0.3660 -0.4839 -0.0083
66018SOL    HW1 7984  12.959   3.329   8.702  0.3049  0.4880  1.4385
66018SOL    HW2 7985  12.846   3.229   8.700 -0.4452  1.2757 -1.9683
66019SOL     OW 7986  12.305   4.368  13.131 -0.2528  0.2649  0.5932
66019SOL    HW1 7987  12.280   4.437  13.193 -0.5795  0.5562  0.1448
66019SOL    HW2 7988  12.231   4.363  13.070 -0.1120 -0.2970  0.4647
66020SOL     OW 7989   3.638   4.471   0.095  0.7675  0.0811  0.0881
66020SOL    HW1 7990   3.555   4.424   0.091  1.9194 -2.0191 -2.5084
66020SOL    HW2 7991   3.617   4.559   0.065 -0.9550  0.4779  2.2567
66021SOL     OW 7992   6.515   6.616  12.017  0.0134 -0.6205  0.2447
66021SOL    HW1 7993   6.467   6.699  12.016  1.0060 -0.0458 -0.0617
66021SOL    HW2 7994   6.449   6.551  11.990 -1.2876 -0.2450  2.3150
66022SOL     OW 7995   6.643  11.291   5.396  0.1193 -0.0866 -0.0156
66022SOL    HW1 7996   6.684  11.300   5.482  2.0530 -1.2415 -0.7336
66022SOL    HW2 7997   6.693  11.351   5.340 -0.5909  0.0530 -0.5098
66023SOL     OW 7998  11.218  11.989  10.585  0.4668  0.0160 -0.1392
66023SOL    HW1 7999  11.163  11.971  10.509  1.2059 -1.2415 -0.3978
66023SOL    HW2 8000  11.193  11.922  10.649  2.1630 -1.0374 -0.5259
66024SOL     OW 8001   1.488   5.291  12.234 -0.2974  0.2822  0.4105
66024SOL    HW1 8002   1.432   5.251  12.300  1.4264 -0.3475  1.5766
66024SOL    HW2 8003   1.569   5.239  12.237  0.1509  0.7842 -1.5909
66025SOL     OW 8004   4.649   8.607   4.080 -0.5204 -0.3281  0.5181
66025SOL    HW1 8005   4.737   8.570   4.091 -0.7242 -0.6559  1.1001
66025SOL    HW2 8006   4.662   8.701   4.082  0.2842 -0.2048 -2.9899
66026SOL     OW 8007   5.449  11.539   0.269 -0.4685 -0.1109 -0.0639
66026SOL    HW1 8008   5.371  11.495   0.235  0.1100  0.8214 -2.9357
66026SOL    HW2 8009   5.415  11.616   0.316 -1.3270 -1.4698  1.6413
66027SOL     OW 8010   8.519   3.715   7.736 -0.2412  0.5547  0.3809
66027SOL    HW1 8011   8.489   3.758   7.817 -1.2210  0.2946  0.1746
66027SOL    HW2 8012   8.594   3.662   7.763  0.6620  1.9665  0.7411
66028SOL     OW 8013  12.852   6.569   0.828 -0.1572  0.2362  0.0557
66028SOL    HW1 8014  12.897   6.491   0.796 -1.9042 -0.6153 -0.5018
66028SOL    HW2 8015  12.848   6.628   0.753 -3.0388 -1.1944 -1.0821
66029SOL     OW 8016   4.292  10.055   9.513  0.0192 -0.2024 -0.0796
66029SOL    HW1 8017   4.272   9.986   9.576  2.6057 -0.3194  0.7468
66029SOL    HW2 8018   4.302  10.134   9.567  3.1489 -0.4782 -0.0700
66030SOL     OW 8019   2.640  11.592   4.798 -0.0855 -0.7910 -0.4056
66030SOL    HW1 8020   2.546  11.595   4.784 -0.3981 -0.8058  1.4692
66030SOL    HW2 8021   2.663  11.681   4.826  0.1883 -1.1810  0.6379
66031SOL     OW 8022   0.467   6.534   5.082 -0.3379  0.0873 -0.7747
66031SOL    HW1 8023   0.454   6.538   4.987  1.4493 -0.3723 -1.0622
66031SOL    HW2 8024   0.506   6.619   5.104 -1.0306  0.3149 -0.3780
66032SOL     OW 8025   7.488   0.299   7.286 -0.2133 -0.2867  0.2549
66032SOL    HW1 8026   7.406   0.325   7.328 -0.1572  0.0109  0.1828
66032SOL    HW2 8027   7.550   0.288   7.359 -0.0119  0.6033  0.2309
66033SOL     OW 8028  12.333  10.502   1.460  0.2048 -0.0598  0.2697
66033SOL    HW1 8029  12.258  10.453   1.495 -1.0565  1.3212 -0.3558
66033SOL    HW2 8030  12.392  10.435   1.426 -0.2646 -1.2473  1.6573
66034SOL     OW 8031  10.940   6.821   4.836 -0.3019 -0.0932  0.0661
66034SOL    HW1 8032  10.918   6.912   4.858  0.9534  0.9390 -2.4424
66034SOL    HW2 8033  10.860   6.787   4.796 -0.4896  0.2514  0.1375
66035SOL     OW 8034   5.852  10.303  12.455  0.0456 -0.3889 -0.5076
66035SOL    HW1 8035   5.808  10.326  12.537  0.3143  1.6787 -0.8800
66035SOL    HW2 8036   5.943  10.288  12.480  0.4872  1.7855 -0.5394
66036SOL     OW 8037   2.545   2.965  12.469  0.1461  0.0237 -0.5481
66036SOL    HW1 8038   2.498   3.042  12.436  0.4397  0.5922  0.3063
66036SOL    HW2 8039   2.476   2.907  12.502 -0.0311  0.2627 -0.4967
66037SOL     OW 8040   4.513  10.105  12.280  0.1542  0.8170 -0.0003
66037SOL    HW1 8041   4.577  10.042  12.248  0.3061  1.6991 -1.5270
66037SOL    HW2 8042   4.433  10.053  12.294  0.6787  0.0387  0.1637
66038SOL     OW 8043  10.743   2.751   2.602  0.7249 -0.2239  0.3267
66038SOL    HW1 8044  10.773   2.673   2.648 -0.6834 -0.1934  1.3599
66038SOL    HW2 8045  10.716   2.719   2.516  0.4504 -0.8195  0.6306
66039SOL     OW 8046   1.414   7.496   5.293  0.9671 -0.2573 -0.0383
66039SOL    HW1 8047   1.387   7.410   5.261 -0.6327  0.3805 -0.5292
66039SOL    HW2 8048   1.333   7.548   5.292  1.6162  0.8536  1.5713
66040SOL     OW 8049   0.046   9.312   1.971 -0.0619 -0.0577 -0.2153
66040SOL    HW1 8050   0.134   9.325   1.935  0.0292 -0.3795 -0.1147
66040SOL    HW2 8051   0.061   9.296   2.065 -0.2003 -0.4543 -0.2615
66041SOL     OW 8052   7.923   2.619  12.389 -0.4719 -0.1273 -0.0456
66041SOL    HW1 8053   7.902   2.679  12.461 -0.3897  1.1722 -1.0575
66041SOL    HW2 8054   7.843   2.570  12.374 -1.0615  0.8397 -0.1959
66042SOL     OW 8055  10.532  10.826   2.986  0.2352 -0.1983  0.1921
66042SOL    HW1 8056  10.626  10.812   2.993  0.3427  0.4494  0.0870
66042SOL    HW2 8057  10.522  10.921   2.979 -0.6947  0.1753  4.3834
66043SOL     OW 8058  10.838   0.675   5.603  0.2422 -0.2860 -0.2244
66043SOL    HW1 8059  10.899   0.678   5.529  0.2247  0.9016 -0.2119
66043SOL    HW2 8060  10.888   0.633   5.673  1.4619  1.6410  0.1169
66044SOL     OW 8061   4.862   9.579   8.710 -0.5184  0.3445 -0.1986
66044SOL    HW1 8062   4.844   9.577   8.617 -0.1096 -0.7077 -0.2645
66044SOL    HW2 8063   4.827   9.497   8.744  2.1933 -0.8444 -0.0030
66045SOL     OW 8064   0.149   0.626  11.429 -0.0770  0.2458 -0.5180
66045SOL    HW1 8065   0.138   0.549  11.373  1.8935 -0.2243 -0.3163
66045SOL    HW2 8066   0.102   0.603  11.509  0.5684 -0.8192 -0.4163
66046SOL     OW 8067   4.873   0.752   4.051 -0.1456  0.6709 -0.3388
66046SOL    HW1 8068   4.805   0.695   4.016 -0.6671  1.6579 -0.9703
66046SOL    HW2 8069   4.951   0.729   3.999  0.0902 -0.5907  0.5126
66047SOL     OW 8070   8.822  11.565   3.235 -0.7006  0.1342  0.1570
66047SOL    HW1 8071   8.751  11.513   3.198 -0.2001 -0.6994  0.3500
66047SOL    HW2 8072   8.892  11.502   3.253  0.0359  0.9203  0.1078
66048SOL     OW 8073  12.477  10.658   7.653 -0.1174  0.2436  0.2544
66048SOL    HW1 8074  12.452  10.660   7.746  0.0073  0.4405  0.2822
66048SOL    HW2 8075  12.401  10.695   7.607 -0.1094  0.3069  0.2917
66049SOL     OW 8076   1.522   2.152   4.578  0.2075 -0.4312 -0.7946
66049SOL    HW1 8077   1.520   2.059   4.603  1.9024 -0.2617  0.0939
66049SOL    HW2 8078   1.524   2.199   4.661 -1.5849  0.4826 -1.2216
66050SOL     OW 8079   4.375   1.130  10.820 -0.2565  0.4431  0.2641
66050SOL    HW1 8080   4.301   1.176  10.861 -0.3478 -0.7578  1.5294
66050SOL    HW2 8081   4.406   1.070  10.888  0.6502 -0.4557 -0.9131
66051SOL     OW 8082   1.154   0.593   7.815  0.0045  0.1160  0.5065
66051SOL    HW1 8083   1.123   0.502   7.820  1.3027 -0.3908 -0.2222
66051SOL    HW2 8084   1.184   0.603   7.724  0.8281  0.9554  0.8591
66052SOL     OW 8085   6.852   8.629   8.225  0.1984  0.3559  0.6714
66052SOL    HW1 8086   6.828   8.643   8.133 -0.5129  0.3744  0.8520
66052SOL    HW2 8087   6.771   8.597   8.266  0.2677  1.1616  1.4702
66053SOL     OW 8088  12.685   9.842   8.607  0.3869  0.0501 -0.3308
66053SOL    HW1 8089  12.709   9.881   8.523 -1.8553  0.0897 -1.0214
66053SOL    HW2 8090  12.602   9.883   8.630  0.3575 -0.8396  1.3257
66054SOL     OW 8091   7.733  12.546   9.835 -0.5244 -0.0338  0.1531
66054SOL    HW1 8092   7.800  12.509   9.778 -1.4124  0.8381 -1.5576
66054SOL    HW2 8093   7.774  12.625   9.872 -0.6623  0.6483 -1.0981
66055SOL     OW 8094  11.467   5.335   9.412 -0.2236 -0.1226 -0.0691
66055SOL    HW1 8095  11.441   5.307   9.324  1.1130  0.2678 -0.6139
66055SOL    HW2 8096  11.494   5.426   9.401  0.6722 -0.2950  0.5725
66056SOL     OW 8097  12.177  12.879   9.143  0.5635  0.2677 -0.2940
66056SOL    HW1 8098  12.215  12.831   9.070  1.3259 -1.8238  1.3820
66056SOL    HW2 8099  12.234  12.956   9.152  1.8488 -0.6209 -0.4933
66057SOL     OW 8100   6.339   0.488   8.256  0.1293  0.4893  0.7638
66057SOL    HW1 8101   6.307   0.574   8.282 -0.9579  0.1748  0.5045
66057SOL    HW2 8102   6.275   0.427   8.292  0.5634 -0.1688  0.4238
66058SOL     OW 8103   4.537   4.638   1.287 -0.2045 -0.2927 -0.2090
66058SOL    HW1 8104   4.562   4.692   1.362 -1.3728  1.3811 -0.9464
66058SOL    HW2 8105   4.540   4.699   1.213 -2.8638 -0.8613 -0.8853
66059SOL     OW 8106   5.258   5.292   2.262 -0.2768  0.3042  0.3953
66059SOL    HW1 8107   5.278   5.293   2.356  0.4839  1.6237  0.2440
66059SOL    HW2 8108   5.250   5.385   2.239 -1.4243 -0.0317 -0.6555
66060SOL     OW 8109   1.831   2.939   5.999  0.4430 -0.4178  0.1891
66060SOL    HW1 8110   1.886   2.914   6.074 -0.6030  0.2851  1.2247
66060SOL    HW2 8111   1.892   2.978   5.937  1.1739  0.1506  1.2262
66061SOL     OW 8112   0.024   4.083   6.610 -0.6240 -0.4978  0.4428
66061SOL    HW1 8113  -0.042   4.135   6.656 -0.5589 -0.2060  0.2068
66061SOL    HW2 8114  -0.012   3.994   6.609 -1.4304 -0.1726 -0.4916
66062SOL     OW 8115  11.454   0.072   9.524 -0.2716 -0.2607  0.3886
66062SOL    HW1 8116  11.523   0.133   9.550 -2.0235  1.5265  1.0850
66062SOL    HW2 8117  11.426   0.031   9.606 -1.9393  1.1989  0.6293
66063SOL     OW 8118   7.866  12.189   8.845 -0.4234 -0.3030 -0.1506
66063SOL    HW1 8119   7.866  12.283   8.865 -0.2463  0.2647 -2.5462
66063SOL    HW2 8120   7.958  12.164   8.854 -0.5108 -0.3387  0.7637
66064SOL     OW 8121   4.438   2.665   3.126  0.2759  0.2235  0.5426
66064SOL    HW1 8122   4.374   2.652   3.196  1.6901 -0.2514  1.7975
66064SOL    HW2 8123   4.495   2.735   3.159  1.8270 -0.9852  0.5505
66065SOL     OW 8124   9.665   7.747   6.577 -0.2587  0.5742  0.3852
66065SOL    HW1 8125   9.633   7.659   6.598 -1.9810  1.1226  0.1638
66065SOL    HW2 8126   9.760   7.736   6.569 -0.4386 -1.2748  0.2984
66066SOL     OW 8127   7.766   5.134   3.252 -0.1058  0.1828 -0.3730
66066SOL    HW1 8128   7.751   5.120   3.345 -1.0510  0.0082 -0.5372
66066SOL    HW2 8129   7.827   5.066   3.226  0.4238  0.4378  0.1865
66067SOL     OW 8130   9.552   3.943   8.832  0.1905  0.1530 -0.5070
66067SOL    HW1 8131   9.597   3.968   8.751 -0.2415  0.3044 -0.7030
66067SOL    HW2 8132   9.463   3.974   8.820  0.2482  0.6149  0.2354
66068SOL     OW 8133  13.177   7.912  13.110  0.3174 -0.2590  0.0461
66068SOL    HW1 8134  13.122   7.988  13.093 -2.2286 -1.9043  0.3019
66068SOL    HW2 8135  13.203   7.921  13.202  0.2210  0.4112  0.0113
66069SOL     OW 8136  10.511   1.480   5.588 -0.1521  0.8200 -0.2012
66069SOL    HW1 8137  10.426   1.458   5.549 -0.3135 -0.2453  0.6781
66069SOL    HW2 8138  10.504   1.573   5.610 -1.2515  0.6664  0.1944
66070SOL     OW 8139  12.417   3.192   9.994  0.6804 -0.0317 -0.0936
66070SOL    HW1 8140  12.470   3.137   9.936 -0.2136  1.5574 -2.6227
66070SOL    HW2 8141  12.446   3.281   9.974 -1.2387  0.7095  0.2426
66071SOL     OW 8142   2.820   1.346   8.787  0.1508 -0.4200  0.1379
66071SOL    HW1 8143   2.760   1.331   8.859  1.6523 -0.3710  1.4450
66071SOL    HW2 8144   2.778   1.304   8.712 -1.1046 -1.1078  1.1832
66072SOL     OW 8145   7.871   1.244  13.252 -0.6065 -0.6265  0.3550
66072SOL    HW1 8146   7.889   1.166  13.304  0.7913 -1.1931 -0.9032
66072SOL    HW2 8147   7.882   1.317  13.313  1.7046 -1.2350  0.7513
66073SOL     OW 8148   5.057  10.439   6.612 -0.3841  0.5077  0.2326
66073SOL    HW1 8149   5.014  10.356   6.632  1.5731 -0.4237  0.8469
66073SOL    HW2 8150   5.042  10.493   6.690 -1.2496  0.5634  0.0333
66074SOL     OW 8151   3.034  11.330  10.711 -0.2465 -0.5580 -0.3093
66074SOL    HW1 8152   2.990  11.353  10.629 -0.8458  0.1920  0.2039
66074SOL    HW2 8153   3.070  11.413  10.743  0.0466 -0.8572  0.1492
66075SOL     OW 8154   5.361  13.312   2.728  0.3308  0.1262  0.1004
66075SOL    HW1 8155   5.269  13.292   2.743 -0.0190  1.3620 -0.2871
66075SOL    HW2 8156   5.405  13.288   2.809 -0.3174 -0.5310  0.2654
66076SOL     OW 8157   2.557  12.426   9.548 -0.5909 -0.0830 -0.4739
66076SOL    HW1 8158   2.471  12.463   9.565 -0.7956 -0.5994 -0.3825
66076SOL    HW2 8159   2.603  12.434   9.632 -1.2850 -1.7756  0.1070
66077SOL     OW 8160   2.425   0.538   6.844  0.0580 -0.3322 -0.2511
66077SOL    HW1 8161   2.414   0.600   6.772  0.7994 -1.1404 -1.0734
66077SOL    HW2 8162   2.336   0.507   6.863 -0.2712  0.6583 -0.0949
66078SOL     OW 8163   6.026   9.710   3.810  0.0718 -0.3544  0.0471
66078SOL    HW1 8164   6.117   9.738   3.815  0.1159 -0.5109  0.1400
66078SOL    HW2 8165   5.990   9.757   3.735  1.0291 -2.5161 -1.9043
66079SOL     OW 8166   9.060   6.259  11.225 -1.0590  0.5798 -0.0617
66079SOL    HW1 8167   9.016   6.293  11.147 -3.1596  0.0928  0.8502
66079SOL    HW2 8168   9.032   6.168  11.231 -0.0278  0.2912  0.6781
66080SOL     OW 8169   1.614  12.395  12.315  0.1315 -0.3451  0.3997
66080SOL    HW1 8170   1.541  12.386  12.376  0.1196  2.0269  0.8247
66080SOL    HW2 8171   1.659  12.474  12.343 -0.4665  1.4590 -3.1929
66081SOL     OW 8172   6.801   2.975   4.141  0.1708  0.1357  0.0419
66081SOL    HW1 8173   6.729   2.936   4.092  1.3926  0.0354 -1.7944
66081SOL    HW2 8174   6.779   2.960   4.233 -3.2389  2.1545 -0.3026
66082SOL     OW 8175   4.338   1.588  10.865 -0.3893  0.1097 -0.4996
66082SOL    HW1 8176   4.346   1.661  10.927 -0.8849 -0.7648  0.6323
66082SOL    HW2 8177   4.344   1.510  10.920 -1.8307 -0.6918 -1.4400
66083SOL     OW 8178  11.375   5.770   3.213  0.2479  0.1615 -0.4352
66083SOL    HW1 8179  11.461   5.772   3.171 -0.3594  2.3132 -1.7201
66083SOL    HW2 8180  11.313   5.764   3.141 -0.7431 -2.9300  0.5203
66084SOL     OW 8181   1.412   0.170   0.959  0.9949  0.4752  0.3298
66084SOL    HW1 8182   1.470   0.238   0.992  0.7644 -0.1416  2.1203
66084SOL    HW2 8183   1.471   0.097   0.938  0.9363 -0.1568  2.1612
66085SOL     OW 8184   3.050   8.255  10.076 -0.3046  0.3789  0.3012
66085SOL    HW1 8185   3.050   8.184  10.139 -0.3238 -1.8724 -2.0504
66085SOL    HW2 8186   3.118   8.315  10.107  0.2674 -1.0459  1.9708
66086SOL     OW 8187  10.896   3.617  10.090 -0.3848 -0.0070  0.1589
66086SOL    HW1 8188  10.984   3.639  10.059 -1.3553  0.9388 -2.1922
66086SOL    HW2 8189  10.900   3.628  10.185  1.7848  0.9033  0.0135
66087SOL     OW 8190   0.188   6.602   9.060  0.2277  0.3157 -0.1272
66087SOL    HW1 8191   0.166   6.514   9.028  2.2816 -0.1681 -0.3475
66087SOL    HW2 8192   0.178   6.658   8.983 -0.8894  0.2678 -0.0362
66088SOL     OW 8193   0.894  11.743   0.401  0.1167 -0.0327 -0.4087
66088SOL    HW1 8194   0.871  11.650   0.392 -0.1322 -0.0528  0.3504
66088SOL    HW2 8195   0.858  11.768   0.486  0.4553  0.6817 -0.4718
66089SOL     OW 8196   2.202   1.209   3.539 -0.0902  0.1595  0.5097
66089SOL    HW1 8197   2.252   1.232   3.618  0.2215  1.3263  0.0070
66089SOL    HW2 8198   2.126   1.267   3.540 -0.6923 -0.6123  0.5270
66090SOL     OW 8199  13.223  11.435   6.854  0.7166 -0.2347 -0.0977
66090SOL    HW1 8200  13.127  11.437   6.855  0.6628  1.7550  2.4080
66090SOL    HW2 8201  13.245  11.353   6.809 -2.1693 -1.6814  0.8697
66091SOL     OW 8202  11.685   9.734   4.723 -0.5746  0.8313 -0.0206
66091SOL    HW1 8203  11.666   9.827   4.718 -1.0761  0.7478  0.2769
66091SOL    HW2 8204  11.602   9.693   4.746 -0.7800  0.1165 -1.8692
66092SOL     OW 8205   9.510   9.604   4.536  0.2472 -0.0397 -0.4554
66092SOL    HW1 8206   9.593   9.601   4.584 -0.3288 -1.7963  0.5526
66092SOL    HW2 8207   9.445   9.627   4.602 -0.2523 -0.0765 -0.9267
66093SOL     OW 8208   4.698  11.796   0.566  0.2838  0.3929  0.4741
66093SOL    HW1 8209   4.613  11.760   0.589  1.4836 -2.1329  1.4172
66093SOL    HW2 8210   4.734  11.829   0.649  0.3381  1.1885  0.1401
66094SOL     OW 8211  11.738   7.651  11.261 -0.1122 -0.6988  0.2367
66094SOL    HW1 8212  11.657   7.673  11.307 -2.1809  0.1779 -3.4159
66094SOL    HW2 8213  11.791   7.731  11.267  0.6216 -1.2956  2.6949
66095SOL     OW 8214   1.775   8.932   6.329  0.3125 -0.2051 -0.0591
66095SOL    HW1 8215   1.690   8.975   6.337  0.3162 -0.4021  1.4290
66095SOL    HW2 8216   1.825   8.964   6.404  0.9589 -1.3620  0.0322
66096SOL     OW 8217   3.470  10.707  11.929  0.3011 -0.4689 -0.3048
66096SOL    HW1 8218   3.450  10.621  11.892  0.1653 -0.2341 -0.7886
66096SOL    HW2 8219   3.554  10.695  11.973 -1.2332 -1.7165  2.5312
66097SOL     OW 8220   3.039  12.664   5.970 -0.6726 -0.1195 -0.0058
66097SOL    HW1 8221   3.125  12.624   5.954 -0.2198 -0.0712  2.0487
66097SOL    HW2 8222   2.982  12.624   5.904  0.9306 -0.0367 -1.5234
66098SOL     OW 8223  12.789   2.777   0.756  0.2443 -0.0847  0.2433
66098SOL    HW1 8224  12.697   2.751   0.749 -0.0572 -0.3695  3.5500
66098SOL    HW2 8225  12.837   2.694   0.759  0.1691 -0.0942  2.2329
66099SOL     OW 8226   6.281   2.546  12.433 -0.5024  0.2232 -0.1870
66099SOL    HW1 8227   6.241   2.491  12.501  0.6708  0.4461  0.7128
66099SOL    HW2 8228   6.296   2.485  12.360  1.0646 -0.7978  0.9042
66100SOL     OW 8229  12.973  12.907   1.285 -0.0626  0.1359 -0.0255
66100SOL    HW1 8230  13.051  12.852   1.277  0.3691  0.3804  1.9927
66100SOL    HW2 8231  13.004  12.986   1.329 -1.3253  0.5638  0.1322
66101SOL     OW 8232   7.363  11.434   2.409  0.0316 -0.2210  0.3051
66101SOL    HW1 8233   7.281  11.480   2.428  0.9769  2.0804 -0.8862
66101SOL    HW2 8234   7.363  11.360   2.470 -2.5896  0.0898  0.8078
66102SOL     OW 8235  10.989   3.268   1.063 -1.0710 -0.2058  0.9350
66102SOL    HW1 8236  11.031   3.347   1.096  1.6883 -1.2987  0.3787
66102SOL    HW2 8237  10.917   3.299   1.009 -0.7779  1.8610  1.6671
66103SOL     OW 8238   1.127   7.134  11.399 -0.5756 -0.3936  0.2172
66103SOL    HW1 8239   1.082   7.119  11.482 -2.5448  1.0519 -0.4872
66103SOL    HW2 8240   1.056   7.143  11.335  0.8065  0.3757 -1.2912
66104SOL     OW 8241   4.872   4.870   2.649 -0.5736  0.2321 -0.5642
66104SOL    HW1 8242   4.912   4.862   2.736  1.3859  2.8132 -1.0999
66104SOL    HW2 8243   4.848   4.962   2.642  0.2903  0.3406 -3.1330
66105SOL     OW 8244   9.758   1.770   5.373  0.0784 -0.0580 -0.5673
66105SOL    HW1 8245   9.755   1.727   5.458 -0.6996  0.7076 -0.1926
66105SOL    HW2 8246   9.847   1.804   5.365 -0.6117  2.4290  1.2607
66106SOL     OW 8247   1.165   9.241   7.756 -0.6627  0.7105 -0.4729
66106SOL    HW1 8248   1.198   9.226   7.667 -0.1273 -0.7058 -0.0677
66106SOL    HW2 8249   1.213   9.178   7.810 -1.5430  1.0153  0.7055
66107SOL     OW 8250  11.324   9.878   3.446  0.0502  0.3312 -0.0261
66107SOL    HW1 8251  11.320   9.782   3.450 -1.4641  0.3661  0.0098
66107SOL    HW2 8252  11.340   9.905   3.536 -1.0249  0.1420  0.2333
66108SOL     OW 8253  13.126   0.802  12.945  0.1951  0.4033  0.1762
66108SOL    HW1 8254  13.120   0.707  12.931 -2.3077  0.8538 -3.0775
66108SOL    HW2 8255  13.065   0.819  13.017  0.7262 -0.4245  0.8479
66109SOL     OW 8256   6.680   2.973   6.125 -0.6625  0.1112 -0.3641
66109SOL    HW1 8257   6.606   3.016   6.083 -0.9504 -0.5580 -0.5645
66109SOL    HW2 8258   6.729   2.933   6.053 -1.2846 -1.2420 -0.0822
66110SOL     OW 8259  10.187   2.383  11.626 -0.0330  0.2643  0.5752
66110SOL    HW1 8260  10.114   2.376  11.688 -1.5679  0.5381 -1.1006
66110SOL    HW2 8261  10.185   2.300  11.578  0.6923  0.3225  0.4417
66111SOL     OW 8262   7.193   6.998   6.415  0.7775 -0.0912 -0.1281
66111SOL    HW1 8263   7.226   7.081   6.380  0.7359  0.0014  0.0526
66111SOL    HW2 8264   7.100   6.998   6.394  0.2041  1.0502  2.0246
66112SOL     OW 8265   1.577  12.437   3.669 -0.1435 -0.1914  0.4945
66112SOL    HW1 8266   1.508  12.372   3.653  0.7736 -1.7827  2.5679
66112SOL    HW2 8267   1.544  12.517   3.628 -1.6857 -1.7132 -1.5083
66113SOL     OW 8268   2.326   4.773   1.620  0.2171  0.2143  0.3896
66113SOL    HW1 8269   2.350   4.694   1.669  1.1896  1.4008  1.9152
66113SOL    HW2 8270   2.379   4.843   1.658 -0.9576  1.7279 -0.5905
66114SOL     OW 8271   8.716  11.949  10.202  0.4278  0.3700  0.0297
66114SOL    HW1 8272   8.631  11.964  10.161  1.1774 -0.1711 -1.8587
66114SOL    HW2 8273   8.699  11.886  10.272 -0.7188  0.2834 -0.3028
66115SOL     OW 8274   8.409   6.990   4.719  0.4874  0.1445  0.0034
66115SOL    HW1 8275   8.329   6.960   4.676  0.0137  1.0752  0.2145
66115SOL    HW2 8276   8.384   7.072   4.762  0.7791 -0.9702  2.5112
66116SOL     OW 8277   1.649   8.056   6.726 -0.2317  0.6530  0.1567
66116SOL    HW1 8278   1.589   8.129   6.713 -0.1007  0.7572  0.1488
66116SOL    HW2 8279   1.662   8.020   6.638 -1.3968 -0.2459  0.3223
66117SOL     OW 8280   2.022  13.145   0.674  0.0106 -0.6816  0.2487
66117SOL    HW1 8281   2.092  13.139   0.738 -0.5231 -1.2564  0.7954
66117SOL    HW2 8282   2.007  13.055   0.647 -2.6384 -1.0403  2.4942
66118SOL     OW 8283   3.393   2.831   8.251 -0.4331 -0.2468 -0.8564
66118SOL    HW1 8284   3.359   2.862   8.335  1.1813 -0.2342 -0.1718
66118SOL    HW2 8285   3.357   2.892   8.186 -0.8234  0.4005 -0.0505
66119SOL     OW 8286   2.968   6.931   5.098  0.0728 -0.0481 -0.0322
66119SOL    HW1 8287   3.059   6.960   5.099  1.5040 -3.9417  0.0243
66119SOL    HW2 8288   2.964   6.860   5.162 -2.4770 -1.3406 -1.4291
66120SOL     OW 8289   6.269   8.586  11.167  0.3709  0.1269  0.2124
66120SOL    HW1 8290   6.284   8.668  11.214  0.0676  0.2972  0.0109
66120SOL    HW2 8291   6.175   8.586  11.148  0.5426  0.2073 -0.6756
66121SOL     OW 8292  11.820   2.661   2.000  0.1670  0.8165 -0.2465
66121SOL    HW1 8293  11.875   2.700   1.933  1.0323 -0.9341 -0.6120
66121SOL    HW2 8294  11.879   2.603   2.048 -0.9015  0.4944  0.7142
66122SOL     OW 8295   0.929  11.738   7.587  0.6952  0.0596  0.0545
66122SOL    HW1 8296   0.848  11.719   7.634 -0.4329  0.1920 -1.7637
66122SOL    HW2 8297   0.996  11.685   7.632  0.0897  1.5322  2.9273
66123SOL     OW 8298   1.808  12.409   1.971 -0.2415 -0.0211  0.2522
66123SOL    HW1 8299   1.843  12.384   2.057  0.8839  1.1392  0.1753
66123SOL    HW2 8300   1.803  12.505   1.975  0.6615  0.1218 -1.2622
66124SOL     OW 8301   5.391   4.463   7.516  0.8581 -0.6210 -0.1512
66124SOL    HW1 8302   5.395   4.442   7.423 -1.4249 -0.3129 -0.3632
66124SOL    HW2 8303   5.336   4.394   7.554  0.4276  0.1524  0.6679
66125SOL     OW 8304   7.698  12.540   0.171  0.0055 -0.3085 -0.2150
66125SOL    HW1 8305   7.605  12.554   0.155  0.0343  0.2278  0.0658
66125SOL    HW2 8306   7.706  12.536   0.266  0.2251 -0.6867 -0.2460
66126SOL     OW 8307   6.855   4.479  12.090  0.0982 -0.1692 -0.2918
66126SOL    HW1 8308   6.897   4.396  12.111  1.0725  0.2019 -0.7292
66126SOL    HW2 8309   6.904   4.544  12.139 -0.6857  0.1591  0.0792
66127SOL     OW 8310   9.517   9.130   1.023 -0.4178  0.5818 -0.3612
66127SOL    HW1 8311   9.428   9.119   1.054 -0.7584  1.1499 -1.0997
66127SOL    HW2 8312   9.572   9.102   1.096 -1.1815  1.5390  0.6093
66128SOL     OW 8313   5.722  12.068   4.109 -0.2964  0.6066 -0.0501
66128SOL    HW1 8314   5.692  12.158   4.124 -0.0959  0.5664  0.6517
66128SOL    HW2 8315   5.800  12.078   4.054 -0.4432  0.8386 -0.2208
66129SOL     OW 8316   6.727   2.390  13.275 -0.1655 -0.3392 -0.1540
66129SOL    HW1 8317   6.718   2.326  13.205 -0.7405 -2.3231  1.6345
66129SOL    HW2 8318   6.639   2.399  13.311  0.2521  0.0532  0.8144
66130SOL     OW 8319   0.236  12.367  12.667 -0.5787  0.2929 -0.3293
66130SOL    HW1 8320   0.142  12.350  12.657 -0.3437 -0.7663 -0.9700
66130SOL    HW2 8321   0.273  12.282  12.688  0.2252  0.7419  0.1067
66131SOL     OW 8322   8.863  11.531   9.485 -0.0283  0.2731 -0.7831
66131SOL    HW1 8323   8.949  11.489   9.485 -0.7607 -1.3377 -1.8146
66131SOL    HW2 8324   8.874  11.609   9.430  1.1797  1.0918  0.5602
66132SOL     OW 8325   5.354  11.390   6.570 -0.0651  0.1330  0.8419
66132SOL    HW1 8326   5.271  11.343   6.572  0.5172 -0.9600  0.2711
66132SOL    HW2 8327   5.365  11.418   6.479  0.8888 -1.0471  0.5757
66133SOL     OW 8328   5.895   6.943   8.566 -0.1933  0.1699  0.5171
66133SOL    HW1 8329   5.988   6.961   8.576 -0.0148 -0.6447  0.4449
66133SOL    HW2 8330   5.859   6.951   8.654 -0.7840  4.0841  0.0700
66134SOL     OW 8331   2.443  12.157  11.565  1.1533 -0.1468 -0.1876
66134SOL    HW1 8332   2.440  12.230  11.627 -1.6121  0.7046 -1.1509
66134SOL    HW2 8333   2.502  12.093  11.605  4.4469  2.8829  0.2742
66135SOL     OW 8334   4.714   7.734  13.148 -0.2531  0.1462  0.4604
66135SOL    HW1 8335   4.740   7.766  13.234 -1.2749 -0.3708  0.9764
66135SOL    HW2 8336   4.776   7.775  13.088 -1.6537  3.4123  1.0373
66136SOL     OW 8337   0.235  10.728   0.857  0.3066  0.3395  0.8964
66136SOL    HW1 8338   0.187  10.764   0.932  0.0185  2.7211 -0.3116
66136SOL    HW2 8339   0.168  10.714   0.790  0.9247  1.1944  0.0749
66137SOL     OW 8340   8.305   4.444  10.853  0.2962  0.3732 -0.1698
66137SOL    HW1 8341   8.264   4.486  10.928 -1.5308 -1.6620  0.0642
66137SOL    HW2 8342   8.301   4.510  10.784  0.0004  1.5029  0.8890
66138SOL     OW 8343   7.537   4.548   9.230  0.0483  0.3777  0.7320
66138SOL    HW1 8344   7.513   4.464   9.270 -1.5306  1.1055  1.4157
66138SOL    HW2 8345   7.560   4.526   9.140 -1.0101 -0.6980  0.7028
66139SOL     OW 8346   9.311   7.339   9.907  0.5549 -0.2863  0.0144
66139SOL    HW1 8347   9.324   7.294   9.824  0.3254  0.4364 -0.4284
66139SOL    HW2 8348   9.399   7.364   9.935  0.5659  0.1841 -0.4291
66140SOL     OW 8349   4.805  10.914  10.557 -0.3921  0.4203 -1.0555
66140SOL    HW1 8350   4.829  11.002  10.526  1.7061  0.0988 -0.4967
66140SOL    HW2 8351   4.802  10.923  10.653 -4.5393  0.8600 -1.0829
66141SOL     OW 8352   5.535  11.903   5.704  0.2391 -0.3412 -0.3024
66141SOL    HW1 8353   5.500  11.845   5.772 -0.5237 -0.1514 -0.5229
66141SOL    HW2 8354   5.458  11.943   5.664  0.6477  4.2309  2.6880
66142SOL     OW 8355   4.451   0.401   8.808  0.3387  0.4989  0.4678
66142SOL    HW1 8356   4.489   0.488   8.817 -1.2195  1.4115 -1.1634
66142SOL    HW2 8357   4.515   0.353   8.754  0.0079  1.4687 -0.8186
66143SOL     OW 8358   9.634   0.451  10.522  0.1552 -0.3631  0.4571
66143SOL    HW1 8359   9.641   0.356  10.530 -1.0155 -0.5508 -0.4853
66143SOL    HW2 8360   9.564   0.465  10.458 -1.4788  1.1597  2.4268
66144SOL     OW 8361   6.236   1.218   9.750  0.4783  0.1791  0.3342
66144SOL    HW1 8362   6.201   1.257   9.670 -1.5881  2.5809  2.2421
66144SOL    HW2 8363   6.329   1.243   9.749  0.6712 -0.4120 -1.5423
66145SOL     OW 8364   1.872  10.262   0.856 -0.0509 -0.2045 -0.2666
66145SOL    HW1 8365   1.903  10.349   0.832 -0.8642  0.1864  0.0447
66145SOL    HW2 8366   1.794  10.249   0.802  0.1201 -0.7820 -0.3796
66146SOL     OW 8367   3.400  12.983   5.267  0.5189  0.1529 -0.4938
66146SOL    HW1 8368   3.472  13.035   5.303 -1.1741  0.9075  2.1035
66146SOL    HW2 8369   3.325  13.006   5.321 -1.6609 -0.7875 -2.9195
66147SOL     OW 8370   1.744  11.919   6.420  0.1081 -0.5882 -0.0902
66147SOL    HW1 8371   1.693  11.917   6.339  1.8433  1.6592 -1.3279
66147SOL    HW2 8372   1.816  11.857   6.405  1.2059  0.8235 -0.8894
66148SOL     OW 8373   3.902  10.775   1.499  0.8574 -0.1670 -0.3969
66148SOL    HW1 8374   3.812  10.748   1.482  0.7423 -1.4599  1.8487
66148SOL    HW2 8375   3.909  10.862   1.460 -1.5492  0.2249 -0.0977
66149SOL     OW 8376  13.284   0.803   1.952 -0.4417  0.7276 -0.5431
66149SOL    HW1 8377  13.328   0.799   2.037 -0.4725 -0.7502 -0.5756
66149SOL    HW2 8378  13.314   0.886   1.914  0.0784  1.0998  0.6253
66150SOL     OW 8379   0.565   9.272   0.670 -0.3955 -0.3552 -0.3137
66150SOL    HW1 8380   0.597   9.359   0.694 -0.4433 -0.7755  1.4012
66150SOL    HW2 8381   0.644   9.222   0.650 -0.1178 -0.7125  1.5538
66151SOL     OW 8382   0.182   5.339   9.775 -0.7294 -0.4360 -0.9982
66151SOL    HW1 8383   0.264   5.332   9.725 -0.0332  0.2748 -0.0097
66151SOL    HW2 8384   0.195   5.279   9.849  0.0120  1.5236  0.5703
66152SOL     OW 8385  12.950   7.475   4.764  0.2873  0.3220 -0.2396
66152SOL    HW1 8386  12.912   7.467   4.851  0.5941  0.4068 -0.0972
66152SOL    HW2 8387  13.037   7.436   4.772 -0.7869 -2.5427 -1.2770
66153SOL     OW 8388   8.542  13.175   7.409  0.3325  0.3899 -0.1346
66153SOL    HW1 8389   8.605  13.104   7.419 -0.8809 -0.7074 -0.0674
66153SOL    HW2 8390   8.506  13.188   7.497  1.6108  2.1617  0.1915
66154SOL     OW 8391  11.624  10.791   2.294 -0.3811 -0.7758 -0.2279
66154SOL    HW1 8392  11.593  10.882   2.299 -1.7011 -1.1801 -0.5638
66154SOL    HW2 8393  11.704  10.791   2.345 -0.9416  0.3500  0.7175
66155SOL     OW 8394   2.109   1.652   1.412 -0.4419  0.1906  0.3446
66155SOL    HW1 8395   2.204   1.662   1.412 -0.4329  0.1276  1.0687
66155SOL    HW2 8396   2.092   1.585   1.346  0.1666 -1.1391  1.4945
66156SOL     OW 8397   4.292   0.658   3.342 -0.3836 -0.2494  0.1578
66156SOL    HW1 8398   4.305   0.684   3.433  0.4987  1.3213 -0.3753
66156SOL    HW2 8399   4.339   0.725   3.291  0.2791 -1.8240 -1.4068
66157SOL     OW 8400   2.913   6.533   9.205  0.4792  0.3794 -0.4178
66157SOL    HW1 8401   2.866   6.471   9.148 -1.7936  1.7725 -0.1799
66157SOL    HW2 8402   2.952   6.595   9.144  0.4357  0.2750 -0.5546
66158SOL     OW 8403   2.910   7.418   8.375 -0.3988 -0.4426 -0.1637
66158SOL    HW1 8404   2.881   7.489   8.433  1.2502 -0.4704  0.7576
66158SOL    HW2 8405   2.838   7.355   8.377 -0.3577 -0.5225  2.0162
66159SOL     OW 8406   1.619   0.639  10.629 -0.1336 -0.5967 -0.1310
66159SOL    HW1 8407   1.645   0.614  10.718 -1.5989 -0.1734  0.4478
66159SOL    HW2 8408   1.528   0.666  10.638  0.4468  1.9963 -1.2699
66160SOL     OW 8409   0.766  12.774   1.961 -0.0118  0.6156  0.3147
66160SOL    HW1 8410   0.767  12.730   1.876 -0.4980  1.7623 -0.3183
66160SOL    HW2 8411   0.700  12.727   2.012  1.9266 -1.5978  0.9604
66161SOL     OW 8412  12.320   1.927   9.348  0.1756  0.0446 -0.4899
66161SOL    HW1 8413  12.241   1.979   9.332  0.5598  1.2315  1.2616
66161SOL    HW2 8414  12.298   1.839   9.316 -1.2219  0.7605 -1.6005
66162SOL     OW 8415   3.748   2.646   8.905  0.0282 -0.0831 -0.6476
66162SOL    HW1 8416   3.741   2.711   8.974 -2.1856  1.6672 -2.3392
66162SOL    HW2 8417   3.819   2.678   8.849  1.8908 -1.5545  0.7366
66163SOL     OW 8418  12.836   8.554   6.330  0.4960 -0.0120 -0.4696
66163SOL    HW1 8419  12.919   8.521   6.294  0.3719 -0.5355 -0.2835
66163SOL    HW2 8420  12.772   8.487   6.307  0.5674 -0.8180  1.4503
66164SOL     OW 8421   9.619   0.284   6.072  0.2522  0.2860  0.0703
66164SOL    HW1 8422   9.646   0.210   6.126 -0.5206 -1.0818 -1.3485
66164SOL    HW2 8423   9.543   0.252   6.024 -1.5817  2.7463  1.0931
66165SOL     OW 8424   3.979  12.281   6.784 -0.2862  0.0444 -0.0550
66165SOL    HW1 8425   4.011  12.213   6.844 -0.9633  0.0896  0.3759
66165SOL    HW2 8426   4.058  12.319   6.747  0.1046 -1.8160 -1.2808
66166SOL     OW 8427  10.549   3.982   5.404  0.3807 -0.2501 -0.1662
66166SOL    HW1 8428  10.598   3.922   5.347  0.9213 -0.6545  0.7096
66166SOL    HW2 8429  10.478   4.013   5.349 -0.0418 -1.8628 -0.5944
66167SOL     OW 8430   2.202   1.141   8.547  0.4341  0.2385 -0.6074
66167SOL    HW1 8431   2.262   1.085   8.597  0.8123  1.2234  0.0598
66167SOL    HW2 8432   2.159   1.195   8.613  0.5467  1.1916 -1.2974
66168SOL     OW 8433  12.574   5.119   0.932 -0.3256  0.5245  0.1605
66168SOL    HW1 8434  12.554   5.128   1.025  0.9593  2.5521  0.2797
66168SOL    HW2 8435  12.514   5.179   0.888  0.6224  1.3073 -0.0955
66169SOL     OW 8436   4.618   8.285   3.004 -0.3984 -0.1279  0.1634
66169SOL    HW1 8437   4.673   8.352   3.044 -0.9459  0.4724 -0.0920
66169SOL    HW2 8438   4.575   8.242   3.078  0.3233 -0.5312  0.3588
66170SOL     OW 8439   2.301   2.963   0.328  0.1032  0.7510  0.0900
66170SOL    HW1 8440   2.279   2.983   0.419  0.0605  1.4794 -0.0756
66170SOL    HW2 8441   2.376   2.905   0.334  0.2016  0.9221  0.5914
66171SOL     OW 8442   5.941  11.753   9.655  0.0302 -0.4662  0.2605
66171SOL    HW1 8443   6.025  11.764   9.609  0.5979 -2.2706  0.7765
66171SOL    HW2 8444   5.880  11.806   9.605  0.7954 -1.7120 -2.1613
66172SOL     OW 8445   1.721   8.361   9.044 -0.0183 -0.2753 -0.2515
66172SOL    HW1 8446   1.783   8.433   9.034 -0.6523  0.1647 -1.1623
66172SOL    HW2 8447   1.711   8.325   8.956  1.7644 -2.7689  0.4440
66173SOL     OW 8448   1.911   0.301   5.303  0.3239 -0.4213  0.0585
66173SOL    HW1 8449   1.955   0.385   5.314  1.5153 -0.9896 -0.2582
66173SOL    HW2 8450   1.982   0.238   5.291 -0.5658 -1.4257 -0.0540
66174SOL     OW 8451   0.120  12.337  11.015 -0.0645  0.1524  0.0593
66174SOL    HW1 8452   0.041  12.313  11.063 -0.3752  3.7926  1.7525
66174SOL    HW2 8453   0.183  12.270  11.038 -2.2273 -2.1425 -0.2786
66175SOL     OW 8454   0.601  10.844   5.591  0.7563  0.1504  0.1988
66175SOL    HW1 8455   0.551  10.908   5.642  0.9269 -0.3356  0.9892
66175SOL    HW2 8456   0.536  10.800   5.536  0.6306  0.9582 -0.3196
66176SOL     OW 8457  11.777   0.592   8.857  0.3201 -0.9494  0.0575
66176SOL    HW1 8458  11.692   0.555   8.884  0.6762 -0.8196  1.4459
66176SOL    HW2 8459  11.768   0.686   8.874  0.3814 -0.7771 -0.8258
66177SOL     OW 8460   4.268   1.315   6.820 -0.0306  0.5014 -0.0675
66177SOL    HW1 8461   4.337   1.369   6.780 -0.4709  0.9807 -0.1907
66177SOL    HW2 8462   4.216   1.285   6.745  1.7134 -2.3100 -0.3101
66178SOL     OW 8463   6.766  10.095   2.255 -0.1091  0.1995  0.0019
66178SOL    HW1 8464   6.737  10.185   2.269 -1.6368 -0.1552 -0.6683
66178SOL    HW2 8465   6.742  10.075   2.165 -0.6231 -1.1664  0.4048
66179SOL     OW 8466   7.818   7.993   7.387 -0.5448  0.1021 -0.1941
66179SOL    HW1 8467   7.740   7.937   7.383 -1.5648  1.4464  0.1674
66179SOL    HW2 8468   7.791   8.075   7.346  0.9450  0.3298 -0.7823
66180SOL     OW 8469  11.872   0.519   5.317  0.3939 -0.2274 -0.1931
66180SOL    HW1 8470  11.860   0.507   5.223  1.4938  0.2418 -0.4048
66180SOL    HW2 8471  11.967   0.526   5.329  0.5997 -3.5739  1.3406
66181SOL     OW 8472  13.276   7.743   3.232  0.2599 -0.0599 -0.1975
66181SOL    HW1 8473  13.217   7.769   3.161  1.2174  1.0765 -0.5892
66181SOL    HW2 8474  13.350   7.701   3.188  0.3668 -0.3020  0.2053
66182SOL     OW 8475  10.455   7.689   9.529  0.1426  0.3795 -0.0509
66182SOL    HW1 8476  10.537   7.691   9.580 -0.2365  0.7362  0.5638
66182SOL    HW2 8477  10.417   7.603   9.547  0.7633 -0.1111 -0.9789
66183SOL     OW 8478   1.197   2.892   7.059 -0.2045  0.5729  0.2143
66183SOL    HW1 8479   1.284   2.922   7.034 -0.8194  1.8356 -0.5361
66183SOL    HW2 8480   1.157   2.968   7.100 -0.8651 -0.0780  0.7952
66184SOL     OW 8481   9.391   6.615  12.007 -0.1638 -0.4563  0.0752
66184SOL    HW1 8482   9.398   6.583  11.917 -0.1505 -0.8560  0.2160
66184SOL    HW2 8483   9.297   6.628  12.021 -0.2619 -1.3724  0.3342
66185SOL     OW 8484   2.661   0.699   3.866  0.2995  0.5202  0.0474
66185SOL    HW1 8485   2.628   0.714   3.955 -0.0466 -0.2741  0.0602
66185SOL    HW2 8486   2.585   0.712   3.810 -0.0400 -1.2388  0.0712
66186SOL     OW 8487   2.468   6.355   9.661 -0.5589 -0.5165 -0.0274
66186SOL    HW1 8488   2.532   6.352   9.590 -2.1531  0.1371 -1.5779
66186SOL    HW2 8489   2.433   6.266   9.665  0.7191 -0.9988  1.1428
66187SOL     OW 8490   0.300   8.843   6.059  0.0789  0.3933  0.3605
66187SOL    HW1 8491   0.286   8.786   6.135 -0.0196  1.3898  1.1040
66187SOL    HW2 8492   0.326   8.783   5.989  0.4724 -0.5118  1.2569
66188SOL     OW 8493  10.123   2.638   3.668  0.1365 -0.0741 -0.1880
66188SOL    HW1 8494  10.126   2.631   3.573 -1.9104  4.0174 -0.7965
66188SOL    HW2 8495  10.208   2.677   3.691  0.3836 -0.4700 -0.4239
66189SOL     OW 8496  12.548   7.009   6.525  0.2210 -0.1292 -0.3709
66189SOL    HW1 8497  12.492   7.054   6.462 -0.7897  0.2919  0.7915
66189SOL    HW2 8498  12.518   6.918   6.525 -0.7978  0.1924  0.5822
66190SOL     OW 8499   4.170   9.926   1.454  0.3067 -0.8103 -0.6422
66190SOL    HW1 8500   4.160   9.984   1.379  0.4925 -0.8043 -0.6601
66190SOL    HW2 8501   4.105   9.958   1.517  0.8094 -0.2169 -0.4162
66191SOL     OW 8502   5.387  11.698  12.762  0.3893  0.0058  0.1185
66191SOL    HW1 8503   5.477  11.678  12.736  0.2909  1.0676 -1.1455
66191SOL    HW2 8504   5.338  11.697  12.680 -0.6970 -0.1846  0.7442
66192SOL     OW 8505   6.854  12.455   9.232  0.1871  0.3173  0.2850
66192SOL    HW1 8506   6.868  12.484   9.142 -0.5659 -2.3384 -0.7769
66192SOL    HW2 8507   6.919  12.385   9.246 -2.0454 -1.8643  0.4270
66193SOL     OW 8508   0.848   4.990   0.879  0.8156 -0.3929 -0.3928
66193SOL    HW1 8509   0.786   5.009   0.808 -0.0806 -2.0072 -0.0842
66193SOL    HW2 8510   0.827   5.054   0.947  0.5641  0.0953 -0.9219
66194SOL     OW 8511   6.838  11.948  11.657  0.7633 -0.0907  0.1832
66194SOL    HW1 8512   6.870  12.036  11.637 -0.1921  0.3909  0.7388
66194SOL    HW2 8513   6.880  11.892  11.592  1.4652  0.7554 -0.1064
66195SOL     OW 8514   3.568   2.055  10.280  0.1708 -0.3729 -0.2106
66195SOL    HW1 8515   3.564   2.104  10.362 -0.8488 -0.6140 -0.0924
66195SOL    HW2 8516   3.635   1.988  10.296  0.7089  0.2164  0.0532
66196SOL     OW 8517   9.983   5.075   7.713 -0.1615 -0.2586  0.0972
66196SOL    HW1 8518  10.058   5.021   7.687 -1.3124 -1.4261 -0.9233
66196SOL    HW2 8519   9.962   5.127   7.635 -1.1448 -0.8383 -0.0475
66197SOL     OW 8520   1.252   0.379   4.982  0.0956  0.2933  0.2965
66197SOL    HW1 8521   1.322   0.413   5.039  0.8248 -1.4402  0.5095
66197SOL    HW2 8522   1.202   0.456   4.957 -0.3801  1.1548  3.4359
66198SOL     OW 8523   9.707   8.845   0.888  0.3738  0.4196  0.0337
66198SOL    HW1 8524   9.734   8.796   0.810  2.8249  1.3650  0.1763
66198SOL    HW2 8525   9.759   8.925   0.885 -0.3689  1.0432  2.0165
66199SOL     OW 8526  11.653   0.340   4.822  0.0299  0.4472 -0.5996
66199SOL    HW1 8527  11.745   0.341   4.797  0.0509  3.1177 -0.6028
66199SOL    HW2 8528  11.605   0.367   4.744 -0.5232  1.4603  0.0627
66200SOL     OW 8529   3.398  10.485   1.608  0.8853 -0.7994  0.1648
66200SOL    HW1 8530   3.416  10.565   1.658 -0.3278 -0.4391  0.0762
66200SOL    HW2 8531   3.449  10.417   1.651 -0.6569 -0.6529  2.4085
66201SOL     OW 8532   5.074   8.280   3.732 -0.6743 -0.2883 -0.2851
66201SOL    HW1 8533   5.016   8.243   3.665 -0.1610 -1.7784  0.0564
66201SOL    HW2 8534   5.103   8.364   3.695 -3.8259  1.0612 -0.0311
66202SOL     OW 8535   9.189   8.029   4.157 -0.0462 -0.0614  0.2877
66202SOL    HW1 8536   9.206   8.122   4.174  1.2664  0.0429 -1.3607
66202SOL    HW2 8537   9.159   8.027   4.066 -1.0591 -1.1589  0.6290
66203SOL     OW 8538  11.018   1.928  10.362 -0.5524 -0.3937  0.5503
66203SOL    HW1 8539  11.061   1.896  10.441  0.3359  1.4160  0.8575
66203SOL    HW2 8540  10.957   1.995  10.393 -2.2251 -1.5489 -0.0761
66204SOL     OW 8541  11.106   6.124  12.029 -0.4453  0.4904  0.0687
66204SOL    HW1 8542  11.167   6.050  12.030 -1.2876 -0.2243 -0.2158
66204SOL    HW2 8543  11.073   6.129  12.118 -0.9760  0.0124 -0.0944
66205SOL     OW 8544   9.239   8.460   7.018  0.0750  0.1598 -0.0513
66205SOL    HW1 8545   9.200   8.387   6.969 -1.2864  0.5984  0.3499
66205SOL    HW2 8546   9.306   8.419   7.073 -0.0168 -0.6476 -0.5198
66206SOL     OW 8547  11.268   0.595   9.099 -0.7141 -0.2970  0.2090
66206SOL    HW1 8548  11.297   0.576   9.189 -1.4260  0.5860  0.6437
66206SOL    HW2 8549  11.196   0.657   9.110  0.1356  0.9826 -1.0240
66207SOL     OW 8550   7.758  13.200   8.625 -0.6971 -0.0267  0.2317
66207SOL    HW1 8551   7.802  13.254   8.691  0.9468  0.2852 -1.0491
66207SOL    HW2 8552   7.672  13.239   8.615  0.0008  1.5798  0.2617
66208SOL     OW 8553   1.501   9.597   8.113  0.5215 -0.0718  0.1689
66208SOL    HW1 8554   1.560   9.538   8.159  0.0887 -2.1294 -1.7434
66208SOL    HW2 8555   1.451   9.540   8.055  0.1068  2.1876 -1.8400
66209SOL     OW 8556   8.607   8.683   4.166  0.0774  0.2610 -0.8189
66209SOL    HW1 8557   8.643   8.768   4.140  0.0714  0.9719  1.2934
66209SOL    HW2 8558   8.678   8.621   4.148  0.3949  0.8319 -1.6032
66210SOL     OW 8559   2.719   5.838   5.377 -0.6401  0.0598 -0.0219
66210SOL    HW1 8560   2.646   5.898   5.363 -1.8447 -1.3779 -0.0999
66210SOL    HW2 8561   2.698   5.761   5.324  0.6307 -0.6445  0.4435
66211SOL     OW 8562   3.677   8.310  12.814  0.1173  0.3233 -0.8299
66211SOL    HW1 8563   3.648   8.296  12.905 -0.7053  1.4531 -0.8929
66211SOL    HW2 8564   3.688   8.222  12.779  1.0189 -0.1333  0.5400
66212SOL     OW 8565  12.453   8.158   7.249 -0.1788  0.0219  0.1254
66212SOL    HW1 8566  12.362   8.185   7.263 -0.4229 -0.3733 -0.6344
66212SOL    HW2 8567  12.494   8.231   7.204  0.0242  0.4040  0.9072
66213SOL     OW 8568   6.427   1.119   5.498  0.0827  0.2437 -0.3694
66213SOL    HW1 8569   6.399   1.027   5.498  1.0897 -0.0774  0.1787
66213SOL    HW2 8570   6.400   1.152   5.413 -0.7664 -0.4110 -0.3710
66214SOL     OW 8571   2.484   0.644  12.735  0.8068  0.0225 -0.0825
66214SOL    HW1 8572   2.497   0.729  12.778  0.4605 -0.5934  1.3021
66214SOL    HW2 8573   2.557   0.636  12.674  0.4304  1.6372 -0.7971
66215SOL     OW 8574   1.085  13.159  10.296  0.0642  0.3462  0.1441
66215SOL    HW1 8575   1.056  13.076  10.334  1.7087 -1.0889 -1.5286
66215SOL    HW2 8576   1.159  13.186  10.351  1.3681 -0.8573 -0.9349
66216SOL     OW 8577   5.558   8.740  12.138  0.1454 -0.1737 -0.6938
66216SOL    HW1 8578   5.526   8.731  12.228  0.9623  0.1206 -0.3612
66216SOL    HW2 8579   5.606   8.823  12.138  0.4362 -0.3330 -1.3095
66217SOL     OW 8580  11.027   0.700  11.198 -0.4013 -0.0083  0.1269
66217SOL    HW1 8581  11.085   0.698  11.274 -0.5432 -0.2000  0.2307
66217SOL    HW2 8582  10.974   0.779  11.210 -0.9863 -0.4739  0.6472
66218SOL     OW 8583   3.879   1.300   5.014 -0.5100  0.1990  0.2604
66218SOL    HW1 8584   3.855   1.379   5.062  0.2221  1.0594 -0.7423
66218SOL    HW2 8585   3.849   1.317   4.924  0.4463 -0.2774 -0.1629
66219SOL     OW 8586   9.348   3.298   5.139 -0.3990 -0.1864 -0.1425
66219SOL    HW1 8587   9.370   3.290   5.046 -0.2308 -1.0688 -0.0342
66219SOL    HW2 8588   9.421   3.349   5.176  1.4959 -2.9317  0.1772
66220SOL     OW 8589   3.902   9.197   6.864  0.1934 -0.2232 -0.3595
66220SOL    HW1 8590   3.979   9.225   6.816  1.2709 -0.7910  0.9622
66220SOL    HW2 8591   3.882   9.270   6.922  0.8868 -0.7864  0.6138
66221SOL     OW 8592   8.524  11.585  10.114  0.3991 -0.3597  0.2382
66221SOL    HW1 8593   8.466  11.653  10.081 -2.3302 -1.6198  2.1456
66221SOL    HW2 8594   8.584  11.567  10.041 -2.4679  0.0481 -2.3832
66222SOL     OW 8595   5.665   6.414   5.245  0.5449 -0.1547  0.2708
66222SOL    HW1 8596   5.719   6.337   5.265 -1.1573 -2.0439 -1.8349
66222SOL    HW2 8597   5.576   6.387   5.267  0.0615  1.8342  0.9320
66223SOL     OW 8598   6.797   6.057  11.696  0.1036 -0.0605  0.1294
66223SOL    HW1 8599   6.871   6.024  11.748  0.1371 -0.0528  0.0872
66223SOL    HW2 8600   6.777   6.141  11.736  0.8885  0.4937 -0.6005
66224SOL     OW 8601   8.012   1.344  11.182  0.5545  0.8809 -0.1664
66224SOL    HW1 8602   7.960   1.334  11.102 -1.2522 -0.7057  1.1107
66224SOL    HW2 8603   8.069   1.267  11.184  0.5107  0.8522  0.1038
66225SOL     OW 8604   7.617   9.679   5.539 -0.2182 -0.0030  0.2897
66225SOL    HW1 8605   7.522   9.677   5.531 -0.2740 -0.5554  1.0365
66225SOL    HW2 8606   7.637   9.767   5.571 -0.7205 -0.7115  2.7801
66226SOL     OW 8607   6.755   6.719   7.411  0.3720 -0.5899 -0.4700
66226SOL    HW1 8608   6.702   6.761   7.344 -0.6848 -2.4730 -0.9135
66226SOL    HW2 8609   6.770   6.630   7.378  2.3166 -0.6763  0.4824
66227SOL     OW 8610   4.946   1.626   0.082  0.2968 -0.2847  0.1571
66227SOL    HW1 8611   5.008   1.698   0.079 -0.6082  0.4869 -1.0489
66227SOL    HW2 8612   4.967   1.573   0.005 -0.1274 -0.3745  0.1003
66228SOL     OW 8613   8.504   5.793  10.451  0.0143 -0.4004 -0.1339
66228SOL    HW1 8614   8.486   5.886  10.464 -2.3431 -0.8129 -0.1360
66228SOL    HW2 8615   8.516   5.784  10.356 -0.1587 -0.1758 -0.1778
66229SOL     OW 8616   9.931   1.430   2.881 -0.1953  0.0751 -0.0890
66229SOL    HW1 8617   9.894   1.351   2.840  2.2237 -0.4909 -1.3720
66229SOL    HW2 8618   9.997   1.461   2.818  0.9150  1.4521  1.6656
66230SOL     OW 8619   1.659   9.729   1.705  0.2636 -0.3831  0.5195
66230SOL    HW1 8620   1.646   9.647   1.751  2.2619 -1.4170 -0.5890
66230SOL    HW2 8621   1.592   9.730   1.637 -0.2884 -0.6843  1.0531
66231SOL     OW 8622   6.124  12.995   0.154 -0.2535  0.1212 -0.1504
66231SOL    HW1 8623   6.060  12.928   0.178  0.8920 -1.3986 -1.0928
66231SOL    HW2 8624   6.073  13.064   0.112 -1.4004 -0.4260  0.3095
66232SOL     OW 8625   8.499   0.968   9.950 -0.1518 -0.2085  0.3083
66232SOL    HW1 8626   8.482   0.880   9.986 -2.1893 -0.1487 -0.4290
66232SOL    HW2 8627   8.482   1.027  10.023  0.6338 -0.3667  0.6332
66233SOL     OW 8628   4.690   1.652   9.881  0.1632  0.3832 -0.1033
66233SOL    HW1 8629   4.733   1.736   9.897  0.4771 -0.1957  2.4025
66233SOL    HW2 8630   4.597   1.669   9.896  0.1479  0.4233 -0.2412
66234SOL     OW 8631   1.656   7.229   6.114  0.0163  0.0076 -0.0748
66234SOL    HW1 8632   1.713   7.250   6.040 -0.5971  1.5345 -0.1583
66234SOL    HW2 8633   1.610   7.311   6.132  0.9775  0.0092  2.7704
66235SOL     OW 8634   0.288   9.014  10.369 -0.0817 -0.1176  0.0270
66235SOL    HW1 8635   0.306   9.108  10.371 -2.3820  0.4053 -0.7131
66235SOL    HW2 8636   0.228   8.999  10.442 -1.4065 -0.5641 -1.0915
66236SOL     OW 8637  12.906   9.424   1.033  0.8684  0.6928  0.0986
66236SOL    HW1 8638  12.849   9.491   1.071 -0.5054 -1.0526  1.3057
66236SOL    HW2 8639  12.894   9.347   1.090  1.0318 -1.1241 -2.1804
66237SOL     OW 8640   4.236   7.396   4.797 -0.3398 -0.0846  0.0845
66237SOL    HW1 8641   4.279   7.319   4.835 -0.0505 -0.7038 -1.4347
66237SOL    HW2 8642   4.292   7.421   4.724  0.2505  2.3487  1.2387
66238SOL     OW 8643   5.904   0.069  10.436 -0.2415  0.4063 -0.1857
66238SOL    HW1 8644   5.994   0.069  10.404 -0.2765  2.1481 -0.3978
66238SOL    HW2 8645   5.905   0.008  10.509  0.8766 -0.3361 -0.7871
66239SOL     OW 8646  12.365  12.801   9.499 -0.4902 -0.1026 -0.2968
66239SOL    HW1 8647  12.412  12.852   9.565 -0.0232 -0.9048  0.0071
66239SOL    HW2 8648  12.427  12.794   9.426 -1.2210  1.2924 -1.0929
66240SOL     OW 8649  12.118   4.691   4.080 -0.0697 -0.6219 -0.3461
66240SOL    HW1 8650  12.031   4.666   4.050  0.0303 -1.7390  0.2122
66240SOL    HW2 8651  12.106   4.713   4.173  0.2434 -0.8674 -0.2424
66241SOL     OW 8652  12.721   9.747   5.831  0.4517  0.6950  0.5016
66241SOL    HW1 8653  12.741   9.760   5.923 -1.4386  0.2265  1.0157
66241SOL    HW2 8654  12.743   9.655   5.814 -1.0645  0.1940  1.0543
66242SOL     OW 8655   8.488   5.945   2.688 -0.8042  0.2533 -0.2360
66242SOL    HW1 8656   8.575   5.928   2.651 -0.9695  2.7435 -2.0298
66242SOL    HW2 8657   8.430   5.885   2.642 -0.3272  0.0889 -0.6323
66243SOL     OW 8658   5.101   7.922   5.852 -0.7554 -0.6117  0.5495
66243SOL    HW1 8659   5.168   7.883   5.909  1.0046  1.1090 -0.2391
66243SOL    HW2 8660   5.095   7.861   5.778  0.7966 -0.2599  0.0955
66244SOL     OW 8661   2.269  10.822  11.428 -0.0256  0.1052  0.9468
66244SOL    HW1 8662   2.299  10.749  11.482  1.5666 -0.0149 -0.0608
66244SOL    HW2 8663   2.231  10.884  11.491  0.5442 -0.6322  2.0474
66245SOL     OW 8664   9.229   8.289   1.935 -0.1392 -0.0771 -0.1972
66245SOL    HW1 8665   9.183   8.244   1.864  2.2178 -1.3329 -1.0189
66245SOL    HW2 8666   9.299   8.229   1.960  1.4572  1.9995  0.5647
66246SOL     OW 8667   5.580   0.927   1.407 -0.3772 -0.3295  0.7041
66246SOL    HW1 8668   5.660   0.940   1.458  0.4972  1.4794 -1.0034
66246SOL    HW2 8669   5.579   1.000   1.345 -0.5729 -3.1297 -2.9210
66247SOL     OW 8670   1.770   8.273  12.483  0.1604  0.1355  0.2652
66247SOL    HW1 8671   1.733   8.358  12.505  0.6083  0.5764 -0.5883
66247SOL    HW2 8672   1.697   8.223  12.447  0.5071  1.3347 -2.3309
66248SOL     OW 8673   2.091   0.734   2.724 -0.5043  0.2853  0.1632
66248SOL    HW1 8674   2.060   0.817   2.689 -2.3921 -1.2779 -2.3217
66248SOL    HW2 8675   2.178   0.723   2.686  0.6669  1.9575  2.1835
66249SOL     OW 8676  13.062   7.158   5.080  0.3628 -0.0617 -0.2161
66249SOL    HW1 8677  13.010   7.234   5.056 -0.3876 -0.5115 -0.0396
66249SOL    HW2 8678  13.075   7.111   4.998  0.1944 -0.1339 -0.2006
66250SOL     OW 8679   1.229   0.103   0.536 -0.0529  0.1000 -0.1403
66250SOL    HW1 8680   1.291   0.173   0.517  0.5171 -0.5636 -0.7297
66250SOL    HW2 8681   1.143   0.145   0.529  0.3043  1.1827  1.3128
66251SOL     OW 8682   4.786   6.767   7.304  0.7676 -0.1899 -0.0255
66251SOL    HW1 8683   4.695   6.796   7.293  0.5872 -1.0049 -0.7286
66251SOL    HW2 8684   4.817   6.815   7.381 -0.4169 -0.2901  0.5307
66252SOL     OW 8685   9.871   8.236   4.509  0.5244 -0.2669 -0.2442
66252SOL    HW1 8686   9.806   8.305   4.526 -0.0630 -0.4287 -1.7155
66252SOL    HW2 8687   9.821   8.155   4.514  0.3860 -0.3533 -2.1711
66253SOL     OW 8688  12.609   8.043  10.259  0.2166 -0.9387 -0.1922
66253SOL    HW1 8689  12.620   7.959  10.213  0.0297 -0.4550 -1.1371
66253SOL    HW2 8690  12.526   8.077  10.227  1.3264  0.6411 -1.4919
66254SOL     OW 8691   6.297   2.112   1.735  0.1939  0.3314  0.0902
66254SOL    HW1 8692   6.237   2.175   1.774  0.9392  0.9801  0.2024
66254SOL    HW2 8693   6.353   2.085   1.807  1.6874  1.6591 -0.5307
66255SOL     OW 8694   5.947   5.452  11.381  0.3895 -0.2499 -0.5903
66255SOL    HW1 8695   5.940   5.368  11.427  2.2861 -0.2858 -0.3177
66255SOL    HW2 8696   6.040   5.474  11.385 -0.1759  2.2397 -0.0146
66256SOL     OW 8697   9.784   6.361  10.523 -0.6614  0.0090  0.0602
66256SOL    HW1 8698   9.719   6.338  10.589  0.2664 -2.2739  0.2552
66256SOL    HW2 8699   9.741   6.344  10.439 -1.4835  1.9374  0.0334
66257SOL     OW 8700  11.800   6.406  11.415  0.2764  0.1128  0.0991
66257SOL    HW1 8701  11.837   6.403  11.503  1.4100  2.7261 -0.1915
66257SOL    HW2 8702  11.791   6.500  11.396 -2.9536 -0.3603 -1.3833
66258SOL     OW 8703   5.873   0.263   4.712 -0.3390  0.0397  0.6106
66258SOL    HW1 8704   5.892   0.329   4.778 -0.6276  0.3853  0.3525
66258SOL    HW2 8705   5.781   0.239   4.727  0.2672 -1.6394  1.8711
66259SOL     OW 8706   3.008  10.434  10.840 -0.0382  0.4807  0.3878
66259SOL    HW1 8707   3.050  10.367  10.786  0.5307 -0.0571  1.4680
66259SOL    HW2 8708   3.034  10.517  10.800 -1.1505  0.0912 -1.2706
66260SOL     OW 8709   2.587   3.523  10.565  1.1043 -0.1676  0.6003
66260SOL    HW1 8710   2.678   3.551  10.553  1.1726 -0.2147  1.0072
66260SOL    HW2 8711   2.592   3.451  10.628  1.0746 -2.0491 -1.4229
66261SOL     OW 8712  13.248   7.632   5.009 -0.2230 -0.1963 -0.0591
66261SOL    HW1 8713  13.321   7.571   5.002  0.2406  0.1406  1.4876
66261SOL    HW2 8714  13.184   7.588   5.065 -1.2376 -0.4740 -1.3638
66262SOL     OW 8715   6.946   9.126   9.241  0.1490  0.1902 -0.0986
66262SOL    HW1 8716   6.972   9.213   9.210  0.6855  0.1159  0.1305
66262SOL    HW2 8717   6.947   9.071   9.163 -0.3216  0.4199 -0.2677
66263SOL     OW 8718  13.103   5.028  10.872  0.0060 -0.6537  0.1552
66263SOL    HW1 8719  13.103   5.114  10.915 -0.3659  0.0815 -1.2608
66263SOL    HW2 8720  13.044   4.975  10.926  0.0330  0.0480  0.9070
66264SOL     OW 8721   0.480   9.769   9.496  0.0986  0.1836 -0.0288
66264SOL    HW1 8722   0.433   9.687   9.484  0.8216 -0.1647 -0.5686
66264SOL    HW2 8723   0.495   9.802   9.407  1.9646 -0.3637  0.0303
66265SOL     OW 8724   2.408   7.651   3.979  0.0787 -0.1026 -0.0502
66265SOL    HW1 8725   2.435   7.631   3.890 -0.0185 -0.4580 -0.0010
66265SOL    HW2 8726   2.459   7.591   4.034 -0.3878 -0.3821  0.0830
66266SOL     OW 8727  12.823   6.945   4.129 -0.0264  0.0844 -0.4191
66266SOL    HW1 8728  12.903   6.946   4.182  1.0349 -1.0879 -1.9314
66266SOL    HW2 8729  12.803   6.852   4.117 -1.7083  0.3451 -0.0023
66267SOL     OW 8730   5.391   9.042  12.121  0.0275 -0.0711  0.0081
66267SOL    HW1 8731   5.400   9.014  12.030  0.3835 -0.2814  0.1078
66267SOL    HW2 8732   5.478   9.073  12.146  0.2045 -0.9808  0.5910
66268SOL     OW 8733   2.841   6.818   4.161  0.6774 -0.5076 -0.2499
66268SOL    HW1 8734   2.783   6.743   4.170  1.3858 -1.1661 -1.0723
66268SOL    HW2 8735   2.782   6.894   4.161 -0.0538 -1.0619  0.3925
66269SOL     OW 8736   0.727  10.306   5.730 -0.6915 -0.4816  0.2757
66269SOL    HW1 8737   0.787  10.366   5.775 -0.5111  0.5924 -1.2911
66269SOL    HW2 8738   0.689  10.253   5.800 -0.2363  0.9136  1.6526
66270SOL     OW 8739   0.427   8.822  12.191  0.6056  0.0252  0.1663
66270SOL    HW1 8740   0.446   8.739  12.233 -1.0120 -0.2879  0.3450
66270SOL    HW2 8741   0.392   8.798  12.105  0.5992  0.5389  0.0217
66271SOL     OW 8742  11.770   1.130  12.424 -0.5566 -0.4237  0.0524
66271SOL    HW1 8743  11.850   1.129  12.476  0.0623 -2.8941 -0.8428
66271SOL    HW2 8744  11.785   1.196  12.357 -0.0038  0.3387  0.8953
66272SOL     OW 8745   5.695   6.114  11.614 -0.0864 -0.0914  0.9151
66272SOL    HW1 8746   5.681   6.026  11.582  0.0163  0.5079 -0.8617
66272SOL    HW2 8747   5.788   6.131  11.599  0.3974 -0.3664  3.1463
66273SOL     OW 8748   5.407   5.131  11.849  0.5077  0.2197  0.3429
66273SOL    HW1 8749   5.494   5.128  11.810  0.3234 -2.3139 -0.0115
66273SOL    HW2 8750   5.419   5.183  11.929  2.0945  0.7412 -0.1857
66274SOL     OW 8751   8.107   1.125   9.605 -0.2147 -0.3807 -0.0594
66274SOL    HW1 8752   8.015   1.143   9.588  0.2154  0.0892 -2.2192
66274SOL    HW2 8753   8.154   1.187   9.549  1.3979 -1.3980  0.1020
66275SOL     OW 8754  12.056   6.755   0.775 -0.2316  0.1036  0.2723
66275SOL    HW1 8755  11.994   6.700   0.822 -0.8923  0.4536 -0.1641
66275SOL    HW2 8756  12.123   6.695   0.744  0.1331 -0.1487  1.5121
66276SOL     OW 8757   5.225   1.927  10.435 -0.8289 -0.4079 -0.2516
66276SOL    HW1 8758   5.143   1.961  10.399 -1.2073 -0.5767  0.4343
66276SOL    HW2 8759   5.253   1.861  10.372 -1.3414 -0.5118 -0.3740
66277SOL     OW 8760   5.871  10.763   8.478  0.2709  0.3651  0.2461
66277SOL    HW1 8761   5.785  10.804   8.463  0.9393  1.1942 -1.6704
66277SOL    HW2 8762   5.884  10.707   8.400  0.6090 -1.3570  1.4771
66278SOL     OW 8763   5.340   5.460   1.840 -0.0923  0.7546  0.0065
66278SOL    HW1 8764   5.375   5.388   1.893  1.7486 -1.1560 -3.4616
66278SOL    HW2 8765   5.254   5.428   1.811 -0.4973  1.2123  0.6671
66279SOL     OW 8766  12.595   3.922  13.165  0.2526 -0.0419 -0.3244
66279SOL    HW1 8767  12.640   3.852  13.213  0.6484  0.9045  0.7397
66279SOL    HW2 8768  12.659   3.994  13.163 -0.8419  0.9933  0.3793
66280SOL     OW 8769   4.348  12.828   1.195 -0.1176  0.6932  0.4394
66280SOL    HW1 8770   4.376  12.914   1.225 -0.8880  1.4911 -0.9844
66280SOL    HW2 8771   4.256  12.840   1.170 -0.6015 -0.8533  1.3099
66281SOL     OW 8772   5.371   1.617   7.592 -1.0812 -0.0113  0.8910
66281SOL    HW1 8773   5.446   1.677   7.601  0.7338 -1.5192 -2.2360
66281SOL    HW2 8774   5.299   1.673   7.563 -0.9496  1.3138  2.9178
66282SOL     OW 8775   3.631  13.156   5.389  0.6740 -0.1923  0.1893
66282SOL    HW1 8776   3.610  13.236   5.438  0.3365 -0.9283  1.2858
66282SOL    HW2 8777   3.668  13.188   5.306  0.6781  1.0973  0.6578
66283SOL     OW 8778  11.544  12.295   1.965 -0.3808  0.1290 -0.5088
66283SOL    HW1 8779  11.483  12.316   2.036 -0.3669 -0.8906 -0.1826
66283SOL    HW2 8780  11.585  12.213   1.992  2.3600  1.5762  0.0539
66284SOL     OW 8781   7.702   4.113   8.144 -0.0757 -0.0691 -0.0440
66284SOL    HW1 8782   7.770   4.048   8.163 -0.8726 -1.0952 -0.5977
66284SOL    HW2 8783   7.737   4.163   8.070 -0.1258 -0.9363 -0.6706
66285SOL     OW 8784   7.072   1.446   2.640 -0.1563 -0.8514 -0.3365
66285SOL    HW1 8785   7.058   1.462   2.546  1.2264  0.6673 -0.3257
66285SOL    HW2 8786   7.030   1.521   2.683  1.5108 -0.1272  0.0816
66286SOL     OW 8787  10.572   6.159   6.684  0.4330  0.7936  0.5857
66286SOL    HW1 8788  10.664   6.133   6.677  0.7986  2.0137  0.6917
66286SOL    HW2 8789  10.572   6.254   6.672 -1.1136  0.5640 -1.9217
66287SOL     OW 8790   3.397   5.322   9.089 -0.3891 -0.0271 -0.1404
66287SOL    HW1 8791   3.352   5.270   9.155 -0.4088  0.0284 -0.1095
66287SOL    HW2 8792   3.435   5.258   9.029  1.1054 -0.1463  0.8755
66288SOL     OW 8793   8.942   4.734  11.026  0.0598  0.6069 -0.0148
66288SOL    HW1 8794   8.966   4.762  10.938  3.2156  0.5876  0.7168
66288SOL    HW2 8795   8.914   4.643  11.016 -0.0817  0.7596 -1.0578
66289SOL     OW 8796   0.695  12.364   7.961 -0.5352  0.6853  0.7168
66289SOL    HW1 8797   0.624  12.333   7.904  1.0917 -0.5124 -0.7936
66289SOL    HW2 8798   0.660  12.443   8.002 -3.0176 -0.3087  0.6963
66290SOL     OW 8799   2.656   3.750   7.693 -0.0662 -0.3418  0.2342
66290SOL    HW1 8800   2.579   3.706   7.730  0.3372 -0.7691  0.5731
66290SOL    HW2 8801   2.708   3.775   7.768 -1.5535  3.2343  0.2881
66291SOL     OW 8802  13.307   8.268   9.643  0.3954  0.9857 -0.0969
66291SOL    HW1 8803  13.306   8.178   9.612 -1.0735  0.5886  0.9543
66291SOL    HW2 8804  13.342   8.263   9.732  0.0962  1.4137  0.0519
66292SOL     OW 8805  12.048   7.444   3.385  0.0131 -0.0333  0.1387
66292SOL    HW1 8806  12.104   7.514   3.418  0.3379  0.5520 -1.5577
66292SOL    HW2 8807  11.960   7.482   3.382 -0.2032 -0.4043  1.1822
66293SOL     OW 8808   9.932   8.236   6.322 -0.3595  0.2200 -0.4611
66293SOL    HW1 8809   9.890   8.198   6.400 -0.1097  1.4205  0.2725
66293SOL    HW2 8810   9.904   8.327   6.321 -1.2198 -0.0106 -2.3962
66294SOL     OW 8811  12.854   8.865   7.080  0.0541  0.2143  0.1415
66294SOL    HW1 8812  12.760   8.868   7.063  0.4810 -0.3800 -2.8139
66294SOL    HW2 8813  12.892   8.921   7.012  1.8404  0.9408  1.6501
66295SOL     OW 8814   4.627   0.159   1.455  0.2887 -0.1571 -0.0740
66295SOL    HW1 8815   4.558   0.211   1.498 -0.1570 -0.4583 -0.4103
66295SOL    HW2 8816   4.623   0.075   1.499 -0.2343 -0.4991 -0.7599
66296SOL     OW 8817   5.432   9.426  12.008 -0.1049 -0.1947  0.5399
66296SOL    HW1 8818   5.517   9.447  12.045  0.1310  1.4130 -0.8235
66296SOL    HW2 8819   5.451   9.370  11.933 -0.4049 -1.2802  1.2432
66297SOL     OW 8820   8.015   0.070  12.232  0.2848 -0.4492 -0.7446
66297SOL    HW1 8821   8.072   0.138  12.269 -0.4246 -0.0773 -0.2989
66297SOL    HW2 8822   8.066   0.030  12.162  0.8091  0.3772 -0.8417
66298SOL     OW 8823   1.777   2.103   3.508  0.1187 -0.0838 -1.0937
66298SOL    HW1 8824   1.778   2.052   3.427  0.5922 -0.1539 -1.0476
66298SOL    HW2 8825   1.770   2.194   3.479 -0.1758 -0.1380 -1.1953
66299SOL     OW 8826  11.440   7.475  10.282  1.0730 -0.4956  0.1952
66299SOL    HW1 8827  11.503   7.423  10.331  0.7260 -0.6021  0.5361
66299SOL    HW2 8828  11.423   7.425  10.203 -0.3475 -1.6465  1.1732
66300SOL     OW 8829  10.365  10.102   0.876 -0.0146 -0.0690  0.1521
66300SOL    HW1 8830  10.273  10.085   0.895  0.1011  0.5900  1.4140
66300SOL    HW2 8831  10.410  10.088   0.959  1.1618 -1.1984 -0.6440
66301SOL     OW 8832   0.579   2.301   5.284 -0.0965  0.0977  0.1040
66301SOL    HW1 8833   0.547   2.262   5.203  0.5117  1.6245 -0.9196
66301SOL    HW2 8834   0.674   2.305   5.273 -0.1549  2.3845 -0.1520
66302SOL     OW 8835   3.198  12.130  11.558  0.8552  0.1710  0.2356
66302SOL    HW1 8836   3.136  12.184  11.509  0.4383 -2.3529 -2.2455
66302SOL    HW2 8837   3.151  12.105  11.637 -0.2978  0.4332 -0.3501
66303SOL     OW 8838   2.309   7.928   2.926 -0.0385  0.4681  0.1310
66303SOL    HW1 8839   2.402   7.944   2.935 -0.0805  1.4000 -0.8838
66303SOL    HW2 8840   2.274   7.935   3.014  1.0027 -1.0834  0.7106
66304SOL     OW 8841  11.270  10.313   3.643  0.2179 -0.2761 -0.7244
66304SOL    HW1 8842  11.215  10.244   3.607  0.8376 -0.4436 -1.3815
66304SOL    HW2 8843  11.242  10.392   3.598 -0.5621 -0.0630  0.1027
66305SOL     OW 8844   7.495   1.534  12.857 -0.3117  0.2661  0.2354
66305SOL    HW1 8845   7.400   1.548  12.861 -0.6203 -1.4286 -0.4804
66305SOL    HW2 8846   7.521   1.571  12.773 -0.8201 -1.6258 -0.8107
66306SOL     OW 8847   8.310   4.738   4.812 -0.5401  0.0672 -0.1080
66306SOL    HW1 8848   8.341   4.788   4.737  0.9232  0.7909  0.9179
66306SOL    HW2 8849   8.335   4.790   4.888 -3.4398  0.1601  0.8872
66307SOL     OW 8850   8.762  12.967   5.039 -0.0759  0.3017  0.2776
66307SOL    HW1 8851   8.766  13.063   5.038  0.0044  0.3244 -1.3714
66307SOL    HW2 8852   8.818  12.941   5.112  1.1758  1.4923 -0.1984
66308SOL     OW 8853   2.323   1.800   8.760 -0.2191  0.4638 -0.2079
66308SOL    HW1 8854   2.361   1.763   8.840  0.0161  0.6945 -0.2093
66308SOL    HW2 8855   2.384   1.775   8.691 -0.6116 -0.0485 -0.3767
66309SOL     OW 8856   0.440   3.374   6.880  0.1535 -1.2227 -0.5362
66309SOL    HW1 8857   0.396   3.451   6.843  0.3806 -1.8456 -2.2132
66309SOL    HW2 8858   0.416   3.374   6.972  1.7387  1.9802  0.0023
66310SOL     OW 8859   5.638   1.254   0.475 -0.2402  0.0633 -0.8292
66310SOL    HW1 8860   5.707   1.187   0.470 -1.4050 -1.5336  2.2186
66310SOL    HW2 8861   5.649   1.295   0.561 -2.3292  0.6104 -0.7619
66311SOL     OW 8862   2.435   5.407   2.825 -0.4801 -0.0842  0.2748
66311SOL    HW1 8863   2.455   5.338   2.761 -0.4926 -0.1949  0.3902
66311SOL    HW2 8864   2.340   5.418   2.820 -0.2545  1.6016 -1.4752
66312SOL     OW 8865  10.676  11.934   7.039 -0.1707  0.1606  0.4654
66312SOL    HW1 8866  10.653  11.859   6.986 -0.4504  0.2989  0.3878
66312SOL    HW2 8867  10.692  11.898   7.126  0.4990 -0.0956  0.2445
66313SOL     OW 8868   7.286   5.410   6.948  0.3520 -0.1295 -0.4916
66313SOL    HW1 8869   7.260   5.440   7.035 -1.0908 -2.0716 -0.2098
66313SOL    HW2 8870   7.352   5.342   6.965  1.4465  0.7604 -1.0219
66314SOL     OW 8871   8.045   5.060   4.404 -0.4384 -0.3182  0.0379
66314SOL    HW1 8872   7.955   5.092   4.403 -0.1559  0.4800 -0.1014
66314SOL    HW2 8873   8.099   5.139   4.401  0.2855 -0.6899  1.9424
66315SOL     OW 8874  10.050   9.043   7.661  0.0115  0.3230 -0.5166
66315SOL    HW1 8875  10.051   9.139   7.665  3.2872  0.4008 -0.6218
66315SOL    HW2 8876   9.993   9.017   7.734 -0.1301  2.3268  0.1621
66316SOL     OW 8877   6.319  12.973   5.412 -0.3230 -0.2384  0.8489
66316SOL    HW1 8878   6.412  12.983   5.433  0.0996  0.4740 -1.1146
66316SOL    HW2 8879   6.307  13.026   5.333 -2.4196 -0.2873  1.0839
66317SOL     OW 8880  11.923   2.495   7.366  0.2889 -0.5895 -0.2880
66317SOL    HW1 8881  11.907   2.464   7.277 -0.2554 -0.9265 -0.0820
66317SOL    HW2 8882  11.896   2.587   7.365  1.8020 -0.1323 -0.8731
66318SOL     OW 8883  12.341   6.232   0.617 -0.3017  0.5006 -0.3796
66318SOL    HW1 8884  12.351   6.211   0.710  0.1260 -0.3745 -0.6173
66318SOL    HW2 8885  12.423   6.274   0.593  0.0980 -0.4373 -0.6685
66319SOL     OW 8886   7.272   9.870  11.648 -0.2942  0.3154  0.1677
66319SOL    HW1 8887   7.319   9.950  11.671 -1.5703  0.5857  2.0751
66319SOL    HW2 8888   7.242   9.834  11.731 -1.0944 -1.3265 -0.7637
66320SOL     OW 8889   3.988   4.878   9.692 -0.1213 -0.0841  0.3513
66320SOL    HW1 8890   3.937   4.802   9.719  0.3960 -0.1859  1.0654
66320SOL    HW2 8891   4.067   4.875   9.747 -0.6564  1.6521  1.2882
66321SOL     OW 8892   0.006  12.051   1.782  0.0478 -0.0721  0.0747
66321SOL    HW1 8893  -0.072  12.038   1.728  0.9091 -1.7011 -0.8351
66321SOL    HW2 8894   0.060  11.974   1.766  1.6339  0.7737  1.0799
66322SOL     OW 8895   1.997   5.516   1.292 -0.3712 -0.1694 -0.7335
66322SOL    HW1 8896   2.025   5.487   1.379  0.9392  4.0039  0.5252
66322SOL    HW2 8897   1.927   5.578   1.309  0.7932  1.7686 -2.4299
66323SOL     OW 8898   0.623   6.242   4.244 -0.5809  0.3140  0.9012
66323SOL    HW1 8899   0.612   6.319   4.300  2.3468  1.9177 -0.4754
66323SOL    HW2 8900   0.610   6.275   4.155  0.2546 -0.8520  0.3203
66324SOL     OW 8901   9.334   0.812   4.259 -0.0037  0.0591  0.2516
66324SOL    HW1 8902   9.241   0.800   4.279 -0.1788 -1.6489 -1.3159
66324SOL    HW2 8903   9.345   0.776   4.171  2.0944  0.5552  0.2393
66325SOL     OW 8904   6.583  11.027   8.820  0.1626  0.1961 -0.4722
66325SOL    HW1 8905   6.504  10.976   8.800  0.1522 -0.1208  0.3343
66325SOL    HW2 8906   6.654  10.963   8.820 -0.1289 -0.2963  2.6228
66326SOL     OW 8907   1.475   1.676   1.823  0.1979 -0.0237  0.0269
66326SOL    HW1 8908   1.465   1.616   1.749  0.2510 -0.5064  0.4060
66326SOL    HW2 8909   1.389   1.676   1.866 -0.2923  1.4009 -0.8738
66327SOL     OW 8910  13.031   2.054   5.394  0.1030  0.3331  0.1896
66327SOL    HW1 8911  12.998   1.969   5.424 -0.4587  1.6508  3.8609
66327SOL    HW2 8912  13.125   2.049   5.410  0.1321  0.2678 -0.0008
66328SOL     OW 8913   5.928   0.407   9.916 -0.4617 -0.3759 -0.6768
66328SOL    HW1 8914   5.966   0.347   9.853  2.4519 -0.0680  0.6339
66328SOL    HW2 8915   5.909   0.487   9.866 -0.4263 -0.9312 -1.5851
66329SOL     OW 8916  11.360   8.463   3.597 -0.0595 -1.0196  0.0155
66329SOL    HW1 8917  11.441   8.510   3.578 -0.7701 -0.0206 -0.6952
66329SOL    HW2 8918  11.293   8.512   3.549 -1.2967 -0.9976  1.6757
66330SOL     OW 8919   6.806   3.152   3.511 -0.1154 -0.2454  0.3325
66330SOL    HW1 8920   6.827   3.213   3.582  0.2616  1.7025 -1.3415
66330SOL    HW2 8921   6.715   3.173   3.488  0.0827 -0.1418 -0.3913
66331SOL     OW 8922  11.176   7.226   2.449 -0.2690  0.1031  0.1191
66331SOL    HW1 8923  11.147   7.181   2.370  0.3748  0.5103 -0.3672
66331SOL    HW2 8924  11.195   7.156   2.511 -0.0234 -0.2682 -0.3623
66332SOL     OW 8925   2.506   0.330   3.467 -0.4562 -0.0647  0.0057
66332SOL    HW1 8926   2.423   0.351   3.425 -0.8735 -2.0338 -0.2047
66332SOL    HW2 8927   2.560   0.408   3.450 -1.9101  0.8542 -0.6869
66333SOL     OW 8928  10.267   7.910  11.620 -0.1132  0.0531 -0.1038
66333SOL    HW1 8929  10.182   7.934  11.657 -0.4152 -0.1091 -0.6701
66333SOL    HW2 8930  10.315   7.993  11.615 -0.6099  0.3123 -0.6923
66334SOL     OW 8931  12.057   0.371   1.399  0.0091 -0.1984 -0.0730
66334SOL    HW1 8932  12.086   0.407   1.315  0.0747  0.3060  0.1640
66334SOL    HW2 8933  12.123   0.305   1.419  0.6397  0.4730  0.1293
66335SOL     OW 8934   6.048   4.037   8.102 -0.6096 -0.6688 -0.2239
66335SOL    HW1 8935   6.029   4.112   8.158  0.4040 -0.4081 -0.2216
66335SOL    HW2 8936   6.143   4.029   8.103 -0.6381 -1.2913 -1.0837
66336SOL     OW 8937   3.653   8.148  10.058 -0.2483  0.0041  0.1865
66336SOL    HW1 8938   3.712   8.090  10.009 -0.0383 -0.5373  1.0466
66336SOL    HW2 8939   3.661   8.233  10.015 -0.6673 -0.6297 -1.1966
66337SOL     OW 8940   2.446   7.861   1.486  0.3912 -0.0138  0.6897
66337SOL    HW1 8941   2.423   7.899   1.570 -0.3954 -1.1764  1.0184
66337SOL    HW2 8942   2.437   7.934   1.424  0.9322  0.8402  1.5803
66338SOL     OW 8943   8.972   3.844  11.831  0.0216 -0.8528 -0.5985
66338SOL    HW1 8944   9.024   3.785  11.777  2.4381 -0.9284  1.6327
66338SOL    HW2 8945   8.946   3.791  11.906 -0.0119  0.2168  0.1662
66339SOL     OW 8946   6.861  10.343   6.242  0.0024 -0.9820 -0.1059
66339SOL    HW1 8947   6.845  10.330   6.336 -1.9327 -0.9569 -0.3870
66339SOL    HW2 8948   6.816  10.269   6.200 -0.4034 -0.2126 -1.0717
66340SOL     OW 8949   0.390   3.972   2.602  0.4686 -0.1104 -0.7516
66340SOL    HW1 8950   0.456   4.009   2.543 -0.7821  0.5276 -1.7837
66340SOL    HW2 8951   0.306   3.998   2.565 -0.3775 -0.1492  1.0266
66341SOL     OW 8952   3.907  12.261   8.172 -0.0505 -0.2320  0.3165
66341SOL    HW1 8953   3.903  12.169   8.145  0.0646 -0.2571  0.3801
66341SOL    HW2 8954   3.962  12.303   8.105  0.1731 -0.2784  0.4684
66342SOL     OW 8955   5.559   0.597   3.618 -0.8286  0.5274 -0.1190
66342SOL    HW1 8956   5.514   0.563   3.695  2.2666 -2.3480  0.6501
66342SOL    HW2 8957   5.503   0.572   3.545 -0.2136 -3.9921  0.6724
66343SOL     OW 8958   9.681   1.185  11.119  0.3955 -0.0261  0.4652
66343SOL    HW1 8959   9.771   1.163  11.142  0.0672 -0.0528  1.8073
66343SOL    HW2 8960   9.649   1.235  11.194 -0.0445  1.8737 -0.9137
66344SOL     OW 8961   4.406   2.578   8.633  0.1374 -0.1061 -0.1033
66344SOL    HW1 8962   4.372   2.583   8.544  2.6346  0.3872 -1.1243
66344SOL    HW2 8963   4.468   2.505   8.631 -0.0239 -0.3059  1.3210
66345SOL     OW 8964  13.191   9.465   2.694 -0.0266  0.3144  0.0472
66345SOL    HW1 8965  13.147   9.418   2.623  0.1062  1.8689 -1.1087
66345SOL    HW2 8966  13.128   9.531   2.722 -0.1713 -0.4245  1.5869
66346SOL     OW 8967  10.220   3.694   4.065  0.1179 -0.4252 -0.5514
66346SOL    HW1 8968  10.292   3.750   4.093  0.0680 -0.6767  0.1128
66346SOL    HW2 8969  10.240   3.608   4.103 -1.3516 -0.1165  1.0984
66347SOL     OW 8970  12.215  12.473   8.366  0.3453  0.5067 -0.4710
66347SOL    HW1 8971  12.129  12.445   8.337  0.3381  1.3525 -1.3130
66347SOL    HW2 8972  12.274  12.446   8.296  0.3124  2.6616 -1.4110
66348SOL     OW 8973   9.336  13.039   5.910 -0.5065 -0.0786 -0.0799
66348SOL    HW1 8974   9.249  13.037   5.948  0.5414  0.9376  2.6497
66348SOL    HW2 8975   9.367  12.949   5.915 -0.9457 -0.2245  0.0340
66349SOL     OW 8976   5.798   1.418   5.295 -0.1830 -0.3866 -0.3162
66349SOL    HW1 8977   5.708   1.410   5.262 -1.0013  1.2280  1.3004
66349SOL    HW2 8978   5.791   1.394   5.388  1.0430 -0.0874 -0.1297
66350SOL     OW 8979   5.619   6.224   2.799  0.4409 -0.2826  0.0493
66350SOL    HW1 8980   5.533   6.263   2.815  0.2980 -0.4722 -0.2481
66350SOL    HW2 8981   5.609   6.176   2.717  1.2920  1.0504 -0.8718
66351SOL     OW 8982   5.534  12.718   2.875  0.4565  0.0375  0.4909
66351SOL    HW1 8983   5.579  12.753   2.798  0.9334  0.7002  1.0568
66351SOL    HW2 8984   5.535  12.623   2.863 -1.8045  0.1949 -1.6181
66352SOL     OW 8985   0.012   8.130   1.961  0.4931  0.5209 -0.3153
66352SOL    HW1 8986   0.078   8.062   1.977  0.5805  0.4396 -0.9899
66352SOL    HW2 8987  -0.025   8.107   1.876 -0.4124  0.5641  0.0537
66353SOL     OW 8988  12.015   8.228   7.554  0.1531  0.1370 -0.2462
66353SOL    HW1 8989  11.989   8.263   7.469  0.2496  1.6943  0.3354
66353SOL    HW2 8990  11.996   8.134   7.548 -2.2375  0.6143 -1.1029
66354SOL     OW 8991   1.657   7.766   5.440 -0.9793  1.4348 -0.2315
66354SOL    HW1 8992   1.712   7.702   5.393 -1.3656  1.5336 -0.8263
66354SOL    HW2 8993   1.587   7.713   5.478 -0.6344  1.3472  0.2825
66355SOL     OW 8994   8.154   2.058   5.225 -0.3627 -0.0563 -0.6426
66355SOL    HW1 8995   8.162   2.002   5.148 -1.8349  0.2790 -1.0616
66355SOL    HW2 8996   8.210   2.133   5.205 -1.4208  0.4525 -1.7927
66356SOL     OW 8997   0.403  12.505   7.921  0.2697 -0.1206 -0.0640
66356SOL    HW1 8998   0.375  12.416   7.902 -0.2388  0.1970 -0.8932
66356SOL    HW2 8999   0.387  12.553   7.839 -0.1157  0.8866  0.5780
66357SOL     OW 9000  10.233   5.444  12.233  0.5156 -0.1727 -0.8474
66357SOL    HW1 9001  10.319   5.478  12.256  0.1290  0.5478 -0.4163
66357SOL    HW2 9002  10.248   5.353  12.208  1.0883 -0.7408  1.3917
66358SOL     OW 9003   1.949   6.854  10.447 -0.3617 -0.5303  0.1313
66358SOL    HW1 9004   1.900   6.887  10.372 -1.2573 -1.6717  0.2018
66358SOL    HW2 9005   1.886   6.802  10.497  0.9627 -2.3041  0.0553
66359SOL     OW 9006  11.922  12.315  13.155 -0.4790 -0.0516  0.4371
66359SOL    HW1 9007  11.905  12.221  13.153 -0.5708 -0.0283 -0.0881
66359SOL    HW2 9008  11.868  12.350  13.085  1.8802  0.0150 -1.4614
66360SOL     OW 9009   0.280   2.847   3.942 -0.1198 -0.2724 -0.5782
66360SOL    HW1 9010   0.201   2.818   3.986 -0.8087  0.1389 -1.4872
66360SOL    HW2 9011   0.303   2.929   3.986  0.6966 -1.1503  0.6876
66361SOL     OW 9012   9.576   2.636  12.496 -0.7151  0.3045 -0.1153
66361SOL    HW1 9013   9.641   2.566  12.501  0.1078  0.8870 -1.8137
66361SOL    HW2 9014   9.504   2.607  12.552  0.2796 -1.1465  0.4544
66362SOL     OW 9015  12.961  10.102   6.083  0.0565 -0.0733  0.2313
66362SOL    HW1 9016  12.969  10.090   5.989  1.7616 -1.8334  0.5485
66362SOL    HW2 9017  12.931  10.193   6.093 -1.0238 -0.1136 -1.9919
66363SOL     OW 9018  11.125  12.891   5.021  0.1811  0.3314  0.1627
66363SOL    HW1 9019  11.161  12.887   4.933 -2.6308  1.8552 -1.1971
66363SOL    HW2 9020  11.149  12.978   5.053  0.9324 -0.1020  0.8109
66364SOL     OW 9021   3.965  11.703  11.960 -0.1357 -0.0057  0.1078
66364SOL    HW1 9022   3.942  11.690  12.052 -0.3984 -0.5135 -0.0260
66364SOL    HW2 9023   3.999  11.617  11.933 -1.9888 -0.4822 -0.8329
66365SOL     OW 9024   4.170   0.082  10.797 -0.2084 -0.2371 -0.0859
66365SOL    HW1 9025   4.258   0.061  10.829 -0.1792  0.7288  0.5166
66365SOL    HW2 9026   4.122  -0.001  10.802  0.4797 -0.6277  0.2232
66366SOL     OW 9027   5.619   0.313  12.856  0.3815 -0.0585  0.0087
66366SOL    HW1 9028   5.648   0.275  12.774 -1.5791 -0.8188 -0.3834
66366SOL    HW2 9029   5.528   0.338  12.841  0.4479  1.2728  1.4606
66367SOL     OW 9030   7.598  11.951   9.445 -0.5192 -0.4593 -0.3387
66367SOL    HW1 9031   7.506  11.972   9.428  0.3567  1.3161 -3.9176
66367SOL    HW2 9032   7.619  11.884   9.379  1.2680  0.9408 -1.2854
66368SOL     OW 9033   8.731   0.956   4.084  0.7303  0.5358 -0.1915
66368SOL    HW1 9034   8.782   0.941   4.164 -0.5901 -2.3373  0.2424
66368SOL    HW2 9035   8.640   0.942   4.111 -0.1436  3.1107 -1.4715
66369SOL     OW 9036   0.690   6.815   0.371 -0.3729  0.1091  0.4124
66369SOL    HW1 9037   0.694   6.806   0.276 -1.0946  2.6754  0.0644
66369SOL    HW2 9038   0.598   6.801   0.393 -0.1895 -0.5872  0.7862
66370SOL     OW 9039   6.478   6.647  11.725 -0.2762 -0.6071  0.1966
66370SOL    HW1 9040   6.404   6.700  11.695 -0.3172 -0.4106  0.6428
66370SOL    HW2 9041   6.439   6.579  11.780  0.0082  0.4393  1.7398
66371SOL     OW 9042   8.268   0.081   8.726 -0.0511 -0.2852  0.3192
66371SOL    HW1 9043   8.212   0.147   8.766 -1.0918 -2.1169  2.0440
66371SOL    HW2 9044   8.212   0.038   8.662  0.3289 -0.1598 -0.1057
66372SOL     OW 9045   3.577   6.347   0.620 -0.6254 -0.0138 -1.2582
66372SOL    HW1 9046   3.552   6.283   0.554  2.5198 -2.9242  0.0368
66372SOL    HW2 9047   3.640   6.404   0.576 -2.0216  1.0979 -1.9030
66373SOL     OW 9048  12.506   5.243   4.645 -0.6627 -0.4145  0.4051
66373SOL    HW1 9049  12.439   5.302   4.611  1.8684  1.2617 -2.1351
66373SOL    HW2 9050  12.541   5.288   4.722  0.6919  1.1370 -1.0449
66374SOL     OW 9051   7.426  11.877   7.863 -1.0079 -0.5037  0.4720
66374SOL    HW1 9052   7.440  11.783   7.865  1.3860 -0.1905  1.0179
66374SOL    HW2 9053   7.393  11.895   7.775  0.8413 -1.5944 -0.5034
66375SOL     OW 9054  10.514   3.057   3.416 -0.2662  0.5664 -0.3107
66375SOL    HW1 9055  10.554   3.139   3.446  0.5998 -0.1376  0.5498
66375SOL    HW2 9056  10.448   3.038   3.483 -2.4454  1.9427 -1.9471
66376SOL     OW 9057  11.640   0.927  12.299 -0.4211 -0.6020 -0.8769
66376SOL    HW1 9058  11.676   0.979  12.370 -2.5779  0.0777 -0.2045
66376SOL    HW2 9059  11.606   0.848  12.341  0.5624 -1.4002 -1.5404
66377SOL     OW 9060  10.075   9.843   9.321 -0.0309  0.0042  0.6177
66377SOL    HW1 9061  10.134   9.918   9.321 -1.7199  1.3812  0.7335
66377SOL    HW2 9062  10.006   9.866   9.260 -0.4884 -1.5678  0.4872
66378SOL     OW 9063   7.219  11.435   3.714  0.4522  0.3013  0.2600
66378SOL    HW1 9064   7.265  11.515   3.689  0.3381 -0.4627 -2.7309
66378SOL    HW2 9065   7.289  11.370   3.726  0.5009  0.6362  2.1094
66379SOL     OW 9066   4.815   3.554   4.230 -0.2502 -0.0058  0.0984
66379SOL    HW1 9067   4.878   3.484   4.248 -0.5347 -1.2787 -3.0945
66379SOL    HW2 9068   4.869   3.629   4.206  0.0941 -0.6320 -1.1519
66380SOL     OW 9069   5.901   1.587   0.944 -0.0462  0.5317 -0.0460
66380SOL    HW1 9070   5.815   1.555   0.970  0.7316 -0.7539  1.0591
66380SOL    HW2 9071   5.893   1.682   0.947 -1.1489  0.4329  0.9954
66381SOL     OW 9072   3.132   8.114   0.397  0.1724 -0.1948 -0.0387
66381SOL    HW1 9073   3.169   8.047   0.454 -0.2744 -0.6762 -0.3160
66381SOL    HW2 9074   3.094   8.178   0.457 -0.2614 -0.6765  0.2026
66382SOL     OW 9075   5.175   8.393   2.869 -0.3842 -0.6689 -0.3190
66382SOL    HW1 9076   5.265   8.412   2.896 -0.9700  0.8243  0.6834
66382SOL    HW2 9077   5.143   8.330   2.934 -0.5029 -0.1283  0.1525
66383SOL     OW 9078   8.052   2.160   4.203  0.2098  0.8453  0.2902
66383SOL    HW1 9079   8.110   2.142   4.128 -0.8070 -0.4708 -0.2159
66383SOL    HW2 9080   8.097   2.121   4.278  0.6341  1.0636  0.1524
66384SOL     OW 9081   9.626   8.200   1.084 -0.0003 -0.5057  0.2683
66384SOL    HW1 9082   9.683   8.178   1.158  0.5605  0.5080  0.1459
66384SOL    HW2 9083   9.540   8.165   1.110  0.4095 -1.0512  0.9474
66385SOL     OW 9084   4.705   5.447   4.517 -0.7503 -0.5556 -0.1046
66385SOL    HW1 9085   4.778   5.473   4.461 -0.1438 -0.0966  0.8559
66385SOL    HW2 9086   4.746   5.430   4.602 -1.5938 -1.5622  0.1157
66386SOL     OW 9087   3.190   5.392   8.246  0.3795  0.0869  0.4701
66386SOL    HW1 9088   3.143   5.379   8.164  2.3486  0.5201 -0.8176
66386SOL    HW2 9089   3.126   5.432   8.304 -0.7272  1.1392 -1.3499
66387SOL     OW 9090   6.148   5.318  12.553  0.0137  0.8625  0.0685
66387SOL    HW1 9091   6.143   5.229  12.518 -2.4032  0.5151  1.1007
66387SOL    HW2 9092   6.195   5.368  12.486  4.4063 -1.7633  0.8344
66388SOL     OW 9093   0.388   6.448  10.902  0.3324  0.3743 -0.4044
66388SOL    HW1 9094   0.379   6.367  10.851  0.4790  0.9644 -1.3985
66388SOL    HW2 9095   0.405   6.418  10.991 -1.3044 -0.7064 -0.4165
66389SOL     OW 9096  12.292   5.426   6.192  0.1394 -0.2108  0.4706
66389SOL    HW1 9097  12.347   5.392   6.121 -0.5693  0.2053 -0.2937
66389SOL    HW2 9098  12.296   5.521   6.182 -0.6403 -0.1704  0.4481
66390SOL     OW 9099   8.940  11.164   5.948  0.2055  0.7271  0.0981
66390SOL    HW1 9100   8.878  11.146   6.019 -0.9020  0.3784 -0.9262
66390SOL    HW2 9101   8.982  11.080   5.930 -0.4401  0.5214 -0.4961
66391SOL     OW 9102   3.196  10.836   8.376  0.3788  0.2807 -0.0656
66391SOL    HW1 9103   3.185  10.883   8.459  0.9561 -0.9251  0.7240
66391SOL    HW2 9104   3.158  10.749   8.393  0.0472  0.1864 -1.2296
66392SOL     OW 9105   9.260  12.503   3.968 -0.1683  0.4139 -0.5861
66392SOL    HW1 9106   9.299  12.591   3.969 -0.9200  0.7763 -1.7821
66392SOL    HW2 9107   9.166  12.519   3.966 -0.3272 -0.4360 -0.2750
66393SOL     OW 9108   4.230   9.684   4.974  0.0147 -0.2541  0.5211
66393SOL    HW1 9109   4.178   9.691   5.054 -0.1558  0.6383  0.3409
66393SOL    HW2 9110   4.320   9.698   5.003  0.3022 -2.5499  0.9560
66394SOL     OW 9111   3.953   5.094   8.928  0.2668  0.8353  0.3985
66394SOL    HW1 9112   4.022   5.124   8.868  1.7071  0.4438  1.7999
66394SOL    HW2 9113   3.949   4.999   8.914  1.6819  0.5140  1.9514
66395SOL     OW 9114   4.538   4.561  11.624  0.5436  0.0575 -0.1982
66395SOL    HW1 9115   4.538   4.556  11.529  0.6903  0.2351 -0.2069
66395SOL    HW2 9116   4.445   4.568  11.648  0.3683 -1.5875 -0.2432
66396SOL     OW 9117   4.894   8.907  11.531 -0.5584  0.3852 -0.0017
66396SOL    HW1 9118   4.839   8.937  11.603 -1.0981 -1.3791  0.3762
66396SOL    HW2 9119   4.839   8.845  11.483  0.3132  0.3701 -1.0199
66397SOL     OW 9120  12.133  12.849   6.189  0.4999  0.6848  0.4667
66397SOL    HW1 9121  12.101  12.894   6.267  1.2260 -0.1799  1.2845
66397SOL    HW2 9122  12.072  12.776   6.177 -0.2063  1.3832 -0.3938
66398SOL     OW 9123   8.032  10.366   6.739 -0.3703  0.3872 -0.0223
66398SOL    HW1 9124   8.065  10.293   6.792 -1.7563  0.7773  1.4503
66398SOL    HW2 9125   8.065  10.348   6.651  1.9832 -0.3228  0.9149
66399SOL     OW 9126  12.999   8.536   3.016 -0.2795 -0.3131 -0.5204
66399SOL    HW1 9127  12.946   8.457   3.006  0.2460 -1.2281  2.6972
66399SOL    HW2 9128  13.018   8.564   2.927 -2.6674 -2.2943 -1.7831
66400SOL     OW 9129  10.972   1.730   3.427  0.5181  0.5929 -0.1803
66400SOL    HW1 9130  11.058   1.694   3.449  0.0402 -0.2803  0.3237
66400SOL    HW2 9131  10.962   1.806   3.485  0.8540  0.5660 -0.0823
66401SOL     OW 9132   8.608  11.014   0.910  0.5425  0.3309  0.0554
66401SOL    HW1 9133   8.595  11.028   1.004 -0.2079  1.8995 -0.2527
66401SOL    HW2 9134   8.672  11.081   0.885  1.5297 -0.7365 -0.3888
66402SOL     OW 9135  12.862   5.708  11.937 -0.5205 -0.1692  0.2596
66402SOL    HW1 9136  12.854   5.641  11.868  0.1014 -0.0095  0.0240
66402SOL    HW2 9137  12.921   5.669  12.001 -1.2040 -0.3705  0.7798
66403SOL     OW 9138   5.675   7.778   4.791  0.6536  0.2149 -0.2615
66403SOL    HW1 9139   5.596   7.740   4.830 -0.2900  2.0053 -0.3344
66403SOL    HW2 9140   5.734   7.704   4.780 -1.1901 -1.2798 -0.6593
66404SOL     OW 9141  12.950  12.905   8.529  0.5359  0.8669 -0.0925
66404SOL    HW1 9142  12.873  12.902   8.587  0.5183  0.5823 -0.1299
66404SOL    HW2 9143  12.914  12.921   8.442  0.6448  2.5145  0.1361
66405SOL     OW 9144   7.260   7.208   5.752  0.1894 -0.0779  0.2769
66405SOL    HW1 9145   7.167   7.197   5.735  0.3372 -0.1843 -0.4843
66405SOL    HW2 9146   7.280   7.145   5.822 -0.6416  1.0888  1.6179
66406SOL     OW 9147   6.602  10.210  10.912  0.5966 -0.4265  0.0826
66406SOL    HW1 9148   6.670  10.155  10.875  1.2925  0.3643  0.1552
66406SOL    HW2 9149   6.627  10.299  10.888 -1.3557 -0.2188 -1.4638
66407SOL     OW 9150  10.030   6.360   8.467 -0.2294  0.3086  0.5864
66407SOL    HW1 9151  10.107   6.414   8.485  1.4325 -1.1766 -1.6050
66407SOL    HW2 9152  10.008   6.380   8.377 -0.4090 -1.6219  0.1665
66408SOL     OW 9153   5.916   3.444   2.779  0.2464 -0.1630  0.4356
66408SOL    HW1 9154   5.867   3.413   2.703  1.0120 -0.8560  0.2177
66408SOL    HW2 9155   5.893   3.384   2.849 -1.4669  1.2137  1.1531
66409SOL     OW 9156  10.292   5.913  10.099  0.9522 -0.1847 -0.2303
66409SOL    HW1 9157  10.313   5.823  10.077  1.4857 -0.2341  0.4441
66409SOL    HW2 9158  10.219   5.906  10.162  1.9017 -0.2239  0.8974
66410SOL     OW 9159   0.362   8.018   1.590  0.0255 -0.6648 -0.3981
66410SOL    HW1 9160   0.274   8.040   1.559 -0.6353 -1.1192  1.0831
66410SOL    HW2 9161   0.391   8.095   1.638  0.5570 -0.4127 -1.1102
66411SOL     OW 9162   1.903   4.212   6.197 -0.1313 -0.0759 -0.0185
66411SOL    HW1 9163   1.971   4.150   6.222  0.0016  0.7373  1.7916
66411SOL    HW2 9164   1.892   4.268   6.274 -1.6226  0.9088 -0.8964
66412SOL     OW 9165   7.501   6.730   9.638 -0.3646 -0.2239 -0.7219
66412SOL    HW1 9166   7.485   6.678   9.559 -0.4672 -0.1670 -0.7376
66412SOL    HW2 9167   7.468   6.676   9.710 -0.1364 -0.3415 -0.7011
66413SOL     OW 9168   2.973  11.194   3.068 -0.1589 -0.4332 -0.7726
66413SOL    HW1 9169   3.014  11.108   3.057  0.8266  0.1347 -1.7741
66413SOL    HW2 9170   3.027  11.239   3.133  0.4004  0.0517 -1.5533
66414SOL     OW 9171  10.279   5.532   4.347 -0.2806  0.0945 -0.3400
66414SOL    HW1 9172  10.306   5.441   4.354 -0.3677  0.1145  0.2760
66414SOL    HW2 9173  10.188   5.534   4.375  0.4603  0.7610  2.3306
66415SOL     OW 9174  11.285   0.489   1.585  0.1818 -0.2144 -0.2507
66415SOL    HW1 9175  11.366   0.447   1.616  0.8797 -0.5283 -2.2939
66415SOL    HW2 9176  11.221   0.418   1.584  0.0152 -0.0914  0.8662
66416SOL     OW 9177   8.230  13.188   9.783 -0.1536  0.1451 -0.4086
66416SOL    HW1 9178   8.157  13.217   9.838  0.9202  2.5242 -0.0775
66416SOL    HW2 9179   8.206  13.215   9.694 -1.0544 -1.9942 -0.8545
66417SOL     OW 9180   0.639   6.511  11.933  0.0571 -0.7941 -0.0400
66417SOL    HW1 9181   0.674   6.575  11.995  0.9877 -0.5695 -0.7679
66417SOL    HW2 9182   0.686   6.530  11.851 -0.0317 -2.0660 -0.4019
66418SOL     OW 9183   6.130   9.622   9.291  0.3197 -0.7873  0.2212
66418SOL    HW1 9184   6.165   9.534   9.277  0.1091 -0.9218  0.5073
66418SOL    HW2 9185   6.119   9.628   9.386  2.7595  0.4895  0.5060
66419SOL     OW 9186   4.835   7.730   4.383 -0.1189  0.1637  0.5690
66419SOL    HW1 9187   4.833   7.789   4.458  0.9976 -0.3255  1.0069
66419SOL    HW2 9188   4.818   7.644   4.420 -0.3978  0.0232  0.1252
66420SOL     OW 9189   6.194   2.829  11.953  0.2488  0.4770  0.3690
66420SOL    HW1 9190   6.141   2.760  11.991  1.1711  0.7349  2.2068
66420SOL    HW2 9191   6.142   2.909  11.965 -0.9671  0.1490 -2.0529
66421SOL     OW 9192   4.681  11.604  10.013  1.1675 -0.8102 -0.0343
66421SOL    HW1 9193   4.606  11.648   9.972  1.5596 -1.3799 -1.4087
66421SOL    HW2 9194   4.719  11.671  10.070 -0.2651 -0.4549  0.5330
66422SOL     OW 9195   6.481  11.407  10.431  0.1301  0.3033 -0.2687
66422SOL    HW1 9196   6.505  11.496  10.454 -1.1886  0.5077  0.4346
66422SOL    HW2 9197   6.394  11.415  10.392 -0.7370 -0.8243  1.3078
66423SOL     OW 9198   8.654   8.182   7.734 -0.0279  0.3272 -0.2756
66423SOL    HW1 9199   8.680   8.139   7.652  0.0516  0.8385 -0.5184
66423SOL    HW2 9200   8.706   8.138   7.801 -0.3504 -0.3425 -0.4459
66424SOL     OW 9201   0.789   8.631  11.023  0.3699 -0.5706 -0.2081
66424SOL    HW1 9202   0.810   8.713  11.067  0.2442 -0.2677 -0.7000
66424SOL    HW2 9203   0.805   8.563  11.089  0.4273 -0.1493  0.2161
66425SOL     OW 9204   1.786   8.787   2.119 -0.1374  0.3832  0.2831
66425SOL    HW1 9205   1.699   8.749   2.131 -0.0300  0.5246  1.8174
66425SOL    HW2 9206   1.788   8.859   2.182  0.6075  1.2579 -0.7118
66426SOL     OW 9207  12.006   0.672  11.536  0.9180  0.1308 -0.4428
66426SOL    HW1 9208  11.948   0.597  11.528  1.4254 -0.3386  0.1881
66426SOL    HW2 9209  12.087   0.636  11.572  0.4033  1.3060  2.0729
66427SOL     OW 9210   1.990   6.472   5.163 -0.4784  0.0888 -0.1781
66427SOL    HW1 9211   1.904   6.460   5.202  0.6073 -0.2516  2.3327
66427SOL    HW2 9212   1.998   6.567   5.152 -0.8684  0.1979  0.4226
66428SOL     OW 9213   8.700  11.039   8.394  0.2157 -0.8587 -0.8932
66428SOL    HW1 9214   8.738  10.976   8.455  2.9332 -0.1358 -1.6827
66428SOL    HW2 9215   8.642  10.987   8.339  0.8349 -2.2947 -0.2485
66429SOL     OW 9216   6.420   7.922   2.477 -0.1292  0.1768 -0.0374
66429SOL    HW1 9217   6.494   7.873   2.511 -1.1253 -0.0482  1.9298
66429SOL    HW2 9218   6.444   8.014   2.489 -0.2390  0.1018  0.8068
66430SOL     OW 9219   4.880  11.956   8.569  0.2737  0.1171 -0.2631
66430SOL    HW1 9220   4.869  11.970   8.663 -1.3143 -0.3256 -0.3510
66430SOL    HW2 9221   4.969  11.922   8.561  0.0095 -1.0865  1.2435
66431SOL     OW 9222   5.487   6.433   7.680 -0.3277 -0.3723  0.8458
66431SOL    HW1 9223   5.499   6.408   7.589  3.6814 -1.6387  1.5059
66431SOL    HW2 9224   5.534   6.517   7.688  0.3349 -0.8146  1.8888
66432SOL     OW 9225   0.244   2.902   9.507  0.6444 -0.1162  0.6490
66432SOL    HW1 9226   0.294   2.955   9.569  0.5164  0.4929  0.2405
66432SOL    HW2 9227   0.171   2.867   9.558  1.1784 -0.5692  1.1172
66433SOL     OW 9228   4.235  11.426   5.779 -0.3811 -0.1449 -0.0264
66433SOL    HW1 9229   4.266  11.379   5.856 -2.1496 -1.9662 -0.3490
66433SOL    HW2 9230   4.151  11.464   5.806 -0.5570  0.0164 -0.7721
66434SOL     OW 9231   1.305   9.425   7.956  0.5196  0.3676  0.6524
66434SOL    HW1 9232   1.240   9.452   8.021  0.6063 -0.0750  0.9293
66434SOL    HW2 9233   1.326   9.335   7.980  0.0467 -0.0306 -0.4025
66435SOL     OW 9234   1.387   4.471   2.358  0.0729  0.5815 -0.0259
66435SOL    HW1 9235   1.387   4.567   2.357 -0.3533  0.5881  0.3846
66435SOL    HW2 9236   1.477   4.447   2.378 -0.2311  0.9239  1.8971
66436SOL     OW 9237   8.681   4.845   8.754  0.4591 -0.4888  0.6246
66436SOL    HW1 9238   8.622   4.775   8.778 -1.0391  0.7721  0.7672
66436SOL    HW2 9239   8.704   4.887   8.837 -3.1059  2.5885  0.3358
66437SOL     OW 9240  12.602  12.822   8.332 -0.1336 -0.6823  0.2499
66437SOL    HW1 9241  12.522  12.771   8.326 -0.4485 -0.5036  2.1645
66437SOL    HW2 9242  12.586  12.883   8.404  1.3162  0.1330 -0.0698
66438SOL     OW 9243   4.618   2.842   3.235  0.1335 -0.3363 -0.3685
66438SOL    HW1 9244   4.585   2.870   3.321 -3.1643 -1.2525 -1.2134
66438SOL    HW2 9245   4.626   2.924   3.185 -1.5623 -0.0947 -0.2983
66439SOL     OW 9246   0.071   9.199   1.686 -0.5576  0.1981 -0.3775
66439SOL    HW1 9247   0.016   9.157   1.619 -1.4619  1.4407 -0.4542
66439SOL    HW2 9248   0.014   9.265   1.725  0.5273  0.7043  0.3861
66440SOL     OW 9249   3.326  10.613   5.850 -0.5929 -0.0142 -0.3248
66440SOL    HW1 9250   3.346  10.531   5.805  2.9141  0.8834 -0.6613
66440SOL    HW2 9251   3.279  10.665   5.784 -0.4877 -0.7648 -1.0148
66441SOL     OW 9252   4.222   1.440  10.102  0.2373 -0.0228  0.0250
66441SOL    HW1 9253   4.188   1.526  10.079  0.1294  0.7636  2.7826
66441SOL    HW2 9254   4.174   1.379  10.045 -1.6293  1.5278 -0.1627
66442SOL     OW 9255  11.404  10.799   5.837 -0.0043 -0.7491 -0.4899
66442SOL    HW1 9256  11.380  10.730   5.899  1.2326 -0.7136  0.0677
66442SOL    HW2 9257  11.495  10.818   5.858  0.1016  0.0407 -1.6086
66443SOL     OW 9258  11.858   0.432   9.102  0.2166  0.3316  0.2932
66443SOL    HW1 9259  11.911   0.491   9.049  1.6583  0.4912  1.8395
66443SOL    HW2 9260  11.814   0.376   9.038  2.3445  0.1079 -1.0969
66444SOL     OW 9261  13.276   4.233   1.110 -0.1386 -0.6567  0.4477
66444SOL    HW1 9262  13.243   4.154   1.153 -1.9006  0.3307  1.0304
66444SOL    HW2 9263  13.262   4.303   1.173  1.2104  0.1767 -0.1304
66445SOL     OW 9264   0.165   1.061   8.313 -0.0879 -0.2073  0.0699
66445SOL    HW1 9265   0.156   0.989   8.375  0.5846  0.8469  1.4385
66445SOL    HW2 9266   0.214   1.128   8.361  0.0169  0.8355 -1.4435
66446SOL     OW 9267   0.532   4.249   1.727  0.2325  0.0647  0.3255
66446SOL    HW1 9268   0.500   4.186   1.792  1.9621 -1.2030  0.0303
66446SOL    HW2 9269   0.468   4.245   1.656  0.1686 -1.1878  0.4360
66447SOL     OW 9270   3.839  11.175   4.987  0.6809  0.1806  0.1211
66447SOL    HW1 9271   3.850  11.117   5.063  0.1482  1.2230  1.0119
66447SOL    HW2 9272   3.755  11.149   4.949  1.4228 -1.0474 -0.7666
66448SOL     OW 9273   7.463   3.743   0.933  0.8767  0.0573  0.1792
66448SOL    HW1 9274   7.382   3.750   0.983  1.1156 -1.6032  0.8739
66448SOL    HW2 9275   7.471   3.650   0.913  4.1054 -0.4327  2.7962
66449SOL     OW 9276  12.271   5.319   3.688 -0.2500  0.3203  0.4569
66449SOL    HW1 9277  12.185   5.330   3.648 -0.8519 -3.2499  0.4905
66449SOL    HW2 9278  12.321   5.266   3.626  0.9165 -0.1261  1.7034
66450SOL     OW 9279  10.356  12.173   9.375 -0.3307  0.2287  0.8516
66450SOL    HW1 9280  10.375  12.265   9.389  0.9585 -0.1244  1.5489
66450SOL    HW2 9281  10.419  12.126   9.430 -0.2015 -1.0857 -0.3492
66451SOL     OW 9282   2.757   7.639   5.429 -0.1170 -0.1018  0.4489
66451SOL    HW1 9283   2.711   7.708   5.380  0.0237  0.3135  0.8862
66451SOL    HW2 9284   2.845   7.675   5.443  0.3360 -0.8738 -0.3477
66452SOL     OW 9285   0.216  11.839  11.980  0.5421  0.0416 -0.5094
66452SOL    HW1 9286   0.309  11.827  11.999  0.5521  1.0254  0.1816
66452SOL    HW2 9287   0.214  11.898  11.904  0.4919  0.3658 -0.2600
66453SOL     OW 9288   4.261   5.229  11.426 -0.7304  0.0998 -0.2468
66453SOL    HW1 9289   4.183   5.284  11.428 -0.0606  1.0531  0.3018
66453SOL    HW2 9290   4.300   5.239  11.512  1.4880  1.8446 -1.3455
66454SOL     OW 9291   8.314   3.400   7.372  0.0230  0.3722  0.0409
66454SOL    HW1 9292   8.240   3.350   7.407  2.1538 -1.9461  1.5146
66454SOL    HW2 9293   8.326   3.472   7.434  1.8291 -1.9395  2.5599
66455SOL     OW 9294  13.234   1.191  11.840  0.4593 -0.3213 -0.2085
66455SOL    HW1 9295  13.305   1.131  11.817  2.9085  2.4789 -0.4987
66455SOL    HW2 9296  13.275   1.254  11.899 -1.8477  1.3416 -0.2862
66456SOL     OW 9297   5.459   0.989  11.448  0.8852  0.0265 -0.0364
66456SOL    HW1 9298   5.376   0.957  11.484  1.0879 -0.7213 -0.2057
66456SOL    HW2 9299   5.507   0.909  11.425  1.3074  0.4685 -0.7222
66457SOL     OW 9300   7.600   8.145   0.707 -0.5538  0.5361  0.4781
66457SOL    HW1 9301   7.524   8.202   0.715 -0.7082  0.2657  0.9629
66457SOL    HW2 9302   7.631   8.132   0.797  2.3632  3.6892  0.1297
66458SOL     OW 9303  10.424   6.472   0.082 -0.1841 -0.7603 -0.0887
66458SOL    HW1 9304  10.468   6.520   0.011 -1.2627  0.1622 -0.1576
66458SOL    HW2 9305  10.411   6.538   0.151 -0.1930 -1.3668  0.4936
66459SOL     OW 9306   6.105   4.255   0.798  0.4731 -0.3266  0.4418
66459SOL    HW1 9307   6.084   4.216   0.713  0.6196 -0.0908  0.2965
66459SOL    HW2 9308   6.108   4.349   0.781 -3.2736  0.1523  1.4575
66460SOL     OW 9309   7.307   9.597   5.045 -0.1790  0.3094  0.2381
66460SOL    HW1 9310   7.345   9.512   5.021  2.3570  1.5957 -0.6328
66460SOL    HW2 9311   7.348   9.620   5.128 -1.4284  0.3994  0.8624
66461SOL     OW 9312   4.446  11.030   5.175  0.1272  0.3131 -0.0859
66461SOL    HW1 9313   4.478  10.982   5.251  1.0932  1.6185  0.3546
66461SOL    HW2 9314   4.519  11.086   5.149 -0.9267  1.4778 -0.6321
66462SOL     OW 9315  10.780   7.379   9.553 -0.6209  0.3459 -0.5075
66462SOL    HW1 9316  10.789   7.343   9.464  2.8591 -2.2742  0.6780
66462SOL    HW2 9317  10.718   7.321   9.596  0.9325 -1.1490 -0.1432
66463SOL     OW 9318  13.067   7.930   0.709  0.6129  0.0604 -0.2009
66463SOL    HW1 9319  12.985   7.895   0.744  0.4497  2.1571  1.7399
66463SOL    HW2 9320  13.049   7.944   0.616 -1.5528  1.1673  0.3200
66464SOL     OW 9321   5.996   3.914  11.573  0.0617  0.3533 -0.6861
66464SOL    HW1 9322   5.980   3.972  11.499  1.3292  0.1372 -1.1487
66464SOL    HW2 9323   6.065   3.855  11.543 -0.3173 -0.5795  0.2188
66465SOL     OW 9324   0.772  10.732   3.243 -0.0424 -0.5688  0.3883
66465SOL    HW1 9325   0.755  10.822   3.270  1.1225 -0.7759  1.9263
66465SOL    HW2 9326   0.736  10.678   3.314  1.0671 -1.2165  0.4914
66466SOL     OW 9327   1.743   3.339   2.140  0.1351  0.0051 -0.4182
66466SOL    HW1 9328   1.687   3.389   2.079 -2.3281 -0.9553  0.9120
66466SOL    HW2 9329   1.715   3.248   2.129  0.8086 -0.3936  0.9657
66467SOL     OW 9330  10.241   1.495   6.375 -0.0333 -0.3676 -0.2264
66467SOL    HW1 9331  10.169   1.456   6.326  1.1974 -1.7376 -1.0253
66467SOL    HW2 9332  10.206   1.510   6.463 -1.0822 -1.6793 -0.3991
66468SOL     OW 9333  10.543   1.719  10.418  0.2368  0.6791  0.0235
66468SOL    HW1 9334  10.538   1.761  10.504 -0.0474 -0.5294  0.6228
66468SOL    HW2 9335  10.510   1.786  10.357  2.8424  2.5028  0.4651
66469SOL     OW 9336   7.372  11.276   0.496  0.3443  0.1404  0.0839
66469SOL    HW1 9337   7.434  11.301   0.565  0.5234 -0.8725  0.3073
66469SOL    HW2 9338   7.414  11.303   0.415 -0.0876  1.8021  0.3709
66470SOL     OW 9339  11.349   4.527   3.172  0.0330 -0.0415  0.2492
66470SOL    HW1 9340  11.432   4.510   3.216  0.7538  2.0905 -0.1919
66470SOL    HW2 9341  11.373   4.536   3.080 -0.5151  1.5101  0.2366
66471SOL     OW 9342  10.188   0.597   4.563  0.0098 -0.7280  0.0240
66471SOL    HW1 9343  10.223   0.611   4.651 -0.0172  0.5850 -0.1560
66471SOL    HW2 9344  10.134   0.519   4.570 -3.2044  1.4598  2.1381
66472SOL     OW 9345   9.249   9.585   5.560 -0.2977  0.3395 -0.4049
66472SOL    HW1 9346   9.168   9.613   5.602 -0.1845 -1.1178  0.8675
66472SOL    HW2 9347   9.265   9.497   5.594  2.2847  0.9209  0.0877
66473SOL     OW 9348   4.139   4.886   1.433  0.5265  0.0895 -0.1502
66473SOL    HW1 9349   4.066   4.883   1.371  0.3913 -1.0461  0.0400
66473SOL    HW2 9350   4.098   4.899   1.518  0.4996 -0.8735 -0.0020
66474SOL     OW 9351   7.815  10.737   1.429  0.7559  0.3164  0.5159
66474SOL    HW1 9352   7.901  10.758   1.465  1.6795 -2.7013  0.3773
66474SOL    HW2 9353   7.761  10.715   1.506  0.7294  0.2672  0.4836
66475SOL     OW 9354  11.537   4.522   3.543  0.3054 -0.4662  0.0832
66475SOL    HW1 9355  11.562   4.602   3.497 -0.6531  0.2897  0.8412
66475SOL    HW2 9356  11.621   4.482   3.568  0.8541 -0.8254 -2.1176
66476SOL     OW 9357   1.986   4.617  11.077 -0.1905 -0.1957 -0.1436
66476SOL    HW1 9358   2.000   4.591  10.986  1.3552 -3.0551  0.7887
66476SOL    HW2 9359   2.063   4.669  11.099 -0.3304  0.0888 -0.3161
66477SOL     OW 9360   3.889  11.738   0.650 -0.7326  0.4245  0.1008
66477SOL    HW1 9361   3.874  11.829   0.677  1.4967  0.6544  0.7509
66477SOL    HW2 9362   3.835  11.686   0.710 -0.1344  1.2148  1.3668
66478SOL     OW 9363   4.966   9.196  12.338 -0.1433  0.2613  0.0402
66478SOL    HW1 9364   4.989   9.269  12.396  0.3066 -0.2729  0.5419
66478SOL    HW2 9365   4.937   9.126  12.397 -1.9284  0.4817 -0.5023
66479SOL     OW 9366   4.083  11.240   2.195  0.2606  0.7283  0.2658
66479SOL    HW1 9367   4.164  11.224   2.244 -0.8122  1.8822  2.5497
66479SOL    HW2 9368   4.014  11.205   2.251 -0.8795 -0.4186 -1.7349
66480SOL     OW 9369  11.341   3.038   0.425 -0.0982 -0.0133 -0.1972
66480SOL    HW1 9370  11.270   3.039   0.490  0.5437 -0.7054  0.5372
66480SOL    HW2 9371  11.310   2.978   0.358  0.2151 -1.1377  0.6359
66481SOL     OW 9372  13.295   9.903   8.904 -0.6199 -0.0955  0.5723
66481SOL    HW1 9373  13.288   9.814   8.937 -2.2366 -0.1026  0.2836
66481SOL    HW2 9374  13.322   9.955   8.979 -1.1639 -0.5997  1.1223
66482SOL     OW 9375  12.166  11.506   6.191  0.0268 -0.0232 -0.2965
66482SOL    HW1 9376  12.107  11.432   6.177 -1.4896  1.1025 -0.1791
66482SOL    HW2 9377  12.196  11.530   6.104 -1.0101  0.3964 -0.5578
66483SOL     OW 9378  11.029   8.177   3.416 -0.5335  0.2663 -0.6669
66483SOL    HW1 9379  11.099   8.194   3.353 -0.5562 -1.7765 -1.3254
66483SOL    HW2 9380  10.950   8.209   3.373 -0.1271  1.9098 -0.2322
66484SOL     OW 9381   2.774   2.765   8.152  0.7893  0.2384  0.0959
66484SOL    HW1 9382   2.845   2.730   8.097 -0.6284 -0.6517 -1.2707
66484SOL    HW2 9383   2.732   2.830   8.096 -0.5784 -0.5623  0.1631
66485SOL     OW 9384   6.389   7.279   1.944  0.2127 -0.3921 -0.0469
66485SOL    HW1 9385   6.296   7.270   1.966  0.1219 -1.6542 -0.8858
66485SOL    HW2 9386   6.402   7.224   1.867  1.8299 -0.8767  0.5202
66486SOL     OW 9387  11.704   6.064   0.231  0.5407 -0.1469  0.4500
66486SOL    HW1 9388  11.731   6.146   0.191  2.1945 -0.3990  0.9707
66486SOL    HW2 9389  11.694   6.084   0.324 -0.6803 -0.1735  0.3422
66487SOL     OW 9390  10.070   7.631  10.855  0.2115  0.1888 -0.4583
66487SOL    HW1 9391  10.152   7.660  10.895  0.9644 -1.0168 -1.0701
66487SOL    HW2 9392  10.014   7.709  10.856  0.3645  0.3747  2.3848
66488SOL     OW 9393   4.895  11.302  11.206 -0.3829 -0.1087  0.2579
66488SOL    HW1 9394   4.862  11.375  11.154  0.8581 -1.0781 -2.0294
66488SOL    HW2 9395   4.986  11.325  11.226 -0.3271 -0.5269  0.5161
66489SOL     OW 9396   4.419   8.217   8.368  0.2891  0.6307 -0.8896
66489SOL    HW1 9397   4.393   8.247   8.455 -0.7098 -0.6425 -0.7132
66489SOL    HW2 9398   4.339   8.223   8.315  0.2527 -0.8630 -1.0483
66490SOL     OW 9399   0.516   4.205  12.499  0.6752 -0.0334 -0.4705
66490SOL    HW1 9400   0.527   4.199  12.594  1.5837 -1.1502 -0.6352
66490SOL    HW2 9401   0.515   4.114  12.469  0.7488  0.3182 -1.5754
66491SOL     OW 9402  13.199   6.687   6.411 -0.1385 -0.1452 -0.5807
66491SOL    HW1 9403  13.113   6.660   6.444  0.6315 -1.5626  0.3865
66491SOL    HW2 9404  13.202   6.654   6.321 -1.6770  2.4553 -1.7155
66492SOL     OW 9405   7.286   9.399   6.483 -0.2597  0.1962  0.7437
66492SOL    HW1 9406   7.303   9.481   6.530 -1.0152  0.1541  1.1145
66492SOL    HW2 9407   7.224   9.352   6.539  0.6583 -0.9386  0.8727
66493SOL     OW 9408  12.126  11.726   7.110  0.7933 -0.1686  0.0675
66493SOL    HW1 9409  12.168  11.660   7.055 -0.2957 -1.6508  0.9596
66493SOL    HW2 9410  12.034  11.701   7.113  0.9148 -0.6607  3.1791
66494SOL     OW 9411   7.565   0.087  12.867  0.1226  0.0165 -0.3370
66494SOL    HW1 9412   7.568   0.096  12.963  0.7681 -0.9561 -0.2525
66494SOL    HW2 9413   7.647   0.125  12.836 -0.3502  0.8733 -0.5658
66495SOL     OW 9414  12.837  12.531   3.457  0.2840 -0.0601 -0.1005
66495SOL    HW1 9415  12.909  12.566   3.404  1.6253  1.1289  2.3190
66495SOL    HW2 9416  12.792  12.609   3.490  0.4051 -0.6915  1.6260
66496SOL     OW 9417  12.731   0.765   9.985 -0.0910  0.5262  0.6419
66496SOL    HW1 9418  12.687   0.756   9.900  0.0376 -3.0266  0.7748
66496SOL    HW2 9419  12.824   0.764   9.963 -0.0558 -0.4939  0.7731
66497SOL     OW 9420   1.336   9.690   9.235  0.5915 -0.8595  0.3136
66497SOL    HW1 9421   1.430   9.700   9.222  0.3154  0.4721 -0.8325
66497SOL    HW2 9422   1.297   9.707   9.149 -0.6269 -2.8035  0.4238
66498SOL     OW 9423   6.321   3.432   2.424 -0.6186 -0.2329  0.6748
66498SOL    HW1 9424   6.313   3.465   2.335  0.1767  1.2528  1.1238
66498SOL    HW2 9425   6.297   3.506   2.480 -2.2336 -1.4661  1.7205
66499SOL     OW 9426   0.079   3.105   9.776  0.2728 -0.0781 -0.5900
66499SOL    HW1 9427   0.025   3.139   9.848  0.3070  0.4672 -0.8192
66499SOL    HW2 9428   0.048   3.152   9.699  0.3151 -0.5832 -0.9179
66500SOL     OW 9429   7.727   3.733   4.966 -0.3336  0.0473  0.1039
66500SOL    HW1 9430   7.681   3.689   5.038 -1.1856 -1.5234 -1.3261
66500SOL    HW2 9431   7.728   3.825   4.991 -1.1963 -0.3684  1.8062
66501SOL     OW 9432   4.252   0.662  11.473  0.0532  0.0164  0.4140
66501SOL    HW1 9433   4.307   0.589  11.443  1.2940  1.1139 -0.0760
66501SOL    HW2 9434   4.162   0.630  11.461  0.5601 -1.5758  0.5950
66502SOL     OW 9435   4.500   2.374   5.854  0.5477  0.1116 -0.2717
66502SOL    HW1 9436   4.430   2.343   5.797 -0.2315  2.6950 -0.8579
66502SOL    HW2 9437   4.455   2.423   5.923  1.7033  0.9188 -0.0616
66503SOL     OW 9438  10.210  11.432  11.622 -0.3896 -0.4293  0.1197
66503SOL    HW1 9439  10.252  11.423  11.536  2.7316 -0.9744  1.5404
66503SOL    HW2 9440  10.191  11.526  11.630  0.1723 -0.2267 -0.7886
66504SOL     OW 9441   0.155   0.131   6.715  0.1216 -0.3976 -0.2059
66504SOL    HW1 9442   0.235   0.086   6.689  0.5692  0.2540  0.0289
66504SOL    HW2 9443   0.175   0.224   6.705 -0.4247 -0.2099  0.3835
66505SOL     OW 9444  12.931   0.446   9.910  0.1538  0.2574 -0.3336
66505SOL    HW1 9445  12.976   0.515   9.861 -0.9697  0.5334 -1.0148
66505SOL    HW2 9446  12.993   0.373   9.913  1.5969  1.4575  0.8936
66506SOL     OW 9447   7.700   8.267   4.492  0.2859  0.5138 -0.2497
66506SOL    HW1 9448   7.633   8.336   4.488  0.8943  1.2729  1.5206
66506SOL    HW2 9449   7.656   8.193   4.535 -0.0066  0.2356 -1.0144
66507SOL     OW 9450   7.781   2.430  12.075  0.1350 -0.8399  0.2383
66507SOL    HW1 9451   7.838   2.483  12.019 -0.5365  0.2591  0.5558
66507SOL    HW2 9452   7.752   2.358  12.019  0.4510 -0.4389 -0.4493
66508SOL     OW 9453   2.104   0.428   5.699  0.2327 -0.2106  0.0806
66508SOL    HW1 9454   2.188   0.385   5.710 -0.4601 -2.4836 -2.6064
66508SOL    HW2 9455   2.049   0.365   5.653 -1.7849  2.5148 -1.6390
66509SOL     OW 9456   8.304   4.589   2.006 -0.1392 -0.1150 -0.1847
66509SOL    HW1 9457   8.314   4.683   2.019 -0.8132 -0.2144  1.1995
66509SOL    HW2 9458   8.385   4.562   1.963 -0.7993  1.4243 -2.6130
66510SOL     OW 9459   4.951   9.389  11.251  0.0615  0.2135 -1.0889
66510SOL    HW1 9460   5.014   9.383  11.179 -0.1647  0.9438 -1.3615
66510SOL    HW2 9461   4.878   9.439  11.214  0.5626  1.8780  0.0501
66511SOL     OW 9462   3.981   1.534  12.114 -0.0889 -0.0440 -0.8505
66511SOL    HW1 9463   3.957   1.627  12.114 -0.5371 -0.1121  0.9061
66511SOL    HW2 9464   3.914   1.492  12.061 -0.5143  0.5096 -0.7607
66512SOL     OW 9465   8.727   5.577   4.593  0.0734 -0.4402 -0.3906
66512SOL    HW1 9466   8.681   5.496   4.572 -2.6364  1.2762 -1.5829
66512SOL    HW2 9467   8.734   5.624   4.510  4.6232 -0.7272 -0.4403
66513SOL     OW 9468   2.365   6.786   5.674  0.2212  0.1216 -0.2336
66513SOL    HW1 9469   2.363   6.879   5.651 -0.8713  0.6424  1.7013
66513SOL    HW2 9470   2.386   6.785   5.768 -2.2307 -1.3900  0.3956
66514SOL     OW 9471   4.310   6.843  11.688  0.0873  0.2434  0.2412
66514SOL    HW1 9472   4.239   6.787  11.656  0.9153  0.8256 -2.9126
66514SOL    HW2 9473   4.380   6.782  11.713 -0.7342 -0.2410  1.4811
66515SOL     OW 9474   8.720  12.770   3.648 -0.2951  0.3040 -0.1388
66515SOL    HW1 9475   8.709  12.859   3.615  2.2036  0.3694 -1.0186
66515SOL    HW2 9476   8.724  12.780   3.743 -0.3229  1.0939 -0.2153
66516SOL     OW 9477   3.304   4.269  11.552 -0.0972  0.0925 -0.4569
66516SOL    HW1 9478   3.266   4.182  11.541 -0.0125 -0.1155  0.7391
66516SOL    HW2 9479   3.399   4.254  11.553 -0.0941  0.1149  0.2874
66517SOL     OW 9480   5.795   6.462  11.848 -0.1057 -0.1804 -0.7812
66517SOL    HW1 9481   5.722   6.411  11.814  0.2827 -1.9116  0.8437
66517SOL    HW2 9482   5.791   6.450  11.943  1.3230  1.0254 -0.5304
66518SOL     OW 9483   6.050  12.521   2.001  0.7000  0.4038 -0.4191
66518SOL    HW1 9484   6.136  12.557   1.979  1.0058 -0.0265  0.0750
66518SOL    HW2 9485   6.067  12.455   2.068 -0.0223  0.3644 -0.2642
66519SOL     OW 9486   0.150  12.692  12.283 -0.0368  0.3276  0.1503
66519SOL    HW1 9487   0.159  12.631  12.355  0.3569  1.0081  0.6898
66519SOL    HW2 9488   0.186  12.774  12.316  1.5091  0.2816 -1.2954
66520SOL     OW 9489   5.798   2.192  11.159 -0.0023 -0.5535  0.8809
66520SOL    HW1 9490   5.739   2.118  11.176  0.5556 -1.3721 -0.5998
66520SOL    HW2 9491   5.753   2.243  11.093  1.6029 -2.1039 -1.5638
66521SOL     OW 9492   7.032   0.228   1.622  1.0786 -0.2675 -0.3405
66521SOL    HW1 9493   6.985   0.168   1.680 -0.7843  1.3659 -0.0307
66521SOL    HW2 9494   7.114   0.184   1.603 -0.2612 -2.9885 -0.3042
66522SOL     OW 9495   0.907   3.672  13.043  0.3197 -0.0712  0.2322
66522SOL    HW1 9496   0.966   3.718  13.103 -0.1274 -1.8756  2.1693
66522SOL    HW2 9497   0.856   3.742  13.002  1.6341  1.3176  0.8519
66523SOL     OW 9498   3.402   8.735   5.271  0.5852  0.1019 -0.6171
66523SOL    HW1 9499   3.437   8.724   5.182  1.8096  0.3692 -0.1961
66523SOL    HW2 9500   3.399   8.829   5.284  1.0634  0.0610 -0.1486
66524SOL     OW 9501   3.432   1.901   6.345 -0.3045  0.7729  0.1372
66524SOL    HW1 9502   3.520   1.887   6.379  0.7076  1.6864 -1.9032
66524SOL    HW2 9503   3.434   1.991   6.311 -1.8366  0.6052 -0.4739
66525SOL     OW 9504   1.814   2.648   4.063 -0.3686  0.4080  0.0909
66525SOL    HW1 9505   1.765   2.568   4.046 -0.5723  0.4889  0.2970
66525SOL    HW2 9506   1.890   2.642   4.005 -0.4028  0.0847  0.0770
66526SOL     OW 9507   2.107   5.251  11.894  0.2839 -0.4187 -0.1892
66526SOL    HW1 9508   2.116   5.323  11.831  1.0639 -1.5631 -1.4343
66526SOL    HW2 9509   2.189   5.202  11.885 -0.0214 -1.1710  1.0208
66527SOL     OW 9510   7.680   5.179   2.673 -0.0965  0.0293  0.3195
66527SOL    HW1 9511   7.697   5.218   2.759 -0.4556 -0.8527  0.7987
66527SOL    HW2 9512   7.713   5.244   2.610 -1.0208  1.2658  1.0797
66528SOL     OW 9513   0.435   8.489   5.986 -0.1155  0.2190  0.8854
66528SOL    HW1 9514   0.508   8.509   6.045 -0.4026  0.3459  1.2030
66528SOL    HW2 9515   0.365   8.461   6.044 -1.1279  2.4237  0.8181
66529SOL     OW 9516   0.389   0.257   8.011 -0.2111  0.7026  0.8728
66529SOL    HW1 9517   0.372   0.330   8.070 -0.6445  0.3539  1.1829
66529SOL    HW2 9518   0.329   0.272   7.937 -0.2132  0.7296  0.8799
66530SOL     OW 9519   2.310  12.291  12.127  0.9377  0.6776 -0.1120
66530SOL    HW1 9520   2.298  12.313  12.220 -0.4288 -1.9358  0.4381
66530SOL    HW2 9521   2.323  12.375  12.084 -2.2205  2.4046  1.9195
66531SOL     OW 9522  11.558   5.451   7.734 -0.3969  0.2569  0.1439
66531SOL    HW1 9523  11.504   5.494   7.801 -1.2152 -2.0509  1.0578
66531SOL    HW2 9524  11.497   5.394   7.687  0.1534  1.8209 -2.6761
66532SOL     OW 9525  11.052   4.054   5.054 -0.2352  0.0383  0.8054
66532SOL    HW1 9526  11.085   4.126   5.000 -2.9736 -0.0873 -1.2503
66532SOL    HW2 9527  11.092   3.976   5.016 -0.8624  0.1077 -0.0359
66533SOL     OW 9528   2.808   4.271   7.572  0.0008  0.5036  0.1088
66533SOL    HW1 9529   2.757   4.286   7.651 -1.2243  1.2608 -0.7732
66533SOL    HW2 9530   2.796   4.179   7.552  1.0896  0.0833  1.2932
66534SOL     OW 9531  10.903   5.688   6.365 -0.0688  0.1041 -0.4939
66534SOL    HW1 9532  10.827   5.746   6.367 -0.1623 -0.0052 -0.7285
66534SOL    HW2 9533  10.880   5.622   6.300 -1.3436 -2.0580  1.9504
66535SOL     OW 9534   7.686  13.039  11.037  0.1854  0.1597  0.2556
66535SOL    HW1 9535   7.684  12.955  10.991  1.3827  1.0118 -1.4560
66535SOL    HW2 9536   7.761  13.032  11.096 -0.3092 -0.3233  0.8291
66536SOL     OW 9537   7.848  10.523  10.627 -0.0645  1.0934  0.1511
66536SOL    HW1 9538   7.894  10.467  10.564 -0.3235  0.4194  0.5569
66536SOL    HW2 9539   7.917  10.572  10.670  0.1901  0.8765 -0.0042
66537SOL     OW 9540   0.368  13.107   6.901 -0.6116  1.1559  0.0867
66537SOL    HW1 9541   0.340  13.193   6.934 -1.0043  1.2738 -0.5455
66537SOL    HW2 9542   0.360  13.049   6.977 -0.7198  1.5942  0.4148
66538SOL     OW 9543   6.759   8.596   6.167 -0.0297  0.1855 -0.2006
66538SOL    HW1 9544   6.677   8.555   6.142 -0.4562  0.0167  1.3570
66538SOL    HW2 9545   6.753   8.686   6.135 -1.0815  0.3396  0.4022
66539SOL     OW 9546   2.671   4.324  11.653  0.2975 -0.1419  0.4846
66539SOL    HW1 9547   2.680   4.375  11.733  0.3313  0.4485  0.1134
66539SOL    HW2 9548   2.737   4.361  11.593 -1.5603  1.3217 -0.7733
66540SOL     OW 9549   7.379   4.742   0.143  0.8819 -0.0953  0.8334
66540SOL    HW1 9550   7.351   4.790   0.221 -0.8657  0.0711  0.1386
66540SOL    HW2 9551   7.302   4.741   0.086  1.7747 -1.1948 -0.4168
66541SOL     OW 9552   8.373  12.484   6.842  0.3651 -0.0751  0.0219
66541SOL    HW1 9553   8.311  12.538   6.792  1.2145  1.2117  0.3123
66541SOL    HW2 9554   8.349  12.394   6.820 -0.8182  0.4160 -0.8204
66542SOL     OW 9555  10.129   3.902   2.171 -0.4747 -0.3097  0.0951
66542SOL    HW1 9556  10.035   3.920   2.176 -0.3720 -0.0206  1.2692
66542SOL    HW2 9557  10.147   3.844   2.245  0.4287  0.4587  0.5117
66543SOL     OW 9558  10.343   1.840  11.218  0.4051  0.6515  0.2361
66543SOL    HW1 9559  10.381   1.927  11.227 -0.0509  0.9234 -0.3813
66543SOL    HW2 9560  10.278   1.849  11.148  2.5443 -0.8812 -2.1585
66544SOL     OW 9561   7.778   7.164   6.792  0.4905 -0.2398 -0.3290
66544SOL    HW1 9562   7.835   7.235   6.763  0.3523  0.2190  0.4899
66544SOL    HW2 9563   7.716   7.205   6.853 -0.7189 -0.7217 -1.1879
66545SOL     OW 9564   6.460   7.925  13.062 -0.4900 -0.0351 -0.3414
66545SOL    HW1 9565   6.460   8.019  13.044 -0.4434 -0.3080 -1.8451
66545SOL    HW2 9566   6.531   7.890  13.009 -0.2902 -0.8889  0.4533
66546SOL     OW 9567   3.810  11.056  10.689 -0.2271 -0.2163  0.0964
66546SOL    HW1 9568   3.818  10.990  10.621  0.1627 -2.0880  1.8767
66546SOL    HW2 9569   3.720  11.047  10.720  0.4858 -1.6102  1.9230
66547SOL     OW 9570   7.052   2.884   2.990 -0.0077 -0.0015  0.6999
66547SOL    HW1 9571   7.080   2.822   3.058 -2.1792 -0.8315  0.9279
66547SOL    HW2 9572   6.956   2.878   2.991 -0.1944  1.9382 -0.6420
66548SOL     OW 9573   4.598  12.633   9.002  0.5136 -0.2664  0.2008
66548SOL    HW1 9574   4.660  12.624   9.075  0.1710  1.5940  0.7787
66548SOL    HW2 9575   4.526  12.575   9.025  1.6825 -1.9050 -0.1185
66549SOL     OW 9576   5.807   0.742  12.441 -0.3036  0.2408 -0.0915
66549SOL    HW1 9577   5.849   0.674  12.493  1.8649 -0.2605 -2.3117
66549SOL    HW2 9578   5.790   0.701  12.356 -0.8669  1.8767 -0.8220
66550SOL     OW 9579   3.281   7.626  13.025 -0.8398  0.3416  0.0015
66550SOL    HW1 9580   3.209   7.686  13.044 -3.1077 -1.9583 -0.8385
66550SOL    HW2 9581   3.313   7.598  13.110 -1.3297  0.9196  0.3781
66551SOL     OW 9582   2.150  12.205   9.961  0.2486 -0.1037 -0.4062
66551SOL    HW1 9583   2.190  12.186   9.876  0.1641  0.6977 -0.6355
66551SOL    HW2 9584   2.196  12.283   9.992 -0.9980  0.7291 -0.5894
66552SOL     OW 9585  12.967   1.828  11.937 -0.0489  0.4204  0.6617
66552SOL    HW1 9586  13.017   1.841  11.856 -0.8254  1.5519  0.3425
66552SOL    HW2 9587  12.877   1.814  11.908 -0.0028 -1.2535  1.2460
66553SOL     OW 9588   7.006   2.850   1.306 -0.1025 -0.2721 -0.2426
66553SOL    HW1 9589   7.033   2.902   1.230 -2.9770  0.0483 -1.1666
66553SOL    HW2 9590   7.057   2.769   1.298  1.4562  0.7277 -1.0838
66554SOL     OW 9591  12.105   6.970  11.912 -1.0477  0.0004 -0.3497
66554SOL    HW1 9592  12.159   6.894  11.931  0.0123  0.8304  0.0495
66554SOL    HW2 9593  12.017   6.935  11.902 -0.8310 -1.1058  1.2642
66555SOL     OW 9594  11.901  12.521   6.504  0.3059  0.4149  0.1163
66555SOL    HW1 9595  11.904  12.460   6.578  1.7098 -0.1395 -0.3627
66555SOL    HW2 9596  11.818  12.567   6.515 -0.7907 -1.5333  0.5268
66556SOL     OW 9597   3.547   4.224  12.781 -0.1274  0.4113 -0.1807
66556SOL    HW1 9598   3.483   4.168  12.825 -1.2498 -0.1017 -2.3190
66556SOL    HW2 9599   3.498   4.303  12.759  0.3052  0.5021 -0.8388
66557SOL     OW 9600   9.255   2.679   1.605 -0.0828  0.3679 -0.2986
66557SOL    HW1 9601   9.200   2.688   1.683 -1.1376 -1.2833 -0.8159
66557SOL    HW2 9602   9.201   2.712   1.533 -0.6534 -1.6973 -0.8840
66558SOL     OW 9603   6.296   7.444   1.055  0.1321 -0.5598  0.1728
66558SOL    HW1 9604   6.225   7.507   1.062  1.5109  1.1632 -0.6535
66558SOL    HW2 9605   6.256   7.367   1.015 -1.0171  0.8362 -1.4894
66559SOL     OW 9606   4.994   7.375   7.537  0.2757  0.2871 -0.4270
66559SOL    HW1 9607   5.041   7.295   7.513  3.8283  2.6773 -2.4571
66559SOL    HW2 9608   4.987   7.371   7.632  1.2062 -1.9910 -0.3999
66560SOL     OW 9609  11.139   0.714   6.630  0.4792 -0.0030 -0.4751
66560SOL    HW1 9610  11.069   0.766   6.591 -0.0997 -0.2914  0.1499
66560SOL    HW2 9611  11.165   0.764   6.708  0.0683 -0.5265  0.0077
66561SOL     OW 9612   5.991   0.112   5.909  0.0090 -0.1898  0.7603
66561SOL    HW1 9613   5.906   0.099   5.952 -0.6500  2.2378  0.3872
66561SOL    HW2 9614   6.054   0.112   5.981 -0.9349  2.5632  1.7456
66562SOL     OW 9615   3.226   9.308   4.915 -0.2158  0.2215  0.6248
66562SOL    HW1 9616   3.211   9.284   4.823  1.0617 -1.5579  0.8445
66562SOL    HW2 9617   3.148   9.276   4.960  0.0442 -0.7264  0.4323
66563SOL     OW 9618   3.741   0.658  11.960  0.1338  0.8213  0.0732
66563SOL    HW1 9619   3.803   0.708  11.907  2.9107 -0.8959  1.4938
66563SOL    HW2 9620   3.793   0.623  12.032 -2.4559 -1.0185  1.2158
66564SOL     OW 9621  10.243   6.184   5.086  0.1446  0.6021 -0.4261
66564SOL    HW1 9622  10.204   6.165   5.001  0.5412  1.6226 -0.8565
66564SOL    HW2 9623  10.335   6.199   5.067  0.6228 -0.9935  0.4672
66565SOL     OW 9624   7.801  11.754   1.655 -0.0012  0.0827  0.0834
66565SOL    HW1 9625   7.873  11.693   1.671  0.1078  0.4496  1.1074
66565SOL    HW2 9626   7.840  11.841   1.669 -0.2327  0.3787 -1.0284
66566SOL     OW 9627   4.430   2.611   1.621 -0.1664 -0.2592 -0.0031
66566SOL    HW1 9628   4.485   2.566   1.684 -0.5576  0.6905  1.0520
66566SOL    HW2 9629   4.486   2.624   1.544 -0.3051 -3.2613 -0.7201
66567SOL     OW 9630   2.796   2.840   6.072  0.1010  0.4662 -0.2677
66567SOL    HW1 9631   2.827   2.931   6.072  1.2119  0.1017 -1.0032
66567SOL    HW2 9632   2.715   2.843   6.021  1.3973  0.6656 -2.4347
66568SOL     OW 9633   3.974   5.904   3.037 -0.0214  0.4349  0.5671
66568SOL    HW1 9634   3.934   5.840   3.096  1.9463 -2.4727 -0.9807
66568SOL    HW2 9635   3.901   5.948   2.995 -1.5572 -1.9536  0.5764
66569SOL     OW 9636   5.979   8.851   0.177 -0.1330  0.2256  0.0266
66569SOL    HW1 9637   6.003   8.853   0.084 -0.6382 -1.4631 -0.1799
66569SOL    HW2 9638   5.962   8.942   0.199  1.5862  0.8788 -1.0970
66570SOL     OW 9639   8.755   7.436   8.504 -0.3063  0.2273  0.2565
66570SOL    HW1 9640   8.735   7.529   8.500 -1.4855  0.0044  0.3881
66570SOL    HW2 9641   8.770   7.410   8.414 -0.3660  0.4761  0.1753
66571SOL     OW 9642   5.944   6.527   8.538 -0.4492  0.1464  0.1668
66571SOL    HW1 9643   5.987   6.592   8.593  0.3790 -0.1741 -0.0827
66571SOL    HW2 9644   5.864   6.505   8.585  0.4475 -0.4429  1.4988
66572SOL     OW 9645   1.855   2.081   0.802  0.2288  0.0698 -0.6814
66572SOL    HW1 9646   1.947   2.076   0.828  0.6168 -0.0950 -2.0317
66572SOL    HW2 9647   1.827   1.989   0.795  0.2400  0.0995 -1.1739
66573SOL     OW 9648   2.923   0.664   7.318 -0.5784  0.0541 -0.0467
66573SOL    HW1 9649   2.942   0.606   7.244 -0.3490 -1.1202  0.9096
66573SOL    HW2 9650   2.863   0.615   7.374 -0.1062  0.5792  0.9627
66574SOL     OW 9651   2.805   7.192  11.356  0.0188 -0.1984  0.0898
66574SOL    HW1 9652   2.757   7.274  11.365  0.3368  0.3248 -2.3964
66574SOL    HW2 9653   2.743   7.125  11.386 -0.5129  0.8439  1.4262
66575SOL     OW 9654  11.949  10.574   2.247 -0.0695  0.2014 -0.1034
66575SOL    HW1 9655  11.900  10.492   2.251 -0.1957  0.3227  2.0713
66575SOL    HW2 9656  11.892  10.637   2.292  1.2554  0.7864  0.8046
66576SOL     OW 9657   8.146  10.849  12.042 -0.0385 -0.1131 -0.0395
66576SOL    HW1 9658   8.112  10.766  12.010  0.5403 -0.1642 -0.5438
66576SOL    HW2 9659   8.162  10.901  11.963 -0.2899  0.4415  0.2622
66577SOL     OW 9660   7.117   9.284   3.413 -0.3024  0.6353 -0.1892
66577SOL    HW1 9661   7.187   9.273   3.478  0.9721  0.3994 -1.5624
66577SOL    HW2 9662   7.131   9.371   3.377 -1.2802  0.9395  0.1276
66578SOL     OW 9663   1.318   8.653   9.047  0.5098  0.2845 -0.1193
66578SOL    HW1 9664   1.304   8.619   8.959  0.8063 -0.6314  0.1702
66578SOL    HW2 9665   1.410   8.679   9.049  0.7205 -0.4387  0.1437
66579SOL     OW 9666  10.901   9.755   3.783  0.0213  0.0207 -0.1688
66579SOL    HW1 9667  10.857   9.717   3.859  1.1582  0.1159  0.5531
66579SOL    HW2 9668  10.960   9.820   3.819  1.3102 -0.6206 -1.0460
66580SOL     OW 9669  11.811   5.373   4.932  0.3066 -0.3270 -0.0327
66580SOL    HW1 9670  11.740   5.408   4.879 -0.3466 -2.1626 -0.4564
66580SOL    HW2 9671  11.859   5.316   4.873  1.5093  0.0623  0.5353
66581SOL     OW 9672   8.571   4.589   0.121  0.3831 -0.1828  0.0703
66581SOL    HW1 9673   8.613   4.534   0.187 -1.1685  0.3557  1.5830
66581SOL    HW2 9674   8.490   4.542   0.099  0.3622  0.1765 -0.6551
66582SOL     OW 9675  12.139  12.640   5.351 -0.3577  0.2044 -0.5635
66582SOL    HW1 9676  12.085  12.599   5.284  0.6663  0.1256 -1.3610
66582SOL    HW2 9677  12.115  12.732   5.348 -1.4584 -0.0443  0.0771
66583SOL     OW 9678  11.389   8.976   8.843 -0.0969 -0.0087  0.1524
66583SOL    HW1 9679  11.307   8.946   8.882 -0.5502  0.7751 -0.1859
66583SOL    HW2 9680  11.450   8.982   8.916 -1.0995  2.0473  0.8974
66584SOL     OW 9681   6.961   9.479   9.921 -0.0507  0.2693  0.5711
66584SOL    HW1 9682   6.885   9.530   9.892  0.2724 -0.2674 -1.3923
66584SOL    HW2 9683   6.927   9.390   9.932  0.3844 -0.1603 -1.1371
66585SOL     OW 9684   7.595   5.235  10.719  0.0896 -0.1181 -0.3939
66585SOL    HW1 9685   7.596   5.295  10.644  0.3221  0.4439  0.0518
66585SOL    HW2 9686   7.653   5.275  10.783  1.1940 -1.4093 -0.5358
66586SOL     OW 9687   2.648   7.192  10.111  0.3518 -0.1636  0.6425
66586SOL    HW1 9688   2.614   7.126  10.171  0.8266 -0.3372  0.7229
66586SOL    HW2 9689   2.570   7.225  10.065  0.0106 -0.1647  1.2141
66587SOL     OW 9690   9.834   9.550  10.297 -0.3361  0.0147 -0.0321
66587SOL    HW1 9691   9.785   9.615  10.348  1.2425  1.2373  0.0368
66587SOL    HW2 9692   9.923   9.554  10.334  0.3389 -0.5354 -1.5443
66588SOL     OW 9693   8.705   8.230   0.919 -0.5086 -0.4079  0.4690
66588SOL    HW1 9694   8.775   8.284   0.882 -1.0086  0.5113  0.8002
66588SOL    HW2 9695   8.657   8.197   0.844  0.8914 -1.9415  0.1937
66589SOL     OW 9696  12.382  12.455   6.643  0.1769 -0.5656  0.0698
66589SOL    HW1 9697  12.386  12.526   6.579  0.0317  1.1134  1.8252
66589SOL    HW2 9698  12.467  12.412   6.637  0.5049  0.1539 -0.5897
66590SOL     OW 9699   5.974   7.210  12.574  0.1447  0.0257  0.4065
66590SOL    HW1 9700   5.931   7.225  12.659  0.4775 -1.0669  0.7849
66590SOL    HW2 9701   5.980   7.297  12.535 -1.2055  0.3766  0.9244
66591SOL     OW 9702  11.135  11.343  11.981  0.2372 -0.0910  0.0455
66591SOL    HW1 9703  11.090  11.421  11.949  1.4924  0.2841 -0.8964
66591SOL    HW2 9704  11.168  11.300  11.902 -0.3612 -1.5442  0.5590
66592SOL     OW 9705  10.237  12.502   9.859  0.5338  0.2284 -0.5634
66592SOL    HW1 9706  10.181  12.553   9.800 -0.3778  0.6588  0.6208
66592SOL    HW2 9707  10.200  12.413   9.856  0.6572  0.1854 -0.8354
66593SOL     OW 9708   1.192  12.516   4.948  0.0500  0.1712 -0.0956
66593SOL    HW1 9709   1.234  12.597   4.917  1.6276 -0.0697  1.3021
66593SOL    HW2 9710   1.110  12.512   4.899 -0.2198  2.7872  0.0044
66594SOL     OW 9711  10.797   7.559   1.672  0.1676 -0.7678 -0.4519
66594SOL    HW1 9712  10.774   7.650   1.691  0.6150 -0.2430 -2.2474
66594SOL    HW2 9713  10.891   7.561   1.653  0.4407 -1.8312  0.6646
66595SOL     OW 9714   8.806  12.146   7.782  0.3603 -0.1840  0.5792
66595SOL    HW1 9715   8.784  12.219   7.839  1.8402 -0.2678  1.3149
66595SOL    HW2 9716   8.726  12.093   7.778  0.7298 -1.3557  4.3993
66596SOL     OW 9717   0.283  10.735   3.185 -0.2032 -0.0624 -0.3580
66596SOL    HW1 9718   0.217  10.696   3.241 -0.1230  0.2318 -0.0536
66596SOL    HW2 9719   0.245  10.820   3.159  0.7187  0.8473  1.1426
66597SOL     OW 9720   1.292  11.562   6.278 -0.1131 -0.1802  0.0599
66597SOL    HW1 9721   1.205  11.602   6.273 -0.1706 -0.4705 -2.5413
66597SOL    HW2 9722   1.282  11.492   6.342 -2.2223 -1.0721 -1.1368
66598SOL     OW 9723   3.350   2.462   0.882  0.3407 -0.4543 -0.8288
66598SOL    HW1 9724   3.343   2.381   0.934  1.7433 -0.9766 -1.3975
66598SOL    HW2 9725   3.406   2.519   0.935 -1.1512  0.4165 -0.1414
66599SOL     OW 9726  10.002  12.062   5.844 -0.1148  0.4696 -0.0951
66599SOL    HW1 9727   9.925  12.112   5.813  1.1900  1.7564 -1.4585
66599SOL    HW2 9728   9.971  11.972   5.850 -1.8040  0.9873 -0.3558
66600SOL     OW 9729  12.425   2.701   3.087  0.3352  0.2695 -0.1501
66600SOL    HW1 9730  12.487   2.773   3.083  0.9473 -0.3126 -1.6411
66600SOL    HW2 9731  12.340   2.744   3.101  0.8682  1.1555  0.5166
66601SOL     OW 9732  11.351   0.525   6.624  0.2730  0.2477  0.6069
66601SOL    HW1 9733  11.271   0.475   6.606 -0.7397  2.6799 -2.4804
66601SOL    HW2 9734  11.324   0.616   6.621  2.8991  1.1302  1.0767
66602SOL     OW 9735   4.177   9.812   7.635  0.2678 -0.1604 -0.6985
66602SOL    HW1 9736   4.228   9.744   7.591  0.4202 -1.3129  1.1114
66602SOL    HW2 9737   4.108   9.764   7.680  1.4057  0.5832  2.0846
66603SOL     OW 9738   0.801   4.823   1.190 -0.3650 -0.0173 -0.1713
66603SOL    HW1 9739   0.774   4.735   1.216  0.5660 -0.7317 -1.4736
66603SOL    HW2 9740   0.747   4.882   1.243 -1.2613 -1.3616  0.4649
66604SOL     OW 9741   4.001   4.876   4.321 -0.1987  0.2268  0.7011
66604SOL    HW1 9742   4.024   4.852   4.231 -1.0291 -2.8511  1.1853
66604SOL    HW2 9743   4.084   4.874   4.368  0.0206  0.2137  0.3195
66605SOL     OW 9744   5.210   9.256   0.702  0.2450 -0.2861 -0.3194
66605SOL    HW1 9745   5.221   9.277   0.795  1.0880  0.0721 -0.4937
66605SOL    HW2 9746   5.292   9.284   0.661 -0.1750 -0.3104 -1.1981
66606SOL     OW 9747   9.805   1.508   3.775 -0.2299  0.0419  0.4485
66606SOL    HW1 9748   9.792   1.497   3.681  0.2575 -1.9957  0.5693
66606SOL    HW2 9749   9.852   1.429   3.802 -1.9327 -0.3190  2.7033
66607SOL     OW 9750   8.038   5.557   7.081 -0.2392  0.0525  0.6794
66607SOL    HW1 9751   7.960   5.584   7.032 -0.5478  0.0450  1.1653
66607SOL    HW2 9752   8.055   5.468   7.051 -1.6846 -0.7569  2.1278
66608SOL     OW 9753   5.626  13.092   4.788 -0.0896 -0.3347 -0.0390
66608SOL    HW1 9754   5.637  13.074   4.881  0.5189  2.2546  0.4681
66608SOL    HW2 9755   5.532  13.085   4.772 -0.2739 -0.1706  0.9321
66609SOL     OW 9756  12.926   7.336  10.627  0.2046  0.4857  0.1497
66609SOL    HW1 9757  12.902   7.427  10.615 -0.2537  0.3044 -0.3816
66609SOL    HW2 9758  12.861   7.287  10.576 -0.2580 -0.1983  1.3429
66610SOL     OW 9759   4.612  10.627   4.536  0.3028 -0.2878  0.3856
66610SOL    HW1 9760   4.562  10.547   4.548  0.2828 -0.8744 -2.7269
66610SOL    HW2 9761   4.561  10.695   4.581 -0.2651 -1.7973  2.1023
66611SOL     OW 9762   5.553   2.031   1.785  0.6259  0.0217  0.1167
66611SOL    HW1 9763   5.518   2.066   1.703  2.1132  0.6078 -0.2996
66611SOL    HW2 9764   5.554   2.106   1.844  0.7755 -0.0917  0.2579
66612SOL     OW 9765   9.628   3.733   5.056 -0.0627  0.0442 -0.0367
66612SOL    HW1 9766   9.633   3.774   4.969  0.3431  0.4727  0.1851
66612SOL    HW2 9767   9.642   3.640   5.040 -0.5204  0.0492 -0.4942
66613SOL     OW 9768   9.861   6.836   4.363  0.1128  0.2714 -0.3885
66613SOL    HW1 9769   9.865   6.879   4.278 -1.7327 -0.0872 -0.7078
66613SOL    HW2 9770   9.824   6.749   4.344  0.9815 -0.3427  0.6164
66614SOL     OW 9771   4.863   6.058  11.110  0.0860 -0.1548 -0.3937
66614SOL    HW1 9772   4.870   5.964  11.097  1.6038 -0.2857  0.9370
66614SOL    HW2 9773   4.781   6.070  11.157  0.6691 -1.0306  0.9068
66615SOL     OW 9774  10.024   7.245   4.180  0.3507 -0.0857  0.3275
66615SOL    HW1 9775  10.090   7.237   4.111  0.4508  1.5822  0.1792
66615SOL    HW2 9776  10.014   7.339   4.193  0.0743 -0.3355  2.3602
66616SOL     OW 9777   5.797  13.041   5.865 -0.4643  0.0985 -0.2894
66616SOL    HW1 9778   5.792  13.089   5.948  0.0084 -0.1574 -0.1087
66616SOL    HW2 9779   5.721  13.071   5.815 -0.6001  0.4587  0.1285
66617SOL     OW 9780   9.821   6.076  12.196 -0.0815 -0.3762  0.6421
66617SOL    HW1 9781   9.913   6.054  12.212  0.1508 -0.4703 -0.7145
66617SOL    HW2 9782   9.782   6.077  12.284  1.1452 -0.5862  1.2262
66618SOL     OW 9783   3.145  11.543   1.428 -0.7032 -0.0629  0.4459
66618SOL    HW1 9784   3.139  11.466   1.372  2.1742  0.3654 -0.6303
66618SOL    HW2 9785   3.083  11.605   1.390 -1.2183 -0.9505 -0.2021
66619SOL     OW 9786   2.519   8.171  11.111  0.0586 -0.3218 -0.0160
66619SOL    HW1 9787   2.435   8.201  11.075 -0.5412  0.1772  1.7059
66619SOL    HW2 9788   2.569   8.251  11.125 -0.0028 -0.4261  0.8819
66620SOL     OW 9789  10.545   5.631  13.056  0.1645  0.0328  0.3459
66620SOL    HW1 9790  10.469   5.615  12.999  0.0662  1.5646 -0.0108
66620SOL    HW2 9791  10.606   5.561  13.035 -0.3754 -0.1362 -0.7602
66621SOL     OW 9792   5.149   6.929   7.012 -0.0341  0.2033 -0.1701
66621SOL    HW1 9793   5.115   7.017   6.997 -0.6353 -0.1023 -0.6736
66621SOL    HW2 9794   5.072   6.872   7.004  0.7336 -0.6315 -2.3615
66622SOL     OW 9795   7.044   1.700   1.321  0.3229  0.0446 -0.0763
66622SOL    HW1 9796   6.988   1.734   1.390 -0.3830 -0.2781 -0.4782
66622SOL    HW2 9797   7.015   1.609   1.309  2.4672 -0.9001  1.2832
66623SOL     OW 9798   2.949   6.355   1.286  0.5911 -0.1576  0.0987
66623SOL    HW1 9799   2.994   6.332   1.367  0.5626  2.0991  0.8069
66623SOL    HW2 9800   2.856   6.339   1.306  0.6300 -0.1015  0.3320
66624SOL     OW 9801   2.962   4.047  10.857  0.1254 -0.1215  0.2934
66624SOL    HW1 9802   3.016   4.071  10.782  0.0202 -1.1963 -0.1379
66624SOL    HW2 9803   2.877   4.086  10.838  0.6739  1.4917  0.9249
66625SOL     OW 9804   0.677   7.813   9.141  0.4425 -0.0297  0.0482
66625SOL    HW1 9805   0.669   7.818   9.236  0.2714 -0.7305  0.0728
66625SOL    HW2 9806   0.769   7.794   9.125  0.3585 -0.4944  0.1010
66626SOL     OW 9807   5.876   4.389   3.260 -0.0803 -0.0181 -0.0365
66626SOL    HW1 9808   5.889   4.321   3.326  1.5067 -1.3110 -1.5757
66626SOL    HW2 9809   5.882   4.472   3.308  3.3992 -0.8198  1.1564
66627SOL     OW 9810   7.557   0.921   9.896  0.0209 -0.0870 -0.1840
66627SOL    HW1 9811   7.631   0.863   9.910  0.8858  0.9575 -0.2938
66627SOL    HW2 9812   7.521   0.936   9.984  2.5247  2.6718  0.5463
66628SOL     OW 9813   7.523   2.333   1.819  0.2273  0.0805 -0.2058
66628SOL    HW1 9814   7.605   2.284   1.820  1.7451  2.4633 -0.8770
66628SOL    HW2 9815   7.502   2.347   1.912  1.8929  1.4465  0.0034
66629SOL     OW 9816   1.614   3.989   8.911  0.7432 -0.1724  0.0511
66629SOL    HW1 9817   1.643   3.916   8.965  2.3976  0.7239  0.4427
66629SOL    HW2 9818   1.694   4.037   8.889 -0.1044  0.5975 -1.5807
66630SOL     OW 9819   1.876  10.135   6.812  0.2450  0.8431 -0.5075
66630SOL    HW1 9820   1.813  10.200   6.843 -0.9046 -0.3726 -0.1916
66630SOL    HW2 9821   1.897  10.083   6.890  2.1790  1.6042 -0.4491
66631SOL     OW 9822   2.612   5.361   9.363  0.6331 -0.0642 -0.1437
66631SOL    HW1 9823   2.609   5.456   9.380  1.1787 -0.1647  0.5651
66631SOL    HW2 9824   2.555   5.323   9.431  2.5277 -0.4423  1.3264
66632SOL     OW 9825   4.250   3.143   8.412 -0.2486 -0.0201  0.1815
66632SOL    HW1 9826   4.325   3.086   8.393  0.1952  0.8844 -0.9269
66632SOL    HW2 9827   4.226   3.179   8.327 -1.6006  0.1351  0.6184
66633SOL     OW 9828   1.785  11.173   1.276  0.2621 -0.8854  0.7285
66633SOL    HW1 9829   1.854  11.237   1.293  1.9173 -2.7057  1.2757
66633SOL    HW2 9830   1.705  11.213   1.312  1.6239  0.0152  2.9554
66634SOL     OW 9831   9.039   7.388  10.629  0.5506  0.9012  0.1478
66634SOL    HW1 9832   8.990   7.323  10.578 -2.0859  0.9574  2.3377
66634SOL    HW2 9833   9.076   7.338  10.702 -1.9023  1.7366  2.1189
66635SOL     OW 9834   7.739   8.913   3.271 -0.7095  0.2217  0.4599
66635SOL    HW1 9835   7.713   8.840   3.328  0.1907 -1.2093 -0.8843
66635SOL    HW2 9836   7.719   8.882   3.183 -0.4657  1.6979 -0.1320
66636SOL     OW 9837   5.666  10.467   7.054 -0.0805  0.2299  0.3866
66636SOL    HW1 9838   5.591  10.441   7.108  0.3445  1.5052  1.6636
66636SOL    HW2 9839   5.715  10.528   7.109  2.3447 -1.1500 -0.0711
66637SOL     OW 9840  11.027   7.390  12.373 -0.4930  0.1114  0.1327
66637SOL    HW1 9841  11.022   7.344  12.290  1.3511  0.5271 -0.2411
66637SOL    HW2 9842  11.120   7.388  12.397 -0.1963  3.9475 -0.1068
66638SOL     OW 9843   1.408   2.959   5.095 -0.4530  0.1914 -0.8113
66638SOL    HW1 9844   1.392   2.959   5.189 -1.8244 -2.3110 -0.9792
66638SOL    HW2 9845   1.323   2.942   5.056  0.6392 -2.3508 -2.3008
66639SOL     OW 9846   8.471   1.358   2.803 -0.1325  0.3037  0.0203
66639SOL    HW1 9847   8.396   1.337   2.748 -0.1772  0.0109  0.1892
66639SOL    HW2 9848   8.437   1.417   2.870 -0.4052 -0.4772  0.5919
66640SOL     OW 9849  13.111   5.696  11.468 -0.0392  0.5990 -0.2021
66640SOL    HW1 9850  13.081   5.609  11.493 -1.6152  1.5168  1.3706
66640SOL    HW2 9851  13.197   5.682  11.429 -0.2416 -1.6395  0.0370
66641SOL     OW 9852  10.450  10.517  12.246  0.2430 -0.4526 -0.2091
66641SOL    HW1 9853  10.485  10.586  12.302 -0.9129  0.5714 -0.7051
66641SOL    HW2 9854  10.506  10.441  12.264  1.4524  0.5507  0.4628
66642SOL     OW 9855   9.811   8.163   5.011  0.0737 -0.7139  0.3013
66642SOL    HW1 9856   9.728   8.195   4.978 -0.4635 -1.3040  1.0445
66642SOL    HW2 9857   9.877   8.209   4.959 -0.7211 -1.2064 -1.1877
66643SOL     OW 9858   0.567   9.050   5.440  0.5247  0.0084 -0.4097
66643SOL    HW1 9859   0.643   8.995   5.423  0.1234 -0.3517 -1.0756
66643SOL    HW2 9860   0.522   9.057   5.356 -0.1881  0.2116 -0.0267
66644SOL     OW 9861   3.994   9.608  13.289  0.0205  0.6526 -0.0827
66644SOL    HW1 9862   4.067   9.669  13.279  1.1252 -0.6312 -0.2009
66644SOL    HW2 9863   4.005   9.545  13.217  0.0629 -0.7896  1.1366
66645SOL     OW 9864   8.996   3.993   3.589 -0.1400 -0.4997  0.2012
66645SOL    HW1 9865   9.024   3.951   3.508 -1.1520 -0.2826 -0.2736
66645SOL    HW2 9866   8.976   4.083   3.565  1.3839  0.1080  1.0873
66646SOL     OW 9867   0.576   2.613   8.422  0.2771  0.4096  0.3125
66646SOL    HW1 9868   0.498   2.568   8.455 -0.6451  1.1230 -0.8179
66646SOL    HW2 9869   0.648   2.551   8.438 -0.6695 -0.6964  0.4450
66647SOL     OW 9870   6.185   7.415  12.849 -0.0386 -0.1462 -0.1059
66647SOL    HW1 9871   6.212   7.336  12.896 -0.0320  0.1601  0.4146
66647SOL    HW2 9872   6.129   7.462  12.911  0.2027  0.4057 -0.2985
66648SOL     OW 9873   3.982  12.982   0.822  0.9882 -0.1620 -0.0499
66648SOL    HW1 9874   3.928  13.052   0.860 -0.1757 -1.2357  0.3602
66648SOL    HW2 9875   3.918  12.921   0.786  1.8924 -2.0565  1.4365
66649SOL     OW 9876   7.444  10.046   2.783  0.1157 -0.6576 -0.0228
66649SOL    HW1 9877   7.466  10.131   2.821 -1.8861 -0.0175 -0.2169
66649SOL    HW2 9878   7.451  10.059   2.689 -1.5369 -0.2797 -0.1144
66650SOL     OW 9879   0.703   8.578   5.201 -0.0021 -0.2447 -0.1632
66650SOL    HW1 9880   0.780   8.579   5.145  0.5422  2.5763  0.5401
66650SOL    HW2 9881   0.736   8.555   5.287 -0.1555 -0.2198 -0.0981
66651SOL     OW 9882   3.347   2.779   9.776 -0.3090 -0.2672  0.1449
66651SOL    HW1 9883   3.293   2.820   9.844  0.0148 -1.8112  1.3586
66651SOL    HW2 9884   3.434   2.773   9.814  0.1744 -0.0333 -0.8862
66652SOL     OW 9885   7.573   3.673  12.182  0.0785  0.3605  0.0322
66652SOL    HW1 9886   7.668   3.669  12.170  0.0648  0.8552 -0.2988
66652SOL    HW2 9887   7.555   3.767  12.192 -0.6006  0.4698 -1.8892
66653SOL     OW 9888  10.337   7.463   5.080 -0.4169 -0.1139 -0.4270
66653SOL    HW1 9889  10.268   7.397   5.074 -1.7985  1.0909  1.2471
66653SOL    HW2 9890  10.374   7.451   5.167 -1.2119  1.7375  0.2238
66654SOL     OW 9891  12.231   9.722  12.950 -0.1839  0.8769 -0.4517
66654SOL    HW1 9892  12.246   9.658  13.020 -0.7265  0.7614 -0.4378
66654SOL    HW2 9893  12.259   9.805  12.988 -0.0484  0.7449 -0.2580
66655SOL     OW 9894   4.515   6.746   9.378  0.0464 -0.2085 -0.3826
66655SOL    HW1 9895   4.480   6.698   9.453 -0.9368  1.6704  0.4503
66655SOL    HW2 9896   4.602   6.773   9.406 -0.6466  1.2628  0.5549
66656SOL     OW 9897  11.233   4.386  11.301 -0.0595  0.2282 -0.1091
66656SOL    HW1 9898  11.149   4.411  11.340 -0.0236  0.3111 -0.0845
66656SOL    HW2 9899  11.211   4.358  11.212 -0.0353  0.8550 -0.3196
66657SOL     OW 9900  11.330   7.658  10.780  0.7084  0.2298 -0.3821
66657SOL    HW1 9901  11.376   7.741  10.767 -1.7732  2.0637  1.5300
66657SOL    HW2 9902  11.301   7.632  10.692 -0.3087  2.6083 -0.8242
66658SOL     OW 9903  12.871  10.305  11.711  0.3965  0.1351 -0.6922
66658SOL    HW1 9904  12.890  10.293  11.804 -2.4412  0.9859  0.1286
66658SOL    HW2 9905  12.956  10.318  11.670  1.8113 -1.2244  1.6130
66659SOL     OW 9906   8.374   5.182  12.601 -0.4145 -0.3345  0.1030
66659SOL    HW1 9907   8.445   5.245  12.614  1.1517 -1.9833 -0.0238
66659SOL    HW2 9908   8.342   5.163  12.690 -0.3847  0.0710  0.2007
66660SOL     OW 9909   3.508   3.673  11.471  0.0504 -0.2243  0.1525
66660SOL    HW1 9910   3.586   3.635  11.512 -0.6886 -1.8266  0.1398
66660SOL    HW2 9911   3.517   3.767  11.485  1.4117 -0.4744  1.1552
66661SOL     OW 9912   5.354   5.416  10.552  0.6086 -0.2634  0.3593
66661SOL    HW1 9913   5.289   5.481  10.524 -1.0768 -1.9548  0.1510
66661SOL    HW2 9914   5.431   5.468  10.575 -0.7092  1.8114  0.3604
66662SOL     OW 9915   3.052   0.049   2.470  0.1168 -0.4390 -0.6640
66662SOL    HW1 9916   2.969   0.078   2.433  0.0032  0.5070  0.2886
66662SOL    HW2 9917   3.104   0.021   2.394 -0.2756  0.9990 -1.4968
66663SOL     OW 9918   7.775   2.886   8.139  0.3937  0.2021 -0.4875
66663SOL    HW1 9919   7.741   2.949   8.076 -1.0965  0.2156  0.2659
66663SOL    HW2 9920   7.696   2.844   8.174  1.2850 -1.0786  0.0427
66664SOL     OW 9921   6.454   9.417   6.675  0.1035 -0.2395  0.3264
66664SOL    HW1 9922   6.408   9.416   6.591  0.4288 -2.5247  0.1307
66664SOL    HW2 9923   6.418   9.342   6.723  1.9729 -0.7054  1.0606
66665SOL     OW 9924   3.385   9.407  10.618  0.3233 -0.1482  0.1717
66665SOL    HW1 9925   3.294   9.378  10.618  0.9502 -2.2295  0.3579
66665SOL    HW2 9926   3.431   9.344  10.672  2.3194 -0.6463 -1.9259
66666SOL     OW 9927   1.730   5.899   0.120 -0.1978 -0.0449 -0.1158
66666SOL    HW1 9928   1.700   5.832   0.058  3.1840 -0.8897 -1.0562
66666SOL    HW2 9929   1.696   5.870   0.205 -0.3067 -2.0262 -0.7794
66667SOL     OW 9930   0.666   9.401  12.190 -0.3076 -0.1093  0.0037
66667SOL    HW1 9931   0.658   9.413  12.284 -0.2635 -1.1846  0.1580
66667SOL    HW2 9932   0.697   9.311  12.180 -0.0293  0.0887 -1.0248
66668SOL     OW 9933  10.208  10.910   8.386 -0.0600 -0.7132  0.5817
66668SOL    HW1 9934  10.219  10.869   8.472 -2.4854  0.8334  1.7370
66668SOL    HW2 9935  10.138  10.859   8.344 -0.6354  0.0544  0.5837
66669SOL     OW 9936   2.298   3.321   6.686  0.0728 -0.1179  0.1912
66669SOL    HW1 9937   2.313   3.254   6.618  1.6040 -1.5864  1.8822
66669SOL    HW2 9938   2.213   3.299   6.723  0.4808 -1.0628  0.6056
66670SOL     OW 9939   3.827  10.479   6.979 -0.0507  0.3363  0.4141
66670SOL    HW1 9940   3.842  10.514   6.891 -1.4032 -0.7838 -0.3121
66670SOL    HW2 9941   3.894  10.412   6.990  1.1465  1.5613  0.9276
66671SOL     OW 9942   2.577   7.011  11.386 -0.2410  0.6391 -0.3105
66671SOL    HW1 9943   2.551   7.065  11.311 -1.5763  0.4908  0.0267
66671SOL    HW2 9944   2.494   6.982  11.425  0.4276 -1.3782 -0.2765
66672SOL     OW 9945   5.415   2.073   1.148  0.2138  0.2838 -0.1105
66672SOL    HW1 9946   5.370   2.009   1.092  0.7002 -0.4298  0.3051
66672SOL    HW2 9947   5.470   2.020   1.205 -0.7850  0.9488  1.5417
66673SOL     OW 9948  12.095   9.387  12.694  0.2444 -0.2045 -0.2016
66673SOL    HW1 9949  12.128   9.302  12.722  0.1823 -0.1387  0.0721
66673SOL    HW2 9950  12.166   9.423  12.640  1.5459  0.8118  2.0283
66674SOL     OW 9951  12.860  10.594   4.346  0.1658  0.1026 -0.1515
66674SOL    HW1 9952  12.850  10.547   4.262  0.5354  0.0952 -0.1935
66674SOL    HW2 9953  12.905  10.675   4.323  1.7840 -0.6468  0.2632
66675SOL     OW 9954   8.783   8.476   7.399 -0.5132 -0.1216 -0.1585
66675SOL    HW1 9955   8.776   8.570   7.418 -1.3201 -0.2057 -0.0424
66675SOL    HW2 9956   8.820   8.438   7.479 -2.0010 -0.1809  0.5186
66676SOL     OW 9957   6.532  12.041   1.027  0.2647 -0.4011  0.3979
66676SOL    HW1 9958   6.443  12.058   1.058  0.5116  0.3726  0.7182
66676SOL    HW2 9959   6.525  12.041   0.932  0.0151  0.2382  0.4100
66677SOL     OW 9960   2.646   0.341   5.083  0.3233 -0.3332  0.4073
66677SOL    HW1 9961   2.555   0.314   5.097  0.3147 -0.0852  0.8506
66677SOL    HW2 9962   2.691   0.320   5.164 -0.0950  2.6798  1.5607
66678SOL     OW 9963   2.602   3.133  12.021 -1.2428  0.2534 -0.2493
66678SOL    HW1 9964   2.633   3.196  11.956 -2.2656 -0.4936 -1.4837
66678SOL    HW2 9965   2.509   3.122  12.003 -0.7866 -2.9680 -1.2887
66679SOL     OW 9966  10.380   8.979   4.224 -0.1617 -0.2340 -0.0117
66679SOL    HW1 9967  10.382   8.922   4.147  0.6266 -0.3256  0.0637
66679SOL    HW2 9968  10.397   9.066   4.190  1.4494 -0.4392  0.1730
66680SOL     OW 9969   7.501   3.557   1.247  0.1039  0.2983  0.4069
66680SOL    HW1 9970   7.537   3.505   1.175 -2.7926 -1.4570  0.0808
66680SOL    HW2 9971   7.441   3.619   1.205 -2.0728 -1.1379  1.2154
66681SOL     OW 9972   1.618  10.089   0.999 -0.0006 -0.0412  0.0288
66681SOL    HW1 9973   1.650  10.110   1.087 -0.7713 -2.0558  0.8551
66681SOL    HW2 9974   1.691  10.042   0.958  0.5927  1.4429 -0.6839
66682SOL     OW 9975  12.383   4.106   8.373 -0.0418 -0.0938 -0.2881
66682SOL    HW1 9976  12.443   4.114   8.446  0.4385  2.4064 -0.8420
66682SOL    HW2 9977  12.308   4.057   8.407  2.2644 -3.4076  0.3803
66683SOL     OW 9978   2.517   5.501  11.938  0.2301 -0.2462  0.4322
66683SOL    HW1 9979   2.461   5.532  12.009 -1.2643 -1.0379 -0.3532
66683SOL    HW2 9980   2.460   5.447  11.883  1.7495 -1.0324 -0.4656
66684SOL     OW 9981   8.589   8.691   9.053  0.0807 -0.2933 -0.3331
66684SOL    HW1 9982   8.661   8.740   9.013 -0.8401 -0.4113 -2.2916
66684SOL    HW2 9983   8.522   8.757   9.069 -1.0872 -0.7624 -2.7948
66685SOL     OW 9984   9.148   0.797   3.823 -0.0899  0.1784 -0.1423
66685SOL    HW1 9985   9.099   0.731   3.774  0.7404  0.2567 -1.1317
66685SOL    HW2 9986   9.159   0.869   3.761  2.2582 -0.3157 -0.4044
66686SOL     OW 9987   9.270   8.563   1.855 -0.1728 -0.1679 -0.3830
66686SOL    HW1 9988   9.237   8.597   1.939  0.6900 -0.0039 -0.1059
66686SOL    HW2 9989   9.285   8.470   1.871 -0.1788 -0.1726 -0.4054
66687SOL     OW 9990   7.729   9.170   6.717  0.4138  0.0464 -0.0978
66687SOL    HW1 9991   7.781   9.242   6.753  1.1171 -0.7265  0.4583
66687SOL    HW2 9992   7.678   9.210   6.647  1.9217  0.7888 -0.8135
66688SOL     OW 9993   0.025   6.617   1.785 -0.0445  0.3085  0.1577
66688SOL    HW1 9994   0.104   6.658   1.821  1.1963 -1.2410 -0.6779
66688SOL    HW2 9995  -0.037   6.618   1.858  0.9012  1.1052  0.9933
66689SOL     OW 9996   9.827  11.998   1.337  0.0041  0.9681  0.2118
66689SOL    HW1 9997   9.839  11.904   1.327  0.0106  0.9826  0.0806
66689SOL    HW2 9998   9.915  12.034   1.342  0.0178  1.0473 -0.5187
66690SOL     OW 9999   1.511   6.800  13.173 -0.1938  0.5806 -0.6984
66690SOL    HW110000   1.593   6.812  13.221 -1.1859 -0.3101  1.3513
66690SOL    HW210001   1.463   6.881  13.187 -0.3774  0.4204 -0.3892
66691SOL     OW10002   1.070   9.584   5.713  0.3098 -0.0651 -0.6793
66691SOL    HW110003   1.008   9.533   5.661  1.6291 -0.9862 -1.4094
66691SOL    HW210004   1.056   9.554   5.803  0.1179 -0.7171 -0.9206
66692SOL     OW10005   4.534  13.102   3.971  0.0302  0.1444 -0.3614
66692SOL    HW110006   4.621  13.141   3.956 -0.1447  0.3660 -0.7933
66692SOL    HW210007   4.552  13.026   4.026  0.3493  1.0241  0.8055
66693SOL     OW10008   0.051   2.162  12.468  0.1359  0.4779 -0.0451
66693SOL    HW110009   0.037   2.141  12.560 -0.0006  1.7878  0.2507
66693SOL    HW210010   0.056   2.077  12.425 -0.8614 -0.1515  1.0097
66694SOL     OW10011  10.499  11.100   2.125 -0.3052  0.1399 -0.0619
66694SOL    HW110012  10.550  11.106   2.205  0.3178 -0.8827 -0.3488
66694SOL    HW210013  10.550  11.148   2.060 -0.3976  0.2814 -0.0291
66695SOL     OW10014   3.284   2.556   2.121  0.0822 -0.5962 -0.2072
66695SOL    HW110015   3.298   2.619   2.192  0.7225 -1.1565  0.1722
66695SOL    HW210016   3.281   2.471   2.165 -0.9872 -0.8311 -0.6867
66696SOL     OW10017   6.120   0.170   3.572  0.3647 -0.3985 -0.0648
66696SOL    HW110018   6.039   0.209   3.539  1.0799  0.6677 -0.6039
66696SOL    HW210019   6.124   0.197   3.664 -0.8527 -2.0956  0.5418
66697SOL     OW10020   1.613   3.887   6.801 -0.0298  0.1590 -0.2194
66697SOL    HW110021   1.707   3.893   6.788 -0.1390  1.0515 -0.6874
66697SOL    HW210022   1.594   3.954   6.867 -0.3498  0.0576 -0.2088
66698SOL     OW10023   2.656   1.582  11.294 -0.1003  0.0197 -0.5128
66698SOL    HW110024   2.584   1.558  11.353 -0.5678  2.2719 -0.0689
66698SOL    HW210025   2.694   1.660  11.333  0.5369  0.7158 -2.4107
66699SOL     OW10026  10.700  12.188  10.020  0.0958  0.3787 -0.2107
66699SOL    HW110027  10.746  12.256  10.070 -1.2325  2.2539 -1.4264
66699SOL    HW210028  10.757  12.169   9.946 -0.2284  1.3718 -0.7312
66700SOL     OW10029   5.886  10.770   5.325  0.0288  0.4228  0.0508
66700SOL    HW110030   5.892  10.675   5.311  1.8869  0.4613  0.3950
66700SOL    HW210031   5.892  10.781   5.420  2.0638  0.9687 -0.0947
66701SOL     OW10032   1.407   3.852  10.339  0.1854 -0.2267 -0.1258
66701SOL    HW110033   1.382   3.821  10.426  0.1144  0.3140  0.0513
66701SOL    HW210034   1.325   3.855  10.290  0.2502 -0.6996 -0.2702
66702SOL     OW10035  10.818   0.298   9.734 -0.2544 -0.3356 -0.8085
66702SOL    HW110036  10.784   0.254   9.812  1.4058 -0.6903 -0.2434
66702SOL    HW210037  10.816   0.391   9.757  0.5945 -0.4635 -0.1684
66703SOL     OW10038   9.410   9.550   8.805 -0.2213 -0.8521  0.0935
66703SOL    HW110039   9.450   9.463   8.808  1.2653 -0.1674  1.3051
66703SOL    HW210040   9.439   9.593   8.886  0.9344  1.5369 -1.4741
66704SOL     OW10041  11.672   0.860   5.038 -0.3160 -0.6161  0.1769
66704SOL    HW110042  11.737   0.802   4.998 -0.3925  0.3679 -1.4339
66704SOL    HW210043  11.648   0.815   5.119  2.6491 -0.8370  1.0830
66705SOL     OW10044   0.145   2.438   3.708 -0.0359  0.5048  0.4273
66705SOL    HW110045   0.182   2.350   3.713 -0.2403  0.2843 -1.1883
66705SOL    HW210046   0.217   2.496   3.732  1.1467  0.0342 -1.7104
66706SOL     OW10047   4.305   5.470   0.557  0.0349  0.3978 -0.5796
66706SOL    HW110048   4.349   5.540   0.508 -2.3684  0.8654 -2.2176
66706SOL    HW210049   4.352   5.391   0.530  1.2280  1.0689 -0.5807
66707SOL     OW10050  10.361  11.041   5.756  0.5934  0.3810  0.1219
66707SOL    HW110051  10.403  11.079   5.679 -2.3648  1.4989 -1.0844
66707SOL    HW210052  10.390  10.950   5.756  2.8624  1.0369 -0.6188
66708SOL     OW10053   9.007   8.365   9.472 -0.2392  0.0721 -0.2644
66708SOL    HW110054   8.953   8.290   9.445  0.7106 -0.0162 -2.1068
66708SOL    HW210055   9.016   8.417   9.392  0.4727  1.3046  0.5936
66709SOL     OW10056   0.830  11.348   6.737  0.2500  0.4644 -0.1845
66709SOL    HW110057   0.742  11.364   6.772 -0.3590 -0.1951 -1.3605
66709SOL    HW210058   0.862  11.434   6.712  0.0657  0.7431  0.5119
66710SOL     OW10059   2.231  10.134   8.970  0.1354 -0.1177  0.3684
66710SOL    HW110060   2.290  10.200   9.006  1.0780 -1.7780  2.0788
66710SOL    HW210061   2.288  10.067   8.934 -0.8067  0.2529 -2.0141
66711SOL     OW10062   6.649  12.747   4.855  0.6774 -0.0895 -0.1396
66711SOL    HW110063   6.645  12.651   4.850  3.0282 -0.2275 -0.5698
66711SOL    HW210064   6.578  12.771   4.915 -1.2701 -1.9010 -1.5583
66712SOL     OW10065   5.052  11.444   2.897  0.5464  0.1659 -0.4676
66712SOL    HW110066   4.967  11.472   2.863  0.3641  0.5154  0.2545
66712SOL    HW210067   5.078  11.514   2.958  1.1712 -0.1221 -0.3978
66713SOL     OW10068   8.084   7.156   7.064 -0.2867 -0.1598  0.1690
66713SOL    HW110069   8.170   7.122   7.042 -0.3005 -1.3478  1.7203
66713SOL    HW210070   8.023   7.107   7.009 -0.1765 -1.5609  1.2533
66714SOL     OW10071   3.498   4.917   3.581  0.1656  0.0897  0.0483
66714SOL    HW110072   3.558   4.860   3.629  0.4516 -1.2172 -1.7697
66714SOL    HW210073   3.453   4.967   3.650  1.2652 -0.9415  1.5976
66715SOL     OW10074   4.878  12.869   4.346 -0.1442 -0.3917 -0.0232
66715SOL    HW110075   4.816  12.799   4.328  1.6202 -1.9735 -0.2799
66715SOL    HW210076   4.896  12.907   4.260  0.7337 -1.2841 -0.2520
66716SOL     OW10077   0.305   6.480   6.232 -0.5171 -0.1599  0.0825
66716SOL    HW110078   0.328   6.503   6.142 -1.4452 -1.2665 -0.4674
66716SOL    HW210079   0.379   6.510   6.284  1.6050 -2.3437 -1.4346
66717SOL     OW10080   4.237   1.359   5.382  0.1447 -0.1942 -0.0808
66717SOL    HW110081   4.168   1.303   5.345  0.3941  1.0750 -2.6452
66717SOL    HW210082   4.193   1.442   5.400 -0.2676 -1.0748  3.8788
66718SOL     OW10083   0.962   1.148   5.994  0.5720  0.4967  0.6145
66718SOL    HW110084   0.940   1.063   5.956  1.7606  0.6350 -0.4421
66718SOL    HW210085   0.934   1.212   5.929  1.1714  0.8255  0.6729
66719SOL     OW10086   5.154  11.712  12.005  0.8383 -0.7080  0.2439
66719SOL    HW110087   5.152  11.620  11.980  1.5843  0.1263 -3.3912
66719SOL    HW210088   5.077  11.750  11.962 -0.6161  0.1101  3.3172
66720SOL     OW10089  12.954  10.075   4.839  0.1532 -0.4663 -0.1433
66720SOL    HW110090  12.978  10.017   4.912 -0.0528  0.5175  0.7357
66720SOL    HW210091  12.863  10.051   4.819  1.5078 -3.9657 -3.2627
66721SOL     OW10092  11.133  12.385   2.088  0.8413  0.4701  0.7797
66721SOL    HW110093  11.120  12.480   2.091  1.3669  0.7030 -1.7481
66721SOL    HW210094  11.054  12.351   2.046  1.8512  0.1626 -0.9555
66722SOL     OW10095   5.297  12.244   6.851 -0.1624  0.3309 -0.5973
66722SOL    HW110096   5.205  12.269   6.841 -0.4049 -0.6151 -0.7667
66722SOL    HW210097   5.343  12.328   6.865 -0.9092  0.9002 -1.4691
66723SOL     OW10098  11.483   4.043   0.393 -0.3635 -0.0755 -0.1220
66723SOL    HW110099  11.406   4.098   0.399  0.2064  0.8367 -0.8563
66723SOL    HW210100  11.553   4.103   0.367  0.3208 -1.1034 -0.7266
66724SOL     OW10101   2.025   9.553  10.957  0.3407 -0.0740  0.4986
66724SOL    HW110102   2.027   9.517  10.868 -0.9281 -0.6045  0.6611
66724SOL    HW210103   2.087   9.500  11.006  0.0828 -0.6319  0.2287
66725SOL     OW10104   4.835  10.567   0.344 -0.0308  0.1209 -0.4979
66725SOL    HW110105   4.843  10.508   0.420 -0.0505  0.3809 -0.2945
66725SOL    HW210106   4.748  10.606   0.354 -0.2332 -0.2081 -0.9184
66726SOL     OW10107  12.472   7.662  13.295  0.1812 -0.1526 -0.5342
66726SOL    HW110108  12.415   7.619  13.231 -2.3708  1.8458  0.2273
66726SOL    HW210109  12.486   7.595  13.362 -3.4101 -0.1182  0.4695
66727SOL     OW10110   2.661  12.662   5.591  0.2172 -0.2479  0.4222
66727SOL    HW110111   2.629  12.664   5.500  1.6175 -0.6660 -0.0927
66727SOL    HW210112   2.589  12.701   5.641 -0.3139  0.6425 -0.9454
66728SOL     OW10113   0.007   0.253  12.801 -0.3001 -0.0606 -0.4575
66728SOL    HW110114   0.078   0.259  12.865  0.8000 -2.0864 -1.4182
66728SOL    HW210115   0.046   0.278  12.718 -0.9417 -0.3610 -0.8581
66729SOL     OW10116  12.482   7.956  13.063  0.2677 -0.2364 -0.2519
66729SOL    HW110117  12.404   7.906  13.043  0.1153  0.3340 -1.1373
66729SOL    HW210118  12.554   7.894  13.052  0.1020 -0.2065 -1.5798
66730SOL     OW10119  11.502   2.803   7.149 -0.4248 -0.2377 -0.2138
66730SOL    HW110120  11.425   2.781   7.201 -0.6988  1.8727  0.3863
66730SOL    HW210121  11.558   2.853   7.208 -0.3517  1.4950 -1.6519
66731SOL     OW10122   7.704   5.397  10.900 -0.3532 -0.5186 -0.5209
66731SOL    HW110123   7.621   5.368  10.938 -0.2917 -2.1209 -1.5139
66731SOL    HW210124   7.767   5.391  10.973 -0.3440 -3.0224 -0.6535
66732SOL     OW10125  10.228   9.040  10.248  0.1563 -0.4175 -0.2184
66732SOL    HW110126  10.156   9.002  10.198 -0.7346  0.5665  0.2958
66732SOL    HW210127  10.186   9.099  10.310  1.3463 -0.6089  0.7943
66733SOL     OW10128  12.017   9.171   8.509  0.1259 -0.1023  0.5863
66733SOL    HW110129  12.080   9.188   8.440  1.9417 -2.3487  1.5617
66733SOL    HW210130  11.938   9.142   8.463 -0.2084  2.5030 -0.6413
66734SOL     OW10131   4.660   9.560   1.608  0.2964 -1.0547  0.2835
66734SOL    HW110132   4.695   9.647   1.626  0.4035 -1.1189  0.3870
66734SOL    HW210133   4.566   9.568   1.619  0.4431 -1.3831  2.0896
66735SOL     OW10134   3.086  10.075  12.810  0.3055  0.5325 -0.1358
66735SOL    HW110135   3.067  10.087  12.717 -0.4609 -0.0898 -0.0707
66735SOL    HW210136   3.029  10.003  12.837  2.3131 -0.9905  0.2551
66736SOL     OW10137   7.665   7.499   4.760 -0.2778 -0.5176 -0.1239
66736SOL    HW110138   7.608   7.520   4.686  1.2900  1.8728 -0.7836
66736SOL    HW210139   7.605   7.482   4.833 -1.8452 -0.3306 -1.3152
66737SOL     OW10140   6.133   5.573   7.675 -0.0254 -0.5797 -0.0264
66737SOL    HW110141   6.143   5.620   7.592  2.5342  0.6836  0.9158
66737SOL    HW210142   6.059   5.514   7.660 -1.5032  1.6537 -2.2305
66738SOL     OW10143   3.244   0.353  11.419 -0.2823  0.4014  0.1954
66738SOL    HW110144   3.239   0.442  11.452 -1.1477  0.0930  0.9300
66738SOL    HW210145   3.159   0.337  11.379  0.5232  0.5474 -1.6822
66739SOL     OW10146  11.225  12.599   3.388  0.1643  0.0951 -0.2948
66739SOL    HW110147  11.232  12.510   3.421  0.0027  0.1920  0.0029
66739SOL    HW210148  11.307  12.641   3.415  0.0297  0.1762 -0.0116
66740SOL     OW10149  10.935   4.341   2.624 -0.0240 -0.2825  0.0869
66740SOL    HW110150  11.013   4.307   2.666  0.4477  0.4796 -0.1515
66740SOL    HW210151  10.862   4.298   2.669  0.5386 -2.0670 -0.6012
66741SOL     OW10152   5.827   0.482  12.875 -0.7339  0.0977 -0.3188
66741SOL    HW110153   5.755   0.422  12.891  0.6078 -2.4899 -2.9947
66741SOL    HW210154   5.889   0.465  12.947 -1.0221 -0.6622 -0.2409
66742SOL     OW10155   5.854   2.120  11.922  0.3685 -0.1828  0.3569
66742SOL    HW110156   5.762   2.139  11.902  0.9974  1.0807 -1.6173
66742SOL    HW210157   5.851   2.037  11.969 -1.6911 -1.0911 -1.1789
66743SOL     OW10158   1.363  11.108   0.113  0.3976 -0.2770 -0.4277
66743SOL    HW110159   1.441  11.125   0.165 -0.3563 -0.3560  0.7756
66743SOL    HW210160   1.302  11.065   0.173 -0.8042  0.3222 -1.1546
66744SOL     OW10161   5.189  10.632  13.215 -0.3073 -0.2781 -0.4301
66744SOL    HW110162   5.201  10.591  13.129 -1.4369 -1.0869 -0.2207
66744SOL    HW210163   5.098  10.659  13.216 -0.5925 -1.2103  0.9041
66745SOL     OW10164   0.517   2.265   7.871 -0.5072  0.2444 -0.2805
66745SOL    HW110165   0.610   2.288   7.871 -0.8032  1.5540 -0.5639
66745SOL    HW210166   0.486   2.291   7.784 -1.5486  1.7278  0.4830
66746SOL     OW10167  11.574   1.097   1.678 -0.4283  0.1775  0.2331
66746SOL    HW110168  11.483   1.068   1.678 -0.0798 -0.9624 -0.5951
66746SOL    HW210169  11.577   1.168   1.614 -0.7547  0.3067  0.3582
66747SOL     OW10170   0.228  12.779  13.180  0.1295 -0.2575  0.3306
66747SOL    HW110171   0.167  12.839  13.138  0.1459  0.4961  1.3477
66747SOL    HW210172   0.238  12.706  13.118 -0.5363  0.3898 -0.5450
66748SOL     OW10173   2.143  12.830  10.695  0.3674 -0.0362  0.3315
66748SOL    HW110174   2.199  12.758  10.667 -2.3316 -1.9516 -0.4833
66748SOL    HW210175   2.068  12.827  10.636 -2.2483  0.2232  3.3597
66749SOL     OW10176   0.589   8.287   0.600  0.1880 -0.3145  0.0696
66749SOL    HW110177   0.520   8.227   0.631  1.5062 -2.9898 -1.8467
66749SOL    HW210178   0.541   8.365   0.571 -2.0059 -1.7915 -0.5400
66750SOL     OW10179  10.582   0.158   1.622 -0.0112 -0.0352  0.4453
66750SOL    HW110180  10.543   0.118   1.544  0.3775 -1.0632  0.7632
66750SOL    HW210181  10.570   0.093   1.691  1.2299  0.1003  0.8195
66751SOL     OW10182   2.183   7.012  10.476 -0.1387 -0.2853 -0.2195
66751SOL    HW110183   2.265   6.963  10.471  0.9445  1.1864  1.5482
66751SOL    HW210184   2.115   6.949  10.454  1.4889 -1.4104 -2.2872
66752SOL     OW10185   4.182  10.731   3.712  0.3902 -0.2213  0.1980
66752SOL    HW110186   4.183  10.799   3.645  0.6158  0.5703  0.9848
66752SOL    HW210187   4.227  10.657   3.672  0.1334  0.0836 -0.6751
66753SOL     OW10188  11.750   7.991  11.081 -0.5961 -0.0747 -0.5188
66753SOL    HW110189  11.771   7.938  11.158 -0.3038 -0.3803 -0.8037
66753SOL    HW210190  11.723   8.076  11.116  0.8282  0.2309 -0.1241
66754SOL     OW10191   2.101  11.057  11.270 -0.0842 -0.4619  0.2764
66754SOL    HW110192   2.036  11.102  11.325  0.7646 -0.1841  1.0737
66754SOL    HW210193   2.087  11.094  11.182 -0.8111 -0.1985  0.4937
66755SOL     OW10194   9.636   8.110   1.912 -0.0251  0.0122  0.0270
66755SOL    HW110195   9.584   8.188   1.928 -0.9112 -0.2598 -1.3819
66755SOL    HW210196   9.575   8.047   1.875  0.5073 -1.6277  1.7682
66756SOL     OW10197  12.030   9.105   1.726 -0.3503  0.1434 -0.0926
66756SOL    HW110198  12.116   9.116   1.765 -0.9813 -1.7986  2.0521
66756SOL    HW210199  11.971   9.154   1.783 -0.7645  0.8327 -1.1014
66757SOL     OW10200   4.538   4.399   1.375  0.1853  0.1811 -0.0912
66757SOL    HW110201   4.547   4.486   1.335 -1.1650 -0.1538 -1.1688
66757SOL    HW210202   4.511   4.418   1.465 -1.4152  0.9014 -0.6727
66758SOL     OW10203   2.283   0.593   2.126  0.2498  0.1946  0.7815
66758SOL    HW110204   2.261   0.506   2.094  2.7619 -0.3745  0.3470
66758SOL    HW210205   2.273   0.650   2.051 -2.1413  0.4988  1.2506
66759SOL     OW10206   7.216  10.587   4.788 -0.4829  0.0006  0.2507
66759SOL    HW110207   7.197  10.624   4.874 -1.0536 -0.1965  0.2146
66759SOL    HW210208   7.306  10.555   4.794  0.0876  1.5173  0.2387
66760SOL     OW10209  10.189   4.285   4.346  0.0705  0.1343 -0.3175
66760SOL    HW110210  10.113   4.227   4.349  1.6864 -2.0665 -0.2294
66760SOL    HW210211  10.166   4.350   4.280 -1.8723 -0.4625 -0.3043
66761SOL     OW10212   7.448   0.840  10.470  0.3448 -0.1408 -0.0606
66761SOL    HW110213   7.442   0.883  10.555  1.8226 -1.4304  0.7403
66761SOL    HW210214   7.534   0.865  10.437 -0.6719  1.3129 -1.7636
66762SOL     OW10215   6.721   9.552   7.430  0.1316  0.0861 -0.5605
66762SOL    HW110216   6.814   9.552   7.407 -0.5240 -0.1277 -3.5884
66762SOL    HW210217   6.691   9.640   7.407 -0.3589  0.3572  0.9722
66763SOL     OW10218   8.968   8.168   7.875  0.5613  0.3511 -0.4815
66763SOL    HW110219   8.897   8.122   7.920  0.6396  1.0199  0.3456
66763SOL    HW210220   8.996   8.107   7.807 -0.8017  0.0775 -0.8318
66764SOL     OW10221   4.812   0.094  10.055 -0.4083  0.2930 -0.1313
66764SOL    HW110222   4.879   0.143  10.104 -0.2408 -0.5254  0.4828
66764SOL    HW210223   4.837   0.104   9.964 -0.1479  1.0191  0.0176
66765SOL     OW10224   3.067  12.431   3.353  0.1522 -0.2769  0.0501
66765SOL    HW110225   3.007  12.481   3.298  0.2247 -1.7384 -1.4466
66765SOL    HW210226   3.154  12.463   3.329  0.0648  1.0401  1.3890
66766SOL     OW10227   1.372   7.549   0.077  0.3977  0.0854  0.4953
66766SOL    HW110228   1.300   7.559   0.015 -0.7739  1.0112  1.9368
66766SOL    HW210229   1.361   7.621   0.139  0.6661 -1.5743  2.6051
66767SOL     OW10230  10.685  13.039   1.981 -0.2774 -0.0014  0.2572
66767SOL    HW110231  10.640  12.989   1.912  1.0657  1.1890 -1.5699
66767SOL    HW210232  10.617  13.053   2.047 -2.0427 -0.0503 -1.4331
66768SOL     OW10233  10.887   7.991   1.454  0.2197 -0.1179 -0.3857
66768SOL    HW110234  10.969   7.989   1.504 -0.0215  0.9535  0.0991
66768SOL    HW210235  10.905   7.941   1.375  0.8154 -1.3131  0.4827
66769SOL     OW10236   9.449  10.041   4.400 -0.2176 -0.0034 -0.1229
66769SOL    HW110237   9.355  10.023   4.399 -0.1166 -0.6077  0.6863
66769SOL    HW210238   9.468  10.066   4.490  0.7232 -1.7601  0.2047
66770SOL     OW10239   5.950   9.382   0.802  0.0298  0.8884  0.2098
66770SOL    HW110240   5.974   9.474   0.795 -2.5270  1.5413 -0.9819
66770SOL    HW210241   5.927   9.370   0.894  2.4601  0.8082  0.8667
66771SOL     OW10242   5.557   8.622   8.519 -0.1556 -0.2450  0.0984
66771SOL    HW110243   5.545   8.599   8.427  0.0072 -0.1511  0.0530
66771SOL    HW210244   5.506   8.557   8.567 -1.3597  0.5189 -0.1136
66772SOL     OW10245   5.147   7.755   8.943 -0.1257 -0.3923  0.4070
66772SOL    HW110246   5.170   7.673   8.899  1.6739 -0.1277  0.7957
66772SOL    HW210247   5.070   7.733   8.996  0.3513 -1.8389  0.5367
66773SOL     OW10248   5.034   9.856   5.004 -0.4221 -0.2410 -0.2627
66773SOL    HW110249   5.112   9.804   5.025  0.0338  1.0475  1.4080
66773SOL    HW210250   5.045   9.879   4.912  0.6935 -0.8464 -0.3011
66774SOL     OW10251  10.405  11.330   5.312  0.0733 -0.4671  0.1792
66774SOL    HW110252  10.347  11.349   5.238 -0.3434  0.3854  0.7081
66774SOL    HW210253  10.464  11.405   5.317  0.3891 -0.7310  0.4371
66775SOL     OW10254  12.287  10.594  11.003  0.4011 -0.2261  0.3408
66775SOL    HW110255  12.302  10.686  10.983 -0.4006 -0.5701 -2.2041
66775SOL    HW210256  12.373  10.561  11.028  1.0702  0.8236 -0.4806
66776SOL     OW10257   2.045   9.376   3.638 -0.2309  0.1544  0.6209
66776SOL    HW110258   2.105   9.333   3.699 -0.4319  0.1133  0.7922
66776SOL    HW210259   2.066   9.338   3.553  0.9614  1.1668  0.4378
66777SOL     OW10260   2.145   5.742   9.731  0.0597 -0.4232 -0.1149
66777SOL    HW110261   2.063   5.786   9.711  1.0887  1.4219 -0.5372
66777SOL    HW210262   2.136   5.715   9.822 -0.0572  2.1812  0.7363
66778SOL     OW10263  11.156   4.868   4.764  0.1644  0.6071 -0.3604
66778SOL    HW110264  11.140   4.929   4.691 -1.5529  2.6145  1.5533
66778SOL    HW210265  11.252   4.860   4.767  0.4258  2.6060 -1.2196
66779SOL     OW10266   7.210  10.111  13.097 -0.2120  0.1340  0.0784
66779SOL    HW110267   7.264  10.078  13.169  0.4076 -0.9414 -0.8462
66779SOL    HW210268   7.257  10.188  13.066  1.9621 -1.8250 -1.9439
66780SOL     OW10269   4.265   0.328   3.527 -0.0558  0.7712 -0.2254
66780SOL    HW110270   4.328   0.342   3.456 -1.2134  1.7540 -1.0949
66780SOL    HW210271   4.268   0.234   3.543  1.7891  0.8142 -0.0703
66781SOL     OW10272   4.928   7.173  11.975  0.4209  0.2128  0.3395
66781SOL    HW110273   4.835   7.193  11.973  0.4578  0.4545 -2.0121
66781SOL    HW210274   4.933   7.078  11.982  0.0502  0.2702  1.5704
66782SOL     OW10275   0.757   1.878   3.408 -0.0861  0.0356  0.7593
66782SOL    HW110276   0.763   1.888   3.503 -0.6031 -1.5850  0.9967
66782SOL    HW210277   0.663   1.882   3.390  0.0086  0.2931  0.3208
66783SOL     OW10278   2.762   4.760   0.268 -0.0208 -0.2828  0.0742
66783SOL    HW110279   2.772   4.672   0.304 -0.4007 -0.6438 -0.6743
66783SOL    HW210280   2.823   4.814   0.318  2.0727 -1.4443 -1.0917
66784SOL     OW10281   8.549   8.215   4.622  0.2198 -0.1477 -0.0188
66784SOL    HW110282   8.632   8.185   4.587 -0.1189 -0.0439 -0.9436
66784SOL    HW210283   8.514   8.274   4.555 -2.1476 -2.7446 -1.2848
66785SOL     OW10284   2.306   8.454   2.299  0.0962  0.0875  0.1381
66785SOL    HW110285   2.223   8.496   2.323  0.0527 -0.0024  0.1410
66785SOL    HW210286   2.289   8.412   2.215  0.0635 -0.1582  0.2696
66786SOL     OW10287   5.436   3.944   2.169  0.3220  0.2945  0.4805
66786SOL    HW110288   5.430   3.851   2.149 -0.8880  0.3139  0.6631
66786SOL    HW210289   5.514   3.974   2.123 -0.9861 -0.1742 -2.2071
66787SOL     OW10290   6.366   6.656   2.091  0.0096  0.1584 -0.0627
66787SOL    HW110291   6.347   6.587   2.028  0.8805 -0.0347 -0.1322
66787SOL    HW210292   6.294   6.718   2.081 -0.3935 -0.3705 -0.5237
66788SOL     OW10293   1.545   3.013  10.384  0.1635  0.1876  0.5341
66788SOL    HW110294   1.550   2.998  10.290 -0.9556  2.3669  0.0749
66788SOL    HW210295   1.539   2.925  10.422  3.3216 -0.9505 -1.1635
66789SOL     OW10296   0.607  10.243  11.888 -0.1025  0.0162 -0.2844
66789SOL    HW110297   0.616  10.206  11.976 -0.8463  1.2092  0.3197
66789SOL    HW210298   0.514  10.266  11.881  0.0377  0.3455 -1.2269
66790SOL     OW10299   8.118  10.299   8.144 -0.1370 -0.1725 -0.5126
66790SOL    HW110300   8.178  10.354   8.196 -0.4193  1.8367 -2.1797
66790SOL    HW210301   8.155  10.211   8.149  1.7390  0.6111  0.2766
66791SOL     OW10302   2.385   9.526   7.693  0.3768  0.5632 -0.3230
66791SOL    HW110303   2.334   9.463   7.744  0.5404 -0.2272 -1.1151
66791SOL    HW210304   2.458   9.550   7.751  1.1258 -1.0972 -0.5305
66792SOL     OW10305  11.819   9.889  10.696 -0.4300 -0.1285 -0.4143
66792SOL    HW110306  11.770   9.827  10.749  0.5350 -0.4463  0.1221
66792SOL    HW210307  11.845   9.958  10.757  0.7601 -0.5410 -0.4243
66793SOL     OW10308   3.935   3.051   5.431  0.0275 -0.2541 -0.4378
66793SOL    HW110309   3.953   3.004   5.350  1.6990 -0.1100 -0.1916
66793SOL    HW210310   4.020   3.060   5.473 -0.6021  0.8919  0.6748
66794SOL     OW10311  10.470   4.285   3.632 -0.3522  0.2763 -0.4647
66794SOL    HW110312  10.483   4.241   3.547 -1.2258  1.8838 -1.4939
66794SOL    HW210313  10.558   4.294   3.668  0.0676 -0.1880 -1.3278
66795SOL     OW10314   3.656  11.682   3.333 -0.5374 -0.7300 -0.0222
66795SOL    HW110315   3.577  11.700   3.283 -0.8271 -3.0641 -0.5182
66795SOL    HW210316   3.728  11.692   3.270 -0.1905  2.6246  0.7128
66796SOL     OW10317   7.745  12.539   7.723 -0.1898  0.1857  0.6725
66796SOL    HW110318   7.765  12.463   7.777  1.2650 -0.7157 -1.0277
66796SOL    HW210319   7.747  12.506   7.633 -0.2651  2.0813 -0.0814
66797SOL     OW10320   2.494   2.953   4.704 -0.5981 -0.2129 -0.3115
66797SOL    HW110321   2.503   3.030   4.648 -0.1712  0.0193  0.0744
66797SOL    HW210322   2.574   2.903   4.690 -0.9352 -0.6633 -0.6658
66798SOL     OW10323   4.365   5.530  10.654 -0.4033 -0.5185 -0.0506
66798SOL    HW110324   4.274   5.558  10.640 -0.1340  0.0633 -0.6878
66798SOL    HW210325   4.370   5.446  10.609 -0.3504 -0.0517 -0.9429
66799SOL     OW10326   5.629  12.962   4.317  0.5533  0.1033 -0.4003
66799SOL    HW110327   5.639  12.933   4.227  4.5076 -0.2101 -0.0504
66799SOL    HW210328   5.629  12.882   4.369  0.3486  0.3630  0.0106
66800SOL     OW10329   4.502   6.491   6.436  0.4904  0.2119 -0.0833
66800SOL    HW110330   4.499   6.403   6.398  0.1417  0.2403 -0.1218
66800SOL    HW210331   4.521   6.476   6.529  0.4197  0.0951 -0.0875
66801SOL     OW10332   9.727   3.377   2.494  0.0948 -0.1641 -0.3475
66801SOL    HW110333   9.748   3.343   2.407 -1.9980  0.7283 -1.2769
66801SOL    HW210334   9.810   3.375   2.541  1.2700 -0.8087 -2.3150
66802SOL     OW10335  10.190  11.294   3.166  0.3101 -0.2933  0.1826
66802SOL    HW110336  10.114  11.351   3.167  1.2765  1.0568 -0.7180
66802SOL    HW210337  10.264  11.351   3.145  1.6218 -1.5235  1.2177
66803SOL     OW10338   3.903   7.485  13.201 -0.0897 -0.3257 -0.4286
66803SOL    HW110339   3.977   7.479  13.261  0.2918  0.5221 -0.8061
66803SOL    HW210340   3.850   7.557  13.236  0.4738  0.6073 -1.4657
66804SOL     OW10341  11.602   9.543  11.002  0.1400  0.1349 -0.3925
66804SOL    HW110342  11.610   9.468  10.942 -3.2190 -2.1579  1.7019
66804SOL    HW210343  11.653   9.517  11.079  1.0173  1.2058 -0.5883
66805SOL     OW10344  11.426  11.869  11.762  0.1677  0.4260 -0.2060
66805SOL    HW110345  11.362  11.894  11.696 -0.6102  0.9487  0.7218
66805SOL    HW210346  11.464  11.788  11.729 -1.6954 -0.4570 -0.3111
66806SOL     OW10347  10.115  10.733   6.229  0.0601 -0.1191 -0.1238
66806SOL    HW110348  10.042  10.795   6.228  0.1119 -0.0567 -0.9384
66806SOL    HW210349  10.138  10.721   6.137  0.3232 -1.0324  0.0433
66807SOL     OW10350   3.803   7.377   5.610 -0.3725 -0.0863  0.4432
66807SOL    HW110351   3.761   7.317   5.548  1.5279  0.0878 -1.1030
66807SOL    HW210352   3.788   7.337   5.695 -1.3418 -1.4178 -0.3085
66808SOL     OW10353   5.726   8.274   9.143  0.1172  0.1572 -0.1227
66808SOL    HW110354   5.638   8.295   9.174  0.4408  2.3051 -0.5234
66808SOL    HW210355   5.772   8.245   9.221 -0.5602  0.3180  0.3471
66809SOL     OW10356   7.256   1.567   3.683 -0.6136  0.1425 -0.2978
66809SOL    HW110357   7.320   1.606   3.623 -2.5689  2.2497 -1.1430
66809SOL    HW210358   7.251   1.475   3.656 -0.4984  0.7431 -2.5631
66810SOL     OW10359   4.354   5.260  11.688  0.1847 -0.5985 -0.0231
66810SOL    HW110360   4.430   5.319  11.687 -0.4474  0.2680  0.7190
66810SOL    HW210361   4.296   5.298  11.754 -1.0338 -1.0779 -0.7922
66811SOL     OW10362   8.887  13.160   6.508 -0.2307 -0.5632  0.0583
66811SOL    HW110363   8.905  13.148   6.415  1.1692  1.1371  0.0488
66811SOL    HW210364   8.945  13.098   6.552  0.9215  0.3153 -0.1739
66812SOL     OW10365   6.972   9.001   9.865  0.0329  0.5017  0.0025
66812SOL    HW110366   6.996   8.932   9.927  0.0991  0.7506  0.2587
66812SOL    HW210367   7.052   9.052   9.853 -0.0492  0.6139 -0.0787
66813SOL     OW10368   8.165  11.450   8.122  0.3579 -0.0837  0.3022
66813SOL    HW110369   8.201  11.372   8.164  1.3961  0.3934  0.3259
66813SOL    HW210370   8.204  11.524   8.169 -0.4846  0.4622  0.1735
66814SOL     OW10371  13.290   5.620  10.704  0.2836  0.0562  0.4016
66814SOL    HW110372  13.324   5.544  10.751  1.9655  0.7931  0.4076
66814SOL    HW210373  13.202   5.593  10.677  0.5500 -1.5967  1.0739
66815SOL     OW10374  11.154  10.107   4.349  0.3228 -0.3173  0.1916
66815SOL    HW110375  11.145  10.178   4.286 -1.7814  0.1056  0.8995
66815SOL    HW210376  11.209  10.144   4.418  2.9151 -0.8868 -1.4211
66816SOL     OW10377   4.140   8.420  12.682 -0.4162 -0.2100 -0.0922
66816SOL    HW110378   4.155   8.327  12.694 -0.2823 -0.4792 -2.1173
66816SOL    HW210379   4.045   8.429  12.672 -0.5459  0.0380  1.1423
66817SOL     OW10380   2.696   0.527   6.947 -0.2356 -0.0270 -0.8712
66817SOL    HW110381   2.746   0.487   6.876  1.4291  0.8353 -0.2439
66817SOL    HW210382   2.607   0.536   6.912  0.5414  0.4149 -2.8607
66818SOL     OW10383   5.939  12.344  12.856 -0.5179  0.3901  0.0003
66818SOL    HW110384   5.990  12.342  12.937  1.2307  1.7352 -1.0084
66818SOL    HW210385   5.918  12.436  12.843  0.4512  0.3954 -1.7743
66819SOL     OW10386   3.451  13.192  11.318 -0.3837 -0.4879 -0.3330
66819SOL    HW110387   3.369  13.239  11.330 -0.4439 -0.3637 -1.1477
66819SOL    HW210388   3.426  13.114  11.269 -0.1972 -1.0918  0.5083
66820SOL     OW10389   4.760   2.635  10.312 -0.2011 -0.5009 -0.3473
66820SOL    HW110390   4.668   2.655  10.294 -1.4789 -2.9570  2.5828
66820SOL    HW210391   4.808   2.678  10.240 -3.4476  1.9354 -1.3337
66821SOL     OW10392   4.486   4.979  10.786 -0.2711  0.0950 -0.0779
66821SOL    HW110393   4.471   4.959  10.879 -2.0092  1.0580 -0.1214
66821SOL    HW210394   4.409   5.028  10.759  1.0258  1.4019 -1.5875
66822SOL     OW10395   7.287   9.889  10.223 -0.0915  0.2956  0.1571
66822SOL    HW110396   7.294   9.814  10.163 -0.3347  0.3287  0.0834
66822SOL    HW210397   7.211   9.937  10.191 -0.7489 -0.1462  1.0088
66823SOL     OW10398   5.542  10.909  12.359  0.1631 -0.0667 -0.4287
66823SOL    HW110399   5.503  10.834  12.404  0.9798  0.9070  2.0866
66823SOL    HW210400   5.626  10.878  12.328  0.5476 -0.2053  0.7074
66824SOL     OW10401   0.345   5.355   6.571  0.8018  0.5796 -0.4503
66824SOL    HW110402   0.278   5.424   6.576 -0.2949 -0.4556 -0.2267
66824SOL    HW210403   0.296   5.276   6.545  2.0027 -0.1358 -0.6206
66825SOL     OW10404   6.737   7.874   3.494 -0.2685  0.2094  0.1929
66825SOL    HW110405   6.807   7.933   3.465 -0.3177  1.3005  2.1119
66825SOL    HW210406   6.659   7.905   3.448 -0.1276  1.1855  0.5738
66826SOL     OW10407  10.548   7.770  12.454 -0.2930  0.2271 -0.2916
66826SOL    HW110408  10.627   7.775  12.401 -0.0185  1.7574  0.2279
66826SOL    HW210409  10.572   7.715  12.528  1.4601  3.3767  1.6887
66827SOL     OW10410  11.688  12.185   6.856  0.3276 -0.2988  0.5362
66827SOL    HW110411  11.657  12.137   6.932 -0.8462  1.5109  1.2407
66827SOL    HW210412  11.663  12.276   6.872 -0.0519  0.1349 -2.0498
66828SOL     OW10413  10.584   2.716  10.987  0.2971 -0.1533 -0.6700
66828SOL    HW110414  10.623   2.799  10.963  0.4791 -0.4422 -1.3985
66828SOL    HW210415  10.650   2.673  11.042  0.0284  0.3539  0.0689
66829SOL     OW10416   0.763   2.332  11.373  0.3734  0.0075  0.0412
66829SOL    HW110417   0.824   2.361  11.305  0.5272  0.2517  0.2769
66829SOL    HW210418   0.801   2.366  11.454  1.0588 -1.6201  0.4559
66830SOL     OW10419  10.680   9.286  10.175 -0.5087 -0.2088 -0.0335
66830SOL    HW110420  10.773   9.274  10.196 -0.5735  0.7612  0.9114
66830SOL    HW210421  10.659   9.374  10.207 -1.6674 -0.2649 -0.5695
66831SOL     OW10422   2.385  13.236   9.692  0.0140  0.1508 -0.0759
66831SOL    HW110423   2.324  13.310   9.696 -0.4677 -0.2793  2.2781
66831SOL    HW210424   2.468  13.275   9.664 -0.2138  1.6451  1.1463
66832SOL     OW10425   1.957   7.019   3.090 -0.0763 -0.0764  0.2289
66832SOL    HW110426   1.973   6.925   3.102 -1.9140 -0.3936  0.4454
66832SOL    HW210427   1.961   7.032   2.995 -1.2391 -0.6677  0.0875
66833SOL     OW10428   5.421  10.070   9.201  0.2993  0.0794  0.3343
66833SOL    HW110429   5.435  10.049   9.294 -0.0180 -0.9499  0.1595
66833SOL    HW210430   5.427  10.166   9.197  1.5136  0.0611  1.2132
66834SOL     OW10431   1.780   8.154  10.133 -0.1291 -0.5399  0.7455
66834SOL    HW110432   1.745   8.113  10.054 -0.9466 -0.0478  0.8396
66834SOL    HW210433   1.875   8.140  10.127 -0.2722 -1.3224  0.1525
66835SOL     OW10434   9.489   6.358   8.130 -0.1724  0.8181 -0.3621
66835SOL    HW110435   9.427   6.327   8.195 -1.3700  0.8648 -1.4394
66835SOL    HW210436   9.530   6.278   8.097 -0.0207  0.7451 -0.0006
66836SOL     OW10437   9.664   5.918  11.153  0.0584  0.4605 -0.3112
66836SOL    HW110438   9.642   5.837  11.198  0.0305  1.8003  2.2321
66836SOL    HW210439   9.753   5.903  11.120 -0.1157 -0.7370 -0.2785
66837SOL     OW10440  10.397   7.212   8.343 -0.1021 -0.1524 -0.0314
66837SOL    HW110441  10.337   7.285   8.327  0.9648  0.7372 -0.0320
66837SOL    HW210442  10.350   7.135   8.309 -1.5339  0.4050  0.5920
66838SOL     OW10443  13.134   0.338   3.595 -0.1889 -0.3681 -0.5269
66838SOL    HW110444  13.050   0.305   3.626  0.8766 -2.4264  0.3071
66838SOL    HW210445  13.142   0.304   3.505 -0.7677  0.8999 -1.0890
66839SOL     OW10446  10.279  10.000   2.009  0.0168 -0.1482  0.3637
66839SOL    HW110447  10.313   9.910   2.012 -0.9956 -0.5627 -0.1654
66839SOL    HW210448  10.186   9.991   2.027 -0.0151  0.8584  0.7579
66840SOL     OW10449   0.238   4.482   7.066  0.3018 -0.0444  0.0277
66840SOL    HW110450   0.204   4.559   7.112 -0.7244  0.5057 -1.5751
66840SOL    HW210451   0.247   4.510   6.975  1.3997 -1.3689 -0.3054
66841SOL     OW10452  12.496   1.717   8.948  0.3378  0.5593 -0.0514
66841SOL    HW110453  12.555   1.790   8.927 -0.9482  1.6862  0.0902
66841SOL    HW210454  12.467   1.735   9.038 -1.7483  1.1592 -0.7916
66842SOL     OW10455   2.957  12.764   4.026  0.3460  0.5210 -0.3061
66842SOL    HW110456   3.050  12.753   4.046  0.6174  2.4337 -0.3268
66842SOL    HW210457   2.912  12.709   4.089  1.4830 -0.0112  0.0591
66843SOL     OW10458   2.685   3.717   3.684 -0.3368  0.3154  0.0474
66843SOL    HW110459   2.654   3.803   3.656 -0.2089 -0.3889 -2.5156
66843SOL    HW210460   2.747   3.690   3.615 -0.8484 -2.0734  0.4311
66844SOL     OW10461   6.461   5.179   3.331  0.0020  0.2817  0.1241
66844SOL    HW110462   6.467   5.087   3.303  1.8159  0.2108  0.6174
66844SOL    HW210463   6.415   5.176   3.414  0.2605 -0.2089  0.2515
66845SOL     OW10464   5.176   0.753  12.992  0.0016  0.2110  0.2113
66845SOL    HW110465   5.121   0.787  13.064  0.7817 -0.7088  1.2777
66845SOL    HW210466   5.123   0.766  12.914 -1.5924 -0.2830  1.1560
66846SOL     OW10467   0.033  12.304   1.873  0.6216 -0.1484  0.1004
66846SOL    HW110468   0.002  12.221   1.838  0.0649 -0.7446  1.9429
66846SOL    HW210469   0.063  12.284   1.961  2.1520  1.2807 -0.0353
66847SOL     OW10470  11.557   9.528   3.806 -0.6079  0.1242 -0.1739
66847SOL    HW110471  11.482   9.472   3.823 -0.7692  0.3744 -0.0556
66847SOL    HW210472  11.608   9.526   3.887  2.4179 -4.3560 -1.8443
66848SOL     OW10473   6.481   5.965   5.030 -0.4304 -0.0215  0.7042
66848SOL    HW110474   6.435   5.975   4.946  1.1009  0.8703 -0.0642
66848SOL    HW210475   6.543   5.894   5.015  1.0385  1.2613  0.4907
66849SOL     OW10476   4.418   9.285   5.805 -0.0046  0.6273  0.5148
66849SOL    HW110477   4.324   9.284   5.822  0.0551  1.0685  0.9009
66849SOL    HW210478   4.441   9.378   5.800  0.7014  0.5786  2.1810
66850SOL     OW10479   5.747   3.658  10.259 -0.1915  0.6489 -0.4847
66850SOL    HW110480   5.823   3.658  10.317 -2.1568  0.0614  2.2774
66850SOL    HW210481   5.685   3.718  10.301 -1.5830  0.4892 -2.2033
66851SOL     OW10482   4.072   4.411   0.790 -0.1190  0.3867 -0.5872
66851SOL    HW110483   4.057   4.471   0.864  1.2116  1.1599 -0.9180
66851SOL    HW210484   3.985   4.380   0.766 -1.0050  3.1086 -1.1578
66852SOL     OW10485   9.454   5.123   1.127 -0.4963  0.0706  0.5814
66852SOL    HW110486   9.408   5.113   1.210  0.1618  0.6331  1.0232
66852SOL    HW210487   9.386   5.148   1.064 -1.0678 -0.7716  0.8500
66853SOL     OW10488   6.295   8.749   1.188 -0.2148 -0.2050 -0.0093
66853SOL    HW110489   6.254   8.701   1.117 -1.4018 -0.1501  0.5952
66853SOL    HW210490   6.225   8.805   1.222  0.5286  0.3212  0.7076
66854SOL     OW10491   9.660  10.746   4.812  0.5647  0.2009  0.6074
66854SOL    HW110492   9.732  10.704   4.860  0.5032 -0.3993  0.1790
66854SOL    HW210493   9.581  10.716   4.857  0.5472  0.4091  0.7216
66855SOL     OW10494   4.260   9.194   4.768 -0.9008  0.4449 -0.5298
66855SOL    HW110495   4.301   9.145   4.839  2.5942  2.5151 -0.8937
66855SOL    HW210496   4.266   9.135   4.693 -1.6770 -0.5399  0.1600
66856SOL     OW10497   7.826   3.329   6.053  0.3930  0.0238 -0.3293
66856SOL    HW110498   7.760   3.368   6.112 -2.2000 -0.2145 -2.8407
66856SOL    HW210499   7.825   3.236   6.075 -0.3346 -0.0216 -0.5388
66857SOL     OW10500   3.503  12.475  10.262 -0.6534  0.1836 -0.7335
66857SOL    HW110501   3.463  12.562  10.270  2.0286  1.5069 -0.6089
66857SOL    HW210502   3.589  12.485  10.302 -0.7605 -2.9506  0.5099
66858SOL     OW10503   5.203   6.612   4.204  0.5325 -0.0742  0.1912
66858SOL    HW110504   5.220   6.520   4.186  1.4410  0.2145 -0.4735
66858SOL    HW210505   5.214   6.656   4.120 -0.7528  0.5347  0.3133
66859SOL     OW10506   4.473   5.499   8.998  0.1658 -0.5152  0.4153
66859SOL    HW110507   4.550   5.490   9.055  0.2989 -0.6834  0.2128
66859SOL    HW210508   4.399   5.473   9.053  0.1979  0.0932  0.7524
66860SOL     OW10509  10.762   9.794   4.406  0.1153  0.0687 -0.2588
66860SOL    HW110510  10.688   9.839   4.366  0.3528  0.1689 -0.5880
66860SOL    HW210511  10.819   9.864   4.437 -0.3447  0.0013  0.7987
66861SOL     OW10512  12.522   3.436   9.094  0.0944  0.0101 -0.0586
66861SOL    HW110513  12.564   3.385   9.025  4.0821  1.7474  0.7845
66861SOL    HW210514  12.540   3.527   9.070  0.6431  0.6921  2.6297
66862SOL     OW10515   0.387   2.621   7.723 -0.0637  0.2091  0.0035
66862SOL    HW110516   0.432   2.647   7.643  0.6027 -1.0400 -0.0493
66862SOL    HW210517   0.307   2.579   7.692  1.3525 -2.5594 -0.1882
66863SOL     OW10518   4.832   5.744   1.375  0.3905  0.0332 -0.0955
66863SOL    HW110519   4.927   5.744   1.376  0.4038 -0.7732  1.1429
66863SOL    HW210520   4.807   5.797   1.451 -0.0689 -2.0584  1.3193
66864SOL     OW10521   2.912   3.884   2.961 -0.2993 -0.3015 -0.2002
66864SOL    HW110522   2.996   3.883   2.914 -1.9252  1.1816 -3.5032
66864SOL    HW210523   2.934   3.912   3.049  2.9868 -2.8892  0.0195
66865SOL     OW10524   4.158   4.243   2.793  0.0665  0.2023  0.0175
66865SOL    HW110525   4.131   4.151   2.802  0.2509 -0.0080 -1.2774
66865SOL    HW210526   4.228   4.240   2.727  1.6515  1.0057  1.5925
66866SOL     OW10527  13.239   7.353   9.060  0.4888  0.3664  0.9461
66866SOL    HW110528  13.196   7.267   9.058 -2.2033  1.5888  1.6710
66866SOL    HW210529  13.229   7.386   8.971  2.5272 -0.4224  0.3492
66867SOL     OW10530   5.348  12.246   8.421 -0.1355  0.1225  0.1254
66867SOL    HW110531   5.348  12.162   8.375 -2.1963 -1.7146  3.1009
66867SOL    HW210532   5.259  12.279   8.409 -0.7737 -0.4693  2.6571
66868SOL     OW10533  11.721  12.377   8.032  0.0675  0.1953  0.1307
66868SOL    HW110534  11.640  12.427   8.024 -0.2352  0.1739  2.4295
66868SOL    HW210535  11.704  12.295   7.987 -1.2314  0.1338  0.7213
66869SOL     OW10536   1.337   8.563   6.870  0.0998 -0.0760 -0.0329
66869SOL    HW110537   1.256   8.615   6.866  0.2586  0.1410 -0.4287
66869SOL    HW210538   1.394   8.603   6.804  0.2180 -0.7633 -0.3490
66870SOL     OW10539   1.623   5.260   8.336 -0.0059  0.2336 -0.0366
66870SOL    HW110540   1.606   5.202   8.262  0.6185 -0.1496  0.1123
66870SOL    HW210541   1.570   5.223   8.407 -0.0208  0.1565 -0.0876
66871SOL     OW10542   0.434   5.785   8.507  0.1251  0.3549  0.1693
66871SOL    HW110543   0.389   5.752   8.428  0.9839 -1.2570  0.3143
66871SOL    HW210544   0.516   5.822   8.475 -1.0036  2.9001 -0.0419
66872SOL     OW10545   9.279   5.660   1.388  0.0486 -0.2980  0.2915
66872SOL    HW110546   9.262   5.701   1.472  0.1129 -0.1751  0.2447
66872SOL    HW210547   9.225   5.581   1.388  0.0983 -0.3314  0.4730
66873SOL     OW10548   8.577   5.158   5.028  0.0259  0.3594  0.0980
66873SOL    HW110549   8.523   5.236   5.038 -1.9122 -0.9408  0.4055
66873SOL    HW210550   8.647   5.184   4.968 -1.1659  2.0216 -0.6385
66874SOL     OW10551   1.649   2.265  10.666 -0.1476  0.4545  0.1041
66874SOL    HW110552   1.652   2.335  10.601  0.8805 -0.3078 -0.6943
66874SOL    HW210553   1.572   2.213  10.642  0.3866  0.0132 -0.6971
66875SOL     OW10554   9.149   1.017   9.809  0.4273  0.1144  0.3750
66875SOL    HW110555   9.213   1.055   9.870 -0.4997 -0.8299  1.9965
66875SOL    HW210556   9.202   0.990   9.734  1.8229  0.1785  1.2874
66876SOL     OW10557   3.940   0.662   0.061 -0.0562 -0.5209 -0.6264
66876SOL    HW110558   3.994   0.691  -0.013  3.6586  0.7913  2.2460
66876SOL    HW210559   3.978   0.577   0.086  0.4502  0.1742  1.1320
66877SOL     OW10560   1.107   2.043   0.176  0.4352 -0.0674  0.4085
66877SOL    HW110561   1.045   2.014   0.108  1.7569 -0.2325 -0.7767
66877SOL    HW210562   1.064   2.022   0.258 -0.6048 -1.2161 -0.3934
66878SOL     OW10563  10.701   4.437   2.256 -0.2745  0.1000  0.1194
66878SOL    HW110564  10.721   4.508   2.195 -0.3240 -0.1144 -0.1456
66878SOL    HW210565  10.606   4.427   2.250 -0.2870  0.1170  0.2780
66879SOL     OW10566   0.444  11.326   2.284 -0.0124  0.7166  0.1926
66879SOL    HW110567   0.437  11.325   2.380 -2.5712  0.8506  0.0854
66879SOL    HW210568   0.406  11.242   2.257  2.0182  0.0133 -0.7247
66880SOL     OW10569   5.906  12.659   1.423 -0.2038  0.0939  0.5044
66880SOL    HW110570   5.917  12.565   1.410  1.4454  0.3483 -0.1708
66880SOL    HW210571   5.995  12.694   1.425 -0.7465  1.9664 -2.0206
66881SOL     OW10572   5.901   7.435   7.603  0.4569 -0.3693  0.2112
66881SOL    HW110573   5.840   7.498   7.563  0.9011  0.9078  1.4336
66881SOL    HW210574   5.863   7.350   7.584 -0.7521  0.3076 -0.5935
66882SOL     OW10575   1.762   7.174   4.190  0.1508  0.5292  0.5118
66882SOL    HW110576   1.674   7.149   4.216  0.1732 -0.5459 -0.3262
66882SOL    HW210577   1.761   7.168   4.094  0.5644  2.5367  0.3479
66883SOL     OW10578   6.959   2.349   1.937  0.5382  0.5567  0.3126
66883SOL    HW110579   6.960   2.294   2.015  0.7854  0.4642  0.2420
66883SOL    HW210580   7.044   2.335   1.896  0.4611  0.7105  0.0995
66884SOL     OW10581  10.589  12.963   5.268 -0.9283 -0.2171 -0.4348
66884SOL    HW110582  10.674  13.007   5.272 -1.4004  0.7877 -1.0619
66884SOL    HW210583  10.560  12.960   5.359 -1.5045  2.0768 -0.4725
66885SOL     OW10584   0.060   5.569   6.007  0.0561 -0.0883 -0.2975
66885SOL    HW110585   0.127   5.528   6.062  0.5091  0.4773 -0.4127
66885SOL    HW210586   0.064   5.521   5.924  0.0984 -0.2614 -0.1955
66886SOL     OW10587   4.369  11.135   6.509  0.4816  0.2439 -0.8412
66886SOL    HW110588   4.388  11.059   6.564  0.6908  1.2283  0.4993
66886SOL    HW210589   4.455  11.166   6.481  0.3439 -0.8399 -2.6238
66887SOL     OW10590   1.461   4.123  10.752 -0.0522 -0.6574  0.1991
66887SOL    HW110591   1.461   4.085  10.839 -0.0786 -0.6040  0.2225
66887SOL    HW210592   1.377   4.098  10.714 -0.4648  0.1550  0.5541
66888SOL     OW10593   2.312  11.627   8.708 -0.1629  0.5265  0.3203
66888SOL    HW110594   2.354  11.586   8.633  0.2987  0.0941  0.8037
66888SOL    HW210595   2.219  11.614   8.695 -0.1181  0.9486 -0.4609
66889SOL     OW10596   0.494   1.888   3.336  0.2846 -1.0319 -0.0030
66889SOL    HW110597   0.474   1.937   3.256  1.2844  0.0708  0.4021
66889SOL    HW210598   0.427   1.915   3.398  0.8694 -0.0883  0.2405
66890SOL     OW10599  12.717   6.447   7.278 -0.0881 -0.3169 -0.1347
66890SOL    HW110600  12.730   6.542   7.280 -1.1355 -0.1725  0.7455
66890SOL    HW210601  12.637   6.434   7.227 -0.7896 -0.5977  0.9987
66891SOL     OW10602   3.274  10.039   8.999 -0.0179 -0.1633 -0.8583
66891SOL    HW110603   3.187  10.074   9.018 -0.3408 -0.3096 -1.9981
66891SOL    HW210604   3.281   9.962   9.055 -0.7524 -0.3254 -0.9704
66892SOL     OW10605   9.294   0.707  10.967 -0.0641  0.3782 -0.5108
66892SOL    HW110606   9.318   0.731  10.878  1.1563 -0.0753 -0.3323
66892SOL    HW210607   9.272   0.614  10.961  4.8548 -1.1257  0.3836
66893SOL     OW10608   5.160   4.495   6.266  0.6657  0.3599  0.0627
66893SOL    HW110609   5.239   4.470   6.217  0.7428  0.0078  0.3623
66893SOL    HW210610   5.152   4.590   6.252  0.0709  0.1026 -1.5237
66894SOL     OW10611   1.618   8.788  10.498 -0.1451  0.3510  0.0969
66894SOL    HW110612   1.562   8.864  10.487  0.0806  0.6704  1.0432
66894SOL    HW210613   1.563   8.725  10.546  0.2179  0.5821  0.8326
66895SOL     OW10614   8.188   9.561   3.483 -0.0592 -0.0925  0.3402
66895SOL    HW110615   8.224   9.650   3.483 -1.4756  0.7267  4.5148
66895SOL    HW210616   8.264   9.504   3.495  0.5498  1.0025  2.0462
66896SOL     OW10617  12.713   8.988   3.899 -0.4156 -0.2000 -0.3554
66896SOL    HW110618  12.672   8.923   3.841  1.0782 -1.0802 -0.4607
66896SOL    HW210619  12.697   8.954   3.987  0.2925 -0.6917 -0.4072
66897SOL     OW10620   8.925   9.368   7.994  0.2922  0.0732  0.1563
66897SOL    HW110621   8.871   9.345   7.918  1.6695 -0.9412 -0.5604
66897SOL    HW210622   9.014   9.343   7.969  0.8912  0.3507  1.8479
66898SOL     OW10623  11.177  10.438   6.238  0.5326 -0.0577 -0.1420
66898SOL    HW110624  11.101  10.429   6.180 -1.0933  0.3241  1.8084
66898SOL    HW210625  11.142  10.481   6.316  2.8480  0.4022  0.7183
66899SOL     OW10626   6.219  11.018   7.858 -0.3647  0.2668  0.2693
66899SOL    HW110627   6.237  11.111   7.842 -1.5259  0.6590  1.0583
66899SOL    HW210628   6.250  11.003   7.947 -0.3566 -0.0415  0.2131
66900SOL     OW10629   2.649   4.713   8.160 -0.3186 -0.0012  0.2119
66900SOL    HW110630   2.727   4.657   8.167 -0.1223  0.0971 -1.0631
66900SOL    HW210631   2.610   4.708   8.247 -0.3113 -2.1394  0.1658
66901SOL     OW10632   3.357   9.399  12.885  0.0839  0.0512 -0.0400
66901SOL    HW110633   3.331   9.468  12.946  1.2192  0.6659 -0.2374
66901SOL    HW210634   3.297   9.326  12.905  0.1467  0.3859  1.4945
66902SOL     OW10635   8.524   4.284   2.402  0.2823  0.3857 -0.2082
66902SOL    HW110636   8.485   4.355   2.453  0.6718  1.3385 -1.1931
66902SOL    HW210637   8.570   4.230   2.466 -1.0773  0.2715  0.7311
66903SOL     OW10638   5.944   0.665   3.926 -0.1896 -0.0104  0.2606
66903SOL    HW110639   5.959   0.727   3.998  2.8367 -0.4130  0.0774
66903SOL    HW210640   5.969   0.713   3.847 -0.6498 -0.5391 -0.2165
66904SOL     OW10641   0.928   5.298   7.243 -0.4141  0.0232 -0.9169
66904SOL    HW110642   0.944   5.212   7.206  0.2721 -0.0158 -0.5457
66904SOL    HW210643   0.842   5.291   7.285 -0.5254 -0.3677 -1.2072
66905SOL     OW10644  11.190   4.159   2.321 -0.1617 -0.6295 -0.1667
66905SOL    HW110645  11.106   4.146   2.364  0.7728 -0.7605  1.7626
66905SOL    HW210646  11.217   4.071   2.293 -0.0172 -0.8219  0.5521
66906SOL     OW10647   9.242  10.403   8.682 -0.0228  0.2283 -0.2178
66906SOL    HW110648   9.263  10.485   8.637 -1.2622  0.6407 -0.0834
66906SOL    HW210649   9.241  10.426   8.775  0.9646 -0.2605 -0.0738
66907SOL     OW10650   0.701   6.880   4.137 -0.6522  0.3129  0.9466
66907SOL    HW110651   0.610   6.855   4.149  0.0104 -1.6471  2.2923
66907SOL    HW210652   0.743   6.864   4.222  1.2617 -0.3290 -0.0464
66908SOL     OW10653   5.441   2.187  12.252  0.2754  0.0863 -0.3335
66908SOL    HW110654   5.534   2.192  12.276 -0.0488  1.2965  0.8132
66908SOL    HW210655   5.442   2.178  12.157  1.5841 -2.3115 -0.1688
66909SOL     OW10656   8.694   5.766  12.937  0.1685 -0.4405  0.3139
66909SOL    HW110657   8.681   5.828  13.009  1.2576  0.5584 -0.3130
66909SOL    HW210658   8.770   5.714  12.963 -0.1440 -0.8677  0.3910
66910SOL     OW10659   5.149   9.222   8.357  0.2419  0.5022  0.0766
66910SOL    HW110660   5.238   9.194   8.379  0.0547  0.6658  1.0858
66910SOL    HW210661   5.093   9.167   8.412 -0.1970  1.6931  0.8427
66911SOL     OW10662  13.182  11.045   6.111  0.3131 -0.3440 -0.1288
66911SOL    HW110663  13.256  10.996   6.147  0.0017 -0.8571 -0.1804
66911SOL    HW210664  13.221  11.125   6.077  0.5847  0.2872  1.5733
66912SOL     OW10665   2.177   0.384   7.904 -0.3005 -0.1149  0.5159
66912SOL    HW110666   2.196   0.377   7.997 -0.4075  0.8734  0.6207
66912SOL    HW210667   2.083   0.397   7.899 -0.2185  0.3992  0.2987
66913SOL     OW10668   0.507   5.963  11.509 -0.0174 -0.3115 -0.3572
66913SOL    HW110669   0.418   5.984  11.538  0.2342 -0.0643  0.2672
66913SOL    HW210670   0.510   5.992  11.418 -0.2271  0.7715 -0.0397
66914SOL     OW10671   7.093   0.307  11.475 -0.1666  0.4643  0.0981
66914SOL    HW110672   7.015   0.266  11.437  0.4437  0.4193 -1.1819
66914SOL    HW210673   7.150   0.233  11.496 -0.4215  0.5023  0.9506
66915SOL     OW10674  10.619   8.686  11.791 -0.3003  0.1455 -0.2534
66915SOL    HW110675  10.656   8.762  11.836 -0.0556 -0.2775  0.2725
66915SOL    HW210676  10.562   8.723  11.723 -1.5277  0.8110  1.0955
66916SOL     OW10677   6.027  10.286   1.426 -0.4952  0.7128  0.2136
66916SOL    HW110678   6.075  10.238   1.359 -1.3461  0.8451 -0.5061
66916SOL    HW210679   6.059  10.376   1.418 -0.2613  0.6366  0.2952
66917SOL     OW10680   7.550  13.140   5.189  0.3131 -0.8241 -0.1420
66917SOL    HW110681   7.614  13.098   5.246  0.3120 -0.5556  0.0586
66917SOL    HW210682   7.536  13.077   5.117 -0.3715 -1.5720  0.6231
66918SOL     OW10683   7.045   9.168   3.780  0.3654  0.1070 -0.1217
66918SOL    HW110684   7.137   9.145   3.794  0.3453 -0.7092 -1.1617
66918SOL    HW210685   7.006   9.087   3.746 -0.7125  0.4817  0.2126
66919SOL     OW10686   4.998   5.704   5.053 -0.3223  0.1882 -0.1789
66919SOL    HW110687   4.993   5.799   5.069 -1.5358 -0.2830  2.9582
66919SOL    HW210688   4.908   5.674   5.061 -0.0016 -1.2230 -1.5315
66920SOL     OW10689   4.937   0.557   2.259  0.3117  0.2842  0.3642
66920SOL    HW110690   4.848   0.574   2.228  0.3006 -0.0829  0.1806
66920SOL    HW210691   4.992   0.575   2.183  0.2866 -0.6041  0.1164
66921SOL     OW10692  10.010   5.389   7.076  0.4276  0.7431 -0.4291
66921SOL    HW110693   9.993   5.465   7.131  0.2674  0.4641 -0.0917
66921SOL    HW210694  10.097   5.405   7.039  0.4797  0.9906 -0.1968
66922SOL     OW10695   7.893  10.707   2.371  0.1491 -0.5642  0.3011
66922SOL    HW110696   7.943  10.784   2.342  1.6079 -1.6178 -0.0854
66922SOL    HW210697   7.805  10.721   2.336  0.7823  0.2109 -1.0682
66923SOL     OW10698   0.157   5.985   6.649  0.6198 -0.9452 -0.8229
66923SOL    HW110699   0.229   5.983   6.712  0.7686 -0.9400 -0.9926
66923SOL    HW210700   0.151   6.076   6.621 -0.8432 -0.4803  0.7789
66924SOL     OW10701   5.015   1.951   2.806  0.0968 -0.2776  0.1232
66924SOL    HW110702   4.959   1.917   2.736  0.0320  1.5710 -0.7755
66924SOL    HW210703   5.104   1.933   2.776  0.0594  0.1078 -0.2145
66925SOL     OW10704   7.689   8.719  12.194  0.0533 -0.1229  0.5798
66925SOL    HW110705   7.669   8.674  12.276 -0.0400 -0.8519  0.1753
66925SOL    HW210706   7.603   8.744  12.159 -0.0014 -0.9346  0.1045
66926SOL     OW10707   7.053  10.213   6.507 -0.1100 -0.4582  0.4321
66926SOL    HW110708   7.124  10.277   6.518 -0.1052 -0.5674  1.0873
66926SOL    HW210709   7.093  10.129   6.529  0.0098 -0.7636 -0.8956
66927SOL     OW10710  12.067   6.891  10.206 -0.0938 -0.1167 -0.2174
66927SOL    HW110711  12.119   6.967  10.231  0.7255 -0.8990  0.5080
66927SOL    HW210712  12.094   6.872  10.116 -1.5108  1.4153 -1.0397
66928SOL     OW10713   5.079   7.381   5.744  0.9250  0.2719  0.0265
66928SOL    HW110714   5.045   7.457   5.792  0.1182  0.1127 -0.2790
66928SOL    HW210715   5.105   7.320   5.813 -1.1582 -0.3637  0.3031
66929SOL     OW10716   2.099   4.494   5.323 -0.6236 -0.6633  0.0240
66929SOL    HW110717   2.069   4.571   5.371 -0.2199 -1.1009  0.9984
66929SOL    HW210718   2.124   4.528   5.237  0.1628  0.4190  0.6497
66930SOL     OW10719   3.425   8.947   5.773  0.1922 -0.2881 -0.0925
66930SOL    HW110720   3.478   8.992   5.707 -1.4434 -0.4870 -1.6172
66930SOL    HW210721   3.337   8.986   5.763 -0.2739 -0.9119  1.4165
66931SOL     OW10722  10.189   5.934   1.881  0.2397  0.3150 -0.0030
66931SOL    HW110723  10.196   5.954   1.974 -1.1108  0.3466  0.1111
66931SOL    HW210724  10.222   6.011   1.836 -0.7510  1.0274  0.4566
66932SOL     OW10725   1.512   0.659  11.958 -0.0733  0.7645  0.0650
66932SOL    HW110726   1.586   0.620  12.004 -1.4650  0.1426  1.8881
66932SOL    HW210727   1.549   0.735  11.913  1.5127  0.9732  1.6298
66933SOL     OW10728   8.124   5.577  12.129  0.1534  0.0794  0.6748
66933SOL    HW110729   8.035   5.552  12.152 -0.5740  1.7677 -0.1040
66933SOL    HW210730   8.119   5.672  12.117  2.0014  0.1624  0.3321
66934SOL     OW10731   4.482   7.570   7.312  0.3151 -0.2117 -0.2061
66934SOL    HW110732   4.507   7.488   7.268 -0.1764 -0.5573  0.1542
66934SOL    HW210733   4.413   7.606   7.257  0.4239 -0.1134 -0.2797
66935SOL     OW10734   4.658   9.754   0.047  0.2196  0.1066 -0.5949
66935SOL    HW110735   4.707   9.681   0.010  0.7218  1.5829 -3.1368
66935SOL    HW210736   4.576   9.715   0.078  1.0195 -1.6982 -0.6288
66936SOL     OW10737   1.476  12.993   9.864 -0.3612  0.3913 -0.0350
66936SOL    HW110738   1.482  12.972   9.957 -0.1464 -0.0342 -0.1430
66936SOL    HW210739   1.469  13.088   9.862  0.2704  0.4532  0.3847
66937SOL     OW10740  12.685   8.564  11.960 -0.1488  0.4262  0.2215
66937SOL    HW110741  12.754   8.523  12.012 -0.7649  0.6501  1.2561
66937SOL    HW210742  12.713   8.656  11.952  0.0834  0.3290 -0.0815
66938SOL     OW10743  10.942   1.083   2.618 -0.0505 -0.3085 -0.1222
66938SOL    HW110744  10.909   1.168   2.644  0.3702 -0.5679  1.3246
66938SOL    HW210745  10.931   1.028   2.695 -0.4538 -1.6149 -1.0762
66939SOL     OW10746  11.457  10.101   3.314 -0.7654  0.8946 -1.0639
66939SOL    HW110747  11.451  10.135   3.225 -3.0438 -0.1072 -1.3571
66939SOL    HW210748  11.371  10.063   3.332 -0.5473  1.4579  1.7476
66940SOL     OW10749   3.057   3.847   0.887 -0.3630 -0.8382  0.2945
66940SOL    HW110750   2.985   3.905   0.863 -0.5719 -0.8547  0.8707
66940SOL    HW210751   3.035   3.763   0.847  0.3317 -0.3333 -1.2123
66941SOL     OW10752   2.278   9.720  12.602 -0.2762  0.5360 -0.1814
66941SOL    HW110753   2.352   9.700  12.659  0.0621  0.9111 -0.4888
66941SOL    HW210754   2.316   9.766  12.527 -0.6819 -0.1659 -0.8352
66942SOL     OW10755   9.007   9.246   4.124 -0.2426 -0.2819 -0.3808
66942SOL    HW110756   9.090   9.225   4.166  0.1775 -0.7562 -1.4068
66942SOL    HW210757   8.953   9.284   4.194  0.7006 -0.3082  0.3787
66943SOL     OW10758   8.910   3.646  12.030 -0.3214 -0.0171 -0.3098
66943SOL    HW110759   8.858   3.690  12.096  0.0081  1.4645 -0.9890
66943SOL    HW210760   8.851   3.581  11.991 -1.1052  0.4298  0.1218
66944SOL     OW10761   0.399   5.901   7.877  0.2050 -0.2663  0.0119
66944SOL    HW110762   0.345   5.827   7.905 -0.1002  0.2351  0.7757
66944SOL    HW210763   0.394   5.899   7.781 -0.0163 -1.0715  0.0342
66945SOL     OW10764  12.694   0.181   9.264 -0.2440 -0.1500 -0.1338
66945SOL    HW110765  12.670   0.098   9.223 -1.6672 -1.9139  3.7728
66945SOL    HW210766  12.611   0.225   9.281  0.0937 -0.1940  1.9438
66946SOL     OW10767   3.401  13.070   3.713 -0.2332  0.3737  0.4065
66946SOL    HW110768   3.435  13.037   3.797 -1.1477 -4.3218 -0.7719
66946SOL    HW210769   3.306  13.071   3.725 -0.3595 -0.1727 -0.4795
66947SOL     OW10770  10.655  12.663   2.310 -0.5732  0.2464 -0.6833
66947SOL    HW110771  10.588  12.726   2.339 -0.3637 -0.0364  0.4939
66947SOL    HW210772  10.714  12.655   2.385  0.6015  0.2342 -1.5810
66948SOL     OW10773   4.186   7.053   3.690 -0.1779  0.3639 -0.0630
66948SOL    HW110774   4.215   6.984   3.750  1.5569  1.1331  0.0285
66948SOL    HW210775   4.190   7.133   3.741  1.5147  1.0630 -1.1829
66949SOL     OW10776   7.638   2.901   2.876 -0.1998  0.2984  0.6811
66949SOL    HW110777   7.580   2.978   2.877 -1.5473 -0.6391 -0.5603
66949SOL    HW210778   7.579   2.826   2.877  1.0463 -0.7236  0.4864
66950SOL     OW10779   8.717  12.781   3.908  0.5314 -0.3330  0.0275
66950SOL    HW110780   8.629  12.777   3.946  0.0520  1.1795 -0.8456
66950SOL    HW210781   8.774  12.798   3.983  0.3680 -2.9471  0.8759
66951SOL     OW10782   8.168   5.582   0.606  0.0128  0.1496  0.1636
66951SOL    HW110783   8.116   5.541   0.537  1.4109 -0.5502 -0.5206
66951SOL    HW210784   8.254   5.540   0.600  0.8608  1.6739  0.8538
66952SOL     OW10785   9.699   5.569   2.280  0.0727  0.5877 -0.2489
66952SOL    HW110786   9.670   5.649   2.238 -0.5151  0.4010 -0.2112
66952SOL    HW210787   9.642   5.560   2.357 -0.4649 -0.3233 -0.7387
66953SOL     OW10788   7.887   9.203   1.933  0.9174  0.8798 -0.0783
66953SOL    HW110789   7.944   9.136   1.970  0.0374  0.5794  0.7703
66953SOL    HW210790   7.826   9.155   1.877 -0.0819  0.8861  0.9833
66954SOL     OW10791   3.212   5.879   9.344  0.4372  0.1309 -0.1968
66954SOL    HW110792   3.265   5.820   9.398  0.5042  0.9750  0.7051
66954SOL    HW210793   3.217   5.843   9.256  1.8390 -0.2700  0.0234
66955SOL     OW10794   9.133   4.329   7.311 -0.1045  0.3395 -0.2320
66955SOL    HW110795   9.127   4.338   7.406 -1.6634  0.2336 -0.2948
66955SOL    HW210796   9.143   4.235   7.297 -0.4250  0.2929 -0.1756
66956SOL     OW10797  13.092   9.068   0.297  0.1163  0.2425  0.1045
66956SOL    HW110798  13.101   8.974   0.310  0.8168  0.1328 -1.0059
66956SOL    HW210799  13.011   9.091   0.341 -1.8543 -1.4826 -2.3543
66957SOL     OW10800   3.750   1.048   6.671 -0.5578 -0.3154  0.0051
66957SOL    HW110801   3.661   1.081   6.664 -1.1206 -2.1772 -4.2198
66957SOL    HW210802   3.803   1.110   6.620  0.1822 -0.4500  0.5860
66958SOL     OW10803   9.895  11.503  10.407  0.1204  0.1311 -0.1894
66958SOL    HW110804   9.812  11.456  10.401  0.2302 -0.1251  0.1893
66958SOL    HW210805   9.879  11.571  10.473 -0.1442  0.8653 -0.9945
66959SOL     OW10806   9.110   3.879   8.962 -0.5424  0.5540 -0.2441
66959SOL    HW110807   9.153   3.802   8.998 -1.2984  0.5998  0.8390
66959SOL    HW210808   9.049   3.906   9.031 -1.9283  0.7798 -1.4995
66960SOL     OW10809   5.506  12.106   8.071  0.3935 -0.6688 -0.2087
66960SOL    HW110810   5.441  12.116   8.002  0.4924  0.9085 -0.1049
66960SOL    HW210811   5.456  12.071   8.145 -0.7422  1.9390  0.3675
66961SOL     OW10812   0.566  12.205  11.825 -0.0735  0.2228 -0.0903
66961SOL    HW110813   0.529  12.178  11.910 -0.1297  1.5222  0.3233
66961SOL    HW210814   0.645  12.152  11.816  0.0947  0.2705  0.9180
66962SOL     OW10815  10.669   6.809   3.560 -0.2034 -0.5378  0.2604
66962SOL    HW110816  10.619   6.837   3.637  0.9044 -0.4254  0.9628
66962SOL    HW210817  10.696   6.719   3.581  1.0952 -0.0993  0.5399
66963SOL     OW10818   9.145   0.229   8.939 -0.1846 -0.0937 -0.0898
66963SOL    HW110819   9.241   0.228   8.935 -0.0894 -0.8327  1.5350
66963SOL    HW210820   9.121   0.321   8.928  0.7469  0.1578 -0.0915
66964SOL     OW10821   0.024   3.928   1.614  0.0978  0.2876 -0.5257
66964SOL    HW110822   0.057   3.958   1.529  0.5851 -0.5502 -0.6392
66964SOL    HW210823  -0.040   3.860   1.593 -2.1169  2.1750 -0.3333
66965SOL     OW10824   6.910   5.601   9.620  0.0189 -0.4289  0.4291
66965SOL    HW110825   6.902   5.643   9.706  0.7437 -1.4949  1.0273
66965SOL    HW210826   6.820   5.589   9.591 -0.2398  1.9344  0.0153
66966SOL     OW10827   6.909   0.839   7.396  0.7209 -0.2236  0.8738
66966SOL    HW110828   6.829   0.892   7.399  0.3958 -0.3492 -2.0933
66966SOL    HW210829   6.971   0.892   7.346  1.0603 -1.7486 -0.4159
66967SOL     OW10830   8.368   9.532   5.540  0.0196 -0.1391  0.0718
66967SOL    HW110831   8.336   9.615   5.504  0.9096  0.5505  0.8366
66967SOL    HW210832   8.408   9.555   5.623 -0.2383 -1.4333  0.5886
66968SOL     OW10833  11.596   4.161   9.137 -0.5630  0.0019  0.2670
66968SOL    HW110834  11.531   4.119   9.080 -0.4234  0.0787  0.0500
66968SOL    HW210835  11.620   4.094   9.200  1.3134 -1.0084 -1.4127
66969SOL     OW10836   0.320  11.569   2.104 -0.0003 -0.2005  0.0262
66969SOL    HW110837   0.382  11.500   2.081 -0.2771 -1.0186  1.6480
66969SOL    HW210838   0.369  11.650   2.088  1.3306 -0.8207  0.7592
66970SOL     OW10839   9.560   9.014  11.386 -0.4045  0.1175 -0.0387
66970SOL    HW110840   9.562   8.957  11.309  1.0900 -0.0202  0.0781
66970SOL    HW210841   9.569   9.102  11.351  2.6257 -0.0610  0.0305
66971SOL     OW10842   7.242   1.942  13.077 -0.3838  0.2078  0.4336
66971SOL    HW110843   7.256   1.939  13.172  1.5299  0.0484  0.1873
66971SOL    HW210844   7.192   1.862  13.058  1.1835 -0.9865  1.0581
66972SOL     OW10845  12.497   1.874   3.242 -0.4845 -0.0010  0.3317
66972SOL    HW110846  12.435   1.850   3.173 -0.8717  0.2797  0.5772
66972SOL    HW210847  12.583   1.866   3.201 -0.6854 -0.3191 -0.0357
66973SOL     OW10848  11.919   3.795   4.451  0.3955  0.1959  0.2570
66973SOL    HW110849  11.937   3.848   4.528 -0.0877  1.2168 -0.3020
66973SOL    HW210850  11.909   3.706   4.484 -1.3176  0.8275  1.6074
66974SOL     OW10851  10.555   4.910   1.122  0.4993 -0.5289 -0.0800
66974SOL    HW110852  10.546   4.970   1.048  1.0600  0.5973  0.7344
66974SOL    HW210853  10.565   4.823   1.082 -2.6305 -0.4701 -1.2486
66975SOL     OW10854   3.249   6.054   2.346  0.6686  0.2584 -0.0576
66975SOL    HW110855   3.310   6.043   2.419  1.5983 -1.2485 -1.0025
66975SOL    HW210856   3.188   5.981   2.354 -0.1523  0.9383  0.0495
66976SOL     OW10857   6.548   8.021   3.826 -0.6345  0.3644 -0.0429
66976SOL    HW110858   6.532   7.927   3.830  0.9463 -0.0008 -1.0938
66976SOL    HW210859   6.516   8.055   3.909 -1.4898 -1.0548  0.2305
66977SOL     OW10860   0.968   1.448   3.328 -0.5021 -0.2507  0.2063
66977SOL    HW110861   0.888   1.480   3.288 -0.3636  0.3363  0.3982
66977SOL    HW210862   1.039   1.487   3.276 -0.2948  1.3146  1.5794
66978SOL     OW10863  13.312   1.030   3.110  0.3195 -0.0384 -0.5942
66978SOL    HW110864  13.306   1.019   3.205  1.6321 -1.2589 -0.6327
66978SOL    HW210865  13.397   0.994   3.087 -0.0849  0.0258 -2.2823
66979SOL     OW10866   6.696   0.102   6.165 -0.1259 -0.0837 -0.2219
66979SOL    HW110867   6.673   0.108   6.073 -0.8801  0.0515 -0.0314
66979SOL    HW210868   6.700   0.193   6.196  1.3973 -0.0551 -0.4076
66980SOL     OW10869   9.562   0.703   8.988 -0.3228 -0.5846  0.5459
66980SOL    HW110870   9.607   0.661   8.915  1.2796 -1.8104  2.1619
66980SOL    HW210871   9.632   0.727   9.049 -1.6405  0.0314  1.8752
66981SOL     OW10872  11.498   2.525   6.300  0.3323  0.3019  0.1197
66981SOL    HW110873  11.524   2.615   6.316 -0.6863  0.8421 -1.0926
66981SOL    HW210874  11.533   2.504   6.213 -1.4191  0.3755 -0.6615
66982SOL     OW10875   6.390  10.939   8.349 -0.1811  0.0233 -0.1250
66982SOL    HW110876   6.428  11.013   8.301 -1.5354 -0.2529 -1.7011
66982SOL    HW210877   6.296  10.950   8.340 -0.4467 -0.9199  1.1859
66983SOL     OW10878   0.157  12.674  10.160  0.3934  0.5159 -0.2161
66983SOL    HW110879   0.201  12.747  10.205  2.0795 -0.8681  0.4618
66983SOL    HW210880   0.150  12.606  10.227 -0.7732 -0.1166 -0.9611
66984SOL     OW10881  12.581  10.421   5.239 -0.1637 -0.0030 -0.1656
66984SOL    HW110882  12.562  10.441   5.148  1.1149  0.0528 -0.4290
66984SOL    HW210883  12.643  10.488   5.267 -0.6223  0.0506  0.7951
66985SOL     OW10884   0.826   9.952   8.659  0.1055 -0.2385 -0.0284
66985SOL    HW110885   0.747   9.909   8.626 -1.0239  1.6272  0.0850
66985SOL    HW210886   0.850  10.014   8.591  1.5754 -0.8740 -0.1085
66986SOL     OW10887   9.042  11.180   0.467 -0.3570 -0.5619  0.2442
66986SOL    HW110888   9.088  11.171   0.550  1.3388  1.5847 -0.3744
66986SOL    HW210889   9.106  11.154   0.401 -0.0501  2.0688 -0.6113
66987SOL     OW10890   3.637   9.841   6.975 -0.3191  0.4878 -0.0590
66987SOL    HW110891   3.681   9.774   6.923  0.3266  1.2235 -0.4886
66987SOL    HW210892   3.555   9.800   7.004 -0.4501 -0.1018 -1.2239
66988SOL     OW10893   1.534  12.001  10.602  0.6879  0.1487  0.5339
66988SOL    HW110894   1.599  12.032  10.538 -0.0655 -0.6966 -0.6679
66988SOL    HW210895   1.467  12.070  10.603  0.3763 -0.1401 -0.0884
66989SOL     OW10896  12.870  12.592   7.539  0.4892  0.5865 -0.2005
66989SOL    HW110897  12.893  12.513   7.491  1.7981  0.7972  0.0677
66989SOL    HW210898  12.774  12.598   7.529  0.5987  0.0920 -1.9464
66990SOL     OW10899   0.457   9.360   1.628  0.3108  0.4264 -0.0342
66990SOL    HW110900   0.519   9.405   1.572  1.0909 -1.2816 -0.6100
66990SOL    HW210901   0.383   9.338   1.570  0.1366  0.5794  0.1299
66991SOL     OW10902  10.936   9.171   6.344  0.1727 -0.2725  0.0366
66991SOL    HW110903  10.930   9.121   6.263  0.5174  0.0900 -0.2224
66991SOL    HW210904  10.895   9.255   6.324 -0.3695 -0.4303  0.4561
66992SOL     OW10905  11.941   0.682   1.095 -0.2740 -0.5999  0.2783
66992SOL    HW110906  11.909   0.768   1.125  0.9538  0.0639 -0.2443
66992SOL    HW210907  11.862   0.632   1.078 -1.0174  0.2384  1.1256
66993SOL     OW10908   8.214  10.160   3.173  0.0587  0.3543 -0.6259
66993SOL    HW110909   8.283  10.095   3.158 -0.3183  0.1926 -1.6976
66993SOL    HW210910   8.213  10.214   3.094 -0.3598  1.0013 -0.1909
66994SOL     OW10911  12.501   9.765   9.041  0.2704 -0.0651 -0.4567
66994SOL    HW110912  12.529   9.854   9.061  1.7783 -0.4709 -0.5987
66994SOL    HW210913  12.475   9.768   8.949  2.3914 -0.1756 -1.1295
66995SOL     OW10914  10.662   9.693  10.105 -0.7169 -0.6142  0.3603
66995SOL    HW110915  10.566   9.686  10.099 -0.5397 -2.0560 -2.8383
66995SOL    HW210916  10.683   9.770  10.054 -0.1449 -0.3702  0.9609
66996SOL     OW10917   8.776   2.084   3.684  0.0239  0.1565  0.6818
66996SOL    HW110918   8.811   2.173   3.691  0.3293  0.1069 -0.0476
66996SOL    HW210919   8.853   2.027   3.689 -0.1068 -0.0339  0.5570
66997SOL     OW10920   4.895   0.032   8.285  0.0825  0.2555 -0.3668
66997SOL    HW110921   4.804   0.060   8.295  0.4851  0.8117  2.4071
66997SOL    HW210922   4.892  -0.034   8.215 -2.5832 -0.3851  0.2462
66998SOL     OW10923   0.587   3.179   4.957  0.1374 -0.4194 -0.1356
66998SOL    HW110924   0.506   3.185   4.907  0.1326 -2.0369 -0.3716
66998SOL    HW210925   0.564   3.131   5.036  0.6876 -0.1325  0.2082
66999SOL     OW10926   1.270  10.599  11.904  0.2709  1.0290  0.0850
66999SOL    HW110927   1.242  10.599  11.996  0.1211  1.7854  0.0465
66999SOL    HW210928   1.197  10.558  11.857  0.6734 -0.0598  0.3881
67000SOL     OW10929   8.036  12.280   0.445 -0.1010  0.1801 -0.0683
67000SOL    HW110930   8.125  12.273   0.479  0.0108 -1.1828 -0.5660
67000SOL    HW210931   7.990  12.206   0.485 -1.0805  0.9731  0.3302
67001SOL     OW10932   0.842   2.300  13.160 -0.6343 -0.6492 -0.7133
67001SOL    HW110933   0.854   2.374  13.219  2.1244  0.5384 -2.5696
67001SOL    HW210934   0.771   2.327  13.102 -0.3878  0.0760 -0.6912
67002SOL     OW10935   8.925   5.592   4.827 -0.1810  0.0821  0.3787
67002SOL    HW110936   8.855   5.642   4.783 -0.1496 -0.2081 -0.0132
67002SOL    HW210937   8.921   5.620   4.918  0.2969  1.3265  0.0330
67003SOL     OW10938  10.243  10.359  12.257 -0.2020 -0.3827 -0.1600
67003SOL    HW110939  10.320  10.415  12.246 -0.8985  0.2572 -2.2089
67003SOL    HW210940  10.183  10.411  12.312  0.5641 -0.6538  0.9698
67004SOL     OW10941   1.268  11.857   5.302 -0.5693 -0.2777 -0.5357
67004SOL    HW110942   1.331  11.814   5.244 -0.2562 -0.8014  0.1682
67004SOL    HW210943   1.235  11.787   5.358  0.3699  0.4535  1.0137
67005SOL     OW10944   1.731   7.442   4.864 -0.0292 -0.0997  0.4137
67005SOL    HW110945   1.676   7.366   4.884 -0.3867  0.3339  1.1012
67005SOL    HW210946   1.670   7.509   4.835  0.3127 -0.1438 -0.4437
67006SOL     OW10947   4.947   8.801  12.133 -0.1253  0.1232 -0.1447
67006SOL    HW110948   4.870   8.751  12.158  0.8504 -1.1550  0.4243
67006SOL    HW210949   4.913   8.885  12.104 -1.7316 -0.4672 -0.0521
67007SOL     OW10950   1.889   8.625   0.822  0.0374 -0.3043 -0.1921
67007SOL    HW110951   1.931   8.554   0.772  0.4570  1.1320 -2.0007
67007SOL    HW210952   1.850   8.681   0.755 -0.5178  1.0405  1.2027
67008SOL     OW10953   0.999   1.359  11.343  0.0314  0.4196 -0.0845
67008SOL    HW110954   1.053   1.428  11.304  1.0441  0.5561  1.4714
67008SOL    HW210955   0.926   1.348  11.282  1.7070  0.3472 -2.1826
67009SOL     OW10956   3.095  11.734   5.468  0.6921  0.2394  0.2497
67009SOL    HW110957   3.102  11.659   5.527  2.5466 -0.0335 -0.2539
67009SOL    HW210958   3.001  11.744   5.453  0.2483 -0.4909  2.1908
67010SOL     OW10959   2.329   5.141   5.342  0.1558 -0.1065 -0.7894
67010SOL    HW110960   2.280   5.118   5.421 -1.7760  0.4347 -1.7775
67010SOL    HW210961   2.298   5.228   5.318  0.6549 -0.2767 -2.1768
67011SOL     OW10962   8.290   4.131   4.183 -0.4642  0.1339  0.2096
67011SOL    HW110963   8.319   4.210   4.229 -1.4765  0.5951  0.0860
67011SOL    HW210964   8.360   4.068   4.197  0.1976  0.9385  0.6187
67012SOL     OW10965   0.307   3.038   8.929  0.6866  0.2422 -0.4475
67012SOL    HW110966   0.275   3.042   9.019 -1.5849  0.2508 -1.1825
67012SOL    HW210967   0.263   3.111   8.885  0.5769 -0.6532 -1.8748
67013SOL     OW10968  11.416   8.165   5.917 -0.1913  0.2891 -0.4937
67013SOL    HW110969  11.394   8.097   5.853 -0.4111  0.3513 -0.4833
67013SOL    HW210970  11.351   8.155   5.986  0.6233 -0.4293  0.2110
67014SOL     OW10971   3.316   7.902  11.198 -0.9474  0.4009 -0.3735
67014SOL    HW110972   3.274   7.937  11.119  1.2687  0.8097 -1.4691
67014SOL    HW210973   3.365   7.826  11.166 -2.1697 -1.1139  1.1685
67015SOL     OW10974   1.263   7.724   4.798 -0.2300  0.1062  0.8484
67015SOL    HW110975   1.235   7.732   4.707  1.6839  0.3792  0.2439
67015SOL    HW210976   1.247   7.810   4.836  0.3554  0.4322  0.3533
67016SOL     OW10977   1.196  11.891   3.200 -0.0435  0.5748  0.4593
67016SOL    HW110978   1.114  11.842   3.187  1.7941 -2.6343 -0.1424
67016SOL    HW210979   1.251  11.866   3.126  2.1093  1.2297  1.7402
67017SOL     OW10980   1.005   3.215  11.892 -0.6165 -0.5403  0.3429
67017SOL    HW110981   0.978   3.172  11.812  0.6507  0.0951 -0.4617
67017SOL    HW210982   0.958   3.299  11.892  2.9173  1.6961 -2.3237
67018SOL     OW10983   7.225  10.265   2.657  0.5727 -0.1116 -0.0651
67018SOL    HW110984   7.253  10.233   2.572 -1.2245 -1.1200 -0.3283
67018SOL    HW210985   7.302  10.255   2.713  2.0256  1.2560 -1.6881
67019SOL     OW10986  10.741  12.954   9.722 -0.5464  0.5191  0.8323
67019SOL    HW110987  10.742  12.995   9.809  3.4760  1.9617  0.2920
67019SOL    HW210988  10.817  12.897   9.721  0.3269  1.5648 -2.1282
67020SOL     OW10989   6.634   5.169   2.014 -0.1527 -0.4461 -0.3723
67020SOL    HW110990   6.633   5.107   2.087  1.2504 -1.1190 -0.8887
67020SOL    HW210991   6.718   5.214   2.022  0.1142 -0.6688 -1.6613
67021SOL     OW10992   1.353   2.603   2.600  0.0915 -0.0100 -0.2825
67021SOL    HW110993   1.433   2.647   2.628 -1.4259  1.8965  1.3393
67021SOL    HW210994   1.302   2.592   2.680 -1.9186  0.2380 -1.4569
67022SOL     OW10995   4.008  11.538   6.397  0.0374  0.0191  0.4623
67022SOL    HW110996   4.010  11.630   6.425 -0.8296  0.0453  0.4690
67022SOL    HW210997   3.931  11.501   6.442 -0.8090 -0.1952 -1.0761
67023SOL     OW10998   6.626   8.317   2.901  0.8372  0.3497  0.3565
67023SOL    HW110999   6.559   8.258   2.868  1.7078  0.6047 -2.0076
67023SOL    HW211000   6.709   8.274   2.881  1.4369  0.7101  1.9280
67024SOL     OW11001   6.876   1.260   4.179 -0.1060  0.2147  0.0320
67024SOL    HW111002   6.946   1.267   4.114  1.0025  0.5083  1.2070
67024SOL    HW211003   6.907   1.194   4.241 -0.1538  1.4177  1.4017
67025SOL     OW11004   3.579   9.963   8.006  0.4018  0.1390 -0.5226
67025SOL    HW111005   3.674   9.955   8.013  0.2520 -1.5041  0.0896
67025SOL    HW211006   3.548   9.963   8.097 -0.3458 -2.4560 -0.7019
67026SOL     OW11007  12.147  10.619   6.944 -0.1925 -0.6947 -0.0392
67026SOL    HW111008  12.195  10.547   6.902  1.1755  1.0439 -1.6819
67026SOL    HW211009  12.212  10.688   6.954 -1.8631  1.0215 -0.3667
67027SOL     OW11010   1.562   4.533   1.072  0.2920 -0.0558 -0.4158
67027SOL    HW111011   1.628   4.574   1.016  1.4534 -1.1782  0.0715
67027SOL    HW211012   1.613   4.478   1.132 -1.0156 -0.0103  0.7858
67028SOL     OW11013   4.254   9.672   1.375  0.0639 -0.4875  0.8122
67028SOL    HW111014   4.170   9.625   1.374 -0.3672 -0.2123 -4.1847
67028SOL    HW211015   4.230   9.763   1.395 -0.4559 -0.8298  1.7887
67029SOL     OW11016   9.563   9.368  11.500  0.1495  0.1059 -0.2182
67029SOL    HW111017   9.508   9.307  11.550 -0.2084  0.4543 -0.1780
67029SOL    HW211018   9.576   9.325  11.415  3.6195 -2.1363  1.2297
67030SOL     OW11019   2.378   7.810   5.915 -0.0606  0.3012  0.1682
67030SOL    HW111020   2.371   7.725   5.872  1.2226  0.6803 -0.8570
67030SOL    HW211021   2.466   7.840   5.895 -0.6090  2.0489  0.1890
67031SOL     OW11022   3.481  13.312   7.662 -0.4834  0.0640  0.1237
67031SOL    HW111023   3.429  13.307   7.742 -0.2686 -1.2524  0.2031
67031SOL    HW211024   3.440  13.383   7.612 -0.8941  0.6121  1.1924
67032SOL     OW11025   3.880   8.577   8.865 -0.3114  0.2428 -0.3007
67032SOL    HW111026   3.812   8.512   8.877  2.1909 -2.3277  1.1357
67032SOL    HW211027   3.897   8.611   8.953  1.6174 -0.7441 -0.2384
67033SOL     OW11028   9.492   4.914   1.433  0.3899 -0.0797  0.5465
67033SOL    HW111029   9.539   4.917   1.349 -1.5420 -0.3658 -0.6115
67033SOL    HW211030   9.477   4.821   1.449  1.5551 -0.0884  1.7276
67034SOL     OW11031  10.555   8.473  11.396  0.1403  0.1498 -0.2772
67034SOL    HW111032  10.512   8.413  11.336 -0.2794 -0.7592  0.8887
67034SOL    HW211033  10.503   8.468  11.477  2.6939 -1.5032  1.4260
67035SOL     OW11034  10.170   5.209   0.402 -0.1450 -0.0400  0.2522
67035SOL    HW111035  10.229   5.239   0.332 -1.7025  0.3595 -0.9374
67035SOL    HW211036  10.102   5.276   0.406  0.3601  0.4241  2.8071
67036SOL     OW11037   3.134   0.258   4.326 -0.2116 -0.1393  0.2358
67036SOL    HW111038   3.117   0.165   4.312 -0.6778  0.1098 -0.9889
67036SOL    HW211039   3.205   0.279   4.265  0.6574  0.0924  1.2764
67037SOL     OW11040  12.740   0.498   6.889  0.2589  0.4793 -0.4915
67037SOL    HW111041  12.825   0.453   6.891  0.3357  0.5755  1.9598
67037SOL    HW211042  12.676   0.429   6.872  0.5905 -0.1817  0.8204
67038SOL     OW11043  11.284   0.533   4.188 -0.0353 -0.2873 -0.1233
67038SOL    HW111044  11.247   0.621   4.201  0.1329 -0.1151 -0.7591
67038SOL    HW211045  11.282   0.493   4.275 -1.1467 -0.0570 -0.0248
67039SOL     OW11046   0.620   0.277   5.245  0.2281  0.1702  0.1858
67039SOL    HW111047   0.706   0.262   5.207 -0.0686  2.2631 -1.5030
67039SOL    HW211048   0.560   0.225   5.191  0.3102 -0.7078  0.9085
67040SOL     OW11049   8.804   8.425   0.353 -0.1540  0.0643  0.5217
67040SOL    HW111050   8.765   8.388   0.432  1.2103 -2.2510  0.1947
67040SOL    HW211051   8.756   8.384   0.281 -1.2680  2.0162  0.0769
67041SOL     OW11052   1.673   8.709   9.085 -0.3592  0.6697  0.0581
67041SOL    HW111053   1.756   8.668   9.106 -0.6031 -0.8496 -1.6371
67041SOL    HW211054   1.664   8.781   9.147 -0.2610 -2.2522  3.7942
67042SOL     OW11055  11.951   6.449   1.371 -0.5131 -0.2422  0.2538
67042SOL    HW111056  11.873   6.398   1.392 -0.6837 -0.2481 -0.3736
67042SOL    HW211057  12.007   6.439   1.448  0.1142 -2.6490 -0.4055
67043SOL     OW11058   8.399   1.035   3.158 -0.0545  0.2905 -0.1858
67043SOL    HW111059   8.456   1.074   3.225 -0.1632 -1.1199  0.7859
67043SOL    HW211060   8.418   1.084   3.078  1.0642  1.1524  0.5789
67044SOL     OW11061   7.712  12.870   9.607 -0.3546 -0.7442 -0.5253
67044SOL    HW111062   7.724  12.807   9.536 -0.9436 -0.8229 -0.5612
67044SOL    HW211063   7.729  12.955   9.567  1.5633 -0.9347 -0.2131
67045SOL     OW11064   4.585  11.640  12.479 -0.0956 -0.0313  0.1090
67045SOL    HW111065   4.574  11.555  12.522 -0.0289 -1.2206 -2.0527
67045SOL    HW211066   4.650  11.623  12.411  0.3717  1.9363  0.0237
67046SOL     OW11067   2.291  12.515   5.721 -0.3460  0.8488 -0.1070
67046SOL    HW111068   2.328  12.472   5.798 -1.2333 -0.4132 -0.3447
67046SOL    HW211069   2.332  12.470   5.647 -0.3224  1.3053 -0.3749
67047SOL     OW11070   4.673   7.804  12.172 -0.0917 -0.3437  0.3403
67047SOL    HW111071   4.651   7.745  12.101  0.4109  0.6424 -0.6555
67047SOL    HW211072   4.733   7.753  12.228 -1.3285 -1.4824  0.6726
67048SOL     OW11073   3.291   1.873   4.340 -0.2386  0.0692  0.4556
67048SOL    HW111074   3.288   1.951   4.395 -1.2140 -0.3760  1.0737
67048SOL    HW211075   3.288   1.907   4.250 -1.1552  0.7367  0.7219
67049SOL     OW11076   9.618   8.489   1.357 -0.0312 -0.5555  0.2173
67049SOL    HW111077   9.700   8.453   1.392  1.2521 -0.7466 -2.7034
67049SOL    HW211078   9.646   8.552   1.291 -2.2856  0.2857  0.0035
67050SOL     OW11079   8.259   0.137   9.281 -0.3027  0.4118  0.4926
67050SOL    HW111080   8.237   0.058   9.231 -0.8968  1.3249 -0.7191
67050SOL    HW211081   8.244   0.209   9.220  0.0973  1.4835  1.6308
67051SOL     OW11082   1.189   4.723   3.928 -0.3328  0.2862  0.4081
67051SOL    HW111083   1.126   4.739   3.998 -0.6115  0.2332  0.1735
67051SOL    HW211084   1.266   4.775   3.952 -0.9771  1.4604 -0.0086
67052SOL     OW11085  11.213   3.662   0.158 -0.2293 -0.2542 -0.1408
67052SOL    HW111086  11.285   3.687   0.102 -0.8833  1.5728 -0.2215
67052SOL    HW211087  11.240   3.578   0.196  1.2907 -0.2938 -1.2360
67053SOL     OW11088   1.461   8.360   3.841  0.0079 -0.0318 -0.3713
67053SOL    HW111089   1.419   8.279   3.812  0.9077 -0.4000 -0.6819
67053SOL    HW211090   1.510   8.336   3.919  3.2468 -0.7083 -2.4529
67054SOL     OW11091   8.165   7.763   6.869 -0.2755  0.1625  0.1759
67054SOL    HW111092   8.228   7.720   6.927  0.1185  1.7649  1.0012
67054SOL    HW211093   8.093   7.701   6.862 -0.0616 -0.3373  1.9278
67055SOL     OW11094   1.908  11.659   8.672 -0.1699  0.0259 -0.0395
67055SOL    HW111095   1.981  11.631   8.616  0.0933 -0.4429  0.5244
67055SOL    HW211096   1.835  11.603   8.645  0.3459 -1.2315  1.0619
67056SOL     OW11097  11.789  10.159  11.101 -0.2500 -0.2683 -0.2346
67056SOL    HW111098  11.746  10.243  11.117  0.5135  0.2289 -0.7229
67056SOL    HW211099  11.718  10.095  11.102 -0.5817 -0.0656  3.0714
67057SOL     OW11100   5.207   0.076   9.766 -0.1201 -0.1078 -0.0096
67057SOL    HW111101   5.289   0.115   9.796 -0.4962  0.1020  0.7907
67057SOL    HW211102   5.174   0.029   9.842 -0.2243 -1.0785 -0.6390
67058SOL     OW11103   7.759   4.012   0.254  0.1759  0.3247 -0.4832
67058SOL    HW111104   7.727   4.009   0.163 -3.5941  2.1115  0.5857
67058SOL    HW211105   7.727   3.931   0.293 -0.9722  0.9774 -0.0265
67059SOL     OW11106   4.067   5.692   9.341  0.2617  0.2286 -0.0540
67059SOL    HW111107   4.043   5.614   9.292  0.1859 -0.7301  1.4334
67059SOL    HW211108   3.990   5.713   9.393  0.4448  1.0158 -0.0912
67060SOL     OW11109   7.906  10.858  10.492 -0.4744 -0.1230  0.3044
67060SOL    HW111110   7.972  10.788  10.489 -0.1660  0.1692  0.3012
67060SOL    HW211111   7.954  10.937  10.470 -1.1589 -0.1420 -1.3580
67061SOL     OW11112   4.399   5.243   6.552 -0.4964  0.2097 -0.2295
67061SOL    HW111113   4.415   5.245   6.646  0.4558 -1.3360 -0.3206
67061SOL    HW211114   4.476   5.198   6.516 -1.7378 -0.9519 -1.5417
67062SOL     OW11115   5.461   3.363   8.636  0.0830  0.3755  0.1558
67062SOL    HW111116   5.528   3.421   8.600  1.5827  0.2634  2.5300
67062SOL    HW211117   5.379   3.411   8.627  0.4234  0.5810 -2.6868
67063SOL     OW11118   3.473  12.550  13.130  0.5668  0.3440  0.1180
67063SOL    HW111119   3.475  12.514  13.041 -0.0429  1.4198 -0.3405
67063SOL    HW211120   3.565  12.563  13.152  0.7502 -0.4547 -0.1333
67064SOL     OW11121   8.265   5.309   3.025  0.2723 -0.2691 -0.1654
67064SOL    HW111122   8.172   5.330   3.016  0.4035  0.3564 -0.1308
67064SOL    HW211123   8.267   5.223   3.067 -0.3170 -1.4945 -2.4631
67065SOL     OW11124  11.669  10.465   0.003 -0.6578 -0.0507 -0.4961
67065SOL    HW111125  11.756  10.479   0.041 -1.5598  0.9025  1.3893
67065SOL    HW211126  11.649  10.548  -0.041 -1.2236  0.3381  0.4550
67066SOL     OW11127   8.185  11.455   5.305  0.3147 -0.0489 -0.3171
67066SOL    HW111128   8.132  11.454   5.224  0.4139 -0.4995 -0.3755
67066SOL    HW211129   8.126  11.420   5.372  0.4428 -0.2773 -0.3234
67067SOL     OW11130   1.373   8.469  10.861  0.7144  0.0533 -0.1830
67067SOL    HW111131   1.441   8.403  10.849 -1.3731 -2.2461 -0.0656
67067SOL    HW211132   1.295   8.431  10.822 -0.7788  2.1287  0.6059
67068SOL     OW11133   9.440  12.864  12.252  0.5463 -0.2165 -0.0289
67068SOL    HW111134   9.398  12.802  12.194 -1.3372  0.7544  0.2267
67068SOL    HW211135   9.466  12.937  12.195 -0.8122  0.4941  0.2354
67069SOL     OW11136   6.922   9.007  12.415 -0.2546 -1.1194 -0.2159
67069SOL    HW111137   7.009   9.010  12.456  0.1845  0.4530 -1.1558
67069SOL    HW211138   6.898   8.915  12.416  1.4177 -1.5841  0.0999
67070SOL     OW11139   6.087   9.572  10.960 -0.4535 -0.1548 -0.4055
67070SOL    HW111140   6.118   9.604  11.045 -0.1208  0.2282 -0.6682
67070SOL    HW211141   6.164   9.574  10.903 -1.0347  1.2265 -1.1846
67071SOL     OW11142  10.146   2.064  10.797  0.0162  0.1916  0.5172
67071SOL    HW111143  10.088   2.042  10.869 -2.3009  3.0963 -0.2503
67071SOL    HW211144  10.228   2.089  10.839 -0.6295 -0.0499  1.9802
67072SOL     OW11145   3.552   4.297  10.797 -0.3901 -0.0845 -0.0081
67072SOL    HW111146   3.563   4.301  10.892  0.0218  1.9913 -0.0920
67072SOL    HW211147   3.458   4.296  10.784 -0.5298  2.0648  0.4361
67073SOL     OW11148  12.736   5.090   2.349  0.2995  0.3264 -0.1241
67073SOL    HW111149  12.658   5.071   2.401 -0.1299  1.2475 -0.4034
67073SOL    HW211150  12.788   5.148   2.405  1.2722 -1.0467  0.4566
67074SOL     OW11151   3.872   3.198   0.521  0.4235 -0.0350  0.2931
67074SOL    HW111152   3.859   3.252   0.444 -0.6853  0.2043  0.6319
67074SOL    HW211153   3.788   3.154   0.534  0.7213 -0.3770  1.1258
67075SOL     OW11154  11.226  11.142  10.447 -0.5612 -0.5539  0.0695
67075SOL    HW111155  11.152  11.177  10.397 -0.8598  0.3022  1.0810
67075SOL    HW211156  11.297  11.203  10.430 -0.6167 -0.3532  0.5608
67076SOL     OW11157  12.481  11.932   5.639  0.8189  0.6838 -0.4600
67076SOL    HW111158  12.553  11.913   5.579  0.8877  1.7838 -0.7502
67076SOL    HW211159  12.494  12.023   5.664 -0.5947  0.9781 -0.6898
67077SOL     OW11160   6.068  13.000   3.819 -0.2575  0.5535  0.3900
67077SOL    HW111161   6.066  13.091   3.789  1.3040  0.2326 -0.8121
67077SOL    HW211162   6.067  13.007   3.915  1.1643  1.9338  0.3574
67078SOL     OW11163   8.660   9.218   3.369 -0.0015  0.0536  0.0293
67078SOL    HW111164   8.615   9.154   3.422  1.7643  0.9734  2.8518
67078SOL    HW211165   8.738   9.173   3.337 -1.6100 -0.8705 -3.0421
67079SOL     OW11166   4.176   4.158   4.055 -0.1427 -0.1512 -0.6509
67079SOL    HW111167   4.115   4.223   4.021  0.1366  0.4249 -0.0695
67079SOL    HW211168   4.122   4.099   4.108 -0.0438  1.0542  0.8586
67080SOL     OW11169   1.906   7.451   9.134  0.1265 -0.2446  0.6279
67080SOL    HW111170   1.823   7.496   9.123  0.1159 -0.3725  0.1331
67080SOL    HW211171   1.951   7.498   9.203 -0.1291  0.1646  0.5174
67081SOL     OW11172   5.558   6.227   2.129  0.4430  0.0690  0.4100
67081SOL    HW111173   5.629   6.269   2.178  0.8825  0.5746 -0.6248
67081SOL    HW211174   5.573   6.253   2.038 -1.2361  0.4201  0.2034
67082SOL     OW11175   4.683   2.691   3.826  0.1945 -0.6083 -0.1308
67082SOL    HW111176   4.659   2.706   3.918 -0.2278  0.9847 -0.4714
67082SOL    HW211177   4.765   2.642   3.831  0.8919  0.5997  1.1447
67083SOL     OW11178   3.745   7.930   1.408 -0.5041 -0.5101 -0.7141
67083SOL    HW111179   3.755   7.838   1.432  0.4492 -0.4354 -0.8101
67083SOL    HW211180   3.655   7.936   1.374 -1.2697 -0.9776  1.1095
67084SOL     OW11181  10.361   3.573  12.192 -0.5231 -0.3629  0.2170
67084SOL    HW111182  10.371   3.582  12.287 -0.5678 -1.1710  0.3001
67084SOL    HW211183  10.447   3.594  12.157 -0.8689  1.3683  0.3262
67085SOL     OW11184   9.162   9.048   9.868 -0.8328  0.2433 -0.6928
67085SOL    HW111185   9.192   9.025   9.780 -1.9693  0.1304 -1.0742
67085SOL    HW211186   9.194   8.977   9.924  0.1365  0.4623 -0.9620
67086SOL     OW11187   4.543   5.191  12.112 -0.3849 -0.5530 -0.2481
67086SOL    HW111188   4.567   5.110  12.066 -0.4601 -1.1387  0.7042
67086SOL    HW211189   4.626   5.235  12.129 -0.4027 -0.0211 -1.4747
67087SOL     OW11190   6.070   1.243   2.714 -0.0845 -0.1538  0.0648
67087SOL    HW111191   6.155   1.272   2.681 -0.1746  0.9069  0.7125
67087SOL    HW211192   6.012   1.317   2.700 -0.8067 -0.7113  0.0257
67088SOL     OW11193   0.311   1.174   7.786 -0.3192 -0.2242 -0.1919
67088SOL    HW111194   0.329   1.225   7.865 -1.6104 -1.0072  0.6472
67088SOL    HW211195   0.219   1.193   7.766 -0.0064 -0.0141 -1.5403
67089SOL     OW11196   9.396   6.495   9.851  0.3780 -0.6027 -0.2759
67089SOL    HW111197   9.456   6.420   9.855 -0.2367 -1.0715  0.6966
67089SOL    HW211198   9.346   6.489   9.933 -0.7942 -0.0574 -0.9312
67090SOL     OW11199   5.127   1.196   9.102  0.0500 -0.0927 -0.0661
67090SOL    HW111200   5.065   1.201   9.030  1.2213  0.6448 -1.0712
67090SOL    HW211201   5.197   1.140   9.068 -0.3218 -1.4116  1.2605
67091SOL     OW11202  10.089   7.051   3.193  0.5967  0.3173  0.4804
67091SOL    HW111203  10.035   7.073   3.117 -1.5438 -0.9226  1.5251
67091SOL    HW211204  10.082   7.127   3.251 -2.3367 -0.7293  1.7326
67092SOL     OW11205   5.559   6.909   4.873  0.2623  0.0170  0.2481
67092SOL    HW111206   5.596   6.996   4.891  0.7603 -0.0834 -0.2420
67092SOL    HW211207   5.485   6.926   4.815  0.2067  0.1351  0.3531
67093SOL     OW11208   0.522   9.921   0.090 -0.5607 -0.1690 -0.2108
67093SOL    HW111209   0.447   9.865   0.104  0.0350 -1.2705 -1.2335
67093SOL    HW211210   0.517   9.987   0.159 -1.0704 -1.6897  1.2472
67094SOL     OW11211  12.944   0.320  10.956 -0.8768 -0.1003  0.1666
67094SOL    HW111212  12.868   0.263  10.949 -0.7521 -0.0974 -1.6968
67094SOL    HW211213  12.985   0.316  10.869 -0.5793  2.4235  0.1305
67095SOL     OW11214   0.604  11.359  12.523 -0.3005 -0.2491  0.0108
67095SOL    HW111215   0.601  11.454  12.527  0.7488 -0.1981 -0.0458
67095SOL    HW211216   0.617  11.331  12.613 -3.0339 -0.4972  0.4057
67096SOL     OW11217   6.437   5.877  10.031  0.0931 -0.5521 -0.2924
67096SOL    HW111218   6.490   5.862  10.109  0.0627  0.3080 -0.0881
67096SOL    HW211219   6.497   5.863   9.958  2.0131  4.4642 -0.1052
67097SOL     OW11220  13.009   4.975   1.776 -0.3004 -0.2367  0.1020
67097SOL    HW111221  13.056   5.031   1.838 -0.1587  0.9239 -1.0208
67097SOL    HW211222  13.053   4.989   1.692 -0.6540 -1.5724 -0.3283
67098SOL     OW11223  12.347  11.375   8.774 -0.0411  0.4742  0.0686
67098SOL    HW111224  12.257  11.379   8.743  0.0489 -0.4436 -0.3386
67098SOL    HW211225  12.399  11.350   8.697  0.2635 -1.2101  0.7733
67099SOL     OW11226   1.286   7.437   1.980 -0.4599 -0.0800  0.2728
67099SOL    HW111227   1.286   7.438   2.075  0.0684 -0.2479  0.2777
67099SOL    HW211228   1.289   7.344   1.957  0.2940 -0.0155  0.0987
67100SOL     OW11229   9.241   4.279   2.700 -0.5865 -0.6735  0.2908
67100SOL    HW111230   9.191   4.293   2.781 -0.3238 -0.2178  0.3789
67100SOL    HW211231   9.282   4.363   2.683 -0.2717 -0.8982 -0.0712
67101SOL     OW11232   6.610   2.873   3.990  0.5105 -0.4672 -0.3899
67101SOL    HW111233   6.684   2.877   3.929  1.6768  2.3501  0.9822
67101SOL    HW211234   6.533   2.880   3.934  1.3643 -1.3093 -1.7368
67102SOL     OW11235   3.136   6.137   9.297  0.1821  0.6502 -0.5360
67102SOL    HW111236   3.058   6.114   9.246  0.0705  2.8889 -1.5006
67102SOL    HW211237   3.164   6.055   9.337 -1.3189 -0.6633 -2.0352
67103SOL     OW11238   5.371   6.665  12.943 -0.0922 -0.7803  0.0453
67103SOL    HW111239   5.284   6.696  12.918 -0.1492 -0.8198  0.1947
67103SOL    HW211240   5.381   6.582  12.897 -0.2491 -0.9159  0.2532
67104SOL     OW11241   7.285   3.975  11.383 -0.0332 -0.2699  0.3233
67104SOL    HW111242   7.308   4.059  11.343 -0.9337 -0.3357 -0.3775
67104SOL    HW211243   7.353   3.960  11.448  1.6299 -0.2635 -1.3393
67105SOL     OW11244  12.028   1.890   8.284 -0.2811  0.1159 -0.6841
67105SOL    HW111245  12.106   1.943   8.298 -0.0422  0.0878 -1.7855
67105SOL    HW211246  11.978   1.897   8.365 -0.3093  2.1046 -0.8229
67106SOL     OW11247  11.627   6.550  11.654 -0.5862  0.3160 -0.6593
67106SOL    HW111248  11.716   6.584  11.640 -0.3372 -0.9525 -2.6351
67106SOL    HW211249  11.582   6.567  11.572 -1.9276  0.1773  0.0220
67107SOL     OW11250   0.834  11.560  11.738  0.0435  0.6742  0.3038
67107SOL    HW111251   0.754  11.532  11.694 -0.6107  0.7021  1.4217
67107SOL    HW211252   0.902  11.556  11.671 -0.8123  0.2291 -0.5544
67108SOL     OW11253   7.826  12.530   8.183 -0.2814  0.0184  0.0197
67108SOL    HW111254   7.801  12.557   8.271 -1.4356  0.8044 -0.5194
67108SOL    HW211255   7.789  12.597   8.125  0.8601 -0.2211 -1.0395
67109SOL     OW11256   7.103   4.784  11.680  0.4121 -0.1233 -0.5524
67109SOL    HW111257   7.120   4.837  11.758 -0.1952 -1.7461  0.7321
67109SOL    HW211258   7.177   4.724  11.675  0.0343 -0.5808 -0.7373
67110SOL     OW11259  12.109  10.986   3.885  0.1685 -0.6242  0.4823
67110SOL    HW111260  12.182  10.945   3.931  0.7989 -0.4070 -0.3016
67110SOL    HW211261  12.149  11.030   3.811 -0.6053  0.5914  0.7507
67111SOL     OW11262   0.245  12.871   9.350 -0.0821  0.0898  0.5725
67111SOL    HW111263   0.305  12.927   9.301 -1.0450  0.5046 -0.1446
67111SOL    HW211264   0.237  12.791   9.297  1.1803 -0.7150  1.5240
67112SOL     OW11265  10.167   4.582  10.106 -0.6695  0.0342  0.5461
67112SOL    HW111266  10.085   4.630  10.104 -1.0049 -0.2023  3.6079
67112SOL    HW211267  10.151   4.509  10.166  1.5797 -0.3628  0.7666
67113SOL     OW11268   5.782   8.814   7.486 -0.4215  0.2553  0.3151
67113SOL    HW111269   5.877   8.825   7.479 -0.3400  1.5737  2.3962
67113SOL    HW211270   5.770   8.737   7.540 -0.6325 -1.0119 -1.4609
67114SOL     OW11271  11.902   4.641   3.902  0.4815 -0.6494  0.1164
67114SOL    HW111272  11.829   4.685   3.946  0.0412 -1.0073 -0.2477
67114SOL    HW211273  11.960   4.712   3.875  0.5690 -0.3979  0.9301
67115SOL     OW11274   2.091   3.204   4.614 -0.5555  0.2016 -0.1377
67115SOL    HW111275   2.130   3.206   4.701 -0.1166  0.1852 -0.3291
67115SOL    HW211276   2.125   3.123   4.575 -1.7121 -0.4197  0.1106
67116SOL     OW11277   9.402   0.304  12.419 -0.4128 -0.2455 -0.1744
67116SOL    HW111278   9.488   0.264  12.411 -0.3466 -0.0833 -0.2696
67116SOL    HW211279   9.414   0.394  12.389 -1.3042 -1.0538 -3.2579
67117SOL     OW11280  12.243  13.307   6.336 -0.3963 -0.3402 -0.3707
67117SOL    HW111281  12.188  13.370   6.291 -0.4677  0.0710  0.2811
67117SOL    HW211282  12.278  13.354   6.411 -0.4592 -1.0699  0.1333
67118SOL     OW11283  11.499  12.282   1.699 -0.1295 -0.4012 -0.2776
67118SOL    HW111284  11.409  12.293   1.729 -0.1353 -1.7916  0.2886
67118SOL    HW211285  11.550  12.274   1.780  0.5633  0.7035 -0.5891
67119SOL     OW11286  12.835   7.212   3.262  0.1060  0.2489  0.1785
67119SOL    HW111287  12.756   7.160   3.277 -0.2851  0.8854  0.3482
67119SOL    HW211288  12.886   7.200   3.343 -0.2705  0.6308  0.4765
67120SOL     OW11289  10.406   6.805   5.206  0.3835  0.1488 -0.3664
67120SOL    HW111290  10.340   6.736   5.205 -0.7586  1.1998 -0.0278
67120SOL    HW211291  10.361   6.882   5.170  0.4384  1.7020  2.5650
67121SOL     OW11292   2.188  12.791   0.750 -0.0178  0.3633  0.0865
67121SOL    HW111293   2.120  12.832   0.696 -0.9887 -1.0944  0.1421
67121SOL    HW211294   2.146  12.777   0.835  0.2143 -0.8837  0.0121
67122SOL     OW11295   3.883   0.976   6.269 -0.3620 -0.0700 -0.6160
67122SOL    HW111296   3.887   1.035   6.194 -1.2350 -3.6085 -3.7623
67122SOL    HW211297   3.970   0.937   6.275 -0.2780  0.2307  0.2898
67123SOL     OW11298   4.411   4.306  12.282  0.1510 -0.0836  0.4384
67123SOL    HW111299   4.317   4.322  12.292 -0.0995 -0.7006 -0.7244
67123SOL    HW211300   4.445   4.388  12.248 -0.4249 -0.6418 -1.5889
67124SOL     OW11301  12.162   8.175   6.544 -0.6310  0.4045  0.0574
67124SOL    HW111302  12.174   8.119   6.467  0.4742  0.4447  0.1809
67124SOL    HW211303  12.079   8.146   6.582 -0.7281 -0.2443 -0.6250
67125SOL     OW11304   1.088  12.688   6.498  0.8750 -0.0910 -0.4848
67125SOL    HW111305   1.101  12.662   6.589 -1.4227  0.9907  0.2440
67125SOL    HW211306   1.095  12.607   6.448  0.4682 -0.9996  0.8870
67126SOL     OW11307   8.791   5.963  10.353  0.3473 -0.0506  0.4785
67126SOL    HW111308   8.741   6.031  10.400 -1.5902 -0.4065 -0.9358
67126SOL    HW211309   8.816   5.902  10.422 -0.2833  0.6864  1.4104
67127SOL     OW11310   0.249   1.977   2.056 -0.6567 -0.2484 -0.1622
67127SOL    HW111311   0.229   1.985   1.963  3.3847 -0.9581 -1.3182
67127SOL    HW211312   0.260   2.067   2.086  0.9694 -0.0268 -1.2694
67128SOL     OW11313   5.452  10.575   3.321  0.7938 -0.1984 -0.5251
67128SOL    HW111314   5.536  10.618   3.303  1.5283 -1.5596 -0.5268
67128SOL    HW211315   5.387  10.643   3.306  1.8612  0.7589 -1.0483
67129SOL     OW11316   7.162   4.254  12.584 -0.4324 -0.7561  0.1624
67129SOL    HW111317   7.081   4.304  12.573  0.2201  0.1448 -0.6671
67129SOL    HW211318   7.138   4.164  12.561 -0.9108 -0.2704 -1.3625
67130SOL     OW11319   4.014   1.783  10.851 -0.0344  0.4440  0.4499
67130SOL    HW111320   4.045   1.764  10.762 -0.3055  1.7648  0.0560
67130SOL    HW211321   3.922   1.804  10.840  0.2804  2.1144  0.8149
67131SOL     OW11322   8.753  11.324  10.467 -0.2863 -0.4952  0.0758
67131SOL    HW111323   8.710  11.247  10.505 -1.5207  0.1998  0.1110
67131SOL    HW211324   8.686  11.366  10.413  0.9741 -0.6004 -1.6864
67132SOL     OW11325   8.090  10.109   3.825  0.1921 -0.4761 -0.1396
67132SOL    HW111326   8.129  10.051   3.759  1.8987  0.0863  0.3175
67132SOL    HW211327   8.141  10.190   3.818  1.4280 -0.8860  2.8321
67133SOL     OW11328   1.682   7.093   8.643  0.0898 -0.1126 -0.7504
67133SOL    HW111329   1.732   7.173   8.628  0.6956 -0.0550  1.2498
67133SOL    HW211330   1.745   7.031   8.681 -1.3683  0.2539  2.6818
67134SOL     OW11331   1.468   1.963   3.470 -0.4498 -0.1567  0.7288
67134SOL    HW111332   1.458   2.046   3.517 -3.7597 -0.1992  0.3665
67134SOL    HW211333   1.431   1.897   3.528 -0.0118 -1.0139  0.0645
67135SOL     OW11334  13.152  10.772   5.147  0.9377  0.5332  0.2686
67135SOL    HW111335  13.125  10.698   5.092  0.2363  0.4631  0.6892
67135SOL    HW211336  13.075  10.829   5.150  1.2165  0.8993  0.5721
67136SOL     OW11337   4.891   2.359   2.354 -0.0872  0.4875  0.0493
67136SOL    HW111338   4.931   2.359   2.441 -1.3121 -0.2446  0.6397
67136SOL    HW211339   4.890   2.452   2.328  0.6456  0.6670  0.6452
67137SOL     OW11340   0.764   3.446   9.105 -0.5258 -0.4771  0.0205
67137SOL    HW111341   0.702   3.406   9.165  0.8408 -1.2918  0.9358
67137SOL    HW211342   0.786   3.530   9.146 -0.1735 -0.6894  0.2651
67138SOL     OW11343   2.691  12.560   8.919 -0.7104 -0.2047 -0.1636
67138SOL    HW111344   2.675  12.500   8.991  0.4250  0.7766  0.9617
67138SOL    HW211345   2.614  12.617   8.916 -1.5469 -1.3357 -0.8907
67139SOL     OW11346   6.931   2.318  11.488 -0.8696  0.1045  0.4761
67139SOL    HW111347   7.017   2.277  11.477 -0.6127  0.9161 -0.7039
67139SOL    HW211348   6.879   2.285  11.415 -1.3075  0.2501  0.7196
67140SOL     OW11349   1.561   2.691  13.171 -0.0621 -0.3762 -0.0263
67140SOL    HW111350   1.653   2.712  13.160 -0.2031 -0.1961 -0.9726
67140SOL    HW211351   1.548   2.613  13.116 -0.6320  0.0428 -0.4915
67141SOL     OW11352   6.750  10.693  11.852  0.6439  0.1184 -0.6786
67141SOL    HW111353   6.768  10.609  11.892 -0.1550 -0.2580 -1.0748
67141SOL    HW211354   6.697  10.672  11.775 -2.4116  1.1733  0.9682
67142SOL     OW11355  12.419   8.232   5.301 -0.0011  0.0463  0.0847
67142SOL    HW111356  12.360   8.194   5.236  1.3511 -2.1919  0.0564
67142SOL    HW211357  12.503   8.188   5.285  0.7271  0.4602  2.4481
67143SOL     OW11358   5.245   1.034   3.848  0.4991  0.4988  0.0151
67143SOL    HW111359   5.314   0.976   3.818  0.9827  1.2286 -0.3080
67143SOL    HW211360   5.265   1.050   3.940  1.1183  1.1994 -0.2356
67144SOL     OW11361  13.163  10.147   9.220 -0.6880  0.1656  0.0522
67144SOL    HW111362  13.133  10.133   9.130  0.0465 -0.5114 -0.0957
67144SOL    HW211363  13.255  10.121   9.219 -0.9054 -0.7285  1.2061
67145SOL     OW11364  12.257  10.751   7.486  0.4639 -0.0699  0.1783
67145SOL    HW111365  12.219  10.703   7.412  0.6204  0.7169 -0.4274
67145SOL    HW211366  12.293  10.830   7.446  0.4065  0.4407  1.1327
67146SOL     OW11367   1.307   1.645   0.254  0.0730 -0.2177 -0.8627
67146SOL    HW111368   1.218   1.614   0.237  0.7077 -3.7617  1.1820
67146SOL    HW211369   1.358   1.611   0.181  0.0474  0.2862 -1.1201
67147SOL     OW11370   4.364   4.717   6.815 -0.1644  0.6400 -0.0577
67147SOL    HW111371   4.280   4.681   6.845  0.5643 -1.3062 -0.1518
67147SOL    HW211372   4.392   4.655   6.747  0.9810  1.7051 -0.5683
67148SOL     OW11373   1.623  11.722   8.876  1.1505 -0.4832 -0.4221
67148SOL    HW111374   1.589  11.691   8.960 -0.9863  0.8127 -0.7341
67148SOL    HW211375   1.620  11.645   8.818 -3.3927 -0.1369 -1.0104
67149SOL     OW11376   3.764   6.482   0.499  0.4779 -0.1123 -0.4842
67149SOL    HW111377   3.825   6.551   0.474 -0.3544  0.2509 -1.5990
67149SOL    HW211378   3.749   6.433   0.419 -0.9624  0.0340 -0.3357
67150SOL     OW11379   5.893   2.024  10.219 -0.0450 -0.1234  0.2927
67150SOL    HW111380   5.926   2.065  10.139  0.4049  0.4019  0.7418
67150SOL    HW211381   5.955   2.050  10.287 -1.8364  1.6216  1.3413
67151SOL     OW11382   4.089   0.344   8.431  0.2856 -0.1514  0.5813
67151SOL    HW111383   4.025   0.377   8.494 -0.3008 -2.2598  1.1586
67151SOL    HW211384   4.037   0.311   8.358  0.5734 -2.4204  1.3090
67152SOL     OW11385   7.425   8.712  12.130 -0.0481  0.5240 -0.2879
67152SOL    HW111386   7.365   8.638  12.140 -0.0712  0.6335  0.4044
67152SOL    HW211387   7.405   8.769  12.204  1.5170  0.1414  0.4660
67153SOL     OW11388   4.257   8.704   6.973  0.4164 -0.1540  0.3836
67153SOL    HW111389   4.172   8.660   6.973  0.2751  0.0364  2.4150
67153SOL    HW211390   4.298   8.677   7.055  1.3276  1.6338  0.5662
67154SOL     OW11391   1.196   1.755   5.432  0.1512  0.0283  0.6480
67154SOL    HW111392   1.291   1.765   5.425  0.2626 -0.8621  0.7927
67154SOL    HW211393   1.163   1.845   5.430  0.9715  0.3378  0.3072
67155SOL     OW11394   8.047   4.916   1.217  0.4970  0.1005 -0.0327
67155SOL    HW111395   8.100   4.962   1.151 -1.2937  0.5992 -1.1750
67155SOL    HW211396   8.111   4.867   1.268  2.0161  0.2458 -1.6973
67156SOL     OW11397   9.029  10.485   4.777 -0.2308  0.3126 -0.3663
67156SOL    HW111398   8.971  10.534   4.835 -2.9024 -1.8793 -0.9717
67156SOL    HW211399   9.108  10.470   4.829 -2.2070 -0.9418  2.5332
67157SOL     OW11400  11.647   9.607   0.161 -0.3867  0.5943  0.2030
67157SOL    HW111401  11.721   9.636   0.107 -1.1666  1.5875 -0.3742
67157SOL    HW211402  11.680   9.608   0.250  1.1242 -1.6469 -0.2337
67158SOL     OW11403  11.556   8.807   1.873 -0.6865 -0.6301 -0.5692
67158SOL    HW111404  11.463   8.823   1.890 -1.0759 -1.8361 -1.4696
67158SOL    HW211405  11.571   8.717   1.901 -0.7681 -1.8382 -4.0236
67159SOL     OW11406  12.668   5.815   0.330 -0.4184 -0.0207 -0.5443
67159SOL    HW111407  12.585   5.843   0.369 -1.4038 -2.6905 -0.5094
67159SOL    HW211408  12.644   5.746   0.268  1.7903 -1.3226 -0.0871
67160SOL     OW11409   7.555   7.256  10.210  0.9275  0.3738  0.3545
67160SOL    HW111410   7.621   7.187  10.213 -0.3912 -0.9466  0.3674
67160SOL    HW211411   7.536   7.275  10.302 -1.0006 -1.6102  0.4453
67161SOL     OW11412   9.697   7.358   7.801  0.0902 -0.1139  0.0911
67161SOL    HW111413   9.644   7.436   7.783  0.9601  0.3974 -0.3111
67161SOL    HW211414   9.765   7.388   7.860 -0.9195 -1.1055  1.8410
67162SOL     OW11415   4.575   5.229   1.394  0.2210 -0.3152  0.2199
67162SOL    HW111416   4.615   5.235   1.481 -1.4584 -1.8997  1.1815
67162SOL    HW211417   4.501   5.169   1.406  0.5265 -1.3963 -2.5261
67163SOL     OW11418   3.276   1.904   4.064  0.0623  0.7477  0.5754
67163SOL    HW111419   3.201   1.963   4.058 -0.7510 -0.1604  1.2494
67163SOL    HW211420   3.251   1.828   4.011  0.2271  0.1829  1.2761
67164SOL     OW11421   5.934   1.812   6.143 -0.2867  0.4846 -0.1462
67164SOL    HW111422   5.898   1.821   6.055 -0.5587 -0.4588 -0.1514
67164SOL    HW211423   5.917   1.896   6.185 -0.3615  0.8668 -0.9169
67165SOL     OW11424   3.904   1.094   1.434  0.6074 -0.4966 -0.3740
67165SOL    HW111425   3.968   1.102   1.504  0.9859  1.0024 -0.8579
67165SOL    HW211426   3.820   1.091   1.479  0.9415 -1.1915  0.2114
67166SOL     OW11427   8.558   0.951   1.235 -0.0483  0.0123  0.4710
67166SOL    HW111428   8.518   0.967   1.149  0.1290  0.2336  0.4271
67166SOL    HW211429   8.626   1.019   1.242  0.7273 -0.7219  0.2839
67167SOL     OW11430  12.337   7.189   1.822 -0.1305  0.6936  0.0603
67167SOL    HW111431  12.401   7.236   1.876  1.1498 -0.8933  0.0065
67167SOL    HW211432  12.368   7.098   1.821 -2.7001 -0.2724  0.4676
67168SOL     OW11433   8.029  12.235   5.531 -0.3728  0.6489 -0.5235
67168SOL    HW111434   8.052  12.154   5.576 -3.7909  0.0322  0.3760
67168SOL    HW211435   8.046  12.216   5.438 -1.7608 -1.4602 -0.4279
67169SOL     OW11436   9.545  13.131  10.979  0.2757 -0.1175  0.6689
67169SOL    HW111437   9.473  13.151  11.038  0.7464  1.6845  0.6908
67169SOL    HW211438   9.610  13.198  10.997  0.4778  0.4452 -1.8043
67170SOL     OW11439   6.680  10.800  10.308 -0.0948  0.6633 -0.7091
67170SOL    HW111440   6.596  10.819  10.348  0.9349  1.4034  1.2072
67170SOL    HW211441   6.732  10.760  10.378  1.1112  0.0655 -1.8902
67171SOL     OW11442  10.356   1.058  10.190 -0.3955  0.2777  0.0362
67171SOL    HW111443  10.432   1.114  10.207 -0.1033 -0.2830  0.6685
67171SOL    HW211444  10.299   1.110  10.134  1.7106 -0.2812 -2.8189
67172SOL     OW11445  13.130   6.166  12.435  0.4144 -0.0007  0.9383
67172SOL    HW111446  13.173   6.205  12.511  1.4172  0.6779  0.0457
67172SOL    HW211447  13.083   6.090  12.471 -0.7248  1.3666  2.5568
67173SOL     OW11448   6.969   8.529   6.884 -0.0389 -0.6796  0.0221
67173SOL    HW111449   6.902   8.594   6.867 -1.8258 -2.2352  0.7865
67173SOL    HW211450   7.020   8.564   6.957 -3.2215 -1.5748  2.9232
67174SOL     OW11451   5.109  12.093  11.269  0.0732 -0.0236  0.2980
67174SOL    HW111452   5.145  12.146  11.198  0.0206 -1.0947 -0.5446
67174SOL    HW211453   5.184  12.046  11.305 -0.2917 -1.4563 -0.7682
67175SOL     OW11454   2.437   8.668  11.855  0.3109 -0.1639  0.2755
67175SOL    HW111455   2.444   8.613  11.933 -0.2575 -0.4597  0.1186
67175SOL    HW211456   2.377   8.622  11.798  1.6270 -0.5493 -0.8550
67176SOL     OW11457   0.346   8.316   9.147  0.6685  0.0153 -0.2029
67176SOL    HW111458   0.408   8.344   9.215 -0.4397  0.0532  0.8381
67176SOL    HW211459   0.382   8.350   9.066  0.5211  2.6135  0.7254
67177SOL     OW11460   7.377   4.620   6.662 -0.2363  0.2631 -0.5955
67177SOL    HW111461   7.437   4.602   6.589  0.2570  1.3392 -0.4721
67177SOL    HW211462   7.435   4.635   6.737 -0.7107  0.0937 -0.1947
67178SOL     OW11463   0.021  11.207  11.078  0.2184 -0.0954 -0.2690
67178SOL    HW111464  -0.035  11.283  11.065  0.9878  0.5838  0.2289
67178SOL    HW211465  -0.033  11.132  11.054 -0.5609  0.6097 -0.7571
67179SOL     OW11466   1.770  12.600   5.296  0.6374  0.4399 -0.5328
67179SOL    HW111467   1.744  12.634   5.382  1.4242  0.0603 -0.1367
67179SOL    HW211468   1.854  12.640   5.278  1.2254 -0.6787 -0.4032
67180SOL     OW11469   7.035   6.731   3.793  0.2195 -0.0992 -0.7285
67180SOL    HW111470   6.941   6.719   3.804  0.1496  1.1364  0.2673
67180SOL    HW211471   7.043   6.811   3.741  0.7168 -0.5109 -1.2951
67181SOL     OW11472   1.166   6.188   2.354 -0.1100 -0.1707  0.2250
67181SOL    HW111473   1.077   6.222   2.360  0.6966  1.8915  1.7195
67181SOL    HW211474   1.172   6.124   2.425 -0.2124  0.2178  0.5900
67182SOL     OW11475  13.067  10.315   7.330  0.3189 -0.0054  0.4104
67182SOL    HW111476  13.075  10.277   7.418 -2.3323  1.0328  1.2005
67182SOL    HW211477  12.987  10.276   7.294  0.3999  0.9117 -0.8426
67183SOL     OW11478  11.960   2.153   5.212 -0.2360 -0.5806  0.4300
67183SOL    HW111479  12.012   2.233   5.222 -2.7426  1.2668 -0.2086
67183SOL    HW211480  12.000   2.090   5.272 -0.3273  2.3162  3.8331
67184SOL     OW11481  12.688   1.985   4.670 -0.4990 -0.1647 -0.0199
67184SOL    HW111482  12.685   2.002   4.764 -1.8788 -2.3085  0.3751
67184SOL    HW211483  12.618   2.040   4.634 -1.7256 -1.2729  0.5923
67185SOL     OW11484   1.492  12.724   3.065 -0.0227 -0.2917 -0.2203
67185SOL    HW111485   1.580  12.686   3.065  1.4651  2.6150 -3.3045
67185SOL    HW211486   1.459  12.709   2.976 -1.9657  0.0940  0.3870
67186SOL     OW11487  12.559  10.238   9.775 -0.6441  0.4677  0.2445
67186SOL    HW111488  12.515  10.195   9.702 -1.7011 -0.8068  1.5596
67186SOL    HW211489  12.492  10.244   9.843  0.1631  2.0702  0.9544
67187SOL     OW11490   9.271   8.746   9.764 -0.0719  0.3071 -0.1210
67187SOL    HW111491   9.198   8.736   9.703  1.5357  0.0639 -2.0876
67187SOL    HW211492   9.272   8.664   9.813  1.1421 -1.3735 -2.7267
67188SOL     OW11493   4.306   9.936  11.075 -0.3990 -0.2326 -0.1639
67188SOL    HW111494   4.238   9.872  11.054 -1.9190  0.9278  1.0454
67188SOL    HW211495   4.354   9.897  11.149 -0.8128 -0.3240  0.0587
67189SOL     OW11496   9.830   4.312   5.755 -0.3457 -0.3264 -0.0882
67189SOL    HW111497   9.831   4.216   5.755  1.0103 -0.3379  0.1465
67189SOL    HW211498   9.757   4.336   5.698 -0.8698 -1.4914  0.0617
67190SOL     OW11499   0.247  11.013   0.550  0.2823 -0.5492  0.2539
67190SOL    HW111500   0.166  10.990   0.504 -1.2167  0.7746  2.0931
67190SOL    HW211501   0.303  10.936   0.540 -0.4222 -0.7942 -2.6449
67191SOL     OW11502  13.044   9.702  10.734  0.1979 -0.2000 -0.3930
67191SOL    HW111503  13.071   9.714  10.825 -1.6982 -1.1826  0.3452
67191SOL    HW211504  12.953   9.733  10.732 -0.4876 -2.1494 -1.4276
67192SOL     OW11505   2.587  11.375  13.085  0.3524 -0.6962 -0.1921
67192SOL    HW111506   2.519  11.362  13.151 -0.2534  0.4679 -0.5647
67192SOL    HW211507   2.582  11.296  13.031  0.6550 -1.5204  0.9554
67193SOL     OW11508   3.956   3.453   2.538  0.0489  0.1635 -0.3055
67193SOL    HW111509   3.974   3.365   2.570  0.4898  0.4914  0.3741
67193SOL    HW211510   4.029   3.472   2.479  0.2399  0.2654 -0.0427
67194SOL     OW11511   1.884   5.372   4.592 -0.2899 -0.4822  0.0359
67194SOL    HW111512   1.950   5.434   4.624  0.0490 -1.2103  0.7679
67194SOL    HW211513   1.802   5.421   4.596  0.0890  0.1891 -0.1833
67195SOL     OW11514  12.896   5.383   7.334  0.4469 -0.2517  0.3707
67195SOL    HW111515  12.876   5.292   7.355  0.5128 -0.3333  0.0751
67195SOL    HW211516  12.825   5.433   7.375  0.4817 -0.4252  0.6450
67196SOL     OW11517  11.930  10.523  11.154 -0.1228 -0.0562  0.5423
67196SOL    HW111518  12.001  10.576  11.190  1.0448 -0.4829 -1.0533
67196SOL    HW211519  11.920  10.451  11.216  0.1799  0.5222  1.2723
67197SOL     OW11520   8.100   1.821  11.414  0.6957  0.4089  0.0671
67197SOL    HW111521   8.047   1.742  11.401  0.5402  0.3767  0.8657
67197SOL    HW211522   8.080   1.849  11.503  1.5499  0.7536  0.1581
67198SOL     OW11523   9.722  13.307  12.838  0.4364 -0.0021 -0.5039
67198SOL    HW111524   9.628  13.287  12.842  0.6659 -1.0660 -0.3310
67198SOL    HW211525   9.735  13.371  12.908  0.0415 -0.7087  0.2315
67199SOL     OW11526   1.061  12.953   2.114  0.9823  0.1535 -0.4180
67199SOL    HW111527   1.090  12.962   2.024  0.1818  0.8818 -0.6107
67199SOL    HW211528   1.001  12.878   2.112 -0.4188  1.2415 -0.8641
67200SOL     OW11529   5.346   2.407  12.634  0.6127 -0.0356  0.5476
67200SOL    HW111530   5.329   2.321  12.674  0.3998 -0.2827 -0.0608
67200SOL    HW211531   5.436   2.400  12.601  1.9141  1.1410  3.4338
67201SOL     OW11532  10.923   7.900   8.160 -0.1699  0.3886 -0.3776
67201SOL    HW111533  10.930   7.957   8.237  1.9305 -0.7277  0.3525
67201SOL    HW211534  10.940   7.812   8.194 -1.7671 -0.5102 -1.7368
67202SOL     OW11535  10.194   7.612   6.450  0.2745  0.5702  0.0083
67202SOL    HW111536  10.154   7.602   6.363 -0.0434  0.3018  0.1877
67202SOL    HW211537  10.249   7.690   6.441  0.3857  0.4415 -0.4892
67203SOL     OW11538   6.674  12.969   8.223  0.3889  0.3529 -0.2303
67203SOL    HW111539   6.635  12.942   8.306  0.3950 -1.1938 -0.6890
67203SOL    HW211540   6.726  13.046   8.245 -0.3521  0.5270  1.0106
67204SOL     OW11541   3.613  11.527   4.333 -0.2446 -0.5219 -0.1532
67204SOL    HW111542   3.665  11.602   4.306 -0.0306 -0.3120  0.7877
67204SOL    HW211543   3.643  11.455   4.278 -0.1728 -0.0157 -0.7878
67205SOL     OW11544   9.278   7.881  10.135 -0.2114  0.2715  0.0771
67205SOL    HW111545   9.366   7.910  10.157  0.0647  0.4298 -1.1524
67205SOL    HW211546   9.258   7.812  10.199 -0.6231  2.6008  2.6239
67206SOL     OW11547   4.585   9.400  11.714 -0.1021  0.1787  0.0932
67206SOL    HW111548   4.640   9.466  11.673 -0.3335  0.3557  0.0631
67206SOL    HW211549   4.641   9.357  11.778  0.1956  0.0591 -0.2424
67207SOL     OW11550   0.727   5.911   8.545  0.2711 -0.5468  0.3803
67207SOL    HW111551   0.766   5.854   8.479 -0.4342 -0.8112  0.1936
67207SOL    HW211552   0.743   5.866   8.628 -0.5920 -1.1932  0.2021
67208SOL     OW11553  11.661   1.436   2.140 -0.4793  0.0928 -0.0234
67208SOL    HW111554  11.565   1.439   2.137 -0.6122 -0.6990  2.1484
67208SOL    HW211555  11.682   1.344   2.126 -0.0985  0.0942  0.5183
67209SOL     OW11556  13.178  13.315  13.144  0.3434  0.2315  0.1478
67209SOL    HW111557  13.224  13.383  13.193 -0.5635 -0.5701  2.2391
67209SOL    HW211558  13.140  13.258  13.211 -3.2107  0.4957 -1.4013
67210SOL     OW11559   5.714  12.478   2.744 -0.2270 -0.2517  0.2856
67210SOL    HW111560   5.767  12.455   2.821  1.0154 -0.2453 -0.5341
67210SOL    HW211561   5.625  12.486   2.777  0.6508  2.7785  2.3874
67211SOL     OW11562   1.813   8.081  12.076 -0.0201  0.0630 -0.2980
67211SOL    HW111563   1.755   8.087  12.152 -3.5885  0.2960 -2.8004
67211SOL    HW211564   1.848   7.992  12.080 -1.4378 -0.5023  0.7562
67212SOL     OW11565   5.218   0.351   8.938  0.2905 -0.1559  0.1479
67212SOL    HW111566   5.290   0.322   8.993 -1.6359 -1.4308  2.1642
67212SOL    HW211567   5.183   0.429   8.982  0.1160  0.1526 -0.5188
67213SOL     OW11568  11.954   6.980   0.632 -0.4517 -0.3322 -1.0133
67213SOL    HW111569  11.904   6.940   0.561 -0.3092  1.2113 -2.0380
67213SOL    HW211570  11.995   6.906   0.676 -0.9741 -1.3868 -2.2006
67214SOL     OW11571   6.259  10.767  11.383  0.0531  0.5367  0.2865
67214SOL    HW111572   6.317  10.730  11.450  0.2788 -0.9291 -0.6685
67214SOL    HW211573   6.317  10.794  11.313 -0.3557 -0.7165 -0.5756
67215SOL     OW11574  11.178   5.521  12.105 -0.7650  0.2571  0.5619
67215SOL    HW111575  11.164   5.440  12.154  2.0154 -0.3340  0.5603
67215SOL    HW211576  11.206   5.492  12.018  0.3184  1.1932  0.5819
67216SOL     OW11577   0.219   9.330   0.984 -0.5553 -0.0728 -0.2480
67216SOL    HW111578   0.211   9.310   0.891 -2.7764  0.2216 -0.1707
67216SOL    HW211579   0.293   9.276   1.014  0.5651  0.2609 -2.2608
67217SOL     OW11580   2.935  10.287   0.598 -0.2033 -0.2343 -0.1911
67217SOL    HW111581   2.948  10.295   0.693 -0.8183  0.3522 -0.1459
67217SOL    HW211582   2.869  10.218   0.589 -2.3735  1.7018  0.0059
67218SOL     OW11583   6.136   7.965   9.289  0.0105  0.4013 -0.5927
67218SOL    HW111584   6.228   7.969   9.316 -0.0259 -0.0567 -0.4011
67218SOL    HW211585   6.134   7.901   9.218  0.1654  1.8360 -1.9755
67219SOL     OW11586  12.809   0.332  13.182 -0.8301 -0.5730 -0.6605
67219SOL    HW111587  12.875   0.265  13.167 -0.1216 -0.2201  0.8032
67219SOL    HW211588  12.800   0.376  13.097  2.7647  1.1262 -0.3097
67220SOL     OW11589   2.270   4.646   9.823  0.6261 -0.4657 -0.0448
67220SOL    HW111590   2.327   4.573   9.847  0.3856 -0.9062 -0.7631
67220SOL    HW211591   2.206   4.651   9.894  1.6762  0.1863  0.8867
67221SOL     OW11592   4.827  10.508  12.635 -0.0855 -0.2454 -0.1005
67221SOL    HW111593   4.781  10.498  12.552 -0.3345 -0.7466  0.0902
67221SOL    HW211594   4.758  10.530  12.698  0.2197  1.0382 -0.1857
67222SOL     OW11595  10.690   6.277   5.634 -0.0807  0.2296  0.3274
67222SOL    HW111596  10.673   6.371   5.642 -1.1366  0.2182 -1.3947
67222SOL    HW211597  10.784   6.272   5.617  0.5463  0.7423  3.1569
67223SOL     OW11598   5.706   0.834   7.548  0.0791 -0.1042 -0.0128
67223SOL    HW111599   5.799   0.847   7.567 -0.1715  0.7533  0.7071
67223SOL    HW211600   5.703   0.811   7.455  1.1139 -1.4382  0.2503
67224SOL     OW11601   4.031   4.318   6.187 -0.0972 -0.1460 -0.1725
67224SOL    HW111602   4.053   4.317   6.280  0.0971  0.1553 -0.2141
67224SOL    HW211603   4.011   4.227   6.166  0.6616 -0.3529 -0.0253
67225SOL     OW11604  11.929   4.493  11.141 -0.2776 -0.4199  0.1738
67225SOL    HW111605  11.852   4.545  11.115 -0.6258 -0.7598  0.5128
67225SOL    HW211606  11.901   4.447  11.220  0.8088  0.6963  1.2462
67226SOL     OW11607   2.545   0.566  10.845 -0.1866 -0.5048 -0.1727
67226SOL    HW111608   2.545   0.470  10.849  1.4859 -0.4916  0.5796
67226SOL    HW211609   2.549   0.586  10.751  1.6908 -1.2071 -0.2645
67227SOL     OW11610   5.736  12.898   9.355  0.2531 -0.0064  0.0169
67227SOL    HW111611   5.765  12.866   9.269  4.1800 -0.4450  1.2662
67227SOL    HW211612   5.744  12.993   9.349  0.7615 -0.0498 -0.0618
67228SOL     OW11613   7.474  11.767   9.666  0.2349 -0.5097  0.3618
67228SOL    HW111614   7.551  11.712   9.677  0.3115 -0.2617  1.1105
67228SOL    HW211615   7.508  11.851   9.636  0.4701  0.2246  2.5519
67229SOL     OW11616   2.223   8.576   7.410 -0.3954 -0.1597 -0.4008
67229SOL    HW111617   2.231   8.613   7.322  2.1065 -1.2960 -0.7408
67229SOL    HW211618   2.238   8.651   7.469 -1.1449  0.4276 -0.9354
67230SOL     OW11619   1.459  11.854   9.099 -0.5985 -0.2297  0.5540
67230SOL    HW111620   1.511  11.800   9.158 -1.1126  0.8535  2.0678
67230SOL    HW211621   1.522  11.918   9.064 -0.3416 -0.7320  0.0743
67231SOL     OW11622   5.578   2.022   0.306 -0.4888  0.0128  0.1320
67231SOL    HW111623   5.592   2.097   0.248 -0.4824  1.1584  1.5276
67231SOL    HW211624   5.625   1.950   0.265  2.6333  1.6654  0.4673
67232SOL     OW11625   5.018   5.592   1.862 -0.6120 -0.1376  0.5515
67232SOL    HW111626   4.955   5.610   1.792 -0.5190  0.8447  0.7089
67232SOL    HW211627   5.058   5.509   1.837 -1.2949 -0.2957 -0.0417
67233SOL     OW11628   1.794   8.824   0.630 -0.4860 -0.1802 -0.4042
67233SOL    HW111629   1.884   8.850   0.607  0.6925  1.0762  4.4675
67233SOL    HW211630   1.744   8.906   0.624 -0.3107  0.0195  0.7457
67234SOL     OW11631   7.308  10.153   8.619 -0.0935 -0.7306 -0.4841
67234SOL    HW111632   7.379  10.089   8.626 -0.8531 -1.4829  0.6688
67234SOL    HW211633   7.236  10.115   8.669 -0.7630  0.7683 -0.2499
67235SOL     OW11634   4.154   6.618   8.770  0.0242  0.7325 -0.0306
67235SOL    HW111635   4.181   6.529   8.794 -0.0147  0.6690 -0.2211
67235SOL    HW211636   4.214   6.644   8.700  0.2245  0.9702  0.2265
67236SOL     OW11637  10.974   7.616   9.319 -0.4334 -0.2297 -0.3580
67236SOL    HW111638  11.042   7.559   9.357 -0.1185 -0.7360 -1.6395
67236SOL    HW211639  10.897   7.559   9.311 -0.4253 -0.1966 -0.6881
67237SOL     OW11640  11.070   9.413  10.703  0.1249  0.3075 -0.4475
67237SOL    HW111641  11.024   9.497  10.713 -0.6777 -0.1139 -0.5477
67237SOL    HW211642  11.151   9.424  10.753  0.2603  1.3140 -0.8597
67238SOL     OW11643   8.811  10.724   2.220  0.0477  0.5049 -0.8229
67238SOL    HW111644   8.900  10.736   2.186  0.1786 -0.6210 -0.9051
67238SOL    HW211645   8.767  10.670   2.155  0.2025 -1.4100  0.5958
67239SOL     OW11646   6.707   3.620  11.462  0.6089 -0.0429  0.1267
67239SOL    HW111647   6.735   3.706  11.493  2.2316 -1.3166  2.5099
67239SOL    HW211648   6.768   3.598  11.392  0.2870  0.6547 -0.3814
67240SOL     OW11649   0.385   5.513   2.210  0.0900  0.5585  0.4218
67240SOL    HW111650   0.324   5.467   2.152  1.4006 -0.3624 -0.2743
67240SOL    HW211651   0.433   5.572   2.153  0.5156  0.5720  0.7917
67241SOL     OW11652   9.425   7.175   3.326 -0.2796 -0.0333 -0.3269
67241SOL    HW111653   9.337   7.195   3.294 -0.1467  0.8718 -0.1281
67241SOL    HW211654   9.415   7.090   3.369 -1.1494  0.2544  0.0686
67242SOL     OW11655   3.567   1.132   9.679 -0.3732  0.2106 -0.1236
67242SOL    HW111656   3.476   1.156   9.662 -0.1263  0.4292 -1.2072
67242SOL    HW211657   3.590   1.073   9.608  0.2752 -0.0127  0.2642
67243SOL     OW11658   1.650  10.219  10.463 -0.2573  0.0327  0.1829
67243SOL    HW111659   1.686  10.246  10.547  0.2678  1.5654 -0.4831
67243SOL    HW211660   1.727  10.204  10.408 -0.5987  0.5554 -0.4518
67244SOL     OW11661   3.549   6.155  11.286 -0.1750  0.2174  0.0426
67244SOL    HW111662   3.550   6.238  11.238 -0.3365  0.8658  1.1158
67244SOL    HW211663   3.638   6.144  11.318 -0.9174  2.0042  3.1563
67245SOL     OW11664   4.669   7.230   4.505  0.4873  0.0601 -0.1218
67245SOL    HW111665   4.744   7.172   4.521 -0.2956 -1.4922 -1.8543
67245SOL    HW211666   4.620   7.188   4.435 -1.6319  1.4297  0.4541
67246SOL     OW11667  10.742   8.607  10.941 -0.3174 -0.8206 -0.0351
67246SOL    HW111668  10.658   8.564  10.928 -0.6546 -0.0805 -0.4044
67246SOL    HW211669  10.807   8.539  10.927 -0.7994 -0.9938 -1.6537
67247SOL     OW11670   3.916  12.557  12.155  0.3279  0.4224  0.5442
67247SOL    HW111671   3.886  12.506  12.231 -0.3972 -0.4255 -0.2901
67247SOL    HW211672   3.853  12.537  12.086  1.3592  0.6599 -0.4955
67248SOL     OW11673  12.152   3.089   9.908  0.1444 -0.3922  0.1029
67248SOL    HW111674  12.246   3.100   9.922  0.2416  0.1137 -0.8671
67248SOL    HW211675  12.112   3.135   9.982  0.6511 -1.3399  0.9900
67249SOL     OW11676   2.119   2.640   0.733 -0.2944  0.8545 -0.0702
67249SOL    HW111677   2.041   2.634   0.677 -0.0067  1.7069 -0.5724
67249SOL    HW211678   2.087   2.625   0.822 -1.1925  2.1449 -0.1592
67250SOL     OW11679   0.282   8.726  10.881  0.1343  0.2008 -0.0325
67250SOL    HW111680   0.308   8.757  10.967  0.5658  1.5030 -0.6048
67250SOL    HW211681   0.363   8.689  10.843  0.1531  0.4288 -0.2145
67251SOL     OW11682   2.192   7.575   9.852 -0.3611  0.1853  0.3139
67251SOL    HW111683   2.262   7.574   9.787 -1.8859  1.3707 -1.4616
67251SOL    HW211684   2.173   7.668   9.866  0.3900  0.0059  3.0685
67252SOL     OW11685  12.946   2.866   6.912 -0.2082 -0.2317  0.5092
67252SOL    HW111686  12.975   2.779   6.941 -1.2481 -0.6822  0.2222
67252SOL    HW211687  12.977   2.872   6.822 -1.6905 -1.0674 -0.0903
67253SOL     OW11688   3.528   6.580  12.762  0.0445  0.4048 -0.3358
67253SOL    HW111689   3.465   6.627  12.816  0.0822 -1.2735  1.2831
67253SOL    HW211690   3.609   6.581  12.814  0.2310 -0.7885 -0.5588
67254SOL     OW11691   4.028   5.348  11.418  0.4867  0.4711 -0.1416
67254SOL    HW111692   3.965   5.286  11.382 -0.1919  0.0058  1.7507
67254SOL    HW211693   3.976   5.426  11.437  0.8653  0.7650 -0.2973
67255SOL     OW11694   0.704   8.302   5.662  0.1280 -0.2752  0.3440
67255SOL    HW111695   0.663   8.362   5.724 -0.1102  0.4210 -0.4812
67255SOL    HW211696   0.653   8.221   5.671 -0.5063  0.1220  0.3698
67256SOL     OW11697   7.387   9.714  12.872 -0.0408  0.4739  0.1036
67256SOL    HW111698   7.447   9.770  12.824  1.8088 -0.5312  1.1370
67256SOL    HW211699   7.349   9.771  12.939  1.6795  0.5857  1.0306
67257SOL     OW11700  11.850   6.728   2.431  0.2642 -0.1459  0.0846
67257SOL    HW111701  11.880   6.660   2.371 -1.0608 -0.2489 -0.4952
67257SOL    HW211702  11.818   6.798   2.374 -0.9581 -0.2163  0.6442
67258SOL     OW11703   8.118   2.514   0.646 -0.1195  0.3050  0.2044
67258SOL    HW111704   8.189   2.466   0.603  1.0015  0.2923  1.9421
67258SOL    HW211705   8.061   2.446   0.682  0.9511  0.1984  1.8366
67259SOL     OW11706   9.172   8.606  12.206  0.1667 -0.0298  0.0322
67259SOL    HW111707   9.209   8.528  12.247 -0.9737 -0.9579 -0.6222
67259SOL    HW211708   9.142   8.660  12.279 -0.7566 -1.0993  0.4769
67260SOL     OW11709   7.160   4.757  11.315 -0.4676  0.0956  0.0787
67260SOL    HW111710   7.090   4.821  11.324 -1.2235 -0.4876 -1.4527
67260SOL    HW211711   7.117   4.677  11.288  0.2691 -1.5673  3.2647
67261SOL     OW11712   3.874  10.585   5.811 -0.4926 -0.0695  0.2682
67261SOL    HW111713   3.814  10.600   5.738 -0.3654 -2.1967 -0.3504
67261SOL    HW211714   3.926  10.665   5.817 -1.8759  0.9382 -0.6393
67262SOL     OW11715   4.548  12.567  11.977 -0.3372 -0.2516 -0.5674
67262SOL    HW111716   4.498  12.647  11.993  0.1756  0.0225 -0.3193
67262SOL    HW211717   4.639  12.594  11.984 -0.1624 -1.1097  0.8826
67263SOL     OW11718   7.537   4.111  12.049 -0.0556 -0.0418  0.2578
67263SOL    HW111719   7.502   4.086  11.963 -0.6657 -2.3160  1.0921
67263SOL    HW211720   7.622   4.151  12.030 -0.6621  0.4947 -1.4635
67264SOL     OW11721  11.942   8.142  10.793 -0.5371 -0.2279 -0.0232
67264SOL    HW111722  11.852   8.167  10.815 -1.0162 -1.2178 -0.7198
67264SOL    HW211723  11.958   8.064  10.847 -0.0730 -0.0014  0.1598
67265SOL     OW11724   3.801   4.772  11.247  0.0588  0.0866 -0.1121
67265SOL    HW111725   3.775   4.742  11.334  0.3649 -0.4169 -0.1923
67265SOL    HW211726   3.743   4.847  11.229 -0.4698 -0.2336  0.2346
67266SOL     OW11727   8.157   6.501   7.919 -0.2634 -0.2037 -0.5134
67266SOL    HW111728   8.213   6.439   7.873  0.0179  0.6585 -1.3629
67266SOL    HW211729   8.193   6.587   7.897  0.1183  0.2503  1.6241
67267SOL     OW11730   0.744   3.926  10.369  0.1898  0.5133  0.2029
67267SOL    HW111731   0.796   3.972  10.303  1.5609 -0.1548  0.7851
67267SOL    HW211732   0.693   3.995  10.411  2.5923  1.6571  1.4243
67268SOL     OW11733   4.439  11.003   3.722 -0.3886 -0.4886 -0.0927
67268SOL    HW111734   4.364  11.008   3.662 -0.2440  0.2052 -0.2205
67268SOL    HW211735   4.420  11.066   3.791  0.3931  0.2089 -0.4954
67269SOL     OW11736  12.190   9.511  10.604 -0.2103 -0.0767 -0.1526
67269SOL    HW111737  12.277   9.550  10.616  0.4247 -0.8621 -1.9060
67269SOL    HW211738  12.162   9.541  10.518 -1.6025 -0.0440  0.2810
67270SOL     OW11739   9.334   7.155   3.641 -0.5204  0.1206  0.2028
67270SOL    HW111740   9.309   7.099   3.568  0.8666 -1.9335  1.1897
67270SOL    HW211741   9.267   7.139   3.708 -0.9631  0.8334 -0.0687
67271SOL     OW11742   9.239  10.674   4.504  0.1466 -0.3676 -0.0671
67271SOL    HW111743   9.224  10.723   4.422  0.0374  0.3427  0.3654
67271SOL    HW211744   9.194  10.591   4.490 -2.2242  0.7561  0.2420
67272SOL     OW11745   7.256   2.052   0.624 -0.0460  0.0113  0.1275
67272SOL    HW111746   7.212   2.076   0.706  1.1854  1.1296  0.4872
67272SOL    HW211747   7.343   2.025   0.651 -0.0044 -0.7378 -0.7248
67273SOL     OW11748  10.904   9.833   9.720  0.0283  0.3733  0.4854
67273SOL    HW111749  10.935   9.923   9.724 -0.7500  0.6248  4.0485
67273SOL    HW211750  10.983   9.779   9.732  0.0074  0.8563  3.7941
67274SOL     OW11751  10.126   2.227   5.393  0.0538 -0.1761 -0.3677
67274SOL    HW111752  10.134   2.306   5.446 -0.6039  0.4640 -1.1955
67274SOL    HW211753  10.042   2.189   5.419  0.3672 -0.6131  0.0276
67275SOL     OW11754   1.402  12.397   7.096 -0.2194 -0.1517 -0.3851
67275SOL    HW111755   1.444  12.314   7.116 -0.5110 -0.0332  0.7894
67275SOL    HW211756   1.425  12.454   7.170 -0.4535  0.6524 -0.9168
67276SOL     OW11757   5.484   3.691  11.282 -0.6276 -0.4438 -0.3503
67276SOL    HW111758   5.447   3.665  11.198 -3.8952  0.2892  0.7040
67276SOL    HW211759   5.526   3.611  11.315  0.5358 -0.7974 -2.4991
67277SOL     OW11760   0.633   6.434   6.213 -0.5213  0.3363  0.5125
67277SOL    HW111761   0.644   6.381   6.292 -0.0558 -0.0669  0.1882
67277SOL    HW211762   0.607   6.520   6.245 -1.8992 -0.2439  1.0241
67278SOL     OW11763   4.877   1.115   5.273  0.5606  0.0640 -0.5058
67278SOL    HW111764   4.946   1.172   5.239 -0.5195  0.9500 -1.2919
67278SOL    HW211765   4.808   1.119   5.207 -1.1562  0.9416  1.2359
67279SOL     OW11766  10.595  10.792   1.388 -0.2132 -0.0700  1.1567
67279SOL    HW111767  10.550  10.712   1.417 -0.8012  0.6556  2.3575
67279SOL    HW211768  10.635  10.826   1.468 -1.3586  1.6880  1.0332
67280SOL     OW11769   1.164   5.918   1.628  0.1287  0.1884 -0.5325
67280SOL    HW111770   1.159   5.847   1.692  0.4147 -0.6471 -1.4020
67280SOL    HW211771   1.155   5.998   1.679  2.6256 -0.3260  0.8996
67281SOL     OW11772   3.082  11.562   2.207  0.3246  0.4897 -0.4293
67281SOL    HW111773   3.054  11.535   2.295 -0.2370 -0.0680 -0.7646
67281SOL    HW211774   3.000  11.568   2.157  0.7565 -1.0717 -1.4156
67282SOL     OW11775   6.553  12.437   0.020 -0.0967  0.1176  0.5785
67282SOL    HW111776   6.538  12.373   0.090  0.5218  2.2668  2.8175
67282SOL    HW211777   6.569  12.383  -0.058 -1.1191 -2.4020  1.9780
67283SOL     OW11778   9.324   2.606   5.127  0.8020  0.1766  0.2654
67283SOL    HW111779   9.415   2.580   5.138  0.0676 -2.5418  0.6552
67283SOL    HW211780   9.308   2.668   5.198  2.5810  1.4860 -0.4238
67284SOL     OW11781  10.757   5.770  12.385  0.0857  0.1529 -0.5047
67284SOL    HW111782  10.727   5.725  12.306 -0.2583 -0.1315 -0.2168
67284SOL    HW211783  10.697   5.741  12.453  1.5953 -1.1950  0.3098
67285SOL     OW11784  10.380  12.941  12.376  0.1467  0.0728  0.3881
67285SOL    HW111785  10.367  12.874  12.309 -0.2806 -0.3308  0.8553
67285SOL    HW211786  10.368  13.024  12.331  0.9652 -0.1495 -0.2635
67286SOL     OW11787  11.617   4.986   8.855  0.5305 -0.3387 -0.3615
67286SOL    HW111788  11.579   5.054   8.800  0.8258 -0.8839 -1.2740
67286SOL    HW211789  11.570   4.906   8.832 -0.1714 -0.3686  1.0774
67287SOL     OW11790   5.508   7.599   7.917  0.4107  0.4123 -0.1321
67287SOL    HW111791   5.416   7.620   7.934 -0.4222 -3.9321  2.1840
67287SOL    HW211792   5.513   7.584   7.823 -1.3308  0.3983 -0.2444
67288SOL     OW11793  12.448   8.510   8.697  0.2513 -0.2899  0.3370
67288SOL    HW111794  12.394   8.432   8.687  0.7912 -0.6832  0.4104
67288SOL    HW211795  12.470   8.536   8.607  0.2607 -0.3625  0.3184
67289SOL     OW11796   9.355  10.727   4.768 -0.3301  0.2291 -0.0699
67289SOL    HW111797   9.379  10.646   4.812 -0.8627 -1.3257 -2.4520
67289SOL    HW211798   9.311  10.699   4.688  1.1170  2.8485 -1.9370
67290SOL     OW11799   9.011  13.187  10.399 -0.2276 -0.0194 -0.1816
67290SOL    HW111800   8.958  13.154  10.472  1.1651 -0.6009  0.6152
67290SOL    HW211801   9.081  13.123  10.389  0.9797  1.2784 -0.4260
67291SOL     OW11802  12.025   6.583   6.390 -0.4077  0.1646 -0.3354
67291SOL    HW111803  12.075   6.654   6.350  0.8687 -0.7950 -0.5253
67291SOL    HW211804  12.015   6.609   6.481  0.8560  0.1940 -0.1790
67292SOL     OW11805   6.795   8.965   9.655  0.1391  0.1001  0.4748
67292SOL    HW111806   6.864   8.958   9.721  0.5834 -1.0287 -0.0901
67292SOL    HW211807   6.726   9.016   9.698  1.1785  0.9767  1.1547
67293SOL     OW11808   0.724   7.307  12.639 -0.3628  0.4840 -0.3191
67293SOL    HW111809   0.819   7.318  12.631 -0.3008 -0.3253 -0.8224
67293SOL    HW211810   0.713   7.224  12.685 -0.8275  1.3048  1.1277
67294SOL     OW11811   1.502  11.134   2.879 -0.9294 -1.0812 -0.5079
67294SOL    HW111812   1.421  11.096   2.846 -1.4479 -0.8189  0.4218
67294SOL    HW211813   1.534  11.190   2.808 -1.5918 -1.1458 -0.8598
67295SOL     OW11814   2.163  10.861   5.346  0.2979  0.0365 -0.0539
67295SOL    HW111815   2.116  10.852   5.263 -0.8453  0.1346  0.5649
67295SOL    HW211816   2.243  10.810   5.333 -0.0359 -0.2610 -1.0846
67296SOL     OW11817   1.946   3.186   3.478 -0.4643  0.7693  0.1789
67296SOL    HW111818   1.884   3.200   3.550 -1.3089  0.2705 -0.4245
67296SOL    HW211819   2.009   3.122   3.511 -0.6103  0.8511  0.6148
67297SOL     OW11820  10.433   7.098  12.119  0.0538  0.3043 -0.2692
67297SOL    HW111821  10.507   7.039  12.110 -0.9458 -1.0198 -0.1744
67297SOL    HW211822  10.360   7.051  12.078 -1.1298  0.7806  1.1992
67298SOL     OW11823  10.824   6.643   4.348 -0.1186 -0.5628  0.1418
67298SOL    HW111824  10.739   6.614   4.383 -0.3768  0.7048  0.6104
67298SOL    HW211825  10.841   6.726   4.392  1.5486 -0.9623  0.3170
67299SOL     OW11826   7.842   3.876   0.802 -0.0239 -0.4490 -0.0315
67299SOL    HW111827   7.849   3.905   0.711 -1.6666  0.4200  0.0860
67299SOL    HW211828   7.875   3.950   0.853 -1.0934 -0.0751  0.1410
67300SOL     OW11829   0.185   9.349   6.589 -0.6097 -0.1649 -0.3721
67300SOL    HW111830   0.139   9.267   6.573  0.7257 -1.1623  0.6763
67300SOL    HW211831   0.186   9.358   6.684  0.1920  0.5041 -0.4352
67301SOL     OW11832   5.932  10.771   9.546  0.1628  0.4716 -0.3054
67301SOL    HW111833   5.986  10.849   9.539  0.3184  0.3473 -0.5096
67301SOL    HW211834   5.991  10.699   9.525  0.0124  0.3011 -0.1496
67302SOL     OW11835   6.960  10.392  12.868 -0.0130  0.0246  0.2954
67302SOL    HW111836   7.036  10.439  12.903 -0.0214 -0.6822  1.2960
67302SOL    HW211837   6.959  10.309  12.916 -2.0781  0.4915  1.1799
67303SOL     OW11838   6.060   1.023   2.535 -0.5366  0.4189  0.2195
67303SOL    HW111839   6.058   1.100   2.591 -0.6125  0.7099 -0.1746
67303SOL    HW211840   6.014   1.051   2.455 -1.4286 -0.3289  0.4512
67304SOL     OW11841   1.791   7.161   8.907 -0.1310  0.8011  0.6426
67304SOL    HW111842   1.755   7.073   8.913 -0.0117  0.8195  1.8345
67304SOL    HW211843   1.881   7.148   8.876 -0.0988  0.5048  0.8566
67305SOL     OW11844   3.724   4.178   5.963  0.3412  0.3764 -0.4814
67305SOL    HW111845   3.747   4.091   5.993 -0.1592 -0.1702 -1.6076
67305SOL    HW211846   3.785   4.237   6.008 -0.2898 -0.3742  1.4583
67306SOL     OW11847   8.130   0.551  12.665 -0.4594 -0.4337  0.0930
67306SOL    HW111848   8.065   0.558  12.734  1.4492 -0.3786  1.9783
67306SOL    HW211849   8.135   0.457  12.646 -1.1817 -0.4210 -0.2264
67307SOL     OW11850   6.582  10.406  10.538 -0.2484 -0.6514  0.0023
67307SOL    HW111851   6.498  10.381  10.576 -1.3747 -0.5813 -2.2496
67307SOL    HW211852   6.612  10.328  10.492  1.3185 -0.8879  1.3073
67308SOL     OW11853   5.975   7.682   1.389 -0.4590  0.2299  0.0399
67308SOL    HW111854   6.041   7.634   1.338 -0.9896 -0.6899  0.1885
67308SOL    HW211855   5.983   7.645   1.477 -1.0023  0.2910  0.1163
67309SOL     OW11856   5.716   5.339  12.302 -0.5463  0.4370 -0.1217
67309SOL    HW111857   5.800   5.301  12.330 -0.2038  1.3963  0.1682
67309SOL    HW211858   5.664   5.263  12.275 -0.6959 -0.5284  2.5397
67310SOL     OW11859   6.140  11.190  12.280 -0.4401 -0.2950  0.5693
67310SOL    HW111860   6.174  11.125  12.341 -0.5060  0.5152  1.4956
67310SOL    HW211861   6.159  11.154  12.193 -1.8592 -2.2920  0.9970
67311SOL     OW11862  11.343   0.334   5.739 -0.0167 -0.5133  0.0124
67311SOL    HW111863  11.425   0.376   5.712  0.3225 -1.4373 -0.4140
67311SOL    HW211864  11.317   0.381   5.819  1.5745 -1.0158  0.8542
67312SOL     OW11865   6.116  13.228  10.611  0.0326 -0.1014  0.6747
67312SOL    HW111866   6.077  13.188  10.688 -0.7076  0.5519  0.6606
67312SOL    HW211867   6.115  13.159  10.545 -0.0789 -0.4270  1.0158
67313SOL     OW11868  12.734  11.557   7.947 -0.3886 -0.1389 -0.2018
67313SOL    HW111869  12.816  11.596   7.980  0.1514 -2.1832  1.0614
67313SOL    HW211870  12.698  11.623   7.888  1.5857  1.3014  0.1055
67314SOL     OW11871  12.367   9.032   8.425  0.2273  0.1260  0.0911
67314SOL    HW111872  12.362   8.956   8.483 -1.0017  2.0276  2.6713
67314SOL    HW211873  12.459   9.056   8.424  0.4945 -0.8697 -0.0721
67315SOL     OW11874  12.472   1.929  11.571  0.3773  0.0585  0.7407
67315SOL    HW111875  12.500   1.838  11.586  0.5990 -0.0408 -0.1859
67315SOL    HW211876  12.500   1.976  11.650  0.4115 -0.6460  1.1597
67316SOL     OW11877   8.566   4.868  12.597 -0.4798 -0.2928  0.8840
67316SOL    HW111878   8.561   4.831  12.685 -0.9654 -0.6776  0.6933
67316SOL    HW211879   8.601   4.957  12.611  2.0821 -1.2672  1.2270
67317SOL     OW11880   4.465  13.261   7.040 -0.0754 -0.2062 -0.2153
67317SOL    HW111881   4.431  13.329   7.098  0.6669  0.6750 -0.7883
67317SOL    HW211882   4.439  13.179   7.082 -2.7680  0.3882 -0.5620
67318SOL     OW11883   1.446   7.089  10.886 -0.0258 -0.4000  0.3606
67318SOL    HW111884   1.433   7.042  10.968 -1.0603  1.4232  1.2901
67318SOL    HW211885   1.476   7.176  10.912  2.0612 -0.5420 -1.3207
67319SOL     OW11886   3.584  11.746   0.584  0.1096 -0.1536 -0.1409
67319SOL    HW111887   3.633  11.668   0.609 -0.7900 -0.5736  0.3666
67319SOL    HW211888   3.531  11.718   0.509  2.2483  0.9004 -2.1797
67320SOL     OW11889   6.550  12.428   0.579  0.1109 -0.5419 -0.1574
67320SOL    HW111890   6.618  12.372   0.618 -0.6713 -1.1437  0.3835
67320SOL    HW211891   6.598  12.496   0.534  1.0809 -0.7340  0.5488
67321SOL     OW11892   4.208   8.223   6.665 -0.3571  0.2793 -0.2731
67321SOL    HW111893   4.117   8.197   6.652  0.1321 -1.5975 -0.2237
67321SOL    HW211894   4.225   8.206   6.757  0.0659  0.5901 -0.2887
67322SOL     OW11895   7.324  11.786   8.691  0.0230 -0.7378  0.0015
67322SOL    HW111896   7.397  11.827   8.644 -1.1131 -0.2865 -1.4618
67322SOL    HW211897   7.256  11.776   8.624 -1.2895 -1.0569  1.3372
67323SOL     OW11898   5.757   7.918  11.933  0.2912 -0.1487  0.0385
67323SOL    HW111899   5.712   7.986  11.983  2.4434  1.9239 -0.6682
67323SOL    HW211900   5.822   7.882  11.994 -0.0092 -0.7232  0.0282
67324SOL     OW11901   1.638   2.308  11.450  0.0791 -0.6692 -0.6149
67324SOL    HW111902   1.655   2.366  11.525 -0.5953 -0.5534 -0.5527
67324SOL    HW211903   1.629   2.222  11.489 -1.6308 -0.4160 -0.3933
67325SOL     OW11904   2.417   4.874   3.425 -0.0463 -0.4659  0.1381
67325SOL    HW111905   2.511   4.857   3.426  0.5809  2.2541 -1.2818
67325SOL    HW211906   2.398   4.914   3.510 -0.3427 -2.6278  1.1367
67326SOL     OW11907  11.086   7.772   6.286  0.2358  0.0241  0.0166
67326SOL    HW111908  11.167   7.743   6.244 -1.4614 -0.9614 -2.9117
67326SOL    HW211909  11.052   7.695   6.331  1.1616  0.5938  1.7438
67327SOL     OW11910   2.014   6.349   9.400 -0.0915  0.0906  0.5383
67327SOL    HW111911   2.061   6.265   9.405 -1.4865 -0.7008  1.1608
67327SOL    HW211912   2.050   6.392   9.323  1.0129 -0.8586  0.4866
67328SOL     OW11913   7.492   8.147  12.968 -0.3270  0.2375 -0.0290
67328SOL    HW111914   7.449   8.198  12.900  0.7646  0.0510 -0.8860
67328SOL    HW211915   7.574   8.118  12.928  0.1472 -0.2222  1.2298
67329SOL     OW11916   3.637  10.738   0.775  0.2584 -0.5413  0.1211
67329SOL    HW111917   3.693  10.798   0.726 -2.6614  0.5926 -2.1131
67329SOL    HW211918   3.632  10.777   0.863  1.9177 -0.0489  0.0405
67330SOL     OW11919  11.644   8.703  13.284  0.0777  0.5402  0.7325
67330SOL    HW111920  11.623   8.621  13.241  0.1819  0.5353  0.6896
67330SOL    HW211921  11.695   8.678  13.361 -0.6089  0.5106  1.1830
67331SOL     OW11922  11.535   5.815   6.755 -0.1190 -0.3658  0.2333
67331SOL    HW111923  11.599   5.797   6.824 -1.5921 -0.5239  1.6083
67331SOL    HW211924  11.533   5.910   6.748  0.0474 -0.3504  0.3823
67332SOL     OW11925   5.597  11.859   7.746 -0.1780  0.3817 -0.7333
67332SOL    HW111926   5.542  11.937   7.740 -0.2487  0.2384 -2.3999
67332SOL    HW211927   5.628  11.845   7.657  2.5394  0.4305  0.1273
67333SOL     OW11928   2.483   3.398  11.915 -0.1058  0.3649  0.4088
67333SOL    HW111929   2.447   3.475  11.959 -2.8146  0.5542 -1.8476
67333SOL    HW211930   2.535   3.434  11.843 -0.3762  0.0996  0.0764
67334SOL     OW11931   1.948   6.691   0.269 -0.2721  0.2214  0.2572
67334SOL    HW111932   1.991   6.774   0.248  0.0351 -0.1548 -0.6603
67334SOL    HW211933   1.879   6.683   0.203  0.3063 -0.6901 -0.2684
67335SOL     OW11934   1.736  12.427  10.432 -0.0267 -0.2385 -0.4560
67335SOL    HW111935   1.830  12.418  10.418 -0.1241  0.1954 -1.5420
67335SOL    HW211936   1.697  12.396  10.350 -0.9531 -2.5854  0.8059
67336SOL     OW11937   7.291  12.587   0.113  0.7315  0.1145 -0.1289
67336SOL    HW111938   7.274  12.618   0.202 -1.7892  0.4772 -0.6615
67336SOL    HW211939   7.376  12.625   0.090  1.8232 -0.6214  2.3450
67337SOL     OW11940   2.066   2.044   4.088  0.6138  0.5227  0.1802
67337SOL    HW111941   2.049   2.007   4.002 -0.2264  0.2167  0.4644
67337SOL    HW211942   2.129   1.984   4.128  0.1719  0.0525  0.1811
67338SOL     OW11943  10.863  12.023   8.297 -0.0177  0.1440  0.4316
67338SOL    HW111944  10.869  12.113   8.329  0.0694  0.8180 -1.3110
67338SOL    HW211945  10.950  12.005   8.261 -0.6117  0.1513 -1.0898
67339SOL     OW11946  12.948   9.455   5.580 -0.6683  0.6321  0.5132
67339SOL    HW111947  12.864   9.414   5.599 -0.5063  0.3235  0.5719
67339SOL    HW211948  12.932   9.508   5.502 -1.4941  2.3762  1.8112
67340SOL     OW11949   5.181   9.504  10.094 -0.6700  0.0205  0.1432
67340SOL    HW111950   5.087   9.504  10.112 -0.4650 -0.3159  1.2975
67340SOL    HW211951   5.222   9.501  10.180  0.4063  0.0605 -0.3482
67341SOL     OW11952  13.297  10.109   7.171  0.9086  0.2142 -0.3573
67341SOL    HW111953  13.218  10.155   7.144  0.3606 -0.8182 -0.5897
67341SOL    HW211954  13.265  10.043   7.233  1.4701 -0.7091 -1.0281
67342SOL     OW11955   8.768  12.159  12.290  0.3962  0.2943  0.2897
67342SOL    HW111956   8.839  12.095  12.287  0.7646  0.6676  0.8370
67342SOL    HW211957   8.710  12.127  12.360 -0.0511 -0.0869 -0.2548
67343SOL     OW11958   7.093   7.989  10.150 -0.0516 -0.4931  0.6151
67343SOL    HW111959   7.024   7.940  10.195 -0.9170 -0.4641 -0.6306
67343SOL    HW211960   7.141   7.923  10.100 -0.5191 -0.2306 -0.1914
67344SOL     OW11961   4.341   1.100   1.211 -0.4481 -0.0532  0.2286
67344SOL    HW111962   4.329   1.006   1.208  2.4018 -0.5925  1.9969
67344SOL    HW211963   4.315   1.131   1.125 -3.1697 -2.1598  0.1695
67345SOL     OW11964   4.701  12.238   2.068 -0.0137  0.0534 -0.4759
67345SOL    HW111965   4.679  12.204   2.154 -2.2199 -0.6188 -1.2347
67345SOL    HW211966   4.763  12.173   2.032 -2.3281 -2.0296 -0.9722
67346SOL     OW11967   0.337  10.374   1.959  0.1533  0.0509 -0.2668
67346SOL    HW111968   0.354  10.327   1.877  2.1854 -0.7657  0.5674
67346SOL    HW211969   0.242  10.386   1.959  0.1443  0.9255 -3.1637
67347SOL     OW11970   8.188   2.643  11.623  0.4829  0.1525  0.1058
67347SOL    HW111971   8.149   2.602  11.546 -0.4505  0.0866  0.5984
67347SOL    HW211972   8.149   2.596  11.697  0.5103  0.9526  0.6417
67348SOL     OW11973   1.990   6.892   3.885  0.0601 -0.1834 -0.5111
67348SOL    HW111974   1.934   6.966   3.908 -0.0814 -0.6720  0.8537
67348SOL    HW211975   2.010   6.904   3.793  2.1869  3.0065  0.2162
67349SOL     OW11976   5.532  12.374  11.778 -0.0411 -0.3413 -0.0253
67349SOL    HW111977   5.466  12.336  11.720 -0.5740  1.2498 -0.5278
67349SOL    HW211978   5.489  12.451  11.816  1.3791  0.4909 -0.0260
67350SOL     OW11979   7.221   8.980   8.606  0.0819 -0.1039 -0.2809
67350SOL    HW111980   7.137   9.026   8.611  1.0004  1.5259  0.9799
67350SOL    HW211981   7.286   9.050   8.598  1.5429 -1.1429  1.7156
67351SOL     OW11982   0.564   7.283   8.448  0.3830 -0.1567 -0.0217
67351SOL    HW111983   0.501   7.248   8.385  0.0170 -1.1076  0.8269
67351SOL    HW211984   0.648   7.245   8.421  0.0993 -1.1915  0.4896
67352SOL     OW11985  12.004   3.858   1.412 -0.5348 -0.1150  0.3679
67352SOL    HW111986  11.998   3.792   1.343  1.3653 -0.9698  0.9800
67352SOL    HW211987  12.087   3.840   1.456  0.1818  2.8344  0.4163
67353SOL     OW11988  12.836  12.498  10.264  0.3022  0.6042 -0.0740
67353SOL    HW111989  12.898  12.506  10.191  2.5928 -0.2925  1.6671
67353SOL    HW211990  12.839  12.583  10.307  0.3572  0.5463  0.0362
67354SOL     OW11991  10.935   5.882   6.042 -0.1345  0.2092 -0.3560
67354SOL    HW111992  10.995   5.895   5.969  0.4030 -2.0490 -0.3963
67354SOL    HW211993  10.986   5.905   6.120 -0.7459  2.7278 -0.6346
67355SOL     OW11994   4.641   6.102   1.244 -0.0569  0.3904  0.1602
67355SOL    HW111995   4.640   6.008   1.229 -0.2497  0.2707  0.8777
67355SOL    HW211996   4.719   6.118   1.297  0.2282  0.6985 -0.3460
67356SOL     OW11997   3.090   8.474  11.716 -0.0771 -0.1091 -0.5470
67356SOL    HW111998   3.086   8.455  11.809  0.6927 -1.9281 -0.8307
67356SOL    HW211999   3.168   8.528  11.705  0.9291 -1.4611 -0.3223
67357SOL     OW12000   1.299   6.440   8.759 -0.7073  0.2228 -0.3452
67357SOL    HW112001   1.313   6.533   8.772  0.1048 -0.0138  0.5218
67357SOL    HW212002   1.373   6.397   8.802 -1.3048 -0.8401 -0.3290
67358SOL     OW12003   5.902   7.578   0.513  0.2090 -0.1035  0.2485
67358SOL    HW112004   5.996   7.580   0.494  0.1219  0.9031 -0.1298
67358SOL    HW212005   5.861   7.554   0.431  0.1465 -0.9183  0.5077
67359SOL     OW12006   6.022   5.687   9.681  0.0956 -0.9442 -0.1771
67359SOL    HW112007   6.084   5.684   9.754  1.1713 -1.9033 -1.0938
67359SOL    HW212008   6.013   5.780   9.661  2.8653 -0.8409 -1.3267
67360SOL     OW12009   7.819   2.245   5.023 -0.3427 -0.2700  0.3350
67360SOL    HW112010   7.801   2.316   5.085 -1.9139 -0.5487  0.2318
67360SOL    HW212011   7.733   2.211   4.999  0.3463 -1.7963 -0.1174
67361SOL     OW12012   2.633   5.662   5.166 -0.0968  0.1751 -0.2905
67361SOL    HW112013   2.634   5.576   5.208 -0.4792  0.9754  1.4413
67361SOL    HW212014   2.712   5.663   5.111 -0.9228 -1.8538 -1.6344
67362SOL     OW12015   4.323   0.435   6.155  0.0788  0.2851 -0.3085
67362SOL    HW112016   4.351   0.526   6.142 -1.3517  1.0728  1.6734
67362SOL    HW212017   4.237   0.430   6.115  0.6690 -0.5910 -1.5260
67363SOL     OW12018   7.279   5.886   3.807  0.1059 -0.5203  0.1111
67363SOL    HW112019   7.271   5.907   3.714 -0.7935  0.4157  0.3810
67363SOL    HW212020   7.320   5.964   3.847 -2.4741  0.4980  0.9833
67364SOL     OW12021   1.948   6.543   9.900  0.5369  0.0651 -0.0780
67364SOL    HW112022   1.890   6.612   9.933  1.8260  0.9247  0.4638
67364SOL    HW212023   1.902   6.507   9.824 -1.4492 -0.3947  1.2565
67365SOL     OW12024   3.343   0.106   0.349 -0.5401  0.2671  0.5204
67365SOL    HW112025   3.364   0.170   0.281  0.1783 -1.9759 -1.5446
67365SOL    HW212026   3.428   0.071   0.376 -0.8714 -3.4468 -2.3246
67366SOL     OW12027   4.088   0.431   2.638 -0.0579 -0.2374 -0.4785
67366SOL    HW112028   3.999   0.441   2.603 -1.3396  3.2771  3.0172
67366SOL    HW212029   4.134   0.509   2.609  0.8920 -0.4958  0.2662
67367SOL     OW12030  10.811  12.296   1.628  0.1419  0.3856 -0.1391
67367SOL    HW112031  10.737  12.258   1.581 -0.6717 -1.0780  2.1416
67367SOL    HW212032  10.785  12.386   1.645 -0.3865  0.3667 -0.8177
67368SOL     OW12033   3.636   5.210   8.246 -0.1598 -0.1120 -0.2123
67368SOL    HW112034   3.675   5.129   8.279 -0.5887 -0.0157  0.5486
67368SOL    HW212035   3.545   5.206   8.274 -0.4983  0.0467 -1.2716
67369SOL     OW12036   4.133   0.183   7.050  0.2514 -0.1914 -0.5075
67369SOL    HW112037   4.114   0.152   6.962 -0.4471  0.3253 -0.5460
67369SOL    HW212038   4.047   0.189   7.093  0.4776  0.5550 -0.1328
67370SOL     OW12039   8.157   4.222   1.428  0.3340 -0.5328 -0.7578
67370SOL    HW112040   8.156   4.266   1.343  3.1561 -0.0034 -0.6314
67370SOL    HW212041   8.201   4.284   1.486 -0.0839 -1.5428  0.6874
67371SOL     OW12042   4.229   1.147   7.724  0.5894  0.2333  0.3097
67371SOL    HW112043   4.182   1.070   7.754 -0.5254  1.0215  0.6436
67371SOL    HW212044   4.190   1.168   7.638  0.9451  0.3731  0.1793
67372SOL     OW12045  10.075   2.387   1.358 -0.2523 -0.2687 -0.2444
67372SOL    HW112046   9.988   2.379   1.396 -0.0226  0.2482  0.4239
67372SOL    HW212047  10.108   2.297   1.351 -0.7317 -0.4430 -0.2601
67373SOL     OW12048  13.042   1.363   8.038 -0.2121 -0.4633  0.3392
67373SOL    HW112049  13.056   1.302   7.965  0.5758  0.8674 -0.6746
67373SOL    HW212050  13.106   1.433   8.023 -0.5604  0.2266  1.8980
67374SOL     OW12051   0.325   9.257  12.274 -0.1132 -0.0945 -0.2236
67374SOL    HW112052   0.287   9.283  12.358  1.4727 -0.9235  0.8054
67374SOL    HW212053   0.316   9.162  12.272 -1.0067 -0.0047 -1.4684
67375SOL     OW12054   5.424   0.770  10.746  0.1158 -0.3300  0.2569
67375SOL    HW112055   5.338   0.779  10.704 -1.5379 -1.7368  3.0609
67375SOL    HW212056   5.460   0.689  10.710 -0.3021 -0.4091  0.0015
67376SOL     OW12057   1.024   6.841   3.412  0.5031  0.0380 -0.3463
67376SOL    HW112058   1.030   6.924   3.460 -0.2901 -1.3938  2.4343
67376SOL    HW212059   1.115   6.813   3.400  0.7103  0.0272  1.1336
67377SOL     OW12060   0.588   4.093  10.534 -0.0870  0.2773 -0.1674
67377SOL    HW112061   0.629   4.175  10.506  0.5654 -0.5112 -1.6054
67377SOL    HW212062   0.546   4.115  10.618 -1.7850  2.6633 -1.5057
67378SOL     OW12063   3.726   4.688   5.796  0.3156  0.6126  0.1403
67378SOL    HW112064   3.662   4.624   5.764  0.8787  0.6689 -1.1363
67378SOL    HW212065   3.808   4.664   5.755  0.5742  2.0683 -0.2678
67379SOL     OW12066   4.094   1.996   8.570 -0.2429 -0.0761  0.0404
67379SOL    HW112067   4.046   1.932   8.517 -0.3329 -1.5439  1.7841
67379SOL    HW212068   4.038   2.012   8.646  0.5302  0.7911  0.4556
67380SOL     OW12069   4.190   2.808  12.294  0.6196 -0.5549  0.1618
67380SOL    HW112070   4.175   2.784  12.385  0.7064 -0.2343  0.2610
67380SOL    HW212071   4.117   2.865  12.271  1.3717  0.5705  0.4860
67381SOL     OW12072   8.196   5.313   4.382  0.0839  0.7320 -0.2739
67381SOL    HW112073   8.266   5.341   4.441  1.0648 -0.5559 -0.7968
67381SOL    HW212074   8.129   5.382   4.391  1.3373  1.9243  0.3242
67382SOL     OW12075   5.992  11.709   0.384 -0.2992 -0.3845  0.3706
67382SOL    HW112076   6.080  11.716   0.346 -1.6620 -0.4292 -3.0982
67382SOL    HW212077   6.001  11.752   0.469  2.9082  0.2544 -0.1295
67383SOL     OW12078   7.878   7.966   4.387 -0.0874 -0.2328  0.0663
67383SOL    HW112079   7.922   7.884   4.365  0.4510  0.2319 -0.6279
67383SOL    HW212080   7.785   7.946   4.382  0.0421 -0.8645  0.1422
67384SOL     OW12081   0.937   8.598   0.100  0.5143  0.3063  0.1005
67384SOL    HW112082   1.026   8.609   0.135  0.3814  2.2532 -0.0938
67384SOL    HW212083   0.892   8.544   0.166  1.4730  0.3672  0.8290
67385SOL     OW12084   6.221   9.456   3.350 -0.1378 -0.6915  0.4283
67385SOL    HW112085   6.130   9.426   3.344 -0.1909 -0.2602 -1.6006
67385SOL    HW212086   6.273   9.376   3.348 -0.4474 -0.8918  0.3209
67386SOL     OW12087   4.315  11.474  10.099 -0.5238  1.2708  0.4142
67386SOL    HW112088   4.375  11.404  10.124 -1.8613 -0.9647 -2.1228
67386SOL    HW212089   4.229  11.442  10.126 -1.2162  1.6637 -1.2206
67387SOL     OW12090   7.733   3.647   5.532 -0.9607 -0.1693  0.1117
67387SOL    HW112091   7.688   3.731   5.533 -0.8362 -0.0889  1.3039
67387SOL    HW212092   7.693   3.598   5.460 -1.5037  0.6609 -0.1530
67388SOL     OW12093   2.061   9.063   2.147 -0.2827  0.6122  0.7580
67388SOL    HW112094   2.048   9.155   2.128  0.5719  0.0538 -3.3922
67388SOL    HW212095   1.973   9.027   2.155 -0.7802  1.1718 -1.5819
67389SOL     OW12096   3.833   0.016   9.149 -0.4276  0.0734  0.0359
67389SOL    HW112097   3.788   0.022   9.233  0.7378  0.1015  0.6771
67389SOL    HW212098   3.915  -0.029   9.169 -0.1399  0.0743 -1.0923
67390SOL     OW12099   2.985   8.569  12.175 -0.0041 -0.3226  0.1317
67390SOL    HW112100   2.996   8.605  12.263 -0.6776  1.1794 -0.3606
67390SOL    HW212101   2.929   8.632  12.130  1.6217 -0.1903 -1.8722
67391SOL     OW12102   0.467  13.223  11.519  0.0465 -0.0842  0.4127
67391SOL    HW112103   0.562  13.222  11.516  0.0888 -3.0934 -0.1959
67391SOL    HW212104   0.446  13.249  11.608  1.3530  1.6471  0.2761
67392SOL     OW12105   5.959  11.811   2.774  0.0507 -0.2547 -0.1247
67392SOL    HW112106   6.014  11.772   2.842  1.2106  1.1329 -0.2194
67392SOL    HW212107   5.933  11.896   2.809 -0.0836  0.0985 -1.0393
67393SOL     OW12108   5.825  13.310   5.395 -0.1290 -0.2379 -0.4909
67393SOL    HW112109   5.831  13.337   5.487 -0.1866 -0.1615 -0.5096
67393SOL    HW212110   5.915  13.286   5.371  0.0349  0.5330 -0.6589
67394SOL     OW12111  10.285  12.229   1.921  0.2962 -0.1711 -0.0464
67394SOL    HW112112  10.189  12.231   1.922  0.2923 -0.2666 -0.1474
67394SOL    HW212113  10.311  12.244   2.012  0.2017  0.7174 -0.1537
67395SOL     OW12114  11.159  10.143   7.695 -0.1160 -0.3240 -0.2580
67395SOL    HW112115  11.143  10.235   7.673 -0.7020 -0.5948 -1.0113
67395SOL    HW212116  11.197  10.146   7.783  1.9861  0.7647 -1.1468
67396SOL     OW12117   8.225   9.250   1.806  0.1683 -0.1445  0.2520
67396SOL    HW112118   8.196   9.198   1.731 -0.5710  2.7026 -1.5954
67396SOL    HW212119   8.170   9.220   1.878 -0.9686 -1.1793 -0.9846
67397SOL     OW12120  11.861   1.811   6.212  0.5172 -0.2593 -0.8599
67397SOL    HW112121  11.897   1.823   6.300  2.0009 -1.2913 -1.2838
67397SOL    HW212122  11.827   1.721   6.213 -0.3140  0.0518 -1.0571
67398SOL     OW12123   1.899   4.810  12.397 -0.1784 -0.5052  0.4840
67398SOL    HW112124   1.961   4.755  12.350 -1.2484 -1.1329 -0.2435
67398SOL    HW212125   1.827   4.823  12.335 -0.1566  1.3557  0.8041
67399SOL     OW12126  10.365   2.366   0.484  0.3056  0.0517 -0.3786
67399SOL    HW112127  10.439   2.367   0.545 -1.3299  1.5386  1.7701
67399SOL    HW212128  10.330   2.277   0.491  0.7567 -0.0963  0.0874
67400SOL     OW12129   5.784   8.025   1.989 -0.4977  0.9764  0.3871
67400SOL    HW112130   5.774   8.106   2.040 -1.5754  2.7323 -2.4218
67400SOL    HW212131   5.844   8.048   1.918  0.6869 -1.2895  0.5627
67401SOL     OW12132   8.079   4.225   3.961  0.4764  0.0650 -1.0685
67401SOL    HW112133   8.172   4.231   3.938  1.0298 -0.1914  0.9156
67401SOL    HW212134   8.071   4.143   4.010 -0.0771  1.5884  1.5926
67402SOL     OW12135   0.329   2.975   7.173  1.0464 -0.4403  0.1025
67402SOL    HW112136   0.392   3.047   7.168  2.0585 -1.2282  0.9054
67402SOL    HW212137   0.261   2.997   7.110  2.4434  0.1519 -1.2558
67403SOL     OW12138   4.638   6.512  10.109 -0.1395  0.2551 -0.1432
67403SOL    HW112139   4.612   6.593  10.152 -0.0762 -0.1477  0.6823
67403SOL    HW212140   4.562   6.487  10.056  0.2734  1.4624 -1.3666
67404SOL     OW12141  10.836  10.970   5.026 -0.6883  0.0204  0.0722
67404SOL    HW112142  10.832  10.888   4.978 -2.2074  0.4689 -0.6172
67404SOL    HW212143  10.922  10.969   5.067 -0.3765 -1.5576 -0.5396
67405SOL     OW12144   8.843  12.896   2.914 -0.1067 -0.0508  0.0044
67405SOL    HW112145   8.817  12.944   2.835 -0.1824 -0.6655 -0.3458
67405SOL    HW212146   8.914  12.948   2.952 -0.2932  0.4196 -0.2843
67406SOL     OW12147  11.989  13.155   5.811 -0.6401 -0.4293  0.1684
67406SOL    HW112148  11.966  13.071   5.851 -0.8730  0.6514  2.4897
67406SOL    HW212149  12.055  13.133   5.745 -0.1183 -2.3530  1.2528
67407SOL     OW12150   3.956   0.541   4.207 -0.0540  0.1273  0.1233
67407SOL    HW112151   3.888   0.607   4.217  0.0062  0.1813  0.1737
67407SOL    HW212152   4.038   0.586   4.228  0.1575  0.4263 -1.2112
67408SOL     OW12153   0.240   2.401   6.353  0.3803  0.3683  0.3585
67408SOL    HW112154   0.324   2.379   6.394  0.6658 -0.1871 -0.4801
67408SOL    HW212155   0.259   2.401   6.259 -1.0214 -2.0996 -0.0214
67409SOL     OW12156  10.608   7.391   4.887 -0.1506 -0.1623  0.3754
67409SOL    HW112157  10.585   7.472   4.933 -1.3829  0.5083 -1.3165
67409SOL    HW212158  10.699   7.404   4.860 -0.1019  0.3509  0.7646
67410SOL     OW12159   5.872   2.162  12.955  0.1518 -0.1079 -0.1511
67410SOL    HW112160   5.827   2.114  13.025  0.0800 -0.4090 -0.4020
67410SOL    HW212161   5.859   2.109  12.877 -0.7805  0.7968 -0.6450
67411SOL     OW12162   8.834   0.733  10.017 -0.3389  0.7288  0.2727
67411SOL    HW112163   8.910   0.679  10.039 -2.1810 -2.9801 -1.5926
67411SOL    HW212164   8.872   0.815   9.986  2.9809 -1.0272 -0.8135
67412SOL     OW12165  10.181  10.096   6.350 -0.2476 -0.5851 -0.2794
67412SOL    HW112166  10.239  10.173   6.353 -0.2134 -0.6531  1.3535
67412SOL    HW212167  10.227  10.035   6.291  0.8184 -0.2155  0.1337
67413SOL     OW12168  13.000   8.347   5.708 -0.1189  0.1919  0.1684
67413SOL    HW112169  13.023   8.439   5.722 -0.4163  0.6444 -1.9790
67413SOL    HW212170  13.084   8.304   5.693 -0.1013  0.4965 -0.6761
67414SOL     OW12171   4.639   5.336   6.067  0.4414 -0.1400  0.1624
67414SOL    HW112172   4.672   5.418   6.104 -0.5495 -0.0315  0.8327
67414SOL    HW212173   4.710   5.306   6.010  1.1733  0.7318  0.5785
67415SOL     OW12174   3.497   7.203   4.381  0.0135  0.2385 -0.4256
67415SOL    HW112175   3.557   7.249   4.323 -1.2859  2.3259 -0.2028
67415SOL    HW212176   3.420   7.183   4.327 -0.5950  0.8755  0.1877
67416SOL     OW12177  12.996   0.693   9.008 -0.7623  0.1758 -0.4485
67416SOL    HW112178  12.995   0.698   9.103 -1.9926  1.2057 -0.4920
67416SOL    HW212179  12.988   0.784   8.979 -1.6965 -0.2340 -1.5240
67417SOL     OW12180   9.800   0.875   9.600  0.0959 -0.0464  0.3209
67417SOL    HW112181   9.722   0.850   9.650 -0.2961  2.0043  0.8458
67417SOL    HW212182   9.779   0.963   9.567  1.1662 -0.5084 -1.7474
67418SOL     OW12183  12.329   7.111   6.359 -0.5193 -0.2726 -0.3429
67418SOL    HW112184  12.283   7.125   6.442 -0.5619 -0.3261 -0.3573
67418SOL    HW212185  12.298   7.026   6.329 -0.0324 -0.5433 -0.1038
67419SOL     OW12186   1.707  12.677  10.553  0.1939  0.0190  0.4888
67419SOL    HW112187   1.719  12.667  10.648 -1.3880 -0.8087  0.6424
67419SOL    HW212188   1.731  12.592  10.517  0.8196  0.3424  0.1285
67420SOL     OW12189   4.347   0.414   1.139  0.1425  0.0313  0.1028
67420SOL    HW112190   4.361   0.482   1.074  1.0957  0.0246  0.2825
67420SOL    HW212191   4.432   0.402   1.180 -0.5960  0.5958  1.9014
67421SOL     OW12192   6.812  10.598   6.670 -0.3943  0.0670  0.7804
67421SOL    HW112193   6.771  10.514   6.650  0.2473  0.2040 -1.3650
67421SOL    HW212194   6.742  10.650   6.708 -1.7948 -0.3231 -1.0879
67422SOL     OW12195   0.906   9.170   3.645  0.0818 -0.2404  0.0526
67422SOL    HW112196   0.911   9.246   3.703 -1.1236  0.6996 -1.0192
67422SOL    HW212197   0.853   9.107   3.694  1.3688 -0.5824  1.0900
67423SOL     OW12198  10.830   5.660   2.388 -0.5110  0.0645  0.2801
67423SOL    HW112199  10.876   5.580   2.413  0.8905  1.0275  0.8803
67423SOL    HW212200  10.814   5.650   2.294  0.0762 -0.7061  0.2526
67424SOL     OW12201   9.165   9.450  10.444  0.7628  0.3143  0.5760
67424SOL    HW112202   9.179   9.364  10.404 -0.4514 -0.1713  1.1400
67424SOL    HW212203   9.076   9.446  10.480  1.0614  1.4507  1.5090
67425SOL     OW12204  12.198  10.274   8.130 -0.1639 -0.6105 -0.2776
67425SOL    HW112205  12.163  10.296   8.044  0.7339 -1.6312 -0.9205
67425SOL    HW212206  12.173  10.183   8.144  0.5256 -0.7463  0.1195
67426SOL     OW12207   9.103   7.295   0.669 -0.2956 -0.2473  0.0523
67426SOL    HW112208   9.041   7.349   0.717 -0.5276 -1.1159  0.7486
67426SOL    HW212209   9.053   7.218   0.643 -0.2547  0.2863 -1.8165
67427SOL     OW12210   9.422   7.125   6.128 -0.0630  0.1406 -0.5539
67427SOL    HW112211   9.438   7.081   6.044  0.0613  2.5775 -1.9021
67427SOL    HW212212   9.339   7.171   6.115  0.7104  1.7683  0.0942
67428SOL     OW12213  12.701   4.727   6.940  0.0733 -0.3866 -0.1118
67428SOL    HW112214  12.736   4.800   6.890 -3.1112  0.4237 -1.3623
67428SOL    HW212215  12.607   4.729   6.925 -0.5029 -3.0346  2.1414
67429SOL     OW12216   8.487   8.469   3.690 -0.3995  0.1059 -0.0303
67429SOL    HW112217   8.540   8.434   3.762 -1.5437 -0.3218  0.6435
67429SOL    HW212218   8.486   8.563   3.705  0.7034  0.1884 -0.4357
67430SOL     OW12219  12.962   0.053   6.777  0.5988  0.4067  0.2188
67430SOL    HW112220  12.898   0.070   6.847  0.0610 -0.5003 -0.0334
67430SOL    HW212221  13.012   0.134   6.770  0.1258  0.7903  1.1045
67431SOL     OW12222   4.150   3.635   7.102  0.1587 -0.4128  0.0559
67431SOL    HW112223   4.202   3.650   7.023 -0.2117  0.7627  0.0088
67431SOL    HW212224   4.060   3.628   7.071  0.1209 -1.0008  0.2800
67432SOL     OW12225  11.942   0.938   8.715 -0.1700 -0.2034  0.0367
67432SOL    HW112226  11.897   0.973   8.792 -1.0086  0.5864 -0.7927
67432SOL    HW212227  12.025   0.903   8.750 -0.4312  0.3392  1.2579
67433SOL     OW12228   9.255  11.184   8.266  0.4301  0.3680 -0.1249
67433SOL    HW112229   9.333  11.155   8.220 -0.1041  0.2206 -0.9559
67433SOL    HW212230   9.184  11.174   8.203 -0.2552  0.5715  0.5856
67434SOL     OW12231   9.104  11.758   5.876  0.2922 -0.0067  0.1512
67434SOL    HW112232   9.037  11.756   5.808  0.9024 -0.6735 -0.4590
67434SOL    HW212233   9.134  11.849   5.878  0.9645 -0.1682 -1.2109
67435SOL     OW12234   9.625   9.512   8.312  0.1180  0.7227  0.4218
67435SOL    HW112235   9.695   9.517   8.247  1.5038  0.2216  1.8060
67435SOL    HW212236   9.655   9.569   8.383 -0.6661  0.1539  1.2261
67436SOL     OW12237   7.127   9.083  12.874  0.3421  0.0221  0.5971
67436SOL    HW112238   7.154   9.167  12.912  2.1181  0.4643 -1.4356
67436SOL    HW212239   7.031   9.086  12.877  0.3746  1.5673  1.6942
67437SOL     OW12240   2.247   9.002   3.781  0.3291  0.1938 -0.7673
67437SOL    HW112241   2.276   8.930   3.725  0.5078 -0.4761  0.1577
67437SOL    HW212242   2.158   9.021   3.752 -0.3411 -1.5176  0.0456
67438SOL     OW12243   1.525   7.674   7.516 -0.1409  0.1251 -0.3096
67438SOL    HW112244   1.621   7.675   7.516 -0.1022 -0.5700 -1.6741
67438SOL    HW212245   1.501   7.703   7.604  1.3138  0.4012  0.0338
67439SOL     OW12246   3.451  10.628   2.675  0.3115  0.3937  0.2072
67439SOL    HW112247   3.357  10.644   2.665  0.6443  1.9598 -0.8382
67439SOL    HW212248   3.472  10.566   2.606  0.2099  0.7917 -0.1868
67440SOL     OW12249   3.963   9.203   2.335 -0.7062 -0.3123 -0.2219
67440SOL    HW112250   4.039   9.174   2.285 -0.1732 -0.8177  0.8556
67440SOL    HW212251   3.979   9.171   2.424 -1.4985  0.8044  0.3441
67441SOL     OW12252  10.450   6.757   4.136 -0.0785  0.2775  0.3051
67441SOL    HW112253  10.521   6.819   4.127  0.1037  0.1945  1.0999
67441SOL    HW212254  10.371   6.810   4.134  0.1021  0.6370  1.7135
67442SOL     OW12255   3.340   1.649   6.136 -0.3332  0.6384  0.3863
67442SOL    HW112256   3.354   1.674   6.044 -0.9196  0.6295  0.2957
67442SOL    HW212257   3.271   1.707   6.166 -2.9950 -1.9648 -0.3154
67443SOL     OW12258   8.926   9.442  10.882 -0.5671 -0.1936 -0.5259
67443SOL    HW112259   8.994   9.457  10.948 -0.4306  0.3480 -0.7827
67443SOL    HW212260   8.851   9.411  10.933 -0.2636 -0.3906 -0.1892
67444SOL     OW12261   1.320   0.191   6.611  0.1140 -0.7943 -0.4716
67444SOL    HW112262   1.231   0.213   6.585  1.1095  1.0446 -2.6088
67444SOL    HW212263   1.326   0.219   6.702 -0.4239  2.8298 -1.3967
67445SOL     OW12264   6.885   1.040  11.144  0.2634  0.1663 -0.0548
67445SOL    HW112265   6.975   1.006  11.137 -0.6577 -2.4387 -0.3827
67445SOL    HW212266   6.895   1.135  11.138  2.9542 -0.0606 -0.5265
67446SOL     OW12267   7.460   8.596  12.839 -0.4685  0.5517 -0.3566
67446SOL    HW112268   7.498   8.579  12.926  1.8779  1.7282 -1.0580
67446SOL    HW212269   7.463   8.691  12.830 -1.0790  0.4744 -1.5594
67447SOL     OW12270   6.509   8.750   0.610  0.0403  0.3914  0.7097
67447SOL    HW112271   6.523   8.675   0.668  0.2042  0.3481  0.6134
67447SOL    HW212272   6.433   8.725   0.557  0.2279  0.2019  0.5278
67448SOL     OW12273   6.294   7.144  11.563  0.1392 -0.2915 -0.4947
67448SOL    HW112274   6.299   7.236  11.587  0.0057 -0.4339  0.1090
67448SOL    HW212275   6.230   7.141  11.492  0.1689  0.0824 -0.5367
67449SOL     OW12276   7.875   5.342  11.123 -0.2739 -0.2506 -0.2019
67449SOL    HW112277   7.898   5.314  11.212  1.2289 -1.3116 -0.8821
67449SOL    HW212278   7.949   5.315  11.069 -1.3640 -0.0785 -1.8729
67450SOL     OW12279   5.484   3.054   5.346 -0.8956  0.0652 -0.8389
67450SOL    HW112280   5.494   3.046   5.441 -0.9905  1.2281 -0.7065
67450SOL    HW212281   5.406   3.108   5.335 -0.9014 -0.0906 -1.5815
67451SOL     OW12282   6.145   9.746   5.603  0.8047  0.2443  0.2713
67451SOL    HW112283   6.076   9.767   5.665 -0.0279 -0.9163 -0.2366
67451SOL    HW212284   6.108   9.678   5.547  2.9869 -1.8713  1.2161
67452SOL     OW12285   2.347   8.215   4.648  0.4431 -0.6938 -0.3595
67452SOL    HW112286   2.291   8.138   4.661 -0.9370  0.0516 -1.6365
67452SOL    HW212287   2.350   8.258   4.733  0.1054 -1.4195  0.0261
67453SOL     OW12288   0.423   9.252   7.574 -0.1986 -0.3945  0.3532
67453SOL    HW112289   0.401   9.314   7.505 -1.2945 -1.5090 -0.3227
67453SOL    HW212290   0.511   9.279   7.603 -0.1867  0.7634 -0.6902
67454SOL     OW12291   1.386   6.061   7.323 -0.0756 -0.1540 -0.4247
67454SOL    HW112292   1.433   5.978   7.318  0.9509  0.3504  0.6205
67454SOL    HW212293   1.348   6.071   7.235  1.0934 -0.9588 -1.0585
67455SOL     OW12294   9.123  12.244   4.258  0.0464  0.6666  0.0479
67455SOL    HW112295   9.160  12.222   4.172 -1.2258  2.0596 -0.8936
67455SOL    HW212296   9.059  12.312   4.241 -0.9783  0.2836  1.9963
67456SOL     OW12297   0.372   2.869   5.577  0.0519  0.0785  0.1835
67456SOL    HW112298   0.356   2.918   5.496  0.4974  1.8793  1.1367
67456SOL    HW212299   0.360   2.777   5.552 -0.2380  0.6121 -1.8141
67457SOL     OW12300   3.790   8.035  12.750 -0.2762 -0.0026 -0.5838
67457SOL    HW112301   3.828   8.053  12.836 -1.3132 -0.8683  0.0932
67457SOL    HW212302   3.768   7.942  12.753 -0.7675  0.0650 -1.6128
67458SOL     OW12303   0.286   4.909   3.178 -0.1491 -0.1451 -0.1998
67458SOL    HW112304   0.207   4.947   3.215  0.6917  0.8613  0.6484
67458SOL    HW212305   0.357   4.944   3.233  0.8484 -1.2643 -0.7427
67459SOL     OW12306   0.435   7.559   0.168  0.2722 -0.0090 -1.0617
67459SOL    HW112307   0.378   7.529   0.239  0.7216 -2.4269 -1.6309
67459SOL    HW212308   0.512   7.594   0.212 -0.0265 -0.2484 -0.3384
67460SOL     OW12309   7.912   6.073  12.518 -0.4602 -0.2283  0.3821
67460SOL    HW112310   7.932   6.131  12.591 -0.4443 -0.5264  0.6191
67460SOL    HW212311   7.835   6.112  12.476 -1.3201 -0.7689  1.3883
67461SOL     OW12312   7.102   1.810  10.757  0.0531 -0.2514  0.4123
67461SOL    HW112313   7.165   1.766  10.700 -2.2458 -1.6627 -1.2462
67461SOL    HW212314   7.097   1.900  10.723 -1.7842 -1.2267 -2.3221
67462SOL     OW12315   8.153   1.076   4.945  0.0252 -0.3741  0.1170
67462SOL    HW112316   8.158   1.069   4.850  0.1660  0.0604  0.0883
67462SOL    HW212317   8.216   1.013   4.978 -2.6376 -3.3741  0.0265
67463SOL     OW12318  11.082   0.901   5.086  0.1213  0.2155 -0.0024
67463SOL    HW112319  11.036   0.967   5.035  0.5566  0.4895 -0.0435
67463SOL    HW212320  11.057   0.918   5.176  0.2082  0.4171 -0.0168
67464SOL     OW12321   4.381   6.862   1.148 -0.0020  0.0820 -0.2604
67464SOL    HW112322   4.312   6.795   1.153  0.0539 -0.1490 -1.9356
67464SOL    HW212323   4.405   6.864   1.056  0.6088  1.8229 -0.0970
67465SOL     OW12324   5.704   8.262  10.922 -0.0756  0.0071 -0.5711
67465SOL    HW112325   5.659   8.190  10.879 -0.5306 -0.4657  0.6443
67465SOL    HW212326   5.669   8.263  11.011  2.0510 -0.1714  0.3360
67466SOL     OW12327   9.789  12.224   7.708  0.3152 -0.0062 -0.2032
67466SOL    HW112328   9.699  12.244   7.733  1.0089  1.2574  1.4529
67466SOL    HW212329   9.799  12.131   7.725 -0.1777  0.2020  1.3649
67467SOL     OW12330   5.788   0.870   2.642  0.1744  0.5609  0.3195
67467SOL    HW112331   5.743   0.786   2.648 -1.8656  1.5220 -0.7408
67467SOL    HW212332   5.783   0.894   2.550  1.1074  1.6668  0.5309
67468SOL     OW12333   3.251  11.855   2.291 -0.0882 -0.4363 -0.2371
67468SOL    HW112334   3.247  11.817   2.379 -1.4557 -0.8109 -0.4321
67468SOL    HW212335   3.303  11.934   2.302 -0.5916 -0.2425  1.0119
67469SOL     OW12336  10.780   2.423   7.533  0.5353  0.1677 -0.2516
67469SOL    HW112337  10.842   2.353   7.555 -0.1424  0.3178  2.5923
67469SOL    HW212338  10.833   2.490   7.490  2.0343 -0.4383  0.5680
67470SOL     OW12339   1.066   8.007  10.903  0.2062  0.1143 -0.1016
67470SOL    HW112340   1.084   7.996  10.996 -0.1147  1.0640  0.0784
67470SOL    HW212341   1.142   7.969  10.859  0.8013  0.5149  0.5688
67471SOL     OW12342   3.281   8.806  12.510 -0.4061 -0.2449 -0.2676
67471SOL    HW112343   3.263   8.764  12.593 -2.6639 -1.1917 -1.1456
67471SOL    HW212344   3.321   8.738  12.456 -0.9348 -0.2949 -0.6114
67472SOL     OW12345  10.909   9.651  10.716  0.3067 -0.3909  0.1769
67472SOL    HW112346  10.815   9.640  10.732  0.3500 -1.8255 -0.3461
67472SOL    HW212347  10.913   9.686  10.627  0.2676  0.1333  0.3766
67473SOL     OW12348   6.158   0.295   1.341 -0.5379 -0.6947 -0.1113
67473SOL    HW112349   6.172   0.221   1.401 -0.1165 -0.1902  0.4218
67473SOL    HW212350   6.068   0.324   1.359 -0.8271 -1.2787 -0.5613
67474SOL     OW12351   6.207   6.049   0.233 -0.2342  0.1093 -0.7601
67474SOL    HW112352   6.299   6.024   0.223 -0.2404 -0.1485 -0.1915
67474SOL    HW212353   6.168   6.032   0.147  0.3971  0.8534 -1.2006
67475SOL     OW12354   9.977   8.004   7.993 -0.5039  0.8263  0.3383
67475SOL    HW112355   9.895   8.048   8.016 -1.0342  0.2424 -0.3721
67475SOL    HW212356  10.009   8.053   7.917  0.4528  1.8139  1.3569
67476SOL     OW12357   6.848   3.887   0.900 -0.0387 -0.1754 -0.0054
67476SOL    HW112358   6.873   3.893   0.992  0.4408 -2.2297  0.0594
67476SOL    HW212359   6.761   3.927   0.896  0.9110  2.1389  0.8183
67477SOL     OW12360   4.751  11.824   9.790 -0.0789  0.3791  0.2116
67477SOL    HW112361   4.827  11.781   9.829 -0.6738  0.5635  1.6358
67477SOL    HW212362   4.698  11.752   9.754 -0.6575 -0.0440  1.8364
67478SOL     OW12363   5.850   6.821  11.325  0.5668 -0.1739  0.3942
67478SOL    HW112364   5.795   6.834  11.401 -0.0369 -1.6567  0.2413
67478SOL    HW212365   5.803   6.863  11.253 -0.5747 -1.6992  0.2004
67479SOL     OW12366   1.932   6.624   3.951 -0.0298 -0.1413 -0.0772
67479SOL    HW112367   1.964   6.607   4.040 -1.9440 -0.7021  0.5491
67479SOL    HW212368   1.945   6.718   3.939  0.0895 -0.0255  0.8548
67480SOL     OW12369  10.570   1.684   2.580 -0.0478 -0.0839  0.1779
67480SOL    HW112370  10.540   1.770   2.609 -0.3944 -0.1796  0.1074
67480SOL    HW212371  10.566   1.629   2.658 -0.7573 -0.2817  0.0098
67481SOL     OW12372   6.727   4.856  12.508  0.2674 -0.0816  0.1115
67481SOL    HW112373   6.648   4.843  12.561  0.3352  0.0070  0.2352
67481SOL    HW212374   6.705   4.927  12.448  0.0383 -0.4779 -0.2812
67482SOL     OW12375   8.442   5.936   4.059  0.7589  0.2013  0.5336
67482SOL    HW112376   8.351   5.960   4.076  1.2979  3.0416 -0.1370
67482SOL    HW212377   8.437   5.865   3.995 -0.9868  0.5270  0.2778
67483SOL     OW12378  11.386  12.265  13.253  0.1890  0.3221 -0.2844
67483SOL    HW112379  11.392  12.183  13.204 -0.4052 -0.1979  0.4847
67483SOL    HW212380  11.467  12.312  13.232 -0.8608  1.0391 -3.3467
67484SOL     OW12381   4.997   1.557   7.731 -1.0428  0.5801  0.2084
67484SOL    HW112382   4.993   1.651   7.711 -2.6697  0.5396  0.2150
67484SOL    HW212383   5.080   1.546   7.778  0.6244  1.4852 -2.3176
67485SOL     OW12384   1.038  12.399   6.500  0.1910 -0.6373 -0.9121
67485SOL    HW112385   1.032  12.310   6.535 -2.7934 -0.6497 -1.1951
67485SOL    HW212386   1.072  12.387   6.411  0.4203 -1.4155 -0.7294
67486SOL     OW12387   3.879   5.412   0.382 -0.1213 -0.3680 -0.6258
67486SOL    HW112388   3.949   5.393   0.318  1.3564 -0.6505  0.9892
67486SOL    HW212389   3.914   5.484   0.434 -0.6975 -1.0219  0.7099
67487SOL     OW12390   7.248   5.173   9.732  0.2009 -0.3294  0.2284
67487SOL    HW112391   7.170   5.121   9.717  0.0970 -0.1225  0.0531
67487SOL    HW212392   7.225   5.260   9.701  0.6808 -0.3936 -0.3182
67488SOL     OW12393   0.927  12.940   9.713  0.1966 -0.3020 -0.0593
67488SOL    HW112394   1.022  12.943   9.700  0.1854  0.1097 -0.0582
67488SOL    HW212395   0.914  12.877   9.784  0.5627  0.5990  0.8099
67489SOL     OW12396   0.159  11.176   6.157  0.6741 -0.4693  0.4827
67489SOL    HW112397   0.245  11.208   6.182  0.0456  0.3095  1.7555
67489SOL    HW212398   0.169  11.081   6.150  1.3650 -0.5153  1.8298
67490SOL     OW12399  10.841   7.648   3.679  0.0151  0.0548 -0.1552
67490SOL    HW112400  10.805   7.677   3.763  1.0887  0.8309  0.0669
67490SOL    HW212401  10.795   7.701   3.613  0.4968  0.8166  0.1023
67491SOL     OW12402   9.797   0.314   7.221 -0.4988  0.3501  0.0460
67491SOL    HW112403   9.850   0.253   7.169 -2.4851 -1.5498  0.0646
67491SOL    HW212404   9.816   0.290   7.312 -0.5798  0.3713  0.0687
67492SOL     OW12405   5.390   3.530  10.514  0.0697  0.0335  0.4728
67492SOL    HW112406   5.453   3.600  10.495 -0.8930  0.5185 -1.2428
67492SOL    HW212407   5.402   3.468  10.442 -1.2202  0.0295  0.2395
67493SOL     OW12408  12.683   4.428   1.735  0.5909  0.4712 -0.1010
67493SOL    HW112409  12.669   4.519   1.762  0.9096  0.3972  0.3166
67493SOL    HW212410  12.622   4.415   1.662  0.0931  0.8230  0.2508
67494SOL     OW12411   3.979  12.425  13.230  0.4654 -0.7791  0.5963
67494SOL    HW112412   3.934  12.421  13.315 -1.1697 -2.0984 -0.2781
67494SOL    HW212413   3.935  12.360  13.177  0.3895  1.0821 -1.7894
67495SOL     OW12414  13.286   7.044   2.933 -0.2022  0.0706 -0.3670
67495SOL    HW112415  13.222   7.108   2.902  0.2904  0.1633 -1.2174
67495SOL    HW212416  13.282   7.051   3.028  0.0334  1.5646 -0.4354
67496SOL     OW12417   9.285   7.646  12.997  0.4761  0.5181 -0.3442
67496SOL    HW112418   9.306   7.573  12.938  0.3430  0.7800 -0.7168
67496SOL    HW212419   9.195   7.670  12.974 -0.0485 -0.2302  0.8531
67497SOL     OW12420   0.168   9.968  10.844 -0.7201 -0.4112  0.8898
67497SOL    HW112421   0.234   9.932  10.784 -1.4427 -0.4469  0.0931
67497SOL    HW212422   0.200   9.945  10.931 -0.6684 -2.1895  0.4476
67498SOL     OW12423   2.315   3.666   8.635  0.2138 -0.2288 -0.2121
67498SOL    HW112424   2.257   3.735   8.668  0.5181  0.2657 -0.7084
67498SOL    HW212425   2.355   3.703   8.557  1.1499 -0.5944  0.0806
67499SOL     OW12426   2.317   6.994   0.013  0.4241 -0.3090 -0.0003
67499SOL    HW112427   2.395   6.955   0.053  1.1995  1.0614 -0.1082
67499SOL    HW212428   2.331   6.984  -0.081 -0.5117 -1.8425 -0.0211
67500SOL     OW12429  13.309   9.079  11.963 -0.0878  0.3433  1.3767
67500SOL    HW112430  13.331   9.010  12.025  1.2152  1.4199  2.1705
67500SOL    HW212431  13.389   9.130  11.954 -0.7077  1.1275 -0.0118
67501SOL     OW12432   0.283   0.005  11.343  0.2318 -0.3966  0.2782
67501SOL    HW112433   0.308  -0.043  11.264  1.4780  0.6775 -0.0161
67501SOL    HW212434   0.344  -0.026  11.410 -0.5418 -0.9804  0.7457
67502SOL     OW12435   2.298   5.120   9.949  0.3883  0.1735  0.1222
67502SOL    HW112436   2.393   5.110   9.937  0.2256 -1.6514 -0.0070
67502SOL    HW212437   2.274   5.047  10.006 -0.8225  1.1630  0.9212
67503SOL     OW12438   6.169   1.943   6.353 -0.0302  0.3702 -0.0705
67503SOL    HW112439   6.165   2.001   6.276  1.6722  0.4908 -0.0981
67503SOL    HW212440   6.261   1.919   6.360 -0.3747 -0.6712  1.1991
67504SOL     OW12441   1.761   1.222   4.789  0.1237 -0.6357  0.3459
67504SOL    HW112442   1.735   1.130   4.792  1.2861 -0.9848  0.2342
67504SOL    HW212443   1.838   1.224   4.733 -1.6377  0.8732 -2.2610
67505SOL     OW12444   7.500   7.099   9.279  0.3246 -0.0456  0.7351
67505SOL    HW112445   7.536   7.113   9.367  1.7812 -2.1501  0.5420
67505SOL    HW212446   7.575   7.111   9.221 -0.7824  2.1277 -0.3832
67506SOL     OW12447   2.949   5.014   7.386  0.2767 -0.5874 -0.1067
67506SOL    HW112448   2.950   5.010   7.482  0.7257 -0.2848 -0.0935
67506SOL    HW212449   2.868   5.059   7.364  1.1639  1.2735  0.2271
67507SOL     OW12450   0.312   4.605   4.060 -0.4538 -0.1308 -0.1084
67507SOL    HW112451   0.226   4.615   4.101 -0.4281 -0.4221  0.0141
67507SOL    HW212452   0.346   4.522   4.093  0.6864  0.8330  1.3207
67508SOL     OW12453   6.852   1.228   1.324  0.0687 -0.2073  0.2657
67508SOL    HW112454   6.872   1.316   1.293 -0.5270  0.4197  1.5768
67508SOL    HW212455   6.899   1.170   1.264  0.6202  0.9984 -0.5091
67509SOL     OW12456  11.609   8.004   0.017  0.1831  0.1910  0.1920
67509SOL    HW112457  11.533   7.950   0.041 -1.3594  0.7800 -2.8717
67509SOL    HW212458  11.575   8.093   0.017  1.8930  0.9056  2.1648
67510SOL     OW12459   2.554   8.438   9.417  0.1828 -0.2715 -0.8338
67510SOL    HW112460   2.555   8.402   9.328  1.2117 -0.8028 -0.6210
67510SOL    HW212461   2.464   8.468   9.430  0.5620  2.0865 -2.9739
67511SOL     OW12462   6.517   4.501  10.848 -0.1448  0.1431  0.2108
67511SOL    HW112463   6.580   4.458  10.906 -0.6885 -1.5471 -0.3968
67511SOL    HW212464   6.433   4.460  10.869 -0.6458  0.7531 -0.5550
67512SOL     OW12465   4.647   1.745  11.024  0.0103  0.1060  0.0471
67512SOL    HW112466   4.688   1.830  11.008  1.0606  0.2682  3.0227
67512SOL    HW212467   4.558   1.766  11.054  0.9893  0.4478  3.0733
67513SOL     OW12468  12.711   0.939  12.396  0.0261  0.1912  0.4049
67513SOL    HW112469  12.702   1.033  12.383 -0.2405  0.0822 -0.3056
67513SOL    HW212470  12.799   0.919  12.365 -1.0656 -0.2713 -2.8521
67514SOL     OW12471  12.337  11.397  11.180 -0.9296  0.5866 -0.0274
67514SOL    HW112472  12.418  11.356  11.152 -0.5145  0.1943  1.6333
67514SOL    HW212473  12.268  11.340  11.146 -0.3714 -1.6284  2.2892
67515SOL     OW12474  12.090  11.744   7.562  0.2321  0.2190 -0.0917
67515SOL    HW112475  12.080  11.650   7.575  0.0678  0.1657 -0.5889
67515SOL    HW212476  12.016  11.783   7.609 -0.2444  0.0392 -0.6776
67516SOL     OW12477   6.251  13.184  11.274  0.1096 -0.4995 -0.5825
67516SOL    HW112478   6.322  13.151  11.329 -0.9939 -0.6267  0.8043
67516SOL    HW212479   6.283  13.172  11.184  2.7914  1.5742 -0.0216
67517SOL     OW12480  10.460   7.584   2.293 -0.1319 -0.4981 -0.1937
67517SOL    HW112481  10.512   7.520   2.342 -0.5203 -0.6346  0.0427
67517SOL    HW212482  10.372   7.548   2.292 -0.6354  0.6281  1.0384
67518SOL     OW12483   2.076   0.436   8.701 -0.0859  0.6232 -0.1056
67518SOL    HW112484   2.046   0.408   8.615  0.1454 -0.6358  0.2117
67518SOL    HW212485   1.997   0.439   8.754 -0.0343 -0.0758  0.0232
67519SOL     OW12486   2.571  11.162  12.945 -0.6180  0.1186  0.1326
67519SOL    HW112487   2.535  11.081  12.908  0.2337  0.0324 -0.5289
67519SOL    HW212488   2.653  11.135  12.987 -0.3565  0.6255 -0.0460
67520SOL     OW12489   7.996   9.368   4.931  0.0435 -0.2943 -0.0127
67520SOL    HW112490   7.957   9.294   4.978 -0.4874 -0.3254 -0.4894
67520SOL    HW212491   8.039   9.420   4.999 -0.1034 -0.7180  0.4076
67521SOL     OW12492   3.324   7.127   3.619 -0.0667  0.3264 -0.8534
67521SOL    HW112493   3.319   7.216   3.584 -2.6874  0.9773  0.8879
67521SOL    HW212494   3.233   7.098   3.623  0.6704 -2.1765 -0.6539
67522SOL     OW12495  10.075   4.958   5.490 -0.0990 -0.1998 -0.6356
67522SOL    HW112496  10.049   4.974   5.580  2.1848  0.5546 -0.0232
67522SOL    HW212497  10.139   4.887   5.496  0.8184  0.5205 -1.4991
67523SOL     OW12498   8.628   4.210  11.699 -0.2117  0.1385 -0.1850
67523SOL    HW112499   8.581   4.131  11.672 -0.0775  0.7435 -2.4560
67523SOL    HW212500   8.717   4.196  11.667  0.0545  0.8035  0.2599
67524SOL     OW12501   0.744   2.949   0.394 -0.3178 -0.1342 -0.2745
67524SOL    HW112502   0.711   2.879   0.451  0.9904  0.5639  1.4353
67524SOL    HW212503   0.767   3.020   0.454  0.1113  1.0774 -1.8006
67525SOL     OW12504   0.025   6.888   8.116 -0.6439  0.1014 -0.0314
67525SOL    HW112505   0.043   6.802   8.079  1.8389  0.6864 -0.3675
67525SOL    HW212506   0.024   6.874   8.211 -0.1508 -0.2759 -0.0812
67526SOL     OW12507   7.673  10.694   4.042 -0.0839  0.1662  0.3899
67526SOL    HW112508   7.733  10.768   4.028  0.0753  0.4570  2.2335
67526SOL    HW212509   7.629  10.682   3.959 -0.3460  2.5604  0.1153
67527SOL     OW12510   4.723   8.280   3.851  0.0689  0.1191  0.7558
67527SOL    HW112511   4.631   8.262   3.832 -0.1924 -0.2975  2.3298
67527SOL    HW212512   4.729   8.375   3.854 -0.6474  0.1385  2.1401
67528SOL     OW12513   8.082   1.573   2.616 -0.3796  0.4508  0.0807
67528SOL    HW112514   8.064   1.521   2.695  0.5132 -0.9606 -0.6037
67528SOL    HW212515   8.011   1.551   2.556  0.9177 -1.4095 -0.8566
67529SOL     OW12516   2.659   5.293   1.050 -0.2709 -0.3345 -0.0532
67529SOL    HW112517   2.713   5.363   1.087 -2.0968  0.4271  1.2680
67529SOL    HW212518   2.664   5.223   1.115 -2.9529  0.7561  1.4531
67530SOL     OW12519  13.049   0.941   2.685 -0.3640  0.0797  0.3183
67530SOL    HW112520  12.960   0.905   2.692 -0.8860  0.9388 -1.4276
67530SOL    HW212521  13.078   0.950   2.776 -1.4032 -1.7616  0.9001
67531SOL     OW12522   5.394   2.487   6.139  0.3487  0.1673  0.0115
67531SOL    HW112523   5.351   2.569   6.114  1.7761  1.3262  1.1569
67531SOL    HW212524   5.328   2.420   6.124 -1.0272  1.5761 -0.5311
67532SOL     OW12525   0.768   7.058  12.811 -0.0937  0.1643  0.3028
67532SOL    HW112526   0.791   7.008  12.732 -0.7316  0.9375 -0.3890
67532SOL    HW212527   0.710   6.999  12.860  0.6504 -0.4890  0.4234
67533SOL     OW12528  11.720   0.992   7.885 -0.3915 -0.0544 -0.0837
67533SOL    HW112529  11.666   0.915   7.869 -0.4739 -0.3801  1.6219
67533SOL    HW212530  11.690   1.025   7.970 -0.2770  1.7914 -0.7199
67534SOL     OW12531   6.468   4.479  11.824 -0.1999 -0.1868  0.0894
67534SOL    HW112532   6.479   4.520  11.910 -0.2200 -1.4809  0.7323
67534SOL    HW212533   6.542   4.512  11.772  0.4308 -0.2215  0.9464
67535SOL     OW12534  13.073   0.142  12.307  0.8479 -0.1935  0.3262
67535SOL    HW112535  13.084   0.230  12.342  0.2693  0.1703 -0.3814
67535SOL    HW212536  13.058   0.087  12.384 -2.1038  0.8394  0.6091
67536SOL     OW12537   5.072   0.402   0.993  0.2700 -0.9729 -0.4650
67536SOL    HW112538   5.061   0.308   0.978  1.1803 -1.1181 -0.3073
67536SOL    HW212539   5.074   0.441   0.906 -0.3437 -1.0683 -0.5235
67537SOL     OW12540   9.562   5.773  12.037 -0.2750  0.6697  0.1196
67537SOL    HW112541   9.607   5.690  12.021 -0.5180  0.4467  0.5662
67537SOL    HW212542   9.601   5.834  11.974 -0.0679  0.2273 -0.1858
67538SOL     OW12543   0.858   5.833   5.373  0.2530  0.0322 -0.1505
67538SOL    HW112544   0.826   5.749   5.406  0.5151 -0.2191 -0.5345
67538SOL    HW212545   0.952   5.821   5.362  0.0285 -0.2963 -2.1359
67539SOL     OW12546   9.370  13.108   9.912  0.2582  0.4779 -0.8262
67539SOL    HW112547   9.455  13.075   9.941 -0.2770  0.2251  0.5558
67539SOL    HW212548   9.309  13.037   9.931 -0.5931  1.4539  0.2848
67540SOL     OW12549  12.592  12.198   3.166  0.2244  0.0265  0.3905
67540SOL    HW112550  12.633  12.229   3.246  1.9801 -0.0225 -0.4588
67540SOL    HW212551  12.561  12.277   3.122 -1.6895 -0.0090  1.5515
67541SOL     OW12552   7.430   3.515   2.736 -0.1617 -0.0212 -0.3440
67541SOL    HW112553   7.434   3.606   2.764  1.1458  0.4341 -1.8305
67541SOL    HW212554   7.417   3.520   2.641  0.5880 -1.3487 -0.5402
67542SOL     OW12555   6.828   3.462  12.140  0.1195  0.2498 -0.5929
67542SOL    HW112556   6.734   3.456  12.128  0.1712  1.1693 -1.6737
67542SOL    HW212557   6.862   3.485  12.053  1.2930  0.3876 -0.1233
67543SOL     OW12558   4.467  13.057   0.448 -0.0355 -0.5782  0.1896
67543SOL    HW112559   4.530  12.985   0.445  0.6800  0.0230  0.3521
67543SOL    HW212560   4.402  13.035   0.382  0.9393 -0.6755 -0.7754
67544SOL     OW12561   1.078  10.623   2.836 -0.0841  0.7773  0.6051
67544SOL    HW112562   1.006  10.564   2.812 -0.2329  0.1564  2.3715
67544SOL    HW212563   1.058  10.648   2.927  1.7947  0.7921  1.0570
67545SOL     OW12564  13.100  12.087   3.671  0.3277 -0.3206  0.3386
67545SOL    HW112565  13.136  12.069   3.758  0.7647  1.0047  0.4538
67545SOL    HW212566  13.133  12.175   3.649 -0.2616 -0.3922 -0.9097
67546SOL     OW12567   0.300  10.273  10.996  0.0227  0.2171  0.7193
67546SOL    HW112568   0.379  10.326  10.991  0.1613  0.0078  0.7070
67546SOL    HW212569   0.324  10.197  11.049  0.2080 -0.5110 -0.3679
67547SOL     OW12570  10.060   5.755  10.856 -0.9346  0.4215 -0.7259
67547SOL    HW112571   9.968   5.747  10.880 -0.8252  2.6081  0.7400
67547SOL    HW212572  10.108   5.741  10.937 -0.1162  1.2968 -1.0354
67548SOL     OW12573  12.987   9.482   6.030 -0.0624  0.1486 -0.6239
67548SOL    HW112574  12.929   9.412   6.060 -0.5119  1.2092  1.2270
67548SOL    HW212575  12.958   9.502   5.941  0.0054 -1.8933 -1.1405
67549SOL     OW12576   7.656   1.240   4.114  0.4844 -0.6530 -0.1762
67549SOL    HW112577   7.739   1.202   4.084  0.1893 -2.1299  0.7418
67549SOL    HW212578   7.607   1.257   4.034  1.4696 -0.2343 -0.7057
67550SOL     OW12579   7.596   1.550  12.598  0.2172 -0.1075 -0.5424
67550SOL    HW112580   7.621   1.616  12.535 -2.4432 -0.0947 -1.7205
67550SOL    HW212581   7.592   1.468  12.548 -1.2859 -0.2174 -0.2919
67551SOL     OW12582   5.356   8.451   9.524  0.3177 -0.4061  0.0140
67551SOL    HW112583   5.281   8.410   9.480 -0.0606  0.4511 -0.1686
67551SOL    HW212584   5.333   8.544   9.526  0.4544 -0.3925  1.7936
67552SOL     OW12585  11.504  11.786   7.553 -0.1082 -0.0420  0.4117
67552SOL    HW112586  11.455  11.716   7.595  0.9454 -1.7886 -1.1339
67552SOL    HW212587  11.454  11.866   7.573 -2.5572 -1.4814  0.3841
67553SOL     OW12588   8.919   8.185   3.998 -0.4972 -0.1507 -0.1154
67553SOL    HW112589   8.985   8.132   3.953 -1.3509  0.7847 -2.6035
67553SOL    HW212590   8.851   8.123   4.022  0.0332 -0.6882  0.0385
67554SOL     OW12591   8.543   9.321   0.509 -0.1936 -0.2996  0.5053
67554SOL    HW112592   8.527   9.394   0.568  1.5837  0.6433 -0.1085
67554SOL    HW212593   8.517   9.244   0.559 -1.1817  0.6621  1.5284
67555SOL     OW12594   0.624  12.155   0.359  0.0310 -0.1026 -0.0229
67555SOL    HW112595   0.632  12.075   0.307  0.2183  0.8530 -1.5261
67555SOL    HW212596   0.530  12.166   0.372  0.0481 -1.2085  1.2849
67556SOL     OW12597   9.135   8.196  10.624 -0.1776 -0.2899  0.5671
67556SOL    HW112598   9.073   8.148  10.679 -1.1029 -1.1969 -1.2024
67556SOL    HW212599   9.102   8.286  10.624 -1.7982 -0.8269 -0.6610
67557SOL     OW12600  11.786   7.482   5.954 -0.0371  0.1115  0.1959
67557SOL    HW112601  11.856   7.524   5.905 -1.0210  0.2827 -1.0985
67557SOL    HW212602  11.728   7.553   5.979 -0.4503 -0.1942  0.1073
67558SOL     OW12603  10.366   9.572   9.474  0.2336  0.5741  1.2082
67558SOL    HW112604  10.318   9.594   9.394  0.4328  1.1547  1.2404
67558SOL    HW212605  10.375   9.477   9.472  0.1247  0.5738  0.6028
67559SOL     OW12606  12.784   7.356   6.718 -0.3358 -0.2701 -0.6481
67559SOL    HW112607  12.862   7.320   6.759  0.1691  0.9343 -0.5143
67559SOL    HW212608  12.788   7.325   6.628  0.2967 -0.2300 -0.6398
67560SOL     OW12609   0.010   3.860   1.054 -0.4338 -0.5108 -0.3573
67560SOL    HW112610  -0.067   3.892   1.102  0.2297  0.9249 -0.1836
67560SOL    HW212611   0.009   3.765   1.067 -1.3184 -0.3535  0.9341
67561SOL     OW12612  12.291   5.548   9.662  0.7309  0.3189  0.4389
67561SOL    HW112613  12.305   5.471   9.716 -0.2458  1.6864  2.7792
67561SOL    HW212614  12.351   5.614   9.698  1.2926  0.8137 -1.2801
67562SOL     OW12615   4.675   6.151   5.458  0.0633  0.1442  0.2725
67562SOL    HW112616   4.689   6.232   5.507  0.3679  0.4205 -0.2714
67562SOL    HW212617   4.715   6.083   5.513 -0.1854  0.3602  0.7246
67563SOL     OW12618   9.484   2.638   2.850  0.4875  0.1363 -0.0419
67563SOL    HW112619   9.503   2.682   2.767  0.1384  1.5269  0.5855
67563SOL    HW212620   9.458   2.709   2.909 -0.8646 -1.0117  0.8035
67564SOL     OW12621   1.702   2.016   2.820 -0.1399 -0.2915 -0.7670
67564SOL    HW112622   1.728   2.053   2.735  2.0698 -0.5989 -0.3039
67564SOL    HW212623   1.754   2.066   2.883  0.4996 -2.0419  0.1393
67565SOL     OW12624   4.184   7.442   7.453  0.0471 -0.1339  0.3749
67565SOL    HW112625   4.155   7.529   7.477 -0.1676 -0.3775  1.0179
67565SOL    HW212626   4.279   7.444   7.465 -0.0183 -0.1468  0.9166
67566SOL     OW12627  11.205  13.072   0.533 -0.5203 -0.7645 -0.9587
67566SOL    HW112628  11.224  13.094   0.441  0.3924  1.8668 -0.2435
67566SOL    HW212629  11.208  13.157   0.578  0.1128 -2.1005  1.6921
67567SOL     OW12630   6.255   1.070  11.278  0.7809 -0.9286  0.0731
67567SOL    HW112631   6.334   1.075  11.224  1.0600 -1.0369  0.4680
67567SOL    HW212632   6.184   1.057  11.215  1.1745 -1.6933 -0.2244
67568SOL     OW12633  10.042   4.756   5.298  0.4338  0.0904 -0.3673
67568SOL    HW112634  10.080   4.798   5.220 -1.8800  1.0627 -1.0556
67568SOL    HW212635  10.016   4.829   5.354  0.0776 -0.5540  0.3197
67569SOL     OW12636  11.883  10.129   7.630 -0.0049  0.2715 -0.1491
67569SOL    HW112637  11.891  10.075   7.552  0.1549 -1.5446  1.0467
67569SOL    HW212638  11.793  10.116   7.659 -0.1977  1.2879 -0.2586
67570SOL     OW12639   2.819  12.135   4.155 -0.0879 -0.1245  0.4653
67570SOL    HW112640   2.798  12.087   4.075 -0.9357 -0.9886  1.1855
67570SOL    HW212641   2.772  12.089   4.224 -0.3758  1.3410  1.2917
67571SOL     OW12642  10.704   0.818   9.520 -0.1924  0.4917  0.0696
67571SOL    HW112643  10.679   0.771   9.599  0.2253  0.7785  0.3750
67571SOL    HW212644  10.621   0.842   9.479 -0.4656  1.9002  1.3541
67572SOL     OW12645   3.298  11.273  12.692  0.2463 -0.1975 -0.2469
67572SOL    HW112646   3.352  11.281  12.614  0.3079  2.1357 -0.0324
67572SOL    HW212647   3.221  11.224  12.663  1.1150 -0.9983 -1.2705
67573SOL     OW12648  12.664  12.051  12.709  0.5212  0.4041  0.0727
67573SOL    HW112649  12.687  11.960  12.721  0.3053  0.4777  1.1012
67573SOL    HW212650  12.679  12.068  12.616  1.1316 -0.5082  0.0011
67574SOL     OW12651   2.406   0.075   8.065  0.2552 -0.0581  0.0063
67574SOL    HW112652   2.331   0.128   8.089  0.0629  0.0445 -0.7976
67574SOL    HW212653   2.435   0.110   7.980 -0.0679 -1.4082 -0.7005
67575SOL     OW12654   6.479  11.578   8.907 -0.2748  0.1416  0.0443
67575SOL    HW112655   6.386  11.600   8.911 -0.4478 -0.2457 -1.2848
67575SOL    HW212656   6.484  11.489   8.942 -0.8225 -0.8420 -2.1982
67576SOL     OW12657   7.194   9.586   9.892  0.0062 -0.5580 -0.2812
67576SOL    HW112658   7.099   9.582   9.894 -0.0442 -0.3540 -1.3239
67576SOL    HW212659   7.220   9.518   9.830  0.3933  0.6884 -1.5630
67577SOL     OW12660   4.859   2.991  10.947 -0.2234 -0.0683 -0.0800
67577SOL    HW112661   4.863   2.907  10.901 -1.2181  0.5112 -1.3034
67577SOL    HW212662   4.818   3.050  10.884 -0.5241  1.0777  1.1439
67578SOL     OW12663   5.756   4.688   0.409 -0.2456  0.5827  0.3621
67578SOL    HW112664   5.744   4.594   0.425  0.0516 -0.3697 -3.8054
67578SOL    HW212665   5.839   4.709   0.450  0.6235 -1.5100 -0.2010
67579SOL     OW12666   7.477   9.063   2.682 -0.3028  0.1656 -1.0356
67579SOL    HW112667   7.449   9.147   2.647  0.6230  0.1334 -1.8782
67579SOL    HW212668   7.418   8.999   2.642 -0.6470  0.3522 -0.8296
67580SOL     OW12669  11.769   8.816   3.335  0.1398 -0.1841 -0.2547
67580SOL    HW112670  11.798   8.761   3.408  1.9511  2.1391  0.8924
67580SOL    HW212671  11.753   8.902   3.374 -2.3415  0.2658 -2.0210
67581SOL     OW12672   2.888   8.051   9.110  0.7451 -0.8079  0.2474
67581SOL    HW112673   2.936   8.113   9.056  3.4859 -1.0913  2.2005
67581SOL    HW212674   2.858   7.984   9.047  0.8953  0.5589 -1.3544
67582SOL     OW12675   0.132   2.183   4.908  0.1732 -0.0335 -0.4472
67582SOL    HW112676   0.210   2.138   4.874  0.4984  0.6617 -0.6571
67582SOL    HW212677   0.061   2.155   4.850  0.6536  0.8473 -1.4918
67583SOL     OW12678   4.710   6.452  10.407  0.2406 -0.1693 -0.1327
67583SOL    HW112679   4.624   6.420  10.379  0.3330 -0.1278 -0.4739
67583SOL    HW212680   4.695   6.541  10.438  0.2210 -0.0180 -0.5620
67584SOL     OW12681   7.837   2.392   7.628 -0.5918 -0.0978  0.4673
67584SOL    HW112682   7.898   2.432   7.566 -1.9465  0.5665 -0.4871
67584SOL    HW212683   7.754   2.437   7.613 -1.0219 -0.0508  2.6466
67585SOL     OW12684   1.137   5.849   0.951  0.0192 -0.4863 -0.6666
67585SOL    HW112685   1.194   5.803   0.889 -0.9286 -1.3598 -0.9228
67585SOL    HW212686   1.053   5.804   0.944  0.2753 -1.7579  2.4691
67586SOL     OW12687   9.451   0.814   1.045  0.4518  0.3327 -0.4255
67586SOL    HW112688   9.419   0.796   0.957 -0.0797  1.4920 -0.4864
67586SOL    HW212689   9.534   0.766   1.051 -0.4950 -1.4099 -0.8262
67587SOL     OW12690   6.923   9.666   2.758  0.3494 -0.6185  0.7359
67587SOL    HW112691   6.929   9.697   2.668 -0.6234 -1.1135  0.4930
67587SOL    HW212692   6.933   9.571   2.752 -1.7412 -0.8843  0.9067
67588SOL     OW12693  10.911   2.245  12.008  0.0829 -0.0014 -0.2888
67588SOL    HW112694  10.922   2.290  12.092  0.6308  0.5150 -0.6338
67588SOL    HW212695  10.830   2.281  11.971 -1.1349 -1.4723  0.7765
67589SOL     OW12696  11.638  13.068  11.032 -0.2793  0.5407 -0.0691
67589SOL    HW112697  11.664  13.096  10.945  0.0361 -0.7767 -0.4216
67589SOL    HW212698  11.715  13.024  11.068 -0.8745 -0.2473  0.2782
67590SOL     OW12699   3.169   6.062   2.004  0.1783  0.3227  0.5698
67590SOL    HW112700   3.238   6.093   1.945 -0.8808  0.2853 -0.7251
67590SOL    HW212701   3.194   5.972   2.024  0.6051  0.3679  0.2581
67591SOL     OW12702  10.447   9.329   3.614  0.1738 -0.2164 -0.5266
67591SOL    HW112703  10.519   9.390   3.601  0.3699 -0.5292 -0.9394
67591SOL    HW212704  10.412   9.315   3.526 -2.4253  2.3400 -0.0596
67592SOL     OW12705   3.806   1.175   0.444  0.3018  0.3624 -0.1945
67592SOL    HW112706   3.775   1.220   0.365 -1.5351  0.8455  0.7541
67592SOL    HW212707   3.756   1.214   0.515  2.1394  0.1632  1.2929
67593SOL     OW12708   4.975   6.125   1.688  0.3360  0.2348 -0.0771
67593SOL    HW112709   5.003   6.086   1.771  1.5969 -0.7715 -0.9382
67593SOL    HW212710   5.001   6.217   1.694 -0.9102  0.5472  1.1979
67594SOL     OW12711   3.271   6.467   5.746 -0.6214 -0.6359 -0.4653
67594SOL    HW112712   3.342   6.499   5.802  1.4073 -1.9933 -2.1088
67594SOL    HW212713   3.266   6.374   5.765  0.8561 -1.3680 -3.1552
67595SOL     OW12714   7.427   0.829   7.075  0.1371  0.0212 -0.9589
67595SOL    HW112715   7.436   0.860   6.985  2.7245  0.5753 -0.5935
67595SOL    HW212716   7.377   0.897   7.120  1.5038  1.2995 -1.3084
67596SOL     OW12717  12.431   4.175   3.158 -0.0412  0.0380 -0.1857
67596SOL    HW112718  12.455   4.133   3.241 -1.0050  0.0775  0.1303
67596SOL    HW212719  12.432   4.104   3.094 -0.1132 -0.1615  0.0326
67597SOL     OW12720   7.022   0.867   1.476 -0.6310  0.2689 -0.2340
67597SOL    HW112721   7.087   0.822   1.529 -0.5835 -0.3802 -0.8313
67597SOL    HW212722   6.948   0.806   1.473 -1.4319  1.1388  0.7349
67598SOL     OW12723   9.722  10.276   7.080 -0.8752 -0.0500  0.0831
67598SOL    HW112724   9.640  10.271   7.032 -0.3437 -3.3189 -0.7768
67598SOL    HW212725   9.783  10.319   7.020 -1.0569 -1.1401 -0.9312
67599SOL     OW12726   9.665   0.851   3.082 -0.4468  0.0099  0.1417
67599SOL    HW112727   9.746   0.805   3.104 -0.7120 -0.6077 -0.1528
67599SOL    HW212728   9.648   0.828   2.991 -1.2645 -0.3457  0.3734
67600SOL     OW12729   3.462   9.261  10.350 -0.4540  0.2361  0.0448
67600SOL    HW112730   3.465   9.203  10.426  1.3959  0.2108 -0.0056
67600SOL    HW212731   3.479   9.204  10.275  0.7623  0.7245 -0.0674
67601SOL     OW12732   0.271   2.321  12.453 -0.1159 -0.2744  0.2158
67601SOL    HW112733   0.330   2.246  12.464  1.4320  0.7306 -0.8451
67601SOL    HW212734   0.184   2.286  12.471  0.3754 -2.6651 -1.5455
67602SOL     OW12735   3.244  13.119   6.474  0.5052 -0.2201  0.0116
67602SOL    HW112736   3.234  13.049   6.410  0.9290  0.0894 -0.4019
67602SOL    HW212737   3.186  13.094   6.547 -0.8627 -0.0101 -0.9687
67603SOL     OW12738   0.763   9.694  10.650 -0.3644 -0.0760  0.5422
67603SOL    HW112739   0.695   9.642  10.692  0.3568 -0.3261  1.4304
67603SOL    HW212740   0.827   9.709  10.719  0.5089  0.1083 -0.2954
67604SOL     OW12741   0.050   1.322  10.363 -0.2291  0.4000 -0.1399
67604SOL    HW112742   0.012   1.255  10.419  1.8265 -0.6587  0.0855
67604SOL    HW212743   0.071   1.394  10.423  0.8173 -0.2328  0.2977
67605SOL     OW12744   7.420  12.461   8.378  0.4981 -0.7515 -0.2439
67605SOL    HW112745   7.409  12.556   8.385 -0.4646 -0.9816  1.9041
67605SOL    HW212746   7.458  12.448   8.291 -1.5193  1.4146 -1.5613
67606SOL     OW12747   6.243   0.036  10.044  0.4500 -0.5490  0.2984
67606SOL    HW112748   6.294   0.022   9.965  0.1691  1.3167 -0.2663
67606SOL    HW212749   6.239   0.132  10.053 -1.6707 -0.6708  1.1318
67607SOL     OW12750   8.624   6.803   4.309  1.0795 -0.2257 -0.5559
67607SOL    HW112751   8.709   6.771   4.277  2.1825  1.6938  0.3107
67607SOL    HW212752   8.631   6.800   4.404  0.6760  1.1908 -0.4661
67608SOL     OW12753   9.641   1.429   2.424 -0.4586 -0.3186 -0.1252
67608SOL    HW112754   9.581   1.501   2.401 -1.6221 -0.5912  1.8416
67608SOL    HW212755   9.635   1.422   2.519 -0.3487 -2.9834 -0.2375
67609SOL     OW12756   3.506  10.055   3.836 -0.5217 -0.0415 -0.4569
67609SOL    HW112757   3.435  10.098   3.788 -1.4040 -0.6231  0.2854
67609SOL    HW212758   3.461  10.002   3.902  0.6293  0.3118  0.6499
67610SOL     OW12759   9.693   2.262  12.903 -0.1018 -0.3680 -0.2425
67610SOL    HW112760   9.757   2.265  12.832 -0.2448 -1.4236 -0.4385
67610SOL    HW212761   9.716   2.183  12.952 -0.9738 -0.5134 -0.0499
67611SOL     OW12762   2.988   4.514   4.480  0.2030 -0.0772 -0.1167
67611SOL    HW112763   3.053   4.580   4.457  0.7766 -0.7408 -0.4669
67611SOL    HW212764   2.972   4.467   4.398 -0.1498 -0.4062  0.1382
67612SOL     OW12765   0.079   3.940   3.491  0.2726 -0.1504 -0.8928
67612SOL    HW112766   0.168   3.936   3.454  0.3343 -3.3263 -0.6945
67612SOL    HW212767   0.024   3.902   3.423 -0.5487 -0.5107 -0.0362
67613SOL     OW12768   5.705   1.161  11.187  0.4542 -0.7343  0.3448
67613SOL    HW112769   5.647   1.109  11.131 -3.0421 -0.3398  3.1926
67613SOL    HW212770   5.698   1.119  11.273  1.3736  1.6198  1.6528
67614SOL     OW12771   2.264  12.116   5.733  0.1713  0.0987 -0.2815
67614SOL    HW112772   2.345  12.087   5.691 -0.2216  0.3144 -1.2004
67614SOL    HW212773   2.199  12.114   5.663 -0.3947  0.9025  0.2180
67615SOL     OW12774  10.243  13.136   5.387  0.0602  0.3422 -0.1358
67615SOL    HW112775  10.285  13.146   5.473 -0.4460 -1.2658  0.3418
67615SOL    HW212776  10.158  13.097   5.407 -0.2305  0.3279 -1.3505
67616SOL     OW12777   0.160  11.972  13.288 -0.1171  0.1340  0.1775
67616SOL    HW112778   0.078  12.014  13.263 -0.2936 -0.4191 -0.2102
67616SOL    HW212779   0.204  11.953  13.204  0.4207  0.4601  0.3841
67617SOL     OW12780  10.538   6.253   9.718  0.1391  0.4952 -0.4008
67617SOL    HW112781  10.502   6.236   9.805  1.0236  1.8668  0.2780
67617SOL    HW212782  10.479   6.316   9.679  0.7850  1.3731  0.0037
67618SOL     OW12783   9.924   4.193   4.333 -0.1055 -0.3376 -0.3246
67618SOL    HW112784   9.914   4.276   4.380 -0.1744  0.1241 -1.1322
67618SOL    HW212785   9.925   4.127   4.401 -0.1843  0.3197  0.3277
67619SOL     OW12786   9.534  10.645   5.812  0.6052 -0.2191  0.1461
67619SOL    HW112787   9.582  10.676   5.735 -1.2558  1.6500 -0.3448
67619SOL    HW212788   9.593  10.661   5.885  1.4983  0.1780 -0.6377
67620SOL     OW12789   3.338  12.541   7.917 -0.0640  0.3399  0.2690
67620SOL    HW112790   3.302  12.609   7.860 -1.1372 -0.3248  0.1303
67620SOL    HW212791   3.298  12.460   7.886  0.9682 -0.3269  0.6202
67621SOL     OW12792   1.684   1.488   3.325 -0.2419 -0.3734 -0.4180
67621SOL    HW112793   1.665   1.540   3.246  0.3539 -0.8723 -0.9017
67621SOL    HW212794   1.625   1.413   3.318  0.4858 -0.9056 -0.8885
67622SOL     OW12795   6.269   4.180   0.173  0.2167  0.3588  0.1218
67622SOL    HW112796   6.241   4.173   0.264 -1.8954  1.5039 -0.3691
67622SOL    HW212797   6.189   4.171   0.122  1.3674 -0.4157 -1.6609
67623SOL     OW12798   7.474   8.821  10.232  0.2333 -0.4616  0.5182
67623SOL    HW112799   7.423   8.768  10.171  0.0990 -2.1360  1.9985
67623SOL    HW212800   7.564   8.794  10.217  0.2791 -0.3225  0.5430
67624SOL     OW12801   1.891   9.340   4.478 -0.3153 -0.1091  0.3049
67624SOL    HW112802   1.947   9.412   4.448 -1.6381  0.1474 -1.7446
67624SOL    HW212803   1.918   9.265   4.425 -0.8536 -0.3833  0.4112
67625SOL     OW12804  12.595   2.452  11.433 -0.0142  0.2513 -0.5896
67625SOL    HW112805  12.513   2.444  11.482 -0.2133  1.3954 -0.7301
67625SOL    HW212806  12.602   2.544  11.411  0.9986  0.0595 -1.1418
67626SOL     OW12807   4.158   9.865  11.528 -0.1643  0.5748  0.0057
67626SOL    HW112808   4.125   9.837  11.613 -0.2371  0.0291 -0.1948
67626SOL    HW212809   4.209   9.944  11.546  1.3652 -0.5481  0.8271
67627SOL     OW12810   4.045   7.882  11.086  0.0652  0.0850  0.0338
67627SOL    HW112811   4.036   7.975  11.107 -0.3245 -0.1214  0.7924
67627SOL    HW212812   4.032   7.878  10.991  0.3088  0.8301 -0.0365
67628SOL     OW12813   1.474   9.657  12.028  0.3412 -0.1563 -0.0988
67628SOL    HW112814   1.437   9.569  12.028 -0.0492 -0.0280 -2.1003
67628SOL    HW212815   1.401   9.714  12.052  0.4496 -0.3162  0.6286
67629SOL     OW12816  13.048   5.954   2.097  0.5083  0.0458  0.0520
67629SOL    HW112817  13.005   5.932   2.015  2.5641 -1.2893 -0.7433
67629SOL    HW212818  13.076   5.870   2.134  2.9290  0.8041  0.1748
67630SOL     OW12819  12.857   8.020   0.063 -0.0708  0.5909  0.4286
67630SOL    HW112820  12.823   8.066  -0.014  1.4742 -0.0526 -0.6942
67630SOL    HW212821  12.797   7.946   0.075  0.6881 -0.3740 -1.3443
67631SOL     OW12822   7.471  12.744   8.156 -0.5767 -0.1622 -0.2881
67631SOL    HW112823   7.511  12.710   8.076 -2.2464 -0.1017 -1.1772
67631SOL    HW212824   7.378  12.753   8.135 -1.5307 -2.3769  2.3989
67632SOL     OW12825   7.425   8.622   6.422 -0.2038 -0.4638 -0.1714
67632SOL    HW112826   7.452   8.697   6.473 -1.8047 -0.3319  0.5291
67632SOL    HW212827   7.332   8.635   6.407 -0.3805 -1.9902 -0.5858
67633SOL     OW12828   7.381   1.013   8.749 -0.0015 -0.1967  0.0871
67633SOL    HW112829   7.356   0.937   8.802 -0.2011 -0.2253 -0.0477
67633SOL    HW212830   7.399   0.977   8.662  0.4132 -0.1621  0.1570
67634SOL     OW12831  12.427   4.289  11.610 -0.2530  0.3448 -0.6922
67634SOL    HW112832  12.352   4.245  11.650 -0.0339 -1.1213 -1.7925
67634SOL    HW212833  12.423   4.263  11.517  1.6800  0.1190 -0.7599
67635SOL     OW12834   4.464   2.496  11.343 -0.4846  0.4139  0.2075
67635SOL    HW112835   4.501   2.411  11.318 -1.5279 -0.5518  1.7752
67635SOL    HW212836   4.511   2.520  11.423 -1.6315  0.2608  0.9504
67636SOL     OW12837   6.083   3.053   9.605 -0.2695 -0.3598  0.4461
67636SOL    HW112838   6.001   3.032   9.560 -0.1035 -0.5985  0.2497
67636SOL    HW212839   6.091   2.984   9.672 -0.3590 -0.1857  0.6380
67637SOL     OW12840   2.452  12.134  12.368 -0.0442  0.7204  0.2085
67637SOL    HW112841   2.475  12.208  12.424 -1.8997 -0.2264  2.4365
67637SOL    HW212842   2.498  12.060  12.408 -0.5782  0.1987 -0.1288
67638SOL     OW12843  12.476   1.344  12.220 -0.3968  0.1464 -0.1048
67638SOL    HW112844  12.476   1.335  12.125  1.0586 -2.0325  0.0397
67638SOL    HW212845  12.409   1.282  12.250  0.0918 -0.1613  0.3527
67639SOL     OW12846   8.063   0.198  11.127  0.5971 -0.1927 -0.2118
67639SOL    HW112847   8.088   0.239  11.045  2.5984 -0.9985 -0.0607
67639SOL    HW212848   8.143   0.198  11.180 -0.5561  0.0640  1.6552
67640SOL     OW12849   5.671   9.793   0.753  0.3933 -0.0030 -0.6489
67640SOL    HW112850   5.762   9.807   0.728  1.6449 -2.0363  2.2709
67640SOL    HW212851   5.656   9.857   0.823 -0.5517  0.5015 -1.2916
67641SOL     OW12852  11.075   3.346   4.840  0.0620 -0.3924  0.4256
67641SOL    HW112853  10.980   3.332   4.835  0.0709 -0.0386 -1.6086
67641SOL    HW212854  11.085   3.436   4.869 -0.1596 -0.8717  2.1212
67642SOL     OW12855   8.144   9.008   9.543  0.5779  0.4237  0.0384
67642SOL    HW112856   8.073   9.039   9.598  0.8029 -1.8425  1.7283
67642SOL    HW212857   8.223   9.021   9.596  1.1394  0.6493 -0.8332
67643SOL     OW12858   8.129   3.453   1.462  0.0051 -0.5131 -0.3534
67643SOL    HW112859   8.108   3.486   1.375 -1.2378 -2.0857 -0.7028
67643SOL    HW212860   8.072   3.502   1.521  1.1775  0.8778 -0.3504
67644SOL     OW12861   2.020  13.240  12.101  0.1001  0.0028 -0.0699
67644SOL    HW112862   2.068  13.208  12.025 -0.0630 -0.1738 -0.1000
67644SOL    HW212863   2.077  13.221  12.176 -0.2066 -0.8250 -0.0311
67645SOL     OW12864   1.001   2.450   6.446  0.3627 -0.3065 -0.3427
67645SOL    HW112865   0.927   2.476   6.501  0.5391  2.4582 -1.2331
67645SOL    HW212866   1.062   2.406   6.505 -1.5086 -1.7459  0.6019
67646SOL     OW12867   6.351   7.009   7.467  0.3781  0.2631 -0.0366
67646SOL    HW112868   6.269   6.982   7.508  0.1908 -0.7164 -1.0259
67646SOL    HW212869   6.338   6.994   7.374  1.4825  0.6347 -0.2669
67647SOL     OW12870   9.500   3.423  11.595 -0.1820 -0.0133 -0.2805
67647SOL    HW112871   9.571   3.407  11.657 -1.1383 -1.1063  0.5895
67647SOL    HW212872   9.443   3.347  11.604  0.1602 -0.7377 -3.2996
67648SOL     OW12873   2.571   7.999   3.044 -0.5635 -0.5503 -0.3936
67648SOL    HW112874   2.567   8.093   3.028 -1.3250 -0.2631  1.3273
67648SOL    HW212875   2.640   7.988   3.110 -0.5002 -1.2015 -0.5602
67649SOL     OW12876   7.903   8.749   9.797 -0.0978  0.0081 -0.0076
67649SOL    HW112877   7.826   8.699   9.769  1.2281 -2.0210 -0.2305
67649SOL    HW212878   7.977   8.690   9.784  1.0632  0.1753  4.3088
67650SOL     OW12879   7.902  12.170   0.112  0.6124 -0.1222  0.1223
67650SOL    HW112880   7.815  12.199   0.140 -0.9780  2.2061 -5.8687
67650SOL    HW212881   7.958  12.247   0.123  1.0325 -0.4707  0.4985
67651SOL     OW12882  12.079  12.196   5.958  0.3002 -0.6800  0.2781
67651SOL    HW112883  12.145  12.129   5.940 -0.5323 -1.6383  0.6638
67651SOL    HW212884  11.999  12.162   5.918 -0.1738  0.0187  0.6142
67652SOL     OW12885  13.281  12.749   9.566  0.4490 -0.0572 -0.2695
67652SOL    HW112886  13.316  12.673   9.613  0.6747  0.6128  0.6575
67652SOL    HW212887  13.341  12.821   9.587 -0.1102  0.5301 -0.6411
67653SOL     OW12888  11.973  11.719   5.878  0.1215  0.0191  0.3219
67653SOL    HW112889  11.961  11.681   5.966 -0.4620 -1.9169 -0.5285
67653SOL    HW212890  11.885  11.726   5.843  0.4408 -0.5914 -0.6319
67654SOL     OW12891   3.886   2.874  11.300 -0.5817 -0.3608  0.3465
67654SOL    HW112892   3.868   2.780  11.299  0.3262 -0.5502  0.2908
67654SOL    HW212893   3.834   2.909  11.372  0.7517 -1.2674  1.7924
67655SOL     OW12894   0.041  10.953   6.503 -0.3290  0.1634 -0.2377
67655SOL    HW112895   0.009  11.030   6.456  1.2741  0.8554 -0.2681
67655SOL    HW212896   0.033  10.976   6.595 -0.2015  0.2306 -0.2423
67656SOL     OW12897   6.495   4.849  12.643  0.6149  0.0361 -0.0531
67656SOL    HW112898   6.471   4.915  12.708 -1.0186 -1.5209  1.0461
67656SOL    HW212899   6.417   4.839  12.589  1.5916  0.5168 -1.6011
67657SOL     OW12900  11.115  12.425  10.152 -0.0630  0.2512  0.4409
67657SOL    HW112901  11.089  12.365  10.082  0.8834  0.8659 -0.4701
67657SOL    HW212902  11.200  12.391  10.181  0.2824  0.8888  0.2026
67658SOL     OW12903  10.900  10.411   5.277  0.4927  0.3298 -0.0188
67658SOL    HW112904  10.894  10.318   5.255  0.6651  0.0730  1.0110
67658SOL    HW212905  10.819  10.431   5.322  0.6065  0.6023  0.0691
67659SOL     OW12906   6.734  11.873   1.885  0.3522 -0.4274  0.2857
67659SOL    HW112907   6.798  11.808   1.855 -0.9704 -0.6790 -2.2642
67659SOL    HW212908   6.672  11.822   1.937  0.7302 -0.6734  0.5092
67660SOL     OW12909   1.792  10.217  12.744 -0.3506  0.5718 -0.4963
67660SOL    HW112910   1.704  10.242  12.714 -1.1163  0.4389  1.5234
67660SOL    HW212911   1.796  10.247  12.834  0.7686 -1.5885  0.2356
67661SOL     OW12912   0.722  11.157   2.189  0.2372 -0.1732 -0.0110
67661SOL    HW112913   0.767  11.200   2.117 -2.6878  1.6083 -0.9072
67661SOL    HW212914   0.688  11.076   2.151  0.0584 -0.0224 -0.1694
67662SOL     OW12915   0.521  11.565  12.764 -0.4513 -0.8322  0.8064
67662SOL    HW112916   0.549  11.638  12.818  1.6478  0.7950 -2.1739
67662SOL    HW212917   0.596  11.505  12.764  0.6978  0.4049 -2.0551
67663SOL     OW12918   9.789   6.671   7.389 -0.9217 -0.1905 -0.5401
67663SOL    HW112919   9.829   6.661   7.303 -1.9949  2.3197 -1.4262
67663SOL    HW212920   9.861   6.697   7.446 -0.7429  1.5418 -1.4948
67664SOL     OW12921   0.724  10.198   5.169  0.5664 -0.3359  0.2932
67664SOL    HW112922   0.737  10.249   5.249  0.2732  1.5781 -0.8197
67664SOL    HW212923   0.812  10.182   5.136  0.6360  1.1812 -0.3458
67665SOL     OW12924   5.278   3.380   1.067 -0.1770 -0.6700  0.6543
67665SOL    HW112925   5.368   3.349   1.058 -0.2325 -0.8434  0.7100
67665SOL    HW212926   5.275   3.420   1.154  0.2211  0.5617  0.1378
67666SOL     OW12927   2.367   7.217  12.386 -0.0275 -0.5025  0.1692
67666SOL    HW112928   2.364   7.254  12.474 -1.4619 -2.6358  1.0882
67666SOL    HW212929   2.405   7.130  12.397  0.0822 -0.6940 -1.3945
67667SOL     OW12930  10.694   4.625   9.335 -0.5764  0.6282  0.3948
67667SOL    HW112931  10.749   4.569   9.280  0.0736  1.1551  0.5053
67667SOL    HW212932  10.747   4.642   9.413 -2.3073 -2.0489  2.3802
67668SOL     OW12933   7.332   6.668  11.797 -0.0546 -0.2443  0.1531
67668SOL    HW112934   7.304   6.709  11.716 -0.6568 -0.7990  0.0700
67668SOL    HW212935   7.426   6.686  11.802  0.1595 -0.8983 -1.0867
67669SOL     OW12936   9.773   7.111   0.996 -0.5179  0.0683  0.2540
67669SOL    HW112937   9.695   7.100   0.943  0.0054 -0.1422 -0.4984
67669SOL    HW212938   9.809   7.023   1.004 -0.2204  0.1979  0.3683
67670SOL     OW12939   9.211   8.740   6.246 -0.1447  0.3802 -0.1350
67670SOL    HW112940   9.148   8.725   6.175  0.5496  0.7961 -0.8673
67670SOL    HW212941   9.268   8.664   6.244  0.5748  0.9100 -0.8098
67671SOL     OW12942   2.866  12.616   2.549  0.2637 -0.2487 -0.1805
67671SOL    HW112943   2.893  12.635   2.639 -0.4661 -2.1766  0.4942
67671SOL    HW212944   2.915  12.537   2.525  1.8836  1.2642 -2.2143
67672SOL     OW12945   2.521   6.764   0.990 -0.1489 -0.4881  0.0120
67672SOL    HW112946   2.434   6.776   0.952  1.2820  3.4152 -2.7666
67672SOL    HW212947   2.566   6.708   0.928  0.1765  0.1141 -0.3078
67673SOL     OW12948  10.610   0.954   9.887 -0.5549 -0.0030 -0.2357
67673SOL    HW112949  10.520   0.948   9.855 -0.5900  0.2328 -0.1858
67673SOL    HW212950  10.636   1.045   9.869  0.9749 -0.9451 -3.6265
67674SOL     OW12951   4.433  10.451   3.779  0.3655 -0.0410 -0.0602
67674SOL    HW112952   4.470  10.535   3.754 -0.5752  0.2918 -0.3784
67674SOL    HW212953   4.363  10.472   3.840 -0.4213 -0.5149 -0.7678
67675SOL     OW12954   4.760   1.850   8.239  0.0968 -0.2946  0.1930
67675SOL    HW112955   4.787   1.942   8.230  0.2415 -0.2050  1.4266
67675SOL    HW212956   4.665   1.853   8.240  0.0959  0.0595  2.0510
67676SOL     OW12957  12.965   6.705   9.140 -0.1680 -0.6016  0.4350
67676SOL    HW112958  12.886   6.714   9.194 -0.4820 -1.4212  0.1349
67676SOL    HW212959  12.943   6.748   9.057 -0.3935 -1.0165  0.2724
67677SOL     OW12960   6.697  13.221   9.700  0.0263 -0.0035  0.7429
67677SOL    HW112961   6.761  13.256   9.638 -1.2007  0.0571 -0.5379
67677SOL    HW212962   6.710  13.126   9.696  0.4100  0.0410  0.9058
67678SOL     OW12963   3.452   6.578   3.049 -0.5596  0.0300 -0.4868
67678SOL    HW112964   3.436   6.487   3.026 -0.9969  0.3812 -1.6323
67678SOL    HW212965   3.367   6.620   3.041 -0.0647  0.8633 -1.5683
67679SOL     OW12966   0.907  10.711   8.948  0.2471  0.1075 -0.4383
67679SOL    HW112967   0.956  10.725   9.029  1.0991  0.4655 -1.0103
67679SOL    HW212968   0.896  10.798   8.911 -1.3133  0.1021 -0.0532
67680SOL     OW12969   1.455   0.998   3.110  0.4157  0.7625 -0.8979
67680SOL    HW112970   1.381   0.938   3.107  0.7977  0.2058  0.2298
67680SOL    HW212971   1.531   0.942   3.095  0.9110  0.6544  1.6109
67681SOL     OW12972   0.550   5.382  10.718  0.7795 -0.1416  0.1581
67681SOL    HW112973   0.479   5.416  10.665 -0.0556 -1.4189  0.4386
67681SOL    HW212974   0.539   5.426  10.803  0.4651 -0.1602  0.1285
67682SOL     OW12975   4.282   8.180  12.460  0.1251  0.5006  0.4871
67682SOL    HW112976   4.351   8.216  12.517  0.9531 -0.3246  0.0350
67682SOL    HW212977   4.214   8.152  12.521  0.3223  1.0285  0.9690
67683SOL     OW12978  12.653   2.774  11.469 -0.2993  0.1973  0.0983
67683SOL    HW112979  12.668   2.752  11.561 -0.8152 -0.8514 -0.0539
67683SOL    HW212980  12.601   2.854  11.472  0.9092  0.9923  0.6831
67684SOL     OW12981  11.018  11.388   5.658 -0.2641  0.0836 -0.1697
67684SOL    HW112982  11.106  11.352   5.649 -0.5716 -1.0604  0.9719
67684SOL    HW212983  11.032  11.477   5.692  0.4757 -0.9668  2.5894
67685SOL     OW12984   3.535  11.265  12.530  0.4968  0.0941 -0.1336
67685SOL    HW112985   3.571  11.333  12.473  0.9080  1.0365  1.2095
67685SOL    HW212986   3.581  11.275  12.613 -1.9637  0.5649  1.2932
67686SOL     OW12987   1.207  11.165   4.365  0.6604 -0.0085  0.4574
67686SOL    HW112988   1.161  11.136   4.444 -0.1940  0.4644  0.1379
67686SOL    HW212989   1.166  11.116   4.294  1.1700 -0.1506  0.2569
67687SOL     OW12990   3.459   9.256   7.421 -0.4114 -0.5175 -0.0443
67687SOL    HW112991   3.463   9.236   7.327 -0.2334  0.2466 -0.1987
67687SOL    HW212992   3.466   9.351   7.427 -0.5155 -0.5469  0.7420
67688SOL     OW12993   9.025   3.156  11.503  0.0219  0.2693  0.5189
67688SOL    HW112994   8.975   3.206  11.568 -2.5950 -2.5089  0.8904
67688SOL    HW212995   9.098   3.119  11.553 -1.2187 -0.7591  1.6776
67689SOL     OW12996   2.687  11.651   3.571  0.2409 -0.0075  0.0272
67689SOL    HW112997   2.761  11.683   3.519 -1.1064  0.8436 -1.4585
67689SOL    HW212998   2.683  11.711   3.646  0.3694  0.6453 -0.4768
67690SOL     OW12999   5.207   5.240   9.184  0.0629  0.2134  0.4345
67690SOL    HW113000   5.272   5.239   9.254  1.5410  1.7885 -0.8380
67690SOL    HW213001   5.124   5.222   9.228  1.0308  0.4624  2.4704
67691SOL     OW13002   0.392  12.051  10.827  0.2738 -0.0885  0.4992
67691SOL    HW113003   0.367  11.962  10.803 -0.0127 -0.0359  0.5894
67691SOL    HW213004   0.324  12.107  10.788  0.4435  0.0891  0.4547
67692SOL     OW13005   2.838  11.756   5.369 -0.4977 -0.2453 -0.0957
67692SOL    HW113006   2.828  11.665   5.342 -2.5949 -0.8415  2.2594
67692SOL    HW213007   2.767  11.802   5.324 -0.8935 -0.2609  0.5015
67693SOL     OW13008   9.884   9.948   3.317  0.3230  0.4140  0.5258
67693SOL    HW113009   9.882   9.862   3.360  0.3146 -0.6949 -1.5545
67693SOL    HW213010   9.800   9.954   3.273  0.3582  1.4715  0.5948
67694SOL     OW13011   1.906   7.493   3.940  0.1264 -0.0912 -0.0767
67694SOL    HW113012   1.878   7.584   3.942 -2.2549 -0.7951  1.1352
67694SOL    HW213013   1.879   7.457   4.024  1.4224 -1.8260 -0.3549
67695SOL     OW13014   9.213  12.533   7.849 -0.3205  0.3648  0.2485
67695SOL    HW113015   9.202  12.556   7.756  1.8417 -0.5953 -0.3070
67695SOL    HW213016   9.157  12.456   7.861 -1.9868  1.5239  0.2516
67696SOL     OW13017  12.141   1.564   2.789  0.5789 -0.0897  0.5418
67696SOL    HW113018  12.171   1.480   2.756  0.0592 -0.4647  1.0111
67696SOL    HW213019  12.212   1.625   2.769  2.2368 -1.1680  2.6660
67697SOL     OW13020   0.153   4.985   3.899 -0.4742  0.2679 -0.6451
67697SOL    HW113021   0.087   4.969   3.966 -0.4707 -0.9114 -0.9117
67697SOL    HW213022   0.110   4.962   3.816  0.3488 -0.8408 -0.7934
67698SOL     OW13023   6.313  11.500   3.257 -0.2676  0.2689 -0.3070
67698SOL    HW113024   6.299  11.550   3.176  3.4314  0.9713 -0.7158
67698SOL    HW213025   6.361  11.423   3.230  0.7009  0.3147  1.1541
67699SOL     OW13026   2.599   9.564   3.320 -0.0643  0.3722 -0.0942
67699SOL    HW113027   2.515   9.596   3.287 -0.0244  0.6193  0.0476
67699SOL    HW213028   2.660   9.637   3.308  0.0662  0.2902  0.0615
67700SOL     OW13029  10.920  13.175   0.997  0.7279  0.5025 -0.0568
67700SOL    HW113030  10.922  13.240   0.927 -0.4295  0.9742  0.3165
67700SOL    HW213031  10.883  13.097   0.957  0.1839  0.7339 -0.0177
67701SOL     OW13032   5.824  10.979  12.616  0.8924 -0.6329 -0.0148
67701SOL    HW113033   5.782  11.062  12.596  0.8586 -0.1574  1.8511
67701SOL    HW213034   5.760  10.931  12.669  2.3476 -0.1734  2.2993
67702SOL     OW13035   4.541   5.252  10.907  0.3304 -0.5666  0.6259
67702SOL    HW113036   4.589   5.182  10.951  0.0938  0.3900  2.5499
67702SOL    HW213037   4.465   5.209  10.868 -0.1300 -1.3339  2.2711
67703SOL     OW13038   5.926   2.935   4.154 -0.3737 -0.1492 -0.4683
67703SOL    HW113039   5.849   2.931   4.212  0.9488 -2.3577  1.2658
67703SOL    HW213040   5.976   3.009   4.188 -0.2471 -0.6257  0.4218
67704SOL     OW13041  12.917   7.452   2.832 -0.3614  0.0352 -0.4484
67704SOL    HW113042  12.846   7.481   2.889 -0.5900 -0.1027 -0.6589
67704SOL    HW213043  12.900   7.358   2.819  1.4514 -0.6724  1.7953
67705SOL     OW13044   0.208   0.640   4.170 -0.4494 -0.0778  0.4725
67705SOL    HW113045   0.123   0.605   4.196  0.0069 -0.2361  1.8111
67705SOL    HW213046   0.272   0.589   4.219  0.4535 -0.1274 -0.7042
67706SOL     OW13047   7.896   9.117  11.841 -0.8884  0.2229  0.0160
67706SOL    HW113048   7.969   9.081  11.891 -0.2662  1.2578 -0.1242
67706SOL    HW213049   7.850   9.040  11.807  0.6731 -0.4334 -0.6833
67707SOL     OW13050   8.001   6.079   0.297  0.5858  0.0190 -0.0198
67707SOL    HW113051   8.046   6.077   0.213  0.9502  1.1213  0.1344
67707SOL    HW213052   7.962   6.166   0.302  0.4757 -0.0652  0.9022
67708SOL     OW13053   5.745   4.136   3.974 -0.1169  0.3427 -0.1733
67708SOL    HW113054   5.838   4.159   3.973 -0.0751  0.1923  0.3054
67708SOL    HW213055   5.703   4.207   4.023 -0.4713  1.1971 -1.6444
67709SOL     OW13056   3.217   1.697  12.433 -0.6188 -0.1408 -0.6172
67709SOL    HW113057   3.307   1.728  12.422 -0.5881 -0.6613 -2.1874
67709SOL    HW213058   3.195   1.719  12.523  1.2670 -0.4948 -0.0159
67710SOL     OW13059   6.082   0.948   8.636 -0.1884 -0.0987 -0.1933
67710SOL    HW113060   6.047   0.917   8.552 -0.6917  1.9312 -0.8090
67710SOL    HW213061   6.005   0.963   8.690  0.1966 -3.8104  1.6947
67711SOL     OW13062   9.098   0.005  11.585  0.9301  0.3850  0.3258
67711SOL    HW113063   9.136  -0.064  11.639 -0.0001 -1.0482 -0.7828
67711SOL    HW213064   9.019   0.030  11.632  0.2593 -0.6771 -0.1946
67712SOL     OW13065   0.707   0.050   1.469 -0.0098 -0.2248 -0.1378
67712SOL    HW113066   0.634   0.048   1.406 -0.8186  0.3128  0.7530
67712SOL    HW213067   0.755   0.130   1.446  0.4997 -0.7317 -0.9141
67713SOL     OW13068   2.838  10.869  12.650  0.3646  0.5871 -0.7033
67713SOL    HW113069   2.746  10.893  12.654  0.4963  0.9881  0.3799
67713SOL    HW213070   2.874  10.896  12.735  1.4953  0.5215 -1.1335
67714SOL     OW13071  12.272  10.389   4.536 -0.6427 -0.2066 -0.6356
67714SOL    HW113072  12.342  10.453   4.541 -0.3309 -0.5354 -0.7479
67714SOL    HW213073  12.221  10.415   4.459 -0.3760 -0.2362 -0.8218
67715SOL     OW13074   8.823   0.243   7.237 -0.0691  0.1158 -0.4178
67715SOL    HW113075   8.839   0.172   7.176  1.6198 -0.0626  0.1857
67715SOL    HW213076   8.796   0.200   7.318  1.1497  0.1149  0.0095
67716SOL     OW13077  12.652   3.572   8.611 -0.7212 -0.0078 -0.1726
67716SOL    HW113078  12.566   3.610   8.627 -0.0149  1.2194  0.9085
67716SOL    HW213079  12.674   3.599   8.522 -0.7699  1.0777  0.1294
67717SOL     OW13080   5.334   6.784   6.047 -0.1200  0.3805 -0.4199
67717SOL    HW113081   5.345   6.691   6.029  0.9702  0.5652 -0.7409
67717SOL    HW213082   5.239   6.797   6.049 -0.2806 -0.4220 -1.9668
67718SOL     OW13083   2.730   9.391   7.696  0.2984 -0.2870 -0.3757
67718SOL    HW113084   2.714   9.322   7.631 -0.9179  0.4047 -0.8454
67718SOL    HW213085   2.778   9.459   7.649  1.0089 -0.5610 -0.0597
67719SOL     OW13086   4.457   0.286   1.847  0.5538 -0.5780  0.1427
67719SOL    HW113087   4.415   0.344   1.910  1.1767  0.3893 -0.3134
67719SOL    HW213088   4.551   0.301   1.859  0.7204 -1.3116 -0.1604
67720SOL     OW13089   1.146  10.466   1.276 -0.2648 -0.2580 -0.5243
67720SOL    HW113090   1.200  10.389   1.257  2.5958  1.7729 -1.2006
67720SOL    HW213091   1.085  10.436   1.343  1.5612 -2.7903  0.1509
67721SOL     OW13092  11.521  11.614  12.167 -0.1916 -0.4310 -0.2865
67721SOL    HW113093  11.456  11.552  12.134  0.3007 -0.9250 -0.3448
67721SOL    HW213094  11.488  11.700  12.140 -1.2400 -0.5909  0.3930
67722SOL     OW13095  12.217   7.890   2.587  0.6957 -0.5031 -0.3539
67722SOL    HW113096  12.300   7.924   2.554  0.2286  0.4867 -0.5649
67722SOL    HW213097  12.151   7.943   2.542  0.0190  0.1963  1.3826
67723SOL     OW13098   1.183  12.587   8.965  0.0304 -0.3107 -0.1644
67723SOL    HW113099   1.131  12.552   8.893 -0.3513 -1.9522  0.8552
67723SOL    HW213100   1.122  12.640   9.015 -0.1287 -0.5086 -0.1461
67724SOL     OW13101  13.245  12.000   1.033  0.2259  0.2727  0.3712
67724SOL    HW113102  13.242  12.063   0.960  2.1392  0.0435  0.0641
67724SOL    HW213103  13.272  12.053   1.108  1.7828 -0.1314  0.1244
67725SOL     OW13104   2.826   1.752   1.408 -0.0971  0.3385  0.1291
67725SOL    HW113105   2.747   1.795   1.441  0.7209  0.9022  1.4259
67725SOL    HW213106   2.896   1.784   1.464  1.3343  1.0124 -1.9226
67726SOL     OW13107   2.427  12.774   3.941  0.4705 -0.2013  0.1765
67726SOL    HW113108   2.501  12.779   3.880 -0.0556  0.1451 -0.4525
67726SOL    HW213109   2.457  12.821   4.018  0.4976  0.9786 -0.5256
67727SOL     OW13110   5.553  11.966   6.406  0.5630 -0.4499  0.2084
67727SOL    HW113111   5.491  12.036   6.429  0.0994 -1.3902  2.0875
67727SOL    HW213112   5.633  11.989   6.453  1.2100  0.0486 -1.1153
67728SOL     OW13113   5.421  11.140   5.613  0.2639 -0.0974 -0.2998
67728SOL    HW113114   5.476  11.124   5.690  0.9771  0.3055 -0.7146
67728SOL    HW213115   5.331  11.129   5.645  0.5423  0.2455  0.6347
67729SOL     OW13116   3.448   5.816   2.369 -0.2158 -0.0400  0.1149
67729SOL    HW113117   3.538   5.787   2.368 -0.8213 -2.4707  2.9058
67729SOL    HW213118   3.449   5.895   2.424  0.3351  0.7649 -1.0076
67730SOL     OW13119   9.027   7.856  10.906  0.7355 -0.0098  0.1218
67730SOL    HW113120   9.105   7.803  10.889  1.6038  1.0516  0.7012
67730SOL    HW213121   8.954   7.797  10.888  1.6609 -0.9011 -0.8268
67731SOL     OW13122   1.024   5.924  12.066 -0.5008 -0.3396  0.0563
67731SOL    HW113123   0.948   5.925  12.009 -1.8152  0.1023  1.7387
67731SOL    HW213124   0.988   5.923  12.155  1.4544 -0.0082  0.9149
67732SOL     OW13125  11.912  11.827   4.409  0.5361  0.0392 -0.2193
67732SOL    HW113126  11.953  11.821   4.496  0.2019 -0.5705 -0.0907
67732SOL    HW213127  11.978  11.866   4.353  1.7645 -2.0184 -0.3003
67733SOL     OW13128   8.205   5.102   7.125  0.4047 -0.3999 -0.1527
67733SOL    HW113129   8.299   5.108   7.111  0.7131 -3.8876 -0.4715
67733SOL    HW213130   8.196   5.080   7.218  0.0610 -1.4964 -0.4272
67734SOL     OW13131  10.407  10.637   7.170 -0.1918  0.0086 -0.0997
67734SOL    HW113132  10.499  10.615   7.153 -0.2173  0.0531 -0.2922
67734SOL    HW213133  10.358  10.565   7.131 -0.2345 -0.0754  0.1084
67735SOL     OW13134   5.268   8.271   4.067  0.4709 -0.1773 -0.1440
67735SOL    HW113135   5.327   8.212   4.020  0.5505  0.1927 -0.5090
67735SOL    HW213136   5.325   8.340   4.101  0.1869  0.4967 -0.9888
67736SOL     OW13137   6.476  10.285   9.600 -0.1515 -0.1513  0.6751
67736SOL    HW113138   6.388  10.263   9.630  0.6471 -0.9475  2.6051
67736SOL    HW213139   6.488  10.377   9.626  0.2199 -0.5827  2.0953
67737SOL     OW13140   7.076   3.782   5.464 -0.3117 -0.2703 -0.0851
67737SOL    HW113141   6.999   3.826   5.502 -0.0459 -1.1609  1.5602
67737SOL    HW213142   7.050   3.762   5.374 -1.7144  0.1601  0.1962
67738SOL     OW13143   0.371   4.027   8.142  0.0467 -0.5890  0.1589
67738SOL    HW113144   0.277   4.013   8.154  0.1499 -2.1491 -0.5949
67738SOL    HW213145   0.412   3.956   8.191  0.8159 -0.2128  0.0648
67739SOL     OW13146   8.711  10.959   6.129 -0.2730 -0.0598  0.4981
67739SOL    HW113147   8.671  11.019   6.065  2.4408  0.8121 -0.5241
67739SOL    HW213148   8.710  11.008   6.211 -1.0396  0.0452  0.4320
67740SOL     OW13149   8.338   2.197   5.031  0.4889 -0.2557 -0.0938
67740SOL    HW113150   8.357   2.109   4.999 -0.3086 -0.6368  0.4612
67740SOL    HW213151   8.421   2.244   5.022  0.6446 -0.7451 -1.4011
67741SOL     OW13152   3.785   4.205   9.432 -1.0329  0.3077 -0.1678
67741SOL    HW113153   3.852   4.166   9.376 -1.3235 -0.3607 -0.0643
67741SOL    HW213154   3.719   4.136   9.442 -0.5493  0.0676  1.7419
67742SOL     OW13155   3.556  10.644   9.734 -0.2060 -0.3917  0.2150
67742SOL    HW113156   3.602  10.723   9.762 -0.4520 -0.4493  0.7997
67742SOL    HW213157   3.468  10.653   9.772  0.0479 -1.3869  1.0814
67743SOL     OW13158   9.715   9.506   3.106 -0.3011  0.0586  0.4527
67743SOL    HW113159   9.735   9.425   3.060 -0.0039  1.1984 -1.5339
67743SOL    HW213160   9.697   9.570   3.037 -0.1524  1.7952  1.9289
67744SOL     OW13161   3.138  12.422   5.161 -0.6464  0.1573 -0.0650
67744SOL    HW113162   3.176  12.358   5.101  2.2175  1.1481  0.5523
67744SOL    HW213163   3.138  12.504   5.112  1.1059  0.8356  0.9658
67745SOL     OW13164   1.197   8.080   1.668  0.4461  0.0912 -0.2920
67745SOL    HW113165   1.113   8.058   1.709  0.4084 -1.3046 -1.0492
67745SOL    HW213166   1.219   8.166   1.703 -0.2408 -0.4416  1.6123
67746SOL     OW13167   3.802  11.800  11.211  0.4659 -0.4939  0.6555
67746SOL    HW113168   3.875  11.830  11.157 -0.3211 -1.0334 -0.7788
67746SOL    HW213169   3.750  11.879  11.227 -0.1400 -0.5739 -0.7733
67747SOL     OW13170  11.739   6.391  10.579  0.3329 -0.5284 -0.4445
67747SOL    HW113171  11.695   6.351  10.504 -0.9551  0.7958 -0.4365
67747SOL    HW213172  11.706   6.343  10.655 -0.1266 -0.3775 -0.5453
67748SOL     OW13173   0.335   8.562   7.382 -0.1551 -0.4492 -0.5876
67748SOL    HW113174   0.317   8.475   7.345  3.1014 -1.8255  0.6595
67748SOL    HW213175   0.356   8.545   7.474 -0.5437  1.8332 -0.0198
67749SOL     OW13176  11.079   8.173   3.134  0.0311  0.1203 -0.4043
67749SOL    HW113177  11.056   8.230   3.061  0.9400  2.0049  0.7050
67749SOL    HW213178  11.143   8.112   3.097 -1.1999 -0.4383 -1.7004
67750SOL     OW13179  11.109   5.665  11.030 -0.0579  0.2533 -0.0433
67750SOL    HW113180  11.133   5.577  11.003  0.5476  0.1565  0.7776
67750SOL    HW213181  11.038   5.690  10.970 -0.0904 -0.6978 -0.4202
67751SOL     OW13182  12.693   1.001   5.998  0.8159  0.3033  0.0144
67751SOL    HW113183  12.673   1.087   6.036 -0.5858  0.7199 -1.5501
67751SOL    HW213184  12.643   0.939   6.052 -2.1294  0.9983 -1.6636
67752SOL     OW13185   9.572  12.338   7.417 -0.0719  0.2212 -0.4922
67752SOL    HW113186   9.566  12.408   7.481 -4.6814 -0.6357  0.3653
67752SOL    HW213187   9.544  12.378   7.335 -0.6837 -0.1121 -0.4530
67753SOL     OW13188   5.293   8.904  10.859 -1.0130  0.1199 -0.4813
67753SOL    HW113189   5.240   8.859  10.793 -2.3358 -1.3675  1.4662
67753SOL    HW213190   5.301   8.841  10.931  2.7303  0.6093 -0.2629
67754SOL     OW13191   3.181  13.180   6.790  0.1308 -0.3533  0.3499
67754SOL    HW113192   3.098  13.160   6.748 -0.0540 -0.8246  0.9353
67754SOL    HW213193   3.159  13.247   6.856  0.8944  2.7425 -2.2829
67755SOL     OW13194   0.586  11.357   0.057 -0.2420  0.0117  0.2727
67755SOL    HW113195   0.664  11.319   0.097 -0.6706  0.1638  1.3022
67755SOL    HW213196   0.524  11.365   0.130 -0.6486  1.3916 -0.1956
67756SOL     OW13197   9.834   8.256  10.235 -0.0253  0.0316  0.6703
67756SOL    HW113198   9.815   8.212  10.318  0.4478 -1.1369  0.1848
67756SOL    HW213199   9.836   8.185  10.171  0.8339  0.7609 -0.1355
67757SOL     OW13200  10.721  12.642   4.864  0.0467 -0.3831 -0.1203
67757SOL    HW113201  10.683  12.610   4.783 -0.6750  1.3643 -0.5120
67757SOL    HW213202  10.649  12.640   4.927  0.3573 -0.8172  0.2335
67758SOL     OW13203   5.390  12.071   3.364 -0.3757 -1.0586 -0.4247
67758SOL    HW113204   5.448  12.037   3.431 -2.6461  0.5513  2.5852
67758SOL    HW213205   5.432  12.151   3.333 -0.1742 -0.8119  0.4707
67759SOL     OW13206   8.028  11.999   8.963  0.0199 -0.8674  0.7317
67759SOL    HW113207   8.085  12.015   9.039 -0.1064  2.2322  0.3147
67759SOL    HW213208   7.951  11.956   9.000  0.8360 -1.3121  1.9991
67760SOL     OW13209   2.389   8.928   3.431 -0.3109  0.2060 -0.1725
67760SOL    HW113210   2.307   8.909   3.478 -0.3088  1.6804  0.4630
67760SOL    HW213211   2.362   8.986   3.360  0.3871  2.1418  1.0789
67761SOL     OW13212   1.804   8.831   5.590 -0.0846  0.1638 -0.0121
67761SOL    HW113213   1.775   8.741   5.576  1.1696 -0.2182 -0.2702
67761SOL    HW213214   1.774   8.879   5.513  0.4572 -0.3514 -0.5533
67762SOL     OW13215   2.766   9.518   4.703 -0.0536  0.1093 -0.3280
67762SOL    HW113216   2.721   9.525   4.787  2.0204 -1.8139  1.0541
67762SOL    HW213217   2.819   9.597   4.698 -0.8789  0.6814 -0.3069
67763SOL     OW13218   0.656   7.965  10.311 -0.1181 -0.0650 -0.4596
67763SOL    HW113219   0.593   7.978  10.382 -0.5353  1.2627 -1.0384
67763SOL    HW213220   0.721   8.034  10.323  0.9917 -1.1290 -0.1509
67764SOL     OW13221   3.920   5.161   7.290 -0.7094 -0.3801 -0.0220
67764SOL    HW113222   3.851   5.227   7.284  0.3823  0.6760 -1.5715
67764SOL    HW213223   3.893   5.093   7.229 -0.4173  0.0191 -0.6069
67765SOL     OW13224   5.510   6.511  11.599 -0.3960 -0.6014  0.2361
67765SOL    HW113225   5.588   6.465  11.567  0.6157 -0.0680  1.8100
67765SOL    HW213226   5.437   6.455  11.574  0.6134 -1.9294  0.1286
67766SOL     OW13227   2.511   0.042  10.071 -0.3165  0.0231 -0.2711
67766SOL    HW113228   2.528  -0.043  10.111 -0.9734  0.6312  1.4318
67766SOL    HW213229   2.557   0.104  10.128  0.5401  0.7935 -1.7386
67767SOL     OW13230   3.269   7.935   1.382 -0.5118 -0.4680  0.1092
67767SOL    HW113231   3.250   7.968   1.470 -0.6285 -2.1268  0.7389
67767SOL    HW213232   3.189   7.889   1.356  0.1311 -1.4790 -0.1275
67768SOL     OW13233   8.728   2.867   1.436  0.0285 -0.6066  0.1799
67768SOL    HW113234   8.745   2.803   1.505 -0.2138 -1.4451 -0.5153
67768SOL    HW213235   8.698   2.945   1.482  2.1331 -0.3150  1.1887
67769SOL     OW13236   2.235   3.816   6.670 -0.8411  0.4825  0.4469
67769SOL    HW113237   2.308   3.755   6.679 -0.0848  1.2701 -0.1874
67769SOL    HW213238   2.180   3.779   6.600 -0.6119  0.3050  0.3625
67770SOL     OW13239  11.297   5.025  11.588  0.0976 -0.3324  0.6254
67770SOL    HW113240  11.281   5.119  11.584 -0.3444 -0.4491 -0.8653
67770SOL    HW213241  11.249   4.989  11.514  2.7243 -1.3640 -0.7091
67771SOL     OW13242   3.362   4.038   0.968 -0.3311 -0.2104 -0.0692
67771SOL    HW113243   3.302   3.973   1.005  0.1242 -0.8705 -0.4780
67771SOL    HW213244   3.378   4.009   0.879  2.1370 -1.1880  0.6015
67772SOL     OW13245   4.963  13.205  12.996 -0.2629  0.3086 -0.1792
67772SOL    HW113246   4.867  13.209  12.991 -0.3007 -0.3452 -0.1005
67772SOL    HW213247   4.985  13.245  13.080 -0.4252  0.9692 -0.4448
67773SOL     OW13248  10.669  10.656   4.019  0.0775  0.2841 -0.2587
67773SOL    HW113249  10.747  10.711   4.006  0.6894 -0.0506  1.7023
67773SOL    HW213250  10.601  10.717   4.047 -0.2838  0.5068 -1.5277
67774SOL     OW13251   2.548   5.370   4.354 -0.3873  0.0502 -0.1032
67774SOL    HW113252   2.554   5.465   4.363 -1.2251 -0.0084  1.4018
67774SOL    HW213253   2.621   5.346   4.297 -0.0553  1.5695 -0.3535
67775SOL     OW13254   2.788   5.250   5.479  0.0446 -0.8013 -0.5906
67775SOL    HW113255   2.719   5.259   5.546  1.5234 -0.6133  0.9812
67775SOL    HW213256   2.815   5.158   5.485  1.5050 -0.3467  0.5085
67776SOL     OW13257   5.365   9.129   7.392 -0.2222 -0.2628  0.0730
67776SOL    HW113258   5.294   9.141   7.454  0.1425  1.5476  0.1799
67776SOL    HW213259   5.438   9.096   7.445 -0.1777  0.4439  0.4604
67777SOL     OW13260  13.107   8.303   1.452 -0.5447 -0.6907  0.3044
67777SOL    HW113261  13.028   8.352   1.433 -0.8184 -2.0210 -2.5781
67777SOL    HW213262  13.164   8.365   1.499 -1.0282  2.2955 -2.6725
67778SOL     OW13263  12.905   8.727  13.021  0.3761  0.1448  0.1172
67778SOL    HW113264  12.907   8.790  12.949 -2.8296  1.1683  0.7881
67778SOL    HW213265  12.957   8.653  12.989  0.1312  1.0776 -2.7291
67779SOL     OW13266   1.728   8.847   0.059 -0.0079 -0.7501  0.8899
67779SOL    HW113267   1.665   8.882   0.122  0.0555  1.2218 -0.0660
67779SOL    HW213268   1.803   8.907   0.063  0.4002 -1.1322 -0.3603
67780SOL     OW13269   3.693  12.842   6.980  0.2553 -0.3109  0.6458
67780SOL    HW113270   3.681  12.749   6.958 -0.1751  0.3654 -2.3959
67780SOL    HW213271   3.627  12.860   7.046 -0.0570 -2.0295  0.8519
67781SOL     OW13272   6.223  11.148  12.851  0.5840 -0.1597  0.3995
67781SOL    HW113273   6.238  11.216  12.917  1.5054  0.9633 -0.9086
67781SOL    HW213274   6.289  11.164  12.784 -1.6084  0.0669 -1.8540
67782SOL     OW13275   7.499  12.197   6.770 -0.1763 -0.3173  0.0352
67782SOL    HW113276   7.460  12.261   6.829 -0.7370  0.8354 -1.4899
67782SOL    HW213277   7.530  12.127   6.826 -2.0880 -0.0296  1.5474
67783SOL     OW13278   1.277   3.354   8.970 -0.1999  0.1892  0.4954
67783SOL    HW113279   1.344   3.368   8.903 -0.4071  0.7796  0.4131
67783SOL    HW213280   1.211   3.420   8.952 -0.2329  0.3832  1.3208
67784SOL     OW13281   1.041   0.788   7.187  0.8835 -0.1419 -0.5166
67784SOL    HW113282   1.028   0.781   7.093  1.3876  0.3164 -0.6268
67784SOL    HW213283   1.132   0.762   7.201  1.3007  1.2960 -0.3600
67785SOL     OW13284   6.572  10.244   9.125 -0.6665  0.1953 -0.6412
67785SOL    HW113285   6.512  10.208   9.191 -0.8174 -0.4188 -1.0999
67785SOL    HW213286   6.643  10.283   9.176 -0.4577 -0.8306 -0.1125
67786SOL     OW13287   2.040   8.073   0.750 -0.4332 -0.3555 -0.1757
67786SOL    HW113288   2.001   8.043   0.832  1.3317 -1.5673  0.2665
67786SOL    HW213289   2.078   7.994   0.711 -0.1793  0.4141 -1.5739
67787SOL     OW13290   3.092  10.741   3.515  0.1624 -0.3763 -0.0351
67787SOL    HW113291   3.135  10.735   3.430 -1.9526 -1.1224 -1.1294
67787SOL    HW213292   3.024  10.674   3.512 -0.0595 -0.3299  2.2162
67788SOL     OW13293  11.540   9.914   6.300  0.4454  0.3807 -0.1181
67788SOL    HW113294  11.629   9.878   6.301  0.6397  0.8267  1.1415
67788SOL    HW213295  11.539   9.977   6.373 -0.9749  0.2016  0.0432
67789SOL     OW13296   3.368  11.691   9.691 -0.1293  0.1429  0.4268
67789SOL    HW113297   3.432  11.741   9.741  1.8341 -0.6400 -1.1503
67789SOL    HW213298   3.334  11.626   9.753  0.9625  0.2707  1.1749
67790SOL     OW13299   1.872   5.075   2.536  0.3332 -0.5223  0.2478
67790SOL    HW113300   1.813   5.001   2.551  0.9156 -1.1820 -0.6304
67790SOL    HW213301   1.821   5.135   2.481  0.3187 -0.8955 -0.1559
67791SOL     OW13302   9.205   6.098  13.000  0.0722  0.1774 -0.1649
67791SOL    HW113303   9.176   6.008  12.986  0.7862 -0.0679 -0.1084
67791SOL    HW213304   9.264   6.093  13.075  3.0648  0.0350 -2.3349
67792SOL     OW13305   2.910   7.233   1.467 -0.0855 -0.5329 -0.1003
67792SOL    HW113306   2.852   7.258   1.539  0.7128  2.1332 -0.2740
67792SOL    HW213307   2.873   7.277   1.390 -1.4291 -3.9952 -1.6881
67793SOL     OW13308   1.711   2.349   4.306 -0.7484 -0.1011  0.1351
67793SOL    HW113309   1.634   2.302   4.336 -0.0635 -0.4031  1.4707
67793SOL    HW213310   1.784   2.290   4.324  0.0855  1.2947  1.4959
67794SOL     OW13311  12.810   5.470  10.452 -0.1069  0.1781 -0.3447
67794SOL    HW113312  12.765   5.424  10.381 -0.9243  1.7260 -0.8586
67794SOL    HW213313  12.741   5.487  10.516  0.2115  0.5966 -0.1180
67795SOL     OW13314   0.048   3.083   6.088  0.2731  0.1713 -0.1316
67795SOL    HW113315  -0.009   3.010   6.110 -0.1923  0.0178 -1.7299
67795SOL    HW213316   0.136   3.052   6.108 -0.0072 -0.4285  0.1935
67796SOL     OW13317  10.178   5.428  12.998  0.0283 -0.2191  0.1480
67796SOL    HW113318  10.114   5.397  12.934  1.6641 -0.7370 -1.3296
67796SOL    HW213319  10.136   5.504  13.038 -1.5835 -0.6518 -0.6058
67797SOL     OW13320  10.653   5.159  11.969 -0.0603 -0.6521  0.1298
67797SOL    HW113321  10.595   5.220  11.923  1.1544 -0.2215 -0.8940
67797SOL    HW213322  10.623   5.160  12.060 -1.7859 -0.6155 -0.4097
67798SOL     OW13323  11.798   1.211  11.067 -0.6659  0.2817  0.4393
67798SOL    HW113324  11.849   1.250  10.996 -0.1750 -1.2885 -0.1071
67798SOL    HW213325  11.793   1.280  11.133  2.1992  0.5112  0.5395
67799SOL     OW13326   0.576  12.068   5.993 -0.1568 -1.1015 -0.4910
67799SOL    HW113327   0.614  12.122   6.062 -1.8773 -1.3011  0.6888
67799SOL    HW213328   0.528  12.000   6.040 -1.6998 -1.0182 -1.8726
67800SOL     OW13329   8.588  10.182   6.535 -0.1711  0.4282  0.2325
67800SOL    HW113330   8.560  10.176   6.627 -0.3376 -1.2992  0.1108
67800SOL    HW213331   8.512  10.150   6.486  1.2720 -2.6968 -0.2170
67801SOL     OW13332  12.202  11.815   5.416 -0.1177  0.7508  0.3658
67801SOL    HW113333  12.148  11.803   5.338  1.4812 -0.1015 -0.6747
67801SOL    HW213334  12.286  11.847   5.382  0.6560  0.2458  1.7295
67802SOL     OW13335   2.400   9.973   3.840 -0.0116  0.2990  0.3646
67802SOL    HW113336   2.346   9.895   3.849  1.3646 -0.5133  2.2465
67802SOL    HW213337   2.339  10.046   3.848 -1.5947 -0.4500 -3.1135
67803SOL     OW13338   7.509  10.465   0.723 -0.1438 -0.0961  0.6965
67803SOL    HW113339   7.563  10.472   0.802 -2.3923 -0.6939  2.3948
67803SOL    HW213340   7.476  10.554   0.708  0.2101 -0.0004  0.4753
67804SOL     OW13341   3.539  11.929   6.104  0.2580  0.0781  0.5617
67804SOL    HW113342   3.539  12.019   6.135 -0.7936 -0.0298  0.9292
67804SOL    HW213343   3.561  11.877   6.181 -2.1405 -0.1742  1.1589
67805SOL     OW13344   1.216  12.709   5.688  0.2599 -0.5701 -0.4768
67805SOL    HW113345   1.155  12.744   5.753  0.4162 -0.6778 -0.2707
67805SOL    HW213346   1.165  12.643   5.640 -0.9745  1.8964 -2.8502
67806SOL     OW13347   1.247   5.247   1.289  0.3101 -0.1518  0.1875
67806SOL    HW113348   1.306   5.195   1.234 -0.1536 -0.1105 -0.3573
67806SOL    HW213349   1.251   5.205   1.375  0.8238 -0.3896  0.0489
67807SOL     OW13350   2.386   7.097   6.523 -0.1222  0.1900  0.1301
67807SOL    HW113351   2.462   7.113   6.579 -0.2272  0.5565  0.1682
67807SOL    HW213352   2.316   7.148   6.562  0.3227  2.1847 -1.5318
67808SOL     OW13353   9.565   9.023   1.272 -0.0333  0.1626  0.2795
67808SOL    HW113354   9.475   9.016   1.304 -0.5700 -0.6059 -1.3289
67808SOL    HW213355   9.612   8.952   1.316 -0.3808  0.1158  0.5757
67809SOL     OW13356  10.674  11.021  10.000  0.0249 -0.1634 -0.3709
67809SOL    HW113357  10.723  11.061  10.072  0.9790 -0.0502 -1.0560
67809SOL    HW213358  10.741  10.999   9.935 -0.7837 -0.5069 -1.1104
67810SOL     OW13359  11.670  12.650   1.894 -0.2191 -0.3140  0.1921
67810SOL    HW113360  11.584  12.612   1.912 -0.4450 -0.0577 -0.3316
67810SOL    HW213361  11.728  12.608   1.957 -0.8731  0.0684  1.0732
67811SOL     OW13362   3.961   4.500   5.677  0.2432  0.1383  0.6102
67811SOL    HW113363   4.018   4.451   5.736  1.5269 -1.2601 -1.6417
67811SOL    HW213364   3.874   4.463   5.691  0.8764 -1.5493  0.2911
67812SOL     OW13365   4.892   5.614   3.673 -0.0151  0.2572  0.1266
67812SOL    HW113366   4.910   5.632   3.580  0.6936  0.8300  0.3614
67812SOL    HW213367   4.920   5.524   3.686 -2.0913 -0.5680 -0.6923
67813SOL     OW13368   5.433   5.736   7.625  0.1398 -0.0820 -0.3895
67813SOL    HW113369   5.360   5.789   7.656 -0.1807  0.3421 -1.7753
67813SOL    HW213370   5.454   5.773   7.539  0.6109 -1.5288 -0.9258
67814SOL     OW13371   4.146  11.338   6.285 -0.2074  0.3301  0.2178
67814SOL    HW113372   4.095  11.268   6.326  0.5454  0.6700  1.8509
67814SOL    HW213373   4.100  11.418   6.309  0.7317  0.6012  1.2402
67815SOL     OW13374   2.614  13.168   0.494  0.0763 -0.1011 -0.2886
67815SOL    HW113375   2.527  13.135   0.517 -0.0180  0.6246  0.4346
67815SOL    HW213376   2.629  13.240   0.555  1.8255 -1.1779  0.6324
67816SOL     OW13377   4.123   5.320   3.447  0.0806  0.4311 -0.0933
67816SOL    HW113378   4.058   5.327   3.517 -0.4229  1.7548 -0.6430
67816SOL    HW213379   4.123   5.228   3.423  0.9094 -0.2566  2.2133
67817SOL     OW13380   7.585   2.148   7.590  0.1193  0.2395  0.4007
67817SOL    HW113381   7.562   2.173   7.680  0.4139  2.3036 -0.0464
67817SOL    HW213382   7.611   2.230   7.548  1.1247 -0.8545 -1.2504
67818SOL     OW13383   5.000   5.853   2.843  0.1940  0.6510 -0.5974
67818SOL    HW113384   5.066   5.783   2.842 -1.1305 -0.6766 -0.0037
67818SOL    HW213385   4.917   5.806   2.836 -1.1695  1.6507  4.7995
67819SOL     OW13386   4.579   7.579  12.701  0.3452  0.6141 -0.2042
67819SOL    HW113387   4.564   7.585  12.795  2.5032  1.6547  0.1448
67819SOL    HW213388   4.524   7.507  12.672  2.9279 -2.8592  2.6380
67820SOL     OW13389   4.544   7.142   4.063  0.2098 -0.1566  0.6271
67820SOL    HW113390   4.560   7.082   4.136  0.9979  0.1127  0.6916
67820SOL    HW213391   4.511   7.087   3.993 -1.6539 -0.2582  1.5315
67821SOL     OW13392  13.257   6.238   4.122 -0.0916 -0.5992  0.0159
67821SOL    HW113393  13.253   6.214   4.215 -1.3697  0.7781  0.3673
67821SOL    HW213394  13.223   6.161   4.076 -0.0253 -1.0710  0.7346
67822SOL     OW13395  10.775   6.850   8.076 -0.3115 -0.0771 -0.7165
67822SOL    HW113396  10.709   6.917   8.095 -1.2176 -1.1324  0.0279
67822SOL    HW213397  10.724   6.775   8.045  0.3610 -1.4740  1.3830
67823SOL     OW13398   8.037  10.614   6.672  0.8198  0.7477 -0.8659
67823SOL    HW113399   8.016  10.525   6.700  1.5666  0.4347 -1.2723
67823SOL    HW213400   8.127  10.628   6.701  0.2549  1.9002  0.4521
67824SOL     OW13401  12.193   7.464  10.409  0.7675  0.1736  0.2245
67824SOL    HW113402  12.184   7.414  10.490  1.8716 -1.5914 -0.6797
67824SOL    HW213403  12.283   7.450  10.382  0.2258  0.0832 -1.7022
67825SOL     OW13404   0.431   4.545   3.705 -0.6286  0.7296  0.3790
67825SOL    HW113405   0.465   4.536   3.616  0.2485  0.8639  0.6864
67825SOL    HW213406   0.405   4.456   3.729  2.2351 -0.0308  1.1547
67826SOL     OW13407   8.962   1.278  10.590 -0.2708 -0.0180 -0.1429
67826SOL    HW113408   8.968   1.184  10.608 -0.6361 -0.0237 -0.0587
67826SOL    HW213409   8.995   1.287  10.500 -0.2415 -0.2252 -0.1538
67827SOL     OW13410   5.043  12.725   0.686 -0.5673  0.0039 -0.0146
67827SOL    HW113411   5.011  12.813   0.669  1.2367  0.3198 -2.2882
67827SOL    HW213412   5.116  12.737   0.747  0.5829  0.2847 -1.4151
67828SOL     OW13413  11.317   7.273  10.627  0.1394  0.1969 -0.4368
67828SOL    HW113414  11.387   7.222  10.588  1.1583  0.5755  0.8135
67828SOL    HW213415  11.346   7.290  10.717 -1.5482  0.3769  0.1274
67829SOL     OW13416   3.622  11.190   9.215  0.1138 -0.1551 -0.1718
67829SOL    HW113417   3.700  11.151   9.254 -0.0413  0.4386  0.7768
67829SOL    HW213418   3.550  11.133   9.243  0.1104 -0.2291 -0.3340
67830SOL     OW13419   1.903   9.146   0.687  0.1847  0.2137  0.1935
67830SOL    HW113420   1.987   9.101   0.687  0.2963  0.4271 -0.1958
67830SOL    HW213421   1.922   9.235   0.657 -0.2857  0.0670 -0.5682
67831SOL     OW13422  13.011   5.121  13.259 -0.0046 -0.0860  0.6234
67831SOL    HW113423  13.097   5.138  13.219 -0.7818  1.3843 -0.5264
67831SOL    HW213424  13.002   5.026  13.256  1.0925 -0.1884 -0.3336
67832SOL     OW13425   0.740   0.648  10.641 -0.2394  0.2652 -0.1016
67832SOL    HW113426   0.828   0.646  10.604 -0.2697 -0.4544 -0.1478
67832SOL    HW213427   0.754   0.657  10.736 -0.1699  2.9486 -0.2771
67833SOL     OW13428   6.193   5.153  10.280 -0.0415  0.1555  0.5081
67833SOL    HW113429   6.261   5.181  10.341 -0.9364  1.2949  1.0250
67833SOL    HW213430   6.116   5.138  10.335 -0.8201  1.0456 -0.3153
67834SOL     OW13431  11.219   3.671   3.217  0.1478 -0.6352  0.3531
67834SOL    HW113432  11.152   3.637   3.276 -0.8816 -0.5565 -0.7222
67834SOL    HW213433  11.178   3.670   3.131  0.0733  3.1057  0.1667
67835SOL     OW13434  13.064   9.857   4.304 -0.1692  0.4210  0.4760
67835SOL    HW113435  13.084   9.943   4.268 -1.1294  0.7486  0.6802
67835SOL    HW213436  13.130   9.799   4.267  0.2113  1.1603 -0.0293
67836SOL     OW13437   4.701   3.568   9.435  0.3278  0.0088  0.0824
67836SOL    HW113438   4.638   3.635   9.463 -0.8071 -0.2987 -1.5417
67836SOL    HW213439   4.647   3.492   9.414  1.2422 -0.3371 -1.1503
67837SOL     OW13440   6.184   1.680   9.157  0.0438  0.2063  0.0253
67837SOL    HW113441   6.227   1.633   9.229  0.7181 -0.5238 -0.8389
67837SOL    HW213442   6.257   1.719   9.108 -0.2864 -0.7363 -1.2465
67838SOL     OW13443   0.873   4.424   6.674  0.0827 -0.1542 -0.4948
67838SOL    HW113444   0.818   4.381   6.739 -0.7231 -0.9988 -1.6969
67838SOL    HW213445   0.922   4.353   6.633 -0.7010  0.1126 -1.9822
67839SOL     OW13446   9.710  12.812   2.219  0.5467 -0.1231 -0.5072
67839SOL    HW113447   9.696  12.743   2.155  1.2800  0.3378 -1.1653
67839SOL    HW213448   9.794  12.791   2.259  1.2176  0.8850 -1.3574
67840SOL     OW13449   0.271   7.586  10.014  0.0996  0.4868  0.1488
67840SOL    HW113450   0.339   7.526   9.985  0.1182 -0.0890  1.3558
67840SOL    HW213451   0.318   7.662  10.048  0.0845  0.9506 -0.8241
67841SOL     OW13452   6.245   8.616   8.287  1.1264 -0.2001  0.3645
67841SOL    HW113453   6.270   8.706   8.308  2.7875 -0.9261  1.7516
67841SOL    HW213454   6.231   8.575   8.372  0.4342 -1.2729 -0.2504
67842SOL     OW13455   9.672   5.527  12.800 -0.5756 -0.6486  0.0399
67842SOL    HW113456   9.684   5.551  12.708 -2.0874  2.3065  0.4678
67842SOL    HW213457   9.578   5.510  12.807 -0.7372  0.5495  1.2343
67843SOL     OW13458   8.625  12.637   0.615 -0.3395  0.5236 -0.4278
67843SOL    HW113459   8.566  12.582   0.564 -0.6253  0.5547 -0.1349
67843SOL    HW213460   8.593  12.726   0.601  0.0180  0.6019 -0.7645
67844SOL     OW13461   0.241  10.651   7.909 -0.0158 -0.0961 -0.2281
67844SOL    HW113462   0.275  10.595   7.978 -0.2046  0.9724  0.7581
67844SOL    HW213463   0.207  10.728   7.954 -0.4720  0.4736 -1.4806
67845SOL     OW13464  12.844  12.199  12.840 -0.1904 -0.1573  0.0169
67845SOL    HW113465  12.895  12.149  12.905 -0.3038  1.6385  1.5851
67845SOL    HW213466  12.784  12.135  12.802  1.3202 -1.7345  0.1141
67846SOL     OW13467  11.822   5.819  11.727  0.1729  0.0498 -0.3439
67846SOL    HW113468  11.871   5.899  11.708  1.8977 -0.8974 -0.1378
67846SOL    HW213469  11.737   5.832  11.685 -0.4224  2.8277  1.4639
67847SOL     OW13470   2.378   4.434   0.053 -0.1147  0.0472 -0.3361
67847SOL    HW113471   2.426   4.404   0.130 -1.2474 -0.2371  0.2810
67847SOL    HW213472   2.409   4.377  -0.018  2.4707  1.6576 -0.6079
67848SOL     OW13473  11.393   4.717  12.457  0.3321 -0.0056 -0.0621
67848SOL    HW113474  11.437   4.649  12.507 -0.6434 -0.4863  0.1699
67848SOL    HW213475  11.463   4.761  12.409  0.9296 -1.4292 -0.5399
67849SOL     OW13476  13.275  13.215   6.116 -0.5286  0.1060  0.6642
67849SOL    HW113477  13.350  13.275   6.119  1.1338 -1.7764 -1.1642
67849SOL    HW213478  13.293  13.151   6.185 -0.4368 -0.3778  0.1882
67850SOL     OW13479  10.974  11.844   9.404 -0.6366  0.0591  0.1614
67850SOL    HW113480  10.959  11.924   9.354 -1.5939  0.4485  1.0446
67850SOL    HW213481  10.922  11.778   9.359 -0.2422  0.0328 -0.2719
67851SOL     OW13482  12.969  11.810  12.226  0.0469 -0.3772  0.0267
67851SOL    HW113483  13.031  11.766  12.284 -0.8311 -0.6286  0.7986
67851SOL    HW213484  12.960  11.751  12.151  3.1316  1.1049 -1.6821
67852SOL     OW13485   3.495   1.617   9.788 -0.1046 -0.0513  0.1962
67852SOL    HW113486   3.404   1.644   9.782 -0.0350 -0.1143 -1.8410
67852SOL    HW213487   3.544   1.699   9.795 -0.2007  0.1068 -0.8711
67853SOL     OW13488   0.185   1.443   7.496  0.3684 -0.4245  0.6215
67853SOL    HW113489   0.274   1.425   7.526  0.2326  0.0605  1.3264
67853SOL    HW213490   0.171   1.535   7.518 -0.1067 -0.3410 -0.0086
67854SOL     OW13491   4.812  10.107   1.382 -0.3531  0.4880 -0.3224
67854SOL    HW113492   4.756  10.112   1.459 -0.5178  0.1643 -0.4179
67854SOL    HW213493   4.886  10.165   1.402 -0.6358  0.7841 -0.1270
67855SOL     OW13494   1.922  10.669  11.877 -0.1511  0.1236 -0.4298
67855SOL    HW113495   1.912  10.630  11.964  2.1092  1.3045  0.4779
67855SOL    HW213496   2.016  10.686  11.870 -0.4156  0.9904 -2.7126
67856SOL     OW13497   8.469   6.080  12.966 -0.3875 -0.1338 -0.3330
67856SOL    HW113498   8.416   6.041  12.896  2.7369  0.0633 -3.0750
67856SOL    HW213499   8.553   6.034  12.960  0.5481  1.0635  2.2477
67857SOL     OW13500   8.875   7.228   1.818  0.2076 -0.6639 -0.3663
67857SOL    HW113501   8.796   7.275   1.846  1.7483  0.8127  1.9116
67857SOL    HW213502   8.883   7.157   1.881 -0.7100 -2.5327 -2.2584
67858SOL     OW13503   2.394   8.571   2.660  0.4956  0.6441  0.2059
67858SOL    HW113504   2.435   8.628   2.726  2.1751  0.1584 -0.3839
67858SOL    HW213505   2.384   8.628   2.584  3.5279 -0.1099 -0.8875
67859SOL     OW13506   8.341  10.593  10.122 -0.0466 -0.3098  0.7097
67859SOL    HW113507   8.375  10.511  10.086  0.6277  0.1873  0.1934
67859SOL    HW213508   8.379  10.600  10.209  0.6396 -0.0988  0.3996
67860SOL     OW13509   0.627   1.578   5.857 -0.2672 -0.4897  0.3563
67860SOL    HW113510   0.617   1.550   5.766  2.2218 -0.2854 -0.0447
67860SOL    HW213511   0.602   1.502   5.909 -0.7573 -0.9379 -0.5113
67861SOL     OW13512  11.858   6.747  10.965  0.2251 -0.3096  0.2339
67861SOL    HW113513  11.798   6.675  10.942 -0.4989 -0.1698  1.5592
67861SOL    HW213514  11.884   6.784  10.881 -0.4141 -1.2943 -0.4320
67862SOL     OW13515   2.363   1.677  12.938  0.6125 -0.2844 -0.9431
67862SOL    HW113516   2.351   1.618  13.012  1.5829 -0.4289 -0.8850
67862SOL    HW213517   2.333   1.626  12.862  1.5557 -0.9326 -0.9097
67863SOL     OW13518   0.854   1.021   3.701  0.1546 -0.2302  0.5507
67863SOL    HW113519   0.943   1.039   3.672 -0.0273 -0.2261 -0.0070
67863SOL    HW213520   0.861   1.015   3.797  0.9238 -1.1653  0.4538
67864SOL     OW13521   9.998   2.366   3.082  0.7623 -0.1973  0.1078
67864SOL    HW113522   9.928   2.311   3.047 -0.1620  0.7954  0.3776
67864SOL    HW213523  10.000   2.442   3.024  3.3127 -1.3002 -1.4549
67865SOL     OW13524  11.557  10.818  10.927 -0.5686  0.3822 -0.2777
67865SOL    HW113525  11.560  10.727  10.956 -0.5619  0.8381  1.2412
67865SOL    HW213526  11.607  10.866  10.993 -0.0662  1.4211 -1.3718
67866SOL     OW13527   3.729   3.042   9.674 -0.3323 -0.4166  0.3377
67866SOL    HW113528   3.813   3.088   9.680  0.1148 -0.8974 -1.5702
67866SOL    HW213529   3.708   3.043   9.581 -0.7256 -3.2778  0.2876
67867SOL     OW13530   1.125   0.134   9.513 -0.1424 -0.5083 -0.2278
67867SOL    HW113531   1.099   0.082   9.589 -1.8918  0.1885 -0.3177
67867SOL    HW213532   1.049   0.135   9.456  0.4568  0.6743 -1.0557
67868SOL     OW13533   0.849   6.749   9.452  0.2950  0.4684  0.2979
67868SOL    HW113534   0.940   6.768   9.477  1.1785 -2.7070  0.0602
67868SOL    HW213535   0.797   6.774   9.529  1.7613 -0.2504  1.5895
67869SOL     OW13536   2.684  10.980   8.115  0.3873 -0.5516  0.1886
67869SOL    HW113537   2.592  10.979   8.143  0.0038  0.9594 -0.8907
67869SOL    HW213538   2.733  10.952   8.193 -0.8861 -0.0267  1.2197
67870SOL     OW13539  10.798   9.546   2.433  0.0945 -0.0659  0.1025
67870SOL    HW113540  10.775   9.469   2.484 -0.0616 -0.6597 -0.8384
67870SOL    HW213541  10.879   9.522   2.388 -0.6001 -0.1572 -1.1438
67871SOL     OW13542   5.840   2.785   5.321 -0.8418 -0.0283  0.0953
67871SOL    HW113543   5.759   2.740   5.300 -1.7338  1.4208  0.3134
67871SOL    HW213544   5.831   2.811   5.413 -1.0850  2.0207 -0.4696
67872SOL     OW13545  12.067   6.260  11.307  0.3422 -0.5015  0.1172
67872SOL    HW113546  12.154   6.292  11.282  0.2605  0.8727  1.5113
67872SOL    HW213547  12.016   6.339  11.325 -0.0497 -1.3103  3.0764
67873SOL     OW13548   6.700   7.959   6.689  0.1465  0.1092  0.1167
67873SOL    HW113549   6.631   7.942   6.752  0.0190 -0.8210 -0.2578
67873SOL    HW213550   6.727   8.049   6.706  0.1316 -0.1276  1.5001
67874SOL     OW13551   4.399   4.147  13.147 -0.1989 -0.2769  0.0375
67874SOL    HW113552   4.388   4.159  13.053  0.1552 -1.8280 -0.2311
67874SOL    HW213553   4.326   4.194  13.186  0.1043  1.0696 -0.9514
67875SOL     OW13554   2.484  11.860   4.833 -0.1882 -0.4260  0.2734
67875SOL    HW113555   2.535  11.868   4.914 -0.3734 -1.2795  0.4819
67875SOL    HW213556   2.393  11.857   4.862 -0.3457  0.7621 -0.0788
67876SOL     OW13557   1.320   6.673   6.130 -0.5525 -0.5218 -0.3441
67876SOL    HW113558   1.333   6.740   6.198 -0.3357 -0.5699 -0.3390
67876SOL    HW213559   1.369   6.705   6.055 -1.2815 -0.1693 -0.6834
67877SOL     OW13560   8.877   9.593   0.678  0.0779  0.3414  0.2945
67877SOL    HW113561   8.876   9.644   0.597  1.9231 -0.2170 -0.1232
67877SOL    HW213562   8.790   9.555   0.683  0.2226 -0.4642 -2.0102
67878SOL     OW13563  11.832   2.094   2.845  0.9051  0.1476 -0.2839
67878SOL    HW113564  11.903   2.157   2.858 -0.5372  2.0112 -0.9798
67878SOL    HW213565  11.865   2.032   2.780  1.6127  1.4584 -1.1995
67879SOL     OW13566   3.772   5.186  12.081  0.1550  0.0356 -0.4815
67879SOL    HW113567   3.847   5.246  12.081  0.9327 -0.8778 -1.8398
67879SOL    HW213568   3.803   5.109  12.130 -0.2378  0.0458 -0.2148
67880SOL     OW13569  13.205   3.877   7.443  0.5188 -0.0126  0.6277
67880SOL    HW113570  13.134   3.846   7.386 -0.2876 -0.3170  1.7571
67880SOL    HW213571  13.279   3.891   7.384 -0.2686 -0.3787 -0.4771
67881SOL     OW13572   7.081   6.242   0.551 -0.5586  0.1475  0.6842
67881SOL    HW113573   7.010   6.306   0.547 -0.1976  0.5212 -1.6391
67881SOL    HW213574   7.039   6.158   0.533 -0.3590  0.5240 -2.0021
67882SOL     OW13575  11.731   5.806   7.572 -0.6943  0.0216 -0.2272
67882SOL    HW113576  11.678   5.885   7.581 -1.2878 -0.0841 -2.2822
67882SOL    HW213577  11.671   5.739   7.539  0.0438 -0.9947  0.4108
67883SOL     OW13578   8.018   3.723  11.264 -0.2521  0.1488  0.3099
67883SOL    HW113579   8.046   3.775  11.339  1.2550  0.0282 -0.1458
67883SOL    HW213580   8.095   3.674  11.238 -1.3869 -1.6191  0.1289
67884SOL     OW13581   4.366   8.892   4.786  0.4826  0.0729  0.8256
67884SOL    HW113582   4.402   8.935   4.709 -0.0988  0.4967  0.7846
67884SOL    HW213583   4.272   8.883   4.767  0.5310 -0.8806  0.9844
67885SOL     OW13584   6.172   2.724  10.732  0.1949  0.3927  0.7548
67885SOL    HW113585   6.101   2.748  10.791  0.4653  0.8143  0.9164
67885SOL    HW213586   6.169   2.628  10.727 -0.4536  0.4142  0.6660
67886SOL     OW13587   6.876  10.009  11.258  0.3739 -0.0040  0.9601
67886SOL    HW113588   6.805  10.064  11.224  0.2826 -1.5254 -1.6172
67886SOL    HW213589   6.956  10.052  11.229  0.4207  0.3752  1.6435
67887SOL     OW13590   2.272  10.772  13.133  0.2316 -0.3382  0.6937
67887SOL    HW113591   2.275  10.738  13.222  0.4312 -1.2960  0.3374
67887SOL    HW213592   2.233  10.859  13.141 -1.5246 -1.1461  1.5034
67888SOL     OW13593  11.960  12.922   9.575  0.4429  0.1342  0.4734
67888SOL    HW113594  12.016  12.976   9.520  0.2296  1.3324  1.3850
67888SOL    HW213595  11.996  12.931   9.663  0.6554 -1.5868  0.5931
67889SOL     OW13596   8.591  13.285   9.631 -0.4179  0.4241  0.5566
67889SOL    HW113597   8.531  13.215   9.605 -0.6611  0.9136 -0.2670
67889SOL    HW213598   8.676  13.242   9.637 -0.7622 -0.1784  1.2482
67890SOL     OW13599   1.703   9.986   4.131  0.1684 -0.1500 -0.0116
67890SOL    HW113600   1.738   9.906   4.169 -0.2243  0.1402  1.0143
67890SOL    HW213601   1.612   9.989   4.161  0.8849  2.0192  2.3542
67891SOL     OW13602  12.123   3.925   8.788  0.3616 -0.0097 -0.2749
67891SOL    HW113603  12.144   3.982   8.714 -1.2732  0.9601 -0.0473
67891SOL    HW213604  12.140   3.978   8.865  1.5223 -0.8268  0.0596
67892SOL     OW13605   1.818   7.238   6.883  0.4140 -0.4094 -0.5044
67892SOL    HW113606   1.755   7.301   6.916  0.4482 -1.3191  1.4428
67892SOL    HW213607   1.866   7.285   6.815  0.6935  1.7901  1.1156
67893SOL     OW13608   8.357   5.508   4.520  0.0246  0.6541  0.2053
67893SOL    HW113609   8.389   5.519   4.609  0.6668  0.4087  0.0117
67893SOL    HW213610   8.366   5.595   4.481 -0.9790  0.9517  0.5949
67894SOL     OW13611   0.696   0.540   1.384  0.7182 -0.2334 -0.3398
67894SOL    HW113612   0.734   0.576   1.303  2.4954  0.7779  0.8824
67894SOL    HW213613   0.611   0.506   1.357  1.2395  0.1008 -2.6332
67895SOL     OW13614   3.817   3.684   3.052 -0.2679 -0.5834  0.3591
67895SOL    HW113615   3.768   3.766   3.063 -2.2335 -1.6247 -0.2049
67895SOL    HW213616   3.873   3.679   3.130  0.2469  1.4953  0.1824
67896SOL     OW13617  13.214   1.546  10.280 -0.5853  0.2679 -0.0501
67896SOL    HW113618  13.296   1.496  10.282 -1.1352 -0.7365 -1.3084
67896SOL    HW213619  13.149   1.485  10.246 -1.4262  1.6415 -1.0160
67897SOL     OW13620   6.078   9.674   5.200 -0.6188  0.1292  0.3621
67897SOL    HW113621   6.160   9.715   5.225 -0.6974 -0.0893  0.9870
67897SOL    HW213622   6.010   9.732   5.235 -0.7434  0.5937 -0.6139
67898SOL     OW13623   4.805   3.458   3.930 -0.2808 -0.3682 -0.7541
67898SOL    HW113624   4.883   3.449   3.876  0.4527 -3.4514  0.6135
67898SOL    HW213625   4.835   3.501   4.010  0.1555 -1.8203 -0.1048
67899SOL     OW13626  11.360   5.400   1.948 -0.1477 -0.3521  0.3931
67899SOL    HW113627  11.408   5.481   1.966  1.7128 -1.4497  0.5131
67899SOL    HW213628  11.395   5.369   1.864 -1.2805 -0.7434  0.0424
67900SOL     OW13629   9.740   0.194   1.444  0.2167 -0.1227 -0.0832
67900SOL    HW113630   9.754   0.281   1.480 -1.2437  0.3844 -0.6832
67900SOL    HW213631   9.735   0.137   1.521  0.5306  0.4130  0.3437
67901SOL     OW13632   9.096   5.248   4.365 -0.0922  0.0308  0.2945
67901SOL    HW113633   9.164   5.233   4.299 -0.1178  1.6874 -0.1565
67901SOL    HW213634   9.143   5.278   4.442 -0.3580  2.8820 -0.5636
67902SOL     OW13635   1.121   7.732   6.637 -0.9190  0.5667  0.0544
67902SOL    HW113636   1.138   7.817   6.677 -1.5278  1.1484 -0.8937
67902SOL    HW213637   1.202   7.682   6.652 -0.7907  1.0737  1.1753
67903SOL     OW13638   9.395  12.128  10.549 -0.3889  0.0459  0.0970
67903SOL    HW113639   9.419  12.175  10.630 -0.0354 -1.7231  1.0714
67903SOL    HW213640   9.435  12.179  10.479  0.3314  0.9721  1.1436
67904SOL     OW13641  11.479  11.266   3.075  0.7967 -0.3507 -0.0007
67904SOL    HW113642  11.396  11.228   3.046  0.1797  0.5382  0.5746
67904SOL    HW213643  11.479  11.256   3.170  0.8901  0.5316  0.1038
67905SOL     OW13644   7.478   9.373  12.576 -0.1580 -0.4252  0.0418
67905SOL    HW113645   7.489   9.321  12.656  1.4656 -0.5825 -0.2487
67905SOL    HW213646   7.488   9.463  12.604 -0.2499 -0.4378  0.1158
67906SOL     OW13647   5.468   2.475   2.563 -0.1033 -0.6627 -0.2004
67906SOL    HW113648   5.385   2.430   2.578 -0.0972 -0.5261  0.2838
67906SOL    HW213649   5.460   2.556   2.614 -0.5354  0.4043 -1.8764
67907SOL     OW13650   1.504  11.689   6.452  0.1598 -0.2244 -0.4089
67907SOL    HW113651   1.427  11.645   6.415 -0.1012  0.7572 -1.1024
67907SOL    HW213652   1.520  11.762   6.392 -0.5307  1.7039  1.6161
67908SOL     OW13653   0.370   2.707   3.694 -0.2279 -0.0704  0.1550
67908SOL    HW113654   0.461   2.708   3.722 -0.7958 -1.7206  2.3855
67908SOL    HW213655   0.325   2.763   3.758 -0.9974 -0.5503  0.0509
67909SOL     OW13656   1.995   6.787   8.596  0.0489 -0.4554  0.3868
67909SOL    HW113657   2.013   6.786   8.690  0.7909  1.0017  0.2892
67909SOL    HW213658   2.081   6.801   8.555 -0.4517  0.3665 -0.4205
67910SOL     OW13659   6.163   8.079   0.329 -0.0776  0.1563 -0.2464
67910SOL    HW113660   6.254   8.106   0.345  0.2189 -0.0493 -1.4312
67910SOL    HW213661   6.112   8.121   0.398  0.7726  1.1934 -0.2320
67911SOL     OW13662   8.786   1.164   4.705 -0.1361  0.7460 -0.3079
67911SOL    HW113663   8.825   1.084   4.738 -1.7265 -0.2038 -0.6005
67911SOL    HW213664   8.804   1.230   4.772 -0.6325 -0.3732  0.9668
67912SOL     OW13665   9.005   9.914  12.745 -0.1272  0.6811 -0.1269
67912SOL    HW113666   9.015   9.976  12.817  1.0133  1.1874 -0.7006
67912SOL    HW213667   9.095   9.893  12.719 -0.5212  0.8386 -1.6901
67913SOL     OW13668  11.541   1.533  12.659  0.3113  0.2879 -0.3258
67913SOL    HW113669  11.462   1.585  12.671  0.1486  0.3698 -1.5690
67913SOL    HW213670  11.590   1.579  12.591  1.1166 -0.1161 -0.0331
67914SOL     OW13671   0.807   6.036   6.576  0.0469  0.1418 -0.0293
67914SOL    HW113672   0.830   5.953   6.535  0.5450  0.0301  0.4768
67914SOL    HW213673   0.759   6.011   6.655  1.7596  0.2739  1.0958
67915SOL     OW13674   3.910   5.847   4.704  0.2300 -0.1397  0.5110
67915SOL    HW113675   3.916   5.925   4.648 -2.5761  1.8593  2.7269
67915SOL    HW213676   3.962   5.869   4.781 -0.1275 -0.7039  0.9188
67916SOL     OW13677   6.187  10.236  13.184  0.6596  0.5680  0.3479
67916SOL    HW113678   6.165  10.203  13.098 -2.4354  1.4365  0.6732
67916SOL    HW213679   6.194  10.331  13.173  0.2105  0.6927  1.0332
67917SOL     OW13680  10.106   5.650  10.625  0.0127  0.3069 -0.4368
67917SOL    HW113681  10.082   5.675  10.715  1.7848 -2.1144  0.8202
67917SOL    HW213682  10.029   5.671  10.573 -1.9205 -0.2089  2.0447
67918SOL     OW13683   3.809   8.368   0.167  0.2654  0.2106  0.3899
67918SOL    HW113684   3.864   8.393   0.241  1.0725 -2.0054  0.6045
67918SOL    HW213685   3.865   8.378   0.090 -0.1686  1.2712  0.1914
67919SOL     OW13686   2.584   1.073   2.874  0.3994 -0.4903 -0.2734
67919SOL    HW113687   2.666   1.047   2.914  0.2244 -1.0389 -0.2730
67919SOL    HW213688   2.594   1.048   2.782  0.8584  0.8922 -0.6266
67920SOL     OW13689   2.616   9.150   6.606  0.4942  0.1555  0.3919
67920SOL    HW113690   2.587   9.114   6.522 -1.3515  0.6414  0.7666
67920SOL    HW213691   2.637   9.241   6.588 -0.0630  0.3050  0.4623
67921SOL     OW13692   6.994  12.139  12.365  0.6106  0.1059  0.1766
67921SOL    HW113693   7.032  12.112  12.449  1.0673  0.1082 -0.0284
67921SOL    HW213694   6.916  12.084  12.356  0.4014  0.3023  0.7328
67922SOL     OW13695  11.121  10.024   2.746  0.3906 -0.7004 -0.2183
67922SOL    HW113696  11.055   9.983   2.689  0.3615  1.6783 -2.0537
67922SOL    HW213697  11.204  10.008   2.702  0.4002  0.9144 -0.8508
67923SOL     OW13698   6.284   2.442   2.658  0.1422  0.0141  0.0727
67923SOL    HW113699   6.254   2.504   2.592 -1.5004 -1.2924 -0.4586
67923SOL    HW213700   6.211   2.434   2.719  0.4902 -1.0733  0.3685
67924SOL     OW13701   7.387   9.440   3.573 -0.0219 -0.0184  0.4717
67924SOL    HW113702   7.382   9.366   3.633 -2.0151 -0.5587 -0.3053
67924SOL    HW213703   7.480   9.444   3.548  0.0448 -2.6350  0.0484
67925SOL     OW13704   1.134   3.195   4.348  0.1373  0.2392 -0.2086
67925SOL    HW113705   1.085   3.177   4.428 -2.2580  3.6067 -0.6816
67925SOL    HW213706   1.203   3.256   4.375 -0.0345  0.5771 -0.5106
67926SOL     OW13707   3.088   3.994   1.341  0.1419 -0.2417  0.8113
67926SOL    HW113708   3.040   3.919   1.375 -1.3854 -0.1319 -0.9503
67926SOL    HW213709   3.179   3.978   1.366 -0.4256 -1.6847  2.1306
67927SOL     OW13710  11.139  13.182   4.724  0.3447 -0.0125  0.3989
67927SOL    HW113711  11.170  13.265   4.687 -0.2595 -0.4437 -1.1418
67927SOL    HW213712  11.176  13.115   4.666 -1.5783 -0.6501 -0.1526
67928SOL     OW13713   7.567  10.541   5.694 -0.2772  0.2735 -0.6334
67928SOL    HW113714   7.638  10.483   5.723 -0.1127  2.1165  3.3227
67928SOL    HW213715   7.612  10.618   5.659 -0.3005  0.5552 -0.0696
67929SOL     OW13716   8.736  12.672   4.223  0.2618  0.1856 -0.1719
67929SOL    HW113717   8.657  12.632   4.187 -0.2026  0.2448  0.7627
67929SOL    HW213718   8.708  12.758   4.255  0.7720  0.3417 -0.1235
67930SOL     OW13719   8.605   2.083   0.999 -0.2582  0.0583 -0.5134
67930SOL    HW113720   8.511   2.074   1.014 -0.0939  1.4561  1.9038
67930SOL    HW213721   8.612   2.114   0.909 -2.0455 -0.6880 -0.9620
67931SOL     OW13722   9.219   1.213   2.987  0.1603 -0.2912  0.5715
67931SOL    HW113723   9.307   1.183   3.008 -0.0671 -1.5169 -0.1462
67931SOL    HW213724   9.176   1.137   2.948 -0.7426  0.7011 -0.4410
67932SOL     OW13725   1.864   2.656  11.053  0.1549 -0.9759 -0.6537
67932SOL    HW113726   1.828   2.628  11.138 -1.6136  0.5217 -0.8265
67932SOL    HW213727   1.947   2.698  11.075 -0.1964 -0.7639  0.3352
67933SOL     OW13728   9.349  12.762   8.769 -0.5066  0.2727  1.0436
67933SOL    HW113729   9.269  12.806   8.796 -0.0768  0.4809  2.0148
67933SOL    HW213730   9.349  12.768   8.673 -2.4360 -1.1196  0.8922
67934SOL     OW13731  12.203   4.121   3.673 -0.3437  0.2098 -0.2938
67934SOL    HW113732  12.166   4.205   3.701 -0.3464 -0.1660  0.8561
67934SOL    HW213733  12.259   4.094   3.745  0.5602 -0.2384 -1.1450
67935SOL     OW13734  12.908  11.621   4.529  0.2640  0.6060  0.2864
67935SOL    HW113735  12.834  11.635   4.587 -0.0352  0.6893 -0.1125
67935SOL    HW213736  12.976  11.679   4.563  0.6548 -0.5232  1.5273
67936SOL     OW13737   9.964   7.469   6.593 -0.1559 -0.0935  0.2710
67936SOL    HW113738  10.033   7.504   6.537 -0.5928 -0.2584 -0.3820
67936SOL    HW213739   9.936   7.544   6.646  0.8206 -0.1323  0.8694
67937SOL     OW13740   9.233  12.123   8.975  0.2903 -0.1872  0.0637
67937SOL    HW113741   9.145  12.112   9.013  0.8050  0.7441  1.6262
67937SOL    HW213742   9.222  12.101   8.883 -1.4390 -0.7774  0.3714
67938SOL     OW13743   2.756   2.604   5.350 -0.1560 -0.3420 -0.1837
67938SOL    HW113744   2.840   2.648   5.363 -0.4149  0.3094 -0.6241
67938SOL    HW213745   2.767   2.556   5.267 -0.4418  0.3271 -0.6205
67939SOL     OW13746  12.738   9.232   1.225  0.1521 -0.2764  0.5816
67939SOL    HW113747  12.760   9.255   1.316  1.1585 -1.2095  0.6026
67939SOL    HW213748  12.642   9.229   1.224  0.0724  1.3509  1.1840
67940SOL     OW13749   2.653   8.129  12.682  0.5454  0.3784 -0.7151
67940SOL    HW113750   2.728   8.137  12.624 -0.0635  0.4456 -1.5170
67940SOL    HW213751   2.578   8.157  12.629 -0.6818 -3.4264 -1.3428
67941SOL     OW13752  12.732   1.778  11.797 -0.3282  0.2534  0.9017
67941SOL    HW113753  12.750   1.789  11.703  1.7799 -2.4996  0.8544
67941SOL    HW213754  12.654   1.723  11.800  0.4209 -0.8653  0.6614
67942SOL     OW13755   2.719   2.489  10.463  0.1277 -0.1096 -0.3685
67942SOL    HW113756   2.809   2.470  10.487 -0.4254  0.2628  2.3385
67942SOL    HW213757   2.695   2.566  10.514 -2.0256 -0.8468 -0.1139
67943SOL     OW13758  10.311  12.550   2.420  0.1217 -0.1187  0.5301
67943SOL    HW113759  10.306  12.579   2.330 -0.2468  0.2337  0.6630
67943SOL    HW213760  10.245  12.602   2.466 -0.6065 -1.2071  0.7533
67944SOL     OW13761  11.895   0.209  10.796 -0.3097 -0.0983 -0.0434
67944SOL    HW113762  11.950   0.175  10.726 -0.3739  0.0720 -0.1782
67944SOL    HW213763  11.812   0.164  10.786  0.0598 -0.9566  0.6649
67945SOL     OW13764   3.071   9.546   0.920  0.1863 -0.4818  0.0627
67945SOL    HW113765   3.157   9.580   0.895 -0.7859  0.3959 -2.4649
67945SOL    HW213766   3.089   9.466   0.968  2.4378  0.7108  1.4034
67946SOL     OW13767   7.281   6.936   5.909 -0.0329 -0.0277  0.6398
67946SOL    HW113768   7.212   6.890   5.861  0.3195 -0.3225  0.4135
67946SOL    HW213769   7.339   6.866   5.941  1.2644  0.3122 -0.8604
67947SOL     OW13770   9.585  10.485   4.589  0.3444  0.1690 -0.0806
67947SOL    HW113771   9.624  10.558   4.638 -1.6292 -0.0732  2.0166
67947SOL    HW213772   9.613  10.407   4.637  0.1382 -0.2441 -0.6264
67948SOL     OW13773  12.628   6.365   2.708  0.0868  0.1209 -0.0950
67948SOL    HW113774  12.542   6.344   2.743 -0.5164  0.3779 -1.3464
67948SOL    HW213775  12.624   6.336   2.617  0.1227  3.0686 -1.1583
67949SOL     OW13776   1.158  11.806  10.074  0.2475 -0.0707  0.0293
67949SOL    HW113777   1.181  11.846  10.158 -0.9822  2.3461 -0.6938
67949SOL    HW213778   1.237  11.814  10.021  0.6718 -0.5975  0.5540
67950SOL     OW13779  12.004   3.782   9.415  0.5996 -0.1898  0.6884
67950SOL    HW113780  11.923   3.831   9.407 -0.6877 -1.7918  2.7248
67950SOL    HW213781  12.000   3.717   9.345  0.1419 -0.2212  0.7426
67951SOL     OW13782   6.067  12.827   4.502  0.5319 -0.3658  0.0319
67951SOL    HW113783   6.137  12.885   4.469  0.1766  1.1878  1.8489
67951SOL    HW213784   6.044  12.864   4.587 -1.2799 -1.9238  0.2649
67952SOL     OW13785   2.763   0.127   3.690 -0.0690  0.3334 -0.0554
67952SOL    HW113786   2.738   0.208   3.735  2.5578 -0.0588  2.4890
67952SOL    HW213787   2.791   0.155   3.603 -1.1029  1.8366  0.0674
67953SOL     OW13788  10.156   3.572  12.624 -0.5608 -0.0499 -0.4290
67953SOL    HW113789  10.234   3.517  12.636  0.0029  0.4817 -1.4816
67953SOL    HW213790  10.138   3.567  12.531 -1.3359  0.4519 -0.3093
67954SOL     OW13791   2.886  12.759   7.390 -0.0027 -0.0861  0.0200
67954SOL    HW113792   2.800  12.732   7.356 -0.3353  0.2420  0.5902
67954SOL    HW213793   2.883  12.854   7.389 -0.3683 -0.0512  1.7949
67955SOL     OW13794   5.725   0.543  10.770  0.5750 -0.0987 -0.0990
67955SOL    HW113795   5.786   0.482  10.729  0.9415  0.1579  0.0679
67955SOL    HW213796   5.645   0.535  10.717  0.2738 -1.4449  0.5047
67956SOL     OW13797   4.662  12.512   7.335 -0.2314 -0.0337 -0.7581
67956SOL    HW113798   4.610  12.545   7.261 -0.7603 -2.1904 -1.4017
67956SOL    HW213799   4.621  12.551   7.412  0.1567  2.0317 -1.5327
67957SOL     OW13800   1.438   7.152   2.764  0.3853  0.3010 -0.2270
67957SOL    HW113801   1.468   7.065   2.790  0.3613  0.9355  2.0965
67957SOL    HW213802   1.357   7.164   2.811  0.6515  1.7927 -0.1229
67958SOL     OW13803   9.815   4.193   8.711 -0.0839  0.0211  0.5234
67958SOL    HW113804   9.720   4.185   8.699 -0.3828  1.7881  1.4856
67958SOL    HW213805   9.831   4.287   8.717  1.9029 -0.1702 -0.7697
67959SOL     OW13806   4.052   2.611   2.413  0.2353 -0.3465  0.0564
67959SOL    HW113807   4.137   2.647   2.387  0.7636 -2.1426 -0.9294
67959SOL    HW213808   4.052   2.615   2.509  1.2727  0.0429  0.0509
67960SOL     OW13809   2.849  12.812   4.401  0.2385 -0.0088 -0.4481
67960SOL    HW113810   2.916  12.867   4.360 -0.2867  0.3578 -0.8164
67960SOL    HW213811   2.826  12.748   4.334 -1.3060  1.1742 -1.0858
67961SOL     OW13812   7.365   5.883   0.698 -0.0032  0.3868  0.1961
67961SOL    HW113813   7.374   5.971   0.660 -0.4796  0.4268  0.1717
67961SOL    HW213814   7.277   5.882   0.735  0.1874  0.0937  0.6510
67962SOL     OW13815   1.268   3.966   0.493 -0.5756 -0.4872  0.3741
67962SOL    HW113816   1.215   4.001   0.421 -0.6408 -1.9903 -0.3533
67962SOL    HW213817   1.262   4.032   0.562 -0.4760  1.0271 -1.0021
67963SOL     OW13818  10.183   1.296   3.552 -0.5014 -1.1112  0.3187
67963SOL    HW113819  10.204   1.387   3.574  1.5647 -1.3774 -0.3598
67963SOL    HW213820  10.241   1.275   3.479  1.4609 -3.9315  2.4776
67964SOL     OW13821   5.034   3.829  11.988  0.5118 -0.1083 -0.0399
67964SOL    HW113822   5.061   3.738  11.992 -0.4533 -0.3878  0.3990
67964SOL    HW213823   5.017   3.853  12.080  0.6042  0.4584 -0.1676
67965SOL     OW13824   3.122   1.120  10.229 -0.3721  0.0749 -0.2761
67965SOL    HW113825   3.079   1.126  10.314  1.5862 -1.2468  0.8586
67965SOL    HW213826   3.180   1.196  10.226 -0.6221  0.2597 -0.5636
67966SOL     OW13827   9.687  12.645  10.395 -0.3351  0.1322 -0.0432
67966SOL    HW113828   9.637  12.696  10.331 -0.0542 -0.7600 -1.0019
67966SOL    HW213829   9.778  12.662  10.373 -0.2084  1.0191  1.1067
67967SOL     OW13830   3.187   9.601   4.846  0.2709  0.3071 -0.7630
67967SOL    HW113831   3.121   9.582   4.778 -1.0900 -0.2674  0.6528
67967SOL    HW213832   3.213   9.515   4.878 -0.7038  0.5637  0.8726
67968SOL     OW13833   2.886   8.865   1.327 -0.2362 -0.5868 -0.0620
67968SOL    HW113834   2.895   8.916   1.408  1.7806 -0.7961 -0.0954
67968SOL    HW213835   2.843   8.784   1.355 -1.6554  0.2729  0.3508
67969SOL     OW13836  11.745   6.289   4.385 -0.1943  0.0424 -0.1485
67969SOL    HW113837  11.828   6.293   4.432  0.0761  1.1465 -0.7027
67969SOL    HW213838  11.765   6.239   4.306  0.0575  0.6711 -0.4897
67970SOL     OW13839   2.487   7.021   4.416 -0.0119 -0.3247  0.0639
67970SOL    HW113840   2.481   7.055   4.506  0.5211  0.1984 -0.0968
67970SOL    HW213841   2.440   6.938   4.419  0.3795 -0.5201  0.9333
67971SOL     OW13842   6.583   1.630   8.236  0.2626  0.2796  0.2523
67971SOL    HW113843   6.529   1.701   8.200  0.1999  1.0332  1.7808
67971SOL    HW213844   6.550   1.617   8.325  0.3425 -1.6237  0.0507
67972SOL     OW13845   5.284   5.370   8.594  0.2817 -0.0991  0.3598
67972SOL    HW113846   5.329   5.387   8.511  1.0846  1.2237  1.0165
67972SOL    HW213847   5.329   5.427   8.657 -0.4676 -0.8845  1.6553
67973SOL     OW13848   5.916   6.604   4.383  0.2178 -0.1318 -0.0888
67973SOL    HW113849   5.918   6.509   4.388 -2.7365 -0.2540  0.8706
67973SOL    HW213850   5.872   6.623   4.300 -0.4910  0.3330  0.3784
67974SOL     OW13851   1.849  12.034   7.032 -0.2677  0.4862  0.0274
67974SOL    HW113852   1.935  12.034   7.072 -0.5740  0.9746  0.6918
67974SOL    HW213853   1.830  11.941   7.017  0.2457  0.3592  0.1391
67975SOL     OW13854  10.919   4.107  11.513  0.5800  0.3407 -0.4375
67975SOL    HW113855  10.996   4.093  11.458 -0.5837 -1.0927 -1.8045
67975SOL    HW213856  10.845   4.102  11.452 -0.6333  1.2920  0.8924
67976SOL     OW13857   0.725   1.594   9.254  0.1523  0.3941 -0.6913
67976SOL    HW113858   0.790   1.651   9.213  2.5410 -3.3175 -2.6453
67976SOL    HW213859   0.763   1.571   9.339 -0.5570  1.1495 -0.1407
67977SOL     OW13860   4.271   5.061   1.859  0.0533 -0.4894  0.2048
67977SOL    HW113861   4.194   5.106   1.825  0.8438  1.8251  1.2507
67977SOL    HW213862   4.238   5.006   1.930 -0.7020  0.2250  0.4216
67978SOL     OW13863   6.814  11.747  10.585 -0.2078 -0.2499 -0.3093
67978SOL    HW113864   6.866  11.735  10.506 -0.5565  0.0765 -0.5947
67978SOL    HW213865   6.852  11.686  10.648  0.3166 -0.2401 -0.6071
67979SOL     OW13866   1.554  13.098  12.855  0.2407 -0.2498 -0.3713
67979SOL    HW113867   1.548  13.016  12.807 -0.4838  0.1028 -0.9025
67979SOL    HW213868   1.475  13.100  12.910  0.1917  0.1334 -0.4490
67980SOL     OW13869  11.795   7.573   0.908  0.0342 -0.6399 -0.3153
67980SOL    HW113870  11.845   7.622   0.973 -0.3582 -1.5621  0.7161
67980SOL    HW213871  11.858   7.511   0.872  0.6134  0.7632 -1.8464
67981SOL     OW13872   4.922  10.163   2.177  0.4102 -0.0745 -1.0280
67981SOL    HW113873   4.849  10.114   2.139 -0.1474  0.5372 -0.7674
67981SOL    HW213874   4.928  10.243   2.125 -0.4014  0.8010  0.1491
67982SOL     OW13875   1.753  11.851   5.675  0.1458 -0.1264  0.4184
67982SOL    HW113876   1.660  11.854   5.699 -0.1495 -0.6373 -0.5507
67982SOL    HW213877   1.769  11.934   5.630  0.2676  0.1391  0.9530
67983SOL     OW13878   0.211  10.915   4.212  0.1676  0.0914  0.2638
67983SOL    HW113879   0.197  11.010   4.215 -0.2261  0.0326  0.3994
67983SOL    HW213880   0.185  10.890   4.123 -0.5460 -0.0082  0.4969
67984SOL     OW13881   8.165   8.231   4.497 -0.0358  0.2763 -0.0771
67984SOL    HW113882   8.227   8.254   4.428 -2.1162  1.8956 -1.5335
67984SOL    HW213883   8.085   8.208   4.450 -0.7021 -1.3972  1.7477
67985SOL     OW13884  12.615   3.215  13.220  0.3175  0.2264  0.0524
67985SOL    HW113885  12.540   3.158  13.239  0.3891  0.0607 -0.1584
67985SOL    HW213886  12.690   3.155  13.214  0.4140  0.3560 -0.0538
67986SOL     OW13887   2.448  12.117   0.649 -0.1900 -1.0213 -0.2730
67986SOL    HW113888   2.406  12.080   0.727  0.8350 -2.4997 -0.3756
67986SOL    HW213889   2.540  12.126   0.674 -0.3506  1.2940 -0.3519
67987SOL     OW13890  12.191   2.045  13.064 -0.6303  0.4316  0.0191
67987SOL    HW113891  12.274   2.009  13.034 -1.1170  0.2766 -1.1969
67987SOL    HW213892  12.210   2.135  13.087 -0.0637  0.3037  0.0547
67988SOL     OW13893   0.163   7.431  11.294 -0.0293  1.1381  0.0569
67988SOL    HW113894   0.233   7.495  11.300 -0.0482  1.0575  3.0590
67988SOL    HW213895   0.089   7.472  11.339 -1.3163  0.4648 -1.3346
67989SOL     OW13896   3.834   5.157   4.504  0.0537  0.0696  0.4626
67989SOL    HW113897   3.809   5.170   4.595 -1.6048  0.6852 -0.0443
67989SOL    HW213898   3.773   5.091   4.471  0.5835 -0.0898 -0.2356
67990SOL     OW13899   0.286   6.771   0.672 -0.2208 -0.7002 -0.7317
67990SOL    HW113900   0.292   6.713   0.747  1.1129 -1.8768 -1.6900
67990SOL    HW213901   0.308   6.858   0.706  1.2956 -1.3780  0.0756
67991SOL     OW13902  12.670   4.826   5.326 -0.3492  0.6864 -0.2843
67991SOL    HW113903  12.589   4.820   5.275 -1.3020 -1.1843  1.3175
67991SOL    HW213904  12.713   4.742   5.312 -0.3633  0.3538  1.5162
67992SOL     OW13905   7.107   8.696   0.956 -0.6699  0.0890  0.1147
67992SOL    HW113906   7.101   8.782   0.913  1.9885  0.1694 -0.2736
67992SOL    HW213907   7.122   8.635   0.884  0.3203 -0.2606  0.5974
67993SOL     OW13908   4.500  10.834   8.182  0.1974 -0.0260  0.2046
67993SOL    HW113909   4.534  10.886   8.255  1.5354 -1.3992  0.6110
67993SOL    HW213910   4.405  10.833   8.196  0.2848  1.0406  1.0227
67994SOL     OW13911   1.123   9.653   1.598  0.5999 -0.4012 -0.1708
67994SOL    HW113912   1.063   9.590   1.559 -0.5007  1.1849 -1.1795
67994SOL    HW213913   1.088   9.669   1.686 -0.0142 -0.0551 -0.4763
67995SOL     OW13914  11.985   5.159   8.292  0.3950 -0.3332  0.3507
67995SOL    HW113915  11.960   5.077   8.335 -1.5675 -0.8084 -1.5279
67995SOL    HW213916  12.080   5.153   8.281  0.2904 -2.4179  0.1666
67996SOL     OW13917   0.443   2.503   2.161 -0.6138  0.0332 -0.2738
67996SOL    HW113918   0.456   2.574   2.098  0.6332  0.3897  0.3711
67996SOL    HW213919   0.381   2.539   2.225  1.7409  1.4563  1.3534
67997SOL     OW13920   1.410   1.498  13.053 -0.0748 -0.3632  0.1833
67997SOL    HW113921   1.436   1.437  12.984 -0.3583 -0.3472  0.0565
67997SOL    HW213922   1.319   1.475  13.071 -0.1107 -0.1321  0.2987
67998SOL     OW13923   0.859  11.043  11.922  0.0236  0.5769 -0.0086
67998SOL    HW113924   0.888  11.099  11.851  0.6663  0.6994  0.3425
67998SOL    HW213925   0.905  11.076  11.999 -1.2844  0.9744  0.6344
67999SOL     OW13926  12.414   9.293   8.973 -0.0245 -0.6718 -0.2844
67999SOL    HW113927  12.356   9.317   8.901 -1.0462 -2.1304  0.0045
67999SOL    HW213928  12.414   9.370   9.031 -0.6466 -0.1825 -0.9234
68000SOL     OW13929  11.135   9.550   6.106  0.7444 -0.2631  0.0121
68000SOL    HW113930  11.048   9.566   6.069  1.3827  1.8779 -0.6945
68000SOL    HW213931  11.132   9.593   6.192  0.2253 -2.6912  1.2990
68001SOL     OW13932   0.260  10.149   4.572 -0.2120  0.1454  0.0306
68001SOL    HW113933   0.189  10.098   4.533  0.3492 -0.4486 -0.2275
68001SOL    HW213934   0.238  10.240   4.552 -0.6687 -0.0635 -0.4290
68002SOL     OW13935   5.192   5.248   4.349 -0.0127  0.1044 -0.4009
68002SOL    HW113936   5.261   5.287   4.295  0.6836 -0.6010 -0.0365
68002SOL    HW213937   5.238   5.185   4.405 -0.6831  0.9558  1.1687
68003SOL     OW13938   0.423   1.204   6.742 -0.1326 -0.8039 -0.1628
68003SOL    HW113939   0.452   1.116   6.766 -1.8174 -1.2064  0.5722
68003SOL    HW213940   0.370   1.233   6.817 -1.7773 -0.2534 -1.4654
68004SOL     OW13941   5.441   0.087  12.564  0.1026 -0.1201 -0.6085
68004SOL    HW113942   5.380   0.074  12.491 -0.9773  1.1868  0.0017
68004SOL    HW213943   5.387   0.074  12.642  0.4839  1.4275 -0.0537
68005SOL     OW13944   0.430   6.075   8.819  0.4227  0.1863  0.4703
68005SOL    HW113945   0.340   6.108   8.829  0.8512  1.0538  1.7418
68005SOL    HW213946   0.476   6.146   8.774  0.6013  0.0003  0.3618
68006SOL     OW13947  12.823   9.450   2.609 -0.0169 -0.3273  0.1699
68006SOL    HW113948  12.859   9.538   2.606  0.2163 -0.4241  0.0772
68006SOL    HW213949  12.893   9.394   2.576 -0.3822 -0.4771 -0.3743
68007SOL     OW13950   8.169   8.740   6.911  0.0444 -0.1160  0.4178
68007SOL    HW113951   8.230   8.784   6.971  1.5721 -0.6397 -0.7100
68007SOL    HW213952   8.199   8.650   6.909 -1.9139 -0.8546  1.2305
68008SOL     OW13953   6.385  12.405  10.010 -0.3540 -0.2439 -0.5372
68008SOL    HW113954   6.400  12.311   9.996 -2.7058 -0.5315 -1.7948
68008SOL    HW213955   6.393  12.443   9.923  0.8626  0.8003  0.0096
68009SOL     OW13956   2.282   4.199   6.015 -0.1755 -0.0579  0.0290
68009SOL    HW113957   2.234   4.278   5.992  0.2458  0.3073  0.3649
68009SOL    HW213958   2.372   4.217   5.988 -0.0337 -0.3412  0.2972
68010SOL     OW13959   6.771   7.035   5.599 -0.2001  0.1292 -0.7816
68010SOL    HW113960   6.831   7.077   5.537  0.8419 -0.7963 -0.4192
68010SOL    HW213961   6.757   7.101   5.667  0.8979  0.1374 -0.5553
68011SOL     OW13962  10.675   4.093   4.230 -0.0205 -0.1037  0.0951
68011SOL    HW113963  10.691   4.049   4.313  1.5953  1.8114  0.8676
68011SOL    HW213964  10.595   4.144   4.246 -0.9148 -1.3282 -0.2603
68012SOL     OW13965   9.993  12.120   0.742 -0.0035 -0.2863  0.0879
68012SOL    HW113966  10.061  12.071   0.789  1.1738  0.0321 -1.2112
68012SOL    HW213967   9.984  12.202   0.790 -2.0311 -1.6797  2.3275
68013SOL     OW13968   6.378  11.161   1.198 -0.0948  0.1916 -0.2290
68013SOL    HW113969   6.365  11.200   1.284 -1.9840  3.3339 -1.7612
68013SOL    HW213970   6.465  11.190   1.171 -0.1372  0.5381  0.0087
68014SOL     OW13971   5.758   7.843   5.974  0.0297  0.6998 -0.1549
68014SOL    HW113972   5.675   7.890   5.981 -0.7748 -0.7410  0.3942
68014SOL    HW213973   5.821   7.899   6.021 -1.6102 -0.2920  3.6449
68015SOL     OW13974   8.031   8.011   7.711  0.1314 -0.1330  0.0996
68015SOL    HW113975   8.037   8.107   7.707 -0.1015 -0.0815  0.7869
68015SOL    HW213976   8.120   7.981   7.694  0.0535  0.1697 -0.9058
68016SOL     OW13977   1.169   2.214   1.304 -0.4470 -0.2160 -0.2295
68016SOL    HW113978   1.100   2.268   1.343  0.3428  0.7095 -0.0596
68016SOL    HW213979   1.191   2.259   1.222 -0.2757 -0.6926 -0.4508
68017SOL     OW13980  10.313   6.984   5.046 -0.2212 -0.6145  0.5183
68017SOL    HW113981  10.387   7.035   5.012 -0.0064  1.0131  3.1616
68017SOL    HW213982  10.296   6.918   4.978  0.4459  2.0113 -2.4086
68018SOL     OW13983  12.190   0.531   2.530 -0.0944  0.4684 -0.3532
68018SOL    HW113984  12.247   0.457   2.512  1.0084  0.3454  3.0106
68018SOL    HW213985  12.109   0.492   2.562  0.6078  0.6226  1.7448
68019SOL     OW13986   4.089  12.157   7.040  0.1396 -0.0427  0.3437
68019SOL    HW113987   4.167  12.101   7.038  0.6770  0.7008  0.0742
68019SOL    HW213988   4.016  12.096   7.049  0.5399 -0.9391 -1.9513
68020SOL     OW13989   9.018   5.204   8.004  0.2949  0.1883 -0.5587
68020SOL    HW113990   8.941   5.173   7.956  0.1289  0.8257 -0.7151
68020SOL    HW213991   9.027   5.295   7.977  0.8259  0.2495 -0.1743
68021SOL     OW13992  12.930   5.884  13.232  0.3573 -0.1923 -0.0663
68021SOL    HW113993  12.912   5.876  13.325 -1.0926 -0.6739 -0.3635
68021SOL    HW213994  12.999   5.819  13.215 -0.5992 -1.3475  0.3594
68022SOL     OW13995   9.058   6.940   7.318 -0.4319 -0.2453 -0.3748
68022SOL    HW113996   9.092   6.935   7.229  1.6683 -0.8941  0.4106
68022SOL    HW213997   9.133   6.968   7.371 -1.2710 -1.1670  1.3802
68023SOL     OW13998   9.723   9.434   6.221 -0.5250 -0.4541 -0.3920
68023SOL    HW113999   9.653   9.371   6.202 -1.1696 -0.0492  0.5825
68023SOL    HW214000   9.705   9.465   6.310 -0.5047  1.4804 -1.0146
68024SOL     OW14001  11.181   0.473   7.549 -0.2401  0.3218 -0.6753
68024SOL    HW114002  11.249   0.440   7.491 -0.3188 -0.4425 -0.3370
68024SOL    HW214003  11.143   0.395   7.589 -1.2905  0.7398 -0.8275
68025SOL     OW14004   5.525   1.746   9.624 -0.6737 -0.5210 -0.8575
68025SOL    HW114005   5.468   1.764   9.549 -1.0936 -1.9909 -0.9294
68025SOL    HW214006   5.465   1.715   9.692 -0.1362 -0.5296 -0.3853
68026SOL     OW14007   1.508   7.559   3.555  0.4740 -0.3677  0.1548
68026SOL    HW114008   1.569   7.607   3.611 -0.0316  1.0627 -0.4829
68026SOL    HW214009   1.457   7.505   3.616 -1.7712  2.9775  1.4872
68027SOL     OW14010   5.746   6.032   5.719 -0.0430  0.1793  0.4681
68027SOL    HW114011   5.675   5.975   5.748  0.8183 -1.0770  0.1553
68027SOL    HW214012   5.750   6.100   5.786 -1.6659  0.4026  0.3884
68028SOL     OW14013   2.046   4.531   1.090 -0.5604  0.1735 -0.5221
68028SOL    HW114014   2.106   4.579   1.032 -0.4338 -0.0033 -0.5410
68028SOL    HW214015   1.972   4.589   1.102 -0.4705  0.3170 -0.6571
68029SOL     OW14016   4.779   5.749   5.294  0.1990 -0.3669  0.7328
68029SOL    HW114017   4.777   5.686   5.221  0.3341 -0.2170  0.5996
68029SOL    HW214018   4.748   5.831   5.256  0.0278 -0.3509  0.9063
68030SOL     OW14019   1.680   5.597  12.772 -0.2971  0.1315 -0.2153
68030SOL    HW114020   1.631   5.563  12.697  0.3745  1.4050 -1.2686
68030SOL    HW214021   1.707   5.518  12.820 -0.0686 -0.7609 -1.7375
68031SOL     OW14022  12.329   6.116   8.455 -0.4041 -0.2469  0.5990
68031SOL    HW114023  12.304   6.191   8.401 -0.8075 -1.3824 -0.8937
68031SOL    HW214024  12.321   6.041   8.395  0.0463 -1.4643  2.0122
68032SOL     OW14025   0.833   7.391   7.970  0.1668  0.5323  0.0873
68032SOL    HW114026   0.917   7.403   7.925  1.0644 -1.4634  1.0832
68032SOL    HW214027   0.800   7.307   7.936 -0.1903  0.0698  1.5204
68033SOL     OW14028   9.670   7.589   5.425  0.3646 -0.3571 -0.5845
68033SOL    HW114029   9.651   7.680   5.447  0.9332  0.0245 -1.6074
68033SOL    HW214030   9.742   7.565   5.485 -0.2268 -0.3604  0.1413
68034SOL     OW14031   7.409   0.430   2.781  0.6216  0.0422 -0.1988
68034SOL    HW114032   7.427   0.351   2.731  0.3907 -0.1269 -0.0193
68034SOL    HW214033   7.442   0.501   2.727  0.9891 -0.1908 -0.2840
68035SOL     OW14034   1.250  11.085  11.291  0.5080 -0.2616 -0.0971
68035SOL    HW114035   1.274  11.120  11.205  0.2343  0.0061 -0.0676
68035SOL    HW214036   1.334  11.061  11.331  0.6459 -0.2765 -0.3906
68036SOL     OW14037   1.177  12.205   1.980  0.1699 -0.2536  0.0839
68036SOL    HW114038   1.168  12.122   1.933 -0.7689 -0.0002 -0.2031
68036SOL    HW214039   1.263  12.199   2.023  0.6932 -0.8311 -0.9971
68037SOL     OW14040   3.300  12.303   4.559 -0.0554  0.0365 -0.5887
68037SOL    HW114041   3.384  12.288   4.602 -0.0411 -4.9629 -1.7067
68037SOL    HW214042   3.322  12.312   4.466 -0.6307  0.1804 -0.7143
68038SOL     OW14043   1.971  12.999   8.898 -0.2269  0.2859  0.4020
68038SOL    HW114044   1.896  12.951   8.932 -0.1518  0.5610  0.9761
68038SOL    HW214045   2.023  12.933   8.853  0.7498 -0.5699  2.6152
68039SOL     OW14046   1.862   9.793  10.033  0.2937  0.1067  0.2147
68039SOL    HW114047   1.861   9.786  10.129 -0.0088  0.7954  0.2709
68039SOL    HW214048   1.784   9.747  10.004  0.8575 -0.8963  0.2245
68040SOL     OW14049   5.840   4.981   2.940 -0.1951  0.3257  0.2279
68040SOL    HW114050   5.905   5.044   2.910  0.2859  0.6405  1.7972
68040SOL    HW214051   5.870   4.897   2.906  1.1824  0.4384  1.0965
68041SOL     OW14052   3.077   1.456   3.459 -0.0820  0.1290 -0.1347
68041SOL    HW114053   3.039   1.517   3.522 -0.8510 -0.2338 -0.2438
68041SOL    HW214054   3.094   1.377   3.509 -1.2680 -0.3772 -0.5014
68042SOL     OW14055   2.146   6.347  11.133  0.8105 -0.4920  0.2218
68042SOL    HW114056   2.086   6.272  11.132 -0.9597  0.8475 -0.3230
68042SOL    HW214057   2.165   6.364  11.040  2.2748 -1.0330  0.3927
68043SOL     OW14058   7.844   7.182   3.898 -0.4422 -0.5013 -0.3032
68043SOL    HW114059   7.893   7.249   3.851 -1.4729  0.2456 -0.3348
68043SOL    HW214060   7.821   7.222   3.982 -0.6418 -0.9886 -0.1185
68044SOL     OW14061   6.534  12.827   8.420  0.0733 -0.3279  0.2519
68044SOL    HW114062   6.446  12.834   8.384 -0.0457  0.9985  0.7539
68044SOL    HW214063   6.521  12.802   8.512  0.1399  0.9573  0.6351
68045SOL     OW14064   6.337   2.861   5.223 -0.2129 -0.4972 -0.4655
68045SOL    HW114065   6.394   2.896   5.154 -1.2098  1.7642 -0.2285
68045SOL    HW214066   6.248   2.868   5.186 -0.9060  1.9515  1.4202
68046SOL     OW14067   4.400   0.817  11.301 -0.5013 -0.7150 -0.7607
68046SOL    HW114068   4.341   0.774  11.239  0.4915 -1.5120 -1.1751
68046SOL    HW214069   4.370   0.787  11.387 -2.0137  0.5518 -0.7903
68047SOL     OW14070   9.677   5.741  13.030 -0.6311  0.0035  0.8714
68047SOL    HW114071   9.623   5.730  12.952 -0.4245 -1.8514  0.9261
68047SOL    HW214072   9.655   5.828  13.064 -3.7477 -0.7270  1.0068
68048SOL     OW14073   7.800   3.437   8.440 -0.7510 -0.3030 -0.0573
68048SOL    HW114074   7.857   3.505   8.477 -1.2679 -0.5826  1.3292
68048SOL    HW214075   7.852   3.396   8.371  0.7911 -0.6515  1.2624
68049SOL     OW14076   7.057   1.734  10.464 -0.2580  0.6082  0.1709
68049SOL    HW114077   6.981   1.784  10.496 -0.9510 -0.4771  0.2840
68049SOL    HW214078   7.024   1.645  10.455  1.1253  0.0433  0.5695
68050SOL     OW14079   0.880   8.095  10.312 -0.1273 -0.3113 -0.1223
68050SOL    HW114080   0.956   8.049  10.276 -0.9022 -1.6936 -0.0691
68050SOL    HW214081   0.859   8.162  10.246  1.0485  0.0145 -0.1877
68051SOL     OW14082   0.312  12.658  10.450 -0.2976  0.4296  0.2644
68051SOL    HW114083   0.392  12.663  10.502  1.2746  0.3799 -1.9690
68051SOL    HW214084   0.293  12.748  10.426 -0.6208  0.3893  0.3609
68052SOL     OW14085   1.149   7.405   9.887 -0.4161  0.0313  0.4573
68052SOL    HW114086   1.094   7.451   9.823 -2.3186 -1.4664  0.9440
68052SOL    HW214087   1.219   7.467   9.906 -1.5729  1.7828 -0.6711
68053SOL     OW14088   9.843   1.248   4.566 -0.4520  0.1094  0.1064
68053SOL    HW114089   9.758   1.270   4.606 -0.6196 -0.7111  0.2325
68053SOL    HW214090   9.834   1.274   4.475  0.3649  3.1548  0.8097
68054SOL     OW14091  10.416   9.563   9.074 -0.0151 -0.2646  0.4996
68054SOL    HW114092  10.487   9.501   9.089  0.1221 -0.3713 -0.5209
68054SOL    HW214093  10.452   9.648   9.096  0.0960 -0.4368  0.9885
68055SOL     OW14094   4.070   9.439   4.571  0.0365  0.2181 -0.2112
68055SOL    HW114095   3.981   9.417   4.598  0.9498 -0.6313  2.4931
68055SOL    HW214096   4.116   9.354   4.569  0.8188  0.6486 -1.4664
68056SOL     OW14097   6.430   6.638   5.775  0.2056 -0.1294 -1.0513
68056SOL    HW114098   6.427   6.722   5.729 -1.1268  0.6654  0.4107
68056SOL    HW214099   6.386   6.577   5.717 -1.0171  0.7472 -1.0884
68057SOL     OW14100   6.405   1.298   8.328 -0.6466 -0.4797 -0.0011
68057SOL    HW114101   6.408   1.380   8.377  1.4035 -1.0023  0.8546
68057SOL    HW214102   6.368   1.322   8.243  0.2639  1.4013  0.0991
68058SOL     OW14103   2.373   3.332   0.241  0.0736 -0.2891  0.1752
68058SOL    HW114104   2.448   3.307   0.295 -0.0700  1.6534  1.3681
68058SOL    HW214105   2.412   3.363   0.159  0.4893 -0.5962  0.2555
68059SOL     OW14106   2.901   0.724   4.630  0.2738 -0.0019 -0.1047
68059SOL    HW114107   2.966   0.710   4.699  0.8952 -0.4624 -0.7706
68059SOL    HW214108   2.945   0.696   4.550 -1.0642 -1.2013 -0.4532
68060SOL     OW14109   9.950  12.743  10.498  0.4980  0.0154  0.1142
68060SOL    HW114110   9.920  12.811  10.558  2.3587  1.4589 -0.5144
68060SOL    HW214111   9.961  12.666  10.554  1.0045  0.9828  1.3941
68061SOL     OW14112   5.878  12.176   4.832 -0.1549  0.3195 -0.4575
68061SOL    HW114113   5.862  12.146   4.922 -0.2553 -1.0885 -0.9261
68061SOL    HW214114   5.792  12.171   4.789  0.1366 -0.3076 -0.9878
68062SOL     OW14115  10.230   5.430   9.571 -0.3618 -0.1740 -0.0091
68062SOL    HW114116  10.145   5.413   9.611  0.1403  0.9858  1.6535
68062SOL    HW214117  10.274   5.345   9.572 -1.4101 -0.7495 -0.7341
68063SOL     OW14118  13.109   2.805  12.134 -0.1854  0.1345  0.5933
68063SOL    HW114119  13.079   2.827  12.222  0.3529 -0.3940  0.9121
68063SOL    HW214120  13.204   2.815  12.137 -0.3159  2.6192 -0.6290
68064SOL     OW14121   7.148   6.522   9.611  0.5158 -0.1928 -0.1451
68064SOL    HW114122   7.085   6.528   9.682  1.1628 -0.7252  0.4935
68064SOL    HW214123   7.099   6.545   9.533 -0.0234  1.1965  0.5634
68065SOL     OW14124  10.693   3.218   4.684 -0.1762 -0.2397  0.4609
68065SOL    HW114125  10.677   3.189   4.594  1.6249 -0.4216  0.1617
68065SOL    HW214126  10.684   3.139   4.736  0.1867 -0.4207  0.2506
68066SOL     OW14127   1.268   6.368  10.927 -0.2831 -0.0386 -0.1386
68066SOL    HW114128   1.196   6.407  10.877  1.0668  1.2959 -1.1282
68066SOL    HW214129   1.251   6.274  10.923 -1.3614  0.1772 -1.3183
68067SOL     OW14130   6.818   2.720   1.117  0.4732  0.7272  0.8667
68067SOL    HW114131   6.815   2.787   1.185  1.7612 -0.4806  2.2082
68067SOL    HW214132   6.797   2.638   1.163  0.9960 -0.0799 -0.2642
68068SOL     OW14133   3.365   9.014   8.319 -0.2420  0.0417  0.9284
68068SOL    HW114134   3.451   9.054   8.310 -1.3777  2.3169 -0.6333
68068SOL    HW214135   3.327   9.055   8.396 -0.3690 -0.1149  0.9506
68069SOL     OW14136   6.670   1.206   0.712 -0.1002  0.4207  0.1002
68069SOL    HW114137   6.712   1.220   0.796  1.9942  0.5864 -0.9044
68069SOL    HW214138   6.664   1.293   0.672 -0.4649  0.2638 -0.2049
68070SOL     OW14139   1.146  10.146   3.680  0.3332 -0.5121 -0.1306
68070SOL    HW114140   1.215  10.155   3.615  0.7908 -1.3694  0.2130
68070SOL    HW214141   1.066  10.131   3.629  0.9650 -2.9933 -0.5108
68071SOL     OW14142   5.640   5.259   6.237 -0.2454 -0.2444 -0.4547
68071SOL    HW114143   5.659   5.204   6.161  1.3223 -0.5743  0.1446
68071SOL    HW214144   5.725   5.283   6.272 -0.8536  2.7045 -0.7592
68072SOL     OW14145   4.674  12.538   6.869 -0.2689 -0.2240 -0.4036
68072SOL    HW114146   4.716  12.624   6.876  0.9293 -0.7374 -1.0781
68072SOL    HW214147   4.598  12.544   6.928  0.4606  0.9004  0.4714
68073SOL     OW14148   6.331   7.240   9.402 -0.4664 -0.1682 -0.0351
68073SOL    HW114149   6.306   7.331   9.415  1.9801  0.7683 -1.2092
68073SOL    HW214150   6.388   7.220   9.477 -1.8254 -1.1281  0.7852
68074SOL     OW14151   3.994   9.339   9.559 -1.0116 -0.2050  0.4518
68074SOL    HW114152   4.026   9.257   9.520 -1.7025 -1.2721  2.0344
68074SOL    HW214153   3.955   9.386   9.486  0.6108 -0.6343 -0.7613
68075SOL     OW14154   7.581  12.275  10.078  0.5871  0.2905  0.0771
68075SOL    HW114155   7.675  12.270  10.095  0.6523 -0.3181 -0.4128
68075SOL    HW214156   7.562  12.369  10.078  0.7337  0.3749  2.4627
68076SOL     OW14157   4.193   1.221   8.033  0.0214 -0.1025  0.0730
68076SOL    HW114158   4.271   1.242   7.980  0.2863 -0.5622  0.2763
68076SOL    HW214159   4.138   1.168   7.975  0.2859 -0.5586  0.2338
68077SOL     OW14160  12.747  11.394   5.437 -0.2537 -1.1361 -0.5308
68077SOL    HW114161  12.799  11.431   5.508 -0.8865  0.5230 -0.8922
68077SOL    HW214162  12.672  11.354   5.481  1.2202 -3.5393 -0.0051
68078SOL     OW14163   2.606  11.394   3.539 -0.5518  0.0258  0.2780
68078SOL    HW114164   2.676  11.347   3.583  0.5411  0.5399 -0.8424
68078SOL    HW214165   2.631  11.487   3.546 -0.2600  0.1253 -1.4620
68079SOL     OW14166  11.973   1.442   0.208 -0.1987  0.1963 -0.4491
68079SOL    HW114167  12.044   1.456   0.270 -0.7455  0.3103  0.1617
68079SOL    HW214168  11.978   1.517   0.149 -1.4393  1.6591  1.1884
68080SOL     OW14169   8.168   8.640   2.112  0.3974 -0.0048 -0.5967
68080SOL    HW114170   8.196   8.696   2.184 -0.1059 -0.7863  0.2227
68080SOL    HW214171   8.179   8.694   2.034 -0.5731  1.4182  0.2146
68081SOL     OW14172   9.022  12.365  11.010 -0.5685 -0.9553  0.2718
68081SOL    HW114173   8.933  12.363  11.046 -0.7203 -2.6670 -0.1178
68081SOL    HW214174   9.014  12.416  10.929 -0.6773  0.9638  1.4204
68082SOL     OW14175   5.961   0.695   3.172 -0.5981 -0.0245  0.0102
68082SOL    HW114176   5.880   0.651   3.199  0.0994 -1.0871  0.4426
68082SOL    HW214177   6.030   0.631   3.189  0.2220  0.4259 -1.4446
68083SOL     OW14178   6.371   3.587   9.187  0.1745  0.3162  0.4165
68083SOL    HW114179   6.297   3.545   9.231  0.7907 -1.5767 -0.2259
68083SOL    HW214180   6.343   3.594   9.095  0.7671 -0.4061  0.1717
68084SOL     OW14181  11.644   6.982   3.436 -0.4444 -0.4101 -0.5450
68084SOL    HW114182  11.698   6.922   3.384 -0.5167 -0.8056 -0.1658
68084SOL    HW214183  11.593   7.031   3.371 -0.4826 -0.8548 -0.8533
68085SOL     OW14184  10.540   4.601   1.301  0.2073  0.4736  0.1374
68085SOL    HW114185  10.507   4.599   1.391 -3.0232  0.0987 -0.9520
68085SOL    HW214186  10.604   4.529   1.298  1.3556  1.3089  2.4120
68086SOL     OW14187   1.844  12.989   2.320  0.4506 -0.2469 -0.2161
68086SOL    HW114188   1.803  13.066   2.359  1.1852  0.8041 -1.4749
68086SOL    HW214189   1.861  12.931   2.395  1.0163  1.3219  0.9204
68087SOL     OW14190   9.444   4.608   1.818 -0.2790  0.1915  0.2385
68087SOL    HW114191   9.458   4.684   1.875 -0.0559 -0.4001  0.9918
68087SOL    HW214192   9.484   4.535   1.866  0.2893 -0.2532 -0.8718
68088SOL     OW14193   7.671  11.264   1.775  0.0387 -0.1745 -0.3306
68088SOL    HW114194   7.582  11.280   1.745  0.3066  1.7788 -0.2106
68088SOL    HW214195   7.662  11.248   1.869 -0.1050  1.5486 -0.0026
68089SOL     OW14196   4.190  11.129  11.904  0.0170  0.5452  0.1317
68089SOL    HW114197   4.222  11.039  11.905 -0.2841  0.4400  0.7148
68089SOL    HW214198   4.247  11.176  11.965  0.4583  0.8556 -0.5098
68090SOL     OW14199   6.304   7.367   2.714 -0.2746 -0.4217  0.5221
68090SOL    HW114200   6.246   7.366   2.790 -0.9189 -0.1053  0.0339
68090SOL    HW214201   6.323   7.274   2.698 -1.7671 -0.6363 -0.1617
68091SOL     OW14202  12.565   3.194   3.928  0.4547  0.7021 -0.6126
68091SOL    HW114203  12.479   3.181   3.967  0.3012 -1.0260 -1.4269
68091SOL    HW214204  12.603   3.267   3.977 -0.5636  0.0171  1.2916
68092SOL     OW14205   6.670   6.851   6.947  0.3290  0.1016 -0.1533
68092SOL    HW114206   6.594   6.820   6.898  0.7445 -1.7184  0.2879
68092SOL    HW214207   6.736   6.867   6.880  0.0313  0.2730 -0.4131
68093SOL     OW14208   9.086  13.270  10.094  0.3665 -0.3301  0.0989
68093SOL    HW114209   9.153  13.202  10.091  0.4903 -0.3697  2.1303
68093SOL    HW214210   9.006  13.224  10.118 -0.5180 -0.3125 -2.5066
68094SOL     OW14211  13.299   0.867   8.224 -0.1918  0.1016 -0.2694
68094SOL    HW114212  13.368   0.929   8.247  0.0399 -0.3900  0.3915
68094SOL    HW214213  13.220   0.920   8.220  0.1152  0.5559 -0.3560
68095SOL     OW14214   2.927   2.920  13.202 -0.0272 -0.2009 -0.1874
68095SOL    HW114215   2.837   2.890  13.189  0.2995 -1.2351 -0.1511
68095SOL    HW214216   2.943   2.906  13.295 -1.1205  3.7139  0.7838
68096SOL     OW14217  10.407   8.645   8.724  0.0579 -0.1724  0.0207
68096SOL    HW114218  10.357   8.677   8.649 -0.3241 -2.1874 -0.6496
68096SOL    HW214219  10.353   8.668   8.800 -0.2593  0.6107 -0.4272
68097SOL     OW14220   4.917   8.473  12.797  0.1813  0.0521  0.1425
68097SOL    HW114221   4.916   8.426  12.714  0.0923 -0.6396  0.5310
68097SOL    HW214222   4.871   8.415  12.858 -2.0988  1.6458  0.0843
68098SOL     OW14223   3.739   3.550   5.685  0.1724  0.0887  1.0629
68098SOL    HW114224   3.794   3.627   5.675 -0.3089  0.4857  1.4658
68098SOL    HW214225   3.801   3.479   5.702  0.5615  0.5298  1.5248
68099SOL     OW14226   5.179   2.667   9.357  0.0254  0.3116  0.0286
68099SOL    HW114227   5.138   2.751   9.334 -1.6504 -0.4837 -0.0657
68099SOL    HW214228   5.117   2.601   9.326  1.3883 -0.9839 -0.0477
68100SOL     OW14229   8.781  13.222   1.941 -0.6992 -0.1466  0.1181
68100SOL    HW114230   8.835  13.176   2.006  0.0487 -0.8394 -0.9741
68100SOL    HW214231   8.814  13.193   1.857 -2.4247 -0.1459 -0.5966
68101SOL     OW14232   4.212  12.645   6.234  0.3808  0.6079  0.3216
68101SOL    HW114233   4.276  12.600   6.178 -0.1760  1.4652 -1.0588
68101SOL    HW214234   4.128  12.604   6.212  0.2803  0.2919  1.2591
68102SOL     OW14235   7.211   9.507  11.891 -0.1350 -0.4099 -0.0014
68102SOL    HW114236   7.184   9.423  11.927 -0.8825 -1.1373 -2.1343
68102SOL    HW214237   7.137   9.535  11.838  0.3703  1.2907  0.1271
68103SOL     OW14238   8.858   3.765  10.386  0.1331 -0.4774  0.7439
68103SOL    HW114239   8.928   3.713  10.426  1.3303 -1.4250 -2.3309
68103SOL    HW214240   8.820   3.707  10.320 -0.9864  1.3256 -0.2791
68104SOL     OW14241   5.423  12.752   0.029  0.4200 -0.0947  0.1056
68104SOL    HW114242   5.364  12.705  -0.029  1.0503  0.1023 -0.7216
68104SOL    HW214243   5.474  12.684   0.073 -1.1720 -0.3331  1.7172
68105SOL     OW14244   5.336   7.070   4.802  0.4207  0.0634  0.3518
68105SOL    HW114245   5.358   7.046   4.892 -1.5921 -1.5637  0.4691
68105SOL    HW214246   5.268   7.137   4.811  0.5798  0.2729  0.0297
68106SOL     OW14247   4.699  11.685   2.763  0.3364 -0.3558  0.1072
68106SOL    HW114248   4.781  11.664   2.718  0.3110 -0.2382  0.0035
68106SOL    HW214249   4.651  11.739   2.700  0.0554 -0.6589  0.0599
68107SOL     OW14250  13.110   5.127   1.255  0.4229  0.6695 -0.8587
68107SOL    HW114251  13.079   5.096   1.170  0.5435 -0.2270 -0.5849
68107SOL    HW214252  13.051   5.198   1.278  0.0540  0.5544 -1.4477
68108SOL     OW14253   5.191   5.652   2.795  0.0123 -0.5424  0.5325
68108SOL    HW114254   5.141   5.571   2.800 -1.3895  0.2139 -0.5234
68108SOL    HW214255   5.216   5.659   2.703 -0.1039  0.3348  0.5570
68109SOL     OW14256   7.806   1.208   2.832 -0.2472 -0.3751  0.1749
68109SOL    HW114257   7.790   1.257   2.912 -1.8077  1.7415 -1.3491
68109SOL    HW214258   7.720   1.176   2.805  0.3194 -1.4341 -0.4642
68110SOL     OW14259   9.065   4.897   4.107  0.0636 -0.4165  0.5192
68110SOL    HW114260   9.150   4.897   4.150  0.1995  1.6542  0.3258
68110SOL    HW214261   9.082   4.855   4.022  1.2985  1.3289 -0.1690
68111SOL     OW14262   0.248   1.347  11.671 -0.2719 -0.7674 -0.2317
68111SOL    HW114263   0.176   1.405  11.646  0.6038  0.9447  1.0190
68111SOL    HW214264   0.295   1.395  11.739  0.7799 -2.7751  0.5379
68112SOL     OW14265   9.788   5.568   0.734  0.1861  0.1502  0.1871
68112SOL    HW114266   9.778   5.649   0.684 -0.4117 -0.4098 -0.6250
68112SOL    HW214267   9.773   5.499   0.670  1.2881 -0.6284  0.7303
68113SOL     OW14268  11.901   9.717   8.050  0.2088  0.5317  0.3456
68113SOL    HW114269  11.921   9.715   8.144 -2.3594  0.8116  0.9862
68113SOL    HW214270  11.824   9.774   8.044 -1.2126 -1.4334 -1.5727
68114SOL     OW14271   1.290   5.219   9.565 -0.3357  0.1605 -0.7077
68114SOL    HW114272   1.329   5.176   9.641 -2.9743 -1.7160 -0.2639
68114SOL    HW214273   1.320   5.309   9.570  3.6294 -1.0042 -0.3511
68115SOL     OW14274  11.589   2.309   3.587  0.1296  0.0616  0.0548
68115SOL    HW114275  11.509   2.291   3.537  0.3713  1.2136 -0.7653
68115SOL    HW214276  11.659   2.270   3.535  0.1753 -0.4933  0.5166
68116SOL     OW14277   0.530  11.185  11.837  0.0978  0.2270  0.3709
68116SOL    HW114278   0.620  11.218  11.835 -0.0838  0.7996  1.1666
68116SOL    HW214279   0.477  11.257  11.804  0.1832 -1.1835 -3.2136
68117SOL     OW14280  10.796   8.655   2.306 -0.0722  0.0650 -0.4551
68117SOL    HW114281  10.820   8.590   2.372  0.1507  1.2449  0.6499
68117SOL    HW214282  10.865   8.721   2.311 -1.2510  1.3059 -0.2886
68118SOL     OW14283   2.903  11.806  10.023  0.2484  0.3530 -0.3686
68118SOL    HW114284   2.821  11.853  10.039 -1.8404 -2.7893 -1.0369
68118SOL    HW214285   2.924  11.766  10.108 -0.7246 -1.3735 -0.8885
68119SOL     OW14286  12.759   2.571   6.449 -0.5904 -0.4656  0.5237
68119SOL    HW114287  12.828   2.505   6.447  0.2634  0.4113  0.2765
68119SOL    HW214288  12.770   2.621   6.368 -1.0548  0.1319  0.8156
68120SOL     OW14289   8.466   0.362   7.253 -0.6379 -0.2067  0.0942
68120SOL    HW114290   8.537   0.391   7.196  0.4182  1.2469  2.0011
68120SOL    HW214291   8.398   0.429   7.242 -0.9727 -0.6146 -0.3729
68121SOL     OW14292  11.190   5.504   5.453 -0.5255  0.3426  0.0346
68121SOL    HW114293  11.232   5.430   5.408  1.5213  1.6182 -0.2831
68121SOL    HW214294  11.107   5.516   5.406 -1.0329 -1.8491  0.2347
68122SOL     OW14295  11.565   3.418  10.439  0.1256  0.3724  0.1619
68122SOL    HW114296  11.569   3.323  10.427  0.3162  0.5220 -1.0784
68122SOL    HW214297  11.500   3.430  10.509 -0.3289 -0.6382 -0.0591
68123SOL     OW14298   1.707   4.569   8.113  0.3523  0.4326 -0.0361
68123SOL    HW114299   1.799   4.586   8.093  0.2022 -0.0899 -1.2708
68123SOL    HW214300   1.664   4.653   8.097  0.4871  0.4457 -0.3490
68124SOL     OW14301   7.985  11.201   3.356  0.2912  0.3812 -0.0782
68124SOL    HW114302   7.900  11.234   3.384 -0.7068 -2.6056  0.6647
68124SOL    HW214303   7.995  11.117   3.400  1.7441 -1.3600 -3.3659
68125SOL     OW14304   2.342   6.717   2.264  0.3220 -0.3825  0.2116
68125SOL    HW114305   2.271   6.690   2.322  0.4585 -0.0218  0.5502
68125SOL    HW214306   2.381   6.635   2.234  0.6049 -0.5672  1.0700
68126SOL     OW14307   2.369   9.983   4.800 -0.4161 -0.1254 -0.1018
68126SOL    HW114308   2.457   9.997   4.834 -0.5857 -1.2058  0.8820
68126SOL    HW214309   2.334  10.071   4.785  0.7830  0.3126 -0.4220
68127SOL     OW14310   2.346   2.563   1.473  0.1231 -0.7173  0.2643
68127SOL    HW114311   2.269   2.518   1.439  0.8054 -1.0612 -0.8593
68127SOL    HW214312   2.421   2.516   1.437  0.8642  0.8581 -0.3792
68128SOL     OW14313   9.736  10.223   2.559 -0.2747 -0.0965  0.0737
68128SOL    HW114314   9.710  10.305   2.515 -0.8155 -0.7269 -0.8224
68128SOL    HW214315   9.795  10.181   2.497  1.9399  0.6865  1.5361
68129SOL     OW14316   0.918   4.328   0.138  0.2499  0.2818  0.1016
68129SOL    HW114317   1.009   4.321   0.165  0.5840  1.3055 -0.7048
68129SOL    HW214318   0.905   4.421   0.118 -0.4647 -0.1262 -1.4886
68130SOL     OW14319   7.592   5.457  10.002 -0.0553 -0.1098  0.2595
68130SOL    HW114320   7.572   5.390   9.937  1.0852 -1.1686  0.9353
68130SOL    HW214321   7.638   5.525   9.954  1.4194 -1.2084  0.0132
68131SOL     OW14322   5.731  10.032   2.312  0.1170  0.3650 -0.3154
68131SOL    HW114323   5.703  10.000   2.398 -1.6756  0.6422 -0.7781
68131SOL    HW214324   5.815   9.988   2.297  0.7644  0.7702  1.8229
68132SOL     OW14325  13.227  10.911  10.049  0.2188 -0.7102  0.3743
68132SOL    HW114326  13.215  10.978   9.982 -0.9099 -1.5632 -0.3265
68132SOL    HW214327  13.321  10.910  10.067  0.2071  1.3323  0.7201
68133SOL     OW14328   5.168   3.212  12.197 -0.5971  0.5644 -0.6318
68133SOL    HW114329   5.212   3.148  12.141  0.4863  0.6600  0.0790
68133SOL    HW214330   5.075   3.191  12.189 -0.2458 -1.7564  0.3219
68134SOL     OW14331  12.345   2.271   1.427 -0.4391  0.2188  0.0029
68134SOL    HW114332  12.405   2.254   1.500  0.6852 -0.9486 -1.1352
68134SOL    HW214333  12.277   2.327   1.464  1.1857  1.3520  1.4300
68135SOL     OW14334  10.473   9.736   4.216 -0.1531 -0.4691  0.5543
68135SOL    HW114335  10.495   9.807   4.276 -0.3412 -0.8027  1.0312
68135SOL    HW214336  10.379   9.742   4.205 -0.1337 -0.4798  0.3789
68136SOL     OW14337   2.231  11.592   5.434 -0.2000  0.4427 -0.1723
68136SOL    HW114338   2.296  11.548   5.380  1.8929  1.9613  0.9886
68136SOL    HW214339   2.195  11.523   5.490  0.9224 -0.3100 -0.3553
68137SOL     OW14340   4.006   7.489   3.734  0.0396 -0.1029 -0.6566
68137SOL    HW114341   3.930   7.485   3.676  0.1683 -1.5882 -0.7706
68137SOL    HW214342   4.080   7.464   3.678  0.2487 -1.0004  0.0034
68138SOL     OW14343   8.916   6.492   0.881 -0.4098 -0.6968 -0.2314
68138SOL    HW114344   8.941   6.502   0.973 -0.0055 -1.2682 -0.2728
68138SOL    HW214345   8.980   6.544   0.833 -2.4463  2.2176 -0.0312
68139SOL     OW14346   8.286   0.220   7.927 -0.3454  0.3645 -0.2243
68139SOL    HW114347   8.259   0.232   8.018 -1.3330  0.1697 -0.4879
68139SOL    HW214348   8.295   0.309   7.893 -0.3689  0.4303 -0.0605
68140SOL     OW14349   4.047   4.096  10.458 -0.5699  0.1729  0.0512
68140SOL    HW114350   3.962   4.078  10.418 -0.0486 -1.0344 -0.5560
68140SOL    HW214351   4.059   4.190  10.447 -1.8977  0.3876  0.2956
68141SOL     OW14352   6.460   9.113   8.916 -0.6161 -0.4302 -0.0952
68141SOL    HW114353   6.439   9.154   8.832 -0.3619 -2.2128 -1.0695
68141SOL    HW214354   6.472   9.187   8.976  1.6852  1.0470 -2.1678
68142SOL     OW14355   5.165   3.471   8.132  0.5572 -0.8223 -0.2769
68142SOL    HW114356   5.176   3.454   8.038 -0.3914 -1.0256 -0.3571
68142SOL    HW214357   5.218   3.548   8.149  2.4788 -2.0178 -0.5420
68143SOL     OW14358   0.906   3.588   5.749  0.6182  0.3930  0.3670
68143SOL    HW114359   0.831   3.618   5.800  0.5608 -0.1354  0.6004
68143SOL    HW214360   0.868   3.540   5.676  0.7232 -0.4077  0.8175
68144SOL     OW14361   2.950   9.180   6.501  0.2044  0.1212  0.3239
68144SOL    HW114362   2.927   9.135   6.583 -1.6003 -1.1186 -0.7926
68144SOL    HW214363   2.976   9.268   6.528  1.0677 -0.6857  2.3393
68145SOL     OW14364  11.547   2.625  10.859  0.0478 -0.2616  0.4033
68145SOL    HW114365  11.579   2.695  10.802 -0.3915 -0.3469  0.0436
68145SOL    HW214366  11.455   2.615  10.834  0.2148 -1.2445  0.1698
68146SOL     OW14367  11.203  13.076   5.886 -0.1106  0.4083 -0.6378
68146SOL    HW114368  11.157  13.028   5.955 -0.5582  2.5009  0.6129
68146SOL    HW214369  11.136  13.127   5.842  0.2717 -0.4369 -2.2964
68147SOL     OW14370   2.670  10.649   3.674  0.4247  0.0461 -0.0819
68147SOL    HW114371   2.628  10.570   3.709  1.9106 -0.7395  0.0316
68147SOL    HW214372   2.760  10.621   3.655  1.0092  1.7561  0.0554
68148SOL     OW14373  11.982  10.483   5.752 -0.1868  0.2432  0.5024
68148SOL    HW114374  11.898  10.513   5.788 -0.0124 -0.1460  1.2557
68148SOL    HW214375  12.008  10.411   5.809  0.7148  0.4228  0.3313
68149SOL     OW14376   6.726   8.937   3.494 -0.2491 -0.5645  0.1799
68149SOL    HW114377   6.687   9.022   3.516 -0.8754 -1.1424  1.4103
68149SOL    HW214378   6.667   8.873   3.533 -0.2403 -1.6198 -1.4297
68150SOL     OW14379   0.663   0.380  12.514  0.0163  0.0778 -0.3578
68150SOL    HW114380   0.669   0.405  12.606 -0.7630  1.9687 -0.7793
68150SOL    HW214381   0.740   0.421  12.473  0.2887 -0.6428 -0.5813
68151SOL     OW14382   3.883  12.130   4.399  0.0226 -0.3404 -0.3677
68151SOL    HW114383   3.839  12.191   4.340  0.0671  0.9716  0.8987
68151SOL    HW214384   3.867  12.165   4.487 -0.7621 -2.6844  0.5128
68152SOL     OW14385  10.992   5.250   7.256  0.2365 -0.1172  0.3992
68152SOL    HW114386  10.918   5.222   7.202  0.3290  0.8450 -0.2466
68152SOL    HW214387  11.066   5.251   7.195  0.8612 -1.3316  1.0980
68153SOL     OW14388  11.373   0.453  10.062 -0.1494 -1.0621 -0.0351
68153SOL    HW114389  11.395   0.391  10.132 -1.9557 -2.3833 -0.5841
68153SOL    HW214390  11.358   0.399   9.985  0.3777  0.2641 -1.1256
68154SOL     OW14391  12.767  10.038   5.839  0.0638 -0.6206 -0.0855
68154SOL    HW114392  12.736  10.060   5.751 -0.1166 -0.2252  0.0725
68154SOL    HW214393  12.728   9.952   5.858  1.1023 -1.2869 -0.8685
68155SOL     OW14394   8.609   1.387   0.796  0.1171  0.1324 -0.0588
68155SOL    HW114395   8.537   1.428   0.844 -0.1587 -0.1357 -0.2468
68155SOL    HW214396   8.655   1.461   0.755 -0.5807  0.2251 -0.6811
68156SOL     OW14397  12.478   9.587   5.524  0.1740  0.3187 -0.0071
68156SOL    HW114398  12.517   9.593   5.437  0.3053  0.1893  0.0435
68156SOL    HW214399  12.471   9.678   5.553 -0.9820  0.4511 -0.6460
68157SOL     OW14400   8.253   4.440  12.740  0.4471 -0.1662 -0.5700
68157SOL    HW114401   8.298   4.439  12.656 -0.6278 -0.7103 -1.1611
68157SOL    HW214402   8.174   4.389  12.725  0.4110 -0.5764  0.8712
68158SOL     OW14403   8.594  12.786   5.782  0.0166  0.1310  0.0833
68158SOL    HW114404   8.663  12.815   5.841 -1.1135  2.9535  0.1604
68158SOL    HW214405   8.620  12.820   5.696 -1.4195  1.6407  0.1950
68159SOL     OW14406  11.503  11.322   0.076 -0.1982  0.4468  0.2930
68159SOL    HW114407  11.488  11.233   0.041  0.8280  0.9651 -1.6280
68159SOL    HW214408  11.416  11.353   0.098 -0.6053 -0.9629  0.8093
68160SOL     OW14409   6.751   9.206   9.006  0.1154 -0.8417  0.3956
68160SOL    HW114410   6.774   9.116   8.981  0.8689 -1.3140  2.5500
68160SOL    HW214411   6.835   9.252   9.008 -0.2349 -0.1446 -0.4158
68161SOL     OW14412   8.034   8.578   0.356  0.1553 -0.0031 -0.8367
68161SOL    HW114413   7.953   8.551   0.400 -0.2355  0.1534 -1.4547
68161SOL    HW214414   8.017   8.668   0.328  0.8657  0.3322 -0.2007
68162SOL     OW14415   4.276   4.678   2.876 -0.7481 -0.0057  0.2869
68162SOL    HW114416   4.341   4.739   2.909 -0.8531  1.3904 -1.9105
68162SOL    HW214417   4.326   4.616   2.822 -1.1547  1.0200 -1.3384
68163SOL     OW14418  12.076  10.944   2.531  0.2244 -0.1995 -0.2302
68163SOL    HW114419  12.163  10.964   2.565  0.0115 -0.5773  0.5522
68163SOL    HW214420  12.063  11.007   2.460  1.0041  0.0714 -0.1405
68164SOL     OW14421   6.828  12.980   9.750 -0.0887 -0.8865  0.1661
68164SOL    HW114422   6.893  13.035   9.794 -1.0667 -0.1911  0.7895
68164SOL    HW214423   6.879  12.926   9.690  1.1158 -0.7457  1.0292
68165SOL     OW14424  12.692   4.384   1.337  0.0650 -0.8960  0.4935
68165SOL    HW114425  12.663   4.417   1.252 -0.9095 -1.7731  0.4642
68165SOL    HW214426  12.762   4.444   1.363 -1.4939  1.0988  0.3686
68166SOL     OW14427   9.035   7.099   5.839  0.4652  0.7724  0.2945
68166SOL    HW114428   9.079   7.144   5.767 -0.4907  0.9388 -0.2119
68166SOL    HW214429   8.959   7.155   5.859 -1.1034 -0.8752 -0.7577
68167SOL     OW14430  11.899  11.788   9.293  0.2285 -0.1473  0.0275
68167SOL    HW114431  11.940  11.810   9.209  0.6601  0.7272  0.4575
68167SOL    HW214432  11.933  11.853   9.354  0.4161 -1.1585  1.0309
68168SOL     OW14433   8.846   7.756  10.592 -0.1471  0.8083  0.3824
68168SOL    HW114434   8.793   7.822  10.637 -0.1089  0.1179  1.4720
68168SOL    HW214435   8.927   7.802  10.569  0.1143  1.0093  1.6429
68169SOL     OW14436   4.011   3.359  11.813  0.1277  0.4163 -0.5715
68169SOL    HW114437   3.983   3.277  11.855 -0.6168 -1.2113 -3.8925
68169SOL    HW214438   4.105   3.348  11.799  0.4503  1.1246  0.8997
68170SOL     OW14439   4.479   3.289   3.122  0.4196 -0.3560 -0.1294
68170SOL    HW114440   4.487   3.274   3.027 -1.1844  0.3547 -0.4108
68170SOL    HW214441   4.570   3.295   3.152  0.9789  0.4380 -1.8101
68171SOL     OW14442   0.669   8.237   2.471 -0.6663  0.9917  0.0324
68171SOL    HW114443   0.639   8.269   2.386  1.4925  0.1655 -1.1255
68171SOL    HW214444   0.711   8.313   2.511  1.7588  0.5228 -1.4013
68172SOL     OW14445   9.503  10.438   5.221 -0.5710  0.4088 -1.0474
68172SOL    HW114446   9.510  10.343   5.212 -1.7703  0.3783 -2.0312
68172SOL    HW214447   9.546  10.458   5.304  0.7644 -0.8387 -1.3935
68173SOL     OW14448   4.236  10.699   8.006 -0.7633 -0.5628  0.5367
68173SOL    HW114449   4.160  10.667   8.053  0.4947 -0.7680  2.5586
68173SOL    HW214450   4.310  10.650   8.042  0.3347 -0.5332 -1.5035
68174SOL     OW14451   7.634  12.210   0.281 -0.1453  0.4008 -0.3203
68174SOL    HW114452   7.628  12.127   0.328 -0.4527 -0.6119 -2.0803
68174SOL    HW214453   7.557  12.259   0.309  0.7155  0.7097  1.7530
68175SOL     OW14454  11.138   4.257   4.871  0.0987 -0.6255  0.6739
68175SOL    HW114455  11.196   4.262   4.795 -0.1658  1.6852  0.5721
68175SOL    HW214456  11.137   4.345   4.907 -1.8410 -1.0571  1.8197
68176SOL     OW14457   2.816   0.345   1.018  0.2559 -0.4594 -0.3601
68176SOL    HW114458   2.867   0.394   1.083  0.1234  0.2748 -0.7968
68176SOL    HW214459   2.734   0.393   1.011  0.3998 -0.3241 -1.3215
68177SOL     OW14460   5.684   9.531  11.213 -0.1293  0.0373  0.0406
68177SOL    HW114461   5.610   9.525  11.154 -0.1135  1.9521 -0.2380
68177SOL    HW214462   5.652   9.493  11.295 -1.8803  1.8662  0.2987
68178SOL     OW14463   6.935   3.974   0.144 -0.2790  0.5701  0.2119
68178SOL    HW114464   6.888   3.932   0.072 -1.8404 -0.1653  1.5686
68178SOL    HW214465   7.003   4.025   0.102 -0.4305 -0.6963 -1.7139
68179SOL     OW14466  10.577   9.471   2.205  0.0489 -0.1344  0.0304
68179SOL    HW114467  10.532   9.534   2.149 -1.3343  0.3869  1.6520
68179SOL    HW214468  10.657   9.517   2.232 -0.6577  0.7232  0.7221
68180SOL     OW14469   1.752   5.366   8.112  0.3916 -0.2238 -0.0606
68180SOL    HW114470   1.717   5.343   8.198 -0.5365  1.9075  0.1979
68180SOL    HW214471   1.692   5.327   8.049 -1.6196  1.9596  0.3645
68181SOL     OW14472   7.613   6.580   4.942  0.0795 -0.4362  0.1704
68181SOL    HW114473   7.591   6.543   5.027  1.5570 -2.1712 -0.1304
68181SOL    HW214474   7.528   6.596   4.900 -0.7140  1.8112  2.4266
68182SOL     OW14475   5.646  10.703   6.055  0.1896  0.7120 -0.1674
68182SOL    HW114476   5.640  10.608   6.045  2.1816  0.6204 -0.9439
68182SOL    HW214477   5.596  10.738   5.981 -1.0261  0.3163  0.4361
68183SOL     OW14478  12.328   2.382  11.822  0.2597 -0.5746 -0.4924
68183SOL    HW114479  12.234   2.374  11.808  0.5092 -2.5062 -1.3719
68183SOL    HW214480  12.345   2.327  11.899  0.5269  0.8035  0.4768
68184SOL     OW14481  12.949  11.364  10.852 -0.1736  0.5694  0.5371
68184SOL    HW114482  12.864  11.370  10.895 -0.5515 -0.0527 -0.1204
68184SOL    HW214483  12.952  11.441  10.795 -0.6539  0.1492 -0.0680
68185SOL     OW14484   4.069   0.804   9.153  0.4638  0.1790  0.0489
68185SOL    HW114485   4.138   0.864   9.128 -1.4462  1.1262 -3.7496
68185SOL    HW214486   4.056   0.749   9.075 -1.6212 -1.3754  1.3813
68186SOL     OW14487  10.881   3.738   2.221  0.5327  0.2114  0.2333
68186SOL    HW114488  10.896   3.661   2.277 -0.0507  0.6405  0.9911
68186SOL    HW214489  10.796   3.771   2.248 -0.0869  0.0365 -1.3943
68187SOL     OW14490   4.075  10.909   7.596  0.3789 -0.1796  0.5547
68187SOL    HW114491   3.998  10.875   7.642 -0.6592  1.3949  0.0830
68187SOL    HW214492   4.048  10.996   7.567  2.3926  0.4595  0.4622
68188SOL     OW14493  10.814   1.685  10.054  0.6956 -0.4984 -0.2958
68188SOL    HW114494  10.740   1.738  10.025  0.5391 -2.0720 -3.0959
68188SOL    HW214495  10.887   1.747  10.059 -0.4557  0.8226  1.2281
68189SOL     OW14496   8.719   2.746  12.298 -0.1919 -0.4340  0.2972
68189SOL    HW114497   8.755   2.816  12.244 -0.9697 -0.1532  0.1396
68189SOL    HW214498   8.690   2.789  12.378 -1.6332 -0.3980 -0.2279
68190SOL     OW14499   3.814   8.030   7.363 -0.3187 -0.0051 -0.2552
68190SOL    HW114500   3.875   8.039   7.436  0.0149 -0.1591 -0.5134
68190SOL    HW214501   3.733   8.070   7.395 -0.3388 -0.5285  0.3888
68191SOL     OW14502   1.361   3.871   4.637  0.2656  0.1139  1.0044
68191SOL    HW114503   1.441   3.828   4.607  0.6959 -0.5774  2.9908
68191SOL    HW214504   1.291   3.828   4.588  0.9444 -0.8812  0.8735
68192SOL     OW14505   3.492   0.282  11.644  0.4840  0.1845  0.8795
68192SOL    HW114506   3.511   0.193  11.673  1.5608 -0.3252 -1.1610
68192SOL    HW214507   3.527   0.286  11.555 -1.2517  2.0581  0.1941
68193SOL     OW14508   5.290  12.102   0.950  0.5575 -0.1496  0.2214
68193SOL    HW114509   5.218  12.043   0.972  0.0128  0.4836  0.1347
68193SOL    HW214510   5.250  12.188   0.943  1.3543  0.2384  0.3514
68194SOL     OW14511   3.668   9.990   9.666 -0.2252 -0.0571  0.2189
68194SOL    HW114512   3.590   9.952   9.626 -0.9569  0.2937  1.2728
68194SOL    HW214513   3.732   9.919   9.665 -0.5306 -0.3279 -0.7221
68195SOL     OW14514  10.542   7.926   4.134 -0.2311  0.1710  0.5211
68195SOL    HW114515  10.513   7.932   4.043 -1.4824 -1.0434  0.8180
68195SOL    HW214516  10.600   8.001   4.145  0.2314  0.1510 -1.3758
68196SOL     OW14517   1.408   6.223   0.313  0.0326  0.6396  0.4026
68196SOL    HW114518   1.384   6.173   0.235  0.4532 -0.3896  0.9123
68196SOL    HW214519   1.330   6.273   0.335 -0.0620  1.0048 -0.7214
68197SOL     OW14520   8.898   5.564   3.618  0.8814 -0.2316  0.4060
68197SOL    HW114521   8.890   5.654   3.588  2.2553 -0.2528 -0.1073
68197SOL    HW214522   8.816   5.546   3.663 -0.2615  0.6139 -1.2250
68198SOL     OW14523  10.812   8.792   7.965 -0.0036 -0.3567 -0.1756
68198SOL    HW114524  10.904   8.796   7.939  0.0105  0.4379 -0.0242
68198SOL    HW214525  10.763   8.792   7.883  0.0853  0.8464 -0.2482
68199SOL     OW14526   9.541   8.573   9.763  0.2394  0.3494  0.2823
68199SOL    HW114527   9.456   8.608   9.738  0.3708  0.2192 -0.3488
68199SOL    HW214528   9.532   8.479   9.753  0.5495  0.3562 -0.0763
68200SOL     OW14529   8.003   9.070  13.069  0.1793  0.0491 -1.2822
68200SOL    HW114530   7.977   9.161  13.087  0.6779  0.0538 -0.5609
68200SOL    HW214531   8.033   9.037  13.153  0.5329 -0.6135 -1.6684
68201SOL     OW14532   8.079   2.098   7.131  0.0655 -0.2438  0.0319
68201SOL    HW114533   8.038   2.118   7.047 -1.2365  0.3048  0.7702
68201SOL    HW214534   8.173   2.091   7.110 -0.1390  0.5902 -1.3415
68202SOL     OW14535   6.216  10.903   3.993  0.1012  0.0180  0.2976
68202SOL    HW114536   6.296  10.860   4.024 -0.0255  0.8104  1.8330
68202SOL    HW214537   6.235  10.996   3.998 -0.3869  0.1944 -0.8551
68203SOL     OW14538   6.103   1.680   3.630  0.0347 -0.5980 -0.2055
68203SOL    HW114539   6.193   1.713   3.621  0.0001  0.0197  1.4499
68203SOL    HW214540   6.089   1.674   3.724 -1.2283 -1.9558 -0.4527
68204SOL     OW14541   7.069  11.418   8.001 -0.1014  0.6376  0.6502
68204SOL    HW114542   7.034  11.367   7.927  2.1022  0.7595 -0.5751
68204SOL    HW214543   6.992  11.459   8.040 -1.7303 -1.9919  0.4400
68205SOL     OW14544   8.205   8.327   9.234  0.2528 -0.4874  0.0824
68205SOL    HW114545   8.133   8.270   9.207  0.1116 -0.4905  0.4563
68205SOL    HW214546   8.280   8.298   9.183  0.6360 -2.1771  1.5142
68206SOL     OW14547   4.530   3.533   3.230  0.0945  0.2587 -0.4954
68206SOL    HW114548   4.496   3.455   3.187  1.2947 -0.1028 -0.8401
68206SOL    HW214549   4.621   3.540   3.199  0.0737  1.6652 -0.2985
68207SOL     OW14550   2.380  13.290   5.428 -0.0144  0.2683  0.3333
68207SOL    HW114551   2.472  13.297   5.453 -0.0282 -1.1755  0.8660
68207SOL    HW214552   2.335  13.264   5.508 -1.0607  1.8670  0.3140
68208SOL     OW14553   1.710  11.797   9.796  0.2546 -0.5058  0.3627
68208SOL    HW114554   1.721  11.890   9.776  1.2121 -0.2344  1.9614
68208SOL    HW214555   1.758  11.751   9.727  0.0014  0.1955 -0.2831
68209SOL     OW14556   2.439   2.537  11.293 -0.0086 -0.3244  0.2842
68209SOL    HW114557   2.424   2.487  11.212 -0.3279 -0.7464  0.5950
68209SOL    HW214558   2.534   2.535  11.305 -0.0400 -1.2260  0.5061
68210SOL     OW14559   3.429   4.607   8.706  0.0897  0.3959  0.5269
68210SOL    HW114560   3.359   4.588   8.644  1.0581  0.6868 -0.6947
68210SOL    HW214561   3.484   4.529   8.705  0.9978  1.0256 -0.2337
68211SOL     OW14562  13.259   6.129   1.313  0.4375  0.0223  0.3727
68211SOL    HW114563  13.216   6.215   1.315  0.3416 -0.0140 -0.0721
68211SOL    HW214564  13.190   6.067   1.337  0.5788  0.0917  0.9914
68212SOL     OW14565   7.983  11.419   1.385  1.0239  0.1162  0.2966
68212SOL    HW114566   7.916  11.408   1.453  1.8890 -1.5730  0.9381
68212SOL    HW214567   7.983  11.335   1.339  1.2302  0.8573 -1.0918
68213SOL     OW14568   9.055   8.697   4.903 -0.1865 -0.2938  0.0458
68213SOL    HW114569   8.981   8.695   4.842 -0.5453 -0.2430  0.4767
68213SOL    HW214570   9.070   8.605   4.925 -1.9087 -0.1584  2.0833
68214SOL     OW14571   6.264   3.396  12.461 -0.3822 -0.2902 -0.2212
68214SOL    HW114572   6.265   3.405  12.366 -1.0738 -1.3135 -0.3481
68214SOL    HW214573   6.172   3.381  12.483 -0.4780  1.5684  0.8031
68215SOL     OW14574   3.291  11.188   9.389 -0.3753  0.5403 -0.5136
68215SOL    HW114575   3.243  11.132   9.450  0.0117 -0.0462 -0.7407
68215SOL    HW214576   3.383  11.167   9.403 -0.1456  1.9063  0.1488
68216SOL     OW14577   9.437   7.779   1.859 -0.3914  0.2941 -0.0020
68216SOL    HW114578   9.444   7.778   1.954 -2.0746 -1.1967  0.1751
68216SOL    HW214579   9.383   7.855   1.839 -0.8693  0.0563  0.3488
68217SOL     OW14580  11.065   7.529  10.819  0.2420 -0.3279 -0.2911
68217SOL    HW114581  11.072   7.513  10.725  1.7641  0.6872 -0.3878
68217SOL    HW214582  11.150   7.565  10.844 -0.2147 -0.3393  1.4378
68218SOL     OW14583   9.617  12.843   8.546 -0.1193 -0.3141  0.3703
68218SOL    HW114584   9.553  12.774   8.527 -2.5618  1.4496  1.5669
68218SOL    HW214585   9.649  12.824   8.634  0.9157 -1.1053 -0.1633
68219SOL     OW14586   3.849  11.177  11.096 -0.6299  0.0732  0.4573
68219SOL    HW114587   3.778  11.135  11.047  1.2059  0.1324 -2.4887
68219SOL    HW214588   3.864  11.260  11.051  0.7951  0.4106  1.4890
68220SOL     OW14589  11.129  12.863  11.929 -0.1227  0.2761 -0.4132
68220SOL    HW114590  11.123  12.899  11.840 -1.4129 -0.5977 -0.6969
68220SOL    HW214591  11.124  12.769  11.917  0.4270  0.1108  0.5521
68221SOL     OW14592   6.759   4.574   0.451  0.1684  0.4899  0.2103
68221SOL    HW114593   6.800   4.660   0.449  3.6900 -0.7104  4.4296
68221SOL    HW214594   6.817   4.519   0.399  0.0210  0.0443  0.5065
68222SOL     OW14595   7.890   6.386   0.606 -0.3750  0.1262  0.0625
68222SOL    HW114596   7.817   6.447   0.608 -0.4266  0.0729 -0.1504
68222SOL    HW214597   7.962   6.432   0.648 -1.1775 -0.6646  2.4354
68223SOL     OW14598  11.773  12.661   4.151  0.9045 -0.6216 -0.6132
68223SOL    HW114599  11.759  12.572   4.184  3.1765 -0.6600  0.4627
68223SOL    HW214600  11.843  12.696   4.206 -0.7634  2.3296 -0.1725
68224SOL     OW14601   8.815  10.134  11.493 -0.3415 -0.1572 -0.0964
68224SOL    HW114602   8.792  10.043  11.476  1.6671 -0.8106  0.3672
68224SOL    HW214603   8.788  10.149  11.584 -0.1247 -0.4937  0.0252
68225SOL     OW14604   5.026   4.249   4.094 -0.2527 -0.3182 -0.0424
68225SOL    HW114605   5.018   4.302   4.015  2.5227  1.4329  0.7200
68225SOL    HW214606   4.965   4.288   4.156  0.9489  1.3582  0.1361
68226SOL     OW14607   8.285   0.220   0.651  0.3059  0.2135  0.3228
68226SOL    HW114608   8.372   0.245   0.683  1.0779 -0.5411 -1.1181
68226SOL    HW214609   8.295   0.129   0.623 -0.3660  0.7638 -1.8587
68227SOL     OW14610  12.224  11.848  10.107  0.2764 -0.4058 -0.5616
68227SOL    HW114611  12.214  11.941  10.127  1.8320 -0.2709 -0.3026
68227SOL    HW214612  12.178  11.836  10.024 -3.4112 -0.2652  1.2564
68228SOL     OW14613   2.946  10.305   4.447  0.1396 -1.0920  0.1413
68228SOL    HW114614   3.017  10.368   4.459 -0.1779 -0.7378  0.1688
68228SOL    HW214615   2.921  10.314   4.355 -1.5922  0.6403  0.7190
68229SOL     OW14616   4.926   5.536   7.795 -0.0678 -0.8271  0.0272
68229SOL    HW114617   4.833   5.528   7.813 -0.0610 -0.6834  0.1315
68229SOL    HW214618   4.956   5.606   7.853  0.2830 -1.4591  0.6186
68230SOL     OW14619   7.901   5.203   8.877 -0.3621  0.4047 -0.4502
68230SOL    HW114620   7.968   5.160   8.930 -0.2757  0.8535 -0.1888
68230SOL    HW214621   7.862   5.132   8.825 -0.8808 -0.1603  0.6653
68231SOL     OW14622   7.326   4.654  10.048 -0.3967  0.1400  0.1370
68231SOL    HW114623   7.372   4.571  10.058 -0.6308 -0.0899 -0.6418
68231SOL    HW214624   7.316   4.687  10.137  3.1781  1.2770  0.2687
68232SOL     OW14625  11.149   0.770  10.422 -0.1697 -0.4788  0.5288
68232SOL    HW114626  11.182   0.727  10.501 -1.5079 -1.6465  0.4941
68232SOL    HW214627  11.129   0.860  10.450 -1.9771 -1.2612  1.9539
68233SOL     OW14628   6.503   6.654   3.067 -0.7848  0.5240  0.2560
68233SOL    HW114629   6.410   6.676   3.072 -1.1970 -1.3040  2.0308
68233SOL    HW214630   6.545   6.715   3.128 -0.9574  0.7539  0.1450
68234SOL     OW14631  10.622   9.613   8.177  0.0324  0.4821  0.1425
68234SOL    HW114632  10.667   9.689   8.213 -0.2350  1.3562 -1.3235
68234SOL    HW214633  10.692   9.548   8.166  0.3120  0.5929  1.1081
68235SOL     OW14634   8.814   9.852   8.914  0.2946 -0.3790 -0.5662
68235SOL    HW114635   8.769   9.881   8.835  1.4684  0.0318 -1.1066
68235SOL    HW214636   8.790   9.759   8.922 -0.5628 -0.1940 -0.8809
68236SOL     OW14637   9.953  11.372   1.586  0.0808  1.1924 -0.0440
68236SOL    HW114638   9.940  11.327   1.503 -0.0040 -0.4870  0.8243
68236SOL    HW214639   9.902  11.321   1.649  1.4071  1.4558  1.3122
68237SOL     OW14640  10.838   0.445   4.805  0.0066  0.3033 -0.9802
68237SOL    HW114641  10.848   0.361   4.760  0.4084  0.0017 -0.3383
68237SOL    HW214642  10.745   0.466   4.795 -0.3225 -0.7196 -0.2710
68238SOL     OW14643   0.170   8.965   6.763 -0.0422 -0.0521 -1.1096
68238SOL    HW114644   0.083   8.928   6.773 -0.6100  0.8835 -2.4394
68238SOL    HW214645   0.187   9.009   6.847 -0.1873 -1.5068 -0.2730
68239SOL     OW14646  12.306   0.204   7.759  0.0876  0.2875 -0.0622
68239SOL    HW114647  12.210   0.207   7.766 -0.0598 -2.4668  0.0951
68239SOL    HW214648  12.323   0.224   7.667 -0.5314  1.8404  0.1302
68240SOL     OW14649   9.579   9.379  11.982 -0.0395  0.0443 -0.2474
68240SOL    HW114650   9.532   9.348  11.904 -0.3883  0.8925 -0.3903
68240SOL    HW214651   9.541   9.328  12.054  0.1094 -0.5690 -0.5984
68241SOL     OW14652   7.752  12.882   6.422  0.3057 -0.0135 -0.3086
68241SOL    HW114653   7.793  12.969   6.418 -1.0495  0.6772 -0.0101
68241SOL    HW214654   7.760  12.848   6.333  2.1965 -0.2749 -0.0897
68242SOL     OW14655   2.999   7.237   1.883  0.2606  0.0649  0.9970
68242SOL    HW114656   3.005   7.306   1.949  1.2893  0.0818  0.8989
68242SOL    HW214657   3.073   7.179   1.903 -0.2770 -0.7223  0.7504
68243SOL     OW14658   8.622  10.374   2.513  0.0660 -0.2786  0.0932
68243SOL    HW114659   8.559  10.332   2.455  0.3842 -2.4346  1.2206
68243SOL    HW214660   8.685  10.306   2.535 -0.2036  0.3045  3.1947
68244SOL     OW14661   3.271   2.688   8.916  0.2092  0.1501  0.2754
68244SOL    HW114662   3.298   2.601   8.947  1.6986  0.4133 -0.2027
68244SOL    HW214663   3.226   2.727   8.991  0.0696 -0.7909  0.7025
68245SOL     OW14664   0.744  10.483   7.057 -0.4994 -0.2625  0.2675
68245SOL    HW114665   0.786  10.414   7.007  0.5857  0.5553  0.0265
68245SOL    HW214666   0.696  10.534   6.992  0.0482  0.1782  0.2067
68246SOL     OW14667  11.062   0.437   0.907 -0.1626 -0.7817 -0.3515
68246SOL    HW114668  11.054   0.512   0.967  0.8840  0.6227 -1.8766
68246SOL    HW214669  11.033   0.362   0.959 -0.4026  0.5318  1.5323
68247SOL     OW14670   2.867  12.587   3.161 -0.0626 -0.6032  0.0408
68247SOL    HW114671   2.798  12.649   3.183  0.3816  0.0836 -0.4523
68247SOL    HW214672   2.821  12.510   3.129 -0.6459 -0.7923  1.2659
68248SOL     OW14673   0.331   4.257  13.207 -0.2091  0.0442 -0.0068
68248SOL    HW114674   0.278   4.299  13.139  0.4439  0.3967 -0.3080
68248SOL    HW214675   0.354   4.172  13.170 -1.7128 -0.7134  0.6898
68249SOL     OW14676   7.075  12.554  10.362  0.0105  0.1779 -0.1718
68249SOL    HW114677   7.108  12.513  10.282  1.3870 -0.3603  0.6575
68249SOL    HW214678   7.025  12.486  10.405 -1.1620  0.6154 -0.7876
68250SOL     OW14679   6.185   0.835   3.996  0.0632  0.0494 -0.2479
68250SOL    HW114680   6.157   0.887   3.920 -1.3794  1.4791  1.1813
68250SOL    HW214681   6.279   0.826   3.985 -0.0267  0.7416 -1.8993
68251SOL     OW14682   3.714   2.536  10.924  0.2670  0.2013 -0.3570
68251SOL    HW114683   3.696   2.627  10.948  0.2812  0.2390 -0.4892
68251SOL    HW214684   3.749   2.541  10.835 -0.1214  0.0320 -0.5204
68252SOL     OW14685   1.930  10.812   8.216  0.1574 -0.4097 -0.3864
68252SOL    HW114686   1.951  10.747   8.149 -0.8460  0.0243 -1.1463
68252SOL    HW214687   1.961  10.895   8.179 -0.2527 -0.1918 -0.2498
68253SOL     OW14688   1.949  11.320   4.528  0.0532  0.4728 -0.5088
68253SOL    HW114689   1.884  11.307   4.459  0.9029 -0.0770 -1.2295
68253SOL    HW214690   1.900  11.313   4.609 -0.7620 -0.0589 -1.0394
68254SOL     OW14691   4.789   8.635   7.536  0.2503  0.1079  0.3409
68254SOL    HW114692   4.806   8.704   7.601  0.4382  0.1691  0.2266
68254SOL    HW214693   4.694   8.630   7.531  0.2220  1.1253 -0.4671
68255SOL     OW14694   9.513   7.944   0.416 -0.1841 -0.2358 -0.5385
68255SOL    HW114695   9.579   7.917   0.352 -2.3742 -1.1033 -2.5700
68255SOL    HW214696   9.441   7.883   0.404 -0.5360 -0.7979  3.2329
68256SOL     OW14697  12.889  13.162   6.350 -0.0108 -0.3678  0.1742
68256SOL    HW114698  12.853  13.139   6.436 -1.4781  2.5039  0.4158
68256SOL    HW214699  12.831  13.119   6.287 -0.4746 -0.3650  0.5970
68257SOL     OW14700   3.512   9.992   4.846  0.0827 -0.4775  0.3067
68257SOL    HW114701   3.577  10.044   4.894 -1.3000  0.2060  1.5217
68257SOL    HW214702   3.466   9.943   4.913 -2.4470  1.0893 -0.1278
68258SOL     OW14703   1.889   0.055   0.812  0.0903  0.2457 -0.0525
68258SOL    HW114704   1.940  -0.005   0.758 -0.1343  0.5138 -0.5799
68258SOL    HW214705   1.939   0.064   0.893 -0.3275 -1.3503  0.4020
68259SOL     OW14706   9.203   1.442  10.615  0.0992  0.0369 -0.6202
68259SOL    HW114707   9.121   1.419  10.572 -1.5597  2.0789  1.1936
68259SOL    HW214708   9.231   1.362  10.659 -1.6834 -0.3870 -0.1744
68260SOL     OW14709   6.376  10.744   2.284  1.0667 -0.3608 -0.2176
68260SOL    HW114710   6.418  10.830   2.293 -1.1524  0.6570  1.2325
68260SOL    HW214711   6.284  10.765   2.264  0.7476 -2.4332 -1.0915
68261SOL     OW14712   2.146   1.546   3.370  0.0426  0.4690  0.2708
68261SOL    HW114713   2.143   1.489   3.292 -1.5497 -1.0340  1.3606
68261SOL    HW214714   2.110   1.630   3.339  0.1979  0.1625 -0.8061
68262SOL     OW14715  10.565   3.132  11.980 -0.1556  0.3033 -0.2253
68262SOL    HW114716  10.487   3.140  12.036 -1.1129  1.8861 -1.6768
68262SOL    HW214717  10.637   3.161  12.035 -1.1503  2.3627  0.1199
68263SOL     OW14718   2.606  11.055   4.935 -0.2095 -0.6219  0.0253
68263SOL    HW114719   2.671  11.001   4.979 -0.1882  0.4524  1.4244
68263SOL    HW214720   2.636  11.145   4.949 -1.3652 -0.1553 -0.3066
68264SOL     OW14721  13.211  12.212   4.745  0.7323 -0.2667 -0.2775
68264SOL    HW114722  13.243  12.302   4.732 -1.0999  0.4215 -0.3713
68264SOL    HW214723  13.227  12.195   4.838  0.5197  0.4178 -0.1031
68265SOL     OW14724   1.608   0.674   6.118 -0.0560  0.6928 -0.4528
68265SOL    HW114725   1.671   0.622   6.167 -0.2953  1.0377  0.2258
68265SOL    HW214726   1.534   0.615   6.104 -1.3790  1.4993  2.4175
68266SOL     OW14727   2.852   9.000   0.300  0.6494  0.1453  0.0258
68266SOL    HW114728   2.932   8.964   0.339  1.6350  0.1279 -1.9020
68266SOL    HW214729   2.831   8.942   0.227  0.6434  1.8040 -1.3832
68267SOL     OW14730   1.583   9.849   5.880 -0.1525 -0.2897 -0.1031
68267SOL    HW114731   1.584   9.891   5.794 -0.3816  1.9761  0.9200
68267SOL    HW214732   1.540   9.765   5.865 -1.4530  0.6319 -1.9630
68268SOL     OW14733  13.102   3.800   8.607 -0.3878  0.0329  0.5336
68268SOL    HW114734  13.100   3.807   8.702 -1.3435  0.4155  0.4974
68268SOL    HW214735  13.014   3.825   8.579 -0.2411 -0.4592 -0.4268
68269SOL     OW14736   3.549   2.901  12.825 -0.2483  0.2416 -0.2157
68269SOL    HW114737   3.561   2.873  12.915 -0.4523  1.0014  0.0576
68269SOL    HW214738   3.612   2.973  12.814 -1.4099  1.3022 -0.1335
68270SOL     OW14739  11.501   5.671  12.937  0.9314  0.3935 -0.6212
68270SOL    HW114740  11.519   5.742  12.875  2.1887 -0.2505 -1.0532
68270SOL    HW214741  11.546   5.697  13.017 -0.1459  0.9238 -0.1838
68271SOL     OW14742   7.189   1.498   3.394 -0.3444  0.6153 -0.0511
68271SOL    HW114743   7.254   1.559   3.361  1.6962  0.2027  2.8196
68271SOL    HW214744   7.117   1.554   3.424 -0.7632  1.1674 -1.9330
68272SOL     OW14745   3.349   9.855   5.770 -0.1596  0.0309  0.7248
68272SOL    HW114746   3.414   9.924   5.775  2.5100 -1.7428 -3.7192
68272SOL    HW214747   3.390   9.780   5.814  0.6710 -0.8791 -1.4462
68273SOL     OW14748   6.743  10.228   3.617  0.6498 -0.0886 -0.1617
68273SOL    HW114749   6.810  10.248   3.552  1.2274  1.3034  0.8200
68273SOL    HW214750   6.671  10.289   3.598  1.1714  0.9281  0.9817
68274SOL     OW14751   9.276  10.834  12.857  0.3131 -0.2045 -0.7109
68274SOL    HW114752   9.325  10.915  12.846  0.4840 -0.4704 -2.0927
68274SOL    HW214753   9.279  10.792  12.771 -0.9025 -1.0431 -0.3724
68275SOL     OW14754   3.864  10.584   6.714  0.6330  0.0224  0.3357
68275SOL    HW114755   3.831  10.506   6.669  1.0118  0.5768 -0.9598
68275SOL    HW214756   3.896  10.640   6.643  0.1452  1.4615  1.2296
68276SOL     OW14757   0.313   8.952   6.522  0.0426 -0.3732 -0.2125
68276SOL    HW114758   0.259   8.947   6.600  1.0620  1.1044  0.6457
68276SOL    HW214759   0.256   8.988   6.454 -0.9105 -1.8746 -0.2482
68277SOL     OW14760   1.963   6.527  13.004  0.2973  0.2693 -0.3714
68277SOL    HW114761   2.023   6.457  13.028  0.3870  0.6692  0.6491
68277SOL    HW214762   1.878   6.485  12.997  0.4220 -0.0140 -0.1827
68278SOL     OW14763   2.217   2.485   4.676  0.1588  0.1366  0.1856
68278SOL    HW114764   2.191   2.440   4.596 -0.6000  0.1897  0.3900
68278SOL    HW214765   2.141   2.541   4.698 -1.1160 -2.3301  2.7302
68279SOL     OW14766  11.346   1.542  10.300 -0.1413 -0.2533  0.5819
68279SOL    HW114767  11.275   1.570  10.241  1.5878  0.4814 -1.2531
68279SOL    HW214768  11.404   1.490  10.245  1.8822  0.9921  1.4269
68280SOL     OW14769   1.107   7.228   2.354  0.3940  0.4698  0.3088
68280SOL    HW114770   1.099   7.187   2.441  0.2570  1.6094  0.8518
68280SOL    HW214771   1.181   7.184   2.314  1.8221  1.3527  1.8495
68281SOL     OW14772   3.383   5.208   7.657 -0.0710 -0.4726  0.0860
68281SOL    HW114773   3.401   5.115   7.673  0.2248 -0.3672  0.3791
68281SOL    HW214774   3.290   5.211   7.633 -0.3684 -0.7041  1.1817
68282SOL     OW14775   9.823   4.556   3.501 -0.1425  0.2630 -0.0477
68282SOL    HW114776   9.902   4.592   3.541 -0.6994 -0.0287  1.3598
68282SOL    HW214777   9.764   4.630   3.494 -0.8062 -0.0842  1.6305
68283SOL     OW14778   4.568   8.822   0.507 -0.3706  0.7180  0.0851
68283SOL    HW114779   4.624   8.745   0.503  0.8679  1.5011  1.2869
68283SOL    HW214780   4.566   8.856   0.418  1.2662  0.7913  0.0533
68284SOL     OW14781   6.741   5.185   6.165 -0.4044  0.0520 -0.2734
68284SOL    HW114782   6.805   5.252   6.143 -0.1300  0.1153  0.6808
68284SOL    HW214783   6.671   5.231   6.211 -1.5371  0.1096 -1.9787
68285SOL     OW14784  11.767  10.566   7.836 -0.1826  0.2991  0.2005
68285SOL    HW114785  11.818  10.526   7.907 -0.8661 -0.6964  0.1571
68285SOL    HW214786  11.826  10.562   7.760  0.1827  0.4329  0.4746
68286SOL     OW14787   0.535  12.938   3.872  0.2679 -0.1630 -0.2940
68286SOL    HW114788   0.618  12.958   3.828 -0.1139 -0.4535 -1.1719
68286SOL    HW214789   0.509  12.853   3.836 -1.0752  0.5318 -1.0524
68287SOL     OW14790   0.704  10.475   2.469  0.3183  0.3949 -0.1431
68287SOL    HW114791   0.632  10.424   2.432  0.1106  1.0778 -0.7171
68287SOL    HW214792   0.662  10.533   2.533  0.3232  0.9342 -0.6225
68288SOL     OW14793   8.305   2.135  10.539  0.5255 -0.2051  0.2304
68288SOL    HW114794   8.358   2.163  10.614  1.1217 -0.9896  0.1241
68288SOL    HW214795   8.217   2.125  10.574  0.9588 -1.4025  1.0599
68289SOL     OW14796   5.972  11.163   8.481  0.0326  0.2716 -0.7571
68289SOL    HW114797   5.971  11.112   8.562 -2.4061 -1.5915 -1.8217
68289SOL    HW214798   5.994  11.252   8.509 -0.8947 -0.2656  1.9919
68290SOL     OW14799   2.821  11.917   3.479 -0.7261  0.1358 -0.1814
68290SOL    HW114800   2.733  11.954   3.473 -1.0851 -0.8607 -1.5741
68290SOL    HW214801   2.852  11.943   3.565 -0.9064  3.7107 -1.0343
68291SOL     OW14802   1.343   4.420   5.692 -0.1698  0.3900 -0.0143
68291SOL    HW114803   1.373   4.375   5.613 -1.3921  1.8312 -1.3682
68291SOL    HW214804   1.411   4.403   5.757  0.8193 -0.9322 -1.3451
68292SOL     OW14805   1.199   4.287   4.080  0.2986  0.3405  0.2903
68292SOL    HW114806   1.140   4.354   4.047 -2.5122 -1.2825  1.7129
68292SOL    HW214807   1.239   4.326   4.158  1.9653  1.7751 -1.1817
68293SOL     OW14808   2.696  10.735   1.566  0.0448  0.5648 -0.0607
68293SOL    HW114809   2.724  10.652   1.527 -1.3224  0.0793 -0.0776
68293SOL    HW214810   2.643  10.709   1.641 -0.7630  1.4109 -0.3235
68294SOL     OW14811   9.916   5.203  10.418 -0.2660 -0.5451 -0.5297
68294SOL    HW114812   9.876   5.253  10.346 -1.6626 -1.3835 -0.3703
68294SOL    HW214813  10.009   5.225  10.413 -0.7243  1.6135 -0.8213
68295SOL     OW14814   4.744   0.574  11.155 -0.3432  0.2918 -0.0241
68295SOL    HW114815   4.770   0.578  11.064  1.4622  1.0198  0.4840
68295SOL    HW214816   4.765   0.485  11.183 -0.8244  0.0935 -0.2711
68296SOL     OW14817  10.812  11.641   6.573  0.7535  0.6187  0.0058
68296SOL    HW114818  10.757  11.719   6.582 -0.7771 -0.4767  0.8249
68296SOL    HW214819  10.893  11.663   6.619 -0.0470  1.3819  1.1108
68297SOL     OW14820   8.657  12.439   4.446  0.1547 -0.2874 -0.2349
68297SOL    HW114821   8.644  12.512   4.507  2.3244  0.2270 -0.2836
68297SOL    HW214822   8.614  12.467   4.365 -0.4489  0.1927  0.2410
68298SOL     OW14823   6.491   2.117  12.182 -0.8126  0.0216 -0.5847
68298SOL    HW114824   6.522   2.040  12.134  0.2379  1.2418 -1.9490
68298SOL    HW214825   6.420   2.152  12.129 -1.5835 -0.2231  0.2576
68299SOL     OW14826  10.229  10.882   8.667  0.1703 -0.0972 -0.3770
68299SOL    HW114827  10.176  10.823   8.721 -0.3347  0.3043 -0.4249
68299SOL    HW214828  10.212  10.969   8.703  2.4107 -0.1293  0.9561
68300SOL     OW14829   3.435   2.142   2.411 -0.1799  0.3813 -0.0360
68300SOL    HW114830   3.488   2.135   2.491  0.8369  0.5779 -0.6800
68300SOL    HW214831   3.446   2.057   2.368  1.5654  1.1979 -1.3385
68301SOL     OW14832   1.715   3.649   8.374  0.1285  0.7096 -0.3298
68301SOL    HW114833   1.767   3.614   8.446  0.5443 -0.1829 -1.0481
68301SOL    HW214834   1.774   3.710   8.330 -0.4954  2.1483  0.7361
68302SOL     OW14835   9.204   6.356   5.481 -0.1166 -0.3814  0.3664
68302SOL    HW114836   9.111   6.357   5.504  0.3714 -1.6805  2.7314
68302SOL    HW214837   9.232   6.447   5.492 -1.1014  0.0644 -0.5557
68303SOL     OW14838  10.068   3.842   5.925 -0.0258 -0.5291 -0.0596
68303SOL    HW114839  10.013   3.764   5.919 -1.8017  0.6279  0.4030
68303SOL    HW214840  10.070   3.862   6.018  0.9794 -0.4017 -0.1045
68304SOL     OW14841   8.838   9.926  12.348 -0.0077  0.1220 -0.1553
68304SOL    HW114842   8.913   9.897  12.296  0.0495  0.0171 -0.0160
68304SOL    HW214843   8.763   9.884  12.307  0.0496 -0.0436 -0.0918
68305SOL     OW14844  12.819   5.535   4.075 -0.2155  0.1753  0.3946
68305SOL    HW114845  12.728   5.558   4.055 -0.9606 -1.9223  1.0882
68305SOL    HW214846  12.860   5.521   3.990 -0.1316  2.3164  0.0133
68306SOL     OW14847   1.007   2.669   1.255 -0.2598 -0.3503 -0.0218
68306SOL    HW114848   0.915   2.657   1.279 -0.4299  2.1381  0.8767
68306SOL    HW214849   1.055   2.616   1.319 -1.0168 -1.6091 -0.4509
68307SOL     OW14850   7.800   1.513   4.500  0.0622  0.0711  0.7310
68307SOL    HW114851   7.871   1.554   4.451 -0.6002  0.6910  0.2632
68307SOL    HW214852   7.746   1.471   4.433  0.2884 -0.8638  1.1340
68308SOL     OW14853  12.535   0.709   7.477  0.1123  0.0222 -0.3387
68308SOL    HW114854  12.585   0.721   7.558 -0.0714  3.5070 -0.6084
68308SOL    HW214855  12.461   0.768   7.486 -1.8189 -2.0411 -1.6987
68309SOL     OW14856   4.677   7.074  12.534 -0.7083  0.6113 -0.7071
68309SOL    HW114857   4.712   7.150  12.581 -1.4307  0.3329  0.3217
68309SOL    HW214858   4.749   7.046  12.478 -0.5478  2.2668 -1.3954
68310SOL     OW14859  12.920   9.495  10.987 -0.0372  0.4408 -0.0965
68310SOL    HW114860  13.010   9.483  11.019 -0.4349 -1.6513  0.3867
68310SOL    HW214861  12.866   9.498  11.066 -0.5518  0.1350 -0.4331
68311SOL     OW14862   1.874   2.322  11.298  0.0858 -0.1786  0.0803
68311SOL    HW114863   1.785   2.307  11.330  0.6359 -1.2268  1.2156
68311SOL    HW214864   1.931   2.292  11.370  1.3540  0.1580 -0.7438
68312SOL     OW14865   6.790   6.821  10.864 -0.4764  0.1211 -0.2163
68312SOL    HW114866   6.815   6.910  10.889 -0.4761 -0.1375  0.7171
68312SOL    HW214867   6.724   6.796  10.928 -1.1947 -0.2000 -1.0555
68313SOL     OW14868  12.952   4.171   5.005  0.0006 -0.2256  0.1634
68313SOL    HW114869  12.921   4.206   5.089  0.5576 -2.8813  1.5607
68313SOL    HW214870  12.884   4.110   4.978 -0.2940  0.7702 -1.5236
68314SOL     OW14871   9.626  12.590   0.764  0.3139 -0.5058 -0.3115
68314SOL    HW114872   9.721  12.602   0.766  0.2030  0.5134 -0.6395
68314SOL    HW214873   9.596  12.644   0.691 -0.5539 -0.6038 -0.0464
68315SOL     OW14874   9.728   5.405   5.760 -0.5593 -0.1170 -0.2076
68315SOL    HW114875   9.724   5.310   5.744 -1.1627 -0.1454  0.1031
68315SOL    HW214876   9.661   5.421   5.826 -1.0588  0.6587 -0.8862
68316SOL     OW14877   0.520   1.723  10.708  0.3795 -0.2956 -0.5149
68316SOL    HW114878   0.575   1.717  10.630  1.9318 -0.1924  0.5310
68316SOL    HW214879   0.565   1.787  10.764 -1.2706  0.4358  0.0371
68317SOL     OW14880  12.381  10.247   9.965 -0.1706  0.2233  0.3038
68317SOL    HW114881  12.348  10.297  10.039 -0.4604 -0.3814  0.5891
68317SOL    HW214882  12.405  10.162  10.001 -0.1585 -0.0241 -0.2659
68318SOL     OW14883   0.623  12.535   7.034  0.1380  0.5240  0.3429
68318SOL    HW114884   0.591  12.474   6.967  0.2340  0.2374  0.5560
68318SOL    HW214885   0.617  12.486   7.116 -1.9561  1.5663  0.8740
68319SOL     OW14886   5.585  11.641   4.340  0.3859 -0.2131 -0.4933
68319SOL    HW114887   5.649  11.640   4.411 -0.7567 -1.9261  0.5701
68319SOL    HW214888   5.638  11.645   4.260  1.7154  1.0356  0.4027
68320SOL     OW14889   2.939   2.172   1.343 -0.2169  0.5734  0.1307
68320SOL    HW114890   3.005   2.139   1.405  2.4277 -0.9981 -3.1627
68320SOL    HW214891   2.858   2.131   1.371  0.3411  1.4938  3.5976
68321SOL     OW14892   3.898  12.184   6.531  0.3600 -0.1612 -0.4088
68321SOL    HW114893   3.862  12.099   6.557 -1.4388  0.2604 -1.3077
68321SOL    HW214894   3.923  12.226   6.613 -1.0200 -0.6129  0.2789
68322SOL     OW14895  12.039   5.394   1.247 -0.0399  0.6983 -0.1694
68322SOL    HW114896  12.038   5.420   1.154 -0.8368  1.0750 -0.0674
68322SOL    HW214897  12.078   5.469   1.292  1.3269  0.0928 -0.3019
68323SOL     OW14898   0.696   6.562   8.045  0.3216  0.6638 -0.0085
68323SOL    HW114899   0.642   6.486   8.068 -0.0993  1.3436  1.3959
68323SOL    HW214900   0.672   6.582   7.955 -1.3861  0.6167  0.4047
68324SOL     OW14901   9.768   7.100   3.345  0.2956 -0.2052 -0.6684
68324SOL    HW114902   9.818   7.026   3.312  0.2135 -1.6211  2.1324
68324SOL    HW214903   9.679   7.067   3.355  0.3779  0.0230  1.1501
68325SOL     OW14904   0.237   6.845   6.203 -0.2318  0.0578 -0.9878
68325SOL    HW114905   0.302   6.913   6.184  0.4703 -0.0857  0.7575
68325SOL    HW214906   0.257   6.775   6.140  1.7689 -0.2646 -0.0526
68326SOL     OW14907   5.207   2.482   7.756  0.0453  0.0763  0.0660
68326SOL    HW114908   5.251   2.478   7.841 -1.1125  0.3972  0.7005
68326SOL    HW214909   5.236   2.403   7.711  3.3545  1.4970 -0.6388
68327SOL     OW14910   0.229  12.213  10.563 -0.0931 -1.1170  0.3441
68327SOL    HW114911   0.195  12.198  10.474  0.4095 -0.1958 -0.0157
68327SOL    HW214912   0.319  12.241  10.550 -0.0039 -1.0114  1.1560
68328SOL     OW14913   1.463   6.950   8.745  0.0141 -0.0289  0.0941
68328SOL    HW114914   1.433   7.013   8.811 -0.4977  2.1629 -2.0823
68328SOL    HW214915   1.538   6.992   8.704 -0.2134 -0.9233 -1.3145
68329SOL     OW14916   8.519   5.348   2.984 -0.3664 -0.2430  0.6939
68329SOL    HW114917   8.555   5.276   3.036 -0.1100 -0.1643  0.6256
68329SOL    HW214918   8.425   5.344   3.000 -0.3280 -0.4462  0.8776
68330SOL     OW14919   9.727   5.035   0.152  0.4494  0.1806 -0.1332
68330SOL    HW114920   9.647   4.991   0.123  0.5492  0.0946 -0.2781
68330SOL    HW214921   9.732   5.017   0.246 -0.2799  1.0978  0.0981
68331SOL     OW14922  11.875   8.487   5.513  0.4033 -0.0946 -0.2870
68331SOL    HW114923  11.898   8.527   5.430 -2.1664  0.7634 -0.6708
68331SOL    HW214924  11.959   8.457   5.549  1.9555  2.0917 -1.8023
68332SOL     OW14925   7.107   5.589  12.930  0.0818 -0.0114  0.1607
68332SOL    HW114926   7.132   5.499  12.910  2.0981  0.6172 -0.4357
68332SOL    HW214927   7.042   5.581  12.999  0.5338 -1.9184  0.4233
68333SOL     OW14928   8.296   1.972   4.180 -0.1679 -0.5402  0.0841
68333SOL    HW114929   8.341   2.031   4.240 -0.4269  1.2286 -1.3859
68333SOL    HW214930   8.265   1.900   4.236 -0.1023  0.8537  1.9957
68334SOL     OW14931   9.072   5.990  13.262  0.2976  0.3393 -0.1470
68334SOL    HW114932   9.084   5.998  13.357 -1.1415  1.5281 -0.0235
68334SOL    HW214933   9.145   6.039  13.225 -0.1224  1.4355  0.4135
68335SOL     OW14934  10.267   7.879   1.447 -0.2816  0.0113 -0.4671
68335SOL    HW114935  10.303   7.791   1.440  0.0175  0.1025 -0.1128
68335SOL    HW214936  10.196   7.871   1.510 -0.3712 -0.0114 -0.5708
68336SOL     OW14937   9.515   5.524   1.948 -0.0117 -0.5079 -0.7225
68336SOL    HW114938   9.442   5.526   1.886 -0.2971 -1.9607 -0.4482
68336SOL    HW214939   9.587   5.565   1.901 -1.0737  1.3595 -0.8561
68337SOL     OW14940  12.107   7.708   3.739  0.0404 -0.2039  0.6642
68337SOL    HW114941  12.022   7.679   3.775  0.2282  1.1613  2.3387
68337SOL    HW214942  12.170   7.685   3.807  0.9773 -0.7327 -0.3524
68338SOL     OW14943   5.704   1.295  12.109  0.2232 -0.1949  0.2736
68338SOL    HW114944   5.700   1.269  12.201  1.3682 -0.4202  0.2767
68338SOL    HW214945   5.705   1.391  12.111  2.1299 -0.1844  0.6300
68339SOL     OW14946   5.700   5.103   9.551 -0.3025  0.6538  0.6513
68339SOL    HW114947   5.725   5.092   9.459  0.2862 -0.5996  0.9399
68339SOL    HW214948   5.750   5.179   9.580  1.4271 -0.3977  0.5653
68340SOL     OW14949   4.749   0.058  10.666  0.0592  0.1564 -0.3237
68340SOL    HW114950   4.738   0.046  10.572 -1.1347  1.6137 -0.4049
68340SOL    HW214951   4.685  -0.001  10.706  1.2189 -1.1784 -0.3548
68341SOL     OW14952   1.904   5.971   3.811 -0.5862  0.2628 -0.0160
68341SOL    HW114953   1.954   5.981   3.892 -0.6290  1.5027 -0.1091
68341SOL    HW214954   1.831   5.915   3.835  0.1205 -0.4677  0.4617
68342SOL     OW14955   5.259   4.617   5.636  0.2609 -0.1567 -0.6627
68342SOL    HW114956   5.273   4.547   5.571  0.8330  0.3800 -1.1308
68342SOL    HW214957   5.344   4.660   5.643 -0.1457  0.6361 -0.5417
68343SOL     OW14958   7.856  10.634   2.957  0.1858 -0.3063 -0.1978
68343SOL    HW114959   7.864  10.706   3.020 -2.2061  0.5474 -0.7679
68343SOL    HW214960   7.874  10.555   3.009  2.3794  0.5918  0.5492
68344SOL     OW14961   1.210  12.738   1.904  0.6622 -0.0823  0.1052
68344SOL    HW114962   1.226  12.644   1.909 -0.7960 -0.2905  1.6261
68344SOL    HW214963   1.284  12.778   1.948  0.7742 -0.5742  0.3634
68345SOL     OW14964   4.815  10.842   6.144  0.3020 -0.2081 -0.0287
68345SOL    HW114965   4.905  10.843   6.178  0.3176 -2.8538  0.2298
68345SOL    HW214966   4.822  10.797   6.060 -0.9924 -2.3853  0.9559
68346SOL     OW14967   2.721  10.642  13.272 -0.1697 -0.0433 -0.4012
68346SOL    HW114968   2.800  10.660  13.222  0.9840  1.2822  1.7562
68346SOL    HW214969   2.658  10.707  13.241  1.1650  2.1327  1.1077
68347SOL     OW14970  13.075   3.259   0.138  0.3299  0.1277  0.0255
68347SOL    HW114971  13.058   3.353   0.129  2.5310  0.6543  0.8059
68347SOL    HW214972  12.989   3.221   0.158 -1.2792  1.4343 -3.5994
68348SOL     OW14973  11.716  13.022   5.617 -0.4061  0.7502  0.7645
68348SOL    HW114974  11.626  13.048   5.635  0.0826  2.2285  1.2111
68348SOL    HW214975  11.769  13.075   5.676  0.8211  0.7064 -0.2479
68349SOL     OW14976   9.859   2.178   6.000  0.2043  0.3060  0.4450
68349SOL    HW114977   9.863   2.261   5.952  0.1663 -0.4907 -0.9842
68349SOL    HW214978   9.948   2.143   5.992  0.3874  0.4817  1.5829
68350SOL     OW14979   5.141   3.483   6.061 -0.0279 -0.7372  0.0854
68350SOL    HW114980   5.174   3.504   5.973 -0.7768 -1.9524 -0.5194
68350SOL    HW214981   5.136   3.567   6.106  1.3394 -0.2175 -0.6912
68351SOL     OW14982  11.841  10.227  10.660  1.1015 -0.2500  0.1589
68351SOL    HW114983  11.918  10.281  10.671  1.0626 -0.4915  1.8742
68351SOL    HW214984  11.858  10.149  10.714 -0.3775 -0.2335  0.7104
68352SOL     OW14985  13.302  10.462  11.558  0.1864  0.0354  0.2307
68352SOL    HW114986  13.257  10.444  11.475  0.5806 -0.9495  0.2100
68352SOL    HW214987  13.395  10.456  11.536  0.3729  2.1775  0.2397
68353SOL     OW14988   8.181   8.959   4.138  0.1613 -0.5265  0.5049
68353SOL    HW114989   8.128   8.990   4.211 -0.1406  1.5978 -0.5444
68353SOL    HW214990   8.272   8.971   4.167  0.0496 -0.3148  0.7736
68354SOL     OW14991   3.512  12.892   1.247 -0.0235  0.0698 -0.1155
68354SOL    HW114992   3.448  12.825   1.226  0.4621 -0.9246  1.4258
68354SOL    HW214993   3.568  12.897   1.170 -0.1403 -1.2209 -0.3050
68355SOL     OW14994   5.629   3.371  13.133 -0.1925  0.2420  0.0312
68355SOL    HW114995   5.576   3.292  13.142 -0.0352  0.1722  0.3884
68355SOL    HW214996   5.649   3.396  13.224 -1.7609  1.7128  0.0275
68356SOL     OW14997   1.997   3.158   2.866 -0.0457 -0.1057  0.5145
68356SOL    HW114998   2.037   3.239   2.897 -0.6362  0.8193 -1.0203
68356SOL    HW214999   1.987   3.171   2.772  0.0784 -2.0837  0.1972
68357SOL     OW15000   5.514   9.571   8.696  0.2421 -0.2583 -0.9710
68357SOL    HW115001   5.486   9.593   8.607 -2.1284 -0.1870 -0.2770
68357SOL    HW215002   5.504   9.476   8.702  0.3887 -0.2617 -0.7739
68358SOL     OW15003   3.194   1.867   1.957  0.3129  0.0955  0.3475
68358SOL    HW115004   3.158   1.833   2.038  0.0472  0.8360  0.5494
68358SOL    HW215005   3.200   1.791   1.899 -1.3234 -0.0944  0.3885
68359SOL     OW15006   1.707  10.593  10.570  0.3213  0.2538 -0.3102
68359SOL    HW115007   1.721  10.502  10.597  0.5933  0.1568 -0.7556
68359SOL    HW215008   1.729  10.645  10.647 -2.3839 -0.1409  0.8251
68360SOL     OW15009   9.362   2.460  11.118 -0.2563 -0.4173 -0.2123
68360SOL    HW115010   9.274   2.476  11.153 -1.0349 -1.1259 -1.7666
68360SOL    HW215011   9.353   2.471  11.023  1.6398  0.8117 -0.3144
68361SOL     OW15012  11.304   8.142   4.934  0.2607  0.9385 -0.1746
68361SOL    HW115013  11.384   8.090   4.945  0.2076  1.1217  1.2175
68361SOL    HW215014  11.266   8.110   4.852 -0.3594 -2.0882  1.1461
68362SOL     OW15015   1.398   0.745   2.743 -0.0204  0.5319 -0.2076
68362SOL    HW115016   1.425   0.829   2.778  0.5189  0.5005 -0.5360
68362SOL    HW215017   1.456   0.729   2.669  2.0341 -1.5769  1.6931
68363SOL     OW15018   9.113   7.104   3.792  0.2569 -0.2382 -0.0157
68363SOL    HW115019   9.063   7.072   3.717 -0.0081  0.3241 -0.0843
68363SOL    HW215020   9.047   7.141   3.850  0.6998  1.8308 -0.7511
68364SOL     OW15021   3.221   6.740  12.086 -0.2710  0.4928 -0.5495
68364SOL    HW115022   3.274   6.713  12.011 -0.5913 -0.4551 -0.4449
68364SOL    HW215023   3.284   6.783  12.144  0.2057  0.2111 -0.8446
68365SOL     OW15024  10.501   9.180  12.222  0.6431 -0.9438  0.5643
68365SOL    HW115025  10.439   9.115  12.188  0.4015  0.2350 -1.3967
68365SOL    HW215026  10.455   9.223  12.294 -0.4149 -0.8039 -0.1838
68366SOL     OW15027   3.532   0.544   5.046  0.2323  0.4371 -0.6400
68366SOL    HW115028   3.563   0.514   5.131  0.2324  0.1456 -0.7412
68366SOL    HW215029   3.605   0.529   4.987 -0.3574 -0.9969 -1.0391
68367SOL     OW15030   6.611   1.337   4.687 -0.3921 -0.1556  0.0976
68367SOL    HW115031   6.632   1.337   4.781  2.0518  0.7730 -0.3923
68367SOL    HW215032   6.661   1.265   4.651 -0.2074  0.3749 -0.7180
68368SOL     OW15033   8.307   0.609   3.609 -0.6502  0.6595 -0.0337
68368SOL    HW115034   8.386   0.643   3.652 -1.4437  0.5715  1.5466
68368SOL    HW215035   8.255   0.687   3.590 -1.0372  0.5890  0.6947
68369SOL     OW15036   8.766   8.366   5.526 -0.0046  0.1854  0.2806
68369SOL    HW115037   8.692   8.350   5.467  0.9658  1.4032 -1.3663
68369SOL    HW215038   8.842   8.331   5.479  0.6009 -0.2963  1.5662
68370SOL     OW15039  12.678  13.270   9.124 -0.1649  0.5275  0.0076
68370SOL    HW115040  12.620  13.200   9.153 -1.7310  1.6764 -0.1592
68370SOL    HW215041  12.644  13.295   9.038  0.5847  1.2130 -0.1014
68371SOL     OW15042   2.281   2.207   7.957 -0.1628 -0.2243 -0.3975
68371SOL    HW115043   2.352   2.270   7.966 -0.2265 -0.0166 -1.3207
68371SOL    HW215044   2.309   2.148   7.887 -0.0802 -1.2660  0.4844
68372SOL     OW15045  10.795   5.637   2.112  0.3070 -0.6293  0.4957
68372SOL    HW115046  10.737   5.579   2.063  0.7804 -0.3264 -0.4489
68372SOL    HW215047  10.842   5.686   2.044 -0.9678  1.7720  1.2264
68373SOL     OW15048  12.937   0.248   6.284  0.5595  0.0505  0.7114
68373SOL    HW115049  12.897   0.170   6.324 -1.8874  0.1476 -1.2851
68373SOL    HW215050  12.997   0.213   6.219 -0.7451 -0.2566 -0.3829
68374SOL     OW15051   5.669   2.731   3.427  0.2899 -0.5459  0.3665
68374SOL    HW115052   5.704   2.782   3.500 -1.8658 -1.1558  1.9361
68374SOL    HW215053   5.640   2.796   3.363 -0.5511  0.1343  1.4186
68375SOL     OW15054   6.491  11.207   7.285 -0.0754 -0.1361 -0.3240
68375SOL    HW115055   6.516  11.126   7.242 -0.2191 -0.9460  1.0613
68375SOL    HW215056   6.395  11.206   7.285 -0.0817 -0.6759  0.9493
68376SOL     OW15057   8.632   1.636   3.081  0.5213  0.0754  0.5344
68376SOL    HW115058   8.673   1.703   3.136  3.4295 -1.0329 -0.0635
68376SOL    HW215059   8.558   1.680   3.040  1.4571  2.4871  1.2524
68377SOL     OW15060   7.318  13.020  10.907  0.4763 -0.6037 -0.0578
68377SOL    HW115061   7.340  13.036  10.999  1.1037 -2.3263  0.1343
68377SOL    HW215062   7.226  13.044  10.899  0.8871  1.3423  0.5361
68378SOL     OW15063   8.926   1.589  10.547 -0.0796 -0.0768 -0.2548
68378SOL    HW115064   8.900   1.680  10.532 -0.2835 -0.3368 -1.6613
68378SOL    HW215065   8.988   1.570  10.477 -1.6184 -1.6347 -1.2731
68379SOL     OW15066   3.248   0.798   9.054 -0.2619  1.0470 -0.0222
68379SOL    HW115067   3.344   0.798   9.061 -0.2811  1.3258  0.2763
68379SOL    HW215068   3.231   0.762   8.967  0.0266 -1.4519  0.8740
68380SOL     OW15069  12.626  10.356   4.340  0.0023 -0.3262 -0.0316
68380SOL    HW115070  12.563  10.423   4.312 -0.9185 -1.1181  0.1240
68380SOL    HW215071  12.595  10.275   4.301 -0.3812 -1.1568  1.9011
68381SOL     OW15072  11.654   2.403   4.830  0.4718  0.4798  0.1492
68381SOL    HW115073  11.635   2.316   4.796  1.3824  0.7199 -1.0516
68381SOL    HW215074  11.660   2.392   4.924 -1.7996 -0.2869  0.2696
68382SOL     OW15075   3.230   2.825   6.059  0.7471 -0.4373  0.2048
68382SOL    HW115076   3.267   2.899   6.107  0.2268 -0.7800  1.1580
68382SOL    HW215077   3.302   2.762   6.053  1.2463  0.2042 -0.7723
68383SOL     OW15078   6.687   7.835   7.874 -0.1542  0.5214  0.2050
68383SOL    HW115079   6.632   7.760   7.894 -0.1777  0.5325  0.1823
68383SOL    HW215080   6.736   7.809   7.796  0.2603  0.3115  0.5369
68384SOL     OW15081   3.922   4.025   0.032 -0.2619  0.2999  0.5635
68384SOL    HW115082   3.865   3.964   0.080 -0.2791  1.7601  2.5260
68384SOL    HW215083   3.981   3.968  -0.018 -1.6189 -1.2832  0.6741
68385SOL     OW15084   4.394   0.018   3.844  0.1127 -0.1505  0.6367
68385SOL    HW115085   4.393   0.095   3.900  1.5893 -0.7864  1.5892
68385SOL    HW215086   4.458  -0.041   3.884 -1.8935 -2.4667  0.7037
68386SOL     OW15087   3.183  11.377  12.444 -0.1036  0.2889 -0.1719
68386SOL    HW115088   3.121  11.314  12.482  1.0718 -0.8757 -0.1176
68386SOL    HW215089   3.136  11.414  12.369 -1.1051 -0.0875  0.2475
68387SOL     OW15090  10.781   9.548   9.335 -0.5627 -0.1327  0.1977
68387SOL    HW115091  10.731   9.615   9.381 -3.1809 -1.8804  0.1202
68387SOL    HW215092  10.842   9.513   9.400 -0.3548  1.1342  0.6994
68388SOL     OW15093   8.707  11.712   2.592  0.7387 -0.7291 -0.5626
68388SOL    HW115094   8.731  11.718   2.684  0.7519  1.1469 -0.6605
68388SOL    HW215095   8.611  11.711   2.591  0.7220  0.3009 -0.5659
68389SOL     OW15096  11.060   5.022   9.876  0.6652  0.2423  0.2053
68389SOL    HW115097  11.046   5.039   9.783 -0.8199  0.6845  0.4921
68389SOL    HW215098  11.133   4.960   9.878 -0.2325 -0.9205 -1.3246
68390SOL     OW15099   9.156   3.102  12.239  0.5688 -0.1077  0.5144
68390SOL    HW115100   9.161   3.038  12.309  2.8149 -1.1492 -0.4965
68390SOL    HW215101   9.191   3.056  12.162  1.7271  2.1326 -0.3818
68391SOL     OW15102   1.035   2.728   0.817  0.0921 -0.1307  0.3199
68391SOL    HW115103   0.958   2.698   0.866  0.1987  0.1771  0.6775
68391SOL    HW215104   1.105   2.731   0.882  0.1128  0.7714  0.2704
68392SOL     OW15105   7.414   3.993   9.043  0.0290 -0.1335 -0.1971
68392SOL    HW115106   7.389   3.964   9.131  1.0752  0.4721  0.3243
68392SOL    HW215107   7.502   4.029   9.054  0.5380 -0.8509 -1.6757
68393SOL     OW15108  13.077   4.028   8.382 -0.4822 -0.0005 -0.0860
68393SOL    HW115109  13.141   4.058   8.317 -1.2542  0.1382 -0.8089
68393SOL    HW215110  13.035   4.108   8.413 -1.3055 -0.1806 -0.6998
68394SOL     OW15111   6.320   8.361   5.682  0.3098 -0.4313 -0.0233
68394SOL    HW115112   6.248   8.377   5.743 -0.4839  2.0626 -1.4958
68394SOL    HW215113   6.398   8.362   5.738 -0.5088  0.2682  1.1614
68395SOL     OW15114   5.640   1.074   0.982  0.0727 -0.3910 -0.5985
68395SOL    HW115115   5.665   1.020   0.907 -1.3703  0.7320 -1.9588
68395SOL    HW215116   5.623   1.160   0.944 -0.0404  0.3913  1.1454
68396SOL     OW15117   3.552   3.723   8.262  0.5150 -0.1641  0.5976
68396SOL    HW115118   3.614   3.652   8.244 -1.1085 -1.5120  0.1572
68396SOL    HW215119   3.597   3.802   8.232  0.9927 -1.3979 -2.2014
68397SOL     OW15120  12.760   8.778   2.862  0.0861 -0.5354  0.1948
68397SOL    HW115121  12.725   8.714   2.923  1.7858  1.0394  3.0397
68397SOL    HW215122  12.838   8.736   2.824 -1.5716 -1.9285 -1.8991
68398SOL     OW15123   1.165   9.501   4.221  0.7011 -0.5108 -0.2749
68398SOL    HW115124   1.206   9.553   4.153  2.3243 -1.1264  0.1902
68398SOL    HW215125   1.197   9.413   4.207  0.8779 -0.6930  1.1337
68399SOL     OW15126   5.333   9.527   1.870  0.1413 -0.4641 -0.3647
68399SOL    HW115127   5.293   9.612   1.887 -1.2901 -1.0591 -0.6797
68399SOL    HW215128   5.397   9.545   1.801  0.4267  0.4964  0.1311
68400SOL     OW15129  11.302  10.295   6.592 -0.0735 -0.2363 -0.5642
68400SOL    HW115130  11.359  10.369   6.570  0.3608 -0.0885  0.9619
68400SOL    HW215131  11.214  10.329   6.579  0.0651  1.0982  1.5576
68401SOL     OW15132   8.390   4.468   4.029  0.3194  0.3214 -0.2282
68401SOL    HW115133   8.297   4.485   4.043  0.3584 -0.1400  0.6559
68401SOL    HW215134   8.395   4.432   3.941 -0.3090  0.5645 -0.3702
68402SOL     OW15135   8.938   1.521   3.041 -0.2426  0.0170 -0.4076
68402SOL    HW115136   8.989   1.572   2.979 -0.3499  0.3272 -0.2488
68402SOL    HW215137   8.924   1.581   3.115 -2.0920  0.4712 -1.0726
68403SOL     OW15138   6.817   9.636  11.121 -0.3509 -0.4498 -0.1146
68403SOL    HW115139   6.881   9.693  11.080 -0.5967 -0.1152 -0.0379
68403SOL    HW215140   6.758   9.695  11.168 -0.6577 -0.7578 -0.1044
68404SOL     OW15141   2.656  11.689   6.866 -0.0695  0.6114 -0.4573
68404SOL    HW115142   2.719  11.625   6.900 -0.1674  0.0954 -1.2149
68404SOL    HW215143   2.705  11.771   6.864 -0.2608  0.8391  1.5460
68405SOL     OW15144   4.100   3.863   7.612 -0.0476 -0.3616 -0.6815
68405SOL    HW115145   4.106   3.895   7.522  0.4188 -1.3120 -1.0033
68405SOL    HW215146   4.125   3.938   7.666 -1.8711  0.7135 -1.2366
68406SOL     OW15147   5.799   5.298  10.434 -0.2676  0.6389 -0.2178
68406SOL    HW115148   5.711   5.262  10.424  0.6746 -1.3861 -2.5322
68406SOL    HW215149   5.856   5.221  10.433  1.6013  1.9525  0.1048
68407SOL     OW15150   7.621   4.053  12.311  0.4971  0.0113 -0.1344
68407SOL    HW115151   7.702   4.009  12.289 -0.9861 -2.8074 -0.4676
68407SOL    HW215152   7.576   4.064  12.227 -0.1352  0.0788  0.2072
68408SOL     OW15153   1.799  12.659   9.611 -0.2366  0.1873  0.0141
68408SOL    HW115154   1.861  12.720   9.570 -0.2951  0.4908  0.3747
68408SOL    HW215155   1.748  12.713   9.671 -0.0032 -0.2907  0.6486
68409SOL     OW15156   5.381   9.401   4.218 -0.0731 -0.6811  0.0935
68409SOL    HW115157   5.289   9.383   4.199  0.3538 -1.2153 -1.5494
68409SOL    HW215158   5.385   9.495   4.231 -0.5527 -0.3869 -1.7169
68410SOL     OW15159   8.169   0.603   3.155 -0.2649 -0.0159 -0.0626
68410SOL    HW115160   8.205   0.572   3.071  0.6474 -0.8280  0.5944
68410SOL    HW215161   8.160   0.697   3.144  0.9523  0.0558 -0.7015
68411SOL     OW15162   2.336   5.177  10.301  0.0377 -0.3054 -0.0124
68411SOL    HW115163   2.287   5.099  10.275  1.9754 -1.5631 -0.1366
68411SOL    HW215164   2.275   5.249  10.288 -1.6079 -1.7244 -0.5581
68412SOL     OW15165   0.913   3.085   8.469  0.5152  0.3721  0.3346
68412SOL    HW115166   0.880   3.174   8.463 -1.9519 -0.2007  2.7883
68412SOL    HW215167   0.874   3.040   8.394 -0.7071  0.7399  0.7223
68413SOL     OW15168   4.692   8.166  12.418  0.3090 -0.7972  0.1989
68413SOL    HW115169   4.675   8.109  12.343  0.9755  0.1665 -0.7286
68413SOL    HW215170   4.783   8.149  12.441  0.8529  0.5875 -0.7625
68414SOL     OW15171  12.755   8.748   6.490 -0.0879 -0.3309 -0.2029
68414SOL    HW115172  12.764   8.835   6.452 -0.5360 -0.1694  0.0511
68414SOL    HW215173  12.782   8.688   6.421 -1.4924 -0.0774 -1.0023
68415SOL     OW15174  12.847   2.568   8.064 -0.1338 -0.4920 -0.2350
68415SOL    HW115175  12.779   2.615   8.111  0.4602  1.3731 -1.1322
68415SOL    HW215176  12.820   2.570   7.972 -1.1998 -3.9305 -0.1464
68416SOL     OW15177  10.426   9.834   5.154  0.2990  0.3629 -0.1582
68416SOL    HW115178  10.513   9.803   5.129  0.0699 -0.5150  0.0944
68416SOL    HW215179  10.386   9.862   5.072  0.6242  0.2863 -0.3438
68417SOL     OW15180   6.570   5.153  10.970  0.3764  0.3512 -0.2017
68417SOL    HW115181   6.480   5.184  10.977  0.5581  1.6733 -2.7175
68417SOL    HW215182   6.563   5.064  10.936 -0.0047  0.6082 -0.8143
68418SOL     OW15183   1.429   3.818   7.581  0.3044 -0.8151  0.1833
68418SOL    HW115184   1.507   3.795   7.530 -0.4185  1.1720 -1.9856
68418SOL    HW215185   1.400   3.735   7.618  1.9238 -2.0674 -1.1766
68419SOL     OW15186   9.384  12.774   5.979  0.2821  0.4506  0.2144
68419SOL    HW115187   9.343  12.704   6.029 -1.5216 -0.1962 -1.9834
68419SOL    HW215188   9.424  12.730   5.904  0.2140  1.6446 -0.5568
68420SOL     OW15189   3.417   1.359   3.619  0.3526  0.3648 -1.0152
68420SOL    HW115190   3.396   1.268   3.600  1.8076  0.0967 -1.4280
68420SOL    HW215191   3.451   1.358   3.708  0.4844  0.4801 -1.0629
68421SOL     OW15192   0.955  12.637   8.739  0.1488 -0.1021  0.0042
68421SOL    HW115193   0.863  12.646   8.712  0.3182 -0.7471 -0.8543
68421SOL    HW215194   0.976  12.720   8.781 -0.4963  0.5207 -0.8561
68422SOL     OW15195   3.277   8.202   2.476 -0.5302 -0.4586 -0.2636
68422SOL    HW115196   3.314   8.275   2.525 -0.8416 -1.0239  0.8433
68422SOL    HW215197   3.290   8.225   2.384 -1.2258  1.3099  0.0461
68423SOL     OW15198  12.345  12.556   5.527  0.1260 -0.1860  0.0046
68423SOL    HW115199  12.264  12.566   5.476  0.8232 -1.2807 -1.3883
68423SOL    HW215200  12.334  12.473   5.573  0.2331 -0.0608  0.2575
68424SOL     OW15201   7.289   8.107   4.064 -0.3168 -0.5704 -0.8114
68424SOL    HW115202   7.221   8.169   4.042 -1.6328 -0.3602  3.0600
68424SOL    HW215203   7.368   8.140   4.021 -1.4465  2.5040 -0.7214
68425SOL     OW15204   7.213   1.129   0.036 -0.0218 -0.0770 -0.2201
68425SOL    HW115205   7.178   1.217   0.025  0.3656  0.1064 -0.0397
68425SOL    HW215206   7.153   1.087   0.097  1.3954  1.0659  2.1431
68426SOL     OW15207   0.040   3.683   4.967 -0.0377 -0.1349 -0.0531
68426SOL    HW115208   0.079   3.696   4.880 -1.3711  0.6618 -0.5777
68426SOL    HW215209   0.094   3.736   5.026  0.0507  0.4488 -0.6453
68427SOL     OW15210   1.237  12.696   9.862 -1.0166 -0.2657 -0.1795
68427SOL    HW115211   1.216  12.769   9.804  0.1199 -0.6703 -1.1258
68427SOL    HW215212   1.251  12.622   9.803 -1.6483 -1.1444  0.7377
68428SOL     OW15213   4.610  12.781   3.470 -0.2716  0.1968  0.7483
68428SOL    HW115214   4.682  12.776   3.407 -1.6796  0.5982 -0.9863
68428SOL    HW215215   4.540  12.729   3.430 -2.3869  3.1766  0.2744
68429SOL     OW15216   4.429   0.937   8.388  0.3683  0.4524 -0.2436
68429SOL    HW115217   4.437   1.006   8.454 -2.6247  0.9339 -0.2438
68429SOL    HW215218   4.340   0.904   8.399  0.7055 -1.3447 -2.2751
68430SOL     OW15219   1.307   3.141  11.681  0.2480 -0.4076 -0.1043
68430SOL    HW115220   1.344   3.125  11.594  2.8380  0.6518  0.7226
68430SOL    HW215221   1.234   3.079  11.687 -0.2888 -0.2760 -3.1409
68431SOL     OW15222   7.525   0.340   6.891 -0.3674 -0.1993  0.5283
68431SOL    HW115223   7.501   0.251   6.916  2.3363 -0.8806  1.0509
68431SOL    HW215224   7.549   0.334   6.799 -1.6209  0.3459  0.1507
68432SOL     OW15225   6.261   8.810   9.762 -0.3628  0.4422  0.4854
68432SOL    HW115226   6.318   8.799   9.838  1.4491 -1.2629 -0.9699
68432SOL    HW215227   6.202   8.735   9.765 -1.6196  1.4225  1.2007
68433SOL     OW15228   9.409   3.103   1.283  0.1395  0.0867  0.3111
68433SOL    HW115229   9.491   3.071   1.322 -0.6037  0.1532  2.0390
68433SOL    HW215230   9.356   3.024   1.272 -0.3321  0.2676  1.1778
68434SOL     OW15231   0.444   5.362   9.639  0.3481  0.2622  0.1676
68434SOL    HW115232   0.415   5.427   9.574  1.1783  0.7249  0.2498
68434SOL    HW215233   0.515   5.405   9.686  2.9115 -1.7062 -1.6638
68435SOL     OW15234   7.639   7.266   5.249  0.5615 -0.4048  0.4275
68435SOL    HW115235   7.662   7.296   5.336  0.5014  0.7919  0.0495
68435SOL    HW215236   7.557   7.312   5.228  0.6604 -0.5535 -0.3170
68436SOL     OW15237  11.608   1.940   5.632  0.4102 -0.0182  0.0985
68436SOL    HW115238  11.674   1.874   5.654  3.4408  3.1215  1.3379
68436SOL    HW215239  11.543   1.933   5.703 -0.3995 -2.7449 -0.7942
68437SOL     OW15240   6.127   2.278   7.443 -0.1371  0.8040  0.2000
68437SOL    HW115241   6.083   2.272   7.358  0.8529 -1.5494 -0.2216
68437SOL    HW215242   6.078   2.217   7.499  0.8968  0.2241  0.4976
68438SOL     OW15243  12.914   6.945   0.457 -0.2190 -0.0505 -0.6478
68438SOL    HW115244  12.991   6.990   0.421  0.3358 -0.4427  0.0152
68438SOL    HW215245  12.888   6.998   0.532  3.1184 -2.9014  2.9692
68439SOL     OW15246  11.042   6.704   2.727  0.9634  0.0445 -0.3732
68439SOL    HW115247  11.002   6.783   2.692  0.4644 -1.3409 -3.1844
68439SOL    HW215248  11.080   6.731   2.810 -1.1232  2.6868 -0.1442
68440SOL     OW15249   2.312  11.309   7.743  0.0603 -0.7424 -0.2643
68440SOL    HW115250   2.262  11.236   7.779  0.2036  0.1162  1.8211
68440SOL    HW215251   2.253  11.350   7.679 -0.6235 -1.6775 -0.2534
68441SOL     OW15252  12.551   8.413   2.422 -0.0887  0.2994  0.4142
68441SOL    HW115253  12.540   8.418   2.327 -2.7838 -1.6371  0.5233
68441SOL    HW215254  12.481   8.469   2.457 -2.8668 -3.2621  1.1503
68442SOL     OW15255   2.881   5.621  12.163  0.3972 -0.5832  0.3153
68442SOL    HW115256   2.884   5.709  12.201 -0.0176  0.2113 -1.3906
68442SOL    HW215257   2.810   5.577  12.209  0.4723  0.0330  1.0386
68443SOL     OW15258   6.888   7.472   1.984  0.2349  0.5409  0.3077
68443SOL    HW115259   6.840   7.497   1.905  0.5531 -0.6637 -0.3029
68443SOL    HW215260   6.821   7.468   2.052 -0.3420  0.0014 -0.2780
68444SOL     OW15261   0.625  12.427   6.750 -0.2311  0.5615  0.3067
68444SOL    HW115262   0.620  12.332   6.748  0.3790  0.5232  0.3547
68444SOL    HW215263   0.686  12.450   6.679 -0.5897  0.9326  0.1126
68445SOL     OW15264   4.476   9.855   1.471  0.3062  0.6810  0.0426
68445SOL    HW115265   4.518   9.800   1.405  1.1747 -0.2939  1.3538
68445SOL    HW215266   4.382   9.846   1.453  0.4110 -1.4666  0.3519
68446SOL     OW15267   5.798  11.346   8.167  0.3512 -0.4108 -0.0797
68446SOL    HW115268   5.803  11.255   8.195  1.2130 -0.0146  1.1575
68446SOL    HW215269   5.848  11.349   8.085  0.2469 -1.0591 -0.1708
68447SOL     OW15270   2.103   3.999   2.162  0.1608  0.0834  0.5632
68447SOL    HW115271   2.037   3.940   2.126  0.7918  0.9258 -2.1708
68447SOL    HW215272   2.065   4.086   2.152  0.9531  0.4411  0.6019
68448SOL     OW15273   4.838  11.122   8.477 -0.2353 -0.4968 -0.7755
68448SOL    HW115274   4.917  11.161   8.440 -0.0152 -1.7586 -1.7213
68448SOL    HW215275   4.814  11.179   8.550  0.4198  0.9922 -1.6937
68449SOL     OW15276   1.863  10.779   1.595 -0.3764 -0.3346 -0.0273
68449SOL    HW115277   1.885  10.870   1.576 -0.6336 -0.0811  0.8648
68449SOL    HW215278   1.943  10.730   1.571 -0.2878  0.0958 -0.6368
68450SOL     OW15279   2.252   7.700  12.457  0.1624  0.0677  0.2792
68450SOL    HW115280   2.209   7.626  12.414  0.2521 -1.1472  2.1692
68450SOL    HW215281   2.204   7.777  12.425 -0.6134 -0.8742 -0.9271
68451SOL     OW15282   9.489  11.276   8.470 -0.1069  0.3812 -0.2863
68451SOL    HW115283   9.413  11.219   8.458 -0.6488  1.1155 -0.4228
68451SOL    HW215284   9.510  11.307   8.382 -0.7104  1.4979 -0.0610
68452SOL     OW15285   1.560   1.132   7.721 -0.0912  0.1996 -0.3570
68452SOL    HW115286   1.573   1.038   7.738  1.1657  0.8951  3.6356
68452SOL    HW215287   1.648   1.166   7.708 -0.0261  1.2876  2.2207
68453SOL     OW15288   4.188   5.713   7.863 -0.3064 -0.0818 -0.4859
68453SOL    HW115289   4.250   5.781   7.836 -0.2894 -0.1129 -0.5262
68453SOL    HW215290   4.222   5.681   7.946  0.9893 -1.6383 -1.5254
68454SOL     OW15291   5.498   2.132   4.692  0.7383  0.5995  0.4918
68454SOL    HW115292   5.408   2.132   4.724  0.2443  1.2026 -0.8602
68454SOL    HW215293   5.491   2.146   4.598  2.2626  0.9520  0.4040
68455SOL     OW15294   1.787   7.317   0.540  0.1611 -0.0024 -0.0467
68455SOL    HW115295   1.794   7.379   0.613  0.0378 -1.6859  1.4518
68455SOL    HW215296   1.702   7.276   0.551  1.0014 -1.7968  0.1683
68456SOL     OW15297   8.122  10.892   6.817  0.1966  0.1359  0.0085
68456SOL    HW115298   8.093  10.894   6.726 -0.9068 -1.4949  0.2756
68456SOL    HW215299   8.195  10.831   6.818  1.2259  1.3346 -0.0152
68457SOL     OW15300  11.624  11.335   3.884 -0.3037 -0.2765 -0.1803
68457SOL    HW115301  11.564  11.409   3.876  1.1393  0.8212 -1.3143
68457SOL    HW215302  11.571  11.259   3.860 -0.9718  0.8055 -2.3873
68458SOL     OW15303   0.619   1.534   4.787  0.3087  0.0732  0.1975
68458SOL    HW115304   0.652   1.616   4.825 -0.5732  1.4316 -1.8196
68458SOL    HW215305   0.597   1.481   4.864 -0.3346  2.2319  1.6353
68459SOL     OW15306   1.536   4.017  13.192  0.1563 -0.5652  0.0262
68459SOL    HW115307   1.562   3.980  13.108  1.8780 -1.8433  1.0465
68459SOL    HW215308   1.619   4.026  13.240 -0.7189  0.6669  1.3747
68460SOL     OW15309   1.446   2.216   2.976  0.7293  0.0267 -0.0121
68460SOL    HW115310   1.539   2.230   2.993  1.1864  2.5050 -3.4006
68460SOL    HW215311   1.409   2.304   2.972 -1.1384 -0.7514 -1.5277
68461SOL     OW15312   6.956   8.573  12.472 -0.0508  0.6433  0.1716
68461SOL    HW115313   6.912   8.637  12.416 -0.2146 -0.5079 -1.0735
68461SOL    HW215314   7.000   8.625  12.539 -1.8124  1.9276  0.3799
68462SOL     OW15315  10.958   6.166  11.803 -0.2226 -0.2873  0.2056
68462SOL    HW115316  10.985   6.129  11.719  0.6903 -0.8266  0.7134
68462SOL    HW215317  11.039   6.169  11.854 -0.7514  0.1165  1.0278
68463SOL     OW15318   3.099   6.031   1.415  0.2922 -0.0183 -0.2268
68463SOL    HW115319   3.124   6.096   1.480 -2.5623  1.8020 -0.7485
68463SOL    HW215320   3.120   6.072   1.331  3.1187 -1.9784 -0.6218
68464SOL     OW15321   3.501   3.536   9.107 -0.4658  0.2969  0.0880
68464SOL    HW115322   3.544   3.593   9.043 -2.6370  0.2746 -1.5322
68464SOL    HW215323   3.476   3.459   9.056  0.9445 -1.4232  1.8622
68465SOL     OW15324   2.093   8.050  10.721  0.4095 -0.8691  0.1981
68465SOL    HW115325   2.053   8.039  10.807  0.3003 -0.6245  0.1782
68465SOL    HW215326   2.137   7.966  10.704 -1.4381 -1.7658 -0.4803
68466SOL     OW15327   6.111   2.422   2.182 -0.6856  0.4599 -0.4065
68466SOL    HW115328   6.028   2.384   2.212 -0.6952  1.6661  1.2550
68466SOL    HW215329   6.097   2.516   2.185  0.6595  0.6797 -0.3285
68467SOL     OW15330  10.070  11.958   8.756 -0.4097 -0.8347 -0.0803
68467SOL    HW115331  10.072  11.873   8.711 -0.7101 -0.5659 -0.6177
68467SOL    HW215332   9.995  11.952   8.815  1.8768 -2.4071  2.8942
68468SOL     OW15333   0.324   3.027   5.786  0.6891 -0.3618 -0.1092
68468SOL    HW115334   0.366   2.975   5.718 -0.3172 -1.2531 -0.0743
68468SOL    HW215335   0.230   3.011   5.774  0.4329  0.4340  0.7156
68469SOL     OW15336   0.505   1.073  10.282 -0.3652  0.3124  0.1404
68469SOL    HW115337   0.481   1.020  10.206  0.2985  0.7132 -0.3674
68469SOL    HW215338   0.428   1.129  10.298 -1.0142 -0.6842  0.5970
68470SOL     OW15339   4.255   4.101   9.581  0.0442 -0.6232 -0.1817
68470SOL    HW115340   4.185   4.141   9.633 -0.3887 -0.5416 -0.8099
68470SOL    HW215341   4.332   4.155   9.597 -0.1972 -0.3449  0.0380
68471SOL     OW15342  12.896   5.092   9.905 -0.5082  0.6243  0.1987
68471SOL    HW115343  12.984   5.077   9.941 -1.5144 -0.7216  2.3061
68471SOL    HW215344  12.870   5.007   9.871 -1.2244  0.8692  0.1323
68472SOL     OW15345   8.085   2.352   1.721 -0.2993 -0.0500 -0.1091
68472SOL    HW115346   8.116   2.394   1.641 -0.1446  0.5690  0.2711
68472SOL    HW215347   7.994   2.329   1.703 -0.2763  0.1248 -0.4488
68473SOL     OW15348   7.639   2.521   4.775 -0.2414 -0.2238 -0.2618
68473SOL    HW115349   7.602   2.531   4.687  1.5132  2.5973 -0.7980
68473SOL    HW215350   7.729   2.493   4.760 -0.4495 -1.5099  0.7607
68474SOL     OW15351   4.181   3.699  10.204 -0.0510 -0.4573  0.2114
68474SOL    HW115352   4.126   3.736  10.273  1.7354  0.8070  1.0030
68474SOL    HW215353   4.269   3.696  10.240  0.7887 -0.6058 -1.6996
68475SOL     OW15354   1.881   4.597   0.268 -0.3050 -0.1548  0.6189
68475SOL    HW115355   1.875   4.502   0.258  2.5286 -0.4635  1.0809
68475SOL    HW215356   1.911   4.628   0.182 -0.1597  0.1712  0.7868
68476SOL     OW15357  12.806   9.199   7.507  0.7041 -0.3407 -0.1525
68476SOL    HW115358  12.813   9.277   7.563 -0.1918 -0.1988 -0.2177
68476SOL    HW215359  12.876   9.209   7.443  0.1361  0.8345 -0.6394
68477SOL     OW15360  11.977  10.241  10.028  0.4266 -0.1896 -0.0901
68477SOL    HW115361  11.990  10.257   9.934  1.6011  0.3733  0.1399
68477SOL    HW215362  11.923  10.314  10.058  1.7385  0.7892  0.0264
68478SOL     OW15363  12.900  12.719   9.289  0.0525  0.1887  0.4300
68478SOL    HW115364  12.839  12.771   9.237  0.0092  0.0463  0.3378
68478SOL    HW215365  12.848  12.687   9.363 -0.7764 -2.3059 -1.1080
68479SOL     OW15366   3.077   0.075   8.967  0.1063 -0.8094 -0.0857
68479SOL    HW115367   3.030   0.009   9.020  0.1773 -0.2231  0.7260
68479SOL    HW215368   3.134   0.119   9.030 -0.6036  0.6516 -0.4123
68480SOL     OW15369   1.128  11.757   7.047 -0.0980  0.1055  0.0874
68480SOL    HW115370   1.125  11.746   7.142  0.1060 -0.7673  0.0016
68480SOL    HW215371   1.044  11.798   7.026 -1.6628 -2.6767  0.3134
68481SOL     OW15372   1.703   8.469   2.264  0.1396 -0.4604  0.2450
68481SOL    HW115373   1.724   8.542   2.322  1.1844 -0.0695 -0.5930
68481SOL    HW215374   1.651   8.508   2.194  0.0763 -0.6616  0.1808
68482SOL     OW15375  10.082   0.807   5.235  0.1002 -0.1921  0.0078
68482SOL    HW115376  10.136   0.772   5.165  0.1208 -0.6311  0.2379
68482SOL    HW215377  10.077   0.736   5.299  1.1123  0.6286  1.0316
68483SOL     OW15378   1.108   2.444   9.750  0.6950  0.1488  0.2432
68483SOL    HW115379   1.075   2.359   9.780 -0.7305 -0.5156 -2.8035
68483SOL    HW215380   1.071   2.508   9.811 -0.3832 -1.2143  1.0671
68484SOL     OW15381   4.737   8.452   6.081  0.2967 -0.0386  0.4422
68484SOL    HW115382   4.718   8.393   6.008 -0.8496  1.5339 -0.6316
68484SOL    HW215383   4.660   8.445   6.137 -0.0242  0.6802  0.1075
68485SOL     OW15384   8.997   7.801   2.686  0.2965 -0.2818 -0.1124
68485SOL    HW115385   9.013   7.778   2.595  0.8949  0.8669 -0.3076
68485SOL    HW215386   9.072   7.855   2.712 -1.9364  3.2525 -0.3330
68486SOL     OW15387  13.081   8.801   0.340  0.3613  0.6427 -0.4289
68486SOL    HW115388  13.016   8.754   0.392  0.2366 -1.2461 -2.1636
68486SOL    HW215389  13.087   8.751   0.258  3.4434  1.1859 -0.6447
68487SOL     OW15390   3.071  12.133   4.895  0.2422  0.0070  0.0436
68487SOL    HW115391   3.012  12.201   4.929  0.8156  0.3080  0.4556
68487SOL    HW215392   3.046  12.124   4.803 -0.1741  0.4186  0.1079
68488SOL     OW15393   1.497   3.560   1.706 -0.1332  0.7045  0.7956
68488SOL    HW115394   1.508   3.481   1.759 -2.8894  0.1283  0.6720
68488SOL    HW215395   1.569   3.556   1.643  0.2501 -1.3036  1.2757
68489SOL     OW15396   4.286  13.280  11.135 -0.0463 -0.2451 -0.1110
68489SOL    HW115397   4.284  13.187  11.112  0.6562 -0.1835 -0.4514
68489SOL    HW215398   4.357  13.316  11.083 -0.2632  0.4736  0.0758
68490SOL     OW15399   2.507   0.689   2.229 -0.2895 -0.3769 -0.0301
68490SOL    HW115400   2.572   0.693   2.158 -0.1128 -0.4522  0.1250
68490SOL    HW215401   2.428   0.656   2.188 -0.8876  1.7327 -0.7135
68491SOL     OW15402   3.331   9.668   6.819  0.1593 -0.1831  0.1471
68491SOL    HW115403   3.381   9.726   6.761 -1.2846 -0.2328 -1.2321
68491SOL    HW215404   3.265   9.724   6.859  0.2711 -0.4231  0.6769
68492SOL     OW15405   5.412  10.506   3.591 -0.0895 -0.3736 -0.4514
68492SOL    HW115406   5.430  10.519   3.498  2.2246  0.6155  0.0571
68492SOL    HW215407   5.385  10.415   3.598 -2.7314  0.1610 -2.3497
68493SOL     OW15408  12.873   5.824  12.894  0.0615  0.0752 -0.5475
68493SOL    HW115409  12.821   5.891  12.940  0.9037  0.6284 -0.3778
68493SOL    HW215410  12.903   5.868  12.814  0.2938 -0.2346 -0.6326
68494SOL     OW15411   5.546   7.699   8.159  0.1323  0.1044  0.0871
68494SOL    HW115412   5.627   7.748   8.170 -0.1035  0.3269  0.9232
68494SOL    HW215413   5.532   7.695   8.065  0.5264  1.0325 -0.0135
68495SOL     OW15414   7.484  12.633   3.363 -0.2674  0.3023  0.0444
68495SOL    HW115415   7.554  12.699   3.364 -1.8936  2.1741 -1.1676
68495SOL    HW215416   7.451  12.636   3.273 -1.0781 -1.4803  0.2491
68496SOL     OW15417   3.747   3.519  13.045 -0.1299  0.8658  0.3001
68496SOL    HW115418   3.663   3.472  13.040 -0.1005  0.3100  3.1958
68496SOL    HW215419   3.723   3.606  13.075  0.2858  0.7802  0.8911
68497SOL     OW15420   7.055  10.141  11.914  0.4511 -0.1166 -0.6301
68497SOL    HW115421   6.979  10.183  11.955  0.9098  1.7336 -1.6079
68497SOL    HW215422   7.110  10.116  11.988 -0.6007 -0.5308  0.0476
68498SOL     OW15423   3.441   6.850   9.068  0.1159 -0.6554  0.5120
68498SOL    HW115424   3.371   6.801   9.025 -1.2019  0.0525  1.7790
68498SOL    HW215425   3.426   6.837   9.161 -0.7213  2.6476  0.9461
68499SOL     OW15426  11.556   5.327   7.095  0.2714 -0.0498 -0.3931
68499SOL    HW115427  11.596   5.381   7.027  0.5715  1.5489  0.9655
68499SOL    HW215428  11.462   5.330   7.075  0.4957 -1.0105 -1.6710
68500SOL     OW15429   9.908  10.892   6.152  1.3063  0.0125 -0.0775
68500SOL    HW115430   9.850  10.925   6.221 -1.4233 -0.1570 -2.1350
68500SOL    HW215431   9.925  10.968   6.097  1.2288 -0.4059 -0.6850
68501SOL     OW15432  12.528  11.137  12.736 -0.1229  0.4579  0.0435
68501SOL    HW115433  12.471  11.061  12.744  0.0718  0.3244  0.1710
68501SOL    HW215434  12.551  11.160  12.826  1.4011 -0.5325 -0.0627
68502SOL     OW15435  11.620   3.080   0.440 -0.4558  0.1563  0.1008
68502SOL    HW115436  11.527   3.082   0.417 -0.3581  3.3145 -0.5857
68502SOL    HW215437  11.630   3.148   0.507  1.5017  0.6768 -0.6319
68503SOL     OW15438   1.471   7.289   8.661 -0.0882  0.0531 -0.1345
68503SOL    HW115439   1.496   7.376   8.630 -1.3490  0.9121  1.1352
68503SOL    HW215440   1.554   7.249   8.689  0.2164  2.0356  2.0613
68504SOL     OW15441  12.337  10.862   6.566  0.3505  0.5400 -0.1082
68504SOL    HW115442  12.310  10.775   6.594 -0.7164  0.4451 -1.3386
68504SOL    HW215443  12.422  10.849   6.523  1.3581  0.4962  1.8086
68505SOL     OW15444   6.364   7.598   7.373  0.1360 -0.0528 -0.2212
68505SOL    HW115445   6.291   7.552   7.414  2.8215 -2.4465  2.3816
68505SOL    HW215446   6.388   7.543   7.298  0.5562 -0.4376  0.1921
68506SOL     OW15447   9.687  12.513   3.120 -0.4360 -0.1565  0.2114
68506SOL    HW115448   9.698  12.515   3.025  1.9766 -1.4554  0.3725
68506SOL    HW215449   9.596  12.538   3.135 -1.1551 -0.8767 -2.4785
68507SOL     OW15450   1.757   6.740   1.056 -0.0073  0.0934 -0.4021
68507SOL    HW115451   1.708   6.683   1.116 -0.8884 -0.5854 -1.7228
68507SOL    HW215452   1.738   6.829   1.087  1.0060 -0.2665  1.3970
68508SOL     OW15453   7.174  11.691   8.136 -0.0791 -0.0518  0.7918
68508SOL    HW115454   7.113  11.727   8.200  0.7796 -2.1241  2.9440
68508SOL    HW215455   7.261  11.718   8.167  0.3700 -1.2534  0.6531
68509SOL     OW15456  12.753   4.201   3.950 -0.4502  0.4506 -0.6582
68509SOL    HW115457  12.782   4.279   3.997 -0.1564  0.1648 -0.3666
68509SOL    HW215458  12.826   4.181   3.891  0.1541 -0.5286  0.3876
68510SOL     OW15459   8.681   8.628   7.130 -0.2483  0.4385 -0.0454
68510SOL    HW115460   8.742   8.626   7.204  0.4458 -0.1040 -0.6217
68510SOL    HW215461   8.600   8.663   7.167 -0.0321 -0.1956  1.0686
68511SOL     OW15462   0.949  13.146  12.522 -0.3172 -0.5543 -0.0398
68511SOL    HW115463   0.974  13.054  12.516  0.6759 -0.2406 -1.3742
68511SOL    HW215464   1.031  13.191  12.546 -0.9516 -0.0797  1.3265
68512SOL     OW15465  12.028   7.559   0.775  0.6538  0.7929 -0.4864
68512SOL    HW115466  12.102   7.619   0.773  2.6206 -1.2159  2.8818
68512SOL    HW215467  12.024   7.522   0.686  1.9744  2.8000 -1.4462
68513SOL     OW15468   1.908   1.262   7.399 -0.4159  0.0888 -0.4851
68513SOL    HW115469   1.831   1.231   7.352 -1.1844  0.9411  0.1624
68513SOL    HW215470   1.925   1.348   7.362  1.1364 -0.6675 -1.6322
68514SOL     OW15471  12.446   8.262   3.359  0.4215  0.3184  0.5915
68514SOL    HW115472  12.505   8.188   3.374  2.1039  1.8288  1.8307
68514SOL    HW215473  12.391   8.265   3.437  0.1851  0.2317  0.4282
68515SOL     OW15474   7.490   4.500  11.911 -0.1189 -0.0491 -0.4698
68515SOL    HW115475   7.511   4.554  11.987 -1.5762 -1.1975  0.8137
68515SOL    HW215476   7.574   4.489  11.865  0.9597  0.0538  1.3846
68516SOL     OW15477   2.007   0.779  10.908  0.0039  0.1986  0.1394
68516SOL    HW115478   2.082   0.719  10.903  0.0959  0.2235  1.0369
68516SOL    HW215479   1.942   0.741  10.848 -0.1278 -1.0853  1.0411
68517SOL     OW15480  10.151   0.263  12.911 -0.0238 -0.0596  0.2743
68517SOL    HW115481  10.105   0.327  12.857 -1.2872 -1.5142 -0.4436
68517SOL    HW215482  10.099   0.257  12.991  1.1674  1.1851  1.1873
68518SOL     OW15483   2.296   7.836   2.416  0.0724  0.5073  0.2064
68518SOL    HW115484   2.251   7.913   2.450  0.4968  0.3412  1.1831
68518SOL    HW215485   2.237   7.801   2.349  0.3998  2.3171 -1.0710
68519SOL     OW15486   6.327  13.054   7.997 -0.2335  0.0725  0.2227
68519SOL    HW115487   6.282  12.973   7.973 -0.1787  0.0948  0.0408
68519SOL    HW215488   6.412  13.048   7.954 -0.1631  0.1479  0.3509
68520SOL     OW15489   6.480   2.283   5.951 -0.0306 -0.2289  0.1603
68520SOL    HW115490   6.418   2.269   5.880  0.4382  1.2930 -0.5899
68520SOL    HW215491   6.449   2.361   5.996  0.6352 -0.1784  0.5516
68521SOL     OW15492   8.565  10.063  12.311 -0.3365 -0.0194 -0.1225
68521SOL    HW115493   8.496  10.129  12.301 -0.0243  0.4779  0.8443
68521SOL    HW215494   8.636  10.092  12.254  0.5235  1.5207  1.6194
68522SOL     OW15495  12.288   1.958  11.105 -0.4675 -0.5037  0.7877
68522SOL    HW115496  12.226   2.014  11.151 -0.7053  0.0940 -0.2429
68522SOL    HW215497  12.368   1.963  11.158 -2.0325 -3.7277  3.9494
68523SOL     OW15498   2.826   2.220   3.314 -0.1430 -0.3441 -0.2235
68523SOL    HW115499   2.741   2.259   3.336  0.2041 -0.7330  2.1177
68523SOL    HW215500   2.833   2.144   3.373  1.7759 -0.3667 -0.4330
68524SOL     OW15501   8.118  11.383   4.185  0.8334  0.7236 -0.6840
68524SOL    HW115502   8.033  11.362   4.225  2.1336 -1.0333  1.4336
68524SOL    HW215503   8.145  11.465   4.227 -0.0305  1.6221 -1.8206
68525SOL     OW15504   9.307   2.483  11.925 -0.2518  0.2056  0.1295
68525SOL    HW115505   9.370   2.515  11.861 -0.9301 -0.5838 -0.9611
68525SOL    HW215506   9.314   2.545  11.998  0.8572  0.8618 -0.5025
68526SOL     OW15507  11.541   8.824   9.418  0.1595  0.1637  0.0967
68526SOL    HW115508  11.466   8.810   9.361 -1.7697 -1.1893  2.7726
68526SOL    HW215509  11.603   8.755   9.395 -0.0025  0.4171 -1.1596
68527SOL     OW15510   5.613   3.461  12.041 -0.1459  0.5374  0.1265
68527SOL    HW115511   5.548   3.527  12.066 -0.8573  0.1977 -0.7994
68527SOL    HW215512   5.564   3.397  11.990  0.7875 -0.0769 -0.0183
68528SOL     OW15513  10.333   0.073   0.698 -0.5076 -0.0685  0.2187
68528SOL    HW115514  10.248   0.049   0.733 -0.1931  0.0046  1.0544
68528SOL    HW215515  10.387  -0.006   0.706 -1.0232 -0.7453 -2.1356
68529SOL     OW15516   0.249  11.035   9.540 -0.4312 -0.2919 -0.5298
68529SOL    HW115517   0.158  11.004   9.538  0.1778 -2.6395  1.9565
68529SOL    HW215518   0.290  10.994   9.464 -0.6829 -2.2691  0.3283
68530SOL     OW15519   4.266   8.450  11.051 -0.1645  0.0167 -0.3326
68530SOL    HW115520   4.221   8.486  10.975  3.1054  1.5214 -1.7382
68530SOL    HW215521   4.226   8.494  11.126 -0.5008  1.8914 -1.5548
68531SOL     OW15522   3.946  11.666   1.044 -0.4028 -0.4854 -0.4720
68531SOL    HW115523   3.956  11.751   1.001  2.3740 -0.4682  0.0168
68531SOL    HW215524   4.012  11.666   1.114 -2.9375 -1.5782  2.1010
68532SOL     OW15525   2.158   1.515   5.135 -0.4700  0.2333  0.3628
68532SOL    HW115526   2.133   1.422   5.142  0.4482 -0.3737 -2.9272
68532SOL    HW215527   2.110   1.558   5.206  0.5291 -2.9781  3.2606
68533SOL     OW15528   6.399   9.439   8.297  0.4915 -0.1314 -0.0768
68533SOL    HW115529   6.410   9.358   8.347 -0.2841 -0.6452 -0.7005
68533SOL    HW215530   6.360   9.501   8.358  1.3929 -0.1196  0.4997
68534SOL     OW15531   4.498   4.184  10.275  0.2869  0.0603  0.7152
68534SOL    HW115532   4.423   4.157  10.222 -0.1415  1.3170  0.6418
68534SOL    HW215533   4.460   4.228  10.351  0.9166  1.4947  0.2525
68535SOL     OW15534   8.156   3.794  12.605 -0.0579 -0.0242  1.0123
68535SOL    HW115535   8.111   3.872  12.637 -0.7209  0.2685 -0.5849
68535SOL    HW215536   8.088   3.727  12.602 -0.2197  0.1747 -0.5262
68536SOL     OW15537  11.127   9.186   8.888 -0.4178 -0.0671 -0.0959
68536SOL    HW115538  11.042   9.179   8.845 -0.3836 -0.2977 -0.1313
68536SOL    HW215539  11.189   9.152   8.823 -0.5695 -2.1997  0.7823
68537SOL     OW15540   1.549   3.369   1.138  0.0858 -0.4274  0.0107
68537SOL    HW115541   1.524   3.456   1.109  0.7325 -0.0071  0.6660
68537SOL    HW215542   1.475   3.313   1.116  0.1000  0.0793 -1.3677
68538SOL     OW15543  10.407   8.966  11.840 -0.4019 -0.1403 -0.2515
68538SOL    HW115544  10.446   9.041  11.795  2.0983 -1.6951 -0.8533
68538SOL    HW215545  10.353   8.923  11.774 -0.1324 -0.0336 -0.5460
68539SOL     OW15546   0.484   4.619   8.893  0.4529 -0.2683 -0.5213
68539SOL    HW115547   0.399   4.579   8.908  0.1552  1.1624  2.2748
68539SOL    HW215548   0.547   4.553   8.921  0.2966 -0.9987 -1.7813
68540SOL     OW15549   0.011   0.860   5.849 -0.2906  0.6895  0.5700
68540SOL    HW115550   0.103   0.857   5.823 -0.6185  0.4419 -0.6011
68540SOL    HW215551  -0.038   0.863   5.767 -1.3563  0.2461  1.1611
68541SOL     OW15552   8.743   1.693   1.353 -0.0284  0.0505 -0.1604
68541SOL    HW115553   8.681   1.747   1.403  1.2949  0.4014  1.1751
68541SOL    HW215554   8.758   1.741   1.272 -2.3005 -0.5761 -1.0282
68542SOL     OW15555  12.212   4.555   1.198  0.1588  0.1300 -0.4590
68542SOL    HW115556  12.132   4.507   1.180  0.7134 -0.8606 -0.3518
68542SOL    HW215557  12.245   4.580   1.112 -0.6607  1.2248 -0.4684
68543SOL     OW15558  12.576   7.083  10.250  0.2119 -0.4513 -0.5025
68543SOL    HW115559  12.646   7.075  10.186  0.5835 -3.2802  0.1087
68543SOL    HW215560  12.598   7.019  10.318 -1.7077  0.3153  0.9421
68544SOL     OW15561  10.995  10.109   0.871  0.6541  0.7481 -0.7220
68544SOL    HW115562  11.080  10.152   0.875  0.0899  1.8188  0.1379
68544SOL    HW215563  10.932  10.178   0.888 -0.2340 -0.5619  1.9665
68545SOL     OW15564   3.115   6.873  13.277  0.2566 -0.6183  0.8180
68545SOL    HW115565   3.158   6.925  13.208  0.0887  0.5680  1.5772
68545SOL    HW215566   3.163   6.895  13.357 -0.8185 -0.4341  1.4203
68546SOL     OW15567   8.907   3.449   7.194 -0.3963  0.2118  0.6524
68546SOL    HW115568   8.931   3.448   7.101  1.0634  0.8462  0.9919
68546SOL    HW215569   8.811   3.452   7.194 -0.4751 -1.0988 -0.8052
68547SOL     OW15570   3.736  10.840   9.492  0.6495  0.1378 -0.2077
68547SOL    HW115571   3.664  10.862   9.551  0.3762 -0.3916 -0.3373
68547SOL    HW215572   3.705  10.764   9.443  1.5154 -0.4813  0.1565
68548SOL     OW15573   2.929   6.221  11.509 -0.4361 -0.4859 -0.4591
68548SOL    HW115574   3.022   6.239  11.520 -0.5035  0.2467 -0.9660
68548SOL    HW215575   2.925   6.135  11.469  0.0203 -0.5268 -0.4195
68549SOL     OW15576   1.455  11.576   8.435 -0.2316 -0.3274 -0.8219
68549SOL    HW115577   1.491  11.641   8.374 -1.4076  1.3418  0.1932
68549SOL    HW215578   1.445  11.623   8.518 -1.4008 -1.7180 -0.1302
68550SOL     OW15579   1.481   9.348   7.311  0.0248  0.1579 -0.7212
68550SOL    HW115580   1.440   9.401   7.242  1.2825  0.1526 -1.5089
68550SOL    HW215581   1.568   9.387   7.322  1.0894 -1.8502 -1.4833
68551SOL     OW15582   2.957   8.511   2.866 -0.4403  0.0372  0.2228
68551SOL    HW115583   3.016   8.438   2.845  0.1713  0.3767  0.7463
68551SOL    HW215584   2.974   8.530   2.958 -2.0568 -0.4779  0.6775
68552SOL     OW15585   6.578   7.753   6.538  0.1747 -0.0921 -0.2423
68552SOL    HW115586   6.625   7.812   6.597  0.2123 -0.3807  0.0172
68552SOL    HW215587   6.565   7.673   6.589  0.2426 -0.3576 -0.6355
68553SOL     OW15588  12.889   2.768   1.623 -0.0801  0.2014  0.4295
68553SOL    HW115589  12.872   2.798   1.713 -0.3592 -1.4767  0.9785
68553SOL    HW215590  12.942   2.837   1.584  1.0314  0.4742  2.2785
68554SOL     OW15591   2.006   3.209   2.611 -0.0316 -0.4291 -0.5654
68554SOL    HW115592   1.941   3.142   2.591  1.7353 -1.7713 -2.1797
68554SOL    HW215593   2.032   3.244   2.525  1.2811  0.1376  0.0293
68555SOL     OW15594   7.458   9.425  12.970 -1.4166  0.1538 -0.0333
68555SOL    HW115595   7.508   9.453  13.047 -1.4834  0.9745 -0.2833
68555SOL    HW215596   7.432   9.506  12.927  0.8932 -0.2342 -2.4421
68556SOL     OW15597   6.234   7.522   1.797  0.2380  0.1858 -0.1368
68556SOL    HW115598   6.268   7.434   1.777  0.9433  0.5720 -0.6908
68556SOL    HW215599   6.304   7.581   1.770 -0.2980  0.9344  0.0837
68557SOL     OW15600   0.585   9.772   0.944  0.6967  0.3200  0.1734
68557SOL    HW115601   0.623   9.798   1.028  1.3649 -0.1971  0.0381
68557SOL    HW215602   0.541   9.851   0.912  1.7193  0.9580  0.2999
68558SOL     OW15603   8.732   9.095   2.068  0.6472 -0.2056 -0.1339
68558SOL    HW115604   8.682   9.154   2.012 -1.0579  0.1033  1.5893
68558SOL    HW215605   8.798   9.150   2.109  1.3732 -0.2693 -1.1855
68559SOL     OW15606  11.580   1.700   1.221  0.0016 -0.4899  0.9643
68559SOL    HW115607  11.542   1.728   1.304 -0.2200 -1.5123  1.2195
68559SOL    HW215608  11.505   1.691   1.162  0.1939  0.6092  0.5176
68560SOL     OW15609   8.940  10.698   0.147 -0.4354 -0.5031 -0.8036
68560SOL    HW115610   9.023  10.725   0.107  0.1107 -1.4959 -0.3545
68560SOL    HW215611   8.950  10.718   0.240 -0.1309 -1.9614 -0.5103
68561SOL     OW15612   5.286  11.082  12.588 -0.7474 -0.1471  0.2125
68561SOL    HW115613   5.242  11.028  12.653  0.1686  0.1673  1.1255
68561SOL    HW215614   5.260  11.172  12.609 -1.3394 -0.1214 -0.5730
68562SOL     OW15615   2.651   7.513  12.712  0.2996 -0.2706 -0.6139
68562SOL    HW115616   2.672   7.447  12.778 -0.5133  0.1048  0.0419
68562SOL    HW215617   2.649   7.464  12.629 -2.2752 -1.5373  0.0841
68563SOL     OW15618  12.307   9.674   2.285 -0.3926  0.1399 -0.2665
68563SOL    HW115619  12.246   9.607   2.254 -0.0499  0.0926 -0.8512
68563SOL    HW215620  12.308   9.740   2.216  0.7427 -0.1956 -0.5964
68564SOL     OW15621   1.580   0.858   3.537 -0.1897 -0.4424 -0.1191
68564SOL    HW115622   1.636   0.814   3.473  0.1321  1.4701 -1.2301
68564SOL    HW215623   1.600   0.951   3.526 -2.6093  0.2029  0.3654
68565SOL     OW15624  11.066   4.098   6.772 -0.3913 -0.0323 -0.0100
68565SOL    HW115625  11.109   4.070   6.691 -1.9396 -0.6767 -0.6387
68565SOL    HW215626  11.035   4.186   6.753  1.6331  0.9481  0.8690
68566SOL     OW15627   9.419  12.412   0.282  0.9857  0.1934  0.2140
68566SOL    HW115628   9.418  12.506   0.268 -1.7527  0.3327  0.8028
68566SOL    HW215629   9.391  12.401   0.373  1.2422 -1.2055  0.1540
68567SOL     OW15630   6.711   4.660   1.704 -0.4489 -0.4628  0.1257
68567SOL    HW115631   6.795   4.691   1.669 -0.2487 -0.5641  0.5115
68567SOL    HW215632   6.718   4.564   1.699 -0.7960 -0.4638 -0.4352
68568SOL     OW15633  10.129   1.489  11.208  0.0770  0.1478 -0.2244
68568SOL    HW115634  10.145   1.520  11.119  0.5771  1.0277  0.1575
68568SOL    HW215635  10.201   1.526  11.260 -1.8678  2.3338  1.1397
68569SOL     OW15636  11.546   0.892  12.650  0.7036 -0.6469  0.3485
68569SOL    HW115637  11.485   0.862  12.583  0.7151  0.8723 -0.3940
68569SOL    HW215638  11.631   0.894  12.606  0.6821  0.5294  0.3227
68570SOL     OW15639   2.349   7.668   8.041 -0.3783 -0.1038  1.0369
68570SOL    HW115640   2.300   7.590   8.014  0.1509  0.4832 -2.0258
68570SOL    HW215641   2.436   7.636   8.064 -0.2004 -0.4626 -0.0950
68571SOL     OW15642   0.959   5.485   5.843  0.2268  0.1265  0.1041
68571SOL    HW115643   0.947   5.574   5.810 -0.8282 -0.8519 -2.4068
68571SOL    HW215644   0.947   5.492   5.937  1.7247  2.8655  0.1681
68572SOL     OW15645   5.682   4.414   6.242 -0.1125  0.5987  0.2734
68572SOL    HW115646   5.586   4.418   6.243 -0.3073 -2.2882  0.9625
68572SOL    HW215647   5.703   4.368   6.161  0.7498  1.3477  0.0469
68573SOL     OW15648  11.158   4.801   0.986 -0.3387  0.2586  0.1928
68573SOL    HW115649  11.173   4.770   0.896  0.3010 -1.3208  0.8140
68573SOL    HW215650  11.213   4.879   0.994 -0.5508  0.5305 -0.8461
68574SOL     OW15651  11.352   0.005   9.791  0.4758  0.3345 -0.3498
68574SOL    HW115652  11.372  -0.089   9.793  1.9440  0.5453 -2.5594
68574SOL    HW215653  11.265   0.011   9.831  0.5325 -1.9020  0.2606
68575SOL     OW15654   6.752   6.536   7.194 -0.1168 -0.5351  0.2060
68575SOL    HW115655   6.847   6.546   7.205  0.1856 -2.2542 -0.5491
68575SOL    HW215656   6.739   6.531   7.099 -0.8747 -1.1128  0.3341
68576SOL     OW15657  11.891   3.010   0.536  1.1181 -0.3079 -0.1841
68576SOL    HW115658  11.804   3.042   0.512  0.3210 -0.5081  2.1187
68576SOL    HW215659  11.938   3.089   0.563  2.3261  0.0527 -3.0124
68577SOL     OW15660   7.694  10.079   2.102 -0.2131  0.2012  0.3077
68577SOL    HW115661   7.745  10.103   2.179  1.3706  0.2633 -0.7188
68577SOL    HW215662   7.618  10.032   2.136 -0.0163  1.0285  1.9475
68578SOL     OW15663   1.945   2.779   1.722 -0.0032 -0.2151 -0.5280
68578SOL    HW115664   1.956   2.696   1.768 -0.9921 -0.1514 -0.1394
68578SOL    HW215665   1.855   2.805   1.741  0.8572  1.9515  1.0075
68579SOL     OW15666   2.625   3.653   3.323 -0.1420  0.6842 -0.5965
68579SOL    HW115667   2.610   3.596   3.248  1.2024 -2.0427  1.0346
68579SOL    HW215668   2.539   3.664   3.363 -0.2923 -1.1696 -0.3456
68580SOL     OW15669   1.384   8.618   4.747  0.4496  0.1327 -0.0545
68580SOL    HW115670   1.299   8.647   4.713 -0.3331  1.6584  2.8540
68580SOL    HW215671   1.426   8.699   4.776  2.0371 -0.8281  0.3942
68581SOL     OW15672   9.510  10.188   2.073 -0.5877  0.0270 -0.1100
68581SOL    HW115673   9.585  10.144   2.033  0.4753 -0.3068  2.1020
68581SOL    HW215674   9.539  10.279   2.086 -0.2375 -0.2667  1.3945
68582SOL     OW15675   6.700   2.032  13.310  0.5213 -0.2147 -0.4027
68582SOL    HW115676   6.714   2.080  13.392 -1.6127  2.1664 -1.2913
68582SOL    HW215677   6.784   2.041  13.264  1.2538 -0.2530  0.8495
68583SOL     OW15678  10.109   2.832   1.219  0.1796 -0.3724 -0.0576
68583SOL    HW115679  10.078   2.880   1.296  2.5483  0.9855  0.1481
68583SOL    HW215680  10.029   2.809   1.171 -1.2230  0.9635  1.5088
68584SOL     OW15681  10.411   3.346   0.072 -0.2694  0.2426  0.1370
68584SOL    HW115682  10.361   3.386   0.001  0.6040 -0.6055 -0.9738
68584SOL    HW215683  10.352   3.281   0.110 -0.9368  1.0867  0.5810
68585SOL     OW15684  11.704   7.933  12.502 -0.0963  0.0768  0.5207
68585SOL    HW115685  11.793   7.925  12.535  0.1413  0.0120 -0.1266
68585SOL    HW215686  11.664   8.001  12.557 -0.4895 -1.7038  2.5914
68586SOL     OW15687  10.016  10.910   9.764  0.4662 -0.5912  0.2618
68586SOL    HW115688   9.925  10.931   9.745  0.5123 -0.4319  0.2146
68586SOL    HW215689  10.028  10.935   9.856  0.8531  0.7546 -0.1263
68587SOL     OW15690   1.421   1.548  11.730  0.5494 -0.1588 -0.2386
68587SOL    HW115691   1.482   1.475  11.730 -0.2773 -0.8619 -0.4145
68587SOL    HW215692   1.477   1.626  11.719  1.6775 -0.5005  2.3808
68588SOL     OW15693   8.352   8.829   1.543 -0.0652 -0.5066 -0.2779
68588SOL    HW115694   8.428   8.883   1.564  0.2465 -0.4370 -1.5170
68588SOL    HW215695   8.337   8.777   1.623 -0.5227  1.5248  1.0246
68589SOL     OW15696  12.997   6.242   4.786 -0.1229  0.0146  0.2305
68589SOL    HW115697  13.054   6.296   4.730  0.8762 -1.0703  0.1762
68589SOL    HW215698  13.006   6.281   4.873  2.2033 -1.1986  0.6251
68590SOL     OW15699   2.324   1.303   3.773  0.1899 -0.1337  0.6340
68590SOL    HW115700   2.350   1.368   3.707 -2.5135 -0.0984 -0.5012
68590SOL    HW215701   2.374   1.328   3.851 -0.3378  3.0571  0.1041
68591SOL     OW15702   4.149  10.062   7.510 -0.3782  0.6148 -0.1691
68591SOL    HW115703   4.152   9.974   7.548  0.8890  0.8730  0.3650
68591SOL    HW215704   4.056  10.086   7.515 -0.3459  0.4829  2.4784
68592SOL     OW15705  12.751   6.521   5.401 -0.2117  0.0937  0.3035
68592SOL    HW115706  12.827   6.478   5.440 -0.1288 -0.6850 -0.6763
68592SOL    HW215707  12.676   6.486   5.449  0.0520  1.3994  1.7653
68593SOL     OW15708  10.154   6.777   7.878 -0.1057 -0.2692  0.4358
68593SOL    HW115709  10.195   6.741   7.957 -4.0476 -0.0429  2.8776
68593SOL    HW215710  10.110   6.702   7.838 -1.6761  0.3352  0.9612
68594SOL     OW15711   1.658   7.182  12.569  0.1847  0.2209  0.0335
68594SOL    HW115712   1.748   7.211  12.555  0.0471  0.9237  0.5629
68594SOL    HW215713   1.612   7.260  12.598 -0.6590 -0.0753 -0.4855
68595SOL     OW15714   8.869   9.251   9.235  0.2877 -0.2204  0.1299
68595SOL    HW115715   8.905   9.295   9.158 -0.0901  1.5247  0.8964
68595SOL    HW215716   8.775   9.246   9.217  0.1779  0.3258  0.5084
68596SOL     OW15717   8.398  13.224  12.441  0.1091  0.2812 -0.6411
68596SOL    HW115718   8.422  13.179  12.521  0.6802 -0.9512 -1.4677
68596SOL    HW215719   8.442  13.309  12.446  1.0610 -0.2252 -0.1446
68597SOL     OW15720   4.038   8.401  10.633  0.0134  0.1535 -0.3310
68597SOL    HW115721   4.086   8.353  10.565  1.5193  2.3887 -0.9280
68597SOL    HW215722   4.033   8.339  10.706  1.2619 -1.1537 -1.2809
68598SOL     OW15723   2.734   1.705   8.995 -0.0394  0.6739  0.1291
68598SOL    HW115724   2.653   1.654   8.986  0.1255  0.6142 -1.3435
68598SOL    HW215725   2.740   1.754   8.913  2.0807 -0.3237 -0.3760
68599SOL     OW15726   2.612   8.190  10.624  0.7649 -0.3390 -0.1345
68599SOL    HW115727   2.594   8.283  10.637  0.7259 -0.2632 -0.6807
68599SOL    HW215728   2.699   8.177  10.662  0.7588 -0.0849 -0.0299
68600SOL     OW15729   9.672  11.571   5.086  0.3058 -0.4157 -0.5316
68600SOL    HW115730   9.652  11.664   5.074 -0.5755 -0.3713  1.0304
68600SOL    HW215731   9.767  11.568   5.098  0.5302  0.0945 -1.9242
68601SOL     OW15732   7.241   0.340   8.429  0.0104  0.1063  0.3785
68601SOL    HW115733   7.311   0.321   8.491  2.5614 -0.9766 -2.5701
68601SOL    HW215734   7.218   0.254   8.392 -1.1618  0.7407 -0.4177
68602SOL     OW15735   3.407   5.442   6.793 -0.0736  0.4195  0.6945
68602SOL    HW115736   3.473   5.375   6.773 -1.6344 -0.5981 -1.4682
68602SOL    HW215737   3.401   5.442   6.889  2.3310 -0.1318  0.9078
68603SOL     OW15738   8.821   3.813   2.397 -0.2092  0.2584 -0.0678
68603SOL    HW115739   8.822   3.868   2.475 -0.5382  0.3383 -0.1225
68603SOL    HW215740   8.867   3.864   2.330 -0.0280  0.2367  0.0382
68604SOL     OW15741   3.945  11.833   4.417  0.3202 -0.0038  0.0900
68604SOL    HW115742   4.036  11.805   4.414 -0.0111 -1.1125 -0.0974
68604SOL    HW215743   3.948  11.929   4.409  1.4302 -0.0775 -0.4712
68605SOL     OW15744  10.816  12.019   6.415 -0.3149  1.0774  0.8473
68605SOL    HW115745  10.855  11.935   6.391 -2.7533  0.3452 -0.9240
68605SOL    HW215746  10.877  12.084   6.382  0.8726  0.0253  0.8802
68606SOL     OW15747   5.126   9.143   5.035 -0.6960 -0.2839 -0.5351
68606SOL    HW115748   5.039   9.177   5.012 -0.7592  1.0557  1.4423
68606SOL    HW215749   5.137   9.168   5.127  1.2553 -1.5875 -0.3862
68607SOL     OW15750  11.762  11.437   9.198 -0.7377  0.2348  0.1287
68607SOL    HW115751  11.847  11.478   9.183 -1.0730  1.2038  0.7254
68607SOL    HW215752  11.753  11.373   9.128 -0.3011  1.3834 -1.0178
68608SOL     OW15753   5.684   0.142   5.207  0.8443  0.2398 -0.6212
68608SOL    HW115754   5.760   0.180   5.251  2.2918 -1.0829 -1.8617
68608SOL    HW215755   5.687   0.049   5.231 -0.0136  0.0600 -1.1960
68609SOL     OW15756  11.190   2.480   0.303 -0.1312 -0.0179  0.0553
68609SOL    HW115757  11.134   2.549   0.339  1.6570  1.6199 -0.0807
68609SOL    HW215758  11.198   2.416   0.374  1.9245  2.2955  2.1447
68610SOL     OW15759   8.468   2.079   3.270  0.0159 -0.3801 -0.7065
68610SOL    HW115760   8.534   2.013   3.290  0.3358 -0.3122 -1.5070
68610SOL    HW215761   8.400   2.030   3.223  0.0707 -0.2136 -0.9579
68611SOL     OW15762  13.275   3.653   7.949 -0.1873  0.1950 -0.2460
68611SOL    HW115763  13.195   3.648   8.002 -0.5046  1.7998 -0.4955
68611SOL    HW215764  13.249   3.705   7.873  0.7582 -0.4368 -1.0202
68612SOL     OW15765  12.095   5.772   0.002  0.3474 -0.9003 -0.1469
68612SOL    HW115766  12.142   5.793   0.082  0.2161  1.5500 -0.6177
68612SOL    HW215767  12.160   5.780  -0.067  0.0131 -0.9045 -0.4667
68613SOL     OW15768  12.369  10.922   3.960  0.6622 -0.2586 -0.6244
68613SOL    HW115769  12.360  10.862   3.886 -1.0939  1.8133 -2.1928
68613SOL    HW215770  12.407  11.001   3.923 -1.3590  1.2772  0.3825
68614SOL     OW15771   5.958   6.731   7.723 -0.8476  0.1403 -0.0671
68614SOL    HW115772   6.018   6.658   7.737  0.8815  1.5686  0.3666
68614SOL    HW215773   5.879   6.691   7.687  0.7684 -1.7149 -1.7963
68615SOL     OW15774   1.984  10.040   2.862 -0.3368  0.1902 -0.4073
68615SOL    HW115775   2.051  10.108   2.862 -1.3909  1.3242  1.8431
68615SOL    HW215776   2.013   9.977   2.796  2.7113  0.8141  0.2255
68616SOL     OW15777   6.937   4.234   0.806 -0.4834 -0.1265 -0.3183
68616SOL    HW115778   6.926   4.321   0.766  0.7274  0.6256  0.9051
68616SOL    HW215779   6.994   4.187   0.745 -0.2771  0.3136 -0.4722
68617SOL     OW15780   8.539   9.644   2.289 -0.2164 -0.2228  0.3377
68617SOL    HW115781   8.545   9.637   2.194  0.9843  0.2796  0.3580
68617SOL    HW215782   8.568   9.559   2.322 -1.1240 -0.5762  0.2595
68618SOL     OW15783   7.725  12.459  12.447 -0.1651  0.3057  0.1666
68618SOL    HW115784   7.778  12.389  12.487 -1.1045  1.2875  3.4469
68618SOL    HW215785   7.769  12.540  12.474 -1.0924  1.0463 -0.5150
68619SOL     OW15786   7.938  11.103   0.710 -0.3050  0.1660 -0.1892
68619SOL    HW115787   7.910  11.103   0.619 -0.2315  0.9230 -0.2193
68619SOL    HW215788   8.029  11.074   0.708 -0.4095 -0.1579 -0.3153
68620SOL     OW15789  11.618  11.119   8.595  0.4633 -0.1827  0.4929
68620SOL    HW115790  11.549  11.158   8.541 -0.6929  0.5399  2.3821
68620SOL    HW215791  11.581  11.038   8.627  0.4301  0.2581  1.6056
68621SOL     OW15792   2.115   1.176   3.896  0.4831 -0.0529  0.1292
68621SOL    HW115793   2.049   1.244   3.912  0.8811  0.5271 -0.6127
68621SOL    HW215794   2.176   1.216   3.834  1.2957 -0.7373  0.4695
68622SOL     OW15795   2.645  12.329   4.164 -0.1649 -0.2520  0.3362
68622SOL    HW115796   2.727  12.279   4.165  0.1338  0.2023 -0.0866
68622SOL    HW215797   2.666  12.409   4.212  0.1105  0.5343 -1.0136
68623SOL     OW15798  10.265   9.249   1.398  0.1334  0.7259 -0.3250
68623SOL    HW115799  10.271   9.207   1.312  0.7072 -1.0208  0.5039
68623SOL    HW215800  10.200   9.317   1.388  0.0025  0.3844 -2.0775
68624SOL     OW15801   5.413   9.675   8.000  0.2742  0.4115  0.0643
68624SOL    HW115802   5.413   9.589   7.959 -3.2850  0.0073  0.5958
68624SOL    HW215803   5.489   9.674   8.058 -0.2677 -2.8229  0.9020
68625SOL     OW15804  10.284   9.627   1.554 -0.4077 -0.3077 -0.3925
68625SOL    HW115805  10.341   9.577   1.496  0.9122  0.7494 -0.0618
68625SOL    HW215806  10.343   9.687   1.599 -1.8316  1.0923 -0.2998
68626SOL     OW15807  10.840   8.110   6.653  1.0915 -0.0584  0.0107
68626SOL    HW115808  10.780   8.184   6.656  1.5989  0.3206  1.7276
68626SOL    HW215809  10.868   8.106   6.561  1.7122  2.4265  0.0176
68627SOL     OW15810   7.073   2.133   2.960 -0.0826 -0.2377  0.5403
68627SOL    HW115811   7.032   2.086   3.033 -0.4437  0.0945  0.5475
68627SOL    HW215812   7.008   2.131   2.890 -0.0925  0.2507  0.5381
68628SOL     OW15813   5.220   7.486  10.377  0.1586 -0.0811  0.0837
68628SOL    HW115814   5.161   7.416  10.404 -0.2928  1.0288  2.2510
68628SOL    HW215815   5.172   7.532  10.307 -0.4242 -0.7096  0.0565
68629SOL     OW15816   2.056  10.193   3.285 -0.1953  0.4650  0.2282
68629SOL    HW115817   2.078  10.124   3.347 -1.5017 -0.8199 -0.6583
68629SOL    HW215818   2.049  10.272   3.338 -2.2105 -0.7465  1.9181
68630SOL     OW15819   3.893  10.718   9.684 -0.5455 -0.0675  0.5395
68630SOL    HW115820   3.856  10.754   9.603  2.7728  1.3876 -0.4959
68630SOL    HW215821   3.912  10.795   9.738  0.1280 -0.8137  1.3865
68631SOL     OW15822   5.382   6.737   5.500 -0.4372 -0.8339 -0.7933
68631SOL    HW115823   5.471   6.746   5.535 -0.9195 -1.1474  0.5943
68631SOL    HW215824   5.393   6.682   5.422  0.4980 -1.6064 -0.1524
68632SOL     OW15825   3.280   8.950   1.234 -0.8280 -0.1674  0.1494
68632SOL    HW115826   3.264   8.874   1.289 -0.7049  1.5923  2.8023
68632SOL    HW215827   3.361   8.930   1.189 -0.6868 -1.5213  0.9462
68633SOL     OW15828   9.553   4.680   5.565 -0.6118 -0.0346  0.3446
68633SOL    HW115829   9.646   4.701   5.554 -0.6560 -0.9446 -2.3930
68633SOL    HW215830   9.508   4.763   5.552 -0.2386  0.5637  2.3791
68634SOL     OW15831   6.668   2.391   4.954  0.0578 -0.2273 -0.6322
68634SOL    HW115832   6.652   2.401   5.048 -1.6560 -0.9846 -0.8040
68634SOL    HW215833   6.581   2.389   4.915  0.7307 -0.4031 -2.1950
68635SOL     OW15834   7.949  13.015   5.165  0.5311  0.2610  0.1184
68635SOL    HW115835   7.919  12.941   5.218 -1.0159  0.6444 -0.1847
68635SOL    HW215836   8.032  12.986   5.129  0.0422 -1.2694  0.1452
68636SOL     OW15837   4.083   2.209   8.357  0.4574  0.4922  0.4236
68636SOL    HW115838   4.072   2.290   8.408 -0.7160  1.0856 -0.7400
68636SOL    HW215839   4.012   2.152   8.387  0.5849  0.3280  0.4143
68637SOL     OW15840   8.438   2.154  11.996 -0.3237  0.2379 -0.1473
68637SOL    HW115841   8.348   2.123  11.990  0.1664 -1.2952  0.0827
68637SOL    HW215842   8.438   2.237  11.947 -1.2920 -1.0055 -2.4128
68638SOL     OW15843   2.313  11.464  10.957 -0.0648  0.4128 -0.1202
68638SOL    HW115844   2.243  11.529  10.965  1.1215  1.7518 -0.2240
68638SOL    HW215845   2.295  11.402  11.027 -0.3319  1.7462  1.0440
68639SOL     OW15846   0.658  11.315   1.330 -0.2200  0.0236  0.0828
68639SOL    HW115847   0.675  11.406   1.354  2.2818 -0.2665 -0.3134
68639SOL    HW215848   0.745  11.274   1.327 -1.1632 -2.0775 -0.9466
68640SOL     OW15849   9.076  12.500   8.708 -0.5664 -0.2559  0.1178
68640SOL    HW115850   9.028  12.575   8.745 -2.7352 -0.5277 -1.9234
68640SOL    HW215851   9.051  12.499   8.616  2.2314 -1.4227 -0.7158
68641SOL     OW15852   4.379   2.900   4.993  0.0576 -0.5969  0.7392
68641SOL    HW115853   4.413   2.988   5.007 -0.7378 -0.4438  1.8985
68641SOL    HW215854   4.396   2.854   5.076 -2.7447 -0.3935  1.5566
68642SOL     OW15855   7.429  11.459   8.894 -0.3695 -0.1333  0.2504
68642SOL    HW115856   7.440  11.380   8.947  1.2719 -1.1188 -1.4202
68642SOL    HW215857   7.389  11.428   8.813  0.9825  0.5778 -0.7249
68643SOL     OW15858   8.432  13.307   7.904  0.0793  0.0497 -0.5856
68643SOL    HW115859   8.391  13.263   7.978 -1.0076  0.8624 -0.6768
68643SOL    HW215860   8.397  13.396   7.906 -0.2962 -0.0185 -2.2931
68644SOL     OW15861  11.332   2.369   3.427 -0.1787  0.1092 -0.1345
68644SOL    HW115862  11.332   2.280   3.391 -0.7442 -0.5564  1.4302
68644SOL    HW215863  11.252   2.375   3.478 -0.9363  2.0638 -1.4089
68645SOL     OW15864   9.944   8.988   8.136 -0.4062  0.2678 -0.1648
68645SOL    HW115865   9.873   9.048   8.111  1.4172  2.3118 -0.7046
68645SOL    HW215866  10.012   9.003   8.070 -0.5692 -3.9795 -1.6615
68646SOL     OW15867   1.926   4.362   8.740  0.4053 -0.9033 -0.0370
68646SOL    HW115868   1.898   4.385   8.829  0.1773 -0.9914 -0.0840
68646SOL    HW215869   1.857   4.303   8.708 -0.8324  1.0514 -1.1691
68647SOL     OW15870   0.662   4.168  11.560 -0.4880  0.5503 -0.1766
68647SOL    HW115871   0.652   4.219  11.640 -0.7888  1.5018 -0.8076
68647SOL    HW215872   0.592   4.103  11.564 -1.6048  1.7059 -0.4882
68648SOL     OW15873  12.219   8.078   9.704  0.3037 -0.0026 -0.5141
68648SOL    HW115874  12.252   8.062   9.793  0.8833 -0.3056 -0.7791
68648SOL    HW215875  12.275   8.024   9.648 -0.3230 -0.1251 -1.0265
68649SOL     OW15876   8.454   6.616  11.914  0.9495  0.0707  0.2647
68649SOL    HW115877   8.361   6.607  11.935  1.0166  0.5346  0.7863
68649SOL    HW215878   8.496   6.543  11.961  0.7325 -0.8505 -0.9065
68650SOL     OW15879   3.269  12.879   0.528  0.0614 -0.2720  0.4296
68650SOL    HW115880   3.230  12.810   0.581 -1.4509  0.2744  0.0851
68650SOL    HW215881   3.196  12.915   0.478  1.3249 -0.3764 -1.6195
68651SOL     OW15882  12.719   9.906   2.792 -0.3437  0.1986  0.0883
68651SOL    HW115883  12.721  10.001   2.803  0.6846  0.2511 -0.4976
68651SOL    HW215884  12.628   9.882   2.813 -0.7660  1.3707 -0.2954
68652SOL     OW15885  12.139   9.873  10.982 -0.0743  0.2131  0.2611
68652SOL    HW115886  12.158   9.813  11.055  0.9669  0.4154  0.1634
68652SOL    HW215887  12.198   9.846  10.912 -1.9880 -0.8677 -1.0425
68653SOL     OW15888   5.640   7.891   0.478 -0.5720  0.4425 -0.8896
68653SOL    HW115889   5.573   7.836   0.435 -0.8735  0.2071 -0.1381
68653SOL    HW215890   5.595   7.926   0.555  0.0169  0.7127 -0.6706
68654SOL     OW15891   9.517   7.831   8.019 -0.0970 -1.0370 -0.2935
68654SOL    HW115892   9.605   7.798   8.037 -0.1549 -0.4398  1.2575
68654SOL    HW215893   9.467   7.810   8.099 -0.4404  1.6595  0.2892
68655SOL     OW15894   6.004   9.295  11.626 -0.3692 -0.3304  0.2341
68655SOL    HW115895   6.022   9.338  11.542  0.9844 -4.4740 -1.8641
68655SOL    HW215896   5.912   9.268  11.619 -0.9533  1.2551  1.1792
68656SOL     OW15897  12.614  11.785   3.380  0.1892 -0.2597  0.0252
68656SOL    HW115898  12.565  11.841   3.441  1.2619  0.2642  0.4268
68656SOL    HW215899  12.550  11.763   3.312 -0.6414  0.3007  0.5984
68657SOL     OW15900   3.127   3.188  12.276 -0.3341 -0.6982  0.0376
68657SOL    HW115901   3.084   3.155  12.355  1.5695  0.8884  1.8728
68657SOL    HW215902   3.214   3.147  12.278 -0.1307 -0.3408 -1.0486
68658SOL     OW15903  10.799   8.984   3.161  0.9912 -0.2954  0.0920
68658SOL    HW115904  10.714   8.942   3.167  0.8193  0.0359  0.0328
68658SOL    HW215905  10.826   8.997   3.252  1.5995 -1.6117  0.1228
68659SOL     OW15906   9.668   6.172   4.393  0.0740 -0.8709 -0.3947
68659SOL    HW115907   9.764   6.168   4.400  0.2963 -0.6792 -2.6922
68659SOL    HW215908   9.637   6.115   4.463  1.7953  0.2233  1.3822
68660SOL     OW15909   5.950  11.447   5.394 -0.1159 -0.1396  0.3393
68660SOL    HW115910   5.983  11.537   5.387  1.3903 -0.7721 -2.4113
68660SOL    HW215911   5.864  11.450   5.351  0.6696 -0.2885 -1.2973
68661SOL     OW15912   7.952   6.317   8.960  0.3341  0.0730 -0.4667
68661SOL    HW115913   7.893   6.304   8.886  0.4697 -2.5418 -0.2184
68661SOL    HW215914   7.909   6.271   9.033  2.3875 -1.5666 -0.1854
68662SOL     OW15915  11.253  11.306   0.182  0.3316 -0.1543 -0.6213
68662SOL    HW115916  11.210  11.382   0.222 -0.6555 -0.1645 -1.6099
68662SOL    HW215917  11.188  11.272   0.120  1.3195 -0.9107 -1.2733
68663SOL     OW15918   0.965  12.127   6.310  0.4453 -0.1830 -0.1521
68663SOL    HW115919   0.949  12.099   6.220 -0.0139  0.8641 -0.4011
68663SOL    HW215920   1.057  12.103   6.326  0.9552  0.8241 -1.3693
68664SOL     OW15921   3.160  11.759   3.470 -0.5427  0.0570 -0.5429
68664SOL    HW115922   3.082  11.802   3.505 -1.0286 -0.3504 -1.1102
68664SOL    HW215923   3.143  11.750   3.376  0.0878 -0.2398 -0.6370
68665SOL     OW15924   9.295   5.754   0.514 -0.0680  0.2159  0.4257
68665SOL    HW115925   9.268   5.713   0.596  1.8603  0.1381  1.0885
68665SOL    HW215926   9.285   5.685   0.448 -0.2737 -0.1777  0.8620
68666SOL     OW15927   3.543   8.073   9.743 -0.2405 -0.2568  0.4202
68666SOL    HW115928   3.457   8.041   9.771  0.0856 -2.7875 -1.1750
68666SOL    HW215929   3.606   8.017   9.789  0.5384  0.6602  0.5101
68667SOL     OW15930   8.607  12.593   8.158  0.0554  0.6122  0.1806
68667SOL    HW115931   8.523  12.573   8.118  0.2156 -2.2634  1.0560
68667SOL    HW215932   8.672  12.566   8.092  0.3057  0.8768  0.3133
68668SOL     OW15933   7.675   6.559  10.900  0.1893  0.0177 -0.4037
68668SOL    HW115934   7.624   6.624  10.853  0.4766 -0.0501 -0.8122
68668SOL    HW215935   7.760   6.601  10.914 -0.3828  0.6583  1.4626
68669SOL     OW15936  10.146  11.244   6.730 -0.2092  0.3557  0.0901
68669SOL    HW115937  10.223  11.192   6.751  0.7742  1.1768 -1.3039
68669SOL    HW215938  10.121  11.215   6.642 -2.6304 -1.1804  1.1829
68670SOL     OW15939   4.526   8.755   7.987 -0.0784  0.2068  0.7174
68670SOL    HW115940   4.585   8.687   7.953 -2.1474 -2.6183  2.3629
68670SOL    HW215941   4.438   8.721   7.972 -1.3309  3.2184  0.4117
68671SOL     OW15942   2.812   6.961   2.101 -0.1523  0.2070 -0.1001
68671SOL    HW115943   2.881   6.910   2.058  0.4440  0.6071  0.3611
68671SOL    HW215944   2.842   6.971   2.191 -0.5908  0.7928 -0.0116
68672SOL     OW15945  11.089   1.170   2.935 -0.1465 -0.5186 -0.2436
68672SOL    HW115946  11.151   1.130   2.997  1.1385  1.0034 -0.4826
68672SOL    HW215947  11.118   1.138   2.849 -0.6115 -0.9550 -0.2400
68673SOL     OW15948   5.287   7.753  12.416  0.1179  0.4703 -0.1700
68673SOL    HW115949   5.310   7.822  12.353  0.0374 -0.7928 -1.6269
68673SOL    HW215950   5.293   7.672  12.366  0.8593 -0.6711  1.6852
68674SOL     OW15951   8.695   1.012  11.673 -0.7954 -0.3292 -0.0044
68674SOL    HW115952   8.613   1.020  11.625 -1.2375 -0.7825  0.6520
68674SOL    HW215953   8.671   0.965  11.753 -0.2632  1.2680  1.1310
68675SOL     OW15954   9.776  10.699  11.542 -0.7998  0.2794 -0.1339
68675SOL    HW115955   9.822  10.735  11.466 -0.2755 -1.8277 -0.8545
68675SOL    HW215956   9.797  10.760  11.613  0.0657  1.3776 -1.2824
68676SOL     OW15957   4.138   9.255   6.252  0.0360  0.5023  0.8152
68676SOL    HW115958   4.157   9.330   6.195  0.8657  1.7952  2.6821
68676SOL    HW215959   4.045   9.238   6.239 -0.2165  1.9920  0.4930
68677SOL     OW15960   9.563  11.840   3.639  0.0457  0.4753 -0.0037
68677SOL    HW115961   9.524  11.787   3.569  0.4736 -1.2628  1.0023
68677SOL    HW215962   9.657  11.838   3.619  0.2179 -0.3863  0.8098
68678SOL     OW15963   3.028   4.337   6.393  0.2540 -0.0905 -0.0415
68678SOL    HW115964   3.011   4.378   6.308  1.5946  1.3208  0.3359
68678SOL    HW215965   3.090   4.267   6.374  2.3659  1.6687  0.0082
68679SOL     OW15966   4.326   0.485  12.200 -0.1328  0.1361 -0.2672
68679SOL    HW115967   4.326   0.393  12.224 -1.5905 -0.1477 -1.2224
68679SOL    HW215968   4.234   0.507  12.188  0.2050  1.6624 -0.2856
68680SOL     OW15969   7.301   8.514   1.335 -0.4662  0.1356 -0.0822
68680SOL    HW115970   7.324   8.513   1.428  0.8566 -0.5129 -0.3871
68680SOL    HW215971   7.343   8.435   1.299  1.3771  1.7592 -1.7397
68681SOL     OW15972  10.095   4.014  11.855  0.1610  0.0719  0.1044
68681SOL    HW115973  10.105   4.108  11.870  3.4388 -0.2509  0.7330
68681SOL    HW215974  10.079   4.006  11.761 -0.8727  1.2463  0.1548
68682SOL     OW15975   6.231   0.538   3.160  0.5386  0.0341 -0.3715
68682SOL    HW115976   6.161   0.485   3.122  0.7573  0.5322 -1.4890
68682SOL    HW215977   6.250   0.494   3.243 -1.5717  0.2996  0.3133
68683SOL     OW15978   2.564  12.858  11.088  0.2512 -0.1627 -0.0377
68683SOL    HW115979   2.497  12.792  11.070 -2.4721  2.4597 -0.1503
68683SOL    HW215980   2.591  12.840  11.179  0.7775 -2.3126 -0.5543
68684SOL     OW15981   9.855   6.198  12.915 -0.1098  0.6683  0.0950
68684SOL    HW115982   9.781   6.171  12.861  1.5983  0.1295 -2.1297
68684SOL    HW215983   9.932   6.162  12.871  1.5727  1.7882  1.9079
68685SOL     OW15984   0.674   7.410  11.879  0.1075  0.8046 -0.1988
68685SOL    HW115985   0.607   7.439  11.941 -0.2263 -0.1372 -0.1105
68685SOL    HW215986   0.661   7.467  11.803  0.5789  2.0289  0.6078
68686SOL     OW15987   1.555   5.543  10.690 -0.1935 -0.5784 -0.2439
68686SOL    HW115988   1.636   5.589  10.667 -0.2052 -0.0337  0.7693
68686SOL    HW215989   1.583   5.453  10.707 -0.0082 -0.7055 -1.1645
68687SOL     OW15990  10.451  13.291   1.802  0.1580 -0.6630  0.3384
68687SOL    HW115991  10.356  13.293   1.813 -0.2991  0.2319 -2.8409
68687SOL    HW215992  10.474  13.199   1.814 -1.0963 -0.8967  1.1691
68688SOL     OW15993  10.535   7.994  11.179 -0.1808 -0.4465 -0.5863
68688SOL    HW115994  10.619   8.020  11.217  0.1616 -3.4529  0.9357
68688SOL    HW215995  10.557   7.925  11.116 -1.4328 -0.5453 -0.9442
68689SOL     OW15996   0.580  13.287  11.986  0.0376 -0.2123 -0.2397
68689SOL    HW115997   0.537  13.252  12.063 -0.5126  3.7819  1.5249
68689SOL    HW215998   0.672  13.263  11.997 -0.5211 -2.6546 -0.2882
68690SOL     OW15999   9.428  10.080   2.486  0.2186  0.1860  0.1235
68690SOL    HW116000   9.477   9.999   2.473  0.0396  0.0096  0.5172
68690SOL    HW216001   9.384  10.095   2.403 -2.4206 -1.9436  0.9833
68691SOL     OW16002  11.228   4.121   4.200  0.5033  0.5405 -0.5182
68691SOL    HW116003  11.156   4.088   4.255  1.1649  1.1835  0.7916
68691SOL    HW216004  11.241   4.053   4.134 -0.0385 -0.4731  0.3839
68692SOL     OW16005   0.957   5.916   9.135  0.1467  0.3784 -0.5976
68692SOL    HW116006   0.964   5.824   9.109  1.3791 -0.0228  0.9873
68692SOL    HW216007   1.048   5.945   9.146 -0.1881  2.0336 -1.7734
68693SOL     OW16008   7.060  10.376   5.930 -0.1173 -0.1850 -0.2581
68693SOL    HW116009   7.076  10.397   6.022 -1.4991  0.6609 -0.1903
68693SOL    HW216010   7.076  10.281   5.925  2.4489  0.1527  0.2680
68694SOL     OW16011  10.401  11.928   4.584  0.0688 -0.0773 -0.0395
68694SOL    HW116012  10.327  11.941   4.524 -0.1864 -1.5463 -0.0962
68694SOL    HW216013  10.419  11.834   4.579  3.0370  0.4529 -1.2867
68695SOL     OW16014   7.706  10.289   0.165 -0.2142 -0.3991  0.0590
68695SOL    HW116015   7.665  10.244   0.091 -1.7724  1.1375 -0.0785
68695SOL    HW216016   7.711  10.222   0.234  1.6066 -1.9564 -1.4888
68696SOL     OW16017   0.737   9.373  10.375 -0.0976  0.3114 -0.2076
68696SOL    HW116018   0.728   9.457  10.331  0.4829  0.5744  0.1532
68696SOL    HW216019   0.671   9.374  10.444 -2.6461 -1.0595 -2.4387
68697SOL     OW16020   5.124   7.659  10.182  0.1933  0.1036 -0.1048
68697SOL    HW116021   5.036   7.695  10.184  0.2913  0.3435 -0.0916
68697SOL    HW216022   5.129   7.611  10.099 -0.4465 -1.1837  0.5623
68698SOL     OW16023   7.040   5.204  12.055 -0.4759  0.0574  0.6329
68698SOL    HW116024   6.954   5.172  12.082  0.1782 -0.8704  1.7806
68698SOL    HW216025   7.088   5.215  12.138  0.2546  1.3414  0.0736
68699SOL     OW16026   0.660   3.092  12.537  0.3933 -0.2532 -0.7159
68699SOL    HW116027   0.695   3.006  12.514  1.6719 -0.0394  0.3206
68699SOL    HW216028   0.590   3.074  12.600  1.8757 -0.5038  0.9468
68700SOL     OW16029   5.166   3.199   3.633 -0.3612  0.5158 -0.3417
68700SOL    HW116030   5.102   3.137   3.666 -0.9372  2.8325  3.5904
68700SOL    HW216031   5.125   3.238   3.556 -2.2122 -0.4148  0.1186
68701SOL     OW16032  11.883  11.005   4.819  0.3509 -0.1163 -0.2429
68701SOL    HW116033  11.940  11.045   4.753  0.1566  1.0414  0.2774
68701SOL    HW216034  11.930  11.017   4.901 -0.3562  0.3082  0.1087
68702SOL     OW16035   5.607   9.390   5.092  0.0314  0.2358 -0.2921
68702SOL    HW116036   5.635   9.299   5.089  0.3254  0.3420 -1.6706
68702SOL    HW216037   5.689   9.441   5.097  0.0355  0.4769 -2.1294
68703SOL     OW16038   2.453   3.919  12.079 -0.1005 -0.1293 -0.3726
68703SOL    HW116039   2.485   3.976  12.149  0.5088 -0.1711 -0.6110
68703SOL    HW216040   2.531   3.873  12.049 -0.2031  0.5165 -1.6684
68704SOL     OW16041   1.541   4.323   2.692  0.2062 -0.6468  0.0009
68704SOL    HW116042   1.462   4.289   2.649 -0.5987  1.6872 -0.5296
68704SOL    HW216043   1.509   4.364   2.772  0.4574  2.3022 -1.2883
68705SOL     OW16044   9.497   2.894   3.728 -0.5855 -0.3190 -0.0000
68705SOL    HW116045   9.440   2.966   3.756 -0.4337 -0.7628  1.5151
68705SOL    HW216046   9.563   2.937   3.673 -0.9947  0.5649  0.1707
68706SOL     OW16047   6.763   0.119  10.472  0.1106 -0.1385 -0.0305
68706SOL    HW116048   6.767   0.111  10.568 -0.7655  0.6855  0.0848
68706SOL    HW216049   6.709   0.045  10.444 -0.0817 -0.0676  0.1543
68707SOL     OW16050   1.681  12.088   3.259 -0.1499  0.3889  0.6976
68707SOL    HW116051   1.703  12.108   3.350 -0.1472 -0.4089  0.8776
68707SOL    HW216052   1.752  12.127   3.208  1.9522 -2.4037  1.2887
68708SOL     OW16053   6.814   0.835  10.132  0.4789  0.2175 -0.7422
68708SOL    HW116054   6.884   0.804  10.189  0.1459 -0.8162 -0.8726
68708SOL    HW216055   6.743   0.859  10.192  0.4628  0.0058 -0.6777
68709SOL     OW16056  11.728   0.953   7.396  0.0353  0.9414  0.4720
68709SOL    HW116057  11.731   0.880   7.458 -2.4501  2.4380  2.5860
68709SOL    HW216058  11.728   1.031   7.452  1.5711  2.5607 -1.6544
68710SOL     OW16059   8.667   0.364   4.630  0.6227 -0.0789  0.3225
68710SOL    HW116060   8.574   0.362   4.652 -0.0808  0.3770 -2.2426
68710SOL    HW216061   8.696   0.451   4.658  0.2842 -0.1948  1.0638
68711SOL     OW16062   3.407   7.302   0.884  0.1207  0.8002 -0.8638
68711SOL    HW116063   3.343   7.370   0.865 -0.6098  0.1451 -0.7756
68711SOL    HW216064   3.418   7.255   0.801 -1.0728 -0.3769 -0.4002
68712SOL     OW16065   0.048   8.084  11.553 -0.0299 -0.0766 -0.6004
68712SOL    HW116066   0.110   8.142  11.597 -0.1958 -0.9211  0.8324
68712SOL    HW216067  -0.033   8.094  11.604 -0.5659 -0.2614 -1.4068
68713SOL     OW16068   7.417  11.208  10.925 -0.1403 -0.2702  0.6161
68713SOL    HW116069   7.445  11.274  10.861  0.3954 -2.1222 -1.2033
68713SOL    HW216070   7.489  11.202  10.987 -0.7637  1.7291  1.5921
68714SOL     OW16071   9.981   0.402  10.557  0.2476 -0.0495 -0.6540
68714SOL    HW116072  10.058   0.344  10.556 -0.4847 -1.1397  1.2901
68714SOL    HW216073   9.907   0.344  10.538 -0.4460  0.3358  0.7784
68715SOL     OW16074  11.747   2.210   1.558 -0.2376  0.1658 -0.7335
68715SOL    HW116075  11.657   2.177   1.560  0.5739 -2.2839 -1.3060
68715SOL    HW216076  11.755   2.253   1.473 -1.4248  2.3742  0.1789
68716SOL     OW16077   1.791   5.624   2.820  0.0490 -0.2991 -0.5048
68716SOL    HW116078   1.837   5.573   2.888  0.7455 -0.8748 -1.3827
68716SOL    HW216079   1.790   5.713   2.854 -2.0635 -1.0013  1.5386
68717SOL     OW16080  10.331   7.113   6.403  0.0632  0.0880  0.2466
68717SOL    HW116081  10.319   7.029   6.359  0.0086 -0.0856  0.5842
68717SOL    HW216082  10.291   7.177   6.345 -0.5313 -0.2124  0.3206
68718SOL     OW16083   6.236   0.739  11.572 -0.5597 -0.5436 -0.5321
68718SOL    HW116084   6.265   0.766  11.485 -0.6476  0.3407 -0.2964
68718SOL    HW216085   6.166   0.800  11.594  0.9142  0.6697  1.0652
68719SOL     OW16086   0.013   7.209  12.798  0.5633  0.0743 -0.5612
68719SOL    HW116087  -0.066   7.194  12.850  1.0510 -0.4100  0.0542
68719SOL    HW216088   0.058   7.280  12.844  0.5844  0.2159 -0.8015
68720SOL     OW16089   5.041  12.287   1.939  0.3042 -0.3536 -0.0248
68720SOL    HW116090   5.063  12.375   1.909 -1.7167  0.2259  0.0262
68720SOL    HW216091   5.014  12.298   2.030 -1.1235 -0.7891 -0.3635
68721SOL     OW16092  11.012  11.653  10.530 -0.0862 -0.2145  0.2788
68721SOL    HW116093  10.918  11.652  10.513 -0.0790 -0.1884  0.2375
68721SOL    HW216094  11.020  11.675  10.623 -0.0829  0.9411  0.0200
68722SOL     OW16095  12.874  11.448   8.223  0.4298 -0.1079 -0.1268
68722SOL    HW116096  12.846  11.512   8.287  0.4775  0.5124 -0.7150
68722SOL    HW216097  12.968  11.463   8.212  0.5572 -0.6626  0.1544
68723SOL     OW16098   6.289   8.413   2.056  0.0150 -0.0863  0.0890
68723SOL    HW116099   6.254   8.467   1.985  1.4673 -0.8697 -1.2734
68723SOL    HW216100   6.330   8.338   2.012 -0.2808 -1.3405  1.8357
68724SOL     OW16101   1.055  12.242   2.287 -0.3449  0.2970 -0.6195
68724SOL    HW116102   1.060  12.295   2.208 -0.2527  0.0945 -0.7475
68724SOL    HW216103   1.146  12.224   2.311 -0.1506  3.3078  1.5220
68725SOL     OW16104   4.913   3.620   5.790  0.2531  0.3982 -0.0412
68725SOL    HW116105   4.856   3.544   5.804 -0.7476  1.2804  0.7580
68725SOL    HW216106   4.974   3.591   5.721  0.8132 -1.6284  1.1995
68726SOL     OW16107   5.198   7.552   8.301 -0.1245 -0.2186 -0.5875
68726SOL    HW116108   5.227   7.643   8.294 -1.8017  0.6040  1.8564
68726SOL    HW216109   5.273   7.501   8.268  1.0794  1.9766 -1.5141
68727SOL     OW16110   1.890   4.343   9.303  0.0678  0.7918 -0.1374
68727SOL    HW116111   1.897   4.291   9.223  1.1291  0.6006  0.0715
68727SOL    HW216112   1.845   4.285   9.365 -0.3375  0.7715 -0.4459
68728SOL     OW16113  11.563  10.781   4.456 -0.1983 -0.1706 -0.0444
68728SOL    HW116114  11.649  10.787   4.416 -0.8687 -0.3691 -1.5793
68728SOL    HW216115  11.505  10.756   4.385 -1.4337 -0.6666  1.0855
68729SOL     OW16116   8.934   6.665   6.999 -0.3354 -0.2342  0.6497
68729SOL    HW116117   8.872   6.738   7.003  0.4223  0.5777 -1.2786
68729SOL    HW216118   8.884   6.590   7.031 -2.5459  0.2590 -1.3630
68730SOL     OW16119   4.247   0.730   9.911  0.1495  0.5019 -0.5308
68730SOL    HW116120   4.322   0.727   9.971 -0.5793  3.4061  0.6916
68730SOL    HW216121   4.280   0.771   9.832  0.2692  0.0153 -0.7375
68731SOL     OW16122   0.903   0.279   9.733  0.0218  0.1613  0.7254
68731SOL    HW116123   0.814   0.257   9.706  0.4942  0.8585 -1.7119
68731SOL    HW216124   0.930   0.207   9.790 -1.0376 -1.7100 -0.9881
68732SOL     OW16125   4.292   9.026   2.554 -0.0696 -0.0422  0.4622
68732SOL    HW116126   4.293   9.122   2.560  0.2091 -0.0755  1.0875
68732SOL    HW216127   4.222   9.006   2.493 -2.4013  0.4506  2.8076
68733SOL     OW16128   8.357   2.897   2.879 -0.4179 -0.6847 -0.9139
68733SOL    HW116129   8.429   2.869   2.821  0.0417 -1.0037 -0.2016
68733SOL    HW216130   8.350   2.826   2.943 -0.8227 -0.2613 -0.4896
68734SOL     OW16131   9.535   5.699   3.229 -0.4531 -0.1224 -0.0360
68734SOL    HW116132   9.579   5.742   3.302 -0.7009 -2.8470  1.8967
68734SOL    HW216133   9.592   5.625   3.207 -0.0718  0.9545 -3.1397
68735SOL     OW16134   8.596   5.073  11.115 -0.9999 -0.5812  0.3736
68735SOL    HW116135   8.580   5.046  11.025 -3.2561 -1.1185  0.8635
68735SOL    HW216136   8.565   5.164  11.118 -0.5502 -0.4344  0.4997
68736SOL     OW16137   6.900   2.816  12.423  0.1087  0.3911  0.0225
68736SOL    HW116138   6.869   2.849  12.338 -2.1708 -1.2903  0.1343
68736SOL    HW216139   6.994   2.836  12.423 -0.2032  2.2459 -2.0173
68737SOL     OW16140   7.210   8.937  11.465 -0.0995  0.3386 -0.2145
68737SOL    HW116141   7.266   8.889  11.525 -1.3355  0.3199  0.9673
68737SOL    HW216142   7.255   9.019  11.449 -0.8282  1.3980  2.6833
68738SOL     OW16143   1.398   2.049   6.809  0.1863  0.1157  0.1317
68738SOL    HW116144   1.323   2.086   6.857  1.8572  0.3379  2.7594
68738SOL    HW216145   1.439   2.124   6.767  0.6041  0.5013  1.1857
68739SOL     OW16146   4.491   9.665  12.915  0.2387 -0.3317  0.1643
68739SOL    HW116147   4.566   9.616  12.950 -0.9382 -0.7016  2.3462
68739SOL    HW216148   4.459   9.611  12.842  2.5111  0.2403 -1.3710
68740SOL     OW16149   4.507   2.679  13.169  0.3534  0.3869 -0.1133
68740SOL    HW116150   4.602   2.681  13.155  0.2674 -1.2582 -1.1533
68740SOL    HW216151   4.475   2.759  13.126  1.0254 -0.3267 -2.0169
68741SOL     OW16152   0.803   5.056   9.635  0.2311 -0.0885 -0.3419
68741SOL    HW116153   0.837   4.973   9.603  0.1302  0.4131 -1.8346
68741SOL    HW216154   0.708   5.050   9.621  0.2718  0.4478 -0.9375
68742SOL     OW16155   5.263   3.765   4.058 -0.2410  0.2277 -0.0927
68742SOL    HW116156   5.302   3.797   4.139 -1.6273  0.1504  0.6397
68742SOL    HW216157   5.302   3.819   3.989  1.7645 -0.4066  0.4677
68743SOL     OW16158   7.369   9.092  10.834  0.2215  0.3264  0.1601
68743SOL    HW116159   7.335   9.003  10.840 -0.5215  0.7206  3.3419
68743SOL    HW216160   7.291   9.148  10.840  0.8341  1.2138  0.0095
68744SOL     OW16161   4.873  10.466   7.379  0.6364  0.4138 -0.1663
68744SOL    HW116162   4.834  10.500   7.298 -0.1579  0.0753  0.0590
68744SOL    HW216163   4.967  10.465   7.362  0.7309  2.8842 -0.1157
68745SOL     OW16164   4.295  12.708   4.194  0.0729  0.0332  0.1937
68745SOL    HW116165   4.281  12.736   4.284 -0.2030  0.5898 -0.0158
68745SOL    HW216166   4.273  12.615   4.194 -1.4982  0.3744  0.3788
68746SOL     OW16167   9.705   0.897   0.238  0.9617  0.5031  0.1859
68746SOL    HW116168   9.694   0.826   0.174  1.2383  0.1600  0.5138
68746SOL    HW216169   9.664   0.973   0.197  0.0604 -0.0118  0.1091
68747SOL     OW16170  11.362  10.270   2.555  0.1408  0.2318 -0.2384
68747SOL    HW116171  11.378  10.186   2.596 -0.6996 -0.2622 -0.8979
68747SOL    HW216172  11.357  10.250   2.461 -1.8074  0.7336 -0.2712
68748SOL     OW16173  11.596   3.217  11.065 -0.3606 -0.2657  0.2112
68748SOL    HW116174  11.666   3.198  11.128 -0.6491 -0.1672  0.5645
68748SOL    HW216175  11.519   3.234  11.119 -0.6915 -0.4956 -0.1804
68749SOL     OW16176  10.157  11.189   8.652  0.3589 -0.2568  0.3628
68749SOL    HW116177  10.205  11.271   8.666 -1.5407  0.8992  0.4277
68749SOL    HW216178  10.068  11.207   8.682 -0.7137 -1.6107 -1.7336
68750SOL     OW16179  11.980   4.198   4.327 -0.6047  0.6638  0.1518
68750SOL    HW116180  12.011   4.198   4.236  1.4551  0.5218  0.8094
68750SOL    HW216181  12.046   4.150   4.375 -2.0636  0.0530  1.6438
68751SOL     OW16182   9.473   1.209  12.811  0.1854  0.0026 -0.0349
68751SOL    HW116183   9.380   1.198  12.789  0.2733 -1.2889  0.1691
68751SOL    HW216184   9.479   1.298  12.846 -1.1749 -0.2635  0.9475
68752SOL     OW16185   1.547  12.686  11.406  0.2342 -0.3494 -0.0523
68752SOL    HW116186   1.639  12.690  11.434  0.1314 -0.0050  0.2460
68752SOL    HW216187   1.551  12.686  11.310  0.5720 -1.1235 -0.0450
68753SOL     OW16188   2.968   3.397  11.835 -0.0480 -0.2119  0.1855
68753SOL    HW116189   2.992   3.465  11.897  1.1662 -0.9511  0.5555
68753SOL    HW216190   2.952   3.319  11.889 -0.6733 -0.4234 -0.2899
68754SOL     OW16191  10.630  11.236   8.703  0.1125 -0.4048 -0.8325
68754SOL    HW116192  10.656  11.210   8.791  0.3136 -1.3521 -1.1643
68754SOL    HW216193  10.570  11.168   8.673  0.3740 -0.3229 -1.5837
68755SOL     OW16194  11.575   2.776   6.332  0.3675  0.1873 -0.1168
68755SOL    HW116195  11.535   2.855   6.296  0.7047  0.4875  0.1579
68755SOL    HW216196  11.665   2.802   6.352 -0.4550  0.8419  3.3628
68756SOL     OW16197   4.359  12.581   2.852 -0.0480  0.0961 -0.3237
68756SOL    HW116198   4.359  12.568   2.757  2.1102  1.1730 -0.5100
68756SOL    HW216199   4.282  12.635   2.868  0.3092  1.0659 -1.6654
68757SOL     OW16200  11.721  12.429   9.572 -0.4856 -0.2515  0.1665
68757SOL    HW116201  11.658  12.358   9.585  2.2204 -2.6521  1.0488
68757SOL    HW216202  11.687  12.501   9.626 -1.7305 -1.9661  1.7706
68758SOL     OW16203  12.004   4.650   6.798 -0.3954  0.1791 -0.0082
68758SOL    HW116204  12.056   4.658   6.878  0.6649  0.7313 -0.7247
68758SOL    HW216205  11.981   4.740   6.775  0.3493  0.1529 -0.9628
68759SOL     OW16206   1.460   1.513   9.755  0.3735 -0.4388  0.2884
68759SOL    HW116207   1.500   1.599   9.770 -0.5107  0.1745 -0.7551
68759SOL    HW216208   1.416   1.492   9.838 -2.3008  1.7168 -0.4582
68760SOL     OW16209  10.500   7.118   2.463  0.2854 -0.1303 -0.0734
68760SOL    HW116210  10.541   7.042   2.421  2.4857  0.7551  0.3332
68760SOL    HW216211  10.555   7.137   2.539 -0.0520  1.9914 -0.2846
68761SOL     OW16212   2.078   8.548   5.956 -0.0754  0.5032  0.0357
68761SOL    HW116213   2.027   8.559   6.036  0.2135 -0.4063  0.3533
68761SOL    HW216214   2.124   8.632   5.946 -1.7732  1.4375 -0.3857
68762SOL     OW16215  12.695   7.305   1.692  0.5250  0.0751 -0.2547
68762SOL    HW116216  12.762   7.304   1.624 -0.4808  1.2702 -1.3133
68762SOL    HW216217  12.735   7.353   1.764  1.3748 -0.6511 -0.2180
68763SOL     OW16218   9.687  11.354   9.742 -0.6312 -0.3034 -0.4639
68763SOL    HW116219   9.696  11.260   9.724  0.7028 -0.5484  1.2531
68763SOL    HW216220   9.633  11.358   9.821 -1.5423  0.4622 -1.0916
68764SOL     OW16221   1.390  10.250   7.486 -0.1397 -0.0394 -0.2784
68764SOL    HW116222   1.410  10.249   7.393 -0.8962 -2.8598 -0.5204
68764SOL    HW216223   1.297  10.273   7.491 -0.2123 -0.3257 -0.2759
68765SOL     OW16224   7.577   5.010   3.569  0.3732 -0.1404 -0.1910
68765SOL    HW116225   7.643   4.948   3.600 -0.1938 -0.9663 -0.5762
68765SOL    HW216226   7.557   4.980   3.480 -0.1129  0.4342 -0.2807
68766SOL     OW16227   4.396  11.382   6.357 -0.0171 -0.6303  0.3454
68766SOL    HW116228   4.310  11.395   6.318  0.2257 -0.2404 -0.0749
68766SOL    HW216229   4.398  11.442   6.432 -0.4095 -1.2356  0.8523
68767SOL     OW16230   2.443   3.656   6.697 -0.3539 -0.6198 -0.8953
68767SOL    HW116231   2.495   3.660   6.778 -0.2584 -0.4158 -0.9654
68767SOL    HW216232   2.503   3.623   6.631 -0.9015 -2.4885 -0.5145
68768SOL     OW16233   3.096   4.909  11.516  0.4740 -0.1595  0.0840
68768SOL    HW116234   3.128   4.838  11.460 -1.6067 -2.2422  1.3947
68768SOL    HW216235   3.116   4.989  11.466  1.4606 -1.7055 -2.1851
68769SOL     OW16236   5.830  11.791   7.231 -0.1198 -0.0703  0.2179
68769SOL    HW116237   5.923  11.770   7.227  0.1346  0.8918  0.8096
68769SOL    HW216238   5.807  11.817   7.142 -0.2471 -1.9673 -0.3389
68770SOL     OW16239  10.919  10.652   6.296 -0.3641 -0.1002  0.3214
68770SOL    HW116240  10.911  10.695   6.382  0.8543 -0.4957  0.6493
68770SOL    HW216241  10.899  10.722   6.233  0.7666  0.7483  0.8707
68771SOL     OW16242   1.134  10.526   3.529  0.2603 -0.1276  0.6335
68771SOL    HW116243   1.097  10.438   3.533  0.6816 -0.3216  0.2874
68771SOL    HW216244   1.175  10.532   3.443 -1.9177  1.2843 -0.3714
68772SOL     OW16245   2.686   3.105   5.798 -0.4397 -0.7231  0.0124
68772SOL    HW116246   2.756   3.111   5.732 -1.1598 -1.0296 -0.7923
68772SOL    HW216247   2.731   3.122   5.881  0.1702  1.5059 -0.6984
68773SOL     OW16248   8.152  13.053   3.965  0.3190  0.5993  0.0140
68773SOL    HW116249   8.067  13.068   4.006  1.0791  0.4778  1.7340
68773SOL    HW216250   8.151  13.107   3.887 -1.0591  1.1867  0.4094
68774SOL     OW16251  12.391  12.032   4.928  0.4145  0.1355 -0.2218
68774SOL    HW116252  12.454  11.961   4.918 -0.1306 -0.3417 -0.2544
68774SOL    HW216253  12.322  12.013   4.865 -0.1956  0.1925  0.4265
68775SOL     OW16254   8.232  10.899   5.988 -0.1714 -0.3768 -0.2374
68775SOL    HW116255   8.144  10.861   5.992 -1.6573  2.7855  2.6035
68775SOL    HW216256   8.285  10.844   6.046 -0.8068 -1.1332 -0.3641
68776SOL     OW16257  11.184   9.870   2.110  0.4668 -0.0894  0.5181
68776SOL    HW116258  11.108   9.859   2.167 -0.2633 -2.2016 -0.7454
68776SOL    HW216259  11.210   9.781   2.086  1.0347  0.6575 -2.0301
68777SOL     OW16260   9.972   7.919   2.470  0.2484  0.1231  0.2792
68777SOL    HW116261  10.018   7.894   2.390 -1.8024  1.1581 -1.3432
68777SOL    HW216262  10.005   8.006   2.491  0.7753 -0.1408  0.5435
68778SOL     OW16263   4.522   7.143  10.234  0.1615  0.1167  1.0496
68778SOL    HW116264   4.516   7.073  10.170 -1.2630  1.0795  0.0734
68778SOL    HW216265   4.433   7.153  10.267 -0.1032  2.6576 -0.2023
68779SOL     OW16266  11.480   2.982   1.739  0.1815  0.1835  0.2531
68779SOL    HW116267  11.446   2.995   1.827 -0.0942  0.0512  0.1651
68779SOL    HW216268  11.483   3.070   1.701 -2.8297 -0.0673 -0.7687
68780SOL     OW16269   2.865   4.520   6.536  0.8688  0.1477 -0.2099
68780SOL    HW116270   2.925   4.453   6.504  0.3084 -0.6388  0.3439
68780SOL    HW216271   2.784   4.506   6.485  0.1488 -0.7727  1.1343
68781SOL     OW16272  11.153   4.382   9.050  0.0838 -0.1908 -0.1243
68781SOL    HW116273  11.198   4.362   8.968  0.6766 -0.3382  0.2274
68781SOL    HW216274  11.134   4.475   9.045  0.8578 -0.0265 -0.0764
68782SOL     OW16275  13.207   8.511   0.864 -0.5392 -0.7749 -0.3830
68782SOL    HW116276  13.171   8.429   0.829 -0.1493 -0.6407 -1.1366
68782SOL    HW216277  13.236   8.559   0.786  1.6773 -1.0676  0.1876
68783SOL     OW16278   5.165   2.963  12.059 -0.3224 -0.5696  0.5268
68783SOL    HW116279   5.162   2.870  12.038 -0.9900 -0.3164 -0.5446
68783SOL    HW216280   5.079   2.983  12.095 -0.9046  0.0447 -1.1277
68784SOL     OW16281   2.895   6.729   9.970  0.1365  0.4092  0.4088
68784SOL    HW116282   2.804   6.733   9.998  0.0330  2.0777 -0.0564
68784SOL    HW216283   2.945   6.768  10.042  0.5372 -0.7607  0.7900
68785SOL     OW16284   5.204   4.095  12.646 -0.6729  0.0107 -0.2551
68785SOL    HW116285   5.291   4.117  12.611 -0.3913  1.8121  1.3680
68785SOL    HW216286   5.154   4.176  12.637 -1.2209 -0.0827  1.4990
68786SOL     OW16287   7.552   7.324  11.981 -0.8757  0.3058  0.0456
68786SOL    HW116288   7.497   7.356  11.909  2.6999  2.4650 -2.0252
68786SOL    HW216289   7.554   7.229  11.969 -2.9701  0.2839 -0.6061
68787SOL     OW16290   1.885   7.665   1.636  0.0571  0.0201  0.5810
68787SOL    HW116291   1.944   7.648   1.562  0.5526 -0.2686  1.0384
68787SOL    HW216292   1.904   7.596   1.699 -0.0317  0.5357  1.1806
68788SOL     OW16293   0.647   5.258   6.924  0.4541  0.1409  0.3370
68788SOL    HW116294   0.639   5.244   7.018 -0.5277  1.9478  0.5620
68788SOL    HW216295   0.711   5.328   6.915 -0.7633  1.2228 -0.2077
68789SOL     OW16296   5.511   6.930  10.501  0.0399 -0.0900 -0.2693
68789SOL    HW116297   5.486   6.837  10.504 -1.0214  0.1953  0.1200
68789SOL    HW216298   5.466   6.964  10.423 -0.9441  0.4648  0.5252
68790SOL     OW16299   5.093   6.003   3.971 -0.0670 -0.2439 -0.1657
68790SOL    HW116300   5.031   6.075   3.985  0.9681  0.3892  1.4714
68790SOL    HW216301   5.038   5.928   3.947 -1.3974  0.4834  0.4804
68791SOL     OW16302   6.450   6.228   8.974 -0.4644 -0.0374 -0.0192
68791SOL    HW116303   6.386   6.162   9.000 -1.6656  0.8573 -0.5943
68791SOL    HW216304   6.443   6.296   9.040  1.6079 -0.9280  1.2395
68792SOL     OW16305   1.458  12.859   5.795 -0.3752 -0.0765  0.0749
68792SOL    HW116306   1.415  12.794   5.739  0.3714  0.5818 -1.3155
68792SOL    HW216307   1.409  12.940   5.779  1.1446  0.6172 -1.3182
68793SOL     OW16308   4.986   2.784   1.963  0.0780  0.6617  0.7689
68793SOL    HW116309   4.943   2.731   1.896  0.0484  2.7537 -0.9958
68793SOL    HW216310   5.042   2.723   2.011 -1.4139 -1.2703  0.1559
68794SOL     OW16311   9.825  10.931   8.835  0.2304 -0.4922  0.0027
68794SOL    HW116312   9.768  10.979   8.774 -1.3136 -0.9604  1.0206
68794SOL    HW216313   9.809  10.839   8.816  0.7165 -0.6357  0.2642
68795SOL     OW16314  11.336   3.203  12.708  0.3227 -0.3949  0.3959
68795SOL    HW116315  11.321   3.263  12.782  1.6579  0.2649  0.1557
68795SOL    HW216316  11.431   3.200  12.698  0.1641  0.3208 -1.9115
68796SOL     OW16317   3.587   0.834  10.605  0.1823  0.4053 -0.3363
68796SOL    HW116318   3.621   0.758  10.653  0.0503  0.9484  0.6482
68796SOL    HW216319   3.665   0.884  10.582  0.2297  0.2900 -0.4252
68797SOL     OW16320   6.477   2.136   1.016 -0.0293  0.2593  0.2914
68797SOL    HW116321   6.441   2.211   1.063 -1.4693  1.0393 -1.8744
68797SOL    HW216322   6.550   2.172   0.966  1.7683 -0.6477  2.1577
68798SOL     OW16323   8.510   2.657   3.760  0.1476 -0.0442  0.2680
68798SOL    HW116324   8.520   2.690   3.671 -1.0020  0.0886  0.1670
68798SOL    HW216325   8.599   2.638   3.789  0.5354 -0.1595 -0.9332
68799SOL     OW16326   2.835   7.921   7.661 -0.2890  0.0873  0.0823
68799SOL    HW116327   2.915   7.872   7.639  1.6905  2.6597  0.9838
68799SOL    HW216328   2.803   7.880   7.741 -0.8900 -1.9947 -1.1397
68800SOL     OW16329   6.783   7.621   4.510 -0.3001  0.2326  0.0721
68800SOL    HW116330   6.831   7.559   4.565 -0.7322 -0.6739 -0.5320
68800SOL    HW216331   6.768   7.572   4.429  1.4330  1.9317 -1.3800
68801SOL     OW16332   4.963   6.266   2.155  0.7485 -0.2329  0.1140
68801SOL    HW116333   4.880   6.223   2.134  0.0210  0.7799  0.8371
68801SOL    HW216334   4.953   6.295   2.246  1.3015  1.2603 -0.2728
68802SOL     OW16335   9.640   4.772   2.269  0.1889  0.3266 -0.1387
68802SOL    HW116336   9.687   4.708   2.215  0.5262  0.5493 -0.1085
68802SOL    HW216337   9.613   4.722   2.346 -0.3998 -0.0228 -0.5624
68803SOL     OW16338  10.547  12.563   6.039 -0.5811  0.0044 -0.2544
68803SOL    HW116339  10.635  12.533   6.017 -0.5029  1.1961 -1.7564
68803SOL    HW216340  10.560  12.626   6.110 -0.2541 -0.0952 -0.2231
68804SOL     OW16341   5.793   9.786  10.717  0.5877  0.7267 -0.3263
68804SOL    HW116342   5.802   9.881  10.724 -0.8141  0.9697 -1.3509
68804SOL    HW216343   5.730   9.773  10.646 -0.0237 -0.9330  0.4671
68805SOL     OW16344  12.313   1.370   9.584 -0.4044 -0.1710  0.3705
68805SOL    HW116345  12.354   1.344   9.667 -0.1606  0.6958  0.5353
68805SOL    HW216346  12.306   1.465   9.590  0.5266  0.0064 -1.0237
68806SOL     OW16347  11.987   2.781   1.572  0.1619 -0.7251  0.3020
68806SOL    HW116348  11.970   2.687   1.568  0.7676 -0.7911 -1.1498
68806SOL    HW216349  12.040   2.800   1.495  0.0192  0.8240  0.5445
68807SOL     OW16350  12.531   9.574   5.249 -0.0775 -0.4194 -0.6008
68807SOL    HW116351  12.496   9.485   5.240 -0.6138 -0.1425 -1.4689
68807SOL    HW216352  12.465   9.629   5.207 -0.3639  0.5381  1.0351
68808SOL     OW16353  13.223   5.788   1.222  0.3826  0.0154 -0.0735
68808SOL    HW116354  13.210   5.855   1.155  0.1297  0.3921  0.3413
68808SOL    HW216355  13.302   5.816   1.268  0.2706  0.0386  0.1062
68809SOL     OW16356  10.137   3.955   5.670  0.0458  0.2874 -0.3494
68809SOL    HW116357  10.134   3.914   5.757  0.5722  0.4707 -0.2453
68809SOL    HW216358  10.060   3.919   5.625  1.5565 -2.4356 -0.9834
68810SOL     OW16359   1.112   6.974   1.254 -0.3318 -0.9014 -0.0439
68810SOL    HW116360   1.158   6.907   1.203 -0.9489 -2.6819  1.5905
68810SOL    HW216361   1.111   6.939   1.343 -0.0376  1.6740  1.0654
68811SOL     OW16362   5.501   3.972   2.915 -0.0242 -0.2765 -0.2969
68811SOL    HW116363   5.526   3.883   2.889  0.7569 -0.5659  1.3000
68811SOL    HW216364   5.409   3.964   2.938 -0.0134 -0.6310 -0.3616
68812SOL     OW16365   8.665  12.717   4.556 -0.6120 -0.5288  0.2436
68812SOL    HW116366   8.620  12.786   4.507 -0.3030 -1.9104 -2.1216
68812SOL    HW216367   8.754  12.750   4.568 -0.0666 -0.9897 -2.0807
68813SOL     OW16368   1.901   9.944   7.789 -0.3137 -0.0525  0.6517
68813SOL    HW116369   1.827   9.912   7.738  0.1148 -0.2519  0.1429
68813SOL    HW216370   1.918   9.874   7.852  1.0158 -1.1769 -0.8600
68814SOL     OW16371   6.890   9.513   6.678 -0.1770  0.1060 -0.1143
68814SOL    HW116372   6.879   9.596   6.726 -0.2685  0.2076 -0.3090
68814SOL    HW216373   6.814   9.461   6.704 -0.5388  0.3833 -0.5946
68815SOL     OW16374  12.342  11.693   6.360  0.2000  0.7784 -0.5582
68815SOL    HW116375  12.360  11.603   6.332  2.4906 -0.0489  2.9197
68815SOL    HW216376  12.262  11.686   6.411  0.4544  0.6501 -0.1695
68816SOL     OW16377   6.014  10.537   5.253  0.3609 -0.6584  0.0607
68816SOL    HW116378   5.944  10.472   5.244 -0.7277  0.1984  1.7056
68816SOL    HW216379   6.089  10.486   5.285 -0.0262 -1.3312 -0.0676
68817SOL     OW16380   5.687   3.998   4.946 -0.1366 -0.3575  0.4524
68817SOL    HW116381   5.624   3.933   4.977 -2.0936  0.2181 -2.0078
68817SOL    HW216382   5.653   4.081   4.977  1.5976 -0.2921  2.3848
68818SOL     OW16383   9.813   3.786   1.880  0.4682  0.3426 -0.7030
68818SOL    HW116384   9.906   3.808   1.879  0.7645 -0.8390 -1.1258
68818SOL    HW216385   9.779   3.822   1.798  1.0080 -0.9254 -1.5264
68819SOL     OW16386   1.700   6.069   2.259 -0.4635  0.1144 -0.1643
68819SOL    HW116387   1.605   6.070   2.267 -0.5774  1.1890 -1.3792
68819SOL    HW216388   1.717   6.008   2.187 -0.0614 -1.7839  1.4463
68820SOL     OW16389   6.188   4.722   2.518 -0.2246  0.1585 -0.3073
68820SOL    HW116390   6.150   4.731   2.606 -1.4578  0.2475 -0.8365
68820SOL    HW216391   6.117   4.745   2.459  0.2108 -1.1334 -1.3783
68821SOL     OW16392   9.155   1.618   7.175 -0.2050  0.1667 -0.0189
68821SOL    HW116393   9.164   1.713   7.166 -0.8199  0.3441  1.0482
68821SOL    HW216394   9.181   1.600   7.265  2.4565 -1.0514 -0.9585
68822SOL     OW16395   6.203   7.035  12.505 -0.0534  0.1394  0.4176
68822SOL    HW116396   6.223   7.048  12.597  0.4560 -2.4120  0.7332
68822SOL    HW216397   6.118   7.078  12.493  0.6260  1.9265  1.6295
68823SOL     OW16398   2.532  11.790   8.419  0.2258 -0.3546  0.4851
68823SOL    HW116399   2.577  11.706   8.412  3.9245  1.5094 -1.9628
68823SOL    HW216400   2.566  11.829   8.499  0.1192 -0.3961  0.5499
68824SOL     OW16401   8.248   9.604  11.328 -0.4439  0.3137 -0.0014
68824SOL    HW116402   8.218   9.585  11.417  0.0097  0.8556  0.2721
68824SOL    HW216403   8.224   9.526  11.277  0.6593 -0.6731  0.9155
68825SOL     OW16404   3.928   5.656  11.199  0.3173  0.6071  0.4890
68825SOL    HW116405   3.986   5.601  11.147 -0.9781 -1.6214  1.2674
68825SOL    HW216406   3.982   5.686  11.272  1.3489  1.3590 -0.5456
68826SOL     OW16407  10.145   6.231   9.948 -0.0812  0.3248 -0.6992
68826SOL    HW116408  10.154   6.326   9.939 -1.0364  0.3507 -1.5526
68826SOL    HW216409  10.234   6.200   9.964  0.4218  1.2542 -1.5449
68827SOL     OW16410   1.613   0.073  10.672 -0.4108 -0.5992  0.3781
68827SOL    HW116411   1.657  -0.011  10.691 -0.1922 -0.3196  1.1554
68827SOL    HW216412   1.533   0.048  10.626  0.4922 -1.1325 -0.9757
68828SOL     OW16413   3.508   5.006   9.440 -0.1589  0.0563  0.9326
68828SOL    HW116414   3.562   5.082   9.462  0.6113 -0.6135  1.4361
68828SOL    HW216415   3.482   5.021   9.349  1.8708 -0.1324  0.2582
68829SOL     OW16416   8.066  11.048   0.310  0.2601 -0.2567  0.2013
68829SOL    HW116417   8.047  11.139   0.287  1.1044  0.1562  1.0562
68829SOL    HW216418   8.066  11.001   0.227 -1.2103  0.3216 -0.1541
68830SOL     OW16419  12.018   3.425   9.649 -0.1734  0.2011  0.0268
68830SOL    HW116420  11.972   3.342   9.663 -0.2204  0.1662 -0.3317
68830SOL    HW216421  12.110   3.404   9.666 -0.1249 -0.0365 -0.5091
68831SOL     OW16422   0.994   6.238  10.107  0.4625  0.1827  0.5034
68831SOL    HW116423   0.945   6.164  10.071  2.1947 -0.3058 -1.0207
68831SOL    HW216424   0.972   6.311  10.050  1.6341 -0.1008 -0.3509
68832SOL     OW16425   3.616   4.831  10.294  0.1225 -0.2157  0.2701
68832SOL    HW116426   3.578   4.783  10.220  2.2539 -0.4702 -0.7353
68832SOL    HW216427   3.582   4.920  10.284 -1.1230 -0.6798  0.1316
68833SOL     OW16428  11.678  13.149  11.630  0.3896  0.2053 -0.3054
68833SOL    HW116429  11.731  13.076  11.663 -1.3304 -0.4833  1.0950
68833SOL    HW216430  11.726  13.228  11.655  1.9110 -0.3876 -1.2045
68834SOL     OW16431   2.272   5.342   7.094  1.0854  0.3477 -0.6835
68834SOL    HW116432   2.278   5.248   7.110 -1.0726  0.0756 -1.2360
68834SOL    HW216433   2.312   5.355   7.008  1.9647  0.0580 -0.3297
68835SOL     OW16434  13.118   0.119   2.916 -0.0934 -0.2386 -0.4580
68835SOL    HW116435  13.048   0.063   2.881 -0.1534  0.2744 -1.1789
68835SOL    HW216436  13.196   0.064   2.913 -0.7170 -1.3867  1.8621
68836SOL     OW16437   0.973   0.718   2.610 -0.3414 -0.1689 -0.0502
68836SOL    HW116438   1.035   0.727   2.537  1.3660  1.2712  1.4637
68836SOL    HW216439   1.001   0.639   2.656 -0.7791 -0.5108 -0.3613
68837SOL     OW16440   0.755   3.135   5.591 -0.2944 -0.6328 -0.4622
68837SOL    HW116441   0.689   3.137   5.660  0.1653  0.2952 -0.0321
68837SOL    HW216442   0.792   3.047   5.595  2.3953  0.4565  3.0757
68838SOL     OW16443  11.125  12.021   3.161 -1.1439  0.4842 -0.0444
68838SOL    HW116444  11.086  12.105   3.137 -1.4680  0.2270 -0.4308
68838SOL    HW216445  11.140  12.027   3.255  2.1958  2.3619 -0.5397
68839SOL     OW16446   0.725   0.520   7.044  0.3330 -0.3088  0.0221
68839SOL    HW116447   0.649   0.462   7.035  0.1075 -0.2645  1.4656
68839SOL    HW216448   0.799   0.461   7.053  0.6586 -0.3661 -2.3891
68840SOL     OW16449   5.669   1.539   5.805 -0.2317  0.5003 -0.1108
68840SOL    HW116450   5.607   1.467   5.803  0.8411 -0.4488 -1.9638
68840SOL    HW216451   5.616   1.617   5.791 -1.4479  0.1667  2.1903
68841SOL     OW16452   5.143   1.103   2.295 -0.0155 -0.0893 -0.0288
68841SOL    HW116453   5.164   1.018   2.333  0.1995 -0.9046 -1.8404
68841SOL    HW216454   5.055   1.092   2.259 -1.1938  1.3920  2.1822
68842SOL     OW16455   3.799   1.015  11.049  0.2597  0.5783  0.6596
68842SOL    HW116456   3.775   0.935  11.095  0.2576  0.7550  0.9645
68842SOL    HW216457   3.895   1.017  11.053  0.3353 -0.0355 -0.4058
68843SOL     OW16458   8.243  11.734   0.008  0.4793 -0.6198  0.0516
68843SOL    HW116459   8.248  11.768  -0.081 -0.0041 -0.4845  0.0711
68843SOL    HW216460   8.272  11.643   0.000 -1.2928 -1.1859 -0.6016
68844SOL     OW16461   0.858  10.989   7.297  0.3742 -0.5088 -0.6999
68844SOL    HW116462   0.776  10.954   7.264 -0.8131  1.9937 -0.6834
68844SOL    HW216463   0.907  10.913   7.328 -1.7577 -2.1120 -1.0658
68845SOL     OW16464   3.032   7.384   6.855 -0.7177 -0.2729 -0.5731
68845SOL    HW116465   3.030   7.296   6.892  0.1596 -0.5999 -1.2592
68845SOL    HW216466   3.020   7.370   6.761 -0.2701  0.3147 -0.7227
68846SOL     OW16467   4.593   5.200  12.670  0.4602  0.0883  0.0750
68846SOL    HW116468   4.652   5.153  12.729  0.0986  1.1707  1.3615
68846SOL    HW216469   4.517   5.142  12.661  1.1102 -0.7021 -0.4854
68847SOL     OW16470  12.085   8.828  12.750  0.1171  0.5193  0.3087
68847SOL    HW116471  12.054   8.772  12.679  1.0849  0.9702 -0.5066
68847SOL    HW216472  12.181   8.823  12.743  0.2264  0.7055  1.4892
68848SOL     OW16473   1.661   9.689   0.616 -0.2708 -0.1793  0.4436
68848SOL    HW116474   1.643   9.673   0.523 -0.8448  0.7123  0.3928
68848SOL    HW216475   1.755   9.669   0.626 -0.1060  0.1233 -0.4204
68849SOL     OW16476  10.064   0.302   0.699 -0.1981  0.7384 -0.2641
68849SOL    HW116477  10.085   0.209   0.704 -4.3358 -0.4376 -0.9696
68849SOL    HW216478  10.063   0.331   0.790  2.3622  0.5268 -0.0997
68850SOL     OW16479   7.426   7.315   0.790 -0.4466 -0.0773 -0.5666
68850SOL    HW116480   7.378   7.246   0.744  1.2552 -1.5642 -0.2300
68850SOL    HW216481   7.382   7.321   0.875  0.8264 -2.5547  0.3629
68851SOL     OW16482   0.430   6.133   7.687  0.1102  0.2205 -0.1329
68851SOL    HW116483   0.450   6.214   7.639 -1.5438  1.5607  1.3024
68851SOL    HW216484   0.515   6.096   7.708  0.9159  1.5655 -0.8802
68852SOL     OW16485  12.920   7.553   9.370 -0.4824  0.2261  0.1117
68852SOL    HW116486  12.903   7.629   9.426 -0.5425 -0.1376  0.5890
68852SOL    HW216487  12.833   7.527   9.340 -0.3649  1.1564 -1.1525
68853SOL     OW16488   6.084   9.925   6.739 -0.2878 -0.0939 -0.0577
68853SOL    HW116489   6.109   9.963   6.654 -1.2082 -1.5864 -1.0525
68853SOL    HW216490   6.040   9.996   6.785  1.5441  1.1963 -0.1691
68854SOL     OW16491   9.504   4.568   2.979 -0.2436 -1.0206 -0.0017
68854SOL    HW116492   9.409   4.568   2.975 -0.2136 -1.7654 -2.2508
68854SOL    HW216493   9.528   4.477   2.998  0.0391 -0.6446  1.5768
68855SOL     OW16494   5.369   0.567   9.327  0.0881  0.7538  0.3604
68855SOL    HW116495   5.394   0.626   9.256  0.7734 -1.1902 -1.1056
68855SOL    HW216496   5.451   0.531   9.359 -0.3759 -1.0995 -0.3695
68856SOL     OW16497  12.393  10.224   7.578 -0.0116  0.4180 -0.2344
68856SOL    HW116498  12.353  10.296   7.529  0.1420  0.7080  0.0664
68856SOL    HW216499  12.389  10.150   7.517  0.5796  0.8824 -0.8517
68857SOL     OW16500   4.521   8.215   9.963  0.3098  0.2262  0.0021
68857SOL    HW116501   4.611   8.240   9.941  0.0564  1.7481  0.5332
68857SOL    HW216502   4.530   8.128  10.003  1.4721  0.1309 -0.4061
68858SOL     OW16503   4.390   8.481  11.997  0.7682  0.1036 -0.1231
68858SOL    HW116504   4.353   8.411  11.944 -0.0050  0.3333  0.0937
68858SOL    HW216505   4.389   8.446  12.086  0.5847  0.3025 -0.0458
68859SOL     OW16506   4.699   2.690   0.250  0.0968 -0.2166  0.5374
68859SOL    HW116507   4.682   2.766   0.194  0.3129 -1.1316 -0.8441
68859SOL    HW216508   4.634   2.625   0.221  0.6735 -0.9488  0.8680
68860SOL     OW16509   0.765   7.857   6.164 -0.1480  0.2221 -0.1607
68860SOL    HW116510   0.829   7.850   6.235 -1.5009 -0.6361  1.0159
68860SOL    HW216511   0.698   7.792   6.185  0.4564 -1.6583 -3.3770
68861SOL     OW16512   0.333   5.600   7.890 -0.2912 -0.1694  1.0816
68861SOL    HW116513   0.406   5.539   7.881 -0.4966 -0.1474 -1.5935
68861SOL    HW216514   0.259   5.556   7.849 -0.4481  1.7780 -0.9384
68862SOL     OW16515   3.571   6.657  12.473 -0.5783 -0.4381  0.3266
68862SOL    HW116516   3.523   6.655  12.556 -0.5113  0.6290  0.4033
68862SOL    HW216517   3.663   6.652  12.499 -0.5236  0.5981  0.3746
68863SOL     OW16518  12.795   8.204   9.145  0.2276  0.4635  0.0463
68863SOL    HW116519  12.779   8.128   9.090  0.4095  0.8046 -0.4932
68863SOL    HW216520  12.725   8.266   9.122 -0.0205  0.3960  0.6033
68864SOL     OW16521   0.177   0.673   2.877 -0.3285 -0.3585  0.1982
68864SOL    HW116522   0.254   0.636   2.834 -0.9191 -2.0398  0.5284
68864SOL    HW216523   0.189   0.768   2.870  2.0086 -0.5568  0.6631
68865SOL     OW16524   7.698  10.479   3.254  0.7586 -0.0240 -0.1524
68865SOL    HW116525   7.620  10.490   3.199  0.3812 -1.2617  0.1008
68865SOL    HW216526   7.683  10.536   3.329 -0.2396 -0.7620  0.2247
68866SOL     OW16527   3.323   0.418   3.917  0.1583  0.5249  0.2582
68866SOL    HW116528   3.237   0.418   3.875  1.3982  0.6474 -2.4997
68866SOL    HW216529   3.335   0.329   3.951 -1.0036  0.5064  0.6513
68867SOL     OW16530   5.634  10.415   1.106 -0.1425 -0.0442  0.1576
68867SOL    HW116531   5.604  10.371   1.027  0.8156  0.1054 -0.3099
68867SOL    HW216532   5.729  10.408   1.103  0.0067  1.4692  0.3993
68868SOL     OW16533  11.844   3.557   0.678 -0.1103  0.0422  0.0468
68868SOL    HW116534  11.820   3.522   0.592 -0.1954  0.9640 -0.3112
68868SOL    HW216535  11.761   3.589   0.715  0.0330  0.2548  0.1875
68869SOL     OW16536   3.942  11.021   1.386  0.0430  0.2845  0.3332
68869SOL    HW116537   3.980  11.089   1.442  1.8876  0.4345 -0.9864
68869SOL    HW216538   4.003  11.014   1.312 -0.9020 -1.7432 -0.3408
68870SOL     OW16539   8.121  12.464   7.418  0.1365  0.0948  0.1223
68870SOL    HW116540   8.059  12.408   7.373 -0.3304  0.8041 -0.1170
68870SOL    HW216541   8.101  12.452   7.511 -0.9932  1.0439  0.0120
68871SOL     OW16542   3.938   2.861  12.753  0.2222 -0.0405  0.4682
68871SOL    HW116543   3.897   2.825  12.832 -2.2108  0.6771 -0.3576
68871SOL    HW216544   3.869   2.914  12.713  0.6941 -1.8169 -3.0669
68872SOL     OW16545   8.339  11.559   1.035 -0.7801  0.4273 -0.1172
68872SOL    HW116546   8.273  11.615   0.994  0.8906  1.8331 -1.0276
68872SOL    HW216547   8.403  11.620   1.071  1.4686 -0.8140 -1.7375
68873SOL     OW16548  12.648   2.384   1.392 -0.3964  0.2343  0.5337
68873SOL    HW116549  12.567   2.427   1.365 -0.3096  0.1279  0.1073
68873SOL    HW216550  12.703   2.455   1.424  0.1894  0.6133 -1.2312
68874SOL     OW16551   8.789   5.139   7.541  0.2388 -0.0402 -0.5088
68874SOL    HW116552   8.696   5.140   7.564  0.3694 -2.3907  0.3815
68874SOL    HW216553   8.826   5.214   7.589 -0.7020 -0.8361  1.5621
68875SOL     OW16554   2.715   4.877   7.953 -0.2261  0.0001 -0.5698
68875SOL    HW116555   2.678   4.827   8.026 -1.4182 -0.4526 -1.4498
68875SOL    HW216556   2.682   4.833   7.875  1.5276  0.0898 -1.4156
68876SOL     OW16557   8.506  10.787   1.554 -0.7280  0.2342 -0.5282
68876SOL    HW116558   8.491  10.694   1.536  1.0218 -0.6639  2.0690
68876SOL    HW216559   8.441  10.809   1.621  1.3764 -0.3983  1.9216
68877SOL     OW16560  11.067  10.896   2.330  0.0558  0.0853  0.2190
68877SOL    HW116561  11.071  10.819   2.273  0.6645  0.1283  0.2032
68877SOL    HW216562  10.988  10.942   2.301 -0.2291 -0.4507  0.1255
68878SOL     OW16563   4.899  11.609   9.533 -0.8125  0.4106  0.8677
68878SOL    HW116564   4.888  11.538   9.596 -0.3044 -2.3065 -1.8652
68878SOL    HW216565   4.993  11.614   9.518 -0.9080  1.1311  0.4530
68879SOL     OW16566   8.140   9.457   4.200  0.2864 -0.9711  0.4533
68879SOL    HW116567   8.169   9.447   4.291  1.6868 -1.5576 -0.0182
68879SOL    HW216568   8.187   9.534   4.168  1.5214 -1.9975 -0.3597
68880SOL     OW16569   7.638   6.021   8.849 -0.0835 -0.6986  0.6439
68880SOL    HW116570   7.646   5.931   8.881 -0.3281 -0.8973  0.1525
68880SOL    HW216571   7.613   6.012   8.757 -2.3725 -0.1270  1.1664
68881SOL     OW16572   1.487   3.602   8.170 -0.6049 -0.2998  0.0993
68881SOL    HW116573   1.569   3.607   8.219  0.0595  1.0801 -1.0846
68881SOL    HW216574   1.484   3.513   8.136  0.8319 -0.1390 -0.5282
68882SOL     OW16575   9.921   1.524  10.656 -0.0958  0.3021  0.8846
68882SOL    HW116576   9.914   1.461  10.728 -0.1311  0.0582  0.6672
68882SOL    HW216577   9.850   1.500  10.596 -0.4598  0.8893  1.0656
68883SOL     OW16578  10.087   2.399  10.819  0.1091 -0.1332 -0.3153
68883SOL    HW116579  10.039   2.329  10.863 -1.5087 -0.2295 -2.1358
68883SOL    HW216580  10.080   2.379  10.726  0.9064  1.6398 -0.7953
68884SOL     OW16581   6.055  12.504   7.743 -0.6566  0.3855 -0.0587
68884SOL    HW116582   6.010  12.563   7.803 -1.3809  0.1175 -0.3253
68884SOL    HW216583   5.998  12.427   7.738  0.4193 -0.4705  0.5062
68885SOL     OW16584   2.218   4.649  10.577  0.2339 -0.0878  0.3594
68885SOL    HW116585   2.207   4.695  10.660 -1.6609  0.4901 -0.1687
68885SOL    HW216586   2.171   4.703  10.513  0.8416 -1.0183 -0.9176
68886SOL     OW16587   8.211   0.973  11.267 -0.5938 -0.2887 -0.1756
68886SOL    HW116588   8.279   0.929  11.216  0.5027 -0.8604  1.6973
68886SOL    HW216589   8.215   1.065  11.238 -0.3636 -0.6804 -1.4554
68887SOL     OW16590   7.719   7.292   3.646  0.1975  0.3326 -0.1129
68887SOL    HW116591   7.677   7.334   3.572 -0.3173  0.6609  0.3545
68887SOL    HW216592   7.669   7.322   3.722  1.0885  0.4946  0.4309
68888SOL     OW16593   7.656  10.204   2.485  0.4099  0.0904 -0.1114
68888SOL    HW116594   7.726  10.167   2.431  1.5960  2.3129 -0.1965
68888SOL    HW216595   7.680  10.296   2.496 -3.3927  1.4509 -1.6054
68889SOL     OW16596   1.632  13.255  12.636  0.4071 -0.5149 -0.2527
68889SOL    HW116597   1.592  13.209  12.710 -0.1025  0.6098  0.1846
68889SOL    HW216598   1.726  13.236  12.644  0.1129 -2.3885 -0.7357
68890SOL     OW16599  11.004   3.869   0.260  0.2413 -0.6828 -0.0448
68890SOL    HW116600  11.085   3.836   0.221  0.5711 -0.1791  0.2104
68890SOL    HW216601  10.953   3.902   0.186 -0.0716 -1.6915 -0.2993
68891SOL     OW16602   2.745  10.004  10.503  0.3225 -0.0430  0.3922
68891SOL    HW116603   2.834  10.026  10.476  0.2905  2.6483  2.1225
68891SOL    HW216604   2.757   9.951  10.582  0.3631 -0.6913 -0.0400
68892SOL     OW16605  12.563   2.607   3.479 -0.7028  0.2034  0.5776
68892SOL    HW116606  12.653   2.578   3.494 -0.1540  2.1574  1.4006
68892SOL    HW216607  12.538   2.565   3.396  0.3315 -1.7048  1.1564
68893SOL     OW16608  12.831   0.113   5.946 -0.4736 -0.0527 -0.4994
68893SOL    HW116609  12.910   0.135   5.997  0.9775 -0.6498 -2.3613
68893SOL    HW216610  12.765   0.175   5.977  0.7786  0.6205  0.9964
68894SOL     OW16611   4.275   2.548   1.399  1.1135  0.8419  0.2566
68894SOL    HW116612   4.292   2.550   1.493 -0.9426  0.5194  0.6881
68894SOL    HW216613   4.234   2.632   1.380  0.2194  0.3535 -0.0446
68895SOL     OW16614   7.374  11.970   7.575  0.0873  0.1746  0.4158
68895SOL    HW116615   7.300  11.930   7.621  0.4631 -0.4243  0.5152
68895SOL    HW216616   7.424  11.895   7.542 -0.1833  0.5787 -0.9873
68896SOL     OW16617   1.605   8.758  10.208 -0.1944 -0.1672 -0.2145
68896SOL    HW116618   1.650   8.708  10.276 -0.7319  0.9248  1.0181
68896SOL    HW216619   1.651   8.737  10.127 -0.2310 -2.3908  0.2835
68897SOL     OW16620   8.640   4.237   0.448  0.0048  0.1870 -0.0925
68897SOL    HW116621   8.658   4.165   0.387 -3.7465 -1.3872  0.4299
68897SOL    HW216622   8.558   4.276   0.416  0.7920  2.9184  0.9037
68898SOL     OW16623  12.179   2.447   9.237  0.1940 -0.0081  0.3292
68898SOL    HW116624  12.243   2.466   9.168  0.8006 -1.4753  0.4549
68898SOL    HW216625  12.094   2.458   9.194  0.5519  0.1731 -0.3479
68899SOL     OW16626   2.904   0.759   8.151  0.1160 -0.2185  0.1610
68899SOL    HW116627   2.944   0.735   8.235  0.3325  0.3297  0.2204
68899SOL    HW216628   2.843   0.688   8.132 -2.0556  0.9867  2.1681
68900SOL     OW16629   3.483   7.759   6.192 -0.0785  0.5081 -0.2986
68900SOL    HW116630   3.453   7.678   6.234  0.7720 -0.3050 -1.2285
68900SOL    HW216631   3.406   7.792   6.146  0.3751 -1.6535 -2.8156
68901SOL     OW16632  13.056  10.441   7.660  0.2142 -0.2919  0.1532
68901SOL    HW116633  13.005  10.476   7.587 -0.4739 -0.1574  0.6927
68901SOL    HW216634  13.066  10.348   7.641 -1.0220 -0.5011  0.5036
68902SOL     OW16635   0.176   2.111   3.735 -0.1563 -0.4438 -0.4059
68902SOL    HW116636   0.257   2.128   3.781 -0.1042 -0.1172 -0.6189
68902SOL    HW216637   0.140   2.033   3.777 -0.3408  0.1121  0.4876
68903SOL     OW16638   4.055   7.767   6.000  0.1948  0.6324  0.0882
68903SOL    HW116639   4.021   7.679   6.017  0.4885  0.0228 -2.1100
68903SOL    HW216640   3.986   7.826   6.029  0.1974 -0.2596  2.0699
68904SOL     OW16641   2.941   4.350   4.269  0.4588 -0.0726  0.3269
68904SOL    HW116642   2.984   4.277   4.225 -0.9852 -0.6210 -0.2329
68904SOL    HW216643   2.848   4.328   4.267  0.0337  1.5698  0.5463
68905SOL     OW16644   6.569  11.815   4.517  0.8741 -0.1932  0.0330
68905SOL    HW116645   6.488  11.772   4.490  0.1776  1.3629 -0.5036
68905SOL    HW216646   6.563  11.819   4.612 -0.1326  0.6674 -0.0381
68906SOL     OW16647   5.952  10.018   8.061  0.3882 -0.3703 -0.0535
68906SOL    HW116648   5.904   9.954   8.009  2.4470 -3.0858  1.1387
68906SOL    HW216649   6.033  10.034   8.011  0.5034  0.2548  0.3199
68907SOL     OW16650   5.431   2.557  10.452  0.3379 -0.0059 -0.3445
68907SOL    HW116651   5.454   2.464  10.455 -0.4898 -0.2111 -0.0387
68907SOL    HW216652   5.488   2.594  10.385  1.3324 -0.5420  0.1885
68908SOL     OW16653   6.052  11.027   3.039 -0.2305  0.2016 -0.1903
68908SOL    HW116654   6.120  11.052   2.976  0.6742 -0.4718  0.4951
68908SOL    HW216655   6.100  10.992   3.114 -1.3191  0.2689  0.5659
68909SOL     OW16656   6.380   0.552   9.944  0.4666  0.2701  0.0376
68909SOL    HW116657   6.470   0.576   9.918  0.6282 -0.2805  0.0800
68909SOL    HW216658   6.325   0.612   9.895  0.8875  1.1782  0.6399
68910SOL     OW16659   2.123   3.665   6.879 -0.0757  0.3838 -0.2091
68910SOL    HW116660   2.055   3.609   6.842  1.9815 -1.6971 -1.1071
68910SOL    HW216661   2.146   3.724   6.807 -1.6956  1.9925  0.4943
68911SOL     OW16662   9.519   0.451   0.816 -0.1557  0.7473  0.2303
68911SOL    HW116663   9.605   0.456   0.858  0.1042 -2.0434  0.1913
68911SOL    HW216664   9.457   0.451   0.888  0.0783 -0.3612  0.4418
68912SOL     OW16665   2.641  13.135   5.021 -0.0384  0.6310 -0.1527
68912SOL    HW116666   2.565  13.116   5.076  1.4645 -3.0759  0.9957
68912SOL    HW216667   2.691  13.200   5.071 -1.8871  2.4000 -0.4826
68913SOL     OW16668   6.888   0.114   2.001 -0.0006  0.4564 -0.2397
68913SOL    HW116669   6.845   0.133   1.917 -1.8082 -0.6688  0.3892
68913SOL    HW216670   6.880   0.195   2.051 -1.9276  0.1307  0.0507
68914SOL     OW16671   4.716   9.640  11.495 -0.3330  0.0591 -0.0107
68914SOL    HW116672   4.651   9.701  11.531 -0.1357 -0.1491  0.7206
68914SOL    HW216673   4.691   9.628  11.404 -2.1155 -1.0444  0.5830
68915SOL     OW16674   7.098   9.361   6.729  0.4066  0.7742 -0.1046
68915SOL    HW116675   7.109   9.362   6.825 -0.2460  0.0855 -0.0168
68915SOL    HW216676   7.027   9.423   6.712  1.9137  2.5405 -0.3624
68916SOL     OW16677   0.089   8.473   4.549  0.0482  0.5970  0.5593
68916SOL    HW116678   0.162   8.432   4.596  0.3730  2.3427  1.6968
68916SOL    HW216679   0.018   8.476   4.613  0.2673  2.3799  0.7732
68917SOL     OW16680   3.371   6.113   8.841 -0.3395  0.2755 -0.2578
68917SOL    HW116681   3.458   6.152   8.853 -0.0942  0.5001 -2.3237
68917SOL    HW216682   3.316   6.156   8.906  0.7056  1.4594 -0.1138
68918SOL     OW16683   4.481  12.893   8.632 -0.0958  0.6646 -0.8547
68918SOL    HW116684   4.552  12.829   8.642  0.3294  1.1426 -0.7686
68918SOL    HW216685   4.515  12.957   8.569 -0.2769  1.1405 -0.4740
68919SOL     OW16686  11.814   5.500   1.529  0.0458  0.3052  0.2804
68919SOL    HW116687  11.788   5.547   1.608  0.8190  0.1668  0.6243
68919SOL    HW216688  11.755   5.534   1.461  0.6206  1.8274  0.4932
68920SOL     OW16689  10.174   6.100   8.711 -0.2029  0.5769  0.3106
68920SOL    HW116690  10.182   6.189   8.746  0.7740  0.6870 -0.1416
68920SOL    HW216691  10.256   6.057   8.736 -1.3553 -0.7720  2.0100
68921SOL     OW16692  11.995   8.932  13.250  0.7191 -0.4391 -0.3618
68921SOL    HW116693  12.024   9.021  13.266 -0.2829 -0.0344 -0.7364
68921SOL    HW216694  11.905   8.929  13.282 -0.1796 -0.5619 -2.6852
68922SOL     OW16695  13.302  12.249   7.819  0.0002 -0.3376  0.7665
68922SOL    HW116696  13.240  12.318   7.842  0.6563 -0.2921  2.5906
68922SOL    HW216697  13.338  12.276   7.735 -0.0668  1.3658  1.2376
68923SOL     OW16698   8.741   6.001   0.885  0.3393  0.3597 -0.5318
68923SOL    HW116699   8.752   6.086   0.843  0.2247 -0.1827 -1.7054
68923SOL    HW216700   8.694   5.948   0.820  0.6463 -0.6762  0.0683
68924SOL     OW16701  11.277  13.289   6.922  0.9745 -0.5117  0.2615
68924SOL    HW116702  11.237  13.373   6.947  1.3443 -0.4457  0.6346
68924SOL    HW216703  11.369  13.310   6.907  0.8999 -0.6819 -0.5115
68925SOL     OW16704   4.204   1.770  12.823  0.3717  0.5482  0.8878
68925SOL    HW116705   4.176   1.737  12.737  1.2450  1.1665  0.3467
68925SOL    HW216706   4.262   1.702  12.857  1.8125  1.2624 -0.0272
68926SOL     OW16707  10.625   0.655  12.402 -0.2842  0.0783 -0.3486
68926SOL    HW116708  10.697   0.717  12.418 -0.0464 -0.5304  1.1471
68926SOL    HW216709  10.604   0.621  12.489 -1.2212 -1.0533 -0.9973
68927SOL     OW16710  11.395   4.992   9.343  0.0331  0.3038  0.0484
68927SOL    HW116711  11.414   4.984   9.249  0.4947  0.4333  0.1263
68927SOL    HW216712  11.316   5.046   9.347  0.5992  1.1843 -0.2395
68928SOL     OW16713   7.276   4.633   0.594  0.1595 -0.0051  0.3589
68928SOL    HW116714   7.241   4.672   0.514  0.0316 -0.0389  0.3979
68928SOL    HW216715   7.216   4.662   0.663  0.8318  0.8515  0.6022
68929SOL     OW16716   0.276  12.422   4.093  0.0563 -0.2005 -0.0244
68929SOL    HW116717   0.331  12.493   4.059 -0.9248  0.3931 -0.3843
68929SOL    HW216718   0.209  12.410   4.026 -0.3580 -0.8085  0.4994
68930SOL     OW16719   1.210   3.743   4.147  0.4922 -0.4672 -0.5509
68930SOL    HW116720   1.198   3.827   4.191  0.1028 -0.0567 -1.4228
68930SOL    HW216721   1.290   3.754   4.096  0.4342 -0.6248 -0.6745
68931SOL     OW16722   1.541   7.616  10.171  0.6451 -0.0757  0.5382
68931SOL    HW116723   1.454   7.586  10.144  0.5030 -0.3715  1.3186
68931SOL    HW216724   1.582   7.645  10.089 -0.0447 -0.2876  0.1074
68932SOL     OW16725   8.163   3.009   0.384  0.6868 -0.6634  0.0691
68932SOL    HW116726   8.126   2.933   0.429 -1.4323  1.8814  3.0604
68932SOL    HW216727   8.102   3.026   0.312  1.4685 -1.9861 -0.9619
68933SOL     OW16728  11.961   9.764  12.170 -0.2020 -0.7991 -0.0884
68933SOL    HW116729  11.974   9.804  12.084  1.0973  1.2728  0.9893
68933SOL    HW216730  11.867   9.774  12.187 -0.2903 -0.2843 -0.8434
68934SOL     OW16731   0.756  13.000   3.721  0.7147 -0.0635 -0.7008
68934SOL    HW116732   0.793  12.950   3.649  0.3523  0.5944 -1.3623
68934SOL    HW216733   0.709  13.072   3.679 -0.8304 -0.5418  0.1121
68935SOL     OW16734   4.361   7.690  11.823 -0.5125  0.6286  0.2494
68935SOL    HW116735   4.280   7.740  11.810 -0.0144  2.0415  2.1379
68935SOL    HW216736   4.431   7.754  11.808  0.1512  0.5471  2.6862
68936SOL     OW16737  13.209   8.625   4.273  0.5578  0.3309 -0.7672
68936SOL    HW116738  13.221   8.705   4.323  4.5837 -0.2294 -0.5423
68936SOL    HW216739  13.275   8.629   4.204 -1.4653 -1.2634 -2.9876
68937SOL     OW16740   0.929  11.191  11.419  0.1303 -0.3938  0.2516
68937SOL    HW116741   0.953  11.210  11.509  0.3030  0.4488  0.0402
68937SOL    HW216742   1.007  11.213  11.368  0.0558 -0.9155 -0.1017
68938SOL     OW16743   3.968  12.322  10.266  0.2229  0.2770 -0.5842
68938SOL    HW116744   3.899  12.283  10.320  0.6706  0.4100  0.0966
68938SOL    HW216745   4.022  12.248  10.240 -0.8318  0.0022 -2.1256
68939SOL     OW16746   1.540   2.731  10.421  0.3520  0.0992 -0.3561
68939SOL    HW116747   1.634   2.714  10.421  0.3398 -0.1751  1.3737
68939SOL    HW216748   1.509   2.697  10.506 -0.8766  2.4436  0.2447
68940SOL     OW16749  12.242   9.987  12.646  0.1222  0.3249  0.1641
68940SOL    HW116750  12.215   9.895  12.644  0.6122  0.1756 -1.6072
68940SOL    HW216751  12.169  10.034  12.606  0.8325  0.3900 -1.1024
68941SOL     OW16752   1.464   2.919   4.033 -0.0991 -0.1838 -0.2804
68941SOL    HW116753   1.414   2.944   4.111  0.3177 -0.5023  0.0906
68941SOL    HW216754   1.555   2.914   4.062 -0.0757 -1.4523 -0.5042
68942SOL     OW16755   2.336   8.259  12.023 -0.0129 -0.1541  0.2850
68942SOL    HW116756   2.414   8.210  12.049 -0.0428 -0.3228  0.0587
68942SOL    HW216757   2.289   8.274  12.104  0.1318 -0.2658  0.3907
68943SOL     OW16758   8.241   7.985  12.897  0.5422  0.4799 -0.3446
68943SOL    HW116759   8.304   7.963  12.966 -0.3010  1.3203  0.7251
68943SOL    HW216760   8.269   8.071  12.866  0.6793  0.2819 -0.7764
68944SOL     OW16761   7.522  13.006   2.542  0.8698 -0.3810 -0.2508
68944SOL    HW116762   7.511  13.003   2.447 -0.3255 -4.5196 -0.1479
68944SOL    HW216763   7.615  12.992   2.556  0.8090 -1.4440 -0.8258
68945SOL     OW16764   6.287   1.007   3.524 -0.1289  0.0991 -0.6045
68945SOL    HW116765   6.372   1.005   3.479 -0.4889  0.0544 -1.2933
68945SOL    HW216766   6.245   0.925   3.499  0.1688 -0.5250  0.8396
68946SOL     OW16767   0.021  12.232   8.083  0.0784  0.2721 -0.0337
68946SOL    HW116768   0.111  12.253   8.110  0.5610 -0.1726 -1.2286
68946SOL    HW216769   0.019  12.251   7.990  0.2349 -3.6736 -1.0135
68947SOL     OW16770   4.708  10.028   0.495  0.2694  0.5623  0.0842
68947SOL    HW116771   4.669  10.017   0.581  0.0327 -0.2115 -0.1086
68947SOL    HW216772   4.677   9.952   0.445  0.0801  1.2058 -0.8013
68948SOL     OW16773   6.114   8.359   0.449  0.1859 -0.3196  0.1983
68948SOL    HW116774   6.207   8.335   0.444  0.5002  0.7213  0.8308
68948SOL    HW216775   6.101   8.415   0.372  0.0893 -0.4153  0.1446
68949SOL     OW16776  12.949  11.537   4.258 -0.2903 -0.1258  0.1891
68949SOL    HW116777  12.942  11.562   4.350 -1.9944  4.1045 -0.8656
68949SOL    HW216778  12.865  11.562   4.219  0.8269 -0.5165 -2.7747
68950SOL     OW16779   5.365   8.286   6.511  0.1075 -0.0967  0.0278
68950SOL    HW116780   5.449   8.325   6.485 -0.3499  0.3960 -0.7554
68950SOL    HW216781   5.318   8.358   6.554 -0.1606 -0.1914 -0.1073
68951SOL     OW16782   4.390   4.161  11.189  0.2845  0.4249  0.1155
68951SOL    HW116783   4.332   4.093  11.157 -0.8573  1.2803  0.2764
68951SOL    HW216784   4.419   4.208  11.111 -0.7565  1.1487  0.1360
68952SOL     OW16785   9.757   3.241   2.800 -0.0129  0.3109 -0.3678
68952SOL    HW116786   9.778   3.163   2.748  1.6920  0.8747 -0.5875
68952SOL    HW216787   9.772   3.214   2.891 -1.4319 -0.1966 -0.2588
68953SOL     OW16788   7.485  12.455   7.522  0.1683 -0.2726  0.1729
68953SOL    HW116789   7.578  12.475   7.508  0.2658 -0.9951 -0.2561
68953SOL    HW216790   7.485  12.366   7.557 -0.3133  0.1079  1.1925
68954SOL     OW16791  12.791   6.365   7.525 -0.5740  0.6377 -0.3234
68954SOL    HW116792  12.754   6.385   7.439  1.1256 -1.6032 -1.6962
68954SOL    HW216793  12.885   6.384   7.516 -0.5438  1.6506  1.5203
68955SOL     OW16794  10.709   0.650  10.151 -0.4982 -0.3195  0.7300
68955SOL    HW116795  10.702   0.655  10.246 -2.4089 -2.1978  0.7800
68955SOL    HW216796  10.759   0.727  10.126 -1.4270  1.1591  3.1145
68956SOL     OW16797  13.277   2.033   2.687 -0.2593 -0.0893  0.1582
68956SOL    HW116798  13.313   2.076   2.765  0.1218  1.8142 -1.0042
68956SOL    HW216799  13.336   1.960   2.671  0.1955  0.0479  1.1227
68957SOL     OW16800  11.911   0.924  11.466  0.0020 -0.2998  0.0293
68957SOL    HW116801  11.937   0.831  11.466 -2.4895 -1.0870  1.7896
68957SOL    HW216802  11.882   0.940  11.377  0.2497 -1.2658 -0.2450
68958SOL     OW16803   8.985   1.441   0.102  0.3252  0.3712 -0.0547
68958SOL    HW116804   9.072   1.481   0.102  0.1022  0.8661 -0.5225
68958SOL    HW216805   8.939   1.483   0.029 -0.5607  0.6555  0.6460
68959SOL     OW16806   6.324   4.630   5.614 -0.2974  0.2423 -0.6099
68959SOL    HW116807   6.387   4.568   5.650 -1.3549 -0.5630 -0.1060
68959SOL    HW216808   6.367   4.665   5.536 -0.2827 -2.2762 -1.8071
68960SOL     OW16809   4.903   6.908  10.807  0.1915  0.0354  0.0036
68960SOL    HW116810   4.937   6.941  10.724  0.0945 -0.3184 -0.1794
68960SOL    HW216811   4.882   6.816  10.790  1.8544 -0.5516  0.9055
68961SOL     OW16812   0.653   6.282   1.034 -0.2031  0.1080 -0.1811
68961SOL    HW116813   0.710   6.209   1.060 -1.7163 -0.4515  1.8188
68961SOL    HW216814   0.699   6.360   1.066 -0.9381 -0.4124  2.4199
68962SOL     OW16815  12.812   8.964   7.954 -0.0058  0.0645  0.5536
68962SOL    HW116816  12.775   8.886   7.996 -1.8869  0.8652  0.4575
68962SOL    HW216817  12.781   8.960   7.864  1.2179  0.1158  0.1134
68963SOL     OW16818   1.691   5.344   1.393 -0.3902 -0.6234  0.2862
68963SOL    HW116819   1.708   5.264   1.345  1.7180 -0.5126  0.7605
68963SOL    HW216820   1.690   5.413   1.327  0.7994 -0.6897  0.1796
68964SOL     OW16821   9.982   4.889   2.294  0.1236  0.2790 -0.1167
68964SOL    HW116822  10.069   4.866   2.259  1.2161  2.5431  0.9313
68964SOL    HW216823   9.943   4.943   2.226 -0.1151  0.0182 -0.1915
68965SOL     OW16824  11.735  13.177   9.100  0.3685 -0.0280  0.3629
68965SOL    HW116825  11.784  13.176   9.019  0.5315 -1.5272  0.4568
68965SOL    HW216826  11.670  13.247   9.088  0.6259  0.0137 -0.8992
68966SOL     OW16827   1.055   9.300   1.435 -0.1800 -0.1650 -0.4530
68966SOL    HW116828   1.143   9.266   1.423  0.9735  2.4209  0.0103
68966SOL    HW216829   1.050   9.322   1.528 -0.2173  2.3457 -0.9769
68967SOL     OW16830  13.240   6.920   6.028  0.6790  0.0246  0.0837
68967SOL    HW116831  13.232   6.892   5.937 -0.1491 -0.8251  0.4039
68967SOL    HW216832  13.238   6.839   6.078 -0.6488  0.5705  0.9611
68968SOL     OW16833   6.298   5.516  12.403  0.6236  0.2719  0.7342
68968SOL    HW116834   6.292   5.537  12.310 -1.5218 -2.6950  0.0613
68968SOL    HW216835   6.267   5.595  12.447 -2.1159  0.5072 -1.3226
68969SOL     OW16836   6.501   5.647  11.965 -0.1680 -0.2214  0.1395
68969SOL    HW116837   6.579   5.600  11.995 -0.4927 -2.3872 -2.1045
68969SOL    HW216838   6.528   5.739  11.966  1.0763 -0.4797  3.0362
68970SOL     OW16839  11.246   6.044   1.890  0.6157 -0.1617 -0.0938
68970SOL    HW116840  11.325   6.016   1.844  0.6481 -0.6770  0.2765
68970SOL    HW216841  11.275   6.060   1.980 -0.3588 -3.8952  1.0479
68971SOL     OW16842   5.899  13.157   1.961 -0.2268  0.3135 -0.1802
68971SOL    HW116843   5.899  13.122   2.050 -2.7393  0.2802 -0.1222
68971SOL    HW216844   5.881  13.250   1.972  0.4908  0.5098 -0.6166
68972SOL     OW16845  12.018   6.186   4.338  0.1938 -0.1535  0.3334
68972SOL    HW116846  12.096   6.238   4.359 -0.3592  0.6954  0.3664
68972SOL    HW216847  12.029   6.164   4.246  0.1729  0.5260  0.1581
68973SOL     OW16848  12.416   3.375  10.716  0.5452 -1.0948  0.3070
68973SOL    HW116849  12.331   3.386  10.674  0.6735  1.8971  0.6125
68973SOL    HW216850  12.450   3.464  10.726  2.5123 -1.9843  2.6579
68974SOL     OW16851   6.795   8.092   9.948  0.0864  0.2032 -0.1834
68974SOL    HW116852   6.852   8.036   9.895 -0.9052 -0.6799 -0.3470
68974SOL    HW216853   6.853   8.127  10.016  0.8894 -0.4171 -0.5256
68975SOL     OW16854  10.287  12.205   6.727  0.5986 -0.3555 -0.1217
68975SOL    HW116855  10.345  12.203   6.803  0.8691 -1.4693 -0.3444
68975SOL    HW216856  10.266  12.113   6.710 -0.2223 -0.0526 -0.8142
68976SOL     OW16857   5.039   0.826   9.849  0.2383  0.1184 -0.3482
68976SOL    HW116858   5.113   0.863   9.802 -0.3085  1.7099 -0.0150
68976SOL    HW216859   5.068   0.821   9.940  0.7740 -1.5838 -0.5710
68977SOL     OW16860  12.167   3.455   4.899  0.3896 -0.3639 -0.0311
68977SOL    HW116861  12.236   3.396   4.869  1.8994  1.2723  0.0322
68977SOL    HW216862  12.147   3.426   4.988  1.1166 -0.7564  0.0085
68978SOL     OW16863   3.600  10.250  11.868 -0.1016 -0.1278  0.3808
68978SOL    HW116864   3.649  10.327  11.840  1.7226 -0.8385  1.4261
68978SOL    HW216865   3.653  10.175  11.839  0.0913 -0.9140  2.5555
68979SOL     OW16866   3.173   3.872  10.338  0.2980 -0.4991 -0.0599
68979SOL    HW116867   3.157   3.786  10.299 -1.8271 -0.2383  0.1521
68979SOL    HW216868   3.178   3.932  10.263 -0.4587 -0.4824 -0.0973
68980SOL     OW16869  10.677   2.510   2.041  0.1199 -0.1883 -0.5751
68980SOL    HW116870  10.724   2.545   1.965  1.3872  3.3597  1.5884
68980SOL    HW216871  10.745   2.470   2.095 -0.1170  0.6236  0.3504
68981SOL     OW16872   8.068   3.634   4.258  0.4103  0.3016  0.2673
68981SOL    HW116873   8.049   3.727   4.244  2.5810  0.7189 -0.2182
68981SOL    HW216874   8.157   3.622   4.226  0.1834 -1.9773  0.2951
68982SOL     OW16875   3.234   3.044   8.168  0.0672 -0.3239 -0.1419
68982SOL    HW116876   3.220   3.074   8.078 -1.0875 -0.3203  0.0230
68982SOL    HW216877   3.147   3.015   8.197 -0.2532  2.3477  1.9451
68983SOL     OW16878   9.751   0.431   6.272  0.3922  0.3240 -0.3424
68983SOL    HW116879   9.709   0.411   6.188  0.0265 -0.0777 -0.0666
68983SOL    HW216880   9.756   0.347   6.317  2.5031  0.1322 -0.8062
68984SOL     OW16881  10.141   2.602   3.396  0.5741  0.1422  0.3853
68984SOL    HW116882  10.110   2.623   3.308 -1.2054 -3.8405 -0.1364
68984SOL    HW216883  10.225   2.559   3.382 -0.3672 -1.7988  0.3863
68985SOL     OW16884   3.037   5.357   5.492  0.4470 -0.5887 -0.4141
68985SOL    HW116885   3.041   5.416   5.417  0.5165 -2.2602 -1.7635
68985SOL    HW216886   2.947   5.324   5.492  0.9149 -1.8807 -0.7832
68986SOL     OW16887   8.012  11.891   0.959 -0.7250  0.6528 -0.2236
68986SOL    HW116888   8.088  11.946   0.978 -0.7051  0.1301  1.4121
68986SOL    HW216889   8.016  11.821   1.025 -0.7036 -1.3933 -2.2782
68987SOL     OW16890   5.523   7.281   2.038 -0.4392  0.4029 -0.2429
68987SOL    HW116891   5.551   7.215   2.102 -1.3525  0.5365  0.3341
68987SOL    HW216892   5.501   7.357   2.092 -2.2858  0.1592 -0.5628
68988SOL     OW16893   9.481  12.812   9.312  0.7029  0.4312 -0.6911
68988SOL    HW116894   9.430  12.770   9.243  0.9509  0.1213 -0.6856
68988SOL    HW216895   9.565  12.832   9.271  1.2349 -0.6937 -0.1978
68989SOL     OW16896   4.074   5.339   2.166  0.5114 -0.0547 -0.7686
68989SOL    HW116897   4.036   5.267   2.216 -0.3526  0.6217 -0.4096
68989SOL    HW216898   4.057   5.317   2.074 -0.6774  0.1734 -0.6197
68990SOL     OW16899   4.167   3.923   7.322  0.2290 -0.1033 -0.2938
68990SOL    HW116900   4.166   3.992   7.255  0.5610  0.3338  0.1488
68990SOL    HW216901   4.181   3.842   7.272 -1.5427 -0.0432 -0.9800
68991SOL     OW16902   2.699   2.845   2.075 -0.2347  0.3158  0.4495
68991SOL    HW116903   2.745   2.921   2.111 -1.2361  1.2738 -0.2124
68991SOL    HW216904   2.617   2.842   2.123 -1.4473  1.4108 -1.4005
68992SOL     OW16905   0.582  11.751   9.085 -0.1926 -0.0948 -0.0437
68992SOL    HW116906   0.618  11.808   9.017 -2.2635 -0.2660 -1.3987
68992SOL    HW216907   0.488  11.748   9.066 -0.9428  0.1483  3.0938
68993SOL     OW16908   5.730  11.910   6.966  0.6013 -0.0688  0.0684
68993SOL    HW116909   5.660  11.965   6.931  1.6438  1.5832  0.4408
68993SOL    HW216910   5.807  11.933   6.913  1.4291  0.0410  1.2736
68994SOL     OW16911   6.936   7.674   0.611  0.0896 -0.0697 -0.4216
68994SOL    HW116912   7.022   7.647   0.577  0.9950  1.9726  0.1274
68994SOL    HW216913   6.950   7.683   0.705 -0.8426 -0.0510 -0.2821
68995SOL     OW16914   8.468  11.129   2.804 -0.2399 -0.3871  0.2119
68995SOL    HW116915   8.493  11.043   2.771  2.0641  0.3153 -0.0074
68995SOL    HW216916   8.375  11.138   2.780  0.2202 -1.6302 -2.3335
68996SOL     OW16917   4.138   1.239   9.266  0.2428 -0.1580  0.0115
68996SOL    HW116918   4.160   1.313   9.209 -0.0034  0.3983  0.6336
68996SOL    HW216919   4.146   1.162   9.209  2.7625  0.0967 -0.0563
68997SOL     OW16920   9.877   4.846   5.070 -0.3945  0.0614 -0.2015
68997SOL    HW116921   9.843   4.826   5.157 -2.1936 -1.9118 -1.2833
68997SOL    HW216922   9.843   4.933   5.050  0.9293  1.0149  1.4316
68998SOL     OW16923   9.887   8.341   1.454  0.7691 -0.1297  0.0387
68998SOL    HW116924   9.922   8.252   1.453 -0.2881 -0.5534 -0.9753
68998SOL    HW216925   9.892   8.368   1.546 -1.2917 -2.2137  0.8363
68999SOL     OW16926   7.517   0.787   4.889  0.2188  0.0982 -0.2380
68999SOL    HW116927   7.480   0.776   4.802  0.4244  0.3767 -0.3626
68999SOL    HW216928   7.521   0.699   4.926 -0.1867  0.0196 -0.3786
69000SOL     OW16929   5.202  10.518   8.315  0.5614  0.2843 -0.2480
69000SOL    HW116930   5.160  10.486   8.236  0.2521  1.4271 -0.5714
69000SOL    HW216931   5.195  10.446   8.378 -1.0266  0.0926 -0.6080
69001SOL     OW16932   6.800   8.420  10.437 -0.2504  0.4400  0.0163
69001SOL    HW116933   6.803   8.493  10.498 -0.2285  0.5073 -0.0660
69001SOL    HW216934   6.822   8.458  10.352 -0.6476  0.4153 -0.0985
69002SOL     OW16935   5.515   5.408  11.220 -0.1056  0.4533 -0.4203
69002SOL    HW116936   5.501   5.414  11.314  2.1351 -0.2286  0.0169
69002SOL    HW216937   5.600   5.449  11.205  0.6817 -1.4988 -1.7663
69003SOL     OW16938   1.002   4.040   2.615 -0.4751  0.4853 -0.2040
69003SOL    HW116939   1.026   4.000   2.532 -0.7414 -2.7300  1.1550
69003SOL    HW216940   0.912   4.014   2.631 -0.3977  0.9313  1.1641
69004SOL     OW16941   8.319   6.266  12.457 -0.1657 -0.1997 -0.0699
69004SOL    HW116942   8.386   6.324  12.419 -0.0978 -0.8894 -1.0546
69004SOL    HW216943   8.250   6.326  12.487 -0.3026  0.4055 -1.4742
69005SOL     OW16944  10.921   2.895   0.526 -0.6011 -0.1292 -0.0870
69005SOL    HW116945  10.826   2.896   0.532 -0.6006 -1.2744  0.3329
69005SOL    HW216946  10.940   2.934   0.441 -1.5063 -1.1262 -0.7656
69006SOL     OW16947  12.772   1.256  10.563  0.1267  0.1799 -0.1519
69006SOL    HW116948  12.769   1.349  10.540 -0.4741  0.4032  0.7858
69006SOL    HW216949  12.802   1.255  10.654 -0.1568 -0.5229 -0.0606
69007SOL     OW16950   0.386   0.162  13.160 -0.0666  0.3131 -0.9399
69007SOL    HW116951   0.338   0.208  13.090  0.0435  0.7076 -0.7611
69007SOL    HW216952   0.395   0.072  13.129 -0.4461  0.3707 -1.2184
69008SOL     OW16953   9.118   4.766   3.897 -0.0890  0.0269 -0.1973
69008SOL    HW116954   9.157   4.852   3.880  0.9259 -0.1539  1.0468
69008SOL    HW216955   9.174   4.704   3.851 -0.4544 -0.0348 -0.5687
69009SOL     OW16956   2.130   2.583  11.258  0.0373  0.4633  0.0543
69009SOL    HW116957   2.148   2.494  11.288  0.3666  0.0054 -1.4511
69009SOL    HW216958   2.139   2.579  11.163 -0.9018  1.8903 -0.1204
69010SOL     OW16959   4.723  11.525   6.552  0.5045  0.2414 -0.5765
69010SOL    HW116960   4.769  11.471   6.617 -0.5793 -0.4865 -0.3722
69010SOL    HW216961   4.751  11.490   6.468  1.0701  0.4553 -0.4825
69011SOL     OW16962  12.782  12.187   4.844 -0.9195  0.5334 -0.0714
69011SOL    HW116963  12.841  12.149   4.909 -0.2702 -1.9869 -1.9577
69011SOL    HW216964  12.733  12.253   4.892  1.6032  0.9375  2.2273
69012SOL     OW16965  10.909  10.895   6.150 -0.1138  0.2526  0.3699
69012SOL    HW116966  10.854  10.968   6.122  0.6476  0.3340 -1.0275
69012SOL    HW216967  10.994  10.913   6.111 -0.4959 -2.5589 -2.1220
69013SOL     OW16968   6.411   8.823   5.081  0.3523  0.4682 -0.2783
69013SOL    HW116969   6.323   8.805   5.114 -0.1431  0.5571 -1.5177
69013SOL    HW216970   6.450   8.736   5.069  0.1378  0.4048 -0.5162
69014SOL     OW16971  12.968   8.593  10.693  0.0039  0.2332 -0.3968
69014SOL    HW116972  12.988   8.504  10.723  0.0278  0.0746 -0.8808
69014SOL    HW216973  12.874   8.592  10.677 -0.6246  1.2015  2.6353
69015SOL     OW16974  12.935   9.672   9.792 -0.0544 -0.7713 -0.2640
69015SOL    HW116975  13.010   9.616   9.774 -0.9500 -2.2833  0.4556
69015SOL    HW216976  12.938   9.686   9.887 -0.1767 -0.0959 -0.3599
69016SOL     OW16977   8.687  12.542   5.879  0.1158 -0.2468 -0.1206
69016SOL    HW116978   8.646  12.560   5.964  1.4089 -0.2974  0.5328
69016SOL    HW216979   8.678  12.625   5.831 -0.5548 -0.1956  0.0717
69017SOL     OW16980   8.884   2.345   2.351  0.7586 -0.4960  0.6047
69017SOL    HW116981   8.961   2.341   2.407  0.6642  1.5920  0.9365
69017SOL    HW216982   8.919   2.347   2.262  0.9120 -3.5103  0.4754
69018SOL     OW16983   0.881   1.186  12.673 -0.0328 -0.6803  0.3304
69018SOL    HW116984   0.918   1.098  12.679  0.5382 -0.3988  1.1028
69018SOL    HW216985   0.907   1.229  12.755  0.0782  0.3554 -0.2275
69019SOL     OW16986   6.773  10.617   9.513 -0.4545  0.1453 -0.3273
69019SOL    HW116987   6.721  10.565   9.451 -0.6577  0.7090 -0.6414
69019SOL    HW216988   6.849  10.645   9.462 -0.6671  0.6853 -0.3577
69020SOL     OW16989  11.739   5.036   1.141  0.1104  0.4914 -0.7413
69020SOL    HW116990  11.782   5.004   1.062  0.8981 -0.1933 -0.0622
69020SOL    HW216991  11.656   4.988   1.145  0.6946 -0.5331 -0.4275
69021SOL     OW16992  11.385   6.233  11.181 -0.1741 -0.3949 -0.1739
69021SOL    HW116993  11.326   6.301  11.148 -0.8717 -1.0215 -0.2357
69021SOL    HW216994  11.337   6.151  11.169  0.1422 -0.7835  1.0640
69022SOL     OW16995   2.369   6.166   0.439 -0.5315  0.0150 -0.3972
69022SOL    HW116996   2.335   6.083   0.471  0.3487  0.1431  0.9965
69022SOL    HW216997   2.310   6.232   0.475 -0.4847  0.0619 -0.4054
69023SOL     OW16998   2.099   1.972   3.419 -0.0928 -0.2469  0.0376
69023SOL    HW116999   2.080   2.037   3.487 -0.9291  0.0001 -0.4221
69023SOL    HW217000   2.064   2.010   3.339 -2.9049 -2.2997  0.1628
69024SOL     OW17001   3.146   5.108   6.865 -0.2393  0.3018 -0.3068
69024SOL    HW117002   3.072   5.060   6.902 -0.2769  0.3653 -0.2978
69024SOL    HW217003   3.129   5.199   6.888 -0.6559  0.4411 -1.1148
69025SOL     OW17004   9.114   6.301   1.999  0.3176  0.3431  0.0083
69025SOL    HW117005   9.065   6.371   2.040 -0.6995 -0.1310 -0.3718
69025SOL    HW217006   9.048   6.241   1.965  1.1546 -1.0524  0.7240
69026SOL     OW17007   2.939   9.657   2.568  0.0998 -0.4801 -0.0344
69026SOL    HW117008   2.926   9.714   2.643  2.1556  1.0120 -0.7226
69026SOL    HW217009   2.851   9.625   2.546 -0.7836  0.5591  1.8056
69027SOL     OW17010   6.301   3.596  13.302  0.1176 -0.0373 -0.0339
69027SOL    HW117011   6.360   3.526  13.272  0.1312  0.1209 -0.3915
69027SOL    HW217012   6.218   3.577  13.259 -0.2804 -0.6252  0.9837
69028SOL     OW17013  13.055   3.167   1.118  0.5142  0.4390 -0.3080
69028SOL    HW117014  13.074   3.216   1.038 -1.1105  0.5450 -0.6692
69028SOL    HW217015  12.985   3.217   1.161 -0.4795 -0.9947 -0.1743
69029SOL     OW17016   9.326   5.521   4.275  0.2578 -0.2238 -0.0999
69029SOL    HW117017   9.292   5.452   4.218 -1.1116  0.3509 -0.0307
69029SOL    HW217018   9.301   5.603   4.232  0.3920  0.2210  0.6446
69030SOL     OW17019   1.985  12.695  12.510 -0.0264  0.0170 -0.2375
69030SOL    HW117020   2.047  12.622  12.507 -1.0286 -0.8487 -0.0204
69030SOL    HW217021   1.953  12.696  12.600  0.8123  1.4558  0.0786
69031SOL     OW17022   1.312  13.251   9.403  0.4678  0.1177 -0.6076
69031SOL    HW117023   1.388  13.310   9.403 -0.9357  2.0933  1.5503
69031SOL    HW217024   1.237  13.309   9.413 -1.1262 -1.9837  0.2224
69032SOL     OW17025  11.963   3.648   6.544 -0.4430  0.1550 -0.5633
69032SOL    HW117026  11.899   3.685   6.604  1.0160  0.0410  1.1307
69032SOL    HW217027  11.951   3.553   6.552 -1.5641  0.1404 -1.9876
69033SOL     OW17028   5.803   6.449   7.392  0.2367  0.2699 -0.2056
69033SOL    HW117029   5.833   6.388   7.458 -1.7379 -1.1423 -0.5213
69033SOL    HW217030   5.842   6.418   7.310  0.4179  0.3234 -0.1392
69034SOL     OW17031   5.794   2.739   6.940  0.1630 -0.1903 -0.7871
69034SOL    HW117032   5.774   2.650   6.910 -1.7367 -0.0608 -0.0818
69034SOL    HW217033   5.877   2.731   6.987  0.0902 -1.5632 -0.8482
69035SOL     OW17034   8.023  12.956   3.332 -0.2750 -0.4575  0.7366
69035SOL    HW117035   7.972  12.947   3.252  0.8748  0.0206 -0.0739
69035SOL    HW217036   8.033  13.050   3.345 -2.1969 -0.4250  2.6321
69036SOL     OW17037   6.758   8.883   7.259  1.3548  0.2551  0.0511
69036SOL    HW117038   6.743   8.840   7.175  0.9826  0.8494 -0.1942
69036SOL    HW217039   6.797   8.815   7.314  1.5439 -0.1616 -0.5796
69037SOL     OW17040   0.362   1.351  12.283 -0.3052 -0.4440 -0.0200
69037SOL    HW117041   0.301   1.397  12.225 -0.5391 -1.3124 -0.4733
69037SOL    HW217042   0.431   1.415  12.301  0.0909 -0.3679 -1.7376
69038SOL     OW17043   9.956   4.638   4.895  0.1327 -0.2738  0.2126
69038SOL    HW117044   9.932   4.707   4.957 -3.9472 -0.4754 -0.8638
69038SOL    HW217045   9.960   4.683   4.810  0.2215 -0.9188 -0.1326
69039SOL     OW17046   6.586  12.255   1.434 -0.2158 -0.1063  0.0756
69039SOL    HW117047   6.517  12.320   1.423  0.1592  0.1640 -0.8355
69039SOL    HW217048   6.540  12.175   1.457 -0.7315  0.3528  0.6780
69040SOL     OW17049   5.153   5.150  12.105  0.2789 -0.1809 -0.1288
69040SOL    HW117050   5.086   5.177  12.167 -0.6375  1.1463 -1.6177
69040SOL    HW217051   5.166   5.227  12.049  0.9206 -1.3676 -1.6917
69041SOL     OW17052   1.516   4.293  11.420 -0.0945 -0.4839 -0.1548
69041SOL    HW117053   1.537   4.275  11.328  0.8822  1.9762 -0.5070
69041SOL    HW217054   1.592   4.341  11.453 -1.2792  0.4683  1.3551
69042SOL     OW17055  13.311   8.839   8.427  0.1551 -0.1277  0.8150
69042SOL    HW117056  13.362   8.918   8.444  1.1613 -0.6213  0.1571
69042SOL    HW217057  13.328   8.818   8.335 -0.1071 -1.0992  0.9730
69043SOL     OW17058  11.593   3.366   4.886  0.1213 -0.2629  0.1061
69043SOL    HW117059  11.580   3.366   4.792  0.2745  1.2978  0.0646
69043SOL    HW217060  11.680   3.403   4.899 -0.0666 -0.0650  0.8725
69044SOL     OW17061   2.068   4.090   4.769  0.2790  0.3400  0.7917
69044SOL    HW117062   2.071   4.127   4.681 -1.3825  0.2022  0.6379
69044SOL    HW217063   2.159   4.072   4.791  0.7633  0.8208 -0.7095
69045SOL     OW17064   8.174   7.532   0.446 -0.0004 -0.3187  0.3257
69045SOL    HW117065   8.186   7.446   0.406  0.5972  1.0643 -2.8198
69045SOL    HW217066   8.088   7.561   0.415  0.7233  1.0324 -0.5359
69046SOL     OW17067  11.435   7.269   8.103 -0.3970 -0.0783 -0.4113
69046SOL    HW117068  11.346   7.249   8.073 -0.2798 -2.4707  0.5912
69046SOL    HW217069  11.492   7.235   8.034 -0.2445 -1.1099  0.1936
69047SOL     OW17070   1.464   2.555   0.436 -0.2684 -0.8006 -0.7704
69047SOL    HW117071   1.393   2.600   0.482 -1.4132 -1.9281 -1.3835
69047SOL    HW217072   1.484   2.479   0.490  1.1439 -0.0243 -0.1314
69048SOL     OW17073   6.327   0.440   1.902  0.3865  0.0708 -0.0484
69048SOL    HW117074   6.409   0.451   1.949  0.2454  0.9885 -0.0100
69048SOL    HW217075   6.274   0.516   1.925 -0.3184 -0.2920 -0.4015
69049SOL     OW17076   0.836   0.754   4.411  0.3404  0.5359 -0.4799
69049SOL    HW117077   0.808   0.682   4.355  0.4681  1.0071 -1.1560
69049SOL    HW217078   0.910   0.718   4.461  0.0426  0.0271 -0.3962
69050SOL     OW17079   2.324   8.776   0.457 -0.8489  0.2408 -0.3994
69050SOL    HW117080   2.367   8.846   0.507 -0.5547  0.8653 -1.5116
69050SOL    HW217081   2.232   8.781   0.484 -0.4695 -0.3321  1.1064
69051SOL     OW17082   3.590   6.543   3.296 -0.2820  0.8373 -0.0413
69051SOL    HW117083   3.517   6.554   3.357  0.5517  3.7233  0.5825
69051SOL    HW217084   3.556   6.573   3.212 -0.3502  0.4230 -0.1614
69052SOL     OW17085   6.931   6.473   5.888 -0.0807 -0.0441 -0.6315
69052SOL    HW117086   6.953   6.403   5.827 -2.4317 -2.4154  1.0081
69052SOL    HW217087   6.836   6.484   5.878 -0.6044 -0.6840  2.6025
69053SOL     OW17088   2.815   2.966   8.469 -0.6251 -0.0548 -0.0485
69053SOL    HW117089   2.733   2.936   8.508 -0.6650 -1.2695 -1.0134
69053SOL    HW217090   2.814   3.060   8.484 -2.2446 -0.0181 -0.1199
69054SOL     OW17091   2.510   0.621   5.346  0.1158  0.5143 -0.7821
69054SOL    HW117092   2.535   0.687   5.282 -0.8539  0.6823 -0.9954
69054SOL    HW217093   2.453   0.561   5.298 -0.8770  0.8170 -0.0156
69055SOL     OW17094   4.215   3.197   4.416 -0.2513 -0.6820  0.3374
69055SOL    HW117095   4.151   3.175   4.348  0.5539  0.4876 -0.8459
69055SOL    HW217096   4.170   3.260   4.472 -0.4499 -0.5781  0.0624
69056SOL     OW17097   7.560   4.489  11.507  0.0554 -0.3409  0.3478
69056SOL    HW117098   7.550   4.584  11.496  0.0470 -0.6203 -3.2827
69056SOL    HW217099   7.655   4.474  11.500  0.2420 -0.5424  2.5515
69057SOL     OW17100   6.983   7.763   6.725 -0.2802 -0.5085 -0.2927
69057SOL    HW117101   7.041   7.751   6.650 -0.1460  0.5163 -0.3591
69057SOL    HW217102   6.939   7.847   6.709 -0.2939 -0.2996  0.7456
69058SOL     OW17103   1.471   8.797  11.184 -0.0472 -0.2149  0.0738
69058SOL    HW117104   1.515   8.718  11.215 -0.3495 -0.4752 -0.1594
69058SOL    HW217105   1.451   8.780  11.092  1.6986  0.9295 -0.5621
69059SOL     OW17106   2.847   4.970   2.024 -0.2405 -0.4081 -0.0706
69059SOL    HW117107   2.800   4.915   1.961  0.4318  1.5459 -2.4348
69059SOL    HW217108   2.938   4.942   2.018 -0.0377  0.3230 -0.6484
69060SOL     OW17109  12.069   5.436   6.980  0.1423 -0.3857  0.2020
69060SOL    HW117110  12.094   5.514   7.029 -0.5472  0.5568 -0.8765
69060SOL    HW217111  12.126   5.436   6.903 -1.1017  0.1682 -0.7811
69061SOL     OW17112   3.818   3.185  10.968 -0.2654 -0.0504  0.3450
69061SOL    HW117113   3.783   3.274  10.957 -0.1910  0.0407  0.8452
69061SOL    HW217114   3.913   3.196  10.965 -0.2458 -0.3288 -1.2684
69062SOL     OW17115   3.123   4.953  10.201  0.2605 -0.6072 -0.2244
69062SOL    HW117116   3.048   4.923  10.150  1.1325 -0.6259 -1.5712
69062SOL    HW217117   3.087   5.021  10.259 -1.0772 -1.8015  0.3909
69063SOL     OW17118   2.834  10.356  10.547 -0.3045  0.1755  0.4278
69063SOL    HW117119   2.922  10.327  10.570 -0.4813 -1.6002 -0.9007
69063SOL    HW217120   2.847  10.424  10.481  0.0775  0.2327  0.5597
69064SOL     OW17121   3.040  12.526   4.578  0.2213 -0.0045  0.1781
69064SOL    HW117122   3.035  12.436   4.546 -2.1094  0.4880 -1.1178
69064SOL    HW217123   3.077  12.575   4.506  0.5331  0.2309  0.4986
69065SOL     OW17124   8.041   8.002  10.970  0.1782  0.6560 -0.0248
69065SOL    HW117125   7.980   8.066  10.932  0.1545  0.2541 -0.6596
69065SOL    HW217126   8.124   8.049  10.975 -0.0375  1.0177  0.3157
69066SOL     OW17127   4.673   3.527   2.412  0.3661  0.0177 -0.1716
69066SOL    HW117128   4.653   3.582   2.487  0.6612 -0.4943  0.2912
69066SOL    HW217129   4.604   3.547   2.348  0.4964  0.9416 -0.0367
69067SOL     OW17130   6.727   0.870   2.531 -0.1756 -0.0104 -0.1131
69067SOL    HW117131   6.715   0.847   2.439 -0.5144  1.0416 -0.3449
69067SOL    HW217132   6.808   0.825   2.556 -0.7368 -1.3025 -0.5705
69068SOL     OW17133   7.447  11.327  10.304  0.4086 -0.2925  0.5623
69068SOL    HW117134   7.431  11.288  10.390 -2.9144  1.5096  0.9571
69068SOL    HW217135   7.380  11.288  10.248 -1.4256  2.7394  0.4013
69069SOL     OW17136   9.251   3.648  11.908 -0.0536 -0.7298 -0.1620
69069SOL    HW117137   9.338   3.609  11.907 -0.1070 -0.8297 -0.9250
69069SOL    HW217138   9.260   3.729  11.859 -0.2514 -0.4345  0.2820
69070SOL     OW17139   2.962   9.653   8.223 -0.1064 -0.1216  0.2710
69070SOL    HW117140   2.949   9.561   8.201 -2.0589  0.3521 -0.7603
69070SOL    HW217141   2.939   9.700   8.144 -4.1282  1.4944  2.1414
69071SOL     OW17142  11.130   8.073   0.677  0.2405  0.0636 -0.5394
69071SOL    HW117143  11.106   8.152   0.725  0.2421  1.2577 -2.4012
69071SOL    HW217144  11.061   8.010   0.697 -0.4046  0.9359  0.0444
69072SOL     OW17145   9.035   0.344   7.595  0.3087 -0.3654 -0.4330
69072SOL    HW117146   9.051   0.286   7.521 -0.6984  0.8245 -1.6273
69072SOL    HW217147   8.995   0.422   7.557  1.4000  1.0456  1.1314
69073SOL     OW17148  12.757   6.743   2.669  0.4969 -0.4795 -0.5784
69073SOL    HW117149  12.788   6.680   2.734  2.7135  0.4206 -0.6818
69073SOL    HW217150  12.804   6.824   2.690 -0.3566  0.4194 -2.0026
69074SOL     OW17151   7.649  10.890  11.551 -0.0868 -0.1959 -0.2840
69074SOL    HW117152   7.564  10.887  11.594 -0.7168 -1.9886 -1.5515
69074SOL    HW217153   7.707  10.839  11.608 -0.1850 -0.1146 -0.1095
69075SOL     OW17154   3.410  11.449   0.059 -0.0084 -0.3068 -0.0616
69075SOL    HW117155   3.395  11.502   0.137  1.2401 -1.5036  1.0504
69075SOL    HW217156   3.367  11.365   0.079  1.5410 -1.1195 -0.0213
69076SOL     OW17157  12.648  10.002   4.765  0.2015  0.3265 -0.0389
69076SOL    HW117158  12.581   9.973   4.827 -1.5501 -0.2799 -2.0689
69076SOL    HW217159  12.612  10.082   4.726 -0.8142 -1.4649 -3.1570
69077SOL     OW17160  11.740   2.018   6.125 -0.4441  0.3558  0.5261
69077SOL    HW117161  11.660   1.973   6.099  0.2511 -0.3910 -0.3869
69077SOL    HW217162  11.799   1.948   6.154  0.2848  0.7729  0.0894
69078SOL     OW17163   4.103   9.410   8.120 -0.4353  0.0203 -0.1039
69078SOL    HW117164   4.182   9.376   8.163 -1.3012 -1.9517 -0.0155
69078SOL    HW217165   4.033   9.396   8.184 -1.2390 -0.2594 -1.0337
69079SOL     OW17166   0.156  11.403   9.197 -0.0147  0.7219 -0.3108
69079SOL    HW117167   0.165  11.415   9.291 -0.1754  0.9505 -0.3238
69079SOL    HW217168   0.245  11.416   9.163 -0.1073  1.4751 -0.2775
69080SOL     OW17169  11.304  12.843   2.257 -0.2890 -0.1843  0.2173
69080SOL    HW117170  11.267  12.830   2.345  0.9253  2.8908  1.3358
69080SOL    HW217171  11.306  12.938   2.246  1.3685 -0.4185 -2.3688
69081SOL     OW17172  13.115   9.514   2.203 -0.3500  0.1872  0.1057
69081SOL    HW117173  13.089   9.434   2.250 -1.5712  0.8672  0.6531
69081SOL    HW217174  13.076   9.504   2.116 -0.5348  0.1895  0.1855
69082SOL     OW17175   2.823  11.625   2.091 -0.1540  0.6285  0.1564
69082SOL    HW117176   2.774  11.542   2.083  0.5062  0.2111  0.3816
69082SOL    HW217177   2.786  11.666   2.169  0.2319  0.0430  0.6611
69083SOL     OW17178   9.379   8.123   1.208  0.1144 -0.0110  0.3490
69083SOL    HW117179   9.305   8.108   1.149 -2.1454 -0.0400  3.0172
69083SOL    HW217180   9.394   8.038   1.249 -0.1255  0.5693  1.6881
69084SOL     OW17181  12.002   7.364   5.567 -0.1124 -0.6736  0.5266
69084SOL    HW117182  11.921   7.415   5.573  0.1970 -0.1763  0.5044
69084SOL    HW217183  12.033   7.358   5.657  0.2203 -0.2240  0.4408
69085SOL     OW17184   2.473  11.234   2.550  0.4946  0.3175 -0.1625
69085SOL    HW117185   2.458  11.292   2.475 -1.6078  0.5558  0.3765
69085SOL    HW217186   2.522  11.287   2.612  0.4527  0.7972 -0.5361
69086SOL     OW17187  12.155   6.994   4.120 -0.7535  0.4290  0.0793
69086SOL    HW117188  12.118   7.064   4.067  1.1106  0.3086 -1.4849
69086SOL    HW217189  12.118   6.914   4.083 -1.9742  0.4816  1.1160
69087SOL     OW17190  11.263  11.284   9.471  0.1186  0.4175 -0.2756
69087SOL    HW117191  11.180  11.246   9.443 -0.1582  0.1805  0.7997
69087SOL    HW217192  11.301  11.321   9.392  0.4448 -2.1461 -1.3926
69088SOL     OW17193   5.635  11.554   3.924  0.2389 -0.4279 -0.3196
69088SOL    HW117194   5.614  11.644   3.900 -0.1059 -1.1666 -3.1116
69088SOL    HW217195   5.731  11.550   3.922  0.2349 -0.3030 -1.0047
69089SOL     OW17196   5.766   3.611   2.357 -0.2675  0.1127 -0.3114
69089SOL    HW117197   5.859   3.592   2.347 -0.5618 -1.8602  0.3161
69089SOL    HW217198   5.733   3.540   2.411 -1.7556  1.9001  1.2762
69090SOL     OW17199   1.577   5.937   8.737 -0.3973 -0.2814 -0.0501
69090SOL    HW117200   1.568   5.962   8.646 -1.1214 -1.0423 -0.1996
69090SOL    HW217201   1.577   5.841   8.736  1.4359 -0.3472  0.5757
69091SOL     OW17202   1.651  11.444   4.970 -0.4512  0.1304  0.3783
69091SOL    HW117203   1.617  11.447   5.059  2.6915  2.5570  1.7069
69091SOL    HW217204   1.728  11.387   4.975 -1.4726 -1.5091 -1.3775
69092SOL     OW17205   3.240   8.385  10.230  0.2676  0.1922 -0.7674
69092SOL    HW117206   3.301   8.449  10.193  1.3865 -0.3010  0.1556
69092SOL    HW217207   3.220   8.419  10.317 -1.7876  0.9869 -1.4945
69093SOL     OW17208   0.819   4.160   7.320  0.3725 -0.0899 -0.5916
69093SOL    HW117209   0.829   4.242   7.367 -0.8451 -0.9132  1.2189
69093SOL    HW217210   0.908   4.128   7.307  0.7529 -0.4974  2.4760
69094SOL     OW17211  11.228  13.075   9.207 -0.3230 -0.1825  0.2968
69094SOL    HW117212  11.140  13.064   9.244 -0.1949 -1.0508  0.3739
69094SOL    HW217213  11.254  13.163   9.232 -0.0571 -0.8782  2.7062
69095SOL     OW17214   4.669   5.004   9.157 -0.5575 -0.2485  0.3022
69095SOL    HW117215   4.590   4.984   9.208 -0.1925 -1.4752  0.4163
69095SOL    HW217216   4.697   4.920   9.122  0.4895  0.2321 -0.0645
69096SOL     OW17217  12.971   2.290   2.555  0.3633 -0.1120  0.0357
69096SOL    HW117218  12.957   2.385   2.554 -1.4470 -0.3527  0.5987
69096SOL    HW217219  13.065   2.280   2.540  0.7023  1.7957  0.6512
69097SOL     OW17220   6.138   4.409   4.529 -0.0727  0.4891  0.4735
69097SOL    HW117221   6.231   4.426   4.541 -0.1046 -0.5074  2.4600
69097SOL    HW217222   6.131   4.374   4.440  1.3442  1.1806  0.0748
69098SOL     OW17223   2.857  12.910   2.681 -0.4873 -0.1906 -0.3355
69098SOL    HW117224   2.819  12.879   2.599 -0.6144 -0.4135 -0.1907
69098SOL    HW217225   2.868  12.832   2.735  2.3049 -0.5261 -1.2016
69099SOL     OW17226  13.037  10.817   3.626  0.3818 -0.3292 -0.4998
69099SOL    HW117227  13.032  10.892   3.684  2.2283 -0.7642  0.2815
69099SOL    HW217228  13.066  10.852   3.542  3.3657 -0.3425  0.4229
69100SOL     OW17229   5.715  11.531   8.791  1.0454  0.1872 -0.3825
69100SOL    HW117230   5.733  11.471   8.863  1.2321 -0.2298 -0.7745
69100SOL    HW217231   5.699  11.474   8.716 -1.5073  0.5145 -0.1792
69101SOL     OW17232   0.185   2.737   6.577 -0.2000  0.3658 -0.0904
69101SOL    HW117233   0.141   2.724   6.661  0.7467 -0.2659  0.3269
69101SOL    HW217234   0.266   2.783   6.599  0.6643 -0.9180 -0.4818
69102SOL     OW17235  11.077   8.423  12.586  0.6266  0.4191 -0.0945
69102SOL    HW117236  11.091   8.444  12.679 -0.9593  0.2872  0.1978
69102SOL    HW217237  11.045   8.333  12.586 -0.5264  0.8075 -0.6538
69103SOL     OW17238   5.045   4.938   9.509  0.0760  0.1820 -0.9339
69103SOL    HW117239   5.063   4.888   9.589  0.9312  0.9556 -0.6295
69103SOL    HW217240   4.949   4.944   9.507  0.0466  0.9103  0.5425
69104SOL     OW17241   0.092   3.336  10.077  0.0210  0.1756 -0.3117
69104SOL    HW117242   0.090   3.242  10.093  0.3657 -0.1652 -2.0566
69104SOL    HW217243   0.001   3.364  10.083 -0.1008 -0.2932  0.0493
69105SOL     OW17244   8.312   4.819  11.040 -0.2370  0.0479  0.2687
69105SOL    HW117245   8.219   4.802  11.057 -0.4397 -0.2097 -1.0258
69105SOL    HW217246   8.313   4.867  10.957  0.7596  0.6012  0.5836
69106SOL     OW17247   6.225  12.325   5.383  0.9228  0.6565 -0.4472
69106SOL    HW117248   6.157  12.287   5.439  1.9567 -1.5130 -0.5565
69106SOL    HW217249   6.270  12.388   5.438 -0.8007  1.7646 -0.2204
69107SOL     OW17250  12.167   1.889   0.165 -0.4608  0.1764  0.1943
69107SOL    HW117251  12.229   1.833   0.213  0.1064  1.7617  1.3946
69107SOL    HW217252  12.121   1.937   0.233 -1.4914  0.6090 -0.7854
69108SOL     OW17253   0.997  10.529   4.354  0.4539 -0.1469 -0.0841
69108SOL    HW117254   1.073  10.563   4.306 -0.1271 -0.3576 -1.1688
69108SOL    HW217255   0.975  10.448   4.310  1.8777 -2.1128  2.5149
69109SOL     OW17256   4.967  12.403  10.456 -0.3936  0.1351  0.6540
69109SOL    HW117257   4.949  12.309  10.467 -2.8988  0.2961 -1.1536
69109SOL    HW217258   4.938  12.423  10.367 -0.2344  2.7072  1.1059
69110SOL     OW17259  10.807   7.171   2.625 -0.2368 -0.4291 -0.2054
69110SOL    HW117260  10.799   7.208   2.713 -1.2559 -0.6659 -0.1818
69110SOL    HW217261  10.832   7.080   2.639  0.8912 -0.1270 -0.2136
69111SOL     OW17262   5.850   5.660   4.367  0.8260 -0.0120 -0.3068
69111SOL    HW117263   5.880   5.585   4.315  2.3878  0.6496 -0.4187
69111SOL    HW217264   5.898   5.735   4.330  1.0067  0.6775  1.2714
69112SOL     OW17265   8.186   7.654   9.470  0.0378  0.0891  0.1215
69112SOL    HW117266   8.279   7.636   9.477 -0.1057 -0.9797 -0.5413
69112SOL    HW217267   8.178   7.708   9.392  0.0119 -0.6312 -0.3859
69113SOL     OW17268  10.177   4.904   5.101 -1.1269 -0.6932 -0.8322
69113SOL    HW117269  10.206   4.995   5.101 -1.0921 -0.7028 -0.4297
69113SOL    HW217270  10.132   4.893   5.017  1.0721 -1.0193 -2.0790
69114SOL     OW17271  11.873   6.877  13.075  0.1233 -0.0944 -0.1037
69114SOL    HW117272  11.798   6.843  13.025 -1.1435  0.6833  1.1926
69114SOL    HW217273  11.950   6.838  13.032 -0.9379 -0.1664 -2.0810
69115SOL     OW17274   8.821   7.064   8.905 -0.3679  0.2655  0.2533
69115SOL    HW117275   8.880   7.055   8.829  1.4454  0.5466  1.5611
69115SOL    HW217276   8.808   6.974   8.935  3.8277  0.2729  3.0627
69116SOL     OW17277   1.623   3.956   8.628  0.2012 -0.2122 -0.3357
69116SOL    HW117278   1.716   3.975   8.640 -0.1501  1.8911 -0.5834
69116SOL    HW217279   1.587   3.959   8.716  0.3020 -0.6722 -0.2771
69117SOL     OW17280   5.707   4.518   5.623  0.2821 -0.0340 -0.5607
69117SOL    HW117281   5.668   4.541   5.539  3.4792  1.0742 -1.8981
69117SOL    HW217282   5.718   4.423   5.619  2.5318  0.2133 -2.5493
69118SOL     OW17283  12.257   8.370   1.206  0.0811 -0.0142 -0.2108
69118SOL    HW117284  12.269   8.401   1.116 -1.2621  0.4543 -0.2571
69118SOL    HW217285  12.167   8.395   1.228  1.1928  2.4646  2.2673
69119SOL     OW17286  10.883  10.356   1.766 -0.1526 -0.6721 -0.6923
69119SOL    HW117287  10.908  10.448   1.756 -0.3442 -0.5782 -0.3238
69119SOL    HW217288  10.916  10.313   1.687  1.4236 -0.5986 -0.1169
69120SOL     OW17289   9.031   6.350  11.508 -0.0566 -0.4461  0.5625
69120SOL    HW117290   9.003   6.274  11.560 -0.2682 -0.2619  0.7179
69120SOL    HW217291   9.015   6.323  11.417  0.3002 -0.7623  0.5883
69121SOL     OW17292   3.932   1.256   9.441  0.0348 -0.2606  0.0347
69121SOL    HW117293   4.016   1.260   9.397 -0.0053 -0.4158 -0.0557
69121SOL    HW217294   3.931   1.171   9.484  0.4668  0.2700  1.1278
69122SOL     OW17295   6.744   6.282  10.413  0.0863  0.2694  1.2331
69122SOL    HW117296   6.716   6.211  10.470  1.7303  0.2935  2.1244
69122SOL    HW217297   6.837   6.295  10.434  1.1887 -0.6202 -2.3841
69123SOL     OW17298   6.256   8.752   4.397 -0.8319  0.8603  0.6367
69123SOL    HW117299   6.191   8.767   4.465 -2.1803 -1.3941 -0.0632
69123SOL    HW217300   6.239   8.664   4.366  0.1759  1.5414 -2.1639
69124SOL     OW17301  11.487  11.391  10.544  0.5108 -0.1984  0.2579
69124SOL    HW117302  11.512  11.303  10.574  1.5956  0.8381  2.6582
69124SOL    HW217303  11.533  11.401  10.460 -0.4997 -2.2584 -0.6231
69125SOL     OW17304   7.132  11.860   1.776  0.1850  0.3129  0.4588
69125SOL    HW117305   7.123  11.767   1.799  0.7618  0.2781  0.5570
69125SOL    HW217306   7.085  11.869   1.693 -0.2481  0.0260  0.6719
69126SOL     OW17307   6.941  12.793   7.071  0.2502  0.4480  0.2958
69126SOL    HW117308   7.002  12.719   7.074 -0.1525  0.0947 -0.0321
69126SOL    HW217309   6.974  12.855   7.136  0.0991 -0.4033  1.2178
69127SOL     OW17310   0.800   8.266  10.080  0.5364 -0.5154  0.3672
69127SOL    HW117311   0.738   8.338  10.094  0.3274 -1.0037  2.3773
69127SOL    HW217312   0.874   8.306  10.035  0.1300  0.8217  0.8262
69128SOL     OW17313  10.650   7.734  11.360 -0.0989  0.1254 -0.7530
69128SOL    HW117314  10.714   7.665  11.343 -0.3949 -0.2584 -0.3448
69128SOL    HW217315  10.604   7.745  11.277 -1.1784 -1.3572 -0.4102
69129SOL     OW17316   5.733  11.513   1.112  0.8376  0.5585 -0.6810
69129SOL    HW117317   5.824  11.525   1.083  1.6239 -1.1482  0.8844
69129SOL    HW217318   5.725  11.568   1.190  0.2711  1.2538 -1.2097
69130SOL     OW17319   3.917  10.696   7.723  0.1765  0.4538 -0.3819
69130SOL    HW117320   3.871  10.639   7.785 -1.4093  0.8078 -1.1845
69130SOL    HW217321   3.851  10.718   7.657  1.5183  0.9745 -1.6058
69131SOL     OW17322   8.415   7.433   2.440  0.2605 -0.2814  0.0139
69131SOL    HW117323   8.351   7.433   2.369 -1.2914 -0.9036  1.3344
69131SOL    HW217324   8.397   7.352   2.489  2.1173 -0.5088  0.4000
69132SOL     OW17325  10.468  11.897   7.473 -0.4979 -0.5213 -0.2160
69132SOL    HW117326  10.389  11.849   7.448 -0.8875  0.3508 -0.6759
69132SOL    HW217327  10.443  11.989   7.468  0.1248 -0.2639  1.0590
69133SOL     OW17328  10.506   9.454   6.965  0.2874 -0.2912  0.2820
69133SOL    HW117329  10.414   9.473   6.947  0.6626  0.8225 -0.6324
69133SOL    HW217330  10.535   9.527   7.019  0.9647  0.1139 -0.6009
69134SOL     OW17331   9.411  11.746  11.454 -0.2304  0.5789  0.1885
69134SOL    HW117332   9.392  11.683  11.523 -0.2418 -0.7850 -1.0067
69134SOL    HW217333   9.493  11.716  11.416 -0.2272  1.2975 -0.4071
69135SOL     OW17334   3.025   3.835   7.533 -0.1239 -0.6118  0.3393
69135SOL    HW117335   3.115   3.814   7.505 -0.2240  1.7026 -2.1613
69135SOL    HW217336   3.035   3.876   7.619  1.0791 -1.3553  0.5764
69136SOL     OW17337   9.233  10.397   4.398 -0.0229 -0.1036 -0.3755
69136SOL    HW117338   9.313  10.446   4.378 -0.6189  1.3180  0.5322
69136SOL    HW217339   9.225  10.334   4.326  2.1374 -0.6063 -0.2508
69137SOL     OW17340   0.967   8.758  10.435 -0.4657  0.8289  0.4738
69137SOL    HW117341   0.954   8.715  10.351 -0.8143 -0.4730  1.1539
69137SOL    HW217342   0.893   8.818  10.444 -1.8839 -0.9078  0.9524
69138SOL     OW17343   4.915   1.030   0.461  0.1411 -0.4857  0.9879
69138SOL    HW117344   4.877   0.982   0.388 -2.5488  1.1497  1.1384
69138SOL    HW217345   4.846   1.091   0.488  2.8245  2.6099  1.5554
69139SOL     OW17346   4.947  11.176   2.857  0.1912  0.3527  0.2371
69139SOL    HW117347   5.015  11.140   2.914  0.7070  2.1377  0.7992
69139SOL    HW217348   4.974  11.266   2.841 -1.2040  0.6046 -0.8846
69140SOL     OW17349   7.906  11.034   4.492  0.0512  0.4675  0.2643
69140SOL    HW117350   7.944  10.967   4.548  0.8253  0.0266 -0.7544
69140SOL    HW217351   7.955  11.114   4.513  0.1103  0.3782  0.4627
69141SOL     OW17352   0.847  11.395   4.851 -0.3495 -0.6063 -0.1571
69141SOL    HW117353   0.838  11.483   4.887 -1.7134 -1.0089  0.5665
69141SOL    HW217354   0.825  11.337   4.924 -1.7821 -1.4763 -1.2199
69142SOL     OW17355  12.286   6.365   5.545  0.4290  0.2745 -0.7921
69142SOL    HW117356  12.199   6.375   5.585  0.9446 -0.2587  0.5021
69142SOL    HW217357  12.272   6.303   5.473 -0.0830 -0.6506  0.0776
69143SOL     OW17358   5.575  10.481   4.203 -0.1117 -0.0576  0.0421
69143SOL    HW117359   5.599  10.569   4.230 -1.5939  0.3978 -0.0062
69143SOL    HW217360   5.514  10.494   4.130  0.4602 -1.1571 -0.6525
69144SOL     OW17361   6.349  11.574   1.511  0.7947  0.0768 -0.5819
69144SOL    HW117362   6.283  11.639   1.532  0.8918  0.2231 -0.7286
69144SOL    HW217363   6.426  11.601   1.560  0.9880  0.3556 -1.0345
69145SOL     OW17364  10.756   8.393  12.231  0.4402  0.2633 -0.1727
69145SOL    HW117365  10.734   8.360  12.144  1.8810 -2.2418  0.3016
69145SOL    HW217366  10.813   8.326  12.268  1.8095  2.3867  1.8229
69146SOL     OW17367   9.903   0.882  10.308 -0.4154  0.0443 -0.4900
69146SOL    HW117368   9.998   0.895  10.299 -0.3123  0.5665  0.9807
69146SOL    HW217369   9.896   0.808  10.369 -0.8558  1.9076  1.9085
69147SOL     OW17370  11.276   5.856   6.520 -0.2596 -0.0515 -0.4548
69147SOL    HW117371  11.359   5.902   6.512 -0.1687 -0.3906 -1.8129
69147SOL    HW217372  11.220   5.913   6.573  0.3467  0.8796 -0.8133
69148SOL     OW17373   9.625  10.876   7.751 -0.0630  0.1371  0.1909
69148SOL    HW117374   9.659  10.842   7.669 -0.0395 -0.8211  0.5897
69148SOL    HW217375   9.530  10.870   7.743 -0.1550  2.0448 -0.5950
69149SOL     OW17376   8.052   1.301   3.059 -0.5045 -0.3876 -0.1685
69149SOL    HW117377   8.087   1.245   2.990  3.1395  1.6288 -0.1829
69149SOL    HW217378   8.038   1.385   3.017 -0.7493  0.1723  0.9835
69150SOL     OW17379   2.528   3.857   4.691  0.0616 -0.0865  0.8160
69150SOL    HW117380   2.553   3.852   4.599 -0.2168  0.7721  0.6782
69150SOL    HW217381   2.611   3.857   4.738  0.1765 -1.7206  0.6547
69151SOL     OW17382   3.427   2.126   9.061  0.0912 -0.0224  0.0393
69151SOL    HW117383   3.479   2.101   9.138 -0.1524  1.4384  0.7059
69151SOL    HW217384   3.349   2.071   9.067 -0.0429  0.2407  1.0000
69152SOL     OW17385   7.304   5.924   9.027 -0.5724  0.4890 -0.0423
69152SOL    HW117386   7.244   5.853   9.050  1.4013 -0.8943  1.2375
69152SOL    HW217387   7.391   5.886   9.040  0.6331  2.1598 -2.4793
69153SOL     OW17388  12.151   0.698   7.551  0.0982 -0.1217  0.4903
69153SOL    HW117389  12.201   0.779   7.537  0.7018 -0.4547  0.6707
69153SOL    HW217390  12.187   0.662   7.632  0.2914 -0.9022  0.0667
69154SOL     OW17391   3.347  10.899   2.817  0.0762  0.1082 -0.2698
69154SOL    HW117392   3.306  10.852   2.744  0.3646  2.2287 -1.8988
69154SOL    HW217393   3.381  10.979   2.777  1.4770  0.7017  1.9726
69155SOL     OW17394   7.834   0.299   6.628 -0.1361 -0.4869 -0.1674
69155SOL    HW117395   7.831   0.297   6.724  0.7961  0.6259 -0.1036
69155SOL    HW217396   7.762   0.357   6.604 -0.2960 -0.6715 -0.1353
69156SOL     OW17397   2.121   4.481  12.055  0.5761  0.1405 -1.3977
69156SOL    HW117398   2.072   4.399  12.048 -0.3968  0.4544  0.9999
69156SOL    HW217399   2.210   4.458  12.028 -0.1049 -1.1972 -2.6831
69157SOL     OW17400   2.108   7.789   7.232  0.2826 -0.1939 -0.3482
69157SOL    HW117401   2.106   7.857   7.164  1.2503  0.3054  0.1062
69157SOL    HW217402   2.035   7.810   7.289 -0.1885 -0.2808 -0.9062
69158SOL     OW17403   0.166  11.197   1.766  0.3224  0.5209  0.1691
69158SOL    HW117404   0.132  11.218   1.854 -0.8155 -1.5705  0.2731
69158SOL    HW217405   0.238  11.259   1.754  0.4510  0.9480  2.5411
69159SOL     OW17406   8.790  10.961   6.852 -0.7884 -0.1845  0.3101
69159SOL    HW117407   8.809  10.910   6.931 -2.5788  0.4928  1.2397
69159SOL    HW217408   8.875  10.977   6.813  0.1557 -0.6012  2.0739
69160SOL     OW17409   7.676  11.881   9.873 -0.6445 -0.3877 -0.6789
69160SOL    HW117410   7.748  11.818   9.865  0.6620  1.0344 -0.4756
69160SOL    HW217411   7.623  11.848   9.947 -0.5444 -1.7474 -1.1927
69161SOL     OW17412   9.267  10.215  10.363 -0.2109 -1.3436 -0.2166
69161SOL    HW117413   9.209  10.218  10.439  0.2939  1.6270  0.1599
69161SOL    HW217414   9.352  10.188  10.398  0.1377  0.4892  0.4048
69162SOL     OW17415   8.358   7.229   2.577 -0.3189  0.1468 -0.1259
69162SOL    HW117416   8.385   7.142   2.608 -0.0178  0.0729 -0.5878
69162SOL    HW217417   8.270   7.240   2.612 -0.3855 -0.3727 -0.1127
69163SOL     OW17418  11.436   4.375  11.937 -0.2677 -0.1928 -0.2393
69163SOL    HW117419  11.458   4.395  12.028  0.0953 -0.7732 -0.2028
69163SOL    HW217420  11.446   4.281  11.929 -0.1767 -0.1311 -0.9198
69164SOL     OW17421   5.595   2.184  12.546 -0.5626 -0.0413 -0.2856
69164SOL    HW117422   5.571   2.162  12.637  0.1457 -1.3398 -0.3833
69164SOL    HW217423   5.594   2.100  12.501  1.9902  0.1238 -0.7848
69165SOL     OW17424  11.296   8.879   5.287  0.4839  0.1525 -0.7712
69165SOL    HW117425  11.228   8.833   5.336 -0.4280 -0.0991 -2.2192
69165SOL    HW217426  11.310   8.960   5.334  0.4239 -0.5544  0.5057
69166SOL     OW17427  10.892   0.088   8.390  0.5545 -0.1594 -0.0612
69166SOL    HW117428  10.950   0.128   8.455  1.6334 -0.5063 -0.7880
69166SOL    HW217429  10.950   0.034   8.336 -0.2932  0.2120 -1.3840
69167SOL     OW17430   1.308  11.005   0.358  0.3067 -0.5516 -0.5747
69167SOL    HW117431   1.342  11.089   0.389  0.0123 -0.2985 -0.9288
69167SOL    HW217432   1.248  10.976   0.427  0.3139 -0.4124 -0.5094
69168SOL     OW17433   4.560   9.173   6.384  0.0352  0.2850  0.0402
69168SOL    HW117434   4.582   9.172   6.477 -1.8536 -0.0337  0.5365
69168SOL    HW217435   4.553   9.266   6.361 -0.5498  0.3620  0.5133
69169SOL     OW17436   0.830   9.429  12.813  0.0682 -0.1625  0.4926
69169SOL    HW117437   0.844   9.520  12.790  1.6453 -0.5895 -0.3799
69169SOL    HW217438   0.738   9.424  12.840 -0.5856  1.2869 -1.3510
69170SOL     OW17439   3.152  12.706  12.096 -0.6267 -0.4509 -0.1181
69170SOL    HW117440   3.235  12.703  12.048  0.0977 -2.4775  1.1501
69170SOL    HW217441   3.101  12.773  12.051  1.4056  0.3329 -1.4001
69171SOL     OW17442   1.022   7.469   0.845 -0.1154 -0.2242 -0.5550
69171SOL    HW117443   0.954   7.488   0.781  0.3713 -0.3909 -1.1271
69171SOL    HW217444   1.046   7.377   0.829  1.0911  0.1817 -1.1732
69172SOL     OW17445   0.663   6.120   3.106  0.1107 -0.4409 -0.1578
69172SOL    HW117446   0.590   6.113   3.168  0.8190 -1.5946  0.5799
69172SOL    HW217447   0.673   6.214   3.092  0.0435 -0.1288  1.6177
69173SOL     OW17448  12.123   5.785   4.519  0.1783 -0.0169 -0.0707
69173SOL    HW117449  12.160   5.750   4.438 -2.0543 -1.3887 -0.5819
69173SOL    HW217450  12.123   5.711   4.579 -0.3881  0.3471  0.3862
69174SOL     OW17451   8.002   1.591   3.716 -0.0232  0.0130  0.3187
69174SOL    HW117452   7.987   1.512   3.664 -1.6199 -0.9358  2.0798
69174SOL    HW217453   7.921   1.640   3.709  0.0140  0.2291  1.2784
69175SOL     OW17454   8.599   9.527   9.199  0.3480 -0.4229  0.3483
69175SOL    HW117455   8.516   9.513   9.245  0.8650 -0.7130  1.1951
69175SOL    HW217456   8.575   9.586   9.127 -0.5734 -0.3976  0.6522
69176SOL     OW17457  10.361   4.373   5.270  0.1206 -0.3724 -0.0614
69176SOL    HW117458  10.352   4.322   5.351 -0.8605 -0.5010 -0.2352
69176SOL    HW217459  10.394   4.458   5.299  0.3612 -0.6207  0.4033
69177SOL     OW17460   9.346  12.914  11.512 -0.2710 -0.0641  0.1826
69177SOL    HW117461   9.278  12.941  11.573 -0.3245  0.6452 -0.1886
69177SOL    HW217462   9.358  12.820  11.529 -0.8801 -0.0503  0.6912
69178SOL     OW17463  11.205   0.279   1.225 -0.2111  0.1414 -0.1673
69178SOL    HW117464  11.257   0.243   1.153  0.2319  1.5800 -0.5858
69178SOL    HW217465  11.228   0.372   1.228 -0.3598  0.1581  1.7125
69179SOL     OW17466   0.684  11.627   2.668 -0.0007 -0.3791 -0.1734
69179SOL    HW117467   0.704  11.698   2.729  0.7923  0.3035 -1.1990
69179SOL    HW217468   0.602  11.653   2.627  0.8502  0.5422 -1.3642
69180SOL     OW17469  12.062  10.771   8.620 -0.1859  0.0782 -0.1284
69180SOL    HW117470  12.040  10.745   8.530  0.2979  1.4534 -0.6740
69180SOL    HW217471  12.156  10.789   8.618  0.6090 -3.0880  1.5221
69181SOL     OW17472   7.539   5.729   5.289  0.0664  0.4744 -0.2791
69181SOL    HW117473   7.549   5.804   5.230  0.2771  1.0941  0.5384
69181SOL    HW217474   7.629   5.703   5.309 -0.0032 -0.0915 -0.6597
69182SOL     OW17475   9.860   5.665   4.180 -0.3575  0.1496 -0.3226
69182SOL    HW117476   9.880   5.759   4.180  2.6657 -0.3971 -0.2277
69182SOL    HW217477   9.896   5.633   4.097 -1.1193 -0.9944 -0.2335
69183SOL     OW17478   2.519  11.931   7.602  0.2995  0.1437  0.5498
69183SOL    HW117479   2.451  11.964   7.661  0.4569 -1.3867  1.6621
69183SOL    HW217480   2.509  11.836   7.606  1.7598 -0.0652 -0.1779
69184SOL     OW17481   6.448   6.222   5.147  0.0781  0.0977 -0.1743
69184SOL    HW117482   6.382   6.199   5.213  0.5210 -1.1745 -0.1341
69184SOL    HW217483   6.481   6.137   5.117  0.3893  0.6824 -1.5247
69185SOL     OW17484   2.680   0.309   4.448  0.3354  0.3144  0.2473
69185SOL    HW117485   2.666   0.391   4.494  0.5270 -0.0864  1.0530
69185SOL    HW217486   2.744   0.262   4.502  0.0588 -0.4545 -0.0739
69186SOL     OW17487   8.361   0.341   1.393  0.0719 -0.5113  0.6062
69186SOL    HW117488   8.428   0.327   1.326 -1.0580 -0.2593 -0.6285
69186SOL    HW217489   8.319   0.256   1.404  0.1813 -0.5261  0.9192
69187SOL     OW17490   6.449  10.453   2.142 -0.0355 -0.0703 -0.4198
69187SOL    HW117491   6.391  10.481   2.071 -1.4859  0.0022  0.7423
69187SOL    HW217492   6.403  10.479   2.222  0.8126 -1.5533  0.5932
69188SOL     OW17493   2.377   6.584  12.196 -0.1904  0.8921 -0.0699
69188SOL    HW117494   2.468   6.562  12.178 -0.4222 -0.3147  0.1265
69188SOL    HW217495   2.329   6.503  12.182 -1.0092  1.0781  1.4125
69189SOL     OW17496   5.993   9.112   4.634  0.2432 -0.1530  0.5819
69189SOL    HW117497   5.919   9.087   4.578  0.4207  0.2478  0.1606
69189SOL    HW217498   6.066   9.123   4.573 -0.0510  2.3753  0.5931
69190SOL     OW17499   1.558   7.652   4.778  0.3754 -0.2711 -0.2356
69190SOL    HW117500   1.544   7.721   4.842  1.6353 -0.7338  0.5872
69190SOL    HW217501   1.619   7.689   4.715 -1.3824  0.4215 -1.6192
69191SOL     OW17502   8.302   4.800   8.794 -0.1974 -0.4605  0.5230
69191SOL    HW117503   8.267   4.803   8.883  0.6558  0.2530  0.8592
69191SOL    HW217504   8.282   4.887   8.759 -1.3161 -1.0295 -0.3172
69192SOL     OW17505  13.305  12.673  12.061  0.2850 -1.1231 -0.6139
69192SOL    HW117506  13.233  12.647  12.119  1.2203 -0.0190  1.1211
69192SOL    HW217507  13.381  12.679  12.119  1.1259  0.6892 -1.8276
69193SOL     OW17508   8.538   6.508  12.420  0.7194 -0.3427  0.5021
69193SOL    HW117509   8.588   6.548  12.491  1.4023 -1.2109  0.5363
69193SOL    HW217510   8.603   6.493  12.351  0.2598 -0.3816  0.0725
69194SOL     OW17511   4.494  12.898   5.461  0.6528 -0.1569  0.1754
69194SOL    HW117512   4.551  12.822   5.449 -0.4870 -1.7344  3.4366
69194SOL    HW217513   4.405  12.865   5.445  0.2704  1.0244 -0.2850
69195SOL     OW17514   6.767   0.871   3.416 -0.8311  0.2011  0.3514
69195SOL    HW117515   6.789   0.779   3.400 -0.6313  0.1186  1.0632
69195SOL    HW217516   6.823   0.896   3.490 -0.6779  0.9798 -0.0187
69196SOL     OW17517  12.477  13.162  12.607 -0.5505 -0.0767 -0.1755
69196SOL    HW117518  12.383  13.153  12.616 -0.6091  0.9767  0.3093
69196SOL    HW217519  12.513  13.087  12.655 -1.1332 -0.9833 -1.0869
69197SOL     OW17520  13.074   1.771   5.172 -1.3193  0.1635  0.0610
69197SOL    HW117521  13.069   1.715   5.095 -2.3092  0.6354 -0.2439
69197SOL    HW217522  13.107   1.855   5.139 -0.6852  0.0367  0.3565
69198SOL     OW17523  13.207   4.246  11.705  0.0989  0.1755 -0.3988
69198SOL    HW117524  13.171   4.180  11.646  0.3394 -0.0074 -0.3429
69198SOL    HW217525  13.295   4.216  11.724 -0.3187 -0.3183  0.8662
69199SOL     OW17526   1.909  12.217   3.157  0.0604  0.1847  0.2278
69199SOL    HW117527   1.932  12.167   3.078  0.9759 -0.7538  1.0598
69199SOL    HW217528   1.993  12.244   3.193 -0.4030  1.9653  0.0624
69200SOL     OW17529   9.155   4.032   8.150  0.5392 -0.0878 -0.3290
69200SOL    HW117530   9.113   4.117   8.143  0.6289  0.0457  0.5872
69200SOL    HW217531   9.239   4.042   8.106 -0.1424 -0.1960 -1.6857
69201SOL     OW17532   5.757  12.684  12.568  0.7047  0.4866 -0.0911
69201SOL    HW117533   5.689  12.748  12.548  1.4955  0.8330 -1.9197
69201SOL    HW217534   5.712  12.599  12.566  0.0551  0.8169  0.2517
69202SOL     OW17535   9.038   0.615  10.148  0.1319  0.2107 -0.2072
69202SOL    HW117536   9.079   0.684  10.199 -0.2321  0.1883  0.1186
69202SOL    HW217537   9.045   0.537  10.202  2.2891 -0.4780 -1.3780
69203SOL     OW17538  11.702  12.403   4.219 -0.1102 -0.3739  0.3045
69203SOL    HW117539  11.757  12.332   4.184 -0.6009 -0.5465 -0.1486
69203SOL    HW217540  11.618  12.392   4.173 -0.3805  0.1444  0.6662
69204SOL     OW17541   6.350   3.293   9.130  0.8406  0.6154  0.4761
69204SOL    HW117542   6.435   3.266   9.164  1.1190  0.3442 -0.4133
69204SOL    HW217543   6.371   3.360   9.065  0.6155 -1.3746 -1.7694
69205SOL     OW17544  12.531   6.504  10.867 -0.2534  0.3323  0.3240
69205SOL    HW117545  12.597   6.441  10.895  0.1999  1.4800  2.0218
69205SOL    HW217546  12.540   6.577  10.929 -0.2411  2.4230 -1.9855
69206SOL     OW17547   4.312   4.151  12.881 -0.4972 -0.3458 -0.2223
69206SOL    HW117548   4.289   4.211  12.810  1.2694  1.4616  0.6065
69206SOL    HW217549   4.386   4.102  12.847  1.1334  1.3543  0.6500
69207SOL     OW17550   6.712  13.040   4.737  0.1190  0.2631  0.2334
69207SOL    HW117551   6.771  13.114   4.746 -1.1680  1.5099 -1.1053
69207SOL    HW217552   6.741  12.978   4.804  1.3081  1.9090  1.3151
69208SOL     OW17553   4.210   9.005   1.873  0.4595 -0.0429 -0.2567
69208SOL    HW117554   4.195   9.095   1.845 -0.0279  0.2212  0.7892
69208SOL    HW217555   4.302   9.002   1.899  0.1234  0.5849  1.1194
69209SOL     OW17556   3.101  11.284   0.962 -0.2255  0.1922 -0.1343
69209SOL    HW117557   3.092  11.188   0.965 -2.4812  0.1811 -2.8987
69209SOL    HW217558   3.111  11.304   0.869  1.0458  2.6489  0.4487
69210SOL     OW17559  11.448   9.633   2.056 -0.2743 -0.0558 -0.3939
69210SOL    HW117560  11.434   9.670   2.143 -1.0824  1.4343 -1.1128
69210SOL    HW217561  11.391   9.556   2.053  1.6462 -1.6325  1.2309
69211SOL     OW17562   3.779   6.723   8.419  0.3799  0.1830 -0.1042
69211SOL    HW117563   3.701   6.667   8.425  0.7903 -0.6139 -1.6245
69211SOL    HW217564   3.807   6.734   8.510 -1.4402  0.4264  0.4778
69212SOL     OW17565  12.408   6.041   9.242  0.0872  0.0051 -0.2431
69212SOL    HW117566  12.490   6.003   9.211 -0.2870 -0.2558 -0.9318
69212SOL    HW217567  12.342   6.009   9.181 -0.3772  1.0273 -0.2958
69213SOL     OW17568  10.168  11.851   8.337 -0.0078  0.1546  0.0201
69213SOL    HW117569  10.101  11.836   8.270  0.3446  0.0979 -0.3257
69213SOL    HW217570  10.143  11.793   8.409 -1.8438  2.0650  1.0161
69214SOL     OW17571  12.910   8.627   2.257 -0.3759 -0.1187  1.0672
69214SOL    HW117572  12.997   8.611   2.223 -0.0945  0.2755  1.5785
69214SOL    HW217573  12.862   8.668   2.185  0.2234  0.7516  1.1462
69215SOL     OW17574  11.388  10.117   6.799  0.4815 -0.0064 -0.1465
69215SOL    HW117575  11.377  10.111   6.894  1.3925  1.1864  0.0680
69215SOL    HW217576  11.375  10.210   6.780  2.5019  0.1706 -0.8560
69216SOL     OW17577  12.761   5.280   6.135 -0.4683 -0.3354 -0.4039
69216SOL    HW117578  12.827   5.283   6.204 -0.0030  0.8425 -0.8697
69216SOL    HW217579  12.696   5.217   6.167 -1.2008  1.4795  1.9535
69217SOL     OW17580   4.888  10.275   8.190  0.0187 -0.5695 -1.1205
69217SOL    HW117581   4.877  10.321   8.274 -1.2394 -3.6851  0.5750
69217SOL    HW217582   4.982  10.280   8.173  0.5336 -0.9802  1.2150
69218SOL     OW17583  12.328  10.714   9.437 -0.2068  0.5865 -0.0280
69218SOL    HW117584  12.361  10.750   9.519 -0.0470  1.6290 -0.5340
69218SOL    HW217585  12.310  10.791   9.382 -1.1615 -0.0482 -0.6502
69219SOL     OW17586   3.748   6.899   4.976 -0.1496 -0.2853 -0.3466
69219SOL    HW117587   3.826   6.921   4.926 -0.8864 -0.4117 -1.5909
69219SOL    HW217588   3.781   6.852   5.053  1.1340  1.4082  0.1912
69220SOL     OW17589   7.830   9.555   6.103 -0.0309  0.2685 -0.2206
69220SOL    HW117590   7.796   9.478   6.149 -1.9503  2.5941  2.5897
69220SOL    HW217591   7.925   9.548   6.114 -0.2616 -0.8051  1.6322
69221SOL     OW17592   7.723   3.122  12.087  0.2053 -0.1588 -0.1133
69221SOL    HW117593   7.640   3.074  12.094 -0.2592  0.6054 -0.3051
69221SOL    HW217594   7.788   3.055  12.064 -1.0050 -0.2736 -3.8910
69222SOL     OW17595   4.746   0.855   3.371 -0.0625 -0.0916  0.5823
69222SOL    HW117596   4.825   0.855   3.318 -0.0013 -2.3040  0.5802
69222SOL    HW217597   4.675   0.866   3.307  0.1616  0.3538  0.4077
69223SOL     OW17598   8.189   9.067   7.372 -0.1828  0.7834 -0.8233
69223SOL    HW117599   8.189   9.032   7.283  1.8989  1.1102 -1.0026
69223SOL    HW217600   8.226   9.155   7.363  0.5173  0.6368  0.4192
69224SOL     OW17601   2.955   5.111   5.914 -0.3488  0.5076 -0.4558
69224SOL    HW117602   2.905   5.029   5.915  0.9574 -0.3420  1.0041
69224SOL    HW217603   3.043   5.084   5.889 -0.3176  1.7879 -1.8284
69225SOL     OW17604   9.317   7.171   2.744 -0.5998  0.1469 -0.3153
69225SOL    HW117605   9.324   7.127   2.829 -0.3850  1.4716  0.3767
69225SOL    HW217606   9.371   7.250   2.753 -0.9198  0.5360 -1.5427
69226SOL     OW17607   3.472   4.326  10.388  0.7465  0.4581 -0.1404
69226SOL    HW117608   3.523   4.303  10.311  2.8382 -0.9404  1.5778
69226SOL    HW217609   3.452   4.419  10.376 -0.0330  0.0146 -2.8821
69227SOL     OW17610  12.631   0.255   7.597  0.4703 -0.3058 -0.5250
69227SOL    HW117611  12.557   0.226   7.544 -0.8709  1.1704  0.4620
69227SOL    HW217612  12.606   0.234   7.687  0.4841  1.6862 -0.0231
69228SOL     OW17613   2.962  11.036  11.026  0.7601  0.2319  0.3587
69228SOL    HW117614   2.987  10.949  11.055  0.9357 -0.1974 -1.0021
69228SOL    HW217615   2.977  11.092  11.101 -0.9895 -1.1670  1.8479
69229SOL     OW17616   0.282   5.929   9.554 -0.0629  0.4288 -0.1544
69229SOL    HW117617   0.322   5.861   9.607 -1.2112  0.9391  1.4706
69229SOL    HW217618   0.355   5.976   9.514  0.7534 -1.4774 -1.0024
69230SOL     OW17619   0.562   6.177   3.706 -0.7190 -0.3470 -0.2709
69230SOL    HW117620   0.594   6.263   3.677 -0.2241 -0.1697  0.7475
69230SOL    HW217621   0.539   6.190   3.798 -0.7631 -1.2775 -0.1426
69231SOL     OW17622  10.731   6.732   0.836  0.4373 -0.0433  0.4828
69231SOL    HW117623  10.764   6.807   0.785  1.3754  0.5305  1.8802
69231SOL    HW217624  10.751   6.754   0.927 -0.6281 -1.3330  1.0619
69232SOL     OW17625  10.259   4.242   1.216  0.2769  0.3106  0.5043
69232SOL    HW117626  10.333   4.298   1.194  0.6115  0.6105  2.2087
69232SOL    HW217627  10.297   4.170   1.267 -0.6614  0.8636  2.0439
69233SOL     OW17628   9.381   5.438   3.343 -0.1613  0.4856 -0.3585
69233SOL    HW117629   9.298   5.443   3.391 -1.9307 -4.4670 -2.2219
69233SOL    HW217630   9.359   5.471   3.255  0.7988  1.9334 -0.0939
69234SOL     OW17631   2.685  13.019   6.303 -0.1293 -0.0676 -0.3921
69234SOL    HW117632   2.717  13.067   6.380 -0.4767  0.5059 -0.5983
69234SOL    HW217633   2.765  12.990   6.258  0.1459  1.4811 -0.9829
69235SOL     OW17634   7.165   8.963   5.590  0.3590 -0.1205 -0.1920
69235SOL    HW117635   7.247   8.968   5.541  0.3599  0.2616 -0.1614
69235SOL    HW217636   7.193   8.947   5.681  0.7112  3.8021  0.5879
69236SOL     OW17637  11.270  10.516   2.629 -0.5965  0.1490 -0.2123
69236SOL    HW117638  11.189  10.513   2.578 -0.3410  1.0816 -0.6870
69236SOL    HW217639  11.308  10.429   2.616 -0.8073  0.1881 -1.1752
69237SOL     OW17640   6.412  12.793   6.592 -0.7732 -0.3917  0.1812
69237SOL    HW117641   6.409  12.705   6.555 -0.0675 -0.0109 -0.8163
69237SOL    HW217642   6.417  12.851   6.516  0.0492  0.4438  0.8520
69238SOL     OW17643   7.064  12.727   5.504  0.1457  0.2288 -0.4830
69238SOL    HW117644   6.978  12.717   5.544  0.6138 -0.4379  0.3767
69238SOL    HW217645   7.080  12.822   5.506  0.0831  0.2254  0.7528
69239SOL     OW17646   8.590   6.801   4.592 -0.3080  0.7178  0.3920
69239SOL    HW117647   8.659   6.865   4.612 -0.9332  1.2592  0.8498
69239SOL    HW217648   8.516   6.827   4.647 -0.6246 -0.3209  0.4884
69240SOL     OW17649  11.365  11.119   6.169 -0.3106  0.2458  0.5024
69240SOL    HW117650  11.393  11.035   6.206 -0.5399 -0.9139 -1.7959
69240SOL    HW217651  11.276  11.104   6.140 -0.5835  1.5032  0.6239
69241SOL     OW17652   7.677  11.699  10.172  0.2725 -0.3349 -0.5794
69241SOL    HW117653   7.649  11.621  10.124  1.3494 -1.3747  0.4253
69241SOL    HW217654   7.640  11.687  10.259  0.3942  0.3195 -0.4346
69242SOL     OW17655  10.209   1.000   3.131 -0.3224 -0.1509  0.3156
69242SOL    HW117656  10.248   0.942   3.197  0.4566 -3.0084 -2.3884
69242SOL    HW217657  10.125   0.959   3.110 -0.5492  0.6899 -0.4828
69243SOL     OW17658   3.130  10.742   1.418  0.1410  0.2338  0.3934
69243SOL    HW117659   3.126  10.717   1.325  0.9703 -1.2933  0.7424
69243SOL    HW217660   3.068  10.815   1.425 -0.5684 -0.1601 -1.1895
69244SOL     OW17661   8.255  12.698   7.409 -0.1785 -0.3051 -0.4344
69244SOL    HW117662   8.215  12.613   7.423  0.1821 -0.3586  0.3305
69244SOL    HW217663   8.251  12.712   7.314 -1.0416 -0.7683 -0.4710
69245SOL     OW17664   9.908  11.329   3.654 -0.4945 -0.4857  0.3477
69245SOL    HW117665   9.992  11.288   3.674 -0.3269  0.0280  0.7160
69245SOL    HW217666   9.922  11.371   3.569 -0.3179 -0.2463  0.4935
69246SOL     OW17667   2.624   6.065   6.038 -0.6563 -0.0540 -0.2194
69246SOL    HW117668   2.634   6.103   5.950 -0.1373  2.5376  0.8437
69246SOL    HW217669   2.712   6.070   6.075 -0.7638 -1.6244  0.2934
69247SOL     OW17670   5.264  12.444   4.199  0.8693  0.1177 -0.0242
69247SOL    HW117671   5.170  12.430   4.212  1.1904 -2.0218  0.4852
69247SOL    HW217672   5.278  12.536   4.219 -1.3579  0.8916 -1.7144
69248SOL     OW17673  11.395   7.704   7.496 -0.6304 -0.4177 -0.0951
69248SOL    HW117674  11.336   7.669   7.563 -0.4148 -2.6070 -0.9783
69248SOL    HW217675  11.341   7.766   7.446 -1.9222 -1.6167 -0.2550
69249SOL     OW17676   4.868   8.666   1.573  0.0176  0.0322 -0.0007
69249SOL    HW117677   4.811   8.718   1.630 -0.5445 -2.8570  2.2882
69249SOL    HW217678   4.945   8.647   1.626  1.8135  1.2464 -1.9882
69250SOL     OW17679   7.278   5.496   5.748  0.3732  0.6641 -0.1428
69250SOL    HW117680   7.295   5.519   5.840  0.5455 -0.1842  0.0506
69250SOL    HW217681   7.232   5.412   5.753  3.9445 -1.5308 -0.8906
69251SOL     OW17682   0.411   0.808   8.250  1.0312  0.2146  0.2039
69251SOL    HW117683   0.499   0.808   8.211  1.2901  0.0423  0.7802
69251SOL    HW217684   0.420   0.860   8.330  0.9528 -0.9690  1.0044
69252SOL     OW17685   7.536   0.206   4.710  0.5097 -0.3583  0.1305
69252SOL    HW117686   7.449   0.228   4.743  0.1780 -0.6112 -0.5733
69252SOL    HW217687   7.592   0.210   4.788  0.3569  2.2665  0.2076
69253SOL     OW17688  12.975  11.090   6.875  0.1513  0.3981 -0.2882
69253SOL    HW117689  13.026  11.149   6.931 -0.5417  0.2818  0.4962
69253SOL    HW217690  12.998  11.002   6.905  1.0309  0.2680 -1.3228
69254SOL     OW17691  12.971  11.738   3.962  0.0382 -0.5213  0.2467
69254SOL    HW117692  12.978  11.655   3.915 -0.0402 -0.1391 -0.4572
69254SOL    HW217693  12.915  11.792   3.906  1.5660  0.6441 -0.2250
69255SOL     OW17694  10.776   8.260   3.294  0.2327 -0.1690  0.1525
69255SOL    HW117695  10.780   8.198   3.221 -1.7372  1.0937 -1.1382
69255SOL    HW217696  10.777   8.346   3.252  1.2640  0.6611  1.7918
69256SOL     OW17697   9.738   7.029   7.889  0.1873 -0.6302 -0.2515
69256SOL    HW117698   9.713   7.104   7.941 -1.7016 -2.8093  2.2666
69256SOL    HW217699   9.829   7.012   7.913  0.2683  0.1472  0.0187
69257SOL     OW17700  12.695   2.759  11.746  0.4032  0.0504 -0.3636
69257SOL    HW117701  12.668   2.775  11.836  1.2359  0.9940 -0.2635
69257SOL    HW217702  12.790   2.750  11.750  0.2481 -3.0185 -0.7269
69258SOL     OW17703   8.199   7.720   3.448 -0.5311 -0.1321 -0.1733
69258SOL    HW117704   8.219   7.658   3.519  0.6639  0.1956 -0.2042
69258SOL    HW217705   8.259   7.793   3.463  0.0799 -0.2676 -1.7940
69259SOL     OW17706   6.172   6.872   1.874  0.3120  0.0997  0.1335
69259SOL    HW117707   6.145   6.955   1.834 -2.0705 -0.4328  0.4424
69259SOL    HW217708   6.229   6.897   1.946  0.0889  1.4519 -0.1317
69260SOL     OW17709   0.784   2.058  11.322 -0.3370  0.5027 -0.1089
69260SOL    HW117710   0.762   2.151  11.324  0.0115  0.6156 -1.1993
69260SOL    HW217711   0.816   2.042  11.234 -1.0210 -0.8045 -0.1471
69261SOL     OW17712   4.455   4.649   7.522 -0.1236 -0.2001 -0.0643
69261SOL    HW117713   4.507   4.653   7.602  1.4752 -0.6000 -1.0220
69261SOL    HW217714   4.484   4.725   7.471 -1.7280  0.5243  0.0604
69262SOL     OW17715  11.837  11.407  10.711  0.2603 -0.1002  0.3839
69262SOL    HW117716  11.824  11.367  10.625  0.2925 -0.3286  0.4873
69262SOL    HW217717  11.923  11.448  10.706  0.4658 -0.5232  0.4702
69263SOL     OW17718   0.677  10.899   2.562  0.4225 -0.2710 -0.1282
69263SOL    HW117719   0.728  10.958   2.618  1.1219 -0.7109 -0.2965
69263SOL    HW217720   0.622  10.958   2.511  2.0226  0.3523 -1.2122
69264SOL     OW17721  12.186   4.741   4.592  0.4890 -0.3042 -0.1595
69264SOL    HW117722  12.282   4.742   4.602  0.5583 -1.5185 -0.5610
69264SOL    HW217723  12.157   4.821   4.636  1.6718 -0.0218  0.1541
69265SOL     OW17724   0.386   4.227   9.863 -0.1836  0.5718 -0.6693
69265SOL    HW117725   0.442   4.150   9.851  3.8961  2.9948  0.4715
69265SOL    HW217726   0.360   4.251   9.774 -2.0283 -2.2408 -1.0216
69266SOL     OW17727  12.351   3.792   9.439 -0.1075  0.5941 -0.3849
69266SOL    HW117728  12.293   3.859   9.402 -0.1647  0.6520 -0.1949
69266SOL    HW217729  12.297   3.747   9.504  0.1601  0.8843  0.0512
69267SOL     OW17730   9.163   5.705   2.977 -0.3118  0.3589  0.0493
69267SOL    HW117731   9.180   5.707   2.883 -2.5439 -0.4941 -0.4355
69267SOL    HW217732   9.162   5.611   2.999 -3.5607  0.2559  0.0447
69268SOL     OW17733  11.051   7.183   3.361  0.3505 -0.2095  0.0206
69268SOL    HW117734  11.037   7.094   3.392  1.2339  0.0269  1.1840
69268SOL    HW217735  10.981   7.234   3.402 -1.2963 -0.6091 -2.1004
69269SOL     OW17736   4.393   2.628   6.384  0.3038  0.1661  0.2289
69269SOL    HW117737   4.461   2.694   6.399  1.1378 -0.8147  0.9461
69269SOL    HW217738   4.424   2.581   6.306  0.5210 -0.3362  0.6059
69270SOL     OW17739  13.194  10.097   8.086  0.0283 -0.3241  0.0999
69270SOL    HW117740  13.200  10.153   8.009  0.9224 -0.9385 -0.2957
69270SOL    HW217741  13.238  10.016   8.060 -1.2230 -1.2228  0.6594
69271SOL     OW17742   7.357   8.946   1.468  0.1770  0.0829  0.2213
69271SOL    HW117743   7.296   8.949   1.542 -0.7154 -2.1732 -0.3226
69271SOL    HW217744   7.303   8.922   1.393  1.4901 -0.5181 -0.5738
69272SOL     OW17745  10.149   7.449   8.609 -0.0223 -0.1048  0.3677
69272SOL    HW117746  10.156   7.524   8.550  0.0002 -0.2697  0.1605
69272SOL    HW217747  10.056   7.442   8.628 -0.1510 -0.6170 -0.3868
69273SOL     OW17748   8.811   4.961   4.531  0.5221 -0.1784 -0.0711
69273SOL    HW117749   8.812   5.054   4.505 -0.8984 -0.1907 -0.2055
69273SOL    HW217750   8.805   4.913   4.449  0.2416 -0.3544  0.0499
69274SOL     OW17751   6.107   7.816   0.046 -0.8162 -0.1615 -0.2447
69274SOL    HW117752   6.041   7.885   0.033  1.1869  2.1939  1.2703
69274SOL    HW217753   6.172   7.833  -0.022  0.1520  0.0776  0.7136
69275SOL     OW17754  11.652  13.168   4.944 -0.1381 -0.0397 -0.5115
69275SOL    HW117755  11.733  13.207   4.909  0.4836  1.3880  2.2793
69275SOL    HW217756  11.633  13.096   4.884  1.5787  1.3643 -2.9183
69276SOL     OW17757  10.080   1.998   1.083 -0.1893  0.3539 -0.3219
69276SOL    HW117758  10.104   1.924   1.028 -0.0889 -0.4940  0.8323
69276SOL    HW217759  10.153   2.007   1.144 -1.9619 -1.2642  2.2156
69277SOL     OW17760  12.597  11.399   2.835 -0.7613 -0.1339 -0.0066
69277SOL    HW117761  12.580  11.419   2.743  0.3563  1.8277  0.1437
69277SOL    HW217762  12.658  11.326   2.832  0.9748  1.2577 -0.9743
69278SOL     OW17763   7.047   1.982  12.160  0.0093  0.3233  0.0241
69278SOL    HW117764   7.051   2.061  12.214 -2.7258  1.2581 -0.9513
69278SOL    HW217765   7.059   2.013  12.071 -1.5679 -0.2586 -0.4175
69279SOL     OW17766  10.273   8.906   3.978  0.1788 -0.0379  0.2485
69279SOL    HW117767  10.275   8.948   3.892 -0.8254 -0.4835 -0.0060
69279SOL    HW217768  10.210   8.959   4.028 -1.1636 -1.2249 -0.0989
69280SOL     OW17769   5.060   1.708   0.447  0.0941  0.0129 -0.6391
69280SOL    HW117770   5.079   1.641   0.381  0.0370 -2.5010  1.7467
69280SOL    HW217771   5.070   1.663   0.531 -0.6151  2.8562  1.0932
69281SOL     OW17772  13.025   6.755   5.476 -0.3671  0.0275  0.5807
69281SOL    HW117773  12.966   6.723   5.407  0.6047 -1.2388  0.2962
69281SOL    HW217774  13.017   6.850   5.471 -0.6480 -0.0480 -0.9995
69282SOL     OW17775   9.504   2.991   4.591 -0.6172 -0.3582 -0.4004
69282SOL    HW117776   9.532   2.900   4.600 -1.6156 -0.7854 -1.4145
69282SOL    HW217777   9.555   3.024   4.517 -0.9099 -0.3619 -0.6026
69283SOL     OW17778   5.261   3.487   4.857  0.8187  0.6435  0.1781
69283SOL    HW117779   5.167   3.468   4.860  0.8474  0.6109  1.8602
69283SOL    HW217780   5.265   3.582   4.846  0.5832  0.6760  0.3516
69284SOL     OW17781   4.189  10.155   6.159  0.2053 -0.2175  0.3234
69284SOL    HW117782   4.218  10.103   6.085 -2.1302 -2.2698  0.7147
69284SOL    HW217783   4.239  10.122   6.234  0.0771 -0.5802  0.2482
69285SOL     OW17784  11.071   7.367  10.245 -0.6131 -0.1996 -0.0536
69285SOL    HW117785  11.105   7.454  10.225 -2.0965  0.0432 -1.9273
69285SOL    HW217786  11.132   7.306  10.203  0.1570 -0.0561  0.8385
69286SOL     OW17787  13.263  12.235   4.100 -0.3156 -0.1398 -0.7121
69286SOL    HW117788  13.300  12.252   4.186 -1.3034 -0.7996 -0.1356
69286SOL    HW217789  13.300  12.304   4.044 -0.1823  0.7088  0.3829
69287SOL     OW17790   2.115  11.999   8.234 -1.1545 -0.2531  0.4209
69287SOL    HW117791   2.160  12.043   8.306  1.0370 -0.8939 -0.4752
69287SOL    HW217792   2.049  12.061   8.205 -0.7668  0.8067  1.7305
69288SOL     OW17793  11.993  13.062   3.144  0.4100 -0.2479  0.0362
69288SOL    HW117794  12.003  12.974   3.107  0.0931 -0.8864  1.4134
69288SOL    HW217795  11.921  13.054   3.207 -0.0127  1.1424 -0.2257
69289SOL     OW17796   8.495   5.205   2.247 -0.4051  0.0395  0.0495
69289SOL    HW117797   8.537   5.282   2.285  0.7180  0.0280 -1.0913
69289SOL    HW217798   8.429   5.242   2.188 -0.7032  0.1009  0.4198
69290SOL     OW17799  10.019  13.138   3.384  0.1082  0.1412  0.4996
69290SOL    HW117800  10.033  13.230   3.362 -0.3564  0.1007  0.0207
69290SOL    HW217801   9.975  13.140   3.469 -1.4948  0.4358 -0.3024
69291SOL     OW17802   5.031   4.015   3.628 -0.6187 -1.1754  0.4417
69291SOL    HW117803   5.064   3.959   3.558  0.3514  1.6574 -1.5807
69291SOL    HW217804   5.103   4.021   3.691 -0.5204 -1.7299  0.3832
69292SOL     OW17805   2.249   3.976   9.565  0.1728  0.2134 -0.3906
69292SOL    HW117806   2.239   4.059   9.519  0.7489  0.5735  0.1195
69292SOL    HW217807   2.161   3.938   9.566 -0.4881  1.6887  1.0069
69293SOL     OW17808   1.888  13.061  10.966 -0.9051  0.2460 -0.3195
69293SOL    HW117809   1.953  12.992  10.955  0.9105  1.8591 -0.2281
69293SOL    HW217810   1.811  13.017  11.003  0.4508 -1.5668  0.4426
69294SOL     OW17811   4.574   1.428   6.369 -0.2985 -0.2563  0.3989
69294SOL    HW117812   4.616   1.514   6.378  0.8804 -0.6600 -0.9609
69294SOL    HW217813   4.646   1.368   6.351 -1.4109 -0.9793 -2.0190
69295SOL     OW17814   9.122   7.203   8.859 -0.1995 -0.3879  0.5943
69295SOL    HW117815   9.076   7.235   8.936  0.8135 -0.3080  1.1844
69295SOL    HW217816   9.060   7.215   8.787 -1.0893 -0.2866  1.3562
69296SOL     OW17817  11.186   2.936   0.154 -0.1502  0.2293 -0.0448
69296SOL    HW117818  11.199   2.997   0.081 -2.7705 -0.5623 -1.2779
69296SOL    HW217819  11.182   2.850   0.113  1.0590 -0.5699  1.3999
69297SOL     OW17820   1.239   3.963   9.989 -0.2341 -0.2514  0.0274
69297SOL    HW117821   1.201   4.044   9.955  0.5823  0.4811  0.7970
69297SOL    HW217822   1.216   3.963  10.082  2.6174  0.8894  0.8465
69298SOL     OW17823  13.174   7.718   4.433  0.2947  0.5255  0.0708
69298SOL    HW117824  13.103   7.684   4.488 -0.1326  1.6664  0.2506
69298SOL    HW217825  13.133   7.789   4.382  1.1107  0.6542 -0.4147
69299SOL     OW17826   6.904  10.123   7.498  0.1636 -0.0500 -0.2308
69299SOL    HW117827   6.980  10.131   7.556 -0.5786 -0.1011  0.7863
69299SOL    HW217828   6.843  10.068   7.547 -0.7081  0.3521 -0.8382
69300SOL     OW17829   9.104   7.091   2.937 -0.3552 -0.4041 -0.3149
69300SOL    HW117830   9.113   7.184   2.914 -1.3453 -0.1893  0.1127
69300SOL    HW217831   9.075   7.048   2.857  0.7346 -0.4679 -0.6902
69301SOL     OW17832   7.211   7.138   5.228 -0.6713  0.5474  0.3967
69301SOL    HW117833   7.254   7.154   5.312 -1.3618 -1.3522  1.1797
69301SOL    HW217834   7.283   7.129   5.165 -0.1566  2.1568  0.7149
69302SOL     OW17835   6.712  12.998   0.780  0.1112  0.4527 -0.2054
69302SOL    HW117836   6.664  13.070   0.821 -0.3557  0.3276 -0.5187
69302SOL    HW217837   6.767  13.040   0.714 -0.1448  0.5280 -0.3737
69303SOL     OW17838  11.134   1.018   4.541  0.7248 -0.1391 -0.1345
69303SOL    HW117839  11.206   0.993   4.599 -0.7526 -0.3923  1.6791
69303SOL    HW217840  11.055   1.009   4.595 -0.5170  1.8764 -1.4770
69304SOL     OW17841   9.222   8.832   1.052  0.4877 -0.5039 -0.0356
69304SOL    HW117842   9.274   8.753   1.035  2.0863  0.5463 -0.3073
69304SOL    HW217843   9.142   8.800   1.093  0.2849 -2.4022 -1.7535
69305SOL     OW17844   2.649   6.867   9.059 -0.2577  0.2167  0.4572
69305SOL    HW117845   2.677   6.929   9.126  1.2548  0.6256 -0.5070
69305SOL    HW217846   2.731   6.833   9.022 -1.0557 -0.5759 -0.6487
69306SOL     OW17847   8.055   3.204   3.597 -0.8522  0.2030 -0.3604
69306SOL    HW117848   8.051   3.153   3.678 -3.0614 -0.9001 -1.0852
69306SOL    HW217849   8.098   3.286   3.622 -3.0612  0.6731  2.4174
69307SOL     OW17850  11.258  11.068   7.355  0.3325  0.4178  0.6500
69307SOL    HW117851  11.189  11.019   7.311  1.2255  0.2434 -0.5896
69307SOL    HW217852  11.222  11.156   7.366 -0.2551  0.2068  0.4417
69308SOL     OW17853   2.825   6.381   0.654  0.0234  0.0484 -0.2097
69308SOL    HW117854   2.758   6.397   0.588 -1.1876  2.5240  1.4865
69308SOL    HW217855   2.797   6.300   0.697 -0.4158 -0.3461 -1.2129
69309SOL     OW17856   9.787  12.962  12.560  0.0853 -0.0861  0.0351
69309SOL    HW117857   9.758  13.052  12.545  2.1030  0.4569 -0.9279
69309SOL    HW217858   9.873  12.971  12.602  0.4055 -1.5613 -0.2474
69310SOL     OW17859   9.693  11.568   5.858  0.2264  0.4641  0.0296
69310SOL    HW117860   9.730  11.585   5.944  0.9723 -0.9873  0.0336
69310SOL    HW217861   9.638  11.491   5.871  0.5676  0.0609 -0.8262
69311SOL     OW17862   3.826   9.450   6.957  0.9206  0.4835  0.5396
69311SOL    HW117863   3.849   9.504   6.881  0.1495 -1.0294 -0.8210
69311SOL    HW217864   3.730   9.454   6.962  0.9661  0.7764  1.6324
69312SOL     OW17865   1.050   6.605   4.119  0.0252 -0.1599 -0.1116
69312SOL    HW117866   0.994   6.554   4.060 -1.7261 -0.0015  1.3370
69312SOL    HW217867   1.094   6.668   4.062 -2.2415  0.5445 -1.1821
69313SOL     OW17868   3.354   5.185   4.866 -0.4261  0.1632  0.0393
69313SOL    HW117869   3.401   5.220   4.790 -0.6328  0.2277 -0.0594
69313SOL    HW217870   3.287   5.128   4.829 -0.0030 -0.4487  0.2047
69314SOL     OW17871   1.673   7.975   8.294 -0.2506  0.8533 -0.6550
69314SOL    HW117872   1.758   7.942   8.323 -0.5098 -0.1186 -0.9580
69314SOL    HW217873   1.634   8.014   8.373 -0.2437 -0.2595 -0.0854
69315SOL     OW17874   1.208   1.931  13.007 -0.0359 -0.0056  0.1133
69315SOL    HW117875   1.213   1.897  13.097 -1.1979 -0.3258  0.0823
69315SOL    HW217876   1.140   1.998  13.011  0.8114  0.8924 -0.2670
69316SOL     OW17877   7.145   4.689   1.414  0.7249  0.1912  0.5689
69316SOL    HW117878   7.080   4.707   1.346 -0.1555 -0.2439  1.2748
69316SOL    HW217879   7.207   4.629   1.372 -0.1292 -0.5371  0.3169
69317SOL     OW17880   3.264   5.932   5.687 -0.6394 -0.2305 -0.3192
69317SOL    HW117881   3.258   5.837   5.698 -0.2213 -0.0577  1.8307
69317SOL    HW217882   3.358   5.949   5.680 -0.5781  0.1372  1.0420
69318SOL     OW17883   0.385   9.286   5.663 -0.1166  0.3484 -0.4051
69318SOL    HW117884   0.441   9.303   5.738 -0.1410  2.1087 -0.7382
69318SOL    HW217885   0.414   9.349   5.596 -2.2763  1.1563 -0.6890
69319SOL     OW17886   9.878   3.181   1.475 -0.0283 -0.6162 -0.3171
69319SOL    HW117887   9.790   3.209   1.500 -0.1433 -0.9182 -0.3805
69319SOL    HW217888   9.931   3.261   1.480 -0.2533 -0.4806 -0.0428
69320SOL     OW17889  11.633   4.233  10.257  0.5335 -0.2470 -0.7831
69320SOL    HW117890  11.630   4.196  10.169 -2.0326  1.3161 -1.4814
69320SOL    HW217891  11.556   4.196  10.301  0.4886  0.7223  0.0064
69321SOL     OW17892  12.297  12.872   5.113  0.1252  0.3240 -0.2276
69321SOL    HW117893  12.344  12.831   5.185 -1.1493  1.6433  1.4353
69321SOL    HW217894  12.251  12.946   5.153 -1.9707  0.1131 -2.0613
69322SOL     OW17895   9.327   0.202   0.777  0.0913  0.0146 -0.6528
69322SOL    HW117896   9.257   0.225   0.838  0.3788 -0.5711 -0.0887
69322SOL    HW217897   9.408   0.212   0.828  0.3910  0.2618 -1.1681
69323SOL     OW17898   2.932  12.677   6.663 -0.4943 -0.2258  0.3888
69323SOL    HW117899   2.987  12.734   6.716  0.6598 -1.4238  0.5515
69323SOL    HW217900   2.930  12.594   6.711 -1.2104 -0.6612 -0.3710
69324SOL     OW17901  10.314   0.354   3.338 -0.3104  0.1849  0.1954
69324SOL    HW117902  10.358   0.311   3.411 -1.7669 -0.7613  0.5695
69324SOL    HW217903  10.368   0.333   3.262  0.1668 -0.5146  0.7062
69325SOL     OW17904  10.223   9.947  10.185 -0.2216 -0.3793 -0.1208
69325SOL    HW117905  10.241   9.982  10.272 -0.6197 -0.1235 -0.1392
69325SOL    HW217906  10.305   9.904  10.159 -0.4783 -1.5086  0.8726
69326SOL     OW17907   7.062  10.917  12.727 -0.1720 -0.1235  0.1847
69326SOL    HW117908   7.041  11.011  12.727  0.9527  0.1810 -1.3620
69326SOL    HW217909   7.139  10.910  12.782 -0.9787 -0.3569  1.3101
69327SOL     OW17910   8.454   1.146  12.816  0.1128 -0.8029  0.1916
69327SOL    HW117911   8.427   1.087  12.746  1.4830 -0.9376 -0.2549
69327SOL    HW217912   8.414   1.108  12.895 -1.2376 -0.7902 -0.4525
69328SOL     OW17913   1.221  11.375  11.735  0.0845 -0.0727  0.1229
69328SOL    HW117914   1.266  11.420  11.807  0.0746 -1.6306  1.1703
69328SOL    HW217915   1.273  11.395  11.657  2.1153 -1.0862  1.1463
69329SOL     OW17916   4.396   7.497  11.998 -0.2722 -0.3985  0.0031
69329SOL    HW117917   4.386   7.575  11.943 -1.6476  0.1649  0.9825
69329SOL    HW217918   4.489   7.496  12.021 -0.5858  2.4234  1.9638
69330SOL     OW17919   4.987  10.504   5.722  0.4877 -0.2798 -0.7750
69330SOL    HW117920   4.922  10.574   5.721  1.2363  0.5154  1.1571
69330SOL    HW217921   4.991  10.473   5.632 -2.8332 -0.6327 -0.9203
69331SOL     OW17922   4.658   8.090   5.014  0.7874 -0.0575 -0.0803
69331SOL    HW117923   4.588   8.116   5.074 -1.4692 -0.4896 -2.3550
69331SOL    HW217924   4.685   8.171   4.970 -0.0116 -0.2155 -0.8915
69332SOL     OW17925   1.925   1.573   9.168 -0.3484 -0.3333  0.0897
69332SOL    HW117926   2.004   1.552   9.118  0.1691  0.4913  0.5352
69332SOL    HW217927   1.885   1.489   9.186 -0.6913 -0.6620 -1.9351
69333SOL     OW17928   1.926   3.634   8.037 -0.5250 -0.1535  0.3154
69333SOL    HW117929   1.832   3.648   8.023 -0.2732  2.0388  0.4353
69333SOL    HW217930   1.930   3.557   8.093 -2.2611 -0.1647  0.5023
69334SOL     OW17931  11.191   1.961   0.556  0.3116 -0.4383 -0.0028
69334SOL    HW117932  11.170   1.869   0.573  0.4071 -0.7121 -1.2449
69334SOL    HW217933  11.198   2.000   0.643  3.6652 -2.3534  0.7862
69335SOL     OW17934  12.313   1.081   8.817  0.1755 -0.3340 -0.4258
69335SOL    HW117935  12.311   1.120   8.904  3.3514 -0.7423 -0.0651
69335SOL    HW217936  12.256   1.138   8.764  0.5918  1.7153  1.2210
69336SOL     OW17937  13.043  12.258   7.654 -0.1813 -0.3239  0.7214
69336SOL    HW117938  13.019  12.270   7.562 -0.0508 -0.1384  0.7112
69336SOL    HW217939  13.114  12.194   7.652  0.9793  0.9389  0.5516
69337SOL     OW17940  11.118  10.915   5.690 -0.3252 -0.1856 -0.5435
69337SOL    HW117941  11.103  10.861   5.613 -1.5110 -0.2255 -0.2915
69337SOL    HW217942  11.200  10.882   5.728  0.2503 -0.1821 -1.7519
69338SOL     OW17943   1.628  12.110   5.553 -0.0806 -1.1402  0.3628
69338SOL    HW117944   1.658  12.178   5.492  1.4279 -1.1393  1.0571
69338SOL    HW217945   1.579  12.159   5.620 -2.4559 -1.2281 -1.1948
69339SOL     OW17946   7.883   2.096   7.647  0.3330 -0.2733 -0.0048
69339SOL    HW117947   7.875   2.191   7.636 -0.3433 -0.3177  0.0308
69339SOL    HW217948   7.852   2.060   7.564 -0.1491 -0.4788  0.2594
69340SOL     OW17949  12.077   2.679   9.991  0.5604 -0.1850  0.0795
69340SOL    HW117950  12.080   2.750  10.056 -0.0739 -0.0783 -0.0029
69340SOL    HW217951  12.154   2.694   9.936  1.8820 -1.0638  1.6023
69341SOL     OW17952   4.605  10.571   9.834 -0.5975 -0.0112  0.2148
69341SOL    HW117953   4.596  10.502   9.900  0.1862  0.9021  1.3161
69341SOL    HW217954   4.519  10.613   9.832 -0.0631  1.3035  2.2499
69342SOL     OW17955   2.861  13.101   2.375  0.3834 -0.1669 -0.5068
69342SOL    HW117956   2.844  13.009   2.392 -1.7365 -0.1903 -2.3038
69342SOL    HW217957   2.831  13.115   2.285  1.1701  2.1694 -0.4797
69343SOL     OW17958   3.108   8.078   8.023 -0.3091 -0.1162  0.2203
69343SOL    HW117959   3.077   8.114   8.106 -1.2472 -1.1205  0.3269
69343SOL    HW217960   3.201   8.061   8.039 -0.5532 -0.6475  1.2098
69344SOL     OW17961   8.329  11.053   8.084 -0.4363  0.4145 -0.3453
69344SOL    HW117962   8.252  11.089   8.127  0.0743 -2.2387  3.3195
69344SOL    HW217963   8.392  11.125   8.080 -0.9908  1.1479  2.4511
69345SOL     OW17964   2.665   3.109  11.482 -0.1779  0.0982 -0.1077
69345SOL    HW117965   2.663   3.019  11.449 -1.6295 -0.0985  0.4236
69345SOL    HW217966   2.594   3.153  11.435  0.4711  0.9588 -0.3082
69346SOL     OW17967  10.409   4.694   7.622 -0.1676 -0.2508  0.2913
69346SOL    HW117968  10.369   4.661   7.703 -1.5105  1.3702  0.3379
69346SOL    HW217969  10.349   4.762   7.592  1.8286  1.2597 -0.4517
69347SOL     OW17970  10.366   3.026   0.064  0.5263  0.0488  0.1743
69347SOL    HW117971  10.317   3.074   0.131  1.6340  2.3991 -0.5855
69347SOL    HW217972  10.332   3.060  -0.019  0.7967 -1.0922 -0.4153
69348SOL     OW17973  12.405   6.679   7.365 -0.6272 -0.2600  0.4509
69348SOL    HW117974  12.427   6.713   7.278 -1.9696  0.5238  0.3884
69348SOL    HW217975  12.482   6.697   7.418  1.0797 -2.6031 -1.0145
69349SOL     OW17976   3.552   5.500  11.722 -0.0144 -0.0922  0.1262
69349SOL    HW117977   3.466   5.509  11.764 -0.4367 -0.8262 -0.5372
69349SOL    HW217978   3.544   5.550  11.641  0.6200  0.8819  0.6452
69350SOL     OW17979   7.602   9.850   2.483 -0.3286  0.8050  0.3548
69350SOL    HW117980   7.531   9.906   2.513  0.9517  2.3767  0.5675
69350SOL    HW217981   7.585   9.837   2.390 -2.0900 -0.7374  0.8260
69351SOL     OW17982   6.335   7.818   6.436 -0.0519 -0.3085  0.1469
69351SOL    HW117983   6.279   7.740   6.428  1.3780 -1.2731 -0.8322
69351SOL    HW217984   6.421   7.784   6.457  0.0434  1.2213  2.5689
69352SOL     OW17985  10.619   1.123  11.226 -0.4108 -0.0063  0.0391
69352SOL    HW117986  10.666   1.190  11.177  2.4415 -1.7885  0.0961
69352SOL    HW217987  10.531   1.121  11.187 -0.2165  2.8156 -0.7723
69353SOL     OW17988  10.902   9.874   5.053  0.1821  0.7440 -0.1501
69353SOL    HW117989  10.920   9.896   4.962 -1.1809 -1.1984 -0.9343
69353SOL    HW217990  10.983   9.832   5.084  0.2006  0.2512 -0.8590
69354SOL     OW17991  11.291  12.572   1.045 -0.0578  0.0905  0.0984
69354SOL    HW117992  11.274  12.510   0.974 -0.9052 -0.9868  1.2100
69354SOL    HW217993  11.382  12.556   1.069 -0.3885 -1.0332  0.6517
69355SOL     OW17994   0.758   2.871   6.654  0.6215 -0.0857 -0.4915
69355SOL    HW117995   0.778   2.960   6.681  2.5019 -1.0593  1.5970
69355SOL    HW217996   0.833   2.844   6.602  1.6141 -1.4245  1.5061
69356SOL     OW17997   1.685  10.197   0.665 -0.8095  0.7832  0.2440
69356SOL    HW117998   1.613  10.150   0.625 -1.0456  1.2568  0.1018
69356SOL    HW217999   1.764  10.160   0.624 -1.0696  1.6269 -1.0758
69357SOL     OW18000   1.121  11.420  12.512  0.3670  0.0785  0.4583
69357SOL    HW118001   1.169  11.485  12.460  0.0774  0.9721  1.2765
69357SOL    HW218002   1.055  11.386  12.452  1.3481 -0.4148 -0.3692
69358SOL     OW18003   5.961  11.135   2.286  0.2404 -0.1284  0.0235
69358SOL    HW118004   5.913  11.185   2.353  0.6204 -0.1978  0.3507
69358SOL    HW218005   5.957  11.044   2.316  1.8455  0.0405  0.8553
69359SOL     OW18006   0.797  11.035  11.218  0.3875  0.6119  0.6682
69359SOL    HW118007   0.855  11.052  11.292  1.5028  0.8306 -0.2310
69359SOL    HW218008   0.835  11.084  11.145  0.2652 -0.9027 -0.4764
69360SOL     OW18009   7.369  10.639   6.853  0.3125  0.0354 -0.1818
69360SOL    HW118010   7.324  10.657   6.936 -0.8482  0.6236 -0.9083
69360SOL    HW218011   7.432  10.570   6.874  1.8001  1.8638  1.7390
69361SOL     OW18012  11.745  10.570  10.436  0.0140  0.2003 -0.2388
69361SOL    HW118013  11.762  10.477  10.425 -0.6988  0.1736 -1.3511
69361SOL    HW218014  11.791  10.595  10.516  1.5817 -0.7577 -0.8118
69362SOL     OW18015  12.659   4.219   8.200  0.3900 -0.1371 -0.1421
69362SOL    HW118016  12.651   4.305   8.159  0.5703  0.1110  0.3308
69362SOL    HW218017  12.570   4.184   8.202 -0.1192  1.1182  1.9523
69363SOL     OW18018   5.059   3.761   4.703 -0.2812  0.7792 -0.1833
69363SOL    HW118019   4.977   3.712   4.703  0.9100 -1.5978 -3.7157
69363SOL    HW218020   5.039   3.843   4.659 -0.7595  0.1670 -1.1241
69364SOL     OW18021   3.769  10.223  12.514  0.3130 -0.3936 -0.1563
69364SOL    HW118022   3.853  10.224  12.560 -0.8969 -0.1338  2.1838
69364SOL    HW218023   3.709  10.269  12.573 -1.8059 -1.7834 -1.1177
69365SOL     OW18024  12.223   9.271   2.930 -0.0741 -0.0913  0.1388
69365SOL    HW118025  12.156   9.334   2.956  0.4776  0.5445  0.0241
69365SOL    HW218026  12.286   9.271   3.002 -0.9139 -1.7666  0.9311
69366SOL     OW18027  10.330   9.364   3.041  0.8563  0.3811  0.2123
69366SOL    HW118028  10.300   9.293   2.984  1.1118  0.6010 -0.2032
69366SOL    HW218029  10.335   9.440   2.983 -0.6689  1.0568  0.9290
69367SOL     OW18030   4.885   4.700   4.932  0.2837  0.4054 -0.7582
69367SOL    HW118031   4.856   4.616   4.967 -0.1040  0.6212 -0.5421
69367SOL    HW218032   4.839   4.708   4.848 -1.2274  1.2648  0.1112
69368SOL     OW18033   2.971   5.899   2.325 -0.2055  0.4290  0.2377
69368SOL    HW118034   2.977   5.850   2.243 -0.2666 -0.1780  0.5861
69368SOL    HW218035   2.888   5.872   2.363  0.3362 -0.1594  1.0383
69369SOL     OW18036   3.344   0.203   1.233  0.8873 -0.1936 -0.0677
69369SOL    HW118037   3.253   0.199   1.263  0.4478  2.0186 -0.8899
69369SOL    HW218038   3.396   0.199   1.313  0.0865 -1.3774  0.4244
69370SOL     OW18039   6.889  10.402   7.841  0.6303  0.0641  0.0786
69370SOL    HW118040   6.794  10.402   7.836  0.6263 -0.1792  0.1761
69370SOL    HW218041   6.916  10.327   7.788  0.7695  0.1555  0.0188
69371SOL     OW18042   9.346   1.111   2.306 -0.0671 -0.1315 -0.2759
69371SOL    HW118043   9.298   1.130   2.226 -1.0742 -1.5708 -0.0401
69371SOL    HW218044   9.322   1.182   2.366 -0.6787 -0.0020 -0.6717
69372SOL     OW18045  13.275   7.978   3.402  0.5812  0.5366  0.3182
69372SOL    HW118046  13.284   7.898   3.350 -1.2778  0.7710 -0.4496
69372SOL    HW218047  13.257   7.947   3.491  1.1917  0.1115  0.2949
69373SOL     OW18048   2.901   5.084  11.608 -0.0371 -0.0128  0.1166
69373SOL    HW118049   2.937   5.168  11.581  2.3368 -0.6650  0.9985
69373SOL    HW218050   2.972   5.021  11.592 -0.5870 -1.3279  2.4221
69374SOL     OW18051  10.214   8.368   7.656 -0.5127  0.1162  0.0803
69374SOL    HW118052  10.144   8.372   7.721 -1.0244  3.0237 -0.5279
69374SOL    HW218053  10.197   8.442   7.597  1.6231 -0.6390 -1.6251
69375SOL     OW18054   0.205  11.006  11.903  0.6090  0.0514  0.3376
69375SOL    HW118055   0.243  10.919  11.912 -0.8005 -0.4579  1.8429
69375SOL    HW218056   0.190  11.016  11.809  1.3409 -1.0795  0.0824
69376SOL     OW18057  11.751  11.268   4.151 -0.5194  0.0657 -0.4484
69376SOL    HW118058  11.692  11.279   4.077  0.4944 -1.7949 -1.6112
69376SOL    HW218059  11.837  11.292   4.118 -0.4632  2.4117  1.1297
69377SOL     OW18060   3.224  13.053   9.038  0.5053  0.1057 -0.2733
69377SOL    HW118061   3.202  13.032   8.947  0.1479 -1.2095  0.0946
69377SOL    HW218062   3.274  12.978   9.069  1.3122  0.8960  0.3921
69378SOL     OW18063   4.614   0.062   2.013  0.0811  0.8007 -0.0191
69378SOL    HW118064   4.680  -0.008   2.010  2.4516  2.9185 -1.8819
69378SOL    HW218065   4.535   0.021   1.978  1.1703 -1.1259 -0.4025
69379SOL     OW18066   8.844   3.129  11.935 -0.2430 -0.0554  0.1860
69379SOL    HW118067   8.868   3.187  12.007 -0.9482  1.6005 -0.8621
69379SOL    HW218068   8.927   3.103  11.896  0.0649  1.0264  0.0953
69380SOL     OW18069  12.931  10.031   7.755 -0.6465 -0.0227  0.2505
69380SOL    HW118070  12.885  10.085   7.819 -3.2788 -0.9212 -0.7674
69380SOL    HW218071  12.986   9.972   7.807 -0.1911  1.4424  1.4816
69381SOL     OW18072   2.009   7.904   7.954 -0.1477 -0.0612  0.1972
69381SOL    HW118073   2.006   7.812   7.926 -1.7325 -0.3020  1.0476
69381SOL    HW218074   2.069   7.945   7.892 -2.0847 -0.9435 -2.5066
69382SOL     OW18075   7.978   8.488   8.768  0.3378 -0.0793  0.0682
69382SOL    HW118076   7.995   8.468   8.676 -0.4085 -1.4391  0.2014
69382SOL    HW218077   7.908   8.553   8.766 -0.9783 -1.4451 -0.3415
69383SOL     OW18078   4.489   9.339   8.816  0.3553 -0.1894  0.1974
69383SOL    HW118079   4.455   9.406   8.757  1.4007 -1.2744 -1.7343
69383SOL    HW218080   4.445   9.356   8.899 -1.0940  1.4729 -0.8358
69384SOL     OW18081  12.438   6.781   7.108 -0.2026 -0.8808  0.1243
69384SOL    HW118082  12.519   6.798   7.061 -0.5132  0.5310  0.0707
69384SOL    HW218083  12.397   6.867   7.119 -1.6981 -1.5555  0.1506
69385SOL     OW18084   7.681   5.156  11.269  0.3556  0.2540  0.7114
69385SOL    HW118085   7.737   5.210  11.324  0.6809 -0.0885  0.7210
69385SOL    HW218086   7.615   5.120  11.329 -1.1777  2.3113  0.3631
69386SOL     OW18087   6.915   0.342   2.702 -0.0092  0.1597 -0.3941
69386SOL    HW118088   6.909   0.397   2.781 -1.2137 -0.0022 -0.3592
69386SOL    HW218089   6.905   0.404   2.630 -0.7434  0.0711 -0.3704
69387SOL     OW18090  11.272  11.596   0.249 -0.0968 -0.0185  0.5052
69387SOL    HW118091  11.337  11.557   0.307 -1.0893 -0.7454  1.1594
69387SOL    HW218092  11.211  11.640   0.308 -1.1011 -0.7376  0.0213
69388SOL     OW18093   5.768  10.750   7.923 -0.3482  0.5267  0.5693
69388SOL    HW118094   5.733  10.676   7.873  2.1319 -0.3410 -0.0117
69388SOL    HW218095   5.745  10.731   8.014  1.0985 -1.5341  0.5573
69389SOL     OW18096   5.415  11.824   5.977 -0.2419  0.2380 -0.2719
69389SOL    HW118097   5.415  11.908   6.023 -0.8073 -0.8397  1.7895
69389SOL    HW218098   5.331  11.783   5.999 -0.7557 -0.1589 -2.6854
69390SOL     OW18099   5.446   2.655  11.875  0.0722 -0.0037 -0.1478
69390SOL    HW118100   5.452   2.745  11.842  1.0075  0.1141  0.3199
69390SOL    HW218101   5.389   2.610  11.812  2.8920 -0.1635 -2.7923
69391SOL     OW18102  10.008   0.441   1.617  0.1062 -0.1526  0.1399
69391SOL    HW118103   9.978   0.531   1.623 -0.1506 -0.1490 -1.0124
69391SOL    HW218104  10.036   0.431   1.526 -0.9199 -1.5580 -0.0488
69392SOL     OW18105   9.179   4.192  12.792 -0.2538  0.4624 -0.0129
69392SOL    HW118106   9.116   4.161  12.727  1.4229 -0.5487 -1.2459
69392SOL    HW218107   9.211   4.113  12.834 -0.4055  1.0248  1.2047
69393SOL     OW18108   2.202  10.152   3.904  0.4478  0.2558 -0.6968
69393SOL    HW118109   2.152  10.100   3.841  1.4706 -0.8715 -0.6085
69393SOL    HW218110   2.204  10.098   3.983  1.1879  0.6069 -0.4742
69394SOL     OW18111  10.517   0.277   9.290 -0.2275 -0.3389  0.2692
69394SOL    HW118112  10.598   0.326   9.300 -1.3329  1.6706 -0.1163
69394SOL    HW218113  10.524   0.237   9.203 -0.6451  1.9164 -0.8857
69395SOL     OW18114  10.267  11.450  11.145  0.4843 -0.4939  0.4289
69395SOL    HW118115  10.324  11.424  11.073 -0.3633 -1.6699  0.1524
69395SOL    HW218116  10.235  11.537  11.120  0.1903 -0.8933 -0.6209
69396SOL     OW18117   7.332   8.325   7.878 -0.5290  0.7041 -0.6219
69396SOL    HW118118   7.302   8.282   7.798  0.2486  1.2552 -1.2219
69396SOL    HW218119   7.409   8.375   7.851 -0.2553  0.8928  0.4757
69397SOL     OW18120   4.467   4.690  10.055  0.2271  0.1607  0.2059
69397SOL    HW118121   4.405   4.753  10.091 -0.3156  0.0642 -0.5322
69397SOL    HW218122   4.536   4.683  10.121  0.1043  1.2380  0.4600
69398SOL     OW18123   5.667   1.282   9.753  0.3856  0.3268 -0.1608
69398SOL    HW118124   5.708   1.233   9.824 -0.5286  0.7166  0.6504
69398SOL    HW218125   5.606   1.342   9.796 -0.1110  0.6460 -1.2630
69399SOL     OW18126   2.754   7.699   9.479  0.5397 -0.0518 -0.2358
69399SOL    HW118127   2.718   7.610   9.477 -1.3915  0.6355  1.3239
69399SOL    HW218128   2.819   7.696   9.549  0.7871 -0.3105 -0.4684
69400SOL     OW18129   3.156  10.421  11.063  0.0103 -0.6741 -0.4178
69400SOL    HW118130   3.177  10.512  11.086 -1.1715 -0.8863  1.7694
69400SOL    HW218131   3.070  10.426  11.022  0.4790 -0.7066 -1.4329
69401SOL     OW18132   0.678   4.788   5.549 -0.0092 -0.5301  0.2625
69401SOL    HW118133   0.637   4.798   5.463 -0.2531 -0.2457  0.4122
69401SOL    HW218134   0.761   4.835   5.542 -1.9200  3.5068  1.5318
69402SOL     OW18135  12.161  11.025  12.016  0.3098 -0.3666 -0.1628
69402SOL    HW118136  12.193  11.074  12.092 -0.6116  0.0150 -0.0065
69402SOL    HW218137  12.208  11.063  11.942  0.2947  0.1247  0.0741
69403SOL     OW18138   8.419   1.865   2.637  0.1104 -0.2892 -0.3563
69403SOL    HW118139   8.323   1.874   2.630  0.1136  0.2074  0.0824
69403SOL    HW218140   8.450   1.956   2.644  0.6425 -0.4356 -0.8280
69404SOL     OW18141   3.310   9.487   3.798 -0.2017 -0.0903  0.2036
69404SOL    HW118142   3.283   9.497   3.890 -1.4615  0.2687 -0.1873
69404SOL    HW218143   3.400   9.520   3.796 -0.3672  0.4658  1.1938
69405SOL     OW18144  11.062   5.597  10.702  0.6967 -0.5993 -0.1759
69405SOL    HW118145  11.031   5.686  10.719 -0.7792 -0.9863 -0.7021
69405SOL    HW218146  11.005   5.541  10.755 -0.8060 -1.4696 -2.5866
69406SOL     OW18147  12.040  12.158   8.063 -0.1985 -0.7492  0.0201
69406SOL    HW118148  12.033  12.206   8.145  0.7654  0.4496 -0.5661
69406SOL    HW218149  11.957  12.110   8.056 -0.4272 -0.6073  1.5126
69407SOL     OW18150   6.461  12.428   9.074 -0.4954  0.1825  0.0450
69407SOL    HW118151   6.379  12.455   9.032 -0.4878 -0.8378 -0.6706
69407SOL    HW218152   6.473  12.490   9.146 -0.4564  2.0583 -1.5063
69408SOL     OW18153   7.947   2.406   1.305  0.1043  0.1606  0.0455
69408SOL    HW118154   7.905   2.430   1.388  0.7645 -0.3124  0.5278
69408SOL    HW218155   7.886   2.344   1.265 -0.0620  0.1228  0.3483
69409SOL     OW18156   4.390   7.687   9.988 -0.2987  0.3782  0.2611
69409SOL    HW118157   4.431   7.766  10.023 -1.2961  1.1510 -0.2831
69409SOL    HW218158   4.307   7.716   9.951 -0.0471 -0.6730 -1.2427
69410SOL     OW18159   1.713   1.479   7.460  0.0386 -0.0980 -0.0815
69410SOL    HW118160   1.706   1.517   7.373  1.4334  1.6910  0.5235
69410SOL    HW218161   1.627   1.494   7.500 -1.0165 -1.9770 -1.4623
69411SOL     OW18162   5.580   5.199   4.027  0.0450 -0.3288  0.1308
69411SOL    HW118163   5.628   5.117   4.038  1.3104  0.4057  0.2767
69411SOL    HW218164   5.635   5.265   4.068 -0.6077  0.7061 -0.5980
69412SOL     OW18165   7.352   5.656   2.947 -0.1814  0.4373 -0.4161
69412SOL    HW118166   7.440   5.689   2.967 -0.0147  0.5474 -1.2609
69412SOL    HW218167   7.302   5.670   3.027  0.5615  0.4128  0.0640
69413SOL     OW18168   6.759   5.921   3.462  0.1119  0.1964 -0.1031
69413SOL    HW118169   6.837   5.865   3.459  0.1272  0.0402  1.9207
69413SOL    HW218170   6.750   5.945   3.554 -1.7039  0.9958 -0.4438
69414SOL     OW18171   2.597   4.003   0.330 -0.1638  0.4370 -0.1373
69414SOL    HW118172   2.633   4.030   0.415  0.1581 -2.4054  0.7627
69414SOL    HW218173   2.667   4.023   0.268  0.7654  0.0445  0.7364
69415SOL     OW18174   3.587   1.650   6.295 -0.4040 -0.0840 -0.6360
69415SOL    HW118175   3.627   1.734   6.271  0.4144 -0.7280 -1.5511
69415SOL    HW218176   3.495   1.661   6.271 -1.0689  1.6802  2.1854
69416SOL     OW18177   3.482  11.539   7.987 -0.1477 -0.3543  0.1498
69416SOL    HW118178   3.464  11.500   8.073 -0.0216 -0.5204  0.1033
69416SOL    HW218179   3.571  11.510   7.967  0.7605  1.6214  1.0340
69417SOL     OW18180   8.381   0.568   2.892 -0.6600  0.7093 -0.4210
69417SOL    HW118181   8.469   0.606   2.889 -1.0044  1.5534 -0.2613
69417SOL    HW218182   8.395   0.476   2.915  0.1444  0.9984  0.3067
69418SOL     OW18183   4.789   0.294   5.155 -0.6392 -0.2247 -0.1935
69418SOL    HW118184   4.878   0.328   5.144 -1.3081  1.3221 -1.1015
69418SOL    HW218185   4.769   0.253   5.072 -0.5071 -1.2948  0.2868
69419SOL     OW18186   3.278   4.897   8.218  0.0940 -0.2163  0.2353
69419SOL    HW118187   3.267   4.814   8.172 -0.3099 -0.2091  0.3137
69419SOL    HW218188   3.196   4.943   8.203  0.0001 -0.1662  0.8729
69420SOL     OW18189   2.567   0.116   9.796 -0.3409 -0.3694  0.1365
69420SOL    HW118190   2.552   0.052   9.865  0.4741 -0.8020 -0.0852
69420SOL    HW218191   2.543   0.200   9.836 -0.7608 -0.7225  0.6399
69421SOL     OW18192  10.433   3.128   9.022  0.0282 -0.1158  0.6674
69421SOL    HW118193  10.361   3.065   9.011 -0.6852  0.8058 -0.0685
69421SOL    HW218194  10.489   3.114   8.946  1.1080 -1.4000  1.6534
69422SOL     OW18195   0.679   9.462  13.054  0.2084  0.0661 -0.5637
69422SOL    HW118196   0.633   9.436  12.974  0.5404  1.2822 -1.1813
69422SOL    HW218197   0.686   9.558  13.047 -0.4667  0.2993  1.3037
69423SOL     OW18198   5.259  11.003   1.211  0.9762 -0.1215 -0.1827
69423SOL    HW118199   5.199  10.930   1.218 -0.4111  0.9635 -0.2812
69423SOL    HW218200   5.307  10.987   1.130  0.2560 -0.6154 -0.5242
69424SOL     OW18201   3.466  11.551   1.173 -0.2137 -0.1721  0.3312
69424SOL    HW118202   3.504  11.480   1.120  0.2908  0.3992 -0.0887
69424SOL    HW218203   3.472  11.628   1.117 -2.5504 -0.1571  0.0042
69425SOL     OW18204   6.492  11.310   6.546 -0.3621 -0.2748 -0.2773
69425SOL    HW118205   6.452  11.234   6.587 -0.9458 -0.2387 -0.7795
69425SOL    HW218206   6.567  11.275   6.498 -2.1016 -0.9396 -2.6469
69426SOL     OW18207   7.450   0.896   8.514 -0.0284 -0.1139  0.0581
69426SOL    HW118208   7.517   0.867   8.452 -0.4092  0.8930 -0.8412
69426SOL    HW218209   7.381   0.831   8.507 -0.6827  0.7232 -1.6193
69427SOL     OW18210   4.315   2.410   0.145 -0.0666  0.2373  0.4545
69427SOL    HW118211   4.356   2.416   0.060  0.4024 -0.9126  0.5793
69427SOL    HW218212   4.244   2.474   0.143  1.3652  1.8507  0.0448
69428SOL     OW18213  12.304   0.079  12.144  0.2502  0.2094 -0.2865
69428SOL    HW118214  12.359   0.108  12.072  1.4728  0.6008  0.7654
69428SOL    HW218215  12.364   0.037  12.205 -0.8315 -0.5683  0.2853
69429SOL     OW18216  10.786   4.027   5.533  0.5224  0.0163  0.4817
69429SOL    HW118217  10.849   4.032   5.461 -0.0210  1.8221  0.0808
69429SOL    HW218218  10.704   4.004   5.492  0.4259  0.0413  0.6573
69430SOL     OW18219   3.283   6.851   2.084 -0.1977 -0.3585  1.1310
69430SOL    HW118220   3.309   6.760   2.097  0.6077 -0.3631 -0.2815
69430SOL    HW218221   3.365   6.900   2.084 -0.5743  0.2807  1.2404
69431SOL     OW18222  10.710   5.867   6.417  0.4971 -0.2824 -0.1594
69431SOL    HW118223  10.740   5.955   6.394  0.8806  0.0095  1.3887
69431SOL    HW218224  10.614   5.874   6.414  0.4921  0.5082  1.0022
69432SOL     OW18225  12.386   4.319   5.074  0.0852 -0.3835 -0.4324
69432SOL    HW118226  12.375   4.403   5.119 -1.3508  0.2632 -1.8695
69432SOL    HW218227  12.481   4.307   5.068  0.3129  0.2466  1.3355
69433SOL     OW18228   1.669   4.578   3.213 -0.8239  0.3819 -0.0793
69433SOL    HW118229   1.733   4.636   3.255  2.2295 -1.4644 -1.8456
69433SOL    HW218230   1.655   4.616   3.127 -0.6696 -0.2341 -0.3772
69434SOL     OW18231   6.921   0.331  11.023 -0.0730  0.0765  0.6846
69434SOL    HW118232   6.834   0.367  11.037 -0.3721 -0.5239  0.3938
69434SOL    HW218233   6.906   0.251  10.973  0.7423  0.7319 -0.6723
69435SOL     OW18234   4.635  11.892   5.413  0.4999  0.2389  0.1155
69435SOL    HW118235   4.678  11.814   5.378  0.5582  0.3481 -0.0562
69435SOL    HW218236   4.565  11.911   5.351 -0.6084 -0.6605  1.0298
69436SOL     OW18237   0.420   4.335   4.542 -0.4213  0.2812 -0.6037
69436SOL    HW118238   0.446   4.383   4.463  1.5307  0.8995  0.3582
69436SOL    HW218239   0.394   4.403   4.604  1.6198  0.1036  0.5132
69437SOL     OW18240  11.498   6.144   6.848 -0.3151 -0.0291 -0.1078
69437SOL    HW118241  11.539   6.164   6.764  1.8092  0.4414  0.9707
69437SOL    HW218242  11.514   6.221   6.903 -1.1181 -0.5629  0.9296
69438SOL     OW18243  10.438  10.894  12.016 -0.0662  0.4838  0.7232
69438SOL    HW118244  10.483  10.892  12.100  1.4818 -1.1218 -0.0870
69438SOL    HW218245  10.381  10.817  12.018  2.0183 -1.2101 -0.6840
69439SOL     OW18246   3.820   2.407   4.243 -0.3959 -0.3192  0.0584
69439SOL    HW118247   3.758   2.365   4.183  1.3333 -2.7167 -0.2157
69439SOL    HW218248   3.872   2.465   4.187 -0.5911 -0.4418 -0.2539
69440SOL     OW18249   6.015   6.335   0.251  0.0739 -0.4309  0.0255
69440SOL    HW118250   6.012   6.428   0.227 -1.6466 -0.6818 -0.8685
69440SOL    HW218251   6.002   6.288   0.169 -0.7734 -1.4206  0.6940
69441SOL     OW18252  13.229   7.624  11.805 -0.2888  0.0253 -0.3211
69441SOL    HW118253  13.230   7.677  11.885 -0.6526  0.8769 -0.8593
69441SOL    HW218254  13.159   7.663  11.752  0.8973  0.4056 -1.6587
69442SOL     OW18255   2.113   8.581   9.681  0.2238 -0.5490 -0.1723
69442SOL    HW118256   2.056   8.536   9.744 -2.5716  2.2754 -0.3875
69442SOL    HW218257   2.067   8.573   9.597 -0.1832  2.1029 -0.3055
69443SOL     OW18258   7.056   6.458   5.243 -0.4767  0.2387 -0.6601
69443SOL    HW118259   7.067   6.530   5.305  0.5375  0.2604 -0.8561
69443SOL    HW218260   6.962   6.439   5.246 -0.8013  1.6991 -0.7653
69444SOL     OW18261  11.691   0.550   6.099  0.5500 -0.0425  0.2285
69444SOL    HW118262  11.715   0.469   6.053 -0.4375 -0.0917 -0.2254
69444SOL    HW218263  11.629   0.593   6.040  2.1886  1.8067 -0.2392
69445SOL     OW18264   4.170   4.034   5.151  0.2364 -0.3411  0.4611
69445SOL    HW118265   4.140   3.973   5.084  0.6631 -1.1116  0.9457
69445SOL    HW218266   4.090   4.066   5.193 -0.1124  1.1337 -1.2219
69446SOL     OW18267  10.709   0.225   3.800 -0.4867 -0.0247 -0.0299
69446SOL    HW118268  10.764   0.199   3.874  0.5134  1.6328 -0.1290
69446SOL    HW218269  10.642   0.282   3.839 -0.8181 -0.2830 -0.2166
69447SOL     OW18270   8.210   0.069   5.514  0.1886  0.0388  0.2640
69447SOL    HW118271   8.269   0.143   5.530 -1.4365  1.2679  0.8089
69447SOL    HW218272   8.264  -0.008   5.534  1.9229  1.0345 -0.2919
69448SOL     OW18273   9.163  12.440  11.679  0.0883 -0.9238  0.4911
69448SOL    HW118274   9.159  12.418  11.772 -0.6136  0.7390  0.8958
69448SOL    HW218275   9.114  12.522  11.672  2.1741  0.2838 -0.9316
69449SOL     OW18276   4.260  12.441   4.789 -0.6129  0.0154  0.3479
69449SOL    HW118277   4.344  12.397   4.782 -0.8465 -0.3299 -0.3420
69449SOL    HW218278   4.245  12.450   4.883 -0.3316 -0.9391  0.4894
69450SOL     OW18279   1.648  11.694   0.297  0.3211 -0.4939  0.1389
69450SOL    HW118280   1.555  11.690   0.317 -0.4024  0.9360 -2.3891
69450SOL    HW218281   1.663  11.621   0.236 -0.3131  1.7417 -2.9646
69451SOL     OW18282   4.444   5.290   2.004  0.2224  0.0707 -0.2344
69451SOL    HW118283   4.397   5.229   2.061  0.5179  0.4430  0.4187
69451SOL    HW218284   4.529   5.301   2.046  0.6108 -0.0018 -0.9960
69452SOL     OW18285   3.965  10.391   0.356 -0.7798 -0.2295 -0.2926
69452SOL    HW118286   3.870  10.399   0.354 -0.7357  2.6400  1.9202
69452SOL    HW218287   3.989  10.416   0.445  2.1610  0.7004 -1.2355
69453SOL     OW18288   5.120   7.768   2.877 -0.0298 -0.0012 -0.2488
69453SOL    HW118289   5.035   7.726   2.894 -0.3497  1.1827  1.3583
69453SOL    HW218290   5.100   7.836   2.812 -0.5560  0.9061  0.8188
69454SOL     OW18291   9.023   2.780  12.082  0.0910 -0.5535 -0.2323
69454SOL    HW118292   8.981   2.851  12.131  1.1249  0.1856 -0.3868
69454SOL    HW218293   8.958   2.755  12.017 -0.6684 -0.4271  0.4520
69455SOL     OW18294   8.442  13.312  11.047 -0.0742  0.0711 -0.1902
69455SOL    HW118295   8.414  13.268  11.127 -0.2893 -1.8601 -1.2605
69455SOL    HW218296   8.369  13.302  10.986  1.2840 -1.4702 -1.6961
69456SOL     OW18297  10.148  10.555   8.441  0.2162  0.6137 -0.2762
69456SOL    HW118298  10.226  10.601   8.472  0.3530 -0.3416  0.8479
69456SOL    HW218299  10.181  10.474   8.402 -0.1860  0.3083  0.0073
69457SOL     OW18300   4.926   0.776  12.523  1.0655 -0.2181  0.4763
69457SOL    HW118301   4.885   0.852  12.482  1.9182  1.2490  2.1997
69457SOL    HW218302   4.873   0.702  12.494 -2.4531  1.4528  2.0376
69458SOL     OW18303   7.584  10.706   3.782 -0.5074 -0.5549  0.0229
69458SOL    HW118304   7.509  10.755   3.747 -1.2507 -0.8345  1.1846
69458SOL    HW218305   7.615  10.654   3.708 -0.3140  0.9134 -0.9671
69459SOL     OW18306   0.551   4.301   3.578  0.5835 -0.4619 -0.7339
69459SOL    HW118307   0.493   4.297   3.654  1.8788 -0.9144  0.2804
69459SOL    HW218308   0.626   4.246   3.602  0.6909 -1.2267 -2.6567
69460SOL     OW18309   5.816   9.117   1.495 -0.5100  0.5947  0.2863
69460SOL    HW118310   5.802   9.151   1.407  1.1283  0.7210  0.0592
69460SOL    HW218311   5.798   9.192   1.552  0.8945  1.2602 -0.0961
69461SOL     OW18312  10.847  12.085   7.966  0.0123 -0.8608  0.2824
69461SOL    HW118313  10.778  12.099   8.030  0.7785 -2.1388  1.4612
69461SOL    HW218314  10.916  12.148   7.990 -0.5794  0.2106 -0.7116
69462SOL     OW18315   3.207  12.533   6.825 -0.0503  0.1947 -0.4725
69462SOL    HW118316   3.173  12.620   6.845 -0.9587 -0.2207 -0.1715
69462SOL    HW218317   3.129  12.479   6.811  0.4817 -0.7499  0.0955
69463SOL     OW18318   0.044   2.644  12.917  0.1684  0.1925  0.1387
69463SOL    HW118319  -0.050   2.633  12.929  0.3794  0.2694  2.1453
69463SOL    HW218320   0.070   2.706  12.984  1.4958  1.0884 -1.1363
69464SOL     OW18321   0.480   3.497   5.039  0.6811 -0.2054  0.4567
69464SOL    HW118322   0.435   3.464   4.961  1.7394  0.0841 -0.2924
69464SOL    HW218323   0.558   3.541   5.006  2.2972 -1.8929  1.7796
69465SOL     OW18324   6.150  11.437   2.432  0.0591  0.7461  0.0168
69465SOL    HW118325   6.246  11.437   2.427  0.1954  0.2029  1.9543
69465SOL    HW218326   6.122  11.484   2.353  1.8733 -0.0530 -1.1561
69466SOL     OW18327   0.954   4.270   1.040 -0.2174  0.7312 -0.5180
69466SOL    HW118328   0.977   4.324   1.116  0.5753  0.6644 -0.7047
69466SOL    HW218329   0.861   4.250   1.053  0.4334 -1.3254  1.7387
69467SOL     OW18330   2.668   1.304   7.565 -0.2752 -0.4904  0.2792
69467SOL    HW118331   2.683   1.222   7.611  1.5565 -0.4340 -0.1148
69467SOL    HW218332   2.731   1.365   7.605  0.1343  0.0230 -1.0775
69468SOL     OW18333   3.426   7.746  10.272  0.1607 -0.2934  0.2769
69468SOL    HW118334   3.406   7.750  10.365 -1.4703  0.9589 -0.0972
69468SOL    HW218335   3.460   7.833  10.250 -1.5199  0.1750 -0.6903
69469SOL     OW18336   9.368   5.125   1.800 -0.3504 -0.3380 -0.0207
69469SOL    HW118337   9.372   5.036   1.764  1.1561 -0.4981  0.4726
69469SOL    HW218338   9.399   5.115   1.890 -1.9757  0.4031  0.6478
69470SOL     OW18339   6.494   7.044   8.976  0.3583  0.0216 -0.1186
69470SOL    HW118340   6.504   7.034   9.071  0.5013  0.2448 -0.1087
69470SOL    HW218341   6.565   6.993   8.939 -0.3144 -0.9211 -0.1382
69471SOL     OW18342   5.577   1.195   8.199 -0.0894  0.4543  0.3616
69471SOL    HW118343   5.553   1.288   8.197  0.1025  0.5045  0.3488
69471SOL    HW218344   5.647   1.189   8.264  1.1479  0.6265 -0.8911
69472SOL     OW18345   8.470   8.886  12.075  0.2504 -0.2027 -0.7235
69472SOL    HW118346   8.414   8.938  12.133  2.1939  0.0570  1.0293
69472SOL    HW218347   8.424   8.802  12.067  0.6629 -0.8965  2.6515
69473SOL     OW18348   1.450   9.178   7.640 -0.3326  0.4940 -0.5479
69473SOL    HW118349   1.472   9.099   7.689 -2.5945  0.4480  0.5114
69473SOL    HW218350   1.518   9.241   7.664  0.7098 -0.6870 -0.3104
69474SOL     OW18351  11.415   6.174   4.158  0.6671  0.0569 -0.3814
69474SOL    HW118352  11.358   6.149   4.085 -1.1652  3.1512 -0.1811
69474SOL    HW218353  11.466   6.247   4.124  1.8723 -0.2756  0.6252
69475SOL     OW18354   7.108   9.538  10.245 -0.2887  0.7007  0.0618
69475SOL    HW118355   7.118   9.530  10.340 -0.8739  2.0983  0.2790
69475SOL    HW218356   7.051   9.465  10.220  0.7343 -0.3094  0.6038
69476SOL     OW18357   3.328   7.786   4.030  0.2001  0.1877 -0.2735
69476SOL    HW118358   3.416   7.775   3.993  0.2058 -1.9381  0.2448
69476SOL    HW218359   3.344   7.817   4.119  0.4583 -0.7334  0.0069
69477SOL     OW18360   0.426   0.434   9.215  0.5667 -0.1037 -0.0377
69477SOL    HW118361   0.405   0.345   9.242  0.9805  0.7423  3.6053
69477SOL    HW218362   0.351   0.486   9.246  0.9967  0.9922 -0.7757
69478SOL     OW18363   6.417   3.250   5.737 -0.5953 -0.1907  0.4422
69478SOL    HW118364   6.378   3.338   5.735  0.4792  0.2982  0.3228
69478SOL    HW218365   6.450   3.236   5.648  0.7775  0.0153  0.8970
69479SOL     OW18366   1.909  11.501  12.242 -0.6079 -0.2734 -0.1288
69479SOL    HW118367   1.887  11.565  12.309 -2.3549 -1.9777  1.0301
69479SOL    HW218368   2.005  11.497  12.243 -0.4190  2.3536 -0.3787
69480SOL     OW18369   8.339  13.279   9.482 -0.3374  0.4215  0.0562
69480SOL    HW118370   8.250  13.258   9.510 -1.0710  0.5808 -1.9409
69480SOL    HW218371   8.327  13.351   9.420  0.9030 -0.9355 -1.8820
69481SOL     OW18372  10.760  12.023   4.906  0.0537 -0.0497  0.0800
69481SOL    HW118373  10.784  12.103   4.860 -1.9369  0.6714  0.2243
69481SOL    HW218374  10.828  11.960   4.881  1.3573  1.4995 -0.4689
69482SOL     OW18375   0.783  10.674  10.675  0.2813  0.6808  0.3926
69482SOL    HW118376   0.849  10.709  10.615 -0.7433  1.6542 -0.2142
69482SOL    HW218377   0.750  10.751  10.722 -0.9252  0.3410  0.1449
69483SOL     OW18378   6.326   2.987   3.216 -0.0417 -0.3053  0.0679
69483SOL    HW118379   6.339   2.965   3.308  0.8324  0.6702  0.1955
69483SOL    HW218380   6.280   3.071   3.218  2.1295  0.9583 -0.3308
69484SOL     OW18381   8.606   7.311   8.701  0.2724  0.3902 -0.1598
69484SOL    HW118382   8.663   7.299   8.777  0.0975  0.9017  0.0604
69484SOL    HW218383   8.658   7.365   8.641  0.3650  0.0891 -0.3512
69485SOL     OW18384   6.226   3.784  11.512  0.1887 -0.0860  0.3005
69485SOL    HW118385   6.313   3.768  11.476  0.1654  1.4260 -0.5568
69485SOL    HW218386   6.224   3.736  11.595  0.6329 -2.8291 -1.1721
69486SOL     OW18387   0.406   4.077   0.452 -0.1655  0.8421  0.4245
69486SOL    HW118388   0.406   3.983   0.470  0.8099  0.5868 -0.7693
69486SOL    HW218389   0.345   4.114   0.516 -0.3878 -0.5671  1.0601
69487SOL     OW18390  11.527   2.914  12.102 -0.1325  0.6786  0.6655
69487SOL    HW118391  11.618   2.905  12.072  0.5577  1.3610  2.4245
69487SOL    HW218392  11.480   2.950  12.027  0.8747 -0.3861 -0.5190
69488SOL     OW18393   2.775   9.840   5.145  0.1478 -0.1207  0.2625
69488SOL    HW118394   2.709   9.887   5.196  0.4282 -0.5369  1.0117
69488SOL    HW218395   2.803   9.769   5.202  1.6374  0.3642  0.1627
69489SOL     OW18396   9.450   5.854   0.134 -0.0598 -0.0215 -0.1799
69489SOL    HW118397   9.373   5.898   0.169 -1.1248 -2.8598  1.4037
69489SOL    HW218398   9.524   5.895   0.179 -0.5650  2.4536 -1.4150
69490SOL     OW18399   2.449   0.242   0.522  0.5838  0.0568 -0.1387
69490SOL    HW118400   2.507   0.313   0.495 -0.9736  1.5841  0.2908
69490SOL    HW218401   2.423   0.199   0.440  0.0556  1.2420 -0.6199
69491SOL     OW18402   4.458   6.809   8.747 -0.0488  0.0645 -0.2880
69491SOL    HW118403   4.529   6.865   8.714 -0.9745  0.1738 -2.2179
69491SOL    HW218404   4.498   6.759   8.819  1.8758  0.3924 -1.0773
69492SOL     OW18405   2.341  13.180   4.731 -0.3921 -0.7607  0.2385
69492SOL    HW118406   2.415  13.228   4.693 -1.7912  1.7540  0.4516
69492SOL    HW218407   2.281  13.168   4.658 -1.6039  1.0844  0.8637
69493SOL     OW18408   6.684   7.653  12.826  0.9990  0.0150  0.6576
69493SOL    HW118409   6.742   7.633  12.752 -1.2645 -4.5866 -0.2689
69493SOL    HW218410   6.720   7.601  12.898  1.4411  2.0929  2.0188
69494SOL     OW18411  11.590  12.724   6.737  0.0908 -0.0927  0.4873
69494SOL    HW118412  11.671  12.681   6.765  0.2303 -0.6982 -0.7902
69494SOL    HW218413  11.594  12.810   6.778  2.2301  0.5366 -0.8827
69495SOL     OW18414   7.330  11.527   5.344 -0.4564 -0.3710 -0.4727
69495SOL    HW118415   7.299  11.474   5.417 -1.1458  0.1272 -0.4054
69495SOL    HW218416   7.255  11.580   5.318 -0.7359 -1.6428 -2.5505
69496SOL     OW18417   5.037   4.583   3.043  0.3065 -0.9041 -0.3622
69496SOL    HW118418   5.085   4.588   2.961 -0.8800  1.0459 -1.0005
69496SOL    HW218419   5.055   4.667   3.086 -0.6384 -1.1063  0.4630
69497SOL     OW18420   8.362  12.184   2.818  0.3802 -0.0482  0.1674
69497SOL    HW118421   8.294  12.177   2.885  0.1849  1.9736  0.2357
69497SOL    HW218422   8.316  12.169   2.736 -0.0297  0.6431  0.2630
69498SOL     OW18423   5.012   8.012   2.728 -0.3875  0.0039 -0.4973
69498SOL    HW118424   4.971   8.025   2.642  0.2259 -0.2077 -0.8299
69498SOL    HW218425   4.946   8.040   2.791 -1.8365 -2.1307 -0.9280
69499SOL     OW18426   4.428   3.608   0.490 -0.8238 -0.4123  0.3420
69499SOL    HW118427   4.360   3.668   0.458 -0.3583 -0.2239 -0.3175
69499SOL    HW218428   4.510   3.648   0.464 -0.5216 -2.0406 -1.4729
69500SOL     OW18429  12.748   4.032   6.885 -0.3827 -0.9559  0.5893
69500SOL    HW118430  12.722   3.990   6.803 -2.9432 -0.3034  0.9863
69500SOL    HW218431  12.759   4.124   6.863  0.3142 -1.0026  0.7197
69501SOL     OW18432   4.349  10.674   9.797  0.0102  0.5063 -0.0919
69501SOL    HW118433   4.273  10.626   9.831 -0.6469  1.4226 -0.2225
69501SOL    HW218434   4.313  10.758   9.768  0.4789 -0.2933 -3.3102
69502SOL     OW18435   3.998  12.479   3.488 -0.0193  0.1306 -0.3544
69502SOL    HW118436   4.076  12.427   3.505 -0.4937 -0.5491 -0.2191
69502SOL    HW218437   4.029  12.552   3.435  0.7952  0.1562  0.1445
69503SOL     OW18438   7.328  10.888   7.689 -0.3263  0.1092  0.4960
69503SOL    HW118439   7.370  10.964   7.650  0.4305  0.5091  2.0071
69503SOL    HW218440   7.385  10.814   7.666  0.1438  0.3508  0.8502
69504SOL     OW18441   2.400   0.726   5.938  0.0004 -0.1327  0.0676
69504SOL    HW118442   2.453   0.800   5.968 -0.7595 -0.0619  1.2712
69504SOL    HW218443   2.339   0.764   5.875 -0.8196  0.4187  1.1544
69505SOL     OW18444   7.244   6.020   2.931 -0.0667  0.6456  0.1904
69505SOL    HW118445   7.214   5.965   2.859  1.1977  0.4997 -0.2559
69505SOL    HW218446   7.265   5.958   3.001  0.2357  0.6448  0.1025
69506SOL     OW18447   6.838  10.841   9.180 -0.9045  1.1791  0.2173
69506SOL    HW118448   6.889  10.780   9.234  0.8228 -0.5354 -3.0539
69506SOL    HW218449   6.765  10.788   9.146  0.0766  1.0947 -1.9091
69507SOL     OW18450   3.374  12.130   9.531 -0.1699 -0.2730  0.3236
69507SOL    HW118451   3.308  12.071   9.567 -0.2533  0.8581  2.2060
69507SOL    HW218452   3.326  12.185   9.469 -0.7931 -0.1603  0.8897
69508SOL     OW18453   7.563  12.840   5.735  0.0851 -0.6143 -0.6789
69508SOL    HW118454   7.546  12.931   5.759 -0.8783 -1.4302  2.0733
69508SOL    HW218455   7.482  12.794   5.759  2.1801 -2.9472  2.7298
69509SOL     OW18456  13.287   5.168   8.500 -0.2411  0.6415  0.3926
69509SOL    HW118457  13.281   5.245   8.556  0.2893  1.1214 -0.2020
69509SOL    HW218458  13.364   5.184   8.445  0.5137 -0.7761  0.9794
69510SOL     OW18459  12.310   6.382  11.232  0.4887  0.3523 -0.0970
69510SOL    HW118460  12.345   6.309  11.180 -1.7637  0.0626 -1.3693
69510SOL    HW218461  12.300   6.453  11.169 -2.4110 -0.0376 -0.2290
69511SOL     OW18462  10.080   7.708   6.174  0.2914 -0.6194  0.6332
69511SOL    HW118463  10.096   7.636   6.113  0.1397 -1.5825  1.6836
69511SOL    HW218464   9.985   7.719   6.173  0.3361 -0.2419  0.2732
69512SOL     OW18465   4.129  11.198   1.909  0.0152 -0.5024  0.5290
69512SOL    HW118466   4.215  11.160   1.927 -0.2958 -0.6678  1.7644
69512SOL    HW218467   4.089  11.208   1.995 -1.3484 -0.7756 -0.0521
69513SOL     OW18468   6.282   6.276  11.698  0.0649  0.9021 -0.3820
69513SOL    HW118469   6.278   6.207  11.764  1.6892  3.2813  2.4151
69513SOL    HW218470   6.375   6.285  11.677 -0.3867  0.2335 -3.1375
69514SOL     OW18471  10.699   8.651  12.394 -0.0167 -0.0573 -0.7587
69514SOL    HW118472  10.684   8.744  12.379 -0.3751  0.0058 -0.0365
69514SOL    HW218473  10.793   8.639  12.379  0.2113  0.6150  0.1179
69515SOL     OW18474   2.654   3.940   5.494  0.2061  0.2465 -0.6362
69515SOL    HW118475   2.564   3.940   5.461 -0.1657  1.5728  0.2821
69515SOL    HW218476   2.655   3.872   5.562  0.1048 -0.2795 -1.1570
69516SOL     OW18477   0.904   9.973  10.118  0.3043 -0.1451  0.5805
69516SOL    HW118478   0.934  10.026  10.192 -0.5389 -0.9115  1.5012
69516SOL    HW218479   0.980   9.968  10.059  0.3990  2.1006  0.4333
69517SOL     OW18480   3.300   7.471   2.296 -0.2474  0.0893  0.5281
69517SOL    HW118481   3.386   7.460   2.337 -0.0271  0.2895  0.1202
69517SOL    HW218482   3.304   7.556   2.254  0.2571 -0.9322 -1.6223
69518SOL     OW18483  10.353  11.998  10.407 -0.5586 -0.3701  0.1614
69518SOL    HW118484  10.277  12.002  10.349 -0.8971  0.0869  0.6318
69518SOL    HW218485  10.372  12.089  10.429 -0.8385 -0.5731  1.2856
69519SOL     OW18486  12.268   4.072   1.270  0.6223  0.0265 -0.0913
69519SOL    HW118487  12.298   4.038   1.186 -0.9468 -1.0027 -0.2753
69519SOL    HW218488  12.197   4.133   1.248  1.8948  1.7630  0.3775
69520SOL     OW18489   1.322   2.840  11.837  0.5225  0.3369  0.5593
69520SOL    HW118490   1.287   2.925  11.865  1.1839  0.8756 -0.2057
69520SOL    HW218491   1.287   2.827  11.749  1.4529  0.4290  0.1692
69521SOL     OW18492  11.275  11.548   3.309  0.0240 -0.6882  0.3774
69521SOL    HW118493  11.243  11.465   3.273 -0.6806 -0.8789  1.4109
69521SOL    HW218494  11.206  11.611   3.287  0.7498 -0.2638 -0.7742
69522SOL     OW18495  10.410   7.175  11.733 -0.2229  0.5127 -0.4483
69522SOL    HW118496  10.403   7.175  11.637  0.3361  2.4674 -0.5291
69522SOL    HW218497  10.459   7.095  11.753 -0.8869 -0.2576 -1.7275
69523SOL     OW18498  10.842   5.655   7.824 -0.0050 -0.0299 -0.6371
69523SOL    HW118499  10.809   5.584   7.879 -1.1787 -3.1074 -4.8245
69523SOL    HW218500  10.937   5.646   7.829  0.1589  1.9147  3.1281
69524SOL     OW18501   2.175   1.120   0.492  0.3582  0.1290 -0.0979
69524SOL    HW118502   2.128   1.094   0.571  0.2950 -0.7842 -0.4227
69524SOL    HW218503   2.196   1.037   0.448 -0.4855  0.6510 -1.5436
69525SOL     OW18504   9.957   3.374  11.292 -0.0772  0.4976 -0.2533
69525SOL    HW118505   9.898   3.413  11.356 -2.4430  0.0698 -2.0532
69525SOL    HW218506  10.009   3.312  11.342 -2.2227 -0.2347  1.1835
69526SOL     OW18507  10.920   9.295  10.238 -0.0431  0.0331 -0.1548
69526SOL    HW118508  10.926   9.369  10.299 -1.7991  0.3941 -0.3897
69526SOL    HW218509  11.007   9.291  10.198  0.1887  1.7676  0.0876
69527SOL     OW18510   2.891   6.254  12.946  0.0385  0.0482  0.1234
69527SOL    HW118511   2.964   6.195  12.968 -1.3874 -0.8233  2.9729
69527SOL    HW218512   2.831   6.200  12.896 -0.2644 -0.2847  0.8421
69528SOL     OW18513  10.940   4.945  10.399 -0.0040 -0.7610 -0.2186
69528SOL    HW118514  10.937   5.040  10.413 -1.5492 -0.8382  0.1511
69528SOL    HW218515  11.004   4.934  10.329 -0.6850  0.6782 -1.1345
69529SOL     OW18516   4.651   5.386  12.934 -0.6938  0.2511 -0.0522
69529SOL    HW118517   4.711   5.368  13.006  0.3984 -1.3821 -1.2974
69529SOL    HW218518   4.603   5.464  12.962  1.2210  0.9739  1.4794
69530SOL     OW18519   7.818   4.292   2.738 -0.1616 -0.3506  0.1250
69530SOL    HW118520   7.786   4.376   2.771 -0.5467 -0.4063 -0.0933
69530SOL    HW218521   7.912   4.303   2.730 -0.3289  0.4670 -1.0244
69531SOL     OW18522   5.686  10.316  11.579  0.0769  0.2496  0.4575
69531SOL    HW118523   5.754  10.258  11.545  0.0868  0.0981  0.7302
69531SOL    HW218524   5.603  10.275  11.553  0.0899  0.4508  0.0985
69532SOL     OW18525   8.935   9.582  13.181  1.1015  0.5292  0.1014
69532SOL    HW118526   8.914   9.510  13.121 -1.1879  1.1110  0.0963
69532SOL    HW218527   9.001   9.633  13.134 -0.7317  1.0708 -2.1376
69533SOL     OW18528   8.930  12.267  13.199  0.4273 -0.0474 -0.1104
69533SOL    HW118529   9.016  12.254  13.240  0.0802  1.3977  1.1758
69533SOL    HW218530   8.933  12.357  13.166 -0.2166 -0.3552 -1.0162
69534SOL     OW18531   6.159   7.377   5.643 -0.6247 -0.4375  0.5643
69534SOL    HW118532   6.080   7.373   5.589 -0.8066 -1.5822  0.8713
69534SOL    HW218533   6.177   7.285   5.664  1.7489 -0.3795 -0.8956
69535SOL     OW18534   1.883   1.485   6.814 -1.0410  0.3420 -0.9968
69535SOL    HW118535   1.937   1.526   6.882 -1.4552  0.6871 -0.8692
69535SOL    HW218536   1.945   1.436   6.760 -0.6908  0.1743 -0.4503
69536SOL     OW18537   9.517   3.001   5.192 -0.8213 -0.0747  0.9914
69536SOL    HW118538   9.605   2.982   5.226 -0.0719 -2.1295 -1.7507
69536SOL    HW218539   9.531   3.065   5.122 -1.3593 -1.0589 -0.0422
69537SOL     OW18540  11.279  10.999   2.745 -0.3120 -0.0684  0.1392
69537SOL    HW118541  11.336  11.065   2.705 -0.3580  0.9246  1.6210
69537SOL    HW218542  11.338  10.926   2.765  0.0638  0.1782 -0.0459
69538SOL     OW18543  12.950   8.976   5.471 -0.4145  0.0461  0.0305
69538SOL    HW118544  13.037   9.016   5.466 -0.8225  1.2479  1.7142
69538SOL    HW218545  12.965   8.883   5.455  0.9612  0.4406 -1.1448
69539SOL     OW18546   5.416   8.408   2.961  0.1927  0.1812 -0.0955
69539SOL    HW118547   5.399   8.392   3.054 -0.2893  1.4491  0.0498
69539SOL    HW218548   5.430   8.320   2.924  1.4602 -0.2772  1.3652
69540SOL     OW18549  13.303   0.344   4.915 -0.0360  0.1215  0.1718
69540SOL    HW118550  13.311   0.339   4.820 -3.5951 -1.9552 -0.1779
69540SOL    HW218551  13.363   0.278   4.949 -0.5219 -0.8205 -0.7903
69541SOL     OW18552   9.581  12.448   1.034  0.1551 -0.5623 -0.0545
69541SOL    HW118553   9.612  12.469   0.946  0.2554  0.4298  0.2023
69541SOL    HW218554   9.499  12.497   1.042  1.0963  0.9248  1.0658
69542SOL     OW18555   8.658   3.703   0.442  0.2424 -0.0137 -0.3210
69542SOL    HW118556   8.695   3.636   0.384  1.1186  0.2111 -0.0345
69542SOL    HW218557   8.620   3.768   0.383  1.6712  0.5241 -0.6732
69543SOL     OW18558   4.992  11.679   0.195 -0.7011  0.5064  0.0403
69543SOL    HW118559   5.046  11.752   0.227 -1.5489  0.7696  0.9318
69543SOL    HW218560   5.054  11.606   0.185 -0.2589  0.6400  1.5668
69544SOL     OW18561  12.787  12.417   5.971 -0.3484 -0.0962 -0.7682
69544SOL    HW118562  12.746  12.385   6.051 -1.3034  0.2346 -1.1064
69544SOL    HW218563  12.874  12.378   5.970 -0.8987 -1.3640 -0.3671
69545SOL     OW18564   8.232   2.957   1.181  0.1556 -0.3241  0.1446
69545SOL    HW118565   8.174   2.932   1.109 -2.2834  2.6499  0.8656
69545SOL    HW218566   8.320   2.954   1.144 -0.7978 -1.2058 -2.2072
69546SOL     OW18567   1.516  10.850   5.147  0.6095  0.2583  0.3361
69546SOL    HW118568   1.514  10.799   5.066  2.3839  0.7334 -0.0462
69546SOL    HW218569   1.559  10.932   5.122  2.5025 -0.1509  2.0367
69547SOL     OW18570   5.235   7.900   6.298 -0.8377  0.4556  0.1153
69547SOL    HW118571   5.216   7.993   6.304  2.2697  1.2184 -0.2260
69547SOL    HW218572   5.307   7.886   6.360 -0.2634 -1.3960 -0.8889
69548SOL     OW18573   4.899   2.480   5.440 -0.3631 -0.2913  0.3532
69548SOL    HW118574   4.810   2.482   5.406 -0.2315 -0.2005  0.0150
69548SOL    HW218575   4.888   2.460   5.533 -0.7323 -0.3391  0.3018
69549SOL     OW18576   4.074  12.553   5.225  0.3523 -0.2079  0.5801
69549SOL    HW118577   4.023  12.629   5.253  0.8241 -0.1418  1.3044
69549SOL    HW218578   4.033  12.479   5.270 -1.0640 -0.6336 -1.3158
69550SOL     OW18579  11.397   5.279  13.004 -0.0645 -0.0049  0.1051
69550SOL    HW118580  11.460   5.272  13.076  0.1085  1.9134  0.1985
69550SOL    HW218581  11.312   5.259  13.043  0.0262  1.0433  0.8795
69551SOL     OW18582   2.790  10.478   0.471  0.8129  0.0682 -0.2578
69551SOL    HW118583   2.839  10.403   0.505 -0.0507 -0.1291  0.6276
69551SOL    HW218584   2.835  10.502   0.391  1.1445 -1.3682 -0.5395
69552SOL     OW18585   1.056   3.883   5.147  0.2099 -0.2513  0.2598
69552SOL    HW118586   0.984   3.911   5.091  1.1962  1.9852  0.0104
69552SOL    HW218587   1.107   3.824   5.092 -0.7223 -0.8658  0.0225
69553SOL     OW18588   5.551   3.122   3.562  0.0456 -0.4935  0.1707
69553SOL    HW118589   5.535   3.058   3.493  2.5958 -1.3373  0.2716
69553SOL    HW218590   5.507   3.202   3.532 -0.7013 -1.4534 -1.3720
69554SOL     OW18591   9.176  10.523   3.810 -0.5486  0.1339 -0.1692
69554SOL    HW118592   9.083  10.500   3.806 -0.5477 -0.4492  1.9879
69554SOL    HW218593   9.220  10.453   3.763 -1.1086 -0.1915 -0.2186
69555SOL     OW18594   7.427  11.510   8.517 -0.2970 -0.3551  0.3787
69555SOL    HW118595   7.437  11.417   8.540 -2.1997 -1.0149 -1.1816
69555SOL    HW218596   7.352  11.539   8.568  0.7226  0.5816  1.4058
69556SOL     OW18597  11.811   0.457   6.791 -0.0763 -0.2783 -0.1992
69556SOL    HW118598  11.813   0.542   6.834  0.9016  0.6558 -1.9792
69556SOL    HW218599  11.728   0.457   6.742 -0.6435 -0.8761  0.7167
69557SOL     OW18600  13.214   2.950   7.792  0.3765 -0.1049  0.4494
69557SOL    HW118601  13.169   2.876   7.832  1.5416 -1.1985 -0.2187
69557SOL    HW218602  13.307   2.927   7.795  0.9044  1.8495  1.3085
69558SOL     OW18603   4.174   3.600   4.437  0.8810  0.3457  0.2391
69558SOL    HW118604   4.185   3.662   4.510  0.9485 -0.1437  0.6547
69558SOL    HW218605   4.143   3.520   4.479  0.3161  0.2476 -0.3545
69559SOL     OW18606   2.635   8.449   8.334  0.1250  0.1528  0.3316
69559SOL    HW118607   2.624   8.369   8.384  0.2125  0.6279  1.1336
69559SOL    HW218608   2.609   8.426   8.245  0.8789 -0.9617  0.3785
69560SOL     OW18609   8.660   2.769   2.981 -0.5520  0.3149 -0.5538
69560SOL    HW118610   8.731   2.775   2.918 -0.0331  0.1363  0.0062
69560SOL    HW218611   8.635   2.861   2.997  1.2174  0.5626  1.0896
69561SOL     OW18612   4.034   2.774  10.520  0.1645 -0.3982 -1.0174
69561SOL    HW118613   4.069   2.793  10.433 -0.8574  0.6721 -1.2290
69561SOL    HW218614   4.099   2.810  10.580 -0.5824  1.7589 -1.4041
69562SOL     OW18615   0.449   8.222  10.329 -0.5404  0.2062 -0.2408
69562SOL    HW118616   0.464   8.193  10.419  1.6609  0.0832 -0.5925
69562SOL    HW218617   0.455   8.142  10.277 -1.4213  0.3302 -0.5401
69563SOL     OW18618   1.344   8.597   6.440  0.0341 -0.4370 -0.1346
69563SOL    HW118619   1.379   8.535   6.376  0.7783  1.3413 -1.5571
69563SOL    HW218620   1.269   8.637   6.396 -1.3759 -1.3268  1.3439
69564SOL     OW18621   0.094   2.287  10.775 -0.5376 -0.2446  0.3869
69564SOL    HW118622   0.045   2.248  10.848 -1.2366 -0.2018 -0.0555
69564SOL    HW218623   0.143   2.214  10.737  0.0549 -0.2155  1.0644
69565SOL     OW18624   9.344   1.820   1.038 -0.6588  0.7825  0.5989
69565SOL    HW118625   9.293   1.762   1.095 -0.5118 -0.4600 -0.5208
69565SOL    HW218626   9.339   1.905   1.082 -2.2502  0.3115  1.4196
69566SOL     OW18627   4.880   7.653   8.948 -0.2656  0.0726 -0.2161
69566SOL    HW118628   4.817   7.592   8.911 -0.9467  1.2743 -1.0840
69566SOL    HW218629   4.928   7.687   8.873 -0.0799  0.8035  0.2233
69567SOL     OW18630   8.245  10.281  11.560  0.4240 -0.1958  0.4520
69567SOL    HW118631   8.260  10.318  11.647 -1.7734 -0.2269  0.9029
69567SOL    HW218632   8.158  10.312  11.535  1.2150  0.2849 -2.0129
69568SOL     OW18633   9.145   8.019   3.392 -0.1156  0.3783  0.2550
69568SOL    HW118634   9.202   8.061   3.456 -1.6823  1.3688  1.0710
69568SOL    HW218635   9.160   7.926   3.403  0.8254  0.6013  0.9261
69569SOL     OW18636  12.590  10.559  10.116 -0.3015 -0.0804  0.2683
69569SOL    HW118637  12.561  10.644  10.083 -0.8222 -0.3839 -0.0815
69569SOL    HW218638  12.554  10.554  10.205 -1.6312 -0.5746 -0.2617
69570SOL     OW18639   2.544   6.673   1.926 -0.0160  0.3509 -0.2573
69570SOL    HW118640   2.457   6.711   1.936 -0.0949  0.4116 -1.1185
69570SOL    HW218641   2.566   6.685   1.834  0.5545 -0.4202 -0.2379
69571SOL     OW18642  10.444   7.751  10.810  0.0399 -0.3338  0.3419
69571SOL    HW118643  10.495   7.738  10.730 -0.6740 -0.8334 -0.0386
69571SOL    HW218644  10.401   7.835  10.797 -0.4783 -0.6480 -0.0333
69572SOL     OW18645  11.633   6.180   0.453  0.3224 -0.0829 -0.4486
69572SOL    HW118646  11.541   6.188   0.429  0.2975  1.6146  0.0277
69572SOL    HW218647  11.662   6.271   0.464  1.9264 -0.6045 -0.1181
69573SOL     OW18648   9.933  13.123   4.734  0.5410 -1.2452  0.4106
69573SOL    HW118649   9.899  13.090   4.817 -0.7218 -1.5451 -0.1960
69573SOL    HW218650   9.952  13.045   4.683  1.1050 -1.0592  0.3325
69574SOL     OW18651   2.105   6.712   2.395 -0.3249 -0.0810  0.0154
69574SOL    HW118652   2.046   6.666   2.335 -0.2289 -0.0337 -0.1136
69574SOL    HW218653   2.103   6.659   2.475  0.2641 -0.6481 -0.3388
69575SOL     OW18654   6.469   7.643   0.540 -0.6661  0.3360  0.4795
69575SOL    HW118655   6.556   7.608   0.522 -0.5810  0.9007 -0.2378
69575SOL    HW218656   6.409   7.577   0.504 -0.5204  0.4206  0.0768
69576SOL     OW18657  10.366   9.088   6.580 -0.5022  0.5000 -0.0914
69576SOL    HW118658  10.277   9.082   6.614 -0.3475 -0.0073  0.2514
69576SOL    HW218659  10.412   9.142   6.644 -0.8107  1.6478 -0.8204
69577SOL     OW18660  13.043   5.405   5.207  0.3615  0.0112 -0.0726
69577SOL    HW118661  13.041   5.325   5.155 -0.6175  0.0892 -0.1721
69577SOL    HW218662  13.075   5.377   5.292 -1.9087 -0.9238  0.5608
69578SOL     OW18663   0.457   5.746   7.302  0.3078  0.3366 -0.0229
69578SOL    HW118664   0.508   5.692   7.243  0.9303 -1.1871  1.8002
69578SOL    HW218665   0.434   5.688   7.374 -2.0172  1.6143  0.3568
69579SOL     OW18666  12.631  10.731   6.393  0.2573  0.1836  0.2822
69579SOL    HW118667  12.713  10.759   6.352  0.4704 -1.4385 -0.4656
69579SOL    HW218668  12.645  10.747   6.486  2.2512 -1.8818  0.4348
69580SOL     OW18669   4.012   6.775   8.000  0.0254  0.3004  0.5190
69580SOL    HW118670   4.014   6.698   8.058 -0.9040 -1.1598 -1.2706
69580SOL    HW218671   3.920   6.783   7.975  0.2743  1.4349 -0.0592
69581SOL     OW18672  13.249  13.205   4.331 -0.4293  0.0815  0.3280
69581SOL    HW118673  13.204  13.132   4.374  0.4693 -0.9122 -0.3650
69581SOL    HW218674  13.194  13.228   4.256  1.0937 -2.5318 -1.7828
69582SOL     OW18675   7.625   2.762  11.190  0.0086  0.5635  0.6635
69582SOL    HW118676   7.704   2.760  11.135 -0.4958  0.6065 -0.0737
69582SOL    HW218677   7.644   2.830  11.255  0.6546  0.4465  0.6100
69583SOL     OW18678  10.636   4.386  12.400 -0.0037  0.2132 -0.2763
69583SOL    HW118679  10.732   4.390  12.396  0.0786 -1.7594 -1.7561
69583SOL    HW218680  10.616   4.293  12.412 -1.7396  0.8074  2.2535
69584SOL     OW18681   2.138   6.464   9.190 -0.5247 -0.2827  0.6088
69584SOL    HW118682   2.153   6.558   9.177 -0.2474 -0.3979  0.0584
69584SOL    HW218683   2.108   6.433   9.104 -0.9769 -0.6262  0.8895
69585SOL     OW18684   9.571   5.985  10.262  0.3687 -0.6475 -0.3787
69585SOL    HW118685   9.618   6.001  10.180 -0.2289 -1.4767 -0.9026
69585SOL    HW218686   9.480   5.972  10.235  0.2150 -1.2259  0.3873
69586SOL     OW18687   0.089  11.260   8.788 -0.0249  0.2848  0.0464
69586SOL    HW118688   0.092  11.254   8.692 -0.0843 -1.8314  0.1370
69586SOL    HW218689   0.175  11.294   8.812 -0.0334  0.9092 -0.7492
69587SOL     OW18690   6.069  12.662  11.955  0.3692 -0.5256  0.0302
69587SOL    HW118691   6.157  12.688  11.929 -0.2354  0.6299 -0.9735
69587SOL    HW218692   6.040  12.731  12.015  0.6725 -1.6761  1.5477
69588SOL     OW18693   9.056   6.677   1.347 -0.0280  0.1911  0.4914
69588SOL    HW118694   8.986   6.738   1.320  0.1427  0.4023  0.5230
69588SOL    HW218695   9.026   6.642   1.430 -0.9537 -1.0955 -0.3418
69589SOL     OW18696   0.139   6.360  12.301  0.2171  0.2920 -0.2464
69589SOL    HW118697   0.209   6.335  12.361 -0.2845  0.6281  0.4892
69589SOL    HW218698   0.142   6.456  12.301 -1.6302  0.4102  1.4952
69590SOL     OW18699  10.949   5.175   5.933 -0.0305 -0.0602 -0.2177
69590SOL    HW118700  11.038   5.162   5.965 -0.1465 -0.3849 -0.0308
69590SOL    HW218701  10.951   5.144   5.842 -0.0338 -0.3609 -0.1133
69591SOL     OW18702   4.503  12.005   7.757 -0.6618  0.2397  0.7807
69591SOL    HW118703   4.543  12.014   7.670 -0.4840  0.5471  0.8951
69591SOL    HW218704   4.462  12.090   7.773 -0.0251  0.4490  1.3335
69592SOL     OW18705   7.012   1.380   8.524 -0.8938  0.1980 -0.4350
69592SOL    HW118706   7.028   1.342   8.610  1.4601  2.0310  0.0341
69592SOL    HW218707   7.093   1.365   8.476 -2.1665 -0.8163 -2.4259
69593SOL     OW18708   3.190   9.111   3.976  0.2010  0.1992  0.3081
69593SOL    HW118709   3.133   9.113   3.900  0.0227  0.6827  0.4504
69593SOL    HW218710   3.198   9.018   3.998 -1.9754  0.2105  1.3691
69594SOL     OW18711  13.138   6.179   2.202 -0.4170 -0.0163  0.2716
69594SOL    HW118712  13.065   6.173   2.265 -0.6917 -0.9204 -0.1250
69594SOL    HW218713  13.136   6.096   2.155  0.9685 -0.1121  0.3451
69595SOL     OW18714   5.080   9.322  12.661 -0.3447 -0.3627  0.3214
69595SOL    HW118715   5.103   9.245  12.609  1.1844 -0.1251  0.5912
69595SOL    HW218716   5.049   9.286  12.745  0.1469 -0.6978  0.3641
69596SOL     OW18717   9.635   2.027   6.019  1.1148 -0.4158 -0.4769
69596SOL    HW118718   9.607   2.027   5.927 -0.7532 -0.0478  0.0537
69596SOL    HW218719   9.724   2.062   6.016  1.6017 -1.6112 -2.2637
69597SOL     OW18720   9.567   1.594   6.652  0.0886  0.5295 -0.6270
69597SOL    HW118721   9.619   1.514   6.647 -0.5312  0.0880 -0.0912
69597SOL    HW218722   9.568   1.629   6.562  2.9463  1.6142 -0.2764
69598SOL     OW18723   4.788   8.189  11.357 -0.6559  0.1634  0.1892
69598SOL    HW118724   4.789   8.217  11.265  2.3470 -1.2669 -0.3362
69598SOL    HW218725   4.838   8.256  11.403  1.7896 -1.3200 -0.1208
69599SOL     OW18726   9.871   0.386   2.127 -0.0869 -0.1933  0.1526
69599SOL    HW118727   9.892   0.473   2.092 -0.9537  0.1085  0.3581
69599SOL    HW218728   9.873   0.329   2.050 -0.7470  0.2430 -0.1989
69600SOL     OW18729  10.065   4.305   2.671  0.0829 -0.2565 -0.0787
69600SOL    HW118730   9.972   4.294   2.688  0.2990 -0.2646  1.1937
69600SOL    HW218731  10.079   4.400   2.678  0.2498 -0.3017  0.2419
69601SOL     OW18732   1.420  10.441  12.396 -0.2962  0.2595 -0.0839
69601SOL    HW118733   1.345  10.434  12.456  0.9428  1.9630  1.8139
69601SOL    HW218734   1.479  10.370  12.422 -0.2213  0.3627  0.0307
69602SOL     OW18735   5.565   7.659   2.922  0.2789 -0.4413 -0.3549
69602SOL    HW118736   5.617   7.663   2.842  1.8239 -1.7042  0.5215
69602SOL    HW218737   5.524   7.573   2.920  0.0450 -0.3422  0.0552
69603SOL     OW18738   6.986   7.195   4.063  0.2575  0.5021 -0.0151
69603SOL    HW118739   7.070   7.208   4.107  0.9622  0.3805 -1.2521
69603SOL    HW218740   6.926   7.166   4.131  1.0344  1.2926  1.0305
69604SOL     OW18741   3.384   9.939   7.306  0.0657  0.3760  0.5558
69604SOL    HW118742   3.444   9.886   7.358  1.5370  1.5566  0.1317
69604SOL    HW218743   3.439  10.007   7.267 -1.4322  1.0824 -0.4436
69605SOL     OW18744  12.673   0.759   3.105 -0.2160  0.0246 -0.2926
69605SOL    HW118745  12.706   0.699   3.038  0.0616 -0.1682  0.0127
69605SOL    HW218746  12.584   0.729   3.123 -0.7170  0.7910 -1.4058
69606SOL     OW18747   6.169   5.060  12.483 -0.6867 -0.2829 -0.2975
69606SOL    HW118748   6.208   4.973  12.476  0.8112  0.0690  2.3789
69606SOL    HW218749   6.137   5.065  12.572 -1.8666  1.4928 -0.7673
69607SOL     OW18750  13.227   3.135  10.628  0.1643  0.1788  0.4235
69607SOL    HW118751  13.249   3.221  10.594  1.6765  0.2127  1.3531
69607SOL    HW218752  13.280   3.074  10.576  0.2021 -0.0380  0.7084
69608SOL     OW18753   4.725   5.073   1.703  0.3335 -0.5139  0.7272
69608SOL    HW118754   4.654   5.016   1.673  0.9823 -1.5541  1.1246
69608SOL    HW218755   4.736   5.051   1.795 -1.0298  2.0052  1.6028
69609SOL     OW18756  10.087  10.607   9.599  0.1153  0.1339 -0.2980
69609SOL    HW118757   9.997  10.577   9.595 -0.1874  0.2851  2.7649
69609SOL    HW218758  10.087  10.675   9.667  2.0717  2.0933 -2.0698
69610SOL     OW18759   5.150   4.999   9.070 -1.1210 -0.0935  0.2865
69610SOL    HW118760   5.155   4.965   9.159  0.0470 -0.9855 -0.1025
69610SOL    HW218761   5.198   5.082   9.073  1.0862 -1.3101 -0.0318
69611SOL     OW18762   1.372   7.296   6.410  0.0046  0.0644  0.1338
69611SOL    HW118763   1.361   7.371   6.351 -2.7466 -0.8360 -0.6860
69611SOL    HW218764   1.336   7.326   6.493 -0.7067 -0.1697 -0.0781
69612SOL     OW18765  12.205  11.129  12.481  0.0379 -0.1072  0.0871
69612SOL    HW118766  12.120  11.145  12.438  0.3387 -1.8380 -1.3094
69612SOL    HW218767  12.264  11.193  12.442 -0.5027  0.8285  0.7541
69613SOL     OW18768   6.196  10.915  10.380  0.1109 -0.3428 -0.5959
69613SOL    HW118769   6.286  10.928  10.410 -0.4786  1.1866  0.7276
69613SOL    HW218770   6.144  10.914  10.461 -1.1329 -0.4805 -1.3667
69614SOL     OW18771   5.945   5.866   6.094  0.5464  0.5451  0.6713
69614SOL    HW118772   5.923   5.953   6.125  1.6482  1.1164 -0.0792
69614SOL    HW218773   5.866   5.814   6.111 -0.8075  2.0974 -0.5125
69615SOL     OW18774  12.278  12.702  11.383  0.4464  0.3285 -0.4049
69615SOL    HW118775  12.185  12.680  11.380  0.6768 -0.8296  0.2611
69615SOL    HW218776  12.292  12.755  11.305 -0.4966 -0.6512 -1.2847
69616SOL     OW18777  12.897   5.852   0.171  0.0752  0.6545  0.3566
69616SOL    HW118778  12.969   5.797   0.204 -0.7753 -0.5582  0.2227
69616SOL    HW218779  12.830   5.847   0.240 -0.8133 -0.0992 -0.5401
69617SOL     OW18780   0.742   7.890   1.222  0.0941 -0.6251 -0.4721
69617SOL    HW118781   0.652   7.892   1.254  0.0897 -2.3756 -0.2543
69617SOL    HW218782   0.739   7.938   1.139 -1.0809 -0.8090 -0.5518
69618SOL     OW18783   0.502   3.263   9.659  0.3672  0.2010 -0.3253
69618SOL    HW118784   0.518   3.315   9.738  5.1946 -1.4128  0.0925
69618SOL    HW218785   0.429   3.307   9.616  0.3177  3.7575  2.8397
69619SOL     OW18786   0.642   1.621   1.660  0.0514  0.5309  0.0356
69619SOL    HW118787   0.600   1.626   1.574  0.2299  0.1072 -0.0788
69619SOL    HW218788   0.696   1.700   1.664  0.5898  0.2009 -0.5343
69620SOL     OW18789   6.637  11.441   7.263  0.1287  0.3205  0.0674
69620SOL    HW118790   6.665  11.452   7.173  1.6900  0.8794  0.5933
69620SOL    HW218791   6.603  11.352   7.267 -1.9697  0.9537 -1.5454
69621SOL     OW18792   3.616   6.132   9.085  0.3522 -0.3415 -0.2401
69621SOL    HW118793   3.569   6.181   9.152  0.3286  0.2144 -0.6538
69621SOL    HW218794   3.619   6.191   9.010  0.4709 -0.9149 -0.6949
69622SOL     OW18795   3.436   1.242  12.367  0.0748 -0.0463 -0.2150
69622SOL    HW118796   3.520   1.287  12.359 -0.1101  0.2610 -0.3865
69622SOL    HW218797   3.460   1.149  12.371  0.4180  0.0343 -0.3512
69623SOL     OW18798   7.738   9.506  12.387  0.5146  0.1168  0.2257
69623SOL    HW118799   7.694   9.539  12.465 -0.8981 -1.5192  0.1608
69623SOL    HW218800   7.706   9.562  12.316  0.1402  0.2534  0.4999
69624SOL     OW18801   0.640   5.960   4.185 -0.3079 -0.2456 -0.4780
69624SOL    HW118802   0.636   6.050   4.217 -2.8720 -0.3416 -0.3686
69624SOL    HW218803   0.623   5.905   4.262 -1.6784 -0.6638 -1.0402
69625SOL     OW18804  10.108   8.143   9.306 -0.6151 -0.7562  0.0177
69625SOL    HW118805  10.167   8.182   9.371  0.9556 -2.8979 -0.0105
69625SOL    HW218806  10.148   8.166   9.222 -0.9468 -0.5586 -0.0885
69626SOL     OW18807   9.153   1.308   8.326  0.1777 -0.2938  0.2877
69626SOL    HW118808   9.132   1.248   8.397 -0.9861 -0.1256  0.1042
69626SOL    HW218809   9.245   1.291   8.307 -0.0348 -1.7833  0.4660
69627SOL     OW18810   5.002   3.156   4.739  0.0442  0.4258  0.0677
69627SOL    HW118811   5.034   3.100   4.668  0.0957 -0.8326  1.0387
69627SOL    HW218812   4.908   3.139   4.741  0.1614 -0.1972  0.8231
69628SOL     OW18813  11.819  11.593   9.692  0.0676 -0.3761  0.1518
69628SOL    HW118814  11.766  11.584   9.613 -0.9839  0.9684  0.6552
69628SOL    HW218815  11.815  11.686   9.713 -0.9711 -0.9001  2.6252
69629SOL     OW18816   8.365  10.432  10.909 -0.4519 -0.4553 -0.0252
69629SOL    HW118817   8.413  10.483  10.975 -0.1181 -0.5089 -0.2222
69629SOL    HW218818   8.407  10.346  10.911  0.3340 -0.1223 -1.1073
69630SOL     OW18819   8.417   6.418   1.181 -0.2869  0.2437 -0.0996
69630SOL    HW118820   8.503   6.398   1.143 -0.8410 -0.1558 -1.2071
69630SOL    HW218821   8.420   6.512   1.199  0.3500  0.2516 -0.2074
69631SOL     OW18822   8.061   4.040   3.076  0.7456  0.4410  0.1118
69631SOL    HW118823   8.038   4.053   3.168  0.9054  0.1700  0.1944
69631SOL    HW218824   8.002   4.097   3.027 -0.2337 -0.3922  0.2995
69632SOL     OW18825   2.001   7.869   5.943  0.1032  0.1707 -0.3608
69632SOL    HW118826   2.032   7.874   6.034 -0.2222  0.8466 -0.2798
69632SOL    HW218827   2.038   7.945   5.900  1.1196 -0.7032 -1.0920
69633SOL     OW18828   2.126   0.736   9.510  0.0830 -0.0800  0.2091
69633SOL    HW118829   2.210   0.743   9.463 -1.0934  0.1736 -2.0216
69633SOL    HW218830   2.128   0.808   9.573  0.8932  0.9939 -0.9672
69634SOL     OW18831   7.834   2.192  11.057  0.6942 -0.0968 -0.3292
69634SOL    HW118832   7.766   2.249  11.093 -0.9272 -1.3621 -1.2329
69634SOL    HW218833   7.820   2.108  11.100  0.7214 -0.7787 -1.6060
69635SOL     OW18834   3.215   3.945   9.761 -0.1763 -0.6141 -0.9683
69635SOL    HW118835   3.199   3.927   9.668 -1.0460  0.8764 -1.1314
69635SOL    HW218836   3.170   4.028   9.778 -0.6118 -1.1885  0.9562
69636SOL     OW18837   0.738  12.638   0.850 -0.4721  0.4578 -0.1076
69636SOL    HW118838   0.775  12.669   0.933  1.9960 -1.2302 -0.4777
69636SOL    HW218839   0.714  12.547   0.867 -0.4751  0.2670 -1.0993
69637SOL     OW18840   1.408   7.330   4.206 -0.2395 -0.1945 -0.2047
69637SOL    HW118841   1.428   7.408   4.154 -1.3583 -0.8908 -1.7729
69637SOL    HW218842   1.365   7.363   4.284 -1.5786  0.7549 -1.2939
69638SOL     OW18843   5.330  11.742   0.943 -0.2463 -0.3403 -0.5626
69638SOL    HW118844   5.373  11.681   1.004 -0.7079  0.1953  0.3182
69638SOL    HW218845   5.331  11.826   0.989 -1.0176 -0.0293 -1.1066
69639SOL     OW18846   3.013   9.072  10.196 -0.6484  0.2088  0.2858
69639SOL    HW118847   3.043   8.985  10.170 -3.1260 -0.3903 -0.8594
69639SOL    HW218848   2.966   9.058  10.278  2.3417  1.2122  2.3456
69640SOL     OW18849  11.742  11.637  13.145  0.1695 -0.0434  1.0763
69640SOL    HW118850  11.776  11.638  13.056  0.0484 -0.2781  1.0266
69640SOL    HW218851  11.678  11.566  13.145  0.9006 -0.7290  1.6129
69641SOL     OW18852   5.995   1.130   2.302  0.2792 -0.4768 -0.0571
69641SOL    HW118853   5.927   1.194   2.323  0.1407 -0.7026  0.1871
69641SOL    HW218854   5.961   1.085   2.224  0.1016 -0.6609  0.1276
69642SOL     OW18855   7.275   1.304  10.162  0.1638  0.5584 -0.4385
69642SOL    HW118856   7.359   1.311  10.116  0.2896 -2.2443 -0.7720
69642SOL    HW218857   7.298   1.275  10.250 -0.4725 -1.6208 -0.9434
69643SOL     OW18858   9.281  12.064   4.450  0.1764 -0.8408 -0.1165
69643SOL    HW118859   9.187  12.055   4.432  0.1481  0.8429 -1.0703
69643SOL    HW218860   9.318  12.095   4.367  1.3357 -0.1044  0.6484
69644SOL     OW18861   0.739   1.757   4.897  0.1231 -0.4394  0.8052
69644SOL    HW118862   0.740   1.831   4.836 -0.1691 -0.0721  1.2324
69644SOL    HW218863   0.831   1.745   4.921  0.3883 -1.3290 -0.5646
69645SOL     OW18864  11.189   3.540  11.473 -0.0073 -0.5693 -0.2505
69645SOL    HW118865  11.137   3.604  11.423  0.1498 -0.7173 -0.6041
69645SOL    HW218866  11.279   3.556  11.445  0.2390  0.1623  0.8774
69646SOL     OW18867  11.540   9.211   0.154 -0.4385  0.5387 -0.4114
69646SOL    HW118868  11.472   9.158   0.110 -1.4440  1.3010  0.1862
69646SOL    HW218869  11.502   9.298   0.160 -0.2192  0.5490  1.6783
69647SOL     OW18870  11.141   0.586  11.472 -1.1295  0.1987 -0.3812
69647SOL    HW118871  11.230   0.622  11.477 -0.8994 -0.5319  1.8600
69647SOL    HW218872  11.151   0.503  11.425 -1.4347  2.1108 -4.2335
69648SOL     OW18873  12.239   6.923  11.562  0.0711 -0.3742 -0.2496
69648SOL    HW118874  12.212   6.883  11.480 -1.4504 -0.5910  0.3161
69648SOL    HW218875  12.259   6.849  11.620 -0.7121 -0.2828  0.1510
69649SOL     OW18876  12.320   3.218  11.843  0.7940 -0.9213 -0.6482
69649SOL    HW118877  12.341   3.300  11.889 -0.1710 -0.1587 -1.5154
69649SOL    HW218878  12.290   3.159  11.913  1.2705 -0.4635 -0.0394
69650SOL     OW18879   6.942   3.854   9.297 -0.2588 -0.4809 -0.3667
69650SOL    HW118880   7.009   3.836   9.231 -0.5854 -0.8129 -0.6077
69650SOL    HW218881   6.991   3.891   9.371  0.2109 -0.8759 -0.4764
69651SOL     OW18882   7.860   4.737   5.565  0.2596  0.2149 -0.6429
69651SOL    HW118883   7.914   4.755   5.641 -0.3548  1.9554 -0.5890
69651SOL    HW218884   7.837   4.644   5.574  1.0724  0.1124  0.6934
69652SOL     OW18885   1.932   0.233   5.579  0.0638  0.3925 -0.9117
69652SOL    HW118886   1.847   0.242   5.623  1.0444  0.7812  1.0444
69652SOL    HW218887   1.914   0.256   5.488 -1.5561  2.5673 -0.1541
69653SOL     OW18888   9.027   1.774   1.853  0.1264 -0.3031 -0.2281
69653SOL    HW118889   8.948   1.736   1.813 -0.5318 -1.0640  1.6895
69653SOL    HW218890   9.094   1.706   1.844 -0.0561 -0.5238  0.0694
69654SOL     OW18891  10.617   1.821   5.849  0.3167 -0.3746  0.7418
69654SOL    HW118892  10.536   1.770   5.849  1.4494 -2.2518 -0.0501
69654SOL    HW218893  10.670   1.782   5.918  1.2566 -0.3396  0.0553
69655SOL     OW18894  10.261   2.533   4.534 -0.2848 -0.0005  0.1017
69655SOL    HW118895  10.228   2.607   4.484  0.8149  1.6627  1.7027
69655SOL    HW218896  10.196   2.518   4.602  0.2109  0.5106  0.6976
69656SOL     OW18897   6.834  13.141   7.098  0.5239 -0.0898  0.2124
69656SOL    HW118898   6.802  13.231   7.102  0.0198 -0.3069  2.2777
69656SOL    HW218899   6.813  13.112   7.009 -1.7028  0.9608  0.3227
69657SOL     OW18900   5.184   3.018   4.588  0.7136  0.3792  0.2021
69657SOL    HW118901   5.180   2.938   4.537 -0.2033  1.4406 -1.4772
69657SOL    HW218902   5.273   3.021   4.622  1.2879 -0.4768 -1.1838
69658SOL     OW18903   7.727   3.631  12.525 -0.0222  0.4144  0.0267
69658SOL    HW118904   7.638   3.648  12.555  0.3504 -0.0944  1.5415
69658SOL    HW218905   7.721   3.549  12.476 -0.6439  1.2386 -1.3258
69659SOL     OW18906  10.687   3.836   3.702 -0.1117  0.1147  0.3638
69659SOL    HW118907  10.708   3.910   3.760 -0.4313  0.0647  0.5450
69659SOL    HW218908  10.592   3.833   3.701 -0.1342 -1.7541  2.2124
69660SOL     OW18909   3.448   8.153  11.013  0.0388 -0.9817 -0.1594
69660SOL    HW118910   3.414   8.080  11.063  1.0257 -0.2180  1.7427
69660SOL    HW218911   3.543   8.143  11.018  0.1746 -0.0124 -0.5523
69661SOL     OW18912   4.463   9.826   9.090  0.6016  0.2350  0.6478
69661SOL    HW118913   4.415   9.890   9.037 -0.5029 -0.4418  0.8121
69661SOL    HW218914   4.423   9.833   9.177 -1.0227 -2.1620  0.1728
69662SOL     OW18915   6.519   0.746   0.835  0.1137  0.4273 -0.4918
69662SOL    HW118916   6.485   0.678   0.894 -0.0723  0.7582 -0.2126
69662SOL    HW218917   6.586   0.792   0.887 -0.2979  0.9463 -0.4106
69663SOL     OW18918   3.496   2.097   9.723 -0.1165 -0.1119 -0.4559
69663SOL    HW118919   3.472   2.112   9.631 -1.7332 -1.7779 -0.3553
69663SOL    HW218920   3.417   2.119   9.772  0.3688 -0.3468  0.4510
69664SOL     OW18921   7.859  10.339   7.371 -0.0037  0.1078 -0.2362
69664SOL    HW118922   7.786  10.392   7.402 -0.2287 -1.4442  2.1019
69664SOL    HW218923   7.850  10.256   7.417  0.4377 -1.9698 -3.6073
69665SOL     OW18924   3.715  11.836  10.544  0.5436 -0.4551  0.1530
69665SOL    HW118925   3.632  11.814  10.585 -0.6205 -0.8826 -2.2572
69665SOL    HW218926   3.778  11.775  10.583 -0.5547 -1.0856  0.9989
69666SOL     OW18927   3.029  10.995   2.497 -0.0816 -0.2347 -0.1988
69666SOL    HW118928   3.107  10.941   2.507  0.2761  0.3828  0.4407
69666SOL    HW218929   2.957  10.932   2.492  0.4239 -0.7961 -0.4367
69667SOL     OW18930  11.896   2.966   2.292  0.0391  0.0501 -0.1145
69667SOL    HW118931  11.933   2.978   2.379 -2.4372 -0.0081  1.0195
69667SOL    HW218932  11.960   2.910   2.247  1.7541  0.7173  1.3576
69668SOL     OW18933   1.884   4.390   3.347  0.1867 -0.3612 -0.0533
69668SOL    HW118934   1.820   4.323   3.369  2.1127 -1.6251  2.1474
69668SOL    HW218935   1.878   4.454   3.418 -1.0772  1.4977 -1.7229
69669SOL     OW18936   5.258   2.919   5.741  0.1074  0.5026  0.0302
69669SOL    HW118937   5.309   2.838   5.742  1.2943  1.2200 -0.3574
69669SOL    HW218938   5.262   2.948   5.650  1.7862  2.2414  0.5924
69670SOL     OW18939  12.626   9.101   9.443  0.0204 -1.0936  0.4275
69670SOL    HW118940  12.594   9.159   9.513  0.5577 -0.6200  0.2843
69670SOL    HW218941  12.548   9.053   9.415 -0.0734 -1.8392  1.8635
69671SOL     OW18942   5.362   1.249   7.763  0.0570 -0.4344  0.4987
69671SOL    HW118943   5.330   1.200   7.687  1.0637 -0.3466 -0.0006
69671SOL    HW218944   5.446   1.285   7.735 -0.3192  0.9922  1.1030
69672SOL     OW18945   8.353  13.008   9.311  0.2234  0.5667  0.1157
69672SOL    HW118946   8.442  12.984   9.335 -0.9374 -2.6497  1.7168
69672SOL    HW218947   8.342  13.096   9.347  2.5734  0.8997  0.2266
69673SOL     OW18948  11.062   5.865   2.107 -0.4040 -0.0308  0.2211
69673SOL    HW118949  11.054   5.791   2.167 -3.6727  0.0732  0.0602
69673SOL    HW218950  11.074   5.825   2.021 -2.5816 -0.4765  0.0715
69674SOL     OW18951   3.045  12.728   9.273 -0.0183  0.3102  0.2620
69674SOL    HW118952   3.123  12.774   9.304 -0.3209  0.3382  1.0298
69674SOL    HW218953   3.064  12.636   9.288  0.4636  0.1878 -0.9852
69675SOL     OW18954  12.975   2.870   6.166 -0.3806 -0.5415  0.9477
69675SOL    HW118955  12.881   2.874   6.181 -0.5582  1.4599 -0.3485
69675SOL    HW218956  12.984   2.860   6.071  0.6662  1.7328  0.7438
69676SOL     OW18957   1.530   1.767  10.069 -0.3599  0.0286  0.5154
69676SOL    HW118958   1.539   1.823  10.147  1.8954 -0.4506  0.6787
69676SOL    HW218959   1.611   1.716  10.067  0.2156  0.8335 -2.7755
69677SOL     OW18960  10.083   0.864   9.335 -0.2648 -0.2398  0.0682
69677SOL    HW118961  10.143   0.905   9.397  1.1021 -1.0647 -0.6558
69677SOL    HW218962  10.054   0.936   9.279  0.4516  0.1017  0.1165
69678SOL     OW18963  10.867   4.889   9.299 -0.0351 -0.0744 -0.1420
69678SOL    HW118964  10.830   4.906   9.213 -0.0234 -0.6211 -0.2595
69678SOL    HW218965  10.927   4.962   9.315 -0.6186  0.4359 -0.2632
69679SOL     OW18966   2.195   0.629   2.398 -0.1292  0.1890  0.2780
69679SOL    HW118967   2.240   0.603   2.478  1.0966 -0.0653 -0.4875
69679SOL    HW218968   2.244   0.589   2.327 -2.2892 -1.1580 -0.5472
69680SOL     OW18969  12.464  11.763   0.319  0.0608  0.5683  0.3764
69680SOL    HW118970  12.483  11.678   0.278  0.5884  0.3349  1.0714
69680SOL    HW218971  12.381  11.791   0.281 -0.5807 -0.6881  0.7932
69681SOL     OW18972   1.105   0.812   8.733  0.3073  0.6848  0.6996
69681SOL    HW118973   1.034   0.805   8.797  0.1553  2.8860  0.8576
69681SOL    HW218974   1.112   0.725   8.695 -0.5936 -0.3081  2.6640
69682SOL     OW18975  11.097   7.417   5.499 -0.0895  0.1879  0.0339
69682SOL    HW118976  11.039   7.486   5.466  0.9057  0.3821 -1.4166
69682SOL    HW218977  11.159   7.463   5.556  1.9354  1.0240 -2.5810
69683SOL     OW18978  10.457  12.636  10.036  0.1996  0.2897  0.1071
69683SOL    HW118979  10.376  12.611   9.992 -1.4278  0.1778  2.9575
69683SOL    HW218980  10.496  12.554  10.063  1.6627  0.3063 -1.7186
69684SOL     OW18981   5.332  12.561  11.174  0.2182  0.2216 -0.4734
69684SOL    HW118982   5.386  12.560  11.095 -0.8879 -1.1095 -1.2543
69684SOL    HW218983   5.395  12.553  11.246  1.1202 -0.4899 -1.3087
69685SOL     OW18984   3.898  11.725  10.917 -0.5138 -0.3704  0.0810
69685SOL    HW118985   3.896  11.733  10.822 -1.6595 -0.0714  0.1187
69685SOL    HW218986   3.989  11.743  10.940 -0.5472  1.1493 -0.8355
69686SOL     OW18987   2.495  10.703  11.631  0.8479 -0.7662 -0.5224
69686SOL    HW118988   2.572  10.708  11.688 -1.0780 -2.4380  2.4783
69686SOL    HW218989   2.440  10.776  11.658  0.6306 -0.5627 -1.4854
69687SOL     OW18990   2.020   8.299  13.181 -0.2720 -0.2823  0.1611
69687SOL    HW118991   2.062   8.384  13.173 -2.3688  0.8803  0.6135
69687SOL    HW218992   1.985   8.281  13.093 -2.2940  0.7728  0.6804
69688SOL     OW18993   6.159   8.360   1.141 -0.2159 -0.5651 -0.1164
69688SOL    HW118994   6.188   8.404   1.221  0.1396 -2.6867  0.9908
69688SOL    HW218995   6.224   8.291   1.127 -1.5733 -1.7533 -0.8465
69689SOL     OW18996   1.307  10.456   3.321 -0.6413  0.6274  0.5212
69689SOL    HW118997   1.339  10.478   3.233  0.3915  0.5003  0.8540
69689SOL    HW218998   1.383  10.420   3.366 -0.9131  1.5945  1.7944
69690SOL     OW18999   7.377  12.118  11.728 -0.1728  0.5234  0.7338
69690SOL    HW119000   7.286  12.146  11.724 -0.6862 -1.1832 -1.2482
69690SOL    HW219001   7.406  12.144  11.816 -2.7472  0.5589  1.6616
69691SOL     OW19002   2.109   0.309  10.795 -0.2504  0.0910 -0.1725
69691SOL    HW119003   2.068   0.243  10.851 -0.7948 -0.2732 -0.9795
69691SOL    HW219004   2.192   0.328  10.838  0.2416 -1.6343 -0.2559
69692SOL     OW19005   3.443   2.524   3.480 -0.1769 -0.2727 -0.0545
69692SOL    HW119006   3.472   2.563   3.563 -3.5072 -2.5976  2.5131
69692SOL    HW219007   3.487   2.439   3.476 -0.7123 -0.5568 -0.1127
69693SOL     OW19008   1.166   6.783   0.507 -0.5628 -0.1697 -0.3678
69693SOL    HW119009   1.186   6.747   0.421  0.9099 -0.4838  0.0761
69693SOL    HW219010   1.164   6.707   0.565 -0.0078  0.1947  0.1360
69694SOL     OW19011   5.749   6.633   5.046  0.4517 -0.2842 -0.7108
69694SOL    HW119012   5.838   6.601   5.032  0.4674 -1.1132  1.0035
69694SOL    HW219013   5.709   6.570   5.105 -1.0455  0.4704 -0.8502
69695SOL     OW19014   5.791   5.595   9.600 -0.5898  0.1386  0.1536
69695SOL    HW119015   5.875   5.612   9.642 -0.7868 -0.6343  0.8802
69695SOL    HW219016   5.736   5.669   9.625 -0.2013  0.5252 -0.1267
69696SOL     OW19017   5.241   8.058   6.622  0.4837 -0.2562 -0.3397
69696SOL    HW119018   5.151   8.089   6.623  0.5445 -0.0504 -0.9574
69696SOL    HW219019   5.292   8.132   6.591  0.6962 -0.7680 -1.2851
69697SOL     OW19020   9.349   5.869  11.831  0.0196  0.5336  0.2861
69697SOL    HW119021   9.386   5.949  11.869 -0.6374  0.2930  1.4783
69697SOL    HW219022   9.318   5.819  11.906  1.9389 -1.6640 -0.2769
69698SOL     OW19023  13.296  12.727   3.181  0.7583  0.2774 -0.5114
69698SOL    HW119024  13.331  12.720   3.092 -1.7380 -0.9258 -1.4736
69698SOL    HW219025  13.346  12.799   3.219  2.1736  0.6033 -2.7359
69699SOL     OW19026   0.353   0.894   5.945 -0.0888 -0.2143 -0.5061
69699SOL    HW119027   0.427   0.952   5.927  0.6214 -0.9139  0.1139
69699SOL    HW219028   0.378   0.809   5.910  0.0201 -0.8127  0.9372
69700SOL     OW19029   3.568   2.597   0.532  0.3306  0.7177  0.2066
69700SOL    HW119030   3.580   2.640   0.617  0.2016 -0.8882  1.0752
69700SOL    HW219031   3.541   2.508   0.554 -2.2048  0.9598 -1.5452
69701SOL     OW19032   0.211   9.105   5.696  0.2640 -0.4158 -0.3842
69701SOL    HW119033   0.213   9.075   5.605 -1.6631  0.3742 -0.7408
69701SOL    HW219034   0.238   9.196   5.692 -0.2251 -0.2628 -0.2273
69702SOL     OW19035   5.910  10.269   3.308  0.0195 -0.0666 -0.5152
69702SOL    HW119036   5.889  10.358   3.333 -0.8313 -0.2035 -0.7229
69702SOL    HW219037   5.844  10.245   3.243  0.9060 -0.4613 -1.3061
69703SOL     OW19038  10.486   1.534   5.105  0.1591 -0.0209  0.0694
69703SOL    HW119039  10.542   1.606   5.076  0.2159  0.4110  1.1613
69703SOL    HW219040  10.406   1.543   5.054  0.5249  0.2528 -0.4609
69704SOL     OW19041  12.347   5.179   2.316  0.8068 -0.3743  0.5030
69704SOL    HW119042  12.359   5.126   2.396  2.0225  0.2918  0.7873
69704SOL    HW219043  12.312   5.262   2.348  0.4820 -0.4116  0.2437
69705SOL     OW19044   3.428   6.651   9.355 -0.1225 -0.1440 -0.6956
69705SOL    HW119045   3.481   6.730   9.342 -1.5240  1.1998  1.0456
69705SOL    HW219046   3.481   6.595   9.412 -0.0524  0.6455  0.0406
69706SOL     OW19047   6.108  12.835   1.654  0.2112  0.5138  0.0651
69706SOL    HW119048   6.092  12.895   1.727 -1.7141  2.0980 -1.5293
69706SOL    HW219049   6.203  12.833   1.646  0.4496  0.7118  2.2421
69707SOL     OW19050  10.935   5.364   4.456 -0.3410  0.1312  0.0761
69707SOL    HW119051  10.979   5.282   4.480  0.3376 -0.1368 -1.9045
69707SOL    HW219052  10.906   5.401   4.540  3.6270  0.3022  1.6045
69708SOL     OW19053  11.720   1.493   5.650 -0.2528  0.1118  0.0281
69708SOL    HW119054  11.674   1.501   5.566  0.4685  0.3641 -0.3475
69708SOL    HW219055  11.725   1.583   5.683 -0.0903  0.0741  0.1051
69709SOL     OW19056   1.526   1.930   1.424  0.3136  0.0882 -0.1529
69709SOL    HW119057   1.569   2.000   1.374 -1.7752  0.2144 -1.8934
69709SOL    HW219058   1.485   1.975   1.498  2.2485  0.0873  1.0005
69710SOL     OW19059   3.360   1.078   5.940 -0.0935  0.4059 -0.6854
69710SOL    HW119060   3.381   1.118   6.024  1.9638 -1.8308 -0.0240
69710SOL    HW219061   3.304   1.142   5.896  1.7767  3.2729  0.8449
69711SOL     OW19062   9.385   5.520   1.009  0.2397  0.0472 -0.4746
69711SOL    HW119063   9.413   5.451   1.068  1.4063 -0.3156 -1.4272
69711SOL    HW219064   9.395   5.483   0.921 -1.9190  0.3956 -0.9396
69712SOL     OW19065   6.913  10.544   0.196 -0.2321  0.6329 -0.0493
69712SOL    HW119066   6.933  10.479   0.129  1.9092 -0.8276  1.8961
69712SOL    HW219067   6.944  10.627   0.159  3.1982 -0.4982 -0.0386
69713SOL     OW19068   6.607   2.696   3.338 -0.0172  0.7913  0.2593
69713SOL    HW119069   6.695   2.724   3.312 -0.4320  1.1420 -0.8180
69713SOL    HW219070   6.608   2.601   3.328  0.4287  0.7268  0.8734
69714SOL     OW19071   5.626   2.720  10.717  0.5722 -0.3652  0.3852
69714SOL    HW119072   5.569   2.683  10.651 -0.1713 -0.8961  1.2923
69714SOL    HW219073   5.663   2.798  10.677 -1.2538  0.3284 -0.0131
69715SOL     OW19074   2.745   1.589  13.070  0.2247  0.3633  0.7197
69715SOL    HW119075   2.727   1.551  12.984  1.1012  0.1577  0.6198
69715SOL    HW219076   2.693   1.670  13.072  0.7354  0.7293 -0.2763
69716SOL     OW19077  12.505  11.258   3.430 -0.3028 -0.7458  0.0486
69716SOL    HW119078  12.588  11.296   3.399 -0.1780 -0.9352  0.1440
69716SOL    HW219079  12.486  11.305   3.511 -0.1548 -0.8791  0.1615
69717SOL     OW19080   4.205   5.975   6.787  0.1539  0.4642 -0.5957
69717SOL    HW119081   4.215   5.898   6.730 -0.4726 -0.5031  0.5587
69717SOL    HW219082   4.153   5.944   6.860  0.6275  1.7827  0.3334
69718SOL     OW19083   7.866   7.591   3.117 -0.1584 -0.5854  0.0981
69718SOL    HW119084   7.821   7.586   3.202  0.0738  1.7831  0.4234
69718SOL    HW219085   7.795   7.607   3.054 -0.1521 -0.4485  0.1240
69719SOL     OW19086   6.736  10.823   5.679 -0.5424 -0.3705  0.0989
69719SOL    HW119087   6.769  10.912   5.667 -1.1336 -0.3834 -1.9325
69719SOL    HW219088   6.814  10.768   5.679 -0.2946 -0.0239 -0.5253
69720SOL     OW19089   5.959   0.013  11.991 -0.2642  0.0924  0.3358
69720SOL    HW119090   5.905   0.092  11.994 -0.6821 -0.2003  0.5655
69720SOL    HW219091   6.033   0.033  12.048  0.4675  0.9211 -0.8478
69721SOL     OW19092  10.249   1.672   8.672  0.0992 -0.6118  0.0479
69721SOL    HW119093  10.264   1.762   8.645  0.4041 -0.7615 -0.2936
69721SOL    HW219094  10.158   1.671   8.702 -0.2133 -0.3981 -0.8533
69722SOL     OW19095   2.117   0.874   0.339  0.3656  0.4916  0.4162
69722SOL    HW119096   2.106   0.879   0.244 -1.0164 -0.0383  0.5304
69722SOL    HW219097   2.096   0.783   0.361  2.5665  0.0725  1.0243
69723SOL     OW19098   5.726  12.330   1.958 -0.0286 -0.1940  0.2457
69723SOL    HW119099   5.648  12.275   1.943 -0.6642  0.6185  0.5039
69723SOL    HW219100   5.704  12.382   2.036  0.5741  0.3938  0.0313
69724SOL     OW19101   2.845   8.224   5.326 -0.0745  0.2533 -0.1339
69724SOL    HW119102   2.800   8.146   5.358 -1.3493  0.5951 -0.9831
69724SOL    HW219103   2.823   8.292   5.391 -0.0540  0.2100 -0.0816
69725SOL     OW19104   4.236   9.293   3.548  0.3872  0.1419  0.0763
69725SOL    HW119105   4.257   9.385   3.535  0.7810  0.0882  0.2947
69725SOL    HW219106   4.318   9.247   3.530 -0.2014 -0.3210 -1.6466
69726SOL     OW19107   2.847   0.639  10.935  0.1019 -0.2463 -0.0940
69726SOL    HW119108   2.760   0.653  10.899 -0.2597 -2.3280 -0.1380
69726SOL    HW219109   2.906   0.674  10.869 -0.6425 -1.1958 -1.3000
69727SOL     OW19110   3.294   3.333   8.050 -0.0205  0.3529 -0.2927
69727SOL    HW119111   3.231   3.400   8.077 -1.1476  1.1676 -4.3434
69727SOL    HW219112   3.300   3.342   7.955  4.0001 -1.7298 -0.4475
69728SOL     OW19113  12.209   5.275   4.051 -0.1095 -0.3966  0.5082
69728SOL    HW119114  12.303   5.259   4.055  0.3291  1.3214 -1.2407
69728SOL    HW219115  12.177   5.214   3.985 -0.3626 -1.4210  1.5539
69729SOL     OW19116   2.777   7.848   6.600 -0.3819 -0.1433 -0.1031
69729SOL    HW119117   2.696   7.820   6.556 -0.6945 -0.3803  0.6105
69729SOL    HW219118   2.748   7.912   6.664 -0.2175 -1.3687  1.2422
69730SOL     OW19119   5.663   7.416   4.004 -0.2328 -0.7284 -0.1330
69730SOL    HW119120   5.699   7.501   3.978 -0.1559 -1.3437 -2.2042
69730SOL    HW219121   5.570   7.422   3.984 -0.2359 -1.1165 -0.2466
69731SOL     OW19122   0.866  12.345  10.379  0.6456  0.3554 -0.7566
69731SOL    HW119123   0.917  12.348  10.460 -1.6627  0.7246  0.7485
69731SOL    HW219124   0.796  12.408  10.391  0.2974  0.5256 -3.1312
69732SOL     OW19125   9.268  13.235   6.677  0.2349 -0.5703 -0.4112
69732SOL    HW119126   9.216  13.315   6.680  0.5098 -0.4097  0.1460
69732SOL    HW219127   9.253  13.200   6.590 -0.4002 -0.2509 -0.4334
69733SOL     OW19128  12.471   0.098   4.208 -0.4780  0.2335 -0.4415
69733SOL    HW119129  12.548   0.040   4.201 -0.8302 -0.3739  0.5400
69733SOL    HW219130  12.437   0.102   4.118  0.6996  0.5276 -0.8963
69734SOL     OW19131   6.215   0.434   2.780  0.3118  0.1373 -0.9417
69734SOL    HW119132   6.165   0.511   2.807 -2.1164 -0.7941 -2.4842
69734SOL    HW219133   6.160   0.360   2.805  0.8011 -0.9299 -2.8243
69735SOL     OW19134   3.538  12.005  11.804  0.9063 -0.0652 -0.1058
69735SOL    HW119135   3.605  11.971  11.864  0.5419  1.2128  1.0766
69735SOL    HW219136   3.455  11.984  11.846  0.5118 -1.7100 -1.6079
69736SOL     OW19137   8.568   9.442   6.326  0.2872  0.0219 -0.4144
69736SOL    HW119138   8.633   9.389   6.279  0.5488 -0.5176  0.5120
69736SOL    HW219139   8.620   9.499   6.383 -0.0169 -1.0773  1.0381
69737SOL     OW19140  11.593   3.093   8.016  0.2016 -0.4267 -0.7215
69737SOL    HW119141  11.660   3.059   7.956 -0.0619 -0.2147 -1.1423
69737SOL    HW219142  11.559   3.016   8.061  0.8284 -0.5190 -0.4027
69738SOL     OW19143   8.640   6.682   8.303 -0.3555  0.1040 -0.1835
69738SOL    HW119144   8.559   6.667   8.351 -0.8593 -0.2937 -1.1244
69738SOL    HW219145   8.659   6.598   8.261 -0.0199  0.4738 -0.7896
69739SOL     OW19146   0.997  13.236   5.288  0.5395 -0.5849  0.4532
69739SOL    HW119147   1.029  13.324   5.270 -1.2029  0.6885  2.9850
69739SOL    HW219148   0.957  13.208   5.206  0.4120  1.3045 -0.1810
69740SOL     OW19149  10.937   0.895  13.312 -0.0098 -0.2914 -0.1682
69740SOL    HW119150  11.001   0.960  13.285  1.4138 -1.6852 -0.3060
69740SOL    HW219151  10.917   0.917  13.403  0.9397 -0.0325 -0.0166
69741SOL     OW19152   4.613   0.630   3.262  0.8230 -0.2102 -0.2061
69741SOL    HW119153   4.620   0.698   3.328 -0.6903  0.2741 -0.5027
69741SOL    HW219154   4.649   0.552   3.303  2.6540  0.7609  0.1118
69742SOL     OW19155  12.334  10.852   8.610 -0.2661  0.0869  0.0843
69742SOL    HW119156  12.355  10.941   8.638  0.3640  0.3641 -1.1979
69742SOL    HW219157  12.390  10.796   8.664  0.0436  0.5210  0.2207
69743SOL     OW19158   6.078   5.625   5.775  0.3042 -0.1814  0.4756
69743SOL    HW119159   6.023   5.704   5.777 -0.7066 -0.8429  0.0060
69743SOL    HW219160   6.130   5.630   5.855 -1.2660 -0.0863  1.5474
69744SOL     OW19161   0.423   9.790   3.966 -0.3340  0.6640  0.1214
69744SOL    HW119162   0.507   9.771   3.924  0.1490  0.0640  1.3118
69744SOL    HW219163   0.439   9.870   4.017 -0.3240  0.2433  0.7831
69745SOL     OW19164   0.892   0.264   2.880 -0.8919 -0.6088  0.5127
69745SOL    HW119165   0.947   0.338   2.857  0.0284 -1.6000 -0.6331
69745SOL    HW219166   0.822   0.301   2.934 -1.0705  1.2426 -0.9101
69746SOL     OW19167   5.134   9.548   8.754 -0.6727  0.1432 -0.2262
69746SOL    HW119168   5.168   9.537   8.665 -0.4337  0.7288 -0.2090
69746SOL    HW219169   5.039   9.552   8.742 -0.6270  0.5364 -0.4945
69747SOL     OW19170  12.326   0.930   8.353 -0.0229  0.4658 -0.1326
69747SOL    HW119171  12.320   1.021   8.324 -0.0013  1.0317  1.5575
69747SOL    HW219172  12.241   0.912   8.392  0.0788 -0.1423 -0.1851
69748SOL     OW19173   2.071   9.318   2.438 -0.3029 -0.0592  0.4920
69748SOL    HW119174   2.123   9.238   2.426 -0.4051 -0.0809  0.1814
69748SOL    HW219175   2.063   9.355   2.349  0.4218  0.7230  0.7398
69749SOL     OW19176  12.560   0.887  11.589  0.2020 -0.0506  0.0923
69749SOL    HW119177  12.564   0.808  11.535  0.0840 -0.3810  0.5533
69749SOL    HW219178  12.574   0.959  11.528 -0.4108 -0.3808 -0.4607
69750SOL     OW19179   7.391  13.009   2.772 -0.1908  0.0072 -0.5499
69750SOL    HW119180   7.394  13.002   2.677  0.2376 -1.2369 -0.4745
69750SOL    HW219181   7.474  13.051   2.795 -0.2680  0.2557 -0.7208
69751SOL     OW19182   9.644  10.365   8.277 -0.0352 -0.1114 -0.1908
69751SOL    HW119183   9.726  10.339   8.319 -0.9066 -0.7626  1.1865
69751SOL    HW219184   9.611  10.438   8.330 -1.0658 -0.8251  0.2001
69752SOL     OW19185   1.236   6.573   4.748  0.2041 -0.3710 -0.0626
69752SOL    HW119186   1.315   6.627   4.744  1.4493 -2.0344  0.3789
69752SOL    HW219187   1.189   6.604   4.826 -0.1207  1.2888 -0.8795
69753SOL     OW19188  11.278   5.434  10.973  0.3731 -0.2880 -0.0930
69753SOL    HW119189  11.331   5.354  10.978  0.9621  0.1362  0.7170
69753SOL    HW219190  11.309   5.479  10.895  0.3069 -0.6612 -0.3365
69754SOL     OW19191  11.919   8.013  10.410  0.1403 -0.3465  0.8339
69754SOL    HW119192  11.980   8.013  10.484 -0.3815 -1.9430  1.3095
69754SOL    HW219193  11.948   7.939  10.355 -0.9169 -0.6862  0.7045
69755SOL     OW19194  10.470   0.660  11.378 -0.1608  0.2867  0.0928
69755SOL    HW119195  10.487   0.632  11.468  1.9554 -2.1023 -0.9539
69755SOL    HW219196  10.477   0.756  11.381  3.3826  0.1349  1.9041
69756SOL     OW19197   4.811   9.887   9.371 -0.0832  0.2077 -0.9200
69756SOL    HW119198   4.820   9.851   9.283 -0.4378  2.3119 -1.8706
69756SOL    HW219199   4.816   9.982   9.359  1.5044  0.5237  1.5266
69757SOL     OW19200   6.984   7.263  10.432 -0.6037  0.5282 -0.1072
69757SOL    HW119201   6.912   7.206  10.404 -1.6358  0.6383  2.0934
69757SOL    HW219202   7.006   7.232  10.520  2.1117  0.5006 -0.7084
69758SOL     OW19203   1.639   9.608   8.902  0.1161 -0.4573 -0.1852
69758SOL    HW119204   1.707   9.542   8.890  0.9283  0.4341 -0.5946
69758SOL    HW219205   1.582   9.597   8.826  1.4396  0.6829 -1.3927
69759SOL     OW19206   7.688   8.283  10.521 -0.3831 -0.3864  0.0065
69759SOL    HW119207   7.654   8.196  10.544 -0.1479  0.0440  2.1923
69759SOL    HW219208   7.621   8.320  10.463 -2.1258 -0.8101  1.6319
69760SOL     OW19209  12.862  12.538   3.035 -0.0181 -0.2192  0.1783
69760SOL    HW119210  12.818  12.597   3.096  0.0694 -0.6271  0.6475
69760SOL    HW219211  12.791  12.486   2.996 -0.2378  1.0371 -1.1975
69761SOL     OW19212  11.372   4.889   1.585  0.2859  0.2049 -0.5052
69761SOL    HW119213  11.399   4.976   1.555 -2.1570  0.7092 -1.4453
69761SOL    HW219214  11.318   4.905   1.662 -0.6563 -0.4214 -1.0166
69762SOL     OW19215   6.500   8.378   7.619  0.2964  0.3203  0.1499
69762SOL    HW119216   6.495   8.289   7.653 -1.8103  0.9322  1.6085
69762SOL    HW219217   6.538   8.429   7.690  0.2473  0.8237 -0.1781
69763SOL     OW19218   5.246   3.125  11.809  0.2694  0.1603  0.3072
69763SOL    HW119219   5.189   3.113  11.733 -0.7868 -1.2128  1.2645
69763SOL    HW219220   5.205   3.072  11.878  1.4485  0.9976  1.7004
69764SOL     OW19221   9.209   8.816   5.098  0.2947  0.6532  0.0923
69764SOL    HW119222   9.169   8.903   5.100 -0.5229  0.2964 -0.1605
69764SOL    HW219223   9.161   8.768   5.030  1.8382  0.5050 -0.9432
69765SOL     OW19224   3.019  11.926   2.156 -0.1821  0.3548 -0.1039
69765SOL    HW119225   3.006  11.890   2.068 -2.6826 -0.3910  0.4835
69765SOL    HW219226   3.107  11.896   2.181  1.5399  2.4380 -3.0974
69766SOL     OW19227  10.214   9.217   9.740  0.6578  0.0454  0.4117
69766SOL    HW119228  10.199   9.288   9.801 -2.1065 -0.1010  0.0385
69766SOL    HW219229  10.155   9.235   9.666  1.6437 -1.3732 -0.8013
69767SOL     OW19230   2.377   4.065   8.489 -0.0181 -0.1785  0.2312
69767SOL    HW119231   2.387   4.160   8.500 -0.2972  0.1186 -1.7322
69767SOL    HW219232   2.407   4.048   8.400 -0.0063 -1.9506  0.5422
69768SOL     OW19233   6.881   6.838   6.766 -0.1389  0.1675  0.1485
69768SOL    HW119234   6.929   6.921   6.768 -1.9994  1.3263  2.4805
69768SOL    HW219235   6.849   6.830   6.677 -1.1940  2.8226  0.1907
69769SOL     OW19236   0.536  10.307   9.355 -0.0800 -0.0794  0.1884
69769SOL    HW119237   0.596  10.292   9.427 -1.4346 -2.1946  0.9822
69769SOL    HW219238   0.586  10.286   9.277  0.6249 -0.4080  0.7192
69770SOL     OW19239  12.539   5.556   4.022 -0.0876  0.0037 -0.6769
69770SOL    HW119240  12.530   5.650   4.034 -1.4618 -0.0097 -1.3857
69770SOL    HW219241  12.449   5.525   4.008  0.2112 -1.5792  0.6796
69771SOL     OW19242  12.783   1.264   8.082  0.3630 -0.4703 -0.0534
69771SOL    HW119243  12.821   1.185   8.122 -0.9965 -1.8120 -1.2660
69771SOL    HW219244  12.858   1.321   8.065  1.5826 -2.1284 -0.4944
69772SOL     OW19245   4.608  10.932   5.351 -0.3418 -0.1071 -0.8694
69772SOL    HW119246   4.678  10.936   5.286 -1.2459  1.5789 -1.8306
69772SOL    HW219247   4.652  10.919   5.435  1.3668  3.2062 -1.1171
69773SOL     OW19248   7.779  12.222  10.529  0.2676  0.7748  0.6466
69773SOL    HW119249   7.701  12.212  10.584  1.4381 -1.9539  1.9811
69773SOL    HW219250   7.766  12.159  10.458  0.0033  2.3771 -0.7871
69774SOL     OW19251  12.798   3.191   5.381  0.0245 -1.2056  0.0091
69774SOL    HW119252  12.723   3.248   5.363  2.2620  1.5290 -1.4544
69774SOL    HW219253  12.808   3.194   5.476 -1.8550 -1.9439  0.2810
69775SOL     OW19254   6.467   1.090   6.164 -0.0525  0.1487 -0.1511
69775SOL    HW119255   6.525   1.148   6.212  0.8605 -0.3663 -0.6186
69775SOL    HW219256   6.485   1.003   6.197 -2.6472  0.2238  1.8080
69776SOL     OW19257   2.774  12.762   5.211  0.4528 -0.3503 -0.0696
69776SOL    HW119258   2.792  12.771   5.117  1.1025  0.9210  0.1490
69776SOL    HW219259   2.860  12.754   5.251  0.1459 -1.5275  0.3743
69777SOL     OW19260   7.403   7.783   1.820 -0.0440 -0.2736 -0.0058
69777SOL    HW119261   7.383   7.721   1.749 -2.1018  0.8660 -0.5092
69777SOL    HW219262   7.407   7.868   1.776 -0.3376  0.3257  1.0941
69778SOL     OW19263   2.595  12.939  12.649  0.3305  0.0353  0.0778
69778SOL    HW119264   2.681  12.901  12.668  0.4202  0.3470  0.2864
69778SOL    HW219265   2.540  12.911  12.722 -0.5406 -2.6651 -1.4649
69779SOL     OW19266  12.537   8.293   8.332 -0.0580 -0.5356  0.1304
69779SOL    HW119267  12.443   8.285   8.346 -0.2170 -2.3701 -1.6015
69779SOL    HW219268  12.576   8.263   8.415 -1.0088 -1.9847  0.0964
69780SOL     OW19269   1.633   7.875   1.005  0.2998  0.3219 -0.3661
69780SOL    HW119270   1.558   7.879   0.947 -0.6409 -1.8817  0.5635
69780SOL    HW219271   1.687   7.950   0.981 -1.3286  0.9661 -2.2442
69781SOL     OW19272   4.404   2.139   6.471  0.4710 -0.3051  0.0313
69781SOL    HW119273   4.318   2.173   6.494  0.1903 -0.6101 -0.5403
69781SOL    HW219274   4.451   2.133   6.554 -0.4867 -1.3182  0.5216
69782SOL     OW19275   0.400   2.934   7.739  0.6196 -0.5606  0.1625
69782SOL    HW119276   0.460   2.885   7.683 -1.0252 -0.8187 -1.4922
69782SOL    HW219277   0.413   3.026   7.713  0.3384 -0.6149 -0.1844
69783SOL     OW19278   8.373   1.416   0.063  0.0955 -0.0784  0.2284
69783SOL    HW119279   8.401   1.452   0.147 -0.5858  0.1207  0.3771
69783SOL    HW219280   8.327   1.335   0.085 -0.2355  0.0623  0.0589
69784SOL     OW19281   8.170   0.008  13.182  0.0731  0.1297 -0.5564
69784SOL    HW119282   8.211  -0.044  13.251  0.9435  0.6726 -0.6518
69784SOL    HW219283   8.078  -0.020  13.182  0.0358  0.1952  0.8799
69785SOL     OW19284   5.772  12.374   1.653  0.3160 -0.1614 -0.1194
69785SOL    HW119285   5.815  12.347   1.572  1.3292  0.0103  0.3394
69785SOL    HW219286   5.687  12.407   1.626  0.7547  0.1508 -1.1441
69786SOL     OW19287   6.313   3.321   1.442 -0.5087  0.8112  0.3521
69786SOL    HW119288   6.316   3.276   1.527  0.6306 -0.3116 -0.2490
69786SOL    HW219289   6.293   3.252   1.379  0.8844  1.1690 -0.5375
69787SOL     OW19290   5.423   5.306  13.052  0.4628  0.0049  0.0227
69787SOL    HW119291   5.479   5.254  13.110  0.7060  0.4389  0.1773
69787SOL    HW219292   5.470   5.389  13.041 -0.5589  0.7252  0.8771
69788SOL     OW19293   7.555   6.596   4.622 -0.1742 -0.0862  0.0702
69788SOL    HW119294   7.516   6.615   4.537 -0.3373  0.6587  0.3049
69788SOL    HW219295   7.554   6.501   4.628  0.1280 -0.1654 -0.8976
69789SOL     OW19296   5.502   4.432  11.255 -0.0053  0.2983 -0.2172
69789SOL    HW119297   5.416   4.390  11.253 -0.4404  0.9560  2.0061
69789SOL    HW219298   5.491   4.510  11.200 -0.5733 -0.0270 -0.5831
69790SOL     OW19299   8.866   8.669  12.051 -0.2090 -0.1558  0.2955
69790SOL    HW119300   8.937   8.718  12.009 -1.1451  1.1583  0.1989
69790SOL    HW219301   8.821   8.734  12.106 -0.6640 -1.2216  1.2210
69791SOL     OW19302   5.897  12.280  12.588  0.4553 -0.4041  0.4727
69791SOL    HW119303   5.895  12.294  12.683 -2.4693 -1.8161  0.7098
69791SOL    HW219304   5.850  12.198  12.574  1.1815 -0.4598 -2.1970
69792SOL     OW19305   9.512   0.085   4.808  0.4265  0.1465 -0.3149
69792SOL    HW119306   9.542   0.167   4.768  3.3705 -0.0638  1.2571
69792SOL    HW219307   9.582   0.022   4.792 -0.5920 -1.3609  0.7862
69793SOL     OW19308   5.881   2.523   6.578 -0.3783  0.1729  0.5044
69793SOL    HW119309   5.897   2.477   6.495 -0.7019 -1.5657  1.3539
69793SOL    HW219310   5.964   2.568   6.596  0.0139 -0.1971 -0.2905
69794SOL     OW19311  10.140  12.511   5.655  0.8508  0.2226  0.1991
69794SOL    HW119312  10.233  12.512   5.630  1.3925 -1.4740  1.9248
69794SOL    HW219313  10.137  12.559   5.737  0.1099  0.6028 -0.0443
69795SOL     OW19314   2.456   2.453   9.137 -0.1010 -0.6211  0.0637
69795SOL    HW119315   2.390   2.411   9.193  0.2639  0.7117  1.5729
69795SOL    HW219316   2.505   2.510   9.196  1.9096 -0.9641 -1.1713
69796SOL     OW19317   1.735   1.168   6.660  0.0837 -0.2172  0.1051
69796SOL    HW119318   1.682   1.139   6.734 -0.2264  0.3666  0.1134
69796SOL    HW219319   1.825   1.165   6.693 -0.1116  0.7937  0.7725
69797SOL     OW19320   9.235   1.155  12.683 -0.0165 -0.5173  0.3301
69797SOL    HW119321   9.158   1.107  12.651  0.6082 -0.6041 -1.1572
69797SOL    HW219322   9.298   1.149  12.611  0.8185  0.8576  0.9076
69798SOL     OW19323   9.202   1.119   4.617 -0.0959 -0.1424 -0.1834
69798SOL    HW119324   9.213   1.182   4.547  1.2715  0.7060  0.7426
69798SOL    HW219325   9.163   1.169   4.689  1.5841 -0.1482  0.7775
69799SOL     OW19326  10.338   5.385   5.160 -0.3056 -0.1580 -0.2745
69799SOL    HW119327  10.290   5.460   5.194 -0.0043 -0.1681  0.1811
69799SOL    HW219328  10.403   5.423   5.100 -0.9125 -0.1497 -0.9341
69800SOL     OW19329  13.132  11.560   5.792  0.1533 -0.0115  0.0239
69800SOL    HW119330  13.082  11.514   5.860  2.3478 -1.9335  0.4982
69800SOL    HW219331  13.174  11.632   5.838 -1.0928  0.8097 -0.0938
69801SOL     OW19332  11.838   8.164   7.788  0.8083 -0.1199 -0.1411
69801SOL    HW119333  11.905   8.135   7.726  3.1648 -0.9755  2.5559
69801SOL    HW219334  11.781   8.088   7.799  1.5252 -0.6206  0.1521
69802SOL     OW19335   2.148   1.974   8.554 -0.2205  0.3134 -0.1759
69802SOL    HW119336   2.230   2.002   8.513 -0.2410  2.1814  0.9429
69802SOL    HW219337   2.163   1.982   8.648 -1.0020 -1.4383  0.1499
69803SOL     OW19338   3.201   6.272   1.517 -0.5229 -0.4181  0.5109
69803SOL    HW119339   3.262   6.328   1.468  0.1572 -0.8514  0.8433
69803SOL    HW219340   3.136   6.333   1.553  0.4081  0.2142  1.1720
69804SOL     OW19341   9.824   6.975   8.980  0.1576 -0.0732  0.5861
69804SOL    HW119342   9.813   6.882   8.998 -1.2898 -0.1957 -0.7025
69804SOL    HW219343   9.907   6.981   8.934 -0.4949 -0.9766 -0.7608
69805SOL     OW19344   2.559   5.581   1.167  0.2530 -0.1207  0.4485
69805SOL    HW119345   2.539   5.488   1.165 -1.4898  0.2459 -0.6086
69805SOL    HW219346   2.655   5.584   1.175  0.4084 -1.9913 -0.1830
69806SOL     OW19347   9.413   0.971   2.548 -0.4104  0.5590 -0.3558
69806SOL    HW119348   9.401   1.052   2.497 -2.3523 -0.3055 -1.4022
69806SOL    HW219349   9.326   0.931   2.550  0.5094 -1.5750  0.0112
69807SOL     OW19350   5.534   8.165   5.322 -0.5144  0.1325  0.0375
69807SOL    HW119351   5.461   8.104   5.325  1.0612 -1.8628  0.2036
69807SOL    HW219352   5.577   8.146   5.239 -0.5792  1.7963 -0.4023
69808SOL     OW19353   5.571   1.196   9.439  0.1067 -0.5393  0.5618
69808SOL    HW119354   5.478   1.203   9.459  0.6210  0.6003  2.9424
69808SOL    HW219355   5.603   1.126   9.495  0.9411  0.0853  0.8894
69809SOL     OW19356   4.556   3.268  11.855 -0.0661 -0.5926 -0.4996
69809SOL    HW119357   4.517   3.215  11.925  1.3773  0.2633  1.0471
69809SOL    HW219358   4.532   3.358  11.877 -1.0521 -0.4138 -2.1340
69810SOL     OW19359   3.066   5.486   5.018 -0.3983 -0.3772 -0.5907
69810SOL    HW119360   3.134   5.533   4.970  0.6974 -0.0554  1.1630
69810SOL    HW219361   2.989   5.541   5.012  0.3425  0.7402 -0.1559
69811SOL     OW19362   0.638   0.164  12.350 -0.5325 -0.0517 -0.0227
69811SOL    HW119363   0.651   0.243  12.402  0.4344 -0.6784  0.7299
69811SOL    HW219364   0.687   0.179  12.270  0.6731 -0.3488  0.6340
69812SOL     OW19365   2.802   3.585   1.040  0.2315  0.1051  0.1220
69812SOL    HW119366   2.718   3.618   1.008  0.4954 -0.0810 -0.8062
69812SOL    HW219367   2.784   3.495   1.066  0.3388 -0.2626 -1.0163
69813SOL     OW19368   6.523   8.762   2.354 -0.1829 -0.4217  0.1122
69813SOL    HW119369   6.472   8.834   2.317  0.4051  0.2542  0.5804
69813SOL    HW219370   6.500   8.686   2.300 -2.6932 -0.4729  1.1525
69814SOL     OW19371  10.153   7.525   1.064 -0.5240  0.1567 -0.6321
69814SOL    HW119372  10.153   7.538   1.159  0.4271 -0.1485 -0.5771
69814SOL    HW219373  10.245   7.534   1.039 -0.6362 -0.6993 -1.3843
69815SOL     OW19374  12.536  11.637   8.390  0.3242 -0.2358 -0.2667
69815SOL    HW119375  12.521  11.732   8.394 -0.1458 -0.2811 -0.8439
69815SOL    HW219376  12.525  11.615   8.298 -2.4286 -1.3144  0.2263
69816SOL     OW19377  12.394  13.029   7.960  0.4647 -0.1393  0.0640
69816SOL    HW119378  12.407  13.050   8.053 -1.4567  1.1478  0.0961
69816SOL    HW219379  12.368  13.112   7.920 -3.5424 -1.5002 -0.6186
69817SOL     OW19380  10.063   3.519  13.031  0.4627 -0.0261 -0.0803
69817SOL    HW119381  10.029   3.555  12.949 -4.0487 -0.8519  1.1348
69817SOL    HW219382  10.084   3.428  13.010  0.5678  0.1107 -0.5861
69818SOL     OW19383   6.162  11.543   5.780 -0.0950  0.2420  0.6864
69818SOL    HW119384   6.093  11.525   5.717 -0.3672 -0.9874  1.3084
69818SOL    HW219385   6.207  11.619   5.745 -0.8861  0.2113 -0.4460
69819SOL     OW19386  12.193   6.593   7.640  0.0209 -0.5236 -0.1411
69819SOL    HW119387  12.285   6.617   7.657  0.1748 -1.3955  0.2818
69819SOL    HW219388  12.145   6.674   7.658  0.7749  0.1838 -1.1523
69820SOL     OW19389   7.861  10.587   9.879 -0.4084 -0.9447  0.0962
69820SOL    HW119390   7.802  10.658   9.903 -0.6010 -1.0056 -0.1967
69820SOL    HW219391   7.942  10.605   9.928  0.4705  0.8874 -1.8773
69821SOL     OW19392   6.814  10.712   5.130  0.2593 -0.0062  0.0316
69821SOL    HW119393   6.771  10.734   5.048  0.3827  0.3919  0.0717
69821SOL    HW219394   6.758  10.646   5.170 -2.4976  3.1595  1.9100
69822SOL     OW19395   1.867  12.991   3.790  0.0282  0.4455 -0.5226
69822SOL    HW119396   1.779  13.000   3.754 -0.7936 -0.7865  1.0575
69822SOL    HW219397   1.872  12.900   3.818  1.7102  0.5725 -0.3209
69823SOL     OW19398  11.809  10.688   3.365 -0.5863 -0.0750 -0.2436
69823SOL    HW119399  11.781  10.751   3.299  1.6606  1.1673 -0.0825
69823SOL    HW219400  11.742  10.693   3.434 -2.2081 -0.3834 -1.7391
69824SOL     OW19401   3.085   8.423   7.459 -0.1018  0.1980  0.0228
69824SOL    HW119402   3.036   8.456   7.534  0.0847  0.7588 -0.1044
69824SOL    HW219403   3.018   8.382   7.403 -0.6331  2.0497 -0.7618
69825SOL     OW19404  10.150   8.586  11.126 -0.7908  0.5176  0.1189
69825SOL    HW119405  10.191   8.673  11.122  1.0601 -0.3449 -0.9896
69825SOL    HW219406  10.178   8.543  11.046 -1.4489 -1.2062  0.7792
69826SOL     OW19407  12.880   2.554   4.186  0.2169  0.2785 -0.3208
69826SOL    HW119408  12.810   2.503   4.146  1.4597 -1.6854 -0.1036
69826SOL    HW219409  12.859   2.555   4.280  0.8091 -0.9509 -0.1494
69827SOL     OW19410   2.238   5.522   1.725  0.0656  0.0549  1.0688
69827SOL    HW119411   2.142   5.527   1.721  0.1277  0.3146 -0.5188
69827SOL    HW219412   2.260   5.438   1.687  0.5843  1.3451 -1.7342
69828SOL     OW19413   7.068   0.999  12.583 -0.0915  0.0091  0.3830
69828SOL    HW119414   7.066   1.065  12.652 -1.6686 -1.3538  1.7083
69828SOL    HW219415   7.076   0.915  12.629 -2.2530 -1.0294 -0.9412
69829SOL     OW19416  11.933   5.112   8.026  0.0558 -0.1691 -0.4593
69829SOL    HW119417  11.956   5.134   8.117  0.8277 -1.1473 -0.3994
69829SOL    HW219418  12.005   5.056   7.996  1.5899  2.7394 -2.7854
69830SOL     OW19419   2.716  12.292   1.381 -0.4418 -0.1674 -0.9667
69830SOL    HW119420   2.691  12.348   1.454 -0.4910 -0.0437 -1.0772
69830SOL    HW219421   2.702  12.346   1.303 -2.2250 -0.9081 -1.2142
69831SOL     OW19422  10.003   1.513   5.719  0.0597  0.1139  0.1431
69831SOL    HW119423   9.922   1.475   5.756 -0.1337  1.3785  1.0978
69831SOL    HW219424  10.072   1.485   5.779  0.1652 -0.0789 -0.0689
69832SOL     OW19425   5.955  11.592   9.078 -0.3275  0.4453 -0.2020
69832SOL    HW119426   5.899  11.586   9.000  1.1995  0.6320 -1.3624
69832SOL    HW219427   5.971  11.686   9.088 -0.8842  0.4596  0.6380
69833SOL     OW19428  11.455  11.325   6.028 -0.2324  0.2113  0.0674
69833SOL    HW119429  11.402  11.404   6.043  0.8501  0.6353  2.0645
69833SOL    HW219430  11.415  11.259   6.085 -0.5408 -0.4399 -0.8708
69834SOL     OW19431   0.797  10.659   0.565  0.2453  0.0300 -0.2514
69834SOL    HW119432   0.727  10.594   0.574 -0.5886  0.7363 -1.3648
69834SOL    HW219433   0.856  10.642   0.638 -1.8501  0.3691  1.5979
69835SOL     OW19434  12.300   1.530   3.012 -0.4972  0.9199  0.3940
69835SOL    HW119435  12.256   1.531   2.928  0.8669 -0.7784 -0.4209
69835SOL    HW219436  12.249   1.469   3.066 -0.6459  1.0130  0.3561
69836SOL     OW19437   2.061   7.033   7.133  0.5410 -0.7397 -0.3020
69836SOL    HW119438   2.003   6.959   7.117  0.1019 -0.8852  1.7056
69836SOL    HW219439   2.056   7.047   7.227 -1.2143  3.3357 -0.7998
69837SOL     OW19440   1.229   8.870   7.300 -0.0528 -0.3093 -1.0761
69837SOL    HW119441   1.233   8.957   7.339 -1.3106 -1.1647  1.1237
69837SOL    HW219442   1.318   8.855   7.267  0.1803  1.7843 -1.5553
69838SOL     OW19443   3.134   8.864   2.111 -0.2958 -0.4031 -0.2162
69838SOL    HW119444   3.227   8.885   2.105 -0.6402  1.4568  0.1809
69838SOL    HW219445   3.124   8.818   2.194  0.4668 -2.0521 -0.9907
69839SOL     OW19446  11.340   9.361   3.574  0.3871  0.0690 -0.6566
69839SOL    HW119447  11.267   9.299   3.571 -0.5377  0.9325  1.8071
69839SOL    HW219448  11.411   9.316   3.528 -0.3218 -2.7202  0.7389
69840SOL     OW19449   0.657   7.673   0.283  0.4393 -0.2246  0.5215
69840SOL    HW119450   0.649   7.578   0.292  0.4508 -0.1405  1.5418
69840SOL    HW219451   0.668   7.704   0.373 -1.4603  0.9271  0.4056
69841SOL     OW19452   0.997   9.704   6.703 -0.0464 -0.3440 -0.0522
69841SOL    HW119453   0.949   9.660   6.633 -1.0317 -1.1116  1.0762
69841SOL    HW219454   1.088   9.678   6.689 -0.1072  0.0860 -1.4475
69842SOL     OW19455   0.850   3.274  13.110  0.1686  0.0839 -0.5410
69842SOL    HW119456   0.798   3.308  13.037  0.7734  1.2770 -0.4369
69842SOL    HW219457   0.786   3.235  13.169 -0.4203 -0.0571 -1.2652
69843SOL     OW19458  12.124   3.818   0.565 -0.1412 -0.3122  0.1621
69843SOL    HW119459  12.031   3.813   0.541 -0.0597  0.1951 -0.2696
69843SOL    HW219460  12.171   3.807   0.482  0.1595  0.6943  0.1948
69844SOL     OW19461   5.050  12.432  12.725  0.1581  0.2525 -0.5615
69844SOL    HW119462   5.082  12.354  12.770  2.3833  0.9587 -0.8246
69844SOL    HW219463   5.017  12.488  12.796  0.5369 -0.0420 -0.1429
69845SOL     OW19464   7.513   9.848   6.584  0.8337 -0.4052  0.0075
69845SOL    HW119465   7.466   9.901   6.520  1.8191  0.7588  0.2276
69845SOL    HW219466   7.576   9.799   6.532  0.8425 -0.3430 -0.0400
69846SOL     OW19467   8.533  10.804   9.042  0.0642 -0.0580  0.2868
69846SOL    HW119468   8.495  10.776   8.959  2.5936 -0.4292 -0.8198
69846SOL    HW219469   8.525  10.727   9.099 -1.5087  0.1408  0.3856
69847SOL     OW19470  10.209   7.217  10.825 -0.1477 -0.6027 -0.3450
69847SOL    HW119471  10.287   7.269  10.805 -1.3139  1.8621  1.0832
69847SOL    HW219472  10.228   7.178  10.910 -0.4413 -0.0293 -0.0124
69848SOL     OW19473   0.673   8.871   5.938  0.1897 -0.5553  0.1831
69848SOL    HW119474   0.584   8.873   5.903  0.4957  1.9297 -0.6645
69848SOL    HW219475   0.727   8.912   5.870  1.6315 -0.1045  1.5237
69849SOL     OW19476   2.790   8.360   4.687 -0.1365 -0.3412 -0.4568
69849SOL    HW119477   2.798   8.365   4.783 -0.5877 -0.3855 -0.4168
69849SOL    HW219478   2.710   8.310   4.672  0.7116 -1.6580 -0.8507
69850SOL     OW19479   6.253   8.620  12.228 -0.3751 -0.5280  0.1996
69850SOL    HW119480   6.237   8.548  12.165  0.5767  0.1152 -0.8215
69850SOL    HW219481   6.166   8.648  12.255 -0.8932 -0.0330 -1.7897
69851SOL     OW19482   0.141   3.415  11.836  0.4557  0.3992 -0.4954
69851SOL    HW119483   0.122   3.354  11.765 -0.0335 -0.7926  0.6153
69851SOL    HW219484   0.230   3.395  11.863 -0.1886 -0.8829  0.8242
69852SOL     OW19485   2.720   4.237   1.065  0.5485 -0.4126 -0.2959
69852SOL    HW119486   2.753   4.326   1.076 -0.5770 -0.0884  0.6977
69852SOL    HW219487   2.756   4.189   1.139 -0.4689 -0.2658  0.3118
69853SOL     OW19488   6.803  10.849   2.714 -0.3889  0.3020  0.0757
69853SOL    HW119489   6.786  10.858   2.808  0.4091  0.5529  0.1980
69853SOL    HW219490   6.804  10.754   2.699 -0.3199  0.2589  0.3522
69854SOL     OW19491   7.778   5.441   1.019 -0.5731 -0.4611  0.1255
69854SOL    HW119492   7.738   5.354   1.029 -1.7319 -0.0198 -0.4237
69854SOL    HW219493   7.868   5.429   1.047 -1.4945 -1.1014  3.2238
69855SOL     OW19494  10.114   9.749  12.009  0.0810 -0.1734  0.4916
69855SOL    HW119495  10.203   9.743  11.973  1.0482  3.4930  1.7561
69855SOL    HW219496  10.062   9.786  11.937  0.5108  1.0776  0.7840
69856SOL     OW19497   0.202   4.780   2.946 -0.4740  0.0115 -0.2613
69856SOL    HW119498   0.241   4.810   3.028  0.3659 -1.5487 -0.0389
69856SOL    HW219499   0.145   4.707   2.972  0.1531 -0.7943 -1.0816
69857SOL     OW19500  13.093   2.040   3.163  0.2457 -0.1593  0.0827
69857SOL    HW119501  13.151   2.113   3.145  0.9487 -0.6420  0.3467
69857SOL    HW219502  13.100   2.025   3.257 -0.8138  0.1869  0.2342
69858SOL     OW19503  12.578   4.036  10.737  0.4311  0.0129  0.7152
69858SOL    HW119504  12.607   4.123  10.709  0.0954  0.1833  0.8932
69858SOL    HW219505  12.618   3.976  10.674 -0.9850  0.4490 -0.6697
69859SOL     OW19506   3.271   7.185   2.225  0.5659  0.0620  0.4184
69859SOL    HW119507   3.277   7.280   2.219 -1.4775  0.2861  1.3627
69859SOL    HW219508   3.251   7.157   2.135  0.0380  0.6417  0.3478
69860SOL     OW19509  11.443   0.270  11.198  0.3229  0.4420 -0.2674
69860SOL    HW119510  11.425   0.321  11.119  1.4877 -1.2274 -1.7116
69860SOL    HW219511  11.538   0.260  11.198  0.1902 -1.0429  0.3721
69861SOL     OW19512   7.506   8.463   8.500  0.2167  0.2656 -0.0123
69861SOL    HW119513   7.512   8.437   8.408 -0.1866  0.9650 -0.2500
69861SOL    HW219514   7.412   8.465   8.518  0.3254 -0.9165  0.7363
69862SOL     OW19515   1.133   6.649   5.005 -0.3261 -0.6302  0.0993
69862SOL    HW119516   1.051   6.620   5.047 -0.2833 -1.4818 -0.3811
69862SOL    HW219517   1.168   6.716   5.063 -0.5931 -1.3426  1.0916
69863SOL     OW19518   6.660  12.588   6.022  0.4772  0.3207  0.3709
69863SOL    HW119519   6.696  12.548   6.101  1.5272 -1.2440 -0.8391
69863SOL    HW219520   6.567  12.564   6.023  0.1552  1.4452  1.7462
69864SOL     OW19521  11.464   4.447   9.498 -0.2353  0.6470 -0.3975
69864SOL    HW119522  11.385   4.439   9.444 -0.3252  1.4903 -0.4108
69864SOL    HW219523  11.509   4.523   9.463  2.1058 -1.4475 -2.2820
69865SOL     OW19524   5.833   0.541   7.652 -0.3595  0.2522 -0.9345
69865SOL    HW119525   5.826   0.634   7.674  0.9796  0.0042  0.7796
69865SOL    HW219526   5.750   0.504   7.681  0.1278  0.4962  0.8784
69866SOL     OW19527  12.977   4.236   1.295  0.1262 -0.2567  0.1007
69866SOL    HW119528  12.946   4.246   1.385  0.9314 -0.2786  0.3905
69866SOL    HW219529  13.020   4.319   1.275 -1.4378  0.3816 -0.8500
69867SOL     OW19530  10.893   8.914   6.548  0.1825  0.4121  0.3808
69867SOL    HW119531  10.974   8.878   6.584  0.6153  0.4348 -0.5476
69867SOL    HW219532  10.910   9.007   6.539 -0.4076  0.6283  1.3712
69868SOL     OW19533   1.693   5.089   5.866  0.0218 -0.0794 -0.1282
69868SOL    HW119534   1.625   5.111   5.802  0.1392  0.2921 -0.1286
69868SOL    HW219535   1.760   5.157   5.854  0.8598 -1.0096 -0.8132
69869SOL     OW19536   0.167   8.634   8.484 -0.1888 -0.1238 -0.1954
69869SOL    HW119537   0.158   8.592   8.570 -0.5371 -0.3198 -0.3257
69869SOL    HW219538   0.108   8.709   8.488 -0.6854 -0.4884 -0.4792
69870SOL     OW19539   4.400   3.927  12.592  0.3074 -0.1435 -0.0752
69870SOL    HW119540   4.456   3.998  12.622 -0.2974 -0.1925  1.2586
69870SOL    HW219541   4.453   3.848  12.606 -0.3237 -0.2732  1.9773
69871SOL     OW19542  13.308   4.331   0.653 -0.7493 -0.1012 -0.3830
69871SOL    HW119543  13.284   4.398   0.717 -3.4310 -1.5985  0.3719
69871SOL    HW219544  13.290   4.370   0.568 -1.2799  0.4824 -0.0101
69872SOL     OW19545   0.940   7.237  12.975  0.6069 -0.6941  0.1705
69872SOL    HW119546   0.947   7.315  12.919  0.4258 -0.8040 -0.0075
69872SOL    HW219547   0.907   7.169  12.916  0.6479 -0.8730  0.3557
69873SOL     OW19548   9.769  11.247   1.865 -0.2330  0.1111  0.5989
69873SOL    HW119549   9.812  11.300   1.932 -1.0096  0.8075  0.5537
69873SOL    HW219550   9.687  11.292   1.847 -0.6089 -0.7510  0.0793
69874SOL     OW19551   2.682  13.134   3.148 -0.1626 -0.1193  0.5727
69874SOL    HW119552   2.693  13.203   3.214 -2.2159 -0.0821  0.9427
69874SOL    HW219553   2.674  13.181   3.065  1.1733 -0.0951  0.4412
69875SOL     OW19554  11.847   5.345   5.963 -0.3279  0.4257 -0.1286
69875SOL    HW119555  11.867   5.259   6.000  0.7987  0.6683 -0.1569
69875SOL    HW219556  11.754   5.357   5.982 -0.7667 -1.2176 -0.9820
69876SOL     OW19557   2.706   8.752   0.522 -0.3880 -0.2160  0.1073
69876SOL    HW119558   2.649   8.737   0.446  0.8014 -1.8875 -0.5091
69876SOL    HW219559   2.648   8.784   0.590 -1.4826  1.4944 -1.5340
69877SOL     OW19560   7.265   8.102  11.961  0.3843 -0.1356  0.1143
69877SOL    HW119561   7.353   8.133  11.982  0.4827  0.7273 -1.4183
69877SOL    HW219562   7.278   8.015  11.925  0.6805  0.1745 -0.5523
69878SOL     OW19563   6.849   9.833   3.742  0.0789 -0.3280 -0.1158
69878SOL    HW119564   6.779   9.794   3.793  0.8572  0.6792  1.8201
69878SOL    HW219565   6.926   9.782   3.763 -0.0090 -1.4752 -2.2865
69879SOL     OW19566   2.956   5.236   6.611  0.2005 -0.0213 -0.4912
69879SOL    HW119567   2.944   5.284   6.693  1.6838  0.4851 -0.5252
69879SOL    HW219568   2.898   5.280   6.549 -0.5155 -0.0461  0.1434
69880SOL     OW19569   5.865   4.327   1.824 -0.2036  0.1044 -0.1045
69880SOL    HW119570   5.794   4.379   1.789 -0.8559 -0.2611  0.6334
69880SOL    HW219571   5.944   4.377   1.805 -0.7642  1.0778  0.0744
69881SOL     OW19572   8.501   8.180   5.152 -0.4300  0.1138 -0.6353
69881SOL    HW119573   8.451   8.164   5.073  1.5117  0.2375 -1.9703
69881SOL    HW219574   8.575   8.119   5.146  1.8308  2.6674 -0.9305
69882SOL     OW19575  11.193   2.390   8.972 -0.6159  0.2041  0.0117
69882SOL    HW119576  11.151   2.417   8.890 -0.2237  1.2723  0.1431
69882SOL    HW219577  11.244   2.466   8.998  1.6170 -1.1049 -0.2596
69883SOL     OW19578   5.291   0.759   3.154 -0.1704  0.3021 -0.5304
69883SOL    HW119579   5.225   0.785   3.090  0.9416 -0.3254 -2.0083
69883SOL    HW219580   5.354   0.832   3.153  0.5212 -0.2798 -1.1692
69884SOL     OW19581   4.015   9.634   6.521  0.0363  0.0564 -0.0700
69884SOL    HW119582   4.101   9.617   6.558  0.0808 -1.4850 -0.7868
69884SOL    HW219583   4.027   9.711   6.465  0.9637 -0.1973 -0.2271
69885SOL     OW19584   6.525   3.448   4.899 -0.2806 -0.3831  0.1182
69885SOL    HW119585   6.585   3.503   4.849  0.6742  1.5280  3.0868
69885SOL    HW219586   6.450   3.504   4.917 -0.3725 -0.8328  1.2129
69886SOL     OW19587  12.114   5.657   1.422 -0.6308 -0.2666 -0.2202
69886SOL    HW119588  12.042   5.671   1.484 -0.4566  2.4221 -0.4971
69886SOL    HW219589  12.192   5.649   1.478 -0.8605 -0.9310  0.0070
69887SOL     OW19590   5.689  10.054  10.443  0.7005 -0.2180 -0.4251
69887SOL    HW119591   5.711  10.036  10.534  2.0719  1.3860 -0.3868
69887SOL    HW219592   5.641  10.137  10.446  0.3417 -0.3906 -1.1237
69888SOL     OW19593  11.321   3.016   1.968  0.4759 -0.2595 -0.0868
69888SOL    HW119594  11.320   3.015   2.064  0.5709 -1.0331 -0.0883
69888SOL    HW219595  11.236   2.982   1.942  1.2584 -2.1975 -0.2594
69889SOL     OW19596   0.461   6.929   8.160 -0.3299  0.4505  0.2238
69889SOL    HW119597   0.404   6.897   8.090 -0.1044 -0.2339  0.3514
69889SOL    HW219598   0.536   6.967   8.115  0.0703 -0.4705  0.0960
69890SOL     OW19599   4.950   0.381   8.054  0.2638 -0.0653 -0.4707
69890SOL    HW119600   4.860   0.412   8.042 -0.4302 -2.4485 -2.1720
69890SOL    HW219601   5.005   0.450   8.019 -0.7989  1.8079  1.3484
69891SOL     OW19602   0.014   0.594   1.767 -0.1632  0.1099 -0.0429
69891SOL    HW119603  -0.069   0.547   1.771  0.0773 -0.2555  1.6610
69891SOL    HW219604  -0.002   0.675   1.816  0.5477 -0.1055  0.5684
69892SOL     OW19605   5.807  12.057  12.510  0.2952  0.2411  0.0691
69892SOL    HW119606   5.853  12.017  12.437 -1.8054 -0.6109 -0.8851
69892SOL    HW219607   5.795  11.985  12.573 -1.3946 -0.0902 -0.5825
69893SOL     OW19608   3.492   6.032   0.921 -0.1657 -0.0067  0.2855
69893SOL    HW119609   3.558   6.057   0.857 -0.0322  1.2164  0.8864
69893SOL    HW219610   3.410   6.030   0.871 -0.0799  1.0533  0.0835
69894SOL     OW19611   2.901  11.487  10.209  0.7470 -0.1060  0.0132
69894SOL    HW119612   2.872  11.562  10.262  2.6751  0.0628  0.9241
69894SOL    HW219613   2.831  11.473  10.146 -0.1803  1.7317  0.5807
69895SOL     OW19614   8.129   8.985  11.925  0.0787  0.0479  0.7817
69895SOL    HW119615   8.122   8.891  11.938  1.2064 -0.1971 -0.1898
69895SOL    HW219616   8.214   8.997  11.882  0.0553  1.5280  1.0984
69896SOL     OW19617  10.781   5.837  11.790  0.0967  0.0734 -0.4253
69896SOL    HW119618  10.717   5.833  11.719 -0.5014 -1.9144  0.1571
69896SOL    HW219619  10.728   5.840  11.870  0.7240 -0.5554  0.0248
69897SOL     OW19620  11.178   6.849  12.679  0.7941  0.5930  0.1007
69897SOL    HW119621  11.236   6.782  12.642  1.2973  0.6405  0.7766
69897SOL    HW219622  11.194   6.927  12.626  0.5436  0.3068 -0.4020
69898SOL     OW19623   6.507  12.269  11.205  0.1276 -0.0302 -0.0123
69898SOL    HW119624   6.536  12.262  11.114 -1.9244  0.2122 -0.7306
69898SOL    HW219625   6.461  12.353  11.209  1.7247  0.8515  1.7558
69899SOL     OW19626   6.521   0.996  10.677 -0.4163  0.3534  0.4346
69899SOL    HW119627   6.610   0.995  10.642 -0.7401 -0.1267 -0.3968
69899SOL    HW219628   6.480   0.916  10.643 -1.3269  0.8307  0.3646
69900SOL     OW19629  10.605   9.212   2.298  0.5104 -0.1865  0.3280
69900SOL    HW119630  10.650   9.220   2.382 -0.4298 -0.2412  0.8557
69900SOL    HW219631  10.611   9.299   2.259  1.6992 -0.3745  0.0398
69901SOL     OW19632   6.082   8.749   0.415 -0.6377 -0.0652 -0.3234
69901SOL    HW119633   6.104   8.833   0.455 -0.3638 -0.6419  0.7881
69901SOL    HW219634   6.042   8.772   0.331 -0.8968  1.1856  0.1159
69902SOL     OW19635   7.889  11.741   7.899 -0.1051 -0.1990 -0.1224
69902SOL    HW119636   7.926  11.814   7.949 -1.6960 -0.2459  1.2149
69902SOL    HW219637   7.940  11.665   7.925 -0.5985 -0.1332  1.1217
69903SOL     OW19638   8.520   9.490   7.255  0.3769  0.3315  0.4336
69903SOL    HW119639   8.611   9.470   7.235  0.0460 -2.5213  1.3172
69903SOL    HW219640   8.494   9.552   7.187  2.6431  0.3506 -0.5071
69904SOL     OW19641  12.254   6.360   3.236  0.0009  0.3212 -0.2237
69904SOL    HW119642  12.159   6.351   3.239  0.1127 -0.6800  1.3386
69904SOL    HW219643  12.282   6.294   3.172 -0.3787  1.3244 -1.4908
69905SOL     OW19644   4.325   5.513  10.256 -0.1974 -0.8607  0.0566
69905SOL    HW119645   4.277   5.458  10.193  1.3933  1.1268 -3.1642
69905SOL    HW219646   4.279   5.597  10.254  0.3905 -0.5085  0.9714
69906SOL     OW19647  11.103   2.029   4.832  0.0579 -0.0769 -0.0586
69906SOL    HW119648  11.080   1.944   4.870  1.5395 -1.6482 -2.3660
69906SOL    HW219649  11.045   2.038   4.756  1.3987 -0.1300 -1.1204
69907SOL     OW19650  10.072  11.104   8.013  0.1413 -0.7704  0.1461
69907SOL    HW119651  10.147  11.070   8.063  0.7573 -1.6191 -1.2931
69907SOL    HW219652  10.002  11.041   8.030  0.5048 -1.3518 -0.4404
69908SOL     OW19653  12.603   8.699  11.063  0.3331 -0.4627 -0.2366
69908SOL    HW119654  12.645   8.629  11.112 -1.5899 -0.6442  1.2862
69908SOL    HW219655  12.595   8.771  11.126 -0.9109 -0.1864 -0.6728
69909SOL     OW19656  11.353  12.159  12.067  0.3291  0.1596  0.2987
69909SOL    HW119657  11.279  12.102  12.085 -0.3081  1.2229  1.1475
69909SOL    HW219658  11.389  12.181  12.153  0.3436  1.2995  0.0195
69910SOL     OW19659  12.134   6.209  12.848 -0.8962 -0.6659  0.0067
69910SOL    HW119660  12.074   6.173  12.913 -0.1849 -2.9289 -0.5285
69910SOL    HW219661  12.219   6.171  12.870  0.0680  1.2158 -0.2324
69911SOL     OW19662   2.296   0.145   7.235  0.9803  0.4400  0.1453
69911SOL    HW119663   2.345   0.203   7.176 -0.6373  0.1988 -1.5183
69911SOL    HW219664   2.208   0.142   7.198  0.5750 -1.7733  1.1285
69912SOL     OW19665  12.627  10.560   1.699  0.9592 -0.1802 -0.2366
69912SOL    HW119666  12.622  10.553   1.604  0.3677  1.1429 -0.3186
69912SOL    HW219667  12.545  10.522   1.731  0.6350  0.4314 -0.3278
69913SOL     OW19668   5.901   0.685   6.245 -0.3705 -0.0703 -0.0551
69913SOL    HW119669   5.882   0.602   6.288 -1.3625  0.2061  0.0640
69913SOL    HW219670   5.960   0.730   6.305  0.4880 -0.8336 -0.2974
69914SOL     OW19671  13.275   8.696  13.054  0.3925  0.3631  0.0147
69914SOL    HW119672  13.273   8.646  13.136 -0.4364  0.2258 -0.0855
69914SOL    HW219673  13.241   8.782  13.077 -1.8704 -0.3001 -0.5804
69915SOL     OW19674  12.544   4.716  11.706 -0.1500 -0.3853 -0.5662
69915SOL    HW119675  12.542   4.812  11.707 -0.9997 -0.3960  0.3273
69915SOL    HW219676  12.489   4.692  11.631 -0.7595 -0.1700 -0.2019
69916SOL     OW19677   8.597  12.241   1.372  0.0164 -0.8472 -0.4510
69916SOL    HW119678   8.553  12.198   1.299 -1.3388  0.5286 -0.4814
69916SOL    HW219679   8.579  12.334   1.360  0.8360 -0.4732  0.9487
69917SOL     OW19680   5.700   8.970   4.580 -0.6687 -0.5456 -0.3359
69917SOL    HW119681   5.664   8.902   4.637 -0.1986 -1.7004 -1.3868
69917SOL    HW219682   5.781   8.932   4.546  0.5460  1.2302  0.4131
69918SOL     OW19683   4.428   4.968  11.091 -0.0433  0.0425  0.0809
69918SOL    HW119684   4.432   5.055  11.133  2.4196  0.7067 -1.3819
69918SOL    HW219685   4.473   4.910  11.152  2.3810  0.7577 -0.9217
69919SOL     OW19686  12.146  12.730   6.844 -0.0601 -0.0891  0.6540
69919SOL    HW119687  12.069  12.679   6.819  0.4368 -0.8824  0.7420
69919SOL    HW219688  12.178  12.767   6.762  1.4125 -2.4692  0.0772
69920SOL     OW19689   4.771   9.524   9.060 -0.0188 -0.4045 -0.3301
69920SOL    HW119690   4.721   9.566   8.990  2.2743 -0.9504 -2.4163
69920SOL    HW219691   4.820   9.595   9.101 -2.0945  0.0809  1.5122
69921SOL     OW19692   1.371  10.356  12.965 -0.2954 -0.3852  0.1410
69921SOL    HW119693   1.440  10.386  12.906 -0.7551 -0.2594 -0.3401
69921SOL    HW219694   1.297  10.415  12.948 -0.1556  0.2251  1.4734
69922SOL     OW19695   2.634   6.953   3.005 -0.7643  0.5948 -0.4963
69922SOL    HW119696   2.718   6.998   2.997 -1.1977  1.4769 -0.2518
69922SOL    HW219697   2.614   6.956   3.098 -0.4252 -0.8503 -0.3550
69923SOL     OW19698  11.587   1.894   3.557  0.0787  0.0647  0.1102
69923SOL    HW119699  11.589   1.916   3.650  2.4121  2.1447 -0.3095
69923SOL    HW219700  11.660   1.832   3.546  1.3530  1.6163 -0.6192
69924SOL     OW19701   4.241   3.588   8.851 -0.0495 -0.3038 -0.0152
69924SOL    HW119702   4.252   3.560   8.760 -1.0721 -0.7636 -0.0154
69924SOL    HW219703   4.328   3.617   8.878  0.7520 -2.1214 -0.4939
69925SOL     OW19704   2.982   1.418   4.913  0.0069  0.7047  0.9336
69925SOL    HW119705   2.991   1.512   4.927 -0.9769  1.4010 -2.1967
69925SOL    HW219706   2.898   1.408   4.869 -0.0433 -1.7004  1.4255
69926SOL     OW19707   6.665   1.585   1.365  0.2328 -0.1012  0.0620
69926SOL    HW119708   6.741   1.586   1.422  0.8373  0.0410 -0.7307
69926SOL    HW219709   6.699   1.607   1.278 -0.6294 -0.5161 -0.3993
69927SOL     OW19710   1.522   8.095  10.992  0.2410 -0.4100 -0.0548
69927SOL    HW119711   1.447   8.051  11.032  1.0999 -1.0044  0.9459
69927SOL    HW219712   1.598   8.062  11.040  1.1733  0.0039 -1.1963
69928SOL     OW19713   9.172   6.791   2.492  0.7330 -0.0616 -0.2574
69928SOL    HW119714   9.101   6.750   2.443  1.3766 -1.5204 -0.0401
69928SOL    HW219715   9.218   6.717   2.533  0.8843  1.0157  1.6214
69929SOL     OW19716   4.016  11.418   6.755 -0.1220  0.0077 -0.6838
69929SOL    HW119717   4.050  11.440   6.842 -1.2096  0.7318 -0.4189
69929SOL    HW219718   4.088  11.372   6.712  0.0782 -1.3299  0.9689
69930SOL     OW19719   3.503   1.720  12.021  0.3178  0.2169  0.6932
69930SOL    HW119720   3.535   1.757  11.939  0.4672 -4.3382 -1.6262
69930SOL    HW219721   3.410   1.744  12.024  0.2826  0.3693 -0.9061
69931SOL     OW19722   1.323   3.032   5.390 -0.5236 -0.2612  0.7931
69931SOL    HW119723   1.379   3.087   5.445  1.9764 -2.5650  0.7765
69931SOL    HW219724   1.235   3.046   5.423  0.3673  1.6457  2.5569
69932SOL     OW19725   1.718   8.017   6.278  0.3483 -0.2665 -0.4693
69932SOL    HW119726   1.628   8.018   6.245  0.7815 -0.5722 -1.7383
69932SOL    HW219727   1.771   8.004   6.199  1.5689  1.0034  0.1168
69933SOL     OW19728   3.722   3.610  10.299 -0.6321  0.0886  0.0583
69933SOL    HW119729   3.809   3.609  10.339 -0.7383  0.2522  0.3019
69933SOL    HW219730   3.727   3.549  10.226  0.0251  0.9547 -0.6473
69934SOL     OW19731   8.221  12.775   2.056  0.5225 -0.1022 -0.2521
69934SOL    HW119732   8.215  12.856   2.106  0.8988 -0.8937  1.1342
69934SOL    HW219733   8.138  12.730   2.072  0.1387  0.1781 -1.3574
69935SOL     OW19734  12.160  11.836  11.464 -0.2698 -0.0259 -0.2254
69935SOL    HW119735  12.106  11.823  11.542 -0.5889 -0.9566 -0.5909
69935SOL    HW219736  12.097  11.838  11.391 -0.1391  2.2969 -0.3685
69936SOL     OW19737  10.093   3.509   0.965  0.3373 -0.1324  0.1842
69936SOL    HW119738  10.000   3.507   0.988  0.7805 -2.5181  2.2277
69936SOL    HW219739  10.130   3.578   1.018 -0.1659  0.5198 -0.2954
69937SOL     OW19740  12.437   6.295   1.063 -0.2417 -0.4571  0.0772
69937SOL    HW119741  12.454   6.368   1.004 -1.0529  0.1391  0.5519
69937SOL    HW219742  12.515   6.290   1.119 -0.1345 -0.0197 -0.0328
69938SOL     OW19743  12.484   6.539   1.388 -0.5311 -0.0900 -0.4923
69938SOL    HW119744  12.444   6.452   1.382 -1.2867  0.1636  0.5259
69938SOL    HW219745  12.494   6.554   1.482 -0.7530  1.0662 -0.6375
69939SOL     OW19746   7.335  12.705   1.962  0.2545  0.5297  0.2325
69939SOL    HW119747   7.424  12.671   1.958 -0.5484 -1.7230  0.3088
69939SOL    HW219748   7.317  12.717   2.056 -0.6825 -2.5165  0.5442
69940SOL     OW19749  11.176  12.858  12.921 -0.2771  0.1865 -0.0980
69940SOL    HW119750  11.249  12.917  12.942  0.3882 -0.2428 -1.1484
69940SOL    HW219751  11.201  12.774  12.959 -0.0437 -0.0568 -0.7822
69941SOL     OW19752   1.918   6.020  13.278  0.5936  0.2884 -0.3853
69941SOL    HW119753   1.914   6.110  13.310  0.7578  0.3714 -0.5868
69941SOL    HW219754   1.870   5.968  13.342 -0.6846  0.7083 -0.9632
69942SOL     OW19755   1.394   2.669   3.934 -1.1485  0.4876 -0.1961
69942SOL    HW119756   1.438   2.742   3.978  0.1374  0.9872 -2.1729
69942SOL    HW219757   1.303   2.698   3.925 -0.7609  1.6771 -0.5532
69943SOL     OW19758   3.848   9.016   7.048  0.1623  0.0281  0.1055
69943SOL    HW119759   3.862   9.065   6.968  0.1037  0.3000  0.2605
69943SOL    HW219760   3.796   8.940   7.022 -1.9652  1.3615  0.2684
69944SOL     OW19761   4.545   0.931   8.916 -0.3871  0.0701  0.4607
69944SOL    HW119762   4.556   1.018   8.879  2.1612 -0.4177 -0.1806
69944SOL    HW219763   4.593   0.934   8.999 -0.4176 -0.6694  0.5132
69945SOL     OW19764  11.903   1.347   2.851 -0.1761  0.0302 -0.1055
69945SOL    HW119765  11.840   1.416   2.873  1.3467  1.0643  1.2822
69945SOL    HW219766  11.951   1.381   2.776 -0.5628 -0.2900 -0.5002
69946SOL     OW19767   2.566  12.360  10.645  0.3120  0.4397  0.0999
69946SOL    HW119768   2.594  12.269  10.655  0.6696  0.5774  0.4064
69946SOL    HW219769   2.585  12.382  10.554  1.4098  0.5829  0.3398
69947SOL     OW19770  12.837   1.375   6.494 -0.5596  0.6727  0.1318
69947SOL    HW119771  12.802   1.419   6.571 -1.2047  0.8777 -0.2735
69947SOL    HW219772  12.842   1.444   6.427 -0.3973  0.4075 -0.1343
69948SOL     OW19773   0.032  12.308   4.361 -0.6674 -0.7771  0.2938
69948SOL    HW119774   0.026  12.403   4.362 -1.7287 -0.8384  0.6525
69948SOL    HW219775   0.121  12.289   4.393  0.1689  0.1204 -1.3895
69949SOL     OW19776   3.867   4.102   6.633 -0.6464 -0.1564  0.3767
69949SOL    HW119777   3.850   4.036   6.700 -4.1670  1.7424  1.5819
69949SOL    HW219778   3.789   4.158   6.633  0.0859  1.2525 -3.8557
69950SOL     OW19779   4.757   2.240   5.697  0.0705  0.0099  0.1554
69950SOL    HW119780   4.762   2.246   5.793  1.6864  1.5302  0.0356
69950SOL    HW219781   4.742   2.330   5.668  1.0083 -0.1978 -1.0559
69951SOL     OW19782  10.162   0.650   4.050  0.1847  0.2595 -0.7011
69951SOL    HW119783  10.068   0.641   4.036  0.2271 -0.5429 -0.5165
69951SOL    HW219784  10.200   0.642   3.963  0.1505 -0.4717 -0.6540
69952SOL     OW19785   4.855   8.860   3.098 -0.0904 -0.5472  0.4476
69952SOL    HW119786   4.812   8.795   3.153  0.3523 -0.3172  1.0860
69952SOL    HW219787   4.944   8.866   3.133 -0.4555  1.2525  1.1904
69953SOL     OW19788  12.099   8.320   3.727 -0.2085  0.2394  0.0009
69953SOL    HW119789  12.045   8.285   3.798  1.2565 -0.4613  0.7970
69953SOL    HW219790  12.064   8.407   3.711 -0.7091  0.3229  1.4278
69954SOL     OW19791  10.276   8.660   6.364  0.3880  0.1611 -0.3730
69954SOL    HW119792  10.273   8.702   6.278  0.4171  0.6165 -0.1545
69954SOL    HW219793  10.194   8.612   6.371  0.4443  0.0185 -0.7092
69955SOL     OW19794   5.782   2.800   6.508  0.4275 -0.0944  0.0366
69955SOL    HW119795   5.744   2.838   6.429 -0.9775 -1.2484  0.1025
69955SOL    HW219796   5.785   2.706   6.491 -0.2865 -0.4131  1.4740
69956SOL     OW19797  10.261   6.413   3.036  0.0527 -0.0191 -0.4910
69956SOL    HW119798  10.262   6.466   2.956 -0.9470 -1.3552 -1.4227
69956SOL    HW219799  10.288   6.326   3.008 -0.7974 -0.6326  0.5301
69957SOL     OW19800   2.072  12.330   0.885  0.0811 -0.1731  0.3678
69957SOL    HW119801   2.112  12.417   0.879  1.8457 -0.9495  0.2965
69957SOL    HW219802   2.042  12.323   0.976 -0.9257  0.8405  0.1327
69958SOL     OW19803  12.417  12.100   1.727 -0.7553  0.3751 -0.1515
69958SOL    HW119804  12.418  12.015   1.770 -2.2033  0.6037  0.4048
69958SOL    HW219805  12.357  12.153   1.780  0.4533  1.8934 -0.2108
69959SOL     OW19806   3.016   6.832   1.982  0.2857  0.1337  0.1405
69959SOL    HW119807   3.030   6.872   1.896  1.0150  0.6001  0.4669
69959SOL    HW219808   3.087   6.866   2.037 -1.0644  1.0965  1.3723
69960SOL     OW19809   0.079   3.868   3.171  0.1763  0.4891 -0.3540
69960SOL    HW119810   0.123   3.949   3.145 -1.9198  2.1894  1.0508
69960SOL    HW219811   0.004   3.861   3.113 -0.7216  0.6331  0.7410
69961SOL     OW19812   4.940   6.641   3.692 -0.5618 -0.4762 -0.4876
69961SOL    HW119813   5.003   6.616   3.760  2.2274 -0.1041 -2.7538
69961SOL    HW219814   4.883   6.564   3.682 -0.4114 -0.8981  1.5064
69962SOL     OW19815  10.449   7.188   4.958  0.0683  0.7079 -0.1196
69962SOL    HW119816  10.518   7.253   4.950 -0.2838  1.4581  2.0903
69962SOL    HW219817  10.370   7.234   4.929  0.3850 -0.0793 -2.4303
69963SOL     OW19818   9.033   8.264   0.375  0.2395  0.2595 -0.2968
69963SOL    HW119819   8.999   8.178   0.397  1.4345  0.1466  1.2815
69963SOL    HW219820   8.956   8.321   0.372 -0.5403 -0.8175 -1.2081
69964SOL     OW19821  10.343   0.546   1.454  0.4081  0.1702 -0.0452
69964SOL    HW119822  10.350   0.582   1.366  1.0681 -0.0660 -0.0902
69964SOL    HW219823  10.281   0.473   1.446  0.8265 -0.1439 -0.3987
69965SOL     OW19824   5.122  11.959   2.486 -0.1980  0.2059  0.1144
69965SOL    HW119825   5.144  12.001   2.403 -0.3771 -1.8878 -1.0618
69965SOL    HW219826   5.028  11.973   2.496 -0.2858 -0.0290 -0.3485
69966SOL     OW19827   4.242   9.435   0.780 -0.1461 -0.0870  0.0367
69966SOL    HW119828   4.197   9.419   0.863  1.2779 -2.0102  0.5218
69966SOL    HW219829   4.220   9.358   0.727 -0.1082  0.5742 -0.9663
69967SOL     OW19830   9.308   8.326   2.710  0.1108  0.2873  0.4771
69967SOL    HW119831   9.366   8.343   2.636  1.9526 -1.0251  1.5168
69967SOL    HW219832   9.222   8.355   2.681  0.6559 -0.6177 -2.3609
69968SOL     OW19833  11.539  11.891  12.097 -0.1072 -0.7831 -0.3667
69968SOL    HW119834  11.499  11.942  12.167  1.8935 -1.0524  1.0749
69968SOL    HW219835  11.527  11.944  12.018  1.7237  1.9612  1.0249
69969SOL     OW19836   9.188   5.417   3.041  0.3829 -0.3814  0.5114
69969SOL    HW119837   9.192   5.322   3.048 -1.5548 -0.4424  2.0260
69969SOL    HW219838   9.276   5.444   3.017  1.9789 -2.3324  3.5806
69970SOL     OW19839   6.539  12.603   3.942  0.1487  0.2723  0.1625
69970SOL    HW119840   6.553  12.661   3.867 -0.1064  2.1707  1.5078
69970SOL    HW219841   6.465  12.548   3.917  0.1631  0.7645 -1.0202
69971SOL     OW19842   5.819   3.737   1.869 -0.7008  0.2464 -0.0948
69971SOL    HW119843   5.843   3.736   1.962 -1.4903  1.2110  0.1369
69971SOL    HW219844   5.885   3.683   1.827  0.1029  0.3986  0.9261
69972SOL     OW19845   9.413   6.795  10.332 -0.1833 -0.4823 -0.0382
69972SOL    HW119846   9.451   6.709  10.315 -0.6670 -0.7949  0.4717
69972SOL    HW219847   9.457   6.853  10.269  0.4468 -1.0166 -0.0992
69973SOL     OW19848   0.500   8.245   1.715 -0.3494 -0.0236 -0.0275
69973SOL    HW119849   0.459   8.318   1.760 -0.5950 -0.4204  0.3931
69973SOL    HW219850   0.540   8.285   1.637 -1.2333  0.4160 -0.2672
69974SOL     OW19851  12.272  12.712  10.950 -0.5592  0.3317  0.0167
69974SOL    HW119852  12.303  12.622  10.939  0.7492  0.6291  1.0116
69974SOL    HW219853  12.178  12.703  10.962 -0.1778 -1.2251  2.7761
69975SOL     OW19854  12.985   3.799   8.895 -0.3331 -0.0185  0.2618
69975SOL    HW119855  12.932   3.728   8.933 -0.3269 -1.4391 -2.1636
69975SOL    HW219856  13.074   3.778   8.921 -0.4654 -0.2732  0.5188
69976SOL     OW19857  12.671   6.877   1.295  0.3247 -0.0832 -0.2156
69976SOL    HW119858  12.592   6.920   1.326  1.1819  1.5392 -0.1243
69976SOL    HW219859  12.653   6.855   1.204  0.0464  1.0199 -0.4381
69977SOL     OW19860   7.989   8.358   5.860 -0.4039  0.7163 -0.2917
69977SOL    HW119861   7.939   8.312   5.928 -0.9563  1.7949  0.0643
69977SOL    HW219862   7.948   8.445   5.856  0.4650  1.0985 -1.0907
69978SOL     OW19863  13.170   4.195   9.065  0.3804 -0.3432  0.3026
69978SOL    HW119864  13.226   4.122   9.038  1.9706  1.1756 -0.7066
69978SOL    HW219865  13.112   4.210   8.990  0.0698 -0.5508  0.5004
69979SOL     OW19866  11.711   1.234   0.938  0.0237 -0.4399  0.1301
69979SOL    HW119867  11.747   1.181   1.009 -0.0633 -0.2030  0.3528
69979SOL    HW219868  11.741   1.323   0.958 -0.4061 -0.2971  0.1348
69980SOL     OW19869   5.382  12.418   8.044 -0.0907  0.0574  0.3015
69980SOL    HW119870   5.290  12.409   8.070  0.1574 -0.4682  1.0145
69980SOL    HW219871   5.429  12.358   8.102  0.8526  1.1860  0.7274
69981SOL     OW19872   8.378   3.667   0.582 -0.3291  0.2581  0.2452
69981SOL    HW119873   8.366   3.584   0.627  0.5714  0.4913  0.9470
69981SOL    HW219874   8.473   3.676   0.575 -0.4349  0.4748 -1.2506
69982SOL     OW19875   1.245   2.760   7.569  0.1752 -0.0012  0.2269
69982SOL    HW119876   1.298   2.720   7.500  0.7067 -0.6300  0.9808
69982SOL    HW219877   1.167   2.792   7.524  1.8366  2.3303 -1.1940
69983SOL     OW19878   5.890   6.494   6.627 -0.0269  0.0525  0.1394
69983SOL    HW119879   5.919   6.416   6.674 -2.4954 -1.6683 -0.9461
69983SOL    HW219880   5.903   6.472   6.535 -1.9224  0.3681 -0.2417
69984SOL     OW19881   9.191   8.561   1.411 -0.4148 -0.1614  0.0807
69984SOL    HW119882   9.232   8.502   1.348  0.6313 -0.1247  0.7021
69984SOL    HW219883   9.257   8.628   1.427 -0.8240  0.0540  0.9033
69985SOL     OW19884   2.026   1.574   9.874 -0.2330 -0.2861 -0.6818
69985SOL    HW119885   2.003   1.609   9.787  0.4708 -1.4334 -1.3602
69985SOL    HW219886   2.006   1.481   9.868  1.3015 -0.6824 -0.1505
69986SOL     OW19887   8.461   8.206   9.232  0.5043 -0.2395 -0.1844
69986SOL    HW119888   8.526   8.269   9.261  0.0974  0.3206 -0.4757
69986SOL    HW219889   8.453   8.144   9.305 -0.0625  0.7956  0.6450
69987SOL     OW19890   8.867  11.674  11.176 -0.2308 -0.5644  0.0057
69987SOL    HW119891   8.906  11.725  11.104  0.3483 -2.0291 -0.7650
69987SOL    HW219892   8.915  11.591  11.175 -0.5240 -0.7887  1.8227
69988SOL     OW19893  12.387   5.559   9.097 -0.4475  0.2052  0.4151
69988SOL    HW119894  12.379   5.623   9.168  1.2356  0.9390 -0.0065
69988SOL    HW219895  12.304   5.566   9.048 -0.4381  1.8166  0.5921
69989SOL     OW19896   8.664  11.849   8.957 -0.3346 -0.0600 -0.3586
69989SOL    HW119897   8.613  11.902   9.018 -1.0268 -0.6204 -0.4336
69989SOL    HW219898   8.681  11.907   8.883 -0.0881  0.4090  0.0631
69990SOL     OW19899   9.978  13.158   6.684  0.5934  0.6846 -0.3206
69990SOL    HW119900  10.067  13.138   6.713  0.7111  0.8445 -0.5720
69990SOL    HW219901   9.978  13.140   6.590 -0.0098 -0.5955 -0.1025
69991SOL     OW19902  10.848  10.769   5.721 -0.6068  0.8200  0.0992
69991SOL    HW119903  10.894  10.764   5.637 -2.1875  1.6311 -0.8563
69991SOL    HW219904  10.862  10.859   5.750 -1.4508  1.0277 -0.1256
69992SOL     OW19905   6.210  10.928   3.252 -0.6605 -0.0674  0.0579
69992SOL    HW119906   6.296  10.966   3.270 -1.6436  2.4239 -0.2520
69992SOL    HW219907   6.162  10.936   3.334 -1.5511  1.3053 -0.5646
69993SOL     OW19908   9.168  10.461   6.009 -0.1252 -0.3484  0.1214
69993SOL    HW119909   9.112  10.506   6.072  0.3416 -0.6390  0.7504
69993SOL    HW219910   9.179  10.373   6.045  0.8279 -0.2655  0.0620
69994SOL     OW19911   0.383   3.712   5.437  0.2883 -0.3936  0.1725
69994SOL    HW119912   0.419   3.741   5.521 -0.4683  1.3724 -0.0848
69994SOL    HW219913   0.356   3.792   5.393  0.2917 -1.3192 -1.6071
69995SOL     OW19914  11.365   7.314  10.068 -0.2677 -0.5964  0.1064
69995SOL    HW119915  11.298   7.335  10.003 -0.3908 -0.0951  0.3884
69995SOL    HW219916  11.443   7.293  10.016  0.5143  2.6419 -0.2495
69996SOL     OW19917   9.481  11.600  10.098  0.3457 -0.7832 -0.2270
69996SOL    HW119918   9.400  11.648  10.115 -0.3030 -2.1991  0.9887
69996SOL    HW219919   9.542  11.666  10.065 -0.6222  0.7750  0.9483
69997SOL     OW19920   9.370  11.679   5.181  0.3604 -0.0414 -0.2294
69997SOL    HW119921   9.392  11.595   5.142 -0.4835 -0.1274 -0.5372
69997SOL    HW219922   9.359  11.739   5.107 -1.3037 -0.2214 -0.1749
69998SOL     OW19923  12.570   8.467   2.713  0.3048  0.1985 -0.1237
69998SOL    HW119924  12.610   8.380   2.711 -1.7950 -0.8185 -0.2633
69998SOL    HW219925  12.630   8.521   2.661  1.9917 -0.9808  0.4958
69999SOL     OW19926   1.618  11.789   2.912  0.5113  0.0373  0.2855
69999SOL    HW119927   1.664  11.765   2.831  0.1700 -1.3122  0.4698
69999SOL    HW219928   1.664  11.867   2.944  1.1663  0.1037 -0.7679
70000SOL     OW19929   4.159   7.712   9.824 -0.1607  0.5044 -0.4612
70000SOL    HW119930   4.079   7.698   9.875 -1.3168  0.4302 -2.1815
70000SOL    HW219931   4.129   7.761   9.747  1.3257 -0.1556 -1.5025
70001SOL     OW19932   6.519   4.119   7.888  0.1292  0.1217  0.4096
70001SOL    HW119933   6.598   4.171   7.871 -0.4129  0.3241 -1.8146
70001SOL    HW219934   6.455   4.182   7.920  0.3208  0.2956  0.4541
70002SOL     OW19935   3.886   1.035   4.945  0.2805 -0.1752  0.3824
70002SOL    HW119936   3.799   1.030   4.906 -0.2170  0.5074  1.3662
70002SOL    HW219937   3.891   1.124   4.981  1.7046  0.0880 -0.3864
70003SOL     OW19938   6.833   3.399  10.327  0.5807  0.9770  0.3299
70003SOL    HW119939   6.791   3.314  10.331  0.1989  1.1547  0.0630
70003SOL    HW219940   6.778   3.452  10.270  1.2677  1.1525 -0.1916
70004SOL     OW19941   5.777   6.897   5.149 -0.4680 -0.3743 -0.2305
70004SOL    HW119942   5.761   6.808   5.116  0.0003 -0.5417 -0.0223
70004SOL    HW219943   5.862   6.891   5.192 -0.9316 -0.0981  0.7600
70005SOL     OW19944   5.658  10.763   3.307 -0.3604 -0.4111  0.2015
70005SOL    HW119945   5.623  10.775   3.218 -0.5518 -0.2670  0.2977
70005SOL    HW219946   5.684  10.850   3.335 -1.4170 -0.2662  0.7557
70006SOL     OW19947   2.242   6.530  10.198  0.0406 -0.0499 -0.5882
70006SOL    HW119948   2.294   6.452  10.178  0.7958  0.1546  0.4811
70006SOL    HW219949   2.213   6.517  10.289  0.9632  1.3367 -0.0643
70007SOL     OW19950   1.533   6.983   7.082 -0.5779  0.1779  0.6021
70007SOL    HW119951   1.575   7.007   6.999  0.1241 -0.2107  0.8344
70007SOL    HW219952   1.476   7.057   7.102  0.0788  0.7703  0.3225
70008SOL     OW19953   6.819   8.530   3.897 -0.1100  0.0710 -0.5421
70008SOL    HW119954   6.882   8.587   3.941 -0.3683  0.3547 -0.5409
70008SOL    HW219955   6.736   8.548   3.941 -0.3276  0.1932 -0.9997
70009SOL     OW19956  11.150   1.265   8.110 -0.2484  0.1243 -0.6747
70009SOL    HW119957  11.150   1.171   8.091 -0.7775  0.0100 -0.1400
70009SOL    HW219958  11.194   1.272   8.194 -0.2912  0.3503 -0.6720
70010SOL     OW19959   6.704   8.225   6.695 -0.1230  0.4897 -0.0086
70010SOL    HW119960   6.677   8.240   6.605 -2.0067  0.1849  0.4569
70010SOL    HW219961   6.783   8.278   6.706 -0.3590  1.2106 -1.5797
70011SOL     OW19962   8.767   6.484   7.935  0.4928 -0.0198 -0.5586
70011SOL    HW119963   8.846   6.479   7.988 -0.3581 -1.7679  0.6257
70011SOL    HW219964   8.794   6.451   7.849  1.0168 -0.7576 -0.1197
70012SOL     OW19965   0.609   3.654   1.261 -0.2036 -0.1828 -0.1339
70012SOL    HW119966   0.669   3.627   1.331  0.1996 -1.3104 -0.8835
70012SOL    HW219967   0.522   3.640   1.299 -0.1715  3.5827  1.7881
70013SOL     OW19968   9.863   5.095   1.336 -0.4082  0.2162 -0.7485
70013SOL    HW119969   9.956   5.115   1.327 -0.1153 -1.2364 -1.2456
70013SOL    HW219970   9.828   5.104   1.247 -0.9466  1.6031 -0.4185
70014SOL     OW19971   9.120   7.757  12.675  0.2173  0.3148  0.2272
70014SOL    HW119972   9.083   7.780  12.589 -0.8310  0.9556  0.8244
70014SOL    HW219973   9.188   7.822  12.691  0.5484  0.0780 -0.1927
70015SOL     OW19974   4.291   9.822  12.250  0.1954 -0.5281  0.4614
70015SOL    HW119975   4.287   9.897  12.191  0.8051 -0.6453  0.2603
70015SOL    HW219976   4.222   9.837  12.314  0.8600  0.6346  0.9217
70016SOL     OW19977   4.665   4.931   3.716 -0.0718  0.5962  0.1911
70016SOL    HW119978   4.627   4.889   3.794  0.0128  0.4787  0.1682
70016SOL    HW219979   4.734   4.988   3.751 -0.4248  0.9919  0.2544
70017SOL     OW19980   9.520   3.226   0.497  0.0985  0.0856 -0.1507
70017SOL    HW119981   9.469   3.236   0.417 -0.2311 -3.0703 -0.4713
70017SOL    HW219982   9.466   3.266   0.566 -0.2218  1.6449 -1.2582
70018SOL     OW19983   4.546   0.114  11.187  0.8873 -0.3068  1.2756
70018SOL    HW119984   4.500   0.112  11.104  3.0985  0.2151 -0.0566
70018SOL    HW219985   4.479   0.095  11.253 -0.8707 -1.0197 -0.6235
70019SOL     OW19986  11.739   7.193  10.174 -0.4854  0.1933  0.0410
70019SOL    HW119987  11.830   7.212  10.197 -0.1979  0.7606 -1.4906
70019SOL    HW219988  11.688   7.250  10.231  0.0946 -0.2513  1.0350
70020SOL     OW19989  10.235  11.430   5.785 -0.2370 -1.0202  0.7315
70020SOL    HW119990  10.310  11.475   5.823 -0.4430 -0.9776  1.0923
70020SOL    HW219991  10.168  11.434   5.852 -0.8304 -0.3775  0.1174
70021SOL     OW19992  11.926   1.696   6.803  0.0130  0.4424 -0.0783
70021SOL    HW119993  11.877   1.621   6.770  0.5800  0.2549 -0.5154
70021SOL    HW219994  11.863   1.746   6.855 -0.5465  0.0314 -0.3592
70022SOL     OW19995   5.173   9.225   9.550 -0.3639  0.2052  0.0194
70022SOL    HW119996   5.099   9.277   9.521  0.2218  1.2353  0.3339
70022SOL    HW219997   5.206   9.270   9.627 -0.3777 -1.1251  0.8485
70023SOL     OW19998   7.548  10.172   7.173  0.1770 -0.3798  0.6193
70023SOL    HW119999   7.546  10.221   7.256  1.6421 -0.0010  0.4595
70023SOL    HW220000   7.493  10.224   7.114  0.8365  0.5077  0.7624
70024SOL     OW20001   9.989   0.851   0.273 -0.1016 -0.4082 -0.4392
70024SOL    HW120002   9.918   0.914   0.264  0.0991  0.1481  1.3562
70024SOL    HW220003   9.954   0.784   0.332  0.6512 -0.4224  0.0080
70025SOL     OW20004   5.930   7.869   2.484  0.5085 -0.6188  0.1456
70025SOL    HW120005   5.994   7.939   2.494  0.0316 -0.0435 -0.7381
70025SOL    HW220006   5.926   7.827   2.570  0.7761  0.4602  0.6936
70026SOL     OW20007  11.079  11.115   8.250  0.1110  0.7382  0.2139
70026SOL    HW120008  11.173  11.094   8.256 -0.1265 -0.4595 -0.0577
70026SOL    HW220009  11.053  11.081   8.165 -0.8866 -0.2666  0.8969
70027SOL     OW20010   8.302   9.670   1.837 -0.0467 -0.3407 -0.0016
70027SOL    HW120011   8.310   9.759   1.802 -0.0932 -0.4515 -0.2952
70027SOL    HW220012   8.232   9.630   1.785  0.1046 -0.6100  0.0026
70028SOL     OW20013   6.440   1.464  11.886 -0.2376 -0.3040 -0.2892
70028SOL    HW120014   6.478   1.531  11.829 -0.1676 -1.3744 -1.5444
70028SOL    HW220015   6.345   1.473  11.874 -0.2585  0.0352  0.1055
70029SOL     OW20016   7.079   7.208   2.258  0.2353 -0.5509  0.4750
70029SOL    HW120017   7.116   7.137   2.205 -0.0930  0.2612 -0.8704
70029SOL    HW220018   7.080   7.173   2.347  2.2687 -1.3670  0.2020
70030SOL     OW20019   1.679   1.276   8.107 -0.2465 -0.0518 -0.1228
70030SOL    HW120020   1.664   1.343   8.174 -2.6132 -1.4770  0.9101
70030SOL    HW220021   1.697   1.326   8.027 -0.0788  1.7513  0.9715
70031SOL     OW20022   5.016   0.004  11.157 -0.3240  0.1885  0.1622
70031SOL    HW120023   4.959  -0.066  11.123  0.0443 -0.0065 -0.0647
70031SOL    HW220024   4.996   0.080  11.103  0.3992 -0.1717 -0.6367
70032SOL     OW20025  12.307   6.335   9.036 -0.5483  0.1445 -0.9735
70032SOL    HW120026  12.350   6.361   8.955 -0.2126  3.5883  0.1361
70032SOL    HW220027  12.378   6.321   9.098 -0.8680 -0.0751 -0.6525
70033SOL     OW20028   6.376  11.736   3.532  0.1179 -0.4719 -0.1743
70033SOL    HW120029   6.391  11.829   3.517  2.4921 -1.0870 -2.4323
70033SOL    HW220030   6.432  11.713   3.605 -0.0311 -0.2491  0.0104
70034SOL     OW20031  10.627   5.646   5.538  0.1440 -0.2053  0.0590
70034SOL    HW120032  10.707   5.639   5.486  0.4650 -2.0169  0.7283
70034SOL    HW220033  10.581   5.563   5.524 -0.0106 -0.5551  2.1943
70035SOL     OW20034   8.742   8.878   6.394 -0.3764  0.3296 -0.1150
70035SOL    HW120035   8.831   8.844   6.407 -0.0887  0.8832 -0.5712
70035SOL    HW220036   8.691   8.842   6.467  0.5504  1.1635  0.9690
70036SOL     OW20037  11.947  13.083   4.575  0.1666 -0.7639 -0.3693
70036SOL    HW120038  11.873  13.125   4.530 -0.5451 -1.1319  0.4420
70036SOL    HW220039  11.908  13.011   4.624  0.6506  0.5732  2.1506
70037SOL     OW20040   4.858   7.301   5.537 -0.2411  0.2724  0.1082
70037SOL    HW120041   4.923   7.311   5.607 -0.8002  0.9659  0.5338
70037SOL    HW220042   4.774   7.306   5.581 -0.6967 -3.7362  0.0493
70038SOL     OW20043  11.357   8.001   9.342 -0.2007 -0.0240 -0.3905
70038SOL    HW120044  11.271   7.972   9.370 -0.1124  0.5074  0.4381
70038SOL    HW220045  11.357   8.096   9.354 -0.1071  0.2234 -2.0622
70039SOL     OW20046  11.897  10.881   9.521 -0.1073  0.6098  0.6637
70039SOL    HW120047  11.872  10.973   9.530  0.2148  0.8051 -0.2548
70039SOL    HW220048  11.983  10.875   9.561  0.2036  0.8876  0.0537
70040SOL     OW20049  11.929   8.359   2.044  0.1011  0.1661 -0.5959
70040SOL    HW120050  11.975   8.293   1.991  0.9342  0.8911 -0.7958
70040SOL    HW220051  11.973   8.441   2.023  1.7913  0.2531  2.6645
70041SOL     OW20052   2.016   4.011  13.114  0.4658 -0.0805 -0.1822
70041SOL    HW120053   2.000   4.103  13.095 -1.1341  0.5841  3.4954
70041SOL    HW220054   1.993   3.965  13.033  3.2709  2.7074 -2.8689
70042SOL     OW20055   6.578   9.441   6.250  0.0518 -0.0893 -0.0821
70042SOL    HW120056   6.637   9.506   6.289  0.2213  0.5769 -1.3887
70042SOL    HW220057   6.636   9.368   6.226  0.4075  0.6157 -1.4784
70043SOL     OW20058   0.757   4.697   9.680  0.0709  0.3130 -0.3137
70043SOL    HW120059   0.756   4.662   9.591  0.3745  1.2538 -0.6971
70043SOL    HW220060   0.824   4.646   9.726  0.7971  0.6604 -0.9771
70044SOL     OW20061  13.157  11.874   7.678  0.0661  0.0379 -0.7196
70044SOL    HW120062  13.124  11.814   7.612 -0.5079  0.1372 -0.5238
70044SOL    HW220063  13.168  11.957   7.632 -2.2319  0.6648 -0.2720
70045SOL     OW20064   7.450   8.900   7.748  0.0193 -0.1356  0.2909
70045SOL    HW120065   7.364   8.940   7.751  0.0080  0.0106 -1.1719
70045SOL    HW220066   7.445   8.826   7.809 -1.3267 -0.4801 -0.2012
70046SOL     OW20067   9.450   0.879   3.243 -0.2268  0.4182 -0.5225
70046SOL    HW120068   9.506   0.830   3.183  0.1381  0.9791 -0.6487
70046SOL    HW220069   9.485   0.859   3.330 -0.2934  0.1854 -0.5498
70047SOL     OW20070   0.050  12.673   0.116  0.2095  0.4966 -0.0547
70047SOL    HW120071   0.131  12.623   0.108  1.3237  2.3533 -1.2535
70047SOL    HW220072   0.061  12.746   0.054 -2.3065  0.9127 -0.1136
70048SOL     OW20073   9.042   8.868   1.524 -0.5001 -0.3832 -0.0606
70048SOL    HW120074   9.098   8.918   1.464 -1.5266  1.0575  0.1362
70048SOL    HW220075   8.953   8.881   1.490 -0.8236 -1.9424  0.1158
70049SOL     OW20076   3.557   4.134   5.034  0.7545  0.0693 -0.7653
70049SOL    HW120077   3.473   4.093   5.056  0.1694 -0.4650 -3.5410
70049SOL    HW220078   3.532   4.220   4.999  1.5903  0.8402  0.4741
70050SOL     OW20079   1.397   3.250   2.082 -0.0367 -0.1287  0.3238
70050SOL    HW120080   1.333   3.322   2.080 -0.4161 -0.4831 -0.4443
70050SOL    HW220081   1.367   3.190   2.014 -0.0545 -1.3089  1.3457
70051SOL     OW20082   3.593   7.139   3.075 -0.0181 -0.5728  0.1215
70051SOL    HW120083   3.565   7.207   3.137 -1.9181 -1.2071  0.0228
70051SOL    HW220084   3.605   7.061   3.129 -0.1061 -0.7370 -0.0985
70052SOL     OW20085   1.005   3.446   2.509 -0.8663  0.2632 -0.0591
70052SOL    HW120086   1.008   3.356   2.476 -0.1898 -0.0679  0.8665
70052SOL    HW220087   1.082   3.488   2.470  0.9505 -0.6105  2.3371
70053SOL     OW20088   9.987   2.910   8.819 -0.7937 -0.1244  0.3155
70053SOL    HW120089  10.006   2.820   8.847  1.7389  0.1283 -0.3635
70053SOL    HW220090  10.064   2.960   8.844 -0.1686  0.9680 -3.2029
70054SOL     OW20091   1.435   6.163   5.229 -0.4546 -0.1632  0.5253
70054SOL    HW120092   1.460   6.236   5.286 -0.5079  0.4616 -0.2259
70054SOL    HW220093   1.382   6.106   5.285  0.4491 -0.1627  1.4085
70055SOL     OW20094   6.478  12.735  12.379 -0.1193 -0.2549 -0.0892
70055SOL    HW120095   6.395  12.717  12.423 -0.5747 -1.0906 -1.2324
70055SOL    HW220096   6.516  12.809  12.427 -0.3790 -1.3836  1.9455
70056SOL     OW20097   1.411   1.781  12.872 -0.0311  0.0748  0.4009
70056SOL    HW120098   1.366   1.697  12.874  0.3819 -0.2449 -1.6015
70056SOL    HW220099   1.360   1.837  12.929 -1.3135 -1.0530  0.4139
70057SOL     OW20100   2.012   8.058   8.523  0.5153 -0.2558 -0.4005
70057SOL    HW120101   2.072   8.070   8.597  0.1807 -0.2097 -0.1300
70057SOL    HW220102   1.925   8.066   8.562  0.3394  0.1605 -0.8738
70058SOL     OW20103   8.109   8.786  10.850 -0.2776  0.0248  0.3539
70058SOL    HW120104   8.056   8.798  10.771 -0.9535  0.2113  0.8217
70058SOL    HW220105   8.130   8.693  10.851 -0.4823 -0.0265  0.0867
70059SOL     OW20106   5.623   7.408   6.840 -0.3984 -0.3686  0.0021
70059SOL    HW120107   5.690   7.371   6.782 -0.5233  0.1083 -0.4582
70059SOL    HW220108   5.659   7.399   6.928 -0.3854 -1.4959 -0.0959
70060SOL     OW20109  12.123  13.297   0.775 -0.4362  0.0481  0.1305
70060SOL    HW120110  12.183  13.272   0.704 -0.7902  1.6595 -0.7659
70060SOL    HW220111  12.043  13.323   0.731 -0.9972  0.1633  1.1951
70061SOL     OW20112   2.512   9.384   2.872 -0.1864 -0.1011  0.5084
70061SOL    HW120113   2.482   9.345   2.954  0.4909  0.2136  0.9107
70061SOL    HW220114   2.550   9.310   2.824 -0.4985 -0.2670  0.5074
70062SOL     OW20115   5.138  10.302   0.413  0.1075  0.5431 -0.3246
70062SOL    HW120116   5.170  10.290   0.502 -0.6475  1.4701  0.0951
70062SOL    HW220117   5.191  10.243   0.360  1.4082  0.8861  0.5550
70063SOL     OW20118  10.465  11.413   0.193  0.1313 -0.4672 -0.3460
70063SOL    HW120119  10.501  11.427   0.105 -0.9590 -0.3956 -0.7996
70063SOL    HW220120  10.538  11.432   0.252  0.6141  0.4518 -1.1996
70064SOL     OW20121   3.576   8.548   6.016 -0.4150 -0.8562 -0.3959
70064SOL    HW120122   3.632   8.475   6.041  2.3315  2.1250  3.3447
70064SOL    HW220123   3.503   8.546   6.078  0.3646  0.2323  0.5861
70065SOL     OW20124  12.978   3.611   3.834 -0.0209  0.0074 -0.0750
70065SOL    HW120125  12.919   3.680   3.803  1.2089  0.8301 -0.6462
70065SOL    HW220126  12.938   3.581   3.915 -1.5069  0.1636 -0.7037
70066SOL     OW20127   6.084   2.164   4.761  0.2380  0.4126 -0.2795
70066SOL    HW120128   6.061   2.074   4.782 -0.5881  0.0830 -2.3842
70066SOL    HW220129   6.002   2.204   4.731  0.3437  2.2158  1.5876
70067SOL     OW20130  13.269   7.257   9.481  0.0731  0.1087 -0.9747
70067SOL    HW120131  13.317   7.301   9.551  0.1490  0.2925 -1.1416
70067SOL    HW220132  13.234   7.328   9.428 -0.0732 -0.0298 -1.0636
70068SOL     OW20133  11.412   9.810   1.766  0.4495  0.3925  0.2502
70068SOL    HW120134  11.399   9.875   1.835 -0.3711  2.1525 -1.4700
70068SOL    HW220135  11.490   9.762   1.794  2.2075  3.2870  0.8127
70069SOL     OW20136   1.263   5.140   4.576 -0.0080 -0.2654  0.5041
70069SOL    HW120137   1.200   5.068   4.583  0.1026 -0.5177 -0.8587
70069SOL    HW220138   1.303   5.128   4.490  2.9694 -0.9994  1.8499
70070SOL     OW20139  12.393  12.171   2.646  0.1721  0.4792 -0.2869
70070SOL    HW120140  12.431  12.127   2.721 -1.4901  1.9532  1.5358
70070SOL    HW220141  12.460  12.165   2.578  1.1875 -2.0990  0.8130
70071SOL     OW20142   7.590   4.954  12.564 -1.0502 -0.2096 -0.5164
70071SOL    HW120143   7.504   4.982  12.595 -0.3619  0.9930  0.3609
70071SOL    HW220144   7.648   5.028  12.581  0.4001 -1.3871 -0.0779
70072SOL     OW20145   6.490   9.982   1.638  0.1466  0.8505  0.0515
70072SOL    HW120146   6.462   9.949   1.552 -1.5377  1.7086  0.2237
70072SOL    HW220147   6.508   9.903   1.689  0.1609  0.3003 -0.7804
70073SOL     OW20148   6.376   7.851   8.783  0.3179  0.1248  0.6999
70073SOL    HW120149   6.437   7.891   8.720  0.1625  1.4002  1.3259
70073SOL    HW220150   6.296   7.836   8.733  0.2302  1.0289  0.5604
70074SOL     OW20151   2.671   8.262   2.515 -0.0626 -0.1369 -0.1209
70074SOL    HW120152   2.587   8.216   2.513  0.5510 -1.5226  2.2273
70074SOL    HW220153   2.664   8.320   2.591  1.4656 -1.0539  0.7511
70075SOL     OW20154  11.673   8.864   7.830  0.3611 -0.0721 -0.4784
70075SOL    HW120155  11.697   8.772   7.832  1.2744  0.1692  0.3203
70075SOL    HW220156  11.744   8.906   7.781  1.0533  0.4862  0.9408
70076SOL     OW20157   0.975   3.132   8.178  0.2739  0.4520  0.1029
70076SOL    HW120158   1.033   3.058   8.158 -1.2393 -0.4404 -1.1670
70076SOL    HW220159   0.892   3.092   8.202 -1.1448  1.6891 -2.3756
70077SOL     OW20160   5.527   8.465   3.883 -0.1239  0.4902 -0.0528
70077SOL    HW120161   5.472   8.538   3.854 -2.5837 -1.3957 -0.4770
70077SOL    HW220162   5.485   8.433   3.962  0.3399 -1.0615 -0.4065
70078SOL     OW20163   8.526   1.696  12.206  0.5589  0.4695 -0.3983
70078SOL    HW120164   8.581   1.679  12.282 -0.3827  0.2917  0.2572
70078SOL    HW220165   8.506   1.610  12.171  0.9220  0.5470 -0.8040
70079SOL     OW20166   2.296   9.903   5.089 -0.4977  0.8532 -0.0243
70079SOL    HW120167   2.328   9.936   5.005 -3.4986 -0.8977 -2.0808
70079SOL    HW220168   2.339   9.818   5.099 -0.2697  0.9850  0.1158
70080SOL     OW20169   0.225   9.241  13.089  0.0589 -0.1385 -0.1582
70080SOL    HW120170   0.140   9.204  13.063  0.4687  0.0024 -1.8073
70080SOL    HW220171   0.258   9.284  13.010  1.8395 -0.4825  0.3511
70081SOL     OW20172   6.596   8.277   5.193  0.1093 -0.3444  0.0852
70081SOL    HW120173   6.545   8.199   5.210  0.9708 -0.6063  1.6075
70081SOL    HW220174   6.677   8.265   5.244  1.5365  0.2223 -1.9100
70082SOL     OW20175   0.184   1.139  12.609 -0.0806  0.2064  0.5069
70082SOL    HW120176   0.157   1.106  12.695 -0.5921  1.9144  1.0415
70082SOL    HW220177   0.175   1.234  12.616 -3.9188  0.3498 -2.5935
70083SOL     OW20178  12.132   0.699  12.153  0.2345 -0.0705  0.0147
70083SOL    HW120179  12.113   0.785  12.116  0.9953  0.4966  0.8685
70083SOL    HW220180  12.224   0.706  12.181 -0.0834 -0.7040  1.2856
70084SOL     OW20181   4.281   5.569  12.695 -0.0632  0.4665 -0.2540
70084SOL    HW120182   4.356   5.517  12.666 -0.3369  0.0060 -0.1516
70084SOL    HW220183   4.314   5.620  12.769  0.2309  0.4968 -0.4052
70085SOL     OW20184   6.954   6.710   1.452 -0.6877 -0.1164 -0.6656
70085SOL    HW120185   6.881   6.768   1.430 -1.5150 -0.5793  0.7025
70085SOL    HW220186   6.931   6.627   1.411 -0.6052 -0.0858 -0.7738
70086SOL     OW20187   0.084  11.676  10.628  0.1512  0.2413  0.5936
70086SOL    HW120188   0.104  11.590  10.666  1.2794  0.2555  0.0715
70086SOL    HW220189   0.166  11.704  10.588 -0.3735  1.2969  0.2206
70087SOL     OW20190   9.691  11.817   0.846 -0.4928 -0.2065 -0.5457
70087SOL    HW120191   9.690  11.898   0.896  1.3376 -0.9530  0.8029
70087SOL    HW220192   9.605  11.778   0.861 -0.7226  0.6030  0.3055
70088SOL     OW20193  11.586   2.511   3.769 -0.5154 -0.4964  0.1891
70088SOL    HW120194  11.643   2.573   3.723 -0.9530  0.5776  1.0619
70088SOL    HW220195  11.574   2.439   3.707  0.9327 -0.2600 -0.4150
70089SOL     OW20196  11.110   5.617   6.511 -0.1214 -0.0132 -0.3629
70089SOL    HW120197  11.167   5.690   6.535 -0.1817  0.8029 -2.4716
70089SOL    HW220198  11.040   5.658   6.459 -0.9584 -1.3819 -0.3377
70090SOL     OW20199   6.714   1.789   4.205  0.3777  0.4679  0.3768
70090SOL    HW120200   6.789   1.729   4.209  0.4956  0.6100  0.2801
70090SOL    HW220201   6.723   1.834   4.121 -0.5530 -0.4651 -0.2466
70091SOL     OW20202   9.416  12.551   6.275  0.0756  0.1150  0.0871
70091SOL    HW120203   9.381  12.580   6.191  0.1115  0.7827  0.3010
70091SOL    HW220204   9.377  12.465   6.288 -1.8783  1.0237  0.5443
70092SOL     OW20205   7.601   2.499  10.662 -0.2449 -0.0581  0.4344
70092SOL    HW120206   7.689   2.471  10.689  0.8740 -0.3068 -2.8765
70092SOL    HW220207   7.617   2.571  10.601 -2.5508  1.3588  1.3829
70093SOL     OW20208   3.412   0.078   1.872  0.2221  0.3584  0.4348
70093SOL    HW120209   3.360   0.150   1.908  1.0743  1.3459 -0.2338
70093SOL    HW220210   3.490   0.120   1.837  0.7625 -0.9082  0.0452
70094SOL     OW20211  10.734   1.149   0.529  0.2357 -0.1926  0.1446
70094SOL    HW120212  10.674   1.180   0.461  1.3248  0.0159 -0.7533
70094SOL    HW220213  10.818   1.189   0.507  0.4047  0.7489  2.2430
70095SOL     OW20214   4.210   9.437   5.954 -0.3259  0.3699  0.1106
70095SOL    HW120215   4.162   9.515   5.981 -0.6167  0.2362 -0.0145
70095SOL    HW220216   4.286   9.471   5.908 -1.3860  0.5934 -1.5818
70096SOL     OW20217   0.869   3.318  12.715  0.1974 -0.3620 -0.2724
70096SOL    HW120218   0.853   3.381  12.785  2.0436  0.6781 -0.7296
70096SOL    HW220219   0.861   3.233  12.757  2.1541  0.2330  1.4604
70097SOL     OW20220   1.266   7.491   7.002 -0.1026 -0.0206  0.7665
70097SOL    HW120221   1.269   7.583   6.975 -1.9779  0.0258  0.6241
70097SOL    HW220222   1.355   7.459   6.986  0.9001  2.0285  1.8623
70098SOL     OW20223  10.772   7.955   1.931 -0.1654 -0.3026  0.3157
70098SOL    HW120224  10.761   7.895   1.857 -0.2062 -0.7113  0.6422
70098SOL    HW220225  10.741   7.904   2.007 -2.8712  1.0614  0.2516
70099SOL     OW20226   9.173   7.412   1.013  0.1297 -0.0757  0.0452
70099SOL    HW120227   9.250   7.423   1.068 -1.0698 -1.7477  2.2179
70099SOL    HW220228   9.149   7.320   1.021 -1.3411  0.0850 -1.6400
70100SOL     OW20229   3.251  12.016  12.458 -0.1404  0.5597  0.2283
70100SOL    HW120230   3.266  11.963  12.380  0.5348 -1.4350  1.6372
70100SOL    HW220231   3.158  12.036  12.456 -0.6510 -1.6268  0.1774
70101SOL     OW20232   2.471  11.905   2.215  0.3064 -0.3503 -0.1699
70101SOL    HW120233   2.460  11.851   2.137  0.9515 -0.1781 -0.3881
70101SOL    HW220234   2.566  11.915   2.224  0.2042  1.0499 -0.3587
70102SOL     OW20235  13.113   2.228   9.117  0.4241  0.3160 -0.3061
70102SOL    HW120236  13.096   2.292   9.047  0.4057  0.0462 -0.5475
70102SOL    HW220237  13.061   2.152   9.093 -1.9426  1.2237  1.4954
70103SOL     OW20238   4.465   0.559  12.833 -0.0660 -0.0246  0.6714
70103SOL    HW120239   4.485   0.651  12.848 -2.2632  1.3569 -3.4019
70103SOL    HW220240   4.530   0.530  12.768 -0.4156 -0.8843  0.6838
70104SOL     OW20241   0.602   2.572   7.883  0.4948  0.6107  0.4276
70104SOL    HW120242   0.534   2.580   7.817  0.0419  0.5435  0.8816
70104SOL    HW220243   0.652   2.653   7.875  1.9416 -0.3953 -1.6129
70105SOL     OW20244   6.132  11.250   1.619  0.1082 -0.0344 -0.1503
70105SOL    HW120245   6.096  11.162   1.606 -1.3661  0.5270  0.0081
70105SOL    HW220246   6.103  11.300   1.543  0.7155  0.4054 -0.1079
70106SOL     OW20247   3.479  11.809  11.439 -0.5206  0.2643  0.2540
70106SOL    HW120248   3.406  11.785  11.382 -1.5061  3.6074 -0.0839
70106SOL    HW220249   3.441  11.816  11.526 -0.4253  1.2498  0.2187
70107SOL     OW20250   3.450   7.286   2.565  0.7201 -0.6609 -0.4877
70107SOL    HW120251   3.377   7.349   2.566  1.5571  0.3692 -1.5741
70107SOL    HW220252   3.522   7.332   2.606  1.4808 -0.7014 -1.7083
70108SOL     OW20253  10.125   9.093   8.859 -0.0181  0.7559 -0.2704
70108SOL    HW120254  10.139   9.142   8.940  1.2188  1.3431 -0.8182
70108SOL    HW220255  10.033   9.109   8.837 -1.1748 -1.4742  2.3173
70109SOL     OW20256   0.077  10.533  12.745 -0.2122 -0.7470 -0.1584
70109SOL    HW120257   0.167  10.506  12.726  0.0758  0.3759 -0.4672
70109SOL    HW220258   0.064  10.509  12.837  0.5003 -0.6544 -0.0252
70110SOL     OW20259  12.668   7.526   9.271  0.5328  0.0091 -0.2406
70110SOL    HW120260  12.595   7.503   9.327 -0.4820  0.8190 -1.1774
70110SOL    HW220261  12.665   7.622   9.265  1.8947  0.0983 -0.0216
70111SOL     OW20262   1.121  10.837   2.694  0.0578  0.6403  0.3869
70111SOL    HW120263   1.147  10.883   2.774  1.2507  1.2436 -0.3260
70111SOL    HW220264   1.081  10.755   2.726 -0.4261  1.3263  1.6107
70112SOL     OW20265   7.926  12.596  12.291 -0.0844 -0.1937 -0.3800
70112SOL    HW120266   7.894  12.623  12.377  0.4370 -1.1873  0.1568
70112SOL    HW220267   7.902  12.667  12.232 -1.9601 -0.2523  0.2559
70113SOL     OW20268   9.859  10.558   6.991 -0.2877 -0.5137  0.5044
70113SOL    HW120269   9.930  10.560   7.056 -0.4189  1.1691  0.6375
70113SOL    HW220270   9.804  10.633   7.014 -1.2323 -0.8550 -0.5856
70114SOL     OW20271   7.694   0.494   3.198  0.0151 -0.1098 -0.3626
70114SOL    HW120272   7.776   0.445   3.199  0.4454  0.6130  0.2790
70114SOL    HW220273   7.630   0.432   3.162  1.0248 -0.3742 -1.7875
70115SOL     OW20274   7.546   7.915   4.610  0.3160 -0.0264 -0.1180
70115SOL    HW120275   7.469   7.972   4.605  1.5448  1.7196 -0.2766
70115SOL    HW220276   7.568   7.896   4.519  0.6237  0.2878 -0.1125
70116SOL     OW20277  12.556  12.053   9.331  0.6767 -0.1429 -0.5019
70116SOL    HW120278  12.473  12.034   9.373 -0.1023  1.0656 -1.4207
70116SOL    HW220279  12.537  12.050   9.237  1.8236 -0.4930 -0.7392
70117SOL     OW20280  10.392   4.118   8.658 -0.1577 -0.0268  0.3005
70117SOL    HW120281  10.456   4.162   8.602 -1.0951  0.0218 -0.7821
70117SOL    HW220282  10.440   4.045   8.697  0.9655  0.9482  0.7844
70118SOL     OW20283   7.909   3.809   2.017  0.1423  0.0581  0.3571
70118SOL    HW120284   7.922   3.750   1.942  2.0949 -0.5938  1.1632
70118SOL    HW220285   7.942   3.760   2.092 -1.3946  0.8687  1.6144
70119SOL     OW20286  13.104   7.014   8.185  0.1256 -0.8339  0.1758
70119SOL    HW120287  13.178   7.073   8.196  0.6292 -1.0137 -1.8170
70119SOL    HW220288  13.143   6.931   8.159 -0.7347 -1.0509 -0.4903
70120SOL     OW20289   6.122   7.119   9.293  0.1706 -0.3752  0.0334
70120SOL    HW120290   6.200   7.165   9.326  0.9201 -1.1789 -0.5666
70120SOL    HW220291   6.157   7.042   9.249 -0.9135 -0.1672 -1.2258
70121SOL     OW20292  12.879   6.042   8.106  0.1938 -0.4598 -0.2989
70121SOL    HW120293  12.792   6.041   8.146  1.0432 -2.2497  1.6890
70121SOL    HW220294  12.919   6.122   8.139  0.2587 -1.0472  1.1540
70122SOL     OW20295   1.517   8.197  11.775 -0.0238 -0.6801  0.3428
70122SOL    HW120296   1.516   8.104  11.798 -1.1178 -0.9235 -0.5854
70122SOL    HW220297   1.463   8.238  11.842 -0.9585 -0.9865 -0.1988
70123SOL     OW20298   3.554  11.235   1.204 -0.0260  0.5458  0.5696
70123SOL    HW120299   3.497  11.244   1.128 -0.7784 -1.4306  0.8528
70123SOL    HW220300   3.546  11.144   1.230  1.2525  0.8533  2.2271
70124SOL     OW20301  12.668   2.376  10.843  0.2492 -0.0231  0.0056
70124SOL    HW120302  12.612   2.440  10.886 -0.3408 -0.4739 -0.0748
70124SOL    HW220303  12.746   2.425  10.817  0.5811  0.2830  1.4779
70125SOL     OW20304   9.972  10.808   9.435 -0.3207  0.0198 -0.5680
70125SOL    HW120305  10.018  10.891   9.428  2.4427 -1.4762 -1.9152
70125SOL    HW220306   9.916  10.818   9.511  1.0495  2.5826  0.2270
70126SOL     OW20307   6.889   7.243   4.803 -0.3049  0.0451 -0.1026
70126SOL    HW120308   6.817   7.192   4.841 -0.1869 -0.6625 -0.7824
70126SOL    HW220309   6.968   7.202   4.837 -0.1810  1.8863  2.0103
70127SOL     OW20310  12.918   4.191   8.108 -0.0760 -0.7010 -0.1954
70127SOL    HW120311  12.850   4.224   8.168 -0.3538  0.3293 -1.0529
70127SOL    HW220312  12.879   4.199   8.021  0.7770 -1.0519 -0.6182
70128SOL     OW20313   8.807   7.493  11.352  0.0691 -0.3395 -0.1118
70128SOL    HW120314   8.762   7.575  11.329 -1.2356 -1.1240 -0.5086
70128SOL    HW220315   8.858   7.472  11.274 -0.4313 -0.4345 -0.4214
70129SOL     OW20316   2.700  10.276  10.111 -0.0968 -1.4150 -0.0141
70129SOL    HW120317   2.641  10.255  10.183  1.8028 -2.5757  1.2947
70129SOL    HW220318   2.770  10.211  10.118  1.3135 -0.1298 -1.5079
70130SOL     OW20319   3.194   6.403   4.962  0.1246  0.0815 -0.0652
70130SOL    HW120320   3.180   6.483   5.014 -0.2056  0.1870 -0.3133
70130SOL    HW220321   3.266   6.426   4.903  0.5190 -0.0471  0.3582
70131SOL     OW20322  12.520   0.076   8.549 -0.5933  0.1930  0.4022
70131SOL    HW120323  12.458   0.107   8.615  0.3931 -0.7878  1.8514
70131SOL    HW220324  12.604   0.070   8.596  0.0060 -1.1227 -0.7689
70132SOL     OW20325   0.962   3.695  11.124  0.7189  0.1539 -0.4454
70132SOL    HW120326   0.888   3.747  11.155 -0.3284 -0.2839 -2.0773
70132SOL    HW220327   0.992   3.740  11.046 -0.9924 -2.1874 -2.6238
70133SOL     OW20328   8.375  12.808   8.351 -0.3257 -0.0969  0.4285
70133SOL    HW120329   8.432  12.732   8.363 -0.4531 -0.2737 -0.0549
70133SOL    HW220330   8.297  12.789   8.403 -0.2779 -0.2121  0.4590
70134SOL     OW20331  11.952   1.081   4.793 -0.2808  0.0645  0.3131
70134SOL    HW120332  11.885   1.101   4.728  0.1068  0.7578  0.1229
70134SOL    HW220333  11.930   1.135   4.869  0.1513  0.4171  0.1927
70135SOL     OW20334   2.970  10.706   0.908 -0.7285  0.1891  0.7600
70135SOL    HW120335   2.890  10.655   0.922 -2.2211  2.0773 -0.3331
70135SOL    HW220336   2.959  10.743   0.820  2.4168 -1.2294 -0.3889
70136SOL     OW20337   9.346   8.155   4.753  0.5747  0.7375  0.0148
70136SOL    HW120338   9.272   8.212   4.772 -0.0179  0.6126 -1.7359
70136SOL    HW220339   9.320   8.108   4.674  2.1137 -0.0544 -0.0541
70137SOL     OW20340   6.905  12.755   8.419 -0.6117  0.0375  0.1955
70137SOL    HW120341   6.818  12.777   8.389  0.3313  1.3957 -1.7293
70137SOL    HW220342   6.930  12.677   8.369 -0.6299 -0.2174  0.5778
70138SOL     OW20343   1.782   0.072   0.164  0.3649  0.2734  0.5409
70138SOL    HW120344   1.742  -0.002   0.211  0.0242  0.8405  1.1737
70138SOL    HW220345   1.809   0.035   0.080 -2.7173  0.1073 -0.5414
70139SOL     OW20346   9.282   8.771   6.669 -0.5067 -0.3251  0.1531
70139SOL    HW120347   9.250   8.680   6.673 -0.7316 -0.2984 -0.8510
70139SOL    HW220348   9.340   8.779   6.745  0.3290 -1.6216 -0.3206
70140SOL     OW20349   2.509   6.881   5.137  0.8882 -0.3852  0.0538
70140SOL    HW120350   2.591   6.908   5.095  3.4671  0.0738  4.6627
70140SOL    HW220351   2.458   6.961   5.144 -0.1630 -0.6846 -2.9288
70141SOL     OW20352   9.911   6.870   8.483 -0.1663 -0.2943 -0.4156
70141SOL    HW120353   9.893   6.962   8.504 -0.6549 -0.5697  0.4051
70141SOL    HW220354  10.006   6.867   8.470 -0.0413  0.1820  0.3340
70142SOL     OW20355   8.620   0.734  12.938  0.0791  0.2550  0.4451
70142SOL    HW120356   8.639   0.816  12.984  1.1057 -0.2783  0.9853
70142SOL    HW220357   8.545   0.697  12.985  0.3080  0.3507  0.8926
70143SOL     OW20358   1.180   0.669  11.840 -0.7772 -0.4587 -0.2184
70143SOL    HW120359   1.084   0.674  11.845 -0.8873 -1.6159 -0.6755
70143SOL    HW220360   1.211   0.755  11.869 -1.9306 -0.3096  0.6373
70144SOL     OW20361   9.263  11.746  10.131  0.0105 -1.0715 -0.1241
70144SOL    HW120362   9.192  11.798  10.092 -0.1224 -0.9110  0.3238
70144SOL    HW220363   9.239  11.739  10.224  1.2988  0.1779  0.3233
70145SOL     OW20364   6.829   1.255  10.068  0.2894 -0.2893  0.6011
70145SOL    HW120365   6.875   1.303  10.137  0.7834  1.8164 -1.0937
70145SOL    HW220366   6.898   1.210  10.020  0.0569 -0.9063  0.8367
70146SOL     OW20367   4.298  12.000  10.875  0.2451 -0.2772 -0.2124
70146SOL    HW120368   4.329  12.085  10.844 -1.4858  0.6007  0.3814
70146SOL    HW220369   4.309  12.004  10.970 -0.9350 -0.2373 -0.0646
70147SOL     OW20370  12.947  11.078   9.740 -0.2499 -0.3558  0.2894
70147SOL    HW120371  12.903  11.117   9.664  1.1520 -1.0753 -0.9416
70147SOL    HW220372  12.937  11.143   9.810 -1.4447  0.3867 -0.5366
70148SOL     OW20373   0.464  10.411   7.113  0.1147 -0.3319 -0.3717
70148SOL    HW120374   0.554  10.433   7.136  0.1712 -1.5462  0.6898
70148SOL    HW220375   0.472  10.339   7.050 -0.1054  0.0586 -0.8502
70149SOL     OW20376   0.261   2.208  13.278 -0.3340  0.3321  0.3734
70149SOL    HW120377   0.256   2.301  13.259  0.1201  0.4603  0.8570
70149SOL    HW220378   0.278   2.203  13.372 -2.0383 -0.2789  0.6890
70150SOL     OW20379   1.191   1.345   5.437 -0.3858 -0.0657  0.8009
70150SOL    HW120380   1.213   1.401   5.512  2.2028 -0.5556  0.4986
70150SOL    HW220381   1.246   1.267   5.449 -0.3505 -0.4213 -1.2860
70151SOL     OW20382  10.771  12.457  11.978 -0.1445 -0.2986 -0.4508
70151SOL    HW120383  10.848  12.411  12.011 -0.1783 -0.5195 -0.6789
70151SOL    HW220384  10.806  12.518  11.913 -0.1907 -0.5766 -0.7362
70152SOL     OW20385   8.670   1.678   8.389  0.4278  0.2751  0.1894
70152SOL    HW120386   8.746   1.680   8.331 -0.3951 -1.4941 -1.0499
70152SOL    HW220387   8.617   1.754   8.362  0.5457  0.0555 -0.6888
70153SOL     OW20388   6.035   2.128   1.159 -0.3474  0.6048  0.5353
70153SOL    HW120389   6.081   2.209   1.138  0.0234  0.4002  0.5482
70153SOL    HW220390   5.991   2.104   1.078 -0.6944  0.9719  0.6143
70154SOL     OW20391   4.487   5.419  12.564 -0.4154 -0.4147  0.2176
70154SOL    HW120392   4.547   5.493  12.569  0.3363 -1.0289  0.5459
70154SOL    HW220393   4.542   5.343  12.584 -1.3181 -0.9842  0.5681
70155SOL     OW20394   0.284   8.699   4.451  0.4553 -0.1185 -0.3432
70155SOL    HW120395   0.262   8.609   4.476  0.2405 -0.2798 -1.0637
70155SOL    HW220396   0.200   8.740   4.433  0.5303  0.3355  0.3042
70156SOL     OW20397   9.148   0.383  10.525  0.2233  0.1922 -0.4053
70156SOL    HW120398   9.107   0.340  10.600  1.8477 -0.8902 -0.1019
70156SOL    HW220399   9.096   0.354  10.450 -0.0475 -0.5239  0.0490
70157SOL     OW20400  12.096   4.143   2.228 -0.2844  0.1260  0.3631
70157SOL    HW120401  12.027   4.129   2.293 -0.4821 -1.4215 -0.1327
70157SOL    HW220402  12.139   4.224   2.256 -0.0025 -0.7580  2.7333
70158SOL     OW20403  11.415   3.136   5.514 -0.4701  0.3703  0.4523
70158SOL    HW120404  11.445   3.097   5.432  0.7861  1.9275  0.1144
70158SOL    HW220405  11.496   3.155   5.563 -1.1999 -1.2557  2.4480
70159SOL     OW20406   3.636   8.977   9.870  0.5039  0.4519  0.1934
70159SOL    HW120407   3.588   8.950   9.791 -0.4928  0.6439  0.7237
70159SOL    HW220408   3.701   9.039   9.837  0.2822  0.3231 -0.5211
70160SOL     OW20409   5.786   5.727   5.565 -0.3361  0.5035 -0.5290
70160SOL    HW120410   5.819   5.778   5.640 -2.7817  1.4330  0.0120
70160SOL    HW220411   5.709   5.682   5.599  0.9860 -2.6151 -1.3819
70161SOL     OW20412   0.615   8.555   5.778  1.0968  0.1039  0.6488
70161SOL    HW120413   0.555   8.550   5.852 -0.0637  0.6422 -0.2213
70161SOL    HW220414   0.565   8.598   5.709  2.5909  0.8585 -0.0219
70162SOL     OW20415  12.453   5.516   1.317 -0.4709 -0.4901  0.0578
70162SOL    HW120416  12.459   5.421   1.309 -0.4635 -0.4346 -0.7182
70162SOL    HW220417  12.399   5.530   1.394 -0.1652 -1.1162  0.3994
70163SOL     OW20418  10.600   3.563   9.455  0.3284 -0.0033 -0.1137
70163SOL    HW120419  10.682   3.538   9.498 -0.1335 -1.2172  0.1097
70163SOL    HW220420  10.543   3.591   9.527 -0.9640 -3.4538  0.4019
70164SOL     OW20421  10.445   8.692   5.286 -0.0475  0.1994  0.3157
70164SOL    HW120422  10.463   8.608   5.329  0.0762 -0.9440 -1.8387
70164SOL    HW220423  10.362   8.721   5.324 -0.8525 -1.6397  0.0816
70165SOL     OW20424  11.234   1.737   3.116  0.2684  0.6188  0.4541
70165SOL    HW120425  11.258   1.800   3.048  2.7087 -0.8709 -0.1823
70165SOL    HW220426  11.317   1.701   3.146 -0.9218 -0.7320  2.3502
70166SOL     OW20427   8.348  11.614  12.048 -0.4401 -0.1722  0.1448
70166SOL    HW120428   8.328  11.674  11.976 -2.1473 -0.9922 -0.1061
70166SOL    HW220429   8.409  11.551  12.009 -0.3145  0.1615 -0.2078
70167SOL     OW20430  12.593   0.891   5.746  0.5830  0.0123 -0.0922
70167SOL    HW120431  12.644   0.931   5.675 -0.0240 -0.0203 -0.5524
70167SOL    HW220432  12.610   0.947   5.822 -0.7016  1.5042 -0.8599
70168SOL     OW20433  11.219  10.292   5.737 -0.5050  0.0727  0.2945
70168SOL    HW120434  11.293  10.303   5.678  0.0522 -1.6611  0.6009
70168SOL    HW220435  11.143  10.319   5.685 -0.0254 -1.3647 -1.2454
70169SOL     OW20436   0.153   3.200  11.653  0.2622 -0.4324  0.2714
70169SOL    HW120437   0.067   3.162  11.639 -0.0186  0.3768 -0.2685
70169SOL    HW220438   0.213   3.140  11.608 -0.2384  0.0887 -1.1376
70170SOL     OW20439   1.276  11.379  10.907 -0.3958 -0.1666  0.3046
70170SOL    HW120440   1.195  11.430  10.902 -0.6426 -0.5359  0.5497
70170SOL    HW220441   1.337  11.436  10.954 -0.1192  0.6155 -0.9626
70171SOL     OW20442   4.401   5.836   0.161 -0.1679  0.6955  0.5381
70171SOL    HW120443   4.470   5.878   0.214  1.1800 -1.6702  0.7915
70171SOL    HW220444   4.388   5.751   0.202 -3.3582  1.0578  0.5001
70172SOL     OW20445  12.534   2.628   7.984  0.1341 -0.5813 -0.0342
70172SOL    HW120446  12.490   2.711   7.965 -1.1209 -1.4837 -1.2425
70172SOL    HW220447  12.483   2.590   8.056  1.2201  0.0348  1.1131
70173SOL     OW20448   0.980  11.110   1.071  0.0610 -0.0097  0.5791
70173SOL    HW120449   1.047  11.091   1.005 -1.8864 -1.4082 -1.1103
70173SOL    HW220450   0.972  11.028   1.120  1.0578  0.8358  2.2287
70174SOL     OW20451  11.903  12.017  10.164 -0.1340 -1.0221  0.0909
70174SOL    HW120452  11.854  11.941  10.131  0.9258 -1.4876 -0.4707
70174SOL    HW220453  11.938  11.988  10.248 -2.1031 -0.1361  1.2865
70175SOL     OW20454   8.798  13.077  11.494  0.1250 -0.1603 -0.1012
70175SOL    HW120455   8.704  13.058  11.486  0.0473 -1.5343  2.7677
70175SOL    HW220456   8.807  13.167  11.464 -2.6052  0.8862  1.8173
70176SOL     OW20457   0.543   8.488  11.976 -0.1693 -0.0184  0.0504
70176SOL    HW120458   0.534   8.464  12.068  0.3918  1.6519  0.5953
70176SOL    HW220459   0.558   8.583  11.978  2.0545 -0.2668 -1.6203
70177SOL     OW20460  11.617  11.343  11.679  0.2660  0.4215 -0.3892
70177SOL    HW120461  11.555  11.339  11.751  1.0178 -1.2286  0.2099
70177SOL    HW220462  11.694  11.388  11.715  0.1061  0.8667 -0.5966
70178SOL     OW20463   6.820   2.858   3.237 -0.0060 -0.3268 -0.0588
70178SOL    HW120464   6.876   2.934   3.250 -1.4083  0.7866 -0.1996
70178SOL    HW220465   6.754   2.888   3.174 -1.3750 -1.2262  0.8983
70179SOL     OW20466  12.715   0.181  10.296  0.3341 -0.6281 -0.1006
70179SOL    HW120467  12.667   0.255  10.258 -1.1688 -0.6916  1.5423
70179SOL    HW220468  12.807   0.203  10.285 -0.0883  0.9791 -0.6148
70180SOL     OW20469  10.142   5.262   2.859  0.2259  0.1514  0.5795
70180SOL    HW120470  10.100   5.177   2.845 -2.2231  1.3545 -0.0290
70180SOL    HW220471  10.204   5.270   2.786 -0.9150 -0.3497 -0.4966
70181SOL     OW20472   6.660   0.041  13.203 -0.1168  0.2437 -0.2345
70181SOL    HW120473   6.738  -0.012  13.189  0.0402  0.4466 -0.1342
70181SOL    HW220474   6.682   0.096  13.278 -0.0403  0.8937 -0.7228
70182SOL     OW20475   9.524   7.092  11.934 -0.9410 -0.0489 -0.1353
70182SOL    HW120476   9.595   7.035  11.904 -1.1860  0.1260 -1.0910
70182SOL    HW220477   9.499   7.057  12.019  0.3538 -0.0655  0.2667
70183SOL     OW20478   6.394   8.407   6.814 -0.0683 -0.0278 -0.4296
70183SOL    HW120479   6.454   8.368   6.877  0.6098  0.9555 -0.4443
70183SOL    HW220480   6.316   8.427   6.865  0.3922  0.5561  0.0518
70184SOL     OW20481   1.188   5.840   7.798  0.4098  0.1361 -0.4862
70184SOL    HW120482   1.124   5.774   7.770  1.8948 -1.5013 -0.1780
70184SOL    HW220483   1.198   5.897   7.723  0.2498 -0.9434 -1.3602
70185SOL     OW20484   8.377   9.459   8.597  0.2684  0.0490 -0.0637
70185SOL    HW120485   8.393   9.548   8.564  0.8160 -0.5886 -1.6082
70185SOL    HW220486   8.290   9.436   8.564  1.0791 -0.8324 -1.7206
70186SOL     OW20487   1.113   8.224   1.196  0.5865  0.6647  0.2048
70186SOL    HW120488   1.071   8.153   1.146 -0.2355  2.0394 -1.1589
70186SOL    HW220489   1.050   8.245   1.264  1.4265 -0.7794  1.4895
70187SOL     OW20490   9.175   1.580   1.437 -0.1784 -0.1433  0.1888
70187SOL    HW120491   9.157   1.570   1.344 -1.5536 -0.7788  0.4923
70187SOL    HW220492   9.149   1.497   1.476  0.4753  0.0740  1.1342
70188SOL     OW20493  12.570   4.769   1.538  0.1953 -0.1420  0.0465
70188SOL    HW120494  12.637   4.818   1.585 -0.5699  1.9836 -0.9176
70188SOL    HW220495  12.500   4.756   1.603 -0.9979  3.0560 -0.4095
70189SOL     OW20496   0.483  10.586   8.446  0.2282 -0.0385 -0.2846
70189SOL    HW120497   0.528  10.503   8.439 -1.9864 -1.4182  0.6818
70189SOL    HW220498   0.465  10.612   8.355 -0.4914 -1.4809 -0.5747
70190SOL     OW20499   8.724   4.932   3.311 -0.0201 -0.4146  0.1524
70190SOL    HW120500   8.693   4.968   3.394 -0.1573 -0.1534 -0.0108
70190SOL    HW220501   8.654   4.874   3.283  0.0737 -0.5867  0.2734
70191SOL     OW20502   9.947   5.050   9.888  0.0426  0.0761 -0.3478
70191SOL    HW120503  10.015   5.075   9.950  0.3307 -0.2094 -0.5458
70191SOL    HW220504   9.995   5.012   9.814 -0.3693 -0.7022 -0.2191
70192SOL     OW20505   6.079   2.886   9.832 -0.0518 -0.1282 -0.6093
70192SOL    HW120506   6.138   2.885   9.907 -0.2853 -0.1462 -0.4265
70192SOL    HW220507   6.025   2.807   9.843  0.0624 -0.2518 -0.9136
70193SOL     OW20508  12.570  10.282   1.677 -0.1018  0.0097 -0.1336
70193SOL    HW120509  12.583  10.304   1.585 -0.5617  0.3578 -0.1204
70193SOL    HW220510  12.638  10.218   1.697  0.2840  0.2736 -0.5967
70194SOL     OW20511   7.019   5.341  10.808  0.0243 -0.2296 -0.1390
70194SOL    HW120512   7.091   5.289  10.772 -0.3127  0.3128 -1.6824
70194SOL    HW220513   6.940   5.299  10.774 -0.2488  1.3302 -1.5718
70195SOL     OW20514   1.013  11.620  11.545  0.1831  0.2762  0.1422
70195SOL    HW120515   1.061  11.544  11.513 -1.5464 -0.8924  0.1858
70195SOL    HW220516   1.080  11.679  11.580  1.7866 -0.0836 -2.1684
70196SOL     OW20517   1.529  12.854   8.751 -0.2809  0.4901 -0.5233
70196SOL    HW120518   1.511  12.771   8.793  1.3306  0.6751  0.6026
70196SOL    HW220519   1.607  12.838   8.698 -0.1020  1.2134 -0.4890
70197SOL     OW20520   4.659   2.731   7.649 -0.2449 -0.1262 -0.8029
70197SOL    HW120521   4.720   2.687   7.708 -0.9320 -1.5555 -1.0987
70197SOL    HW220522   4.612   2.794   7.704 -0.1183 -0.6660 -0.0691
70198SOL     OW20523   2.048   9.520  11.461  0.1557 -0.0382  0.1262
70198SOL    HW120524   2.023   9.611  11.447  1.3635  0.4154  0.7800
70198SOL    HW220525   2.077   9.516  11.552  2.2131 -0.5426 -0.5063
70199SOL     OW20526  12.143   9.147   7.479 -0.0143  0.0450 -0.1175
70199SOL    HW120527  12.199   9.116   7.550 -2.7682 -1.4702  1.5780
70199SOL    HW220528  12.124   9.238   7.501  0.2647  0.0033  0.3095
70200SOL     OW20529   9.055   0.471   0.550 -0.2150  0.1612  0.4872
70200SOL    HW120530   9.022   0.489   0.638  0.4878 -0.9521  1.0006
70200SOL    HW220531   9.044   0.376   0.540  3.8891 -0.5894  1.2267
70201SOL     OW20532   6.391   5.869   4.051  0.0236 -0.0975 -0.1409
70201SOL    HW120533   6.425   5.780   4.060  2.0442  0.4230 -1.7698
70201SOL    HW220534   6.449   5.910   3.986 -0.4960  2.5704  0.9506
70202SOL     OW20535   8.235   6.290   6.519 -0.0685 -0.2170  0.3314
70202SOL    HW120536   8.257   6.357   6.455 -0.7923 -0.4412 -0.1749
70202SOL    HW220537   8.139   6.295   6.527 -0.0297 -0.4981  1.0579
70203SOL     OW20538  12.116  11.511   9.380  0.2117  0.2976 -0.6117
70203SOL    HW120539  12.198  11.491   9.425  0.4725 -2.0894 -1.9899
70203SOL    HW220540  12.048  11.485   9.443  0.4602  1.7413  0.3071
70204SOL     OW20541   0.576   2.439  12.488 -0.0278  0.4896 -0.2838
70204SOL    HW120542   0.551   2.434  12.396  0.3676 -0.4857 -0.3458
70204SOL    HW220543   0.510   2.496  12.528 -0.3959  0.6438 -1.0975
70205SOL     OW20544   2.714   4.801   6.433 -0.2863 -0.4388  0.4363
70205SOL    HW120545   2.775   4.841   6.494  1.3129 -0.8580 -0.8067
70205SOL    HW220546   2.770   4.763   6.365 -1.5880 -4.6815  1.4075
70206SOL     OW20547  10.492  11.485   4.854 -0.0711 -0.8151 -0.3663
70206SOL    HW120548  10.478  11.419   4.921 -0.4661  0.9665  1.4056
70206SOL    HW220549  10.564  11.539   4.888 -0.2635  0.1297 -1.3911
70207SOL     OW20550   8.827  11.281   5.508 -0.5406  0.8082 -0.0712
70207SOL    HW120551   8.838  11.359   5.563 -0.9697 -0.3755  1.8018
70207SOL    HW220552   8.873  11.302   5.427 -0.4992  2.9300  0.4429
70208SOL     OW20553   7.542   2.021   2.244  0.7332  0.1858  0.9447
70208SOL    HW120554   7.488   2.019   2.323 -0.4690 -0.3702  0.1469
70208SOL    HW220555   7.617   2.076   2.267 -0.7987  2.0850  1.7174
70209SOL     OW20556   2.794   1.500   1.506  0.0619 -0.3562 -0.0055
70209SOL    HW120557   2.856   1.490   1.579 -1.6380 -0.3166  1.5033
70209SOL    HW220558   2.832   1.570   1.453  1.5687 -0.6852  0.5801
70210SOL     OW20559   1.738   6.085   6.864 -0.7756  0.2485 -0.0408
70210SOL    HW120560   1.825   6.073   6.901 -0.6141 -0.7904 -0.7247
70210SOL    HW220561   1.686   6.014   6.902 -1.6534  1.5181  1.2580
70211SOL     OW20562   9.839   1.277  12.399 -0.3779  0.3335  0.4983
70211SOL    HW120563   9.785   1.214  12.446 -1.9551  1.7331  0.6813
70211SOL    HW220564   9.853   1.348  12.463  0.9540  0.3998  0.1567
70212SOL     OW20565   3.303   7.897   6.057  0.2863 -0.6446 -0.1827
70212SOL    HW120566   3.229   7.923   6.111  1.4967 -1.0150  1.7279
70212SOL    HW220567   3.263   7.866   5.975 -1.5134  1.2201 -0.0906
70213SOL     OW20568   6.853  11.360   3.544  0.0490 -0.1359  0.4282
70213SOL    HW120569   6.907  11.345   3.467  0.8878  0.6132  0.8431
70213SOL    HW220570   6.826  11.273   3.573  0.1410 -0.4487 -0.4135
70214SOL     OW20571  12.987   7.369  12.174  0.6663  0.2368 -0.5224
70214SOL    HW120572  12.945   7.296  12.221  0.8822 -0.0972 -0.8434
70214SOL    HW220573  12.943   7.373  12.090  0.5223  0.6071 -0.4293
70215SOL     OW20574  10.219   4.822  10.356  0.4866  0.1525  0.6130
70215SOL    HW120575  10.246   4.794  10.269 -0.2158 -0.5166  0.6004
70215SOL    HW220576  10.271   4.901  10.374  1.7490 -0.5765  0.2319
70216SOL     OW20577  10.773  12.704  10.115 -0.4513 -0.2589 -0.2235
70216SOL    HW120578  10.821  12.781  10.085 -0.7881 -0.0888 -0.3296
70216SOL    HW220579  10.681  12.723  10.095 -0.3836 -1.4153 -1.9041
70217SOL     OW20580   6.192   1.542  11.818  0.3423  0.2348 -0.0953
70217SOL    HW120581   6.109   1.572  11.856  1.2528  1.9904  0.6337
70217SOL    HW220582   6.166   1.492  11.741 -1.5367 -2.0567  1.8487
70218SOL     OW20583   5.084   2.782  11.636 -0.1679  0.0522 -0.0086
70218SOL    HW120584   5.059   2.836  11.561 -0.9333 -0.8441 -0.4188
70218SOL    HW220585   5.029   2.815  11.708  0.9965  1.3179  0.3558
70219SOL     OW20586   0.102  11.266   7.698  0.3865 -0.0208  0.8832
70219SOL    HW120587   0.026  11.290   7.751 -0.9359  0.2433 -1.0387
70219SOL    HW220588   0.096  11.171   7.690  1.2620 -0.2047  2.1282
70220SOL     OW20589   1.317   1.443   6.894  0.2982 -0.0386 -0.1363
70220SOL    HW120590   1.396   1.444   6.948 -0.7073  1.2053  1.3892
70220SOL    HW220591   1.340   1.387   6.820  2.5903  0.2752  0.2644
70221SOL     OW20592  11.895   4.998  12.659  0.3444 -0.4538 -0.0051
70221SOL    HW120593  11.871   5.085  12.689 -1.8571 -0.3796 -1.6866
70221SOL    HW220594  11.964   5.013  12.594  3.0430 -0.4074  2.6488
70222SOL     OW20595   6.239   8.178   0.679 -0.3596 -0.0357 -0.9190
70222SOL    HW120596   6.197   8.194   0.763 -0.6718  0.1811 -1.1133
70222SOL    HW220597   6.330   8.158   0.700 -0.3582  0.3479 -0.5549
70223SOL     OW20598   8.891   9.037  13.241  0.0689 -0.3525 -0.1611
70223SOL    HW120599   8.829   9.018  13.311 -1.8455  1.5724 -1.2108
70223SOL    HW220600   8.881   8.963  13.180  2.0012 -2.2207  1.6085
70224SOL     OW20601   9.109   3.417  11.927  0.5140  0.0652 -0.3980
70224SOL    HW120602   9.132   3.503  11.892  0.0666  0.5785  0.5389
70224SOL    HW220603   9.076   3.369  11.851  1.1884  0.5599 -1.0212
70225SOL     OW20604   9.010   5.214   2.772 -0.0405  0.2114 -0.8758
70225SOL    HW120605   8.919   5.238   2.792 -0.6373  0.1659 -3.2131
70225SOL    HW220606   9.016   5.121   2.795 -0.4528  0.3092 -0.3377
70226SOL     OW20607  13.060   1.541   7.750 -0.5947 -0.2993 -0.5806
70226SOL    HW120608  13.108   1.618   7.719 -0.8044 -0.5211 -1.4641
70226SOL    HW220609  13.111   1.511   7.826 -0.5664  0.7562 -0.1625
70227SOL     OW20610   9.161   4.778   0.091  0.2980  0.2993  0.4181
70227SOL    HW120611   9.156   4.693   0.134  1.0431 -0.8372 -1.6095
70227SOL    HW220612   9.184   4.839   0.162  0.1708 -1.2318  1.8430
70228SOL     OW20613  10.525   0.370   3.966 -0.3817 -0.9146  0.3393
70228SOL    HW120614  10.452   0.411   4.012 -0.2716 -0.4588  0.1192
70228SOL    HW220615  10.577   0.329   4.035 -0.6025 -0.8510  0.5454
70229SOL     OW20616  11.546  10.315   7.112 -0.3055 -0.0008 -0.3757
70229SOL    HW120617  11.517  10.384   7.053  0.8042  0.3904 -0.5013
70229SOL    HW220618  11.479  10.247   7.106 -0.3849  0.1860 -1.8103
70230SOL     OW20619   4.837   0.989   7.988 -0.7838  0.5169 -0.5000
70230SOL    HW120620   4.894   1.037   7.928  0.0865  1.1384  0.7964
70230SOL    HW220621   4.748   1.015   7.962 -0.4068  1.1086 -1.2335
70231SOL     OW20622   7.878   7.871   2.986 -0.0526 -0.0191  0.5762
70231SOL    HW120623   7.960   7.831   3.015 -0.8207 -1.8003  0.4312
70231SOL    HW220624   7.813   7.800   2.992 -1.2619  0.9005 -0.8126
70232SOL     OW20625   3.148  12.724  10.189 -0.0777  0.0864  0.0627
70232SOL    HW120626   3.203  12.740  10.113 -0.1219 -0.2130 -0.0366
70232SOL    HW220627   3.083  12.794  10.188  0.7513  0.8919  0.6120
70233SOL     OW20628   3.285   9.023   6.535  1.0059 -0.6153 -0.5712
70233SOL    HW120629   3.358   9.021   6.474  1.6380  0.2423  0.1241
70233SOL    HW220630   3.237   9.103   6.512 -0.2385 -1.6075 -1.5863
70234SOL     OW20631   5.224   0.260   5.551  0.8555 -0.4998  0.1893
70234SOL    HW120632   5.222   0.318   5.475  0.2109 -2.0536 -1.0357
70234SOL    HW220633   5.274   0.184   5.522 -1.4088 -2.1984  0.4325
70235SOL     OW20634   8.153   7.675   0.979 -0.3852 -0.5463  0.3311
70235SOL    HW120635   8.131   7.614   1.049  0.1598 -0.5198  0.5266
70235SOL    HW220636   8.092   7.653   0.908 -0.4391 -1.0639  0.5376
70236SOL     OW20637   4.767   8.798   9.500 -1.0835  0.3171  0.3739
70236SOL    HW120638   4.763   8.882   9.545  0.1311  0.0189  1.0741
70236SOL    HW220639   4.791   8.821   9.410  0.0860  0.6884  0.7571
70237SOL     OW20640  12.125   3.254  11.433  0.1775  1.0197 -0.3441
70237SOL    HW120641  12.220   3.262  11.431  0.1400  1.2459 -1.4107
70237SOL    HW220642  12.104   3.244  11.526  1.3312 -0.2101 -0.1888
70238SOL     OW20643  10.761   4.212   9.479 -0.1497  0.2686 -0.1023
70238SOL    HW120644  10.724   4.139   9.529  2.2283  0.0735  1.5632
70238SOL    HW220645  10.783   4.277   9.546  0.3783  1.3136 -1.2600
70239SOL     OW20646  10.739   5.364   8.185 -0.1129  0.0727 -0.0797
70239SOL    HW120647  10.758   5.410   8.267  0.7530 -0.4748  0.0346
70239SOL    HW220648  10.756   5.272   8.205 -1.1175 -0.2258 -0.5171
70240SOL     OW20649   7.544  12.436  10.810  0.5548 -0.2225  0.3781
70240SOL    HW120650   7.490  12.445  10.731 -0.0918  1.3900  0.9641
70240SOL    HW220651   7.628  12.477  10.786 -0.3620  2.3038  1.1354
70241SOL     OW20652   4.707   5.887   7.620  0.2109 -0.1164 -0.0572
70241SOL    HW120653   4.760   5.838   7.557 -1.6569 -0.3815 -1.5014
70241SOL    HW220654   4.624   5.840   7.622 -0.9325  1.8145  0.0724
70242SOL     OW20655   0.134   0.346   3.831  0.3785 -0.1411 -0.6520
70242SOL    HW120656   0.217   0.309   3.863  0.3533 -0.3067 -0.7786
70242SOL    HW220657   0.133   0.435   3.867  0.6226 -0.1298 -0.6664
70243SOL     OW20658  10.560   1.341   1.638 -0.4597 -0.2537 -0.1799
70243SOL    HW120659  10.506   1.413   1.671 -2.1107 -0.1177 -2.8712
70243SOL    HW220660  10.507   1.263   1.653  0.0920 -0.5646  0.1814
70244SOL     OW20661   3.319   7.730   5.091 -0.3498  0.1276 -0.3476
70244SOL    HW120662   3.286   7.641   5.080 -0.6044 -0.1787  2.3643
70244SOL    HW220663   3.403   7.719   5.136 -0.1433  1.2441 -0.4360
70245SOL     OW20664  10.285   4.962   2.026 -0.0983  0.1602 -0.4681
70245SOL    HW120665  10.212   4.948   1.966  2.5519 -2.5639 -3.4541
70245SOL    HW220666  10.260   4.914   2.105 -2.0794  0.4897 -0.8395
70246SOL     OW20667  10.057  12.584   7.105  0.0091 -0.1081 -0.5038
70246SOL    HW120668  10.113  12.523   7.153  0.2264  0.1613 -0.4147
70246SOL    HW220669   9.971  12.575   7.146  0.6438  1.6971  1.4246
70247SOL     OW20670   2.400  12.094   6.312 -0.2085  0.2718  0.0361
70247SOL    HW120671   2.359  12.179   6.296 -0.8040  0.0707  0.4656
70247SOL    HW220672   2.365  12.066   6.397  1.6830  0.6007  0.9808
70248SOL     OW20673   0.608   8.650  12.837 -0.6374 -0.2833 -0.3875
70248SOL    HW120674   0.628   8.556  12.835 -0.6303 -0.2712 -0.8628
70248SOL    HW220675   0.683   8.689  12.881 -0.8300 -0.5462  0.1913
70249SOL     OW20676   2.210   5.186   5.592 -0.4255 -0.0904  0.0033
70249SOL    HW120677   2.196   5.101   5.634 -3.8147  0.7406  0.8952
70249SOL    HW220678   2.262   5.236   5.655 -2.6802  0.0566  1.8812
70250SOL     OW20679   4.794   3.418   0.448 -0.4354  0.0405  0.2788
70250SOL    HW120680   4.868   3.432   0.388 -0.2993 -1.5008  0.0442
70250SOL    HW220681   4.824   3.454   0.532  0.6541 -0.7114  0.2330
70251SOL     OW20682  12.008   2.549  12.131 -0.2773 -0.2967  0.0164
70251SOL    HW120683  12.068   2.475  12.142 -0.4091 -0.2290  1.3211
70251SOL    HW220684  12.057   2.611  12.077  0.2402 -0.8781 -0.1973
70252SOL     OW20685  12.312   5.815  10.535  0.0898  0.0030  0.1896
70252SOL    HW120686  12.293   5.774  10.451 -0.8532 -0.7732  0.7661
70252SOL    HW220687  12.246   5.780  10.595  3.2659 -2.9992  2.3718
70253SOL     OW20688   6.392   9.828   8.624 -0.3186  0.3660  0.3454
70253SOL    HW120689   6.448   9.888   8.673  1.0610  0.9966 -1.8329
70253SOL    HW220690   6.316   9.880   8.599 -0.4896  0.3570  0.8308
70254SOL     OW20691  11.787   2.559  11.060 -0.2205 -0.4942 -1.0054
70254SOL    HW120692  11.732   2.574  10.983  0.0945 -0.4348 -1.2198
70254SOL    HW220693  11.874   2.591  11.034 -0.1803 -0.2124 -0.5289
70255SOL     OW20694   9.261  10.259   7.799 -0.6152 -0.9145  0.3958
70255SOL    HW120695   9.241  10.168   7.779 -2.7779 -0.2098 -1.0911
70255SOL    HW220696   9.253  10.265   7.894 -1.4732 -2.0561  0.4192
70256SOL     OW20697   8.951  11.267   1.859 -0.3272  0.3188  0.6731
70256SOL    HW120698   8.926  11.344   1.910  0.5414  0.8794  0.2713
70256SOL    HW220699   9.034  11.291   1.818  0.1666 -0.9886  0.8721
70257SOL     OW20700  10.051   7.592   2.951 -0.3240  0.0229  0.3895
70257SOL    HW120701   9.958   7.577   2.968 -0.7230 -0.8495 -2.1581
70257SOL    HW220702  10.053   7.646   2.872  1.3558  1.2408  1.2074
70258SOL     OW20703  13.188  11.604   0.034  0.1132 -0.2838 -0.0509
70258SOL    HW120704  13.217  11.514   0.043 -1.7648 -0.9235  0.0326
70258SOL    HW220705  13.135  11.621   0.112 -0.7625  0.3772 -0.7652
70259SOL     OW20706  12.547   2.486   7.184  0.4938 -0.2261  0.1194
70259SOL    HW120707  12.461   2.528   7.183 -0.0253 -1.1099  2.0174
70259SOL    HW220708  12.528   2.392   7.178  1.5167 -0.3697 -1.9803
70260SOL     OW20709   2.940   6.952   3.903  0.1816  0.2946 -0.1169
70260SOL    HW120710   2.961   6.867   3.943  1.8939  0.5877 -0.3466
70260SOL    HW220711   2.888   6.997   3.970  1.5319  0.1038  1.1220
70261SOL     OW20712   7.091  12.359   7.741  0.0624  0.0524  0.1337
70261SOL    HW120713   7.119  12.270   7.720 -0.2003 -0.0577  0.2577
70261SOL    HW220714   7.000  12.351   7.768 -0.0264  0.3871 -0.0549
70262SOL     OW20715   4.172   5.979  11.794 -0.3161  0.5760 -0.2304
70262SOL    HW120716   4.238   5.994  11.727  0.0007  0.7975  0.1269
70262SOL    HW220717   4.122   6.061  11.797  0.7800  1.2435  1.0173
70263SOL     OW20718  11.791  12.544   5.864  0.1653 -0.0512  0.0317
70263SOL    HW120719  11.809  12.591   5.782 -0.0120  0.9006  0.5295
70263SOL    HW220720  11.877  12.529   5.903  0.1624  0.8478  0.4050
70264SOL     OW20721  10.886   0.839   7.123  0.5311 -0.1801  0.2158
70264SOL    HW120722  10.920   0.899   7.190  0.5787 -0.1936  0.2035
70264SOL    HW220723  10.837   0.896   7.063 -0.5485 -0.3202  0.9269
70265SOL     OW20724   6.936   2.767   2.742 -0.3781  0.0266 -0.0826
70265SOL    HW120725   7.004   2.827   2.713 -0.1608  0.2157  0.8133
70265SOL    HW220726   6.898   2.808   2.819 -0.7961 -0.5870  0.0507
70266SOL     OW20727   1.350   9.951   2.506 -0.1321 -0.5940 -0.0148
70266SOL    HW120728   1.359   9.862   2.471 -0.4857 -0.0671 -1.4955
70266SOL    HW220729   1.264   9.980   2.477  0.0789  0.3373  0.2561
70267SOL     OW20730  13.067   7.677  13.007  0.0908  0.1040 -0.5861
70267SOL    HW120731  13.028   7.746  12.952  1.0338  1.8374  0.8271
70267SOL    HW220732  13.128   7.724  13.064  0.5837 -1.9004  0.6045
70268SOL     OW20733   5.698   6.963   6.225  0.6586 -0.3221  0.1009
70268SOL    HW120734   5.738   6.877   6.211 -0.8977 -1.2226  0.8824
70268SOL    HW220735   5.718   6.985   6.316  2.0626  0.7377 -0.4291
70269SOL     OW20736   4.291   8.727   9.380 -0.2510  0.2676 -0.7543
70269SOL    HW120737   4.271   8.767   9.464  1.9452 -0.9659  0.4221
70269SOL    HW220738   4.360   8.782   9.343 -1.0910  0.7099 -1.7331
70270SOL     OW20739   2.608   1.052   2.584  0.1537 -0.3784  0.6407
70270SOL    HW120740   2.696   1.064   2.550 -0.3608 -1.0992 -1.0599
70270SOL    HW220741   2.579   0.968   2.548 -1.7314  0.5174 -0.0844
70271SOL     OW20742   5.988   2.482  11.367  0.0377 -0.0825 -0.3550
70271SOL    HW120743   5.963   2.547  11.433 -0.6019 -0.6849  0.0133
70271SOL    HW220744   6.053   2.427  11.412 -0.1629 -0.3006 -0.3305
70272SOL     OW20745  12.739   2.259   2.709 -0.5175  0.1708  0.4181
70272SOL    HW120746  12.817   2.266   2.654 -0.2172 -1.7659  0.5297
70272SOL    HW220747  12.770   2.278   2.797 -0.3860  0.3198  0.3408
70273SOL     OW20748   7.312  10.326   1.844 -0.1837  0.3239 -0.3286
70273SOL    HW120749   7.394  10.361   1.880  0.1663 -0.0368 -0.7608
70273SOL    HW220750   7.245  10.357   1.904  0.4379 -0.6511  0.9102
70274SOL     OW20751   4.585   2.387   8.632  0.0751 -0.1091 -0.3128
70274SOL    HW120752   4.537   2.306   8.650 -0.7848  0.5853  0.6465
70274SOL    HW220753   4.665   2.379   8.685 -0.7505  0.3362  1.0364
70275SOL     OW20754   8.183   1.286  12.855 -0.0697  0.2637  0.0329
70275SOL    HW120755   8.126   1.321  12.786 -1.2394  2.8794  2.1224
70275SOL    HW220756   8.270   1.284  12.815 -0.9909 -0.2082 -2.0804
70276SOL     OW20757   9.204   9.446   4.067 -0.4193 -0.3151 -0.6004
70276SOL    HW120758   9.115   9.410   4.078 -0.1429 -1.0405 -0.6571
70276SOL    HW220759   9.200   9.493   3.983 -0.4880 -1.2099 -1.1193
70277SOL     OW20760   6.498  10.812  10.732  0.7380  0.6600  0.5374
70277SOL    HW120761   6.548  10.887  10.762 -0.4130  1.5818  0.2368
70277SOL    HW220762   6.409  10.827  10.764  0.3291 -0.2243 -0.1092
70278SOL     OW20763   3.270   6.792  11.726  0.1722  0.7742 -0.4896
70278SOL    HW120764   3.337   6.744  11.678  1.3820  4.3285 -2.7251
70278SOL    HW220765   3.308   6.878  11.742 -2.8150  2.0239  0.7001
70279SOL     OW20766   2.940   8.141   5.034 -0.2956 -0.2173 -0.2315
70279SOL    HW120767   2.935   8.138   5.129 -1.1296 -1.2883 -0.2833
70279SOL    HW220768   3.029   8.112   5.013 -0.2641 -0.4302  0.2029
70280SOL     OW20769   4.497   9.751   5.009 -0.0973 -0.0204  0.3141
70280SOL    HW120770   4.477   9.772   5.100  0.7150  0.3769  0.4088
70280SOL    HW220771   4.525   9.835   4.970 -1.4054  0.0348 -0.5786
70281SOL     OW20772  10.666   1.810   4.645  0.2854  0.1925  0.8763
70281SOL    HW120773  10.741   1.802   4.585 -0.6458  0.3221 -0.3509
70281SOL    HW220774  10.703   1.793   4.731  1.3364 -1.8807  0.0998
70282SOL     OW20775   4.239   8.002  10.116 -0.3012 -0.2807 -0.5453
70282SOL    HW120776   4.325   7.972  10.087 -0.8570 -1.9390 -0.6128
70282SOL    HW220777   4.255   8.088  10.156  1.4784 -0.8438  0.0441
70283SOL     OW20778   5.224   1.482   4.162 -0.3990 -0.2850 -0.2635
70283SOL    HW120779   5.160   1.546   4.195  1.6243  0.4999  2.4615
70283SOL    HW220780   5.235   1.420   4.233 -0.6857 -2.5294 -2.0469
70284SOL     OW20781  11.200   2.995   7.166  0.0769 -0.4396  0.0183
70284SOL    HW120782  11.229   3.049   7.093  0.5549 -0.5848  0.0990
70284SOL    HW220783  11.215   3.050   7.243  0.7401 -0.7496  0.1182
70285SOL     OW20784   0.342   7.917   4.985  0.3562  0.3340  1.2217
70285SOL    HW120785   0.276   7.887   5.047 -0.8899 -0.3065 -0.3334
70285SOL    HW220786   0.343   7.849   4.917 -0.5992  2.4239 -1.0407
70286SOL     OW20787   3.123   4.278   6.629  0.1590  0.8569 -0.5759
70286SOL    HW120788   3.209   4.300   6.594  0.3994 -1.9752 -2.0807
70286SOL    HW220789   3.061   4.303   6.560  0.3650 -2.0129 -1.9340
70287SOL     OW20790   3.537  12.032   1.766 -0.0117  0.6934  0.0098
70287SOL    HW120791   3.474  11.998   1.830 -0.9287  1.1241 -0.6366
70287SOL    HW220792   3.509  11.994   1.682 -0.5108  2.2734 -0.5804
70288SOL     OW20793  12.139  11.222   7.118  0.1912  0.0723 -0.5514
70288SOL    HW120794  12.076  11.254   7.182  0.8142 -2.1691  1.3509
70288SOL    HW220795  12.091  11.154   7.070  0.3104  0.3877 -1.1203
70289SOL     OW20796  10.609   3.393   6.162  0.4683 -0.4183  0.2286
70289SOL    HW120797  10.597   3.316   6.106  1.0499  0.2257 -0.8167
70289SOL    HW220798  10.582   3.467   6.107  1.2631  0.2579  0.7244
70290SOL     OW20799  11.230   4.178   6.231  0.3577 -0.0951 -0.2577
70290SOL    HW120800  11.257   4.113   6.166 -0.5188  0.0758 -0.7993
70290SOL    HW220801  11.135   4.184   6.222  0.3993  1.1146 -0.0762
70291SOL     OW20802   2.669   7.379  11.042 -0.5450  0.0038 -0.1214
70291SOL    HW120803   2.660   7.465  11.084  0.2005  1.3829 -2.5726
70291SOL    HW220804   2.754   7.347  11.072 -0.4700  0.4778  0.1911
70292SOL     OW20805  11.301   6.359   2.867  0.4974 -0.2347  0.2661
70292SOL    HW120806  11.295   6.451   2.891  2.9430 -0.0599  0.4649
70292SOL    HW220807  11.316   6.359   2.772 -0.2276 -0.4638  0.1504
70293SOL     OW20808   2.717   1.817  12.365  0.8208 -0.0276 -0.6340
70293SOL    HW120809   2.669   1.741  12.397  0.6665  0.6771  0.8751
70293SOL    HW220810   2.804   1.809  12.404  1.6197 -0.6806 -2.4212
70294SOL     OW20811  10.656  12.198   8.889  0.0069 -0.1797 -0.0449
70294SOL    HW120812  10.662  12.189   8.794  1.8702  0.9581 -0.0980
70294SOL    HW220813  10.565  12.178   8.910 -0.5406 -0.0797 -2.1101
70295SOL     OW20814   5.441   4.454  13.041  0.9102  0.0593 -0.1972
70295SOL    HW120815   5.507   4.388  13.020  0.3609 -1.2831  2.0245
70295SOL    HW220816   5.360   4.420  13.004  1.0818  0.8520 -1.3769
70296SOL     OW20817   9.773  12.402   9.689  0.6734  0.5115  0.2783
70296SOL    HW120818   9.736  12.366   9.770  1.2783  1.4254  0.9881
70296SOL    HW220819   9.804  12.489   9.714  0.1738  1.1266 -1.1398
70297SOL     OW20820  12.776   7.227   0.166 -0.0897 -0.2767  0.2965
70297SOL    HW120821  12.857   7.198   0.123  1.1678  1.8372  1.0772
70297SOL    HW220822  12.738   7.147   0.201  1.1856 -1.4504 -0.8597
70298SOL     OW20823   8.122   8.054   9.397 -0.4089  0.3625 -0.4621
70298SOL    HW120824   8.053   8.087   9.339 -1.0526 -0.8204 -0.3986
70298SOL    HW220825   8.164   7.985   9.348 -1.0328 -0.7324  0.4852
70299SOL     OW20826   5.235   8.216  12.764 -0.4223 -0.2352 -0.3744
70299SOL    HW120827   5.150   8.197  12.724 -0.0642 -0.0232 -1.2579
70299SOL    HW220828   5.216   8.283  12.830 -0.9976 -0.4806 -0.2820
70300SOL     OW20829   2.682   2.165   8.610 -0.3259 -0.4316  0.6913
70300SOL    HW120830   2.656   2.112   8.686 -2.4097 -0.4243  0.0518
70300SOL    HW220831   2.634   2.126   8.536 -0.6470  1.3200 -0.0863
70301SOL     OW20832  11.305   7.415   2.285 -0.1836 -0.6087  0.3721
70301SOL    HW120833  11.250   7.370   2.348  0.9935 -1.0324  1.1225
70301SOL    HW220834  11.266   7.394   2.200 -1.5078 -0.4064  0.9025
70302SOL     OW20835   3.066   3.299   4.372  0.4628 -0.1458  0.5525
70302SOL    HW120836   3.037   3.390   4.376  0.8144  0.1068 -1.5362
70302SOL    HW220837   2.987   3.249   4.395  0.1241  0.6642  1.2147
70303SOL     OW20838   7.639   7.752   8.488  0.1438 -0.5861  0.6601
70303SOL    HW120839   7.623   7.839   8.523 -1.2903  0.0302 -1.3277
70303SOL    HW220840   7.649   7.696   8.565 -3.0296  0.6118  2.1014
70304SOL     OW20841  10.996   8.567  13.114  0.7349  0.6108 -0.1944
70304SOL    HW120842  11.067   8.530  13.167 -0.3697  0.8462  1.5479
70304SOL    HW220843  10.951   8.627  13.173 -0.8196  0.5962 -1.2974
70305SOL     OW20844   0.611   2.485   5.771 -0.1185  0.2134  0.0361
70305SOL    HW120845   0.621   2.397   5.809  1.8851 -0.0349 -0.9391
70305SOL    HW220846   0.683   2.536   5.809 -0.1792  0.9138 -0.7589
70306SOL     OW20847   2.885  10.557   5.269 -1.0404 -0.0862  0.0760
70306SOL    HW120848   2.814  10.514   5.317 -0.3192 -0.3132  0.9840
70306SOL    HW220849   2.964  10.530   5.315 -0.4665  1.2698 -0.0620
70307SOL     OW20850  13.159   3.746   6.822 -0.3796  0.0074  0.0551
70307SOL    HW120851  13.126   3.834   6.841 -0.6878 -0.5449  2.4701
70307SOL    HW220852  13.098   3.688   6.868  1.5125 -1.2666  1.0818
70308SOL     OW20853  11.162   7.341  11.706 -0.0101 -0.3419 -0.0576
70308SOL    HW120854  11.124   7.421  11.670 -3.0089 -1.0943  1.1365
70308SOL    HW220855  11.191   7.365  11.794  0.6778 -0.1954 -0.3178
70309SOL     OW20856   9.596   4.312   4.865  0.4527  0.7248  0.3608
70309SOL    HW120857   9.608   4.407   4.868 -0.1306  0.8827 -1.3837
70309SOL    HW220858   9.683   4.278   4.842  0.2113  1.0255 -1.1183
70310SOL     OW20859  12.762   8.042  11.931  0.0151  0.3246  0.4502
70310SOL    HW120860  12.723   7.959  11.905  0.4118 -0.5275  2.4385
70310SOL    HW220861  12.733   8.104  11.864 -0.1774 -1.4196 -1.1594
70311SOL     OW20862  10.445   9.659   7.976 -0.4548 -0.1953  0.4042
70311SOL    HW120863  10.393   9.735   8.004  0.4733  0.0362  1.5474
70311SOL    HW220864  10.503   9.641   8.049  0.8678 -0.6537 -0.7210
70312SOL     OW20865  11.494   4.713   9.053  0.3878 -0.1049  0.3131
70312SOL    HW120866  11.502   4.623   9.083  1.8664 -0.7575 -1.8007
70312SOL    HW220867  11.509   4.708   8.959 -2.4997  1.9618 -0.4194
70313SOL     OW20868   8.800   0.295   8.483  0.3017  0.2352  0.3448
70313SOL    HW120869   8.730   0.258   8.536 -1.3020  3.0038  0.3575
70313SOL    HW220870   8.763   0.299   8.395  0.9070  0.5673  0.1010
70314SOL     OW20871  12.014   2.912  11.818  0.3701 -0.2789 -0.1771
70314SOL    HW120872  12.055   2.845  11.873  2.0209  0.9210  0.1463
70314SOL    HW220873  12.040   2.888  11.729  1.8003  0.4348  0.0207
70315SOL     OW20874   7.435   0.684   9.699  0.0800 -0.5541  0.4024
70315SOL    HW120875   7.448   0.610   9.757 -1.4374 -1.2701 -0.1112
70315SOL    HW220876   7.506   0.678   9.635 -0.2067 -1.7408  0.1879
70316SOL     OW20877   6.848  12.218   1.540 -0.3750  0.3416  0.2313
70316SOL    HW120878   6.856  12.168   1.621  1.4466 -0.1346 -0.1922
70316SOL    HW220879   6.754  12.217   1.520 -1.0474  1.4555  2.9005
70317SOL     OW20880  12.674   0.162   4.917  0.3402  0.0686 -0.7105
70317SOL    HW120881  12.710   0.078   4.888 -1.4729 -0.4923 -1.4869
70317SOL    HW220882  12.624   0.141   4.996  2.1725  0.9610  0.7808
70318SOL     OW20883   1.308   4.604  13.245  0.4294 -0.7474  0.2103
70318SOL    HW120884   1.353   4.652  13.314 -1.0308  0.9217  0.0857
70318SOL    HW220885   1.243   4.666  13.211 -0.7369 -2.4281 -0.8116
70319SOL     OW20886   9.272  10.371   4.911 -0.0100 -0.4221 -0.1834
70319SOL    HW120887   9.366  10.379   4.929 -0.1525 -0.1531  0.4894
70319SOL    HW220888   9.266  10.307   4.840  0.6731 -0.5646 -0.1180
70320SOL     OW20889   1.962   2.695   1.987 -0.2017  0.6393 -0.1216
70320SOL    HW120890   1.878   2.728   1.953 -1.6936  0.2627  2.9149
70320SOL    HW220891   1.938   2.620   2.041  1.5783  2.5662  3.7384
70321SOL     OW20892   5.063   7.447   4.249  0.4878  0.1209  0.0287
70321SOL    HW120893   5.110   7.503   4.188  0.9056  1.6691  1.6978
70321SOL    HW220894   4.972   7.454   4.223  0.7699 -0.1351 -1.0812
70322SOL     OW20895   9.910   7.687   6.736  0.0698 -0.3072  0.4075
70322SOL    HW120896   9.918   7.783   6.742 -0.8022 -0.1332 -0.9153
70322SOL    HW220897   9.871   7.661   6.819  0.9129  0.3961  1.0510
70323SOL     OW20898   4.612  10.940   2.975  0.0410 -0.0143 -0.6247
70323SOL    HW120899   4.541  10.880   2.996  1.5564 -2.2385 -1.5057
70323SOL    HW220900   4.652  10.961   3.060 -0.5037 -0.2336 -0.3079
70324SOL     OW20901   5.195  10.617   5.344 -0.2806  0.1186  0.0759
70324SOL    HW120902   5.244  10.648   5.420 -1.3305 -0.4141  0.9995
70324SOL    HW220903   5.219  10.525   5.335 -1.4839 -0.2968  0.8739
70325SOL     OW20904   4.937   6.048   4.302  0.3128 -0.1020 -0.6480
70325SOL    HW120905   4.907   5.966   4.263 -0.8261  0.7192 -1.5669
70325SOL    HW220906   4.858   6.087   4.341  0.9597  0.2603  0.3520
70326SOL     OW20907  12.813   5.276   9.107  0.5521  0.1704  0.0915
70326SOL    HW120908  12.742   5.305   9.164  1.3304  2.5648 -0.0353
70326SOL    HW220909  12.891   5.274   9.163  0.6367 -1.2934 -0.0341
70327SOL     OW20910  10.302   7.814   6.278 -0.0536  0.4248  0.2656
70327SOL    HW120911  10.212   7.804   6.245 -0.2781  0.2558  0.9233
70327SOL    HW220912  10.356   7.811   6.199 -0.8105  3.4746 -0.4951
70328SOL     OW20913   9.048   4.251  12.427  0.5318  0.4371  0.3423
70328SOL    HW120914   9.044   4.246  12.331  1.3364  0.9607  0.2650
70328SOL    HW220915   9.059   4.345  12.445  1.3704  0.2449  0.8904
70329SOL     OW20916   0.114   4.975   0.356  0.4780  0.1006  0.3601
70329SOL    HW120917   0.188   4.914   0.350  0.3938 -0.1557  1.6913
70329SOL    HW220918   0.036   4.920   0.348  0.3951  0.4082 -1.3749
70330SOL     OW20919   1.506   1.080   8.240 -0.1421  0.2076  0.1342
70330SOL    HW120920   1.420   1.040   8.252  0.3413 -0.6982  0.7880
70330SOL    HW220921   1.505   1.114   8.151 -0.9945 -0.2661 -0.0498
70331SOL     OW20922   3.258  12.946   7.949 -0.0044 -0.2568  0.0776
70331SOL    HW120923   3.262  12.900   8.032  0.5993  1.7370  1.2149
70331SOL    HW220924   3.322  13.017   7.956 -0.8401  0.7575 -1.5719
70332SOL     OW20925   6.667   7.758   7.041  0.1338  0.3995 -0.5304
70332SOL    HW120926   6.704   7.688   6.988  0.2046  1.8345 -2.4582
70332SOL    HW220927   6.642   7.715   7.123  2.6584 -1.3371 -0.5602
70333SOL     OW20928  12.582  11.355  12.589 -0.1055  0.3930  0.2181
70333SOL    HW120929  12.559  11.281  12.645  1.2113  1.2376  1.9668
70333SOL    HW220930  12.673  11.339  12.564 -0.8436 -0.2972 -2.3199
70334SOL     OW20931  12.380   8.280   8.981  0.0473  0.5857  0.2403
70334SOL    HW120932  12.455   8.275   8.923 -0.3521  0.7599 -0.2960
70334SOL    HW220933  12.400   8.219   9.052  0.7788  0.7825  0.2031
70335SOL     OW20934   2.831  12.278   4.944 -0.3133  0.2584 -0.1375
70335SOL    HW120935   2.867  12.359   4.980 -0.1681 -0.7645  2.2523
70335SOL    HW220936   2.750  12.263   4.993 -0.0886 -1.2553 -0.1666
70336SOL     OW20937  10.418  12.210   6.974 -0.0282 -0.7407  0.1872
70336SOL    HW120938  10.447  12.171   7.057 -0.3846 -2.8253 -0.5987
70336SOL    HW220939  10.488  12.270   6.950  0.9698 -1.5085  1.0725
70337SOL     OW20940   0.345  10.445   8.100 -0.0977 -0.7676  0.3045
70337SOL    HW120941   0.286  10.494   8.157 -1.5104  0.0811 -1.7536
70337SOL    HW220942   0.340  10.355   8.131 -2.0273 -0.5975  0.5814
70338SOL     OW20943  10.436  10.549   1.500  0.0069  0.0341 -0.2728
70338SOL    HW120944  10.429  10.455   1.520  1.7657 -0.7433 -2.7938
70338SOL    HW220945  10.354  10.586   1.532 -1.3041 -2.5980 -0.3033
70339SOL     OW20946   6.243   9.384   4.930  0.8231  0.2329 -0.5015
70339SOL    HW120947   6.276   9.333   5.004 -0.3936 -0.1100 -0.1667
70339SOL    HW220948   6.151   9.359   4.923  0.6376  1.1024 -1.4348
70340SOL     OW20949   1.114   5.490   0.974  0.1202  0.3367 -0.2459
70340SOL    HW120950   1.101   5.455   0.886 -2.7159 -1.3451  0.6930
70340SOL    HW220951   1.038   5.546   0.989  0.2603  0.1622  1.2941
70341SOL     OW20952  12.682   1.463   2.057  0.2825  0.1688  0.0153
70341SOL    HW120953  12.607   1.458   1.998  0.6702  1.0113 -0.5703
70341SOL    HW220954  12.753   1.418   2.009  0.0603 -1.0326  0.7556
70342SOL     OW20955   1.083   6.441  12.547  0.1647 -0.1946 -0.1258
70342SOL    HW120956   1.139   6.385  12.493 -1.0060 -0.4320 -1.1479
70342SOL    HW220957   1.088   6.527  12.505 -1.9108 -0.7057 -1.6268
70343SOL     OW20958  12.893   7.607   8.220 -0.0361 -0.0312  0.7540
70343SOL    HW120959  12.804   7.572   8.212 -0.6680  1.6887 -0.0889
70343SOL    HW220960  12.948   7.540   8.179 -1.1457 -0.3067 -0.3708
70344SOL     OW20961   9.049   4.814  13.178  0.5962 -0.0254  0.4086
70344SOL    HW120962   9.074   4.794  13.269  2.9050  0.5498 -0.0318
70344SOL    HW220963   9.035   4.729  13.137 -0.1128 -0.3025  1.1818
70345SOL     OW20964   1.737  11.116  11.251  0.1862 -0.2497 -0.4927
70345SOL    HW120965   1.749  11.037  11.199  0.3219  0.3028 -1.3253
70345SOL    HW220966   1.754  11.188  11.190  1.9424  0.4103  0.6977
70346SOL     OW20967   0.908   0.762   1.912  0.0915  0.3805  0.4184
70346SOL    HW120968   1.002   0.777   1.913  0.3647 -0.8579 -1.7718
70346SOL    HW220969   0.870   0.848   1.893  0.8062  0.7684  0.7117
70347SOL     OW20970   8.640   9.635   5.179 -0.1805 -0.2594 -0.0545
70347SOL    HW120971   8.567   9.649   5.118 -0.6989  1.7956  0.9471
70347SOL    HW220972   8.599   9.603   5.259 -0.0121  0.9583  0.5322
70348SOL     OW20973   4.571   3.858   9.527  0.4571  0.3848 -0.0349
70348SOL    HW120974   4.515   3.814   9.463  0.3692 -0.4865  0.6158
70348SOL    HW220975   4.542   3.823   9.612  0.0424  2.0842  0.5606
70349SOL     OW20976   7.030  12.085   9.942  0.0555  0.4946  0.1078
70349SOL    HW120977   7.100  12.047   9.994 -0.0656  1.0392  0.6852
70349SOL    HW220978   6.979  12.136  10.005 -2.1767 -1.6390  0.1665
70350SOL     OW20979   0.657  13.181   2.923 -0.0839  0.0812  0.2083
70350SOL    HW120980   0.695  13.114   2.979  1.2271  0.3383 -0.3477
70350SOL    HW220981   0.729  13.212   2.869 -1.1285  0.4423 -1.0415
70351SOL     OW20982   5.801   8.820   3.796  1.0152 -0.4979  0.1321
70351SOL    HW120983   5.795   8.732   3.834  0.3297 -0.6594 -0.3317
70351SOL    HW220984   5.876   8.816   3.738  0.4615 -1.0507 -0.5635
70352SOL     OW20985   6.671   8.237   8.794  0.1849  0.5978 -0.1728
70352SOL    HW120986   6.603   8.187   8.748  1.1807 -1.3453  0.3756
70352SOL    HW220987   6.629   8.320   8.815 -1.3368  0.2710 -1.6999
70353SOL     OW20988   1.946  10.724   9.983 -0.6392 -0.4863  0.3737
70353SOL    HW120989   1.972  10.641  10.022  0.1582  0.2368  1.4840
70353SOL    HW220990   2.027  10.776   9.983 -1.0053  0.1050 -0.7748
70354SOL     OW20991   3.309   7.583   0.252 -0.5007  0.0582  0.0255
70354SOL    HW120992   3.386   7.616   0.298 -1.4615  0.2858  1.5347
70354SOL    HW220993   3.237   7.595   0.313 -1.9462  0.7882 -1.7348
70355SOL     OW20994   6.872   6.863   3.368  0.0870 -0.0265  0.4058
70355SOL    HW120995   6.828   6.795   3.420 -0.0245  0.1734  0.5779
70355SOL    HW220996   6.818   6.942   3.382 -0.7375 -0.2787 -1.1047
70356SOL     OW20997   0.200   2.055   3.457 -0.8039 -0.0721 -0.1066
70356SOL    HW120998   0.195   2.142   3.418  0.2217 -0.2982 -0.7787
70356SOL    HW220999   0.223   2.071   3.548  0.9798  0.3287 -0.5942
70357SOL     OW21000   2.817   9.609  10.371  0.8432 -0.2283 -0.1139
70357SOL    HW121001   2.870   9.631  10.295 -0.4447 -0.9891 -1.2674
70357SOL    HW221002   2.848   9.669  10.440  1.7856  0.7060 -1.3070
70358SOL     OW21003   0.191   8.603  10.176 -0.0878 -0.2215 -0.0283
70358SOL    HW121004   0.108   8.555  10.169  0.6589 -1.3982 -1.8000
70358SOL    HW221005   0.257   8.540  10.147  1.1489  1.3703 -0.8655
70359SOL     OW21006  10.597   5.405   3.245  0.2569 -0.1948  0.3012
70359SOL    HW121007  10.679   5.355   3.237  0.0703 -0.3032 -1.0977
70359SOL    HW221008  10.538   5.364   3.183 -0.9593 -0.2519  1.4528
70360SOL     OW21009  12.298   6.426   0.369 -0.1998  0.3407  0.0415
70360SOL    HW121010  12.318   6.469   0.452 -0.1158  0.4802 -0.0519
70360SOL    HW221011  12.358   6.352   0.365  0.2394  0.7062 -0.1955
70361SOL     OW21012   3.603  10.481   7.120  0.2023 -0.3785 -0.6802
70361SOL    HW121013   3.661  10.473   7.044  2.4107  0.6422  0.7828
70361SOL    HW221014   3.661  10.473   7.196 -2.1479 -3.2472  1.0279
70362SOL     OW21015  10.447   2.632  11.989  0.2040  0.2367 -0.5099
70362SOL    HW121016  10.442   2.563  11.923  0.0264  0.8648 -1.1637
70362SOL    HW221017  10.356   2.645  12.017  0.3219 -0.2760  0.1232
70363SOL     OW21018   3.909   5.749   6.096 -0.0625 -0.5730  0.2052
70363SOL    HW121019   3.966   5.826   6.099 -0.4824 -0.2066 -0.8545
70363SOL    HW221020   3.959   5.685   6.046 -0.2194 -0.5551  0.0257
70364SOL     OW21021  11.400   3.593   5.308 -0.7066  0.5382  0.3917
70364SOL    HW121022  11.463   3.556   5.245 -2.1756 -0.5242 -0.5122
70364SOL    HW221023  11.379   3.519   5.365 -0.9298  0.9656  0.8612
70365SOL     OW21024  10.125   4.727   8.109  0.2858 -0.2548 -0.1040
70365SOL    HW121025  10.068   4.804   8.116  0.5966  0.0523 -0.7720
70365SOL    HW221026  10.067   4.655   8.086  0.0101 -0.1897  0.3956
70366SOL     OW21027   9.184  11.269   6.846 -0.2522 -0.2624 -0.5625
70366SOL    HW121028   9.134  11.197   6.807 -1.5818 -0.1551  0.8455
70366SOL    HW221029   9.239  11.228   6.912 -1.7458  0.0621  0.9465
70367SOL     OW21030   4.904   6.768  12.255  0.4212  0.0008  0.3974
70367SOL    HW121031   4.918   6.817  12.174  2.4326  0.6345  1.0650
70367SOL    HW221032   4.905   6.834  12.323 -0.4745 -0.6172  1.0344
70368SOL     OW21033   5.043  12.934   3.643 -0.2386  0.6897 -0.1005
70368SOL    HW121034   4.950  12.916   3.640 -0.4748  1.4943  1.4548
70368SOL    HW221035   5.079  12.871   3.705  0.3649 -0.0008 -1.1258
70369SOL     OW21036  13.050   6.719   7.307 -0.1417 -0.3144 -0.1762
70369SOL    HW121037  13.056   6.764   7.222 -1.1023 -0.7076 -0.4689
70369SOL    HW221038  13.139   6.724   7.343 -0.3872  2.6951  0.2854
70370SOL     OW21039   5.593  13.155   5.721  0.0507 -0.4320  0.0545
70370SOL    HW121040   5.611  13.158   5.627  1.8709  0.3766  0.3891
70370SOL    HW221041   5.543  13.235   5.739  1.0631  0.2177  0.0203
70371SOL     OW21042   9.889   9.555   8.178 -0.0292  0.2623  0.2529
70371SOL    HW121043   9.908   9.463   8.197  0.9248 -0.1218 -2.1620
70371SOL    HW221044   9.974   9.594   8.159 -0.6560  0.9577 -1.3299
70372SOL     OW21045   9.222  13.243   9.739  0.1833  0.3446  0.4041
70372SOL    HW121046   9.294  13.208   9.791 -0.7802 -0.1147  1.4822
70372SOL    HW221047   9.199  13.173   9.678  1.0121  0.7110 -0.3496
70373SOL     OW21048   7.673  10.847   6.038  0.0035  0.2584  0.3997
70373SOL    HW121049   7.620  10.887   6.106 -0.8538 -1.0214  0.5238
70373SOL    HW221050   7.632  10.872   5.956 -0.6659 -0.5083  0.4855
70374SOL     OW21051   0.859   3.950  12.328  0.0059  0.4391  0.1902
70374SOL    HW121052   0.906   3.982  12.251  1.8031  3.5166  2.3740
70374SOL    HW221053   0.900   3.866  12.348 -0.0503 -0.0959 -1.7582
70375SOL     OW21054   5.365   0.014   0.063  0.3034 -0.7022  0.3207
70375SOL    HW121055   5.378   0.050  -0.025 -1.1289 -0.7168  0.0810
70375SOL    HW221056   5.416  -0.067   0.064 -0.7451 -1.4199 -0.9903
70376SOL     OW21057   1.348   0.682   0.541  1.0909  0.8012  1.0490
70376SOL    HW121058   1.416   0.739   0.576 -1.0169  2.0663  3.3955
70376SOL    HW221059   1.340   0.708   0.450  3.0392  1.2928  0.9684
70377SOL     OW21060   2.237  11.281  13.141 -0.3028  0.1943 -0.0423
70377SOL    HW121061   2.156  11.322  13.171 -0.8340 -0.4511 -0.5723
70377SOL    HW221062   2.236  11.293  13.046 -0.4382 -0.9556 -0.2033
70378SOL     OW21063   1.525   2.278   2.607 -0.3258  0.0657  0.3058
70378SOL    HW121064   1.579   2.209   2.647 -1.6555 -0.9765  0.3562
70378SOL    HW221065   1.543   2.270   2.513  1.0337  0.9886  0.4622
70379SOL     OW21066   5.858   5.150   8.351 -0.1274 -0.7038  0.3909
70379SOL    HW121067   5.895   5.141   8.263  1.3173  0.3570  0.8372
70379SOL    HW221068   5.781   5.093   8.351  0.3396 -1.4052 -1.2721
70380SOL     OW21069  10.231   9.395   6.777  0.0129  0.0958 -0.3435
70380SOL    HW121070  10.147   9.429   6.746  0.3907 -0.5840 -2.2355
70380SOL    HW221071  10.292   9.412   6.706  0.7896 -2.1653 -0.2901
70381SOL     OW21072   1.994   0.447   2.632 -0.0191 -0.4727 -0.0675
70381SOL    HW121073   1.979   0.403   2.716  0.2717 -0.9590 -0.2707
70381SOL    HW221074   2.022   0.535   2.656 -0.5394 -0.4127  0.3414
70382SOL     OW21075   5.404  10.272   5.140  0.5032 -0.7446 -0.2989
70382SOL    HW121076   5.451  10.334   5.195 -0.3048  0.7103 -1.1742
70382SOL    HW221077   5.311  10.291   5.157  0.2414 -1.8043 -0.5020
70383SOL     OW21078   8.405   9.925   4.908  0.0177 -0.0083  0.0277
70383SOL    HW121079   8.476   9.970   4.955  0.0117 -0.9457  0.9871
70383SOL    HW221080   8.385   9.981   4.834  0.9192  0.8905  0.4476
70384SOL     OW21081   2.480   7.577   3.103 -0.0722  0.3091  0.4188
70384SOL    HW121082   2.486   7.560   3.009 -1.7727  0.4565  0.2450
70384SOL    HW221083   2.418   7.649   3.110 -1.7943 -1.1988  1.7406
70385SOL     OW21084  11.394   7.873   1.169  0.4660 -0.4558  0.9263
70385SOL    HW121085  11.328   7.816   1.131  0.9737 -0.3504 -0.1437
70385SOL    HW221086  11.351   7.913   1.244 -0.0447 -1.8902  1.4275
70386SOL     OW21087  13.244   6.233  12.187  0.0925 -0.3492  0.1155
70386SOL    HW121088  13.206   6.208  12.271  2.8764  0.3016  1.6944
70386SOL    HW221089  13.326   6.276  12.210  0.8457  0.0672 -2.9546
70387SOL     OW21090   3.776  10.232   9.837  0.0383 -0.5455  0.0374
70387SOL    HW121091   3.713  10.163   9.858 -0.3029 -0.1463  0.3291
70387SOL    HW221092   3.803  10.266   9.923  0.3728 -0.4649 -0.0995
70388SOL     OW21093  11.645   8.244   9.282 -0.5263  0.2500  0.4692
70388SOL    HW121094  11.728   8.205   9.310 -1.1566 -0.0693  1.9978
70388SOL    HW221095  11.601   8.173   9.235 -0.3679  0.0769  0.5787
70389SOL     OW21096  10.687   2.967  10.979 -0.1875  0.6738  0.2031
70389SOL    HW121097  10.599   2.997  11.004 -0.4895  0.5615 -0.6849
70389SOL    HW221098  10.695   2.992  10.887 -0.4864 -2.0222 -0.6367
70390SOL     OW21099  11.935   7.589   2.833  0.6454  0.7241 -0.0239
70390SOL    HW121100  11.908   7.623   2.747 -1.0351 -0.0436  0.1823
70390SOL    HW221101  11.934   7.494   2.823 -1.6908  0.5237  1.4127
70391SOL     OW21102   0.381  11.553   5.113  0.2730 -0.4717  0.0648
70391SOL    HW121103   0.365  11.531   5.205  0.6507  1.4972  0.6579
70391SOL    HW221104   0.295  11.553   5.073  0.1095 -1.4098  0.3947
70392SOL     OW21105  10.773   7.222  12.474 -0.3493  0.5828  0.1038
70392SOL    HW121106  10.786   7.282  12.400  0.7364 -0.2633 -0.4079
70392SOL    HW221107  10.832   7.149  12.457 -2.3687 -1.1599  0.1881
70393SOL     OW21108   6.354   9.194   8.143  0.2426  0.3257 -0.2761
70393SOL    HW121109   6.354   9.279   8.188 -0.8421 -1.0852  2.6517
70393SOL    HW221110   6.446   9.168   8.140  0.6750  1.7940 -1.8039
70394SOL     OW21111   1.555   9.842  11.462  0.0237  0.0047 -0.4189
70394SOL    HW121112   1.611   9.839  11.539 -0.0301  1.3066 -0.3045
70394SOL    HW221113   1.616   9.849  11.388  0.0495 -0.2317 -0.4209
70395SOL     OW21114  12.630   9.650   3.526 -0.1490  0.0827 -0.7079
70395SOL    HW121115  12.611   9.744   3.528 -0.1991  0.0582  0.0463
70395SOL    HW221116  12.725   9.644   3.532 -0.1826  0.0660 -0.2088
70396SOL     OW21117  13.148   3.916   6.339 -0.7003  0.4374 -1.2629
70396SOL    HW121118  13.173   3.866   6.416 -0.6675 -0.0541 -1.5840
70396SOL    HW221119  13.112   3.998   6.373 -0.4766  0.3183 -0.7390
70397SOL     OW21120   1.213   8.095   7.296  0.3027 -0.2670  0.0771
70397SOL    HW121121   1.239   8.134   7.212  2.0700 -2.0916 -0.2801
70397SOL    HW221122   1.128   8.055   7.278 -0.6400  1.6605 -0.0499
70398SOL     OW21123   6.224  12.139   7.781  0.0285  0.4768  0.1157
70398SOL    HW121124   6.201  12.171   7.868 -0.1601  2.7712 -0.7012
70398SOL    HW221125   6.140  12.123   7.739  0.1199 -0.6704  0.3489
70399SOL     OW21126   4.315   2.516   7.408  0.3875  0.1997 -0.1324
70399SOL    HW121127   4.367   2.534   7.486 -1.9510  0.6470  1.4057
70399SOL    HW221128   4.293   2.423   7.414 -0.2443  0.3575  0.0344
70400SOL     OW21129   7.334   3.038   3.330 -0.4985 -0.3119 -0.5111
70400SOL    HW121130   7.332   3.095   3.253  0.4709  0.7611  0.2248
70400SOL    HW221131   7.258   3.063   3.381 -0.7325 -0.5101 -0.7610
70401SOL     OW21132   4.800   2.180   9.170  0.6523 -0.3222  0.1700
70401SOL    HW121133   4.718   2.145   9.134  0.7027 -0.4891  0.2159
70401SOL    HW221134   4.771   2.241   9.238  0.5553  0.0916 -0.2381
70402SOL     OW21135  12.267  12.629   7.792 -0.0998  0.3367 -0.1122
70402SOL    HW121136  12.240  12.720   7.778 -2.7783 -0.4028 -0.4480
70402SOL    HW221137  12.299  12.600   7.707 -0.3687  0.6389 -0.3198
70403SOL     OW21138   6.107   3.596  11.743  0.4739  0.5208 -0.5491
70403SOL    HW121139   6.033   3.544  11.713  0.1554  0.7312 -0.1442
70403SOL    HW221140   6.073   3.645  11.818  1.2749 -0.1213  0.2633
70404SOL     OW21141   6.382   6.294  11.288  0.0905  0.1030 -0.0465
70404SOL    HW121142   6.326   6.219  11.311  0.1923  0.1842  0.4840
70404SOL    HW221143   6.467   6.273  11.328 -0.0584  0.7923  0.6597
70405SOL     OW21144   0.617   2.656   5.441  0.2909  0.0180 -0.1437
70405SOL    HW121145   0.530   2.671   5.476  0.9495  1.4293  1.0041
70405SOL    HW221146   0.645   2.574   5.482 -0.4330 -0.3864 -0.4378
70406SOL     OW21147   2.373   7.405   6.505  0.3052 -1.2356  0.0671
70406SOL    HW121148   2.349   7.444   6.421 -0.5133 -0.3300  0.6975
70406SOL    HW221149   2.463   7.375   6.493  0.4472 -0.4787 -0.9014
70407SOL     OW21150   9.773  12.843   0.481  0.6578 -0.1809  0.4243
70407SOL    HW121151   9.744  12.903   0.549  0.0582 -1.1744  1.0614
70407SOL    HW221152   9.725  12.762   0.498  2.2808 -1.2201  0.2870
70408SOL     OW21153   2.560   5.527   5.868  0.4985  0.1964 -0.2562
70408SOL    HW121154   2.556   5.562   5.779  1.8676 -0.6100 -0.6788
70408SOL    HW221155   2.572   5.604   5.923  0.5677  0.6391 -0.8716
70409SOL     OW21156   4.233   8.776   9.977  0.2339 -0.0018  0.2828
70409SOL    HW121157   4.169   8.709   9.952  0.5878 -0.0693 -0.4583
70409SOL    HW221158   4.318   8.732   9.972  0.2907 -0.2465  2.3870
70410SOL     OW21159  13.217  10.238   5.899 -0.2662 -0.4075  0.3489
70410SOL    HW121160  13.222  10.216   5.992  0.7324 -1.1599  0.1363
70410SOL    HW221161  13.282  10.309   5.888  0.8683 -1.4755 -0.0684
70411SOL     OW21162   2.353   6.880  12.173 -0.1525  0.1790 -0.1920
70411SOL    HW121163   2.313   6.916  12.252  0.8195  0.2955  0.2581
70411SOL    HW221164   2.373   6.789  12.196  2.0006  0.7676  0.4330
70412SOL     OW21165   2.126   4.463   0.345 -0.2833  0.1281  0.1797
70412SOL    HW121166   2.039   4.469   0.306  0.5644 -0.5745 -1.9300
70412SOL    HW221167   2.174   4.403   0.289  1.6234  0.5765  1.2364
70413SOL     OW21168   0.058  10.660   0.668 -0.0736 -0.1607  0.2924
70413SOL    HW121169   0.088  10.667   0.577 -1.3442  0.5490 -0.0918
70413SOL    HW221170  -0.030  10.624   0.662  0.0974 -0.7715  1.2983
70414SOL     OW21171   0.735   5.039  12.150  0.2158  0.2943  0.0065
70414SOL    HW121172   0.741   5.091  12.070 -0.9491  2.1272  1.0225
70414SOL    HW221173   0.648   5.060  12.185  0.1225 -1.5909  1.0134
70415SOL     OW21174   8.725   2.561   3.528  0.0069 -0.0840 -0.2237
70415SOL    HW121175   8.757   2.569   3.439 -0.7900 -0.6469 -0.5732
70415SOL    HW221176   8.800   2.585   3.583  0.7260 -0.4605 -1.0217
70416SOL     OW21177   8.320   5.436  12.295  0.6615 -0.0121  0.5066
70416SOL    HW121178   8.250   5.473  12.242 -0.0576  1.7982  2.5420
70416SOL    HW221179   8.333   5.348  12.261 -1.1780  0.3194 -1.2336
70417SOL     OW21180   8.110   9.889  10.224  0.5967 -0.2862 -0.5137
70417SOL    HW121181   8.105   9.870  10.130 -0.7334 -0.4371 -0.4299
70417SOL    HW221182   8.135   9.805  10.263  2.8339  0.1665 -0.8489
70418SOL     OW21183   2.038   6.918   7.688  0.3150 -0.2162  0.1856
70418SOL    HW121184   2.004   7.006   7.672 -0.3595 -0.2917  1.1596
70418SOL    HW221185   2.048   6.880   7.600 -3.7767 -0.8275 -0.2192
70419SOL     OW21186   5.460   0.490   9.879 -0.7408  0.1995 -0.0330
70419SOL    HW121187   5.472   0.548   9.954 -3.5189 -0.1275  0.7619
70419SOL    HW221188   5.389   0.530   9.829 -0.4542 -0.7985 -1.2958
70420SOL     OW21189   9.221   0.397  12.061 -0.0931 -0.2307  0.9762
70420SOL    HW121190   9.213   0.419  11.969 -1.5293 -2.3599  0.5086
70420SOL    HW221191   9.284   0.325  12.064 -2.6161 -2.6454  1.0527
70421SOL     OW21192   8.333  11.143  10.188 -0.1668  0.5540 -0.0578
70421SOL    HW121193   8.302  11.053  10.175  1.7267 -0.0077 -1.0500
70421SOL    HW221194   8.259  11.198  10.162 -1.0129 -0.7102 -0.4158
70422SOL     OW21195   2.940   2.208   8.596  0.1666 -0.0509  0.3571
70422SOL    HW121196   2.942   2.112   8.596 -0.5383 -0.0641  0.7847
70422SOL    HW221197   2.848   2.231   8.602  0.2014  0.6605 -1.2608
70423SOL     OW21198   1.855   4.215   7.637  0.7867 -0.2628 -0.0397
70423SOL    HW121199   1.842   4.121   7.643 -0.4855 -0.0088  2.4333
70423SOL    HW221200   1.794   4.243   7.568  2.9367 -1.4409 -2.5853
70424SOL     OW21201  12.980  13.139   9.860  0.1099  0.5489 -0.0444
70424SOL    HW121202  12.939  13.139   9.946  2.0203  1.2078  0.9323
70424SOL    HW221203  13.050  13.074   9.866 -0.3355 -0.1018 -1.4346
70425SOL     OW21204   2.094   3.378  11.102 -0.3784  0.2224 -0.1152
70425SOL    HW121205   2.149   3.456  11.109 -0.9737  0.5330  1.5845
70425SOL    HW221206   2.117   3.325  11.178 -1.5847 -0.2008 -0.0208
70426SOL     OW21207   8.172   7.683  12.204  0.1886  0.3272  0.4856
70426SOL    HW121208   8.146   7.605  12.155 -4.1440  0.2395  2.4498
70426SOL    HW221209   8.222   7.650  12.278  1.0954 -0.2071 -0.3483
70427SOL     OW21210   8.580   2.320   4.976 -0.0384  0.1103  0.1556
70427SOL    HW121211   8.580   2.317   4.880 -0.7422  0.1519  0.1522
70427SOL    HW221212   8.671   2.338   4.999  0.0459  0.5723 -0.5196
70428SOL     OW21213   1.567   9.450   0.731 -0.1304  0.6536 -0.3136
70428SOL    HW121214   1.588   9.533   0.688  0.1973  0.7226 -0.0290
70428SOL    HW221215   1.626   9.447   0.806 -1.6352  1.2168  0.9623
70429SOL     OW21216   4.784   3.891   2.116 -0.4195 -0.1864  0.1565
70429SOL    HW121217   4.779   3.829   2.189  0.5438  0.8826  1.1760
70429SOL    HW221218   4.738   3.969   2.148 -0.7425 -0.0044 -0.7243
70430SOL     OW21219   3.031   7.444  12.107 -0.2576  0.1259  0.2018
70430SOL    HW121220   3.053   7.409  12.193  1.2210  0.8624  0.1517
70430SOL    HW221221   2.994   7.370  12.058  0.6781 -0.7708  0.8317
70431SOL     OW21222  10.535   4.101  10.703 -0.0066  0.2282 -0.1495
70431SOL    HW121223  10.567   4.107  10.794  0.5855  0.3951 -0.3615
70431SOL    HW221224  10.533   4.007  10.685 -0.5223  0.1730  0.1699
70432SOL     OW21225  10.980  12.707   2.860  0.4295 -0.1565  0.0917
70432SOL    HW121226  11.033  12.686   2.937  0.2466  1.2550  0.6327
70432SOL    HW221227  10.913  12.767   2.893  0.1179  0.1682 -1.0928
70433SOL     OW21228  11.407   7.675   9.126 -0.1953  0.3305  0.3837
70433SOL    HW121229  11.443   7.596   9.168 -0.0934  1.2637  2.1510
70433SOL    HW221230  11.464   7.746   9.156 -1.5510  1.3754  0.5953
70434SOL     OW21231   7.991  11.068  12.827 -0.0624  0.2519  0.0136
70434SOL    HW121232   8.006  11.107  12.740 -0.4256  0.2300 -0.0641
70434SOL    HW221233   7.910  11.018  12.816 -1.2231  1.8371  0.8601
70435SOL     OW21234   3.264  13.201   4.015  0.6715  0.2546 -0.5168
70435SOL    HW121235   3.309  13.250   4.084  0.1718 -0.9608  0.7164
70435SOL    HW221236   3.193  13.259   3.987 -0.9961 -0.3343  2.1255
70436SOL     OW21237   4.393   9.977   2.118 -0.2225 -0.1017 -0.1559
70436SOL    HW121238   4.341  10.031   2.059 -0.7885 -0.0147  0.4069
70436SOL    HW221239   4.451   9.927   2.061 -0.9803 -0.2567 -0.8071
70437SOL     OW21240  10.518  10.445   4.866  0.1644 -0.2720  0.1235
70437SOL    HW121241  10.563  10.447   4.781 -0.0822  1.2651  0.0070
70437SOL    HW221242  10.588  10.461   4.930  0.0994  0.1089  0.0975
70438SOL     OW21243   2.012   5.496   3.510  0.4163 -0.1797 -0.3706
70438SOL    HW121244   2.036   5.488   3.417 -0.6944 -1.6037 -0.5613
70438SOL    HW221245   1.924   5.459   3.516  1.2866 -2.1359  1.6245
70439SOL     OW21246   9.014   6.945   6.782  0.0720 -0.1457  0.4144
70439SOL    HW121247   9.025   7.038   6.766 -0.6006 -0.4863 -2.4827
70439SOL    HW221248   9.072   6.902   6.719 -1.2564 -1.6892  0.1610
70440SOL     OW21249   0.560   9.939  12.518 -0.2031  0.2796  0.1439
70440SOL    HW121250   0.537   9.959  12.428 -0.4350  0.2050  0.1875
70440SOL    HW221251   0.555   9.844  12.524 -0.0096  0.2707  0.1876
70441SOL     OW21252   3.472   4.486   0.442  0.0633 -0.2935  0.6357
70441SOL    HW121253   3.442   4.572   0.473  0.5583 -0.0798  0.5233
70441SOL    HW221254   3.560   4.477   0.476  0.6806  0.0039 -0.7871
70442SOL     OW21255   6.148  10.152  12.945 -0.3717  0.5443 -0.2091
70442SOL    HW121256   6.122  10.204  12.869  1.0664  0.8128 -0.5497
70442SOL    HW221257   6.221  10.098  12.914 -2.0675 -2.0473  0.0156
70443SOL     OW21258   2.553   7.733   6.442 -0.5670  0.3766 -0.1736
70443SOL    HW121259   2.485   7.691   6.495 -1.0915  0.7964 -0.4935
70443SOL    HW221260   2.516   7.734   6.354  0.0119  0.2933 -0.4186
70444SOL     OW21261   8.962   1.805   0.055 -0.7975 -0.0467 -0.0893
70444SOL    HW121262   9.043   1.788   0.102 -0.3953 -0.7356 -0.9928
70444SOL    HW221263   8.930   1.718   0.029 -0.2202  0.3417 -2.3187
70445SOL     OW21264  11.858  10.388   3.372 -0.0447  0.0111 -0.2056
70445SOL    HW121265  11.788  10.380   3.437 -0.5885  0.2249 -0.7556
70445SOL    HW221266  11.913  10.460   3.404  0.1052 -0.3611  0.3880
70446SOL     OW21267   6.497   6.726  10.421 -0.5612 -0.0589 -0.3098
70446SOL    HW121268   6.577   6.771  10.449 -1.6862  1.2966  0.9054
70446SOL    HW221269   6.478   6.761  10.335 -0.9184  1.1104  0.2377
70447SOL     OW21270   3.909   9.427   9.312  0.3917  0.3924 -0.0339
70447SOL    HW121271   3.924   9.517   9.283  3.1040 -0.3706 -1.2935
70447SOL    HW221272   3.901   9.377   9.231  2.3606 -0.9586  0.5424
70448SOL     OW21273  10.092   9.646   5.251 -0.4132  0.4397 -0.2493
70448SOL    HW121274  10.131   9.608   5.330 -2.2203  0.7576  0.8577
70448SOL    HW221275  10.143   9.610   5.179  1.8132  0.7665  1.0831
70449SOL     OW21276   9.389   2.005   2.143  0.1938 -0.2883  0.4316
70449SOL    HW121277   9.334   2.019   2.067  1.5422  1.8272 -0.2413
70449SOL    HW221278   9.357   2.066   2.209  0.9442  0.1039  0.4515
70450SOL     OW21279  10.211   5.622   2.672  0.1589 -0.4518  0.2380
70450SOL    HW121280  10.226   5.656   2.584 -0.9192 -1.7350 -0.4614
70450SOL    HW221281  10.152   5.548   2.660 -1.1002  0.1574  2.1699
70451SOL     OW21282   0.977  11.528  12.728  0.2158 -0.6514 -0.3510
70451SOL    HW121283   0.957  11.603  12.673  1.3967  1.6219  2.0841
70451SOL    HW221284   1.045  11.481  12.680  0.3878  0.5688 -1.3543
70452SOL     OW21285   0.363  12.508   8.769 -0.0159  0.2503  0.2280
70452SOL    HW121286   0.285  12.562   8.752  1.0512  1.2956 -1.7676
70452SOL    HW221287   0.387  12.473   8.683  1.8403  0.1299  0.7448
70453SOL     OW21288   3.672   9.321   1.318  0.1927  0.2862  0.1171
70453SOL    HW121289   3.605   9.255   1.335  0.6942 -0.4788 -0.7456
70453SOL    HW221290   3.753   9.270   1.310  1.1498  1.2960  2.4806
70454SOL     OW21291  11.323   7.362  11.315 -0.2026 -0.0158  0.2150
70454SOL    HW121292  11.415   7.373  11.335  0.0491  4.0522 -2.0240
70454SOL    HW221293  11.277   7.413  11.382 -0.6418 -0.1248  0.0008
70455SOL     OW21294  13.082   0.654  12.664 -0.1658  0.7706  0.0510
70455SOL    HW121295  13.049   0.574  12.704 -0.6079  1.4644  1.1374
70455SOL    HW221296  13.177   0.645  12.666 -0.2112  0.3623  0.3524
70456SOL     OW21297   2.965   5.886   7.154  0.0225  0.1927  0.1737
70456SOL    HW121298   3.053   5.886   7.116 -0.4776  1.9195 -1.0616
70456SOL    HW221299   2.915   5.827   7.097 -0.1807  1.0540 -0.5592
70457SOL     OW21300   8.840   1.592  10.800  0.0659  0.3591  0.2348
70457SOL    HW121301   8.923   1.587  10.846  0.2180  2.0042  0.1816
70457SOL    HW221302   8.864   1.604  10.708 -0.2419 -1.1516 -0.0665
70458SOL     OW21303   2.667   9.458   3.751  0.2472 -0.1458 -0.0443
70458SOL    HW121304   2.730   9.530   3.746  0.4112 -0.2189  0.8938
70458SOL    HW221305   2.714   9.388   3.796  0.4974 -1.3073 -1.9874
70459SOL     OW21306   4.149   2.994   7.277  0.2167 -0.1509 -0.2115
70459SOL    HW121307   4.109   3.016   7.361  0.6452  1.7235 -0.4518
70459SOL    HW221308   4.243   2.994   7.294  0.3998  1.8024 -0.9770
70460SOL     OW21309  12.978  10.868   9.138  0.0904  0.0891  0.2219
70460SOL    HW121310  12.932  10.794   9.179  0.4086  0.5719  1.4899
70460SOL    HW221311  12.992  10.839   9.048 -1.7638 -0.4877  0.0720
70461SOL     OW21312   9.057   9.423   5.111 -0.0923 -0.2056 -0.0390
70461SOL    HW121313   9.022   9.451   5.026 -1.5214 -1.3876  0.1123
70461SOL    HW221314   8.980   9.412   5.167  0.5962 -1.7493  0.6755
70462SOL     OW21315   9.782   3.176   0.002 -0.1349  0.1719  0.1913
70462SOL    HW121316   9.771   3.167  -0.093  0.6329 -1.1856  0.2110
70462SOL    HW221317   9.696   3.202   0.034 -0.8866 -1.1356 -0.6825
70463SOL     OW21318   4.633   2.966   3.759  0.1691  0.1627  0.2851
70463SOL    HW121319   4.539   2.948   3.761  0.2594 -0.4057 -0.2916
70463SOL    HW221320   4.673   2.887   3.795  0.4043  0.7038  1.2664
70464SOL     OW21321   8.674   9.995   0.922  0.1544 -0.7570  0.8336
70464SOL    HW121322   8.672   9.959   0.834  1.1916 -0.2541  0.5918
70464SOL    HW221323   8.585  10.026   0.938 -0.1993 -1.4541  0.2236
70465SOL     OW21324   7.405   4.109   2.531 -0.0714  0.0555 -0.4581
70465SOL    HW121325   7.434   4.138   2.444 -0.7949  1.1988 -0.3432
70465SOL    HW221326   7.476   4.134   2.589  0.2174 -0.2948 -0.6610
70466SOL     OW21327   1.129  10.714  12.158  0.2173  0.6866  0.3079
70466SOL    HW121328   1.165  10.773  12.224  0.7831 -0.3340  0.9315
70466SOL    HW221329   1.092  10.772  12.092  1.4137  1.7578  0.5393
70467SOL     OW21330   3.254   2.209   5.851  0.2417 -0.2624 -0.2658
70467SOL    HW121331   3.162   2.235   5.849 -0.0711 -1.1960  0.6831
70467SOL    HW221332   3.293   2.267   5.916  0.1056 -0.4694  0.0062
70468SOL     OW21333   7.162   3.968  12.550 -0.0428  0.5858  0.5355
70468SOL    HW121334   7.138   3.932  12.465 -1.9487 -1.0116  1.6603
70468SOL    HW221335   7.255   3.990  12.541  0.3502 -1.4325 -1.3420
70469SOL     OW21336   3.198   9.680   7.953 -0.2643  0.2060  0.0913
70469SOL    HW121337   3.231   9.632   7.877  1.5293  1.9789 -0.3382
70469SOL    HW221338   3.166   9.763   7.917 -1.9916 -0.0285  0.9800
70470SOL     OW21339   4.720   7.798   4.841  0.0021 -0.5586  0.3557
70470SOL    HW121340   4.691   7.854   4.913 -0.4468 -0.3113 -0.0087
70470SOL    HW221341   4.769   7.728   4.883  0.0916 -0.1947  0.8669
70471SOL     OW21342  12.631   9.876  12.629 -0.1190  0.4051  0.0724
70471SOL    HW121343  12.590   9.796  12.663  0.0499  0.7806  1.1956
70471SOL    HW221344  12.574   9.946  12.659  0.4573  0.8071  0.2379
70472SOL     OW21345   3.400  10.517  12.132 -0.3540 -0.1674  0.0165
70472SOL    HW121346   3.416  10.543  12.042  1.5377 -0.4685  0.2294
70472SOL    HW221347   3.462  10.568  12.184 -0.8126 -0.6351  1.0670
70473SOL     OW21348   7.944  12.309  12.306 -0.7533  0.0371  0.2494
70473SOL    HW121349   7.899  12.392  12.290  0.3228  0.3396 -1.5755
70473SOL    HW221350   7.915  12.252  12.235 -0.0028 -0.4832  0.3484
70474SOL     OW21351   7.987  10.122   4.707 -0.2258 -0.5273  0.0919
70474SOL    HW121352   7.997  10.215   4.725  1.7552 -0.1909 -2.1591
70474SOL    HW221353   8.034  10.078   4.777  1.6862  0.3729 -0.5610
70475SOL     OW21354   8.963   8.311   5.754 -0.0900 -0.4438 -0.2006
70475SOL    HW121355   8.985   8.280   5.841 -2.7385 -1.4111  0.2105
70475SOL    HW221356   8.919   8.395   5.768 -0.5936 -0.6381 -0.5952
70476SOL     OW21357   2.704   9.791   1.394 -0.1528  0.4015 -0.3122
70476SOL    HW121358   2.788   9.747   1.410 -0.0118  1.1679  1.1783
70476SOL    HW221359   2.651   9.771   1.471 -0.8078  1.1831 -0.5477
70477SOL     OW21360   0.828   2.423  10.597 -0.1344  0.2131  0.1152
70477SOL    HW121361   0.893   2.488  10.571 -0.7847  1.0232  0.4905
70477SOL    HW221362   0.747   2.473  10.609 -0.1247 -0.2526  2.6984
70478SOL     OW21363  11.219   4.915  13.068  0.1277  0.1229  0.4618
70478SOL    HW121364  11.266   4.838  13.037 -0.5121  0.5317 -1.7431
70478SOL    HW221365  11.243   4.984  13.005 -1.6023  0.9237  0.6214
70479SOL     OW21366  12.410   2.575   1.426  0.1825  0.3531 -0.5526
70479SOL    HW121367  12.376   2.524   1.499 -2.2379  0.6732 -1.3817
70479SOL    HW221368  12.480   2.628   1.464 -0.7475  0.2219  1.4366
70480SOL     OW21369   3.133   8.195   6.739 -0.5039  0.7471  0.1486
70480SOL    HW121370   3.146   8.102   6.753  0.2893  0.9048  0.4928
70480SOL    HW221371   3.101   8.228   6.824  0.1180  0.9490  0.3066
70481SOL     OW21372   0.000   6.368  10.398 -0.0649  0.3432 -0.0473
70481SOL    HW121373   0.031   6.282  10.426  0.0007  0.4141  0.0958
70481SOL    HW221374  -0.045   6.404  10.475 -1.8125 -0.3739 -0.6955
70482SOL     OW21375   7.323  10.025   1.232 -0.0249 -0.0506 -0.0512
70482SOL    HW121376   7.359   9.937   1.228 -0.1192 -0.1504  0.9556
70482SOL    HW221377   7.370  10.074   1.165  1.0862 -0.4896  0.3910
70483SOL     OW21378   1.988   5.736   4.936  0.4761 -0.2877 -0.1983
70483SOL    HW121379   2.078   5.705   4.929  0.6221 -0.0095  0.3475
70483SOL    HW221380   1.946   5.674   4.997  0.3097 -0.3884 -0.4129
70484SOL     OW21381   3.261   1.046   8.650  0.4002 -0.3481  0.0753
70484SOL    HW121382   3.303   0.982   8.707 -0.5507 -0.9317  0.1526
70484SOL    HW221383   3.196   1.089   8.706  2.1074  1.8779  0.4787
70485SOL     OW21384   6.590   4.817   3.973  0.0547  0.1571  0.3682
70485SOL    HW121385   6.631   4.754   3.914 -3.4099 -0.3948 -1.7454
70485SOL    HW221386   6.514   4.849   3.925 -1.8047  1.3346  3.7373
70486SOL     OW21387   3.691   8.409   8.995 -0.3801  0.2992  0.4499
70486SOL    HW121388   3.718   8.381   9.082  0.0947  1.3334  0.6537
70486SOL    HW221389   3.653   8.331   8.955  0.2342 -0.4234  1.2468
70487SOL     OW21390   9.492   1.182  10.922  0.0174  0.6800 -0.1781
70487SOL    HW121391   9.492   1.093  10.886  1.7281  0.1304  1.0561
70487SOL    HW221392   9.550   1.177  10.998  0.5306  2.9754 -0.3430
70488SOL     OW21393   9.433   4.202  11.549 -0.4190  0.2590  0.1438
70488SOL    HW121394   9.503   4.251  11.507 -0.4444  1.5486  1.5131
70488SOL    HW221395   9.368   4.268  11.573 -2.5353 -0.9845 -1.8001
70489SOL     OW21396   4.993   5.618   3.395  0.1160 -0.0226  0.0540
70489SOL    HW121397   5.068   5.618   3.336  0.4045  1.3303  0.3622
70489SOL    HW221398   4.918   5.635   3.339  0.4900  2.1352  0.1138
70490SOL     OW21399   5.876  11.134  12.310  0.5759  0.0786  0.4069
70490SOL    HW121400   5.964  11.172  12.317  1.6164 -2.3347  1.8804
70490SOL    HW221401   5.891  11.042  12.288 -1.5749 -0.4327  0.8074
70491SOL     OW21402  12.305   3.192   3.461 -0.2028 -0.3557  0.1704
70491SOL    HW121403  12.232   3.135   3.484  0.6213 -0.7361  2.1424
70491SOL    HW221404  12.291   3.271   3.514  1.2493 -0.8317  1.3660
70492SOL     OW21405   2.097   4.314   9.919  0.8455  0.2688 -0.2867
70492SOL    HW121406   2.033   4.366   9.968  1.2895  0.1688  0.4207
70492SOL    HW221407   2.105   4.233   9.970  0.0996 -0.5531 -1.4072
70493SOL     OW21408   9.588   5.284   0.298 -0.1352  0.7405 -0.0588
70493SOL    HW121409   9.553   5.335   0.225 -3.1844 -1.7068 -0.4695
70493SOL    HW221410   9.526   5.212   0.310  1.8236 -0.6356  3.0683
70494SOL     OW21411   3.539   8.518   0.713 -0.3674  0.0204  0.0027
70494SOL    HW121412   3.483   8.453   0.757 -1.4044 -0.4041 -1.8604
70494SOL    HW221413   3.477   8.579   0.673  0.5934  1.9907  1.3766
70495SOL     OW21414   8.696   6.873   9.401 -0.2210  0.0791 -0.2752
70495SOL    HW121415   8.621   6.818   9.423  0.3915 -0.8042 -0.3512
70495SOL    HW221416   8.700   6.938   9.472  0.2394 -1.2112  0.9256
70496SOL     OW21417  10.080  12.747  10.805 -0.1571 -0.9262 -0.2556
70496SOL    HW121418  10.031  12.826  10.822 -0.7923 -0.7760 -2.4349
70496SOL    HW221419  10.171  12.776  10.795 -0.2208 -0.6376  0.0143
70497SOL     OW21420   8.771   2.855   0.647  0.2321 -0.2762 -0.0814
70497SOL    HW121421   8.684   2.837   0.612 -0.2009 -0.7809  1.1684
70497SOL    HW221422   8.760   2.846   0.742  1.5086  0.2707  0.1351
70498SOL     OW21423   1.470   1.650   5.001 -0.0949  0.3364  0.0711
70498SOL    HW121424   1.435   1.685   4.920 -1.3976  0.8871  0.8513
70498SOL    HW221425   1.486   1.727   5.056 -0.0872 -0.0890  0.6794
70499SOL     OW21426   1.248   4.216   3.231  0.1730  0.6438 -0.5044
70499SOL    HW121427   1.260   4.217   3.136  0.3948  1.6516 -0.4771
70499SOL    HW221428   1.319   4.161   3.263  0.2707  0.5330 -0.9030
70500SOL     OW21429   4.244   8.234   4.874 -0.0760 -0.4889  0.5736
70500SOL    HW121430   4.153   8.222   4.902 -0.2225  0.0432  0.3300
70500SOL    HW221431   4.284   8.148   4.888 -0.4820 -0.5856  1.1598
70501SOL     OW21432   2.708   9.346  11.015  0.2205 -0.4811 -0.0138
70501SOL    HW121433   2.789   9.334  11.064 -0.0999  1.4165  1.0886
70501SOL    HW221434   2.690   9.440  11.020 -1.9856 -0.8246 -0.3353
70502SOL     OW21435   1.128   0.211  10.760 -0.2613 -0.1417 -0.1969
70502SOL    HW121436   1.159   0.137  10.812  0.1032 -1.1034 -1.7336
70502SOL    HW221437   1.094   0.172  10.680 -2.3908  1.1492 -0.0228
70503SOL     OW21438  11.431   8.654  10.814  0.1571  0.3729  0.0686
70503SOL    HW121439  11.461   8.638  10.904  1.9701 -4.0826 -1.0379
70503SOL    HW221440  11.486   8.726  10.783 -0.2879  1.7983  2.3583
70504SOL     OW21441  10.308   1.382  10.111  0.0683 -0.8718  0.2173
70504SOL    HW121442  10.257   1.435  10.172 -0.6323 -0.6485 -0.5449
70504SOL    HW221443  10.257   1.302  10.100  1.1571 -1.7841  1.4186
70505SOL     OW21444  11.954  11.650  13.298 -0.0931  0.0404  0.1222
70505SOL    HW121445  11.877  11.642  13.242 -1.6988 -0.2508  2.2292
70505SOL    HW221446  11.961  11.744  13.316  0.6859  0.1844 -0.8746
70506SOL     OW21447   2.796  11.909   6.812 -0.1825 -0.2913 -0.1960
70506SOL    HW121448   2.741  11.970   6.762  0.3396  0.8312  0.5644
70506SOL    HW221449   2.804  11.949   6.898  1.6419 -0.5447 -0.2183
70507SOL     OW21450   9.316   3.655  12.518  0.4254 -0.2364 -0.3541
70507SOL    HW121451   9.288   3.739  12.483  1.7816  0.1941 -0.4570
70507SOL    HW221452   9.362   3.612  12.446  1.4327 -0.2266  0.2596
70508SOL     OW21453  12.385   1.602   7.199 -0.1016 -0.0550 -0.6456
70508SOL    HW121454  12.390   1.512   7.229 -0.0826  0.4085  0.7918
70508SOL    HW221455  12.299   1.633   7.229  1.1315  1.3396  1.6753
70509SOL     OW21456   4.089  12.248   9.310  0.0378 -0.7060 -0.2498
70509SOL    HW121457   4.152  12.317   9.330 -0.2666 -0.1190 -1.2185
70509SOL    HW221458   4.041  12.233   9.391  0.8091 -0.5172  0.2437
70510SOL     OW21459   3.594   8.932  11.478 -0.3196  0.0978 -0.7523
70510SOL    HW121460   3.510   8.886  11.470  0.4227 -1.3397 -0.4960
70510SOL    HW221461   3.609   8.940  11.572  0.0244 -0.0016 -0.7973
70511SOL     OW21462  11.238   6.870   8.363  0.3958  0.2864  0.2654
70511SOL    HW121463  11.278   6.821   8.435  3.1388 -0.1500 -1.4399
70511SOL    HW221464  11.160   6.819   8.340  0.1127 -0.1978  2.0958
70512SOL     OW21465   4.132   6.729   0.171 -0.7857 -0.0183  0.1910
70512SOL    HW121466   4.050   6.764   0.138  0.0002  1.0990 -0.6689
70512SOL    HW221467   4.107   6.676   0.247 -2.2393  0.6599  0.2150
70513SOL     OW21468   6.898   8.281   3.788  0.0401 -0.6353 -0.4961
70513SOL    HW121469   6.860   8.368   3.803 -1.2018 -1.4014  1.0943
70513SOL    HW221470   6.974   8.277   3.845 -0.8454 -1.1456  0.6894
70514SOL     OW21471   9.375  12.432  12.619 -0.6782  0.0651  0.1727
70514SOL    HW121472   9.349  12.485  12.694  0.6133  0.7206  0.1795
70514SOL    HW221473   9.367  12.342  12.650  3.4604  0.2423  2.5233
70515SOL     OW21474   8.877   7.953   3.582  0.0411 -0.1195  0.5417
70515SOL    HW121475   8.822   7.935   3.658 -0.2388  0.0965  0.3896
70515SOL    HW221476   8.957   7.902   3.598  0.5597  1.0084  1.6559
70516SOL     OW21477   8.460   1.116   2.911 -0.3624 -0.5678 -0.2077
70516SOL    HW121478   8.491   1.204   2.888 -0.8017 -0.5507 -0.7670
70516SOL    HW221479   8.476   1.064   2.832 -1.0284 -0.7431 -0.2367
70517SOL     OW21480   1.755   4.373  12.355  0.1670  0.2125 -0.0010
70517SOL    HW121481   1.790   4.452  12.396  0.4183 -0.4164  1.0371
70517SOL    HW221482   1.693   4.338  12.419  0.6938 -0.8812 -0.0651
70518SOL     OW21483   6.540   5.404  11.330 -0.2845  0.3099  0.3439
70518SOL    HW121484   6.523   5.453  11.409  0.1731  1.5532 -0.2972
70518SOL    HW221485   6.631   5.375  11.339 -0.1679  0.6231  0.1950
70519SOL     OW21486   8.028   3.435   0.234 -0.0217  0.1509  0.6702
70519SOL    HW121487   8.009   3.439   0.328 -0.8638 -0.1738  0.5254
70519SOL    HW221488   8.119   3.463   0.227 -0.1320  0.7859  1.5188
70520SOL     OW21489  13.023  11.003   3.156  0.5872 -0.3733  0.5124
70520SOL    HW121490  12.959  11.014   3.226  1.4703  2.2516  1.0310
70520SOL    HW221491  13.101  10.969   3.199 -0.0518 -2.5645  0.0560
70521SOL     OW21492   3.881   5.936   3.667 -0.4952  0.3904  0.2830
70521SOL    HW121493   3.948   6.000   3.640  0.5822 -0.9959 -0.5031
70521SOL    HW221494   3.800   5.969   3.628  0.3650  0.3972 -1.6631
70522SOL     OW21495   7.088  11.146   9.924 -0.2175 -0.0974 -0.2193
70522SOL    HW121496   7.062  11.237   9.912  0.6904  0.3308  0.8875
70522SOL    HW221497   7.012  11.095   9.893 -0.9182  1.0278 -0.4096
70523SOL     OW21498   8.227   0.836   5.309 -0.3417  0.1727  0.2741
70523SOL    HW121499   8.240   0.838   5.404 -1.4716 -0.8361  0.4775
70523SOL    HW221500   8.200   0.746   5.291  0.1781  0.2598 -1.0650
70524SOL     OW21501   9.891   0.038   1.933 -0.3719 -0.0013 -0.3408
70524SOL    HW121502   9.871   0.030   2.026 -2.8621 -0.0547 -0.8057
70524SOL    HW221503   9.922  -0.049   1.908  0.7499  0.1397  0.5009
70525SOL     OW21504  12.571  12.718   7.581 -0.0474 -0.3829 -0.7693
70525SOL    HW121505  12.612  12.687   7.662 -0.6330 -0.8028 -0.6300
70525SOL    HW221506  12.556  12.812   7.597 -0.1318 -0.4558 -0.3974
70526SOL     OW21507   1.991   9.164   7.161  0.2718  0.0582  0.1071
70526SOL    HW121508   2.024   9.241   7.205  0.8918 -0.8513  1.2862
70526SOL    HW221509   2.069   9.115   7.135 -0.0755  0.4865 -1.8982
70527SOL     OW21510   5.377   2.643   4.523  0.2655 -0.0355  1.1419
70527SOL    HW121511   5.372   2.565   4.468  1.4251  0.8919 -0.3456
70527SOL    HW221512   5.298   2.693   4.500  0.9953  0.5842 -0.0927
70528SOL     OW21513  10.486   1.241  11.956 -0.4350 -0.4104 -0.3799
70528SOL    HW121514  10.540   1.163  11.971  1.2843  0.7440 -0.2727
70528SOL    HW221515  10.413   1.231  12.017  0.6971 -1.0929  0.9341
70529SOL     OW21516   0.821  11.857   1.033  0.1800  0.5998 -0.2590
70529SOL    HW121517   0.753  11.797   1.002  0.4668 -0.0475  0.3295
70529SOL    HW221518   0.778  11.913   1.096  0.7033 -1.5574  2.1879
70530SOL     OW21519   7.616  12.574   5.243 -0.0038  0.0203  1.0877
70530SOL    HW121520   7.530  12.610   5.266  0.2311  0.1875  1.7411
70530SOL    HW221521   7.669  12.650   5.222 -0.1558 -0.1197  0.1678
70531SOL     OW21522  12.113   9.568   8.634  0.5022 -0.1461  0.1936
70531SOL    HW121523  12.197   9.551   8.677  0.3767 -0.3522  0.3553
70531SOL    HW221524  12.069   9.632   8.691 -1.0927 -2.8493  2.2024
70532SOL     OW21525   4.998   2.396   7.369  0.8106 -0.1656  0.3758
70532SOL    HW121526   5.025   2.455   7.439  2.7582  0.6436 -0.9724
70532SOL    HW221527   4.903   2.394   7.375  0.9077 -1.2925  3.9326
70533SOL     OW21528   4.447   6.363   9.222  0.4286 -0.2981 -0.0851
70533SOL    HW121529   4.513   6.394   9.285  1.3093 -1.7986 -0.2056
70533SOL    HW221530   4.378   6.428   9.225  2.3606  1.8898 -0.6866
70534SOL     OW21531  12.731   0.985   2.297 -0.0251  0.1693 -0.4788
70534SOL    HW121532  12.706   1.068   2.258 -2.1966  0.2890  0.9863
70534SOL    HW221533  12.750   1.006   2.389 -1.8547 -1.0735  0.2430
70535SOL     OW21534  12.375   3.462   4.652 -0.4678 -0.5646  0.3504
70535SOL    HW121535  12.390   3.515   4.730  1.7881 -0.9280  0.2464
70535SOL    HW221536  12.296   3.497   4.613 -0.3144  1.1896  1.5365
70536SOL     OW21537   0.882   5.745   8.345 -0.3254  0.1076 -0.4233
70536SOL    HW121538   0.976   5.732   8.339 -0.3415  0.2859 -1.1157
70536SOL    HW221539   0.844   5.662   8.316 -0.3876 -0.1035  0.2322
70537SOL     OW21540   0.570   3.999   7.935  0.2059 -0.2142  0.3485
70537SOL    HW121541   0.513   3.989   8.012 -0.8114 -2.0443 -0.5636
70537SOL    HW221542   0.532   4.072   7.887  0.1954  0.2394  1.0319
70538SOL     OW21543   1.434   1.661  12.057 -0.2296  0.3631  0.3650
70538SOL    HW121544   1.451   1.611  11.977 -0.5377 -0.5331  0.8561
70538SOL    HW221545   1.340   1.681  12.054 -0.5636 -0.9933  1.2416
70539SOL     OW21546   8.544  10.404   8.772 -0.0415 -0.0457  0.3561
70539SOL    HW121547   8.611  10.438   8.832  1.7877 -1.5792 -0.6960
70539SOL    HW221548   8.541  10.466   8.700  2.9930 -1.6610 -1.3639
70540SOL     OW21549   2.776   8.640   4.646 -0.1122  0.1602 -0.1151
70540SOL    HW121550   2.792   8.546   4.657  0.9396  0.3982  0.5138
70540SOL    HW221551   2.699   8.645   4.589 -0.4972 -1.0820  0.2749
70541SOL     OW21552   6.890   1.871   1.506  0.1134 -0.1756 -0.1876
70541SOL    HW121553   6.830   1.927   1.456 -1.2191 -0.5960  0.8701
70541SOL    HW221554   6.835   1.831   1.573  1.4212 -1.2885  0.2717
70542SOL     OW21555   2.909   5.642   4.461 -1.2585  0.3410  0.0791
70542SOL    HW121556   2.959   5.582   4.516 -2.0971  0.6184  1.1816
70542SOL    HW221557   2.975   5.693   4.414 -0.5168 -0.0380  0.6966
70543SOL     OW21558   1.619   6.271   9.716 -0.3876  0.5880  0.1534
70543SOL    HW121559   1.627   6.366   9.716  3.6590  0.4063 -0.1442
70543SOL    HW221560   1.607   6.247   9.624  1.3871  0.7582 -0.1549
70544SOL     OW21561   1.106  12.759   3.337 -0.4381 -0.1193  0.2879
70544SOL    HW121562   1.180  12.803   3.295 -2.0394  1.7815 -0.7617
70544SOL    HW221563   1.098  12.676   3.289  0.5708 -0.0350 -0.0584
70545SOL     OW21564  12.909   5.196   4.302  0.1297  0.1509  0.6582
70545SOL    HW121565  13.002   5.193   4.279 -0.2688  0.7595 -1.2053
70545SOL    HW221566  12.898   5.123   4.363  1.6843 -0.3911  0.3568
70546SOL     OW21567   1.364  12.587   5.156 -0.0401  0.7280 -0.5566
70546SOL    HW121568   1.305  12.639   5.211 -0.4422 -0.3374  0.0390
70546SOL    HW221569   1.309  12.555   5.085  0.2398  1.2063 -1.0009
70547SOL     OW21570   0.129   6.989   4.487 -0.2626 -0.7570 -0.9070
70547SOL    HW121571   0.095   7.067   4.530 -0.6339 -0.7635 -1.1910
70547SOL    HW221572   0.168   6.937   4.558 -0.6910 -0.6722 -0.6112
70548SOL     OW21573   1.014   4.974   1.151  0.5258 -0.5562  0.3858
70548SOL    HW121574   1.006   5.020   1.235 -0.7215 -0.1496  0.0701
70548SOL    HW221575   0.937   4.917   1.148 -0.3104  0.6019 -1.1724
70549SOL     OW21576   6.967   6.008  10.196  0.3683 -0.4698  0.3012
70549SOL    HW121577   7.030   6.065  10.153  1.3106 -2.4250 -1.0243
70549SOL    HW221578   6.893   6.004  10.136  1.8083 -3.4445 -1.5158
70550SOL     OW21579   5.523   3.406   3.492 -0.0467  0.1411  0.3199
70550SOL    HW121580   5.502   3.408   3.399 -0.8892  1.2704  0.4978
70550SOL    HW221581   5.571   3.488   3.507  0.9444 -0.5000  0.6994
70551SOL     OW21582   0.340  12.376   2.982 -0.3328 -0.4511  0.4169
70551SOL    HW121583   0.351  12.467   2.957 -1.4832  0.1448  1.9193
70551SOL    HW221584   0.429  12.341   2.987  0.0423 -0.1785 -2.6444
70552SOL     OW21585   0.907   0.889   3.427  0.4582  0.4349 -0.0385
70552SOL    HW121586   0.932   0.975   3.460 -1.6661  0.8986  0.5656
70552SOL    HW221587   0.933   0.828   3.496  1.0462  0.7193 -0.0091
70553SOL     OW21588   9.467   8.322   8.307 -0.2866 -0.0967 -0.0794
70553SOL    HW121589   9.473   8.267   8.228 -0.9534  2.8632 -2.3746
70553SOL    HW221590   9.518   8.275   8.373  4.6619 -0.5040 -3.6297
70554SOL     OW21591  10.691   5.735  10.579 -0.2654 -0.4298  0.5174
70554SOL    HW121592  10.676   5.706  10.489 -5.0944 -3.6207  2.0142
70554SOL    HW221593  10.623   5.800  10.595  0.6591  0.2535  1.8602
70555SOL     OW21594  11.328   1.504   2.860 -0.0259  0.0901 -0.6012
70555SOL    HW121595  11.418   1.516   2.889  0.5633 -2.2661 -1.1939
70555SOL    HW221596  11.275   1.526   2.936  1.1188  0.4405  0.1173
70556SOL     OW21597   3.080   4.805   6.383 -0.1216  0.3959 -0.3463
70556SOL    HW121598   3.034   4.780   6.303 -0.5631  2.1517 -0.6643
70556SOL    HW221599   3.032   4.880   6.417 -0.3458 -0.6900  1.9531
70557SOL     OW21600   8.446   7.163   2.247  0.1560 -0.1799 -0.0146
70557SOL    HW121601   8.491   7.126   2.323  0.3045 -0.8448 -0.4220
70557SOL    HW221602   8.517   7.192   2.189  0.0864 -1.3434 -0.7140
70558SOL     OW21603   3.595  10.450   5.691  0.0777 -0.7642  0.2023
70558SOL    HW121604   3.636  10.389   5.630 -0.7228 -1.1537  0.0300
70558SOL    HW221605   3.502  10.426   5.689 -0.4324  1.0988 -0.6104
70559SOL     OW21606   1.922  10.829   3.717  0.1822  0.0848  1.0583
70559SOL    HW121607   1.956  10.877   3.792  0.3543  1.1364  0.3169
70559SOL    HW221608   1.906  10.895   3.650  1.3393 -0.9824 -0.3303
70560SOL     OW21609  10.363  11.571   5.522 -0.6296  0.6243  0.2994
70560SOL    HW121610  10.294  11.509   5.546 -0.8056  1.0558  0.9357
70560SOL    HW221611  10.341  11.651   5.570  0.6442  0.5827  0.9809
70561SOL     OW21612   6.892   9.084   7.636 -0.5856  0.4221  0.0743
70561SOL    HW121613   6.814   9.032   7.615 -0.6983 -1.3276  4.0038
70561SOL    HW221614   6.965   9.031   7.604 -0.8760  0.7096 -1.1090
70562SOL     OW21615   8.750   8.006   4.360  0.0940 -0.2883 -0.9448
70562SOL    HW121616   8.675   7.953   4.385 -0.1211  0.8794  1.2302
70562SOL    HW221617   8.743   8.017   4.265 -2.1017 -0.7713 -0.8834
70563SOL     OW21618  11.324  12.489   4.969  0.1534  0.1140 -0.2537
70563SOL    HW121619  11.254  12.537   5.013 -0.2224 -1.7973  1.4323
70563SOL    HW221620  11.297  12.485   4.877 -1.7050 -0.1047  0.2550
70564SOL     OW21621   6.827  12.768   5.245 -0.3524 -0.6355  0.4250
70564SOL    HW121622   6.900  12.733   5.194  0.1686  0.5250  0.3460
70564SOL    HW221623   6.843  12.739   5.334  0.6614  0.2688  0.5570
70565SOL     OW21624   8.508  13.156   3.046  0.0237  0.0873  0.2320
70565SOL    HW121625   8.430  13.212   3.050 -1.8179 -2.1814 -1.2523
70565SOL    HW221626   8.500  13.111   2.962  2.6168 -0.7311  0.3655
70566SOL     OW21627   2.018   4.541   6.456 -0.3194  0.4241  0.6820
70566SOL    HW121628   1.999   4.608   6.522 -0.1306  1.4494 -0.2763
70566SOL    HW221629   2.097   4.497   6.489  0.1397  1.3351  0.8517
70567SOL     OW21630   4.495   8.732  10.902 -0.0930 -0.2080  0.1016
70567SOL    HW121631   4.576   8.710  10.854 -0.4976 -1.0796 -0.2035
70567SOL    HW221632   4.426   8.686  10.854 -0.6800 -0.0428  0.7814
70568SOL     OW21633   4.910   7.845   0.387 -0.3802 -0.4370 -0.8398
70568SOL    HW121634   4.847   7.882   0.325 -1.6439  1.2210  1.2876
70568SOL    HW221635   4.963   7.920   0.414  0.3629 -1.1881 -0.1790
70569SOL     OW21636   4.946  10.565   4.021 -0.3094 -0.1551  0.2978
70569SOL    HW121637   4.937  10.660   4.027  0.5964 -0.0809  0.5445
70569SOL    HW221638   4.915  10.533   4.105  0.3287 -0.0040  0.5940
70570SOL     OW21639   6.117   6.164   1.942  0.1831 -0.0561 -0.3722
70570SOL    HW121640   6.108   6.188   2.034 -1.6656 -0.0028 -0.5239
70570SOL    HW221641   6.122   6.248   1.895 -0.3735 -0.0481 -0.4263
70571SOL     OW21642   1.511   5.003   6.566  0.1606 -0.1045  0.2246
70571SOL    HW121643   1.492   5.002   6.472  0.4982  0.8117  0.1383
70571SOL    HW221644   1.579   4.936   6.576  0.1226 -0.2106 -0.1863
70572SOL     OW21645   4.832   6.514   0.037  0.0419  0.8719 -0.3020
70572SOL    HW121646   4.844   6.537  -0.055  0.6029  0.3814 -0.3538
70572SOL    HW221647   4.745   6.475   0.041 -1.2000  3.4237 -0.1222
70573SOL     OW21648   1.278   3.549  12.680  0.0835  0.2691 -0.3154
70573SOL    HW121649   1.293   3.630  12.633  2.4140  0.1661  0.1643
70573SOL    HW221650   1.264   3.483  12.612 -3.1354  1.1733 -0.7176
70574SOL     OW21651   8.348  10.202   4.104 -0.3692 -0.1356 -0.1042
70574SOL    HW121652   8.411  10.271   4.082 -0.3669 -0.2590 -0.5043
70574SOL    HW221653   8.362  10.136   4.036 -0.3281 -0.5584  0.3107
70575SOL     OW21654   2.102   3.793   0.667  0.0523  0.4916 -0.3935
70575SOL    HW121655   2.134   3.706   0.642 -0.4007  0.2836 -0.2582
70575SOL    HW221656   2.178   3.850   0.656  1.2535 -0.4068  2.4538
70576SOL     OW21657   8.806  10.538   0.933  0.3928  0.2596 -0.2830
70576SOL    HW121658   8.821  10.464   0.992 -0.9601  0.5238  0.4538
70576SOL    HW221659   8.810  10.615   0.990  1.0324  0.6922 -0.9057
70577SOL     OW21660   6.164   6.741   9.364 -0.1524 -0.6231 -0.3859
70577SOL    HW121661   6.113   6.818   9.339 -0.6411 -0.5865  0.6806
70577SOL    HW221662   6.128   6.670   9.311 -0.7962 -0.4338 -0.2161
70578SOL     OW21663   6.576   0.019   6.619  0.2394 -0.0296 -0.4180
70578SOL    HW121664   6.572   0.088   6.685  0.8286  0.1310 -0.5431
70578SOL    HW221665   6.665   0.026   6.583  0.3889 -1.0269 -0.2504
70579SOL     OW21666  12.873   9.713  10.059  0.0822  0.1608  0.2650
70579SOL    HW121667  12.824   9.676  10.132  1.1353  0.6202  1.2196
70579SOL    HW221668  12.955   9.744  10.097  1.4352 -1.1734 -1.3888
70580SOL     OW21669   0.361  11.204   8.083  0.2588 -0.2450  0.3002
70580SOL    HW121670   0.367  11.283   8.136 -0.3930 -1.3849  2.2012
70580SOL    HW221671   0.443  11.201   8.033  2.4440 -0.6208  3.5650
70581SOL     OW21672   7.289   1.020  11.618 -0.2571 -0.1256 -0.3009
70581SOL    HW121673   7.221   0.969  11.576 -0.8255  1.6117 -1.5981
70581SOL    HW221674   7.357   0.956  11.640 -1.4865 -1.6032 -0.6561
70582SOL     OW21675   6.266   7.111   0.441  0.3304  0.4953 -0.4908
70582SOL    HW121676   6.193   7.135   0.384 -1.6919 -2.0960  0.7811
70582SOL    HW221677   6.325   7.061   0.385 -0.6741 -0.4082 -0.7637
70583SOL     OW21678   6.094   9.624   1.722 -0.5931  0.6179  0.1975
70583SOL    HW121679   6.188   9.634   1.705 -0.1535 -1.9753  0.6285
70583SOL    HW221680   6.082   9.657   1.811  0.2138 -0.2519  0.6513
70584SOL     OW21681   8.809  12.014   9.592  0.0187 -0.5084 -0.2654
70584SOL    HW121682   8.752  11.940   9.569  1.3945 -2.0915  1.0961
70584SOL    HW221683   8.762  12.060   9.662  0.3276 -1.7735  0.8182
70585SOL     OW21684   8.024  13.228   3.354  0.2784 -0.0060  0.1751
70585SOL    HW121685   7.930  13.223   3.339  0.5668  0.8594 -2.4272
70585SOL    HW221686   8.035  13.294   3.423 -0.9976 -0.4197  0.8035
70586SOL     OW21687   4.710   1.744   1.683 -0.1786  0.3028  0.2740
70586SOL    HW121688   4.700   1.661   1.730 -2.3746  1.1739  1.5292
70586SOL    HW221689   4.637   1.746   1.621  0.8021  0.6082 -0.9091
70587SOL     OW21690   3.080   5.419  10.354 -0.4641  0.3443 -1.0385
70587SOL    HW121691   3.169   5.452  10.361 -0.7712  0.9730  0.1209
70587SOL    HW221692   3.025   5.490  10.387 -1.2299 -0.8828  0.4502
70588SOL     OW21693  12.831   9.307  10.614  0.1404 -0.3200 -0.2395
70588SOL    HW121694  12.875   9.303  10.529 -0.9546 -0.3119 -0.8163
70588SOL    HW221695  12.896   9.349  10.671  1.0684 -0.7500 -0.9385
70589SOL     OW21696  11.801   8.270  11.192 -0.0575  0.3200  0.8218
70589SOL    HW121697  11.892   8.240  11.188 -0.5254 -1.0144 -0.6060
70589SOL    HW221698  11.803   8.356  11.151  0.2641 -0.5792 -1.1625
70590SOL     OW21699  12.137   9.931   3.774 -0.2093 -0.3936  0.4642
70590SOL    HW121700  12.097   9.998   3.829 -0.6465 -0.2650  0.0061
70590SOL    HW221701  12.109   9.954   3.685  0.9654 -0.2471  0.1126
70591SOL     OW21702   3.414  11.781   8.847  0.2123 -0.1442  0.3459
70591SOL    HW121703   3.426  11.739   8.933 -0.5964 -0.0366  0.5252
70591SOL    HW221704   3.498  11.770   8.802  0.6781 -0.1260  1.1852
70592SOL     OW21705   6.554   2.666  10.910 -0.2430  0.7076 -0.2657
70592SOL    HW121706   6.628   2.652  10.969  0.2122  2.8659 -0.2467
70592SOL    HW221707   6.496   2.726  10.957 -0.8504  0.9107 -1.2332
70593SOL     OW21708   9.688   7.071   5.211  0.4768 -0.2168  0.0818
70593SOL    HW121709   9.759   7.117   5.165 -0.4486  0.1437 -1.0147
70593SOL    HW221710   9.609   7.121   5.190 -0.1690 -0.7976  1.0398
70594SOL     OW21711   8.189  12.220   1.642  0.0538  0.0674 -0.1359
70594SOL    HW121712   8.127  12.288   1.668 -0.4037 -0.6375  0.6587
70594SOL    HW221713   8.275  12.261   1.656 -0.1835  0.0367  1.6922
70595SOL     OW21714   4.995   0.668   2.762  0.3211  0.0348  0.1741
70595SOL    HW121715   4.974   0.578   2.735  0.8288  0.0023 -0.1445
70595SOL    HW221716   5.036   0.706   2.684 -1.8646  1.2580 -0.4574
70596SOL     OW21717   3.796   3.503   7.754 -0.2438  0.2065 -0.8865
70596SOL    HW121718   3.859   3.484   7.684 -1.5657 -0.4395 -1.9548
70596SOL    HW221719   3.807   3.597   7.771  0.6119  0.2206 -1.4366
70597SOL     OW21720   2.997   2.382   7.853 -0.1774 -0.2846  0.2605
70597SOL    HW121721   2.965   2.298   7.819  0.6578 -0.5273  0.0509
70597SOL    HW221722   2.945   2.397   7.932  1.8674 -2.6787  2.2407
70598SOL     OW21723  12.516   2.280   8.144 -0.4195 -0.3447 -0.0771
70598SOL    HW121724  12.581   2.237   8.199  2.4932  0.5339 -2.5352
70598SOL    HW221725  12.483   2.211   8.087  0.9893 -0.2329 -1.0860
70599SOL     OW21726   6.764   5.602   1.399  0.4259 -0.0246  0.1358
70599SOL    HW121727   6.821   5.610   1.322 -0.1566 -1.5864 -0.4991
70599SOL    HW221728   6.677   5.623   1.365  0.1242 -0.9887  0.3050
70600SOL     OW21729   5.125  11.290   8.768  0.0427  0.4379 -0.1125
70600SOL    HW121730   5.042  11.336   8.757  0.3027  1.2120  1.0052
70600SOL    HW221731   5.188  11.358   8.793 -0.2386 -0.7730  4.9147
70601SOL     OW21732   5.867   6.718   3.316 -0.1786 -0.3649  0.5655
70601SOL    HW121733   5.788   6.763   3.345 -0.1788  0.4502 -0.6033
70601SOL    HW221734   5.835   6.642   3.268 -0.2107 -0.9257  1.4731
70602SOL     OW21735   0.229   3.416  12.227  0.0526  0.2771 -0.6319
70602SOL    HW121736   0.180   3.375  12.156  0.2647 -0.6629 -0.2472
70602SOL    HW221737   0.321   3.401  12.205  0.1158 -0.3476  0.0163
70603SOL     OW21738   7.047   3.112   0.591 -0.0089 -0.0887 -0.1906
70603SOL    HW121739   7.128   3.079   0.631 -0.9506 -1.1269  0.9299
70603SOL    HW221740   7.016   3.180   0.651  0.3055  0.7458 -0.9296
70604SOL     OW21741   0.795   2.592   1.469  0.3986  0.0704  0.4558
70604SOL    HW121742   0.791   2.515   1.525 -0.2853 -1.2389 -1.2764
70604SOL    HW221743   0.714   2.640   1.487 -0.3687 -0.9481 -0.1988
70605SOL     OW21744   3.604   9.646   8.620 -0.2358  0.2478  0.5324
70605SOL    HW121745   3.547   9.620   8.548  0.4766  3.0549 -1.2177
70605SOL    HW221746   3.553   9.709   8.670  0.3699  0.7476  0.5410
70606SOL     OW21747   7.539   4.189   6.421  0.2777 -0.3583 -0.4510
70606SOL    HW121748   7.605   4.121   6.427  0.3108 -0.4623 -1.7345
70606SOL    HW221749   7.587   4.270   6.438  0.5511 -0.5168 -0.4616
70607SOL     OW21750   4.875   4.811   5.524 -0.5825 -0.2324  0.4605
70607SOL    HW121751   4.926   4.868   5.581 -0.3157 -1.8978  1.9778
70607SOL    HW221752   4.874   4.856   5.439  0.6278  1.4028  1.2662
70608SOL     OW21753   4.875  11.320   7.847 -0.0641 -0.0153  0.4329
70608SOL    HW121754   4.824  11.352   7.772  0.4591  1.3583  0.6504
70608SOL    HW221755   4.900  11.399   7.895 -0.2115 -0.8615  1.9540
70609SOL     OW21756   3.066  12.146  10.235 -0.3974  0.1995 -0.0015
70609SOL    HW121757   3.095  12.237  10.236 -0.7852  0.4094  3.6043
70609SOL    HW221758   2.973  12.150  10.258 -0.2993 -1.1003  0.7095
70610SOL     OW21759   5.621   9.782   7.669 -0.0379  0.4651 -0.2776
70610SOL    HW121760   5.662   9.858   7.628  0.4357 -0.1208 -0.9145
70610SOL    HW221761   5.590   9.814   7.754 -2.8340  2.2582 -1.8215
70611SOL     OW21762   9.408   0.267   5.435  0.4313  0.4117  0.9202
70611SOL    HW121763   9.417   0.282   5.529  1.9436 -0.6253  0.9769
70611SOL    HW221764   9.318   0.235   5.425  0.2855  0.4202  2.0340
70612SOL     OW21765   2.715   0.075   8.751 -0.4563 -0.2995 -0.0047
70612SOL    HW121766   2.629   0.049   8.785 -0.7934  0.1242 -0.5128
70612SOL    HW221767   2.763  -0.007   8.743 -0.7790 -0.5319  0.3780
70613SOL     OW21768   5.243   1.447   5.165  0.1259  0.0841 -0.4431
70613SOL    HW121769   5.155   1.418   5.189  0.5509 -0.4362  0.5829
70613SOL    HW221770   5.253   1.532   5.207 -0.2455  0.6157 -1.4137
70614SOL     OW21771   6.133  13.112   7.760  0.2010 -0.0533 -0.3697
70614SOL    HW121772   6.067  13.076   7.819  1.2287  0.1443  0.9588
70614SOL    HW221773   6.083  13.156   7.691 -1.0444 -1.3912 -0.3638
70615SOL     OW21774  11.748   4.788   8.100 -0.2868 -0.1419  0.3071
70615SOL    HW121775  11.660   4.776   8.064  0.0523  0.1596 -0.6575
70615SOL    HW221776  11.742   4.867   8.154 -0.3518  0.5517 -0.6836
70616SOL     OW21777   5.061   3.788  13.242  0.0951  0.3143 -0.2758
70616SOL    HW121778   4.967   3.802  13.231  0.2020 -0.0115 -1.7971
70616SOL    HW221779   5.085   3.845  13.315 -0.9742  1.7227 -0.9733
70617SOL     OW21780   0.282   0.762  12.407 -0.2395 -0.4553  0.2978
70617SOL    HW121781   0.294   0.736  12.499 -0.2781  1.3556  0.8586
70617SOL    HW221782   0.197   0.807  12.407 -0.6881 -1.2812 -0.8362
70618SOL     OW21783   3.999   8.141   3.104 -0.0218 -0.7667 -0.1973
70618SOL    HW121784   3.937   8.210   3.130  2.3972  0.5995  2.4313
70618SOL    HW221785   3.949   8.060   3.112 -1.3614  0.1959  2.4407
70619SOL     OW21786   6.661   1.615  10.687  0.4804 -0.3313 -0.3496
70619SOL    HW121787   6.695   1.529  10.710  2.3806  0.1941 -0.9697
70619SOL    HW221788   6.572   1.616  10.720  0.7890 -2.1346  0.6370
70620SOL     OW21789   6.329   9.072   1.567 -0.3582  0.2314  0.1375
70620SOL    HW121790   6.344   9.092   1.475  0.2877  0.5868  0.3132
70620SOL    HW221791   6.235   9.055   1.573 -0.5327  0.9188 -0.4536
70621SOL     OW21792  10.961   0.381   3.436 -0.0350  0.4380 -0.3573
70621SOL    HW121793  10.962   0.334   3.520 -2.0403  1.9100  0.5740
70621SOL    HW221794  10.909   0.326   3.379  2.5496 -1.3175 -1.2286
70622SOL     OW21795   5.142   5.676   3.856  0.1814 -0.1405  0.0485
70622SOL    HW121796   5.073   5.611   3.871 -0.2748  0.4957  0.7275
70622SOL    HW221797   5.134   5.698   3.763  0.4365 -1.1452 -0.2364
70623SOL     OW21798   1.895  12.279  12.329 -0.1445  0.1356  0.2255
70623SOL    HW121799   1.818  12.312  12.282  0.1403  1.4459  0.6367
70623SOL    HW221800   1.949  12.237  12.262  0.0721  1.6309 -0.5644
70624SOL     OW21801   7.862   4.739  12.435 -0.2067 -0.9098 -0.4539
70624SOL    HW121802   7.807   4.748  12.358 -0.6085 -0.2173 -0.0942
70624SOL    HW221803   7.896   4.827  12.452 -0.0508 -1.0674  0.1029
70625SOL     OW21804  10.286  11.267  12.111 -0.4669 -0.5582 -0.0040
70625SOL    HW121805  10.331  11.254  12.195 -1.0190 -2.0888  0.0862
70625SOL    HW221806  10.325  11.347  12.075  0.0778 -0.1056  1.5114
70626SOL     OW21807  11.399  13.298   5.323 -0.4526 -0.4441 -0.1602
70626SOL    HW121808  11.416  13.322   5.232  0.1615 -0.2683 -0.0019
70626SOL    HW221809  11.307  13.321   5.337 -0.5223 -0.3745 -0.7021
70627SOL     OW21810  10.459  11.275   2.418  0.5671  0.0030 -0.4053
70627SOL    HW121811  10.463  11.334   2.343  0.3994 -1.3109 -1.4807
70627SOL    HW221812  10.547  11.239   2.426  0.8471  0.8517  0.6645
70628SOL     OW21813   1.171   7.932   2.696  0.1111 -0.0581 -0.1687
70628SOL    HW121814   1.266   7.941   2.705 -0.0461  1.4922  0.3067
70628SOL    HW221815   1.152   7.843   2.725  1.2050  0.3167  1.8983
70629SOL     OW21816   9.214   7.537  10.464  0.2205  0.0899 -0.6804
70629SOL    HW121817   9.141   7.483  10.494 -0.3145  0.8311 -0.6394
70629SOL    HW221818   9.292   7.484  10.484 -0.2434 -0.3096  0.1214
70630SOL     OW21819   9.616   8.270   9.807  0.1735  0.2397  0.1517
70630SOL    HW121820   9.659   8.187   9.825  0.4475  0.3436 -0.0030
70630SOL    HW221821   9.616   8.276   9.711 -1.6201 -0.4952  0.0707
70631SOL     OW21822   8.369   0.720  10.031 -0.6089  0.6164 -0.0558
70631SOL    HW121823   8.350   0.718  10.125  0.3488 -0.8406  0.1351
70631SOL    HW221824   8.312   0.652   9.994  0.9882 -0.7536 -0.0966
70632SOL     OW21825   9.564   7.753  12.324  0.2509  0.0815 -0.3353
70632SOL    HW121826   9.507   7.830  12.331 -0.0045 -0.2044  0.9005
70632SOL    HW221827   9.540   7.713  12.240 -0.1745  0.8990 -0.6116
70633SOL     OW21828  12.182   7.759   4.609  0.1660 -0.1437  0.0091
70633SOL    HW121829  12.240   7.791   4.678 -1.6168  0.9796  1.0678
70633SOL    HW221830  12.170   7.834   4.551 -1.6030  0.2106  0.7889
70634SOL     OW21831  10.617   5.004   7.323 -0.6038 -0.2805  0.5485
70634SOL    HW121832  10.711   4.989   7.334 -0.4411  1.3961  2.0001
70634SOL    HW221833  10.578   4.917   7.330  0.7801 -0.9277  0.6682
70635SOL     OW21834   4.726   2.508   4.063  0.3137  0.2147 -0.0209
70635SOL    HW121835   4.675   2.507   4.144  1.1022 -4.1287  0.6211
70635SOL    HW221836   4.661   2.496   3.994  0.0278 -0.8467  0.4149
70636SOL     OW21837   6.703  10.061   4.115  0.7847 -0.0486 -0.9288
70636SOL    HW121838   6.762  10.010   4.171 -0.2590 -1.2013 -0.8329
70636SOL    HW221839   6.727  10.037   4.026  2.3950  1.7290 -1.0383
70637SOL     OW21840  11.876   7.539   4.147 -0.0226 -0.5818  0.1081
70637SOL    HW121841  11.913   7.619   4.186  0.9222  0.4491 -2.6283
70637SOL    HW221842  11.950   7.478   4.145 -0.0636 -0.6263 -0.0345
70638SOL     OW21843   8.123   1.270   1.642  0.3007 -0.1504  0.4737
70638SOL    HW121844   8.055   1.227   1.694  0.5762 -0.1198  0.8648
70638SOL    HW221845   8.079   1.346   1.604  0.2753  0.2202  1.2289
70639SOL     OW21846  12.520   4.379  10.769 -0.4623 -0.2098  0.2147
70639SOL    HW121847  12.492   4.470  10.769  1.4401  0.4372  1.6308
70639SOL    HW221848  12.528   4.356  10.676 -0.2657  1.2930 -0.1697
70640SOL     OW21849  11.439   7.893  10.813 -0.4781  0.2144 -0.2948
70640SOL    HW121850  11.443   7.983  10.781  0.1369 -0.4721 -2.3583
70640SOL    HW221851  11.515   7.885  10.871  0.2907  0.6696 -1.1977
70641SOL     OW21852   0.420   5.031   8.867 -0.0645 -0.2698  0.4307
70641SOL    HW121853   0.502   5.074   8.844 -0.4444 -0.3513 -1.1599
70641SOL    HW221854   0.359   5.103   8.884  0.2838 -0.2094  1.5346
70642SOL     OW21855   7.830   7.131   1.305  0.2794 -0.2771 -0.5118
70642SOL    HW121856   7.793   7.052   1.266  1.7775 -0.6907 -1.1848
70642SOL    HW221857   7.925   7.117   1.300  0.5855  1.7731 -1.0959
70643SOL     OW21858   3.305  12.570  12.310 -0.3721  0.5766  0.2107
70643SOL    HW121859   3.243  12.619  12.256 -1.9968 -0.7682  0.7736
70643SOL    HW221860   3.379  12.552  12.251 -1.3618  0.5660 -1.0742
70644SOL     OW21861   0.657   1.960  12.541  0.7301 -0.0223  0.1071
70644SOL    HW121862   0.726   1.932  12.482  1.8673 -0.7682  1.7139
70644SOL    HW221863   0.683   2.047  12.571  0.8003 -0.1488  0.4266
70645SOL     OW21864   9.566   0.479   1.504  0.1098 -0.1784  0.4824
70645SOL    HW121865   9.492   0.538   1.502 -0.8747 -1.3619  0.9941
70645SOL    HW221866   9.534   0.401   1.549  1.4740 -0.9553  0.1678
70646SOL     OW21867  12.658  10.726   4.824 -0.0554 -0.1273 -0.1704
70646SOL    HW121868  12.685  10.726   4.732  0.8560  0.7029  0.0712
70646SOL    HW221869  12.615  10.811   4.836 -0.2057 -0.2494  0.1634
70647SOL     OW21870  12.429   7.801  10.307 -0.0294  0.1750 -0.0667
70647SOL    HW121871  12.362   7.743  10.269  0.6384  0.4522 -1.7651
70647SOL    HW221872  12.511   7.767  10.273  0.9949 -1.2618  3.3845
70648SOL     OW21873   6.777   9.509   2.163  0.3273 -0.0204  0.8031
70648SOL    HW121874   6.695   9.552   2.185  0.5711  0.2225  1.2665
70648SOL    HW221875   6.844   9.561   2.208  0.7244 -0.2687  0.5085
70649SOL     OW21876   0.449   9.335   6.767  0.2629 -0.1916  0.7395
70649SOL    HW121877   0.471   9.426   6.746  0.5477 -0.3175  0.4911
70649SOL    HW221878   0.375   9.342   6.828  1.0243  0.2403  1.6438
70650SOL     OW21879   0.363   3.689   2.018 -0.6817 -0.1862  0.2268
70650SOL    HW121880   0.311   3.761   2.054  1.2519  0.8914  1.0046
70650SOL    HW221881   0.426   3.731   1.960 -0.2444 -1.3833 -0.2039
70651SOL     OW21882   5.307  11.916   9.009  0.3428 -0.1762  0.3890
70651SOL    HW121883   5.271  11.879   9.090  0.2939 -0.6167  0.1706
70651SOL    HW221884   5.398  11.936   9.030 -0.0206  0.9815  0.9619
70652SOL     OW21885   2.892   6.685   5.288 -0.0116 -0.0711  0.9224
70652SOL    HW121886   2.912   6.596   5.317  0.4391 -0.3346 -0.1469
70652SOL    HW221887   2.871   6.732   5.368 -0.1471 -1.1090  1.5190
70653SOL     OW21888  12.171  12.441   8.646 -0.2327  0.3129  0.4321
70653SOL    HW121889  12.192  12.462   8.555  1.3407  1.4660  0.9951
70653SOL    HW221890  12.080  12.467   8.656 -0.5150 -0.0843 -0.8668
70654SOL     OW21891   9.110  10.257   0.990  0.6428 -0.4052 -0.1282
70654SOL    HW121892   9.088  10.241   0.898 -0.0590 -1.5363  0.2259
70654SOL    HW221893   9.200  10.224   0.998  0.7440 -0.2116 -0.4286
70655SOL     OW21894  12.562   5.988  12.280  0.0467 -0.0466  0.0970
70655SOL    HW121895  12.502   6.053  12.318  0.0024 -1.0444  1.8324
70655SOL    HW221896  12.649   6.023  12.297  0.0932  1.6504 -2.8593
70656SOL     OW21897   5.818   2.250   7.244 -0.0871 -0.0087 -0.0833
70656SOL    HW121898   5.896   2.295   7.211  0.1583 -1.1092 -1.0890
70656SOL    HW221899   5.772   2.222   7.165 -0.8411 -0.4765  0.5083
70657SOL     OW21900   3.821   1.897   2.908  0.1826  0.5446 -0.1169
70657SOL    HW121901   3.750   1.956   2.931  0.1475  0.7500 -0.7278
70657SOL    HW221902   3.794   1.812   2.941 -0.0452  0.7537  0.2315
70658SOL     OW21903   9.160   8.883   4.277  0.6082 -0.1888  0.3444
70658SOL    HW121904   9.152   8.940   4.353 -0.1123  1.5152 -0.9496
70658SOL    HW221905   9.072   8.846   4.265  0.5999 -0.0735  0.0457
70659SOL     OW21906  11.321   7.898   1.917 -0.4040 -0.3470  0.6647
70659SOL    HW121907  11.365   7.826   1.870  0.1036  0.9076 -0.8699
70659SOL    HW221908  11.258   7.932   1.854 -1.4530 -0.1485  1.7860
70660SOL     OW21909   8.602  10.883   3.410 -0.5158 -0.4675  0.0111
70660SOL    HW121910   8.680  10.871   3.465 -0.7053 -0.3520  0.3095
70660SOL    HW221911   8.555  10.800   3.418 -0.6853 -0.3499  0.2550
70661SOL     OW21912   7.950   0.848   3.367 -0.4875  0.0667  0.2010
70661SOL    HW121913   7.956   0.898   3.286 -1.4393  1.2186  0.8135
70661SOL    HW221914   7.989   0.904   3.434 -1.1696 -0.1767  0.8226
70662SOL     OW21915   8.094   9.114   6.590  0.1568 -0.8953  0.0961
70662SOL    HW121916   8.137   9.030   6.601 -0.5557 -1.1482  1.1636
70662SOL    HW221917   8.098   9.155   6.677  0.2095  0.0246 -0.3294
70663SOL     OW21918  11.284   8.292  10.995  0.5167 -0.0693  0.4863
70663SOL    HW121919  11.201   8.245  10.989  0.6896 -0.2904 -0.3495
70663SOL    HW221920  11.278   8.360  10.928  1.0714 -0.1955  0.2968
70664SOL     OW21921  13.071   5.115   8.337 -0.3993 -0.1513 -0.6599
70664SOL    HW121922  13.140   5.139   8.399 -2.3635 -0.6987  1.9428
70664SOL    HW221923  13.097   5.030   8.303  0.9887  0.4073 -1.0520
70665SOL     OW21924   6.294  12.960  10.201  0.4037 -0.2300  0.0134
70665SOL    HW121925   6.234  13.030  10.227 -0.4944 -0.0456 -2.2485
70665SOL    HW221926   6.238  12.884  10.186  1.3084 -1.3249  1.9329
70666SOL     OW21927   9.673   8.587   6.121 -0.1634 -0.0363  0.3239
70666SOL    HW121928   9.713   8.656   6.174  0.0331  0.3380 -0.3021
70666SOL    HW221929   9.730   8.511   6.133 -0.7177 -0.2842  1.5075
70667SOL     OW21930  12.871   6.270   5.858  0.0918 -0.6463  0.0391
70667SOL    HW121931  12.833   6.210   5.923  1.5214 -2.1838 -0.4872
70667SOL    HW221932  12.940   6.219   5.816  0.1177  0.7802 -1.7464
70668SOL     OW21933   9.002   6.270   3.128  0.0725  0.2949 -0.3957
70668SOL    HW121934   9.033   6.180   3.128 -0.4250  0.0847  1.3301
70668SOL    HW221935   8.986   6.290   3.036  0.6967 -1.1900 -0.8559
70669SOL     OW21936   5.253  11.115   9.598  0.1574 -0.1812 -0.2206
70669SOL    HW121937   5.342  11.128   9.564  0.6957  1.4581  1.6555
70669SOL    HW221938   5.265  11.069   9.681 -0.8657 -0.9720 -0.4821
70670SOL     OW21939   7.069   1.465   8.863 -0.3575  0.4360 -0.0497
70670SOL    HW121940   7.119   1.390   8.831 -0.9264  0.1307 -0.2450
70670SOL    HW221941   7.135   1.528   8.892  0.2201  1.0548 -2.5223
70671SOL     OW21942   6.773   0.473   4.590  0.5658 -0.3080 -0.3887
70671SOL    HW121943   6.707   0.467   4.660 -0.6799 -1.5285 -1.5879
70671SOL    HW221944   6.793   0.567   4.584  0.2559 -0.1074  1.1658
70672SOL     OW21945   7.646   2.714   2.272 -0.2674 -0.2143 -0.1982
70672SOL    HW121946   7.583   2.688   2.338 -0.6314 -0.5447 -0.6681
70672SOL    HW221947   7.686   2.794   2.307 -1.2560  0.2471 -0.0944
70673SOL     OW21948   4.012   3.130   9.445 -0.3110 -0.6324 -0.1884
70673SOL    HW121949   3.966   3.131   9.530 -2.3670 -1.7533 -1.2240
70673SOL    HW221950   3.943   3.147   9.381  1.4870  2.0842 -1.5998
70674SOL     OW21951   4.873   4.558  12.638 -0.0914  0.1095  0.0113
70674SOL    HW121952   4.819   4.635  12.656  1.3815  1.3769 -0.7497
70674SOL    HW221953   4.963   4.592  12.632  0.4287 -1.3983 -1.9126
70675SOL     OW21954   1.918   4.102   7.279  0.2309 -0.2537 -0.2480
70675SOL    HW121955   1.979   4.090   7.206  0.6503  1.5944 -0.2568
70675SOL    HW221956   1.957   4.172   7.332 -1.5438  0.5394  0.1013
70676SOL     OW21957   7.605  13.069   0.728  0.4667 -0.0139 -0.1191
70676SOL    HW121958   7.632  13.045   0.640  2.0162  1.0229  0.0434
70676SOL    HW221959   7.640  12.999   0.784  2.5227  1.0635  0.0308
70677SOL     OW21960   5.532  12.584   1.944  0.0233 -0.8472 -0.3451
70677SOL    HW121961   5.494  12.615   2.027 -0.7541  0.8623 -1.2905
70677SOL    HW221962   5.472  12.516   1.914  0.1388 -1.2539  0.3143
70678SOL     OW21963   9.892   8.187   0.975 -0.3888  0.1795 -0.5805
70678SOL    HW121964   9.931   8.242   1.044 -1.4050 -1.1309  1.1303
70678SOL    HW221965   9.798   8.191   0.992 -1.0271  2.1235 -3.7556
70679SOL     OW21966  11.415   4.938   9.609 -0.0987 -0.0173  0.2495
70679SOL    HW121967  11.326   4.905   9.616  0.2911 -1.2354 -0.3450
70679SOL    HW221968  11.420   4.976   9.521 -0.1605  0.4667  0.4516
70680SOL     OW21969   1.157   5.666   7.415  0.2885  0.2478 -0.5214
70680SOL    HW121970   1.160   5.572   7.433 -0.3734  0.1895 -0.7035
70680SOL    HW221971   1.245   5.698   7.438  0.2161 -0.2417  0.4812
70681SOL     OW21972   8.684  11.528  12.281  0.1416 -0.1370  0.4695
70681SOL    HW121973   8.663  11.437  12.262 -0.0638  0.1766 -0.9043
70681SOL    HW221974   8.601  11.568  12.306  0.3104 -0.4193  1.5140
70682SOL     OW21975   0.375   1.350   0.043 -0.3223 -0.1201 -0.7947
70682SOL    HW121976   0.417   1.390   0.119  0.4397 -0.7450 -0.8740
70682SOL    HW221977   0.315   1.285   0.080  0.3526 -0.7149 -0.7256
70683SOL     OW21978   6.121   1.554   8.475  0.0064 -0.2082 -0.0053
70683SOL    HW121979   6.101   1.547   8.569 -0.6522 -0.3298 -0.1494
70683SOL    HW221980   6.049   1.508   8.432  0.1464  0.1130 -0.5870
70684SOL     OW21981   1.557   9.184   4.421  0.6172  0.0308 -0.2714
70684SOL    HW121982   1.605   9.231   4.489  1.1165  4.3854 -3.2768
70684SOL    HW221983   1.622   9.126   4.381  2.5919  3.0248 -1.7652
70685SOL     OW21984  10.598  12.132   6.599  0.2682  0.0788  0.2580
70685SOL    HW121985  10.591  12.224   6.626  1.7566  0.7768 -1.5122
70685SOL    HW221986  10.516  12.114   6.553 -0.0522  0.4876  0.6555
70686SOL     OW21987   2.158   0.401   3.876 -0.3709  0.6892  0.7960
70686SOL    HW121988   2.250   0.417   3.899  0.5409 -1.4134 -0.9802
70686SOL    HW221989   2.160   0.385   3.781 -2.6735  1.1131  0.6300
70687SOL     OW21990   9.108   2.793  11.566  0.3058  0.2451 -0.3220
70687SOL    HW121991   9.192   2.835  11.553  0.2274  0.8112  0.8225
70687SOL    HW221992   9.116   2.749  11.651 -0.9352  1.3788  0.4419
70688SOL     OW21993   5.716   6.940   1.754 -0.0613  0.3906 -0.1691
70688SOL    HW121994   5.723   6.974   1.665 -0.8920 -1.1664 -0.8561
70688SOL    HW221995   5.697   6.847   1.743 -0.9422  0.3227  1.6247
70689SOL     OW21996   1.743   0.745   2.524 -0.0831  0.3658  0.6105
70689SOL    HW121997   1.713   0.812   2.585 -0.6188  0.1414  0.5997
70689SOL    HW221998   1.825   0.780   2.487 -0.7151  1.3194  0.0873
70690SOL     OW21999  11.641  10.381  11.187 -0.7767  0.1171  0.7795
70690SOL    HW122000  11.549  10.380  11.160 -1.0690 -0.1618  1.7550
70690SOL    HW222001  11.638  10.379  11.282  0.2457  0.3117  0.8268
70691SOL     OW22002   5.263   8.855   7.376  0.1294 -0.0517 -0.2603
70691SOL    HW122003   5.298   8.929   7.326  0.8999 -0.0915  0.2038
70691SOL    HW222004   5.250   8.786   7.311  1.7685 -0.3311 -0.3355
70692SOL     OW22005   1.174  12.100   8.578  0.3397  0.1126 -0.0287
70692SOL    HW122006   1.245  12.098   8.513  1.8189 -1.6656  1.5464
70692SOL    HW222007   1.195  12.175   8.633 -0.6531  1.3326 -1.2380
70693SOL     OW22008   1.600   9.619  11.267  0.0062 -0.1432  0.2834
70693SOL    HW122009   1.648   9.550  11.221 -1.3214 -0.8025 -0.1685
70693SOL    HW222010   1.561   9.574  11.342  1.5642  0.7687  1.7275
70694SOL     OW22011   2.697   6.530   4.394  0.4177  0.3920 -0.0172
70694SOL    HW122012   2.744   6.448   4.378 -1.0679 -0.2970 -1.0886
70694SOL    HW222013   2.619   6.504   4.444  0.9598  1.4596  1.4387
70695SOL     OW22014   0.668   6.952   2.114 -0.0424  1.0618  0.0441
70695SOL    HW122015   0.665   7.048   2.105 -1.3133  1.0085 -0.2491
70695SOL    HW222016   0.681   6.937   2.208 -1.2984  1.5266  0.3099
70696SOL     OW22017   6.763   4.106   2.101  0.0767  0.0314 -0.1111
70696SOL    HW122018   6.841   4.118   2.046  1.4132 -2.6295  1.0024
70696SOL    HW222019   6.796   4.062   2.180 -2.5184 -1.0408  0.4839
70697SOL     OW22020   0.241   5.992   4.991 -0.2096  0.3106  0.3921
70697SOL    HW122021   0.158   5.988   4.943  0.3901 -1.0181 -0.6122
70697SOL    HW222022   0.304   6.021   4.925  0.2815  0.3667  0.8892
70698SOL     OW22023   8.357  12.295  11.009  0.2376 -0.3569  0.2903
70698SOL    HW122024   8.331  12.235  11.080 -0.9824 -0.7228 -0.4377
70698SOL    HW222025   8.394  12.237  10.942 -0.7475 -0.2759 -0.3294
70699SOL     OW22026  10.943   1.028   1.502 -0.2720  0.8280  0.0600
70699SOL    HW122027  10.998   1.008   1.577  0.1323  0.6616 -0.2751
70699SOL    HW222028  10.854   1.030   1.537  0.0244  1.9963  0.7825
70700SOL     OW22029   9.398  11.678   3.097 -0.0462 -0.4965 -0.0173
70700SOL    HW122030   9.329  11.617   3.073 -0.0541 -0.3804 -0.3006
70700SOL    HW222031   9.463  11.625   3.142  0.5206 -0.9561 -1.3373
70701SOL     OW22032  12.809   4.537   3.682 -0.0092 -0.6210  0.2187
70701SOL    HW122033  12.740   4.603   3.693 -0.0716 -0.2142 -2.0999
70701SOL    HW222034  12.777   4.480   3.612  0.8253 -2.0925  0.9900
70702SOL     OW22035  11.548   2.646  12.076 -0.5883  0.5800  0.1002
70702SOL    HW122036  11.507   2.732  12.085  1.3899  1.9738 -2.5332
70702SOL    HW222037  11.579   2.644  11.985  0.0557 -2.6790  0.2682
70703SOL     OW22038  13.194  12.176  12.515 -0.3196  0.5397  0.8305
70703SOL    HW122039  13.176  12.206  12.604 -0.9067  0.8813  0.6059
70703SOL    HW222040  13.248  12.245  12.477  0.0308  0.3369  0.9588
70704SOL     OW22041   6.774   9.564   5.618  0.0730  0.1894 -0.6690
70704SOL    HW122042   6.725   9.628   5.670  0.0354 -0.3203 -0.0555
70704SOL    HW222043   6.826   9.516   5.683  0.2958 -0.2270 -1.1476
70705SOL     OW22044  12.202   0.333   9.118  0.0062 -0.3588 -1.2286
70705SOL    HW122045  12.133   0.314   9.181 -0.9309  0.7882 -1.8696
70705SOL    HW222046  12.187   0.424   9.092  2.1721  0.1549 -0.8846
70706SOL     OW22047  10.161  12.989   9.290  0.6142  0.4265  0.6251
70706SOL    HW122048  10.244  13.014   9.332 -0.2996  0.4411  2.5377
70706SOL    HW222049  10.125  13.072   9.257  0.6848  0.6523  1.0998
70707SOL     OW22050   3.986   6.962   2.378 -0.0018  0.1411  0.2538
70707SOL    HW122051   4.062   7.007   2.414 -0.8684  1.0841  0.9945
70707SOL    HW222052   3.938   7.030   2.331 -0.1943 -0.5201 -0.5179
70708SOL     OW22053   3.336  11.961   1.193 -0.7716 -0.0025  0.1716
70708SOL    HW122054   3.398  11.950   1.264 -0.7330 -0.4311  0.0745
70708SOL    HW222055   3.357  12.046   1.155  0.0219 -0.3226 -0.1143
70709SOL     OW22056   9.185  11.499   5.584 -0.4688 -0.4098  0.1835
70709SOL    HW122057   9.094  11.475   5.604 -0.3116 -0.5506  0.7728
70709SOL    HW222058   9.179  11.562   5.513 -1.1751  1.2996  1.6798
70710SOL     OW22059  12.009   5.614  12.754  0.3556 -0.0298 -0.6540
70710SOL    HW122060  12.061   5.635  12.833 -0.1401 -0.3796 -0.2320
70710SOL    HW222061  11.923   5.590  12.788 -0.8191  2.6754 -1.4412
70711SOL     OW22062   2.710  13.214   2.157  0.1690 -0.2552 -0.2319
70711SOL    HW122063   2.722  13.124   2.128  2.4439 -0.1932  0.3223
70711SOL    HW222064   2.695  13.264   2.076 -1.6415 -1.1657 -0.4909
70712SOL     OW22065  13.102  11.239   3.482 -0.4060 -0.1149  0.6270
70712SOL    HW122066  13.143  11.266   3.564  0.0257  1.6643 -0.1209
70712SOL    HW222067  13.116  11.313   3.423 -0.7780 -1.3109 -1.0373
70713SOL     OW22068   6.972  12.617   3.876 -0.1581  0.0337 -0.1905
70713SOL    HW122069   6.901  12.646   3.933 -0.7159  0.3131 -1.0074
70713SOL    HW222070   7.000  12.697   3.831  0.1095 -0.2266 -0.4866
70714SOL     OW22071   4.392   5.433   4.254 -0.1578  0.2392  0.3039
70714SOL    HW122072   4.303   5.408   4.229  0.9739 -3.3329 -0.7679
70714SOL    HW222073   4.396   5.417   4.348 -0.2062 -1.4378  0.0521
70715SOL     OW22074   1.156   7.891   8.857  0.1242  0.0944 -0.0255
70715SOL    HW122075   1.249   7.868   8.851  0.4490  0.8886  1.4775
70715SOL    HW222076   1.110   7.811   8.832  1.2002 -0.4003 -0.5098
70716SOL     OW22077   0.682   0.619   8.156  0.1402 -0.2373 -0.0825
70716SOL    HW122078   0.677   0.609   8.061  0.4051  0.2437 -0.1488
70716SOL    HW222079   0.758   0.567   8.182  0.1487 -0.2586 -0.1508
70717SOL     OW22080   5.961   6.584  11.681 -0.2589 -0.0271 -0.1321
70717SOL    HW122081   5.913   6.549  11.755  0.6786  0.8844  0.9477
70717SOL    HW222082   5.976   6.676  11.703  1.6616 -0.1857 -0.5608
70718SOL     OW22083   6.785  11.885   6.723  0.4942  0.6568 -0.8129
70718SOL    HW122084   6.828  11.811   6.680  0.7225  0.3191 -0.0318
70718SOL    HW222085   6.755  11.850   6.807 -0.2566  1.2037 -0.8420
70719SOL     OW22086  12.639   9.427   4.410 -0.5126  0.0384  0.5381
70719SOL    HW122087  12.597   9.513   4.401 -1.5477 -0.3678  1.2782
70719SOL    HW222088  12.674   9.427   4.499  2.3692  0.8917 -0.4626
70720SOL     OW22089   9.978   5.527  12.306 -0.1054  0.0232 -0.0649
70720SOL    HW122090  10.065   5.489  12.294  0.0349  0.5805 -0.8812
70720SOL    HW222091   9.988   5.619  12.282 -1.2951 -0.2779 -1.9384
70721SOL     OW22092  10.814   4.860   6.160  0.5643  0.4429 -0.3483
70721SOL    HW122093  10.910   4.856   6.164  0.5519  0.7825  0.3382
70721SOL    HW222094  10.792   4.950   6.184 -0.0779 -0.5100  3.0699
70722SOL     OW22095   4.013   6.418   0.749 -0.8229 -0.5980  0.8216
70722SOL    HW122096   4.058   6.499   0.774 -1.1535  0.6741 -2.1884
70722SOL    HW222097   3.923   6.447   0.730 -0.9226 -1.6473 -0.3785
70723SOL     OW22098   9.279  11.472   8.147  0.1096 -0.6785  0.2559
70723SOL    HW122099   9.334  11.451   8.072 -0.0442 -0.2224  0.0120
70723SOL    HW222100   9.244  11.388   8.176  1.0308 -0.9972  0.4912
70724SOL     OW22101   6.061   2.403   6.117 -0.0378 -0.4010 -0.1043
70724SOL    HW122102   5.990   2.362   6.167  0.3263 -1.6884 -0.6012
70724SOL    HW222103   6.024   2.412   6.029  0.0237 -0.0076 -0.0906
70725SOL     OW22104   2.123   7.607  10.735 -0.3095 -0.8141 -0.2709
70725SOL    HW122105   2.186   7.536  10.745 -0.2743 -0.6264  1.0849
70725SOL    HW222106   2.176   7.687  10.745 -0.7660 -0.6568  1.2530
70726SOL     OW22107   0.070   9.069   5.227 -0.2417  0.0515 -0.0207
70726SOL    HW122108  -0.024   9.072   5.208 -0.2774 -0.1394  0.1282
70726SOL    HW222109   0.112   9.064   5.141 -0.3484  0.6101 -0.1092
70727SOL     OW22110   2.847   1.989  13.302 -0.2076 -0.0133  0.1153
70727SOL    HW122111   2.751   1.988  13.303 -0.2139 -0.2454  1.1116
70727SOL    HW222112   2.872   1.931  13.374  0.6925 -0.3565 -0.4605
70728SOL     OW22113   4.435  12.907  12.944 -0.2445 -0.2115 -0.3123
70728SOL    HW122114   4.363  12.887  13.004 -1.4662  1.2580 -1.2150
70728SOL    HW222115   4.402  12.882  12.858  0.2965  0.5253 -0.7443
70729SOL     OW22116   1.097   4.499   3.827 -0.4158 -0.0573 -0.1234
70729SOL    HW122117   1.058   4.520   3.742  0.0138 -1.7321 -0.7842
70729SOL    HW222118   1.138   4.580   3.855 -0.8906  0.6358 -1.3437
70730SOL     OW22119  12.231  12.182   8.987 -0.2546  0.0783  0.5029
70730SOL    HW122120  12.249  12.090   9.005 -0.6416 -0.0056  0.4597
70730SOL    HW222121  12.225  12.187   8.891  0.8304  0.3453  0.4337
70731SOL     OW22122  11.977   4.138   1.807  0.0603  0.3753 -0.1969
70731SOL    HW122123  11.933   4.153   1.723  0.0584 -0.0160 -0.2673
70731SOL    HW222124  11.963   4.219   1.855 -1.7499 -0.1265  0.2246
70732SOL     OW22125   0.256  11.486  12.709  0.4405  0.4096 -0.9742
70732SOL    HW122126   0.348  11.510  12.718  0.0345  1.4916  0.9258
70732SOL    HW222127   0.256  11.390  12.707  1.4138  0.0876  3.7859
70733SOL     OW22128   7.771   0.147  10.868 -0.2703  0.1072 -0.0243
70733SOL    HW122129   7.678   0.127  10.877 -0.1531 -0.4787 -0.1008
70733SOL    HW222130   7.781   0.232  10.911 -0.9010  0.3279 -0.3062
70734SOL     OW22131   7.099   2.202   3.315 -0.2310  0.5301 -0.4206
70734SOL    HW122132   7.194   2.203   3.307 -0.1399 -0.6933  0.3007
70734SOL    HW222133   7.069   2.153   3.238 -0.1975 -0.0398 -0.0756
70735SOL     OW22134   6.898   0.168  11.355  0.6582 -0.2888 -0.2679
70735SOL    HW122135   6.832   0.225  11.394  1.1920  1.8963 -2.2757
70735SOL    HW222136   6.853   0.085  11.340 -1.2358  0.6870 -0.2974
70736SOL     OW22137   1.860   0.007   8.251  0.7664 -0.2186  0.2672
70736SOL    HW122138   1.794   0.074   8.232  0.2512 -0.5529  0.8471
70736SOL    HW222139   1.831  -0.032   8.333  1.5373 -0.5649  0.3788
70737SOL     OW22140   6.425   9.432   3.090  0.8772  0.5486  0.0395
70737SOL    HW122141   6.405   9.370   3.160  3.4705  1.7056  1.9527
70737SOL    HW222142   6.372   9.402   3.016  0.7235 -2.9103  1.3548
70738SOL     OW22143   7.222   6.245   4.772  0.2388 -0.7724  0.2686
70738SOL    HW122144   7.159   6.266   4.841  2.2411  1.0134  1.6978
70738SOL    HW222145   7.307   6.259   4.813  1.5328  0.2602 -2.5444
70739SOL     OW22146   6.650   9.633   4.971 -0.0045 -0.5932  0.1916
70739SOL    HW122147   6.605   9.628   5.055 -1.0356  0.8690 -0.2438
70739SOL    HW222148   6.669   9.726   4.959 -0.9421 -0.6097 -1.7216
70740SOL     OW22149   7.369   3.631   7.096  0.3280 -0.2838 -0.1757
70740SOL    HW122150   7.401   3.664   7.180 -2.7577  2.4718  0.1309
70740SOL    HW222151   7.315   3.555   7.119  1.0239 -0.7147  0.0693
70741SOL     OW22152   6.374   4.354   7.652  0.1088 -0.9068  0.9945
70741SOL    HW122153   6.357   4.406   7.574 -1.1655  0.2369  1.9698
70741SOL    HW222154   6.468   4.338   7.651  0.1976 -0.4063 -0.4494
70742SOL     OW22155   2.988   8.039   9.816 -0.9426 -0.0920  0.4333
70742SOL    HW122156   2.990   8.003   9.728 -0.7216 -1.0492  0.8189
70742SOL    HW222157   3.054   8.109   9.815  1.2405 -2.0045  0.6134
70743SOL     OW22158   2.420  11.172   1.982  0.0993  0.0008  0.2750
70743SOL    HW122159   2.376  11.094   1.947  0.3255 -0.1626  0.3472
70743SOL    HW222160   2.376  11.246   1.940  0.4954 -0.1979 -0.5106
70744SOL     OW22161   2.444   3.801  11.326 -0.3633  0.0150  0.2531
70744SOL    HW122162   2.529   3.838  11.349 -0.9257  1.2304  0.4576
70744SOL    HW222163   2.426   3.835  11.239 -1.1422  0.7004  0.6703
70745SOL     OW22164   6.937   4.785   1.599 -0.7447 -0.6201  0.1480
70745SOL    HW122165   7.008   4.740   1.553  0.5103  1.1030  0.2768
70745SOL    HW222166   6.956   4.773   1.692 -1.5055 -1.4348  0.2126
70746SOL     OW22167   5.416   8.792   7.609  0.0297  0.8670  0.2626
70746SOL    HW122168   5.427   8.697   7.612  1.5657  1.0392  0.9719
70746SOL    HW222169   5.371   8.808   7.526  1.1533 -0.3592 -0.6156
70747SOL     OW22170   1.982  12.149   4.613 -0.0542 -0.0436  0.1672
70747SOL    HW122171   1.901  12.135   4.663 -0.7009 -0.3669 -0.9463
70747SOL    HW222172   2.031  12.212   4.666 -1.5485  1.0747  0.3068
70748SOL     OW22173   0.582   1.856   7.480  0.0595 -0.1011 -0.1618
70748SOL    HW122174   0.571   1.851   7.385 -0.6499  2.1036 -0.2472
70748SOL    HW222175   0.663   1.809   7.497 -0.4110 -1.5832 -1.6955
70749SOL     OW22176   7.168   7.938   0.668 -0.2820  0.0877  0.3165
70749SOL    HW122177   7.108   7.948   0.594 -1.0909  0.3966  1.0026
70749SOL    HW222178   7.148   8.011   0.726  0.3195 -0.1708  0.8705
70750SOL     OW22179   3.694   4.658   8.270  0.4374  0.6619 -0.6342
70750SOL    HW122180   3.769   4.604   8.243  2.0098  2.2891  0.2702
70750SOL    HW222181   3.702   4.664   8.365 -0.4291  1.4900 -0.6023
70751SOL     OW22182   6.982   6.026   4.542 -0.0326 -0.1708  0.5511
70751SOL    HW122183   7.074   6.046   4.556  0.4140 -0.0547 -1.9831
70751SOL    HW222184   6.968   5.941   4.584  1.7560 -1.1097 -0.6445
70752SOL     OW22185  12.072   0.800  10.648 -0.6746  0.1933 -0.7833
70752SOL    HW122186  12.061   0.792  10.743  1.7286  0.5531 -0.3944
70752SOL    HW222187  12.049   0.892  10.630  0.7376  0.6931 -0.1827
70753SOL     OW22188  12.112   1.656   7.190 -0.1454 -0.2208  0.1191
70753SOL    HW122189  12.098   1.707   7.269 -2.7862  1.5534 -1.3202
70753SOL    HW222190  12.087   1.714   7.118  0.1582 -2.3833 -1.8933
70754SOL     OW22191  11.209   4.591   2.657 -0.4598  0.1657  0.2877
70754SOL    HW122192  11.193   4.611   2.565 -0.8054  1.1808  0.5573
70754SOL    HW222193  11.292   4.543   2.657 -2.0673 -2.9146 -0.8788
70755SOL     OW22194   1.435  11.418  10.011 -0.2902  0.0256  0.0364
70755SOL    HW122195   1.353  11.466  10.025 -0.8143 -0.2468 -1.7444
70755SOL    HW222196   1.475  11.462   9.936  1.1127  0.0169  0.7575
70756SOL     OW22197  13.227  10.429  11.315  0.4696  0.8456  0.2506
70756SOL    HW122198  13.268  10.370  11.252  0.5345  0.4074  0.7016
70756SOL    HW222199  13.171  10.485  11.261  0.4372  0.4055 -0.1842
70757SOL     OW22200  11.740   6.098  13.061 -0.4292 -0.0602  0.2255
70757SOL    HW122201  11.681   6.165  13.029  0.0161  0.4626  0.4915
70757SOL    HW222202  11.793   6.141  13.129 -0.1961 -0.6917  0.4600
70758SOL     OW22203   7.132  12.132   4.328  0.1532  0.0454  0.8340
70758SOL    HW122204   7.223  12.151   4.350  2.1191 -1.1291 -4.7315
70758SOL    HW222205   7.090  12.218   4.323  2.5605  1.2302 -1.6103
70759SOL     OW22206   8.124  12.926   5.462  0.0028 -0.6240  0.0415
70759SOL    HW122207   8.182  12.942   5.536  0.5727 -1.8909 -0.1149
70759SOL    HW222208   8.168  12.966   5.387  0.6140 -1.4469 -0.0471
70760SOL     OW22209  12.464   1.504   7.670  0.0241  0.4109  0.2330
70760SOL    HW122210  12.442   1.414   7.647  0.9755  0.3790 -0.6202
70760SOL    HW222211  12.423   1.557   7.601  1.0108  0.4836 -0.3134
70761SOL     OW22212   7.670   1.305   2.104 -0.7537  0.8612  0.4416
70761SOL    HW122213   7.756   1.302   2.144  0.0813  1.2555 -1.2045
70761SOL    HW222214   7.622   1.371   2.154 -0.9943 -1.0318  2.9006
70762SOL     OW22215   7.304   9.404   7.204 -0.0889 -0.4657 -0.4406
70762SOL    HW122216   7.308   9.491   7.245 -1.9098 -0.5211 -0.0514
70762SOL    HW222217   7.329   9.343   7.273  2.1684 -0.2400 -0.9827
70763SOL     OW22218  12.097  12.694   6.545  0.5396  0.3609 -0.0699
70763SOL    HW122219  12.053  12.779   6.550  0.7588  0.4075  2.0182
70763SOL    HW222220  12.028  12.632   6.520  0.2039  1.0060 -0.7830
70764SOL     OW22221   9.988   3.124   4.495  0.3251  0.0641  0.1272
70764SOL    HW122222  10.075   3.084   4.499 -0.1681 -0.9775  0.9684
70764SOL    HW222223   9.954   3.116   4.584 -0.1978  1.4801  0.0760
70765SOL     OW22224   0.260   4.679  10.088 -0.2387 -0.4424 -0.1750
70765SOL    HW122225   0.298   4.732  10.017 -0.0778  0.4817  0.5758
70765SOL    HW222226   0.288   4.590  10.069  1.3769  0.0430 -0.2784
70766SOL     OW22227   4.008   1.909   9.000  0.1397  0.0827  0.0279
70766SOL    HW122228   4.000   1.957   9.082  1.4258  0.9439 -0.3203
70766SOL    HW222229   3.956   1.830   9.014 -1.8265  1.4169  0.7122
70767SOL     OW22230   7.226  12.264   8.407 -0.1409 -0.2454 -0.2453
70767SOL    HW122231   7.267  12.177   8.406 -1.9032 -1.1199  0.5964
70767SOL    HW222232   7.299  12.324   8.392  1.4146 -1.7582  0.8730
70768SOL     OW22233  12.916   7.454  12.681 -0.2399  0.4348 -0.1552
70768SOL    HW122234  12.906   7.373  12.631 -2.3953  1.3212 -1.3259
70768SOL    HW222235  12.926   7.426  12.772 -0.5754 -1.1522 -0.5859
70769SOL     OW22236  11.129   4.466   6.110 -0.4824  0.0885 -0.1528
70769SOL    HW122237  11.087   4.457   6.195  1.4413 -0.6144  0.7751
70769SOL    HW222238  11.126   4.560   6.092  0.0503  0.3800  1.2018
70770SOL     OW22239   7.398   8.988   0.418  0.1325 -0.4826 -0.2920
70770SOL    HW122240   7.368   9.027   0.336 -0.6134 -0.2672  0.0790
70770SOL    HW222241   7.378   9.053   0.485 -0.5373 -1.2135  0.2455
70771SOL     OW22242   9.546  12.678   3.700  0.1601 -0.2823 -0.2781
70771SOL    HW122243   9.494  12.724   3.634  0.9166  1.1681  0.1010
70771SOL    HW222244   9.494  12.600   3.721 -1.4479  0.6783 -0.5168
70772SOL     OW22245  12.189   4.380   9.848 -0.0525 -0.8652  0.4490
70772SOL    HW122246  12.208   4.386   9.754  0.1956  0.2922  0.5595
70772SOL    HW222247  12.230   4.458   9.886 -0.8932 -0.8609  1.3922
70773SOL     OW22248  13.042   5.642  13.191 -0.6124  0.3234 -0.7258
70773SOL    HW122249  13.016   5.573  13.252  0.7927  1.0210  0.7352
70773SOL    HW222250  12.967   5.652  13.132 -1.4949 -1.2747  0.0636
70774SOL     OW22251  13.120   1.548   1.554 -0.4176  0.3779 -0.1779
70774SOL    HW122252  13.169   1.602   1.492 -1.8326  0.8651 -0.9047
70774SOL    HW222253  13.057   1.500   1.500 -1.1728  0.2353  0.8009
70775SOL     OW22254   5.831   9.226  13.129 -0.7085 -0.3260 -0.3512
70775SOL    HW122255   5.885   9.229  13.050 -0.2778 -0.2817 -0.0549
70775SOL    HW222256   5.820   9.317  13.155 -2.2315 -0.1899 -1.2767
70776SOL     OW22257  12.873  11.521   5.663 -0.2515 -0.3478  0.1765
70776SOL    HW122258  12.958  11.536   5.704 -0.9424  1.1373  1.1544
70776SOL    HW222259  12.815  11.587   5.702 -1.6192 -0.6685 -1.1988
70777SOL     OW22260   0.248  13.311  10.376  0.3101  0.2626 -0.8746
70777SOL    HW122261   0.191  13.237  10.394  0.0555  0.4661 -0.8328
70777SOL    HW222262   0.236  13.369  10.452  0.1419  0.5671 -1.1327
70778SOL     OW22263   7.469   0.525   4.954  0.4155 -0.2427 -0.5233
70778SOL    HW122264   7.404   0.456   4.940 -0.9192  0.7006  0.7659
70778SOL    HW222265   7.488   0.521   5.047  4.3893 -2.3047 -1.1839
70779SOL     OW22266   8.428   9.433   4.028  0.5456  0.4123 -0.2995
70779SOL    HW122267   8.391   9.397   3.947 -0.3796  0.2372  0.1886
70779SOL    HW222268   8.360   9.491   4.061  0.1449 -0.9073  1.2979
70780SOL     OW22269   6.444   0.362   4.055 -0.0597  0.2260  0.3084
70780SOL    HW122270   6.358   0.402   4.048  0.5540  1.6253  0.2824
70780SOL    HW222271   6.498   0.429   4.098  1.6875  0.5068 -2.1316
70781SOL     OW22272  10.321   8.013   3.091 -0.0451  0.0933 -0.0241
70781SOL    HW122273  10.298   7.978   3.178  0.2243  2.1563  0.9358
70781SOL    HW222274  10.241   8.056   3.061 -0.3898 -1.3238 -1.2048
70782SOL     OW22275   6.093   5.488   4.730 -0.2080  0.4321  0.1763
70782SOL    HW122276   6.166   5.456   4.677  1.6311  1.9137  1.6647
70782SOL    HW222277   6.044   5.409   4.755 -0.0897 -0.4390 -2.1695
70783SOL     OW22278   3.115   0.561   8.012  0.4507 -1.0109 -0.2860
70783SOL    HW122279   3.116   0.615   8.090 -1.9872 -0.9944 -0.1888
70783SOL    HW222280   3.204   0.526   8.005  0.7153 -1.0718  2.5188
70784SOL     OW22281   2.075   1.862   7.918 -0.6963  0.0589  0.4632
70784SOL    HW122282   2.042   1.774   7.900  1.6267 -0.4696 -1.8095
70784SOL    HW222283   2.098   1.861   8.011 -1.9041 -1.2600  0.7930
70785SOL     OW22284   1.226   9.959   2.093 -0.4091 -0.4303 -0.7966
70785SOL    HW122285   1.279   9.928   2.020 -0.2944  1.3875 -1.5455
70785SOL    HW222286   1.139   9.973   2.056 -0.6474 -0.5440 -0.3000
70786SOL     OW22287   3.128  11.972   8.549  0.4276  0.2118  0.0750
70786SOL    HW122288   3.112  12.056   8.504  0.7770  0.2336 -0.0170
70786SOL    HW222289   3.097  11.987   8.638 -1.2674 -0.1755 -0.4133
70787SOL     OW22290   2.399   6.916   7.495 -0.1598  0.0185  0.3178
70787SOL    HW122291   2.333   6.983   7.512  0.2364  0.7990 -1.0933
70787SOL    HW222292   2.436   6.896   7.582  0.4449  2.3894  0.6643
70788SOL     OW22293   1.514   5.919   5.621 -0.1206 -0.3380 -0.0341
70788SOL    HW122294   1.551   6.002   5.590  1.8884 -1.1877 -0.0547
70788SOL    HW222295   1.566   5.897   5.698 -1.4551 -0.9899  0.7060
70789SOL     OW22296  12.685   8.209   8.548  0.6874 -0.5015 -0.4232
70789SOL    HW122297  12.707   8.293   8.588 -0.5581 -0.8963  1.1450
70789SOL    HW222298  12.760   8.153   8.568  0.5194 -0.4042  0.5121
70790SOL     OW22299  10.225   8.492   0.558 -0.5876  0.0676 -0.2172
70790SOL    HW122300  10.150   8.549   0.575 -0.3467  0.4812 -0.4840
70790SOL    HW222301  10.235   8.494   0.462  0.0270  0.3747 -0.1552
70791SOL     OW22302   6.600   4.142  11.692  0.4407 -0.0129 -0.1537
70791SOL    HW122303   6.660   4.201  11.648 -2.6576  2.9624 -0.7992
70791SOL    HW222304   6.614   4.160  11.785  0.7588  0.4175 -0.2781
70792SOL     OW22305   7.497  11.090   6.654  0.1914  0.3661  0.4448
70792SOL    HW122306   7.461  11.024   6.595 -0.9290  1.5954 -0.3055
70792SOL    HW222307   7.514  11.042   6.736  0.5241 -1.0772 -0.4345
70793SOL     OW22308   1.591   2.673   3.730 -0.1434 -0.4280 -0.8855
70793SOL    HW122309   1.642   2.752   3.714  1.9356 -1.3856  0.4505
70793SOL    HW222310   1.511   2.704   3.772  0.8245  0.9579  0.0262
70794SOL     OW22311   6.363   8.291   4.865 -0.8192 -0.2270  0.0685
70794SOL    HW122312   6.456   8.311   4.854 -0.6436 -2.0564 -2.9565
70794SOL    HW222313   6.360   8.195   4.874 -2.4411 -0.3344 -1.0852
70795SOL     OW22314  12.811   6.760  11.490 -0.4572 -0.1146  0.3309
70795SOL    HW122315  12.819   6.809  11.572 -0.3012 -2.1469  1.6045
70795SOL    HW222316  12.719   6.734  11.486 -0.7370  0.9793 -0.7765
70796SOL     OW22317  11.564   5.774   9.031  0.0599 -0.1676  0.5121
70796SOL    HW122318  11.534   5.705   8.972  0.0002 -0.1572  0.5303
70796SOL    HW222319  11.600   5.841   8.973  0.1781 -0.2421  0.4971
70797SOL     OW22320   3.124   0.863  10.122 -0.1559  0.1455  0.1933
70797SOL    HW122321   3.120   0.928  10.193 -1.1776  0.7374 -0.3880
70797SOL    HW222322   3.070   0.900  10.052 -0.3426 -1.1009 -0.3528
70798SOL     OW22323   1.646  13.215   6.972 -0.1335 -0.4531 -0.1981
70798SOL    HW122324   1.550  13.213   6.970 -0.1234 -0.4651 -0.8971
70798SOL    HW222325   1.671  13.127   6.997 -0.3118 -0.3201  0.4689
70799SOL     OW22326   0.313   6.942   2.148 -0.4873  0.5573 -0.2142
70799SOL    HW122327   0.259   7.021   2.140 -0.1531  0.8480  0.3428
70799SOL    HW222328   0.328   6.932   2.242 -1.2556 -0.6772 -0.2013
70800SOL     OW22329  13.045   0.591   2.777 -0.2225 -0.0416  0.2520
70800SOL    HW122330  13.078   0.502   2.765  1.5514  0.6969 -0.7383
70800SOL    HW222331  13.004   0.613   2.693  0.2104  0.3840  0.1424
70801SOL     OW22332   6.723  12.679   7.426  0.2014 -0.2550  0.3476
70801SOL    HW122333   6.762  12.621   7.491 -0.7698 -0.3267  0.8852
70801SOL    HW222334   6.634  12.695   7.458 -0.5740 -0.9308 -1.3647
70802SOL     OW22335   6.700   1.248   0.182  0.7180  0.3463 -0.0098
70802SOL    HW122336   6.730   1.298   0.106 -0.3379 -1.8271 -2.0072
70802SOL    HW222337   6.604   1.256   0.178  0.6419 -0.0739  0.9067
70803SOL     OW22338   9.558   3.992  11.776  0.2145 -0.0252  0.2880
70803SOL    HW122339   9.541   4.073  11.729  0.7353 -1.6083 -2.8449
70803SOL    HW222340   9.650   3.999  11.802 -0.1455  0.9678  1.3967
70804SOL     OW22341   8.300  12.390  10.432 -0.5916  0.2736 -0.5840
70804SOL    HW122342   8.309  12.483  10.449  1.4097  0.0481 -0.1364
70804SOL    HW222343   8.232  12.384  10.364 -1.8096  1.9111  0.4342
70805SOL     OW22344  10.126   2.540   0.482  0.3323 -0.1192 -0.1668
70805SOL    HW122345  10.204   2.486   0.474  0.8209  0.7140 -1.2856
70805SOL    HW222346  10.150   2.605   0.548 -0.0382 -0.8763  0.7317
70806SOL     OW22347  12.687   2.090   8.337  0.3632  0.9800 -0.4618
70806SOL    HW122348  12.781   2.096   8.323  0.4736  0.7811  0.1625
70806SOL    HW222349  12.673   2.004   8.376 -0.1043  0.9154 -0.7562
70807SOL     OW22350   9.386   8.129   5.136  0.0486 -0.1423 -0.0661
70807SOL    HW122351   9.321   8.146   5.204  2.2497  2.5012  1.5893
70807SOL    HW222352   9.470   8.143   5.179  1.6261  0.1167 -2.9787
70808SOL     OW22353  12.999   2.006  10.583  0.1099 -0.0367  0.0267
70808SOL    HW122354  13.086   2.037  10.560 -0.2971  0.1956 -1.2988
70808SOL    HW222355  12.976   1.944  10.513 -1.4772  1.2531 -0.6853
70809SOL     OW22356   2.815  13.092   3.468  0.6831 -0.1595  0.7500
70809SOL    HW122357   2.729  13.107   3.429  1.4274  0.5066 -0.7353
70809SOL    HW222358   2.802  13.017   3.526 -0.2837 -2.0333 -1.7007
70810SOL     OW22359   9.616   4.766   8.524 -0.0021  0.1142  0.4373
70810SOL    HW122360   9.584   4.679   8.546 -0.8395  0.2183 -0.3220
70810SOL    HW222361   9.559   4.826   8.573 -0.7480  0.2861 -0.6061
70811SOL     OW22362  11.275   6.509   5.560 -0.4043 -0.2864  0.3407
70811SOL    HW122363  11.243   6.540   5.475 -1.3149 -0.6270  0.5498
70811SOL    HW222364  11.362   6.547   5.568 -0.2694 -0.3245 -0.7878
70812SOL     OW22365  10.005  11.595   1.930 -0.1044  0.0511  0.3125
70812SOL    HW122366  10.034  11.504   1.922  0.4996  0.0934  1.7532
70812SOL    HW222367   9.935  11.592   1.995  1.2561  0.8468  1.8990
70813SOL     OW22368  11.621   6.203  11.423 -0.2645  0.1245 -0.4852
70813SOL    HW122369  11.530   6.231  11.424 -0.2743  0.1589  1.1455
70813SOL    HW222370  11.670   6.279  11.391 -0.9760 -0.7292 -4.0009
70814SOL     OW22371   7.995   0.569  12.925 -0.0023  0.0185  0.2941
70814SOL    HW122372   7.899   0.578  12.922 -0.1324 -0.9451  1.0400
70814SOL    HW222373   8.019   0.599  13.012  0.2056 -0.9907  0.6054
70815SOL     OW22374   5.001   7.515  13.201  0.4208  0.2403  0.2258
70815SOL    HW122375   5.080   7.462  13.188  0.1180  0.4099 -3.4886
70815SOL    HW222376   5.028   7.604  13.180 -0.0403  0.9376  2.3519
70816SOL     OW22377   8.484   1.480   2.039 -0.3696  0.3784  0.4779
70816SOL    HW122378   8.557   1.536   2.063 -0.1232  0.6117 -0.7569
70816SOL    HW222379   8.518   1.391   2.047 -0.0663  0.4763  0.3074
70817SOL     OW22380   1.226   2.031   2.171  0.1968 -0.3163  1.0017
70817SOL    HW122381   1.190   1.970   2.235  0.7488 -0.6023  1.0469
70817SOL    HW222382   1.312   1.995   2.148 -0.1556 -0.4443 -0.2125
70818SOL     OW22383  11.444   6.748   2.758  0.2077 -0.0006  0.4464
70818SOL    HW122384  11.519   6.794   2.796  0.3194 -0.6957  1.1047
70818SOL    HW222385  11.464   6.743   2.664  0.9280 -0.0735  0.5980
70819SOL     OW22386  10.321   8.372   1.453  0.9778 -0.1230  0.2571
70819SOL    HW122387  10.400   8.351   1.502  0.7217  0.9026  1.1481
70819SOL    HW222388  10.337   8.461   1.419  1.1880 -0.8252 -1.6213
70820SOL     OW22389  10.833  13.251  10.373  0.4153 -0.1272  0.1897
70820SOL    HW122390  10.807  13.336  10.337 -1.8032 -1.2400 -1.0505
70820SOL    HW222391  10.904  13.271  10.433  0.5906  2.4872 -0.7760
70821SOL     OW22392   0.081   1.043   0.160 -0.1341  0.1415 -0.1377
70821SOL    HW122393   0.036   1.037   0.076 -0.4050  0.7604 -0.0452
70821SOL    HW222394   0.153   0.981   0.153 -0.7399 -0.5450 -0.4517
70822SOL     OW22395   1.042   9.011   5.307 -0.3511  0.5170 -0.8073
70822SOL    HW122396   0.992   8.958   5.244  1.2171 -0.0567 -1.6394
70822SOL    HW222397   1.041   8.960   5.388  3.6926 -2.5742 -2.3690
70823SOL     OW22398   7.414   4.935   1.893  0.0538 -0.7420  0.5660
70823SOL    HW122399   7.441   4.882   1.818  1.6655  2.7745 -1.6256
70823SOL    HW222400   7.327   4.968   1.869  0.2478 -0.2020  0.5992
70824SOL     OW22401  11.795  10.236  11.645  0.5624 -0.0089 -0.0665
70824SOL    HW122402  11.775  10.324  11.679 -1.4282  0.7520 -2.8363
70824SOL    HW222403  11.722  10.182  11.675 -1.1352  0.6379 -2.7117
70825SOL     OW22404   2.758   0.798   9.611  0.2476  0.2581  0.1904
70825SOL    HW122405   2.667   0.768   9.604  0.0678  0.7582  0.3676
70825SOL    HW222406   2.778   0.831   9.523  0.2805  0.0914  0.1343
70826SOL     OW22407  11.869   2.423   2.265 -0.4489  0.0562 -0.6084
70826SOL    HW122408  11.878   2.328   2.258  0.7544  0.0903  0.2272
70826SOL    HW222409  11.938   2.458   2.208 -0.9805  0.4432 -1.0290
70827SOL     OW22410  10.162  12.490  12.325  0.0441 -0.3116  0.5462
70827SOL    HW122411  10.114  12.486  12.242 -3.3365  0.8209  2.2611
70827SOL    HW222412  10.153  12.581  12.353  1.3857 -0.6022  2.0698
70828SOL     OW22413   0.694  13.169   8.102  0.2394  0.1643  0.1073
70828SOL    HW122414   0.658  13.130   8.022  1.3321  1.8322 -1.2780
70828SOL    HW222415   0.639  13.245   8.118  0.5343  0.3051  0.4483
70829SOL     OW22416   8.910   9.610  11.213 -0.0499 -0.1914 -0.4821
70829SOL    HW122417   9.005   9.622  11.224  0.0954 -0.6132 -1.1954
70829SOL    HW222418   8.883   9.560  11.290  0.1426  0.6779  0.1710
70830SOL     OW22419   5.751   2.610  11.470 -0.2795  0.0366  0.2429
70830SOL    HW122420   5.689   2.571  11.531 -2.2760  1.9124 -0.4362
70830SOL    HW222421   5.735   2.565  11.387 -2.8475  2.3290 -0.6350
70831SOL     OW22422   9.521   8.472   2.018  0.0497 -0.2978  0.1358
70831SOL    HW122423   9.612   8.495   2.038 -0.1324  0.8020 -0.2501
70831SOL    HW222424   9.469   8.531   2.072 -0.4467 -0.8573  0.2833
70832SOL     OW22425   8.595   2.352   9.016 -0.2474  0.2031  0.1842
70832SOL    HW122426   8.651   2.349   8.938 -0.0237  0.2265  0.3415
70832SOL    HW222427   8.588   2.445   9.036 -1.0627  0.2633 -0.3429
70833SOL     OW22428  12.591  12.708   5.577 -0.2011 -0.4812 -0.2262
70833SOL    HW122429  12.670  12.658   5.560  0.3607  0.2166  0.2462
70833SOL    HW222430  12.520  12.644   5.574  0.5441 -1.3912  0.7955
70834SOL     OW22431   1.906   5.529   9.431  0.2793 -0.5330 -0.3041
70834SOL    HW122432   1.846   5.485   9.491  0.3938  0.8629  0.9094
70834SOL    HW222433   1.873   5.619   9.426  1.3563 -0.1438 -0.8742
70835SOL     OW22434   3.030   8.299   2.272  0.4909 -0.3660  0.2069
70835SOL    HW122435   2.987   8.215   2.287 -0.3532  0.1223  0.6382
70835SOL    HW222436   3.118   8.277   2.243  0.0568 -1.4000 -0.3652
70836SOL     OW22437   0.214   1.572   8.346  0.6325 -0.0676  0.2452
70836SOL    HW122438   0.248   1.507   8.286  2.1595  2.0600 -1.3319
70836SOL    HW222439   0.125   1.589   8.316  0.4496 -0.9459  0.2855
70837SOL     OW22440   2.181   2.255   0.353 -0.7547  0.1296 -0.1773
70837SOL    HW122441   2.273   2.248   0.378 -0.7314 -1.2778 -0.5660
70837SOL    HW222442   2.149   2.165   0.355 -1.3803  0.2316 -2.8067
70838SOL     OW22443   6.726   9.842   9.678  0.2332  0.5448 -0.2663
70838SOL    HW122444   6.811   9.885   9.683 -0.6599  2.3778  0.0928
70838SOL    HW222445   6.678   9.891   9.611 -0.4174 -0.6910 -0.7311
70839SOL     OW22446   6.931  11.734   8.778  0.0649  0.2167 -0.5504
70839SOL    HW122447   6.871  11.732   8.853  1.1592 -1.0901  0.3455
70839SOL    HW222448   7.018  11.727   8.817  0.6624 -0.4598 -1.9357
70840SOL     OW22449   8.916   9.096   3.283  0.1820 -0.2086  0.5214
70840SOL    HW122450   8.948   9.140   3.204  0.7071  0.8538  1.3034
70840SOL    HW222451   8.860   9.026   3.249  0.4833  0.1444 -0.7969
70841SOL     OW22452   1.013   1.710   7.349 -0.2993 -0.1214  0.0658
70841SOL    HW122453   0.933   1.699   7.400  1.5286  1.4716  3.6245
70841SOL    HW222454   1.042   1.620   7.332 -0.8280 -0.7809  2.2705
70842SOL     OW22455  12.763  13.002   9.620  0.4782 -0.1970  0.3266
70842SOL    HW122456  12.833  13.063   9.641  0.2471  0.0533  0.3772
70842SOL    HW222457  12.789  12.920   9.660  1.6692 -0.6240 -1.2443
70843SOL     OW22458  10.209   4.839   7.518 -0.3124 -0.0599  0.4642
70843SOL    HW122459  10.251   4.913   7.474  0.6250  0.8037  2.6803
70843SOL    HW222460  10.134   4.817   7.462  0.6288  1.1433 -1.3565
70844SOL     OW22461   5.227  12.336   4.827  0.0597 -0.0829  0.2285
70844SOL    HW122462   5.165  12.266   4.847  0.1324 -0.4205 -0.6940
70844SOL    HW222463   5.231  12.338   4.731  2.5575 -1.0678  0.2219
70845SOL     OW22464   9.310   4.011   3.511  0.0008  0.4240  0.1378
70845SOL    HW122465   9.262   4.087   3.480  1.4879  0.7418 -1.5601
70845SOL    HW222466   9.358   3.980   3.434  0.9356 -1.0702  1.2577
70846SOL     OW22467   0.924   6.668   5.406 -0.1358  0.3775 -0.5121
70846SOL    HW122468   0.883   6.632   5.484 -0.4442  1.6907 -0.0479
70846SOL    HW222469   1.010   6.625   5.402  0.1547  0.7734  0.9177
70847SOL     OW22470   8.402   9.794   7.212 -0.5058  0.0113  0.2100
70847SOL    HW122471   8.389   9.870   7.155 -0.5298 -0.7811 -0.8980
70847SOL    HW222472   8.476   9.817   7.267  0.3306  0.3460 -1.0108
70848SOL     OW22473   2.881   5.320   7.265  0.0589  0.5795 -0.0309
70848SOL    HW122474   2.797   5.286   7.236 -0.1938  1.3441 -0.2102
70848SOL    HW222475   2.945   5.258   7.230 -0.5114 -1.0037  1.5720
70849SOL     OW22476  12.333   6.429   5.222 -0.3380  0.2812 -0.2103
70849SOL    HW122477  12.321   6.436   5.128  0.0129 -1.5224 -0.4326
70849SOL    HW222478  12.268   6.364   5.250 -0.8156  1.1998  0.8891
70850SOL     OW22479   8.952   5.273  11.672  0.3465  0.0685  0.1736
70850SOL    HW122480   9.029   5.317  11.708 -0.2192  1.0160  0.2601
70850SOL    HW222481   8.958   5.287  11.578  0.2984  0.1123  0.1767
70851SOL     OW22482   7.996   9.299  10.387  0.0353 -0.2931 -0.7212
70851SOL    HW122483   7.943   9.296  10.466  1.1178 -0.4120  0.0320
70851SOL    HW222484   8.075   9.250  10.410  0.5079 -0.0527 -1.7762
70852SOL     OW22485  12.686   7.633   2.149 -0.3439 -0.1907  0.2641
70852SOL    HW122486  12.677   7.578   2.071  2.1736 -0.8367  0.3435
70852SOL    HW222487  12.719   7.574   2.217  0.2596  0.9346  0.9839
70853SOL     OW22488  11.531   5.020  11.146 -0.3420  0.0647 -0.0136
70853SOL    HW122489  11.526   4.996  11.238 -0.1312 -0.4780 -0.1418
70853SOL    HW222490  11.611   4.979  11.114 -0.3720  0.3090 -0.4233
70854SOL     OW22491   9.702   2.808   5.646 -0.1565 -0.5727 -0.3056
70854SOL    HW122492   9.658   2.760   5.576 -1.1652  2.3417 -1.8183
70854SOL    HW222493   9.641   2.804   5.720 -1.2861  0.2270 -1.1556
70855SOL     OW22494  10.725   7.606   2.869 -0.9315  0.0270 -0.1699
70855SOL    HW122495  10.782   7.638   2.800  0.2842  1.9803  1.6029
70855SOL    HW222496  10.641   7.589   2.826  0.2415 -0.4835 -2.3716
70856SOL     OW22497   6.971  11.759  10.363  0.0285  0.1855  0.8515
70856SOL    HW122498   6.999  11.689  10.304 -3.1332 -1.7686  1.4030
70856SOL    HW222499   6.914  11.814  10.310  2.9874  2.9491  0.2416
70857SOL     OW22500  12.722   5.295  12.808 -0.4147  0.1857  0.0652
70857SOL    HW122501  12.682   5.217  12.768  0.5305 -0.0862 -0.3625
70857SOL    HW222502  12.781   5.260  12.875  1.2714  0.4155 -1.2285
70858SOL     OW22503  11.892   1.454   4.605 -0.2480  0.3333 -0.0390
70858SOL    HW122504  11.897   1.514   4.530 -2.3547  2.4559  1.3721
70858SOL    HW222505  11.878   1.368   4.565  1.3093  0.9481 -2.1099
70859SOL     OW22506   4.759   0.771  11.329  0.6825  0.0325 -0.8518
70859SOL    HW122507   4.733   0.701  11.269 -2.2870  0.3790 -0.1214
70859SOL    HW222508   4.729   0.852  11.287  1.5116  0.5914 -0.3910
70860SOL     OW22509   7.565   6.899  11.014 -0.1009  0.2085  0.8634
70860SOL    HW122510   7.531   6.966  11.073  0.7610  0.7432  0.7702
70860SOL    HW222511   7.660   6.902  11.026  0.3924  2.1304 -2.3465
70861SOL     OW22512   1.548   6.514   4.591  0.6178  0.1047 -0.2681
70861SOL    HW122513   1.532   6.434   4.642 -2.4957 -0.0767 -1.3359
70861SOL    HW222514   1.523   6.585   4.650 -0.0375  0.0532 -0.4685
70862SOL     OW22515   8.518   1.364  10.021 -0.3373  0.9339 -0.0468
70862SOL    HW122516   8.603   1.321  10.024 -0.6796  0.2769  0.6605
70862SOL    HW222517   8.486   1.349   9.932  0.4921  1.6202 -0.4754
70863SOL     OW22518   0.242   1.273   1.267 -0.3195  0.0375 -0.4191
70863SOL    HW122519   0.258   1.310   1.355 -0.2133  0.6666 -0.6955
70863SOL    HW222520   0.272   1.342   1.207 -0.9675 -0.1406 -0.9529
70864SOL     OW22521   3.897  13.169   6.530  0.2295  0.2693 -0.1979
70864SOL    HW122522   3.962  13.109   6.566 -1.3697 -1.4609 -0.0429
70864SOL    HW222523   3.844  13.115   6.472 -1.4143  1.4774  0.1139
70865SOL     OW22524   1.484   0.114   8.945 -0.4309  0.1593 -0.1282
70865SOL    HW122525   1.495   0.209   8.936  0.9055  0.0296 -0.0642
70865SOL    HW222526   1.462   0.101   9.037 -0.9892  0.4291 -0.2183
70866SOL     OW22527   8.615   1.059   8.685 -0.1766  0.5233  0.2121
70866SOL    HW122528   8.586   1.151   8.688  0.7016  0.8812 -1.2209
70866SOL    HW222529   8.705   1.062   8.718  0.5790  0.5395 -1.7476
70867SOL     OW22530   2.967  11.752   9.562 -0.0046 -0.2000 -0.0148
70867SOL    HW122531   2.998  11.771   9.651  0.9523  0.2361 -0.4383
70867SOL    HW222532   2.920  11.669   9.571  1.4960 -1.0138  0.6036
70868SOL     OW22533  12.955   4.958   6.090  0.8685  0.1227  0.3121
70868SOL    HW122534  13.002   4.902   6.028  0.9580 -1.4996  1.7579
70868SOL    HW222535  12.862   4.945   6.069  0.8600 -1.0363  0.9611
70869SOL     OW22536  12.618   9.941   4.081  0.0216 -0.1968 -0.1063
70869SOL    HW122537  12.708   9.910   4.083 -0.3911 -1.5888 -1.0363
70869SOL    HW222538  12.565   9.862   4.096 -1.0702  0.2232 -1.4740
70870SOL     OW22539  10.959   9.707  12.683  0.2318 -0.6000 -0.4932
70870SOL    HW122540  11.044   9.746  12.664  0.2019 -1.5908 -3.1220
70870SOL    HW222541  10.977   9.613  12.693 -0.3101 -0.5697  0.9558
70871SOL     OW22542   5.822  10.234   8.974 -0.8002 -0.4829 -0.3947
70871SOL    HW122543   5.779  10.263   8.894 -1.0038 -0.3096 -0.2254
70871SOL    HW222544   5.770  10.160   9.005 -1.0617 -0.1907 -0.1197
70872SOL     OW22545   7.939   5.215  11.391 -0.4305  0.1862 -0.0032
70872SOL    HW122546   7.887   5.222  11.471 -2.6029  1.2500 -1.4230
70872SOL    HW222547   7.960   5.122  11.384 -0.5489  0.0172  1.5787
70873SOL     OW22548   2.048   5.553   4.676  0.0548 -0.2520  0.2297
70873SOL    HW122549   2.043   5.612   4.602  1.0662 -1.6007 -0.9672
70873SOL    HW222550   2.017   5.605   4.750  0.6498  1.6770 -0.7994
70874SOL     OW22551   1.975   0.475   3.305 -0.0860  0.5854 -0.1877
70874SOL    HW122552   1.890   0.434   3.288 -0.9931  2.2427  0.2185
70874SOL    HW222553   1.979   0.484   3.400  1.4788 -1.3094  0.0103
70875SOL     OW22554   4.604   7.185   6.748 -0.4761  0.6729  0.4271
70875SOL    HW122555   4.534   7.162   6.809  1.8598 -0.9914  2.6310
70875SOL    HW222556   4.624   7.277   6.767 -0.3855  0.4273  1.5432
70876SOL     OW22557  12.497  11.904  11.200  0.2590  0.0365  0.1689
70876SOL    HW122558  12.469  11.823  11.157  1.5787 -0.2611 -0.1878
70876SOL    HW222559  12.551  11.874  11.273 -0.1925  0.5876  0.7336
70877SOL     OW22560   9.407  12.192  12.412  0.0049  0.4765 -0.3219
70877SOL    HW122561   9.453  12.192  12.496 -0.3369 -0.8549 -0.1162
70877SOL    HW222562   9.384  12.101  12.397  0.9072  0.5221 -2.3379
70878SOL     OW22563  13.289   3.441   3.023  0.1968 -0.5955  0.0264
70878SOL    HW122564  13.241   3.516   2.989 -1.5525 -1.4425  0.5356
70878SOL    HW222565  13.314   3.467   3.112  2.8062  0.7354 -0.9816
70879SOL     OW22566   5.620   5.835  11.579 -0.5191 -0.6081  0.2554
70879SOL    HW122567   5.701   5.804  11.539 -0.3772  0.6006 -0.4602
70879SOL    HW222568   5.610   5.783  11.658 -0.1657 -2.2429 -0.7379
70880SOL     OW22569  12.648   8.923   0.807 -0.4398 -0.1928 -0.1270
70880SOL    HW122570  12.642   9.012   0.843  0.0681  0.3377 -1.3130
70880SOL    HW222571  12.626   8.933   0.715  0.7302 -1.1103 -0.5232
70881SOL     OW22572   0.509   7.211   8.905  0.0327  0.4309 -0.2112
70881SOL    HW122573   0.486   7.177   8.818  0.3220  0.6286 -0.3634
70881SOL    HW222574   0.474   7.145   8.965 -1.5441  1.0459 -0.4004
70882SOL     OW22575   0.528  11.070   1.736 -0.1083 -0.4132  0.6465
70882SOL    HW122576   0.470  11.111   1.671  2.4602  1.5648 -0.6367
70882SOL    HW222577   0.475  11.062   1.815 -1.9763  1.8237 -0.2508
70883SOL     OW22578   7.947  11.994   8.067 -0.6066  0.4270  0.4726
70883SOL    HW122579   7.868  12.025   8.111 -1.3258  0.8777 -1.0647
70883SOL    HW222580   7.966  12.061   8.001  1.3235  0.5408  1.0642
70884SOL     OW22581  12.125   6.072  10.897  0.5716 -0.0403 -0.1490
70884SOL    HW122582  12.155   6.036  10.814 -1.0321 -1.5910 -0.1063
70884SOL    HW222583  12.032   6.088  10.884 -0.2488 -2.5144  2.0181
70885SOL     OW22584   0.502   6.260   9.386  0.2197 -0.1766  0.2241
70885SOL    HW122585   0.526   6.322   9.455 -2.2030  0.7447  0.3318
70885SOL    HW222586   0.520   6.308   9.305  1.1480 -0.4956  0.2268
70886SOL     OW22587   2.373   6.236  12.593 -0.4195 -0.2677  0.3890
70886SOL    HW122588   2.290   6.231  12.640 -0.6569 -1.2946 -0.1229
70886SOL    HW222589   2.349   6.250  12.502  0.0565  3.6889  0.6732
70887SOL     OW22590   3.036   0.327   2.386  0.2824 -0.2532  0.0222
70887SOL    HW122591   3.081   0.278   2.455  1.2388 -0.2277 -0.5543
70887SOL    HW222592   3.095   0.320   2.311 -0.0885  0.8717 -0.3861
70888SOL     OW22593   9.840  10.738  13.157  0.7228  0.2812  0.0543
70888SOL    HW122594   9.758  10.755  13.202 -0.9882 -1.5090 -2.1212
70888SOL    HW222595   9.907  10.741  13.225 -1.5658 -1.6125  2.5885
70889SOL     OW22596  11.051   5.472   0.092  0.5018 -0.8432  0.1223
70889SOL    HW122597  11.077   5.504   0.006 -0.6091  2.3407  0.8205
70889SOL    HW222598  10.961   5.441   0.081  1.2886 -3.1143 -0.3708
70890SOL     OW22599   6.430   4.011   4.720  0.1993 -0.6780 -0.3069
70890SOL    HW122600   6.490   4.079   4.750 -1.1347  1.9336 -3.0064
70890SOL    HW222601   6.475   3.971   4.645  0.0301 -1.2074 -0.1315
70891SOL     OW22602  12.532   4.963   8.898  0.1682  0.7037  0.1447
70891SOL    HW122603  12.580   5.020   8.958 -0.0888  0.8998  0.1672
70891SOL    HW222604  12.544   4.875   8.934  0.6289  0.7344  0.0687
70892SOL     OW22605  10.549   7.031   4.696 -0.3281 -0.3760 -0.2617
70892SOL    HW122606  10.596   7.047   4.778 -0.7503 -1.6095  0.2506
70892SOL    HW222607  10.591   7.089   4.633  0.2214  0.3705  0.7473
70893SOL     OW22608   8.398   1.461   4.659  0.3656 -0.1724 -0.0883
70893SOL    HW122609   8.399   1.529   4.592 -0.2879 -0.8046 -0.7576
70893SOL    HW222610   8.305   1.440   4.671  0.5626 -1.0292  0.0126
70894SOL     OW22611  10.905   8.558   8.195  0.9244 -0.0426 -0.3779
70894SOL    HW122612  10.849   8.482   8.214  1.4328 -0.0338  1.3171
70894SOL    HW222613  10.851   8.633   8.219  1.7369 -0.0467  1.6777
70895SOL     OW22614   6.237   0.550   4.080  0.2769  0.5985  0.2115
70895SOL    HW122615   6.309   0.611   4.062  0.1396  0.6456 -0.1838
70895SOL    HW222616   6.158   0.602   4.066  0.1571  0.7472  1.3161
70896SOL     OW22617   4.897   7.821   1.809  0.1791  0.1578  0.1178
70896SOL    HW122618   4.883   7.901   1.860  1.4312 -0.0638  0.8410
70896SOL    HW222619   4.984   7.832   1.770 -0.0843 -0.3912 -0.6424
70897SOL     OW22620  10.821   8.013   2.244  0.1000 -0.0463  0.5981
70897SOL    HW122621  10.849   8.029   2.334 -0.9706 -1.6037  1.2638
70897SOL    HW222622  10.752   7.947   2.252 -0.6012  0.3851 -1.3089
70898SOL     OW22623  10.742  12.040   3.082  0.3388 -0.2884  0.5912
70898SOL    HW122624  10.654  12.026   3.049  0.7238  0.0227 -0.6201
70898SOL    HW222625  10.744  12.133   3.107  0.8054  0.1932 -1.0499
70899SOL     OW22626   0.934   5.977   9.489 -0.2479  0.0751  0.4603
70899SOL    HW122627   0.948   6.071   9.477  0.6795  0.0163  0.9638
70899SOL    HW222628   0.865   5.954   9.426 -0.3657  1.0579  0.2241
70900SOL     OW22629   3.632   6.733  11.289 -0.0210 -0.5476 -0.4146
70900SOL    HW122630   3.666   6.661  11.235  0.5870 -0.8417  0.3513
70900SOL    HW222631   3.609   6.801  11.226 -0.7903 -1.4823 -1.1772
70901SOL     OW22632  11.103   4.371   0.778  0.9288  0.2543  0.7504
70901SOL    HW122633  11.136   4.368   0.868 -0.5188 -1.6944  1.2877
70901SOL    HW222634  11.156   4.307   0.731 -0.3539 -1.0633  1.0268
70902SOL     OW22635   5.625  12.860  10.182 -0.2038  0.1532  0.0467
70902SOL    HW122636   5.673  12.939  10.157  1.0883 -0.7642 -0.4810
70902SOL    HW222637   5.610  12.814  10.099 -1.4495  0.1126  0.2829
70903SOL     OW22638   7.801   9.332   0.911 -0.1395 -0.1070 -0.8162
70903SOL    HW122639   7.879   9.384   0.931  0.1250 -1.3211  1.7441
70903SOL    HW222640   7.797   9.331   0.816  0.3597  3.7327 -1.0387
70904SOL     OW22641   8.618  10.590   6.140  0.4589  0.4991  0.1333
70904SOL    HW122642   8.661  10.647   6.076  0.1022 -0.4372 -0.9801
70904SOL    HW222643   8.635  10.501   6.107  0.9435 -0.0582  1.7786
70905SOL     OW22644   9.131   5.410   5.164 -0.2283 -0.2624  0.0041
70905SOL    HW122645   9.117   5.505   5.171 -2.0302 -0.3905 -1.3010
70905SOL    HW222646   9.129   5.379   5.255 -0.5551  0.8412  0.3864
70906SOL     OW22647   6.437  12.570   4.421  0.7525 -0.1530 -0.5252
70906SOL    HW122648   6.492  12.636   4.464  0.4180 -1.0156  1.3323
70906SOL    HW222649   6.353  12.614   4.407  0.1864 -0.4281  1.6627
70907SOL     OW22650   2.686   0.974   9.962 -0.3663 -0.1012 -0.5511
70907SOL    HW122651   2.608   1.026   9.980 -0.1505 -0.0479  0.2783
70907SOL    HW222652   2.718   1.006   9.878 -1.1024  0.0324 -0.7859
70908SOL     OW22653   4.356   6.481   2.455 -0.0504 -0.0117  0.1564
70908SOL    HW122654   4.382   6.515   2.369 -1.9510 -0.8601 -0.8146
70908SOL    HW222655   4.438   6.460   2.499  1.0109  1.6869 -0.9165
70909SOL     OW22656   6.889   6.824   0.748  0.6138 -0.0069 -0.1110
70909SOL    HW122657   6.880   6.803   0.655 -0.4794  1.6631 -0.4365
70909SOL    HW222658   6.828   6.898   0.762 -1.8064 -2.2519  2.6401
70910SOL     OW22659   1.276  10.608  12.789 -0.1311  0.4308 -0.1036
70910SOL    HW122660   1.242  10.696  12.771 -0.6735 -0.2284 -2.6557
70910SOL    HW222661   1.209  10.549  12.756 -0.1327 -1.0284  2.2693
70911SOL     OW22662  12.294   6.555  11.025  0.2307  0.7370  0.3905
70911SOL    HW122663  12.289   6.641  10.983 -0.9308  1.0624  1.1411
70911SOL    HW222664  12.242   6.498  10.967  0.1955  0.7616  0.3982
70912SOL     OW22665  12.622   7.898  10.586  0.0150 -0.2944  0.0575
70912SOL    HW122666  12.669   7.951  10.523  0.6679 -0.5543  0.3099
70912SOL    HW222667  12.603   7.816  10.540 -0.7444  0.0516 -0.2434
70913SOL     OW22668   4.668   8.310   5.861 -1.0310 -0.1560  0.2395
70913SOL    HW122669   4.745   8.341   5.812 -0.4951  0.2984  1.3246
70913SOL    HW222670   4.679   8.215   5.866 -1.8725 -0.4178 -1.7690
70914SOL     OW22671   4.084   6.683   6.815  0.1135  0.5994  0.4845
70914SOL    HW122672   4.097   6.595   6.849 -1.5559 -0.1778 -0.7404
70914SOL    HW222673   4.167   6.728   6.831  0.7367 -0.9502  1.8139
70915SOL     OW22674   2.814  11.850   5.643  0.4911 -0.6184  0.1714
70915SOL    HW122675   2.800  11.857   5.548 -0.3291 -0.9304  0.2617
70915SOL    HW222676   2.753  11.782   5.671  0.9438 -0.7356  0.8797
70916SOL     OW22677   2.916   0.016   3.163 -0.5062 -0.5234  0.0228
70916SOL    HW122678   2.941   0.085   3.101 -0.4715  1.1677  1.8372
70916SOL    HW222679   2.973  -0.057   3.141  1.4640  0.9889 -0.2027
70917SOL     OW22680   4.272  10.098  10.868 -0.1990  0.1626 -0.0354
70917SOL    HW122681   4.304  10.051  10.946 -0.3926  0.0247 -0.0406
70917SOL    HW222682   4.220  10.170  10.903  1.1035  1.1157  0.0077
70918SOL     OW22683  13.279  10.238   3.570 -0.2554 -0.3737  0.1957
70918SOL    HW122684  13.192  10.260   3.602  0.1733  0.4649  0.8541
70918SOL    HW222685  13.329  10.216   3.648  1.1782  2.9957  0.4313
70919SOL     OW22686   9.601  12.817   2.739  0.4581 -0.1868 -0.1842
70919SOL    HW122687   9.607  12.896   2.794 -0.9929  0.4088 -0.8510
70919SOL    HW222688   9.535  12.838   2.673  1.0658 -1.4565 -1.2453
70920SOL     OW22689   8.925  12.056   3.307  0.2130  0.7017 -0.3218
70920SOL    HW122690   8.885  11.972   3.286  0.4784  0.2953  0.7108
70920SOL    HW222691   8.895  12.115   3.239 -1.0159  0.0788 -0.3461
70921SOL     OW22692   3.940  13.036  12.744  0.2279  0.2198  0.0226
70921SOL    HW122693   3.946  13.074  12.656  0.6637  0.8899  0.3293
70921SOL    HW222694   3.881  13.095  12.792  0.5522  0.2664  0.3724
70922SOL     OW22695   9.097  12.902   4.303 -0.6580 -0.0748 -0.1961
70922SOL    HW122696   9.085  12.818   4.347 -2.5521 -0.0140 -0.5174
70922SOL    HW222697   9.141  12.957   4.368  0.1481 -1.1433  0.1954
70923SOL     OW22698   2.063   9.755   9.252 -0.2733 -0.7583  0.2858
70923SOL    HW122699   2.123   9.814   9.297  1.0305 -3.4551  2.3174
70923SOL    HW222700   2.112   9.673   9.243 -1.7670 -1.4727 -2.9819
70924SOL     OW22701   0.589   9.060   8.777 -0.0428 -0.3424  0.1633
70924SOL    HW122702   0.554   9.013   8.701  0.3869 -1.2139  0.4938
70924SOL    HW222703   0.656   9.002   8.813  0.3276  0.4155  0.7365
70925SOL     OW22704   5.191   8.293   4.532  0.2281 -0.0407  0.0746
70925SOL    HW122705   5.152   8.376   4.560 -0.8900 -0.6115  0.2638
70925SOL    HW222706   5.214   8.248   4.614 -0.4581 -0.5051  0.0230
70926SOL     OW22707  12.195   1.131   9.504  0.3508 -0.5941 -0.2664
70926SOL    HW122708  12.106   1.144   9.470  1.4965  1.5517 -2.8070
70926SOL    HW222709  12.217   1.214   9.546  0.8281 -1.4593  1.2489
70927SOL     OW22710   3.294   0.698  12.118  0.1681  0.3150  0.3273
70927SOL    HW122711   3.372   0.713  12.065 -0.5253  0.7100 -0.6172
70927SOL    HW222712   3.224   0.743  12.070 -0.4184  1.0409  1.7955
70928SOL     OW22713  13.299   3.223  12.488  0.4347 -0.3549 -0.2386
70928SOL    HW122714  13.282   3.311  12.522 -0.3970 -1.2808  1.9161
70928SOL    HW222715  13.377   3.194  12.535  0.6575 -0.8177 -0.8730
70929SOL     OW22716   8.693  10.420  12.051  0.1977  0.0276 -0.2842
70929SOL    HW122717   8.624  10.438  12.114  1.4009 -2.3588  1.9011
70929SOL    HW222718   8.769  10.467  12.083  0.5743 -0.4348 -0.4731
70930SOL     OW22719   6.802  11.510   5.322 -0.0988  0.1623  0.2746
70930SOL    HW122720   6.740  11.566   5.368 -0.4125  0.4032 -0.4321
70930SOL    HW222721   6.785  11.525   5.229  2.5090  1.9541 -0.0259
70931SOL     OW22722   0.850  12.786   9.927 -0.5262  0.2748  0.4582
70931SOL    HW122723   0.888  12.774  10.014 -0.5047 -0.7640  0.3170
70931SOL    HW222724   0.768  12.833   9.943  0.2608  1.5504  0.8653
70932SOL     OW22725   6.104   5.416  12.195  0.0027 -0.0945 -0.0495
70932SOL    HW122726   6.020   5.461  12.181 -0.2426 -0.1720  1.1341
70932SOL    HW222727   6.170   5.483  12.176 -0.3599  0.9951  2.2385
70933SOL     OW22728   8.988   2.117  12.794  0.4751  0.2701  0.2868
70933SOL    HW122729   9.078   2.098  12.818  0.4956 -1.6325 -1.0642
70933SOL    HW222730   8.959   2.183  12.858  2.1123 -0.6857  2.1293
70934SOL     OW22731   7.602   7.947  12.690  0.2241  0.5835  0.2160
70934SOL    HW122732   7.574   8.004  12.618 -1.6405  0.7678  1.0358
70934SOL    HW222733   7.685   7.984  12.719 -0.0055  1.7307 -0.5236
70935SOL     OW22734   5.059   2.354   0.751  0.0862 -0.6998 -0.2491
70935SOL    HW122735   5.097   2.425   0.698 -0.0789  0.7087  1.4336
70935SOL    HW222736   5.133   2.318   0.799  0.0353 -1.1528 -0.5073
70936SOL     OW22737  12.130  10.193   7.272  0.1069  0.5200  0.3485
70936SOL    HW122738  12.186  10.250   7.323 -1.4581  0.8087  1.8302
70936SOL    HW222739  12.103  10.124   7.333  0.5633 -0.8358 -0.9177
70937SOL     OW22740   7.510   8.738  11.885  0.2834 -0.2578 -0.1264
70937SOL    HW122741   7.477   8.725  11.974  1.2668 -3.2523 -0.0937
70937SOL    HW222742   7.556   8.657  11.864  0.8304  0.6847 -3.0750
70938SOL     OW22743  12.559   1.090   3.357 -0.1242  0.4815 -0.0726
70938SOL    HW122744  12.617   1.063   3.286  0.2509  1.6927 -0.2465
70938SOL    HW222745  12.476   1.108   3.315 -0.4526 -0.5870  0.0802
70939SOL     OW22746   4.108  10.669  10.441 -0.1423 -0.0899  0.7644
70939SOL    HW122747   4.096  10.624  10.524 -1.9260 -1.6703 -0.2792
70939SOL    HW222748   4.203  10.673  10.430  0.1059 -1.8150  1.8578
70940SOL     OW22749   0.088   9.263   2.247  1.0137 -0.1603 -0.3690
70940SOL    HW122750   0.040   9.248   2.329 -0.8409 -0.5525 -1.4572
70940SOL    HW222751   0.154   9.329   2.269  0.0471  0.3258  1.2472
70941SOL     OW22752   7.997   2.264   0.751 -0.1197  0.2555  0.2660
70941SOL    HW122753   7.990   2.171   0.728  1.0507 -0.1353  1.3528
70941SOL    HW222754   7.908   2.289   0.774 -0.2671 -0.9452  1.1420
70942SOL     OW22755   7.021   2.030   1.802 -0.0749 -0.2514 -0.0397
70942SOL    HW122756   7.105   2.029   1.755  0.2042 -0.7682  0.4592
70942SOL    HW222757   6.959   2.065   1.738  0.5973  0.5432 -0.2819
70943SOL     OW22758  10.266   2.156   2.059  0.0778 -0.5543  0.7392
70943SOL    HW122759  10.321   2.195   1.990 -2.2992  0.6222 -0.6251
70943SOL    HW222760  10.201   2.105   2.011 -1.3194 -0.1522  2.1432
70944SOL     OW22761   1.933   7.194  12.459  0.5498 -0.2912  0.1779
70944SOL    HW122762   1.930   7.099  12.446  1.1507 -0.8314  3.3543
70944SOL    HW222763   2.026   7.214  12.468  0.4060  0.6039 -0.1924
70945SOL     OW22764   3.657   2.687  10.650 -0.7226  0.2695 -0.3207
70945SOL    HW122765   3.652   2.596  10.621 -1.4945  0.9274 -2.3772
70945SOL    HW222766   3.714   2.730  10.587  0.4232  1.0541  1.1768
70946SOL     OW22767   0.334   5.191   1.781 -0.5198 -0.2998 -0.3068
70946SOL    HW122768   0.334   5.095   1.775 -2.5166 -0.4001  0.4827
70946SOL    HW222769   0.298   5.220   1.698  0.3438 -0.2009 -0.6556
70947SOL     OW22770   8.511   7.381   3.155 -0.4683 -0.2776 -0.6392
70947SOL    HW122771   8.430   7.421   3.188  0.8830  0.8200  1.5408
70947SOL    HW222772   8.568   7.456   3.136  0.8201 -1.0769 -0.0111
70948SOL     OW22773   4.502   2.627   8.315 -0.6737  0.1751  0.0906
70948SOL    HW122774   4.524   2.646   8.224  0.3063 -2.8324 -0.3899
70948SOL    HW222775   4.564   2.678   8.367 -1.0130  1.6365 -0.8886
70949SOL     OW22776  10.113   2.625   8.897 -0.7400  0.0735  0.5142
70949SOL    HW122777  10.196   2.622   8.944 -0.1294 -0.1530 -0.5277
70949SOL    HW222778  10.133   2.583   8.812 -2.4259 -1.8817  1.0085
70950SOL     OW22779   6.503   1.471   1.567  0.2881 -0.4179 -0.0285
70950SOL    HW122780   6.558   1.524   1.508  0.8378  0.3369  1.1190
70950SOL    HW222781   6.429   1.528   1.589  0.9056 -0.0663  1.2525
70951SOL     OW22782  12.840   3.694   4.265  1.2256  0.1529  0.2162
70951SOL    HW122783  12.823   3.784   4.239  0.1688 -0.1257 -0.1210
70951SOL    HW222784  12.825   3.692   4.359 -0.2565  0.0303  0.0078
70952SOL     OW22785   0.466  11.731   2.556 -0.1581  0.0462  0.1359
70952SOL    HW122786   0.402  11.684   2.502 -0.6521  0.6830  0.1583
70952SOL    HW222787   0.424  11.814   2.576 -0.0071 -0.2015  1.5690
70953SOL     OW22788   1.030   8.891   6.665 -0.2403  0.0065  0.1012
70953SOL    HW122789   1.062   8.925   6.748 -0.3440  1.5520 -0.4664
70953SOL    HW222790   1.075   8.942   6.598 -1.0976 -0.3393 -0.7787
70954SOL     OW22791   5.606   1.030   7.095 -0.0471 -0.4178  0.2792
70954SOL    HW122792   5.577   0.951   7.141 -0.8445  0.3766  1.1848
70954SOL    HW222793   5.549   1.099   7.128  0.1342  0.4121 -1.0599
70955SOL     OW22794   9.824   7.857   3.171 -0.1735  0.2288  0.2061
70955SOL    HW122795   9.748   7.879   3.118 -0.9346 -0.6684  0.8678
70955SOL    HW222796   9.802   7.771   3.208  0.6992  0.4395  1.2571
70956SOL     OW22797   2.047  13.130   3.988  0.0630  0.2236  0.1096
70956SOL    HW122798   1.977  13.084   3.940  0.7590 -0.6382 -0.1047
70956SOL    HW222799   2.096  13.177   3.920  0.8564 -0.7398  0.0002
70957SOL     OW22800   4.153   9.244   7.444  0.0628 -0.0918 -0.1553
70957SOL    HW122801   4.112   9.226   7.359 -1.5642 -2.0149  0.9303
70957SOL    HW222802   4.079   9.257   7.503  1.1245 -0.1309  1.2147
70958SOL     OW22803   0.865   7.094   4.034 -0.1889  0.1334 -0.0445
70958SOL    HW122804   0.809   7.108   3.957 -0.0401 -1.0816 -0.3966
70958SOL    HW222805   0.845   7.004   4.061  2.8090 -0.9961 -1.2054
70959SOL     OW22806   8.232   0.652   8.201 -0.3171  0.0173  1.4085
70959SOL    HW122807   8.214   0.731   8.150  1.3766 -1.0421 -0.9760
70959SOL    HW222808   8.145   0.614   8.218 -0.9507  0.0549 -1.3425
70960SOL     OW22809   4.244   5.744   9.120  0.2534 -0.1241 -0.1135
70960SOL    HW122810   4.253   5.806   9.193  1.3771 -0.3381 -0.0498
70960SOL    HW222811   4.281   5.662   9.152  2.7689  0.3192 -1.5424
70961SOL     OW22812   2.273   3.027   6.946  0.1972  0.7690  0.7711
70961SOL    HW122813   2.354   3.033   6.895 -0.0805 -0.1573  0.2108
70961SOL    HW222814   2.216   3.094   6.910 -0.1743 -0.1933 -0.4845
70962SOL     OW22815   6.005   2.641  11.594  0.7806 -0.0166  0.1090
70962SOL    HW122816   5.971   2.586  11.664  0.0525  0.4801  0.1594
70962SOL    HW222817   5.945   2.716  11.591  0.7311 -0.0925 -1.1297
70963SOL     OW22818   0.390  10.478   3.944  0.2320 -0.0220  0.4453
70963SOL    HW122819   0.469  10.507   3.989  0.3703  0.3198 -0.0141
70963SOL    HW222820   0.413  10.394   3.905  0.5107  0.2749 -0.0482
70964SOL     OW22821   8.641  11.368   1.788 -0.0505 -0.2065  0.1972
70964SOL    HW122822   8.568  11.424   1.816  0.6822  1.6698 -1.3714
70964SOL    HW222823   8.701  11.367   1.862  0.2107  1.6588  0.0486
70965SOL     OW22824   4.292   9.677   7.428  0.6527  0.2157  0.1033
70965SOL    HW122825   4.342   9.630   7.361  3.3379  0.4936  1.7757
70965SOL    HW222826   4.300   9.770   7.404 -0.1444  0.1907 -0.2905
70966SOL     OW22827  10.373   0.044   2.495 -0.7000 -0.1419 -0.7112
70966SOL    HW122828  10.332  -0.042   2.506 -2.4344  0.5648 -1.2677
70966SOL    HW222829  10.335   0.079   2.414 -0.9747  1.6395  0.1277
70967SOL     OW22830  10.541   8.351   0.301  1.0686 -0.0898 -0.6695
70967SOL    HW122831  10.464   8.338   0.246  0.2076  1.8185  0.0153
70967SOL    HW222832  10.576   8.262   0.313 -2.4473 -1.4325  1.0517
70968SOL     OW22833   4.058   1.915   4.077 -0.2508 -0.2605  0.6233
70968SOL    HW122834   4.056   1.860   4.156  1.7533 -0.4568  0.5874
70968SOL    HW222835   3.985   1.976   4.088 -1.0779 -1.4001  1.7853
70969SOL     OW22836   8.098   8.794  12.971 -0.2737  0.0889 -0.3696
70969SOL    HW122837   8.028   8.772  12.910  1.9815 -1.1268 -2.7448
70969SOL    HW222838   8.069   8.874  13.014 -3.1306 -0.4501 -1.0852
70970SOL     OW22839  12.161  11.483  10.367  0.2276  0.1107 -0.3251
70970SOL    HW122840  12.123  11.570  10.374 -0.4924 -0.1109 -1.3540
70970SOL    HW222841  12.152  11.459  10.275  0.5310 -1.0018 -0.0865
70971SOL     OW22842  10.612   0.922   2.000 -0.0515  0.4105 -0.0340
70971SOL    HW122843  10.551   0.946   1.931 -0.2492  0.1811  0.0608
70971SOL    HW222844  10.615   0.998   2.057 -1.6988 -0.2529  0.9976
70972SOL     OW22845   6.460  12.281   8.077  0.1217 -0.2598 -0.6842
70972SOL    HW122846   6.511  12.226   8.017  1.7762 -0.0045  0.4184
70972SOL    HW222847   6.474  12.370   8.045 -0.6992 -0.2846 -1.1296
70973SOL     OW22848   4.771   8.857   1.757  0.1993 -0.0475 -0.2300
70973SOL    HW122849   4.834   8.922   1.727  0.7578  1.0739  2.9713
70973SOL    HW222850   4.781   8.857   1.852 -0.6578 -3.9772  0.0165
70974SOL     OW22851  13.245  12.577   4.312 -0.5321 -0.4284 -0.0054
70974SOL    HW122852  13.181  12.648   4.321 -2.3924 -2.1765  1.4751
70974SOL    HW222853  13.275  12.583   4.221 -3.6944 -0.1786 -1.1544
70975SOL     OW22854   7.363   4.259   2.260  0.2608  0.1416  0.6455
70975SOL    HW122855   7.440   4.312   2.279 -0.7011  1.1991  1.7438
70975SOL    HW222856   7.348   4.271   2.166  0.7545  0.8513  0.6483
70976SOL     OW22857   2.857   4.299   2.431  0.4903  1.1883  0.2083
70976SOL    HW122858   2.884   4.304   2.339  1.0518 -3.3855 -0.1237
70976SOL    HW222859   2.764   4.321   2.430  0.1556 -0.0651 -1.7705
70977SOL     OW22860   7.235   1.285   1.354  0.5140  0.3088  0.5481
70977SOL    HW122861   7.204   1.195   1.344  0.5073  0.3584  0.0875
70977SOL    HW222862   7.242   1.298   1.449 -0.7551  0.2528  0.6681
70978SOL     OW22863   0.445   4.466  12.023 -0.0887 -0.5445  0.2470
70978SOL    HW122864   0.367   4.413  12.012  0.3878 -1.2847  0.4079
70978SOL    HW222865   0.474   4.448  12.112 -0.2331  0.4147  0.5021
70979SOL     OW22866   7.618   0.878   0.270 -0.2575 -0.1880 -0.4979
70979SOL    HW122867   7.661   0.892   0.355  0.2158  1.8229 -1.0120
70979SOL    HW222868   7.621   0.783   0.257 -0.4575 -0.5571  1.7770
70980SOL     OW22869   0.778   1.394   1.640 -0.6650  0.0993 -0.0720
70980SOL    HW122870   0.706   1.333   1.657 -2.0220  0.9312 -2.3467
70980SOL    HW222871   0.735   1.472   1.605  1.2007  1.5323  0.6801
70981SOL     OW22872   3.916  10.318  10.058  0.2070  0.4282 -0.7278
70981SOL    HW122873   3.929  10.408  10.027 -2.0202  0.3780 -2.0491
70981SOL    HW222874   3.927  10.323  10.153 -0.1683  2.1515 -0.7408
70982SOL     OW22875   1.701   3.445   3.098 -0.5835  0.1642  0.6143
70982SOL    HW122876   1.632   3.494   3.053 -0.2208  0.1019 -0.0354
70982SOL    HW222877   1.775   3.450   3.038 -0.1098  0.0038  1.1858
70983SOL     OW22878  11.994   0.439   8.721  1.0109  0.5220 -0.7730
70983SOL    HW122879  11.932   0.503   8.757 -1.8633 -1.1173 -2.3744
70983SOL    HW222880  12.075   0.488   8.709 -0.2644  3.1519  0.4370
70984SOL     OW22881  10.413  12.602   5.806 -0.3686  0.6425 -0.1902
70984SOL    HW122882  10.466  12.598   5.886 -0.7838  0.0839  0.0659
70984SOL    HW222883  10.420  12.513   5.769 -0.9832  0.6151 -0.2472
70985SOL     OW22884   2.993  10.670  13.167  0.2844  0.0335 -0.3685
70985SOL    HW122885   3.041  10.727  13.227  0.8834 -0.6439 -0.1884
70985SOL    HW222886   3.025  10.582  13.187 -0.8154 -0.4023 -0.4645
70986SOL     OW22887   8.183   4.607  12.359  0.4233 -0.4148  0.2599
70986SOL    HW122888   8.113   4.542  12.351 -0.2858  0.3791 -0.1877
70986SOL    HW222889   8.245   4.569  12.421  0.2896 -1.7487 -0.3921
70987SOL     OW22890   9.532  10.991   9.189 -0.1371  0.2595  0.5134
70987SOL    HW122891   9.537  10.929   9.262  0.5000  0.6133  0.7765
70987SOL    HW222892   9.441  11.019   9.187 -0.2153  0.0501  1.0025
70988SOL     OW22893   4.394   0.712   9.324  0.4570 -0.4365  0.1431
70988SOL    HW122894   4.369   0.790   9.275  1.1634 -0.2259  0.0965
70988SOL    HW222895   4.324   0.649   9.308 -0.8918  0.6718  1.3607
70989SOL     OW22896   2.273   7.834  10.731 -0.3293  0.3361  0.6093
70989SOL    HW122897   2.304   7.917  10.767 -1.4541  1.4401 -0.8221
70989SOL    HW222898   2.320   7.825  10.649 -1.1247  0.2000  0.1620
70990SOL     OW22899   7.802   1.681  12.747  0.0481  0.0877 -0.0822
70990SOL    HW122900   7.768   1.765  12.716  0.4253  0.1362 -0.3741
70990SOL    HW222901   7.734   1.617  12.726 -0.2850  0.3352  0.2357
70991SOL     OW22902   0.533   1.400   5.084  0.0423  0.7815 -0.1591
70991SOL    HW122903   0.438   1.392   5.075 -0.3441  0.8726  2.9385
70991SOL    HW222904   0.561   1.319   5.127  1.2502  1.1265 -0.2393
70992SOL     OW22905   1.962  10.727   7.067 -0.2074 -0.3652  0.5106
70992SOL    HW122906   1.909  10.648   7.057 -1.1807  0.2370  0.6688
70992SOL    HW222907   1.925  10.771   7.143 -2.0569  1.9362 -1.5166
70993SOL     OW22908   4.514   5.681   3.474 -0.1230 -0.0169 -0.2781
70993SOL    HW122909   4.543   5.617   3.540  0.9309  0.4727 -0.2468
70993SOL    HW222910   4.449   5.735   3.520 -0.5698 -0.6736 -0.1243
70994SOL     OW22911   5.792   0.102   3.825 -0.0053 -0.0897  0.1547
70994SOL    HW122912   5.705   0.066   3.808 -0.0729  0.2141 -0.1548
70994SOL    HW222913   5.806   0.088   3.919  0.0069 -0.9993  0.0303
70995SOL     OW22914   3.883  10.831   9.077 -0.0980 -0.6637  0.5866
70995SOL    HW122915   3.878  10.829   8.982  1.2733  1.6192  0.3938
70995SOL    HW222916   3.921  10.747   9.101 -1.7983 -1.8697 -0.7206
70996SOL     OW22917   6.626   4.862   9.804 -0.3256 -0.2313  0.4289
70996SOL    HW122918   6.693   4.809   9.846  0.0715 -0.4307 -0.4343
70996SOL    HW222919   6.675   4.929   9.757 -0.7891  0.3643  0.7810
70997SOL     OW22920   6.922   8.300   2.871  0.9897 -0.3171  0.4953
70997SOL    HW122921   6.905   8.278   2.963  0.1162 -0.7904  0.2305
70997SOL    HW222922   6.901   8.393   2.864 -2.5760 -1.0457 -0.0095
70998SOL     OW22923   6.495   3.143  11.978 -0.0508  0.3085  0.3905
70998SOL    HW122924   6.478   3.094  11.897 -1.2299  0.1349  0.7350
70998SOL    HW222925   6.468   3.232  11.959  0.6989  0.5165  0.2536
70999SOL     OW22926   0.804   7.667   5.583 -0.1725  0.2550 -1.0195
70999SOL    HW122927   0.875   7.721   5.616  0.1970  0.0848 -1.5113
70999SOL    HW222928   0.767   7.625   5.660 -0.6458  1.4218 -0.6058
71000SOL     OW22929  10.914   6.453   3.299 -0.1410  0.1773  0.3619
71000SOL    HW122930  10.969   6.530   3.288  0.1956 -0.1709 -0.4580
71000SOL    HW222931  10.968   6.391   3.347  0.5690 -0.5315 -1.2866
71001SOL     OW22932   9.830   6.431   4.067 -0.0623  0.7167  0.0097
71001SOL    HW122933   9.772   6.396   3.999  2.5866  1.0073 -2.5968
71001SOL    HW222934   9.864   6.353   4.112 -2.2922  0.5407  1.6097
71002SOL     OW22935  11.914   3.186  10.910 -0.0076 -0.4156  0.1061
71002SOL    HW122936  11.965   3.195  10.991 -0.1674 -0.3930  0.2033
71002SOL    HW222937  11.904   3.276  10.879 -1.5080 -0.2368  1.0187
71003SOL     OW22938   6.323   9.631   4.046  0.0129 -0.4437 -0.0279
71003SOL    HW122939   6.382   9.566   4.008  0.1184  0.0777 -0.7788
71003SOL    HW222940   6.257   9.580   4.093  1.0639 -1.0391  0.8545
71004SOL     OW22941  12.018  13.268   2.983  0.3591  0.0434 -0.1994
71004SOL    HW122942  12.027  13.189   3.035  0.1813  0.0599 -0.1447
71004SOL    HW222943  11.931  13.303   3.005 -0.0595 -0.3832 -1.1096
71005SOL     OW22944   8.098   4.166   5.734 -0.4780 -0.2491 -0.2033
71005SOL    HW122945   8.010   4.181   5.699  0.1586  2.5296 -0.8295
71005SOL    HW222946   8.147   4.129   5.661 -1.1989 -2.3632  0.3141
71006SOL     OW22947   8.976   1.166   9.406  0.4256  0.1464 -0.3128
71006SOL    HW122948   8.949   1.237   9.348  0.6423 -0.1558 -0.7918
71006SOL    HW222949   8.921   1.176   9.484 -1.4897 -0.7865 -1.4689
71007SOL     OW22950   9.479  12.257  10.933  0.4545  0.2419  0.3382
71007SOL    HW122951   9.491  12.318  10.860  0.4573 -1.9338 -1.6107
71007SOL    HW222952   9.389  12.226  10.923  0.3308  0.1870  1.5225
71008SOL     OW22953   1.721  10.859  10.106  0.2201  0.3374  0.6733
71008SOL    HW122954   1.775  10.793  10.063 -0.4848  0.0397  0.2241
71008SOL    HW222955   1.636  10.815  10.119  0.2418  0.6076  1.8520
71009SOL     OW22956   7.164   2.125  11.423  0.2221  0.0602  0.7810
71009SOL    HW122957   7.238   2.070  11.399 -0.6891 -0.5757 -0.7181
71009SOL    HW222958   7.195   2.214  11.411 -0.0484 -0.1666 -2.8352
71010SOL     OW22959   3.488   5.326   2.591 -0.5827 -0.2785  0.3813
71010SOL    HW122960   3.529   5.411   2.606  0.6322 -0.7731 -0.0733
71010SOL    HW222961   3.396   5.347   2.574 -0.7029  0.7983  2.0373
71011SOL     OW22962  11.442  10.078  10.762  0.3888 -0.3908 -0.4654
71011SOL    HW122963  11.454  10.039  10.848  0.2774  0.3994 -0.0857
71011SOL    HW222964  11.483  10.165  10.769 -1.8737  0.7267 -0.4100
71012SOL     OW22965   7.155   3.862  10.417 -0.3266  0.8292 -0.1025
71012SOL    HW122966   7.178   3.947  10.455  1.4996  0.0265  0.6869
71012SOL    HW222967   7.182   3.869  10.325  0.0579  1.0111  0.0208
71013SOL     OW22968   3.937   6.475   8.551 -0.0013 -0.0709  0.6299
71013SOL    HW122969   4.013   6.524   8.520 -1.8968  0.8740 -3.0589
71013SOL    HW222970   3.951   6.386   8.519 -0.1079 -0.0685  0.5760
71014SOL     OW22971   5.792   6.451   6.216  0.0433 -0.7532 -0.5120
71014SOL    HW122972   5.836   6.387   6.272 -0.1362 -0.4076  0.0256
71014SOL    HW222973   5.699   6.429   6.222 -0.1023  0.0449  0.3054
71015SOL     OW22974   5.335   5.255  10.812  0.2734  0.6048  0.5637
71015SOL    HW122975   5.276   5.284  10.883 -0.6481  0.1140  0.0244
71015SOL    HW222976   5.307   5.305  10.736  0.0394 -0.1813  0.1223
71016SOL     OW22977   2.072   4.913   2.385  0.6057 -0.1997 -0.1594
71016SOL    HW122978   2.024   4.982   2.429 -1.3029 -2.3562  1.4054
71016SOL    HW222979   2.142   4.888   2.447 -0.6664 -1.6942  0.7570
71017SOL     OW22980  12.978  10.467   8.968 -0.4135 -0.0912 -0.4971
71017SOL    HW122981  13.058  10.426   8.935  0.4717  0.9791  0.2345
71017SOL    HW222982  12.988  10.559   8.946 -2.1638 -0.1579 -1.7259
71018SOL     OW22983   7.155   6.299   5.739 -0.3470  0.1758 -0.8451
71018SOL    HW122984   7.080   6.244   5.763  1.1139 -1.0805  1.0980
71018SOL    HW222985   7.152   6.302   5.643 -2.0313 -1.0445 -0.8891
71019SOL     OW22986   9.998   4.858  13.290 -0.3624 -0.7131  0.3160
71019SOL    HW122987  10.085   4.861  13.328 -0.5307 -2.1961  0.8891
71019SOL    HW222988  10.009   4.815  13.206 -0.0939  1.9812 -1.1625
71020SOL     OW22989   8.914   9.310  13.084  0.3865  0.5297  0.4303
71020SOL    HW122990   8.942   9.265  13.163 -0.8851  1.8515  1.7185
71020SOL    HW222991   8.819   9.294  13.080  0.4267  0.5195 -0.8056
71021SOL     OW22992  11.602   9.426  10.202 -0.0438 -0.9724  0.4991
71021SOL    HW122993  11.537   9.466  10.145 -0.7224 -2.4509  0.1835
71021SOL    HW222994  11.653   9.369  10.143 -0.7911 -2.5694  1.3398
71022SOL     OW22995   3.023  13.154   1.865  0.6331  0.5691  0.1761
71022SOL    HW122996   2.994  13.101   1.790 -1.8646 -1.2659  2.2565
71022SOL    HW222997   2.969  13.233   1.861  1.2407  0.9623 -0.4937
71023SOL     OW22998  10.593  11.537  11.520  0.5839  0.3185 -0.2006
71023SOL    HW122999  10.635  11.481  11.585 -1.1247 -0.1374  0.5683
71023SOL    HW223000  10.531  11.479  11.476  0.6860  0.9892 -1.2595
71024SOL     OW23001   9.978   9.686   1.502  0.2726 -0.2817 -0.1413
71024SOL    HW123002   9.953   9.771   1.465 -1.3984 -0.3674  0.6620
71024SOL    HW223003  10.069   9.696   1.527  0.8162  0.4926 -2.2083
71025SOL     OW23004  11.235   6.581   0.950  0.2126 -0.2106 -0.4259
71025SOL    HW123005  11.260   6.625   0.869 -1.4058  0.4617 -0.6103
71025SOL    HW223006  11.196   6.498   0.922 -0.8871  0.2813 -0.4013
71026SOL     OW23007  12.878   4.337  11.594 -0.0261 -0.7683 -0.2213
71026SOL    HW123008  12.814   4.393  11.550  1.6086  0.5851 -1.0284
71026SOL    HW223009  12.909   4.390  11.667 -0.0901 -1.5554  0.3803
71027SOL     OW23010   1.255   2.768   1.006  0.7513 -0.0829 -0.0373
71027SOL    HW123011   1.282   2.784   1.096  0.6659 -1.4844  0.2541
71027SOL    HW223012   1.326   2.717   0.967  0.8997  0.7126 -0.8534
71028SOL     OW23013   2.945   4.880   1.407  0.3188 -0.4688  0.0273
71028SOL    HW123014   2.970   4.952   1.349  0.0347 -0.3538  0.0493
71028SOL    HW223015   2.859   4.904   1.442  0.4292 -0.5951  0.4011
71029SOL     OW23016   7.136   8.465   9.027  0.6278 -0.1556  0.0001
71029SOL    HW123017   7.060   8.418   9.059  1.8975 -1.9422  0.5662
71029SOL    HW223018   7.164   8.520   9.100  1.1438 -1.1539  0.5658
71030SOL     OW23019   1.321  12.645   0.869 -0.5594 -0.1354 -0.5304
71030SOL    HW123020   1.339  12.713   0.934  0.7848 -0.3352 -0.6636
71030SOL    HW223021   1.385  12.660   0.800  0.0223 -1.7423 -0.3909
71031SOL     OW23022   9.959   5.258   0.646  0.3092  0.1272 -0.5483
71031SOL    HW123023   9.988   5.349   0.650 -0.1746  0.2489  0.6161
71031SOL    HW223024   9.991   5.218   0.727  0.6923 -0.7996 -1.1368
71032SOL     OW23025   2.829   2.774  10.107  0.4018 -0.2521  0.3028
71032SOL    HW123026   2.866   2.740  10.189  0.4329 -1.0290 -0.0216
71032SOL    HW223027   2.737   2.750  10.110  0.3384 -0.0195  0.2412
71033SOL     OW23028   2.380   1.941   2.441 -0.0013 -0.5982 -0.3214
71033SOL    HW123029   2.384   1.852   2.477  0.0163  0.0721  1.4023
71033SOL    HW223030   2.402   1.930   2.348  0.4002 -2.3367 -0.0538
71034SOL     OW23031   5.215   4.245   8.037 -0.5191 -0.3593  0.5825
71034SOL    HW123032   5.169   4.186   8.096  0.8931  0.0500  2.1674
71034SOL    HW223033   5.299   4.261   8.080 -0.1938  1.4604 -0.6286
71035SOL     OW23034   4.815  10.708   8.916 -0.1170 -0.4699  0.2941
71035SOL    HW123035   4.732  10.683   8.958 -1.1878  1.0188 -0.8318
71035SOL    HW223036   4.813  10.663   8.832  0.0622 -0.1371  0.1129
71036SOL     OW23037   5.431   6.343   3.962  0.2342  0.4030 -0.0500
71036SOL    HW123038   5.352   6.390   3.985  0.1931  1.0779 -1.4317
71036SOL    HW223039   5.400   6.262   3.921  0.2646  0.2819  0.1689
71037SOL     OW23040  12.917  10.962   2.301  0.6697  0.0044  0.1961
71037SOL    HW123041  12.834  10.971   2.254  0.4766  0.2350  0.5741
71037SOL    HW223042  12.978  11.020   2.255  0.6801 -0.3235 -0.2089
71038SOL     OW23043   7.031   9.978   0.647 -0.2822  0.2071 -0.0833
71038SOL    HW123044   7.051   9.906   0.587  0.9410  1.3906 -1.1915
71038SOL    HW223045   6.993  10.046   0.591 -0.4342  0.8159  0.7361
71039SOL     OW23046  13.038  11.897   6.417 -0.1140  0.2006 -0.0445
71039SOL    HW123047  13.047  11.882   6.323  0.1724  1.4815 -0.2331
71039SOL    HW223048  12.987  11.822   6.448  0.2924 -0.5452 -1.1086
71040SOL     OW23049   4.169   6.180   6.582 -0.0259  0.3013 -0.4282
71040SOL    HW123050   4.154   6.102   6.635 -1.1521 -0.3421 -1.6310
71040SOL    HW223051   4.214   6.148   6.504  2.0700  1.3109  0.2877
71041SOL     OW23052   1.543  10.690   7.596  0.2454 -0.1848 -0.1860
71041SOL    HW123053   1.544  10.785   7.590  2.0795 -0.1099  0.7210
71041SOL    HW223054   1.470  10.671   7.655  0.2107  0.6888  0.0678
71042SOL     OW23055   3.071   9.443   6.535  0.0630 -0.1641 -0.6880
71042SOL    HW123056   3.029   9.516   6.580  0.5644  0.2861 -0.9269
71042SOL    HW223057   3.139   9.414   6.595  0.2662 -0.0246 -0.8444
71043SOL     OW23058  11.100  10.980   9.112 -0.1907  0.2754 -0.0571
71043SOL    HW123059  11.151  10.974   9.032 -2.2839  1.2666 -1.5710
71043SOL    HW223060  11.104  11.073   9.136 -0.1900  0.1227  0.5487
71044SOL     OW23061   5.620  11.281   8.652 -0.4138  0.0897  0.1841
71044SOL    HW123062   5.584  11.243   8.572 -0.1049 -1.1466  0.6164
71044SOL    HW223063   5.669  11.210   8.693  0.1511  0.9464  1.0467
71045SOL     OW23064   1.876   0.688  11.261 -0.1896  0.0983  0.2788
71045SOL    HW123065   1.944   0.750  11.232  0.2274 -0.4414  0.0887
71045SOL    HW223066   1.902   0.605  11.221 -1.7262  0.1700 -0.9598
71046SOL     OW23067   3.722  11.820   5.021 -0.0787  0.5267  0.0016
71046SOL    HW123068   3.659  11.884   5.054  0.2846  0.6580  0.4459
71046SOL    HW223069   3.690  11.798   4.934 -3.0126 -2.2979  1.5174
71047SOL     OW23070   3.056   7.443   5.207  0.2420  0.3718 -0.8893
71047SOL    HW123071   3.013   7.369   5.165  1.8328  0.0644 -2.0895
71047SOL    HW223072   3.021   7.520   5.163 -0.8390  0.3015 -0.1775
71048SOL     OW23073   9.841   5.772   5.546  0.1127 -0.0272 -0.4592
71048SOL    HW123074   9.931   5.797   5.568  0.1806 -1.6095  1.2950
71048SOL    HW223075   9.794   5.856   5.537  1.8611  0.8546 -2.1345
71049SOL     OW23076   4.883   8.603  11.925 -0.1128 -0.1749 -0.3948
71049SOL    HW123077   4.798   8.580  11.888 -1.3219 -0.3150  2.2867
71049SOL    HW223078   4.873   8.694  11.954  1.1138  0.2457 -1.1754
71050SOL     OW23079   8.248   1.873   3.366 -0.0314  0.2522 -0.3969
71050SOL    HW123080   8.180   1.929   3.403  1.2987  1.0794  0.9069
71050SOL    HW223081   8.212   1.784   3.373 -0.1363  0.4365  2.3315
71051SOL     OW23082  12.085   8.851  11.063  0.0640 -0.0449  0.2741
71051SOL    HW123083  12.166   8.801  11.051  0.6494  1.1935 -1.3897
71051SOL    HW223084  12.111   8.929  11.112 -0.5969 -0.6813  1.7125
71052SOL     OW23085  10.231  10.088   9.299  0.1806 -0.2317 -0.3868
71052SOL    HW123086  10.270  10.118   9.217 -0.1174 -1.5250 -1.0201
71052SOL    HW223087  10.304  10.048   9.347  0.1310 -0.4803 -0.5161
71053SOL     OW23088  12.246   4.146  11.085 -0.4022 -0.1707 -0.5370
71053SOL    HW123089  12.316   4.084  11.105  0.4781  0.2538 -2.1593
71053SOL    HW223090  12.263   4.221  11.142  0.4441 -0.0896 -0.8883
71054SOL     OW23091   0.277  12.578  12.494 -0.1344 -0.9470  0.0894
71054SOL    HW123092   0.277  12.498  12.546 -0.7930  0.8221  3.0612
71054SOL    HW223093   0.361  12.620  12.514 -0.8129  0.2403  0.5961
71055SOL     OW23094   4.033   9.313  11.231  0.5759 -0.1571 -0.8009
71055SOL    HW123095   3.948   9.343  11.200  0.3300  0.1958  0.1676
71055SOL    HW223096   4.027   9.217  11.229  0.3258 -0.1356 -1.1724
71056SOL     OW23097   6.663   3.912   3.283  1.0778  0.1332  0.1284
71056SOL    HW123098   6.589   3.973   3.291  1.6196  0.7602  0.5429
71056SOL    HW223099   6.694   3.901   3.372  1.0292 -0.7133  0.0434
71057SOL     OW23100   5.960   2.682   1.456  0.1896 -0.3597 -0.5786
71057SOL    HW123101   6.007   2.623   1.398  0.0846 -0.0477 -0.9853
71057SOL    HW223102   5.931   2.753   1.399  0.2657  0.0531 -0.1058
71058SOL     OW23103  11.450   2.607  12.424  0.8630  0.5789  0.4667
71058SOL    HW123104  11.545   2.612  12.437  0.5203  2.5970  3.2419
71058SOL    HW223105  11.429   2.685  12.373  0.6465  0.4921  0.4234
71059SOL     OW23106   7.601   7.217  12.548  0.4810 -0.1972 -0.1509
71059SOL    HW123107   7.575   7.277  12.478  0.1399  0.1697  0.2900
71059SOL    HW223108   7.551   7.245  12.624  2.4280  0.7456  0.8339
71060SOL     OW23109   8.235   8.336   5.398 -0.2039 -0.1838 -0.2313
71060SOL    HW123110   8.160   8.318   5.455  0.2260 -1.0113  0.0803
71060SOL    HW223111   8.196   8.351   5.312 -0.9164  1.6790  0.3584
71061SOL     OW23112   8.655  10.193   4.172 -0.7715  0.1575  0.4579
71061SOL    HW123113   8.675  10.276   4.215  0.4748 -0.4875  1.1685
71061SOL    HW223114   8.594  10.150   4.230 -0.5356  0.0924  0.6594
71062SOL     OW23115   5.167  10.766   8.429 -0.1503 -0.2850  0.4451
71062SOL    HW123116   5.166  10.676   8.396  1.0508 -0.8238  1.7756
71062SOL    HW223117   5.183  10.819   8.352  0.9604 -1.3729 -0.1126
71063SOL     OW23118   5.949   2.760  10.222  0.5525 -0.4439 -0.1439
71063SOL    HW123119   6.012   2.736  10.289  0.5711  1.5029  0.6113
71063SOL    HW223120   5.891   2.823  10.265 -0.1874 -0.0835 -1.6039
71064SOL     OW23121   7.799  10.913   8.164 -0.0698 -0.5694 -0.0957
71064SOL    HW123122   7.788  10.911   8.069  1.2807 -0.4126 -0.2834
71064SOL    HW223123   7.852  10.991   8.181  1.9527 -1.9593  0.4686
71065SOL     OW23124  12.608   5.939   4.642  0.0875 -0.3132 -0.2937
71065SOL    HW123125  12.580   5.903   4.726 -2.0901 -0.7783 -1.1580
71065SOL    HW223126  12.680   5.998   4.664  1.5572 -2.5785  1.5539
71066SOL     OW23127   1.455   8.862   2.881 -0.0338  0.0093  0.1521
71066SOL    HW123128   1.487   8.781   2.921 -2.1499 -1.1043 -0.2300
71066SOL    HW223129   1.465   8.928   2.950 -0.1431 -1.0382  1.2104
71067SOL     OW23130   6.968   8.560   6.029  0.2955 -0.0390 -0.4565
71067SOL    HW123131   7.003   8.645   6.005 -0.3794  0.6831  0.9663
71067SOL    HW223132   6.892   8.580   6.084 -0.2913 -1.5596 -0.6543
71068SOL     OW23133   7.158   6.781   3.040  0.0329 -0.0221 -0.8402
71068SOL    HW123134   7.213   6.705   3.018  0.6530  0.2976 -0.4061
71068SOL    HW223135   7.153   6.831   2.959  1.3663  0.5566 -0.5862
71069SOL     OW23136  12.904   3.649   6.420 -0.0094 -0.3041  0.5835
71069SOL    HW123137  12.911   3.675   6.512  1.5593  0.7795  0.2030
71069SOL    HW223138  12.993   3.628   6.394 -0.3136  0.0762 -0.8745
71070SOL     OW23139   1.463   5.574   2.850  0.9819  0.4604  0.2822
71070SOL    HW123140   1.466   5.479   2.865 -0.4835 -0.1497 -2.4922
71070SOL    HW223141   1.555   5.599   2.840  1.3506 -1.3810 -2.1410
71071SOL     OW23142   4.497   8.254  11.351 -0.4740 -0.7999 -0.1313
71071SOL    HW123143   4.580   8.235  11.396 -0.1492  2.1471  0.7305
71071SOL    HW223144   4.512   8.229  11.260  1.1680 -0.8159  0.1187
71072SOL     OW23145   1.203   3.655   7.827  0.2923 -0.4219  0.1619
71072SOL    HW123146   1.281   3.625   7.780 -0.2811 -0.5286 -0.7498
71072SOL    HW223147   1.237   3.709   7.898  1.2568 -1.4864  0.5398
71073SOL     OW23148   8.946   4.748   0.803 -1.1276 -0.0828 -0.1744
71073SOL    HW123149   8.939   4.653   0.792 -0.5783  0.0907 -2.8541
71073SOL    HW223150   9.040   4.766   0.797 -1.3498  0.7634 -1.7199
71074SOL     OW23151  10.936   9.358   0.665 -0.0941  0.4311  0.6291
71074SOL    HW123152  10.994   9.433   0.678 -0.2347  0.2519  2.6135
71074SOL    HW223153  10.980   9.285   0.708 -0.8995 -0.1473  0.5040
71075SOL     OW23154   8.862   0.954   3.858 -0.1428  0.7476 -0.1563
71075SOL    HW123155   8.915   0.875   3.871 -0.7695  0.3693  0.1680
71075SOL    HW223156   8.809   0.960   3.938 -0.5006  1.1881 -0.4237
71076SOL     OW23157   9.146   5.845   9.253 -0.1499 -0.2449 -0.1562
71076SOL    HW123158   9.087   5.794   9.308  0.8092 -1.5703 -0.3050
71076SOL    HW223159   9.184   5.782   9.193  1.4096  0.5509 -0.0701
71077SOL     OW23160  12.353  12.206   3.426  0.2574 -0.8341  0.0048
71077SOL    HW123161  12.301  12.178   3.350  3.5009 -2.5866 -1.7786
71077SOL    HW223162  12.319  12.293   3.447 -2.7785 -1.5229 -1.4883
71078SOL     OW23163   7.226  12.056  11.345 -0.3692 -0.2418  0.6086
71078SOL    HW123164   7.280  12.035  11.421 -0.5661  0.7333  1.0241
71078SOL    HW223165   7.205  11.970  11.307  2.9169 -0.6443 -0.6381
71079SOL     OW23166   5.592  12.896   8.978 -0.8260  0.5162 -0.2041
71079SOL    HW123167   5.649  12.970   8.998  3.4127 -2.3775 -0.2973
71079SOL    HW223168   5.554  12.872   9.062 -0.1652  1.2443  0.3164
71080SOL     OW23169  12.039   5.235   5.204  0.0851 -0.3323 -0.0088
71080SOL    HW123170  12.073   5.245   5.115 -2.8930  0.9381 -1.1064
71080SOL    HW223171  12.013   5.323   5.230 -3.6687 -1.3000  0.0792
71081SOL     OW23172   6.355  11.715   4.944  0.1273 -0.2419  0.4733
71081SOL    HW123173   6.380  11.740   5.033  0.9248 -0.5302  0.3343
71081SOL    HW223174   6.366  11.795   4.892 -0.6480  0.0142  0.6807
71082SOL     OW23175  10.393   6.188   2.973  0.2508 -0.3563  0.1318
71082SOL    HW123176  10.483   6.220   2.983  1.0899 -2.8461  1.5904
71082SOL    HW223177  10.388   6.160   2.882  0.6096  0.6787 -0.2221
71083SOL     OW23178   5.476  12.292  10.950 -0.0305  0.1333 -0.0091
71083SOL    HW123179   5.541  12.251  11.007 -0.7473 -0.1977  0.5919
71083SOL    HW223180   5.474  12.237  10.872  0.1676 -0.0463  0.1118
71084SOL     OW23181   3.139  11.056   1.147  0.5440  0.0307  0.2657
71084SOL    HW123182   3.166  11.087   1.234 -2.6142  1.6315  0.7986
71084SOL    HW223183   3.064  11.000   1.164  0.0942  0.0845 -1.4228
71085SOL     OW23184  10.029   8.083  12.810 -0.2012  0.1068 -0.4930
71085SOL    HW123185  10.066   8.001  12.777  1.1012 -0.1156  1.3527
71085SOL    HW223186  10.105   8.136  12.831 -0.9656  0.5583  1.2636
71086SOL     OW23187   0.751   1.831   6.802  0.0914 -0.4277 -0.2947
71086SOL    HW123188   0.807   1.753   6.807  0.5638 -0.0462  0.4747
71086SOL    HW223189   0.728   1.850   6.893 -0.1485  0.2380 -0.4883
71087SOL     OW23190   8.409  12.167  11.854  0.6036 -0.0011 -0.0460
71087SOL    HW123191   8.316  12.164  11.834  0.1742 -0.0095  1.7406
71087SOL    HW223192   8.452  12.143  11.772 -0.8870  1.5123 -1.3364
71088SOL     OW23193   5.090   2.621  11.302 -0.1266 -0.6238  0.3345
71088SOL    HW123194   5.131   2.666  11.228 -1.6226  0.0909 -0.1096
71088SOL    HW223195   5.055   2.692  11.356 -0.1468 -1.1868  1.0701
71089SOL     OW23196  11.930   6.129   2.684 -0.2693  0.0718  0.7393
71089SOL    HW123197  11.871   6.174   2.624 -1.6173 -2.5073  0.0129
71089SOL    HW223198  12.012   6.177   2.677 -1.0578  1.2372 -1.4097
71090SOL     OW23199   7.319   3.897   0.428  0.2993 -0.0256  0.6121
71090SOL    HW123200   7.237   3.849   0.442 -0.3672  1.0353  0.4728
71090SOL    HW223201   7.311   3.931   0.339  0.5230  0.7844  0.8969
71091SOL     OW23202   5.765   9.186   4.881  0.6676 -0.9942  0.0286
71091SOL    HW123203   5.747   9.093   4.894 -0.3088 -0.7640  0.3821
71091SOL    HW223204   5.704   9.214   4.812  1.0951 -0.6609 -0.2224
71092SOL     OW23205   3.632   8.781   5.464 -0.2523 -0.1532 -0.1564
71092SOL    HW123206   3.693   8.843   5.424 -0.0003 -1.2906 -1.6409
71092SOL    HW223207   3.564   8.768   5.398  0.6352 -2.7576 -0.6969
71093SOL     OW23208   5.672   7.079   6.657 -0.2583  0.3867 -0.9919
71093SOL    HW123209   5.636   7.124   6.734  0.2743  0.1484 -0.5984
71093SOL    HW223210   5.602   7.019   6.631  0.7286 -2.0244  1.3877
71094SOL     OW23211   9.486  13.279   0.476 -0.2407 -0.1652  0.4510
71094SOL    HW123212   9.500  13.267   0.570 -2.4663 -1.2462  0.7267
71094SOL    HW223213   9.425  13.353   0.470  0.3520  0.2767 -0.1835
71095SOL     OW23214   3.272   8.208  11.416 -0.3049  0.1692 -0.1296
71095SOL    HW123215   3.183   8.179  11.436 -0.0865 -0.6113 -0.2563
71095SOL    HW223216   3.328   8.137  11.446  0.6157  2.1696  3.3687
71096SOL     OW23217   3.690   3.665  10.601  0.4282  0.0952  0.1899
71096SOL    HW123218   3.650   3.578  10.593 -0.1374  0.3263  0.4975
71096SOL    HW223219   3.766   3.661  10.543 -0.2789 -0.2071 -0.7439
71097SOL     OW23220   0.840  12.189   7.430  0.0778  0.4895 -0.7439
71097SOL    HW123221   0.770  12.162   7.369 -0.1079  2.2703 -1.3867
71097SOL    HW223222   0.795  12.240   7.497  0.7851  2.3521 -1.5984
71098SOL     OW23223   1.823   7.901   1.802 -0.2782 -0.2302 -0.6439
71098SOL    HW123224   1.735   7.869   1.820 -0.3109 -1.2994 -2.5144
71098SOL    HW223225   1.863   7.834   1.747  2.3769 -0.6418  1.5643
71099SOL     OW23226   4.977  11.883   4.645 -0.6804 -0.3248  0.0161
71099SOL    HW123227   4.984  11.976   4.624 -1.9282  0.4886  2.7721
71099SOL    HW223228   5.068  11.853   4.650 -0.2074  1.1151  0.4845
71100SOL     OW23229   2.056   3.539   4.768 -0.0079 -0.2022  0.0769
71100SOL    HW123230   1.987   3.505   4.825 -1.2964  0.3257 -1.1308
71100SOL    HW223231   2.137   3.505   4.807 -1.0396 -2.4477  0.4387
71101SOL     OW23232   5.339   1.915  11.339  0.4202  0.5191  0.4334
71101SOL    HW123233   5.400   1.983  11.369  0.5808 -0.4599  2.4804
71101SOL    HW223234   5.394   1.838  11.327  0.0556  0.4268 -0.7961
71102SOL     OW23235   2.799   7.236   5.585  0.7167  0.1363 -0.1618
71102SOL    HW123236   2.893   7.254   5.581  0.5674  1.2501  0.7826
71102SOL    HW223237   2.774   7.217   5.494  1.9492 -0.7621 -0.3257
71103SOL     OW23238  13.261  11.300  10.754  0.1977  0.3063 -0.1313
71103SOL    HW123239  13.197  11.264  10.814 -1.3699  1.1848 -1.1890
71103SOL    HW223240  13.244  11.256  10.671  1.7745 -0.2940 -0.1759
71104SOL     OW23241   2.332   0.829   5.671  0.3838  0.1983 -0.0805
71104SOL    HW123242   2.238   0.842   5.685  0.5898  0.1922  1.4606
71104SOL    HW223243   2.339   0.738   5.640 -0.0744  0.0309  0.2976
71105SOL     OW23244  12.635  10.496   2.117  0.0384  0.2463 -0.5169
71105SOL    HW123245  12.608  10.423   2.061  0.0864 -0.8299  0.8180
71105SOL    HW223246  12.553  10.526   2.158  0.0887  0.6395 -0.6956
71106SOL     OW23247  11.811   4.806   7.681 -0.3595 -0.6470  0.0218
71106SOL    HW123248  11.857   4.884   7.712  0.5500 -1.2937  0.3488
71106SOL    HW223249  11.803   4.819   7.587 -0.6133  0.0375  0.1316
71107SOL     OW23250   7.859   2.919   1.768  0.3992 -0.4429 -0.5808
71107SOL    HW123251   7.896   3.002   1.738 -0.5721  0.0080 -0.5573
71107SOL    HW223252   7.935   2.862   1.781  1.4665  1.4072  2.5493
71108SOL     OW23253  12.702  10.805   9.850 -0.4796 -0.5125 -0.1172
71108SOL    HW123254  12.621  10.788   9.899 -0.3043  0.9107  0.7383
71108SOL    HW223255  12.714  10.900   9.856  0.7834 -0.5908 -0.9959
71109SOL     OW23256   1.559   3.388   9.314  0.4760  0.4547  0.6891
71109SOL    HW123257   1.583   3.477   9.289  0.3344  0.6057  1.0787
71109SOL    HW223258   1.465   3.383   9.296  0.1334  0.9272  2.1923
71110SOL     OW23259   5.384   5.933   1.845 -0.5347 -0.0745 -0.3573
71110SOL    HW123260   5.341   5.994   1.785  0.9344  0.2769 -1.0976
71110SOL    HW223261   5.467   5.975   1.868 -0.5393 -0.7433  0.9975
71111SOL     OW23262   2.537   2.220   9.697  0.4222 -0.2506  0.5552
71111SOL    HW123263   2.564   2.304   9.733 -1.5975  1.7010 -2.0470
71111SOL    HW223264   2.581   2.215   9.612 -0.3340 -1.2924  0.2054
71112SOL     OW23265  12.242  13.250   5.275  0.4081 -1.0067 -0.0294
71112SOL    HW123266  12.305  13.222   5.208  0.5293 -0.3743 -0.1803
71112SOL    HW223267  12.159  13.258   5.228  0.5844 -0.1392 -0.1994
71113SOL     OW23268   1.972   4.111   9.198 -0.2601 -0.1436 -0.1584
71113SOL    HW123269   2.041   4.046   9.186 -1.1141 -0.8504 -1.5499
71113SOL    HW223270   1.909   4.068   9.256  0.3538  0.4393  0.9790
71114SOL     OW23271   2.314   6.442   2.326  0.4144 -0.2880  0.5197
71114SOL    HW123272   2.383   6.406   2.271 -0.7034 -0.5298 -0.7681
71114SOL    HW223273   2.255   6.369   2.343  0.3787 -0.0530  1.4838
71115SOL     OW23274   1.587  12.907   2.518 -0.1114  0.4374 -0.4964
71115SOL    HW123275   1.493  12.926   2.523  0.2243  2.2597 -0.2085
71115SOL    HW223276   1.594  12.813   2.536 -1.8427  0.3267 -0.2094
71116SOL     OW23277   9.098   6.049   5.073  0.1353  0.0948 -0.2123
71116SOL    HW123278   9.017   6.020   5.115  1.7380 -0.5330  2.7484
71116SOL    HW223279   9.128   6.122   5.127  2.3379 -0.7537 -0.1790
71117SOL     OW23280  10.154   1.506  10.302 -0.5033 -0.2600 -0.1404
71117SOL    HW123281  10.118   1.586  10.342 -1.8885 -0.5463 -0.7528
71117SOL    HW223282  10.088   1.439  10.320  0.1552 -1.0180 -0.5348
71118SOL     OW23283   7.128  13.218   2.839 -0.7124 -0.5454  0.0738
71118SOL    HW123284   7.155  13.283   2.774  0.0268  0.4946  1.3639
71118SOL    HW223285   7.202  13.212   2.899 -1.4440 -1.3443  0.9290
71119SOL     OW23286   4.679  11.958   6.427  0.2530 -0.4388 -0.0540
71119SOL    HW123287   4.767  11.924   6.410  0.4133  0.3361 -0.8407
71119SOL    HW223288   4.665  12.023   6.359 -1.0854 -0.8120 -0.1587
71120SOL     OW23289   3.043   5.076   4.023  0.4653 -0.3755  0.2422
71120SOL    HW123290   3.041   5.103   4.115  1.7202 -0.6119  0.3589
71120SOL    HW223291   3.066   4.984   4.026  2.1287 -0.0139 -0.3356
71121SOL     OW23292   9.572   5.595  10.674 -0.0210  0.1385  0.1662
71121SOL    HW123293   9.550   5.663  10.610  0.0720  0.1499  0.1458
71121SOL    HW223294   9.527   5.622  10.754  0.8115  0.7583  0.4439
71122SOL     OW23295   0.638   1.060   4.048 -0.9187 -0.4015  0.1623
71122SOL    HW123296   0.600   1.116   3.980  0.4514  0.1042 -0.2206
71122SOL    HW223297   0.729   1.047   4.020 -0.5413 -0.8121  1.5170
71123SOL     OW23298   5.381   0.564   0.811  0.3496  0.3298 -0.5807
71123SOL    HW123299   5.348   0.653   0.795 -1.4288  0.0734  1.2411
71123SOL    HW223300   5.306   0.508   0.794  0.3009 -0.4629  1.8586
71124SOL     OW23301   3.835   3.195   1.511 -0.4601 -0.3075  0.1831
71124SOL    HW123302   3.830   3.286   1.482  0.7604 -0.2511  0.0986
71124SOL    HW223303   3.928   3.174   1.506 -0.7663 -1.6649 -0.1029
71125SOL     OW23304   7.686   8.605   9.698 -0.4140  0.6989 -0.0020
71125SOL    HW123305   7.609   8.554   9.721 -0.6509  1.6131  1.3641
71125SOL    HW223306   7.718   8.566   9.617 -1.3062 -0.7891  0.3311
71126SOL     OW23307   3.740  11.443  11.639  0.2039 -0.0595 -0.0148
71126SOL    HW123308   3.709  11.529  11.670  0.4881  0.0746 -0.0996
71126SOL    HW223309   3.790  11.463  11.559 -0.9023 -0.4464 -0.8230
71127SOL     OW23310  13.260  12.180   2.987 -0.7013 -0.2680  0.2571
71127SOL    HW123311  13.272  12.167   2.892  0.9449  0.1480  0.3862
71127SOL    HW223312  13.194  12.249   2.993  0.6033  1.1113 -0.6365
71128SOL     OW23313   2.611  11.485   8.286 -0.5579 -0.0271  0.3595
71128SOL    HW123314   2.571  11.551   8.229 -0.8481 -0.8036 -0.3509
71128SOL    HW223315   2.656  11.426   8.225 -1.4806 -1.2829  0.8739
71129SOL     OW23316   5.595  10.963   3.679 -0.0246 -0.6406  0.1131
71129SOL    HW123317   5.516  10.952   3.626 -0.9932  1.1607  1.1022
71129SOL    HW223318   5.573  10.928   3.765 -0.8065  2.2705  1.2320
71130SOL     OW23319  12.784  11.745   0.000 -0.3010  0.7449  0.1350
71130SOL    HW123320  12.786  11.810  -0.070  0.2780  0.4937 -0.0868
71130SOL    HW223321  12.830  11.787   0.073  2.5819 -0.3783 -0.8853
71131SOL     OW23322   1.529   0.030   4.692 -0.1516  0.2272 -0.7410
71131SOL    HW123323   1.535   0.125   4.680  0.9670  0.2000 -0.4957
71131SOL    HW223324   1.581  -0.006   4.620  1.6670 -0.1061  0.6642
71132SOL     OW23325   4.873   0.814   1.538  0.5429  0.2692  0.2411
71132SOL    HW123326   4.927   0.889   1.512 -0.9690  0.9391 -1.1398
71132SOL    HW223327   4.919   0.738   1.500  1.2365  0.6628  0.2678
71133SOL     OW23328   9.733   0.183   3.327  0.4189  0.2039  0.3691
71133SOL    HW123329   9.730   0.088   3.325 -0.1050  0.2207 -1.6353
71133SOL    HW223330   9.798   0.204   3.394  0.6295 -1.5523  0.7545
71134SOL     OW23331   2.982   2.015   0.684 -0.0699 -0.1197 -0.0287
71134SOL    HW123332   3.052   1.957   0.654 -0.2106 -0.0925 -0.4106
71134SOL    HW223333   3.013   2.103   0.663  1.0593  0.1333  2.3645
71135SOL     OW23334   9.559   9.928  10.655 -0.0742  0.2830  0.2598
71135SOL    HW123335   9.511   9.854  10.692  2.1876 -1.1732  0.5170
71135SOL    HW223336   9.598   9.972  10.731 -1.6476  2.0055  0.1366
71136SOL     OW23337   4.032   0.856  13.157  0.3687  0.2471 -0.0487
71136SOL    HW123338   4.066   0.930  13.208  1.3454  0.3179 -0.7746
71136SOL    HW223339   4.091   0.850  13.082 -0.5792 -0.3522 -0.7624
71137SOL     OW23340   4.532   8.534  12.972  0.3428 -0.0364 -0.6684
71137SOL    HW123341   4.476   8.456  12.976  1.0542 -0.5131  0.5113
71137SOL    HW223342   4.609   8.505  12.922  0.4722  0.0025 -0.4914
71138SOL     OW23343   8.003   0.737   1.806 -0.3515 -0.3710 -0.1108
71138SOL    HW123344   8.005   0.668   1.873  2.1435  0.5948  0.9493
71138SOL    HW223345   8.043   0.697   1.729  3.9813  0.5216  1.3978
71139SOL     OW23346  13.286   8.477  10.025 -0.1596  0.2270  0.1523
71139SOL    HW123347  13.247   8.564  10.017  0.5282  0.4937 -0.5225
71139SOL    HW223348  13.214   8.421  10.054 -0.5381  1.0733  0.9051
71140SOL     OW23349  10.895  11.033   6.842 -0.0629  0.2799  0.0327
71140SOL    HW123350  10.961  11.059   6.906 -1.3144 -0.3237  1.6450
71140SOL    HW223351  10.907  11.092   6.768  2.0550  0.3755  0.4165
71141SOL     OW23352   7.909   8.912   6.283  0.0601 -0.1900  0.0614
71141SOL    HW123353   7.976   8.868   6.335 -1.6817 -0.8805  1.8799
71141SOL    HW223354   7.899   8.998   6.324 -0.1420 -0.0779 -0.2176
71142SOL     OW23355   1.804   7.710  13.032 -0.0691  0.1202 -0.0589
71142SOL    HW123356   1.715   7.674  13.031 -0.8727  2.0157 -0.5172
71142SOL    HW223357   1.792   7.804  13.037  1.9030  0.5086 -1.4012
71143SOL     OW23358   9.884   2.207   3.537  0.2970  0.3251  0.2938
71143SOL    HW123359   9.841   2.286   3.505 -1.2683 -0.6537 -0.0716
71143SOL    HW223360   9.934   2.175   3.462 -0.3604  0.0913 -0.0503
71144SOL     OW23361  12.941   0.819  13.140  0.2261  0.0293 -1.0218
71144SOL    HW123362  12.948   0.899  13.192 -1.3951  0.3761 -1.2752
71144SOL    HW223363  12.856   0.826  13.096  0.2659 -1.6023 -1.4428
71145SOL     OW23364  10.188  12.197  12.876  0.2536  0.1464 -0.4735
71145SOL    HW123365  10.221  12.282  12.904  0.5414  0.0691 -0.5772
71145SOL    HW223366  10.215  12.189  12.785 -0.9435  0.5283 -0.8794
71146SOL     OW23367  10.400   3.887   4.824  0.1836 -0.2851  0.0414
71146SOL    HW123368  10.419   3.834   4.902  0.3387 -1.0489 -0.5048
71146SOL    HW223369  10.305   3.883   4.814  0.2092 -0.5806 -0.0816
71147SOL     OW23370   9.103   7.480   5.468  0.1923  0.0225 -0.5644
71147SOL    HW123371   9.022   7.521   5.437 -0.3329 -1.8895 -1.8753
71147SOL    HW223372   9.168   7.551   5.463 -1.2105  1.3928 -0.1873
71148SOL     OW23373   5.909  10.984  11.771  0.5076 -0.1570 -0.0958
71148SOL    HW123374   5.950  11.070  11.775 -0.1773  0.2139 -0.8176
71148SOL    HW223375   5.838  10.989  11.835 -1.6279  0.9906 -2.3953
71149SOL     OW23376   5.107  13.082  12.096 -0.3299 -0.3703  0.3980
71149SOL    HW123377   5.133  13.147  12.161 -0.2352 -1.6856  1.7196
71149SOL    HW223378   5.042  13.028  12.140  0.9833 -2.3644  0.0440
71150SOL     OW23379  10.707   6.768  12.674  0.2747  0.0048  0.0876
71150SOL    HW123380  10.669   6.856  12.666 -1.2752 -0.6741 -0.2432
71150SOL    HW223381  10.787   6.772  12.621 -0.7175  0.7027 -1.4427
71151SOL     OW23382   2.747  11.559  13.184  0.3861  0.2368 -0.4874
71151SOL    HW123383   2.716  11.576  13.273  1.0070 -0.7830 -0.0601
71151SOL    HW223384   2.677  11.507  13.143  0.0529  0.7973 -0.6379
71152SOL     OW23385   8.125   7.117   6.662 -0.1634  0.4643 -0.1793
71152SOL    HW123386   8.165   7.204   6.651  1.9013 -0.6210 -1.9886
71152SOL    HW223387   8.163   7.083   6.742  0.4957  0.5017 -0.4704
71153SOL     OW23388   4.883   1.110   3.819 -0.4325  0.1780  0.1316
71153SOL    HW123389   4.917   1.088   3.732  0.7136  1.9589  0.0494
71153SOL    HW223390   4.961   1.111   3.875 -1.0831 -0.4083  1.0725
71154SOL     OW23391   6.462  12.910   0.387  0.0628  0.5536 -0.0354
71154SOL    HW123392   6.441  12.985   0.332 -2.0980  0.8962  1.1627
71154SOL    HW223393   6.446  12.834   0.331 -0.0509  0.9334 -0.5264
71155SOL     OW23394   8.384   7.898   3.494 -0.1936  0.1694  0.3410
71155SOL    HW123395   8.469   7.867   3.461  0.0036  0.8534  0.1921
71155SOL    HW223396   8.385   7.992   3.479 -1.0802  0.1536  0.1306
71156SOL     OW23397   4.959   6.562   2.891  0.2751 -0.1888  0.1113
71156SOL    HW123398   4.880   6.508   2.895  0.9118 -1.0817  1.9238
71156SOL    HW223399   4.934   6.643   2.937 -0.1800  0.4009 -1.1415
71157SOL     OW23400   6.413   9.758   7.096  0.2658 -0.4086 -0.2601
71157SOL    HW123401   6.335   9.748   7.041 -1.3673 -0.8036  1.9510
71157SOL    HW223402   6.469   9.685   7.071 -0.9581 -1.2773 -0.5892
71158SOL     OW23403   8.859   8.283  11.287  0.2644 -0.0957  0.5028
71158SOL    HW123404   8.938   8.230  11.288 -0.0242 -0.6382 -1.3266
71158SOL    HW223405   8.877   8.354  11.348  2.7110  0.5342 -0.8099
71159SOL     OW23406   7.641   0.843   1.800  0.5225  0.2659 -0.3018
71159SOL    HW123407   7.579   0.916   1.795  0.2934  0.0724 -0.3177
71159SOL    HW223408   7.704   0.860   1.730  0.1403  0.1484 -0.6754
71160SOL     OW23409   4.186   9.818   9.622  0.1043  0.1090 -0.0030
71160SOL    HW123410   4.237   9.739   9.641  1.1929  0.7284 -0.2753
71160SOL    HW223411   4.130   9.829   9.699 -1.4304 -1.9317 -0.7244
71161SOL     OW23412   1.337   2.010   1.623  0.1807  0.2596  0.2688
71161SOL    HW123413   1.285   1.980   1.697  0.4001 -0.7261  0.0378
71161SOL    HW223414   1.347   2.104   1.637 -1.5317  0.4504  0.3915
71162SOL     OW23415  10.862   7.219  11.088 -0.9775  0.4290 -0.0376
71162SOL    HW123416  10.950   7.183  11.096 -0.9285  0.8257  1.3986
71162SOL    HW223417  10.846   7.223  10.993  0.7785  0.9150 -0.3426
71163SOL     OW23418   8.742   4.003  11.929  0.6552 -0.0548 -0.7780
71163SOL    HW123419   8.830   3.978  11.901  0.8466  1.6777 -1.8588
71163SOL    HW223420   8.729   4.091  11.893 -1.2746 -0.0076 -0.0913
71164SOL     OW23421   4.858   3.510   7.152 -0.1256  0.3032  0.4551
71164SOL    HW123422   4.839   3.416   7.148  1.3734  0.0165 -0.7010
71164SOL    HW223423   4.814   3.540   7.232 -1.1387 -1.2522  0.5106
71165SOL     OW23424   6.774  11.954   5.644  0.2625  0.7641  0.3356
71165SOL    HW123425   6.784  12.018   5.714  2.6158 -1.5803  2.3496
71165SOL    HW223426   6.846  11.892   5.658 -1.4290 -1.9176 -1.9039
71166SOL     OW23427   4.342   5.764   2.596 -0.3633 -0.6016 -0.1513
71166SOL    HW123428   4.327   5.752   2.690  1.4562 -0.5711  0.1777
71166SOL    HW223429   4.341   5.675   2.561 -0.9698 -0.6189 -0.1038
71167SOL     OW23430   8.004  12.319   6.579 -0.0941  0.4359 -0.7053
71167SOL    HW123431   8.098  12.339   6.582 -0.0363  0.1002 -0.0706
71167SOL    HW223432   7.961  12.405   6.573  0.2523  0.5901 -0.9937
71168SOL     OW23433  11.458   2.620   2.819  0.2360  0.4535 -0.3634
71168SOL    HW123434  11.473   2.643   2.910 -1.1536  0.5362 -0.1382
71168SOL    HW223435  11.544   2.629   2.777  0.8144  0.7350  0.8558
71169SOL     OW23436   2.528   2.045   6.378  0.1645  0.0940 -0.5245
71169SOL    HW123437   2.609   2.056   6.327 -0.7419  1.1406 -1.8101
71169SOL    HW223438   2.558   2.034   6.469  1.8652 -2.5784 -1.2956
71170SOL     OW23439   5.555  12.148   3.650 -0.1697  0.3651 -0.9712
71170SOL    HW123440   5.597  12.066   3.626  0.7702  1.3031 -2.7259
71170SOL    HW223441   5.620  12.216   3.632  0.1702  1.4104  3.0761
71171SOL     OW23442   1.921   7.013   1.258  0.3502  0.0439 -0.5294
71171SOL    HW123443   1.829   7.039   1.262  0.3254  0.0201 -0.9616
71171SOL    HW223444   1.923   6.927   1.300  0.1074 -0.1429 -0.9023
71172SOL     OW23445   8.780  12.236   2.096  0.1380  0.2072  0.8950
71172SOL    HW123446   8.830  12.170   2.144 -2.2477 -1.4072  1.3083
71172SOL    HW223447   8.814  12.319   2.130  4.1074 -0.5776 -0.5238
71173SOL     OW23448  13.310   7.998   0.224  0.2599  0.3364 -0.4237
71173SOL    HW123449  13.323   7.930   0.291 -0.6709  0.9774  0.4359
71173SOL    HW223450  13.244   7.961   0.165 -1.5754  1.1471  1.0390
71174SOL     OW23451   8.730   6.880   0.744 -0.0577 -0.0020  0.2445
71174SOL    HW123452   8.691   6.833   0.670  0.4005  0.2490 -0.1667
71174SOL    HW223453   8.819   6.845   0.749 -0.0314  0.1104  0.5666
71175SOL     OW23454   0.861   4.322  12.211  0.4329  0.2920 -0.1326
71175SOL    HW123455   0.902   4.408  12.220 -0.8400  0.8085  1.0441
71175SOL    HW223456   0.839   4.296  12.300  1.1452 -1.4624 -0.4254
71176SOL     OW23457   4.202  10.812   4.350 -0.3858 -0.0073 -0.0739
71176SOL    HW123458   4.279  10.828   4.296 -0.9899  0.6551 -0.7608
71176SOL    HW223459   4.224  10.848   4.435 -0.1094  0.6266 -0.4052
71177SOL     OW23460   5.918   9.690   4.648  0.5380  0.0453 -0.1637
71177SOL    HW123461   6.005   9.730   4.637 -0.1813  2.1498  1.2440
71177SOL    HW223462   5.935   9.596   4.650  2.9765  0.4306  1.3584
71178SOL     OW23463  10.545   9.950   6.038  0.3499  0.8967  0.3156
71178SOL    HW123464  10.636   9.922   6.050  0.9914  2.6427 -0.1567
71178SOL    HW223465  10.510   9.889   5.974  0.9179 -0.2941  1.0851
71179SOL     OW23466   9.528   5.511   4.467 -0.1103  0.1822 -0.0202
71179SOL    HW123467   9.579   5.451   4.413  0.0411  1.3400 -1.2216
71179SOL    HW223468   9.447   5.523   4.418 -0.8962 -0.4108  1.0984
71180SOL     OW23469   3.162   0.772  12.385  0.4551  0.0992  0.1722
71180SOL    HW123470   3.214   0.750  12.307  0.7990 -1.6835  0.8545
71180SOL    HW223471   3.221   0.752  12.458 -0.5645 -0.2087  0.9224
71181SOL     OW23472   7.242   5.457   9.396 -0.5283 -0.3339  0.5362
71181SOL    HW123473   7.184   5.492   9.464 -0.3841  0.5593  0.2112
71181SOL    HW223474   7.187   5.448   9.319  0.3213  3.4834 -0.7299
71182SOL     OW23475  13.241   6.961   0.554 -0.1005 -0.2079  0.1129
71182SOL    HW123476  13.198   6.985   0.471 -0.9845 -0.8891  0.3525
71182SOL    HW223477  13.232   7.039   0.609 -0.6880 -0.2010  0.0167
71183SOL     OW23478   2.984   4.241   3.331  0.2688 -0.5401  0.0490
71183SOL    HW123479   2.932   4.190   3.269 -1.3826  0.0297  0.9346
71183SOL    HW223480   2.969   4.332   3.306  0.9740 -0.3645  0.2315
71184SOL     OW23481   9.652   2.364   8.674 -0.1505 -0.1246  0.2229
71184SOL    HW123482   9.576   2.420   8.683  1.5597  2.2731  0.7698
71184SOL    HW223483   9.662   2.321   8.759  0.6494  1.7304  1.1134
71185SOL     OW23484  11.764   7.942   9.769  0.2915 -0.2138  0.2274
71185SOL    HW123485  11.742   7.967   9.859  0.3948 -1.4815  0.6173
71185SOL    HW223486  11.745   8.021   9.718  0.8392  0.7463  1.4337
71186SOL     OW23487   0.033  10.641   9.894  0.4378  0.7358 -0.6241
71186SOL    HW123488   0.006  10.728   9.923  0.0488  0.3571  0.1743
71186SOL    HW223489   0.121  10.631   9.931 -0.1035  0.2060  0.5790
71187SOL     OW23490   0.353   1.126  10.617 -0.0723 -0.0244  0.1360
71187SOL    HW123491   0.370   1.032  10.618  0.5664  0.0830 -0.1540
71187SOL    HW223492   0.259   1.133  10.605 -0.0190 -0.6203 -0.7243
71188SOL     OW23493   2.633   0.735  12.507  0.3155  0.0438 -0.0292
71188SOL    HW123494   2.549   0.768  12.476  0.2929  0.5402  0.5386
71188SOL    HW223495   2.695   0.756  12.437 -0.0010 -0.1513 -0.3655
71189SOL     OW23496  11.133   4.929   2.738  0.7038 -0.4945 -0.0811
71189SOL    HW123497  11.177   4.845   2.725 -0.4855 -1.2758  0.7702
71189SOL    HW223498  11.062   4.910   2.798 -0.3040  0.9013 -0.7761
71190SOL     OW23499   8.324  10.492   2.055 -0.2195  0.3275  0.0546
71190SOL    HW123500   8.279  10.482   1.972 -0.8650  0.7043  0.3510
71190SOL    HW223501   8.281  10.430   2.114 -2.2631  2.5410  1.0878
71191SOL     OW23502  12.536  10.211   8.477 -0.4019  0.3289 -0.5995
71191SOL    HW123503  12.455  10.204   8.428 -1.9993  0.9481  1.7652
71191SOL    HW223504  12.541  10.302   8.505  0.6980  0.1339 -0.0646
71192SOL     OW23505   8.590   4.421  11.850  0.2230  0.0767 -0.1452
71192SOL    HW123506   8.524   4.389  11.911  1.3120  1.7650  2.0199
71192SOL    HW223507   8.607   4.346  11.792 -1.6950 -1.2005  0.8467
71193SOL     OW23508   0.966   1.236   3.128 -0.7304  0.4333  0.3806
71193SOL    HW123509   0.924   1.188   3.199  1.1669 -2.1305 -0.0935
71193SOL    HW223510   1.055   1.252   3.158 -0.4763  1.0684 -0.6421
71194SOL     OW23511   1.107   6.110   3.850  0.7074 -0.0181  0.4594
71194SOL    HW123512   1.034   6.108   3.913  0.3225 -0.1575  0.0111
71194SOL    HW223513   1.161   6.034   3.874 -0.6035 -1.4029 -0.7378
71195SOL     OW23514   8.261   1.152  10.516  0.3380 -0.4366 -0.1060
71195SOL    HW123515   8.239   1.184  10.429  1.4390 -2.6265 -1.2742
71195SOL    HW223516   8.355   1.171  10.525  0.0638  0.5117  0.9810
71196SOL     OW23517   1.811   4.085   9.677 -0.1334  0.6239 -0.5521
71196SOL    HW123518   1.878   4.016   9.673 -0.9944 -0.2151 -3.2954
71196SOL    HW223519   1.731   4.038   9.701 -0.6363  0.6934 -2.0033
71197SOL     OW23520   2.848   1.114   9.290 -0.2253  0.2244 -0.4359
71197SOL    HW123521   2.888   1.139   9.373 -0.2171 -2.8934  0.6547
71197SOL    HW223522   2.919   1.071   9.242 -0.7269  0.2232 -1.1908
71198SOL     OW23523   0.016  12.718  11.358  0.1117 -0.5983  0.1155
71198SOL    HW123524  -0.037  12.765  11.422  1.9233  1.9536 -0.0658
71198SOL    HW223525   0.026  12.630  11.395 -0.7590  0.1042  2.2024
71199SOL     OW23526   3.784   0.882   0.330 -0.0727  0.4979  0.0724
71199SOL    HW123527   3.750   0.839   0.251 -0.1208  0.2286  0.2383
71199SOL    HW223528   3.859   0.932   0.299  1.9304 -2.1358  0.3452
71200SOL     OW23529   9.796   2.475   4.617 -0.1537 -0.2996  0.3737
71200SOL    HW123530   9.770   2.383   4.617  0.1259 -0.4226 -1.4351
71200SOL    HW223531   9.717   2.522   4.588  0.0343 -0.1043  0.1723
71201SOL     OW23532   9.843   8.783  12.807  0.4682 -0.0917 -0.1416
71201SOL    HW123533   9.878   8.738  12.731  0.5898  0.0181 -0.1514
71201SOL    HW223534   9.919   8.804  12.860  0.6980  2.1639 -1.2533
71202SOL     OW23535  12.484  10.592   1.167  0.1458 -0.2926  0.0604
71202SOL    HW123536  12.467  10.643   1.246  1.3373 -2.0336  1.5202
71202SOL    HW223537  12.545  10.647   1.117  2.5308 -0.7251  2.2577
71203SOL     OW23538   7.058  11.464   9.456 -0.1635 -0.3706 -0.2709
71203SOL    HW123539   7.138  11.483   9.505 -1.0256 -0.7801  1.3475
71203SOL    HW223540   7.015  11.549   9.447  0.8055  0.0035 -1.8961
71204SOL     OW23541   0.235  10.540   7.287 -0.3809  0.0371 -0.3061
71204SOL    HW123542   0.291  10.476   7.242 -0.3132  0.5420 -0.9579
71204SOL    HW223543   0.159  10.489   7.315 -0.2191 -0.3827 -0.6132
71205SOL     OW23544   6.811  10.989   4.266 -0.2402  0.3155  0.0726
71205SOL    HW123545   6.817  10.924   4.335  1.5624 -1.1107 -1.3172
71205SOL    HW223546   6.813  11.073   4.311  0.3521 -0.5652  1.7545
71206SOL     OW23547  12.995   1.215   4.299  0.1249  0.4860 -0.0727
71206SOL    HW123548  13.072   1.178   4.254 -0.6645 -1.7153  0.2445
71206SOL    HW223549  13.010   1.309   4.299  2.5353  0.1689 -0.5405
71207SOL     OW23550   7.611   2.622  12.341 -0.5337  0.1040 -0.1116
71207SOL    HW123551   7.610   2.715  12.319  0.5461 -0.2792 -2.0622
71207SOL    HW223552   7.591   2.578  12.258 -1.6835 -1.4091  0.9094
71208SOL     OW23553   3.763  11.940   5.635 -0.3717 -0.1672 -0.5700
71208SOL    HW123554   3.707  11.980   5.568 -0.2718 -2.3114 -2.0089
71208SOL    HW223555   3.703  11.885   5.686 -0.8128  2.7051  2.3632
71209SOL     OW23556   2.949   3.908   9.475  0.0702  0.6662  0.0464
71209SOL    HW123557   3.042   3.912   9.494  0.1916 -1.4446  0.1839
71209SOL    HW223558   2.944   3.895   9.380 -0.1824  2.3781 -0.2047
71210SOL     OW23559   3.299   7.231   0.395  0.8521 -0.1509  0.0198
71210SOL    HW123560   3.292   7.230   0.300  1.4384  1.9664 -0.0867
71210SOL    HW223561   3.209   7.242   0.426  0.5954 -1.3564 -0.2306
71211SOL     OW23562   3.147   9.139   8.476  0.1061 -0.1140  0.5127
71211SOL    HW123563   3.134   9.164   8.567 -0.5057 -1.2009  0.7436
71211SOL    HW223564   3.139   9.221   8.427 -1.2954  0.2467  1.2833
71212SOL     OW23565  10.037  10.118  10.432 -0.1165 -0.6672 -0.1228
71212SOL    HW123566   9.972  10.051  10.453 -0.5770  0.0373  0.7219
71212SOL    HW223567  10.121  10.074  10.445 -0.4021 -0.7747  1.4915
71213SOL     OW23568   0.343   9.504   1.834 -0.1897  0.3565 -0.1309
71213SOL    HW123569   0.354   9.446   1.758 -0.9139  0.4623 -0.3215
71213SOL    HW223570   0.404   9.576   1.818 -0.0900  0.2091 -0.4372
71214SOL     OW23571   3.206   1.624   9.037  0.2075  0.1280  0.8039
71214SOL    HW123572   3.174   1.639   8.948  0.7041  0.9514  0.7620
71214SOL    HW223573   3.204   1.528   9.047 -1.4406  0.0986  0.5103
71215SOL     OW23574  11.909   3.286   5.571  0.3886 -0.3821  0.4855
71215SOL    HW123575  11.909   3.368   5.619 -1.5326  0.4634 -0.7991
71215SOL    HW223576  11.971   3.300   5.499  0.5854 -0.3201  0.6675
71216SOL     OW23577   6.339   6.262   3.123  0.0894 -0.1806 -0.5435
71216SOL    HW123578   6.422   6.240   3.082 -0.6679 -2.5200 -0.9544
71216SOL    HW223579   6.325   6.193   3.188 -1.5312  0.1489 -0.5073
71217SOL     OW23580   0.320   6.975  12.916 -0.0546  0.1155 -0.4013
71217SOL    HW123581   0.318   7.027  12.835 -0.3996 -1.2535 -1.3204
71217SOL    HW223582   0.251   7.013  12.970 -0.0344  0.8616 -0.8817
71218SOL     OW23583   7.090   8.954   0.882  0.3891  0.3587 -0.5932
71218SOL    HW123584   7.066   9.041   0.914  0.4432  1.0510 -2.3130
71218SOL    HW223585   7.045   8.946   0.798  0.8979 -1.0151 -0.7578
71219SOL     OW23586   9.604   9.980   0.447 -0.0353  0.2773 -0.1925
71219SOL    HW123587   9.617   9.922   0.372  2.9415 -0.2983  0.6366
71219SOL    HW223588   9.560   9.926   0.512  0.8310 -0.4549 -0.1868
71220SOL     OW23589   6.823   1.451   1.661 -0.3221  0.0176 -0.2678
71220SOL    HW123590   6.741   1.477   1.704 -0.9159  0.7866 -1.7620
71220SOL    HW223591   6.801   1.372   1.612 -0.1429  0.1600 -0.5830
71221SOL     OW23592   0.954   8.105   4.249  0.5246 -0.2247  0.7610
71221SOL    HW123593   0.971   8.126   4.341 -1.0186 -0.3931  1.0997
71221SOL    HW223594   1.041   8.107   4.208  1.0956  1.0322  1.9593
71222SOL     OW23595   7.828  10.709   9.344  0.0783  0.1540 -0.7102
71222SOL    HW123596   7.799  10.779   9.401  1.4115 -0.4140  0.7347
71222SOL    HW223597   7.887  10.752   9.282  0.8811  0.3342  0.1587
71223SOL     OW23598   3.393   6.803   7.492  0.4659  0.1986 -0.1487
71223SOL    HW123599   3.472   6.754   7.512  0.1367 -0.6252 -0.8167
71223SOL    HW223600   3.344   6.805   7.575  0.4558 -0.6642 -0.1239
71224SOL     OW23601   4.945  11.084  12.866  0.2224  0.3064 -0.4765
71224SOL    HW123602   4.854  11.059  12.848  0.2980 -0.9894  0.7865
71224SOL    HW223603   4.937  11.153  12.932  0.1351 -1.5652  1.6124
71225SOL     OW23604   0.213   7.523   2.088 -0.5403  0.5114  0.1467
71225SOL    HW123605   0.208   7.537   2.183  0.6208 -1.9144  0.6278
71225SOL    HW223606   0.139   7.573   2.053 -2.3407 -0.2853  2.5560
71226SOL     OW23607  10.710   7.857   7.515  0.3376 -0.1626 -0.3437
71226SOL    HW123608  10.630   7.857   7.462  0.8670  1.3661 -1.2033
71226SOL    HW223609  10.775   7.813   7.460 -0.0924 -2.2339  0.7208
71227SOL     OW23610   2.294  10.731   0.113  0.2983 -0.2890 -0.0967
71227SOL    HW123611   2.331  10.643   0.117 -1.5777 -1.0930  0.3412
71227SOL    HW223612   2.204  10.721   0.143 -0.0676  1.7244 -0.3944
71228SOL     OW23613  11.685   3.524  11.598  0.3232  0.7418 -0.3286
71228SOL    HW123614  11.732   3.540  11.516  0.5544  1.9068  0.0211
71228SOL    HW223615  11.745   3.470  11.649  0.7275  1.1192 -0.4027
71229SOL     OW23616   8.560   1.913  10.099 -0.5535  0.0663 -0.2926
71229SOL    HW123617   8.604   1.829  10.100  1.3047  0.9810 -0.7690
71229SOL    HW223618   8.466   1.892  10.096 -0.1045 -1.9948 -2.7113
71230SOL     OW23619   1.395  13.017   9.514  0.0757 -0.0664  0.7508
71230SOL    HW123620   1.378  13.095   9.461  0.7948 -1.0603 -0.9995
71230SOL    HW223621   1.473  13.040   9.565  0.4215  0.2904  0.0779
71231SOL     OW23622   7.796  10.683   1.141 -0.4908 -0.4220 -0.3187
71231SOL    HW123623   7.710  10.720   1.119  1.1747  3.6933 -0.7169
71231SOL    HW223624   7.808  10.704   1.233  0.5352  0.1381 -0.5690
71232SOL     OW23625   3.985   1.758   6.985  0.1759 -0.1678  0.0330
71232SOL    HW123626   3.896   1.733   7.012 -0.0209  0.4603 -0.0161
71232SOL    HW223627   4.031   1.675   6.973 -1.2405 -0.6635 -2.7991
71233SOL     OW23628  13.046  12.772   5.251  0.0550  0.5729  0.3877
71233SOL    HW123629  13.101  12.841   5.289 -0.0311  0.6664  0.3439
71233SOL    HW223630  13.069  12.773   5.158 -0.5489  1.1132  0.2370
71234SOL     OW23631  12.044   6.430   0.258  0.1032 -0.7354  0.0632
71234SOL    HW123632  12.001   6.504   0.302  0.2902 -0.7923  0.3436
71234SOL    HW223633  12.123   6.415   0.309  0.2070 -0.9502 -0.1617
71235SOL     OW23634   3.139   4.872   1.982 -0.3022  0.9240 -0.0159
71235SOL    HW123635   3.184   4.956   1.988 -0.3284  0.8974  0.5827
71235SOL    HW223636   3.163   4.838   1.896  2.7451 -0.1953  1.1650
71236SOL     OW23637  11.942  12.947   7.692  0.1371  0.5060 -0.2318
71236SOL    HW123638  11.919  12.908   7.607 -0.6828 -1.9086  0.9838
71236SOL    HW223639  12.037  12.946   7.694  0.1926 -2.2552 -0.0291
71237SOL     OW23640   5.284   5.125   3.184  0.0964 -0.4937 -0.0630
71237SOL    HW123641   5.335   5.051   3.151 -1.1886 -0.3760 -2.5091
71237SOL    HW223642   5.323   5.202   3.141 -1.6695 -0.3432 -1.5214
71238SOL     OW23643  11.591  12.352  10.531  0.0244  0.2710 -0.4379
71238SOL    HW123644  11.500  12.346  10.561  0.2052 -0.7236 -0.0663
71238SOL    HW223645  11.617  12.262  10.513  1.1652  0.4712  0.1379
71239SOL     OW23646   1.929   6.482  11.949 -0.5246 -0.6198  0.1364
71239SOL    HW123647   1.885   6.418  12.004  0.6561 -0.9423  0.7431
71239SOL    HW223648   2.022   6.459  11.954 -0.1059  0.8871  0.0578
71240SOL     OW23649   0.023   2.582  10.320 -0.0493  0.1897  0.1589
71240SOL    HW123650   0.024   2.517  10.389  1.2556  0.0409  0.0128
71240SOL    HW223651   0.094   2.642  10.341 -0.1190  0.5744 -0.6397
71241SOL     OW23652   7.888   8.215   8.802  0.1263  0.4116  0.2223
71241SOL    HW123653   7.983   8.207   8.800  0.1471  0.7277 -1.5822
71241SOL    HW223654   7.872   8.304   8.834  0.3285 -0.4181  2.8464
71242SOL     OW23655   9.951  11.567   8.991  0.3658  0.5633  0.0728
71242SOL    HW123656   9.909  11.586   8.907  0.4593  2.8171  0.4850
71242SOL    HW223657   9.905  11.623   9.054  1.4745  0.2219  1.2140
71243SOL     OW23658   2.809   7.345   4.744  0.0748 -0.2601  0.8079
71243SOL    HW123659   2.810   7.282   4.672  2.4175 -0.4935  0.9751
71243SOL    HW223660   2.752   7.415   4.714 -0.3924 -1.1806 -0.5281
71244SOL     OW23661   2.663   3.838   2.507  0.6278 -0.8653 -0.6428
71244SOL    HW123662   2.740   3.787   2.528 -0.4428 -1.8416  1.1855
71244SOL    HW223663   2.657   3.902   2.578 -0.9295 -1.6700  0.0036
71245SOL     OW23664   4.706   9.289  12.840  0.2881  0.2462  0.0635
71245SOL    HW123665   4.664   9.205  12.820  0.1084  0.2391  0.4599
71245SOL    HW223666   4.641   9.354  12.815  1.0231  0.3404 -1.7316
71246SOL     OW23667   7.985   4.910   3.624  0.1408 -0.2755 -0.3197
71246SOL    HW123668   7.979   5.003   3.645  0.0510  0.1902 -2.2320
71246SOL    HW223669   8.042   4.906   3.547 -1.8058 -1.5263 -1.8071
71247SOL     OW23670   2.497   7.632   7.675  0.0231 -0.0692  0.0481
71247SOL    HW123671   2.578   7.585   7.694  0.2351  0.3947  0.3014
71247SOL    HW223672   2.518   7.687   7.600  0.4406  1.2856  1.1173
71248SOL     OW23673   0.187   6.844   7.019 -0.1686 -0.4279 -0.6492
71248SOL    HW123674   0.121   6.910   7.004 -0.3384 -0.2045  0.9250
71248SOL    HW223675   0.157   6.768   6.969  0.1678  0.7114 -2.6889
71249SOL     OW23676   6.978  11.381  11.004 -0.1868 -0.3053 -0.1388
71249SOL    HW123677   7.006  11.348  10.918  0.6452 -0.4904  0.1947
71249SOL    HW223678   6.901  11.435  10.985  0.3134  0.1005 -1.0671
71250SOL     OW23679   0.747   8.264   8.090  0.1119 -0.4620  0.0478
71250SOL    HW123680   0.837   8.284   8.118 -0.0535 -0.7159  0.7721
71250SOL    HW223681   0.693   8.328   8.137 -0.1440 -0.6920  0.0632
71251SOL     OW23682   1.100   4.282   8.333 -0.7772 -0.1887 -0.1089
71251SOL    HW123683   1.190   4.268   8.306 -0.8724  1.2579 -1.2809
71251SOL    HW223684   1.106   4.336   8.412 -0.6056  2.0749 -1.5842
71252SOL     OW23685   0.029   6.780  12.709 -0.7687  0.1728  0.0536
71252SOL    HW123686   0.058   6.704  12.659  1.4681 -0.5502  2.2405
71252SOL    HW223687   0.093   6.787  12.780 -3.1971  1.6728  2.2499
71253SOL     OW23688   5.206   6.354   4.125 -0.2372 -0.3010  0.0758
71253SOL    HW123689   5.217   6.289   4.195 -0.4045 -1.3007 -0.7927
71253SOL    HW223690   5.162   6.305   4.055 -0.9038  0.9162 -0.3791
71254SOL     OW23691   6.948   7.821   0.925  0.2774  0.2776  0.0347
71254SOL    HW123692   7.013   7.869   0.976  1.0387 -0.8359  0.1504
71254SOL    HW223693   6.961   7.729   0.950 -1.0919 -0.0096 -0.2263
71255SOL     OW23694   5.462   9.071   4.410 -0.4380 -0.0888 -0.7095
71255SOL    HW123695   5.406   9.099   4.482 -1.4567  1.5481 -2.0504
71255SOL    HW223696   5.520   9.006   4.449  2.8811  4.4032  3.1184
71256SOL     OW23697  10.764   3.212  12.137 -0.0023  0.1275 -0.3057
71256SOL    HW123698  10.854   3.244  12.134 -0.5242  1.9457  1.4245
71256SOL    HW223699  10.729   3.246  12.220 -2.4694  0.0565 -1.2362
71257SOL     OW23700  12.306  11.852   8.179 -0.2649  0.3594 -0.1903
71257SOL    HW123701  12.391  11.894   8.186  0.9032 -1.9649  0.3993
71257SOL    HW223702  12.313  11.794   8.104  0.0750 -2.6760  1.9963
71258SOL     OW23703   9.969   0.285  12.202  0.0837 -0.4927  0.6062
71258SOL    HW123704   9.946   0.378  12.208 -1.3188 -0.5781 -2.0674
71258SOL    HW223705  10.039   0.282  12.137 -0.9007 -1.3782 -0.4678
71259SOL     OW23706   1.970   5.975   0.318  0.2537 -0.9206  0.5318
71259SOL    HW123707   1.883   5.936   0.311 -0.5121  0.9098 -0.9772
71259SOL    HW223708   1.954   6.061   0.358  1.5795 -1.1194  1.5568
71260SOL     OW23709   3.139   4.146  10.654  0.1808 -0.4061 -0.2066
71260SOL    HW123710   3.187   4.202  10.714 -0.6708  0.5732 -0.3992
71260SOL    HW223711   3.171   4.171  10.567  0.7462 -1.1683 -0.2306
71261SOL     OW23712  11.941   7.061   2.873  0.0830 -0.0660  0.1236
71261SOL    HW123713  12.017   7.031   2.824  0.5378 -0.0191  0.7791
71261SOL    HW223714  11.926   7.151   2.843 -0.1070 -0.2880 -0.4594
71262SOL     OW23715   2.578  11.683  10.092 -0.3690  0.1255  0.1245
71262SOL    HW123716   2.519  11.684  10.168 -0.0030  1.2630  0.4183
71262SOL    HW223717   2.625  11.766  10.097  1.8190 -1.0619  0.3115
71263SOL     OW23718   3.227   2.116   6.868 -0.2301  0.0502  0.2467
71263SOL    HW123719   3.253   2.194   6.819 -0.8082  0.8596  1.1990
71263SOL    HW223720   3.207   2.051   6.801  1.9178  0.1350 -0.5496
71264SOL     OW23721  12.246   2.020   2.553 -0.7180 -0.0164 -0.2214
71264SOL    HW123722  12.322   2.066   2.519 -0.0928 -1.0572 -0.2843
71264SOL    HW223723  12.181   2.025   2.483 -0.4301  0.2133 -0.4739
71265SOL     OW23724   9.944  10.426   9.993 -0.1366  0.3034  0.3745
71265SOL    HW123725  10.033  10.458  10.006  0.4630 -1.1389 -0.0320
71265SOL    HW223726   9.901  10.495   9.943  0.8799  0.8183  0.1919
71266SOL     OW23727   1.994   2.035  11.273  0.1412  0.7024 -0.0901
71266SOL    HW123728   2.043   2.114  11.296 -0.9652  1.5609 -0.5533
71266SOL    HW223729   2.037   2.002  11.195 -0.4372  1.8701 -0.9328
71267SOL     OW23730  13.124  11.024   1.427 -0.1352  0.6272  0.3264
71267SOL    HW123731  13.190  11.088   1.453 -0.3247 -0.1366  2.9743
71267SOL    HW223732  13.146  10.945   1.476 -4.3638  1.0791  3.6685
71268SOL     OW23733   3.992   0.318   0.625 -0.3362 -0.4897 -0.4776
71268SOL    HW123734   3.984   0.282   0.537  1.6941 -1.7726 -0.2100
71268SOL    HW223735   3.994   0.240   0.682 -0.7321  0.2788  0.6282
71269SOL     OW23736   1.186   9.476   9.474 -0.0613  0.2090  1.1517
71269SOL    HW123737   1.259   9.433   9.430 -0.9312 -0.6601  0.5254
71269SOL    HW223738   1.143   9.527   9.404  0.5906  1.6439  1.7516
71270SOL     OW23739   4.684   6.488  10.793  0.3072 -0.2297  0.0926
71270SOL    HW123740   4.722   6.404  10.818  0.6993 -0.8937 -2.4504
71270SOL    HW223741   4.754   6.533  10.745 -0.8823  0.1389 -1.3857
71271SOL     OW23742   5.384   2.277  13.257  0.2689 -0.6011 -0.3444
71271SOL    HW123743   5.357   2.314  13.173 -0.2445  1.9067  0.8494
71271SOL    HW223744   5.314   2.302  13.318  0.8031 -2.0670  0.9338
71272SOL     OW23745   2.224   7.069   4.060 -0.2974  0.0880 -0.0111
71272SOL    HW123746   2.133   7.098   4.071 -0.3008  0.5051 -0.9915
71272SOL    HW223747   2.217   6.973   4.056 -0.4846  0.0195  1.5525
71273SOL     OW23748   9.979   7.008   9.673  0.3129 -0.1300  0.0464
71273SOL    HW123749   9.907   7.037   9.729 -0.5942 -0.7071 -0.7884
71273SOL    HW223750   9.938   6.993   9.587  1.3724 -0.7540 -0.3673
71274SOL     OW23751   4.832   4.648   6.718 -0.1553 -0.4045  0.2138
71274SOL    HW123752   4.858   4.736   6.689  0.5395  0.0246  1.9957
71274SOL    HW223753   4.758   4.663   6.776 -1.0776 -1.1678 -0.7361
71275SOL     OW23754   5.774  11.595   0.100 -0.3658 -0.5358 -0.4178
71275SOL    HW123755   5.743  11.584   0.190  0.1573 -0.1187 -0.1800
71275SOL    HW223756   5.826  11.676   0.103  2.0008 -1.9538 -0.4490
71276SOL     OW23757   8.700   2.721  10.704  0.0396 -0.8421  0.3558
71276SOL    HW123758   8.743   2.739  10.787 -1.8621  0.0548  1.2089
71276SOL    HW223759   8.748   2.647  10.668  2.1881  0.0050  1.2618
71277SOL     OW23760   0.267   3.893   7.066 -0.6617 -0.2598  0.0967
71277SOL    HW123761   0.348   3.844   7.061 -0.6191 -0.1248 -0.9541
71277SOL    HW223762   0.291   3.982   7.037 -1.1926 -0.2564 -0.3681
71278SOL     OW23763   2.646   1.757   3.520  0.5080 -0.1318  0.5279
71278SOL    HW123764   2.600   1.754   3.604 -1.3496  0.6272 -0.4090
71278SOL    HW223765   2.608   1.686   3.469  2.0335 -0.9603  0.4921
71279SOL     OW23766   2.326   8.046   7.354  0.0408 -0.3607  0.2349
71279SOL    HW123767   2.407   8.001   7.329 -0.1313 -2.2195  2.6029
71279SOL    HW223768   2.333   8.132   7.315  3.2442 -0.3995  0.4502
71280SOL     OW23769   5.490   1.718   4.184  0.1041 -0.2157  0.5719
71280SOL    HW123770   5.488   1.683   4.273 -2.7395 -0.2830  0.5766
71280SOL    HW223771   5.483   1.641   4.127 -1.1283 -0.0205  0.4265
71281SOL     OW23772   3.175   6.852   5.339  0.5651 -0.8870 -0.7048
71281SOL    HW123773   3.165   6.937   5.296 -0.8018 -0.6994 -0.0862
71281SOL    HW223774   3.105   6.850   5.405  0.5883 -2.4766 -0.6794
71282SOL     OW23775   8.591   3.003  12.901  0.1948  0.7190  0.2627
71282SOL    HW123776   8.606   2.950  12.979 -0.0543  1.0816  0.5610
71282SOL    HW223777   8.622   3.091  12.925  0.7145  0.6836 -0.2673
71283SOL     OW23778   3.307   8.994   0.202  0.0836  0.3645  0.3360
71283SOL    HW123779   3.391   9.031   0.178  0.8727 -1.6727 -0.2610
71283SOL    HW223780   3.295   8.920   0.142 -2.2313  0.7051  0.2703
71284SOL     OW23781   5.693  13.187  13.032 -0.1353  0.5581 -0.2359
71284SOL    HW123782   5.689  13.092  13.032  0.6436  0.5181  0.3261
71284SOL    HW223783   5.632  13.214  13.101  1.4771  0.3423  1.3611
71285SOL     OW23784   2.604   5.965   0.434  0.2497 -0.0387 -0.2601
71285SOL    HW123785   2.542   6.034   0.457 -0.3610 -1.2616  2.0433
71285SOL    HW223786   2.564   5.922   0.358  0.6925  2.0841 -1.8130
71286SOL     OW23787   0.540  11.352   6.555 -0.6165  0.1832 -0.5491
71286SOL    HW123788   0.599  11.392   6.492 -1.8246  0.5464 -1.4924
71286SOL    HW223789   0.531  11.261   6.526  1.1870 -0.5348  0.9021
71287SOL     OW23790   1.602   7.246  12.907  0.1145  0.3564  0.0259
71287SOL    HW123791   1.556   7.173  12.866  3.5463 -2.3601  0.5883
71287SOL    HW223792   1.609   7.221  12.999 -1.0171  2.8437  0.8797
71288SOL     OW23793  13.102   6.800   3.676 -0.5956 -0.0384 -0.0218
71288SOL    HW123794  13.170   6.867   3.675 -0.1657 -0.3723  2.2869
71288SOL    HW223795  13.103   6.763   3.587  1.9129  0.2619 -0.1769
71289SOL     OW23796   6.270   6.395   0.331  0.3645 -0.5923 -0.0394
71289SOL    HW123797   6.310   6.397   0.244 -0.2490 -0.8260 -0.3278
71289SOL    HW223798   6.183   6.358   0.318  0.0337 -0.0657  0.5823
71290SOL     OW23799   7.875   7.012  10.520 -0.4045 -0.0370 -0.4514
71290SOL    HW123800   7.902   7.101  10.498  0.4344 -0.1643  0.0152
71290SOL    HW223801   7.821   7.022  10.599  0.4733 -0.0118  0.1675
71291SOL     OW23802   9.682   9.744   4.738  0.1676  0.0849  0.4039
71291SOL    HW123803   9.626   9.821   4.731  0.5899  0.2984 -0.8460
71291SOL    HW223804   9.767   9.779   4.762  0.7767  0.2402 -1.7315
71292SOL     OW23805   9.426  11.807   9.303  0.3893 -0.3629 -0.0539
71292SOL    HW123806   9.515  11.808   9.339  0.3753 -0.7820 -0.0060
71292SOL    HW223807   9.375  11.857   9.366  1.1290  2.5461 -1.5536
71293SOL     OW23808   9.101   1.171   2.578 -0.1575  0.1245 -0.2543
71293SOL    HW123809   9.038   1.101   2.595 -0.3772 -0.0344 -1.6120
71293SOL    HW223810   9.159   1.170   2.654 -0.3334 -1.3457 -0.1070
71294SOL     OW23811   1.427   9.571   8.399  0.3929  0.0649 -0.0064
71294SOL    HW123812   1.427   9.666   8.412 -0.9867  0.1046 -0.1882
71294SOL    HW223813   1.442   9.559   8.305  2.2294  0.0281  0.2592
71295SOL     OW23814  10.597  11.398   7.650 -0.2135  0.0246  0.1126
71295SOL    HW123815  10.507  11.429   7.644 -0.4755 -0.5715  0.8480
71295SOL    HW223816  10.624  11.420   7.740 -0.2752 -1.4992  0.5264
71296SOL     OW23817  10.782  11.581   9.346 -0.0144  0.5212  0.3279
71296SOL    HW123818  10.775  11.528   9.426  1.1842 -1.3946 -0.7633
71296SOL    HW223819  10.836  11.529   9.287 -1.1114  1.7329 -1.8809
71297SOL     OW23820   8.698   9.366   0.071  0.4717  0.0764 -0.0048
71297SOL    HW123821   8.682   9.375  -0.023 -1.6255 -2.4256 -0.0055
71297SOL    HW223822   8.660   9.445   0.109 -2.3235 -0.6427 -1.0263
71298SOL     OW23823   1.576   2.063   7.844  0.5476  0.2163 -0.1476
71298SOL    HW123824   1.639   2.104   7.902  2.2992 -0.4710 -1.4830
71298SOL    HW223825   1.534   2.136   7.799  0.2424  0.6848  0.8638
71299SOL     OW23826  10.638  10.579   5.070  0.7245 -0.3252 -0.2216
71299SOL    HW123827  10.582  10.516   5.115 -2.6569  2.4152 -0.1314
71299SOL    HW223828  10.673  10.633   5.141 -0.7448  1.0560 -0.4835
71300SOL     OW23829   2.577   2.289   5.841  0.7372 -0.0213 -0.5234
71300SOL    HW123830   2.557   2.362   5.900  0.2802 -0.2700 -0.3664
71300SOL    HW223831   2.604   2.331   5.759  0.0051  0.3266 -0.5980
71301SOL     OW23832   5.871   9.872   3.648 -0.0961 -0.5520 -0.3987
71301SOL    HW123833   5.843   9.948   3.596  2.0163  0.2276 -0.4958
71301SOL    HW223834   5.816   9.800   3.617  0.0605  0.2233 -2.6775
71302SOL     OW23835  10.906   0.976   0.295 -0.6002 -0.3184  0.4150
71302SOL    HW123836  10.987   0.947   0.337 -2.3117 -1.5468  3.1649
71302SOL    HW223837  10.901   1.069   0.315 -0.0349 -0.3039  0.5014
71303SOL     OW23838   2.628   6.072   9.108  0.6878  0.6090 -0.0991
71303SOL    HW123839   2.612   5.985   9.070  2.1791  0.6209 -0.8031
71303SOL    HW223840   2.540   6.103   9.131  0.0367 -0.7274 -0.6113
71304SOL     OW23841   7.890   5.250  13.232  0.1582 -0.4278 -0.2960
71304SOL    HW123842   7.970   5.235  13.183  0.6915  0.3294  0.3100
71304SOL    HW223843   7.871   5.167  13.275 -0.0526 -0.9584 -1.3805
71305SOL     OW23844   5.962  13.010   8.813 -0.3111  0.1138 -0.2309
71305SOL    HW123845   5.936  12.995   8.722  1.3843  0.9287 -0.8770
71305SOL    HW223846   6.001  12.927   8.841 -0.0688  0.1264 -0.5273
71306SOL     OW23847   4.743   2.093   7.101  0.5711 -0.2707  0.3980
71306SOL    HW123848   4.727   2.182   7.070  0.4298  0.2706  1.9603
71306SOL    HW223849   4.837   2.088   7.115  0.7431 -0.7615 -0.7570
71307SOL     OW23850   2.617   7.748  12.858 -0.1735 -0.0427  0.5391
71307SOL    HW123851   2.601   7.702  12.941  1.0777  1.2892  1.5673
71307SOL    HW223852   2.604   7.681  12.791 -0.2030 -1.4324  1.8704
71308SOL     OW23853   8.919   4.248   3.667 -0.0209 -0.7204  0.0110
71308SOL    HW123854   8.952   4.286   3.748 -1.2260 -0.2247  0.2924
71308SOL    HW223855   8.826   4.233   3.684  0.2900 -3.4103 -0.2412
71309SOL     OW23856   7.996  10.757   6.440  0.0457 -0.2654  0.7394
71309SOL    HW123857   8.016  10.693   6.508  3.9675 -0.3860 -0.2849
71309SOL    HW223858   8.018  10.713   6.358  0.4278  1.5389 -0.1842
71310SOL     OW23859   5.685   7.363   8.413 -0.1733  0.0390  0.7334
71310SOL    HW123860   5.650   7.324   8.333  0.1418  0.7715  0.2234
71310SOL    HW223861   5.705   7.288   8.470 -1.0119 -0.4552  0.3918
71311SOL     OW23862  11.321   9.936   4.613 -1.0986  0.1623 -0.1206
71311SOL    HW123863  11.235   9.969   4.587 -1.0492  1.1282  0.8656
71311SOL    HW223864  11.374  10.015   4.624 -0.4848 -0.3472  0.6347
71312SOL     OW23865   9.055  11.305  11.382 -0.3955 -0.2430  0.2435
71312SOL    HW123866   8.980  11.258  11.347 -0.5069 -1.7806  2.2950
71312SOL    HW223867   9.130  11.272  11.333 -0.3714 -3.3284  2.0776
71313SOL     OW23868   1.647  10.716   3.823 -0.0273 -0.1204  0.0182
71313SOL    HW123869   1.739  10.691   3.830  0.0115 -0.1436 -0.5058
71313SOL    HW223870   1.610  10.654   3.760 -0.4307 -0.1836  0.3136
71314SOL     OW23871  11.815   5.956   7.281 -0.2959 -0.0241 -0.4244
71314SOL    HW123872  11.824   6.032   7.339 -0.3754 -0.1714 -0.2147
71314SOL    HW223873  11.776   5.991   7.201  0.2871  0.2711 -0.5869
71315SOL     OW23874  11.228   9.996   6.080  0.5105  0.0717  0.1620
71315SOL    HW123875  11.248   9.918   6.132 -1.8693 -1.9310 -1.6797
71315SOL    HW223876  11.283   9.988   6.002 -1.2609 -1.0226 -1.0407
71316SOL     OW23877   4.255   0.106  13.019 -0.2619 -0.1929 -0.1350
71316SOL    HW123878   4.164   0.093  12.995 -0.6339  0.7764  0.6521
71316SOL    HW223879   4.282   0.183  12.968  0.4315 -1.0555 -1.1093
71317SOL     OW23880   5.165   9.100   2.372 -0.1431 -0.7007 -0.1962
71317SOL    HW123881   5.176   9.190   2.341  2.0430 -0.3923  1.2464
71317SOL    HW223882   5.071   9.089   2.379 -0.5056  1.1314 -1.3769
71318SOL     OW23883  11.462   4.112   5.709 -0.4743  0.2857  0.1149
71318SOL    HW123884  11.379   4.069   5.731  0.1162 -1.1208 -0.3129
71318SOL    HW223885  11.474   4.094   5.616 -0.1476  1.3317 -0.0627
71319SOL     OW23886  12.679   1.766  12.500  0.2163  0.0711 -0.1156
71319SOL    HW123887  12.674   1.685  12.450  0.7173 -0.5056  0.7339
71319SOL    HW223888  12.749   1.751  12.564  1.2615  1.6901 -0.8266
71320SOL     OW23889   9.939   0.257   3.523  0.4224  0.3109  0.1648
71320SOL    HW123890   9.962   0.198   3.595  0.3020  0.4172  0.2907
71320SOL    HW223891   9.986   0.222   3.448 -0.0576 -0.2499  0.1215
71321SOL     OW23892   5.658  12.484   4.339 -0.0200  0.0287 -0.2662
71321SOL    HW123893   5.593  12.553   4.356 -1.5864 -1.6811  1.0794
71321SOL    HW223894   5.689  12.503   4.250 -0.3129  2.4883  0.0728
71322SOL     OW23895   4.837   5.713  10.642  0.3786 -0.3546  0.2145
71322SOL    HW123896   4.843   5.691  10.735  2.6307  1.5815  0.6368
71322SOL    HW223897   4.902   5.782  10.630 -3.6404  3.5987 -1.6063
71323SOL     OW23898   4.044   7.134   7.827 -0.2065  0.0408  0.3255
71323SOL    HW123899   4.028   7.133   7.732 -0.7552  0.8828  0.4059
71323SOL    HW223900   4.035   7.042   7.853 -0.9713 -0.0679 -0.2888
71324SOL     OW23901   0.708   8.953   9.098  0.0627  0.0907 -0.6879
71324SOL    HW123902   0.721   8.863   9.069 -0.8373  0.0880 -1.1202
71324SOL    HW223903   0.781   9.001   9.061  0.2190 -0.3544 -0.9649
71325SOL     OW23904  12.388   1.976   4.426 -0.5966  0.1351 -0.1869
71325SOL    HW123905  12.425   1.902   4.377  0.1645  1.3852 -1.5730
71325SOL    HW223906  12.431   1.972   4.511  3.4418  1.8962 -1.9129
71326SOL     OW23907   9.514  12.964   8.940  0.1552 -0.5613  0.1888
71326SOL    HW123908   9.461  12.935   8.865 -0.2314  0.1598  0.1677
71326SOL    HW223909   9.514  13.060   8.933 -1.2536 -0.3833  2.0114
71327SOL     OW23910   4.816   9.571   6.952 -0.4379 -0.8704 -0.2482
71327SOL    HW123911   4.870   9.591   7.029 -0.8311  0.0148 -0.1963
71327SOL    HW223912   4.742   9.631   6.958 -0.0485 -0.2028 -1.7696
71328SOL     OW23913   2.016   1.014   0.705 -0.0714 -0.4103  0.0346
71328SOL    HW123914   2.030   1.018   0.800  0.2065  0.4730 -0.0284
71328SOL    HW223915   2.012   0.921   0.685 -2.8783 -0.6564  1.2818
71329SOL     OW23916   3.627   3.683   8.918  0.0658  0.1335  0.5791
71329SOL    HW123917   3.618   3.737   8.840 -1.2907  1.1643  1.4006
71329SOL    HW223918   3.692   3.729   8.971  0.7224 -0.3781  0.2409
71330SOL     OW23919   5.710   4.662   5.280 -0.7860 -0.2617 -0.3920
71330SOL    HW123920   5.681   4.571   5.286  0.8101 -1.0149 -2.6545
71330SOL    HW223921   5.805   4.656   5.268 -0.4885  1.7905  0.4921
71331SOL     OW23922   7.921  10.752   0.557  0.1795  0.4457 -0.1051
71331SOL    HW123923   7.885  10.734   0.643  0.0368  0.7144 -0.1067
71331SOL    HW223924   7.845  10.760   0.500  0.2997 -0.6420 -0.4455
71332SOL     OW23925  11.986   7.078  11.373  0.0995 -0.7755  0.0908
71332SOL    HW123926  11.945   7.109  11.293 -1.1515  1.1369  1.3931
71332SOL    HW223927  12.034   7.000  11.346 -0.9282 -0.6688 -2.3396
71333SOL     OW23928   5.348   2.169   2.060 -0.4021  0.3222 -0.1714
71333SOL    HW123929   5.313   2.236   2.119  1.7609  1.4569 -0.0612
71333SOL    HW223930   5.331   2.202   1.972  0.3140  0.8431 -0.1196
71334SOL     OW23931   3.943   7.138   2.189  0.5995 -0.0214 -0.3075
71334SOL    HW123932   3.957   7.228   2.160 -0.0042  0.6637  1.3690
71334SOL    HW223933   4.022   7.091   2.161  1.5357  1.3346 -0.0717
71335SOL     OW23934  12.795   1.809   0.574  0.4815 -0.2617  0.1378
71335SOL    HW123935  12.794   1.866   0.497 -0.7951 -1.5394 -0.8373
71335SOL    HW223936  12.854   1.738   0.550  1.4897  0.2414  1.0657
71336SOL     OW23937   4.803   8.370   9.809 -0.2229 -0.2218 -0.6537
71336SOL    HW123938   4.731   8.423   9.776 -0.5058 -0.9241 -1.1904
71336SOL    HW223939   4.871   8.377   9.742 -1.0491 -2.1846 -1.7619
71337SOL     OW23940   8.098   0.721  11.024 -0.1135  0.0399 -0.2926
71337SOL    HW123941   8.136   0.801  10.988 -0.4094  0.4517  0.2930
71337SOL    HW223942   8.033   0.751  11.087  0.0488 -0.6611  0.2278
71338SOL     OW23943  10.015   6.283   6.833  0.1583  0.2630 -0.1202
71338SOL    HW123944   9.961   6.244   6.764 -0.5412  1.6180 -0.3779
71338SOL    HW223945  10.050   6.208   6.882 -1.8595 -0.6595 -0.0159
71339SOL     OW23946   8.358   2.391   4.579 -0.1551 -0.2360 -0.0370
71339SOL    HW123947   8.335   2.354   4.493  0.0361 -0.8771  0.1772
71339SOL    HW223948   8.293   2.353   4.639  1.0433 -1.5752  0.4689
71340SOL     OW23949  11.309   8.294   6.980  0.2716 -0.5773  0.7535
71340SOL    HW123950  11.230   8.313   6.929  0.4526 -1.1429  0.2532
71340SOL    HW223951  11.304   8.200   6.998  1.8050 -1.0734 -1.0091
71341SOL     OW23952   0.377   0.308   2.208 -0.6299  0.2143 -0.3229
71341SOL    HW123953   0.444   0.377   2.201 -0.0168 -0.3309 -0.0117
71341SOL    HW223954   0.369   0.274   2.119  1.1850 -1.2297  0.0034
71342SOL     OW23955   6.244   1.094   0.264  0.3780  0.4360  0.6035
71342SOL    HW123956   6.216   1.039   0.337 -1.2472  1.4277  0.7738
71342SOL    HW223957   6.177   1.079   0.196  0.3371  1.5915  0.3692
71343SOL     OW23958   0.255  13.118  11.142  0.0851  0.1481  0.4201
71343SOL    HW123959   0.231  13.091  11.053  0.2135  0.2985  0.3374
71343SOL    HW223960   0.200  13.066  11.199  0.5515 -0.5231  0.2721
71344SOL     OW23961   1.765  11.313   8.457 -0.4294  0.3879 -0.0568
71344SOL    HW123962   1.675  11.346   8.451 -1.0507 -0.9661  1.1520
71344SOL    HW223963   1.809  11.349   8.380 -1.6103  2.2165  0.0617
71345SOL     OW23964   6.210   0.047   7.581 -0.2912 -0.9641 -0.0025
71345SOL    HW123965   6.115   0.058   7.574 -0.1293  0.7652  0.0385
71345SOL    HW223966   6.245   0.136   7.583  1.3783 -1.5570 -0.4441
71346SOL     OW23967   0.807   0.160   4.060 -0.0694 -0.1066 -0.3526
71346SOL    HW123968   0.864   0.108   4.117 -0.0510  1.6449  1.3580
71346SOL    HW223969   0.718   0.128   4.079  0.0332 -0.2977 -0.1882
71347SOL     OW23970   6.561   7.825  13.289 -0.2603  0.9062 -0.1314
71347SOL    HW123971   6.516   7.875  13.357 -0.2738 -0.0075  0.5477
71347SOL    HW223972   6.527   7.862  13.207  1.1059  3.2643  0.2680
71348SOL     OW23973   2.264   7.294   8.240  0.0294 -0.2368  0.1283
71348SOL    HW123974   2.356   7.281   8.218  0.2000  2.1179 -0.9091
71348SOL    HW223975   2.264   7.309   8.335  0.7298 -0.1600  0.1177
71349SOL     OW23976   3.601   6.376   6.641 -0.3029  0.1027 -0.3259
71349SOL    HW123977   3.648   6.428   6.707 -0.7636 -1.0029  0.9099
71349SOL    HW223978   3.526   6.431   6.616  0.3790  0.9162 -0.6347
71350SOL     OW23979   3.983   3.015   4.642  0.1873 -0.1076  0.2550
71350SOL    HW123980   4.038   2.977   4.710 -0.5758 -0.1751  0.8460
71350SOL    HW223981   4.033   3.002   4.561  1.3537  0.4747  0.8569
71351SOL     OW23982   3.132  13.054   3.789 -0.0951  0.1279  0.1389
71351SOL    HW123983   3.125  13.057   3.884  2.0855  1.7956  0.3188
71351SOL    HW223984   3.073  13.122   3.757  1.0810  1.3322  0.4799
71352SOL     OW23985   9.326   7.706   2.795  0.1118  0.2761 -0.3506
71352SOL    HW123986   9.355   7.761   2.722  2.5134 -0.3719  0.0223
71352SOL    HW223987   9.374   7.624   2.783 -0.8320 -0.5045  0.9758
71353SOL     OW23988  12.682   4.778   1.060 -0.0075  0.3246 -0.3497
71353SOL    HW123989  12.726   4.861   1.043  0.3746 -0.1216 -1.6320
71353SOL    HW223990  12.588   4.799   1.056  0.0860  0.7227 -0.4675
71354SOL     OW23991   4.863   9.289   2.677  0.3204  0.2918  0.0630
71354SOL    HW123992   4.793   9.225   2.689  0.6706 -0.5386 -1.8759
71354SOL    HW223993   4.836   9.339   2.600  0.5524  1.8290  0.9440
71355SOL     OW23994   1.699   9.763   7.976 -0.2216  0.1325 -0.0531
71355SOL    HW123995   1.621   9.736   8.023 -0.4296 -1.6895 -1.3268
71355SOL    HW223996   1.698   9.859   7.980 -2.8290  0.2068 -0.4959
71356SOL     OW23997   5.594   1.769   4.967  0.2727  0.2605 -0.0820
71356SOL    HW123998   5.508   1.790   5.003 -0.2189  0.3057 -1.2390
71356SOL    HW223999   5.601   1.674   4.977 -0.0648  0.2102 -0.3146
71357SOL     OW24000   3.398  10.028  12.760 -0.2562  0.0725  0.1514
71357SOL    HW124001   3.331   9.963  12.735 -1.3273  0.7302  1.2083
71357SOL    HW224002   3.384  10.101  12.700 -0.6130  0.2835  0.4888
71358SOL     OW24003  11.692   5.341   6.625  0.0936 -0.0410 -0.5981
71358SOL    HW124004  11.648   5.266   6.586 -0.1587  0.2996 -0.9905
71358SOL    HW224005  11.757   5.367   6.559 -0.2358  0.4518 -0.7375
71359SOL     OW24006   8.114  10.623   5.755 -0.2126 -0.4844  0.4109
71359SOL    HW124007   8.087  10.662   5.672 -1.1168 -2.0277 -0.0776
71359SOL    HW224008   8.034  10.621   5.807 -0.1632 -1.4801  0.4762
71360SOL     OW24009  13.294   2.805   8.393 -0.1689 -0.2097 -0.6347
71360SOL    HW124010  13.225   2.813   8.327 -0.4089 -0.9980 -0.4852
71360SOL    HW224011  13.355   2.741   8.355 -0.0841 -0.3374 -0.2814
71361SOL     OW24012   8.688   5.222   5.292  0.1202 -0.4809 -0.0452
71361SOL    HW124013   8.594   5.220   5.306  0.2592  2.7607  2.6412
71361SOL    HW224014   8.698   5.256   5.203 -1.3266  1.0623  0.3271
71362SOL     OW24015   1.952  10.933   6.847  0.2170  0.4287  0.2671
71362SOL    HW124016   1.888  10.946   6.918  0.8941 -0.3734  1.0459
71362SOL    HW224017   1.915  10.862   6.794 -0.9088  1.8594 -0.9532
71363SOL     OW24018   8.911   1.202  11.639  0.2698 -0.3221  0.2117
71363SOL    HW124019   8.976   1.210  11.708  1.8606  0.6556 -1.3291
71363SOL    HW224020   8.849   1.137  11.672  0.9466  0.1262  2.5435
71364SOL     OW24021   2.171   2.167   2.458 -0.4598  0.3661 -0.1338
71364SOL    HW124022   2.186   2.158   2.552 -1.6486  0.2879  0.0670
71364SOL    HW224023   2.258   2.161   2.419 -0.1494 -2.0142  0.7729
71365SOL     OW24024   6.642   7.555   0.045  0.2263 -0.2592  0.1528
71365SOL    HW124025   6.704   7.581   0.114 -1.1192  0.4600  1.1401
71365SOL    HW224026   6.614   7.638   0.007 -0.7725 -0.5111  0.3123
71366SOL     OW24027  11.734   4.743   4.719  0.8393  0.2964 -0.2423
71366SOL    HW124028  11.756   4.780   4.634  1.5625 -1.0995 -0.6909
71366SOL    HW224029  11.801   4.676   4.734 -2.0040 -3.0017 -0.8723
71367SOL     OW24030   7.277   4.619   1.629 -0.0357  0.3304 -0.3618
71367SOL    HW124031   7.241   4.646   1.545 -0.1953  1.2701  0.0055
71367SOL    HW224032   7.257   4.525   1.634 -3.4693  0.9725  0.3262
71368SOL     OW24033   7.355   7.992   2.489 -0.0447 -0.2040 -0.1691
71368SOL    HW124034   7.431   7.941   2.461  0.9043  0.0957  1.6658
71368SOL    HW224035   7.280   7.933   2.476  0.8661 -1.6131  0.6758
71369SOL     OW24036   9.518  12.120   9.507 -0.8688 -0.3548  0.5203
71369SOL    HW124037   9.438  12.154   9.547 -1.9027  1.0068 -2.3597
71369SOL    HW224038   9.509  12.025   9.511 -1.9031 -0.2312  1.5597
71370SOL     OW24039   7.776   8.943   2.071  0.2521  0.1122 -0.3050
71370SOL    HW124040   7.839   8.950   2.142  0.2991 -1.4876 -0.1532
71370SOL    HW224041   7.691   8.956   2.113  0.3314 -0.0823 -0.0858
71371SOL     OW24042   0.869   0.169   2.210 -0.4138 -0.0915 -0.1324
71371SOL    HW124043   0.777   0.170   2.235 -0.6454 -0.9984 -0.9144
71371SOL    HW224044   0.885   0.257   2.174 -1.3562 -0.3612 -1.2842
71372SOL     OW24045   8.865   8.508   8.146 -0.3580  0.1908 -0.0386
71372SOL    HW124046   8.848   8.597   8.114 -1.2754 -0.3889 -1.2296
71372SOL    HW224047   8.931   8.473   8.087 -0.1670 -0.0044  0.2882
71373SOL     OW24048   7.226   6.799   6.616  0.5894 -0.2697  0.0969
71373SOL    HW124049   7.224   6.882   6.569 -1.9066  0.8366  1.9321
71373SOL    HW224050   7.141   6.759   6.598 -0.1474 -0.1667  2.8954
71374SOL     OW24051  10.037   7.074   3.768  0.1305  0.1017 -0.0045
71374SOL    HW124052  10.009   7.025   3.691  2.7685  0.8785 -1.6049
71374SOL    HW224053  10.099   7.016   3.812 -0.0023  0.3485  0.5181
71375SOL     OW24054  12.566   1.552   2.973 -0.1055  0.4314  0.4718
71375SOL    HW124055  12.472   1.538   2.965  0.1131  0.0664 -3.7432
71375SOL    HW224056  12.586   1.621   2.909  2.8445 -2.0094 -1.5471
71376SOL     OW24057  10.552   8.804   2.510 -0.3294  0.1374 -0.1390
71376SOL    HW124058  10.515   8.775   2.426 -0.7756 -1.9078  0.7030
71376SOL    HW224059  10.517   8.892   2.522 -1.1896  0.0277 -1.5503
71377SOL     OW24060  12.752  12.036   1.879  0.4384  0.5239 -0.4529
71377SOL    HW124061  12.843  12.067   1.875  0.2260  1.2504  0.1870
71377SOL    HW224062  12.758  11.943   1.855  1.0854  1.0090 -2.3848
71378SOL     OW24063  12.254   4.602   3.841  0.0645  0.7206  0.3612
71378SOL    HW124064  12.183   4.654   3.803  0.7167  1.6067  0.3415
71378SOL    HW224065  12.214   4.559   3.917 -0.9450 -0.1635 -0.6323
71379SOL     OW24066   2.661  11.467   3.219 -0.2773  0.2397 -0.0680
71379SOL    HW124067   2.664  11.436   3.310 -0.2696 -1.1165 -0.5026
71379SOL    HW224068   2.572  11.446   3.190 -0.1833  0.3851 -0.4611
71380SOL     OW24069   7.081   9.165  10.755 -0.6402 -0.6574 -0.1314
71380SOL    HW124070   7.125   9.109  10.691 -1.1620  0.1507 -1.2475
71380SOL    HW224071   7.014   9.211  10.704 -0.7930  0.3347  0.9129
71381SOL     OW24072   0.950   3.769  11.792  0.0518  0.0607 -0.2709
71381SOL    HW124073   0.968   3.695  11.733  0.4720  0.1051 -0.2050
71381SOL    HW224074   0.989   3.845  11.748 -1.1494  0.4085 -0.7644
71382SOL     OW24075  11.112   5.018   5.267 -0.0665  0.2883 -0.1647
71382SOL    HW124076  11.100   5.006   5.173 -1.9596 -1.0372  0.1843
71382SOL    HW224077  11.158   4.939   5.296 -0.6277  0.0763  0.1799
71383SOL     OW24078   6.674   6.668   0.265 -0.1678  0.0257 -0.7480
71383SOL    HW124079   6.582   6.693   0.273 -0.5177 -1.7401  2.2035
71383SOL    HW224080   6.674   6.594   0.204 -1.2116 -1.6729  1.1669
71384SOL     OW24081   2.950   0.489   1.207 -0.3181  0.0323 -0.6114
71384SOL    HW124082   3.038   0.463   1.232 -1.1539 -1.2467  1.2419
71384SOL    HW224083   2.948   0.583   1.222  0.3718 -0.1210  0.5849
71385SOL     OW24084   3.016   7.781   5.384 -0.8018  0.1742 -0.1979
71385SOL    HW124085   3.056   7.697   5.405 -1.0593 -0.5821 -2.4497
71385SOL    HW224086   3.085   7.845   5.398 -0.2896 -0.5330  0.5744
71386SOL     OW24087  12.571   4.653  12.710  0.2487  0.1140 -0.2246
71386SOL    HW124088  12.574   4.578  12.650 -0.3461  0.8941 -1.2624
71386SOL    HW224089  12.576   4.614  12.797 -1.6401 -1.2550 -0.6652
71387SOL     OW24090   0.238   5.772   6.487 -0.5389  0.3664 -0.3177
71387SOL    HW124091   0.151   5.733   6.499 -0.8902  0.9211 -1.0255
71387SOL    HW224092   0.236   5.852   6.539 -0.8872  1.0230 -1.3379
71388SOL     OW24093   7.019   0.497   7.847 -0.0572 -0.0033 -0.0128
71388SOL    HW124094   7.100   0.505   7.798 -0.8735  1.0995 -1.2288
71388SOL    HW224095   6.979   0.416   7.814  0.8737 -0.9790  1.1495
71389SOL     OW24096  12.004   4.971   2.452  0.2823 -0.0835  0.1654
71389SOL    HW124097  12.092   4.933   2.452  0.2552 -0.1535 -0.2961
71389SOL    HW224098  11.978   4.970   2.360  0.6212  1.8320  0.0142
71390SOL     OW24099   4.184   1.891   0.963  0.1849  0.0658  0.0188
71390SOL    HW124100   4.090   1.885   0.944  0.2596 -1.5608  0.0152
71390SOL    HW224101   4.204   1.810   1.010  1.4000  0.8648  0.9390
71391SOL     OW24102   2.571   9.998   0.118  0.0402 -0.2077 -0.2746
71391SOL    HW124103   2.508   9.989   0.047  0.1775 -0.9121 -0.3159
71391SOL    HW224104   2.566   9.914   0.165  2.1046 -0.9589 -1.2605
71392SOL     OW24105  10.684   8.674   8.621 -0.3569 -0.4355 -0.0859
71392SOL    HW124106  10.668   8.651   8.529 -1.0386  0.8934 -0.3204
71392SOL    HW224107  10.605   8.648   8.667  0.3421 -1.9616  0.3231
71393SOL     OW24108  10.435   0.554   9.640 -0.4001 -0.1759  0.2804
71393SOL    HW124109  10.382   0.567   9.718 -1.7200 -0.3916 -0.5371
71393SOL    HW224110  10.515   0.603   9.656 -0.6267 -0.2614  1.7723
71394SOL     OW24111   8.471   0.082  12.210  0.5620  0.5493 -0.1574
71394SOL    HW124112   8.540   0.092  12.275 -0.8970 -0.2786  1.6155
71394SOL    HW224113   8.441  -0.008  12.221 -2.3206  1.5318  0.7568
71395SOL     OW24114   4.298   8.725   4.166 -0.2089 -0.2957 -0.4670
71395SOL    HW124115   4.297   8.702   4.073 -0.2433 -0.1903 -0.4927
71395SOL    HW224116   4.236   8.663   4.206 -1.8087  1.0053 -0.8363
71396SOL     OW24117   3.020   3.952   8.402 -0.0242 -0.7509  0.0062
71396SOL    HW124118   3.002   4.042   8.376 -0.0715 -0.2862  1.5705
71396SOL    HW224119   2.954   3.900   8.357  0.5866 -0.1540 -1.6894
71397SOL     OW24120   4.900   5.114   2.990 -0.4351  0.0918  0.4583
71397SOL    HW124121   4.882   5.142   2.900 -3.0064 -1.5637  0.3219
71397SOL    HW224122   4.948   5.032   2.981 -0.3230  0.1444  0.5830
71398SOL     OW24123   7.678   1.864  10.232 -0.6376 -0.0376 -0.3010
71398SOL    HW124124   7.691   1.771  10.214 -1.6874  0.0027 -1.3764
71398SOL    HW224125   7.638   1.865  10.319  0.4236 -0.5047  0.2144
71399SOL     OW24126   1.100   2.794  12.758 -0.1931  0.2112 -0.4829
71399SOL    HW124127   1.073   2.729  12.823  0.2721 -0.8225 -1.2917
71399SOL    HW224128   1.129   2.742  12.683  0.2064  1.3619 -1.1496
71400SOL     OW24129   3.643   5.369  10.752 -0.3442  0.0612  0.4168
71400SOL    HW124130   3.550   5.358  10.732  0.0293  0.8543 -2.1427
71400SOL    HW224131   3.645   5.441  10.816 -1.4093  1.6200 -1.2110
71401SOL     OW24132   9.191   4.583   0.495  0.3410 -0.3225  0.1878
71401SOL    HW124133   9.103   4.547   0.507  1.1158 -1.6969  2.5087
71401SOL    HW224134   9.228   4.534   0.422  0.0576 -1.5865  0.8725
71402SOL     OW24135  11.064   7.532   1.135  0.3198  0.6641  0.2657
71402SOL    HW124136  11.098   7.619   1.114 -0.0258  0.7553  0.0900
71402SOL    HW224137  10.970   7.537   1.118  0.2685  0.3076  0.4191
71403SOL     OW24138  11.803   6.147   4.146  0.0204 -0.4444 -0.0932
71403SOL    HW124139  11.884   6.103   4.119  0.5111 -0.5888  1.5113
71403SOL    HW224140  11.765   6.179   4.065  2.8434  1.6468 -0.7338
71404SOL     OW24141   9.561   9.344   8.834  0.0773  0.2622  0.0258
71404SOL    HW124142   9.566   9.284   8.908  1.8504 -0.0894 -0.3137
71404SOL    HW224143   9.546   9.287   8.758 -1.6840  0.6137  0.0641
71405SOL     OW24144   3.141  12.513  13.209  0.0605 -0.2277  0.2525
71405SOL    HW124145   3.113  12.574  13.277  0.8038 -1.4731  1.7522
71405SOL    HW224146   3.226  12.546  13.181 -0.3162  0.3746 -0.1955
71406SOL     OW24147   7.535   7.397   9.374 -0.5953 -0.1268 -0.1070
71406SOL    HW124148   7.527   7.324   9.435  1.0121  0.3390  0.7256
71406SOL    HW224149   7.538   7.356   9.288 -1.6618 -0.8895  0.2036
71407SOL     OW24150  12.625  10.870   1.108  0.1266  0.2948 -0.0210
71407SOL    HW124151  12.551  10.860   1.048 -0.4896  1.9575  0.4004
71407SOL    HW224152  12.692  10.812   1.073  0.1226  1.8408 -2.8737
71408SOL     OW24153   2.736   6.507  10.205 -0.4527  0.1916 -0.3107
71408SOL    HW124154   2.688   6.548  10.276 -0.2299  1.3053 -0.7773
71408SOL    HW224155   2.687   6.529  10.126 -0.9342 -1.3889 -0.4911
71409SOL     OW24156  13.047   5.261   2.903 -0.0789  0.4309  0.5332
71409SOL    HW124157  13.034   5.329   2.838 -1.8225  1.2024  1.6113
71409SOL    HW224158  12.963   5.216   2.909  0.0878  0.2508  2.0974
71410SOL     OW24159   3.122  10.706   1.151 -0.1022  0.4427  0.2108
71410SOL    HW124160   3.077  10.718   1.067  0.9664 -0.3046 -0.4890
71410SOL    HW224161   3.206  10.750   1.140  0.4536 -0.5199  0.5196
71411SOL     OW24162  11.554   3.486  10.944  1.0698  0.3385  0.2569
71411SOL    HW124163  11.611   3.559  10.970  1.2920  0.3902 -0.3691
71411SOL    HW224164  11.580   3.414  11.001  0.5935  0.8459  1.1469
71412SOL     OW24165   7.636   7.405   0.045  0.1198  0.7526 -0.5738
71412SOL    HW124166   7.688   7.327   0.025  1.1331  1.1977  0.2368
71412SOL    HW224167   7.693   7.458   0.100 -1.0512  1.4578 -0.0047
71413SOL     OW24168  12.740   8.069   9.639 -0.1824  0.0941 -0.2099
71413SOL    HW124169  12.822   8.086   9.686 -0.6901  0.3147  0.6189
71413SOL    HW224170  12.765   8.064   9.547  0.7524  0.2068  0.0326
71414SOL     OW24171   0.791  13.008   7.591 -0.0736 -0.2398  0.1404
71414SOL    HW124172   0.712  13.032   7.543  0.5540  1.2440 -0.1886
71414SOL    HW224173   0.856  12.988   7.523  0.4832  0.7562  0.3606
71415SOL     OW24174  12.993   9.928   3.563  0.0891  0.0120  0.1191
71415SOL    HW124175  12.964   9.839   3.579  1.4723 -0.2369  1.4379
71415SOL    HW224176  13.065   9.942   3.625  0.7618  1.6001 -0.9460
71416SOL     OW24177   8.364  11.924   2.082  0.0093  0.3407  0.3634
71416SOL    HW124178   8.376  12.005   2.032 -1.6023  1.1268  1.1639
71416SOL    HW224179   8.356  11.856   2.016 -0.1068  1.0653 -0.3846
71417SOL     OW24180   4.723   5.054   2.036 -0.0923  0.1851 -0.2596
71417SOL    HW124181   4.755   4.965   2.018 -1.4528 -0.1811 -0.9721
71417SOL    HW224182   4.636   5.041   2.074  0.8446  1.1336  2.4226
71418SOL     OW24183  10.450   0.918  11.427  0.4136  0.0320  0.3491
71418SOL    HW124184  10.393   0.911  11.503  1.9898  1.9520  1.8409
71418SOL    HW224185  10.427   1.002  11.387  1.0942  0.0899  0.0538
71419SOL     OW24186   8.651   7.323  12.561 -0.0485  0.5627  1.2088
71419SOL    HW124187   8.584   7.301  12.497  0.7944  0.4355  0.3648
71419SOL    HW224188   8.720   7.364  12.511  1.5655 -1.4211  1.6915
71420SOL     OW24189  13.303  10.046  11.250 -0.2250 -0.5773 -0.2374
71420SOL    HW124190  13.215  10.025  11.221 -0.3352 -1.4934  0.7065
71420SOL    HW224191  13.324  10.128  11.205 -1.5658 -0.3159 -0.4262
71421SOL     OW24192   7.982  12.273   1.785  0.1338 -0.4161  0.7484
71421SOL    HW124193   7.887  12.272   1.795  0.0857 -0.2343  0.3052
71421SOL    HW224194   8.014  12.220   1.858 -0.3076 -0.4945  0.8867
71422SOL     OW24195  11.907   6.562  13.206  0.5498  0.8185  0.9261
71422SOL    HW124196  11.988   6.601  13.238 -0.1245  1.8348  1.4234
71422SOL    HW224197  11.872   6.626  13.144  1.9650 -1.1959 -2.1964
71423SOL     OW24198   5.004   3.212   0.566 -0.3999  0.0620 -0.1766
71423SOL    HW124199   5.052   3.133   0.588  0.2508  0.5328  0.1191
71423SOL    HW224200   4.944   3.225   0.640  1.5959  1.4946  1.2960
71424SOL     OW24201  11.714   8.152   4.223  0.0207 -0.0435 -0.3211
71424SOL    HW124202  11.659   8.145   4.301  0.9166 -0.4228  0.2961
71424SOL    HW224203  11.783   8.087   4.236 -1.1995 -1.9420 -2.6296
71425SOL     OW24204  12.284   2.918  11.040  0.6412  0.0182 -0.5705
71425SOL    HW124205  12.251   3.006  11.024  3.5145  1.3375  0.0308
71425SOL    HW224206  12.287   2.910  11.135 -0.7538 -1.2615 -0.6013
71426SOL     OW24207  12.631   3.958  10.273  0.0744  0.3470 -0.3219
71426SOL    HW124208  12.625   3.897  10.199 -0.8063  0.9109 -0.7323
71426SOL    HW224209  12.637   4.044  10.232 -0.5769  0.6800  0.2710
71427SOL     OW24210   8.084  11.169  12.585  0.2796 -0.2526 -0.3567
71427SOL    HW124211   8.094  11.092  12.528 -0.7546 -0.1199 -0.7432
71427SOL    HW224212   8.171  11.208  12.588 -0.0125  0.9071 -3.5669
71428SOL     OW24213  12.994   4.614  12.455 -0.0313  0.0453  0.0259
71428SOL    HW124214  12.948   4.696  12.474  0.4637  0.2193  0.4836
71428SOL    HW224215  12.958   4.586  12.370 -1.2472 -0.0184  0.5473
71429SOL     OW24216   3.492  12.684  10.588  0.0395 -0.7402  0.0050
71429SOL    HW124217   3.419  12.656  10.532 -0.3286 -0.4978  0.3512
71429SOL    HW224218   3.557  12.719  10.527  0.4098 -2.1003 -0.4159
71430SOL     OW24219  11.484  12.040   4.806  0.0270  0.1362  0.0223
71430SOL    HW124220  11.430  12.053   4.885 -0.7402 -1.9803 -0.0864
71430SOL    HW224221  11.421  12.020   4.737  0.8592 -3.0356  0.0223
71431SOL     OW24222   6.659   6.268  11.374 -0.0945 -0.0613 -0.2543
71431SOL    HW124223   6.668   6.334  11.443 -0.2047  0.0802 -0.3729
71431SOL    HW224224   6.744   6.269  11.329  0.0493 -0.3041  0.0113
71432SOL     OW24225   6.541   5.628  12.821 -1.0142  0.5025 -0.6689
71432SOL    HW124226   6.581   5.700  12.869  1.2976 -2.2648  1.9526
71432SOL    HW224227   6.461   5.607  12.870 -0.2928 -0.3529  0.1596
71433SOL     OW24228  11.166   5.182   1.334 -0.0891 -0.1872  0.0463
71433SOL    HW124229  11.246   5.195   1.385 -0.0729  3.3559 -0.6220
71433SOL    HW224230  11.196   5.168   1.245 -0.1929 -0.2079  0.0141
71434SOL     OW24231   7.284   1.916   2.116 -0.2370 -0.5302 -0.0513
71434SOL    HW124232   7.368   1.923   2.162 -0.3418 -0.2591  0.1010
71434SOL    HW224233   7.267   2.004   2.084 -0.7079 -0.4713  0.3508
71435SOL     OW24234  10.367   1.763  12.393 -0.5608 -0.2639 -0.2648
71435SOL    HW124235  10.357   1.692  12.330 -1.4292  0.6805 -1.2547
71435SOL    HW224236  10.450   1.745  12.437  0.1679 -0.8895 -1.8034
71436SOL     OW24237   1.526   7.442   1.219 -0.6643  0.3911  0.1297
71436SOL    HW124238   1.566   7.480   1.141  1.8292 -0.7891  0.7210
71436SOL    HW224239   1.552   7.501   1.290  0.4824 -0.6068  0.5789
71437SOL     OW24240   1.511  10.114  10.204 -0.2299  0.1286 -0.0347
71437SOL    HW124241   1.496  10.023  10.229 -1.0187 -0.8935 -3.6169
71437SOL    HW224242   1.588  10.111  10.147 -0.0146  1.8071  0.1164
71438SOL     OW24243  12.072   3.124   7.706  0.2672  0.4956  0.6072
71438SOL    HW124244  12.085   3.036   7.670  2.0979  0.9820 -0.0431
71438SOL    HW224245  12.113   3.182   7.641  0.8573  1.6529  1.9696
71439SOL     OW24246  13.178   5.389   1.445  0.0400 -0.0761 -0.0537
71439SOL    HW124247  13.241   5.340   1.393 -0.5515 -1.2215  0.2709
71439SOL    HW224248  13.231   5.445   1.502  0.7068  0.5886 -1.2776
71440SOL     OW24249   6.992   7.939  13.099 -0.0587 -0.1620  0.2496
71440SOL    HW124250   6.945   7.946  13.016 -0.2474 -0.4561  0.3300
71440SOL    HW224251   6.923   7.932  13.165  0.0853  0.5097  0.4776
71441SOL     OW24252   0.784   1.952   9.924 -0.0504 -0.2129 -0.4532
71441SOL    HW124253   0.873   1.929   9.953  2.1985  1.5480 -4.9055
71441SOL    HW224254   0.786   2.048   9.915 -1.7836 -0.2766 -2.1776
71442SOL     OW24255   8.308  10.038  11.671  0.4437 -0.2289  0.1860
71442SOL    HW124256   8.222  10.002  11.697  0.2810  0.9290  1.3346
71442SOL    HW224257   8.289  10.094  11.597  0.3702 -0.7665 -0.2087
71443SOL     OW24258   5.199  11.141   4.028 -0.0246  0.1815  0.2642
71443SOL    HW124259   5.292  11.124   4.013 -0.2790 -0.9883 -0.0490
71443SOL    HW224260   5.198  11.216   4.088  1.0971  0.9176 -0.5899
71444SOL     OW24261   6.606   7.089  13.033 -0.4040  0.6376  0.2127
71444SOL    HW124262   6.635   7.178  13.011 -0.6619  0.6890  0.0701
71444SOL    HW224263   6.681   7.033  13.014 -0.3078  0.8018  0.1125
71445SOL     OW24264   2.705  10.241  11.561  0.1305 -0.7811  0.0882
71445SOL    HW124265   2.644  10.237  11.635  1.8032 -0.1098  1.5655
71445SOL    HW224266   2.651  10.270  11.487 -1.0199  1.5828  1.7376
71446SOL     OW24267  12.535  12.200   9.651 -0.1387 -0.2264 -0.1783
71446SOL    HW124268  12.464  12.170   9.709 -0.2181 -0.5384 -0.4347
71446SOL    HW224269  12.565  12.121   9.607  0.2406 -0.0642 -0.2159
71447SOL     OW24270   5.776   2.459   5.562  0.3752 -0.0012  0.2976
71447SOL    HW124271   5.833   2.407   5.506  2.0500  0.4440  1.5044
71447SOL    HW224272   5.824   2.540   5.577  0.0685 -0.1468  2.4477
71448SOL     OW24273   3.868   9.819   3.150  0.1415 -1.0222  0.1031
71448SOL    HW124274   3.777   9.837   3.130  0.8975  2.3078 -0.9990
71448SOL    HW224275   3.901   9.774   3.072 -0.3923 -1.7471  0.2842
71449SOL     OW24276   6.469   8.351   0.953 -0.0547 -0.1719  0.4262
71449SOL    HW124277   6.391   8.296   0.945 -0.0939 -0.0531 -0.0707
71449SOL    HW224278   6.454   8.405   1.031  0.6892 -1.9735  1.8875
71450SOL     OW24279   8.577   7.198   4.612 -0.0846 -0.1364  0.3451
71450SOL    HW124280   8.531   7.183   4.530  1.1275  0.8208 -0.5590
71450SOL    HW224281   8.562   7.119   4.664 -1.0135 -0.6831 -0.7224
71451SOL     OW24282  10.004   6.488   5.498 -0.2675 -0.1607  0.3464
71451SOL    HW124283  10.077   6.449   5.546 -0.5497 -1.2279 -0.0771
71451SOL    HW224284  10.046   6.533   5.424 -0.0947 -1.7955 -0.5945
71452SOL     OW24285   0.167   0.187   7.848  0.0256  0.1050  0.0527
71452SOL    HW124286   0.236   0.153   7.791 -0.3689  0.2882 -0.5385
71452SOL    HW224287   0.086   0.171   7.800 -0.3776 -0.4245  0.9033
71453SOL     OW24288   9.487  10.313   9.829  0.7926 -0.0651  1.1887
71453SOL    HW124289   9.411  10.359   9.792  1.9715  1.8195  0.9931
71453SOL    HW224290   9.536  10.283   9.753 -0.0097 -1.8317  1.3132
71454SOL     OW24291   6.930   3.516  11.902  0.6459 -0.4100  0.1668
71454SOL    HW124292   6.933   3.604  11.864 -1.4581 -0.6380 -0.7020
71454SOL    HW224293   7.021   3.493  11.918  1.3416  1.3389 -0.9734
71455SOL     OW24294  12.776  10.931   5.974 -0.1742 -0.0441 -0.2019
71455SOL    HW124295  12.681  10.922   5.977 -0.0755 -1.3382 -0.2700
71455SOL    HW224296  12.796  10.943   5.882 -0.1338 -2.1872 -0.5387
71456SOL     OW24297   8.260   8.618   9.939 -0.2658 -0.2372 -0.2750
71456SOL    HW124298   8.272   8.709   9.967 -0.7002 -0.1447 -0.3702
71456SOL    HW224299   8.320   8.608   9.865 -0.8288  0.2471 -0.8250
71457SOL     OW24300   9.781   7.049   9.867 -0.1056 -0.5758  0.5475
71457SOL    HW124301   9.834   7.079   9.940 -0.7910 -0.0259  0.8292
71457SOL    HW224302   9.691   7.062   9.896 -0.3868 -0.5694 -0.3008
71458SOL     OW24303   9.683   0.451   3.444 -0.7145 -0.6766  0.3768
71458SOL    HW124304   9.766   0.497   3.446 -1.5927  0.9995  0.0298
71458SOL    HW224305   9.707   0.358   3.443  1.2047 -0.2511 -1.6145
71459SOL     OW24306   8.943   1.459   2.275  0.2523  0.0428 -0.0474
71459SOL    HW124307   8.870   1.495   2.325 -0.0238 -0.0613 -0.3720
71459SOL    HW224308   8.950   1.369   2.305  0.8428  0.3132  0.6516
71460SOL     OW24309   0.021   0.963   3.374 -0.0917 -0.3015  0.7809
71460SOL    HW124310   0.007   0.869   3.371 -0.4815 -0.2439  0.6609
71460SOL    HW224311   0.105   0.974   3.417 -0.2154 -0.6900  1.1249
71461SOL     OW24312   2.508   9.086   4.736  0.1622  0.5379 -0.7175
71461SOL    HW124313   2.589   9.102   4.687 -0.4525  0.4742 -1.7698
71461SOL    HW224314   2.526   9.007   4.787  0.0499 -0.7553 -2.5934
71462SOL     OW24315   1.045   1.721  10.953  0.1015  0.2200 -0.1108
71462SOL    HW124316   1.036   1.634  10.915  0.9005 -0.2839  0.8150
71462SOL    HW224317   1.011   1.712  11.042  2.0834  0.3144  0.6980
71463SOL     OW24318   5.360   5.971   3.339  0.6531 -0.0752  0.0536
71463SOL    HW124319   5.390   5.970   3.248  0.6670  3.3606 -0.1240
71463SOL    HW224320   5.268   5.944   3.335  0.6989 -0.1140 -0.9746
71464SOL     OW24321   1.935   3.846   0.025  0.5500 -0.1591  0.1497
71464SOL    HW124322   1.984   3.875   0.102 -0.9257  1.5651  0.5253
71464SOL    HW224323   1.963   3.905  -0.045 -0.3553  0.2923  0.1598
71465SOL     OW24324   9.409   0.118   5.057 -0.1155 -0.0355 -0.0006
71465SOL    HW124325   9.389   0.210   5.075 -1.7231 -0.5095  0.8453
71465SOL    HW224326   9.426   0.115   4.963 -2.6038  0.7563 -0.5581
71466SOL     OW24327   8.975   1.148   0.057 -0.5696 -0.2342  0.0038
71466SOL    HW124328   8.975   1.243   0.073  0.7262  0.1428 -1.8474
71466SOL    HW224329   8.882   1.125   0.056 -0.9245  1.0551  0.3009
71467SOL     OW24330   3.326   3.643   4.793 -0.0985 -0.5558  0.0090
71467SOL    HW124331   3.379   3.722   4.799 -0.2354 -0.4367 -0.3351
71467SOL    HW224332   3.324   3.609   4.883 -0.4467  0.0989  0.2563
71468SOL     OW24333   6.973  11.505   7.653  0.4005  0.2406 -0.3022
71468SOL    HW124334   6.957  11.595   7.624  0.8493  0.4529  0.1110
71468SOL    HW224335   6.964  11.453   7.573 -0.9006  0.5158 -0.3599
71469SOL     OW24336   0.433  12.206   6.648  0.5557 -0.4265 -0.2705
71469SOL    HW124337   0.512  12.153   6.662 -0.6357 -2.1172  0.3550
71469SOL    HW224338   0.372  12.147   6.604 -0.7152  0.5356  0.1579
71470SOL     OW24339   4.268  10.164   7.057  0.4194 -0.3689 -0.0732
71470SOL    HW124340   4.336  10.188   7.120  0.1561  0.5934 -0.1426
71470SOL    HW224341   4.306  10.186   6.972 -0.3659  1.2049 -0.0519
71471SOL     OW24342   0.395  11.389  10.675 -0.1170 -0.1801 -0.0434
71471SOL    HW124343   0.435  11.456  10.729 -0.1761 -1.1471  1.2566
71471SOL    HW224344   0.301  11.399  10.689 -0.2123  0.3389 -0.9490
71472SOL     OW24345   8.241  11.901   8.145  0.2984 -0.3106  0.9871
71472SOL    HW124346   8.226  11.843   8.220  1.5076 -1.6440  0.2619
71472SOL    HW224347   8.228  11.844   8.069 -0.0101  0.7914  0.1981
71473SOL     OW24348   1.853   9.241   9.801 -0.6624 -0.2731  0.1037
71473SOL    HW124349   1.853   9.322   9.751  1.9721 -0.0223  0.3414
71473SOL    HW224350   1.811   9.263   9.884 -2.4688  0.0616 -0.8646
71474SOL     OW24351   2.801  10.848   2.345 -0.5171  0.1585 -0.2897
71474SOL    HW124352   2.841  10.859   2.259  0.4839 -0.5295  0.0619
71474SOL    HW224353   2.765  10.934   2.367 -0.5961  0.3872 -1.2972
71475SOL     OW24354   9.627   9.060   8.394 -0.2813 -0.6073  0.4844
71475SOL    HW124355   9.639   9.073   8.300 -0.6749  0.3894  0.5622
71475SOL    HW224356   9.581   8.976   8.400 -3.9776  1.1418 -0.5186
71476SOL     OW24357   1.623  10.615   5.912  0.5041  0.2841  0.2479
71476SOL    HW124358   1.553  10.680   5.911 -1.2770 -1.4887  0.8288
71476SOL    HW224359   1.580  10.535   5.880  1.6840 -1.3979  2.5743
71477SOL     OW24360  13.074   6.243   9.606  0.3773 -0.0351  0.1896
71477SOL    HW124361  13.152   6.296   9.619 -0.4257  1.9078 -2.1632
71477SOL    HW224362  13.101   6.174   9.545  0.5005  0.0550  0.1428
71478SOL     OW24363   9.516   4.008   6.050 -0.1576  0.0574  0.1764
71478SOL    HW124364   9.504   4.063   5.973  0.2589 -1.6983 -1.2075
71478SOL    HW224365   9.429   3.975   6.070 -0.2895  0.6220  0.5804
71479SOL     OW24366   3.652   3.490   0.186 -0.0554  1.1215 -0.1599
71479SOL    HW124367   3.735   3.512   0.143  0.4181 -1.2644 -0.6191
71479SOL    HW224368   3.603   3.441   0.120 -0.8056  0.4502  0.8663
71480SOL     OW24369   9.993   6.362   3.146  0.0579 -0.0952  0.7252
71480SOL    HW124370   9.905   6.397   3.156  0.0362  0.2923 -0.5950
71480SOL    HW224371  10.039   6.428   3.094  1.3706  0.0914  2.0558
71481SOL     OW24372   8.977   4.841   1.826 -0.4715  0.0458 -0.1341
71481SOL    HW124373   8.920   4.871   1.897  0.4641  1.5773  0.0223
71481SOL    HW224374   9.034   4.777   1.868  0.4202  1.3168  0.6931
71482SOL     OW24375   7.845   7.898   0.306  0.4546 -0.3170 -0.3406
71482SOL    HW124376   7.785   7.971   0.291  1.1505  0.1027 -1.1765
71482SOL    HW224377   7.920   7.937   0.350  0.0701 -0.8677  0.8393
71483SOL     OW24378   8.966   5.866   2.056  0.3949 -0.0876 -0.2607
71483SOL    HW124379   9.048   5.824   2.031  0.8247  0.4120  0.2672
71483SOL    HW224380   8.927   5.806   2.119  2.0669  1.2404  2.1924
71484SOL     OW24381  10.069   1.605   1.064  0.2985 -0.2087  0.3805
71484SOL    HW124382  10.045   1.631   1.153 -1.6019 -0.6228  0.0139
71484SOL    HW224383  10.117   1.680   1.030 -0.3251  0.5956  1.2242
71485SOL     OW24384   0.237   3.799   6.262 -0.0359 -0.6733 -0.3400
71485SOL    HW124385   0.204   3.762   6.344 -3.0455  1.9142 -0.2116
71485SOL    HW224386   0.186   3.755   6.194 -1.5857  1.0935 -0.3710
71486SOL     OW24387  10.423   8.220   5.120 -0.1460 -0.5669 -0.0395
71486SOL    HW124388  10.350   8.275   5.091  0.3909 -0.9878 -2.3931
71486SOL    HW224389  10.485   8.282   5.158  0.3873  0.5300 -2.5117
71487SOL     OW24390  12.053   7.323   7.716 -0.2075 -0.0861 -0.1487
71487SOL    HW124391  12.022   7.393   7.659  1.7105  1.4351  0.5953
71487SOL    HW224392  11.976   7.298   7.768 -1.1374  0.8113 -1.0726
71488SOL     OW24393  11.315   5.012   8.531 -0.4563  0.3239 -0.3523
71488SOL    HW124394  11.260   5.062   8.470 -0.8843 -0.9568 -1.0704
71488SOL    HW224395  11.295   4.920   8.510  0.3430 -0.1453  0.8738
71489SOL     OW24396   6.964   6.113  11.034 -0.5864  0.2005 -0.1335
71489SOL    HW124397   7.040   6.059  11.054 -1.0945  0.3389  2.4061
71489SOL    HW224398   6.894   6.051  11.015 -0.0504  0.0746 -1.9377
71490SOL     OW24399   8.374   4.533  13.210  0.8573  0.2051 -0.1034
71490SOL    HW124400   8.355   4.579  13.128  1.0710  0.4543 -0.0113
71490SOL    HW224401   8.311   4.568  13.273  0.1772 -0.5369 -0.3466
71491SOL     OW24402  12.793   3.723   2.524 -0.4854  0.0382 -0.2341
71491SOL    HW124403  12.714   3.695   2.477 -1.3733 -0.8895  1.7165
71491SOL    HW224404  12.854   3.747   2.455 -2.3969  0.6069 -1.8274
71492SOL     OW24405  12.227   6.722   1.244 -0.5744  0.6921 -0.4302
71492SOL    HW124406  12.305   6.767   1.213 -0.6555 -0.0725 -1.8030
71492SOL    HW224407  12.165   6.792   1.264 -0.4148  1.2238 -1.7453
71493SOL     OW24408   5.370   3.364  11.867 -0.5425 -0.0657  0.5502
71493SOL    HW124409   5.312   3.409  11.806  1.4967 -0.2640 -1.6726
71493SOL    HW224410   5.337   3.274  11.869  0.4746 -0.5914 -1.9563
71494SOL     OW24411   1.139   4.405  11.010  0.2478  0.0950  0.4946
71494SOL    HW124412   1.232   4.409  10.985  0.1712 -0.9181 -0.0011
71494SOL    HW224413   1.140   4.380  11.102  0.4952  2.2228  1.1263
71495SOL     OW24414   3.357   4.238   8.461 -0.2548 -0.3309  0.2430
71495SOL    HW124415   3.354   4.179   8.385 -0.7869  0.2932 -0.2310
71495SOL    HW224416   3.429   4.298   8.442 -0.9792  0.4163 -0.2323
71496SOL     OW24417   0.745   8.529   5.474  0.0039 -0.0518  0.1661
71496SOL    HW124418   0.764   8.437   5.460 -0.1950 -0.2971  1.3736
71496SOL    HW224419   0.792   8.551   5.555 -0.8042  0.6138  0.4766
71497SOL     OW24420  11.949   1.164   2.378  0.6439 -0.1477  0.7621
71497SOL    HW124421  11.959   1.239   2.320  0.2194 -0.7796 -0.1567
71497SOL    HW224422  12.022   1.106   2.355  1.6653  0.4719  2.2774
71498SOL     OW24423  10.317  12.061   6.240 -0.0121 -0.2001  0.5352
71498SOL    HW124424  10.232  12.102   6.227  1.2240  2.5063  0.4407
71498SOL    HW224425  10.367  12.123   6.293  2.1217 -1.3980  0.0681
71499SOL     OW24426   1.623   6.386   7.317  0.0324 -0.1107 -0.5514
71499SOL    HW124427   1.557   6.390   7.247 -0.1023  0.2206 -0.4090
71499SOL    HW224428   1.706   6.372   7.271 -0.1990 -1.0816 -0.6987
71500SOL     OW24429  12.462   0.113   5.396  0.3308 -0.1915 -0.1317
71500SOL    HW124430  12.499   0.178   5.456 -0.6651  0.0943  0.1821
71500SOL    HW224431  12.537   0.060   5.370  0.7854 -0.3692  1.4178
71501SOL     OW24432   5.022   0.086  10.326 -0.0344  0.2833 -0.6905
71501SOL    HW124433   4.937   0.120  10.354 -0.6480 -1.1368 -0.7088
71501SOL    HW224434   5.018  -0.007  10.348  1.7684  0.3055 -0.1086
71502SOL     OW24435   0.389   0.424  12.585  0.0712  0.3883 -0.2300
71502SOL    HW124436   0.483   0.406  12.584 -0.0350 -0.2551  0.3161
71502SOL    HW224437   0.352   0.353  12.638 -0.8038  0.2283 -1.0442
71503SOL     OW24438   7.132   3.543   7.319  0.0465 -0.3625 -0.6810
71503SOL    HW124439   7.077   3.494   7.380 -0.2106 -0.2270 -0.8022
71503SOL    HW224440   7.087   3.536   7.235 -0.4610  0.8028 -0.5317
71504SOL     OW24441   5.055   9.651   8.014 -0.1448 -0.4390  0.0719
71504SOL    HW124442   5.092   9.565   7.994 -1.5569 -0.9573 -0.4093
71504SOL    HW224443   5.061   9.658   8.109  2.5731  0.1716 -0.0628
71505SOL     OW24444   5.972   4.588  10.463  0.2940  0.0969  0.0784
71505SOL    HW124445   6.059   4.571  10.499  0.4246 -2.2813 -1.1367
71505SOL    HW224446   5.917   4.519  10.500 -0.4274 -0.0633 -1.2233
71506SOL     OW24447   9.407   0.320  10.426  0.1983  0.5372 -0.1664
71506SOL    HW124448   9.314   0.327  10.450  0.2441  0.5933 -0.0010
71506SOL    HW224449   9.407   0.268  10.346 -0.0475  1.2709 -0.6551
71507SOL     OW24450   9.640  10.189   0.650 -0.7207  0.0712  0.3000
71507SOL    HW124451   9.679  10.269   0.615  0.5585 -1.1549 -1.2045
71507SOL    HW224452   9.606  10.143   0.574 -1.8923 -0.6193  1.1985
71508SOL     OW24453   7.750   4.582   3.836 -0.0042 -0.8025 -0.0706
71508SOL    HW124454   7.658   4.565   3.858 -0.2532  0.5783  0.0663
71508SOL    HW224455   7.786   4.623   3.915 -0.5876  3.1075 -1.5857
71509SOL     OW24456   5.741  11.149  10.206  0.3868  0.0592  0.4645
71509SOL    HW124457   5.712  11.059  10.221  2.6968 -0.6142  1.2963
71509SOL    HW224458   5.820  11.158  10.260  0.4842  2.4318  0.0143
71510SOL     OW24459   7.301   3.815  12.096  0.3709  0.1790  0.5565
71510SOL    HW124460   7.278   3.876  12.165 -0.0560  0.5737  0.0779
71510SOL    HW224461   7.314   3.731  12.140 -1.9918 -0.0850  0.9040
71511SOL     OW24462   1.358   2.455  10.406  0.1521 -0.5024  0.6266
71511SOL    HW124463   1.321   2.526  10.353  0.0662 -0.9703  0.0526
71511SOL    HW224464   1.282   2.406  10.436  0.2439 -0.7753  0.4185
71512SOL     OW24465   3.652   9.858  11.815 -0.0806  0.2865 -0.8422
71512SOL    HW124466   3.658   9.948  11.784 -1.2082  0.4141 -0.7470
71512SOL    HW224467   3.558   9.838  11.810  0.0394 -0.5450  0.0747
71513SOL     OW24468   9.191   4.375   7.017 -0.1406 -0.5923  0.3141
71513SOL    HW124469   9.215   4.378   7.110  1.3120 -0.7482 -0.0291
71513SOL    HW224470   9.194   4.466   6.989  0.0962 -0.6158  0.2614
71514SOL     OW24471   9.826   9.739  12.702 -0.2661  0.7799  0.2591
71514SOL    HW124472   9.889   9.810  12.695  1.2562 -0.5254 -0.0587
71514SOL    HW224473   9.847   9.697  12.786 -1.3833  0.9154  0.6161
71515SOL     OW24474   5.877   0.052   1.373 -0.0870 -0.0027 -0.0747
71515SOL    HW124475   5.930  -0.009   1.424  0.7607 -0.3214 -1.2899
71515SOL    HW224476   5.787   0.035   1.400  0.3826  0.6499  2.1530
71516SOL     OW24477   1.271  12.164   6.622  0.6864 -0.1700 -0.0276
71516SOL    HW124478   1.232  12.216   6.693  0.6120  1.9832 -1.5584
71516SOL    HW224479   1.365  12.165   6.640  0.4888 -1.7869  1.3552
71517SOL     OW24480  12.204   1.312   3.206  0.1541  0.5978  0.2505
71517SOL    HW124481  12.128   1.365   3.182 -0.3033  0.5584  1.5178
71517SOL    HW224482  12.172   1.254   3.275  0.9164 -0.6283 -0.4061
71518SOL     OW24483  11.844  12.863   4.683  0.1784 -0.5389 -0.2099
71518SOL    HW124484  11.782  12.799   4.717 -1.0186  0.0448 -1.1955
71518SOL    HW224485  11.930  12.822   4.692 -0.5246 -2.0989 -0.4200
71519SOL     OW24486   4.510   7.647   4.740  0.5629  0.1279 -0.3157
71519SOL    HW124487   4.581   7.674   4.799 -0.6333 -0.2124  1.3422
71519SOL    HW224488   4.477   7.729   4.703  1.7904  0.2895 -1.1173
71520SOL     OW24489   3.305   9.137   8.086 -0.1527  0.1081  0.7293
71520SOL    HW124490   3.317   9.085   8.166 -2.0824  0.9098  1.6159
71520SOL    HW224491   3.228   9.098   8.044 -1.8621  2.3293  1.5907
71521SOL     OW24492  11.621  11.780   4.782  0.0254 -0.1624  0.1514
71521SOL    HW124493  11.601  11.735   4.864 -0.8187  0.2323  0.1744
71521SOL    HW224494  11.582  11.867   4.792 -0.0531 -0.0928 -0.6536
71522SOL     OW24495   8.344   0.552   9.378  0.2585  0.1876 -0.0926
71522SOL    HW124496   8.294   0.611   9.322  1.7828  0.1037 -1.6426
71522SOL    HW224497   8.400   0.609   9.430 -1.8571  0.3319  2.2116
71523SOL     OW24498   5.559   9.039   1.791 -0.7203  0.3962  0.0984
71523SOL    HW124499   5.583   9.122   1.749  0.3502  0.2879  0.4581
71523SOL    HW224500   5.497   8.998   1.730 -0.1128  0.7838 -0.8029
71524SOL     OW24501   2.090   9.521   4.386 -0.2603  0.7398  0.1712
71524SOL    HW124502   2.155   9.452   4.379 -1.0149  0.0225 -0.0041
71524SOL    HW224503   2.140   9.602   4.382  0.5997  0.2122 -0.0977
71525SOL     OW24504   9.191   5.482  11.053  0.0280  0.3741  0.8597
71525SOL    HW124505   9.104   5.501  11.087  1.2165 -0.4014  4.8078
71525SOL    HW224506   9.203   5.389  11.067  0.9296  0.1065 -1.2859
71526SOL     OW24507   1.684   9.606   6.182  0.0849  0.1761  0.2674
71526SOL    HW124508   1.637   9.524   6.172 -0.0072  0.2871 -0.2087
71526SOL    HW224509   1.615   9.672   6.189  0.1367  0.1147  1.6171
71527SOL     OW24510  11.237   4.658  10.629  0.6575  0.3946 -0.0497
71527SOL    HW124511  11.143   4.650  10.608  0.4519 -1.1960  1.3168
71527SOL    HW224512  11.241   4.727  10.695  0.3032 -0.3093  0.7142
71528SOL     OW24513   7.023   4.093  11.665 -0.3949  0.3963  0.1142
71528SOL    HW124514   7.022   4.047  11.749 -3.9527  0.8592  0.4913
71528SOL    HW224515   7.092   4.159  11.675  1.9995 -2.0551  1.0780
71529SOL     OW24516   3.908   3.609  11.697 -0.2588  0.5378 -0.2235
71529SOL    HW124517   3.883   3.594  11.606  0.8701  0.9249 -0.6169
71529SOL    HW224518   3.944   3.526  11.727 -1.0691  0.2693  0.0345
71530SOL     OW24519   1.799   7.910  10.255 -0.3517  0.0571  0.2145
71530SOL    HW124520   1.845   7.988  10.225  1.6905 -0.3058  2.1455
71530SOL    HW224521   1.797   7.852  10.179 -1.2066  1.6384 -1.0225
71531SOL     OW24522   1.545   3.906  12.946  0.0521 -0.0461  0.5480
71531SOL    HW124523   1.486   3.831  12.956  0.4654 -0.4262  0.1641
71531SOL    HW224524   1.489   3.977  12.916 -1.0133  0.7621  3.9995
71532SOL     OW24525  10.671   2.375   4.499  0.1737 -0.0315 -0.3117
71532SOL    HW124526  10.586   2.333   4.498  0.1573 -0.0240 -2.3710
71532SOL    HW224527  10.661   2.449   4.559 -0.7870 -0.9114  0.6480
71533SOL     OW24528   4.513   2.232   4.989  0.2637  0.5053 -0.3424
71533SOL    HW124529   4.563   2.283   5.053  0.7814 -0.0094 -0.3282
71533SOL    HW224530   4.579   2.193   4.932 -0.1492  0.2483 -0.6545
71534SOL     OW24531   3.528   8.349  12.252 -0.4942 -0.3229  0.7169
71534SOL    HW124532   3.610   8.301  12.262 -0.2981 -0.0093  0.6292
71534SOL    HW224533   3.554   8.438  12.231 -0.8424 -0.6049 -1.1479
71535SOL     OW24534   0.013   8.922  12.206 -0.3792 -0.1594 -0.4227
71535SOL    HW124535   0.063   8.841  12.216 -0.9858 -0.5469 -0.4704
71535SOL    HW224536   0.039   8.976  12.281  0.5191 -0.1284 -0.7460
71536SOL     OW24537  13.007   2.898   5.879 -0.2115 -0.0393 -0.3438
71536SOL    HW124538  13.057   2.942   5.811  0.2485  0.3890  0.2674
71536SOL    HW224539  13.017   2.805   5.860 -0.1535  0.0813 -0.9073
71537SOL     OW24540  11.886   0.145  11.354  0.0996  0.1836 -0.5190
71537SOL    HW124541  11.821   0.114  11.292  0.5978  0.0052 -0.9651
71537SOL    HW224542  11.960   0.085  11.344  0.5027  0.6422 -0.3368
71538SOL     OW24543   3.123  11.565  10.860 -0.1223 -0.0678 -0.0106
71538SOL    HW124544   3.173  11.642  10.833  0.0198  0.8304  2.5906
71538SOL    HW224545   3.044  11.600  10.899 -0.2961 -1.2562  0.7567
71539SOL     OW24546   6.962   7.452   2.325 -0.0481 -0.2292 -0.3678
71539SOL    HW124547   7.047   7.496   2.326  0.0313 -0.2694 -1.8884
71539SOL    HW224548   6.982   7.359   2.316 -0.2451 -0.3173  0.0736
71540SOL     OW24549   1.146   2.723   3.194  0.0447  0.3921 -0.0571
71540SOL    HW124550   1.118   2.780   3.265  0.3277  2.5763 -1.5979
71540SOL    HW224551   1.121   2.635   3.223 -0.4142  1.2526  2.4181
71541SOL     OW24552   9.891  11.957   1.010 -0.2545  0.5734  0.8544
71541SOL    HW124553   9.964  11.972   0.950 -2.1803  0.7478 -1.6311
71541SOL    HW224554   9.863  12.045   1.035 -0.5922  0.5688  0.5033
71542SOL     OW24555   7.033   3.862  10.685  0.1092  0.2809 -0.1228
71542SOL    HW124556   7.027   3.788  10.745 -1.6508  1.2015  0.9102
71542SOL    HW224557   7.015   3.825  10.598 -2.5396 -0.2945  0.5798
71543SOL     OW24558   2.175   3.574   3.945 -0.3937 -1.0745  0.0080
71543SOL    HW124559   2.122   3.503   3.908 -0.4600 -1.2747  0.4826
71543SOL    HW224560   2.112   3.631   3.989 -0.1870 -1.4706  0.8275
71544SOL     OW24561  10.842   4.142  10.425 -0.5450  0.0155 -0.2991
71544SOL    HW124562  10.860   4.232  10.395  0.1041 -0.1873 -0.5253
71544SOL    HW224563  10.776   4.110  10.363 -0.4258  0.1736 -0.5115
71545SOL     OW24564   6.736   7.813   8.195  0.0548  0.9215 -0.2625
71545SOL    HW124565   6.703   7.901   8.211 -0.1495  0.9098 -0.5948
71545SOL    HW224566   6.786   7.821   8.114  1.1824  1.0146  0.4216
71546SOL     OW24567   5.197   3.691  11.009 -0.3605  0.2269  0.4483
71546SOL    HW124568   5.146   3.772  11.012  1.6409  1.6397 -1.1142
71546SOL    HW224569   5.225   3.683  10.918 -0.4344 -2.2356  0.5583
71547SOL     OW24570  13.128   7.764   9.736 -0.0069  0.6070 -0.7810
71547SOL    HW124571  13.106   7.679   9.772  0.7228  0.6815 -0.1302
71547SOL    HW224572  13.198   7.797   9.792 -0.0376  1.4849 -1.2296
71548SOL     OW24573  13.014   3.161  11.427  0.7119  0.3965 -0.1237
71548SOL    HW124574  12.930   3.118  11.446  1.3881 -0.6449  0.6059
71548SOL    HW224575  13.005   3.249  11.465 -0.5881  0.8470 -1.3874
71549SOL     OW24576   5.187  10.914   7.369  0.1193 -0.4864  0.2098
71549SOL    HW124577   5.197  10.821   7.390  2.6044  0.1710  2.4670
71549SOL    HW224578   5.242  10.927   7.292  1.1038 -0.6268  0.8690
71550SOL     OW24579   6.734   3.887  11.553 -0.4451 -0.4556  0.1473
71550SOL    HW124580   6.804   3.922  11.497 -1.2377  0.8634 -0.0479
71550SOL    HW224581   6.692   3.964  11.590 -2.0455 -1.2047 -0.0337
71551SOL     OW24582   6.156   5.004   5.148  0.1339 -0.2673 -0.0497
71551SOL    HW124583   6.068   4.964   5.141 -0.0107 -0.0017  0.2591
71551SOL    HW224584   6.141   5.097   5.133  0.0868  0.0642  1.8160
71552SOL     OW24585   1.239   0.877  12.047  0.2314  0.3065  0.0750
71552SOL    HW124586   1.147   0.874  12.072 -0.4384  0.8293 -2.0902
71552SOL    HW224587   1.257   0.970  12.034  1.3121  0.2760  1.2267
71553SOL     OW24588   5.151   0.641  12.307 -0.3409 -0.1866 -0.1927
71553SOL    HW124589   5.240   0.659  12.337 -0.4679 -0.7946  0.5757
71553SOL    HW224590   5.095   0.682  12.373 -0.6452  0.4656 -0.8381
71554SOL     OW24591  10.584  12.906   5.007 -0.7010  0.5451 -0.0618
71554SOL    HW124592  10.557  12.926   5.096 -0.8233 -0.4387  0.1387
71554SOL    HW224593  10.680  12.913   5.009 -0.6869  0.2998  0.2130
71555SOL     OW24594   5.751   6.356  10.366 -0.2294 -0.1240  0.5331
71555SOL    HW124595   5.727   6.321  10.281  0.5389 -0.3871  0.4153
71555SOL    HW224596   5.840   6.389  10.355  0.6797 -2.0035  1.7354
71556SOL     OW24597   6.636   3.308  10.922 -0.0989  0.3989 -0.1887
71556SOL    HW124598   6.635   3.403  10.905  0.6603  1.0270  2.7751
71556SOL    HW224599   6.705   3.297  10.987 -1.7606 -1.8729  1.3023
71557SOL     OW24600   3.788   4.339   2.322 -0.1663  0.0294 -0.2531
71557SOL    HW124601   3.827   4.253   2.311  0.1150  0.1830 -0.4606
71557SOL    HW224602   3.720   4.326   2.388  1.1222  0.0463  1.1217
71558SOL     OW24603   0.032  10.138   7.626 -0.4574 -0.2994  0.0011
71558SOL    HW124604  -0.005  10.061   7.669  0.8822 -1.5012 -0.9094
71558SOL    HW224605   0.105  10.104   7.574  0.0151  1.5574 -0.6308
71559SOL     OW24606   5.029   0.138   1.005  0.3852 -0.0680 -0.0563
71559SOL    HW124607   5.075   0.078   1.063 -0.9355 -3.0766 -1.8345
71559SOL    HW224608   4.936   0.123   1.024 -0.0114  0.3895 -1.4737
71560SOL     OW24609  10.568  12.326   5.098 -0.6157 -0.0198  0.7582
71560SOL    HW124610  10.541  12.238   5.124  0.8166 -1.6196 -2.5556
71560SOL    HW224611  10.659  12.333   5.129 -0.5852  0.1176  0.6406
71561SOL     OW24612   6.081   5.244  11.965 -0.2101  0.1394 -0.3161
71561SOL    HW124613   6.080   5.297  12.045  0.0948 -0.2435 -0.0597
71561SOL    HW224614   6.159   5.274  11.918  0.5355 -0.7896  0.3085
71562SOL     OW24615  12.298   7.762   3.006 -0.0440  0.8686  0.1577
71562SOL    HW124616  12.242   7.733   3.078  0.8672  1.2949  1.0677
71562SOL    HW224617  12.238   7.805   2.945 -0.9947 -0.5222  0.0879
71563SOL     OW24618   8.540  10.826   6.970 -0.0229 -0.4659 -0.5763
71563SOL    HW124619   8.560  10.913   6.935  1.3167  0.9176  3.1825
71563SOL    HW224620   8.541  10.837   7.065 -0.4356 -4.4874  0.0615
71564SOL     OW24621   9.860   2.904   9.875  0.5618 -0.0675 -0.0246
71564SOL    HW124622   9.892   2.839   9.938  1.5331  0.9444  0.5586
71564SOL    HW224623   9.929   2.910   9.810 -0.2885 -0.8548 -1.0508
71565SOL     OW24624  10.892   1.735   4.519 -0.6360  0.5563  0.6691
71565SOL    HW124625  10.948   1.671   4.564  1.6726  2.4910  0.7645
71565SOL    HW224626  10.872   1.694   4.435  1.5953  0.0239  0.3209
71566SOL     OW24627   7.002   6.732   0.972  0.1660 -0.5244  0.4757
71566SOL    HW124628   6.977   6.759   0.884 -0.3666 -1.2854  0.3860
71566SOL    HW224629   7.091   6.766   0.983 -0.2084  0.6313  0.1112
71567SOL     OW24630   5.339   5.487   5.541 -0.1496 -0.0171 -0.0712
71567SOL    HW124631   5.392   5.419   5.500 -0.0762 -0.3822  0.6166
71567SOL    HW224632   5.328   5.554   5.473  0.5014 -0.3166 -0.4752
71568SOL     OW24633   2.437  10.089  10.922 -0.4551  0.4827  0.6597
71568SOL    HW124634   2.435  10.129  11.009  0.0971  1.6893  0.1440
71568SOL    HW224635   2.499  10.143  10.873  1.0998 -1.5733  0.1867
71569SOL     OW24636   1.906  11.877   1.984  0.4218 -0.0378 -0.2151
71569SOL    HW124637   1.843  11.806   1.997  1.5774 -1.2449 -0.9528
71569SOL    HW224638   1.932  11.903   2.073  0.2883 -0.8251  0.0633
71570SOL     OW24639   6.079  12.976   3.378  0.0556  0.3417  1.2762
71570SOL    HW124640   6.024  12.936   3.445 -1.3367 -2.0722 -1.1343
71570SOL    HW224641   6.167  12.941   3.396 -0.5343 -1.2582  1.1475
71571SOL     OW24642  12.100   7.818  10.542  0.1303 -0.6264 -0.3994
71571SOL    HW124643  12.194   7.836  10.550  0.8225 -3.7589  0.1237
71571SOL    HW224644  12.088   7.793  10.451 -0.3867  0.5960 -0.6717
71572SOL     OW24645   0.332   0.951   1.948 -0.4188 -0.0699  0.7447
71572SOL    HW124646   0.341   0.982   2.038  0.9737  0.5018  0.4319
71572SOL    HW224647   0.416   0.971   1.907 -1.0605 -0.2354 -0.7172
71573SOL     OW24648  10.411   1.073   1.359 -0.3544  0.0230 -0.1879
71573SOL    HW124649  10.391   1.084   1.452 -1.9484 -0.7588 -0.4002
71573SOL    HW224650  10.441   0.983   1.352  0.5658  0.3315 -0.3222
71574SOL     OW24651   4.361  12.296  12.379 -0.3080 -0.0801  0.1287
71574SOL    HW124652   4.325  12.210  12.402  0.4681 -0.7017 -0.8717
71574SOL    HW224653   4.439  12.305  12.434  0.1706 -0.4783 -0.4653
71575SOL     OW24654   0.493  10.952   8.748 -0.2368 -0.0374 -0.4757
71575SOL    HW124655   0.424  10.885   8.751 -1.6044  1.2570 -1.2985
71575SOL    HW224656   0.554  10.921   8.681 -0.1083 -1.1226  0.1348
71576SOL     OW24657  11.285   6.452  12.231  0.2090 -0.2006 -0.1796
71576SOL    HW124658  11.356   6.501  12.272  0.0851 -0.7918  0.7716
71576SOL    HW224659  11.320   6.364  12.218  0.2497 -0.0278 -1.3912
71577SOL     OW24660   8.934   3.393  11.726  0.9158  0.1770  0.1424
71577SOL    HW124661   8.856   3.383  11.671  0.5566 -3.8002  1.0754
71577SOL    HW224662   8.899   3.414  11.813  0.9498 -0.4171  0.3033
71578SOL     OW24663   8.051   1.807  13.045  1.0401  0.7096 -0.4044
71578SOL    HW124664   7.976   1.754  13.069  0.9720  1.3963  1.0223
71578SOL    HW224665   8.073   1.780  12.956 -0.1184 -0.3737 -0.3804
71579SOL     OW24666   5.320   3.685   8.213 -0.0420  0.3043 -0.1987
71579SOL    HW124667   5.367   3.744   8.154 -0.6548 -0.0814 -1.0990
71579SOL    HW224668   5.388   3.647   8.268  0.7436 -0.3807 -1.5897
71580SOL     OW24669   4.562   7.419   2.918  0.0922  0.7025  0.1080
71580SOL    HW124670   4.520   7.491   2.870  0.9253  0.4799 -1.0221
71580SOL    HW224671   4.653   7.421   2.887  0.0195 -1.1322 -0.3177
71581SOL     OW24672   5.720   2.131   1.284 -0.1412  0.4763  0.1459
71581SOL    HW124673   5.685   2.057   1.235 -1.4833  0.3637  1.2053
71581SOL    HW224674   5.813   2.135   1.260 -0.7745  0.6076 -2.5494
71582SOL     OW24675   6.253  13.164  11.605  0.3484  0.2297 -0.1906
71582SOL    HW124676   6.343  13.192  11.587  0.1831  0.4020 -0.7751
71582SOL    HW224677   6.263  13.081  11.652  0.8242  0.7048  0.5708
71583SOL     OW24678   2.118   5.961   4.026  0.1453  0.0398  0.1548
71583SOL    HW124679   2.133   5.889   4.087  0.0748  0.7310  1.0126
71583SOL    HW224680   2.195   5.963   3.970 -0.4115 -1.4925 -0.7088
71584SOL     OW24681  11.957   5.923   8.486 -0.3938  0.7402 -0.4028
71584SOL    HW124682  11.863   5.938   8.496 -0.5412 -1.2417  2.2290
71584SOL    HW224683  11.965   5.868   8.408 -1.9764 -2.4137  1.4493
71585SOL     OW24684   0.890   1.461   8.054  0.0435  0.3766  0.1589
71585SOL    HW124685   0.930   1.534   8.102  2.7485 -0.0312 -1.2730
71585SOL    HW224686   0.921   1.472   7.964 -0.9353 -1.5589 -0.4625
71586SOL     OW24687   8.910   3.758   3.924  0.2258  0.1923  0.2153
71586SOL    HW124688   8.894   3.765   4.018  1.3533 -2.4367  0.7034
71586SOL    HW224689   8.977   3.823   3.906  1.0620 -0.2511  1.5667
71587SOL     OW24690   5.590  13.080   2.367  0.3353 -0.5532 -0.2167
71587SOL    HW124691   5.554  13.168   2.354 -0.8453 -1.1954 -1.5236
71587SOL    HW224692   5.616  13.079   2.459  0.3659  1.1539 -0.1725
71588SOL     OW24693   5.320   7.142   3.133 -0.6662  0.6902 -0.1068
71588SOL    HW124694   5.395   7.083   3.126  0.4703  2.0026  0.5504
71588SOL    HW224695   5.270   7.108   3.208 -0.3350  0.2304 -0.0925
71589SOL     OW24696   3.343  12.984   6.709  0.3460  1.1716 -0.2536
71589SOL    HW124697   3.412  12.996   6.644  1.8022  1.5284  1.3051
71589SOL    HW224698   3.310  13.072   6.726  0.0155  1.0865 -0.4403
71590SOL     OW24699   3.392   6.319   0.375  0.5750 -0.3420  0.8906
71590SOL    HW124700   3.397   6.267   0.295  0.2143  0.1099  0.5649
71590SOL    HW224701   3.408   6.409   0.346  0.6870 -0.2064  1.3628
71591SOL     OW24702   0.887  11.785  12.679 -0.8383  0.5237 -0.1966
71591SOL    HW124703   0.956  11.817  12.738 -1.0732 -0.4234  0.6033
71591SOL    HW224704   0.889  11.847  12.606 -0.4630  1.6506  0.7359
71592SOL     OW24705   4.671  11.681   0.937  0.1246  0.5118 -0.0550
71592SOL    HW124706   4.712  11.663   1.022 -1.6913 -1.4026  0.4943
71592SOL    HW224707   4.578  11.667   0.952 -0.2298 -0.0471 -2.4092
71593SOL     OW24708   6.871   4.692  11.768  0.2263 -0.5526  0.6339
71593SOL    HW124709   6.961   4.704  11.739 -0.1446  0.9914 -0.0139
71593SOL    HW224710   6.851   4.772  11.817 -0.9936 -0.5283  0.1426
71594SOL     OW24711   0.779  10.475   6.100 -0.1512  0.1671  0.4213
71594SOL    HW124712   0.700  10.435   6.064  0.7440 -1.2275 -0.0501
71594SOL    HW224713   0.746  10.540   6.162 -1.6691 -0.9145  0.8023
71595SOL     OW24714  11.431   3.810   4.990  0.6212 -0.0796  0.2479
71595SOL    HW124715  11.490   3.884   4.978  0.4709 -0.1136 -0.7484
71595SOL    HW224716  11.465   3.743   4.930 -0.7213  0.0843 -0.7326
71596SOL     OW24717   0.930  12.330   1.959  0.0023  0.4982 -0.3129
71596SOL    HW124718   1.022  12.307   1.950 -0.0152  0.1707  0.2798
71596SOL    HW224719   0.883  12.257   1.919  0.0072  1.1869 -1.6379
71597SOL     OW24720   5.765   4.410   4.999 -0.1709  0.2255  0.6225
71597SOL    HW124721   5.684   4.453   4.971 -0.9028 -0.6351  1.3428
71597SOL    HW224722   5.832   4.478   4.995 -1.0434  1.0910  0.5334
71598SOL     OW24723  11.712   2.878   2.462  0.2904  0.2928 -0.2222
71598SOL    HW124724  11.735   2.791   2.429  0.9452  0.2379  0.3566
71598SOL    HW224725  11.760   2.938   2.405  0.7818  0.2268  0.1158
71599SOL     OW24726  12.918   9.970   3.935  0.3712  0.4961  0.1390
71599SOL    HW124727  13.004   9.927   3.936  0.7092  1.1276 -0.4483
71599SOL    HW224728  12.872   9.929   3.862  1.1454  1.9250 -1.2205
71600SOL     OW24729   0.485  11.507   7.178 -0.1787  0.2161 -0.6090
71600SOL    HW124730   0.551  11.530   7.113 -1.1691 -0.0253 -1.7494
71600SOL    HW224731   0.431  11.585   7.186  0.4188  0.5294  0.5700
71601SOL     OW24732   9.813   4.447   6.674  0.2268  0.2412  0.0972
71601SOL    HW124733   9.869   4.457   6.751  0.7955 -1.8069  0.0227
71601SOL    HW224734   9.848   4.508   6.609  1.3737  0.1421  0.6097
71602SOL     OW24735   8.389   8.534   4.159 -0.2658 -0.1767  0.2795
71602SOL    HW124736   8.461   8.594   4.143 -1.4496  0.6598 -2.3653
71602SOL    HW224737   8.351   8.564   4.242  0.8587  0.9706  0.4007
71603SOL     OW24738   8.315   7.920   8.122 -0.2035 -0.3250  0.0014
71603SOL    HW124739   8.380   7.885   8.183 -0.0089  2.2211  1.3994
71603SOL    HW224740   8.243   7.858   8.125  0.6315 -1.2777  1.3161
71604SOL     OW24741   6.061  13.198   3.052 -0.3343  0.1853 -0.1376
71604SOL    HW124742   6.066  13.102   3.046 -0.6167  0.0415  1.5128
71604SOL    HW224743   6.048  13.226   2.961 -0.4070 -1.3421 -0.6411
71605SOL     OW24744   7.071   9.564   5.794  0.2097 -0.4424  0.0574
71605SOL    HW124745   7.060   9.501   5.723 -1.2403  1.6461 -1.7231
71605SOL    HW224746   7.154   9.540   5.835 -0.2121 -3.3740 -0.5707
71606SOL     OW24747   5.634   2.831   5.738  0.4559  0.0827  0.3998
71606SOL    HW124748   5.584   2.749   5.742 -0.9009  0.9163  1.6546
71606SOL    HW224749   5.718   2.806   5.701  0.5958 -2.1662  2.0071
71607SOL     OW24750   4.655   9.585   3.949  0.1582  0.5479  0.0812
71607SOL    HW124751   4.736   9.596   3.999  1.0272 -1.1466 -0.8402
71607SOL    HW224752   4.601   9.526   4.002  1.2112 -1.5106 -0.9887
71608SOL     OW24753   6.509   2.217  10.338 -0.1891 -0.4695  0.7361
71608SOL    HW124754   6.528   2.233  10.431  0.8533  1.6267  0.2128
71608SOL    HW224755   6.415   2.235  10.329  0.2752  2.5069  0.8464
71609SOL     OW24756   2.625  10.038   3.137 -0.1318 -0.1544 -0.2119
71609SOL    HW124757   2.583  10.121   3.115  0.9244  0.5085  0.1869
71609SOL    HW224758   2.700  10.063   3.191 -0.7479 -1.4907  1.3307
71610SOL     OW24759   9.944   6.154   4.474  0.5145  0.4985  1.0578
71610SOL    HW124760   9.950   6.232   4.530  0.3152  2.0581 -0.9554
71610SOL    HW224761  10.035   6.130   4.457  0.6563  1.7263 -0.1093
71611SOL     OW24762   1.224  11.139  12.547 -0.1332 -0.1894  0.2107
71611SOL    HW124763   1.262  11.227  12.544 -0.2152 -0.1589 -0.0372
71611SOL    HW224764   1.142  11.150  12.594 -0.0133 -0.1843  0.4181
71612SOL     OW24765  11.241  10.822   7.954  0.1334  0.0871 -0.2737
71612SOL    HW124766  11.251  10.876   8.032  2.3770  0.0037 -0.4438
71612SOL    HW224767  11.297  10.863   7.889  0.0049 -1.0883 -1.1516
71613SOL     OW24768   9.878  12.694   9.239 -0.2558 -0.8093 -0.2355
71613SOL    HW124769   9.822  12.762   9.201 -0.6295 -0.5674  0.6954
71613SOL    HW224770   9.836  12.612   9.214 -1.3266 -0.6244  0.8112
71614SOL     OW24771   5.587   5.750  11.842 -0.1453  0.3742 -0.0319
71614SOL    HW124772   5.589   5.659  11.871  1.5533 -0.3182 -2.0620
71614SOL    HW224773   5.508   5.787  11.882 -1.4669 -2.2797 -0.0004
71615SOL     OW24774   5.279   3.088   2.609 -0.0091 -0.1305  0.0449
71615SOL    HW124775   5.297   3.103   2.516 -1.8763  1.6158 -0.1097
71615SOL    HW224776   5.196   3.041   2.610 -1.2530  1.9051  0.7640
71616SOL     OW24777  10.595   4.330  11.699 -0.0620 -0.7061  0.0639
71616SOL    HW124778  10.679   4.373  11.688 -1.0430  0.8653 -1.9666
71616SOL    HW224779  10.616   4.236  11.696  1.6117 -0.3607 -0.1313
71617SOL     OW24780   8.624  11.525   4.244 -0.3226  0.8349  0.5115
71617SOL    HW124781   8.715  11.502   4.226 -0.1694  0.0993  2.0532
71617SOL    HW224782   8.626  11.617   4.270 -0.2767  1.3032 -1.0353
71618SOL     OW24783  13.268   3.677   1.477 -0.3868 -0.5824 -0.1324
71618SOL    HW124784  13.336   3.693   1.411  1.9222  3.3099  2.7950
71618SOL    HW224785  13.314   3.638   1.551 -1.8296 -0.1659  1.0418
71619SOL     OW24786   8.457   6.607   1.635  0.4472  0.0258 -0.3491
71619SOL    HW124787   8.518   6.554   1.686  2.0899  1.2485 -1.0013
71619SOL    HW224788   8.412   6.661   1.700  1.3456  0.4000 -0.0317
71620SOL     OW24789  12.274   0.154  11.657  0.0402 -0.1183  0.5758
71620SOL    HW124790  12.192   0.200  11.673 -0.0722 -0.9296  2.5529
71620SOL    HW224791  12.317   0.205  11.589 -2.9985 -0.8044 -2.1409
71621SOL     OW24792  12.693   6.551   4.871 -0.9985  0.2279  0.0493
71621SOL    HW124793  12.619   6.581   4.819 -0.0712  0.1399 -1.4040
71621SOL    HW224794  12.672   6.575   4.961 -2.3567  1.0223 -0.4599
71622SOL     OW24795  11.539  10.480   5.064  0.1680  0.7971  0.0382
71622SOL    HW124796  11.613  10.420   5.053  0.3057  0.8717  0.5524
71622SOL    HW224797  11.578  10.563   5.089 -0.0201  1.1242 -0.7061
71623SOL     OW24798   1.098   8.159   9.712  0.1739  0.3176 -0.3383
71623SOL    HW124799   1.179   8.207   9.725 -0.0382  0.0906  2.3797
71623SOL    HW224800   1.116   8.072   9.748 -1.4458  0.5108  1.0764
71624SOL     OW24801  10.862  11.793  13.276  0.3961 -0.5753  0.1895
71624SOL    HW124802  10.809  11.761  13.349  0.7360 -0.9431  0.2796
71624SOL    HW224803  10.801  11.804  13.204  0.5819 -3.3181 -0.4612
71625SOL     OW24804   9.044  10.821   9.312 -0.0619  0.2050 -0.2222
71625SOL    HW124805   8.999  10.898   9.345 -0.7877 -0.1296 -0.4118
71625SOL    HW224806   9.049  10.834   9.217  0.6061  0.4267 -0.1624
71626SOL     OW24807   7.754   7.153   8.328  0.0113 -0.5654 -0.3281
71626SOL    HW124808   7.826   7.191   8.378  0.3139  0.3970 -1.4487
71626SOL    HW224809   7.783   7.064   8.309  0.0067 -0.8620  0.9478
71627SOL     OW24810  11.710   5.960   1.666 -0.3892  0.4231  0.1517
71627SOL    HW124811  11.789   6.000   1.701 -0.0779  0.3078 -0.4099
71627SOL    HW224812  11.738   5.915   1.586 -0.9045 -0.1525  0.2844
71628SOL     OW24813   0.609  11.763   4.042 -0.7648  0.3090 -0.3136
71628SOL    HW124814   0.622  11.679   3.999  1.0013  0.0630  0.6240
71628SOL    HW224815   0.607  11.826   3.970  1.1195 -0.1979 -0.8620
71629SOL     OW24816   9.202   5.993   0.210 -0.2871 -0.3181 -0.6570
71629SOL    HW124817   9.213   6.071   0.264 -3.2440 -0.7209  0.7249
71629SOL    HW224818   9.174   5.925   0.271  0.4128 -1.9874 -2.1076
71630SOL     OW24819   1.967   0.783   2.361 -0.8114  0.2114 -0.3568
71630SOL    HW124820   2.035   0.718   2.380  0.9569  1.8703 -0.7448
71630SOL    HW224821   1.948   0.770   2.268 -0.2990  0.3851 -0.4880
71631SOL     OW24822  10.757   6.964   0.017 -0.0608  0.1744 -0.2092
71631SOL    HW124823  10.774   7.013  -0.064 -0.5632  0.6731 -0.0151
71631SOL    HW224824  10.662   6.952   0.019 -0.3253  2.0728  1.3890
71632SOL     OW24825   4.369  10.102   1.067 -0.5887  0.1398  0.3604
71632SOL    HW124826   4.427  10.078   1.138 -0.3103  0.9698  0.4266
71632SOL    HW224827   4.411  10.177   1.025 -0.3723 -0.7735 -1.1463
71633SOL     OW24828  12.019  12.606   4.439  0.1419  0.3023 -0.4813
71633SOL    HW124829  11.941  12.552   4.453  0.4972 -0.1763 -0.3389
71633SOL    HW224830  12.062  12.609   4.525  0.0843  0.8743 -0.4697
71634SOL     OW24831  10.217  11.653   6.946  0.2710 -0.0785  0.8999
71634SOL    HW124832  10.254  11.578   6.992  0.7361 -1.3246 -1.3506
71634SOL    HW224833  10.193  11.619   6.860 -0.6057  2.1000  0.2065
71635SOL     OW24834  12.996  12.260   4.040 -0.4162  0.0284  0.0485
71635SOL    HW124835  13.092  12.266   4.048 -0.5093  0.7796  0.7237
71635SOL    HW224836  12.970  12.209   4.117 -0.5056 -0.7772 -0.5060
71636SOL     OW24837   7.059   9.525   2.502 -0.2378  0.5320  0.6140
71636SOL    HW124838   7.113   9.464   2.453 -0.7696  1.8489 -1.7348
71636SOL    HW224839   7.122   9.585   2.542  0.1385  1.3269 -1.0933
71637SOL     OW24840   3.009   8.498  11.102 -0.0105 -0.0556  0.0666
71637SOL    HW124841   3.069   8.544  11.044  1.2869 -0.6705  0.8850
71637SOL    HW224842   2.964   8.567  11.151  1.3345  0.4004  0.7167
71638SOL     OW24843   9.503   7.652  11.493 -0.4469  0.2573  0.1783
71638SOL    HW124844   9.549   7.681  11.572 -0.7788  0.3974  0.3218
71638SOL    HW224845   9.535   7.563  11.478  0.0787  0.4525  0.1147
71639SOL     OW24846   3.658  10.458   5.286  0.1042 -0.1596  0.3417
71639SOL    HW124847   3.610  10.400   5.345  0.4060  0.2550  1.0139
71639SOL    HW224848   3.746  10.421   5.282  0.7898  1.1600  2.1314
71640SOL     OW24849  10.392   2.369   5.110  0.2905 -0.0613  0.5651
71640SOL    HW124850  10.413   2.373   5.203 -0.0823  1.0891  0.6070
71640SOL    HW224851  10.327   2.299   5.103  2.8674 -2.6813  0.6391
71641SOL     OW24852   0.955   7.969   7.751 -0.6972 -0.1804 -0.2811
71641SOL    HW124853   1.005   8.038   7.794 -0.4865 -0.3251 -0.2942
71641SOL    HW224854   0.917   7.918   7.823  3.3315 -3.2486  0.0277
71642SOL     OW24855   7.623   7.695  13.260 -0.8991  0.0094 -0.1847
71642SOL    HW124856   7.697   7.688  13.321 -0.7637 -0.3716 -0.3880
71642SOL    HW224857   7.650   7.761  13.196 -0.1882 -1.0445 -1.0037
71643SOL     OW24858  11.293   4.377   3.899 -0.1720 -0.0524 -0.0409
71643SOL    HW124859  11.258   4.370   3.988 -0.1196 -1.7705 -0.1198
71643SOL    HW224860  11.226   4.336   3.844 -0.1882  0.9653 -0.8109
71644SOL     OW24861  11.734  12.032   9.012  0.0473  0.2093 -0.2538
71644SOL    HW124862  11.824  12.006   8.990  0.3441  0.6732  0.3787
71644SOL    HW224863  11.682  11.954   8.997  0.4864  0.0576 -1.0563
71645SOL     OW24864   7.481   4.312   2.949  0.0271 -0.1752  0.3393
71645SOL    HW124865   7.488   4.301   3.044 -2.9807 -0.4595  0.6118
71645SOL    HW224866   7.483   4.223   2.914  0.9482 -0.0787  0.1121
71646SOL     OW24867   5.497  12.251   5.869 -0.0281  0.1845  0.2061
71646SOL    HW124868   5.565  12.318   5.873  0.5745 -0.2623 -1.5120
71646SOL    HW224869   5.538  12.171   5.901  0.7406 -0.3926 -2.0332
71647SOL     OW24870   8.296  13.121   2.632  0.4138  0.2615  0.2897
71647SOL    HW124871   8.345  13.143   2.553  1.3694  0.3760  0.8975
71647SOL    HW224872   8.356  13.067   2.683 -0.4312 -0.3635  0.6546
71648SOL     OW24873  10.053   0.200  13.162 -0.3336 -0.0793  0.0351
71648SOL    HW124874  10.067   0.261  13.234  0.9346  1.4320 -1.4355
71648SOL    HW224875  10.086   0.116  13.195  0.0692  0.5319  1.2471
71649SOL     OW24876   7.206   0.686   7.209  0.3312 -0.3608  0.0492
71649SOL    HW124877   7.229   0.747   7.139  0.1050  0.9160  1.0428
71649SOL    HW224878   7.272   0.617   7.203  0.1989 -0.3929 -1.5224
71650SOL     OW24879   5.512   8.157  12.370  0.3952 -0.0894  0.0067
71650SOL    HW124880   5.530   8.223  12.437 -0.6530 -0.3719  0.5908
71650SOL    HW224881   5.437   8.108  12.405 -0.0045 -0.4043 -1.2600
71651SOL     OW24882   3.660   6.987  11.127  0.3204 -0.6182  0.4444
71651SOL    HW124883   3.748   7.025  11.118 -0.4205  1.0052 -0.1676
71651SOL    HW224884   3.603   7.061  11.147 -1.7849 -0.6890 -4.1738
71652SOL     OW24885   8.652   2.601   2.104  0.0116  0.4533 -0.0274
71652SOL    HW124886   8.664   2.657   2.028 -0.4009  0.8826  0.2155
71652SOL    HW224887   8.711   2.637   2.170 -0.8138  1.0906  0.3819
71653SOL     OW24888  11.286  10.117   9.757  0.2955 -0.1179 -0.4768
71653SOL    HW124889  11.340  10.075   9.691  0.3098 -0.0733 -0.4929
71653SOL    HW224890  11.348  10.148   9.823  0.4988  1.7387 -1.4749
71654SOL     OW24891  12.859   3.385   2.013  0.5847  0.5180 -0.1651
71654SOL    HW124892  12.896   3.472   2.024  1.5413 -0.0092  1.0217
71654SOL    HW224893  12.851   3.351   2.102  0.0665 -0.5463 -0.5971
71655SOL     OW24894   1.503  10.243   9.257 -0.5607 -1.0977  0.7254
71655SOL    HW124895   1.598  10.234   9.246 -0.5261 -0.5128  0.5141
71655SOL    HW224896   1.466  10.201   9.179 -0.4491 -0.6936  0.4503
71656SOL     OW24897   3.505   1.199   6.623 -0.3435  0.3270 -0.3334
71656SOL    HW124898   3.525   1.279   6.575  1.7826 -0.4931 -0.9687
71656SOL    HW224899   3.429   1.162   6.578  1.2222 -0.1189 -2.8195
71657SOL     OW24900   0.624  10.535   4.086 -0.3831 -0.4530  0.1449
71657SOL    HW124901   0.657  10.550   4.175 -1.0780  1.6948  0.1148
71657SOL    HW224902   0.684  10.584   4.030  1.0002 -3.0638 -0.8301
71658SOL     OW24903   2.701   7.267   3.100  0.5589  0.0754  0.7342
71658SOL    HW124904   2.783   7.275   3.051  1.1331  1.3655  1.8326
71658SOL    HW224905   2.634   7.257   3.033  1.4389  0.6590 -0.2736
71659SOL     OW24906   2.762   5.392   3.346  0.3851  0.0740 -0.4045
71659SOL    HW124907   2.833   5.328   3.350 -1.2520 -1.7996  0.9750
71659SOL    HW224908   2.708   5.363   3.273  0.5101  0.8963 -0.8289
71660SOL     OW24909   3.381  10.547   4.597 -0.2155  0.0628 -0.4505
71660SOL    HW124910   3.428  10.505   4.525  0.7644  1.9391 -0.9581
71660SOL    HW224911   3.447  10.557   4.666 -0.0499  1.8764 -0.8176
71661SOL     OW24912   2.995   7.088   3.629 -0.3319  0.7101  1.0194
71661SOL    HW124913   2.991   7.184   3.630  1.0810  0.8027  0.3188
71661SOL    HW224914   2.924   7.061   3.687  0.1956  2.2107  2.4622
71662SOL     OW24915  10.703   3.255  12.815  0.7016 -0.0404  0.2834
71662SOL    HW124916  10.712   3.295  12.729 -0.1581 -0.8788 -0.2117
71662SOL    HW224917  10.701   3.161  12.798  0.8987 -0.2309  1.2553
71663SOL     OW24918   1.904   2.577   3.624 -0.1720  0.2117 -0.6700
71663SOL    HW124919   1.940   2.629   3.552  0.4123  0.5742 -0.1331
71663SOL    HW224920   1.853   2.639   3.676  1.2922  0.4946  0.4942
71664SOL     OW24921   8.657   8.705  13.035 -0.2634 -0.0710  0.1611
71664SOL    HW124922   8.652   8.618  12.996  1.2796  0.4458 -1.3156
71664SOL    HW224923   8.702   8.691  13.118 -0.9237 -0.7941  0.4115
71665SOL     OW24924   2.335   3.919  11.600  0.4386  0.1766 -0.0727
71665SOL    HW124925   2.396   3.878  11.539  0.0631 -0.2422 -0.1646
71665SOL    HW224926   2.319   3.852  11.666 -1.9357 -0.6831 -1.4077
71666SOL     OW24927   9.260   5.580  11.743  0.1755 -0.2383  0.4980
71666SOL    HW124928   9.169   5.558  11.719  0.7404 -0.8722 -1.2244
71666SOL    HW224929   9.254   5.667  11.782 -0.7909  1.5039 -3.0548
71667SOL     OW24930  12.570   5.014   8.636 -0.0366 -0.3325 -0.1609
71667SOL    HW124931  12.528   4.961   8.704 -0.8906  0.7378  0.1615
71667SOL    HW224932  12.602   5.091   8.681  1.6369 -0.7559 -0.5475
71668SOL     OW24933  12.528   6.635   5.935 -0.6692 -0.0487 -0.3471
71668SOL    HW124934  12.624   6.641   5.931 -0.4798 -1.8964  0.2074
71668SOL    HW224935  12.498   6.689   5.863  0.7572  1.1459 -0.0969
71669SOL     OW24936   5.735   6.301   5.531  0.2171 -0.0357  0.2985
71669SOL    HW124937   5.653   6.275   5.573 -0.1868  0.1709 -0.3525
71669SOL    HW224938   5.784   6.345   5.600  0.9659 -2.5409  1.4902
71670SOL     OW24939   4.608   4.496   7.087  0.3715 -0.2550 -0.2779
71670SOL    HW124940   4.661   4.505   7.166 -0.4317 -1.6775  0.4604
71670SOL    HW224941   4.623   4.406   7.058 -1.5369 -0.6619 -0.1028
71671SOL     OW24942  11.897   4.546  12.459  0.0834 -0.0994 -0.3628
71671SOL    HW124943  11.920   4.600  12.535  1.6984  0.3532 -1.1297
71671SOL    HW224944  11.914   4.456  12.488  0.1554  0.0300  0.0052
71672SOL     OW24945   9.941   6.195   1.943  0.2031  0.9615  0.3659
71672SOL    HW124946   9.851   6.182   1.975 -0.1956 -0.0541 -1.0807
71672SOL    HW224947   9.995   6.148   2.007 -0.4714  0.0407  0.2894
71673SOL     OW24948   8.129   1.663  12.065 -0.5175 -0.1614  0.5558
71673SOL    HW124949   8.081   1.588  12.031 -3.3949  2.3550 -1.4876
71673SOL    HW224950   8.074   1.697  12.135 -1.5983  2.4014 -1.3861
71674SOL     OW24951   4.503  11.494   9.239  0.3168 -0.4225  0.0769
71674SOL    HW124952   4.417  11.459   9.264  0.4809 -1.9232 -1.3140
71674SOL    HW224953   4.541  11.427   9.182  1.2194  1.4575 -1.6737
71675SOL     OW24954   7.556   2.177   4.987 -0.0882 -0.3607 -0.1189
71675SOL    HW124955   7.536   2.132   5.069 -1.1940 -0.9814 -0.7083
71675SOL    HW224956   7.562   2.107   4.922  2.4094 -0.0472 -0.3084
71676SOL     OW24957   1.180   4.989  12.844 -0.3617 -0.1513 -0.4380
71676SOL    HW124958   1.178   5.072  12.796  0.6108  0.9396  1.2933
71676SOL    HW224959   1.121   5.003  12.918 -0.2892 -1.0610 -0.2007
71677SOL     OW24960   4.065   9.229   7.177  0.2962  0.7048  0.3025
71677SOL    HW124961   3.981   9.185   7.167 -0.3493  1.6557  1.3112
71677SOL    HW224962   4.121   9.191   7.109 -1.0424  0.3076 -0.5991
71678SOL     OW24963   6.678   3.570  10.166  0.2803 -0.1936  0.0634
71678SOL    HW124964   6.589   3.602  10.156 -1.1123 -3.7294 -0.1096
71678SOL    HW224965   6.722   3.596  10.085 -1.1898 -0.1942 -0.7742
71679SOL     OW24966  11.992   4.576   4.978 -0.3730 -0.3574 -0.6234
71679SOL    HW124967  12.042   4.548   4.901 -0.9723 -0.2818 -1.0410
71679SOL    HW224968  11.901   4.563   4.954 -0.5513 -0.8715  0.2871
71680SOL     OW24969   1.291   9.863   1.588  0.0530  0.2017 -0.6859
71680SOL    HW124970   1.227   9.795   1.608  0.8997 -0.0570  1.2769
71680SOL    HW224971   1.358   9.818   1.537  0.6451 -0.4958  0.6599
71681SOL     OW24972   2.613   7.275   3.533  0.4242  0.1091 -0.0783
71681SOL    HW124973   2.635   7.348   3.474 -4.0104  1.5784 -0.3066
71681SOL    HW224974   2.550   7.223   3.484 -0.1946 -1.1073  1.8923
71682SOL     OW24975  10.497   7.059   7.791 -0.0604  0.0874  0.2900
71682SOL    HW124976  10.432   7.126   7.811 -0.4519  0.1505 -1.0918
71682SOL    HW224977  10.539   7.090   7.711  0.3757 -0.8770  0.1346
71683SOL     OW24978   0.506   8.962  10.715 -0.0917 -0.3745 -0.1145
71683SOL    HW124979   0.531   8.874  10.686 -1.1082 -0.2724 -1.3899
71683SOL    HW224980   0.411   8.966  10.705  0.0417  1.2451 -1.2757
71684SOL     OW24981   3.956   2.582   3.245  0.5071  0.0920  0.9139
71684SOL    HW124982   4.040   2.590   3.200  0.0733 -2.0336 -0.4334
71684SOL    HW224983   3.892   2.618   3.182  0.3486  1.4890  1.8340
71685SOL     OW24984   5.299  12.081   4.411 -0.0605 -0.4459  0.2286
71685SOL    HW124985   5.313  12.022   4.484 -0.0861  0.5286  1.0421
71685SOL    HW224986   5.372  12.143   4.415 -1.3455  1.1052  0.9485
71686SOL     OW24987  10.934  11.971   5.478  0.1172  0.1840  0.1848
71686SOL    HW124988  10.900  12.037   5.417  1.3895  1.6242  0.9586
71686SOL    HW224989  10.861  11.910   5.491 -1.1364  1.4680 -0.5157
71687SOL     OW24990   8.250   2.725   1.991 -0.3869  0.2177  0.4696
71687SOL    HW124991   8.226   2.801   1.937 -0.4958  0.3084  0.6459
71687SOL    HW224992   8.265   2.655   1.928  0.0321  0.4713  0.2847
71688SOL     OW24993   2.241  10.707  10.167  0.2156  0.3153 -0.1170
71688SOL    HW124994   2.189  10.758  10.230 -0.0683 -1.5940  1.2708
71688SOL    HW224995   2.332  10.729  10.187  0.0561  1.8878 -0.9902
71689SOL     OW24996   4.772   3.564   4.648  0.1958 -0.4182 -0.5009
71689SOL    HW124997   4.841   3.550   4.584  1.6577 -2.6717  1.3703
71689SOL    HW224998   4.693   3.530   4.606  0.3223  1.3601 -2.3302
71690SOL     OW24999   6.895   9.517   8.814  0.1776 -0.1929 -0.1390
71690SOL    HW125000   6.842   9.596   8.816 -0.3420 -0.5259 -0.4913
71690SOL    HW225001   6.922   9.508   8.723  0.0681 -0.5281 -0.1411
71691SOL     OW25002   6.272   2.941  12.484 -0.3439  0.3965 -0.1097
71691SOL    HW125003   6.350   2.894  12.456 -1.4185 -0.6783 -1.5011
71691SOL    HW225004   6.207   2.922  12.415 -1.5695  1.9246  0.5669
71692SOL     OW25005   9.173  12.980  10.678 -0.3561  0.3445  0.0110
71692SOL    HW125006   9.268  12.991  10.677 -0.4402  1.1471 -0.2637
71692SOL    HW225007   9.159  12.886  10.673  0.4243  0.2823 -2.6439
71693SOL     OW25008   8.536  10.583  11.066 -0.0473  0.2318 -0.8037
71693SOL    HW125009   8.581  10.538  11.138 -0.4204  0.8335 -0.1809
71693SOL    HW225010   8.607  10.611  11.008  0.3592  0.7347 -0.0860
71694SOL     OW25011   6.539   6.995   5.476 -0.5044  0.3213  0.2384
71694SOL    HW125012   6.482   7.072   5.484 -0.6675  0.1445  0.7674
71694SOL    HW225013   6.615   7.016   5.530 -0.8716 -0.1876  0.9582
71695SOL     OW25014   8.679   3.006   2.176 -0.5927  0.2765 -0.6587
71695SOL    HW125015   8.585   2.989   2.184 -0.6269  0.6337 -0.2408
71695SOL    HW225016   8.693   3.086   2.227  0.0725 -0.2158 -0.0502
71696SOL     OW25017  12.390  12.099   4.260 -0.3791 -0.0883 -0.0077
71696SOL    HW125018  12.333  12.060   4.194 -0.0778  1.7341 -1.4335
71696SOL    HW225019  12.349  12.183   4.281  0.8496  0.4810  0.2215
71697SOL     OW25020   4.798  12.552   3.824  0.0824 -0.2820 -0.3621
71697SOL    HW125021   4.859  12.547   3.898 -3.3030  0.5351  2.7863
71697SOL    HW225022   4.800  12.644   3.798  0.0059 -0.2092 -0.1078
71698SOL     OW25023   9.020  11.404   9.715 -0.5367  0.0954 -0.1144
71698SOL    HW125024   9.047  11.430   9.803 -1.4288  0.4754  0.0593
71698SOL    HW225025   9.098  11.362   9.678  0.3799  1.4320  0.2302
71699SOL     OW25026   3.219   2.881   5.203 -0.3882  0.1272  0.2589
71699SOL    HW125027   3.272   2.805   5.228  0.5009  1.0988  1.4977
71699SOL    HW225028   3.194   2.864   5.112  1.7821 -0.5420 -0.2786
71700SOL     OW25029   2.187   4.646  13.017 -0.2108  0.1155 -0.3599
71700SOL    HW125030   2.238   4.567  12.999 -0.4714 -0.2528  0.4690
71700SOL    HW225031   2.251   4.709  13.049  0.6438  1.4698 -4.1901
71701SOL     OW25032   8.941   1.409  11.149 -0.1871 -0.1651  0.2873
71701SOL    HW125033   8.861   1.385  11.195 -1.9094 -0.0198 -2.4221
71701SOL    HW225034   8.951   1.503  11.163 -2.1276  0.3876 -1.5672
71702SOL     OW25035   6.919   0.542  12.468  0.1469  0.0721  0.1686
71702SOL    HW125036   6.974   0.596  12.412  0.0406  1.0963  1.0267
71702SOL    HW225037   6.960   0.456  12.466  0.0604  0.0395 -1.5829
71703SOL     OW25038   6.253   4.861  10.335 -0.0176  0.0145  0.0852
71703SOL    HW125039   6.234   4.818  10.252  1.9124  0.3487 -0.5909
71703SOL    HW225040   6.277   4.950  10.311 -0.4274  0.4183  1.1192
71704SOL     OW25041   2.782   9.155   0.596 -0.1049  0.0251  0.4545
71704SOL    HW125042   2.698   9.188   0.563 -0.1436  0.8786  1.3605
71704SOL    HW225043   2.760   9.112   0.678 -0.0963 -2.6215 -0.8249
71705SOL     OW25044   0.450   7.899   3.710 -0.1836 -0.3546  0.2012
71705SOL    HW125045   0.434   7.805   3.707  0.8529 -0.6481  2.2092
71705SOL    HW225046   0.430   7.924   3.800  1.7151  0.8964  0.3261
71706SOL     OW25047   1.437  12.936  12.123  0.1930  0.1555  0.0603
71706SOL    HW125048   1.347  12.959  12.143  0.8460  1.5663  1.5821
71706SOL    HW225049   1.469  12.893  12.203  0.7710 -0.6378 -0.5832
71707SOL     OW25050   9.021   3.970   2.256  0.1997 -0.1981  0.1171
71707SOL    HW125051   9.048   3.958   2.165  1.0644  1.2874  0.1490
71707SOL    HW225052   9.101   3.998   2.301 -0.2843 -0.6280  1.2875
71708SOL     OW25053  10.978   5.163   8.657  0.1522 -0.3907  0.2128
71708SOL    HW125054  11.031   5.190   8.583 -1.2043  0.2079 -0.5835
71708SOL    HW225055  10.888   5.186   8.632 -0.6338 -2.2723  1.0581
71709SOL     OW25056  12.017   3.044   4.711 -0.7125  0.2049  0.1237
71709SOL    HW125057  12.066   3.047   4.794 -0.8376  0.7475  0.1836
71709SOL    HW225058  11.950   3.111   4.721 -0.6588  0.3494 -0.4625
71710SOL     OW25059   4.917   3.517   5.321  0.1374  0.0316  0.1168
71710SOL    HW125060   4.967   3.526   5.239  0.3741  0.8839  0.3415
71710SOL    HW225061   4.875   3.432   5.314  0.2683  0.0310 -0.8367
71711SOL     OW25062   8.712   0.602   8.517  0.3208  0.5696  0.1940
71711SOL    HW125063   8.730   0.515   8.482  1.8310  0.2912  1.5274
71711SOL    HW225064   8.710   0.589   8.612  1.5433  2.1187  0.4753
71712SOL     OW25065  11.802   1.916   1.597 -0.1931 -0.2871  0.3977
71712SOL    HW125066  11.742   1.942   1.667  0.3629  0.3061  0.6659
71712SOL    HW225067  11.819   1.996   1.548  1.7286 -0.0136  1.3838
71713SOL     OW25068  12.734  11.044   7.702  0.9296 -0.0187 -0.2901
71713SOL    HW125069  12.765  10.954   7.714  0.7591  0.0731  1.0124
71713SOL    HW225070  12.639  11.038   7.711  0.9309  0.3087 -0.0393
71714SOL     OW25071   1.423   2.037  12.781 -0.0310 -0.2900 -0.0765
71714SOL    HW125072   1.379   2.035  12.696 -1.1672 -0.6517  0.4966
71714SOL    HW225073   1.425   1.946  12.809  2.1538 -0.4573 -0.5827
71715SOL     OW25074   6.460   1.213   1.573  0.5122  0.2726  0.5645
71715SOL    HW125075   6.469   1.307   1.555 -0.5475  0.0791 -1.3099
71715SOL    HW225076   6.540   1.174   1.539  0.0055  0.3042 -0.7521
71716SOL     OW25077  12.957   8.211   6.772  0.5201  0.0348  0.0904
71716SOL    HW125078  13.001   8.202   6.856  0.7288 -0.7730 -0.0907
71716SOL    HW225079  12.918   8.298   6.773  0.8288  0.1643  0.8734
71717SOL     OW25080   4.248   4.806  10.951 -0.3605 -0.9144  0.3790
71717SOL    HW125081   4.297   4.856  11.016 -1.2503 -0.1576  0.4925
71717SOL    HW225082   4.159   4.803  10.987 -0.6583 -1.2520 -0.3830
71718SOL     OW25083   5.954   5.545   1.119 -0.6560  0.0675 -0.1601
71718SOL    HW125084   6.021   5.564   1.186 -2.1247  0.8258  1.1828
71718SOL    HW225085   6.001   5.546   1.036  1.0760  0.0767  0.7842
71719SOL     OW25086  11.030   7.665   8.807  0.0590 -0.2142 -0.1300
71719SOL    HW125087  11.052   7.683   8.898 -0.9390  0.2749  0.0368
71719SOL    HW225088  11.052   7.746   8.761  0.0486 -0.2655 -0.2243
71720SOL     OW25089   6.005   5.298   2.598 -0.4646 -0.2927  0.1491
71720SOL    HW125090   6.033   5.239   2.528  0.1131 -0.4841  0.5292
71720SOL    HW225091   6.067   5.282   2.669 -0.9014  0.0652  0.6220
71721SOL     OW25092  10.376   0.432  12.941  0.1683  0.0994  0.4786
71721SOL    HW125093  10.443   0.405  12.878 -0.4451 -2.0348  0.6633
71721SOL    HW225094  10.305   0.369  12.929 -1.2162  1.4392  1.2865
71722SOL     OW25095   3.716   2.022  11.260 -0.4207  0.5027 -0.0731
71722SOL    HW125096   3.628   2.028  11.299 -1.0617  1.0053 -1.5296
71722SOL    HW225097   3.741   1.930  11.271 -1.9241 -0.0916 -1.2628
71723SOL     OW25098   6.586   9.354   9.369  0.0118  0.0382  0.1250
71723SOL    HW125099   6.534   9.331   9.446 -0.9280  1.6336  0.0110
71723SOL    HW225100   6.657   9.408   9.403  1.0012 -1.2113  0.1346
71724SOL     OW25101   1.154   0.105   6.263 -0.4240 -0.2154 -0.0997
71724SOL    HW125102   1.187   0.043   6.328  1.3631  0.3872 -0.3780
71724SOL    HW225103   1.143   0.052   6.184 -1.2660 -0.6640  0.3047
71725SOL     OW25104   6.020   4.863   3.940  0.3929  0.2648  0.3646
71725SOL    HW125105   6.040   4.932   3.877  0.1986 -0.4593 -0.5114
71725SOL    HW225106   6.065   4.785   3.905 -2.6122 -1.0633 -0.8883
71726SOL     OW25107  11.783  11.292   3.315  0.2599  0.4369 -0.1185
71726SOL    HW125108  11.755  11.311   3.405  0.6573  0.0425  0.0964
71726SOL    HW225109  11.754  11.368   3.264  3.0544  2.3480  0.9372
71727SOL     OW25110   8.102   7.765   2.708 -0.2798  0.2335  1.0009
71727SOL    HW125111   8.123   7.674   2.685  0.8224  0.8210 -0.4880
71727SOL    HW225112   8.023   7.784   2.657 -0.5379  0.1043  1.3495
71728SOL     OW25113   8.187   6.534   9.507  0.4502 -0.5681  0.0962
71728SOL    HW125114   8.195   6.441   9.484 -1.1326 -1.2985  2.1945
71728SOL    HW225115   8.174   6.535   9.602 -2.5377  1.5466 -0.1833
71729SOL     OW25116   5.398   1.471   0.726  0.2765 -0.1650  0.3698
71729SOL    HW125117   5.411   1.433   0.639  0.5632  0.8932 -0.0657
71729SOL    HW225118   5.365   1.399   0.779  1.5877 -1.2421 -0.2070
71730SOL     OW25119   0.864   5.725   4.493 -0.3000 -0.0999 -0.3923
71730SOL    HW125120   0.902   5.688   4.572  1.6577  2.2089 -0.1565
71730SOL    HW225121   0.824   5.650   4.448  1.1197 -1.9682  1.3070
71731SOL     OW25122   8.166  10.212   6.557  0.6700 -0.0720 -0.1958
71731SOL    HW125123   8.194  10.124   6.581  3.0597  0.6002 -0.2963
71731SOL    HW225124   8.093  10.197   6.496  0.0650 -1.9158  0.8945
71732SOL     OW25125   5.342   6.914  13.262  0.4407  0.2533  0.1563
71732SOL    HW125126   5.399   6.841  13.288  1.4553  0.9336 -0.1298
71732SOL    HW225127   5.279   6.921  13.333  0.8709 -0.3391  0.6115
71733SOL     OW25128  10.269   9.309  13.000  0.3762 -0.5174  0.3149
71733SOL    HW125129  10.283   9.258  12.920  1.5004  0.3477 -0.0650
71733SOL    HW225130  10.217   9.384  12.973  0.3877 -0.4468  0.4828
71734SOL     OW25131   3.586   5.827  10.236 -0.2166 -0.0139  0.1419
71734SOL    HW125132   3.579   5.731  10.236 -1.0447  0.0384  0.4037
71734SOL    HW225133   3.541   5.854  10.316  0.4501  0.5664  0.3248
71735SOL     OW25134   5.853   6.053   1.900  0.0011 -0.3394 -0.2396
71735SOL    HW125135   5.821   5.966   1.925 -0.1911  0.0777  1.0675
71735SOL    HW225136   5.948   6.046   1.903  0.0211 -0.8791 -1.5682
71736SOL     OW25137   5.366   5.281  10.095 -0.0941 -0.1197 -0.4356
71736SOL    HW125138   5.366   5.370  10.059 -0.2279 -1.0712 -2.9915
71736SOL    HW225139   5.274   5.257  10.100 -0.0737 -0.0573  0.5271
71737SOL     OW25140   9.050   5.540   7.563  0.3517 -0.1254 -0.5110
71737SOL    HW125141   8.997   5.493   7.498  0.0516  2.2066 -2.0516
71737SOL    HW225142   9.061   5.476   7.634 -4.1448 -0.9782 -0.2510
71738SOL     OW25143   1.306   8.740  12.507  1.0690  0.5667 -1.1901
71738SOL    HW125144   1.265   8.667  12.553 -0.5971  2.5102  0.5925
71738SOL    HW225145   1.307   8.713  12.415 -0.5772 -1.2028 -0.7330
71739SOL     OW25146   4.430   7.234   3.071 -0.3232  0.1367 -0.6032
71739SOL    HW125147   4.466   7.300   3.012 -1.8231  0.2894 -1.4242
71739SOL    HW225148   4.403   7.162   3.014 -0.0247 -0.5759  0.1235
71740SOL     OW25149  10.942   7.037   5.886  0.6531 -0.1050  0.0172
71740SOL    HW125150  10.964   6.947   5.863  1.6092  0.0269  0.3927
71740SOL    HW225151  10.987   7.090   5.820  1.1552  0.1508  0.5643
71741SOL     OW25152   0.105   0.169  11.889 -0.2678  0.7179  0.0784
71741SOL    HW125153   0.054   0.089  11.890  1.0139 -0.1379  0.9743
71741SOL    HW225154   0.171   0.155  11.821 -0.4095  1.2642 -0.1766
71742SOL     OW25155   7.077   0.419   1.819  0.2530 -0.3370 -0.5066
71742SOL    HW125156   7.150   0.387   1.872  0.7292  0.5837 -0.5733
71742SOL    HW225157   7.078   0.363   1.741 -0.2254 -1.4590  0.2806
71743SOL     OW25158  12.476  10.479  10.679  0.0176 -0.6415 -0.4102
71743SOL    HW125159  12.413  10.411  10.704 -0.5990  0.0868  0.0581
71743SOL    HW225160  12.535  10.435  10.618 -1.9571 -0.9430 -2.2314
71744SOL     OW25161   4.945  12.090  12.708 -0.3528  0.6042 -0.2394
71744SOL    HW125162   5.020  12.090  12.768 -1.6617 -0.6971  1.5116
71744SOL    HW225163   4.952  12.008  12.660 -0.1511  0.9158 -0.7452
71745SOL     OW25164   4.918   1.079  12.715 -0.1834 -0.6395  0.5262
71745SOL    HW125165   4.880   1.052  12.631  1.6140  0.8122 -0.8482
71745SOL    HW225166   4.861   1.149  12.745 -0.6196 -0.9020  0.3237
71746SOL     OW25167   4.472   1.184   6.468  0.1720 -0.4551 -0.5235
71746SOL    HW125168   4.486   1.219   6.380 -1.1878 -0.0890 -0.6257
71746SOL    HW225169   4.425   1.102   6.454 -0.2496 -0.2829 -0.1326
71747SOL     OW25170   8.120   5.408  11.347 -0.0832  0.8124 -0.3099
71747SOL    HW125171   8.057   5.336  11.357 -0.8738  1.2451 -1.9025
71747SOL    HW225172   8.204   5.370  11.373 -0.8173 -0.0662  0.8892
71748SOL     OW25173  10.989   8.302   4.070 -0.1311 -0.3243 -0.2322
71748SOL    HW125174  10.961   8.278   4.158 -0.1911  0.2609 -0.0838
71748SOL    HW225175  10.995   8.219   4.023 -0.3006 -0.6229  0.2626
71749SOL     OW25176   6.037   4.788   1.166  0.2184 -0.3738  0.0546
71749SOL    HW125177   5.990   4.772   1.084 -1.2319  0.1681  0.7422
71749SOL    HW225178   6.082   4.871   1.152 -1.8483  0.9048  0.5173
71750SOL     OW25179  13.243  13.141  12.265  0.3702  0.2693  0.3465
71750SOL    HW125180  13.170  13.093  12.226 -0.1567  0.8116  0.6358
71750SOL    HW225181  13.204  13.224  12.294  1.6928  1.8828 -2.1662
71751SOL     OW25182   5.743   6.645   7.205  0.0341 -0.4646 -0.1160
71751SOL    HW125183   5.757   6.716   7.267 -1.6552 -0.7021  0.5789
71751SOL    HW225184   5.755   6.565   7.255  0.4616 -0.6726 -0.5401
71752SOL     OW25185   4.041   1.005   7.923 -0.2623 -0.2513 -0.2661
71752SOL    HW125186   4.048   0.965   8.010 -0.1070  1.0619  0.3517
71752SOL    HW225187   3.966   0.963   7.883 -0.7556 -0.3990  0.7821
71753SOL     OW25188   5.971  12.136   3.999 -0.0114  0.1112  0.2787
71753SOL    HW125189   6.051  12.084   4.000  0.8526  1.3245 -1.6412
71753SOL    HW225190   5.997  12.220   4.037 -0.7553  0.0429  0.9684
71754SOL     OW25191   4.073   9.138   0.385 -0.1991  0.0304 -0.2837
71754SOL    HW125192   4.031   9.189   0.316 -1.5955 -1.1230 -0.3373
71754SOL    HW225193   4.167   9.147   0.368 -0.4514  1.3959 -1.1164
71755SOL     OW25194   2.541   7.889  10.252 -0.1869  0.8483 -0.3370
71755SOL    HW125195   2.494   7.952  10.198 -1.1787 -0.4066 -1.0068
71755SOL    HW225196   2.611   7.857  10.195  0.5059  1.5474  0.1072
71756SOL     OW25197  12.688   9.386   5.501  0.5208  0.6220  0.4931
71756SOL    HW125198  12.600   9.406   5.533  0.7515 -0.4387  1.8576
71756SOL    HW225199  12.684   9.294   5.477  1.5493  0.2404  1.6925
71757SOL     OW25200  12.429   6.108   0.849  0.4415  0.0074 -0.2693
71757SOL    HW125201  12.447   6.181   0.908  1.6414 -1.6713  1.5604
71757SOL    HW225202  12.433   6.030   0.904  0.6172 -1.5834 -2.3814
71758SOL     OW25203   2.113   5.113  10.778  0.3016  0.1086  0.3443
71758SOL    HW125204   2.116   5.041  10.841  0.5419 -0.1070  0.0930
71758SOL    HW225205   2.199   5.154  10.784  1.1207 -1.2227 -1.3354
71759SOL     OW25206   5.205   2.020   4.041  0.1334  0.0359  0.6117
71759SOL    HW125207   5.229   2.040   4.131  1.8244  0.5553  0.0784
71759SOL    HW225208   5.284   1.983   4.002  0.0558  1.5494 -1.1449
71760SOL     OW25209  13.114   3.517   6.148 -0.3853 -0.1332 -0.1167
71760SOL    HW125210  13.122   3.611   6.130 -3.4513  0.2266 -0.1609
71760SOL    HW225211  13.146   3.508   6.238  0.1725  0.9092 -0.1913
71761SOL     OW25212   3.895   2.106   9.145  0.0585 -0.9376 -0.4970
71761SOL    HW125213   3.838   2.040   9.185 -0.2828 -1.1014 -1.2241
71761SOL    HW225214   3.837   2.156   9.088  0.0792  0.7509  0.8907
71762SOL     OW25215   7.625   8.443  13.067 -0.2298  0.4698 -0.5348
71762SOL    HW125216   7.631   8.347  13.072 -0.3502  0.2783 -2.8934
71762SOL    HW225217   7.669   8.474  13.146  2.0892 -1.4997 -0.9259
71763SOL     OW25218  11.015   7.453   4.906 -0.3698  0.1452 -0.2947
71763SOL    HW125219  10.982   7.398   4.835 -1.6683  0.5897 -0.0466
71763SOL    HW225220  11.095   7.492   4.871  1.1255 -2.5258 -0.1993
71764SOL     OW25221   5.589   7.217   3.657 -0.2135  0.0981 -0.1337
71764SOL    HW125222   5.607   7.135   3.609  1.0020 -0.1917  0.7719
71764SOL    HW225223   5.518   7.194   3.716 -0.5838 -0.0083 -0.6113
71765SOL     OW25224   1.096  12.601   2.409 -0.2538  0.6967  0.8620
71765SOL    HW125225   1.098  12.696   2.398  0.6785  0.6031  0.1148
71765SOL    HW225226   1.172  12.570   2.360 -0.3555 -0.4073  1.3872
71766SOL     OW25227   0.079   9.500  11.387 -0.0892  0.4862 -0.5004
71766SOL    HW125228   0.117   9.520  11.301  0.1153  0.6079 -0.3808
71766SOL    HW225229  -0.015   9.497  11.370 -0.4207  4.1269 -0.0724
71767SOL     OW25230   0.560  11.478   7.788 -0.4535 -0.0965 -0.1555
71767SOL    HW125231   0.497  11.409   7.770  0.0294 -0.8798  1.0317
71767SOL    HW225232   0.627  11.436   7.842 -0.2318  1.3200  0.7405
71768SOL     OW25233  10.541   1.886   3.768  0.2907  0.2665 -0.1298
71768SOL    HW125234  10.529   1.973   3.807 -1.9311 -1.1205  2.6776
71768SOL    HW225235  10.632   1.864   3.785  0.4945  1.4626  0.4250
71769SOL     OW25236   9.991   9.764  10.634  0.1929  0.6068 -0.1947
71769SOL    HW125237   9.946   9.705  10.693  0.0598  1.0453  0.1468
71769SOL    HW225238  10.028   9.832  10.691  2.6815 -0.5903 -0.2455
71770SOL     OW25239  11.536  12.969   9.378  0.3339 -0.4398 -0.5885
71770SOL    HW125240  11.455  12.991   9.425 -1.3246 -3.8958 -1.4674
71770SOL    HW225241  11.583  12.911   9.439 -0.0748 -2.0171 -1.7173
71771SOL     OW25242   9.086   0.839   9.599 -0.1317  0.0175 -0.0049
71771SOL    HW125243   9.003   0.886   9.588 -0.2743 -0.2221  0.0601
71771SOL    HW225244   9.078   0.795   9.683 -0.6627 -1.4635 -0.7906
71772SOL     OW25245  10.619   9.615   5.890 -0.3311  0.6179  0.6834
71772SOL    HW125246  10.615   9.562   5.810  1.6442  1.7319 -0.2237
71772SOL    HW225247  10.540   9.668   5.888  0.4045  1.7230 -1.3764
71773SOL     OW25248   6.789   0.691   5.340  0.7645 -0.4159 -0.3723
71773SOL    HW125249   6.769   0.717   5.430  2.4865 -0.9599  0.2079
71773SOL    HW225250   6.752   0.603   5.332 -0.8326  0.2465 -0.7748
71774SOL     OW25251   1.083   7.910   1.431 -0.0298  0.6895 -0.1602
71774SOL    HW125252   1.123   7.826   1.452 -0.2113  0.7572  0.4675
71774SOL    HW225253   1.131   7.973   1.485 -0.7410  0.8192  0.3333
71775SOL     OW25254  12.063  11.745  10.957  0.5231  0.7156 -0.0777
71775SOL    HW125255  12.109  11.829  10.958  1.7890  0.0723 -1.0305
71775SOL    HW225256  12.097  11.698  11.033 -0.1077  1.0000  0.3945
71776SOL     OW25257   6.706   7.181  10.588 -0.4738  0.1305  0.5295
71776SOL    HW125258   6.633   7.198  10.647 -0.5675  0.4212  0.3333
71776SOL    HW225259   6.665   7.179  10.501 -0.6905 -2.3317  0.6131
71777SOL     OW25260   4.049  10.134   9.332  0.3500 -0.0960 -0.2957
71777SOL    HW125261   3.967  10.086   9.328  0.8320 -0.8557 -2.0877
71777SOL    HW225262   4.108  10.076   9.382 -0.1690  0.4451  0.9789
71778SOL     OW25263  10.049   0.478  11.896  0.7456 -0.1107 -0.6857
71778SOL    HW125264  10.093   0.403  11.936 -3.5486 -2.5547  0.0871
71778SOL    HW225265  10.090   0.488  11.810  2.6687 -2.1272 -0.0929
71779SOL     OW25266  13.258   3.268   3.634 -0.0952  0.0556  0.2346
71779SOL    HW125267  13.174   3.296   3.671 -0.1014  0.8719 -0.3687
71779SOL    HW225268  13.249   3.282   3.540  0.2203 -1.1902 -0.0026
71780SOL     OW25269   7.608  12.744  11.579 -0.3009  0.3629 -0.2565
71780SOL    HW125270   7.641  12.803  11.512  0.4231  1.2847  0.8693
71780SOL    HW225271   7.673  12.674  11.585 -0.8308 -0.2179 -1.1364
71781SOL     OW25272  11.791  12.852   2.117  0.2244 -0.5586 -0.0205
71781SOL    HW125273  11.725  12.831   2.051  0.0976 -1.1396  0.2799
71781SOL    HW225274  11.757  12.930   2.161 -0.2036 -0.7890  0.0588
71782SOL     OW25275   7.922  12.090   6.755 -0.1118 -0.3392  0.3142
71782SOL    HW125276   7.966  12.152   6.697  3.1222 -2.1597  0.5448
71782SOL    HW225277   7.933  12.127   6.842  0.1778 -0.3603  0.2873
71783SOL     OW25278   2.485  11.489   1.462 -0.2016  0.0774  0.5046
71783SOL    HW125279   2.476  11.395   1.445  0.0632 -0.1094  1.3346
71783SOL    HW225280   2.491  11.529   1.375 -1.8175 -0.5085  0.0840
71784SOL     OW25281   5.542   3.598   3.233  0.0099 -0.4033  0.0525
71784SOL    HW125282   5.621   3.572   3.187 -0.4238  0.7320 -1.3965
71784SOL    HW225283   5.471   3.551   3.189 -0.3610  0.3712 -0.2153
71785SOL     OW25284  12.064   8.811   1.797 -0.0581  0.4087  0.0692
71785SOL    HW125285  12.147   8.805   1.750 -0.9231  0.5381 -1.5707
71785SOL    HW225286  12.072   8.890   1.851  0.4285  1.1451 -1.0456
71786SOL     OW25287   6.085   5.926   3.062 -0.2491  0.5691 -0.3128
71786SOL    HW125288   6.142   5.886   3.127 -1.5185 -0.7319  0.0242
71786SOL    HW225289   6.120   5.897   2.978 -1.2709 -1.5029 -0.0735
71787SOL     OW25290  12.947   7.235  12.882  0.3367  0.1380 -0.0148
71787SOL    HW125291  12.941   7.184  12.963 -0.8775  0.2209 -0.0376
71787SOL    HW225292  13.015   7.300  12.899  0.6895 -0.3870  0.6266
71788SOL     OW25293   6.344  11.295   8.467  0.1568 -0.1568 -0.5951
71788SOL    HW125294   6.435  11.301   8.497 -0.1027  0.6921  0.0602
71788SOL    HW225295   6.297  11.256   8.541 -0.3522  1.2504 -0.1541
71789SOL     OW25296   5.203   1.340   2.729 -0.7072 -0.5146  0.5907
71789SOL    HW125297   5.258   1.312   2.803  0.4021  2.7898  1.1679
71789SOL    HW225298   5.114   1.335   2.763 -0.2982 -0.1331  1.7811
71790SOL     OW25299   1.235   0.957   5.793  0.3153 -0.2635 -0.0497
71790SOL    HW125300   1.143   0.955   5.819 -0.3191 -1.4454 -2.1582
71790SOL    HW225301   1.235   0.931   5.701  2.7382  0.0996 -0.2278
71791SOL     OW25302   7.634   1.479   4.744 -0.5757 -0.2373  0.1499
71791SOL    HW125303   7.557   1.428   4.719 -1.0003  1.5122 -2.4563
71791SOL    HW225304   7.701   1.454   4.681  0.4067 -0.2873  1.1822
71792SOL     OW25305   1.003   1.702   0.534 -0.0467  0.0706  0.6096
71792SOL    HW125306   1.025   1.610   0.546 -1.9678 -0.8253 -1.8656
71792SOL    HW225307   0.929   1.717   0.593 -1.7713 -0.9292 -1.2026
71793SOL     OW25308  13.125   0.970  10.250 -0.1748 -0.4537 -0.1868
71793SOL    HW125309  13.077   1.035  10.302  1.1309  0.8076 -0.4983
71793SOL    HW225310  13.159   0.908  10.315 -0.4783 -0.1898  0.2276
71794SOL     OW25311   8.957   8.739   7.221  0.6691  0.4834  0.0672
71794SOL    HW125312   8.928   8.777   7.138 -0.6016 -1.4013 -0.4188
71794SOL    HW225313   8.891   8.768   7.285 -0.7838 -1.4083 -0.4645
71795SOL     OW25314  11.171   3.125   5.629  0.4398  0.2804 -0.3220
71795SOL    HW125315  11.187   3.210   5.669  0.9097 -0.4842  1.2254
71795SOL    HW225316  11.254   3.103   5.586  0.7892  0.0160  0.4677
71796SOL     OW25317  12.250   9.301   4.413  0.2810  0.0455  0.6546
71796SOL    HW125318  12.260   9.394   4.436  0.9412 -0.2506  1.6182
71796SOL    HW225319  12.329   9.280   4.364  0.3657 -0.1253  0.8608
71797SOL     OW25320   7.041   3.807  12.319  0.6355 -0.4079  0.2991
71797SOL    HW125321   6.955   3.804  12.278  0.5475  0.0881  0.4474
71797SOL    HW225322   7.066   3.715  12.329  0.4244 -0.5414 -0.3630
71798SOL     OW25323   4.318   8.416  10.046 -0.8861 -0.1898 -0.2647
71798SOL    HW125324   4.389   8.354  10.028 -0.8305 -1.1619  2.6695
71798SOL    HW225325   4.355   8.501  10.026  0.0005 -0.8887 -1.7797
71799SOL     OW25326  10.596  11.568   2.485  0.6486  0.2703 -0.4964
71799SOL    HW125327  10.522  11.524   2.527  0.7600 -0.4499 -1.0430
71799SOL    HW225328  10.567  11.659   2.473 -0.0710  0.0399 -0.5355
71800SOL     OW25329   9.875  12.656   0.862  0.2634  0.0895  0.0814
71800SOL    HW125330   9.817  12.684   0.933  0.9967 -0.1112  0.7828
71800SOL    HW225331   9.958  12.701   0.879  0.7550 -0.7318 -0.0737
71801SOL     OW25332  11.716   9.611   0.445 -0.2289  0.3143  0.4945
71801SOL    HW125333  11.641   9.606   0.504 -0.6667 -0.4203 -0.1031
71801SOL    HW225334  11.784   9.558   0.487  0.6668  2.4792  1.9759
71802SOL     OW25335   3.200   1.807   3.031  0.0532 -0.1698  0.3149
71802SOL    HW125336   3.268   1.744   3.054 -0.2536 -0.4908  0.3614
71802SOL    HW225337   3.185   1.857   3.112  0.8728  0.5185  0.0501
71803SOL     OW25338  10.675  12.371   0.457 -0.0394  0.8563 -0.6963
71803SOL    HW125339  10.710  12.374   0.368  0.8689 -1.3349 -0.4912
71803SOL    HW225340  10.753  12.370   0.513 -0.5788  1.1726  0.0804
71804SOL     OW25341  10.068  12.176   2.099 -0.8140 -0.3150  0.0094
71804SOL    HW125342  10.093  12.248   2.157  0.5861  0.7612 -1.8254
71804SOL    HW225343  10.116  12.100   2.132  0.4546  0.4276 -0.0804
71805SOL     OW25344   1.768   2.112   2.579 -0.9496  0.3901  0.2822
71805SOL    HW125345   1.850   2.075   2.547 -2.1678 -2.2234 -0.0450
71805SOL    HW225346   1.731   2.158   2.504 -0.2324  0.7888  0.1680
71806SOL     OW25347   6.773   2.538   1.335 -0.0616  0.2159  0.4167
71806SOL    HW125348   6.692   2.521   1.384  0.1344  0.0048  0.6673
71806SOL    HW225349   6.841   2.544   1.402  0.0978  0.6176  0.2258
71807SOL     OW25350  10.248   0.750  11.722  0.3670 -0.3102  0.2946
71807SOL    HW125351  10.218   0.761  11.812  0.6825 -2.9192  0.8008
71807SOL    HW225352  10.259   0.839  11.689 -0.9401  0.7106  2.4183
71808SOL     OW25353   3.905   6.150   9.074  0.3362  0.0165 -0.4708
71808SOL    HW125354   3.813   6.126   9.080  0.6158 -1.5330 -1.6864
71808SOL    HW225355   3.904   6.243   9.053 -0.9142  0.2042  0.2862
71809SOL     OW25356   1.247  10.819   5.248 -0.1060  0.7442  0.2244
71809SOL    HW125357   1.235  10.748   5.184  0.2167 -0.1291  1.1072
71809SOL    HW225358   1.332  10.857   5.224 -0.4494  1.0937 -0.4824
71810SOL     OW25359  10.811   0.389  12.678  0.2353  0.4014  0.1578
71810SOL    HW125360  10.867   0.313  12.662 -0.3533 -0.2428  1.1262
71810SOL    HW225361  10.863   0.463  12.645  1.2065 -0.3019  0.0531
71811SOL     OW25362   1.649  11.388  10.418 -0.0809  0.1005 -0.4058
71811SOL    HW125363   1.708  11.367  10.490  0.9498  0.7990 -1.0135
71811SOL    HW225364   1.562  11.392  10.458  0.6680  2.3996  1.2244
71812SOL     OW25365   2.996  12.134   2.600  0.3121 -0.4689  0.3658
71812SOL    HW125366   3.083  12.094   2.605  0.0649 -0.8621  2.7895
71812SOL    HW225367   2.936  12.060   2.613 -0.3748 -0.0979 -0.6290
71813SOL     OW25368  12.040   2.553   2.126  0.3436 -0.2518 -1.2429
71813SOL    HW125369  12.117   2.513   2.166 -0.7933 -0.1525  1.1890
71813SOL    HW225370  12.053   2.647   2.137 -0.7115 -0.2713  0.4344
71814SOL     OW25371   3.068   0.100  10.961  0.2910  0.1557 -0.1386
71814SOL    HW125372   3.114   0.099  11.045 -0.5589  0.8739  0.3515
71814SOL    HW225373   3.080   0.012  10.926  1.6413  0.1848  0.1825
71815SOL     OW25374   2.476   2.130   8.211 -0.1357 -0.1137  0.3475
71815SOL    HW125375   2.456   2.193   8.142 -0.7466 -0.4891  0.1692
71815SOL    HW225376   2.392   2.086   8.227 -0.4212  1.0533  2.4430
71816SOL     OW25377  12.844  13.247  11.700  0.1408  0.0256 -0.0130
71816SOL    HW125378  12.838  13.191  11.777  0.3484  0.3610  0.2536
71816SOL    HW225379  12.754  13.276  11.683  0.1185  0.0796  0.2018
71817SOL     OW25380   3.447   3.094   0.585 -0.3142  0.0515  0.4778
71817SOL    HW125381   3.535   3.057   0.577  0.0734  1.1368 -0.7056
71817SOL    HW225382   3.390   3.018   0.599  0.6398 -0.8254 -0.2062
71818SOL     OW25383   5.980   1.766   8.958  0.4799  0.4854  0.0004
71818SOL    HW125384   6.070   1.767   8.990  0.4584  3.1150  0.1714
71818SOL    HW225385   5.989   1.772   8.863  0.4877  0.5072  0.0025
71819SOL     OW25386  10.015   8.857   1.346  0.4271 -0.0208 -0.0741
71819SOL    HW125387   9.981   8.940   1.313  2.4924  1.1126  0.4891
71819SOL    HW225388  10.110   8.864   1.337  0.6435 -2.6854 -0.7894
71820SOL     OW25389   5.269   0.467   1.192 -0.4351 -0.0511  0.5800
71820SOL    HW125390   5.308   0.383   1.217 -0.1968  0.8446  3.5377
71820SOL    HW225391   5.206   0.444   1.123  2.0089 -2.1337 -1.1697
71821SOL     OW25392   5.991   7.889   2.208 -0.1882  0.3223  0.0680
71821SOL    HW125393   5.966   7.880   2.300  0.3171 -0.9887  0.1063
71821SOL    HW225394   6.035   7.973   2.202  0.0680  0.2734  1.1013
71822SOL     OW25395   7.583   3.751   8.815 -0.4408  0.2498 -0.3905
71822SOL    HW125396   7.597   3.669   8.863 -1.3557  0.2854 -0.0387
71822SOL    HW225397   7.601   3.820   8.879  1.8360  0.3984 -1.0912
71823SOL     OW25398  12.371   8.942   9.340 -0.3293 -0.0384  0.5980
71823SOL    HW125399  12.349   8.851   9.360 -0.3832 -0.2779 -0.5080
71823SOL    HW225400  12.340   8.955   9.250  1.0060  0.6289  0.2145
71824SOL     OW25401  11.568   4.716   9.453  0.6485 -0.4257 -0.6573
71824SOL    HW125402  11.615   4.765   9.385  0.5412  0.7685  0.1028
71824SOL    HW225403  11.570   4.773   9.529 -1.2616 -0.7194 -0.3456
71825SOL     OW25404   9.898   1.903  10.806 -0.2508  0.1587  0.4262
71825SOL    HW125405   9.971   1.844  10.824 -2.1304 -2.6068 -0.4240
71825SOL    HW225406   9.824   1.866  10.855 -1.9233  0.8066 -1.4635
71826SOL     OW25407   4.080   4.894   0.135  0.5581  0.1161 -0.4810
71826SOL    HW125408   4.072   4.976   0.182  0.8101 -0.7722  1.1892
71826SOL    HW225409   4.115   4.832   0.199  1.6512 -0.9872 -2.0478
71827SOL     OW25410   1.052   2.921  11.048 -0.5297  0.5071  0.3221
71827SOL    HW125411   1.013   2.833  11.043  0.0370  0.1728  1.5921
71827SOL    HW225412   1.083   2.937  10.958 -1.6467 -0.1073 -0.2009
71828SOL     OW25413   8.439  11.161  11.136 -0.1712 -0.0725  0.2189
71828SOL    HW125414   8.429  11.204  11.221 -0.3823  2.3715 -0.9558
71828SOL    HW225415   8.526  11.186  11.106 -0.7315  0.5508 -0.9853
71829SOL     OW25416   4.708   9.759   6.462 -1.0840  0.3501  0.6472
71829SOL    HW125417   4.762   9.791   6.534 -0.2796 -0.0190  0.2252
71829SOL    HW225418   4.674   9.675   6.493 -0.7471  0.1975  0.6129
71830SOL     OW25419   0.055   6.239   5.416 -0.2368  0.3628  0.0631
71830SOL    HW125420   0.057   6.182   5.494 -0.4377  0.6196  0.2587
71830SOL    HW225421   0.074   6.180   5.343 -0.1734  0.0938  0.2939
71831SOL     OW25422   1.489   5.478   4.724 -0.3951  0.3315  0.2473
71831SOL    HW125423   1.396   5.464   4.708 -0.2343 -2.8455  1.3048
71831SOL    HW225424   1.493   5.509   4.815 -0.4030  0.8588  0.0741
71832SOL     OW25425   3.904   3.688  11.037 -0.1560 -0.1021 -0.7584
71832SOL    HW125426   3.836   3.739  10.992  0.0907  1.1923  0.2757
71832SOL    HW225427   3.972   3.675  10.971 -0.1030  1.1718 -0.9895
71833SOL     OW25428   0.220   5.073   7.529 -0.5529  0.3224 -0.8485
71833SOL    HW125429   0.184   5.149   7.484 -2.1212 -0.0035 -0.2023
71833SOL    HW225430   0.196   5.086   7.621 -1.3151 -1.2012 -0.8036
71834SOL     OW25431   7.909   7.949   6.498 -0.4430 -0.2601 -0.3886
71834SOL    HW125432   7.917   7.965   6.592 -2.5526 -0.9509 -0.0544
71834SOL    HW225433   7.830   7.896   6.488 -1.9720  2.1890 -2.7711
71835SOL     OW25434  11.080   6.991   6.547 -0.0768 -0.2771 -0.0572
71835SOL    HW125435  11.154   6.998   6.485  0.0199 -1.8998 -0.1580
71835SOL    HW225436  11.003   7.002   6.492  0.0539  0.2878 -0.1363
71836SOL     OW25437   2.677  13.170   4.643  0.4719 -0.1224  0.1719
71836SOL    HW125438   2.669  13.240   4.708 -0.5685 -0.3031  0.2680
71836SOL    HW225439   2.765  13.180   4.607  0.9482  0.1871  1.3664
71837SOL     OW25440   4.785   7.413  10.740  0.0768 -0.5463  0.0494
71837SOL    HW125441   4.802   7.335  10.688  1.0094  1.1855 -2.4329
71837SOL    HW225442   4.872   7.441  10.770 -0.3010 -0.6813  1.3485
71838SOL     OW25443   5.842   9.788   7.956  0.2236 -0.4285 -0.4803
71838SOL    HW125444   5.864   9.763   7.866 -0.3346 -1.3770 -0.3611
71838SOL    HW225445   5.898   9.732   8.011  0.5568  0.1410 -0.2310
71839SOL     OW25446   7.487  12.505  10.554  0.1890  0.0925 -0.4714
71839SOL    HW125447   7.558  12.568  10.569  1.9565 -1.1508 -2.8083
71839SOL    HW225448   7.407  12.552  10.577  1.6051  2.3750  0.0672
71840SOL     OW25449   8.955   3.205   2.783  0.4927  0.0458  0.4883
71840SOL    HW125450   9.018   3.243   2.722 -0.2942  0.4585 -0.0908
71840SOL    HW225451   8.870   3.237   2.752 -0.2494 -2.3381 -0.1777
71841SOL     OW25452   7.165   8.954   6.218 -0.0011  0.8783 -0.1985
71841SOL    HW125453   7.137   8.880   6.164  0.0983 -0.3989  1.4254
71841SOL    HW225454   7.145   9.032   6.165 -1.2512 -0.2371 -1.4344
71842SOL     OW25455  11.896   3.923   3.788  0.5455  0.1417 -0.2475
71842SOL    HW125456  11.966   3.873   3.829  0.2945  0.9468  1.2599
71842SOL    HW225457  11.842   3.858   3.744  1.1236 -0.7119  0.2738
71843SOL     OW25458   7.279  11.415   5.580 -0.3446  0.0272  0.0252
71843SOL    HW125459   7.330  11.461   5.647 -0.7963  1.7697 -0.7740
71843SOL    HW225460   7.190  11.414   5.614 -0.1924 -1.0849  0.4340
71844SOL     OW25461   2.670   5.755   2.043 -0.4103 -0.3196  0.5544
71844SOL    HW125462   2.628   5.767   1.958 -0.3300 -1.6197  0.3077
71844SOL    HW225463   2.681   5.844   2.077 -0.3172  0.2418 -0.8532
71845SOL     OW25464  13.025  12.342   2.061  0.2601  0.5484 -0.3215
71845SOL    HW125465  12.940  12.386   2.066 -0.5037 -0.7228 -1.4756
71845SOL    HW225466  13.078  12.385   2.128 -1.7677  0.3237  1.5200
71846SOL     OW25467   1.768   6.097   0.697 -0.0920 -0.4532  0.5056
71846SOL    HW125468   1.692   6.103   0.639  0.7554 -0.8485 -0.6963
71846SOL    HW225469   1.740   6.141   0.777 -1.3859 -0.0803 -0.1080
71847SOL     OW25470   6.375   2.031   6.063  0.0214  0.2204  0.0193
71847SOL    HW125471   6.424   1.980   6.127 -1.5303  1.2774  2.1759
71847SOL    HW225472   6.432   2.106   6.044  0.9474 -0.6400 -0.7125
71848SOL     OW25473  12.794  11.802   8.252  0.2885 -0.6101  0.3702
71848SOL    HW125474  12.856  11.802   8.325  0.4327 -2.7660  0.3237
71848SOL    HW225475  12.841  11.758   8.181 -1.0525 -1.7645  0.1507
71849SOL     OW25476  10.053  12.822   3.244  0.2023  0.1993 -0.5106
71849SOL    HW125477  10.013  12.742   3.279  0.8232  0.5993  1.2350
71849SOL    HW225478  10.143  12.796   3.222  0.7064  0.5884  0.9553
71850SOL     OW25479   9.365  11.567   9.381  0.1499 -0.3810 -0.0343
71850SOL    HW125480   9.342  11.587   9.472 -0.3960 -0.0827 -0.2370
71850SOL    HW225481   9.400  11.649   9.347  0.8785 -0.6403  0.0626
71851SOL     OW25482   0.058   4.709   7.635 -0.7870 -0.1621  0.0876
71851SOL    HW125483   0.064   4.735   7.727  2.5294 -0.4192  0.0852
71851SOL    HW225484   0.108   4.627   7.631 -1.2672 -0.3961 -1.8674
71852SOL     OW25485   6.409  10.246   4.670  0.5586  0.4007  0.2870
71852SOL    HW125486   6.337  10.197   4.710 -0.0685  1.2984  0.2925
71852SOL    HW225487   6.366  10.306   4.609  1.0879  2.5019  1.8640
71853SOL     OW25488   7.294   0.270   1.256 -0.2445  0.2796  0.1714
71853SOL    HW125489   7.322   0.212   1.327  1.2723  2.1779  1.2036
71853SOL    HW225490   7.281   0.211   1.181  0.7699 -1.4462  1.2888
71854SOL     OW25491   1.191   8.279   4.043 -0.4430 -0.5525  0.1802
71854SOL    HW125492   1.125   8.247   3.982 -0.3600  0.2404 -0.3302
71854SOL    HW225493   1.152   8.357   4.082  0.0268 -0.3182  0.1867
71855SOL     OW25494   0.890  11.949   8.740  0.7265 -0.4387 -0.0467
71855SOL    HW125495   0.916  12.030   8.696  1.7252 -1.2630 -1.0291
71855SOL    HW225496   0.834  11.904   8.677 -1.4368  0.3248  1.2323
71856SOL     OW25497   0.064   1.880   3.853 -0.4088 -0.0455  0.1370
71856SOL    HW125498   0.007   1.882   3.930 -0.7962 -2.4759  0.0081
71856SOL    HW225499   0.139   1.827   3.880  0.2506  0.4574 -0.6674
71857SOL     OW25500   7.387  10.836  11.246 -0.7460 -0.0382 -0.0029
71857SOL    HW125501   7.339  10.859  11.166  1.4646 -1.1016 -1.7359
71857SOL    HW225502   7.344  10.757  11.278 -0.1449 -1.0737 -1.6236
71858SOL     OW25503   6.291   3.949   7.951  0.0554  0.1167  0.1624
71858SOL    HW125504   6.344   3.896   8.012  0.9647  1.3454  0.4825
71858SOL    HW225505   6.355   4.002   7.904 -0.6864 -0.4659 -1.5480
71859SOL     OW25506  10.272   6.484   3.323 -0.5663 -0.2405  0.7609
71859SOL    HW125507  10.298   6.466   3.233  1.7805  2.3260  0.7923
71859SOL    HW225508  10.242   6.575   3.322 -1.3662 -0.4376  2.4427
71860SOL     OW25509  12.202   5.073   6.761  0.0792 -0.1086  0.3327
71860SOL    HW125510  12.124   5.114   6.725 -1.1106 -1.1567  1.6075
71860SOL    HW225511  12.216   4.996   6.706  1.1890  0.8960 -0.8681
71861SOL     OW25512   0.630  10.656   4.909 -0.1306 -0.5449 -0.6344
71861SOL    HW125513   0.700  10.640   4.971  0.1945  0.0327 -0.8455
71861SOL    HW225514   0.563  10.591   4.930 -0.1856 -0.1269  0.5619
71862SOL     OW25515   2.040   3.467   3.566  0.1575  0.3261  0.4576
71862SOL    HW125516   2.120   3.422   3.543  0.9567  1.2617  1.2670
71862SOL    HW225517   1.982   3.455   3.491  0.7357 -1.0732  0.2111
71863SOL     OW25518   0.861   1.133  10.865 -0.0877 -0.6519 -0.1053
71863SOL    HW125519   0.859   1.043  10.897 -2.0403  0.2923  2.9033
71863SOL    HW225520   0.786   1.138  10.805  0.0866 -1.0269 -0.3608
71864SOL     OW25521   8.342   6.095   3.485  0.3961  0.4358  0.3412
71864SOL    HW125522   8.427   6.115   3.523 -0.1932  0.8971  1.4634
71864SOL    HW225523   8.281   6.100   3.558 -1.0092  2.6880 -0.8814
71865SOL     OW25524  10.590   2.106   5.725  0.5972 -0.1467  0.5033
71865SOL    HW125525  10.656   2.122   5.658  0.2449 -2.2764 -0.4322
71865SOL    HW225526  10.628   2.035   5.778 -0.2929 -0.3423  0.8855
71866SOL     OW25527  12.300  10.462   0.955 -0.1951  0.1411 -0.0258
71866SOL    HW125528  12.371  10.474   1.017 -0.5962 -1.6987  0.8754
71866SOL    HW225529  12.220  10.475   1.007 -0.5249  1.1473 -0.7723
71867SOL     OW25530   8.167   7.997   4.999 -0.5480 -0.1953 -0.3697
71867SOL    HW125531   8.091   8.001   4.940 -1.0427  2.7836  0.2741
71867SOL    HW225532   8.223   8.068   4.968  1.4562 -1.5819 -0.0762
71868SOL     OW25533   7.379   6.363   9.176  0.3338 -0.2382 -0.1219
71868SOL    HW125534   7.306   6.336   9.232  1.8948  1.1128  2.8397
71868SOL    HW225535   7.420   6.281   9.147 -2.8337 -1.0570 -2.7723
71869SOL     OW25536   6.275  10.026   2.055 -0.3740 -0.8843 -0.2015
71869SOL    HW125537   6.307  10.074   2.132 -0.9795 -1.2734  0.3013
71869SOL    HW225538   6.347  10.031   1.992 -0.3141  0.4471 -0.0606
71870SOL     OW25539   4.452   5.902   3.845 -0.1338 -0.2047  0.2649
71870SOL    HW125540   4.359   5.900   3.825  0.0433 -3.5663 -0.7989
71870SOL    HW225541   4.464   5.836   3.914  1.3459  1.0198  1.2837
71871SOL     OW25542   1.508   0.670   5.170  0.1476 -0.1755 -0.1772
71871SOL    HW125543   1.503   0.730   5.095  2.8812 -1.1646 -1.2730
71871SOL    HW225544   1.501   0.583   5.132  0.8198 -0.6768  0.7892
71872SOL     OW25545   3.124   9.271   3.284  0.7423 -0.0113 -0.3097
71872SOL    HW125546   3.136   9.191   3.233  1.3101 -0.5840  0.6956
71872SOL    HW225547   3.204   9.279   3.336  0.1267  0.4735  0.5898
71873SOL     OW25548   5.228  11.434   7.800  0.6238  0.1425 -0.3507
71873SOL    HW125549   5.288  11.508   7.808  0.7465  0.2676 -2.1363
71873SOL    HW225550   5.169  11.458   7.729  0.1701 -1.1354 -0.4394
71874SOL     OW25551   9.169  10.133   8.690  0.1323  0.2695  0.1225
71874SOL    HW125552   9.248  10.079   8.694 -0.0357  0.1008  1.9359
71874SOL    HW225553   9.193  10.213   8.737 -0.6295  0.3999  0.2968
71875SOL     OW25554   6.903  13.144   4.212 -0.2420  0.1368  0.7548
71875SOL    HW125555   6.966  13.200   4.166 -1.2487  0.5105 -0.2179
71875SOL    HW225556   6.819  13.161   4.169 -1.1922  0.2526  2.5557
71876SOL     OW25557   0.467  10.132   7.392  0.2927 -0.4339 -0.2239
71876SOL    HW125558   0.411  10.159   7.319 -0.4097  0.2960  0.5699
71876SOL    HW225559   0.525  10.207   7.407 -0.7513  0.1247  1.1051
71877SOL     OW25560  11.191  11.812   2.700 -0.6335  0.4778  0.0965
71877SOL    HW125561  11.204  11.834   2.792 -1.1110 -0.0067  0.2837
71877SOL    HW225562  11.261  11.752   2.678  0.3267  1.6773 -0.2546
71878SOL     OW25563   6.530  13.137   7.205 -0.0905 -0.7325  0.7957
71878SOL    HW125564   6.570  13.171   7.125 -0.6388 -0.6980  0.5331
71878SOL    HW225565   6.484  13.058   7.177 -1.3574 -0.0293  0.8174
71879SOL     OW25566  10.861   8.328   0.685  0.3841 -0.5806  0.0509
71879SOL    HW125567  10.945   8.360   0.716 -0.9200  2.3450  0.9654
71879SOL    HW225568  10.847   8.373   0.602  0.2308 -2.0227 -0.7407
71880SOL     OW25569   9.421   1.326   6.822  0.4835 -0.3143  0.3511
71880SOL    HW125570   9.445   1.248   6.773  0.2521  0.1783 -0.5714
71880SOL    HW225571   9.339   1.302   6.866  1.5018 -1.2855  1.8086
71881SOL     OW25572   2.997   7.041   6.012 -0.2027 -0.2181 -0.0972
71881SOL    HW125573   2.971   6.972   6.074 -1.6279 -0.5213 -0.9817
71881SOL    HW225574   2.914   7.080   5.983  0.4680  0.4127 -1.2421
71882SOL     OW25575   5.695   2.409   0.282 -0.9795  0.1953 -0.4003
71882SOL    HW125576   5.700   2.457   0.199 -1.1457  1.7280  0.4566
71882SOL    HW225577   5.767   2.346   0.276  0.0652  1.3979 -1.0328
71883SOL     OW25578   2.451   4.104  11.776  0.0012 -0.5640  0.5074
71883SOL    HW125579   2.409   4.068  11.698  0.4535 -1.1383  0.5219
71883SOL    HW225580   2.474   4.194  11.751  0.0147 -0.6958  0.0275
71884SOL     OW25581   6.695   8.504  12.574 -0.1289 -0.1564 -0.8319
71884SOL    HW125582   6.788   8.523  12.564  0.1637 -1.9913 -2.1141
71884SOL    HW225583   6.689   8.458  12.658  0.0544  0.2875 -0.5716
71885SOL     OW25584   6.097   7.599  12.067  0.1915 -0.2485  0.3749
71885SOL    HW125585   6.014   7.643  12.048 -0.1204 -1.6129 -1.7095
71885SOL    HW225586   6.160   7.670  12.076 -0.6571  0.7128 -0.9404
71886SOL     OW25587   5.811   8.478  12.402 -0.1288 -0.1019 -0.5219
71886SOL    HW125588   5.844   8.390  12.422 -1.5935 -0.8147 -1.0352
71886SOL    HW225589   5.828   8.529  12.481 -0.0819 -1.1151  0.1386
71887SOL     OW25590   4.368   2.062  10.850 -0.1013 -0.1764  0.0535
71887SOL    HW125591   4.399   2.004  10.781  1.0283  1.3050 -0.7453
71887SOL    HW225592   4.399   2.023  10.931  0.4047 -0.8294 -0.4460
71888SOL     OW25593  11.130   3.134   2.288 -0.3437  0.3170 -0.1143
71888SOL    HW125594  11.094   3.221   2.270 -1.0073  0.2166  0.6942
71888SOL    HW225595  11.054   3.077   2.290 -0.1163  0.0351  1.2276
71889SOL     OW25596   6.952   6.437   1.313  0.1236 -0.5311 -0.1705
71889SOL    HW125597   6.997   6.450   1.230 -1.7486 -1.3923 -1.3813
71889SOL    HW225598   6.949   6.342   1.324 -0.5138 -0.4575  0.3882
71890SOL     OW25599  10.788   2.448   1.010 -0.3043 -0.2289 -0.3429
71890SOL    HW125600  10.827   2.363   1.031 -2.9687 -1.2047  1.0710
71890SOL    HW225601  10.840   2.511   1.060  1.7199 -0.9457 -1.4238
71891SOL     OW25602   1.888   0.713   2.117 -0.4828 -0.2876 -0.5161
71891SOL    HW125603   1.948   0.650   2.078 -0.4921  0.5806 -2.0515
71891SOL    HW225604   1.801   0.684   2.089 -0.9369 -1.8432  2.1291
71892SOL     OW25605   4.286   6.822  10.460  0.2038  0.2265 -0.0987
71892SOL    HW125606   4.355   6.872  10.505 -1.2095 -0.1901  2.8086
71892SOL    HW225607   4.210   6.879  10.461  0.0140  0.0481 -1.7634
71893SOL     OW25608   0.263   1.674  11.189  0.7883 -0.0190  0.4705
71893SOL    HW125609   0.338   1.733  11.183  1.7262 -1.2200 -0.1720
71893SOL    HW225610   0.282   1.619  11.265 -0.7587  1.3679  1.9209
71894SOL     OW25611  11.716   8.736  12.618  0.4042 -0.1281  0.1495
71894SOL    HW125612  11.805   8.701  12.616  0.2790 -0.4248 -0.4536
71894SOL    HW225613  11.675   8.696  12.694  1.2402  1.1566  1.3337
71895SOL     OW25614   5.441   9.304   8.612  0.6487  0.4184  0.0355
71895SOL    HW125615   5.376   9.240   8.582  1.4428  0.1972 -1.3250
71895SOL    HW225616   5.508   9.304   8.543  1.9472  0.8615  1.2413
71896SOL     OW25617   5.627   3.003   5.946 -0.3111 -0.0360 -0.0355
71896SOL    HW125618   5.654   2.973   6.033 -0.9440  0.8968  0.4953
71896SOL    HW225619   5.655   2.933   5.888  0.8792 -0.3022  0.8099
71897SOL     OW25620   3.906   8.094   2.153 -0.4863 -0.3680  0.6650
71897SOL    HW125621   3.886   8.169   2.210  2.1469  0.5016  0.5983
71897SOL    HW225622   3.917   8.021   2.212  0.1971  0.0682  1.0878
71898SOL     OW25623  11.899   5.542   4.553  0.4329 -0.3171  0.5981
71898SOL    HW125624  11.854   5.611   4.603  0.6299  0.0812  0.2357
71898SOL    HW225625  11.845   5.464   4.567 -0.0540  0.0167  0.6365
71899SOL     OW25626   4.957   2.169   0.391  0.0014  0.4279  0.6570
71899SOL    HW125627   4.957   2.207   0.479  0.3197  0.4511  0.6458
71899SOL    HW225628   4.928   2.079   0.404  3.5932 -0.7849  1.3060
71900SOL     OW25629   2.433   4.835   9.778 -0.0661 -0.5274 -0.0859
71900SOL    HW125630   2.374   4.910   9.786  0.8497  0.2848 -0.6940
71900SOL    HW225631   2.375   4.759   9.781 -0.9567  0.1712  1.1034
71901SOL     OW25632   3.258   8.039   3.077  0.6137  0.3376 -0.8082
71901SOL    HW125633   3.196   8.100   3.038  1.3580  1.7867  0.1815
71901SOL    HW225634   3.240   8.042   3.171 -0.4442 -2.2861 -0.8190
71902SOL     OW25635  11.506   4.982   5.404  0.5472  0.1661 -0.2030
71902SOL    HW125636  11.550   4.903   5.435 -1.4659 -1.5604 -1.5002
71902SOL    HW225637  11.505   4.973   5.308  0.6329  1.9959 -0.4165
71903SOL     OW25638  11.509  10.695  11.722 -0.4762 -0.1229 -0.1018
71903SOL    HW125639  11.429  10.650  11.749 -1.6388  2.3930  0.9952
71903SOL    HW225640  11.485  10.738  11.639 -0.5843  1.3284  0.6553
71904SOL     OW25641   5.362  11.919  12.039 -0.6068  0.5573 -0.0664
71904SOL    HW125642   5.293  11.856  12.018 -2.0753  1.8016  0.7887
71904SOL    HW225643   5.414  11.926  11.959 -0.5485 -1.5297 -0.2428
71905SOL     OW25644  11.323   8.481   4.637  0.5604 -0.0155 -0.4345
71905SOL    HW125645  11.390   8.513   4.578 -0.0992  0.0483 -1.1680
71905SOL    HW225646  11.365   8.479   4.723  1.6995 -0.6532 -0.9970
71906SOL     OW25647   0.863   9.151  11.304 -0.0160  0.6199  0.0667
71906SOL    HW125648   0.883   9.233  11.260  0.6376 -0.0527 -0.9164
71906SOL    HW225649   0.948   9.118  11.334  0.1780 -1.1924 -2.2445
71907SOL     OW25650   9.501   1.647   9.975 -0.2459 -0.2054  0.0685
71907SOL    HW125651   9.581   1.640   9.923  0.0569 -0.5398  0.5726
71907SOL    HW225652   9.529   1.690  10.056 -1.1779  2.7107 -1.0265
71908SOL     OW25653  10.061  10.409   8.065 -0.6281  0.0776  0.2479
71908SOL    HW125654   9.966  10.400   8.051 -0.5229 -0.5458 -0.0631
71908SOL    HW225655  10.101  10.353   7.999 -0.0349  0.3186  0.3939
71909SOL     OW25656   0.032  11.922   8.151  0.2606  0.0106 -0.5900
71909SOL    HW125657   0.047  11.999   8.096  1.8018  0.7886  0.8659
71909SOL    HW225658   0.024  11.850   8.088  2.6190  0.7516 -1.8453
71910SOL     OW25659  12.930   3.746  11.643 -0.1621  0.1191 -0.0124
71910SOL    HW125660  12.846   3.747  11.596 -0.8277 -0.4773  1.1164
71910SOL    HW225661  12.909   3.709  11.728  0.5710  3.0642  1.5921
71911SOL     OW25662   1.557  10.978   1.116  0.3945 -1.0544  0.0660
71911SOL    HW125663   1.500  11.044   1.154 -1.0712 -2.5712  0.6284
71911SOL    HW225664   1.598  10.935   1.191  1.2739 -0.8373 -0.2838
71912SOL     OW25665  11.542  10.708   6.736 -0.1446  0.2353  0.2948
71912SOL    HW125666  11.522  10.733   6.826 -1.0425 -0.0960  0.1974
71912SOL    HW225667  11.580  10.786   6.697  1.1694  0.1032  1.2234
71913SOL     OW25668  10.659   0.687   5.015 -0.6996  0.0904 -0.5539
71913SOL    HW125669  10.600   0.613   4.998 -0.0594 -0.8900  1.2106
71913SOL    HW225670  10.717   0.656   5.084  0.4960  1.7912 -0.7321
71914SOL     OW25671   3.040  11.455   2.466  0.0330 -0.0452  0.4530
71914SOL    HW125672   2.952  11.480   2.493  0.3116  0.5074  0.8728
71914SOL    HW225673   3.033  11.363   2.443 -0.7444  0.0973  0.0883
71915SOL     OW25674   2.702   2.585   4.605  0.0748  0.5211  0.1457
71915SOL    HW125675   2.615   2.589   4.644  0.1214 -0.7125  0.4190
71915SOL    HW225676   2.694   2.521   4.534  1.3840 -1.8719  2.0104
71916SOL     OW25677  13.095   8.755  11.574  0.1079  0.2360  0.6273
71916SOL    HW125678  13.010   8.798  11.577  0.8925  1.8457  2.4279
71916SOL    HW225679  13.156   8.821  11.608  2.1220 -0.7943 -0.7479
71917SOL     OW25680   0.195   0.801   6.178  0.4201 -0.4880 -0.0928
71917SOL    HW125681   0.237   0.829   6.097 -1.9474 -1.7579 -1.8654
71917SOL    HW225682   0.231   0.713   6.193  2.1787  0.3949  1.3124
71918SOL     OW25683   1.510   4.091   5.256  0.1161 -0.0619 -0.0927
71918SOL    HW125684   1.535   4.153   5.186  0.2698  0.8708  0.7632
71918SOL    HW225685   1.582   4.030   5.260  0.6230  0.5299 -0.0211
71919SOL     OW25686  10.028  11.081  11.339  0.3761  0.8871 -0.6684
71919SOL    HW125687   9.981  11.152  11.383 -1.0538 -1.0404  1.1530
71919SOL    HW225688  10.086  11.045  11.407 -1.1081 -1.4958 -0.5514
71920SOL     OW25689   2.894   5.844   9.990 -0.3406  0.0274 -0.6167
71920SOL    HW125690   2.913   5.761   9.945  1.0850 -0.6796  1.1699
71920SOL    HW225691   2.976   5.892   9.988 -0.4200  0.2546  0.6154
71921SOL     OW25692  10.854   0.429   7.955  0.6335 -0.9244  0.5491
71921SOL    HW125693  10.860   0.409   7.862 -0.9017  1.5458 -0.1654
71921SOL    HW225694  10.760   0.441   7.971  1.0640  1.7693  1.6437
71922SOL     OW25695   9.186  10.304  12.577  0.2796  0.2236  0.0711
71922SOL    HW125696   9.198  10.210  12.562  1.5992  0.4943 -0.8008
71922SOL    HW225697   9.092  10.318  12.566  0.1101 -0.9410 -0.1256
71923SOL     OW25698  12.785   4.409   8.823  0.2858  0.5586  0.1445
71923SOL    HW125699  12.689   4.407   8.814  0.4387  2.0745 -2.7279
71923SOL    HW225700  12.815   4.332   8.775  0.5716  1.4030 -1.0690
71924SOL     OW25701   6.694   4.149   1.132  0.2275  0.5188  0.6903
71924SOL    HW125702   6.648   4.111   1.058 -0.3574  1.4066  0.5870
71924SOL    HW225703   6.784   4.160   1.102  0.1711  0.1553  0.3860
71925SOL     OW25704   5.591   7.098   8.485 -0.3578 -0.0784 -0.2959
71925SOL    HW125705   5.647   7.043   8.431  0.7355  1.3429 -0.6900
71925SOL    HW225706   5.507   7.100   8.440 -0.2075 -0.8911 -0.6155
71926SOL     OW25707   0.313   1.586   9.805 -0.3972 -0.5173 -0.0963
71926SOL    HW125708   0.261   1.506   9.798 -0.0986 -0.5624 -4.5392
71926SOL    HW225709   0.285   1.640   9.731  0.9727  2.6151  1.4584
71927SOL     OW25710  10.247   9.180   6.937  0.0496 -0.1173 -0.3458
71927SOL    HW125711  10.235   9.261   6.888 -1.0248 -0.1409 -0.1354
71927SOL    HW225712  10.161   9.139   6.938  0.2021 -0.4553  0.9591
71928SOL     OW25713   4.695   8.622  10.748  0.0224  0.5142 -0.0958
71928SOL    HW125714   4.753   8.691  10.781 -0.4287  1.0104 -0.3186
71928SOL    HW225715   4.686   8.641  10.655 -0.5265  0.4641 -0.0541
71929SOL     OW25716   6.075  13.303  12.597  0.1561  0.0312  0.4327
71929SOL    HW125717   6.071  13.256  12.680  0.7308  1.2772  1.2023
71929SOL    HW225718   6.001  13.269  12.546  1.6165 -3.0370  0.1533
71930SOL     OW25719   3.306  10.203   3.048 -0.0806  0.4464  0.3091
71930SOL    HW125720   3.351  10.230   3.127 -0.2896 -0.2164  0.6596
71930SOL    HW225721   3.365  10.228   2.977  1.4564 -1.5156  0.8074
71931SOL     OW25722   4.113   3.443   7.306 -0.2391  0.7596  0.0096
71931SOL    HW125723   4.114   3.368   7.247 -1.4624 -0.3706  1.3389
71931SOL    HW225724   4.123   3.519   7.249  0.9091 -0.3936 -1.3867
71932SOL     OW25725   9.966   0.809   2.762 -0.0219 -0.1450 -0.2739
71932SOL    HW125726   9.956   0.896   2.722  0.0934  0.4376  0.9376
71932SOL    HW225727   9.877   0.774   2.766 -0.7970  1.8309  3.3931
71933SOL     OW25728   8.010   5.620   9.930  0.6424 -0.1633  0.3995
71933SOL    HW125729   7.983   5.629   9.838  2.4023  0.7580 -0.0619
71933SOL    HW225730   8.102   5.595   9.926  0.1193 -2.7196  1.9314
71934SOL     OW25731   9.245   8.209   6.454 -0.0240 -0.0591  1.0219
71934SOL    HW125732   9.270   8.128   6.410  0.1146 -0.0077  1.0051
71934SOL    HW225733   9.149   8.209   6.453 -0.0271  0.8120 -0.8617
71935SOL     OW25734   9.640   1.940   0.605 -0.6740  0.6007  0.0319
71935SOL    HW125735   9.665   1.883   0.678 -0.5026  1.3069  0.5317
71935SOL    HW225736   9.550   1.967   0.625 -2.0330 -2.0474 -1.8281
71936SOL     OW25737   5.181   6.735  11.159  0.0480 -0.0418 -0.2956
71936SOL    HW125738   5.269   6.765  11.135 -0.3883  2.6725  1.1072
71936SOL    HW225739   5.175   6.750  11.253 -1.9707  0.0527 -0.3914
71937SOL     OW25740   8.006  11.462   5.104 -0.4916  0.4688  0.1400
71937SOL    HW125741   7.940  11.393   5.100 -0.3535  0.3491 -0.1313
71937SOL    HW225742   7.961  11.541   5.076 -0.4674  0.3479 -0.2384
71938SOL     OW25743   0.782   9.141  10.254 -0.4377 -0.1983 -0.5574
71938SOL    HW125744   0.864   9.151  10.205 -0.4742 -0.7752 -0.7455
71938SOL    HW225745   0.763   9.228  10.287 -0.0826  0.0722 -1.0549
71939SOL     OW25746  11.070   7.027   6.116 -0.3160 -0.1056  0.3110
71939SOL    HW125747  11.061   7.073   6.033 -0.0877 -0.3024  0.1754
71939SOL    HW225748  10.983   7.033   6.157  0.3201  2.6498  1.4715
71940SOL     OW25749   7.736   1.053   8.391 -0.6424  0.2495  0.0499
71940SOL    HW125750   7.737   1.006   8.474 -0.9088 -1.3638 -0.8218
71940SOL    HW225751   7.716   1.143   8.415  0.6183  0.1083  1.8611
71941SOL     OW25752  12.593   2.797   7.038 -0.1966  0.7758 -0.3512
71941SOL    HW125753  12.601   2.706   7.007 -0.7951  1.0457 -1.3466
71941SOL    HW225754  12.521   2.833   6.987 -0.2949  1.6682  0.4038
71942SOL     OW25755  10.783   9.402  11.573  0.5623  0.1937  0.5894
71942SOL    HW125756  10.861   9.401  11.629 -0.0543 -1.2472  1.5014
71942SOL    HW225757  10.816   9.421  11.485  1.7923  0.7107  1.1421
71943SOL     OW25758  10.277   7.467   3.074  0.2455  0.3513  0.4482
71943SOL    HW125759  10.204   7.490   3.016  0.9244  0.8445 -0.2297
71943SOL    HW225760  10.342   7.427   3.016  0.1647 -0.9050  1.1919
71944SOL     OW25761   8.642  10.047   5.008 -0.1119 -0.0221 -1.1341
71944SOL    HW125762   8.715   9.998   4.970  0.8029  0.5786 -0.1557
71944SOL    HW225763   8.678  10.132   5.031 -0.5696 -0.4307  1.3056
71945SOL     OW25764   4.640   0.079   8.343  0.1165 -0.3801  0.6218
71945SOL    HW125765   4.573   0.070   8.274 -0.3178 -0.3362  1.0308
71945SOL    HW225766   4.621   0.164   8.383  1.3103  0.2994 -0.1823
71946SOL     OW25767   4.203  12.311   0.270  0.1565 -0.1446 -0.1246
71946SOL    HW125768   4.178  12.268   0.352 -2.9565  0.3902 -0.6425
71946SOL    HW225769   4.184  12.403   0.286 -0.7435 -0.0704 -1.4694
71947SOL     OW25770   8.219   6.749   7.872 -0.3504 -0.3455  0.3877
71947SOL    HW125771   8.155   6.793   7.816  1.1722  2.1956  0.4816
71947SOL    HW225772   8.303   6.767   7.832  0.4407 -3.1617  0.5684
71948SOL     OW25773   9.832  11.834  10.358  0.1624  0.1529  0.6147
71948SOL    HW125774   9.738  11.850  10.352 -0.1252 -1.2539  0.8324
71948SOL    HW225775   9.841  11.766  10.425  1.1201 -1.1480 -0.7303
71949SOL     OW25776   1.311   9.653   5.311  0.0036 -0.6008  0.9692
71949SOL    HW125777   1.257   9.675   5.387  0.0568 -1.0989  1.1514
71949SOL    HW225778   1.274   9.706   5.240 -0.1354 -0.2397  1.3071
71950SOL     OW25779  11.339   5.163   1.737 -0.5000 -0.1085  0.5488
71950SOL    HW125780  11.372   5.111   1.810 -0.4525 -1.6445 -0.5385
71950SOL    HW225781  11.244   5.167   1.752 -0.5888 -1.1075  0.2634
71951SOL     OW25782   5.742   9.695  10.284 -0.0233 -0.3448  0.1603
71951SOL    HW125783   5.678   9.764  10.301  1.9111  1.1023  2.2418
71951SOL    HW225784   5.784   9.721  10.203 -0.4056  0.0417  0.0799
71952SOL     OW25785   1.094   4.185   2.305  0.0097 -0.3404  0.4858
71952SOL    HW125786   1.114   4.092   2.291  1.4107  0.0661 -0.4288
71952SOL    HW225787   1.000   4.192   2.285 -0.1838 -1.5976  0.8377
71953SOL     OW25788  10.748   4.023   6.163 -0.1394  0.0786 -0.5907
71953SOL    HW125789  10.723   4.092   6.101  0.2266  1.1452  0.4247
71953SOL    HW225790  10.691   4.037   6.238  0.0140 -0.6693 -0.3294
71954SOL     OW25791   3.875  11.110   8.610 -0.5715 -0.0402 -0.2783
71954SOL    HW125792   3.892  11.027   8.566 -0.6659 -0.7289  0.9468
71954SOL    HW225793   3.937  11.171   8.571  0.4057 -1.0064 -0.2733
71955SOL     OW25794   9.898   6.327  10.813 -0.4529 -0.0196  0.2351
71955SOL    HW125795   9.886   6.260  10.880 -0.5745  0.5933  0.8336
71955SOL    HW225796   9.932   6.279  10.737 -0.0771 -0.6817  0.8116
71956SOL     OW25797   9.539   1.869   3.864  0.1186 -0.1708 -0.9350
71956SOL    HW125798   9.542   1.827   3.778  1.0192  1.7485 -1.9102
71956SOL    HW225799   9.600   1.818   3.917  1.2096 -0.1343 -2.0809
71957SOL     OW25800   9.730   7.714   5.878 -0.0177  0.3023  0.1999
71957SOL    HW125801   9.656   7.715   5.817  0.2320 -0.3569 -0.1180
71957SOL    HW225802   9.726   7.799   5.922 -0.6725  0.4645 -0.1658
71958SOL     OW25803  10.015   9.569   0.230 -0.3997  0.2888  1.0212
71958SOL    HW125804  10.041   9.656   0.261  0.7935  0.6081 -0.6816
71958SOL    HW225805   9.939   9.585   0.175 -1.5142 -0.0616  2.4136
71959SOL     OW25806   4.909   3.515   9.932  0.4218 -0.3037  0.4208
71959SOL    HW125807   4.951   3.601   9.935  0.9687 -0.5605  0.2132
71959SOL    HW225808   4.877   3.507   9.842 -1.3400  0.4779  0.9353
71960SOL     OW25809   4.762   1.361  10.485  0.0197  0.2814 -0.1826
71960SOL    HW125810   4.690   1.359  10.549  0.2830 -1.0512  0.1022
71960SOL    HW225811   4.828   1.416  10.526  0.2803 -0.7428  0.8370
71961SOL     OW25812  10.850   5.021   7.926  0.1727 -0.4177  0.4012
71961SOL    HW125813  10.755   5.033   7.917  0.1041  0.3252  1.6846
71961SOL    HW225814  10.887   5.099   7.885  0.1007  0.3631  1.7499
71962SOL     OW25815   0.755   6.955   3.393 -0.2104 -0.3629 -1.0362
71962SOL    HW125816   0.689   6.920   3.453  1.5320  0.4264  1.5366
71962SOL    HW225817   0.825   6.890   3.394  0.4005  0.2792 -1.1597
71963SOL     OW25818  11.059  10.387   4.648 -0.3521 -0.3315 -0.0148
71963SOL    HW125819  11.008  10.466   4.628 -1.3870 -0.9155  0.2874
71963SOL    HW225820  11.052  10.377   4.742  1.5610  0.3848  0.2698
71964SOL     OW25821   5.602   3.549   4.769  0.8422  0.2740 -0.2392
71964SOL    HW125822   5.598   3.626   4.713  1.7590 -0.0233 -0.7389
71964SOL    HW225823   5.668   3.570   4.835  0.2124  0.3827  0.3645
71965SOL     OW25824   2.254   3.424   4.543  0.0041  0.0554  0.1605
71965SOL    HW125825   2.189   3.379   4.597  1.7389 -1.8234  0.8339
71965SOL    HW225826   2.214   3.430   4.457 -1.5519  0.1487  0.8552
71966SOL     OW25827   1.561   5.652  11.051  0.0223  0.4307  0.4200
71966SOL    HW125828   1.474   5.646  11.011  0.6616  1.1672 -1.1737
71966SOL    HW225829   1.592   5.561  11.054 -0.4879  0.2493  0.2427
71967SOL     OW25830  12.122   8.671   0.009  0.3898 -0.4864  0.4743
71967SOL    HW125831  12.099   8.762  -0.009  1.6675 -0.1707  0.3857
71967SOL    HW225832  12.191   8.650  -0.054  0.8760 -1.1699  1.2177
71968SOL     OW25833   6.542   0.645  11.394  0.2046  0.1009 -0.4093
71968SOL    HW125834   6.516   0.558  11.365  0.0384  0.4549 -1.3539
71968SOL    HW225835   6.504   0.704  11.329  0.1376  0.8953  0.3368
71969SOL     OW25836   1.069   4.669   4.194  0.2876  0.4606  0.3153
71969SOL    HW125837   1.153   4.671   4.240 -0.9606 -0.4691  2.7932
71969SOL    HW225838   1.009   4.714   4.252 -1.3410 -0.5171 -0.5419
71970SOL     OW25839   6.399   9.876   9.625 -0.6253 -0.2448 -0.2555
71970SOL    HW125840   6.452   9.825   9.564  1.2414  1.9084 -0.5486
71970SOL    HW225841   6.367   9.950   9.573  0.3997  1.2406  1.1246
71971SOL     OW25842  10.758  13.235   6.521  0.1239 -0.4440 -0.9007
71971SOL    HW125843  10.668  13.265   6.535  0.3709  1.3212 -2.5675
71971SOL    HW225844  10.806  13.266   6.598 -0.9137 -2.7732  0.7770
71972SOL     OW25845  11.045   4.696   2.406  0.7118 -0.4944  0.0125
71972SOL    HW125846  10.987   4.760   2.449  0.5417 -0.5687 -0.1057
71972SOL    HW225847  11.000   4.612   2.418 -0.8087 -0.1890 -2.7649
71973SOL     OW25848   4.229  12.813   0.481  0.3705  0.2888 -0.2437
71973SOL    HW125849   4.212  12.900   0.516  1.1756  0.1981  0.4213
71973SOL    HW225850   4.275  12.767   0.552  3.1867  0.4869 -1.7859
71974SOL     OW25851   5.390  12.111   7.805  0.4766  0.1295  0.2678
71974SOL    HW125852   5.427  12.174   7.743 -1.3982  0.5469 -0.4992
71974SOL    HW225853   5.297  12.108   7.783  0.3175 -2.1027  1.0171
71975SOL     OW25854   7.214   6.630   3.596 -0.9590  0.1087  0.2183
71975SOL    HW125855   7.152   6.622   3.668 -0.7270 -2.1737  0.2574
71975SOL    HW225856   7.186   6.563   3.533  0.6515 -0.0521 -0.3812
71976SOL     OW25857   6.301  12.910   7.685  0.8136 -0.1393  0.1492
71976SOL    HW125858   6.274  12.851   7.756  1.6419 -0.8851 -0.1247
71976SOL    HW225859   6.257  12.993   7.704  0.0537 -0.6844  0.8525
71977SOL     OW25860  10.953   4.640   1.410  0.5528  0.0851 -0.0196
71977SOL    HW125861  11.033   4.681   1.442  0.1944 -0.5562  1.8243
71977SOL    HW225862  10.929   4.691   1.333  2.3753  0.6735 -0.2400
71978SOL     OW25863   9.861  11.226  12.799 -0.3524 -0.0811 -0.0447
71978SOL    HW125864   9.834  11.167  12.869  0.3027 -1.5547 -0.9943
71978SOL    HW225865   9.943  11.265  12.831  0.2689 -1.2085 -0.2225
71979SOL     OW25866   4.915   6.027   6.975  0.2069 -0.0625 -0.1089
71979SOL    HW125867   4.832   5.989   7.004  0.0020 -0.5387 -1.2512
71979SOL    HW225868   4.974   5.952   6.965 -0.3465 -0.2589 -2.8737
71980SOL     OW25869  12.466   0.642  12.183  0.2746 -0.3384 -0.0481
71980SOL    HW125870  12.560   0.641  12.162  0.2091  0.7568 -0.4635
71980SOL    HW225871  12.460   0.700  12.259 -0.3038  1.5928 -1.4739
71981SOL     OW25872   6.175  10.903   4.783  0.0750 -0.7900 -1.0680
71981SOL    HW125873   6.096  10.853   4.764 -0.2934 -0.5868 -0.1325
71981SOL    HW225874   6.246  10.839   4.775 -0.3317 -1.3224 -0.5323
71982SOL     OW25875   0.952   9.589  12.439 -0.0179  0.7226  0.1795
71982SOL    HW125876   0.973   9.619  12.350  0.2287  1.5909  0.5170
71982SOL    HW225877   0.867   9.546  12.430  1.3301 -1.8957 -1.0175
71983SOL     OW25878  11.492   0.686   9.977  0.2077  0.0040 -0.4889
71983SOL    HW125879  11.425   0.749  10.005  1.3228  1.3385 -0.7460
71983SOL    HW225880  11.465   0.603  10.018 -0.5047  0.9488  1.0514
71984SOL     OW25881  10.731  12.578   7.145 -0.3294 -0.1209  0.5307
71984SOL    HW125882  10.795  12.643   7.173 -1.6225  0.3753  2.4873
71984SOL    HW225883  10.646  12.620   7.158 -1.1656 -1.7970  0.7900
71985SOL     OW25884   9.850   8.509  12.174 -0.2343 -0.0607  0.2097
71985SOL    HW125885   9.802   8.500  12.257 -1.7527  0.5036 -0.5727
71985SOL    HW225886   9.918   8.442  12.179 -1.7702 -1.6511  0.9450
71986SOL     OW25887  11.519   1.310  12.501  0.1304 -0.3324  0.0636
71986SOL    HW125888  11.545   1.398  12.528 -1.7632  0.3334 -0.0906
71986SOL    HW225889  11.561   1.251  12.564 -0.5554  0.8649  1.6880
71987SOL     OW25890  13.013   1.005   7.017 -0.7170 -0.3082  0.5581
71987SOL    HW125891  12.961   0.988   6.938 -0.8234 -0.7503  0.7189
71987SOL    HW225892  12.997   1.097   7.037 -0.6408 -0.1785  0.0262
71988SOL     OW25893   9.686  11.845   8.460 -0.1006 -0.2456  0.7556
71988SOL    HW125894   9.661  11.869   8.549 -0.6728 -2.2735  1.1991
71988SOL    HW225895   9.620  11.781   8.433  0.1246  0.2529 -1.1000
71989SOL     OW25896   4.992   0.077   6.255 -0.1985 -0.3668 -0.1093
71989SOL    HW125897   5.076   0.035   6.275  0.0635  0.3653  0.3545
71989SOL    HW225898   5.003   0.112   6.167  0.2784  0.4162  0.2463
71990SOL     OW25899   2.286   7.892   9.902 -0.0337 -0.4053  0.1087
71990SOL    HW125900   2.378   7.865   9.900 -0.4405 -2.0731 -2.9672
71990SOL    HW225901   2.278   7.957   9.832 -0.7539  1.7843  2.1061
71991SOL     OW25902   4.690   8.841  11.941  0.1748 -0.6760  0.5468
71991SOL    HW125903   4.657   8.762  11.897  1.2982 -0.4245 -0.8020
71991SOL    HW225904   4.711   8.901  11.870 -0.3585  0.7483  1.5466
71992SOL     OW25905   1.785   1.829   1.165  0.6306  0.4645  0.8898
71992SOL    HW125906   1.763   1.918   1.138 -2.1540 -0.2586  0.4664
71992SOL    HW225907   1.829   1.791   1.089 -2.4912  0.0632 -0.8717
71993SOL     OW25908   9.631   1.766   6.145 -0.0548  0.6601  0.2547
71993SOL    HW125909   9.621   1.861   6.140  1.3155  0.7631 -1.9396
71993SOL    HW225910   9.564   1.732   6.086  0.2346  0.3463  0.1011
71994SOL     OW25911   5.488   5.259   2.033  0.6198  0.5645  0.1819
71994SOL    HW125912   5.559   5.232   2.092  0.0207 -1.0805  0.1953
71994SOL    HW225913   5.427   5.306   2.090  1.3046  1.3018  0.3254
71995SOL     OW25914   3.011   7.010  10.448 -0.1826  0.3270 -0.3557
71995SOL    HW125915   3.046   6.975  10.530  0.0729  0.1833 -0.5224
71995SOL    HW225916   3.017   6.937  10.386 -1.4453  0.0871 -0.2079
71996SOL     OW25917   2.568   4.806  12.731 -0.1583  0.3589 -0.2160
71996SOL    HW125918   2.535   4.720  12.758  1.2646 -0.4211 -0.8681
71996SOL    HW225919   2.611   4.790  12.647  1.5297  1.3705  0.4007
71997SOL     OW25920  11.493   4.177   7.544 -0.0048  0.2434  0.1410
71997SOL    HW125921  11.568   4.117   7.551 -0.3066 -0.0056  1.4242
71997SOL    HW225922  11.532   4.261   7.519  0.7950  0.2926  1.4949
71998SOL     OW25923   4.953   7.820  10.791  0.4194  0.1788  0.2223
71998SOL    HW125924   4.969   7.882  10.720  0.6261 -1.7019 -1.4834
71998SOL    HW225925   4.956   7.734  10.749 -1.8819 -0.9287  2.0578
71999SOL     OW25926   4.374  13.276   1.830  0.3711  0.0638 -0.7970
71999SOL    HW125927   4.325  13.296   1.750  0.2456 -0.6795 -0.9139
71999SOL    HW225928   4.370  13.356   1.882 -1.1906 -0.0544 -0.6875
72000SOL     OW25929   4.611   8.061  12.150  0.6243 -0.5328  0.3940
72000SOL    HW125930   4.625   8.106  12.067  0.2000 -1.4545 -0.1866
72000SOL    HW225931   4.672   7.986  12.147  1.9376  0.4273  1.7052
72001SOL     OW25932  13.285   6.322  11.026 -0.3233 -0.0657  0.5121
72001SOL    HW125933  13.270   6.227  11.025  1.2437 -0.4418 -3.1777
72001SOL    HW225934  13.338   6.337  11.105 -1.3019 -2.0529  1.6429
72002SOL     OW25935   7.124   4.782  10.821 -0.1488 -0.3225  0.0246
72002SOL    HW125936   7.167   4.846  10.878 -0.9796 -0.5081  0.8818
72002SOL    HW225937   7.032   4.808  10.822 -0.2723 -0.7355 -0.6988
72003SOL     OW25938   1.130   5.077  13.106 -0.0421  0.4142 -0.0879
72003SOL    HW125939   1.142   5.165  13.140 -1.1688 -0.4970  3.0551
72003SOL    HW225940   1.212   5.031  13.129 -0.4629  0.0113  0.6376
72004SOL     OW25941   0.586   1.754   6.371  0.5693 -0.3140  0.1844
72004SOL    HW125942   0.585   1.742   6.276 -1.4894  0.7757  0.0108
72004SOL    HW225943   0.572   1.666   6.406 -0.8056 -0.4558 -0.6207
72005SOL     OW25944  11.778   9.641   3.159  0.3787 -0.5712  0.2416
72005SOL    HW125945  11.740   9.600   3.237 -2.1504 -0.6679 -0.9152
72005SOL    HW225946  11.796   9.731   3.185 -3.0763  0.2600  0.3535
72006SOL     OW25947   4.582  11.378   3.584 -0.2462 -0.5574  0.5954
72006SOL    HW125948   4.597  11.304   3.526  0.7180  0.3512 -0.3644
72006SOL    HW225949   4.622  11.352   3.667  1.6113 -0.4812 -0.2324
72007SOL     OW25950   4.080   1.559  12.997 -0.4619  0.1190  0.1436
72007SOL    HW125951   3.991   1.593  13.009  0.1230  1.5316  0.7169
72007SOL    HW225952   4.131   1.602  13.065  0.0550 -3.3540  2.1876
72008SOL     OW25953   7.032   8.468   1.800  1.1860  0.6596  0.5373
72008SOL    HW125954   7.084   8.532   1.752  0.6494  1.1319  0.5800
72008SOL    HW225955   6.943   8.477   1.765  0.7557  1.1030  1.6993
72009SOL     OW25956   0.590   2.375   6.080 -0.0565 -0.0323  0.5667
72009SOL    HW125957   0.560   2.289   6.108  0.2271 -0.4007 -0.2548
72009SOL    HW225958   0.652   2.402   6.149  1.2290 -1.2715 -0.0638
72010SOL     OW25959   6.439   7.318   8.921  0.1367 -0.4745 -0.1996
72010SOL    HW125960   6.468   7.227   8.916  2.8662  0.3204 -0.3892
72010SOL    HW225961   6.413   7.329   9.013  0.3073 -1.3080 -0.0375
72011SOL     OW25962   7.438   9.378  11.765  0.3357 -0.1437  1.0972
72011SOL    HW125963   7.516   9.432  11.758 -0.3452  0.9729  1.7617
72011SOL    HW225964   7.368   9.440  11.784 -0.4484 -1.2847  2.0689
72012SOL     OW25965   4.282  10.261   0.397 -0.3305 -0.6594 -0.0628
72012SOL    HW125966   4.208  10.285   0.343  0.6179  0.6591 -0.8379
72012SOL    HW225967   4.352  10.240   0.335 -0.0404 -1.8794  0.6433
72013SOL     OW25968  11.758   7.995   9.399 -0.4348 -0.3577 -0.1295
72013SOL    HW125969  11.834   8.024   9.450 -0.6909 -0.2891  0.2176
72013SOL    HW225970  11.795   7.961   9.318 -0.0937  0.5571 -0.3695
72014SOL     OW25971   7.318   9.790   0.928 -0.0651  0.3006 -0.1775
72014SOL    HW125972   7.308   9.753   0.840  1.4300 -0.3590 -0.1181
72014SOL    HW225973   7.271   9.873   0.925  0.7239  0.7402 -1.9037
72015SOL     OW25974  10.369   2.189   9.074  0.1354  0.2984 -0.2630
72015SOL    HW125975  10.357   2.163   9.166  0.6185  2.5548  0.4989
72015SOL    HW225976  10.328   2.118   9.024  1.1431 -1.7323  1.6159
72016SOL     OW25977  12.692  13.274   0.843 -0.0477  0.6623  0.3824
72016SOL    HW125978  12.723  13.352   0.889 -1.1764  1.9818 -1.0188
72016SOL    HW225979  12.639  13.227   0.908 -0.8345  1.9929  0.7256
72017SOL     OW25980   3.221   7.649  10.743 -0.0815  0.3931  0.5660
72017SOL    HW125981   3.204   7.565  10.787 -0.8427 -0.1075 -0.6452
72017SOL    HW225982   3.281   7.627  10.672 -1.6752  0.5306 -0.8654
72018SOL     OW25983  10.614  12.045   0.043 -0.1035 -0.0105 -0.3158
72018SOL    HW125984  10.601  12.083   0.130 -1.8256 -0.6134 -0.2568
72018SOL    HW225985  10.708  12.032   0.035  0.3390  2.3066  0.4784
72019SOL     OW25986   8.034   5.522   3.639 -0.6943  0.1589 -0.6493
72019SOL    HW125987   7.950   5.485   3.662  0.0038 -0.3755  1.1826
72019SOL    HW225988   8.088   5.510   3.717  1.0658  0.5140 -1.7553
72020SOL     OW25989   6.985   8.481   1.224  0.1608 -0.3641 -0.4480
72020SOL    HW125990   7.072   8.442   1.219 -0.7012 -2.2729 -1.5602
72020SOL    HW225991   7.002   8.575   1.233  2.3214 -0.7196 -0.2636
72021SOL     OW25992   6.059   4.013   1.895  0.3382  0.6412  0.2233
72021SOL    HW125993   5.975   4.056   1.910  0.1408  0.5911 -0.6720
72021SOL    HW225994   6.102   4.015   1.980 -0.5568  0.6865  0.6925
72022SOL     OW25995   2.854   2.485  11.030 -0.0841 -0.3657  0.4934
72022SOL    HW125996   2.814   2.532  11.103  0.8300  1.1629  0.0487
72022SOL    HW225997   2.879   2.400  11.067  0.3051  0.3552  1.9497
72023SOL     OW25998   1.469  11.780   9.928  0.4279  0.2121  0.5405
72023SOL    HW125999   1.415  11.709   9.892 -2.1334  0.4769  3.5147
72023SOL    HW226000   1.555  11.767   9.887 -1.1091 -1.8677 -2.3854
72024SOL     OW26001  12.947   4.254  10.505  0.1841  0.0035  0.6107
72024SOL    HW126002  12.888   4.270  10.432  0.1118 -0.5863  0.5312
72024SOL    HW226003  13.035   4.259  10.468  0.1312 -1.8386  0.1180
72025SOL     OW26004  10.589   7.699   1.196 -0.0961  0.6777 -0.1404
72025SOL    HW126005  10.615   7.790   1.182 -0.1591  0.7675  0.3169
72025SOL    HW226006  10.511   7.704   1.252  1.4491  0.2699  2.2256
72026SOL     OW26007   1.664   1.151   1.713  0.2908 -0.2565  0.4696
72026SOL    HW126008   1.652   1.058   1.733  0.0084 -0.5358 -0.8959
72026SOL    HW226009   1.665   1.155   1.618  0.2899  1.1540  0.5091
72027SOL     OW26010  12.129  12.667   7.435  0.1159  0.6195 -0.3998
72027SOL    HW126011  12.162  12.611   7.364  0.9029 -0.0698  0.4897
72027SOL    HW226012  12.051  12.622   7.467 -0.1517  0.8541 -0.7052
72028SOL     OW26013   9.831  12.238   3.703  0.2557 -0.6561  0.9219
72028SOL    HW126014   9.906  12.298   3.711 -1.3011  1.7166 -0.8474
72028SOL    HW226015   9.867  12.160   3.663  1.5015  1.3420 -2.2282
72029SOL     OW26016   1.021   7.947   2.994 -0.1273 -0.2755  0.0299
72029SOL    HW126017   0.980   7.869   2.957 -0.1441 -0.7438  0.9887
72029SOL    HW226018   1.108   7.917   3.021  1.1716  0.8655 -2.5955
72030SOL     OW26019   2.917   7.854  11.980  0.0665 -0.5420  0.0420
72030SOL    HW126020   2.824   7.876  11.990  0.4571  0.5919  1.4677
72030SOL    HW226021   2.927   7.771  12.025 -0.3738 -1.0265 -0.7218
72031SOL     OW26022   7.725   8.782   5.096  0.5906  0.2977 -1.0093
72031SOL    HW126023   7.760   8.708   5.047 -0.6054 -0.3842 -0.8627
72031SOL    HW226024   7.649   8.747   5.143  0.2597  1.5047 -0.5983
72032SOL     OW26025  11.581   0.310   3.081  0.4049 -0.3148  0.2208
72032SOL    HW126026  11.631   0.367   3.138 -0.9950  1.8996 -0.6494
72032SOL    HW226027  11.624   0.317   2.996 -0.0375 -0.1720  0.0034
72033SOL     OW26028   7.066   8.969   4.398  0.0867 -0.0490 -0.1314
72033SOL    HW126029   7.126   8.926   4.337  1.2509  0.2156  0.7865
72033SOL    HW226030   7.123   9.008   4.464 -0.7847  3.7101 -1.3543
72034SOL     OW26031   7.226   0.175  12.470 -0.3986 -0.1602 -0.8454
72034SOL    HW126032   7.256   0.155  12.559 -0.0928  0.6699 -0.7509
72034SOL    HW226033   7.290   0.238  12.437 -1.2140  0.5037 -1.1925
72035SOL     OW26034   9.091  12.138   9.373 -0.3029 -0.1043  0.2815
72035SOL    HW126035   9.132  12.206   9.320  0.1261 -0.8910 -0.4096
72035SOL    HW226036   9.044  12.084   9.310 -1.3509  0.0342  0.9246
72036SOL     OW26037   1.313   8.130   4.886  0.2973 -0.1837  0.1285
72036SOL    HW126038   1.392   8.085   4.856 -0.5747 -1.8378  0.1487
72036SOL    HW226039   1.291   8.087   4.969 -0.2586  0.7116  0.4613
72037SOL     OW26040  12.167   3.083   6.612  0.8119  0.0579 -0.2946
72037SOL    HW126041  12.229   3.143   6.653  1.4861  0.0467 -1.2641
72037SOL    HW226042  12.220   3.029   6.553  0.3792 -2.1328  1.2063
72038SOL     OW26043   8.872   6.835   5.508  0.2650 -0.3074  0.0806
72038SOL    HW126044   8.878   6.813   5.415  1.3902 -1.4330  0.3994
72038SOL    HW226045   8.952   6.885   5.527  0.5318 -0.9296  0.6480
72039SOL     OW26046   2.945   4.647   1.564 -0.0960 -0.6020 -0.4253
72039SOL    HW126047   2.931   4.725   1.510  0.7547  1.2652  1.8845
72039SOL    HW226048   2.858   4.613   1.579 -0.4730 -0.2436 -1.6288
72040SOL     OW26049   8.285  11.869  10.947 -0.0982  0.0691  0.4698
72040SOL    HW126050   8.363  11.814  10.941 -0.9294 -0.9805 -1.8833
72040SOL    HW226051   8.253  11.875  10.857 -0.9932  3.0725  0.8850
72041SOL     OW26052   6.065   8.072   1.914 -0.3191  0.4051 -0.3112
72041SOL    HW126053   6.049   8.122   1.993  1.0447  1.0406 -0.4020
72041SOL    HW226054   6.123   8.001   1.942 -1.2858 -0.4505 -0.4127
72042SOL     OW26055   0.082  13.127   3.736  0.0557  0.6417 -0.2021
72042SOL    HW126056   0.145  13.080   3.790 -0.5650 -1.6515 -1.3736
72042SOL    HW226057   0.135  13.163   3.664  0.0435 -2.0670 -1.7032
72043SOL     OW26058  13.198   0.508  12.982 -0.2401 -0.0311  0.1067
72043SOL    HW126059  13.166   0.457  12.909  1.9243  1.0893 -1.7632
72043SOL    HW226060  13.276   0.461  13.013  0.5099  0.9415 -0.2249
72044SOL     OW26061  12.415   3.996   8.139 -0.3990  0.0461  0.0685
72044SOL    HW126062  12.396   4.032   8.225 -1.3452 -0.1779 -0.0339
72044SOL    HW226063  12.396   4.067   8.078 -1.4081 -0.3302 -0.0702
72045SOL     OW26064   5.021   5.772   5.428 -0.4600 -0.4235 -0.4409
72045SOL    HW126065   5.075   5.850   5.412  0.4702 -1.3305 -2.0508
72045SOL    HW226066   4.935   5.794   5.391  0.1752 -0.5843 -2.1079
72046SOL     OW26067  12.913   5.953   2.420 -0.1383  0.2141 -0.1683
72046SOL    HW126068  13.008   5.967   2.423  0.0109 -0.7492 -0.0191
72046SOL    HW226069  12.882   5.983   2.505 -0.0287  0.9151 -0.3689
72047SOL     OW26070   3.750   5.500   6.836  0.2687 -0.4169  0.4478
72047SOL    HW126071   3.719   5.587   6.813  0.2861 -0.3762  0.5761
72047SOL    HW226072   3.761   5.455   6.752 -0.3371 -0.5051  0.4129
72048SOL     OW26073  12.884   1.501   3.737 -0.0943 -0.1982 -0.0580
72048SOL    HW126074  12.970   1.532   3.707  0.0096  0.5969  1.0289
72048SOL    HW226075  12.884   1.407   3.716  0.3551  0.1129 -1.6082
72049SOL     OW26076   6.994   6.433  10.484  0.3157  0.6635  0.0314
72049SOL    HW126077   6.950   6.516  10.471 -1.2130 -0.0689  0.2632
72049SOL    HW226078   6.993   6.420  10.579 -0.1081  0.0568 -0.0503
72050SOL     OW26079   3.600   1.226   0.181 -0.4984 -0.4628 -0.3300
72050SOL    HW126080   3.648   1.308   0.170 -2.4128  0.6910 -0.4453
72050SOL    HW226081   3.646   1.163   0.125  2.4640 -0.1791  1.5735
72051SOL     OW26082   7.565  13.192   8.995  0.2378 -0.4616 -0.1589
72051SOL    HW126083   7.594  13.249   8.923 -1.4497 -0.0598 -0.5762
72051SOL    HW226084   7.556  13.106   8.955 -0.3248 -0.3182 -0.3588
72052SOL     OW26085   9.050   5.627  10.774 -0.3588 -0.1054  0.1393
72052SOL    HW126086   9.141   5.609  10.747 -0.4168 -0.2462  0.0335
72052SOL    HW226087   9.058   5.691  10.844 -0.2720  1.2185 -1.0367
72053SOL     OW26088   2.438  12.119   0.024 -0.1805 -0.3010 -0.1175
72053SOL    HW126089   2.438  12.215   0.026 -0.9759 -0.2835 -0.5019
72053SOL    HW226090   2.481  12.093   0.105  0.9823  0.3787 -0.5055
72054SOL     OW26091   4.102   1.314   2.446 -0.1139  0.1460  0.0924
72054SOL    HW126092   4.132   1.225   2.427  1.3885  0.9441 -1.4698
72054SOL    HW226093   4.061   1.344   2.365 -0.0238  1.1068  0.3888
72055SOL     OW26094  10.201  12.797   2.154  0.1670 -0.2998 -0.0167
72055SOL    HW126095  10.205  12.892   2.143  2.0218 -0.4251 -0.6441
72055SOL    HW226096  10.221  12.761   2.068  1.0010 -1.2654  0.5602
72056SOL     OW26097  12.214   2.440   1.614 -0.2900 -0.5008 -0.3557
72056SOL    HW126098  12.215   2.475   1.703  0.2387  0.6910 -0.8004
72056SOL    HW226099  12.121   2.433   1.592 -0.4166 -0.2478  0.0803
72057SOL     OW26100   7.275  13.264   8.958  0.1495 -0.3915 -0.5612
72057SOL    HW126101   7.358  13.234   8.995 -0.2140 -0.3600  0.3044
72057SOL    HW226102   7.211  13.200   8.988  0.0339 -1.1671 -2.3082
72058SOL     OW26103  12.579   9.098  11.748  0.1170 -0.0390  0.3052
72058SOL    HW126104  12.571   9.188  11.716 -0.1352  0.8964  2.7773
72058SOL    HW226105  12.651   9.102  11.811  0.8408 -1.8618 -0.3293
72059SOL     OW26106  11.753   9.945   8.277 -0.0908 -0.8939  0.1193
72059SOL    HW126107  11.753   9.945   8.181 -0.7824  0.3831  0.1015
72059SOL    HW226108  11.669   9.904   8.300 -0.1833 -0.6715  0.1758
72060SOL     OW26109   7.167   9.842  10.465 -0.0708  0.1156  0.2763
72060SOL    HW126110   7.227   9.787  10.514 -0.8162  0.2812  1.4183
72060SOL    HW226111   7.205   9.847  10.377  0.3681 -1.6542  0.3263
72061SOL     OW26112   4.306  10.029  12.458  0.0540  0.0874  0.6399
72061SOL    HW126113   4.280   9.967  12.526  2.6969 -0.1484  1.5450
72061SOL    HW226114   4.365  10.090  12.502  1.2587  0.4000 -1.2808
72062SOL     OW26115   2.164   3.502   4.297  0.4575  0.4468 -0.0249
72062SOL    HW126116   2.118   3.536   4.220  0.2477  1.1794  0.4167
72062SOL    HW226117   2.107   3.523   4.371  1.3917  1.1786  0.5127
72063SOL     OW26118  13.029  10.039   2.738  0.1475  0.3628  0.4315
72063SOL    HW126119  13.071  10.087   2.667  1.1705  0.3861  1.0334
72063SOL    HW226120  13.079   9.958   2.746 -0.6040 -0.1183  0.4487
72064SOL     OW26121   9.535   1.556   4.006  0.3304  0.1507 -0.3063
72064SOL    HW126122   9.521   1.619   3.935  1.2769 -1.6871 -2.2477
72064SOL    HW226123   9.553   1.473   3.961 -1.3016 -1.6501  2.1195
72065SOL     OW26124   8.662   5.946   5.293  0.2063 -0.2806 -0.0784
72065SOL    HW126125   8.655   5.852   5.310  0.9208 -0.3733 -0.2879
72065SOL    HW226126   8.756   5.963   5.288  0.1029 -0.0002 -2.4357
72066SOL     OW26127  12.964   3.436   5.177  0.1976  0.2368 -0.0375
72066SOL    HW126128  12.951   3.530   5.164 -0.0653  0.4502  1.5577
72066SOL    HW226129  12.891   3.409   5.232 -0.8983 -1.3562 -2.1523
72067SOL     OW26130   3.524   5.467   9.892  0.2917 -0.1300  0.1153
72067SOL    HW126131   3.534   5.513   9.976  1.3539  0.3482 -0.2499
72067SOL    HW226132   3.521   5.374   9.915  1.2072 -0.0366  0.6455
72068SOL     OW26133  12.623  10.276  12.379  0.5333  0.1605 -0.1112
72068SOL    HW126134  12.542  10.226  12.388  1.9839 -2.2413  0.2992
72068SOL    HW226135  12.641  10.309  12.467 -0.0646  0.8928 -0.2468
72069SOL     OW26136   5.162   8.538   9.750 -0.2812 -0.1290  0.0020
72069SOL    HW126137   5.231   8.597   9.718 -0.6585  1.1997  1.4996
72069SOL    HW226138   5.206   8.455   9.765  1.4312  1.0863  2.3586
72070SOL     OW26139  12.375   3.371  12.725  0.4891 -0.4539 -1.1223
72070SOL    HW126140  12.442   3.437  12.741  0.1462 -0.0555 -1.3048
72070SOL    HW226141  12.400   3.297  12.781  0.1117  0.3592  0.1661
72071SOL     OW26142   5.569  12.093   0.241 -0.1398 -0.0421  0.0865
72071SOL    HW126143   5.575  12.013   0.292 -0.3090 -0.5885 -0.7283
72071SOL    HW226144   5.476  12.118   0.244 -0.4489 -0.9585 -1.2491
72072SOL     OW26145   0.192  13.282   4.286  0.3808  0.0852  0.3507
72072SOL    HW126146   0.165  13.210   4.343  1.3035  0.4440  1.2741
72072SOL    HW226147   0.124  13.287   4.219 -0.2329 -0.9607  0.8782
72073SOL     OW26148  11.019   3.061  12.692 -0.0840  0.1239  0.6342
72073SOL    HW126149  10.984   3.110  12.618 -2.0543 -2.1128 -0.0584
72073SOL    HW226150  11.040   2.975  12.656  1.7117 -0.1124  2.1069
72074SOL     OW26151  11.624   6.058   5.398 -0.0283  0.2287 -0.2412
72074SOL    HW126152  11.601   6.017   5.315  1.3528 -0.2519 -0.4040
72074SOL    HW226153  11.540   6.086   5.434 -0.6499  0.5410 -1.8311
72075SOL     OW26154   1.981   8.984   9.878 -0.3676 -0.6420 -0.7658
72075SOL    HW126155   2.071   8.973   9.846  0.6145  2.7070  0.4163
72075SOL    HW226156   1.936   9.030   9.807  0.4033  2.2948  0.5320
72076SOL     OW26157   6.169   3.833  10.723 -0.6291 -0.0804 -0.1811
72076SOL    HW126158   6.179   3.920  10.763  1.7957 -0.2459 -0.2543
72076SOL    HW226159   6.143   3.776  10.796  0.8689  0.1703  0.6014
72077SOL     OW26160   3.068   6.857   8.109 -0.1612 -0.2649  0.0940
72077SOL    HW126161   3.115   6.779   8.140  3.0624  1.6726  0.5839
72077SOL    HW226162   3.064   6.847   8.014  1.0839 -0.6240  0.0623
72078SOL     OW26163   0.583  10.953   0.772  0.4740 -0.6905 -0.0344
72078SOL    HW126164   0.611  10.930   0.684  2.4180  0.3702  0.2373
72078SOL    HW226165   0.650  11.015   0.803  0.4679 -1.8469  2.5584
72079SOL     OW26166   3.797   2.658   9.828  0.3046  0.2725  0.5017
72079SOL    HW126167   3.812   2.679   9.736 -2.2371  0.2212 -0.0062
72079SOL    HW226168   3.830   2.569   9.839 -1.7571 -0.7974 -1.1530
72080SOL     OW26169   7.488   3.656   3.188  0.5176  0.7835 -0.7769
72080SOL    HW126170   7.531   3.653   3.273  0.7109 -0.8633 -0.9102
72080SOL    HW226171   7.525   3.733   3.145 -0.2479  2.1985  0.9399
72081SOL     OW26172   3.599  10.626   8.114 -0.0411  0.2837  0.2102
72081SOL    HW126173   3.551  10.660   8.038 -0.5331  0.8914  0.7806
72081SOL    HW226174   3.563  10.538   8.126 -0.3847  0.4059  0.0993
72082SOL     OW26175   5.399  12.324   5.577  0.5680  0.4666 -0.4061
72082SOL    HW126176   5.446  12.307   5.659 -0.1557  0.8674  0.0933
72082SOL    HW226177   5.452  12.391   5.533  0.2285  1.2565  0.3692
72083SOL     OW26178   8.318   0.571   2.399 -0.1217  0.0866  0.0453
72083SOL    HW126179   8.338   0.655   2.358 -0.0736 -0.6446 -1.4596
72083SOL    HW226180   8.243   0.590   2.456 -2.0514  0.5806 -2.5125
72084SOL     OW26181   5.196   4.248   5.715 -0.0340  0.1063  0.0812
72084SOL    HW126182   5.209   4.192   5.639  0.8526  0.3743  0.0218
72084SOL    HW226183   5.175   4.188   5.787 -1.5161 -0.0997 -0.5006
72085SOL     OW26184   7.244   3.886   2.534  0.3509  0.5353  0.6497
72085SOL    HW126185   7.190   3.893   2.456  0.9460 -1.1269  0.0411
72085SOL    HW226186   7.296   3.966   2.535 -0.8304  1.3265  0.2699
72086SOL     OW26187   0.992   0.249   0.530 -0.5280 -0.0265 -0.1420
72086SOL    HW126188   1.011   0.343   0.536 -2.3017  0.3441  0.1738
72086SOL    HW226189   0.896   0.244   0.533 -0.4371 -1.8957  0.5617
72087SOL     OW26190   5.069   3.392   8.476 -0.4515  0.0871 -0.1013
72087SOL    HW126191   5.143   3.451   8.466 -0.5715  0.1052 -0.8944
72087SOL    HW226192   5.032   3.416   8.561  1.5705 -1.2286  1.2376
72088SOL     OW26193   4.186  10.520   1.915 -0.8109 -0.4678  0.0036
72088SOL    HW126194   4.118  10.456   1.894 -0.4429 -1.0133  0.4180
72088SOL    HW226195   4.193  10.575   1.838 -0.1062 -1.8501 -0.9683
72089SOL     OW26196   5.384  11.111   3.816 -0.2081  0.0574  0.4548
72089SOL    HW126197   5.458  11.079   3.765  0.0912 -0.0746  0.9701
72089SOL    HW226198   5.393  11.206   3.815  0.2935  0.0217  0.9921
72090SOL     OW26199  12.237  10.576  12.780 -0.4297  0.1602  0.2339
72090SOL    HW126200  12.323  10.580  12.822 -0.5245 -0.6038  0.5211
72090SOL    HW226201  12.256  10.583  12.687 -0.0339 -0.1538  0.2843
72091SOL     OW26202   1.560  12.738  11.153  0.4611  0.6364 -0.7586
72091SOL    HW126203   1.523  12.652  11.131  1.0219 -0.3935  1.8568
72091SOL    HW226204   1.491  12.800  11.131 -0.5600 -0.6423 -1.3307
72092SOL     OW26205   6.295   7.219   8.354 -0.4988  0.2594 -0.6397
72092SOL    HW126206   6.204   7.207   8.384 -0.7231  2.7862 -0.1314
72092SOL    HW226207   6.289   7.283   8.284  0.8968  0.3634 -0.6834
72093SOL     OW26208   1.961   8.878  11.494  0.0390 -0.2605 -0.1694
72093SOL    HW126209   2.030   8.936  11.461  0.7482 -0.2507  1.2338
72093SOL    HW226210   1.892   8.937  11.524  0.5907 -0.1329  0.8930
72094SOL     OW26211   5.445  11.701  10.381  0.2750  0.4898  0.9471
72094SOL    HW126212   5.460  11.638  10.451  1.4172 -0.1363  0.1622
72094SOL    HW226213   5.357  11.734  10.398 -0.5443 -1.6365  1.1349
72095SOL     OW26214   9.907   1.286   8.053 -0.1923  0.1938 -0.1800
72095SOL    HW126215   9.984   1.257   8.102 -1.1016  1.5277  2.2386
72095SOL    HW226216   9.909   1.235   7.972  1.8475 -1.6180  0.9031
72096SOL     OW26217  10.978   9.305   2.704  0.2789 -0.3780  0.3087
72096SOL    HW126218  10.935   9.224   2.675  1.1075 -0.4483 -0.7598
72096SOL    HW226219  10.929   9.331   2.782 -0.8642 -1.1715 -0.1178
72097SOL     OW26220   5.173  11.509  11.011  0.2601 -0.3777 -0.4542
72097SOL    HW126221   5.168  11.598  11.048  1.0044 -0.2641 -0.6131
72097SOL    HW226222   5.167  11.452  11.087  1.9600 -0.1413 -0.0902
72098SOL     OW26223  11.161   0.239   7.738  0.1872 -0.7031 -0.3014
72098SOL    HW126224  11.220   0.168   7.765  1.6010  0.6225  0.3098
72098SOL    HW226225  11.118   0.267   7.819 -0.9327 -1.3327 -0.6629
72099SOL     OW26226   9.719  10.880   0.885 -0.1716  0.1528  0.2162
72099SOL    HW126227   9.638  10.932   0.890  0.0510  0.5219  0.0294
72099SOL    HW226228   9.786  10.943   0.860 -0.0011 -0.3401 -0.6247
72100SOL     OW26229  12.229   7.130   1.360 -0.0113 -0.2899 -0.0692
72100SOL    HW126230  12.195   7.155   1.446  0.1134  0.0522 -0.1199
72100SOL    HW226231  12.324   7.133   1.369  0.0745 -2.4395  0.4328
72101SOL     OW26232   6.177  10.421   3.242  0.2676 -0.4244 -0.2210
72101SOL    HW126233   6.108  10.407   3.177 -1.5690  2.1140  1.0289
72101SOL    HW226234   6.180  10.339   3.292  0.2379 -1.6284 -2.0636
72102SOL     OW26235  11.209   9.221   2.563  0.2293  0.5569 -0.5532
72102SOL    HW126236  11.186   9.128   2.563  0.8786  0.3450  1.3953
72102SOL    HW226237  11.131   9.265   2.595  0.8588  0.3088  1.5163
72103SOL     OW26238   4.440  11.631   1.709  0.0277 -0.0515 -0.6753
72103SOL    HW126239   4.522  11.661   1.749  0.5376 -0.6775 -1.2134
72103SOL    HW226240   4.384  11.607   1.783 -0.0258  1.2473 -0.2690
72104SOL     OW26241  12.572   3.539  12.729  0.6308 -0.0264 -0.1029
72104SOL    HW126242  12.618   3.533  12.813  0.3968  2.0674  0.2339
72104SOL    HW226243  12.618   3.608  12.682 -0.0682 -0.2745 -1.1719
72105SOL     OW26244   7.738   3.512   1.872 -0.1042  0.2560 -0.0244
72105SOL    HW126245   7.730   3.551   1.959 -1.8673  1.4414 -0.6623
72105SOL    HW226246   7.735   3.418   1.888 -1.5494  0.4684  1.1256
72106SOL     OW26247  13.017   6.967  12.400  0.1935  0.2901 -0.3568
72106SOL    HW126248  13.090   7.029  12.401 -0.8301  1.5445 -0.7046
72106SOL    HW226249  12.985   6.966  12.491  0.6692 -0.3116 -0.1896
72107SOL     OW26250   3.535   1.280   3.296 -0.7940 -0.1840 -0.7071
72107SOL    HW126251   3.625   1.309   3.284 -0.8464  0.4227  0.3058
72107SOL    HW226252   3.541   1.187   3.314 -0.2740  0.0645  0.4567
72108SOL     OW26253  11.983   7.633  10.721 -0.3574 -0.5506  0.5950
72108SOL    HW126254  12.037   7.643  10.799  0.9896 -1.7351 -0.1397
72108SOL    HW226255  11.995   7.714  10.672  1.5420 -1.1518 -0.0001
72109SOL     OW26256   9.319   2.778  13.244  0.0127  0.4664  0.3997
72109SOL    HW126257   9.401   2.821  13.269  0.2095  0.4964 -0.2783
72109SOL    HW226258   9.339   2.684  13.245  0.0712  0.4767  0.1773
72110SOL     OW26259   6.102   6.720   5.738  0.3634 -0.3156  0.2158
72110SOL    HW126260   6.152   6.648   5.700  2.5669 -0.2116  2.6626
72110SOL    HW226261   6.166   6.790   5.749 -1.1735  1.1439  0.2034
72111SOL     OW26262  11.751   8.893   6.979 -0.3019 -0.5716 -0.6768
72111SOL    HW126263  11.840   8.893   7.015 -1.1814 -0.3825  1.6807
72111SOL    HW226264  11.737   8.983   6.949  0.1668 -0.5082 -0.7049
72112SOL     OW26265   2.931   8.231   0.167 -0.6650  0.3505  0.3719
72112SOL    HW126266   3.027   8.234   0.166 -0.5561 -1.9389 -0.0491
72112SOL    HW226267   2.906   8.302   0.226  1.2933  0.7598  0.7782
72113SOL     OW26268   7.904   3.767  12.951 -0.3040 -0.3611  0.1228
72113SOL    HW126269   7.854   3.706  13.006 -0.5485 -0.0606  0.2388
72113SOL    HW226270   7.927   3.717  12.874 -2.0707 -0.0911 -0.6230
72114SOL     OW26271   0.099   2.515   4.639 -0.4219 -0.2939  0.1330
72114SOL    HW126272   0.090   2.606   4.610  2.2619  0.2282  0.6501
72114SOL    HW226273   0.056   2.463   4.571  0.1141  1.2353 -1.4338
72115SOL     OW26274   4.449   6.773   6.572  0.4488 -0.3541 -0.3226
72115SOL    HW126275   4.426   6.700   6.630  0.5590 -0.0880  0.0519
72115SOL    HW226276   4.494   6.731   6.498  1.5752 -0.5610  0.4526
72116SOL     OW26277   2.332  12.959   1.793  0.3498  0.6580  0.3749
72116SOL    HW126278   2.365  13.032   1.846 -3.1882  0.5245  3.1004
72116SOL    HW226279   2.260  12.997   1.743 -0.1154 -0.4873  0.1410
72117SOL     OW26280   3.750   4.093   4.851  0.0334 -0.0207  0.1398
72117SOL    HW126281   3.685   4.112   4.918 -1.6417 -0.2070 -1.3730
72117SOL    HW226282   3.751   3.998   4.845 -2.4696 -0.0147 -2.4551
72118SOL     OW26283   1.438   6.311   3.427 -0.0196 -0.4335 -0.1762
72118SOL    HW126284   1.389   6.250   3.483 -1.2880  0.5641 -0.1439
72118SOL    HW226285   1.499   6.354   3.487  1.3538 -2.0758 -0.3158
72119SOL     OW26286   2.749   8.519   1.045 -1.3426 -0.7128 -0.0911
72119SOL    HW126287   2.737   8.431   1.082  1.3816 -1.0272  0.2464
72119SOL    HW226288   2.709   8.578   1.109 -1.9933 -1.6212  0.3605
72120SOL     OW26289  10.672   7.104   5.940  0.3055  0.2445  0.7682
72120SOL    HW126290  10.764   7.086   5.926  0.1431  0.4730 -0.8925
72120SOL    HW226291  10.638   7.027   5.984  1.0073 -0.4895  0.0595
72121SOL     OW26292   6.429   5.485  10.819 -0.1573  0.4608 -0.6686
72121SOL    HW126293   6.524   5.490  10.828 -0.1662  0.4741 -0.5820
72121SOL    HW226294   6.410   5.391  10.819 -0.5573  0.2956  3.8838
72122SOL     OW26295   1.257   4.700   0.951 -0.1917  0.0381  0.1580
72122SOL    HW126296   1.311   4.621   0.960  0.7170  0.4033 -1.5215
72122SOL    HW226297   1.281   4.755   1.025 -2.4995 -2.0943  2.7002
72123SOL     OW26298   3.311  11.020   4.954  0.5208 -0.0536 -0.0857
72123SOL    HW126299   3.249  10.993   4.886 -2.0812  2.0891  1.2572
72123SOL    HW226300   3.287  10.968   5.031  2.0205 -0.8886 -0.1331
72124SOL     OW26301   6.737   6.681   6.297  0.0432 -0.4345 -0.1108
72124SOL    HW126302   6.730   6.684   6.202 -0.3426 -0.8455 -0.0951
72124SOL    HW226303   6.746   6.589   6.319  2.1807 -0.2297  0.1245
72125SOL     OW26304   8.534  11.852   7.084  0.0017  0.1479  0.0609
72125SOL    HW126305   8.557  11.810   7.001 -0.2503 -0.3573  0.2431
72125SOL    HW226306   8.613  11.843   7.137  0.1422  0.4130 -0.1019
72126SOL     OW26307   4.202   1.819   2.556  0.0897  0.3726  0.1683
72126SOL    HW126308   4.154   1.793   2.477 -0.2280  2.0485 -0.2177
72126SOL    HW226309   4.146   1.885   2.597  1.8407  2.0961 -0.0927
72127SOL     OW26310  10.904   3.368   7.512 -0.0440 -0.4493  0.0017
72127SOL    HW126311  10.927   3.426   7.439  0.2513 -1.3502 -0.6402
72127SOL    HW226312  10.924   3.419   7.590  1.1218 -0.0105 -0.5500
72128SOL     OW26313   4.731   6.779  13.227 -0.0528 -0.4678 -0.1880
72128SOL    HW126314   4.738   6.756  13.319  0.1829 -3.7405 -0.9064
72128SOL    HW226315   4.819   6.763  13.192 -0.1937  0.5288 -1.0451
72129SOL     OW26316   5.931  11.821   1.749 -0.0734  0.1516 -0.2688
72129SOL    HW126317   5.907  11.912   1.733  0.3926  0.7662  2.1338
72129SOL    HW226318   5.871  11.791   1.817  1.1181 -0.6341  0.4849
72130SOL     OW26319   2.146  10.186   5.924  0.2947  0.1539  0.0277
72130SOL    HW126320   2.122  10.158   6.012 -1.7447  0.5052 -0.3661
72130SOL    HW226321   2.196  10.266   5.937 -1.3798  1.1258  0.8631
72131SOL     OW26322  12.729  11.847   2.509  0.6093 -0.2306  0.4291
72131SOL    HW126323  12.782  11.903   2.566 -1.4690  1.2296  1.0568
72131SOL    HW226324  12.791  11.808   2.448  2.7376 -0.6291  2.6854
72132SOL     OW26325   3.583   5.324   1.541  0.0201 -0.4126 -1.0971
72132SOL    HW126326   3.664   5.297   1.585 -0.8668 -0.1683  0.8177
72132SOL    HW226327   3.562   5.252   1.482 -0.0231 -1.9816  0.7369
72133SOL     OW26328   1.389   9.979  10.863 -0.1443  0.4486 -0.0767
72133SOL    HW126329   1.359  10.011  10.949 -0.3423  1.2775 -0.4453
72133SOL    HW226330   1.481  10.004  10.860 -0.2778  0.9203 -0.3300
72134SOL     OW26331   9.219   7.313  11.866  0.5330  0.1494 -0.2407
72134SOL    HW126332   9.280   7.327  11.938 -1.0580  0.0541  1.1926
72134SOL    HW226333   9.241   7.227  11.832  0.3157 -0.4841  1.1715
72135SOL     OW26334   4.213   6.278  12.895  0.2442  0.4017  0.2578
72135SOL    HW126335   4.130   6.240  12.867  0.4456  1.1309 -1.4695
72135SOL    HW226336   4.191   6.368  12.919  0.5865  0.7508 -0.6844
72136SOL     OW26337   3.848   1.385   8.556 -0.8298  0.5336  0.0165
72136SOL    HW126338   3.846   1.328   8.479 -2.3331 -0.5398  0.7887
72136SOL    HW226339   3.809   1.467   8.525  2.0042  1.4907 -1.2948
72137SOL     OW26340   3.956   4.207   5.235 -0.1670  0.3502  0.7020
72137SOL    HW126341   3.948   4.240   5.324  1.5912  2.1425  0.2802
72137SOL    HW226342   3.867   4.201   5.202 -0.8646 -0.6202  2.6449
72138SOL     OW26343  11.206  10.798   9.265  0.1189 -0.3090 -0.5686
72138SOL    HW126344  11.213  10.838   9.352  0.2287 -0.4389 -0.5159
72138SOL    HW226345  11.163  10.864   9.211  0.9474  0.1638 -0.6654
72139SOL     OW26346  11.949  10.298   9.258 -0.2701  0.1820 -0.4184
72139SOL    HW126347  12.021  10.239   9.278 -0.0325  0.8949  0.9408
72139SOL    HW226348  11.988  10.366   9.204 -0.1930 -0.0678 -0.6792
72140SOL     OW26349   5.171  12.119  12.866  0.3449  0.3484  0.6526
72140SOL    HW126350   5.222  12.180  12.919  0.0848  0.9171  0.2640
72140SOL    HW226351   5.171  12.037  12.916  0.9165  0.5914  1.0568
72141SOL     OW26352  11.369   2.874  10.206  0.3663  0.1077  0.0431
72141SOL    HW126353  11.290   2.890  10.154  1.5021  1.6266 -1.3318
72141SOL    HW226354  11.364   2.937  10.278 -0.3581 -0.8047  0.8136
72142SOL     OW26355  10.788   8.821   1.444  0.4632 -0.3943 -0.4136
72142SOL    HW126356  10.711   8.780   1.403  0.7041 -0.9859 -0.2872
72142SOL    HW226357  10.768   8.915   1.444  0.0365 -0.4771 -1.0001
72143SOL     OW26358  11.190   5.734   4.986 -1.0707  0.2685 -0.0119
72143SOL    HW126359  11.272   5.783   4.987 -2.2281  2.3419  0.8359
72143SOL    HW226360  11.153   5.750   4.899 -0.2064 -1.4322 -0.7380
72144SOL     OW26361   5.121   7.500   9.959  0.0403 -0.2870 -0.2478
72144SOL    HW126362   5.164   7.420   9.989 -0.0785 -0.7889 -1.3486
72144SOL    HW226363   5.176   7.531   9.887 -1.5166 -1.0804 -1.8616
72145SOL     OW26364   3.782   0.806   3.634  0.2574 -0.4879 -0.6271
72145SOL    HW126365   3.733   0.734   3.595  2.4431 -1.8593 -1.0122
72145SOL    HW226366   3.873   0.775   3.636  1.3272  2.3193 -1.0088
72146SOL     OW26367   8.308   9.346   9.729  0.0912 -0.6381  0.1857
72146SOL    HW126368   8.314   9.255   9.700  2.2113 -1.5071  2.9281
72146SOL    HW226369   8.376   9.392   9.681 -0.2554 -0.7350 -0.4013
72147SOL     OW26370   4.131   0.321   5.069 -0.1174  0.0150 -0.2067
72147SOL    HW126371   4.115   0.288   4.980  0.4663  0.5282 -0.5157
72147SOL    HW226372   4.117   0.415   5.061 -0.0737  0.0593  0.2569
72148SOL     OW26373  12.780   2.872   4.823 -0.2211  0.0935 -0.7086
72148SOL    HW126374  12.744   2.819   4.895 -1.1867 -0.7162 -1.7570
72148SOL    HW226375  12.830   2.941   4.867  0.7071 -1.4211  0.7125
72149SOL     OW26376   6.521  12.177   9.058 -0.1627  0.0974 -0.4104
72149SOL    HW126377   6.528  12.173   8.962 -2.9247  0.5070 -0.7209
72149SOL    HW226378   6.484  12.264   9.076 -1.9608 -0.8355  0.7654
72150SOL     OW26379   1.435   2.407   9.668 -0.4551 -0.2430 -0.3597
72150SOL    HW126380   1.430   2.393   9.573  1.6958  2.7952 -1.0592
72150SOL    HW226381   1.370   2.475   9.685 -0.0156  0.0574  0.1286
72151SOL     OW26382  12.576  10.162   5.181  0.6675  0.0907 -0.0901
72151SOL    HW126383  12.670  10.156   5.170  0.6356  0.2469 -0.4447
72151SOL    HW226384  12.563  10.230   5.247  0.9529 -2.3001  2.6415
72152SOL     OW26385   5.517   0.262   8.269  0.3997 -0.4219 -0.3129
72152SOL    HW126386   5.437   0.275   8.218 -0.0431  1.7290  0.8147
72152SOL    HW226387   5.556   0.349   8.275  3.6220 -1.5810 -1.9446
72153SOL     OW26388  12.247   0.650  10.083  0.7253  0.1417  0.7592
72153SOL    HW126389  12.319   0.628  10.142 -0.8919 -1.6573  2.1768
72153SOL    HW226390  12.168   0.621  10.129 -0.9896  2.4800 -0.5270
72154SOL     OW26391  12.541   6.640   4.644 -0.3839 -0.0481  0.0489
72154SOL    HW126392  12.560   6.733   4.632  0.7078 -0.4090 -1.2587
72154SOL    HW226393  12.596   6.596   4.580 -0.2835 -1.6594  1.1877
72155SOL     OW26394   3.244   8.065   4.053 -0.3640  0.3199  0.1016
72155SOL    HW126395   3.208   8.072   3.964 -1.2506 -0.8863  0.3341
72155SOL    HW226396   3.173   8.096   4.109 -0.7458 -1.1693  0.5060
72156SOL     OW26397  10.363  12.776  12.856  0.6140  0.0057 -0.3292
72156SOL    HW126398  10.420  12.701  12.837  0.1999 -1.0053  2.1416
72156SOL    HW226399  10.360  12.780  12.951 -1.6552  1.4338 -0.4139
72157SOL     OW26400   1.256   6.322   1.363  0.4291 -0.3642  0.2255
72157SOL    HW126401   1.302   6.276   1.433 -1.6821 -1.4646  1.0075
72157SOL    HW226402   1.307   6.302   1.284  1.7533 -0.7702  1.1431
72158SOL     OW26403   0.134  10.143   3.778  0.3843  0.6337  0.1871
72158SOL    HW126404   0.138  10.239   3.771  2.5735  0.5817  0.0359
72158SOL    HW226405   0.225  10.115   3.772 -0.2151 -1.4808  0.2496
72159SOL     OW26406   8.958   9.455   8.580  0.0579  0.4359  0.0942
72159SOL    HW126407   8.892   9.516   8.545 -0.7486  0.8036  2.1499
72159SOL    HW226408   8.979   9.490   8.667  0.2804 -1.7021  0.9433
72160SOL     OW26409   6.331   2.489   6.096  0.3362 -0.4949  0.5889
72160SOL    HW126410   6.246   2.514   6.131  0.0928 -0.3096 -0.1247
72160SOL    HW226411   6.393   2.507   6.167  0.2523  2.6026  0.0035
72161SOL     OW26412   3.888  10.821   6.097 -0.1168  0.3732 -0.0835
72161SOL    HW126413   3.862  10.861   6.014  1.2462  2.1391  0.2770
72161SOL    HW226414   3.830  10.863   6.162 -1.2775 -1.1054 -0.1089
72162SOL     OW26415   2.235   9.113   2.346 -0.1384 -0.5562 -0.3562
72162SOL    HW126416   2.301   9.047   2.324 -0.0577 -0.2639 -1.0305
72162SOL    HW226417   2.169   9.104   2.276 -0.7385 -0.7450  0.2249
72163SOL     OW26418  12.615   2.802   9.673 -0.2359  0.6602 -0.6840
72163SOL    HW126419  12.702   2.767   9.691 -0.2627  0.7382 -0.3972
72163SOL    HW226420  12.579   2.744   9.607 -1.1620 -1.2577  1.3718
72164SOL     OW26421   3.601  11.861   2.040  0.0278 -0.4518  0.3288
72164SOL    HW126422   3.555  11.791   2.087  0.2453 -0.5545  0.3876
72164SOL    HW226423   3.547  11.939   2.055  0.0532 -0.4995  0.6868
72165SOL     OW26424  10.515  12.113   0.999  0.5204 -0.0860 -0.4702
72165SOL    HW126425  10.471  12.158   1.072 -1.3626  0.6985 -1.9934
72165SOL    HW226426  10.511  12.020   1.023  0.9065  0.2160  0.8891
72166SOL     OW26427   7.023   4.963   8.681 -0.2280  0.1515 -0.5426
72166SOL    HW126428   6.954   5.019   8.717 -1.1407  0.5218 -2.6721
72166SOL    HW226429   6.980   4.917   8.609  0.6343 -2.9465  0.7557
72167SOL     OW26430  13.051   0.825   8.594 -0.1760 -0.3625 -0.2553
72167SOL    HW126431  12.966   0.799   8.558 -0.6292  1.8246 -0.9086
72167SOL    HW226432  13.114   0.796   8.529 -0.7674  1.1603 -1.5737
72168SOL     OW26433  12.282   1.532   5.071  0.0727  0.2768 -0.2473
72168SOL    HW126434  12.311   1.461   5.128 -1.0981 -0.5368 -0.6383
72168SOL    HW226435  12.364   1.566   5.033  0.6458 -0.8955 -0.1030
72169SOL     OW26436   9.707   0.437   1.246 -0.1281 -0.3467  0.1195
72169SOL    HW126437   9.703   0.527   1.213  1.1783 -0.1175  0.5109
72169SOL    HW226438   9.662   0.440   1.330  1.0166  0.2562  0.7347
72170SOL     OW26439   9.552  12.373   4.923 -0.2736 -0.6737 -0.2988
72170SOL    HW126440   9.589  12.434   4.987  0.2065 -0.9288 -0.3305
72170SOL    HW226441   9.490  12.321   4.974 -1.3015  0.3761 -0.4412
72171SOL     OW26442   7.552  11.752   0.283  0.2623  0.0796 -0.1230
72171SOL    HW126443   7.485  11.719   0.344  0.0495 -1.0166 -0.9165
72171SOL    HW226444   7.538  11.702   0.203  0.0983  1.9777 -1.3272
72172SOL     OW26445   1.980   5.966  11.426 -0.1137  0.4203 -0.1139
72172SOL    HW126446   1.970   5.874  11.400 -0.6734  0.8066 -1.3563
72172SOL    HW226447   1.971   5.965  11.521 -1.6061 -0.6476 -0.2279
72173SOL     OW26448   6.798   4.178   1.629 -0.0831  0.0412 -0.2425
72173SOL    HW126449   6.824   4.184   1.537  0.3420 -0.6357 -0.1771
72173SOL    HW226450   6.797   4.084   1.648  0.1565  0.1807  0.5284
72174SOL     OW26451   3.305  11.511  11.895 -0.0816 -0.1302  0.4725
72174SOL    HW126452   3.288  11.419  11.914 -1.1550 -0.0823 -0.1621
72174SOL    HW226453   3.239  11.558  11.946  0.8534  0.3474  1.2862
72175SOL     OW26454   3.676   0.579   3.536  0.0436  0.1123 -0.3336
72175SOL    HW126455   3.686   0.575   3.441 -1.3270  0.6437 -0.5254
72175SOL    HW226456   3.652   0.491   3.562  0.3215 -0.0101 -0.4871
72176SOL     OW26457   7.862  12.428  11.047  0.9189  0.0621  0.0089
72176SOL    HW126458   7.782  12.376  11.057 -1.2939  3.0736 -0.6641
72176SOL    HW226459   7.902  12.427  11.134 -0.8141 -0.1181  0.8386
72177SOL     OW26460   1.177   7.945   2.421 -0.2896  0.2281  0.1149
72177SOL    HW126461   1.157   8.036   2.400  0.4238  0.2061 -0.7369
72177SOL    HW226462   1.179   7.942   2.516 -0.0386  1.1731  0.1532
72178SOL     OW26463   3.089   1.718   9.416  0.4434 -0.8671 -0.3864
72178SOL    HW126464   3.024   1.775   9.374  1.0098  0.4219  0.4311
72178SOL    HW226465   3.037   1.650   9.460 -0.3100 -0.3108 -0.4031
72179SOL     OW26466  13.240   5.353   8.693  0.0409  0.4167  0.0801
72179SOL    HW126467  13.171   5.306   8.740 -0.8072 -0.4516 -1.9101
72179SOL    HW226468  13.213   5.444   8.694 -1.0781  0.1016 -0.5467
72180SOL     OW26469   5.080   8.978   3.172  0.5781 -0.3262  0.4751
72180SOL    HW126470   5.168   8.978   3.209  1.6065  1.1548 -1.7351
72180SOL    HW226471   5.094   8.996   3.079 -1.9840 -1.4799 -0.2109
72181SOL     OW26472   3.495   6.470   5.464 -0.5912  0.1377 -0.6195
72181SOL    HW126473   3.566   6.466   5.528 -1.4229 -2.4394  0.2386
72181SOL    HW226474   3.454   6.555   5.479  0.3656  0.3481  0.9906
72182SOL     OW26475   4.139  11.017   5.369 -0.4116  0.1570 -0.2657
72182SOL    HW126476   4.159  11.059   5.286 -1.3925  0.5301 -0.3235
72182SOL    HW226477   4.157  11.084   5.435  1.5842 -0.5298 -0.0438
72183SOL     OW26478   6.198   3.314   4.407  0.1498 -0.4659 -0.3721
72183SOL    HW126479   6.191   3.366   4.487 -0.1881  1.7869 -1.7688
72183SOL    HW226480   6.292   3.304   4.394  0.2346  0.2879 -0.3709
72184SOL     OW26481   7.253   6.827   1.026 -0.0578 -0.0570 -0.1200
72184SOL    HW126482   7.345   6.805   1.039 -0.2125 -1.0677 -0.5986
72184SOL    HW226483   7.230   6.881   1.101  0.6600 -0.6401  0.5369
72185SOL     OW26484  10.871   6.445   5.934  0.0292  0.1461 -0.1786
72185SOL    HW126485  10.963   6.439   5.909 -0.2776 -2.1022 -0.9591
72185SOL    HW226486  10.850   6.358   5.968 -2.1881  0.1435 -1.4269
72186SOL     OW26487  10.513   5.058  12.209  0.5059  0.3785  0.0228
72186SOL    HW126488  10.459   5.094  12.279  0.3853 -0.2308  0.2576
72186SOL    HW226489  10.458   4.989  12.170  0.6244  0.6225 -0.5833
72187SOL     OW26490   8.894   9.745   5.430 -0.1503  0.1138  0.1508
72187SOL    HW126491   8.897   9.741   5.335 -2.9958 -2.4882  0.0412
72187SOL    HW226492   8.845   9.825   5.450 -0.2052  0.2653 -0.5778
72188SOL     OW26493   6.779  11.537   2.508  0.1787 -0.3299  0.1276
72188SOL    HW126494   6.765  11.573   2.595 -0.8188 -0.3924  0.0106
72188SOL    HW226495   6.780  11.442   2.521  0.7216 -0.3237  0.1564
72189SOL     OW26496   3.583  12.229   7.197  0.6224  0.0068  0.3748
72189SOL    HW126497   3.499  12.273   7.212  0.1247 -0.8832  0.2520
72189SOL    HW226498   3.560  12.137   7.186  1.4325 -0.0430 -1.2548
72190SOL     OW26499   4.103   4.128   4.445 -0.1112  0.0667 -0.4348
72190SOL    HW126500   4.040   4.090   4.506  1.2405 -2.5163 -0.5151
72190SOL    HW226501   4.071   4.102   4.358  0.0196  0.4629 -0.6055
72191SOL     OW26502   5.832   0.126   1.989  0.0533  0.5965 -0.5125
72191SOL    HW126503   5.737   0.116   1.984  0.2635 -1.2781 -1.6079
72191SOL    HW226504   5.847   0.220   1.982 -1.7971  1.1540  1.7652
72192SOL     OW26505   1.427   4.257   2.164 -0.4607  0.2078 -0.2391
72192SOL    HW126506   1.423   4.311   2.243 -0.6392  0.1760 -0.2275
72192SOL    HW226507   1.521   4.240   2.153 -0.5486 -1.1879  0.9214
72193SOL     OW26508   3.168   2.529   5.887 -0.5036  0.2032  0.1167
72193SOL    HW126509   3.128   2.568   5.965 -0.3705  1.7215 -0.5355
72193SOL    HW226510   3.261   2.551   5.894 -0.2425 -0.8729  0.2171
72194SOL     OW26511   6.357   3.605  10.045  0.2451  0.1948  0.1463
72194SOL    HW126512   6.297   3.532  10.058  0.5830  0.2379  2.4833
72194SOL    HW226513   6.400   3.588   9.961 -1.3526 -1.0396 -0.4512
72195SOL     OW26514   9.605   7.436   0.703  0.4463 -0.1702  0.2445
72195SOL    HW126515   9.648   7.352   0.681 -0.0406 -0.7115  1.3131
72195SOL    HW226516   9.664   7.477   0.765  0.9817  0.5801 -0.7305
72196SOL     OW26517   8.896   9.894   1.032 -0.0916  0.6112  0.4464
72196SOL    HW126518   8.936   9.861   0.951 -1.1459 -3.8802  1.4603
72196SOL    HW226519   8.807   9.917   1.007 -0.7287 -1.6882  0.3470
72197SOL     OW26520  13.280   5.450   3.325 -0.2072  0.2707 -0.1699
72197SOL    HW126521  13.297   5.505   3.249  0.1301 -0.2769 -0.4992
72197SOL    HW226522  13.317   5.365   3.302 -1.7980 -0.4687 -0.1809
72198SOL     OW26523  10.838  10.763  13.110  0.1564 -0.1553 -0.1372
72198SOL    HW126524  10.903  10.745  13.178 -0.7164 -0.9300  0.5169
72198SOL    HW226525  10.871  10.717  13.033  1.8119  1.7547 -0.6804
72199SOL     OW26526   8.098  13.094   7.696  0.1683  0.7775 -0.0335
72199SOL    HW126527   8.137  13.119   7.612 -1.6251  0.1340 -1.1037
72199SOL    HW226528   8.092  12.999   7.692 -1.1851  0.8413  0.2323
72200SOL     OW26529   7.558   7.192  12.972 -0.7125  0.6918 -0.2350
72200SOL    HW126530   7.527   7.266  13.023  0.2100  0.9615 -0.0525
72200SOL    HW226531   7.530   7.115  13.022 -1.2564  0.9165 -0.1830
72201SOL     OW26532   5.470   1.455   7.075 -0.1140  0.1471  0.3117
72201SOL    HW126533   5.456   1.501   7.158 -2.3808  2.8946 -1.4344
72201SOL    HW226534   5.402   1.388   7.073 -0.1165  0.1386  0.6068
72202SOL     OW26535   5.481   8.244  11.538 -0.7615 -0.2211 -0.1508
72202SOL    HW126536   5.408   8.290  11.579 -0.8818 -1.2412  0.8403
72202SOL    HW226537   5.447   8.218  11.452 -1.3196 -0.0651  0.0156
72203SOL     OW26538   7.008  11.868   3.207  0.7198 -0.0304  0.5306
72203SOL    HW126539   6.968  11.952   3.185 -0.3551 -0.6551  0.0430
72203SOL    HW226540   7.024  11.874   3.302 -0.0211  0.4431  0.6348
72204SOL     OW26541   6.462   4.959   4.560 -0.8668  0.4431 -0.5232
72204SOL    HW126542   6.505   5.018   4.497  2.9702 -0.6681  0.7887
72204SOL    HW226543   6.425   4.890   4.505 -0.6579  1.2521 -1.7393
72205SOL     OW26544   8.246   5.694   3.623  0.2300 -0.3137  0.4780
72205SOL    HW126545   8.175   5.636   3.597 -1.4947  1.8704 -0.0633
72205SOL    HW226546   8.318   5.636   3.648 -0.0723 -2.6949 -3.3288
72206SOL     OW26547   9.744   5.600   3.632 -0.2084  0.2463 -0.6689
72206SOL    HW126548   9.697   5.535   3.580  0.0357  0.0224 -0.6102
72206SOL    HW226549   9.683   5.625   3.702 -0.4581  0.3938 -0.9395
72207SOL     OW26550   9.101  10.033  10.835 -0.5190 -0.3425 -0.2388
72207SOL    HW126551   9.056  10.100  10.886 -0.4539  0.4714 -1.2099
72207SOL    HW226552   9.113   9.960  10.895  0.0431  0.7843  1.0547
72208SOL     OW26553   4.008  10.623   8.126  0.4720  0.0383 -0.2934
72208SOL    HW126554   3.960  10.563   8.182  2.4545  0.2589  1.7964
72208SOL    HW226555   3.947  10.695   8.108  0.2462  0.8813  3.2001
72209SOL     OW26556  10.699   0.660  10.561  0.4342  0.3692 -0.3440
72209SOL    HW126557  10.755   0.704  10.497  1.6123 -0.5412  0.0266
72209SOL    HW226558  10.703   0.716  10.638  0.6056  0.4523 -0.4124
72210SOL     OW26559   6.997   5.033  12.743 -0.0540 -0.4519 -0.4418
72210SOL    HW126560   6.963   4.960  12.795  0.1469  0.2714  0.7279
72210SOL    HW226561   7.091   5.029  12.755  0.0628 -0.7297 -1.3771
72211SOL     OW26562   5.648   8.039   6.454  0.3292 -0.6113  0.2706
72211SOL    HW126563   5.601   8.115   6.421  1.3956 -0.1719 -0.2834
72211SOL    HW226564   5.661   8.057   6.547  0.7925  0.0170  0.0915
72212SOL     OW26565   6.505   8.623  12.086  0.5958  0.8707  0.2191
72212SOL    HW126566   6.558   8.625  12.166 -0.6092 -0.9806  1.1142
72212SOL    HW226567   6.417   8.644  12.115 -0.0268 -0.6757 -0.4476
72213SOL     OW26568   9.015   5.288   1.708  0.0364 -0.5041  0.2658
72213SOL    HW126569   9.077   5.218   1.686  1.6814  0.6971  0.8399
72213SOL    HW226570   8.929   5.246   1.707  0.5685 -1.7577 -2.7911
72214SOL     OW26571   6.932   0.189   6.876  0.1142  0.2077 -1.0828
72214SOL    HW126572   7.002   0.226   6.823  0.2441 -0.2316 -1.2285
72214SOL    HW226573   6.975   0.119   6.926  0.2778  1.4053  0.5503
72215SOL     OW26574   5.338   3.620  10.755  0.3031 -0.8931 -0.1401
72215SOL    HW126575   5.345   3.581  10.669  1.0994 -0.5597 -0.2338
72215SOL    HW226576   5.424   3.608  10.795  0.3516  0.1184  0.0984
72216SOL     OW26577   7.399   4.981   3.911  0.0963 -0.1712 -0.1651
72216SOL    HW126578   7.377   4.898   3.868 -0.4420 -0.7580  1.1905
72216SOL    HW226579   7.368   5.048   3.849 -0.4070 -0.9762 -0.8177
72217SOL     OW26580   8.608  12.836   9.322 -0.0164  0.0902  0.7362
72217SOL    HW126581   8.617  12.891   9.245  2.0053  1.2183  1.6917
72217SOL    HW226582   8.670  12.764   9.307  2.1872  1.5535  2.2247
72218SOL     OW26583   2.148   2.711   7.712 -0.3262 -0.1417 -0.1650
72218SOL    HW126584   2.187   2.739   7.795 -1.5783  0.0871  0.3874
72218SOL    HW226585   2.205   2.746   7.645 -1.5643  3.5395  0.4861
72219SOL     OW26586   0.897   4.215   4.354  0.7458  0.2042  0.2124
72219SOL    HW126587   0.825   4.236   4.295  0.8791 -1.5490 -0.6671
72219SOL    HW226588   0.854   4.183   4.434  0.5609  1.2580  0.5398
72220SOL     OW26589  13.259   7.768  12.056  0.4788 -0.1001  0.2811
72220SOL    HW126590  13.325   7.829  12.023 -1.4582  2.4254  0.8354
72220SOL    HW226591  13.295   7.737  12.139  0.8796  1.4419  0.7083
72221SOL     OW26592   3.730  12.996   6.352  0.3835 -0.0238  0.2550
72221SOL    HW126593   3.727  13.055   6.277  0.0143  0.2635  0.4941
72221SOL    HW226594   3.780  12.920   6.321  0.3562  0.1584 -0.2346
72222SOL     OW26595   8.927   6.740  12.689  0.1008 -0.0189  0.4225
72222SOL    HW126596   8.995   6.689  12.646 -0.2993 -0.5821  0.4487
72222SOL    HW226597   8.960   6.830  12.688 -0.7067  0.3703 -2.8095
72223SOL     OW26598   5.861   5.549   5.404 -0.2955  0.6365 -0.0212
72223SOL    HW126599   5.820   5.597   5.476 -0.1878  1.2872 -0.3887
72223SOL    HW226600   5.896   5.616   5.346 -0.5503  0.1306 -0.7907
72224SOL     OW26601   2.933  11.216   0.463 -0.1120 -0.5858  0.6106
72224SOL    HW126602   2.907  11.136   0.509 -0.9096 -0.0479  1.1175
72224SOL    HW226603   3.028  11.208   0.452 -0.0351 -1.1311  1.5757
72225SOL     OW26604   1.166  12.843   2.367 -0.1873  0.3692 -0.1317
72225SOL    HW126605   1.193  12.883   2.284  0.4957  0.1132 -0.0401
72225SOL    HW226606   1.216  12.890   2.433 -2.0892  1.8297  0.3347
72226SOL     OW26607   3.913  12.852   3.370 -0.4927  0.6951  0.2105
72226SOL    HW126608   3.958  12.783   3.321 -2.4757 -0.9556  0.5459
72226SOL    HW226609   3.942  12.841   3.460 -1.9794 -0.8610  0.5649
72227SOL     OW26610   9.454   8.784   5.227  0.0253  0.0583 -0.2187
72227SOL    HW126611   9.368   8.795   5.185 -0.3562  1.5329  0.8753
72227SOL    HW226612   9.497   8.869   5.215  0.9999 -0.3888  0.0158
72228SOL     OW26613  10.292   5.398   7.020  0.0927 -0.1481  0.2200
72228SOL    HW126614  10.332   5.448   6.949  0.2599  0.7958  0.9596
72228SOL    HW226615  10.306   5.307   6.996  0.6930  0.1616 -0.6479
72229SOL     OW26616   1.870   0.077  11.177 -0.1823  0.5475  0.2770
72229SOL    HW126617   1.841   0.001  11.228 -0.1961  0.6541  0.4275
72229SOL    HW226618   1.918   0.039  11.103  0.0190  0.4012  0.4819
72230SOL     OW26619   1.882   3.834   7.370  0.4511  0.0853  0.2913
72230SOL    HW126620   1.963   3.790   7.345 -1.2612 -1.6749 -2.7881
72230SOL    HW226621   1.891   3.922   7.333  0.6753 -0.3674 -0.7938
72231SOL     OW26622   0.919   2.694  10.545 -0.3691  0.1634  0.3901
72231SOL    HW126623   0.857   2.764  10.562  0.1842  0.5250  0.9820
72231SOL    HW226624   0.940   2.703  10.452 -0.6072  0.5295  0.3684
72232SOL     OW26625   6.256   8.214   3.058  0.1277 -0.2290 -0.2255
72232SOL    HW126626   6.317   8.142   3.070  0.0186 -0.1115  1.2383
72232SOL    HW226627   6.292   8.285   3.113 -0.7697  0.1778 -0.1475
72233SOL     OW26628   5.751  11.565   7.820 -0.0540  0.1095 -0.3048
72233SOL    HW126629   5.746  11.541   7.727 -0.6091 -1.9709  0.2023
72233SOL    HW226630   5.788  11.487   7.862 -0.4071  0.7787  1.2994
72234SOL     OW26631  12.218   9.069   2.550  0.1807 -0.2310 -0.1188
72234SOL    HW126632  12.229   8.979   2.582 -1.8757  0.0990  1.7135
72234SOL    HW226633  12.260   9.123   2.617  0.7233  0.2401 -0.8241
72235SOL     OW26634   0.736   3.730   0.021  0.0428 -0.0160  0.1890
72235SOL    HW126635   0.724   3.638   0.047  3.2230 -0.4346  0.5839
72235SOL    HW226636   0.714   3.780   0.099  0.6952 -0.6552  0.8030
72236SOL     OW26637   8.438   3.781   5.756  0.1297  0.3941 -0.1996
72236SOL    HW126638   8.427   3.843   5.828 -1.4726  0.4528 -0.4648
72236SOL    HW226639   8.353   3.737   5.749  0.0799  0.7361 -2.3716
72237SOL     OW26640  12.509   5.236   1.274  0.5214  0.2703  0.0460
72237SOL    HW126641  12.601   5.238   1.245  0.3703 -0.1615 -0.4835
72237SOL    HW226642  12.493   5.144   1.294 -0.7515 -0.3213 -3.0849
72238SOL     OW26643   2.082   3.001   5.591 -0.4022  0.4490 -0.0074
72238SOL    HW126644   2.061   3.056   5.667 -0.0243  0.6163 -0.0225
72238SOL    HW226645   2.067   2.912   5.622  0.2930  0.4813  0.4421
72239SOL     OW26646   9.689   6.979   4.504  0.1698  0.0998 -0.3891
72239SOL    HW126647   9.620   7.012   4.447 -0.9552 -1.0731  0.2397
72239SOL    HW226648   9.746   6.928   4.446 -0.0462  0.2657 -0.7467
72240SOL     OW26649   7.254   0.760   9.958 -0.0029  0.0093 -0.0470
72240SOL    HW126650   7.170   0.804   9.972 -0.2752 -0.6951  0.5913
72240SOL    HW226651   7.282   0.789   9.871  0.4073  2.3568  0.8122
72241SOL     OW26652   2.163  11.351   6.226  0.1241 -0.1162 -0.4664
72241SOL    HW126653   2.139  11.365   6.318  0.2600 -1.0882 -0.2691
72241SOL    HW226654   2.205  11.433   6.200 -2.2121  1.1826 -0.4429
72242SOL     OW26655   5.401   2.095   9.782  0.2540 -0.0315  0.1319
72242SOL    HW126656   5.457   2.073   9.856 -0.4319 -1.8929  0.1578
72242SOL    HW226657   5.435   2.042   9.710  0.0312  0.6806 -0.5081
72243SOL     OW26658  10.662   2.014   2.433  0.2060  0.1250 -0.0508
72243SOL    HW126659  10.618   2.089   2.394 -0.5741  0.2030  0.9281
72243SOL    HW226660  10.635   1.940   2.380 -1.1823  0.1631  0.5560
72244SOL     OW26661  10.087  10.286   2.562 -0.3997  0.1444 -0.3467
72244SOL    HW126662  10.168  10.336   2.553 -1.3593  2.0836  0.9494
72244SOL    HW226663  10.061  10.298   2.653 -2.5647  0.3163 -0.9182
72245SOL     OW26664  10.987   4.642  11.360 -0.1539  0.0389  0.0698
72245SOL    HW126665  11.010   4.560  11.405 -1.0801  0.7461  1.9421
72245SOL    HW226666  10.963   4.615  11.272 -1.4435 -1.8595  0.9362
72246SOL     OW26667   0.632   1.000   5.679 -1.0574 -0.2332  0.5241
72246SOL    HW126668   0.695   1.014   5.608 -0.9678  0.1667  0.6825
72246SOL    HW226669   0.679   0.946   5.742 -1.2031 -0.7566  0.1899
72247SOL     OW26670   3.172   8.834   8.239 -0.2508 -0.2210 -0.1400
72247SOL    HW126671   3.177   8.891   8.163 -0.1112 -0.9766 -0.7103
72247SOL    HW226672   3.221   8.879   8.307  0.5952 -0.0605 -0.8411
72248SOL     OW26673  10.684   0.843   1.586 -0.6659  0.2680 -0.0329
72248SOL    HW126674  10.678   0.779   1.657 -1.0723 -0.5017 -0.7465
72248SOL    HW226675  10.669   0.928   1.629  2.7895  0.2867  1.4706
72249SOL     OW26676   1.516   6.759   4.172  0.1945 -0.0659 -0.0459
72249SOL    HW126677   1.573   6.717   4.108  1.1305 -0.1362  0.7994
72249SOL    HW226678   1.470   6.827   4.123  0.6121 -0.3590 -0.8608
72250SOL     OW26679  11.858   4.912   3.624 -0.0118 -0.4018 -0.3004
72250SOL    HW126680  11.783   4.969   3.643  0.6736  0.5844 -0.4747
72250SOL    HW226681  11.821   4.838   3.576 -0.7417  0.5177 -1.1807
72251SOL     OW26682  10.605  11.107  10.497 -0.1666  0.0890  0.3976
72251SOL    HW126683  10.577  11.181  10.444 -0.0225  0.7171  1.1950
72251SOL    HW226684  10.596  11.031  10.438 -0.4053  0.7137 -0.3863
72252SOL     OW26685   8.918   1.359   2.816 -0.3174 -0.0851  0.1035
72252SOL    HW126686   8.966   1.395   2.890  0.9556 -0.5110 -0.4790
72252SOL    HW226687   8.909   1.266   2.837 -0.4546 -0.0997 -0.0196
72253SOL     OW26688   4.888  13.166   8.094 -0.1427 -0.9594 -0.4314
72253SOL    HW126689   4.892  13.071   8.101  0.2135 -0.9633 -0.6519
72253SOL    HW226690   4.916  13.184   8.005  0.8796 -0.5794 -0.0430
72254SOL     OW26691   1.094   4.374   7.660 -0.5137  0.1411  0.0085
72254SOL    HW126692   1.102   4.469   7.660  0.9390  0.0628 -1.2135
72254SOL    HW226693   1.091   4.350   7.753 -2.1272  1.4233  0.3369
72255SOL     OW26694   8.141   2.037   7.431 -0.0401  0.4305 -0.1723
72255SOL    HW126695   8.235   2.021   7.427 -0.3508 -1.5796 -0.6050
72255SOL    HW226696   8.129   2.088   7.511  1.3769  0.3972  0.0928
72256SOL     OW26697  11.439  10.653   4.164  0.1110 -0.3413 -0.0149
72256SOL    HW126698  11.440  10.749   4.159 -0.4847 -0.1405  2.5199
72256SOL    HW226699  11.373  10.627   4.099  1.0859  0.8334 -1.5701
72257SOL     OW26700   8.739  12.506  13.260 -0.0559  0.4736  0.1849
72257SOL    HW126701   8.711  12.417  13.237  1.7514  0.4869 -2.4882
72257SOL    HW226702   8.669  12.562  13.228  0.0781  0.1552 -0.6911
72258SOL     OW26703  11.007   5.809   7.333  0.4327 -0.5101  0.0035
72258SOL    HW126704  11.027   5.839   7.245  2.1696  0.5541  0.7088
72258SOL    HW226705  10.914   5.829   7.345 -0.0111 -1.3186 -1.8029
72259SOL     OW26706  13.045   9.617  12.804  0.2095  0.0555 -0.2392
72259SOL    HW126707  12.983   9.682  12.770 -0.9266  0.1073  1.7571
72259SOL    HW226708  13.026   9.537  12.754 -0.6714  0.3901 -0.4640
72260SOL     OW26709  11.741   7.657  12.670 -0.4882 -0.8606  0.7787
72260SOL    HW126710  11.667   7.694  12.621 -0.7893 -0.1858  1.7048
72260SOL    HW226711  11.729   7.562  12.663  1.7749 -1.0651 -3.9269
72261SOL     OW26712   1.831   9.756   8.512 -0.0690 -0.0776  0.0344
72261SOL    HW126713   1.907   9.811   8.527 -0.1994 -0.4232  2.2210
72261SOL    HW226714   1.756   9.812   8.532 -0.5609  0.6269 -3.2100
72262SOL     OW26715   6.672   0.371  12.495 -0.8441  0.2267 -0.2868
72262SOL    HW126716   6.748   0.401  12.545 -0.6206 -0.3801 -0.2495
72262SOL    HW226717   6.612   0.336  12.561 -1.0878  0.5608 -0.3300
72263SOL     OW26718   6.868  10.395   3.438 -0.1353 -0.2757 -0.1576
72263SOL    HW126719   6.946  10.446   3.417  0.4510 -1.5908 -1.3604
72263SOL    HW226720   6.800  10.460   3.453  1.1914  0.9155  1.0693
72264SOL     OW26721   8.954  11.002   7.436 -0.0827  0.5292 -0.5283
72264SOL    HW126722   8.979  10.924   7.388  2.5602  1.0604 -0.1958
72264SOL    HW226723   8.886  10.973   7.497  0.1567 -1.2816 -1.0832
72265SOL     OW26724   6.967   9.691   2.244 -0.0908  0.4168  0.6912
72265SOL    HW126725   6.972   9.693   2.148 -2.3862  0.1769  0.5107
72265SOL    HW226726   7.052   9.656   2.272  0.4498  0.0500 -1.2627
72266SOL     OW26727  12.951  11.670   1.361  0.0505 -0.2991 -0.5894
72266SOL    HW126728  13.002  11.719   1.297  0.0849  1.1541  0.4896
72266SOL    HW226729  12.952  11.725   1.439 -0.8565 -1.5349  0.3359
72267SOL     OW26730   6.271   6.975  11.181  0.4911  0.2560 -0.5430
72267SOL    HW126731   6.203   7.031  11.220  0.3362  0.0472 -0.5109
72267SOL    HW226732   6.328   6.952  11.254  0.4687  0.2498 -0.5275
72268SOL     OW26733  10.434   0.683   3.903 -0.4909 -0.5141 -0.6545
72268SOL    HW126734  10.402   0.741   3.834  0.8951  0.5777 -0.4208
72268SOL    HW226735  10.503   0.631   3.860 -0.5692 -0.8017 -0.4334
72269SOL     OW26736   3.391   0.959   1.844  0.3201  0.1269  0.1667
72269SOL    HW126737   3.297   0.978   1.845  0.4253  0.9908  2.6476
72269SOL    HW226738   3.428   1.021   1.907  2.3273 -1.2197  0.4019
72270SOL     OW26739   7.427   1.565  10.647  0.7144  0.0098 -0.1167
72270SOL    HW126740   7.472   1.532  10.724  0.5850  1.2512  0.5137
72270SOL    HW226741   7.496   1.578  10.582  0.7262 -1.8306 -0.5536
72271SOL     OW26742   4.593   0.234   3.280  0.7841 -0.0202  0.1171
72271SOL    HW126743   4.670   0.285   3.305 -0.3066  1.9955 -0.3917
72271SOL    HW226744   4.527   0.300   3.257 -0.8668 -1.6787 -0.1649
72272SOL     OW26745  11.635   7.857   8.266 -0.0228  0.2401 -0.0395
72272SOL    HW126746  11.712   7.806   8.241  0.3571  0.6889  0.2064
72272SOL    HW226747  11.666   7.948   8.269  0.1549  0.1613  2.7353
72273SOL     OW26748   9.974   4.558   4.132 -0.0421 -0.1406  0.5174
72273SOL    HW126749   9.923   4.501   4.075 -0.1915 -1.0125  1.4912
72273SOL    HW226750  10.001   4.631   4.076 -1.1777 -0.3698 -0.3530
72274SOL     OW26751   3.149   8.103  10.562 -0.2612  0.1952 -0.0282
72274SOL    HW126752   3.162   8.147  10.646  0.4239  0.6026 -0.3488
72274SOL    HW226753   3.222   8.132  10.507 -0.2715 -0.6775 -0.5168
72275SOL     OW26754   3.868   8.613   8.033  0.2179 -0.4355 -0.1968
72275SOL    HW126755   3.874   8.706   8.014 -0.1443  0.1452  2.2385
72275SOL    HW226756   3.816   8.607   8.113  1.0111 -2.6500  0.2558
72276SOL     OW26757   1.891  10.595   3.582 -1.0428 -0.2479 -0.0533
72276SOL    HW126758   1.903  10.675   3.631 -0.8856  1.0241 -2.0463
72276SOL    HW226759   1.819  10.614   3.522  0.7330 -0.5574 -2.4501
72277SOL     OW26760   7.837   8.493  12.067  0.1382  0.5899 -0.0089
72277SOL    HW126761   7.771   8.431  12.097  0.0036  0.6032 -0.2742
72277SOL    HW226762   7.812   8.576  12.108  0.1361  0.5416  0.0898
72278SOL     OW26763  10.948   7.843   7.911 -0.0701  0.2600  0.5962
72278SOL    HW126764  10.954   7.881   7.999  0.7737  0.4414  0.4751
72278SOL    HW226765  10.864   7.874   7.877  0.1444  1.2021  0.8870
72279SOL     OW26766   9.643  12.936   4.364  0.3658 -0.4732 -0.6144
72279SOL    HW126767   9.682  13.024   4.367 -1.3094  0.2769  0.4032
72279SOL    HW226768   9.712  12.878   4.397  0.7505  0.7727  0.8812
72280SOL     OW26769   1.795  12.152  11.364 -0.6619  0.5258  0.0268
72280SOL    HW126770   1.799  12.134  11.271 -0.4079  1.9937 -0.2729
72280SOL    HW226771   1.719  12.209  11.375 -0.8498  0.1557  0.7612
72281SOL     OW26772   3.147   3.818  10.002  0.3757 -0.2343 -0.3591
72281SOL    HW126773   3.093   3.761   9.949 -0.1453 -0.2517  0.1776
72281SOL    HW226774   3.185   3.761  10.069  1.3611 -0.2921 -0.9447
72282SOL     OW26775   3.359   2.103   3.764 -0.0820  0.5432  0.5723
72282SOL    HW126776   3.384   2.175   3.822 -0.1547 -0.1921  1.5421
72282SOL    HW226777   3.421   2.033   3.785 -1.6549 -0.6244  1.6104
72283SOL     OW26778   5.055   1.836   8.118 -0.1102 -0.3834  0.0427
72283SOL    HW126779   4.973   1.829   8.167 -0.1239 -1.2470 -0.0978
72283SOL    HW226780   5.034   1.802   8.032  0.5983 -1.3573  0.2486
72284SOL     OW26781   7.674  12.019  12.298  0.3057  0.4182 -0.3452
72284SOL    HW126782   7.744  12.048  12.239  0.1060 -0.6958 -1.1738
72284SOL    HW226783   7.648  11.934  12.263 -0.4541  0.1469  0.8344
72285SOL     OW26784   0.858   7.304   9.560  0.0273  0.0852  0.1221
72285SOL    HW126785   0.892   7.378   9.611 -0.9222  1.0859 -0.6588
72285SOL    HW226786   0.806   7.344   9.491  1.8959 -1.1927 -2.1808
72286SOL     OW26787   7.188  12.254   3.059  0.0589 -0.0685 -0.0377
72286SOL    HW126788   7.192  12.221   2.970  0.0435 -0.7134  0.1914
72286SOL    HW226789   7.095  12.247   3.083  0.0684  0.0623  0.0369
72287SOL     OW26790   6.882   1.094   3.912  0.3140  0.5481  0.2511
72287SOL    HW126791   6.886   1.155   3.986 -2.8606 -0.3073  1.2848
72287SOL    HW226792   6.835   1.142   3.844 -1.5102 -0.3764  0.7931
72288SOL     OW26793   5.189   9.515  12.084  0.4578  0.4333  0.4714
72288SOL    HW126794   5.189   9.608  12.062  1.0319  0.4180  0.3921
72288SOL    HW226795   5.264   9.479  12.036 -0.1711 -0.2029 -0.0547
72289SOL     OW26796   0.711   9.352   7.549 -0.1181 -0.0845 -0.0526
72289SOL    HW126797   0.741   9.262   7.533 -2.5215 -1.1528  0.9922
72289SOL    HW226798   0.752   9.376   7.632  1.2147  0.1632 -0.7493
72290SOL     OW26799   0.684  10.863  10.844  0.2926  0.3788  0.1644
72290SOL    HW126800   0.595  10.834  10.825  1.0686 -1.9329 -0.2437
72290SOL    HW226801   0.696  10.844  10.937  0.9877 -1.2759 -0.2273
72291SOL     OW26802  12.745   0.866  12.965 -0.3904 -0.4041  0.1431
72291SOL    HW126803  12.727   0.854  12.872 -0.7018 -1.2684  0.2984
72291SOL    HW226804  12.659   0.883  13.004 -0.0306  2.0808  0.0138
72292SOL     OW26805   2.523   5.984  12.549 -0.1687  0.5625 -0.2383
72292SOL    HW126806   2.487   5.976  12.460 -0.8691  0.9053  0.0084
72292SOL    HW226807   2.470   6.052  12.590 -0.5619 -0.3309  0.7812
72293SOL     OW26808   2.255   7.322   6.088  0.5402  0.3220  0.4186
72293SOL    HW126809   2.269   7.398   6.144  1.5237 -0.0031  0.6372
72293SOL    HW226810   2.269   7.247   6.145 -3.2062 -0.1604  0.9548
72294SOL     OW26811   2.766  11.735   0.260  0.0588  0.4645 -0.1590
72294SOL    HW126812   2.706  11.736   0.334 -0.1253 -0.9048 -0.2525
72294SOL    HW226813   2.710  11.744   0.183  0.0556  0.0409 -0.2083
72295SOL     OW26814  11.949  11.963   9.508  0.4036  0.1178 -0.1009
72295SOL    HW126815  12.002  12.034   9.471 -0.3223 -0.5734 -2.6260
72295SOL    HW226816  11.861  12.001   9.516  0.8635  0.8340  2.8187
72296SOL     OW26817  12.721   5.292   3.206 -0.1896  0.3868  0.2373
72296SOL    HW126818  12.701   5.261   3.118  1.6896  0.8530 -0.4024
72296SOL    HW226819  12.682   5.380   3.210 -0.7755  0.1396  0.0993
72297SOL     OW26820  11.414  11.835   3.400  0.4091 -0.0610  0.4283
72297SOL    HW126821  11.339  11.870   3.447 -0.1365 -0.0450 -0.4287
72297SOL    HW226822  11.379  11.759   3.353  0.2562  1.5003 -2.1292
72298SOL     OW26823   6.535   3.964   9.755  0.3839  0.0269  0.3984
72298SOL    HW126824   6.487   3.888   9.721 -0.0180  0.4732 -0.0415
72298SOL    HW226825   6.521   3.961   9.849  0.7680 -0.7147  0.4467
72299SOL     OW26826  11.864   8.308  12.559  0.1489 -0.1355 -0.1127
72299SOL    HW126827  11.948   8.342  12.529  0.8128 -0.5382  1.2287
72299SOL    HW226828  11.887   8.244  12.626 -1.2576  0.1411  0.6591
72300SOL     OW26829  11.582   0.213   7.503  0.3447  0.4180  0.4244
72300SOL    HW126830  11.561   0.122   7.524  2.4503 -0.2377 -0.1045
72300SOL    HW226831  11.580   0.258   7.588 -0.7202 -0.0879  0.6874
72301SOL     OW26832   1.987  12.742   7.796 -0.6742  0.3808  0.4276
72301SOL    HW126833   1.894  12.746   7.775 -0.1537  1.3460 -2.0854
72301SOL    HW226834   2.011  12.832   7.817 -0.1883  0.2389  0.4969
72302SOL     OW26835   4.803   0.309  10.744 -0.0282 -0.0499 -0.7311
72302SOL    HW126836   4.812   0.364  10.666  0.4985 -1.9111 -2.0258
72302SOL    HW226837   4.784   0.222  10.711  2.9334 -1.5358  1.0383
72303SOL     OW26838  11.249   9.144   6.840  0.2582 -0.5995 -0.3814
72303SOL    HW126839  11.265   9.237   6.821  0.7891 -0.4201  0.7857
72303SOL    HW226840  11.299   9.097   6.774 -0.6931 -0.0732 -1.5097
72304SOL     OW26841   7.106  10.144  11.210  0.0686 -0.2793 -0.0380
72304SOL    HW126842   7.172  10.077  11.229  1.0938  1.1115  1.7326
72304SOL    HW226843   7.126  10.173  11.121  0.9986 -0.8293 -0.0294
72305SOL     OW26844   0.737   6.081   1.624 -0.1630  0.0054  0.2918
72305SOL    HW126845   0.652   6.105   1.661 -0.4136 -0.2759 -0.0899
72305SOL    HW226846   0.744   5.986   1.638  0.2764  0.0929  0.6979
72306SOL     OW26847   7.975  10.302  12.410  0.6395 -0.5447  0.4260
72306SOL    HW126848   8.011  10.317  12.497  1.0209  1.6345 -0.0592
72306SOL    HW226849   7.912  10.374  12.397  0.1460 -1.1739 -0.8719
72307SOL     OW26850  12.247   7.973   8.399 -0.1194 -0.4446 -0.5256
72307SOL    HW126851  12.313   7.972   8.469 -0.4315 -0.2538 -0.2219
72307SOL    HW226852  12.230   8.066   8.384  1.4552 -0.3897 -2.3221
72308SOL     OW26853   7.357  11.419   9.648 -0.2049 -0.5792  0.2485
72308SOL    HW126854   7.287  11.406   9.712  0.5264 -2.4762  0.7349
72308SOL    HW226855   7.369  11.333   9.608  2.0795 -0.4110  0.4439
72309SOL     OW26856  13.084  12.469   6.445  0.5119 -0.4462  0.1156
72309SOL    HW126857  13.113  12.443   6.532  1.6469  1.8491  0.4991
72309SOL    HW226858  13.163  12.463   6.391  0.5115  0.8890 -0.0555
72310SOL     OW26859   1.533   6.015  10.883  0.0998  0.1653  0.7859
72310SOL    HW126860   1.448   5.979  10.859 -0.1214  1.1157  0.0835
72310SOL    HW226861   1.515   6.106  10.908  0.8944  0.3699  0.6621
72311SOL     OW26862  13.159   3.482  11.865 -0.7333  0.0111 -0.0700
72311SOL    HW126863  13.143   3.510  11.774  1.4722 -0.7775 -0.7591
72311SOL    HW226864  13.254   3.484  11.874 -0.8756 -0.6736  2.0115
72312SOL     OW26865   0.909  11.413   0.977 -0.0101 -0.4473  0.2129
72312SOL    HW126866   1.000  11.420   0.949 -0.3611 -1.4640 -1.3262
72312SOL    HW226867   0.901  11.323   1.010 -0.4522 -0.3795  0.2899
72313SOL     OW26868   0.378   7.097   3.972 -0.3679  0.2921  0.5565
72313SOL    HW126869   0.420   7.178   3.944 -2.2467  1.2406  0.3749
72313SOL    HW226870   0.298   7.125   4.016  1.2336 -1.2176  4.9282
72314SOL     OW26871   1.148   6.242  10.362  0.6073 -0.0621  0.0086
72314SOL    HW126872   1.060   6.259  10.330  0.1611  0.4839  1.4304
72314SOL    HW226873   1.151   6.148  10.380 -0.1884  0.1310  1.2911
72315SOL     OW26874  12.268   3.000  12.638 -1.0663  0.1000 -0.4948
72315SOL    HW126875  12.200   2.933  12.639 -1.9037  0.9270 -0.2378
72315SOL    HW226876  12.220   3.082  12.649 -0.0084  0.6872 -0.1672
72316SOL     OW26877  10.693   8.103   9.804  0.2353 -0.0023  0.3118
72316SOL    HW126878  10.742   8.130   9.726  1.0556  2.5087  1.5754
72316SOL    HW226879  10.732   8.019   9.829 -0.1802 -0.9642 -2.0246
72317SOL     OW26880   5.799   6.743   4.132 -0.2779  0.2129  0.4579
72317SOL    HW126881   5.795   6.801   4.208 -0.0169  0.3925  0.3338
72317SOL    HW226882   5.752   6.791   4.064  0.7487  0.7026  0.0761
72318SOL     OW26883  11.811   9.132   3.168 -0.0771  0.3800  0.0380
72318SOL    HW126884  11.771   9.077   3.235  0.5083 -0.1198 -0.0072
72318SOL    HW226885  11.893   9.087   3.146 -1.1218 -0.5070 -2.3821
72319SOL     OW26886   3.778  11.122  11.351 -0.3224 -0.3417 -0.4308
72319SOL    HW126887   3.787  11.143  11.258  0.5633  1.9726  0.1049
72319SOL    HW226888   3.689  11.149  11.373 -0.3857 -0.4835 -0.5124
72320SOL     OW26889   0.670   3.759   9.849 -0.0574  0.0634 -0.2273
72320SOL    HW126890   0.756   3.719   9.837 -0.4328 -0.4979 -1.2038
72320SOL    HW226891   0.622   3.696   9.903  0.1895  0.4560  0.4600
72321SOL     OW26892   0.791  12.675  13.214 -0.0153  0.1883  0.4053
72321SOL    HW126893   0.779  12.767  13.191  1.0578 -0.1311 -1.6375
72321SOL    HW226894   0.716  12.631  13.173  0.6444 -0.0973 -0.5175
72322SOL     OW26895   0.930   4.834   9.501 -0.0261  0.0580 -0.1529
72322SOL    HW126896   0.873   4.764   9.469  0.2912 -0.9518  1.3609
72322SOL    HW226897   1.006   4.789   9.538  0.9153  1.2908 -0.5073
72323SOL     OW26898  12.364  10.423  12.128  0.0563 -0.1751 -0.5337
72323SOL    HW126899  12.457  10.399  12.127  0.4404  1.2191 -0.2348
72323SOL    HW226900  12.360  10.500  12.185 -1.0769  0.5981 -1.6123
72324SOL     OW26901   1.287   2.757   2.973 -0.5188 -0.0395 -0.3905
72324SOL    HW126902   1.245   2.726   3.053 -0.3692 -1.4152 -0.8193
72324SOL    HW226903   1.270   2.851   2.972 -1.5515 -0.1934  0.6420
72325SOL     OW26904   2.506   0.532  11.207 -0.1460 -0.4908 -0.3961
72325SOL    HW126905   2.457   0.452  11.188  0.2143 -0.0721 -3.4811
72325SOL    HW226906   2.442   0.602  11.202 -0.4246 -0.4714  2.1391
72326SOL     OW26907  10.445  12.409   9.430  0.2534 -0.9473  0.4600
72326SOL    HW126908  10.488  12.446   9.507 -0.3638  0.0479  0.3376
72326SOL    HW226909  10.369  12.465   9.415 -1.3892 -2.9276  0.9213
72327SOL     OW26910  12.702   2.760  13.247  0.1442 -0.1212  0.3981
72327SOL    HW126911  12.715   2.833  13.308 -0.8295  0.8307 -0.5038
72327SOL    HW226912  12.648   2.796  13.177  2.4825 -0.7463 -1.8540
72328SOL     OW26913   1.176   5.092   8.604 -0.2977  0.6082 -0.4263
72328SOL    HW126914   1.228   5.170   8.583  1.5404 -0.2239  0.7446
72328SOL    HW226915   1.096   5.126   8.644  0.0249  1.9023 -0.8277
72329SOL     OW26916  11.370   9.864  10.142 -0.1173  0.2288  0.3405
72329SOL    HW126917  11.426   9.857  10.065 -1.0115  0.8598 -0.3996
72329SOL    HW226918  11.416   9.816  10.211  1.0228  0.2329 -0.4018
72330SOL     OW26919  12.500   9.678   4.011 -0.5250  0.1093  0.3295
72330SOL    HW126920  12.579   9.667   3.958 -1.4907 -0.3995 -1.0888
72330SOL    HW226921  12.432   9.699   3.946 -1.5732  0.4005  1.4969
72331SOL     OW26922   2.940  10.744   7.479 -0.0824  0.0500  0.1303
72331SOL    HW126923   2.862  10.740   7.533 -0.3867 -2.4745 -0.4003
72331SOL    HW226924   2.990  10.818   7.515 -1.6675  0.3635  1.8500
72332SOL     OW26925   7.478   0.479   8.257  0.1344  0.3587 -0.1480
72332SOL    HW126926   7.385   0.500   8.260  0.0323 -0.0007 -0.7078
72332SOL    HW226927   7.490   0.415   8.327 -0.4525 -1.1348 -1.3586
72333SOL     OW26928   0.516   2.821  12.266  0.0365  0.1888  0.4040
72333SOL    HW126929   0.469   2.809  12.348  2.7453 -0.9280  1.9226
72333SOL    HW226930   0.545   2.912  12.267  1.4823 -0.2508  1.5691
72334SOL     OW26931   7.766  11.780  10.471  0.4848 -0.2473  0.1743
72334SOL    HW126932   7.810  11.728  10.539 -0.6815  0.6069  1.6422
72334SOL    HW226933   7.673  11.758  10.481  0.3321 -0.5289 -1.5562
72335SOL     OW26934   5.392   3.111   9.061  0.4934 -0.1561  0.0735
72335SOL    HW126935   5.424   3.190   9.105  1.0613 -1.5205  2.2602
72335SOL    HW226936   5.314   3.085   9.110  0.4106 -1.0578 -0.5029
72336SOL     OW26937  10.457  12.799   4.133  0.5179  0.0403  0.6373
72336SOL    HW126938  10.526  12.829   4.074  0.0434  1.4489  0.7483
72336SOL    HW226939  10.400  12.745   4.079  0.7659  0.3017  0.1153
72337SOL     OW26940  12.800   2.951   9.894 -0.3923  0.0789  0.1124
72337SOL    HW126941  12.758   2.866   9.909  1.8560 -1.2827 -0.6076
72337SOL    HW226942  12.814   2.986   9.981 -0.5771 -0.7400  0.4863
72338SOL     OW26943   9.784   2.920   7.845 -0.0878  0.0294 -0.5635
72338SOL    HW126944   9.717   2.945   7.782 -1.3862 -1.5860  0.1155
72338SOL    HW226945   9.817   2.836   7.813  1.1821  0.4934 -0.5345
72339SOL     OW26946   4.338   7.298   7.123 -0.2981 -0.6792 -0.2694
72339SOL    HW126947   4.357   7.277   7.031  0.4593  3.1588 -1.2061
72339SOL    HW226948   4.422   7.290   7.167 -0.2391 -0.6863 -0.3809
72340SOL     OW26949   8.737   1.210   9.994  0.1695 -0.0941 -0.4055
72340SOL    HW126950   8.703   1.187   9.907  2.8090  0.1028 -1.6036
72340SOL    HW226951   8.783   1.131  10.023  0.5473  0.3104  0.1137
72341SOL     OW26952   9.354   2.473  13.223  0.1232  0.0242 -0.3013
72341SOL    HW126953   9.273   2.426  13.248  1.2153 -1.0845  1.3845
72341SOL    HW226954   9.391   2.419  13.153  0.5333 -0.7629  0.4978
72342SOL     OW26955   5.160  12.699   4.274 -0.1691 -0.1773 -0.3993
72342SOL    HW126956   5.170  12.768   4.209  0.9354  0.3255  0.2742
72342SOL    HW226957   5.179  12.741   4.357 -1.2362 -0.8855  0.2311
72343SOL     OW26958   4.270  11.901   1.936  0.3414 -0.0279  0.3396
72343SOL    HW126959   4.295  11.993   1.935  0.6266 -0.0989 -0.5656
72343SOL    HW226960   4.351  11.855   1.912  0.0026 -0.4463 -0.0240
72344SOL     OW26961   2.149   2.109  10.958 -0.0815 -0.2374 -0.0496
72344SOL    HW126962   2.128   2.017  10.943 -1.3095 -0.2956  1.7662
72344SOL    HW226963   2.065   2.151  10.976  0.5307  1.1197 -0.2007
72345SOL     OW26964   1.437   3.318   6.504  0.1195  0.2014 -0.1589
72345SOL    HW126965   1.502   3.379   6.539 -0.5620  1.2429 -0.6609
72345SOL    HW226966   1.353   3.351   6.537 -0.2397 -0.5999 -0.2622
72346SOL     OW26967   8.353   9.749   3.092 -0.3143  0.1692 -0.2565
72346SOL    HW126968   8.305   9.672   3.059 -0.3493  0.6030 -1.2218
72346SOL    HW226969   8.308   9.824   3.053 -1.7614  0.8725  2.4694
72347SOL     OW26970  10.381   2.498   1.546  0.3509 -0.8453  0.0175
72347SOL    HW126971  10.345   2.417   1.582 -2.7099  0.8311  1.1394
72347SOL    HW226972  10.372   2.489   1.452 -1.3414 -1.2881  0.1933
72348SOL     OW26973   4.982   8.729   2.240 -0.0264 -0.2213  0.2102
72348SOL    HW126974   5.044   8.767   2.179 -2.6726  0.3960 -2.3333
72348SOL    HW226975   5.036   8.681   2.303  2.9143 -0.7872 -2.4963
72349SOL     OW26976  12.051   2.166  12.350  0.2166 -0.6145  0.2167
72349SOL    HW126977  11.970   2.203  12.384  0.2364 -1.4412  1.2219
72349SOL    HW226978  12.061   2.083  12.396  1.2237 -0.9063 -0.4781
72350SOL     OW26979  10.357   7.369   0.548  0.0987  0.2452 -0.2357
72350SOL    HW126980  10.269   7.401   0.527  1.2552  1.2270 -4.5600
72350SOL    HW226981  10.398   7.443   0.594 -0.7981  0.3754  0.3974
72351SOL     OW26982   8.203  12.280   9.644  0.5512 -0.1307  0.5016
72351SOL    HW126983   8.218  12.193   9.609 -3.3003 -1.2952  1.2558
72351SOL    HW226984   8.262  12.286   9.720  0.7091 -2.1707  0.5941
72352SOL     OW26985  12.333   2.596   8.667 -0.0105 -0.3076 -0.3497
72352SOL    HW126986  12.306   2.517   8.714  1.3091  0.1044  1.2304
72352SOL    HW226987  12.335   2.664   8.735 -2.0635  1.3914 -1.8276
72353SOL     OW26988  12.881   1.918   1.147  0.0813 -0.0917  0.1988
72353SOL    HW126989  12.968   1.929   1.109  0.1554  0.4231  0.5104
72353SOL    HW226990  12.842   1.847   1.097  0.1490  0.6108 -0.8664
72354SOL     OW26991   0.918   8.731   3.110 -0.7183 -0.3452 -0.1394
72354SOL    HW126992   0.847   8.782   3.071 -0.3355 -0.3183 -0.8195
72354SOL    HW226993   0.873   8.668   3.166 -1.2834 -0.3153 -0.5409
72355SOL     OW26994   1.820  13.192   7.958 -0.2429 -0.2332  0.7841
72355SOL    HW126995   1.884  13.256   7.987 -0.9101  1.2556 -0.8430
72355SOL    HW226996   1.868  13.109   7.955  1.1940  0.5602  1.0015
72356SOL     OW26997   1.954   3.113   4.159 -0.1065 -0.8866 -0.5228
72356SOL    HW126998   1.945   3.201   4.124  3.0352 -0.5752 -0.8356
72356SOL    HW226999   1.931   3.121   4.251  0.7935  0.4558 -0.3815
72357SOL     OW27000   8.809   5.103   0.570  0.4827  0.3721  0.1817
72357SOL    HW127001   8.890   5.151   0.587  0.9796 -0.1695 -0.5599
72357SOL    HW227002   8.811   5.086   0.475  0.1557 -0.7923  0.3633
72358SOL     OW27003   0.197   7.670   7.769  0.7464 -0.9445 -0.5628
72358SOL    HW127004   0.240   7.669   7.855  1.0706 -0.5287 -0.7181
72358SOL    HW227005   0.171   7.579   7.755  1.0541 -1.0919 -0.2015
72359SOL     OW27006   2.065   6.685  12.157 -0.0380  0.3370 -0.2218
72359SOL    HW127007   2.043   6.688  12.251  0.3358  1.2124 -0.1580
72359SOL    HW227008   2.150   6.642  12.154  0.4877  1.3403 -0.0512
72360SOL     OW27009   1.967   9.945   3.129 -0.2671 -0.0435 -0.0108
72360SOL    HW127010   1.971   9.972   3.221  0.0098 -0.9016  0.2315
72360SOL    HW227011   2.046   9.984   3.089  0.6148 -1.2103  0.5425
72361SOL     OW27012   7.168  10.928   7.343 -0.4459 -0.3108  0.3469
72361SOL    HW127013   7.090  10.941   7.397  0.3518 -0.2708  1.5303
72361SOL    HW227014   7.135  10.899   7.258 -1.7492 -0.0742  0.7644
72362SOL     OW27015   9.269  11.303  12.031 -0.0692 -0.1424 -0.1834
72362SOL    HW127016   9.348  11.340  12.071  0.0745  0.4585 -0.9815
72362SOL    HW227017   9.286  11.209  12.025 -0.3000 -0.3242  1.5889
72363SOL     OW27018  12.772  12.500   0.643  0.2206 -0.1011 -0.2660
72363SOL    HW127019  12.690  12.502   0.593  1.2090  1.1352 -1.9873
72363SOL    HW227020  12.746  12.477   0.732 -1.2864 -6.1440 -1.8637
72364SOL     OW27021   1.593  13.301   9.977 -0.2325  0.2513 -0.1281
72364SOL    HW127022   1.573  13.264  10.063  0.4377 -0.0399 -0.0899
72364SOL    HW227023   1.528  13.370   9.965 -1.4064 -0.8271 -0.1311
72365SOL     OW27024   9.734   8.402   7.793 -0.8588  0.3861  0.1724
72365SOL    HW127025   9.667   8.425   7.858  0.7993  0.4403  1.9659
72365SOL    HW227026   9.750   8.483   7.745 -1.4300  0.6132  0.3539
72366SOL     OW27027   2.974   4.586   7.608 -0.0744 -0.1480  0.3447
72366SOL    HW127028   2.896   4.635   7.637  0.1016  0.2419  0.1703
72366SOL    HW227029   2.944   4.496   7.601 -1.1577  0.2950 -1.8891
72367SOL     OW27030   0.853  10.232   6.299 -0.2117 -0.0320  0.0744
72367SOL    HW127031   0.766  10.263   6.324 -0.7983 -0.7214 -0.9907
72367SOL    HW227032   0.907  10.311   6.296 -0.7684  0.3929  0.8448
72368SOL     OW27033  11.933   8.982   6.030 -0.1267 -0.1969  0.2397
72368SOL    HW127034  11.992   9.054   6.009 -1.3522  0.9108  0.4882
72368SOL    HW227035  11.963   8.950   6.115 -1.0252  1.6312  1.2998
72369SOL     OW27036  11.267   6.219   3.848 -0.3448  0.9024 -0.5545
72369SOL    HW127037  11.358   6.242   3.864 -0.4766  1.4224 -0.5150
72369SOL    HW227038  11.225   6.302   3.824 -1.2181  1.0710  1.3567
72370SOL     OW27039  11.310   2.560  11.740 -0.2184 -0.2396  0.0880
72370SOL    HW127040  11.281   2.498  11.673 -1.0118  0.7743 -0.5371
72370SOL    HW227041  11.270   2.528  11.821 -0.5486 -0.5927 -0.2098
72371SOL     OW27042   0.480  12.924   4.322 -0.1206  0.0717  0.1337
72371SOL    HW127043   0.412  12.864   4.291 -0.6299 -0.1279  1.5796
72371SOL    HW227044   0.457  13.008   4.283  0.0495 -0.4431 -1.1279
72372SOL     OW27045  10.730  13.178   2.344 -0.0029 -0.1043  0.1373
72372SOL    HW127046  10.766  13.122   2.412 -0.2956 -0.3994  0.0534
72372SOL    HW227047  10.780  13.259   2.349 -0.7143  0.2781  1.4014
72373SOL     OW27048   3.365   0.278   8.927  0.2095  0.2169  0.0053
72373SOL    HW127049   3.361   0.264   8.832  0.1215  2.0347 -0.2985
72373SOL    HW227050   3.292   0.338   8.945  0.1798 -0.1633  1.2484
72374SOL     OW27051  12.481   8.649   6.609 -0.1735  0.4467  0.2688
72374SOL    HW127052  12.411   8.654   6.675  2.5727 -0.5002  3.5478
72374SOL    HW227053  12.541   8.719   6.633  1.2564 -0.3417 -0.8616
72375SOL     OW27054   2.518   5.545   0.736  0.0684  0.4680  0.1847
72375SOL    HW127055   2.512   5.461   0.781 -1.1281  0.3762 -0.1160
72375SOL    HW227056   2.454   5.601   0.780  0.4527  1.0575  0.0158
72376SOL     OW27057   9.413   1.034   0.661  0.0307  0.1147 -0.6337
72376SOL    HW127058   9.473   1.109   0.650  0.2517 -0.1618 -1.4047
72376SOL    HW227059   9.375   1.046   0.748  3.6386 -1.4429  1.3758
72377SOL     OW27060   3.922   9.217   9.099  0.2597 -0.1372 -0.2667
72377SOL    HW127061   3.989   9.227   9.032  1.7971  1.6793  1.4138
72377SOL    HW227062   3.882   9.132   9.081  1.0978 -0.0373 -2.9866
72378SOL     OW27063  11.806   7.110  11.563  0.4542 -0.4748 -0.1015
72378SOL    HW127064  11.860   7.158  11.626 -0.7455  0.4209  0.2991
72378SOL    HW227065  11.856   7.112  11.482  1.4091 -0.4393  0.4701
72379SOL     OW27066   5.522  10.741   5.365  0.0286  0.4633 -0.2552
72379SOL    HW127067   5.591  10.804   5.386  0.6053 -0.3138  0.1938
72379SOL    HW227068   5.451  10.763   5.425  0.9138 -0.4587  1.1830
72380SOL     OW27069   8.667   9.781   9.604  0.3413  0.2508 -0.3777
72380SOL    HW127070   8.607   9.721   9.647  1.1523 -0.4990 -0.2485
72380SOL    HW227071   8.750   9.733   9.601  0.3252  0.2491 -2.7917
72381SOL     OW27072   5.111   4.392   1.389  0.2239 -0.0060  0.3012
72381SOL    HW127073   5.166   4.404   1.311  0.0766  0.5987  0.2854
72381SOL    HW227074   5.082   4.481   1.411  1.0269 -0.0383  1.6061
72382SOL     OW27075   0.653  11.117   6.305  0.3632  0.0384 -0.1103
72382SOL    HW127076   0.626  11.028   6.328 -1.5760  0.6189  0.0489
72382SOL    HW227077   0.712  11.143   6.375 -0.7425 -0.3783  1.0298
72383SOL     OW27078  12.601  13.110   9.950 -0.2678  0.0686 -0.1094
72383SOL    HW127079  12.557  13.061  10.019  0.1526 -0.0432  0.0785
72383SOL    HW227080  12.530  13.137   9.891 -0.4883 -0.8998 -0.3065
72384SOL     OW27081   9.303   4.575   4.371  0.4298  0.8995 -0.5142
72384SOL    HW127082   9.298   4.534   4.285  1.0311 -0.5902  0.1152
72384SOL    HW227083   9.312   4.502   4.432 -1.8217  1.7635  1.0241
72385SOL     OW27084   3.155   5.174  11.740 -0.0832  0.1359 -0.1455
72385SOL    HW127085   3.121   5.194  11.827  0.8878  0.9287  0.0667
72385SOL    HW227086   3.221   5.107  11.755 -0.5535 -0.3918 -0.3917
72386SOL     OW27087   4.294   8.645   3.567 -0.1339 -0.1505  0.5259
72386SOL    HW127088   4.203   8.667   3.585  0.1942  0.1722  1.8782
72386SOL    HW227089   4.301   8.552   3.590 -0.6193 -0.7847 -1.6617
72387SOL     OW27090  12.329   8.884  13.222 -0.4368  0.1309  0.0303
72387SOL    HW127091  12.270   8.921  13.157 -0.6696 -0.7276 -0.2482
72387SOL    HW227092  12.331   8.791  13.203 -1.0017 -0.2399  1.6386
72388SOL     OW27093   2.593   8.903   2.469 -0.1719  0.1377 -0.0964
72388SOL    HW127094   2.683   8.879   2.446  0.4050  1.8241  0.1742
72388SOL    HW227095   2.587   8.995   2.443 -2.0750 -0.1393 -0.7580
72389SOL     OW27096   7.576   7.489  10.020 -0.3409  0.4532 -0.3440
72389SOL    HW127097   7.485   7.461  10.010 -0.8271  1.8867 -0.2207
72389SOL    HW227098   7.569   7.579  10.052  1.1280  0.6587 -0.5592
72390SOL     OW27099  10.922   4.645   3.404  0.5935  0.4660 -0.3332
72390SOL    HW127100  11.000   4.692   3.376  0.8063  0.1005 -0.3668
72390SOL    HW227101  10.934   4.633   3.498  0.3232  0.8764 -0.2450
72391SOL     OW27102   7.016   5.300   1.845 -0.0430 -0.5226  0.4479
72391SOL    HW127103   7.049   5.388   1.865 -0.4202 -0.2766 -0.0170
72391SOL    HW227104   6.976   5.308   1.759  1.1673 -1.4703 -0.2430
72392SOL     OW27105   1.955   6.853   9.597 -0.0223  0.6393  0.7342
72392SOL    HW127106   1.897   6.856   9.673 -1.5172  1.6171 -0.3835
72392SOL    HW227107   2.003   6.771   9.606  0.4020  1.0851  3.1083
72393SOL     OW27108  13.038   0.713   7.965 -0.4265 -0.1569 -0.0094
72393SOL    HW127109  13.039   0.695   7.871 -1.0791  2.6469 -0.6513
72393SOL    HW227110  13.124   0.683   7.996  0.3062  0.0089 -1.7546
72394SOL     OW27111   0.841   7.056  12.088  0.1791  0.0351 -0.2250
72394SOL    HW127112   0.776   7.047  12.158 -0.9613 -1.6144 -1.4196
72394SOL    HW227113   0.798   7.110  12.022  1.4523  2.0493  0.5071
72395SOL     OW27114  12.312   1.433  12.898 -0.2594 -0.2691 -0.3731
72395SOL    HW127115  12.377   1.490  12.857  0.4571  0.3050  1.4847
72395SOL    HW227116  12.228   1.473  12.875  0.1362  0.3013 -0.8583
72396SOL     OW27117   8.467   9.742   1.027 -0.6998  0.4697  0.1174
72396SOL    HW127118   8.534   9.691   1.073  0.3759  0.1561 -1.7179
72396SOL    HW227119   8.408   9.676   0.991 -0.4286  0.6092 -0.5909
72397SOL     OW27120   5.646   2.817   8.153 -0.3537  0.3742  0.0321
72397SOL    HW127121   5.736   2.850   8.159  0.3691 -1.3330 -0.7148
72397SOL    HW227122   5.625   2.788   8.242 -0.4298  1.3787  0.3530
72398SOL     OW27123  12.225   2.247   1.915 -0.5717 -0.2244  0.2912
72398SOL    HW127124  12.257   2.239   1.826 -1.4504 -1.1221  0.0378
72398SOL    HW227125  12.185   2.334   1.919 -0.4373 -0.1443 -0.1528
72399SOL     OW27126   1.529   6.908   1.272 -0.7713  0.6657  0.1326
72399SOL    HW127127   1.537   6.863   1.357 -2.1733  1.0974  0.5226
72399SOL    HW227128   1.451   6.870   1.232 -0.5790  1.0363 -0.6112
72400SOL     OW27129   5.422   9.592   6.790 -0.4474  0.7367  0.6413
72400SOL    HW127130   5.394   9.637   6.710 -0.2552 -0.6623 -0.2421
72400SOL    HW227131   5.468   9.514   6.759  2.6873  1.8649  2.0493
72401SOL     OW27132   2.957   3.004   8.221  0.3496 -0.0961 -0.3460
72401SOL    HW127133   2.936   2.949   8.296  0.1093  0.2310 -0.1737
72401SOL    HW227134   2.884   3.066   8.215  1.0448  0.7798  0.0074
72402SOL     OW27135   5.559   5.142   8.694 -0.5165 -0.2881 -0.5741
72402SOL    HW127136   5.507   5.105   8.622 -3.2974  0.0686  1.1090
72402SOL    HW227137   5.590   5.066   8.743  0.9581 -0.5149 -1.7791
72403SOL     OW27138   6.963   5.401  11.071 -0.2085 -0.6164 -0.0074
72403SOL    HW127139   6.938   5.491  11.090  2.8164  0.3795 -0.1623
72403SOL    HW227140   6.980   5.400  10.977  1.4065 -0.8378  0.2530
72404SOL     OW27141   6.526  12.337  10.392 -0.4592  0.0094  0.0204
72404SOL    HW127142   6.561  12.400  10.330 -1.5060  0.3018 -0.2995
72404SOL    HW227143   6.433  12.359  10.398 -0.1179  0.9937  2.8904
72405SOL     OW27144  12.674  10.438   4.606 -0.1221  0.1189  0.2849
72405SOL    HW127145  12.649  10.425   4.514 -0.7195 -1.0778  0.6070
72405SOL    HW227146  12.648  10.358   4.650  1.2523  0.1845  1.2910
72406SOL     OW27147   1.410  12.267   8.879  0.4398  0.1406  0.6288
72406SOL    HW127148   1.453  12.181   8.873 -0.8083 -0.5025  0.3809
72406SOL    HW227149   1.367  12.266   8.964 -1.1175 -0.2732 -0.1170
72407SOL     OW27150   4.125   3.076   5.008 -0.0957  0.3466 -0.0631
72407SOL    HW127151   4.074   3.129   5.068 -0.0911 -0.8242  1.0269
72407SOL    HW227152   4.189   3.032   5.064  0.5448 -0.0370 -1.0679
72408SOL     OW27153   3.728   5.703   3.909 -0.9952  0.7912  0.0031
72408SOL    HW127154   3.795   5.771   3.911  1.8757 -1.8422  0.1275
72408SOL    HW227155   3.727   5.673   3.818 -1.5082  0.2938  0.1670
72409SOL     OW27156   4.605   4.420  13.177 -0.2037 -0.2512  0.2742
72409SOL    HW127157   4.686   4.449  13.219  0.0212 -0.4523 -0.0181
72409SOL    HW227158   4.553   4.500  13.169 -0.5507 -0.3214  1.5776
72410SOL     OW27159  11.982  12.544  11.375  0.5600 -0.1358 -0.3728
72410SOL    HW127160  11.889  12.537  11.398  0.9139 -1.0554  0.8999
72410SOL    HW227161  11.995  12.478  11.307  0.1265  0.5392 -1.1225
72411SOL     OW27162   0.555  12.918  11.938  0.5148 -0.5593 -0.3111
72411SOL    HW127163   0.553  12.940  12.031  0.3609  1.2880 -0.7047
72411SOL    HW227164   0.647  12.896  11.920  1.1914  1.8535 -0.2437
72412SOL     OW27165  11.571  10.877   4.723 -0.2443 -0.3427 -0.0844
72412SOL    HW127166  11.576  10.973   4.719  1.1405 -0.4014 -0.2240
72412SOL    HW227167  11.567  10.850   4.631 -1.9286 -0.3938 -0.0285
72413SOL     OW27168   2.258  11.906   9.077 -0.1667 -0.0703 -0.1930
72413SOL    HW127169   2.247  11.899   9.171  0.4168 -0.2900 -0.1382
72413SOL    HW227170   2.180  11.952   9.047 -1.6490 -2.2572  0.0741
72414SOL     OW27171  12.587   3.964  11.660 -0.2623  0.8335 -0.0366
72414SOL    HW127172  12.680   3.983  11.649 -0.2422  0.6438 -0.1947
72414SOL    HW227173  12.543   4.031  11.608 -0.1637 -0.1337 -1.4063
72415SOL     OW27174   5.638  10.491  12.934  0.0193  0.0094  0.0592
72415SOL    HW127175   5.642  10.560  13.001  1.3764  0.4952 -0.4822
72415SOL    HW227176   5.624  10.411  12.983  2.4360  0.1507  1.1246
72416SOL     OW27177  12.755  11.935   4.135 -0.0723 -0.7138 -0.1537
72416SOL    HW127178  12.700  12.013   4.146 -0.3620 -0.8516 -0.5792
72416SOL    HW227179  12.762  11.924   4.040  2.7703  0.7502 -0.2146
72417SOL     OW27180   6.441   9.348   4.752 -0.1897 -0.5742 -0.0786
72417SOL    HW127181   6.367   9.362   4.811 -0.2771 -0.3222 -0.2455
72417SOL    HW227182   6.407   9.371   4.665  0.7349  1.8881  0.1247
72418SOL     OW27183   5.869   9.381   5.653  0.4084  0.0152 -0.1017
72418SOL    HW127184   5.856   9.296   5.609 -0.4942  0.0917 -0.0106
72418SOL    HW227185   5.954   9.412   5.622 -0.4377  0.3277 -2.2689
72419SOL     OW27186   1.711   0.933   3.091  0.0911 -0.1681 -0.2143
72419SOL    HW127187   1.728   0.986   3.013  1.1435 -0.4619 -0.2016
72419SOL    HW227188   1.786   0.951   3.148  0.4498 -1.6394 -0.1965
72420SOL     OW27189   8.898  11.197   7.260 -0.2973  0.7010 -0.5134
72420SOL    HW127190   8.927  11.136   7.328 -0.5749 -0.1270 -1.1375
72420SOL    HW227191   8.853  11.266   7.309  1.6039  1.3871  0.3707
72421SOL     OW27192   5.437  11.178   6.120  0.0844  0.3738  0.6504
72421SOL    HW127193   5.495  11.109   6.151  0.1597 -0.0050 -0.2849
72421SOL    HW227194   5.349  11.145   6.138  0.1400  0.4597  1.0749
72422SOL     OW27195  13.252   8.658   9.350 -0.4514  0.3053  0.2858
72422SOL    HW127196  13.328   8.624   9.397  1.1774  1.8422 -1.0990
72422SOL    HW227197  13.289   8.710   9.278 -2.8226  0.1037 -1.1901
72423SOL     OW27198   5.937   3.795   1.050 -0.2210 -0.4699 -0.1015
72423SOL    HW127199   6.008   3.837   1.098  0.5241 -1.1671 -0.5580
72423SOL    HW227200   5.964   3.703   1.045 -1.5869 -0.9183  0.4853
72424SOL     OW27201  13.104  12.395  10.765  0.2602 -0.2713 -0.5513
72424SOL    HW127202  13.111  12.413  10.859  2.8904 -0.4538 -0.6450
72424SOL    HW227203  13.073  12.305  10.760 -0.2599 -0.1329  0.1311
72425SOL     OW27204   2.545  11.964   3.441 -0.3782 -0.2274  0.6836
72425SOL    HW127205   2.491  12.041   3.456  1.1579  0.7590  1.4086
72425SOL    HW227206   2.511  11.898   3.502 -0.6165  0.4464  1.2898
72426SOL     OW27207   0.294   0.343  10.987 -0.6405  0.0331  0.4024
72426SOL    HW127208   0.347   0.275  10.946 -1.1978  0.7297 -1.6292
72426SOL    HW227209   0.205   0.307  10.989 -0.5020 -0.2540  1.6613
72427SOL     OW27210  11.597   5.192   6.308 -0.2347  0.1714 -0.0577
72427SOL    HW127211  11.687   5.161   6.292 -0.2011  0.2505 -0.0210
72427SOL    HW227212  11.576   5.157   6.395 -0.1134  0.4399  0.0815
72428SOL     OW27213   0.129  13.303   3.948 -0.1948 -0.2329  0.5900
72428SOL    HW127214   0.188  13.378   3.953  2.2203 -1.9823  0.4964
72428SOL    HW227215   0.138  13.272   3.857  0.7484 -1.9530  1.2076
72429SOL     OW27216   0.977   5.204  12.238 -0.6104 -0.0251 -0.4684
72429SOL    HW127217   0.966   5.290  12.197 -0.0126  0.6369  0.6850
72429SOL    HW227218   0.891   5.163  12.231 -0.8208  0.5380 -1.3229
72430SOL     OW27219  11.225   9.966  10.620 -0.2714 -0.4305 -0.1075
72430SOL    HW127220  11.263   9.879  10.606  0.4278 -0.2705  0.7603
72430SOL    HW227221  11.292  10.015  10.667 -1.7358 -0.2959  1.9494
72431SOL     OW27222   3.156   2.570  12.143  0.1739  0.1847  0.1597
72431SOL    HW127223   3.132   2.593  12.053  1.3644  1.1444  0.0550
72431SOL    HW227224   3.102   2.627  12.198 -0.4569 -0.3067  0.0648
72432SOL     OW27225   1.515   8.289   2.738  0.2686  0.2388  0.1224
72432SOL    HW127226   1.475   8.372   2.711 -0.3740 -0.2288 -0.3788
72432SOL    HW227227   1.604   8.293   2.702  0.3756  0.8694  0.4342
72433SOL     OW27228   7.152   6.974  12.342 -0.0387 -0.1124  0.5934
72433SOL    HW127229   7.162   7.061  12.303  1.7205  0.1286  1.4823
72433SOL    HW227230   7.072   6.980  12.395 -0.7370  0.4936 -0.4923
72434SOL     OW27231   9.400  12.910   7.520  0.2571 -0.2591  0.4632
72434SOL    HW127232   9.364  12.999   7.520  2.6260  0.7894  1.6746
72434SOL    HW227233   9.440  12.901   7.433  0.6221  0.1541  0.5833
72435SOL     OW27234   3.777   9.100   2.011 -0.7746  0.2208  0.0637
72435SOL    HW127235   3.807   9.190   2.023  1.9110 -0.6836  0.9019
72435SOL    HW227236   3.683   9.103   2.030 -0.3734  2.4778  2.2001
72436SOL     OW27237  10.191  10.967   9.381 -0.4438 -0.2761  0.5527
72436SOL    HW127238  10.208  10.970   9.475  0.8386  0.5994  0.3083
72436SOL    HW227239  10.275  10.942   9.342 -0.6481  0.5529 -0.4487
72437SOL     OW27240   2.379   2.524   2.605  0.0047 -0.0847  0.1166
72437SOL    HW127241   2.303   2.564   2.648  1.3647  1.6393  1.0306
72437SOL    HW227242   2.389   2.573   2.523  0.3248 -0.0768  0.1596
72438SOL     OW27243  10.535   3.038   2.921  0.3774  0.2208 -0.2676
72438SOL    HW127244  10.549   3.019   3.014  3.0785  1.6135 -0.3049
72438SOL    HW227245  10.608   2.995   2.877 -1.0244 -0.6474 -1.8132
72439SOL     OW27246  11.809  11.458  11.855  0.1819  0.5106  0.4557
72439SOL    HW127247  11.797  11.551  11.876 -0.8460  0.6709 -0.7062
72439SOL    HW227248  11.810  11.415  11.940  1.9305  1.6918  1.0950
72440SOL     OW27249   2.716  12.475   9.776  0.4240  0.2424 -0.2461
72440SOL    HW127250   2.804  12.494   9.744  0.4072  1.0509  0.1518
72440SOL    HW227251   2.728  12.412   9.847  0.8029  1.2893  0.6345
72441SOL     OW27252   3.367  11.947   0.463 -0.2998  0.1938 -0.3695
72441SOL    HW127253   3.381  11.863   0.418  1.3964  0.0863  0.2954
72441SOL    HW227254   3.293  11.987   0.417 -2.1234 -2.2826  0.1970
72442SOL     OW27255   5.231   6.183   2.273  0.2443 -0.0337 -0.5473
72442SOL    HW127256   5.172   6.110   2.256  0.0307  0.0179 -0.0437
72442SOL    HW227257   5.174   6.260   2.273 -0.1905 -0.2519  2.7142
72443SOL     OW27258   6.672   8.525  12.296  0.4523  0.0489  0.0139
72443SOL    HW127259   6.672   8.527  12.391  1.2772  0.7220  0.0034
72443SOL    HW227260   6.675   8.431  12.274 -2.9049 -0.3227  0.6051
72444SOL     OW27261   0.905   2.259  10.380  0.4340 -0.6014  0.0133
72444SOL    HW127262   0.859   2.309  10.448  0.7362  0.4701 -0.5450
72444SOL    HW227263   0.861   2.174  10.379 -0.7028 -0.0383  0.3672
72445SOL     OW27264   0.650  10.933   2.933  0.0518  0.0638  0.3189
72445SOL    HW127265   0.586  10.998   2.960 -1.8530 -0.9514 -1.4471
72445SOL    HW227266   0.687  10.967   2.852  1.0069  0.1261  0.7590
72446SOL     OW27267   6.170   6.139   3.534 -0.0369 -0.2586 -0.1121
72446SOL    HW127268   6.125   6.150   3.450 -2.5766 -0.5470  1.0917
72446SOL    HW227269   6.173   6.228   3.571  0.8652 -0.1680 -0.3772
72447SOL     OW27270   2.755  12.941   9.014  0.1576  0.3601 -0.6211
72447SOL    HW127271   2.825  12.981   9.065 -1.1687  1.5670  0.3166
72447SOL    HW227272   2.739  12.857   9.057 -1.0709  1.4381  1.1439
72448SOL     OW27273   2.196   3.629  11.116 -0.1104 -0.1902 -0.1897
72448SOL    HW127274   2.285   3.597  11.131 -0.4459 -2.6364 -2.5662
72448SOL    HW227275   2.204   3.688  11.042 -0.3182  0.7270  0.4999
72449SOL     OW27276  13.094   8.819   4.027 -0.2635 -0.3823  0.4488
72449SOL    HW127277  13.174   8.871   4.032  0.0764 -0.9542  1.0649
72449SOL    HW227278  13.055   8.844   3.944 -0.5065  1.4469  1.0540
72450SOL     OW27279   5.038   9.162   7.796 -0.2208 -0.6952  0.1802
72450SOL    HW127280   5.101   9.091   7.797  0.1522 -0.3773 -0.2365
72450SOL    HW227281   4.954   9.121   7.816 -0.0861 -1.3275 -0.5285
72451SOL     OW27282   1.474   4.843   0.454  0.0277 -0.0001 -0.0078
72451SOL    HW127283   1.519   4.760   0.471 -0.6075  0.0299  2.1565
72451SOL    HW227284   1.397   4.840   0.512 -1.1360  1.2222 -1.4174
72452SOL     OW27285  13.080   5.644   1.405 -0.2134  0.0138  0.0212
72452SOL    HW127286  13.124   5.560   1.421  0.7693  0.8650  2.2771
72452SOL    HW227287  13.139   5.691   1.346  0.9863  0.3396  1.3885
72453SOL     OW27288   5.777   0.396   4.444 -0.3447  0.2820  0.0619
72453SOL    HW127289   5.788   0.354   4.530 -0.2643  0.6544  0.2383
72453SOL    HW227290   5.831   0.344   4.385 -0.6323 -0.1530  0.1797
72454SOL     OW27291   2.404  12.635  11.141 -0.1760 -0.5804 -0.2043
72454SOL    HW127292   2.352  12.583  11.080 -1.3137 -1.4808  1.4343
72454SOL    HW227293   2.356  12.628  11.224  1.1950  0.7444  0.7483
72455SOL     OW27294   4.346   4.332   8.201  0.3806 -0.8327  0.2751
72455SOL    HW127295   4.276   4.308   8.140  0.3418 -0.9298  0.3575
72455SOL    HW227296   4.371   4.249   8.242 -0.8179 -0.5332  1.6966
72456SOL     OW27297   2.717  10.433   9.432 -0.1572 -0.3736 -0.2649
72456SOL    HW127298   2.665  10.514   9.432  0.7690  0.2796 -2.3704
72456SOL    HW227299   2.665  10.372   9.380 -0.7741 -1.1342  1.1860
72457SOL     OW27300   0.417   2.103  11.659 -0.4731  0.5119  0.2858
72457SOL    HW127301   0.339   2.059  11.624 -0.4997  1.4670 -0.8919
72457SOL    HW227302   0.382   2.165  11.724 -0.3752 -1.7456  2.6760
72458SOL     OW27303   0.227  12.711   5.002 -0.3725 -0.6791  0.6309
72458SOL    HW127304   0.319  12.715   5.028  0.0103  0.7959 -0.7801
72458SOL    HW227305   0.183  12.773   5.059 -0.0289  0.4306 -0.2629
72459SOL     OW27306   1.921  11.027   5.686 -0.0559  0.2149 -0.1938
72459SOL    HW127307   1.973  10.948   5.668 -2.3047 -1.6551  1.0136
72459SOL    HW227308   1.913  11.029   5.782 -1.9942  0.5185 -0.3175
72460SOL     OW27309  11.326   5.355   5.095  0.7807  0.4445  0.5096
72460SOL    HW127310  11.300   5.330   5.184 -1.2564  0.3937 -0.0506
72460SOL    HW227311  11.414   5.318   5.085  0.1809 -1.4912  1.7316
72461SOL     OW27312   0.451   9.981   0.802 -0.0187  0.6957  0.3493
72461SOL    HW127313   0.502  10.061   0.800  1.5375 -0.2446 -1.4859
72461SOL    HW227314   0.435   9.960   0.709 -3.0899  0.4797  0.8027
72462SOL     OW27315   1.507   0.518   3.493 -0.0939 -0.2042 -0.3322
72462SOL    HW127316   1.517   0.577   3.567  3.1369 -0.4034 -0.4932
72462SOL    HW227317   1.443   0.453   3.524 -0.2814  0.7738  1.5221
72463SOL     OW27318   1.468   4.170   0.259 -0.2709  0.3195  0.3066
72463SOL    HW127319   1.467   4.248   0.315  2.5162  0.8441 -0.2577
72463SOL    HW227320   1.407   4.191   0.189 -0.7091  1.3417  0.9659
72464SOL     OW27321  11.584   1.184   5.133  0.0798 -0.6902 -0.3078
72464SOL    HW127322  11.539   1.253   5.084 -0.0158 -0.9989 -0.6554
72464SOL    HW227323  11.661   1.162   5.080 -0.3400 -1.4376 -0.6278
72465SOL     OW27324  10.815   1.904  11.855 -0.2322  0.2717  0.2431
72465SOL    HW127325  10.821   1.995  11.825  0.9379 -0.2197 -1.1003
72465SOL    HW227326  10.737   1.870  11.813  1.2303 -0.3242 -2.1686
72466SOL     OW27327   8.518  13.062  11.490 -0.1872 -0.1954  0.0518
72466SOL    HW127328   8.492  13.040  11.400 -1.8434 -0.6099  0.5923
72466SOL    HW227329   8.459  13.012  11.545 -0.8730  1.9017  1.3571
72467SOL     OW27330   1.455   9.268  12.197 -0.1092  0.2593 -0.0311
72467SOL    HW127331   1.411   9.319  12.129  1.7238  1.0272 -0.7105
72467SOL    HW227332   1.530   9.322  12.222  1.1460 -1.5182  0.1932
72468SOL     OW27333  13.034   8.542   6.713 -0.3682  0.0862  0.0668
72468SOL    HW127334  12.974   8.604   6.754  0.4152 -0.2921  1.9104
72468SOL    HW227335  12.976   8.481   6.666 -1.3322  0.6434  0.4915
72469SOL     OW27336  13.108   9.424   1.255  0.2066  0.2730  0.2492
72469SOL    HW127337  13.092   9.381   1.171 -2.4691  0.2190  0.7015
72469SOL    HW227338  13.203   9.417   1.267  0.9065  1.2868 -3.2786
72470SOL     OW27339   6.487   6.101  12.853 -0.0152  0.0517  0.5926
72470SOL    HW127340   6.397   6.073  12.872 -0.1321 -0.2819 -0.3873
72470SOL    HW227341   6.479   6.193  12.829  0.2284  0.6991  2.7523
72471SOL     OW27342   5.019  12.404   0.311 -0.8084  0.7231  0.3154
72471SOL    HW127343   5.071  12.463   0.365 -0.1766 -0.1843  0.7376
72471SOL    HW227344   5.041  12.316   0.344 -1.2247  0.2116 -0.7197
72472SOL     OW27345   2.730   2.735   2.992  0.0976  0.3562  0.3144
72472SOL    HW127346   2.687   2.686   2.922  0.5267  1.4019 -0.7051
72472SOL    HW227347   2.660   2.757   3.053 -0.6064  1.0106 -0.7179
72473SOL     OW27348   3.527  12.074   8.688 -0.5927 -0.0914  0.4471
72473SOL    HW127349   3.517  12.000   8.628 -1.6568  0.1855  0.2616
72473SOL    HW227350   3.470  12.054   8.761 -1.1153  0.6613  0.2670
72474SOL     OW27351   2.183   8.668   5.284  0.3163 -0.0339 -0.0315
72474SOL    HW127352   2.096   8.708   5.276 -0.7043 -1.4424  2.7425
72474SOL    HW227353   2.179   8.590   5.229  0.3304  0.6035 -0.9606
72475SOL     OW27354   1.903  10.141  10.988 -0.7969  0.1975 -0.3291
72475SOL    HW127355   1.912  10.223  11.037 -0.5281 -1.0379  1.7627
72475SOL    HW227356   1.984  10.093  11.007 -0.1698  0.0753 -2.8813
72476SOL     OW27357   9.392   1.389   0.323 -0.0647  0.0163  0.3530
72476SOL    HW127358   9.391   1.377   0.228 -2.6401  0.9836  0.1865
72476SOL    HW227359   9.464   1.449   0.339  1.1281 -1.0374 -0.8334
72477SOL     OW27360   9.101   5.100   5.299 -0.1519  0.0046  0.0960
72477SOL    HW127361   9.118   5.008   5.276 -1.6970 -0.3174  0.1352
72477SOL    HW227362   9.021   5.122   5.250 -2.1807  0.0420  3.1465
72478SOL     OW27363  11.852  13.312  11.952 -0.0029 -0.3571  0.1949
72478SOL    HW127364  11.765  13.344  11.975 -0.2384 -0.6340 -0.2907
72478SOL    HW227365  11.845  13.216  11.960  0.0190 -0.4355 -0.6203
72479SOL     OW27366   9.028   1.372   8.662  0.3504  0.2150  0.6329
72479SOL    HW127367   8.989   1.299   8.711  0.5852  0.3739  1.0605
72479SOL    HW227368   8.953   1.418   8.625  0.0444  1.0658  2.2197
72480SOL     OW27369   0.454   1.097  12.296  0.5361 -0.5654 -0.0710
72480SOL    HW127370   0.426   1.185  12.322  0.4906 -0.3950 -0.6815
72480SOL    HW227371   0.462   1.102  12.201  0.7424 -1.1645 -0.0860
72481SOL     OW27372   7.397   5.157  12.610 -0.3561 -0.6952 -0.1058
72481SOL    HW127373   7.412   5.185  12.520  0.8702 -1.8376 -0.2969
72481SOL    HW227374   7.370   5.236  12.656  1.7976  0.5689 -0.8475
72482SOL     OW27375  11.508   6.494   9.638  0.5903  0.4212  0.2206
72482SOL    HW127376  11.549   6.412   9.610  0.3000  0.4338 -0.2662
72482SOL    HW227377  11.581   6.549   9.666  0.8040  0.0630  0.3710
72483SOL     OW27378   9.717   6.438  12.422 -0.0505 -0.2717  0.6000
72483SOL    HW127379   9.662   6.395  12.488 -1.0427  0.2629  0.1355
72483SOL    HW227380   9.796   6.383  12.418 -1.2165 -2.0071  0.1170
72484SOL     OW27381   0.265   4.043   8.461  0.2094  0.8428  0.3837
72484SOL    HW127382   0.203   4.028   8.390  1.0903  2.1541 -0.7380
72484SOL    HW227383   0.343   3.995   8.434  0.2444  0.5974  0.9269
72485SOL     OW27384   3.942   8.548   7.748  0.0548  0.7845 -0.2046
72485SOL    HW127385   3.903   8.544   7.836  2.8476  3.0499  1.3130
72485SOL    HW227386   3.977   8.636   7.741  2.3683 -0.1858 -2.4781
72486SOL     OW27387  10.721   9.415   1.734  0.1394  0.5334 -0.8038
72486SOL    HW127388  10.722   9.510   1.728 -0.0445  0.4965 -1.4288
72486SOL    HW227389  10.713   9.397   1.828 -0.3234  1.1344 -0.7243
72487SOL     OW27390   1.669   8.588   9.404  0.0795  0.0173 -0.4448
72487SOL    HW127391   1.693   8.669   9.359 -1.0880  0.1483 -0.8774
72487SOL    HW227392   1.573   8.588   9.403  0.0444 -1.7548 -1.1667
72488SOL     OW27393   5.625  11.055   5.443  0.1146  0.1133 -0.2665
72488SOL    HW127394   5.637  11.150   5.441 -2.2134  0.4833  0.8012
72488SOL    HW227395   5.547  11.041   5.497 -0.5793 -2.3284 -1.7400
72489SOL     OW27396   3.594   6.980   0.418 -0.3851 -0.1122 -0.0942
72489SOL    HW127397   3.633   6.910   0.470 -2.3994 -0.6046  0.8457
72489SOL    HW227398   3.505   6.950   0.400 -0.5892  1.2348 -1.5883
72490SOL     OW27399   5.671  10.055   3.939  0.4592  0.0294 -0.0863
72490SOL    HW127400   5.731  10.110   3.990 -0.1381  0.9452 -0.3411
72490SOL    HW227401   5.589  10.058   3.987  0.8423 -2.0856  0.8399
72491SOL     OW27402   2.994  10.446   3.918 -0.2533  0.4677 -0.2305
72491SOL    HW127403   2.920  10.506   3.928  1.7739  3.0567  0.5023
72491SOL    HW227404   3.013  10.416   4.007 -1.7222 -2.0420 -0.6691
72492SOL     OW27405  10.946  11.375   9.988 -0.4151  0.4668  0.0610
72492SOL    HW127406  10.920  11.436  10.057  0.5518 -0.7210  1.5284
72492SOL    HW227407  11.037  11.399   9.970 -0.1762 -0.2390  0.3204
72493SOL     OW27408   8.369   0.072   7.291  0.0282  0.2829 -0.9084
72493SOL    HW127409   8.421   0.152   7.286 -0.6236  0.8165  0.2186
72493SOL    HW227410   8.420   0.014   7.347 -1.3670  1.5448  1.9120
72494SOL     OW27411   8.927   4.991  11.457  0.4139 -0.0056 -0.0139
72494SOL    HW127412   8.910   4.927  11.388  1.5967 -0.5067  0.1374
72494SOL    HW227413   9.006   5.036  11.429  0.0390  0.8489  0.2779
72495SOL     OW27414   0.486   6.685   9.508 -0.2533 -0.3957 -0.2187
72495SOL    HW127415   0.527   6.600   9.525 -1.1196 -0.2617  3.4349
72495SOL    HW227416   0.395   6.673   9.535 -0.4740  1.6047  0.0810
72496SOL     OW27417   8.260   4.152  12.938 -0.6947 -0.0831 -0.4668
72496SOL    HW127418   8.301   4.167  13.023 -2.2245 -1.2097  0.5333
72496SOL    HW227419   8.241   4.240  12.905 -0.8155  0.3738  0.7551
72497SOL     OW27420  11.588   9.321   0.968  0.3777  0.5697 -0.2327
72497SOL    HW127421  11.652   9.294   0.903  0.3050  2.5398 -1.2094
72497SOL    HW227422  11.527   9.248   0.973  1.0771 -0.1404 -1.4566
72498SOL     OW27423   8.155  11.243  10.813 -0.0619  0.2177 -0.3192
72498SOL    HW127424   8.195  11.330  10.814  1.2687 -0.3680  1.1618
72498SOL    HW227425   8.062  11.260  10.795  0.5721  1.6996 -2.7128
72499SOL     OW27426  12.249   8.113  11.851 -0.6279  0.0137 -1.0375
72499SOL    HW127427  12.266   8.200  11.888 -0.2124 -0.6464  0.3939
72499SOL    HW227428  12.291   8.052  11.911 -1.5396 -1.2357 -1.6057
72500SOL     OW27429   7.259   1.956   4.315  0.3070  0.1681 -0.2327
72500SOL    HW127430   7.290   2.047   4.311  1.1787 -0.1612 -1.8916
72500SOL    HW227431   7.311   1.916   4.385  0.5106  0.7288 -0.0582
72501SOL     OW27432   6.124   6.347  12.777 -0.0726  0.3154  0.5143
72501SOL    HW127433   6.112   6.388  12.691  1.7439 -1.8898 -0.9453
72501SOL    HW227434   6.039   6.354  12.819 -1.4115  0.4649 -1.9834
72502SOL     OW27435   4.146  12.232   6.148 -0.4546  0.4172  0.3724
72502SOL    HW127436   4.158  12.149   6.194  1.5299  0.3378 -0.1704
72502SOL    HW227437   4.230  12.246   6.103 -1.4478  1.7246 -1.1742
72503SOL     OW27438   6.048  11.371   6.614 -0.3545 -0.3094  0.2428
72503SOL    HW127439   5.988  11.410   6.550 -0.0613 -0.2030  0.0260
72503SOL    HW227440   6.036  11.277   6.604 -1.0134 -0.2818  0.7159
72504SOL     OW27441   6.177   0.320   3.355 -0.1630 -0.4511  0.0556
72504SOL    HW127442   6.193   0.266   3.432  0.0055 -0.4061  0.0529
72504SOL    HW227443   6.118   0.268   3.300 -0.8806 -0.1773  0.5485
72505SOL     OW27444   5.177  12.290  11.870 -0.3640  0.1708  0.2554
72505SOL    HW127445   5.234  12.217  11.892 -2.5320 -1.0528  2.1518
72505SOL    HW227446   5.153  12.275  11.779 -1.1257 -1.7964  0.7263
72506SOL     OW27447   5.209   5.114   7.855 -0.2410  0.1006  0.5740
72506SOL    HW127448   5.135   5.171   7.878 -0.1476  0.4682 -0.0185
72506SOL    HW227449   5.232   5.071   7.937 -0.7922  0.3596  0.8720
72507SOL     OW27450   2.620  11.680   5.744  0.6371 -0.2351 -0.1646
72507SOL    HW127451   2.649  11.707   5.831 -0.1694  0.2154 -0.0294
72507SOL    HW227452   2.541  11.629   5.761 -1.3405  2.4407 -0.7999
72508SOL     OW27453  11.853   6.611   7.494 -0.0984  0.2550  0.1386
72508SOL    HW127454  11.886   6.544   7.553 -1.6484 -1.6869 -1.0386
72508SOL    HW227455  11.929   6.637   7.442  0.5872 -0.4247  0.7794
72509SOL     OW27456   0.341  13.180   2.210  0.2129  0.3904 -0.0015
72509SOL    HW127457   0.424  13.134   2.211  1.0612  1.8595  0.5191
72509SOL    HW227458   0.324  13.199   2.118  1.0727  1.1277 -0.0176
72510SOL     OW27459   6.704   2.410  11.596  0.2609 -0.1368 -0.0226
72510SOL    HW127460   6.664   2.323  11.601  1.7751 -0.8683 -0.0710
72510SOL    HW227461   6.798   2.393  11.596  0.5847  1.4682 -0.7812
72511SOL     OW27462   1.966   2.162   8.994 -0.4442  0.5309  0.0347
72511SOL    HW127463   1.988   2.108   9.069  1.1619 -0.9499 -1.4304
72511SOL    HW227464   1.891   2.118   8.953 -1.7526  1.6982  1.0619
72512SOL     OW27465   7.855   6.346   0.342 -0.3270 -0.0836 -0.1460
72512SOL    HW127466   7.862   6.349   0.437  2.3666 -1.4705 -0.2166
72512SOL    HW227467   7.911   6.417   0.311  0.1711 -0.7029 -0.6989
72513SOL     OW27468   5.764  11.996   6.603 -0.0838 -0.0783 -0.1456
72513SOL    HW127469   5.833  11.967   6.662  0.1766 -0.1524 -0.4840
72513SOL    HW227470   5.770  12.091   6.603  0.6799 -0.1224 -0.9602
72514SOL     OW27471   5.913   9.380   8.515  0.2639  0.0640  0.5266
72514SOL    HW127472   5.920   9.362   8.608  0.9837 -4.4175 -0.1682
72514SOL    HW227473   5.996   9.350   8.478 -0.6268  0.1278 -1.7152
72515SOL     OW27474   9.665   8.429  12.000  0.0034 -0.1903 -0.0014
72515SOL    HW127475   9.591   8.463  12.051  1.9110 -0.6821  3.4522
72515SOL    HW227476   9.742   8.459  12.049  2.0033 -1.9647 -1.8938
72516SOL     OW27477  12.583   0.077   2.354  0.2639 -0.1295  0.1794
72516SOL    HW127478  12.589  -0.008   2.312  0.2539  0.8197 -1.8402
72516SOL    HW227479  12.557   0.058   2.444 -0.9988 -2.1824 -0.5733
72517SOL     OW27480   4.005  11.697   6.741  0.1232 -0.3597 -0.8865
72517SOL    HW127481   4.044  11.621   6.698 -0.2222 -1.1082  0.0701
72517SOL    HW227482   3.915  11.700   6.708 -0.5302 -1.6732  0.6184
72518SOL     OW27483   6.819   2.495   1.733 -0.0924 -0.1138 -0.0496
72518SOL    HW127484   6.837   2.450   1.815 -2.0556  1.4292  1.3220
72518SOL    HW227485   6.795   2.426   1.672  0.2840 -1.1923  0.9963
72519SOL     OW27486   1.984   7.397   3.153  0.1517  0.1335  0.4144
72519SOL    HW127487   2.058   7.393   3.214 -0.4993 -2.0784  1.1222
72519SOL    HW227488   2.023   7.382   3.067  0.6704  0.2477  0.6260
72520SOL     OW27489   5.553   9.922   1.786 -0.2138  0.0431 -0.0119
72520SOL    HW127490   5.503   9.994   1.747  0.4451  0.7725  0.4520
72520SOL    HW227491   5.582   9.957   1.871  0.8726 -0.4490 -0.1736
72521SOL     OW27492   5.000   2.701   5.817  0.1702  0.1203 -0.5487
72521SOL    HW127493   5.070   2.738   5.763  2.0365 -2.3785 -0.0253
72521SOL    HW227494   4.919   2.736   5.779  1.6034  1.9637 -2.1106
72522SOL     OW27495   9.971   5.187   9.539  0.1184 -0.3510 -0.9826
72522SOL    HW127496   9.880   5.217   9.540  0.6444  1.3933  0.5693
72522SOL    HW227497   9.988   5.166   9.447 -1.5449  0.2977 -1.4860
72523SOL     OW27498   4.707  13.132  11.731 -0.2530  0.0244  0.1554
72523SOL    HW127499   4.715  13.194  11.804 -0.1341  0.1891  0.0022
72523SOL    HW227500   4.783  13.150  11.676 -0.0567 -0.4582  0.2624
72524SOL     OW27501   2.402   7.008   4.671 -0.8910 -0.1228 -0.2070
72524SOL    HW127502   2.309   6.999   4.691 -0.9886 -1.0612 -0.9924
72524SOL    HW227503   2.436   6.918   4.673  0.2907  0.3082  1.3338
72525SOL     OW27504  10.045   9.991   7.218  0.0214 -0.1796  0.0510
72525SOL    HW127505   9.951   9.978   7.208  0.0737  0.6333 -1.7173
72525SOL    HW227506  10.053  10.071   7.270 -0.2855  0.3572 -0.7062
72526SOL     OW27507   3.831   2.495   4.661 -0.1344  0.6033 -0.4635
72526SOL    HW127508   3.817   2.467   4.751  2.9880  2.3961  0.7100
72526SOL    HW227509   3.786   2.428   4.609  0.8534 -2.5036  2.2980
72527SOL     OW27510   1.392   5.216   3.820 -0.0986  0.1708  0.0990
72527SOL    HW127511   1.469   5.187   3.770  0.0424 -0.8101  0.8631
72527SOL    HW227512   1.427   5.284   3.878 -0.2584  1.2968 -1.0871
72528SOL     OW27513   5.179  11.312   0.660 -0.2734  0.9704 -0.2336
72528SOL    HW127514   5.201  11.225   0.628 -0.9958  0.3758  0.8549
72528SOL    HW227515   5.207  11.312   0.751 -0.6042  1.7572 -0.1220
72529SOL     OW27516   1.912   5.815   9.359 -0.4279  0.0544 -0.1658
72529SOL    HW127517   1.855   5.872   9.307 -1.4312 -0.5687  0.2284
72529SOL    HW227518   2.000   5.850   9.344 -1.0744  2.2898  0.7808
72530SOL     OW27519  10.226   3.191   0.217 -0.3486  0.1165 -0.0129
72530SOL    HW127520  10.161   3.206   0.149  1.0851 -0.3838 -1.5649
72530SOL    HW227521  10.176   3.189   0.299 -1.9287  2.5728 -0.7960
72531SOL     OW27522   1.197   3.445  11.552 -0.1063 -0.4780 -0.7346
72531SOL    HW127523   1.241   3.360  11.557 -0.0484 -0.3851  0.7562
72531SOL    HW227524   1.260   3.501  11.507 -0.3513 -1.3249 -2.2020
72532SOL     OW27525   5.463   8.811  13.035 -0.1365 -1.1188 -0.2381
72532SOL    HW127526   5.460   8.906  13.030 -0.8555 -1.1597 -0.6466
72532SOL    HW227527   5.409   8.781  12.962 -0.4031 -1.8398  0.2468
72533SOL     OW27528   0.704   0.195   6.055 -0.1626 -0.7930  0.0961
72533SOL    HW127529   0.642   0.134   6.095  2.0879 -2.7650  0.7840
72533SOL    HW227530   0.774   0.139   6.021 -0.0162  1.1125 -3.1350
72534SOL     OW27531   1.247   3.218   4.008 -0.4492 -0.1054 -0.5514
72534SOL    HW127532   1.268   3.299   4.054  0.6272 -1.1235  0.8296
72534SOL    HW227533   1.194   3.168   4.069 -1.5670 -0.2476 -1.5990
72535SOL     OW27534  13.296   5.615  13.045  0.5866 -0.7171 -0.2232
72535SOL    HW127535  13.339   5.530  13.036  2.8767  0.5355 -2.4408
72535SOL    HW227536  13.239   5.605  13.121  2.1507 -3.6444  0.7269
72536SOL     OW27537   2.579   3.939   1.267 -0.3397  0.2983 -0.2281
72536SOL    HW127538   2.600   3.911   1.178  0.3011 -0.4886  0.1598
72536SOL    HW227539   2.519   3.872   1.300  2.1828 -1.4419  1.1482
72537SOL     OW27540   9.784  10.785   8.102  0.6100 -0.3050 -0.1502
72537SOL    HW127541   9.796  10.854   8.168 -3.3892  1.3744 -0.8919
72537SOL    HW227542   9.825  10.820   8.023  1.4394 -0.2921  0.2691
72538SOL     OW27543  10.258   9.159   2.849  0.1723 -0.5401  0.2860
72538SOL    HW127544  10.276   9.185   2.759  1.1112  0.8110  0.8339
72538SOL    HW227545  10.163   9.155   2.854  0.1154 -1.5139 -0.9844
72539SOL     OW27546   2.005  10.598   7.558 -0.2051 -0.2284 -0.3295
72539SOL    HW127547   2.072  10.589   7.626 -0.5030 -0.7595 -0.1033
72539SOL    HW227548   2.037  10.544   7.486  0.2020  0.4805 -0.6933
72540SOL     OW27549   5.852   1.280   5.561 -0.7595  0.1073 -0.3659
72540SOL    HW127550   5.789   1.210   5.546  0.7710 -1.8230  1.6376
72540SOL    HW227551   5.927   1.257   5.506 -0.9800  1.2963 -1.2052
72541SOL     OW27552   5.790   6.054   8.360 -0.4932  0.6031  0.5596
72541SOL    HW127553   5.747   5.989   8.304 -1.2304  0.5856  1.1359
72541SOL    HW227554   5.779   6.020   8.449  3.1834 -0.9056  0.6267
72542SOL     OW27555   5.575  10.237   0.614 -0.0461  0.2939  0.0329
72542SOL    HW127556   5.609  10.231   0.525  1.1788  0.4410  0.4723
72542SOL    HW227557   5.630  10.178   0.665  0.6312  1.7721  1.0727
72543SOL     OW27558   0.540   8.081   2.187  0.2336  0.2163 -0.3067
72543SOL    HW127559   0.602   8.111   2.121  0.3064 -0.1190 -0.3937
72543SOL    HW227560   0.506   7.998   2.152 -0.0506  0.2572 -0.1284
72544SOL     OW27561   8.465   5.347  12.865 -0.2746  0.0142  0.5201
72544SOL    HW127562   8.540   5.370  12.920 -0.1046  1.0337 -0.1054
72544SOL    HW227563   8.395   5.327  12.927 -0.8146  3.4550  1.2301
72545SOL     OW27564  10.349   2.440   1.291 -0.3436 -0.0441  0.0249
72545SOL    HW127565  10.363   2.512   1.231 -1.5777  0.1601 -0.0367
72545SOL    HW227566  10.257   2.447   1.317 -0.1588 -0.8547  0.9779
72546SOL     OW27567   1.095   6.286   0.081  0.0633  0.2496  0.1438
72546SOL    HW127568   1.032   6.230   0.036  0.3163  0.4894 -0.5244
72546SOL    HW227569   1.177   6.238   0.077  0.1621  0.4272  0.0529
72547SOL     OW27570   4.242   2.758  12.009 -0.9383  0.0400 -0.3174
72547SOL    HW127571   4.153   2.728  11.992 -1.3121  0.8031  0.2223
72547SOL    HW227572   4.244   2.775  12.104 -0.6231  1.2658 -0.5220
72548SOL     OW27573  12.561   1.751   1.833  0.0781  0.0381 -0.0939
72548SOL    HW127574  12.513   1.824   1.792  0.4127  0.0157 -0.5448
72548SOL    HW227575  12.653   1.769   1.810  0.1099 -0.8102 -0.6630
72549SOL     OW27576   5.049   0.777  11.864 -1.2457 -0.3118  0.4421
72549SOL    HW127577   5.131   0.758  11.818 -2.0179 -1.6283 -0.4765
72549SOL    HW227578   5.075   0.833  11.937  0.4046 -0.3319 -0.0776
72550SOL     OW27579   4.101   9.724  12.450 -0.0582 -0.0366  0.5080
72550SOL    HW127580   4.140   9.780  12.516 -2.1952  1.9621  0.1940
72550SOL    HW227581   4.057   9.655  12.499  1.3850 -0.6821  0.9540
72551SOL     OW27582   4.721  11.631  13.025  0.2782 -0.5026  0.1915
72551SOL    HW127583   4.689  11.653  12.938  2.5144 -1.4574 -0.9526
72551SOL    HW227584   4.660  11.564  13.057 -0.7526  0.0915 -0.4889
72552SOL     OW27585   8.968   8.616  10.812 -0.3289 -0.1647  0.4190
72552SOL    HW127586   9.018   8.580  10.885  1.8334  1.8207  0.0381
72552SOL    HW227587   8.987   8.558  10.738  0.9807  0.2100  0.4344
72553SOL     OW27588   2.260  10.199   4.239  1.1031 -0.3475  0.5444
72553SOL    HW127589   2.179  10.149   4.224  1.1130 -0.0763 -0.4813
72553SOL    HW227590   2.246  10.282   4.193  1.3675  0.3386  1.6420
72554SOL     OW27591   0.094   0.430   8.196  0.0401  0.4406 -0.3217
72554SOL    HW127592   0.095   0.423   8.291  0.9013  0.7598 -0.3031
72554SOL    HW227593   0.100   0.340   8.165 -2.7384  0.0899 -0.0998
72555SOL     OW27594  11.885   1.781   2.473  0.1627  0.5783 -0.2743
72555SOL    HW127595  11.816   1.796   2.408 -0.2278  2.0743  0.4429
72555SOL    HW227596  11.927   1.699   2.444 -1.3356  0.0838 -1.2138
72556SOL     OW27597  10.187  11.690   0.534  0.1953 -0.7659 -0.1704
72556SOL    HW127598  10.100  11.661   0.505 -0.3431 -0.2415  0.8623
72556SOL    HW227599  10.181  11.786   0.534  0.4241 -0.7392  0.9018
72557SOL     OW27600  12.948  10.362   4.495  0.6233 -0.9484 -0.3362
72557SOL    HW127601  12.910  10.429   4.438 -0.2744 -1.2752 -0.1370
72557SOL    HW227602  12.902  10.373   4.578  0.9467 -1.3742 -0.0992
72558SOL     OW27603  11.158   7.107  11.924 -0.6308  0.2980  0.3787
72558SOL    HW127604  11.185   7.016  11.922  2.7195  1.1718  0.7108
72558SOL    HW227605  11.070   7.107  11.886 -1.0412 -3.1041  1.0703
72559SOL     OW27606  12.049   1.805   3.878 -0.7684 -0.1108 -0.1053
72559SOL    HW127607  11.967   1.853   3.866 -0.0987  0.6501 -1.9155
72559SOL    HW227608  12.113   1.851   3.824  0.8914 -0.6708  1.2957
72560SOL     OW27609   2.717   1.799  10.918 -0.5539  1.1241 -0.1799
72560SOL    HW127610   2.764   1.818  10.837  0.0303  0.2843 -0.0524
72560SOL    HW227611   2.695   1.706  10.911 -1.4931  1.3168  0.1287
72561SOL     OW27612  12.231   0.244   4.326 -0.1156  0.0365  0.1772
72561SOL    HW127613  12.283   0.310   4.373  1.6229 -0.7039 -0.6252
72561SOL    HW227614  12.296   0.189   4.282 -1.6149 -0.1720 -1.9193
72562SOL     OW27615   8.574  12.540   1.513  0.6438  0.2087 -0.2949
72562SOL    HW127616   8.490  12.569   1.477  0.1081 -0.8883  0.0271
72562SOL    HW227617   8.593  12.602   1.584 -0.6221 -0.3702  0.5812
72563SOL     OW27618   3.069  11.026   5.674  0.3138  0.0990  0.4165
72563SOL    HW127619   3.059  11.059   5.763 -0.3220 -0.3466  0.5213
72563SOL    HW227620   3.024  11.090   5.619 -0.7381 -0.4458  0.5993
72564SOL     OW27621  11.938   7.405   7.072 -0.4139 -0.3576 -0.2414
72564SOL    HW127622  11.889   7.422   7.153  0.8866 -1.7712  0.9165
72564SOL    HW227623  12.015   7.357   7.101  0.7589  0.2382 -2.2117
72565SOL     OW27624   7.903   1.343   2.603 -0.3584  0.3688  0.0044
72565SOL    HW127625   7.814   1.350   2.567 -0.4965  0.2426  0.3125
72565SOL    HW227626   7.890   1.300   2.688  0.0349  0.0272 -0.1085
72566SOL     OW27627   7.696  10.081   4.660  0.1103 -0.0452  0.2905
72566SOL    HW127628   7.791  10.087   4.669  0.0833  0.2482  0.3900
72566SOL    HW227629   7.661  10.115   4.743 -0.0767 -0.3615  0.3409
72567SOL     OW27630   8.194   6.797   5.986  0.2236 -0.5760 -0.1027
72567SOL    HW127631   8.122   6.851   6.020 -0.5628 -0.7063 -1.4683
72567SOL    HW227632   8.248   6.858   5.936 -1.1390 -1.1307 -2.3712
72568SOL     OW27633   9.527  11.077   5.477 -0.1430 -0.2549 -0.5816
72568SOL    HW127634   9.480  10.998   5.501 -1.7250  0.4972 -1.0118
72568SOL    HW227635   9.485  11.147   5.528  1.7403  0.2438  0.4128
72569SOL     OW27636  10.591  12.837   0.131 -0.3065  0.1856 -0.3737
72569SOL    HW127637  10.622  12.867   0.045  1.6037 -0.1100  0.1570
72569SOL    HW227638  10.587  12.916   0.185 -0.8462  0.2712 -0.5298
72570SOL     OW27639   1.034   0.188   3.094 -0.6846  0.0389 -0.3353
72570SOL    HW127640   0.982   0.203   3.015  1.1616 -1.1800 -1.8779
72570SOL    HW227641   1.115   0.236   3.079  0.5030 -1.7740 -0.1279
72571SOL     OW27642  11.620   8.751   0.396 -0.2017  0.0724 -0.8608
72571SOL    HW127643  11.668   8.694   0.337 -0.5413 -0.0870 -0.9818
72571SOL    HW227644  11.528   8.728   0.383 -0.3543  0.7346 -1.0121
72572SOL     OW27645   6.275  10.469   0.143  0.2157  0.5296  0.4852
72572SOL    HW127646   6.336  10.539   0.167  0.2621  1.3659 -1.8121
72572SOL    HW227647   6.328  10.389   0.147  1.2074  1.1072 -0.3973
72573SOL     OW27648  10.422   9.604   3.420 -0.0757  0.1145 -0.0889
72573SOL    HW127649  10.369   9.618   3.498  0.3423 -1.3355  0.4751
72573SOL    HW227650  10.380   9.530   3.375  0.2485  0.3192 -0.7452
72574SOL     OW27651  11.264   4.874  11.100  0.7060  0.3363 -0.1526
72574SOL    HW127652  11.346   4.923  11.110  0.9476 -0.2374  0.7743
72574SOL    HW227653  11.222   4.879  11.185 -0.3442  0.8046 -0.6840
72575SOL     OW27654  11.558   8.564   1.973  0.5178 -0.1653 -0.2339
72575SOL    HW127655  11.574   8.509   1.896 -0.3645  0.0412 -0.5775
72575SOL    HW227656  11.499   8.511   2.028 -2.2803  1.2694 -1.6348
72576SOL     OW27657   8.740   5.466   5.078 -0.3240  0.1243 -0.1670
72576SOL    HW127658   8.797   5.420   5.018  0.7510  1.1021  0.0701
72576SOL    HW227659   8.651   5.450   5.045  0.2123  0.2488 -1.7251
72577SOL     OW27660   0.119   8.533  11.231  0.4834  0.4374  0.2278
72577SOL    HW127661   0.204   8.568  11.256 -0.2427  2.0010  0.6524
72577SOL    HW227662   0.063   8.548  11.308 -0.2870 -0.1162 -0.2120
72578SOL     OW27663   0.542   3.881  13.175 -0.2903 -0.8684  0.1675
72578SOL    HW127664   0.627   3.856  13.211  0.7394  1.6989 -0.2266
72578SOL    HW227665   0.508   3.946  13.237 -1.8552 -1.6544  0.1653
72579SOL     OW27666   5.216   6.504   1.829 -0.2671  0.2853 -0.2514
72579SOL    HW127667   5.280   6.446   1.787  2.9297  3.4514 -0.2579
72579SOL    HW227668   5.214   6.582   1.773 -2.4844  1.1973  0.9777
72580SOL     OW27669   2.136   6.157   1.415 -0.0420 -0.2539  0.3030
72580SOL    HW127670   2.108   6.105   1.490 -2.2614  0.8787  0.3465
72580SOL    HW227671   2.056   6.201   1.385  1.3574  1.6786 -0.8505
72581SOL     OW27672   0.486   2.306   6.464  0.3796 -0.1646 -0.0130
72581SOL    HW127673   0.488   2.211   6.449  2.6566 -0.1154 -0.3511
72581SOL    HW227674   0.563   2.339   6.419  0.1010  1.7518  0.8183
72582SOL     OW27675   6.831  11.136  11.421 -0.3927 -0.0015 -0.1599
72582SOL    HW127676   6.735  11.133  11.421 -0.5337  1.9734  1.8411
72582SOL    HW227677   6.853  11.214  11.370  0.1880 -0.6529 -0.9261
72583SOL     OW27678   5.662   5.447   7.183 -0.2094 -0.1101  0.6295
72583SOL    HW127679   5.683   5.440   7.276 -1.0035 -1.9962  0.7071
72583SOL    HW227680   5.632   5.359   7.159 -1.0318  0.6263 -1.1550
72584SOL     OW27681   5.333  11.699   7.796  0.5831  0.6873 -0.1861
72584SOL    HW127682   5.284  11.778   7.820  0.0619  0.4317 -0.3797
72584SOL    HW227683   5.413  11.731   7.756 -0.5918  1.1863 -2.3172
72585SOL     OW27684  13.291   5.499   7.845 -0.5200 -0.4057  0.2307
72585SOL    HW127685  13.313   5.564   7.778  1.0857  0.6374  1.6929
72585SOL    HW227686  13.334   5.419   7.814 -0.2667 -0.0832 -0.2782
72586SOL     OW27687   2.815   1.038   3.108  0.1748 -1.0738  0.1334
72586SOL    HW127688   2.729   1.026   3.147 -0.3689 -0.2935 -0.7786
72586SOL    HW227689   2.838   0.951   3.074 -0.1837 -1.3134  0.4970
72587SOL     OW27690  13.302   8.514   8.025 -0.3786 -0.1678  0.4328
72587SOL    HW127691  13.226   8.564   7.997 -0.1823 -0.2128 -0.1974
72587SOL    HW227692  13.284   8.490   8.116 -1.1378 -0.2233  0.2678
72588SOL     OW27693   1.345   8.401   3.115 -0.6275 -0.1321 -0.0730
72588SOL    HW127694   1.439   8.388   3.107 -0.8010 -1.6390  0.1964
72588SOL    HW227695   1.306   8.324   3.074 -1.7181 -0.3404  1.2991
72589SOL     OW27696   0.934   8.447   5.691  0.6057 -0.2632 -0.5105
72589SOL    HW127697   0.965   8.418   5.776 -1.1426 -1.9137 -0.3827
72589SOL    HW227698   0.851   8.401   5.678  0.6943  0.1386 -2.9941
72590SOL     OW27699   8.378   0.096   0.352  0.2006 -0.6157 -0.4085
72590SOL    HW127700   8.358   0.004   0.333 -0.8563 -1.1341  2.6528
72590SOL    HW227701   8.294   0.135   0.376  0.9955  0.4418  0.8071
72591SOL     OW27702   4.879   7.136   1.458  0.5770  0.0081  0.1847
72591SOL    HW127703   4.916   7.197   1.394  0.9603 -0.0449  0.3531
72591SOL    HW227704   4.789   7.121   1.427  0.3441  0.9628  0.3592
72592SOL     OW27705  12.765   9.585   9.321 -0.0736  0.7322  0.7749
72592SOL    HW127706  12.761   9.490   9.320  2.1234  0.5948  0.3212
72592SOL    HW227707  12.713   9.610   9.398 -1.3487 -0.7359  0.4508
72593SOL     OW27708   9.551   6.735   0.865  0.1769 -0.1160  0.1085
72593SOL    HW127709   9.568   6.828   0.874 -0.1089 -0.1447  1.1469
72593SOL    HW227710   9.578   6.698   0.950 -1.4256 -0.6979  0.3903
72594SOL     OW27711   5.024   8.065   0.149 -0.1520 -0.3824  0.3723
72594SOL    HW127712   5.120   8.069   0.147 -0.1336  1.8349  1.9303
72594SOL    HW227713   5.001   8.100   0.234 -2.4176  0.5269 -0.5547
72595SOL     OW27714   6.580   6.750   0.729  0.0919  0.1094  0.0536
72595SOL    HW127715   6.612   6.841   0.729 -1.0237  0.5232  0.0847
72595SOL    HW227716   6.492   6.756   0.768 -0.1897 -0.9119 -0.3983
72596SOL     OW27717   8.486  11.313   6.407  0.1215  0.1888  0.1748
72596SOL    HW127718   8.447  11.400   6.419 -0.6880 -0.0335 -0.7825
72596SOL    HW227719   8.421  11.252   6.443  0.1432 -0.1008 -0.2701
72597SOL     OW27720   4.417   7.904   6.008 -0.1627  0.3121 -0.4415
72597SOL    HW127721   4.495   7.850   6.021 -1.8820 -1.8872  1.7184
72597SOL    HW227722   4.405   7.949   6.091 -0.0914  2.2853 -1.4524
72598SOL     OW27723   1.068   4.181   4.698 -0.1668 -0.1781  0.8013
72598SOL    HW127724   1.101   4.112   4.755 -1.2864 -0.5624  1.0085
72598SOL    HW227725   1.133   4.189   4.629 -0.1006 -1.5519  0.6927
72599SOL     OW27726   4.991   0.176   5.999  0.0469  0.1242 -0.4272
72599SOL    HW127727   4.998   0.256   6.051 -0.2491 -0.1072 -0.0379
72599SOL    HW227728   5.008   0.206   5.909  1.6931  0.3397 -0.0878
72600SOL     OW27729   0.025  10.286   2.903  0.2604  0.0269  0.0513
72600SOL    HW127730  -0.038  10.259   2.970 -2.0854  2.3429 -1.0531
72600SOL    HW227731   0.095  10.329   2.953 -0.4826 -0.0041  1.1592
72601SOL     OW27732   5.248   7.347   7.855  0.0099  0.7048  0.2135
72601SOL    HW127733   5.337   7.314   7.868  1.4617  4.3687  0.7572
72601SOL    HW227734   5.252   7.394   7.772 -1.7932  0.0187 -0.3119
72602SOL     OW27735   3.454   6.262   8.584  0.2165  0.3353 -0.3238
72602SOL    HW127736   3.528   6.322   8.586  1.3280 -0.9887  0.1126
72602SOL    HW227737   3.447   6.231   8.674 -0.6449  0.1729 -0.4434
72603SOL     OW27738   4.392   0.957  13.014  0.5452 -0.8522  0.2480
72603SOL    HW127739   4.340   0.889  12.971  0.4695  0.2675 -1.5535
72603SOL    HW227740   4.329   1.011  13.061  0.1836 -0.2384 -0.8948
72604SOL     OW27741  11.480   8.374   4.219 -0.3900 -0.2755  0.0244
72604SOL    HW127742  11.395   8.362   4.177 -0.0655 -0.3844 -0.6268
72604SOL    HW227743  11.513   8.285   4.233  0.3510 -0.2507 -1.3086
72605SOL     OW27744   9.871   4.095   0.064  0.1050  0.0285  0.0342
72605SOL    HW127745   9.842   4.032   0.130  0.4030 -0.5846 -0.4121
72605SOL    HW227746   9.934   4.046   0.010  0.0851  0.6045 -0.5225
72606SOL     OW27747  12.760   6.082   7.037 -0.4025 -0.4026 -0.2506
72606SOL    HW127748  12.707   6.038   7.102  1.6630 -2.2682  0.3111
72606SOL    HW227749  12.763   6.021   6.963  0.3901 -0.0532 -0.5196
72607SOL     OW27750   0.825   6.160  10.589 -0.0225 -0.1558 -0.3043
72607SOL    HW127751   0.883   6.205  10.650 -0.6022  1.4748 -0.8805
72607SOL    HW227752   0.846   6.199  10.503 -0.3186 -1.2561 -0.8947
72608SOL     OW27753   8.818   5.816   2.810 -0.2579  0.1677  0.8780
72608SOL    HW127754   8.757   5.827   2.883 -0.9168 -1.3559  0.5998
72608SOL    HW227755   8.778   5.866   2.738  1.6925  3.9064  2.1394
72609SOL     OW27756  11.952   3.458   0.229  0.4860 -0.3664 -0.1151
72609SOL    HW127757  12.043   3.484   0.218  0.1591  0.1090 -2.1730
72609SOL    HW227758  11.903   3.516   0.171 -0.8342 -2.2019 -0.9615
72610SOL     OW27759   7.659  10.391  10.806 -0.5272  0.2305 -0.1310
72610SOL    HW127760   7.737  10.426  10.763 -1.1546  1.2812 -0.4325
72610SOL    HW227761   7.670  10.414  10.898  0.0983 -0.7191  0.0520
72611SOL     OW27762  10.959   8.141  10.177  0.2366  0.1807 -0.5484
72611SOL    HW127763  11.001   8.065  10.138  1.8746  1.0059 -0.5100
72611SOL    HW227764  11.032   8.198  10.202 -0.9170  1.5414 -0.1294
72612SOL     OW27765   9.005   7.130  11.445 -0.7534  0.0618 -0.1150
72612SOL    HW127766   8.971   7.174  11.523 -1.0836  1.8295 -1.2132
72612SOL    HW227767   9.091   7.168  11.431  0.1482 -1.6556  0.4497
72613SOL     OW27768  12.626   8.104   5.502  0.1502  0.0170  0.0250
72613SOL    HW127769  12.654   8.132   5.414  0.2641 -0.3558 -0.0603
72613SOL    HW227770  12.585   8.019   5.488  1.4320 -0.7130  0.5086
72614SOL     OW27771   6.020   5.771   7.078 -0.1371 -0.5457 -0.5081
72614SOL    HW127772   5.931   5.803   7.092 -0.1020 -0.5064 -0.3781
72614SOL    HW227773   6.014   5.677   7.095 -0.5102 -0.8410 -2.0820
72615SOL     OW27774   1.512   9.680   2.408 -0.1589 -0.1737 -0.1181
72615SOL    HW127775   1.437   9.708   2.355 -0.4804  0.7487  0.7844
72615SOL    HW227776   1.588   9.715   2.363 -0.4428  0.7480  0.0950
72616SOL     OW27777   9.746   7.321   3.150  0.5097 -1.0200  0.0029
72616SOL    HW127778   9.830   7.364   3.133  0.0386 -0.4356 -0.8911
72616SOL    HW227779   9.770   7.238   3.191  1.4761 -0.2845  1.0170
72617SOL     OW27780   1.740  13.238  10.432  0.2031  0.5309  0.0630
72617SOL    HW127781   1.680  13.205  10.365  1.2634  1.9539 -1.6578
72617SOL    HW227782   1.777  13.159  10.472  0.5289 -0.4012 -1.9529
72618SOL     OW27783   9.461  11.815   6.136  0.5670  0.6948  0.3557
72618SOL    HW127784   9.490  11.817   6.045  0.3197  1.3572  0.2817
72618SOL    HW227785   9.521  11.876   6.181  1.2972 -0.3468  0.8288
72619SOL     OW27786   4.106   1.879   3.682 -0.4321  0.3616  0.5288
72619SOL    HW127787   4.156   1.844   3.608  1.1046 -0.4865  1.8960
72619SOL    HW227788   4.076   1.801   3.729 -0.6980  0.8894  1.2511
72620SOL     OW27789   9.031   6.153   6.244  0.0080  0.2849  0.4974
72620SOL    HW127790   9.043   6.156   6.339  1.9169 -0.4642  0.3206
72620SOL    HW227791   9.011   6.061   6.225  3.4057 -0.4264 -0.1365
72621SOL     OW27792   2.242   0.928   9.734 -0.0662  0.1029 -0.6424
72621SOL    HW127793   2.188   0.957   9.807  0.1405  0.2634 -0.5522
72621SOL    HW227794   2.265   1.009   9.687  0.9114  0.1531 -0.1107
72622SOL     OW27795   8.157  11.804   4.915  0.1089  0.0536 -0.3707
72622SOL    HW127796   8.159  11.709   4.930  2.3612 -0.0736 -1.1561
72622SOL    HW227797   8.165  11.814   4.820 -0.4563  1.0438 -0.3275
72623SOL     OW27798  12.806   3.275   6.896  0.1301  0.5182 -0.0737
72623SOL    HW127799  12.762   3.194   6.918 -1.8273  1.2088 -1.1421
72623SOL    HW227800  12.888   3.273   6.945 -0.6423 -1.2979  1.2368
72624SOL     OW27801  10.973   8.358   2.890  0.0139 -0.0306 -0.1211
72624SOL    HW127802  11.031   8.309   2.832  0.6749 -0.2235  0.6868
72624SOL    HW227803  10.897   8.380   2.836  0.1496 -1.1120 -0.7631
72625SOL     OW27804   0.753  11.753  10.666 -0.4304  0.3255  0.3234
72625SOL    HW127805   0.836  11.766  10.711  0.1701 -0.6657 -0.4627
72625SOL    HW227806   0.692  11.811  10.712  0.6231  0.8820  1.0714
72626SOL     OW27807   7.655   3.146   3.683  0.2597 -0.2512 -0.0028
72626SOL    HW127808   7.584   3.106   3.634 -0.0680  0.9004 -0.5099
72626SOL    HW227809   7.735   3.111   3.642 -0.0111 -0.5698 -0.2634
72627SOL     OW27810   2.669   8.988   6.848 -0.3520 -0.1007  0.0900
72627SOL    HW127811   2.702   8.921   6.788 -1.0632 -1.5489  1.2584
72627SOL    HW227812   2.646   9.061   6.791  0.9185 -0.6225 -1.1754
72628SOL     OW27813   9.086   3.327   0.516  0.3961 -0.0017  0.6640
72628SOL    HW127814   9.005   3.297   0.474  0.2405 -1.0331  1.6525
72628SOL    HW227815   9.079   3.298   0.607  2.6593 -1.7659  0.3768
72629SOL     OW27816   2.756   3.504   0.161 -0.2208  0.0788 -0.6811
72629SOL    HW127817   2.792   3.426   0.118 -1.7660 -1.6642  1.0129
72629SOL    HW227818   2.745   3.478   0.252  1.4810  3.1423  0.5320
72630SOL     OW27819   9.395   8.807   8.078 -0.0622 -0.1569 -0.4878
72630SOL    HW127820   9.348   8.739   8.031 -0.6606 -0.3724  0.3988
72630SOL    HW227821   9.330   8.876   8.092 -0.4312 -0.8338  1.5287
72631SOL     OW27822  10.367   2.858   8.957  0.2752 -0.1982  0.4608
72631SOL    HW127823  10.366   2.767   8.929  2.0437  0.1055 -0.8000
72631SOL    HW227824  10.300   2.863   9.026  0.2168 -2.4520  0.6547
72632SOL     OW27825  13.284   1.166  12.149  0.4820  0.3669  0.0800
72632SOL    HW127826  13.348   1.207  12.091  1.1605 -0.4362  0.2381
72632SOL    HW227827  13.329   1.089  12.184  0.8392  1.8000  3.1363
72633SOL     OW27828  10.015   9.315   2.693 -0.2944  0.3750  0.0645
72633SOL    HW127829  10.083   9.378   2.715 -0.6491  0.6246  0.4710
72633SOL    HW227830   9.990   9.276   2.777  1.2363 -1.7086 -0.3598
72634SOL     OW27831   6.752   1.282   8.625  0.4343 -0.4577  0.3116
72634SOL    HW127832   6.761   1.353   8.561 -0.0771 -1.3138 -0.7433
72634SOL    HW227833   6.684   1.313   8.685 -0.1161 -0.2367 -0.4077
72635SOL     OW27834   6.225   9.123   5.595 -0.2044  0.1026 -0.1494
72635SOL    HW127835   6.215   9.028   5.591  1.1837 -0.0865  0.4039
72635SOL    HW227836   6.170   9.151   5.668 -0.0489 -0.3682  0.1465
72636SOL     OW27837   1.849   1.353   2.270 -0.0206 -1.0192 -0.2873
72636SOL    HW127838   1.789   1.290   2.233  0.0533 -2.2394  1.5314
72636SOL    HW227839   1.933   1.307   2.274  0.5301 -0.0857 -0.8360
72637SOL     OW27840   5.844  12.738   7.688 -0.4069  0.1828 -0.6836
72637SOL    HW127841   5.761  12.742   7.736 -0.1309 -0.2955 -0.1661
72637SOL    HW227842   5.911  12.751   7.756  0.0273 -1.4138 -0.7879
72638SOL     OW27843  10.917  10.299  12.643  0.3140 -0.4789 -0.1547
72638SOL    HW127844  10.917  10.243  12.566 -1.5211 -0.2242 -0.3914
72638SOL    HW227845  10.971  10.374  12.619  0.4056 -0.7701 -0.8874
72639SOL     OW27846   9.388  11.428   7.108 -0.7221 -0.4254  0.0600
72639SOL    HW127847   9.370  11.445   7.015  1.3483 -0.5787 -0.4197
72639SOL    HW227848   9.302  11.413   7.146 -1.7267  0.6947 -1.6109
72640SOL     OW27849   9.500   2.651   3.167  1.2248 -0.0053 -1.1806
72640SOL    HW127850   9.439   2.713   3.128 -0.2649 -0.6107  0.0785
72640SOL    HW227851   9.576   2.703   3.191 -0.0387  1.3795 -0.0343
72641SOL     OW27852   6.544  10.665   3.085  0.1570 -0.2765 -0.0604
72641SOL    HW127853   6.495  10.645   3.165  0.1006  0.9870  0.2440
72641SOL    HW227854   6.499  10.616   3.016 -0.4416 -0.5424  0.5147
72642SOL     OW27855   8.963   9.852   4.498  0.4672 -0.3953  0.0908
72642SOL    HW127856   8.896   9.845   4.430  1.0020 -2.8626 -0.2957
72642SOL    HW227857   8.923   9.907   4.565 -1.8020 -1.3941 -0.3380
72643SOL     OW27858   4.768   3.804  10.276  0.1098  0.4126  0.1162
72643SOL    HW127859   4.746   3.876  10.334 -0.1216  0.1766  0.3258
72643SOL    HW227860   4.765   3.726  10.332  3.2031  0.5190  0.6216
72644SOL     OW27861   0.297   8.669   5.830  0.3279  0.4008  0.0742
72644SOL    HW127862   0.343   8.594   5.866  0.3715 -0.3707 -1.4960
72644SOL    HW227863   0.210   8.665   5.869 -0.2376 -1.4942 -1.2476
72645SOL     OW27864   7.036   3.059   3.778  0.1409 -0.8393 -0.4296
72645SOL    HW127865   7.048   3.022   3.866  0.9471 -1.0478 -0.6213
72645SOL    HW227866   6.963   3.010   3.741  0.6192 -1.6340 -0.3481
72646SOL     OW27867   2.041   4.065  12.631  0.3229 -0.1223 -0.4661
72646SOL    HW127868   1.976   4.019  12.579  0.8188 -1.3132 -0.0556
72646SOL    HW227869   2.069   4.002  12.697  0.7744  0.8784  0.3288
72647SOL     OW27870   1.002   4.153  11.127 -0.5645  0.2749 -0.0228
72647SOL    HW127871   1.070   4.206  11.168 -1.6777  0.9374  1.0448
72647SOL    HW227872   0.928   4.159  11.187 -1.9276  0.4468 -1.6454
72648SOL     OW27873   4.070   7.189  11.891  0.0756 -0.1645  0.5676
72648SOL    HW127874   4.128   7.175  11.816 -0.1164 -0.9241  0.5530
72648SOL    HW227875   3.984   7.159  11.861 -0.4379  1.3520  0.4499
72649SOL     OW27876   9.997  10.248   5.244 -0.9429  0.1172 -0.3165
72649SOL    HW127877  10.022  10.305   5.171 -1.1006  2.0330  1.0464
72649SOL    HW227878  10.078  10.236   5.294 -1.1950  0.2886  0.1419
72650SOL     OW27879   5.003   3.716   4.023 -0.4244 -1.1204 -0.0196
72650SOL    HW127880   4.953   3.775   4.079 -1.7233 -1.2315 -1.0184
72650SOL    HW227881   5.094   3.737   4.043 -0.8355  0.7869  0.1104
72651SOL     OW27882   1.401   5.113   5.013 -0.3304 -0.0824  0.0905
72651SOL    HW127883   1.328   5.084   4.958 -0.3501 -0.1390  0.1459
72651SOL    HW227884   1.463   5.151   4.952 -0.7521  0.6846  0.1278
72652SOL     OW27885   2.118   9.141   9.338  0.9141 -0.5162 -0.3436
72652SOL    HW127886   2.071   9.179   9.412  0.2307 -1.4688 -0.2615
72652SOL    HW227887   2.172   9.071   9.377  0.3825 -1.1685 -0.7527
72653SOL     OW27888   6.950   6.637   2.327  0.2079 -0.2661 -0.2485
72653SOL    HW127889   7.009   6.609   2.397 -0.2861 -0.7568 -0.0237
72653SOL    HW227890   6.937   6.559   2.274  1.2955  0.3212 -1.4302
72654SOL     OW27891   9.454   7.150   7.632 -0.4460  0.1847  0.1977
72654SOL    HW127892   9.509   7.209   7.580 -3.9267  1.0039 -3.0038
72654SOL    HW227893   9.406   7.209   7.691  1.6213 -0.4919  2.7479
72655SOL     OW27894   2.923   3.982   5.889 -0.5047  0.1347  0.1017
72655SOL    HW127895   2.881   4.031   5.819  0.7823  1.0902 -0.0485
72655SOL    HW227896   2.852   3.938   5.934 -1.3766 -0.3911 -1.7071
72656SOL     OW27897   8.590   7.512   0.420  0.0462  0.1361 -0.6123
72656SOL    HW127898   8.654   7.450   0.386  0.4205  0.8796 -1.3079
72656SOL    HW227899   8.640   7.592   0.436 -0.2544  0.0187  1.1095
72657SOL     OW27900   0.751  11.351   8.358 -0.4710  0.2164 -0.3712
72657SOL    HW127901   0.727  11.431   8.311 -1.7745  0.9461  1.4292
72657SOL    HW227902   0.719  11.280   8.302 -0.8693  1.0059 -1.1638
72658SOL     OW27903  10.443  12.331   8.635  0.2002  0.3499 -0.1045
72658SOL    HW127904  10.361  12.378   8.619 -0.1313 -0.8390 -2.1764
72658SOL    HW227905  10.417  12.251   8.680  0.5497  1.1284  1.5633
72659SOL     OW27906   0.406  10.546  10.505 -0.1841  0.0429 -0.0265
72659SOL    HW127907   0.319  10.562  10.541 -0.4417  0.2089 -0.7278
72659SOL    HW227908   0.443  10.478  10.562 -0.2144  0.9787  1.1455
72660SOL     OW27909   1.711  10.172   5.286  0.1292  0.5857  0.2072
72660SOL    HW127910   1.792  10.222   5.285  1.1372 -0.9641  0.9825
72660SOL    HW227911   1.727  10.101   5.348 -1.4916 -0.3043 -0.3292
72661SOL     OW27912  11.939   0.799  10.322 -0.0497  0.1655 -0.2859
72661SOL    HW127913  11.852   0.760  10.319  0.1500 -0.2258 -1.6986
72661SOL    HW227914  11.999   0.725  10.314  0.4483  0.3564  1.4258
72662SOL     OW27915   0.801   4.760   6.982 -0.2545  0.5574  0.4018
72662SOL    HW127916   0.886   4.733   7.018 -1.0215 -0.0672  1.8304
72662SOL    HW227917   0.767   4.823   7.046 -0.2321  1.9485 -0.9127
72663SOL     OW27918   0.419   7.065  10.283  0.3554  0.0399 -0.0722
72663SOL    HW127919   0.389   7.112  10.361 -0.7267 -1.5733  0.5304
72663SOL    HW227920   0.446   7.134  10.223 -0.3626  1.3963  1.0928
72664SOL     OW27921   0.954   6.106   3.139 -0.0980  0.3631 -0.1683
72664SOL    HW127922   0.859   6.097   3.130 -0.0742  0.3574 -0.4482
72664SOL    HW227923   0.966   6.163   3.214 -0.2893 -0.7806  0.7598
72665SOL     OW27924   1.444   9.223   2.410  0.5825  0.5941  0.0344
72665SOL    HW127925   1.399   9.172   2.477  1.3964 -0.3821 -0.1172
72665SOL    HW227926   1.525   9.252   2.452  0.9586  0.2257 -0.4192
72666SOL     OW27927   7.801   4.280   3.906 -0.2297  0.3269 -0.7884
72666SOL    HW127928   7.766   4.332   3.978 -0.6721 -0.6735 -0.2650
72666SOL    HW227929   7.893   4.267   3.929 -0.5492 -0.6472  0.0211
72667SOL     OW27930  11.108   6.936   7.631  0.2940 -0.1057  0.3734
72667SOL    HW127931  11.166   6.923   7.707 -0.1849 -1.9783  0.4619
72667SOL    HW227932  11.020   6.936   7.668  0.1228  0.6607 -0.0109
72668SOL     OW27933   1.272   0.524   1.926  0.1057  0.2327 -0.2838
72668SOL    HW127934   1.325   0.586   1.878  0.2957  1.7554  1.7649
72668SOL    HW227935   1.194   0.510   1.871  0.3381  1.8099 -1.0528
72669SOL     OW27936   1.460  12.349   3.156 -0.0045  0.3333  0.5657
72669SOL    HW127937   1.491  12.414   3.220  0.4374  0.1941  0.4981
72669SOL    HW227938   1.395  12.298   3.203  0.8522 -0.2575  1.1510
72670SOL     OW27939  10.855  10.667   8.855 -0.3065  0.6008  0.1927
72670SOL    HW127940  10.864  10.733   8.924 -1.6649  1.6894 -0.6077
72670SOL    HW227941  10.865  10.717   8.774  0.0373 -0.4386 -0.4159
72671SOL     OW27942   4.312   2.070   7.807  0.3961 -0.1705 -0.2575
72671SOL    HW127943   4.366   2.007   7.759 -0.0822 -0.3456 -0.5735
72671SOL    HW227944   4.249   2.016   7.855  0.3791  0.0408 -0.0406
72672SOL     OW27945   3.514  13.023   3.320  0.3163  0.2336  0.3040
72672SOL    HW127946   3.428  13.030   3.279  0.7032 -0.7268 -0.7139
72672SOL    HW227947   3.544  13.114   3.328  1.2494  0.4843 -3.8419
72673SOL     OW27948  12.555   7.731   4.650  0.3431 -0.0814  0.0070
72673SOL    HW127949  12.628   7.738   4.711 -0.1222  0.0494  0.5484
72673SOL    HW227950  12.576   7.793   4.580  0.1745  0.8296  0.7492
72674SOL     OW27951  11.532   7.789  11.376  0.0124 -0.0003 -0.4400
72674SOL    HW127952  11.567   7.837  11.451 -1.0331 -1.3865  0.9989
72674SOL    HW227953  11.450   7.835  11.355  1.3339  1.7104 -2.1996
72675SOL     OW27954   9.603   7.876   9.710  0.3807 -0.0789 -0.0828
72675SOL    HW127955   9.540   7.890   9.640  0.9316 -2.9118 -1.2592
72675SOL    HW227956   9.560   7.815   9.769  0.9363  0.2521  0.6880
72676SOL     OW27957   6.265  10.768   8.016  0.1762 -0.3100 -0.2966
72676SOL    HW127958   6.201  10.839   8.023 -0.1070 -0.4827 -1.1211
72676SOL    HW227959   6.215  10.694   7.983  0.6302 -0.6910 -0.1377
72677SOL     OW27960   4.276   5.151   9.490 -0.1473 -0.1157 -0.9892
72677SOL    HW127961   4.212   5.080   9.496  0.1091 -0.2424  0.7907
72677SOL    HW227962   4.224   5.228   9.466 -0.6046 -0.6551 -1.7748
72678SOL     OW27963   1.750   3.927   5.267 -0.4527  0.5575  0.0616
72678SOL    HW127964   1.804   3.895   5.339 -2.2984 -0.5263  1.0624
72678SOL    HW227965   1.801   3.909   5.188  1.8146  2.1522  1.0445
72679SOL     OW27966  12.418  13.170   2.819 -0.1529  0.1547  0.8282
72679SOL    HW127967  12.424  13.248   2.764 -0.3204  0.9106  1.8430
72679SOL    HW227968  12.473  13.105   2.775  0.5985  1.0841  0.3536
72680SOL     OW27969   0.662   9.081   0.443 -0.4713  0.1276  0.4205
72680SOL    HW127970   0.618   9.162   0.469  1.4613  1.8194 -1.3498
72680SOL    HW227971   0.609   9.047   0.371  1.4910  2.7607 -2.4826
72681SOL     OW27972  11.706   1.529   0.720 -0.6805  0.0074 -0.2365
72681SOL    HW127973  11.673   1.604   0.768 -0.1858  0.0880 -0.0182
72681SOL    HW227974  11.801   1.539   0.721 -0.6220 -0.4626 -0.4610
72682SOL     OW27975   0.898   7.686   5.963 -0.0258  0.1927 -0.1436
72682SOL    HW127976   0.860   7.734   6.036  1.0225  0.4191  0.2660
72682SOL    HW227977   0.954   7.620   6.004 -1.0200 -1.0643 -0.7060
72683SOL     OW27978   7.338   0.049   0.704  0.4101  0.2480 -0.6396
72683SOL    HW127979   7.310  -0.037   0.675  1.8367 -0.2256 -0.6711
72683SOL    HW227980   7.352   0.039   0.799  2.5673 -0.1616 -0.9526
72684SOL     OW27981   0.373  10.697   5.111 -0.2906  0.0858  0.8901
72684SOL    HW127982   0.284  10.712   5.143  0.6679 -1.4728  4.8248
72684SOL    HW227983   0.386  10.603   5.121  2.2364  0.4678  1.9353
72685SOL     OW27984   8.232   6.357   2.875  0.5199 -0.5014 -0.1601
72685SOL    HW127985   8.150   6.354   2.924  0.7673  0.1499  0.3113
72685SOL    HW227986   8.232   6.277   2.823 -0.7519 -0.1665 -0.7151
72686SOL     OW27987  12.647   2.343  12.061 -0.4071 -0.0797  0.1859
72686SOL    HW127988  12.644   2.248  12.048 -1.9938  0.2185 -2.2860
72686SOL    HW227989  12.733   2.369  12.027  0.0250 -0.6116  0.8484
72687SOL     OW27990  13.214   1.719   1.343  0.0294 -0.5953  0.2688
72687SOL    HW127991  13.301   1.707   1.305 -0.4127  0.5804 -1.2202
72687SOL    HW227992  13.153   1.686   1.276 -0.7310  0.1070  0.5942
72688SOL     OW27993  12.508  10.997   8.841 -0.4394 -0.8282  0.4117
72688SOL    HW127994  12.422  11.028   8.815 -0.1813 -1.0515 -0.7405
72688SOL    HW227995  12.504  10.902   8.833  0.2056 -0.7844 -0.6216
72689SOL     OW27996  12.165   6.327   6.091  0.0824  0.6739  0.1294
72689SOL    HW127997  12.081   6.337   6.137 -1.5091  1.4280 -2.7175
72689SOL    HW227998  12.165   6.237   6.061  0.0786  0.8100 -0.2775
72690SOL     OW27999   6.479   9.576   7.667 -0.4059  0.0826 -0.7478
72690SOL    HW128000   6.460   9.627   7.589 -1.6269  0.4209 -0.2466
72690SOL    HW228001   6.499   9.641   7.735 -3.3394  0.0492  0.2630
72691SOL     OW28002   3.137   7.968   5.131  0.0762  0.0941 -0.3727
72691SOL    HW128003   3.221   7.967   5.177 -0.9744 -0.0343  1.6674
72691SOL    HW228004   3.083   7.907   5.180 -0.6185 -1.5203 -2.9269
72692SOL     OW28005   7.687   7.357   6.548  0.6250 -0.1956  0.2357
72692SOL    HW128006   7.612   7.299   6.557  0.5975 -0.1839  0.0901
72692SOL    HW228007   7.724   7.336   6.462  1.1318 -0.5987  0.5476
72693SOL     OW28008   8.687   7.838   9.309 -0.2693  0.1391  0.4316
72693SOL    HW128009   8.710   7.804   9.396 -0.3862  1.7530  1.1374
72693SOL    HW228010   8.619   7.904   9.327 -1.0611 -0.2486 -1.0086
72694SOL     OW28011   5.101   8.418  10.771  0.7359 -0.2590 -0.0810
72694SOL    HW128012   5.146   8.367  10.839  2.5751  1.2227 -0.1033
72694SOL    HW228013   5.168   8.433  10.705  0.1049  1.7176 -0.3223
72695SOL     OW28014  10.956  12.602   3.473  0.0586 -0.1290 -0.1794
72695SOL    HW128015  11.043  12.599   3.433  0.5690  0.6288  0.8258
72695SOL    HW228016  10.944  12.694   3.498 -0.8367 -0.3180  0.1178
72696SOL     OW28017   3.693   5.106   9.783  0.0278  0.2057 -0.0252
72696SOL    HW128018   3.716   5.176   9.722 -1.8803  0.3413 -0.6625
72696SOL    HW228019   3.723   5.026   9.740 -0.8998  0.3450 -0.9582
72697SOL     OW28020   4.223   7.601   2.029  0.0202  0.2562  0.4560
72697SOL    HW128021   4.192   7.688   2.055  1.2592  0.7394  0.3870
72697SOL    HW228022   4.193   7.591   1.939  1.9660  1.6923 -0.4181
72698SOL     OW28023   1.098   7.646   8.590  0.4924 -0.0693 -0.0977
72698SOL    HW128024   1.175   7.627   8.644  0.1257 -0.5500  0.2613
72698SOL    HW228025   1.023   7.621   8.645 -0.0245  2.2004  0.3309
72699SOL     OW28026   9.202   7.286   4.262 -0.2190  0.0304 -0.0554
72699SOL    HW128027   9.277   7.320   4.213 -1.3156  1.4237 -0.8366
72699SOL    HW228028   9.225   7.302   4.354 -0.0629  1.5893 -0.3397
72700SOL     OW28029   2.832  11.018   4.669 -0.5128  0.0082 -0.2889
72700SOL    HW128030   2.788  11.089   4.717 -0.2177 -0.3380  0.5204
72700SOL    HW228031   2.809  11.033   4.578 -2.4791 -0.2779  0.1027
72701SOL     OW28032  12.483  12.939   8.986 -0.2497 -0.1134  0.4530
72701SOL    HW128033  12.411  13.001   8.972  1.3434  1.6672 -0.2198
72701SOL    HW228034  12.468  12.870   8.921 -1.5680 -0.0013  0.6190
72702SOL     OW28035  11.811  10.916   8.163 -0.3951  0.7069 -0.0501
72702SOL    HW128036  11.892  10.955   8.196  0.6511  0.2203 -1.9141
72702SOL    HW228037  11.822  10.915   8.068 -2.7096  0.8448 -0.3703
72703SOL     OW28038   5.346  12.109  13.261 -0.2352 -0.4126  0.4352
72703SOL    HW128039   5.389  12.026  13.281  1.6955  0.2334 -0.7388
72703SOL    HW228040   5.260  12.103  13.303 -0.8556 -3.6746 -1.0207
72704SOL     OW28041  10.536  10.420  10.305 -0.7625 -0.0681 -0.0522
72704SOL    HW128042  10.495  10.503  10.279 -0.7721  0.3005  1.1182
72704SOL    HW228043  10.621  10.421  10.262 -1.1349  0.1140 -0.8040
72705SOL     OW28044   4.960   8.114   6.582 -0.0886 -0.2165  0.2475
72705SOL    HW128045   4.983   8.192   6.633  2.5375 -0.5429 -0.2576
72705SOL    HW228046   4.940   8.148   6.494 -2.7497  0.1688  0.9317
72706SOL     OW28047  10.955   0.170  12.564 -0.4803 -0.8479  0.6068
72706SOL    HW128048  11.011   0.226  12.511  0.1364 -2.2533 -0.3086
72706SOL    HW228049  11.004   0.087  12.571 -1.3938 -1.3238  1.8034
72707SOL     OW28050   1.959   5.736   6.587  0.0773  0.2503  0.4439
72707SOL    HW128051   1.880   5.788   6.594 -0.4662 -0.3716 -0.7907
72707SOL    HW228052   1.982   5.714   6.677 -0.0518  2.0409  0.9303
72708SOL     OW28053  11.217   7.560   3.367 -0.0250  0.1307 -0.2478
72708SOL    HW128054  11.171   7.632   3.410 -2.3676 -1.1983 -0.3438
72708SOL    HW228055  11.224   7.588   3.275  0.3525  0.8068 -0.0224
72709SOL     OW28056   3.485  12.797  10.158 -0.6905 -0.3989 -0.2124
72709SOL    HW128057   3.497  12.834  10.245 -1.2480 -1.4424  0.3309
72709SOL    HW228058   3.447  12.868  10.106  0.0010  0.3524  0.2784
72710SOL     OW28059   8.246   8.564  11.782 -0.1758  0.4023  0.5960
72710SOL    HW128060   8.323   8.512  11.804  0.3017 -0.2323 -2.1521
72710SOL    HW228061   8.174   8.502  11.780 -0.1001  0.3237 -0.0823
72711SOL     OW28062  10.793   6.974   7.702 -0.5793 -0.1212  0.1558
72711SOL    HW128063  10.754   7.026   7.632  0.1748  1.1328  0.6494
72711SOL    HW228064  10.750   7.005   7.782 -0.2773 -0.4172  0.4371
72712SOL     OW28065   7.250   2.369  12.811  0.1679  0.2399  0.2188
72712SOL    HW128066   7.253   2.325  12.896 -0.4077 -1.2337 -0.4867
72712SOL    HW228067   7.214   2.456  12.829 -0.8745 -0.4063  1.3488
72713SOL     OW28068   1.548  11.331  11.987  0.9399 -0.1940  0.3067
72713SOL    HW128069   1.626  11.333  12.043  1.2125 -1.3357 -0.0172
72713SOL    HW228070   1.492  11.264  12.026  1.3377 -1.3490 -1.0443
72714SOL     OW28071   8.801   1.678   1.725 -0.0170  0.2403 -1.0746
72714SOL    HW128072   8.775   1.661   1.635 -0.5767 -1.9798 -0.5624
72714SOL    HW228073   8.719   1.673   1.775  0.3586  0.8796 -0.3730
72715SOL     OW28074  12.330   7.838   6.671 -0.2931 -0.5558  0.1725
72715SOL    HW128075  12.364   7.895   6.741  0.7596 -2.3161  1.1765
72715SOL    HW228076  12.389   7.853   6.598 -1.7603  1.7614 -0.6592
72716SOL     OW28077  11.259  11.194   0.614  0.7457  0.2235 -0.1322
72716SOL    HW128078  11.318  11.234   0.678  2.2008 -1.8494 -0.0637
72716SOL    HW228079  11.178  11.179   0.663  0.7286  1.4957  0.2849
72717SOL     OW28080   2.058  10.776   5.100 -0.6112  0.0494 -0.0756
72717SOL    HW128081   2.128  10.715   5.074 -0.3339 -0.7524  2.2809
72717SOL    HW228082   2.083  10.859   5.060  0.1898 -0.8581 -1.5654
72718SOL     OW28083   1.444   8.242   5.630  0.0584  0.2776 -0.1164
72718SOL    HW128084   1.395   8.261   5.709  0.0410  0.0759 -0.0780
72718SOL    HW228085   1.440   8.323   5.579 -0.4855  0.1996 -0.2044
72719SOL     OW28086   4.423   7.116   0.517 -0.2557 -0.1410  0.3166
72719SOL    HW128087   4.403   7.209   0.511  1.5048  0.2571  0.0410
72719SOL    HW228088   4.410   7.083   0.429 -1.4814 -0.2978  0.5492
72720SOL     OW28089   7.858   6.583   9.042 -0.0786 -0.3669 -0.0417
72720SOL    HW128090   7.896   6.498   9.062 -1.6631 -0.7341  1.6254
72720SOL    HW228091   7.764   6.569   9.046 -0.3777  1.5083  0.4679
72721SOL     OW28092   2.150   9.483   0.801  0.0634 -0.4659  0.5912
72721SOL    HW128093   2.233   9.475   0.849  0.3091 -0.6958  0.1380
72721SOL    HW228094   2.131   9.577   0.802  1.7067 -0.0085 -1.5263
72722SOL     OW28095   8.838  13.261   3.780 -0.4707  0.1879 -0.0307
72722SOL    HW128096   8.748  13.245   3.753 -0.8340 -0.0802  1.2991
72722SOL    HW228097   8.868  13.330   3.720 -0.9284 -0.9975 -1.6927
72723SOL     OW28098   7.484  10.038   0.356  0.1635  0.4278 -0.2310
72723SOL    HW128099   7.435  10.088   0.423 -0.5035 -0.2569 -0.1930
72723SOL    HW228100   7.575  10.066   0.367 -0.5140  4.0519 -2.2861
72724SOL     OW28101  10.642  10.628   5.603  0.3825  0.1111 -0.1964
72724SOL    HW128102  10.712  10.675   5.649  0.4264  1.1904 -1.3009
72724SOL    HW228103  10.610  10.564   5.667  2.6924 -0.7610  0.1749
72725SOL     OW28104   3.036   9.668  12.940  0.0427  0.0537  0.1547
72725SOL    HW128105   3.003   9.743  12.990 -0.0363  1.2742 -1.6074
72725SOL    HW228106   3.072   9.707  12.860  1.1761 -1.7006 -0.2567
72726SOL     OW28107  10.174   7.726   8.496  0.5453 -0.1360  0.9846
72726SOL    HW128108  10.233   7.732   8.572  1.4158 -0.3702  0.3416
72726SOL    HW228109  10.125   7.808   8.498  0.7797 -0.0043  1.6246
72727SOL     OW28110   1.850   8.180   5.054 -0.2586 -0.2632  0.0901
72727SOL    HW128111   1.845   8.091   5.090  0.0558  0.0951  1.0342
72727SOL    HW228112   1.940   8.207   5.068 -0.3162  0.1629 -0.3243
72728SOL     OW28113   3.167   8.648  10.908  0.1146  0.6253 -0.0294
72728SOL    HW128114   3.172   8.739  10.936 -0.8823  0.5330  0.5377
72728SOL    HW228115   3.255   8.626  10.881  0.9998  1.0074  2.2730
72729SOL     OW28116   4.044   4.493  10.737 -0.7640  0.2055 -0.5365
72729SOL    HW128117   3.949   4.494  10.749 -0.5347  1.2249  1.5783
72729SOL    HW228118   4.080   4.488  10.825  1.1540  1.4472 -1.1863
72730SOL     OW28119   9.754   8.991  10.643  0.3047 -0.4402  0.3915
72730SOL    HW128120   9.666   8.960  10.626 -0.0992  0.9074 -0.0549
72730SOL    HW228121   9.810   8.940  10.584 -0.1326 -1.4359  0.8216
72731SOL     OW28122   7.172  12.251  12.137 -0.1756  0.1884 -0.0257
72731SOL    HW128123   7.234  12.204  12.194 -0.7759 -2.1402 -1.1602
72731SOL    HW228124   7.090  12.250  12.186 -0.6058 -1.5154 -0.6954
72732SOL     OW28125   5.804   7.036   7.780  0.1094 -0.0026 -0.5938
72732SOL    HW128126   5.802   7.111   7.839 -0.0271 -0.6248  0.2097
72732SOL    HW228127   5.746   6.972   7.821  0.7062 -0.7844 -0.9524
72733SOL     OW28128   7.117   7.935   5.204 -0.3241  0.8685 -0.0823
72733SOL    HW128129   7.048   7.993   5.172 -0.3676  0.9876  0.2169
72733SOL    HW228130   7.195   7.990   5.206 -0.3121  0.8494 -0.0283
72734SOL     OW28131   7.941  12.291  13.047  0.3316  0.7212  0.1911
72734SOL    HW128132   7.873  12.269  13.111  1.7696  0.3358  1.6411
72734SOL    HW228133   8.020  12.303  13.099  1.4754  0.7943 -1.4937
72735SOL     OW28134  11.802  11.624  12.404  0.9039  0.6029  0.0196
72735SOL    HW128135  11.746  11.638  12.481  1.0595  0.7799  0.1026
72735SOL    HW228136  11.806  11.710  12.362 -1.6037 -0.0601 -1.8605
72736SOL     OW28137   3.508   1.623   1.117 -0.3313 -0.0945  0.1574
72736SOL    HW128138   3.436   1.635   1.056 -1.1135  1.3257  1.2769
72736SOL    HW228139   3.536   1.712   1.138  0.4792 -0.5725  1.2060
72737SOL     OW28140  12.437   6.965   8.449 -0.0594  0.5590  0.3961
72737SOL    HW128141  12.518   6.932   8.410 -0.5371 -2.0543  1.4227
72737SOL    HW228142  12.385   6.995   8.374  1.3659  1.2774 -0.3641
72738SOL     OW28143   3.012   6.039   7.668 -0.3426  0.0282 -0.1683
72738SOL    HW128144   3.022   6.051   7.763  0.5447 -0.3133 -0.2046
72738SOL    HW228145   2.957   5.961   7.660 -1.6089  0.8650  0.0532
72739SOL     OW28146   2.849   4.769  11.666  0.6882 -0.0890  0.0237
72739SOL    HW128147   2.893   4.725  11.740 -0.2691 -0.1843  0.5584
72739SOL    HW228148   2.917   4.822  11.626  1.0814  0.4986  1.4008
72740SOL     OW28149   0.905  13.063  11.820  0.3551  0.1673 -0.2097
72740SOL    HW128150   1.000  13.070  11.821  0.3797  0.1393  2.0100
72740SOL    HW228151   0.876  13.102  11.903 -1.5040 -0.4953 -0.4823
72741SOL     OW28152   7.636   6.665   8.496  0.2305  0.5737 -0.0187
72741SOL    HW128153   7.597   6.745   8.532  0.5105  1.4860 -1.6632
72741SOL    HW228154   7.720   6.693   8.460 -0.1931 -0.1900 -1.6988
72742SOL     OW28155   8.835   7.596   3.477 -0.0329 -0.0325 -0.0502
72742SOL    HW128156   8.849   7.523   3.418  0.1888  0.0674 -0.1210
72742SOL    HW228157   8.863   7.563   3.563  1.4031  0.4104 -0.3174
72743SOL     OW28158   0.271  12.502   0.105  0.3513 -0.4724  0.7262
72743SOL    HW128159   0.235  12.433   0.048 -1.4377  0.7223  0.3067
72743SOL    HW228160   0.330  12.456   0.164 -1.6657 -2.6019  1.2593
72744SOL     OW28161   5.072   3.628  12.806  0.0827  0.0244  0.6181
72744SOL    HW128162   5.044   3.700  12.749 -0.5700  1.1250  2.2770
72744SOL    HW228163   4.991   3.582  12.827  0.3748 -0.6180  0.3729
72745SOL     OW28164   7.493  13.131  13.030  0.5047  0.3560 -0.3139
72745SOL    HW128165   7.401  13.109  13.017 -0.2373  2.1096  1.3915
72745SOL    HW228166   7.541  13.053  13.001 -1.4873 -0.5633 -1.3278
72746SOL     OW28167  11.558   5.929   6.443  0.2080  0.2582 -1.0355
72746SOL    HW128168  11.646   5.900   6.465 -0.1878  0.9371  1.7907
72746SOL    HW228169  11.556   6.021   6.470 -2.1452 -0.4781  1.8224
72747SOL     OW28170   8.221   5.206   0.580 -0.0470  0.0600  0.7450
72747SOL    HW128171   8.292   5.259   0.616 -1.2184  2.0020  0.3261
72747SOL    HW228172   8.182   5.261   0.512  1.7298 -3.2029 -3.3316
72748SOL     OW28173   3.689  11.306  12.835  0.5510 -0.4979 -0.7105
72748SOL    HW128174   3.770  11.350  12.859  0.4627 -1.1072  0.7845
72748SOL    HW228175   3.625  11.376  12.823  0.4256 -0.1534  1.5854
72749SOL     OW28176   5.250   7.218   6.882  0.9606  0.4587  0.6097
72749SOL    HW128177   5.331   7.167   6.875  1.4323  1.4362 -2.6258
72749SOL    HW228178   5.199   7.192   6.806 -0.2068  2.4145  0.6646
72750SOL     OW28179   0.693   8.252   4.805 -0.8413 -0.1964  0.0089
72750SOL    HW128180   0.671   8.251   4.712  0.3151 -0.8226 -0.2716
72750SOL    HW228181   0.610   8.233   4.850 -1.1137 -1.3891 -0.9520
72751SOL     OW28182   7.079   7.520  11.213  0.8105  0.8306  0.0993
72751SOL    HW128183   7.122   7.440  11.245 -2.1451 -0.7549  0.5371
72751SOL    HW228184   7.049   7.497  11.125 -2.2594  0.3653  1.1207
72752SOL     OW28185   2.904   2.505   7.015  0.4463 -0.2556  0.1416
72752SOL    HW128186   2.810   2.486   7.015  0.4679 -0.3661 -0.4082
72752SOL    HW228187   2.946   2.419   7.017  0.5570 -0.2179  2.8046
72753SOL     OW28188   5.296   6.155   3.595 -0.1072 -0.2865 -0.2651
72753SOL    HW128189   5.243   6.209   3.536 -0.1571  1.3965  1.2325
72753SOL    HW228190   5.326   6.082   3.541 -2.3449 -0.2679 -1.6736
72754SOL     OW28191   3.624   9.102   8.249  0.2323  0.0759 -0.0894
72754SOL    HW128192   3.630   9.187   8.294 -1.5776 -0.2825  0.9294
72754SOL    HW228193   3.695   9.050   8.286  0.6419  0.7657  0.1188
72755SOL     OW28194   4.523  13.233   3.309 -0.8712  0.2734 -0.4883
72755SOL    HW128195   4.432  13.215   3.335 -0.6786 -0.8856 -0.5460
72755SOL    HW228196   4.532  13.328   3.317 -1.4260  0.2013  1.7187
72756SOL     OW28197   1.737   4.872  11.613 -0.4150  0.1566 -0.3720
72756SOL    HW128198   1.796   4.840  11.681 -0.1649  2.7438  0.7185
72756SOL    HW228199   1.724   4.796  11.556  0.8354 -1.5859  1.5051
72757SOL     OW28200  11.522   4.183  13.277 -0.2818 -0.3523 -0.0162
72757SOL    HW128201  11.584   4.255  13.289  0.7757 -1.3080  0.4802
72757SOL    HW228202  11.481   4.173  13.363 -1.2452  0.3449 -0.3690
72758SOL     OW28203   5.592   9.005   3.233 -0.2625 -0.1679 -0.5567
72758SOL    HW128204   5.645   8.925   3.233  2.4118  1.4808 -0.6491
72758SOL    HW228205   5.582   9.027   3.140 -0.5589 -0.1048 -0.5121
72759SOL     OW28206   2.619   5.195   6.048 -0.7041 -0.0236 -0.1202
72759SOL    HW128207   2.576   5.257   6.108  0.2044  1.3651 -0.8454
72759SOL    HW228208   2.679   5.146   6.103 -0.4545  0.6943  0.2643
72760SOL     OW28209   7.838  13.178   6.832  0.2740 -0.1231 -0.3885
72760SOL    HW128210   7.758  13.184   6.779 -0.5985  0.2791  0.9269
72760SOL    HW228211   7.880  13.263   6.821 -1.2968  0.9926  1.6382
72761SOL     OW28212   7.387  11.649   3.697 -0.3826  0.2395 -0.0054
72761SOL    HW128213   7.453  11.692   3.642 -1.0663 -0.3714 -1.3607
72761SOL    HW228214   7.324  11.718   3.716 -1.6731 -0.1208 -2.4858
72762SOL     OW28215   8.402  10.470   6.622 -0.1914 -0.0539 -0.0047
72762SOL    HW128216   8.380  10.485   6.530 -1.8291 -0.4825  0.2737
72762SOL    HW228217   8.459  10.394   6.621 -0.8838 -0.5836 -0.6293
72763SOL     OW28218   1.476  13.142   2.121  0.3472 -0.4599 -0.5003
72763SOL    HW128219   1.452  13.194   2.197  0.9161 -1.2182  0.2231
72763SOL    HW228220   1.572  13.142   2.120  0.3509 -0.5345 -1.1633
72764SOL     OW28221   8.416   2.162   1.914 -0.0690  0.1798  0.1620
72764SOL    HW128222   8.492   2.220   1.925 -1.4794  1.9948  0.8614
72764SOL    HW228223   8.450   2.074   1.932  1.4126  1.1824  2.8635
72765SOL     OW28224  11.592   0.647   2.105  0.4653  0.2656  0.2877
72765SOL    HW128225  11.655   0.578   2.124  0.8646  0.5977  0.1819
72765SOL    HW228226  11.507   0.604   2.111  0.7621 -0.7090 -1.6936
72766SOL     OW28227   0.253   5.597   9.501 -0.6004 -0.2909  0.4001
72766SOL    HW128228   0.294   5.628   9.583 -0.3232 -2.3937  1.1043
72766SOL    HW228229   0.163   5.576   9.526 -1.1852  1.1338 -0.3868
72767SOL     OW28230   6.649   8.520  10.939 -0.0441 -0.4674  0.4822
72767SOL    HW128231   6.599   8.518  11.020  1.9629  1.0943  1.8794
72767SOL    HW228232   6.625   8.603  10.897  0.8016 -0.0368  0.8179
72768SOL     OW28233  10.691  13.221   3.372  0.2847  0.5291  0.3154
72768SOL    HW128234  10.713  13.285   3.439 -0.0551 -0.1945  1.1423
72768SOL    HW228235  10.763  13.157   3.375  0.9182  1.1499 -0.8982
72769SOL     OW28236  12.576   5.312   3.752 -0.0355  0.4518 -0.2053
72769SOL    HW128237  12.617   5.291   3.668  0.3360 -0.5071  0.2078
72769SOL    HW228238  12.575   5.408   3.754  1.2228  0.4974 -0.6927
72770SOL     OW28239   7.463   9.462   4.447 -0.8102 -0.0841  0.9002
72770SOL    HW128240   7.512   9.426   4.522  2.0671 -0.1330 -0.8588
72770SOL    HW228241   7.499   9.550   4.435 -0.8332 -0.2615 -0.6929
72771SOL     OW28242   6.942   2.890  11.185 -0.9378 -0.1587  0.0605
72771SOL    HW128243   6.849   2.881  11.161 -0.9963  0.0450  0.2136
72771SOL    HW228244   6.941   2.940  11.266 -0.6644  0.3082 -0.2234
72772SOL     OW28245   6.789   9.812   4.504  0.1315  0.1624 -0.4310
72772SOL    HW128246   6.740   9.731   4.490 -1.1396  0.8135  0.0875
72772SOL    HW228247   6.738   9.860   4.568  2.1466  0.3242  1.1635
72773SOL     OW28248   0.295   8.251   1.359  0.4968  0.2142  0.2980
72773SOL    HW128249   0.327   8.161   1.349 -0.5685  0.0775 -3.2947
72773SOL    HW228250   0.262   8.274   1.272 -1.3552  3.3029  1.6655
72774SOL     OW28251  12.053   8.841   6.240 -0.3661 -0.4638 -0.4009
72774SOL    HW128252  12.133   8.815   6.195 -1.0421 -2.4733 -0.5714
72774SOL    HW228253  12.059   8.799   6.326 -1.7446 -1.7244 -0.8679
72775SOL     OW28254   8.570   9.555   5.768  0.2218 -0.0045  0.4846
72775SOL    HW128255   8.643   9.588   5.820 -0.2097  0.3846  0.8531
72775SOL    HW228256   8.551   9.468   5.805  1.9637 -1.1178 -1.0891
72776SOL     OW28257  10.331   8.473   4.399 -0.0045  0.1523 -0.6841
72776SOL    HW128258  10.395   8.542   4.383 -0.0665  0.8520  1.7312
72776SOL    HW228259  10.380   8.404   4.443 -0.6394  0.1849  0.1065
72777SOL     OW28260  10.783   4.124   2.708 -0.0474 -0.3912  0.3781
72777SOL    HW128261  10.856   4.074   2.669  0.0074 -0.1099  0.1100
72777SOL    HW228262  10.714   4.059   2.721 -0.9537 -0.1396 -2.3914
72778SOL     OW28263   0.397  10.763   2.841  0.3817 -0.2583  0.1938
72778SOL    HW128264   0.402  10.802   2.754  1.1068  0.0537  0.3666
72778SOL    HW228265   0.486  10.771   2.876 -0.1579  0.6572  1.4167
72779SOL     OW28266   1.139   7.887  11.406  0.6645  0.4266 -0.2747
72779SOL    HW128267   1.176   7.975  11.407  1.6437  0.0254  0.0700
72779SOL    HW228268   1.070   7.889  11.473  0.2192  1.1155 -0.7505
72780SOL     OW28269  12.439  12.978   4.495  0.3717  0.0592  0.6700
72780SOL    HW128270  12.399  12.898   4.532  0.4151  0.7625  2.3025
72780SOL    HW228271  12.533  12.966   4.508  0.3518  0.5425  1.2944
72781SOL     OW28272  12.953  12.004   0.169 -0.2849  0.7539  0.2094
72781SOL    HW128273  12.972  12.084   0.217  2.3967 -1.1669  2.7585
72781SOL    HW228274  12.885  11.961   0.220  0.9796 -0.2563  1.1228
72782SOL     OW28275   7.050  11.784  12.178  0.0989  0.5444  0.0587
72782SOL    HW128276   6.957  11.796  12.198  0.1052  0.4143  0.1674
72782SOL    HW228277   7.051  11.749  12.088  0.0526  0.7437 -0.0196
72783SOL     OW28278   4.378   4.104   3.849 -0.3880 -0.1067  0.3407
72783SOL    HW128279   4.334   4.077   3.930 -0.5195  0.2716  0.4005
72783SOL    HW228280   4.471   4.091   3.867 -0.0929  3.0478  1.8042
72784SOL     OW28281   2.450   1.521   3.097  0.1338 -0.2020 -0.5038
72784SOL    HW128282   2.417   1.433   3.080 -2.6236  0.5642  0.3350
72784SOL    HW228283   2.373   1.577   3.086  1.7859  2.1145 -0.9193
72785SOL     OW28284   1.638   7.499   6.424  0.0425  0.3341  0.2584
72785SOL    HW128285   1.581   7.557   6.374 -0.7172 -0.9577 -0.4143
72785SOL    HW228286   1.676   7.556   6.491 -0.5472  1.6392 -0.4649
72786SOL     OW28287   6.758   0.264   3.737  0.0725  0.5647 -0.3043
72786SOL    HW128288   6.757   0.193   3.801 -0.7045  1.1456  0.3653
72786SOL    HW228289   6.672   0.306   3.747  1.0004  2.4768  0.3542
72787SOL     OW28290   9.786   6.218   0.482 -0.4299  0.8272  0.1676
72787SOL    HW128291   9.804   6.129   0.452 -1.0438  1.4306 -2.2124
72787SOL    HW228292   9.834   6.226   0.564  0.9314 -1.1685 -0.3643
72788SOL     OW28293   3.437  12.708   6.794  0.2163  0.3917 -0.0424
72788SOL    HW128294   3.384  12.787   6.798 -0.6842 -0.2252  2.5660
72788SOL    HW228295   3.374  12.637   6.783  0.7620 -0.1417  0.2033
72789SOL     OW28296   7.276   0.935   6.323 -0.1544  0.1415 -0.1178
72789SOL    HW128297   7.266   1.006   6.260  1.3199  0.1290 -0.4134
72789SOL    HW228298   7.246   0.857   6.276  0.6351  0.1827 -0.7269
72790SOL     OW28299  13.261  11.220   6.686  0.2419  0.1233  0.5172
72790SOL    HW128300  13.206  11.142   6.697  0.3474 -0.1618 -0.7526
72790SOL    HW228301  13.266  11.231   6.591  2.0125  0.4086  0.6197
72791SOL     OW28302   2.282   4.401   6.562 -0.5278 -0.2023  0.0060
72791SOL    HW128303   2.309   4.485   6.526  3.0819 -2.3769 -3.2402
72791SOL    HW228304   2.348   4.382   6.629 -0.2580 -1.0647 -0.4766
72792SOL     OW28305   1.424   3.586   6.658  0.3605 -0.1697 -0.2232
72792SOL    HW128306   1.365   3.657   6.633  0.7579 -0.1639 -1.2100
72792SOL    HW228307   1.401   3.566   6.749 -0.6683  0.3097 -0.3623
72793SOL     OW28308   1.332   5.782   6.518 -0.1930  0.0786  0.3212
72793SOL    HW128309   1.289   5.791   6.603  2.2123 -0.6186  1.6977
72793SOL    HW228310   1.315   5.865   6.473 -1.7853  0.3332  1.3278
72794SOL     OW28311   4.563   9.204  10.721  0.0679 -0.0569 -0.2260
72794SOL    HW128312   4.608   9.254  10.653  0.5515  0.0433  0.1674
72794SOL    HW228313   4.577   9.254  10.802 -1.9973  0.7730 -0.3188
72795SOL     OW28314   0.209   1.595  12.148 -0.3212  0.3828  0.0741
72795SOL    HW128315   0.290   1.603  12.098  0.3400 -0.1529  1.0377
72795SOL    HW228316   0.144   1.640  12.094 -0.1387 -2.0164 -2.4183
72796SOL     OW28317   6.122   7.694  10.247  0.0363 -0.3482  0.0040
72796SOL    HW128318   6.216   7.705  10.263  0.1018 -0.8544 -0.0155
72796SOL    HW228319   6.082   7.712  10.332  0.2412 -1.2159  0.2947
72797SOL     OW28320   4.135   0.130   4.817  0.2374  0.0388  0.3075
72797SOL    HW128321   4.152   0.172   4.733 -0.0753  0.2532  0.3489
72797SOL    HW228322   4.220   0.097   4.845  0.7651  1.7806  0.8819
72798SOL     OW28323  11.937   8.867  11.357 -0.7125 -0.2471  0.4842
72798SOL    HW128324  12.002   8.855  11.288 -0.3469 -0.1166  0.8028
72798SOL    HW228325  11.981   8.920  11.423 -0.8205 -0.9594  1.1441
72799SOL     OW28326  11.739   7.297   8.499  0.0129  0.3312  0.3527
72799SOL    HW128327  11.730   7.236   8.572  0.1298 -0.9891 -0.7062
72799SOL    HW228328  11.666   7.277   8.441  1.3627 -0.5015 -1.1741
72800SOL     OW28329   9.629  10.178   9.632 -0.4835  0.2600 -0.3516
72800SOL    HW128330   9.640  10.116   9.560  0.9861 -0.0916  0.1456
72800SOL    HW228331   9.717  10.211   9.649 -1.0849  1.7287  0.0757
72801SOL     OW28332   2.495   6.553   2.515  0.3872  0.5735  0.6836
72801SOL    HW128333   2.431   6.533   2.447 -0.3552 -0.7317  1.7087
72801SOL    HW228334   2.579   6.556   2.469 -0.2397  0.9960 -0.4747
72802SOL     OW28335   9.716   5.014  12.429 -0.1053 -0.2426  0.2214
72802SOL    HW128336   9.626   5.037  12.452 -0.3701 -1.4509  0.4660
72802SOL    HW228337   9.747   4.960  12.502  0.2976 -1.0683 -0.5361
72803SOL     OW28338   7.511  11.363  10.737 -0.0032 -0.2099  0.6032
72803SOL    HW128339   7.571  11.423  10.692  1.7557 -1.9558  0.4901
72803SOL    HW228340   7.486  11.299  10.671 -0.9477 -0.2711  1.0020
72804SOL     OW28341   9.589   8.578   0.329 -0.8029 -0.4298 -0.5966
72804SOL    HW128342   9.525   8.527   0.378 -1.0639 -0.3312 -0.8303
72804SOL    HW228343   9.659   8.516   0.310 -0.3355 -0.2776  0.5629
72805SOL     OW28344   5.623   6.139   2.509 -0.1347  0.4304  0.1788
72805SOL    HW128345   5.569   6.096   2.442  2.6525 -1.4382 -1.0606
72805SOL    HW228346   5.637   6.227   2.475  1.4685 -0.5662 -2.0213
72806SOL     OW28347  10.608   0.054   3.085 -0.5997  0.6860 -0.5229
72806SOL    HW128348  10.701   0.067   3.103 -0.8032  0.7665  0.5629
72806SOL    HW228349  10.577  -0.000   3.157 -1.2600  0.1024 -1.2311
72807SOL     OW28350   7.259   9.027   3.651 -0.1525  0.2871 -0.3041
72807SOL    HW128351   7.265   8.959   3.718 -2.6348 -0.7321 -1.0239
72807SOL    HW228352   7.229   8.981   3.573  0.9849  1.7522 -1.6480
72808SOL     OW28353   8.584   9.955   7.406 -0.5608  0.1723  0.3090
72808SOL    HW128354   8.508  10.012   7.412  0.3874  1.5699 -0.5409
72808SOL    HW228355   8.629   9.967   7.490  1.1858  3.0180 -0.9028
72809SOL     OW28356   1.486   9.578  10.280  0.3207  0.1747  0.9557
72809SOL    HW128357   1.471   9.486  10.255  1.7891 -0.1438  1.1509
72809SOL    HW228358   1.559   9.605  10.225 -0.9537  1.6789 -0.0809
72810SOL     OW28359   4.877   6.824   0.171  0.0267  0.1918 -0.4460
72810SOL    HW128360   4.802   6.774   0.202  1.1234 -1.7746 -0.7966
72810SOL    HW228361   4.912   6.866   0.250  0.6313 -1.7986  0.4154
72811SOL     OW28362   4.160   4.502   9.579  0.4920 -0.1272 -0.3684
72811SOL    HW128363   4.104   4.427   9.599 -0.0021 -0.4967 -2.8592
72811SOL    HW228364   4.187   4.534   9.665 -0.3890 -2.2976  0.8187
72812SOL     OW28365   0.164   3.711   2.575 -0.4650  0.4551 -0.0692
72812SOL    HW128366   0.153   3.789   2.629 -2.0711 -0.7156  1.3932
72812SOL    HW228367   0.189   3.744   2.489 -0.3356  2.5190  0.7179
72813SOL     OW28368  10.852   4.057   3.208 -0.6804  0.1366 -0.1400
72813SOL    HW128369  10.887   4.124   3.266 -1.3740 -0.8440  1.4847
72813SOL    HW228370  10.776   4.022   3.255 -2.5210  0.6635 -2.5298
72814SOL     OW28371  12.000   1.288  10.276  0.3675 -0.4566  0.9429
72814SOL    HW128372  11.995   1.227  10.203  2.1983  1.5098 -0.9559
72814SOL    HW228373  12.049   1.241  10.343  1.3014 -1.2552 -0.2629
72815SOL     OW28374   9.736   9.576   8.862  0.4494  0.0181  0.0294
72815SOL    HW128375   9.642   9.558   8.862 -0.0903  2.4504  0.1354
72815SOL    HW228376   9.760   9.582   8.955  0.6337 -0.2517 -0.0000
72816SOL     OW28377  12.217  11.980  11.109 -0.0695 -0.1665  0.1059
72816SOL    HW128378  12.305  11.992  11.145  0.8904 -2.2369 -1.3458
72816SOL    HW228379  12.174  11.921  11.171  0.1233 -0.3882  0.0325
72817SOL     OW28380  10.784   0.866  12.702 -0.1214 -0.0875 -0.1872
72817SOL    HW128381  10.844   0.931  12.737 -1.8527  1.0580  0.7814
72817SOL    HW228382  10.831   0.827  12.628  2.3194 -0.2413  1.3670
72818SOL     OW28383   8.723   7.583  12.818 -0.2679  0.4797  0.3450
72818SOL    HW128384   8.700   7.623  12.735 -0.8151  0.0433  0.2830
72818SOL    HW228385   8.665   7.626  12.882 -2.1058 -1.3863  0.0294
72819SOL     OW28386   6.412   6.885  13.221 -0.3535 -0.2096 -0.0633
72819SOL    HW128387   6.383   6.976  13.220  1.3070  0.3715  1.0502
72819SOL    HW228388   6.348   6.839  13.168 -0.3930  1.8599 -1.9432
72820SOL     OW28389   1.586   4.344  10.629  0.5556  0.1660 -0.3879
72820SOL    HW128390   1.553   4.321  10.542  0.3018 -0.5321 -0.1170
72820SOL    HW228391   1.538   4.287  10.688  0.4781  0.8819  0.2450
72821SOL     OW28392   1.712   1.346   5.580  0.0616  0.1443 -0.3379
72821SOL    HW128393   1.622   1.369   5.606  0.1037  0.6917 -0.6649
72821SOL    HW228394   1.703   1.309   5.492  0.2154  0.7388 -0.6110
72822SOL     OW28395   1.388   1.236   4.226 -0.1070  0.1587  0.7229
72822SOL    HW128396   1.368   1.151   4.266  0.3932 -0.7798 -0.9412
72822SOL    HW228397   1.353   1.230   4.138 -0.1073  1.7239  0.5943
72823SOL     OW28398   4.342   9.013  11.886 -0.0094  0.1271  0.4937
72823SOL    HW128399   4.384   9.011  11.800 -0.9667  1.4564 -0.0322
72823SOL    HW228400   4.342   8.922  11.914 -2.0801 -0.8093 -2.1291
72824SOL     OW28401  13.076   4.058  13.132 -0.2653 -0.1938 -0.1508
72824SOL    HW128402  13.161   4.097  13.115 -0.2598 -0.0903  0.1091
72824SOL    HW228403  13.047   4.097  13.215 -0.0947 -1.0102  0.3101
72825SOL     OW28404   7.170   4.257  11.144  0.5613  0.2008  0.2034
72825SOL    HW128405   7.146   4.311  11.069 -0.9139 -3.4277 -2.2549
72825SOL    HW228406   7.102   4.273  11.209 -2.9823 -2.1734 -2.5298
72826SOL     OW28407   4.545   2.379   3.862 -0.1635 -0.5019 -0.1612
72826SOL    HW128408   4.456   2.411   3.844  0.3479  1.7160  0.8722
72826SOL    HW228409   4.581   2.358   3.776 -1.3416 -0.4451 -0.6866
72827SOL     OW28410  12.405  10.853   6.269  0.0055  0.3823 -0.0447
72827SOL    HW128411  12.498  10.833   6.279  0.0488  0.8588  0.5652
72827SOL    HW228412  12.364  10.767   6.254  0.3946  0.0172  0.8767
72828SOL     OW28413  10.254   0.129   6.403  0.4677  0.6134  0.1794
72828SOL    HW128414  10.202   0.060   6.363  0.3495  0.5765  0.3975
72828SOL    HW228415  10.191   0.197   6.426  0.2270 -0.2479  2.2318
72829SOL     OW28416   2.174   3.696   2.345  0.1547  0.2858  0.4194
72829SOL    HW128417   2.205   3.657   2.264 -0.7701  1.8270 -0.7308
72829SOL    HW228418   2.251   3.698   2.402  0.5470 -1.9010  0.0671
72830SOL     OW28419   2.271   6.816   0.847  0.4132  0.5122  0.7047
72830SOL    HW128420   2.300   6.897   0.805 -0.0697  0.9036  1.1092
72830SOL    HW228421   2.175   6.818   0.840  0.4339 -0.4079  0.0253
72831SOL     OW28422  10.678  11.308   3.689  0.2064  0.3144  0.3831
72831SOL    HW128423  10.734  11.334   3.617 -0.8245  1.1734 -0.1371
72831SOL    HW228424  10.659  11.389   3.736 -1.1417  0.1842  0.1263
72832SOL     OW28425  11.526   3.282  10.739 -0.1190 -0.6682  0.0401
72832SOL    HW128426  11.484   3.205  10.777  0.8275 -0.5201  1.4262
72832SOL    HW228427  11.488   3.356  10.786  0.0420 -0.3820 -0.2771
72833SOL     OW28428   2.436   3.673   5.213  0.1001 -0.6094  0.2468
72833SOL    HW128429   2.342   3.652   5.205  0.2624 -1.7920  1.0801
72833SOL    HW228430   2.465   3.620   5.287  1.0693  1.0344  1.0995
72834SOL     OW28431  12.838   1.786   3.265 -0.2194  0.0228 -0.0578
72834SOL    HW128432  12.865   1.723   3.198 -1.4831  0.2433 -0.7899
72834SOL    HW228433  12.789   1.734   3.329  1.6403 -0.3408  1.1788
72835SOL     OW28434   7.063   0.781  12.787  0.2532  0.0354  0.3781
72835SOL    HW128435   7.125   0.760  12.856 -0.9186  2.3056  2.2659
72835SOL    HW228436   6.977   0.775  12.829 -0.6451 -0.3417 -1.4128
72836SOL     OW28437  12.514   7.587  11.980  0.2438 -0.0254 -0.6817
72836SOL    HW128438  12.454   7.525  12.020 -1.0473  0.4130 -1.8816
72836SOL    HW228439  12.600   7.565  12.018 -0.5231 -1.1419  0.4897
72837SOL     OW28440   5.251   3.467   5.296  0.1185 -0.2423  0.2874
72837SOL    HW128441   5.181   3.414   5.258  0.1865  0.5103 -0.9707
72837SOL    HW228442   5.320   3.466   5.229  0.9121 -0.1716  1.0865
72838SOL     OW28443   2.589   9.103   1.056 -0.1246 -0.3691  0.3701
72838SOL    HW128444   2.625   9.192   1.055  1.5144 -0.9532  1.8266
72838SOL    HW228445   2.624   9.063   0.976 -2.1328  0.6879 -1.1243
72839SOL     OW28446   7.732   6.364  13.048 -0.1275 -0.3004 -0.0741
72839SOL    HW128447   7.706   6.294  13.107  0.4438 -0.8861 -0.5009
72839SOL    HW228448   7.651   6.413  13.031 -0.1373  0.4933  1.9521
72840SOL     OW28449   0.950  11.552   6.586 -0.1498  0.1453  0.1997
72840SOL    HW128450   0.950  11.598   6.502  0.6911 -1.3160 -0.6430
72840SOL    HW228451   1.030  11.581   6.629  1.6071 -2.1212 -1.3151
72841SOL     OW28452  13.047   2.254   0.991 -0.0537 -0.0222 -0.0577
72841SOL    HW128453  13.005   2.330   1.031 -1.8150 -0.9395 -0.0996
72841SOL    HW228454  12.993   2.233   0.916  1.5488 -0.1407 -1.2342
72842SOL     OW28455   3.478   5.672   6.676  0.1180 -0.2292  0.2590
72842SOL    HW128456   3.460   5.597   6.733  0.8558 -0.3995  0.2838
72842SOL    HW228457   3.550   5.718   6.720 -1.0689  1.1552  0.8567
72843SOL     OW28458   4.260  11.645   4.217  0.6858 -0.3382 -0.3573
72843SOL    HW128459   4.345  11.603   4.207  0.9394  0.0625  0.0746
72843SOL    HW228460   4.255  11.669   4.310  0.6194  0.7206 -0.6116
72844SOL     OW28461  12.634   3.870  12.263  0.4291 -0.2686  0.1224
72844SOL    HW128462  12.654   3.806  12.195 -1.7484  1.4482 -2.3395
72844SOL    HW228463  12.574   3.823  12.322  1.2587 -1.3637  0.1393
72845SOL     OW28464  10.901   3.754   6.656  0.2691  0.4574 -0.2160
72845SOL    HW128465  10.951   3.758   6.575 -1.1341  0.1479 -1.1423
72845SOL    HW228466  10.814   3.723   6.629  0.4845 -2.2277  1.7420
72846SOL     OW28467  12.977  10.060  10.849  0.1225 -0.2933 -0.5181
72846SOL    HW128468  13.041  10.017  10.794  0.7309 -3.1959  2.1951
72846SOL    HW228469  12.896  10.012  10.835 -0.0426 -0.2261  0.1432
72847SOL     OW28470  13.215  12.968   3.010 -0.5377 -0.1480  0.4950
72847SOL    HW128471  13.271  12.975   3.088 -2.3734  0.1856  1.8493
72847SOL    HW228472  13.131  12.935   3.043 -1.7643  1.1413 -1.1498
72848SOL     OW28473   4.807   3.119   6.468 -0.4481 -0.1232  0.0097
72848SOL    HW128474   4.826   3.095   6.377  0.8678  0.0878  0.1999
72848SOL    HW228475   4.734   3.181   6.463 -0.8492 -0.6559 -0.8409
72849SOL     OW28476   6.058   3.688   5.224  0.0824  0.4469 -0.5026
72849SOL    HW128477   6.034   3.677   5.132  2.0850 -1.8192 -0.8275
72849SOL    HW228478   6.126   3.756   5.223  0.1042  0.4230 -0.6858
72850SOL     OW28479   2.973   1.554   2.898  0.4719  0.1792 -0.5602
72850SOL    HW128480   3.035   1.502   2.847  0.8283  0.8011 -0.7709
72850SOL    HW228481   2.969   1.638   2.852 -1.0809 -0.0952 -0.9595
72851SOL     OW28482   4.953  13.145   0.357  0.8149 -0.6600 -0.2693
72851SOL    HW128483   4.993  13.060   0.373  0.0156 -1.1774 -0.9299
72851SOL    HW228484   5.000  13.180   0.281  1.4887 -0.2710  0.3157
72852SOL     OW28485   9.268  11.025  12.499 -0.2441 -0.0648  0.0098
72852SOL    HW128486   9.339  11.058  12.554 -1.4353 -0.5993  1.9854
72852SOL    HW228487   9.238  11.101  12.450 -0.7347  1.0856  1.9730
72853SOL     OW28488   8.269   5.010   4.180  0.2256  0.0629  0.3478
72853SOL    HW128489   8.209   4.998   4.254  1.3301  0.1989  1.2999
72853SOL    HW228490   8.260   4.931   4.128  1.1650 -1.1444  1.9321
72854SOL     OW28491   9.018   6.969   8.361 -0.0289  0.3376  0.6175
72854SOL    HW128492   9.042   6.877   8.355  2.9713  1.0330  0.1113
72854SOL    HW228493   9.015   6.987   8.455 -0.0465 -0.1580  0.7140
72855SOL     OW28494   6.496   0.198   9.530  0.4132 -0.4300  0.1627
72855SOL    HW128495   6.527   0.277   9.486  2.0744 -1.0453  0.1396
72855SOL    HW228496   6.467   0.227   9.616  1.9793  0.1088  0.5492
72856SOL     OW28497   6.029  10.709   2.170  0.4131  0.3326 -1.0316
72856SOL    HW128498   5.969  10.732   2.241  2.4883  1.2837  0.5069
72856SOL    HW228499   6.072  10.791   2.147  1.7970 -0.4717 -1.4446
72857SOL     OW28500   3.966   5.530   8.578 -1.0105  0.1464 -0.3914
72857SOL    HW128501   4.015   5.574   8.648 -0.3956 -0.7546 -0.2365
72857SOL    HW228502   3.896   5.591   8.555 -0.5839  0.9023  0.2854
72858SOL     OW28503   3.775   6.347   3.295  0.4497  0.5732  0.3842
72858SOL    HW128504   3.715   6.422   3.303 -0.3469  0.1067 -0.9067
72858SOL    HW228505   3.849   6.380   3.245 -0.4848  0.2039 -1.2931
72859SOL     OW28506   1.780   6.442   5.316  0.2090  0.5889  0.1806
72859SOL    HW128507   1.795   6.513   5.378 -1.3310  1.5559 -0.4998
72859SOL    HW228508   1.689   6.416   5.330  0.1027  0.2140 -1.0492
72860SOL     OW28509   6.736   5.956  10.962 -0.0604  0.0871  0.5361
72860SOL    HW128510   6.712   5.938  10.871  0.1642  1.3419  0.2194
72860SOL    HW228511   6.658   5.934  11.013 -0.2429 -0.4554  0.0298
72861SOL     OW28512   1.260   4.491  10.463  0.2659  0.2055 -0.6470
72861SOL    HW128513   1.321   4.433  10.419  0.2777 -1.1957  1.0877
72861SOL    HW228514   1.280   4.480  10.556 -2.2104  0.1387 -0.0544
72862SOL     OW28515  11.103   9.015   8.175 -0.0370  0.4119  0.3107
72862SOL    HW128516  11.170   9.053   8.118 -0.5068  1.8339  0.6435
72862SOL    HW228517  11.126   8.923   8.182  1.0771  0.5882 -0.6987
72863SOL     OW28518   7.788   5.815   2.115  0.0276 -0.2328 -0.7603
72863SOL    HW128519   7.764   5.723   2.129  1.4313 -0.6805 -1.1399
72863SOL    HW228520   7.842   5.814   2.037 -0.8600  1.0952 -1.4308
72864SOL     OW28521   3.110  10.694  11.596 -0.1290  0.0338  0.4105
72864SOL    HW128522   3.198  10.666  11.570 -0.0673  1.6715 -1.3274
72864SOL    HW228523   3.063  10.706  11.514 -2.3464 -1.7660  1.3233
72865SOL     OW28524   2.509  13.091   2.608  0.4862 -0.3905 -0.6353
72865SOL    HW128525   2.471  13.077   2.695  0.0451 -0.1880 -0.7917
72865SOL    HW228526   2.547  13.178   2.612  0.0138 -0.1729 -0.8019
72866SOL     OW28527  10.930   6.019   3.950 -0.2420  0.6431  0.2552
72866SOL    HW128528  10.948   6.029   3.857 -1.2394 -0.8287 -0.1356
72866SOL    HW228529  10.914   5.925   3.962 -1.0279  0.9194  1.7386
72867SOL     OW28530   5.350  12.861   5.439  0.1107 -0.5953 -0.1562
72867SOL    HW128531   5.308  12.888   5.357  0.7811  1.1974  0.0613
72867SOL    HW228532   5.285  12.807   5.483 -0.5237 -0.9934 -1.5346
72868SOL     OW28533   3.634  12.432   5.067  0.0879 -0.4411 -0.1756
72868SOL    HW128534   3.578  12.510   5.070 -0.1241 -0.5990  0.0312
72868SOL    HW228535   3.703  12.454   5.005  2.7342  1.7118  3.1871
72869SOL     OW28536   5.499   6.859   7.161  0.0776  0.2593  0.1273
72869SOL    HW128537   5.538   6.776   7.190 -1.3644  0.4268  2.9667
72869SOL    HW228538   5.409   6.836   7.139 -0.1919  0.9639  0.4587
72870SOL     OW28539   3.507   3.990   4.139  0.7748 -0.0682  0.2070
72870SOL    HW128540   3.572   3.949   4.195  0.6426  0.3401  0.6639
72870SOL    HW228541   3.481   4.069   4.186  0.3077  0.0258 -0.2010
72871SOL     OW28542   1.623   5.975   3.437 -0.1237  0.5259 -0.2901
72871SOL    HW128543   1.638   5.881   3.444  0.4207  0.6537  0.3715
72871SOL    HW228544   1.547   5.984   3.379  0.1314 -0.2955 -0.7587
72872SOL     OW28545   1.433   5.485   9.629 -0.1404  0.8636 -0.1115
72872SOL    HW128546   1.471   5.564   9.667 -0.7825  1.0335  0.1982
72872SOL    HW228547   1.505   5.443   9.583  0.2587  1.5221 -0.1008
72873SOL     OW28548  11.286   1.618  11.251  0.3322 -0.4653 -0.0687
72873SOL    HW128549  11.220   1.686  11.245  0.5230 -0.2682  0.0485
72873SOL    HW228550  11.263   1.567  11.328  0.4790 -0.2219  0.1373
72874SOL     OW28551   4.887   3.160   3.893 -0.2161 -0.1926 -0.4605
72874SOL    HW128552   4.850   3.140   3.979 -2.1055  0.9169 -0.9800
72874SOL    HW228553   4.949   3.232   3.909  0.6915 -1.0865  0.1841
72875SOL     OW28554  12.714   4.619   8.646  0.0909  0.2334  0.3301
72875SOL    HW128555  12.698   4.700   8.695  1.6303  1.0602 -0.4327
72875SOL    HW228556  12.780   4.572   8.698 -0.6474 -0.4491  0.6673
72876SOL     OW28557  13.239   4.132  12.754  0.1931  0.2158  0.1188
72876SOL    HW128558  13.309   4.164  12.697 -0.2152 -1.5275 -1.4628
72876SOL    HW228559  13.266   4.043  12.777 -0.9457 -0.0659  0.4361
72877SOL     OW28560   0.322  11.277   4.192  0.4950  0.2444 -0.3957
72877SOL    HW128561   0.353  11.263   4.281  1.2835  0.5308 -0.6190
72877SOL    HW228562   0.298  11.369   4.189  1.3089  0.4582 -0.7190
72878SOL     OW28563   3.506   9.110   9.309  0.1654  0.1681 -0.0766
72878SOL    HW128564   3.579   9.078   9.362 -0.9959 -1.2790  0.7451
72878SOL    HW228565   3.522   9.074   9.221  0.8965  0.6341 -0.1414
72879SOL     OW28566   8.922   8.328   0.063 -0.3714  0.0462 -0.4604
72879SOL    HW128567   9.002   8.292   0.025 -1.0882 -0.4690 -1.5736
72879SOL    HW228568   8.875   8.366  -0.012 -1.1864  0.2699  0.1459
72880SOL     OW28569   6.528   1.424   1.147  0.1923  0.3024 -0.2573
72880SOL    HW128570   6.511   1.423   1.241 -0.6102  1.2352 -0.3758
72880SOL    HW228571   6.472   1.494   1.113  0.3655 -0.1131 -1.4516
72881SOL     OW28572   5.002  10.112  11.637 -0.3152 -0.1565  0.2326
72881SOL    HW128573   4.914  10.079  11.656 -0.0170 -1.1964 -0.1253
72881SOL    HW228574   5.029  10.063  11.559  0.8936 -0.4424  0.8098
72882SOL     OW28575  11.040   1.360   1.127  0.3445 -0.4820 -0.8979
72882SOL    HW128576  10.948   1.339   1.110  0.1691  0.5395 -1.2578
72882SOL    HW228577  11.061   1.313   1.208 -0.1360 -1.7065 -1.4617
72883SOL     OW28578   4.184  12.087  10.218  0.2817 -0.0155  0.0059
72883SOL    HW128579   4.116  12.083  10.151  0.2405  1.2849 -0.0655
72883SOL    HW228580   4.263  12.059  10.174 -0.3202 -2.4448  0.3256
72884SOL     OW28581   8.593   6.017   5.671 -0.2786 -0.2337  0.5299
72884SOL    HW128582   8.567   6.052   5.586  0.5544  0.9874  0.7504
72884SOL    HW228583   8.631   6.092   5.718 -2.4522 -0.3606  2.7262
72885SOL     OW28584   1.600   8.845   4.652 -0.4976  0.5320 -0.3992
72885SOL    HW128585   1.532   8.831   4.586  1.7771  0.4302 -2.9159
72885SOL    HW228586   1.671   8.786   4.626  0.2940 -0.0112  2.6196
72886SOL     OW28587   5.296   7.269   4.321 -0.2658 -0.3467  0.1264
72886SOL    HW128588   5.360   7.301   4.385  0.4183 -0.3320 -0.5466
72886SOL    HW228589   5.236   7.342   4.308  0.7607  0.3815 -0.7286
72887SOL     OW28590   9.405  12.009  11.559  0.3315 -0.5511  0.5620
72887SOL    HW128591   9.356  12.028  11.479  2.3268 -0.9253 -0.8302
72887SOL    HW228592   9.424  11.915  11.553  0.6693 -0.5404  1.3997
72888SOL     OW28593  11.934   2.003   3.468  0.4725 -0.1393 -0.6664
72888SOL    HW128594  11.958   2.041   3.383 -0.8600 -1.2044 -1.5473
72888SOL    HW228595  11.887   2.073   3.513 -0.5325 -0.1832 -1.6134
72889SOL     OW28596   8.665   6.642   7.279 -0.5189 -0.3851 -0.1933
72889SOL    HW128597   8.717   6.610   7.352  0.0639  1.3653  0.2062
72889SOL    HW228598   8.574   6.636   7.310 -0.2273  1.5029  1.2450
72890SOL     OW28599   5.319   3.694  11.561  0.3000  0.5306  0.1048
72890SOL    HW128600   5.287   3.778  11.528 -1.4563 -0.0322  0.2803
72890SOL    HW228601   5.273   3.629  11.508  3.4058 -0.4063 -1.6960
72891SOL     OW28602   9.415   7.069   1.102  0.2921  0.3993  0.0376
72891SOL    HW128603   9.369   7.024   1.173  0.8861 -1.2324 -0.5638
72891SOL    HW228604   9.443   7.152   1.141 -2.0092  0.9191  0.7965
72892SOL     OW28605   6.921  10.214   0.473 -0.1643  0.3605  0.5030
72892SOL    HW128606   6.869  10.253   0.543 -0.4419  1.7101 -0.4313
72892SOL    HW228607   7.009  10.248   0.486  0.4213 -1.4128  1.6876
72893SOL     OW28608  12.308   7.681   1.025  0.2973  0.7248  0.6776
72893SOL    HW128609  12.343   7.615   1.085 -1.1610 -1.1546 -0.4174
72893SOL    HW228610  12.256   7.739   1.081  0.5753  0.2020  1.4907
72894SOL     OW28611  11.048   0.061   1.754  0.8506  0.3228  0.1637
72894SOL    HW128612  11.066  -0.027   1.720  4.0308  0.5951  0.7814
72894SOL    HW228613  11.008   0.108   1.681 -1.2221 -1.6493 -0.0833
72895SOL     OW28614  10.901  13.059   4.387  0.3191  0.2401 -0.0581
72895SOL    HW128615  10.964  13.076   4.317  0.5347 -1.2537 -0.2598
72895SOL    HW228616  10.938  12.984   4.435 -1.5900 -1.1256 -0.5735
72896SOL     OW28617   0.108   0.594   2.433  0.1594  0.3046 -0.7130
72896SOL    HW128618   0.055   0.518   2.410 -0.3859  0.8127 -1.1950
72896SOL    HW228619   0.049   0.649   2.485  1.3524 -0.8061  2.0130
72897SOL     OW28620   6.081   7.235  13.061 -0.4725  0.2816  0.3082
72897SOL    HW128621   6.119   7.147  13.066 -2.8178 -0.7797  0.6939
72897SOL    HW228622   6.061   7.256  13.153 -0.6776  0.8594  0.1286
72898SOL     OW28623   2.332   2.598   0.128 -0.1314 -0.2757  0.1486
72898SOL    HW128624   2.249   2.551   0.142  0.4054 -1.2240  0.2586
72898SOL    HW228625   2.398   2.528   0.125  0.6518  0.4633 -0.0250
72899SOL     OW28626   9.042  10.293  11.426 -0.3236 -0.1960  0.5622
72899SOL    HW128627   9.088  10.260  11.503  0.4791  1.1560  0.7046
72899SOL    HW228628   8.956  10.251  11.429  0.8879 -2.9304  0.1981
72900SOL     OW28629   9.681   1.243   0.412 -0.3507  1.0288 -0.4668
72900SOL    HW128630   9.694   1.236   0.507 -0.6138 -0.2369 -0.5140
72900SOL    HW228631   9.606   1.187   0.393  0.5506  0.1497 -1.6007
72901SOL     OW28632  13.050   6.249   8.908  0.3454  0.7961  0.4267
72901SOL    HW128633  13.027   6.341   8.897  0.1957  0.8270  0.9855
72901SOL    HW228634  13.003   6.221   8.987 -0.8602 -0.1760 -0.5767
72902SOL     OW28635  12.211  11.022   9.853  0.3620  0.5843  0.3990
72902SOL    HW128636  12.303  11.029   9.828  0.2855  0.9249  0.1993
72902SOL    HW228637  12.206  11.068   9.937  0.2705  1.0757  0.1328
72903SOL     OW28638   1.626   9.003  10.820  0.1645 -0.2207 -0.0532
72903SOL    HW128639   1.554   9.026  10.761  1.4551  1.0503 -1.2149
72903SOL    HW228640   1.705   9.013  10.767  1.5999  2.9337  2.3219
72904SOL     OW28641  12.258   6.463   4.963  0.5993  0.9151 -0.2002
72904SOL    HW128642  12.271   6.512   4.881 -0.5124  0.6250 -0.5622
72904SOL    HW228643  12.168   6.483   4.989 -0.2515 -1.7062 -0.8929
72905SOL     OW28644  12.028   9.423   0.157  0.0280  0.5137 -0.0846
72905SOL    HW128645  11.993   9.451   0.242  1.4639  2.4259 -0.0547
72905SOL    HW228646  12.119   9.451   0.158 -0.0114  0.9281 -2.4076
72906SOL     OW28647  12.635  12.467  10.987 -0.3572  0.6888 -0.0621
72906SOL    HW128648  12.609  12.462  11.079  3.3818  1.6302  1.2168
72906SOL    HW228649  12.555  12.445  10.938 -3.6442  3.8957  3.2194
72907SOL     OW28650   7.876   7.079   0.273 -0.1687  0.4628 -0.9412
72907SOL    HW128651   7.931   7.001   0.275 -0.0757  0.4406 -2.6535
72907SOL    HW228652   7.908   7.133   0.346  1.2060 -0.1527 -1.0487
72908SOL     OW28653   2.519   1.646   2.473  0.0997  0.1153 -0.1918
72908SOL    HW128654   2.600   1.599   2.493  0.7612  0.6141 -1.5248
72908SOL    HW228655   2.449   1.585   2.495  0.8589 -0.5742  0.3635
72909SOL     OW28656   2.033   4.945   9.532 -0.0252 -0.1587 -0.0070
72909SOL    HW128657   2.049   4.854   9.508  0.5674 -0.3685  1.1172
72909SOL    HW228658   2.057   4.995   9.454  0.2173 -0.9272 -0.4352
72910SOL     OW28659   2.500   8.561   7.279 -0.2693  0.4828 -0.2734
72910SOL    HW128660   2.592   8.569   7.304 -0.0357 -0.6791 -0.6867
72910SOL    HW228661   2.453   8.549   7.361  0.2870 -1.6124 -0.2036
72911SOL     OW28662   2.454   7.918   2.176  1.0668  0.1740 -0.3263
72911SOL    HW128663   2.417   7.972   2.106  1.1410 -0.2874 -0.7288
72911SOL    HW228664   2.382   7.904   2.237  0.5382 -0.7428 -1.1175
72912SOL     OW28665   1.791   8.038   3.944 -0.0057  0.3998  0.7528
72912SOL    HW128666   1.776   7.948   3.973 -5.4358  0.0619 -1.8852
72912SOL    HW228667   1.828   8.029   3.856 -0.2618  0.7463  0.6070
72913SOL     OW28668   0.849   9.065  12.053  0.5787  0.0770  0.1443
72913SOL    HW128669   0.848   9.090  12.145 -0.5391 -1.8852  0.7219
72913SOL    HW228670   0.788   8.992  12.047  1.7457 -0.8241 -1.8625
72914SOL     OW28671   2.120   2.455   0.173 -0.0244 -0.0631  0.4823
72914SOL    HW128672   2.101   2.416   0.087 -1.1975 -0.3164  0.8422
72914SOL    HW228673   2.139   2.381   0.230 -0.2512  0.0327  0.6851
72915SOL     OW28674   8.660   7.977   3.006  0.2851  0.1544 -0.0962
72915SOL    HW128675   8.663   8.069   2.980 -1.0737  0.3107  0.2275
72915SOL    HW228676   8.741   7.964   3.056 -0.4512  1.7277  1.5935
72916SOL     OW28677  13.171  10.161  12.772 -0.4358 -0.3771 -0.3931
72916SOL    HW128678  13.261  10.167  12.741 -0.2263 -1.0037  0.0957
72916SOL    HW228679  13.177  10.165  12.867 -1.2043  3.5990 -0.3116
72917SOL     OW28680  13.080   4.635   7.122 -0.6079 -0.6431  0.1670
72917SOL    HW128681  12.987   4.651   7.107 -0.1428  2.8952  0.2845
72917SOL    HW228682  13.120   4.646   7.036  0.1591  2.9580  0.8431
72918SOL     OW28683   2.031   9.583   0.030  0.2123 -0.2035 -0.0190
72918SOL    HW128684   1.952   9.558   0.077  0.3281  1.4223  1.1217
72918SOL    HW228685   2.007   9.578  -0.063 -1.4808  0.9993  0.3160
72919SOL     OW28686  12.610   7.051   0.309  0.1712 -0.1584 -0.8747
72919SOL    HW128687  12.637   6.980   0.367  1.5323  0.6982 -0.4146
72919SOL    HW228688  12.545   7.011   0.251  0.3048 -1.5609 -0.1000
72920SOL     OW28689   4.628   4.498   2.331 -0.7312 -0.5492  0.4882
72920SOL    HW128690   4.652   4.566   2.394 -0.9851 -0.2165  0.2332
72920SOL    HW228691   4.704   4.440   2.328 -0.2003  0.1470  0.1390
72921SOL     OW28692   6.067   8.968  13.174  0.0765  0.2319  0.9844
72921SOL    HW128693   5.982   8.969  13.130 -0.5222 -0.0308  2.0718
72921SOL    HW228694   6.106   9.053  13.155 -0.9610  0.8275  1.4234
72922SOL     OW28695   3.597   6.298  10.805 -0.0942 -0.0600 -0.5193
72922SOL    HW128696   3.635   6.385  10.799 -0.9570  0.3047 -0.7123
72922SOL    HW228697   3.506   6.308  10.777  0.0693 -1.2102 -1.5614
72923SOL     OW28698   1.612   2.799   4.362  0.8306 -0.1989 -0.0875
72923SOL    HW128699   1.561   2.849   4.426 -1.0809  0.7458 -2.1877
72923SOL    HW228700   1.694   2.847   4.355  0.5203  0.4675  0.6542
72924SOL     OW28701   2.745   9.869  13.191  0.0042  0.2689 -0.0740
72924SOL    HW128702   2.651   9.850  13.186 -0.0462  0.6516 -0.7206
72924SOL    HW228703   2.776   9.859  13.101  0.6582 -0.2066  0.1990
72925SOL     OW28704   1.602   0.533   8.475 -0.3620  0.2452  0.2457
72925SOL    HW128705   1.585   0.600   8.409 -1.0910  1.4774  1.6113
72925SOL    HW228706   1.548   0.459   8.449 -1.7271  1.2258  0.1940
72926SOL     OW28707  12.180   3.594  12.803 -0.0664 -0.4637 -0.1821
72926SOL    HW128708  12.214   3.506  12.792  0.2232 -0.5951  1.4417
72926SOL    HW228709  12.248   3.651  12.765 -0.4072 -0.9247 -1.5317
72927SOL     OW28710   1.212   8.993  12.616 -0.0094  0.1413 -0.6501
72927SOL    HW128711   1.209   8.901  12.590 -0.5433 -1.0761  3.1038
72927SOL    HW228712   1.128   9.009  12.659  1.7074  0.8437  2.8655
72928SOL     OW28713   4.711  11.921  12.349  0.4028  0.7418  0.5554
72928SOL    HW128714   4.669  11.855  12.293 -0.7194  0.2712  1.8934
72928SOL    HW228715   4.699  12.003  12.301  1.4239  0.0624 -0.9219
72929SOL     OW28716  11.996   2.019   8.907 -0.2217 -0.1881  0.0429
72929SOL    HW128717  12.068   1.970   8.868  0.9004  0.6245  0.9949
72929SOL    HW228718  12.035   2.104   8.930 -1.5750  0.3918  0.2965
72930SOL     OW28719   6.219   3.632  10.886 -0.1836 -0.4294 -0.6840
72930SOL    HW128720   6.180   3.559  10.933 -1.0184 -0.5012 -1.4709
72930SOL    HW228721   6.230   3.701  10.952  2.1798 -1.7898  0.4787
72931SOL     OW28722   7.281   7.239   2.890 -0.1538 -0.0902  0.1556
72931SOL    HW128723   7.288   7.274   2.802 -1.9252 -0.8371 -0.3172
72931SOL    HW228724   7.273   7.144   2.877 -0.6322 -0.1895  1.1009
72932SOL     OW28725   1.099  10.040   2.750 -0.1864 -0.2308 -0.5251
72932SOL    HW128726   1.022  10.062   2.697 -1.6774 -1.2231  1.1209
72932SOL    HW228727   1.070  10.050   2.840  1.8102 -0.1110  0.1564
72933SOL     OW28728   5.818   0.868   4.997  0.2249 -0.2445  0.2227
72933SOL    HW128729   5.801   0.857   5.091  1.6438 -0.5870  0.4646
72933SOL    HW228730   5.767   0.798   4.956 -0.3591 -0.1317  0.7265
72934SOL     OW28731  11.867   2.821  10.297  0.6482 -0.0958  0.0721
72934SOL    HW128732  11.887   2.770  10.376  0.3840 -1.9304 -0.9950
72934SOL    HW228733  11.806   2.767  10.248  0.5646  1.1525 -1.2682
72935SOL     OW28734   5.854  11.129   1.621 -0.0382  0.3107  0.2491
72935SOL    HW128735   5.817  11.215   1.603 -1.6426 -0.7783 -2.0617
72935SOL    HW228736   5.798  11.092   1.690 -0.4267  0.4335 -0.0028
72936SOL     OW28737   9.651   3.627   3.604 -0.2484  0.4765 -0.2594
72936SOL    HW128738   9.559   3.604   3.607 -0.2645  0.1537 -2.0308
72936SOL    HW228739   9.683   3.614   3.694 -1.7186 -0.1868  0.1864
72937SOL     OW28740   8.475  12.776   6.860 -0.2712 -0.0146 -0.4561
72937SOL    HW128741   8.521  12.837   6.918 -0.4192 -0.3775  0.0476
72937SOL    HW228742   8.384  12.781   6.887 -0.2578 -0.5987 -0.2767
72938SOL     OW28743  11.384   1.397   3.315  0.1858 -0.5645 -0.1289
72938SOL    HW128744  11.402   1.485   3.283  0.0361  0.5327  2.5410
72938SOL    HW228745  11.289   1.394   3.328  0.3816 -0.3790  1.6033
72939SOL     OW28746   0.260   9.046   3.847  0.4284 -0.3586 -0.2496
72939SOL    HW128747   0.192   9.111   3.827  0.2337 -1.0081 -1.8364
72939SOL    HW228748   0.339   9.081   3.807  0.2386 -1.2526 -1.4591
72940SOL     OW28749  12.391  13.170   1.085 -0.3994 -0.5262 -0.2597
72940SOL    HW128750  12.403  13.095   1.027 -0.1575 -0.9986  0.3962
72940SOL    HW228751  12.448  13.153   1.160 -0.5991  0.1427  0.0551
72941SOL     OW28752  13.227   6.764  11.336  0.2741 -0.2955 -0.3551
72941SOL    HW128753  13.136   6.763  11.367  0.4060 -1.4384  0.0525
72941SOL    HW228754  13.259   6.851  11.358 -0.1399 -0.5300  1.3240
72942SOL     OW28755   6.871   8.672   7.393  0.2996  0.5898  0.1358
72942SOL    HW128756   6.933   8.690   7.464  0.8738 -1.0043  0.0824
72942SOL    HW228757   6.834   8.587   7.415 -0.2646  0.5370 -0.9688
72943SOL     OW28758   4.322   8.618  12.575  0.4077  0.4185 -0.2402
72943SOL    HW128759   4.334   8.675  12.651  0.0941 -1.8789  1.6428
72943SOL    HW228760   4.266   8.547  12.607  1.3275 -1.3174 -2.2584
72944SOL     OW28761   3.578   0.498  12.384  0.7972  0.3904  0.0511
72944SOL    HW128762   3.627   0.579  12.374  1.2751 -0.0218 -1.2161
72944SOL    HW228763   3.541   0.481  12.297 -2.0469  0.9374  1.0423
72945SOL     OW28764   3.366   3.169   8.575  0.4063  0.0971 -0.0996
72945SOL    HW128765   3.372   3.078   8.547  0.4088  0.6340 -1.9613
72945SOL    HW228766   3.272   3.186   8.582  0.3366  0.4271 -1.5225
72946SOL     OW28767   1.332  11.466   3.045 -0.4282  0.3049 -0.3160
72946SOL    HW128768   1.327  11.500   2.956 -1.6334  0.9644 -0.0077
72946SOL    HW228769   1.403  11.516   3.086 -0.3169  0.4665 -0.7063
72947SOL     OW28770   5.838  12.308  10.738 -0.1488  0.6682  0.6626
72947SOL    HW128771   5.823  12.254  10.816  1.3487 -1.2802 -0.2930
72947SOL    HW228772   5.919  12.355  10.758  1.0653 -0.9484 -0.1906
72948SOL     OW28773   6.071  11.475   3.446  0.4641  0.0758  0.0922
72948SOL    HW128774   6.135  11.431   3.389  0.1566  2.8248 -2.6408
72948SOL    HW228775   5.987  11.435   3.424  0.7533 -1.1343  1.1104
72949SOL     OW28776  12.424   8.473   5.734  0.2426  0.3917 -0.1049
72949SOL    HW128777  12.446   8.398   5.679  3.1524  0.2512  1.0949
72949SOL    HW228778  12.372   8.530   5.676 -1.8664 -2.3401 -1.1113
72950SOL     OW28779  12.166   7.875   1.175  0.2856 -0.8369  0.5848
72950SOL    HW128780  12.246   7.899   1.222  0.0027 -1.7550  1.5733
72950SOL    HW228781  12.136   7.957   1.136  1.5108 -0.4117  0.4916
72951SOL     OW28782   7.988   4.266   5.490 -0.9746  0.3215  0.2125
72951SOL    HW128783   7.893   4.267   5.502 -0.9879 -2.5462  1.1694
72951SOL    HW228784   8.006   4.184   5.444  1.0400  0.9379 -0.2310
72952SOL     OW28785   4.445   9.216   5.505 -0.2345 -0.7041 -0.4507
72952SOL    HW128786   4.435   9.205   5.599 -0.6188 -0.8384 -0.5078
72952SOL    HW228787   4.531   9.179   5.485 -0.6283 -1.6950 -0.3253
72953SOL     OW28788  10.929   4.302   5.957 -0.6236  0.2993  0.5128
72953SOL    HW128789  10.980   4.274   5.881  1.1238 -2.3761  2.5133
72953SOL    HW228790  10.964   4.389   5.979  0.5217  0.0597 -0.3084
72954SOL     OW28791   9.538  10.128  12.314 -0.3295 -0.0875 -0.0441
72954SOL    HW128792   9.544  10.096  12.404  0.2952 -2.1057 -0.7495
72954SOL    HW228793   9.454  10.096  12.282 -1.5366  2.3744  0.3739
72955SOL     OW28794   8.195   9.080   0.354 -0.2734  0.2659  0.0399
72955SOL    HW128795   8.265   9.138   0.324 -0.6646  0.2753 -0.8865
72955SOL    HW228796   8.118   9.137   0.361 -0.0070  0.4614  1.9556
72956SOL     OW28797  12.726  10.814   3.589 -0.0644 -0.0137 -0.4197
72956SOL    HW128798  12.671  10.839   3.515  0.8732  1.1200 -0.7562
72956SOL    HW228799  12.815  10.818   3.556  0.4210  1.2116  0.9353
72957SOL     OW28800  13.022   5.939   5.955  0.0451  0.1851 -0.1258
72957SOL    HW128801  13.096   5.879   5.967  0.9767  0.8809 -1.9181
72957SOL    HW228802  13.062   6.021   5.927 -1.2946  1.2618  0.9749
72958SOL     OW28803   8.225   1.301   0.832  0.5017  0.3571  0.5344
72958SOL    HW128804   8.262   1.387   0.850  0.2752  1.1740 -2.4777
72958SOL    HW228805   8.137   1.304   0.870  0.3453  1.6256  0.1194
72959SOL     OW28806   0.597  10.866   7.674  0.4108  0.2232  0.3045
72959SOL    HW128807   0.509  10.849   7.706  0.3853  0.0525  0.1470
72959SOL    HW228808   0.615  10.793   7.614  0.3597  0.6751 -0.2668
72960SOL     OW28809  10.510  10.234   8.584 -0.3369 -0.3642 -0.0136
72960SOL    HW128810  10.549  10.185   8.512 -0.1581 -0.1714 -0.0497
72960SOL    HW228811  10.564  10.313   8.592 -1.5696  0.6172 -1.0047
72961SOL     OW28812   7.966  11.798  12.425  0.4031 -0.2770  0.4164
72961SOL    HW128813   7.911  11.730  12.385 -0.4367 -0.8014  2.3407
72961SOL    HW228814   8.048  11.795  12.375 -1.0062  0.0465 -2.0713
72962SOL     OW28815   7.036   9.633   4.907  0.1170  0.2951  0.3087
72962SOL    HW128816   6.990   9.689   4.969  0.9935  1.3629  0.0125
72962SOL    HW228817   7.127   9.636   4.933  0.1901 -1.0699  0.3264
72963SOL     OW28818   4.514   8.234   5.227  0.1295 -0.1690 -0.1958
72963SOL    HW128819   4.543   8.319   5.261 -0.3469 -0.8960  2.1642
72963SOL    HW228820   4.472   8.191   5.301 -0.1674 -2.2557 -1.4953
72964SOL     OW28821  12.222   7.247   7.498  0.1295 -0.3055 -0.7384
72964SOL    HW128822  12.178   7.289   7.572  0.8279 -1.0903  0.1463
72964SOL    HW228823  12.170   7.169   7.480 -0.8843  0.6302 -2.0623
72965SOL     OW28824  12.408   2.772   5.603 -0.2468 -0.1635 -0.1741
72965SOL    HW128825  12.421   2.704   5.668  2.1484  1.2282  0.9661
72965SOL    HW228826  12.471   2.752   5.533  1.5326  1.5171  0.8372
72966SOL     OW28827  11.945   9.095   0.410  0.2523 -0.0718  0.2328
72966SOL    HW128828  11.893   9.053   0.478  1.7981 -0.2261  1.3768
72966SOL    HW228829  12.009   9.029   0.384  0.0606  0.1857 -0.9645
72967SOL     OW28830   6.457   7.340   7.933  0.2408  0.3902  0.3450
72967SOL    HW128831   6.497   7.309   8.015 -0.2497 -1.0892  0.0387
72967SOL    HW228832   6.390   7.276   7.912 -0.7145  1.5875 -0.4162
72968SOL     OW28833   9.468   8.217   3.043 -0.4332  0.6517 -0.1388
72968SOL    HW128834   9.447   8.310   3.036  0.8057  1.1233  1.6764
72968SOL    HW228835   9.467   8.186   2.953 -0.3232  2.5452 -0.8502
72969SOL     OW28836   2.733   3.196   8.651 -0.0303  0.3850  0.3632
72969SOL    HW128837   2.724   3.135   8.725  0.1124 -0.9082 -0.6410
72969SOL    HW228838   2.644   3.227   8.635 -0.2833 -0.3947  0.2192
72970SOL     OW28839   1.601   5.722   1.508  0.0657 -0.4624 -0.1377
72970SOL    HW128840   1.555   5.775   1.573 -0.0651 -0.1334 -0.4892
72970SOL    HW228841   1.548   5.732   1.428 -0.1681 -1.4296 -0.1127
72971SOL     OW28842   4.178  13.108  12.144 -0.0460 -0.2925  0.2265
72971SOL    HW128843   4.239  13.064  12.085  1.8141  2.1478  0.1515
72971SOL    HW228844   4.121  13.158  12.086  0.6459  0.7253  0.4003
72972SOL     OW28845  12.784   4.738   1.322 -0.2791 -0.0960 -0.4085
72972SOL    HW128846  12.720   4.759   1.390 -0.5536  0.0160 -0.6986
72972SOL    HW228847  12.733   4.735   1.241 -0.1096 -1.1414 -0.4885
72973SOL     OW28848   2.256   6.079   6.741 -0.2128 -0.3264  0.0351
72973SOL    HW128849   2.340   6.125   6.738 -0.1414 -0.3950  0.7520
72973SOL    HW228850   2.270   6.007   6.801 -0.8223 -0.2602  0.2647
72974SOL     OW28851   8.236   8.778   6.055 -0.4796  0.1332 -0.7433
72974SOL    HW128852   8.273   8.704   6.103 -0.4268  0.6613  0.0436
72974SOL    HW228853   8.298   8.850   6.070 -0.8146  0.4919 -1.0353
72975SOL     OW28854  12.740   4.652   5.945  0.4861  0.0091  0.1215
72975SOL    HW128855  12.748   4.748   5.944  1.0665 -0.0346  0.1876
72975SOL    HW228856  12.707   4.630   5.858  0.4704  0.2634  0.0628
72976SOL     OW28857  10.530   5.361  12.927 -0.0812 -0.0506 -0.1623
72976SOL    HW128858  10.547   5.290  12.865  0.3945  0.0511 -0.1494
72976SOL    HW228859  10.457   5.329  12.981 -1.3266  0.3489 -1.5551
72977SOL     OW28860   4.564   0.525   4.345  0.3473  0.2488 -0.5331
72977SOL    HW128861   4.579   0.492   4.257  0.0364  0.2432 -0.5837
72977SOL    HW228862   4.604   0.612   4.345  0.7680  0.0594 -0.5333
72978SOL     OW28863  12.057   8.811   4.602  0.3827 -0.6451  0.1310
72978SOL    HW128864  12.051   8.901   4.636  1.5141 -0.4043 -0.2500
72978SOL    HW228865  11.967   8.785   4.587 -0.0969 -0.3479  2.2409
72979SOL     OW28866   2.392   3.882   5.702  0.1877 -0.2422  0.2085
72979SOL    HW128867   2.486   3.867   5.708 -0.0417 -1.6806  0.6394
72979SOL    HW228868   2.383   3.955   5.640  1.5095 -1.1431 -1.1089
72980SOL     OW28869   5.238  11.150   8.241 -0.6824 -0.0287 -0.0256
72980SOL    HW128870   5.173  11.173   8.174  0.0499  2.0430 -0.0961
72980SOL    HW228871   5.196  11.172   8.324 -1.1138 -1.4129  0.1481
72981SOL     OW28872   4.519   6.275  11.717  0.3952 -0.3353  0.2925
72981SOL    HW128873   4.549   6.325  11.793  0.8629 -0.4286  0.1723
72981SOL    HW228874   4.424   6.265  11.730  0.6329 -1.3341  1.4373
72982SOL     OW28875   7.484   9.592   3.145  0.0586  0.6185  0.4647
72982SOL    HW128876   7.552   9.596   3.211 -0.6328  0.2250  1.2253
72982SOL    HW228877   7.463   9.683   3.125 -0.2661  0.7521  1.3701
72983SOL     OW28878   0.991   3.667  12.653  0.0434 -0.3880  0.3623
72983SOL    HW128879   1.005   3.749  12.701 -2.8769  0.6896 -0.4068
72983SOL    HW228880   1.078   3.626  12.650  1.3139  1.9075  2.1102
72984SOL     OW28881  12.280   9.630   2.952  0.1803  0.2930  0.2516
72984SOL    HW128882  12.350   9.566   2.967  1.3047  1.1192 -1.2299
72984SOL    HW228883  12.295   9.698   3.018  1.0018  0.6155 -0.2483
72985SOL     OW28884   5.407  10.421   2.260 -0.4066  0.1697 -0.0245
72985SOL    HW128885   5.487  10.370   2.275 -1.6385 -1.6578  0.6292
72985SOL    HW228886   5.375  10.391   2.175 -2.0502 -1.5085  1.1173
72986SOL     OW28887   3.879   7.735   8.357 -0.0209  0.1812 -0.3272
72986SOL    HW128888   3.953   7.695   8.402 -0.0801 -0.1202 -0.4959
72986SOL    HW228889   3.903   7.734   8.264 -0.0914  0.3920 -0.3488
72987SOL     OW28890   5.277   3.436   2.961 -0.3541 -0.3031 -0.0109
72987SOL    HW128891   5.310   3.359   3.008  0.0247  0.1905  0.5417
72987SOL    HW228892   5.182   3.432   2.972 -0.2790 -0.2704  0.6789
72988SOL     OW28893  11.539   9.015   3.952  0.0204 -0.8842  0.4095
72988SOL    HW128894  11.517   9.050   3.866  0.0100 -0.5921  0.5313
72988SOL    HW228895  11.600   8.943   3.933 -1.0055 -1.6971  0.0727
72989SOL     OW28896  11.689   9.417   9.150  0.1519 -0.3109 -0.0055
72989SOL    HW128897  11.733   9.496   9.119  0.9355  1.2486  4.3696
72989SOL    HW228898  11.742   9.345   9.116  1.5488  1.1656 -1.1304
72990SOL     OW28899  10.994  11.340   0.982  0.0904 -0.0708 -0.0476
72990SOL    HW128900  11.043  11.406   0.932  0.1868 -0.2351 -0.1729
72990SOL    HW228901  11.027  11.349   1.072 -0.2653  0.3967  0.0388
72991SOL     OW28902   8.462   7.585   9.462  0.5475  0.5961 -0.2764
72991SOL    HW128903   8.546   7.558   9.499 -0.7371 -2.2529  0.8221
72991SOL    HW228904   8.467   7.558   9.370  0.4820 -0.5007  0.0320
72992SOL     OW28905   3.522   5.883   9.222 -0.1081 -0.1938 -0.3603
72992SOL    HW128906   3.554   5.961   9.176  0.6583 -0.3093 -0.0370
72992SOL    HW228907   3.441   5.860   9.176 -0.6031  1.0737 -0.1459
72993SOL     OW28908   4.749   9.374   9.650  0.2134  0.2836 -0.2434
72993SOL    HW128909   4.840   9.366   9.679 -0.0813 -0.2873  0.5444
72993SOL    HW228910   4.754   9.431   9.573  0.9680  2.3153  1.2190
72994SOL     OW28911  10.445  10.179   3.350  0.0044 -0.1531 -0.2474
72994SOL    HW128912  10.352  10.158   3.354  0.0314 -0.1396  0.6160
72994SOL    HW228913  10.489  10.095   3.357  0.0635 -0.2002 -1.0521
72995SOL     OW28914   3.217   0.222   0.593 -0.0412  0.1262  0.2343
72995SOL    HW128915   3.142   0.255   0.543 -0.5610 -0.7451  0.4227
72995SOL    HW228916   3.270   0.175   0.529 -0.2823 -0.2854  0.3330
72996SOL     OW28917   5.769   7.497  12.731  0.0188 -0.3663  0.6029
72996SOL    HW128918   5.814   7.581  12.742  0.3380 -0.3026 -1.0287
72996SOL    HW228919   5.814   7.439  12.792  1.2043  0.1243  0.2317
72997SOL     OW28920   6.046   3.686   3.209  0.5160  0.3130  0.0859
72997SOL    HW128921   6.009   3.692   3.121  1.0647 -1.9188 -0.3732
72997SOL    HW228922   5.970   3.682   3.267  0.1404  1.1174 -0.3393
72998SOL     OW28923   4.946   9.845   7.879  0.1799  0.1472 -0.6729
72998SOL    HW128924   4.996   9.784   7.932  1.2063  0.8239 -0.8305
72998SOL    HW228925   4.862   9.854   7.925  0.4781 -0.4386 -0.0038
72999SOL     OW28926  12.974  10.666   8.106 -0.5498 -0.0540 -0.2450
72999SOL    HW128927  12.929  10.583   8.123  1.6222 -1.3155 -0.2285
72999SOL    HW228928  12.966  10.715   8.188  1.8198 -2.1644  1.4279
73000SOL     OW28929   5.273   7.186   1.644  0.2555 -0.0665 -0.1519
73000SOL    HW128930   5.330   7.184   1.721  1.0792  2.4031 -0.5996
73000SOL    HW228931   5.321   7.138   1.577  1.0865  0.5703 -0.0330
73001SOL     OW28932  12.196   9.479   5.087 -0.2054 -0.3878  0.2372
73001SOL    HW128933  12.108   9.448   5.066 -1.2057  2.1130  0.4754
73001SOL    HW228934  12.223   9.530   5.010  0.8045 -0.6237  0.4119
73002SOL     OW28935  10.148   5.326   1.486 -0.0959  0.1238  0.5588
73002SOL    HW128936  10.146   5.241   1.443  2.3565  0.3282 -0.1445
73002SOL    HW228937  10.200   5.312   1.565 -0.3630  0.7982  0.8612
73003SOL     OW28938   4.811   1.319  13.254 -0.7350  0.3977 -0.0909
73003SOL    HW128939   4.737   1.348  13.201 -0.6888  0.2626 -0.2322
73003SOL    HW228940   4.777   1.315  13.343 -2.0255 -3.2492 -0.5880
73004SOL     OW28941   8.514   5.017   7.823 -0.0311  0.2908 -0.1204
73004SOL    HW128942   8.549   4.947   7.879 -0.5397 -0.5471 -0.8201
73004SOL    HW228943   8.425   5.031   7.855 -0.2204  0.0164 -0.5087
73005SOL     OW28944   0.192   8.992   7.261  0.3961 -0.4942  0.0547
73005SOL    HW128945   0.213   8.900   7.243 -0.7807 -0.8650  0.4719
73005SOL    HW228946   0.181   8.996   7.356  2.3004  0.5123  0.2816
73006SOL     OW28947  11.590   6.547   7.661 -0.2092 -0.0211  0.0555
73006SOL    HW128948  11.514   6.600   7.634  0.7255  0.3398 -2.1027
73006SOL    HW228949  11.662   6.609   7.665  0.5090 -0.7960 -0.5906
73007SOL     OW28950   9.572   8.322   3.967 -0.2791  0.3192 -0.1594
73007SOL    HW128951   9.620   8.303   3.886  1.6855  0.0055  1.0352
73007SOL    HW228952   9.534   8.238   3.992 -2.4322  0.7645 -1.6374
73008SOL     OW28953  11.956  11.085   9.818  0.7799 -0.3065 -0.2694
73008SOL    HW128954  11.958  11.145   9.743  0.2046  1.5508  1.1389
73008SOL    HW228955  12.045  11.049   9.822  1.0824  0.2716 -1.2802
73009SOL     OW28956   4.156   5.995   2.582  0.3752 -0.5698 -0.1141
73009SOL    HW128957   4.174   5.902   2.599  0.1210 -0.3922  1.2872
73009SOL    HW228958   4.172   6.006   2.489  2.3595 -1.5915  0.0473
73010SOL     OW28959  10.767  11.803   4.595  0.2715 -0.1090  0.2206
73010SOL    HW128960  10.796  11.801   4.686  0.4829 -1.0923  0.1449
73010SOL    HW228961  10.708  11.728   4.587  1.0968 -0.7018 -0.7037
73011SOL     OW28962   6.012   6.854  13.226  0.1215 -0.1173 -0.4631
73011SOL    HW128963   5.937   6.873  13.283 -1.0584 -1.2592 -1.5638
73011SOL    HW228964   6.070   6.800  13.279 -0.0293  0.4253  0.2684
73012SOL     OW28965   8.957  11.346   4.479 -0.6889  0.0812  0.4193
73012SOL    HW128966   9.053  11.344   4.484 -0.6515 -0.2508 -0.2294
73012SOL    HW228967   8.928  11.325   4.568 -0.1433 -1.8319  0.1988
73013SOL     OW28968  12.766   5.045   1.446 -0.8075  0.3227 -0.2881
73013SOL    HW128969  12.737   4.993   1.521 -0.5040 -0.0446 -0.4229
73013SOL    HW228970  12.747   5.135   1.470  0.0066  0.2821  0.5655
73014SOL     OW28971   5.012   9.079  13.131 -0.4479  1.2749  0.4895
73014SOL    HW128972   4.942   9.108  13.190 -1.0817 -0.1249  0.4624
73014SOL    HW228973   5.088   9.066  13.188 -1.0091  0.0969  1.0041
73015SOL     OW28974   0.084  12.724  12.614  0.3185  1.0765  0.1343
73015SOL    HW128975   0.071  12.814  12.582  0.7326  0.4321 -2.0467
73015SOL    HW228976   0.147  12.686  12.553 -0.2705 -0.8771  0.6630
73016SOL     OW28977   3.171   5.463   6.644  0.6702 -0.0655 -0.2533
73016SOL    HW128978   3.148   5.370   6.640  2.7881 -0.6170 -0.9148
73016SOL    HW228979   3.255   5.465   6.691  2.4764  1.0667 -3.2292
73017SOL     OW28980   6.125   9.808   9.030 -0.2507  0.1835  0.5250
73017SOL    HW128981   6.162   9.814   9.118 -2.4492  0.5509  1.4825
73017SOL    HW228982   6.046   9.862   9.033 -1.5438 -1.5050 -1.0171
73018SOL     OW28983   3.516   6.031   7.194 -0.0503  0.5545  0.0165
73018SOL    HW128984   3.464   6.060   7.269 -2.2423  0.1457 -1.2587
73018SOL    HW228985   3.496   6.094   7.125 -1.6685 -1.5398 -1.5590
73019SOL     OW28986  10.403  10.522   2.104 -0.4882  0.0431  0.0780
73019SOL    HW128987  10.381  10.430   2.099  0.5207 -0.2513  0.7799
73019SOL    HW228988  10.352  10.556   2.177  1.4544 -0.6981  1.8896
73020SOL     OW28989  13.116   5.591   9.234 -0.2264 -0.0612 -0.2639
73020SOL    HW128990  13.132   5.561   9.323 -1.7882  0.1527  0.1069
73020SOL    HW228991  13.181   5.544   9.181 -0.4571 -1.5838  0.7421
73021SOL     OW28992   7.613   1.094  11.077  0.6114  0.2310 -0.2402
73021SOL    HW128993   7.585   1.172  11.124  0.2913  0.1219 -0.2482
73021SOL    HW228994   7.674   1.127  11.010 -0.2240  0.5871 -0.8455
73022SOL     OW28995   6.551   3.773  10.761  0.1636  0.0460  0.3590
73022SOL    HW128996   6.478   3.767  10.699  0.1833  1.2841  0.1899
73022SOL    HW228997   6.533   3.852  10.812  1.9447  1.0417 -0.4554
73023SOL     OW28998   4.812   5.830   8.380  0.2882  0.4348  0.1806
73023SOL    HW128999   4.864   5.850   8.457  3.6760 -0.7689 -1.6102
73023SOL    HW229000   4.746   5.767   8.411  1.8602 -0.3976  2.0245
73024SOL     OW29001   7.232  10.611   3.656 -0.1673 -0.0198  0.2527
73024SOL    HW129002   7.202  10.607   3.747 -0.2258 -1.0446  0.2014
73024SOL    HW229003   7.271  10.525   3.640 -1.2459 -0.2984 -1.0546
73025SOL     OW29004   3.929   6.578   4.153 -0.3165 -0.4277 -0.0137
73025SOL    HW129005   3.844   6.537   4.136 -1.1676  1.7488 -1.3658
73025SOL    HW229006   3.929   6.597   4.246 -1.3106 -0.4432 -0.0013
73026SOL     OW29007   3.425   5.282   1.085  0.0070 -0.5908  0.4068
73026SOL    HW129008   3.481   5.247   1.015  2.9680 -0.7547  2.6755
73026SOL    HW229009   3.462   5.369   1.103 -0.8833 -0.4413  1.5875
73027SOL     OW29010   4.513   9.458   8.221  0.0821 -0.8090  0.0581
73027SOL    HW129011   4.418   9.451   8.229  0.1084 -1.1649  0.0987
73027SOL    HW229012   4.537   9.388   8.160  0.2165 -0.0760 -0.7500
73028SOL     OW29013   2.290   3.466   4.920 -0.0149 -0.2700  0.3858
73028SOL    HW129014   2.306   3.537   4.982 -0.4476 -0.2193  0.4378
73028SOL    HW229015   2.260   3.393   4.975  1.1194 -0.7358  0.4254
73029SOL     OW29016  12.196   4.623  11.358 -0.1644  0.2945 -0.5512
73029SOL    HW129017  12.255   4.683  11.404 -0.0516 -0.4838  0.3466
73029SOL    HW229018  12.118   4.676  11.341 -0.1643  0.6481  0.4469
73030SOL     OW29019   0.581   5.888   0.009 -0.3383 -0.2938  0.5695
73030SOL    HW129020   0.612   5.908   0.097  1.2182 -1.5934  0.3665
73030SOL    HW229021   0.624   5.952  -0.048  0.7930 -1.1111  0.4734
73031SOL     OW29022   1.149   1.825   9.811  0.3630 -0.0488 -0.0879
73031SOL    HW129023   1.110   1.738   9.801 -3.8229  1.5934  0.1753
73031SOL    HW229024   1.116   1.875   9.736 -0.9216  2.4199  2.0065
73032SOL     OW29025  10.315   9.901   3.312 -0.1893 -0.0724  0.0454
73032SOL    HW129026  10.340   9.927   3.401 -0.1304  0.4147 -0.1136
73032SOL    HW229027  10.345   9.810   3.305  0.5390  0.1473  0.2470
73033SOL     OW29028   3.392  12.753   2.546 -0.1893 -0.1682 -0.2284
73033SOL    HW129029   3.441  12.823   2.502 -1.1130  1.0185  0.5581
73033SOL    HW229030   3.421  12.758   2.637 -1.6777  0.5259  0.2396
73034SOL     OW29031  12.678  11.598   3.808 -0.5326  0.3346  0.5901
73034SOL    HW129032  12.705  11.620   3.719 -0.5154 -1.2196  0.1925
73034SOL    HW229033  12.608  11.661   3.828 -1.0708  0.2125 -0.8082
73035SOL     OW29034   2.142   3.354  12.399  0.7744 -0.2227  0.0533
73035SOL    HW129035   2.135   3.368  12.304  0.0418  0.0869  0.1469
73035SOL    HW229036   2.062   3.306  12.422 -0.4749  2.1101  0.9321
73036SOL     OW29037   8.197  12.521   4.852 -0.6426  0.1402  0.5155
73036SOL    HW129038   8.242  12.497   4.771 -1.0405 -2.3002  0.9702
73036SOL    HW229039   8.110  12.548   4.824 -0.3688  0.5669  0.0398
73037SOL     OW29040   0.441   0.540   4.311  0.6069 -0.1843  0.6210
73037SOL    HW129041   0.460   0.628   4.343  0.0424  0.1080  0.1684
73037SOL    HW229042   0.487   0.482   4.372  2.0418  0.4517  0.1900
73038SOL     OW29043   8.538   0.212  10.662  0.4678 -0.5747 -0.3558
73038SOL    HW129044   8.588   0.232  10.740  0.1773  1.9544 -0.7437
73038SOL    HW229045   8.450   0.192  10.694  0.4037  0.2392  0.0048
73039SOL     OW29046   4.823  12.183  11.670 -0.3108  0.2089 -0.0532
73039SOL    HW129047   4.898  12.237  11.694  0.2727  0.2213 -1.7763
73039SOL    HW229048   4.858  12.118  11.608 -1.6096 -0.1087 -0.4913
73040SOL     OW29049  10.645   6.343   1.778 -0.1400 -0.6205  0.1311
73040SOL    HW129050  10.688   6.302   1.853  1.3540 -0.2564 -0.4859
73040SOL    HW229051  10.615   6.428   1.810 -2.7619 -1.8575  1.2657
73041SOL     OW29052   3.346   3.326   8.964  0.0100  0.1631  0.0021
73041SOL    HW129053   3.269   3.269   8.958  0.5484 -0.8237  1.6189
73041SOL    HW229054   3.417   3.274   8.927  0.2941  0.2201  0.4606
73042SOL     OW29055   9.110   8.122   2.338 -0.0727  0.1671 -0.1971
73042SOL    HW129056   9.137   8.214   2.332  0.6382  0.0116  0.4109
73042SOL    HW229057   9.146   8.082   2.259  0.2483  0.2632 -0.1034
73043SOL     OW29058  12.400   9.764   5.071 -0.2499 -0.0395  0.2116
73043SOL    HW129059  12.450   9.813   5.006  1.1112 -1.2790  0.2727
73043SOL    HW229060  12.311   9.762   5.036  0.4838 -0.8745 -1.7622
73044SOL     OW29061  11.096   0.598   4.669 -0.1402  0.0266 -0.0910
73044SOL    HW129062  11.090   0.662   4.740  0.8098 -1.3271  1.2791
73044SOL    HW229063  11.181   0.557   4.681 -1.2071 -2.3649 -0.1296
73045SOL     OW29064   1.524   2.064   0.091 -0.1817  0.0542 -0.3906
73045SOL    HW129065   1.479   2.000   0.147  2.9535 -1.6257  0.4574
73045SOL    HW229066   1.591   2.013   0.045  0.7904  2.3373 -1.6700
73046SOL     OW29067   8.053   3.349   1.051 -0.1387  0.3310 -0.0846
73046SOL    HW129068   8.028   3.427   1.002  1.0776  0.4417 -0.5653
73046SOL    HW229069   8.145   3.336   1.030 -0.8438 -2.6372 -1.9267
73047SOL     OW29070   2.497  10.098   4.222 -0.2018  0.5890 -0.1115
73047SOL    HW129071   2.413  10.129   4.255 -1.4168  0.5889 -2.8940
73047SOL    HW229072   2.474  10.029   4.159  1.8719  0.4687 -0.8154
73048SOL     OW29073   1.961   3.065   5.333 -0.1683  0.1530  0.2410
73048SOL    HW129074   2.028   3.111   5.285  0.1033 -0.7563 -0.2702
73048SOL    HW229075   1.991   3.065   5.424  0.0671  0.5412  0.1604
73049SOL     OW29076   7.597   6.879   2.480 -0.2264  0.3088 -0.5411
73049SOL    HW129077   7.673   6.922   2.520 -0.6745  0.6135 -0.0080
73049SOL    HW229078   7.626   6.857   2.391  0.5839  0.1549 -0.2472
73050SOL     OW29079   3.410   5.589   7.532  0.2824 -0.4930  0.2585
73050SOL    HW129080   3.471   5.527   7.572 -1.5490 -2.5182  0.1098
73050SOL    HW229081   3.386   5.648   7.603  0.3713 -1.3497  1.0282
73051SOL     OW29082   6.998   5.547   3.889  0.3325  0.7888 -0.1972
73051SOL    HW129083   7.046   5.465   3.877 -0.9501 -0.3411  1.7658
73051SOL    HW229084   6.931   5.546   3.821  1.9520  1.5591 -1.8746
73052SOL     OW29085   5.998   8.909   1.971 -0.4577  0.0956  0.1131
73052SOL    HW129086   5.940   8.907   1.894  1.1132 -1.4177 -1.1029
73052SOL    HW229087   6.078   8.952   1.939  0.1687 -0.4266  0.9378
73053SOL     OW29088   7.156   7.634   2.635 -1.0290 -0.0753 -0.3020
73053SOL    HW129089   7.078   7.688   2.649 -2.2516 -2.1671  1.6211
73053SOL    HW229090   7.222   7.674   2.691 -2.1539 -0.9109  1.7476
73054SOL     OW29091   4.603   3.963   1.091  0.0516 -0.5203  0.3885
73054SOL    HW129092   4.667   3.896   1.116  0.2265 -0.9092 -1.0145
73054SOL    HW229093   4.583   3.945   0.999 -0.3586  0.9850  0.1435
73055SOL     OW29094   3.309   0.568   3.575  0.1652  0.3309 -0.1102
73055SOL    HW129095   3.347   0.644   3.529  0.7749  0.2445  0.2390
73055SOL    HW229096   3.358   0.563   3.657 -1.1284  0.6623  0.6983
73056SOL     OW29097   2.888   6.981   7.820 -0.4996 -0.2796  0.5244
73056SOL    HW129098   2.839   6.965   7.740  0.3863  0.1299 -0.1217
73056SOL    HW229099   2.835   6.942   7.889 -0.9516 -1.2412 -0.3389
73057SOL     OW29100  11.754  12.862   1.758  0.1442 -0.4209  0.8480
73057SOL    HW129101  11.735  12.775   1.791  0.3536 -0.7605  0.0900
73057SOL    HW229102  11.704  12.869   1.676  0.8999 -0.2057  0.3909
73058SOL     OW29103   7.052   7.966   3.092  0.1173  0.0664  0.2555
73058SOL    HW129104   7.105   7.892   3.121 -0.5071 -0.2264  0.6600
73058SOL    HW229105   7.116   8.037   3.079  0.4573  0.1678  2.2015
73059SOL     OW29106   2.391   4.051   4.218  0.4776 -0.1188  0.1003
73059SOL    HW129107   2.361   4.050   4.309  2.0775  0.1758  0.6615
73059SOL    HW229108   2.330   4.109   4.173  0.7393  1.2153  1.3945
73060SOL     OW29109   6.902   2.305  11.843 -0.0405 -0.3212 -0.1322
73060SOL    HW129110   6.841   2.369  11.880 -0.4886  0.1009 -1.5340
73060SOL    HW229111   6.968   2.357  11.798 -0.1778 -0.8196 -0.9425
73061SOL     OW29112  11.945  11.332  10.453  0.4432 -0.0443 -0.4371
73061SOL    HW129113  11.971  11.241  10.449  1.1309  0.1700 -0.9993
73061SOL    HW229114  12.024  11.381  10.429 -0.0920  0.6676 -0.7889
73062SOL     OW29115   0.282   6.756   6.465 -0.4986 -0.2977 -0.1762
73062SOL    HW129116   0.215   6.698   6.427 -0.6681 -1.0551  1.2161
73062SOL    HW229117   0.295   6.823   6.399 -4.3652  1.2524  0.3642
73063SOL     OW29118   3.784   7.375   7.484 -0.0106  0.4262 -0.0500
73063SOL    HW129119   3.874   7.346   7.503 -0.1345  0.4288  0.5703
73063SOL    HW229120   3.795   7.463   7.448  0.3658 -0.3268 -1.9007
73064SOL     OW29121   4.868   7.940   1.406  0.2557  0.8567 -0.3179
73064SOL    HW129122   4.937   7.908   1.348 -0.3037  1.9095 -1.6362
73064SOL    HW229123   4.884   7.896   1.489  2.1325  0.5963 -0.7635
73065SOL     OW29124   8.213  10.373   5.480  0.7844  0.3556  0.1682
73065SOL    HW129125   8.163  10.411   5.553 -0.0606  0.4498 -0.4452
73065SOL    HW229126   8.221  10.444   5.416  0.2216 -0.1418 -0.4701
73066SOL     OW29127   8.746   2.422  11.978  0.3225 -0.0119 -0.6492
73066SOL    HW129128   8.680   2.388  12.038  1.8841 -0.0255  1.1310
73066SOL    HW229129   8.734   2.517  11.979  0.6648  0.0253  0.0841
73067SOL     OW29130   7.615   5.428  10.300  0.0701  0.2444 -0.0190
73067SOL    HW129131   7.579   5.412  10.212 -0.2005  2.1873 -0.3001
73067SOL    HW229132   7.699   5.470  10.285  1.3966 -2.0225  0.6732
73068SOL     OW29133  12.775   8.993   5.702 -0.3160 -0.3018 -0.1867
73068SOL    HW129134  12.804   9.063   5.760  0.1281 -1.4597  1.0602
73068SOL    HW229135  12.839   8.992   5.631  0.4600 -0.3124  0.5038
73069SOL     OW29136   2.919   2.359   9.722 -0.0949 -0.1538  0.7075
73069SOL    HW129137   2.830   2.385   9.700 -0.1605 -0.4296  0.6452
73069SOL    HW229138   2.927   2.378   9.816  0.2088  1.0835  0.4380
73070SOL     OW29139   4.190   4.610   7.695  0.1289 -0.0276  0.2849
73070SOL    HW129140   4.273   4.608   7.646  0.4658  1.2726  0.7850
73070SOL    HW229141   4.133   4.666   7.642  0.2039  0.6479  0.9063
73071SOL     OW29142   3.552  12.769   2.798 -0.6650  0.2034  0.6798
73071SOL    HW129143   3.648  12.769   2.806 -0.2635  0.6523 -2.6012
73071SOL    HW229144   3.524  12.845   2.849  0.5481 -0.5698  2.6302
73072SOL     OW29145   1.130   0.695   1.509 -0.0074 -0.6046  0.0497
73072SOL    HW129146   1.074   0.737   1.443 -0.1098  1.3874  1.2954
73072SOL    HW229147   1.183   0.767   1.544  0.8786 -1.8157  1.3114
73073SOL     OW29148   1.509  13.011   0.099  0.3813  0.2025  0.4377
73073SOL    HW129149   1.585  13.060   0.068  0.2347  0.6429  0.7585
73073SOL    HW229150   1.440  13.078   0.109  0.1292 -0.0959  0.7161
73074SOL     OW29151  10.960   9.857   9.274 -0.4847  0.2261  0.5607
73074SOL    HW129152  11.004   9.941   9.260 -1.5372  0.7003 -0.0006
73074SOL    HW229153  11.023   9.805   9.324  0.5247  1.0395  0.1669
73075SOL     OW29154   9.365   8.419   3.661 -0.3262 -0.2733 -0.0625
73075SOL    HW129155   9.307   8.462   3.724 -2.1583 -0.9410 -1.1928
73075SOL    HW229156   9.364   8.477   3.585  2.3410  0.8374  0.6179
73076SOL     OW29157   8.551  13.163  13.028 -0.6589 -0.1612 -0.3206
73076SOL    HW129158   8.475  13.221  13.034 -0.1540  0.4554  0.2288
73076SOL    HW229159   8.609  13.193  13.097  0.3825 -0.2109 -1.1581
73077SOL     OW29160   5.999   0.786   3.695  0.1254  0.4061  0.1851
73077SOL    HW129161   6.054   0.854   3.734 -0.3973  0.8409  0.1723
73077SOL    HW229162   6.046   0.759   3.616  0.3957  0.6619  0.2569
73078SOL     OW29163   4.570   7.128   7.821 -0.1210  0.5969  0.5324
73078SOL    HW129164   4.492   7.172   7.786 -1.8720 -1.4421  1.6807
73078SOL    HW229165   4.551   7.116   7.914  1.5431 -0.0670  0.8174
73079SOL     OW29166   6.913  12.954   9.138  0.0355 -0.2723 -0.0557
73079SOL    HW129167   6.875  13.009   9.207 -2.1243 -0.2952 -1.1186
73079SOL    HW229168   6.838  12.905   9.103  1.3477 -1.4878 -1.3157
73080SOL     OW29169  13.120  12.150   6.473 -0.2948  0.6595 -0.7648
73080SOL    HW129170  13.216  12.147   6.469 -0.0685  0.8112  2.2108
73080SOL    HW229171  13.093  12.062   6.448  0.8234 -0.1278  0.5960
73081SOL     OW29172   3.850   9.330   2.135  0.3675  0.8536  0.1835
73081SOL    HW129173   3.872   9.422   2.147  2.4216  0.6793 -1.6634
73081SOL    HW229174   3.887   9.286   2.212 -1.6877  1.6142  1.7111
73082SOL     OW29175  12.383   8.661   3.685  0.0706  0.0142 -0.4558
73082SOL    HW129176  12.422   8.584   3.644  0.6480  1.0913 -2.0202
73082SOL    HW229177  12.299   8.671   3.640  1.5597  2.3804 -3.0294
73083SOL     OW29178   5.662   9.480  10.075 -0.2007 -0.2389  0.5083
73083SOL    HW129179   5.590   9.440  10.124  1.1882 -1.8507  1.3254
73083SOL    HW229180   5.729   9.498  10.141  0.2618  1.0312 -0.2664
73084SOL     OW29181   7.693   7.520   2.205 -0.3279  0.2012 -0.4589
73084SOL    HW129182   7.743   7.449   2.165  0.0011  0.3134 -0.2487
73084SOL    HW229183   7.645   7.559   2.132 -1.1052 -0.7142 -0.4577
73085SOL     OW29184   5.285   2.473   3.504  0.5159 -0.0782  0.5052
73085SOL    HW129185   5.330   2.390   3.487  0.0766 -0.6182  1.8213
73085SOL    HW229186   5.199   2.463   3.463  1.2155  0.6122 -1.2405
73086SOL     OW29187   7.649   6.840   6.241 -0.1406  0.4249  0.2315
73086SOL    HW129188   7.557   6.859   6.255 -0.1033  0.7176  0.0907
73086SOL    HW229189   7.661   6.752   6.276  0.1194  1.3910  2.7562
73087SOL     OW29190  13.066   7.785   1.045 -0.0705 -0.0867 -0.9778
73087SOL    HW129191  13.107   7.869   1.020 -0.1335  0.3198  0.2479
73087SOL    HW229192  12.995   7.810   1.104  0.1742 -1.0366 -0.2721
73088SOL     OW29193   3.628   7.513  11.748  0.2196 -0.2366 -0.0062
73088SOL    HW129194   3.654   7.443  11.808  0.5669 -0.5969 -0.5696
73088SOL    HW229195   3.710   7.557  11.727 -0.0394  0.5523  0.5980
73089SOL     OW29196   0.116   1.419   4.175  0.1467  0.3357 -0.0391
73089SOL    HW129197   0.197   1.448   4.216  0.9516  0.1629 -1.4519
73089SOL    HW229198   0.143   1.357   4.108 -1.2594 -0.6653  0.2732
73090SOL     OW29199  12.381   8.277   4.642 -0.5408 -0.0545  0.4175
73090SOL    HW129200  12.293   8.302   4.672 -1.0699 -0.7245 -0.5411
73090SOL    HW229201  12.413   8.217   4.709  0.2733  2.1235  2.1432
73091SOL     OW29202   1.989   3.961  11.606 -0.3339  0.3806  0.2393
73091SOL    HW129203   2.021   3.883  11.652 -1.9625 -1.2664 -1.2450
73091SOL    HW229204   2.065   4.018  11.599  1.3282 -1.7460  0.0257
73092SOL     OW29205   5.384   8.050   7.247 -0.4238 -0.6504 -0.0886
73092SOL    HW129206   5.446   8.093   7.189 -1.6101  0.6392 -0.4593
73092SOL    HW229207   5.436   8.025   7.323  0.6059  0.1440 -0.5090
73093SOL     OW29208  10.365   9.011   4.883  0.1253 -0.1831  0.0530
73093SOL    HW129209  10.399   9.010   4.794 -1.6247 -1.9613 -0.6633
73093SOL    HW229210  10.279   8.970   4.877 -0.5694  0.7278  2.3829
73094SOL     OW29211   1.228   2.930  10.640  0.6247 -0.2257  0.2103
73094SOL    HW129212   1.262   2.944  10.728  0.0683  1.2876  0.2143
73094SOL    HW229213   1.132   2.933  10.650  0.5561  0.4834 -0.4993
73095SOL     OW29214   5.135   3.674  11.297 -0.2662 -0.6328 -0.2929
73095SOL    HW129215   5.151   3.681  11.203 -0.3104  0.8343 -0.2140
73095SOL    HW229216   5.077   3.747  11.318 -0.3126 -0.9726  0.8635
73096SOL     OW29217   3.470  11.772   2.990  0.6956 -0.4917 -0.0379
73096SOL    HW129218   3.415  11.697   2.966 -0.0960 -0.3537  1.2472
73096SOL    HW229219   3.413  11.848   2.977  1.6750 -0.0216 -1.8890
73097SOL     OW29220   2.468   7.379  10.362  0.2040  0.0471 -0.5542
73097SOL    HW129221   2.470   7.345  10.451 -0.0013  0.2168 -0.4850
73097SOL    HW229222   2.558   7.367  10.330  0.4998  0.7809 -0.0239
73098SOL     OW29223   4.163  10.682   1.478 -0.0360  0.9279 -0.0847
73098SOL    HW129224   4.069  10.697   1.487 -0.2156  0.3510 -0.8492
73098SOL    HW229225   4.175  10.658   1.386  0.5632 -1.0289  0.4509
73099SOL     OW29226   2.058   2.935   8.132 -0.0475 -0.1526 -0.4312
73099SOL    HW129227   2.114   2.868   8.093 -0.9274 -0.7055 -0.7870
73099SOL    HW229228   2.044   2.906   8.222  0.7166  0.3093 -0.1507
73100SOL     OW29229   8.579  12.328  11.644 -0.4136  0.9163 -0.0145
73100SOL    HW129230   8.636  12.342  11.718  0.0725 -2.0864  0.3241
73100SOL    HW229231   8.502  12.383  11.661 -1.3947 -1.3339  4.0094
73101SOL     OW29232   9.246   8.929  12.342 -0.1416  0.6797 -0.2608
73101SOL    HW129233   9.335   8.960  12.322  0.3924 -0.4628  0.2605
73101SOL    HW229234   9.257   8.874  12.419 -1.4565  1.2275  0.3456
73102SOL     OW29235  12.715   2.465   5.391  0.4635  0.8363  0.0105
73102SOL    HW129236  12.736   2.477   5.299  1.8237  0.9854  0.3172
73102SOL    HW229237  12.784   2.407   5.424  0.5281  1.5197  1.1342
73103SOL     OW29238  12.655  11.146   1.943 -0.1400  0.3430 -0.0550
73103SOL    HW129239  12.641  11.216   2.007  0.6894  1.6228 -1.2364
73103SOL    HW229240  12.572  11.139   1.896 -0.7153 -0.5231  1.0104
73104SOL     OW29241   2.812  12.004   1.025 -0.6248  0.0406  0.4658
73104SOL    HW129242   2.736  11.946   1.021 -1.0438  0.5091  1.3915
73104SOL    HW229243   2.817  12.031   1.116 -0.1339  1.0683  0.1460
73105SOL     OW29244  10.812   8.451   3.093  0.1903 -0.2056  0.0081
73105SOL    HW129245  10.876   8.413   3.032 -1.0189 -1.1442 -0.7334
73105SOL    HW229246  10.749   8.496   3.036 -0.4959 -0.3610  0.6337
73106SOL     OW29247   4.315   9.681   6.529 -0.2444 -0.2605  0.0571
73106SOL    HW129248   4.365   9.762   6.540 -0.2214 -0.3540  0.7013
73106SOL    HW229249   4.325   9.659   6.436  0.4263  0.0396  0.0488
73107SOL     OW29250   0.767  10.467   9.360  0.7144 -0.4334  0.0332
73107SOL    HW129251   0.831  10.410   9.319 -0.9495 -1.8409 -0.7535
73107SOL    HW229252   0.718  10.506   9.287 -1.0957 -1.5501  0.5764
73108SOL     OW29253   6.780   0.166   7.545 -0.2367  0.1035 -0.4225
73108SOL    HW129254   6.767   0.125   7.630  2.0889 -1.2173 -0.5929
73108SOL    HW229255   6.754   0.098   7.482  0.1579  0.2405 -0.7365
73109SOL     OW29256   0.984  12.267   9.072 -0.5182 -0.1100  0.1973
73109SOL    HW129257   1.078  12.287   9.065 -0.6942 -0.0323 -3.9939
73109SOL    HW229258   0.940  12.344   9.037 -2.1534 -0.6394  0.9774
73110SOL     OW29259   7.795  12.615   7.254  0.0978 -0.2275  0.1412
73110SOL    HW129260   7.855  12.687   7.237 -0.8369  0.9046  1.3712
73110SOL    HW229261   7.771  12.582   7.167  0.1917  1.2692 -0.4866
73111SOL     OW29262   4.691  10.276   6.907  0.0970 -0.1643 -0.5184
73111SOL    HW129263   4.660  10.243   6.992 -0.5289  0.3305 -0.5477
73111SOL    HW229264   4.786  10.265   6.910  0.0382 -0.5635  0.0702
73112SOL     OW29265   8.568   5.953   1.954  0.0629 -0.1947  0.0566
73112SOL    HW129266   8.519   5.942   1.872 -0.0163 -1.7248  0.2798
73112SOL    HW229267   8.501   5.949   2.022  0.0356  1.7930  0.2121
73113SOL     OW29268   8.628   0.892   8.482  0.0752 -0.2267  0.0283
73113SOL    HW129269   8.569   0.964   8.458  0.7278  0.5364  0.6573
73113SOL    HW229270   8.638   0.901   8.576 -1.4037 -2.3670  0.4444
73114SOL     OW29271   2.230   5.915   4.770  0.0305  0.4676 -0.0498
73114SOL    HW129272   2.236   5.827   4.806 -1.5686  0.6698  0.8158
73114SOL    HW229273   2.263   5.972   4.840  0.0125  0.6393 -0.1798
73115SOL     OW29274   8.787   4.200   3.213  0.3172  0.4525 -0.7225
73115SOL    HW129275   8.789   4.104   3.217 -2.1208  0.0246 -4.5522
73115SOL    HW229276   8.812   4.221   3.124 -2.0897  3.1448 -0.9176
73116SOL     OW29277  10.445   3.711   5.025  0.4770 -0.1748  0.1592
73116SOL    HW129278  10.440   3.625   4.984  0.4849 -1.0577  1.9443
73116SOL    HW229279  10.451   3.693   5.119  2.1552  1.7069  0.4924
73117SOL     OW29280   9.909   9.561  10.855 -0.0383 -0.3345  0.4218
73117SOL    HW129281   9.980   9.499  10.838  0.4125  0.5919 -1.2593
73117SOL    HW229282   9.829   9.509  10.846  0.3702 -0.9468  0.3199
73118SOL     OW29283   3.297   6.008   5.357 -0.0260 -0.0869 -0.1889
73118SOL    HW129284   3.275   6.053   5.439  1.1287 -0.0740  0.1250
73118SOL    HW229285   3.264   6.065   5.288 -1.9169 -0.5564  0.2390
73119SOL     OW29286  10.852  12.565  11.740  0.5421 -0.4212 -0.1487
73119SOL    HW129287  10.852  12.643  11.685 -1.7377 -0.7284 -0.6663
73119SOL    HW229288  10.927  12.514  11.709 -0.8951 -0.8142 -3.3943
73120SOL     OW29289   1.839  11.846   6.000  0.1005 -0.2076 -0.2467
73120SOL    HW129290   1.919  11.881   5.960  1.1431 -0.6142  1.3860
73120SOL    HW229291   1.808  11.781   5.937  1.2792 -0.3137 -0.7564
73121SOL     OW29292   3.416   4.164   6.247  0.1938  0.1325  0.6114
73121SOL    HW129293   3.391   4.255   6.231 -1.2488 -0.1260  1.2333
73121SOL    HW229294   3.472   4.141   6.173 -0.8556  1.0059 -0.4997
73122SOL     OW29295   9.094  10.743  12.120 -0.7923 -0.6901 -0.1740
73122SOL    HW129296   9.144  10.807  12.070 -1.8382 -0.6174 -1.1466
73122SOL    HW229297   9.129  10.751  12.209 -0.3200  0.6181 -0.4522
73123SOL     OW29298  10.939   0.053   2.270  0.5867  0.5648  0.2123
73123SOL    HW129299  10.956   0.144   2.245 -1.8733  0.7735 -1.0876
73123SOL    HW229300  10.934   0.006   2.186  0.3357 -0.4377  0.7734
73124SOL     OW29301  10.617  13.146   6.886 -0.1240  0.4882  0.2034
73124SOL    HW129302  10.568  13.093   6.949  0.8236 -0.6179  0.0320
73124SOL    HW229303  10.698  13.099   6.872  0.7346  1.9655 -0.0300
73125SOL     OW29304   0.767   4.228  11.960  0.6727 -0.2680  0.2854
73125SOL    HW129305   0.734   4.308  11.920 -1.3288 -1.0768  0.2194
73125SOL    HW229306   0.778   4.249  12.052 -1.9067 -0.4423  0.7052
73126SOL     OW29307   4.490   1.690  11.764 -0.7409 -0.4696  0.1252
73126SOL    HW129308   4.575   1.733  11.776 -0.7138  0.4203 -2.6076
73126SOL    HW229309   4.509   1.597  11.773  0.6621 -0.3127 -0.8772
73127SOL     OW29310   8.726   4.296  11.412 -0.0111  0.3633  0.2014
73127SOL    HW129311   8.646   4.245  11.399 -0.2117  0.1348  2.1004
73127SOL    HW229312   8.700   4.387  11.396 -0.0348  0.0807 -1.5892
73128SOL     OW29313  11.578  12.298   0.274  0.4111 -0.0623 -0.4851
73128SOL    HW129314  11.608  12.207   0.266  3.5681  0.9486 -1.5291
73128SOL    HW229315  11.574  12.313   0.369  0.8004 -0.9961 -0.3112
73129SOL     OW29316   7.595   1.151  10.208 -0.0070  0.1345  0.2266
73129SOL    HW129317   7.540   1.074  10.201 -1.1016  1.0026 -1.2527
73129SOL    HW229318   7.568   1.207  10.135  2.2786  0.9606 -0.0689
73130SOL     OW29319   5.400   4.773  12.203  0.7395  0.3707  0.2955
73130SOL    HW129320   5.476   4.820  12.168  0.5531  0.1227 -0.4533
73130SOL    HW229321   5.325   4.822  12.170  0.5643  0.4190  0.7598
73131SOL     OW29322   1.440   9.210   0.777  0.0374  0.3137 -0.3575
73131SOL    HW129323   1.498   9.286   0.765  2.0032 -0.7552  1.5637
73131SOL    HW229324   1.362   9.246   0.819 -0.1344  1.6075 -1.7281
73132SOL     OW29325  11.954   7.015   6.468 -0.3995 -0.3657  0.3034
73132SOL    HW129326  11.989   7.102   6.485 -1.4271 -0.2508  1.9455
73132SOL    HW229327  12.027   6.969   6.425  0.3967  1.0505  0.0495
73133SOL     OW29328  13.090   4.632   0.247  0.6494 -0.0866 -0.2051
73133SOL    HW129329  13.022   4.679   0.198  0.9973 -0.2762 -0.8853
73133SOL    HW229330  13.129   4.699   0.303 -0.6840 -0.1686  0.8586
73134SOL     OW29331   9.908   1.607   2.529  0.4752 -0.4003 -0.5949
73134SOL    HW129332   9.918   1.564   2.444  2.7091  1.1334 -1.2154
73134SOL    HW229333   9.980   1.574   2.582  1.0306  1.0031 -0.4186
73135SOL     OW29334  11.670   9.228   0.455  0.0939 -0.1478 -0.2160
73135SOL    HW129335  11.758   9.265   0.448  0.8707 -1.8140  0.3699
73135SOL    HW229336  11.633   9.238   0.367  1.0148  0.1798 -0.5818
73136SOL     OW29337   2.276   5.653   4.905 -0.0010  0.1227  0.0719
73136SOL    HW129338   2.312   5.654   4.994 -0.4677 -1.6894  0.3176
73136SOL    HW229339   2.349   5.626   4.850  0.0772  0.4719  0.0002
73137SOL     OW29340   7.211   9.123  11.183 -0.1961 -0.8995  0.0220
73137SOL    HW129341   7.269   9.136  11.258  0.0203 -0.8691 -0.1496
73137SOL    HW229342   7.123   9.141  11.218 -0.1482 -1.3228  0.3773
73138SOL     OW29343   1.453   6.032   9.597 -0.3150 -0.2910  0.0497
73138SOL    HW129344   1.548   6.027   9.592 -0.0462  2.2612  1.1322
73138SOL    HW229345   1.423   6.017   9.508  1.0865 -1.0720 -0.3103
73139SOL     OW29346   6.805   4.600   2.416  0.2359 -0.3925  0.4299
73139SOL    HW129347   6.721   4.595   2.460  0.3605 -1.9817  0.5504
73139SOL    HW229348   6.797   4.539   2.342  0.5792  1.0152 -0.8247
73140SOL     OW29349  10.281   1.319   4.948 -0.1037 -0.6225 -0.3898
73140SOL    HW129350  10.275   1.411   4.925  1.4992 -0.3341  0.2169
73140SOL    HW229351  10.191   1.293   4.968 -0.5700  0.8100 -0.5244
73141SOL     OW29352   5.732   4.013  10.466  0.3777  0.3196 -0.1062
73141SOL    HW129353   5.789   4.036  10.540  0.1579  1.8614 -0.3870
73141SOL    HW229354   5.791   4.009  10.391  0.5292 -0.8121  0.0524
73142SOL     OW29355   6.934   5.177   2.805 -0.2459  0.3400 -0.0346
73142SOL    HW129356   6.891   5.097   2.837 -0.1490  0.4140  0.2842
73142SOL    HW229357   6.996   5.146   2.740 -0.8835  0.2429 -0.6057
73143SOL     OW29358   1.200  12.758   1.373 -0.0427  0.1327 -0.1093
73143SOL    HW129359   1.168  12.766   1.463 -0.9053  0.1496 -0.4065
73143SOL    HW229360   1.266  12.826   1.365 -0.6951  0.8202  0.2078
73144SOL     OW29361   5.369   7.120   1.379 -0.1743  0.1230 -0.2157
73144SOL    HW129362   5.344   7.190   1.319  0.1910  0.7577  0.3552
73144SOL    HW229363   5.383   7.044   1.323  1.4897  1.0400 -1.1148
73145SOL     OW29364   2.444  12.819   0.657 -0.3034  0.3192 -0.4240
73145SOL    HW129365   2.440  12.765   0.579 -1.0182 -0.0644 -0.1355
73145SOL    HW229366   2.357  12.811   0.697  0.2281  0.0235  0.7231
73146SOL     OW29367  11.520   9.320   9.685 -0.0341 -0.2405  0.3653
73146SOL    HW129368  11.433   9.287   9.710 -0.7381 -1.1540 -2.8434
73146SOL    HW229369  11.571   9.242   9.668  1.2750  0.3075  1.6155
73147SOL     OW29370  10.446   6.507   8.399 -0.2374 -0.3146  0.3855
73147SOL    HW129371  10.468   6.462   8.318  0.8403  0.2494  0.3503
73147SOL    HW229372  10.480   6.450   8.468 -1.7543 -1.1360  0.5074
73148SOL     OW29373  10.384   3.851   5.612 -0.5153 -0.1398 -0.1888
73148SOL    HW129374  10.297   3.888   5.626 -0.4633  0.5201 -1.4283
73148SOL    HW229375  10.424   3.910   5.548  1.0542 -0.1215  0.7711
73149SOL     OW29376   6.799   4.309   3.159 -0.7087 -0.2177 -0.6551
73149SOL    HW129377   6.863   4.379   3.176  1.7319 -2.4573 -0.0672
73149SOL    HW229378   6.755   4.297   3.243 -0.2356 -0.2388 -0.4071
73150SOL     OW29379   2.921   8.839   3.837  0.1640 -0.0853 -0.1779
73150SOL    HW129380   2.921   8.909   3.903  0.3253 -0.8050  0.6048
73150SOL    HW229381   2.831   8.836   3.806 -0.2537 -0.6609  1.0329
73151SOL     OW29382   3.335   2.354   6.785 -0.6811  0.4159 -0.5186
73151SOL    HW129383   3.369   2.433   6.827 -2.3297  0.3700  1.0065
73151SOL    HW229384   3.330   2.377   6.692  1.0673  1.2591 -0.4563
73152SOL     OW29385   4.731   9.569  11.217 -0.4765 -0.1725 -0.0269
73152SOL    HW129386   4.665   9.560  11.149  0.6474 -1.1538 -1.0488
73152SOL    HW229387   4.762   9.659  11.208 -0.7122 -0.1298 -0.4688
73153SOL     OW29388   8.433  12.534   6.462 -0.2251  0.2863  0.4949
73153SOL    HW129389   8.520  12.524   6.423 -0.3784 -2.7627  0.7480
73153SOL    HW229390   8.444  12.605   6.526  2.0188  0.0760  0.4212
73154SOL     OW29391   7.154  10.747  10.920 -0.7489 -0.4958 -0.8020
73154SOL    HW129392   7.213  10.822  10.925 -1.2096 -0.2067  0.6996
73154SOL    HW229393   7.097  10.756  10.995 -0.1315 -2.9348  0.0578
73155SOL     OW29394   9.836   7.652   4.897 -0.3966 -0.6479  1.0751
73155SOL    HW129395   9.789   7.637   4.979  1.9469  1.2330  2.8961
73155SOL    HW229396   9.833   7.746   4.884  0.3363 -0.7981 -0.3754
73156SOL     OW29397   2.393   1.740  11.173  0.5798  0.1642 -0.3160
73156SOL    HW129398   2.305   1.748  11.137  1.0181  0.2258 -1.3940
73156SOL    HW229399   2.390   1.792  11.254 -0.1102  0.9389 -0.8198
73157SOL     OW29400  13.111   5.065   1.541 -0.0162  0.2716 -0.1465
73157SOL    HW129401  13.197   5.087   1.578  0.8500 -0.9629 -1.3065
73157SOL    HW229402  13.124   5.072   1.446 -1.1515 -0.1377 -0.3434
73158SOL     OW29403  13.061   1.205   5.788  0.1045 -0.3308  0.1791
73158SOL    HW129404  13.046   1.144   5.716 -0.2040 -1.2490  1.0015
73158SOL    HW229405  12.986   1.264   5.785  0.2320 -0.1873 -0.4106
73159SOL     OW29406  12.244  10.708   9.176  0.2650  0.1543  0.3664
73159SOL    HW129407  12.206  10.789   9.145  1.4726  0.8954  0.7442
73159SOL    HW229408  12.200  10.690   9.259 -0.6982 -0.1196 -0.1941
73160SOL     OW29409   1.663   2.039   9.002  0.5390  0.1378  0.0851
73160SOL    HW129410   1.628   2.127   8.990 -1.4915 -0.2508  2.5210
73160SOL    HW229411   1.620   2.006   9.080  1.4269 -2.9603 -0.6024
73161SOL     OW29412   9.481   9.067   4.484 -0.4925 -0.1185  0.6135
73161SOL    HW129413   9.466   9.021   4.402 -1.3908  0.9425  0.1583
73161SOL    HW229414   9.562   9.117   4.469 -0.2326 -0.5263  0.6490
73162SOL     OW29415   2.210   0.241  11.489 -0.4549  0.0870  0.1226
73162SOL    HW129416   2.290   0.246  11.540  0.9171 -1.2145 -1.7821
73162SOL    HW229417   2.237   0.262  11.399 -1.9724 -1.5776 -0.7830
73163SOL     OW29418  11.474   6.926   7.863 -0.6630 -0.1580  0.2870
73163SOL    HW129419  11.390   6.954   7.899 -1.0078 -2.7278  1.7353
73163SOL    HW229420  11.451   6.869   7.789 -0.2637 -1.1799  0.9233
73164SOL     OW29421   2.059   1.845   1.025 -0.4954 -0.5180 -0.1546
73164SOL    HW129422   1.995   1.823   0.958 -0.3505 -1.0275 -0.1282
73164SOL    HW229423   2.104   1.763   1.043 -1.0156 -0.5579  1.0748
73165SOL     OW29424   6.592   7.703  10.034  0.0285 -0.3852  0.0813
73165SOL    HW129425   6.498   7.688  10.043 -0.2626  0.9435 -0.5764
73165SOL    HW229426   6.616   7.754  10.112  0.8523 -3.2739  1.8735
73166SOL     OW29427  11.297   6.861   1.307  0.9489  0.6383  0.1902
73166SOL    HW129428  11.366   6.866   1.374  2.2761 -0.2739 -1.0544
73166SOL    HW229429  11.322   6.786   1.253 -2.0165 -0.8678  0.7415
73167SOL     OW29430   1.496   6.240   2.771  0.0729 -1.1312 -0.0005
73167SOL    HW129431   1.549   6.303   2.721  1.8254 -0.4526  2.5346
73167SOL    HW229432   1.409   6.247   2.732  1.5712 -1.7757 -3.9092
73168SOL     OW29433   7.646  11.852   1.483 -0.2731 -0.0801  0.5980
73168SOL    HW129434   7.722  11.875   1.428 -0.9232 -0.4017 -0.4751
73168SOL    HW229435   7.683  11.802   1.556  0.5542 -0.2434  0.0810
73169SOL     OW29436   5.220   8.735   1.481  0.2890  0.1320  0.0297
73169SOL    HW129437   5.134   8.738   1.524 -0.3335  1.0380 -1.1979
73169SOL    HW229438   5.227   8.645   1.448  0.3795 -0.3065  1.1946
73170SOL     OW29439   2.937  12.447   5.329  0.0895 -0.5047  0.1249
73170SOL    HW129440   2.989  12.505   5.384  0.1046  0.3003 -0.7158
73170SOL    HW229441   2.994  12.427   5.255 -1.2897  1.6731 -1.6328
73171SOL     OW29442   2.603   5.868   0.716 -0.2701 -0.3370  0.5385
73171SOL    HW129443   2.620   5.775   0.729  0.0705 -0.1214  1.8313
73171SOL    HW229444   2.610   5.882   0.622 -0.9386 -1.7268  0.2661
73172SOL     OW29445  11.908   9.730   7.287  0.8553  0.3807  0.1820
73172SOL    HW129446  11.993   9.698   7.257  0.0826 -0.9797 -0.6652
73172SOL    HW229447  11.909   9.824   7.265  0.9669 -0.2093 -2.7402
73173SOL     OW29448  10.216   4.094   8.439 -0.0962 -0.0314 -0.3360
73173SOL    HW129449  10.293   4.088   8.496  0.9061  0.7293 -1.5428
73173SOL    HW229450  10.146   4.051   8.488  1.0652 -0.6326  0.8581
73174SOL     OW29451   7.600  10.574   8.199 -0.7282  0.1415 -0.4060
73174SOL    HW129452   7.638  10.514   8.135 -1.7718 -1.0644  0.0678
73174SOL    HW229453   7.574  10.650   8.148  0.0423 -0.0558 -1.1195
73175SOL     OW29454  12.312   4.643   3.032 -0.2418  0.4238 -0.3996
73175SOL    HW129455  12.353   4.561   3.059 -0.5163  0.4194  0.0141
73175SOL    HW229456  12.228   4.617   2.995 -0.5803  0.5529  0.2534
73176SOL     OW29457   3.154   9.613   0.094  0.0401  0.4180  0.1697
73176SOL    HW129458   3.209   9.671   0.147 -0.6541 -0.7961  2.3284
73176SOL    HW229459   3.087   9.671   0.057  0.3387  1.2709  0.9230
73177SOL     OW29460  11.752   4.984  11.710 -0.4979  0.3739  0.0669
73177SOL    HW129461  11.759   5.022  11.622  0.6772  1.8221  0.7491
73177SOL    HW229462  11.842   4.987  11.744 -0.8919 -0.4185  1.2242
73178SOL     OW29463  11.969   9.502  12.113 -0.2429  0.2166 -0.1100
73178SOL    HW129464  11.894   9.458  12.153  0.7385 -0.9348  0.5334
73178SOL    HW229465  11.973   9.587  12.157 -2.3969  1.1884 -1.6441
73179SOL     OW29466  10.906   6.344   2.433 -0.4440 -0.5541  0.1180
73179SOL    HW129467  10.816   6.311   2.423 -0.8164  0.5482 -0.3263
73179SOL    HW229468  10.947   6.282   2.493 -1.3633 -1.3349 -0.0183
73180SOL     OW29469  12.002   7.579   4.987  0.1151 -0.1006  0.2998
73180SOL    HW129470  12.010   7.674   4.979  2.1033 -0.2599 -0.0713
73180SOL    HW229471  11.924   7.566   5.042 -1.0279  1.6647 -0.8044
73181SOL     OW29472   0.839   1.682   0.759 -0.2806  0.3939  0.5626
73181SOL    HW129473   0.829   1.702   0.852 -1.7078  0.7188  0.3582
73181SOL    HW229474   0.775   1.614   0.741  1.4189 -1.2169  0.2360
73182SOL     OW29475   2.672   7.228  10.634 -0.8837  0.3801  0.1279
73182SOL    HW129476   2.763   7.201  10.627 -1.1890 -1.0855  1.2991
73182SOL    HW229477   2.677   7.318  10.666  0.1732 -0.1026  1.4162
73183SOL     OW29478   0.425   8.450   4.950  0.2391 -0.3035  0.0331
73183SOL    HW129479   0.432   8.364   4.908  1.4587  0.0000 -0.4121
73183SOL    HW229480   0.334   8.477   4.934  0.0986 -1.1186 -0.5932
73184SOL     OW29481   4.930  11.268   0.769  0.4037 -0.1003  0.2001
73184SOL    HW129482   4.880  11.349   0.779 -1.0813 -1.0299  0.6740
73184SOL    HW229483   4.990  11.286   0.696 -0.9705  0.9137 -0.7356
73185SOL     OW29484   5.723  10.782  11.978  0.2269 -0.2888 -0.5871
73185SOL    HW129485   5.726  10.877  11.974  1.4583 -0.3434 -1.4613
73185SOL    HW229486   5.671  10.763  12.056  0.5570  1.0935  0.0004
73186SOL     OW29487   1.668   7.079  10.608 -0.1713  0.1599 -0.1773
73186SOL    HW129488   1.644   6.988  10.620 -0.9607  0.7119  3.7386
73186SOL    HW229489   1.744   7.092  10.665 -0.4035  2.0757 -0.2342
73187SOL     OW29490   6.638  10.109   8.495 -0.1330  0.3720  0.2823
73187SOL    HW129491   6.548  10.134   8.512 -0.1397  0.1547  0.5797
73187SOL    HW229492   6.660  10.151   8.412 -0.4752  0.5025  0.2580
73188SOL     OW29493  13.205  10.325  10.912  0.1697  0.7806 -0.8127
73188SOL    HW129494  13.205  10.412  10.873 -1.7875  0.2424 -2.1722
73188SOL    HW229495  13.127  10.283  10.876  0.2382 -1.0186  0.9818
73189SOL     OW29496   4.014  11.855   9.729 -0.4569 -0.0295  0.2623
73189SOL    HW129497   4.080  11.785   9.735 -2.7477 -2.6034 -1.9896
73189SOL    HW229498   4.064  11.933   9.706  1.8433 -1.9622 -1.9144
73190SOL     OW29499   9.071   4.620   7.295  0.1132 -0.5049  0.2582
73190SOL    HW129500   9.158   4.657   7.302  0.3283 -1.1833  1.3410
73190SOL    HW229501   9.085   4.526   7.287 -0.5055 -0.5739 -0.1400
73191SOL     OW29502   2.863   4.980   5.483 -0.1666 -0.8560 -0.5415
73191SOL    HW129503   2.940   5.003   5.535 -1.0402 -0.1999  0.4905
73191SOL    HW229504   2.813   4.920   5.538 -1.2133  0.0228 -0.4920
73192SOL     OW29505   3.559   2.583   6.942  0.2121  0.1671 -0.1247
73192SOL    HW129506   3.648   2.618   6.949  0.0256  0.3860  1.8459
73192SOL    HW229507   3.507   2.640   6.998 -0.5217 -1.9214  1.4372
73193SOL     OW29508  12.319   5.339  10.976  0.3310 -0.4342  0.4852
73193SOL    HW129509  12.384   5.285  11.021  1.7954  0.3711 -0.5512
73193SOL    HW229510  12.352   5.428  10.984 -2.4248  0.5485  2.8213
73194SOL     OW29511   0.928   4.122   3.276  0.1317 -0.0187 -0.0419
73194SOL    HW129512   0.928   4.038   3.321 -1.4438 -0.0481 -0.0210
73194SOL    HW229513   1.017   4.134   3.244  0.6037 -1.2340  0.8035
73195SOL     OW29514   6.248   8.204   1.714  0.3797  0.5144 -0.3917
73195SOL    HW129515   6.305   8.195   1.790  1.2246 -0.3165 -1.0952
73195SOL    HW229516   6.199   8.122   1.710 -1.5253  1.5165  0.6644
73196SOL     OW29517   0.974   2.394   4.568 -0.6310 -0.3876  0.0056
73196SOL    HW129518   1.068   2.384   4.555 -0.3434 -0.3685  1.7823
73196SOL    HW229519   0.941   2.424   4.483  0.9764 -0.2059 -0.5989
73197SOL     OW29520  12.917   6.865  12.058 -0.2337  0.2604  0.1075
73197SOL    HW129521  12.839   6.919  12.070 -0.5765  0.3874 -2.1956
73197SOL    HW229522  12.984   6.925  12.026  0.2620 -0.1695  0.3125
73198SOL     OW29523  12.807  11.173   1.372 -1.1588 -0.4518  0.4519
73198SOL    HW129524  12.795  11.268   1.365 -0.3189 -0.4534 -1.9372
73198SOL    HW229525  12.887  11.163   1.422 -0.5211  0.1901 -0.3962
73199SOL     OW29526   8.248  12.467   4.249 -0.5920  0.3077  0.7738
73199SOL    HW129527   8.237  12.380   4.286  1.2218 -0.8878 -1.2288
73199SOL    HW229528   8.187  12.470   4.175 -0.2859  0.5462  0.5269
73200SOL     OW29529   8.525   7.629   9.176  0.4662 -0.0076 -0.2194
73200SOL    HW129530   8.574   7.698   9.221  0.3037  0.1883 -0.3422
73200SOL    HW229531   8.568   7.622   9.090  0.3170  0.1225 -0.3047
73201SOL     OW29532   3.245   6.492   8.572 -0.2552  0.3861  0.5533
73201SOL    HW129533   3.223   6.584   8.558  1.7638  0.7414 -0.6307
73201SOL    HW229534   3.314   6.493   8.639 -1.2043 -0.4089  1.5894
73202SOL     OW29535   5.422   4.472   5.455 -0.1606  0.1073  0.2402
73202SOL    HW129536   5.445   4.379   5.456 -1.3099 -0.2029  2.1036
73202SOL    HW229537   5.399   4.490   5.364  4.3674 -0.2251 -1.2240
73203SOL     OW29538  13.161  11.498   7.327  0.0440 -0.3177 -0.0482
73203SOL    HW129539  13.242  11.511   7.278 -0.6159 -0.7919 -1.3246
73203SOL    HW229540  13.105  11.448   7.268 -0.2490 -2.3060  1.7539
73204SOL     OW29541   5.732   9.687   1.456 -0.8025 -0.1850 -0.2720
73204SOL    HW129542   5.712   9.744   1.382  0.4220  1.0924  0.3291
73204SOL    HW229543   5.668   9.712   1.523  0.0783  0.9294  0.1866
73205SOL     OW29544   7.436   7.022   1.976 -0.2567 -0.2929  0.9365
73205SOL    HW129545   7.479   7.025   1.890 -0.7605 -1.3622  0.6325
73205SOL    HW229546   7.468   7.101   2.021 -0.4140  0.5889 -0.4231
73206SOL     OW29547   2.321  11.037   2.661 -0.0104  0.0565  0.2988
73206SOL    HW129548   2.373  11.109   2.625  1.0338 -0.9044 -0.1679
73206SOL    HW229549   2.338  11.041   2.756  0.1116  0.3595  0.2657
73207SOL     OW29550   8.690   0.223   7.725 -0.2022  0.3572 -0.2066
73207SOL    HW129551   8.690   0.132   7.754  1.3326  0.5864  0.6239
73207SOL    HW229552   8.781   0.241   7.701 -0.3077  1.8857  0.4065
73208SOL     OW29553   1.204   3.526  11.852  0.0935 -0.0488  0.3506
73208SOL    HW129554   1.293   3.548  11.879 -0.3602  2.5242  0.0336
73208SOL    HW229555   1.212   3.499  11.761  0.8003 -2.1826  1.0037
73209SOL     OW29556  10.005   8.718   9.815  0.5924 -0.0635  0.5889
73209SOL    HW129557  10.032   8.646   9.871  1.1384 -1.5110 -1.4389
73209SOL    HW229558   9.911   8.706   9.803  0.8533 -1.1862 -0.6434
73210SOL     OW29559  11.642   2.392   4.005 -0.2143  0.7280  0.0538
73210SOL    HW129560  11.593   2.310   4.014  2.5174 -1.0261  0.0860
73210SOL    HW229561  11.619   2.424   3.917 -0.8241 -0.4270 -0.2250
73211SOL     OW29562  13.138   6.535  10.948 -0.3785  0.2474 -0.3282
73211SOL    HW129563  13.090   6.551  11.029  1.5005  0.8384  0.7383
73211SOL    HW229564  13.202   6.468  10.971  1.2013  1.5109 -0.8592
73212SOL     OW29565   6.909   9.379  10.647 -0.0813  0.1108  0.7309
73212SOL    HW129566   6.964   9.422  10.582 -2.0947  2.1177  0.2004
73212SOL    HW229567   6.913   9.437  10.724 -0.3978 -0.4114  1.1513
73213SOL     OW29568   7.880   9.981   0.628 -0.3129  0.6137  0.0555
73213SOL    HW129569   7.971  10.009   0.617  0.2652 -0.8775  0.6723
73213SOL    HW229570   7.863   9.990   0.722 -0.9331  1.2229 -0.1074
73214SOL     OW29571   5.836  10.995   4.853 -0.0532  0.0787  0.0153
73214SOL    HW129572   5.862  11.009   4.944  1.1580  0.2774 -0.3495
73214SOL    HW229573   5.855  10.903   4.836  0.1827  0.1614 -0.1760
73215SOL     OW29574   7.403  10.553   8.457  0.4503  0.5959  0.5339
73215SOL    HW129575   7.383  10.645   8.440 -1.1564  0.3674  1.0253
73215SOL    HW229576   7.446  10.553   8.543  0.5148  0.8750  0.5035
73216SOL     OW29577   5.510  11.067   0.640 -0.4574 -0.2660  0.3837
73216SOL    HW129578   5.527  11.148   0.592  0.0954 -1.2090 -1.1224
73216SOL    HW229579   5.416  11.069   0.659 -0.5538  0.4644 -0.1318
73217SOL     OW29580  10.945   6.479   3.618  0.0798  0.4918  0.9181
73217SOL    HW129581  10.866   6.531   3.603  0.2967  0.6881  0.4287
73217SOL    HW229582  10.913   6.393   3.645 -0.2795  0.9361  1.9485
73218SOL     OW29583   6.983   5.293  12.675 -0.3994  0.1666 -0.3477
73218SOL    HW129584   6.982   5.198  12.682  0.7598  0.0736 -1.2434
73218SOL    HW229585   6.899   5.314  12.633 -0.6594 -0.4530 -0.1547
73219SOL     OW29586   7.725   8.759   9.382 -0.2850  0.4910  0.3462
73219SOL    HW129587   7.721   8.846   9.343  0.6162  0.1155 -0.6532
73219SOL    HW229588   7.819   8.742   9.391 -0.4163 -0.8624 -0.6237
73220SOL     OW29589  10.286   3.445   6.896 -0.0335  0.0528 -0.0654
73220SOL    HW129590  10.308   3.394   6.974  0.2491  0.1788 -0.0632
73220SOL    HW229591  10.253   3.528   6.931  2.7106  1.2440 -0.0689
73221SOL     OW29592  12.004   8.520  11.282  0.3076  0.2779  0.2500
73221SOL    HW129593  11.953   8.599  11.264 -0.2302 -0.0435  0.3385
73221SOL    HW229594  11.950   8.470  11.344  0.8432  0.0450  0.5309
73222SOL     OW29595  13.307   3.921   2.254  0.2596 -0.3222  0.6431
73222SOL    HW129596  13.400   3.898   2.261  0.1682 -0.5714  1.0966
73222SOL    HW229597  13.304   3.990   2.189  0.6770 -0.8441  0.0571
73223SOL     OW29598   4.536   7.156   6.507 -0.1725  0.0606  0.0421
73223SOL    HW129599   4.569   7.223   6.447 -0.2581 -0.8090 -1.0170
73223SOL    HW229600   4.582   7.172   6.589  1.1079  0.3444 -0.7049
73224SOL     OW29601  11.798   4.053   8.243  0.0743  0.3303 -0.0288
73224SOL    HW129602  11.724   4.111   8.226 -0.5959 -0.9245 -1.7008
73224SOL    HW229603  11.793   3.987   8.175  1.5815 -0.9529  1.0149
73225SOL     OW29604   3.189   1.248   7.198 -0.3843 -0.1473 -0.0486
73225SOL    HW129605   3.284   1.232   7.200  0.1144  2.3940 -0.3329
73225SOL    HW229606   3.157   1.209   7.279  0.9867 -0.5223  0.3528
73226SOL     OW29607   4.929   9.841   5.584 -0.2980 -0.0228 -0.2945
73226SOL    HW129608   4.953   9.904   5.515 -2.2870  1.0176 -0.1245
73226SOL    HW229609   5.009   9.830   5.635  0.6044  0.9622 -1.4293
73227SOL     OW29610   6.459   0.826  12.295  0.3729 -0.7142  0.0808
73227SOL    HW129611   6.470   0.776  12.376 -0.8185 -2.3735 -0.7184
73227SOL    HW229612   6.545   0.823  12.253  1.0887  0.4349  1.3887
73228SOL     OW29613  11.505   7.223  12.668 -0.0004 -0.4092 -0.3223
73228SOL    HW129614  11.506   7.129  12.650  0.9814 -0.1664 -1.7694
73228SOL    HW229615  11.432   7.257  12.615 -0.0601 -0.2878 -0.1642
73229SOL     OW29616   3.520   0.249   3.299  0.0583  0.5059 -0.2582
73229SOL    HW129617   3.503   0.260   3.393  0.2643  0.2216 -0.1869
73229SOL    HW229618   3.435   0.227   3.262  0.4918 -2.5317  0.3425
73230SOL     OW29619   9.122   5.202  10.747 -0.1579  0.7388  0.6224
73230SOL    HW129620   9.168   5.118  10.737 -1.9669 -0.3811  1.3303
73230SOL    HW229621   9.192   5.265  10.766  1.1908 -0.7010  0.6645
73231SOL     OW29622   5.022   9.645   6.384 -0.0475  0.5844 -0.2418
73231SOL    HW129623   4.959   9.651   6.456  0.2591  0.5134  0.0354
73231SOL    HW229624   5.080   9.574   6.409  0.2528  0.7686 -0.4080
73232SOL     OW29625   3.192  10.484   4.835 -0.1644  0.0840 -0.2191
73232SOL    HW129626   3.258  10.515   4.772  0.4074  0.4011  0.5198
73232SOL    HW229627   3.210  10.535   4.914 -1.4269  0.3049 -0.0626
73233SOL     OW29628   2.362   6.132   8.639  0.1025  0.7324 -0.0573
73233SOL    HW129629   2.273   6.167   8.629  0.2441  0.8641 -0.9758
73233SOL    HW229630   2.353   6.038   8.624 -0.0268  0.6060  0.7966
73234SOL     OW29631   4.000  10.956   6.651  0.2160  0.2773  0.8514
73234SOL    HW129632   4.012  11.047   6.679 -1.6464  0.8175  0.0446
73234SOL    HW229633   3.934  10.961   6.581  0.6125 -1.6212  0.2949
73235SOL     OW29634   8.309  10.122  11.208 -0.3380 -0.1017 -0.2954
73235SOL    HW129635   8.319  10.159  11.296  0.1150 -2.5342  0.7345
73235SOL    HW229636   8.218  10.141  11.185 -0.5704  0.2728  0.8515
73236SOL     OW29637   7.291   6.386   1.432 -0.1641 -0.1768 -0.0928
73236SOL    HW129638   7.377   6.343   1.423  0.3948  0.8973 -0.0592
73236SOL    HW229639   7.235   6.320   1.473  0.9380 -0.5346  0.8874
73237SOL     OW29640   8.704   7.635   3.151  0.4153 -0.2790 -0.1511
73237SOL    HW129641   8.637   7.640   3.083  0.3001 -1.5054 -0.1424
73237SOL    HW229642   8.783   7.670   3.109  0.5246 -1.6535 -1.1748
73238SOL     OW29643  12.345   4.884   5.836  0.4420  0.5398 -0.4694
73238SOL    HW129644  12.428   4.900   5.791  0.4166  1.4981 -0.1873
73238SOL    HW229645  12.284   4.860   5.766  0.4739  1.7366 -0.9143
73239SOL     OW29646   4.341  10.255   8.025  0.3666  0.3029 -0.1396
73239SOL    HW129647   4.428  10.235   7.992  0.5427  0.2406  0.3484
73239SOL    HW229648   4.286  10.263   7.947  1.0797  1.6844 -0.5105
73240SOL     OW29649   7.053   9.697   7.097 -0.3453 -0.1160 -0.2606
73240SOL    HW129650   7.083   9.670   7.010 -0.4408  0.4904 -0.4889
73240SOL    HW229651   6.977   9.642   7.115 -0.8822  0.3856 -0.9617
73241SOL     OW29652   1.688  10.800   2.811  0.0698  0.3486 -0.2221
73241SOL    HW129653   1.614  10.810   2.870  0.0703 -2.5835  0.4697
73241SOL    HW229654   1.656  10.830   2.726 -3.1608 -3.5861 -0.6871
73242SOL     OW29655  13.185   2.181   1.844  0.2636 -0.3185  0.4793
73242SOL    HW129656  13.271   2.222   1.855 -0.3718  0.8569  1.2658
73242SOL    HW229657  13.188   2.102   1.898  0.9565 -0.4771  0.2165
73243SOL     OW29658  10.528  12.745   9.335  0.4667 -0.0374  0.4028
73243SOL    HW129659  10.515  12.718   9.426 -0.0964 -0.9709  0.0665
73243SOL    HW229660  10.521  12.840   9.336  1.0212  0.0095  1.4138
73244SOL     OW29661   7.891   7.115  13.140  0.3506 -0.3320  0.4657
73244SOL    HW129662   7.913   7.024  13.160 -0.2786 -0.3679  0.9926
73244SOL    HW229663   7.835   7.143  13.212 -0.2693  0.1644 -0.1991
73245SOL     OW29664  10.746   7.361  10.740 -0.3745 -0.0512  0.0501
73245SOL    HW129665  10.796   7.286  10.773 -0.0144 -0.9829 -2.3910
73245SOL    HW229666  10.774   7.370  10.649 -1.5701  2.0987 -0.1710
73246SOL     OW29667   2.328  12.974  12.937  0.0116 -0.1988  0.0319
73246SOL    HW129668   2.302  12.979  12.845  1.1576 -1.7362 -0.4257
73246SOL    HW229669   2.412  13.020  12.941  0.5858 -1.2282  0.0301
73247SOL     OW29670   0.183   0.393   5.389 -0.3322 -0.1592  0.3415
73247SOL    HW129671   0.130   0.321   5.422 -2.3968 -0.7714 -3.7651
73247SOL    HW229672   0.273   0.362   5.399 -1.0366 -2.1449  1.0662
73248SOL     OW29673   3.328  11.098   7.262  0.2158  0.1327 -0.1905
73248SOL    HW129674   3.278  11.179   7.249 -0.3843  0.4681  3.2419
73248SOL    HW229675   3.263  11.033   7.286  1.0270 -0.5273  0.2555
73249SOL     OW29676   1.012   8.784   0.892 -0.3319  0.6348 -0.0607
73249SOL    HW129677   1.098   8.748   0.911  0.7983  3.3023  0.4189
73249SOL    HW229678   0.950   8.716   0.918  1.6054 -1.0831  0.2355
73250SOL     OW29679   3.114   6.131   5.552 -0.8340 -0.5665  0.7457
73250SOL    HW129680   3.103   6.212   5.601 -1.2482  0.5450 -1.0563
73250SOL    HW229681   3.115   6.062   5.618  0.4902  0.9575  2.4317
73251SOL     OW29682   6.973   3.850  13.218  0.0238 -0.2603  0.2311
73251SOL    HW129683   6.942   3.760  13.225  0.6344 -0.4218  0.9814
73251SOL    HW229684   6.918   3.889  13.150 -0.2363 -1.1976 -0.1147
73252SOL     OW29685   2.015   4.658   0.513 -0.2824  0.0693 -0.1647
73252SOL    HW129686   2.061   4.622   0.438  4.1840  1.9950  1.3144
73252SOL    HW229687   2.005   4.751   0.493  1.0474  0.6280  1.5202
73253SOL     OW29688  12.005  11.837   4.685  0.2438  0.2423  0.4660
73253SOL    HW129689  11.956  11.767   4.729  1.0823  1.0149  2.7699
73253SOL    HW229690  11.967  11.918   4.721  2.2317  0.8751  1.2707
73254SOL     OW29691   5.038   9.781  13.068 -0.7521 -0.1771  0.4917
73254SOL    HW129692   4.964   9.810  13.016 -0.1610 -0.3205 -0.4597
73254SOL    HW229693   5.036   9.836  13.146 -1.6783  0.0198  0.3330
73255SOL     OW29694   4.190   1.638   5.039 -0.6196 -0.0753  0.1453
73255SOL    HW129695   4.251   1.691   4.987  0.0413 -0.7272  0.2472
73255SOL    HW229696   4.226   1.550   5.036 -0.7118 -0.1788  1.4882
73256SOL     OW29697   9.071   6.208   8.169  0.6246 -0.3793 -0.0578
73256SOL    HW129698   9.010   6.136   8.185 -1.4226  1.7349  2.5243
73256SOL    HW229699   9.067   6.221   8.074  1.7036 -4.0400 -0.7650
73257SOL     OW29700   4.757  10.758   4.292 -0.0068 -0.4165  0.0302
73257SOL    HW129701   4.706  10.809   4.355  0.0963 -0.9314  0.5339
73257SOL    HW229702   4.766  10.672   4.332  0.3950 -0.6333 -0.5145
73258SOL     OW29703   2.519   2.301  12.817  0.6046  0.1992  0.1446
73258SOL    HW129704   2.497   2.346  12.736  0.2866  0.6555  0.4782
73258SOL    HW229705   2.604   2.260  12.800  0.7374  0.6478 -0.2740
73259SOL     OW29706   0.124  10.038   6.224 -0.1735  0.2797  0.2431
73259SOL    HW129707   0.111   9.957   6.273 -0.2527  2.1303  3.5781
73259SOL    HW229708   0.217  10.057   6.236 -0.3783  1.2006  0.3760
73260SOL     OW29709   4.765  10.672  11.174 -0.0726 -0.4047  0.0914
73260SOL    HW129710   4.726  10.654  11.088  0.0961 -1.6565  0.2618
73260SOL    HW229711   4.782  10.586  11.211 -0.5859  0.1151  1.6003
73261SOL     OW29712   4.012   7.270   0.852  0.2138 -0.3458  0.2067
73261SOL    HW129713   4.060   7.187   0.860  0.3357 -0.3528 -0.5278
73261SOL    HW229714   3.954   7.257   0.777  0.4605  0.3393 -0.1138
73262SOL     OW29715   3.652   3.285   0.970 -0.1029 -0.4776 -0.0374
73262SOL    HW129716   3.641   3.354   1.036  1.0961  0.1342 -0.4528
73262SOL    HW229717   3.746   3.278   0.957 -0.2865 -0.8632 -1.3941
73263SOL     OW29718   1.260  11.737   0.032  0.3092 -0.3679  0.1160
73263SOL    HW129719   1.193  11.733   0.100 -0.9917  0.1309 -1.0697
73263SOL    HW229720   1.279  11.830   0.022  1.6823 -0.5356  0.8660
73264SOL     OW29721   6.664   3.332  12.752 -0.4264  0.3189 -0.3417
73264SOL    HW129722   6.687   3.349  12.843 -3.8538 -2.8795  1.3855
73264SOL    HW229723   6.594   3.395  12.733 -0.5402  0.1967 -0.3303
73265SOL     OW29724   4.616   0.570   5.508 -0.0632 -0.0408  0.0827
73265SOL    HW129725   4.640   0.491   5.459  1.5698  0.8055 -0.5383
73265SOL    HW229726   4.579   0.628   5.441  0.7150  0.5192  0.1321
73266SOL     OW29727  13.138  12.615   3.884  0.3699 -0.1486  0.2089
73266SOL    HW129728  13.114  12.617   3.792 -0.8353 -1.5253  0.4345
73266SOL    HW229729  13.076  12.674   3.927 -0.7196 -1.3919  0.4124
73267SOL     OW29730  11.551   8.715   1.419 -0.0154 -0.0163 -0.0574
73267SOL    HW129731  11.640   8.708   1.384 -1.4293 -0.7618 -3.9552
73267SOL    HW229732  11.521   8.802   1.394 -1.1203 -0.6061 -0.8999
73268SOL     OW29733   3.451  12.432   6.977  0.0075 -0.0870  0.0396
73268SOL    HW129734   3.526  12.472   7.020 -1.0402 -0.9379  2.9227
73268SOL    HW229735   3.414  12.501   6.923  2.6420  0.4118 -1.2839
73269SOL     OW29736   2.663   0.028   0.041  0.2578 -0.0278  0.3591
73269SOL    HW129737   2.582  -0.019   0.060 -1.2075  0.4974 -3.6143
73269SOL    HW229738   2.633   0.113   0.008  2.4605  0.3952 -0.6971
73270SOL     OW29739   4.218  13.000   3.127  0.1852  0.3380 -0.4929
73270SOL    HW129740   4.310  12.990   3.102  0.1133  1.1210 -1.1276
73270SOL    HW229741   4.214  12.971   3.218  1.2701  1.2139 -0.1418
73271SOL     OW29742   4.579  10.583   9.011 -0.4453  0.4118 -0.0590
73271SOL    HW129743   4.532  10.590   8.928 -0.7369 -0.9260 -0.0347
73271SOL    HW229744   4.512  10.556   9.074 -0.0486  0.5413  0.4282
73272SOL     OW29745   9.912   6.723  12.177  0.6242  0.1377 -0.1314
73272SOL    HW129746   9.945   6.813  12.175  2.1703 -0.4062 -0.6161
73272SOL    HW229747   9.938   6.690  12.263 -0.4819  0.3213  0.2914
73273SOL     OW29748  11.222   3.195   7.355 -0.3683  0.2854 -0.4734
73273SOL    HW129749  11.126   3.190   7.358 -0.3163 -0.4610  0.9814
73273SOL    HW229750  11.241   3.285   7.382 -0.6420  0.1384  0.2353
73274SOL     OW29751   9.267   6.382   7.258  0.0075 -0.1708  0.0583
73274SOL    HW129752   9.190   6.366   7.203  1.8190 -2.1349 -2.0759
73274SOL    HW229753   9.318   6.447   7.210  1.1503 -1.2061 -0.1797
73275SOL     OW29754   3.696   1.132  11.453 -0.2898  0.1505 -0.1811
73275SOL    HW129755   3.624   1.120  11.514  0.4037  2.4618  1.2127
73275SOL    HW229756   3.746   1.050  11.459 -1.4503 -0.5285  0.6400
73276SOL     OW29757   3.142   2.900   4.742  0.1163 -0.2144  0.0951
73276SOL    HW129758   3.203   2.918   4.670  0.7856 -1.4122  0.3384
73276SOL    HW229759   3.073   2.966   4.731  2.0168  1.9866  0.4974
73277SOL     OW29760   6.953  12.426   4.133  1.1540  0.0649  0.0204
73277SOL    HW129761   7.045  12.422   4.160  0.9021  0.8925  1.0855
73277SOL    HW229762   6.954  12.479   4.054  1.5867  0.2179  0.1247
73278SOL     OW29763  12.356   4.092   7.395  0.1075 -0.5201 -0.2982
73278SOL    HW129764  12.395   4.172   7.360  0.8073 -0.2495  1.0728
73278SOL    HW229765  12.265   4.096   7.367 -0.1785  1.3633  0.7554
73279SOL     OW29766  10.235   3.770   0.024 -0.2928 -0.2889 -0.1277
73279SOL    HW129767  10.257   3.681  -0.004  0.3956 -0.0190 -0.4691
73279SOL    HW229768  10.305   3.824  -0.012  0.2307  0.1683  1.4813
73280SOL     OW29769   4.967   2.378  10.954 -0.3660 -0.0726  0.1379
73280SOL    HW129770   4.973   2.419  10.868  0.1371 -0.2658  0.0807
73280SOL    HW229771   4.885   2.412  10.991 -0.7278 -0.2082 -0.5278
73281SOL     OW29772   5.063   7.912   7.501 -0.1443  0.0290  1.5303
73281SOL    HW129773   5.063   7.976   7.572  0.1530  1.2027  0.5090
73281SOL    HW229774   5.155   7.890   7.488  0.2263  2.3804 -0.6488
73282SOL     OW29775  10.053   0.365   6.402  0.6534  0.1401  0.0515
73282SOL    HW129776   9.984   0.308   6.435  0.9884  0.4585  1.3374
73282SOL    HW229777  10.023   0.390   6.314  1.1130 -3.0465 -1.1501
73283SOL     OW29778   6.502   8.742  10.901  0.1164  0.0079  0.4612
73283SOL    HW129779   6.464   8.777  10.982  1.7586 -1.5813  2.0470
73283SOL    HW229780   6.546   8.817  10.861  0.7127  0.5247  1.9802
73284SOL     OW29781   9.158  10.258  11.169  0.6363 -0.4129  0.4769
73284SOL    HW129782   9.247  10.248  11.204  1.5761  0.4767 -1.4787
73284SOL    HW229783   9.104  10.273  11.247  2.0319 -1.8397  1.8039
73285SOL     OW29784   2.354  12.731   7.132  0.1134  0.4116 -0.2029
73285SOL    HW129785   2.412  12.658   7.108  0.8278  0.3316  1.5852
73285SOL    HW229786   2.296  12.694   7.199  0.3731  1.4192  0.5986
73286SOL     OW29787  10.674   0.346  12.004  0.3086  0.0710 -0.3803
73286SOL    HW129788  10.671   0.433  12.044 -0.4182  0.8484 -2.0477
73286SOL    HW229789  10.705   0.362  11.915 -0.3077 -1.3302 -0.8650
73287SOL     OW29790  11.134   9.346  13.046  0.2432 -0.5298  0.1336
73287SOL    HW129791  11.075   9.385  13.111  0.4574  3.2025 -1.6695
73287SOL    HW229792  11.124   9.251  13.059 -3.0240 -0.0374  2.5940
73288SOL     OW29793   5.398   8.862  10.407 -0.3434 -0.4337 -0.5102
73288SOL    HW129794   5.335   8.932  10.423  0.4775 -0.0072  0.9869
73288SOL    HW229795   5.372   8.826  10.322 -0.2858  2.2106 -1.7456
73289SOL     OW29796   3.793  11.506   8.692 -0.5843  0.2434 -0.5998
73289SOL    HW129797   3.849  11.468   8.759 -0.2106  0.9040 -0.5218
73289SOL    HW229798   3.712  11.455   8.696 -0.7993  0.6420  0.7790
73290SOL     OW29799   4.872   8.376   5.627  0.1889  0.0790 -0.2028
73290SOL    HW129800   4.923   8.358   5.547  0.6414  3.3186 -0.7810
73290SOL    HW229801   4.921   8.446   5.670 -1.3695  0.0586  1.6751
73291SOL     OW29802   6.879   0.338  13.212  0.5196  0.0433  0.7124
73291SOL    HW129803   6.841   0.414  13.168  0.0540 -0.6174 -0.0535
73291SOL    HW229804   6.973   0.357  13.215  0.3839  0.7486  0.7427
73292SOL     OW29805  10.297   9.835  10.663 -0.7215 -0.2292  0.4302
73292SOL    HW129806  10.293   9.765  10.728  1.9203  0.1323  1.1166
73292SOL    HW229807  10.362   9.804  10.599 -0.3018  1.1283  0.1732
73293SOL     OW29808   2.809  11.827   2.684 -0.0435 -0.1924 -0.2458
73293SOL    HW129809   2.788  11.744   2.640 -3.0659  0.9532 -1.2176
73293SOL    HW229810   2.771  11.819   2.771  3.2067 -1.2410  1.2429
73294SOL     OW29811  12.284   3.337   8.620  0.1418  0.0167 -0.6867
73294SOL    HW129812  12.348   3.266   8.632  1.6432  1.4343  0.0156
73294SOL    HW229813  12.274   3.345   8.526  0.6472 -0.5369 -0.7922
73295SOL     OW29814   1.098  13.040  11.271  0.0863 -0.3110  0.2436
73295SOL    HW129815   1.021  13.002  11.313 -1.1392  0.5515 -1.1589
73295SOL    HW229816   1.067  13.071  11.186  2.2894 -1.1877 -0.9612
73296SOL     OW29817   8.981  11.795   7.110 -0.4545  0.4013 -1.0950
73296SOL    HW129818   9.059  11.811   7.164  0.6552  0.9457 -2.7734
73296SOL    HW229819   9.010  11.814   7.021 -1.9018 -1.5349 -2.0467
73297SOL     OW29820   8.080  10.211  11.132  0.2739  0.7157 -0.3626
73297SOL    HW129821   8.134  10.225  11.054  0.6467  0.9514 -0.0709
73297SOL    HW229822   8.029  10.292  11.141  0.1626  0.6509 -0.4172
73298SOL     OW29823   6.057   5.416   8.097 -0.3081  0.0358  0.4489
73298SOL    HW129824   6.044   5.328   8.061 -1.4825  0.1297  0.6251
73298SOL    HW229825   6.108   5.401   8.177  2.8784 -0.1366 -1.4016
73299SOL     OW29826   8.386   1.205   3.499 -0.0327  0.2411 -0.1738
73299SOL    HW129827   8.379   1.285   3.551  1.2565  0.1281  0.2136
73299SOL    HW229828   8.316   1.211   3.435 -0.4241  1.3182  0.3386
73300SOL     OW29829  11.570  11.850   4.070  0.2666 -0.2614 -0.1425
73300SOL    HW129830  11.611  11.798   4.139  0.5585 -1.9459 -1.5186
73300SOL    HW229831  11.609  11.937   4.080  0.7642 -0.6194  1.3947
73301SOL     OW29832   1.149  11.498   5.222 -0.0355 -0.6030 -0.0752
73301SOL    HW129833   1.183  11.541   5.301  2.3569  0.4594 -1.5794
73301SOL    HW229834   1.063  11.464   5.249  0.4672  0.1200  2.8229
73302SOL     OW29835   6.060   5.829   8.949  0.1431 -0.9602 -0.0025
73302SOL    HW129836   6.018   5.744   8.938 -0.5846 -0.5633 -0.4070
73302SOL    HW229837   5.995   5.892   8.917  0.0122 -0.1204  1.7474
73303SOL     OW29838   4.896  12.221   1.099 -0.1293 -0.2531  0.5089
73303SOL    HW129839   4.807  12.254   1.094  0.0744  0.6193  2.1088
73303SOL    HW229840   4.938  12.274   1.167  2.1364  0.5846 -1.3799
73304SOL     OW29841   5.014   5.392   7.436  0.6836 -0.2159 -0.3138
73304SOL    HW129842   5.094   5.376   7.485  0.8551  1.3613 -0.0264
73304SOL    HW229843   5.035   5.465   7.378 -0.8900  1.1386  0.7106
73305SOL     OW29844   9.441  11.186  10.124  0.0843  0.3696 -0.2122
73305SOL    HW129845   9.395  11.216  10.203  1.9730  1.1856  0.6557
73305SOL    HW229846   9.467  11.096  10.145 -0.8831 -0.0048 -0.6031
73306SOL     OW29847   9.421   9.677   8.570  0.2109  0.0527 -0.3417
73306SOL    HW129848   9.387   9.627   8.645  0.1427  0.9419  0.2362
73306SOL    HW229849   9.494   9.624   8.537  0.6904 -0.0128  0.7898
73307SOL     OW29850   5.139   2.770   4.419  0.3816  0.6054  0.9274
73307SOL    HW129851   5.052   2.737   4.400  0.0080  1.9283  0.1955
73307SOL    HW229852   5.186   2.764   4.336 -0.0487  2.8521  0.4644
73308SOL     OW29853   8.155   1.486   9.898  0.2248 -0.2587 -0.2728
73308SOL    HW129854   8.225   1.494   9.964 -0.0856 -1.3392  0.2160
73308SOL    HW229855   8.178   1.407   9.849 -0.4411 -0.3962 -0.3680
73309SOL     OW29856   6.565   9.014   5.997 -0.4300 -0.4717  0.4636
73309SOL    HW129857   6.471   9.034   6.003 -0.5763 -0.6789 -0.7840
73309SOL    HW229858   6.584   9.021   5.903  0.6556 -1.0848  0.6300
73310SOL     OW29859   3.240   5.938   3.520 -0.2817 -0.0501  0.2957
73310SOL    HW129860   3.322   5.928   3.473 -0.2800 -0.2311  0.3343
73310SOL    HW229861   3.243   6.026   3.557  0.5616 -0.5773  1.5647
73311SOL     OW29862   0.405   2.051  12.449  0.0241 -0.4661 -0.0468
73311SOL    HW129863   0.489   2.028  12.489 -0.8535  1.4538  3.2377
73311SOL    HW229864   0.341   1.995  12.494 -0.8285  0.4673 -0.0691
73312SOL     OW29865   8.525   3.611  11.781  0.1008 -0.3102 -0.0984
73312SOL    HW129866   8.521   3.679  11.848 -0.0291  0.6165 -1.0236
73312SOL    HW229867   8.562   3.535  11.826  1.1354  0.6559  0.7281
73313SOL     OW29868  10.047   7.007   1.004  0.2578  0.2638  0.2978
73313SOL    HW129869  10.112   7.076   1.015  0.2776  0.4247 -0.7353
73313SOL    HW229870   9.973   7.050   0.961 -0.3175 -0.0479  0.9427
73314SOL     OW29871   0.190   8.593   4.842 -0.0103  0.6100 -0.0882
73314SOL    HW129872   0.168   8.673   4.794 -0.8552  0.3714 -0.0996
73314SOL    HW229873   0.112   8.572   4.893  1.0366  1.1282  1.8119
73315SOL     OW29874  12.394   3.298   1.565  0.4105 -0.6988 -0.5915
73315SOL    HW129875  12.326   3.330   1.506 -0.4428 -1.1112  0.1487
73315SOL    HW229876  12.438   3.229   1.515  0.5793 -0.1522 -1.2263
73316SOL     OW29877   2.265   0.713   6.269 -0.1832  0.1657 -0.3027
73316SOL    HW129878   2.208   0.664   6.210  0.0061 -0.4058 -0.0160
73316SOL    HW229879   2.206   0.747   6.337 -0.1273 -0.7962  0.2394
73317SOL     OW29880   0.248   5.816   5.826 -0.1428  0.1901 -0.3127
73317SOL    HW129881   0.231   5.906   5.854  0.5148  0.5816 -1.1365
73317SOL    HW229882   0.319   5.785   5.883  1.0181  0.8956 -1.3433
73318SOL     OW29883   7.919   7.635   0.420  0.0558 -0.6132 -0.6703
73318SOL    HW129884   7.853   7.568   0.405 -0.8010  0.0865 -0.0784
73318SOL    HW229885   7.871   7.718   0.420  1.0512 -0.0025 -1.0953
73319SOL     OW29886  10.075   8.490  12.881  0.3065  0.4842  0.1322
73319SOL    HW129887  10.117   8.406  12.863 -1.5812 -0.0469 -2.2836
73319SOL    HW229888  10.040   8.481  12.969 -0.5855 -1.6180 -0.3766
73320SOL     OW29889   8.333   2.229   3.557  0.0051  0.3191 -0.1911
73320SOL    HW129890   8.403   2.284   3.592  0.4007  0.2881 -0.9315
73320SOL    HW229891   8.373   2.181   3.486 -0.3780 -0.8332  0.3487
73321SOL     OW29892   1.702   9.643   4.873  0.4947 -0.5619  0.5432
73321SOL    HW129893   1.698   9.623   4.966  0.8999  0.7371  0.8604
73321SOL    HW229894   1.680   9.560   4.829  0.9387 -1.3502  1.7750
73322SOL     OW29895   4.991   0.509   1.656 -0.3048 -0.2882 -0.6867
73322SOL    HW129896   5.026   0.598   1.653 -1.4971  0.1691 -1.7151
73322SOL    HW229897   4.897   0.520   1.661 -0.4120 -1.4519  3.4285
73323SOL     OW29898   5.254   7.435   0.148  0.2115  0.1808  0.0438
73323SOL    HW129899   5.276   7.505   0.087  0.4730 -1.1816 -1.5023
73323SOL    HW229900   5.177   7.393   0.110  2.9250 -3.5510 -2.0149
73324SOL     OW29901   0.358   0.638  10.617  0.2473 -0.1037  0.2718
73324SOL    HW129902   0.409   0.557  10.609 -0.3799 -0.4670 -0.1337
73324SOL    HW229903   0.301   0.622  10.693 -0.0320 -0.1305  0.0569
73325SOL     OW29904   1.143   0.349  12.738  0.1156 -0.1315  0.5467
73325SOL    HW129905   1.098   0.337  12.654 -1.5257  0.3282  1.3230
73325SOL    HW229906   1.207   0.278  12.741  0.2161 -0.1560 -1.0881
73326SOL     OW29907  10.881   0.089   0.840  0.5173  0.0661  0.5423
73326SOL    HW129908  10.878   0.142   0.921 -1.0541 -0.9759  1.2071
73326SOL    HW229909  10.961   0.118   0.796  0.7413  1.5836  1.8426
73327SOL     OW29910   4.330   9.390   3.101  0.2398  0.1607 -0.4910
73327SOL    HW129911   4.334   9.328   3.173  0.0129 -0.3373 -0.9019
73327SOL    HW229912   4.296   9.470   3.140 -0.7226 -0.3704 -0.2092
73328SOL     OW29913   1.631   5.539   4.340 -0.6756 -0.3337  0.6991
73328SOL    HW129914   1.550   5.489   4.343  0.3308 -2.2932 -1.3342
73328SOL    HW229915   1.663   5.538   4.430 -2.5338 -0.0843  1.4100
73329SOL     OW29916   8.562   7.828   4.463  0.5066  0.1754  0.1280
73329SOL    HW129917   8.523   7.742   4.450  1.9857 -0.5584  0.3491
73329SOL    HW229918   8.514   7.866   4.537  1.5219 -1.5322  1.7232
73330SOL     OW29919   3.185   9.835  12.214  0.0062  0.1914 -0.7258
73330SOL    HW129920   3.277   9.857  12.196  0.3649  0.1092  0.8648
73330SOL    HW229921   3.188   9.747  12.252 -0.7775 -0.0010 -1.0970
73331SOL     OW29922  11.855   2.033   4.156 -0.0057 -0.1593 -0.6921
73331SOL    HW129923  11.772   2.057   4.199 -0.4632  0.3653 -1.8477
73331SOL    HW229924  11.922   2.068   4.214 -0.4863 -2.3492  1.3642
73332SOL     OW29925   3.630   3.254   4.506 -0.0811  0.1703  0.3234
73332SOL    HW129926   3.544   3.294   4.523 -1.2866 -0.4771 -3.3139
73332SOL    HW229927   3.611   3.161   4.498  1.1538 -0.1027  0.4321
73333SOL     OW29928   2.718  13.129  10.237 -0.1268 -0.2456  0.1477
73333SOL    HW129929   2.775  13.144  10.162 -0.2194 -2.7509 -0.5298
73333SOL    HW229930   2.722  13.210  10.288  0.5633  1.2486 -2.1299
73334SOL     OW29931   9.568  11.012   2.037 -0.2582 -0.2570 -0.3081
73334SOL    HW129932   9.518  10.952   2.093 -0.9029  0.3851 -0.1728
73334SOL    HW229933   9.554  10.979   1.948  0.9062 -1.3815 -0.0945
73335SOL     OW29934   5.738   2.825   2.723  0.0059 -0.4492 -0.7673
73335SOL    HW129935   5.808   2.891   2.724 -1.1722  0.8446  0.3627
73335SOL    HW229936   5.714   2.817   2.631  0.4425  0.4116 -0.9624
73336SOL     OW29937  11.460  11.332  11.877 -0.0402  0.0469 -0.0632
73336SOL    HW129938  11.427  11.373  11.956  0.5903 -0.1516  0.3099
73336SOL    HW229939  11.381  11.300  11.832 -0.4867  1.0844 -0.0476
73337SOL     OW29940   6.521   8.831   7.427  0.2681 -0.1576 -0.1916
73337SOL    HW129941   6.592   8.843   7.364  0.3600  1.6863  0.2114
73337SOL    HW229942   6.442   8.835   7.374  0.3999 -0.4777 -0.4187
73338SOL     OW29943   2.405   8.883   1.705 -0.0020 -0.5040 -1.1896
73338SOL    HW129944   2.325   8.884   1.757  1.3258  0.5489  0.9708
73338SOL    HW229945   2.386   8.938   1.630 -1.3125 -0.3198 -0.7484
73339SOL     OW29946   3.488  11.537  10.030 -0.0836 -0.2404 -0.1596
73339SOL    HW129947   3.436  11.512  10.106 -1.9249 -0.1199 -1.2929
73339SOL    HW229948   3.543  11.461  10.012  0.8694 -0.0247  1.6290
73340SOL     OW29949   6.027   6.525   1.319 -0.0545 -0.1933 -0.4401
73340SOL    HW129950   5.946   6.557   1.278  0.4025 -0.7526 -1.8647
73340SOL    HW229951   6.076   6.485   1.246  1.5189  0.1622  0.3807
73341SOL     OW29952   4.788   5.788   5.990 -0.5795  0.5262  0.3571
73341SOL    HW129953   4.697   5.793   6.020 -0.4921 -0.1134  0.7442
73341SOL    HW229954   4.796   5.859   5.926 -1.4214  0.4096  0.1146
73342SOL     OW29955   0.257   5.309   3.646 -0.5122  0.1849  0.5662
73342SOL    HW129956   0.225   5.220   3.631 -0.7298  0.2847  0.4335
73342SOL    HW229957   0.349   5.306   3.622 -0.0102 -0.5012  2.4381
73343SOL     OW29958   3.714  12.739  12.447  0.2279 -0.1639 -0.6571
73343SOL    HW129959   3.723  12.660  12.500 -0.0871  1.1633  1.4991
73343SOL    HW229960   3.804  12.767  12.430  0.3724  0.6914  1.3008
73344SOL     OW29961  11.573   4.697   8.785 -0.2686  0.0214  0.1823
73344SOL    HW129962  11.633   4.624   8.802 -1.8991 -1.4704 -0.1174
73344SOL    HW229963  11.570   4.704   8.690 -1.2192 -0.5290  0.1553
73345SOL     OW29964   9.851  10.611  12.324 -0.4049 -0.0400 -0.0579
73345SOL    HW129965   9.934  10.570  12.349  0.0237 -0.3702 -1.8948
73345SOL    HW229966   9.866  10.705  12.334 -0.3846 -0.1675  1.2325
73346SOL     OW29967  10.546  10.529   6.440 -0.1590  0.0741 -0.0961
73346SOL    HW129968  10.613  10.501   6.502 -0.1010  0.3911 -0.0133
73346SOL    HW229969  10.546  10.460   6.373 -0.5725 -0.5269  0.5048
73347SOL     OW29970   7.213  11.981   8.126  0.0113  0.2709 -0.0825
73347SOL    HW129971   7.268  11.964   8.049 -0.7320  0.3346 -0.6347
73347SOL    HW229972   7.178  12.069   8.112 -0.7463 -0.0193 -0.0576
73348SOL     OW29973  11.251   3.724   5.869 -0.2361  0.5495 -0.4847
73348SOL    HW129974  11.251   3.798   5.929  0.7031  0.9426 -0.9544
73348SOL    HW229975  11.161   3.691   5.872 -0.4946  1.2893  0.2313
73349SOL     OW29976   7.573   3.671  11.457 -0.2696 -0.0700 -0.1912
73349SOL    HW129977   7.610   3.703  11.375 -0.2229  1.5034  0.3923
73349SOL    HW229978   7.616   3.587  11.473  2.6969  1.3785  0.1673
73350SOL     OW29979   7.270   0.473  12.182 -0.6206 -0.2808 -0.0362
73350SOL    HW129980   7.193   0.511  12.224 -1.4371 -1.7207 -0.1727
73350SOL    HW229981   7.239   0.445  12.095 -0.1015 -1.3469  0.1008
73351SOL     OW29982   7.844   9.661  11.433  0.3678 -0.0561  0.7371
73351SOL    HW129983   7.921   9.680  11.488 -0.4466  0.0125  1.8825
73351SOL    HW229984   7.776   9.719  11.466  0.0617  0.5323 -0.8733
73352SOL     OW29985   3.573   0.773   3.853 -0.3673  0.2315 -0.2325
73352SOL    HW129986   3.621   0.691   3.851 -0.7396  0.0097 -0.2649
73352SOL    HW229987   3.628   0.835   3.806 -0.7478 -0.3768 -1.5313
73353SOL     OW29988   9.659  12.609  11.860  0.4662 -0.1529  0.6386
73353SOL    HW129989   9.681  12.563  11.779 -0.3441 -1.8963  1.3800
73353SOL    HW229990   9.602  12.680  11.832 -1.2045 -1.7446 -0.1913
73354SOL     OW29991  11.281   8.283   9.355 -0.1409  0.0349 -0.2576
73354SOL    HW129992  11.228   8.348   9.399 -0.4911 -0.5914  0.2489
73354SOL    HW229993  11.278   8.309   9.262 -1.4331 -0.0754 -0.2573
73355SOL     OW29994   2.377  10.689   8.052 -0.0359 -0.0360  0.4146
73355SOL    HW129995   2.341  10.678   7.963  0.5978 -2.7912  0.4101
73355SOL    HW229996   2.315  10.643   8.108  1.2388 -1.1839  0.9399
73356SOL     OW29997  10.086   2.019   6.023 -0.6695  0.1763  0.2658
73356SOL    HW129998  10.135   1.969   5.958  2.5735  0.9491  1.8973
73356SOL    HW229999  10.102   1.974   6.105 -4.3107 -0.5284  0.7423
73357SOL     OW30000   2.814   8.095   2.751 -0.3478  0.1912  0.2293
73357SOL    HW130001   2.874   8.148   2.697  0.3077  1.1836  1.8541
73357SOL    HW230002   2.736   8.085   2.697  0.9940 -0.5447 -1.6810
73358SOL     OW30003   9.579   8.431   0.963 -0.4209  0.2174  0.0440
73358SOL    HW130004   9.618   8.443   0.877 -2.0498  1.2294 -0.6068
73358SOL    HW230005   9.598   8.341   0.987  0.2940  0.0129 -1.2499
73359SOL     OW30006  12.990   2.101   8.182 -0.6274 -0.0660  0.0352
73359SOL    HW130007  13.084   2.089   8.193 -0.6087  1.0019  1.3269
73359SOL    HW230008  12.951   2.019   8.211 -0.1506 -0.0254  0.8110
73360SOL     OW30009   3.259   8.306  12.179 -0.6277 -0.0817  0.0974
73360SOL    HW130010   3.215   8.238  12.232 -0.1921 -0.7742 -0.4210
73360SOL    HW230011   3.347   8.273  12.166 -0.3513  0.6851 -0.0064
73361SOL     OW30012  10.623   3.206   6.396  0.4514 -0.7757  0.1189
73361SOL    HW130013  10.557   3.164   6.451  1.3520  0.3192  2.1231
73361SOL    HW230014  10.578   3.221   6.312 -1.6385 -0.6637  1.1929
73362SOL     OW30015   1.182   2.363   7.286 -0.6091  0.2450  0.1532
73362SOL    HW130016   1.126   2.424   7.334  0.1836 -0.2480  1.7714
73362SOL    HW230017   1.141   2.355   7.199 -2.2035  1.0174  0.8074
73363SOL     OW30018  13.165  12.488   7.852 -0.0260  0.6152 -0.3968
73363SOL    HW130019  13.126  12.526   7.773  0.5424  1.0610 -0.4779
73363SOL    HW230020  13.096  12.492   7.918 -0.4331  0.4492 -0.8127
73364SOL     OW30021   5.879   7.979   0.013 -0.2148 -0.2450 -0.0683
73364SOL    HW130022   5.903   8.004   0.102 -0.7421 -1.0162  0.2956
73364SOL    HW230023   5.857   8.062  -0.030 -1.2816  0.0105  0.9171
73365SOL     OW30024   7.643  10.820   6.725 -0.2783  0.1912  0.1760
73365SOL    HW130025   7.686  10.736   6.708 -0.4475  0.3705 -1.2481
73365SOL    HW230026   7.551  10.804   6.705 -0.6452  0.2303  1.7121
73366SOL     OW30027  10.354  10.652   0.422  0.1355 -1.1093 -0.2215
73366SOL    HW130028  10.266  10.659   0.461 -0.4239  0.1908 -1.6474
73366SOL    HW230029  10.395  10.737   0.438 -0.4017 -0.2100 -3.0143
73367SOL     OW30030   9.404   2.078   0.637 -0.1267 -0.1595 -0.3056
73367SOL    HW130031   9.421   2.170   0.660  0.4543 -0.1498 -0.7453
73367SOL    HW230032   9.314   2.078   0.603  0.9860  0.9658 -3.7687
73368SOL     OW30033   9.516   8.981   3.761  0.5240 -0.0746 -0.7646
73368SOL    HW130034   9.508   8.893   3.723  1.7341 -0.0407 -1.1461
73368SOL    HW230035   9.509   9.040   3.686 -0.8756  0.2162 -0.4417
73369SOL     OW30036   1.975  10.768   2.766  0.4211 -0.0867  0.0694
73369SOL    HW130037   1.884  10.791   2.784  0.8381  1.1069  0.7259
73369SOL    HW230038   2.006  10.836   2.706 -0.0220 -2.2665 -2.8545
73370SOL     OW30039   4.907   9.825   8.726 -0.4524 -0.0532 -0.0705
73370SOL    HW130040   4.885   9.732   8.717 -0.6185 -0.0820  0.6458
73370SOL    HW230041   4.974   9.828   8.794  0.0414  0.2889 -0.5625
73371SOL     OW30042  10.208   0.071  10.597  0.0572 -0.2619 -0.4437
73371SOL    HW130043  10.290   0.042  10.637  0.5718 -0.5486 -1.6566
73371SOL    HW230044  10.170   0.131  10.661 -0.9800 -3.3658  2.1505
73372SOL     OW30045   9.028   5.394  12.551 -0.2639 -0.2136 -0.1086
73372SOL    HW130046   9.021   5.405  12.456  1.4794 -0.5753 -0.3019
73372SOL    HW230047   9.122   5.392  12.569 -0.5576 -0.0846  1.6446
73373SOL     OW30048   3.191   2.220   5.202  0.7601 -0.2142 -0.4585
73373SOL    HW130049   3.116   2.268   5.237  2.0596  0.7060  1.2103
73373SOL    HW230050   3.172   2.211   5.109 -1.3152  0.1677 -0.1216
73374SOL     OW30051   3.124  11.417  13.038  0.3203 -0.2039  0.3125
73374SOL    HW130052   3.163  11.421  12.951  0.1750  1.0720  0.2858
73374SOL    HW230053   3.176  11.478  13.090  3.2148 -3.9692  2.3425
73375SOL     OW30054   5.823   4.572  11.014 -0.1187  0.1688  0.1305
73375SOL    HW130055   5.789   4.661  11.010  0.0055  0.3174  1.8060
73375SOL    HW230056   5.750   4.519  11.045 -0.3913 -0.4633 -1.4849
73376SOL     OW30057   2.863   1.103  12.882 -0.1697 -0.0185 -0.1817
73376SOL    HW130058   2.775   1.111  12.920  0.1474  0.4754  0.4690
73376SOL    HW230059   2.918   1.074  12.955  0.2346 -0.1882 -0.5500
73377SOL     OW30060  11.286  12.869   8.002  0.3219  0.0949 -0.3590
73377SOL    HW130061  11.198  12.837   8.024 -1.4848  3.0008 -2.5708
73377SOL    HW230062  11.311  12.818   7.925  0.2493 -0.1874 -0.1996
73378SOL     OW30063  13.184   9.347   5.720  0.0447 -0.3310 -0.3399
73378SOL    HW130064  13.119   9.374   5.656 -0.9302 -1.1621  0.2693
73378SOL    HW230065  13.195   9.423   5.778 -0.1819 -0.0992 -0.6045
73379SOL     OW30066   2.260   7.587   0.674  0.3901  0.2873  0.1488
73379SOL    HW130067   2.234   7.627   0.590  2.2386  0.5844 -0.3337
73379SOL    HW230068   2.234   7.496   0.666 -0.6837  0.6040 -0.1838
73380SOL     OW30069   8.322  11.455   7.397 -0.1820  0.2202 -0.3241
73380SOL    HW130070   8.228  11.466   7.411 -0.0976 -0.2232  0.6569
73380SOL    HW230071   8.339  11.497   7.313 -1.3476 -0.1262 -0.7526
73381SOL     OW30072  13.281   7.495   0.429 -0.0619 -0.2312 -0.0595
73381SOL    HW130073  13.223   7.519   0.501  0.2219  1.6205 -0.3897
73381SOL    HW230074  13.233   7.521   0.350  0.5050 -0.2532 -0.4169
73382SOL     OW30075   8.426   2.926   1.005 -0.2706 -0.2018 -0.6052
73382SOL    HW130076   8.500   2.977   1.036 -0.7189 -1.1150  2.2980
73382SOL    HW230077   8.465   2.854   0.955  0.6523  0.3724 -0.7245
73383SOL     OW30078  12.085   7.197  12.591 -0.1806  0.0048  0.1757
73383SOL    HW130079  12.130   7.237  12.517 -0.3340 -0.3049 -0.0857
73383SOL    HW230080  12.156   7.167  12.648 -0.0286  2.2071  1.2650
73384SOL     OW30081  10.913  11.337   7.054  0.3734  0.0179  0.1593
73384SOL    HW130082  10.995  11.295   7.029 -0.1078 -0.1078 -1.3030
73384SOL    HW230083  10.868  11.272   7.109  0.6375 -0.4823 -0.2079
73385SOL     OW30084   0.693   4.297   6.851  0.1242 -0.1897  0.7490
73385SOL    HW130085   0.600   4.300   6.830  0.4337 -0.5568 -0.7827
73385SOL    HW230086   0.700   4.228   6.917 -0.7388  0.1487  1.2109
73386SOL     OW30087   0.702   2.469  12.180  0.8098 -0.0072  0.5056
73386SOL    HW130088   0.620   2.517  12.166  1.3729  0.8728  0.0820
73386SOL    HW230089   0.687   2.383  12.141  0.4651  0.5255 -0.5611
73387SOL     OW30090   8.904   0.904   1.274 -0.4466 -0.2817  0.5264
73387SOL    HW130091   8.836   0.836   1.281 -0.6231 -0.1363  0.2506
73387SOL    HW230092   8.972   0.864   1.220 -1.8949  0.7856 -2.3431
73388SOL     OW30093   8.249   5.067  10.616 -0.0153  0.1291  0.0127
73388SOL    HW130094   8.236   5.016  10.536 -0.7299  0.0812  0.1535
73388SOL    HW230095   8.304   5.141  10.589  2.7139 -1.6937  0.1919
73389SOL     OW30096  12.611   9.076  10.623 -0.1601  0.0262  0.2651
73389SOL    HW130097  12.600   9.013  10.694 -0.2490  0.2670  0.4658
73389SOL    HW230098  12.699   9.111  10.634  0.4990 -1.2223 -0.7904
73390SOL     OW30099   6.986   9.898  10.802  0.1466 -0.4777  0.0182
73390SOL    HW130100   6.998   9.879  10.895  0.2543 -1.1440 -0.1292
73390SOL    HW230101   7.056   9.961  10.781 -1.7643  2.2262  1.1077
73391SOL     OW30102  10.630   0.276   9.953 -0.3560 -0.1669 -0.2067
73391SOL    HW130103  10.561   0.222   9.915  0.7795  0.5524 -3.6509
73391SOL    HW230104  10.585   0.354   9.984 -1.2191  0.1348 -2.0804
73392SOL     OW30105   0.589   8.719  10.683  0.2760 -0.2022 -0.2097
73392SOL    HW130106   0.543   8.637  10.702  1.0661 -0.8384 -0.9795
73392SOL    HW230107   0.664   8.718  10.742  0.1793  0.0686 -0.0818
73393SOL     OW30108   9.676   9.391  10.827  0.4077 -0.6192  0.1383
73393SOL    HW130109   9.595   9.355  10.865 -0.3522  0.9268  0.0618
73393SOL    HW230110   9.684   9.347  10.742  0.7145 -2.1954  0.9595
73394SOL     OW30111   5.257  11.746   3.436 -0.8521  0.4147 -0.0152
73394SOL    HW130112   5.288  11.783   3.519 -1.2698 -0.2622  0.4428
73394SOL    HW230113   5.204  11.670   3.461  1.0286 -1.2939 -0.9873
73395SOL     OW30114   4.428   9.447  12.421 -0.3520  0.4028  0.6021
73395SOL    HW130115   4.376   9.379  12.379  1.5601 -0.4135 -0.5804
73395SOL    HW230116   4.438   9.515  12.354  1.0399  0.0102  0.3781
73396SOL     OW30117   9.931  12.963  11.213  0.6447  0.2614  0.4515
73396SOL    HW130118   9.852  12.913  11.232  0.7889  0.3947  1.4359
73396SOL    HW230119   9.993  12.939  11.282  1.3814  0.3515 -0.1614
73397SOL     OW30120   8.476  12.506  10.117  0.2515  0.2200  0.0283
73397SOL    HW130121   8.410  12.457  10.068 -1.2451  3.7258 -1.7473
73397SOL    HW230122   8.450  12.597  10.109  0.4711  1.3094  6.5697
73398SOL     OW30123   8.746   7.861   3.846  0.0642  0.0865  0.2574
73398SOL    HW130124   8.719   7.907   3.926 -1.6710  0.7586 -0.6421
73398SOL    HW230125   8.829   7.820   3.868 -1.4130 -1.6866  3.1561
73399SOL     OW30126   5.533   2.305   0.993 -0.0189 -0.1587  0.0265
73399SOL    HW130127   5.624   2.328   1.014  1.0720 -1.4772 -2.7027
73399SOL    HW230128   5.531   2.210   0.997 -0.9232 -0.2154 -1.1212
73400SOL     OW30129  11.157   0.462   0.221  0.8323  0.3590  0.1085
73400SOL    HW130130  11.138   0.491   0.311  0.6075  1.0410 -0.1546
73400SOL    HW230131  11.150   0.366   0.225  0.2576  0.4172  0.6866
73401SOL     OW30132   9.697  11.372   8.628  0.2405  0.7206 -0.1351
73401SOL    HW130133   9.734  11.333   8.549  0.6573  0.0568  0.3783
73401SOL    HW230134   9.604  11.383   8.609  0.4638  1.2077 -0.9655
73402SOL     OW30135  11.736   7.469   3.600 -0.1602  0.2499  0.0925
73402SOL    HW130136  11.761   7.532   3.532 -0.7120  1.0765  0.6346
73402SOL    HW230137  11.657   7.506   3.639  0.0418 -0.3048  1.0653
73403SOL     OW30138  11.540   1.303   3.622 -0.3116  0.1677  0.1067
73403SOL    HW130139  11.588   1.275   3.700 -1.2732 -1.6022  0.1101
73403SOL    HW230140  11.608   1.325   3.558  0.4856  1.4601  1.3520
73404SOL     OW30141   6.751  11.657   2.083 -0.8119 -0.0279  0.0948
73404SOL    HW130142   6.777  11.690   2.170  0.2428  2.4323 -1.0480
73404SOL    HW230143   6.833  11.632   2.042 -1.1180  0.3132 -0.7407
73405SOL     OW30144  11.494   6.356   0.122 -0.5458 -0.1556  0.0209
73405SOL    HW130145  11.583   6.366   0.156 -0.3342 -1.1198 -0.2202
73405SOL    HW230146  11.476   6.438   0.076  0.3857 -0.1275 -0.2974
73406SOL     OW30147  12.312   7.580   7.536  0.1436 -0.0909  0.5911
73406SOL    HW130148  12.379   7.616   7.479  1.1583 -0.5232  1.4887
73406SOL    HW230149  12.237   7.566   7.478  1.1652 -0.5793 -0.6633
73407SOL     OW30150   3.674   9.038  13.102 -0.2801  0.2341 -0.4698
73407SOL    HW130151   3.621   9.104  13.057  0.9341  0.0779 -2.2319
73407SOL    HW230152   3.622   8.958  13.097 -0.3732  0.3338 -1.2063
73408SOL     OW30153  11.757   4.175   5.577 -0.2805 -0.0979  0.3029
73408SOL    HW130154  11.710   4.128   5.645 -0.8241 -0.0955 -0.0635
73408SOL    HW230155  11.696   4.178   5.503  0.4928 -0.5748 -0.3762
73409SOL     OW30156   2.261  10.227  10.533 -0.7792 -0.4993 -0.0624
73409SOL    HW130157   2.217  10.206  10.450 -1.0000 -0.5787  0.0745
73409SOL    HW230158   2.327  10.158  10.543 -0.0670  0.0791 -0.6742
73410SOL     OW30159   6.266   9.891  11.000 -0.5094 -0.7265  0.1063
73410SOL    HW130160   6.229   9.852  11.080  0.1523  0.0245  0.8001
73410SOL    HW230161   6.306   9.818  10.954 -0.5653 -1.1109  0.6532
73411SOL     OW30162   8.291  12.152   0.563 -0.0282  0.1101 -0.0707
73411SOL    HW130163   8.381  12.151   0.530 -0.3611  0.0937 -1.0072
73411SOL    HW230164   8.257  12.065   0.541 -0.8582  0.7459 -1.4393
73412SOL     OW30165   8.702   7.192   7.953  0.0115 -0.4514 -0.2954
73412SOL    HW130166   8.734   7.269   7.906 -0.5196  1.1533  1.8297
73412SOL    HW230167   8.778   7.161   8.003 -0.3101 -0.0303  0.4597
73413SOL     OW30168   0.846   9.667   2.517  0.3298  0.0442 -0.1210
73413SOL    HW130169   0.861   9.697   2.606 -0.4771  1.3481 -0.3879
73413SOL    HW230170   0.881   9.578   2.515  0.7639  0.1537  1.3591
73414SOL     OW30171   5.512   0.856   5.872 -0.0486 -0.0140  0.0508
73414SOL    HW130172   5.569   0.856   5.949  0.1915 -1.6523 -0.0863
73414SOL    HW230173   5.554   0.795   5.811 -2.7219 -2.5736  0.5648
73415SOL     OW30174   3.584   3.195   4.847  0.0889 -0.1069  0.4218
73415SOL    HW130175   3.674   3.174   4.874  0.7850  2.1242  0.0972
73415SOL    HW230176   3.573   3.287   4.873 -0.9257  0.6601 -2.4105
73416SOL     OW30177  11.156   8.403   9.819  0.2226  0.2852 -0.1441
73416SOL    HW130178  11.212   8.359   9.883 -1.1796 -0.1577  0.8369
73416SOL    HW230179  11.217   8.452   9.763  1.5986 -0.5009  0.6011
73417SOL     OW30180   4.107   3.955   3.313  0.2140  0.0057 -0.5472
73417SOL    HW130181   4.039   3.996   3.260 -0.0412 -1.9068 -1.7880
73417SOL    HW230182   4.118   3.868   3.275  2.1163 -0.3763  0.7315
73418SOL     OW30183   0.568  10.700   1.756 -0.1070  0.1487  0.1103
73418SOL    HW130184   0.486  10.726   1.799  0.4147  1.5513  0.3104
73418SOL    HW230185   0.585  10.612   1.789 -1.8785 -0.4544 -0.4639
73419SOL     OW30186   7.748   2.274   2.834 -0.7160  0.1726 -0.0072
73419SOL    HW130187   7.780   2.346   2.888 -0.9121  0.3219 -0.0867
73419SOL    HW230188   7.812   2.267   2.763 -0.8987  0.5279 -0.2136
73420SOL     OW30189  10.844   2.349   0.661 -0.0150  0.3548 -0.2073
73420SOL    HW130190  10.928   2.348   0.708 -0.3948 -0.8601  0.5098
73420SOL    HW230191  10.864   2.388   0.576  1.4053 -0.4084 -0.2500
73421SOL     OW30192   7.828  12.283   9.384 -0.3828  0.5042 -0.6332
73421SOL    HW130193   7.804  12.240   9.467 -0.8412  1.0747 -0.4646
73421SOL    HW230194   7.846  12.210   9.324 -1.7486  0.0426 -0.5281
73422SOL     OW30195   6.382   2.383   3.398 -0.8812  0.2941  0.1003
73422SOL    HW130196   6.322   2.319   3.437 -3.1987  1.0466 -1.9619
73422SOL    HW230197   6.368   2.463   3.449 -0.4280  0.0657  0.5978
73423SOL     OW30198   9.765   5.094   3.445  0.0521 -0.0598  0.0909
73423SOL    HW130199   9.752   5.139   3.361 -3.8893  0.7101  0.9276
73423SOL    HW230200   9.742   5.003   3.427  1.4639 -0.4095 -0.0909
73424SOL     OW30201   6.919   9.321   7.430 -0.1735 -0.1909 -0.0971
73424SOL    HW130202   6.863   9.278   7.495 -0.3030 -0.5121 -0.4218
73424SOL    HW230203   6.934   9.255   7.363  1.0438 -0.2797  0.2513
73425SOL     OW30204   8.884   1.467   1.001 -0.0030 -0.2568 -0.3820
73425SOL    HW130205   8.876   1.420   0.918 -0.0287  0.3131 -0.7038
73425SOL    HW230206   8.810   1.529   1.002 -2.1140 -2.5503  1.5935
73426SOL     OW30207   8.475   7.262   7.461 -0.5599  0.3300 -0.3970
73426SOL    HW130208   8.570   7.253   7.462 -0.5465  0.4842 -0.3553
73426SOL    HW230209   8.458   7.344   7.508 -0.7226  0.2124 -0.2489
73427SOL     OW30210   5.058  12.664  10.416  0.0466  0.3839 -0.2808
73427SOL    HW130211   5.003  12.588  10.435  0.1266 -0.2452 -2.2577
73427SOL    HW230212   5.146  12.629  10.409  0.1193  0.6712 -0.9396
73428SOL     OW30213   1.605   4.206   0.594  1.0087  0.2318  0.2462
73428SOL    HW130214   1.575   4.265   0.524  0.2615 -0.3040  0.1026
73428SOL    HW230215   1.701   4.211   0.590  0.9745  0.3213 -0.7144
73429SOL     OW30216   6.317   3.327   4.731 -0.0528  0.1053 -0.1824
73429SOL    HW130217   6.382   3.333   4.800  0.7039  0.2444 -0.8913
73429SOL    HW230218   6.309   3.233   4.713 -1.0680 -0.0231  0.8343
73430SOL     OW30219  12.281   0.666   1.842  0.2497 -0.2359  1.2109
73430SOL    HW130220  12.292   0.632   1.931  1.0665  1.0574  1.6216
73430SOL    HW230221  12.278   0.587   1.787  0.5422 -1.0225  2.2880
73431SOL     OW30222   4.276  12.087  12.774 -0.2607 -0.1888  0.0737
73431SOL    HW130223   4.343  12.107  12.840  0.8233 -0.6754 -0.8519
73431SOL    HW230224   4.202  12.143  12.798 -0.3459 -1.1651  2.3732
73432SOL     OW30225   4.081  12.154   3.978 -0.1597 -0.4793  0.0059
73432SOL    HW130226   4.098  12.137   4.071 -1.4475  0.9000  0.5381
73432SOL    HW230227   4.001  12.206   3.977 -0.1438 -0.4052 -1.8928
73433SOL     OW30228   1.184  12.099   2.917 -0.6762 -0.1926  0.4384
73433SOL    HW130229   1.218  12.139   2.837 -1.7200 -0.2033 -0.0333
73433SOL    HW230230   1.248  12.032   2.940 -0.4402 -0.2823 -0.4640
73434SOL     OW30231   0.878  12.519   0.106  0.1632  0.3243  0.1854
73434SOL    HW130232   0.819  12.445   0.094  1.9198 -0.8346 -2.2556
73434SOL    HW230233   0.878  12.563   0.020  1.6895  1.1498  0.5745
73435SOL     OW30234   2.970   8.787   3.207  0.0947  0.0947 -0.5806
73435SOL    HW130235   2.967   8.731   3.285 -0.6002 -0.7532 -1.1925
73435SOL    HW230236   2.887   8.834   3.208 -1.2988 -2.0884 -2.3047
73436SOL     OW30237   0.644  11.632   6.935 -0.1328  0.2953 -0.1390
73436SOL    HW130238   0.634  11.674   6.850  2.2325  0.1357 -0.5749
73436SOL    HW230239   0.635  11.538   6.916  3.0162  0.0198 -0.8184
73437SOL     OW30240   9.242  10.886   6.429  0.2187  0.2383  0.3665
73437SOL    HW130241   9.324  10.934   6.424  1.3927 -1.7720 -1.2611
73437SOL    HW230242   9.198  10.905   6.346  0.2933 -0.7194  0.0875
73438SOL     OW30243   1.936   8.737   1.896  0.4844  0.1257 -0.0270
73438SOL    HW130244   1.913   8.649   1.866  1.8836  0.0355 -0.8925
73438SOL    HW230245   1.877   8.753   1.970  0.3967 -1.6420  0.3190
73439SOL     OW30246   6.966   5.857  12.998 -0.0681  0.5475 -0.4129
73439SOL    HW130247   6.877   5.824  12.993 -0.0747  0.6470 -1.1588
73439SOL    HW230248   6.957   5.952  13.006 -0.0353  0.6114 -1.0492
73440SOL     OW30249  12.008   7.218  11.679  0.3833 -0.0279  0.6211
73440SOL    HW130250  12.096   7.204  11.714  0.8216  2.0136  0.4386
73440SOL    HW230251  12.022   7.256  11.592 -0.6928 -0.3298  0.2917
73441SOL     OW30252   5.159   8.483   8.648 -0.2980  0.4080  0.0109
73441SOL    HW130253   5.240   8.481   8.698 -0.2729  1.7047  0.0419
73441SOL    HW230254   5.185   8.455   8.560  0.3145  1.3711 -0.1307
73442SOL     OW30255   0.723  12.043   9.379 -0.2649 -0.2254 -0.1035
73442SOL    HW130256   0.708  12.096   9.301 -0.9933 -1.4630 -0.8371
73442SOL    HW230257   0.818  12.037   9.386 -0.1821  0.6669 -0.3511
73443SOL     OW30258   4.621   1.119  12.969 -0.2489 -0.1492 -0.1912
73443SOL    HW130259   4.602   1.180  12.897 -0.1376  0.0270 -0.0703
73443SOL    HW230260   4.534   1.092  13.000 -0.2980 -0.2810 -0.4362
73444SOL     OW30261  12.793   2.466   2.207  0.1380 -0.4751 -0.3568
73444SOL    HW130262  12.753   2.546   2.174  2.2428  1.6990  1.9301
73444SOL    HW230263  12.744   2.445   2.286  0.2347 -0.8160 -0.3869
73445SOL     OW30264   0.420   4.898   0.716  0.0825 -0.5603  0.5700
73445SOL    HW130265   0.472   4.906   0.796 -0.7819  1.3221  1.0086
73445SOL    HW230266   0.338   4.943   0.736 -0.3504 -0.4515 -1.2301
73446SOL     OW30267   3.588   5.466   5.695 -0.6034 -0.0954  0.0715
73446SOL    HW130268   3.655   5.419   5.744 -1.6765 -1.0402  0.6962
73446SOL    HW230269   3.635   5.505   5.621  0.4423 -1.7190 -0.1794
73447SOL     OW30270   3.680   0.732   0.126  0.2019 -0.6047 -0.7254
73447SOL    HW130271   3.775   0.717   0.125  0.7064  2.0095 -0.6374
73447SOL    HW230272   3.660   0.766   0.038  0.1278  2.3311  0.2881
73448SOL     OW30273   4.951  13.299   7.845  0.2244 -0.0060 -0.1534
73448SOL    HW130274   4.942  13.265   7.756  0.6944  0.3258 -0.3328
73448SOL    HW230275   4.953  13.394   7.835  1.8888  0.0160  0.0290
73449SOL     OW30276   5.991   8.700  13.225 -0.2344  0.2109 -0.0521
73449SOL    HW130277   6.024   8.786  13.198 -1.0626  1.0397  1.3890
73449SOL    HW230278   5.899   8.700  13.198 -0.0408 -0.5605 -0.7439
73450SOL     OW30279   8.411  11.716   7.350  0.0459 -0.0471  0.0346
73450SOL    HW130280   8.421  11.660   7.272  1.3638 -0.0960  0.2100
73450SOL    HW230281   8.401  11.655   7.422  0.2765 -0.0331  0.0788
73451SOL     OW30282   2.961   7.149  12.706  0.0942 -0.2701  0.1140
73451SOL    HW130283   2.932   7.115  12.621  1.7102 -0.0191 -0.5924
73451SOL    HW230284   2.989   7.071  12.754  0.0212 -0.3319  0.0567
73452SOL     OW30285   5.313  11.531   8.598 -0.4126  0.5818 -0.0693
73452SOL    HW130286   5.355  11.584   8.666  2.0770 -2.2493  0.8350
73452SOL    HW230287   5.383  11.514   8.535 -1.3178 -0.9378 -0.7069
73453SOL     OW30288   5.087   5.738  12.009 -0.2957 -0.0598  0.1001
73453SOL    HW130289   5.091   5.649  11.976  0.2138 -0.0638  0.1615
73453SOL    HW230290   4.995   5.763  12.001 -0.8715 -1.3259  2.0334
73454SOL     OW30291   7.759   7.969   5.610 -0.1615 -0.0786 -0.5676
73454SOL    HW130292   7.853   7.981   5.593 -0.3723  0.1907 -1.6728
73454SOL    HW230293   7.748   7.992   5.702  0.7196  0.8139 -0.6616
73455SOL     OW30294   0.317   5.154   4.938  0.7785 -0.5927  0.1147
73455SOL    HW130295   0.324   5.151   5.034 -2.7124  1.4698  0.6037
73455SOL    HW230296   0.360   5.236   4.914 -0.6625  0.2564  0.3137
73456SOL     OW30297   7.576   1.730   7.574  0.6555  0.3004 -0.1532
73456SOL    HW130298   7.544   1.798   7.634 -1.7375 -0.1813 -0.7841
73456SOL    HW230299   7.518   1.736   7.498  0.1213 -2.6546 -0.0778
73457SOL     OW30300   3.700   6.395   5.952  0.2587 -0.7158 -0.1404
73457SOL    HW130301   3.752   6.316   5.938  3.4121  0.8343  1.7235
73457SOL    HW230302   3.673   6.389   6.044 -0.1893  0.0121 -0.2185
73458SOL     OW30303   0.754   5.209  11.938 -0.2690  0.5767  0.3898
73458SOL    HW130304   0.779   5.177  11.851  0.1836 -0.3556  0.8475
73458SOL    HW230305   0.789   5.298  11.942 -0.2621  0.6103 -0.3737
73459SOL     OW30306   7.889   3.000   1.182  0.8539 -0.6399  0.3114
73459SOL    HW130307   7.906   2.913   1.218  0.0510 -0.5852  0.8445
73459SOL    HW230308   7.911   3.060   1.253  0.9578 -0.4320  0.1036
73460SOL     OW30309   7.894   9.149   9.057 -0.1109  0.2009 -0.2054
73460SOL    HW130310   7.945   9.225   9.028  0.4410 -0.1347 -0.1245
73460SOL    HW230311   7.899   9.152   9.152 -1.0694  0.7190 -0.1545
73461SOL     OW30312   4.876   3.835   0.281 -0.0575  0.3028 -0.4449
73461SOL    HW130313   4.945   3.897   0.305  0.3024 -0.3878  0.3297
73461SOL    HW230314   4.922   3.754   0.261 -0.6105 -0.0446 -0.3344
73462SOL     OW30315   2.915   1.653   2.454 -0.0080  0.8972 -0.1657
73462SOL    HW130316   2.863   1.576   2.476  1.5641  0.0315  0.6562
73462SOL    HW230317   2.918   1.703   2.536  0.1909  1.0984 -0.2976
73463SOL     OW30318   6.831  12.749   4.430 -0.2415 -0.0838  0.1465
73463SOL    HW130319   6.872  12.700   4.502  0.2955  0.5226  0.2557
73463SOL    HW230320   6.741  12.763   4.459 -0.6762 -1.7511 -0.2525
73464SOL     OW30321  13.297   6.691   3.818 -0.2042  0.0805 -0.0882
73464SOL    HW130322  13.271   6.739   3.897 -0.8103 -3.0145  1.7727
73464SOL    HW230323  13.225   6.705   3.757 -0.0575  1.9827  0.1235
73465SOL     OW30324   0.861  11.541  12.338  1.0416 -0.6318 -0.0092
73465SOL    HW130325   0.918  11.536  12.261 -0.6684 -2.6633 -1.2275
73465SOL    HW230326   0.845  11.450  12.363  1.4120 -0.0280  2.7071
73466SOL     OW30327   9.040   5.676   9.428  0.3203  0.0476  0.3686
73466SOL    HW130328   8.957   5.629   9.413  0.2039  0.7967 -1.5976
73466SOL    HW230329   9.094   5.614   9.477 -0.9855 -0.8842  0.6894
73467SOL     OW30330   9.259  11.311  10.321  0.5372  0.1543  0.4546
73467SOL    HW130331   9.203  11.388  10.332  0.9451  0.4340  0.5553
73467SOL    HW230332   9.282  11.284  10.410  0.7906  0.2022  0.4033
73468SOL     OW30333   1.681   4.864  12.238 -0.3945 -0.0191 -0.2912
73468SOL    HW130334   1.670   4.956  12.213 -1.5386  0.0930  0.5145
73468SOL    HW230335   1.665   4.816  12.157  0.0297  0.4808 -0.6802
73469SOL     OW30336   8.469  10.740   1.100 -0.2337  0.5285  0.5244
73469SOL    HW130337   8.485  10.684   1.176 -1.7477 -0.1671  0.3681
73469SOL    HW230338   8.443  10.679   1.031  1.1122  1.1518 -0.5671
73470SOL     OW30339   6.675   6.164   1.898 -0.4185  0.4119  0.2807
73470SOL    HW130340   6.750   6.116   1.863  0.9141  1.7053  1.2846
73470SOL    HW230341   6.651   6.117   1.978 -1.2195 -0.4565 -0.4378
73471SOL     OW30342   6.556   6.664   9.672 -0.0545 -0.4467  0.1224
73471SOL    HW130343   6.641   6.634   9.638 -0.6341 -0.3016 -1.5522
73471SOL    HW230344   6.563   6.654   9.767  2.4753  1.2086  0.1897
73472SOL     OW30345   5.764   1.784   4.259 -0.0151 -0.2087 -0.6834
73472SOL    HW130346   5.710   1.740   4.193 -1.0133  0.6930 -0.4998
73472SOL    HW230347   5.849   1.742   4.253 -0.0417 -0.0552 -2.6505
73473SOL     OW30348   4.184   2.294  10.337 -0.0299  0.3158  0.2953
73473SOL    HW130349   4.127   2.251  10.401 -0.4141  1.6783  0.9137
73473SOL    HW230350   4.139   2.285  10.253 -1.1620  1.3076  0.7607
73474SOL     OW30351   2.930  10.926  10.534 -0.2594  0.9148 -0.2321
73474SOL    HW130352   2.958  10.956  10.621 -0.1188  2.2131 -0.7133
73474SOL    HW230353   3.011  10.920  10.483 -0.3840  0.5111 -0.3857
73475SOL     OW30354   2.387   7.838   7.830 -0.1414  0.5632 -0.7449
73475SOL    HW130355   2.412   7.774   7.764  0.6619  0.4977 -0.3882
73475SOL    HW230356   2.369   7.787   7.909  0.5472  0.7688 -0.4452
73476SOL     OW30357   0.118   4.117   9.060 -0.0603  0.0226  0.9268
73476SOL    HW130358   0.084   4.052   9.121 -0.5964  0.1023  0.7185
73476SOL    HW230359   0.117   4.199   9.109  1.2879 -0.2324  1.4282
73477SOL     OW30360   4.038   6.003   6.104 -0.3072  0.2616 -0.0049
73477SOL    HW130361   4.020   6.055   6.183 -0.4309 -1.2940  1.0234
73477SOL    HW230362   4.066   6.068   6.040 -2.8369  1.9741  0.4349
73478SOL     OW30363   8.930   8.533  10.317 -0.4010  0.0481  0.4225
73478SOL    HW130364   8.884   8.457  10.352 -0.7220  1.2846  2.9467
73478SOL    HW230365   9.022   8.518  10.338 -0.4277  0.2117  0.6638
73479SOL     OW30366   8.467   5.077   0.875  0.0701 -0.2311  0.9006
73479SOL    HW130367   8.557   5.090   0.905 -0.0951  1.3174  0.8144
73479SOL    HW230368   8.432   5.166   0.865 -1.1683 -0.7878  0.0201
73480SOL     OW30369  10.119   9.308   7.656  0.3816 -0.0533 -0.0184
73480SOL    HW130370  10.155   9.332   7.742 -0.1858 -0.4056  0.3198
73480SOL    HW230371  10.185   9.251   7.618  0.4891 -0.1582  0.3189
73481SOL     OW30372   9.285   7.983  13.274 -0.3360 -0.2050 -0.1371
73481SOL    HW130373   9.286   7.912  13.338  0.0970  1.8663  2.2997
73481SOL    HW230374   9.377   8.005  13.262 -0.5444  1.3820  0.9113
73482SOL     OW30375  11.736  13.294   7.414  0.2991  0.0581  0.2717
73482SOL    HW130376  11.739  13.296   7.510 -1.0061  0.0115  0.3340
73482SOL    HW230377  11.683  13.216   7.394  0.4013  0.1756 -0.4804
73483SOL     OW30378  10.089   9.228   2.435  0.5400  0.4176 -0.1331
73483SOL    HW130379  10.049   9.208   2.520  0.8507 -0.3336 -0.1646
73483SOL    HW230380  10.114   9.143   2.399  2.2596  0.8731 -0.0807
73484SOL     OW30381   2.326  10.797   4.578 -0.1993  0.3811  0.5905
73484SOL    HW130382   2.329  10.726   4.514 -1.2312  0.9269 -0.0884
73484SOL    HW230383   2.233  10.815   4.589  0.0379  1.3681  1.0582
73485SOL     OW30384  11.500   7.002   8.888  0.2018 -0.3652  0.2516
73485SOL    HW130385  11.566   7.020   8.955 -1.1875  2.1063  1.1001
73485SOL    HW230386  11.542   7.026   8.806  0.8767 -0.3575  0.5953
73486SOL     OW30387   1.967   5.630  12.524  0.6745  0.0271  0.0486
73486SOL    HW130388   2.055   5.605  12.553  1.2963  0.0931 -1.6830
73486SOL    HW230389   1.964   5.725  12.535  0.3022 -0.1190  1.3912
73487SOL     OW30390   5.205   5.630  10.469  0.4888 -0.1552  0.0887
73487SOL    HW130391   5.211   5.705  10.529 -1.3992 -0.0881  0.2527
73487SOL    HW230392   5.235   5.665  10.385  0.8755  0.4218  0.4581
73488SOL     OW30393  11.867   8.378   0.882 -0.0205 -0.1912  0.5528
73488SOL    HW130394  11.907   8.430   0.952  1.0171 -0.0177 -0.1534
73488SOL    HW230395  11.847   8.294   0.923 -1.4284  0.6075  1.6292
73489SOL     OW30396   4.259  10.195   4.214 -0.7857  0.2743  0.0018
73489SOL    HW130397   4.220  10.169   4.297  0.2446  1.2094  0.8068
73489SOL    HW230398   4.348  10.160   4.217 -0.8737 -0.0598 -0.9086
73490SOL     OW30399   0.615   5.695   6.396  0.0910  0.1529  0.2295
73490SOL    HW130400   0.538   5.663   6.351  0.0546 -0.9635  1.0610
73490SOL    HW230401   0.581   5.757   6.461  0.1338  1.6615 -1.1300
73491SOL     OW30402  10.132   3.751   0.611 -0.1857 -0.2986 -0.0657
73491SOL    HW130403  10.145   3.669   0.659 -0.2024 -0.0616  0.3420
73491SOL    HW230404  10.044   3.742   0.573 -0.2656 -0.3896  0.1379
73492SOL     OW30405   4.147  12.262   3.742  0.2098  0.6041  0.2698
73492SOL    HW130406   4.141  12.221   3.828 -3.7198  1.5050  0.6338
73492SOL    HW230407   4.171  12.353   3.761 -1.2755  0.9613  0.5383
73493SOL     OW30408   6.121   6.585   2.752  0.3102 -0.9928 -0.7647
73493SOL    HW130409   6.140   6.518   2.818 -0.7595 -0.2281  0.3544
73493SOL    HW230410   6.181   6.656   2.772 -0.4673 -0.4853 -0.1574
73494SOL     OW30411   7.498   9.682  10.974  0.1833 -1.0996 -0.0586
73494SOL    HW130412   7.492   9.596  11.017 -1.7855  0.0388  2.1491
73494SOL    HW230413   7.536   9.739  11.041 -1.3533  0.3787 -0.3915
73495SOL     OW30414  10.642   2.821   1.517  0.3103 -0.4947  0.4109
73495SOL    HW130415  10.552   2.853   1.528  0.5584  0.1648  0.5680
73495SOL    HW230416  10.637   2.728   1.538 -0.6853 -0.8792 -1.3375
73496SOL     OW30417   1.261  10.151   9.434  0.1498 -0.1346  0.0385
73496SOL    HW130418   1.324  10.196   9.378  1.6435 -1.3464  0.6827
73496SOL    HW230419   1.180  10.151   9.383  0.7110  1.2323 -0.9215
73497SOL     OW30420   0.378   5.649   6.271  0.1390 -0.0987 -0.3245
73497SOL    HW130421   0.337   5.696   6.344  2.4634  0.2463  0.8592
73497SOL    HW230422   0.316   5.580   6.249 -1.5751  1.0910  0.5469
73498SOL     OW30423   6.083   8.404   4.597  0.4488 -0.1174  0.2183
73498SOL    HW130424   6.044   8.442   4.675 -0.2626 -1.2002  0.4171
73498SOL    HW230425   6.167   8.448   4.587 -0.1600  1.1797  0.6636
73499SOL     OW30426   2.429  10.329   9.783 -0.3383  0.2061 -0.1278
73499SOL    HW130427   2.388  10.411   9.810 -0.3208 -1.1775  5.2337
73499SOL    HW230428   2.522  10.344   9.796 -0.3208 -0.5280  0.6704
73500SOL     OW30429   3.776   6.357  12.526 -0.1485 -0.1489 -0.3471
73500SOL    HW130430   3.812   6.440  12.496  1.6567 -0.3431  1.0945
73500SOL    HW230431   3.698   6.344  12.473  0.6531  1.4594 -2.0216
73501SOL     OW30432  11.412  12.693   5.387 -0.2046 -0.1906 -0.5756
73501SOL    HW130433  11.487  12.699   5.446 -0.4876  2.1388 -0.3663
73501SOL    HW230434  11.427  12.761   5.322 -1.8046 -0.1346 -0.9210
73502SOL     OW30435   2.075   0.810   6.446 -0.4433  0.0363 -0.4155
73502SOL    HW130436   1.985   0.782   6.462  0.0007 -1.3629 -0.1664
73502SOL    HW230437   2.107   0.840   6.532 -0.6026  0.3150 -0.4542
73503SOL     OW30438   2.921   0.419   7.642  0.1347  0.0666 -0.5372
73503SOL    HW130439   2.936   0.509   7.615 -2.4355  1.2901  1.6563
73503SOL    HW230440   2.885   0.376   7.564 -0.0621  1.3516 -1.1793
73504SOL     OW30441   5.127  10.203   5.051 -0.2773 -0.0814 -0.2261
73504SOL    HW130442   5.041  10.163   5.038  0.5714 -1.1181 -3.6983
73504SOL    HW230443   5.108  10.297   5.059 -1.7670 -0.3463 -0.3357
73505SOL     OW30444   0.487  10.005   5.403 -0.1706 -0.1530  0.2677
73505SOL    HW130445   0.483   9.943   5.476 -0.2371  1.1798  1.4636
73505SOL    HW230446   0.397  10.008   5.369  0.2615 -2.2335 -1.2007
73506SOL     OW30447   4.520  10.755   8.702  0.7540  0.1054 -0.0999
73506SOL    HW130448   4.446  10.746   8.642  1.3673  2.0124 -1.2654
73506SOL    HW230449   4.487  10.807   8.775  1.0806  1.7252 -1.0433
73507SOL     OW30450  10.484   7.466   3.721 -0.1393  0.4398  0.0378
73507SOL    HW130451  10.546   7.431   3.784 -0.2985  1.4667  0.7991
73507SOL    HW230452  10.504   7.421   3.639  2.7597  1.8989 -0.1807
73508SOL     OW30453   0.070   7.428   4.357  0.5222 -0.1529  0.1336
73508SOL    HW130454  -0.016   7.463   4.334 -0.4670 -1.4901  1.5677
73508SOL    HW230455   0.125   7.446   4.281  0.0014  3.9418  0.5001
73509SOL     OW30456  10.235   9.646   2.420  0.0011 -0.1812 -0.6842
73509SOL    HW130457  10.165   9.683   2.474 -0.2056 -1.3079 -0.1375
73509SOL    HW230458  10.312   9.646   2.477  0.4990  1.1717 -1.3263
73510SOL     OW30459   0.325   3.209   2.919 -0.1164 -0.6445  0.8353
73510SOL    HW130460   0.349   3.154   2.845 -0.5719  1.2778 -0.8267
73510SOL    HW230461   0.234   3.234   2.903  0.8562  2.8639 -0.1065
73511SOL     OW30462   7.632   8.874  11.463 -0.1560 -0.2965 -0.5902
73511SOL    HW130463   7.560   8.812  11.448 -1.4140  0.9693 -0.0593
73511SOL    HW230464   7.622   8.939  11.393 -0.2262  0.4941  0.1467
73512SOL     OW30465  13.205   1.172   3.506 -0.4241 -0.2490  0.4585
73512SOL    HW130466  13.156   1.098   3.542  0.0891 -0.3334  1.0084
73512SOL    HW230467  13.270   1.132   3.449 -1.2118 -0.1164 -0.5599
73513SOL     OW30468   1.770   7.258   6.379  0.2218 -0.6555 -0.3990
73513SOL    HW130469   1.739   7.346   6.400  1.3260 -0.2282 -0.4912
73513SOL    HW230470   1.769   7.255   6.283 -1.3567 -1.3312 -0.3907
73514SOL     OW30471   6.033   5.039   3.718  0.5990 -0.2575 -0.3819
73514SOL    HW130472   6.029   5.120   3.666 -0.5826  0.1465  0.2920
73514SOL    HW230473   6.025   4.969   3.653 -1.8485  0.2549 -0.7360
73515SOL     OW30474   2.452  10.139  12.893  0.5189  0.3346  0.4433
73515SOL    HW130475   2.520  10.202  12.871  0.9751 -0.1727  0.3832
73515SOL    HW230476   2.378  10.164  12.838  0.1117  1.8237  1.6022
73516SOL     OW30477   1.028   1.828   2.337  0.0852  0.0894  0.0263
73516SOL    HW130478   0.973   1.880   2.396 -0.9081 -2.1406  1.1715
73516SOL    HW230479   0.966   1.777   2.285  1.0167 -1.1510  0.0904
73517SOL     OW30480   7.164   3.416   3.578  0.0524 -0.5190  0.4119
73517SOL    HW130481   7.230   3.422   3.508 -0.7129 -0.0651 -0.2975
73517SOL    HW230482   7.213   3.433   3.658  0.8016 -0.1747 -0.1012
73518SOL     OW30483   2.101   4.871   0.153  0.0204 -0.0821  0.5617
73518SOL    HW130484   2.185   4.909   0.127  0.0533  0.1389  0.9917
73518SOL    HW230485   2.092   4.792   0.099 -0.4439  0.9721 -0.9692
73519SOL     OW30486   7.228   7.470   5.838  0.3016 -0.4269 -0.2429
73519SOL    HW130487   7.192   7.527   5.770 -0.7337  0.5332  1.0749
73519SOL    HW230488   7.246   7.387   5.792  1.1492  0.6844 -2.0221
73520SOL     OW30489  10.777   8.942   8.687 -0.0542  0.2905  0.1130
73520SOL    HW130490  10.686   8.963   8.710 -0.6208  1.4724 -2.7681
73520SOL    HW230491  10.774   8.850   8.660  0.1731 -0.4142  2.2736
73521SOL     OW30492   6.181   0.925   9.735  0.1442 -0.0367 -0.1920
73521SOL    HW130493   6.267   0.890   9.757  0.7360 -0.3358 -2.7144
73521SOL    HW230494   6.197   1.017   9.714  0.0293 -0.2923 -1.4726
73522SOL     OW30495   7.628  10.518   0.956 -0.5700 -0.0069  0.1004
73522SOL    HW130496   7.713  10.560   0.967 -1.0014  0.9815 -0.2339
73522SOL    HW230497   7.571  10.562   1.020 -0.8655 -0.5576  0.2222
73523SOL     OW30498   1.652  10.174   1.278  0.5305  0.0516  0.0140
73523SOL    HW130499   1.721  10.241   1.272  1.2395 -0.5377  1.1680
73523SOL    HW230500   1.644  10.158   1.372  0.0445 -1.1564 -0.2268
73524SOL     OW30501   6.604   9.217   7.166  0.3489  0.0822 -0.5252
73524SOL    HW130502   6.536   9.208   7.233  0.4922 -0.8556 -0.4933
73524SOL    HW230503   6.576   9.158   7.095  0.4808  0.6472 -1.0542
73525SOL     OW30504   4.875   5.261   8.956  0.0391 -0.4358  0.3600
73525SOL    HW130505   4.787   5.256   8.920  0.2168  0.2873 -0.1915
73525SOL    HW230506   4.862   5.257   9.051 -0.4214 -2.3490  0.2533
73526SOL     OW30507  10.124   1.798   2.458 -0.4466  0.1159 -0.5764
73526SOL    HW130508  10.156   1.876   2.505  0.2871 -0.7302  0.3760
73526SOL    HW230509  10.056   1.762   2.515  1.6692 -1.9334  0.8499
73527SOL     OW30510   3.193   4.524   6.709  0.7421 -0.4486 -0.2436
73527SOL    HW130511   3.160   4.437   6.733  0.9158 -0.4610 -0.0420
73527SOL    HW230512   3.172   4.533   6.616 -0.1859 -0.2962 -0.0332
73528SOL     OW30513   3.095  10.335   2.764 -0.0900  0.0380 -0.4032
73528SOL    HW130514   3.052  10.260   2.805  4.6359 -1.9624  1.6917
73528SOL    HW230515   3.029  10.373   2.707 -4.1717 -2.9884  1.7946
73529SOL     OW30516   5.451   5.125   6.390 -0.1761 -0.1477  0.3849
73529SOL    HW130517   5.483   5.035   6.394 -1.6718 -0.8010 -0.9750
73529SOL    HW230518   5.513   5.170   6.332 -0.9689 -1.0870 -1.2775
73530SOL     OW30519  11.665  12.033   9.493 -0.3020 -0.6184  0.3146
73530SOL    HW130520  11.655  12.043   9.587  1.1038 -1.9539  0.6588
73530SOL    HW230521  11.667  11.938   9.479 -1.1627 -0.4522 -1.1561
73531SOL     OW30522   8.683   1.595   8.041  0.2896 -0.6673  0.6333
73531SOL    HW130523   8.719   1.670   8.089 -0.1295 -0.0939  0.0661
73531SOL    HW230524   8.592   1.589   8.069 -0.1429  0.0742 -0.5426
73532SOL     OW30525   3.933   6.111   2.660  0.1264  0.1214 -0.0543
73532SOL    HW130526   4.015   6.074   2.630  0.4716  0.9558 -0.1726
73532SOL    HW230527   3.867   6.071   2.604  0.6220  0.6100 -1.0075
73533SOL     OW30528   6.830   1.863   3.529 -0.2461  0.2211  0.0087
73533SOL    HW130529   6.745   1.845   3.489 -0.3824  0.5919  0.1332
73533SOL    HW230530   6.894   1.833   3.463 -0.4676  0.6005 -0.3827
73534SOL     OW30531   5.560   0.202   1.287  0.0308 -0.4416  0.2957
73534SOL    HW130532   5.466   0.210   1.298 -0.1743 -1.6760 -0.3265
73534SOL    HW230533   5.591   0.291   1.273 -0.9548  0.0440  1.1221
73535SOL     OW30534  10.964  13.115  12.868  0.5227  0.0006  0.4594
73535SOL    HW130535  10.976  13.204  12.902  1.6521  0.7146 -1.6194
73535SOL    HW230536  11.025  13.061  12.919  1.0463  0.7427  0.6371
73536SOL     OW30537   9.572   4.599   3.815 -0.0057 -0.0265  0.6076
73536SOL    HW130538   9.604   4.512   3.792  1.5560  0.5414  0.5368
73536SOL    HW230539   9.564   4.598   3.910  1.3138  0.1460  0.7435
73537SOL     OW30540   7.143  11.963   6.727 -0.3130 -0.5160 -0.1471
73537SOL    HW130541   7.157  11.871   6.749  1.3839 -0.2089  0.1497
73537SOL    HW230542   7.107  11.961   6.639 -0.1791 -1.4629 -0.1908
73538SOL     OW30543   5.712   3.603  12.465  0.1033  0.3094  0.0498
73538SOL    HW130544   5.653   3.554  12.407  0.6608  0.2866 -0.5154
73538SOL    HW230545   5.713   3.692  12.430 -0.2375  0.5136  0.5562
73539SOL     OW30546   6.966  12.816   6.805 -0.1495  1.0769 -0.0821
73539SOL    HW130547   6.878  12.808   6.766 -0.2330 -0.5219  0.4023
73539SOL    HW230548   6.952  12.803   6.899  0.5635  1.1968  0.0446
73540SOL     OW30549   9.603  12.592   8.895  0.2235  0.1135 -0.1343
73540SOL    HW130550   9.534  12.633   8.842  1.0038  0.3800 -0.9603
73540SOL    HW230551   9.558  12.521   8.941 -0.4499 -0.1901 -1.2372
73541SOL     OW30552  12.096   3.455   1.138 -0.0963  0.0192 -0.3359
73541SOL    HW130553  12.177   3.439   1.186 -0.1096  0.0946 -0.2875
73541SOL    HW230554  12.036   3.387   1.168 -0.4732  0.7403  0.6100
73542SOL     OW30555  11.534  11.875   1.364 -0.0547  0.1987  0.1279
73542SOL    HW130556  11.544  11.781   1.378  0.4595  0.3916  1.1297
73542SOL    HW230557  11.541  11.914   1.451 -1.4439  1.0738 -0.1227
73543SOL     OW30558   6.160   1.767   5.243 -0.5340  0.0906  0.4438
73543SOL    HW130559   6.064   1.760   5.247 -0.4627 -1.8251 -0.2010
73543SOL    HW230560   6.179   1.794   5.153 -0.4744  1.3787  0.8212
73544SOL     OW30561   8.203   5.044   0.981  0.4839 -0.0019 -0.2067
73544SOL    HW130562   8.166   4.963   0.946  1.0790 -0.3200 -0.1199
73544SOL    HW230563   8.293   5.045   0.948  0.5447  0.5110 -0.0285
73545SOL     OW30564   6.449   0.594   3.398 -0.3699 -0.5918  0.1764
73545SOL    HW130565   6.496   0.538   3.337  0.8457 -1.0945  1.5157
73545SOL    HW230566   6.445   0.680   3.355 -1.3610 -1.4110 -1.4617
73546SOL     OW30567   0.795   5.541   3.930  0.1912 -0.0671  0.1257
73546SOL    HW130568   0.814   5.624   3.974 -0.8070 -0.1210  0.6867
73546SOL    HW230569   0.875   5.490   3.939  0.7609  0.7721 -0.0854
73547SOL     OW30570  11.519   6.367   3.297  0.2954 -0.4468  0.2792
73547SOL    HW130571  11.563   6.373   3.212 -2.0147 -1.0225 -1.0399
73547SOL    HW230572  11.579   6.315   3.351  0.6480 -2.4726 -1.8935
73548SOL     OW30573   3.132   9.489   8.967  0.2829 -0.2591 -0.4216
73548SOL    HW130574   3.067   9.432   9.008 -1.0446  0.7316 -1.0889
73548SOL    HW230575   3.143   9.562   9.028  0.3020 -0.1075 -0.6057
73549SOL     OW30576   7.917   0.844  12.756  0.5722  0.8294  0.2612
73549SOL    HW130577   7.862   0.832  12.679  0.7049 -0.3897  0.3486
73549SOL    HW230578   7.876   0.790  12.824  0.5388  1.7682  1.0145
73550SOL     OW30579   8.816   1.043  11.233  0.5860 -0.1501 -0.0630
73550SOL    HW130580   8.829   0.980  11.304  1.0595  0.6329  0.5637
73550SOL    HW230581   8.745   1.005  11.181  0.7102 -1.0917  0.4160
73551SOL     OW30582   6.722   3.049   9.964 -0.0924 -0.4218 -0.0784
73551SOL    HW130583   6.627   3.047   9.958 -0.2024 -1.3991  1.4699
73551SOL    HW230584   6.741   3.110  10.035  0.2692 -2.0508  1.3174
73552SOL     OW30585  11.052  11.415   0.360  0.2662  0.2071 -0.7112
73552SOL    HW130586  11.050  11.381   0.450  0.0657 -0.9643 -1.1356
73552SOL    HW230587  11.072  11.508   0.370 -0.3338  0.2253  0.5841
73553SOL     OW30588   8.631   9.773   8.397 -0.3455  0.0986 -0.0454
73553SOL    HW130589   8.653   9.824   8.318 -0.1135  1.2382  0.7250
73553SOL    HW230590   8.572   9.831   8.446  0.4054 -0.1249  1.1489
73554SOL     OW30591   3.625   1.290   2.758 -0.1976 -0.2522  0.3438
73554SOL    HW130592   3.592   1.208   2.721  1.6428  0.3763 -3.1633
73554SOL    HW230593   3.586   1.358   2.703 -1.7026  1.3912  3.1731
73555SOL     OW30594   4.566   7.440   0.356 -0.0446  0.4500 -0.1313
73555SOL    HW130595   4.516   7.429   0.438 -0.5549 -1.2378 -0.6255
73555SOL    HW230596   4.644   7.489   0.382 -0.6474  0.7621  1.1809
73556SOL     OW30597   8.254   2.939   3.215 -0.2113 -0.2195 -0.4392
73556SOL    HW130598   8.225   2.946   3.306  0.8700  1.3081 -0.1884
73556SOL    HW230599   8.321   3.006   3.205 -0.0794 -0.5652 -2.2898
73557SOL     OW30600   1.522   0.828  10.041 -0.0807 -0.1262  1.0058
73557SOL    HW130601   1.562   0.883   9.974 -2.5014 -0.3996 -0.8113
73557SOL    HW230602   1.432   0.861  10.049 -1.6876 -3.7002 -0.2422
73558SOL     OW30603   0.791   5.173  13.227  0.1532  0.2055 -0.0174
73558SOL    HW130604   0.867   5.226  13.206  0.0708  0.4493  0.2889
73558SOL    HW230605   0.723   5.236  13.250 -0.2069  0.0023 -0.4852
73559SOL     OW30606   9.225   0.881   6.807  0.1392 -0.2684  0.6439
73559SOL    HW130607   9.197   0.799   6.765 -0.5659 -0.2585  1.0850
73559SOL    HW230608   9.174   0.949   6.762 -0.2264 -0.2041  1.1568
73560SOL     OW30609  11.883   3.442  10.733 -0.1875 -0.9291 -0.2367
73560SOL    HW130610  11.789   3.451  10.716 -0.0127  1.2430 -0.3136
73560SOL    HW230611  11.923   3.439  10.647 -0.1361 -1.4881 -0.2002
73561SOL     OW30612   1.896  10.868  12.446  0.1922  0.5534 -0.2591
73561SOL    HW130613   1.843  10.788  12.435  0.9266  0.3747 -3.6224
73561SOL    HW230614   1.856  10.931  12.387  0.1044  2.5087  1.7800
73562SOL     OW30615   7.807   0.416   0.158 -0.2328 -0.3558 -0.4682
73562SOL    HW130616   7.801   0.354   0.231 -2.8952  1.0776  0.6460
73562SOL    HW230617   7.877   0.476   0.183 -0.1887 -0.6853  0.2160
73563SOL     OW30618  13.094   8.572  12.101 -0.1833 -0.2609  0.2639
73563SOL    HW130619  13.007   8.537  12.118 -0.5374  1.2518  1.9479
73563SOL    HW230620  13.084   8.667  12.113  1.6690 -0.0475  0.3988
73564SOL     OW30621   7.596   2.810   0.428 -0.5709  0.7819  0.3149
73564SOL    HW130622   7.654   2.751   0.381  0.3311  2.2116 -0.4599
73564SOL    HW230623   7.513   2.806   0.380 -0.5871  0.0088  0.4000
73565SOL     OW30624   0.580   4.413  10.146 -0.2283 -0.0906  0.5538
73565SOL    HW130625   0.658   4.408  10.090 -1.0878  1.7748 -0.9498
73565SOL    HW230626   0.598   4.485  10.206  0.1474 -1.2324  1.8521
73566SOL     OW30627  10.407   2.172   4.277 -0.1583  0.4975  0.3818
73566SOL    HW130628  10.478   2.206   4.223  0.0712 -0.2865  0.1911
73566SOL    HW230629  10.342   2.141   4.215 -0.8107  1.4768  0.5524
73567SOL     OW30630   4.754   9.343   8.818  0.0822  0.0640 -0.1927
73567SOL    HW130631   4.791   9.269   8.768  0.0409 -0.3440  0.3693
73567SOL    HW230632   4.664   9.350   8.786  0.4988  0.7827 -1.2557
73568SOL     OW30633  10.972   8.941   0.917  0.1808  0.5195 -0.3802
73568SOL    HW130634  10.938   8.852   0.906 -0.5879  0.7900 -0.2679
73568SOL    HW230635  11.035   8.952   0.846  1.1924 -0.5418  0.3230
73569SOL     OW30636  10.507  12.575   7.460  0.0081 -0.3629 -0.3866
73569SOL    HW130637  10.478  12.496   7.415  0.9678 -1.2328  0.4754
73569SOL    HW230638  10.478  12.563   7.551  3.4541 -1.6126  0.7043
73570SOL     OW30639  10.285   5.263   1.754  0.5647  0.2137 -0.6533
73570SOL    HW130640  10.376   5.240   1.732  0.7987 -0.2631  0.7309
73570SOL    HW230641  10.251   5.185   1.799  0.5718  1.5865  1.9244
73571SOL     OW30642   4.367   2.094   8.920  0.6849 -0.4162  0.3112
73571SOL    HW130643   4.461   2.094   8.903  0.4921 -1.6833 -0.9925
73571SOL    HW230644   4.328   2.129   8.840  0.0660  1.2313  1.2784
73572SOL     OW30645  10.077   4.443   0.852  0.2618 -0.3076 -0.2403
73572SOL    HW130646  10.170   4.424   0.841 -0.2625 -1.8491 -2.5033
73572SOL    HW230647  10.071   4.483   0.939  3.0695  0.2141 -0.2048
73573SOL     OW30648   9.838   9.955   3.621  0.1350 -0.1061 -0.2843
73573SOL    HW130649   9.798   9.929   3.704 -0.8917 -1.1180 -1.0615
73573SOL    HW230650   9.918   9.903   3.615  0.0221 -0.3051 -0.0884
73574SOL     OW30651  10.548   4.563  11.849  0.4932 -0.2958 -0.1450
73574SOL    HW130652  10.529   4.500  11.779  1.6395 -0.1470 -0.6104
73574SOL    HW230653  10.626   4.529  11.892  1.4404  1.0446 -0.7309
73575SOL     OW30654   2.339   1.149   0.830  0.1057 -0.0961  0.5455
73575SOL    HW130655   2.356   1.118   0.741 -0.9075  0.5042  0.1295
73575SOL    HW230656   2.296   1.076   0.872  0.3687 -0.2950  0.4770
73576SOL     OW30657  10.842   4.658   2.738 -0.2522 -1.1505  0.1247
73576SOL    HW130658  10.911   4.597   2.764 -0.1340 -0.9898  0.1898
73576SOL    HW230659  10.866   4.741   2.780 -0.7268 -1.2067  0.5254
73577SOL     OW30660   0.025  11.008   5.451  0.3726  0.1323  0.1342
73577SOL    HW130661   0.044  11.055   5.370 -0.1428  0.0374 -0.0458
73577SOL    HW230662   0.112  10.988   5.487  0.6004  1.2720  0.2588
73578SOL     OW30663   4.671  11.735   5.741  0.4134 -0.1093  0.2231
73578SOL    HW130664   4.719  11.655   5.759  0.0179 -0.8338 -1.6828
73578SOL    HW230665   4.590  11.728   5.792  1.0021 -0.2512  1.1481
73579SOL     OW30666   7.178   7.319   0.149 -0.3202  0.5345  0.2502
73579SOL    HW130667   7.129   7.237   0.158 -2.7353  1.9795  1.2890
73579SOL    HW230668   7.269   7.294   0.167 -0.7855 -2.0827 -0.5602
73580SOL     OW30669   6.074  12.215  10.331  0.0241 -0.3574  0.3584
73580SOL    HW130670   6.115  12.297  10.360 -0.2043  0.0289 -0.3705
73580SOL    HW230671   6.053  12.169  10.412  3.6056 -1.4838  0.8138
73581SOL     OW30672   9.921   6.478   5.823 -0.3938  0.2916 -0.0802
73581SOL    HW130673   9.915   6.396   5.873 -0.6641  1.0835  1.2326
73581SOL    HW230674   9.942   6.450   5.734  0.4905 -1.1535  0.5395
73582SOL     OW30675  10.805   6.675  11.729 -0.0217  0.1032  0.4705
73582SOL    HW130676  10.827   6.705  11.817  3.5508  0.4585 -0.4026
73582SOL    HW230677  10.835   6.584  11.727  1.4425  0.5706 -0.7851
73583SOL     OW30678  12.918   5.196  12.106  0.7185 -0.5601  0.1773
73583SOL    HW130679  12.869   5.214  12.026  2.1826  0.6085 -0.4932
73583SOL    HW230680  13.007   5.226  12.087  1.3757 -1.3456  1.8403
73584SOL     OW30681   1.197   1.921   7.363 -0.5148  0.1768 -0.0561
73584SOL    HW130682   1.131   1.852   7.355 -1.1567  0.5683  1.4561
73584SOL    HW230683   1.200   1.940   7.457  1.1669  0.7498 -0.2007
73585SOL     OW30684   7.132   8.940   1.640 -0.2899  0.5554 -0.1996
73585SOL    HW130685   7.038   8.932   1.623 -0.6945  2.2287  1.0051
73585SOL    HW230686   7.146   8.888   1.719 -0.0423 -0.2983 -0.7940
73586SOL     OW30687   2.567   1.358  13.155 -0.6231  0.0578  0.1359
73586SOL    HW130688   2.629   1.418  13.114 -1.2599 -0.4083 -1.5878
73586SOL    HW230689   2.619   1.281  13.179 -0.6267 -0.7541 -2.1912
73587SOL     OW30690  12.632   7.915   8.405  0.1824  0.4231 -0.0687
73587SOL    HW130691  12.686   7.987   8.374 -0.3007  0.8456  0.0505
73587SOL    HW230692  12.609   7.866   8.326  1.6082 -0.3945 -0.0077
73588SOL     OW30693   4.921   8.702   6.306 -0.0261  0.3610 -0.2444
73588SOL    HW130694   4.850   8.715   6.368  0.7537  1.8509  0.4102
73588SOL    HW230695   4.929   8.608   6.296 -1.6755  0.1611  0.1351
73589SOL     OW30696   3.072   1.972   7.177 -0.9761 -0.1434  0.6125
73589SOL    HW130697   3.090   1.885   7.141 -1.0594  0.0611  0.0774
73589SOL    HW230698   3.142   1.986   7.241  0.6837  0.5285 -1.2517
73590SOL     OW30699   9.329   4.405  10.261  0.1319  0.1542 -0.2202
73590SOL    HW130700   9.285   4.422  10.178  0.8557 -1.1171 -0.8831
73590SOL    HW230701   9.292   4.321  10.291 -0.5052  0.8395  1.0208
73591SOL     OW30702   6.438   0.292   7.838 -0.7062 -0.3925  0.2644
73591SOL    HW130703   6.394   0.351   7.900 -0.4921 -0.1604  0.1976
73591SOL    HW230704   6.397   0.313   7.754 -0.4835 -0.1877  0.2048
73592SOL     OW30705  11.003   9.031   0.648 -0.3671  0.5135 -0.1876
73592SOL    HW130706  11.070   8.971   0.682  0.9072  1.4627 -0.9401
73592SOL    HW230707  11.048   9.083   0.582 -0.7463  3.9459  1.9977
73593SOL     OW30708   5.337   0.156   7.222 -0.1372 -0.2810 -0.4401
73593SOL    HW130709   5.339   0.251   7.207 -0.2220 -0.3483 -0.8867
73593SOL    HW230710   5.252   0.128   7.188 -0.3356 -0.4420  0.1726
73594SOL     OW30711   2.537   8.671  11.223 -0.5092  0.4186 -0.2299
73594SOL    HW130712   2.445   8.653  11.242 -0.5223  0.7792  0.0596
73594SOL    HW230713   2.563   8.736  11.289  0.1130 -0.1100  0.0622
73595SOL     OW30714   4.130   4.248   3.310 -0.6327 -0.0342  0.1049
73595SOL    HW130715   4.105   4.156   3.304  0.8782 -0.4038 -1.3367
73595SOL    HW230716   4.064   4.295   3.259 -0.3695 -0.5611 -0.7315
73596SOL     OW30717   1.460   0.916  13.018 -0.3886 -0.2781 -0.3611
73596SOL    HW130718   1.542   0.870  12.999 -0.7250 -1.5560  1.0357
73596SOL    HW230719   1.476   0.959  13.102 -0.3801  1.4780 -1.2305
73597SOL     OW30720   2.798   8.818   5.253 -0.3017 -0.1545 -0.4262
73597SOL    HW130721   2.811   8.896   5.200  1.4383  0.5795  0.9548
73597SOL    HW230722   2.858   8.754   5.217 -0.6408 -0.3635 -0.6257
73598SOL     OW30723   0.685  12.077   3.500 -0.0851 -0.0204  0.4482
73598SOL    HW130724   0.593  12.080   3.472 -0.4747  1.2505  1.7520
73598SOL    HW230725   0.685  12.021   3.578  0.3564 -0.4373  0.1604
73599SOL     OW30726   2.141   0.274   2.471  0.1468  0.3553 -0.4670
73599SOL    HW130727   2.182   0.225   2.542  0.5224 -1.0004 -1.5918
73599SOL    HW230728   2.092   0.344   2.515  0.9733 -0.0080  1.0687
73600SOL     OW30729   1.987   0.397  12.092 -0.0792 -0.1673 -0.5264
73600SOL    HW130730   1.950   0.315  12.060 -0.8390 -0.0661  0.0440
73600SOL    HW230731   1.988   0.387  12.188 -0.5130  0.6134 -0.4326
73601SOL     OW30732   2.100   7.373   9.533  0.4484  0.4288 -0.2646
73601SOL    HW130733   2.048   7.431   9.477 -0.6507 -0.1971  0.0960
73601SOL    HW230734   2.056   7.373   9.617 -0.2864 -1.8372 -0.5762
73602SOL     OW30735   0.118   3.884   4.207  0.3578 -0.3419 -0.4364
73602SOL    HW130736   0.194   3.840   4.168 -0.6089 -1.7714 -0.7834
73602SOL    HW230737   0.045   3.861   4.149 -0.4634  0.4522  0.2648
73603SOL     OW30738  12.099  11.752   6.535  0.0088 -0.2359  0.1829
73603SOL    HW130739  12.046  11.725   6.460  2.1275 -0.6357 -1.2424
73603SOL    HW230740  12.067  11.840   6.557 -1.6535 -0.7194 -0.1850
73604SOL     OW30741   2.793   0.145   3.393 -0.3327  0.4059  0.3319
73604SOL    HW130742   2.821   0.109   3.309 -1.0205 -0.5731  0.5116
73604SOL    HW230743   2.806   0.240   3.383  0.0555  0.2621 -0.6947
73605SOL     OW30744  11.531   4.147   7.908 -0.0166 -0.1338 -0.8668
73605SOL    HW130745  11.587   4.090   7.960 -0.2571  1.1454  0.8575
73605SOL    HW230746  11.588   4.179   7.838  1.1755  0.4438  0.3278
73606SOL     OW30747  12.883   6.674   3.792 -0.2141 -0.2961  0.2921
73606SOL    HW130748  12.846   6.592   3.759  0.4911 -0.0829 -1.1216
73606SOL    HW230749  12.960   6.690   3.737  0.3602  0.7083  1.3233
73607SOL     OW30750   5.296   9.696   9.191 -0.1497 -0.1422 -0.1885
73607SOL    HW130751   5.277   9.613   9.147 -0.2433 -0.3910  0.3130
73607SOL    HW230752   5.214   9.719   9.235 -0.2786  0.4836 -0.7571
73608SOL     OW30753  11.256   4.448  10.055 -0.3218  0.1087 -0.0561
73608SOL    HW130754  11.335   4.502  10.052 -0.3414  0.0963 -0.9774
73608SOL    HW230755  11.288   4.358  10.052 -0.4026  0.0859 -2.9654
73609SOL     OW30756   8.060   7.748  13.246 -0.7981 -0.0605 -0.5079
73609SOL    HW130757   8.050   7.843  13.242  1.6869  0.2728 -0.3697
73609SOL    HW230758   8.001   7.721  13.316 -1.4349  1.3800 -0.4430
73610SOL     OW30759   2.765  11.184  11.428  0.5416 -0.0666 -0.1928
73610SOL    HW130760   2.824  11.127  11.477 -0.7965 -1.5170 -0.1756
73610SOL    HW230761   2.698  11.209  11.492 -0.2212 -0.5003 -0.7987
73611SOL     OW30762   5.125   5.638   7.324  0.2187 -0.4307 -0.1423
73611SOL    HW130763   5.128   5.719   7.271 -0.8642 -0.9442 -1.0348
73611SOL    HW230764   5.127   5.669   7.415  1.3641  0.5148 -0.4613
73612SOL     OW30765   6.362  10.802   6.393  0.1735  0.5922 -0.6580
73612SOL    HW130766   6.317  10.810   6.309 -2.8619 -0.3427  0.7273
73612SOL    HW230767   6.296  10.765   6.452  2.0488  1.5222  2.2410
73613SOL     OW30768   4.751   2.778   1.544 -0.0859 -0.0680 -0.2991
73613SOL    HW130769   4.824   2.840   1.544 -0.0043 -0.1486  0.7791
73613SOL    HW230770   4.727   2.769   1.451 -0.9457  2.5650 -0.4039
73614SOL     OW30771  12.801   8.402  12.701 -0.3080  0.3055 -0.2673
73614SOL    HW130772  12.813   8.491  12.667  1.0642 -0.2885 -1.4481
73614SOL    HW230773  12.711   8.379  12.675 -0.8014  1.4424  0.3424
73615SOL     OW30774  10.081   7.353   9.508 -0.2026 -0.3227 -0.1452
73615SOL    HW130775  10.150   7.392   9.561 -0.8212 -0.6770  0.9403
73615SOL    HW230776  10.128   7.313   9.435  0.9291 -1.8917  1.3626
73616SOL     OW30777   2.108   7.270  12.089  0.3882 -0.2655  0.1069
73616SOL    HW130778   2.107   7.184  12.131  1.0475  0.0694  0.8317
73616SOL    HW230779   2.066   7.256  12.004  0.0261 -1.1896  0.4267
73617SOL     OW30780  10.003   2.589   1.897  0.2468  0.2046 -0.0012
73617SOL    HW130781  10.087   2.627   1.871  0.2986 -0.1383 -0.3454
73617SOL    HW230782  10.025   2.502   1.929  0.0962  0.3592  0.5260
73618SOL     OW30783   8.386  12.676  13.279 -0.0637  0.5476 -0.6225
73618SOL    HW130784   8.417  12.766  13.263 -0.4074  1.1343  1.7261
73618SOL    HW230785   8.314  12.686  13.341 -1.4273 -1.2443 -1.8283
73619SOL     OW30786   5.620  10.330   4.711  0.0385  0.4361  0.5907
73619SOL    HW130787   5.703  10.291   4.682  0.2130  0.5814  0.8810
73619SOL    HW230788   5.564  10.328   4.634 -0.0347 -0.5978  0.6682
73620SOL     OW30789  12.429  10.046   5.788 -0.3307 -0.7177 -0.1402
73620SOL    HW130790  12.438  10.090   5.703  0.5950 -0.8952 -0.1473
73620SOL    HW230791  12.336  10.051   5.808 -0.6799 -1.3490 -1.5253
73621SOL     OW30792   9.798  10.193   1.924 -0.2207 -0.0597  0.0814
73621SOL    HW130793   9.841  10.209   1.840  1.2580 -0.4516  0.7243
73621SOL    HW230794   9.825  10.104   1.948  0.7051  0.6168  1.7089
73622SOL     OW30795   8.093   5.313  10.691 -0.1391 -0.1151 -0.6629
73622SOL    HW130796   8.120   5.224  10.672  0.8548  0.5288 -2.5627
73622SOL    HW230797   8.033   5.305  10.764 -0.1945 -2.3477 -0.8863
73623SOL     OW30798   7.864  11.409   4.303  0.2984  0.4412  0.2488
73623SOL    HW130799   7.866  11.483   4.364  0.4269 -0.0109  0.8142
73623SOL    HW230800   7.791  11.355   4.334  0.2938  0.2656 -0.0708
73624SOL     OW30801   1.449   3.723   0.595  0.1912  0.2371 -0.0213
73624SOL    HW130802   1.418   3.808   0.564  0.8049 -0.0682 -1.5361
73624SOL    HW230803   1.532   3.709   0.550  1.2320 -0.1794  1.9111
73625SOL     OW30804   7.788  11.036   2.260  0.1642 -0.1499 -0.2665
73625SOL    HW130805   7.832  11.034   2.345 -1.3174  0.8703  0.5812
73625SOL    HW230806   7.849  11.081   2.202  0.4649  0.8001  0.7456
73626SOL     OW30807   5.469   0.326   0.311 -0.0989  0.2399 -0.3380
73626SOL    HW130808   5.476   0.379   0.231  0.7710  2.0940  0.8843
73626SOL    HW230809   5.519   0.376   0.376  1.6519 -2.6164  0.6811
73627SOL     OW30810  11.815   6.878   8.718 -0.1860 -0.2986 -0.0586
73627SOL    HW130811  11.810   6.821   8.795 -0.5498 -0.4859 -0.2159
73627SOL    HW230812  11.826   6.966   8.754  0.2422 -0.4540  0.1896
73628SOL     OW30813   5.015   9.837  12.476 -0.9352 -0.2952  0.0620
73628SOL    HW130814   5.104   9.809  12.454 -0.2710  0.8724  1.1376
73628SOL    HW230815   4.996   9.794  12.559 -1.3998 -0.5391 -0.1612
73629SOL     OW30816  12.870   4.787   9.867 -0.1844  0.4631  0.2517
73629SOL    HW130817  12.937   4.720   9.855 -1.3686 -0.9214  1.0690
73629SOL    HW230818  12.846   4.781   9.959 -0.1314  2.2437  0.4224
73630SOL     OW30819   4.924   9.393   7.568 -0.3154 -0.3839  0.0075
73630SOL    HW130820   4.996   9.332   7.580 -0.7762 -0.7419  1.0698
73630SOL    HW230821   4.956   9.476   7.603 -1.0177 -0.9856  2.2630
73631SOL     OW30822   6.036  10.958  10.674 -0.1587 -0.2341  0.1600
73631SOL    HW130823   5.948  10.993  10.683 -0.3104 -0.0788 -1.5633
73631SOL    HW230824   6.024  10.871  10.637  0.3926 -0.4813  0.5483
73632SOL     OW30825   1.316   3.755   1.784 -0.4010  0.0024  0.0518
73632SOL    HW130826   1.379   3.690   1.753 -0.4819  0.2604 -0.6619
73632SOL    HW230827   1.369   3.825   1.820 -0.3177 -0.6459  1.2340
73633SOL     OW30828   8.169   6.785   9.359  0.1021  0.3180  0.6522
73633SOL    HW130829   8.252   6.831   9.369  1.9534 -2.2523 -1.3454
73633SOL    HW230830   8.169   6.720   9.430  0.8230 -0.9510 -0.4529
73634SOL     OW30831  11.193   6.268   0.632 -0.4620  0.6066  0.0605
73634SOL    HW130832  11.199   6.290   0.539  1.0050  0.6468  0.1343
73634SOL    HW230833  11.225   6.178   0.637  1.8478  1.3976  0.7814
73635SOL     OW30834   0.166   4.325  11.085  0.0142  0.2498 -0.7804
73635SOL    HW130835   0.235   4.278  11.039 -0.0060  1.0633 -1.6777
73635SOL    HW230836   0.211   4.368  11.158 -0.0650 -1.5802  0.4154
73636SOL     OW30837  10.620   5.465   7.125  0.0755 -0.0827 -0.2383
73636SOL    HW130838  10.582   5.379   7.144 -1.1112  0.5575  0.4276
73636SOL    HW230839  10.635   5.464   7.031  0.0248 -1.0053 -0.2495
73637SOL     OW30840   3.718   6.030  12.441 -0.0082  0.5193  0.3465
73637SOL    HW130841   3.719   5.947  12.394 -1.5135  1.0019 -0.6163
73637SOL    HW230842   3.705   6.096  12.373 -0.2768  1.4139  1.2336
73638SOL     OW30843   0.736   1.301   4.180  0.0447  0.2949 -0.3167
73638SOL    HW130844   0.779   1.367   4.126 -0.5675  0.2594 -0.8604
73638SOL    HW230845   0.710   1.233   4.118  1.5123 -0.9249  0.3696
73639SOL     OW30846   1.443  11.047   6.740 -0.1344 -0.2213 -0.0212
73639SOL    HW130847   1.475  10.994   6.668 -1.3147 -0.5640 -0.3209
73639SOL    HW230848   1.401  11.122   6.697  2.0754  1.3449  0.4009
73640SOL     OW30849   4.868  10.742  10.331 -0.0294 -0.0189  0.5377
73640SOL    HW130850   4.853  10.786  10.415  0.3922  1.9226 -0.3578
73640SOL    HW230851   4.904  10.810  10.274 -1.7367 -0.8772 -1.6996
73641SOL     OW30852  10.659   2.231   3.023  0.0905  0.2714 -0.3576
73641SOL    HW130853  10.669   2.248   2.929  3.5905  1.0199  0.0176
73641SOL    HW230854  10.674   2.137   3.032 -1.8112 -0.1005 -0.6329
73642SOL     OW30855   3.628  11.051  12.815 -0.6192 -0.0599 -0.1694
73642SOL    HW130856   3.657  11.141  12.824  0.4124 -0.4852  1.0541
73642SOL    HW230857   3.580  11.033  12.896 -0.4531 -0.7386 -0.2173
73643SOL     OW30858  10.086   9.459  12.607 -0.4800  0.1643 -0.0329
73643SOL    HW130859  10.166   9.449  12.557 -1.0307  1.0793 -1.1332
73643SOL    HW230860  10.028   9.511  12.551 -0.8010  2.0141  1.8997
73644SOL     OW30861  10.570  11.800   3.714 -0.2341 -0.5562 -0.0113
73644SOL    HW130862  10.626  11.822   3.640  0.4020 -2.1546 -0.0309
73644SOL    HW230863  10.481  11.813   3.682  0.0306 -1.4107 -1.1391
73645SOL     OW30864   3.566   3.459   4.943  0.1705 -0.2394  0.9686
73645SOL    HW130865   3.495   3.508   4.985  1.4690  2.0492  0.6576
73645SOL    HW230866   3.633   3.451   5.012  0.8542  0.3772  0.3881
73646SOL     OW30867   6.887   7.782   9.666 -0.5597  0.3793  0.4777
73646SOL    HW130868   6.907   7.846   9.598 -0.3208 -0.0540  0.1339
73646SOL    HW230869   6.941   7.808   9.741 -1.4399  1.3507  0.7979
73647SOL     OW30870   6.854  11.369  13.236  0.1422  0.1035  0.3419
73647SOL    HW130871   6.948  11.361  13.216 -0.2214 -0.6351 -1.2957
73647SOL    HW230872   6.836  11.296  13.296  0.2324 -1.1517 -1.0757
73648SOL     OW30873  11.617   0.594   4.192  0.4807  0.0644 -0.3002
73648SOL    HW130874  11.590   0.674   4.146  2.5321  0.2531 -1.3352
73648SOL    HW230875  11.701   0.571   4.151  0.6233 -1.8396  0.9422
73649SOL     OW30876  11.075   5.427   8.530  0.4702  0.2085  0.0859
73649SOL    HW130877  11.080   5.359   8.463 -1.3840  2.5587 -2.6953
73649SOL    HW230878  11.159   5.472   8.525  0.7736 -0.3331  0.1940
73650SOL     OW30879   4.674   3.649  12.449 -0.1922 -0.7465 -0.0346
73650SOL    HW130880   4.598   3.615  12.402 -1.5565 -0.4604  1.8407
73650SOL    HW230881   4.723   3.571  12.475 -0.3369 -0.9810 -0.4535
73651SOL     OW30882   4.758   8.322   8.494 -0.2964  0.3317  0.5484
73651SOL    HW130883   4.831   8.336   8.555  0.8661 -1.1006 -0.4576
73651SOL    HW230884   4.739   8.228   8.501 -2.3832  0.7513  1.1240
73652SOL     OW30885   6.852  11.267   8.129 -0.3879  0.7935  0.5079
73652SOL    HW130886   6.865  11.300   8.217 -2.2687 -1.0060  1.5353
73652SOL    HW230887   6.940  11.267   8.090  0.9125 -0.5094  3.1906
73653SOL     OW30888   5.239  11.028   0.668  0.1474  0.1483  0.3923
73653SOL    HW130889   5.173  11.016   0.737  1.2409 -0.9051  1.3016
73653SOL    HW230890   5.221  10.958   0.606  0.0719  0.2102  0.3427
73654SOL     OW30891   5.399  10.679   1.181  0.0124 -0.9115 -0.1537
73654SOL    HW130892   5.330  10.698   1.118  0.7738 -1.0589 -1.0478
73654SOL    HW230893   5.362  10.611   1.238 -2.0668  1.7259  1.9190
73655SOL     OW30894   1.642  11.640   9.178 -0.1194  0.3658 -0.0313
73655SOL    HW130895   1.724  11.689   9.186  0.4129 -0.7435  1.8547
73655SOL    HW230896   1.669  11.549   9.167 -1.1014  0.1545 -0.8304
73656SOL     OW30897   4.418   2.970   8.230 -0.3868 -0.2874  0.0146
73656SOL    HW130898   4.503   2.980   8.273 -1.1646 -0.6276  1.7168
73656SOL    HW230899   4.432   2.903   8.163  0.5872 -0.6544  0.5704
73657SOL     OW30900   2.300   2.249  12.114 -0.6372 -0.2320 -0.2257
73657SOL    HW130901   2.355   2.242  12.036 -1.0232  0.5369 -0.5823
73657SOL    HW230902   2.360   2.238  12.188  0.0397  0.7409 -0.6026
73658SOL     OW30903   9.063   7.812   0.891  0.6409 -0.5339  0.2799
73658SOL    HW130904   9.151   7.850   0.889  0.1368  0.7019  0.8292
73658SOL    HW230905   9.020   7.848   0.813  1.0357 -2.2391 -0.7737
73659SOL     OW30906   8.992   1.421   3.779  0.7776  0.5347  0.1489
73659SOL    HW130907   9.026   1.344   3.824  0.0377  0.0141 -0.1720
73659SOL    HW230908   8.984   1.394   3.687 -0.8538  0.4916  0.2683
73660SOL     OW30909  12.310   5.514  10.523  0.0346 -0.1151  0.0210
73660SOL    HW130910  12.307   5.424  10.554  1.5549 -0.1084  0.2833
73660SOL    HW230911  12.256   5.563  10.585 -0.5355 -0.7928  0.0666
73661SOL     OW30912   2.197  13.114   4.229  0.6401  0.2003  0.3615
73661SOL    HW130913   2.149  13.119   4.146  0.6001  0.8261  0.4172
73661SOL    HW230914   2.275  13.168   4.215  0.0626  1.2559  1.1056
73662SOL     OW30915   0.959   1.196   2.834  0.0130  0.4711 -0.2183
73662SOL    HW130916   0.977   1.203   2.927  1.6461 -2.3481 -0.2064
73662SOL    HW230917   0.863   1.196   2.828 -0.1574 -0.6406  1.6457
73663SOL     OW30918  11.493   6.075   6.008  0.0482  0.5209 -0.7531
73663SOL    HW130919  11.482   6.165   5.979  1.9202  0.5162 -1.6048
73663SOL    HW230920  11.588   6.064   6.018 -0.2164 -1.0318  0.3948
73664SOL     OW30921   7.016   2.634   2.369  0.0045 -0.0238 -0.0287
73664SOL    HW130922   6.965   2.668   2.295 -0.8033 -1.3797 -0.1257
73664SOL    HW230923   6.996   2.694   2.441 -0.3582  0.4628 -0.5225
73665SOL     OW30924   1.979   2.779   6.897  0.1483 -0.2932  0.3482
73665SOL    HW130925   1.966   2.830   6.977 -1.7243 -2.6314  1.6468
73665SOL    HW230926   1.944   2.692   6.917  0.6262 -1.3130 -2.6648
73666SOL     OW30927   3.257   6.376  11.595 -0.4769 -0.4764 -0.7711
73666SOL    HW130928   3.269   6.406  11.685 -0.4318  1.3540 -1.3526
73666SOL    HW230929   3.229   6.453  11.547 -0.6108 -1.4405 -2.3247
73667SOL     OW30930   7.586   6.898   6.771 -0.1188  0.0803  0.1703
73667SOL    HW130931   7.601   6.981   6.816  0.3933  0.4538 -0.6596
73667SOL    HW230932   7.500   6.870   6.801 -1.4647  2.2012 -1.4195
73668SOL     OW30933   5.689   4.542   1.771 -0.3560  0.1452 -0.3950
73668SOL    HW130934   5.712   4.633   1.753  0.6312  0.4459  2.0195
73668SOL    HW230935   5.604   4.529   1.728  0.2484  1.6775 -2.1534
73669SOL     OW30936   5.192   2.704   8.291  0.1615  0.0361  0.5040
73669SOL    HW130937   5.145   2.623   8.308  1.3677 -0.5929  0.9756
73669SOL    HW230938   5.259   2.708   8.359  1.1331  0.6240 -0.4522
73670SOL     OW30939   7.750   2.334   7.097  0.1531  0.3080  0.4389
73670SOL    HW130940   7.773   2.374   7.014  0.1608  0.7840  0.6687
73670SOL    HW230941   7.831   2.335   7.147  0.2539 -0.3575  0.3057
73671SOL     OW30942  10.709   1.626   3.022 -0.1161 -0.2943  0.4144
73671SOL    HW130943  10.794   1.600   3.058 -0.2140 -0.9197  0.1973
73671SOL    HW230944  10.645   1.583   3.079 -0.2816 -2.3820 -1.2242
73672SOL     OW30945   5.059   2.963   6.937  0.1200  0.1168  0.6144
73672SOL    HW130946   5.000   2.970   6.863  1.5541 -1.7160 -0.8074
73672SOL    HW230947   5.016   2.903   6.997  0.7663 -1.8012 -0.7518
73673SOL     OW30948   6.553   1.024   3.342  0.2950 -0.2011 -0.1480
73673SOL    HW130949   6.501   0.968   3.285  0.8074  0.2833 -1.1019
73673SOL    HW230950   6.621   0.965   3.377  0.4490 -0.3241 -0.6474
73674SOL     OW30951   7.884   9.788   7.064 -0.0027 -0.1048  0.1288
73674SOL    HW130952   7.963   9.794   7.118  0.3177  3.2153 -0.4925
73674SOL    HW230953   7.917   9.763   6.977  0.6657  2.3324 -0.4161
73675SOL     OW30954  11.732   3.587   7.830  0.2617 -0.1465 -0.4490
73675SOL    HW130955  11.735   3.682   7.819 -0.9388 -0.0444 -0.0273
73675SOL    HW230956  11.722   3.553   7.741  0.6957  0.1098 -0.6014
73676SOL     OW30957  12.295   9.747   3.859 -0.1823 -0.4357 -0.3154
73676SOL    HW130958  12.250   9.672   3.899 -0.3587 -0.7779 -1.1302
73676SOL    HW230959  12.225   9.809   3.840  0.0954  0.4579  1.4127
73677SOL     OW30960   0.780  11.209   1.768  0.3181 -0.2464  0.0097
73677SOL    HW130961   0.788  11.238   1.859 -3.3812 -0.2492  0.4866
73677SOL    HW230962   0.700  11.158   1.765  0.9468 -1.3221 -3.0671
73678SOL     OW30963   9.653  11.504   7.242 -0.6705  0.0469 -0.0490
73678SOL    HW130964   9.573  11.475   7.199 -0.5760  0.2697 -0.3799
73678SOL    HW230965   9.722  11.486   7.179 -0.5832  0.7695 -0.1731
73679SOL     OW30966   3.038   3.661   4.697 -0.4179 -0.0818  0.4088
73679SOL    HW130967   2.963   3.637   4.643 -1.9218  1.4837  1.7015
73679SOL    HW230968   3.072   3.578   4.730 -1.5339 -0.8202 -0.2635
73680SOL     OW30969   4.576   8.929   0.270 -0.3851  0.0023 -0.6762
73680SOL    HW130970   4.634   9.005   0.262 -0.0552 -0.2163 -0.4316
73680SOL    HW230971   4.524   8.930   0.190 -0.4804  0.5639 -0.6139
73681SOL     OW30972   7.802   3.551  12.000 -0.6070  0.6918 -0.0951
73681SOL    HW130973   7.857   3.595  11.935 -0.7806 -2.1526 -2.4110
73681SOL    HW230974   7.853   3.474  12.026 -1.7531  0.2500  0.9418
73682SOL     OW30975   2.094   2.484  11.727 -0.2043 -0.0505 -0.0337
73682SOL    HW130976   2.007   2.492  11.687  0.3528  1.2592 -1.0415
73682SOL    HW230977   2.089   2.537  11.806 -0.1183  0.6531 -0.4875
73683SOL     OW30978  10.226   3.426   1.251  0.1673 -0.0700 -0.3458
73683SOL    HW130979  10.277   3.410   1.172 -1.1195 -0.6080 -1.1102
73683SOL    HW230980  10.184   3.511   1.236 -3.1959 -1.8291 -2.1088
73684SOL     OW30981   6.826   5.760  10.353 -0.1262 -0.3459 -0.0659
73684SOL    HW130982   6.785   5.842  10.381  2.2361  0.1567  2.3760
73684SOL    HW230983   6.912   5.787  10.321  0.8795 -1.8863  1.2383
73685SOL     OW30984   9.204   2.023  10.697  0.0598 -0.1517  0.9433
73685SOL    HW130985   9.162   1.938  10.690 -1.7888  0.6985  0.9484
73685SOL    HW230986   9.165   2.062  10.776 -1.4622  1.8680 -0.7103
73686SOL     OW30987   5.785  11.883   3.318  0.0040 -0.3966  0.0839
73686SOL    HW130988   5.830  11.951   3.267 -0.3032  0.0143  0.3546
73686SOL    HW230989   5.706  11.863   3.267  0.0147 -0.4351  0.0826
73687SOL     OW30990   4.405   6.176   7.888 -0.0343  0.0801  0.1979
73687SOL    HW130991   4.416   6.235   7.813  0.2023  0.6578  0.6814
73687SOL    HW230992   4.315   6.189   7.916 -0.0884 -0.0522  0.0879
73688SOL     OW30993   3.727  12.584   1.212 -0.2741 -0.0929 -0.1973
73688SOL    HW130994   3.695  12.553   1.296  1.5102 -1.7569 -0.0606
73688SOL    HW230995   3.805  12.635   1.234  2.4982 -3.6363 -0.8799
73689SOL     OW30996   6.147  11.448   4.036 -0.2834  0.3379 -0.1184
73689SOL    HW130997   6.173  11.378   3.976  0.3960 -0.0811  0.6410
73689SOL    HW230998   6.126  11.402   4.117 -2.5064  0.7505 -0.3930
73690SOL     OW30999   8.852   0.269  11.653 -0.1651  0.0955 -0.0887
73690SOL    HW131000   8.775   0.277  11.596  1.1230  0.0007 -1.9448
73690SOL    HW231001   8.918   0.323  11.611  0.8311  0.0873  1.4105
73691SOL     OW31002   0.344  11.438   5.943 -0.1224 -0.5851 -0.0662
73691SOL    HW131003   0.277  11.380   5.908 -0.1358 -0.2507 -0.5996
73691SOL    HW231004   0.389  11.385   6.009 -0.8259 -0.8539  0.2168
73692SOL     OW31005   7.295   3.886   8.279 -0.4517  0.0272  0.0588
73692SOL    HW131006   7.259   3.925   8.359 -0.2560 -0.8655  0.5995
73692SOL    HW231007   7.359   3.949   8.247 -0.0235  0.0843  1.0086
73693SOL     OW31008   0.718   5.650   0.778  0.1237  0.2004  0.0589
73693SOL    HW131009   0.634   5.610   0.798 -0.5849  0.7841 -1.5702
73693SOL    HW231010   0.765   5.585   0.727 -0.0373  0.5024 -0.4835
73694SOL     OW31011   7.506   7.499   3.122 -0.3670  0.4170 -0.0492
73694SOL    HW131012   7.516   7.461   3.035 -0.3898  0.3510 -0.0232
73694SOL    HW231013   7.415   7.480   3.146 -0.7334  1.4966 -0.5178
73695SOL     OW31014   4.306  11.962   9.978  0.3320 -0.6105 -0.0981
73695SOL    HW131015   4.291  12.035   9.917  1.3448  1.1029  1.6035
73695SOL    HW231016   4.385  11.919   9.944  0.3730 -0.2244 -0.5008
73696SOL     OW31017   1.286   1.057   9.857  0.5710  0.0454  0.2115
73696SOL    HW131018   1.348   1.120   9.894  0.4791  1.3588 -1.7592
73696SOL    HW231019   1.337   1.004   9.797  0.4367 -1.1824  1.1209
73697SOL     OW31020  12.116   1.635  10.009 -0.6519  0.0003 -0.2826
73697SOL    HW131021  12.154   1.547  10.006  0.2197  0.3714 -2.5135
73697SOL    HW231022  12.025   1.621  10.034 -0.0261 -1.2960  1.4880
73698SOL     OW31023  11.393  12.345   2.182  0.0453 -0.5053 -0.9500
73698SOL    HW131024  11.386  12.308   2.270  0.6964  0.6272 -0.3862
73698SOL    HW231025  11.303  12.368   2.159  0.1565  2.4005  0.9368
73699SOL     OW31026   8.363   9.901   9.927  0.2764 -0.0855 -0.3895
73699SOL    HW131027   8.401   9.892   9.839 -0.5100  0.9170 -0.8604
73699SOL    HW231028   8.270   9.881   9.914  0.2447 -0.4485  0.3343
73700SOL     OW31029  11.386   6.668  11.070  0.4155 -0.0725  0.3285
73700SOL    HW131030  11.393   6.699  10.980 -1.4846  1.2860  0.5792
73700SOL    HW231031  11.352   6.579  11.062 -1.4799  0.6460 -0.3336
73701SOL     OW31032  12.609   0.769   4.812  0.9795  0.0429 -0.5252
73701SOL    HW131033  12.540   0.801   4.870  0.9654  0.3733 -0.7213
73701SOL    HW231034  12.583   0.679   4.790 -0.3100  0.7268 -1.9896
73702SOL     OW31035   6.471   6.048  13.127  0.4472 -0.4113  0.2394
73702SOL    HW131036   6.518   5.965  13.131 -2.4726 -2.2026  1.2511
73702SOL    HW231037   6.481   6.078  13.037 -0.1450 -3.0511 -0.7949
73703SOL     OW31038  10.141   8.135  10.295 -0.5090 -0.0438 -0.5240
73703SOL    HW131039  10.212   8.082  10.258  2.6560  2.7893  0.8749
73703SOL    HW231040  10.095   8.171  10.219  1.4109  0.2421 -1.6075
73704SOL     OW31041   4.213   5.263   2.586  0.3122 -0.5393 -0.7709
73704SOL    HW131042   4.242   5.173   2.599  2.3007  0.0309 -0.9070
73704SOL    HW231043   4.191   5.294   2.674  0.0121 -1.0247 -0.6719
73705SOL     OW31044   8.314   1.878  10.766  0.1166  0.0467  0.5269
73705SOL    HW131045   8.302   1.939  10.694  1.7034  0.3333  0.4632
73705SOL    HW231046   8.278   1.795  10.734  2.8026 -0.4586 -1.5830
73706SOL     OW31047   2.299   5.713   2.538  0.5250 -0.0296  0.1952
73706SOL    HW131048   2.381   5.745   2.500 -0.4000  0.4202 -1.4946
73706SOL    HW231049   2.293   5.622   2.511 -0.3439  0.4079 -1.1932
73707SOL     OW31050   7.531   5.497   2.380  0.3290 -0.1951  0.2268
73707SOL    HW131051   7.508   5.483   2.471 -0.8169 -0.4164 -0.0799
73707SOL    HW231052   7.573   5.584   2.379  0.6809 -0.3446  0.9958
73708SOL     OW31053   7.785  11.590  11.036 -0.2964 -0.2207 -0.4450
73708SOL    HW131054   7.692  11.598  11.012 -0.2404 -1.1616 -1.0701
73708SOL    HW231055   7.785  11.532  11.113 -0.1755 -1.1196 -1.1017
73709SOL     OW31056   6.199   0.800   2.616 -0.2540 -0.2405 -0.1618
73709SOL    HW131057   6.158   0.880   2.584  0.5617  0.8017  1.2592
73709SOL    HW231058   6.127   0.740   2.630 -1.2048  1.0960  1.0270
73710SOL     OW31059   3.827   4.549   6.270  0.6921  0.4669 -0.2766
73710SOL    HW131060   3.871   4.552   6.355 -0.7820  0.1036  0.5330
73710SOL    HW231061   3.872   4.480   6.221  0.3134 -0.6652  0.9366
73711SOL     OW31062  11.625   5.993   3.245  0.5967 -0.2823  0.0546
73711SOL    HW131063  11.551   6.007   3.303 -0.0823  0.6882 -1.0027
73711SOL    HW231064  11.606   5.909   3.203  0.5316 -0.4427  0.3988
73712SOL     OW31065   8.609   2.787   4.135 -0.0562 -0.9148 -0.5692
73712SOL    HW131066   8.616   2.719   4.202  0.7993 -0.2481  0.0409
73712SOL    HW231067   8.688   2.776   4.082  0.5409  0.1348  0.0670
73713SOL     OW31068   2.652   1.799  11.494 -0.0730 -0.3099 -0.2357
73713SOL    HW131069   2.563   1.808  11.461  0.2112 -0.2313 -1.0082
73713SOL    HW231070   2.650   1.838  11.581 -0.9452 -0.8980  0.0202
73714SOL     OW31071   1.535   1.838   7.985  0.1548  0.1676 -0.3161
73714SOL    HW131072   1.543   1.929   7.955  0.4569  0.4053  0.4367
73714SOL    HW231073   1.626   1.810   7.997  0.0459  0.0956  0.3789
73715SOL     OW31074   1.850   6.211   0.395  0.1619 -0.1242 -0.6685
73715SOL    HW131075   1.787   6.261   0.343 -0.1527  2.1281  1.6514
73715SOL    HW231076   1.797   6.149   0.444 -0.1049  0.6422  0.0439
73716SOL     OW31077  12.152   9.380   5.574  0.2875 -0.0637  0.1551
73716SOL    HW131078  12.121   9.399   5.663 -1.9054  1.0737 -0.7709
73716SOL    HW231079  12.240   9.343   5.586 -0.1339 -0.3611  2.7958
73717SOL     OW31080   5.424   8.574   6.822  0.2412 -0.6000  0.0230
73717SOL    HW131081   5.506   8.623   6.811  0.3875 -0.9902 -0.6466
73717SOL    HW231082   5.368   8.633   6.873  0.3585  0.3253 -0.8840
73718SOL     OW31083   9.246  12.468   7.093  0.2224  0.4448 -0.2307
73718SOL    HW131084   9.248  12.560   7.119  2.1745 -0.0709  1.8051
73718SOL    HW231085   9.193  12.425   7.160  1.5191 -0.2424  0.4090
73719SOL     OW31086  12.299   7.226   5.673 -0.4380 -0.4813  0.2127
73719SOL    HW131087  12.225   7.272   5.714 -1.4963 -0.2346 -1.8474
73719SOL    HW231088  12.272   7.213   5.582  1.6936 -1.2323 -0.3735
73720SOL     OW31089   4.846   1.529  12.273 -0.0007  0.2657 -0.0045
73720SOL    HW131090   4.830   1.435  12.279  1.2107  0.0759  0.5175
73720SOL    HW231091   4.780   1.568  12.330 -0.2387 -0.2989  0.1183
73721SOL     OW31092  12.719   9.294   7.907  0.2460 -0.1628  0.3954
73721SOL    HW131093  12.678   9.341   7.979 -0.3079  0.9103 -0.5716
73721SOL    HW231094  12.792   9.247   7.947  1.1558  1.9311  1.4047
73722SOL     OW31095   0.211   0.654   7.480 -0.2042  0.1204  0.3386
73722SOL    HW131096   0.163   0.723   7.526  1.4410  1.2424  0.4638
73722SOL    HW231097   0.300   0.660   7.514 -0.3002 -3.1609  1.5241
73723SOL     OW31098   6.756   6.367  13.005  0.5628 -0.1367 -0.5808
73723SOL    HW131099   6.735   6.320  12.924  0.6841  1.1016 -1.3666
73723SOL    HW231100   6.787   6.452  12.975  1.2762  0.0985  0.7601
73724SOL     OW31101   5.256   8.769   8.122 -0.3224 -0.4265  0.4907
73724SOL    HW131102   5.218   8.853   8.094  2.1794  0.6988  0.2027
73724SOL    HW231103   5.191   8.733   8.182 -2.9953  0.0982 -1.8436
73725SOL     OW31104   5.092   2.220   2.215 -0.3372  0.0795  0.0774
73725SOL    HW131105   5.012   2.258   2.251  0.7694  1.8881  0.7557
73725SOL    HW231106   5.134   2.177   2.289 -0.0484  0.2492  0.0119
73726SOL     OW31107   2.415   3.388  10.955 -0.4136 -0.1188 -0.3302
73726SOL    HW131108   2.362   3.460  10.919 -0.4996  0.6404  1.2121
73726SOL    HW231109   2.445   3.421  11.039  1.2831 -1.1294 -0.4956
73727SOL     OW31110   3.937   8.087  11.904 -0.2851 -0.4329 -0.0159
73727SOL    HW131111   4.019   8.129  11.932  1.0189 -0.7055 -3.0577
73727SOL    HW231112   3.885   8.081  11.984  1.7137  1.8672  1.6028
73728SOL     OW31113   5.169   9.847   9.487  0.2982 -0.0481 -0.0171
73728SOL    HW131114   5.264   9.835   9.487  0.4805  1.2595 -0.2162
73728SOL    HW231115   5.149   9.881   9.399 -0.6416 -2.2267 -0.7126
73729SOL     OW31116   5.471   9.776   6.302 -0.0721 -0.5912  0.7106
73729SOL    HW131117   5.491   9.861   6.341  1.1416 -0.5466  0.0563
73729SOL    HW231118   5.382   9.757   6.330 -0.3188  0.8284  0.9931
73730SOL     OW31119   2.806   2.555   5.857  0.0479 -0.5984 -0.3730
73730SOL    HW131120   2.738   2.526   5.918  0.9533 -1.9898  0.0442
73730SOL    HW231121   2.768   2.540   5.771 -0.2513 -1.2073 -0.1453
73731SOL     OW31122  12.157   5.112   3.826 -0.1971  0.1384  0.4098
73731SOL    HW131123  12.181   5.188   3.774 -2.1942  1.2586  1.0255
73731SOL    HW231124  12.231   5.051   3.815  0.3510  1.1272 -2.0547
73732SOL     OW31125   2.034   6.489  11.357 -0.3148 -0.1541 -0.5469
73732SOL    HW131126   1.954   6.449  11.322 -0.6524 -0.6421  0.7548
73732SOL    HW231127   2.087   6.507  11.279 -1.4236 -0.3943 -1.3818
73733SOL     OW31128   6.176   7.402   0.165 -0.5373 -0.1524 -0.3271
73733SOL    HW131129   6.172   7.494   0.192 -1.4247 -0.8997  2.4049
73733SOL    HW231130   6.264   7.392   0.128  0.6089  1.1946  1.8591
73734SOL     OW31131  12.240   7.408   0.927 -0.2483  0.5184 -0.0530
73734SOL    HW131132  12.249   7.503   0.932 -1.6786  0.6397  0.8074
73734SOL    HW231133  12.166   7.394   0.867  0.2223 -0.0647 -0.5029
73735SOL     OW31134   0.958  10.405   3.138  0.1507  0.6095  0.5363
73735SOL    HW131135   1.030  10.351   3.170 -1.2836 -2.1751 -0.5810
73735SOL    HW231136   0.995  10.493   3.129  2.5655 -0.0911  2.6792
73736SOL     OW31137   1.049   6.748   6.092  0.2521  0.1858  0.4627
73736SOL    HW131138   1.125   6.713   6.139  0.6634 -1.9051 -1.5759
73736SOL    HW231139   1.052   6.705   6.007 -1.6028  2.2701 -0.7553
73737SOL     OW31140  12.710  13.175  10.844 -0.4652  0.7131  0.3360
73737SOL    HW131141  12.773  13.115  10.885  1.8636  1.3051 -2.1054
73737SOL    HW231142  12.684  13.131  10.764 -3.1418  0.5875  1.1974
73738SOL     OW31143  11.245   7.007   9.244  0.6319  0.1499 -0.1072
73738SOL    HW131144  11.309   7.052   9.189  2.2148 -1.9649 -0.1147
73738SOL    HW231145  11.204   6.943   9.185  0.3088 -0.2224  0.5097
73739SOL     OW31146  11.580   8.793   6.105 -0.5081  0.4770  0.3210
73739SOL    HW131147  11.653   8.779   6.166 -1.1401 -2.4926  0.5770
73739SOL    HW231148  11.501   8.783   6.159 -1.0954  0.8981 -0.4387
73740SOL     OW31149   4.766  11.234   8.722 -0.1208  0.3904 -0.2171
73740SOL    HW131150   4.819  11.172   8.771  0.6293 -0.6089 -2.2045
73740SOL    HW231151   4.676  11.214   8.747  0.1018 -1.5765 -0.8430
73741SOL     OW31152  12.330  12.765   0.641 -0.2101 -0.1320  0.2659
73741SOL    HW131153  12.349  12.789   0.732  1.2172 -0.4088  0.0619
73741SOL    HW231154  12.236  12.784   0.631 -0.0116  1.5979  1.2535
73742SOL     OW31155   1.765  10.311   9.191  0.4177  0.2880  0.0399
73742SOL    HW131156   1.815  10.233   9.215  1.8983  0.8541 -1.1165
73742SOL    HW231157   1.796  10.335   9.104 -1.9574  0.6188 -0.8141
73743SOL     OW31158  11.164   8.364   1.790 -0.1871  0.7485  0.0747
73743SOL    HW131159  11.154   8.300   1.720 -1.6192 -0.6956  1.5153
73743SOL    HW231160  11.254   8.350   1.822  0.6355  1.7067 -1.6505
73744SOL     OW31161   2.509   6.220   4.106  0.3210  0.1529 -0.1398
73744SOL    HW131162   2.603   6.204   4.103  0.5321  0.2914  2.6528
73744SOL    HW231163   2.479   6.171   4.184 -1.7861  0.7105 -0.5253
73745SOL     OW31164   9.267   0.929   3.581  0.6482  0.3623 -0.2753
73745SOL    HW131165   9.254   0.835   3.571  0.4567  0.3363  0.1684
73745SOL    HW231166   9.352   0.937   3.625  0.4173  0.3685  0.1790
73746SOL     OW31167   7.636   2.775   1.575 -0.0859  0.0110 -0.1077
73746SOL    HW131168   7.552   2.777   1.528  0.9619  0.8262 -2.0852
73746SOL    HW231169   7.667   2.865   1.572  0.9655 -0.3216  0.3740
73747SOL     OW31170   7.552   6.374  10.732 -0.0481  0.2369  0.2468
73747SOL    HW131171   7.624   6.431  10.757 -1.7707  1.9912  1.5459
73747SOL    HW231172   7.501   6.425  10.669 -1.9398  0.4667  1.8568
73748SOL     OW31173   5.404   7.662   8.535  0.1198  0.5220 -0.3940
73748SOL    HW131174   5.500   7.658   8.540  0.2593  2.4874 -0.5995
73748SOL    HW231175   5.374   7.599   8.600  1.5535  0.0693 -0.1276
73749SOL     OW31176   4.674   3.132   4.649 -0.4667  0.0017  0.4896
73749SOL    HW131177   4.623   3.209   4.675 -0.9435 -0.0195 -0.3487
73749SOL    HW231178   4.635   3.060   4.698 -1.1401  0.0161 -0.0127
73750SOL     OW31179   9.339   0.583   1.771  0.0937  0.0698  0.0473
73750SOL    HW131180   9.282   0.598   1.846 -0.6808 -0.1113 -0.4985
73750SOL    HW231181   9.420   0.629   1.793  0.5306 -1.3734  1.7470
73751SOL     OW31182   0.632   6.165   0.717 -0.3694 -0.1451 -0.2889
73751SOL    HW131183   0.655   6.084   0.763  0.4925  0.4121  0.2984
73751SOL    HW231184   0.556   6.198   0.763 -0.5261 -0.4472 -0.3252
73752SOL     OW31185   3.012   6.138   0.811 -0.3754  0.5974 -0.1597
73752SOL    HW131186   3.052   6.171   0.731  0.8774  1.2269  0.7060
73752SOL    HW231187   2.930   6.097   0.782  1.2999 -1.6303 -2.1125
73753SOL     OW31188  12.458   1.868   3.810  0.0146 -0.3543  0.1259
73753SOL    HW131189  12.408   1.946   3.833 -1.4510 -0.3945 -2.5232
73753SOL    HW231190  12.478   1.827   3.895 -2.3186  0.9844  1.4446
73754SOL     OW31191   2.712   0.573   8.079  0.1913 -0.5830  0.3456
73754SOL    HW131192   2.637   0.548   8.133  0.7167  0.6837  1.7216
73754SOL    HW231193   2.701   0.523   7.998 -2.2106 -0.3400  0.4470
73755SOL     OW31194   6.184   0.583   1.563 -0.6176  0.3397  0.5122
73755SOL    HW131195   6.224   0.667   1.542 -0.8793  0.2347 -0.4744
73755SOL    HW231196   6.258   0.524   1.577 -0.3804  1.1022  3.0336
73756SOL     OW31197   4.329  13.058   7.395  0.3836  0.6302 -0.5988
73756SOL    HW131198   4.285  13.004   7.461  0.8397 -1.1897 -1.6872
73756SOL    HW231199   4.263  13.069   7.326  0.4391  1.1014 -0.5765
73757SOL     OW31200  12.404   2.028   4.062 -0.5204  0.3361 -0.2913
73757SOL    HW131201  12.428   1.955   4.119  1.7895 -1.2838 -3.0221
73757SOL    HW231202  12.409   2.105   4.118  3.5060 -0.8581  1.4008
73758SOL     OW31203  12.357   3.644   3.135  0.6220 -0.4635  0.1208
73758SOL    HW131204  12.317   3.576   3.080 -0.9706 -0.6390  1.3895
73758SOL    HW231205  12.374   3.600   3.218  0.6211  0.3974  0.5886
73759SOL     OW31206   5.664   8.735   6.068 -0.3295  1.0558  0.8904
73759SOL    HW131207   5.743   8.770   6.110  1.1580 -2.5137  1.4394
73759SOL    HW231208   5.602   8.722   6.140 -0.2763  1.0903  0.9430
73760SOL     OW31209   0.527  10.422  11.015 -0.1166  0.3951  0.1363
73760SOL    HW131210   0.600  10.440  10.956 -1.3121  1.1452 -1.1790
73760SOL    HW231211   0.552  10.464  11.097  0.7322  1.0416 -0.4352
73761SOL     OW31212   5.639  10.849   8.389  0.4593  0.9238 -0.3071
73761SOL    HW131213   5.579  10.815   8.456  1.6948 -0.3028  0.2240
73761SOL    HW231214   5.605  10.936   8.369 -0.9868  0.6094  0.6001
73762SOL     OW31215   4.052   8.357   1.802  0.0210 -0.5203  0.0053
73762SOL    HW131216   4.065   8.435   1.856  0.7852 -0.0947 -0.7736
73762SOL    HW231217   3.959   8.355   1.783 -0.0095  0.1579  0.0821
73763SOL     OW31218  10.354   5.661  10.043 -0.0288 -0.2325 -0.7475
73763SOL    HW131219  10.392   5.592  10.098  1.5691 -0.6226 -2.2096
73763SOL    HW231220  10.310   5.613   9.972 -0.0110  0.2408 -1.0836
73764SOL     OW31221   7.765  12.419   8.608 -0.1720  0.2884 -0.2627
73764SOL    HW131222   7.699  12.440   8.674 -0.1270  1.8852 -0.6821
73764SOL    HW231223   7.754  12.325   8.592 -0.5370 -0.0238  1.6052
73765SOL     OW31224   5.010   3.100   0.039 -0.7223 -0.0600 -0.2965
73765SOL    HW131225   5.053   3.173  -0.006 -2.1168  0.5711 -0.6681
73765SOL    HW231226   5.021   3.119   0.132 -0.1497  0.0496 -0.3837
73766SOL     OW31227   7.024   8.815   5.950 -0.5615 -0.1043  0.5528
73766SOL    HW131228   6.952   8.863   5.992 -1.0791  0.2122 -0.6756
73766SOL    HW231229   7.002   8.815   5.857  2.2653  2.2082 -0.2431
73767SOL     OW31230   2.785  12.009   7.051 -0.3248 -0.2273  0.1658
73767SOL    HW131231   2.698  12.047   7.064 -1.4557 -2.7370  0.4492
73767SOL    HW231232   2.832  12.029   7.132 -1.0452  0.1299  0.5081
73768SOL     OW31233  13.057   7.488   6.149 -0.3923  0.0429 -0.5065
73768SOL    HW131234  13.146   7.513   6.124  0.5072 -0.8742  1.5295
73768SOL    HW231235  13.036   7.413   6.094 -0.0575  0.4897 -1.2533
73769SOL     OW31236   4.001   8.347   8.482 -0.5863 -0.3461 -0.1827
73769SOL    HW131237   4.046   8.308   8.407 -1.0203 -0.3300 -0.4520
73769SOL    HW231238   4.071   8.390   8.532  0.1617 -2.7249  0.9536
73770SOL     OW31239  12.456   9.082   0.433  0.0751 -0.0169 -0.3229
73770SOL    HW131240  12.540   9.067   0.390 -0.0064 -0.4419 -0.3322
73770SOL    HW231241  12.411   8.998   0.428 -0.5506  0.3396 -0.7590
73771SOL     OW31242   9.156  12.594   3.455 -0.0086 -0.0686 -0.0574
73771SOL    HW131243   9.196  12.634   3.532 -0.7923  1.8595 -0.6090
73771SOL    HW231244   9.150  12.665   3.391 -0.0293 -1.4511 -1.6605
73772SOL     OW31245   6.547   1.906   3.702  0.2988  0.2154 -0.0968
73772SOL    HW131246   6.568   1.849   3.628 -1.1200  1.3000 -1.4184
73772SOL    HW231247   6.602   1.984   3.687 -1.0990  1.0918 -0.9497
73773SOL     OW31248   9.537  10.366   6.265  0.1025 -0.4815  0.1335
73773SOL    HW131249   9.585  10.297   6.219 -1.3318 -1.4941  0.0980
73773SOL    HW231250   9.582  10.375   6.349  0.1477 -1.6468  0.2448
73774SOL     OW31251   5.083   0.187   8.777 -0.2481  0.6790 -0.4391
73774SOL    HW131252   5.130   0.246   8.836  0.1558  0.2893 -0.3719
73774SOL    HW231253   5.063   0.241   8.700 -1.9132  1.5651  0.5634
73775SOL     OW31254   7.015   9.979   2.236 -0.2576 -0.3607 -0.0906
73775SOL    HW131255   6.960  10.038   2.286 -0.5312  0.4688 -1.3248
73775SOL    HW231256   6.991   9.892   2.267 -1.3734  0.0528  0.2680
73776SOL     OW31257   1.511   5.016  11.103 -0.1428  0.0747 -0.2175
73776SOL    HW131258   1.502   4.935  11.052  0.2249 -0.1011 -0.0104
73776SOL    HW231259   1.436   5.015  11.163 -1.2214  0.8484 -1.5100
73777SOL     OW31260   0.638   4.121   5.891 -0.2876  0.2972 -0.1033
73777SOL    HW131261   0.628   4.153   5.980 -0.2083  0.1746 -0.0506
73777SOL    HW231262   0.729   4.141   5.868 -0.3357  0.4199 -0.1937
73778SOL     OW31263   6.126   0.509   9.664 -0.1236  0.1769 -0.4697
73778SOL    HW131264   6.206   0.550   9.631 -0.1136  0.3387 -0.2486
73778SOL    HW231265   6.106   0.557   9.744  0.2181 -0.6216  0.1148
73779SOL     OW31266  13.071   4.274  12.930  0.4242  0.6506  0.2585
73779SOL    HW131267  13.050   4.195  12.980  0.1613  0.4469 -0.1724
73779SOL    HW231268  13.124   4.243  12.857  0.9449  0.9699  0.4905
73780SOL     OW31269   5.439  10.131   2.986  0.3965 -0.1639 -0.2017
73780SOL    HW131270   5.515  10.127   3.045 -0.0963 -0.2055  0.4435
73780SOL    HW231271   5.376  10.069   3.024 -1.5266  2.6009  1.5544
73781SOL     OW31272   0.144  11.578  12.165  0.1940 -0.2900 -0.0711
73781SOL    HW131273   0.167  11.504  12.222  0.1836 -1.0301 -0.9982
73781SOL    HW231274   0.136  11.652  12.224 -0.0921 -1.0948  0.9297
73782SOL     OW31275   5.501  11.980   7.206  0.3464  0.1546  0.5216
73782SOL    HW131276   5.446  11.905   7.228 -0.6013  1.1364  1.6570
73782SOL    HW231277   5.481  11.998   7.114  1.9461 -2.0432 -0.3390
73783SOL     OW31278   4.662   4.541  10.481 -0.6546 -0.0119 -0.4717
73783SOL    HW131279   4.663   4.607  10.551 -2.5585 -0.2232 -0.1738
73783SOL    HW231280   4.702   4.464  10.521  0.5169  0.5813 -0.4426
73784SOL     OW31281   4.418   3.706   5.537 -0.0314 -0.2296 -0.2169
73784SOL    HW131282   4.500   3.713   5.489  0.6858  0.5764  1.0555
73784SOL    HW231283   4.351   3.741   5.478  0.9469  1.5104 -0.3444
73785SOL     OW31284   3.690   6.278   8.320 -0.5186  0.0123  0.0667
73785SOL    HW131285   3.709   6.363   8.279 -1.8033  0.7099  0.8462
73785SOL    HW231286   3.598   6.285   8.348 -0.1196 -0.9662  1.7612
73786SOL     OW31287   4.862   3.410   7.786  0.1837  0.3004 -0.2262
73786SOL    HW131288   4.804   3.474   7.827 -0.2705  0.5655 -1.2587
73786SOL    HW231289   4.823   3.325   7.804 -0.5789  0.4810 -0.9654
73787SOL     OW31290   8.213   6.614   9.125 -0.0244  0.0821  0.4929
73787SOL    HW131291   8.148   6.608   9.055  0.7785 -0.5878 -0.2075
73787SOL    HW231292   8.190   6.695   9.171  0.0540  1.0974 -1.1632
73788SOL     OW31293   1.330   4.638   1.823  0.0259  0.4120  0.0058
73788SOL    HW131294   1.320   4.549   1.789  0.7320  0.2590  0.1791
73788SOL    HW231295   1.289   4.636   1.909 -0.0984  0.2975 -0.0556
73789SOL     OW31296   2.549  10.717   1.009  0.1201 -0.6686 -0.3546
73789SOL    HW131297   2.622  10.737   0.951  0.4075 -1.1773 -0.1750
73789SOL    HW231298   2.471  10.746   0.961  0.5764  2.4027  0.5371
73790SOL     OW31299   5.390   6.448   0.099 -1.4127 -0.2003  0.2535
73790SOL    HW131300   5.444   6.369   0.097 -3.8848 -1.9916 -1.5753
73790SOL    HW231301   5.371   6.466   0.007 -5.1480 -0.6505  0.7775
73791SOL     OW31302   1.384  12.054   4.361  0.7828 -0.6479  0.2108
73791SOL    HW131303   1.326  12.016   4.427  2.3878  0.7717  2.5874
73791SOL    HW231304   1.466  12.069   4.407  1.4335  2.0640 -1.6129
73792SOL     OW31305   9.118  10.137   1.453  0.1377 -0.0047  0.8239
73792SOL    HW131306   9.185  10.095   1.507 -0.1913  0.7851  1.8931
73792SOL    HW231307   9.104  10.076   1.381  0.0050 -1.5188  2.0597
73793SOL     OW31308  11.411  12.905  11.291  0.3354  0.0879 -0.1113
73793SOL    HW131309  11.331  12.902  11.238  0.1200 -1.1488  0.2545
73793SOL    HW231310  11.411  12.993  11.330 -1.3358 -0.1900  0.5970
73794SOL     OW31311  12.736  12.892  11.323  0.0603  0.0908 -0.2892
73794SOL    HW131312  12.802  12.950  11.361 -0.5122  0.2873  0.4232
73794SOL    HW231313  12.685  12.861  11.398 -0.0438 -0.8350 -0.7244
73795SOL     OW31314   3.236   7.144   5.477  0.4195 -0.1618 -0.1631
73795SOL    HW131315   3.196   7.131   5.391  1.1853 -0.2202 -0.5264
73795SOL    HW231316   3.321   7.100   5.470  1.8737  2.4686 -0.4694
73796SOL     OW31317  10.293   4.679   1.207 -0.2656 -0.0399  1.3650
73796SOL    HW131318  10.376   4.632   1.210 -0.4063 -0.4080  0.1924
73796SOL    HW231319  10.301   4.748   1.273 -0.0888 -1.7323  3.1670
73797SOL     OW31320   3.750   9.696   8.937 -0.8631 -1.1324  0.6992
73797SOL    HW131321   3.758   9.602   8.919 -1.5058 -1.5603  2.4531
73797SOL    HW231322   3.663   9.706   8.976 -1.0349  0.2992 -0.0024
73798SOL     OW31323   5.803  11.637   6.827 -0.3810  0.0080 -0.1142
73798SOL    HW131324   5.722  11.659   6.872  1.5622  0.8122  3.3629
73798SOL    HW231325   5.842  11.721   6.805 -0.7119 -0.3755 -2.3521
73799SOL     OW31326   8.672   8.443   8.431  0.2747 -0.1189 -0.0812
73799SOL    HW131327   8.688   8.446   8.337  0.8406  0.4641  0.0281
73799SOL    HW231328   8.656   8.534   8.455  2.2866  0.0529  0.7465
73800SOL     OW31329   0.332   4.293   7.304 -0.7695  0.0381 -0.5185
73800SOL    HW131330   0.303   4.375   7.265 -0.1510  0.0145 -1.0466
73800SOL    HW231331   0.415   4.273   7.260 -0.9840 -0.9434 -0.5062
73801SOL     OW31332  10.499   5.983   6.079 -0.2823  0.4737 -0.5387
73801SOL    HW131333  10.432   5.960   6.014 -1.6930 -2.2272  1.6424
73801SOL    HW231334  10.577   5.934   6.051 -0.6423 -0.0597 -0.6232
73802SOL     OW31335   0.443   7.239   2.876  0.7562  0.4964 -0.2665
73802SOL    HW131336   0.467   7.224   2.967  0.2676  2.0454  0.1583
73802SOL    HW231337   0.351   7.211   2.870  0.6984  0.6699 -0.2002
73803SOL     OW31338   5.102  10.692  11.021  0.0446 -0.0474  0.0855
73803SOL    HW131339   5.156  10.719  10.947 -0.9200  1.3878 -0.1217
73803SOL    HW231340   5.095  10.597  11.012  1.8809 -0.1783 -0.3080
73804SOL     OW31341   4.827   6.688  10.664 -0.4732 -0.3203  0.4894
73804SOL    HW131342   4.899   6.675  10.603  0.3145 -1.1879  1.5590
73804SOL    HW231343   4.766   6.746  10.618 -0.0219 -1.1165 -1.1944
73805SOL     OW31344   9.284  10.306   6.200  0.0308  0.6658  0.2017
73805SOL    HW131345   9.361  10.355   6.229 -0.1150  1.4881 -0.7347
73805SOL    HW231346   9.237  10.285   6.281  1.8551 -0.9591  0.8968
73806SOL     OW31347   4.860  10.042   6.958 -0.0449 -0.5005  0.7695
73806SOL    HW131348   4.935   9.998   6.998  1.0609 -0.0959 -0.7944
73806SOL    HW231349   4.887  10.133   6.950 -0.7926 -0.3048  0.3804
73807SOL     OW31350   8.366  12.504  13.075  0.2274 -0.5572  0.6112
73807SOL    HW131351   8.377  12.568  13.004 -0.1289 -0.6003  0.5144
73807SOL    HW231352   8.376  12.556  13.155 -0.3567 -0.3170  0.5356
73808SOL     OW31353   9.248   2.949   0.942  0.5019  0.1121  0.3091
73808SOL    HW131354   9.239   2.905   1.026 -0.0723  0.9265  0.6904
73808SOL    HW231355   9.331   2.917   0.906 -0.4993 -2.3115 -0.0567
73809SOL     OW31356   4.429   7.562  10.424 -0.3932 -0.0233 -0.4183
73809SOL    HW131357   4.337   7.546  10.444 -0.7106  0.7644 -1.2087
73809SOL    HW231358   4.443   7.521  10.339 -0.5053  1.4296 -1.1643
73810SOL     OW31359  12.867   6.012   1.367  0.3804 -0.0138  0.2558
73810SOL    HW131360  12.895   6.087   1.420 -0.8087 -0.2473  1.2465
73810SOL    HW231361  12.883   5.936   1.423 -1.6761 -0.1981  0.6579
73811SOL     OW31362   4.456   4.910   0.552  0.7694 -0.3744  0.0109
73811SOL    HW131363   4.362   4.893   0.552  0.5785  0.6511 -0.2534
73811SOL    HW231364   4.489   4.863   0.475  0.0812  1.2133 -1.3253
73812SOL     OW31365   0.386   5.436   7.218 -0.5106 -0.7953  0.3084
73812SOL    HW131366   0.458   5.498   7.207 -0.8757 -0.1786  1.2436
73812SOL    HW231367   0.417   5.355   7.176  2.2903 -1.7666  3.7485
73813SOL     OW31368   7.084  13.105   3.359  0.4515 -0.9599 -1.1625
73813SOL    HW131369   7.026  13.125   3.286  0.3351  0.4683 -0.7096
73813SOL    HW231370   7.164  13.154   3.340 -0.3055  1.1624  0.6199
73814SOL     OW31371   4.250  11.267   6.741 -0.3251  0.3399  0.4221
73814SOL    HW131372   4.293  11.256   6.825  0.6153 -1.8409 -0.2734
73814SOL    HW231373   4.302  11.215   6.680 -2.4206 -0.2564 -0.9871
73815SOL     OW31374  11.684   7.078  12.046  0.8645  0.2324  0.3758
73815SOL    HW131375  11.734   7.142  11.996  0.1664  1.4489  1.1875
73815SOL    HW231376  11.597   7.116  12.054  0.4266 -0.8280  0.8737
73816SOL     OW31377   2.701   3.882  11.359  0.1840  1.0493 -0.9101
73816SOL    HW131378   2.682   3.938  11.434 -0.2567 -1.1354  0.7235
73816SOL    HW231379   2.797   3.878  11.356  0.2036  0.8725 -0.2201
73817SOL     OW31380   3.170   1.057   7.836 -0.3404 -0.3464  0.5307
73817SOL    HW131381   3.108   1.077   7.765  0.4238  1.3215  0.2861
73817SOL    HW231382   3.114   1.033   7.910 -1.1483 -3.9828 -1.0418
73818SOL     OW31383  12.256   7.520  11.152  0.5311  0.4040 -0.3722
73818SOL    HW131384  12.302   7.598  11.119 -1.4135  1.5819 -0.4518
73818SOL    HW231385  12.274   7.520  11.246 -2.8254  3.5875  0.5256
73819SOL     OW31386   7.203  11.306   4.110  0.1194 -0.6586  0.1015
73819SOL    HW131387   7.126  11.344   4.069 -0.0597 -1.0241  0.0902
73819SOL    HW231388   7.252  11.381   4.144 -0.1591 -0.4134 -0.0332
73820SOL     OW31389   2.090   9.349   6.118 -0.1840 -0.5471  0.2361
73820SOL    HW131390   2.144   9.398   6.056 -0.4418 -0.0853  0.3670
73820SOL    HW231391   2.003   9.346   6.077 -0.7579  1.0662  1.2086
73821SOL     OW31392   4.016   3.949   9.873 -0.5421 -0.1612  0.0897
73821SOL    HW131393   3.980   3.943   9.962  0.5798 -0.9636  0.5067
73821SOL    HW231394   4.110   3.954   9.886 -0.4085  0.5710 -1.0365
73822SOL     OW31395  12.227   8.237   1.470  0.5407 -0.2013 -0.3162
73822SOL    HW131396  12.135   8.212   1.482 -0.1883  2.1694 -0.3893
73822SOL    HW231397  12.225   8.301   1.398  1.6773  2.4799  1.8279
73823SOL     OW31398  11.492   1.033   5.567  0.0559 -0.1335 -0.2716
73823SOL    HW131399  11.575   1.040   5.520  1.1589 -1.1510  1.4568
73823SOL    HW231400  11.489   1.112   5.622 -0.6247  0.4074 -1.0583
73824SOL     OW31401   8.362  10.048   5.749 -0.5472  0.1717 -0.2963
73824SOL    HW131402   8.311  10.000   5.814  1.9349  1.3299  2.7609
73824SOL    HW231403   8.433   9.989   5.725  1.9524  1.6225  2.7483
73825SOL     OW31404  11.830   6.280  11.872 -0.4786 -0.3377 -0.2055
73825SOL    HW131405  11.735   6.269  11.882 -0.6107  0.3993 -0.5807
73825SOL    HW231406  11.865   6.259  11.959 -0.9010 -1.3978 -0.2741
73826SOL     OW31407   4.461   4.002   3.535  0.1855  0.1164 -0.0062
73826SOL    HW131408   4.407   4.001   3.615  0.9721  0.5092  0.5411
73826SOL    HW231409   4.526   3.933   3.550  0.4405  0.3078 -0.2332
73827SOL     OW31410  12.955   0.276  10.257 -0.6685  0.0506  0.0635
73827SOL    HW131411  12.984   0.365  10.235  0.8670 -0.4881 -0.1981
73827SOL    HW231412  12.986   0.222  10.184 -0.1655 -0.9393  0.9824
73828SOL     OW31413   8.701  12.404  10.244 -0.0464 -0.1278  0.1459
73828SOL    HW131414   8.743  12.343  10.184  0.5308  0.7018 -0.3144
73828SOL    HW231415   8.623  12.434  10.198  0.6973  0.9476 -0.4693
73829SOL     OW31416   5.417   4.214   1.821 -0.5979 -0.1280  0.0295
73829SOL    HW131417   5.373   4.279   1.876 -2.3248 -0.8324 -0.4268
73829SOL    HW231418   5.410   4.249   1.733 -0.8430 -0.5605 -0.1243
73830SOL     OW31419   2.254   1.267   6.714 -0.1735  0.2714 -0.1498
73830SOL    HW131420   2.235   1.351   6.671  2.1875  0.6305 -0.6466
73830SOL    HW231421   2.245   1.285   6.807 -1.5570  0.5208 -0.3023
73831SOL     OW31422   9.118  10.969   5.119  0.0982 -0.5215 -0.1123
73831SOL    HW131423   9.134  10.958   5.213 -1.5584  0.9476  0.4002
73831SOL    HW231424   9.205  10.988   5.083  0.4859  1.3103  1.5473
73832SOL     OW31425   3.513   9.999   0.003 -0.0521 -0.1214 -0.9050
73832SOL    HW131426   3.451   9.930   0.026  0.1008  0.4962  1.6340
73832SOL    HW231427   3.598   9.955  -0.001  0.1763 -0.0664  1.5124
73833SOL     OW31428  13.215  10.593  10.136  1.0453 -0.7058 -0.8714
73833SOL    HW131429  13.251  10.548  10.060  1.5676 -0.2070 -0.9213
73833SOL    HW231430  13.265  10.559  10.210  1.2532 -0.4107 -0.8767
73834SOL     OW31431   7.900   9.688   9.666  0.2473 -0.0562 -0.2425
73834SOL    HW131432   7.863   9.651   9.586 -1.6893  1.4210 -0.1167
73834SOL    HW231433   7.928   9.612   9.718  1.6509 -1.0333 -2.3206
73835SOL     OW31434  10.243   9.310   9.325 -0.1106  0.1045 -0.0605
73835SOL    HW131435  10.196   9.242   9.374  0.0112 -1.5045 -2.0298
73835SOL    HW231436  10.335   9.293   9.344 -0.1162  0.2895  0.1356
73836SOL     OW31437   3.379   2.719   1.121  0.4894  0.3661  0.0622
73836SOL    HW131438   3.421   2.782   1.181 -0.0732  0.3465  0.4846
73836SOL    HW231439   3.446   2.700   1.056  1.0802  0.4762  0.6235
73837SOL     OW31440   1.043   3.406  10.173 -0.0768 -0.5709  0.2924
73837SOL    HW131441   1.077   3.476  10.228 -0.1010  0.4974 -1.0017
73837SOL    HW231442   1.117   3.345  10.164  0.0640 -0.5395  1.1166
73838SOL     OW31443  12.224   6.522   2.052  0.3119 -0.2505  0.1371
73838SOL    HW131444  12.224   6.534   2.147  0.1056 -0.5855  0.1810
73838SOL    HW231445  12.310   6.553   2.024  0.5832 -0.6700  0.4997
73839SOL     OW31446  10.319   8.921   8.926 -0.0810 -0.6444 -0.4408
73839SOL    HW131447  10.241   8.970   8.899 -1.5701 -1.2843  2.3488
73839SOL    HW231448  10.356   8.972   8.998  2.2386 -0.2898 -1.7851
73840SOL     OW31449  12.757   7.571  12.085  0.0420  0.0611  0.1941
73840SOL    HW131450  12.835   7.621  12.063 -0.0334  0.1415  0.1077
73840SOL    HW231451  12.754   7.572  12.181  0.7662 -0.8968  0.2417
73841SOL     OW31452   7.276   5.675  12.662  0.3229  0.5741  0.1462
73841SOL    HW131453   7.282   5.582  12.685  0.2512  0.7542  0.9482
73841SOL    HW231454   7.367   5.705  12.661  0.4175  0.2714 -1.1318
73842SOL     OW31455   7.492   1.819   1.051  0.1871 -0.0834 -0.1419
73842SOL    HW131456   7.406   1.819   1.010  0.4116 -0.2598 -0.6187
73842SOL    HW231457   7.486   1.886   1.119 -0.3704 -0.1985 -0.0725
73843SOL     OW31458   3.896   7.973   5.229 -0.8215  0.1075 -0.5059
73843SOL    HW131459   3.852   8.055   5.251  0.5745  0.5462  0.8108
73843SOL    HW231460   3.988   7.989   5.249 -0.4455 -1.6359 -0.6746
73844SOL     OW31461  11.672   0.343   3.922 -0.1282 -0.3501 -0.0752
73844SOL    HW131462  11.580   0.369   3.913 -0.1721 -0.6982 -0.6834
73844SOL    HW231463  11.712   0.414   3.972 -0.6833 -0.0945  0.0155
73845SOL     OW31464   0.344   4.013  11.027 -0.0866  0.6082 -0.3410
73845SOL    HW131465   0.271   4.027  11.087  0.1315 -1.3297  0.4404
73845SOL    HW231466   0.330   3.926  10.991  1.7021  0.2863 -0.3476
73846SOL     OW31467   7.664   0.604   5.434 -0.1137 -0.1853 -0.0992
73846SOL    HW131468   7.641   0.534   5.372 -2.0694 -0.2573  0.6224
73846SOL    HW231469   7.725   0.660   5.386  0.9415 -1.9732 -0.9426
73847SOL     OW31470   4.970   4.994  12.981 -0.3421 -0.1494  0.1822
73847SOL    HW131471   5.034   4.931  12.947  0.0881  0.0112  0.6888
73847SOL    HW231472   5.015   5.078  12.977 -1.1197  0.2259 -1.0373
73848SOL     OW31473   8.144   9.921   4.974 -0.2065  0.0553 -0.6168
73848SOL    HW131474   8.126  10.015   4.979 -0.3094 -0.0343  1.8846
73848SOL    HW231475   8.239   9.915   4.981 -0.3018 -0.0506  0.9761
73849SOL     OW31476   2.109  12.830  13.038 -0.6442  0.4902  0.0290
73849SOL    HW131477   2.133  12.744  13.070 -1.6232  0.0741 -0.3106
73849SOL    HW231478   2.192  12.876  13.027 -0.0152 -0.8585 -1.0635
73850SOL     OW31479  13.184   2.669  10.091  0.4591  0.1514  0.0525
73850SOL    HW131480  13.174   2.763  10.108 -1.9598 -0.2145  1.1939
73850SOL    HW231481  13.211   2.632  10.175  1.0247 -0.2150 -0.2897
73851SOL     OW31482  13.206   1.221   3.852 -0.1422 -0.2493 -0.4862
73851SOL    HW131483  13.278   1.171   3.814  1.2213  0.7527  0.6942
73851SOL    HW231484  13.246   1.301   3.885 -1.6573  0.0132  0.8860
73852SOL     OW31485   3.960   0.515  11.149  0.0211  0.8240 -0.0854
73852SOL    HW131486   4.038   0.470  11.116 -0.7345 -0.3910 -0.2758
73852SOL    HW231487   3.951   0.485  11.240 -0.5084  0.5552 -0.2235
73853SOL     OW31488   8.738  10.899   4.409 -0.8021 -0.2015  0.0624
73853SOL    HW131489   8.740  10.993   4.387 -1.2951  0.2588  1.8649
73853SOL    HW231490   8.769  10.856   4.329  0.8081  1.5696 -0.3575
73854SOL     OW31491  10.039  12.798   0.639  0.0368 -0.4464  0.0944
73854SOL    HW131492  10.021  12.892   0.633  1.9770 -0.0571 -0.2792
73854SOL    HW231493   9.952  12.758   0.646 -1.2430  0.9981 -4.2706
73855SOL     OW31494   8.288   8.509   7.684 -0.4171 -0.3817 -0.0430
73855SOL    HW131495   8.196   8.501   7.709 -0.4474 -2.5009 -0.6448
73855SOL    HW231496   8.327   8.426   7.712  1.4210  0.6375  0.5578
73856SOL     OW31497   3.659   7.044  12.054  0.3153  0.1875  0.1445
73856SOL    HW131498   3.599   7.066  12.126  0.6602 -0.0565  0.5133
73856SOL    HW231499   3.744   7.031  12.097  0.1784 -1.6596 -0.0678
73857SOL     OW31500  12.845  11.440   1.458  0.0585  0.3485 -0.1001
73857SOL    HW131501  12.884  11.421   1.543 -2.6144 -0.1421  1.1367
73857SOL    HW231502  12.903  11.504   1.418  2.7263 -1.2081  0.9887
73858SOL     OW31503   5.857  10.142  10.029 -0.2801 -0.2087 -0.1870
73858SOL    HW131504   5.881  10.143  10.122  2.8602  2.4648 -0.8766
73858SOL    HW231505   5.766  10.171  10.028 -0.9147 -1.8382  2.0849
73859SOL     OW31506  10.971   1.437  11.271  0.4760  0.6309 -0.1483
73859SOL    HW131507  10.966   1.471  11.182  0.9258 -0.3660 -0.5678
73859SOL    HW231508  10.880   1.432  11.300  0.2152 -0.2868 -1.0540
73860SOL     OW31509   3.727   2.012   8.667  0.4668 -0.0758  0.1941
73860SOL    HW131510   3.683   1.936   8.703  0.4267 -0.0164  0.2701
73860SOL    HW231511   3.801   2.028   8.726  2.0392 -1.6278 -1.2436
73861SOL     OW31512   8.337   5.586   4.198 -0.2104 -0.3735  0.3308
73861SOL    HW131513   8.407   5.647   4.175  0.5473 -1.2681  0.2091
73861SOL    HW231514   8.288   5.631   4.267  0.3211  0.3652  0.2452
73862SOL     OW31515  10.519  13.257   5.139 -0.3024  1.0143  0.1485
73862SOL    HW131516  10.440  13.303   5.113 -0.8094  0.3821  0.5499
73862SOL    HW231517  10.488  13.177   5.181  0.5596  0.0732 -0.9482
73863SOL     OW31518   3.573  10.328   1.957  0.6769 -0.5084 -0.1621
73863SOL    HW131519   3.615  10.336   2.043  0.9885 -0.1521 -0.3407
73863SOL    HW231520   3.489  10.286   1.975  1.5558 -2.2550  0.0772
73864SOL     OW31521   0.289   8.587  12.510  0.0556  0.6049  0.3250
73864SOL    HW131522   0.343   8.665  12.522  2.3162 -0.8402  0.2082
73864SOL    HW231523   0.342   8.530  12.453 -1.5349 -0.9726  0.3455
73865SOL     OW31524  11.763   8.697   5.625  0.2830 -0.0764 -0.3515
73865SOL    HW131525  11.787   8.605   5.613 -1.7600 -0.6423 -0.4775
73865SOL    HW231526  11.846   8.744   5.617  1.4122 -1.8997 -0.1546
73866SOL     OW31527   1.663   8.648   4.287  0.3400 -0.5021  0.8767
73866SOL    HW131528   1.746   8.694   4.298  1.4593 -1.9181 -0.9772
73866SOL    HW231529   1.652   8.641   4.192 -3.4537  2.2431  0.9115
73867SOL     OW31530   9.592   7.144  11.128  0.5896 -0.3172 -0.0684
73867SOL    HW131531   9.637   7.102  11.055  3.1497 -2.1400  2.3306
73867SOL    HW231532   9.609   7.087  11.203 -0.8669  2.0273  2.2368
73868SOL     OW31533  12.131  11.700   1.128 -0.5697  0.4764  0.5506
73868SOL    HW131534  12.201  11.637   1.113 -2.2604 -1.4607  0.3941
73868SOL    HW231535  12.162  11.752   1.203  2.0490  1.3491 -1.0091
73869SOL     OW31536   1.059   8.785   2.180 -0.1558 -0.5128 -0.6064
73869SOL    HW131537   1.003   8.862   2.167 -0.5353 -0.8226 -0.8188
73869SOL    HW231538   1.096   8.767   2.093  0.2000 -0.3692 -0.4873
73870SOL     OW31539   4.992   3.686   2.079  0.4033  0.3170 -0.2790
73870SOL    HW131540   4.927   3.750   2.108  0.6635  0.4948 -0.0862
73870SOL    HW231541   5.069   3.705   2.132  0.4477 -0.2240 -0.1448
73871SOL     OW31542   4.248   5.746   4.861  0.2450  0.2426 -0.1246
73871SOL    HW131543   4.278   5.787   4.780 -0.4010  0.5320 -0.2267
73871SOL    HW231544   4.206   5.817   4.910 -1.4646 -0.3934 -0.5841
73872SOL     OW31545   6.522  12.766   3.723  0.2784 -0.4798  0.1287
73872SOL    HW131546   6.614  12.789   3.714 -0.0398  0.1226 -2.1041
73872SOL    HW231547   6.508  12.694   3.662 -1.0506  0.4916 -0.7710
73873SOL     OW31548   6.582   8.915   8.784 -0.1727  0.4220 -0.4503
73873SOL    HW131549   6.610   8.955   8.702  3.3359  1.2329  0.9447
73873SOL    HW231550   6.533   8.983   8.829  0.4518  1.0277 -0.6683
73874SOL     OW31551   4.212   2.742   9.989 -0.0520 -0.6117 -0.2789
73874SOL    HW131552   4.125   2.754  10.026  0.4982  2.4688  0.3229
73874SOL    HW231553   4.198   2.737   9.894 -0.8948 -0.1284 -0.1870
73875SOL     OW31554   7.496  11.332  12.253  0.0383  0.1652  0.3079
73875SOL    HW131555   7.556  11.266  12.288 -0.4885 -1.6586 -1.9514
73875SOL    HW231556   7.416  11.283  12.232 -0.9578  1.8505 -0.0231
73876SOL     OW31557   6.205  12.710   8.173 -0.6897 -0.1516  0.5827
73876SOL    HW131558   6.214  12.794   8.219 -2.1680  0.4592 -0.1623
73876SOL    HW231559   6.258  12.649   8.224  0.5898  1.2657  1.0311
73877SOL     OW31560   8.121   2.527   3.323 -0.3863 -0.1732 -0.2585
73877SOL    HW131561   8.121   2.583   3.245  0.7869 -1.2477 -1.0667
73877SOL    HW231562   8.121   2.589   3.396 -0.8996  0.8621 -1.0985
73878SOL     OW31563   0.381   2.527   5.917 -0.0491  0.1285  0.5692
73878SOL    HW131564   0.439   2.522   5.994  0.7468 -2.7223 -0.0856
73878SOL    HW231565   0.440   2.529   5.842 -0.8061 -0.1322 -0.0491
73879SOL     OW31566   0.278  13.286   3.590  0.8091  0.2449  0.1263
73879SOL    HW131567   0.304  13.353   3.653  0.7588  0.9908 -0.6333
73879SOL    HW231568   0.258  13.335   3.510 -0.4318 -0.5586 -0.0698
73880SOL     OW31569   0.234   6.155   9.367  0.1359 -0.1502  0.3932
73880SOL    HW131570   0.239   6.085   9.433  0.9530  0.6328  1.2003
73880SOL    HW231571   0.320   6.197   9.370  0.3233 -0.3164 -1.4587
73881SOL     OW31572  10.687   4.070   1.336  0.6416  0.2545  0.1280
73881SOL    HW131573  10.731   4.029   1.410  1.0676  1.3904  0.5283
73881SOL    HW231574  10.664   3.997   1.278  0.1542 -0.6756  1.4427
73882SOL     OW31575   8.023   0.235  13.220  0.2190 -0.5496 -0.2048
73882SOL    HW131576   7.974   0.239  13.138 -0.0775  0.6218  0.0110
73882SOL    HW231577   8.091   0.169  13.204 -0.0786 -0.6245 -1.2490
73883SOL     OW31578   3.902   1.889  12.569 -0.2306 -0.7283 -0.3146
73883SOL    HW131579   3.988   1.918  12.597 -0.3900 -1.9360  1.6370
73883SOL    HW231580   3.844   1.962  12.590  0.1294 -0.3656 -0.5630
73884SOL     OW31581   8.579   1.541  10.858  0.1478 -0.0601 -0.2220
73884SOL    HW131582   8.667   1.533  10.822  0.0884  0.5900 -0.5241
73884SOL    HW231583   8.521   1.515  10.786  0.1286 -3.7294  0.9179
73885SOL     OW31584   2.115   6.640   7.165 -0.0121 -0.0602 -0.4019
73885SOL    HW131585   2.131   6.545   7.165  0.2593 -0.0184 -0.1916
73885SOL    HW231586   2.174   6.673   7.233  0.7630  0.4042 -1.2825
73886SOL     OW31587   5.428  12.629   0.630 -0.0492 -0.4366  0.2930
73886SOL    HW131588   5.434  12.533   0.635 -0.2355 -0.3983  1.6424
73886SOL    HW231589   5.443  12.658   0.720  0.6891  0.8502 -0.2249
73887SOL     OW31590   2.695   9.670   4.019 -0.7709  0.2922 -0.0437
73887SOL    HW131591   2.687   9.661   4.114 -0.8084  0.7072 -0.0054
73887SOL    HW231592   2.655   9.591   3.984 -0.8624  0.1909  0.2863
73888SOL     OW31593   1.950  13.114   6.267  0.2711 -0.1859  0.1014
73888SOL    HW131594   1.990  13.095   6.182 -0.0717  1.5580 -0.4913
73888SOL    HW231595   1.857  13.099   6.253  0.1565  0.5654  0.0068
73889SOL     OW31596   6.812   1.320  11.154  0.4768 -0.4649  0.3262
73889SOL    HW131597   6.799   1.412  11.130 -0.8769 -1.2253 -2.2344
73889SOL    HW231598   6.731   1.295  11.199  0.4890 -0.6213  0.2618
73890SOL     OW31599   9.674   4.093   3.922 -0.2174 -0.1861  0.6516
73890SOL    HW131600   9.694   4.045   3.842  0.1657  0.5488  0.3021
73890SOL    HW231601   9.626   4.030   3.976  0.9631 -1.2216  0.5326
73891SOL     OW31602   0.294   2.865  11.123  0.3750  0.6820  0.3883
73891SOL    HW131603   0.329   2.782  11.156  0.7753  1.2696  1.4874
73891SOL    HW231604   0.237   2.896  11.193  0.1046  1.2621 -0.0827
73892SOL     OW31605   1.265   8.731   6.210  0.5811  0.1364  0.2242
73892SOL    HW131606   1.202   8.801   6.232 -0.1083  0.3305 -2.0867
73892SOL    HW231607   1.346   8.778   6.192 -0.4824  0.8002 -3.7704
73893SOL     OW31608   2.596   5.477   3.062  0.2012 -0.0072 -0.8805
73893SOL    HW131609   2.553   5.491   2.977  1.3308  0.3177 -1.4127
73893SOL    HW231610   2.530   5.504   3.126  0.3234  2.6075 -1.7132
73894SOL     OW31611  11.357   8.213   1.150 -0.7011  0.3532  0.0903
73894SOL    HW131612  11.306   8.162   1.213 -0.5150  0.9591  0.7481
73894SOL    HW231613  11.311   8.297   1.144  0.8827  1.4170  1.7049
73895SOL     OW31614   1.368   7.776   8.506 -0.0935 -0.3692  0.7364
73895SOL    HW131615   1.386   7.702   8.565 -1.8471  0.0726  1.8966
73895SOL    HW231616   1.328   7.842   8.562 -1.1869  0.3503 -0.8236
73896SOL     OW31617  13.260   1.142   7.176  0.0592 -0.2710  0.3586
73896SOL    HW131618  13.176   1.163   7.135 -0.2560  0.9845  1.5914
73896SOL    HW231619  13.255   1.048   7.193 -1.0890 -0.2206  0.4063
73897SOL     OW31620   4.583   7.390   8.267 -0.6099  0.2637  0.3016
73897SOL    HW131621   4.622   7.309   8.301  1.2364  0.6536 -0.7415
73897SOL    HW231622   4.644   7.459   8.292 -1.5251  1.1717  0.1001
73898SOL     OW31623   1.854   3.586  12.579 -0.3673 -0.6253 -0.4184
73898SOL    HW131624   1.909   3.644  12.526 -0.3867  1.2872  1.4907
73898SOL    HW231625   1.776   3.572  12.526  1.3747 -2.4841 -2.7182
73899SOL     OW31626   0.105  12.184   2.088 -0.3697 -0.2409 -0.3400
73899SOL    HW131627   0.125  12.175   2.182 -1.2003  2.2503  0.1258
73899SOL    HW231628   0.178  12.140   2.045  0.2501 -1.0985  1.4545
73900SOL     OW31629   3.971  11.219   3.973  0.6108  0.7845 -0.0787
73900SOL    HW131630   4.054  11.181   4.003  1.2132  1.5528 -0.7295
73900SOL    HW231631   3.953  11.289   4.035 -0.0680  0.0106  0.6278
73901SOL     OW31632  12.856  11.774   2.266  0.1153 -0.4571 -0.3089
73901SOL    HW131633  12.863  11.851   2.210  0.4159 -1.3352 -1.5215
73901SOL    HW231634  12.938  11.727   2.251  1.3211  0.4662  2.7380
73902SOL     OW31635   4.383  11.096   7.790 -0.2479  0.1325  0.2789
73902SOL    HW131636   4.407  11.189   7.780  0.9341 -0.1836 -0.0251
73902SOL    HW231637   4.466  11.049   7.782 -0.7489 -0.9233  1.0008
73903SOL     OW31638   8.632   6.737   1.416 -0.1675  0.0039  0.2197
73903SOL    HW131639   8.641   6.801   1.487 -2.8799 -0.0159  0.7011
73903SOL    HW231640   8.549   6.693   1.434  0.0064 -1.3661 -1.9421
73904SOL     OW31641  12.869   6.056   8.774 -0.2584 -0.1845 -0.6198
73904SOL    HW131642  12.828   6.121   8.716 -0.1456  0.0129 -0.4808
73904SOL    HW231643  12.907   6.108   8.845 -3.1543 -0.5875  1.3942
73905SOL     OW31644   2.800   5.804   8.917 -0.2033 -0.7358 -0.4920
73905SOL    HW131645   2.891   5.778   8.929 -0.2977 -1.1050 -0.5682
73905SOL    HW231646   2.765   5.811   9.006 -0.5149 -2.0932 -0.4912
73906SOL     OW31647  13.130   9.896   9.956 -0.4497 -0.6368 -0.3432
73906SOL    HW131648  13.216   9.937   9.959  0.4262 -2.3544 -0.4591
73906SOL    HW231649  13.069   9.966   9.979  0.9114  0.7553 -0.7643
73907SOL     OW31650  11.335   6.667   6.200  0.1932  0.3354 -0.3902
73907SOL    HW131651  11.326   6.644   6.292 -1.0188  0.4667 -0.4582
73907SOL    HW231652  11.339   6.583   6.155 -0.3079  0.2623 -0.3047
73908SOL     OW31653   6.027   3.743   0.052  0.5302  0.1458 -0.0777
73908SOL    HW131654   6.029   3.770   0.144 -0.6870 -0.0944  0.0342
73908SOL    HW231655   5.990   3.818   0.006 -1.2284 -0.6411 -0.0074
73909SOL     OW31656   0.068   4.949   6.272 -0.1092 -0.1251 -0.0227
73909SOL    HW131657   0.096   4.908   6.190 -0.2740  0.0155 -0.1496
73909SOL    HW231658  -0.016   4.990   6.251 -0.3696 -0.4761  0.3398
73910SOL     OW31659  12.125   2.694   0.482  0.0164  0.4650 -0.1265
73910SOL    HW131660  12.062   2.724   0.547  0.1295  1.2732 -0.3646
73910SOL    HW231661  12.121   2.599   0.485  0.6613  0.4518  1.6922
73911SOL     OW31662   4.062  12.685   2.904  0.5596 -0.5943 -0.2597
73911SOL    HW131663   4.119  12.745   2.856  0.3258 -0.3012 -0.1752
73911SOL    HW231664   4.011  12.742   2.963  0.4420 -0.8895 -0.0738
73912SOL     OW31665   3.875   2.471  10.681  0.1339  0.3314  0.5465
73912SOL    HW131666   3.876   2.384  10.720  1.7060  0.7893  1.6253
73912SOL    HW231667   3.964   2.503  10.690 -0.5777  2.3915  0.9902
73913SOL     OW31668   5.683  13.013   5.038 -0.0496  0.2261  0.0870
73913SOL    HW131669   5.616  13.021   5.106  0.3064 -1.6993  0.7430
73913SOL    HW231670   5.764  12.992   5.086  0.6928  0.9715 -0.7909
73914SOL     OW31671  11.478  12.263  11.519  0.0354  0.3067 -0.0797
73914SOL    HW131672  11.550  12.306  11.566  0.6693 -0.6134 -0.1966
73914SOL    HW231673  11.443  12.332  11.462  0.5947  0.8605  0.2292
73915SOL     OW31674   1.097   3.473  13.067  0.5024  0.3595  0.4754
73915SOL    HW131675   1.041   3.542  13.030  0.6747  0.1750 -0.1424
73915SOL    HW231676   1.036   3.414  13.112  0.1971  0.1824 -0.1568
73916SOL     OW31677   4.017   0.306  10.653  0.2242 -0.1893  0.3939
73916SOL    HW131678   4.036   0.256  10.732 -1.1085  0.3459  1.0929
73916SOL    HW231679   4.058   0.391  10.668  0.4112 -0.2613  0.2871
73917SOL     OW31680   4.713  12.620   9.237 -0.0083  0.1505 -0.2562
73917SOL    HW131681   4.661  12.627   9.317 -1.4588 -0.9730 -1.0571
73917SOL    HW231682   4.789  12.567   9.263  0.9652  2.0629  0.9975
73918SOL     OW31683   2.759  11.418   9.110 -0.5811  0.8480  0.3967
73918SOL    HW131684   2.841  11.406   9.062 -0.3430  2.7362  0.2397
73918SOL    HW231685   2.690  11.401   9.046 -0.3610 -1.1579  0.6358
73919SOL     OW31686   2.992   3.106   4.860  0.1708 -0.2552  0.7623
73919SOL    HW131687   3.066   3.166   4.858 -0.5955  0.7041 -0.3301
73919SOL    HW231688   2.957   3.114   4.948 -0.2812  1.4072  0.4692
73920SOL     OW31689   5.647   5.098   9.271 -0.1976 -0.1067  0.0187
73920SOL    HW131690   5.672   5.168   9.211 -1.6735 -0.3372 -0.9238
73920SOL    HW231691   5.551   5.096   9.266 -0.2325 -1.5147  0.8040
73921SOL     OW31692   6.881   9.492   7.144 -0.0508  0.0773  0.0307
73921SOL    HW131693   6.814   9.437   7.186  0.3116  0.1353  0.6812
73921SOL    HW231694   6.833   9.539   7.075 -0.6297 -0.0666  0.3297
73922SOL     OW31695   3.098   5.896   8.883  0.2111  0.4230  0.5618
73922SOL    HW131696   3.072   5.988   8.881 -1.1294  0.1057  1.6569
73922SOL    HW231697   3.162   5.887   8.811  1.1113  2.3967  1.0545
73923SOL     OW31698  11.018   8.152  12.644 -0.1235 -0.2443  1.0189
73923SOL    HW131699  10.924   8.167  12.633  0.1397  1.4089  0.7525
73923SOL    HW231700  11.024   8.070  12.693 -1.6230 -1.9470 -1.3994
73924SOL     OW31701   2.244   1.773   0.377  0.8987 -0.1121 -0.3343
73924SOL    HW131702   2.308   1.794   0.445  1.3705 -1.1418 -0.4516
73924SOL    HW231703   2.296   1.747   0.302  0.3787  1.1286 -1.1516
73925SOL     OW31704   3.455   0.418   0.876 -0.2019 -0.0889  0.5904
73925SOL    HW131705   3.488   0.328   0.875 -1.8980 -0.7591  0.9041
73925SOL    HW231706   3.489   0.457   0.796 -0.8255 -1.5729 -0.4410
73926SOL     OW31707   4.412   7.907   2.869 -0.1528 -0.5368  0.3577
73926SOL    HW131708   4.377   7.910   2.958 -0.5637 -0.5639  0.2025
73926SOL    HW231709   4.507   7.902   2.880 -0.0500  1.4490  0.7789
73927SOL     OW31710   9.439   0.336   4.384  0.0943  0.3990 -1.1947
73927SOL    HW131711   9.426   0.377   4.469 -0.6909 -0.2865 -0.9681
73927SOL    HW231712   9.458   0.244   4.404  1.5001  0.5613 -1.7046
73928SOL     OW31713   4.250   9.696   0.604 -0.1931  0.4150 -0.3248
73928SOL    HW131714   4.226   9.669   0.515  0.9667 -1.0388 -0.2437
73928SOL    HW231715   4.252   9.614   0.653  1.5626  0.8814  0.4533
73929SOL     OW31716   5.923   3.732   4.927  0.4212  0.4557  0.5603
73929SOL    HW131717   5.869   3.783   4.868  0.9435 -0.0685 -0.3992
73929SOL    HW231718   5.870   3.656   4.949 -0.6920  1.7546  2.6635
73930SOL     OW31719  11.576   5.981   9.206 -0.0330 -0.0207 -0.0590
73930SOL    HW131720  11.529   6.040   9.147 -1.8044 -1.5165 -0.2845
73930SOL    HW231721  11.577   5.897   9.158 -0.0721 -0.8470  1.3381
73931SOL     OW31722   2.511  11.848  10.678  0.5874 -0.3036  0.0820
73931SOL    HW131723   2.421  11.860  10.648  0.4930  1.6386  1.0424
73931SOL    HW231724   2.517  11.754  10.696 -0.7955 -0.7196 -1.3126
73932SOL     OW31725   8.070  13.146  11.183  0.0269  0.2559  0.1449
73932SOL    HW131726   8.045  13.211  11.117 -0.5588  0.0803  0.1851
73932SOL    HW231727   8.145  13.184  11.228  1.4026 -0.2419 -1.5925
73933SOL     OW31728   1.738   1.981   0.524 -0.3856  0.1027 -0.2605
73933SOL    HW131729   1.683   1.907   0.549  2.3737 -2.2623 -0.5214
73933SOL    HW231730   1.746   2.034   0.603 -0.9046 -0.9668  0.5272
73934SOL     OW31731  11.858  10.650   6.280 -0.4905 -0.5730 -0.2056
73934SOL    HW131732  11.950  10.627   6.268 -0.6181 -1.5279  0.5224
73934SOL    HW231733  11.844  10.724   6.221  1.0084  0.3031  0.4838
73935SOL     OW31734  11.197   7.822  11.093 -0.4445 -0.4078 -0.1416
73935SOL    HW131735  11.217   7.731  11.072  0.3870 -0.2775  0.0519
73935SOL    HW231736  11.218   7.831  11.186 -2.0105 -0.4079  0.2397
73936SOL     OW31737  11.982   0.076  10.521 -0.4112 -0.3480 -0.7145
73936SOL    HW131738  12.029  -0.007  10.527 -1.1330 -0.7417 -0.4068
73936SOL    HW231739  11.972   0.091  10.427  0.7536 -0.0041 -0.7964
73937SOL     OW31740   6.705   6.989   8.754  0.1054 -0.3440 -0.1287
73937SOL    HW131741   6.706   6.985   8.658 -0.8426  0.1277 -0.1763
73937SOL    HW231742   6.767   7.059   8.775 -0.0461 -0.1148 -0.4270
73938SOL     OW31743   3.894  10.102   0.468  0.1385  0.3567 -0.2441
73938SOL    HW131744   3.904  10.197   0.479  0.6789  0.2760  0.0034
73938SOL    HW231745   3.982  10.067   0.480 -0.1401 -0.2215  0.1665
73939SOL     OW31746   5.836   0.330   8.314 -0.3330  0.9558 -0.1324
73939SOL    HW131747   5.815   0.269   8.384 -0.1739  1.6350  0.5149
73939SOL    HW231748   5.752   0.359   8.280 -0.4259 -0.3645 -1.1235
73940SOL     OW31749   0.913   3.677   3.351  0.5352  0.1006 -0.2646
73940SOL    HW131750   0.843   3.705   3.411 -0.8307  1.2159 -2.2801
73940SOL    HW231751   0.993   3.691   3.401 -0.5018  1.6493  1.0844
73941SOL     OW31752   5.136   4.225   5.134 -0.3841  0.2785 -0.0533
73941SOL    HW131753   5.101   4.303   5.176  0.7505  1.2301 -0.8137
73941SOL    HW231754   5.196   4.258   5.068  0.9231 -1.2495  0.3037
73942SOL     OW31755   7.559  12.130  10.668  0.4203  0.3941  0.7133
73942SOL    HW131756   7.560  12.125  10.763 -0.6109  0.3093  0.7349
73942SOL    HW231757   7.505  12.207  10.649 -1.0561 -0.7148  0.2029
73943SOL     OW31758  11.118   4.381  11.040  0.1695  0.9833  0.3733
73943SOL    HW131759  11.117   4.396  10.946 -0.7113  0.4843  0.2959
73943SOL    HW231760  11.034   4.415  11.071 -0.3077 -0.4753  0.7164
73944SOL     OW31761  13.235   8.242   4.120  0.0622 -0.0968  0.1063
73944SOL    HW131762  13.199   8.316   4.069  0.1890 -0.3598 -0.3711
73944SOL    HW231763  13.313   8.278   4.162 -0.5211  0.3625  0.8109
73945SOL     OW31764  12.706  10.127  10.348  0.5267 -0.0541 -0.1019
73945SOL    HW131765  12.713  10.159  10.258  0.1269  0.4535  0.0440
73945SOL    HW231766  12.794  10.098  10.370  0.5313 -0.6377 -0.8224
73946SOL     OW31767   7.443  13.137   6.282 -0.2909  0.2971 -0.3656
73946SOL    HW131768   7.403  13.069   6.229 -1.1056  0.6332 -0.1996
73946SOL    HW231769   7.495  13.188   6.220 -1.2593  0.7056 -0.8771
73947SOL     OW31770   1.553   9.918   1.237  0.2337  0.6098  0.5813
73947SOL    HW131771   1.578  10.009   1.223 -0.9912  0.7289 -1.0974
73947SOL    HW231772   1.628   9.867   1.207  0.2510  1.0440 -0.1341
73948SOL     OW31773   8.151   8.797   6.378  0.1899  0.1566 -0.5900
73948SOL    HW131774   8.165   8.703   6.367 -4.1145 -0.7518 -0.1351
73948SOL    HW231775   8.181   8.815   6.467 -0.5910 -1.2403 -0.0103
73949SOL     OW31776   8.703   3.433   0.594 -0.5358  0.3480  0.1991
73949SOL    HW131777   8.780   3.484   0.616 -2.2746  2.7576  1.0633
73949SOL    HW231778   8.692   3.445   0.500  1.1884 -1.7014 -0.3576
73950SOL     OW31779  11.483   4.182   7.081 -0.3527  0.2568 -0.2044
73950SOL    HW131780  11.394   4.184   7.046 -0.8859 -0.3996  1.0439
73950SOL    HW231781  11.536   4.226   7.015 -1.6909  1.1649 -0.7066
73951SOL     OW31782   1.403  12.951  11.520  0.3909 -0.2072  0.1791
73951SOL    HW131783   1.419  12.956  11.426  1.1326 -0.2917  0.2964
73951SOL    HW231784   1.423  12.860  11.543 -0.4815 -0.3811  0.3011
73952SOL     OW31785  10.991   4.594   4.098  0.3315  0.3004  0.0884
73952SOL    HW131786  11.024   4.505   4.104  0.4476  0.3266 -0.1497
73952SOL    HW231787  10.932   4.603   4.173  1.3775  0.4710  0.9173
73953SOL     OW31788   2.492   3.670   8.168  0.2731  0.2182 -0.0356
73953SOL    HW131789   2.397   3.684   8.174  0.3591  1.2573 -0.8236
73953SOL    HW231790   2.513   3.619   8.246 -0.7196  1.2105  0.9223
73954SOL     OW31791   4.545   8.404  10.276  0.3083  0.1109 -0.2955
73954SOL    HW131792   4.609   8.338  10.303  0.7641  0.2538 -0.9903
73954SOL    HW231793   4.575   8.432  10.189 -0.3558  0.6235 -0.3663
73955SOL     OW31794  11.285  10.411  12.743 -0.0747 -0.2389  0.1296
73955SOL    HW131795  11.272  10.377  12.832 -0.6662  1.9765  0.9343
73955SOL    HW231796  11.202  10.450  12.719 -0.3649 -1.9544 -1.9982
73956SOL     OW31797   7.486   3.777   4.495  0.1073 -0.1687  0.0365
73956SOL    HW131798   7.462   3.870   4.494  1.3648  0.1866  1.0472
73956SOL    HW231799   7.405   3.732   4.519 -0.9047  0.5002 -1.9064
73957SOL     OW31800   1.719   8.115   3.510 -0.0537 -0.1331 -1.1062
73957SOL    HW131801   1.633   8.151   3.491 -0.4824  0.0273  0.9476
73957SOL    HW231802   1.708   8.020   3.503 -0.6073 -0.1526 -0.1352
73958SOL     OW31803   5.842  11.896   4.715  0.6506 -0.2769  0.1282
73958SOL    HW131804   5.798  11.980   4.703 -0.9962 -1.1456 -0.2984
73958SOL    HW231805   5.832  11.878   4.809 -1.7437 -1.3435 -0.2437
73959SOL     OW31806   7.099   7.914   2.446  0.1010  0.1676 -0.3714
73959SOL    HW131807   7.046   7.882   2.519  2.4934 -0.4485  1.2303
73959SOL    HW231808   7.054   7.994   2.417 -1.5357 -0.1768  1.0291
73960SOL     OW31809  11.777  11.604  11.134  0.3730  0.1349 -0.1502
73960SOL    HW131810  11.752  11.678  11.080 -0.5636 -0.9749 -1.3054
73960SOL    HW231811  11.750  11.628  11.223  1.6459  1.8497 -0.1659
73961SOL     OW31812   2.539   3.029   7.743 -0.2138  0.0556  0.2534
73961SOL    HW131813   2.590   3.093   7.693 -1.2172  0.4405 -0.2978
73961SOL    HW231814   2.494   2.977   7.677  0.0322 -0.7561  0.7181
73962SOL     OW31815   2.101  12.156   3.973  0.4912  0.5150 -0.2506
73962SOL    HW131816   2.053  12.140   3.892 -0.2501  0.2635  0.2329
73962SOL    HW231817   2.180  12.202   3.945  0.6953 -0.4015 -1.2098
73963SOL     OW31818   5.246   2.939   8.178 -0.2184  0.3117 -0.6819
73963SOL    HW131819   5.274   2.847   8.183  1.6972  0.9292  3.3042
73963SOL    HW231820   5.168   2.943   8.234  0.6669  1.3806  0.5033
73964SOL     OW31821  11.796   5.063   6.021  0.1922 -0.2992 -0.5659
73964SOL    HW131822  11.734   4.993   6.004 -0.4054  0.0256  0.2464
73964SOL    HW231823  11.828   5.047   6.110  0.9625 -0.2244 -0.8175
73965SOL     OW31824  13.308   7.167   8.277 -0.4551 -0.7901  0.2385
73965SOL    HW131825  13.363   7.237   8.242 -0.6187 -1.3422 -1.1868
73965SOL    HW231826  13.360   7.131   8.349 -0.8991  1.5491  1.8345
73966SOL     OW31827  12.229   6.583   7.039  0.0030 -0.3909 -1.2537
73966SOL    HW131828  12.304   6.643   7.045  0.4946 -0.9862 -1.2815
73966SOL    HW231829  12.219   6.567   6.945 -0.4335  0.0205 -1.2780
73967SOL     OW31830   2.634  11.317  11.210 -0.8614 -0.3835  0.3193
73967SOL    HW131831   2.666  11.265  11.284  0.5343  2.0212  1.5316
73967SOL    HW231832   2.672  11.273  11.133  0.9599 -0.7406  1.3461
73968SOL     OW31833   6.363   8.804   1.590  0.3987 -0.5015  0.0015
73968SOL    HW131834   6.385   8.897   1.577  0.8149 -0.8624 -2.3076
73968SOL    HW231835   6.447   8.762   1.607  0.3212 -0.5982  0.1469
73969SOL     OW31836   7.221   4.114  10.087 -0.0414 -0.2947 -0.2159
73969SOL    HW131837   7.214   4.122   9.992  0.2351 -0.0129 -0.2149
73969SOL    HW231838   7.225   4.020  10.104 -1.9687 -0.4296 -0.3510
73970SOL     OW31839   1.718   0.978   4.128  0.6457 -0.0565 -0.7192
73970SOL    HW131840   1.710   1.062   4.083 -2.8114 -1.2324 -2.6640
73970SOL    HW231841   1.786   0.932   4.081 -0.4304  0.1125 -2.5378
73971SOL     OW31842   1.018   3.916  11.541 -0.8729  0.1401 -0.3937
73971SOL    HW131843   1.099   3.874  11.512 -1.8809 -1.8250 -0.5298
73971SOL    HW231844   1.024   4.005  11.508  1.6846  0.3824  0.5027
73972SOL     OW31845   1.329   4.124  12.853 -0.1978 -0.1104  0.3918
73972SOL    HW131846   1.271   4.192  12.887 -0.5573 -0.7213  1.0370
73972SOL    HW231847   1.379   4.167  12.784 -0.9215  0.6150  0.3058
73973SOL     OW31848   8.720  10.980  11.251  0.5526  0.4032  0.3522
73973SOL    HW131849   8.722  11.017  11.340 -1.2044  0.5433  0.3621
73973SOL    HW231850   8.700  10.887  11.265 -0.3854  0.5561  0.0962
73974SOL     OW31851   0.870   8.682  10.166  0.7646 -0.2437 -0.1691
73974SOL    HW131852   0.802   8.625  10.131  0.3616 -0.3224  0.7237
73974SOL    HW231853   0.884   8.748  10.097 -0.5711  0.0771 -0.1568
73975SOL     OW31854   7.604   9.707   1.947  0.0569 -0.0181 -0.5545
73975SOL    HW131855   7.615   9.628   1.893 -0.3265 -0.7587  0.4309
73975SOL    HW231856   7.538   9.683   2.012  0.8929  0.6904  0.5864
73976SOL     OW31857   8.486   3.216   8.065  0.2088 -0.3482  0.1112
73976SOL    HW131858   8.518   3.145   8.010  1.7447  0.0651  0.4136
73976SOL    HW231859   8.391   3.206   8.066 -0.1280  0.6892 -4.0813
73977SOL     OW31860  10.258   7.345  11.886 -0.0853 -0.2319  0.2304
73977SOL    HW131861  10.316   7.275  11.856  0.1403 -0.4173  1.0756
73977SOL    HW231862  10.177   7.332  11.837  0.1132 -0.8036  0.0429
73978SOL     OW31863  12.066  10.943   0.052  0.2526  0.2372 -0.6139
73978SOL    HW131864  12.050  10.895  -0.030  0.4456  0.5262 -0.8227
73978SOL    HW231865  12.085  11.032   0.024 -2.9471  1.2164 -0.1105
73979SOL     OW31866  11.224   4.861  10.804 -0.5546  0.2922 -0.7986
73979SOL    HW131867  11.283   4.926  10.766 -0.1005 -0.4581 -1.3883
73979SOL    HW231868  11.241   4.864  10.898 -0.7288  1.2081 -0.7890
73980SOL     OW31869  12.078   6.509   8.924  0.5698 -0.1411 -0.3463
73980SOL    HW131870  12.123   6.523   8.840  1.7554 -0.6202  0.1834
73980SOL    HW231871  12.099   6.419   8.948  0.9685  0.2520  0.8675
73981SOL     OW31872   4.570  12.391   1.895  0.4296  0.1704 -0.0906
73981SOL    HW131873   4.606  12.347   1.818 -1.1269 -0.2234 -0.6388
73981SOL    HW231874   4.609  12.345   1.969  1.5482  0.2145 -0.6330
73982SOL     OW31875   1.771   3.111  10.957  0.4098 -0.5790  1.2160
73982SOL    HW131876   1.679   3.109  10.931  1.2506 -1.8223 -2.2623
73982SOL    HW231877   1.771   3.086  11.049 -2.6728 -1.3824  1.1034
73983SOL     OW31878   2.359   1.505   3.604  0.6658  0.9789  0.1848
73983SOL    HW131879   2.283   1.514   3.545  0.2821  1.3340  0.7221
73983SOL    HW231880   2.434   1.532   3.551  0.5746 -0.4421 -0.7022
73984SOL     OW31881  12.223   8.931   3.562 -0.2607 -0.4290  0.2976
73984SOL    HW131882  12.198   8.839   3.556  1.5727 -0.9902  0.4913
73984SOL    HW231883  12.222   8.950   3.656 -0.9118 -0.1685  0.2380
73985SOL     OW31884   0.481   2.717   4.339  0.2018 -0.2742  0.1159
73985SOL    HW131885   0.514   2.636   4.379  0.6106 -0.2252 -0.1095
73985SOL    HW231886   0.461   2.775   4.413  1.6219  0.0777  0.2503
73986SOL     OW31887  13.073  12.284  10.388  0.2154  0.5215 -0.0860
73986SOL    HW131888  12.982  12.286  10.356 -0.6979 -0.0889  2.2754
73986SOL    HW231889  13.126  12.299  10.309 -1.9386  1.8704 -1.3864
73987SOL     OW31890  10.318   2.603   4.998  0.3418  0.4405  0.0676
73987SOL    HW131891  10.367   2.532   5.039  1.1187  0.8853 -0.0742
73987SOL    HW231892  10.353   2.608   4.909 -0.2470  0.5021 -0.1672
73988SOL     OW31893   8.373  11.292   5.883 -0.4170 -0.0440  0.3894
73988SOL    HW131894   8.430  11.368   5.891 -0.3174  0.1013 -1.4114
73988SOL    HW231895   8.348  11.290   5.791  0.5755 -2.8733  0.0732
73989SOL     OW31896   5.565   9.776   1.233 -0.0759 -0.2113 -0.1514
73989SOL    HW131897   5.628   9.762   1.162 -0.6325 -2.0073 -0.3490
73989SOL    HW231898   5.532   9.688   1.253 -2.4354  0.6404  0.0367
73990SOL     OW31899   4.103   3.799  12.024 -0.2276  0.0526 -0.3204
73990SOL    HW131900   4.057   3.806  12.108 -0.5928  1.9625 -0.6395
73990SOL    HW231901   4.174   3.737  12.041 -1.7543 -1.4869  0.7081
73991SOL     OW31902   9.226  10.549   1.375 -0.7750  0.2933 -0.5978
73991SOL    HW131903   9.152  10.508   1.419 -0.9399  0.0072 -1.1342
73991SOL    HW231904   9.195  10.565   1.286 -1.4997  3.5687  0.1229
73992SOL     OW31905   4.545   3.985   0.257 -0.3136  0.3331  0.0378
73992SOL    HW131906   4.505   4.036   0.328  0.6504 -0.4192  1.1510
73992SOL    HW231907   4.603   4.047   0.213 -1.4077  0.9826 -0.5366
73993SOL     OW31908  13.066   3.309   0.894  0.3905 -0.2295 -0.3305
73993SOL    HW131909  13.064   3.273   0.805  0.9829  1.0799 -0.8961
73993SOL    HW231910  13.107   3.395   0.885  1.5278 -0.5329  1.3891
73994SOL     OW31911   1.002   0.534   9.023 -0.1026 -0.0806  0.3725
73994SOL    HW131912   0.963   0.516   8.937  1.3691 -0.9276 -0.1498
73994SOL    HW231913   1.090   0.566   9.003  0.0818  0.1958  1.5603
73995SOL     OW31914   1.118   7.496  11.493 -0.1510  0.0306 -0.3941
73995SOL    HW131915   1.092   7.554  11.565 -2.4230  0.8139 -1.7448
73995SOL    HW231916   1.054   7.426  11.495  0.4783 -0.5697 -0.9663
73996SOL     OW31917   7.189   3.440  11.991 -0.3769  0.3031  0.3438
73996SOL    HW131918   7.242   3.368  11.959 -0.3081  1.0786 -1.4200
73996SOL    HW231919   7.231   3.468  12.072  1.5646  0.5073 -0.6865
73997SOL     OW31920  12.790   8.732   2.050 -0.2771  0.1901  0.1539
73997SOL    HW131921  12.821   8.805   1.996 -0.9613 -0.2629 -0.8768
73997SOL    HW231922  12.702   8.759   2.077  0.3571  0.7949  1.8039
73998SOL     OW31923   7.762   6.986  11.490 -0.4410 -0.2808 -0.5843
73998SOL    HW131924   7.672   6.965  11.467 -0.4354 -1.2479  0.2247
73998SOL    HW231925   7.757   7.018  11.581 -0.1027  0.7083 -0.9014
73999SOL     OW31926   9.000   9.664   4.898 -0.2358 -0.1790  0.2995
73999SOL    HW131927   8.950   9.583   4.900 -2.1089  0.9127  0.5692
73999SOL    HW231928   9.029   9.672   4.807  0.4176 -1.3714  0.3816
74000SOL     OW31929   4.646   8.046   1.831  0.0071  0.1486 -0.4369
74000SOL    HW131930   4.626   8.024   1.740  2.0377 -0.0476 -0.9005
74000SOL    HW231931   4.589   7.989   1.883  0.8311 -1.8816 -1.6175
74001SOL     OW31932  11.346   3.120   4.668 -0.0061 -0.4715  0.3067
74001SOL    HW131933  11.291   3.191   4.636  0.4525  0.0657  0.6885
74001SOL    HW231934  11.436   3.149   4.648  0.1887 -0.9073  0.5418
74002SOL     OW31935  12.367   3.382  12.054  0.6925 -0.4562  0.2208
74002SOL    HW131936  12.449   3.334  12.045  1.6305  0.9316  1.0126
74002SOL    HW231937  12.356   3.394  12.148 -1.7973 -2.8326  0.3668
74003SOL     OW31938  11.187   1.537   4.480  0.7862  0.8184 -0.3322
74003SOL    HW131939  11.215   1.561   4.568  0.1311  0.9197 -0.1473
74003SOL    HW231940  11.169   1.443   4.486  2.7365  0.3721 -0.8938
74004SOL     OW31941   7.986   6.008   9.244  0.2711  0.3949 -0.3244
74004SOL    HW131942   8.073   6.020   9.207  0.5772  0.7051  0.4905
74004SOL    HW231943   7.994   6.035   9.335 -0.0655 -1.9270  0.4630
74005SOL     OW31944  10.480   4.773   7.382  0.3174  0.2132  0.3407
74005SOL    HW131945  10.447   4.745   7.467 -0.9958  0.2964 -0.1111
74005SOL    HW231946  10.562   4.725   7.371 -0.6092 -1.5655  0.6969
74006SOL     OW31947  12.164   4.383   2.889 -0.2026 -0.3089  0.1234
74006SOL    HW131948  12.162   4.456   2.828  1.5507 -0.4774 -0.1887
74006SOL    HW231949  12.185   4.307   2.836  0.8719 -0.5397  0.8394
74007SOL     OW31950   1.091   0.188   5.194 -0.0226 -0.5729  0.4067
74007SOL    HW131951   1.172   0.165   5.240 -1.1780 -1.7165  1.9906
74007SOL    HW231952   1.072   0.277   5.221  1.1368  0.0392 -0.6851
74008SOL     OW31953   0.793   8.497  10.451  0.1024 -0.5123 -0.1541
74008SOL    HW131954   0.864   8.476  10.512  0.0470 -0.4827 -0.0788
74008SOL    HW231955   0.835   8.506  10.366  0.3996  0.7912  0.1053
74009SOL     OW31956  10.873  13.146   4.829  0.1646  0.9152  0.2879
74009SOL    HW131957  10.852  13.192   4.910  1.0294 -1.0311  1.7002
74009SOL    HW231958  10.968  13.154   4.820 -0.0110  1.8120 -1.0114
74010SOL     OW31959   7.180   6.799   0.377 -0.3238 -0.0863 -0.2687
74010SOL    HW131960   7.104   6.786   0.321 -0.6134 -0.6922  0.2513
74010SOL    HW231961   7.168   6.737   0.449  1.0289 -0.6966 -0.5487
74011SOL     OW31962   7.883   0.695   1.423  0.1747  0.0095 -0.3677
74011SOL    HW131963   7.832   0.614   1.419  0.0639 -0.0089  1.1328
74011SOL    HW231964   7.974   0.667   1.409 -0.1232  0.0210 -2.8432
74012SOL     OW31965   9.650   3.802   3.103  0.2229  0.3141 -0.2178
74012SOL    HW131966   9.608   3.734   3.050  1.6225  1.1942 -2.5776
74012SOL    HW231967   9.582   3.829   3.165 -0.7326 -2.3949  0.0728
74013SOL     OW31968   1.207   4.471  11.456 -0.0861  0.1316 -0.1641
74013SOL    HW131969   1.291   4.480  11.500 -0.3883  0.4299  0.3679
74013SOL    HW231970   1.185   4.559  11.428  1.0936 -0.3370 -2.8423
74014SOL     OW31971   1.951  10.472   5.972 -0.3627  0.5375  0.2007
74014SOL    HW131972   1.920  10.382   5.966 -0.8100  0.6877  0.2414
74014SOL    HW231973   2.027  10.466   6.030  1.0600 -0.1588 -1.6489
74015SOL     OW31974   5.179  12.599   0.460  0.0463  0.0110  0.1920
74015SOL    HW131975   5.147  12.658   0.529 -1.4639 -2.0322  1.3521
74015SOL    HW231976   5.274  12.600   0.470 -0.0303  1.1874  1.0728
74016SOL     OW31977  12.292  10.553  12.529 -0.3836 -0.3595 -0.1153
74016SOL    HW131978  12.289  10.602  12.447  2.0117 -1.3289 -0.8518
74016SOL    HW231979  12.255  10.467  12.508  0.1105 -0.5648 -0.1492
74017SOL     OW31980  10.276   7.416   3.536  0.1132 -0.4843  0.6350
74017SOL    HW131981  10.196   7.371   3.564  0.6375 -0.5166  2.1738
74017SOL    HW231982  10.315   7.448   3.618  1.0060  0.6578 -0.2100
74018SOL     OW31983  13.254   9.657   9.004  1.1971  0.1278 -0.8096
74018SOL    HW131984  13.190   9.629   8.939 -0.8651  1.7270  0.3756
74018SOL    HW231985  13.204   9.660   9.086  3.2937 -0.3274  0.5486
74019SOL     OW31986   4.690   8.312  10.862 -0.0170 -0.1332 -0.0854
74019SOL    HW131987   4.649   8.351  10.939 -0.0088  0.0955 -0.1984
74019SOL    HW231988   4.618   8.269  10.816  0.0370 -0.5735  0.2349
74020SOL     OW31989  12.075  11.159   6.355  0.3390  0.5248 -0.1635
74020SOL    HW131990  12.148  11.156   6.294 -0.7081 -1.2820 -1.4228
74020SOL    HW231991  12.031  11.242   6.337  1.4205  1.1190 -0.1387
74021SOL     OW31992   2.642  11.120   6.074 -0.1918 -0.0485 -0.8846
74021SOL    HW131993   2.558  11.157   6.102 -0.1669 -0.4698 -0.2291
74021SOL    HW231994   2.620  11.031   6.046 -0.2337  0.3921 -2.3313
74022SOL     OW31995  11.099   9.729   0.575  0.2665  0.3029  0.1911
74022SOL    HW131996  11.147   9.656   0.613  0.5258  0.3706 -0.0003
74022SOL    HW231997  11.047   9.764   0.648 -0.8408 -0.8552 -0.0175
74023SOL     OW31998   5.503  10.840  11.379  0.3226 -0.6157 -0.0534
74023SOL    HW131999   5.578  10.798  11.421 -0.0446 -0.5995  0.6285
74023SOL    HW232000   5.528  10.932  11.371 -0.5468 -0.0934  2.4109
74024SOL     OW32001  11.109   7.923   7.688 -0.2803 -0.3223 -0.2801
74024SOL    HW132002  11.104   8.016   7.711 -0.0563  0.2118 -2.1883
74024SOL    HW232003  11.059   7.879   7.756 -1.1083  1.2923  0.2163
74025SOL     OW32004   4.680   4.410   6.745 -0.1384 -0.4555  0.3146
74025SOL    HW132005   4.630   4.467   6.687  1.3439 -0.5177 -1.0793
74025SOL    HW232006   4.767   4.451   6.751 -0.0513 -0.8029  1.9852
74026SOL     OW32007  11.634  12.345   3.548  0.1011  0.0457 -0.2049
74026SOL    HW132008  11.671  12.367   3.634 -0.0885  0.5698 -0.2527
74026SOL    HW232009  11.708  12.314   3.497 -0.1208 -2.4648  0.8349
74027SOL     OW32010   6.172   1.383   3.009 -0.1918 -0.6997  0.3589
74027SOL    HW132011   6.220   1.302   2.991  1.9513  0.3175  1.0572
74027SOL    HW232012   6.080   1.360   3.002  0.3512 -3.2894  0.9274
74028SOL     OW32013  10.163  12.419  10.918  0.0464  0.4502 -0.3183
74028SOL    HW132014  10.105  12.460  10.982 -0.6121 -1.4488  0.3631
74028SOL    HW232015  10.248  12.416  10.961 -0.5264 -1.3704  0.7731
74029SOL     OW32016  10.044   3.047   3.276 -0.1813  0.5114 -0.4869
74029SOL    HW132017  10.134   3.030   3.247 -0.2660  0.7566 -0.8960
74029SOL    HW232018  10.012   2.961   3.303 -0.3233  0.1376 -1.7598
74030SOL     OW32019   6.449   3.719  11.374 -0.3022  0.0078 -0.1336
74030SOL    HW132020   6.528   3.677  11.408  0.4375  0.3524 -1.3896
74030SOL    HW232021   6.426   3.669  11.296 -1.1614  0.1016  0.0470
74031SOL     OW32022   3.615   9.081   3.564 -0.3090 -0.0203  0.0199
74031SOL    HW132023   3.523   9.104   3.571 -0.3879 -0.0858 -0.7647
74031SOL    HW232024   3.618   8.988   3.586 -0.4530 -0.0545 -0.1024
74032SOL     OW32025   2.295  12.331   6.237  0.2903  0.3131  0.2091
74032SOL    HW132026   2.343  12.413   6.227  2.5414 -1.0008 -0.4917
74032SOL    HW232027   2.251  12.318   6.153  2.1299 -0.4427 -0.7016
74033SOL     OW32028   1.074   0.139   1.453 -0.6320 -0.0927 -0.1066
74033SOL    HW132029   1.017   0.091   1.512 -1.4618  1.3143  0.2747
74033SOL    HW232030   1.144   0.172   1.509 -0.9258  0.4688 -0.0617
74034SOL     OW32031  12.261   4.929   5.033  0.0275  0.2797  0.2952
74034SOL    HW132032  12.175   4.894   5.057  1.2892 -1.5417  2.6232
74034SOL    HW232033  12.242   5.012   4.989 -2.8983 -0.0466  0.7513
74035SOL     OW32034  13.161   1.011   4.062 -0.4744 -0.2790  0.1330
74035SOL    HW132035  13.229   1.020   4.129  1.4665 -2.3460 -1.3784
74035SOL    HW232036  13.162   1.095   4.016  1.1661 -0.2869  0.0883
74036SOL     OW32037   7.192   8.512   0.174  0.1068  0.3189  0.1572
74036SOL    HW132038   7.145   8.593   0.190 -0.7601  0.1225 -1.2459
74036SOL    HW232039   7.277   8.539   0.140  0.0611  0.6293  0.2854
74037SOL     OW32040   4.885   1.638   1.228  0.2651 -0.0106  0.3634
74037SOL    HW132041   4.925   1.553   1.215  0.0932  0.0245 -0.4183
74037SOL    HW232042   4.861   1.639   1.321  1.6313 -0.2073  0.7288
74038SOL     OW32043   1.379   3.900   1.546  0.4761  0.1073 -0.5471
74038SOL    HW132044   1.326   3.922   1.470 -0.0267  1.3219  0.1283
74038SOL    HW232045   1.316   3.866   1.610  0.5911  0.9208  0.0134
74039SOL     OW32046   4.141  11.452   5.347 -0.1190 -0.4061  0.2187
74039SOL    HW132047   4.176  11.390   5.412 -1.3316  0.6133  1.9142
74039SOL    HW232048   4.161  11.538   5.383  0.6270  0.2407 -1.6055
74040SOL     OW32049   7.426   1.040   5.912 -0.4779  0.1429  0.3474
74040SOL    HW132050   7.494   1.006   5.970 -0.3242 -0.3618 -0.1157
74040SOL    HW232051   7.473   1.072   5.836 -0.5749  1.8935  0.9811
74041SOL     OW32052   4.130   6.101   3.429 -0.1247  0.0952  0.1164
74041SOL    HW132053   4.061   6.056   3.379  1.8155 -1.0965 -1.6631
74041SOL    HW232054   4.137   6.187   3.388  0.0128 -0.0989 -0.2760
74042SOL     OW32055  11.166   2.211   2.609  0.1032  0.1968  0.2110
74042SOL    HW132056  11.246   2.238   2.564 -1.3499  0.3804 -2.5373
74042SOL    HW232057  11.178   2.117   2.625  0.8477  0.2116 -0.2337
74043SOL     OW32058   4.092   8.098   1.903  0.2813 -0.5503  0.1925
74043SOL    HW132059   4.071   8.176   1.852  0.8970  0.1917  1.0411
74043SOL    HW232060   4.031   8.099   1.977  0.5699 -0.6387  0.4363
74044SOL     OW32061  11.004   7.905   4.445 -0.3504 -0.0879  0.3084
74044SOL    HW132062  10.987   7.999   4.441 -0.5469 -0.1124  0.5560
74044SOL    HW232063  11.069   7.889   4.377  0.3669  0.3754  0.8641
74045SOL     OW32064   7.067   8.459  13.117 -0.3889 -0.4297 -0.3627
74045SOL    HW132065   7.001   8.486  13.181 -0.3671  0.3705 -0.6597
74045SOL    HW232066   7.042   8.505  13.036  0.4017 -0.2826 -0.5345
74046SOL     OW32067   0.373   0.600   2.445  0.0854 -0.0775 -0.3148
74046SOL    HW132068   0.278   0.604   2.444  0.1268  1.7862 -1.1703
74046SOL    HW232069   0.398   0.591   2.353  0.7407 -2.0023  0.0025
74047SOL     OW32070   1.736   6.408   6.273 -0.4427 -0.0323  0.1733
74047SOL    HW132071   1.799   6.338   6.285  0.3795  0.5500 -0.5865
74047SOL    HW232072   1.689   6.413   6.356  0.9343 -0.0644  0.9833
74048SOL     OW32073   1.620   8.839   1.175 -0.1027 -0.5886 -0.1124
74048SOL    HW132074   1.588   8.844   1.085 -0.0339 -0.7249 -0.1441
74048SOL    HW232075   1.547   8.871   1.228  0.0385 -0.0095 -0.2550
74049SOL     OW32076   8.843   6.642   5.951 -0.1328 -0.1838  0.2158
74049SOL    HW132077   8.866   6.554   5.979 -0.4298 -0.4742 -0.4474
74049SOL    HW232078   8.765   6.664   6.001 -0.9637 -0.9000 -0.7131
74050SOL     OW32079   4.092   7.221   8.974  0.1528  0.1550 -0.4385
74050SOL    HW132080   4.102   7.256   8.885 -0.8925  0.2045 -0.5482
74050SOL    HW232081   3.998   7.206   8.983  0.2331  0.2807  0.7181
74051SOL     OW32082   9.232   0.666   2.982 -0.2131  0.3325  0.0757
74051SOL    HW132083   9.240   0.717   3.063 -0.7395  1.3482 -0.4981
74051SOL    HW232084   9.288   0.590   2.997  1.8575  1.8247  0.3756
74052SOL     OW32085   1.466  13.087   1.757 -0.1696  0.2392 -0.1038
74052SOL    HW132086   1.445  13.017   1.695 -0.4465  0.7112 -0.5503
74052SOL    HW232087   1.562  13.091   1.757 -0.1589  0.0240 -0.2533
74053SOL     OW32088   7.972   6.743   8.562  0.2068  0.0086  0.2809
74053SOL    HW132089   8.065   6.742   8.538  0.8015 -0.8829  2.3741
74053SOL    HW232090   7.942   6.654   8.546 -0.2877  0.2640 -0.2742
74054SOL     OW32091   4.394  10.835   7.283 -0.2234  0.0764  0.7259
74054SOL    HW132092   4.412  10.910   7.226 -1.5827  0.0822  0.2661
74054SOL    HW232093   4.468  10.832   7.343 -0.3534  2.0835  1.0603
74055SOL     OW32094  11.937   2.812   8.307  0.1349 -0.2456  0.1705
74055SOL    HW132095  11.946   2.888   8.249  3.0452 -0.3218  0.3627
74055SOL    HW232096  11.876   2.754   8.262 -0.3772  1.2093 -1.0983
74056SOL     OW32097  13.072  11.575  12.013 -0.4182  0.1203  0.1552
74056SOL    HW132098  13.113  11.652  11.973 -1.9081  0.3177 -1.0759
74056SOL    HW232099  13.132  11.550  12.084  0.2631  2.1980  0.3795
74057SOL     OW32100   6.850   3.302  11.686  0.4106 -0.3521 -0.1772
74057SOL    HW132101   6.824   3.230  11.744 -0.9271 -0.6407 -1.0723
74057SOL    HW232102   6.863   3.377  11.745  1.7662 -1.2794  0.7622
74058SOL     OW32103   7.617   8.508   0.961 -0.5654 -0.2288  0.1121
74058SOL    HW132104   7.577   8.579   1.011  0.4693  1.9254 -1.9427
74058SOL    HW232105   7.546   8.475   0.906 -0.7236  0.1779  0.0660
74059SOL     OW32106   2.014   7.862   9.732 -0.4682 -0.0573 -0.3700
74059SOL    HW132107   1.929   7.829   9.702 -0.6037  0.7788 -0.9511
74059SOL    HW232108   2.001   7.957   9.739  0.6804  0.1849 -1.3541
74060SOL     OW32109  12.186   5.711  12.956  0.8055  0.0805  0.2850
74060SOL    HW132110  12.195   5.748  12.868 -1.7203  1.0841  0.3774
74060SOL    HW232111  12.272   5.726  12.997  1.2814  1.7567 -1.1942
74061SOL     OW32112   7.578   1.748   7.052 -0.0055  0.4437 -0.0001
74061SOL    HW132113   7.657   1.696   7.069 -0.4118 -0.9663 -2.0207
74061SOL    HW232114   7.607   1.839   7.058  2.1763 -0.0073 -2.0810
74062SOL     OW32115   3.967  10.298   2.128 -0.5745  0.7487  0.3653
74062SOL    HW132116   3.925  10.336   2.051  0.7494  1.7225  0.1045
74062SOL    HW232117   3.908  10.226   2.154 -1.9859  1.5708 -0.4392
74063SOL     OW32118   9.837   3.891   0.348  0.5877 -0.2563  0.1159
74063SOL    HW132119   9.894   3.967   0.363  1.0405 -0.6994  0.7019
74063SOL    HW232120   9.898   3.819   0.330  0.3399 -1.0906  2.2773
74064SOL     OW32121  12.906   5.256   1.617 -0.2229 -0.3418 -0.2012
74064SOL    HW132122  12.969   5.215   1.558  0.4310 -0.0174  0.2541
74064SOL    HW232123  12.931   5.226   1.705 -1.1349 -0.7570 -0.0710
74065SOL     OW32124  12.235   7.338  12.373 -0.1851  0.8500  0.0604
74065SOL    HW132125  12.175   7.388  12.318 -0.2407  0.8265  0.0990
74065SOL    HW232126  12.228   7.249  12.340 -0.2145  0.8368  0.1027
74066SOL     OW32127   6.329   5.923   3.617  0.4423  0.1781 -0.3647
74066SOL    HW132128   6.241   5.958   3.602  0.1436 -0.9937 -1.4239
74066SOL    HW232129   6.388   5.993   3.588 -0.1457  0.3526 -1.1478
74067SOL     OW32130  10.524   5.630   8.435 -0.3303 -0.0628 -0.1582
74067SOL    HW132131  10.524   5.536   8.454 -1.7859  0.0621  0.5458
74067SOL    HW232132  10.587   5.667   8.497  0.5608 -0.6036 -0.7126
74068SOL     OW32133   5.043  10.953   2.278 -0.8167  0.3527 -0.1560
74068SOL    HW132134   5.137  10.969   2.288 -0.9984  0.3843  1.9957
74068SOL    HW232135   5.037  10.884   2.212  0.6289  1.1542 -1.1822
74069SOL     OW32136   0.323   5.958   1.174  0.2610 -0.1284 -0.2719
74069SOL    HW132137   0.284   6.042   1.152 -0.5906 -1.1130 -2.9972
74069SOL    HW232138   0.417   5.975   1.178  0.0055  1.1928  0.7124
74070SOL     OW32139   9.315   3.409   0.908 -0.2415 -0.0518 -0.2610
74070SOL    HW132140   9.276   3.493   0.932  0.9513  0.2916  0.5854
74070SOL    HW232141   9.370   3.386   0.983 -1.3104 -2.0915 -0.0496
74071SOL     OW32142   1.778   1.657  10.007 -0.2723 -0.0288  0.1012
74071SOL    HW132143   1.754   1.565  10.004 -1.5070  0.2968 -0.9561
74071SOL    HW232144   1.864   1.661   9.966  0.5486 -0.8989  1.6544
74072SOL     OW32145   7.129   5.410   3.028 -0.0615  0.9189 -0.3522
74072SOL    HW132146   7.070   5.416   2.953 -2.5179 -0.5429  1.3049
74072SOL    HW232147   7.202   5.357   2.998 -0.5844  1.0402 -1.9161
74073SOL     OW32148  11.815  11.984  11.860 -0.0858 -0.5214 -0.3945
74073SOL    HW132149  11.730  12.022  11.881  0.6799  0.8616  0.3475
74073SOL    HW232150  11.843  12.030  11.781  0.4688 -0.1383  0.0193
74074SOL     OW32151   3.876   3.806   3.820  0.3433  0.2379  0.7871
74074SOL    HW132152   3.797   3.764   3.852 -0.1267 -0.9710 -1.6761
74074SOL    HW232153   3.942   3.736   3.817  0.1914  0.1019 -1.2472
74075SOL     OW32154  11.988   7.202   5.258 -0.6561 -0.3401  0.1889
74075SOL    HW132155  11.955   7.274   5.312 -2.0107 -1.1427  0.4781
74075SOL    HW232156  12.024   7.140   5.322  0.3600 -0.0115 -0.0482
74076SOL     OW32157  10.676   4.589   7.541 -0.3287  0.2681  0.0909
74076SOL    HW132158  10.769   4.607   7.555 -0.3223  0.0048  0.3865
74076SOL    HW232159  10.633   4.622   7.619 -0.1684 -2.2766  1.3679
74077SOL     OW32160  11.491   2.627   5.024 -0.2077  0.0751 -0.2753
74077SOL    HW132161  11.534   2.676   4.954  0.5220  0.2628  0.2843
74077SOL    HW232162  11.531   2.540   5.021 -0.5278 -0.0678 -0.4040
74078SOL     OW32163  13.247  12.133   5.010  0.0223 -0.0822  0.2159
74078SOL    HW132164  13.231  12.040   5.026  0.4277 -0.1595  0.1836
74078SOL    HW232165  13.343  12.142   5.012  0.2453 -0.3110 -3.0897
74079SOL     OW32166   7.866   1.408   4.925 -0.7377  1.1049  0.1359
74079SOL    HW132167   7.798   1.474   4.938 -0.3932  1.6432 -0.7014
74079SOL    HW232168   7.926   1.447   4.861 -2.9869 -1.7829 -4.2208
74080SOL     OW32169   4.405   3.785   6.404  0.2717 -0.3071 -0.2811
74080SOL    HW132170   4.394   3.823   6.492  2.0032 -1.0121  0.2879
74080SOL    HW232171   4.327   3.813   6.356 -1.0246 -0.3738  1.6495
74081SOL     OW32172   6.904   9.236   9.573 -0.4478  0.0264  0.0145
74081SOL    HW132173   6.978   9.198   9.621  0.1387 -1.3034 -1.8515
74081SOL    HW232174   6.838   9.167   9.571 -0.4326  0.0265 -1.1105
74082SOL     OW32175   4.281  10.600   4.655  0.0514  0.4896  0.0282
74082SOL    HW132176   4.311  10.690   4.641 -0.2178  0.5073 -0.4240
74082SOL    HW232177   4.230  10.578   4.578  1.2757 -0.5418 -0.5386
74083SOL     OW32178   3.667   2.983   5.494  0.3745  0.0174 -0.2901
74083SOL    HW132179   3.648   3.053   5.556  3.1644 -0.1947  0.9365
74083SOL    HW232180   3.753   3.005   5.458 -1.2529  0.3815 -4.5831
74084SOL     OW32181   0.770   3.860  12.862 -1.0963 -0.2847 -0.3703
74084SOL    HW132182   0.712   3.870  12.787 -0.0544  0.1720 -1.1443
74084SOL    HW232183   0.796   3.950  12.884 -1.1868 -0.4346  0.3812
74085SOL     OW32184  11.935  11.662   6.133 -0.6201 -0.2432  0.0386
74085SOL    HW132185  12.017  11.618   6.153 -0.7353 -0.1662  0.6999
74085SOL    HW232186  11.892  11.674   6.218 -1.4204 -0.4828 -0.3191
74086SOL     OW32187   1.500   6.126  10.557 -0.3466  0.5300  0.2949
74086SOL    HW132188   1.487   6.120  10.462 -0.4173  1.0914  0.2668
74086SOL    HW232189   1.501   6.035  10.586 -1.0094  0.3716 -0.1471
74087SOL     OW32190  11.824  12.523   2.067  0.3443  0.3363  0.1497
74087SOL    HW132191  11.833  12.446   2.011 -0.4122  0.4827 -0.1858
74087SOL    HW232192  11.825  12.489   2.156 -0.4525 -0.1074 -0.0104
74088SOL     OW32193   0.728   8.838   0.650 -0.6125 -0.4110 -0.1537
74088SOL    HW132194   0.796   8.770   0.652 -0.6955 -0.4927 -0.1121
74088SOL    HW232195   0.776   8.920   0.659 -0.5079 -0.4620 -0.2474
74089SOL     OW32196   7.141   5.527   1.925 -0.6175 -0.3340 -0.0637
74089SOL    HW132197   7.236   5.538   1.927 -0.8201  1.6724  1.5285
74089SOL    HW232198   7.116   5.516   2.017 -1.9574 -0.5514 -0.4274
74090SOL     OW32199  10.736   6.970   9.169  0.1740  0.2483  0.2604
74090SOL    HW132200  10.745   7.035   9.239  0.1401  2.6053 -1.7688
74090SOL    HW232201  10.812   6.984   9.113  0.2546 -1.6363 -0.1649
74091SOL     OW32202   4.941   2.835   5.442  0.3159 -0.3338  0.4233
74091SOL    HW132203   4.869   2.782   5.410 -0.0659 -0.2677  1.1613
74091SOL    HW232204   4.963   2.893   5.368 -0.0384 -0.7060  0.0249
74092SOL     OW32205  12.327   0.812   1.556 -0.1416 -0.1238 -0.0595
74092SOL    HW132206  12.299   0.781   1.641 -0.8353 -1.9762 -0.9124
74092SOL    HW232207  12.419   0.785   1.550 -0.7141 -2.0811 -0.7585
74093SOL     OW32208   2.746   5.845   1.737  0.3363 -0.5148  0.0653
74093SOL    HW132209   2.771   5.934   1.712 -0.2677  0.1277  1.5854
74093SOL    HW232210   2.705   5.808   1.659 -2.7201  1.8428  0.3388
74094SOL     OW32211  12.679   2.445   4.864  0.1130 -0.2336  0.0833
74094SOL    HW132212  12.749   2.390   4.829  0.0242 -0.2020 -0.1494
74094SOL    HW232213  12.658   2.504   4.791  0.6574  0.5443  0.5416
74095SOL     OW32214  11.590  10.067   3.862  0.9848  0.0934  0.2015
74095SOL    HW132215  11.513  10.022   3.894  0.9830  0.6619  1.0225
74095SOL    HW232216  11.566  10.098   3.775  0.3679  0.0779  0.3672
74096SOL     OW32217   8.540  10.268   6.809 -0.8642 -0.4675  0.6236
74096SOL    HW132218   8.587  10.328   6.867 -0.0758  0.1426 -0.5873
74096SOL    HW232219   8.449  10.272   6.838 -0.6989  0.7930  1.0072
74097SOL     OW32220  12.506   4.940  10.893 -0.2628  0.3797  0.2140
74097SOL    HW132221  12.488   4.849  10.919  1.4246 -0.4055 -1.1669
74097SOL    HW232222  12.596   4.938  10.860 -0.4823  2.3922 -0.6278
74098SOL     OW32223  11.887   7.166   7.359 -0.0922 -0.4465  0.2849
74098SOL    HW132224  11.817   7.230   7.347  0.8093  0.5201  0.0578
74098SOL    HW232225  11.936   7.168   7.276  0.9001 -0.2213  0.8536
74099SOL     OW32226  12.830   2.384  10.422  1.0663  0.5281  0.2386
74099SOL    HW132227  12.812   2.297  10.457  0.4142  0.9882  1.0984
74099SOL    HW232228  12.925   2.389  10.416  1.0721 -0.6408 -0.8958
74100SOL     OW32229   4.812  10.671   5.392 -0.0108 -0.1587  0.0503
74100SOL    HW132230   4.738  10.678   5.332 -0.2102  1.6334  0.4319
74100SOL    HW232231   4.882  10.720   5.349 -0.1587  1.1625  1.2240
74101SOL     OW32232   2.323   9.388   8.215  0.2916  0.5268  0.2158
74101SOL    HW132233   2.351   9.296   8.222  0.2442  0.3941 -1.0641
74101SOL    HW232234   2.228   9.385   8.224  0.3493  0.5553  0.9323
74102SOL     OW32235   9.909   1.807  11.219  0.2074  0.6480 -0.5397
74102SOL    HW132236   9.820   1.773  11.231  0.0662  0.8782 -0.8981
74102SOL    HW232237   9.961   1.764  11.287 -0.4531  1.5584  0.5816
74103SOL     OW32238   3.093   1.596   7.348 -0.3405  0.0635 -0.2527
74103SOL    HW132239   3.012   1.613   7.300  0.1636 -0.6537 -1.3933
74103SOL    HW232240   3.141   1.535   7.293  0.7406  0.0521  0.6734
74104SOL     OW32241   6.525   1.267   3.786 -0.0435 -0.1052  0.3639
74104SOL    HW132242   6.478   1.351   3.788  0.2415  0.0719 -0.3505
74104SOL    HW232243   6.496   1.225   3.706 -1.0240 -1.1897  1.2651
74105SOL     OW32244   0.652  11.590   4.298  0.1027 -0.5582 -0.1054
74105SOL    HW132245   0.714  11.658   4.325  0.9363 -0.4629 -2.0936
74105SOL    HW232246   0.624  11.617   4.210  0.4543 -2.7428 -0.9541
74106SOL     OW32247   6.526   8.869   9.471  0.5128  0.9106 -0.2241
74106SOL    HW132248   6.598   8.918   9.432  2.0210 -1.3005 -0.4414
74106SOL    HW232249   6.567   8.789   9.505 -1.5135  0.5689  1.6583
74107SOL     OW32250   9.429  11.758  10.948  0.2007 -0.3567  0.0629
74107SOL    HW132251   9.490  11.826  10.917  0.9202 -1.0781 -0.1580
74107SOL    HW232252   9.415  11.779  11.040  0.0315  0.3682 -0.1190
74108SOL     OW32253   6.217   1.038   6.279  0.3409  0.0473  0.5635
74108SOL    HW132254   6.253   0.998   6.358  0.1367  0.2266  0.7478
74108SOL    HW232255   6.294   1.064   6.229  0.6170 -3.0797 -0.9039
74109SOL     OW32256   7.274   0.103   5.887  0.0588  0.2321  0.2358
74109SOL    HW132257   7.274   0.087   5.792 -2.1289 -1.4498  0.4392
74109SOL    HW232258   7.300   0.020   5.926 -0.1391  0.5849  1.1455
74110SOL     OW32259  12.209   1.680   6.840 -0.3002 -0.0933 -0.4326
74110SOL    HW132260  12.115   1.679   6.821 -0.4775 -1.5588  0.3046
74110SOL    HW232261  12.215   1.706   6.932 -0.0570 -0.7648 -0.2493
74111SOL     OW32262  10.728   0.177  10.278  0.5302  0.2289  0.0959
74111SOL    HW132263  10.785   0.251  10.295  0.7711 -0.2645  1.5702
74111SOL    HW232264  10.640   0.214  10.276  0.7867  0.8469 -1.2650
74112SOL     OW32265   5.272   7.567   9.750  0.0134  0.0320  0.1280
74112SOL    HW132266   5.288   7.478   9.718 -1.1789 -0.2660  0.3155
74112SOL    HW232267   5.359   7.608   9.752  0.6918 -1.3707  0.7875
74113SOL     OW32268  10.226   6.292   5.336  0.7966  0.2516 -0.2396
74113SOL    HW132269  10.211   6.289   5.242  0.0361  0.0947 -0.1172
74113SOL    HW232270  10.257   6.381   5.353 -0.5462  0.7699 -0.4292
74114SOL     OW32271   4.823   0.901   2.672  0.6027  0.2783  0.0143
74114SOL    HW132272   4.835   0.986   2.715 -1.0044  0.8851 -0.6473
74114SOL    HW232273   4.887   0.843   2.714  1.9520  1.8719  0.2772
74115SOL     OW32274   1.195   2.097  11.231  0.0271 -0.0378 -0.0696
74115SOL    HW132275   1.275   2.050  11.254 -0.3671  0.1651  1.8804
74115SOL    HW232276   1.151   2.039  11.168  0.9593 -0.8853  0.0307
74116SOL     OW32277   4.795   5.977  10.407  0.5334 -0.3814  0.0402
74116SOL    HW132278   4.729   5.989  10.338 -0.8725  0.0800  1.4196
74116SOL    HW232279   4.797   6.060  10.454  0.0674 -1.2717  1.7169
74117SOL     OW32280   8.070   0.013   6.583 -0.2386 -0.4969  0.2195
74117SOL    HW132281   8.053   0.041   6.673  1.4318 -1.0407  0.7218
74117SOL    HW232282   8.082   0.095   6.535  2.0477 -0.2128  1.1641
74118SOL     OW32283   8.330  10.716  12.661  0.4156 -0.4399 -0.2708
74118SOL    HW132284   8.298  10.713  12.571 -0.5472  1.3188 -0.0365
74118SOL    HW232285   8.379  10.798  12.666  0.9088 -0.7809  0.6610
74119SOL     OW32286   1.444  11.338   5.424  0.4374  0.6138  0.6617
74119SOL    HW132287   1.425  11.378   5.509  2.7758  0.8814  1.1525
74119SOL    HW232288   1.414  11.247   5.433 -0.1430  0.8708  1.4518
74120SOL     OW32289   1.411   2.048   8.635  0.1276 -0.3908 -0.4192
74120SOL    HW132290   1.465   1.989   8.689  0.6051 -0.6231 -1.1406
74120SOL    HW232291   1.422   2.134   8.677  1.0742 -0.4324 -0.5548
74121SOL     OW32292   0.426   5.163   3.093 -0.0480  0.1201  0.2212
74121SOL    HW132293   0.392   5.082   3.055 -0.9193  0.3597  0.4845
74121SOL    HW232294   0.351   5.222   3.096  0.6227  1.0066 -0.1312
74122SOL     OW32295  11.981   3.367  12.877  0.2557  0.1451  0.4977
74122SOL    HW132296  11.915   3.433  12.854  0.5297 -0.3489 -1.9888
74122SOL    HW232297  11.930   3.288  12.895  0.0603 -0.4850 -2.2890
74123SOL     OW32298  11.533   4.924  12.814 -0.2470  0.1549 -0.1827
74123SOL    HW132299  11.577   4.998  12.771 -0.1175 -0.4929 -1.2016
74123SOL    HW232300  11.449   4.917  12.769 -0.0870 -0.5744 -0.3699
74124SOL     OW32301  11.144  11.204   4.426  0.0358 -0.4251  0.0494
74124SOL    HW132302  11.189  11.133   4.472  0.7651  0.8504  1.4079
74124SOL    HW232303  11.053  11.177   4.424  0.3290 -1.4807  0.3880
74125SOL     OW32304   4.407  10.979   0.825 -0.9059  0.0495 -0.4578
74125SOL    HW132305   4.387  10.961   0.917  1.8717  0.3461  0.3082
74125SOL    HW232306   4.324  11.009   0.788 -1.9191  0.8392  2.1884
74126SOL     OW32307   7.873   2.594   3.989  0.0856 -0.1671 -0.4780
74126SOL    HW132308   7.891   2.596   3.895  0.7264  0.0536 -0.3590
74126SOL    HW232309   7.933   2.659   4.026 -1.6267  1.3171 -0.1593
74127SOL     OW32310  12.560  10.522  11.088 -0.1012  0.2769  0.1199
74127SOL    HW132311  12.639  10.541  11.037 -0.1430 -2.2019 -0.9942
74127SOL    HW232312  12.593  10.503  11.176  0.3013  1.3082  0.2099
74128SOL     OW32313  10.368   2.710   3.963 -0.7601  0.8646 -0.1247
74128SOL    HW132314  10.372   2.710   3.868 -0.7945 -1.3091 -0.1703
74128SOL    HW232315  10.361   2.617   3.987 -1.1998  1.3874  1.9725
74129SOL     OW32316  12.151  10.423   4.269 -0.3429 -0.4595  0.4577
74129SOL    HW132317  12.176  10.491   4.207  3.0364 -1.9236 -0.0672
74129SOL    HW232318  12.060  10.402   4.247  0.0070  0.6294 -2.5368
74130SOL     OW32319   2.505   6.391   6.912  0.8311 -0.5085 -0.6296
74130SOL    HW132320   2.464   6.477   6.904  1.7516  0.0104  0.1251
74130SOL    HW232321   2.483   6.347   6.830  0.1402  0.3517 -0.9214
74131SOL     OW32322   3.900  12.051   3.097  0.2306 -0.7303 -0.7717
74131SOL    HW132323   3.890  12.086   3.186 -0.1686 -0.4786 -0.9148
74131SOL    HW232324   3.990  12.072   3.073 -0.1734  0.7405 -1.0910
74132SOL     OW32325   9.840   9.422   5.099  0.0706 -0.3126 -0.0957
74132SOL    HW132326   9.772   9.472   5.144  1.0783  0.9580  0.0727
74132SOL    HW232327   9.862   9.351   5.160  1.1570  1.1717  1.3313
74133SOL     OW32328   7.217   4.788  12.429 -0.3765  0.3994  0.0704
74133SOL    HW132329   7.220   4.827  12.341  0.5987  0.9875  0.3566
74133SOL    HW232330   7.147   4.837  12.473 -2.2168 -1.1915 -0.9519
74134SOL     OW32331  10.077   5.210   3.189  0.1360 -0.3395  0.3186
74134SOL    HW132332  10.083   5.188   3.282  1.6570  1.4313  0.6943
74134SOL    HW232333  10.129   5.290   3.179  0.0834 -0.5151 -2.0810
74135SOL     OW32334  10.771   8.188  10.411 -0.7316 -0.2073  0.1185
74135SOL    HW132335  10.837   8.172  10.344  1.0260 -0.1296  1.7481
74135SOL    HW232336  10.758   8.283  10.409 -1.8991 -0.3752 -1.1743
74136SOL     OW32337   6.129  10.954   7.578 -0.0167  0.0628  0.9781
74136SOL    HW132338   6.150  10.986   7.666 -2.0428  1.4627  1.0109
74136SOL    HW232339   6.075  10.876   7.594  1.5013 -1.0494  0.9118
74137SOL     OW32340  13.294   6.158   7.973  0.4312  0.0158 -0.1687
74137SOL    HW132341  13.385   6.158   7.941  0.5873 -1.9842  0.1339
74137SOL    HW232342  13.246   6.107   7.907 -1.0185  2.9028 -1.5396
74138SOL     OW32343   0.522   5.548   3.912 -0.1451  0.3133 -0.0913
74138SOL    HW132344   0.617   5.545   3.923 -0.1460  1.0636  0.1509
74138SOL    HW232345   0.488   5.543   4.001 -0.3989 -1.6958 -0.2602
74139SOL     OW32346   2.701   1.975   5.719  0.1257 -0.2448 -1.1746
74139SOL    HW132347   2.674   2.052   5.668  0.2758  0.8765  0.3744
74139SOL    HW232348   2.619   1.930   5.739 -0.0640  0.0831 -1.2033
74140SOL     OW32349   6.547   6.960   2.246  0.4828  0.3219 -0.8812
74140SOL    HW132350   6.519   6.892   2.306 -2.2693  3.0871  1.3033
74140SOL    HW232351   6.637   6.980   2.271  1.1753 -2.0571 -1.2780
74141SOL     OW32352   9.184   1.616   3.651  0.1170 -0.6839  0.4170
74141SOL    HW132353   9.256   1.640   3.593  0.1105 -0.4325  0.5082
74141SOL    HW232354   9.125   1.564   3.597 -1.6784  2.4493 -0.9059
74142SOL     OW32355  11.154  11.830   6.131 -0.5514 -0.4380  0.1804
74142SOL    HW132356  11.137  11.762   6.066  0.9860 -1.8557  1.1834
74142SOL    HW232357  11.140  11.787   6.216  1.0838  0.2491  0.8520
74143SOL     OW32358   3.256   4.313  10.830 -0.2620 -0.4602 -0.1418
74143SOL    HW132359   3.235   4.230  10.873 -0.4967 -0.6535 -0.6243
74143SOL    HW232360   3.249   4.379  10.900  0.2386 -0.8806  0.3154
74144SOL     OW32361   4.874  11.395   9.682  0.3880  0.4170 -0.1772
74144SOL    HW132362   4.918  11.339   9.746  0.3030 -2.6310 -2.5422
74144SOL    HW232363   4.783  11.364   9.682  0.5120 -0.0760 -2.0911
74145SOL     OW32364   7.929   0.580  12.358  0.5074  0.3761  0.2873
74145SOL    HW132365   7.919   0.496  12.404 -0.6141  0.7945  0.8263
74145SOL    HW232366   7.879   0.642  12.410  2.4612  1.6998  0.6824
74146SOL     OW32367   0.091   5.114   9.019  0.1788  0.4603 -0.1104
74146SOL    HW132368   0.125   5.024   9.016  0.2659  0.5163 -1.8294
74146SOL    HW232369  -0.002   5.105   8.999  0.4060  0.8344 -1.3976
74147SOL     OW32370   2.380  11.182   6.155  0.5114 -0.2385  0.4747
74147SOL    HW132371   2.289  11.190   6.129  0.1353  0.9310  2.0028
74147SOL    HW232372   2.405  11.270   6.183  2.4762 -0.2592 -0.9899
74148SOL     OW32373  11.020  12.628   7.793 -0.0455 -0.1560  0.0194
74148SOL    HW132374  10.931  12.614   7.761 -0.2979 -0.5512  0.8842
74148SOL    HW232375  11.030  12.723   7.795 -1.1106 -0.0533  1.6818
74149SOL     OW32376   3.985   4.193   5.559 -0.1288 -0.1748 -0.2659
74149SOL    HW132377   4.042   4.220   5.630  1.1255 -1.8508 -0.5753
74149SOL    HW232378   3.904   4.244   5.572  0.1597 -0.2405  2.1778
74150SOL     OW32379  12.553  10.525  12.572  0.0881  0.5803  0.5182
74150SOL    HW132380  12.475  10.580  12.558  0.0720  0.4225 -0.0278
74150SOL    HW232381  12.610  10.546  12.499 -0.5484 -1.2254 -0.5518
74151SOL     OW32382   5.952   6.528   2.411  0.0152 -0.3030 -0.3214
74151SOL    HW132383   5.958   6.439   2.447  0.8079  0.3093  1.1996
74151SOL    HW232384   5.927   6.582   2.486  2.2542  1.1316 -0.5052
74152SOL     OW32385  10.029   7.058  11.510  0.0269  0.1401  0.3226
74152SOL    HW132386  10.012   7.127  11.445  1.2386 -0.4161 -0.6182
74152SOL    HW232387   9.945   7.014  11.520 -0.5398  1.1560  0.2384
74153SOL     OW32388   7.588   6.754  12.876 -0.5263 -0.0043 -0.2916
74153SOL    HW132389   7.663   6.725  12.929 -0.9652 -0.2875  0.1803
74153SOL    HW232390   7.626   6.773  12.790  0.0194 -0.5692 -0.1832
74154SOL     OW32391   8.969   1.364  12.474  0.1139 -0.0437 -0.0512
74154SOL    HW132392   8.921   1.404  12.547 -0.7686  0.4351 -0.8766
74154SOL    HW232393   8.985   1.274  12.502  0.0257  0.2127  0.8453
74155SOL     OW32394   9.217   9.088  12.577 -0.0840 -0.0551  0.1683
74155SOL    HW132395   9.299   9.060  12.536 -0.6890 -1.5221 -0.1196
74155SOL    HW232396   9.226   9.182  12.588  1.7273 -0.2207  0.3427
74156SOL     OW32397  13.098   7.343   1.319 -0.2917  0.4301  0.2931
74156SOL    HW132398  13.103   7.409   1.249 -1.8482  1.1498  0.7952
74156SOL    HW232399  13.161   7.373   1.384 -0.8396  1.3328  0.4259
74157SOL     OW32400   8.599   4.673   0.998  0.0159 -0.8097  0.3052
74157SOL    HW132401   8.576   4.580   0.998 -2.2637 -0.3073  0.3795
74157SOL    HW232402   8.594   4.699   0.906  0.6157 -0.7428  0.2886
74158SOL     OW32403   3.961   8.332  11.667 -0.1039 -0.4560  0.2778
74158SOL    HW132404   3.888   8.271  11.675 -1.3219  1.0673  1.4244
74158SOL    HW232405   3.955   8.386  11.746 -0.1895  2.2834 -1.4787
74159SOL     OW32406   9.972  12.944  12.237 -0.1609 -0.2937 -1.0267
74159SOL    HW132407   9.975  12.908  12.149  0.8301 -1.7014 -0.4606
74159SOL    HW232408   9.883  12.979  12.246  0.0353  0.7864 -2.8936
74160SOL     OW32409   7.579  12.464   4.368  0.3188  0.3789  0.0277
74160SOL    HW132410   7.625  12.461   4.452  0.1283 -0.1761  0.1142
74160SOL    HW232411   7.606  12.548   4.330 -0.5144  1.1935  1.1632
74161SOL     OW32412   2.237   4.764  11.222 -0.9961  0.4490  0.2457
74161SOL    HW132413   2.223   4.813  11.141  1.1646  1.4896  0.4454
74161SOL    HW232414   2.325   4.729  11.214 -1.4191 -0.9890  1.3996
74162SOL     OW32415   3.442  10.818  11.345 -0.5214  0.5585  0.3713
74162SOL    HW132416   3.517  10.816  11.404 -0.2040  0.1333 -0.0395
74162SOL    HW232417   3.406  10.906  11.355 -0.1081  0.6924  0.7388
74163SOL     OW32418   6.022  12.250   8.718 -0.4249  0.3135  0.4238
74163SOL    HW132419   6.032  12.343   8.737  1.4109  0.2216  0.0652
74163SOL    HW232420   5.976  12.248   8.634  0.0913  0.9164  0.1186
74164SOL     OW32421   4.457   5.564   0.199  0.5432 -0.2267  0.4446
74164SOL    HW132422   4.492   5.508   0.129  0.4571  0.0279  0.1957
74164SOL    HW232423   4.519   5.554   0.271 -0.8203 -2.7339  1.4124
74165SOL     OW32424   7.390  10.503   4.327  0.8202 -0.4868  0.1673
74165SOL    HW132425   7.300  10.481   4.352  0.9275  1.2933  2.5407
74165SOL    HW232426   7.444  10.460   4.393  1.7279 -1.3672 -1.1193
74166SOL     OW32427   4.161   0.525  11.777 -0.3519 -0.0843 -0.2266
74166SOL    HW132428   4.120   0.511  11.863 -1.2791 -0.1906 -0.6750
74166SOL    HW232429   4.136   0.448  11.726 -1.2872  0.7913 -1.1372
74167SOL     OW32430   8.601   7.866  12.297  0.1045 -0.3651 -0.0023
74167SOL    HW132431   8.538   7.932  12.325  0.5246  0.0695 -0.0679
74167SOL    HW232432   8.551   7.809  12.237 -0.2990 -0.2048  0.1776
74168SOL     OW32433  12.867   8.236   0.675 -0.3790  0.4600 -0.5581
74168SOL    HW132434  12.796   8.249   0.612 -1.3679  0.8626  0.6068
74168SOL    HW232435  12.856   8.147   0.706 -0.8888  0.7973  0.2385
74169SOL     OW32436  10.495   5.715   1.362 -0.4291 -0.4555 -0.9269
74169SOL    HW132437  10.439   5.737   1.436 -1.1404 -2.6587 -0.7339
74169SOL    HW232438  10.575   5.766   1.376 -1.3249  0.6719  0.2670
74170SOL     OW32439   6.534   3.275   2.402 -0.3453 -0.0500 -0.7699
74170SOL    HW132440   6.472   3.348   2.404  0.8059  0.9848  2.2760
74170SOL    HW232441   6.490   3.205   2.451  0.2844  0.1443  0.0751
74171SOL     OW32442  10.084   0.579  13.029 -0.1748 -0.3010  0.5777
74171SOL    HW132443  10.141   0.510  13.062 -0.6985 -0.8626  0.3241
74171SOL    HW232444  10.003   0.534  13.005 -0.3593  0.3282 -0.0201
74172SOL     OW32445   3.056   4.381   1.358  0.2436 -0.0368 -0.4012
74172SOL    HW132446   3.148   4.384   1.384  0.1183  1.4995 -0.0318
74172SOL    HW232447   3.015   4.323   1.422  1.2201 -2.1287 -1.5813
74173SOL     OW32448   0.232   7.149   5.214 -0.2653 -0.6420  0.2401
74173SOL    HW132449   0.315   7.138   5.167  1.1369 -0.2816  2.4557
74173SOL    HW232450   0.223   7.069   5.266 -0.6515 -0.1379  0.9647
74174SOL     OW32451   2.545   3.263   3.622  0.2898 -0.1863  0.5987
74174SOL    HW132452   2.624   3.316   3.613  0.8066 -0.7553  1.5827
74174SOL    HW232453   2.492   3.309   3.687 -0.1907  0.1833 -0.0447
74175SOL     OW32454   0.454  10.019   8.560 -0.2822  0.1465  0.3046
74175SOL    HW132455   0.376  10.070   8.536 -0.3521 -0.2992 -0.4342
74175SOL    HW232456   0.455  10.021   8.656 -0.8126  0.7430  0.3028
74176SOL     OW32457  12.033   6.606  12.878  0.3476  0.6650 -0.1292
74176SOL    HW132458  12.108   6.558  12.844 -1.1844 -1.3083 -0.8980
74176SOL    HW232459  12.009   6.667  12.808 -0.7080 -0.9933 -1.2746
74177SOL     OW32460   1.928  12.479   7.520 -0.0208  0.2536  0.3798
74177SOL    HW132461   2.003  12.474   7.461 -0.9262 -0.8313 -0.7498
74177SOL    HW232462   1.957  12.432   7.599  0.6721  0.3384  0.1862
74178SOL     OW32463  12.807  11.808   9.129 -0.1992 -0.7106 -0.5511
74178SOL    HW132464  12.841  11.858   9.203 -1.1262 -0.3996 -0.3238
74178SOL    HW232465  12.885  11.782   9.080  0.4056 -0.6369  0.3467
74179SOL     OW32466   6.569   6.352   8.749  0.2316 -0.0620  0.1494
74179SOL    HW132467   6.534   6.279   8.698  0.5031 -0.5634  0.6863
74179SOL    HW232468   6.530   6.342   8.836 -0.6610  1.0993 -0.0750
74180SOL     OW32469   1.850  11.942  10.835 -0.1602 -0.6242  0.5916
74180SOL    HW132470   1.853  11.864  10.779  0.0418  0.4779 -1.0073
74180SOL    HW232471   1.941  11.968  10.846 -0.3182  0.9308 -1.2324
74181SOL     OW32472   9.409   7.848   6.731 -0.2000 -0.7118  0.2297
74181SOL    HW132473   9.460   7.768   6.716  1.9259  0.3919  1.1967
74181SOL    HW232474   9.386   7.844   6.824  1.1360  0.4326  0.6342
74182SOL     OW32475   9.615   8.877   2.944  0.1154  0.1193 -0.5492
74182SOL    HW132476   9.642   8.864   3.035 -1.2272  1.2747  0.0464
74182SOL    HW232477   9.579   8.793   2.916  0.4214 -0.2041  0.0202
74183SOL     OW32478  12.584  12.744   2.158 -0.5419 -0.2168  0.0755
74183SOL    HW132479  12.529  12.822   2.168 -0.4942 -0.1568 -0.1117
74183SOL    HW232480  12.600  12.739   2.064  0.0640 -0.0319  0.1630
74184SOL     OW32481   6.744   1.954   2.087 -1.5236  0.8939  0.4832
74184SOL    HW132482   6.698   1.944   2.169 -1.7123 -0.6415  0.2253
74184SOL    HW232483   6.837   1.952   2.111 -1.5609 -0.6756  0.5775
74185SOL     OW32484   7.553  12.375   3.430 -0.0065  0.0164  0.1582
74185SOL    HW132485   7.506  12.334   3.357  0.2892  0.2628 -0.1706
74185SOL    HW232486   7.545  12.469   3.414 -2.4544  0.2355  1.9777
74186SOL     OW32487   3.025  10.399   5.488 -0.1696 -0.0480 -0.4336
74186SOL    HW132488   2.986  10.338   5.550 -1.7067 -1.6810 -2.8712
74186SOL    HW232489   3.104  10.354   5.456  0.9564  1.0437  0.6812
74187SOL     OW32490  12.341   3.505   2.660  0.2711  0.4457  0.3576
74187SOL    HW132491  12.365   3.474   2.573  0.5628  0.8800  0.2760
74187SOL    HW232492  12.379   3.441   2.720 -1.0109 -0.5656  0.1455
74188SOL     OW32493   0.217   1.516   6.476 -0.6399  0.0375  0.1041
74188SOL    HW132494   0.200   1.441   6.420 -0.7486  1.8803 -2.5274
74188SOL    HW232495   0.189   1.591   6.424  0.0864  1.9701  2.3317
74189SOL     OW32496   8.697   8.082   6.302  0.0881 -0.0831 -0.1273
74189SOL    HW132497   8.636   8.153   6.324 -0.3930 -0.9670  1.5508
74189SOL    HW232498   8.703   8.030   6.382  1.6866 -1.0358 -0.8209
74190SOL     OW32499   0.288   5.560   3.462  0.6573  0.4987 -0.5581
74190SOL    HW132500   0.253   5.487   3.511 -0.4727 -0.0064 -2.0302
74190SOL    HW232501   0.232   5.566   3.384  2.5486  1.0206 -1.9632
74191SOL     OW32502   3.335  11.303   8.987  0.2930 -0.4321 -0.6223
74191SOL    HW132503   3.341  11.387   8.941 -0.3675 -0.7192 -1.2630
74191SOL    HW232504   3.420  11.261   8.971 -0.0268 -0.6505 -1.8561
74192SOL     OW32505   3.214  12.406   7.174 -0.1046  0.1153  0.2354
74192SOL    HW132506   3.281  12.414   7.106 -0.1876 -1.3512 -0.0477
74192SOL    HW232507   3.225  12.485   7.227  0.4175  0.9509 -1.0653
74193SOL     OW32508  11.927   4.546   9.767  0.8204  0.2694  0.2000
74193SOL    HW132509  11.983   4.548   9.844  0.6888  0.6688  0.2830
74193SOL    HW232510  11.987   4.558   9.693  0.7086  1.8926  0.3553
74194SOL     OW32511   7.562  10.784   4.962  0.3049 -0.1664 -0.2932
74194SOL    HW132512   7.569  10.732   5.042 -0.3490  0.5897  0.2752
74194SOL    HW232513   7.468  10.784   4.942  0.0641  1.9004  0.5122
74195SOL     OW32514   5.279   6.272   8.741 -0.2264  0.0865 -0.3018
74195SOL    HW132515   5.200   6.303   8.697  0.2041 -0.2004 -1.3023
74195SOL    HW232516   5.313   6.203   8.684  0.1237 -0.5889  0.6990
74196SOL     OW32517  12.973   6.268   2.679 -0.1918 -0.4564  0.4679
74196SOL    HW132518  13.017   6.210   2.742 -0.5351  0.0831  1.2074
74196SOL    HW232519  12.900   6.215   2.645 -1.1107 -0.1281  1.8828
74197SOL     OW32520   1.702   8.155   2.358  0.4023  0.0540  0.3615
74197SOL    HW132521   1.783   8.187   2.319  0.4998  0.1753  0.6567
74197SOL    HW232522   1.711   8.176   2.452 -0.4927  1.2034  0.2189
74198SOL     OW32523   7.228  13.038  12.998  0.5076  0.0774 -0.1044
74198SOL    HW132524   7.204  12.947  12.982 -2.4119  0.9802 -1.4771
74198SOL    HW232525   7.200  13.054  13.088  2.1572 -0.6410  0.5813
74199SOL     OW32526   1.635   9.971   9.513 -0.1386 -0.0417  0.1614
74199SOL    HW132527   1.544   9.954   9.539 -0.1469 -0.2701 -0.0153
74199SOL    HW232528   1.638   9.949   9.420 -0.3425  1.6577 -0.2894
74200SOL     OW32529   7.845   2.528   9.923  0.0215  0.3207  0.1227
74200SOL    HW132530   7.774   2.524   9.859 -0.2777  1.2208  0.3828
74200SOL    HW232531   7.890   2.610   9.902 -1.0245  1.4558  2.0454
74201SOL     OW32532   4.695   3.502   1.392 -0.0372  0.0720  0.6949
74201SOL    HW132533   4.606   3.472   1.413 -0.5030  1.5302  0.9553
74201SOL    HW232534   4.689   3.598   1.398  0.7695  0.3998 -2.4058
74202SOL     OW32535  12.641   3.672   4.803 -0.1928  0.0237 -0.1962
74202SOL    HW132536  12.668   3.646   4.891 -0.0996  0.6831 -0.0213
74202SOL    HW232537  12.546   3.681   4.809 -0.5109 -2.3140 -0.8159
74203SOL     OW32538   4.443   4.041   6.929 -0.6555 -0.6726  0.1611
74203SOL    HW132539   4.433   4.015   6.837 -1.5719 -1.0220  0.3482
74203SOL    HW232540   4.353   4.056   6.959 -0.3382 -0.2445  0.9127
74204SOL     OW32541   0.647  12.045   1.144  0.1313 -0.4297  0.8617
74204SOL    HW132542   0.587  12.018   1.213 -1.7443 -1.0003 -0.9149
74204SOL    HW232543   0.644  12.141   1.146 -2.5880 -0.3829 -0.5123
74205SOL     OW32544   4.496   3.667   1.209 -0.0100  0.6309 -0.4316
74205SOL    HW132545   4.432   3.665   1.138 -0.5347  0.3243  0.0408
74205SOL    HW232546   4.466   3.738   1.266 -1.9708 -1.6475  1.6146
74206SOL     OW32547  11.278   5.255   5.384 -0.1120 -1.1553  0.3594
74206SOL    HW132548  11.224   5.181   5.357  0.2910 -1.4260  0.2929
74206SOL    HW232549  11.340   5.218   5.447 -0.5723 -0.6765  1.1117
74207SOL     OW32550   1.386   8.263   5.926 -0.2204  0.5679  0.0670
74207SOL    HW132551   1.311   8.204   5.915  0.3278 -0.4762  1.6437
74207SOL    HW232552   1.346   8.350   5.932 -0.9799  0.5780 -3.2684
74208SOL     OW32553   3.684   4.256  10.547  0.1357 -0.2689  0.1188
74208SOL    HW132554   3.677   4.273  10.641  1.2626 -1.7551  0.5213
74208SOL    HW232555   3.597   4.273  10.512 -0.4399 -0.2095  1.5246
74209SOL     OW32556  11.385   9.734   4.788  0.1491 -0.8834 -0.0334
74209SOL    HW132557  11.370   9.814   4.738  0.6568 -0.7857 -0.0310
74209SOL    HW232558  11.351   9.664   4.732 -2.3395 -0.5039  0.8655
74210SOL     OW32559   4.688   8.553   7.810  0.0628 -0.0583 -0.1947
74210SOL    HW132560   4.751   8.602   7.757 -0.8090  1.6030  0.2368
74210SOL    HW232561   4.706   8.461   7.789  1.0257  0.4616 -1.8775
74211SOL     OW32562   4.042   3.156   6.408  0.0612  0.9153 -0.2021
74211SOL    HW132563   3.972   3.092   6.399  1.0421 -1.3604  4.7245
74211SOL    HW232564   4.117   3.117   6.363  0.3354 -1.1273  1.8149
74212SOL     OW32565   3.559  11.053   2.320 -0.0090 -0.1359 -0.8185
74212SOL    HW132566   3.601  10.967   2.322  1.3445  0.4547 -1.8488
74212SOL    HW232567   3.494  11.050   2.390 -1.4616 -2.6956 -2.1775
74213SOL     OW32568   4.269   6.096  12.047  0.3265  0.2486 -0.1457
74213SOL    HW132569   4.268   6.025  12.111  2.0656 -0.3998 -0.7631
74213SOL    HW232570   4.257   6.052  11.963  1.2875  0.6946 -0.5273
74214SOL     OW32571   0.045   8.659   1.345 -0.6018 -0.0582  0.4467
74214SOL    HW132572   0.085   8.675   1.260 -0.1071  1.7438  0.9719
74214SOL    HW232573  -0.045   8.690   1.335 -0.2611  1.1058  0.8404
74215SOL     OW32574   7.073  11.918   3.472 -0.1686 -0.3084  0.0263
74215SOL    HW132575   7.168  11.909   3.478 -0.0407  0.8780  0.0899
74215SOL    HW232576   7.049  11.967   3.551 -0.8698 -0.7756  0.1155
74216SOL     OW32577  12.022   2.595   5.500  0.6335 -0.0987 -0.2448
74216SOL    HW132578  12.059   2.604   5.412  0.1233  0.2668 -0.4287
74216SOL    HW232579  12.084   2.539   5.547  0.7839 -0.5112 -0.9139
74217SOL     OW32580   4.228   7.824   1.397  0.0893  0.0305 -0.6225
74217SOL    HW132581   4.212   7.876   1.476  0.0189  1.0635 -1.2931
74217SOL    HW232582   4.148   7.774   1.384 -0.6739  1.3443 -1.1230
74218SOL     OW32583  12.794   1.635   1.340 -0.2979  0.1510  0.2551
74218SOL    HW132584  12.740   1.637   1.261  0.8835 -2.2523 -0.7345
74218SOL    HW232585  12.731   1.629   1.412 -1.4192 -1.8821 -0.8064
74219SOL     OW32586   5.240   5.589   8.420 -0.0408  0.1119  0.3326
74219SOL    HW132587   5.255   5.543   8.338  0.0755 -1.2420  1.0798
74219SOL    HW232588   5.202   5.673   8.394  1.0431  0.1823 -1.1543
74220SOL     OW32589   8.917   8.590   0.760 -0.0902  0.0410 -0.6161
74220SOL    HW132590   8.827   8.584   0.792  0.5877  0.2614  1.4694
74220SOL    HW232591   8.942   8.681   0.775  1.2921 -0.5975  1.2607
74221SOL     OW32592  12.366   9.753   0.477 -0.3845 -0.7557  0.2998
74221SOL    HW132593  12.338   9.735   0.387 -1.3814 -0.3113  0.5061
74221SOL    HW232594  12.395   9.668   0.509 -0.3788 -1.0004 -0.3245
74222SOL     OW32595   0.806   0.348  12.168  0.3521  0.5233 -0.5123
74222SOL    HW132596   0.718   0.384  12.156  0.2844  0.5907  0.1441
74222SOL    HW232597   0.840   0.394  12.245 -0.6092 -2.4101  1.8725
74223SOL     OW32598  10.910   7.902   1.200  0.4156  0.8377 -0.0469
74223SOL    HW132599  10.870   7.828   1.245  0.5625 -0.4885 -1.9808
74223SOL    HW232600  11.001   7.875   1.188  0.5096  1.4129 -0.6403
74224SOL     OW32601   9.220  12.245   4.736 -0.7531  0.4096 -0.1615
74224SOL    HW132602   9.306  12.202   4.737 -1.7982 -1.8936  1.8053
74224SOL    HW232603   9.223  12.305   4.810 -0.5798  0.9184 -0.5787
74225SOL     OW32604   2.137   3.314   9.728  0.1625 -0.1990 -0.2284
74225SOL    HW132605   2.048   3.294   9.758  0.1485 -0.4206 -0.4210
74225SOL    HW232606   2.125   3.385   9.665  0.2619  0.8174  0.8587
74226SOL     OW32607   7.559   2.221   7.858 -0.1680 -0.1857  0.7406
74226SOL    HW132608   7.642   2.244   7.900  0.6436 -1.1124 -0.3015
74226SOL    HW232609   7.499   2.291   7.884  0.3093 -0.6522  3.3089
74227SOL     OW32610   7.951  12.846   7.195 -0.2440  0.2060  0.3418
74227SOL    HW132611   7.965  12.853   7.100 -0.8693 -2.1892 -0.0078
74227SOL    HW232612   7.969  12.933   7.229 -2.5579  1.8857 -2.3104
74228SOL     OW32613  11.661   1.059   7.139 -0.8845  0.4098  0.4776
74228SOL    HW132614  11.714   1.031   7.213  0.1151 -0.1205 -0.4047
74228SOL    HW232615  11.651   0.980   7.085  0.7527  1.3408 -1.3255
74229SOL     OW32616   9.057   6.879   1.106  0.4945 -0.0921  0.4500
74229SOL    HW132617   8.978   6.875   1.160  0.4498  0.2472  0.4135
74229SOL    HW232618   9.128   6.865   1.167  0.4294  0.0404  0.5559
74230SOL     OW32619  10.483   5.226   3.009 -0.2689  0.1606 -0.1142
74230SOL    HW132620  10.487   5.315   2.974  0.0346  0.2648  0.1827
74230SOL    HW232621  10.446   5.174   2.938  0.6893  0.2985 -0.7368
74231SOL     OW32622   0.582   5.527   5.330  0.2559  0.4113 -0.2621
74231SOL    HW132623   0.576   5.436   5.298 -0.8238  0.2952  0.2288
74231SOL    HW232624   0.491   5.553   5.344  0.6057  1.2563  0.5066
74232SOL     OW32625   7.154   4.706   2.095  0.0300  0.3693 -0.2089
74232SOL    HW132626   7.222   4.700   2.162 -2.2186  1.8617  2.4198
74232SOL    HW232627   7.186   4.650   2.024  2.1143 -2.3013  2.5199
74233SOL     OW32628  10.371   1.884   3.079  0.2602  0.1381 -0.7969
74233SOL    HW132629  10.463   1.888   3.052  0.5598 -1.0044 -0.0395
74233SOL    HW232630  10.336   1.971   3.059  2.4039  1.8217  2.0257
74234SOL     OW32631  11.856  10.384   6.514 -0.4071  0.0699 -0.0996
74234SOL    HW132632  11.804  10.395   6.594 -0.4649 -0.5834 -0.0401
74234SOL    HW232633  11.791  10.386   6.443 -0.4269  0.0478 -0.0819
74235SOL     OW32634   9.022  11.447   0.184  0.2605 -0.8893 -0.1074
74235SOL    HW132635   9.110  11.483   0.173  0.1598 -0.8091 -0.7075
74235SOL    HW232636   8.996  11.472   0.272 -0.4276  1.9312 -1.0094
74236SOL     OW32637   8.484  13.178   4.087 -0.1962  0.5873  0.5153
74236SOL    HW132638   8.415  13.181   4.152 -0.6697 -0.2808  0.0731
74236SOL    HW232639   8.561  13.148   4.135 -1.0527 -2.2019  0.3068
74237SOL     OW32640   8.560  11.213  10.701 -0.6117  0.3460  0.4199
74237SOL    HW132641   8.518  11.140  10.746 -0.3407  0.4705  0.8791
74237SOL    HW232642   8.524  11.210  10.612  0.1663 -0.9736  0.1271
74238SOL     OW32643   9.691   0.495   0.170  0.0242  0.1526  0.6082
74238SOL    HW132644   9.698   0.453   0.084 -1.1221 -2.4996  1.7061
74238SOL    HW232645   9.613   0.550   0.164 -0.4327 -0.5281  0.1220
74239SOL     OW32646  11.211   3.412   0.286 -0.1247  0.3454 -0.2969
74239SOL    HW132647  11.132   3.426   0.337  0.1672  0.3288  0.1694
74239SOL    HW232648  11.182   3.370   0.206 -0.3499 -1.5472  0.7407
74240SOL     OW32649   1.328  12.244   9.547 -0.5553  0.0878  0.5656
74240SOL    HW132650   1.313  12.155   9.579  1.9616 -0.3716  0.6687
74240SOL    HW232651   1.364  12.232   9.459  0.6718  0.9463  0.9362
74241SOL     OW32652   5.340   1.228   8.406  0.3431 -0.3796  0.3263
74241SOL    HW132653   5.341   1.226   8.310 -1.1959 -0.9021  0.2951
74241SOL    HW232654   5.399   1.158   8.433 -1.9824 -2.7324 -0.3142
74242SOL     OW32655   2.223  12.563   7.355 -0.8010  0.7408  0.2281
74242SOL    HW132656   2.169  12.630   7.396 -1.9509 -1.2333  2.1639
74242SOL    HW232657   2.160  12.502   7.315  0.1056 -0.1729  0.1484
74243SOL     OW32658  11.426   1.970   4.902  0.9622 -0.8843  0.1710
74243SOL    HW132659  11.395   1.880   4.905 -0.4528 -0.4237  0.5865
74243SOL    HW232660  11.419   2.000   4.993  0.7094 -0.1465 -0.0824
74244SOL     OW32661  10.223   2.658   5.313 -0.2451 -0.1421 -0.0219
74244SOL    HW132662  10.204   2.601   5.238 -0.8153 -0.5520  0.4218
74244SOL    HW232663  10.315   2.642   5.332 -0.1017 -0.0572 -0.6149
74245SOL     OW32664   5.574  11.058   4.334 -0.2429  0.5873  1.1053
74245SOL    HW132665   5.593  11.047   4.241 -1.9891 -0.6668  0.8415
74245SOL    HW232666   5.485  11.094   4.336 -0.1638  0.7547  2.2919
74246SOL     OW32667  12.805   6.459   2.432 -0.1143  0.0924 -0.0645
74246SOL    HW132668  12.860   6.536   2.422  0.5242 -0.4923 -1.3095
74246SOL    HW232669  12.796   6.447   2.527  1.2870  0.6303  0.1562
74247SOL     OW32670   9.792  10.568   5.235 -0.4125  0.0775 -0.4886
74247SOL    HW132671   9.742  10.514   5.174 -0.3934  0.9183 -1.2650
74247SOL    HW232672   9.866  10.601   5.184  0.0831  0.0982  0.2274
74248SOL     OW32673   3.458   8.402   5.005  0.1812 -0.6067 -0.7435
74248SOL    HW132674   3.481   8.489   5.039  0.4945 -0.7834 -0.5025
74248SOL    HW232675   3.541   8.365   4.976  0.3076 -1.4705  0.6384
74249SOL     OW32676   5.751   3.836   4.467 -0.2438 -0.5000 -0.1751
74249SOL    HW132677   5.838   3.795   4.461 -0.4662 -1.1555  0.7891
74249SOL    HW232678   5.733   3.866   4.378  0.2164 -1.9412 -0.7993
74250SOL     OW32679   3.172  10.534   2.933 -0.1897  0.0427 -0.3428
74250SOL    HW132680   3.137  10.469   2.873 -1.4929  0.7026 -0.3401
74250SOL    HW232681   3.097  10.561   2.986  0.1132  2.1309 -0.8966
74251SOL     OW32682  11.906   0.743   9.552  0.1500 -0.3669 -0.5462
74251SOL    HW132683  11.952   0.783   9.626  0.8339 -1.4235 -0.3734
74251SOL    HW232684  11.816   0.773   9.561 -0.2056 -1.8320  1.7577
74252SOL     OW32685  10.346  11.914   9.038  0.0607  0.0663 -0.6685
74252SOL    HW132686  10.363  12.008   9.036 -1.7149  0.4393  0.1154
74252SOL    HW232687  10.253  11.905   9.019  0.3862 -1.6332 -1.8000
74253SOL     OW32688   7.397  10.010   6.367  0.7469  0.2362 -0.0133
74253SOL    HW132689   7.360  10.038   6.283  1.7581  0.4930 -0.3822
74253SOL    HW232690   7.326  10.023   6.430 -0.8035 -2.0097 -1.1553
74254SOL     OW32691   5.943  12.606   4.099 -0.0570  0.1049  0.4805
74254SOL    HW132692   5.911  12.665   4.031  1.2278  0.2717 -0.0082
74254SOL    HW232693   5.934  12.657   4.180 -1.5159 -0.0675  0.4513
74255SOL     OW32694  11.583   8.388   8.703 -0.3858  0.0052  0.4542
74255SOL    HW132695  11.619   8.316   8.754 -0.0303  0.3367  0.6745
74255SOL    HW232696  11.551   8.451   8.768 -2.8802 -0.9850  0.3002
74256SOL     OW32697  10.786   6.053   3.453 -0.4101 -0.0875  0.3841
74256SOL    HW132698  10.738   6.021   3.377  0.1355  0.7431 -0.3314
74256SOL    HW232699  10.872   6.012   3.446 -1.3515 -2.6877  2.4188
74257SOL     OW32700   6.423   5.400   1.698 -0.2816 -0.1589  0.4794
74257SOL    HW132701   6.416   5.368   1.608  2.1239  0.0809  0.1482
74257SOL    HW232702   6.357   5.469   1.704  0.0181  0.3377 -1.3538
74258SOL     OW32703   5.950   4.223   3.052 -0.0003  0.1105 -0.2837
74258SOL    HW132704   5.937   4.273   3.132  2.2331  0.7559 -0.2468
74258SOL    HW232705   5.876   4.162   3.049 -2.9379  3.3863 -0.4010
74259SOL     OW32706   3.788   2.256   3.704 -0.3691 -0.0876 -0.2873
74259SOL    HW132707   3.843   2.215   3.638 -1.9280 -0.7466 -1.2391
74259SOL    HW232708   3.770   2.186   3.767 -1.4466 -0.3683 -0.8785
74260SOL     OW32709   3.816  13.055  11.278  0.3375 -0.6723  0.3494
74260SOL    HW132710   3.830  13.052  11.373  0.4874 -0.1809  0.3426
74260SOL    HW232711   3.898  13.024  11.241  0.3100 -0.7781  0.3754
74261SOL     OW32712   2.263   8.015   5.733  0.3215  0.3458  0.1905
74261SOL    HW132713   2.176   8.048   5.758  0.4276 -0.6187  1.9786
74261SOL    HW232714   2.291   7.962   5.807  2.2106  0.1529 -0.6021
74262SOL     OW32715   7.399   8.062   5.521 -0.4149 -0.4218 -0.3795
74262SOL    HW132716   7.408   7.993   5.455 -0.2016 -1.0533  0.2952
74262SOL    HW232717   7.448   8.136   5.484  0.8667 -1.2090 -0.3380
74263SOL     OW32718  11.913   2.789   4.795 -0.1666 -0.5441  0.9132
74263SOL    HW132719  11.935   2.880   4.817 -0.0025 -0.6644  1.2396
74263SOL    HW232720  11.981   2.737   4.836  2.3864 -0.6051 -2.8294
74264SOL     OW32721   1.348  12.494   9.341  0.1637 -0.6058  0.3460
74264SOL    HW132722   1.421  12.549   9.368 -0.3786  0.9771 -1.2137
74264SOL    HW232723   1.389  12.417   9.302  1.0429  0.3076 -0.6042
74265SOL     OW32724   8.891   5.225  12.226  0.0334  0.4412 -0.7557
74265SOL    HW132725   8.922   5.138  12.252  0.0610  0.5309 -0.4798
74265SOL    HW232726   8.804   5.232  12.264 -0.2388  0.2783 -1.3386
74266SOL     OW32727  11.370  12.436   7.277 -0.4681 -0.3034  0.1585
74266SOL    HW132728  11.307  12.493   7.234  0.6277  1.8755  1.2506
74266SOL    HW232729  11.327  12.351   7.283 -1.9639  0.2485 -2.0356
74267SOL     OW32730   4.364   6.175   0.708 -0.4632 -0.1498  0.0326
74267SOL    HW132731   4.375   6.108   0.641 -1.6693 -0.4933  0.1484
74267SOL    HW232732   4.311   6.133   0.776  0.3011  0.3498  0.9835
74268SOL     OW32733  12.602   2.576   3.839 -0.8208 -0.3327  0.0773
74268SOL    HW132734  12.519   2.623   3.826 -1.7498 -1.6282  1.0984
74268SOL    HW232735  12.576   2.489   3.870  0.9338 -0.5266  1.1368
74269SOL     OW32736  12.795   7.072   7.494 -0.3524 -0.3125 -0.4127
74269SOL    HW132737  12.862   7.003   7.484  1.6654  1.5084 -0.1943
74269SOL    HW232738  12.743   7.043   7.569  1.7288 -0.6676  0.9799
74270SOL     OW32739   3.815  11.901   7.469  0.2869 -0.1415  0.4678
74270SOL    HW132740   3.790  11.809   7.478  1.3296 -0.3602  1.2191
74270SOL    HW232741   3.846  11.909   7.378 -0.9719 -0.2213  0.0061
74271SOL     OW32742  12.886   9.734   8.341 -0.3702 -0.3409 -0.0356
74271SOL    HW132743  12.799   9.762   8.314 -0.8450  0.9333  2.5045
74271SOL    HW232744  12.916   9.802   8.401  1.9187 -1.3259  0.0477
74272SOL     OW32745   8.966   6.958  10.695 -0.1000  0.5302 -0.3984
74272SOL    HW132746   8.890   6.928  10.746 -0.5632  2.4454  0.1236
74272SOL    HW232747   9.040   6.908  10.729 -0.7193  0.4534  0.8697
74273SOL     OW32748   4.568   9.069  12.649 -0.3667  0.1132  0.1408
74273SOL    HW132749   4.572   9.128  12.574  0.4785 -1.1225 -0.8377
74273SOL    HW232750   4.581   8.982  12.611  1.8335 -0.4086  1.8868
74274SOL     OW32751   2.726   1.646   4.041 -0.2408  0.3474  0.1888
74274SOL    HW132752   2.674   1.722   4.016 -1.1723  0.7017  2.8797
74274SOL    HW232753   2.812   1.681   4.062 -0.2308  0.4156  0.0383
74275SOL     OW32754   5.433   1.257   1.356  0.1491 -0.5116 -0.8264
74275SOL    HW132755   5.382   1.305   1.291  1.0652  0.0307 -1.1747
74275SOL    HW232756   5.500   1.212   1.305  0.0412 -1.1899 -0.3783
74276SOL     OW32757   4.191   7.432   9.780 -0.0775  0.1596 -0.2631
74276SOL    HW132758   4.204   7.523   9.809  0.6256  0.6387 -1.9807
74276SOL    HW232759   4.257   7.419   9.713 -1.4209 -1.0059 -1.4077
74277SOL     OW32760   9.608   8.632   8.660 -0.2922 -0.0747 -0.0571
74277SOL    HW132761   9.533   8.579   8.688 -2.3069  1.2814 -2.4500
74277SOL    HW232762   9.606   8.626   8.564  1.7231  1.2785 -0.2216
74278SOL     OW32763   1.088   1.209   7.189 -0.0173 -0.1560  0.3796
74278SOL    HW132764   1.140   1.203   7.108  1.6984 -2.0951  1.5147
74278SOL    HW232765   0.997   1.200   7.160  0.6387 -2.4964 -1.2514
74279SOL     OW32766   3.294   3.804   0.342 -0.4713  0.4166 -0.3986
74279SOL    HW132767   3.208   3.845   0.336 -1.0214 -0.6836 -0.3642
74279SOL    HW232768   3.285   3.741   0.414 -0.1041 -0.7340 -1.3123
74280SOL     OW32769   9.915   9.952   2.925 -0.2749  0.2010 -0.3249
74280SOL    HW132770   9.938  10.032   2.876 -0.1800  0.8165  0.6901
74280SOL    HW232771   9.998   9.922   2.961  0.0666 -1.5824 -2.3967
74281SOL     OW32772  11.588  12.224   8.892  0.3819  0.2000  0.6587
74281SOL    HW132773  11.623  12.160   8.954  1.6901 -0.3994 -0.6289
74281SOL    HW232774  11.663  12.280   8.870 -0.5778  1.7800  1.2408
74282SOL     OW32775   7.622   9.833   9.298 -0.2127  0.0345  0.4010
74282SOL    HW132776   7.550   9.879   9.254 -0.7733 -1.2415 -0.0772
74282SOL    HW232777   7.684   9.902   9.322 -0.0388  0.8393 -2.0664
74283SOL     OW32778   5.045   5.907   6.482 -0.0186 -0.4748  0.0665
74283SOL    HW132779   4.991   5.974   6.524 -1.3217 -1.6454  0.3458
74283SOL    HW232780   5.099   5.872   6.554  0.5412  0.1322 -0.0463
74284SOL     OW32781  12.130   0.760   1.356 -0.0370  0.3265  0.8409
74284SOL    HW132782  12.048   0.723   1.390  1.4045 -2.4925  1.5980
74284SOL    HW232783  12.159   0.819   1.425 -0.7659  0.3300  1.1630
74285SOL     OW32784   0.009   5.452   5.761  0.1613  0.2817 -0.1442
74285SOL    HW132785   0.080   5.500   5.719  0.2841 -0.6620 -1.0785
74285SOL    HW232786  -0.071   5.489   5.723  0.2099  0.5072 -0.0255
74286SOL     OW32787  10.356  11.672   1.500  0.0943 -0.0445 -0.1487
74286SOL    HW132788  10.342  11.595   1.445  0.0607 -0.1795  0.0490
74286SOL    HW232789  10.281  11.728   1.483 -0.1774 -0.3151  0.1432
74287SOL     OW32790   2.982  12.086   8.780  0.2043 -0.2348 -0.4764
74287SOL    HW132791   2.898  12.045   8.760 -0.4909  1.6464 -1.6679
74287SOL    HW232792   2.981  12.100   8.875  0.3979 -2.6852 -0.0429
74288SOL     OW32793   5.837  11.053   8.252  0.2968 -0.8691 -0.7643
74288SOL    HW132794   5.895  10.986   8.216  0.6178 -1.3360  0.5401
74288SOL    HW232795   5.868  11.064   8.342  0.4326  1.2690 -1.0391
74289SOL     OW32796   1.491   9.944   6.917 -0.5119  0.4011  0.0430
74289SOL    HW132797   1.475   9.907   7.004 -0.3530 -0.6002 -0.3432
74289SOL    HW232798   1.486  10.039   6.930 -2.1087  0.2467  0.8264
74290SOL     OW32799   4.843   4.808   1.962  0.3840  0.1572  0.8120
74290SOL    HW132800   4.846   4.713   1.950 -0.1144  0.3407 -1.1748
74290SOL    HW232801   4.889   4.843   1.885 -0.2595  1.5269  1.0197
74291SOL     OW32802   6.485  10.173   6.875 -0.3019  0.5165 -0.5277
74291SOL    HW132803   6.560  10.115   6.888  0.1438  1.2017  0.0402
74291SOL    HW232804   6.408  10.116   6.887  0.1199  0.1868  0.8312
74292SOL     OW32805   6.883   8.941   6.674 -0.2488  0.6949  0.8873
74292SOL    HW132806   6.959   8.995   6.698 -0.9272  1.6864  0.8657
74292SOL    HW232807   6.908   8.901   6.591  0.7586 -0.0383  1.5231
74293SOL     OW32808   0.418   8.625   1.217  0.2346  0.1852  0.0830
74293SOL    HW132809   0.438   8.719   1.215  1.9399 -0.1478  0.2154
74293SOL    HW232810   0.455   8.595   1.300  0.8058 -0.8339 -0.5284
74294SOL     OW32811   7.126  10.398   0.015  0.2039  0.1456 -0.0390
74294SOL    HW132812   7.141  10.331   0.081  0.6083  0.6961  0.4422
74294SOL    HW232813   7.148  10.480   0.059 -1.5166  0.7393 -0.1949
74295SOL     OW32814   7.474  11.820   5.842  0.2924 -0.2925 -0.3144
74295SOL    HW132815   7.413  11.867   5.899  0.4037 -0.4588 -0.0580
74295SOL    HW232816   7.556  11.818   5.891 -0.2481 -2.6116  0.6358
74296SOL     OW32817   2.797   0.436   3.261  0.1137  0.2926 -0.0192
74296SOL    HW132818   2.750   0.500   3.314  0.6545 -1.7844  3.2463
74296SOL    HW232819   2.877   0.480   3.235  0.0447  1.2594  1.3202
74297SOL     OW32820  10.768   9.246   2.047  0.7406  0.0379  0.2091
74297SOL    HW132821  10.703   9.244   2.116  0.6606  0.8324  0.1558
74297SOL    HW232822  10.720   9.222   1.968 -0.2432  3.5483 -0.4232
74298SOL     OW32823   7.971   5.112  10.378 -0.7967  0.0140 -0.4002
74298SOL    HW132824   7.877   5.097  10.384 -0.6401 -0.8659 -0.0801
74298SOL    HW232825   7.980   5.208  10.379 -1.7418  0.1336 -1.3676
74299SOL     OW32826   5.731   2.879   3.654  0.6819 -0.1438  0.2517
74299SOL    HW132827   5.685   2.859   3.736  2.6950 -0.8602  1.2732
74299SOL    HW232828   5.739   2.975   3.653 -0.5836 -0.0249  0.1584
74300SOL     OW32829   4.972   8.100   0.422 -0.2244 -0.1067  0.0941
74300SOL    HW132830   5.025   8.172   0.456 -0.9207  0.2889  0.3754
74300SOL    HW232831   4.882   8.123   0.447 -0.2979 -2.0024  1.8825
74301SOL     OW32832   2.911   2.935   7.556 -0.4463  0.7879 -0.1993
74301SOL    HW132833   2.887   3.025   7.580 -0.5095  1.1302 -1.4775
74301SOL    HW232834   2.834   2.902   7.509 -0.5182 -0.0322  0.4754
74302SOL     OW32835   0.905   6.591   7.512  0.1811 -0.3559 -0.2762
74302SOL    HW132836   0.928   6.671   7.464 -0.4928 -0.1354 -0.2448
74302SOL    HW232837   0.832   6.553   7.462 -0.4326 -0.2014  0.4830
74303SOL     OW32838   0.934   6.389   4.392 -0.6948  0.1228  0.4903
74303SOL    HW132839   0.854   6.422   4.353 -0.7470 -0.7714 -0.2035
74303SOL    HW232840   0.988   6.467   4.407 -1.8256  0.7689  1.3133
74304SOL     OW32841  10.528   3.484   5.669  0.4497  0.2644 -0.1371
74304SOL    HW132842  10.579   3.428   5.727  1.6886  1.7672  0.3230
74304SOL    HW232843  10.552   3.573   5.695 -0.9165  1.0137 -1.2733
74305SOL     OW32844   8.152   3.930   4.080 -0.2449 -0.1530  0.1982
74305SOL    HW132845   8.207   3.992   4.127 -1.1628  3.3056 -2.7804
74305SOL    HW232846   8.201   3.909   4.000 -1.0800 -1.1662 -0.0816
74306SOL     OW32847   3.849  12.932   8.269 -0.1164 -0.0442  0.3170
74306SOL    HW132848   3.865  12.947   8.362 -2.0018  0.5280  0.6021
74306SOL    HW232849   3.805  12.847   8.267 -1.8507  0.8131  0.2019
74307SOL     OW32850   4.051   5.732  11.430  0.1074  0.1687 -0.3091
74307SOL    HW132851   4.145   5.751  11.440  0.1609 -0.1721 -0.1621
74307SOL    HW232852   4.022   5.706  11.517  0.2857 -1.5116 -0.7122
74308SOL     OW32853   6.058   3.207   9.213  0.0100  0.1679  0.4228
74308SOL    HW132854   5.998   3.168   9.276 -0.1469 -0.2484  0.0117
74308SOL    HW232855   6.029   3.175   9.128 -0.9060  2.1492 -0.0728
74309SOL     OW32856  11.133  13.003   5.463  0.3663 -0.2791 -0.3098
74309SOL    HW132857  11.131  12.925   5.518 -0.0208 -0.9976 -1.3270
74309SOL    HW232858  11.224  13.010   5.433  0.1130 -1.1046 -1.2893
74310SOL     OW32859  12.829   9.864   2.205  0.2696 -0.4832 -0.0778
74310SOL    HW132860  12.828   9.769   2.218  0.3437 -0.2896  1.7029
74310SOL    HW232861  12.825   9.899   2.294 -4.2887  1.2554 -0.6997
74311SOL     OW32862   7.421   5.595   9.668 -0.7610  0.3234 -0.1333
74311SOL    HW132863   7.328   5.602   9.689 -0.6285  1.5025  0.1486
74311SOL    HW232864   7.451   5.517   9.715 -1.2417  0.8929  1.1520
74312SOL     OW32865   0.139   9.006   6.332  0.4980  0.2938 -0.1586
74312SOL    HW132866   0.119   8.969   6.246  0.8968  2.0600 -1.0612
74312SOL    HW232867   0.085   9.085   6.338 -1.7811 -1.3069  2.5023
74313SOL     OW32868   7.985   5.066   0.682 -0.0412 -0.3186 -0.0036
74313SOL    HW132869   7.966   5.125   0.755 -1.8600 -0.7535 -0.0814
74313SOL    HW232870   8.065   5.101   0.643  1.1690 -0.2301  2.3440
74314SOL     OW32871   5.556   9.627  13.220  0.1684  0.1014 -0.1965
74314SOL    HW132872   5.569   9.566  13.148 -1.6886  0.8430 -1.2247
74314SOL    HW232873   5.614   9.701  13.201 -1.5943  1.1286 -2.0044
74315SOL     OW32874  11.392   9.476   8.807  0.4814  0.2533  0.1805
74315SOL    HW132875  11.369   9.456   8.716  0.7142  1.5780 -0.1989
74315SOL    HW232876  11.468   9.534   8.800  1.0418 -0.3220  1.2616
74316SOL     OW32877  10.484   5.747  11.463 -0.3916 -0.3951 -0.5101
74316SOL    HW132878  10.576   5.771  11.454 -0.3183 -1.1598 -2.3660
74316SOL    HW232879  10.465   5.758  11.556  0.6113  3.0886 -0.5746
74317SOL     OW32880   7.073  10.900   2.272 -0.1507 -0.4605  0.0970
74317SOL    HW132881   7.044  10.949   2.195 -1.3536 -1.9812 -0.4664
74317SOL    HW232882   6.993  10.881   2.320  0.3927 -1.0701  0.7854
74318SOL     OW32883   9.950   0.122   9.298 -0.0823  0.2608 -0.0818
74318SOL    HW132884  10.021   0.168   9.342 -0.5040  0.2454  0.6356
74318SOL    HW232885   9.931   0.174   9.220  1.6471 -0.4839 -1.0502
74319SOL     OW32886   6.222   2.430  11.508  0.1362 -0.0028  0.2495
74319SOL    HW132887   6.296   2.419  11.449  1.3912  1.4599  1.4587
74319SOL    HW232888   6.232   2.519  11.542 -0.5418 -0.7682  2.6098
74320SOL     OW32889   8.013   9.661  10.078  0.3402  0.6152  0.0453
74320SOL    HW132890   8.012   9.565  10.080  2.7193  0.5541  0.3360
74320SOL    HW232891   7.923   9.686  10.099  0.1176 -1.5323  2.0296
74321SOL     OW32892   4.801  10.153   6.066 -0.6422  0.2688 -0.1616
74321SOL    HW132893   4.723  10.200   6.036 -0.1746  1.2017  0.0356
74321SOL    HW232894   4.793  10.151   6.161 -0.0410  1.0953 -0.0816
74322SOL     OW32895  10.236  11.161   9.793 -0.7914 -0.1505  0.1039
74322SOL    HW132896  10.276  11.241   9.827 -0.5133  1.1795 -3.0388
74322SOL    HW232897  10.152  11.189   9.758 -1.9777 -1.8427  1.3911
74323SOL     OW32898   3.535   7.233   3.732  0.2386  0.0409  0.0635
74323SOL    HW132899   3.589   7.250   3.655 -0.8695  1.8639 -0.3701
74323SOL    HW232900   3.448   7.214   3.697  0.0234 -0.4742  0.8414
74324SOL     OW32901  11.894   8.275   9.961 -0.2436 -0.0480  0.0675
74324SOL    HW132902  11.875   8.294   9.870 -1.5766 -1.2712  0.0397
74324SOL    HW232903  11.860   8.350  10.010  1.1246  0.9449 -0.4546
74325SOL     OW32904  12.919   9.378   0.778  0.1677 -0.6643  0.0951
74325SOL    HW132905  12.953   9.295   0.813 -1.1168 -1.2190  0.0974
74325SOL    HW232906  12.897   9.429   0.856 -1.8057 -1.5263  0.1692
74326SOL     OW32907   5.665   9.664  11.588  0.0475  0.2334  0.0272
74326SOL    HW132908   5.731   9.641  11.521  0.5808  0.5136  0.4482
74326SOL    HW232909   5.606   9.589  11.589  0.8281 -0.3927  0.2165
74327SOL     OW32910   5.747   6.628   5.661 -0.3640 -0.1596  0.1618
74327SOL    HW132911   5.754   6.589   5.748  3.9015  1.7300  0.9220
74327SOL    HW232912   5.700   6.711   5.676 -2.0535 -1.0531  0.0577
74328SOL     OW32913   3.630   5.780   4.821 -0.6425 -0.1221 -0.4004
74328SOL    HW132914   3.647   5.690   4.851 -1.3909 -0.3131 -0.5165
74328SOL    HW232915   3.713   5.809   4.785 -0.4095 -0.8010 -0.4298
74329SOL     OW32916   5.432   4.666   3.601 -0.1588  0.3074 -0.6992
74329SOL    HW132917   5.375   4.600   3.562  1.7671 -1.6337 -0.3990
74329SOL    HW232918   5.379   4.706   3.670 -1.0617 -1.6998 -0.1710
74330SOL     OW32919  10.591   5.831  10.106  0.0343 -0.3255 -0.3062
74330SOL    HW132920  10.610   5.921  10.130 -0.1256 -0.1189 -0.9453
74330SOL    HW232921  10.497   5.829  10.091  0.0305 -0.6062 -0.2542
74331SOL     OW32922   0.674   4.040   6.574 -0.1235  0.0750 -0.0657
74331SOL    HW132923   0.737   4.016   6.642 -0.5325  1.0411  0.6649
74331SOL    HW232924   0.588   4.027   6.614 -0.3685  0.5930 -0.4111
74332SOL     OW32925   1.663  11.795   1.431  0.4277 -0.3085  0.1168
74332SOL    HW132926   1.701  11.814   1.517  0.5612  0.7223 -0.1570
74332SOL    HW232927   1.711  11.851   1.370 -1.8617  1.5314 -0.1541
74333SOL     OW32928  11.321   7.518  12.361 -0.1170  0.1771 -0.4684
74333SOL    HW132929  11.390   7.561  12.310  1.5977 -1.5754  0.2348
74333SOL    HW232930  11.316   7.568  12.443  0.5057  0.1961 -0.4396
74334SOL     OW32931   8.675   2.648  11.680 -0.2209 -0.1364  0.4977
74334SOL    HW132932   8.718   2.563  11.685 -0.1077 -0.2429 -1.3691
74334SOL    HW232933   8.596   2.632  11.628  0.2092  1.0152 -0.5745
74335SOL     OW32934   0.475   9.174   2.473  0.1288 -0.4062 -0.4679
74335SOL    HW132935   0.506   9.204   2.388  0.9209  1.4146  0.4223
74335SOL    HW232936   0.550   9.126   2.510  1.5898  2.8142  1.1003
74336SOL     OW32937   2.272  12.695   6.551 -0.3992  0.9678  0.0149
74336SOL    HW132938   2.345  12.634   6.537 -0.5903 -0.0016  2.7518
74336SOL    HW232939   2.201  12.660   6.497  1.0667  2.0029 -2.8081
74337SOL     OW32940   2.591  11.636   4.282  0.3045 -0.0689  0.3933
74337SOL    HW132941   2.606  11.570   4.214  0.3889 -0.5584  0.8824
74337SOL    HW232942   2.536  11.702   4.240 -0.2982 -0.7629  0.0866
74338SOL     OW32943   5.807  13.148   4.615 -0.6541  0.3255 -0.6628
74338SOL    HW132944   5.841  13.236   4.633 -0.1419 -0.0560  0.2575
74338SOL    HW232945   5.738  13.134   4.679  0.7707 -0.7989  0.6986
74339SOL     OW32946   9.279   3.729   7.711 -0.1961 -0.2860  0.3218
74339SOL    HW132947   9.233   3.673   7.774  1.0049  1.2601  2.7209
74339SOL    HW232948   9.369   3.698   7.714 -0.1189 -0.1945 -0.7206
74340SOL     OW32949  10.285   0.592   0.054  0.4298  0.4381  0.1392
74340SOL    HW132950  10.305   0.653   0.125  0.5143  1.1207 -0.4603
74340SOL    HW232951  10.368   0.549   0.035  0.3313 -0.0180  0.6902
74341SOL     OW32952   2.563  11.725  13.063 -0.3671  0.1415 -0.2939
74341SOL    HW132953   2.636  11.672  13.095 -0.0450  1.2098  0.8463
74341SOL    HW232954   2.597  11.769  12.985 -0.3549 -0.6347 -0.7371
74342SOL     OW32955   2.240   0.487   4.644  0.2902 -0.0854  0.2344
74342SOL    HW132956   2.246   0.442   4.728 -0.3017  0.8858  0.8183
74342SOL    HW232957   2.283   0.571   4.659 -0.9013  0.5961 -0.0507
74343SOL     OW32958   0.653  11.225   5.942 -0.1651  0.3470  0.1925
74343SOL    HW132959   0.605  11.256   6.019  0.8118  0.5789  0.7260
74343SOL    HW232960   0.652  11.130   5.950  0.0122  0.3726  0.5480
74344SOL     OW32961  11.696   2.537  12.721  0.2329  0.1504  0.1207
74344SOL    HW132962  11.672   2.629  12.709 -1.6516 -0.3859 -0.7026
74344SOL    HW232963  11.744   2.514  12.641 -0.6455  0.0456 -0.3932
74345SOL     OW32964   5.630   7.540   8.610  0.3304 -0.4624  0.5972
74345SOL    HW132965   5.605   7.461   8.657  1.8732 -0.7621  0.9795
74345SOL    HW232966   5.654   7.509   8.522 -0.1734 -0.2533  0.3843
74346SOL     OW32967  11.670   2.169   8.655  0.2862  0.3426  0.1605
74346SOL    HW132968  11.700   2.203   8.571 -0.7114  1.8859  0.3882
74346SOL    HW232969  11.726   2.213   8.720  1.1648 -0.9668  0.3201
74347SOL     OW32970   6.313  12.572   1.769 -0.0348  0.0541 -0.6808
74347SOL    HW132971   6.401  12.582   1.732  0.2719  0.6707  0.1890
74347SOL    HW232972   6.328  12.556   1.862 -0.8668  0.8704 -0.3927
74348SOL     OW32973   2.614   2.880   9.159  0.3322  0.3625  0.4621
74348SOL    HW132974   2.560   2.873   9.238  3.8548 -0.7551  3.0277
74348SOL    HW232975   2.595   2.801   9.109 -0.0465 -0.2683  1.5685
74349SOL     OW32976  10.962   9.258   6.752  0.2831 -0.2559  0.2357
74349SOL    HW132977  11.007   9.233   6.671 -0.3146 -2.0096  0.4088
74349SOL    HW232978  10.882   9.204   6.753 -0.5761  0.9678  1.1696
74350SOL     OW32979   8.554   8.593   1.685  0.4319 -0.3609  0.0508
74350SOL    HW132980   8.618   8.559   1.622  2.3417 -2.0400  2.7141
74350SOL    HW232981   8.470   8.583   1.640  1.6704 -1.3650 -2.2694
74351SOL     OW32982   2.290  12.990   5.566  0.3524  0.6060 -0.9566
74351SOL    HW132983   2.330  12.904   5.560 -0.8015  0.1536 -3.3883
74351SOL    HW232984   2.231  12.994   5.492 -0.9240  2.8616  0.0806
74352SOL     OW32985   5.886   8.964  12.052 -0.0576  0.0988 -0.3156
74352SOL    HW132986   5.834   8.905  12.107 -1.8311  0.9684 -1.0098
74352SOL    HW232987   5.911   9.036  12.110  0.1120 -0.1519 -0.0728
74353SOL     OW32988   2.321   6.003   2.179 -0.6627 -0.0427 -0.0484
74353SOL    HW132989   2.337   6.044   2.264  0.9658 -3.4030  1.4783
74353SOL    HW232990   2.275   5.921   2.200  0.6122 -1.4317 -2.2164
74354SOL     OW32991   1.630   0.319   1.090 -0.0587 -0.3035  0.1436
74354SOL    HW132992   1.708   0.373   1.076 -2.0376  2.5578 -0.9555
74354SOL    HW232993   1.612   0.326   1.183  0.0531  0.4926  0.1143
74355SOL     OW32994   5.442  10.389   0.023 -0.2414 -0.2240 -0.1907
74355SOL    HW132995   5.356  10.363  -0.012 -0.3003 -0.3893  0.0702
74355SOL    HW232996   5.445  10.483   0.012 -0.9460 -0.0523  0.8564
74356SOL     OW32997  10.272  10.938   9.649  0.4200  0.5029 -0.4263
74356SOL    HW132998  10.282  11.033   9.662  1.3000  0.9055 -3.2603
74356SOL    HW232999  10.187  10.917   9.688  0.4415  2.3495  0.7293
74357SOL     OW33000   9.443   0.237  11.556 -0.3799 -0.0743  0.2430
74357SOL    HW133001   9.509   0.305  11.567  0.9217 -1.0903 -0.8857
74357SOL    HW233002   9.479   0.161  11.602 -0.0871 -1.0454 -1.5152
74358SOL     OW33003   5.508  10.435  10.666 -0.0337  0.6758  0.3849
74358SOL    HW133004   5.514  10.348  10.706 -0.3269 -0.1020 -1.1629
74358SOL    HW233005   5.426  10.432  10.616 -0.3700  2.0828  0.8279
74359SOL     OW33006  11.857   8.480   1.178 -0.0370 -0.5903 -0.5195
74359SOL    HW133007  11.768   8.444   1.181 -0.2719 -0.0454 -0.7249
74359SOL    HW233008  11.846   8.565   1.135  0.5998 -0.5584 -0.6212
74360SOL     OW33009   3.743   3.527  12.268 -0.3584 -0.7249  0.2800
74360SOL    HW133010   3.753   3.506  12.175 -0.4911  1.1985 -0.2319
74360SOL    HW233011   3.812   3.592  12.284 -2.3825  1.5103  0.5898
74361SOL     OW33012  11.688  12.156  10.253 -0.4295 -0.8306 -0.1143
74361SOL    HW133013  11.711  12.179  10.343 -0.4747 -1.0958 -0.0352
74361SOL    HW233014  11.759  12.098  10.225  0.4126  0.4685 -0.7678
74362SOL     OW33015  12.153   8.562   3.113 -0.1701 -0.3289  0.3275
74362SOL    HW133016  12.222   8.508   3.074  0.1557  0.1654  0.2147
74362SOL    HW233017  12.183   8.652   3.100 -0.0648 -0.1493  1.6923
74363SOL     OW33018   5.730   9.161   4.040 -0.5068  0.3616  0.2599
74363SOL    HW133019   5.686   9.246   4.040 -0.3145  0.4689 -0.8324
74363SOL    HW233020   5.751   9.144   3.948 -0.1706 -0.6765  0.5124
74364SOL     OW33021   0.435  12.427   5.593  0.4308 -1.0662 -0.4526
74364SOL    HW133022   0.407  12.494   5.656  0.2443 -1.6935  0.1449
74364SOL    HW233023   0.422  12.468   5.507  1.9290  0.2978 -0.0861
74365SOL     OW33024   9.891   5.054  12.169 -0.3476 -0.2436 -0.4133
74365SOL    HW133025   9.930   4.988  12.228  0.4094  1.0977  0.6706
74365SOL    HW233026   9.830   5.005  12.115 -0.1252 -1.7641  0.6397
74366SOL     OW33027   6.294   9.462   6.203 -0.6691  0.1416 -0.2430
74366SOL    HW133028   6.390   9.461   6.202 -0.6031  0.7527  1.6643
74366SOL    HW233029   6.268   9.383   6.156  0.8006 -0.6919  0.2817
74367SOL     OW33030  12.149   8.340  10.865  0.1865  0.2296 -0.7705
74367SOL    HW133031  12.088   8.266  10.864 -1.6586  1.6683 -1.1230
74367SOL    HW233032  12.184   8.341  10.954 -1.1908  0.0169 -0.1970
74368SOL     OW33033   6.358  10.166   8.491 -0.1682  0.1091 -0.1643
74368SOL    HW133034   6.324  10.178   8.580  1.7265 -0.9667  0.7595
74368SOL    HW233035   6.359  10.254   8.454  2.3213  1.2090  2.1856
74369SOL     OW33036   4.955  13.275  11.659  0.0771 -0.2425 -0.3636
74369SOL    HW133037   5.013  13.285  11.735 -1.7352  0.5711  0.9989
74369SOL    HW233038   4.928  13.365  11.637  0.3720 -0.4867 -1.8429
74370SOL     OW33039  12.758   2.971   2.275  0.5341  0.5433  0.2607
74370SOL    HW133040  12.792   3.055   2.245 -0.2832  0.3502 -1.3174
74370SOL    HW233041  12.816   2.946   2.347  0.9684  2.2984  0.5660
74371SOL     OW33042   3.986   1.022   4.683 -0.2258 -0.0398 -0.1521
74371SOL    HW133043   3.989   0.930   4.658  0.9408  0.0614 -0.4436
74371SOL    HW233044   3.974   1.021   4.778  0.7391 -0.5052 -0.0315
74372SOL     OW33045   3.599   9.897   2.798 -0.1316 -0.0077 -0.5375
74372SOL    HW133046   3.611   9.810   2.837  1.4116  0.3841 -0.0833
74372SOL    HW233047   3.575   9.953   2.872  0.0137  0.1905 -0.6410
74373SOL     OW33048   8.785   9.588   7.432  0.2294 -0.1398  0.3507
74373SOL    HW133049   8.805   9.555   7.344 -0.8477 -1.2173  0.4888
74373SOL    HW233050   8.693   9.614   7.427 -0.3587 -1.8250  1.5983
74374SOL     OW33051   8.372   7.995   1.397  0.2869 -0.3785  0.0032
74374SOL    HW133052   8.408   8.037   1.476 -0.2744 -0.6422  0.4037
74374SOL    HW233053   8.284   8.031   1.389  0.3090 -0.4232 -0.4557
74375SOL     OW33054   4.797   3.625   3.606 -0.0043  0.3527  0.2633
74375SOL    HW133055   4.788   3.720   3.620 -1.6294 -0.0484  2.5591
74375SOL    HW233056   4.708   3.592   3.610  0.6131 -1.3891  0.3767
74376SOL     OW33057   3.248   6.853  11.324  0.2164  0.1508 -0.3268
74376SOL    HW133058   3.235   6.773  11.376  0.3834  1.0621  1.1939
74376SOL    HW233059   3.191   6.918  11.366  0.7192  1.0488 -1.0008
74377SOL     OW33060   6.810   8.792  11.298 -0.0215  0.3632  0.6747
74377SOL    HW133061   6.868   8.749  11.361  0.2808 -0.1424  0.0651
74377SOL    HW233062   6.859   8.791  11.216 -0.3040  1.2485  0.4897
74378SOL     OW33063   2.919   6.292   4.361  0.2829 -0.1500  0.3511
74378SOL    HW133064   2.935   6.204   4.329  0.4002 -0.2284  0.6264
74378SOL    HW233065   3.006   6.330   4.373  0.2418 -0.2184  0.8500
74379SOL     OW33066   5.198  12.988   6.896  0.0728 -0.8911  0.7693
74379SOL    HW133067   5.266  13.046   6.930  1.3250 -1.3257 -0.8635
74379SOL    HW233068   5.118  13.041   6.899  1.1782  0.9773 -0.7150
74380SOL     OW33069   6.759  10.083  12.775  0.2376 -0.3081 -0.3694
74380SOL    HW133070   6.836  10.074  12.831  0.9866 -0.8045 -1.4521
74380SOL    HW233071   6.712  10.158  12.810  0.0597 -1.2892  1.6398
74381SOL     OW33072  11.957   6.166   2.125  0.1580 -0.4021 -0.7955
74381SOL    HW133073  12.038   6.216   2.121  0.7372 -1.3190 -0.6762
74381SOL    HW233074  11.967   6.109   2.201 -0.9258  0.0191 -0.3091
74382SOL     OW33075   4.606   4.039   9.282 -0.0206  0.2027 -0.0243
74382SOL    HW133076   4.663   4.073   9.352  0.4548 -0.9073  0.1410
74382SOL    HW233077   4.547   3.978   9.326  0.7720 -1.0789 -0.6879
74383SOL     OW33078   8.639   1.337   7.391 -0.6254  0.7426  0.2459
74383SOL    HW133079   8.610   1.255   7.350 -0.1166  0.3679  0.6171
74383SOL    HW233080   8.677   1.388   7.320 -0.7112  0.5458  0.0581
74384SOL     OW33081  11.952   2.673   3.020  0.3297  0.3346 -0.0299
74384SOL    HW133082  11.934   2.767   3.024 -0.7988  0.0868  1.1051
74384SOL    HW233083  11.881   2.632   3.069  1.2908 -1.0555  0.2636
74385SOL     OW33084   4.941   8.879   2.847 -0.1606  0.2707  0.0239
74385SOL    HW133085   4.875   8.906   2.783  0.3261  0.6986 -0.3058
74385SOL    HW233086   4.891   8.858   2.926 -0.7471 -0.0595 -0.4279
74386SOL     OW33087   2.596  11.499   9.444 -0.3959  0.0647  0.6405
74386SOL    HW133088   2.548  11.416   9.447  0.1918 -0.2500  1.8996
74386SOL    HW233089   2.562  11.549   9.518  0.5715  0.2053  0.9972
74387SOL     OW33090   7.187   9.877  12.646 -0.0602  0.2997 -0.3431
74387SOL    HW133091   7.238   9.797  12.633 -0.1876  0.0566  0.6035
74387SOL    HW233092   7.184   9.888  12.740  0.2770  1.6361 -0.4749
74388SOL     OW33093   3.450   9.890  12.192  0.0764 -0.5324 -0.1220
74388SOL    HW133094   3.477   9.976  12.223  0.1420 -0.1545 -1.1747
74388SOL    HW233095   3.507   9.829  12.239  0.0048 -0.0150  0.6577
74389SOL     OW33096   0.574  11.952   7.788 -0.2641 -0.0960 -0.0120
74389SOL    HW133097   0.629  12.022   7.753 -0.8139  0.4498  0.2242
74389SOL    HW233098   0.637  11.883   7.812  0.4376  0.9790  1.3355
74390SOL     OW33099   6.537   8.252   4.572 -0.4158  0.4320 -0.6402
74390SOL    HW133100   6.502   8.164   4.582  0.1317  0.3902  1.2160
74390SOL    HW233101   6.629   8.240   4.549 -0.4428  0.5417 -0.8155
74391SOL     OW33102   7.921  12.449   9.002  0.7931 -0.2163 -0.5882
74391SOL    HW133103   7.967  12.419   9.080  0.8215 -2.8910 -1.5336
74391SOL    HW233104   7.988  12.454   8.934  0.3645 -0.3481 -1.0320
74392SOL     OW33105   5.391   1.912   6.844 -0.1636 -0.2574  0.5045
74392SOL    HW133106   5.464   1.960   6.805 -0.6226  1.2566  1.4197
74392SOL    HW233107   5.433   1.844   6.896  0.4942 -1.1904 -1.1482
74393SOL     OW33108  11.493   3.022   5.283 -0.5823  0.5929  0.2207
74393SOL    HW133109  11.517   3.097   5.229  1.6374  0.7224  1.2964
74393SOL    HW233110  11.455   2.959   5.221 -1.1478  1.9950 -0.9197
74394SOL     OW33111   2.704   9.944   8.729  0.3523 -0.0204 -0.1344
74394SOL    HW133112   2.764   9.870   8.744 -0.3015 -0.3962  0.7014
74394SOL    HW233113   2.725   9.974   8.641 -0.4316 -2.2227 -1.1409
74395SOL     OW33114   1.199   4.003  11.011  0.1808  0.0860  0.0374
74395SOL    HW133115   1.129   4.053  11.053  0.2930 -0.2157  0.5981
74395SOL    HW233116   1.164   3.915  11.002 -0.3580  0.4453 -1.7865
74396SOL     OW33117   8.449   7.850   6.226  0.1897 -0.0753 -0.3962
74396SOL    HW133118   8.434   7.936   6.186 -0.6032 -0.9468 -2.0268
74396SOL    HW233119   8.544   7.844   6.234  0.2730  0.7822 -0.6275
74397SOL     OW33120   4.130   9.145   9.365 -0.3121 -0.2707 -0.1272
74397SOL    HW133121   4.077   9.194   9.302  0.4162  1.7621  0.7702
74397SOL    HW233122   4.198   9.104   9.312  0.6398  1.8776 -0.6791
74398SOL     OW33123   2.553   0.320   4.765 -0.5764  0.1510  0.0671
74398SOL    HW133124   2.586   0.338   4.854  0.0114 -0.6124  0.0141
74398SOL    HW233125   2.585   0.393   4.713 -1.0592  0.6912  0.5060
74399SOL     OW33126  11.941   7.126   9.378  0.7360 -0.0046  0.3112
74399SOL    HW133127  11.935   7.066   9.452 -0.2154  0.3423  0.5387
74399SOL    HW233128  11.956   7.069   9.302  1.4849 -0.3798  0.7347
74400SOL     OW33129   8.820  12.190  10.122 -0.3193  0.4758 -0.7800
74400SOL    HW133130   8.816  12.103  10.161  0.3121  0.3070 -1.0764
74400SOL    HW233131   8.771  12.182  10.040 -0.1475  0.3668 -0.8705
74401SOL     OW33132   8.719   7.945   9.910  0.3249 -0.0869 -0.2045
74401SOL    HW133133   8.797   8.001   9.910 -0.3053  0.8169 -0.7164
74401SOL    HW233134   8.677   7.964   9.994  0.4641 -0.3061 -0.0844
74402SOL     OW33135  11.666   6.168  11.126 -0.5127  0.8411 -0.0120
74402SOL    HW133136  11.664   6.156  11.221 -0.3010  2.9307  0.3048
74402SOL    HW233137  11.575   6.184  11.102 -0.6336 -0.1535 -0.2496
74403SOL     OW33138   6.551  12.354  11.510 -0.4373 -0.1626  0.3331
74403SOL    HW133139   6.470  12.404  11.504 -0.2346  0.0195 -1.6469
74403SOL    HW233140   6.567  12.324  11.421  1.2300 -0.9144  0.8429
74404SOL     OW33141  13.041   4.075   2.324 -0.5496  0.3617 -0.5268
74404SOL    HW133142  13.040   4.072   2.419 -0.3511 -2.3203 -0.5240
74404SOL    HW233143  13.133   4.069   2.300 -0.6957 -1.6232 -0.8172
74405SOL     OW33144   3.105   4.753   0.635 -0.2848 -0.1644  0.0936
74405SOL    HW133145   3.137   4.719   0.551  2.1082  0.9170  0.4974
74405SOL    HW233146   3.160   4.713   0.701 -1.7787 -0.5597  1.1625
74406SOL     OW33147   7.282   1.776   2.752  0.8832 -0.1984  0.1982
74406SOL    HW133148   7.323   1.735   2.676  1.1151  0.8749 -0.2846
74406SOL    HW233149   7.202   1.817   2.716  0.9438  0.2315  0.5431
74407SOL     OW33150   0.758   6.939   2.618  0.6750  0.3784 -0.3889
74407SOL    HW133151   0.789   7.002   2.553  0.6262 -0.9088 -1.7167
74407SOL    HW233152   0.747   6.857   2.569  1.1202 -0.7788  1.3504
74408SOL     OW33153   2.211  12.435  10.431 -0.3732  0.4135 -0.1846
74408SOL    HW133154   2.221  12.356  10.485  1.7881  0.5518 -0.3199
74408SOL    HW233155   2.240  12.506  10.488  2.1989  0.5379 -1.5307
74409SOL     OW33156   1.572  12.331  10.640 -0.0724 -0.4608  0.3445
74409SOL    HW133157   1.627  12.359  10.566  1.1257  3.1069  2.3390
74409SOL    HW233158   1.505  12.276  10.600  0.8621  0.7626 -3.3221
74410SOL     OW33159   4.980  10.808  12.265  0.0139 -0.4551  0.4135
74410SOL    HW133160   5.032  10.871  12.315 -0.9095 -0.8932  2.0024
74410SOL    HW233161   5.044  10.744  12.234  1.1085  1.6215 -1.9740
74411SOL     OW33162   7.474  11.529   0.109  0.0193  0.0635 -0.1169
74411SOL    HW133163   7.404  11.532   0.044  1.1559  0.8626 -1.3454
74411SOL    HW233164   7.547  11.487   0.064  1.4841  2.3771 -0.0831
74412SOL     OW33165  11.360   3.002   9.600 -0.2011  0.2171 -0.0106
74412SOL    HW133166  11.275   3.047   9.597 -0.6582 -0.6776 -1.2556
74412SOL    HW233167  11.359   2.953   9.683 -1.9813 -1.7576 -1.1040
74413SOL     OW33168   9.259   0.481  13.186 -0.2176  0.2803 -0.0103
74413SOL    HW133169   9.181   0.434  13.215  0.0390  0.6085  1.2826
74413SOL    HW233170   9.225   0.563  13.149 -0.6123 -0.5382 -1.5785
74414SOL     OW33171   1.660   0.897   8.826 -0.1618 -0.0865 -0.8687
74414SOL    HW133172   1.677   0.831   8.759 -1.2316 -0.7232 -0.5397
74414SOL    HW233173   1.586   0.947   8.792 -1.1228 -0.8155  0.0981
74415SOL     OW33174  11.675   0.912   9.494 -0.7107 -0.3192 -0.4838
74415SOL    HW133175  11.635   0.924   9.580  1.0976 -0.4748  0.4274
74415SOL    HW233176  11.705   1.000   9.469 -0.3844 -0.4379 -0.5133
74416SOL     OW33177  12.888   2.204  12.812 -0.1012  0.0600 -0.0315
74416SOL    HW133178  12.829   2.165  12.747  0.7383 -0.1356 -0.6895
74416SOL    HW233179  12.837   2.276  12.850 -0.9269 -0.3876 -0.2496
74417SOL     OW33180   4.386  10.591   5.012 -0.2469 -0.4389 -0.2784
74417SOL    HW133181   4.346  10.623   5.093 -1.9804 -0.1917 -1.1839
74417SOL    HW233182   4.410  10.670   4.964  1.8812 -0.5744  0.4512
74418SOL     OW33183   1.610   0.653  11.609 -0.4263 -0.1288  0.0187
74418SOL    HW133184   1.564   0.723  11.654  0.0450  0.3648 -0.2557
74418SOL    HW233185   1.694   0.691  11.584  0.4085 -1.2097  1.0855
74419SOL     OW33186   3.254   2.143   0.135 -0.0820  0.0377 -0.2621
74419SOL    HW133187   3.253   2.055   0.097 -0.4719  0.3985 -1.1119
74419SOL    HW233188   3.277   2.129   0.227 -0.0612 -0.9434 -0.4055
74420SOL     OW33189   9.460   6.934   2.565 -0.2839 -0.0992  0.8143
74420SOL    HW133190   9.520   6.994   2.610 -0.9628  1.2327  0.0039
74420SOL    HW233191   9.392   6.916   2.630 -0.2561  0.2941  0.9568
74421SOL     OW33192   6.869   9.880  13.048  0.3565 -0.1594  0.5036
74421SOL    HW133193   6.809   9.805  13.042 -0.0679  0.1136  1.1815
74421SOL    HW233194   6.952   9.842  13.077  0.1456 -0.3751  0.8312
74422SOL     OW33195   1.518   8.343   6.220 -0.1863  0.6769 -0.1606
74422SOL    HW133196   1.610   8.320   6.237 -0.3403  0.8957  1.0849
74422SOL    HW233197   1.523   8.429   6.179  0.2285 -0.0825 -1.8092
74423SOL     OW33198   9.494   3.318   8.783 -0.2588  0.3161 -0.2846
74423SOL    HW133199   9.484   3.223   8.778  0.6011  0.1948  0.1190
74423SOL    HW233200   9.493   3.347   8.691 -1.9324  0.0909 -0.3622
74424SOL     OW33201   3.212   4.826   8.936  0.2831  0.5504 -0.0811
74424SOL    HW133202   3.304   4.853   8.936  1.0355 -1.7375 -0.6768
74424SOL    HW233203   3.179   4.852   9.021  1.5920  1.0907  0.2901
74425SOL     OW33204   2.297  10.474   5.949 -0.0880  0.2465 -0.3669
74425SOL    HW133205   2.242  10.540   5.907 -2.6307 -1.3727  0.1671
74425SOL    HW233206   2.267  10.471   6.040  0.8608 -0.7362 -0.0530
74426SOL     OW33207   9.990  11.396  13.266 -0.1953 -0.0759 -0.3479
74426SOL    HW133208  10.078  11.392  13.302 -0.0132 -0.0840 -0.7954
74426SOL    HW233209   9.937  11.433  13.337 -0.0583 -1.1265  0.3232
74427SOL     OW33210   2.813   1.196   6.769 -0.5700  0.0975 -0.0345
74427SOL    HW133211   2.794   1.140   6.844 -0.0347 -0.9813 -0.6925
74427SOL    HW233212   2.892   1.245   6.795 -1.0799  0.6276  0.5646
74428SOL     OW33213   3.857  11.504   4.545  0.3417 -0.1246 -0.3964
74428SOL    HW133214   3.795  11.550   4.488  0.5138  1.7242  0.8060
74428SOL    HW233215   3.879  11.568   4.613  1.5975 -1.6027  0.6720
74429SOL     OW33216   5.678   9.571   2.216 -0.0942  0.3052 -0.0771
74429SOL    HW133217   5.694   9.558   2.310  0.4881 -0.1500 -0.2308
74429SOL    HW233218   5.591   9.609   2.212 -0.8666 -1.3288  0.5548
74430SOL     OW33219   4.982  10.218   1.767  0.4832 -0.0752  0.2403
74430SOL    HW133220   4.985  10.217   1.671  0.5696 -2.1622  0.2099
74430SOL    HW233221   5.004  10.308   1.791 -1.0701  0.9075 -1.7205
74431SOL     OW33222   6.044  11.684   2.531 -0.3260 -0.4876 -0.1324
74431SOL    HW133223   6.010  11.718   2.614 -1.4535  0.8825 -1.0904
74431SOL    HW233224   6.078  11.597   2.552  2.7022  1.1402  2.4930
74432SOL     OW33225  10.554   0.051  10.620  0.4275 -0.0989  0.3446
74432SOL    HW133226  10.544   0.132  10.570 -2.3029 -0.0014  0.9336
74432SOL    HW233227  10.572   0.081  10.710 -3.2084  0.0967  1.1616
74433SOL     OW33228   5.941   6.420   5.679  0.4238  0.5443 -0.7488
74433SOL    HW133229   5.892   6.499   5.700 -1.4100 -0.4295 -1.1473
74433SOL    HW233230   6.030   6.451   5.661 -0.3441  2.5649 -1.3460
74434SOL     OW33231  13.057   0.242  13.031  0.1660  0.3087  0.8379
74434SOL    HW133232  13.133   0.282  12.989  1.4116 -1.8031  0.9229
74434SOL    HW233233  13.089   0.157  13.062 -1.6357  0.3083  2.9355
74435SOL     OW33234   3.102   7.800   7.628 -0.1585  0.2663  0.1861
74435SOL    HW133235   3.152   7.755   7.696 -2.3565 -0.6040  1.3162
74435SOL    HW233236   3.061   7.729   7.578 -1.2065  0.9484  0.0550
74436SOL     OW33237  11.536   8.872  11.866  0.3184  0.2761  0.5512
74436SOL    HW133238  11.530   8.778  11.886  1.2247  0.7592  3.5572
74436SOL    HW233239  11.595   8.876  11.790 -0.6043 -1.6036 -0.3378
74437SOL     OW33240   0.848   5.401   8.638  0.1110  0.7947  0.1864
74437SOL    HW133241   0.846   5.327   8.698  2.0412  0.0887 -0.5430
74437SOL    HW233242   0.768   5.391   8.586 -0.1121 -0.2656  0.6985
74438SOL     OW33243   0.122   7.292   7.056 -0.2347 -0.1418  0.0581
74438SOL    HW133244   0.158   7.377   7.078 -0.8597  0.6693 -1.8020
74438SOL    HW233245   0.158   7.232   7.121  1.7629  1.2005  0.2671
74439SOL     OW33246   6.432  10.152   5.330 -0.1815 -0.8278  0.2888
74439SOL    HW133247   6.457  10.077   5.385  1.4361  0.7260  1.7780
74439SOL    HW233248   6.509  10.208   5.329 -1.3235  0.8269 -0.8601
74440SOL     OW33249   4.226  10.522   3.966 -0.4049 -0.6983 -0.6710
74440SOL    HW133250   4.185  10.472   4.037 -0.9615  0.3806 -0.2083
74440SOL    HW233251   4.241  10.609   4.004 -0.4913 -0.1741 -1.8038
74441SOL     OW33252   6.958   1.133   0.195  0.1713  0.0334 -0.1008
74441SOL    HW133253   6.880   1.175   0.231  0.6970 -0.6658  2.0323
74441SOL    HW233254   6.936   1.040   0.192 -0.2590  0.1312 -2.8397
74442SOL     OW33255  12.418   8.390   9.863  0.2408  0.0057 -0.1570
74442SOL    HW133256  12.479   8.320   9.840  0.5937  0.2529  0.0031
74442SOL    HW233257  12.475   8.462   9.890 -0.0923  0.5624 -0.8960
74443SOL     OW33258   6.658   5.469   0.230  0.3031 -0.8361  0.2803
74443SOL    HW133259   6.654   5.375   0.213 -3.0273 -0.5085 -1.7966
74443SOL    HW233260   6.597   5.483   0.302  0.6332 -0.2420  0.4523
74444SOL     OW33261   9.631  12.463   8.062  0.3725  0.5123 -0.0418
74444SOL    HW133262   9.621  12.368   8.054  1.5287  0.4352 -0.6904
74444SOL    HW233263   9.679  12.476   8.143 -1.0607  0.6540  0.8312
74445SOL     OW33264  12.804   6.875   5.008  0.3287  0.7301 -0.1609
74445SOL    HW133265  12.759   6.956   5.030  1.1359  0.4178  3.1573
74445SOL    HW233266  12.744   6.805   5.034  0.6955  0.2857 -0.4711
74446SOL     OW33267   4.727   3.932   2.971 -0.3582 -0.1487  0.5359
74446SOL    HW133268   4.698   3.900   2.886  2.3125 -0.0687 -0.4948
74446SOL    HW233269   4.723   4.027   2.964 -0.3509 -0.1433  0.6010
74447SOL     OW33270  12.874   3.744  11.051  0.2486 -0.1684  0.3711
74447SOL    HW133271  12.841   3.666  11.096 -0.4122 -0.5985 -0.8147
74447SOL    HW233272  12.964   3.722  11.026  0.7014  0.1603  1.6466
74448SOL     OW33273   7.424   3.376   1.437  0.1677  0.4996 -0.5625
74448SOL    HW133274   7.487   3.400   1.505 -1.1404  2.4102  0.0475
74448SOL    HW233275   7.443   3.436   1.365 -1.2643  1.4662 -0.1641
74449SOL     OW33276   6.570   1.893   0.723  0.2389 -0.1395  0.2877
74449SOL    HW133277   6.616   1.824   0.771 -0.3924  0.0577  1.2153
74449SOL    HW233278   6.512   1.845   0.663  1.0980 -0.3901 -0.3643
74450SOL     OW33279   8.443   6.631   0.378 -0.3857 -0.0007 -0.2246
74450SOL    HW133280   8.374   6.568   0.359 -1.2965  0.8674  0.1383
74450SOL    HW233281   8.457   6.678   0.296  1.1176 -1.4298 -0.8240
74451SOL     OW33282   9.484   6.654  11.492  0.4551 -0.1520 -0.3999
74451SOL    HW133283   9.577   6.657  11.466  0.2724  0.6673 -1.0048
74451SOL    HW233284   9.442   6.602  11.423  0.2564  0.5769 -0.8399
74452SOL     OW33285   9.470  10.955   5.197  0.5903  0.0226 -0.0069
74452SOL    HW133286   9.477  11.047   5.223  1.4764 -0.5571  1.9695
74452SOL    HW233287   9.418  10.915   5.266 -0.1570 -0.9085 -1.0749
74453SOL     OW33288  10.401  10.612   3.095 -0.3184 -0.3484  0.2654
74453SOL    HW133289  10.346  10.641   3.167  0.8326  0.9952  0.6504
74453SOL    HW233290  10.421  10.692   3.046 -0.9684 -1.2065 -1.5072
74454SOL     OW33291  11.441   0.246   0.286  0.6663 -0.4326  0.0031
74454SOL    HW133292  11.526   0.208   0.309  1.6561  1.2455 -0.6623
74454SOL    HW233293  11.395   0.255   0.369  1.5547 -0.4131  0.5058
74455SOL     OW33294   7.044   7.307   7.199 -0.8582 -0.3884  0.3279
74455SOL    HW133295   7.057   7.259   7.118  0.1426 -0.5841  0.5946
74455SOL    HW233296   7.080   7.394   7.182  2.4403 -1.3820  1.5497
74456SOL     OW33297  12.446  11.991   3.131  0.3431 -0.0732 -0.0823
74456SOL    HW133298  12.521  12.050   3.141  0.1079  0.0260  1.3190
74456SOL    HW233299  12.370  12.047   3.142  0.1173 -0.6707  1.6602
74457SOL     OW33300  11.302   5.316  11.586 -0.0451 -0.0404 -0.1804
74457SOL    HW133301  11.368   5.365  11.635  1.0144  0.1245 -1.7018
74457SOL    HW233302  11.271   5.378  11.520  0.3935 -0.9843 -1.3183
74458SOL     OW33303   8.870   2.927  11.669  0.2177  0.5771  0.5028
74458SOL    HW133304   8.828   2.889  11.747 -0.2516  0.5747  0.2539
74458SOL    HW233305   8.919   2.854  11.630  2.4139  1.1063  2.0707
74459SOL     OW33306   4.870   4.234   4.461 -0.4106 -0.0459  0.0797
74459SOL    HW133307   4.934   4.301   4.483  1.3680 -0.9750 -1.8969
74459SOL    HW233308   4.835   4.262   4.376  0.2052 -1.4474 -0.6735
74460SOL     OW33309  12.111   7.256   3.206  0.1019  0.2242 -0.6307
74460SOL    HW133310  12.082   7.327   3.263 -0.5045  1.2634 -2.1622
74460SOL    HW233311  12.168   7.298   3.142 -2.8531  0.1049 -3.6313
74461SOL     OW33312  12.618   1.192   3.593  0.0126  0.0222 -0.1527
74461SOL    HW133313  12.589   1.168   3.505 -0.3380 -0.3816  0.0645
74461SOL    HW233314  12.712   1.180   3.592 -0.0732 -0.6641 -0.2678
74462SOL     OW33315  13.314   6.614   2.319 -0.3113  0.8255  0.6200
74462SOL    HW133316  13.278   6.536   2.362  0.1113  0.5189  0.4179
74462SOL    HW233317  13.331   6.586   2.229  1.2670  0.7012  0.9340
74463SOL     OW33318   1.869   6.289   1.985  0.3753 -0.2768  0.0004
74463SOL    HW133319   1.777   6.294   2.011  0.9220  0.4584  1.9219
74463SOL    HW233320   1.881   6.366   1.928 -0.4899 -1.1388 -1.4234
74464SOL     OW33321   1.677  11.611   7.914  0.4063 -0.5230 -0.4720
74464SOL    HW133322   1.609  11.634   7.851  0.2121  0.7865  0.1750
74464SOL    HW233323   1.722  11.694   7.933  2.0785 -1.3289 -0.7476
74465SOL     OW33324  12.397   4.646   4.423  0.0413 -0.7166 -0.0515
74465SOL    HW133325  12.454   4.696   4.481 -1.2651 -0.2029  0.8273
74465SOL    HW233326  12.413   4.683   4.336  0.7731 -0.3413  0.2381
74466SOL     OW33327   3.039  12.108  11.808 -0.7278  1.0343  0.1670
74466SOL    HW133328   3.096  12.184  11.816  2.0293 -0.8705 -0.0714
74466SOL    HW233329   3.010  12.090  11.897  4.5959 -1.7288  1.7963
74467SOL     OW33330   1.170   4.160   3.563 -0.1332 -0.1422  0.2032
74467SOL    HW133331   1.193   4.251   3.543  1.1363 -0.5114 -0.0795
74467SOL    HW233332   1.251   4.111   3.553 -0.8782 -1.3876 -0.0297
74468SOL     OW33333   8.194   0.616   4.928 -0.3749 -0.1695  0.2408
74468SOL    HW133334   8.180   0.704   4.962 -3.4617 -0.7475  0.8147
74468SOL    HW233335   8.200   0.627   4.834 -1.1516  0.6278  0.2776
74469SOL     OW33336   9.442   8.388   3.311 -0.2691  0.1554 -0.1218
74469SOL    HW133337   9.492   8.376   3.230 -1.2922  1.9036 -1.0799
74469SOL    HW233338   9.360   8.430   3.283 -0.2963  1.6113  1.8945
74470SOL     OW33339   6.497   3.662   3.141 -0.4062  0.2782  0.8564
74470SOL    HW133340   6.549   3.731   3.182 -1.5656  1.5210  0.3064
74470SOL    HW233341   6.518   3.668   3.048 -0.0787 -0.5252  0.8672
74471SOL     OW33342   8.752  11.418   9.698  0.1851  0.2035  0.1287
74471SOL    HW133343   8.763  11.485   9.631 -1.8891 -0.8495 -1.3976
74471SOL    HW233344   8.840  11.385   9.714  0.9795  1.8602 -0.6071
74472SOL     OW33345   0.056  10.439  10.332 -0.0501  0.3470 -0.0008
74472SOL    HW133346   0.152  10.436  10.324 -0.0487 -0.6741  0.2259
74472SOL    HW233347   0.029  10.347  10.325 -1.1241  0.7364 -1.3191
74473SOL     OW33348   0.868   2.149  11.080  0.2683 -0.2230 -0.1106
74473SOL    HW133349   0.926   2.081  11.046 -0.3596 -0.6596 -0.3167
74473SOL    HW233350   0.833   2.193  11.002  1.8968  1.4211  0.0124
74474SOL     OW33351   1.760  12.351   5.356 -0.3721  0.0407 -0.5857
74474SOL    HW133352   1.721  12.371   5.441  4.5556 -0.2722  2.1011
74474SOL    HW233353   1.796  12.434   5.325 -1.3418 -0.0335 -2.0256
74475SOL     OW33354   5.836   5.827   2.709  0.1439 -0.1443  0.2145
74475SOL    HW133355   5.843   5.731   2.709 -0.3090 -0.1900 -0.8241
74475SOL    HW233356   5.860   5.852   2.798  2.9537 -1.0184 -0.1716
74476SOL     OW33357   2.263   8.314   8.321 -0.3715  0.5392 -0.6605
74476SOL    HW133358   2.215   8.234   8.301  1.1534 -1.1494  1.8911
74476SOL    HW233359   2.195   8.382   8.328 -1.9912 -1.0201 -0.5694
74477SOL     OW33360   6.774  11.966  12.338 -0.3390  0.2260 -0.2767
74477SOL    HW133361   6.780  11.873  12.319 -0.5878 -0.1682  1.4582
74477SOL    HW233362   6.717  11.972  12.415 -0.5738  1.8331 -0.5356
74478SOL     OW33363   3.146   8.248   9.821  0.1527  0.0624 -0.3983
74478SOL    HW133364   3.230   8.284   9.849  1.1762 -3.3656  1.5297
74478SOL    HW233365   3.086   8.268   9.893  0.4839 -1.0715  0.2292
74479SOL     OW33366   7.639  10.804   2.216  0.1002 -0.2196  0.0506
74479SOL    HW133367   7.692  10.881   2.236 -1.0579  0.5944  0.0894
74479SOL    HW233368   7.549  10.836   2.216 -0.2812 -1.1495 -1.8802
74480SOL     OW33369   5.984   9.249   7.265  0.3174 -0.2183  0.2540
74480SOL    HW133370   6.023   9.317   7.211 -3.8620  0.6122 -2.1668
74480SOL    HW233371   5.967   9.293   7.349  1.6879  0.2728  0.2996
74481SOL     OW33372   8.817  12.753  11.595 -1.0157  0.6887 -0.0630
74481SOL    HW133373   8.890  12.790  11.545 -2.8031  0.3390 -3.1820
74481SOL    HW233374   8.835  12.659  11.598 -1.6613  0.4837 -1.5822
74482SOL     OW33375   5.045   9.424   0.035 -0.0972 -0.4017  0.1584
74482SOL    HW133376   5.039   9.473   0.118  0.5109  1.8434 -1.0274
74482SOL    HW233377   4.955   9.422   0.002 -0.1515 -0.1937  0.2871
74483SOL     OW33378   0.914   0.230   1.707 -0.2317 -0.1134  0.3032
74483SOL    HW133379   0.853   0.268   1.770 -2.6813 -0.7163 -1.5124
74483SOL    HW233380   0.921   0.295   1.637 -1.4298 -1.3137 -1.0141
74484SOL     OW33381  10.039  10.270   7.347 -0.1024  0.2416 -0.0340
74484SOL    HW133382   9.955  10.304   7.379  0.8660  2.9088 -0.0965
74484SOL    HW233383  10.063  10.329   7.276  2.4849  0.4395  0.9047
74485SOL     OW33384  10.625   1.737   4.979 -0.6857  0.2794 -0.2644
74485SOL    HW133385  10.708   1.773   4.950 -0.1403 -0.1332  0.7427
74485SOL    HW233386  10.564   1.811   4.976  0.3022  1.1991  1.3331
74486SOL     OW33387  11.398  12.642   3.820  0.0422  0.0553  0.0558
74486SOL    HW133388  11.317  12.670   3.864  1.0441  1.8792  0.8414
74486SOL    HW233389  11.381  12.551   3.796 -2.2966  0.4058  0.0665
74487SOL     OW33390   0.745   4.709   8.858  0.3925 -0.0339  0.3439
74487SOL    HW133391   0.650   4.709   8.856  0.3823 -0.3261  0.6823
74487SOL    HW233392   0.771   4.697   8.766  0.1125  0.3937  0.2045
74488SOL     OW33393   1.922   4.930   4.539 -0.9703  0.2723 -0.0461
74488SOL    HW133394   1.871   4.955   4.616 -0.8365  0.0818  0.1063
74488SOL    HW233395   2.012   4.931   4.569 -0.9899 -0.8425  0.1012
74489SOL     OW33396  12.543   2.280   3.209  0.4722 -0.3451  0.2720
74489SOL    HW133397  12.497   2.362   3.224  0.9704  0.0197 -0.1715
74489SOL    HW233398  12.576   2.254   3.295  1.4077  0.5796  0.2125
74490SOL     OW33399  11.538   6.016   7.326 -0.1772  0.3341  0.2073
74490SOL    HW133400  11.554   6.003   7.419 -3.3999  2.5513  1.2372
74490SOL    HW233401  11.580   6.099   7.306  1.3384 -0.5885 -0.6592
74491SOL     OW33402   5.208  10.601   4.858 -0.4180 -0.5683  0.3159
74491SOL    HW133403   5.303  10.586   4.859 -0.2786  0.0970 -0.9639
74491SOL    HW233404   5.175  10.535   4.797 -0.9485 -1.5088  1.5567
74492SOL     OW33405   9.445  11.835  12.394 -0.2085  0.1534 -0.2327
74492SOL    HW133406   9.412  11.860  12.480  0.2357 -0.2614  0.0622
74492SOL    HW233407   9.490  11.752  12.408 -1.0231 -0.4584 -1.0545
74493SOL     OW33408   1.236   9.927  11.848  0.2387  0.2753  0.6258
74493SOL    HW133409   1.210  10.018  11.861  1.3933  0.7754 -0.4148
74493SOL    HW233410   1.295   9.929  11.773  0.2493 -1.3420  0.5594
74494SOL     OW33411   5.026   2.077  13.138 -0.0098  0.0214  0.5914
74494SOL    HW133412   4.968   2.060  13.212 -0.6959  1.1572  0.3361
74494SOL    HW233413   5.008   2.168  13.114 -0.3358 -0.5355 -1.4363
74495SOL     OW33414   6.911   7.184   5.916 -0.1335 -0.9885 -0.2047
74495SOL    HW133415   6.910   7.254   5.850  2.2346 -1.3638 -0.7325
74495SOL    HW233416   6.884   7.106   5.868  0.1179 -0.9880 -0.3464
74496SOL     OW33417   4.321   0.772  13.271 -0.0903 -0.1890  0.1638
74496SOL    HW133418   4.297   0.693  13.224 -0.1775  1.0922 -2.1201
74496SOL    HW233419   4.414   0.784  13.251 -0.9393  2.3513 -3.0090
74497SOL     OW33420   9.145   3.634   3.497  0.1141 -0.1937 -0.7416
74497SOL    HW133421   9.220   3.682   3.463  0.7101 -1.0885 -0.7328
74497SOL    HW233422   9.079   3.640   3.427  0.7048 -0.5773 -1.3403
74498SOL     OW33423   3.291  12.080   7.638 -0.5514 -0.2749  0.2994
74498SOL    HW133424   3.322  12.007   7.691  0.1407 -0.1298  0.0966
74498SOL    HW233425   3.364  12.101   7.580 -0.9100  0.2780  0.0396
74499SOL     OW33426   9.399  11.278  11.504  0.4181 -0.1287  0.2664
74499SOL    HW133427   9.321  11.225  11.487  1.7321 -1.8484 -0.7493
74499SOL    HW233428   9.418  11.263  11.597  0.2554 -0.7168  0.2074
74500SOL     OW33429   3.060   6.480   0.594 -0.6913  0.3080  0.0264
74500SOL    HW133430   2.973   6.445   0.614 -1.2399  1.7359  0.2248
74500SOL    HW233431   3.109   6.470   0.675 -0.4806 -0.9816 -0.2356
74501SOL     OW33432  11.637   0.546   4.639  0.5876  0.1618  0.1967
74501SOL    HW133433  11.640   0.616   4.574 -0.0667 -1.8977 -2.2658
74501SOL    HW233434  11.629   0.590   4.723 -1.1256  2.9968 -1.3061
74502SOL     OW33435   1.614   4.550   1.434  0.2164 -0.5148 -0.2294
74502SOL    HW133436   1.543   4.487   1.426 -0.3655  0.1367 -0.2777
74502SOL    HW233437   1.677   4.525   1.366  0.1869 -1.2776  0.0144
74503SOL     OW33438   9.256   4.063  11.160 -0.2545 -0.2177 -0.2034
74503SOL    HW133439   9.311   4.139  11.182 -2.0995  1.3820 -0.7744
74503SOL    HW233440   9.299   4.022  11.086  0.4540  0.6679 -0.2989
74504SOL     OW33441   3.497   7.108   8.095 -0.2168  0.1812 -0.1676
74504SOL    HW133442   3.583   7.093   8.055 -0.0591 -3.9794  1.3044
74504SOL    HW233443   3.438   7.122   8.021  1.1968 -0.1010 -1.3925
74505SOL     OW33444   6.780  11.925   6.083  0.1999 -0.2367 -0.0666
74505SOL    HW133445   6.710  11.924   6.149 -0.3706  2.3281 -0.5456
74505SOL    HW233446   6.833  12.001   6.106  0.6212  0.0652 -1.9300
74506SOL     OW33447  12.919  12.838   7.765  0.3445 -0.6682  0.0208
74506SOL    HW133448  12.847  12.776   7.752 -1.4767  0.9808  1.5467
74506SOL    HW233449  12.916  12.895   7.688 -0.7718  0.0608  0.5670
74507SOL     OW33450  13.197   0.741  10.425 -0.0953 -0.5594  0.0820
74507SOL    HW133451  13.136   0.668  10.414 -0.8117 -0.0389  0.4773
74507SOL    HW233452  13.207   0.749  10.520  0.6681 -0.6949  0.0164
74508SOL     OW33453   8.691  12.443   7.402 -0.0599  0.2989  0.1023
74508SOL    HW133454   8.643  12.525   7.393  0.8999  1.2305  2.6128
74508SOL    HW233455   8.628  12.382   7.440  0.5795  1.5786  3.5929
74509SOL     OW33456   3.239   0.098  10.494 -0.7618  0.0019 -0.4171
74509SOL    HW133457   3.147   0.078  10.478 -0.7403 -2.5359  1.8770
74509SOL    HW233458   3.240   0.153  10.572 -0.3370 -0.7136  0.0997
74510SOL     OW33459   7.267  11.980  10.004 -0.2020  0.1221  0.4915
74510SOL    HW133460   7.267  11.885   9.998  0.3803  0.0891  0.9696
74510SOL    HW233461   7.356  12.003  10.030 -0.4065  0.7789  0.6383
74511SOL     OW33462  13.182   7.301   1.956  0.7298 -1.0600  0.1433
74511SOL    HW133463  13.102   7.249   1.956 -0.0658  0.1387 -0.5276
74511SOL    HW233464  13.228   7.273   2.036 -1.5577  0.0217  1.9711
74512SOL     OW33465   5.493  12.185   1.269  0.5202 -0.7228  0.2516
74512SOL    HW133466   5.480  12.109   1.212 -0.9184  1.6201 -2.9015
74512SOL    HW233467   5.404  12.217   1.286  0.9797  2.7599 -2.5482
74513SOL     OW33468   9.745  12.276   6.364 -0.5153  0.1615  0.0480
74513SOL    HW133469   9.824  12.253   6.413 -1.0313 -1.9562 -0.0194
74513SOL    HW233470   9.717  12.360   6.401  1.9741  1.2372 -0.2376
74514SOL     OW33471   1.604   0.384   7.953  0.4222 -0.6159 -0.5321
74514SOL    HW133472   1.552   0.308   7.925 -0.2192 -0.3675 -0.0310
74514SOL    HW233473   1.565   0.410   8.037  2.4697 -1.5137  0.7633
74515SOL     OW33474  12.233  12.915  10.054 -0.3443 -0.2495  0.0364
74515SOL    HW133475  12.197  12.858  10.121 -0.9187 -2.1803 -1.7957
74515SOL    HW233476  12.327  12.909  10.065 -0.4419 -0.3411  0.8346
74516SOL     OW33477  11.953   9.383   3.631 -0.2104 -0.2057  0.1181
74516SOL    HW133478  11.922   9.443   3.563 -1.6029 -0.9318  0.0639
74516SOL    HW233479  11.994   9.311   3.583  0.9346  0.4094  0.1586
74517SOL     OW33480  11.907   5.070  12.182  0.2797  0.0397 -0.2535
74517SOL    HW133481  11.983   5.013  12.189 -0.2748 -1.1921 -2.8580
74517SOL    HW233482  11.938   5.155  12.211  2.4035 -0.6278 -0.3812
74518SOL     OW33483  11.116   3.483   2.473  0.3251  0.0926  0.2452
74518SOL    HW133484  11.111   3.401   2.523 -3.1593  0.0002 -0.0212
74518SOL    HW233485  11.206   3.486   2.440  1.1308 -2.6047  1.9010
74519SOL     OW33486   5.523  11.061   5.174 -0.2667  0.3583  0.9571
74519SOL    HW133487   5.577  11.046   5.251  0.5184  0.8860  0.5186
74519SOL    HW233488   5.496  11.153   5.180  0.1029  0.5102  0.4285
74520SOL     OW33489   7.621  10.467   7.753  0.3121 -0.1546 -0.3993
74520SOL    HW133490   7.576  10.415   7.686  0.7240 -0.8786 -0.1182
74520SOL    HW233491   7.713  10.468   7.725  0.0772  1.8361 -1.3167
74521SOL     OW33492   0.930   0.096   9.205 -0.1390 -0.5216 -0.2416
74521SOL    HW133493   0.904   0.097   9.297  4.4496  1.1594  1.3065
74521SOL    HW233494   0.941   0.003   9.185 -2.8228 -1.0362  0.1826
74522SOL     OW33495   4.483   7.737   0.060 -0.0300  0.2410  0.4410
74522SOL    HW133496   4.500   7.752  -0.033 -1.2556 -1.4164 -0.1065
74522SOL    HW233497   4.405   7.789   0.079 -0.1144  0.1293  0.3985
74523SOL     OW33498   2.329  12.606  10.251  0.1318  0.5546  0.2503
74523SOL    HW133499   2.283  12.543  10.307 -2.2130  0.7356 -1.3288
74523SOL    HW233500   2.287  12.690  10.270 -0.2264  0.7309 -1.2183
74524SOL     OW33501   0.669   4.647   0.453 -0.6302 -0.0225  0.3066
74524SOL    HW133502   0.704   4.735   0.443 -1.1538  0.2578  0.9120
74524SOL    HW233503   0.667   4.631   0.547 -0.6732 -0.6278  0.2130
74525SOL     OW33504   0.135   9.142   2.848 -0.4725 -0.3069 -0.0747
74525SOL    HW133505   0.223   9.162   2.817 -0.3489 -0.0405  0.4434
74525SOL    HW233506   0.125   9.048   2.834  0.2881 -0.5339  0.8259
74526SOL     OW33507  11.189   5.227   3.848  0.3959  0.2189 -0.4929
74526SOL    HW133508  11.113   5.171   3.832 -0.1058  0.5826  0.5491
74526SOL    HW233509  11.263   5.166   3.848  0.1694 -0.0849 -1.9021
74527SOL     OW33510   5.944   8.557   8.753  0.4067 -0.3154  0.1430
74527SOL    HW133511   5.994   8.631   8.787 -0.0288  0.4616 -0.8469
74527SOL    HW233512   5.978   8.481   8.799  2.6557  0.1391 -0.6598
74528SOL     OW33513   2.525   1.467   3.892 -0.2496 -0.3776  0.3344
74528SOL    HW133514   2.569   1.454   3.808  0.3623 -0.4164  0.6592
74528SOL    HW233515   2.592   1.503   3.950 -1.1074  1.3383  0.3355
74529SOL     OW33516   3.709   0.558   5.518 -0.6969  0.3141 -0.4658
74529SOL    HW133517   3.694   0.628   5.454  0.4145  1.5748  0.5995
74529SOL    HW233518   3.737   0.604   5.598 -0.9728 -1.2839  0.5941
74530SOL     OW33519   8.476   1.864   4.854 -0.3086 -0.2106  0.3211
74530SOL    HW133520   8.501   1.775   4.828 -1.1446  0.0044 -1.3004
74530SOL    HW233521   8.380   1.865   4.846 -0.3333  0.7681  0.6057
74531SOL     OW33522   3.317  13.034   8.279  0.0335 -0.3462  0.2748
74531SOL    HW133523   3.327  13.123   8.246  0.7132  0.7371  3.0962
74531SOL    HW233524   3.384  12.984   8.233  0.5022  0.8851 -0.4387
74532SOL     OW33525   8.087   6.204   0.593 -0.2145  0.5110 -0.0668
74532SOL    HW133526   8.011   6.258   0.615 -0.4305  0.3371 -0.3874
74532SOL    HW233527   8.068   6.118   0.630  1.0203  1.1374  2.2522
74533SOL     OW33528  11.329   7.883   2.515  0.5057  0.3840  0.3119
74533SOL    HW133529  11.262   7.932   2.467  2.4990  2.4207 -0.5445
74533SOL    HW233530  11.338   7.801   2.466 -0.3618  0.6763 -0.3630
74534SOL     OW33531  10.432   1.581  11.613  0.5507 -0.3628  0.1343
74534SOL    HW133532  10.428   1.487  11.596 -0.7544 -0.5488  1.3008
74534SOL    HW233533  10.368   1.596  11.682 -0.5177  1.6449 -1.1896
74535SOL     OW33534   6.272   5.336   4.619  0.5025 -0.4767  0.0829
74535SOL    HW133535   6.316   5.272   4.675 -0.2887 -0.4311  0.7632
74535SOL    HW233536   6.262   5.292   4.535 -0.9025 -1.6261  0.8192
74536SOL     OW33537   7.850  11.848  13.128 -0.3477 -0.0464 -0.3174
74536SOL    HW133538   7.894  11.774  13.087  0.2437  1.3553 -2.3346
74536SOL    HW233539   7.765  11.854  13.084 -0.3330  0.5707 -0.2707
74537SOL     OW33540   4.361   0.987   3.686  0.0156 -0.3295  0.5063
74537SOL    HW133541   4.393   1.047   3.619 -0.7420  0.6961  1.0467
74537SOL    HW233542   4.438   0.968   3.740 -0.2271  2.1065  1.7987
74538SOL     OW33543   4.985   5.984  11.511 -0.4730 -0.0065 -0.0103
74538SOL    HW133544   4.993   5.902  11.463 -0.0803  0.2850 -0.4532
74538SOL    HW233545   5.049   5.977  11.582 -1.1657 -0.5038  0.5745
74539SOL     OW33546   9.946  11.141   9.511  0.5715 -0.1095  0.0115
74539SOL    HW133547   9.886  11.143   9.437 -0.0668 -2.3309  0.3780
74539SOL    HW233548   9.889  11.131   9.587  1.2952 -3.2400  0.2885
74540SOL     OW33549   8.748   1.412   3.395  0.1198 -0.0709 -0.4996
74540SOL    HW133550   8.737   1.390   3.302 -1.2068 -1.4881 -0.0632
74540SOL    HW233551   8.693   1.489   3.408  0.3290  0.1480 -0.8945
74541SOL     OW33552  12.523   9.692   2.470 -0.0858 -0.3328 -0.1536
74541SOL    HW133553  12.448   9.741   2.435  1.2340  0.7908 -1.5389
74541SOL    HW233554  12.543   9.628   2.402 -0.9243 -1.9285  1.0470
74542SOL     OW33555   4.753  12.875   7.823  0.1122 -0.2510  0.5246
74542SOL    HW133556   4.771  12.786   7.794 -0.0760 -0.6362  1.5363
74542SOL    HW233557   4.830  12.926   7.795 -0.5892 -0.3142 -1.6917
74543SOL     OW33558   0.276   4.465   0.445 -0.5775  0.5259 -0.5626
74543SOL    HW133559   0.349   4.428   0.397 -0.7536  0.6120 -0.9021
74543SOL    HW233560   0.212   4.394   0.451 -1.3017  1.0160 -2.0137
74544SOL     OW33561  12.579   4.727   8.995  0.0963  0.6687  0.4268
74544SOL    HW133562  12.571   4.744   9.089  2.2445 -1.7457  1.1735
74544SOL    HW233563  12.657   4.672   8.987 -0.6595 -0.1698 -2.6452
74545SOL     OW33564   6.556  10.988   2.363 -0.1572  0.2912  0.4002
74545SOL    HW133565   6.581  10.962   2.452 -0.1070 -1.5087 -0.0916
74545SOL    HW233566   6.496  11.061   2.375 -0.4066 -0.1252  1.9247
74546SOL     OW33567   2.687   1.598   3.007 -0.0105 -0.6772  0.5383
74546SOL    HW133568   2.607   1.562   3.044  0.1243 -0.4946  1.0138
74546SOL    HW233569   2.657   1.661   2.942 -0.2791  0.3510  1.6250
74547SOL     OW33570   1.369   2.693   4.752  0.1258  0.1064 -0.2021
74547SOL    HW133571   1.407   2.630   4.691  0.7922 -0.7049  1.0283
74547SOL    HW233572   1.415   2.679   4.834 -0.3143  1.6159  0.3426
74548SOL     OW33573   0.928   8.482   4.696  0.8621  0.0688  0.4594
74548SOL    HW133574   0.869   8.496   4.770 -0.8053 -0.5311 -0.6816
74548SOL    HW233575   0.961   8.393   4.709  1.1482  0.2315  0.8549
74549SOL     OW33576   0.722   8.647   6.461  1.1952  0.1394  0.4488
74549SOL    HW133577   0.717   8.741   6.472 -1.0601  0.2182 -0.7183
74549SOL    HW233578   0.643   8.613   6.503 -0.1013 -0.8011 -2.4955
74550SOL     OW33579   7.231   7.742  11.214  0.1749  0.1408  0.0915
74550SOL    HW133580   7.196   7.801  11.281  1.1980 -0.3420  1.0898
74550SOL    HW233581   7.176   7.664  11.221  1.2429 -0.5456  1.5334
74551SOL     OW33582   9.558   2.048   5.749 -0.1352  0.0944  0.1319
74551SOL    HW133583   9.484   1.987   5.753  0.5307 -0.7217  0.3558
74551SOL    HW233584   9.587   2.045   5.658 -1.0904  1.3108 -0.2385
74552SOL     OW33585   4.861   8.364   3.162 -0.5166 -0.0899  0.5567
74552SOL    HW133586   4.825   8.290   3.211 -0.7749 -0.5294 -0.2795
74552SOL    HW233587   4.953   8.341   3.149 -0.2741  0.3521  1.4231
74553SOL     OW33588  12.819   4.586   9.013 -0.2728 -0.5477  0.2387
74553SOL    HW133589  12.909   4.556   9.002 -0.0110  0.5626 -0.8992
74553SOL    HW233590  12.773   4.553   8.936 -1.1669 -2.1703  1.4263
74554SOL     OW33591   6.221   3.554   1.588 -0.0260  0.9423  0.1187
74554SOL    HW133592   6.130   3.580   1.571 -0.1913  0.7752  0.7267
74554SOL    HW233593   6.238   3.484   1.524 -0.6126  0.3783  0.5691
74555SOL     OW33594  10.000   1.864   4.877  0.0770  0.2448 -0.8091
74555SOL    HW133595  10.068   1.863   4.944  1.0332 -0.2315 -1.7533
74555SOL    HW233596  10.028   1.932   4.815 -0.1995 -0.1020 -1.3223
74556SOL     OW33597   6.101  11.646   8.245 -0.3506  0.8978 -0.7820
74556SOL    HW133598   6.171  11.711   8.248  0.9500 -0.3996 -1.6826
74556SOL    HW233599   6.082  11.627   8.337  3.1918 -1.4530 -0.3096
74557SOL     OW33600   9.728  11.415  12.642 -0.3433  0.1645  0.4342
74557SOL    HW133601   9.719  11.474  12.717  2.8852 -0.3192  1.3662
74557SOL    HW233602   9.782  11.343  12.675 -1.3911 -1.6599 -1.5819
74558SOL     OW33603  11.429   9.473   7.195 -0.2198 -0.0136  0.0789
74558SOL    HW133604  11.393   9.470   7.284 -1.5731  1.4837 -0.3782
74558SOL    HW233605  11.492   9.545   7.197 -0.8705  0.5773 -0.3702
74559SOL     OW33606   8.035   2.727   1.276  0.7109 -0.3178 -0.2079
74559SOL    HW133607   8.021   2.654   1.217  0.6553 -0.0272 -0.5605
74559SOL    HW233608   8.127   2.720   1.303  0.3085 -1.3862  0.9585
74560SOL     OW33609  12.567   2.204   0.230  0.0367 -0.2068  0.1277
74560SOL    HW133610  12.474   2.185   0.221  0.0521  0.4269 -1.9146
74560SOL    HW233611  12.606   2.123   0.263 -0.9210 -1.2040 -1.1324
74561SOL     OW33612   4.169  11.281   2.570 -0.5008 -0.0390  0.0783
74561SOL    HW133613   4.164  11.361   2.622 -2.6952 -1.6006  2.5615
74561SOL    HW233614   4.262  11.259   2.569 -0.1391  1.2505  1.4685
74562SOL     OW33615  11.822   3.234   5.218  0.2462 -0.2205  0.5407
74562SOL    HW133616  11.866   3.303   5.267  0.4477 -0.7703  1.1616
74562SOL    HW233617  11.831   3.156   5.273 -1.1608 -0.4415  0.5076
74563SOL     OW33618   6.897  12.210   5.526  0.1355 -0.1200  0.2750
74563SOL    HW133619   6.973  12.246   5.479  0.2516 -0.0118  0.5441
74563SOL    HW233620   6.876  12.129   5.480 -0.4761  0.5661 -0.6865
74564SOL     OW33621  10.941   2.365   3.324 -0.0586 -0.4889 -0.4682
74564SOL    HW133622  10.853   2.333   3.306  0.2020 -0.0234 -2.9592
74564SOL    HW233623  10.998   2.289   3.312  0.0003 -0.5243  0.0005
74565SOL     OW33624  10.226  13.005  12.082 -0.0398 -0.1936 -0.0163
74565SOL    HW133625  10.175  13.029  12.005  1.6134  2.2824 -0.4754
74565SOL    HW233626  10.164  13.013  12.155 -0.5378  2.1909 -0.6089
74566SOL     OW33627   3.574   1.521   8.160  0.2512 -0.8839 -0.0372
74566SOL    HW133628   3.589   1.615   8.152 -0.9687 -0.6186  0.4870
74566SOL    HW233629   3.653   1.480   8.124  1.6118  0.3492  1.4067
74567SOL     OW33630   4.196   0.412   1.453  0.1727  0.6317  0.3697
74567SOL    HW133631   4.105   0.418   1.425  0.5635  0.9442 -0.8808
74567SOL    HW233632   4.238   0.489   1.415  1.3136 -0.3606 -0.4741
74568SOL     OW33633   4.733   6.386   9.711 -0.4528  0.4970  0.1501
74568SOL    HW133634   4.739   6.310   9.769 -1.1052  0.4778  0.2035
74568SOL    HW233635   4.639   6.397   9.695 -0.4089  1.5874  0.5347
74569SOL     OW33636   9.440   0.901   6.967  0.3855  0.0796  0.0224
74569SOL    HW133637   9.447   0.814   7.007  0.5720 -1.0523 -2.2971
74569SOL    HW233638   9.370   0.892   6.903  0.4393  1.6398 -0.2938
74570SOL     OW33639   2.107  12.317   2.305 -0.6906 -0.1830 -0.2132
74570SOL    HW133640   2.171  12.249   2.285  0.2948  0.9670 -1.1640
74570SOL    HW233641   2.030  12.293   2.254 -0.6047 -0.9478  0.0008
74571SOL     OW33642   8.402   9.355  10.647 -0.0912  1.0949  0.2108
74571SOL    HW133643   8.428   9.436  10.692  2.5412  1.1285 -1.1848
74571SOL    HW233644   8.435   9.366  10.558 -1.2693 -0.8029 -0.5114
74572SOL     OW33645   0.910  11.377   5.339 -0.2667  0.2452 -0.2385
74572SOL    HW133646   0.848  11.304   5.348  0.8322 -0.7595 -0.4870
74572SOL    HW233647   0.991  11.344   5.380 -0.1044  1.8151  0.7931
74573SOL     OW33648   7.692   8.325   2.807 -0.2881  0.7368 -0.5113
74573SOL    HW133649   7.671   8.321   2.714  1.7315 -0.5392 -0.9572
74573SOL    HW233650   7.786   8.343   2.811 -0.6631  2.8199  1.3402
74574SOL     OW33651   0.066   5.176   9.497 -0.2731 -0.2275 -0.3178
74574SOL    HW133652  -0.012   5.139   9.539  0.2367  0.1215  0.9632
74574SOL    HW233653   0.030   5.237   9.432 -1.0748 -0.8828 -0.5115
74575SOL     OW33654  11.973   1.080   7.877 -0.8821 -0.8695  0.0323
74575SOL    HW133655  12.016   1.080   7.963 -0.5329 -0.6410 -0.1374
74575SOL    HW233656  11.880   1.079   7.897 -0.7969 -1.5359  0.4046
74576SOL     OW33657   9.198  11.662   2.768  0.1137  0.3576 -0.8725
74576SOL    HW133658   9.219  11.571   2.746 -0.6376  0.1897 -0.9293
74576SOL    HW233659   9.233  11.674   2.856  1.3196  0.4024 -1.3346
74577SOL     OW33660   1.078  12.544   5.941 -0.1082 -0.0817  0.2190
74577SOL    HW133661   1.168  12.537   5.910  0.9402  0.4460  2.8276
74577SOL    HW233662   1.037  12.463   5.912  1.9502 -1.5014  0.9973
74578SOL     OW33663   1.526   9.628   7.343 -0.0050 -0.1240 -0.1451
74578SOL    HW133664   1.514   9.681   7.422 -0.0816 -0.0810 -0.1861
74578SOL    HW233665   1.438   9.620   7.306  0.0900  0.1577 -0.4232
74579SOL     OW33666  13.133   3.086  12.716 -0.7414 -0.0136  0.3110
74579SOL    HW133667  13.040   3.066  12.721 -0.4582 -2.5499 -2.1717
74579SOL    HW233668  13.145   3.125  12.629  0.5134  0.4216  0.6437
74580SOL     OW33669  11.479   6.141   9.667  0.3234 -0.4149 -0.0702
74580SOL    HW133670  11.547   6.140   9.735 -0.9790  0.0094  1.2776
74580SOL    HW233671  11.400   6.110   9.711 -0.1945 -1.7762 -1.8404
74581SOL     OW33672   2.778   6.584   2.398 -0.4298 -0.0872  0.2961
74581SOL    HW133673   2.864   6.625   2.395 -0.3755 -0.2028  0.2602
74581SOL    HW233674   2.738   6.607   2.314 -0.6466  0.4208  0.5334
74582SOL     OW33675   3.836  12.070   3.773 -0.1237  0.2954 -0.5480
74582SOL    HW133676   3.876  12.063   3.686 -0.0143  0.3343 -0.5003
74582SOL    HW233677   3.806  11.981   3.792 -0.2123  0.3015 -0.6563
74583SOL     OW33678   8.947   8.127   9.756  0.4741  0.0069  0.0819
74583SOL    HW133679   9.007   8.202   9.751  0.0191  0.4748  1.2005
74583SOL    HW233680   8.940   8.109   9.850  0.8244 -1.6664 -0.1852
74584SOL     OW33681  12.434  13.103   5.411  0.0522 -0.2151  0.3026
74584SOL    HW133682  12.500  13.158   5.370 -0.3024 -1.0850 -1.5757
74584SOL    HW233683  12.410  13.040   5.342 -0.8124 -1.5773  1.7875
74585SOL     OW33684  10.663  10.875  11.616  0.2587 -0.2238 -0.3741
74585SOL    HW133685  10.682  10.834  11.531  0.1051 -0.0628 -0.4872
74585SOL    HW233686  10.619  10.957  11.593  1.6817  0.6140 -0.1868
74586SOL     OW33687   0.094   9.851   5.418  0.5615 -0.3955 -0.1635
74586SOL    HW133688   0.012   9.812   5.389 -0.7271  0.6827  1.7852
74586SOL    HW233689   0.158   9.780   5.412 -1.0666 -2.0024  0.6457
74587SOL     OW33690   0.230   5.614   5.649  0.4404  0.3703 -0.2429
74587SOL    HW133691   0.293   5.542   5.662 -0.9353 -0.6232  1.2264
74587SOL    HW233692   0.246   5.673   5.723 -0.0367  0.3362 -0.1094
74588SOL     OW33693  10.844  12.434  13.248 -0.2890  0.4576  0.5531
74588SOL    HW133694  10.794  12.366  13.203 -0.2729  0.9520 -0.2323
74588SOL    HW233695  10.932  12.427  13.213 -0.1958  0.6256  0.7534
74589SOL     OW33696  10.695   8.726   4.183 -0.3306 -0.3375 -0.4432
74589SOL    HW133697  10.740   8.651   4.220  0.4261 -0.3018 -1.2468
74589SOL    HW233698  10.630   8.689   4.123  0.7080 -0.3709 -1.5952
74590SOL     OW33699   2.497   6.303   6.596  0.1692 -0.3857  0.4049
74590SOL    HW133700   2.432   6.339   6.536  1.3020  0.0709 -0.5896
74590SOL    HW233701   2.541   6.380   6.633  0.7134 -0.6903  0.4063
74591SOL     OW33702  10.257   8.072   4.485  0.1015  0.4732 -0.3224
74591SOL    HW133703  10.197   8.074   4.559 -0.1628 -1.7164 -0.4152
74591SOL    HW233704  10.203   8.044   4.410  0.9140 -0.1055 -0.7139
74592SOL     OW33705  10.713  11.682  10.792 -0.3346 -0.3097 -0.1018
74592SOL    HW133706  10.692  11.636  10.873  3.0722 -1.3410  0.3402
74592SOL    HW233707  10.753  11.764  10.820 -0.7906  0.1784 -0.8164
74593SOL     OW33708   7.469   2.658  10.048 -0.9379 -0.4773 -1.1642
74593SOL    HW133709   7.494   2.721  10.116 -0.4255 -0.1104 -1.6851
74593SOL    HW233710   7.541   2.595  10.046 -0.5917 -0.0707 -1.8718
74594SOL     OW33711   8.537  13.047   6.287  0.9280  0.0579  0.1998
74594SOL    HW133712   8.554  13.107   6.359  0.8941 -0.5171  0.6998
74594SOL    HW233713   8.442  13.051   6.274  0.7680 -0.7195  0.9973
74595SOL     OW33714   7.950   8.224   5.301  0.4175  0.2917 -0.3175
74595SOL    HW133715   7.940   8.228   5.396 -0.7710 -0.9583 -0.3568
74595SOL    HW233716   8.016   8.156   5.287 -1.7966 -1.9674 -0.4182
74596SOL     OW33717  12.338  10.888  12.741  0.5058 -0.2885 -0.1527
74596SOL    HW133718  12.279  10.843  12.680 -0.0695 -0.1399  0.2880
74596SOL    HW233719  12.280  10.939  12.798  0.9794 -0.9708  0.9735
74597SOL     OW33720   5.456   4.058  11.219 -0.2217  0.1255 -0.4038
74597SOL    HW133721   5.399   4.117  11.170 -0.5143 -0.5465 -0.8820
74597SOL    HW233722   5.401   3.982  11.237  0.5227 -0.5266 -0.8595
74598SOL     OW33723  11.507   9.835  10.617 -0.3402  0.5713 -0.4608
74598SOL    HW133724  11.476   9.745  10.630  0.2980  0.2254 -1.2113
74598SOL    HW233725  11.547   9.859  10.700  0.9832 -0.4691 -0.7632
74599SOL     OW33726   7.291   3.619   5.463  0.0750 -0.0370 -0.1746
74599SOL    HW133727   7.320   3.579   5.545 -0.2840  2.4267  1.2622
74599SOL    HW233728   7.208   3.662   5.485 -0.1348  0.5195 -1.8968
74600SOL     OW33729   1.818   5.141   4.708  0.6791  0.1641 -0.1441
74600SOL    HW133730   1.839   5.213   4.649  1.5699 -0.4065 -0.5403
74600SOL    HW233731   1.883   5.147   4.778  2.0548 -1.4245 -1.2156
74601SOL     OW33732   8.349   8.755   7.586 -0.0100 -0.1677 -0.6255
74601SOL    HW133733   8.326   8.681   7.643 -0.7022  1.3016  1.1052
74601SOL    HW233734   8.444   8.752   7.581 -0.0911 -2.8052 -2.9554
74602SOL     OW33735   9.646  12.131   9.019  0.1137  0.7343  0.0330
74602SOL    HW133736   9.703  12.200   8.984 -0.6506  1.6813  0.5845
74602SOL    HW233737   9.560  12.151   8.983 -0.4159  0.9571  1.3682
74603SOL     OW33738   6.058   2.039   2.578  0.2475 -0.5012 -0.3172
74603SOL    HW133739   6.149   2.040   2.609  0.6343  0.3675 -1.3901
74603SOL    HW233740   6.065   2.012   2.486 -0.0745  3.3682 -1.6562
74604SOL     OW33741   1.864  10.679   3.024 -0.0862 -0.2877  0.2868
74604SOL    HW133742   1.804  10.676   2.949 -1.1136 -2.0496  1.1114
74604SOL    HW233743   1.944  10.719   2.989 -0.3736 -1.4372 -1.8740
74605SOL     OW33744   6.085   8.437   5.834 -0.0368 -0.0750 -0.2357
74605SOL    HW133745   6.047   8.450   5.921 -2.6446 -2.1522 -0.9128
74605SOL    HW233746   6.043   8.505   5.780 -1.0055 -0.8498 -0.4893
74606SOL     OW33747   0.690   9.382   4.306  0.5098 -0.2349  0.2136
74606SOL    HW133748   0.672   9.459   4.359  0.3349 -1.2257  1.6268
74606SOL    HW233749   0.713   9.418   4.220  1.0589  1.4119  1.0028
74607SOL     OW33750   4.109   4.165   3.764  0.0481 -0.3347 -0.4201
74607SOL    HW133751   4.111   4.090   3.705  0.0893 -0.3669 -0.3779
74607SOL    HW233752   4.200   4.176   3.792 -0.1749 -1.1738  0.7072
74608SOL     OW33753  12.750   6.246  12.873  0.1974 -0.6551  0.9835
74608SOL    HW133754  12.797   6.262  12.791  1.2426 -1.1755  1.4614
74608SOL    HW233755  12.692   6.172  12.855  0.6846 -0.9935  0.8125
74609SOL     OW33756   0.631   4.589   5.742 -0.1398 -0.2870  0.0126
74609SOL    HW133757   0.548   4.543   5.731  0.2339 -0.7858 -0.8184
74609SOL    HW233758   0.640   4.642   5.663  1.4167 -2.0182 -1.0750
74610SOL     OW33759   6.726   0.305   6.323  0.2301 -0.2504 -0.3834
74610SOL    HW133760   6.797   0.347   6.370 -0.4121  0.5383 -0.1086
74610SOL    HW233761   6.711   0.223   6.370  0.3755 -0.0132  0.0766
74611SOL     OW33762   3.014   9.636  11.394  0.5775  0.2791  0.2379
74611SOL    HW133763   3.050   9.719  11.364 -0.0199  0.4249 -0.0999
74611SOL    HW233764   3.068   9.569  11.353 -0.0935  0.4760 -1.0261
74612SOL     OW33765   6.553   7.896   8.600 -0.3059  0.2918 -0.0981
74612SOL    HW133766   6.524   7.836   8.531  0.9743 -0.0264 -0.3727
74612SOL    HW233767   6.629   7.941   8.563  1.7337 -1.3749  1.7857
74613SOL     OW33768   1.953   3.460  11.599  0.0897 -0.5677 -0.9982
74613SOL    HW133769   1.888   3.458  11.529  0.4805 -2.6481 -1.3679
74613SOL    HW233770   1.911   3.413  11.672 -0.2990  1.5253  0.2099
74614SOL     OW33771  10.109  11.256  12.408 -0.2327  0.4664 -0.2510
74614SOL    HW133772  10.038  11.216  12.358 -0.1461 -0.1060  0.0748
74614SOL    HW233773  10.109  11.348  12.380 -1.1791  0.5035 -0.1622
74615SOL     OW33774   7.646   4.898   8.855  0.1228 -0.1051 -0.1461
74615SOL    HW133775   7.568   4.858   8.893  0.0883 -1.3814 -1.4758
74615SOL    HW233776   7.616   4.935   8.772  0.3990  1.7554  0.5295
74616SOL     OW33777   6.753   8.498   9.377 -0.6228  0.2676 -0.3994
74616SOL    HW133778   6.725   8.550   9.301 -1.8709 -0.2917 -0.3426
74616SOL    HW233779   6.723   8.549   9.453 -0.0574  0.4448 -0.2886
74617SOL     OW33780   3.323   6.393  12.961  0.0184 -0.1431 -0.2902
74617SOL    HW133781   3.244   6.387  12.907 -1.0514  0.7403  1.0879
74617SOL    HW233782   3.384   6.332  12.921 -0.9781 -0.0714 -2.0367
74618SOL     OW33783   3.643   5.200   0.928 -0.5456  0.4433 -0.4650
74618SOL    HW133784   3.695   5.273   0.895 -3.0177  1.5759 -2.1307
74618SOL    HW233785   3.594   5.169   0.852 -0.3505 -2.3566  0.4274
74619SOL     OW33786  12.607   0.663   8.928 -0.1424  0.6188 -0.2485
74619SOL    HW133787  12.559   0.737   8.965 -1.0719 -0.1940  0.2481
74619SOL    HW233788  12.540   0.597   8.910  0.7328 -0.4401  0.1622
74620SOL     OW33789   9.075   2.569  10.748  0.1720  0.1744 -0.4862
74620SOL    HW133790   8.998   2.520  10.777 -0.1880  0.7015 -0.5290
74620SOL    HW233791   9.051   2.602  10.661 -0.1130  1.5084  0.0623
74621SOL     OW33792  12.521  10.295   1.951  0.5073 -0.4350 -0.0679
74621SOL    HW133793  12.532  10.301   1.856 -1.2411 -1.1028 -0.3487
74621SOL    HW233794  12.570  10.217   1.976 -0.0540 -0.9817 -0.6326
74622SOL     OW33795  10.177   1.384   5.959 -0.2192 -0.2155 -0.1337
74622SOL    HW133796  10.201   1.312   6.017  1.0171  1.1423  1.1169
74622SOL    HW233797  10.245   1.382   5.891 -0.4489 -0.4768 -0.3628
74623SOL     OW33798   9.780  11.532   6.507 -0.1207 -0.2591  0.1065
74623SOL    HW133799   9.783  11.508   6.600  0.7486 -1.1516 -0.1447
74623SOL    HW233800   9.691  11.564   6.494  0.2408  1.5606  1.6562
74624SOL     OW33801  12.247   2.979  12.260  0.8394 -0.0533  0.0517
74624SOL    HW133802  12.231   3.045  12.193  1.9716 -0.7219 -0.9189
74624SOL    HW233803  12.341   2.965  12.257  0.7629 -0.8687  1.0619
74625SOL     OW33804   4.357   8.574  10.658 -0.2750  0.2933  0.3889
74625SOL    HW133805   4.324   8.487  10.680  0.0302  0.1793  0.4047
74625SOL    HW233806   4.412   8.560  10.581 -0.6363  0.5553  0.0777
74626SOL     OW33807   4.423   0.650  10.787 -0.6975  0.0685  0.0887
74626SOL    HW133808   4.450   0.570  10.742  1.0291  0.1119  0.9819
74626SOL    HW233809   4.443   0.720  10.724 -2.7864 -0.1903 -0.9443
74627SOL     OW33810  13.203   4.781   0.440 -0.3708  0.2144 -0.1548
74627SOL    HW133811  13.127   4.811   0.491 -1.1024 -0.5653 -0.7669
74627SOL    HW233812  13.260   4.739   0.504  0.4380  2.3614  0.6467
74628SOL     OW33813   8.429   8.930   4.235 -0.2330 -0.1129 -0.3784
74628SOL    HW133814   8.481   8.849   4.234  0.2113  0.1258  1.0441
74628SOL    HW233815   8.494   8.999   4.247 -0.7902  0.2542  0.6494
74629SOL     OW33816   4.684   6.952   8.682  0.7218  0.1707  0.3779
74629SOL    HW133817   4.727   6.904   8.611  0.7411  1.7969 -0.7677
74629SOL    HW233818   4.755   6.996   8.729  0.5224  1.2527 -0.2881
74630SOL     OW33819  13.079   3.304   4.168  0.0795 -0.0767  0.5161
74630SOL    HW133820  12.989   3.307   4.137 -0.1019 -0.3166  1.0230
74630SOL    HW233821  13.114   3.391   4.150  0.2173 -0.4285 -1.0872
74631SOL     OW33822  11.910   1.955   8.566  0.0019 -0.5354  0.1692
74631SOL    HW133823  11.840   1.920   8.621 -1.1114 -1.7508 -1.9140
74631SOL    HW233824  11.991   1.933   8.614 -0.9028 -1.7740  1.2032
74632SOL     OW33825  11.251   3.234   5.074 -0.0450  0.1810 -0.0141
74632SOL    HW133826  11.257   3.171   5.003 -0.9786  0.7585 -0.6229
74632SOL    HW233827  11.165   3.218   5.114  1.2725 -1.5558  2.3859
74633SOL     OW33828  10.888   7.070  11.849  0.1593 -0.0268  0.0025
74633SOL    HW133829  10.858   7.057  11.759  0.3278  1.0664 -0.2196
74633SOL    HW233830  10.814   7.109  11.895  0.6186  0.9923 -0.0970
74634SOL     OW33831   9.492   5.254  10.402 -0.0596 -0.1020 -0.0815
74634SOL    HW133832   9.576   5.298  10.418 -0.2075  0.8807 -1.7846
74634SOL    HW233833   9.512   5.161  10.409  0.9196  0.1429  0.6490
74635SOL     OW33834   1.681   0.671   4.135 -0.0542  0.2449  0.1886
74635SOL    HW133835   1.607   0.731   4.143  0.7405  1.2266  0.4361
74635SOL    HW233836   1.647   0.586   4.162 -1.2482  0.5388 -0.3226
74636SOL     OW33837   3.508   4.428   5.778 -0.3661  0.5550  0.3506
74636SOL    HW133838   3.466   4.487   5.840  1.3158 -0.6138  2.7655
74636SOL    HW233839   3.441   4.364   5.755 -0.8733  0.6831  1.4422
74637SOL     OW33840   4.924   5.498   9.841 -0.0772  0.1501 -0.5517
74637SOL    HW133841   4.958   5.573   9.792  0.1216  0.3986 -0.0432
74637SOL    HW233842   4.847   5.469   9.790  0.1455  0.3746 -1.0246
74638SOL     OW33843  12.017   0.027   9.693  0.6296  1.0262 -0.2100
74638SOL    HW133844  11.964  -0.007   9.621 -0.1225  1.3735  0.1628
74638SOL    HW233845  12.106   0.001   9.671  0.1847 -0.5569 -0.2950
74639SOL     OW33846   9.383   0.544   0.611 -0.0848 -0.2683 -0.2439
74639SOL    HW133847   9.457   0.516   0.665  1.2018 -1.2479 -2.3779
74639SOL    HW233848   9.339   0.462   0.586  0.2376  0.0038 -1.8285
74640SOL     OW33849   0.070   9.011   7.498  0.3798 -0.2019  0.3829
74640SOL    HW133850   0.146   9.040   7.549  2.4459 -1.8751 -1.5290
74640SOL    HW233851   0.059   8.919   7.521 -0.7823 -0.1151  0.2405
74641SOL     OW33852   9.100  11.508   1.927  0.3109 -0.6535 -0.2608
74641SOL    HW133853   9.155  11.446   1.880  0.2812 -0.4032 -0.6348
74641SOL    HW233854   9.143  11.520   2.011 -1.0017 -3.1341  0.8935
74642SOL     OW33855   6.592  10.265   8.863 -0.3645 -0.3146  0.6376
74642SOL    HW133856   6.668  10.324   8.861 -0.1444 -0.6070  0.0319
74642SOL    HW233857   6.585  10.237   8.954  0.9772 -1.1911  0.5039
74643SOL     OW33858   3.157   3.431  10.738 -0.1941  0.0675 -0.3351
74643SOL    HW133859   3.199   3.408  10.820  0.5384 -2.8009 -1.3964
74643SOL    HW233860   3.155   3.527  10.738  2.3852  0.2177  1.7136
74644SOL     OW33861   4.502   9.124  11.596  0.9269  0.2982  0.1929
74644SOL    HW133862   4.469   9.049  11.546 -0.4925  1.1956 -0.2677
74644SOL    HW233863   4.447   9.198  11.568  1.5388  1.2802  1.4790
74645SOL     OW33864   0.204   1.561   7.766 -0.4012 -0.0386  0.2478
74645SOL    HW133865   0.210   1.613   7.846  0.4209 -0.6752  0.6171
74645SOL    HW233866   0.229   1.622   7.696  0.5536  0.0836  0.6739
74646SOL     OW33867   1.571  10.594  11.342 -0.2361 -0.3510 -0.1494
74646SOL    HW133868   1.490  10.642  11.359  0.0253  0.4412 -1.0737
74646SOL    HW233869   1.640  10.650  11.376 -0.0538 -1.0307  0.6427
74647SOL     OW33870   6.492   5.774   1.046 -0.1932 -0.0427  0.4681
74647SOL    HW133871   6.501   5.745   1.137  0.4273 -0.4640  0.2836
74647SOL    HW233872   6.546   5.712   0.996  0.4807  0.9273 -0.0425
74648SOL     OW33873  12.778   9.171  11.936  0.9234  0.4733 -0.0988
74648SOL    HW133874  12.804   9.259  11.908 -1.4767  1.3694  0.2860
74648SOL    HW233875  12.752   9.181  12.027 -0.6882 -0.3276 -0.4457
74649SOL     OW33876   5.680   9.313   7.014  0.5100 -0.0275  0.2391
74649SOL    HW133877   5.604   9.289   7.066  0.0039  2.1294  0.6143
74649SOL    HW233878   5.682   9.249   6.943 -3.6550  1.6036 -1.7204
74650SOL     OW33879   3.515   7.382   7.360  0.4372  0.0496  0.1125
74650SOL    HW133880   3.569   7.333   7.421 -1.1577 -2.8460 -0.6189
74650SOL    HW233881   3.575   7.407   7.290  1.5311  0.1940  1.0718
74651SOL     OW33882   0.074  10.559   9.059 -0.3495 -0.3447 -0.1055
74651SOL    HW133883   0.046  10.613   8.985 -0.2944 -0.7730 -0.4460
74651SOL    HW233884  -0.005  10.511   9.085  0.0600 -1.6126 -1.1175
74652SOL     OW33885   2.918  12.252  12.645 -0.4151  0.3082  0.4932
74652SOL    HW133886   3.007  12.243  12.679 -0.1614 -2.8401 -0.6177
74652SOL    HW233887   2.927  12.232  12.551 -2.0789  1.6026  0.0127
74653SOL     OW33888   0.376   5.388  12.277  0.0449 -0.4081 -0.2787
74653SOL    HW133889   0.395   5.481  12.289  0.9900 -0.3594 -1.8208
74653SOL    HW233890   0.459   5.344  12.294 -0.4301 -1.0105  0.5804
74654SOL     OW33891   2.767  12.154  10.271  0.0703 -0.4761 -0.1615
74654SOL    HW133892   2.776  12.119  10.359  0.1370  0.6489  0.2880
74654SOL    HW233893   2.729  12.241  10.283  3.4870  1.2711 -0.9482
74655SOL     OW33894  10.800   4.674   2.175 -0.3758  0.2426 -0.0700
74655SOL    HW133895  10.895   4.682   2.184 -0.0031 -1.8431 -1.4467
74655SOL    HW233896  10.771   4.761   2.149  1.1000  1.0204  0.7830
74656SOL     OW33897   3.467   9.217  10.797  0.3122 -0.5928 -0.1538
74656SOL    HW133898   3.560   9.197  10.786  1.2342  2.5174  0.9126
74656SOL    HW233899   3.442   9.170  10.877  1.0087 -1.2434 -0.3045
74657SOL     OW33900   0.275   9.483  11.877  0.8021 -0.3044 -0.3539
74657SOL    HW133901   0.191   9.466  11.835 -0.4025  1.1936  1.3561
74657SOL    HW233902   0.340   9.464  11.808 -0.8630 -1.7805 -1.6153
74658SOL     OW33903  12.758   6.075   9.356 -0.2616  0.1955  0.9235
74658SOL    HW133904  12.694   6.094   9.425  0.9358  1.4738  1.7324
74658SOL    HW233905  12.835   6.041   9.404  0.2022  0.0771  0.1105
74659SOL     OW33906  12.541  12.694  12.931 -0.0235  0.1938 -0.6502
74659SOL    HW133907  12.590  12.632  12.876 -1.1373 -0.7817 -0.5767
74659SOL    HW233908  12.463  12.646  12.957 -0.3305  1.2357  0.4105
74660SOL     OW33909   6.459   0.703   4.062 -0.0112  0.7141 -0.4222
74660SOL    HW133910   6.525   0.644   4.096 -1.2981 -0.5518 -0.0235
74660SOL    HW233911   6.493   0.730   3.977  1.2590  0.5474  0.0093
74661SOL     OW33912  12.459   4.010   2.897  0.5782 -0.7260  0.5553
74661SOL    HW133913  12.385   3.966   2.856  1.0765 -0.5802 -0.5327
74661SOL    HW233914  12.513   3.938   2.932  0.0638 -0.8404  1.1370
74662SOL     OW33915   7.320   3.772   8.666  0.2579  0.1930  0.2179
74662SOL    HW133916   7.301   3.844   8.606 -1.1417 -0.3327 -0.0240
74662SOL    HW233917   7.258   3.785   8.738 -1.0677 -1.5293 -0.5120
74663SOL     OW33918   4.111   6.526   2.312  0.5710  0.1090 -0.1632
74663SOL    HW133919   4.063   6.599   2.350  1.9712  1.3695 -0.7289
74663SOL    HW233920   4.183   6.510   2.373 -0.2080 -1.4028  0.4046
74664SOL     OW33921   6.068   0.221  12.787  0.2271  0.1639  0.3400
74664SOL    HW133922   6.070   0.174  12.703  1.7987 -1.4679  1.2162
74664SOL    HW233923   5.991   0.186  12.832 -0.4242  0.7953 -0.2413
74665SOL     OW33924   0.306   9.946   1.734 -0.4427  0.4783 -0.1641
74665SOL    HW133925   0.385   9.976   1.778 -1.2292 -0.2528  1.8490
74665SOL    HW233926   0.299  10.002   1.657 -0.1001  3.2919  1.7123
74666SOL     OW33927   1.584   1.565   0.543  0.4333  0.4153 -0.4653
74666SOL    HW133928   1.489   1.551   0.537  0.4238 -0.5480  1.2036
74666SOL    HW233929   1.595   1.659   0.532 -0.9082  0.7701  0.7951
74667SOL     OW33930  11.063  13.186   9.665  0.1351 -0.6005  0.0091
74667SOL    HW133931  11.081  13.159   9.755  0.6336 -0.6969 -0.1193
74667SOL    HW233932  11.059  13.282   9.669  1.5838 -0.5190 -0.1206
74668SOL     OW33933   5.536   0.416  12.237  0.6022 -0.3272  0.4110
74668SOL    HW133934   5.624   0.380  12.223  1.4158  0.9846  1.8363
74668SOL    HW233935   5.533   0.439  12.330 -1.0800  0.1188  0.2890
74669SOL     OW33936   3.806   7.319   6.257 -0.1221 -0.0359 -0.2218
74669SOL    HW133937   3.888   7.282   6.292  0.5562  0.3170 -1.3937
74669SOL    HW233938   3.773   7.253   6.197  1.3442  1.3140 -2.6996
74670SOL     OW33939   0.903   5.584  11.878  0.3070  0.0182  0.2475
74670SOL    HW133940   0.949   5.569  11.795 -0.6712 -0.7791 -0.1740
74670SOL    HW233941   0.838   5.651  11.858 -1.2487 -1.5272 -0.1968
74671SOL     OW33942  12.358   7.226   8.797 -0.5493  0.3401  0.5170
74671SOL    HW133943  12.310   7.143   8.795  0.2492 -0.2024  1.8651
74671SOL    HW233944  12.311   7.279   8.862 -1.4274  1.2183 -0.7877
74672SOL     OW33945  11.277   3.709   9.365 -0.2631  0.0339  0.2831
74672SOL    HW133946  11.232   3.778   9.316 -2.0838 -0.5556  1.0206
74672SOL    HW233947  11.231   3.629   9.339  1.0972 -0.7688  0.2721
74673SOL     OW33948   6.283   4.925   0.814  0.0728 -0.0920 -0.3344
74673SOL    HW133949   6.359   4.868   0.802  0.1466 -0.1223  0.2594
74673SOL    HW233950   6.280   4.978   0.734  1.6958  1.0546  0.3062
74674SOL     OW33951  10.865  10.161   7.017  0.1994  0.3966  0.3460
74674SOL    HW133952  10.899  10.082   6.975  0.3507  0.4241  0.4155
74674SOL    HW233953  10.809  10.202   6.951  1.0365  0.8464 -0.1005
74675SOL     OW33954   1.835   4.720  10.264 -0.1103 -0.0812  0.3810
74675SOL    HW133955   1.826   4.763  10.179  0.9981  1.6208  1.0801
74675SOL    HW233956   1.770   4.764  10.319 -2.1954 -2.4659  0.0229
74676SOL     OW33957  11.495   5.841   4.556  0.1430 -0.5131 -0.0796
74676SOL    HW133958  11.587   5.841   4.581  0.6400 -0.8420 -1.7860
74676SOL    HW233959  11.495   5.859   4.462 -1.4850 -1.2059 -0.2541
74677SOL     OW33960  10.036   2.374  12.061 -0.5767  0.1057 -0.3020
74677SOL    HW133961   9.965   2.360  11.998 -0.7335 -0.2595 -0.0464
74677SOL    HW233962  10.101   2.307  12.039 -0.4010  0.3108 -0.4074
74678SOL     OW33963   2.523   0.230   9.058  0.4612  0.3702  0.1150
74678SOL    HW133964   2.458   0.256   8.992 -0.3007  0.2368  0.7984
74678SOL    HW233965   2.477   0.238   9.141  2.1853  3.0175  0.9031
74679SOL     OW33966   3.586   9.508   1.519  0.0751 -0.3066  0.7096
74679SOL    HW133967   3.506   9.466   1.549  0.8520 -1.4503  1.2632
74679SOL    HW233968   3.625   9.445   1.459  0.6469  0.1647  0.5790
74680SOL     OW33969  13.242   2.154  10.568  0.1601  0.4356  0.3169
74680SOL    HW133970  13.206   2.211  10.635 -1.1590  1.0032 -0.8164
74680SOL    HW233971  13.326   2.124  10.604 -1.0030 -0.2221  2.6806
74681SOL     OW33972   8.584  10.181  11.165  0.4102 -0.5213  0.1481
74681SOL    HW133973   8.492  10.154  11.170  0.8812 -2.3805 -0.5603
74681SOL    HW233974   8.609  10.166  11.074  1.6141 -0.6889  0.4862
74682SOL     OW33975   6.560  12.939  12.529 -0.3697  0.3385  0.4684
74682SOL    HW133976   6.493  13.008  12.524 -0.3207  0.5090  1.8656
74682SOL    HW233977   6.554  12.906  12.618  0.1025 -0.9944  0.0302
74683SOL     OW33978   6.738  12.031   3.478 -0.0117  0.3965 -0.0356
74683SOL    HW133979   6.821  12.077   3.471  0.0064  0.2900 -0.5707
74683SOL    HW233980   6.688  12.061   3.403 -0.3783  0.2975  0.1664
74684SOL     OW33981   8.887  12.114   2.312  0.3598  0.0565  0.1028
74684SOL    HW133982   8.944  12.045   2.346  0.1129 -0.3376 -0.2726
74684SOL    HW233983   8.799  12.084   2.333  0.2602  0.3664  0.1277
74685SOL     OW33984   1.968  11.358   1.366 -0.7161  0.5728  0.4444
74685SOL    HW133985   2.020  11.319   1.437 -0.7643  0.9007  0.6616
74685SOL    HW233986   1.936  11.440   1.403 -2.3982 -0.1805  0.7423
74686SOL     OW33987   1.216   6.149   4.753  0.7597  0.0848 -0.1160
74686SOL    HW133988   1.275   6.189   4.817 -0.2305 -1.7606  2.1062
74686SOL    HW233989   1.132   6.142   4.799 -0.0257 -1.2805 -1.6368
74687SOL     OW33990   8.559   7.121  11.470  0.1901  0.2127 -0.3609
74687SOL    HW133991   8.618   7.192  11.496 -0.6386  1.1853 -1.0499
74687SOL    HW233992   8.481   7.136  11.524 -0.0538 -0.0742 -0.6386
74688SOL     OW33993  12.277   8.672   3.927  0.0391 -0.2331  0.1952
74688SOL    HW133994  12.330   8.597   3.955  0.0021 -0.6103 -0.7193
74688SOL    HW233995  12.303   8.688   3.837 -1.9081 -0.9141 -0.5468
74689SOL     OW33996   4.725   9.226   3.473 -0.3769  0.2197  0.1204
74689SOL    HW133997   4.805   9.186   3.438 -0.5160  0.4396 -0.4681
74689SOL    HW233998   4.683   9.265   3.396 -1.1062  0.0128  0.4099
74690SOL     OW33999   1.166   9.463   8.231 -0.1511  0.0262 -0.3775
74690SOL    HW134000   1.094   9.420   8.184  1.4601 -0.7817 -2.2620
74690SOL    HW234001   1.144   9.556   8.228 -1.7711 -0.3011  0.3047
74691SOL     OW34002   0.826   7.072  11.568  0.0757 -0.1512  0.0069
74691SOL    HW134003   0.784   7.066  11.483  1.8528 -0.6642 -0.8822
74691SOL    HW234004   0.827   6.982  11.601  2.1521 -0.4894 -0.8674
74692SOL     OW34005   6.302   0.738   8.403  0.0505  0.3550  0.3927
74692SOL    HW134006   6.389   0.768   8.430 -0.4984  1.6979  0.7530
74692SOL    HW234007   6.263   0.814   8.360  0.1405 -1.1108 -2.4632
74693SOL     OW34008  12.217   9.514   1.408  0.0360  0.2220  0.0174
74693SOL    HW134009  12.261   9.451   1.466  0.5097  0.0764 -0.4979
74693SOL    HW234010  12.239   9.600   1.444 -1.3753  0.1026  1.2870
74694SOL     OW34011  12.963  12.763   8.090  0.1104 -0.2739 -0.1503
74694SOL    HW134012  12.931  12.793   8.004  0.4687  2.0905  0.4740
74694SOL    HW234013  12.945  12.669   8.090 -1.7071 -0.0193 -2.0416
74695SOL     OW34014   5.487  10.174   7.206 -0.3841 -0.3630  0.5349
74695SOL    HW134015   5.441  10.240   7.153 -1.4422 -0.8484  0.8435
74695SOL    HW234016   5.464  10.091   7.166  0.0361 -0.6342  0.8498
74696SOL     OW34017   6.506   5.666   0.101  0.2150  0.1825  0.2652
74696SOL    HW134018   6.565   5.594   0.123 -0.8532 -1.1072 -0.8833
74696SOL    HW234019   6.548   5.709   0.026  0.6490  0.5007  0.6873
74697SOL     OW34020  12.071  10.019   9.236 -0.0054 -0.1108 -0.1688
74697SOL    HW134021  12.149  10.025   9.180  0.9105  0.7359  1.1210
74697SOL    HW234022  12.005   9.976   9.182  0.8659  0.5719 -1.8437
74698SOL     OW34023  11.069   3.103  11.616 -0.2531 -0.1357 -0.1331
74698SOL    HW134024  11.024   3.021  11.635  0.0310 -0.7754 -2.0507
74698SOL    HW234025  11.012   3.170  11.654 -1.9377 -1.0388 -0.9574
74699SOL     OW34026   2.752   8.949   3.241 -0.3181 -0.3941 -0.1097
74699SOL    HW134027   2.685   8.910   3.185 -0.3665  0.8694 -0.9542
74699SOL    HW234028   2.785   9.023   3.191  1.7257 -0.9750  0.2674
74700SOL     OW34029   1.539   8.912   6.923 -0.0128  0.4265 -0.1327
74700SOL    HW134030   1.572   8.948   7.005 -1.9062  0.2612  0.7359
74700SOL    HW234031   1.595   8.836   6.906 -0.1483 -0.0591  1.4739
74701SOL     OW34032  12.590   0.154   9.729 -0.0263 -0.1150  0.1745
74701SOL    HW134033  12.503   0.131   9.761  0.0757  0.5079  0.9507
74701SOL    HW234034  12.591   0.250   9.729  0.7891 -0.1128  0.5616
74702SOL     OW34035   3.101   9.828   6.083  0.2245  0.2253  0.4233
74702SOL    HW134036   3.030   9.764   6.091  0.4713 -0.1133 -0.0031
74702SOL    HW234037   3.062   9.911   6.108 -0.4443  0.1168 -0.2252
74703SOL     OW34038   3.288   2.911  10.544  0.4875  0.0832 -0.4722
74703SOL    HW134039   3.219   2.883  10.603  0.5910 -0.5358 -0.6314
74703SOL    HW234040   3.369   2.893  10.592  0.5381  0.8013 -0.2866
74704SOL     OW34041  12.815  11.640   1.074  1.0348 -0.0371  0.0673
74704SOL    HW134042  12.883  11.694   1.112  0.2189 -0.6262  2.5479
74704SOL    HW234043  12.769  11.602   1.149 -0.0411 -2.1397 -1.5246
74705SOL     OW34044   5.560  11.832   6.699  0.0583 -0.6073  0.7479
74705SOL    HW134045   5.632  11.879   6.658  0.3832 -1.6507  0.0760
74705SOL    HW234046   5.498  11.815   6.628 -0.1971 -0.9124  1.0367
74706SOL     OW34047   8.294   9.216   3.229  0.1870 -0.0179 -0.3301
74706SOL    HW134048   8.233   9.144   3.235  0.1499 -0.1404 -1.8705
74706SOL    HW234049   8.260   9.282   3.289  0.3686 -1.3398  1.3074
74707SOL     OW34050   8.977   2.160  10.871  0.3372  0.4767 -0.0278
74707SOL    HW134051   8.940   2.082  10.830  2.9596 -0.6017 -0.5811
74707SOL    HW234052   8.963   2.230  10.808 -0.4080  0.0466 -0.3514
74708SOL     OW34053  10.063  12.221   6.298 -0.5906 -0.6030  0.1512
74708SOL    HW134054  10.044  12.315   6.299 -0.2560 -0.5327  0.0888
74708SOL    HW234055  10.137  12.212   6.359  2.4151 -0.1540 -3.1252
74709SOL     OW34056   6.094   7.622   5.698  0.0489  0.2465  0.1305
74709SOL    HW134057   6.062   7.605   5.786 -0.6851  1.4932  0.1337
74709SOL    HW234058   6.141   7.543   5.673 -1.8253 -1.1215  0.6981
74710SOL     OW34059   1.269   3.519   2.403 -0.3351 -0.2967  0.0974
74710SOL    HW134060   1.282   3.553   2.314  0.8038  0.4677  0.5367
74710SOL    HW234061   1.272   3.596   2.459 -0.2328 -0.8670  0.8901
74711SOL     OW34062   0.780   6.874  10.567 -0.0465  0.2893  0.7532
74711SOL    HW134063   0.805   6.782  10.559  0.6576  0.5944 -0.9999
74711SOL    HW234064   0.702   6.873  10.622 -0.6382 -1.4807 -0.0383
74712SOL     OW34065   3.229  13.311   1.041 -0.2215  0.2679  0.2725
74712SOL    HW134066   3.171  13.386   1.027 -1.2591 -0.5914 -0.1330
74712SOL    HW234067   3.315  13.341   1.011 -1.0495  0.6014 -1.8977
74713SOL     OW34068   8.298   9.829  11.181  0.2828  0.3937 -0.1797
74713SOL    HW134069   8.279   9.763  11.247 -1.9781 -1.4497 -2.4796
74713SOL    HW234070   8.275   9.912  11.222 -2.3050 -0.7992  0.9621
74714SOL     OW34071   5.155   6.307   3.438  0.2675 -0.2679  0.1555
74714SOL    HW134072   5.062   6.318   3.417  0.8659  3.2677 -1.3188
74714SOL    HW234073   5.201   6.366   3.378  3.3912 -0.8714  1.7285
74715SOL     OW34074   5.220   0.780   4.385  0.0845 -0.0065  0.7069
74715SOL    HW134075   5.146   0.753   4.330  1.4691 -1.1087 -0.7108
74715SOL    HW234076   5.180   0.819   4.462 -1.9563  0.8334 -0.7125
74716SOL     OW34077   3.569   1.041   1.022 -0.2226  0.0625  0.1032
74716SOL    HW134078   3.552   1.002   1.107  1.3805  2.5203  1.6894
74716SOL    HW234079   3.662   1.025   1.006 -0.2867  0.4433 -0.7275
74717SOL     OW34080   3.840   5.046   0.667  0.2739 -0.3886  0.8099
74717SOL    HW134081   3.856   4.995   0.588 -1.1335 -3.0966  2.1435
74717SOL    HW234082   3.745   5.042   0.679  0.2274  1.7312  1.5663
74718SOL     OW34083   0.858   6.544   5.063  0.1589 -0.3795 -0.0036
74718SOL    HW134084   0.844   6.475   4.998  3.5659  0.1746 -1.5332
74718SOL    HW234085   0.877   6.497   5.144  0.3395 -1.2285 -0.5195
74719SOL     OW34086   1.722  12.639  12.401  0.1157  0.4004  0.4112
74719SOL    HW134087   1.707  12.631  12.495  0.1783  0.0932  0.3971
74719SOL    HW234088   1.814  12.666  12.393 -0.5059  2.7120  0.5142
74720SOL     OW34089   0.280   6.037  11.256  0.0801 -0.1175 -0.3369
74720SOL    HW134090   0.202   6.078  11.219  0.4083  0.5621 -0.3046
74720SOL    HW234091   0.348   6.103  11.245  0.3053 -0.1021  1.0116
74721SOL     OW34092   0.985   5.086   2.351 -0.1913  0.0374 -0.4437
74721SOL    HW134093   0.987   5.181   2.364  0.4352 -0.1277  0.8489
74721SOL    HW234094   0.952   5.051   2.433 -0.9380 -0.8478 -1.1032
74722SOL     OW34095   1.144  12.642   5.337 -0.3175 -0.8033  0.1478
74722SOL    HW134096   1.083  12.602   5.275 -0.3262  0.1338 -0.4751
74722SOL    HW234097   1.118  12.608   5.422 -0.4439 -1.9491 -0.3318
74723SOL     OW34098   8.646   9.168   5.684  0.4924  0.4500  0.3791
74723SOL    HW134099   8.600   9.203   5.760  0.3935  0.6670  0.2200
74723SOL    HW234100   8.719   9.118   5.720  0.3225  0.3771  0.6232
74724SOL     OW34101   4.043   3.861   4.986 -0.0079  0.6007  0.4862
74724SOL    HW134102   3.974   3.798   5.008  1.8616 -1.2325  1.4370
74724SOL    HW234103   4.058   3.849   4.893 -0.8229  0.9178  0.2972
74725SOL     OW34104  13.140  11.064  10.903 -0.0065  0.2991 -0.5323
74725SOL    HW134105  13.176  10.990  10.856  0.1770 -0.5966  0.9524
74725SOL    HW234106  13.083  11.025  10.970  2.0923  1.2651  2.0127
74726SOL     OW34107   3.586   2.529   1.412 -0.0770  0.0093 -0.1314
74726SOL    HW134108   3.621   2.463   1.351 -0.2971  1.0123 -1.3864
74726SOL    HW234109   3.644   2.604   1.401 -1.3097  0.9156 -0.6019
74727SOL     OW34110   8.196   7.277   0.270 -0.2022  0.5722  0.3032
74727SOL    HW134111   8.188   7.300   0.177  0.5684  2.2642  0.6076
74727SOL    HW234112   8.273   7.220   0.273 -0.8229 -0.3106 -0.2106
74728SOL     OW34113  10.718   8.696   5.433 -0.2933  0.3935  0.0023
74728SOL    HW134114  10.727   8.628   5.366  0.3559 -0.4085  0.8902
74728SOL    HW234115  10.781   8.673   5.501 -1.0748  1.0782  1.0003
74729SOL     OW34116   1.323  12.075   1.450  0.0007  0.0659  0.3597
74729SOL    HW134117   1.357  12.128   1.378  0.1799  0.8629  1.0127
74729SOL    HW234118   1.325  11.986   1.417  1.3734  0.2569 -0.1434
74730SOL     OW34119  12.488   5.546   2.654 -0.4260  0.0388 -0.2518
74730SOL    HW134120  12.552   5.602   2.697  0.5620 -1.4256  0.2496
74730SOL    HW234121  12.502   5.561   2.561  1.7112 -1.3287 -0.2177
74731SOL     OW34122   3.793  12.982  10.239 -0.1147  0.1904  0.3179
74731SOL    HW134123   3.731  13.016  10.174  0.8333  0.1538 -0.6334
74731SOL    HW234124   3.866  12.948  10.187  2.6740  3.8597  1.4368
74732SOL     OW34125   6.375   3.592   4.313 -0.2673 -0.0726  0.0286
74732SOL    HW134126   6.378   3.534   4.237  2.0558  1.5982 -1.2975
74732SOL    HW234127   6.411   3.541   4.385 -1.7591 -1.4285 -0.1397
74733SOL     OW34128   0.534   6.275   6.027 -0.0596  0.7455 -0.0176
74733SOL    HW134129   0.581   6.322   6.096  1.9860  1.6881 -1.9393
74733SOL    HW234130   0.589   6.286   5.949 -2.2459 -0.3038 -1.8030
74734SOL     OW34131   2.996   0.273  11.323 -0.3830 -0.7402 -0.0858
74734SOL    HW134132   2.913   0.310  11.352  0.8106  0.8498  1.5455
74734SOL    HW234133   2.972   0.199  11.268 -2.8703  0.0668 -0.2007
74735SOL     OW34134  12.187   1.028   0.701 -0.1997 -0.0691  0.2440
74735SOL    HW134135  12.257   0.966   0.683  0.0427  0.8119 -2.3368
74735SOL    HW234136  12.106   0.977   0.690  0.0053 -0.4165  0.3437
74736SOL     OW34137   7.052   6.565   9.013 -0.4511 -0.6015 -0.2432
74736SOL    HW134138   7.072   6.473   8.996 -1.0292 -0.7648 -0.0358
74736SOL    HW234139   7.023   6.599   8.929  1.6500 -0.0903 -0.8304
74737SOL     OW34140   8.362   5.818   1.721 -0.0171 -0.1710  0.1102
74737SOL    HW134141   8.328   5.751   1.661  0.2628  1.2583 -1.7402
74737SOL    HW234142   8.457   5.809   1.715  0.0104 -0.1595  0.5177
74738SOL     OW34143  10.726   2.055  11.150  0.8302 -0.2417  0.1491
74738SOL    HW134144  10.754   1.967  11.173 -0.0762 -0.8160 -0.8572
74738SOL    HW234145  10.784   2.081  11.078  2.0625  0.5849  1.4080
74739SOL     OW34146   7.481   8.846  10.699  0.2789  0.2827 -0.0194
74739SOL    HW134147   7.394   8.856  10.737  0.9652  2.5154  1.1858
74739SOL    HW234148   7.492   8.923  10.643  1.5027  0.1436 -0.0023
74740SOL     OW34149   7.503   6.034  12.825 -0.3251 -0.4260  0.5384
74740SOL    HW134150   7.545   6.007  12.907  0.6567  0.0531  0.2115
74740SOL    HW234151   7.441   6.102  12.851  0.2204 -0.0415  0.8496
74741SOL     OW34152   0.498   5.820   1.515  0.3853 -0.8548 -0.2392
74741SOL    HW134153   0.482   5.779   1.600 -4.4068 -0.8995 -0.8874
74741SOL    HW234154   0.451   5.904   1.520 -0.9948 -1.3434 -3.0819
74742SOL     OW34155   4.363   7.555  12.357 -0.3078  0.3261 -0.1721
74742SOL    HW134156   4.287   7.561  12.300  0.1114  0.1237 -0.7663
74742SOL    HW234157   4.411   7.636  12.343 -0.6616  0.6755  0.5762
74743SOL     OW34158   0.514   8.242  12.499 -0.5800 -0.5384  0.0623
74743SOL    HW134159   0.424   8.210  12.492 -0.5589 -1.0872  1.8569
74743SOL    HW234160   0.516   8.320  12.443 -1.9923 -0.8410 -0.4632
74744SOL     OW34161   6.316   6.025  11.045 -0.5651 -0.2300 -0.1990
74744SOL    HW134162   6.314   6.083  11.121 -0.8183 -1.6681  0.9291
74744SOL    HW234163   6.225   6.000  11.031 -0.5596  0.2161 -1.1673
74745SOL     OW34164  10.891  12.025   1.961 -0.3552 -0.3937 -0.3980
74745SOL    HW134165  10.933  12.085   1.900  0.2419  0.7418  1.0946
74745SOL    HW234166  10.963  11.980   2.004 -0.6694  0.4328  1.0458
74746SOL     OW34167   6.910   7.555  10.543 -0.7395  0.1552  0.3877
74746SOL    HW134168   6.948   7.468  10.541  0.0296  0.4885  0.2102
74746SOL    HW234169   6.936   7.591  10.628 -0.2696  0.5462  0.0874
74747SOL     OW34170   3.090   8.927   5.444  0.3721 -1.1458 -0.2656
74747SOL    HW134171   3.021   8.979   5.402 -0.6741 -2.3628 -0.1125
74747SOL    HW234172   3.138   8.989   5.498 -0.6408 -0.2829 -0.3388
74748SOL     OW34173  10.604   0.077  10.891 -0.1799  0.4243  0.7407
74748SOL    HW134174  10.593   0.165  10.928  0.5606  0.2779  1.3242
74748SOL    HW234175  10.690   0.079  10.849 -0.4044  0.1438  0.2556
74749SOL     OW34176   7.826   5.871   2.470 -0.1485  0.0381 -0.7341
74749SOL    HW134177   7.892   5.805   2.448  0.0775 -0.3094  0.8732
74749SOL    HW234178   7.751   5.820   2.499 -0.4651  0.4713 -0.7900
74750SOL     OW34179  12.872   4.561   5.256  0.0636  0.0409 -0.0169
74750SOL    HW134180  12.932   4.487   5.263  0.1261  0.1368  0.5722
74750SOL    HW234181  12.899   4.621   5.326 -0.1068  0.5332 -0.3647
74751SOL     OW34182  12.021   2.035   7.997 -0.3143 -0.2528  0.5411
74751SOL    HW134183  12.077   1.961   8.021 -0.3459 -0.1626  0.8967
74751SOL    HW234184  12.062   2.111   8.038 -0.2175 -0.0537  0.0802
74752SOL     OW34185   1.559   0.348   5.697  0.1328 -0.5904  0.2049
74752SOL    HW134186   1.625   0.413   5.718 -1.6601  1.3927  0.0031
74752SOL    HW234187   1.594   0.266   5.731  2.0207  0.6411  1.3814
74753SOL     OW34188   8.191  12.298  13.151  0.7647 -0.4253  0.0394
74753SOL    HW134189   8.197  12.268  13.242 -0.4975  0.7488  0.5526
74753SOL    HW234190   8.244  12.378  13.149  1.0910 -0.6496 -0.3589
74754SOL     OW34191  13.243  12.845   6.555 -0.2233  0.4265 -0.2872
74754SOL    HW134192  13.307  12.782   6.522 -1.3072 -0.5512 -0.5925
74754SOL    HW234193  13.268  12.928   6.515  2.0931  0.5507  1.2414
74755SOL     OW34194   0.707   3.293   0.769  0.2017 -1.3498  0.2988
74755SOL    HW134195   0.769   3.266   0.836  0.5929  0.0371  0.5238
74755SOL    HW234196   0.686   3.384   0.790 -1.7550 -1.7019  0.1046
74756SOL     OW34197   7.905  12.809   5.378  0.3844  0.6253 -0.0262
74756SOL    HW134198   7.973  12.842   5.438 -0.4093  2.1326  0.0803
74756SOL    HW234199   7.830  12.791   5.435  0.3021  0.1025 -0.3010
74757SOL     OW34200   0.774   4.694   1.475 -0.2088 -0.4792  0.2089
74757SOL    HW134201   0.700   4.637   1.493 -0.8090  0.0138 -0.6456
74757SOL    HW234202   0.848   4.634   1.463 -0.6705 -1.0345  0.0808
74758SOL     OW34203   7.527   8.143   9.709  0.2252  0.2288  0.2325
74758SOL    HW134204   7.576   8.100   9.639  0.0204  0.8767 -0.3206
74758SOL    HW234205   7.514   8.232   9.677 -0.2793  0.3970  0.8978
74759SOL     OW34206  13.270  12.387   1.521 -0.0578  0.0599  0.5353
74759SOL    HW134207  13.250  12.480   1.527  1.4325  0.7378 -2.4566
74759SOL    HW234208  13.362  12.380   1.549  0.4677 -0.0912 -1.0962
74760SOL     OW34209   4.635  12.587   8.715 -0.4598 -0.2317 -0.0301
74760SOL    HW134210   4.636  12.632   8.800  0.1966 -0.0003 -0.1573
74760SOL    HW234211   4.567  12.521   8.725 -0.7359  0.1162  0.5110
74761SOL     OW34212  11.916   5.770   1.994 -0.2465 -0.4323 -0.0647
74761SOL    HW134213  11.950   5.720   2.069  0.8488 -1.5240 -1.2498
74761SOL    HW234214  11.975   5.845   1.986 -0.2819 -0.3883  0.0796
74762SOL     OW34215   7.961   8.048   2.694 -0.7063  0.1545 -0.1140
74762SOL    HW134216   7.973   7.972   2.751  0.7387 -0.7452 -1.5424
74762SOL    HW234217   7.866   8.057   2.685 -0.9056 -1.8951 -0.4186
74763SOL     OW34218   1.937   8.636   6.468  0.1841  0.1042 -0.2847
74763SOL    HW134219   1.990   8.693   6.525 -1.3265  0.5691  0.7133
74763SOL    HW234220   1.899   8.571   6.527 -1.3701  0.5532 -0.7402
74764SOL     OW34221   4.241   2.036   9.181 -0.3611 -0.1663  0.2555
74764SOL    HW134222   4.303   2.039   9.108 -0.7511 -0.9838 -0.1259
74764SOL    HW234223   4.184   2.112   9.167 -0.1898 -0.0941 -0.0657
74765SOL     OW34224   3.658  13.273   9.437  0.3247  0.0179  0.2686
74765SOL    HW134225   3.703  13.268   9.522  1.1296  0.6347 -0.1049
74765SOL    HW234226   3.650  13.366   9.420 -1.7617 -0.0536  0.6335
74766SOL     OW34227   4.595  12.355  12.515 -0.3229  0.6455 -1.1382
74766SOL    HW134228   4.677  12.320  12.481  0.3146  1.9848 -1.0496
74766SOL    HW234229   4.619  12.402  12.594 -1.5697 -1.0892  0.3619
74767SOL     OW34230  10.084   0.877   4.819  0.2966 -0.3046 -0.1727
74767SOL    HW134231  10.163   0.902   4.867 -0.0286  0.4484 -0.0162
74767SOL    HW234232  10.059   0.793   4.857  1.2857 -0.7847 -0.5526
74768SOL     OW34233   4.512   0.403   0.656 -0.0696 -0.2438  0.3225
74768SOL    HW134234   4.581   0.347   0.692 -0.2044  0.1654  1.2456
74768SOL    HW234235   4.499   0.371   0.567  1.9032  0.1917 -0.1716
74769SOL     OW34236  11.292   9.167   4.766  0.4136 -0.1865 -0.3388
74769SOL    HW134237  11.327   9.205   4.846  0.6600  0.7367 -0.8795
74769SOL    HW234238  11.345   9.089   4.751  0.4958 -0.2517  0.2812
74770SOL     OW34239  10.606   8.433   6.092 -0.0255  0.1040 -0.0545
74770SOL    HW134240  10.631   8.504   6.150  2.4695 -1.0559  0.4324
74770SOL    HW234241  10.623   8.353   6.143 -1.4656 -0.8911 -1.0449
74771SOL     OW34242   8.397  11.754   3.121 -0.1412 -0.1406 -0.5491
74771SOL    HW134243   8.393  11.659   3.117 -0.3414 -0.1088 -1.4309
74771SOL    HW234244   8.443  11.773   3.203  2.0260 -1.0572 -1.4771
74772SOL     OW34245   7.325   7.182   8.533  0.7095 -0.3491  0.0823
74772SOL    HW134246   7.303   7.091   8.515 -0.2144  0.0953 -1.2529
74772SOL    HW234247   7.390   7.205   8.467 -1.3393  0.7872 -1.6697
74773SOL     OW34248   0.127   0.955  12.096  0.0194  0.7553 -0.6012
74773SOL    HW134249   0.215   0.922  12.112 -0.5457  0.1864  1.6171
74773SOL    HW234250   0.099   0.909  12.017  0.9744 -0.5891 -0.1946
74774SOL     OW34251   1.975  11.739   8.234 -0.0558  0.3359  0.1404
74774SOL    HW134252   2.013  11.822   8.263  2.9035 -0.6358 -0.5825
74774SOL    HW234253   1.928  11.762   8.153 -2.1228  1.7865  1.6621
74775SOL     OW34254   2.157   7.822  10.129 -0.3635  0.1856  0.1718
74775SOL    HW134255   2.205   7.754  10.176 -0.0366  1.4440  1.7328
74775SOL    HW234256   2.212   7.843  10.053  0.8181  0.4962  1.0847
74776SOL     OW34257   1.334   6.160   0.044  0.6695 -0.4547  0.3395
74776SOL    HW134258   1.285   6.111  -0.021 -0.8670  1.6414 -0.1970
74776SOL    HW234259   1.426   6.144   0.023  0.2025 -0.5281 -1.8056
74777SOL     OW34260   8.452  12.749  12.718  0.1438  0.5588 -0.4109
74777SOL    HW134261   8.365  12.783  12.696 -0.2351  0.3719  0.7765
74777SOL    HW234262   8.445  12.655  12.706 -0.0660  0.4554  0.5043
74778SOL     OW34263   5.495   9.892  10.353  0.8065  0.2630  0.0653
74778SOL    HW134264   5.557   9.960  10.381  1.6147 -1.0918  1.8007
74778SOL    HW234265   5.411   9.918  10.391  0.6208  1.3263 -1.0233
74779SOL     OW34266   7.583   1.524   2.932  0.0007  0.3704 -0.3602
74779SOL    HW134267   7.621   1.447   2.973 -0.0676 -0.0424 -1.0523
74779SOL    HW234268   7.611   1.597   2.986  0.8438 -0.0453 -0.2244
74780SOL     OW34269   9.886  12.333   7.480  0.0658  0.3114  0.2771
74780SOL    HW134270   9.852  12.307   7.565 -0.5232  0.1266 -0.0100
74780SOL    HW234271   9.848  12.270   7.419  1.0953 -0.0360 -0.0251
74781SOL     OW34272  11.867  11.535   1.198 -0.6739 -0.0293 -0.4727
74781SOL    HW134273  11.963  11.540   1.198 -0.6826  1.0129 -2.3651
74781SOL    HW234274  11.843  11.531   1.291  1.2932 -3.5926  0.0788
74782SOL     OW34275   9.825  10.166   8.975 -0.4912  0.0508  0.3604
74782SOL    HW134276   9.851  10.232   9.040 -0.9236 -1.1314  1.7753
74782SOL    HW234277   9.730  10.163   8.980 -0.4783 -0.6202  0.2369
74783SOL     OW34278   4.661   7.182   9.462  0.3044 -0.7148  0.4566
74783SOL    HW134279   4.682   7.265   9.505  2.9843 -0.5494 -0.8923
74783SOL    HW234280   4.635   7.207   9.373 -2.3575 -1.1910  1.0374
74784SOL     OW34281   3.931   9.795   0.380  0.0776  0.1206  0.2881
74784SOL    HW134282   4.006   9.814   0.437 -1.0111  0.8144  1.5485
74784SOL    HW234283   3.916   9.876   0.333  0.6962 -0.3186 -0.6997
74785SOL     OW34284  11.563   5.117   8.585  0.3517 -0.1330  0.2459
74785SOL    HW134285  11.535   5.194   8.535 -1.6235 -1.6858 -1.1821
74785SOL    HW234286  11.483   5.065   8.596  1.0488 -0.7107  3.6167
74786SOL     OW34287   5.882   7.314   6.756  0.1191  0.2536  0.2932
74786SOL    HW134288   5.903   7.251   6.826 -0.8275  0.4561  0.7720
74786SOL    HW234289   5.953   7.304   6.693  2.1413  1.4733  2.2234
74787SOL     OW34290   4.777   5.434   3.271 -0.5154 -0.6135 -0.0591
74787SOL    HW134291   4.801   5.390   3.353  2.0045 -0.8911 -0.8657
74787SOL    HW234292   4.747   5.521   3.298  0.4064 -0.6527  1.1759
74788SOL     OW34293   0.343   9.825   9.276 -0.2219  0.6851 -0.1413
74788SOL    HW134294   0.290   9.754   9.312 -0.7332  1.5706  0.8991
74788SOL    HW234295   0.348   9.805   9.182  1.1098 -1.6346  0.3575
74789SOL     OW34296   2.719   7.212   1.666 -0.3894 -0.1061 -0.7342
74789SOL    HW134297   2.737   7.298   1.704 -0.5855  0.4877 -1.9297
74789SOL    HW234298   2.717   7.153   1.741 -3.5893  1.4247  0.5581
74790SOL     OW34299   4.617  10.969   8.390  0.1955 -0.1479  0.9763
74790SOL    HW134300   4.689  11.025   8.418 -0.3810 -0.1445  2.5190
74790SOL    HW234301   4.646  10.880   8.411  0.9964 -0.4698 -1.2205
74791SOL     OW34302   5.989  10.623   0.858  0.3249 -0.2787  0.6712
74791SOL    HW134303   5.893  10.620   0.850  0.4692 -2.3000 -1.1788
74791SOL    HW234304   6.020  10.613   0.768  2.3182  1.7085  1.0494
74792SOL     OW34305  11.394   6.456   6.687 -0.4395  0.4381  0.2057
74792SOL    HW134306  11.353   6.369   6.687 -0.3652  0.3726 -1.6833
74792SOL    HW234307  11.359   6.499   6.765 -0.6426 -1.2019  1.0641
74793SOL     OW34308   1.156  12.950   9.306  0.0165 -0.3218  0.5101
74793SOL    HW134309   1.218  12.966   9.235  0.1379 -3.0571 -0.1139
74793SOL    HW234310   1.204  12.970   9.386  1.3247 -1.2364 -0.0246
74794SOL     OW34311   4.459   9.735   7.873 -0.5944  0.1110 -0.9232
74794SOL    HW134312   4.499   9.763   7.790 -0.4739 -0.5316 -1.0848
74794SOL    HW234313   4.438   9.643   7.859  0.4728 -0.3178  0.1491
74795SOL     OW34314   3.739  10.893   7.807 -0.5110  0.4102 -0.1668
74795SOL    HW134315   3.646  10.876   7.792 -0.3438 -0.7361 -0.0184
74795SOL    HW234316   3.761  10.963   7.746 -1.6184  1.1756  0.2721
74796SOL     OW34317   3.118   9.808   9.982  0.7698  0.3741 -0.2445
74796SOL    HW134318   3.146   9.899   9.981 -2.7417  1.6641  1.4985
74796SOL    HW234319   3.118   9.784  10.075 -2.6154  0.2619 -0.1301
74797SOL     OW34320   3.191   6.192   7.079 -0.3659 -0.4963 -0.2865
74797SOL    HW134321   3.255   6.149   7.022 -0.5535 -1.4887  0.2235
74797SOL    HW234322   3.244   6.235   7.146 -0.2078 -0.9487 -0.1164
74798SOL     OW34323   1.966   8.262   2.740 -0.5619 -0.0893  0.0266
74798SOL    HW134324   2.025   8.331   2.772 -0.2484  0.1457 -1.0128
74798SOL    HW234325   1.879   8.301   2.745 -0.9964 -1.2088  3.7072
74799SOL     OW34326  11.606   2.159   4.670 -0.6486  0.6044  0.2605
74799SOL    HW134327  11.515   2.164   4.641 -0.5802  2.2681  0.2036
74799SOL    HW234328  11.605   2.099   4.745 -1.7721  0.5173  0.1817
74800SOL     OW34329   1.602   6.121   0.005  0.2576 -0.0758 -0.8844
74800SOL    HW134330   1.625   6.030   0.021 -0.0248 -0.1125 -0.6652
74800SOL    HW234331   1.670   6.171   0.050  0.0031 -0.1823 -0.3649
74801SOL     OW34332   2.551   5.792   3.604 -0.3911 -0.2728  0.0726
74801SOL    HW134333   2.623   5.845   3.639 -1.5565  1.3042  0.2232
74801SOL    HW234334   2.545   5.717   3.662  1.4524 -0.7407 -0.2616
74802SOL     OW34335   7.864   4.839  10.461  0.4684 -0.0176  0.2625
74802SOL    HW134336   7.936   4.896  10.489  0.5761  0.7091 -1.3802
74802SOL    HW234337   7.810   4.894  10.405 -1.6175 -0.4450  1.7639
74803SOL     OW34338   5.119   9.913   0.478  0.5360  0.3227 -0.1250
74803SOL    HW134339   5.086   9.993   0.437  0.3363  0.5634  0.4864
74803SOL    HW234340   5.197   9.941   0.525  2.2479 -0.4232 -2.3356
74804SOL     OW34341   1.704  12.278   5.028  0.0950 -0.1360  0.2528
74804SOL    HW134342   1.732  12.363   5.061 -0.5334  0.3216 -0.3427
74804SOL    HW234343   1.716  12.285   4.933 -2.6094  0.3657 -0.1294
74805SOL     OW34344   5.476  12.524   6.897  0.8326  0.3405 -0.0329
74805SOL    HW134345   5.418  12.539   6.972 -1.0864  0.4695 -1.4917
74805SOL    HW234346   5.527  12.605   6.890  2.3410 -0.3082  2.1307
74806SOL     OW34347   3.748   1.076   6.974 -0.6040 -0.5367 -0.0535
74806SOL    HW134348   3.835   1.103   7.002 -0.4385 -1.0566 -0.0523
74806SOL    HW234349   3.752   1.076   6.879 -1.2120  1.3769 -0.1157
74807SOL     OW34350   2.731  11.882   9.804  0.1937  0.4993 -0.3462
74807SOL    HW134351   2.818  11.865   9.842  0.0149 -0.6431 -0.4269
74807SOL    HW234352   2.748  11.945   9.735  0.7859  1.2235  0.4262
74808SOL     OW34353   7.162  12.229   8.044 -0.0929  0.0217  0.0472
74808SOL    HW134354   7.209  12.305   8.008  0.0284 -0.1134 -0.0834
74808SOL    HW234355   7.074  12.235   8.007  0.0514 -0.1522 -0.3203
74809SOL     OW34356  11.922   2.713   9.774  0.1172  0.2202  0.5384
74809SOL    HW134357  11.841   2.758   9.796 -0.1828 -0.1727  0.2383
74809SOL    HW234358  11.962   2.691   9.859  0.0727  0.7001  0.6838
74810SOL     OW34359  10.017  12.895  12.687 -0.6454 -0.0617  0.3123
74810SOL    HW134360  10.023  12.828  12.755 -0.2868 -1.0286 -0.6307
74810SOL    HW234361  10.108  12.920  12.669 -0.8194  1.4401  1.3511
74811SOL     OW34362   0.853   0.194   1.249  0.6284 -0.2652  0.2703
74811SOL    HW134363   0.900   0.236   1.321  1.4603  0.8235 -0.8458
74811SOL    HW234364   0.906   0.117   1.227  1.4326  0.4380 -0.3665
74812SOL     OW34365  12.504   5.431   7.825  0.4303 -0.1154 -0.4811
74812SOL    HW134366  12.505   5.503   7.888 -0.0405  1.1138 -1.8361
74812SOL    HW234367  12.412   5.421   7.802  0.4692 -1.2772 -0.1977
74813SOL     OW34368   9.709   8.864   6.936 -0.1255 -0.2192  0.6943
74813SOL    HW134369   9.780   8.836   6.994 -1.2575  1.1016  2.8680
74813SOL    HW234370   9.689   8.953   6.965 -2.4644 -0.4500 -0.0506
74814SOL     OW34371   7.430  12.127   9.181 -0.3439  0.3165 -0.5716
74814SOL    HW134372   7.409  12.060   9.246 -2.1950  0.3213 -1.1237
74814SOL    HW234373   7.466  12.199   9.232 -0.0097 -0.3954  0.2279
74815SOL     OW34374   0.408   3.656   0.227 -0.0908 -0.1871 -0.0734
74815SOL    HW134375   0.400   3.693   0.315 -1.3244 -2.3039  0.7859
74815SOL    HW234376   0.501   3.634   0.218  0.2403  0.9983  0.2528
74816SOL     OW34377   2.328  10.255   6.397 -0.2751  0.2111 -0.0396
74816SOL    HW134378   2.275  10.272   6.475 -0.6917  1.5161 -0.5925
74816SOL    HW234379   2.314  10.162   6.379 -0.0162 -0.1698  1.5393
74817SOL     OW34380   5.149   9.903  13.309  0.2521 -0.3063 -0.3002
74817SOL    HW134381   5.144   9.989  13.350 -0.3797 -0.2918 -0.3988
74817SOL    HW234382   5.234   9.902  13.266  1.6882 -0.9327  2.3287
74818SOL     OW34383   8.461   1.880  10.411  0.5900 -0.0042 -0.5356
74818SOL    HW134384   8.493   1.920  10.491  0.3478  0.7477 -0.8064
74818SOL    HW234385   8.405   1.946  10.371  0.8058 -0.3146 -1.3918
74819SOL     OW34386   1.013   5.699   3.392 -0.2803 -0.2675 -0.5284
74819SOL    HW134387   0.939   5.755   3.415 -0.4200 -0.8817  0.5799
74819SOL    HW234388   1.010   5.628   3.456  1.5323 -0.0742 -0.1836
74820SOL     OW34389   4.676  11.373   1.122  0.2371  0.3578 -0.3912
74820SOL    HW134390   4.656  11.310   1.052  1.9632  0.0133 -0.6184
74820SOL    HW234391   4.764  11.405   1.101 -0.5191  2.7699 -0.1981
74821SOL     OW34392   7.526  12.894   3.639  0.4072 -0.3710  0.1112
74821SOL    HW134393   7.533  12.800   3.654  0.9977 -0.3471 -0.0024
74821SOL    HW234394   7.612  12.920   3.605  0.8865  0.5314  1.8805
74822SOL     OW34395   1.384   7.144   6.191 -0.6835  0.0185  0.4057
74822SOL    HW134396   1.377   7.206   6.264 -0.2198 -0.7447  1.1062
74822SOL    HW234397   1.478   7.132   6.179 -0.7753 -0.7180  0.4102
74823SOL     OW34398   0.717   4.040   8.358  0.3857 -0.1084 -0.2822
74823SOL    HW134399   0.807   4.017   8.335  0.6614  1.3838 -0.7727
74823SOL    HW234400   0.713   4.135   8.351 -0.5146  0.1227  2.2943
74824SOL     OW34401  10.843   0.636  13.101  0.5109 -0.2846  0.0074
74824SOL    HW134402  10.892   0.601  13.028 -1.5814 -2.7351 -0.3481
74824SOL    HW234403  10.820   0.560  13.154  1.5491  1.3365  3.0462
74825SOL     OW34404  12.157   1.284  12.084 -0.6642 -0.5182  0.0357
74825SOL    HW134405  12.172   1.266  12.176  1.1373 -2.2786 -0.5410
74825SOL    HW234406  12.065   1.260  12.070 -0.7386 -0.9699  1.1962
74826SOL     OW34407  10.091   8.725   0.218  0.4539  0.6531  0.2062
74826SOL    HW134408  10.091   8.814   0.254 -0.4221  0.9683 -0.5034
74826SOL    HW234409  10.027   8.729   0.147  0.3733 -0.5646  0.1909
74827SOL     OW34410   4.253   3.304   2.165 -0.1791  0.5129  0.1703
74827SOL    HW134411   4.304   3.365   2.112 -0.9599 -0.1985 -1.4489
74827SOL    HW234412   4.174   3.288   2.114 -1.6783  0.9334  2.2237
74828SOL     OW34413   0.208  11.292   9.445 -0.1406  0.3991  0.0164
74828SOL    HW134414   0.202  11.197   9.454 -0.9788 -0.1151 -4.2060
74828SOL    HW234415   0.302  11.310   9.447  0.0388 -0.5059  0.6856
74829SOL     OW34416   9.970   1.321   5.443 -0.2286  0.0092  0.5480
74829SOL    HW134417  10.041   1.375   5.407 -0.5898  0.1470  0.0309
74829SOL    HW234418  10.000   1.231   5.432 -0.9241 -0.0290 -1.4290
74830SOL     OW34419   6.312   5.836   8.930 -0.1709 -0.3962  0.0393
74830SOL    HW134420   6.307   5.892   8.852 -0.6606  2.7743  2.1548
74830SOL    HW234421   6.223   5.836   8.965  0.2080 -1.1010  1.0358
74831SOL     OW34422   6.190   6.091  11.313  0.3621  0.4423  0.1415
74831SOL    HW134423   6.110   6.128  11.276 -0.8899 -0.7630  1.5715
74831SOL    HW234424   6.171   5.998  11.324  2.4260 -0.1339 -0.6631
74832SOL     OW34425  10.688  13.042   8.617  0.9814  0.6640  0.6577
74832SOL    HW134426  10.640  12.964   8.644  0.6660  0.5875 -0.1074
74832SOL    HW234427  10.738  13.068   8.695  1.2253 -0.3974  0.8609
74833SOL     OW34428   6.739   4.441  10.217  0.0441  0.1227  0.0971
74833SOL    HW134429   6.809   4.452  10.153 -1.4433 -0.7925 -1.7944
74833SOL    HW234430   6.783   4.449  10.302  2.2249  0.6561 -0.9949
74834SOL     OW34431   4.664  12.154  12.217  0.7062 -0.5725  0.1023
74834SOL    HW134432   4.646  12.205  12.138  1.8860  0.6568  0.5726
74834SOL    HW234433   4.716  12.213  12.272 -1.8362 -0.5505  2.7585
74835SOL     OW34434   3.160   7.986   5.483  0.5820  0.0451  0.1896
74835SOL    HW134435   3.176   8.076   5.455  1.9763 -0.1129  0.3971
74835SOL    HW234436   3.241   7.960   5.528  0.1275 -1.2374  0.3110
74836SOL     OW34437   7.453   1.631   3.501  0.0733  0.0744  0.5010
74836SOL    HW134438   7.460   1.674   3.415  2.5486  1.2612  1.2011
74836SOL    HW234439   7.528   1.572   3.504 -0.5129 -0.6534  1.5173
74837SOL     OW34440   6.903   5.717  12.736 -0.1259 -0.0689 -0.0329
74837SOL    HW134441   6.860   5.646  12.783 -1.8123  1.1898  0.4189
74837SOL    HW234442   6.841   5.790  12.741  0.0772  0.4611 -3.2807
74838SOL     OW34443   9.373  11.596  13.191 -0.9222 -0.5107  0.5685
74838SOL    HW134444   9.309  11.547  13.140  1.3011 -0.9964 -1.9914
74838SOL    HW234445   9.367  11.685  13.158  0.5184 -0.8207 -0.6272
74839SOL     OW34446  11.511   2.978   6.164  0.2641  0.4022 -0.1832
74839SOL    HW134447  11.493   3.049   6.102  0.1118  0.8626  0.3886
74839SOL    HW234448  11.466   2.902   6.126 -0.6405  0.9095 -0.1467
74840SOL     OW34449   5.984  13.204  12.329 -0.0617  0.2033  0.0746
74840SOL    HW134450   6.074  13.215  12.297  0.6348 -4.0458 -0.1048
74840SOL    HW234451   5.931  13.260  12.273  2.2665  1.2704 -1.2093
74841SOL     OW34452   5.589   2.467   5.913 -0.3088 -0.9901 -1.3957
74841SOL    HW134453   5.664   2.515   5.949  0.5514 -2.9460 -0.3789
74841SOL    HW234454   5.520   2.478   5.979  0.6461 -2.9615  0.0625
74842SOL     OW34455   4.519   5.878   6.000 -0.8626 -0.2890  0.2099
74842SOL    HW134456   4.554   5.948   5.945 -1.4996  1.0092  1.3646
74842SOL    HW234457   4.460   5.829   5.943 -1.1321  0.7086 -0.3921
74843SOL     OW34458   1.549   0.936   3.904  0.1441 -0.4623 -0.2449
74843SOL    HW134459   1.572   0.941   3.996  0.0632 -0.7029 -0.2114
74843SOL    HW234460   1.456   0.915   3.903  0.3836 -1.6067 -0.3741
74844SOL     OW34461   1.260  13.151   3.022 -0.4313 -0.3396  0.3213
74844SOL    HW134462   1.297  13.240   3.023 -1.6237  0.1860 -0.3736
74844SOL    HW234463   1.320  13.101   2.967 -0.4423  0.3708 -0.3546
74845SOL     OW34464   3.268   5.463   2.122  0.6517  0.2411 -0.1440
74845SOL    HW134465   3.235   5.455   2.033  0.3318  0.1486 -0.0187
74845SOL    HW234466   3.336   5.397   2.129  1.6894  1.2006 -0.7744
74846SOL     OW34467   9.299  11.583   5.839  0.2009 -0.0242  0.0133
74846SOL    HW134468   9.290  11.539   5.755  0.4953 -0.0862  0.0142
74846SOL    HW234469   9.216  11.630   5.851 -0.8691 -2.0267  0.8602
74847SOL     OW34470   8.946  11.966   1.697  0.2898  0.1597 -0.8599
74847SOL    HW134471   8.962  11.876   1.726  0.9076  1.1111  2.1411
74847SOL    HW234472   9.030  11.996   1.662  0.3134 -0.1498 -1.0736
74848SOL     OW34473   0.485  12.240   7.872  0.2316 -0.5418 -0.3778
74848SOL    HW134474   0.441  12.181   7.934  1.8501 -0.8686  0.5083
74848SOL    HW234475   0.454  12.212   7.786  0.9826 -2.7547  0.0029
74849SOL     OW34476   1.425  12.330   5.935  0.6919 -0.1026 -0.6284
74849SOL    HW134477   1.520  12.337   5.944  0.8940  0.2023 -2.4703
74849SOL    HW234478   1.393  12.419   5.950  0.8126 -0.0043 -0.9334
74850SOL     OW34479   4.890   1.626   7.384  0.3899  0.2583 -0.6507
74850SOL    HW134480   4.935   1.546   7.412 -0.5775 -0.1088 -0.0822
74850SOL    HW234481   4.876   1.675   7.465 -0.1713  0.3833 -0.8151
74851SOL     OW34482   2.239   6.028   9.626  0.4137  0.6323 -0.5292
74851SOL    HW134483   2.211   6.035   9.717 -1.5229 -0.9392 -0.9583
74851SOL    HW234484   2.330   6.000   9.632 -0.4737 -2.2949  0.9966
74852SOL     OW34485   9.339  11.147   7.028  0.2264  0.3945 -0.3132
74852SOL    HW134486   9.348  11.222   7.086 -0.0253  0.3826 -0.2582
74852SOL    HW234487   9.249  11.116   7.042 -0.6558  1.7960 -2.3938
74853SOL     OW34488   2.302   4.405  11.204  0.1936  0.0965  0.0609
74853SOL    HW134489   2.259   4.320  11.216 -0.7151  0.3583 -1.1566
74853SOL    HW234490   2.317   4.411  11.109 -1.7786  2.2142 -0.2103
74854SOL     OW34491   6.787   9.797   6.131 -0.2111 -0.0426  0.4485
74854SOL    HW134492   6.708   9.781   6.080  0.7539 -1.4186 -0.7018
74854SOL    HW234493   6.766   9.762   6.218 -1.5432  1.4708  0.7690
74855SOL     OW34494   9.145   1.029   4.029  0.2340 -0.3212 -0.3184
74855SOL    HW134495   9.161   1.033   4.124 -0.0129 -1.5200 -0.2087
74855SOL    HW234496   9.124   0.937   4.013 -2.3647  0.3274 -1.1145
74856SOL     OW34497   1.197  10.498   0.926 -0.2507 -0.2955 -0.0029
74856SOL    HW134498   1.268  10.465   0.982  0.4782 -0.1788 -0.8369
74856SOL    HW234499   1.173  10.582   0.964  0.3363 -0.1533  0.0649
74857SOL     OW34500   6.202   5.122   1.929 -0.2564 -0.2344  0.3767
74857SOL    HW134501   6.210   5.033   1.966  2.0053  1.0529  3.4269
74857SOL    HW234502   6.199   5.108   1.834 -2.3966 -3.6382  0.7621
74858SOL     OW34503  10.051   7.125   9.278 -0.9497 -0.1070  0.4235
74858SOL    HW134504  10.130   7.133   9.331 -1.1095 -1.5282  0.9020
74858SOL    HW234505  10.056   7.199   9.216  1.5489 -1.0405 -0.6208
74859SOL     OW34506   4.765   6.314   5.645  0.2151  0.3212 -0.1961
74859SOL    HW134507   4.731   6.387   5.697 -0.8784 -0.1416 -0.2446
74859SOL    HW234508   4.738   6.236   5.693 -1.1933 -0.1356 -1.6518
74860SOL     OW34509   4.980   7.607   2.526 -0.3031  0.5036 -0.3418
74860SOL    HW134510   4.970   7.520   2.566  0.0804  0.2804 -0.7237
74860SOL    HW234511   4.976   7.591   2.432 -0.4388  0.9294 -0.4089
74861SOL     OW34512  11.308   6.292  11.443 -0.0752  0.0439 -0.2098
74861SOL    HW134513  11.352   6.260  11.364  0.2770 -1.6495  0.6097
74861SOL    HW234514  11.271   6.376  11.418  1.3479  0.2685 -1.7187
74862SOL     OW34515   3.511   9.540   5.168  0.5850 -0.2599 -0.1335
74862SOL    HW134516   3.598   9.500   5.164  0.7346  0.1358 -1.8080
74862SOL    HW234517   3.450   9.466   5.161  0.8486 -0.3735 -1.8886
74863SOL     OW34518   2.452   8.056  10.067 -0.3391  0.7963 -0.2923
74863SOL    HW134519   2.367   8.095  10.047 -0.4322  0.4149 -0.6510
74863SOL    HW234520   2.513   8.101  10.009 -0.5867 -0.2126 -1.3690
74864SOL     OW34521   4.191   3.798   5.425  0.2544 -0.0913  0.4871
74864SOL    HW134522   4.191   3.893   5.415  0.8801 -0.2090 -0.7481
74864SOL    HW234523   4.110   3.779   5.472 -1.1942  0.8564 -1.4780
74865SOL     OW34524  11.167   5.232   2.981  0.1244 -0.1001 -0.1030
74865SOL    HW134525  11.188   5.244   3.073 -1.5220 -0.1056  0.2992
74865SOL    HW234526  11.115   5.309   2.958  0.2132 -0.2759 -0.9393
74866SOL     OW34527  12.182  11.012  11.198  0.0428  0.1035  0.2155
74866SOL    HW134528  12.173  11.102  11.166  1.4234  0.1814 -0.0420
74866SOL    HW234529  12.122  10.961  11.143 -2.1684  1.0894  1.5929
74867SOL     OW34530  12.922   7.454   0.118 -0.2328 -0.1642  0.3549
74867SOL    HW134531  12.861   7.381   0.120  1.4063 -1.5934  2.0813
74867SOL    HW234532  13.003   7.416   0.084 -0.1327  1.5825 -1.5194
74868SOL     OW34533   2.585   7.740   2.031 -0.3513 -0.5647  0.6051
74868SOL    HW134534   2.606   7.663   2.084 -1.7292 -1.6009 -0.2782
74868SOL    HW234535   2.534   7.795   2.090 -1.7185 -1.6261  0.4703
74869SOL     OW34536  10.949   6.899  10.790  0.2856 -0.4298  0.1973
74869SOL    HW134537  10.874   6.867  10.740 -0.6029  0.0393  1.1775
74869SOL    HW234538  10.978   6.824  10.842  0.6121 -0.6534 -0.2935
74870SOL     OW34539   9.900   9.702  10.046 -0.3476  0.2360 -0.0643
74870SOL    HW134540   9.871   9.650   9.971  0.5694 -0.4651  0.0504
74870SOL    HW234541   9.844   9.673  10.118  0.5426 -1.0333  0.1351
74871SOL     OW34542   9.597   0.869   0.529  0.1503  0.7729  0.1015
74871SOL    HW134543   9.534   0.933   0.564  0.6325  1.5097 -0.3558
74871SOL    HW234544   9.638   0.914   0.455  1.5885  0.5057  0.7073
74872SOL     OW34545   1.916   4.367   4.093  1.0464  0.1342 -0.0953
74872SOL    HW134546   1.952   4.364   4.004  0.8082  0.9667 -0.2278
74872SOL    HW234547   1.900   4.460   4.109  0.8467 -0.0365  0.7253
74873SOL     OW34548   5.375   0.571   5.698  0.3828  0.0417 -0.3500
74873SOL    HW134549   5.456   0.610   5.731 -0.5907  1.2684  0.6758
74873SOL    HW234550   5.367   0.604   5.609  0.6415  0.5094 -0.2002
74874SOL     OW34551  12.746   8.905   4.534 -0.5395 -0.6268  0.1864
74874SOL    HW134552  12.680   8.894   4.466 -0.7947  0.4482  0.2474
74874SOL    HW234553  12.707   8.867   4.613 -1.2383  0.3179  0.3090
74875SOL     OW34554   7.454  10.111  10.561 -0.8335  0.8432 -0.1559
74875SOL    HW134555   7.542  10.141  10.538 -1.1478  1.0170 -1.1841
74875SOL    HW234556   7.465  10.017  10.580 -0.7819  0.2982 -2.5690
74876SOL     OW34557   6.671   2.205  10.851 -0.1246 -0.0456  0.1721
74876SOL    HW134558   6.694   2.117  10.881  1.2973 -0.1041 -0.9986
74876SOL    HW234559   6.606   2.190  10.783 -1.0939 -0.0757  1.0784
74877SOL     OW34560   8.571   9.416   9.569  0.3754  0.5106 -0.7499
74877SOL    HW134561   8.562   9.490   9.630  0.2091  0.0394 -0.1912
74877SOL    HW234562   8.658   9.427   9.531  1.2571 -0.1781  0.9356
74878SOL     OW34563  11.996  13.269   4.018  0.0533  0.5688  0.2470
74878SOL    HW134564  11.975  13.358   4.047 -0.1584  0.1700  1.3609
74878SOL    HW234565  11.911  13.226   4.007  0.1599  0.4337 -0.0699
74879SOL     OW34566   1.106  11.212   6.167 -0.1145  0.0757  0.0754
74879SOL    HW134567   1.104  11.263   6.248  0.3986  0.0979  0.0717
74879SOL    HW234568   1.190  11.232   6.128 -0.6710  0.6724 -0.8593
74880SOL     OW34569   6.344   4.885   3.883  0.1263  0.2571 -0.3451
74880SOL    HW134570   6.341   4.960   3.824 -0.9734  0.2813 -0.2751
74880SOL    HW234571   6.310   4.812   3.831  1.2898 -0.2321 -0.4492
74881SOL     OW34572  11.414  10.580  10.992  0.2920  0.6164 -0.5843
74881SOL    HW134573  11.392  10.546  10.906  0.5096 -0.3203 -0.2740
74881SOL    HW234574  11.378  10.517  11.054 -0.5075  1.6502  0.0475
74882SOL     OW34575   7.175  13.148   9.387 -0.0576  0.0652 -0.2028
74882SOL    HW134576   7.153  13.073   9.442 -0.9139 -1.3953 -2.3927
74882SOL    HW234577   7.101  13.207   9.397 -0.3112 -0.2867  0.0339
74883SOL     OW34578  10.632   6.524   7.745  0.4713 -0.1908 -0.0709
74883SOL    HW134579  10.569   6.552   7.680  0.8385  0.5046 -0.1289
74883SOL    HW234580  10.598   6.440   7.777 -1.2854  0.8580  0.9701
74884SOL     OW34581  11.073  11.681   0.396  0.3014  0.0464  0.3545
74884SOL    HW134582  10.978  11.689   0.396  0.3549  0.6947  0.5968
74884SOL    HW234583  11.096  11.672   0.489  0.4216 -0.9038  0.2499
74885SOL     OW34584  11.852  12.253   4.009  0.0056  0.2654 -0.0213
74885SOL    HW134585  11.845  12.248   3.914  1.5618 -0.5738 -0.1366
74885SOL    HW234586  11.789  12.189   4.041 -1.0585  1.0740 -0.4402
74886SOL     OW34587  13.264   0.194  10.225  0.1485  0.0673  0.3137
74886SOL    HW134588  13.349   0.160  10.197 -0.0419 -0.1144 -0.0525
74886SOL    HW234589  13.223   0.120  10.271 -0.8695 -0.7228 -1.7394
74887SOL     OW34590   0.988   7.074  12.590 -0.2495 -0.1504 -0.2049
74887SOL    HW134591   0.987   7.169  12.586  1.0461 -0.0664  0.6493
74887SOL    HW234592   0.906   7.047  12.550 -0.4187  1.2996 -0.9033
74888SOL     OW34593  11.956  11.006   7.409 -0.7649  0.4839  0.1155
74888SOL    HW134594  11.901  11.070   7.364 -0.2133 -0.5147 -2.1158
74888SOL    HW234595  11.914  10.922   7.391  0.5655 -0.1348 -0.2275
74889SOL     OW34596   3.370  11.016   5.941 -0.0601  0.7377 -0.4143
74889SOL    HW134597   3.296  11.075   5.941 -1.1241 -0.5512 -1.0084
74889SOL    HW234598   3.434  11.058   5.999 -1.0613  2.0733 -0.2292
74890SOL     OW34599   0.226   3.825   0.088  0.0941 -0.1614  0.1978
74890SOL    HW134600   0.272   3.904   0.118  0.2004  0.2030 -0.8719
74890SOL    HW234601   0.275   3.753   0.127  1.2487  0.2382 -0.4547
74891SOL     OW34602   5.036   1.589   6.174  0.1904 -0.2065  0.0975
74891SOL    HW134603   4.962   1.539   6.138  0.3287  0.7753 -1.6437
74891SOL    HW234604   5.024   1.584   6.269 -1.1588 -1.4774 -0.1012
74892SOL     OW34605   4.647   4.229   3.497 -0.2550 -0.5152 -0.3706
74892SOL    HW134606   4.605   4.145   3.515 -1.4946 -0.1459 -1.3873
74892SOL    HW234607   4.637   4.241   3.403 -0.0907  0.7616 -0.2462
74893SOL     OW34608  10.020   1.292   0.582 -0.4761  0.2627  0.1747
74893SOL    HW134609  10.080   1.242   0.639 -0.4493  2.8248  2.6097
74893SOL    HW234610  10.065   1.375   0.567 -0.9424  0.0481 -2.9419
74894SOL     OW34611   4.692   5.462   4.062 -0.1371 -0.4487 -0.1213
74894SOL    HW134612   4.651   5.398   4.120  1.2072 -2.0434 -0.8383
74894SOL    HW234613   4.743   5.518   4.120 -0.0166 -1.0775  0.3913
74895SOL     OW34614   0.389   9.642  13.045  0.4537  0.6182 -0.5982
74895SOL    HW134615   0.453   9.613  12.979  1.0721  0.4093  0.0854
74895SOL    HW234616   0.369   9.564  13.096  1.8329  1.2510  1.0052
74896SOL     OW34617   6.758   7.345   7.396 -0.5140 -0.4219 -0.6542
74896SOL    HW134618   6.843   7.313   7.424 -0.7909 -0.4939  0.1312
74896SOL    HW234619   6.697   7.274   7.419 -1.0651  0.4593  0.6747
74897SOL     OW34620  11.616  11.039   4.065  0.2502 -0.5973  0.0032
74897SOL    HW134621  11.649  11.086   4.142  0.1605 -0.8469  0.1941
74897SOL    HW234622  11.543  10.987   4.098  0.6692 -1.2592 -0.1119
74898SOL     OW34623  11.926   1.845  11.123  0.2572 -0.3200  0.2311
74898SOL    HW134624  11.908   1.918  11.065 -0.1691 -0.4101  0.2435
74898SOL    HW234625  12.016   1.819  11.103  0.5241  0.4064  0.4524
74899SOL     OW34626   2.381   1.845  11.428  0.0666 -0.5966 -0.0389
74899SOL    HW134627   2.352   1.933  11.454 -2.9055 -1.7768  1.0912
74899SOL    HW234628   2.346   1.787  11.496  0.7423 -2.8246 -1.4715
74900SOL     OW34629   1.919  10.323   8.965  0.1277  0.1827  0.3911
74900SOL    HW134630   1.993  10.282   9.011  0.1028  0.8105  0.9967
74900SOL    HW234631   1.958  10.396   8.917  0.3825 -1.2261 -1.6960
74901SOL     OW34632   7.523   7.965   8.131  0.2846 -0.2371 -0.1579
74901SOL    HW134633   7.601   7.925   8.092 -0.7110 -0.7398 -1.7169
74901SOL    HW234634   7.555   8.006   8.212  2.3218  0.2426 -1.1332
74902SOL     OW34635   1.999  12.683   1.250 -0.1922 -0.3066 -0.1508
74902SOL    HW134636   2.046  12.616   1.300  0.0441  0.5107  0.7663
74902SOL    HW234637   2.009  12.762   1.302 -4.2766 -0.4505  1.2876
74903SOL     OW34638   3.221   3.324   1.178  0.1316 -0.4317 -0.1960
74903SOL    HW134639   3.206   3.278   1.261 -1.0199 -1.0797 -0.7487
74903SOL    HW234640   3.143   3.306   1.125  0.3848  0.8078 -1.0538
74904SOL     OW34641   9.237   0.406  11.785 -0.0687 -0.0227 -0.6945
74904SOL    HW134642   9.311   0.353  11.817  0.6313  1.6596  0.6267
74904SOL    HW234643   9.272   0.453  11.709 -0.6908 -1.3893 -1.8700
74905SOL     OW34644  12.007   6.481  12.545 -0.2469 -0.2146  0.1966
74905SOL    HW134645  12.019   6.393  12.509  1.0964 -0.0494  0.2121
74905SOL    HW234646  12.067   6.485  12.619  0.4508  1.0680 -0.4226
74906SOL     OW34647   8.248   1.097  10.049  0.3201 -0.3893  0.1015
74906SOL    HW134648   8.284   1.095  10.137  0.6259 -0.8485 -0.0312
74906SOL    HW234649   8.269   1.011  10.012  0.4826 -0.0885 -0.5280
74907SOL     OW34650  12.156  10.662   4.025  0.4053 -0.5617  0.4519
74907SOL    HW134651  12.203  10.680   3.944  1.0093 -1.5678  0.5761
74907SOL    HW234652  12.212  10.698   4.094  0.5776 -0.9868  0.5333
74908SOL     OW34653   4.123  12.170   5.072 -0.0779 -0.5963  0.8758
74908SOL    HW134654   4.196  12.231   5.061 -1.6332  1.2670  0.2140
74908SOL    HW234655   4.109  12.165   5.166 -0.1413  0.3602  0.9253
74909SOL     OW34656   4.566   3.766  11.296  0.2079  0.2806  0.1479
74909SOL    HW134657   4.478   3.796  11.319  0.6343  1.4680  0.3140
74909SOL    HW234658   4.621   3.798  11.368  1.2459  2.2751 -1.4197
74910SOL     OW34659   9.292   8.337  12.916 -0.2107  0.1520  0.8079
74910SOL    HW134660   9.375   8.288  12.914 -0.9069 -1.3639 -3.4894
74910SOL    HW234661   9.230   8.277  12.958  0.0921 -0.3683  0.5283
74911SOL     OW34662  13.020   7.386   3.836  0.0885 -0.4335  0.1887
74911SOL    HW134663  12.949   7.417   3.780 -0.2005 -1.4350 -0.0173
74911SOL    HW234664  13.098   7.390   3.780 -0.0979 -0.8678 -0.1179
74912SOL     OW34665   0.703   9.905   6.133  0.4705 -0.4935 -1.0408
74912SOL    HW134666   0.795   9.931   6.138  0.2214  0.2238  1.6329
74912SOL    HW234667   0.693   9.837   6.200 -1.4158  1.3596  0.7184
74913SOL     OW34668  11.314   9.020  12.850  0.4335 -0.3739  0.2919
74913SOL    HW134669  11.226   9.034  12.884 -0.7608 -3.0961 -1.3124
74913SOL    HW234670  11.333   9.098  12.798 -0.9299  0.3366  0.8170
74914SOL     OW34671   5.766   8.931   0.879  0.0738 -0.0522 -0.2837
74914SOL    HW134672   5.694   8.928   0.942  0.7524  0.9844  0.5799
74914SOL    HW234673   5.829   8.866   0.912 -0.5322 -1.1232 -1.1644
74915SOL     OW34674  10.285   1.980   1.247 -0.0041 -0.0364 -0.9324
74915SOL    HW134675  10.313   1.989   1.339 -0.2574  1.7011 -0.9900
74915SOL    HW234676  10.309   1.891   1.223  0.7167 -0.2861  0.6141
74916SOL     OW34677   3.217   5.414   3.888 -0.0957  0.0009  0.3301
74916SOL    HW134678   3.133   5.457   3.902  0.6308  2.0801 -1.2977
74916SOL    HW234679   3.194   5.331   3.846 -1.4198 -0.4348  1.8173
74917SOL     OW34680   5.247   2.111   6.457 -0.0995  0.1249 -0.0534
74917SOL    HW134681   5.175   2.163   6.422  0.7966  1.6844  0.3393
74917SOL    HW234682   5.236   2.117   6.552  1.4118  1.6866  0.0515
74918SOL     OW34683   5.657  10.730   2.506 -0.3756 -0.2208 -0.3930
74918SOL    HW134684   5.693  10.641   2.506  1.9366  0.6367  0.1702
74918SOL    HW234685   5.647  10.752   2.599  0.0617  0.4467 -0.4946
74919SOL     OW34686   3.565   3.725   1.714 -0.5137 -0.3918  0.4419
74919SOL    HW134687   3.494   3.753   1.773 -1.5194 -1.2447 -0.3238
74919SOL    HW234688   3.520   3.678   1.643  0.6617  0.4998 -0.9580
74920SOL     OW34689   3.937   3.438   8.506  0.1526 -0.1920 -0.2658
74920SOL    HW134690   4.006   3.389   8.550  0.0849 -0.0893 -0.0401
74920SOL    HW234691   3.877   3.372   8.472 -0.8405 -0.2609  1.5034
74921SOL     OW34692   4.876   7.831   0.693  0.1624 -0.1468 -0.0598
74921SOL    HW134693   4.840   7.900   0.750  2.0846  0.8735 -0.0152
74921SOL    HW234694   4.879   7.871   0.606  2.1982  0.2420  0.1394
74922SOL     OW34695  10.348  11.399   0.520 -0.0726 -0.6393  0.4949
74922SOL    HW134696  10.259  11.433   0.522 -1.0917 -2.7175 -2.4925
74922SOL    HW234697  10.403  11.476   0.532 -2.2572  0.9911  0.6621
74923SOL     OW34698  11.892   6.971   8.066 -0.1355 -0.1669 -0.7440
74923SOL    HW134699  11.843   6.936   7.991 -1.2643 -0.0062 -0.1036
74923SOL    HW234700  11.827   6.976   8.136  0.5095  1.1713 -0.2091
74924SOL     OW34701   7.939   5.475   5.104 -0.7224  0.5768  0.4838
74924SOL    HW134702   7.872   5.540   5.128 -0.9504  0.4920  0.0765
74924SOL    HW234703   7.926   5.404   5.167 -0.6988  0.7718  0.7123
74925SOL     OW34704   4.052   5.973   4.909 -0.3607 -0.3834 -0.2255
74925SOL    HW134705   4.083   6.057   4.875  3.4908 -1.5715 -0.1727
74925SOL    HW234706   4.022   5.993   4.998 -0.9390  1.1412 -0.7364
74926SOL     OW34707   5.979   9.261   2.999  0.4365  0.2693 -0.2995
74926SOL    HW134708   5.904   9.239   3.054 -0.8616  1.3653 -1.5517
74926SOL    HW234709   6.008   9.347   3.030  0.3965  0.3968 -0.6089
74927SOL     OW34710   7.522   8.621   8.173  0.5723  0.0278  0.0930
74927SOL    HW134711   7.592   8.608   8.109 -1.5462 -0.3552 -2.3337
74927SOL    HW234712   7.564   8.666   8.246  3.2050  0.2544 -1.4285
74928SOL     OW34713  11.152   9.917  12.105  0.5918  0.1385 -0.7047
74928SOL    HW134714  11.134   9.824  12.090 -1.1196  0.1046  1.1376
74928SOL    HW234715  11.221   9.918  12.171 -0.4805  0.1164  0.4509
74929SOL     OW34716   2.207   0.934   3.333  0.3384 -0.2089  0.3983
74929SOL    HW134717   2.171   0.848   3.312 -0.6650  0.3109 -0.1030
74929SOL    HW234718   2.200   0.940   3.428 -0.6474 -0.2519  0.3429
74930SOL     OW34719  11.730   3.325   0.140 -0.1410  0.5375 -0.0403
74930SOL    HW134720  11.796   3.378   0.183 -1.6120  1.4695  1.1934
74930SOL    HW234721  11.654   3.383   0.133 -1.4295 -1.0366  0.2620
74931SOL     OW34722   1.865   2.459  11.944 -0.0028  0.4901  0.3522
74931SOL    HW134723   1.781   2.443  11.901 -0.9504 -1.2417  2.6220
74931SOL    HW234724   1.868   2.396  12.016  3.0436  0.8504  0.6837
74932SOL     OW34725  11.533   1.716   3.968  0.1054 -0.1554  0.2042
74932SOL    HW134726  11.485   1.698   4.048 -0.0166 -2.5455 -0.3365
74932SOL    HW234727  11.580   1.635   3.949  0.3722  0.4318 -1.9555
74933SOL     OW34728  10.299   2.804   7.224  0.3545 -0.1815  0.1131
74933SOL    HW134729  10.251   2.759   7.294 -2.8605  1.1949 -1.0106
74933SOL    HW234730  10.231   2.842   7.169  2.7790  0.3111 -2.8061
74934SOL     OW34731   4.068   1.956   2.172  0.1161  0.1603  0.3411
74934SOL    HW134732   4.020   2.034   2.146 -0.0982  0.6940  2.1854
74934SOL    HW234733   4.152   1.988   2.204 -0.6182 -0.0914  2.7546
74935SOL     OW34734   0.586   3.178   9.247  0.2737  0.0608 -0.2316
74935SOL    HW134735   0.527   3.246   9.213 -1.5715 -1.3451 -0.0056
74935SOL    HW234736   0.616   3.131   9.169 -2.1083 -1.6917 -0.1938
74936SOL     OW34737  12.368  11.975  12.119  0.2443  0.0645 -0.0955
74936SOL    HW134738  12.462  11.980  12.103  0.1797  0.1835 -0.4378
74936SOL    HW234739  12.344  12.062  12.152  0.2973 -0.0444  0.2388
74937SOL     OW34740   4.959   3.922   9.716 -0.9757  0.2992 -0.3230
74937SOL    HW134741   4.976   3.866   9.791 -1.1283 -0.0556 -0.5531
74937SOL    HW234742   4.962   4.011   9.752  2.6436  0.4225 -0.5175
74938SOL     OW34743   3.773   7.331   6.642  0.0066  0.6919  0.3705
74938SOL    HW134744   3.716   7.396   6.602  0.0212 -0.0136 -0.8220
74938SOL    HW234745   3.855   7.338   6.595  0.2207  0.2428  0.6691
74939SOL     OW34746   9.725   5.427   7.893  0.6503  0.1657  0.7703
74939SOL    HW134747   9.789   5.461   7.831  0.6039 -1.9705 -0.5288
74939SOL    HW234748   9.758   5.341   7.917 -1.1047 -0.4893  0.9998
74940SOL     OW34749   1.708   5.807  10.883 -0.4059 -0.4592  0.1122
74940SOL    HW134750   1.680   5.761  10.962 -1.4612 -1.9666 -1.0965
74940SOL    HW234751   1.653   5.885  10.880  1.0889  0.7727  1.9385
74941SOL     OW34752   2.247   2.126   2.709 -0.2868  0.1517  0.2939
74941SOL    HW134753   2.299   2.198   2.746  1.4674 -0.1087 -1.4770
74941SOL    HW234754   2.295   2.047   2.734 -0.7424 -0.2221 -0.0023
74942SOL     OW34755  12.255   3.085   0.425 -0.0756 -0.2808  0.7364
74942SOL    HW134756  12.215   3.154   0.373  1.2474 -0.7466 -0.9700
74942SOL    HW234757  12.187   3.061   0.489 -1.3573  1.0322 -0.0834
74943SOL     OW34758  13.012   3.699   5.126 -0.4678 -0.1228 -0.1542
74943SOL    HW134759  13.006   3.690   5.221 -0.2973  0.3417 -0.0954
74943SOL    HW234760  13.080   3.766   5.113  0.1829 -0.8523 -0.6240
74944SOL     OW34761   0.855   0.630   5.242  0.3003  0.0334 -0.2214
74944SOL    HW134762   0.799   0.579   5.183  0.8362  1.4442 -2.0587
74944SOL    HW234763   0.795   0.686   5.291 -0.1983 -1.5104  1.0093
74945SOL     OW34764   0.155   1.545   0.120 -0.4773 -0.6981 -0.3377
74945SOL    HW134765   0.119   1.459   0.101  0.3726 -0.9136 -1.0540
74945SOL    HW234766   0.228   1.527   0.180 -0.0023 -0.5292 -0.8612
74946SOL     OW34767   0.311   3.502   7.112 -0.7653 -0.0595 -0.2798
74946SOL    HW134768   0.218   3.500   7.087 -0.9337  0.4597  0.2661
74946SOL    HW234769   0.310   3.530   7.204 -0.1903 -2.0978  0.3887
74947SOL     OW34770  10.458   8.869   7.581  0.1695 -0.2855 -0.1829
74947SOL    HW134771  10.542   8.907   7.608  0.3583  0.6335 -1.9507
74947SOL    HW234772  10.481   8.797   7.523 -0.2716 -0.1617 -0.5154
74948SOL     OW34773   0.943   2.715  10.276  0.0926  0.3527 -0.8384
74948SOL    HW134774   0.885   2.684  10.207 -0.9295  1.3890 -0.4676
74948SOL    HW234775   0.928   2.809  10.280  0.5991  0.3993  0.3826
74949SOL     OW34776  12.964   7.293  11.615 -0.2570  0.8926 -0.3284
74949SOL    HW134777  13.047   7.271  11.658 -1.3882 -1.7363  0.7463
74949SOL    HW234778  12.954   7.225  11.548 -3.0128 -0.9639  1.7469
74950SOL     OW34779  13.140   3.879   5.578 -0.0645 -0.0705  0.1755
74950SOL    HW134780  13.207   3.828   5.623 -0.6953 -0.0377  1.1987
74950SOL    HW234781  13.083   3.813   5.538  0.6501 -0.0948 -0.8404
74951SOL     OW34782   6.423   6.883  11.971  0.2467  0.1064  0.3064
74951SOL    HW134783   6.366   6.888  11.894  3.0471  1.9631 -1.8609
74951SOL    HW234784   6.417   6.970  12.011  2.5732  0.9143 -0.9033
74952SOL     OW34785   0.625   2.172   3.252  0.3316  0.0143  0.6029
74952SOL    HW134786   0.577   2.104   3.205 -0.2059  0.9146 -0.1830
74952SOL    HW234787   0.585   2.254   3.224  1.0951  0.6787  1.3837
74953SOL     OW34788   7.482  12.514   2.891 -0.5694 -0.3643 -0.3344
74953SOL    HW134789   7.458  12.528   2.982  0.5366 -1.1261  0.0833
74953SOL    HW234790   7.453  12.594   2.846 -0.0934  0.4996  0.8686
74954SOL     OW34791  12.825   2.059   3.180  0.5533 -0.4484 -0.1505
74954SOL    HW134792  12.807   2.007   3.259  0.3437  0.8578  0.7062
74954SOL    HW234793  12.915   2.036   3.156  0.9098 -0.2748  0.9530
74955SOL     OW34794   4.859  11.162   6.187  0.1279 -0.7972  0.5184
74955SOL    HW134795   4.891  11.107   6.115 -1.5835 -0.2548 -0.7235
74955SOL    HW234796   4.774  11.124   6.209 -0.5476  0.6119  0.4454
74956SOL     OW34797   7.500  11.387   0.689  0.5702 -0.2452  0.1664
74956SOL    HW134798   7.545  11.445   0.628  0.4335  0.5860  0.8406
74956SOL    HW234799   7.516  11.425   0.775  0.1598 -1.0007  0.5890
74957SOL     OW34800   3.909   6.695   4.413  0.2885 -0.0370  0.2755
74957SOL    HW134801   3.880   6.785   4.394  2.0792  1.0554  2.2728
74957SOL    HW234802   3.859   6.671   4.491 -2.1074 -1.8905 -1.6739
74958SOL     OW34803   0.535   5.660   9.413 -0.4963  0.7635 -0.0664
74958SOL    HW134804   0.520   5.644   9.320  0.9654 -1.8099  0.0396
74958SOL    HW234805   0.447   5.659   9.452 -1.0864  1.3938 -1.3316
74959SOL     OW34806   0.049  11.381  13.069 -0.2059  0.0652  0.0156
74959SOL    HW134807  -0.035  11.417  13.041  0.1197  0.5402 -0.3608
74959SOL    HW234808   0.068  11.313  13.005 -0.3866 -0.1683  0.2065
74960SOL     OW34809   9.863   0.089   2.394  0.3426  0.5597  0.1876
74960SOL    HW134810   9.863   0.069   2.488 -0.7988  0.9662  0.2839
74960SOL    HW234811   9.877   0.183   2.389 -1.6563  0.8809  0.0560
74961SOL     OW34812   6.239   0.683   6.394  0.0631 -0.2350 -0.5830
74961SOL    HW134813   6.276   0.612   6.446  0.1176  0.1958 -0.0210
74961SOL    HW234814   6.275   0.763   6.432 -3.9612  0.5274  2.3259
74962SOL     OW34815   5.068  12.994   0.735  0.4506  0.3182  0.8302
74962SOL    HW134816   5.159  12.967   0.735 -0.1019 -1.7424  0.6509
74962SOL    HW234817   5.068  13.080   0.693  2.0720 -0.5301 -1.0882
74963SOL     OW34818   9.248   5.720   2.728  0.4713 -0.3421 -0.1192
74963SOL    HW134819   9.312   5.731   2.658  1.2759 -2.5503  0.1689
74963SOL    HW234820   9.164   5.743   2.689  1.0433 -0.4701 -1.4849
74964SOL     OW34821   4.762  12.898  10.223  0.4397 -0.4106  0.2300
74964SOL    HW134822   4.792  12.919  10.134  0.0969  1.8210  0.5841
74964SOL    HW234823   4.671  12.928  10.225  0.4843 -0.3301  1.3642
74965SOL     OW34824   6.576  12.013   4.247  0.1195 -0.8407 -0.4501
74965SOL    HW134825   6.555  11.936   4.194  1.2048 -1.2413 -0.3247
74965SOL    HW234826   6.645  11.983   4.307  0.0588  0.0419  0.0813
74966SOL     OW34827  11.356   1.784   1.007 -0.5626 -0.1123 -0.5859
74966SOL    HW134828  11.313   1.859   0.966 -1.9158  0.1781  1.2020
74966SOL    HW234829  11.291   1.714   1.002 -0.5647 -0.2134  0.5518
74967SOL     OW34830   2.358   8.865   4.001 -0.1478  0.1177  0.1752
74967SOL    HW134831   2.325   8.951   3.973  3.6422  1.8137  0.2674
74967SOL    HW234832   2.372   8.817   3.920  1.4273  1.1761 -0.2182
74968SOL     OW34833   1.530   9.017  12.061  0.4371  0.5407 -0.3810
74968SOL    HW134834   1.465   9.069  12.108 -1.2713 -1.1642 -0.6949
74968SOL    HW234835   1.543   9.063  11.978  0.3466  1.3879  0.0656
74969SOL     OW34836   3.718   6.003  10.075 -0.4856 -0.1023  0.0822
74969SOL    HW134837   3.653   5.957  10.127  0.9889  0.5431  2.6430
74969SOL    HW234838   3.773   5.934  10.038  0.1040 -0.5255  1.6959
74970SOL     OW34839   6.463  12.835   7.500  0.2118  0.6819  0.4912
74970SOL    HW134840   6.394  12.853   7.564 -1.6275  1.0010 -1.4979
74970SOL    HW234841   6.417  12.824   7.417  2.2944 -1.9117 -0.4567
74971SOL     OW34842   5.652   8.256   1.129  0.0459 -0.8543  0.4276
74971SOL    HW134843   5.723   8.305   1.170  0.0708 -0.3970 -0.1462
74971SOL    HW234844   5.669   8.165   1.153  0.8965 -0.7657  0.2063
74972SOL     OW34845   8.426  11.069  13.066  0.2770  0.2125  0.0344
74972SOL    HW134846   8.481  11.144  13.085 -0.8494  0.7178  1.4619
74972SOL    HW234847   8.339  11.106  13.052 -0.5873 -0.9020  2.1015
74973SOL     OW34848   4.779  11.208  12.298 -0.0073 -0.8285  0.2631
74973SOL    HW134849   4.806  11.216  12.389 -0.4122 -1.6119  0.4597
74973SOL    HW234850   4.855  11.169  12.254  0.2437 -0.3053  0.2365
74974SOL     OW34851   4.073  12.364   7.973 -1.1219 -0.1538 -0.1333
74974SOL    HW134852   4.165  12.360   7.947 -1.5445 -0.7805 -1.6129
74974SOL    HW234853   4.030  12.410   7.902 -2.2586 -1.5760 -0.4014
74975SOL     OW34854   0.869   4.420   0.798 -0.1909  0.7387  0.6258
74975SOL    HW134855   0.889   4.349   0.859  1.3253  0.1045 -0.5325
74975SOL    HW234856   0.919   4.494   0.831  0.1264  0.5733  0.5266
74976SOL     OW34857   4.255  10.958   3.147  0.0789  0.0300  0.2082
74976SOL    HW134858   4.235  10.889   3.083  1.0052  0.1963 -0.2785
74976SOL    HW234859   4.326  10.922   3.200 -1.1145 -0.3638  1.5985
74977SOL     OW34860   5.278   8.830   6.427 -0.1596 -0.0879  0.1648
74977SOL    HW134861   5.271   8.874   6.512 -2.0221  1.3438 -0.6511
74977SOL    HW234862   5.269   8.901   6.363  3.0767 -0.8128 -1.3376
74978SOL     OW34863   8.295   6.336  11.708  0.0601  0.0930 -0.0787
74978SOL    HW134864   8.267   6.257  11.755  0.1437 -0.8595 -1.5788
74978SOL    HW234865   8.358   6.377  11.767  1.7357 -2.1543 -0.1775
74979SOL     OW34866   8.568   7.948   2.723 -0.1240 -0.6018  0.1308
74979SOL    HW134867   8.626   7.932   2.797 -1.1097 -1.7381  0.6831
74979SOL    HW234868   8.510   8.018   2.753  0.6999  0.3023 -0.3027
74980SOL     OW34869   3.837   8.604   4.142 -0.4524  0.3626 -0.0938
74980SOL    HW134870   3.777   8.559   4.201  0.4604 -0.0533  0.5508
74980SOL    HW234871   3.862   8.539   4.077 -1.4741  0.8285 -0.9763
74981SOL     OW34872   2.594   8.004  11.351 -0.1002  0.0001  0.6453
74981SOL    HW134873   2.555   8.063  11.287  0.9190  0.8128  0.7521
74981SOL    HW234874   2.626   8.062  11.420 -1.0792 -0.8449  1.8530
74982SOL     OW34875   4.354   1.520   9.306 -0.1285 -0.4824  0.3109
74982SOL    HW134876   4.323   1.550   9.220 -1.2516 -1.3464  0.3823
74982SOL    HW234877   4.368   1.426   9.295  0.5536 -0.4485  0.8467
74983SOL     OW34878   6.048  10.182   2.498 -0.5955  0.3781  0.0916
74983SOL    HW134879   6.073  10.273   2.480  0.3907  0.0254 -0.3676
74983SOL    HW234880   6.031  10.144   2.412 -1.5450  0.2611  0.3157
74984SOL     OW34881   9.659   7.924   6.962 -0.2238  0.3880 -0.3815
74984SOL    HW134882   9.711   7.861   7.011 -0.0162 -0.2129 -1.3496
74984SOL    HW234883   9.577   7.878   6.943 -1.1543  1.3173  1.1119
74985SOL     OW34884  12.151  12.429  10.548  0.3183 -0.3798 -0.2951
74985SOL    HW134885  12.099  12.427  10.628  0.4100 -0.1248 -0.2268
74985SOL    HW234886  12.192  12.516  10.549 -1.1197  0.3621 -1.5382
74986SOL     OW34887   9.395  12.742   5.146 -0.3343  0.2221  0.4040
74986SOL    HW134888   9.470  12.798   5.164  0.1104 -0.5106  0.9006
74986SOL    HW234889   9.400  12.723   5.052  0.4066 -0.2312  0.5240
74987SOL     OW34890   1.241   4.038   8.915 -0.4274 -0.3830  0.2538
74987SOL    HW134891   1.171   4.030   8.979 -0.5255 -1.7246  0.0062
74987SOL    HW234892   1.320   4.051   8.967 -0.5190 -1.3551  0.6597
74988SOL     OW34893   3.730   5.178   7.928 -0.1378  0.0434  0.9145
74988SOL    HW134894   3.664   5.172   7.998 -0.8860  1.3785  0.3800
74988SOL    HW234895   3.698   5.120   7.860 -0.5842  0.3912  0.8164
74989SOL     OW34896   0.760   3.667  10.268 -0.1279 -0.0123 -0.5252
74989SOL    HW134897   0.846   3.674  10.227  1.1041 -0.2450  1.8168
74989SOL    HW234898   0.732   3.757  10.281  1.6965  0.2781  2.2784
74990SOL     OW34899  12.549   8.934   6.705 -0.1898  0.7795 -0.5882
74990SOL    HW134900  12.560   8.986   6.784 -0.4166  1.4066 -0.9656
74990SOL    HW234901  12.613   8.970   6.644  0.1094  0.1822 -0.6387
74991SOL     OW34902   5.965   9.188  12.905  0.4091 -0.7969  0.6435
74991SOL    HW134903   6.031   9.186  12.836 -0.2111 -0.7338  0.0280
74991SOL    HW234904   5.898   9.125  12.875 -0.2750 -0.1383  0.7603
74992SOL     OW34905   9.407   2.105   2.629  0.2414  0.0635  0.4993
74992SOL    HW134906   9.437   2.029   2.578  1.7975  1.3265 -0.5763
74992SOL    HW234907   9.443   2.180   2.583 -1.3328  1.4867  1.4933
74993SOL     OW34908  11.036  10.117   2.370  0.1606  0.3115 -0.1394
74993SOL    HW134909  11.132  10.121   2.368  0.2354 -0.8044 -1.8847
74993SOL    HW234910  11.008  10.208   2.380  1.4179  0.7639 -0.5188
74994SOL     OW34911   8.054   5.898   0.498 -0.0863  0.0107 -0.1997
74994SOL    HW134912   7.976   5.885   0.551 -1.1222 -2.4275 -2.1066
74994SOL    HW234913   8.030   5.966   0.436 -0.4830 -0.2384 -0.3251
74995SOL     OW34914   8.279   0.165  10.758  0.4072 -0.2670  0.0453
74995SOL    HW134915   8.233   0.087  10.790 -0.4776  0.0844 -0.3316
74995SOL    HW234916   8.209   0.224  10.731  1.0028  1.1889  1.5113
74996SOL     OW34917   4.591   2.018   9.744 -0.6966 -0.0817  1.5081
74996SOL    HW134918   4.521   1.959   9.772 -1.2164  1.3069  3.3654
74996SOL    HW234919   4.667   1.990   9.795 -0.2757 -0.6622  0.5780
74997SOL     OW34920   8.889  10.206   5.957 -0.0080  0.0187  0.1227
74997SOL    HW134921   8.850  10.283   5.918  0.8118  0.3169 -0.1319
74997SOL    HW234922   8.909  10.148   5.884  2.2394  0.9039 -0.0540
74998SOL     OW34923   0.556   0.457  10.864 -0.4159  0.4379 -0.1387
74998SOL    HW134924   0.524   0.406  10.790  0.3634 -0.4258  0.0976
74998SOL    HW234925   0.506   0.425  10.939  0.3928 -0.3381  0.0904
74999SOL     OW34926   8.850   7.741   1.816  0.0743  0.2744  0.3828
74999SOL    HW134927   8.843   7.755   1.910 -0.8725  0.1210  0.3379
74999SOL    HW234928   8.858   7.646   1.807 -1.1421  0.1798  0.2361
75000SOL     OW34929   1.741   5.269   6.215 -0.2063  0.2204 -0.0631
75000SOL    HW134930   1.738   5.323   6.136  0.7930  4.0560  2.2191
75000SOL    HW234931   1.829   5.233   6.217  0.7015  2.3143  0.4733
75001SOL     OW34932   5.576   3.208   2.877  0.4667  0.0217 -0.3108
75001SOL    HW134933   5.668   3.182   2.878 -0.2659 -2.9202  0.8048
75001SOL    HW234934   5.552   3.207   2.784  0.8343 -2.4760 -0.4668
75002SOL     OW34935   5.519   0.062   3.543 -0.3414 -0.1064 -0.6656
75002SOL    HW134936   5.535   0.154   3.566  1.1803 -0.1713 -1.3992
75002SOL    HW234937   5.425   0.059   3.523 -0.3784  1.3272 -0.8242
75003SOL     OW34938   5.100   7.749  13.112 -0.3158 -0.0072  0.0746
75003SOL    HW134939   5.180   7.784  13.075 -1.1339  0.3021 -1.4726
75003SOL    HW234940   5.031   7.807  13.081 -1.4675 -1.7966 -0.9251
75004SOL     OW34941  12.909   9.836  12.722 -0.0892  0.5773 -0.4135
75004SOL    HW134942  12.931   9.919  12.680 -1.0265  1.6831  1.2091
75004SOL    HW234943  12.814   9.832  12.721 -0.1029  0.1532  0.6650
75005SOL     OW34944   0.936   9.413  12.029 -0.6758 -0.2925  0.3386
75005SOL    HW134945   0.992   9.385  12.101  0.4226  1.0025  0.0358
75005SOL    HW234946   0.868   9.466  12.071 -0.2246  0.1907  0.4812
75006SOL     OW34947   2.970  13.107   8.036 -0.7174  0.3027  0.0418
75006SOL    HW134948   2.875  13.113   8.030 -0.6497  0.8216 -0.6693
75006SOL    HW234949   2.986  13.046   8.108 -1.6164 -1.3202 -1.0672
75007SOL     OW34950   7.084  10.828   7.632 -0.1265 -0.4669 -0.2308
75007SOL    HW134951   7.042  10.912   7.652 -0.4951 -0.3278 -1.5209
75007SOL    HW234952   7.177  10.849   7.623 -0.0520 -0.4106  0.5635
75008SOL     OW34953   1.342   7.122   8.952  0.2200 -0.0420 -0.0433
75008SOL    HW134954   1.258   7.127   8.997 -0.7172  1.8295 -1.8262
75008SOL    HW234955   1.354   7.209   8.914  1.3070 -1.2270 -2.7062
75009SOL     OW34956   1.075   6.405   9.045 -0.0516  0.1663 -0.0275
75009SOL    HW134957   1.162   6.408   9.085  0.3557  0.4791 -0.9203
75009SOL    HW234958   1.078   6.330   8.986 -0.2827  0.3605 -0.2900
75010SOL     OW34959  10.550  11.973  12.304  0.2298 -0.0974 -0.0261
75010SOL    HW134960  10.596  11.891  12.285  0.3378  0.3963 -2.1393
75010SOL    HW234961  10.606  12.018  12.368  1.1694 -0.8165 -0.3282
75011SOL     OW34962  12.828  13.261  13.243 -0.2411 -0.5724 -0.6258
75011SOL    HW134963  12.748  13.305  13.274 -1.6530 -2.3996 -1.4776
75011SOL    HW234964  12.838  13.186  13.302 -0.7681 -1.9136 -2.1793
75012SOL     OW34965   5.347   8.551   0.438  0.8772  0.2293 -0.2620
75012SOL    HW134966   5.355   8.589   0.350  1.4466  1.9429  0.4746
75012SOL    HW234967   5.262   8.583   0.469  0.4338 -0.8208 -0.3787
75013SOL     OW34968   2.548   7.253   6.194  0.4995 -0.0840 -0.0707
75013SOL    HW134969   2.611   7.213   6.253 -0.4652  1.3147  2.0179
75013SOL    HW234970   2.464   7.211   6.214  0.3447 -0.4523 -1.3486
75014SOL     OW34971   3.838   9.823  10.032  0.0601 -0.0123  0.1821
75014SOL    HW134972   3.872   9.903  10.072 -0.9069  0.2642  0.4848
75014SOL    HW234973   3.743   9.839  10.025 -0.5138 -1.9644  2.2824
75015SOL     OW34974  11.181   8.577   2.506 -0.2867  0.2072  1.2757
75015SOL    HW134975  11.226   8.595   2.423 -0.6469  0.1369  1.0651
75015SOL    HW234976  11.244   8.605   2.573  0.7795 -1.4725  1.0387
75016SOL     OW34977  12.335   6.898  12.512  0.1167 -0.2154 -0.1903
75016SOL    HW134978  12.330   6.894  12.607 -0.4026 -0.2495 -0.2195
75016SOL    HW234979  12.335   6.807  12.484  2.6492 -0.3185 -0.1192
75017SOL     OW34980   9.982   7.836   8.199  0.0231  0.2000 -0.0922
75017SOL    HW134981   9.949   7.871   8.282 -0.6713 -1.1299  0.2124
75017SOL    HW234982   9.976   7.910   8.138 -1.1749  0.7006  0.5929
75018SOL     OW34983   9.130   0.873   2.149 -0.4060  0.5286 -0.2816
75018SOL    HW134984   9.164   0.962   2.138  0.9346  0.0209 -0.4160
75018SOL    HW234985   9.040   0.878   2.118  0.4302  1.2532 -2.8609
75019SOL     OW34986   0.132  12.629   3.718 -0.0084  0.6327 -0.7657
75019SOL    HW134987   0.040  12.620   3.694 -0.2730  0.8373  0.1318
75019SOL    HW234988   0.149  12.557   3.778  0.4541  0.5305 -1.0084
75020SOL     OW34989   2.871   3.906   6.275 -0.2447 -0.2436 -0.3789
75020SOL    HW134990   2.962   3.894   6.247 -0.5587  0.3508 -1.7141
75020SOL    HW234991   2.848   3.822   6.316  1.7228  0.4731  2.5427
75021SOL     OW34992   6.335  12.670   5.245 -0.0520 -0.0699  0.5009
75021SOL    HW134993   6.394  12.675   5.321 -0.4960 -0.0975  0.8546
75021SOL    HW234994   6.355  12.586   5.205  0.6548  0.2351  0.1909
75022SOL     OW34995   3.996   5.627   4.587  0.0095 -0.4004 -0.1038
75022SOL    HW134996   3.959   5.710   4.617  0.7663 -0.0275 -0.1829
75022SOL    HW234997   4.002   5.574   4.666  1.5697  0.4180  0.3780
75023SOL     OW34998  11.703   2.035  11.802 -0.5156  0.1654  0.0497
75023SOL    HW134999  11.736   2.103  11.861  2.7564  0.3068 -1.7327
75023SOL    HW235000  11.644   1.983  11.856  1.7711  0.6560  3.3110
75024SOL     OW35001   6.506   7.602   7.950 -0.1793 -0.3743 -0.0412
75024SOL    HW135002   6.580   7.608   8.011  0.7683  0.8774 -1.2423
75024SOL    HW235003   6.492   7.508   7.940  0.2625 -0.6181  1.3509
75025SOL     OW35004   3.871   2.355   1.843  0.2778 -0.2513  0.0961
75025SOL    HW135005   3.789   2.390   1.877 -0.5967 -1.1353 -1.0438
75025SOL    HW235006   3.879   2.393   1.756 -0.2375 -2.1421 -0.8152
75026SOL     OW35007   1.195   3.678  11.274 -0.3515  0.6376 -0.0506
75026SOL    HW135008   1.239   3.684  11.190 -0.0473  0.1857  0.0748
75026SOL    HW235009   1.108   3.642  11.253  0.4767 -1.5589  0.0533
75027SOL     OW35010   9.414  13.177  11.249 -0.5733 -0.1887  0.0992
75027SOL    HW135011   9.463  13.152  11.327 -1.8362 -0.7582  0.7503
75027SOL    HW235012   9.333  13.216  11.283 -2.3496 -2.8016 -0.8249
75028SOL     OW35013  12.527   7.455   6.713  0.3664 -0.0689  0.1050
75028SOL    HW135014  12.613   7.439   6.752 -0.7890  1.2511  3.5652
75028SOL    HW235015  12.478   7.375   6.730  0.7609 -0.7160 -1.6227
75029SOL     OW35016  12.266   9.985   9.033  0.2879  0.1192 -0.6532
75029SOL    HW135017  12.279   9.907   8.979  0.5167  0.3777 -0.9728
75029SOL    HW235018  12.343   9.989   9.089 -0.0656 -0.2913 -0.1179
75030SOL     OW35019  12.101   3.629   4.693 -0.0782  0.5663 -0.0927
75030SOL    HW135020  12.135   3.571   4.762  0.7891  2.0032  0.7223
75030SOL    HW235021  12.011   3.598   4.680 -0.2751  0.2418  1.6967
75031SOL     OW35022   8.271  10.353  10.372  0.4819  0.0796  0.3731
75031SOL    HW135023   8.325  10.431  10.380  2.4015 -0.9949 -1.1699
75031SOL    HW235024   8.246  10.332  10.462  0.9898  1.7420  0.9373
75032SOL     OW35025   2.719   4.786   7.587  0.1079  0.2958 -0.4639
75032SOL    HW135026   2.713   4.772   7.493  0.5222  2.0955 -0.7956
75032SOL    HW235027   2.629   4.804   7.615  0.2094  1.5932 -0.8784
75033SOL     OW35028   5.491   9.227   8.197 -0.2694 -0.1791 -0.4597
75033SOL    HW135029   5.558   9.282   8.237 -0.5776 -0.1266  0.0039
75033SOL    HW235030   5.539   9.159   8.151  0.1045 -0.3285  0.1359
75034SOL     OW35031   1.439   7.472  11.815  0.4704  0.1547 -0.5363
75034SOL    HW135032   1.514   7.530  11.801  0.2513  0.5452 -0.1082
75034SOL    HW235033   1.363   7.527  11.799  0.2675 -0.1749 -0.7110
75035SOL     OW35034   4.226   0.172   1.115 -0.4570 -0.0526  0.1317
75035SOL    HW135035   4.299   0.150   1.057  0.0102 -1.8346  1.3007
75035SOL    HW235036   4.234   0.267   1.128  0.3091  0.1521 -1.4904
75036SOL     OW35037   0.710   9.062   9.350 -0.9560  0.1362 -0.2174
75036SOL    HW135038   0.711   9.019   9.265 -2.2508  0.4954 -0.4364
75036SOL    HW235039   0.787   9.119   9.350  1.0114 -2.3424  0.2070
75037SOL     OW35040   0.488   6.774   2.388  0.5584  0.2898  0.2012
75037SOL    HW135041   0.577   6.796   2.417  0.2894  2.0196 -0.2086
75037SOL    HW235042   0.443   6.858   2.383 -1.0460 -0.5490  0.1635
75038SOL     OW35043  11.480   5.224  12.444 -0.1062  0.1648  0.4273
75038SOL    HW135044  11.557   5.193  12.396 -1.2226 -2.5914  0.2749
75038SOL    HW235045  11.505   5.217  12.536 -0.6990 -2.4755  0.4508
75039SOL     OW35046   3.520   8.587   8.837  0.0871 -0.2503  0.1741
75039SOL    HW135047   3.540   8.680   8.829 -0.7122 -0.0527  0.4518
75039SOL    HW235048   3.587   8.553   8.898 -0.9805  0.6103  1.8968
75040SOL     OW35049   6.986   4.460   9.996 -0.0779  0.1128  0.3946
75040SOL    HW135050   7.045   4.435  10.068  1.1795 -0.5027 -0.8057
75040SOL    HW235051   6.976   4.379   9.946  2.0763  1.3060 -2.1974
75041SOL     OW35052   6.128   7.494   9.389  0.1878 -0.2989 -0.9958
75041SOL    HW135053   6.069   7.421   9.409  1.7991 -1.4288 -0.1323
75041SOL    HW235054   6.097   7.566   9.445  0.2390 -1.1893  0.2189
75042SOL     OW35055  12.637   5.034   0.326  0.2848  0.1565 -0.0397
75042SOL    HW135056  12.570   5.015   0.391  0.9800  3.2169  1.7554
75042SOL    HW235057  12.591   5.032   0.242 -1.1885 -1.3867  0.7505
75043SOL     OW35058   0.044  10.457   2.143  0.4749  0.0713  0.2521
75043SOL    HW135059   0.028  10.521   2.213 -0.4798  0.6833 -0.4981
75043SOL    HW235060   0.137  10.438   2.149  0.1030 -1.2993  2.8702
75044SOL     OW35061   2.133   5.306   2.579  0.1433  0.3011 -0.9838
75044SOL    HW135062   2.048   5.347   2.561  0.2233  0.5727 -0.7477
75044SOL    HW235063   2.158   5.340   2.665 -0.3833 -1.2263 -0.1934
75045SOL     OW35064   7.443   3.091   7.655 -0.4658  0.3726 -0.2697
75045SOL    HW135065   7.500   3.090   7.577  1.5328 -0.3477  1.1075
75045SOL    HW235066   7.383   3.164   7.640  1.3028  1.6738 -1.5154
75046SOL     OW35067   9.898  11.492   7.133  0.2427 -0.3799 -0.1168
75046SOL    HW135068   9.963  11.515   7.199  0.1362 -0.4208  0.0025
75046SOL    HW235069   9.950  11.464   7.057  0.4462  2.2753 -1.0614
75047SOL     OW35070  10.307   5.813   2.839  0.1284 -0.2171  0.5078
75047SOL    HW135071  10.266   5.752   2.779 -0.3947 -0.1975  0.8397
75047SOL    HW235072  10.399   5.785   2.844 -0.1788 -1.1709  0.8999
75048SOL     OW35073   7.964   8.218   4.307  0.1144 -0.4937  0.6287
75048SOL    HW135074   7.905   8.151   4.344  0.1830 -1.8031 -1.4449
75048SOL    HW235075   7.915   8.299   4.314 -0.9905 -1.1715  1.0520
75049SOL     OW35076   0.227   5.828   1.704 -0.1281 -0.2109  0.0799
75049SOL    HW135077   0.259   5.902   1.653 -0.7919  0.6547  0.8792
75049SOL    HW235078   0.133   5.824   1.685 -0.2731 -0.2345  0.7714
75050SOL     OW35079  13.017   3.313   3.762  0.0491 -0.1536  0.2213
75050SOL    HW135080  12.975   3.250   3.821  0.7364  0.1102  1.0105
75050SOL    HW235081  12.958   3.388   3.761  0.0830 -0.1141  0.6793
75051SOL     OW35082   0.791   6.476  13.157 -0.3063 -0.0461  0.1938
75051SOL    HW135083   0.760   6.561  13.125 -0.6319 -0.7031 -1.3358
75051SOL    HW235084   0.884   6.490  13.175 -0.6737  1.0134  1.4210
75052SOL     OW35085   2.193   1.777   5.823 -0.2855  0.4321 -0.4186
75052SOL    HW135086   2.181   1.695   5.774  0.7187  0.5418 -0.8756
75052SOL    HW235087   2.124   1.835   5.789 -0.3050  0.1401 -0.8958
75053SOL     OW35088   9.516   2.015   5.008 -0.0877  0.5038  0.0532
75053SOL    HW135089   9.610   2.026   4.992  0.5729 -2.7587  1.0336
75053SOL    HW235090   9.476   2.027   4.922  1.2559  1.4772 -0.4749
75054SOL     OW35091  12.416   1.913   6.458 -0.1259  0.2742  0.4645
75054SOL    HW135092  12.453   1.914   6.370 -1.1634  0.4952  0.0085
75054SOL    HW235093  12.487   1.942   6.515  1.3989 -2.3083  0.0546
75055SOL     OW35094   3.220   4.043  10.130  0.6655  0.1061 -0.4226
75055SOL    HW135095   3.306   4.064  10.094  0.5477  0.9790 -0.2187
75055SOL    HW235096   3.185   3.977  10.071  1.1560  0.3041 -0.9461
75056SOL     OW35097  12.424   1.275   5.544 -0.5328  0.1716 -0.6569
75056SOL    HW135098  12.391   1.186   5.547 -1.9867  0.6155 -2.1320
75056SOL    HW235099  12.417   1.301   5.452  0.8749  1.4463 -0.4509
75057SOL     OW35100   3.793   6.792   7.842  0.9195  0.2202 -0.2395
75057SOL    HW135101   3.851   6.814   7.769  0.4927  2.6825  0.0735
75057SOL    HW235102   3.711   6.837   7.821 -0.2721 -1.6355  0.2551
75058SOL     OW35103   1.139   5.841   4.675  0.5476 -0.1051  0.4832
75058SOL    HW135104   1.172   5.867   4.761 -1.8380 -0.8921  1.7277
75058SOL    HW235105   1.119   5.748   4.685  1.8054 -0.6448 -1.4932
75059SOL     OW35106  11.643  10.718  12.200  0.1661 -0.8249  0.6695
75059SOL    HW135107  11.596  10.757  12.126 -0.9983 -1.4395  1.0454
75059SOL    HW235108  11.661  10.791  12.259 -0.2803 -0.5629  0.4886
75060SOL     OW35109   8.712  11.367  11.582 -0.6527 -0.4829 -0.2487
75060SOL    HW135110   8.774  11.434  11.553 -0.7009 -1.2001 -2.1462
75060SOL    HW235111   8.634  11.416  11.607 -0.1542  0.2605 -0.1115
75061SOL     OW35112   5.176  12.755   8.376 -0.2915  0.6681 -0.0067
75061SOL    HW135113   5.253  12.737   8.429 -0.5786  1.2177  0.6160
75061SOL    HW235114   5.188  12.845   8.346  0.1731  0.1582 -1.4245
75062SOL     OW35115   5.977   3.302   8.066 -0.1819  0.1932 -0.9287
75062SOL    HW135116   5.885   3.284   8.047 -0.0607  0.1121 -1.4604
75062SOL    HW235117   6.012   3.335   7.984 -0.5691  3.7230  0.1502
75063SOL     OW35118  11.234   2.168  12.242  0.0532  0.0808 -0.0618
75063SOL    HW135119  11.258   2.260  12.235 -1.7310  0.5063 -1.4645
75063SOL    HW235120  11.207   2.143  12.154  2.4332 -2.4265 -0.2171
75064SOL     OW35121   4.988   7.307   9.248 -0.8910  0.0042 -0.2072
75064SOL    HW135122   4.957   7.348   9.329 -1.5488  1.5388 -1.1969
75064SOL    HW235123   5.058   7.365   9.217 -2.0183  0.5977 -1.7713
75065SOL     OW35124   1.415   2.295   7.165 -0.4880  0.2415 -0.1423
75065SOL    HW135125   1.355   2.342   7.223 -0.8397 -1.3283  0.8354
75065SOL    HW235126   1.394   2.328   7.078 -1.4658  1.0838  0.3834
75066SOL     OW35127   7.753  12.078   0.973  0.1157  0.0516 -0.2667
75066SOL    HW135128   7.847  12.080   0.956  0.0408 -1.1074 -0.8968
75066SOL    HW235129   7.746  12.033   1.057  0.0028 -2.7486 -1.6627
75067SOL     OW35130  11.515   8.766   6.582 -0.6537 -0.4923 -0.0463
75067SOL    HW135131  11.507   8.741   6.490 -2.3424  0.1626 -0.1138
75067SOL    HW235132  11.609   8.775   6.596 -0.3139 -1.4964 -1.4510
75068SOL     OW35133   2.695   4.631   8.698  0.1362 -0.4708  0.7285
75068SOL    HW135134   2.603   4.609   8.706 -0.1355  1.0202  1.9834
75068SOL    HW235135   2.696   4.721   8.667  1.2076 -0.7762 -0.2503
75069SOL     OW35136   9.325   1.097   4.245  0.0007  0.2117 -0.6141
75069SOL    HW135137   9.322   1.109   4.150 -1.5440 -0.3267 -0.6594
75069SOL    HW235138   9.366   1.011   4.257 -0.3896 -0.0057 -0.8261
75070NA      NA35139  10.516   3.157   9.214  0.2815 -0.1611 -0.6333
75071NA      NA35140  12.755   2.509   7.251  0.2995 -0.6136 -0.2159
75072NA      NA35141   8.118   5.602   5.060 -0.1973  0.3308 -0.2088
75073NA      NA35142  11.382   9.605   1.480 -0.0621  0.2780  0.4057
75074NA      NA35143   6.660  10.568   7.510 -0.2764  0.3195  0.1763
75075NA      NA35144   7.759   4.234  10.145  0.3506  0.6654 -0.4415
75076NA      NA35145   7.949   0.801   7.603  0.1577  0.2270  0.0595
75077NA      NA35146   8.799   0.767   6.406  0.5857  0.3875 -0.3229
75078NA      NA35147   9.158   6.159   4.697  0.0680 -0.0799 -0.1069
75079NA      NA35148   6.338   4.909   5.057 -0.0337  0.3208 -0.2059
75080NA      NA35149   3.528   9.876  12.838 -0.0895 -0.6501 -0.2492
75081NA      NA35150   2.307   8.558  13.258 -0.1092 -0.4463 -0.2065
75082NA      NA35151   2.202   8.644   3.584  0.4500  0.2935  0.8205
75083NA      NA35152   7.709   2.862   1.893 -0.3088 -0.1895 -0.3517
75084NA      NA35153   5.730  11.774   7.896  0.3811 -0.1150 -0.4179
75085NA      NA35154   3.016  13.289  12.597 -0.7165 -0.2269  0.3133
75086NA      NA35155  11.354   4.585   8.441  0.3317  0.1100 -0.2262
75087NA      NA35156   8.250   6.960   8.253  0.0457 -0.4376  0.4347
75088NA      NA35157   6.127   4.998   7.111  0.1617  0.1886 -0.1547
75089NA      NA35158   9.208   3.668   6.792  0.0016 -0.0383  0.3914
75090NA      NA35159   8.009   1.004   7.362  0.2070 -0.0816  0.1322
75091NA      NA35160  11.906   2.368  11.685  0.1106  0.0875  0.4607
75092NA      NA35161   8.940   0.708   6.968 -0.1349 -0.3749  0.1250
75093NA      NA35162  10.847  11.275   2.710 -0.0970 -0.0955  0.8101
75094NA      NA35163   3.906   7.799   5.107  0.6845  0.2946 -0.3521
75095NA      NA35164   8.966   0.842   6.183 -0.2236 -0.4211  0.4424
75096NA      NA35165   8.978   0.959   5.678  0.2196 -0.3889 -0.1428
75097NA      NA35166   2.518   6.703   3.761  0.0688 -0.4810  0.5320
75098NA      NA35167   6.250   0.177   4.774 -0.2340 -0.4592  0.0330
75099NA      NA35168   6.017   9.022  10.141 -0.0092 -0.3751  0.4991
75100NA      NA35169   5.443  10.214   7.414  0.0717  0.2574  0.0983
75101NA      NA35170   7.532   4.393  10.265  0.0719 -0.2946 -0.5011
75102NA      NA35171   9.988   1.880   6.853  0.0246  0.2868 -0.1186
75103NA      NA35172   7.210   3.185  10.130 -0.2373 -0.1346  0.4370
75104NA      NA35173   7.743   1.196  13.078 -0.2095  0.6447 -0.3263
75105NA      NA35174   1.609   1.673   1.097 -0.0099  0.1773 -0.0624
75106NA      NA35175  11.743   6.872   4.538 -0.1608 -0.8128  0.0901
75107NA      NA35176   7.115   1.888   3.952  0.0088 -0.1802 -0.9249
75108NA      NA35177   1.290   6.924  12.167  0.0551 -0.0496 -0.0200
75109NA      NA35178   7.465  10.405   8.302  0.1156  0.0116  0.2363
75110NA      NA35179   7.596   0.714   7.109  0.1952 -0.3228 -1.0106
75111NA      NA35180   5.185   3.514   6.561  0.1538 -0.3590 -0.4368
75112NA      NA35181   7.212   2.466   7.957  0.3811  0.0855 -0.2173
75113NA      NA35182   9.742   6.478   9.627 -0.6908 -0.4714 -0.0163
75114NA      NA35183   7.604   5.920  11.060  0.0565 -0.7265 -0.1061
75115NA      NA35184   9.752   6.419  11.933  0.2033 -0.6585  0.6405
75116NA      NA35185   5.945   5.435   6.129  0.0154 -0.2376 -0.1100
75117NA      NA35186  10.830   1.558   8.744 -0.2063 -0.5562  0.6024
75118NA      NA35187   4.584   8.752   2.346 -0.0325  0.1870  0.0831
75119NA      NA35188   7.417   8.310   8.916  0.3543 -0.2859  0.2180
75120NA      NA35189   6.200   6.393   0.751  0.1685  0.1285  0.4092
75121NA      NA35190   4.810   9.314   9.037  0.2753 -0.1333 -0.6253
75122NA      NA35191   8.454   4.305  10.918  0.1116  0.5119  0.1021
75123NA      NA35192   5.786   4.545   5.974  0.0681  0.0123  0.2118
75124NA      NA35193   7.096   5.790  12.823 -0.6650 -0.2964 -0.4424
75125NA      NA35194   6.541   2.686   9.731 -0.2714 -0.4034 -0.2044
75126NA      NA35195   9.553   5.497   7.986  0.0166 -0.1848 -0.4088
75127NA      NA35196   1.316   4.442  12.522 -0.6500  0.3023 -0.2143
75128NA      NA35197  10.285   4.789   9.456  0.1535 -0.6502 -0.2865
75129NA      NA35198  11.525   3.628   8.263 -0.3050  0.4161 -0.1199
75130NA      NA35199   6.202   5.856   7.151 -0.0192 -0.9563 -0.3655
75131NA      NA35200   8.939   0.783   7.621 -0.0453  0.0781  0.4194
75132NA      NA35201   5.583  12.258   0.078  0.2414  0.6718 -0.0376
75133NA      NA35202   7.426   6.489   7.177 -0.5193 -0.0690 -0.1998
75134NA      NA35203   6.447   2.387   9.666 -0.0426 -0.3114  0.3127
75135NA      NA35204   9.902   2.811  10.891  1.2767  0.0374  0.1016
75136NA      NA35205  12.419   7.218  10.302 -0.2635 -0.0288 -0.4813
75137NA      NA35206   9.388  13.275   8.711  0.0003  0.1293  0.0264
75138NA      NA35207   9.370   0.773   8.901  0.3558 -0.5053 -0.0769
75139NA      NA35208   6.364   2.173   9.854  0.2170  0.1724  0.5680
75140NA      NA35209   9.159   1.914   9.845  0.2459 -0.0231  0.1146
75141NA      NA35210   9.946   1.142   9.386  0.2232  0.1885 -0.3382
75142NA      NA35211   8.943   2.019  10.032  0.2083 -0.4291  0.3716
75143NA      NA35212   8.638   9.283   6.569  0.1954 -0.1246  0.3580
75144NA      NA35213   7.011   3.533  10.249 -0.4089 -0.4459  0.0752
75145NA      NA35214   9.056   6.349   6.153 -0.3023  0.9701 -0.0571
75146NA      NA35215   6.337   6.338   8.455 -0.1783 -0.0308 -0.3120
75147NA      NA35216   7.215   4.229  10.257  0.0733  0.1028  0.1490
75148NA      NA35217  10.563   2.906   8.878  0.6070 -0.0210 -0.3229
75149NA      NA35218   4.954  10.114   3.312 -0.0163  0.2430 -0.1934
75150NA      NA35219   9.233   0.853   9.188  0.2694  0.1302 -0.1703
75151NA      NA35220  10.717   1.839   8.746  0.0139 -0.3118  0.6568
75152NA      NA35221   5.951   0.813   2.992  0.0294 -0.3813 -0.1397
75153NA      NA35222   8.476   6.420   7.496 -0.2810  0.0464 -0.0929
75154NA      NA35223  10.310   4.751   9.110  0.2044 -0.3672 -0.0484
75155NA      NA35224   8.958   3.190  11.290 -0.3524 -0.3191  0.1197
75156NA      NA35225  10.789   3.148   9.265  0.2124 -0.0959 -0.3175
75157NA      NA35226   9.179   3.752   5.895  0.4620 -0.6221  0.0142
75158NA      NA35227   7.250   3.644  10.393  0.1142  0.0863  0.0844
75159NA      NA35228   5.267   3.711   6.328 -0.4827 -0.0682 -0.7312
75160NA      NA35229   6.010   5.021   6.814 -0.2188  0.8374 -0.6659
75161NA      NA35230  10.268   1.840   6.809 -0.2894 -0.5669 -0.4642
75162NA      NA35231   1.846   9.886   2.959 -0.3721 -0.3398 -0.2356
75163NA      NA35232   9.158   2.833  10.083  0.0408  0.3064 -0.0851
75164NA      NA35233   5.096   8.202   4.169 -0.4942  0.5221 -0.4653
75165NA      NA35234   9.251   2.895   9.805  0.2365 -0.1306 -0.0450
75166NA      NA35235   8.449   6.308   7.969 -0.0542 -0.0941 -0.3759
75167NA      NA35236   2.122   5.629   3.654  0.2548 -0.6093  0.0775
75168NA      NA35237  11.054   3.074   9.108 -0.4924 -0.3974  0.4137
75169NA      NA35238   0.366   4.996   3.876  0.1822  0.2473 -0.4981
75170NA      NA35239   7.222   4.508   9.195 -0.2028 -0.3420 -0.3621
75171NA      NA35240   6.911   5.360   8.819 -0.1646 -0.3508 -0.0334
75172NA      NA35241   6.051   2.445   9.540 -0.1555  0.0397  0.0424
75173NA      NA35242   3.535   8.202   9.560 -0.0921 -0.0622 -0.0029
75174NA      NA35243  12.893   1.353   5.472 -0.1210 -0.7035  0.1598
75175NA      NA35244   8.559   1.004   9.761  0.0570  0.4973  0.0191
75176NA      NA35245   9.077   0.706   8.959  0.1402 -0.1169  0.3610
75177NA      NA35246  11.155   1.857   8.447  0.5707  0.3014 -0.4862
75178NA      NA35247   2.380  11.312   4.480 -0.3483  0.0982  0.2601
75179NA      NA35248  12.950   6.051  11.639  0.1458  0.3433  0.8026
75180NA      NA35249   1.507   5.740   5.182  0.5756  0.8376 -0.2625
75181NA      NA35250   9.444   0.629   5.538  0.3271 -0.0760 -0.5324
75182NA      NA35251   4.550   0.821   7.721 -0.0856 -0.0108  0.0428
75183NA      NA35252   7.764   4.002   4.632  0.1661  0.3516 -0.6989
75184NA      NA35253   7.969   0.915   7.918 -0.4755  0.0836 -0.0761
75185NA      NA35254   9.335   1.590   4.122 -0.0886  0.2249  0.2343
75186NA      NA35255   6.710   3.318   4.881  0.5911 -0.0718 -0.1353
75187NA      NA35256   0.020   6.136   3.106 -0.0706 -0.2349  0.1955
75188NA      NA35257  12.913  11.154   7.707  0.4205  0.1189 -0.4194
75189NA      NA35258  13.038  10.690  10.092  0.0456  0.1819 -0.1255
75190NA      NA35259   3.820   6.300   2.178 -0.2896 -0.5784 -0.1727
75191NA      NA35260  10.387   1.301   9.698 -0.2523 -0.1262 -0.0086
75192NA      NA35261   9.604   6.572   5.374  0.0361 -0.7032  0.3676
75193NA      NA35262   9.264   2.213   5.043 -0.5286 -0.2209  0.1075
75194NA      NA35263   6.569   5.967   6.906 -0.3714  0.2189  0.2016
75195NA      NA35264  10.334   2.340   7.504 -0.6255  0.2324  0.0228
75196NA      NA35265  10.802   0.851  13.128  0.0125 -0.2771  0.0755
75197NA      NA35266   7.853   0.660   8.067 -0.0603  0.2792 -0.2413
75198NA      NA35267   1.828   0.430   4.584  0.0549  0.6151  0.1847
75199NA      NA35268   9.141   3.072  10.766 -0.1110  0.4010  0.2911
75200NA      NA35269   9.143   1.187   5.787  0.6725 -0.1705  0.4066
75201NA      NA35270   1.921   3.421  13.238  0.4611  0.2719  0.3635
75202NA      NA35271   7.031   2.227   6.918  0.1383  0.0781  0.6308
75203NA      NA35272   7.296   2.671   9.900 -0.2851 -0.0225  0.0507
75204NA      NA35273   5.654   7.735   3.102 -0.0078 -0.0829 -0.3652
75205NA      NA35274  10.553   3.945   9.231 -0.3009 -0.3116  0.0780
75206NA      NA35275  10.153   1.324   9.511 -0.3060 -0.1174  0.0373
75207NA      NA35276  10.163   5.067   5.848 -0.1381  0.7814 -0.3716
75208NA      NA35277   9.106   3.848   6.581 -0.3888  0.0098 -0.2178
75209NA      NA35278  10.645   2.388   8.806 -0.4235  0.0865  0.0240
75210NA      NA35279   9.390   1.942   5.174  0.2908 -0.2756 -0.6749
75211NA      NA35280   1.062   7.125   4.870 -0.2979 -0.0144  0.1079
75212NA      NA35281   5.781  11.169   4.729  0.3121  0.0360 -0.4615
75213NA      NA35282   8.961   1.591   6.904 -0.2288 -0.3116 -0.0665
75214NA      NA35283   8.655   0.729   8.331  0.2127 -0.2479  0.2154
75215NA      NA35284   9.616   8.698  12.848  0.2678  0.3326 -0.0397
75216NA      NA35285   8.792   1.633   7.357 -0.1969  0.2923  0.1492
75217NA      NA35286   9.877   3.069   7.960  0.2599  0.4632 -0.1318
75218NA      NA35287   8.716   0.684   6.147 -0.1864 -0.0220 -0.2595
75219NA      NA35288   9.242   1.467   5.714 -0.6069  0.2144 -0.2529
75220NA      NA35289  10.172   4.837   9.724 -0.0612 -0.3500 -0.0326
75221NA      NA35290   8.823   0.448   7.243  0.3603 -0.0805  0.1254
75222NA      NA35291  10.147   6.050   6.178  0.5483 -0.0206  0.2047
75223NA      NA35292  11.393   8.436   8.109  0.3422 -0.0711 -0.4248
75224NA      NA35293  11.565   2.236   7.488 -0.2311  0.2696 -0.3092
75225NA      NA35294   7.509   6.566   8.354  0.2216  0.0370  0.1064
75226NA      NA35295  11.654   2.087   7.741  0.6099  0.3238 -0.0461
75227NA      NA35296  13.187   8.190   2.968 -0.2348  0.1842  0.5473
75228NA      NA35297   7.478   3.607   6.922  0.0492 -0.1752  0.3117
75229NA      NA35298   4.767   9.398   7.428 -0.0582 -0.4440  0.1389
75230NA      NA35299   8.050   1.938   7.264 -0.0133  0.2711 -0.0464
75231NA      NA35300   8.890   1.074   7.752 -0.0442  0.5481 -0.2998
75232NA      NA35301  10.139   4.080   6.336 -0.2001 -0.0809  0.1266
75233NA      NA35302  10.080   2.880   8.456 -0.2051  0.1743 -0.4663
75234NA      NA35303  11.737   0.753   0.122 -0.3213  0.0487  0.7384
75235NA      NA35304  11.475   2.197   7.964 -0.4728 -0.3357 -0.2264
75236NA      NA35305   7.212   2.964   9.972  0.1944 -0.0180  0.1980
75237NA      NA35306   8.586   0.649   9.681 -0.7872  0.6362 -0.6499
75238NA      NA35307  12.013   1.231   7.658 -0.5309  0.2219  0.1968
75239NA      NA35308   8.853   0.614   7.840  0.2518  0.2437 -0.3516
75240NA      NA35309  11.042   1.656   8.241 -0.2356 -0.1487 -0.2480
75241NA      NA35310  10.411   2.809   8.581  0.2873 -0.1652 -0.1156
75242NA      NA35311  11.902   9.481  12.677  0.0360 -0.2330 -0.0076
75243NA      NA35312   7.752   5.983   2.269  0.0389 -0.4026 -0.3162
75244NA      NA35313  10.567   5.730   9.602 -0.2114  0.3241 -0.1133
75245NA      NA35314  10.759   8.018  10.573 -0.0588  0.2030 -0.0272
75246NA      NA35315   2.929   9.318   0.601  0.2372  0.6956 -0.2329
75247NA      NA35316   7.288   2.760  10.198  0.3989 -0.2812 -0.2200
75248NA      NA35317   6.270  11.012   1.067 -0.0182  0.2954  0.6293
75249NA      NA35318   6.919   2.511   7.064 -0.2060 -0.2641 -0.1886
75250NA      NA35319  10.182   1.204   9.252 -0.1349  0.2137 -0.0975
75251NA      NA35320   8.888   4.510   8.818  0.2563 -0.1653 -0.1938
75252NA      NA35321  10.103   2.533   7.428  0.5939 -0.0538 -0.2832
75253NA      NA35322   2.878   1.508   3.074 -0.2535 -0.2169 -0.2962
75254NA      NA35323   4.014   9.887   3.301 -0.4224 -0.0527  0.4880
75255NA      NA35324  10.782   1.306   8.927 -0.2494  0.2569 -0.0165
75256NA      NA35325   9.759   8.862  11.853 -0.2345  0.4623 -0.1530
75257NA      NA35326   6.988   4.165   9.495 -0.0441  0.1155  0.4624
75258NA      NA35327  10.433   2.529   8.734 -0.1066 -0.4807  0.2510
75259NA      NA35328   7.915   4.016  10.284 -0.0309 -0.2033  0.0744
75260NA      NA35329   9.443   2.820  10.227  0.2503  0.0716  0.8180
75261NA      NA35330   5.526   9.209   6.200 -0.4077  0.6316  0.3372
75262NA      NA35331   1.887   6.158   3.701  0.0221  0.3675  0.1118
75263NA      NA35332   9.493   2.971   9.914  0.0000 -0.2236  0.1024
75264NA      NA35333   9.458   2.888  10.740 -0.4441 -0.2252  0.6366
75265NA      NA35334   8.612   3.223  10.502  0.1503 -0.6655 -0.6686
75266NA      NA35335  10.419   6.066   9.242  0.2487  0.4378  0.7546
75267NA      NA35336   4.697   5.604   8.628 -0.0895 -0.2277  0.3836
75268NA      NA35337   7.281   3.476  10.133 -0.1830 -0.6667 -0.4204
75269NA      NA35338  12.537   1.782   3.623 -0.1813  0.3162  0.1095
75270NA      NA35339   7.408   4.994   9.439  0.0210 -0.2440 -0.1124
75271NA      NA35340   8.816   3.430  11.026  0.2192  0.1532  0.4892
75272NA      NA35341   8.572   5.811   7.854  0.0975  0.0070  0.0437
75273NA      NA35342   9.769   3.093   9.812 -0.2060  0.1182  0.0821
75274NA      NA35343   7.029   6.897   3.200  0.0897  0.5307 -0.1388
75275NA      NA35344   5.138   3.323   6.780  0.0893  0.2838 -0.4389
75276NA      NA35345   4.730   6.739  11.148  0.1337  0.0951  0.2544
75277NA      NA35346  10.166   1.968   7.062 -0.0887 -0.1445  0.6276
75278NA      NA35347   9.098   7.417   9.903  0.1566 -0.7151  0.5312
75279NA      NA35348  10.430   1.947   8.750  0.4400 -0.1717  0.0109
75280NA      NA35349   8.117   2.195   8.060 -0.5741 -0.1162 -0.0162
75281NA      NA35350   7.941   2.885   4.609  0.0376  0.1272 -0.5475
75282NA      NA35351   3.170  12.941  12.884 -0.4344  0.1337  0.4044
75283NA      NA35352   4.625   4.837   0.722  0.5292 -0.7343  0.1049
75284NA      NA35353   3.102   2.368   2.349  0.3003 -0.0525 -0.1340
75285NA      NA35354   7.401   3.925  10.269 -0.2276 -0.3668 -0.0525
75286NA      NA35355   8.968   0.626   6.621  0.2520  0.1483 -0.0417
75287NA      NA35356   9.096   4.292   8.627 -0.4041 -0.7619 -0.6317
75288NA      NA35357   7.331   1.905   5.014  0.6941 -0.5037  0.3489
75289NA      NA35358   8.072   1.451   5.475 -0.3660  0.0185 -0.2130
75290NA      NA35359   4.240  10.850   7.427  0.3997  0.0559 -0.3297
75291NA      NA35360   0.878   1.059  11.834 -0.1509 -0.0905  0.1723
75292NA      NA35361   9.177   5.503   7.977  0.0314  0.4829  0.2002
75293NA      NA35362  11.026  10.752   7.909 -0.0765  0.6994 -0.2495
75294NA      NA35363  10.600   2.016   6.719  0.5050  0.1028  0.1560
75295NA      NA35364   8.981   1.486   7.163 -0.4807 -0.0550  0.3031
75296NA      NA35365   8.801   1.458   7.915  0.0308 -0.0901  0.3532
75297NA      NA35366   7.023   0.975   7.030 -0.0032  0.0114 -0.5417
75298NA      NA35367   8.978   1.439   5.825 -0.4079  0.3197 -0.3046
75299NA      NA35368   9.272   5.983   7.779  0.2272  0.0758  0.0466
75300NA      NA35369   8.068   2.251   8.374 -0.1878 -0.0383 -0.1247
75301NA      NA35370   8.762   1.368   7.598 -0.4626 -0.4077  0.1012
75302NA      NA35371  10.031   3.110   8.226  0.1170 -0.3384  0.3781
75303NA      NA35372   0.465   2.288   2.191 -0.1047 -0.2129 -0.2454
75304NA      NA35373   9.805   1.634   6.864 -0.3729  0.1026 -0.3153
75305NA      NA35374   0.869   2.138   2.833 -0.0433  0.2879  0.1152
75306NA      NA35375   6.334   1.735   5.377 -0.0981 -0.5298 -0.5391
75307NA      NA35376   6.928   2.542   7.887 -0.0031  0.1108  0.5015
75308NA      NA35377   7.002   2.325   8.119 -0.1748  0.5873 -0.4640
75309NA      NA35378   6.964   2.766   7.638  0.0620  0.0477  0.1604
75310NA      NA35379   8.844   1.160   8.042 -0.3406 -0.0191 -0.4200
75311NA      NA35380   6.791   1.442   6.033 -0.0359  0.0094 -0.1221
75312NA      NA35381  11.006   3.337   8.995  0.0233 -0.4527 -0.4592
75313NA      NA35382   4.224  12.249  11.758 -0.0158 -0.0369 -0.1062
75314NA      NA35383  11.364   2.113   7.244 -0.2991 -0.0488  0.5704
75315NA      NA35384  11.750   8.698   3.144 -0.7325  0.4051 -0.2329
75316NA      NA35385  11.394   2.068   7.697 -0.1288 -0.1293  0.7672
75317NA      NA35386   9.657   2.793   8.869  0.8242 -0.6892 -0.4745
75318NA      NA35387  10.194   4.062   6.685 -0.2457 -0.4836  0.2917
75319NA      NA35388  10.790   3.137   8.978  0.5238 -0.1332  0.0864
75320NA      NA35389  12.507   9.061  10.421  0.6866 -0.0727  0.1229
75321NA      NA35390  10.633   4.637   2.767 -0.2808  0.0439 -0.3129
75322NA      NA35391   6.883   3.482   8.052  0.4612 -0.2759  0.6987
75323NA      NA35392   6.580   5.381   8.871 -0.1882  0.4922  0.3108
75324NA      NA35393   5.031   3.775   6.995  0.1744  0.3447 -0.3665
75325NA      NA35394   8.390   4.623   8.797 -0.1961  0.5025 -0.3890
75326NA      NA35395   6.644   3.662   7.963 -0.4332  0.3519  0.1441
75327NA      NA35396   9.706   3.049  10.883 -0.1012  0.1080  0.0073
75328NA      NA35397  10.730   4.182   9.251 -0.0602  0.2289  0.2512
75329NA      NA35398  13.059   8.581   9.361 -0.3342 -0.4479 -0.1957
75330NA      NA35399   5.755   3.128   9.197  0.2203  0.1189  0.3424
75331NA      NA35400   6.882   2.979   9.807 -0.2502  0.4046  0.5102
75332NA      NA35401   8.101   4.658   9.104  0.1487  0.1070 -0.3200
75333NA      NA35402   7.757   4.957   9.392  0.4672  0.3223 -0.1126
75334NA      NA35403   8.649   6.452   9.074 -0.5308  0.1253  0.0795
75335NA      NA35404   4.973   1.708   9.010 -0.2950 -0.0265 -0.4762
75336NA      NA35405   9.279   3.163   9.828  0.1215  0.0916 -0.0748
75337NA      NA35406   9.215   6.127   8.879  0.1706 -0.7625 -0.4033
75338NA      NA35407   5.810   3.676  10.053  0.0223  0.1525  0.0075
75339NA      NA35408   8.889   0.860   7.967  0.3730  0.0267  0.2628
75340NA      NA35409   6.501   5.360   5.437  0.2978 -0.2712  0.1172
75341NA      NA35410   5.924  12.249   0.353 -0.2666  0.0845  0.0753
75342NA      NA35411   6.337   2.553   9.894 -0.1090 -0.6611 -0.3239
75343NA      NA35412   8.795   3.397  10.469  0.0257 -0.2440 -0.0556
75344NA      NA35413   5.768   3.148   9.535 -0.2841  0.0662 -0.0440
75345NA      NA35414   3.283   9.109   9.305 -0.2398 -0.3548 -0.0692
75346NA      NA35415   1.168   5.234   9.384 -0.3449  0.0867  0.2929
75347NA      NA35416   4.031  11.917   1.883 -0.0603 -0.0617 -0.0714
75348NA      NA35417  12.243   0.073   5.456 -0.2457 -0.2541 -0.1110
75349NA      NA35418  10.495   4.669   9.322  0.0329  0.1758  0.3453
75350NA      NA35419  10.562   0.262   0.317  0.3201  0.0864 -0.3399
75351NA      NA35420   6.230   3.321   9.303 -0.1518 -0.2273  0.5754
75352NA      NA35421  10.747   8.888  10.296 -0.1802 -0.1135  0.2103
75353NA      NA35422   6.890   2.021   7.038  0.0961  0.1710 -0.1701
75354NA      NA35423   6.420   1.357   0.576  0.1527  0.2322 -0.2062
75355NA      NA35424   5.912   9.670  10.834  0.1074  0.1336  0.1870
75356NA      NA35425   7.342   2.147   5.251  0.1033 -0.1772 -0.0305
75357NA      NA35426   2.779   7.063   9.573 -0.4652 -0.1785 -0.3832
75358NA      NA35427   0.932   4.876  11.229 -0.1823  0.2276 -0.4459
75359NA      NA35428  13.233   3.166   0.019  0.1388  0.1148  0.1096
75360NA      NA35429   9.221   1.565   5.997 -0.1891 -0.3220 -0.5461
75361NA      NA35430   8.949   1.053   5.974 -0.0423  0.0675  0.2012
75362NA      NA35431  10.372   2.655   7.538  0.1115 -0.3846  0.1536
75363NA      NA35432   7.108   2.808   9.718  0.3519  0.2960 -0.4140
75364NA      NA35433   9.258   3.436   5.508 -0.1626  0.4616  0.2883
75365NA      NA35434  10.039   3.863   6.867 -0.3149  0.0824  0.2631
75366NA      NA35435   2.507  10.495   6.612  0.2914  0.0143 -0.3854
75367NA      NA35436   6.837   6.679   7.856  0.1233  0.3951  0.0133
75368NA      NA35437   8.880   3.074  10.591 -0.1707 -0.0943  1.2308
75369NA      NA35438   6.911   0.702   6.916  0.2796 -0.1624 -0.4307
75370NA      NA35439  10.404   5.773   9.343  0.3894  0.5582  0.0611
75371NA      NA35440   7.944   2.034   7.843  0.3494  0.0384 -0.0041
75372NA      NA35441   8.536   4.666   9.264  0.1051 -0.3089 -0.3314
75373NA      NA35442   8.293   6.588   7.382 -0.0567 -0.2940  0.2153
75374NA      NA35443   5.486   5.123   9.953 -0.0924 -0.1217 -0.1500
75375NA      NA35444   8.670   4.418   4.358  0.0355  0.0204 -0.1707
75376NA      NA35445   8.261  13.087  10.314 -0.0391 -0.0054 -0.1223
75377NA      NA35446   9.631   3.777   7.172 -0.2390  0.1118  0.1994
75378NA      NA35447   7.797   6.474   6.863 -0.0593 -0.4331  0.8596
75379NA      NA35448   8.760   4.724   7.825  0.1770 -0.2512 -0.3298
75380NA      NA35449   7.129   1.488   5.280  0.1151 -0.2589 -0.0843
75381NA      NA35450   9.818   4.322   0.069 -0.1233  0.4757 -0.2352
75382NA      NA35451   6.632   2.609   7.793 -0.3944 -0.1594 -0.5787
75383NA      NA35452   8.946   4.717   7.450  0.1480  0.2128 -0.4220
75384NA      NA35453   9.974   3.344   8.078 -0.0559  0.0060 -0.4132
75385NA      NA35454   1.757   9.093  12.408 -0.3257  0.0582  0.1699
75386NA      NA35455   1.732  11.251  10.284 -0.5606 -0.2555  0.0517
75387NA      NA35456   6.531   2.087  10.149  0.0236 -0.3980  0.1785
75388NA      NA35457   8.625   4.511   8.943 -0.0038 -0.2704 -0.0053
75389NA      NA35458   7.355   4.106   8.867 -0.3927 -0.2525 -0.0688
75390NA      NA35459   7.863   5.269   9.354 -0.3199 -0.7155 -0.0743
75391NA      NA35460   7.937   5.060   9.178 -0.1614  0.2235  0.5642
75392NA      NA35461   6.125   3.353   5.584 -0.5128  0.1254 -0.4025
75393NA      NA35462   6.796   2.515   7.590  0.1366  0.5580 -0.1273
75394NA      NA35463   9.493   3.656   6.952 -0.4638 -0.0335  0.0678
75395NA      NA35464   5.246   1.289  11.705  0.2304 -0.2014  0.0699
75396NA      NA35465   9.151   3.539   4.662  0.0529  0.8246 -0.6054
75397NA      NA35466   3.098   1.790  11.970 -0.0246 -0.4620 -0.0322
75398NA      NA35467   0.847   4.842  12.198 -0.2055  0.3587  0.1760
75399NA      NA35468   8.887  10.669  10.404  0.6476 -0.3470  0.3237
75400NA      NA35469   8.762   4.264   8.730 -0.1066 -0.1981  0.1855
75401NA      NA35470   6.550   1.439   6.221 -0.0249 -0.4186 -0.0515
75402NA      NA35471   9.251   6.701   9.382 -0.2928 -0.4825  0.4723
75403NA      NA35472  10.635  10.810  13.048  0.6427  0.0967 -0.0765
75404NA      NA35473   8.491   6.225   9.170 -0.1112 -0.0717  0.1680
75405NA      NA35474   9.408   5.726   7.872  0.0791  0.2444  0.2080
75406NA      NA35475   9.923   5.942   8.250 -0.0728  0.3010  0.4693
75407NA      NA35476   8.918   3.166  10.996 -0.1816  0.2537 -0.0978
75408NA      NA35477   6.477   2.346   6.906 -0.0759 -0.2811 -0.3894
75409NA      NA35478   6.394   6.112   7.132 -0.1994  0.8530 -0.0545
75410NA      NA35479  10.685   3.179  10.094  0.6494 -0.1826 -0.5442
75411NA      NA35480   8.894   3.318  10.736 -0.3915  0.2875 -0.2139
75412NA      NA35481   7.945  12.292  10.889  0.1295 -0.3038  0.5738
75413NA      NA35482  10.689   3.492   1.884 -0.3235 -0.5692 -0.0902
75414NA      NA35483   6.525   2.710   6.392 -0.3357 -0.2379  0.1109
75415NA      NA35484   6.236   3.841   5.475 -0.3775  0.2505  0.2614
75416NA      NA35485   2.110   5.346   0.481 -0.3186 -0.0010  0.2730
75417NA      NA35486   9.331   2.945   5.270  0.0632 -0.2324  0.1630
75418NA      NA35487  10.408   2.260   8.865  0.4696 -0.1259  0.3683
75419NA      NA35488   6.493   6.134   8.175 -0.4726  0.0413 -0.5253
75420NA      NA35489   9.970   1.718   6.603  0.0260 -0.6688  0.0117
75421NA      NA35490   8.336   6.453   9.134 -0.0610  0.0872  0.6444
75422NA      NA35491   6.598   9.486   4.823  0.2177 -0.2600  0.1060
75423NA      NA35492   4.804  11.689   0.107  0.1015  0.3536 -0.1975
75424NA      NA35493   9.405   6.285   8.669 -0.0014 -0.0724  0.0238
75425NA      NA35494   9.977   4.226   6.540 -0.5583  0.2442 -0.1448
75426NA      NA35495   5.006   5.306   4.733 -0.2823  0.1234  0.5482
75427NA      NA35496   7.823   3.458   4.602 -0.3522 -0.2641 -0.1176
75428NA      NA35497  12.230   8.394   9.098  0.0644  0.1548  0.1058
75429NA      NA35498   9.323   3.716   5.445 -0.0993  0.0381  0.5815
75430NA      NA35499   8.792   6.215   8.928 -0.1780  0.1459 -0.2948
75431NA      NA35500   7.854   0.791   7.235 -0.0397 -0.0209 -0.2184
75432NA      NA35501  11.084   1.560   8.518  0.2047  0.1003  0.5361
75433NA      NA35502   6.496   3.068   6.440  0.4116  0.2048 -0.1016
75434NA      NA35503   6.741   2.288   7.079 -0.2009  0.0607 -0.0892
75435NA      NA35504   9.481   3.574   7.322 -0.1472  0.0651  0.3409
75436NA      NA35505   8.791   4.429   7.924 -0.0412 -0.3813 -0.0709
75437NA      NA35506  10.476   4.210   9.081  0.1192 -0.0676  0.3643
75438NA      NA35507   7.452   3.608   5.294 -0.4619 -0.0696 -0.4983
75439NA      NA35508   1.947   7.592  10.634 -0.4674 -0.2067 -0.1869
75440NA      NA35509   7.923   6.434   6.603 -0.3560  0.1746 -0.1410
75441NA      NA35510   9.002   6.077   6.005  0.0879  0.6395 -0.3753
75442NA      NA35511  10.086   6.323   6.279 -0.1899  0.0498 -0.0257
75443NA      NA35512  10.356   5.035   6.137 -0.0644 -0.1961 -0.2891
75444NA      NA35513   9.032   2.969   4.568 -0.8560 -0.0858  0.3996
75445NA      NA35514   9.693   5.819   8.045 -0.6009 -0.0220 -0.5963
75446NA      NA35515  12.726   0.323   0.342 -0.0638  0.1224 -0.8399
75447NA      NA35516   5.237   3.564   6.835  0.0663  0.1827  0.0442
75448NA      NA35517   7.297   4.655   9.446 -0.0351  0.0030 -0.1868
75449NA      NA35518  12.273   4.232  10.211 -0.1199 -0.5082  0.0134
75450NA      NA35519   8.430   6.119   7.445 -0.1350 -0.0450 -0.2500
75451NA      NA35520   7.141   3.529   8.189 -0.1826  0.6471 -0.3809
75452NA      NA35521   9.984   5.307   5.771  0.2111 -0.1453 -0.0202
75453NA      NA35522   6.233   3.217   9.586 -0.2275  0.2149  0.4848
75454NA      NA35523   5.085   4.764   7.589 -0.2986 -0.1162 -0.0282
75455NA      NA35524   8.405   5.977   8.017 -0.3602  0.0584  0.5967
75456NA      NA35525   0.410   0.713  10.423  0.0730  0.0813 -0.0499
75457NA      NA35526  10.106   6.006   8.521 -0.2942  0.1222 -0.1662
75458NA      NA35527   0.967   1.206   6.216 -0.4690 -0.2816  0.4558
75459NA      NA35528   6.870   1.181   5.977  0.4504  0.2722 -0.1953
75460NA      NA35529   3.025  13.076  10.291 -0.2796  0.5342  0.0774
75461NA      NA35530  12.015  12.854   9.288  0.1101 -0.1073 -0.0709
75462NA      NA35531   1.153   1.060   8.452 -0.2675  0.0626  0.2896
75463NA      NA35532   9.407  12.967   7.917 -0.3619 -0.1158 -0.3200
75464NA      NA35533   6.390   5.013   8.451 -0.1172 -0.0123 -0.1293
75465NA      NA35534   9.723   0.548   5.610 -0.3267  0.0977  0.0365
75466NA      NA35535  10.291  12.763   0.650  0.2000 -0.2789  0.0014
75467NA      NA35536   9.027   6.328   5.846 -0.3738  0.0776  0.0304
75468NA      NA35537   1.236   3.142  12.518 -0.7415  0.3787  0.1653
75469NA      NA35538   9.125   0.013   8.936 -0.1846  0.3025  0.0728
75470NA      NA35539   1.363   2.786  13.286  0.4051  0.4954 -0.2212
75471NA      NA35540   1.175   9.849   0.223  0.1436 -0.1614 -0.4968
75472NA      NA35541   2.946  11.642   0.319 -0.4545  0.0289 -0.2891
75473NA      NA35542   9.113   3.027   5.496  0.2521  0.0882  0.0514
75474NA      NA35543   5.722   3.415   6.315 -0.0343  0.1751  0.0013
75475NA      NA35544   7.568   6.392   8.582 -0.2113  0.4118  0.3522
75476NA      NA35545   5.850   2.876   7.457 -0.0433 -0.1844  0.0138
75477NA      NA35546   7.929   3.507   4.346  0.4541 -0.0417 -0.0597
75478NA      NA35547   8.687   3.696   4.298  0.0096  0.1151  0.2405
75479NA      NA35548   7.908   3.224   4.485  0.3467  0.0333 -0.8632
75480NA      NA35549   5.588   4.727   5.871  0.0117  0.1977 -0.1142
75481NA      NA35550  10.975  12.351  10.294  0.1380 -0.5074  0.1047
75482NA      NA35551   9.049   3.570   5.699 -0.2116 -0.1390 -0.1767
75483NA      NA35552  10.834   3.138  10.410  0.0224  0.1906 -0.2637
75484NA      NA35553   8.587   4.142   4.323  0.2505 -0.8702  0.0031
75485NA      NA35554   9.803   3.005   8.775 -0.2473 -0.1415  0.1554
75486NA      NA35555   2.971   6.234   0.178 -0.3965  0.4229 -0.0051
75487NA      NA35556  10.244   4.039   6.975 -0.3153  0.6475 -0.7542
75488NA      NA35557   8.723   3.889   4.528 -0.4913 -0.4411  0.0404
75489NA      NA35558   9.528  13.043   8.477 -0.0610  0.3323  0.1195
75490NA      NA35559   8.171   4.556   5.781  0.0831  0.0310 -0.0926
75491NA      NA35560   7.666   4.728   6.632  0.2764 -0.0077 -0.0396
75492NA      NA35561   7.669   3.730   4.755 -0.5146 -0.0467  0.2556
75493NA      NA35562   0.584   1.554  12.756 -0.3513 -0.1878 -0.4836
75494NA      NA35563   5.292   4.969   8.460 -0.0001 -0.3657  0.1379
75495NA      NA35564   9.239   3.220   5.294  0.1148  0.6553 -0.2609
75496NA      NA35565   7.456   3.569   5.010  0.0281  0.3072 -0.1240
75497NA      NA35566   8.248   1.733   5.485 -0.8724  0.1393 -0.1591
75498NA      NA35567   9.254   1.490   7.033  0.3037  0.2510 -0.2506
75499NA      NA35568   8.720   4.907   4.721  0.3562 -0.0516 -0.4350
75500NA      NA35569   6.938   3.433   5.023 -0.4249 -0.2914  0.6052
75501NA      NA35570   5.593   2.243   1.434  0.0420  0.0868 -0.1247
75502NA      NA35571   8.898   5.335   5.721 -0.4401 -0.0310 -0.3793
75503NA      NA35572   9.282   3.776   7.145 -0.5619 -0.1657  0.5557
75504NA      NA35573   8.105   6.579   5.971 -0.0147 -0.7137 -0.6122
75505NA      NA35574   7.870  11.999  13.279  0.2182  0.3852 -0.0643
75506NA      NA35575   6.160   3.616   5.717 -0.0064 -0.8262  0.0612
75507NA      NA35576  12.776   7.875   7.536 -0.2765 -0.2936  0.2688
75508NA      NA35577  10.867   1.752   8.507  0.0809  0.1388  0.2136
75509NA      NA35578   5.101   3.861   6.134 -0.5372  0.0853 -0.7182
75510NA      NA35579   6.448   5.193   9.579 -0.1331 -0.2021  0.3576
75511NA      NA35580   6.796   2.931   6.319  0.4150  0.0653 -0.1527
75512NA      NA35581   9.844   1.971   6.431  0.2775  0.4078  0.2330
75513NA      NA35582   9.137   4.573   7.635 -0.2579 -0.0439 -0.1287
75514NA      NA35583   7.320   9.922   2.928 -0.2066 -0.1254  0.5748
75515NA      NA35584   8.872  10.004   9.061 -0.4745  0.0231 -0.0587
75516NA      NA35585   5.974   3.854   5.676  0.0624 -0.0097  0.0209
75517NA      NA35586   5.500   3.555   6.435  0.0322 -0.0979 -0.4306
75518NA      NA35587   6.644   3.551   8.240 -0.2347 -0.5036 -0.3640
75519NA      NA35588   5.123   1.213   9.535  0.0361  0.0045  0.3605
75520NA      NA35589   5.889   4.606   5.695  0.2120 -0.4826  0.6377
75521NA      NA35590   9.639   6.035   8.247  0.3985 -0.1102  0.0923
75522NA      NA35591   8.845   3.151   4.415  0.6740 -0.1935 -0.4473
75523NA      NA35592   5.048   3.493   7.048  0.5851  0.0220  0.1368
75524NA      NA35593   5.312   4.593   7.661  0.2382  0.0363 -0.2734
75525NA      NA35594   6.527   2.548   6.645 -0.2744 -0.3170  0.3268
75526NA      NA35595   6.336   4.457   7.842  0.0305 -0.7656  0.2282
75527NA      NA35596   0.805  10.669   4.455 -0.2913  0.4261 -0.4218
75528NA      NA35597   6.623   6.392   8.004  0.7940 -0.2026  0.3056
75529NA      NA35598   6.227   6.016   8.095  0.1059 -0.1788 -0.1191
75530NA      NA35599   8.389   6.121   7.745  0.4654  0.0686 -0.5789
75531NA      NA35600   6.499   5.336   8.585 -0.0390  0.2650 -0.2298
75532NA      NA35601   3.361   0.858  10.542 -0.4351 -0.2502 -0.0189
75533NA      NA35602   8.659   5.349   5.940  0.2458  0.4008 -0.5118
75534NA      NA35603   4.523   8.735   6.401  0.1001  0.3840  0.4514
75535NA      NA35604   1.370   7.535   4.770 -0.0148  0.0985  0.3736
75536NA      NA35605   6.220   1.639   5.980  0.2205 -0.1077  0.3719
75537NA      NA35606   4.360   2.427  10.373  0.1631  0.0687  0.6273
75538NA      NA35607   9.341   6.545   9.630 -0.0451  0.1642  0.3466
75539NA      NA35608   6.082   4.814   7.848 -0.2052 -0.4839 -0.5216
75540NA      NA35609   6.213   4.658   8.051  0.0578 -0.1783 -0.1499
75541NA      NA35610  12.876   0.441   6.346 -0.2374 -0.3434  0.1521
75542NA      NA35611   6.392   3.570   8.113  0.3839  0.5722  0.2852
75543NA      NA35612   9.139   5.690   7.752  0.0898 -0.0260 -0.5027
75544NA      NA35613   8.269   9.561  12.528  0.0469  0.5246 -0.2953
75545NA      NA35614   5.891   1.444   1.943 -0.4951  0.0307  0.3499
75546NA      NA35615   5.193   4.314   7.829 -0.1876  0.2282  0.1329
75547NA      NA35616   6.942  13.129  11.444 -0.1163 -0.1796  0.2047
75548NA      NA35617   7.358   1.635   5.155  0.2146 -0.2376 -0.4965
75549NA      NA35618   2.086   2.901   1.571  0.1831 -0.0639 -0.3272
75550NA      NA35619   2.391   0.991   7.724 -0.1232  0.0056 -0.0568
75551NA      NA35620   9.477   1.542   6.842 -0.2145  0.2555 -0.5701
75552NA      NA35621   7.454   4.037   8.565 -0.1426 -0.1060 -0.2517
75553NA      NA35622   9.156   5.165   5.510 -0.4806  0.6136  0.2517
75554NA      NA35623   9.265   6.138   7.564 -0.5707 -0.2873 -0.3306
75555NA      NA35624   5.634   3.891   9.959 -0.0273  0.4164  0.0940
75556NA      NA35625   3.971   2.190   1.892  0.1965 -0.4080  0.1480
75557NA      NA35626   5.885   2.126   4.478 -0.2085  0.0297 -0.0982
75558NA      NA35627   9.159   1.000   8.917  0.1168 -0.2793 -0.2236
75559NA      NA35628   6.535   1.279   6.472  0.2294  0.5724  0.5004
75560NA      NA35629   8.922   4.024  10.725  0.2093  0.1630 -0.3212
75561NA      NA35630  11.904   6.019   5.114 -0.0922  0.0818  0.3094
75562NA      NA35631   6.658   3.874   4.932 -0.5575 -0.2569  0.1725
75563NA      NA35632  10.780  12.332   2.639 -0.0455 -0.3598 -0.2373
75564NA      NA35633   3.263   7.898   2.686  0.1843 -0.2652  0.3511
75565NA      NA35634   8.634   0.662   8.047  0.4347  0.0823 -0.4807
75566NA      NA35635   6.356   6.482  11.195 -0.1453 -0.0692 -0.0165
75567NA      NA35636   9.429  10.350   6.873 -0.3141 -0.0404 -0.7785
75568NA      NA35637   4.378  10.340   8.683  0.3234  0.1506 -0.2587
75569NA      NA35638  10.101   3.553   5.762 -0.4271 -0.0032 -0.1676
75570NA      NA35639   6.271   2.570   6.489 -0.0968 -0.4351 -0.2707
75571NA      NA35640  10.199   3.067   7.971 -0.2388 -0.0547 -0.6765
75572NA      NA35641   8.170   4.841   5.655 -0.1581  0.5598 -0.1083
75573NA      NA35642   3.086   4.648  10.524 -0.3478  0.2186  0.1067
75574NA      NA35643  10.250   3.776   6.720  0.0792 -0.0656 -0.5549
75575NA      NA35644   3.276   6.302   8.438  0.0323 -0.0815 -0.5171
75576NA      NA35645   7.957   4.619   6.716  0.2697  0.1490 -0.5356
75577NA      NA35646  10.469   1.659   8.777 -0.0891  0.3779 -0.4817
75578NA      NA35647  11.939   5.902   4.549 -0.1486 -0.3511 -0.2470
75579NA      NA35648   0.753   7.003   6.886  0.2927 -0.5638 -0.5114
75580NA      NA35649   6.544   1.518   9.244 -0.0825 -0.2380  0.4408
75581NA      NA35650   5.724   8.076   0.384 -0.2220  0.2648 -0.3122
75582NA      NA35651   7.187   7.832  13.102 -0.0893  0.4466  0.0893
75583NA      NA35652  11.651   1.658   8.848 -0.3748  0.5070 -0.1563
75584NA      NA35653   7.553   3.657   6.613  0.2747 -0.3215 -0.0511
75585NA      NA35654   6.401   0.657   2.412 -0.2042 -0.5292 -0.3055
75586NA      NA35655   0.452   6.779   9.325 -0.4488  0.7540  0.1543
75587NA      NA35656   8.826   4.983   7.390  0.5818 -0.0586 -0.3688
75588NA      NA35657   9.380   5.263   5.360 -0.1013  0.1576  0.3562
75589NA      NA35658   9.111   5.239   5.794  0.1109  0.2295  0.3404
75590NA      NA35659   8.508   4.690   4.536  0.3388 -0.2965 -0.0488
75591NA      NA35660   8.985   3.256   5.411  0.1919  0.3701 -0.3070
75592NA      NA35661   9.291  10.682   3.929  0.0171 -0.4980  0.0244
75593NA      NA35662   8.926   3.690   4.498  0.4389 -0.1543  0.1764
75594NA      NA35663   8.388   5.557   5.159  0.3154  0.0242 -0.4543
75595NA      NA35664   7.785   0.956   8.185 -0.0759 -0.4861 -0.0597
75596NA      NA35665  10.511  11.810   8.983  0.1476  0.1544  0.2745
75597NA      NA35666   5.663   2.896   7.725 -0.2158 -0.1491  0.4479
75598NA      NA35667   6.508   5.003   5.384 -0.3273 -0.7845  0.0540
75599NA      NA35668   6.141   4.715   5.685 -0.2403  0.1763  0.5167
75600NA      NA35669   6.011   3.674   5.438 -0.2161  0.6273 -0.0624
75601NA      NA35670   7.949   8.185  11.376 -0.1983 -0.3030  0.3398
75602NA      NA35671   5.906   5.407   6.475 -0.2297 -0.4062 -0.1710
75603NA      NA35672   8.749   5.639   5.987 -0.3567  0.6035 -0.5677
75604NA      NA35673   6.861   5.464   9.097 -0.2169  0.3785 -0.3373
75605NA      NA35674   7.098   5.093   6.372  0.0502 -0.7652  0.1028
75606NA      NA35675   0.203   9.660  12.264  0.5988  0.3814 -0.0637
75607NA      NA35676  10.684   4.048   8.956 -0.1367 -0.0586 -0.0682
75608NA      NA35677   8.771   5.962   5.999 -0.7630  0.1243  0.0280
75609NA      NA35678  11.065   1.068   9.228 -0.2364  0.1987  0.0207
75610NA      NA35679  10.848   3.358   8.779 -0.3981  0.5099  0.3526
75611NA      NA35680   4.276  11.852   8.056 -0.3847 -0.2508 -0.0351
75612NA      NA35681   3.836   4.858   2.784 -0.7300  0.3354 -0.2684
75613NA      NA35682   1.166   0.078   2.064 -0.1157  0.1425 -0.3811
75614NA      NA35683  11.380   1.177   9.129 -0.3860 -0.0801 -0.3190
75615NA      NA35684   6.205   5.373   6.379  0.1684  0.5783  0.2662
75616NA      NA35685   6.076  10.739   3.578  1.0046 -0.0690 -0.0938
75617NA      NA35686   7.754   4.467   6.544  0.3451  0.0467  0.4278
75618NA      NA35687   7.758   6.175   6.884 -0.1973 -0.2279 -0.0862
75619NA      NA35688   8.154   7.461   8.696  0.2806  0.0586 -0.4769
75620NA      NA35689   9.480   5.996   7.985 -0.0862  0.2342 -0.4872
75621NA      NA35690  10.791   8.899   4.097  0.4802 -0.0346 -0.0705
75622NA      NA35691   8.621   5.484   7.807 -0.1951 -0.1433 -0.1094
75623NA      NA35692   6.397   1.818   6.829  0.2636 -0.1020 -0.2255
75624NA      NA35693  12.876   0.091   9.502 -0.3169  0.0090 -0.1288
75625NA      NA35694   6.571  10.577   6.127 -0.1171  0.0192 -0.0649
75626NA      NA35695   7.646   3.637   4.451 -0.8607 -0.0099 -0.6382
75627NA      NA35696   5.048   4.423   7.567 -0.0774 -0.0603  0.4697
75628NA      NA35697   6.512   5.831   7.169 -0.0519 -0.0745  0.1262
75629NA      NA35698   5.955   4.861   5.538 -0.3284  0.0731  0.1359
75630NA      NA35699   6.081   2.122   9.404  0.4918  0.2564 -0.2484
75631NA      NA35700   5.857   5.172   6.963  0.0844  0.0088 -0.0955
75632NA      NA35701  11.151   5.439   3.815 -0.0550  0.1620  0.1058
75633NA      NA35702   9.938  10.883   2.143  0.0506 -0.3981  0.2975
75634NA      NA35703   6.318   2.355   9.388 -0.5730 -0.2317 -0.6135
75635NA      NA35704   6.289  11.959  12.246 -0.5399  0.0912  0.1000
75636NA      NA35705   7.586   4.139   4.441 -0.4079 -0.3108 -0.0760
75637NA      NA35706   5.444   5.058   8.159  0.1119  0.0480 -0.1040
75638NA      NA35707   1.433  10.541   9.572 -0.1955 -0.3122 -0.3902
75639NA      NA35708   6.224   5.234   8.536  0.2405  0.0398  0.3260
75640NA      NA35709   6.876   3.652   4.822 -0.0023 -0.2573 -0.1328
75641NA      NA35710   3.314   3.250   0.630  0.0505 -0.2859 -0.0498
75642NA      NA35711   9.501   6.285   9.553  0.1235 -0.0441  0.8317
75643NA      NA35712   5.894  12.454   1.835 -0.3602  0.4522 -0.5511
75644NA      NA35713   7.512   6.357   6.912 -0.1055 -0.1954  0.3997
75645NA      NA35714   6.190   5.136   8.237 -0.2627 -0.2140 -0.1605
75646NA      NA35715   8.042   6.586   6.324  0.3658 -0.0344 -0.4288
75647NA      NA35716   7.908   6.120   6.630 -0.2617  0.1963  0.1219
75648NA      NA35717   8.466   4.973   5.503 -0.6672  0.6349  0.6239
75649NA      NA35718   6.736   6.124   8.044 -0.0194 -0.4291  0.0294
75650NA      NA35719   6.595   2.012   7.002  0.1243  0.0182  0.0435
75651NA      NA35720   0.767   6.126   4.690  0.0558  0.0886  0.2170
75652NA      NA35721   9.050   3.368   4.441 -0.0809 -0.3079  0.6868
75653NA      NA35722   8.818   8.686   9.760  0.1277  0.0764  0.3039
75654NA      NA35723   6.356   2.034   5.314  0.5898 -0.4459 -0.5388
75655NA      NA35724   9.347   0.147   5.753  0.1057  0.1810  0.2830
75656NA      NA35725   9.554  12.845   8.185 -0.2336 -0.3133 -0.7487
75657NA      NA35726   8.218   3.078   4.486  0.1336 -0.1098  0.1255
75658NA      NA35727   5.989   6.670   4.032  0.4769 -0.4307 -0.2014
75659NA      NA35728   5.970   4.966   8.097  0.3675 -0.5306 -0.2301
75660NA      NA35729   6.226   4.854   5.333 -0.0262 -0.5170 -0.3743
75661NA      NA35730   8.967   2.794   0.613 -0.5815  0.1021  0.3544
75662NA      NA35731   3.949  11.359   4.942  0.3898 -0.5308  0.1004
75663NA      NA35732   9.067   1.370   8.153  0.1952  0.2483  0.2638
75664NA      NA35733   4.865   7.440   1.820  0.3047  0.3187  0.2562
75665NA      NA35734   0.689   7.406   6.197 -0.1300 -0.2198 -0.0205
75666NA      NA35735   7.991   7.762   3.431  0.2308 -0.2945 -0.4813
75667NA      NA35736  10.129   2.904  11.038 -0.1643  0.3129  0.0606
75668NA      NA35737  12.501   6.864  10.995 -0.0998  0.0662 -0.2295
75669NA      NA35738   9.119   6.359   8.727  0.0128  0.2990 -0.0358
75670NA      NA35739   5.437   3.269   6.354 -0.2985  0.0145  0.7613
75671NA      NA35740   5.920   5.395   6.760 -0.0184  0.3582  0.2129
75672NA      NA35741   7.930   2.604   4.421 -0.3892 -0.3424  0.0946
75673CL      CL35742   0.496  10.820   6.907  0.0782  0.4358  0.2039
75674CL      CL35743   5.019   8.806   9.045 -0.2712 -0.2062 -0.0753
75675CL      CL35744  12.967   0.953   9.749  0.1046  0.1472  0.0872
75676CL      CL35745  10.999  10.920   7.270 -0.4849  0.2826 -0.0540
75677CL      CL35746  13.103  12.949   4.530 -0.0299 -0.0858  0.3462
75678CL      CL35747  12.222   7.104  10.346 -0.6092  0.1246  0.0104
75679CL      CL35748   2.096   8.797   9.186  0.0402  0.1403 -0.1877
75680CL      CL35749   0.659  12.117   2.280 -0.2723 -0.2246 -0.1715
75681CL      CL35750   0.647   2.654   0.555  0.2990 -0.1642 -0.2076
75682CL      CL35751   5.772  12.394   0.202  0.0178  0.5500  0.2365
75683CL      CL35752   2.022   9.298   3.096 -0.2059  0.3351 -0.2028
75684CL      CL35753   0.407   3.355   9.120 -0.2049  0.0091  0.1962
75685CL      CL35754   3.000   0.986  13.133 -0.0304 -0.1058 -0.2474
75686CL      CL35755   6.183   6.127   9.673  0.0456  0.1800 -0.1273
75687CL      CL35756   5.827   0.303   2.556 -0.0497 -0.0115  0.2680
75688CL      CL35757   5.970   9.817   5.851  0.2917  0.0558 -0.1596
75689CL      CL35758   6.543  12.470  12.863 -0.2559 -0.2435  0.3265
75690CL      CL35759   4.709   6.089   5.889 -0.0046  0.4060  0.0078
75691CL      CL35760   6.554  11.157  10.806 -0.0461  0.5648 -0.6357
75692CL      CL35761  12.169   6.834   6.306 -0.1135 -0.5856  0.0400
75693CL      CL35762   0.780   2.015   2.328 -0.0476 -0.0715 -0.1649
75694CL      CL35763   4.834  10.122   4.240  0.1417 -0.3489  0.1702
75695CL      CL35764   2.963  12.871  11.866 -0.0571  0.7513 -0.3361
75696CL      CL35765   6.077   2.366   7.115  0.1096 -0.0662 -0.4882
75697CL      CL35766   4.240   9.294   4.158  0.0711 -0.2981 -0.4569
75698CL      CL35767  12.153   5.396   2.418  0.2014  0.2887 -0.3259
75699CL      CL35768   1.119   4.091   7.316 -0.0690 -0.1815  0.2669
75700CL      CL35769   0.182   9.694  12.542 -0.0086 -0.2414 -0.0317
75701CL      CL35770  12.282  13.155   0.496  0.1855 -0.1986 -0.3068
75702CL      CL35771  11.787   5.780   4.685 -0.1737 -0.2758  0.2782
75703CL      CL35772   7.877   6.693   6.933 -0.0599  0.3941 -0.2033
75704CL      CL35773   2.192  12.200   3.270  0.1635 -0.0472 -0.1757
75705CL      CL35774  13.182   7.334  13.298 -0.3601  0.3582  0.1564
75706CL      CL35775   5.626   4.289   3.557  0.1931  0.1919 -0.2186
75707CL      CL35776  11.171   6.417  11.059 -0.2942  0.1243 -0.4022
75708CL      CL35777   5.736   1.400   1.183  0.0069 -0.1506 -0.1733
75709CL      CL35778  11.330   8.295  13.028 -0.2917  0.1096 -0.0612
75710CL      CL35779   9.578   0.616   3.866 -0.0451  0.4401  0.0680
75711CL      CL35780  11.854   2.385   9.147 -0.1928  0.2551  0.0069
75712CL      CL35781   3.210   3.234  13.248  0.3588  0.0519 -0.4111
75713CL      CL35782   2.649  10.147   0.712 -0.3154 -0.1687 -0.3203
75714CL      CL35783  10.530   5.475   4.927  0.1486  0.2821  0.2210
75715CL      CL35784   5.401  12.020   2.060 -0.1915  0.0072  0.3989
75716CL      CL35785   1.803   9.283   0.003  0.2437  0.0965  0.0954
75717CL      CL35786  12.703   4.423   0.591 -0.4411 -0.2501 -0.2398
75718CL      CL35787  11.812   1.169   9.400 -0.3353 -0.2378 -0.3592
75719CL      CL35788   2.672   4.475  11.930  0.1347 -0.0753 -0.0135
75720CL      CL35789   5.802  11.352   7.555  0.3432 -0.3316  0.3708
75721CL      CL35790   7.753  12.480  11.605 -0.5589 -0.1642 -0.1679
75722CL      CL35791  11.621   3.363   4.567 -0.3219 -0.0581 -0.2487
75723CL      CL35792   9.860  11.913   3.568 -0.1991 -0.1523  0.2443
75724CL      CL35793   9.516  13.034  12.015 -0.2121  0.2195  0.1578
75725CL      CL35794   1.816   8.142   8.794 -0.0480 -0.1055 -0.2542
75726CL      CL35795   8.838   9.400   7.176  0.3037  0.1715 -0.0508
75727CL      CL35796   5.604   4.378   4.115 -0.0155 -0.0475 -0.0935
75728CL      CL35797   2.771   7.478   7.738  0.2230  0.0451 -0.0533
75729CL      CL35798   3.399  11.690   0.271 -0.3021 -0.2369  0.0016
75730CL      CL35799   5.158   9.900  11.465 -0.0656 -0.0827 -0.1756
75731CL      CL35800  11.199  13.307   0.736  0.2996 -0.0587  0.0530
75732CL      CL35801   8.243   8.425   3.147 -0.1537 -0.2174  0.1186
75733CL      CL35802  13.054   8.738   2.726 -0.3474  0.1609  0.1440
75734CL      CL35803   3.507   6.356   4.364 -0.3417  0.4423  0.0087
75735CL      CL35804   8.603  12.168   9.802 -0.0611  0.3149 -0.3723
75736CL      CL35805  12.811   0.702  10.726 -0.0710 -0.0414 -0.0230
75737CL      CL35806   3.168   8.567  13.193  0.0468 -0.0777 -0.0240
75738CL      CL35807   3.634   9.006   5.045 -0.0530 -0.0807  0.3989
75739CL      CL35808   6.127  10.523   9.557  0.0896  0.0657 -0.0716
75740CL      CL35809   4.181   8.274   0.426 -0.3072 -0.1401 -0.0327
75741CL      CL35810   4.309  12.291   7.759 -0.1962 -0.2448 -0.5328
75742CL      CL35811  12.524   6.307   3.950 -0.0967 -0.3140  0.0230
75743CL      CL35812   3.479   4.032   7.917 -0.1451 -0.4324 -0.0333
75744CL      CL35813   1.358   4.338  10.069 -0.1931 -0.4743  0.0516
75745CL      CL35814   4.997   6.962  10.536 -0.4467  0.1449 -0.2226
75746CL      CL35815   1.977   7.835   0.306 -0.1533  0.2226 -0.3713
75747CL      CL35816  10.399   9.282  12.500  0.0684 -0.3849 -0.2332
75748CL      CL35817  11.988   5.399   3.126 -0.1919  0.1337  0.1527
75749CL      CL35818   4.224  10.045  12.054 -0.1813 -0.0888  0.4923
75750CL      CL35819   1.476   1.144   8.700  0.1437  0.3949 -0.1668
75751CL      CL35820  12.586   2.676   5.879 -0.1201 -0.1687 -0.0561
75752CL      CL35821   5.222  10.622   7.496 -0.0413 -0.3836 -0.0772
75753CL      CL35822   3.483   6.914   0.022  0.2002 -0.4305  0.3385
75754CL      CL35823  12.138  12.435   7.230 -0.0744 -0.1000 -0.1270
75755CL      CL35824   5.785   5.699  13.153  0.0424 -0.1381  0.6576
75756CL      CL35825   1.484   5.545   5.037 -0.0652  0.1332  0.2978
75757CL      CL35826  11.743   7.699   8.813  0.1126 -0.3459 -0.1679
75758CL      CL35827  12.563   2.941  12.213  0.1466  0.1585 -0.1332
75759CL      CL35828   3.712   5.011   1.824  0.2250 -0.0128  0.1667
75760CL      CL35829   1.221   5.252   7.790 -0.2691  0.4327 -0.4167
75761CL      CL35830   9.104  10.205   4.175  0.4578 -0.0812  0.1621
75762CL      CL35831  12.502   4.352  10.219  0.0003  0.4289 -0.0969
75763CL      CL35832   5.165   5.427  11.972 -0.0824  0.0459 -0.1786
75764CL      CL35833   3.078  11.718  12.013  0.2271 -0.4497 -0.0858
75765CL      CL35834   9.451   5.171   5.154  0.1868  0.5032  0.2376
75766CL      CL35835   9.484   3.213   1.913 -0.8386  0.0251 -0.0881
75767CL      CL35836   0.768   6.846  12.552  0.2003  0.1654 -0.0689
75768CL      CL35837   5.516   9.100   6.426  0.0206 -0.1849  0.2153
75769CL      CL35838   0.381   1.552  11.886 -0.2346  0.1277 -0.1741
75770CL      CL35839   8.097  12.921  10.244 -0.5851 -0.6546  0.3623
75771CL      CL35840   3.901  10.304  10.349 -0.4013 -0.3925 -0.1667
75772CL      CL35841   0.314   0.261  12.893  0.1026 -0.3163 -0.0463
75773CL      CL35842   6.165  10.340   6.584 -0.1164  0.0099 -0.0491
75774CL      CL35843   2.894  12.431   6.881 -0.4067 -0.4022  0.4692
75775CL      CL35844   5.553   8.049  10.766 -0.2933 -0.0205 -0.1757
75776CL      CL35845   5.834   2.304   2.236  0.3244 -0.0399  0.0267
75777CL      CL35846   5.704   1.624  12.137  0.0070 -0.2779  0.1333
75778CL      CL35847   6.815   5.835   3.759  0.3200  0.3174  0.4013
75779CL      CL35848  13.103   0.188   0.602  0.3762  0.0530  0.1956
75780CL      CL35849   1.669   2.066   5.626  0.0636  0.5340 -0.1400
75781CL      CL35850   5.981  13.255   2.749 -0.0749  0.0954 -0.1409
75782CL      CL35851   1.582   3.854   2.027  0.1821  0.5085 -0.1726
75783CL      CL35852  12.378   6.845  12.813  0.2857 -0.0780 -0.1178
75784CL      CL35853   3.698   5.323   9.529  0.0506 -0.2432 -0.0272
75785CL      CL35854   2.497   2.356   1.886  0.0515  0.2256 -0.3843
75786CL      CL35855  11.139  12.928  11.076  0.3457  0.1586  0.2018
75787CL      CL35856   4.666   0.443   4.028 -0.1237 -0.4543  0.5307
75788CL      CL35857   9.385   3.789   3.271 -0.0297  0.0649  0.1521
75789CL      CL35858   8.315   2.388   0.415  0.1631  0.1815  0.0850
75790CL      CL35859  11.489   4.763   6.544  0.2496  0.2324 -0.0178
75791CL      CL35860   4.830   5.176   2.685 -0.3395  0.2786  0.3165
75792CL      CL35861  10.748  10.166   4.644  0.1074  0.1919  0.2646
75793CL      CL35862   5.131   9.328   5.930 -0.1108  0.3417  0.1491
75794CL      CL35863   1.457   0.846   4.922 -0.5418  0.2441  0.1048
75795CL      CL35864   3.474   2.609   5.994  0.3099  0.1485 -0.2297
75796CL      CL35865   1.773   7.741   3.995 -0.0760  0.1917  0.5128
75797CL      CL35866   8.496   9.320   5.941 -0.0005  0.4312 -0.2947
75798CL      CL35867   1.457   4.255  12.565  0.1593  0.2802 -0.0098
75799CL      CL35868  13.030   7.734  11.593  0.0831  0.0207 -0.2550
75800CL      CL35869   7.259  10.910  12.985  0.2323 -0.2270  0.6097
75801CL      CL35870   7.182   6.971   2.784 -0.1583  0.2090  0.1133
75802CL      CL35871   8.609   8.057   4.074  0.3258  0.2098 -0.2600
75803CL      CL35872  11.739   9.538  11.283  0.0566  0.1591 -0.0504
75804CL      CL35873   5.241  10.486   1.400 -0.1215 -0.0490 -0.3257
75805CL      CL35874   7.901   4.854   3.193  0.3994  0.2530 -0.1022
75806CL      CL35875   9.967   3.195   3.924 -0.3592 -0.1479  0.0363
75807CL      CL35876   1.285   7.161   4.942  0.0042  0.2980  0.3867
75808CL      CL35877   5.266   1.255   0.212  0.3519  0.0023  0.0924
75809CL      CL35878  11.288   6.121   7.608 -0.2989 -0.4440 -0.3302
75810CL      CL35879   2.225   4.738  10.864 -0.0114  0.3297  0.3858
75811CL      CL35880   0.857   0.876   5.859  0.1349  0.3224 -0.5371
75812CL      CL35881  12.080   2.812  11.544  0.1767  0.1796 -0.2580
75813CL      CL35882   0.990  11.654   6.308 -0.5477 -0.0619 -0.3394
75814CL      CL35883   3.627  12.579  11.901  0.1277 -0.4062 -0.2876
75815CL      CL35884  11.635   0.261   1.794  0.0137 -0.0862  0.0607
75816CL      CL35885   6.452   7.089   2.689  0.2942 -0.1300  0.1743
75817CL      CL35886   0.459   8.504  12.273 -0.3157 -0.1639  0.3223
75818CL      CL35887   8.581   9.498   0.759  0.0553 -0.2702  0.1736
75819CL      CL35888   4.712   0.115   1.031 -0.3900 -0.1016  0.0790
75820CL      CL35889  12.506   9.500   0.623  0.1623  0.2559  0.2441
75821CL      CL35890   3.084   0.946   1.817 -0.1371 -0.0333  0.1329
75822CL      CL35891   3.659   7.883   3.852 -0.1822  0.3462 -0.3671
75823CL      CL35892   6.932  12.796   0.271  0.2501  0.1048  0.0245
75824CL      CL35893   0.253   6.601   7.367 -0.3293  0.4241 -0.2507
75825CL      CL35894  11.130   5.172   8.369  0.3557 -0.1996 -0.1358
75826CL      CL35895  12.250   4.635  13.269 -0.1421 -0.0042  0.7023
75827CL      CL35896   9.373   8.523  10.625 -0.0813  0.1022 -0.4176
75828CL      CL35897   7.878  12.915   1.217  0.2702  0.0807  0.2091
75829CL      CL35898   3.664   8.005   2.424 -0.0787 -0.2433 -0.1877
75830CL      CL35899   6.226   6.466   5.611  0.2507  0.2736  0.0287
75831CL      CL35900   1.679   0.847   1.766 -0.2835  0.1192  0.1044
75832CL      CL35901   1.680   2.933   1.867 -0.2727  0.0944  0.1796
75833CL      CL35902   2.086   8.806   3.457  0.5716 -0.1780 -0.3775
75834CL      CL35903  10.668  12.968   3.958  0.2294  0.3859 -0.3251
75835CL      CL35904   6.225   5.385   0.619 -0.0017  0.3101 -0.0983
75836CL      CL35905   9.897   4.297  11.414  0.0073 -0.3266 -0.1312
75837CL      CL35906  10.203  11.741  11.627  0.1793 -0.0726  0.1835
75838CL      CL35907  11.588   7.369   9.180  0.4479  0.0042 -0.0595
75839CL      CL35908  11.196   2.018   0.887 -0.2705  0.4019 -0.2321
75840CL      CL35909   5.167  12.404   9.822 -0.1476 -0.2997 -0.0690
75841CL      CL35910   9.490  10.747   9.370  0.1411 -0.6572 -0.1902
75842CL      CL35911   5.738   5.912   7.104 -0.2166 -0.0903  0.1966
75843CL      CL35912   5.288  10.395   7.015 -0.2925 -0.3316  0.4840
75844CL      CL35913   2.943   6.804   8.996  0.2911  0.3675 -0.1144
75845CL      CL35914   7.162   9.950   6.603  0.3136  0.0134 -0.0119
75846CL      CL35915  12.451   7.448  10.258 -0.0195  0.2874  0.2083
75847CL      CL35916   3.055   2.104  11.641  0.1998 -0.0242  0.1191
75848CL      CL35917   7.234   0.437   3.760  0.1926 -0.1711  0.2377
75849CL      CL35918   4.042   0.235  11.791  0.0555  0.0782  0.0224
75850CL      CL35919   2.392   0.433  13.121 -0.6496 -0.4220 -0.2797
75851CL      CL35920   3.028  13.114  12.789 -0.2980 -0.0817  0.0271
75852CL      CL35921  11.323   6.439   6.009  0.0133 -0.4642 -0.0184
75853CL      CL35922   2.557   2.402   7.981  0.1480 -0.3900  0.3851
75854CL      CL35923   7.709   1.422   3.512 -0.0103 -0.0599  0.0427
75855CL      CL35924   1.117   4.746  11.342 -0.3698 -0.2842  0.1156
75856CL      CL35925   4.214  11.578   2.698  0.3220 -0.0252  0.0982
75857CL      CL35926  11.926   4.635   0.550 -0.1667 -0.2059  0.0451
75858CL      CL35927   2.640  12.204   9.158  0.3082  0.2168 -0.3682
75859CL      CL35928  10.237   5.778   2.403 -0.1409  0.3383 -0.3170
75860CL      CL35929   1.031   7.216   4.649 -0.1304  0.0110 -0.1106
75861CL      CL35930   8.912   8.432   6.752  0.5222  0.2255 -0.0720
75862CL      CL35931   3.610   4.248  11.558 -0.2178 -0.3097 -0.0603
75863CL      CL35932   9.282  13.257   7.281 -0.1355 -0.1981 -0.0204
75864CL      CL35933   7.132   0.704  12.308 -0.0740  0.0359 -0.1942
75865CL      CL35934   8.528   7.849   8.334 -0.0116 -0.1834 -0.0974
75866CL      CL35935   5.048   0.540   7.157 -0.1813 -0.3011  0.0190
75867CL      CL35936   5.514   0.988   3.127  0.2938  0.1909  0.0651
75868CL      CL35937   6.629   5.761  13.114 -0.5396 -0.2160 -0.3141
75869CL      CL35938   1.279   7.588   5.714 -0.0588 -0.2670 -0.6601
75870CL      CL35939   3.560   5.322  11.132  0.2028 -0.3085 -0.4444
75871CL      CL35940   3.379   8.391   9.532  0.0659  0.0444 -0.1647
75872CL      CL35941   2.888   4.760   6.156 -0.1180  0.1633  0.0995
75873CL      CL35942   5.940   9.885   0.653  0.3637  0.2869 -0.0211
75874CL      CL35943  12.171   8.861   9.731  0.0514  0.0572  0.0910
75875CL      CL35944   4.497   1.248   9.211  0.1245  0.0042 -0.1996
75876CL      CL35945  10.203  12.640   1.849 -0.0983  0.2215 -0.0926
75877CL      CL35946   2.375   8.731   3.735 -0.2388  0.0314 -0.0962
75878CL      CL35947   3.455  10.769  10.145  0.2525  0.0377 -0.1612
75879CL      CL35948   2.325  13.156   1.349 -0.0037  0.1049 -0.0214
75880CL      CL35949   1.016   4.484   1.271 -0.5889 -0.1614  0.3442
75881CL      CL35950   5.310   1.215   7.074 -0.0322  0.2349 -0.0995
75882CL      CL35951   2.031  11.672  10.894  0.3559  0.0195  0.3335
75883CL      CL35952   5.708   2.938   6.240 -0.1279  0.0651  0.3320
75884CL      CL35953   5.619  10.126   7.565 -0.0828 -0.0208 -0.4436
75885CL      CL35954   6.377   5.100   3.620  0.3366 -0.2196 -0.1065
75886CL      CL35955   6.143   9.701  11.232  0.2266  0.0166  0.0526
75887CL      CL35956   0.847   7.239   6.900 -0.0777 -0.0730  0.0099
75888CL      CL35957  11.064   1.024   9.875 -0.0446 -0.0675 -0.3917
75889CL      CL35958   2.374  10.608   4.319  0.2104 -0.2959  0.4986
75890CL      CL35959   5.497   4.873   5.695  0.3209  0.1859  0.3455
75891CL      CL35960   0.878   4.818   4.408  0.2303  0.3288  0.2311
  13.31484  13.31484  13.31484
